Protein in water t=   0.00000 step= 0
325713
    1DC5    H5T    1   3.973   4.159   6.351
    1DC5    O5'    2   3.923   4.087   6.313
    1DC5    C5'    3   3.965   3.956   6.358
    1DC5   H5'1    4   3.882   3.889   6.335
    1DC5   H5'2    5   3.982   3.965   6.465
    1DC5    C4'    6   4.088   3.892   6.297
    1DC5    H4'    7   4.104   3.802   6.357
    1DC5    O4'    8   4.053   3.859   6.163
    1DC5    C1'    9   4.148   3.917   6.077
    1DC5    H1'   10   4.218   3.836   6.060
    1DC5     N1   11   4.090   3.960   5.941
    1DC5     C6   12   3.960   4.001   5.923
    1DC5     H6   13   3.902   4.014   6.013
    1DC5     C5   14   3.909   4.023   5.796
    1DC5     H5   15   3.809   4.059   5.777
    1DC5     C4   16   3.994   4.009   5.693
    1DC5     N4   17   3.958   4.034   5.571
    1DC5    H41   18   4.023   4.041   5.495
    1DC5    H42   19   3.862   4.058   5.551
    1DC5     N3   20   4.124   3.979   5.706
    1DC5     C2   21   4.166   3.949   5.829
    1DC5     O2   22   4.280   3.903   5.837
    1DC5    C3'   23   4.220   3.973   6.285
    1DC5    H3'   24   4.225   4.055   6.357
    1DC5    C2'   25   4.194   4.035   6.153
    1DC5   H2'1   26   4.120   4.115   6.153
    1DC5   H2'2   27   4.278   4.069   6.093
    1DC5    O3'   28   4.328   3.881   6.287
    2DG       P   29   4.421   3.859   6.415
    2DG     O1P   30   4.485   3.727   6.388
    2DG     O2P   31   4.348   3.885   6.539
    2DG     O5'   32   4.526   3.982   6.393
    2DG     C5'   33   4.567   4.068   6.499
    2DG    H5'1   34   4.620   3.992   6.557
    2DG    H5'2   35   4.478   4.099   6.554
    2DG     C4'   36   4.647   4.188   6.455
    2DG     H4'   37   4.741   4.158   6.408
    2DG     O4'   38   4.570   4.276   6.368
    2DG     C1'   39   4.502   4.370   6.438
    2DG     H1'   40   4.522   4.465   6.388
    2DG      N9   41   4.353   4.350   6.428
    2DG      C8   42   4.259   4.275   6.496
    2DG      H8   43   4.286   4.203   6.571
    2DG      N7   44   4.140   4.291   6.447
    2DG      C5   45   4.149   4.394   6.358
    2DG      C6   46   4.043   4.457   6.275
    2DG      O6   47   3.922   4.442   6.285
    2DG      N1   48   4.093   4.540   6.184
    2DG      H1   49   4.028   4.570   6.113
    2DG      C2   50   4.222   4.576   6.180
    2DG      N2   51   4.246   4.674   6.096
    2DG     H21   52   4.168   4.706   6.041
    2DG     H22   53   4.340   4.711   6.100
    2DG      N3   54   4.326   4.519   6.248
    2DG      C4   55   4.283   4.425   6.339
    2DG     C3'   56   4.685   4.285   6.569
    2DG     H3'   57   4.699   4.231   6.663
    2DG     C2'   58   4.557   4.367   6.585
    2DG    H2'1   59   4.484   4.311   6.644
    2DG    H2'2   60   4.561   4.463   6.636
    2DG     O3'   61   4.805   4.350   6.526
    3DC       P   62   4.852   4.490   6.581
    3DC     O1P   63   4.988   4.526   6.538
    3DC     O2P   64   4.806   4.505   6.723
    3DC     O5'   65   4.750   4.582   6.495
    3DC     C5'   66   4.784   4.629   6.365
    3DC    H5'1   67   4.774   4.552   6.288
    3DC    H5'2   68   4.887   4.666   6.365
    3DC     C4'   69   4.700   4.762   6.334
    3DC     H4'   70   4.733   4.798   6.236
    3DC     O4'   71   4.560   4.735   6.321
    3DC     C1'   72   4.492   4.843   6.384
    3DC     H1'   73   4.489   4.931   6.320
    3DC      N1   74   4.354   4.800   6.425
    3DC      C6   75   4.344   4.692   6.506
    3DC      H6   76   4.432   4.631   6.526
    3DC      C5   77   4.223   4.654   6.548
    3DC      H5   78   4.215   4.563   6.605
    3DC      C4   79   4.111   4.731   6.504
    3DC      N4   80   3.995   4.691   6.540
    3DC     H41   81   3.915   4.745   6.511
    3DC     H42   82   3.984   4.611   6.601
    3DC      N3   83   4.117   4.846   6.434
    3DC      C2   84   4.243   4.884   6.396
    3DC      O2   85   4.263   4.991   6.332
    3DC     C3'   86   4.717   4.872   6.443
    3DC     H3'   87   4.782   4.842   6.525
    3DC     C2'   88   4.583   4.871   6.507
    3DC    H2'1   89   4.572   4.786   6.574
    3DC    H2'2   90   4.555   4.961   6.562
    3DC     O3'   91   4.749   4.992   6.387
    4DA       P   92   4.783   5.125   6.471
    4DA     O1P   93   4.776   5.097   6.613
    4DA     O2P   94   4.912   5.178   6.422
    4DA     O5'   95   4.656   5.212   6.440
    4DA     C5'   96   4.638   5.252   6.305
    4DA    H5'1   97   4.604   5.171   6.241
    4DA    H5'2   98   4.733   5.292   6.269
    4DA     C4'   99   4.537   5.368   6.287
    4DA     H4'  100   4.551   5.407   6.186
    4DA     O4'  101   4.401   5.338   6.315
    4DA     C1'  102   4.364   5.380   6.441
    4DA     H1'  103   4.279   5.446   6.424
    4DA      N9  104   4.319   5.263   6.522
    4DA      C8  105   4.399   5.177   6.596
    4DA      H8  106   4.506   5.186   6.606
    4DA      N7  107   4.329   5.100   6.670
    4DA      C5  108   4.191   5.127   6.636
    4DA      C6  109   4.062   5.074   6.677
    4DA      N6  110   4.027   4.985   6.770
    4DA     H61  111   3.929   4.971   6.786
    4DA     H62  112   4.098   4.945   6.830
    4DA      N1  113   3.951   5.125   6.621
    4DA      C2  114   3.963   5.219   6.526
    4DA      H2  115   3.869   5.252   6.484
    4DA      N3  116   4.075   5.279   6.479
    4DA      C4  117   4.187   5.229   6.541
    4DA     C3'  118   4.566   5.496   6.377
    4DA     H3'  119   4.671   5.496   6.406
    4DA     C2'  120   4.474   5.471   6.493
    4DA    H2'1  121   4.530   5.418   6.570
    4DA    H2'2  122   4.430   5.562   6.533
    4DA     O3'  123   4.536   5.618   6.312
    5DT       P  124   4.573   5.754   6.371
    5DT     O1P  125   4.579   5.861   6.269
    5DT     O2P  126   4.691   5.740   6.459
    5DT     O5'  127   4.445   5.798   6.464
    5DT     C5'  128   4.318   5.807   6.400
    5DT    H5'1  129   4.303   5.731   6.323
    5DT    H5'2  130   4.299   5.908   6.365
    5DT     C4'  131   4.194   5.780   6.486
    5DT     H4'  132   4.104   5.784   6.425
    5DT     O4'  133   4.184   5.646   6.548
    5DT     C1'  134   4.135   5.674   6.681
    5DT     H1'  135   4.028   5.694   6.673
    5DT      N1  136   4.142   5.548   6.763
    5DT      C6  137   4.264   5.508   6.814
    5DT      H6  138   4.353   5.560   6.782
    5DT      C5  139   4.265   5.404   6.894
    5DT      C7  140   4.401   5.353   6.932
    5DT     H71  141   4.406   5.254   6.887
    5DT     H72  142   4.482   5.410   6.886
    5DT     H73  143   4.413   5.341   7.040
    5DT      C4  144   4.151   5.320   6.919
    5DT      O4  145   4.141   5.215   6.987
    5DT      N3  146   4.035   5.361   6.856
    5DT      H3  147   3.952   5.304   6.861
    5DT      C2  148   4.031   5.469   6.773
    5DT      O2  149   3.926   5.492   6.713
    5DT     C3'  150   4.172   5.884   6.603
    5DT     H3'  151   4.241   5.967   6.588
    5DT     C2'  152   4.190   5.807   6.737
    5DT    H2'1  153   4.297   5.804   6.760
    5DT    H2'2  154   4.140   5.862   6.817
    5DT     O3'  155   4.032   5.923   6.600
    6DG       P  156   3.987   6.073   6.572
    6DG     O1P  157   4.010   6.102   6.429
    6DG     O2P  158   4.053   6.163   6.674
    6DG     O5'  159   3.830   6.079   6.588
    6DG     C5'  160   3.740   6.023   6.494
    6DG    H5'1  161   3.784   5.943   6.435
    6DG    H5'2  162   3.719   6.096   6.416
    6DG     C4'  163   3.598   5.985   6.555
    6DG     H4'  164   3.528   5.976   6.472
    6DG     O4'  165   3.600   5.863   6.632
    6DG     C1'  166   3.585   5.887   6.769
    6DG     H1'  167   3.492   5.849   6.812
    6DG      N9  168   3.697   5.822   6.842
    6DG      C8  169   3.830   5.856   6.842
    6DG      H8  170   3.875   5.929   6.776
    6DG      N7  171   3.895   5.791   6.938
    6DG      C5  172   3.801   5.711   7.002
    6DG      C6  173   3.814   5.621   7.112
    6DG      O6  174   3.916   5.591   7.174
    6DG      N1  175   3.693   5.570   7.151
    6DG      H1  176   3.695   5.518   7.238
    6DG      C2  177   3.576   5.581   7.089
    6DG      N2  178   3.465   5.552   7.149
    6DG     H21  179   3.457   5.490   7.228
    6DG     H22  180   3.378   5.586   7.110
    6DG      N3  181   3.569   5.652   6.975
    6DG      C4  182   3.679   5.719   6.941
    6DG     C3'  183   3.535   6.094   6.644
    6DG     H3'  184   3.583   6.186   6.613
    6DG     C2'  185   3.590   6.041   6.779
    6DG    H2'1  186   3.693   6.068   6.802
    6DG    H2'2  187   3.530   6.051   6.870
    6DG     O3'  188   3.390   6.098   6.636
    7DT       P  189   3.295   6.191   6.733
    7DT     O1P  190   3.158   6.171   6.676
    7DT     O2P  191   3.356   6.324   6.723
    7DT     O5'  192   3.298   6.136   6.885
    7DT     C5'  193   3.229   6.015   6.914
    7DT    H5'1  194   3.260   5.925   6.861
    7DT    H5'2  195   3.127   6.037   6.883
    7DT     C4'  196   3.237   5.958   7.057
    7DT     H4'  197   3.153   5.891   7.072
    7DT     O4'  198   3.361   5.898   7.073
    7DT     C1'  199   3.390   5.899   7.207
    7DT     H1'  200   3.331   5.818   7.250
    7DT      N1  201   3.533   5.896   7.229
    7DT      C6  202   3.617   5.980   7.166
    7DT      H6  203   3.573   6.055   7.102
    7DT      C5  204   3.749   5.984   7.198
    7DT      C7  205   3.838   6.082   7.116
    7DT     H71  206   3.780   6.105   7.027
    7DT     H72  207   3.869   6.168   7.176
    7DT     H73  208   3.926   6.025   7.086
    7DT      C4  209   3.797   5.898   7.306
    7DT      O4  210   3.914   5.895   7.339
    7DT      N3  211   3.704   5.813   7.374
    7DT      H3  212   3.733   5.734   7.428
    7DT      C2  213   3.577   5.811   7.332
    7DT      O2  214   3.498   5.739   7.397
    7DT     C3'  215   3.215   6.069   7.161
    7DT     H3'  216   3.224   6.166   7.113
    7DT     C2'  217   3.324   6.030   7.259
    7DT    H2'1  218   3.392   6.115   7.267
    7DT    H2'2  219   3.286   6.025   7.361
    7DT     O3'  220   3.077   6.051   7.207
    8DG       P  221   2.999   6.157   7.297
    8DG     O1P  222   2.858   6.110   7.288
    8DG     O2P  223   3.028   6.293   7.248
    8DG     O5'  224   3.057   6.144   7.446
    8DG     C5'  225   3.030   6.033   7.520
    8DG    H5'1  226   3.062   5.947   7.460
    8DG    H5'2  227   2.923   6.025   7.538
    8DG     C4'  228   3.099   6.032   7.654
    8DG     H4'  229   3.058   5.954   7.718
    8DG     O4'  230   3.234   5.994   7.625
    8DG     C1'  231   3.319   6.083   7.699
    8DG     H1'  232   3.320   6.071   7.807
    8DG      N9  233   3.459   6.066   7.649
    8DG      C8  234   3.516   6.157   7.559
    8DG      H8  235   3.460   6.223   7.493
    8DG      N7  236   3.642   6.134   7.537
    8DG      C5  237   3.673   6.029   7.630
    8DG      C6  238   3.794   5.952   7.657
    8DG      O6  239   3.905   5.981   7.618
    8DG      N1  240   3.779   5.844   7.748
    8DG      H1  241   3.844   5.767   7.746
    8DG      C2  242   3.661   5.823   7.805
    8DG      N2  243   3.658   5.711   7.866
    8DG     H21  244   3.747   5.668   7.889
    8DG     H22  245   3.570   5.674   7.897
    8DG      N3  246   3.539   5.871   7.772
    8DG      C4  247   3.554   5.976   7.687
    8DG     C3'  248   3.109   6.175   7.710
    8DG     H3'  249   3.035   6.246   7.671
    8DG     C2'  250   3.250   6.220   7.679
    8DG    H2'1  251   3.260   6.260   7.578
    8DG    H2'2  252   3.280   6.302   7.745
    8DG     O3'  253   3.106   6.164   7.850
    9DC       P  254   2.978   6.193   7.937
    9DC     O1P  255   2.862   6.149   7.854
    9DC     O2P  256   2.974   6.331   7.986
    9DC     O5'  257   3.007   6.097   8.060
    9DC     C5'  258   2.984   5.959   8.061
    9DC    H5'1  259   3.004   5.914   7.964
    9DC    H5'2  260   2.884   5.928   8.090
    9DC     C4'  261   3.080   5.886   8.159
    9DC     H4'  262   3.042   5.784   8.172
    9DC     O4'  263   3.216   5.873   8.117
    9DC     C1'  264   3.301   5.958   8.201
    9DC     H1'  265   3.348   5.884   8.264
    9DC      N1  266   3.387   6.044   8.115
    9DC      C6  267   3.350   6.150   8.042
    9DC      H6  268   3.246   6.178   8.044
    9DC      C5  269   3.436   6.217   7.967
    9DC      H5  270   3.407   6.306   7.913
    9DC      C4  271   3.573   6.178   7.961
    9DC      N4  272   3.660   6.230   7.879
    9DC     H41  273   3.749   6.184   7.870
    9DC     H42  274   3.642   6.313   7.824
    9DC      N3  275   3.611   6.073   8.028
    9DC      C2  276   3.518   6.007   8.102
    9DC      O2  277   3.556   5.911   8.160
    9DC     C3'  278   3.080   5.949   8.303
    9DC     H3'  279   2.989   6.006   8.319
    9DC     C2'  280   3.208   6.041   8.295
    9DC    H2'1  281   3.171   6.136   8.257
    9DC    H2'2  282   3.254   6.055   8.393
    9DC     O3'  283   3.090   5.840   8.391
   10DG       P  284   3.116   5.865   8.541
   10DG     O1P  285   3.038   5.754   8.611
   10DG     O2P  286   3.078   6.005   8.572
   10DG     O5'  287   3.267   5.845   8.582
   10DG     C5'  288   3.333   5.721   8.579
   10DG    H5'1  289   3.337   5.672   8.481
   10DG    H5'2  290   3.270   5.653   8.635
   10DG     C4'  291   3.470   5.723   8.649
   10DG     H4'  292   3.502   5.619   8.660
   10DG     O4'  293   3.567   5.782   8.563
   10DG     C1'  294   3.629   5.896   8.624
   10DG     H1'  295   3.727   5.863   8.657
   10DG      N9  296   3.630   6.009   8.525
   10DG      C8  297   3.521   6.079   8.483
   10DG      H8  298   3.423   6.059   8.522
   10DG      N7  299   3.549   6.167   8.392
   10DG      C5  300   3.691   6.160   8.382
   10DG      C6  301   3.783   6.241   8.304
   10DG      O6  302   3.760   6.328   8.223
   10DG      N1  303   3.914   6.203   8.325
   10DG      H1  304   3.991   6.253   8.281
   10DG      C2  305   3.950   6.097   8.399
   10DG      N2  306   4.077   6.064   8.398
   10DG     H21  307   4.152   6.105   8.342
   10DG     H22  308   4.115   6.002   8.468
   10DG      N3  309   3.875   6.023   8.476
   10DG      C4  310   3.742   6.062   8.462
   10DG     C3'  311   3.478   5.795   8.784
   10DG     H3'  312   3.380   5.813   8.828
   10DG     C2'  313   3.547   5.930   8.750
   10DG    H2'1  314   3.473   6.008   8.730
   10DG    H2'2  315   3.612   5.960   8.832
   10DG     O3'  316   3.562   5.712   8.857
   11DT       P  317   3.594   5.723   9.019
   11DT     O1P  318   3.635   5.585   9.062
   11DT     O2P  319   3.483   5.793   9.094
   11DT     O5'  320   3.721   5.820   9.031
   11DT     C5'  321   3.839   5.809   8.952
   11DT    H5'1  322   3.805   5.762   8.859
   11DT    H5'2  323   3.906   5.737   8.997
   11DT     C4'  324   3.913   5.944   8.939
   11DT     H4'  325   4.012   5.915   8.905
   11DT     O4'  326   3.849   6.028   8.840
   11DT     C1'  327   3.873   6.154   8.889
   11DT     H1'  328   3.976   6.187   8.876
   11DT      N1  329   3.804   6.248   8.807
   11DT      C6  330   3.663   6.260   8.813
   11DT      H6  331   3.609   6.207   8.890
   11DT      C5  332   3.591   6.334   8.728
   11DT      C7  333   3.441   6.335   8.745
   11DT     H71  334   3.402   6.417   8.805
   11DT     H72  335   3.387   6.338   8.651
   11DT     H73  336   3.406   6.243   8.794
   11DT      C4  337   3.660   6.408   8.624
   11DT      O4  338   3.606   6.473   8.538
   11DT      N3  339   3.802   6.400   8.626
   11DT      H3  340   3.844   6.457   8.554
   11DT      C2  341   3.877   6.320   8.707
   11DT      O2  342   3.997   6.310   8.692
   11DT     C3'  343   3.914   6.027   9.074
   11DT     H3'  344   3.858   5.970   9.148
   11DT     C2'  345   3.850   6.163   9.039
   11DT    H2'1  346   3.744   6.165   9.063
   11DT    H2'2  347   3.902   6.246   9.088
   11DT     O3'  348   4.053   6.049   9.106
   12DA       P  349   4.100   6.072   9.254
   12DA     O1P  350   4.136   5.940   9.320
   12DA     O2P  351   4.008   6.166   9.316
   12DA     O5'  352   4.243   6.146   9.237
   12DA     C5'  353   4.351   6.089   9.160
   12DA    H5'1  354   4.307   6.018   9.090
   12DA    H5'2  355   4.416   6.028   9.222
   12DA     C4'  356   4.440   6.191   9.091
   12DA     H4'  357   4.526   6.144   9.043
   12DA     O4'  358   4.375   6.259   8.986
   12DA     C1'  359   4.350   6.397   9.016
   12DA     H1'  360   4.421   6.461   8.964
   12DA      N9  361   4.216   6.448   8.989
   12DA      C8  362   4.098   6.408   9.042
   12DA      H8  363   4.092   6.328   9.114
   12DA      N7  364   3.995   6.480   9.005
   12DA      C5  365   4.048   6.566   8.915
   12DA      C6  366   3.987   6.657   8.825
   12DA      N6  367   3.859   6.700   8.828
   12DA     H61  368   3.819   6.757   8.755
   12DA     H62  369   3.807   6.667   8.908
   12DA      N1  370   4.058   6.724   8.736
   12DA      C2  371   4.192   6.701   8.730
   12DA      H2  372   4.250   6.745   8.650
   12DA      N3  373   4.260   6.616   8.806
   12DA      C4  374   4.185   6.545   8.896
   12DA     C3'  375   4.486   6.298   9.198
   12DA     H3'  376   4.477   6.274   9.304
   12DA     C2'  377   4.392   6.415   9.164
   12DA    H2'1  378   4.303   6.395   9.224
   12DA    H2'2  379   4.428   6.516   9.181
   12DA     O3'  380   4.628   6.327   9.184
   13DT       P  381   4.707   6.457   9.241
   13DT     O1P  382   4.855   6.426   9.245
   13DT     O2P  383   4.638   6.507   9.362
   13DT     O5'  384   4.678   6.562   9.135
   13DT     C5'  385   4.721   6.540   9.001
   13DT    H5'1  386   4.657   6.468   8.951
   13DT    H5'2  387   4.827   6.513   9.005
   13DT     C4'  388   4.708   6.664   8.914
   13DT     H4'  389   4.738   6.624   8.817
   13DT     O4'  390   4.572   6.692   8.920
   13DT     C1'  391   4.554   6.831   8.953
   13DT     H1'  392   4.550   6.885   8.858
   13DT      N1  393   4.422   6.850   9.019
   13DT      C6  394   4.386   6.773   9.127
   13DT      H6  395   4.467   6.720   9.175
   13DT      C5  396   4.254   6.776   9.174
   13DT      C7  397   4.218   6.685   9.293
   13DT     H71  398   4.305   6.626   9.322
   13DT     H72  399   4.191   6.746   9.379
   13DT     H73  400   4.138   6.619   9.262
   13DT      C4  401   4.149   6.850   9.096
   13DT      O4  402   4.029   6.862   9.128
   13DT      N3  403   4.192   6.911   8.985
   13DT      H3  404   4.124   6.971   8.941
   13DT      C2  405   4.326   6.920   8.939
   13DT      O2  406   4.338   6.975   8.828
   13DT     C3'  407   4.786   6.787   8.958
   13DT     H3'  408   4.871   6.759   9.019
   13DT     C2'  409   4.682   6.868   9.032
   13DT    H2'1  410   4.696   6.844   9.138
   13DT    H2'2  411   4.695   6.974   9.011
   13DT     O3'  412   4.839   6.852   8.842
   14DA       P  413   4.935   6.974   8.843
   14DA     O1P  414   5.021   6.982   8.722
   14DA     O2P  415   5.009   6.980   8.973
   14DA     O5'  416   4.840   7.103   8.833
   14DA     C5'  417   4.788   7.132   8.707
   14DA    H5'1  418   4.746   7.043   8.662
   14DA    H5'2  419   4.871   7.162   8.643
   14DA     C4'  420   4.684   7.242   8.692
   14DA     H4'  421   4.651   7.245   8.588
   14DA     O4'  422   4.561   7.215   8.765
   14DA     C1'  423   4.540   7.319   8.864
   14DA     H1'  424   4.487   7.400   8.814
   14DA      N9  425   4.473   7.266   8.983
   14DA      C8  426   4.528   7.203   9.093
   14DA      H8  427   4.632   7.180   9.109
   14DA      N7  428   4.437   7.184   9.181
   14DA      C5  429   4.321   7.239   9.124
   14DA      C6  430   4.195   7.264   9.179
   14DA      N6  431   4.145   7.219   9.292
   14DA     H61  432   4.054   7.249   9.323
   14DA     H62  433   4.199   7.154   9.347
   14DA      N1  434   4.113   7.351   9.122
   14DA      C2  435   4.151   7.408   9.005
   14DA      H2  436   4.081   7.486   8.978
   14DA      N3  437   4.260   7.381   8.935
   14DA      C4  438   4.345   7.306   9.007
   14DA     C3'  439   4.735   7.378   8.747
   14DA     H3'  440   4.843   7.381   8.745
   14DA     C2'  441   4.682   7.370   8.888
   14DA    H2'1  442   4.738   7.311   8.961
   14DA    H2'2  443   4.675   7.472   8.928
   14DA     O3'  444   4.690   7.486   8.677
   15DT       P  445   4.743   7.636   8.699
   15DT     O1P  446   4.735   7.706   8.567
   15DT     O2P  447   4.874   7.636   8.767
   15DT     O5'  448   4.640   7.701   8.794
   15DT     C5'  449   4.501   7.715   8.750
   15DT    H5'1  450   4.468   7.614   8.726
   15DT    H5'2  451   4.494   7.776   8.661
   15DT     C4'  452   4.408   7.762   8.867
   15DT     H4'  453   4.309   7.775   8.823
   15DT     O4'  454   4.390   7.657   8.963
   15DT     C1'  455   4.310   7.736   9.061
   15DT     H1'  456   4.213   7.750   9.013
   15DT      N1  457   4.305   7.658   9.186
   15DT      C6  458   4.421   7.592   9.232
   15DT      H6  459   4.515   7.602   9.179
   15DT      C5  460   4.415   7.514   9.341
   15DT      C7  461   4.543   7.452   9.389
   15DT     H71  462   4.615   7.468   9.309
   15DT     H72  463   4.578   7.505   9.477
   15DT     H73  464   4.519   7.347   9.408
   15DT      C4  465   4.288   7.501   9.414
   15DT      O4  466   4.263   7.442   9.519
   15DT      N3  467   4.182   7.568   9.363
   15DT      H3  468   4.089   7.539   9.391
   15DT      C2  469   4.184   7.652   9.253
   15DT      O2  470   4.081   7.697   9.214
   15DT     C3'  471   4.452   7.888   8.944
   15DT     H3'  472   4.559   7.884   8.968
   15DT     C2'  473   4.378   7.872   9.076
   15DT    H2'1  474   4.448   7.870   9.159
   15DT    H2'2  475   4.297   7.944   9.090
   15DT     O3'  476   4.413   8.009   8.870
   16DA       P  477   4.423   8.150   8.937
   16DA     O1P  478   4.443   8.252   8.832
   16DA     O2P  479   4.524   8.139   9.046
   16DA     O5'  480   4.277   8.179   8.995
   16DA     C5'  481   4.161   8.144   8.916
   16DA    H5'1  482   4.157   8.037   8.898
   16DA    H5'2  483   4.163   8.191   8.818
   16DA     C4'  484   4.027   8.170   8.987
   16DA     H4'  485   3.945   8.137   8.924
   16DA     O4'  486   4.030   8.086   9.096
   16DA     C1'  487   4.026   8.148   9.224
   16DA     H1'  488   3.928   8.134   9.269
   16DA      N9  489   4.116   8.061   9.300
   16DA      C8  490   4.254   8.068   9.304
   16DA      H8  491   4.308   8.132   9.236
   16DA      N7  492   4.312   7.980   9.386
   16DA      C5  493   4.198   7.925   9.450
   16DA      C6  494   4.179   7.827   9.551
   16DA      N6  495   4.269   7.775   9.626
   16DA     H61  496   4.247   7.701   9.692
   16DA     H62  497   4.365   7.793   9.601
   16DA      N1  498   4.057   7.783   9.586
   16DA      C2  499   3.948   7.842   9.530
   16DA      H2  500   3.850   7.813   9.564
   16DA      N3  501   3.946   7.933   9.433
   16DA      C4  502   4.078   7.971   9.398
   16DA     C3'  503   4.007   8.307   9.047
   16DA     H3'  504   4.050   8.387   8.988
   16DA     C2'  505   4.056   8.291   9.191
   16DA    H2'1  506   4.165   8.303   9.192
   16DA    H2'2  507   4.022   8.363   9.266
   16DA     O3'  508   3.865   8.320   9.055
   17DC       P  509   3.812   8.466   9.074
   17DC     O1P  510   3.680   8.462   9.013
   17DC     O2P  511   3.912   8.569   9.037
   17DC     O5'  512   3.798   8.468   9.234
   17DC     C5'  513   3.690   8.401   9.294
   17DC    H5'1  514   3.665   8.309   9.240
   17DC    H5'2  515   3.605   8.469   9.299
   17DC     C4'  516   3.714   8.357   9.443
   17DC     H4'  517   3.623   8.305   9.470
   17DC     O4'  518   3.830   8.271   9.451
   17DC     C1'  519   3.877   8.306   9.577
   17DC     H1'  520   3.799   8.283   9.649
   17DC      N1  521   4.010   8.234   9.615
   17DC      C6  522   4.128   8.279   9.568
   17DC      H6  523   4.121   8.369   9.509
   17DC      C5  524   4.243   8.227   9.610
   17DC      H5  525   4.334   8.263   9.566
   17DC      C4  526   4.237   8.132   9.716
   17DC      N4  527   4.350   8.088   9.767
   17DC     H41  528   4.338   8.003   9.820
   17DC     H42  529   4.429   8.081   9.704
   17DC      N3  530   4.122   8.087   9.768
   17DC      C2  531   4.002   8.135   9.714
   17DC      O2  532   3.900   8.090   9.764
   17DC     C3'  533   3.733   8.476   9.534
   17DC     H3'  534   3.722   8.569   9.478
   17DC     C2'  535   3.877   8.454   9.578
   17DC    H2'1  536   3.947   8.499   9.508
   17DC    H2'2  537   3.899   8.498   9.676
   17DC     O3'  538   3.647   8.478   9.642
   18DA       P  539   3.579   8.620   9.680
   18DA     O1P  540   3.481   8.647   9.569
   18DA     O2P  541   3.690   8.716   9.710
   18DA     O5'  542   3.500   8.591   9.812
   18DA     C5'  543   3.395   8.498   9.817
   18DA    H5'1  544   3.408   8.440   9.726
   18DA    H5'2  545   3.293   8.538   9.826
   18DA     C4'  546   3.419   8.404   9.939
   18DA     H4'  547   3.334   8.336   9.944
   18DA     O4'  548   3.537   8.330   9.916
   18DA     C1'  549   3.614   8.335  10.038
   18DA     H1'  550   3.587   8.250  10.101
   18DA      N9  551   3.758   8.337  10.015
   18DA      C8  552   3.828   8.420   9.937
   18DA      H8  553   3.786   8.500   9.878
   18DA      N7  554   3.961   8.406   9.945
   18DA      C5  555   3.973   8.296  10.038
   18DA      C6  556   4.080   8.222  10.089
   18DA      N6  557   4.206   8.246  10.057
   18DA     H61  558   4.278   8.194  10.104
   18DA     H62  559   4.222   8.314   9.984
   18DA      N1  560   4.061   8.118  10.174
   18DA      C2  561   3.936   8.096  10.210
   18DA      H2  562   3.929   8.014  10.279
   18DA      N3  563   3.822   8.152  10.172
   18DA      C4  564   3.851   8.258  10.083
   18DA     C3'  565   3.425   8.479  10.070
   18DA     H3'  566   3.415   8.585  10.051
   18DA     C2'  567   3.571   8.464  10.111
   18DA    H2'1  568   3.626   8.551  10.076
   18DA    H2'2  569   3.580   8.455  10.219
   18DA     O3'  570   3.335   8.442  10.177
   19DT       P  571   3.340   8.504  10.320
   19DT     O1P  572   3.198   8.482  10.363
   19DT     O2P  573   3.398   8.641  10.318
   19DT     O5'  574   3.424   8.402  10.406
   19DT     C5'  575   3.381   8.273  10.433
   19DT    H5'1  576   3.400   8.208  10.348
   19DT    H5'2  577   3.274   8.271  10.454
   19DT     C4'  578   3.458   8.213  10.543
   19DT     H4'  579   3.415   8.113  10.547
   19DT     O4'  580   3.594   8.200  10.507
   19DT     C1'  581   3.686   8.270  10.590
   19DT     H1'  582   3.722   8.193  10.658
   19DT      N1  583   3.797   8.338  10.508
   19DT      C6  584   3.770   8.456  10.437
   19DT      H6  585   3.676   8.507  10.445
   19DT      C5  586   3.870   8.510  10.359
   19DT      C7  587   3.840   8.643  10.292
   19DT     H71  588   3.909   8.723  10.316
   19DT     H72  589   3.838   8.628  10.183
   19DT     H73  590   3.742   8.676  10.325
   19DT      C4  591   4.003   8.452  10.350
   19DT      O4  592   4.102   8.490  10.289
   19DT      N3  593   4.019   8.335  10.422
   19DT      H3  594   4.113   8.297  10.427
   19DT      C2  595   3.922   8.278  10.501
   19DT      O2  596   3.954   8.177  10.562
   19DT     C3'  597   3.462   8.281  10.680
   19DT     H3'  598   3.377   8.346  10.703
   19DT     C2'  599   3.593   8.361  10.674
   19DT    H2'1  600   3.583   8.461  10.634
   19DT    H2'2  601   3.642   8.368  10.772
   19DT     O3'  602   3.451   8.176  10.775
   20DT       P  603   3.481   8.196  10.925
   20DT     O1P  604   3.430   8.080  11.001
   20DT     O2P  605   3.427   8.324  10.967
   20DT     O5'  606   3.643   8.199  10.940
   20DT     C5'  607   3.715   8.075  10.952
   20DT    H5'1  608   3.719   8.034  10.851
   20DT    H5'2  609   3.656   8.012  11.019
   20DT     C4'  610   3.854   8.106  11.017
   20DT     H4'  611   3.913   8.015  11.034
   20DT     O4'  612   3.933   8.184  10.928
   20DT     C1'  613   3.996   8.285  11.008
   20DT     H1'  614   4.085   8.237  11.048
   20DT      N1  615   4.026   8.408  10.921
   20DT      C6  616   3.930   8.482  10.861
   20DT      H6  617   3.830   8.454  10.889
   20DT      C5  618   3.957   8.586  10.782
   20DT      C7  619   3.841   8.679  10.725
   20DT     H71  620   3.742   8.635  10.733
   20DT     H72  621   3.840   8.774  10.778
   20DT     H73  622   3.852   8.694  10.617
   20DT      C4  623   4.098   8.610  10.744
   20DT      O4  624   4.135   8.695  10.660
   20DT      N3  625   4.191   8.545  10.820
   20DT      H3  626   4.285   8.576  10.799
   20DT      C2  627   4.161   8.441  10.903
   20DT      O2  628   4.258   8.388  10.955
   20DT     C3'  629   3.831   8.178  11.150
   20DT     H3'  630   3.725   8.186  11.175
   20DT     C2'  631   3.892   8.316  11.113
   20DT    H2'1  632   3.813   8.379  11.073
   20DT    H2'2  633   3.921   8.355  11.211
   20DT     O3'  634   3.905   8.111  11.261
   21DG       P  635   3.903   8.170  11.405
   21DG     O1P  636   3.929   8.055  11.501
   21DG     O2P  637   3.776   8.247  11.422
   21DG     O5'  638   4.019   8.277  11.408
   21DG     C5'  639   4.147   8.254  11.355
   21DG    H5'1  640   4.146   8.221  11.252
   21DG    H5'2  641   4.190   8.163  11.397
   21DG     C4'  642   4.233   8.381  11.368
   21DG     H4'  643   4.335   8.348  11.385
   21DG     O4'  644   4.212   8.461  11.251
   21DG     C1'  645   4.182   8.586  11.300
   21DG     H1'  646   4.278   8.637  11.313
   21DG      N9  647   4.121   8.660  11.192
   21DG      C8  648   3.990   8.677  11.161
   21DG      H8  649   3.917   8.624  11.220
   21DG      N7  650   3.962   8.769  11.072
   21DG      C5  651   4.088   8.794  11.016
   21DG      C6  652   4.134   8.884  10.905
   21DG      O6  653   4.066   8.943  10.830
   21DG      N1  654   4.273   8.882  10.887
   21DG      H1  655   4.318   8.936  10.813
   21DG      C2  656   4.354   8.818  10.976
   21DG      N2  657   4.484   8.828  10.953
   21DG     H21  658   4.527   8.882  10.879
   21DG     H22  659   4.551   8.787  11.016
   21DG      N3  660   4.321   8.752  11.081
   21DG      C4  661   4.180   8.740  11.096
   21DG     C3'  662   4.192   8.463  11.490
   21DG     H3'  663   4.148   8.407  11.573
   21DG     C2'  664   4.104   8.574  11.434
   21DG    H2'1  665   4.002   8.537  11.422
   21DG    H2'2  666   4.108   8.661  11.500
   21DG     O3'  667   4.308   8.525  11.532
   22DT       P  668   4.373   8.496  11.673
   22DT     O1P  669   4.422   8.361  11.686
   22DT     O2P  670   4.289   8.537  11.786
   22DT     O5'  671   4.507   8.587  11.667
   22DT     C5'  672   4.589   8.584  11.554
   22DT    H5'1  673   4.537   8.532  11.474
   22DT    H5'2  674   4.672   8.519  11.582
   22DT     C4'  675   4.630   8.717  11.496
   22DT     H4'  676   4.719   8.701  11.435
   22DT     O4'  677   4.511   8.748  11.417
   22DT     C1'  678   4.500   8.888  11.433
   22DT     H1'  679   4.583   8.932  11.379
   22DT      N1  680   4.375   8.942  11.378
   22DT      C6  681   4.251   8.921  11.436
   22DT      H6  682   4.245   8.861  11.525
   22DT      C5  683   4.134   8.972  11.386
   22DT      C7  684   4.003   8.943  11.461
   22DT     H71  685   4.019   8.942  11.569
   22DT     H72  686   3.928   9.020  11.446
   22DT     H73  687   3.967   8.845  11.430
   22DT      C4  688   4.145   9.061  11.268
   22DT      O4  689   4.050   9.108  11.201
   22DT      N3  690   4.275   9.086  11.223
   22DT      H3  691   4.285   9.146  11.143
   22DT      C2  692   4.395   9.025  11.270
   22DT      O2  693   4.493   9.036  11.200
   22DT     C3'  694   4.659   8.830  11.597
   22DT     H3'  695   4.679   8.792  11.697
   22DT     C2'  696   4.525   8.906  11.579
   22DT    H2'1  697   4.449   8.853  11.636
   22DT    H2'2  698   4.533   9.012  11.602
   22DT     O3'  699   4.762   8.918  11.550
   23DA       P  700   4.915   8.874  11.562
   23DA     O1P  701   4.923   8.730  11.563
   23DA     O2P  702   4.970   8.949  11.676
   23DA     O5'  703   5.008   8.936  11.450
   23DA     C5'  704   4.996   8.902  11.312
   23DA    H5'1  705   4.895   8.913  11.272
   23DA    H5'2  706   5.030   8.799  11.296
   23DA     C4'  707   5.083   8.981  11.222
   23DA     H4'  708   5.120   8.922  11.138
   23DA     O4'  709   5.011   9.085  11.168
   23DA     C1'  710   5.015   9.203  11.258
   23DA     H1'  711   5.038   9.287  11.192
   23DA      N9  712   4.879   9.228  11.318
   23DA      C8  713   4.826   9.207  11.445
   23DA      H8  714   4.879   9.162  11.528
   23DA      N7  715   4.699   9.254  11.463
   23DA      C5  716   4.667   9.297  11.331
   23DA      C6  717   4.558   9.366  11.270
   23DA      N6  718   4.447   9.392  11.330
   23DA     H61  719   4.380   9.451  11.284
   23DA     H62  720   4.439   9.359  11.425
   23DA      N1  721   4.569   9.418  11.147
   23DA      C2  722   4.672   9.389  11.071
   23DA      H2  723   4.658   9.413  10.966
   23DA      N3  724   4.776   9.317  11.112
   23DA      C4  725   4.772   9.281  11.244
   23DA     C3'  726   5.196   9.063  11.290
   23DA     H3'  727   5.238   9.007  11.374
   23DA     C2'  728   5.126   9.185  11.356
   23DA    H2'1  729   5.096   9.168  11.459
   23DA    H2'2  730   5.188   9.274  11.346
   23DA     O3'  731   5.297   9.085  11.192
   24DC       P  732   5.418   9.189  11.227
   24DC     O1P  733   5.526   9.147  11.134
   24DC     O2P  734   5.450   9.193  11.369
   24DC     O5'  735   5.378   9.334  11.181
   24DC     C5'  736   5.370   9.377  11.050
   24DC    H5'1  737   5.294   9.312  11.005
   24DC    H5'2  738   5.465   9.354  11.001
   24DC     C4'  739   5.322   9.528  11.039
   24DC     H4'  740   5.318   9.556  10.934
   24DC     O4'  741   5.190   9.525  11.087
   24DC     C1'  742   5.177   9.647  11.166
   24DC     H1'  743   5.164   9.736  11.104
   24DC      N1  744   5.063   9.640  11.266
   24DC      C6  745   5.067   9.556  11.376
   24DC      H6  746   5.157   9.500  11.395
   24DC      C5  747   4.958   9.539  11.455
   24DC      H5  748   4.970   9.477  11.542
   24DC      C4  749   4.838   9.602  11.412
   24DC      N4  750   4.729   9.591  11.479
   24DC     H41  751   4.650   9.644  11.445
   24DC     H42  752   4.727   9.538  11.565
   24DC      N3  753   4.831   9.685  11.312
   24DC      C2  754   4.945   9.713  11.242
   24DC      O2  755   4.934   9.803  11.153
   24DC     C3'  756   5.407   9.632  11.115
   24DC     H3'  757   5.500   9.581  11.140
   24DC     C2'  758   5.319   9.661  11.234
   24DC    H2'1  759   5.337   9.592  11.316
   24DC    H2'2  760   5.345   9.763  11.263
   24DC     O3'  761   5.426   9.746  11.031
   25DG       P  762   5.551   9.840  11.051
   25DG     O1P  763   5.582   9.893  10.916
   25DG     O2P  764   5.649   9.764  11.123
   25DG     O5'  765   5.486   9.954  11.141
   25DG     C5'  766   5.401  10.054  11.079
   25DG    H5'1  767   5.343  10.006  11.001
   25DG    H5'2  768   5.464  10.123  11.022
   25DG     C4'  769   5.309  10.128  11.179
   25DG     H4'  770   5.267  10.211  11.122
   25DG     O4'  771   5.205  10.040  11.226
   25DG     C1'  772   5.197  10.074  11.363
   25DG     H1'  773   5.143  10.167  11.375
   25DG      N9  774   5.130   9.967  11.445
   25DG      C8  775   5.185   9.870  11.523
   25DG      H8  776   5.287   9.838  11.514
   25DG      N7  777   5.110   9.816  11.605
   25DG      C5  778   4.984   9.878  11.583
   25DG      C6  779   4.847   9.846  11.636
   25DG      O6  780   4.811   9.762  11.718
   25DG      N1  781   4.750   9.924  11.574
   25DG      H1  782   4.653   9.901  11.593
   25DG      C2  783   4.776  10.035  11.497
   25DG      N2  784   4.677  10.105  11.461
   25DG     H21  785   4.587  10.073  11.495
   25DG     H22  786   4.685  10.201  11.428
   25DG      N3  787   4.897  10.055  11.442
   25DG      C4  788   4.998   9.976  11.488
   25DG     C3'  789   5.387  10.181  11.296
   25DG     H3'  790   5.494  10.172  11.278
   25DG     C2'  791   5.342  10.082  11.410
   25DG    H2'1  792   5.384   9.985  11.386
   25DG    H2'2  793   5.366  10.124  11.508
   25DG     O3'  794   5.333  10.315  11.318
   26DC       P  795   5.393  10.446  11.240
   26DC     O1P  796   5.407  10.424  11.097
   26DC     O2P  797   5.513  10.499  11.315
   26DC     O5'  798   5.273  10.537  11.277
   26DC     C5'  799   5.154  10.544  11.209
   26DC    H5'1  800   5.120  10.446  11.176
   26DC    H5'2  801   5.177  10.604  11.121
   26DC     C4'  802   5.048  10.610  11.294
   26DC     H4'  803   4.965  10.646  11.234
   26DC     O4'  804   4.982  10.499  11.371
   26DC     C1'  805   4.983  10.531  11.512
   26DC     H1'  806   4.885  10.571  11.540
   26DC      N1  807   5.004  10.402  11.589
   26DC      C6  808   5.128  10.353  11.622
   26DC      H6  809   5.213  10.408  11.584
   26DC      C5  810   5.141  10.238  11.697
   26DC      H5  811   5.239  10.195  11.715
   26DC      C4  812   5.014  10.175  11.738
   26DC      N4  813   5.024  10.061  11.800
   26DC     H41  814   4.940  10.012  11.827
   26DC     H42  815   5.115  10.031  11.831
   26DC      N3  816   4.891  10.220  11.701
   26DC      C2  817   4.889  10.332  11.625
   26DC      O2  818   4.782  10.369  11.585
   26DC     C3'  819   5.090  10.716  11.391
   26DC     H3'  820   5.194  10.726  11.360
   26DC     C2'  821   5.090  10.641  11.525
   26DC    H2'1  822   5.189  10.598  11.537
   26DC    H2'2  823   5.060  10.702  11.610
   26DC     O3'  824   5.016  10.836  11.380
   27DA       P  825   5.027  10.964  11.474
   27DA     O1P  826   4.969  11.082  11.406
   27DA     O2P  827   5.165  10.977  11.526
   27DA     O5'  828   4.932  10.923  11.590
   27DA     C5'  829   4.797  10.875  11.566
   27DA    H5'1  830   4.790  10.804  11.484
   27DA    H5'2  831   4.723  10.952  11.548
   27DA     C4'  832   4.736  10.797  11.687
   27DA     H4'  833   4.640  10.770  11.644
   27DA     O4'  834   4.812  10.685  11.730
   27DA     C1'  835   4.816  10.677  11.871
   27DA     H1'  836   4.727  10.628  11.912
   27DA      N9  837   4.932  10.594  11.909
   27DA      C8  838   5.065  10.607  11.876
   27DA      H8  839   5.102  10.690  11.819
   27DA      N7  840   5.139  10.511  11.920
   27DA      C5  841   5.050  10.427  11.987
   27DA      C6  842   5.058  10.308  12.053
   27DA      N6  843   5.161  10.228  12.075
   27DA     H61  844   5.142  10.155  12.142
   27DA     H62  845   5.250  10.252  12.035
   27DA      N1  846   4.947  10.250  12.105
   27DA      C2  847   4.829  10.307  12.088
   27DA      H2  848   4.742  10.257  12.127
   27DA      N3  849   4.806  10.416  12.020
   27DA      C4  850   4.923  10.473  11.976
   27DA     C3'  851   4.730  10.893  11.808
   27DA     H3'  852   4.783  10.984  11.781
   27DA     C2'  853   4.805  10.817  11.921
   27DA    H2'1  854   4.904  10.863  11.932
   27DA    H2'2  855   4.749  10.812  12.015
   27DA     O3'  856   4.595  10.914  11.827
   28DT       P  857   4.547  11.007  11.948
   28DT     O1P  858   4.416  11.066  11.906
   28DT     O2P  859   4.659  11.098  11.988
   28DT     O5'  860   4.526  10.906  12.065
   28DT     C5'  861   4.424  10.808  12.061
   28DT    H5'1  862   4.438  10.768  11.960
   28DT    H5'2  863   4.329  10.862  12.064
   28DT     C4'  864   4.415  10.702  12.173
   28DT     H4'  865   4.330  10.635  12.158
   28DT     O4'  866   4.537  10.629  12.193
   28DT     C1'  867   4.572  10.633  12.332
   28DT     H1'  868   4.517  10.556  12.386
   28DT      N1  869   4.725  10.617  12.344
   28DT      C6  870   4.815  10.715  12.301
   28DT      H6  871   4.772  10.808  12.267
   28DT      C5  872   4.947  10.687  12.286
   28DT      C7  873   5.036  10.789  12.229
   28DT     H71  874   4.984  10.884  12.240
   28DT     H72  875   5.127  10.801  12.287
   28DT     H73  876   5.044  10.771  12.121
   28DT      C4  877   4.997  10.548  12.308
   28DT      O4  878   5.109  10.506  12.287
   28DT      N3  879   4.910  10.469  12.381
   28DT      H3  880   4.947  10.392  12.436
   28DT      C2  881   4.776  10.497  12.392
   28DT      O2  882   4.706  10.407  12.440
   28DT     C3'  883   4.392  10.772  12.306
   28DT     H3'  884   4.363  10.876  12.291
   28DT     C2'  885   4.525  10.766  12.372
   28DT    H2'1  886   4.587  10.847  12.334
   28DT    H2'2  887   4.508  10.775  12.479
   28DT     O3'  888   4.294  10.706  12.385
   29DA       P  889   4.218  10.777  12.506
   29DA     O1P  890   4.078  10.778  12.460
   29DA     O2P  891   4.283  10.905  12.550
   29DA     O5'  892   4.235  10.662  12.622
   29DA     C5'  893   4.134  10.563  12.634
   29DA    H5'1  894   4.132  10.502  12.544
   29DA    H5'2  895   4.038  10.612  12.647
   29DA     C4'  896   4.161  10.454  12.745
   29DA     H4'  897   4.087  10.376  12.726
   29DA     O4'  898   4.297  10.418  12.723
   29DA     C1'  899   4.384  10.459  12.831
   29DA     H1'  900   4.411  10.369  12.886
   29DA      N9  901   4.512  10.524  12.786
   29DA      C8  902   4.528  10.642  12.717
   29DA      H8  903   4.444  10.705  12.693
   29DA      N7  904   4.654  10.662  12.690
   29DA      C5  905   4.724  10.554  12.751
   29DA      C6  906   4.858  10.506  12.749
   29DA      N6  907   4.964  10.574  12.699
   29DA     H61  908   5.054  10.531  12.710
   29DA     H62  909   4.948  10.669  12.668
   29DA      N1  910   4.884  10.387  12.804
   29DA      C2  911   4.787  10.317  12.860
   29DA      H2  912   4.826  10.228  12.907
   29DA      N3  913   4.654  10.347  12.864
   29DA      C4  914   4.636  10.463  12.805
   29DA     C3'  915   4.159  10.494  12.889
   29DA     H3'  916   4.084  10.570  12.911
   29DA     C2'  917   4.299  10.553  12.908
   29DA    H2'1  918   4.300  10.656  12.873
   29DA    H2'2  919   4.324  10.546  13.014
   29DA     O3'  920   4.131  10.377  12.960
   30DT       P  921   4.111  10.383  13.120
   30DT     O1P  922   4.006  10.281  13.147
   30DT     O2P  923   4.098  10.523  13.168
   30DT     O5'  924   4.242  10.323  13.177
   30DT     C5'  925   4.292  10.191  13.140
   30DT    H5'1  926   4.331  10.204  13.039
   30DT    H5'2  927   4.211  10.120  13.152
   30DT     C4'  928   4.405  10.135  13.237
   30DT     H4'  929   4.411  10.026  13.228
   30DT     O4'  930   4.527  10.185  13.188
   30DT     C1'  931   4.579  10.270  13.298
   30DT     H1'  932   4.655  10.218  13.357
   30DT      N1  933   4.656  10.383  13.243
   30DT      C6  934   4.586  10.483  13.187
   30DT      H6  935   4.480  10.497  13.200
   30DT      C5  936   4.646  10.589  13.127
   30DT      C7  937   4.567  10.712  13.087
   30DT     H71  938   4.592  10.733  12.983
   30DT     H72  939   4.458  10.706  13.093
   30DT     H73  940   4.601  10.795  13.148
   30DT      C4  941   4.790  10.582  13.111
   30DT      O4  942   4.856  10.676  13.068
   30DT      N3  943   4.856  10.470  13.155
   30DT      H3  944   4.956  10.476  13.141
   30DT      C2  945   4.797  10.365  13.222
   30DT      O2  946   4.865  10.265  13.260
   30DT     C3'  947   4.384  10.184  13.381
   30DT     H3'  948   4.278  10.195  13.406
   30DT     C2'  949   4.463  10.309  13.397
   30DT    H2'1  950   4.409  10.391  13.349
   30DT    H2'2  951   4.490  10.340  13.498
   30DT     O3'  952   4.454  10.093  13.467
   31DG       P  953   4.417  10.079  13.619
   31DG     O1P  954   4.338   9.953  13.639
   31DG     O2P  955   4.367  10.206  13.678
   31DG     O5'  956   4.562  10.059  13.681
   31DG     C5'  957   4.647   9.946  13.647
   31DG    H5'1  958   4.659   9.930  13.540
   31DG    H5'2  959   4.602   9.856  13.688
   31DG     C4'  960   4.790   9.959  13.710
   31DG     H4'  961   4.836   9.861  13.701
   31DG     O4'  962   4.878  10.046  13.639
   31DG     C1'  963   4.914  10.161  13.707
   31DG     H1'  964   5.020  10.162  13.733
   31DG      N9  965   4.882  10.280  13.626
   31DG      C8  966   4.754  10.332  13.589
   31DG      H8  967   4.665  10.272  13.589
   31DG      N7  968   4.759  10.450  13.535
   31DG      C5  969   4.899  10.478  13.526
   31DG      C6  970   4.966  10.594  13.469
   31DG      O6  971   4.910  10.692  13.417
   31DG      N1  972   5.099  10.576  13.470
   31DG      H1  973   5.150  10.652  13.427
   31DG      C2  974   5.161  10.467  13.516
   31DG      N2  975   5.293  10.472  13.506
   31DG     H21  976   5.336  10.557  13.472
   31DG     H22  977   5.337  10.401  13.562
   31DG      N3  978   5.106  10.357  13.574
   31DG      C4  979   4.969  10.371  13.573
   31DG     C3'  980   4.802  10.013  13.847
   31DG     H3'  981   4.706   9.997  13.896
   31DG     C2'  982   4.849  10.163  13.842
   31DG    H2'1  983   4.758  10.222  13.835
   31DG    H2'2  984   4.914  10.197  13.922
   31DG     O3'  985   4.897   9.932  13.916
   32DC3      P  986   4.903   9.929  14.079
   32DC3    O1P  987   4.979   9.814  14.119
   32DC3    O2P  988   4.762   9.948  14.129
   32DC3    O5'  989   4.993  10.059  14.120
   32DC3    C5'  990   5.130  10.065  14.089
   32DC3   H5'1  991   5.155  10.025  13.991
   32DC3   H5'2  992   5.176  10.005  14.169
   32DC3    C4'  993   5.194  10.199  14.102
   32DC3    H4'  994   5.303  10.196  14.099
   32DC3    O4'  995   5.143  10.281  13.991
   32DC3    C1'  996   5.115  10.408  14.051
   32DC3    H1'  997   5.204  10.469  14.065
   32DC3     N1  998   5.026  10.485  13.955
   32DC3     C6  999   4.887  10.470  13.967
   32DC3     H6 1000   4.854  10.388  14.031
   32DC3     C5 1001   4.795  10.545  13.900
   32DC3     H5 1002   4.690  10.541  13.923
   32DC3     C4 1003   4.860  10.640  13.816
   32DC3     N4 1004   4.789  10.723  13.746
   32DC3    H41 1005   4.828  10.791  13.682
   32DC3    H42 1006   4.691  10.722  13.768
   32DC3     N3 1007   4.992  10.655  13.796
   32DC3     C2 1008   5.077  10.573  13.862
   32DC3     O2 1009   5.198  10.580  13.842
   32DC3    C3' 1010   5.155  10.274  14.226
   32DC3    H3' 1011   5.105  10.205  14.294
   32DC3    C2' 1012   5.056  10.374  14.182
   32DC3   H2'1 1013   4.955  10.335  14.193
   32DC3   H2'2 1014   5.064  10.461  14.247
   32DC3    O3' 1015   5.270  10.329  14.290
   32DC3    H3T 1016   5.240  10.358  14.376
   33DG5    H5T 1017   5.389  11.550  13.519
   33DG5    O5' 1018   5.478  11.580  13.504
   33DG5    C5' 1019   5.584  11.517  13.573
   33DG5   H5'1 1020   5.572  11.535  13.680
   33DG5   H5'2 1021   5.672  11.574  13.542
   33DG5    C4' 1022   5.598  11.367  13.532
   33DG5    H4' 1023   5.688  11.330  13.581
   33DG5    O4' 1024   5.483  11.292  13.570
   33DG5    C1' 1025   5.425  11.228  13.453
   33DG5    H1' 1026   5.474  11.131  13.442
   33DG5     N9 1027   5.286  11.200  13.487
   33DG5     C8 1028   5.172  11.263  13.446
   33DG5     H8 1029   5.168  11.355  13.389
   33DG5     N7 1030   5.063  11.196  13.470
   33DG5     C5 1031   5.109  11.093  13.555
   33DG5     C6 1032   5.039  10.992  13.631
   33DG5     O6 1033   4.916  10.971  13.634
   33DG5     N1 1034   5.118  10.903  13.693
   33DG5     H1 1035   5.076  10.829  13.748
   33DG5     C2 1036   5.253  10.901  13.675
   33DG5     N2 1037   5.308  10.791  13.708
   33DG5    H21 1038   5.258  10.707  13.733
   33DG5    H22 1039   5.404  10.773  13.685
   33DG5     N3 1040   5.322  10.992  13.616
   33DG5     C4 1041   5.249  11.090  13.558
   33DG5    C3' 1042   5.606  11.352  13.377
   33DG5    H3' 1043   5.646  11.444  13.335
   33DG5    C2' 1044   5.461  11.325  13.342
   33DG5   H2'1 1045   5.402  11.416  13.347
   33DG5   H2'2 1046   5.451  11.286  13.240
   33DG5    O3' 1047   5.685  11.243  13.337
   34DC       P 1048   5.848  11.250  13.346
   34DC     O1P 1049   5.886  11.257  13.491
   34DC     O2P 1050   5.895  11.364  13.258
   34DC     O5' 1051   5.910  11.118  13.277
   34DC     C5' 1052   5.909  10.992  13.343
   34DC    H5'1 1053   5.882  11.007  13.447
   34DC    H5'2 1054   6.008  10.947  13.334
   34DC     C4' 1055   5.817  10.891  13.284
   34DC     H4' 1056   5.840  10.794  13.329
   34DC     O4' 1057   5.689  10.913  13.324
   34DC     C1' 1058   5.608  10.854  13.222
   34DC     H1' 1059   5.623  10.746  13.217
   34DC      N1 1060   5.467  10.874  13.247
   34DC      C6 1061   5.406  10.988  13.214
   34DC      H6 1062   5.467  11.067  13.172
   34DC      C5 1063   5.267  11.001  13.221
   34DC      H5 1064   5.232  11.095  13.180
   34DC      C4 1065   5.197  10.897  13.273
   34DC      N4 1066   5.070  10.897  13.272
   34DC     H41 1067   5.018  10.817  13.307
   34DC     H42 1068   5.023  10.983  13.249
   34DC      N3 1069   5.256  10.787  13.317
   34DC      C2 1070   5.389  10.771  13.304
   34DC      O2 1071   5.445  10.672  13.354
   34DC     C3' 1072   5.821  10.888  13.127
   34DC     H3' 1073   5.888  10.965  13.090
   34DC     C2' 1074   5.673  10.914  13.098
   34DC    H2'1 1075   5.662  11.022  13.091
   34DC    H2'2 1076   5.642  10.864  13.006
   34DC     O3' 1077   5.855  10.754  13.095
   35DA       P 1078   5.953  10.712  12.969
   35DA     O1P 1079   6.090  10.763  12.994
   35DA     O2P 1080   5.886  10.751  12.842
   35DA     O5' 1081   5.962  10.548  12.986
   35DA     C5' 1082   5.986  10.491  13.120
   35DA    H5'1 1083   5.988  10.566  13.199
   35DA    H5'2 1084   6.086  10.450  13.118
   35DA     C4' 1085   5.881  10.384  13.153
   35DA     H4' 1086   5.908  10.339  13.249
   35DA     O4' 1087   5.754  10.449  13.162
   35DA     C1' 1088   5.658  10.373  13.099
   35DA     H1' 1089   5.621  10.296  13.166
   35DA      N9 1090   5.554  10.466  13.057
   35DA      C8 1091   5.560  10.579  12.981
   35DA      H8 1092   5.652  10.609  12.932
   35DA      N7 1093   5.447  10.645  12.967
   35DA      C5 1094   5.359  10.576  13.045
   35DA      C6 1095   5.218  10.578  13.068
   35DA      N6 1096   5.135  10.673  13.015
   35DA     H61 1097   5.036  10.675  13.035
   35DA     H62 1098   5.182  10.744  12.962
   35DA      N1 1099   5.157  10.484  13.137
   35DA      C2 1100   5.232  10.387  13.188
   35DA      H2 1101   5.189  10.309  13.250
   35DA      N3 1102   5.364  10.368  13.170
   35DA      C4 1103   5.422  10.464  13.100
   35DA     C3' 1104   5.869  10.272  13.048
   35DA     H3' 1105   5.957  10.287  12.986
   35DA     C2' 1106   5.733  10.296  12.982
   35DA    H2'1 1107   5.746  10.364  12.898
   35DA    H2'2 1108   5.681  10.202  12.963
   35DA     O3' 1109   5.872  10.146  13.119
   36DT       P 1110   5.867  10.006  13.040
   36DT     O1P 1111   5.932   9.908  13.123
   36DT     O2P 1112   5.920  10.020  12.902
   36DT     O5' 1113   5.715   9.965  13.043
   36DT     C5' 1114   5.647   9.961  13.167
   36DT    H5'1 1115   5.659  10.062  13.205
   36DT    H5'2 1116   5.685   9.880  13.230
   36DT     C4' 1117   5.494   9.939  13.146
   36DT     H4' 1118   5.444   9.912  13.239
   36DT     O4' 1119   5.443  10.055  13.084
   36DT     C1' 1120   5.338  10.011  13.002
   36DT     H1' 1121   5.253  10.001  13.070
   36DT      N1 1122   5.306  10.114  12.902
   36DT      C6 1123   5.402  10.177  12.826
   36DT      H6 1124   5.502  10.142  12.846
   36DT      C5 1125   5.380  10.285  12.744
   36DT      C7 1126   5.491  10.334  12.659
   36DT     H71 1127   5.499  10.442  12.674
   36DT     H72 1128   5.587  10.290  12.686
   36DT     H73 1129   5.474  10.320  12.552
   36DT      C4 1130   5.244  10.337  12.732
   36DT      O4 1131   5.208  10.431  12.659
   36DT      N3 1132   5.151  10.274  12.818
   36DT      H3 1133   5.054  10.297  12.804
   36DT      C2 1134   5.172  10.170  12.898
   36DT      O2 1135   5.077  10.120  12.952
   36DT     C3' 1136   5.460   9.819  13.051
   36DT     H3' 1137   5.550   9.782  13.003
   36DT     C2' 1138   5.379   9.882  12.932
   36DT    H2'1 1139   5.432   9.905  12.840
   36DT    H2'2 1140   5.294   9.817  12.910
   36DT     O3' 1141   5.397   9.718  13.130
   37DA       P 1142   5.326   9.589  13.065
   37DA     O1P 1143   5.304   9.497  13.179
   37DA     O2P 1144   5.413   9.549  12.957
   37DA     O5' 1145   5.182   9.644  13.013
   37DA     C5' 1146   5.077   9.700  13.100
   37DA    H5'1 1147   5.114   9.786  13.156
   37DA    H5'2 1148   5.042   9.618  13.164
   37DA     C4' 1149   4.949   9.743  13.021
   37DA     H4' 1150   4.865   9.756  13.090
   37DA     O4' 1151   4.988   9.863  12.947
   37DA     C1' 1152   4.940   9.836  12.814
   37DA     H1' 1153   4.846   9.886  12.794
   37DA      N9 1154   5.039   9.894  12.719
   37DA      C8 1155   5.167   9.860  12.692
   37DA      H8 1156   5.216   9.770  12.727
   37DA      N7 1157   5.230   9.940  12.607
   37DA      C5 1158   5.134  10.035  12.580
   37DA      C6 1159   5.121  10.154  12.497
   37DA      N6 1160   5.207  10.219  12.415
   37DA     H61 1161   5.166  10.289  12.355
   37DA     H62 1162   5.299  10.180  12.398
   37DA      N1 1163   5.014  10.223  12.495
   37DA      C2 1164   4.910  10.192  12.567
   37DA      H2 1165   4.817  10.240  12.539
   37DA      N3 1166   4.899  10.082  12.640
   37DA      C4 1167   5.015  10.012  12.644
   37DA     C3' 1168   4.891   9.631  12.931
   37DA     H3' 1169   4.937   9.533  12.950
   37DA     C2' 1170   4.928   9.687  12.794
   37DA    H2'1 1171   5.019   9.637  12.760
   37DA    H2'2 1172   4.865   9.673  12.706
   37DA     O3' 1173   4.749   9.632  12.937
   38DT       P 1174   4.658   9.538  12.844
   38DT     O1P 1175   4.550   9.501  12.935
   38DT     O2P 1176   4.743   9.425  12.792
   38DT     O5' 1177   4.616   9.640  12.728
   38DT     C5' 1178   4.558   9.763  12.754
   38DT    H5'1 1179   4.627   9.828  12.808
   38DT    H5'2 1180   4.470   9.749  12.817
   38DT     C4' 1181   4.508   9.828  12.623
   38DT     H4' 1182   4.429   9.897  12.651
   38DT     O4' 1183   4.613   9.899  12.557
   38DT     C1' 1184   4.621   9.854  12.424
   38DT     H1' 1185   4.558   9.913  12.358
   38DT      N1 1186   4.757   9.873  12.384
   38DT      C6 1187   4.858   9.780  12.415
   38DT      H6 1188   4.843   9.692  12.477
   38DT      C5 1189   4.980   9.798  12.352
   38DT      C7 1190   5.088   9.696  12.394
   38DT     H71 1191   5.045   9.633  12.472
   38DT     H72 1192   5.118   9.634  12.310
   38DT     H73 1193   5.179   9.746  12.427
   38DT      C4 1194   5.015   9.919  12.278
   38DT      O4 1195   5.117   9.942  12.214
   38DT      N3 1196   4.909  10.007  12.266
   38DT      H3 1197   4.930  10.095  12.220
   38DT      C2 1198   4.788   9.990  12.319
   38DT      O2 1199   4.712  10.083  12.296
   38DT     C3' 1200   4.446   9.729  12.519
   38DT     H3' 1201   4.409   9.645  12.577
   38DT     C2' 1202   4.564   9.712  12.422
   38DT    H2'1 1203   4.631   9.640  12.469
   38DT    H2'2 1204   4.528   9.683  12.324
   38DT     O3' 1205   4.347   9.791  12.442
   39DG       P 1206   4.192   9.772  12.468
   39DG     O1P 1207   4.159   9.848  12.590
   39DG     O2P 1208   4.147   9.633  12.453
   39DG     O5' 1209   4.130   9.858  12.346
   39DG     C5' 1210   4.073   9.989  12.366
   39DG    H5'1 1211   4.134  10.037  12.442
   39DG    H5'2 1212   3.970   9.985  12.403
   39DG     C4' 1213   4.064  10.083  12.245
   39DG     H4' 1214   4.008  10.173  12.268
   39DG     O4' 1215   4.202  10.113  12.202
   39DG     C1' 1216   4.219  10.055  12.073
   39DG     H1' 1217   4.211  10.144  12.011
   39DG      N9 1218   4.355   9.991  12.062
   39DG      C8 1219   4.407   9.880  12.121
   39DG      H8 1220   4.346   9.807  12.173
   39DG      N7 1221   4.534   9.858  12.110
   39DG      C5 1222   4.573   9.968  12.027
   39DG      C6 1223   4.698  10.001  11.960
   39DG      O6 1224   4.814   9.960  11.976
   39DG      N1 1225   4.693  10.104  11.867
   39DG      H1 1226   4.778  10.137  11.823
   39DG      C2 1227   4.578  10.180  11.849
   39DG      N2 1228   4.590  10.271  11.759
   39DG     H21 1229   4.672  10.266  11.700
   39DG     H22 1230   4.508  10.316  11.721
   39DG      N3 1231   4.462  10.149  11.903
   39DG      C4 1232   4.462  10.045  11.989
   39DG     C3' 1233   3.986  10.005  12.137
   39DG     H3' 1234   3.934   9.919  12.178
   39DG     C2' 1235   4.101   9.963  12.049
   39DG    H2'1 1236   4.115   9.857  12.067
   39DG    H2'2 1237   4.059   9.972  11.949
   39DG     O3' 1238   3.890  10.096  12.090
   40DC       P 1239   3.781  10.047  11.989
   40DC     O1P 1240   3.667  10.141  12.010
   40DC     O2P 1241   3.755   9.902  12.009
   40DC     O5' 1242   3.829  10.058  11.837
   40DC     C5' 1243   3.893  10.176  11.790
   40DC    H5'1 1244   3.961  10.221  11.863
   40DC    H5'2 1245   3.817  10.248  11.760
   40DC     C4' 1246   3.979  10.168  11.664
   40DC     H4' 1247   4.002  10.266  11.623
   40DC     O4' 1248   4.104  10.108  11.698
   40DC     C1' 1249   4.130   9.997  11.608
   40DC     H1' 1250   4.164  10.035  11.511
   40DC      N1 1251   4.238   9.920  11.663
   40DC      C6 1252   4.212   9.817  11.749
   40DC      H6 1253   4.108   9.795  11.771
   40DC      C5 1254   4.311   9.748  11.799
   40DC      H5 1255   4.299   9.674  11.877
   40DC      C4 1256   4.444   9.787  11.762
   40DC      N4 1257   4.547   9.720  11.803
   40DC     H41 1258   4.637   9.740  11.762
   40DC     H42 1259   4.532   9.632  11.851
   40DC      N3 1260   4.473   9.890  11.686
   40DC      C2 1261   4.371   9.958  11.635
   40DC      O2 1262   4.388  10.050  11.553
   40DC     C3' 1263   3.917  10.078  11.557
   40DC     H3' 1264   3.809  10.065  11.566
   40DC     C2' 1265   3.984   9.947  11.590
   40DC    H2'1 1266   3.946   9.896  11.678
   40DC    H2'2 1267   3.958   9.880  11.509
   40DC     O3' 1268   3.952  10.119  11.427
   41DG       P 1269   3.841  10.178  11.329
   41DG     O1P 1270   3.805  10.308  11.384
   41DG     O2P 1271   3.736  10.076  11.305
   41DG     O5' 1272   3.925  10.198  11.199
   41DG     C5' 1273   3.987  10.326  11.177
   41DG    H5'1 1274   4.040  10.354  11.268
   41DG    H5'2 1275   3.906  10.395  11.150
   41DG     C4' 1276   4.084  10.343  11.057
   41DG     H4' 1277   4.102  10.449  11.041
   41DG     O4' 1278   4.207  10.284  11.090
   41DG     C1' 1279   4.208  10.147  11.050
   41DG     H1' 1280   4.290  10.134  10.979
   41DG      N9 1281   4.244  10.043  11.150
   41DG      C8 1282   4.162   9.981  11.249
   41DG      H8 1283   4.056   9.998  11.261
   41DG      N7 1284   4.222   9.893  11.321
   41DG      C5 1285   4.356   9.898  11.273
   41DG      C6 1286   4.476   9.826  11.318
   41DG      O6 1287   4.477   9.728  11.392
   41DG      N1 1288   4.589   9.866  11.244
   41DG      H1 1289   4.679   9.825  11.262
   41DG      C2 1290   4.583   9.938  11.131
   41DG      N2 1291   4.695   9.947  11.061
   41DG     H21 1292   4.772   9.886  11.084
   41DG     H22 1293   4.697  10.009  10.981
   41DG      N3 1294   4.480  10.006  11.091
   41DG      C4 1295   4.370   9.986  11.169
   41DG     C3' 1296   4.031  10.263  10.935
   41DG     H3' 1297   3.922  10.262  10.931
   41DG     C2' 1298   4.077  10.122  10.969
   41DG    H2'1 1299   4.002  10.067  11.026
   41DG    H2'2 1300   4.108  10.063  10.882
   41DG     O3' 1301   4.090  10.335  10.822
   42DT       P 1302   4.064  10.286  10.674
   42DT     O1P 1303   4.118  10.395  10.586
   42DT     O2P 1304   3.919  10.252  10.667
   42DT     O5' 1305   4.157  10.151  10.660
   42DT     C5' 1306   4.298  10.179  10.668
   42DT    H5'1 1307   4.319  10.245  10.753
   42DT    H5'2 1308   4.333  10.225  10.575
   42DT     C4' 1309   4.379  10.049  10.680
   42DT     H4' 1310   4.486  10.071  10.691
   42DT     O4' 1311   4.342   9.990  10.803
   42DT     C1' 1312   4.388   9.858  10.787
   42DT     H1' 1313   4.495   9.865  10.804
   42DT      N1 1314   4.332   9.772  10.900
   42DT      C6 1315   4.198   9.767  10.926
   42DT      H6 1316   4.132   9.829  10.866
   42DT      C5 1317   4.146   9.681  11.016
   42DT      C7 1318   3.994   9.682  11.044
   42DT     H71 1319   3.987   9.712  11.149
   42DT     H72 1320   3.931   9.749  10.984
   42DT     H73 1321   3.945   9.587  11.026
   42DT      C4 1322   4.235   9.595  11.099
   42DT      O4 1323   4.203   9.527  11.196
   42DT      N3 1324   4.368   9.603  11.063
   42DT      H3 1325   4.437   9.541  11.104
   42DT      C2 1326   4.418   9.690  10.970
   42DT      O2 1327   4.538   9.675  10.947
   42DT     C3' 1328   4.366   9.948  10.567
   42DT     H3' 1329   4.271   9.954  10.514
   42DT     C2' 1330   4.357   9.813  10.647
   42DT    H2'1 1331   4.255   9.776  10.648
   42DT    H2'2 1332   4.420   9.729  10.618
   42DT     O3' 1333   4.470   9.965  10.481
   43DA       P 1334   4.495   9.879  10.345
   43DA     O1P 1335   4.601   9.947  10.265
   43DA     O2P 1336   4.364   9.855  10.282
   43DA     O5' 1337   4.555   9.740  10.382
   43DA     C5' 1338   4.657   9.720  10.476
   43DA    H5'1 1339   4.632   9.761  10.574
   43DA    H5'2 1340   4.748   9.774  10.449
   43DA     C4' 1341   4.691   9.569  10.492
   43DA     H4' 1342   4.799   9.562  10.509
   43DA     O4' 1343   4.609   9.530  10.604
   43DA     C1' 1344   4.533   9.421  10.560
   43DA     H1' 1345   4.594   9.334  10.582
   43DA      N9 1346   4.412   9.412  10.638
   43DA      C8 1347   4.292   9.476  10.613
   43DA      H8 1348   4.287   9.554  10.538
   43DA      N7 1349   4.198   9.448  10.697
   43DA      C5 1350   4.265   9.361  10.786
   43DA      C6 1351   4.228   9.302  10.907
   43DA      N6 1352   4.108   9.302  10.954
   43DA     H61 1353   4.086   9.223  11.014
   43DA     H62 1354   4.041   9.352  10.898
   43DA      N1 1355   4.316   9.215  10.969
   43DA      C2 1356   4.438   9.206  10.925
   43DA      H2 1357   4.506   9.140  10.976
   43DA      N3 1358   4.488   9.260  10.817
   43DA      C4 1359   4.397   9.333  10.752
   43DA     C3' 1360   4.642   9.488  10.369
   43DA     H3' 1361   4.624   9.548  10.280
   43DA     C2' 1362   4.506   9.439  10.413
   43DA    H2'1 1363   4.431   9.515  10.392
   43DA    H2'2 1364   4.471   9.346  10.369
   43DA     O3' 1365   4.728   9.378  10.337
   44DC       P 1366   4.842   9.385  10.232
   44DC     O1P 1367   4.914   9.516  10.238
   44DC     O2P 1368   4.793   9.334  10.108
   44DC     O5' 1369   4.947   9.274  10.289
   44DC     C5' 1370   4.999   9.277  10.422
   44DC    H5'1 1371   4.976   9.364  10.483
   44DC    H5'2 1372   5.107   9.264  10.415
   44DC     C4' 1373   4.958   9.156  10.507
   44DC     H4' 1374   5.021   9.148  10.596
   44DC     O4' 1375   4.824   9.162  10.538
   44DC     C1' 1376   4.763   9.034  10.524
   44DC     H1' 1377   4.804   8.965  10.597
   44DC      N1 1378   4.611   9.046  10.534
   44DC      C6 1379   4.534   9.086  10.431
   44DC      H6 1380   4.577   9.126  10.340
   44DC      C5 1381   4.397   9.085  10.439
   44DC      H5 1382   4.339   9.115  10.354
   44DC      C4 1383   4.343   9.050  10.566
   44DC      N4 1384   4.215   9.045  10.584
   44DC     H41 1385   4.174   9.008  10.669
   44DC     H42 1386   4.160   9.056  10.500
   44DC      N3 1387   4.414   9.007  10.669
   44DC      C2 1388   4.551   9.003  10.652
   44DC      O2 1389   4.618   8.957  10.747
   44DC     C3' 1390   4.972   9.030  10.421
   44DC     H3' 1391   5.023   9.047  10.326
   44DC     C2' 1392   4.823   9.005  10.385
   44DC    H2'1 1393   4.801   9.072  10.302
   44DC    H2'2 1394   4.807   8.899  10.364
   44DC     O3' 1395   5.038   8.923  10.485
   45DA       P 1396   5.199   8.915  10.485
   45DA     O1P 1397   5.251   9.033  10.553
   45DA     O2P 1398   5.251   8.894  10.354
   45DA     O5' 1399   5.219   8.785  10.571
   45DA     C5' 1400   5.230   8.790  10.708
   45DA    H5'1 1401   5.171   8.876  10.739
   45DA    H5'2 1402   5.331   8.815  10.740
   45DA     C4' 1403   5.172   8.672  10.785
   45DA     H4' 1404   5.205   8.685  10.888
   45DA     O4' 1405   5.032   8.696  10.780
   45DA     C1' 1406   4.974   8.573  10.748
   45DA     H1' 1407   4.963   8.517  10.841
   45DA      N9 1408   4.849   8.602  10.677
   45DA      C8 1409   4.846   8.678  10.562
   45DA      H8 1410   4.938   8.707  10.514
   45DA      N7 1411   4.730   8.713  10.523
   45DA      C5 1412   4.648   8.649  10.619
   45DA      C6 1413   4.513   8.637  10.629
   45DA      N6 1414   4.418   8.698  10.557
   45DA     H61 1415   4.321   8.685  10.580
   45DA     H62 1416   4.437   8.744  10.470
   45DA      N1 1417   4.459   8.568  10.732
   45DA      C2 1418   4.535   8.507  10.823
   45DA      H2 1419   4.473   8.457  10.895
   45DA      N3 1420   4.668   8.509  10.822
   45DA      C4 1421   4.721   8.579  10.713
   45DA     C3' 1422   5.201   8.536  10.722
   45DA     H3' 1423   5.284   8.550  10.652
   45DA     C2' 1424   5.072   8.506  10.655
   45DA    H2'1 1425   5.076   8.551  10.556
   45DA    H2'2 1426   5.045   8.400  10.652
   45DA     O3' 1427   5.235   8.442  10.822
   46DA       P 1428   5.267   8.282  10.797
   46DA     O1P 1429   5.334   8.238  10.919
   46DA     O2P 1430   5.338   8.270  10.668
   46DA     O5' 1431   5.123   8.209  10.797
   46DA     C5' 1432   5.045   8.200  10.917
   46DA    H5'1 1433   5.045   8.298  10.964
   46DA    H5'2 1434   5.093   8.139  10.993
   46DA     C4' 1435   4.899   8.164  10.904
   46DA     H4' 1436   4.854   8.160  11.004
   46DA     O4' 1437   4.821   8.252  10.832
   46DA     C1' 1438   4.725   8.179  10.750
   46DA     H1' 1439   4.638   8.158  10.812
   46DA      N9 1440   4.678   8.256  10.632
   46DA      C8 1441   4.750   8.288  10.524
   46DA      H8 1442   4.855   8.264  10.514
   46DA      N7 1443   4.682   8.322  10.419
   46DA      C5 1444   4.551   8.317  10.470
   46DA      C6 1445   4.422   8.326  10.410
   46DA      N6 1446   4.396   8.369  10.287
   46DA     H61 1447   4.304   8.406  10.269
   46DA     H62 1448   4.475   8.386  10.227
   46DA      N1 1449   4.313   8.310  10.479
   46DA      C2 1450   4.323   8.272  10.605
   46DA      H2 1451   4.230   8.260  10.658
   46DA      N3 1452   4.436   8.260  10.676
   46DA      C4 1453   4.548   8.271  10.599
   46DA     C3' 1454   4.885   8.024  10.841
   46DA     H3' 1455   4.984   7.989  10.809
   46DA     C2' 1456   4.793   8.048  10.720
   46DA    H2'1 1457   4.853   8.059  10.630
   46DA    H2'2 1458   4.719   7.969  10.705
   46DA     O3' 1459   4.823   7.926  10.927
   47DT       P 1460   4.791   7.775  10.876
   47DT     O1P 1461   4.795   7.695  11.003
   47DT     O2P 1462   4.873   7.737  10.765
   47DT     O5' 1463   4.641   7.769  10.829
   47DT     C5' 1464   4.545   7.839  10.901
   47DT    H5'1 1465   4.572   7.945  10.896
   47DT    H5'2 1466   4.554   7.809  11.005
   47DT     C4' 1467   4.403   7.826  10.855
   47DT     H4' 1468   4.347   7.862  10.942
   47DT     O4' 1469   4.382   7.912  10.747
   47DT     C1' 1470   4.307   7.835  10.649
   47DT     H1' 1471   4.200   7.843  10.670
   47DT      N1 1472   4.340   7.886  10.510
   47DT      C6 1473   4.470   7.888  10.460
   47DT      H6 1474   4.554   7.848  10.515
   47DT      C5 1475   4.494   7.947  10.339
   47DT      C7 1476   4.636   7.941  10.287
   47DT     H71 1477   4.632   7.904  10.185
   47DT     H72 1478   4.689   8.037  10.288
   47DT     H73 1479   4.699   7.880  10.352
   47DT      C4 1480   4.393   8.023  10.272
   47DT      O4 1481   4.408   8.093  10.173
   47DT      N3 1482   4.273   8.027  10.333
   47DT      H3 1483   4.203   8.092  10.299
   47DT      C2 1484   4.239   7.960  10.451
   47DT      O2 1485   4.134   7.982  10.497
   47DT     C3' 1486   4.370   7.684  10.816
   47DT     H3' 1487   4.453   7.622  10.850
   47DT     C2' 1488   4.348   7.691  10.663
   47DT    H2'1 1489   4.443   7.670  10.613
   47DT    H2'2 1490   4.285   7.612  10.623
   47DT     O3' 1491   4.247   7.660  10.889
   48DG       P 1492   4.177   7.515  10.890
   48DG     O1P 1493   4.086   7.506  11.005
   48DG     O2P 1494   4.287   7.416  10.880
   48DG     O5' 1495   4.098   7.505  10.754
   48DG     C5' 1496   3.978   7.581  10.736
   48DG    H5'1 1497   3.992   7.681  10.776
   48DG    H5'2 1498   3.895   7.535  10.791
   48DG     C4' 1499   3.936   7.576  10.590
   48DG     H4' 1500   3.841   7.630  10.587
   48DG     O4' 1501   4.028   7.657  10.512
   48DG     C1' 1502   4.018   7.596  10.381
   48DG     H1' 1503   3.927   7.640  10.340
   48DG      N9 1504   4.122   7.634  10.284
   48DG      C8 1505   4.262   7.608  10.297
   48DG      H8 1506   4.311   7.555  10.377
   48DG      N7 1507   4.330   7.676  10.208
   48DG      C5 1508   4.229   7.741  10.133
   48DG      C6 1509   4.246   7.824  10.011
   48DG      O6 1510   4.349   7.856   9.943
   48DG      N1 1511   4.122   7.861   9.956
   48DG      H1 1512   4.125   7.940   9.893
   48DG      C2 1513   4.007   7.837  10.016
   48DG      N2 1514   3.896   7.884   9.958
   48DG     H21 1515   3.898   7.945   9.878
   48DG     H22 1516   3.815   7.889  10.019
   48DG      N3 1517   3.989   7.766  10.126
   48DG      C4 1518   4.102   7.720  10.179
   48DG     C3' 1519   3.917   7.437  10.525
   48DG     H3' 1520   3.950   7.362  10.597
   48DG     C2' 1521   4.006   7.446  10.400
   48DG    H2'1 1522   4.104   7.399  10.408
   48DG    H2'2 1523   3.957   7.399  10.314
   48DG     O3' 1524   3.787   7.412  10.487
   49DT       P 1525   3.732   7.269  10.437
   49DT     O1P 1526   3.619   7.232  10.526
   49DT     O2P 1527   3.843   7.172  10.415
   49DT     O5' 1528   3.683   7.294  10.283
   49DT     C5' 1529   3.569   7.366  10.253
   49DT    H5'1 1530   3.569   7.455  10.316
   49DT    H5'2 1531   3.491   7.297  10.286
   49DT     C4' 1532   3.544   7.403  10.108
   49DT     H4' 1533   3.456   7.468  10.110
   49DT     O4' 1534   3.654   7.479  10.055
   49DT     C1' 1535   3.711   7.423   9.937
   49DT     H1' 1536   3.650   7.442   9.849
   49DT      N1 1537   3.852   7.459   9.916
   49DT      C6 1538   3.956   7.406   9.992
   49DT      H6 1539   3.941   7.353  10.085
   49DT      C5 1540   4.083   7.439   9.960
   49DT      C7 1541   4.197   7.378  10.038
   49DT     H71 1542   4.258   7.323   9.966
   49DT     H72 1543   4.261   7.461  10.066
   49DT     H73 1544   4.162   7.309  10.114
   49DT      C4 1545   4.112   7.522   9.851
   49DT      O4 1546   4.228   7.551   9.813
   49DT      N3 1547   4.010   7.576   9.781
   49DT      H3 1548   4.029   7.637   9.703
   49DT      C2 1549   3.878   7.556   9.810
   49DT      O2 1550   3.792   7.613   9.743
   49DT     C3' 1551   3.538   7.281  10.013
   49DT     H3' 1552   3.505   7.197  10.074
   49DT     C2' 1553   3.686   7.274   9.964
   49DT    H2'1 1554   3.745   7.237  10.048
   49DT    H2'2 1555   3.696   7.215   9.872
   49DT     O3' 1556   3.460   7.292   9.898
   50DA       P 1557   3.337   7.197   9.865
   50DA     O1P 1558   3.263   7.208   9.993
   50DA     O2P 1559   3.398   7.071   9.821
   50DA     O5' 1560   3.263   7.265   9.743
   50DA     C5' 1561   3.228   7.401   9.750
   50DA    H5'1 1562   3.302   7.464   9.800
   50DA    H5'2 1563   3.136   7.407   9.808
   50DA     C4' 1564   3.228   7.471   9.612
   50DA     H4' 1565   3.175   7.566   9.612
   50DA     O4' 1566   3.357   7.505   9.565
   50DA     C1' 1567   3.397   7.419   9.459
   50DA     H1' 1568   3.416   7.455   9.358
   50DA      N9 1569   3.525   7.354   9.507
   50DA      C8 1570   3.555   7.242   9.582
   50DA      H8 1571   3.483   7.177   9.629
   50DA      N7 1572   3.684   7.219   9.604
   50DA      C5 1573   3.746   7.327   9.535
   50DA      C6 1574   3.881   7.363   9.508
   50DA      N6 1575   3.993   7.305   9.558
   50DA     H61 1576   4.084   7.342   9.535
   50DA     H62 1577   3.985   7.234   9.630
   50DA      N1 1578   3.912   7.462   9.427
   50DA      C2 1579   3.813   7.540   9.387
   50DA      H2 1580   3.849   7.625   9.330
   50DA      N3 1581   3.681   7.520   9.403
   50DA      C4 1582   3.651   7.408   9.473
   50DA     C3' 1583   3.161   7.388   9.502
   50DA     H3' 1584   3.093   7.315   9.546
   50DA     C2' 1585   3.284   7.315   9.445
   50DA    H2'1 1586   3.304   7.223   9.500
   50DA    H2'2 1587   3.265   7.292   9.340
   50DA     O3' 1588   3.083   7.482   9.428
   51DT       P 1589   3.029   7.449   9.279
   51DT     O1P 1590   2.921   7.548   9.248
   51DT     O2P 1591   2.995   7.309   9.272
   51DT     O5' 1592   3.146   7.484   9.166
   51DT     C5' 1593   3.204   7.610   9.154
   51DT    H5'1 1594   3.244   7.628   9.254
   51DT    H5'2 1595   3.129   7.687   9.138
   51DT     C4' 1596   3.315   7.616   9.045
   51DT     H4' 1597   3.319   7.717   9.004
   51DT     O4' 1598   3.433   7.550   9.097
   51DT     C1' 1599   3.499   7.480   8.985
   51DT     H1' 1600   3.556   7.548   8.921
   51DT      N1 1601   3.584   7.374   9.034
   51DT      C6 1602   3.535   7.253   9.099
   51DT      H6 1603   3.430   7.229   9.092
   51DT      C5 1604   3.619   7.172   9.171
   51DT      C7 1605   3.567   7.049   9.253
   51DT     H71 1606   3.636   7.044   9.337
   51DT     H72 1607   3.466   7.060   9.293
   51DT     H73 1608   3.572   6.964   9.185
   51DT      C4 1609   3.762   7.209   9.182
   51DT      O4 1610   3.839   7.150   9.259
   51DT      N3 1611   3.806   7.318   9.109
   51DT      H3 1612   3.902   7.342   9.125
   51DT      C2 1613   3.727   7.402   9.032
   51DT      O2 1614   3.786   7.501   8.985
   51DT     C3' 1615   3.274   7.545   8.918
   51DT     H3' 1616   3.174   7.503   8.907
   51DT     C2' 1617   3.374   7.431   8.912
   51DT    H2'1 1618   3.321   7.351   8.962
   51DT    H2'2 1619   3.395   7.390   8.813
   51DT     O3' 1620   3.274   7.643   8.812
   52DA       P 1621   3.297   7.625   8.656
   52DA     O1P 1622   3.279   7.753   8.592
   52DA     O2P 1623   3.206   7.520   8.612
   52DA     O5' 1624   3.443   7.579   8.624
   52DA     C5' 1625   3.555   7.675   8.640
   52DA    H5'1 1626   3.578   7.688   8.745
   52DA    H5'2 1627   3.527   7.772   8.599
   52DA     C4' 1628   3.690   7.650   8.580
   52DA     H4' 1629   3.739   7.746   8.593
   52DA     O4' 1630   3.767   7.551   8.653
   52DA     C1' 1631   3.795   7.443   8.563
   52DA     H1' 1632   3.899   7.441   8.531
   52DA      N9 1633   3.772   7.330   8.650
   52DA      C8 1634   3.647   7.272   8.684
   52DA      H8 1635   3.556   7.308   8.638
   52DA      N7 1636   3.652   7.172   8.767
   52DA      C5 1637   3.790   7.167   8.797
   52DA      C6 1638   3.875   7.085   8.876
   52DA      N6 1639   3.835   6.985   8.954
   52DA     H61 1640   3.900   6.928   9.005
   52DA     H62 1641   3.744   6.943   8.938
   52DA      N1 1642   4.010   7.109   8.879
   52DA      C2 1643   4.059   7.196   8.800
   52DA      H2 1644   4.166   7.212   8.806
   52DA      N3 1645   3.995   7.278   8.723
   52DA      C4 1646   3.859   7.260   8.723
   52DA     C3' 1647   3.688   7.602   8.434
   52DA     H3' 1648   3.590   7.634   8.398
   52DA     C2' 1649   3.707   7.446   8.444
   52DA    H2'1 1650   3.609   7.401   8.459
   52DA    H2'2 1651   3.756   7.411   8.353
   52DA     O3' 1652   3.773   7.681   8.350
   53DT       P 1653   3.810   7.645   8.199
   53DT     O1P 1654   3.874   7.764   8.142
   53DT     O2P 1655   3.689   7.588   8.138
   53DT     O5' 1656   3.918   7.532   8.194
   53DT     C5' 1657   4.043   7.547   8.265
   53DT    H5'1 1658   4.018   7.572   8.368
   53DT    H5'2 1659   4.101   7.628   8.220
   53DT     C4' 1660   4.122   7.417   8.275
   53DT     H4' 1661   4.220   7.437   8.318
   53DT     O4' 1662   4.056   7.325   8.362
   53DT     C1' 1663   4.098   7.196   8.325
   53DT     H1' 1664   4.202   7.176   8.352
   53DT      N1 1665   4.001   7.105   8.395
   53DT      C6 1666   3.867   7.097   8.366
   53DT      H6 1667   3.831   7.160   8.287
   53DT      C5 1668   3.780   7.020   8.437
   53DT      C7 1669   3.627   7.035   8.412
   53DT     H71 1670   3.586   6.977   8.329
   53DT     H72 1671   3.572   7.006   8.502
   53DT     H73 1672   3.596   7.137   8.390
   53DT      C4 1673   3.829   6.930   8.537
   53DT      O4 1674   3.764   6.851   8.610
   53DT      N3 1675   3.968   6.936   8.554
   53DT      H3 1676   4.012   6.862   8.607
   53DT      C2 1677   4.056   7.030   8.497
   53DT      O2 1678   4.172   7.040   8.539
   53DT     C3' 1679   4.128   7.351   8.144
   53DT     H3' 1680   4.061   7.397   8.070
   53DT     C2' 1681   4.095   7.200   8.175
   53DT    H2'1 1682   3.999   7.177   8.130
   53DT    H2'2 1683   4.163   7.131   8.125
   53DT     O3' 1684   4.263   7.364   8.101
   54DA       P 1685   4.316   7.311   7.961
   54DA     O1P 1686   4.442   7.383   7.936
   54DA     O2P 1687   4.211   7.335   7.863
   54DA     O5' 1688   4.345   7.155   7.977
   54DA     C5' 1689   4.445   7.112   8.060
   54DA    H5'1 1690   4.436   7.152   8.160
   54DA    H5'2 1691   4.541   7.130   8.013
   54DA     C4' 1692   4.432   6.967   8.092
   54DA     H4' 1693   4.521   6.938   8.147
   54DA     O4' 1694   4.331   6.923   8.177
   54DA     C1' 1695   4.266   6.812   8.117
   54DA     H1' 1696   4.318   6.720   8.143
   54DA      N9 1697   4.121   6.807   8.154
   54DA      C8 1698   4.015   6.877   8.102
   54DA      H8 1699   4.017   6.946   8.019
   54DA      N7 1700   3.901   6.842   8.164
   54DA      C5 1701   3.943   6.745   8.255
   54DA      C6 1702   3.876   6.660   8.344
   54DA      N6 1703   3.747   6.648   8.357
   54DA     H61 1704   3.712   6.586   8.428
   54DA     H62 1705   3.687   6.701   8.295
   54DA      N1 1706   3.939   6.573   8.423
   54DA      C2 1707   4.062   6.556   8.397
   54DA      H2 1708   4.123   6.484   8.449
   54DA      N3 1709   4.146   6.623   8.319
   54DA      C4 1710   4.073   6.722   8.250
   54DA     C3' 1711   4.427   6.879   7.967
   54DA     H3' 1712   4.455   6.929   7.874
   54DA     C2' 1713   4.280   6.837   7.965
   54DA    H2'1 1714   4.222   6.923   7.931
   54DA    H2'2 1715   4.264   6.760   7.889
   54DA     O3' 1716   4.514   6.766   7.994
   55DC       P 1717   4.661   6.777   7.940
   55DC     O1P 1718   4.746   6.877   8.004
   55DC     O2P 1719   4.663   6.776   7.796
   55DC     O5' 1720   4.725   6.630   7.982
   55DC     C5' 1721   4.754   6.600   8.117
   55DC    H5'1 1722   4.721   6.686   8.176
   55DC    H5'2 1723   4.862   6.586   8.120
   55DC     C4' 1724   4.694   6.469   8.172
   55DC     H4' 1725   4.744   6.447   8.267
   55DC     O4' 1726   4.557   6.488   8.194
   55DC     C1' 1727   4.497   6.368   8.168
   55DC     H1' 1728   4.499   6.310   8.260
   55DC      N1 1729   4.356   6.385   8.129
   55DC      C6 1730   4.316   6.467   8.023
   55DC      H6 1731   4.387   6.528   7.971
   55DC      C5 1732   4.185   6.477   7.989
   55DC      H5 1733   4.157   6.550   7.915
   55DC      C4 1734   4.090   6.406   8.067
   55DC      N4 1735   3.965   6.436   8.044
   55DC     H41 1736   3.891   6.414   8.109
   55DC     H42 1737   3.943   6.461   7.948
   55DC      N3 1738   4.122   6.326   8.168
   55DC      C2 1739   4.253   6.321   8.206
   55DC      O2 1740   4.275   6.251   8.312
   55DC     C3' 1741   4.716   6.337   8.095
   55DC     H3' 1742   4.771   6.361   8.005
   55DC     C2' 1743   4.576   6.300   8.057
   55DC    H2'1 1744   4.557   6.348   7.961
   55DC    H2'2 1745   4.550   6.194   8.051
   55DC     O3' 1746   4.780   6.239   8.179
   56DG       P 1747   4.823   6.094   8.128
   56DG     O1P 1748   4.943   6.055   8.206
   56DG     O2P 1749   4.840   6.098   7.982
   56DG     O5' 1750   4.710   5.984   8.163
   56DG     C5' 1751   4.685   5.925   8.287
   56DG    H5'1 1752   4.672   6.000   8.365
   56DG    H5'2 1753   4.767   5.856   8.307
   56DG     C4' 1754   4.555   5.837   8.277
   56DG     H4' 1755   4.529   5.806   8.378
   56DG     O4' 1756   4.450   5.920   8.231
   56DG     C1' 1757   4.380   5.842   8.142
   56DG     H1' 1758   4.315   5.774   8.196
   56DG      N9 1759   4.294   5.929   8.063
   56DG      C8 1760   4.333   6.023   7.975
   56DG      H8 1761   4.437   6.047   7.959
   56DG      N7 1762   4.234   6.092   7.920
   56DG      C5 1763   4.122   6.034   7.977
   56DG      C6 1764   3.980   6.060   7.958
   56DG      O6 1765   3.919   6.134   7.879
   56DG      N1 1766   3.898   5.989   8.045
   56DG      H1 1767   3.802   6.019   8.042
   56DG      C2 1768   3.942   5.890   8.126
   56DG      N2 1769   3.846   5.828   8.185
   56DG     H21 1770   3.750   5.846   8.159
   56DG     H22 1771   3.871   5.745   8.237
   56DG      N3 1772   4.069   5.859   8.147
   56DG      C4 1773   4.153   5.934   8.067
   56DG     C3' 1774   4.572   5.716   8.183
   56DG     H3' 1775   4.674   5.707   8.146
   56DG     C2' 1776   4.488   5.758   8.069
   56DG    H2'1 1777   4.545   5.817   7.998
   56DG    H2'2 1778   4.449   5.670   8.018
   56DG     O3' 1779   4.521   5.602   8.249
   57DC       P 1780   4.558   5.452   8.220
   57DC     O1P 1781   4.620   5.391   8.337
   57DC     O2P 1782   4.628   5.446   8.089
   57DC     O5' 1783   4.415   5.383   8.197
   57DC     C5' 1784   4.318   5.377   8.298
   57DC    H5'1 1785   4.302   5.479   8.332
   57DC    H5'2 1786   4.355   5.320   8.382
   57DC     C4' 1787   4.189   5.316   8.253
   57DC     H4' 1788   4.148   5.280   8.347
   57DC     O4' 1789   4.101   5.404   8.185
   57DC     C1' 1790   4.078   5.366   8.052
   57DC     H1' 1791   3.974   5.332   8.046
   57DC      N1 1792   4.096   5.482   7.957
   57DC      C6 1793   4.221   5.515   7.913
   57DC      H6 1794   4.305   5.450   7.933
   57DC      C5 1795   4.236   5.623   7.838
   57DC      H5 1796   4.334   5.654   7.805
   57DC      C4 1797   4.124   5.702   7.803
   57DC      N4 1798   4.139   5.819   7.751
   57DC     H41 1799   4.056   5.874   7.735
   57DC     H42 1800   4.230   5.861   7.738
   57DC      N3 1801   3.998   5.674   7.841
   57DC      C2 1802   3.982   5.557   7.918
   57DC      O2 1803   3.865   5.522   7.948
   57DC     C3' 1804   4.211   5.192   8.158
   57DC     H3' 1805   4.315   5.164   8.172
   57DC     C2' 1806   4.175   5.244   8.023
   57DC    H2'1 1807   4.268   5.264   7.970
   57DC    H2'2 1808   4.121   5.170   7.964
   57DC     O3' 1809   4.137   5.083   8.202
   58DA       P 1810   4.128   4.949   8.121
   58DA     O1P 1811   4.106   4.840   8.219
   58DA     O2P 1812   4.245   4.939   8.028
   58DA     O5' 1813   3.993   4.961   8.033
   58DA     C5' 1814   3.878   5.012   8.094
   58DA    H5'1 1815   3.904   5.106   8.143
   58DA    H5'2 1816   3.841   4.936   8.162
   58DA     C4' 1817   3.770   5.045   7.992
   58DA     H4' 1818   3.676   5.067   8.045
   58DA     O4' 1819   3.780   5.169   7.921
   58DA     C1' 1820   3.742   5.154   7.788
   58DA     H1' 1821   3.638   5.187   7.781
   58DA      N9 1822   3.841   5.245   7.723
   58DA      C8 1823   3.973   5.236   7.685
   58DA      H8 1824   4.029   5.149   7.715
   58DA      N7 1825   4.016   5.339   7.616
   58DA      C5 1826   3.900   5.421   7.611
   58DA      C6 1827   3.875   5.545   7.564
   58DA      N6 1828   3.964   5.625   7.507
   58DA     H61 1829   3.952   5.724   7.492
   58DA     H62 1830   4.061   5.597   7.511
   58DA      N1 1831   3.754   5.590   7.555
   58DA      C2 1832   3.654   5.518   7.597
   58DA      H2 1833   3.555   5.562   7.587
   58DA      N3 1834   3.664   5.405   7.663
   58DA      C4 1835   3.799   5.361   7.668
   58DA     C3' 1836   3.738   4.935   7.883
   58DA     H3' 1837   3.813   4.855   7.887
   58DA     C2' 1838   3.763   5.007   7.752
   58DA    H2'1 1839   3.865   4.997   7.715
   58DA    H2'2 1840   3.698   4.972   7.672
   58DA     O3' 1841   3.609   4.876   7.912
   59DC       P 1842   3.532   4.783   7.815
   59DC     O1P 1843   3.409   4.732   7.882
   59DC     O2P 1844   3.616   4.692   7.739
   59DC     O5' 1845   3.480   4.888   7.710
   59DC     C5' 1846   3.392   4.992   7.746
   59DC    H5'1 1847   3.439   5.065   7.811
   59DC    H5'2 1848   3.307   4.948   7.798
   59DC     C4' 1849   3.338   5.054   7.621
   59DC     H4' 1850   3.253   5.121   7.636
   59DC     O4' 1851   3.438   5.145   7.570
   59DC     C1' 1852   3.452   5.107   7.431
   59DC     H1' 1853   3.379   5.156   7.366
   59DC      N1 1854   3.584   5.147   7.389
   59DC      C6 1855   3.697   5.071   7.382
   59DC      H6 1856   3.690   4.967   7.410
   59DC      C5 1857   3.811   5.132   7.351
   59DC      H5 1858   3.902   5.074   7.349
   59DC      C4 1859   3.811   5.274   7.319
   59DC      N4 1860   3.927   5.335   7.300
   59DC     H41 1861   3.920   5.435   7.285
   59DC     H42 1862   4.006   5.278   7.272
   59DC      N3 1863   3.705   5.350   7.317
   59DC      C2 1864   3.589   5.283   7.353
   59DC      O2 1865   3.496   5.361   7.374
   59DC     C3' 1866   3.291   4.950   7.512
   59DC     H3' 1867   3.273   4.851   7.553
   59DC     C2' 1868   3.413   4.955   7.420
   59DC    H2'1 1869   3.495   4.898   7.463
   59DC    H2'2 1870   3.398   4.924   7.317
   59DC     O3' 1871   3.175   5.007   7.451
   60DA       P 1872   3.089   4.938   7.335
   60DA     O1P 1873   2.956   4.917   7.389
   60DA     O2P 1874   3.157   4.813   7.294
   60DA     O5' 1875   3.093   5.045   7.212
   60DA     C5' 1876   3.026   5.171   7.205
   60DA    H5'1 1877   3.061   5.223   7.295
   60DA    H5'2 1878   2.920   5.146   7.211
   60DA     C4' 1879   3.058   5.250   7.072
   60DA     H4' 1880   2.993   5.337   7.077
   60DA     O4' 1881   3.190   5.293   7.054
   60DA     C1' 1882   3.249   5.222   6.947
   60DA     H1' 1883   3.257   5.289   6.862
   60DA      N9 1884   3.383   5.171   6.975
   60DA      C8 1885   3.410   5.072   7.065
   60DA      H8 1886   3.324   5.025   7.110
   60DA      N7 1887   3.542   5.042   7.079
   60DA      C5 1888   3.597   5.140   6.993
   60DA      C6 1889   3.729   5.181   6.964
   60DA      N6 1890   3.839   5.138   7.028
   60DA     H61 1891   3.933   5.163   7.000
   60DA     H62 1892   3.823   5.075   7.105
   60DA      N1 1893   3.746   5.285   6.879
   60DA      C2 1894   3.641   5.348   6.824
   60DA      H2 1895   3.658   5.439   6.769
   60DA      N3 1896   3.513   5.319   6.849
   60DA      C4 1897   3.500   5.213   6.930
   60DA     C3' 1898   3.007   5.171   6.951
   60DA     H3' 1899   2.937   5.097   6.990
   60DA     C2' 1900   3.145   5.117   6.910
   60DA    H2'1 1901   3.169   5.022   6.958
   60DA    H2'2 1902   3.151   5.092   6.804
   60DA     O3' 1903   2.943   5.259   6.869
   61DT       P 1904   2.868   5.212   6.731
   61DT     O1P 1905   2.776   5.319   6.682
   61DT     O2P 1906   2.815   5.075   6.746
   61DT     O5' 1907   2.990   5.203   6.624
   61DT     C5' 1908   3.045   5.317   6.557
   61DT    H5'1 1909   3.063   5.409   6.613
   61DT    H5'2 1910   2.980   5.335   6.472
   61DT     C4' 1911   3.170   5.274   6.493
   61DT     H4' 1912   3.196   5.358   6.429
   61DT     O4' 1913   3.279   5.244   6.584
   61DT     C1' 1914   3.360   5.165   6.500
   61DT     H1' 1915   3.410   5.228   6.426
   61DT      N1 1916   3.454   5.096   6.589
   61DT      C6 1917   3.411   5.001   6.677
   61DT      H6 1918   3.307   4.982   6.702
   61DT      C5 1919   3.503   4.922   6.737
   61DT      C7 1920   3.463   4.807   6.824
   61DT     H71 1921   3.356   4.797   6.843
   61DT     H72 1922   3.490   4.709   6.784
   61DT     H73 1923   3.522   4.810   6.916
   61DT      C4 1924   3.649   4.940   6.710
   61DT      O4 1925   3.739   4.875   6.755
   61DT      N3 1926   3.680   5.041   6.621
   61DT      H3 1927   3.779   5.058   6.620
   61DT      C2 1928   3.591   5.123   6.561
   61DT      O2 1929   3.634   5.198   6.476
   61DT     C3' 1930   3.160   5.155   6.393
   61DT     H3' 1931   3.062   5.107   6.396
   61DT     C2' 1932   3.272   5.063   6.432
   61DT    H2'1 1933   3.226   4.982   6.488
   61DT    H2'2 1934   3.333   5.020   6.353
   61DT     O3' 1935   3.183   5.206   6.256
   62DG       P 1936   3.072   5.211   6.137
   62DG     O1P 1937   2.979   5.318   6.187
   62DG     O2P 1938   3.012   5.077   6.113
   62DG     O5' 1939   3.141   5.264   5.996
   62DG     C5' 1940   3.228   5.376   5.986
   62DG    H5'1 1941   3.235   5.436   6.076
   62DG    H5'2 1942   3.197   5.445   5.908
   62DG     C4' 1943   3.373   5.330   5.952
   62DG     H4' 1944   3.429   5.422   5.935
   62DG     O4' 1945   3.428   5.259   6.070
   62DG     C1' 1946   3.518   5.165   6.015
   62DG     H1' 1947   3.612   5.217   5.995
   62DG      N9 1948   3.544   5.048   6.098
   62DG      C8 1949   3.454   4.964   6.149
   62DG      H8 1950   3.349   4.965   6.123
   62DG      N7 1951   3.503   4.882   6.236
   62DG      C5 1952   3.638   4.916   6.248
   62DG      C6 1953   3.735   4.869   6.337
   62DG      O6 1954   3.730   4.784   6.430
   62DG      N1 1955   3.855   4.924   6.317
   62DG      H1 1956   3.935   4.890   6.368
   62DG      C2 1957   3.881   5.020   6.227
   62DG      N2 1958   4.007   5.056   6.216
   62DG     H21 1959   4.072   5.021   6.285
   62DG     H22 1960   4.028   5.133   6.155
   62DG      N3 1961   3.785   5.079   6.151
   62DG      C4 1962   3.664   5.021   6.163
   62DG     C3' 1963   3.390   5.242   5.833
   62DG     H3' 1964   3.288   5.232   5.798
   62DG     C2' 1965   3.449   5.114   5.889
   62DG    H2'1 1966   3.366   5.046   5.906
   62DG    H2'2 1967   3.519   5.069   5.818
   62DG     O3' 1968   3.491   5.304   5.745
   63DC       P 1969   3.505   5.246   5.596
   63DC     O1P 1970   3.539   5.361   5.506
   63DC     O2P 1971   3.391   5.152   5.571
   63DC     O5' 1972   3.641   5.157   5.594
   63DC     C5' 1973   3.763   5.222   5.634
   63DC    H5'1 1974   3.760   5.250   5.739
   63DC    H5'2 1975   3.787   5.311   5.577
   63DC     C4' 1976   3.870   5.111   5.621
   63DC     H4' 1977   3.967   5.159   5.615
   63DC     O4' 1978   3.868   5.037   5.739
   63DC     C1' 1979   3.898   4.903   5.709
   63DC     H1' 1980   4.007   4.893   5.709
   63DC      N1 1981   3.846   4.823   5.828
   63DC      C6 1982   3.708   4.810   5.846
   63DC      H6 1983   3.646   4.876   5.787
   63DC      C5 1984   3.662   4.738   5.951
   63DC      H5 1985   3.554   4.741   5.963
   63DC      C4 1986   3.754   4.672   6.037
   63DC      N4 1987   3.716   4.589   6.127
   63DC     H41 1988   3.785   4.540   6.183
   63DC     H42 1989   3.620   4.558   6.131
   63DC      N3 1990   3.882   4.686   6.021
   63DC      C2 1991   3.931   4.760   5.920
   63DC      O2 1992   4.053   4.764   5.906
   63DC     C3' 1993   3.866   5.019   5.501
   63DC     H3' 1994   3.782   5.062   5.445
   63DC     C2' 1995   3.835   4.887   5.571
   63DC    H2'1 1996   3.727   4.884   5.581
   63DC    H2'2 1997   3.867   4.801   5.512
   63DC     O3' 1998   3.976   5.024   5.417
   64DG3      P 1999   3.988   4.933   5.287
   64DG3    O1P 2000   4.107   4.984   5.217
   64DG3    O2P 2001   3.858   4.930   5.218
   64DG3    O5' 2002   4.025   4.793   5.331
   64DG3    C5' 2003   4.148   4.763   5.404
   64DG3   H5'1 2004   4.156   4.826   5.492
   64DG3   H5'2 2005   4.232   4.759   5.334
   64DG3    C4' 2006   4.145   4.623   5.463
   64DG3    H4' 2007   4.241   4.604   5.510
   64DG3    O4' 2008   4.041   4.613   5.553
   64DG3    C1' 2009   3.980   4.484   5.543
   64DG3    H1' 2010   4.035   4.405   5.592
   64DG3     N9 2011   3.852   4.486   5.611
   64DG3     C8 2012   3.727   4.522   5.558
   64DG3     H8 2013   3.716   4.574   5.463
   64DG3     N7 2014   3.626   4.508   5.638
   64DG3     C5 2015   3.682   4.440   5.750
   64DG3     C6 2016   3.628   4.392   5.873
   64DG3     O6 2017   3.517   4.416   5.917
   64DG3     N1 2018   3.723   4.350   5.959
   64DG3     H1 2019   3.689   4.315   6.047
   64DG3     C2 2020   3.852   4.322   5.924
   64DG3     N2 2021   3.928   4.311   6.026
   64DG3    H21 2022   3.889   4.312   6.119
   64DG3    H22 2023   4.026   4.308   6.002
   64DG3     N3 2024   3.910   4.370   5.818
   64DG3     C4 2025   3.821   4.431   5.733
   64DG3    C3' 2026   4.121   4.507   5.367
   64DG3    H3' 2027   4.123   4.542   5.264
   64DG3    C2' 2028   3.977   4.456   5.394
   64DG3   H2'1 2029   3.913   4.527   5.342
   64DG3   H2'2 2030   3.956   4.352   5.368
   64DG3    O3' 2031   4.212   4.405   5.391
   64DG3    H3T 2032   4.229   4.402   5.485
   65SOL     OW 2033  14.821  10.917  11.823
   65SOL    HW1 2034   0.028  10.920  11.856
   65SOL    HW2 2035  14.823  10.969  11.743
   66SOL     OW 2036  13.165   9.684  14.367
   66SOL    HW1 2037  13.163   9.752  14.299
   66SOL    HW2 2038  13.075   9.652  14.372
   67SOL     OW 2039   0.524   4.833   7.285
   67SOL    HW1 2040   0.608   4.815   7.244
   67SOL    HW2 2041   0.489   4.747   7.306
   68SOL     OW 2042   6.427   9.236   0.587
   68SOL    HW1 2043   6.448   9.247   0.494
   68SOL    HW2 2044   6.454   9.147   0.607
   69SOL     OW 2045   2.828   9.404   1.445
   69SOL    HW1 2046   2.749   9.349   1.442
   69SOL    HW2 2047   2.879   9.369   1.518
   70SOL     OW 2048  12.479  10.181   2.467
   70SOL    HW1 2049  12.429  10.113   2.512
   70SOL    HW2 2050  12.422  10.257   2.466
   71SOL     OW 2051   1.069   7.465   4.952
   71SOL    HW1 2052   1.010   7.508   5.013
   71SOL    HW2 2053   1.126   7.411   5.007
   72SOL     OW 2054   7.579   5.858   1.910
   72SOL    HW1 2055   7.551   5.873   2.000
   72SOL    HW2 2056   7.527   5.919   1.858
   73SOL     OW 2057   1.667   5.252   3.182
   73SOL    HW1 2058   1.600   5.318   3.161
   73SOL    HW2 2059   1.617   5.173   3.203
   74SOL     OW 2060  13.503   1.153   5.092
   74SOL    HW1 2061  13.528   1.108   5.012
   74SOL    HW2 2062  13.557   1.113   5.160
   75SOL     OW 2063   0.556  14.877   9.199
   75SOL    HW1 2064   0.503   0.067   9.164
   75SOL    HW2 2065   0.596   0.031   9.278
   76SOL     OW 2066  14.291   8.716  10.271
   76SOL    HW1 2067  14.277   8.791  10.214
   76SOL    HW2 2068  14.277   8.749  10.359
   77SOL     OW 2069   1.390   7.174  13.893
   77SOL    HW1 2070   1.303   7.146  13.921
   77SOL    HW2 2071   1.375   7.255  13.843
   78SOL     OW 2072  13.821  12.408   9.348
   78SOL    HW1 2073  13.729  12.422   9.371
   78SOL    HW2 2074  13.869  12.425   9.430
   79SOL     OW 2075   6.234   4.721   9.409
   79SOL    HW1 2076   6.190   4.783   9.467
   79SOL    HW2 2077   6.209   4.750   9.321
   80SOL     OW 2078   1.119   7.141  12.463
   80SOL    HW1 2079   1.195   7.085  12.452
   80SOL    HW2 2080   1.150   7.215  12.516
   81SOL     OW 2081  13.159   7.664   3.072
   81SOL    HW1 2082  13.085   7.724   3.066
   81SOL    HW2 2083  13.126   7.592   3.126
   82SOL     OW 2084   1.971  10.225   2.073
   82SOL    HW1 2085   2.032  10.196   2.005
   82SOL    HW2 2086   1.959  10.148   2.128
   83SOL     OW 2087  12.462  12.958   4.917
   83SOL    HW1 2088  12.370  12.941   4.899
   83SOL    HW2 2089  12.494  13.001   4.838
   84SOL     OW 2090  14.022  12.253   8.256
   84SOL    HW1 2091  13.949  12.211   8.301
   84SOL    HW2 2092  14.051  12.322   8.316
   85SOL     OW 2093  12.263   0.005   5.558
   85SOL    HW1 2094  12.330  14.822   5.540
   85SOL    HW2 2095  12.233   0.034   5.472
   86SOL     OW 2096  14.682   7.379   4.467
   86SOL    HW1 2097  14.719   7.387   4.379
   86SOL    HW2 2098  14.720   7.451   4.516
   87SOL     OW 2099  10.184   3.237   0.490
   87SOL    HW1 2100  10.139   3.233   0.575
   87SOL    HW2 2101  10.238   3.158   0.489
   88SOL     OW 2102   8.192  12.411   6.421
   88SOL    HW1 2103   8.138  12.470   6.472
   88SOL    HW2 2104   8.245  12.365   6.486
   89SOL     OW 2105   1.901   4.409   3.889
   89SOL    HW1 2106   1.825   4.387   3.943
   89SOL    HW2 2107   1.914   4.331   3.834
   90SOL     OW 2108  14.096   2.538   7.209
   90SOL    HW1 2109  14.082   2.484   7.287
   90SOL    HW2 2110  14.009   2.575   7.191
   91SOL     OW 2111  12.365   8.451   0.466
   91SOL    HW1 2112  12.295   8.493   0.516
   91SOL    HW2 2113  12.365   8.496   0.381
   92SOL     OW 2114  11.740  11.761   6.293
   92SOL    HW1 2115  11.805  11.735   6.227
   92SOL    HW2 2116  11.784  11.830   6.343
   93SOL     OW 2117   7.933   0.930   8.003
   93SOL    HW1 2118   7.884   0.849   7.987
   93SOL    HW2 2119   8.007   0.902   8.058
   94SOL     OW 2120  13.192   1.527  11.359
   94SOL    HW1 2121  13.097   1.539  11.366
   94SOL    HW2 2122  13.217   1.491  11.445
   95SOL     OW 2123  10.578   8.482   7.401
   95SOL    HW1 2124  10.560   8.399   7.445
   95SOL    HW2 2125  10.494   8.528   7.400
   96SOL     OW 2126   9.566   1.412  10.493
   96SOL    HW1 2127   9.628   1.400  10.422
   96SOL    HW2 2128   9.566   1.329  10.541
   97SOL     OW 2129   8.887   6.537  13.558
   97SOL    HW1 2130   8.912   6.590  13.634
   97SOL    HW2 2131   8.872   6.601  13.489
   98SOL     OW 2132   0.856   1.411  10.029
   98SOL    HW1 2133   0.948   1.415  10.054
   98SOL    HW2 2134   0.848   1.332   9.976
   99SOL     OW 2135  13.083   6.262   4.085
   99SOL    HW1 2136  13.045   6.315   4.015
   99SOL    HW2 2137  13.167   6.303   4.104
  100SOL     OW 2138   7.626   4.785   4.221
  100SOL    HW1 2139   7.573   4.738   4.286
  100SOL    HW2 2140   7.665   4.715   4.167
  101SOL     OW 2141   1.631  11.620   6.776
  101SOL    HW1 2142   1.560  11.675   6.809
  101SOL    HW2 2143   1.630  11.634   6.681
  102SOL     OW 2144   7.591   5.214   4.276
  102SOL    HW1 2145   7.639   5.279   4.328
  102SOL    HW2 2146   7.612   5.236   4.185
  103SOL     OW 2147   4.569  10.124  10.056
  103SOL    HW1 2148   4.616  10.045  10.082
  103SOL    HW2 2149   4.500  10.134  10.121
  104SOL     OW 2150   5.266   0.340   6.477
  104SOL    HW1 2151   5.336   0.394   6.514
  104SOL    HW2 2152   5.254   0.374   6.388
  105SOL     OW 2153   8.678  13.340   8.788
  105SOL    HW1 2154   8.722  13.386   8.859
  105SOL    HW2 2155   8.749  13.303   8.735
  106SOL     OW 2156  11.681   4.491   4.880
  106SOL    HW1 2157  11.613   4.558   4.890
  106SOL    HW2 2158  11.689   4.480   4.785
  107SOL     OW 2159   0.520  12.905  12.118
  107SOL    HW1 2160   0.453  12.967  12.090
  107SOL    HW2 2161   0.560  12.946  12.195
  108SOL     OW 2162   0.678   3.352   3.591
  108SOL    HW1 2163   0.666   3.360   3.685
  108SOL    HW2 2164   0.759   3.301   3.582
  109SOL     OW 2165  11.490  10.362   9.883
  109SOL    HW1 2166  11.456  10.301   9.818
  109SOL    HW2 2167  11.566  10.402   9.841
  110SOL     OW 2168   8.580   2.612   9.513
  110SOL    HW1 2169   8.674   2.600   9.530
  110SOL    HW2 2170   8.536   2.558   9.579
  111SOL     OW 2171   4.194   8.588   1.488
  111SOL    HW1 2172   4.202   8.616   1.397
  111SOL    HW2 2173   4.201   8.669   1.539
  112SOL     OW 2174  12.903   2.308   9.679
  112SOL    HW1 2175  12.888   2.377   9.743
  112SOL    HW2 2176  12.943   2.352   9.604
  113SOL     OW 2177   0.235   2.577   9.224
  113SOL    HW1 2178   0.167   2.633   9.261
  113SOL    HW2 2179   0.282   2.633   9.162
  114SOL     OW 2180  10.946   9.699  10.956
  114SOL    HW1 2181  10.856   9.671  10.942
  114SOL    HW2 2182  10.940   9.793  10.970
  115SOL     OW 2183   9.170   2.066   2.378
  115SOL    HW1 2184   9.205   2.125   2.311
  115SOL    HW2 2185   9.137   2.124   2.447
  116SOL     OW 2186   8.500  10.177  14.479
  116SOL    HW1 2187   8.500  10.185  14.574
  116SOL    HW2 2188   8.489  10.083  14.463
  117SOL     OW 2189   6.950   2.993  10.713
  117SOL    HW1 2190   7.041   3.022  10.711
  117SOL    HW2 2191   6.906   3.045  10.647
  118SOL     OW 2192  13.780  10.122   3.616
  118SOL    HW1 2193  13.718  10.188   3.584
  118SOL    HW2 2194  13.726  10.044   3.628
  119SOL     OW 2195  12.019   6.854   4.597
  119SOL    HW1 2196  12.058   6.776   4.559
  119SOL    HW2 2197  12.064   6.865   4.681
  120SOL     OW 2198   0.817  14.147   6.231
  120SOL    HW1 2199   0.843  14.103   6.312
  120SOL    HW2 2200   0.735  14.191   6.254
  121SOL     OW 2201  14.326   1.390  13.611
  121SOL    HW1 2202  14.366   1.406  13.696
  121SOL    HW2 2203  14.270   1.314  13.624
  122SOL     OW 2204  12.667  13.306  10.205
  122SOL    HW1 2205  12.677  13.376  10.140
  122SOL    HW2 2206  12.660  13.352  10.288
  123SOL     OW 2207   1.528   0.714   9.369
  123SOL    HW1 2208   1.613   0.729   9.327
  123SOL    HW2 2209   1.471   0.782   9.333
  124SOL     OW 2210   6.444  10.443   9.423
  124SOL    HW1 2211   6.389  10.400   9.488
  124SOL    HW2 2212   6.519  10.384   9.412
  125SOL     OW 2213   7.611   8.136   6.621
  125SOL    HW1 2214   7.523   8.170   6.604
  125SOL    HW2 2215   7.633   8.085   6.543
  126SOL     OW 2216   4.365   6.000   6.109
  126SOL    HW1 2217   4.345   6.084   6.150
  126SOL    HW2 2218   4.429   5.959   6.167
  127SOL     OW 2219   9.548   0.281   9.159
  127SOL    HW1 2220   9.607   0.301   9.086
  127SOL    HW2 2221   9.522   0.190   9.144
  128SOL     OW 2222   6.832   7.343   6.255
  128SOL    HW1 2223   6.775   7.336   6.331
  128SOL    HW2 2224   6.773   7.340   6.180
  129SOL     OW 2225  12.718   2.415   2.643
  129SOL    HW1 2226  12.645   2.408   2.581
  129SOL    HW2 2227  12.787   2.459   2.594
  130SOL     OW 2228   8.741   2.262   0.561
  130SOL    HW1 2229   8.782   2.313   0.631
  130SOL    HW2 2230   8.811   2.205   0.529
  131SOL     OW 2231   0.610   1.012  13.058
  131SOL    HW1 2232   0.576   0.933  13.016
  131SOL    HW2 2233   0.687   0.983  13.106
  132SOL     OW 2234   0.960   3.366   1.694
  132SOL    HW1 2235   0.944   3.379   1.600
  132SOL    HW2 2236   0.892   3.305   1.722
  133SOL     OW 2237   4.539   1.036   3.333
  133SOL    HW1 2238   4.531   1.030   3.238
  133SOL    HW2 2239   4.633   1.024   3.350
  134SOL     OW 2240   0.801   4.834  11.034
  134SOL    HW1 2241   0.818   4.772  10.964
  134SOL    HW2 2242   0.855   4.910  11.011
  135SOL     OW 2243  11.839   3.576  12.804
  135SOL    HW1 2244  11.843   3.545  12.713
  135SOL    HW2 2245  11.811   3.500  12.854
  136SOL     OW 2246   3.391   7.989   8.634
  136SOL    HW1 2247   3.373   7.898   8.609
  136SOL    HW2 2248   3.484   8.002   8.612
  137SOL     OW 2249  14.150   6.687  14.633
  137SOL    HW1 2250  14.092   6.755  14.601
  137SOL    HW2 2251  14.204   6.664  14.557
  138SOL     OW 2252   2.253   5.693   0.234
  138SOL    HW1 2253   2.260   5.598   0.236
  138SOL    HW2 2254   2.342   5.724   0.249
  139SOL     OW 2255   8.095  14.505   8.650
  139SOL    HW1 2256   8.060  14.429   8.605
  139SOL    HW2 2257   8.111  14.474   8.740
  140SOL     OW 2258   4.185   1.264   9.484
  140SOL    HW1 2259   4.207   1.293   9.573
  140SOL    HW2 2260   4.191   1.343   9.431
  141SOL     OW 2261   1.979   8.537  13.407
  141SOL    HW1 2262   1.965   8.458  13.354
  141SOL    HW2 2263   1.904   8.593  13.385
  142SOL     OW 2264   3.088  11.193   2.096
  142SOL    HW1 2265   3.107  11.104   2.066
  142SOL    HW2 2266   3.154  11.247   2.052
  143SOL     OW 2267   7.258  10.503   0.059
  143SOL    HW1 2268   7.185  10.476   0.116
  143SOL    HW2 2269   7.261  10.437  14.872
  144SOL     OW 2270   4.597   1.656   7.589
  144SOL    HW1 2271   4.558   1.742   7.575
  144SOL    HW2 2272   4.688   1.666   7.561
  145SOL     OW 2273  10.695  12.465   4.038
  145SOL    HW1 2274  10.643  12.475   3.958
  145SOL    HW2 2275  10.758  12.396   4.017
  146SOL     OW 2276   3.357   5.701   7.618
  146SOL    HW1 2277   3.405   5.777   7.652
  146SOL    HW2 2278   3.409   5.673   7.542
  147SOL     OW 2279   6.402   0.495   8.831
  147SOL    HW1 2280   6.461   0.431   8.791
  147SOL    HW2 2281   6.355   0.533   8.757
  148SOL     OW 2282   8.227   9.477   9.493
  148SOL    HW1 2283   8.249   9.450   9.404
  148SOL    HW2 2284   8.211   9.395   9.540
  149SOL     OW 2285   8.660   7.436  11.917
  149SOL    HW1 2286   8.669   7.509  11.856
  149SOL    HW2 2287   8.583   7.387  11.885
  150SOL     OW 2288   6.282   5.069   0.998
  150SOL    HW1 2289   6.202   5.042   1.044
  150SOL    HW2 2290   6.345   5.000   1.015
  151SOL     OW 2291   7.642   7.549   1.757
  151SOL    HW1 2292   7.561   7.499   1.770
  151SOL    HW2 2293   7.700   7.520   1.828
  152SOL     OW 2294  11.866  14.087  11.585
  152SOL    HW1 2295  11.956  14.096  11.617
  152SOL    HW2 2296  11.875  14.045  11.500
  153SOL     OW 2297   9.447  10.014   4.883
  153SOL    HW1 2298   9.530   9.997   4.839
  153SOL    HW2 2299   9.447   9.955   4.959
  154SOL     OW 2300   5.565   8.494  11.736
  154SOL    HW1 2301   5.584   8.574  11.686
  154SOL    HW2 2302   5.499   8.521  11.800
  155SOL     OW 2303   5.439   4.326   4.607
  155SOL    HW1 2304   5.362   4.341   4.661
  155SOL    HW2 2305   5.494   4.403   4.622
  156SOL     OW 2306   6.010  12.366  10.133
  156SOL    HW1 2307   6.040  12.364  10.224
  156SOL    HW2 2308   6.011  12.275  10.106
  157SOL     OW 2309  11.288   9.506  13.035
  157SOL    HW1 2310  11.317   9.572  13.098
  157SOL    HW2 2311  11.195   9.495  13.053
  158SOL     OW 2312  12.802   8.905   1.335
  158SOL    HW1 2313  12.768   8.982   1.380
  158SOL    HW2 2314  12.897   8.914   1.341
  159SOL     OW 2315   8.197   9.630  13.753
  159SOL    HW1 2316   8.243   9.553  13.719
  159SOL    HW2 2317   8.197   9.616  13.848
  160SOL     OW 2318  14.780   2.080  14.544
  160SOL    HW1 2319  14.780   2.037  14.629
  160SOL    HW2 2320  14.865   2.057  14.506
  161SOL     OW 2321   5.172  11.568   1.325
  161SOL    HW1 2322   5.146  11.514   1.399
  161SOL    HW2 2323   5.225  11.510   1.270
  162SOL     OW 2324   0.575   0.876   9.163
  162SOL    HW1 2325   0.607   0.940   9.227
  162SOL    HW2 2326   0.482   0.898   9.152
  163SOL     OW 2327  14.640  10.694  11.546
  163SOL    HW1 2328  14.578  10.744  11.599
  163SOL    HW2 2329  14.590  10.667  11.469
  164SOL     OW 2330  13.495   5.899   1.195
  164SOL    HW1 2331  13.579   5.945   1.187
  164SOL    HW2 2332  13.430   5.963   1.165
  165SOL     OW 2333   2.268  11.362  12.390
  165SOL    HW1 2334   2.187  11.377  12.341
  165SOL    HW2 2335   2.254  11.406  12.474
  166SOL     OW 2336   2.543  10.313   9.725
  166SOL    HW1 2337   2.567  10.405   9.741
  166SOL    HW2 2338   2.465  10.319   9.670
  167SOL     OW 2339   8.425  12.357  13.370
  167SOL    HW1 2340   8.479  12.331  13.295
  167SOL    HW2 2341   8.487  12.364  13.443
  168SOL     OW 2342   3.617   3.695   7.902
  168SOL    HW1 2343   3.554   3.720   7.835
  168SOL    HW2 2344   3.662   3.619   7.866
  169SOL     OW 2345   6.892   0.666   0.906
  169SOL    HW1 2346   6.877   0.752   0.945
  169SOL    HW2 2347   6.968   0.632   0.952
  170SOL     OW 2348  11.149   0.330   4.854
  170SOL    HW1 2349  11.177   0.368   4.937
  170SOL    HW2 2350  11.200   0.249   4.847
  171SOL     OW 2351  12.557   3.597   7.392
  171SOL    HW1 2352  12.495   3.532   7.426
  171SOL    HW2 2353  12.536   3.603   7.299
  172SOL     OW 2354   2.142   1.456   0.235
  172SOL    HW1 2355   2.192   1.490   0.309
  172SOL    HW2 2356   2.186   1.492   0.158
  173SOL     OW 2357   7.722   5.525  12.836
  173SOL    HW1 2358   7.637   5.501  12.871
  173SOL    HW2 2359   7.711   5.526  12.741
  174SOL     OW 2360  10.806   1.256  10.499
  174SOL    HW1 2361  10.827   1.206  10.420
  174SOL    HW2 2362  10.783   1.343  10.467
  175SOL     OW 2363   4.987  10.240   3.727
  175SOL    HW1 2364   5.079  10.239   3.753
  175SOL    HW2 2365   4.971  10.153   3.692
  176SOL     OW 2366   8.935   5.341   8.649
  176SOL    HW1 2367   8.851   5.385   8.634
  176SOL    HW2 2368   8.995   5.411   8.674
  177SOL     OW 2369   3.914   3.553  10.942
  177SOL    HW1 2370   3.871   3.529  10.860
  177SOL    HW2 2371   3.998   3.590  10.915
  178SOL     OW 2372   8.555   0.378   2.623
  178SOL    HW1 2373   8.576   0.402   2.533
  178SOL    HW2 2374   8.502   0.450   2.656
  179SOL     OW 2375   9.427   3.405  11.590
  179SOL    HW1 2376   9.500   3.382  11.648
  179SOL    HW2 2377   9.445   3.495  11.562
  180SOL     OW 2378   7.529  10.809   9.754
  180SOL    HW1 2379   7.487  10.727   9.729
  180SOL    HW2 2380   7.462  10.855   9.805
  181SOL     OW 2381  12.699   5.233   9.138
  181SOL    HW1 2382  12.777   5.181   9.153
  181SOL    HW2 2383  12.732   5.319   9.111
  182SOL     OW 2384   5.322   1.951   3.839
  182SOL    HW1 2385   5.260   2.019   3.866
  182SOL    HW2 2386   5.404   1.975   3.881
  183SOL     OW 2387   4.227   1.505  14.527
  183SOL    HW1 2388   4.172   1.540  14.457
  183SOL    HW2 2389   4.237   1.578  14.588
  184SOL     OW 2390   1.229  12.685   2.217
  184SOL    HW1 2391   1.264  12.641   2.140
  184SOL    HW2 2392   1.287  12.657   2.288
  185SOL     OW 2393  10.134   9.072   6.564
  185SOL    HW1 2394  10.128   9.151   6.511
  185SOL    HW2 2395  10.077   9.009   6.520
  186SOL     OW 2396   8.995   5.527  13.295
  186SOL    HW1 2397   9.021   5.553  13.383
  186SOL    HW2 2398   8.930   5.594  13.269
  187SOL     OW 2399   5.053   8.138   7.990
  187SOL    HW1 2400   4.989   8.190   8.039
  187SOL    HW2 2401   5.134   8.145   8.039
  188SOL     OW 2402   9.853   0.594  14.509
  188SOL    HW1 2403   9.913   0.594  14.584
  188SOL    HW2 2404   9.846   0.502  14.483
  189SOL     OW 2405   2.180   1.602   5.479
  189SOL    HW1 2406   2.218   1.580   5.564
  189SOL    HW2 2407   2.239   1.669   5.443
  190SOL     OW 2408   7.310  10.833   9.979
  190SOL    HW1 2409   7.373  10.761   9.979
  190SOL    HW2 2410   7.253  10.814   9.905
  191SOL     OW 2411   4.970   4.455  11.395
  191SOL    HW1 2412   4.956   4.548  11.411
  191SOL    HW2 2413   4.914   4.411  11.460
  192SOL     OW 2414   6.439   3.622  13.762
  192SOL    HW1 2415   6.478   3.666  13.838
  192SOL    HW2 2416   6.498   3.548  13.745
  193SOL     OW 2417  13.311   1.730  12.312
  193SOL    HW1 2418  13.396   1.698  12.341
  193SOL    HW2 2419  13.293   1.805  12.368
  194SOL     OW 2420   1.596  14.722   3.494
  194SOL    HW1 2421   1.613  14.786   3.563
  194SOL    HW2 2422   1.677  14.719   3.443
  195SOL     OW 2423   2.116   4.438  10.827
  195SOL    HW1 2424   2.175   4.506  10.795
  195SOL    HW2 2425   2.082   4.472  10.909
  196SOL     OW 2426   3.507   1.208   3.760
  196SOL    HW1 2427   3.541   1.161   3.837
  196SOL    HW2 2428   3.425   1.246   3.790
  197SOL     OW 2429   7.902  10.409  10.524
  197SOL    HW1 2430   7.977  10.433  10.469
  197SOL    HW2 2431   7.933  10.334  10.575
  198SOL     OW 2432   1.363   9.270   4.366
  198SOL    HW1 2433   1.411   9.350   4.344
  198SOL    HW2 2434   1.347   9.277   4.460
  199SOL     OW 2435  10.606  11.555  14.824
  199SOL    HW1 2436  10.626  11.492   0.011
  199SOL    HW2 2437  10.636  11.639  14.859
  200SOL     OW 2438   8.741  13.653   2.037
  200SOL    HW1 2439   8.673  13.592   2.066
  200SOL    HW2 2440   8.701  13.740   2.048
  201SOL     OW 2441   9.428  12.712   8.600
  201SOL    HW1 2442   9.359  12.662   8.644
  201SOL    HW2 2443   9.425  12.682   8.509
  202SOL     OW 2444   0.721  13.088   9.881
  202SOL    HW1 2445   0.763  13.007   9.852
  202SOL    HW2 2446   0.723  13.145   9.804
  203SOL     OW 2447   6.474   1.694  13.211
  203SOL    HW1 2448   6.395   1.745  13.195
  203SOL    HW2 2449   6.522   1.697  13.128
  204SOL     OW 2450  13.005   4.462  12.915
  204SOL    HW1 2451  13.016   4.526  12.845
  204SOL    HW2 2452  12.912   4.464  12.936
  205SOL     OW 2453  12.146   2.326   5.535
  205SOL    HW1 2454  12.230   2.320   5.581
  205SOL    HW2 2455  12.087   2.269   5.585
  206SOL     OW 2456   7.533   6.899  10.959
  206SOL    HW1 2457   7.457   6.943  10.922
  206SOL    HW2 2458   7.593   6.970  10.983
  207SOL     OW 2459   5.714   0.407   3.048
  207SOL    HW1 2460   5.701   0.481   3.107
  207SOL    HW2 2461   5.756   0.340   3.102
  208SOL     OW 2462   7.466   9.754   7.922
  208SOL    HW1 2463   7.539   9.746   7.862
  208SOL    HW2 2464   7.448   9.664   7.950
  209SOL     OW 2465   8.169   3.057  13.161
  209SOL    HW1 2466   8.092   3.067  13.105
  209SOL    HW2 2467   8.209   2.975  13.132
  210SOL     OW 2468  14.671   0.654   3.057
  210SOL    HW1 2469  14.709   0.616   3.136
  210SOL    HW2 2470  14.744   0.700   3.014
  211SOL     OW 2471   8.463   4.601   3.985
  211SOL    HW1 2472   8.537   4.544   4.006
  211SOL    HW2 2473   8.386   4.554   4.017
  212SOL     OW 2474   9.083   2.286   7.921
  212SOL    HW1 2475   9.146   2.355   7.945
  212SOL    HW2 2476   9.135   2.224   7.871
  213SOL     OW 2477  11.849   9.902  13.340
  213SOL    HW1 2478  11.826   9.991  13.313
  213SOL    HW2 2479  11.832   9.848  13.264
  214SOL     OW 2480   2.824  11.875  11.872
  214SOL    HW1 2481   2.768  11.911  11.803
  214SOL    HW2 2482   2.780  11.794  11.899
  215SOL     OW 2483   1.678   8.264  14.377
  215SOL    HW1 2484   1.693   8.358  14.385
  215SOL    HW2 2485   1.765   8.226  14.370
  216SOL     OW 2486   5.945   2.870  10.767
  216SOL    HW1 2487   5.971   2.934  10.700
  216SOL    HW2 2488   5.989   2.789  10.742
  217SOL     OW 2489  12.135   0.181   2.136
  217SOL    HW1 2490  12.210   0.196   2.079
  217SOL    HW2 2491  12.139   0.251   2.201
  218SOL     OW 2492   5.635   9.307   0.443
  218SOL    HW1 2493   5.565   9.247   0.468
  218SOL    HW2 2494   5.660   9.350   0.525
  219SOL     OW 2495   0.727   7.848   3.259
  219SOL    HW1 2496   0.763   7.846   3.171
  219SOL    HW2 2497   0.691   7.936   3.269
  220SOL     OW 2498  11.590   6.588  10.442
  220SOL    HW1 2499  11.572   6.568  10.534
  220SOL    HW2 2500  11.555   6.513  10.394
  221SOL     OW 2501  11.475   3.914  11.164
  221SOL    HW1 2502  11.454   3.844  11.225
  221SOL    HW2 2503  11.400   3.919  11.106
  222SOL     OW 2504  10.771  11.506   2.378
  222SOL    HW1 2505  10.729  11.561   2.443
  222SOL    HW2 2506  10.753  11.416   2.407
  223SOL     OW 2507   9.966  12.888  10.579
  223SOL    HW1 2508   9.880  12.847  10.568
  223SOL    HW2 2509  10.027  12.814  10.582
  224SOL     OW 2510   7.314   8.924  13.835
  224SOL    HW1 2511   7.402   8.909  13.799
  224SOL    HW2 2512   7.255   8.902  13.763
  225SOL     OW 2513  14.204   2.934  12.699
  225SOL    HW1 2514  14.165   2.986  12.769
  225SOL    HW2 2515  14.186   2.983  12.619
  226SOL     OW 2516  13.289  14.026   1.446
  226SOL    HW1 2517  13.303  13.959   1.513
  226SOL    HW2 2518  13.376  14.043   1.411
  227SOL     OW 2519  12.990   7.706   8.136
  227SOL    HW1 2520  13.067   7.658   8.105
  227SOL    HW2 2521  12.928   7.637   8.163
  228SOL     OW 2522   5.558  12.210   4.736
  228SOL    HW1 2523   5.493  12.218   4.805
  228SOL    HW2 2524   5.508  12.190   4.657
  229SOL     OW 2525   1.394   9.999   8.030
  229SOL    HW1 2526   1.312  10.042   8.007
  229SOL    HW2 2527   1.414  10.031   8.119
  230SOL     OW 2528  14.497   8.235  10.173
  230SOL    HW1 2529  14.443   8.228  10.252
  230SOL    HW2 2530  14.439   8.208  10.102
  231SOL     OW 2531   9.520  10.913  11.079
  231SOL    HW1 2532   9.602  10.935  11.123
  231SOL    HW2 2533   9.534  10.936  10.987
  232SOL     OW 2534  13.128   0.223   4.272
  232SOL    HW1 2535  13.141   0.292   4.208
  232SOL    HW2 2536  13.211   0.176   4.274
  233SOL     OW 2537  11.200   3.843  13.875
  233SOL    HW1 2538  11.289   3.872  13.857
  233SOL    HW2 2539  11.204   3.747  13.873
  234SOL     OW 2540   9.004   1.725   5.993
  234SOL    HW1 2541   9.093   1.691   5.999
  234SOL    HW2 2542   9.009   1.792   5.924
  235SOL     OW 2543   6.319   8.304  11.374
  235SOL    HW1 2544   6.227   8.331  11.380
  235SOL    HW2 2545   6.353   8.354  11.300
  236SOL     OW 2546   8.942   3.739   6.518
  236SOL    HW1 2547   8.969   3.773   6.603
  236SOL    HW2 2548   8.917   3.649   6.535
  237SOL     OW 2549   3.359   1.271   4.835
  237SOL    HW1 2550   3.397   1.292   4.749
  237SOL    HW2 2551   3.379   1.178   4.848
  238SOL     OW 2552   2.827   8.237   1.494
  238SOL    HW1 2553   2.835   8.152   1.538
  238SOL    HW2 2554   2.748   8.275   1.530
  239SOL     OW 2555   2.997   5.899  13.175
  239SOL    HW1 2556   2.936   5.918  13.103
  239SOL    HW2 2557   2.944   5.851  13.239
  240SOL     OW 2558   3.666   5.748  13.825
  240SOL    HW1 2559   3.722   5.671  13.816
  240SOL    HW2 2560   3.580   5.718  13.794
  241SOL     OW 2561  13.855   7.889   4.165
  241SOL    HW1 2562  13.917   7.935   4.222
  241SOL    HW2 2563  13.909   7.827   4.116
  242SOL     OW 2564   7.214   3.684  10.817
  242SOL    HW1 2565   7.255   3.630  10.885
  242SOL    HW2 2566   7.145   3.732  10.864
  243SOL     OW 2567   0.281   8.342   9.594
  243SOL    HW1 2568   0.220   8.412   9.575
  243SOL    HW2 2569   0.368   8.381   9.580
  244SOL     OW 2570   6.257   6.750  11.608
  244SOL    HW1 2571   6.310   6.690  11.556
  244SOL    HW2 2572   6.316   6.821  11.632
  245SOL     OW 2573  12.464   2.058  12.714
  245SOL    HW1 2574  12.483   2.113  12.639
  245SOL    HW2 2575  12.369   2.068  12.727
  246SOL     OW 2576   9.421  11.981   5.979
  246SOL    HW1 2577   9.438  12.066   6.018
  246SOL    HW2 2578   9.443  11.992   5.886
  247SOL     OW 2579   1.571  10.631   0.140
  247SOL    HW1 2580   1.482  10.624   0.173
  247SOL    HW2 2581   1.610  10.702   0.191
  248SOL     OW 2582   1.128   7.789   8.482
  248SOL    HW1 2583   1.126   7.729   8.557
  248SOL    HW2 2584   1.203   7.846   8.500
  249SOL     OW 2585  14.370  13.061  12.892
  249SOL    HW1 2586  14.331  13.129  12.946
  249SOL    HW2 2587  14.430  13.015  12.952
  250SOL     OW 2588  10.475   0.699   3.234
  250SOL    HW1 2589  10.486   0.622   3.290
  250SOL    HW2 2590  10.380   0.704   3.218
  251SOL     OW 2591   4.212  12.660   7.036
  251SOL    HW1 2592   4.153  12.690   6.967
  251SOL    HW2 2593   4.296  12.701   7.015
  252SOL     OW 2594  10.826   5.792  14.495
  252SOL    HW1 2595  10.914   5.755  14.482
  252SOL    HW2 2596  10.830   5.833  14.581
  253SOL     OW 2597   5.562  14.788   0.550
  253SOL    HW1 2598   5.645  14.781   0.502
  253SOL    HW2 2599   5.504  14.835   0.490
  254SOL     OW 2600  11.760   5.319   4.847
  254SOL    HW1 2601  11.758   5.413   4.863
  254SOL    HW2 2602  11.725   5.308   4.758
  255SOL     OW 2603   2.555  10.349   7.487
  255SOL    HW1 2604   2.587  10.390   7.567
  255SOL    HW2 2605   2.626  10.359   7.424
  256SOL     OW 2606  14.253   8.349   0.193
  256SOL    HW1 2607  14.281   8.312   0.109
  256SOL    HW2 2608  14.333   8.380   0.234
  257SOL     OW 2609   9.658  14.772   2.664
  257SOL    HW1 2610   9.720  14.788   2.593
  257SOL    HW2 2611   9.713  14.756   2.741
  258SOL     OW 2612   2.066   2.917  12.033
  258SOL    HW1 2613   2.136   2.877  12.085
  258SOL    HW2 2614   2.099   2.915  11.943
  259SOL     OW 2615  11.813   3.798   0.369
  259SOL    HW1 2616  11.748   3.762   0.430
  259SOL    HW2 2617  11.797   3.892   0.369
  260SOL     OW 2618  12.612   0.487   4.380
  260SOL    HW1 2619  12.611   0.581   4.361
  260SOL    HW2 2620  12.686   0.475   4.439
  261SOL     OW 2621  14.729  13.517   3.571
  261SOL    HW1 2622  14.774  13.586   3.620
  261SOL    HW2 2623  14.788  13.442   3.576
  262SOL     OW 2624   1.538   1.250   7.269
  262SOL    HW1 2625   1.472   1.265   7.202
  262SOL    HW2 2626   1.593   1.180   7.233
  263SOL     OW 2627  14.133   6.260   0.725
  263SOL    HW1 2628  14.118   6.339   0.673
  263SOL    HW2 2629  14.123   6.188   0.662
  264SOL     OW 2630  10.275   8.557   3.405
  264SOL    HW1 2631  10.217   8.493   3.363
  264SOL    HW2 2632  10.322   8.598   3.332
  265SOL     OW 2633   3.342   3.459   3.640
  265SOL    HW1 2634   3.402   3.532   3.625
  265SOL    HW2 2635   3.320   3.464   3.733
  266SOL     OW 2636  13.036  13.220   2.820
  266SOL    HW1 2637  13.080  13.233   2.736
  266SOL    HW2 2638  12.949  13.188   2.797
  267SOL     OW 2639  11.296   1.361   6.550
  267SOL    HW1 2640  11.325   1.270   6.559
  267SOL    HW2 2641  11.210   1.355   6.509
  268SOL     OW 2642   7.939  12.437  10.624
  268SOL    HW1 2643   7.899  12.367  10.676
  268SOL    HW2 2644   7.909  12.518  10.666
  269SOL     OW 2645  12.447  11.488  12.940
  269SOL    HW1 2646  12.403  11.405  12.925
  269SOL    HW2 2647  12.435  11.536  12.858
  270SOL     OW 2648   3.831   1.907   0.708
  270SOL    HW1 2649   3.759   1.928   0.648
  270SOL    HW2 2650   3.899   1.870   0.652
  271SOL     OW 2651  14.422   2.924   1.191
  271SOL    HW1 2652  14.467   2.874   1.123
  271SOL    HW2 2653  14.343   2.873   1.210
  272SOL     OW 2654   4.531   3.806   6.092
  272SOL    HW1 2655   4.477   3.789   6.170
  272SOL    HW2 2656   4.516   3.899   6.073
  273SOL     OW 2657   8.311  13.499  11.364
  273SOL    HW1 2658   8.379  13.448  11.320
  273SOL    HW2 2659   8.354  13.533  11.442
  274SOL     OW 2660  10.745  14.798   0.075
  274SOL    HW1 2661  10.715  14.756  14.876
  274SOL    HW2 2662  10.694  14.756   0.144
  275SOL     OW 2663  13.353   9.963  13.658
  275SOL    HW1 2664  13.390   9.998  13.577
  275SOL    HW2 2665  13.304  10.036  13.696
  276SOL     OW 2666  11.419   2.136   9.919
  276SOL    HW1 2667  11.331   2.104   9.898
  276SOL    HW2 2668  11.404   2.216   9.970
  277SOL     OW 2669   2.055   6.333   3.018
  277SOL    HW1 2670   2.000   6.278   2.962
  277SOL    HW2 2671   2.145   6.308   2.995
  278SOL     OW 2672   1.878   5.114  12.994
  278SOL    HW1 2673   1.886   5.195  13.045
  278SOL    HW2 2674   1.865   5.046  13.060
  279SOL     OW 2675   8.152   2.526   8.079
  279SOL    HW1 2676   8.173   2.456   8.140
  279SOL    HW2 2677   8.067   2.501   8.041
  280SOL     OW 2678   9.220   3.384  10.743
  280SOL    HW1 2679   9.302   3.354  10.704
  280SOL    HW2 2680   9.230   3.479  10.750
  281SOL     OW 2681   6.762  12.669   3.352
  281SOL    HW1 2682   6.744  12.576   3.340
  281SOL    HW2 2683   6.736  12.688   3.442
  282SOL     OW 2684   0.735   5.752   9.289
  282SOL    HW1 2685   0.708   5.842   9.271
  282SOL    HW2 2686   0.696   5.732   9.374
  283SOL     OW 2687   9.869   1.896   7.332
  283SOL    HW1 2688   9.858   1.801   7.328
  283SOL    HW2 2689   9.814   1.924   7.405
  284SOL     OW 2690  14.190  10.945  11.682
  284SOL    HW1 2691  14.138  10.982  11.611
  284SOL    HW2 2692  14.259  11.009  11.698
  285SOL     OW 2693   8.303   1.969  14.166
  285SOL    HW1 2694   8.315   1.876  14.145
  285SOL    HW2 2695   8.288   2.010  14.081
  286SOL     OW 2696   5.855   6.807   3.081
  286SOL    HW1 2697   5.940   6.763   3.073
  286SOL    HW2 2698   5.875   6.890   3.123
  287SOL     OW 2699   6.683   9.312  13.150
  287SOL    HW1 2700   6.628   9.375  13.104
  287SOL    HW2 2701   6.772   9.335  13.123
  288SOL     OW 2702   1.424   5.465   7.029
  288SOL    HW1 2703   1.395   5.543   7.077
  288SOL    HW2 2704   1.451   5.404   7.098
  289SOL     OW 2705   8.752   4.036   2.625
  289SOL    HW1 2706   8.737   4.117   2.576
  289SOL    HW2 2707   8.763   4.064   2.715
  290SOL     OW 2708   3.177  10.850  11.852
  290SOL    HW1 2709   3.171  10.782  11.785
  290SOL    HW2 2710   3.271  10.860  11.868
  291SOL     OW 2711   8.087  14.646   2.526
  291SOL    HW1 2712   8.146  14.649   2.450
  291SOL    HW2 2713   8.143  14.671   2.600
  292SOL     OW 2714   1.490   8.692   4.923
  292SOL    HW1 2715   1.577   8.661   4.950
  292SOL    HW2 2716   1.460   8.625   4.861
  293SOL     OW 2717  12.478   9.001   7.823
  293SOL    HW1 2718  12.484   9.010   7.728
  293SOL    HW2 2719  12.455   9.089   7.854
  294SOL     OW 2720  11.486  14.448   9.378
  294SOL    HW1 2721  11.551  14.420   9.314
  294SOL    HW2 2722  11.489  14.544   9.375
  295SOL     OW 2723   4.150   8.758   2.331
  295SOL    HW1 2724   4.213   8.689   2.352
  295SOL    HW2 2725   4.201   8.824   2.285
  296SOL     OW 2726   5.355   5.166   6.271
  296SOL    HW1 2727   5.400   5.141   6.352
  296SOL    HW2 2728   5.359   5.262   6.270
  297SOL     OW 2729  11.174   1.772   7.925
  297SOL    HW1 2730  11.207   1.689   7.960
  297SOL    HW2 2731  11.185   1.764   7.830
  298SOL     OW 2732   8.230   7.217  11.638
  298SOL    HW1 2733   8.178   7.194  11.561
  298SOL    HW2 2734   8.320   7.194  11.615
  299SOL     OW 2735   9.436  12.883   1.647
  299SOL    HW1 2736   9.511  12.826   1.630
  299SOL    HW2 2737   9.362  12.838   1.607
  300SOL     OW 2738  14.250   8.543   1.820
  300SOL    HW1 2739  14.345   8.535   1.809
  300SOL    HW2 2740  14.215   8.529   1.732
  301SOL     OW 2741   7.790   6.271   4.752
  301SOL    HW1 2742   7.732   6.215   4.701
  301SOL    HW2 2743   7.789   6.233   4.840
  302SOL     OW 2744   7.826   0.417   5.778
  302SOL    HW1 2745   7.788   0.338   5.816
  302SOL    HW2 2746   7.802   0.487   5.839
  303SOL     OW 2747   0.335   2.391   8.895
  303SOL    HW1 2748   0.265   2.434   8.847
  303SOL    HW2 2749   0.373   2.329   8.832
  304SOL     OW 2750  13.514  14.813   7.745
  304SOL    HW1 2751  13.491  14.751   7.815
  304SOL    HW2 2752  13.468   0.012   7.768
  305SOL     OW 2753   2.567   2.626  13.152
  305SOL    HW1 2754   2.526   2.611  13.066
  305SOL    HW2 2755   2.641   2.684  13.133
  306SOL     OW 2756  14.040   6.825   0.692
  306SOL    HW1 2757  14.030   6.746   0.744
  306SOL    HW2 2758  14.075   6.795   0.608
  307SOL     OW 2759  11.922   4.526  12.423
  307SOL    HW1 2760  11.977   4.460  12.381
  307SOL    HW2 2761  11.853   4.545  12.360
  308SOL     OW 2762  12.332   4.207  10.301
  308SOL    HW1 2763  12.412   4.235  10.344
  308SOL    HW2 2764  12.289   4.150  10.365
  309SOL     OW 2765  13.182  10.573   7.995
  309SOL    HW1 2766  13.212  10.619   8.073
  309SOL    HW2 2767  13.261  10.537   7.955
  310SOL     OW 2768   1.327   3.028   9.378
  310SOL    HW1 2769   1.404   2.983   9.413
  310SOL    HW2 2770   1.255   3.001   9.435
  311SOL     OW 2771  12.933   0.151   6.841
  311SOL    HW1 2772  12.988   0.161   6.919
  311SOL    HW2 2773  12.981   0.197   6.772
  312SOL     OW 2774   1.723   3.984   9.642
  312SOL    HW1 2775   1.720   4.001   9.547
  312SOL    HW2 2776   1.737   3.890   9.649
  313SOL     OW 2777   7.497   4.196   0.804
  313SOL    HW1 2778   7.427   4.161   0.859
  313SOL    HW2 2779   7.491   4.291   0.815
  314SOL     OW 2780   1.613   5.734  11.333
  314SOL    HW1 2781   1.690   5.740  11.391
  314SOL    HW2 2782   1.650   5.732  11.245
  315SOL     OW 2783   1.156   9.884   2.672
  315SOL    HW1 2784   1.205   9.965   2.659
  315SOL    HW2 2785   1.099   9.877   2.595
  316SOL     OW 2786   9.070   4.792  11.199
  316SOL    HW1 2787   9.025   4.758  11.121
  316SOL    HW2 2788   9.142   4.731  11.213
  317SOL     OW 2789   8.360   0.122   0.761
  317SOL    HW1 2790   8.295   0.138   0.694
  317SOL    HW2 2791   8.325   0.163   0.840
  318SOL     OW 2792  12.738   1.258   5.902
  318SOL    HW1 2793  12.773   1.199   5.969
  318SOL    HW2 2794  12.812   1.313   5.878
  319SOL     OW 2795   7.987   8.911   3.209
  319SOL    HW1 2796   7.958   9.002   3.214
  319SOL    HW2 2797   7.975   8.877   3.298
  320SOL     OW 2798   3.759   6.914  12.327
  320SOL    HW1 2799   3.736   7.000  12.292
  320SOL    HW2 2800   3.852   6.903  12.304
  321SOL     OW 2801  10.533  13.622  13.378
  321SOL    HW1 2802  10.587  13.630  13.299
  321SOL    HW2 2803  10.508  13.712  13.399
  322SOL     OW 2804  11.479  12.166   8.229
  322SOL    HW1 2805  11.543  12.105   8.268
  322SOL    HW2 2806  11.485  12.149   8.135
  323SOL     OW 2807   8.121   2.316   2.562
  323SOL    HW1 2808   8.053   2.258   2.596
  323SOL    HW2 2809   8.073   2.389   2.524
  324SOL     OW 2810   0.979  12.177  14.879
  324SOL    HW1 2811   0.948  12.088  14.865
  324SOL    HW2 2812   0.976  12.217  14.792
  325SOL     OW 2813   0.638   2.203  10.116
  325SOL    HW1 2814   0.633   2.240  10.028
  325SOL    HW2 2815   0.558   2.152  10.125
  326SOL     OW 2816   2.090   7.817   4.380
  326SOL    HW1 2817   2.077   7.729   4.414
  326SOL    HW2 2818   2.161   7.808   4.316
  327SOL     OW 2819   9.013   3.890  11.337
  327SOL    HW1 2820   9.021   3.985  11.339
  327SOL    HW2 2821   9.054   3.864  11.254
  328SOL     OW 2822   5.310   6.759  11.610
  328SOL    HW1 2823   5.392   6.768  11.659
  328SOL    HW2 2824   5.279   6.849  11.596
  329SOL     OW 2825  10.841   8.656   8.761
  329SOL    HW1 2826  10.935   8.676   8.765
  329SOL    HW2 2827  10.831   8.609   8.678
  330SOL     OW 2828  12.420  14.245  14.408
  330SOL    HW1 2829  12.333  14.268  14.376
  330SOL    HW2 2830  12.410  14.237  14.503
  331SOL     OW 2831   9.127  12.542   5.979
  331SOL    HW1 2832   9.132  12.626   5.934
  331SOL    HW2 2833   9.034  12.528   5.994
  332SOL     OW 2834   2.773   7.509   7.612
  332SOL    HW1 2835   2.838   7.522   7.543
  332SOL    HW2 2836   2.691   7.491   7.564
  333SOL     OW 2837   1.478   9.664   0.716
  333SOL    HW1 2838   1.528   9.583   0.713
  333SOL    HW2 2839   1.541   9.730   0.746
  334SOL     OW 2840   8.335   8.802   0.789
  334SOL    HW1 2841   8.289   8.829   0.710
  334SOL    HW2 2842   8.377   8.719   0.765
  335SOL     OW 2843   8.117   9.573   4.242
  335SOL    HW1 2844   8.137   9.597   4.152
  335SOL    HW2 2845   8.156   9.486   4.253
  336SOL     OW 2846   9.972   2.515  13.291
  336SOL    HW1 2847  10.047   2.463  13.263
  336SOL    HW2 2848   9.988   2.602  13.256
  337SOL     OW 2849  10.453   6.831  11.636
  337SOL    HW1 2850  10.476   6.774  11.563
  337SOL    HW2 2851  10.357   6.837  11.633
  338SOL     OW 2852   3.808   6.608   3.651
  338SOL    HW1 2853   3.838   6.527   3.612
  338SOL    HW2 2854   3.714   6.609   3.636
  339SOL     OW 2855  14.447   5.344   4.016
  339SOL    HW1 2856  14.541   5.331   4.013
  339SOL    HW2 2857  14.435   5.438   3.998
  340SOL     OW 2858   3.586   9.378  10.585
  340SOL    HW1 2859   3.568   9.359  10.678
  340SOL    HW2 2860   3.505   9.418  10.553
  341SOL     OW 2861   4.685   6.081   1.452
  341SOL    HW1 2862   4.649   6.042   1.532
  341SOL    HW2 2863   4.722   6.165   1.481
  342SOL     OW 2864   4.341  11.679   9.809
  342SOL    HW1 2865   4.403  11.633   9.865
  342SOL    HW2 2866   4.310  11.612   9.748
  343SOL     OW 2867  13.507   8.911   0.048
  343SOL    HW1 2868  13.484   8.903  14.838
  343SOL    HW2 2869  13.527   8.821   0.076
  344SOL     OW 2870   2.788   4.089   4.248
  344SOL    HW1 2871   2.758   4.074   4.158
  344SOL    HW2 2872   2.842   4.168   4.243
  345SOL     OW 2873   7.530   7.772  12.491
  345SOL    HW1 2874   7.531   7.744  12.582
  345SOL    HW2 2875   7.442   7.753  12.460
  346SOL     OW 2876   4.665  13.132  10.666
  346SOL    HW1 2877   4.587  13.076  10.660
  346SOL    HW2 2878   4.631  13.221  10.670
  347SOL     OW 2879   2.632  10.329  14.780
  347SOL    HW1 2880   2.566  10.395  14.803
  347SOL    HW2 2881   2.652  10.285  14.863
  348SOL     OW 2882   9.344   9.899   8.308
  348SOL    HW1 2883   9.297   9.981   8.324
  348SOL    HW2 2884   9.287   9.831   8.345
  349SOL     OW 2885   2.021  11.509   9.260
  349SOL    HW1 2886   2.086  11.551   9.316
  349SOL    HW2 2887   1.954  11.576   9.247
  350SOL     OW 2888   0.939  11.584   4.385
  350SOL    HW1 2889   0.905  11.571   4.297
  350SOL    HW2 2890   0.899  11.514   4.437
  351SOL     OW 2891  14.678  13.689   6.072
  351SOL    HW1 2892  14.704  13.600   6.097
  351SOL    HW2 2893  14.617  13.716   6.140
  352SOL     OW 2894   7.804   6.552   4.859
  352SOL    HW1 2895   7.807   6.480   4.796
  352SOL    HW2 2896   7.896   6.573   4.875
  353SOL     OW 2897   2.590   2.127   1.651
  353SOL    HW1 2898   2.673   2.173   1.636
  353SOL    HW2 2899   2.528   2.196   1.673
  354SOL     OW 2900  10.527   2.214   0.272
  354SOL    HW1 2901  10.577   2.234   0.193
  354SOL    HW2 2902  10.472   2.292   0.285
  355SOL     OW 2903   9.668   8.089   8.286
  355SOL    HW1 2904   9.746   8.038   8.264
  355SOL    HW2 2905   9.689   8.130   8.370
  356SOL     OW 2906   9.236   6.066   0.224
  356SOL    HW1 2907   9.179   6.029   0.156
  356SOL    HW2 2908   9.210   6.020   0.304
  357SOL     OW 2909  11.075  13.510   0.331
  357SOL    HW1 2910  11.153  13.470   0.293
  357SOL    HW2 2911  11.097  13.603   0.341
  358SOL     OW 2912   0.255   6.315  11.479
  358SOL    HW1 2913   0.202   6.275  11.549
  358SOL    HW2 2914   0.197   6.315  11.402
  359SOL     OW 2915   1.282   2.054   6.536
  359SOL    HW1 2916   1.322   2.102   6.609
  359SOL    HW2 2917   1.192   2.087   6.533
  360SOL     OW 2918   9.873   0.493   4.365
  360SOL    HW1 2919   9.969   0.492   4.365
  360SOL    HW2 2920   9.849   0.510   4.273
  361SOL     OW 2921   0.556  10.229  14.543
  361SOL    HW1 2922   0.558  10.279  14.462
  361SOL    HW2 2923   0.646  10.202  14.558
  362SOL     OW 2924   3.096   7.258   1.631
  362SOL    HW1 2925   3.135   7.225   1.712
  362SOL    HW2 2926   3.158   7.324   1.600
  363SOL     OW 2927   2.310   4.803   3.345
  363SOL    HW1 2928   2.279   4.877   3.397
  363SOL    HW2 2929   2.397   4.831   3.315
  364SOL     OW 2930   6.405  12.267   0.272
  364SOL    HW1 2931   6.329  12.209   0.271
  364SOL    HW2 2932   6.425  12.282   0.180
  365SOL     OW 2933   7.396  12.742   7.985
  365SOL    HW1 2934   7.346  12.730   8.065
  365SOL    HW2 2935   7.329  12.741   7.915
  366SOL     OW 2936  13.618  14.054  13.896
  366SOL    HW1 2937  13.703  14.014  13.876
  366SOL    HW2 2938  13.611  14.048  13.991
  367SOL     OW 2939  11.167  13.427   3.297
  367SOL    HW1 2940  11.141  13.367   3.367
  367SOL    HW2 2941  11.252  13.462   3.326
  368SOL     OW 2942  13.386   7.556   7.502
  368SOL    HW1 2943  13.390   7.634   7.558
  368SOL    HW2 2944  13.402   7.588   7.414
  369SOL     OW 2945   8.555   5.465  14.189
  369SOL    HW1 2946   8.587   5.386  14.145
  369SOL    HW2 2947   8.481   5.436  14.241
  370SOL     OW 2948   5.707   7.435   0.430
  370SOL    HW1 2949   5.739   7.351   0.396
  370SOL    HW2 2950   5.779   7.467   0.485
  371SOL     OW 2951  10.311   5.144   2.569
  371SOL    HW1 2952  10.386   5.135   2.510
  371SOL    HW2 2953  10.250   5.075   2.542
  372SOL     OW 2954   7.181   1.312   3.658
  372SOL    HW1 2955   7.242   1.238   3.660
  372SOL    HW2 2956   7.096   1.272   3.638
  373SOL     OW 2957  13.128  10.121   3.679
  373SOL    HW1 2958  13.187  10.171   3.735
  373SOL    HW2 2959  13.146  10.030   3.700
  374SOL     OW 2960  14.075   1.575   4.753
  374SOL    HW1 2961  14.047   1.575   4.661
  374SOL    HW2 2962  14.006   1.527   4.799
  375SOL     OW 2963   4.855   3.728   3.317
  375SOL    HW1 2964   4.819   3.799   3.371
  375SOL    HW2 2965   4.822   3.747   3.229
  376SOL     OW 2966  10.520  14.839  13.469
  376SOL    HW1 2967  10.487   0.039  13.506
  376SOL    HW2 2968  10.559  14.793  13.543
  377SOL     OW 2969   5.782  10.033   4.473
  377SOL    HW1 2970   5.868  10.073   4.483
  377SOL    HW2 2971   5.736  10.054   4.554
  378SOL     OW 2972   9.426   9.855   3.265
  378SOL    HW1 2973   9.348   9.835   3.213
  378SOL    HW2 2974   9.491   9.790   3.237
  379SOL     OW 2975   6.945   2.569   3.783
  379SOL    HW1 2976   6.947   2.655   3.740
  379SOL    HW2 2977   6.948   2.507   3.710
  380SOL     OW 2978  14.425   4.707  14.116
  380SOL    HW1 2979  14.499   4.766  14.102
  380SOL    HW2 2980  14.451   4.653  14.191
  381SOL     OW 2981   0.702   4.752   1.347
  381SOL    HW1 2982   0.639   4.715   1.286
  381SOL    HW2 2983   0.679   4.716   1.432
  382SOL     OW 2984   9.779  12.637   7.786
  382SOL    HW1 2985   9.810  12.723   7.816
  382SOL    HW2 2986   9.712  12.613   7.851
  383SOL     OW 2987  13.979  10.120   2.642
  383SOL    HW1 2988  14.046  10.093   2.580
  383SOL    HW2 2989  14.011  10.091   2.728
  384SOL     OW 2990   4.811   1.941  13.201
  384SOL    HW1 2991   4.867   2.002  13.153
  384SOL    HW2 2992   4.735   1.993  13.227
  385SOL     OW 2993   7.320   3.347  10.157
  385SOL    HW1 2994   7.355   3.407  10.091
  385SOL    HW2 2995   7.389   3.283  10.171
  386SOL     OW 2996  13.786   0.288   2.479
  386SOL    HW1 2997  13.769   0.236   2.557
  386SOL    HW2 2998  13.801   0.224   2.410
  387SOL     OW 2999  13.385  10.984   3.309
  387SOL    HW1 3000  13.474  10.971   3.276
  387SOL    HW2 3001  13.373  11.079   3.310
  388SOL     OW 3002   4.085   2.733   1.136
  388SOL    HW1 3003   4.137   2.743   1.056
  388SOL    HW2 3004   4.057   2.823   1.157
  389SOL     OW 3005   8.540  10.259   9.716
  389SOL    HW1 3006   8.594  10.186   9.746
  389SOL    HW2 3007   8.582  10.337   9.753
  390SOL     OW 3008  11.747   0.967   9.688
  390SOL    HW1 3009  11.669   0.951   9.636
  390SOL    HW2 3010  11.751   1.063   9.697
  391SOL     OW 3011   7.530  10.087   7.629
  391SOL    HW1 3012   7.560  10.178   7.625
  391SOL    HW2 3013   7.503  10.075   7.720
  392SOL     OW 3014   2.350  11.909   4.041
  392SOL    HW1 3015   2.382  11.844   4.104
  392SOL    HW2 3016   2.267  11.873   4.009
  393SOL     OW 3017  10.889   5.382   3.168
  393SOL    HW1 3018  10.910   5.361   3.077
  393SOL    HW2 3019  10.855   5.471   3.166
  394SOL     OW 3020  13.238   6.995  13.768
  394SOL    HW1 3021  13.273   6.906  13.759
  394SOL    HW2 3022  13.315   7.051  13.765
  395SOL     OW 3023   8.945   5.710   7.875
  395SOL    HW1 3024   8.868   5.700   7.930
  395SOL    HW2 3025   8.980   5.796   7.897
  396SOL     OW 3026  11.680  12.960   6.778
  396SOL    HW1 3027  11.685  12.897   6.850
  396SOL    HW2 3028  11.697  13.045   6.819
  397SOL     OW 3029   7.291   6.480   8.410
  397SOL    HW1 3030   7.225   6.534   8.455
  397SOL    HW2 3031   7.350   6.543   8.370
  398SOL     OW 3032  12.384   8.871   0.301
  398SOL    HW1 3033  12.435   8.899   0.225
  398SOL    HW2 3034  12.444   8.881   0.375
  399SOL     OW 3035   5.023   8.974   7.996
  399SOL    HW1 3036   4.984   8.906   7.940
  399SOL    HW2 3037   5.048   8.928   8.076
  400SOL     OW 3038   1.527  13.867   8.536
  400SOL    HW1 3039   1.473  13.857   8.458
  400SOL    HW2 3040   1.603  13.810   8.520
  401SOL     OW 3041   6.885  10.661   0.840
  401SOL    HW1 3042   6.943  10.597   0.798
  401SOL    HW2 3043   6.937  10.740   0.849
  402SOL     OW 3044  10.752  11.577  12.011
  402SOL    HW1 3045  10.744  11.641  12.082
  402SOL    HW2 3046  10.763  11.493  12.057
  403SOL     OW 3047   2.570   4.309   1.370
  403SOL    HW1 3048   2.498   4.253   1.398
  403SOL    HW2 3049   2.530   4.372   1.310
  404SOL     OW 3050   0.898  13.838   4.565
  404SOL    HW1 3051   0.943  13.911   4.523
  404SOL    HW2 3052   0.954  13.814   4.639
  405SOL     OW 3053   9.147   1.030   3.832
  405SOL    HW1 3054   9.146   1.101   3.768
  405SOL    HW2 3055   9.070   1.045   3.886
  406SOL     OW 3056   6.975  13.199   1.478
  406SOL    HW1 3057   7.040  13.129   1.471
  406SOL    HW2 3058   7.027  13.278   1.492
  407SOL     OW 3059   0.032   1.885  13.265
  407SOL    HW1 3060  14.861   1.872  13.344
  407SOL    HW2 3061   0.114   1.924  13.297
  408SOL     OW 3062   7.818   9.551  10.182
  408SOL    HW1 3063   7.825   9.555  10.087
  408SOL    HW2 3064   7.754   9.619  10.204
  409SOL     OW 3065   5.292   7.818  13.278
  409SOL    HW1 3066   5.325   7.729  13.272
  409SOL    HW2 3067   5.366   7.873  13.251
  410SOL     OW 3068  11.612   8.636  10.377
  410SOL    HW1 3069  11.530   8.684  10.390
  410SOL    HW2 3070  11.640   8.660  10.289
  411SOL     OW 3071  13.372   0.098   8.918
  411SOL    HW1 3072  13.411   0.185   8.906
  411SOL    HW2 3073  13.429   0.040   8.867
  412SOL     OW 3074  14.464   7.924  14.002
  412SOL    HW1 3075  14.525   7.995  14.021
  412SOL    HW2 3076  14.457   7.922  13.907
  413SOL     OW 3077  11.230   8.873   6.573
  413SOL    HW1 3078  11.216   8.817   6.497
  413SOL    HW2 3079  11.322   8.899   6.567
  414SOL     OW 3080   1.243   1.403   6.450
  414SOL    HW1 3081   1.283   1.478   6.406
  414SOL    HW2 3082   1.199   1.354   6.381
  415SOL     OW 3083  14.755   7.274   0.947
  415SOL    HW1 3084  14.675   7.239   0.907
  415SOL    HW2 3085  14.826   7.239   0.894
  416SOL     OW 3086  14.069  11.849   2.287
  416SOL    HW1 3087  14.130  11.885   2.223
  416SOL    HW2 3088  14.125  11.822   2.361
  417SOL     OW 3089  12.442   9.591   7.800
  417SOL    HW1 3090  12.537   9.602   7.807
  417SOL    HW2 3091  12.431   9.502   7.765
  418SOL     OW 3092   4.060  11.386   4.189
  418SOL    HW1 3093   4.154  11.385   4.169
  418SOL    HW2 3094   4.054  11.340   4.273
  419SOL     OW 3095  14.298  11.426   9.849
  419SOL    HW1 3096  14.357  11.444   9.775
  419SOL    HW2 3097  14.221  11.481   9.831
  420SOL     OW 3098  10.023   3.450  10.161
  420SOL    HW1 3099  10.013   3.367  10.209
  420SOL    HW2 3100  10.109   3.482  10.188
  421SOL     OW 3101   1.716   8.920   1.545
  421SOL    HW1 3102   1.715   8.830   1.511
  421SOL    HW2 3103   1.807   8.949   1.533
  422SOL     OW 3104  10.018   4.638   7.418
  422SOL    HW1 3105  10.073   4.563   7.440
  422SOL    HW2 3106  10.079   4.710   7.403
  423SOL     OW 3107   1.109  11.712  13.119
  423SOL    HW1 3108   1.020  11.678  13.135
  423SOL    HW2 3109   1.109  11.735  13.026
  424SOL     OW 3110  11.665   1.646  10.781
  424SOL    HW1 3111  11.665   1.592  10.702
  424SOL    HW2 3112  11.696   1.587  10.850
  425SOL     OW 3113  10.610   6.844   6.323
  425SOL    HW1 3114  10.690   6.796   6.303
  425SOL    HW2 3115  10.624   6.930   6.282
  426SOL     OW 3116   8.868   5.237   5.116
  426SOL    HW1 3117   8.942   5.178   5.130
  426SOL    HW2 3118   8.793   5.191   5.153
  427SOL     OW 3119   3.744  12.397   7.348
  427SOL    HW1 3120   3.791  12.417   7.429
  427SOL    HW2 3121   3.802  12.426   7.278
  428SOL     OW 3122  13.015   6.628  11.003
  428SOL    HW1 3123  13.097   6.588  11.032
  428SOL    HW2 3124  12.987   6.682  11.077
  429SOL     OW 3125  14.032  12.470  12.033
  429SOL    HW1 3126  14.102  12.407  12.017
  429SOL    HW2 3127  14.013  12.463  12.126
  430SOL     OW 3128   4.026   5.551   6.123
  430SOL    HW1 3129   4.061   5.637   6.099
  430SOL    HW2 3130   3.993   5.562   6.212
  431SOL     OW 3131  13.084   1.011   1.693
  431SOL    HW1 3132  13.104   0.979   1.781
  431SOL    HW2 3133  13.077   1.106   1.704
  432SOL     OW 3134   2.773  14.345  12.122
  432SOL    HW1 3135   2.719  14.342  12.201
  432SOL    HW2 3136   2.859  14.376  12.152
  433SOL     OW 3137  12.810   6.389  14.080
  433SOL    HW1 3138  12.720   6.368  14.104
  433SOL    HW2 3139  12.860   6.378  14.161
  434SOL     OW 3140  13.436   8.844   4.097
  434SOL    HW1 3141  13.376   8.797   4.040
  434SOL    HW2 3142  13.521   8.838   4.054
  435SOL     OW 3143   4.703  12.310   4.013
  435SOL    HW1 3144   4.708  12.404   4.030
  435SOL    HW2 3145   4.679  12.271   4.097
  436SOL     OW 3146   1.155  11.786   3.909
  436SOL    HW1 3147   1.160  11.718   3.977
  436SOL    HW2 3148   1.237  11.835   3.918
  437SOL     OW 3149   1.543   7.647  11.011
  437SOL    HW1 3150   1.491   7.575  10.974
  437SOL    HW2 3151   1.478   7.710  11.042
  438SOL     OW 3152   0.362   5.238   3.673
  438SOL    HW1 3153   0.418   5.160   3.671
  438SOL    HW2 3154   0.307   5.230   3.595
  439SOL     OW 3155   1.442   6.078  14.030
  439SOL    HW1 3156   1.373   6.122  14.079
  439SOL    HW2 3157   1.491   6.029  14.096
  440SOL     OW 3158  11.759   4.894   4.766
  440SOL    HW1 3159  11.769   4.945   4.686
  440SOL    HW2 3160  11.679   4.843   4.752
  441SOL     OW 3161   9.789   8.481  11.748
  441SOL    HW1 3162   9.756   8.523  11.669
  441SOL    HW2 3163   9.799   8.389  11.724
  442SOL     OW 3164  12.261   7.599  10.767
  442SOL    HW1 3165  12.219   7.615  10.682
  442SOL    HW2 3166  12.348   7.565  10.745
  443SOL     OW 3167   7.791   3.480  13.391
  443SOL    HW1 3168   7.878   3.461  13.424
  443SOL    HW2 3169   7.732   3.444  13.457
  444SOL     OW 3170   4.376   8.594   4.358
  444SOL    HW1 3171   4.426   8.597   4.277
  444SOL    HW2 3172   4.290   8.561   4.331
  445SOL     OW 3173  14.491   5.950  14.570
  445SOL    HW1 3174  14.584   5.954  14.591
  445SOL    HW2 3175  14.483   5.994  14.486
  446SOL     OW 3176   0.831   0.549  14.035
  446SOL    HW1 3177   0.773   0.477  14.010
  446SOL    HW2 3178   0.772   0.620  14.060
  447SOL     OW 3179   0.622   7.896   0.890
  447SOL    HW1 3180   0.633   7.930   0.801
  447SOL    HW2 3181   0.679   7.951   0.944
  448SOL     OW 3182   3.160   4.494   9.376
  448SOL    HW1 3183   3.123   4.572   9.335
  448SOL    HW2 3184   3.103   4.477   9.451
  449SOL     OW 3185   2.739   4.000  12.707
  449SOL    HW1 3186   2.670   3.957  12.757
  449SOL    HW2 3187   2.793   3.928  12.673
  450SOL     OW 3188   1.923   2.392   5.228
  450SOL    HW1 3189   1.935   2.348   5.144
  450SOL    HW2 3190   1.936   2.485   5.210
  451SOL     OW 3191   4.750  11.757   7.172
  451SOL    HW1 3192   4.834  11.769   7.128
  451SOL    HW2 3193   4.701  11.700   7.112
  452SOL     OW 3194   4.436   5.432   9.389
  452SOL    HW1 3195   4.456   5.461   9.479
  452SOL    HW2 3196   4.480   5.348   9.381
  453SOL     OW 3197   7.837  14.845   5.410
  453SOL    HW1 3198   7.930  14.863   5.400
  453SOL    HW2 3199   7.794   0.021   5.347
  454SOL     OW 3200  12.191   3.636  11.417
  454SOL    HW1 3201  12.182   3.619  11.324
  454SOL    HW2 3202  12.244   3.563  11.449
  455SOL     OW 3203  10.019  14.065  13.175
  455SOL    HW1 3204   9.941  14.109  13.208
  455SOL    HW2 3205  10.073  14.135  13.139
  456SOL     OW 3206   1.154   0.639   5.340
  456SOL    HW1 3207   1.196   0.681   5.415
  456SOL    HW2 3208   1.152   0.546   5.361
  457SOL     OW 3209  11.223  13.437   6.885
  457SOL    HW1 3210  11.139  13.469   6.919
  457SOL    HW2 3211  11.199  13.370   6.821
  458SOL     OW 3212   8.457   6.441  12.295
  458SOL    HW1 3213   8.543   6.416  12.262
  458SOL    HW2 3214   8.421   6.500  12.229
  459SOL     OW 3215   3.749   8.062   5.440
  459SOL    HW1 3216   3.817   8.115   5.398
  459SOL    HW2 3217   3.676   8.122   5.454
  460SOL     OW 3218   4.783   5.696  14.863
  460SOL    HW1 3219   4.858   5.703   0.041
  460SOL    HW2 3220   4.758   5.604  14.866
  461SOL     OW 3221   5.946  13.748   2.793
  461SOL    HW1 3222   5.888  13.672   2.786
  461SOL    HW2 3223   5.888  13.820   2.817
  462SOL     OW 3224   6.978   6.852   1.836
  462SOL    HW1 3225   6.916   6.824   1.903
  462SOL    HW2 3226   6.965   6.790   1.764
  463SOL     OW 3227   4.616   5.384   5.417
  463SOL    HW1 3228   4.545   5.433   5.374
  463SOL    HW2 3229   4.583   5.294   5.420
  464SOL     OW 3230  13.461  13.500   6.304
  464SOL    HW1 3231  13.367  13.495   6.287
  464SOL    HW2 3232  13.467  13.534   6.394
  465SOL     OW 3233  10.474   5.191  14.538
  465SOL    HW1 3234  10.418   5.218  14.465
  465SOL    HW2 3235  10.559   5.174  14.497
  466SOL     OW 3236   3.271   7.079   1.856
  466SOL    HW1 3237   3.359   7.062   1.890
  466SOL    HW2 3238   3.236   6.992   1.836
  467SOL     OW 3239   9.555   0.147   0.959
  467SOL    HW1 3240   9.470   0.155   0.914
  467SOL    HW2 3241   9.572   0.234   0.995
  468SOL     OW 3242   6.906  10.373   2.800
  468SOL    HW1 3243   6.841  10.369   2.870
  468SOL    HW2 3244   6.866  10.327   2.727
  469SOL     OW 3245   9.837   6.540   4.258
  469SOL    HW1 3246   9.765   6.481   4.280
  469SOL    HW2 3247   9.795   6.623   4.238
  470SOL     OW 3248   5.678  11.924   0.214
  470SOL    HW1 3249   5.632  11.843   0.191
  470SOL    HW2 3250   5.753  11.895   0.266
  471SOL     OW 3251   6.955   0.119  12.174
  471SOL    HW1 3252   7.003   0.200  12.192
  471SOL    HW2 3253   6.876   0.147  12.128
  472SOL     OW 3254  13.988   4.527   9.993
  472SOL    HW1 3255  13.952   4.536   9.905
  472SOL    HW2 3256  13.996   4.433  10.006
  473SOL     OW 3257   8.285   1.845  10.519
  473SOL    HW1 3258   8.249   1.934  10.515
  473SOL    HW2 3259   8.293   1.818  10.428
  474SOL     OW 3260   1.301   2.249  13.413
  474SOL    HW1 3261   1.367   2.303  13.455
  474SOL    HW2 3262   1.349   2.196  13.350
  475SOL     OW 3263   1.848   7.097   7.904
  475SOL    HW1 3264   1.788   7.026   7.927
  475SOL    HW2 3265   1.884   7.125   7.988
  476SOL     OW 3266  10.594   0.323  13.854
  476SOL    HW1 3267  10.514   0.272  13.866
  476SOL    HW2 3268  10.610   0.320  13.760
  477SOL     OW 3269  14.052   9.309  10.683
  477SOL    HW1 3270  14.053   9.384  10.743
  477SOL    HW2 3271  14.059   9.233  10.740
  478SOL     OW 3272   8.188   3.905  10.274
  478SOL    HW1 3273   8.205   3.817  10.240
  478SOL    HW2 3274   8.120   3.941  10.216
  479SOL     OW 3275   7.627   3.985   7.496
  479SOL    HW1 3276   7.554   3.924   7.504
  479SOL    HW2 3277   7.671   3.982   7.580
  480SOL     OW 3278  14.021   4.090   4.595
  480SOL    HW1 3279  14.106   4.046   4.587
  480SOL    HW2 3280  13.993   4.072   4.684
  481SOL     OW 3281  12.273   6.553   3.914
  481SOL    HW1 3282  12.184   6.577   3.889
  481SOL    HW2 3283  12.268   6.462   3.940
  482SOL     OW 3284   6.832  13.145   7.353
  482SOL    HW1 3285   6.899  13.168   7.418
  482SOL    HW2 3286   6.759  13.204   7.373
  483SOL     OW 3287   2.133   1.543   7.486
  483SOL    HW1 3288   2.075   1.519   7.558
  483SOL    HW2 3289   2.217   1.560   7.528
  484SOL     OW 3290  13.879   4.771   3.135
  484SOL    HW1 3291  13.955   4.714   3.147
  484SOL    HW2 3292  13.868   4.814   3.220
  485SOL     OW 3293   1.762  12.204   6.155
  485SOL    HW1 3294   1.701  12.272   6.182
  485SOL    HW2 3295   1.737  12.127   6.206
  486SOL     OW 3296  12.527   5.907   3.964
  486SOL    HW1 3297  12.575   5.914   4.046
  486SOL    HW2 3298  12.537   5.816   3.938
  487SOL     OW 3299   6.431   7.846   3.693
  487SOL    HW1 3300   6.435   7.909   3.621
  487SOL    HW2 3301   6.374   7.887   3.757
  488SOL     OW 3302   2.696   6.247  13.887
  488SOL    HW1 3303   2.647   6.231  13.968
  488SOL    HW2 3304   2.779   6.203  13.900
  489SOL     OW 3305   0.545  12.596   5.422
  489SOL    HW1 3306   0.627  12.623   5.381
  489SOL    HW2 3307   0.564  12.510   5.460
  490SOL     OW 3308   3.796   9.321   1.791
  490SOL    HW1 3309   3.857   9.321   1.717
  490SOL    HW2 3310   3.712   9.296   1.753
  491SOL     OW 3311  10.293   3.482  11.655
  491SOL    HW1 3312  10.258   3.492  11.566
  491SOL    HW2 3313  10.383   3.515  11.649
  492SOL     OW 3314   3.300  14.251  12.343
  492SOL    HW1 3315   3.284  14.298  12.425
  492SOL    HW2 3316   3.306  14.159  12.369
  493SOL     OW 3317   0.344   2.459   9.474
  493SOL    HW1 3318   0.280   2.471   9.544
  493SOL    HW2 3319   0.291   2.442   9.396
  494SOL     OW 3320  14.677   2.145   6.326
  494SOL    HW1 3321  14.705   2.121   6.415
  494SOL    HW2 3322  14.634   2.230   6.337
  495SOL     OW 3323   4.433   7.700   2.212
  495SOL    HW1 3324   4.378   7.757   2.157
  495SOL    HW2 3325   4.373   7.663   2.276
  496SOL     OW 3326   8.758   0.517  14.525
  496SOL    HW1 3327   8.808   0.585  14.480
  496SOL    HW2 3328   8.704   0.478  14.456
  497SOL     OW 3329  10.116   5.972   7.956
  497SOL    HW1 3330  10.176   6.032   8.000
  497SOL    HW2 3331  10.032   6.018   7.954
  498SOL     OW 3332   8.804  13.266   2.195
  498SOL    HW1 3333   8.740  13.333   2.216
  498SOL    HW2 3334   8.753  13.195   2.156
  499SOL     OW 3335   9.816   3.648  11.578
  499SOL    HW1 3336   9.827   3.737  11.610
  499SOL    HW2 3337   9.858   3.593  11.645
  500SOL     OW 3338   2.115   4.663   4.960
  500SOL    HW1 3339   2.174   4.614   4.902
  500SOL    HW2 3340   2.028   4.646   4.925
  501SOL     OW 3341   0.249   8.628   2.366
  501SOL    HW1 3342   0.336   8.590   2.377
  501SOL    HW2 3343   0.234   8.677   2.447
  502SOL     OW 3344   1.123   8.120   5.760
  502SOL    HW1 3345   1.084   8.034   5.777
  502SOL    HW2 3346   1.194   8.102   5.698
  503SOL     OW 3347  11.662  13.341  14.561
  503SOL    HW1 3348  11.594  13.408  14.565
  503SOL    HW2 3349  11.620  13.267  14.519
  504SOL     OW 3350   8.442   1.198   2.311
  504SOL    HW1 3351   8.423   1.269   2.250
  504SOL    HW2 3352   8.453   1.242   2.396
  505SOL     OW 3353   4.654   8.982   5.899
  505SOL    HW1 3354   4.682   9.072   5.918
  505SOL    HW2 3355   4.615   8.987   5.812
  506SOL     OW 3356   7.558  10.177  13.298
  506SOL    HW1 3357   7.533  10.109  13.235
  506SOL    HW2 3358   7.544  10.136  13.384
  507SOL     OW 3359   7.850  11.428   1.859
  507SOL    HW1 3360   7.884  11.338   1.854
  507SOL    HW2 3361   7.926  11.483   1.845
  508SOL     OW 3362  11.725   3.243   7.344
  508SOL    HW1 3363  11.722   3.313   7.410
  508SOL    HW2 3364  11.702   3.164   7.392
  509SOL     OW 3365   4.582   3.895   4.984
  509SOL    HW1 3366   4.573   3.986   5.011
  509SOL    HW2 3367   4.676   3.880   4.979
  510SOL     OW 3368   7.599   8.892  11.288
  510SOL    HW1 3369   7.640   8.909  11.202
  510SOL    HW2 3370   7.508   8.871  11.267
  511SOL     OW 3371   6.385   0.075   4.390
  511SOL    HW1 3372   6.364   0.157   4.435
  511SOL    HW2 3373   6.317   0.065   4.324
  512SOL     OW 3374  13.757   0.516   6.339
  512SOL    HW1 3375  13.845   0.482   6.319
  512SOL    HW2 3376  13.698   0.443   6.321
  513SOL     OW 3377  11.979   0.787   9.000
  513SOL    HW1 3378  12.030   0.831   8.932
  513SOL    HW2 3379  11.888   0.812   8.981
  514SOL     OW 3380   3.347   5.557   9.502
  514SOL    HW1 3381   3.362   5.501   9.425
  514SOL    HW2 3382   3.417   5.621   9.499
  515SOL     OW 3383  12.568   0.717  13.051
  515SOL    HW1 3384  12.645   0.727  12.994
  515SOL    HW2 3385  12.534   0.806  13.062
  516SOL     OW 3386   4.061   8.761   6.294
  516SOL    HW1 3387   4.059   8.731   6.203
  516SOL    HW2 3388   3.986   8.820   6.302
  517SOL     OW 3389  13.602  12.897   1.032
  517SOL    HW1 3390  13.566  12.897   0.943
  517SOL    HW2 3391  13.678  12.954   1.026
  518SOL     OW 3392   8.554   4.228  10.614
  518SOL    HW1 3393   8.570   4.247  10.521
  518SOL    HW2 3394   8.467   4.262  10.631
  519SOL     OW 3395   9.695   5.964  11.761
  519SOL    HW1 3396   9.727   5.875  11.780
  519SOL    HW2 3397   9.647   5.989  11.840
  520SOL     OW 3398  12.233   3.258   7.591
  520SOL    HW1 3399  12.264   3.234   7.678
  520SOL    HW2 3400  12.191   3.343   7.602
  521SOL     OW 3401   2.938   7.660   1.857
  521SOL    HW1 3402   2.909   7.670   1.766
  521SOL    HW2 3403   2.967   7.569   1.863
  522SOL     OW 3404   9.632  12.946   1.854
  522SOL    HW1 3405   9.602  12.984   1.936
  522SOL    HW2 3406   9.559  12.892   1.823
  523SOL     OW 3407  13.052   7.866  12.328
  523SOL    HW1 3408  13.124   7.827  12.279
  523SOL    HW2 3409  13.014   7.930  12.267
  524SOL     OW 3410  10.074   5.603  11.151
  524SOL    HW1 3411  10.080   5.527  11.208
  524SOL    HW2 3412   9.980   5.614  11.136
  525SOL     OW 3413   0.258   4.374   7.749
  525SOL    HW1 3414   0.232   4.282   7.743
  525SOL    HW2 3415   0.228   4.413   7.667
  526SOL     OW 3416   0.132   0.898   2.571
  526SOL    HW1 3417   0.074   0.830   2.536
  526SOL    HW2 3418   0.168   0.942   2.493
  527SOL     OW 3419   1.429   0.464   2.102
  527SOL    HW1 3420   1.450   0.426   2.017
  527SOL    HW2 3421   1.333   0.466   2.104
  528SOL     OW 3422  12.862   3.609   2.780
  528SOL    HW1 3423  12.888   3.681   2.723
  528SOL    HW2 3424  12.898   3.531   2.738
  529SOL     OW 3425   4.161   1.368   3.159
  529SOL    HW1 3426   4.227   1.304   3.131
  529SOL    HW2 3427   4.204   1.418   3.228
  530SOL     OW 3428  14.749   6.289   0.732
  530SOL    HW1 3429  14.718   6.216   0.679
  530SOL    HW2 3430  14.771   6.250   0.817
  531SOL     OW 3431  11.911  14.686   4.881
  531SOL    HW1 3432  11.854  14.609   4.877
  531SOL    HW2 3433  11.855  14.759   4.857
  532SOL     OW 3434   8.442   6.623   4.006
  532SOL    HW1 3435   8.392   6.547   3.977
  532SOL    HW2 3436   8.399   6.698   3.965
  533SOL     OW 3437   2.319   7.504   5.562
  533SOL    HW1 3438   2.268   7.585   5.559
  533SOL    HW2 3439   2.385   7.514   5.493
  534SOL     OW 3440   5.637  14.277   2.125
  534SOL    HW1 3441   5.620  14.188   2.095
  534SOL    HW2 3442   5.731  14.279   2.144
  535SOL     OW 3443   1.907   3.374   2.259
  535SOL    HW1 3444   1.886   3.297   2.207
  535SOL    HW2 3445   1.944   3.338   2.340
  536SOL     OW 3446   8.165  11.720   7.829
  536SOL    HW1 3447   8.197  11.664   7.757
  536SOL    HW2 3448   8.142  11.658   7.898
  537SOL     OW 3449   8.785  14.352   2.423
  537SOL    HW1 3450   8.772  14.438   2.384
  537SOL    HW2 3451   8.844  14.307   2.362
  538SOL     OW 3452  10.375   1.682   7.041
  538SOL    HW1 3453  10.429   1.717   7.111
  538SOL    HW2 3454  10.314   1.623   7.084
  539SOL     OW 3455   8.039   4.007  10.065
  539SOL    HW1 3456   7.951   4.041  10.081
  539SOL    HW2 3457   8.083   4.075  10.014
  540SOL     OW 3458   5.782   3.908  13.515
  540SOL    HW1 3459   5.818   3.835  13.465
  540SOL    HW2 3460   5.707   3.938  13.463
  541SOL     OW 3461  14.147  12.280   4.061
  541SOL    HW1 3462  14.214  12.216   4.087
  541SOL    HW2 3463  14.191  12.364   4.064
  542SOL     OW 3464   8.335  12.935  14.156
  542SOL    HW1 3465   8.335  12.997  14.228
  542SOL    HW2 3466   8.319  12.988  14.078
  543SOL     OW 3467   8.282   1.085   5.554
  543SOL    HW1 3468   8.286   1.007   5.498
  543SOL    HW2 3469   8.295   1.158   5.493
  544SOL     OW 3470  11.472   9.190   0.500
  544SOL    HW1 3471  11.512   9.250   0.562
  544SOL    HW2 3472  11.447   9.113   0.552
  545SOL     OW 3473   6.133   1.787   0.742
  545SOL    HW1 3474   6.122   1.694   0.724
  545SOL    HW2 3475   6.171   1.789   0.830
  546SOL     OW 3476   0.313  14.197   8.961
  546SOL    HW1 3477   0.323  14.143   8.883
  546SOL    HW2 3478   0.402  14.216   8.989
  547SOL     OW 3479  11.717   1.055   5.527
  547SOL    HW1 3480  11.767   1.135   5.508
  547SOL    HW2 3481  11.631   1.070   5.487
  548SOL     OW 3482   9.538  12.510   0.164
  548SOL    HW1 3483   9.626  12.548   0.172
  548SOL    HW2 3484   9.530  12.485   0.072
  549SOL     OW 3485   4.422   7.176   0.576
  549SOL    HW1 3486   4.339   7.169   0.623
  549SOL    HW2 3487   4.488   7.184   0.645
  550SOL     OW 3488   2.421  11.377   8.910
  550SOL    HW1 3489   2.501  11.428   8.922
  550SOL    HW2 3490   2.437  11.325   8.831
  551SOL     OW 3491   5.928   4.726   7.165
  551SOL    HW1 3492   5.840   4.760   7.146
  551SOL    HW2 3493   5.916   4.672   7.243
  552SOL     OW 3494   6.924   2.418   7.930
  552SOL    HW1 3495   6.941   2.496   7.876
  552SOL    HW2 3496   7.011   2.384   7.951
  553SOL     OW 3497  10.356   7.253   9.305
  553SOL    HW1 3498  10.270   7.229   9.271
  553SOL    HW2 3499  10.417   7.191   9.265
  554SOL     OW 3500  14.497   3.454  13.635
  554SOL    HW1 3501  14.454   3.386  13.582
  554SOL    HW2 3502  14.588   3.426  13.641
  555SOL     OW 3503   0.398   5.005   0.415
  555SOL    HW1 3504   0.309   4.998   0.449
  555SOL    HW2 3505   0.389   5.051   0.331
  556SOL     OW 3506   8.391   1.237   0.835
  556SOL    HW1 3507   8.342   1.319   0.845
  556SOL    HW2 3508   8.481   1.264   0.817
  557SOL     OW 3509  11.170   0.530  10.256
  557SOL    HW1 3510  11.146   0.506  10.166
  557SOL    HW2 3511  11.266   0.535  10.254
  558SOL     OW 3512   8.841   5.896   1.506
  558SOL    HW1 3513   8.914   5.956   1.499
  558SOL    HW2 3514   8.782   5.937   1.569
  559SOL     OW 3515   0.159   0.659   5.966
  559SOL    HW1 3516   0.193   0.631   6.051
  559SOL    HW2 3517   0.227   0.632   5.904
  560SOL     OW 3518   1.222   2.705  12.629
  560SOL    HW1 3519   1.156   2.691  12.562
  560SOL    HW2 3520   1.262   2.789  12.608
  561SOL     OW 3521   0.245  12.752  11.850
  561SOL    HW1 3522   0.306  12.703  11.793
  561SOL    HW2 3523   0.183  12.792  11.789
  562SOL     OW 3524   7.677   9.113   2.189
  562SOL    HW1 3525   7.659   9.093   2.097
  562SOL    HW2 3526   7.601   9.165   2.218
  563SOL     OW 3527   5.210   5.189   6.823
  563SOL    HW1 3528   5.258   5.170   6.743
  563SOL    HW2 3529   5.137   5.127   6.824
  564SOL     OW 3530   4.372  14.031  11.882
  564SOL    HW1 3531   4.385  14.076  11.966
  564SOL    HW2 3532   4.460  14.021  11.847
  565SOL     OW 3533   7.253  12.731   5.215
  565SOL    HW1 3534   7.282  12.641   5.230
  565SOL    HW2 3535   7.275  12.748   5.123
  566SOL     OW 3536  10.774   9.683   4.965
  566SOL    HW1 3537  10.689   9.647   4.941
  566SOL    HW2 3538  10.819   9.697   4.882
  567SOL     OW 3539   1.059   1.751   7.090
  567SOL    HW1 3540   1.049   1.839   7.126
  567SOL    HW2 3541   1.135   1.757   7.033
  568SOL     OW 3542   9.534   9.309  14.728
  568SOL    HW1 3543   9.493   9.222  14.721
  568SOL    HW2 3544   9.563   9.329  14.639
  569SOL     OW 3545   4.799  11.173   5.857
  569SOL    HW1 3546   4.776  11.090   5.900
  569SOL    HW2 3547   4.859  11.216   5.918
  570SOL     OW 3548   6.594   0.317   8.719
  570SOL    HW1 3549   6.667   0.379   8.723
  570SOL    HW2 3550   6.636   0.231   8.714
  571SOL     OW 3551   1.767   8.079   5.002
  571SOL    HW1 3552   1.759   8.050   5.092
  571SOL    HW2 3553   1.787   8.000   4.952
  572SOL     OW 3554  11.327   7.237   2.706
  572SOL    HW1 3555  11.339   7.246   2.801
  572SOL    HW2 3556  11.400   7.181   2.679
  573SOL     OW 3557   6.464   4.129   6.463
  573SOL    HW1 3558   6.444   4.205   6.517
  573SOL    HW2 3559   6.396   4.065   6.484
  574SOL     OW 3560   6.507   7.071  13.160
  574SOL    HW1 3561   6.557   7.122  13.224
  574SOL    HW2 3562   6.506   6.982  13.196
  575SOL     OW 3563   0.744  14.672   1.784
  575SOL    HW1 3564   0.675  14.654   1.720
  575SOL    HW2 3565   0.817  14.616   1.756
  576SOL     OW 3566   7.322   5.352  11.231
  576SOL    HW1 3567   7.282   5.266  11.224
  576SOL    HW2 3568   7.287   5.388  11.313
  577SOL     OW 3569   1.551   4.872   3.722
  577SOL    HW1 3570   1.456   4.874   3.736
  577SOL    HW2 3571   1.569   4.786   3.684
  578SOL     OW 3572   2.400   7.463   3.142
  578SOL    HW1 3573   2.391   7.518   3.065
  578SOL    HW2 3574   2.328   7.400   3.135
  579SOL     OW 3575  10.824   6.495   6.868
  579SOL    HW1 3576  10.795   6.416   6.913
  579SOL    HW2 3577  10.748   6.523   6.817
  580SOL     OW 3578  13.304   9.245   8.449
  580SOL    HW1 3579  13.271   9.162   8.484
  580SOL    HW2 3580  13.376   9.221   8.392
  581SOL     OW 3581  14.614  10.265  14.310
  581SOL    HW1 3582  14.555  10.309  14.372
  581SOL    HW2 3583  14.562  10.193  14.275
  582SOL     OW 3584   3.847   0.569   5.901
  582SOL    HW1 3585   3.769   0.548   5.849
  582SOL    HW2 3586   3.816   0.631   5.967
  583SOL     OW 3587  12.016   2.958   1.756
  583SOL    HW1 3588  12.110   2.957   1.739
  583SOL    HW2 3589  12.005   3.015   1.832
  584SOL     OW 3590   5.680   1.001   0.131
  584SOL    HW1 3591   5.641   1.073   0.081
  584SOL    HW2 3592   5.637   1.004   0.216
  585SOL     OW 3593   0.520   8.863  10.651
  585SOL    HW1 3594   0.554   8.801  10.715
  585SOL    HW2 3595   0.445   8.904  10.696
  586SOL     OW 3596   5.499   3.722   1.197
  586SOL    HW1 3597   5.553   3.665   1.251
  586SOL    HW2 3598   5.419   3.671   1.181
  587SOL     OW 3599  12.575   6.434   7.507
  587SOL    HW1 3600  12.603   6.438   7.415
  587SOL    HW2 3601  12.499   6.492   7.512
  588SOL     OW 3602  14.847  12.334   7.347
  588SOL    HW1 3603  14.781  12.295   7.404
  588SOL    HW2 3604  14.854  12.273   7.274
  589SOL     OW 3605   8.712   0.003   1.078
  589SOL    HW1 3606   8.623   0.002   1.113
  589SOL    HW2 3607   8.739   0.095   1.082
  590SOL     OW 3608   4.039   6.329   7.737
  590SOL    HW1 3609   4.119   6.280   7.720
  590SOL    HW2 3610   3.987   6.273   7.794
  591SOL     OW 3611   3.268   6.328   9.735
  591SOL    HW1 3612   3.320   6.371   9.802
  591SOL    HW2 3613   3.181   6.320   9.773
  592SOL     OW 3614  13.140   1.669  13.378
  592SOL    HW1 3615  13.074   1.600  13.388
  592SOL    HW2 3616  13.135   1.718  13.460
  593SOL     OW 3617   2.858   4.410   0.125
  593SOL    HW1 3618   2.947   4.430   0.155
  593SOL    HW2 3619   2.827   4.492   0.087
  594SOL     OW 3620  14.357   1.553   7.112
  594SOL    HW1 3621  14.395   1.515   7.033
  594SOL    HW2 3622  14.430   1.562   7.173
  595SOL     OW 3623   2.610   8.876   4.304
  595SOL    HW1 3624   2.627   8.969   4.317
  595SOL    HW2 3625   2.697   8.836   4.301
  596SOL     OW 3626  13.304  12.495   8.003
  596SOL    HW1 3627  13.256  12.571   7.970
  596SOL    HW2 3628  13.384  12.532   8.042
  597SOL     OW 3629   0.863   4.741   2.102
  597SOL    HW1 3630   0.933   4.681   2.130
  597SOL    HW2 3631   0.789   4.683   2.084
  598SOL     OW 3632   4.811   7.023   4.771
  598SOL    HW1 3633   4.815   7.107   4.817
  598SOL    HW2 3634   4.899   6.985   4.783
  599SOL     OW 3635  14.429   5.659  13.130
  599SOL    HW1 3636  14.387   5.689  13.049
  599SOL    HW2 3637  14.491   5.728  13.152
  600SOL     OW 3638  14.405   3.096   6.599
  600SOL    HW1 3639  14.324   3.069   6.642
  600SOL    HW2 3640  14.422   3.183   6.633
  601SOL     OW 3641   6.235   6.105   8.340
  601SOL    HW1 3642   6.276   6.170   8.283
  601SOL    HW2 3643   6.146   6.096   8.305
  602SOL     OW 3644   4.244  11.668  10.255
  602SOL    HW1 3645   4.275  11.754  10.283
  602SOL    HW2 3646   4.294  11.649  10.176
  603SOL     OW 3647   0.611  13.178  11.024
  603SOL    HW1 3648   0.630  13.108  10.962
  603SOL    HW2 3649   0.516  13.193  11.016
  604SOL     OW 3650   3.151  13.980  13.149
  604SOL    HW1 3651   3.187  13.925  13.079
  604SOL    HW2 3652   3.180  13.938  13.230
  605SOL     OW 3653   8.876   7.069   5.411
  605SOL    HW1 3654   8.955   7.115   5.382
  605SOL    HW2 3655   8.909   6.994   5.461
  606SOL     OW 3656  13.034   7.588  10.064
  606SOL    HW1 3657  13.054   7.554   9.977
  606SOL    HW2 3658  12.993   7.673  10.048
  607SOL     OW 3659   5.717   9.710  14.038
  607SOL    HW1 3660   5.693   9.801  14.020
  607SOL    HW2 3661   5.698   9.698  14.131
  608SOL     OW 3662  14.277   8.691   3.443
  608SOL    HW1 3663  14.355   8.688   3.388
  608SOL    HW2 3664  14.236   8.775   3.424
  609SOL     OW 3665   8.474   2.995   8.317
  609SOL    HW1 3666   8.400   2.976   8.259
  609SOL    HW2 3667   8.455   2.947   8.397
  610SOL     OW 3668   7.823  10.950  10.033
  610SOL    HW1 3669   7.832  10.863   9.994
  610SOL    HW2 3670   7.879  10.948  10.111
  611SOL     OW 3671  12.512   2.302   3.070
  611SOL    HW1 3672  12.529   2.328   3.161
  611SOL    HW2 3673  12.589   2.331   3.021
  612SOL     OW 3674   8.352   1.828  10.267
  612SOL    HW1 3675   8.439   1.788  10.269
  612SOL    HW2 3676   8.368   1.917  10.234
  613SOL     OW 3677   3.932  10.854   1.068
  613SOL    HW1 3678   3.977  10.920   1.015
  613SOL    HW2 3679   3.876  10.905   1.127
  614SOL     OW 3680  11.537   0.613   4.673
  614SOL    HW1 3681  11.632   0.606   4.672
  614SOL    HW2 3682  11.515   0.625   4.766
  615SOL     OW 3683   6.783  10.454  10.501
  615SOL    HW1 3684   6.724  10.509  10.451
  615SOL    HW2 3685   6.813  10.388  10.438
  616SOL     OW 3686   3.034   6.536  13.913
  616SOL    HW1 3687   2.958   6.492  13.875
  616SOL    HW2 3688   3.096   6.466  13.931
  617SOL     OW 3689   1.821  13.760   7.072
  617SOL    HW1 3690   1.802  13.763   7.165
  617SOL    HW2 3691   1.757  13.820   7.032
  618SOL     OW 3692  14.257  12.983   8.913
  618SOL    HW1 3693  14.257  13.067   8.959
  618SOL    HW2 3694  14.279  13.005   8.822
  619SOL     OW 3695  12.631   3.596   2.499
  619SOL    HW1 3696  12.621   3.638   2.585
  619SOL    HW2 3697  12.584   3.654   2.439
  620SOL     OW 3698  14.062   0.491  12.528
  620SOL    HW1 3699  14.108   0.554  12.583
  620SOL    HW2 3700  14.121   0.477  12.454
  621SOL     OW 3701   4.921   1.483   2.546
  621SOL    HW1 3702   5.002   1.453   2.587
  621SOL    HW2 3703   4.854   1.424   2.581
  622SOL     OW 3704   1.320   9.284   9.233
  622SOL    HW1 3705   1.338   9.227   9.159
  622SOL    HW2 3706   1.284   9.226   9.300
  623SOL     OW 3707   3.280  13.842  12.935
  623SOL    HW1 3708   3.300  13.750  12.952
  623SOL    HW2 3709   3.272  13.848  12.840
  624SOL     OW 3710   9.372   5.653   3.876
  624SOL    HW1 3711   9.406   5.595   3.944
  624SOL    HW2 3712   9.450   5.686   3.832
  625SOL     OW 3713  12.785   8.549  14.120
  625SOL    HW1 3714  12.793   8.455  14.099
  625SOL    HW2 3715  12.765   8.551  14.214
  626SOL     OW 3716  14.876  10.675   7.648
  626SOL    HW1 3717   0.051  10.740   7.690
  626SOL    HW2 3718  14.798  10.671   7.704
  627SOL     OW 3719   6.583   9.983   3.292
  627SOL    HW1 3720   6.512  10.022   3.241
  627SOL    HW2 3721   6.587   9.892   3.261
  628SOL     OW 3722   5.076  14.442  12.083
  628SOL    HW1 3723   5.160  14.471  12.047
  628SOL    HW2 3724   5.096  14.424  12.175
  629SOL     OW 3725  13.998   1.234   7.543
  629SOL    HW1 3726  13.934   1.168   7.517
  629SOL    HW2 3727  13.947   1.297   7.594
  630SOL     OW 3728   4.634   7.445  11.697
  630SOL    HW1 3729   4.609   7.449  11.605
  630SOL    HW2 3730   4.556   7.477  11.744
  631SOL     OW 3731   2.547   6.310   3.550
  631SOL    HW1 3732   2.542   6.355   3.466
  631SOL    HW2 3733   2.604   6.365   3.604
  632SOL     OW 3734   7.986  14.711   8.984
  632SOL    HW1 3735   8.029  14.653   9.047
  632SOL    HW2 3736   7.919  14.756   9.036
  633SOL     OW 3737   3.611   5.861  14.064
  633SOL    HW1 3738   3.639   5.832  13.977
  633SOL    HW2 3739   3.544   5.799  14.090
  634SOL     OW 3740  12.365  14.809  12.110
  634SOL    HW1 3741  12.323   0.001  12.066
  634SOL    HW2 3742  12.447  14.845  12.144
  635SOL     OW 3743   0.945  13.515   2.491
  635SOL    HW1 3744   1.027  13.563   2.500
  635SOL    HW2 3745   0.931  13.508   2.397
  636SOL     OW 3746  13.536   8.462   1.456
  636SOL    HW1 3747  13.591   8.395   1.415
  636SOL    HW2 3748  13.449   8.422   1.460
  637SOL     OW 3749   9.163  13.425  14.826
  637SOL    HW1 3750   9.096  13.484  14.862
  637SOL    HW2 3751   9.164  13.351   0.005
  638SOL     OW 3752  13.193   5.911  14.009
  638SOL    HW1 3753  13.103   5.879  14.011
  638SOL    HW2 3754  13.242   5.845  14.058
  639SOL     OW 3755   1.873  10.524   5.298
  639SOL    HW1 3756   1.960  10.561   5.279
  639SOL    HW2 3757   1.863  10.533   5.392
  640SOL     OW 3758  12.111  12.665  13.480
  640SOL    HW1 3759  12.132  12.728  13.410
  640SOL    HW2 3760  12.016  12.658  13.478
  641SOL     OW 3761  11.125  13.683  11.575
  641SOL    HW1 3762  11.144  13.606  11.628
  641SOL    HW2 3763  11.210  13.714  11.545
  642SOL     OW 3764  10.294   5.094   7.307
  642SOL    HW1 3765  10.271   5.159   7.373
  642SOL    HW2 3766  10.261   5.130   7.224
  643SOL     OW 3767  12.410   8.283   9.373
  643SOL    HW1 3768  12.455   8.274   9.289
  643SOL    HW2 3769  12.477   8.261   9.438
  644SOL     OW 3770   6.504  11.829  11.757
  644SOL    HW1 3771   6.597  11.812  11.773
  644SOL    HW2 3772   6.484  11.781  11.677
  645SOL     OW 3773   0.308   0.668  12.929
  645SOL    HW1 3774   0.342   0.644  12.843
  645SOL    HW2 3775   0.245   0.739  12.911
  646SOL     OW 3776   5.650   0.872  14.198
  646SOL    HW1 3777   5.712   0.934  14.236
  646SOL    HW2 3778   5.700   0.791  14.189
  647SOL     OW 3779   0.866   4.570  13.238
  647SOL    HW1 3780   0.931   4.604  13.299
  647SOL    HW2 3781   0.834   4.490  13.280
  648SOL     OW 3782   2.432   4.764   4.896
  648SOL    HW1 3783   2.401   4.677   4.870
  648SOL    HW2 3784   2.354   4.809   4.927
  649SOL     OW 3785   5.112   6.253   2.484
  649SOL    HW1 3786   5.144   6.328   2.433
  649SOL    HW2 3787   5.022   6.241   2.454
  650SOL     OW 3788   2.382  12.801   3.563
  650SOL    HW1 3789   2.368  12.708   3.582
  650SOL    HW2 3790   2.339  12.815   3.478
  651SOL     OW 3791   7.774  13.507  12.367
  651SOL    HW1 3792   7.707  13.439  12.358
  651SOL    HW2 3793   7.856  13.461  12.349
  652SOL     OW 3794   3.063   4.984   4.936
  652SOL    HW1 3795   3.115   4.984   5.017
  652SOL    HW2 3796   2.997   4.916   4.950
  653SOL     OW 3797  10.334   7.230  13.563
  653SOL    HW1 3798  10.370   7.142  13.573
  653SOL    HW2 3799  10.297   7.252  13.648
  654SOL     OW 3800   9.033   7.105   6.218
  654SOL    HW1 3801   9.061   7.025   6.173
  654SOL    HW2 3802   9.065   7.095   6.308
  655SOL     OW 3803   5.403   5.626  12.047
  655SOL    HW1 3804   5.390   5.589  12.134
  655SOL    HW2 3805   5.483   5.679  12.056
  656SOL     OW 3806  10.598  13.551   7.307
  656SOL    HW1 3807  10.587  13.466   7.265
  656SOL    HW2 3808  10.575  13.535   7.399
  657SOL     OW 3809   0.390  14.074  10.208
  657SOL    HW1 3810   0.350  14.117  10.284
  657SOL    HW2 3811   0.474  14.042  10.241
  658SOL     OW 3812   1.162   7.352  11.894
  658SOL    HW1 3813   1.228   7.289  11.865
  658SOL    HW2 3814   1.148   7.331  11.986
  659SOL     OW 3815  12.013  12.801   3.426
  659SOL    HW1 3816  11.970  12.848   3.355
  659SOL    HW2 3817  11.976  12.713   3.423
  660SOL     OW 3818   5.087  14.745   3.700
  660SOL    HW1 3819   5.057  14.735   3.791
  660SOL    HW2 3820   5.182  14.744   3.706
  661SOL     OW 3821   4.954   8.399   7.592
  661SOL    HW1 3822   4.893   8.361   7.529
  661SOL    HW2 3823   4.908   8.392   7.676
  662SOL     OW 3824  11.365  11.684   7.356
  662SOL    HW1 3825  11.439  11.696   7.297
  662SOL    HW2 3826  11.394  11.618   7.419
  663SOL     OW 3827  13.619  12.862   2.709
  663SOL    HW1 3828  13.619  12.770   2.681
  663SOL    HW2 3829  13.571  12.861   2.791
  664SOL     OW 3830   0.719   2.432   5.245
  664SOL    HW1 3831   0.745   2.377   5.318
  664SOL    HW2 3832   0.782   2.504   5.246
  665SOL     OW 3833   6.574  14.624   0.238
  665SOL    HW1 3834   6.561  14.619   0.332
  665SOL    HW2 3835   6.535  14.543   0.204
  666SOL     OW 3836   4.553   9.126   2.712
  666SOL    HW1 3837   4.639   9.169   2.710
  666SOL    HW2 3838   4.559   9.062   2.783
  667SOL     OW 3839  10.083   8.891   7.121
  667SOL    HW1 3840  10.072   8.914   7.213
  667SOL    HW2 3841  10.051   8.967   7.073
  668SOL     OW 3842   3.519   6.286   6.974
  668SOL    HW1 3843   3.540   6.358   6.914
  668SOL    HW2 3844   3.435   6.253   6.943
  669SOL     OW 3845  12.729  14.054   4.217
  669SOL    HW1 3846  12.724  13.959   4.207
  669SOL    HW2 3847  12.784  14.067   4.295
  670SOL     OW 3848   1.839  13.057   4.711
  670SOL    HW1 3849   1.836  13.066   4.806
  670SOL    HW2 3850   1.764  13.107   4.680
  671SOL     OW 3851  10.410   4.078   2.930
  671SOL    HW1 3852  10.491   4.107   2.973
  671SOL    HW2 3853  10.358   4.040   3.000
  672SOL     OW 3854   2.134   0.809  10.595
  672SOL    HW1 3855   2.179   0.884  10.554
  672SOL    HW2 3856   2.204   0.758  10.635
  673SOL     OW 3857   2.984   5.471  14.480
  673SOL    HW1 3858   2.971   5.445  14.571
  673SOL    HW2 3859   3.079   5.486  14.473
  674SOL     OW 3860   8.179  14.271   4.891
  674SOL    HW1 3861   8.243  14.239   4.954
  674SOL    HW2 3862   8.219  14.254   4.806
  675SOL     OW 3863  13.853  12.379  13.993
  675SOL    HW1 3864  13.794  12.385  14.069
  675SOL    HW2 3865  13.907  12.302  14.011
  676SOL     OW 3866   2.509   1.668  12.266
  676SOL    HW1 3867   2.519   1.595  12.326
  676SOL    HW2 3868   2.592   1.716  12.272
  677SOL     OW 3869  13.427  14.578   8.282
  677SOL    HW1 3870  13.427  14.506   8.219
  677SOL    HW2 3871  13.458  14.538   8.364
  678SOL     OW 3872   0.264  11.812  13.975
  678SOL    HW1 3873   0.193  11.796  14.037
  678SOL    HW2 3874   0.339  11.835  14.029
  679SOL     OW 3875   1.734  14.875   0.592
  679SOL    HW1 3876   1.807  14.821   0.623
  679SOL    HW2 3877   1.741   0.074   0.643
  680SOL     OW 3878  12.514   9.781   4.203
  680SOL    HW1 3879  12.553   9.727   4.273
  680SOL    HW2 3880  12.587   9.833   4.170
  681SOL     OW 3881  13.803   0.717  14.366
  681SOL    HW1 3882  13.737   0.716  14.296
  681SOL    HW2 3883  13.844   0.631  14.362
  682SOL     OW 3884   9.459   1.981   5.919
  682SOL    HW1 3885   9.549   1.997   5.947
  682SOL    HW2 3886   9.467   1.919   5.846
  683SOL     OW 3887  12.517   9.854  13.621
  683SOL    HW1 3888  12.581   9.833  13.688
  683SOL    HW2 3889  12.536   9.945  13.597
  684SOL     OW 3890   2.486   0.206   1.144
  684SOL    HW1 3891   2.480   0.237   1.054
  684SOL    HW2 3892   2.426   0.263   1.193
  685SOL     OW 3893   1.142  14.403  12.367
  685SOL    HW1 3894   1.200  14.471  12.332
  685SOL    HW2 3895   1.072  14.396  12.301
  686SOL     OW 3896   5.409  10.470   4.479
  686SOL    HW1 3897   5.373  10.559   4.477
  686SOL    HW2 3898   5.408  10.447   4.572
  687SOL     OW 3899  12.069  11.360   8.275
  687SOL    HW1 3900  12.154  11.372   8.232
  687SOL    HW2 3901  12.088  11.367   8.368
  688SOL     OW 3902   7.936   7.381  12.091
  688SOL    HW1 3903   7.914   7.464  12.133
  688SOL    HW2 3904   7.925   7.399  11.997
  689SOL     OW 3905   1.756   1.912  12.678
  689SOL    HW1 3906   1.820   1.859  12.631
  689SOL    HW2 3907   1.693   1.849  12.713
  690SOL     OW 3908   1.619   1.332   1.901
  690SOL    HW1 3909   1.570   1.263   1.945
  690SOL    HW2 3910   1.710   1.307   1.910
  691SOL     OW 3911   2.000   7.723  14.866
  691SOL    HW1 3912   2.070   7.720  14.802
  691SOL    HW2 3913   1.943   7.794  14.836
  692SOL     OW 3914   1.610   3.651  12.962
  692SOL    HW1 3915   1.686   3.707  12.948
  692SOL    HW2 3916   1.640   3.563  12.938
  693SOL     OW 3917   4.271  11.815   7.389
  693SOL    HW1 3918   4.215  11.760   7.443
  693SOL    HW2 3919   4.343  11.841   7.447
  694SOL     OW 3920   2.682  10.378  13.730
  694SOL    HW1 3921   2.739  10.304  13.749
  694SOL    HW2 3922   2.739  10.454  13.732
  695SOL     OW 3923   4.901   8.693  12.729
  695SOL    HW1 3924   4.903   8.780  12.769
  695SOL    HW2 3925   4.909   8.709  12.635
  696SOL     OW 3926   0.704  13.756   9.258
  696SOL    HW1 3927   0.751  13.830   9.298
  696SOL    HW2 3928   0.773  13.698   9.227
  697SOL     OW 3929  14.865  10.930   3.421
  697SOL    HW1 3930  14.879  10.934   3.327
  697SOL    HW2 3931   0.043  10.862   3.452
  698SOL     OW 3932   8.506   4.125   8.827
  698SOL    HW1 3933   8.472   4.048   8.872
  698SOL    HW2 3934   8.600   4.125   8.847
  699SOL     OW 3935   3.329   3.615   5.313
  699SOL    HW1 3936   3.236   3.594   5.301
  699SOL    HW2 3937   3.330   3.708   5.337
  700SOL     OW 3938   0.551   8.729   1.689
  700SOL    HW1 3939   0.634   8.689   1.716
  700SOL    HW2 3940   0.546   8.811   1.739
  701SOL     OW 3941   7.924   2.858  10.628
  701SOL    HW1 3942   7.869   2.929  10.595
  701SOL    HW2 3943   7.953   2.889  10.715
  702SOL     OW 3944   7.898   2.566   9.671
  702SOL    HW1 3945   7.867   2.577   9.761
  702SOL    HW2 3946   7.844   2.497   9.634
  703SOL     OW 3947  10.688   4.686   6.145
  703SOL    HW1 3948  10.771   4.641   6.162
  703SOL    HW2 3949  10.704   4.776   6.173
  704SOL     OW 3950   3.484   7.013  12.076
  704SOL    HW1 3951   3.458   7.016  11.983
  704SOL    HW2 3952   3.560   7.070  12.081
  705SOL     OW 3953   2.040   8.532  11.123
  705SOL    HW1 3954   2.022   8.524  11.030
  705SOL    HW2 3955   2.033   8.443  11.157
  706SOL     OW 3956   2.865   3.289  10.824
  706SOL    HW1 3957   2.787   3.237  10.805
  706SOL    HW2 3958   2.929   3.264  10.757
  707SOL     OW 3959   2.617   8.502   0.979
  707SOL    HW1 3960   2.692   8.501   1.038
  707SOL    HW2 3961   2.631   8.427   0.920
  708SOL     OW 3962  14.445   6.654  12.535
  708SOL    HW1 3963  14.448   6.748  12.554
  708SOL    HW2 3964  14.529   6.636  12.493
  709SOL     OW 3965  14.801   2.317  11.576
  709SOL    HW1 3966  14.706   2.306  11.568
  709SOL    HW2 3967  14.837   2.242  11.528
  710SOL     OW 3968   1.085   5.389   4.870
  710SOL    HW1 3969   1.014   5.365   4.930
  710SOL    HW2 3970   1.072   5.333   4.793
  711SOL     OW 3971   4.959   2.183   6.527
  711SOL    HW1 3972   4.883   2.237   6.508
  711SOL    HW2 3973   4.982   2.204   6.618
  712SOL     OW 3974  13.992  13.434   5.685
  712SOL    HW1 3975  13.902  13.465   5.670
  712SOL    HW2 3976  14.044  13.514   5.690
  713SOL     OW 3977  11.467   4.907   9.710
  713SOL    HW1 3978  11.396   4.940   9.764
  713SOL    HW2 3979  11.425   4.845   9.650
  714SOL     OW 3980   3.471  12.597   8.287
  714SOL    HW1 3981   3.384  12.614   8.252
  714SOL    HW2 3982   3.456  12.549   8.368
  715SOL     OW 3983   5.973   6.195  10.712
  715SOL    HW1 3984   5.895   6.161  10.756
  715SOL    HW2 3985   5.988   6.281  10.752
  716SOL     OW 3986   1.277   6.449   5.661
  716SOL    HW1 3987   1.240   6.528   5.621
  716SOL    HW2 3988   1.348   6.423   5.603
  717SOL     OW 3989   1.680   3.749  12.374
  717SOL    HW1 3990   1.738   3.812  12.331
  717SOL    HW2 3991   1.619   3.722  12.306
  718SOL     OW 3992  11.037   8.313   8.708
  718SOL    HW1 3993  11.036   8.368   8.786
  718SOL    HW2 3994  11.002   8.369   8.639
  719SOL     OW 3995   6.459   9.197  11.169
  719SOL    HW1 3996   6.503   9.139  11.231
  719SOL    HW2 3997   6.385   9.233  11.219
  720SOL     OW 3998   3.843   9.433   6.879
  720SOL    HW1 3999   3.790   9.511   6.866
  720SOL    HW2 4000   3.897   9.452   6.956
  721SOL     OW 4001  14.217  11.814  13.790
  721SOL    HW1 4002  14.239  11.900  13.754
  721SOL    HW2 4003  14.126  11.824  13.820
  722SOL     OW 4004   8.275  10.920   6.457
  722SOL    HW1 4005   8.190  10.961   6.444
  722SOL    HW2 4006   8.280  10.903   6.551
  723SOL     OW 4007  11.415   3.764   2.939
  723SOL    HW1 4008  11.377   3.842   2.978
  723SOL    HW2 4009  11.341   3.704   2.928
  724SOL     OW 4010  14.292   6.203  12.867
  724SOL    HW1 4011  14.303   6.129  12.926
  724SOL    HW2 4012  14.288   6.163  12.780
  725SOL     OW 4013   3.957   8.797   7.370
  725SOL    HW1 4014   4.011   8.743   7.426
  725SOL    HW2 4015   4.012   8.873   7.348
  726SOL     OW 4016   9.185  11.497  10.415
  726SOL    HW1 4017   9.129  11.436  10.464
  726SOL    HW2 4018   9.272  11.485  10.451
  727SOL     OW 4019   5.542   8.161   8.838
  727SOL    HW1 4020   5.532   8.078   8.885
  727SOL    HW2 4021   5.625   8.196   8.870
  728SOL     OW 4022  14.442   8.812   8.661
  728SOL    HW1 4023  14.432   8.808   8.566
  728SOL    HW2 4024  14.518   8.757   8.680
  729SOL     OW 4025   7.005  13.733   6.142
  729SOL    HW1 4026   7.074  13.667   6.153
  729SOL    HW2 4027   6.960  13.735   6.226
  730SOL     OW 4028   3.082   9.925  13.058
  730SOL    HW1 4029   3.177   9.914  13.049
  730SOL    HW2 4030   3.072   9.972  13.141
  731SOL     OW 4031  10.925   8.462   8.499
  731SOL    HW1 4032  10.870   8.468   8.420
  731SOL    HW2 4033  10.996   8.524   8.484
  732SOL     OW 4034   7.986  12.233   3.147
  732SOL    HW1 4035   8.033  12.183   3.214
  732SOL    HW2 4036   7.934  12.167   3.101
  733SOL     OW 4037  10.928   1.928   6.902
  733SOL    HW1 4038  10.920   1.848   6.954
  733SOL    HW2 4039  11.008   1.915   6.851
  734SOL     OW 4040   7.978   8.059  13.261
  734SOL    HW1 4041   7.912   8.094  13.201
  734SOL    HW2 4042   8.005   7.976  13.222
  735SOL     OW 4043   3.673   4.300   0.805
  735SOL    HW1 4044   3.729   4.252   0.744
  735SOL    HW2 4045   3.731   4.326   0.877
  736SOL     OW 4046   8.991   7.357   9.004
  736SOL    HW1 4047   8.912   7.379   8.954
  736SOL    HW2 4048   8.964   7.284   9.059
  737SOL     OW 4049   2.520   4.635   9.002
  737SOL    HW1 4050   2.537   4.636   9.096
  737SOL    HW2 4051   2.425   4.623   8.995
  738SOL     OW 4052  13.583   9.759   0.830
  738SOL    HW1 4053  13.641   9.805   0.770
  738SOL    HW2 4054  13.613   9.786   0.917
  739SOL     OW 4055   5.763   5.642   7.236
  739SOL    HW1 4056   5.714   5.565   7.266
  739SOL    HW2 4057   5.820   5.663   7.310
  740SOL     OW 4058   1.824   8.035   0.288
  740SOL    HW1 4059   1.854   8.071   0.372
  740SOL    HW2 4060   1.759   7.969   0.313
  741SOL     OW 4061  11.478  10.237   1.054
  741SOL    HW1 4062  11.420  10.220   0.980
  741SOL    HW2 4063  11.421  10.269   1.123
  742SOL     OW 4064  14.462  10.054   6.441
  742SOL    HW1 4065  14.430  10.089   6.524
  742SOL    HW2 4066  14.545  10.100   6.426
  743SOL     OW 4067   0.355   0.429  11.304
  743SOL    HW1 4068   0.271   0.418  11.349
  743SOL    HW2 4069   0.350   0.368  11.230
  744SOL     OW 4070   2.579   1.897  11.464
  744SOL    HW1 4071   2.495   1.924  11.502
  744SOL    HW2 4072   2.644   1.943  11.517
  745SOL     OW 4073   8.987   1.615  11.615
  745SOL    HW1 4074   9.020   1.525  11.615
  745SOL    HW2 4075   8.974   1.635  11.522
  746SOL     OW 4076   7.727  14.611   2.134
  746SOL    HW1 4077   7.768  14.623   2.219
  746SOL    HW2 4078   7.641  14.652   2.143
  747SOL     OW 4079  10.877   2.278   4.603
  747SOL    HW1 4080  10.799   2.321   4.638
  747SOL    HW2 4081  10.875   2.190   4.642
  748SOL     OW 4082   7.846   0.472  12.867
  748SOL    HW1 4083   7.756   0.451  12.891
  748SOL    HW2 4084   7.871   0.543  12.927
  749SOL     OW 4085  11.124   2.223  12.147
  749SOL    HW1 4086  11.096   2.233  12.055
  749SOL    HW2 4087  11.088   2.138  12.174
  750SOL     OW 4088  11.065   3.425   6.573
  750SOL    HW1 4089  11.030   3.343   6.536
  750SOL    HW2 4090  10.988   3.478   6.590
  751SOL     OW 4091   1.992   7.557   0.211
  751SOL    HW1 4092   2.012   7.639   0.255
  751SOL    HW2 4093   1.989   7.580   0.118
  752SOL     OW 4094  11.897   6.108   8.690
  752SOL    HW1 4095  11.982   6.123   8.733
  752SOL    HW2 4096  11.866   6.195   8.666
  753SOL     OW 4097   8.734  12.830   5.216
  753SOL    HW1 4098   8.652  12.812   5.169
  753SOL    HW2 4099   8.792  12.866   5.149
  754SOL     OW 4100   1.694   8.161  14.645
  754SOL    HW1 4101   1.662   8.103  14.715
  754SOL    HW2 4102   1.763   8.110  14.602
  755SOL     OW 4103   7.191  14.296   5.464
  755SOL    HW1 4104   7.210  14.267   5.553
  755SOL    HW2 4105   7.113  14.351   5.472
  756SOL     OW 4106  13.515   0.547   1.404
  756SOL    HW1 4107  13.603   0.546   1.368
  756SOL    HW2 4108  13.457   0.549   1.328
  757SOL     OW 4109   8.672   6.967  10.528
  757SOL    HW1 4110   8.750   6.950  10.580
  757SOL    HW2 4111   8.682   7.058  10.499
  758SOL     OW 4112  14.856   0.526   3.983
  758SOL    HW1 4113   0.043   0.466   4.011
  758SOL    HW2 4114  14.862   0.527   3.888
  759SOL     OW 4115   7.544   2.579   7.820
  759SOL    HW1 4116   7.457   2.611   7.795
  759SOL    HW2 4117   7.526   2.497   7.866
  760SOL     OW 4118   8.129  11.923  14.204
  760SOL    HW1 4119   8.100  11.889  14.289
  760SOL    HW2 4120   8.105  11.855  14.141
  761SOL     OW 4121   6.303   5.760  10.017
  761SOL    HW1 4122   6.226   5.708  10.039
  761SOL    HW2 4123   6.304   5.763   9.922
  762SOL     OW 4124  11.632  13.510   4.354
  762SOL    HW1 4125  11.566  13.519   4.285
  762SOL    HW2 4126  11.581  13.487   4.432
  763SOL     OW 4127   4.856   3.591  14.641
  763SOL    HW1 4128   4.818   3.628  14.720
  763SOL    HW2 4129   4.781   3.571  14.585
  764SOL     OW 4130  12.238   7.358  13.181
  764SOL    HW1 4131  12.236   7.400  13.095
  764SOL    HW2 4132  12.313   7.398  13.226
  765SOL     OW 4133   7.326  11.378  10.030
  765SOL    HW1 4134   7.338  11.288  10.000
  765SOL    HW2 4135   7.413  11.405  10.060
  766SOL     OW 4136   8.022   0.108   5.113
  766SOL    HW1 4137   8.064   0.088   5.029
  766SOL    HW2 4138   7.962   0.180   5.093
  767SOL     OW 4139  14.603  10.981   1.506
  767SOL    HW1 4140  14.693  10.973   1.474
  767SOL    HW2 4141  14.603  10.936   1.591
  768SOL     OW 4142   8.898  12.998  13.457
  768SOL    HW1 4143   8.993  12.992  13.453
  768SOL    HW2 4144   8.867  12.918  13.414
  769SOL     OW 4145   6.770   7.726  12.615
  769SOL    HW1 4146   6.824   7.666  12.563
  769SOL    HW2 4147   6.807   7.722  12.703
  770SOL     OW 4148   8.051  12.166   5.673
  770SOL    HW1 4149   8.137  12.162   5.716
  770SOL    HW2 4150   8.070  12.193   5.584
  771SOL     OW 4151   0.531   9.217   2.006
  771SOL    HW1 4152   0.468   9.277   2.045
  771SOL    HW2 4153   0.558   9.260   1.925
  772SOL     OW 4154   7.425  11.961   8.083
  772SOL    HW1 4155   7.339  11.985   8.116
  772SOL    HW2 4156   7.410  11.934   7.993
  773SOL     OW 4157   6.309   4.109   9.838
  773SOL    HW1 4158   6.379   4.112   9.903
  773SOL    HW2 4159   6.304   4.017   9.812
  774SOL     OW 4160  12.447  10.684  14.736
  774SOL    HW1 4161  12.503  10.762  14.734
  774SOL    HW2 4162  12.508  10.613  14.756
  775SOL     OW 4163   1.652   7.487   4.834
  775SOL    HW1 4164   1.728   7.464   4.887
  775SOL    HW2 4165   1.583   7.427   4.863
  776SOL     OW 4166   3.040   6.551   0.309
  776SOL    HW1 4167   2.990   6.598   0.243
  776SOL    HW2 4168   2.973   6.507   0.363
  777SOL     OW 4169  13.456   2.921  12.171
  777SOL    HW1 4170  13.447   2.932  12.266
  777SOL    HW2 4171  13.386   2.974  12.134
  778SOL     OW 4172  14.290  13.204  10.535
  778SOL    HW1 4173  14.222  13.222  10.600
  778SOL    HW2 4174  14.325  13.290  10.513
  779SOL     OW 4175   3.097   0.756   7.008
  779SOL    HW1 4176   3.037   0.825   6.980
  779SOL    HW2 4177   3.041   0.679   7.021
  780SOL     OW 4178  11.250   3.524   9.816
  780SOL    HW1 4179  11.245   3.540   9.911
  780SOL    HW2 4180  11.340   3.547   9.793
  781SOL     OW 4181   3.107   1.930   8.067
  781SOL    HW1 4182   3.113   2.021   8.098
  781SOL    HW2 4183   3.117   1.937   7.972
  782SOL     OW 4184   8.305  12.039   7.976
  782SOL    HW1 4185   8.334  11.954   7.944
  782SOL    HW2 4186   8.322  12.036   8.070
  783SOL     OW 4187  11.909   5.306  14.309
  783SOL    HW1 4188  11.945   5.217  14.300
  783SOL    HW2 4189  11.887   5.313  14.402
  784SOL     OW 4190   2.748   9.269   7.249
  784SOL    HW1 4191   2.790   9.209   7.186
  784SOL    HW2 4192   2.808   9.343   7.255
  785SOL     OW 4193   4.074   0.595  14.665
  785SOL    HW1 4194   4.019   0.617  14.741
  785SOL    HW2 4195   4.028   0.635  14.591
  786SOL     OW 4196   2.036   0.913   6.005
  786SOL    HW1 4197   2.109   0.900   6.067
  786SOL    HW2 4198   1.979   0.838   6.018
  787SOL     OW 4199   3.945   3.693   1.315
  787SOL    HW1 4200   3.951   3.779   1.357
  787SOL    HW2 4201   3.852   3.680   1.299
  788SOL     OW 4202   0.762   7.228   6.439
  788SOL    HW1 4203   0.767   7.291   6.510
  788SOL    HW2 4204   0.801   7.148   6.476
  789SOL     OW 4205   4.454   3.731   5.153
  789SOL    HW1 4206   4.498   3.793   5.094
  789SOL    HW2 4207   4.500   3.739   5.236
  790SOL     OW 4208   3.686   1.495   4.140
  790SOL    HW1 4209   3.754   1.543   4.188
  790SOL    HW2 4210   3.631   1.563   4.102
  791SOL     OW 4211   2.243  12.848  10.618
  791SOL    HW1 4212   2.223  12.932  10.578
  791SOL    HW2 4213   2.306  12.869  10.687
  792SOL     OW 4214   2.753   0.665   3.198
  792SOL    HW1 4215   2.736   0.701   3.111
  792SOL    HW2 4216   2.766   0.742   3.254
  793SOL     OW 4217  11.391   7.202   4.218
  793SOL    HW1 4218  11.466   7.236   4.266
  793SOL    HW2 4219  11.377   7.114   4.253
  794SOL     OW 4220  13.222   4.548  14.498
  794SOL    HW1 4221  13.174   4.495  14.435
  794SOL    HW2 4222  13.260   4.619  14.446
  795SOL     OW 4223  14.593  14.205   2.678
  795SOL    HW1 4224  14.570  14.215   2.771
  795SOL    HW2 4225  14.551  14.123   2.652
  796SOL     OW 4226   0.394  10.462  14.363
  796SOL    HW1 4227   0.445  10.531  14.322
  796SOL    HW2 4228   0.352  10.504  14.438
  797SOL     OW 4229   6.786   7.825  14.083
  797SOL    HW1 4230   6.715   7.888  14.078
  797SOL    HW2 4231   6.804   7.802  13.992
  798SOL     OW 4232  10.758   4.402  13.424
  798SOL    HW1 4233  10.696   4.411  13.352
  798SOL    HW2 4234  10.730   4.323  13.470
  799SOL     OW 4235   5.754   3.365   8.230
  799SOL    HW1 4236   5.816   3.406   8.170
  799SOL    HW2 4237   5.806   3.340   8.306
  800SOL     OW 4238   0.823  14.293   8.336
  800SOL    HW1 4239   0.908  14.304   8.379
  800SOL    HW2 4240   0.758  14.312   8.404
  801SOL     OW 4241   7.192   4.679   4.122
  801SOL    HW1 4242   7.176   4.593   4.082
  801SOL    HW2 4243   7.235   4.730   4.053
  802SOL     OW 4244   1.927   9.811  10.786
  802SOL    HW1 4245   1.907   9.845  10.873
  802SOL    HW2 4246   2.022   9.816  10.779
  803SOL     OW 4247  13.404  11.840   3.398
  803SOL    HW1 4248  13.380  11.851   3.306
  803SOL    HW2 4249  13.321  11.825   3.443
  804SOL     OW 4250   7.526  14.723  10.303
  804SOL    HW1 4251   7.525  14.690  10.393
  804SOL    HW2 4252   7.445  14.691  10.264
  805SOL     OW 4253  12.717   9.428   8.482
  805SOL    HW1 4254  12.786   9.398   8.424
  805SOL    HW2 4255  12.637   9.420   8.431
  806SOL     OW 4256   9.202   9.751   8.509
  806SOL    HW1 4257   9.225   9.774   8.599
  806SOL    HW2 4258   9.111   9.780   8.499
  807SOL     OW 4259  13.901   9.647   8.314
  807SOL    HW1 4260  13.896   9.712   8.244
  807SOL    HW2 4261  13.814   9.649   8.355
  808SOL     OW 4262   9.844   6.934  11.176
  808SOL    HW1 4263   9.765   6.956  11.226
  808SOL    HW2 4264   9.828   6.846  11.142
  809SOL     OW 4265  12.261   2.992   9.553
  809SOL    HW1 4266  12.189   2.991   9.616
  809SOL    HW2 4267  12.263   3.083   9.522
  810SOL     OW 4268  14.785   7.641   8.555
  810SOL    HW1 4269  14.768   7.560   8.508
  810SOL    HW2 4270  14.809   7.704   8.487
  811SOL     OW 4271   1.408   1.559   5.174
  811SOL    HW1 4272   1.436   1.590   5.087
  811SOL    HW2 4273   1.490   1.541   5.220
  812SOL     OW 4274   3.295  13.609   8.595
  812SOL    HW1 4275   3.365  13.551   8.567
  812SOL    HW2 4276   3.336  13.696   8.600
  813SOL     OW 4277   2.405   3.324  10.220
  813SOL    HW1 4278   2.478   3.306  10.160
  813SOL    HW2 4279   2.330   3.341  10.162
  814SOL     OW 4280   7.167   0.253   3.849
  814SOL    HW1 4281   7.104   0.320   3.824
  814SOL    HW2 4282   7.171   0.194   3.773
  815SOL     OW 4283   3.301   6.443   2.612
  815SOL    HW1 4284   3.231   6.489   2.659
  815SOL    HW2 4285   3.312   6.494   2.531
  816SOL     OW 4286  14.417   2.888  14.619
  816SOL    HW1 4287  14.398   2.941  14.542
  816SOL    HW2 4288  14.506   2.856  14.605
  817SOL     OW 4289  14.698   1.016   4.218
  817SOL    HW1 4290  14.680   1.055   4.132
  817SOL    HW2 4291  14.658   1.076   4.280
  818SOL     OW 4292   9.768   7.893   9.806
  818SOL    HW1 4293   9.779   7.798   9.813
  818SOL    HW2 4294   9.674   7.905   9.791
  819SOL     OW 4295  11.645  13.094   9.516
  819SOL    HW1 4296  11.593  13.038   9.575
  819SOL    HW2 4297  11.726  13.045   9.502
  820SOL     OW 4298   4.113   2.068   1.436
  820SOL    HW1 4299   4.130   2.146   1.383
  820SOL    HW2 4300   4.107   1.996   1.373
  821SOL     OW 4301   9.996   3.439   0.609
  821SOL    HW1 4302   9.903   3.450   0.588
  821SOL    HW2 4303  10.038   3.423   0.525
  822SOL     OW 4304  14.611   9.243   5.782
  822SOL    HW1 4305  14.606   9.150   5.805
  822SOL    HW2 4306  14.653   9.284   5.858
  823SOL     OW 4307  10.399  10.816   6.182
  823SOL    HW1 4308  10.335  10.787   6.116
  823SOL    HW2 4309  10.346  10.837   6.259
  824SOL     OW 4310   3.294  10.971  11.471
  824SOL    HW1 4311   3.285  11.007  11.559
  824SOL    HW2 4312   3.240  10.892  11.471
  825SOL     OW 4313   3.292   8.646   2.634
  825SOL    HW1 4314   3.368   8.704   2.632
  825SOL    HW2 4315   3.290   8.604   2.548
  826SOL     OW 4316   3.335   3.111   0.569
  826SOL    HW1 4317   3.280   3.058   0.626
  826SOL    HW2 4318   3.424   3.098   0.603
  827SOL     OW 4319   9.831  14.086   0.283
  827SOL    HW1 4320   9.870  14.170   0.258
  827SOL    HW2 4321   9.753  14.109   0.332
  828SOL     OW 4322   0.434   7.647   3.921
  828SOL    HW1 4323   0.359   7.589   3.921
  828SOL    HW2 4324   0.401   7.731   3.888
  829SOL     OW 4325  11.873   9.910  11.050
  829SOL    HW1 4326  11.822   9.834  11.023
  829SOL    HW2 4327  11.878   9.903  11.145
  830SOL     OW 4328   1.964   1.412  10.625
  830SOL    HW1 4329   1.952   1.418  10.530
  830SOL    HW2 4330   1.922   1.330  10.649
  831SOL     OW 4331  10.222   9.198  12.378
  831SOL    HW1 4332  10.131   9.184  12.353
  831SOL    HW2 4333  10.261   9.248  12.306
  832SOL     OW 4334   8.762  13.035   5.660
  832SOL    HW1 4335   8.677  13.073   5.641
  832SOL    HW2 4336   8.764  12.953   5.611
  833SOL     OW 4337   7.598   3.584   9.201
  833SOL    HW1 4338   7.592   3.557   9.109
  833SOL    HW2 4339   7.599   3.680   9.197
  834SOL     OW 4340   8.989  12.795   0.486
  834SOL    HW1 4341   8.958  12.835   0.405
  834SOL    HW2 4342   8.921  12.733   0.510
  835SOL     OW 4343   5.642  13.305  12.585
  835SOL    HW1 4344   5.551  13.284  12.564
  835SOL    HW2 4345   5.635  13.380  12.645
  836SOL     OW 4346  12.277   5.409   3.517
  836SOL    HW1 4347  12.262   5.356   3.595
  836SOL    HW2 4348  12.259   5.349   3.444
  837SOL     OW 4349  11.282   1.615  13.663
  837SOL    HW1 4350  11.251   1.525  13.657
  837SOL    HW2 4351  11.232   1.663  13.597
  838SOL     OW 4352  13.884   9.090   7.914
  838SOL    HW1 4353  13.961   9.127   7.958
  838SOL    HW2 4354  13.850   9.162   7.861
  839SOL     OW 4355  14.727  13.636   2.630
  839SOL    HW1 4356  14.673  13.603   2.558
  839SOL    HW2 4357  14.802  13.677   2.586
  840SOL     OW 4358  10.532   3.562   6.833
  840SOL    HW1 4359  10.537   3.507   6.755
  840SOL    HW2 4360  10.469   3.631   6.811
  841SOL     OW 4361  10.102  11.970  13.728
  841SOL    HW1 4362  10.121  11.927  13.811
  841SOL    HW2 4363  10.177  12.029  13.714
  842SOL     OW 4364  13.353  12.761   6.754
  842SOL    HW1 4365  13.440  12.721   6.764
  842SOL    HW2 4366  13.371  12.853   6.734
  843SOL     OW 4367   5.842   9.440   3.761
  843SOL    HW1 4368   5.761   9.477   3.796
  843SOL    HW2 4369   5.910   9.471   3.821
  844SOL     OW 4370  13.745  14.417   0.223
  844SOL    HW1 4371  13.659  14.455   0.207
  844SOL    HW2 4372  13.786  14.414   0.136
  845SOL     OW 4373  12.094   2.572   8.603
  845SOL    HW1 4374  12.081   2.511   8.531
  845SOL    HW2 4375  12.188   2.565   8.624
  846SOL     OW 4376   7.825  13.868   9.575
  846SOL    HW1 4377   7.902  13.828   9.534
  846SOL    HW2 4378   7.824  13.830   9.663
  847SOL     OW 4379  10.656   3.694   0.059
  847SOL    HW1 4380  10.695   3.779   0.080
  847SOL    HW2 4381  10.724   3.630   0.082
  848SOL     OW 4382   8.762  10.329  11.722
  848SOL    HW1 4383   8.826  10.348  11.791
  848SOL    HW2 4384   8.682  10.306  11.769
  849SOL     OW 4385   9.486  13.045  11.465
  849SOL    HW1 4386   9.508  12.953  11.482
  849SOL    HW2 4387   9.491  13.054  11.370
  850SOL     OW 4388   3.661   2.826   3.127
  850SOL    HW1 4389   3.575   2.859   3.101
  850SOL    HW2 4390   3.692   2.778   3.050
  851SOL     OW 4391   9.580   9.169  12.702
  851SOL    HW1 4392   9.600   9.247  12.755
  851SOL    HW2 4393   9.587   9.200  12.611
  852SOL     OW 4394   3.217  10.185   5.892
  852SOL    HW1 4395   3.236  10.243   5.818
  852SOL    HW2 4396   3.233  10.239   5.969
  853SOL     OW 4397   9.783   3.864   9.836
  853SOL    HW1 4398   9.863   3.812   9.839
  853SOL    HW2 4399   9.727   3.825   9.902
  854SOL     OW 4400  13.870  10.775   4.330
  854SOL    HW1 4401  13.941  10.838   4.320
  854SOL    HW2 4402  13.899  10.717   4.401
  855SOL     OW 4403  11.391   7.378   3.506
  855SOL    HW1 4404  11.323   7.337   3.560
  855SOL    HW2 4405  11.466   7.386   3.565
  856SOL     OW 4406  14.018   1.230  14.705
  856SOL    HW1 4407  13.925   1.207  14.696
  856SOL    HW2 4408  14.032   1.233  14.800
  857SOL     OW 4409   0.524   5.585   7.834
  857SOL    HW1 4410   0.443   5.560   7.878
  857SOL    HW2 4411   0.562   5.653   7.890
  858SOL     OW 4412  13.104   3.619  13.014
  858SOL    HW1 4413  13.088   3.528  13.039
  858SOL    HW2 4414  13.194   3.620  12.982
  859SOL     OW 4415   1.548   6.097   7.611
  859SOL    HW1 4416   1.472   6.109   7.668
  859SOL    HW2 4417   1.563   6.183   7.572
  860SOL     OW 4418   3.095   8.795  10.645
  860SOL    HW1 4419   3.109   8.811  10.739
  860SOL    HW2 4420   3.101   8.882  10.605
  861SOL     OW 4421  12.765  12.149   0.811
  861SOL    HW1 4422  12.776  12.237   0.846
  861SOL    HW2 4423  12.692  12.112   0.861
  862SOL     OW 4424   9.552   2.792   6.493
  862SOL    HW1 4425   9.543   2.879   6.533
  862SOL    HW2 4426   9.645   2.771   6.502
  863SOL     OW 4427  11.761   6.322   4.567
  863SOL    HW1 4428  11.782   6.229   4.570
  863SOL    HW2 4429  11.668   6.326   4.589
  864SOL     OW 4430   1.852  11.818   5.087
  864SOL    HW1 4431   1.935  11.866   5.097
  864SOL    HW2 4432   1.832  11.785   5.174
  865SOL     OW 4433   9.299   6.441   5.003
  865SOL    HW1 4434   9.250   6.364   5.032
  865SOL    HW2 4435   9.287   6.506   5.072
  866SOL     OW 4436  12.750   7.620   8.871
  866SOL    HW1 4437  12.760   7.669   8.789
  866SOL    HW2 4438  12.833   7.631   8.916
  867SOL     OW 4439  12.083   8.004  10.828
  867SOL    HW1 4440  12.156   7.955  10.865
  867SOL    HW2 4441  12.007   7.947  10.840
  868SOL     OW 4442   2.906   4.240  10.885
  868SOL    HW1 4443   2.958   4.312  10.849
  868SOL    HW2 4444   2.971   4.178  10.917
  869SOL     OW 4445  11.134   9.936  12.771
  869SOL    HW1 4446  11.183   9.951  12.690
  869SOL    HW2 4447  11.065  10.002  12.770
  870SOL     OW 4448   6.686   0.309   3.377
  870SOL    HW1 4449   6.759   0.370   3.364
  870SOL    HW2 4450   6.697   0.243   3.307
  871SOL     OW 4451   9.019  14.244  11.515
  871SOL    HW1 4452   9.050  14.245  11.424
  871SOL    HW2 4453   9.099  14.258  11.567
  872SOL     OW 4454  12.720  14.105   0.431
  872SOL    HW1 4455  12.707  14.076   0.341
  872SOL    HW2 4456  12.812  14.131   0.435
  873SOL     OW 4457   9.408   8.778   2.739
  873SOL    HW1 4458   9.493   8.760   2.699
  873SOL    HW2 4459   9.345   8.764   2.668
  874SOL     OW 4460   1.695   7.581   8.318
  874SOL    HW1 4461   1.629   7.643   8.286
  874SOL    HW2 4462   1.654   7.540   8.394
  875SOL     OW 4463  11.783   7.862   6.383
  875SOL    HW1 4464  11.732   7.831   6.458
  875SOL    HW2 4465  11.859   7.804   6.380
  876SOL     OW 4466   2.522  12.115  14.779
  876SOL    HW1 4467   2.432  12.097  14.806
  876SOL    HW2 4468   2.568  12.032  14.791
  877SOL     OW 4469   2.686   7.415   5.814
  877SOL    HW1 4470   2.624   7.344   5.800
  877SOL    HW2 4471   2.758   7.376   5.864
  878SOL     OW 4472   4.553   2.992   4.938
  878SOL    HW1 4473   4.611   3.068   4.936
  878SOL    HW2 4474   4.474   3.023   4.983
  879SOL     OW 4475   3.581  13.073   6.375
  879SOL    HW1 4476   3.494  13.068   6.414
  879SOL    HW2 4477   3.603  13.167   6.377
  880SOL     OW 4478  10.296   4.908  12.309
  880SOL    HW1 4479  10.228   4.971  12.330
  880SOL    HW2 4480  10.251   4.824  12.301
  881SOL     OW 4481   1.083   4.327  14.795
  881SOL    HW1 4482   1.148   4.383  14.753
  881SOL    HW2 4483   1.104   4.332   0.006
  882SOL     OW 4484   8.200   8.351   4.282
  882SOL    HW1 4485   8.122   8.393   4.246
  882SOL    HW2 4486   8.178   8.258   4.285
  883SOL     OW 4487   8.394   1.951  12.369
  883SOL    HW1 4488   8.365   1.967  12.280
  883SOL    HW2 4489   8.375   1.858  12.385
  884SOL     OW 4490   2.351   6.205  13.124
  884SOL    HW1 4491   2.422   6.266  13.101
  884SOL    HW2 4492   2.367   6.183  13.216
  885SOL     OW 4493  10.282   1.142   2.507
  885SOL    HW1 4494  10.200   1.174   2.542
  885SOL    HW2 4495  10.344   1.214   2.520
  886SOL     OW 4496   7.362   9.417   2.704
  886SOL    HW1 4497   7.412   9.343   2.668
  886SOL    HW2 4498   7.413   9.494   2.681
  887SOL     OW 4499   2.839   0.918   4.488
  887SOL    HW1 4500   2.919   0.865   4.484
  887SOL    HW2 4501   2.871   1.007   4.507
  888SOL     OW 4502  13.581  14.656   6.044
  888SOL    HW1 4503  13.588  14.689   5.954
  888SOL    HW2 4504  13.640  14.580   6.046
  889SOL     OW 4505   0.815   8.258  12.122
  889SOL    HW1 4506   0.743   8.318  12.103
  889SOL    HW2 4507   0.797   8.225  12.210
  890SOL     OW 4508   8.211  13.590  14.621
  890SOL    HW1 4509   8.126  13.597  14.665
  890SOL    HW2 4510   8.192  13.546  14.538
  891SOL     OW 4511   2.747  10.953   2.790
  891SOL    HW1 4512   2.691  10.983   2.862
  891SOL    HW2 4513   2.731  10.859   2.785
  892SOL     OW 4514   7.920   7.196  14.701
  892SOL    HW1 4515   7.976   7.146  14.643
  892SOL    HW2 4516   7.831   7.165  14.682
  893SOL     OW 4517   9.840   1.510  10.957
  893SOL    HW1 4518   9.778   1.580  10.937
  893SOL    HW2 4519   9.921   1.556  10.978
  894SOL     OW 4520   6.060  10.219   2.028
  894SOL    HW1 4521   6.124  10.151   2.050
  894SOL    HW2 4522   5.975  10.180   2.047
  895SOL     OW 4523  12.167   8.722   7.900
  895SOL    HW1 4524  12.101   8.790   7.911
  895SOL    HW2 4525  12.159   8.667   7.978
  896SOL     OW 4526   8.078  12.239   7.881
  896SOL    HW1 4527   8.091  12.145   7.895
  896SOL    HW2 4528   7.995  12.258   7.926
  897SOL     OW 4529   3.751   2.294   0.590
  897SOL    HW1 4530   3.802   2.272   0.668
  897SOL    HW2 4531   3.751   2.390   0.587
  898SOL     OW 4532   4.790  12.945   6.061
  898SOL    HW1 4533   4.796  12.930   6.155
  898SOL    HW2 4534   4.733  12.875   6.029
  899SOL     OW 4535   1.062  12.160   5.655
  899SOL    HW1 4536   0.986  12.146   5.711
  899SOL    HW2 4537   1.105  12.237   5.694
  900SOL     OW 4538   5.591   0.379   9.780
  900SOL    HW1 4539   5.635   0.456   9.744
  900SOL    HW2 4540   5.630   0.306   9.732
  901SOL     OW 4541  13.584  13.625   5.159
  901SOL    HW1 4542  13.557  13.701   5.108
  901SOL    HW2 4543  13.576  13.654   5.250
  902SOL     OW 4544   7.960  12.145   3.651
  902SOL    HW1 4545   7.967  12.092   3.572
  902SOL    HW2 4546   7.875  12.122   3.689
  903SOL     OW 4547   7.114   6.048  10.085
  903SOL    HW1 4548   7.027   6.081  10.106
  903SOL    HW2 4549   7.125   6.067   9.992
  904SOL     OW 4550   7.687   9.998   8.080
  904SOL    HW1 4551   7.641   9.965   8.157
  904SOL    HW2 4552   7.618  10.010   8.014
  905SOL     OW 4553  12.636  10.927   6.571
  905SOL    HW1 4554  12.578  10.887   6.505
  905SOL    HW2 4555  12.655  11.014   6.536
  906SOL     OW 4556   4.180   8.949  14.187
  906SOL    HW1 4557   4.254   8.978  14.240
  906SOL    HW2 4558   4.132   8.889  14.245
  907SOL     OW 4559  14.609   0.500   4.391
  907SOL    HW1 4560  14.650   0.481   4.476
  907SOL    HW2 4561  14.621   0.595   4.380
  908SOL     OW 4562  10.558   8.297  12.280
  908SOL    HW1 4563  10.536   8.275  12.189
  908SOL    HW2 4564  10.549   8.215  12.327
  909SOL     OW 4565   9.663   3.722   8.525
  909SOL    HW1 4566   9.689   3.766   8.606
  909SOL    HW2 4567   9.627   3.638   8.554
  910SOL     OW 4568   7.951  10.876   8.320
  910SOL    HW1 4569   7.959  10.841   8.408
  910SOL    HW2 4570   7.941  10.971   8.333
  911SOL     OW 4571   4.069   1.832   4.852
  911SOL    HW1 4572   4.133   1.900   4.831
  911SOL    HW2 4573   4.097   1.797   4.936
  912SOL     OW 4574   3.897   9.169   8.273
  912SOL    HW1 4575   3.984   9.205   8.289
  912SOL    HW2 4576   3.855   9.170   8.359
  913SOL     OW 4577   9.057   1.087  10.689
  913SOL    HW1 4578   8.996   1.059  10.758
  913SOL    HW2 4579   9.084   1.006  10.647
  914SOL     OW 4580   8.971  10.818  13.888
  914SOL    HW1 4581   9.041  10.878  13.863
  914SOL    HW2 4582   8.922  10.865  13.955
  915SOL     OW 4583   2.143   3.846   8.571
  915SOL    HW1 4584   2.137   3.922   8.629
  915SOL    HW2 4585   2.231   3.851   8.534
  916SOL     OW 4586   3.206  10.791  12.134
  916SOL    HW1 4587   3.191  10.882  12.107
  916SOL    HW2 4588   3.299  10.776  12.115
  917SOL     OW 4589   5.966   6.033   5.659
  917SOL    HW1 4590   5.962   6.110   5.715
  917SOL    HW2 4591   5.878   5.994   5.666
  918SOL     OW 4592  12.218   3.495   3.811
  918SOL    HW1 4593  12.190   3.549   3.885
  918SOL    HW2 4594  12.261   3.556   3.751
  919SOL     OW 4595  12.089  11.461  13.778
  919SOL    HW1 4596  12.161  11.524  13.783
  919SOL    HW2 4597  12.023  11.494  13.839
  920SOL     OW 4598   0.288  11.831  10.879
  920SOL    HW1 4599   0.197  11.859  10.879
  920SOL    HW2 4600   0.291  11.758  10.940
  921SOL     OW 4601   3.462   3.615   1.549
  921SOL    HW1 4602   3.378   3.587   1.588
  921SOL    HW2 4603   3.518   3.538   1.557
  922SOL     OW 4604  14.452  14.550  11.428
  922SOL    HW1 4605  14.503  14.469  11.419
  922SOL    HW2 4606  14.463  14.594  11.344
  923SOL     OW 4607  11.226   8.540  11.380
  923SOL    HW1 4608  11.198   8.561  11.469
  923SOL    HW2 4609  11.277   8.616  11.352
  924SOL     OW 4610   7.712   2.924  10.100
  924SOL    HW1 4611   7.703   2.900  10.192
  924SOL    HW2 4612   7.805   2.947  10.090
  925SOL     OW 4613   2.447   1.575   0.227
  925SOL    HW1 4614   2.503   1.510   0.270
  925SOL    HW2 4615   2.478   1.659   0.261
  926SOL     OW 4616   3.174  14.468   1.027
  926SOL    HW1 4617   3.157  14.455   0.933
  926SOL    HW2 4618   3.209  14.384   1.057
  927SOL     OW 4619   9.679  11.043  14.040
  927SOL    HW1 4620   9.741  11.116  14.034
  927SOL    HW2 4621   9.703  10.986  13.967
  928SOL     OW 4622  11.145  11.497   3.460
  928SOL    HW1 4623  11.124  11.563   3.527
  928SOL    HW2 4624  11.142  11.545   3.378
  929SOL     OW 4625  11.445   4.430  14.573
  929SOL    HW1 4626  11.489   4.425  14.658
  929SOL    HW2 4627  11.353   4.440  14.594
  930SOL     OW 4628   5.358  12.415  13.075
  930SOL    HW1 4629   5.275  12.432  13.031
  930SOL    HW2 4630   5.420  12.396  13.004
  931SOL     OW 4631   0.627  10.129   5.021
  931SOL    HW1 4632   0.698  10.065   5.029
  931SOL    HW2 4633   0.609  10.156   5.111
  932SOL     OW 4634   7.856  11.506  14.439
  932SOL    HW1 4635   7.944  11.489  14.406
  932SOL    HW2 4636   7.864  11.588  14.488
  933SOL     OW 4637   8.936   3.566  14.439
  933SOL    HW1 4638   8.989   3.521  14.373
  933SOL    HW2 4639   8.849   3.573  14.399
  934SOL     OW 4640  13.551  10.507   0.182
  934SOL    HW1 4641  13.488  10.542   0.246
  934SOL    HW2 4642  13.637  10.524   0.221
  935SOL     OW 4643  14.874   2.758  10.992
  935SOL    HW1 4644  14.836   2.844  11.012
  935SOL    HW2 4645  14.803   2.710  10.949
  936SOL     OW 4646  12.885   7.832   0.878
  936SOL    HW1 4647  12.811   7.874   0.834
  936SOL    HW2 4648  12.860   7.831   0.971
  937SOL     OW 4649   5.261   5.511  11.590
  937SOL    HW1 4650   5.222   5.568  11.524
  937SOL    HW2 4651   5.299   5.439  11.540
  938SOL     OW 4652  11.253  10.304   4.574
  938SOL    HW1 4653  11.195  10.377   4.552
  938SOL    HW2 4654  11.250  10.300   4.670
  939SOL     OW 4655   0.742   4.373   1.939
  939SOL    HW1 4656   0.746   4.435   2.012
  939SOL    HW2 4657   0.828   4.378   1.898
  940SOL     OW 4658  10.183  14.712   7.849
  940SOL    HW1 4659  10.253  14.652   7.878
  940SOL    HW2 4660  10.117  14.706   7.919
  941SOL     OW 4661   4.205   4.554   5.781
  941SOL    HW1 4662   4.204   4.642   5.744
  941SOL    HW2 4663   4.155   4.562   5.862
  942SOL     OW 4664  14.283   4.480  11.260
  942SOL    HW1 4665  14.208   4.531  11.292
  942SOL    HW2 4666  14.350   4.545  11.241
  943SOL     OW 4667   9.894  12.426   2.671
  943SOL    HW1 4668   9.938  12.474   2.741
  943SOL    HW2 4669   9.912  12.477   2.592
  944SOL     OW 4670  10.680  13.688  13.142
  944SOL    HW1 4671  10.684  13.617  13.077
  944SOL    HW2 4672  10.626  13.755  13.102
  945SOL     OW 4673  13.335   7.161   1.389
  945SOL    HW1 4674  13.242   7.182   1.376
  945SOL    HW2 4675  13.371   7.239   1.432
  946SOL     OW 4676  14.206   4.094   4.831
  946SOL    HW1 4677  14.280   4.151   4.810
  946SOL    HW2 4678  14.235   4.044   4.908
  947SOL     OW 4679   8.044  12.733   4.294
  947SOL    HW1 4680   7.977  12.757   4.230
  947SOL    HW2 4681   8.041  12.803   4.359
  948SOL     OW 4682   8.112   3.194   1.154
  948SOL    HW1 4683   8.161   3.183   1.073
  948SOL    HW2 4684   8.111   3.107   1.193
  949SOL     OW 4685  14.092   9.782  12.131
  949SOL    HW1 4686  14.113   9.849  12.195
  949SOL    HW2 4687  13.999   9.762  12.146
  950SOL     OW 4688   4.205   3.027   9.478
  950SOL    HW1 4689   4.287   2.978   9.484
  950SOL    HW2 4690   4.168   3.022   9.566
  951SOL     OW 4691  13.623  10.315   5.395
  951SOL    HW1 4692  13.633  10.400   5.437
  951SOL    HW2 4693  13.693  10.261   5.433
  952SOL     OW 4694   0.984  10.411  14.415
  952SOL    HW1 4695   1.031  10.448  14.490
  952SOL    HW2 4696   1.053  10.392  14.352
  953SOL     OW 4697   9.609   1.173  10.641
  953SOL    HW1 4698   9.556   1.116  10.586
  953SOL    HW2 4699   9.550   1.201  10.711
  954SOL     OW 4700  13.913   6.082   9.739
  954SOL    HW1 4701  13.951   6.045   9.819
  954SOL    HW2 4702  13.965   6.044   9.668
  955SOL     OW 4703   1.218   8.815   8.067
  955SOL    HW1 4704   1.271   8.872   8.011
  955SOL    HW2 4705   1.282   8.755   8.106
  956SOL     OW 4706  12.337   3.099   7.880
  956SOL    HW1 4707  12.245   3.087   7.901
  956SOL    HW2 4708  12.374   3.010   7.883
  957SOL     OW 4709   0.651  11.130   9.591
  957SOL    HW1 4710   0.627  11.039   9.609
  957SOL    HW2 4711   0.679  11.165   9.675
  958SOL     OW 4712   9.669   5.095   2.705
  958SOL    HW1 4713   9.685   5.177   2.752
  958SOL    HW2 4714   9.726   5.032   2.749
  959SOL     OW 4715   3.967   9.333   8.704
  959SOL    HW1 4716   3.924   9.348   8.788
  959SOL    HW2 4717   4.009   9.248   8.713
  960SOL     OW 4718   5.744  13.564   7.924
  960SOL    HW1 4719   5.792  13.496   7.877
  960SOL    HW2 4720   5.690  13.516   7.986
  961SOL     OW 4721   1.312  12.648   2.772
  961SOL    HW1 4722   1.284  12.583   2.707
  961SOL    HW2 4723   1.263  12.626   2.851
  962SOL     OW 4724   3.673   6.379  10.319
  962SOL    HW1 4725   3.694   6.388  10.226
  962SOL    HW2 4726   3.645   6.466  10.346
  963SOL     OW 4727  10.941   7.319   8.953
  963SOL    HW1 4728  11.030   7.350   8.935
  963SOL    HW2 4729  10.912   7.372   9.028
  964SOL     OW 4730   1.506  10.092   0.922
  964SOL    HW1 4731   1.551  10.007   0.924
  964SOL    HW2 4732   1.474  10.099   0.832
  965SOL     OW 4733  13.506   0.355   7.531
  965SOL    HW1 4734  13.567   0.359   7.458
  965SOL    HW2 4735  13.435   0.414   7.506
  966SOL     OW 4736   8.014   8.955  11.625
  966SOL    HW1 4737   7.949   8.947  11.555
  966SOL    HW2 4738   7.973   9.013  11.689
  967SOL     OW 4739  11.567  12.229   6.434
  967SOL    HW1 4740  11.541  12.238   6.343
  967SOL    HW2 4741  11.489  12.251   6.484
  968SOL     OW 4742   1.389   6.034   5.648
  968SOL    HW1 4743   1.412   5.972   5.578
  968SOL    HW2 4744   1.301   6.065   5.624
  969SOL     OW 4745   3.100   0.116   8.064
  969SOL    HW1 4746   3.091   0.084   8.154
  969SOL    HW2 4747   3.074   0.208   8.069
  970SOL     OW 4748   9.184   6.841  11.499
  970SOL    HW1 4749   9.239   6.780  11.550
  970SOL    HW2 4750   9.170   6.796  11.416
  971SOL     OW 4751  13.898   3.769   1.574
  971SOL    HW1 4752  13.843   3.846   1.587
  971SOL    HW2 4753  13.838   3.703   1.537
  972SOL     OW 4754  10.769  14.692  12.899
  972SOL    HW1 4755  10.678  14.722  12.885
  972SOL    HW2 4756  10.777  14.688  12.994
  973SOL     OW 4757   5.780  14.605  12.189
  973SOL    HW1 4758   5.746  14.675  12.244
  973SOL    HW2 4759   5.869  14.591  12.220
  974SOL     OW 4760  12.598   8.237   6.018
  974SOL    HW1 4761  12.652   8.288   6.079
  974SOL    HW2 4762  12.661   8.200   5.956
  975SOL     OW 4763  13.358   9.857  13.951
  975SOL    HW1 4764  13.334   9.848  13.859
  975SOL    HW2 4765  13.428   9.793  13.964
  976SOL     OW 4766  14.112   0.465  13.638
  976SOL    HW1 4767  14.200   0.430  13.655
  976SOL    HW2 4768  14.054   0.390  13.647
  977SOL     OW 4769  11.775   0.204   1.943
  977SOL    HW1 4770  11.767   0.229   2.035
  977SOL    HW2 4771  11.687   0.173   1.920
  978SOL     OW 4772   9.852  14.314  11.022
  978SOL    HW1 4773   9.771  14.325  11.073
  978SOL    HW2 4774   9.907  14.258  11.077
  979SOL     OW 4775   3.193  13.135   5.064
  979SOL    HW1 4776   3.171  13.148   5.156
  979SOL    HW2 4777   3.255  13.063   5.064
  980SOL     OW 4778   9.153   0.972  13.997
  980SOL    HW1 4779   9.226   0.910  13.990
  980SOL    HW2 4780   9.096   0.935  14.064
  981SOL     OW 4781   7.939  12.371   8.235
  981SOL    HW1 4782   8.020  12.350   8.189
  981SOL    HW2 4783   7.870  12.356   8.171
  982SOL     OW 4784   9.163   1.615  12.751
  982SOL    HW1 4785   9.160   1.662  12.835
  982SOL    HW2 4786   9.116   1.534  12.768
  983SOL     OW 4787  13.476   5.937  11.329
  983SOL    HW1 4788  13.415   5.873  11.293
  983SOL    HW2 4789  13.511   5.982  11.251
  984SOL     OW 4790  11.192   5.804  14.128
  984SOL    HW1 4791  11.248   5.847  14.063
  984SOL    HW2 4792  11.126   5.759  14.076
  985SOL     OW 4793  14.065  10.100   1.732
  985SOL    HW1 4794  14.097  10.010   1.736
  985SOL    HW2 4795  14.036  10.110   1.641
  986SOL     OW 4796   2.666  13.092  11.187
  986SOL    HW1 4797   2.572  13.076  11.181
  986SOL    HW2 4798   2.700  13.075  11.099
  987SOL     OW 4799   3.758  10.275   6.471
  987SOL    HW1 4800   3.769  10.362   6.508
  987SOL    HW2 4801   3.791  10.283   6.381
  988SOL     OW 4802   0.663  13.345   0.645
  988SOL    HW1 4803   0.588  13.321   0.591
  988SOL    HW2 4804   0.731  13.370   0.582
  989SOL     OW 4805   8.051  12.881   0.165
  989SOL    HW1 4806   7.997  12.954   0.136
  989SOL    HW2 4807   7.988  12.814   0.192
  990SOL     OW 4808   4.790  10.750   0.911
  990SOL    HW1 4809   4.862  10.766   0.850
  990SOL    HW2 4810   4.827  10.767   0.997
  991SOL     OW 4811   1.698   8.289  11.790
  991SOL    HW1 4812   1.691   8.275  11.695
  991SOL    HW2 4813   1.615   8.331  11.813
  992SOL     OW 4814   9.034   1.293   5.900
  992SOL    HW1 4815   9.114   1.240   5.907
  992SOL    HW2 4816   9.023   1.332   5.987
  993SOL     OW 4817  13.063   4.932  11.476
  993SOL    HW1 4818  13.141   4.934  11.532
  993SOL    HW2 4819  13.041   4.839  11.470
  994SOL     OW 4820  11.004   7.649   4.167
  994SOL    HW1 4821  10.975   7.636   4.257
  994SOL    HW2 4822  10.931   7.618   4.113
  995SOL     OW 4823   6.682  10.481  11.153
  995SOL    HW1 4824   6.768  10.440  11.151
  995SOL    HW2 4825   6.668  10.503  11.245
  996SOL     OW 4826   9.698  10.071  11.631
  996SOL    HW1 4827   9.642  10.091  11.555
  996SOL    HW2 4828   9.735   9.985  11.611
  997SOL     OW 4829  13.041   4.250   3.640
  997SOL    HW1 4830  12.980   4.295   3.699
  997SOL    HW2 4831  13.002   4.259   3.553
  998SOL     OW 4832   4.989   3.876  10.855
  998SOL    HW1 4833   5.066   3.925  10.826
  998SOL    HW2 4834   4.992   3.881  10.950
  999SOL     OW 4835  12.243   3.154   4.434
  999SOL    HW1 4836  12.294   3.168   4.514
  999SOL    HW2 4837  12.172   3.218   4.438
 1000SOL     OW 4838   3.548   6.862   5.069
 1000SOL    HW1 4839   3.613   6.901   5.011
 1000SOL    HW2 4840   3.523   6.781   5.026
 1001SOL     OW 4841  12.881  14.582   0.882
 1001SOL    HW1 4842  12.865  14.499   0.927
 1001SOL    HW2 4843  12.859  14.565   0.791
 1002SOL     OW 4844   3.094  12.123   8.894
 1002SOL    HW1 4845   3.175  12.090   8.856
 1002SOL    HW2 4846   3.024  12.082   8.844
 1003SOL     OW 4847   9.023   8.263  11.350
 1003SOL    HW1 4848   8.934   8.286  11.323
 1003SOL    HW2 4849   9.028   8.168  11.338
 1004SOL     OW 4850   8.036   7.402   7.579
 1004SOL    HW1 4851   7.998   7.437   7.498
 1004SOL    HW2 4852   7.989   7.449   7.649
 1005SOL     OW 4853   3.424   6.651  14.341
 1005SOL    HW1 4854   3.348   6.709  14.346
 1005SOL    HW2 4855   3.429   6.625  14.249
 1006SOL     OW 4856   3.521  10.435   2.103
 1006SOL    HW1 4857   3.572  10.459   2.025
 1006SOL    HW2 4858   3.459  10.369   2.072
 1007SOL     OW 4859  12.020   4.990   4.314
 1007SOL    HW1 4860  12.099   4.992   4.260
 1007SOL    HW2 4861  11.979   4.906   4.293
 1008SOL     OW 4862   9.140   1.347   1.070
 1008SOL    HW1 4863   9.116   1.297   0.992
 1008SOL    HW2 4864   9.077   1.419   1.072
 1009SOL     OW 4865   2.453   4.654   8.587
 1009SOL    HW1 4866   2.497   4.618   8.664
 1009SOL    HW2 4867   2.359   4.648   8.609
 1010SOL     OW 4868   2.787  10.356   2.658
 1010SOL    HW1 4869   2.790  10.360   2.562
 1010SOL    HW2 4870   2.781  10.263   2.678
 1011SOL     OW 4871  12.154  10.666  11.610
 1011SOL    HW1 4872  12.197  10.615  11.542
 1011SOL    HW2 4873  12.101  10.603  11.659
 1012SOL     OW 4874   4.070   3.659   9.738
 1012SOL    HW1 4875   4.113   3.643   9.655
 1012SOL    HW2 4876   3.989   3.608   9.734
 1013SOL     OW 4877   2.995   2.998   5.955
 1013SOL    HW1 4878   3.058   2.996   5.883
 1013SOL    HW2 4879   2.918   3.041   5.918
 1014SOL     OW 4880   7.771   5.255   8.057
 1014SOL    HW1 4881   7.852   5.286   8.016
 1014SOL    HW2 4882   7.761   5.165   8.024
 1015SOL     OW 4883   1.447  13.419   6.245
 1015SOL    HW1 4884   1.472  13.336   6.204
 1015SOL    HW2 4885   1.418  13.394   6.333
 1016SOL     OW 4886   2.575   9.370  10.827
 1016SOL    HW1 4887   2.601   9.373  10.735
 1016SOL    HW2 4888   2.544   9.459  10.846
 1017SOL     OW 4889  11.414  11.020   3.911
 1017SOL    HW1 4890  11.507  11.008   3.932
 1017SOL    HW2 4891  11.412  11.097   3.855
 1018SOL     OW 4892   3.927   0.435  13.501
 1018SOL    HW1 4893   3.899   0.344  13.514
 1018SOL    HW2 4894   4.007   0.428  13.448
 1019SOL     OW 4895  13.021   7.763   3.312
 1019SOL    HW1 4896  12.979   7.706   3.377
 1019SOL    HW2 4897  13.106   7.785   3.351
 1020SOL     OW 4898   0.906  12.101   0.714
 1020SOL    HW1 4899   0.914  12.194   0.691
 1020SOL    HW2 4900   0.900  12.056   0.630
 1021SOL     OW 4901  10.653   2.989  12.063
 1021SOL    HW1 4902  10.559   2.993  12.046
 1021SOL    HW2 4903  10.678   3.080  12.081
 1022SOL     OW 4904   4.074  13.302   0.288
 1022SOL    HW1 4905   3.986  13.278   0.261
 1022SOL    HW2 4906   4.129  13.283   0.212
 1023SOL     OW 4907   2.748   0.586  12.591
 1023SOL    HW1 4908   2.722   0.677  12.581
 1023SOL    HW2 4909   2.673   0.535  12.561
 1024SOL     OW 4910   5.669  11.893  13.818
 1024SOL    HW1 4911   5.628  11.978  13.804
 1024SOL    HW2 4912   5.654  11.844  13.737
 1025SOL     OW 4913  10.686  13.204   8.673
 1025SOL    HW1 4914  10.673  13.191   8.767
 1025SOL    HW2 4915  10.632  13.280   8.652
 1026SOL     OW 4916  10.631   9.459   6.510
 1026SOL    HW1 4917  10.680   9.497   6.582
 1026SOL    HW2 4918  10.605   9.533   6.456
 1027SOL     OW 4919   7.611  12.583   0.304
 1027SOL    HW1 4920   7.604  12.639   0.382
 1027SOL    HW2 4921   7.614  12.645   0.231
 1028SOL     OW 4922   4.978   9.557   3.807
 1028SOL    HW1 4923   4.948   9.466   3.808
 1028SOL    HW2 4924   4.914   9.602   3.751
 1029SOL     OW 4925  11.319   2.797   8.491
 1029SOL    HW1 4926  11.340   2.887   8.468
 1029SOL    HW2 4927  11.344   2.746   8.414
 1030SOL     OW 4928   8.698  13.770   8.313
 1030SOL    HW1 4929   8.669  13.849   8.267
 1030SOL    HW2 4930   8.637  13.762   8.386
 1031SOL     OW 4931   3.400   8.666   8.167
 1031SOL    HW1 4932   3.417   8.604   8.237
 1031SOL    HW2 4933   3.304   8.672   8.162
 1032SOL     OW 4934   9.272   2.910   3.949
 1032SOL    HW1 4935   9.250   2.861   3.870
 1032SOL    HW2 4936   9.188   2.924   3.993
 1033SOL     OW 4937   0.382  11.708   8.753
 1033SOL    HW1 4938   0.363  11.788   8.703
 1033SOL    HW2 4939   0.398  11.739   8.842
 1034SOL     OW 4940  12.066   5.708  10.487
 1034SOL    HW1 4941  12.101   5.789  10.523
 1034SOL    HW2 4942  12.025   5.734  10.404
 1035SOL     OW 4943   1.816   7.001   4.074
 1035SOL    HW1 4944   1.794   6.908   4.069
 1035SOL    HW2 4945   1.740   7.041   4.117
 1036SOL     OW 4946   2.532   0.709  10.510
 1036SOL    HW1 4947   2.609   0.653  10.514
 1036SOL    HW2 4948   2.503   0.718  10.601
 1037SOL     OW 4949   3.665  10.707  13.410
 1037SOL    HW1 4950   3.744  10.653  13.416
 1037SOL    HW2 4951   3.679  10.759  13.331
 1038SOL     OW 4952  11.351  10.091   9.101
 1038SOL    HW1 4953  11.407  10.124   9.170
 1038SOL    HW2 4954  11.375   9.998   9.093
 1039SOL     OW 4955   3.918   4.215   8.106
 1039SOL    HW1 4956   3.932   4.255   8.020
 1039SOL    HW2 4957   3.966   4.271   8.167
 1040SOL     OW 4958  14.876  12.118   2.315
 1040SOL    HW1 4959  14.791  12.157   2.292
 1040SOL    HW2 4960   0.055  12.155   2.252
 1041SOL     OW 4961   3.805  14.079  12.759
 1041SOL    HW1 4962   3.820  13.986  12.778
 1041SOL    HW2 4963   3.893  14.115  12.750
 1042SOL     OW 4964  11.818   5.033  12.599
 1042SOL    HW1 4965  11.828   4.974  12.674
 1042SOL    HW2 4966  11.847   4.981  12.524
 1043SOL     OW 4967  12.796   6.357   1.603
 1043SOL    HW1 4968  12.734   6.334   1.672
 1043SOL    HW2 4969  12.875   6.305   1.623
 1044SOL     OW 4970  13.059   6.697   5.756
 1044SOL    HW1 4971  13.026   6.611   5.732
 1044SOL    HW2 4972  13.082   6.738   5.672
 1045SOL     OW 4973   7.000   0.273   6.048
 1045SOL    HW1 4974   7.067   0.335   6.019
 1045SOL    HW2 4975   6.920   0.301   6.002
 1046SOL     OW 4976  12.213   3.469  10.676
 1046SOL    HW1 4977  12.168   3.553  10.683
 1046SOL    HW2 4978  12.144   3.404  10.687
 1047SOL     OW 4979   9.284   2.108   7.753
 1047SOL    HW1 4980   9.241   2.152   7.679
 1047SOL    HW2 4981   9.375   2.137   7.749
 1048SOL     OW 4982   0.311  12.799   0.535
 1048SOL    HW1 4983   0.262  12.878   0.557
 1048SOL    HW2 4984   0.255  12.754   0.472
 1049SOL     OW 4985  13.273   2.543   3.852
 1049SOL    HW1 4986  13.259   2.449   3.854
 1049SOL    HW2 4987  13.342   2.558   3.917
 1050SOL     OW 4988  12.531   8.703   8.221
 1050SOL    HW1 4989  12.451   8.721   8.270
 1050SOL    HW2 4990  12.503   8.695   8.130
 1051SOL     OW 4991   4.615  13.364   2.559
 1051SOL    HW1 4992   4.653  13.321   2.635
 1051SOL    HW2 4993   4.523  13.378   2.584
 1052SOL     OW 4994   8.609   8.019  11.019
 1052SOL    HW1 4995   8.604   8.066  11.103
 1052SOL    HW2 4996   8.522   7.982  11.007
 1053SOL     OW 4997   4.917  12.525  12.189
 1053SOL    HW1 4998   4.867  12.489  12.262
 1053SOL    HW2 4999   4.914  12.457  12.121
 1054SOL     OW 5000   4.308   4.870   0.842
 1054SOL    HW1 5001   4.308   4.951   0.893
 1054SOL    HW2 5002   4.358   4.891   0.764
 1055SOL     OW 5003   6.362   0.300   4.696
 1055SOL    HW1 5004   6.398   0.334   4.613
 1055SOL    HW2 5005   6.369   0.374   4.756
 1056SOL     OW 5006   4.887  12.787  14.046
 1056SOL    HW1 5007   4.876  12.873  14.005
 1056SOL    HW2 5008   4.973  12.757  14.016
 1057SOL     OW 5009  10.448   0.035  14.771
 1057SOL    HW1 5010  10.528  14.866  14.760
 1057SOL    HW2 5011  10.461   0.082  14.853
 1058SOL     OW 5012   2.403   9.373   0.407
 1058SOL    HW1 5013   2.401   9.412   0.495
 1058SOL    HW2 5014   2.422   9.446   0.349
 1059SOL     OW 5015  14.493  14.598  11.712
 1059SOL    HW1 5016  14.490  14.574  11.619
 1059SOL    HW2 5017  14.401  14.606  11.737
 1060SOL     OW 5018   4.400   0.946  14.076
 1060SOL    HW1 5019   4.370   1.037  14.083
 1060SOL    HW2 5020   4.487   0.946  14.116
 1061SOL     OW 5021  12.935   6.948   3.895
 1061SOL    HW1 5022  12.920   6.959   3.801
 1061SOL    HW2 5023  12.898   7.027   3.934
 1062SOL     OW 5024   9.508   9.497   5.663
 1062SOL    HW1 5025   9.440   9.458   5.607
 1062SOL    HW2 5026   9.459   9.538   5.734
 1063SOL     OW 5027  14.223  10.029   4.749
 1063SOL    HW1 5028  14.216  10.085   4.826
 1063SOL    HW2 5029  14.295  10.067   4.698
 1064SOL     OW 5030  10.393   6.063  10.542
 1064SOL    HW1 5031  10.480   6.034  10.570
 1064SOL    HW2 5032  10.360   6.114  10.616
 1065SOL     OW 5033   3.155  11.880   4.978
 1065SOL    HW1 5034   3.194  11.812   4.923
 1065SOL    HW2 5035   3.206  11.877   5.059
 1066SOL     OW 5036   0.004   4.368   1.167
 1066SOL    HW1 5037   0.096   4.394   1.163
 1066SOL    HW2 5038   0.003   4.290   1.222
 1067SOL     OW 5039   3.960  11.082  13.866
 1067SOL    HW1 5040   3.876  11.037  13.852
 1067SOL    HW2 5041   3.937  11.162  13.913
 1068SOL     OW 5042  14.227   9.349   5.868
 1068SOL    HW1 5043  14.262   9.330   5.781
 1068SOL    HW2 5044  14.300   9.392   5.914
 1069SOL     OW 5045   8.245   6.872   6.689
 1069SOL    HW1 5046   8.165   6.834   6.724
 1069SOL    HW2 5047   8.263   6.822   6.609
 1070SOL     OW 5048  14.444   9.826   4.550
 1070SOL    HW1 5049  14.454   9.802   4.642
 1070SOL    HW2 5050  14.476   9.916   4.545
 1071SOL     OW 5051   1.902   0.702   2.151
 1071SOL    HW1 5052   1.812   0.672   2.161
 1071SOL    HW2 5053   1.912   0.771   2.216
 1072SOL     OW 5054  12.852  11.927  14.265
 1072SOL    HW1 5055  12.921  11.861  14.274
 1072SOL    HW2 5056  12.829  11.925  14.172
 1073SOL     OW 5057   9.977  12.124   9.295
 1073SOL    HW1 5058   9.973  12.166   9.209
 1073SOL    HW2 5059   9.978  12.198   9.356
 1074SOL     OW 5060   2.599   2.969   2.460
 1074SOL    HW1 5061   2.618   2.956   2.553
 1074SOL    HW2 5062   2.540   2.897   2.437
 1075SOL     OW 5063   3.289   9.013   3.669
 1075SOL    HW1 5064   3.221   8.991   3.605
 1075SOL    HW2 5065   3.297   8.935   3.723
 1076SOL     OW 5066   6.878   1.524   8.518
 1076SOL    HW1 5067   6.967   1.533   8.553
 1076SOL    HW2 5068   6.830   1.476   8.586
 1077SOL     OW 5069   7.648   3.877   9.169
 1077SOL    HW1 5070   7.690   3.963   9.171
 1077SOL    HW2 5071   7.630   3.861   9.077
 1078SOL     OW 5072  12.378   8.957  10.514
 1078SOL    HW1 5073  12.286   8.981  10.501
 1078SOL    HW2 5074  12.383   8.929  10.605
 1079SOL     OW 5075  13.202   6.039   3.735
 1079SOL    HW1 5076  13.211   5.944   3.724
 1079SOL    HW2 5077  13.156   6.049   3.818
 1080SOL     OW 5078  11.111  11.874   9.322
 1080SOL    HW1 5079  11.102  11.877   9.417
 1080SOL    HW2 5080  11.111  11.965   9.295
 1081SOL     OW 5081   1.047   7.435   7.467
 1081SOL    HW1 5082   0.952   7.435   7.451
 1081SOL    HW2 5083   1.071   7.343   7.464
 1082SOL     OW 5084  12.670  11.221  13.644
 1082SOL    HW1 5085  12.588  11.189  13.682
 1082SOL    HW2 5086  12.653  11.223  13.549
 1083SOL     OW 5087  13.495   5.590   0.995
 1083SOL    HW1 5088  13.462   5.637   0.918
 1083SOL    HW2 5089  13.555   5.525   0.959
 1084SOL     OW 5090   3.630   9.731   6.099
 1084SOL    HW1 5091   3.542   9.722   6.135
 1084SOL    HW2 5092   3.662   9.642   6.090
 1085SOL     OW 5093   5.551   4.438   6.630
 1085SOL    HW1 5094   5.516   4.521   6.597
 1085SOL    HW2 5095   5.531   4.374   6.562
 1086SOL     OW 5096  12.253   7.907   6.293
 1086SOL    HW1 5097  12.290   7.946   6.214
 1086SOL    HW2 5098  12.304   7.945   6.364
 1087SOL     OW 5099   5.561  12.756   3.231
 1087SOL    HW1 5100   5.652  12.732   3.249
 1087SOL    HW2 5101   5.509  12.693   3.282
 1088SOL     OW 5102   4.216   9.587  14.571
 1088SOL    HW1 5103   4.140   9.530  14.585
 1088SOL    HW2 5104   4.215   9.606  14.477
 1089SOL     OW 5105  11.556   5.005  11.335
 1089SOL    HW1 5106  11.493   4.990  11.405
 1089SOL    HW2 5107  11.623   4.938  11.348
 1090SOL     OW 5108   9.484   5.354   3.814
 1090SOL    HW1 5109   9.428   5.284   3.849
 1090SOL    HW2 5110   9.425   5.407   3.761
 1091SOL     OW 5111  11.115   9.609   1.913
 1091SOL    HW1 5112  11.191   9.579   1.961
 1091SOL    HW2 5113  11.058   9.648   1.980
 1092SOL     OW 5114  12.131   4.278  11.023
 1092SOL    HW1 5115  12.048   4.262  10.978
 1092SOL    HW2 5116  12.132   4.372  11.039
 1093SOL     OW 5117   1.726   8.429  10.285
 1093SOL    HW1 5118   1.789   8.377  10.335
 1093SOL    HW2 5119   1.641   8.406  10.323
 1094SOL     OW 5120   3.652   4.589  11.349
 1094SOL    HW1 5121   3.593   4.595  11.273
 1094SOL    HW2 5122   3.690   4.676  11.356
 1095SOL     OW 5123   7.903   2.872  13.869
 1095SOL    HW1 5124   7.967   2.878  13.799
 1095SOL    HW2 5125   7.888   2.962  13.896
 1096SOL     OW 5126   6.652   9.305   1.886
 1096SOL    HW1 5127   6.645   9.359   1.807
 1096SOL    HW2 5128   6.745   9.307   1.908
 1097SOL     OW 5129   7.321  14.830   1.349
 1097SOL    HW1 5130   7.330  14.775   1.427
 1097SOL    HW2 5131   7.334  14.771   1.275
 1098SOL     OW 5132  12.891   8.597  14.868
 1098SOL    HW1 5133  12.909   8.689  14.847
 1098SOL    HW2 5134  12.815   8.600   0.044
 1099SOL     OW 5135   8.948   7.228   2.134
 1099SOL    HW1 5136   8.863   7.202   2.171
 1099SOL    HW2 5137   9.008   7.159   2.160
 1100SOL     OW 5138   1.903   0.371  14.751
 1100SOL    HW1 5139   1.958   0.449  14.750
 1100SOL    HW2 5140   1.964   0.298  14.752
 1101SOL     OW 5141   3.979  11.345   1.315
 1101SOL    HW1 5142   4.057  11.334   1.369
 1101SOL    HW2 5143   3.917  11.280   1.350
 1102SOL     OW 5144   9.509   0.099   6.394
 1102SOL    HW1 5145   9.580   0.035   6.392
 1102SOL    HW2 5146   9.543   0.175   6.347
 1103SOL     OW 5147   3.487   3.677  12.099
 1103SOL    HW1 5148   3.546   3.636  12.036
 1103SOL    HW2 5149   3.531   3.666  12.183
 1104SOL     OW 5150   3.738   5.066  10.623
 1104SOL    HW1 5151   3.763   5.036  10.536
 1104SOL    HW2 5152   3.670   5.131  10.608
 1105SOL     OW 5153   2.143   7.848  10.406
 1105SOL    HW1 5154   2.224   7.898  10.414
 1105SOL    HW2 5155   2.165   7.762  10.441
 1106SOL     OW 5156   2.193  14.836   3.044
 1106SOL    HW1 5157   2.246  14.782   2.985
 1106SOL    HW2 5158   2.239  14.832   3.128
 1107SOL     OW 5159   2.511  10.489   1.708
 1107SOL    HW1 5160   2.542  10.410   1.751
 1107SOL    HW2 5161   2.437  10.519   1.762
 1108SOL     OW 5162   5.541   2.788   5.245
 1108SOL    HW1 5163   5.595   2.795   5.166
 1108SOL    HW2 5164   5.519   2.695   5.250
 1109SOL     OW 5165   9.453  11.715  10.149
 1109SOL    HW1 5166   9.505  11.636  10.163
 1109SOL    HW2 5167   9.490  11.780  10.210
 1110SOL     OW 5168  11.676  13.979   7.802
 1110SOL    HW1 5169  11.623  14.023   7.735
 1110SOL    HW2 5170  11.727  13.915   7.753
 1111SOL     OW 5171   0.077   2.522  11.577
 1111SOL    HW1 5172   0.054   2.561  11.662
 1111SOL    HW2 5173   0.012   2.453  11.565
 1112SOL     OW 5174   2.852  11.144   4.275
 1112SOL    HW1 5175   2.877  11.054   4.296
 1112SOL    HW2 5176   2.759  11.139   4.254
 1113SOL     OW 5177   5.159  13.323   7.761
 1113SOL    HW1 5178   5.248  13.291   7.746
 1113SOL    HW2 5179   5.144  13.311   7.855
 1114SOL     OW 5180   9.396   9.963   0.308
 1114SOL    HW1 5181   9.453   9.971   0.385
 1114SOL    HW2 5182   9.313  10.001   0.336
 1115SOL     OW 5183  13.308   7.390   9.990
 1115SOL    HW1 5184  13.328   7.451  10.061
 1115SOL    HW2 5185  13.249   7.440   9.932
 1116SOL     OW 5186  10.457   2.344   9.772
 1116SOL    HW1 5187  10.411   2.422   9.742
 1116SOL    HW2 5188  10.423   2.328   9.860
 1117SOL     OW 5189  11.459   3.810   4.059
 1117SOL    HW1 5190  11.536   3.754   4.071
 1117SOL    HW2 5191  11.493   3.900   4.065
 1118SOL     OW 5192  14.110  10.588   5.051
 1118SOL    HW1 5193  14.030  10.549   5.085
 1118SOL    HW2 5194  14.178  10.563   5.114
 1119SOL     OW 5195   4.537   3.163  11.875
 1119SOL    HW1 5196   4.519   3.254  11.852
 1119SOL    HW2 5197   4.631   3.153  11.859
 1120SOL     OW 5198  13.789   9.024   1.418
 1120SOL    HW1 5199  13.737   8.979   1.351
 1120SOL    HW2 5200  13.875   9.037   1.377
 1121SOL     OW 5201   0.109   4.494   5.696
 1121SOL    HW1 5202   0.097   4.569   5.637
 1121SOL    HW2 5203   0.031   4.440   5.681
 1122SOL     OW 5204   8.653  14.603  11.322
 1122SOL    HW1 5205   8.616  14.529  11.369
 1122SOL    HW2 5206   8.712  14.563  11.257
 1123SOL     OW 5207  12.510   6.232  13.466
 1123SOL    HW1 5208  12.513   6.292  13.541
 1123SOL    HW2 5209  12.423   6.193  13.470
 1124SOL     OW 5210   4.745   5.867  10.809
 1124SOL    HW1 5211   4.763   5.800  10.876
 1124SOL    HW2 5212   4.656   5.848  10.780
 1125SOL     OW 5213  10.547  10.316   2.528
 1125SOL    HW1 5214  10.504  10.254   2.469
 1125SOL    HW2 5215  10.634  10.328   2.491
 1126SOL     OW 5216   4.589   3.643   5.354
 1126SOL    HW1 5217   4.669   3.695   5.351
 1126SOL    HW2 5218   4.618   3.553   5.342
 1127SOL     OW 5219   8.793   1.230  12.256
 1127SOL    HW1 5220   8.855   1.303  12.253
 1127SOL    HW2 5221   8.727   1.258  12.321
 1128SOL     OW 5222  14.235   6.080  14.511
 1128SOL    HW1 5223  14.244   6.109  14.420
 1128SOL    HW2 5224  14.323   6.056  14.538
 1129SOL     OW 5225   0.798   3.605   6.211
 1129SOL    HW1 5226   0.778   3.512   6.217
 1129SOL    HW2 5227   0.727   3.648   6.259
 1130SOL     OW 5228   1.513   6.286   5.067
 1130SOL    HW1 5229   1.468   6.369   5.051
 1130SOL    HW2 5230   1.606   6.307   5.056
 1131SOL     OW 5231   8.798   5.763   3.127
 1131SOL    HW1 5232   8.735   5.740   3.059
 1131SOL    HW2 5233   8.760   5.727   3.207
 1132SOL     OW 5234   0.282   7.562   1.602
 1132SOL    HW1 5235   0.322   7.590   1.684
 1132SOL    HW2 5236   0.355   7.531   1.549
 1133SOL     OW 5237   7.753   6.387  12.318
 1133SOL    HW1 5238   7.764   6.427  12.405
 1133SOL    HW2 5239   7.796   6.448  12.258
 1134SOL     OW 5240   3.369   0.993   4.154
 1134SOL    HW1 5241   3.360   1.069   4.212
 1134SOL    HW2 5242   3.291   0.941   4.172
 1135SOL     OW 5243   0.281   2.294   3.510
 1135SOL    HW1 5244   0.233   2.214   3.531
 1135SOL    HW2 5245   0.222   2.342   3.451
 1136SOL     OW 5246   6.349   9.351   4.315
 1136SOL    HW1 5247   6.394   9.272   4.345
 1136SOL    HW2 5248   6.282   9.319   4.254
 1137SOL     OW 5249  11.543  11.981  12.927
 1137SOL    HW1 5250  11.621  12.019  12.885
 1137SOL    HW2 5251  11.556  11.887  12.920
 1138SOL     OW 5252  12.115  11.500  11.322
 1138SOL    HW1 5253  12.060  11.546  11.257
 1138SOL    HW2 5254  12.052  11.462  11.383
 1139SOL     OW 5255  14.412   9.609   9.448
 1139SOL    HW1 5256  14.329   9.649   9.476
 1139SOL    HW2 5257  14.402   9.517   9.470
 1140SOL     OW 5258   5.646   3.106   0.231
 1140SOL    HW1 5259   5.701   3.096   0.153
 1140SOL    HW2 5260   5.630   3.016   0.261
 1141SOL     OW 5261   8.151   5.076   4.132
 1141SOL    HW1 5262   8.211   5.026   4.077
 1141SOL    HW2 5263   8.176   5.053   4.221
 1142SOL     OW 5264   0.473   0.143   5.022
 1142SOL    HW1 5265   0.402   0.207   5.019
 1142SOL    HW2 5266   0.459   0.095   5.103
 1143SOL     OW 5267  11.101   4.878  10.629
 1143SOL    HW1 5268  11.051   4.904  10.552
 1143SOL    HW2 5269  11.192   4.880  10.601
 1144SOL     OW 5270  12.512   7.565  10.716
 1144SOL    HW1 5271  12.606   7.563  10.696
 1144SOL    HW2 5272  12.491   7.657  10.725
 1145SOL     OW 5273   9.997   5.595   4.635
 1145SOL    HW1 5274  10.047   5.514   4.621
 1145SOL    HW2 5275  10.064   5.661   4.652
 1146SOL     OW 5276  14.756   0.886  11.024
 1146SOL    HW1 5277  14.744   0.791  11.023
 1146SOL    HW2 5278  14.847   0.899  11.048
 1147SOL     OW 5279   6.058   7.315   4.813
 1147SOL    HW1 5280   5.980   7.338   4.864
 1147SOL    HW2 5281   6.042   7.225   4.785
 1148SOL     OW 5282   0.725   5.852   7.528
 1148SOL    HW1 5283   0.814   5.870   7.559
 1148SOL    HW2 5284   0.712   5.759   7.547
 1149SOL     OW 5285  12.926   5.485  13.869
 1149SOL    HW1 5286  12.870   5.557  13.898
 1149SOL    HW2 5287  12.865   5.412  13.855
 1150SOL     OW 5288   7.069  12.238  11.219
 1150SOL    HW1 5289   7.040  12.149  11.240
 1150SOL    HW2 5290   7.112  12.229  11.133
 1151SOL     OW 5291  14.102  10.233   9.548
 1151SOL    HW1 5292  14.132  10.277   9.627
 1151SOL    HW2 5293  14.148  10.278   9.477
 1152SOL     OW 5294   0.971   5.878   3.897
 1152SOL    HW1 5295   0.886   5.920   3.881
 1152SOL    HW2 5296   0.974   5.807   3.833
 1153SOL     OW 5297   6.749  13.393  11.077
 1153SOL    HW1 5298   6.815  13.336  11.116
 1153SOL    HW2 5299   6.678  13.395  11.140
 1154SOL     OW 5300   8.947  12.394  11.030
 1154SOL    HW1 5301   8.992  12.479  11.029
 1154SOL    HW2 5302   8.998  12.340  10.970
 1155SOL     OW 5303  12.510   5.369  10.955
 1155SOL    HW1 5304  12.497   5.462  10.936
 1155SOL    HW2 5305  12.592   5.348  10.910
 1156SOL     OW 5306  11.478   0.468  10.377
 1156SOL    HW1 5307  11.543   0.527  10.340
 1156SOL    HW2 5308  11.425   0.524  10.434
 1157SOL     OW 5309  10.041   8.322   3.950
 1157SOL    HW1 5310  10.084   8.407   3.935
 1157SOL    HW2 5311  10.089   8.284   4.024
 1158SOL     OW 5312   4.179   6.548   6.047
 1158SOL    HW1 5313   4.177   6.603   6.125
 1158SOL    HW2 5314   4.089   6.548   6.015
 1159SOL     OW 5315  10.391  11.125   6.379
 1159SOL    HW1 5316  10.306  11.126   6.335
 1159SOL    HW2 5317  10.380  11.063   6.451
 1160SOL     OW 5318   8.922   0.209   5.689
 1160SOL    HW1 5319   8.895   0.296   5.721
 1160SOL    HW2 5320   8.850   0.151   5.715
 1161SOL     OW 5321   5.950   8.457  11.933
 1161SOL    HW1 5322   5.946   8.531  11.994
 1161SOL    HW2 5323   5.966   8.381  11.988
 1162SOL     OW 5324   8.706  12.762  13.349
 1162SOL    HW1 5325   8.746  12.729  13.269
 1162SOL    HW2 5326   8.743  12.708  13.419
 1163SOL     OW 5327  12.381   7.115  11.954
 1163SOL    HW1 5328  12.422   7.106  11.868
 1163SOL    HW2 5329  12.433   7.058  12.012
 1164SOL     OW 5330   1.509  13.546   5.215
 1164SOL    HW1 5331   1.464  13.485   5.157
 1164SOL    HW2 5332   1.475  13.632   5.190
 1165SOL     OW 5333  13.948   4.768  10.801
 1165SOL    HW1 5334  14.022   4.708  10.799
 1165SOL    HW2 5335  13.892   4.736  10.872
 1166SOL     OW 5336   4.440   8.541   6.518
 1166SOL    HW1 5337   4.482   8.514   6.436
 1166SOL    HW2 5338   4.356   8.578   6.491
 1167SOL     OW 5339  12.889   7.271   5.188
 1167SOL    HW1 5340  12.796   7.295   5.188
 1167SOL    HW2 5341  12.936   7.353   5.171
 1168SOL     OW 5342   5.271   7.674   6.233
 1168SOL    HW1 5343   5.207   7.603   6.245
 1168SOL    HW2 5344   5.347   7.630   6.194
 1169SOL     OW 5345  10.750   7.079  12.203
 1169SOL    HW1 5346  10.773   7.094  12.112
 1169SOL    HW2 5347  10.688   7.149  12.224
 1170SOL     OW 5348   4.287  10.320   0.012
 1170SOL    HW1 5349   4.375  10.351   0.034
 1170SOL    HW2 5350   4.303  10.236  14.849
 1171SOL     OW 5351   2.823  13.815  13.042
 1171SOL    HW1 5352   2.909  13.786  13.074
 1171SOL    HW2 5353   2.761  13.761  13.090
 1172SOL     OW 5354  10.207   6.948  11.294
 1172SOL    HW1 5355  10.157   7.012  11.242
 1172SOL    HW2 5356  10.146   6.917  11.360
 1173SOL     OW 5357   3.708  11.803  12.673
 1173SOL    HW1 5358   3.783  11.797  12.614
 1173SOL    HW2 5359   3.747  11.827  12.758
 1174SOL     OW 5360  13.232   8.571   6.586
 1174SOL    HW1 5361  13.141   8.597   6.571
 1174SOL    HW2 5362  13.227   8.476   6.600
 1175SOL     OW 5363   2.010   3.491  11.746
 1175SOL    HW1 5364   2.039   3.565  11.693
 1175SOL    HW2 5365   2.022   3.520  11.836
 1176SOL     OW 5366   8.132  14.257  12.457
 1176SOL    HW1 5367   8.128  14.187  12.521
 1176SOL    HW2 5368   8.053  14.246  12.404
 1177SOL     OW 5369   1.255   7.488   0.383
 1177SOL    HW1 5370   1.209   7.406   0.398
 1177SOL    HW2 5371   1.237   7.541   0.461
 1178SOL     OW 5372   3.526   3.433   8.558
 1178SOL    HW1 5373   3.590   3.463   8.493
 1178SOL    HW2 5374   3.444   3.475   8.533
 1179SOL     OW 5375   7.111  13.011   2.135
 1179SOL    HW1 5376   7.113  13.009   2.039
 1179SOL    HW2 5377   7.021  12.990   2.158
 1180SOL     OW 5378   1.752   6.923   0.275
 1180SOL    HW1 5379   1.710   7.004   0.244
 1180SOL    HW2 5380   1.735   6.922   0.369
 1181SOL     OW 5381  12.177   0.074   6.828
 1181SOL    HW1 5382  12.255   0.071   6.773
 1181SOL    HW2 5383  12.170   0.166   6.853
 1182SOL     OW 5384   9.508   2.277   2.985
 1182SOL    HW1 5385   9.447   2.207   3.007
 1182SOL    HW2 5386   9.540   2.309   3.070
 1183SOL     OW 5387   4.399   1.094   5.905
 1183SOL    HW1 5388   4.411   1.113   5.812
 1183SOL    HW2 5389   4.405   1.179   5.948
 1184SOL     OW 5390   1.621  10.428  11.551
 1184SOL    HW1 5391   1.678  10.461  11.481
 1184SOL    HW2 5392   1.658  10.463  11.631
 1185SOL     OW 5393  14.204  10.101  10.824
 1185SOL    HW1 5394  14.113  10.112  10.798
 1185SOL    HW2 5395  14.220  10.172  10.886
 1186SOL     OW 5396  10.439   4.701  11.033
 1186SOL    HW1 5397  10.458   4.792  11.056
 1186SOL    HW2 5398  10.523   4.656  11.044
 1187SOL     OW 5399   6.761   6.299   1.632
 1187SOL    HW1 5400   6.773   6.353   1.710
 1187SOL    HW2 5401   6.737   6.213   1.666
 1188SOL     OW 5402  10.970   2.905  12.288
 1188SOL    HW1 5403  10.893   2.876  12.337
 1188SOL    HW2 5404  11.043   2.858  12.328
 1189SOL     OW 5405   1.847  14.028   1.221
 1189SOL    HW1 5406   1.913  13.969   1.186
 1189SOL    HW2 5407   1.894  14.110   1.236
 1190SOL     OW 5408   4.032  14.602   6.921
 1190SOL    HW1 5409   3.971  14.577   6.991
 1190SOL    HW2 5410   3.979  14.601   6.842
 1191SOL     OW 5411   1.772  13.009   6.504
 1191SOL    HW1 5412   1.747  13.027   6.413
 1191SOL    HW2 5413   1.862  12.976   6.498
 1192SOL     OW 5414   8.785  12.913   3.800
 1192SOL    HW1 5415   8.841  12.847   3.842
 1192SOL    HW2 5416   8.842  12.957   3.737
 1193SOL     OW 5417   0.875   6.896   0.711
 1193SOL    HW1 5418   0.782   6.916   0.702
 1193SOL    HW2 5419   0.915   6.979   0.739
 1194SOL     OW 5420  14.118   7.012  10.892
 1194SOL    HW1 5421  14.165   6.966  10.962
 1194SOL    HW2 5422  14.149   6.971  10.811
 1195SOL     OW 5423   4.761   0.381  10.707
 1195SOL    HW1 5424   4.833   0.326  10.738
 1195SOL    HW2 5425   4.682   0.328  10.724
 1196SOL     OW 5426  11.058   5.941   9.516
 1196SOL    HW1 5427  11.000   5.947   9.592
 1196SOL    HW2 5428  11.142   5.975   9.547
 1197SOL     OW 5429   2.103   9.273   0.476
 1197SOL    HW1 5430   2.107   9.205   0.543
 1197SOL    HW2 5431   2.160   9.242   0.406
 1198SOL     OW 5432   8.236   6.398   9.071
 1198SOL    HW1 5433   8.320   6.417   9.030
 1198SOL    HW2 5434   8.222   6.469   9.133
 1199SOL     OW 5435   9.737   3.083  10.396
 1199SOL    HW1 5436   9.809   3.048  10.343
 1199SOL    HW2 5437   9.728   3.021  10.468
 1200SOL     OW 5438   0.228   2.979   8.273
 1200SOL    HW1 5439   0.172   3.010   8.201
 1200SOL    HW2 5440   0.193   3.022   8.351
 1201SOL     OW 5441   5.627  12.216  13.432
 1201SOL    HW1 5442   5.689  12.260  13.374
 1201SOL    HW2 5443   5.644  12.253  13.519
 1202SOL     OW 5444   6.869   8.790   5.329
 1202SOL    HW1 5445   6.814   8.855   5.284
 1202SOL    HW2 5446   6.851   8.709   5.281
 1203SOL     OW 5447   3.226   2.160   1.133
 1203SOL    HW1 5448   3.262   2.072   1.131
 1203SOL    HW2 5449   3.216   2.184   1.040
 1204SOL     OW 5450   2.418   9.837   3.977
 1204SOL    HW1 5451   2.367   9.768   4.019
 1204SOL    HW2 5452   2.495   9.791   3.942
 1205SOL     OW 5453  14.252   8.290   6.321
 1205SOL    HW1 5454  14.171   8.239   6.325
 1205SOL    HW2 5455  14.299   8.266   6.401
 1206SOL     OW 5456   3.875   6.673   1.396
 1206SOL    HW1 5457   3.788   6.696   1.365
 1206SOL    HW2 5458   3.860   6.626   1.478
 1207SOL     OW 5459  12.722   7.126  14.794
 1207SOL    HW1 5460  12.710   7.128   0.007
 1207SOL    HW2 5461  12.661   7.192  14.761
 1208SOL     OW 5462   0.770  11.707   5.321
 1208SOL    HW1 5463   0.701  11.740   5.379
 1208SOL    HW2 5464   0.831  11.780   5.313
 1209SOL     OW 5465   5.243  13.015   6.229
 1209SOL    HW1 5466   5.279  13.093   6.186
 1209SOL    HW2 5467   5.301  12.999   6.303
 1210SOL     OW 5468   4.633  14.309   5.413
 1210SOL    HW1 5469   4.579  14.273   5.483
 1210SOL    HW2 5470   4.710  14.344   5.458
 1211SOL     OW 5471   2.948  11.422   9.777
 1211SOL    HW1 5472   2.960  11.333   9.810
 1211SOL    HW2 5473   2.958  11.478   9.854
 1212SOL     OW 5474  13.563  13.199   5.040
 1212SOL    HW1 5475  13.550  13.164   4.952
 1212SOL    HW2 5476  13.495  13.157   5.093
 1213SOL     OW 5477   8.105  13.138   6.653
 1213SOL    HW1 5478   8.194  13.112   6.630
 1213SOL    HW2 5479   8.113  13.178   6.739
 1214SOL     OW 5480  12.493   2.426  10.564
 1214SOL    HW1 5481  12.579   2.445  10.528
 1214SOL    HW2 5482  12.483   2.487  10.637
 1215SOL     OW 5483   0.167   8.389   7.479
 1215SOL    HW1 5484   0.224   8.387   7.557
 1215SOL    HW2 5485   0.206   8.457   7.423
 1216SOL     OW 5486  10.636   8.894  12.605
 1216SOL    HW1 5487  10.627   8.986  12.632
 1216SOL    HW2 5488  10.549   8.856  12.621
 1217SOL     OW 5489   9.553  12.118   2.387
 1217SOL    HW1 5490   9.530  12.058   2.458
 1217SOL    HW2 5491   9.525  12.074   2.307
 1218SOL     OW 5492   7.266   4.433  11.400
 1218SOL    HW1 5493   7.258   4.403  11.310
 1218SOL    HW2 5494   7.190   4.397  11.445
 1219SOL     OW 5495  13.357  12.155   4.008
 1219SOL    HW1 5496  13.380  12.101   4.083
 1219SOL    HW2 5497  13.338  12.093   3.938
 1220SOL     OW 5498   4.574  14.247   6.103
 1220SOL    HW1 5499   4.624  14.165   6.103
 1220SOL    HW2 5500   4.634  14.311   6.142
 1221SOL     OW 5501   8.284   6.989  11.352
 1221SOL    HW1 5502   8.269   6.932  11.427
 1221SOL    HW2 5503   8.202   7.037  11.340
 1222SOL     OW 5504   9.814   2.215   9.903
 1222SOL    HW1 5505   9.844   2.193   9.991
 1222SOL    HW2 5506   9.891   2.254   9.861
 1223SOL     OW 5507   3.756   0.823  12.372
 1223SOL    HW1 5508   3.776   0.731  12.391
 1223SOL    HW2 5509   3.827   0.853  12.316
 1224SOL     OW 5510   0.802   4.630   9.844
 1224SOL    HW1 5511   0.728   4.686   9.869
 1224SOL    HW2 5512   0.827   4.660   9.757
 1225SOL     OW 5513   4.373   3.979   7.852
 1225SOL    HW1 5514   4.453   4.018   7.888
 1225SOL    HW2 5515   4.398   3.950   7.764
 1226SOL     OW 5516   1.241   1.847   1.051
 1226SOL    HW1 5517   1.234   1.921   0.990
 1226SOL    HW2 5518   1.261   1.772   0.996
 1227SOL     OW 5519   1.879  11.828   4.798
 1227SOL    HW1 5520   1.808  11.837   4.734
 1227SOL    HW2 5521   1.838  11.851   4.882
 1228SOL     OW 5522   8.536   2.901  11.131
 1228SOL    HW1 5523   8.624   2.869  11.115
 1228SOL    HW2 5524   8.548   2.991  11.160
 1229SOL     OW 5525   0.926  11.511   1.489
 1229SOL    HW1 5526   0.986  11.517   1.563
 1229SOL    HW2 5527   0.928  11.598   1.449
 1230SOL     OW 5528   3.279  14.190   5.056
 1230SOL    HW1 5529   3.259  14.096   5.056
 1230SOL    HW2 5530   3.227  14.226   5.128
 1231SOL     OW 5531   2.166   8.152   8.934
 1231SOL    HW1 5532   2.162   8.059   8.954
 1231SOL    HW2 5533   2.144   8.196   9.016
 1232SOL     OW 5534   4.605  11.574  11.936
 1232SOL    HW1 5535   4.691  11.599  11.968
 1232SOL    HW2 5536   4.590  11.487  11.972
 1233SOL     OW 5537  10.128   9.145   1.200
 1233SOL    HW1 5538  10.218   9.140   1.231
 1233SOL    HW2 5539  10.133   9.198   1.121
 1234SOL     OW 5540  14.544   2.743   2.488
 1234SOL    HW1 5541  14.635   2.763   2.468
 1234SOL    HW2 5542  14.497   2.823   2.465
 1235SOL     OW 5543   9.319   4.321  10.530
 1235SOL    HW1 5544   9.277   4.295  10.448
 1235SOL    HW2 5545   9.383   4.252  10.547
 1236SOL     OW 5546   8.108  12.508   0.931
 1236SOL    HW1 5547   8.177  12.572   0.915
 1236SOL    HW2 5548   8.097  12.463   0.847
 1237SOL     OW 5549   9.304   2.531  13.633
 1237SOL    HW1 5550   9.372   2.488  13.684
 1237SOL    HW2 5551   9.334   2.523  13.542
 1238SOL     OW 5552   6.962   0.690   0.301
 1238SOL    HW1 5553   7.039   0.669   0.354
 1238SOL    HW2 5554   6.989   0.765   0.247
 1239SOL     OW 5555   8.345   2.665  14.122
 1239SOL    HW1 5556   8.421   2.629  14.168
 1239SOL    HW2 5557   8.380   2.736  14.070
 1240SOL     OW 5558   8.351  13.094   3.698
 1240SOL    HW1 5559   8.297  13.018   3.676
 1240SOL    HW2 5560   8.323  13.118   3.787
 1241SOL     OW 5561  10.152  14.172   4.742
 1241SOL    HW1 5562  10.057  14.179   4.753
 1241SOL    HW2 5563  10.177  14.254   4.698
 1242SOL     OW 5564   1.129   6.174   3.323
 1242SOL    HW1 5565   1.128   6.180   3.419
 1242SOL    HW2 5566   1.044   6.210   3.296
 1243SOL     OW 5567  12.265  11.288   0.403
 1243SOL    HW1 5568  12.225  11.349   0.464
 1243SOL    HW2 5569  12.194  11.263   0.343
 1244SOL     OW 5570   3.171   5.716   7.403
 1244SOL    HW1 5571   3.192   5.631   7.364
 1244SOL    HW2 5572   3.229   5.722   7.479
 1245SOL     OW 5573   6.097  11.214  10.181
 1245SOL    HW1 5574   6.085  11.306  10.162
 1245SOL    HW2 5575   6.093  11.170  10.096
 1246SOL     OW 5576   5.481   6.329  12.762
 1246SOL    HW1 5577   5.439   6.381  12.830
 1246SOL    HW2 5578   5.440   6.358  12.680
 1247SOL     OW 5579   6.264   0.455   9.317
 1247SOL    HW1 5580   6.328   0.477   9.384
 1247SOL    HW2 5581   6.195   0.520   9.327
 1248SOL     OW 5582   5.576  11.415   1.674
 1248SOL    HW1 5583   5.554  11.506   1.655
 1248SOL    HW2 5584   5.491  11.372   1.686
 1249SOL     OW 5585   3.827   0.206   0.582
 1249SOL    HW1 5586   3.734   0.216   0.605
 1249SOL    HW2 5587   3.865   0.161   0.657
 1250SOL     OW 5588   5.897   8.204   6.735
 1250SOL    HW1 5589   5.907   8.114   6.702
 1250SOL    HW2 5590   5.965   8.253   6.689
 1251SOL     OW 5591   9.811   2.368  12.374
 1251SOL    HW1 5592   9.759   2.396  12.449
 1251SOL    HW2 5593   9.880   2.314  12.411
 1252SOL     OW 5594  10.303   1.511  11.149
 1252SOL    HW1 5595  10.347   1.488  11.067
 1252SOL    HW2 5596  10.269   1.427  11.182
 1253SOL     OW 5597   1.277   7.040   2.327
 1253SOL    HW1 5598   1.220   7.028   2.403
 1253SOL    HW2 5599   1.274   7.134   2.309
 1254SOL     OW 5600  12.818   2.848  10.345
 1254SOL    HW1 5601  12.733   2.804  10.351
 1254SOL    HW2 5602  12.815   2.894  10.261
 1255SOL     OW 5603   2.205  10.079  10.702
 1255SOL    HW1 5604   2.201   9.989  10.736
 1255SOL    HW2 5605   2.251  10.070  10.618
 1256SOL     OW 5606   2.909   1.402   5.429
 1256SOL    HW1 5607   2.826   1.434   5.394
 1256SOL    HW2 5608   2.976   1.449   5.378
 1257SOL     OW 5609   3.708  11.724  13.852
 1257SOL    HW1 5610   3.695  11.728  13.758
 1257SOL    HW2 5611   3.710  11.815  13.881
 1258SOL     OW 5612   5.563   8.328   5.064
 1258SOL    HW1 5613   5.573   8.278   4.983
 1258SOL    HW2 5614   5.469   8.330   5.079
 1259SOL     OW 5615  12.881   2.607   6.489
 1259SOL    HW1 5616  12.785   2.616   6.482
 1259SOL    HW2 5617  12.911   2.610   6.398
 1260SOL     OW 5618  13.395   1.441  11.157
 1260SOL    HW1 5619  13.380   1.359  11.204
 1260SOL    HW2 5620  13.313   1.489  11.167
 1261SOL     OW 5621  13.221   2.851   5.232
 1261SOL    HW1 5622  13.273   2.916   5.281
 1261SOL    HW2 5623  13.285   2.807   5.176
 1262SOL     OW 5624  12.442   3.320   3.617
 1262SOL    HW1 5625  12.442   3.364   3.703
 1262SOL    HW2 5626  12.458   3.390   3.554
 1263SOL     OW 5627   7.263  13.546   3.631
 1263SOL    HW1 5628   7.308  13.628   3.609
 1263SOL    HW2 5629   7.179  13.553   3.585
 1264SOL     OW 5630   1.995   1.979   3.171
 1264SOL    HW1 5631   1.939   1.945   3.102
 1264SOL    HW2 5632   1.996   1.909   3.237
 1265SOL     OW 5633   6.835   6.787   8.798
 1265SOL    HW1 5634   6.781   6.816   8.724
 1265SOL    HW2 5635   6.777   6.794   8.874
 1266SOL     OW 5636  14.353   1.880   4.807
 1266SOL    HW1 5637  14.419   1.848   4.746
 1266SOL    HW2 5638  14.374   1.839   4.890
 1267SOL     OW 5639  11.749   1.629   2.661
 1267SOL    HW1 5640  11.724   1.629   2.569
 1267SOL    HW2 5641  11.666   1.633   2.709
 1268SOL     OW 5642   8.944   6.281   3.915
 1268SOL    HW1 5643   8.993   6.203   3.942
 1268SOL    HW2 5644   9.008   6.335   3.871
 1269SOL     OW 5645  10.663   7.393  10.423
 1269SOL    HW1 5646  10.725   7.322  10.407
 1269SOL    HW2 5647  10.612   7.399  10.342
 1270SOL     OW 5648   5.765   2.770  12.201
 1270SOL    HW1 5649   5.698   2.708  12.172
 1270SOL    HW2 5650   5.847   2.721  12.196
 1271SOL     OW 5651   0.840   2.565   2.301
 1271SOL    HW1 5652   0.885   2.539   2.381
 1271SOL    HW2 5653   0.895   2.530   2.231
 1272SOL     OW 5654   4.988  10.231   9.258
 1272SOL    HW1 5655   4.907  10.208   9.211
 1272SOL    HW2 5656   4.970  10.207   9.349
 1273SOL     OW 5657  12.510   8.855  10.069
 1273SOL    HW1 5658  12.577   8.794  10.039
 1273SOL    HW2 5659  12.524   8.862  10.163
 1274SOL     OW 5660   2.139   4.313   0.547
 1274SOL    HW1 5661   2.149   4.357   0.463
 1274SOL    HW2 5662   2.148   4.383   0.612
 1275SOL     OW 5663  13.983   9.796  13.012
 1275SOL    HW1 5664  13.954   9.883  13.038
 1275SOL    HW2 5665  13.905   9.752  12.979
 1276SOL     OW 5666  14.249   9.277   7.143
 1276SOL    HW1 5667  14.240   9.342   7.073
 1276SOL    HW2 5668  14.247   9.193   7.098
 1277SOL     OW 5669  13.925  12.416   2.774
 1277SOL    HW1 5670  13.914  12.475   2.700
 1277SOL    HW2 5671  13.836  12.390   2.798
 1278SOL     OW 5672  13.977   3.191  11.373
 1278SOL    HW1 5673  14.015   3.253  11.311
 1278SOL    HW2 5674  13.883   3.208  11.370
 1279SOL     OW 5675  12.824   7.228  12.415
 1279SOL    HW1 5676  12.829   7.303  12.473
 1279SOL    HW2 5677  12.858   7.259  12.331
 1280SOL     OW 5678   9.977   0.995   9.892
 1280SOL    HW1 5679   9.883   0.999   9.910
 1280SOL    HW2 5680   9.996   0.902   9.880
 1281SOL     OW 5681   2.381   1.421  13.716
 1281SOL    HW1 5682   2.329   1.347  13.749
 1281SOL    HW2 5683   2.340   1.498  13.756
 1282SOL     OW 5684  11.265   0.441  13.515
 1282SOL    HW1 5685  11.329   0.415  13.449
 1282SOL    HW2 5686  11.245   0.532  13.494
 1283SOL     OW 5687   1.554  12.637   3.865
 1283SOL    HW1 5688   1.514  12.565   3.913
 1283SOL    HW2 5689   1.489  12.707   3.870
 1284SOL     OW 5690   7.722   1.761   9.207
 1284SOL    HW1 5691   7.669   1.841   9.206
 1284SOL    HW2 5692   7.657   1.691   9.218
 1285SOL     OW 5693   9.102  12.449   3.914
 1285SOL    HW1 5694   9.120  12.535   3.875
 1285SOL    HW2 5695   9.130  12.458   4.005
 1286SOL     OW 5696   8.177   3.982  11.662
 1286SOL    HW1 5697   8.202   3.890  11.657
 1286SOL    HW2 5698   8.141   3.992  11.749
 1287SOL     OW 5699   8.972  12.579   9.945
 1287SOL    HW1 5700   8.984  12.491   9.979
 1287SOL    HW2 5701   8.895  12.572   9.888
 1288SOL     OW 5702   8.030   7.266  14.316
 1288SOL    HW1 5703   8.050   7.210  14.391
 1288SOL    HW2 5704   7.939   7.293  14.329
 1289SOL     OW 5705  10.015  10.379   7.908
 1289SOL    HW1 5706   9.979  10.334   7.984
 1289SOL    HW2 5707  10.011  10.472   7.930
 1290SOL     OW 5708   0.212   7.338   9.395
 1290SOL    HW1 5709   0.254   7.417   9.362
 1290SOL    HW2 5710   0.158   7.307   9.322
 1291SOL     OW 5711   3.673  13.952   0.931
 1291SOL    HW1 5712   3.611  13.891   0.892
 1291SOL    HW2 5713   3.671  14.029   0.874
 1292SOL     OW 5714  14.396  11.644   3.735
 1292SOL    HW1 5715  14.439  11.709   3.791
 1292SOL    HW2 5716  14.413  11.560   3.777
 1293SOL     OW 5717   1.216   2.797  12.201
 1293SOL    HW1 5718   1.196   2.739  12.128
 1293SOL    HW2 5719   1.186   2.750  12.278
 1294SOL     OW 5720   7.675   2.126   8.645
 1294SOL    HW1 5721   7.719   2.043   8.624
 1294SOL    HW2 5722   7.702   2.186   8.575
 1295SOL     OW 5723   8.172  14.346  13.061
 1295SOL    HW1 5724   8.087  14.349  13.106
 1295SOL    HW2 5725   8.232  14.389  13.121
 1296SOL     OW 5726   0.359  12.596   1.478
 1296SOL    HW1 5727   0.315  12.599   1.393
 1296SOL    HW2 5728   0.288  12.590   1.542
 1297SOL     OW 5729   2.579   2.629   6.669
 1297SOL    HW1 5730   2.546   2.571   6.738
 1297SOL    HW2 5731   2.648   2.578   6.626
 1298SOL     OW 5732   3.958  14.447   9.407
 1298SOL    HW1 5733   3.966  14.378   9.341
 1298SOL    HW2 5734   3.912  14.405   9.480
 1299SOL     OW 5735   1.700  12.419  13.685
 1299SOL    HW1 5736   1.615  12.448  13.651
 1299SOL    HW2 5737   1.715  12.334  13.643
 1300SOL     OW 5738  13.580   4.965   8.777
 1300SOL    HW1 5739  13.499   4.919   8.758
 1300SOL    HW2 5740  13.606   4.935   8.863
 1301SOL     OW 5741  10.502  14.796  14.000
 1301SOL    HW1 5742  10.581  14.826  13.955
 1301SOL    HW2 5743  10.445  14.873  14.002
 1302SOL     OW 5744   0.348  12.213   4.991
 1302SOL    HW1 5745   0.429  12.163   4.986
 1302SOL    HW2 5746   0.330  12.239   4.900
 1303SOL     OW 5747  14.609   1.438  11.928
 1303SOL    HW1 5748  14.567   1.361  11.966
 1303SOL    HW2 5749  14.702   1.415  11.922
 1304SOL     OW 5750   9.270  10.466  10.275
 1304SOL    HW1 5751   9.178  10.438  10.275
 1304SOL    HW2 5752   9.298  10.457  10.366
 1305SOL     OW 5753   4.240   1.275   7.247
 1305SOL    HW1 5754   4.182   1.231   7.186
 1305SOL    HW2 5755   4.238   1.367   7.221
 1306SOL     OW 5756   5.447   0.299   3.975
 1306SOL    HW1 5757   5.530   0.298   4.022
 1306SOL    HW2 5758   5.386   0.341   4.035
 1307SOL     OW 5759  10.606   1.358   1.426
 1307SOL    HW1 5760  10.698   1.381   1.419
 1307SOL    HW2 5761  10.604   1.289   1.492
 1308SOL     OW 5762   9.277  10.145   6.909
 1308SOL    HW1 5763   9.320  10.096   6.839
 1308SOL    HW2 5764   9.245  10.224   6.867
 1309SOL     OW 5765   8.124   1.590   9.500
 1309SOL    HW1 5766   8.034   1.620   9.511
 1309SOL    HW2 5767   8.162   1.595   9.587
 1310SOL     OW 5768   2.120   2.656  13.510
 1310SOL    HW1 5769   2.098   2.742  13.474
 1310SOL    HW2 5770   2.084   2.656  13.598
 1311SOL     OW 5771   9.349  14.564   8.146
 1311SOL    HW1 5772   9.381  14.645   8.106
 1311SOL    HW2 5773   9.325  14.509   8.072
 1312SOL     OW 5774  13.671  14.128   4.067
 1312SOL    HW1 5775  13.653  14.216   4.100
 1312SOL    HW2 5776  13.740  14.141   4.002
 1313SOL     OW 5777  10.038   4.690  13.804
 1313SOL    HW1 5778  10.063   4.601  13.781
 1313SOL    HW2 5779  10.084   4.709  13.885
 1314SOL     OW 5780  13.281   7.259   8.077
 1314SOL    HW1 5781  13.235   7.284   7.997
 1314SOL    HW2 5782  13.214   7.259   8.145
 1315SOL     OW 5783   5.566   7.671  12.617
 1315SOL    HW1 5784   5.598   7.761  12.616
 1315SOL    HW2 5785   5.471   7.679  12.611
 1316SOL     OW 5786  12.927   6.213  14.290
 1316SOL    HW1 5787  12.994   6.152  14.320
 1316SOL    HW2 5788  12.856   6.204  14.354
 1317SOL     OW 5789   4.210   9.238   9.434
 1317SOL    HW1 5790   4.216   9.312   9.494
 1317SOL    HW2 5791   4.173   9.167   9.487
 1318SOL     OW 5792   3.695  11.229   9.481
 1318SOL    HW1 5793   3.766  11.292   9.483
 1318SOL    HW2 5794   3.658  11.231   9.570
 1319SOL     OW 5795   2.908   3.455   8.072
 1319SOL    HW1 5796   2.846   3.477   8.142
 1319SOL    HW2 5797   2.992   3.490   8.103
 1320SOL     OW 5798   9.314   5.012   4.472
 1320SOL    HW1 5799   9.306   5.027   4.567
 1320SOL    HW2 5800   9.387   4.950   4.464
 1321SOL     OW 5801  12.436   1.429   0.574
 1321SOL    HW1 5802  12.505   1.365   0.560
 1321SOL    HW2 5803  12.465   1.480   0.650
 1322SOL     OW 5804   8.209   4.640  12.522
 1322SOL    HW1 5805   8.135   4.580  12.517
 1322SOL    HW2 5806   8.236   4.652  12.432
 1323SOL     OW 5807  13.750  13.461   3.729
 1323SOL    HW1 5808  13.831  13.444   3.681
 1323SOL    HW2 5809  13.759  13.411   3.810
 1324SOL     OW 5810   6.913   6.341   9.846
 1324SOL    HW1 5811   6.978   6.284   9.805
 1324SOL    HW2 5812   6.964   6.393   9.908
 1325SOL     OW 5813   7.468   5.174   5.981
 1325SOL    HW1 5814   7.543   5.115   5.988
 1325SOL    HW2 5815   7.487   5.229   5.905
 1326SOL     OW 5816  12.688  11.505   4.930
 1326SOL    HW1 5817  12.741  11.563   4.985
 1326SOL    HW2 5818  12.751  11.458   4.876
 1327SOL     OW 5819  13.400   4.155   4.822
 1327SOL    HW1 5820  13.317   4.204   4.827
 1327SOL    HW2 5821  13.436   4.176   4.736
 1328SOL     OW 5822  12.585   6.744  10.729
 1328SOL    HW1 5823  12.583   6.649  10.734
 1328SOL    HW2 5824  12.624   6.772  10.812
 1329SOL     OW 5825  14.498   9.915  13.249
 1329SOL    HW1 5826  14.402   9.925  13.250
 1329SOL    HW2 5827  14.516   9.873  13.165
 1330SOL     OW 5828   3.084   2.614  11.312
 1330SOL    HW1 5829   3.083   2.699  11.268
 1330SOL    HW2 5830   3.175   2.600  11.335
 1331SOL     OW 5831  14.728  10.855  14.769
 1331SOL    HW1 5832  14.736  10.939  14.724
 1331SOL    HW2 5833  14.783  10.864  14.847
 1332SOL     OW 5834   5.666   8.633   2.835
 1332SOL    HW1 5835   5.757   8.659   2.849
 1332SOL    HW2 5836   5.660   8.546   2.875
 1333SOL     OW 5837   7.987  13.225   6.208
 1333SOL    HW1 5838   8.004  13.133   6.188
 1333SOL    HW2 5839   8.040  13.273   6.145
 1334SOL     OW 5840  13.713   5.333  12.231
 1334SOL    HW1 5841  13.661   5.276  12.175
 1334SOL    HW2 5842  13.667   5.417  12.228
 1335SOL     OW 5843  12.382  11.393  14.520
 1335SOL    HW1 5844  12.470  11.359  14.530
 1335SOL    HW2 5845  12.388  11.485  14.548
 1336SOL     OW 5846   3.476  12.461  12.777
 1336SOL    HW1 5847   3.433  12.545  12.758
 1336SOL    HW2 5848   3.419  12.395  12.737
 1337SOL     OW 5849  10.031  14.230   5.183
 1337SOL    HW1 5850  10.008  14.155   5.127
 1337SOL    HW2 5851   9.974  14.221   5.259
 1338SOL     OW 5852   7.971   6.356   8.511
 1338SOL    HW1 5853   7.959   6.359   8.606
 1338SOL    HW2 5854   8.063   6.336   8.499
 1339SOL     OW 5855   6.883  12.002  12.863
 1339SOL    HW1 5856   6.976  11.981  12.872
 1339SOL    HW2 5857   6.842  11.919  12.841
 1340SOL     OW 5858  13.403   6.901  12.451
 1340SOL    HW1 5859  13.327   6.872  12.502
 1340SOL    HW2 5860  13.471   6.919  12.516
 1341SOL     OW 5861   2.495  12.935   5.488
 1341SOL    HW1 5862   2.567  12.955   5.429
 1341SOL    HW2 5863   2.537  12.890   5.562
 1342SOL     OW 5864   2.793   1.220   1.864
 1342SOL    HW1 5865   2.738   1.206   1.941
 1342SOL    HW2 5866   2.883   1.215   1.897
 1343SOL     OW 5867  12.168  11.013   3.621
 1343SOL    HW1 5868  12.196  11.089   3.570
 1343SOL    HW2 5869  12.248  10.964   3.639
 1344SOL     OW 5870   8.966  14.073  10.248
 1344SOL    HW1 5871   9.039  14.068  10.310
 1344SOL    HW2 5872   8.961  14.165  10.224
 1345SOL     OW 5873   8.518   2.399   5.162
 1345SOL    HW1 5874   8.607   2.366   5.156
 1345SOL    HW2 5875   8.471   2.356   5.090
 1346SOL     OW 5876   4.177   7.593   1.996
 1346SOL    HW1 5877   4.229   7.624   2.070
 1346SOL    HW2 5878   4.206   7.646   1.921
 1347SOL     OW 5879   5.529   0.900   6.955
 1347SOL    HW1 5880   5.479   0.819   6.941
 1347SOL    HW2 5881   5.468   0.970   6.929
 1348SOL     OW 5882   3.686   7.995   9.057
 1348SOL    HW1 5883   3.772   7.959   9.035
 1348SOL    HW2 5884   3.695   8.026   9.147
 1349SOL     OW 5885   1.006  12.199   9.584
 1349SOL    HW1 5886   1.015  12.282   9.539
 1349SOL    HW2 5887   1.094  12.181   9.618
 1350SOL     OW 5888   2.264   4.514  13.099
 1350SOL    HW1 5889   2.343   4.478  13.058
 1350SOL    HW2 5890   2.292   4.598  13.135
 1351SOL     OW 5891   4.959   6.077  11.161
 1351SOL    HW1 5892   4.869   6.107  11.146
 1351SOL    HW2 5893   5.013   6.132  11.104
 1352SOL     OW 5894   0.180   3.808  10.771
 1352SOL    HW1 5895   0.116   3.737  10.786
 1352SOL    HW2 5896   0.131   3.888  10.790
 1353SOL     OW 5897  14.605   2.782   8.609
 1353SOL    HW1 5898  14.665   2.762   8.680
 1353SOL    HW2 5899  14.599   2.878   8.610
 1354SOL     OW 5900   1.328  13.579  12.453
 1354SOL    HW1 5901   1.271  13.531  12.514
 1354SOL    HW2 5902   1.313  13.671  12.473
 1355SOL     OW 5903   9.628  13.537   4.859
 1355SOL    HW1 5904   9.674  13.576   4.933
 1355SOL    HW2 5905   9.581  13.462   4.897
 1356SOL     OW 5906  12.155  14.129   6.459
 1356SOL    HW1 5907  12.140  14.208   6.510
 1356SOL    HW2 5908  12.071  14.084   6.458
 1357SOL     OW 5909  13.051   2.475   0.058
 1357SOL    HW1 5910  13.083   2.564   0.043
 1357SOL    HW2 5911  12.982   2.463  14.875
 1358SOL     OW 5912  10.010   1.888   3.077
 1358SOL    HW1 5913  10.007   1.829   3.001
 1358SOL    HW2 5914  10.083   1.947   3.059
 1359SOL     OW 5915   7.962   7.068   2.722
 1359SOL    HW1 5916   7.879   7.044   2.762
 1359SOL    HW2 5917   7.981   6.997   2.660
 1360SOL     OW 5918   3.763   1.452   8.767
 1360SOL    HW1 5919   3.824   1.386   8.801
 1360SOL    HW2 5920   3.704   1.403   8.710
 1361SOL     OW 5921   7.389   7.805  10.117
 1361SOL    HW1 5922   7.380   7.900  10.109
 1361SOL    HW2 5923   7.301   7.774  10.138
 1362SOL     OW 5924   6.353   6.516   0.674
 1362SOL    HW1 5925   6.448   6.516   0.660
 1362SOL    HW2 5926   6.323   6.599   0.637
 1363SOL     OW 5927   5.345   3.026  13.286
 1363SOL    HW1 5928   5.380   2.939  13.267
 1363SOL    HW2 5929   5.270   3.035  13.229
 1364SOL     OW 5930  12.742   9.293   0.516
 1364SOL    HW1 5931  12.775   9.251   0.436
 1364SOL    HW2 5932  12.797   9.258   0.586
 1365SOL     OW 5933   3.102   3.578   5.497
 1365SOL    HW1 5934   3.031   3.627   5.540
 1365SOL    HW2 5935   3.177   3.587   5.556
 1366SOL     OW 5936   7.665   4.982   7.478
 1366SOL    HW1 5937   7.628   5.016   7.396
 1366SOL    HW2 5938   7.633   4.892   7.483
 1367SOL     OW 5939   3.079   9.548  10.192
 1367SOL    HW1 5940   3.139   9.609  10.149
 1367SOL    HW2 5941   3.029   9.509  10.121
 1368SOL     OW 5942  10.870   5.058  12.850
 1368SOL    HW1 5943  10.854   4.966  12.873
 1368SOL    HW2 5944  10.933   5.088  12.916
 1369SOL     OW 5945   6.549   7.559  14.116
 1369SOL    HW1 5946   6.633   7.569  14.073
 1369SOL    HW2 5947   6.565   7.495  14.186
 1370SOL     OW 5948   2.850   9.848  13.361
 1370SOL    HW1 5949   2.883   9.781  13.421
 1370SOL    HW2 5950   2.768   9.878  13.400
 1371SOL     OW 5951  11.841  14.557  14.088
 1371SOL    HW1 5952  11.773  14.620  14.065
 1371SOL    HW2 5953  11.923  14.607  14.087
 1372SOL     OW 5954   4.865  12.249   7.105
 1372SOL    HW1 5955   4.826  12.245   7.193
 1372SOL    HW2 5956   4.791  12.249   7.046
 1373SOL     OW 5957   8.917   0.098   4.807
 1373SOL    HW1 5958   8.846   0.035   4.789
 1373SOL    HW2 5959   8.898   0.172   4.750
 1374SOL     OW 5960  11.259  10.908   7.443
 1374SOL    HW1 5961  11.299  10.965   7.376
 1374SOL    HW2 5962  11.179  10.954   7.468
 1375SOL     OW 5963   4.919   7.373   6.025
 1375SOL    HW1 5964   4.855   7.420   5.971
 1375SOL    HW2 5965   4.870   7.349   6.104
 1376SOL     OW 5966   8.923   0.847  14.135
 1376SOL    HW1 5967   8.877   0.866  14.052
 1376SOL    HW2 5968   8.914   0.928  14.185
 1377SOL     OW 5969  10.779   3.765   2.630
 1377SOL    HW1 5970  10.841   3.696   2.604
 1377SOL    HW2 5971  10.834   3.833   2.669
 1378SOL     OW 5972  12.105   4.884   9.616
 1378SOL    HW1 5973  12.195   4.914   9.609
 1378SOL    HW2 5974  12.052   4.962   9.603
 1379SOL     OW 5975   8.550   9.534   8.340
 1379SOL    HW1 5976   8.558   9.439   8.332
 1379SOL    HW2 5977   8.517   9.563   8.256
 1380SOL     OW 5978  12.552   6.087  10.106
 1380SOL    HW1 5979  12.508   6.123  10.029
 1380SOL    HW2 5980  12.589   6.004  10.076
 1381SOL     OW 5981  13.073   8.414   8.922
 1381SOL    HW1 5982  13.150   8.435   8.975
 1381SOL    HW2 5983  13.108   8.368   8.846
 1382SOL     OW 5984   7.025  10.487   8.741
 1382SOL    HW1 5985   7.117  10.479   8.715
 1382SOL    HW2 5986   6.984  10.408   8.706
 1383SOL     OW 5987   7.442   1.115   1.738
 1383SOL    HW1 5988   7.512   1.104   1.675
 1383SOL    HW2 5989   7.486   1.118   1.823
 1384SOL     OW 5990   5.517  13.987   9.404
 1384SOL    HW1 5991   5.453  14.023   9.466
 1384SOL    HW2 5992   5.599  13.985   9.453
 1385SOL     OW 5993   1.190   6.219   9.543
 1385SOL    HW1 5994   1.201   6.312   9.522
 1385SOL    HW2 5995   1.142   6.220   9.626
 1386SOL     OW 5996  11.568  14.562   1.589
 1386SOL    HW1 5997  11.521  14.642   1.565
 1386SOL    HW2 5998  11.505  14.492   1.572
 1387SOL     OW 5999   6.063   5.460   2.687
 1387SOL    HW1 6000   5.994   5.417   2.638
 1387SOL    HW2 6001   6.123   5.493   2.621
 1388SOL     OW 6002   4.734   2.635   7.090
 1388SOL    HW1 6003   4.761   2.725   7.107
 1388SOL    HW2 6004   4.690   2.637   7.005
 1389SOL     OW 6005  11.919   9.582  14.315
 1389SOL    HW1 6006  11.869   9.550  14.240
 1389SOL    HW2 6007  11.857   9.636  14.364
 1390SOL     OW 6008   2.956   7.697   2.833
 1390SOL    HW1 6009   2.980   7.606   2.814
 1390SOL    HW2 6010   2.954   7.702   2.928
 1391SOL     OW 6011  13.948   3.085   7.164
 1391SOL    HW1 6012  13.939   3.154   7.230
 1391SOL    HW2 6013  13.890   3.113   7.093
 1392SOL     OW 6014   4.750   9.507  13.200
 1392SOL    HW1 6015   4.807   9.548  13.265
 1392SOL    HW2 6016   4.799   9.429  13.173
 1393SOL     OW 6017  11.774   2.852  13.066
 1393SOL    HW1 6018  11.819   2.927  13.105
 1393SOL    HW2 6019  11.821   2.835  12.984
 1394SOL     OW 6020   8.779   3.926   6.869
 1394SOL    HW1 6021   8.747   3.979   6.796
 1394SOL    HW2 6022   8.743   3.969   6.947
 1395SOL     OW 6023   2.030   8.426  11.466
 1395SOL    HW1 6024   2.103   8.468  11.420
 1395SOL    HW2 6025   1.985   8.498  11.510
 1396SOL     OW 6026   4.047   9.028  13.803
 1396SOL    HW1 6027   3.971   9.078  13.774
 1396SOL    HW2 6028   4.031   9.014  13.896
 1397SOL     OW 6029   8.453  13.965  10.339
 1397SOL    HW1 6030   8.435  13.872  10.340
 1397SOL    HW2 6031   8.545  13.972  10.364
 1398SOL     OW 6032   3.875   6.334   6.322
 1398SOL    HW1 6033   3.937   6.266   6.349
 1398SOL    HW2 6034   3.841   6.303   6.238
 1399SOL     OW 6035   0.190   0.582   3.467
 1399SOL    HW1 6036   0.141   0.658   3.436
 1399SOL    HW2 6037   0.158   0.509   3.414
 1400SOL     OW 6038   1.060  14.234   3.284
 1400SOL    HW1 6039   1.056  14.306   3.221
 1400SOL    HW2 6040   1.043  14.155   3.232
 1401SOL     OW 6041   4.755   4.237   4.317
 1401SOL    HW1 6042   4.784   4.216   4.228
 1401SOL    HW2 6043   4.764   4.155   4.365
 1402SOL     OW 6044   1.971  10.409  11.366
 1402SOL    HW1 6045   2.048  10.356  11.384
 1402SOL    HW2 6046   1.975  10.480  11.429
 1403SOL     OW 6047   5.575   9.513   1.461
 1403SOL    HW1 6048   5.575   9.422   1.432
 1403SOL    HW2 6049   5.493   9.549   1.427
 1404SOL     OW 6050   0.902   3.733   4.049
 1404SOL    HW1 6051   0.817   3.759   4.083
 1404SOL    HW2 6052   0.930   3.660   4.104
 1405SOL     OW 6053   8.298  14.466  14.537
 1405SOL    HW1 6054   8.273  14.403  14.605
 1405SOL    HW2 6055   8.224  14.527  14.533
 1406SOL     OW 6056   7.325   3.586  11.423
 1406SOL    HW1 6057   7.330   3.496  11.457
 1406SOL    HW2 6058   7.415   3.607  11.398
 1407SOL     OW 6059   0.339   1.500  10.485
 1407SOL    HW1 6060   0.378   1.414  10.501
 1407SOL    HW2 6061   0.269   1.508  10.550
 1408SOL     OW 6062  12.581  11.913  12.813
 1408SOL    HW1 6063  12.565  11.865  12.894
 1408SOL    HW2 6064  12.623  11.850  12.755
 1409SOL     OW 6065  12.073   6.753   3.364
 1409SOL    HW1 6066  12.157   6.799   3.374
 1409SOL    HW2 6067  12.008   6.823   3.358
 1410SOL     OW 6068   3.278   7.589   1.900
 1410SOL    HW1 6069   3.239   7.602   1.813
 1410SOL    HW2 6070   3.216   7.630   1.960
 1411SOL     OW 6071   5.327   5.368   2.320
 1411SOL    HW1 6072   5.313   5.287   2.368
 1411SOL    HW2 6073   5.314   5.437   2.385
 1412SOL     OW 6074   1.548   5.094  11.115
 1412SOL    HW1 6075   1.510   5.127  11.034
 1412SOL    HW2 6076   1.491   5.022  11.141
 1413SOL     OW 6077   8.362   3.477  13.799
 1413SOL    HW1 6078   8.304   3.552  13.787
 1413SOL    HW2 6079   8.334   3.438  13.882
 1414SOL     OW 6080  14.239  12.075  14.799
 1414SOL    HW1 6081  14.295  12.069  14.877
 1414SOL    HW2 6082  14.158  12.032  14.826
 1415SOL     OW 6083  11.609   8.687   3.718
 1415SOL    HW1 6084  11.670   8.624   3.754
 1415SOL    HW2 6085  11.606   8.758   3.782
 1416SOL     OW 6086   9.278   5.396  14.288
 1416SOL    HW1 6087   9.197   5.430  14.326
 1416SOL    HW2 6088   9.316   5.471  14.242
 1417SOL     OW 6089   6.911   4.332  10.731
 1417SOL    HW1 6090   6.875   4.345  10.643
 1417SOL    HW2 6091   6.989   4.278  10.717
 1418SOL     OW 6092  12.532   9.275   1.294
 1418SOL    HW1 6093  12.484   9.296   1.214
 1418SOL    HW2 6094  12.586   9.352   1.311
 1419SOL     OW 6095   0.890   6.412   1.530
 1419SOL    HW1 6096   0.949   6.349   1.572
 1419SOL    HW2 6097   0.877   6.480   1.596
 1420SOL     OW 6098   2.187  14.522   0.034
 1420SOL    HW1 6099   2.259  14.558  14.863
 1420SOL    HW2 6100   2.117  14.588   0.027
 1421SOL     OW 6101   5.626  10.370  10.791
 1421SOL    HW1 6102   5.669  10.388  10.875
 1421SOL    HW2 6103   5.659  10.285  10.765
 1422SOL     OW 6104  10.183   3.846   1.305
 1422SOL    HW1 6105  10.149   3.899   1.233
 1422SOL    HW2 6106  10.137   3.878   1.383
 1423SOL     OW 6107   2.679  13.410   0.002
 1423SOL    HW1 6108   2.647  13.500  14.879
 1423SOL    HW2 6109   2.600  13.356  14.875
 1424SOL     OW 6110   1.942  10.249  12.690
 1424SOL    HW1 6111   1.946  10.338  12.724
 1424SOL    HW2 6112   1.986  10.253  12.605
 1425SOL     OW 6113  14.498  11.787   6.750
 1425SOL    HW1 6114  14.457  11.708   6.715
 1425SOL    HW2 6115  14.444  11.859   6.718
 1426SOL     OW 6116  10.846   1.234  11.273
 1426SOL    HW1 6117  10.802   1.162  11.318
 1426SOL    HW2 6118  10.878   1.195  11.192
 1427SOL     OW 6119   4.788   4.465   4.448
 1427SOL    HW1 6120   4.789   4.376   4.414
 1427SOL    HW2 6121   4.704   4.472   4.495
 1428SOL     OW 6122  13.224  11.929   7.758
 1428SOL    HW1 6123  13.211  11.952   7.666
 1428SOL    HW2 6124  13.308  11.883   7.760
 1429SOL     OW 6125   2.834  10.644   2.523
 1429SOL    HW1 6126   2.823  10.682   2.435
 1429SOL    HW2 6127   2.909  10.690   2.560
 1430SOL     OW 6128   3.000  13.111  11.100
 1430SOL    HW1 6129   2.924  13.080  11.051
 1430SOL    HW2 6130   3.006  13.204  11.078
 1431SOL     OW 6131   1.971  14.690  10.710
 1431SOL    HW1 6132   2.024  14.622  10.670
 1431SOL    HW2 6133   1.906  14.713  10.643
 1432SOL     OW 6134   2.254   2.437   7.061
 1432SOL    HW1 6135   2.236   2.441   6.967
 1432SOL    HW2 6136   2.196   2.367   7.093
 1433SOL     OW 6137   0.907   7.815   8.029
 1433SOL    HW1 6138   0.853   7.821   8.107
 1433SOL    HW2 6139   0.867   7.746   7.976
 1434SOL     OW 6140   6.573  10.623   5.319
 1434SOL    HW1 6141   6.551  10.543   5.367
 1434SOL    HW2 6142   6.489  10.665   5.302
 1435SOL     OW 6143  11.136  14.106   2.075
 1435SOL    HW1 6144  11.153  14.181   2.018
 1435SOL    HW2 6145  11.178  14.130   2.158
 1436SOL     OW 6146   6.260   4.424   0.681
 1436SOL    HW1 6147   6.285   4.374   0.759
 1436SOL    HW2 6148   6.216   4.361   0.625
 1437SOL     OW 6149   0.902   0.959  14.393
 1437SOL    HW1 6150   0.807   0.961  14.378
 1437SOL    HW2 6151   0.938   1.016  14.325
 1438SOL     OW 6152  13.514   8.200   7.527
 1438SOL    HW1 6153  13.550   8.205   7.616
 1438SOL    HW2 6154  13.445   8.133   7.533
 1439SOL     OW 6155   1.337   0.513   0.213
 1439SOL    HW1 6156   1.387   0.474   0.284
 1439SOL    HW2 6157   1.330   0.443   0.147
 1440SOL     OW 6158  10.409   0.732   4.008
 1440SOL    HW1 6159  10.432   0.754   4.098
 1440SOL    HW2 6160  10.327   0.683   4.015
 1441SOL     OW 6161   5.740   7.766   4.445
 1441SOL    HW1 6162   5.784   7.825   4.507
 1441SOL    HW2 6163   5.664   7.816   4.415
 1442SOL     OW 6164   1.464   3.984   2.220
 1442SOL    HW1 6165   1.509   3.903   2.241
 1442SOL    HW2 6166   1.445   3.978   2.126
 1443SOL     OW 6167   9.607   2.208   4.102
 1443SOL    HW1 6168   9.604   2.303   4.110
 1443SOL    HW2 6169   9.543   2.188   4.034
 1444SOL     OW 6170  10.628   2.706   7.001
 1444SOL    HW1 6171  10.655   2.798   7.010
 1444SOL    HW2 6172  10.606   2.679   7.090
 1445SOL     OW 6173   7.668  13.207   8.679
 1445SOL    HW1 6174   7.746  13.244   8.721
 1445SOL    HW2 6175   7.679  13.112   8.689
 1446SOL     OW 6176  11.639   7.694   1.705
 1446SOL    HW1 6177  11.644   7.627   1.773
 1446SOL    HW2 6178  11.583   7.655   1.637
 1447SOL     OW 6179  12.282  14.186   1.599
 1447SOL    HW1 6180  12.222  14.256   1.624
 1447SOL    HW2 6181  12.306  14.206   1.509
 1448SOL     OW 6182   5.387   0.134   8.557
 1448SOL    HW1 6183   5.349   0.067   8.615
 1448SOL    HW2 6184   5.322   0.144   8.487
 1449SOL     OW 6185  13.339   4.583   2.466
 1449SOL    HW1 6186  13.322   4.596   2.373
 1449SOL    HW2 6187  13.298   4.498   2.486
 1450SOL     OW 6188   7.946   8.470   4.276
 1450SOL    HW1 6189   7.865   8.522   4.275
 1450SOL    HW2 6190   7.921   8.387   4.316
 1451SOL     OW 6191   6.871   1.295   5.614
 1451SOL    HW1 6192   6.831   1.211   5.637
 1451SOL    HW2 6193   6.958   1.272   5.582
 1452SOL     OW 6194   2.103   2.760  11.308
 1452SOL    HW1 6195   2.188   2.716  11.315
 1452SOL    HW2 6196   2.044   2.694  11.271
 1453SOL     OW 6197  10.802   0.638   8.754
 1453SOL    HW1 6198  10.718   0.595   8.765
 1453SOL    HW2 6199  10.781   0.731   8.749
 1454SOL     OW 6200  13.847   5.571  12.100
 1454SOL    HW1 6201  13.819   5.628  12.028
 1454SOL    HW2 6202  13.803   5.607  12.177
 1455SOL     OW 6203   6.551  11.961   5.463
 1455SOL    HW1 6204   6.644  11.985   5.464
 1455SOL    HW2 6205   6.519  11.985   5.549
 1456SOL     OW 6206   3.895  10.778   5.057
 1456SOL    HW1 6207   3.870  10.760   5.148
 1456SOL    HW2 6208   3.956  10.851   5.063
 1457SOL     OW 6209   9.778   2.925  14.438
 1457SOL    HW1 6210   9.705   2.889  14.489
 1457SOL    HW2 6211   9.756   2.903  14.347
 1458SOL     OW 6212   6.197   0.720   2.383
 1458SOL    HW1 6213   6.246   0.673   2.315
 1458SOL    HW2 6214   6.198   0.660   2.458
 1459SOL     OW 6215   7.505  10.624   1.484
 1459SOL    HW1 6216   7.504  10.621   1.388
 1459SOL    HW2 6217   7.490  10.716   1.505
 1460SOL     OW 6218   0.876  12.258   1.941
 1460SOL    HW1 6219   0.964  12.293   1.955
 1460SOL    HW2 6220   0.821  12.305   2.004
 1461SOL     OW 6221   8.303   9.505  13.270
 1461SOL    HW1 6222   8.386   9.506  13.319
 1461SOL    HW2 6223   8.261   9.423  13.295
 1462SOL     OW 6224  13.462   8.781  12.859
 1462SOL    HW1 6225  13.494   8.701  12.903
 1462SOL    HW2 6226  13.483   8.767  12.767
 1463SOL     OW 6227   8.383   1.479   4.847
 1463SOL    HW1 6228   8.394   1.428   4.927
 1463SOL    HW2 6229   8.342   1.561   4.876
 1464SOL     OW 6230   7.882   7.547   7.772
 1464SOL    HW1 6231   7.927   7.629   7.751
 1464SOL    HW2 6232   7.807   7.574   7.825
 1465SOL     OW 6233  13.330   4.628  10.438
 1465SOL    HW1 6234  13.242   4.603  10.467
 1465SOL    HW2 6235  13.315   4.685  10.363
 1466SOL     OW 6236   1.480  12.121  14.545
 1466SOL    HW1 6237   1.500  12.068  14.623
 1466SOL    HW2 6238   1.498  12.211  14.573
 1467SOL     OW 6239   1.033  12.627   7.535
 1467SOL    HW1 6240   1.102  12.648   7.598
 1467SOL    HW2 6241   1.056  12.678   7.457
 1468SOL     OW 6242   4.054  14.714   6.401
 1468SOL    HW1 6243   4.033  14.748   6.314
 1468SOL    HW2 6244   4.089  14.626   6.385
 1469SOL     OW 6245  10.018   1.085   7.167
 1469SOL    HW1 6246   9.949   1.019   7.171
 1469SOL    HW2 6247  10.032   1.099   7.073
 1470SOL     OW 6248  11.902   0.417   3.607
 1470SOL    HW1 6249  11.989   0.447   3.581
 1470SOL    HW2 6250  11.883   0.344   3.548
 1471SOL     OW 6251   5.082   1.285  13.837
 1471SOL    HW1 6252   5.080   1.378  13.862
 1471SOL    HW2 6253   5.006   1.275  13.780
 1472SOL     OW 6254  13.817   4.488  10.587
 1472SOL    HW1 6255  13.828   4.487  10.492
 1472SOL    HW2 6256  13.752   4.557  10.603
 1473SOL     OW 6257   7.032   9.557  13.403
 1473SOL    HW1 6258   7.049   9.465  13.424
 1473SOL    HW2 6259   6.942   9.557  13.371
 1474SOL     OW 6260  13.216   4.545   7.938
 1474SOL    HW1 6261  13.291   4.584   7.982
 1474SOL    HW2 6262  13.176   4.488   8.004
 1475SOL     OW 6263   1.509   8.339   5.779
 1475SOL    HW1 6264   1.527   8.247   5.757
 1475SOL    HW2 6265   1.458   8.334   5.859
 1476SOL     OW 6266   2.002   5.283   4.023
 1476SOL    HW1 6267   1.990   5.246   4.111
 1476SOL    HW2 6268   1.931   5.348   4.015
 1477SOL     OW 6269   8.289   9.192   4.737
 1477SOL    HW1 6270   8.293   9.150   4.651
 1477SOL    HW2 6271   8.196   9.194   4.758
 1478SOL     OW 6272   7.669   4.727   9.663
 1478SOL    HW1 6273   7.654   4.795   9.597
 1478SOL    HW2 6274   7.725   4.663   9.619
 1479SOL     OW 6275  13.026   9.869   6.524
 1479SOL    HW1 6276  13.062   9.876   6.612
 1479SOL    HW2 6277  12.973   9.948   6.513
 1480SOL     OW 6278   0.591  10.177   6.722
 1480SOL    HW1 6279   0.518  10.153   6.778
 1480SOL    HW2 6280   0.633  10.094   6.700
 1481SOL     OW 6281   8.035   1.895   7.786
 1481SOL    HW1 6282   8.017   1.814   7.739
 1481SOL    HW2 6283   7.985   1.887   7.867
 1482SOL     OW 6284   7.676   9.763  10.325
 1482SOL    HW1 6285   7.614   9.830  10.353
 1482SOL    HW2 6286   7.710   9.726  10.406
 1483SOL     OW 6287   2.753   9.873   4.153
 1483SOL    HW1 6288   2.695   9.932   4.105
 1483SOL    HW2 6289   2.694   9.810   4.195
 1484SOL     OW 6290   5.536   9.384   8.303
 1484SOL    HW1 6291   5.496   9.462   8.263
 1484SOL    HW2 6292   5.604   9.357   8.240
 1485SOL     OW 6293  14.731   0.358   2.290
 1485SOL    HW1 6294  14.707   0.440   2.334
 1485SOL    HW2 6295  14.680   0.291   2.334
 1486SOL     OW 6296   0.958   7.808  14.444
 1486SOL    HW1 6297   0.927   7.810  14.534
 1486SOL    HW2 6298   1.018   7.734  14.440
 1487SOL     OW 6299   7.008   2.589   7.732
 1487SOL    HW1 6300   7.015   2.511   7.677
 1487SOL    HW2 6301   7.099   2.617   7.746
 1488SOL     OW 6302  13.955   4.760  11.595
 1488SOL    HW1 6303  13.900   4.690  11.632
 1488SOL    HW2 6304  13.892   4.827  11.570
 1489SOL     OW 6305   2.439   8.003   0.962
 1489SOL    HW1 6306   2.431   8.098   0.957
 1489SOL    HW2 6307   2.510   7.988   1.024
 1490SOL     OW 6308   1.216   2.502   3.027
 1490SOL    HW1 6309   1.310   2.483   3.033
 1490SOL    HW2 6310   1.174   2.421   3.056
 1491SOL     OW 6311   9.645   1.947   5.561
 1491SOL    HW1 6312   9.709   1.876   5.563
 1491SOL    HW2 6313   9.689   2.017   5.514
 1492SOL     OW 6314  11.228   7.133   8.988
 1492SOL    HW1 6315  11.207   7.204   8.927
 1492SOL    HW2 6316  11.212   7.170   9.074
 1493SOL     OW 6317   3.446   7.861  10.861
 1493SOL    HW1 6318   3.427   7.948  10.896
 1493SOL    HW2 6319   3.540   7.863  10.841
 1494SOL     OW 6320   1.966   4.522  11.749
 1494SOL    HW1 6321   2.049   4.482  11.720
 1494SOL    HW2 6322   1.956   4.492  11.839
 1495SOL     OW 6323   2.350  11.758  12.184
 1495SOL    HW1 6324   2.338  11.689  12.119
 1495SOL    HW2 6325   2.436  11.795  12.164
 1496SOL     OW 6326   8.110  11.750   2.044
 1496SOL    HW1 6327   8.142  11.695   2.115
 1496SOL    HW2 6328   8.154  11.717   1.965
 1497SOL     OW 6329   6.284  12.084   9.286
 1497SOL    HW1 6330   6.350  12.151   9.266
 1497SOL    HW2 6331   6.267  12.042   9.201
 1498SOL     OW 6332  13.730  13.389   5.160
 1498SOL    HW1 6333  13.673  13.336   5.105
 1498SOL    HW2 6334  13.677  13.466   5.183
 1499SOL     OW 6335   1.596   9.738   4.482
 1499SOL    HW1 6336   1.624   9.767   4.395
 1499SOL    HW2 6337   1.678   9.714   4.526
 1500SOL     OW 6338   1.364   8.881   7.237
 1500SOL    HW1 6339   1.401   8.949   7.181
 1500SOL    HW2 6340   1.271   8.880   7.214
 1501SOL     OW 6341   7.923  14.661   0.402
 1501SOL    HW1 6342   7.835  14.685   0.430
 1501SOL    HW2 6343   7.914  14.571   0.369
 1502SOL     OW 6344  14.135   4.572  10.907
 1502SOL    HW1 6345  14.190   4.501  10.939
 1502SOL    HW2 6346  14.088   4.603  10.985
 1503SOL     OW 6347  13.164  10.135   5.486
 1503SOL    HW1 6348  13.148  10.201   5.554
 1503SOL    HW2 6349  13.086  10.139   5.431
 1504SOL     OW 6350   4.395   0.561   5.104
 1504SOL    HW1 6351   4.486   0.589   5.108
 1504SOL    HW2 6352   4.365   0.562   5.195
 1505SOL     OW 6353   7.399  11.441   2.315
 1505SOL    HW1 6354   7.319  11.444   2.263
 1505SOL    HW2 6355   7.432  11.352   2.304
 1506SOL     OW 6356   3.779  13.860   7.581
 1506SOL    HW1 6357   3.797  13.807   7.659
 1506SOL    HW2 6358   3.860  13.858   7.531
 1507SOL     OW 6359   1.672   3.724   4.303
 1507SOL    HW1 6360   1.696   3.675   4.382
 1507SOL    HW2 6361   1.611   3.667   4.257
 1508SOL     OW 6362   6.887   6.396   6.876
 1508SOL    HW1 6363   6.878   6.334   6.948
 1508SOL    HW2 6364   6.922   6.344   6.804
 1509SOL     OW 6365  14.146   7.023   5.640
 1509SOL    HW1 6366  14.178   6.959   5.577
 1509SOL    HW2 6367  14.182   7.106   5.611
 1510SOL     OW 6368   9.079  13.378  11.917
 1510SOL    HW1 6369   9.025  13.435  11.862
 1510SOL    HW2 6370   9.151  13.433  11.946
 1511SOL     OW 6371  10.026   9.509   4.232
 1511SOL    HW1 6372  10.049   9.416   4.240
 1511SOL    HW2 6373  10.082   9.553   4.295
 1512SOL     OW 6374   2.805  14.761   5.542
 1512SOL    HW1 6375   2.865  14.797   5.477
 1512SOL    HW2 6376   2.752  14.697   5.494
 1513SOL     OW 6377   5.240   6.800   2.300
 1513SOL    HW1 6378   5.250   6.737   2.228
 1513SOL    HW2 6379   5.150   6.831   2.293
 1514SOL     OW 6380   1.111  11.338  12.474
 1514SOL    HW1 6381   1.141  11.423  12.441
 1514SOL    HW2 6382   1.185  11.305  12.525
 1515SOL     OW 6383   2.183  10.814   8.268
 1515SOL    HW1 6384   2.145  10.726   8.256
 1515SOL    HW2 6385   2.218  10.837   8.182
 1516SOL     OW 6386   6.737   9.652  11.467
 1516SOL    HW1 6387   6.816   9.685  11.424
 1516SOL    HW2 6388   6.667   9.669  11.405
 1517SOL     OW 6389   0.727   0.310   7.833
 1517SOL    HW1 6390   0.717   0.222   7.870
 1517SOL    HW2 6391   0.792   0.300   7.764
 1518SOL     OW 6392  13.665   9.418   9.757
 1518SOL    HW1 6393  13.630   9.485   9.699
 1518SOL    HW2 6394  13.722   9.365   9.701
 1519SOL     OW 6395  11.872   0.691  13.030
 1519SOL    HW1 6396  11.815   0.688  12.953
 1519SOL    HW2 6397  11.872   0.784  13.056
 1520SOL     OW 6398   3.753   7.864   5.624
 1520SOL    HW1 6399   3.752   7.919   5.547
 1520SOL    HW2 6400   3.690   7.794   5.605
 1521SOL     OW 6401   4.053   7.328  13.513
 1521SOL    HW1 6402   4.040   7.381  13.591
 1521SOL    HW2 6403   3.966   7.322  13.473
 1522SOL     OW 6404   3.513  10.620   8.067
 1522SOL    HW1 6405   3.525  10.668   8.149
 1522SOL    HW2 6406   3.462  10.543   8.092
 1523SOL     OW 6407   8.427   2.318  13.822
 1523SOL    HW1 6408   8.354   2.322  13.884
 1523SOL    HW2 6409   8.439   2.225  13.805
 1524SOL     OW 6410   6.744  11.583   3.985
 1524SOL    HW1 6411   6.795  11.634   3.922
 1524SOL    HW2 6412   6.675  11.643   4.014
 1525SOL     OW 6413   6.962   9.600   2.353
 1525SOL    HW1 6414   6.925   9.674   2.400
 1525SOL    HW2 6415   6.901   9.584   2.281
 1526SOL     OW 6416   3.272  11.168   0.721
 1526SOL    HW1 6417   3.193  11.169   0.666
 1526SOL    HW2 6418   3.239  11.187   0.809
 1527SOL     OW 6419   0.791   6.886   2.827
 1527SOL    HW1 6420   0.782   6.793   2.805
 1527SOL    HW2 6421   0.757   6.932   2.750
 1528SOL     OW 6422  10.950   7.483   6.575
 1528SOL    HW1 6423  10.857   7.463   6.581
 1528SOL    HW2 6424  10.970   7.527   6.658
 1529SOL     OW 6425   7.750   0.069   4.551
 1529SOL    HW1 6426   7.710  14.866   4.533
 1529SOL    HW2 6427   7.844   0.053   4.539
 1530SOL     OW 6428   6.168   7.723  12.289
 1530SOL    HW1 6429   6.250   7.700  12.244
 1530SOL    HW2 6430   6.102   7.666  12.249
 1531SOL     OW 6431  10.962   8.288  11.914
 1531SOL    HW1 6432  10.972   8.305  12.007
 1531SOL    HW2 6433  11.047   8.255  11.886
 1532SOL     OW 6434   8.895  13.482  11.326
 1532SOL    HW1 6435   8.952  13.515  11.255
 1532SOL    HW2 6436   8.910  13.388  11.327
 1533SOL     OW 6437  10.085  10.025  11.136
 1533SOL    HW1 6438  10.050   9.955  11.191
 1533SOL    HW2 6439  10.007  10.070  11.102
 1534SOL     OW 6440   4.139   5.105   7.372
 1534SOL    HW1 6441   4.189   5.045   7.317
 1534SOL    HW2 6442   4.092   5.048   7.433
 1535SOL     OW 6443   8.217   0.093  14.722
 1535SOL    HW1 6444   8.285   0.154  14.694
 1535SOL    HW2 6445   8.169   0.141  14.790
 1536SOL     OW 6446  11.066   4.953   6.175
 1536SOL    HW1 6447  11.090   4.980   6.086
 1536SOL    HW2 6448  11.118   5.010   6.232
 1537SOL     OW 6449   7.649   3.857  10.377
 1537SOL    HW1 6450   7.597   3.930  10.410
 1537SOL    HW2 6451   7.586   3.800  10.334
 1538SOL     OW 6452   2.966  13.558   8.148
 1538SOL    HW1 6453   2.979  13.580   8.240
 1538SOL    HW2 6454   3.045  13.511   8.123
 1539SOL     OW 6455   0.459   0.139  13.966
 1539SOL    HW1 6456   0.400   0.084  14.018
 1539SOL    HW2 6457   0.439   0.115  13.875
 1540SOL     OW 6458   1.800   0.502   2.802
 1540SOL    HW1 6459   1.851   0.484   2.881
 1540SOL    HW2 6460   1.833   0.586   2.770
 1541SOL     OW 6461   7.407   2.206   7.392
 1541SOL    HW1 6462   7.407   2.244   7.304
 1541SOL    HW2 6463   7.488   2.156   7.396
 1542SOL     OW 6464   0.491  11.071   2.922
 1542SOL    HW1 6465   0.570  11.027   2.952
 1542SOL    HW2 6466   0.489  11.153   2.972
 1543SOL     OW 6467  11.355   1.187   2.055
 1543SOL    HW1 6468  11.414   1.184   1.979
 1543SOL    HW2 6469  11.406   1.230   2.123
 1544SOL     OW 6470   3.755   2.314   0.085
 1544SOL    HW1 6471   3.846   2.318   0.115
 1544SOL    HW2 6472   3.738   2.401   0.048
 1545SOL     OW 6473   6.865   5.311   0.201
 1545SOL    HW1 6474   6.817   5.333   0.122
 1545SOL    HW2 6475   6.929   5.245   0.173
 1546SOL     OW 6476   8.189   2.343   3.355
 1546SOL    HW1 6477   8.260   2.356   3.418
 1546SOL    HW2 6478   8.228   2.290   3.286
 1547SOL     OW 6479   1.988   2.693   7.970
 1547SOL    HW1 6480   1.987   2.654   7.882
 1547SOL    HW2 6481   2.041   2.772   7.961
 1548SOL     OW 6482   0.803   4.301  14.466
 1548SOL    HW1 6483   0.719   4.347  14.456
 1548SOL    HW2 6484   0.794   4.224  14.410
 1549SOL     OW 6485   1.175   6.928   5.748
 1549SOL    HW1 6486   1.095   6.898   5.791
 1549SOL    HW2 6487   1.145   6.966   5.666
 1550SOL     OW 6488  13.649  13.370  10.250
 1550SOL    HW1 6489  13.638  13.403  10.161
 1550SOL    HW2 6490  13.668  13.277  10.239
 1551SOL     OW 6491   0.856   8.561   4.512
 1551SOL    HW1 6492   0.783   8.499   4.512
 1551SOL    HW2 6493   0.896   8.551   4.426
 1552SOL     OW 6494   4.933  10.930  14.054
 1552SOL    HW1 6495   4.868  10.893  13.995
 1552SOL    HW2 6496   4.917  10.888  14.139
 1553SOL     OW 6497  14.388   5.171   9.100
 1553SOL    HW1 6498  14.326   5.175   9.172
 1553SOL    HW2 6499  14.378   5.255   9.055
 1554SOL     OW 6500   7.652  13.842   9.887
 1554SOL    HW1 6501   7.596  13.806   9.955
 1554SOL    HW2 6502   7.726  13.881   9.934
 1555SOL     OW 6503   2.409  13.003   2.664
 1555SOL    HW1 6504   2.456  12.996   2.580
 1555SOL    HW2 6505   2.404  12.913   2.696
 1556SOL     OW 6506   7.106   7.572   0.990
 1556SOL    HW1 6507   7.181   7.539   0.940
 1556SOL    HW2 6508   7.030   7.529   0.950
 1557SOL     OW 6509   7.519   2.774  14.656
 1557SOL    HW1 6510   7.477   2.688  14.653
 1557SOL    HW2 6511   7.609   2.756  14.684
 1558SOL     OW 6512   4.486   1.860   0.749
 1558SOL    HW1 6513   4.529   1.927   0.803
 1558SOL    HW2 6514   4.548   1.842   0.678
 1559SOL     OW 6515   5.799   7.764   7.066
 1559SOL    HW1 6516   5.792   7.668   7.070
 1559SOL    HW2 6517   5.883   7.783   7.108
 1560SOL     OW 6518   2.633   4.054   3.723
 1560SOL    HW1 6519   2.631   4.088   3.812
 1560SOL    HW2 6520   2.726   4.055   3.698
 1561SOL     OW 6521   0.546  14.489  10.837
 1561SOL    HW1 6522   0.489  14.449  10.772
 1561SOL    HW2 6523   0.619  14.429  10.846
 1562SOL     OW 6524  14.746   6.084   7.099
 1562SOL    HW1 6525  14.701   6.029   7.163
 1562SOL    HW2 6526  14.685   6.155   7.082
 1563SOL     OW 6527   9.356   1.159   2.434
 1563SOL    HW1 6528   9.343   1.247   2.469
 1563SOL    HW2 6529   9.434   1.166   2.380
 1564SOL     OW 6530   4.393   4.507   1.453
 1564SOL    HW1 6531   4.438   4.546   1.529
 1564SOL    HW2 6532   4.303   4.496   1.482
 1565SOL     OW 6533  11.507   5.482   5.707
 1565SOL    HW1 6534  11.442   5.413   5.689
 1565SOL    HW2 6535  11.575   5.438   5.758
 1566SOL     OW 6536   6.779  11.796   7.979
 1566SOL    HW1 6537   6.840  11.753   8.040
 1566SOL    HW2 6538   6.705  11.737   7.973
 1567SOL     OW 6539   7.586   4.995   7.890
 1567SOL    HW1 6540   7.497   5.018   7.916
 1567SOL    HW2 6541   7.579   4.906   7.854
 1568SOL     OW 6542   4.106   0.087   1.555
 1568SOL    HW1 6543   4.113   0.086   1.460
 1568SOL    HW2 6544   4.079   0.176   1.576
 1569SOL     OW 6545  12.350   2.742   9.614
 1569SOL    HW1 6546  12.305   2.824   9.596
 1569SOL    HW2 6547  12.280   2.681   9.637
 1570SOL     OW 6548   8.694   3.421   8.642
 1570SOL    HW1 6549   8.621   3.474   8.675
 1570SOL    HW2 6550   8.652   3.345   8.602
 1571SOL     OW 6551  14.068   3.779   2.282
 1571SOL    HW1 6552  13.987   3.779   2.333
 1571SOL    HW2 6553  14.094   3.871   2.278
 1572SOL     OW 6554  13.414   8.331   8.016
 1572SOL    HW1 6555  13.405   8.251   8.067
 1572SOL    HW2 6556  13.391   8.401   8.077
 1573SOL     OW 6557   1.677   4.316   1.624
 1573SOL    HW1 6558   1.703   4.231   1.588
 1573SOL    HW2 6559   1.662   4.371   1.547
 1574SOL     OW 6560   7.574   9.557   6.393
 1574SOL    HW1 6561   7.641   9.545   6.460
 1574SOL    HW2 6562   7.616   9.612   6.327
 1575SOL     OW 6563   1.095   1.262  13.976
 1575SOL    HW1 6564   1.094   1.356  13.993
 1575SOL    HW2 6565   1.101   1.255  13.880
 1576SOL     OW 6566   0.928  14.358   5.825
 1576SOL    HW1 6567   0.858  14.304   5.863
 1576SOL    HW2 6568   0.909  14.447   5.856
 1577SOL     OW 6569   6.810  10.763  13.904
 1577SOL    HW1 6570   6.845  10.753  13.815
 1577SOL    HW2 6571   6.875  10.721  13.960
 1578SOL     OW 6572   1.343  14.492  12.584
 1578SOL    HW1 6573   1.282  14.462  12.516
 1578SOL    HW2 6574   1.354  14.416  12.641
 1579SOL     OW 6575  11.123   0.348   6.145
 1579SOL    HW1 6576  11.166   0.304   6.218
 1579SOL    HW2 6577  11.080   0.424   6.184
 1580SOL     OW 6578  10.994   5.041  11.875
 1580SOL    HW1 6579  11.032   4.954  11.891
 1580SOL    HW2 6580  11.056   5.084  11.816
 1581SOL     OW 6581   9.033   9.518   5.760
 1581SOL    HW1 6582   8.995   9.569   5.831
 1581SOL    HW2 6583   9.092   9.456   5.803
 1582SOL     OW 6584   9.288   1.627   6.646
 1582SOL    HW1 6585   9.299   1.575   6.726
 1582SOL    HW2 6586   9.291   1.718   6.675
 1583SOL     OW 6587  12.863   7.080  13.069
 1583SOL    HW1 6588  12.902   7.167  13.060
 1583SOL    HW2 6589  12.837   7.056  12.980
 1584SOL     OW 6590   3.741  14.843   9.095
 1584SOL    HW1 6591   3.757  14.749   9.094
 1584SOL    HW2 6592   3.826   0.000   9.114
 1585SOL     OW 6593  12.940  14.067   3.255
 1585SOL    HW1 6594  12.953  13.974   3.239
 1585SOL    HW2 6595  13.013  14.092   3.312
 1586SOL     OW 6596  11.124  11.633   5.087
 1586SOL    HW1 6597  11.116  11.680   5.004
 1586SOL    HW2 6598  11.058  11.672   5.144
 1587SOL     OW 6599   8.414   0.574   5.291
 1587SOL    HW1 6600   8.492   0.593   5.342
 1587SOL    HW2 6601   8.390   0.485   5.316
 1588SOL     OW 6602  12.729   1.227   4.041
 1588SOL    HW1 6603  12.674   1.297   4.007
 1588SOL    HW2 6604  12.667   1.159   4.068
 1589SOL     OW 6605  13.926   8.704   0.746
 1589SOL    HW1 6606  13.879   8.783   0.721
 1589SOL    HW2 6607  13.899   8.687   0.837
 1590SOL     OW 6608  12.161  11.669   1.060
 1590SOL    HW1 6609  12.148  11.642   0.969
 1590SOL    HW2 6610  12.242  11.627   1.086
 1591SOL     OW 6611  13.613   4.133  10.687
 1591SOL    HW1 6612  13.544   4.082  10.730
 1591SOL    HW2 6613  13.567   4.187  10.623
 1592SOL     OW 6614  12.017   5.849   3.569
 1592SOL    HW1 6615  12.036   5.756   3.556
 1592SOL    HW2 6616  12.094   5.895   3.534
 1593SOL     OW 6617  11.658   1.208   4.307
 1593SOL    HW1 6618  11.693   1.228   4.394
 1593SOL    HW2 6619  11.575   1.256   4.304
 1594SOL     OW 6620   2.183   6.622  12.004
 1594SOL    HW1 6621   2.166   6.557  11.937
 1594SOL    HW2 6622   2.218   6.572  12.078
 1595SOL     OW 6623  11.264  14.453  11.494
 1595SOL    HW1 6624  11.325  14.511  11.539
 1595SOL    HW2 6625  11.297  14.449  11.404
 1596SOL     OW 6626   5.741  11.480   6.500
 1596SOL    HW1 6627   5.665  11.511   6.451
 1596SOL    HW2 6628   5.711  11.475   6.591
 1597SOL     OW 6629  10.247   5.324  13.236
 1597SOL    HW1 6630  10.300   5.291  13.309
 1597SOL    HW2 6631  10.180   5.379  13.278
 1598SOL     OW 6632   9.927  11.650   1.465
 1598SOL    HW1 6633   9.945  11.557   1.479
 1598SOL    HW2 6634  10.002  11.681   1.414
 1599SOL     OW 6635   4.892   2.609  12.843
 1599SOL    HW1 6636   4.849   2.581  12.762
 1599SOL    HW2 6637   4.982   2.577  12.835
 1600SOL     OW 6638  12.338   1.896  14.849
 1600SOL    HW1 6639  12.269   1.938  14.798
 1600SOL    HW2 6640  12.408   1.961  14.854
 1601SOL     OW 6641   1.829   3.433   7.188
 1601SOL    HW1 6642   1.895   3.500   7.172
 1601SOL    HW2 6643   1.746   3.473   7.160
 1602SOL     OW 6644  12.763   7.494   5.505
 1602SOL    HW1 6645  12.726   7.408   5.488
 1602SOL    HW2 6646  12.689   7.547   5.534
 1603SOL     OW 6647  11.623   8.614   4.153
 1603SOL    HW1 6648  11.533   8.609   4.185
 1603SOL    HW2 6649  11.645   8.707   4.157
 1604SOL     OW 6650   5.857   4.785   4.924
 1604SOL    HW1 6651   5.943   4.766   4.886
 1604SOL    HW2 6652   5.864   4.761   5.016
 1605SOL     OW 6653   3.757  11.547   1.809
 1605SOL    HW1 6654   3.826  11.503   1.758
 1605SOL    HW2 6655   3.804  11.604   1.869
 1606SOL     OW 6656  10.978   6.879  10.578
 1606SOL    HW1 6657  11.045   6.936  10.540
 1606SOL    HW2 6658  10.897   6.905  10.536
 1607SOL     OW 6659   2.340   7.088   7.457
 1607SOL    HW1 6660   2.365   7.049   7.541
 1607SOL    HW2 6661   2.272   7.152   7.480
 1608SOL     OW 6662   9.115   6.168   0.871
 1608SOL    HW1 6663   9.160   6.085   0.854
 1608SOL    HW2 6664   9.185   6.228   0.896
 1609SOL     OW 6665  14.511  10.947  13.664
 1609SOL    HW1 6666  14.605  10.965  13.665
 1609SOL    HW2 6667  14.503  10.867  13.612
 1610SOL     OW 6668   5.133  12.602   5.946
 1610SOL    HW1 6669   5.106  12.659   6.018
 1610SOL    HW2 6670   5.223  12.627   5.927
 1611SOL     OW 6671   0.780   4.578   7.888
 1611SOL    HW1 6672   0.843   4.555   7.956
 1611SOL    HW2 6673   0.781   4.503   7.828
 1612SOL     OW 6674   6.802  12.510  10.353
 1612SOL    HW1 6675   6.714  12.548  10.352
 1612SOL    HW2 6676   6.850  12.563  10.417
 1613SOL     OW 6677   6.774   4.308   5.402
 1613SOL    HW1 6678   6.837   4.344   5.464
 1613SOL    HW2 6679   6.690   4.347   5.428
 1614SOL     OW 6680   0.255   0.721  10.874
 1614SOL    HW1 6681   0.166   0.738  10.845
 1614SOL    HW2 6682   0.309   0.735  10.796
 1615SOL     OW 6683   4.825   5.893   2.658
 1615SOL    HW1 6684   4.773   5.969   2.683
 1615SOL    HW2 6685   4.862   5.861   2.740
 1616SOL     OW 6686   8.765   9.432  12.035
 1616SOL    HW1 6687   8.708   9.488  11.983
 1616SOL    HW2 6688   8.765   9.348  11.989
 1617SOL     OW 6689   5.011   0.600  13.680
 1617SOL    HW1 6690   5.095   0.563  13.709
 1617SOL    HW2 6691   4.998   0.564  13.593
 1618SOL     OW 6692   9.992   9.271   1.398
 1618SOL    HW1 6693   9.930   9.337   1.368
 1618SOL    HW2 6694  10.039   9.245   1.318
 1619SOL     OW 6695  11.880   7.217  14.468
 1619SOL    HW1 6696  11.913   7.280  14.404
 1619SOL    HW2 6697  11.804   7.259  14.507
 1620SOL     OW 6698   2.034  12.254  10.199
 1620SOL    HW1 6699   1.956  12.294  10.237
 1620SOL    HW2 6700   2.090  12.327  10.176
 1621SOL     OW 6701   9.339  10.180  10.426
 1621SOL    HW1 6702   9.327  10.267  10.465
 1621SOL    HW2 6703   9.252  10.155  10.396
 1622SOL     OW 6704   4.641  11.400  14.568
 1622SOL    HW1 6705   4.686  11.317  14.583
 1622SOL    HW2 6706   4.559  11.375  14.524
 1623SOL     OW 6707  13.279   3.045   4.195
 1623SOL    HW1 6708  13.318   2.958   4.202
 1623SOL    HW2 6709  13.221   3.040   4.119
 1624SOL     OW 6710   5.996   7.920   6.234
 1624SOL    HW1 6711   6.057   7.883   6.170
 1624SOL    HW2 6712   6.006   7.865   6.311
 1625SOL     OW 6713   4.037   9.957  14.645
 1625SOL    HW1 6714   3.958   9.942  14.697
 1625SOL    HW2 6715   4.046   9.877  14.592
 1626SOL     OW 6716  14.804   8.279   4.426
 1626SOL    HW1 6717  14.835   8.206   4.478
 1626SOL    HW2 6718  14.833   8.259   4.337
 1627SOL     OW 6719   5.023   9.974   5.354
 1627SOL    HW1 6720   4.986  10.020   5.278
 1627SOL    HW2 6721   5.054   9.891   5.318
 1628SOL     OW 6722  13.975   8.501  11.058
 1628SOL    HW1 6723  13.944   8.504  11.149
 1628SOL    HW2 6724  14.048   8.562  11.056
 1629SOL     OW 6725  12.394  12.756   9.026
 1629SOL    HW1 6726  12.374  12.673   8.983
 1629SOL    HW2 6727  12.309  12.791   9.053
 1630SOL     OW 6728  10.215   8.575  12.518
 1630SOL    HW1 6729  10.180   8.656  12.482
 1630SOL    HW2 6730  10.178   8.571  12.607
 1631SOL     OW 6731  10.433   0.847   0.736
 1631SOL    HW1 6732  10.430   0.917   0.671
 1631SOL    HW2 6733  10.348   0.853   0.781
 1632SOL     OW 6734   3.303   7.766   6.404
 1632SOL    HW1 6735   3.328   7.677   6.429
 1632SOL    HW2 6736   3.288   7.811   6.487
 1633SOL     OW 6737   8.195   0.360   6.631
 1633SOL    HW1 6738   8.167   0.290   6.571
 1633SOL    HW2 6739   8.154   0.337   6.715
 1634SOL     OW 6740   1.119   5.828   4.698
 1634SOL    HW1 6741   1.214   5.829   4.694
 1634SOL    HW2 6742   1.097   5.888   4.768
 1635SOL     OW 6743   9.303   8.265   6.974
 1635SOL    HW1 6744   9.333   8.176   6.953
 1635SOL    HW2 6745   9.383   8.313   6.996
 1636SOL     OW 6746   7.473   2.321  13.180
 1636SOL    HW1 6747   7.556   2.275  13.190
 1636SOL    HW2 6748   7.480   2.364  13.095
 1637SOL     OW 6749  12.419  12.025   8.211
 1637SOL    HW1 6750  12.363  12.018   8.289
 1637SOL    HW2 6751  12.456  12.113   8.216
 1638SOL     OW 6752   9.617  11.645   1.437
 1638SOL    HW1 6753   9.586  11.729   1.402
 1638SOL    HW2 6754   9.711  11.656   1.447
 1639SOL     OW 6755   0.534   0.947  12.108
 1639SOL    HW1 6756   0.592   0.931  12.033
 1639SOL    HW2 6757   0.587   1.001  12.167
 1640SOL     OW 6758   3.177   4.631   8.711
 1640SOL    HW1 6759   3.136   4.679   8.639
 1640SOL    HW2 6760   3.125   4.653   8.788
 1641SOL     OW 6761  14.056   3.804   9.863
 1641SOL    HW1 6762  14.102   3.733   9.819
 1641SOL    HW2 6763  14.126   3.860   9.897
 1642SOL     OW 6764   2.239   7.609   9.034
 1642SOL    HW1 6765   2.293   7.573   8.963
 1642SOL    HW2 6766   2.259   7.552   9.109
 1643SOL     OW 6767   3.425   1.523   2.354
 1643SOL    HW1 6768   3.460   1.545   2.268
 1643SOL    HW2 6769   3.493   1.551   2.416
 1644SOL     OW 6770  11.567   7.155  11.523
 1644SOL    HW1 6771  11.569   7.237  11.574
 1644SOL    HW2 6772  11.552   7.087  11.589
 1645SOL     OW 6773   7.903   2.969  14.503
 1645SOL    HW1 6774   7.957   2.981  14.425
 1645SOL    HW2 6775   7.930   2.884  14.538
 1646SOL     OW 6776   1.659  11.169   5.103
 1646SOL    HW1 6777   1.718  11.139   5.034
 1646SOL    HW2 6778   1.632  11.257   5.074
 1647SOL     OW 6779   1.776   5.522   6.210
 1647SOL    HW1 6780   1.736   5.551   6.128
 1647SOL    HW2 6781   1.870   5.526   6.194
 1648SOL     OW 6782  14.617   4.444   3.198
 1648SOL    HW1 6783  14.545   4.481   3.249
 1648SOL    HW2 6784  14.602   4.350   3.200
 1649SOL     OW 6785   8.092   8.273   9.111
 1649SOL    HW1 6786   8.117   8.247   9.199
 1649SOL    HW2 6787   8.174   8.272   9.061
 1650SOL     OW 6788  10.045   3.589  12.894
 1650SOL    HW1 6789  10.104   3.595  12.819
 1650SOL    HW2 6790   9.963   3.554  12.858
 1651SOL     OW 6791   2.846   5.569   6.621
 1651SOL    HW1 6792   2.798   5.585   6.539
 1651SOL    HW2 6793   2.818   5.482   6.648
 1652SOL     OW 6794   1.307   1.720  14.739
 1652SOL    HW1 6795   1.390   1.686  14.704
 1652SOL    HW2 6796   1.290   1.798  14.685
 1653SOL     OW 6797  10.673   3.352   4.933
 1653SOL    HW1 6798  10.636   3.412   4.998
 1653SOL    HW2 6799  10.602   3.338   4.870
 1654SOL     OW 6800  12.156  11.891   1.216
 1654SOL    HW1 6801  12.165  11.825   1.147
 1654SOL    HW2 6802  12.081  11.944   1.189
 1655SOL     OW 6803   0.449   0.252  11.953
 1655SOL    HW1 6804   0.522   0.299  11.912
 1655SOL    HW2 6805   0.378   0.259  11.890
 1656SOL     OW 6806  11.786   6.537  11.448
 1656SOL    HW1 6807  11.731   6.507  11.521
 1656SOL    HW2 6808  11.862   6.480  11.451
 1657SOL     OW 6809   2.042   9.876   5.765
 1657SOL    HW1 6810   2.084   9.864   5.849
 1657SOL    HW2 6811   1.948   9.871   5.784
 1658SOL     OW 6812   5.074   2.907   3.773
 1658SOL    HW1 6813   5.104   2.923   3.863
 1658SOL    HW2 6814   5.078   2.992   3.731
 1659SOL     OW 6815   9.228  13.385   3.209
 1659SOL    HW1 6816   9.237  13.479   3.225
 1659SOL    HW2 6817   9.316  13.350   3.223
 1660SOL     OW 6818  14.751   6.446   3.156
 1660SOL    HW1 6819  14.734   6.452   3.062
 1660SOL    HW2 6820  14.716   6.527   3.192
 1661SOL     OW 6821   7.713  10.351   5.651
 1661SOL    HW1 6822   7.769  10.309   5.586
 1661SOL    HW2 6823   7.771  10.410   5.698
 1662SOL     OW 6824   7.117   6.088   0.880
 1662SOL    HW1 6825   7.027   6.081   0.849
 1662SOL    HW2 6826   7.159   6.006   0.853
 1663SOL     OW 6827  13.229   9.097   1.776
 1663SOL    HW1 6828  13.266   9.020   1.733
 1663SOL    HW2 6829  13.305   9.145   1.809
 1664SOL     OW 6830   8.750   9.017   2.171
 1664SOL    HW1 6831   8.784   9.095   2.127
 1664SOL    HW2 6832   8.759   9.036   2.265
 1665SOL     OW 6833   5.089   4.372  10.025
 1665SOL    HW1 6834   5.162   4.425   9.994
 1665SOL    HW2 6835   5.011   4.423  10.004
 1666SOL     OW 6836   4.476   7.567   4.585
 1666SOL    HW1 6837   4.427   7.547   4.505
 1666SOL    HW2 6838   4.545   7.500   4.588
 1667SOL     OW 6839   8.682   7.267  14.019
 1667SOL    HW1 6840   8.625   7.292  14.092
 1667SOL    HW2 6841   8.674   7.339  13.957
 1668SOL     OW 6842   0.511   1.384  11.464
 1668SOL    HW1 6843   0.439   1.322  11.455
 1668SOL    HW2 6844   0.576   1.356  11.401
 1669SOL     OW 6845  13.370  14.138   3.154
 1669SOL    HW1 6846  13.387  14.128   3.060
 1669SOL    HW2 6847  13.304  14.207   3.160
 1670SOL     OW 6848   3.847  14.652   2.161
 1670SOL    HW1 6849   3.815  14.612   2.242
 1670SOL    HW2 6850   3.942  14.649   2.168
 1671SOL     OW 6851  10.351   7.324  11.051
 1671SOL    HW1 6852  10.443   7.341  11.030
 1671SOL    HW2 6853  10.308   7.408  11.039
 1672SOL     OW 6854   4.680   1.973  11.409
 1672SOL    HW1 6855   4.653   1.885  11.437
 1672SOL    HW2 6856   4.697   1.964  11.315
 1673SOL     OW 6857   5.245   2.535   4.671
 1673SOL    HW1 6858   5.306   2.607   4.683
 1673SOL    HW2 6859   5.162   2.567   4.706
 1674SOL     OW 6860   3.640   4.556  10.687
 1674SOL    HW1 6861   3.707   4.488  10.675
 1674SOL    HW2 6862   3.620   4.554  10.780
 1675SOL     OW 6863   4.005  13.997  10.907
 1675SOL    HW1 6864   3.989  14.069  10.845
 1675SOL    HW2 6865   4.100  13.990  10.911
 1676SOL     OW 6866  11.317   6.862   8.985
 1676SOL    HW1 6867  11.413   6.861   8.980
 1676SOL    HW2 6868  11.294   6.953   9.000
 1677SOL     OW 6869   7.772  13.059   6.405
 1677SOL    HW1 6870   7.728  13.078   6.487
 1677SOL    HW2 6871   7.840  12.996   6.428
 1678SOL     OW 6872  11.674   0.198  14.494
 1678SOL    HW1 6873  11.758   0.239  14.474
 1678SOL    HW2 6874  11.616   0.227  14.423
 1679SOL     OW 6875   7.731  10.379  14.707
 1679SOL    HW1 6876   7.683  10.333  14.776
 1679SOL    HW2 6877   7.714  10.472  14.724
 1680SOL     OW 6878  13.000   8.113   0.383
 1680SOL    HW1 6879  13.082   8.068   0.361
 1680SOL    HW2 6880  12.974   8.076   0.467
 1681SOL     OW 6881  12.537   6.377  10.203
 1681SOL    HW1 6882  12.600   6.425  10.149
 1681SOL    HW2 6883  12.534   6.290  10.163
 1682SOL     OW 6884   2.103  12.501   8.046
 1682SOL    HW1 6885   2.054  12.569   7.999
 1682SOL    HW2 6886   2.181  12.547   8.079
 1683SOL     OW 6887  11.598   2.535  12.245
 1683SOL    HW1 6888  11.576   2.520  12.154
 1683SOL    HW2 6889  11.514   2.535  12.291
 1684SOL     OW 6890  12.489  10.558   4.775
 1684SOL    HW1 6891  12.529  10.513   4.701
 1684SOL    HW2 6892  12.450  10.636   4.737
 1685SOL     OW 6893   5.329   2.085  12.516
 1685SOL    HW1 6894   5.329   2.166  12.568
 1685SOL    HW2 6895   5.371   2.110  12.433
 1686SOL     OW 6896  11.996   6.957   4.103
 1686SOL    HW1 6897  11.964   6.868   4.092
 1686SOL    HW2 6898  11.976   6.979   4.194
 1687SOL     OW 6899   1.142  10.164  14.218
 1687SOL    HW1 6900   1.070  10.208  14.172
 1687SOL    HW2 6901   1.209  10.151  14.150
 1688SOL     OW 6902   6.924   9.482  12.413
 1688SOL    HW1 6903   7.008   9.439  12.428
 1688SOL    HW2 6904   6.890   9.439  12.335
 1689SOL     OW 6905   7.948   7.915   5.140
 1689SOL    HW1 6906   8.004   7.845   5.175
 1689SOL    HW2 6907   7.896   7.872   5.072
 1690SOL     OW 6908   0.015  11.862   9.313
 1690SOL    HW1 6909   0.097  11.814   9.304
 1690SOL    HW2 6910   0.043  11.952   9.329
 1691SOL     OW 6911  12.001   6.566  14.807
 1691SOL    HW1 6912  11.913   6.561  14.843
 1691SOL    HW2 6913  12.048   6.493  14.847
 1692SOL     OW 6914  12.958   9.431   2.350
 1692SOL    HW1 6915  13.014   9.503   2.379
 1692SOL    HW2 6916  13.020   9.361   2.326
 1693SOL     OW 6917   1.133   4.474   9.628
 1693SOL    HW1 6918   1.106   4.382   9.631
 1693SOL    HW2 6919   1.190   4.484   9.704
 1694SOL     OW 6920   5.754   0.156   8.935
 1694SOL    HW1 6921   5.709   0.204   8.866
 1694SOL    HW2 6922   5.754   0.216   9.010
 1695SOL     OW 6923   6.377  14.197  12.927
 1695SOL    HW1 6924   6.405  14.236  12.844
 1695SOL    HW2 6925   6.288  14.166  12.910
 1696SOL     OW 6926   7.401   8.462   6.647
 1696SOL    HW1 6927   7.385   8.374   6.613
 1696SOL    HW2 6928   7.335   8.473   6.715
 1697SOL     OW 6929   9.404   0.599  10.875
 1697SOL    HW1 6930   9.460   0.669  10.842
 1697SOL    HW2 6931   9.351   0.573  10.800
 1698SOL     OW 6932  11.399  10.811   4.262
 1698SOL    HW1 6933  11.439  10.730   4.294
 1698SOL    HW2 6934  11.364  10.787   4.176
 1699SOL     OW 6935   3.197   1.459   3.361
 1699SOL    HW1 6936   3.248   1.397   3.413
 1699SOL    HW2 6937   3.233   1.545   3.383
 1700SOL     OW 6938   1.645   7.885   4.633
 1700SOL    HW1 6939   1.604   7.830   4.700
 1700SOL    HW2 6940   1.580   7.892   4.564
 1701SOL     OW 6941   6.883   0.977   2.494
 1701SOL    HW1 6942   6.874   1.032   2.416
 1701SOL    HW2 6943   6.976   0.959   2.501
 1702SOL     OW 6944   8.063   8.196  10.984
 1702SOL    HW1 6945   7.995   8.251  10.944
 1702SOL    HW2 6946   8.135   8.256  11.004
 1703SOL     OW 6947   3.429   5.447   3.525
 1703SOL    HW1 6948   3.377   5.370   3.549
 1703SOL    HW2 6949   3.520   5.415   3.523
 1704SOL     OW 6950   4.213  11.948  10.208
 1704SOL    HW1 6951   4.282  12.007  10.177
 1704SOL    HW2 6952   4.193  11.892  10.133
 1705SOL     OW 6953   5.877   9.873   6.305
 1705SOL    HW1 6954   5.937   9.916   6.366
 1705SOL    HW2 6955   5.837   9.803   6.357
 1706SOL     OW 6956   2.395  13.607  10.797
 1706SOL    HW1 6957   2.312  13.651  10.778
 1706SOL    HW2 6958   2.448  13.622  10.719
 1707SOL     OW 6959  10.544   4.732   8.120
 1707SOL    HW1 6960  10.525   4.709   8.029
 1707SOL    HW2 6961  10.459   4.749   8.160
 1708SOL     OW 6962   2.801   1.461   0.967
 1708SOL    HW1 6963   2.738   1.412   1.020
 1708SOL    HW2 6964   2.885   1.446   1.010
 1709SOL     OW 6965   7.506   8.350   3.207
 1709SOL    HW1 6966   7.539   8.349   3.118
 1709SOL    HW2 6967   7.416   8.381   3.199
 1710SOL     OW 6968   3.454   0.830  13.147
 1710SOL    HW1 6969   3.425   0.746  13.182
 1710SOL    HW2 6970   3.373   0.877  13.128
 1711SOL     OW 6971  10.463   8.730   1.960
 1711SOL    HW1 6972  10.377   8.707   1.995
 1711SOL    HW2 6973  10.515   8.651   1.969
 1712SOL     OW 6974   3.579   5.354  10.274
 1712SOL    HW1 6975   3.651   5.388  10.220
 1712SOL    HW2 6976   3.622   5.324  10.355
 1713SOL     OW 6977   7.400   9.356   6.093
 1713SOL    HW1 6978   7.437   9.280   6.139
 1713SOL    HW2 6979   7.364   9.411   6.163
 1714SOL     OW 6980  13.211   1.635   4.335
 1714SOL    HW1 6981  13.171   1.656   4.250
 1714SOL    HW2 6982  13.220   1.540   4.335
 1715SOL     OW 6983   2.293   3.611   7.073
 1715SOL    HW1 6984   2.301   3.683   7.010
 1715SOL    HW2 6985   2.381   3.603   7.110
 1716SOL     OW 6986   0.747  10.854   8.682
 1716SOL    HW1 6987   0.836  10.822   8.668
 1716SOL    HW2 6988   0.758  10.935   8.731
 1717SOL     OW 6989   7.071  10.963   5.602
 1717SOL    HW1 6990   7.024  10.884   5.576
 1717SOL    HW2 6991   7.004  11.019   5.641
 1718SOL     OW 6992   7.655   3.515   3.883
 1718SOL    HW1 6993   7.602   3.583   3.843
 1718SOL    HW2 6994   7.735   3.559   3.911
 1719SOL     OW 6995   9.752   1.998   1.855
 1719SOL    HW1 6996   9.692   2.056   1.903
 1719SOL    HW2 6997   9.695   1.937   1.809
 1720SOL     OW 6998   2.007   1.224   2.176
 1720SOL    HW1 6999   2.053   1.302   2.210
 1720SOL    HW2 7000   2.077   1.162   2.157
 1721SOL     OW 7001   7.515   4.236  12.115
 1721SOL    HW1 7002   7.501   4.291  12.192
 1721SOL    HW2 7003   7.428   4.223  12.078
 1722SOL     OW 7004   3.195   8.578   5.400
 1722SOL    HW1 7005   3.248   8.653   5.373
 1722SOL    HW2 7006   3.119   8.617   5.443
 1723SOL     OW 7007  14.516  13.715   2.803
 1723SOL    HW1 7008  14.587  13.733   2.864
 1723SOL    HW2 7009  14.559  13.674   2.728
 1724SOL     OW 7010  13.750   6.212   0.800
 1724SOL    HW1 7011  13.840   6.187   0.820
 1724SOL    HW2 7012  13.758   6.282   0.736
 1725SOL     OW 7013   7.089   4.530   6.505
 1725SOL    HW1 7014   7.136   4.450   6.480
 1725SOL    HW2 7015   7.144   4.569   6.573
 1726SOL     OW 7016   7.549   1.406   6.833
 1726SOL    HW1 7017   7.494   1.428   6.908
 1726SOL    HW2 7018   7.525   1.470   6.766
 1727SOL     OW 7019  14.217   2.222  11.797
 1727SOL    HW1 7020  14.207   2.221  11.702
 1727SOL    HW2 7021  14.165   2.147  11.827
 1728SOL     OW 7022   1.741   3.101  13.383
 1728SOL    HW1 7023   1.685   3.063  13.451
 1728SOL    HW2 7024   1.825   3.057  13.395
 1729SOL     OW 7025   2.972   0.816   6.150
 1729SOL    HW1 7026   3.007   0.804   6.238
 1729SOL    HW2 7027   3.020   0.754   6.095
 1730SOL     OW 7028   4.002   7.846  11.304
 1730SOL    HW1 7029   3.972   7.936  11.313
 1730SOL    HW2 7030   4.074   7.838  11.366
 1731SOL     OW 7031   7.916   3.772  11.518
 1731SOL    HW1 7032   7.951   3.746  11.604
 1731SOL    HW2 7033   7.871   3.855  11.535
 1732SOL     OW 7034   4.265  12.161   5.191
 1732SOL    HW1 7035   4.357  12.182   5.206
 1732SOL    HW2 7036   4.224  12.174   5.277
 1733SOL     OW 7037  10.945  11.449   1.723
 1733SOL    HW1 7038  10.904  11.516   1.668
 1733SOL    HW2 7039  10.889  11.445   1.801
 1734SOL     OW 7040  14.314   5.695  10.681
 1734SOL    HW1 7041  14.265   5.717  10.761
 1734SOL    HW2 7042  14.376   5.628  10.709
 1735SOL     OW 7043  13.050   5.054   2.262
 1735SOL    HW1 7044  12.998   5.131   2.283
 1735SOL    HW2 7045  12.999   5.008   2.195
 1736SOL     OW 7046  10.122  10.251   6.921
 1736SOL    HW1 7047  10.040  10.299   6.935
 1736SOL    HW2 7048  10.098  10.179   6.863
 1737SOL     OW 7049  12.325   6.859   3.441
 1737SOL    HW1 7050  12.331   6.951   3.466
 1737SOL    HW2 7051  12.345   6.811   3.522
 1738SOL     OW 7052   8.902   7.316  14.363
 1738SOL    HW1 7053   8.906   7.220  14.361
 1738SOL    HW2 7054   8.909   7.338  14.455
 1739SOL     OW 7055  14.069  12.531   8.790
 1739SOL    HW1 7056  14.150  12.500   8.830
 1739SOL    HW2 7057  14.054  12.617   8.830
 1740SOL     OW 7058   6.092   3.255   8.634
 1740SOL    HW1 7059   6.145   3.319   8.587
 1740SOL    HW2 7060   6.149   3.223   8.704
 1741SOL     OW 7061   6.580   5.988   1.546
 1741SOL    HW1 7062   6.538   5.906   1.572
 1741SOL    HW2 7063   6.579   5.985   1.450
 1742SOL     OW 7064  14.349   4.493   7.815
 1742SOL    HW1 7065  14.426   4.436   7.819
 1742SOL    HW2 7066  14.355   4.547   7.894
 1743SOL     OW 7067  12.271  12.284   3.719
 1743SOL    HW1 7068  12.254  12.258   3.809
 1743SOL    HW2 7069  12.233  12.214   3.666
 1744SOL     OW 7070   7.445   0.440   3.540
 1744SOL    HW1 7071   7.371   0.424   3.481
 1744SOL    HW2 7072   7.490   0.356   3.545
 1745SOL     OW 7073   0.455   4.046  12.695
 1745SOL    HW1 7074   0.542   4.007  12.691
 1745SOL    HW2 7075   0.441   4.086  12.610
 1746SOL     OW 7076   5.005   0.964   2.064
 1746SOL    HW1 7077   5.036   0.881   2.098
 1746SOL    HW2 7078   5.035   1.029   2.127
 1747SOL     OW 7079   9.842   6.239  13.746
 1747SOL    HW1 7080   9.846   6.333  13.728
 1747SOL    HW2 7081   9.814   6.233  13.837
 1748SOL     OW 7082   8.302   5.631   2.899
 1748SOL    HW1 7083   8.276   5.714   2.941
 1748SOL    HW2 7084   8.373   5.655   2.840
 1749SOL     OW 7085  10.256   8.694  10.906
 1749SOL    HW1 7086  10.342   8.735  10.907
 1749SOL    HW2 7087  10.272   8.604  10.933
 1750SOL     OW 7088  11.181   8.428  10.641
 1750SOL    HW1 7089  11.116   8.360  10.656
 1750SOL    HW2 7090  11.255   8.404  10.696
 1751SOL     OW 7091   4.414   9.621   9.618
 1751SOL    HW1 7092   4.413   9.555   9.548
 1751SOL    HW2 7093   4.506   9.637   9.634
 1752SOL     OW 7094  10.609  12.270   8.392
 1752SOL    HW1 7095  10.636  12.180   8.406
 1752SOL    HW2 7096  10.655  12.297   8.312
 1753SOL     OW 7097   6.420   4.341   4.000
 1753SOL    HW1 7098   6.370   4.341   3.919
 1753SOL    HW2 7099   6.511   4.355   3.972
 1754SOL     OW 7100   3.035   6.388   5.416
 1754SOL    HW1 7101   3.115   6.439   5.429
 1754SOL    HW2 7102   3.066   6.302   5.387
 1755SOL     OW 7103  11.277  10.036   0.187
 1755SOL    HW1 7104  11.356   9.983   0.187
 1755SOL    HW2 7105  11.206   9.974   0.200
 1756SOL     OW 7106   1.782   4.226   9.781
 1756SOL    HW1 7107   1.751   4.302   9.731
 1756SOL    HW2 7108   1.781   4.154   9.718
 1757SOL     OW 7109  10.662   5.916   4.862
 1757SOL    HW1 7110  10.596   5.847   4.857
 1757SOL    HW2 7111  10.676   5.942   4.771
 1758SOL     OW 7112   1.281  12.205   1.816
 1758SOL    HW1 7113   1.291  12.163   1.730
 1758SOL    HW2 7114   1.229  12.144   1.867
 1759SOL     OW 7115  13.984   7.252  10.628
 1759SOL    HW1 7116  13.918   7.321  10.617
 1759SOL    HW2 7117  14.024   7.243  10.542
 1760SOL     OW 7118   7.633   7.762   2.341
 1760SOL    HW1 7119   7.672   7.769   2.254
 1760SOL    HW2 7120   7.573   7.836   2.347
 1761SOL     OW 7121  12.663   6.523   3.532
 1761SOL    HW1 7122  12.638   6.430   3.538
 1761SOL    HW2 7123  12.657   6.543   3.439
 1762SOL     OW 7124  11.039   3.757  10.962
 1762SOL    HW1 7125  10.968   3.794  10.910
 1762SOL    HW2 7126  11.066   3.679  10.914
 1763SOL     OW 7127   1.470   3.709  11.017
 1763SOL    HW1 7128   1.420   3.771  10.964
 1763SOL    HW2 7129   1.523   3.764  11.074
 1764SOL     OW 7130   9.644   9.542   8.727
 1764SOL    HW1 7131   9.549   9.531   8.719
 1764SOL    HW2 7132   9.661   9.533   8.820
 1765SOL     OW 7133   8.820   8.527   8.691
 1765SOL    HW1 7134   8.791   8.618   8.683
 1765SOL    HW2 7135   8.806   8.506   8.784
 1766SOL     OW 7136   5.057   2.764   7.769
 1766SOL    HW1 7137   5.126   2.770   7.835
 1766SOL    HW2 7138   4.975   2.770   7.819
 1767SOL     OW 7139  10.615   1.498   3.626
 1767SOL    HW1 7140  10.596   1.580   3.672
 1767SOL    HW2 7141  10.561   1.503   3.546
 1768SOL     OW 7142   7.281   7.401   2.745
 1768SOL    HW1 7143   7.226   7.323   2.753
 1768SOL    HW2 7144   7.242   7.464   2.806
 1769SOL     OW 7145  10.959   6.514   5.385
 1769SOL    HW1 7146  11.010   6.439   5.357
 1769SOL    HW2 7147  11.015   6.590   5.366
 1770SOL     OW 7148   4.049   8.085   3.349
 1770SOL    HW1 7149   3.993   8.064   3.423
 1770SOL    HW2 7150   4.000   8.055   3.272
 1771SOL     OW 7151   2.380   6.293  11.348
 1771SOL    HW1 7152   2.327   6.216  11.369
 1771SOL    HW2 7153   2.360   6.312  11.257
 1772SOL     OW 7154  14.398   0.800   5.669
 1772SOL    HW1 7155  14.446   0.868   5.621
 1772SOL    HW2 7156  14.413   0.720   5.619
 1773SOL     OW 7157   0.492   4.441   1.001
 1773SOL    HW1 7158   0.533   4.355   1.011
 1773SOL    HW2 7159   0.507   4.463   0.909
 1774SOL     OW 7160   2.312   9.033   5.508
 1774SOL    HW1 7161   2.371   8.964   5.537
 1774SOL    HW2 7162   2.290   9.082   5.587
 1775SOL     OW 7163  11.253   7.712   3.606
 1775SOL    HW1 7164  11.240   7.787   3.663
 1775SOL    HW2 7165  11.268   7.638   3.666
 1776SOL     OW 7166   5.279  10.400   3.566
 1776SOL    HW1 7167   5.355  10.416   3.621
 1776SOL    HW2 7168   5.269  10.305   3.566
 1777SOL     OW 7169   2.195   9.381   2.554
 1777SOL    HW1 7170   2.117   9.325   2.548
 1777SOL    HW2 7171   2.176   9.440   2.627
 1778SOL     OW 7172  12.407   4.455   3.870
 1778SOL    HW1 7173  12.440   4.439   3.781
 1778SOL    HW2 7174  12.350   4.381   3.888
 1779SOL     OW 7175   3.415  10.421   5.970
 1779SOL    HW1 7176   3.469  10.387   5.898
 1779SOL    HW2 7177   3.422  10.516   5.962
 1780SOL     OW 7178   1.128   9.466   4.405
 1780SOL    HW1 7179   1.117   9.560   4.413
 1780SOL    HW2 7180   1.213   9.456   4.360
 1781SOL     OW 7181   3.919   6.513   5.932
 1781SOL    HW1 7182   3.873   6.430   5.943
 1781SOL    HW2 7183   3.858   6.568   5.883
 1782SOL     OW 7184  10.117  13.627   6.391
 1782SOL    HW1 7185  10.039  13.572   6.393
 1782SOL    HW2 7186  10.103  13.684   6.315
 1783SOL     OW 7187  14.623  12.000   4.840
 1783SOL    HW1 7188  14.548  11.999   4.781
 1783SOL    HW2 7189  14.614  12.081   4.889
 1784SOL     OW 7190   6.669   9.641   9.234
 1784SOL    HW1 7191   6.722   9.696   9.176
 1784SOL    HW2 7192   6.726   9.624   9.309
 1785SOL     OW 7193   3.311   6.032  10.765
 1785SOL    HW1 7194   3.217   6.024  10.779
 1785SOL    HW2 7195   3.349   5.964  10.822
 1786SOL     OW 7196  14.245   4.405   1.272
 1786SOL    HW1 7197  14.190   4.484   1.270
 1786SOL    HW2 7198  14.241   4.371   1.183
 1787SOL     OW 7199   4.141   6.859   7.626
 1787SOL    HW1 7200   4.154   6.953   7.634
 1787SOL    HW2 7201   4.178   6.836   7.541
 1788SOL     OW 7202  10.994   7.019   8.779
 1788SOL    HW1 7203  11.068   7.013   8.839
 1788SOL    HW2 7204  10.976   6.929   8.752
 1789SOL     OW 7205   0.031   0.435  12.980
 1789SOL    HW1 7206   0.054   0.344  12.999
 1789SOL    HW2 7207   0.097   0.487  13.027
 1790SOL     OW 7208   7.867   9.818   3.266
 1790SOL    HW1 7209   7.804   9.758   3.305
 1790SOL    HW2 7210   7.845   9.904   3.302
 1791SOL     OW 7211   9.604   4.430   6.273
 1791SOL    HW1 7212   9.699   4.440   6.285
 1791SOL    HW2 7213   9.593   4.338   6.249
 1792SOL     OW 7214   2.779  12.328   6.054
 1792SOL    HW1 7215   2.704  12.290   6.008
 1792SOL    HW2 7216   2.828  12.253   6.088
 1793SOL     OW 7217   9.995   1.452   0.097
 1793SOL    HW1 7218  10.053   1.389   0.139
 1793SOL    HW2 7219  10.047   1.532   0.088
 1794SOL     OW 7220   9.891   7.660  14.245
 1794SOL    HW1 7221   9.933   7.746  14.254
 1794SOL    HW2 7222   9.866   7.655  14.153
 1795SOL     OW 7223   8.200   2.617   7.767
 1795SOL    HW1 7224   8.217   2.548   7.703
 1795SOL    HW2 7225   8.231   2.580   7.850
 1796SOL     OW 7226   3.015   7.160  11.347
 1796SOL    HW1 7227   3.034   7.081  11.295
 1796SOL    HW2 7228   3.062   7.230  11.303
 1797SOL     OW 7229   8.659   9.403   6.633
 1797SOL    HW1 7230   8.667   9.387   6.727
 1797SOL    HW2 7231   8.741   9.372   6.596
 1798SOL     OW 7232  14.376  13.130   7.133
 1798SOL    HW1 7233  14.374  13.211   7.082
 1798SOL    HW2 7234  14.306  13.141   7.198
 1799SOL     OW 7235   1.072   7.877   0.009
 1799SOL    HW1 7236   1.107   7.964   0.030
 1799SOL    HW2 7237   1.144   7.818   0.029
 1800SOL     OW 7238   0.237   0.505   7.961
 1800SOL    HW1 7239   0.316   0.502   7.906
 1800SOL    HW2 7240   0.172   0.456   7.913
 1801SOL     OW 7241   2.010   2.359   2.005
 1801SOL    HW1 7242   2.025   2.434   2.063
 1801SOL    HW2 7243   1.949   2.392   1.939
 1802SOL     OW 7244   7.861   2.821   7.386
 1802SOL    HW1 7245   7.908   2.793   7.307
 1802SOL    HW2 7246   7.902   2.773   7.457
 1803SOL     OW 7247   7.988   1.360  11.372
 1803SOL    HW1 7248   8.025   1.415  11.303
 1803SOL    HW2 7249   7.970   1.277  11.328
 1804SOL     OW 7250  14.710   4.300  10.132
 1804SOL    HW1 7251  14.683   4.335  10.046
 1804SOL    HW2 7252  14.636   4.319  10.190
 1805SOL     OW 7253   7.985   8.297   3.540
 1805SOL    HW1 7254   7.968   8.245   3.461
 1805SOL    HW2 7255   7.999   8.386   3.507
 1806SOL     OW 7256   7.835   8.690   5.676
 1806SOL    HW1 7257   7.873   8.765   5.721
 1806SOL    HW2 7258   7.795   8.727   5.597
 1807SOL     OW 7259   8.938   2.613   6.760
 1807SOL    HW1 7260   8.938   2.705   6.787
 1807SOL    HW2 7261   9.024   2.580   6.787
 1808SOL     OW 7262   0.314   1.441   4.057
 1808SOL    HW1 7263   0.380   1.419   3.991
 1808SOL    HW2 7264   0.249   1.371   4.051
 1809SOL     OW 7265  14.614   0.389  13.801
 1809SOL    HW1 7266  14.532   0.397  13.752
 1809SOL    HW2 7267  14.646   0.301  13.779
 1810SOL     OW 7268  11.119   1.793  12.101
 1810SOL    HW1 7269  11.065   1.828  12.031
 1810SOL    HW2 7270  11.108   1.856  12.173
 1811SOL     OW 7271   4.494  10.687   4.757
 1811SOL    HW1 7272   4.518  10.759   4.699
 1811SOL    HW2 7273   4.480  10.613   4.699
 1812SOL     OW 7274   3.163  11.012   5.479
 1812SOL    HW1 7275   3.128  10.954   5.547
 1812SOL    HW2 7276   3.256  10.992   5.476
 1813SOL     OW 7277   2.874  13.446  12.842
 1813SOL    HW1 7278   2.967  13.451  12.822
 1813SOL    HW2 7279   2.870  13.439  12.938
 1814SOL     OW 7280  13.242   2.062   7.310
 1814SOL    HW1 7281  13.224   2.124   7.381
 1814SOL    HW2 7282  13.162   2.009   7.305
 1815SOL     OW 7283   1.012   0.208  12.889
 1815SOL    HW1 7284   0.965   0.188  12.808
 1815SOL    HW2 7285   1.006   0.128  12.941
 1816SOL     OW 7286  12.850   8.640   4.245
 1816SOL    HW1 7287  12.928   8.695   4.243
 1816SOL    HW2 7288  12.882   8.553   4.269
 1817SOL     OW 7289   8.077   5.100  10.236
 1817SOL    HW1 7290   8.098   5.150  10.315
 1817SOL    HW2 7291   8.114   5.153  10.164
 1818SOL     OW 7292  13.191  12.752   1.181
 1818SOL    HW1 7293  13.230  12.701   1.251
 1818SOL    HW2 7294  13.183  12.691   1.108
 1819SOL     OW 7295  11.335   1.374   9.897
 1819SOL    HW1 7296  11.391   1.323   9.839
 1819SOL    HW2 7297  11.323   1.318   9.974
 1820SOL     OW 7298   3.071   1.599   8.408
 1820SOL    HW1 7299   3.039   1.681   8.370
 1820SOL    HW2 7300   3.060   1.611   8.502
 1821SOL     OW 7301  12.456   6.449   1.143
 1821SOL    HW1 7302  12.414   6.424   1.225
 1821SOL    HW2 7303  12.543   6.410   1.148
 1822SOL     OW 7304  14.171   3.375   6.075
 1822SOL    HW1 7305  14.148   3.309   6.141
 1822SOL    HW2 7306  14.237   3.333   6.021
 1823SOL     OW 7307   7.478   8.950   9.915
 1823SOL    HW1 7308   7.521   8.954  10.000
 1823SOL    HW2 7309   7.489   9.037   9.878
 1824SOL     OW 7310   6.293   3.586   6.841
 1824SOL    HW1 7311   6.206   3.609   6.872
 1824SOL    HW2 7312   6.307   3.496   6.871
 1825SOL     OW 7313  14.581   4.862  12.384
 1825SOL    HW1 7314  14.622   4.927  12.328
 1825SOL    HW2 7315  14.491   4.892  12.394
 1826SOL     OW 7316   8.640  14.023  12.090
 1826SOL    HW1 7317   8.656  14.070  12.009
 1826SOL    HW2 7318   8.604  14.088  12.150
 1827SOL     OW 7319   9.517   4.460   7.688
 1827SOL    HW1 7320   9.592   4.447   7.747
 1827SOL    HW2 7321   9.445   4.413   7.731
 1828SOL     OW 7322  10.325  13.190   5.117
 1828SOL    HW1 7323  10.408  13.198   5.070
 1828SOL    HW2 7324  10.345  13.216   5.207
 1829SOL     OW 7325   5.626  14.428  10.803
 1829SOL    HW1 7326   5.598  14.447  10.892
 1829SOL    HW2 7327   5.648  14.513  10.765
 1830SOL     OW 7328  13.950  11.631  10.860
 1830SOL    HW1 7329  14.028  11.676  10.892
 1830SOL    HW2 7330  13.962  11.540  10.887
 1831SOL     OW 7331   6.052  14.643  14.041
 1831SOL    HW1 7332   5.964  14.649  14.005
 1831SOL    HW2 7333   6.066  14.728  14.084
 1832SOL     OW 7334   6.175   2.094   6.034
 1832SOL    HW1 7335   6.120   2.116   6.109
 1832SOL    HW2 7336   6.229   2.021   6.064
 1833SOL     OW 7337  14.743   8.098  11.825
 1833SOL    HW1 7338  14.711   8.097  11.915
 1833SOL    HW2 7339  14.807   8.027  11.821
 1834SOL     OW 7340   8.244  10.273  10.825
 1834SOL    HW1 7341   8.281  10.329  10.757
 1834SOL    HW2 7342   8.311  10.206  10.841
 1835SOL     OW 7343   6.138   3.767  11.556
 1835SOL    HW1 7344   6.066   3.764  11.492
 1835SOL    HW2 7345   6.100   3.810  11.633
 1836SOL     OW 7346  12.978  14.227  14.670
 1836SOL    HW1 7347  12.883  14.235  14.661
 1836SOL    HW2 7348  13.013  14.292  14.610
 1837SOL     OW 7349  12.125   2.222   1.058
 1837SOL    HW1 7350  12.159   2.174   1.133
 1837SOL    HW2 7351  12.036   2.189   1.045
 1838SOL     OW 7352   3.666   0.840   3.567
 1838SOL    HW1 7353   3.647   0.774   3.500
 1838SOL    HW2 7354   3.603   0.823   3.637
 1839SOL     OW 7355   8.863  13.164  14.506
 1839SOL    HW1 7356   8.954  13.192  14.513
 1839SOL    HW2 7357   8.853  13.137  14.415
 1840SOL     OW 7358   3.511   7.833  11.791
 1840SOL    HW1 7359   3.479   7.838  11.881
 1840SOL    HW2 7360   3.567   7.911  11.781
 1841SOL     OW 7361   0.704   6.908   5.867
 1841SOL    HW1 7362   0.677   6.877   5.953
 1841SOL    HW2 7363   0.720   7.002   5.879
 1842SOL     OW 7364   2.720   7.329   6.156
 1842SOL    HW1 7365   2.633   7.300   6.129
 1842SOL    HW2 7366   2.711   7.348   6.249
 1843SOL     OW 7367   1.508   4.753   8.741
 1843SOL    HW1 7368   1.513   4.666   8.701
 1843SOL    HW2 7369   1.567   4.749   8.816
 1844SOL     OW 7370   0.115   0.246   7.002
 1844SOL    HW1 7371   0.074   0.181   6.945
 1844SOL    HW2 7372   0.162   0.304   6.943
 1845SOL     OW 7373   4.411  10.945   5.220
 1845SOL    HW1 7374   4.504  10.966   5.220
 1845SOL    HW2 7375   4.403  10.870   5.160
 1846SOL     OW 7376  13.737   0.664  12.140
 1846SOL    HW1 7377  13.662   0.677  12.198
 1846SOL    HW2 7378  13.812   0.695  12.190
 1847SOL     OW 7379   8.707   7.931   6.592
 1847SOL    HW1 7380   8.759   7.964   6.519
 1847SOL    HW2 7381   8.709   8.001   6.657
 1848SOL     OW 7382   1.248  11.494   7.529
 1848SOL    HW1 7383   1.290  11.505   7.614
 1848SOL    HW2 7384   1.296  11.423   7.487
 1849SOL     OW 7385  10.524   8.011  13.158
 1849SOL    HW1 7386  10.526   7.971  13.071
 1849SOL    HW2 7387  10.472   7.951  13.211
 1850SOL     OW 7388   6.643  10.283   0.765
 1850SOL    HW1 7389   6.551  10.309   0.762
 1850SOL    HW2 7390   6.644  10.205   0.821
 1851SOL     OW 7391  12.291   2.090  14.245
 1851SOL    HW1 7392  12.341   2.163  14.282
 1851SOL    HW2 7393  12.336   2.011  14.276
 1852SOL     OW 7394   5.846  14.110  11.377
 1852SOL    HW1 7395   5.808  14.198  11.375
 1852SOL    HW2 7396   5.805  14.067  11.452
 1853SOL     OW 7397   5.094   1.926  13.300
 1853SOL    HW1 7398   5.014   1.934  13.247
 1853SOL    HW2 7399   5.068   1.873  13.376
 1854SOL     OW 7400  10.034   6.783  14.791
 1854SOL    HW1 7401  10.119   6.827  14.787
 1854SOL    HW2 7402  10.015   6.759  14.700
 1855SOL     OW 7403  14.205  13.317  14.068
 1855SOL    HW1 7404  14.300  13.323  14.062
 1855SOL    HW2 7405  14.187  13.308  14.162
 1856SOL     OW 7406   4.380  12.182  13.810
 1856SOL    HW1 7407   4.444  12.137  13.865
 1856SOL    HW2 7408   4.401  12.155  13.721
 1857SOL     OW 7409   5.552  10.393   3.709
 1857SOL    HW1 7410   5.622  10.424   3.766
 1857SOL    HW2 7411   5.585  10.309   3.675
 1858SOL     OW 7412  13.383  11.301  11.848
 1858SOL    HW1 7413  13.361  11.375  11.792
 1858SOL    HW2 7414  13.475  11.314  11.870
 1859SOL     OW 7415   9.178   9.367  12.611
 1859SOL    HW1 7416   9.135   9.311  12.547
 1859SOL    HW2 7417   9.260   9.394  12.570
 1860SOL     OW 7418   3.492   7.589  12.857
 1860SOL    HW1 7419   3.496   7.613  12.949
 1860SOL    HW2 7420   3.580   7.554  12.837
 1861SOL     OW 7421  10.842   2.493   6.582
 1861SOL    HW1 7422  10.826   2.447   6.499
 1861SOL    HW2 7423  10.927   2.459   6.611
 1862SOL     OW 7424  10.028  14.241   9.784
 1862SOL    HW1 7425  10.102  14.189   9.755
 1862SOL    HW2 7426  10.033  14.241   9.879
 1863SOL     OW 7427   0.533   7.852  14.566
 1863SOL    HW1 7428   0.515   7.879  14.656
 1863SOL    HW2 7429   0.600   7.784  14.574
 1864SOL     OW 7430  10.950   3.857   2.190
 1864SOL    HW1 7431  10.944   3.771   2.148
 1864SOL    HW2 7432  10.998   3.840   2.271
 1865SOL     OW 7433   7.761   5.880  12.373
 1865SOL    HW1 7434   7.742   5.804  12.318
 1865SOL    HW2 7435   7.763   5.954  12.311
 1866SOL     OW 7436  10.582   5.970   9.654
 1866SOL    HW1 7437  10.638   5.932   9.722
 1866SOL    HW2 7438  10.580   6.064   9.675
 1867SOL     OW 7439  11.807   0.654   4.682
 1867SOL    HW1 7440  11.822   0.745   4.655
 1867SOL    HW2 7441  11.891   0.611   4.669
 1868SOL     OW 7442  10.318  11.441  14.636
 1868SOL    HW1 7443  10.307  11.423  14.729
 1868SOL    HW2 7444  10.366  11.365  14.603
 1869SOL     OW 7445   3.103   2.651  14.396
 1869SOL    HW1 7446   3.183   2.660  14.345
 1869SOL    HW2 7447   3.038   2.618  14.334
 1870SOL     OW 7448  13.226   1.506   5.748
 1870SOL    HW1 7449  13.192   1.460   5.671
 1870SOL    HW2 7450  13.165   1.483   5.818
 1871SOL     OW 7451   1.246  12.428   2.621
 1871SOL    HW1 7452   1.204  12.370   2.684
 1871SOL    HW2 7453   1.271  12.371   2.548
 1872SOL     OW 7454   7.029   3.968   3.580
 1872SOL    HW1 7455   6.998   3.908   3.511
 1872SOL    HW2 7456   7.037   4.052   3.536
 1873SOL     OW 7457  10.994   1.164   2.967
 1873SOL    HW1 7458  10.917   1.155   2.911
 1873SOL    HW2 7459  11.062   1.115   2.922
 1874SOL     OW 7460  12.755   0.835   2.590
 1874SOL    HW1 7461  12.693   0.907   2.577
 1874SOL    HW2 7462  12.833   0.877   2.626
 1875SOL     OW 7463   0.533   1.896   6.500
 1875SOL    HW1 7464   0.576   1.980   6.514
 1875SOL    HW2 7465   0.517   1.892   6.406
 1876SOL     OW 7466  14.606  11.896  13.640
 1876SOL    HW1 7467  14.559  11.930  13.716
 1876SOL    HW2 7468  14.668  11.832  13.676
 1877SOL     OW 7469   1.138   5.790  11.600
 1877SOL    HW1 7470   1.209   5.728  11.616
 1877SOL    HW2 7471   1.142   5.808  11.506
 1878SOL     OW 7472   1.064   1.524  12.749
 1878SOL    HW1 7473   1.097   1.499  12.663
 1878SOL    HW2 7474   1.042   1.441  12.792
 1879SOL     OW 7475   3.641   5.476  11.868
 1879SOL    HW1 7476   3.674   5.416  11.801
 1879SOL    HW2 7477   3.611   5.552  11.819
 1880SOL     OW 7478   8.918  10.761   3.972
 1880SOL    HW1 7479   8.840  10.737   4.021
 1880SOL    HW2 7480   8.957  10.677   3.946
 1881SOL     OW 7481  12.454   6.514   9.785
 1881SOL    HW1 7482  12.437   6.597   9.741
 1881SOL    HW2 7483  12.548   6.501   9.777
 1882SOL     OW 7484  13.778  12.459   4.566
 1882SOL    HW1 7485  13.753  12.396   4.499
 1882SOL    HW2 7486  13.874  12.461   4.562
 1883SOL     OW 7487   7.516   6.932   0.806
 1883SOL    HW1 7488   7.592   6.988   0.795
 1883SOL    HW2 7489   7.463   6.976   0.872
 1884SOL     OW 7490   0.596   7.055  10.138
 1884SOL    HW1 7491   0.654   7.131  10.132
 1884SOL    HW2 7492   0.521   7.087  10.188
 1885SOL     OW 7493   6.987   5.231   7.124
 1885SOL    HW1 7494   6.964   5.259   7.035
 1885SOL    HW2 7495   7.066   5.179   7.113
 1886SOL     OW 7496  13.285   5.765   6.963
 1886SOL    HW1 7497  13.378   5.786   6.966
 1886SOL    HW2 7498  13.246   5.835   6.910
 1887SOL     OW 7499   8.472   4.872   3.454
 1887SOL    HW1 7500   8.495   4.810   3.523
 1887SOL    HW2 7501   8.517   4.840   3.376
 1888SOL     OW 7502   6.099   6.387   2.276
 1888SOL    HW1 7503   6.091   6.483   2.282
 1888SOL    HW2 7504   6.136   6.372   2.190
 1889SOL     OW 7505   6.493  12.609   5.061
 1889SOL    HW1 7506   6.562  12.559   5.017
 1889SOL    HW2 7507   6.416  12.597   5.005
 1890SOL     OW 7508   4.189   6.981   0.031
 1890SOL    HW1 7509   4.120   7.048   0.023
 1890SOL    HW2 7510   4.150   6.913   0.086
 1891SOL     OW 7511  12.664   6.334   3.144
 1891SOL    HW1 7512  12.650   6.410   3.201
 1891SOL    HW2 7513  12.589   6.333   3.085
 1892SOL     OW 7514  11.415  13.032   8.291
 1892SOL    HW1 7515  11.379  13.049   8.378
 1892SOL    HW2 7516  11.460  12.948   8.300
 1893SOL     OW 7517   3.342  13.828   9.838
 1893SOL    HW1 7518   3.402  13.902   9.839
 1893SOL    HW2 7519   3.388  13.759   9.886
 1894SOL     OW 7520   7.862   4.420  12.714
 1894SOL    HW1 7521   7.769   4.442  12.708
 1894SOL    HW2 7522   7.901   4.463  12.638
 1895SOL     OW 7523   6.169   6.560   1.158
 1895SOL    HW1 7524   6.198   6.575   1.068
 1895SOL    HW2 7525   6.139   6.469   1.158
 1896SOL     OW 7526   3.221   1.214  10.095
 1896SOL    HW1 7527   3.275   1.224  10.017
 1896SOL    HW2 7528   3.234   1.296  10.144
 1897SOL     OW 7529   5.110   7.108  13.824
 1897SOL    HW1 7530   5.017   7.112  13.847
 1897SOL    HW2 7531   5.134   7.016  13.836
 1898SOL     OW 7532   1.703   7.483   7.572
 1898SOL    HW1 7533   1.643   7.431   7.625
 1898SOL    HW2 7534   1.651   7.508   7.495
 1899SOL     OW 7535   5.346   1.434  11.366
 1899SOL    HW1 7536   5.397   1.484  11.429
 1899SOL    HW2 7537   5.344   1.488  11.287
 1900SOL     OW 7538   9.428  14.332  12.452
 1900SOL    HW1 7539   9.409  14.238  12.459
 1900SOL    HW2 7540   9.380  14.371  12.525
 1901SOL     OW 7541   1.336   5.152   4.878
 1901SOL    HW1 7542   1.386   5.071   4.867
 1901SOL    HW2 7543   1.401   5.222   4.868
 1902SOL     OW 7544   5.120   1.175  11.987
 1902SOL    HW1 7545   5.126   1.192  12.082
 1902SOL    HW2 7546   5.108   1.081  11.980
 1903SOL     OW 7547   4.904   1.219   9.649
 1903SOL    HW1 7548   4.890   1.145   9.589
 1903SOL    HW2 7549   4.819   1.230   9.692
 1904SOL     OW 7550   2.384   2.938  14.556
 1904SOL    HW1 7551   2.298   2.933  14.515
 1904SOL    HW2 7552   2.366   2.954  14.649
 1905SOL     OW 7553  12.423  11.821   0.670
 1905SOL    HW1 7554  12.393  11.825   0.761
 1905SOL    HW2 7555  12.511  11.784   0.675
 1906SOL     OW 7556   4.294   0.139   7.762
 1906SOL    HW1 7557   4.361   0.071   7.769
 1906SOL    HW2 7558   4.212   0.091   7.749
 1907SOL     OW 7559  14.048   9.977  12.349
 1907SOL    HW1 7560  14.108   9.906  12.375
 1907SOL    HW2 7561  14.019  10.016  12.432
 1908SOL     OW 7562   1.394  10.837   3.961
 1908SOL    HW1 7563   1.473  10.859   3.913
 1908SOL    HW2 7564   1.385  10.742   3.952
 1909SOL     OW 7565   0.721   9.850  11.915
 1909SOL    HW1 7566   0.654   9.832  11.849
 1909SOL    HW2 7567   0.758   9.934  11.889
 1910SOL     OW 7568   1.578   1.089   5.291
 1910SOL    HW1 7569   1.512   1.022   5.273
 1910SOL    HW2 7570   1.645   1.044   5.342
 1911SOL     OW 7571   6.040   4.286  10.797
 1911SOL    HW1 7572   6.109   4.326  10.744
 1911SOL    HW2 7573   6.019   4.205  10.752
 1912SOL     OW 7574   7.059   2.380  13.711
 1912SOL    HW1 7575   7.039   2.441  13.782
 1912SOL    HW2 7576   7.081   2.298  13.756
 1913SOL     OW 7577   1.199   0.697   5.593
 1913SOL    HW1 7578   1.270   0.720   5.654
 1913SOL    HW2 7579   1.151   0.628   5.639
 1914SOL     OW 7580   3.918  13.349   2.732
 1914SOL    HW1 7581   3.890  13.261   2.705
 1914SOL    HW2 7582   3.839  13.389   2.769
 1915SOL     OW 7583   1.885   7.290   7.475
 1915SOL    HW1 7584   1.804   7.337   7.495
 1915SOL    HW2 7585   1.903   7.309   7.383
 1916SOL     OW 7586  14.103  10.652  14.130
 1916SOL    HW1 7587  14.078  10.603  14.052
 1916SOL    HW2 7588  14.144  10.731  14.096
 1917SOL     OW 7589  10.967  14.650   0.848
 1917SOL    HW1 7590  11.014  14.657   0.931
 1917SOL    HW2 7591  11.030  14.607   0.789
 1918SOL     OW 7592   5.960  13.916   7.114
 1918SOL    HW1 7593   5.879  13.949   7.075
 1918SOL    HW2 7594   5.974  13.970   7.191
 1919SOL     OW 7595  11.632   3.216   3.417
 1919SOL    HW1 7596  11.680   3.158   3.477
 1919SOL    HW2 7597  11.572   3.264   3.474
 1920SOL     OW 7598   0.350   5.120   8.410
 1920SOL    HW1 7599   0.293   5.195   8.422
 1920SOL    HW2 7600   0.308   5.049   8.460
 1921SOL     OW 7601   7.395   1.045  10.606
 1921SOL    HW1 7602   7.449   1.067  10.683
 1921SOL    HW2 7603   7.346   0.967  10.633
 1922SOL     OW 7604  10.074  13.422   0.745
 1922SOL    HW1 7605   9.988  13.464   0.741
 1922SOL    HW2 7606  10.126  13.468   0.678
 1923SOL     OW 7607   8.055   1.813  12.779
 1923SOL    HW1 7608   8.118   1.747  12.809
 1923SOL    HW2 7609   8.080   1.830  12.689
 1924SOL     OW 7610   8.625   8.659   2.213
 1924SOL    HW1 7611   8.598   8.567   2.217
 1924SOL    HW2 7612   8.543   8.708   2.212
 1925SOL     OW 7613   5.605  13.438  11.807
 1925SOL    HW1 7614   5.658  13.484  11.873
 1925SOL    HW2 7615   5.669  13.400  11.747
 1926SOL     OW 7616  11.886   8.678   5.837
 1926SOL    HW1 7617  11.879   8.586   5.863
 1926SOL    HW2 7618  11.879   8.677   5.742
 1927SOL     OW 7619   1.456   8.598  14.088
 1927SOL    HW1 7620   1.543   8.561  14.103
 1927SOL    HW2 7621   1.459   8.632  13.999
 1928SOL     OW 7622  12.858   0.494   8.076
 1928SOL    HW1 7623  12.780   0.452   8.042
 1928SOL    HW2 7624  12.917   0.501   8.001
 1929SOL     OW 7625   9.503   3.135   5.518
 1929SOL    HW1 7626   9.492   3.216   5.568
 1929SOL    HW2 7627   9.564   3.083   5.570
 1930SOL     OW 7628   7.424  12.068  14.602
 1930SOL    HW1 7629   7.461  11.983  14.626
 1930SOL    HW2 7630   7.368  12.048  14.526
 1931SOL     OW 7631   9.113   1.329   4.154
 1931SOL    HW1 7632   9.181   1.396   4.146
 1931SOL    HW2 7633   9.157   1.248   4.128
 1932SOL     OW 7634   9.999   3.005  11.929
 1932SOL    HW1 7635  10.072   3.052  11.889
 1932SOL    HW2 7636  10.041   2.939  11.984
 1933SOL     OW 7637  12.863   7.850  14.432
 1933SOL    HW1 7638  12.771   7.857  14.408
 1933SOL    HW2 7639  12.864   7.786  14.503
 1934SOL     OW 7640   7.572   7.887   7.041
 1934SOL    HW1 7641   7.630   7.880   6.965
 1934SOL    HW2 7642   7.486   7.863   7.008
 1935SOL     OW 7643   1.701   0.371   3.914
 1935SOL    HW1 7644   1.778   0.313   3.920
 1935SOL    HW2 7645   1.695   0.394   3.822
 1936SOL     OW 7646  11.050  13.270   9.268
 1936SOL    HW1 7647  10.978  13.331   9.288
 1936SOL    HW2 7648  11.119  13.326   9.231
 1937SOL     OW 7649   2.814   2.539   0.507
 1937SOL    HW1 7650   2.887   2.492   0.547
 1937SOL    HW2 7651   2.814   2.508   0.416
 1938SOL     OW 7652   4.425   2.724   7.435
 1938SOL    HW1 7653   4.332   2.705   7.448
 1938SOL    HW2 7654   4.447   2.683   7.352
 1939SOL     OW 7655   5.755  14.028  12.600
 1939SOL    HW1 7656   5.808  14.096  12.643
 1939SOL    HW2 7657   5.701  13.992  12.671
 1940SOL     OW 7658   0.065   2.183   9.169
 1940SOL    HW1 7659  14.864   2.219   9.200
 1940SOL    HW2 7660   0.126   2.256   9.174
 1941SOL     OW 7661   7.953   8.800   2.191
 1941SOL    HW1 7662   8.037   8.787   2.147
 1941SOL    HW2 7663   7.976   8.842   2.274
 1942SOL     OW 7664  13.684   6.745   4.445
 1942SOL    HW1 7665  13.659   6.837   4.450
 1942SOL    HW2 7666  13.753   6.743   4.378
 1943SOL     OW 7667   7.802  12.191   0.461
 1943SOL    HW1 7668   7.812  12.163   0.552
 1943SOL    HW2 7669   7.717  12.236   0.459
 1944SOL     OW 7670  12.375   5.899   3.690
 1944SOL    HW1 7671  12.397   5.823   3.635
 1944SOL    HW2 7672  12.435   5.967   3.660
 1945SOL     OW 7673   3.462  11.630   8.959
 1945SOL    HW1 7674   3.547  11.625   8.915
 1945SOL    HW2 7675   3.421  11.545   8.940
 1946SOL     OW 7676   8.367   7.483   4.240
 1946SOL    HW1 7677   8.349   7.577   4.236
 1946SOL    HW2 7678   8.385   7.466   4.332
 1947SOL     OW 7679   5.956   9.916   9.536
 1947SOL    HW1 7680   5.910   9.834   9.553
 1947SOL    HW2 7681   6.004   9.933   9.617
 1948SOL     OW 7682  11.626  13.553   2.932
 1948SOL    HW1 7683  11.706  13.522   2.888
 1948SOL    HW2 7684  11.612  13.641   2.897
 1949SOL     OW 7685  12.655   1.725  10.700
 1949SOL    HW1 7686  12.576   1.687  10.663
 1949SOL    HW2 7687  12.721   1.716  10.631
 1950SOL     OW 7688   0.470   4.949   3.847
 1950SOL    HW1 7689   0.529   4.920   3.917
 1950SOL    HW2 7690   0.395   4.890   3.853
 1951SOL     OW 7691   5.849   0.774  12.851
 1951SOL    HW1 7692   5.761   0.796  12.880
 1951SOL    HW2 7693   5.842   0.684  12.820
 1952SOL     OW 7694  11.409   6.064   4.041
 1952SOL    HW1 7695  11.331   6.076   3.986
 1952SOL    HW2 7696  11.466   6.137   4.017
 1953SOL     OW 7697  10.784  12.631  13.848
 1953SOL    HW1 7698  10.742  12.675  13.774
 1953SOL    HW2 7699  10.725  12.559  13.870
 1954SOL     OW 7700  13.090  14.410  14.520
 1954SOL    HW1 7701  13.136  14.354  14.457
 1954SOL    HW2 7702  13.124  14.498  14.502
 1955SOL     OW 7703   3.919  11.938   4.770
 1955SOL    HW1 7704   4.011  11.921   4.751
 1955SOL    HW2 7705   3.902  11.894   4.853
 1956SOL     OW 7706   0.683   8.668   3.321
 1956SOL    HW1 7707   0.672   8.762   3.314
 1956SOL    HW2 7708   0.768   8.650   3.282
 1957SOL     OW 7709   7.927   0.794  14.307
 1957SOL    HW1 7710   7.974   0.876  14.295
 1957SOL    HW2 7711   7.920   0.757  14.219
 1958SOL     OW 7712  13.575  10.900   0.312
 1958SOL    HW1 7713  13.653  10.864   0.270
 1958SOL    HW2 7714  13.607  10.935   0.396
 1959SOL     OW 7715  13.216  13.257   9.563
 1959SOL    HW1 7716  13.148  13.260   9.495
 1959SOL    HW2 7717  13.277  13.326   9.538
 1960SOL     OW 7718  14.752   9.082   6.201
 1960SOL    HW1 7719  14.709   9.086   6.287
 1960SOL    HW2 7720  14.843   9.062   6.221
 1961SOL     OW 7721  14.133   4.278   8.607
 1961SOL    HW1 7722  14.043   4.281   8.575
 1961SOL    HW2 7723  14.159   4.186   8.596
 1962SOL     OW 7724   3.255  11.058  14.740
 1962SOL    HW1 7725   3.183  10.995  14.727
 1962SOL    HW2 7726   3.332  11.004  14.753
 1963SOL     OW 7727  14.633  11.957   8.146
 1963SOL    HW1 7728  14.712  11.915   8.178
 1963SOL    HW2 7729  14.663  12.015   8.076
 1964SOL     OW 7730   8.903   0.317   3.533
 1964SOL    HW1 7731   8.933   0.244   3.480
 1964SOL    HW2 7732   8.892   0.389   3.471
 1965SOL     OW 7733   2.184   9.695   9.939
 1965SOL    HW1 7734   2.245   9.769   9.940
 1965SOL    HW2 7735   2.108   9.728   9.892
 1966SOL     OW 7736   8.164  13.371  12.557
 1966SOL    HW1 7737   8.080  13.325  12.561
 1966SOL    HW2 7738   8.141  13.462  12.539
 1967SOL     OW 7739  14.179   8.566  14.877
 1967SOL    HW1 7740  14.087   8.590   0.006
 1967SOL    HW2 7741  14.202   8.525   0.079
 1968SOL     OW 7742  13.989   0.161   1.802
 1968SOL    HW1 7743  14.071   0.201   1.832
 1968SOL    HW2 7744  13.973   0.200   1.716
 1969SOL     OW 7745   9.148  11.457  14.005
 1969SOL    HW1 7746   9.152  11.430  13.913
 1969SOL    HW2 7747   9.057  11.444  14.031
 1970SOL     OW 7748   3.820   9.954  13.964
 1970SOL    HW1 7749   3.810  10.049  13.958
 1970SOL    HW2 7750   3.797   9.921  13.877
 1971SOL     OW 7751   4.513   3.723   4.068
 1971SOL    HW1 7752   4.434   3.669   4.063
 1971SOL    HW2 7753   4.576   3.670   4.118
 1972SOL     OW 7754   3.074   6.349  11.325
 1972SOL    HW1 7755   3.089   6.325  11.234
 1972SOL    HW2 7756   2.986   6.316  11.345
 1973SOL     OW 7757   2.703  13.699  13.506
 1973SOL    HW1 7758   2.790  13.730  13.530
 1973SOL    HW2 7759   2.643  13.756  13.555
 1974SOL     OW 7760   4.060  10.755  12.192
 1974SOL    HW1 7761   4.025  10.667  12.176
 1974SOL    HW2 7762   4.088  10.753  12.284
 1975SOL     OW 7763   7.830   4.094   5.756
 1975SOL    HW1 7764   7.734   4.093   5.759
 1975SOL    HW2 7765   7.857   4.020   5.809
 1976SOL     OW 7766   3.310   1.695   4.637
 1976SOL    HW1 7767   3.264   1.770   4.674
 1976SOL    HW2 7768   3.338   1.723   4.550
 1977SOL     OW 7769   5.652   2.205   8.960
 1977SOL    HW1 7770   5.727   2.186   9.016
 1977SOL    HW2 7771   5.587   2.243   9.019
 1978SOL     OW 7772  14.595  14.278  14.668
 1978SOL    HW1 7773  14.618  14.253  14.578
 1978SOL    HW2 7774  14.519  14.224  14.689
 1979SOL     OW 7775   7.984   7.646   5.082
 1979SOL    HW1 7776   8.033   7.590   5.143
 1979SOL    HW2 7777   8.024   7.628   4.997
 1980SOL     OW 7778   6.406   1.248  13.511
 1980SOL    HW1 7779   6.360   1.191  13.450
 1980SOL    HW2 7780   6.337   1.278  13.571
 1981SOL     OW 7781   6.876   4.183  14.645
 1981SOL    HW1 7782   6.896   4.271  14.611
 1981SOL    HW2 7783   6.817   4.199  14.719
 1982SOL     OW 7784   7.414  14.737  14.527
 1982SOL    HW1 7785   7.437  14.693  14.445
 1982SOL    HW2 7786   7.442  14.828  14.513
 1983SOL     OW 7787  11.983   1.959   3.908
 1983SOL    HW1 7788  12.019   2.044   3.930
 1983SOL    HW2 7789  12.058   1.908   3.876
 1984SOL     OW 7790  13.457   0.023   2.955
 1984SOL    HW1 7791  13.412   0.108   2.960
 1984SOL    HW2 7792  13.424  14.864   2.876
 1985SOL     OW 7793   3.280   7.420   1.539
 1985SOL    HW1 7794   3.363   7.378   1.557
 1985SOL    HW2 7795   3.286   7.448   1.447
 1986SOL     OW 7796   0.731  14.529  11.129
 1986SOL    HW1 7797   0.653  14.517  11.076
 1986SOL    HW2 7798   0.703  14.511  11.219
 1987SOL     OW 7799   1.023  12.783   1.596
 1987SOL    HW1 7800   0.941  12.789   1.547
 1987SOL    HW2 7801   1.014  12.844   1.668
 1988SOL     OW 7802   5.198  12.366   6.701
 1988SOL    HW1 7803   5.146  12.447   6.703
 1988SOL    HW2 7804   5.220  12.354   6.608
 1989SOL     OW 7805   5.970   3.776   3.021
 1989SOL    HW1 7806   5.926   3.703   2.979
 1989SOL    HW2 7807   5.954   3.851   2.964
 1990SOL     OW 7808   8.293  12.658   0.773
 1990SOL    HW1 7809   8.213  12.698   0.806
 1990SOL    HW2 7810   8.293  12.677   0.680
 1991SOL     OW 7811  13.464   3.618  11.751
 1991SOL    HW1 7812  13.552   3.611  11.787
 1991SOL    HW2 7813  13.470   3.581  11.663
 1992SOL     OW 7814  12.898  13.351   9.898
 1992SOL    HW1 7815  12.934  13.431   9.936
 1992SOL    HW2 7816  12.859  13.380   9.815
 1993SOL     OW 7817   5.203  14.726   9.539
 1993SOL    HW1 7818   5.204  14.802   9.597
 1993SOL    HW2 7819   5.169  14.759   9.456
 1994SOL     OW 7820   5.005   5.565   3.426
 1994SOL    HW1 7821   4.940   5.494   3.429
 1994SOL    HW2 7822   5.015   5.592   3.517
 1995SOL     OW 7823   4.437   4.341   3.073
 1995SOL    HW1 7824   4.356   4.306   3.112
 1995SOL    HW2 7825   4.465   4.274   3.011
 1996SOL     OW 7826  10.859   8.895   7.141
 1996SOL    HW1 7827  10.953   8.899   7.160
 1996SOL    HW2 7828  10.830   8.813   7.181
 1997SOL     OW 7829  11.416  11.094   7.286
 1997SOL    HW1 7830  11.470  11.066   7.212
 1997SOL    HW2 7831  11.370  11.171   7.254
 1998SOL     OW 7832  14.490   3.942   2.715
 1998SOL    HW1 7833  14.553   3.921   2.646
 1998SOL    HW2 7834  14.470   3.857   2.755
 1999SOL     OW 7835  12.017   2.506   2.471
 1999SOL    HW1 7836  12.019   2.546   2.384
 1999SOL    HW2 7837  11.985   2.575   2.528
 2000SOL     OW 7838   4.160   5.344  10.513
 2000SOL    HW1 7839   4.186   5.327  10.604
 2000SOL    HW2 7840   4.152   5.257  10.475
 2001SOL     OW 7841  11.054   7.335   1.300
 2001SOL    HW1 7842  11.066   7.264   1.363
 2001SOL    HW2 7843  11.067   7.415   1.351
 2002SOL     OW 7844   5.236   2.317   0.287
 2002SOL    HW1 7845   5.253   2.325   0.381
 2002SOL    HW2 7846   5.310   2.361   0.245
 2003SOL     OW 7847  13.308   3.768   1.823
 2003SOL    HW1 7848  13.244   3.735   1.760
 2003SOL    HW2 7849  13.256   3.790   1.900
 2004SOL     OW 7850  11.258  12.653   5.788
 2004SOL    HW1 7851  11.306  12.570   5.777
 2004SOL    HW2 7852  11.313  12.718   5.745
 2005SOL     OW 7853   8.659   5.647   6.523
 2005SOL    HW1 7854   8.603   5.683   6.592
 2005SOL    HW2 7855   8.604   5.580   6.481
 2006SOL     OW 7856  14.325  14.273   9.039
 2006SOL    HW1 7857  14.376  14.216   9.095
 2006SOL    HW2 7858  14.239  14.278   9.080
 2007SOL     OW 7859   6.560   2.722   1.919
 2007SOL    HW1 7860   6.526   2.780   1.851
 2007SOL    HW2 7861   6.607   2.780   1.978
 2008SOL     OW 7862   1.268   2.650   1.602
 2008SOL    HW1 7863   1.255   2.567   1.647
 2008SOL    HW2 7864   1.272   2.627   1.509
 2009SOL     OW 7865   1.581   0.156   9.211
 2009SOL    HW1 7866   1.538   0.226   9.259
 2009SOL    HW2 7867   1.645   0.201   9.155
 2010SOL     OW 7868   6.086  13.051   1.207
 2010SOL    HW1 7869   6.100  12.965   1.168
 2010SOL    HW2 7870   5.996  13.048   1.240
 2011SOL     OW 7871  11.417  11.700   6.157
 2011SOL    HW1 7872  11.442  11.758   6.229
 2011SOL    HW2 7873  11.429  11.612   6.192
 2012SOL     OW 7874  12.702   9.239  13.196
 2012SOL    HW1 7875  12.715   9.322  13.150
 2012SOL    HW2 7876  12.679   9.264  13.285
 2013SOL     OW 7877   1.074   2.028   4.959
 2013SOL    HW1 7878   0.981   2.040   4.943
 2013SOL    HW2 7879   1.083   1.937   4.986
 2014SOL     OW 7880   5.041   7.062   5.425
 2014SOL    HW1 7881   5.027   7.128   5.493
 2014SOL    HW2 7882   4.958   7.013   5.422
 2015SOL     OW 7883   4.965   2.125   9.749
 2015SOL    HW1 7884   4.988   2.153   9.838
 2015SOL    HW2 7885   4.915   2.045   9.762
 2016SOL     OW 7886  12.249   2.280   4.443
 2016SOL    HW1 7887  12.282   2.370   4.449
 2016SOL    HW2 7888  12.158   2.290   4.413
 2017SOL     OW 7889   4.757   6.837  11.376
 2017SOL    HW1 7890   4.749   6.924  11.336
 2017SOL    HW2 7891   4.848   6.812  11.359
 2018SOL     OW 7892   7.355   2.519  12.716
 2018SOL    HW1 7893   7.410   2.597  12.708
 2018SOL    HW2 7894   7.368   2.473  12.633
 2019SOL     OW 7895   1.152   7.382  14.279
 2019SOL    HW1 7896   1.209   7.458  14.283
 2019SOL    HW2 7897   1.207   7.309  14.308
 2020SOL     OW 7898   4.860  10.028   2.829
 2020SOL    HW1 7899   4.814  10.002   2.909
 2020SOL    HW2 7900   4.937   9.972   2.827
 2021SOL     OW 7901  14.085  11.203   3.080
 2021SOL    HW1 7902  14.146  11.267   3.117
 2021SOL    HW2 7903  14.074  11.229   2.989
 2022SOL     OW 7904  11.880   5.940   7.814
 2022SOL    HW1 7905  11.933   6.017   7.835
 2022SOL    HW2 7906  11.833   5.964   7.734
 2023SOL     OW 7907   4.402   9.981   4.383
 2023SOL    HW1 7908   4.468   9.932   4.333
 2023SOL    HW2 7909   4.425  10.073   4.370
 2024SOL     OW 7910   6.312   5.052   3.008
 2024SOL    HW1 7911   6.354   5.016   3.086
 2024SOL    HW2 7912   6.223   5.074   3.036
 2025SOL     OW 7913   8.774  11.697  11.883
 2025SOL    HW1 7914   8.751  11.647  11.961
 2025SOL    HW2 7915   8.869  11.704  11.885
 2026SOL     OW 7916   8.984  12.607   8.253
 2026SOL    HW1 7917   8.982  12.513   8.270
 2026SOL    HW2 7918   9.063  12.620   8.200
 2027SOL     OW 7919   4.428   3.424  11.834
 2027SOL    HW1 7920   4.489   3.483  11.877
 2027SOL    HW2 7921   4.433   3.448  11.741
 2028SOL     OW 7922   7.872  14.101  11.499
 2028SOL    HW1 7923   7.831  14.187  11.511
 2028SOL    HW2 7924   7.833  14.067  11.419
 2029SOL     OW 7925   8.876  13.611  12.892
 2029SOL    HW1 7926   8.923  13.644  12.816
 2029SOL    HW2 7927   8.822  13.685  12.921
 2030SOL     OW 7928   6.571  12.487  10.130
 2030SOL    HW1 7929   6.492  12.540  10.140
 2030SOL    HW2 7930   6.641  12.550  10.116
 2031SOL     OW 7931   4.708  11.065   8.628
 2031SOL    HW1 7932   4.762  11.073   8.707
 2031SOL    HW2 7933   4.621  11.092   8.656
 2032SOL     OW 7934   0.132   2.874  14.423
 2032SOL    HW1 7935   0.166   2.958  14.392
 2032SOL    HW2 7936   0.100   2.892  14.512
 2033SOL     OW 7937   3.556   4.959  13.146
 2033SOL    HW1 7938   3.571   4.870  13.175
 2033SOL    HW2 7939   3.639   4.986  13.107
 2034SOL     OW 7940   0.567  10.010  13.350
 2034SOL    HW1 7941   0.580  10.093  13.396
 2034SOL    HW2 7942   0.628  10.014  13.276
 2035SOL     OW 7943  11.663   7.004   8.150
 2035SOL    HW1 7944  11.643   6.981   8.241
 2035SOL    HW2 7945  11.578   7.000   8.106
 2036SOL     OW 7946   8.523   2.053   7.519
 2036SOL    HW1 7947   8.475   2.118   7.468
 2036SOL    HW2 7948   8.467   1.975   7.517
 2037SOL     OW 7949  13.111  12.173  11.201
 2037SOL    HW1 7950  13.178  12.220  11.251
 2037SOL    HW2 7951  13.154  12.154  11.117
 2038SOL     OW 7952   6.935   0.112   8.772
 2038SOL    HW1 7953   6.939   0.043   8.706
 2038SOL    HW2 7954   6.848   0.104   8.810
 2039SOL     OW 7955   6.585   8.628   1.051
 2039SOL    HW1 7956   6.667   8.677   1.045
 2039SOL    HW2 7957   6.521   8.691   1.083
 2040SOL     OW 7958  14.540   7.799   4.137
 2040SOL    HW1 7959  14.603   7.754   4.081
 2040SOL    HW2 7960  14.463   7.812   4.082
 2041SOL     OW 7961   9.311   7.665   9.322
 2041SOL    HW1 7962   9.376   7.701   9.382
 2041SOL    HW2 7963   9.228   7.670   9.369
 2042SOL     OW 7964  10.563   6.794  10.087
 2042SOL    HW1 7965  10.574   6.888  10.105
 2042SOL    HW2 7966  10.504   6.763  10.156
 2043SOL     OW 7967   1.854   4.796   2.013
 2043SOL    HW1 7968   1.933   4.814   1.962
 2043SOL    HW2 7969   1.885   4.740   2.085
 2044SOL     OW 7970   0.266   0.588   6.937
 2044SOL    HW1 7971   0.171   0.584   6.929
 2044SOL    HW2 7972   0.299   0.521   6.877
 2045SOL     OW 7973  12.900   1.948  12.033
 2045SOL    HW1 7974  12.915   1.856  12.054
 2045SOL    HW2 7975  12.987   1.982  12.012
 2046SOL     OW 7976   9.698  13.546  10.087
 2046SOL    HW1 7977   9.747  13.500  10.156
 2046SOL    HW2 7978   9.749  13.529  10.007
 2047SOL     OW 7979  10.942   3.145   4.343
 2047SOL    HW1 7980  10.914   3.171   4.430
 2047SOL    HW2 7981  10.897   3.062   4.327
 2048SOL     OW 7982  12.422   3.725  12.262
 2048SOL    HW1 7983  12.378   3.804  12.293
 2048SOL    HW2 7984  12.373   3.654  12.304
 2049SOL     OW 7985  12.434   1.412   9.761
 2049SOL    HW1 7986  12.384   1.493   9.761
 2049SOL    HW2 7987  12.439   1.387   9.669
 2050SOL     OW 7988   2.704   4.980  12.203
 2050SOL    HW1 7989   2.776   5.009  12.147
 2050SOL    HW2 7990   2.625   5.009  12.158
 2051SOL     OW 7991   7.237   9.103   0.803
 2051SOL    HW1 7992   7.289   9.161   0.747
 2051SOL    HW2 7993   7.274   9.016   0.789
 2052SOL     OW 7994   6.190   8.166  10.327
 2052SOL    HW1 7995   6.124   8.235  10.333
 2052SOL    HW2 7996   6.232   8.167  10.413
 2053SOL     OW 7997   0.998   0.301  11.293
 2053SOL    HW1 7998   1.037   0.388  11.288
 2053SOL    HW2 7999   1.026   0.257  11.212
 2054SOL     OW 8000   9.917  11.293  10.628
 2054SOL    HW1 8001   9.900  11.201  10.606
 2054SOL    HW2 8002   9.951  11.290  10.718
 2055SOL     OW 8003   0.944  12.020   9.381
 2055SOL    HW1 8004   0.973  12.066   9.459
 2055SOL    HW2 8005   1.017  12.031   9.319
 2056SOL     OW 8006   0.258   4.346   2.616
 2056SOL    HW1 8007   0.221   4.262   2.589
 2056SOL    HW2 8008   0.309   4.325   2.695
 2057SOL     OW 8009   5.120   3.784   0.388
 2057SOL    HW1 8010   5.140   3.837   0.465
 2057SOL    HW2 8011   5.134   3.693   0.417
 2058SOL     OW 8012   9.231  10.680  11.940
 2058SOL    HW1 8013   9.303  10.630  11.978
 2058SOL    HW2 8014   9.230  10.655  11.847
 2059SOL     OW 8015  14.151   9.485   0.450
 2059SOL    HW1 8016  14.074   9.501   0.504
 2059SOL    HW2 8017  14.125   9.512   0.362
 2060SOL     OW 8018   3.748   5.236   2.074
 2060SOL    HW1 8019   3.794   5.298   2.018
 2060SOL    HW2 8020   3.758   5.152   2.030
 2061SOL     OW 8021   8.599   9.324   2.279
 2061SOL    HW1 8022   8.557   9.293   2.358
 2061SOL    HW2 8023   8.527   9.337   2.217
 2062SOL     OW 8024   6.598   8.127  12.342
 2062SOL    HW1 8025   6.541   8.137  12.418
 2062SOL    HW2 8026   6.562   8.189  12.278
 2063SOL     OW 8027   9.555   5.739  10.926
 2063SOL    HW1 8028   9.624   5.702  10.871
 2063SOL    HW2 8029   9.494   5.779  10.864
 2064SOL     OW 8030   2.349   0.645   8.721
 2064SOL    HW1 8031   2.407   0.571   8.736
 2064SOL    HW2 8032   2.357   0.698   8.800
 2065SOL     OW 8033   8.954   4.159  12.133
 2065SOL    HW1 8034   8.877   4.107  12.110
 2065SOL    HW2 8035   8.926   4.250  12.123
 2066SOL     OW 8036  11.034   6.817   3.503
 2066SOL    HW1 8037  11.030   6.911   3.525
 2066SOL    HW2 8038  10.950   6.783   3.533
 2067SOL     OW 8039  10.625   6.464   3.520
 2067SOL    HW1 8040  10.632   6.544   3.572
 2067SOL    HW2 8041  10.535   6.433   3.535
 2068SOL     OW 8042   2.420   6.800   6.828
 2068SOL    HW1 8043   2.353   6.736   6.805
 2068SOL    HW2 8044   2.445   6.839   6.744
 2069SOL     OW 8045  12.381   9.572   9.392
 2069SOL    HW1 8046  12.321   9.632   9.349
 2069SOL    HW2 8047  12.397   9.503   9.327
 2070SOL     OW 8048   9.746   9.267   0.045
 2070SOL    HW1 8049   9.826   9.317   0.030
 2070SOL    HW2 8050   9.693   9.282  14.849
 2071SOL     OW 8051   2.452   6.458   4.661
 2071SOL    HW1 8052   2.470   6.540   4.707
 2071SOL    HW2 8053   2.396   6.409   4.721
 2072SOL     OW 8054  10.898   7.600   3.796
 2072SOL    HW1 8055  10.843   7.565   3.726
 2072SOL    HW2 8056  10.845   7.591   3.875
 2073SOL     OW 8057   0.797  14.045   6.865
 2073SOL    HW1 8058   0.850  14.118   6.834
 2073SOL    HW2 8059   0.860  13.975   6.882
 2074SOL     OW 8060   1.559   4.069  14.782
 2074SOL    HW1 8061   1.505   4.142  14.752
 2074SOL    HW2 8062   1.587   4.026  14.701
 2075SOL     OW 8063   7.052   1.946   0.644
 2075SOL    HW1 8064   7.063   2.039   0.661
 2075SOL    HW2 8065   7.139   1.908   0.654
 2076SOL     OW 8066  10.336  11.385   2.809
 2076SOL    HW1 8067  10.331  11.329   2.732
 2076SOL    HW2 8068  10.316  11.327   2.882
 2077SOL     OW 8069   1.721  11.954   1.293
 2077SOL    HW1 8070   1.739  11.970   1.386
 2077SOL    HW2 8071   1.660  12.024   1.268
 2078SOL     OW 8072  13.543  12.385  11.777
 2078SOL    HW1 8073  13.543  12.364  11.684
 2078SOL    HW2 8074  13.635  12.399  11.798
 2079SOL     OW 8075   2.383  14.317   0.845
 2079SOL    HW1 8076   2.326  14.242   0.827
 2079SOL    HW2 8077   2.387  14.322   0.940
 2080SOL     OW 8078   2.262   4.595  10.187
 2080SOL    HW1 8079   2.252   4.534  10.260
 2080SOL    HW2 8080   2.236   4.680  10.224
 2081SOL     OW 8081   9.179   3.272  12.402
 2081SOL    HW1 8082   9.086   3.287  12.419
 2081SOL    HW2 8083   9.209   3.352  12.359
 2082SOL     OW 8084  13.386  10.475   7.833
 2082SOL    HW1 8085  13.352  10.446   7.748
 2082SOL    HW2 8086  13.434  10.400   7.867
 2083SOL     OW 8087   0.743   2.841  10.729
 2083SOL    HW1 8088   0.819   2.804  10.775
 2083SOL    HW2 8089   0.780   2.914  10.679
 2084SOL     OW 8090   3.905   7.771   0.131
 2084SOL    HW1 8091   3.810   7.769   0.143
 2084SOL    HW2 8092   3.919   7.831   0.057
 2085SOL     OW 8093   8.319  10.566  12.750
 2085SOL    HW1 8094   8.302  10.509  12.825
 2085SOL    HW2 8095   8.364  10.641  12.787
 2086SOL     OW 8096  14.591   2.578   5.462
 2086SOL    HW1 8097  14.629   2.650   5.411
 2086SOL    HW2 8098  14.612   2.599   5.553
 2087SOL     OW 8099  13.767  13.326   1.999
 2087SOL    HW1 8100  13.717  13.407   2.012
 2087SOL    HW2 8101  13.799  13.331   1.909
 2088SOL     OW 8102   9.327   0.960  13.587
 2088SOL    HW1 8103   9.414   0.953  13.546
 2088SOL    HW2 8104   9.345   0.956  13.681
 2089SOL     OW 8105   5.462   6.672  14.748
 2089SOL    HW1 8106   5.479   6.600  14.687
 2089SOL    HW2 8107   5.543   6.722  14.750
 2090SOL     OW 8108   2.452   1.559  13.246
 2090SOL    HW1 8109   2.392   1.589  13.315
 2090SOL    HW2 8110   2.512   1.633  13.233
 2091SOL     OW 8111   3.492   0.227   1.218
 2091SOL    HW1 8112   3.587   0.227   1.205
 2091SOL    HW2 8113   3.481   0.213   1.312
 2092SOL     OW 8114   7.493  10.379   3.084
 2092SOL    HW1 8115   7.541  10.409   3.006
 2092SOL    HW2 8116   7.459  10.459   3.123
 2093SOL     OW 8117   7.300  11.080   2.638
 2093SOL    HW1 8118   7.265  11.084   2.550
 2093SOL    HW2 8119   7.271  11.162   2.679
 2094SOL     OW 8120  11.585   5.347  10.671
 2094SOL    HW1 8121  11.637   5.305  10.739
 2094SOL    HW2 8122  11.540   5.419  10.716
 2095SOL     OW 8123   2.957   5.972  10.934
 2095SOL    HW1 8124   2.989   5.896  10.885
 2095SOL    HW2 8125   2.890   5.937  10.992
 2096SOL     OW 8126   8.456  12.022  10.851
 2096SOL    HW1 8127   8.404  11.986  10.923
 2096SOL    HW2 8128   8.435  12.115  10.850
 2097SOL     OW 8129   3.558   7.422   7.970
 2097SOL    HW1 8130   3.598   7.474   8.039
 2097SOL    HW2 8131   3.624   7.355   7.949
 2098SOL     OW 8132  11.935   5.493   6.381
 2098SOL    HW1 8133  12.021   5.451   6.389
 2098SOL    HW2 8134  11.887   5.465   6.459
 2099SOL     OW 8135   5.282   8.157   7.158
 2099SOL    HW1 8136   5.221   8.151   7.084
 2099SOL    HW2 8137   5.270   8.245   7.193
 2100SOL     OW 8138   5.272   7.635   9.546
 2100SOL    HW1 8139   5.262   7.633   9.642
 2100SOL    HW2 8140   5.357   7.594   9.530
 2101SOL     OW 8141   7.225  11.633  14.098
 2101SOL    HW1 8142   7.240  11.557  14.155
 2101SOL    HW2 8143   7.130  11.636  14.088
 2102SOL     OW 8144   6.957   7.939   4.973
 2102SOL    HW1 8145   6.944   7.890   5.053
 2102SOL    HW2 8146   6.878   7.922   4.921
 2103SOL     OW 8147   7.955   6.974  12.247
 2103SOL    HW1 8148   7.892   6.958  12.177
 2103SOL    HW2 8149   7.902   7.005  12.321
 2104SOL     OW 8150   3.585  14.724   8.077
 2104SOL    HW1 8151   3.544  14.808   8.097
 2104SOL    HW2 8152   3.524  14.659   8.112
 2105SOL     OW 8153  11.526   4.787  14.248
 2105SOL    HW1 8154  11.567   4.707  14.282
 2105SOL    HW2 8155  11.436   4.760  14.226
 2106SOL     OW 8156   0.072   0.829   6.874
 2106SOL    HW1 8157   0.026   0.746   6.877
 2106SOL    HW2 8158   0.009   0.890   6.835
 2107SOL     OW 8159   5.619  14.486   4.048
 2107SOL    HW1 8160   5.603  14.580   4.035
 2107SOL    HW2 8161   5.551  14.443   3.997
 2108SOL     OW 8162   7.995  11.642   5.253
 2108SOL    HW1 8163   7.920  11.693   5.224
 2108SOL    HW2 8164   7.958  11.568   5.300
 2109SOL     OW 8165   2.114   9.049  13.573
 2109SOL    HW1 8166   2.106   9.141  13.597
 2109SOL    HW2 8167   2.140   9.050  13.481
 2110SOL     OW 8168   5.605   9.857   0.042
 2110SOL    HW1 8169   5.630   9.911   0.118
 2110SOL    HW2 8170   5.513   9.879   0.028
 2111SOL     OW 8171  11.625   6.087   9.707
 2111SOL    HW1 8172  11.718   6.067   9.717
 2111SOL    HW2 8173  11.582   6.038   9.777
 2112SOL     OW 8174  11.490  13.196   0.519
 2112SOL    HW1 8175  11.480  13.291   0.510
 2112SOL    HW2 8176  11.427  13.172   0.587
 2113SOL     OW 8177   1.546   0.104  10.650
 2113SOL    HW1 8178   1.525   0.132  10.561
 2113SOL    HW2 8179   1.466   0.064  10.683
 2114SOL     OW 8180   3.154   2.176   2.933
 2114SOL    HW1 8181   3.149   2.206   3.024
 2114SOL    HW2 8182   3.083   2.223   2.889
 2115SOL     OW 8183   7.689  11.838  11.656
 2115SOL    HW1 8184   7.758  11.803  11.599
 2115SOL    HW2 8185   7.684  11.776  11.728
 2116SOL     OW 8186  10.775   6.777   2.936
 2116SOL    HW1 8187  10.726   6.826   2.869
 2116SOL    HW2 8188  10.788   6.840   3.007
 2117SOL     OW 8189   3.285   2.055  12.861
 2117SOL    HW1 8190   3.378   2.059  12.836
 2117SOL    HW2 8191   3.239   2.098  12.790
 2118SOL     OW 8192  12.459  11.148   9.855
 2118SOL    HW1 8193  12.388  11.196   9.898
 2118SOL    HW2 8194  12.520  11.127   9.925
 2119SOL     OW 8195   1.612   7.554  11.768
 2119SOL    HW1 8196   1.627   7.640  11.807
 2119SOL    HW2 8197   1.631   7.566  11.675
 2120SOL     OW 8198   9.666   2.792   7.831
 2120SOL    HW1 8199   9.581   2.834   7.822
 2120SOL    HW2 8200   9.680   2.784   7.925
 2121SOL     OW 8201  10.412   0.036   5.204
 2121SOL    HW1 8202  10.365  14.858   5.145
 2121SOL    HW2 8203  10.501   0.038   5.170
 2122SOL     OW 8204   7.380   0.564  11.712
 2122SOL    HW1 8205   7.288   0.581  11.732
 2122SOL    HW2 8206   7.428   0.602  11.785
 2123SOL     OW 8207  13.875  11.778  11.403
 2123SOL    HW1 8208  13.916  11.738  11.326
 2123SOL    HW2 8209  13.930  11.854  11.422
 2124SOL     OW 8210   0.882  13.760   7.239
 2124SOL    HW1 8211   0.924  13.718   7.315
 2124SOL    HW2 8212   0.885  13.853   7.260
 2125SOL     OW 8213   4.303   5.373  11.208
 2125SOL    HW1 8214   4.368   5.426  11.252
 2125SOL    HW2 8215   4.340   5.284  11.208
 2126SOL     OW 8216  14.434   6.371  11.902
 2126SOL    HW1 8217  14.524   6.382  11.874
 2126SOL    HW2 8218  14.439   6.318  11.982
 2127SOL     OW 8219   0.198  13.481   8.822
 2127SOL    HW1 8220   0.116  13.442   8.851
 2127SOL    HW2 8221   0.266  13.422   8.857
 2128SOL     OW 8222   4.980   9.865   8.982
 2128SOL    HW1 8223   5.024   9.923   9.045
 2128SOL    HW2 8224   5.051   9.819   8.937
 2129SOL     OW 8225   0.681   9.481   3.981
 2129SOL    HW1 8226   0.737   9.403   3.987
 2129SOL    HW2 8227   0.592   9.447   3.988
 2130SOL     OW 8228   4.688  12.744   8.084
 2130SOL    HW1 8229   4.661  12.672   8.026
 2130SOL    HW2 8230   4.768  12.778   8.044
 2131SOL     OW 8231  14.073   7.596  13.930
 2131SOL    HW1 8232  14.054   7.511  13.969
 2131SOL    HW2 8233  13.992   7.645  13.939
 2132SOL     OW 8234   0.657   3.047  10.242
 2132SOL    HW1 8235   0.645   3.114  10.309
 2132SOL    HW2 8236   0.745   3.060  10.209
 2133SOL     OW 8237   8.075  11.817   5.518
 2133SOL    HW1 8238   8.028  11.773   5.589
 2133SOL    HW2 8239   8.057  11.765   5.440
 2134SOL     OW 8240  13.834  11.271  10.127
 2134SOL    HW1 8241  13.906  11.215  10.156
 2134SOL    HW2 8242  13.778  11.280  10.204
 2135SOL     OW 8243   3.645   3.755   2.165
 2135SOL    HW1 8244   3.678   3.669   2.191
 2135SOL    HW2 8245   3.551   3.740   2.148
 2136SOL     OW 8246   2.285   0.709   0.078
 2136SOL    HW1 8247   2.322   0.795   0.055
 2136SOL    HW2 8248   2.359   0.660   0.115
 2137SOL     OW 8249  10.422   6.697  10.724
 2137SOL    HW1 8250  10.422   6.704  10.629
 2137SOL    HW2 8251  10.515   6.685  10.747
 2138SOL     OW 8252   4.498  11.237   3.728
 2138SOL    HW1 8253   4.540  11.278   3.803
 2138SOL    HW2 8254   4.408  11.269   3.730
 2139SOL     OW 8255  11.369  14.264  10.540
 2139SOL    HW1 8256  11.294  14.319  10.563
 2139SOL    HW2 8257  11.419  14.255  10.622
 2140SOL     OW 8258   5.444   9.566   1.937
 2140SOL    HW1 8259   5.354   9.538   1.918
 2140SOL    HW2 8260   5.479   9.495   1.991
 2141SOL     OW 8261   1.752   9.357   3.325
 2141SOL    HW1 8262   1.703   9.319   3.398
 2141SOL    HW2 8263   1.830   9.302   3.317
 2142SOL     OW 8264  13.869   6.407   5.743
 2142SOL    HW1 8265  13.901   6.439   5.659
 2142SOL    HW2 8266  13.932   6.441   5.807
 2143SOL     OW 8267   7.362   1.383  13.661
 2143SOL    HW1 8268   7.371   1.399  13.755
 2143SOL    HW2 8269   7.369   1.470  13.622
 2144SOL     OW 8270  11.123   9.924  10.751
 2144SOL    HW1 8271  11.056   9.862  10.778
 2144SOL    HW2 8272  11.078  10.008  10.747
 2145SOL     OW 8273   2.270   5.194   7.986
 2145SOL    HW1 8274   2.323   5.188   7.907
 2145SOL    HW2 8275   2.270   5.105   8.021
 2146SOL     OW 8276   3.877   4.099   7.600
 2146SOL    HW1 8277   3.919   4.101   7.686
 2146SOL    HW2 8278   3.936   4.147   7.542
 2147SOL     OW 8279   7.380  12.280  10.123
 2147SOL    HW1 8280   7.354  12.371  10.112
 2147SOL    HW2 8281   7.475  12.284  10.134
 2148SOL     OW 8282   4.217   9.776   3.830
 2148SOL    HW1 8283   4.174   9.693   3.851
 2148SOL    HW2 8284   4.294   9.779   3.887
 2149SOL     OW 8285   6.352   4.633   5.857
 2149SOL    HW1 8286   6.436   4.616   5.898
 2149SOL    HW2 8287   6.293   4.567   5.894
 2150SOL     OW 8288  12.004   9.071   6.823
 2150SOL    HW1 8289  12.098   9.056   6.809
 2150SOL    HW2 8290  11.969   9.093   6.737
 2151SOL     OW 8291  11.688   0.697  10.585
 2151SOL    HW1 8292  11.649   0.783  10.596
 2151SOL    HW2 8293  11.662   0.648  10.663
 2152SOL     OW 8294   7.138  10.299   2.469
 2152SOL    HW1 8295   7.173  10.286   2.557
 2152SOL    HW2 8296   7.141  10.212   2.429
 2153SOL     OW 8297   6.372   8.861  13.812
 2153SOL    HW1 8298   6.352   8.937  13.868
 2153SOL    HW2 8299   6.456   8.883  13.771
 2154SOL     OW 8300  10.108   2.452   1.056
 2154SOL    HW1 8301  10.122   2.511   1.130
 2154SOL    HW2 8302  10.148   2.369   1.084
 2155SOL     OW 8303   5.283  13.928   5.391
 2155SOL    HW1 8304   5.338  13.939   5.314
 2155SOL    HW2 8305   5.205  13.883   5.359
 2156SOL     OW 8306   8.445   8.044  12.313
 2156SOL    HW1 8307   8.520   8.017  12.259
 2156SOL    HW2 8308   8.429   8.134  12.288
 2157SOL     OW 8309  10.629  13.500   4.676
 2157SOL    HW1 8310  10.647  13.408   4.692
 2157SOL    HW2 8311  10.712  13.535   4.643
 2158SOL     OW 8312   2.979   1.649  13.679
 2158SOL    HW1 8313   2.968   1.595  13.601
 2158SOL    HW2 8314   2.895   1.645  13.724
 2159SOL     OW 8315  10.080   0.861   6.175
 2159SOL    HW1 8316  10.005   0.810   6.206
 2159SOL    HW2 8317  10.074   0.944   6.223
 2160SOL     OW 8318  13.892   3.014   5.387
 2160SOL    HW1 8319  13.830   2.974   5.326
 2160SOL    HW2 8320  13.860   3.103   5.399
 2161SOL     OW 8321   4.581   7.127   5.122
 2161SOL    HW1 8322   4.574   7.220   5.142
 2161SOL    HW2 8323   4.634   7.091   5.193
 2162SOL     OW 8324   6.892  12.255   5.540
 2162SOL    HW1 8325   6.933  12.341   5.550
 2162SOL    HW2 8326   6.822  12.269   5.476
 2163SOL     OW 8327  11.537   2.532   6.571
 2163SOL    HW1 8328  11.468   2.468   6.557
 2163SOL    HW2 8329  11.529   2.593   6.498
 2164SOL     OW 8330  14.116   9.489   4.457
 2164SOL    HW1 8331  14.052   9.418   4.462
 2164SOL    HW2 8332  14.099   9.541   4.535
 2165SOL     OW 8333  14.413  13.874   8.800
 2165SOL    HW1 8334  14.440  13.832   8.882
 2165SOL    HW2 8335  14.384  13.961   8.826
 2166SOL     OW 8336  14.364   8.799  12.477
 2166SOL    HW1 8337  14.400   8.786  12.564
 2166SOL    HW2 8338  14.425   8.859  12.434
 2167SOL     OW 8339  10.249  11.726  13.345
 2167SOL    HW1 8340  10.245  11.640  13.302
 2167SOL    HW2 8341  10.302  11.780  13.287
 2168SOL     OW 8342  12.718  11.249   5.632
 2168SOL    HW1 8343  12.741  11.298   5.553
 2168SOL    HW2 8344  12.746  11.160   5.614
 2169SOL     OW 8345   2.127  14.860   4.593
 2169SOL    HW1 8346   2.118  14.854   4.688
 2169SOL    HW2 8347   2.156  14.774   4.566
 2170SOL     OW 8348  11.403  10.393  14.310
 2170SOL    HW1 8349  11.325  10.340  14.290
 2170SOL    HW2 8350  11.445  10.347  14.383
 2171SOL     OW 8351   3.282  13.854   3.330
 2171SOL    HW1 8352   3.273  13.949   3.320
 2171SOL    HW2 8353   3.338  13.844   3.407
 2172SOL     OW 8354   3.375   8.032   4.535
 2172SOL    HW1 8355   3.349   7.965   4.472
 2172SOL    HW2 8356   3.319   8.107   4.516
 2173SOL     OW 8357   1.651  14.410   5.229
 2173SOL    HW1 8358   1.572  14.461   5.243
 2173SOL    HW2 8359   1.704  14.425   5.308
 2174SOL     OW 8360  11.698  11.254   2.717
 2174SOL    HW1 8361  11.630  11.322   2.724
 2174SOL    HW2 8362  11.657  11.185   2.666
 2175SOL     OW 8363   6.446  13.730  12.674
 2175SOL    HW1 8364   6.431  13.819  12.644
 2175SOL    HW2 8365   6.429  13.733  12.768
 2176SOL     OW 8366   9.546   1.087   4.392
 2176SOL    HW1 8367   9.614   1.126   4.447
 2176SOL    HW2 8368   9.594   1.029   4.333
 2177SOL     OW 8369   3.339   5.662   6.821
 2177SOL    HW1 8370   3.297   5.715   6.888
 2177SOL    HW2 8371   3.415   5.623   6.864
 2178SOL     OW 8372  12.266  11.305  12.864
 2178SOL    HW1 8373  12.196  11.354  12.820
 2178SOL    HW2 8374  12.220  11.247  12.925
 2179SOL     OW 8375  13.108  13.260   1.476
 2179SOL    HW1 8376  13.136  13.348   1.452
 2179SOL    HW2 8377  13.017  13.270   1.504
 2180SOL     OW 8378  11.922  10.743  11.533
 2180SOL    HW1 8379  12.014  10.751  11.559
 2180SOL    HW2 8380  11.891  10.833  11.526
 2181SOL     OW 8381   8.264   4.974   4.374
 2181SOL    HW1 8382   8.307   4.893   4.345
 2181SOL    HW2 8383   8.335   5.037   4.383
 2182SOL     OW 8384   2.854   8.645  11.307
 2182SOL    HW1 8385   2.832   8.575  11.245
 2182SOL    HW2 8386   2.879   8.598  11.387
 2183SOL     OW 8387   9.254   8.109   0.102
 2183SOL    HW1 8388   9.270   8.033   0.047
 2183SOL    HW2 8389   9.159   8.124   0.096
 2184SOL     OW 8390   3.317   3.950   5.720
 2184SOL    HW1 8391   3.309   3.963   5.814
 2184SOL    HW2 8392   3.249   4.005   5.682
 2185SOL     OW 8393   0.139   9.973   6.902
 2185SOL    HW1 8394   0.090   9.929   6.832
 2185SOL    HW2 8395   0.081  10.041   6.933
 2186SOL     OW 8396   4.802   5.063   6.125
 2186SOL    HW1 8397   4.777   5.048   6.216
 2186SOL    HW2 8398   4.897   5.070   6.127
 2187SOL     OW 8399   9.539  11.042  10.718
 2187SOL    HW1 8400   9.451  11.011  10.740
 2187SOL    HW2 8401   9.527  11.133  10.690
 2188SOL     OW 8402   9.824   4.442  11.920
 2188SOL    HW1 8403   9.888   4.513  11.923
 2188SOL    HW2 8404   9.814   4.423  11.826
 2189SOL     OW 8405   9.066   1.780   1.051
 2189SOL    HW1 8406   9.040   1.872   1.058
 2189SOL    HW2 8407   9.050   1.757   0.959
 2190SOL     OW 8408   7.439   7.684  14.372
 2190SOL    HW1 8409   7.421   7.590  14.371
 2190SOL    HW2 8410   7.534   7.691  14.361
 2191SOL     OW 8411  10.947  12.181  10.498
 2191SOL    HW1 8412  10.903  12.130  10.431
 2191SOL    HW2 8413  11.031  12.205  10.459
 2192SOL     OW 8414   1.683  13.766  12.115
 2192SOL    HW1 8415   1.771  13.791  12.086
 2192SOL    HW2 8416   1.689  13.765  12.210
 2193SOL     OW 8417  10.150   1.532   2.092
 2193SOL    HW1 8418  10.187   1.594   2.154
 2193SOL    HW2 8419  10.055   1.543   2.100
 2194SOL     OW 8420  12.114   0.717   4.113
 2194SOL    HW1 8421  12.042   0.661   4.141
 2194SOL    HW2 8422  12.107   0.720   4.018
 2195SOL     OW 8423  10.979   4.486   9.870
 2195SOL    HW1 8424  10.976   4.391   9.880
 2195SOL    HW2 8425  11.043   4.514   9.937
 2196SOL     OW 8426  11.574   6.482  12.930
 2196SOL    HW1 8427  11.581   6.453  13.021
 2196SOL    HW2 8428  11.601   6.573  12.932
 2197SOL     OW 8429  14.061  13.111   7.866
 2197SOL    HW1 8430  14.075  13.199   7.900
 2197SOL    HW2 8431  14.017  13.065   7.938
 2198SOL     OW 8432   4.441  10.588   8.700
 2198SOL    HW1 8433   4.447  10.507   8.751
 2198SOL    HW2 8434   4.358  10.627   8.726
 2199SOL     OW 8435   0.642   9.018   7.375
 2199SOL    HW1 8436   0.576   9.050   7.437
 2199SOL    HW2 8437   0.696   8.958   7.427
 2200SOL     OW 8438   7.427  11.665   7.125
 2200SOL    HW1 8439   7.474  11.635   7.047
 2200SOL    HW2 8440   7.355  11.718   7.090
 2201SOL     OW 8441   8.903   8.042   1.909
 2201SOL    HW1 8442   8.981   7.994   1.882
 2201SOL    HW2 8443   8.936   8.117   1.958
 2202SOL     OW 8444   7.999   6.162  14.017
 2202SOL    HW1 8445   7.929   6.150  13.953
 2202SOL    HW2 8446   8.077   6.125  13.975
 2203SOL     OW 8447   5.438   7.519   2.745
 2203SOL    HW1 8448   5.458   7.486   2.832
 2203SOL    HW2 8449   5.366   7.465   2.714
 2204SOL     OW 8450  14.514  14.284   2.932
 2204SOL    HW1 8451  14.552  14.319   3.013
 2204SOL    HW2 8452  14.444  14.345   2.909
 2205SOL     OW 8453   8.930  13.746   8.426
 2205SOL    HW1 8454   8.970  13.833   8.418
 2205SOL    HW2 8455   8.858  13.747   8.364
 2206SOL     OW 8456   3.693   2.094   4.150
 2206SOL    HW1 8457   3.643   2.013   4.139
 2206SOL    HW2 8458   3.746   2.079   4.228
 2207SOL     OW 8459  14.701   4.146   2.514
 2207SOL    HW1 8460  14.648   4.179   2.586
 2207SOL    HW2 8461  14.752   4.221   2.484
 2208SOL     OW 8462   0.078   1.353   1.204
 2208SOL    HW1 8463   0.130   1.373   1.282
 2208SOL    HW2 8464   0.026   1.431   1.189
 2209SOL     OW 8465  14.281  10.785   4.040
 2209SOL    HW1 8466  14.298  10.803   3.948
 2209SOL    HW2 8467  14.212  10.719   4.039
 2210SOL     OW 8468  13.521  13.922   7.677
 2210SOL    HW1 8469  13.614  13.902   7.681
 2210SOL    HW2 8470  13.510  13.969   7.594
 2211SOL     OW 8471  10.603   7.001   4.164
 2211SOL    HW1 8472  10.632   6.920   4.206
 2211SOL    HW2 8473  10.596   7.064   4.236
 2212SOL     OW 8474   1.219  12.412   8.178
 2212SOL    HW1 8475   1.274  12.334   8.167
 2212SOL    HW2 8476   1.136  12.389   8.136
 2213SOL     OW 8477   3.856   0.083   8.801
 2213SOL    HW1 8478   3.817   0.169   8.817
 2213SOL    HW2 8479   3.816   0.054   8.719
 2214SOL     OW 8480   7.681   7.676  11.556
 2214SOL    HW1 8481   7.678   7.748  11.620
 2214SOL    HW2 8482   7.647   7.600  11.603
 2215SOL     OW 8483   7.693   5.192  10.876
 2215SOL    HW1 8484   7.603   5.171  10.899
 2215SOL    HW2 8485   7.728   5.240  10.951
 2216SOL     OW 8486   1.274   2.124  13.054
 2216SOL    HW1 8487   1.211   2.068  13.100
 2216SOL    HW2 8488   1.253   2.111  12.961
 2217SOL     OW 8489   7.948   6.369   8.784
 2217SOL    HW1 8490   7.874   6.322   8.821
 2217SOL    HW2 8491   7.933   6.461   8.808
 2218SOL     OW 8492   8.476   1.502   3.014
 2218SOL    HW1 8493   8.561   1.469   2.985
 2218SOL    HW2 8494   8.490   1.532   3.104
 2219SOL     OW 8495  10.654   3.839  10.093
 2219SOL    HW1 8496  10.664   3.878  10.006
 2219SOL    HW2 8497  10.721   3.771  10.097
 2220SOL     OW 8498  10.340  11.771   6.987
 2220SOL    HW1 8499  10.413  11.782   7.048
 2220SOL    HW2 8500  10.263  11.758   7.043
 2221SOL     OW 8501   5.523   6.070   9.050
 2221SOL    HW1 8502   5.452   6.093   8.989
 2221SOL    HW2 8503   5.477   6.045   9.130
 2222SOL     OW 8504   3.944   2.892  13.627
 2222SOL    HW1 8505   3.916   2.854  13.544
 2222SOL    HW2 8506   4.026   2.938  13.606
 2223SOL     OW 8507   1.426   6.316  14.434
 2223SOL    HW1 8508   1.517   6.297  14.458
 2223SOL    HW2 8509   1.383   6.334  14.517
 2224SOL     OW 8510   1.972   1.739  13.881
 2224SOL    HW1 8511   1.997   1.818  13.834
 2224SOL    HW2 8512   1.959   1.768  13.971
 2225SOL     OW 8513   1.729   3.772  10.339
 2225SOL    HW1 8514   1.689   3.753  10.423
 2225SOL    HW2 8515   1.816   3.805  10.361
 2226SOL     OW 8516   8.357  10.953   4.733
 2226SOL    HW1 8517   8.410  10.924   4.808
 2226SOL    HW2 8518   8.365  10.882   4.670
 2227SOL     OW 8519  12.908  11.873   6.151
 2227SOL    HW1 8520  12.929  11.962   6.178
 2227SOL    HW2 8521  12.894  11.879   6.057
 2228SOL     OW 8522   9.985   4.046  10.389
 2228SOL    HW1 8523   9.935   4.073  10.312
 2228SOL    HW2 8524  10.075   4.040  10.357
 2229SOL     OW 8525   4.439   7.207  10.870
 2229SOL    HW1 8526   4.384   7.136  10.900
 2229SOL    HW2 8527   4.387   7.286  10.885
 2230SOL     OW 8528   8.293   4.600   9.743
 2230SOL    HW1 8529   8.291   4.628   9.652
 2230SOL    HW2 8530   8.361   4.532   9.746
 2231SOL     OW 8531  14.057   4.789   8.850
 2231SOL    HW1 8532  14.108   4.719   8.892
 2231SOL    HW2 8533  14.111   4.867   8.860
 2232SOL     OW 8534  14.795   6.968  12.904
 2232SOL    HW1 8535  14.810   6.880  12.870
 2232SOL    HW2 8536  14.876   6.991  12.950
 2233SOL     OW 8537  12.900   1.449   5.089
 2233SOL    HW1 8538  12.875   1.531   5.132
 2233SOL    HW2 8539  12.816   1.410   5.062
 2234SOL     OW 8540   1.111   0.093  14.826
 2234SOL    HW1 8541   1.161   0.146   0.007
 2234SOL    HW2 8542   1.162   0.097  14.746
 2235SOL     OW 8543   8.141  13.887   1.296
 2235SOL    HW1 8544   8.145  13.856   1.205
 2235SOL    HW2 8545   8.183  13.973   1.294
 2236SOL     OW 8546   5.335   3.553  14.483
 2236SOL    HW1 8547   5.253   3.599  14.467
 2236SOL    HW2 8548   5.311   3.484  14.545
 2237SOL     OW 8549  12.014   2.696   9.461
 2237SOL    HW1 8550  11.951   2.631   9.430
 2237SOL    HW2 8551  12.048   2.660   9.543
 2238SOL     OW 8552  13.406   7.498  14.643
 2238SOL    HW1 8553  13.311   7.508  14.641
 2238SOL    HW2 8554  13.432   7.538  14.726
 2239SOL     OW 8555   4.248   7.732   1.784
 2239SOL    HW1 8556   4.308   7.789   1.736
 2239SOL    HW2 8557   4.230   7.660   1.724
 2240SOL     OW 8558  10.808   7.868  14.115
 2240SOL    HW1 8559  10.817   7.806  14.187
 2240SOL    HW2 8560  10.879   7.931  14.127
 2241SOL     OW 8561   8.561  13.748   1.400
 2241SOL    HW1 8562   8.652  13.778   1.393
 2241SOL    HW2 8563   8.560  13.664   1.354
 2242SOL     OW 8564   2.512   6.813   9.696
 2242SOL    HW1 8565   2.604   6.819   9.721
 2242SOL    HW2 8566   2.494   6.897   9.654
 2243SOL     OW 8567   5.505   6.073   7.191
 2243SOL    HW1 8568   5.527   6.030   7.274
 2243SOL    HW2 8569   5.409   6.078   7.192
 2244SOL     OW 8570   5.927  10.957   6.333
 2244SOL    HW1 8571   5.920  11.052   6.331
 2244SOL    HW2 8572   5.930  10.935   6.426
 2245SOL     OW 8573   2.653   5.974  13.220
 2245SOL    HW1 8574   2.712   6.041  13.185
 2245SOL    HW2 8575   2.575   5.980  13.165
 2246SOL     OW 8576   8.892   8.454  12.451
 2246SOL    HW1 8577   8.927   8.543  12.445
 2246SOL    HW2 8578   8.891   8.423  12.360
 2247SOL     OW 8579   5.069  12.313   2.612
 2247SOL    HW1 8580   5.158  12.282   2.627
 2247SOL    HW2 8581   5.045  12.356   2.694
 2248SOL     OW 8582  12.416   9.574  12.940
 2248SOL    HW1 8583  12.352   9.504  12.942
 2248SOL    HW2 8584  12.384   9.639  13.003
 2249SOL     OW 8585   0.827   1.161   3.173
 2249SOL    HW1 8586   0.843   1.101   3.100
 2249SOL    HW2 8587   0.906   1.215   3.178
 2250SOL     OW 8588   2.027   0.754   8.936
 2250SOL    HW1 8589   1.965   0.681   8.943
 2250SOL    HW2 8590   1.989   0.822   8.993
 2251SOL     OW 8591   0.755   2.171  11.539
 2251SOL    HW1 8592   0.818   2.167  11.611
 2251SOL    HW2 8593   0.743   2.080  11.513
 2252SOL     OW 8594   7.816  10.353   0.195
 2252SOL    HW1 8595   7.804  10.314   0.282
 2252SOL    HW2 8596   7.740  10.323   0.145
 2253SOL     OW 8597   6.223   2.662  10.971
 2253SOL    HW1 8598   6.246   2.610  11.048
 2253SOL    HW2 8599   6.181   2.740  11.007
 2254SOL     OW 8600   8.573   0.553   8.776
 2254SOL    HW1 8601   8.552   0.619   8.843
 2254SOL    HW2 8602   8.488   0.532   8.737
 2255SOL     OW 8603  13.788   5.166  11.791
 2255SOL    HW1 8604  13.809   5.237  11.852
 2255SOL    HW2 8605  13.780   5.088  11.846
 2256SOL     OW 8606   4.694   8.852   1.262
 2256SOL    HW1 8607   4.686   8.946   1.246
 2256SOL    HW2 8608   4.630   8.834   1.330
 2257SOL     OW 8609   1.514   1.928   4.437
 2257SOL    HW1 8610   1.441   1.987   4.457
 2257SOL    HW2 8611   1.560   1.971   4.364
 2258SOL     OW 8612   0.648  12.759   5.082
 2258SOL    HW1 8613   0.709  12.747   5.010
 2258SOL    HW2 8614   0.633  12.672   5.117
 2259SOL     OW 8615   5.530   1.600   2.674
 2259SOL    HW1 8616   5.559   1.511   2.697
 2259SOL    HW2 8617   5.436   1.592   2.663
 2260SOL     OW 8618  14.015   8.715   3.180
 2260SOL    HW1 8619  13.998   8.781   3.113
 2260SOL    HW2 8620  13.928   8.686   3.207
 2261SOL     OW 8621  11.255   6.932   0.350
 2261SOL    HW1 8622  11.207   7.013   0.330
 2261SOL    HW2 8623  11.276   6.895   0.264
 2262SOL     OW 8624  11.600   1.571   8.695
 2262SOL    HW1 8625  11.611   1.478   8.715
 2262SOL    HW2 8626  11.510   1.590   8.720
 2263SOL     OW 8627   6.654   4.224   6.794
 2263SOL    HW1 8628   6.678   4.213   6.702
 2263SOL    HW2 8629   6.717   4.169   6.842
 2264SOL     OW 8630   8.373  14.588  13.232
 2264SOL    HW1 8631   8.438  14.635  13.180
 2264SOL    HW2 8632   8.390  14.616  13.322
 2265SOL     OW 8633  14.812  11.892  11.863
 2265SOL    HW1 8634  14.784  11.848  11.943
 2265SOL    HW2 8635  14.860  11.826  11.814
 2266SOL     OW 8636   7.251  12.915   9.379
 2266SOL    HW1 8637   7.156  12.904   9.387
 2266SOL    HW2 8638   7.271  12.888   9.290
 2267SOL     OW 8639   5.529  13.326   6.166
 2267SOL    HW1 8640   5.619  13.357   6.153
 2267SOL    HW2 8641   5.527  13.298   6.257
 2268SOL     OW 8642   6.636   6.244   2.991
 2268SOL    HW1 8643   6.603   6.330   2.965
 2268SOL    HW2 8644   6.690   6.216   2.917
 2269SOL     OW 8645   4.319   0.552  14.590
 2269SOL    HW1 8646   4.245   0.582  14.643
 2269SOL    HW2 8647   4.377   0.628  14.585
 2270SOL     OW 8648  13.171   7.429   0.807
 2270SOL    HW1 8649  13.098   7.368   0.797
 2270SOL    HW2 8650  13.175   7.446   0.902
 2271SOL     OW 8651  14.144  13.328   5.268
 2271SOL    HW1 8652  14.091  13.371   5.200
 2271SOL    HW2 8653  14.223  13.383   5.274
 2272SOL     OW 8654   9.833  13.198   7.948
 2272SOL    HW1 8655   9.795  13.165   8.029
 2272SOL    HW2 8656   9.789  13.282   7.933
 2273SOL     OW 8657   5.756   6.169   4.326
 2273SOL    HW1 8658   5.678   6.137   4.281
 2273SOL    HW2 8659   5.793   6.091   4.368
 2274SOL     OW 8660   0.387   0.906   3.561
 2274SOL    HW1 8661   0.436   0.950   3.630
 2274SOL    HW2 8662   0.455   0.867   3.505
 2275SOL     OW 8663   7.779   7.862  12.284
 2275SOL    HW1 8664   7.722   7.899  12.352
 2275SOL    HW2 8665   7.862   7.909  12.294
 2276SOL     OW 8666   1.833  10.754   6.715
 2276SOL    HW1 8667   1.924  10.728   6.730
 2276SOL    HW2 8668   1.785  10.720   6.791
 2277SOL     OW 8669  13.396  14.184  13.450
 2277SOL    HW1 8670  13.361  14.096  13.459
 2277SOL    HW2 8671  13.484  14.179  13.487
 2278SOL     OW 8672   3.078   0.339   5.846
 2278SOL    HW1 8673   3.135   0.405   5.805
 2278SOL    HW2 8674   3.060   0.276   5.776
 2279SOL     OW 8675  12.917  10.703   7.191
 2279SOL    HW1 8676  12.933  10.769   7.259
 2279SOL    HW2 8677  12.963  10.737   7.113
 2280SOL     OW 8678   0.574   4.685   8.195
 2280SOL    HW1 8679   0.586   4.731   8.112
 2280SOL    HW2 8680   0.650   4.627   8.201
 2281SOL     OW 8681   2.190   3.823   1.474
 2281SOL    HW1 8682   2.281   3.798   1.493
 2281SOL    HW2 8683   2.143   3.808   1.555
 2282SOL     OW 8684   4.565   2.398   6.172
 2282SOL    HW1 8685   4.504   2.330   6.147
 2282SOL    HW2 8686   4.603   2.428   6.090
 2283SOL     OW 8687  14.141   1.194  13.619
 2283SOL    HW1 8688  14.090   1.122  13.582
 2283SOL    HW2 8689  14.155   1.169  13.710
 2284SOL     OW 8690   0.151   8.475   6.886
 2284SOL    HW1 8691   0.216   8.407   6.870
 2284SOL    HW2 8692   0.151   8.528   6.806
 2285SOL     OW 8693   2.513   9.822  11.256
 2285SOL    HW1 8694   2.535   9.856  11.343
 2285SOL    HW2 8695   2.452   9.751  11.274
 2286SOL     OW 8696   3.642   2.745  11.505
 2286SOL    HW1 8697   3.548   2.764  11.501
 2286SOL    HW2 8698   3.683   2.816  11.456
 2287SOL     OW 8699   2.419   5.858   1.669
 2287SOL    HW1 8700   2.476   5.785   1.695
 2287SOL    HW2 8701   2.438   5.927   1.732
 2288SOL     OW 8702   1.570   1.477   3.737
 2288SOL    HW1 8703   1.606   1.408   3.793
 2288SOL    HW2 8704   1.476   1.464   3.741
 2289SOL     OW 8705   7.045  13.275  13.403
 2289SOL    HW1 8706   7.099  13.348  13.373
 2289SOL    HW2 8707   6.989  13.254  13.328
 2290SOL     OW 8708   7.534  10.991  12.290
 2290SOL    HW1 8709   7.494  10.941  12.361
 2290SOL    HW2 8710   7.566  10.925  12.229
 2291SOL     OW 8711  10.507  12.677   7.777
 2291SOL    HW1 8712  10.415  12.699   7.783
 2291SOL    HW2 8713  10.548  12.753   7.737
 2292SOL     OW 8714   2.837   5.351   8.700
 2292SOL    HW1 8715   2.845   5.269   8.749
 2292SOL    HW2 8716   2.767   5.399   8.744
 2293SOL     OW 8717   3.336   9.498  12.718
 2293SOL    HW1 8718   3.366   9.557  12.788
 2293SOL    HW2 8719   3.383   9.416  12.735
 2294SOL     OW 8720   4.016   5.351   4.351
 2294SOL    HW1 8721   4.030   5.258   4.367
 2294SOL    HW2 8722   4.017   5.391   4.438
 2295SOL     OW 8723   9.695  12.715  12.738
 2295SOL    HW1 8724   9.738  12.800  12.751
 2295SOL    HW2 8725   9.666  12.718  12.646
 2296SOL     OW 8726   1.000   0.986   8.463
 2296SOL    HW1 8727   1.077   0.930   8.454
 2296SOL    HW2 8728   1.025   1.069   8.422
 2297SOL     OW 8729   2.666  12.583   3.455
 2297SOL    HW1 8730   2.674  12.570   3.549
 2297SOL    HW2 8731   2.647  12.677   3.445
 2298SOL     OW 8732   3.490   1.712   5.021
 2298SOL    HW1 8733   3.421   1.738   5.082
 2298SOL    HW2 8734   3.522   1.629   5.054
 2299SOL     OW 8735   3.028   0.964  11.655
 2299SOL    HW1 8736   3.121   0.940  11.655
 2299SOL    HW2 8737   2.995   0.933  11.739
 2300SOL     OW 8738   4.450  13.510  10.784
 2300SOL    HW1 8739   4.438  13.563  10.863
 2300SOL    HW2 8740   4.534  13.466  10.797
 2301SOL     OW 8741   5.934   8.005   1.611
 2301SOL    HW1 8742   5.960   7.918   1.583
 2301SOL    HW2 8743   5.947   8.060   1.533
 2302SOL     OW 8744  12.172  10.298  12.615
 2302SOL    HW1 8745  12.156  10.255  12.699
 2302SOL    HW2 8746  12.265  10.287  12.600
 2303SOL     OW 8747   3.493   7.482  13.492
 2303SOL    HW1 8748   3.513   7.550  13.428
 2303SOL    HW2 8749   3.409   7.446  13.464
 2304SOL     OW 8750   3.724  11.021  12.891
 2304SOL    HW1 8751   3.783  10.949  12.867
 2304SOL    HW2 8752   3.742  11.090  12.827
 2305SOL     OW 8753  11.656  14.562   6.064
 2305SOL    HW1 8754  11.620  14.613   6.136
 2305SOL    HW2 8755  11.637  14.614   5.986
 2306SOL     OW 8756  14.684   0.829   4.601
 2306SOL    HW1 8757  14.689   0.841   4.506
 2306SOL    HW2 8758  14.750   0.889   4.635
 2307SOL     OW 8759  13.418   1.796  10.712
 2307SOL    HW1 8760  13.410   1.701  10.704
 2307SOL    HW2 8761  13.403   1.830  10.624
 2308SOL     OW 8762  14.789   1.913  10.258
 2308SOL    HW1 8763  14.719   1.978  10.256
 2308SOL    HW2 8764  14.755   1.839  10.206
 2309SOL     OW 8765   4.215   0.721   2.535
 2309SOL    HW1 8766   4.305   0.701   2.512
 2309SOL    HW2 8767   4.214   0.721   2.631
 2310SOL     OW 8768   6.535   8.605   4.821
 2310SOL    HW1 8769   6.606   8.594   4.758
 2310SOL    HW2 8770   6.509   8.515   4.844
 2311SOL     OW 8771   0.533   5.005  14.528
 2311SOL    HW1 8772   0.528   4.956  14.446
 2311SOL    HW2 8773   0.591   5.078  14.509
 2312SOL     OW 8774   1.738   8.819  12.418
 2312SOL    HW1 8775   1.825   8.788  12.396
 2312SOL    HW2 8776   1.690   8.739  12.442
 2313SOL     OW 8777   2.476  11.304   1.859
 2313SOL    HW1 8778   2.416  11.254   1.803
 2313SOL    HW2 8779   2.484  11.251   1.938
 2314SOL     OW 8780  10.663   1.538   5.979
 2314SOL    HW1 8781  10.612   1.606   6.023
 2314SOL    HW2 8782  10.599   1.473   5.953
 2315SOL     OW 8783  10.750   4.108   3.277
 2315SOL    HW1 8784  10.816   4.117   3.347
 2315SOL    HW2 8785  10.717   4.019   3.288
 2316SOL     OW 8786  14.502   2.633   7.055
 2316SOL    HW1 8787  14.583   2.684   7.065
 2316SOL    HW2 8788  14.446   2.662   7.127
 2317SOL     OW 8789   5.305  14.723   6.161
 2317SOL    HW1 8790   5.281  14.753   6.074
 2317SOL    HW2 8791   5.369  14.653   6.145
 2318SOL     OW 8792   7.231  11.943  14.403
 2318SOL    HW1 8793   7.169  12.014  14.385
 2318SOL    HW2 8794   7.261  11.914  14.316
 2319SOL     OW 8795   4.267   8.564  14.382
 2319SOL    HW1 8796   4.242   8.486  14.332
 2319SOL    HW2 8797   4.188   8.617  14.385
 2320SOL     OW 8798   4.874   1.583   0.643
 2320SOL    HW1 8799   4.935   1.650   0.611
 2320SOL    HW2 8800   4.832   1.549   0.564
 2321SOL     OW 8801   2.535  14.131   3.355
 2321SOL    HW1 8802   2.496  14.218   3.367
 2321SOL    HW2 8803   2.627  14.149   3.336
 2322SOL     OW 8804  10.868  11.367   5.354
 2322SOL    HW1 8805  10.859  11.381   5.448
 2322SOL    HW2 8806  10.937  11.427   5.327
 2323SOL     OW 8807   2.224   7.883   8.970
 2323SOL    HW1 8808   2.281   7.919   9.038
 2323SOL    HW2 8809   2.221   7.789   8.989
 2324SOL     OW 8810   2.849   4.339   8.796
 2324SOL    HW1 8811   2.836   4.245   8.799
 2324SOL    HW2 8812   2.924   4.351   8.738
 2325SOL     OW 8813   8.309  10.911   4.434
 2325SOL    HW1 8814   8.217  10.910   4.406
 2325SOL    HW2 8815   8.331  10.819   4.446
 2326SOL     OW 8816  11.096   4.710  12.750
 2326SOL    HW1 8817  11.040   4.717  12.827
 2326SOL    HW2 8818  11.122   4.800  12.730
 2327SOL     OW 8819   6.656   6.826  14.154
 2327SOL    HW1 8820   6.594   6.883  14.201
 2327SOL    HW2 8821   6.740   6.871  14.163
 2328SOL     OW 8822   4.945  11.698  14.498
 2328SOL    HW1 8823   5.012  11.676  14.562
 2328SOL    HW2 8824   4.945  11.793  14.494
 2329SOL     OW 8825   1.788   3.773   8.116
 2329SOL    HW1 8826   1.821   3.686   8.141
 2329SOL    HW2 8827   1.797   3.775   8.020
 2330SOL     OW 8828   9.266   6.079  14.797
 2330SOL    HW1 8829   9.282   5.991  14.831
 2330SOL    HW2 8830   9.171   6.090  14.803
 2331SOL     OW 8831   8.643   0.342   9.642
 2331SOL    HW1 8832   8.668   0.254   9.616
 2331SOL    HW2 8833   8.689   0.400   9.581
 2332SOL     OW 8834  12.577   3.184  13.890
 2332SOL    HW1 8835  12.574   3.276  13.916
 2332SOL    HW2 8836  12.591   3.186  13.796
 2333SOL     OW 8837   3.513   2.898   6.647
 2333SOL    HW1 8838   3.457   2.880   6.722
 2333SOL    HW2 8839   3.575   2.825   6.645
 2334SOL     OW 8840   8.601   9.156   0.685
 2334SOL    HW1 8841   8.516   9.192   0.658
 2334SOL    HW2 8842   8.663   9.226   0.664
 2335SOL     OW 8843   0.847  11.191   3.681
 2335SOL    HW1 8844   0.759  11.152   3.680
 2335SOL    HW2 8845   0.863  11.210   3.774
 2336SOL     OW 8846  11.666   6.701  14.556
 2336SOL    HW1 8847  11.597   6.712  14.491
 2336SOL    HW2 8848  11.740   6.664  14.507
 2337SOL     OW 8849   6.920  10.511   3.477
 2337SOL    HW1 8850   7.002  10.498   3.525
 2337SOL    HW2 8851   6.915  10.437   3.417
 2338SOL     OW 8852   2.869   5.841   3.424
 2338SOL    HW1 8853   2.827   5.922   3.452
 2338SOL    HW2 8854   2.935   5.868   3.361
 2339SOL     OW 8855   8.438  12.504   7.840
 2339SOL    HW1 8856   8.427  12.411   7.861
 2339SOL    HW2 8857   8.424  12.550   7.922
 2340SOL     OW 8858  10.435   0.462  14.093
 2340SOL    HW1 8859  10.460   0.537  14.040
 2340SOL    HW2 8860  10.344   0.479  14.118
 2341SOL     OW 8861   9.848  10.871  12.875
 2341SOL    HW1 8862   9.889  10.878  12.961
 2341SOL    HW2 8863   9.897  10.932  12.820
 2342SOL     OW 8864   8.346   7.560  14.407
 2342SOL    HW1 8865   8.250   7.570  14.408
 2342SOL    HW2 8866   8.379   7.645  14.379
 2343SOL     OW 8867   2.790   6.512  13.771
 2343SOL    HW1 8868   2.749   6.564  13.841
 2343SOL    HW2 8869   2.759   6.422  13.787
 2344SOL     OW 8870  11.555   7.050  12.004
 2344SOL    HW1 8871  11.482   7.096  11.962
 2344SOL    HW2 8872  11.513   6.990  12.066
 2345SOL     OW 8873  14.742   8.656   8.997
 2345SOL    HW1 8874  14.746   8.561   8.992
 2345SOL    HW2 8875  14.725   8.685   8.908
 2346SOL     OW 8876  11.889  11.238   2.399
 2346SOL    HW1 8877  11.840  11.309   2.356
 2346SOL    HW2 8878  11.931  11.191   2.326
 2347SOL     OW 8879   1.612   8.756   6.620
 2347SOL    HW1 8880   1.549   8.747   6.692
 2347SOL    HW2 8881   1.561   8.742   6.541
 2348SOL     OW 8882   8.762   6.202   5.604
 2348SOL    HW1 8883   8.715   6.120   5.616
 2348SOL    HW2 8884   8.708   6.267   5.649
 2349SOL     OW 8885   3.534  11.289  13.769
 2349SOL    HW1 8886   3.589  11.285  13.691
 2349SOL    HW2 8887   3.534  11.382  13.793
 2350SOL     OW 8888   9.873   0.811  11.640
 2350SOL    HW1 8889   9.782   0.779  11.637
 2350SOL    HW2 8890   9.880   0.870  11.565
 2351SOL     OW 8891   7.517   4.404   6.719
 2351SOL    HW1 8892   7.431   4.445   6.708
 2351SOL    HW2 8893   7.498   4.314   6.744
 2352SOL     OW 8894   3.659  10.032   7.749
 2352SOL    HW1 8895   3.725   9.963   7.745
 2352SOL    HW2 8896   3.700  10.107   7.706
 2353SOL     OW 8897   2.114  14.481   1.440
 2353SOL    HW1 8898   2.068  14.536   1.376
 2353SOL    HW2 8899   2.102  14.527   1.524
 2354SOL     OW 8900  11.102   7.189   7.334
 2354SOL    HW1 8901  11.087   7.272   7.379
 2354SOL    HW2 8902  11.094   7.210   7.241
 2355SOL     OW 8903  13.258  10.548  13.125
 2355SOL    HW1 8904  13.174  10.514  13.155
 2355SOL    HW2 8905  13.252  10.642  13.139
 2356SOL     OW 8906  14.079   6.430  12.721
 2356SOL    HW1 8907  14.164   6.434  12.676
 2356SOL    HW2 8908  14.083   6.350  12.774
 2357SOL     OW 8909   0.372   0.858  12.560
 2357SOL    HW1 8910   0.289   0.818  12.534
 2357SOL    HW2 8911   0.424   0.785  12.593
 2358SOL     OW 8912   8.920  14.016   4.256
 2358SOL    HW1 8913   8.987  14.076   4.291
 2358SOL    HW2 8914   8.941  13.932   4.296
 2359SOL     OW 8915  14.504  13.928  11.259
 2359SOL    HW1 8916  14.570  13.938  11.191
 2359SOL    HW2 8917  14.430  13.981  11.230
 2360SOL     OW 8918  14.773  10.563   9.787
 2360SOL    HW1 8919  14.796  10.561   9.880
 2360SOL    HW2 8920  14.781  10.654   9.761
 2361SOL     OW 8921   7.011  10.747   0.353
 2361SOL    HW1 8922   6.976  10.716   0.437
 2361SOL    HW2 8923   6.933  10.760   0.299
 2362SOL     OW 8924   6.011   0.164  14.065
 2362SOL    HW1 8925   6.062   0.100  14.114
 2362SOL    HW2 8926   6.049   0.163  13.977
 2363SOL     OW 8927   3.706  14.551  10.210
 2363SOL    HW1 8928   3.666  14.465  10.193
 2363SOL    HW2 8929   3.640  14.614  10.181
 2364SOL     OW 8930  12.308   2.361   3.654
 2364SOL    HW1 8931  12.395   2.401   3.662
 2364SOL    HW2 8932  12.312   2.284   3.710
 2365SOL     OW 8933   7.514   3.774   3.798
 2365SOL    HW1 8934   7.581   3.741   3.739
 2365SOL    HW2 8935   7.432   3.767   3.748
 2366SOL     OW 8936   6.972  13.466  14.855
 2366SOL    HW1 8937   7.050  13.503   0.015
 2366SOL    HW2 8938   7.007  13.405  14.790
 2367SOL     OW 8939   8.363   6.329  10.766
 2367SOL    HW1 8940   8.372   6.373  10.850
 2367SOL    HW2 8941   8.385   6.238  10.784
 2368SOL     OW 8942  11.605   7.461   3.937
 2368SOL    HW1 8943  11.517   7.436   3.966
 2368SOL    HW2 8944  11.597   7.471   3.842
 2369SOL     OW 8945   8.863   8.844   9.132
 2369SOL    HW1 8946   8.818   8.849   9.217
 2369SOL    HW2 8947   8.894   8.754   9.126
 2370SOL     OW 8948  11.067  13.652  14.605
 2370SOL    HW1 8949  11.004  13.723  14.617
 2370SOL    HW2 8950  11.151  13.689  14.630
 2371SOL     OW 8951  13.198   8.300   6.595
 2371SOL    HW1 8952  13.243   8.262   6.520
 2371SOL    HW2 8953  13.121   8.244   6.608
 2372SOL     OW 8954   3.020   6.855   1.570
 2372SOL    HW1 8955   2.955   6.925   1.578
 2372SOL    HW2 8956   3.082   6.871   1.641
 2373SOL     OW 8957  11.602  12.165   2.514
 2373SOL    HW1 8958  11.508  12.156   2.531
 2373SOL    HW2 8959  11.636  12.076   2.516
 2374SOL     OW 8960   5.569  10.695   2.756
 2374SOL    HW1 8961   5.520  10.765   2.799
 2374SOL    HW2 8962   5.615  10.651   2.828
 2375SOL     OW 8963   7.201  10.083   4.294
 2375SOL    HW1 8964   7.270  10.061   4.356
 2375SOL    HW2 8965   7.247  10.119   4.218
 2376SOL     OW 8966  11.113   0.259  12.927
 2376SOL    HW1 8967  11.094   0.296  12.842
 2376SOL    HW2 8968  11.029   0.228  12.960
 2377SOL     OW 8969   4.282  14.212  11.032
 2377SOL    HW1 8970   4.306  14.136  11.085
 2377SOL    HW2 8971   4.295  14.183  10.942
 2378SOL     OW 8972   2.918   2.896   1.207
 2378SOL    HW1 8973   2.963   2.823   1.164
 2378SOL    HW2 8974   2.847   2.855   1.255
 2379SOL     OW 8975   9.135  11.713   8.529
 2379SOL    HW1 8976   9.125  11.808   8.532
 2379SOL    HW2 8977   9.046  11.679   8.520
 2380SOL     OW 8978   7.514   0.350   8.337
 2380SOL    HW1 8979   7.489   0.414   8.403
 2380SOL    HW2 8980   7.610   0.357   8.332
 2381SOL     OW 8981   5.648  12.386  13.705
 2381SOL    HW1 8982   5.687  12.401  13.791
 2381SOL    HW2 8983   5.682  12.457  13.650
 2382SOL     OW 8984   9.947  13.157   4.960
 2382SOL    HW1 8985   9.964  13.133   5.051
 2382SOL    HW2 8986   9.867  13.109   4.937
 2383SOL     OW 8987  12.146   4.930   0.435
 2383SOL    HW1 8988  12.188   4.960   0.355
 2383SOL    HW2 8989  12.189   4.846   0.454
 2384SOL     OW 8990  14.501   0.920   0.186
 2384SOL    HW1 8991  14.528   0.940   0.096
 2384SOL    HW2 8992  14.498   0.824   0.188
 2385SOL     OW 8993  14.075   8.269  10.045
 2385SOL    HW1 8994  14.085   8.231  10.132
 2385SOL    HW2 8995  14.141   8.338  10.040
 2386SOL     OW 8996   0.695   7.550   2.284
 2386SOL    HW1 8997   0.746   7.476   2.252
 2386SOL    HW2 8998   0.604   7.527   2.265
 2387SOL     OW 8999   1.833   2.599   7.604
 2387SOL    HW1 9000   1.787   2.617   7.686
 2387SOL    HW2 9001   1.812   2.675   7.548
 2388SOL     OW 9002  11.456   7.681   5.567
 2388SOL    HW1 9003  11.548   7.690   5.544
 2388SOL    HW2 9004  11.456   7.620   5.642
 2389SOL     OW 9005   6.699   9.750   0.602
 2389SOL    HW1 9006   6.624   9.779   0.654
 2389SOL    HW2 9007   6.669   9.668   0.562
 2390SOL     OW 9008   5.371  14.009   7.413
 2390SOL    HW1 9009   5.343  14.077   7.475
 2390SOL    HW2 9010   5.430  13.953   7.464
 2391SOL     OW 9011   2.577   9.014  10.328
 2391SOL    HW1 9012   2.614   9.069  10.259
 2391SOL    HW2 9013   2.497   9.060  10.354
 2392SOL     OW 9014   3.271   2.664  12.097
 2392SOL    HW1 9015   3.203   2.613  12.141
 2392SOL    HW2 9016   3.273   2.629  12.008
 2393SOL     OW 9017  14.854   6.890  14.513
 2393SOL    HW1 9018  14.862   6.926  14.602
 2393SOL    HW2 9019  14.795   6.950  14.468
 2394SOL     OW 9020   3.939   8.242   6.332
 2394SOL    HW1 9021   3.885   8.173   6.371
 2394SOL    HW2 9022   3.879   8.287   6.272
 2395SOL     OW 9023  14.680   3.849   2.527
 2395SOL    HW1 9024  14.701   3.781   2.463
 2395SOL    HW2 9025  14.671   3.929   2.475
 2396SOL     OW 9026   0.000   7.695   4.864
 2396SOL    HW1 9027   0.061   7.767   4.849
 2396SOL    HW2 9028   0.049   7.633   4.918
 2397SOL     OW 9029  12.130  10.830   3.417
 2397SOL    HW1 9030  12.109  10.876   3.497
 2397SOL    HW2 9031  12.049  10.784   3.394
 2398SOL     OW 9032   1.513  12.543   6.457
 2398SOL    HW1 9033   1.503  12.639   6.456
 2398SOL    HW2 9034   1.452  12.512   6.523
 2399SOL     OW 9035   0.294  11.212   5.081
 2399SOL    HW1 9036   0.356  11.233   5.151
 2399SOL    HW2 9037   0.349  11.192   5.005
 2400SOL     OW 9038   8.831  13.679   6.806
 2400SOL    HW1 9039   8.891  13.617   6.764
 2400SOL    HW2 9040   8.880  13.711   6.882
 2401SOL     OW 9041  12.577   1.239  10.766
 2401SOL    HW1 9042  12.492   1.207  10.797
 2401SOL    HW2 9043  12.629   1.251  10.846
 2402SOL     OW 9044   5.698   5.919   2.084
 2402SOL    HW1 9045   5.778   5.967   2.108
 2402SOL    HW2 9046   5.729   5.832   2.059
 2403SOL     OW 9047   1.584   2.204  14.076
 2403SOL    HW1 9048   1.570   2.297  14.096
 2403SOL    HW2 9049   1.503   2.161  14.104
 2404SOL     OW 9050   7.807  14.200   6.082
 2404SOL    HW1 9051   7.891  14.245   6.076
 2404SOL    HW2 9052   7.808  14.159   6.169
 2405SOL     OW 9053  10.350  11.558   7.572
 2405SOL    HW1 9054  10.412  11.600   7.632
 2405SOL    HW2 9055  10.344  11.468   7.603
 2406SOL     OW 9056   3.678   7.327  14.645
 2406SOL    HW1 9057   3.747   7.261  14.646
 2406SOL    HW2 9058   3.613   7.295  14.707
 2407SOL     OW 9059   2.714   6.594  14.610
 2407SOL    HW1 9060   2.675   6.667  14.561
 2407SOL    HW2 9061   2.785   6.635  14.661
 2408SOL     OW 9062   2.376   5.199  13.638
 2408SOL    HW1 9063   2.438   5.270  13.653
 2408SOL    HW2 9064   2.425   5.119  13.659
 2409SOL     OW 9065   5.653   6.019   6.476
 2409SOL    HW1 9066   5.602   5.951   6.432
 2409SOL    HW2 9067   5.700   6.064   6.406
 2410SOL     OW 9068  11.950   8.825   1.177
 2410SOL    HW1 9069  11.899   8.834   1.257
 2410SOL    HW2 9070  12.030   8.876   1.194
 2411SOL     OW 9071   0.932   8.038  13.008
 2411SOL    HW1 9072   0.909   8.040  13.101
 2411SOL    HW2 9073   0.988   8.115  12.996
 2412SOL     OW 9074   6.433   5.388   8.776
 2412SOL    HW1 9075   6.496   5.381   8.705
 2412SOL    HW2 9076   6.472   5.339   8.848
 2413SOL     OW 9077  13.281   4.719  12.952
 2413SOL    HW1 9078  13.213   4.786  12.958
 2413SOL    HW2 9079  13.245   4.654  12.892
 2414SOL     OW 9080   5.762  11.906   6.390
 2414SOL    HW1 9081   5.697  11.892   6.459
 2414SOL    HW2 9082   5.821  11.972   6.426
 2415SOL     OW 9083   5.749   1.870  11.393
 2415SOL    HW1 9084   5.706   1.849  11.476
 2415SOL    HW2 9085   5.794   1.952  11.410
 2416SOL     OW 9086   2.210   7.303   4.978
 2416SOL    HW1 9087   2.149   7.259   4.919
 2416SOL    HW2 9088   2.188   7.270   5.065
 2417SOL     OW 9089   5.274   5.864  14.646
 2417SOL    HW1 9090   5.304   5.948  14.612
 2417SOL    HW2 9091   5.323   5.799  14.595
 2418SOL     OW 9092   0.291  13.121   9.032
 2418SOL    HW1 9093   0.324  13.210   9.025
 2418SOL    HW2 9094   0.196  13.129   9.026
 2419SOL     OW 9095  12.353   2.050   8.783
 2419SOL    HW1 9096  12.425   2.048   8.845
 2419SOL    HW2 9097  12.389   2.015   8.702
 2420SOL     OW 9098  12.647   3.884   6.158
 2420SOL    HW1 9099  12.617   3.865   6.069
 2420SOL    HW2 9100  12.568   3.912   6.205
 2421SOL     OW 9101   2.627  10.297   3.582
 2421SOL    HW1 9102   2.703  10.258   3.539
 2421SOL    HW2 9103   2.622  10.385   3.546
 2422SOL     OW 9104   8.480   7.749   6.658
 2422SOL    HW1 9105   8.568   7.782   6.646
 2422SOL    HW2 9106   8.429   7.791   6.589
 2423SOL     OW 9107   0.198   4.736   3.588
 2423SOL    HW1 9108   0.105   4.717   3.588
 2423SOL    HW2 9109   0.238   4.659   3.630
 2424SOL     OW 9110   3.761   4.863  10.789
 2424SOL    HW1 9111   3.775   4.929  10.722
 2424SOL    HW2 9112   3.849   4.834  10.813
 2425SOL     OW 9113  14.265   2.217   0.384
 2425SOL    HW1 9114  14.281   2.134   0.339
 2425SOL    HW2 9115  14.210   2.266   0.324
 2426SOL     OW 9116  13.354   1.745  11.247
 2426SOL    HW1 9117  13.296   1.689  11.297
 2426SOL    HW2 9118  13.440   1.702  11.252
 2427SOL     OW 9119   2.311   5.078  13.944
 2427SOL    HW1 9120   2.337   5.062  14.035
 2427SOL    HW2 9121   2.382   5.041  13.892
 2428SOL     OW 9122  14.344   4.874   9.166
 2428SOL    HW1 9123  14.348   4.896   9.260
 2428SOL    HW2 9124  14.380   4.950   9.122
 2429SOL     OW 9125   7.608   6.564   1.608
 2429SOL    HW1 9126   7.653   6.630   1.661
 2429SOL    HW2 9127   7.678   6.517   1.563
 2430SOL     OW 9128   1.140   5.876   2.695
 2430SOL    HW1 9129   1.055   5.838   2.673
 2430SOL    HW2 9130   1.200   5.801   2.692
 2431SOL     OW 9131  13.148   4.494   6.436
 2431SOL    HW1 9132  13.186   4.420   6.388
 2431SOL    HW2 9133  13.204   4.503   6.513
 2432SOL     OW 9134   8.807   2.218   9.582
 2432SOL    HW1 9135   8.722   2.203   9.540
 2432SOL    HW2 9136   8.803   2.309   9.612
 2433SOL     OW 9137   7.003   9.929  11.023
 2433SOL    HW1 9138   7.097   9.927  11.003
 2433SOL    HW2 9139   6.991   9.863  11.090
 2434SOL     OW 9140   1.828   2.701   0.881
 2434SOL    HW1 9141   1.807   2.609   0.899
 2434SOL    HW2 9142   1.793   2.748   0.956
 2435SOL     OW 9143   4.677   4.586  10.040
 2435SOL    HW1 9144   4.713   4.662  10.086
 2435SOL    HW2 9145   4.635   4.535  10.109
 2436SOL     OW 9146   0.732   0.041   0.396
 2436SOL    HW1 9147   0.770  14.843   0.360
 2436SOL    HW2 9148   0.715   0.096   0.319
 2437SOL     OW 9149  14.671   9.408  13.540
 2437SOL    HW1 9150  14.640   9.498  13.530
 2437SOL    HW2 9151  14.624   9.359  13.473
 2438SOL     OW 9152  11.510   3.811  10.118
 2438SOL    HW1 9153  11.567   3.887  10.111
 2438SOL    HW2 9154  11.432   3.843  10.164
 2439SOL     OW 9155   4.742   8.500   4.662
 2439SOL    HW1 9156   4.817   8.449   4.629
 2439SOL    HW2 9157   4.668   8.468   4.610
 2440SOL     OW 9158  11.431   6.946  10.696
 2440SOL    HW1 9159  11.441   7.038  10.718
 2440SOL    HW2 9160  11.438   6.943  10.600
 2441SOL     OW 9161   0.527  14.276  13.901
 2441SOL    HW1 9162   0.547  14.213  13.970
 2441SOL    HW2 9163   0.562  14.359  13.933
 2442SOL     OW 9164   3.604  10.498  13.176
 2442SOL    HW1 9165   3.676  10.473  13.118
 2442SOL    HW2 9166   3.530  10.446  13.148
 2443SOL     OW 9167   0.650   4.062  14.589
 2443SOL    HW1 9168   0.598   4.032  14.515
 2443SOL    HW2 9169   0.702   4.134  14.554
 2444SOL     OW 9170   3.204   2.766   5.047
 2444SOL    HW1 9171   3.298   2.763   5.033
 2444SOL    HW2 9172   3.175   2.676   5.033
 2445SOL     OW 9173   5.683  14.392   5.005
 2445SOL    HW1 9174   5.652  14.411   5.093
 2445SOL    HW2 9175   5.776  14.416   5.007
 2446SOL     OW 9176   3.773  11.638   5.054
 2446SOL    HW1 9177   3.826  11.650   5.133
 2446SOL    HW2 9178   3.814  11.695   4.989
 2447SOL     OW 9179  10.756   8.278  14.567
 2447SOL    HW1 9180  10.735   8.341  14.498
 2447SOL    HW2 9181  10.823   8.323  14.620
 2448SOL     OW 9182  13.092   7.476   5.191
 2448SOL    HW1 9183  13.129   7.487   5.103
 2448SOL    HW2 9184  13.163   7.498   5.250
 2449SOL     OW 9185   6.351   0.702  11.661
 2449SOL    HW1 9186   6.357   0.762  11.736
 2449SOL    HW2 9187   6.302   0.751  11.595
 2450SOL     OW 9188  11.746  13.979  14.385
 2450SOL    HW1 9189  11.730  13.935  14.302
 2450SOL    HW2 9190  11.840  13.996  14.385
 2451SOL     OW 9191   0.342   2.987  11.502
 2451SOL    HW1 9192   0.341   3.046  11.427
 2451SOL    HW2 9193   0.262   2.936  11.494
 2452SOL     OW 9194   9.803   1.944   9.003
 2452SOL    HW1 9195   9.789   2.038   8.997
 2452SOL    HW2 9196   9.877   1.934   9.063
 2453SOL     OW 9197   7.432   7.709  14.654
 2453SOL    HW1 9198   7.439   7.688  14.561
 2453SOL    HW2 9199   7.521   7.738  14.678
 2454SOL     OW 9200   8.529   1.234  12.636
 2454SOL    HW1 9201   8.543   1.187  12.554
 2454SOL    HW2 9202   8.595   1.304  12.635
 2455SOL     OW 9203   9.852   4.948   5.981
 2455SOL    HW1 9204   9.869   4.886   5.910
 2455SOL    HW2 9205   9.791   4.902   6.038
 2456SOL     OW 9206   5.113   0.506   7.935
 2456SOL    HW1 9207   5.163   0.583   7.910
 2456SOL    HW2 9208   5.028   0.540   7.963
 2457SOL     OW 9209  10.787   7.892   9.999
 2457SOL    HW1 9210  10.730   7.855   9.932
 2457SOL    HW2 9211  10.732   7.897  10.077
 2458SOL     OW 9212  13.266  14.688   6.630
 2458SOL    HW1 9213  13.289  14.692   6.538
 2458SOL    HW2 9214  13.349  14.676   6.676
 2459SOL     OW 9215  11.681  12.691  12.227
 2459SOL    HW1 9216  11.629  12.617  12.258
 2459SOL    HW2 9217  11.771  12.668  12.250
 2460SOL     OW 9218  14.083  14.522   1.547
 2460SOL    HW1 9219  14.040  14.452   1.596
 2460SOL    HW2 9220  14.039  14.523   1.462
 2461SOL     OW 9221   3.013  13.987  14.669
 2461SOL    HW1 9222   3.069  14.046  14.720
 2461SOL    HW2 9223   2.933  13.979  14.720
 2462SOL     OW 9224   7.753   3.264   8.278
 2462SOL    HW1 9225   7.741   3.359   8.276
 2462SOL    HW2 9226   7.843   3.251   8.247
 2463SOL     OW 9227   5.942   3.665   4.100
 2463SOL    HW1 9228   5.913   3.607   4.171
 2463SOL    HW2 9229   6.033   3.640   4.084
 2464SOL     OW 9230  13.198   6.450   7.553
 2464SOL    HW1 9231  13.254   6.510   7.603
 2464SOL    HW2 9232  13.139   6.413   7.618
 2465SOL     OW 9233  11.507   2.404   0.868
 2465SOL    HW1 9234  11.582   2.427   0.922
 2465SOL    HW2 9235  11.478   2.487   0.830
 2466SOL     OW 9236   9.239  13.966  11.385
 2466SOL    HW1 9237   9.290  13.892  11.418
 2466SOL    HW2 9238   9.287  14.043  11.417
 2467SOL     OW 9239   2.385  13.711   3.612
 2467SOL    HW1 9240   2.471  13.680   3.585
 2467SOL    HW2 9241   2.387  13.806   3.595
 2468SOL     OW 9242   2.202  11.022   8.534
 2468SOL    HW1 9243   2.158  10.938   8.521
 2468SOL    HW2 9244   2.212  11.029   8.629
 2469SOL     OW 9245   7.434   4.498   0.500
 2469SOL    HW1 9246   7.514   4.495   0.551
 2469SOL    HW2 9247   7.383   4.423   0.530
 2470SOL     OW 9248   5.433   1.395  14.551
 2470SOL    HW1 9249   5.514   1.350  14.528
 2470SOL    HW2 9250   5.458   1.454  14.623
 2471SOL     OW 9251  14.011   7.431   5.115
 2471SOL    HW1 9252  13.916   7.428   5.124
 2471SOL    HW2 9253  14.028   7.507   5.059
 2472SOL     OW 9254   5.547   0.396  12.809
 2472SOL    HW1 9255   5.560   0.357  12.895
 2472SOL    HW2 9256   5.462   0.439  12.814
 2473SOL     OW 9257  13.458   6.314   4.113
 2473SOL    HW1 9258  13.466   6.282   4.023
 2473SOL    HW2 9259  13.461   6.235   4.167
 2474SOL     OW 9260   4.904   4.910   7.733
 2474SOL    HW1 9261   4.952   4.957   7.665
 2474SOL    HW2 9262   4.825   4.962   7.747
 2475SOL     OW 9263   7.698  12.541   6.013
 2475SOL    HW1 9264   7.624  12.566   5.957
 2475SOL    HW2 9265   7.773  12.539   5.953
 2476SOL     OW 9266   4.345  14.534   9.131
 2476SOL    HW1 9267   4.354  14.561   9.222
 2476SOL    HW2 9268   4.431  14.499   9.108
 2477SOL     OW 9269   2.263  11.086  10.947
 2477SOL    HW1 9270   2.217  11.022  10.893
 2477SOL    HW2 9271   2.195  11.150  10.971
 2478SOL     OW 9272   0.639  13.066   2.059
 2478SOL    HW1 9273   0.602  13.060   2.147
 2478SOL    HW2 9274   0.634  13.159   2.037
 2479SOL     OW 9275  13.997   9.248   0.588
 2479SOL    HW1 9276  13.987   9.307   0.514
 2479SOL    HW2 9277  13.908   9.226   0.614
 2480SOL     OW 9278  10.866  12.170  13.656
 2480SOL    HW1 9279  10.848  12.192  13.565
 2480SOL    HW2 9280  10.899  12.251  13.695
 2481SOL     OW 9281   2.911   4.245  11.719
 2481SOL    HW1 9282   2.950   4.315  11.771
 2481SOL    HW2 9283   2.958   4.249  11.635
 2482SOL     OW 9284   4.288   1.006   9.050
 2482SOL    HW1 9285   4.324   1.025   9.136
 2482SOL    HW2 9286   4.363   1.007   8.991
 2483SOL     OW 9287  13.083   6.040   1.400
 2483SOL    HW1 9288  13.070   6.022   1.493
 2483SOL    HW2 9289  13.043   6.126   1.386
 2484SOL     OW 9290   8.225  14.672   9.758
 2484SOL    HW1 9291   8.173  14.749   9.783
 2484SOL    HW2 9292   8.175  14.597   9.791
 2485SOL     OW 9293   4.485  14.822  13.711
 2485SOL    HW1 9294   4.442  14.736  13.705
 2485SOL    HW2 9295   4.511  14.828  13.803
 2486SOL     OW 9296   6.518   8.628  10.753
 2486SOL    HW1 9297   6.461   8.694  10.793
 2486SOL    HW2 9298   6.589   8.617  10.817
 2487SOL     OW 9299   0.953   7.071   9.139
 2487SOL    HW1 9300   0.912   7.158   9.139
 2487SOL    HW2 9301   0.902   7.021   9.202
 2488SOL     OW 9302   9.159   0.722  11.180
 2488SOL    HW1 9303   9.246   0.689  11.156
 2488SOL    HW2 9304   9.145   0.692  11.269
 2489SOL     OW 9305  12.007   5.182  13.938
 2489SOL    HW1 9306  12.100   5.202  13.929
 2489SOL    HW2 9307  11.983   5.142  13.854
 2490SOL     OW 9308   4.661   8.665   7.986
 2490SOL    HW1 9309   4.587   8.612   7.956
 2490SOL    HW2 9310   4.648   8.673   8.081
 2491SOL     OW 9311   2.841   8.603   6.165
 2491SOL    HW1 9312   2.804   8.593   6.077
 2491SOL    HW2 9313   2.849   8.513   6.198
 2492SOL     OW 9314   3.227   4.206  13.574
 2492SOL    HW1 9315   3.176   4.125  13.575
 2492SOL    HW2 9316   3.292   4.195  13.643
 2493SOL     OW 9317  13.106   1.189   7.512
 2493SOL    HW1 9318  13.153   1.219   7.590
 2493SOL    HW2 9319  13.174   1.149   7.457
 2494SOL     OW 9320  10.802   6.063  11.925
 2494SOL    HW1 9321  10.718   6.095  11.957
 2494SOL    HW2 9322  10.839   6.015  11.999
 2495SOL     OW 9323  11.324   3.092  12.323
 2495SOL    HW1 9324  11.333   3.187  12.327
 2495SOL    HW2 9325  11.296   3.074  12.233
 2496SOL     OW 9326   4.768   1.516   3.945
 2496SOL    HW1 9327   4.707   1.564   4.001
 2496SOL    HW2 9328   4.822   1.466   4.007
 2497SOL     OW 9329  11.386   4.786  11.883
 2497SOL    HW1 9330  11.311   4.836  11.914
 2497SOL    HW2 9331  11.461   4.824  11.929
 2498SOL     OW 9332   0.637   2.387   1.026
 2498SOL    HW1 9333   0.662   2.477   1.006
 2498SOL    HW2 9334   0.550   2.377   0.988
 2499SOL     OW 9335   8.706  11.486  14.789
 2499SOL    HW1 9336   8.702  11.407  14.842
 2499SOL    HW2 9337   8.773  11.541  14.830
 2500SOL     OW 9338   2.547   8.956  10.849
 2500SOL    HW1 9339   2.454   8.959  10.826
 2500SOL    HW2 9340   2.547   8.934  10.943
 2501SOL     OW 9341   5.285  10.436   7.208
 2501SOL    HW1 9342   5.332  10.364   7.250
 2501SOL    HW2 9343   5.268  10.498   7.279
 2502SOL     OW 9344  13.417   9.804   1.756
 2502SOL    HW1 9345  13.444   9.725   1.803
 2502SOL    HW2 9346  13.425   9.782   1.664
 2503SOL     OW 9347   8.403   3.983   5.873
 2503SOL    HW1 9348   8.445   3.972   5.788
 2503SOL    HW2 9349   8.316   4.016   5.852
 2504SOL     OW 9350  10.446   6.434  10.896
 2504SOL    HW1 9351  10.449   6.528  10.877
 2504SOL    HW2 9352  10.469   6.428  10.989
 2505SOL     OW 9353  11.735   5.069   4.971
 2505SOL    HW1 9354  11.739   5.153   4.927
 2505SOL    HW2 9355  11.760   5.005   4.904
 2506SOL     OW 9356   3.922  10.846   3.839
 2506SOL    HW1 9357   3.863  10.785   3.794
 2506SOL    HW2 9358   3.993  10.790   3.872
 2507SOL     OW 9359   3.229   2.183  10.518
 2507SOL    HW1 9360   3.311   2.191  10.469
 2507SOL    HW2 9361   3.167   2.238  10.470
 2508SOL     OW 9362   1.250  11.927  10.058
 2508SOL    HW1 9363   1.158  11.953  10.061
 2508SOL    HW2 9364   1.298  12.008  10.077
 2509SOL     OW 9365   5.989  12.933  12.573
 2509SOL    HW1 9366   6.059  12.909  12.512
 2509SOL    HW2 9367   6.004  13.026  12.591
 2510SOL     OW 9368  13.777   6.522   7.141
 2510SOL    HW1 9369  13.686   6.495   7.151
 2510SOL    HW2 9370  13.785   6.549   7.050
 2511SOL     OW 9371   1.928   2.553   7.152
 2511SOL    HW1 9372   1.913   2.459   7.152
 2511SOL    HW2 9373   1.843   2.591   7.174
 2512SOL     OW 9374   0.020  13.886   5.298
 2512SOL    HW1 9375  14.860  13.800   5.287
 2512SOL    HW2 9376   0.108  13.874   5.263
 2513SOL     OW 9377  12.261   7.052   4.998
 2513SOL    HW1 9378  12.269   7.148   4.999
 2513SOL    HW2 9379  12.295   7.024   5.082
 2514SOL     OW 9380   8.389  11.523   9.247
 2514SOL    HW1 9381   8.408  11.617   9.248
 2514SOL    HW2 9382   8.465  11.483   9.205
 2515SOL     OW 9383   6.168  14.811   3.423
 2515SOL    HW1 9384   6.244  14.864   3.449
 2515SOL    HW2 9385   6.094  14.852   3.468
 2516SOL     OW 9386   5.890  14.703  10.994
 2516SOL    HW1 9387   5.935  14.729  11.075
 2516SOL    HW2 9388   5.946  14.635  10.956
 2517SOL     OW 9389   5.041   8.828   9.350
 2517SOL    HW1 9390   5.090   8.754   9.385
 2517SOL    HW2 9391   5.074   8.904   9.396
 2518SOL     OW 9392   6.801   0.595  12.194
 2518SOL    HW1 9393   6.768   0.540  12.123
 2518SOL    HW2 9394   6.810   0.536  12.268
 2519SOL     OW 9395   6.044   0.324   9.942
 2519SOL    HW1 9396   6.080   0.313  10.030
 2519SOL    HW2 9397   5.991   0.404   9.947
 2520SOL     OW 9398  10.659   9.087  14.484
 2520SOL    HW1 9399  10.713   9.158  14.520
 2520SOL    HW2 9400  10.590   9.132  14.435
 2521SOL     OW 9401  10.713  14.338   2.602
 2521SOL    HW1 9402  10.661  14.258   2.607
 2521SOL    HW2 9403  10.698  14.382   2.686
 2522SOL     OW 9404   7.929   1.208  11.800
 2522SOL    HW1 9405   7.931   1.164  11.885
 2522SOL    HW2 9406   7.909   1.300  11.821
 2523SOL     OW 9407   2.951   4.205   8.010
 2523SOL    HW1 9408   2.898   4.226   7.933
 2523SOL    HW2 9409   2.964   4.110   8.004
 2524SOL     OW 9410  10.045   9.302   3.238
 2524SOL    HW1 9411  10.141   9.294   3.239
 2524SOL    HW2 9412  10.027   9.383   3.285
 2525SOL     OW 9413  11.906   1.783  14.464
 2525SOL    HW1 9414  11.946   1.817  14.383
 2525SOL    HW2 9415  11.895   1.860  14.519
 2526SOL     OW 9416   1.529   0.986   4.218
 2526SOL    HW1 9417   1.498   1.067   4.259
 2526SOL    HW2 9418   1.513   0.918   4.283
 2527SOL     OW 9419   0.352   4.890   7.900
 2527SOL    HW1 9420   0.418   4.823   7.918
 2527SOL    HW2 9421   0.326   4.921   7.986
 2528SOL     OW 9422   1.164   8.541   8.541
 2528SOL    HW1 9423   1.202   8.579   8.621
 2528SOL    HW2 9424   1.172   8.610   8.476
 2529SOL     OW 9425   7.168   8.020   2.320
 2529SOL    HW1 9426   7.190   7.984   2.406
 2529SOL    HW2 9427   7.131   7.946   2.272
 2530SOL     OW 9428  10.198  13.625  11.123
 2530SOL    HW1 9429  10.215  13.710  11.083
 2530SOL    HW2 9430  10.268  13.568  11.089
 2531SOL     OW 9431   1.209   5.638   4.458
 2531SOL    HW1 9432   1.260   5.675   4.531
 2531SOL    HW2 9433   1.275   5.604   4.398
 2532SOL     OW 9434   2.125   2.760   8.261
 2532SOL    HW1 9435   2.110   2.855   8.255
 2532SOL    HW2 9436   2.167   2.738   8.178
 2533SOL     OW 9437  14.260   3.955   8.865
 2533SOL    HW1 9438  14.181   3.956   8.918
 2533SOL    HW2 9439  14.324   3.907   8.918
 2534SOL     OW 9440   4.046   5.070   0.169
 2534SOL    HW1 9441   4.128   5.090   0.214
 2534SOL    HW2 9442   3.986   5.044   0.238
 2535SOL     OW 9443   2.249  11.883   2.237
 2535SOL    HW1 9444   2.302  11.963   2.241
 2535SOL    HW2 9445   2.231  11.871   2.144
 2536SOL     OW 9446   8.311  12.359  12.670
 2536SOL    HW1 9447   8.257  12.301  12.724
 2536SOL    HW2 9448   8.308  12.320  12.583
 2537SOL     OW 9449  10.728   7.335  14.432
 2537SOL    HW1 9450  10.791   7.407  14.424
 2537SOL    HW2 9451  10.779   7.257  14.409
 2538SOL     OW 9452  14.070   9.444  12.206
 2538SOL    HW1 9453  14.118   9.500  12.145
 2538SOL    HW2 9454  14.031   9.377  12.151
 2539SOL     OW 9455   5.809  13.949  11.150
 2539SOL    HW1 9456   5.815  14.005  11.227
 2539SOL    HW2 9457   5.720  13.964  11.117
 2540SOL     OW 9458   2.341  10.050   1.223
 2540SOL    HW1 9459   2.297   9.968   1.201
 2540SOL    HW2 9460   2.366  10.040   1.315
 2541SOL     OW 9461   6.619   4.992   6.523
 2541SOL    HW1 9462   6.568   4.962   6.447
 2541SOL    HW2 9463   6.557   4.987   6.596
 2542SOL     OW 9464   3.220   9.276   3.732
 2542SOL    HW1 9465   3.145   9.304   3.679
 2542SOL    HW2 9466   3.236   9.185   3.706
 2543SOL     OW 9467  14.054   3.266   6.434
 2543SOL    HW1 9468  14.128   3.212   6.408
 2543SOL    HW2 9469  14.073   3.292   6.524
 2544SOL     OW 9470  10.623   5.467  11.662
 2544SOL    HW1 9471  10.705   5.463  11.614
 2544SOL    HW2 9472  10.648   5.501  11.748
 2545SOL     OW 9473   4.095   4.933   0.401
 2545SOL    HW1 9474   4.176   4.881   0.401
 2545SOL    HW2 9475   4.124   5.023   0.416
 2546SOL     OW 9476   5.806  12.738   4.121
 2546SOL    HW1 9477   5.897  12.739   4.091
 2546SOL    HW2 9478   5.777  12.828   4.111
 2547SOL     OW 9479   3.859  11.332  11.445
 2547SOL    HW1 9480   3.899  11.294  11.367
 2547SOL    HW2 9481   3.847  11.424  11.424
 2548SOL     OW 9482   4.534   3.672  11.986
 2548SOL    HW1 9483   4.605   3.609  11.970
 2548SOL    HW2 9484   4.545   3.739  11.919
 2549SOL     OW 9485   3.525   8.984   7.640
 2549SOL    HW1 9486   3.535   9.027   7.555
 2549SOL    HW2 9487   3.527   8.890   7.619
 2550SOL     OW 9488   6.080   5.931   7.082
 2550SOL    HW1 9489   6.027   5.998   7.039
 2550SOL    HW2 9490   6.041   5.848   7.052
 2551SOL     OW 9491   8.598  10.318   4.166
 2551SOL    HW1 9492   8.513  10.340   4.204
 2551SOL    HW2 9493   8.636  10.255   4.227
 2552SOL     OW 9494  11.121  11.840   9.593
 2552SOL    HW1 9495  11.099  11.842   9.685
 2552SOL    HW2 9496  11.217  11.842   9.591
 2553SOL     OW 9497   3.926  12.940   8.665
 2553SOL    HW1 9498   3.882  12.869   8.711
 2553SOL    HW2 9499   3.970  12.898   8.591
 2554SOL     OW 9500   9.981   5.310   0.235
 2554SOL    HW1 9501   9.981   5.325   0.330
 2554SOL    HW2 9502   9.940   5.224   0.225
 2555SOL     OW 9503   5.968  13.331   4.333
 2555SOL    HW1 9504   6.048  13.374   4.365
 2555SOL    HW2 9505   5.936  13.388   4.264
 2556SOL     OW 9506  13.757   2.876  10.798
 2556SOL    HW1 9507  13.767   2.878  10.703
 2556SOL    HW2 9508  13.723   2.963  10.820
 2557SOL     OW 9509  13.746  12.000  12.412
 2557SOL    HW1 9510  13.728  12.092  12.430
 2557SOL    HW2 9511  13.773  11.998  12.320
 2558SOL     OW 9512  11.187   8.212   2.374
 2558SOL    HW1 9513  11.144   8.278   2.428
 2558SOL    HW2 9514  11.177   8.245   2.284
 2559SOL     OW 9515   4.894  14.602  13.826
 2559SOL    HW1 9516   4.801  14.603  13.849
 2559SOL    HW2 9517   4.938  14.569  13.904
 2560SOL     OW 9518   1.182  10.630   6.487
 2560SOL    HW1 9519   1.173  10.603   6.395
 2560SOL    HW2 9520   1.172  10.725   6.485
 2561SOL     OW 9521   0.330   4.732   4.804
 2561SOL    HW1 9522   0.330   4.748   4.710
 2561SOL    HW2 9523   0.415   4.765   4.834
 2562SOL     OW 9524  11.706   0.274   5.206
 2562SOL    HW1 9525  11.729   0.365   5.225
 2562SOL    HW2 9526  11.610   0.270   5.216
 2563SOL     OW 9527   3.141   6.579   3.851
 2563SOL    HW1 9528   3.173   6.608   3.936
 2563SOL    HW2 9529   3.219   6.550   3.804
 2564SOL     OW 9530  10.991   4.454   1.724
 2564SOL    HW1 9531  10.957   4.539   1.696
 2564SOL    HW2 9532  10.913   4.406   1.752
 2565SOL     OW 9533   7.114   0.433  12.272
 2565SOL    HW1 9534   7.037   0.433  12.328
 2565SOL    HW2 9535   7.080   0.455  12.185
 2566SOL     OW 9536   9.806   7.962   9.376
 2566SOL    HW1 9537   9.727   7.966   9.431
 2566SOL    HW2 9538   9.867   8.023   9.419
 2567SOL     OW 9539   3.379   1.659   9.318
 2567SOL    HW1 9540   3.412   1.677   9.230
 2567SOL    HW2 9541   3.418   1.728   9.373
 2568SOL     OW 9542   7.029   8.601  14.252
 2568SOL    HW1 9543   7.026   8.517  14.298
 2568SOL    HW2 9544   6.951   8.602  14.197
 2569SOL     OW 9545  10.497   2.715   8.463
 2569SOL    HW1 9546  10.589   2.697   8.484
 2569SOL    HW2 9547  10.468   2.636   8.416
 2570SOL     OW 9548  12.631   1.890   4.273
 2570SOL    HW1 9549  12.723   1.896   4.246
 2570SOL    HW2 9550  12.614   1.972   4.318
 2571SOL     OW 9551  11.293   3.733   2.478
 2571SOL    HW1 9552  11.260   3.669   2.414
 2571SOL    HW2 9553  11.336   3.680   2.545
 2572SOL     OW 9554  11.999   9.322   9.591
 2572SOL    HW1 9555  12.019   9.232   9.617
 2572SOL    HW2 9556  12.083   9.367   9.595
 2573SOL     OW 9557   3.464  10.500   4.268
 2573SOL    HW1 9558   3.418  10.584   4.273
 2573SOL    HW2 9559   3.408  10.439   4.316
 2574SOL     OW 9560   7.487   2.949   5.026
 2574SOL    HW1 9561   7.546   2.881   5.058
 2574SOL    HW2 9562   7.430   2.904   4.963
 2575SOL     OW 9563   8.313   8.815  10.262
 2575SOL    HW1 9564   8.310   8.728  10.222
 2575SOL    HW2 9565   8.243   8.864  10.219
 2576SOL     OW 9566   3.744   1.467   2.795
 2576SOL    HW1 9567   3.752   1.372   2.784
 2576SOL    HW2 9568   3.688   1.495   2.723
 2577SOL     OW 9569  12.014   1.305   1.239
 2577SOL    HW1 9570  11.982   1.386   1.198
 2577SOL    HW2 9571  12.017   1.325   1.332
 2578SOL     OW 9572   3.075  12.394   0.514
 2578SOL    HW1 9573   3.039  12.376   0.601
 2578SOL    HW2 9574   3.029  12.473   0.485
 2579SOL     OW 9575   4.155   1.476  13.273
 2579SOL    HW1 9576   4.082   1.522  13.233
 2579SOL    HW2 9577   4.150   1.387  13.238
 2580SOL     OW 9578  10.768   9.086   4.597
 2580SOL    HW1 9579  10.840   9.127   4.549
 2580SOL    HW2 9580  10.689   9.126   4.561
 2581SOL     OW 9581  13.821   7.536   9.764
 2581SOL    HW1 9582  13.822   7.474   9.692
 2581SOL    HW2 9583  13.906   7.525   9.807
 2582SOL     OW 9584  13.878  13.103  13.106
 2582SOL    HW1 9585  13.946  13.170  13.113
 2582SOL    HW2 9586  13.847  13.109  13.016
 2583SOL     OW 9587   8.858   3.196   7.262
 2583SOL    HW1 9588   8.799   3.271   7.250
 2583SOL    HW2 9589   8.943   3.228   7.233
 2584SOL     OW 9590  10.636   1.014   0.338
 2584SOL    HW1 9591  10.713   1.023   0.281
 2584SOL    HW2 9592  10.661   1.060   0.419
 2585SOL     OW 9593   2.704   1.594  10.265
 2585SOL    HW1 9594   2.652   1.673  10.250
 2585SOL    HW2 9595   2.651   1.541  10.325
 2586SOL     OW 9596   6.841   3.129   7.682
 2586SOL    HW1 9597   6.745   3.129   7.680
 2586SOL    HW2 9598   6.865   3.037   7.694
 2587SOL     OW 9599   6.254   7.009   8.920
 2587SOL    HW1 9600   6.329   6.960   8.886
 2587SOL    HW2 9601   6.198   6.943   8.961
 2588SOL     OW 9602  11.527   0.923  13.509
 2588SOL    HW1 9603  11.566   0.836  13.507
 2588SOL    HW2 9604  11.531   0.953  13.419
 2589SOL     OW 9605   0.369   5.792   6.889
 2589SOL    HW1 9606   0.403   5.881   6.876
 2589SOL    HW2 9607   0.441   5.745   6.930
 2590SOL     OW 9608   1.638   3.011   1.633
 2590SOL    HW1 9609   1.622   3.049   1.720
 2590SOL    HW2 9610   1.734   3.010   1.626
 2591SOL     OW 9611   0.566   5.308  10.684
 2591SOL    HW1 9612   0.586   5.288  10.593
 2591SOL    HW2 9613   0.508   5.237  10.712
 2592SOL     OW 9614  12.683   6.608  10.504
 2592SOL    HW1 9615  12.591   6.599  10.526
 2592SOL    HW2 9616  12.684   6.662  10.424
 2593SOL     OW 9617   2.036  14.163  12.757
 2593SOL    HW1 9618   2.117  14.167  12.807
 2593SOL    HW2 9619   1.982  14.233  12.793
 2594SOL     OW 9620   2.410  12.472  13.885
 2594SOL    HW1 9621   2.460  12.531  13.828
 2594SOL    HW2 9622   2.390  12.396  13.830
 2595SOL     OW 9623  14.524   4.330   7.431
 2595SOL    HW1 9624  14.445   4.340   7.484
 2595SOL    HW2 9625  14.540   4.418   7.396
 2596SOL     OW 9626  14.585   7.186   6.646
 2596SOL    HW1 9627  14.611   7.205   6.736
 2596SOL    HW2 9628  14.605   7.093   6.635
 2597SOL     OW 9629  11.614   3.195  10.330
 2597SOL    HW1 9630  11.670   3.142  10.274
 2597SOL    HW2 9631  11.568   3.131  10.385
 2598SOL     OW 9632   1.101   8.976   4.056
 2598SOL    HW1 9633   1.072   8.951   3.969
 2598SOL    HW2 9634   1.197   8.979   4.049
 2599SOL     OW 9635  10.124   3.236  13.981
 2599SOL    HW1 9636  10.212   3.205  13.960
 2599SOL    HW2 9637  10.071   3.156  13.983
 2600SOL     OW 9638   2.739  11.102   7.673
 2600SOL    HW1 9639   2.744  11.037   7.603
 2600SOL    HW2 9640   2.789  11.064   7.745
 2601SOL     OW 9641  12.611  14.204   5.394
 2601SOL    HW1 9642  12.603  14.120   5.440
 2601SOL    HW2 9643  12.552  14.263   5.442
 2602SOL     OW 9644   7.791  10.226  14.340
 2602SOL    HW1 9645   7.698  10.248  14.333
 2602SOL    HW2 9646   7.823  10.229  14.250
 2603SOL     OW 9647   4.567  10.788   2.018
 2603SOL    HW1 9648   4.643  10.830   2.058
 2603SOL    HW2 9649   4.583  10.794   1.924
 2604SOL     OW 9650   8.752  12.237   5.277
 2604SOL    HW1 9651   8.800  12.279   5.206
 2604SOL    HW2 9652   8.744  12.145   5.250
 2605SOL     OW 9653  11.809   9.222  10.719
 2605SOL    HW1 9654  11.731   9.236  10.665
 2605SOL    HW2 9655  11.881   9.258  10.667
 2606SOL     OW 9656  12.770  11.615   7.820
 2606SOL    HW1 9657  12.818  11.688   7.860
 2606SOL    HW2 9658  12.796  11.539   7.871
 2607SOL     OW 9659  10.184  12.134   8.267
 2607SOL    HW1 9660  10.104  12.129   8.320
 2607SOL    HW2 9661  10.217  12.223   8.282
 2608SOL     OW 9662   6.916  14.108   0.396
 2608SOL    HW1 9663   7.002  14.099   0.438
 2608SOL    HW2 9664   6.858  14.051   0.448
 2609SOL     OW 9665   2.347  14.269   0.457
 2609SOL    HW1 9666   2.417  14.331   0.480
 2609SOL    HW2 9667   2.347  14.268   0.362
 2610SOL     OW 9668   7.842   1.796   4.665
 2610SOL    HW1 9669   7.816   1.828   4.751
 2610SOL    HW2 9670   7.896   1.866   4.628
 2611SOL     OW 9671   3.721   8.876   0.650
 2611SOL    HW1 9672   3.676   8.793   0.634
 2611SOL    HW2 9673   3.659   8.927   0.702
 2612SOL     OW 9674   7.440  13.858   1.813
 2612SOL    HW1 9675   7.504  13.829   1.748
 2612SOL    HW2 9676   7.465  13.813   1.893
 2613SOL     OW 9677  10.924   9.558   6.285
 2613SOL    HW1 9678  10.836   9.593   6.296
 2613SOL    HW2 9679  10.912   9.464   6.278
 2614SOL     OW 9680   4.587   4.378   8.165
 2614SOL    HW1 9681   4.660   4.316   8.171
 2614SOL    HW2 9682   4.513   4.324   8.138
 2615SOL     OW 9683   4.135  11.696  14.295
 2615SOL    HW1 9684   4.177  11.755  14.233
 2615SOL    HW2 9685   4.141  11.742  14.379
 2616SOL     OW 9686   0.845   8.134  10.983
 2616SOL    HW1 9687   0.853   8.222  10.945
 2616SOL    HW2 9688   0.757   8.105  10.958
 2617SOL     OW 9689  11.546  14.711   9.777
 2617SOL    HW1 9690  11.560  14.619   9.797
 2617SOL    HW2 9691  11.628  14.754   9.804
 2618SOL     OW 9692   0.205  10.746   0.795
 2618SOL    HW1 9693   0.269  10.700   0.741
 2618SOL    HW2 9694   0.136  10.772   0.733
 2619SOL     OW 9695   4.602   2.634   2.936
 2619SOL    HW1 9696   4.544   2.558   2.949
 2619SOL    HW2 9697   4.688   2.595   2.922
 2620SOL     OW 9698  12.409   9.983   7.503
 2620SOL    HW1 9699  12.352  10.024   7.438
 2620SOL    HW2 9700  12.354   9.973   7.581
 2621SOL     OW 9701  10.985   8.177  12.492
 2621SOL    HW1 9702  10.900   8.217  12.509
 2621SOL    HW2 9703  10.994   8.110  12.560
 2622SOL     OW 9704   5.083  11.895   5.902
 2622SOL    HW1 9705   5.164  11.880   5.853
 2622SOL    HW2 9706   5.054  11.808   5.927
 2623SOL     OW 9707   2.785  14.240   7.029
 2623SOL    HW1 9708   2.767  14.220   6.937
 2623SOL    HW2 9709   2.708  14.207   7.076
 2624SOL     OW 9710   0.261   0.221  12.742
 2624SOL    HW1 9711   0.175   0.208  12.702
 2624SOL    HW2 9712   0.272   0.145  12.799
 2625SOL     OW 9713   9.340   4.467  13.234
 2625SOL    HW1 9714   9.285   4.522  13.290
 2625SOL    HW2 9715   9.395   4.530  13.187
 2626SOL     OW 9716   6.709   2.917  11.996
 2626SOL    HW1 9717   6.759   2.837  12.014
 2626SOL    HW2 9718   6.776   2.982  11.975
 2627SOL     OW 9719   1.264   7.355   4.670
 2627SOL    HW1 9720   1.258   7.277   4.614
 2627SOL    HW2 9721   1.246   7.428   4.611
 2628SOL     OW 9722   7.773   1.597   8.822
 2628SOL    HW1 9723   7.770   1.691   8.841
 2628SOL    HW2 9724   7.685   1.577   8.790
 2629SOL     OW 9725   4.832   4.954  14.060
 2629SOL    HW1 9726   4.863   4.865  14.077
 2629SOL    HW2 9727   4.747   4.942  14.018
 2630SOL     OW 9728   0.732   9.233   1.337
 2630SOL    HW1 9729   0.636   9.226   1.333
 2630SOL    HW2 9730   0.763   9.170   1.272
 2631SOL     OW 9731   4.380  13.882  12.941
 2631SOL    HW1 9732   4.368  13.791  12.912
 2631SOL    HW2 9733   4.457  13.878  12.998
 2632SOL     OW 9734   4.100   0.701   0.140
 2632SOL    HW1 9735   4.113   0.763   0.212
 2632SOL    HW2 9736   4.172   0.718   0.080
 2633SOL     OW 9737  11.541   0.212  14.037
 2633SOL    HW1 9738  11.563   0.251  13.952
 2633SOL    HW2 9739  11.489   0.135  14.015
 2634SOL     OW 9740   7.579   0.530   6.139
 2634SOL    HW1 9741   7.657   0.506   6.190
 2634SOL    HW2 9742   7.549   0.611   6.179
 2635SOL     OW 9743   0.274   5.031   8.140
 2635SOL    HW1 9744   0.259   4.985   8.222
 2635SOL    HW2 9745   0.368   5.044   8.136
 2636SOL     OW 9746   5.464   1.718   9.296
 2636SOL    HW1 9747   5.498   1.774   9.366
 2636SOL    HW2 9748   5.375   1.751   9.279
 2637SOL     OW 9749   3.171  12.469   7.022
 2637SOL    HW1 9750   3.253  12.420   7.024
 2637SOL    HW2 9751   3.198  12.560   7.010
 2638SOL     OW 9752  14.005   1.858   4.841
 2638SOL    HW1 9753  13.969   1.878   4.928
 2638SOL    HW2 9754  14.020   1.763   4.843
 2639SOL     OW 9755  12.527  10.963   9.661
 2639SOL    HW1 9756  12.583  10.989   9.589
 2639SOL    HW2 9757  12.521  11.041   9.717
 2640SOL     OW 9758  11.176   0.176  11.384
 2640SOL    HW1 9759  11.185   0.092  11.429
 2640SOL    HW2 9760  11.082   0.194  11.387
 2641SOL     OW 9761   7.097  10.873   1.665
 2641SOL    HW1 9762   7.006  10.880   1.636
 2641SOL    HW2 9763   7.139  10.951   1.629
 2642SOL     OW 9764  13.530   7.557   9.327
 2642SOL    HW1 9765  13.612   7.511   9.308
 2642SOL    HW2 9766  13.551   7.613   9.402
 2643SOL     OW 9767  12.705   8.174   1.591
 2643SOL    HW1 9768  12.795   8.142   1.592
 2643SOL    HW2 9769  12.689   8.204   1.681
 2644SOL     OW 9770  10.946   9.796  14.128
 2644SOL    HW1 9771  10.962   9.720  14.072
 2644SOL    HW2 9772  10.987   9.774  14.212
 2645SOL     OW 9773   3.950   3.469   6.949
 2645SOL    HW1 9774   4.001   3.448   7.027
 2645SOL    HW2 9775   3.982   3.408   6.882
 2646SOL     OW 9776   1.360  14.021   4.287
 2646SOL    HW1 9777   1.315  13.948   4.244
 2646SOL    HW2 9778   1.292  14.086   4.303
 2647SOL     OW 9779  12.881   1.324   1.867
 2647SOL    HW1 9780  12.950   1.319   1.801
 2647SOL    HW2 9781  12.923   1.362   1.944
 2648SOL     OW 9782   4.183   7.082  10.952
 2648SOL    HW1 9783   4.194   7.165  10.999
 2648SOL    HW2 9784   4.104   7.044  10.991
 2649SOL     OW 9785   4.892   8.801  14.705
 2649SOL    HW1 9786   4.947   8.879  14.695
 2649SOL    HW2 9787   4.923   8.742  14.637
 2650SOL     OW 9788   1.128   8.080   1.719
 2650SOL    HW1 9789   1.182   8.012   1.758
 2650SOL    HW2 9790   1.186   8.123   1.656
 2651SOL     OW 9791   9.947   3.676   5.502
 2651SOL    HW1 9792   9.950   3.708   5.592
 2651SOL    HW2 9793   9.854   3.664   5.483
 2652SOL     OW 9794   5.165   5.569   4.369
 2652SOL    HW1 9795   5.162   5.486   4.323
 2652SOL    HW2 9796   5.238   5.616   4.330
 2653SOL     OW 9797  11.195   6.157  12.638
 2653SOL    HW1 9798  11.275   6.202  12.666
 2653SOL    HW2 9799  11.226   6.074  12.601
 2654SOL     OW 9800  10.755   6.560   9.894
 2654SOL    HW1 9801  10.667   6.594   9.879
 2654SOL    HW2 9802  10.750   6.519   9.981
 2655SOL     OW 9803  13.466   2.552  11.469
 2655SOL    HW1 9804  13.476   2.594  11.554
 2655SOL    HW2 9805  13.385   2.588  11.434
 2656SOL     OW 9806   4.128   6.232   0.622
 2656SOL    HW1 9807   4.181   6.239   0.542
 2656SOL    HW2 9808   4.181   6.273   0.690
 2657SOL     OW 9809  12.858   8.205   8.784
 2657SOL    HW1 9810  12.788   8.145   8.808
 2657SOL    HW2 9811  12.873   8.256   8.864
 2658SOL     OW 9812  13.327   6.843   1.850
 2658SOL    HW1 9813  13.309   6.870   1.760
 2658SOL    HW2 9814  13.390   6.771   1.841
 2659SOL     OW 9815  10.155  13.245  12.631
 2659SOL    HW1 9816  10.080  13.198  12.596
 2659SOL    HW2 9817  10.161  13.325  12.579
 2660SOL     OW 9818  11.340  13.667   4.311
 2660SOL    HW1 9819  11.349  13.751   4.266
 2660SOL    HW2 9820  11.380  13.604   4.252
 2661SOL     OW 9821   1.987   0.648  10.949
 2661SOL    HW1 9822   2.003   0.591  11.025
 2661SOL    HW2 9823   1.956   0.588  10.881
 2662SOL     OW 9824  13.759  10.176   7.694
 2662SOL    HW1 9825  13.743  10.263   7.658
 2662SOL    HW2 9826  13.804  10.193   7.777
 2663SOL     OW 9827   1.507   6.281  11.512
 2663SOL    HW1 9828   1.587   6.236  11.537
 2663SOL    HW2 9829   1.457   6.287  11.594
 2664SOL     OW 9830   8.824  14.539   6.945
 2664SOL    HW1 9831   8.903  14.485   6.943
 2664SOL    HW2 9832   8.796  14.539   7.036
 2665SOL     OW 9833  13.531   2.355   7.684
 2665SOL    HW1 9834  13.438   2.332   7.675
 2665SOL    HW2 9835  13.560   2.309   7.763
 2666SOL     OW 9836   6.769  10.263   5.595
 2666SOL    HW1 9837   6.817  10.343   5.615
 2666SOL    HW2 9838   6.717  10.285   5.517
 2667SOL     OW 9839   6.642  13.095  11.782
 2667SOL    HW1 9840   6.573  13.030  11.770
 2667SOL    HW2 9841   6.669  13.085  11.873
 2668SOL     OW 9842  12.565   6.487  11.829
 2668SOL    HW1 9843  12.637   6.517  11.885
 2668SOL    HW2 9844  12.608   6.461  11.747
 2669SOL     OW 9845   8.461   7.240   1.251
 2669SOL    HW1 9846   8.380   7.189   1.257
 2669SOL    HW2 9847   8.461   7.275   1.162
 2670SOL     OW 9848   4.660  10.794   5.731
 2670SOL    HW1 9849   4.614  10.816   5.812
 2670SOL    HW2 9850   4.591  10.758   5.674
 2671SOL     OW 9851   3.323   6.028   9.377
 2671SOL    HW1 9852   3.272   5.966   9.429
 2671SOL    HW2 9853   3.322   5.992   9.288
 2672SOL     OW 9854  11.290  11.394   4.280
 2672SOL    HW1 9855  11.274  11.377   4.187
 2672SOL    HW2 9856  11.301  11.489   4.286
 2673SOL     OW 9857  10.494   3.821  10.345
 2673SOL    HW1 9858  10.525   3.865  10.424
 2673SOL    HW2 9859  10.568   3.825  10.284
 2674SOL     OW 9860   6.111  11.825   6.442
 2674SOL    HW1 9861   6.145  11.826   6.352
 2674SOL    HW2 9862   6.069  11.740   6.452
 2675SOL     OW 9863   4.039   0.701   7.356
 2675SOL    HW1 9864   4.104   0.635   7.380
 2675SOL    HW2 9865   3.964   0.650   7.325
 2676SOL     OW 9866  11.629   8.222   0.644
 2676SOL    HW1 9867  11.591   8.134   0.647
 2676SOL    HW2 9868  11.716   8.209   0.605
 2677SOL     OW 9869  12.114   4.628   1.745
 2677SOL    HW1 9870  12.090   4.718   1.767
 2677SOL    HW2 9871  12.038   4.593   1.698
 2678SOL     OW 9872   7.717   7.872   6.131
 2678SOL    HW1 9873   7.783   7.925   6.087
 2678SOL    HW2 9874   7.748   7.782   6.122
 2679SOL     OW 9875   7.421  11.800  12.102
 2679SOL    HW1 9876   7.328  11.821  12.105
 2679SOL    HW2 9877   7.431  11.726  12.161
 2680SOL     OW 9878   2.795   9.263  10.977
 2680SOL    HW1 9879   2.715   9.295  10.936
 2680SOL    HW2 9880   2.848   9.342  10.990
 2681SOL     OW 9881   4.577   8.414  10.032
 2681SOL    HW1 9882   4.622   8.330  10.035
 2681SOL    HW2 9883   4.632   8.472  10.084
 2682SOL     OW 9884   2.207   1.971  12.859
 2682SOL    HW1 9885   2.248   2.057  12.868
 2682SOL    HW2 9886   2.265   1.912  12.908
 2683SOL     OW 9887   8.996   1.943  13.829
 2683SOL    HW1 9888   9.067   2.006  13.816
 2683SOL    HW2 9889   8.922   1.980  13.781
 2684SOL     OW 9890  12.725   7.673  10.990
 2684SOL    HW1 9891  12.722   7.754  11.041
 2684SOL    HW2 9892  12.799   7.684  10.931
 2685SOL     OW 9893   9.980  14.053   8.807
 2685SOL    HW1 9894   9.956  13.980   8.750
 2685SOL    HW2 9895  10.068  14.030   8.839
 2686SOL     OW 9896   7.397  13.076   4.966
 2686SOL    HW1 9897   7.362  13.110   5.049
 2686SOL    HW2 9898   7.411  13.155   4.913
 2687SOL     OW 9899  13.352   9.662   3.278
 2687SOL    HW1 9900  13.434   9.629   3.243
 2687SOL    HW2 9901  13.286   9.636   3.214
 2688SOL     OW 9902   0.251   5.193   7.122
 2688SOL    HW1 9903   0.268   5.133   7.194
 2688SOL    HW2 9904   0.236   5.136   7.046
 2689SOL     OW 9905  12.780   7.793   8.662
 2689SOL    HW1 9906  12.807   7.883   8.644
 2689SOL    HW2 9907  12.737   7.765   8.582
 2690SOL     OW 9908   9.955  11.333   2.576
 2690SOL    HW1 9909   9.869  11.314   2.613
 2690SOL    HW2 9910   9.987  11.407   2.627
 2691SOL     OW 9911   4.089   5.564  12.743
 2691SOL    HW1 9912   4.149   5.522  12.804
 2691SOL    HW2 9913   4.043   5.492  12.700
 2692SOL     OW 9914   1.708   1.754  11.713
 2692SOL    HW1 9915   1.797   1.734  11.744
 2692SOL    HW2 9916   1.674   1.817  11.776
 2693SOL     OW 9917   4.567   4.551   8.856
 2693SOL    HW1 9918   4.567   4.519   8.946
 2693SOL    HW2 9919   4.486   4.601   8.848
 2694SOL     OW 9920   0.758   1.357   0.935
 2694SOL    HW1 9921   0.709   1.431   0.900
 2694SOL    HW2 9922   0.692   1.300   0.974
 2695SOL     OW 9923   0.142   4.960   0.527
 2695SOL    HW1 9924   0.089   5.017   0.583
 2695SOL    HW2 9925   0.128   4.872   0.563
 2696SOL     OW 9926   0.788   5.510   9.211
 2696SOL    HW1 9927   0.857   5.524   9.146
 2696SOL    HW2 9928   0.767   5.598   9.243
 2697SOL     OW 9929  10.898   9.055   1.138
 2697SOL    HW1 9930  10.837   9.128   1.151
 2697SOL    HW2 9931  10.876   8.991   1.205
 2698SOL     OW 9932   2.083   9.133   8.537
 2698SOL    HW1 9933   2.019   9.124   8.607
 2698SOL    HW2 9934   2.132   9.051   8.537
 2699SOL     OW 9935   4.746   0.056   1.008
 2699SOL    HW1 9936   4.761   0.150   1.024
 2699SOL    HW2 9937   4.772   0.043   0.917
 2700SOL     OW 9938   3.013   5.972   3.183
 2700SOL    HW1 9939   2.944   5.976   3.116
 2700SOL    HW2 9940   3.000   6.052   3.235
 2701SOL     OW 9941   1.074   6.354   4.422
 2701SOL    HW1 9942   1.155   6.324   4.381
 2701SOL    HW2 9943   1.005   6.322   4.364
 2702SOL     OW 9944   3.338  14.775  10.324
 2702SOL    HW1 9945   3.278  14.775  10.398
 2702SOL    HW2 9946   3.417  14.733  10.358
 2703SOL     OW 9947  14.018   4.060  10.567
 2703SOL    HW1 9948  14.017   4.140  10.514
 2703SOL    HW2 9949  13.991   4.090  10.654
 2704SOL     OW 9950  11.191   7.928   7.562
 2704SOL    HW1 9951  11.208   7.890   7.648
 2704SOL    HW2 9952  11.252   8.001   7.556
 2705SOL     OW 9953  12.787   0.552   9.533
 2705SOL    HW1 9954  12.697   0.521   9.542
 2705SOL    HW2 9955  12.829   0.529   9.616
 2706SOL     OW 9956   4.781  11.095   4.267
 2706SOL    HW1 9957   4.757  11.059   4.181
 2706SOL    HW2 9958   4.698  11.125   4.304
 2707SOL     OW 9959   8.998   4.113  14.106
 2707SOL    HW1 9960   9.029   4.055  14.036
 2707SOL    HW2 9961   8.905   4.126  14.087
 2708SOL     OW 9962   6.046   5.949  13.150
 2708SOL    HW1 9963   6.064   6.029  13.200
 2708SOL    HW2 9964   6.054   5.976  13.058
 2709SOL     OW 9965   2.209   9.636   0.806
 2709SOL    HW1 9966   2.142   9.579   0.769
 2709SOL    HW2 9967   2.253   9.582   0.872
 2710SOL     OW 9968  14.532   0.615   2.022
 2710SOL    HW1 9969  14.567   0.703   2.007
 2710SOL    HW2 9970  14.458   0.628   2.081
 2711SOL     OW 9971   3.461  10.830  11.787
 2711SOL    HW1 9972   3.488  10.808  11.697
 2711SOL    HW2 9973   3.480  10.923  11.796
 2712SOL     OW 9974  14.355   5.969  11.557
 2712SOL    HW1 9975  14.362   6.019  11.638
 2712SOL    HW2 9976  14.409   5.891  11.572
 2713SOL     OW 9977  12.330  14.551  11.566
 2713SOL    HW1 9978  12.376  14.563  11.649
 2713SOL    HW2 9979  12.390  14.501  11.512
 2714SOL     OW 9980   3.252   0.238   2.648
 2714SOL    HW1 9981   3.219   0.277   2.567
 2714SOL    HW2 9982   3.329   0.291   2.671
 2715SOL     OW 9983  11.556   5.364   0.278
 2715SOL    HW1 9984  11.581   5.432   0.341
 2715SOL    HW2 9985  11.639   5.339   0.237
 2716SOL     OW 9986   4.314   1.882  13.280
 2716SOL    HW1 9987   4.250   1.948  13.305
 2716SOL    HW2 9988   4.268   1.828  13.215
 2717SOL     OW 9989   6.353  12.705   2.576
 2717SOL    HW1 9990   6.314  12.772   2.632
 2717SOL    HW2 9991   6.328  12.622   2.617
 2718SOL     OW 9992   7.483   2.154  11.896
 2718SOL    HW1 9993   7.550   2.212  11.932
 2718SOL    HW2 9994   7.404   2.175  11.946
 2719SOL     OW 9995  11.292   1.751   3.800
 2719SOL    HW1 9996  11.378   1.724   3.834
 2719SOL    HW2 9997  11.247   1.668   3.781
 2720SOL     OW 9998  11.215  12.696  13.656
 2720SOL    HW1 9999  11.242  12.771  13.709
 2720SOL    HW210000  11.278  12.627  13.679
 2721SOL     OW10001   6.765  11.741  14.416
 2721SOL    HW110002   6.730  11.747  14.327
 2721SOL    HW210003   6.709  11.676  14.459
 2722SOL     OW10004   5.067  14.630   5.098
 2722SOL    HW110005   5.064  14.691   5.172
 2722SOL    HW210006   4.999  14.660   5.038
 2723SOL     OW10007   0.338   1.440   3.636
 2723SOL    HW110008   0.400   1.441   3.563
 2723SOL    HW210009   0.268   1.499   3.608
 2724SOL     OW10010   9.468   3.728   6.810
 2724SOL    HW110011   9.404   3.731   6.739
 2724SOL    HW210012   9.541   3.782   6.778
 2725SOL     OW10013   7.568   4.813   9.895
 2725SOL    HW110014   7.594   4.905   9.899
 2725SOL    HW210015   7.620   4.776   9.824
 2726SOL     OW10016   0.055   4.307  14.873
 2726SOL    HW110017   0.150   4.316  14.864
 2726SOL    HW210018   0.031   4.234  14.816
 2727SOL     OW10019   2.642   7.603   8.434
 2727SOL    HW110020   2.687   7.684   8.457
 2727SOL    HW210021   2.653   7.595   8.339
 2728SOL     OW10022  10.389  12.872  13.854
 2728SOL    HW110023  10.474  12.910  13.829
 2728SOL    HW210024  10.326  12.912  13.794
 2729SOL     OW10025   6.094  13.115   7.512
 2729SOL    HW110026   6.054  13.074   7.435
 2729SOL    HW210027   6.024  13.121   7.576
 2730SOL     OW10028   5.993   0.801  14.492
 2730SOL    HW110029   5.970   0.835  14.405
 2730SOL    HW210030   6.088   0.811  14.497
 2731SOL     OW10031   9.440   2.673   8.683
 2731SOL    HW110032   9.454   2.767   8.674
 2731SOL    HW210033   9.391   2.648   8.605
 2732SOL     OW10034  13.329  11.550  10.300
 2732SOL    HW110035  13.415  11.589  10.286
 2732SOL    HW210036  13.285  11.611  10.359
 2733SOL     OW10037  12.735   9.711  12.642
 2733SOL    HW110038  12.682   9.633  12.660
 2733SOL    HW210039  12.726   9.724  12.548
 2734SOL     OW10040   0.546   2.702   2.017
 2734SOL    HW110041   0.507   2.631   2.068
 2734SOL    HW210042   0.622   2.730   2.068
 2735SOL     OW10043   0.199  10.469   7.142
 2735SOL    HW110044   0.246  10.388   7.161
 2735SOL    HW210045   0.259  10.539   7.168
 2736SOL     OW10046  11.427  10.469  10.534
 2736SOL    HW110047  11.408  10.497  10.623
 2736SOL    HW210048  11.478  10.388  10.545
 2737SOL     OW10049   5.093   1.965   6.589
 2737SOL    HW110050   5.020   2.014   6.550
 2737SOL    HW210051   5.142   2.031   6.638
 2738SOL     OW10052   9.040  11.814  14.328
 2738SOL    HW110053   8.958  11.771  14.351
 2738SOL    HW210054   9.094  11.745  14.291
 2739SOL     OW10055  12.693  10.492   6.756
 2739SOL    HW110056  12.700  10.526   6.846
 2739SOL    HW210057  12.733  10.405   6.759
 2740SOL     OW10058  14.721  14.293   2.448
 2740SOL    HW110059  14.803  14.245   2.455
 2740SOL    HW210060  14.676  14.277   2.531
 2741SOL     OW10061   4.363  11.016   5.819
 2741SOL    HW110062   4.319  10.932   5.830
 2741SOL    HW210063   4.402  11.011   5.731
 2742SOL     OW10064  12.655   7.922  10.367
 2742SOL    HW110065  12.696   7.892  10.449
 2742SOL    HW210066  12.591   7.987  10.395
 2743SOL     OW10067  10.167   4.121   8.588
 2743SOL    HW110068  10.080   4.149   8.617
 2743SOL    HW210069  10.183   4.170   8.508
 2744SOL     OW10070   9.223  12.387   0.270
 2744SOL    HW110071   9.234  12.296   0.242
 2744SOL    HW210072   9.142  12.415   0.227
 2745SOL     OW10073   6.055   8.400   2.321
 2745SOL    HW110074   6.060   8.455   2.399
 2745SOL    HW210075   5.962   8.382   2.310
 2746SOL     OW10076  14.042  13.195   0.306
 2746SOL    HW110077  13.947  13.190   0.312
 2746SOL    HW210078  14.068  13.242   0.386
 2747SOL     OW10079  10.475   4.613   0.480
 2747SOL    HW110080  10.550   4.600   0.539
 2747SOL    HW210081  10.411   4.548   0.508
 2748SOL     OW10082  13.132   7.878   5.192
 2748SOL    HW110083  13.111   7.969   5.169
 2748SOL    HW210084  13.133   7.832   5.108
 2749SOL     OW10085   1.951   2.657  14.289
 2749SOL    HW110086   1.908   2.737  14.258
 2749SOL    HW210087   2.042   2.666  14.261
 2750SOL     OW10088   8.292   5.406   2.633
 2750SOL    HW110089   8.348   5.330   2.621
 2750SOL    HW210090   8.276   5.439   2.545
 2751SOL     OW10091  10.521   6.294   2.940
 2751SOL    HW110092  10.535   6.388   2.950
 2751SOL    HW210093  10.452   6.287   2.873
 2752SOL     OW10094   7.051  13.850   5.325
 2752SOL    HW110095   7.016  13.921   5.379
 2752SOL    HW210096   7.135  13.828   5.365
 2753SOL     OW10097   9.307   5.638   6.057
 2753SOL    HW110098   9.378   5.575   6.063
 2753SOL    HW210099   9.276   5.631   5.967
 2754SOL     OW10100   5.758  14.624   8.513
 2754SOL    HW110101   5.704  14.588   8.444
 2754SOL    HW210102   5.759  14.556   8.581
 2755SOL     OW10103   1.920   5.345   6.474
 2755SOL    HW110104   1.900   5.420   6.418
 2755SOL    HW210105   1.968   5.285   6.417
 2756SOL     OW10106   2.259   8.685  10.765
 2756SOL    HW110107   2.345   8.695  10.722
 2756SOL    HW210108   2.231   8.775  10.781
 2757SOL     OW10109   6.472  10.809   3.949
 2757SOL    HW110110   6.462  10.901   3.925
 2757SOL    HW210111   6.448  10.761   3.871
 2758SOL     OW10112   1.140   1.230  10.850
 2758SOL    HW110113   1.059   1.181  10.861
 2758SOL    HW210114   1.149   1.280  10.932
 2759SOL     OW10115   3.003   9.697   6.512
 2759SOL    HW110116   2.977   9.787   6.496
 2759SOL    HW210117   2.954   9.646   6.447
 2760SOL     OW10118   9.293  13.581  12.908
 2760SOL    HW110119   9.276  13.636  12.832
 2760SOL    HW210120   9.389  13.574  12.911
 2761SOL     OW10121  12.879   9.774   7.318
 2761SOL    HW110122  12.973   9.790   7.308
 2761SOL    HW210123  12.850   9.841   7.380
 2762SOL     OW10124   5.287  14.571  11.080
 2762SOL    HW110125   5.210  14.568  11.138
 2762SOL    HW210126   5.251  14.556  10.993
 2763SOL     OW10127   3.293   1.550   6.348
 2763SOL    HW110128   3.375   1.563   6.302
 2763SOL    HW210129   3.285   1.455   6.357
 2764SOL     OW10130   4.137   4.696   6.876
 2764SOL    HW110131   4.112   4.729   6.963
 2764SOL    HW210132   4.216   4.745   6.854
 2765SOL     OW10133  12.920   6.496   6.398
 2765SOL    HW110134  13.001   6.460   6.362
 2765SOL    HW210135  12.939   6.589   6.411
 2766SOL     OW10136  14.163  14.074   9.556
 2766SOL    HW110137  14.096  14.113   9.612
 2766SOL    HW210138  14.212  14.016   9.614
 2767SOL     OW10139  11.170   9.084   5.185
 2767SOL    HW110140  11.223   9.027   5.240
 2767SOL    HW210141  11.082   9.047   5.190
 2768SOL     OW10142  14.543   3.683  14.287
 2768SOL    HW110143  14.518   3.748  14.221
 2768SOL    HW210144  14.588   3.615  14.237
 2769SOL     OW10145   9.500  10.946   9.978
 2769SOL    HW110146   9.425  10.900  10.014
 2769SOL    HW210147   9.507  11.026  10.031
 2770SOL     OW10148  13.440  12.378  13.207
 2770SOL    HW110149  13.501  12.314  13.246
 2770SOL    HW210150  13.493  12.456  13.192
 2771SOL     OW10151   1.534  11.995   3.293
 2771SOL    HW110152   1.574  11.908   3.290
 2771SOL    HW210153   1.541  12.028   3.203
 2772SOL     OW10154   2.799   0.352   8.449
 2772SOL    HW110155   2.815   0.303   8.530
 2772SOL    HW210156   2.768   0.438   8.478
 2773SOL     OW10157  10.153   8.586   3.912
 2773SOL    HW110158  10.144   8.576   3.817
 2773SOL    HW210159  10.239   8.628   3.923
 2774SOL     OW10160  12.030   2.316  12.558
 2774SOL    HW110161  11.943   2.284  12.532
 2774SOL    HW210162  12.081   2.237  12.573
 2775SOL     OW10163   3.430   7.932   3.605
 2775SOL    HW110164   3.514   7.955   3.567
 2775SOL    HW210165   3.383   7.887   3.535
 2776SOL     OW10166   1.180   0.900   8.780
 2776SOL    HW110167   1.095   0.941   8.795
 2776SOL    HW210168   1.243   0.971   8.792
 2777SOL     OW10169   7.883  13.294   5.542
 2777SOL    HW110170   7.793  13.299   5.508
 2777SOL    HW210171   7.879  13.340   5.626
 2778SOL     OW10172  13.333  12.372   1.194
 2778SOL    HW110173  13.370  12.335   1.274
 2778SOL    HW210174  13.303  12.459   1.220
 2779SOL     OW10175   7.399   7.650   7.827
 2779SOL    HW110176   7.350   7.613   7.754
 2779SOL    HW210177   7.332   7.685   7.886
 2780SOL     OW10178  10.563   8.575   0.499
 2780SOL    HW110179  10.481   8.547   0.460
 2780SOL    HW210180  10.541   8.597   0.590
 2781SOL     OW10181  13.592  10.498   5.787
 2781SOL    HW110182  13.550  10.412   5.783
 2781SOL    HW210183  13.641  10.504   5.705
 2782SOL     OW10184   1.542  14.872   9.412
 2782SOL    HW110185   1.575   0.061   9.357
 2782SOL    HW210186   1.591  14.795   9.382
 2783SOL     OW10187  14.541  10.846   0.207
 2783SOL    HW110188  14.627  10.804   0.215
 2783SOL    HW210189  14.505  10.810   0.126
 2784SOL     OW10190   6.694  11.089   3.714
 2784SOL    HW110191   6.602  11.078   3.690
 2784SOL    HW210192   6.724  11.001   3.735
 2785SOL     OW10193   4.309   7.845   2.029
 2785SOL    HW110194   4.305   7.820   1.937
 2785SOL    HW210195   4.311   7.941   2.028
 2786SOL     OW10196  14.869   6.606   3.608
 2786SOL    HW110197   0.046   6.584   3.536
 2786SOL    HW210198   0.036   6.669   3.661
 2787SOL     OW10199  11.352   0.248   8.443
 2787SOL    HW110200  11.406   0.172   8.462
 2787SOL    HW210201  11.262   0.215   8.447
 2788SOL     OW10202   3.070   4.367  14.670
 2788SOL    HW110203   3.092   4.320  14.751
 2788SOL    HW210204   2.983   4.335  14.647
 2789SOL     OW10205   8.129   7.365   4.155
 2789SOL    HW110206   8.064   7.422   4.197
 2789SOL    HW210207   8.210   7.382   4.203
 2790SOL     OW10208   5.096   8.149   8.578
 2790SOL    HW110209   5.024   8.198   8.618
 2790SOL    HW210210   5.166   8.213   8.569
 2791SOL     OW10211   2.034   6.449  12.663
 2791SOL    HW110212   1.952   6.450  12.713
 2791SOL    HW210213   2.064   6.540  12.664
 2792SOL     OW10214  10.285   3.737  10.198
 2792SOL    HW110215  10.364   3.738  10.251
 2792SOL    HW210216  10.272   3.829  10.172
 2793SOL     OW10217   1.495   5.474   9.121
 2793SOL    HW110218   1.556   5.548   9.111
 2793SOL    HW210219   1.408   5.513   9.114
 2794SOL     OW10220   1.067   4.387  14.380
 2794SOL    HW110221   1.048   4.475  14.348
 2794SOL    HW210222   0.986   4.357  14.421
 2795SOL     OW10223  14.088  12.670   9.994
 2795SOL    HW110224  14.082  12.722   9.914
 2795SOL    HW210225  14.125  12.586   9.966
 2796SOL     OW10226  13.828   0.667   3.277
 2796SOL    HW110227  13.917   0.687   3.249
 2796SOL    HW210228  13.791   0.615   3.206
 2797SOL     OW10229   4.574  12.721   1.902
 2797SOL    HW110230   4.644  12.657   1.914
 2797SOL    HW210231   4.499  12.669   1.873
 2798SOL     OW10232  11.597  12.472  11.760
 2798SOL    HW110233  11.549  12.446  11.839
 2798SOL    HW210234  11.540  12.537  11.718
 2799SOL     OW10235  12.553  11.505   8.270
 2799SOL    HW110236  12.610  11.471   8.340
 2799SOL    HW210237  12.575  11.451   8.194
 2800SOL     OW10238   7.153  12.977  10.268
 2800SOL    HW110239   7.215  12.904  10.267
 2800SOL    HW210240   7.201  13.049  10.307
 2801SOL     OW10241   3.144   9.388   5.519
 2801SOL    HW110242   3.101   9.353   5.598
 2801SOL    HW210243   3.112   9.478   5.514
 2802SOL     OW10244  10.948  11.659   9.309
 2802SOL    HW110245  10.901  11.684   9.229
 2802SOL    HW210246  11.029  11.710   9.305
 2803SOL     OW10247   7.740   5.178  13.873
 2803SOL    HW110248   7.684   5.255  13.885
 2803SOL    HW210249   7.763   5.179  13.780
 2804SOL     OW10250   9.662   6.026   2.393
 2804SOL    HW110251   9.721   6.089   2.351
 2804SOL    HW210252   9.575   6.055   2.368
 2805SOL     OW10253   5.449   1.629   0.067
 2805SOL    HW110254   5.392   1.663   0.136
 2805SOL    HW210255   5.396   1.632  14.870
 2806SOL     OW10256   8.556   7.708   5.121
 2806SOL    HW110257   8.549   7.801   5.098
 2806SOL    HW210258   8.523   7.662   5.043
 2807SOL     OW10259   9.666   0.209   7.203
 2807SOL    HW110260   9.648   0.303   7.191
 2807SOL    HW210261   9.707   0.182   7.121
 2808SOL     OW10262   7.747  14.465  14.305
 2808SOL    HW110263   7.825  14.422  14.271
 2808SOL    HW210264   7.708  14.507  14.229
 2809SOL     OW10265   5.648   0.832   4.894
 2809SOL    HW110266   5.652   0.749   4.846
 2809SOL    HW210267   5.671   0.809   4.984
 2810SOL     OW10268  10.304   9.521   2.317
 2810SOL    HW110269  10.218   9.514   2.359
 2810SOL    HW210270  10.362   9.554   2.385
 2811SOL     OW10271  10.274   1.028   4.333
 2811SOL    HW110272  10.199   0.973   4.312
 2811SOL    HW210273  10.351   0.973   4.314
 2812SOL     OW10274  12.736   9.799   5.224
 2812SOL    HW110275  12.787   9.747   5.286
 2812SOL    HW210276  12.778   9.784   5.139
 2813SOL     OW10277   5.079   0.825   3.885
 2813SOL    HW110278   5.155   0.801   3.831
 2813SOL    HW210279   5.077   0.921   3.883
 2814SOL     OW10280  13.247  11.609  12.123
 2814SOL    HW110281  13.306  11.661  12.069
 2814SOL    HW210282  13.281  11.519  12.115
 2815SOL     OW10283   6.001  11.131   4.794
 2815SOL    HW110284   6.079  11.084   4.763
 2815SOL    HW210285   5.974  11.184   4.719
 2816SOL     OW10286  13.332   5.940  14.500
 2816SOL    HW110287  13.360   5.931  14.591
 2816SOL    HW210288  13.373   6.021  14.470
 2817SOL     OW10289  11.211  12.695  13.373
 2817SOL    HW110290  11.168  12.617  13.338
 2817SOL    HW210291  11.224  12.676  13.466
 2818SOL     OW10292   3.848  11.656   0.200
 2818SOL    HW110293   3.842  11.592   0.129
 2818SOL    HW210294   3.757  11.676   0.222
 2819SOL     OW10295   5.772  14.416   0.680
 2819SOL    HW110296   5.734  14.427   0.768
 2819SOL    HW210297   5.707  14.455   0.622
 2820SOL     OW10298   0.767   5.173  13.412
 2820SOL    HW110299   0.710   5.249  13.427
 2820SOL    HW210300   0.736   5.137  13.329
 2821SOL     OW10301   6.020   9.812  14.645
 2821SOL    HW110302   6.041   9.866  14.569
 2821SOL    HW210303   6.035   9.869  14.720
 2822SOL     OW10304   7.707   9.014   3.349
 2822SOL    HW110305   7.752   8.996   3.431
 2822SOL    HW210306   7.757   9.086   3.310
 2823SOL     OW10307   2.833   6.966   1.205
 2823SOL    HW110308   2.850   6.881   1.166
 2823SOL    HW210309   2.920   7.005   1.217
 2824SOL     OW10310  12.673   0.006   0.171
 2824SOL    HW110311  12.708   0.030   0.085
 2824SOL    HW210312  12.712   0.070   0.231
 2825SOL     OW10313  13.509   4.240   8.024
 2825SOL    HW110314  13.548   4.319   7.987
 2825SOL    HW210315  13.557   4.168   7.984
 2826SOL     OW10316  12.928  13.416   4.395
 2826SOL    HW110317  12.860  13.379   4.338
 2826SOL    HW210318  12.884  13.427   4.480
 2827SOL     OW10319   4.337   9.141   6.385
 2827SOL    HW110320   4.311   9.058   6.425
 2827SOL    HW210321   4.391   9.183   6.452
 2828SOL     OW10322  12.059  13.915  11.985
 2828SOL    HW110323  12.056  13.905  11.890
 2828SOL    HW210324  12.101  14.000  11.999
 2829SOL     OW10325   4.103  12.421   9.272
 2829SOL    HW110326   4.144  12.353   9.324
 2829SOL    HW210327   4.118  12.394   9.181
 2830SOL     OW10328   9.505  14.726   1.991
 2830SOL    HW110329   9.565  14.801   1.988
 2830SOL    HW210330   9.434  14.755   2.049
 2831SOL     OW10331   0.034   7.985   0.252
 2831SOL    HW110332   0.055   8.054   0.315
 2831SOL    HW210333   0.102   7.919   0.266
 2832SOL     OW10334   0.486   1.173  10.115
 2832SOL    HW110335   0.469   1.099  10.174
 2832SOL    HW210336   0.574   1.202  10.139
 2833SOL     OW10337  10.574   9.210   3.018
 2833SOL    HW110338  10.491   9.168   3.043
 2833SOL    HW210339  10.600   9.165   2.937
 2834SOL     OW10340   0.534  12.575   7.591
 2834SOL    HW110341   0.529  12.498   7.534
 2834SOL    HW210342   0.619  12.568   7.633
 2835SOL     OW10343  13.057  11.995   9.420
 2835SOL    HW110344  13.151  12.008   9.430
 2835SOL    HW210345  13.034  11.929   9.485
 2836SOL     OW10346   9.800  10.904  12.516
 2836SOL    HW110347   9.747  10.837  12.558
 2836SOL    HW210348   9.739  10.973  12.493
 2837SOL     OW10349   0.137  10.114  14.238
 2837SOL    HW110350   0.128  10.207  14.260
 2837SOL    HW210351   0.208  10.083  14.295
 2838SOL     OW10352   6.673   8.869   7.889
 2838SOL    HW110353   6.703   8.870   7.980
 2838SOL    HW210354   6.605   8.936   7.886
 2839SOL     OW10355   0.944  14.141   1.585
 2839SOL    HW110356   0.916  14.050   1.579
 2839SOL    HW210357   1.039  14.137   1.593
 2840SOL     OW10358  13.127   9.203  10.713
 2840SOL    HW110359  13.218   9.203  10.681
 2840SOL    HW210360  13.075   9.230  10.637
 2841SOL     OW10361   0.285   3.114   2.160
 2841SOL    HW110362   0.331   3.069   2.089
 2841SOL    HW210363   0.196   3.079   2.155
 2842SOL     OW10364  12.493   9.381   0.415
 2842SOL    HW110365  12.571   9.338   0.448
 2842SOL    HW210366  12.473   9.449   0.479
 2843SOL     OW10367   9.700   4.170   4.000
 2843SOL    HW110368   9.642   4.139   4.070
 2843SOL    HW210369   9.702   4.265   4.011
 2844SOL     OW10370   1.467   5.636   3.303
 2844SOL    HW110371   1.411   5.559   3.307
 2844SOL    HW210372   1.407   5.709   3.319
 2845SOL     OW10373  14.643   3.839   6.696
 2845SOL    HW110374  14.736   3.861   6.693
 2845SOL    HW210375  14.622   3.810   6.607
 2846SOL     OW10376  11.553   0.663   1.453
 2846SOL    HW110377  11.488   0.612   1.404
 2846SOL    HW210378  11.637   0.625   1.429
 2847SOL     OW10379  11.581   3.610   3.375
 2847SOL    HW110380  11.600   3.678   3.310
 2847SOL    HW210381  11.645   3.541   3.357
 2848SOL     OW10382  11.484   9.250  13.980
 2848SOL    HW110383  11.433   9.323  13.944
 2848SOL    HW210384  11.483   9.265  14.075
 2849SOL     OW10385  10.518   3.446  10.008
 2849SOL    HW110386  10.571   3.523  10.026
 2849SOL    HW210387  10.457   3.474   9.940
 2850SOL     OW10388   4.597   9.879   3.624
 2850SOL    HW110389   4.511   9.840   3.606
 2850SOL    HW210390   4.639   9.885   3.538
 2851SOL     OW10391   6.044   4.974   3.671
 2851SOL    HW110392   6.110   4.970   3.601
 2851SOL    HW210393   5.975   5.030   3.636
 2852SOL     OW10394   5.582   2.142   1.362
 2852SOL    HW110395   5.628   2.096   1.291
 2852SOL    HW210396   5.581   2.234   1.335
 2853SOL     OW10397  12.226   1.020   6.173
 2853SOL    HW110398  12.179   1.081   6.117
 2853SOL    HW210399  12.239   0.942   6.119
 2854SOL     OW10400   1.060   4.252   4.712
 2854SOL    HW110401   1.067   4.212   4.799
 2854SOL    HW210402   0.967   4.241   4.689
 2855SOL     OW10403   0.954   3.795   2.003
 2855SOL    HW110404   1.024   3.731   2.015
 2855SOL    HW210405   0.957   3.848   2.083
 2856SOL     OW10406  10.407   8.310  10.439
 2856SOL    HW110407  10.487   8.268  10.408
 2856SOL    HW210408  10.337   8.250  10.413
 2857SOL     OW10409  13.285   2.601   8.816
 2857SOL    HW110410  13.264   2.529   8.875
 2857SOL    HW210411  13.229   2.673   8.845
 2858SOL     OW10412  13.893   8.972  12.443
 2858SOL    HW110413  13.803   8.986  12.413
 2858SOL    HW210414  13.947   9.019  12.380
 2859SOL     OW10415   8.519   9.060   1.832
 2859SOL    HW110416   8.601   9.016   1.857
 2859SOL    HW210417   8.469   8.993   1.787
 2860SOL     OW10418  11.051  11.482   2.843
 2860SOL    HW110419  11.067  11.425   2.919
 2860SOL    HW210420  11.073  11.570   2.875
 2861SOL     OW10421   5.837   6.288  12.665
 2861SOL    HW110422   5.823   6.284  12.760
 2861SOL    HW210423   5.873   6.375  12.649
 2862SOL     OW10424   9.325   8.425   7.407
 2862SOL    HW110425   9.346   8.386   7.492
 2862SOL    HW210426   9.231   8.410   7.397
 2863SOL     OW10427   8.242  14.161   1.722
 2863SOL    HW110428   8.249  14.249   1.685
 2863SOL    HW210429   8.329  14.143   1.758
 2864SOL     OW10430   1.808  10.524   2.435
 2864SOL    HW110431   1.809  10.620   2.427
 2864SOL    HW210432   1.770  10.507   2.521
 2865SOL     OW10433   1.626   9.206   7.687
 2865SOL    HW110434   1.717   9.228   7.706
 2865SOL    HW210435   1.624   9.192   7.592
 2866SOL     OW10436   3.583   8.551  11.030
 2866SOL    HW110437   3.545   8.470  10.995
 2866SOL    HW210438   3.512   8.591  11.080
 2867SOL     OW10439   3.769   3.046  12.985
 2867SOL    HW110440   3.839   2.986  12.961
 2867SOL    HW210441   3.814   3.130  13.000
 2868SOL     OW10442  10.348   9.293   7.151
 2868SOL    HW110443  10.385   9.215   7.110
 2868SOL    HW210444  10.378   9.288   7.241
 2869SOL     OW10445   7.116   4.280  10.532
 2869SOL    HW110446   7.105   4.199  10.483
 2869SOL    HW210447   7.080   4.348  10.474
 2870SOL     OW10448   8.933   6.726   4.037
 2870SOL    HW110449   8.998   6.658   4.052
 2870SOL    HW210450   8.857   6.679   4.003
 2871SOL     OW10451   0.648  12.628   5.753
 2871SOL    HW110452   0.731  12.632   5.705
 2871SOL    HW210453   0.658  12.690   5.825
 2872SOL     OW10454  14.534  13.218   8.116
 2872SOL    HW110455  14.485  13.250   8.191
 2872SOL    HW210456  14.488  13.139   8.088
 2873SOL     OW10457   0.281  13.619   9.877
 2873SOL    HW110458   0.329  13.536   9.882
 2873SOL    HW210459   0.193  13.594   9.849
 2874SOL     OW10460  10.834   5.480   0.845
 2874SOL    HW110461  10.894   5.410   0.823
 2874SOL    HW210462  10.817   5.524   0.762
 2875SOL     OW10463  13.165  11.171   1.588
 2875SOL    HW110464  13.094  11.228   1.559
 2875SOL    HW210465  13.241  11.200   1.537
 2876SOL     OW10466  11.554   0.706  11.098
 2876SOL    HW110467  11.514   0.627  11.134
 2876SOL    HW210468  11.600   0.746  11.171
 2877SOL     OW10469   3.933  14.663  11.922
 2877SOL    HW110470   3.862  14.721  11.897
 2877SOL    HW210471   4.011  14.719  11.925
 2878SOL     OW10472   6.488   8.345   8.400
 2878SOL    HW110473   6.493   8.302   8.486
 2878SOL    HW210474   6.486   8.272   8.338
 2879SOL     OW10475   1.559   5.571   6.751
 2879SOL    HW110476   1.628   5.631   6.723
 2879SOL    HW210477   1.559   5.576   6.846
 2880SOL     OW10478   6.556  11.458  11.528
 2880SOL    HW110479   6.464  11.439  11.547
 2880SOL    HW210480   6.605  11.409  11.594
 2881SOL     OW10481  12.589  10.788   9.850
 2881SOL    HW110482  12.572  10.844   9.774
 2881SOL    HW210483  12.599  10.700   9.813
 2882SOL     OW10484   8.726  11.952   6.075
 2882SOL    HW110485   8.810  11.916   6.045
 2882SOL    HW210486   8.680  11.877   6.113
 2883SOL     OW10487   7.800  10.583   5.311
 2883SOL    HW110488   7.844  10.547   5.387
 2883SOL    HW210489   7.863  10.645   5.273
 2884SOL     OW10490   2.202  14.510   4.306
 2884SOL    HW110491   2.139  14.492   4.237
 2884SOL    HW210492   2.269  14.564   4.265
 2885SOL     OW10493  13.659   9.913  10.227
 2885SOL    HW110494  13.745   9.952  10.244
 2885SOL    HW210495  13.627   9.959  10.149
 2886SOL     OW10496   7.271   2.232   3.168
 2886SOL    HW110497   7.212   2.178   3.219
 2886SOL    HW210498   7.266   2.319   3.208
 2887SOL     OW10499   9.231  11.051   1.042
 2887SOL    HW110500   9.277  11.015   1.118
 2887SOL    HW210501   9.255  10.994   0.969
 2888SOL     OW10502   9.853   9.838   2.075
 2888SOL    HW110503   9.760   9.842   2.097
 2888SOL    HW210504   9.856   9.794   1.990
 2889SOL     OW10505   9.234   0.921   8.123
 2889SOL    HW110506   9.200   0.987   8.062
 2889SOL    HW210507   9.236   0.965   8.208
 2890SOL     OW10508   1.224   9.608   6.757
 2890SOL    HW110509   1.182   9.585   6.840
 2890SOL    HW210510   1.151   9.618   6.696
 2891SOL     OW10511   6.020  13.239   0.099
 2891SOL    HW110512   5.954  13.173   0.119
 2891SOL    HW210513   6.011  13.304   0.169
 2892SOL     OW10514   7.724   9.076   5.725
 2892SOL    HW110515   7.775   9.057   5.646
 2892SOL    HW210516   7.728   9.171   5.733
 2893SOL     OW10517  14.875   2.557   0.404
 2893SOL    HW110518   0.077   2.510   0.403
 2893SOL    HW210519   0.007   2.631   0.344
 2894SOL     OW10520   7.506  10.953   6.026
 2894SOL    HW110521   7.421  10.993   6.006
 2894SOL    HW210522   7.494  10.860   6.007
 2895SOL     OW10523   2.342   9.867   8.088
 2895SOL    HW110524   2.261   9.819   8.105
 2895SOL    HW210525   2.358   9.855   7.995
 2896SOL     OW10526  11.515   7.733  10.340
 2896SOL    HW110527  11.446   7.669  10.359
 2896SOL    HW210528  11.597   7.688  10.361
 2897SOL     OW10529   5.761   0.561   9.242
 2897SOL    HW110530   5.842   0.545   9.194
 2897SOL    HW210531   5.779   0.640   9.293
 2898SOL     OW10532  14.510   0.059   7.052
 2898SOL    HW110533  14.584   0.010   7.086
 2898SOL    HW210534  14.437   0.035   7.110
 2899SOL     OW10535   0.856  13.354  10.998
 2899SOL    HW110536   0.938  13.308  11.012
 2899SOL    HW210537   0.789  13.296  11.034
 2900SOL     OW10538   1.337   0.367   4.674
 2900SOL    HW110539   1.246   0.347   4.694
 2900SOL    HW210540   1.387   0.311   4.732
 2901SOL     OW10541   3.346  14.763  12.022
 2901SOL    HW110542   3.295  14.683  12.037
 2901SOL    HW210543   3.293  14.813  11.960
 2902SOL     OW10544   5.554   3.597   8.858
 2902SOL    HW110545   5.526   3.562   8.773
 2902SOL    HW210546   5.641   3.560   8.872
 2903SOL     OW10547  11.791  10.204   6.712
 2903SOL    HW110548  11.793  10.288   6.668
 2903SOL    HW210549  11.851  10.214   6.786
 2904SOL     OW10550   6.624   5.109  14.216
 2904SOL    HW110551   6.687   5.174  14.185
 2904SOL    HW210552   6.540   5.138  14.180
 2905SOL     OW10553   8.681   7.616  14.226
 2905SOL    HW110554   8.674   7.696  14.173
 2905SOL    HW210555   8.762   7.628  14.276
 2906SOL     OW10556   4.466  12.637   5.299
 2906SOL    HW110557   4.375  12.652   5.327
 2906SOL    HW210558   4.473  12.682   5.215
 2907SOL     OW10559  11.164   9.104  13.388
 2907SOL    HW110560  11.234   9.055  13.345
 2907SOL    HW210561  11.089   9.095  13.329
 2908SOL     OW10562   8.812   8.627   3.319
 2908SOL    HW110563   8.740   8.668   3.366
 2908SOL    HW210564   8.887   8.684   3.337
 2909SOL     OW10565   3.454   1.757   0.965
 2909SOL    HW110566   3.542   1.733   0.937
 2909SOL    HW210567   3.425   1.682   1.018
 2910SOL     OW10568  12.672   6.270   1.376
 2910SOL    HW110569  12.699   6.335   1.441
 2910SOL    HW210570  12.752   6.248   1.330
 2911SOL     OW10571  12.040   9.155   5.655
 2911SOL    HW110572  11.965   9.096   5.644
 2911SOL    HW210573  12.034   9.184   5.746
 2912SOL     OW10574   0.141  10.121   9.030
 2912SOL    HW110575   0.062  10.176   9.027
 2912SOL    HW210576   0.213  10.181   9.011
 2913SOL     OW10577   9.704   0.482  13.431
 2913SOL    HW110578   9.631   0.426  13.458
 2913SOL    HW210579   9.710   0.547  13.501
 2914SOL     OW10580   3.578   5.693  10.613
 2914SOL    HW110581   3.604   5.666  10.525
 2914SOL    HW210582   3.621   5.631  10.671
 2915SOL     OW10583   8.346   8.229  11.270
 2915SOL    HW110584   8.274   8.254  11.328
 2915SOL    HW210585   8.350   8.299  11.205
 2916SOL     OW10586  11.506  11.959  12.297
 2916SOL    HW110587  11.436  11.959  12.232
 2916SOL    HW210588  11.572  12.019  12.262
 2917SOL     OW10589  13.115   1.385   2.334
 2917SOL    HW110590  13.055   1.397   2.408
 2917SOL    HW210591  13.144   1.294   2.341
 2918SOL     OW10592   6.081   9.690   0.715
 2918SOL    HW110593   6.152   9.629   0.698
 2918SOL    HW210594   6.079   9.747   0.638
 2919SOL     OW10595  14.584   5.732  10.513
 2919SOL    HW110596  14.500   5.731  10.467
 2919SOL    HW210597  14.649   5.745  10.444
 2920SOL     OW10598   0.909  13.422   2.203
 2920SOL    HW110599   0.900  13.330   2.181
 2920SOL    HW210600   1.003  13.440   2.196
 2921SOL     OW10601   8.908  11.360   6.243
 2921SOL    HW110602   8.985  11.391   6.290
 2921SOL    HW210603   8.843  11.344   6.311
 2922SOL     OW10604   6.022   7.549  12.639
 2922SOL    HW110605   6.061   7.464  12.619
 2922SOL    HW210606   5.928   7.532  12.643
 2923SOL     OW10607   9.398   1.296   6.637
 2923SOL    HW110608   9.467   1.337   6.585
 2923SOL    HW210609   9.410   1.332   6.725
 2924SOL     OW10610   3.699   8.635  12.459
 2924SOL    HW110611   3.663   8.593  12.537
 2924SOL    HW210612   3.699   8.567  12.392
 2925SOL     OW10613  13.626  14.324   8.759
 2925SOL    HW110614  13.546  14.293   8.802
 2925SOL    HW210615  13.693  14.323   8.828
 2926SOL     OW10616   0.356  14.054  12.765
 2926SOL    HW110617   0.305  14.057  12.683
 2926SOL    HW210618   0.315  13.984  12.815
 2927SOL     OW10619  12.489   1.616   3.095
 2927SOL    HW110620  12.534   1.683   3.146
 2927SOL    HW210621  12.397   1.625   3.120
 2928SOL     OW10622  10.234   5.300   1.624
 2928SOL    HW110623  10.264   5.210   1.641
 2928SOL    HW210624  10.284   5.327   1.547
 2929SOL     OW10625   5.030  14.113  12.786
 2929SOL    HW110626   5.082  14.068  12.720
 2929SOL    HW210627   4.944  14.070  12.783
 2930SOL     OW10628   3.409  13.337   5.797
 2930SOL    HW110629   3.385  13.246   5.781
 2930SOL    HW210630   3.485  13.352   5.741
 2931SOL     OW10631  13.418  14.698   0.185
 2931SOL    HW110632  13.487  14.706   0.251
 2931SOL    HW210633  13.465  14.692   0.102
 2932SOL     OW10634   3.411   2.379  11.804
 2932SOL    HW110635   3.430   2.393  11.897
 2932SOL    HW210636   3.494   2.395  11.760
 2933SOL     OW10637   6.468   2.379   1.564
 2933SOL    HW110638   6.465   2.286   1.540
 2933SOL    HW210639   6.544   2.386   1.622
 2934SOL     OW10640   3.870  14.304   5.840
 2934SOL    HW110641   3.920  14.272   5.915
 2934SOL    HW210642   3.784  14.264   5.850
 2935SOL     OW10643   2.400   9.512   0.639
 2935SOL    HW110644   2.313   9.533   0.674
 2935SOL    HW210645   2.445   9.597   0.637
 2936SOL     OW10646  13.888  14.419   0.690
 2936SOL    HW110647  13.979  14.445   0.706
 2936SOL    HW210648  13.870  14.450   0.601
 2937SOL     OW10649  12.622   2.764   3.881
 2937SOL    HW110650  12.686   2.815   3.832
 2937SOL    HW210651  12.572   2.718   3.815
 2938SOL     OW10652   6.633   3.538  12.671
 2938SOL    HW110653   6.685   3.535  12.590
 2938SOL    HW210654   6.580   3.458  12.668
 2939SOL     OW10655   1.620  12.170   3.527
 2939SOL    HW110656   1.555  12.124   3.475
 2939SOL    HW210657   1.682  12.102   3.553
 2940SOL     OW10658   1.207  14.215   6.346
 2940SOL    HW110659   1.282  14.266   6.314
 2940SOL    HW210660   1.243  14.160   6.415
 2941SOL     OW10661   7.014  11.499   5.706
 2941SOL    HW110662   7.042  11.424   5.653
 2941SOL    HW210663   7.092  11.554   5.713
 2942SOL     OW10664  13.656   3.613  12.047
 2942SOL    HW110665  13.633   3.685  11.989
 2942SOL    HW210666  13.698   3.549  11.989
 2943SOL     OW10667   8.408  14.100  12.532
 2943SOL    HW110668   8.403  14.141  12.446
 2943SOL    HW210669   8.469  14.154  12.581
 2944SOL     OW10670   4.245  11.525   9.609
 2944SOL    HW110671   4.216  11.438   9.635
 2944SOL    HW210672   4.208  11.537   9.521
 2945SOL     OW10673   7.273   1.972  14.652
 2945SOL    HW110674   7.330   1.896  14.638
 2945SOL    HW210675   7.186   1.942  14.627
 2946SOL     OW10676   9.173  12.805   7.265
 2946SOL    HW110677   9.111  12.737   7.292
 2946SOL    HW210678   9.204  12.843   7.347
 2947SOL     OW10679   7.524  10.351   9.917
 2947SOL    HW110680   7.540  10.297   9.994
 2947SOL    HW210681   7.603  10.339   9.863
 2948SOL     OW10682  13.608  11.080   7.135
 2948SOL    HW110683  13.627  11.159   7.083
 2948SOL    HW210684  13.515  11.063   7.118
 2949SOL     OW10685   1.181   2.521  12.835
 2949SOL    HW110686   1.106   2.570  12.870
 2949SOL    HW210687   1.219   2.578  12.769
 2950SOL     OW10688   9.718   9.742   8.987
 2950SOL    HW110689   9.812   9.736   9.004
 2950SOL    HW210690   9.697   9.834   9.001
 2951SOL     OW10691   7.723   6.313   7.837
 2951SOL    HW110692   7.801   6.263   7.861
 2951SOL    HW210693   7.673   6.319   7.918
 2952SOL     OW10694   3.764  13.532   3.327
 2952SOL    HW110695   3.827  13.543   3.399
 2952SOL    HW210696   3.818  13.531   3.248
 2953SOL     OW10697   8.576   6.065   3.988
 2953SOL    HW110698   8.553   6.130   4.054
 2953SOL    HW210699   8.497   6.055   3.935
 2954SOL     OW10700   8.039   0.471   2.818
 2954SOL    HW110701   8.059   0.434   2.903
 2954SOL    HW210702   8.100   0.428   2.758
 2955SOL     OW10703   8.794   9.199   9.270
 2955SOL    HW110704   8.888   9.206   9.254
 2955SOL    HW210705   8.756   9.275   9.225
 2956SOL     OW10706   5.274   6.777  10.693
 2956SOL    HW110707   5.339   6.844  10.715
 2956SOL    HW210708   5.289   6.708  10.758
 2957SOL     OW10709   1.172   1.223   1.276
 2957SOL    HW110710   1.253   1.187   1.240
 2957SOL    HW210711   1.151   1.296   1.218
 2958SOL     OW10712   3.069  11.801   5.845
 2958SOL    HW110713   3.116  11.722   5.817
 2958SOL    HW210714   3.063  11.853   5.765
 2959SOL     OW10715   6.827   6.100   2.518
 2959SOL    HW110716   6.822   6.151   2.437
 2959SOL    HW210717   6.736   6.093   2.547
 2960SOL     OW10718   2.363  10.040  11.575
 2960SOL    HW110719   2.435  10.002  11.526
 2960SOL    HW210720   2.377  10.134  11.569
 2961SOL     OW10721   0.426  10.766   4.162
 2961SOL    HW110722   0.397  10.776   4.071
 2961SOL    HW210723   0.519  10.791   4.161
 2962SOL     OW10724  13.339   1.580  10.886
 2962SOL    HW110725  13.263   1.568  10.942
 2962SOL    HW210726  13.414   1.576  10.945
 2963SOL     OW10727   7.833  12.194  12.487
 2963SOL    HW110728   7.833  12.128  12.418
 2963SOL    HW210729   7.851  12.145  12.567
 2964SOL     OW10730  13.601   2.648   5.994
 2964SOL    HW110731  13.600   2.724   6.052
 2964SOL    HW210732  13.515   2.647   5.952
 2965SOL     OW10733  13.107   7.572  14.335
 2965SOL    HW110734  13.088   7.661  14.307
 2965SOL    HW210735  13.137   7.581  14.426
 2966SOL     OW10736   8.761   7.128   6.926
 2966SOL    HW110737   8.817   7.189   6.879
 2966SOL    HW210738   8.820   7.060   6.958
 2967SOL     OW10739  14.580   9.994  14.416
 2967SOL    HW110740  14.605   9.958  14.501
 2967SOL    HW210741  14.651  10.053  14.392
 2968SOL     OW10742   3.623   3.292   8.898
 2968SOL    HW110743   3.709   3.251   8.898
 2968SOL    HW210744   3.566   3.229   8.941
 2969SOL     OW10745   3.060  14.671   5.676
 2969SOL    HW110746   2.976  14.710   5.654
 2969SOL    HW210747   3.063  14.673   5.772
 2970SOL     OW10748   4.847  10.035  14.387
 2970SOL    HW110749   4.809  10.012  14.302
 2970SOL    HW210750   4.912  10.102  14.368
 2971SOL     OW10751  11.070   6.370   9.085
 2971SOL    HW110752  11.159   6.351   9.115
 2971SOL    HW210753  11.079   6.381   8.990
 2972SOL     OW10754  14.314   0.715   0.990
 2972SOL    HW110755  14.314   0.790   0.930
 2972SOL    HW210756  14.244   0.734   1.053
 2973SOL     OW10757   8.187   4.298   0.024
 2973SOL    HW110758   8.254   4.263  14.848
 2973SOL    HW210759   8.142   4.221   0.058
 2974SOL     OW10760   9.085   7.241   5.806
 2974SOL    HW110761   9.157   7.249   5.869
 2974SOL    HW210762   9.007   7.268   5.855
 2975SOL     OW10763  10.120   0.179   3.999
 2975SOL    HW110764  10.132   0.085   3.996
 2975SOL    HW210765  10.063   0.198   3.924
 2976SOL     OW10766   4.900  10.918  14.336
 2976SOL    HW110767   4.950  10.990  14.374
 2976SOL    HW210768   4.809  10.943  14.348
 2977SOL     OW10769  14.701   4.145   3.724
 2977SOL    HW110770  14.662   4.218   3.772
 2977SOL    HW210771  14.730   4.183   3.642
 2978SOL     OW10772   2.181   6.415  11.805
 2978SOL    HW110773   2.148   6.363  11.732
 2978SOL    HW210774   2.254   6.465  11.768
 2979SOL     OW10775   7.293   3.332  11.954
 2979SOL    HW110776   7.378   3.334  11.910
 2979SOL    HW210777   7.232   3.304  11.887
 2980SOL     OW10778   4.102   7.114   6.306
 2980SOL    HW110779   4.035   7.069   6.357
 2980SOL    HW210780   4.151   7.165   6.370
 2981SOL     OW10781   4.973  12.664   7.561
 2981SOL    HW110782   4.937  12.750   7.585
 2981SOL    HW210783   5.046  12.685   7.503
 2982SOL     OW10784   9.236  11.820  11.500
 2982SOL    HW110785   9.181  11.873  11.442
 2982SOL    HW210786   9.324  11.855  11.487
 2983SOL     OW10787  12.285  13.841  12.180
 2983SOL    HW110788  12.260  13.781  12.250
 2983SOL    HW210789  12.207  13.847  12.124
 2984SOL     OW10790  10.483   5.393  13.823
 2984SOL    HW110791  10.566   5.395  13.777
 2984SOL    HW210792  10.495   5.329  13.893
 2985SOL     OW10793   4.126   4.687   4.454
 2985SOL    HW110794   4.198   4.625   4.451
 2985SOL    HW210795   4.076   4.670   4.374
 2986SOL     OW10796  12.400   4.070  13.604
 2986SOL    HW110797  12.457   4.134  13.561
 2986SOL    HW210798  12.441   4.054  13.688
 2987SOL     OW10799   1.320   2.797   0.320
 2987SOL    HW110800   1.251   2.743   0.281
 2987SOL    HW210801   1.310   2.784   0.415
 2988SOL     OW10802  12.901   7.790   3.644
 2988SOL    HW110803  12.920   7.806   3.737
 2988SOL    HW210804  12.843   7.862   3.619
 2989SOL     OW10805   0.609  11.104   4.573
 2989SOL    HW110806   0.514  11.100   4.588
 2989SOL    HW210807   0.618  11.163   4.498
 2990SOL     OW10808   8.435   3.186  11.415
 2990SOL    HW110809   8.414   3.274  11.383
 2990SOL    HW210810   8.410   3.187  11.507
 2991SOL     OW10811   3.684   8.006   0.550
 2991SOL    HW110812   3.774   7.997   0.519
 2991SOL    HW210813   3.679   7.947   0.626
 2992SOL     OW10814   7.354   2.954   4.366
 2992SOL    HW110815   7.332   3.012   4.294
 2992SOL    HW210816   7.367   3.012   4.441
 2993SOL     OW10817  11.559  14.110   5.638
 2993SOL    HW110818  11.643  14.064   5.634
 2993SOL    HW210819  11.582  14.198   5.666
 2994SOL     OW10820   2.895   6.067   9.773
 2994SOL    HW110821   2.971   6.056   9.829
 2994SOL    HW210822   2.841   6.132   9.818
 2995SOL     OW10823   4.577   2.514   9.542
 2995SOL    HW110824   4.627   2.490   9.464
 2995SOL    HW210825   4.631   2.483   9.615
 2996SOL     OW10826  12.163  14.519   3.363
 2996SOL    HW110827  12.193  14.446   3.309
 2996SOL    HW210828  12.244  14.560   3.395
 2997SOL     OW10829   3.147  12.561   6.751
 2997SOL    HW110830   3.194  12.480   6.772
 2997SOL    HW210831   3.065  12.553   6.799
 2998SOL     OW10832   9.069  13.915   5.779
 2998SOL    HW110833   9.115  13.870   5.708
 2998SOL    HW210834   9.137  13.967   5.821
 2999SOL     OW10835   5.758   7.569   6.046
 2999SOL    HW110836   5.789   7.485   6.078
 2999SOL    HW210837   5.795   7.577   5.958
 3000SOL     OW10838  12.930  11.383   9.294
 3000SOL    HW110839  12.846  11.419   9.324
 3000SOL    HW210840  12.906  11.303   9.247
 3001SOL     OW10841  12.154   6.103   1.549
 3001SOL    HW110842  12.148   6.117   1.644
 3001SOL    HW210843  12.243   6.070   1.536
 3002SOL     OW10844  12.983   7.856   4.342
 3002SOL    HW110845  13.064   7.866   4.392
 3002SOL    HW210846  12.961   7.945   4.313
 3003SOL     OW10847  10.969   5.802   6.921
 3003SOL    HW110848  11.023   5.764   6.852
 3003SOL    HW210849  10.993   5.753   7.000
 3004SOL     OW10850   1.824   4.387   6.595
 3004SOL    HW110851   1.768   4.328   6.545
 3004SOL    HW210852   1.809   4.473   6.556
 3005SOL     OW10853   5.108  13.358  12.499
 3005SOL    HW110854   5.085  13.310  12.419
 3005SOL    HW210855   5.164  13.429  12.468
 3006SOL     OW10856   8.040   7.416   1.887
 3006SOL    HW110857   8.070   7.345   1.944
 3006SOL    HW210858   8.115   7.475   1.880
 3007SOL     OW10859  14.085   6.020  13.003
 3007SOL    HW110860  14.180   6.025  13.011
 3007SOL    HW210861  14.066   6.054  12.916
 3008SOL     OW10862  12.275   6.981   5.804
 3008SOL    HW110863  12.361   6.954   5.772
 3008SOL    HW210864  12.232   6.900   5.829
 3009SOL     OW10865   5.184   4.823   7.576
 3009SOL    HW110866   5.225   4.769   7.644
 3009SOL    HW210867   5.253   4.837   7.512
 3010SOL     OW10868   5.940   3.383   7.431
 3010SOL    HW110869   5.867   3.334   7.470
 3010SOL    HW210870   5.910   3.406   7.344
 3011SOL     OW10871   1.526   8.890   4.574
 3011SOL    HW110872   1.594   8.831   4.542
 3011SOL    HW210873   1.460   8.832   4.613
 3012SOL     OW10874  13.680   6.669  11.394
 3012SOL    HW110875  13.697   6.584  11.353
 3012SOL    HW210876  13.635   6.647  11.475
 3013SOL     OW10877  12.249   0.020   7.331
 3013SOL    HW110878  12.328   0.062   7.297
 3013SOL    HW210879  12.272  14.877   7.421
 3014SOL     OW10880   3.879  13.576   1.652
 3014SOL    HW110881   3.949  13.636   1.629
 3014SOL    HW210882   3.799  13.622   1.625
 3015SOL     OW10883  13.473   8.584   9.924
 3015SOL    HW110884  13.520   8.635   9.858
 3015SOL    HW210885  13.410   8.645   9.962
 3016SOL     OW10886  13.189   7.531   1.058
 3016SOL    HW110887  13.133   7.504   1.131
 3016SOL    HW210888  13.169   7.623   1.045
 3017SOL     OW10889   8.809   3.664   1.171
 3017SOL    HW110890   8.857   3.746   1.162
 3017SOL    HW210891   8.760   3.656   1.089
 3018SOL     OW10892   8.652   0.918   3.617
 3018SOL    HW110893   8.642   0.918   3.712
 3018SOL    HW210894   8.747   0.911   3.603
 3019SOL     OW10895  11.006   6.409  11.734
 3019SOL    HW110896  10.962   6.450  11.809
 3019SOL    HW210897  10.985   6.465  11.660
 3020SOL     OW10898   7.064   3.337   0.176
 3020SOL    HW110899   7.098   3.417   0.216
 3020SOL    HW210900   6.969   3.348   0.178
 3021SOL     OW10901   5.936  13.464   8.417
 3021SOL    HW110902   5.890  13.418   8.347
 3021SOL    HW210903   5.954  13.397   8.483
 3022SOL     OW10904   4.637   9.794  13.337
 3022SOL    HW110905   4.711   9.740  13.363
 3022SOL    HW210906   4.670   9.884  13.339
 3023SOL     OW10907  12.633   3.874   7.754
 3023SOL    HW110908  12.582   3.825   7.819
 3023SOL    HW210909  12.711   3.820   7.740
 3024SOL     OW10910   5.883  10.305   5.395
 3024SOL    HW110911   5.804  10.352   5.368
 3024SOL    HW210912   5.858  10.259   5.475
 3025SOL     OW10913   6.048  12.103   4.859
 3025SOL    HW110914   6.045  12.114   4.764
 3025SOL    HW210915   6.125  12.049   4.874
 3026SOL     OW10916   6.999  10.802  11.614
 3026SOL    HW110917   7.068  10.866  11.632
 3026SOL    HW210918   6.993  10.799  11.519
 3027SOL     OW10919  11.879  12.469  10.200
 3027SOL    HW110920  11.934  12.474  10.278
 3027SOL    HW210921  11.873  12.375  10.181
 3028SOL     OW10922  14.305   9.172   0.883
 3028SOL    HW110923  14.385   9.209   0.920
 3028SOL    HW210924  14.257   9.248   0.850
 3029SOL     OW10925   4.128  13.712   9.027
 3029SOL    HW110926   4.167  13.759   8.953
 3029SOL    HW210927   4.117  13.778   9.095
 3030SOL     OW10928  10.128   6.697   0.928
 3030SOL    HW110929  10.137   6.790   0.948
 3030SOL    HW210930  10.205   6.657   0.969
 3031SOL     OW10931  14.656  14.658  10.364
 3031SOL    HW110932  14.707  14.708  10.300
 3031SOL    HW210933  14.650  14.716  10.440
 3032SOL     OW10934  13.149   3.144  11.753
 3032SOL    HW110935  13.196   3.208  11.699
 3032SOL    HW210936  13.077   3.194  11.792
 3033SOL     OW10937   9.470  11.900  12.017
 3033SOL    HW110938   9.495  11.830  11.957
 3033SOL    HW210939   9.396  11.864  12.066
 3034SOL     OW10940   1.162   8.721   6.897
 3034SOL    HW110941   1.117   8.751   6.818
 3034SOL    HW210942   1.248   8.694   6.866
 3035SOL     OW10943  14.304   5.171   8.343
 3035SOL    HW110944  14.242   5.164   8.271
 3035SOL    HW210945  14.250   5.174   8.422
 3036SOL     OW10946   6.138   2.124  13.832
 3036SOL    HW110947   6.202   2.193  13.812
 3036SOL    HW210948   6.147   2.110  13.926
 3037SOL     OW10949   0.332   2.674   3.276
 3037SOL    HW110950   0.422   2.648   3.258
 3037SOL    HW210951   0.294   2.693   3.190
 3038SOL     OW10952   9.621   4.183  10.323
 3038SOL    HW110953   9.604   4.245  10.252
 3038SOL    HW210954   9.648   4.102  10.279
 3039SOL     OW10955   2.336   2.948   4.407
 3039SOL    HW110956   2.371   2.865   4.375
 3039SOL    HW210957   2.404   3.012   4.386
 3040SOL     OW10958   8.504   9.725   7.416
 3040SOL    HW110959   8.482   9.799   7.473
 3040SOL    HW210960   8.570   9.759   7.356
 3041SOL     OW10961   0.721   3.456   0.103
 3041SOL    HW110962   0.716   3.542   0.145
 3041SOL    HW210963   0.715   3.394   0.176
 3042SOL     OW10964   5.964  14.001   6.811
 3042SOL    HW110965   5.885  13.988   6.862
 3042SOL    HW210966   5.945  13.960   6.726
 3043SOL     OW10967   8.505   0.439   9.347
 3043SOL    HW110968   8.514   0.368   9.283
 3043SOL    HW210969   8.591   0.482   9.347
 3044SOL     OW10970   4.675   2.456   1.610
 3044SOL    HW110971   4.714   2.535   1.646
 3044SOL    HW210972   4.581   2.467   1.625
 3045SOL     OW10973   9.250   8.871   9.359
 3045SOL    HW110974   9.295   8.790   9.334
 3045SOL    HW210975   9.221   8.909   9.276
 3046SOL     OW10976   2.700   1.972   8.118
 3046SOL    HW110977   2.624   2.026   8.096
 3046SOL    HW210978   2.761   1.986   8.046
 3047SOL     OW10979   6.933   1.087   8.441
 3047SOL    HW110980   6.880   1.085   8.361
 3047SOL    HW210981   6.869   1.092   8.512
 3048SOL     OW10982   2.175  14.781   2.213
 3048SOL    HW110983   2.098  14.799   2.159
 3048SOL    HW210984   2.141  14.730   2.287
 3049SOL     OW10985   5.907  12.482   5.534
 3049SOL    HW110986   6.001  12.481   5.512
 3049SOL    HW210987   5.894  12.404   5.586
 3050SOL     OW10988   1.818  13.572  12.540
 3050SOL    HW110989   1.844  13.504  12.477
 3050SOL    HW210990   1.792  13.523  12.618
 3051SOL     OW10991   5.082   4.972  10.413
 3051SOL    HW110992   5.053   4.985  10.503
 3051SOL    HW210993   5.080   4.877  10.401
 3052SOL     OW10994   1.628   2.350   7.285
 3052SOL    HW110995   1.587   2.436   7.298
 3052SOL    HW210996   1.696   2.346   7.352
 3053SOL     OW10997   9.977  10.850   3.999
 3053SOL    HW110998  10.049  10.850   3.936
 3053SOL    HW210999   9.930  10.768   3.984
 3054SOL     OW11000  12.089   1.022  11.967
 3054SOL    HW111001  12.166   1.073  11.943
 3054SOL    HW211002  12.015   1.072  11.932
 3055SOL     OW11003   2.041   4.094   7.080
 3055SOL    HW111004   2.007   4.024   7.026
 3055SOL    HW211005   2.091   4.149   7.020
 3056SOL     OW11006   1.141   8.998   9.458
 3056SOL    HW111007   1.075   8.995   9.388
 3056SOL    HW211008   1.205   8.931   9.434
 3057SOL     OW11009   9.228  12.031  13.422
 3057SOL    HW111010   9.234  12.127  13.416
 3057SOL    HW211011   9.230  12.014  13.516
 3058SOL     OW11012  13.466   9.711   8.824
 3058SOL    HW111013  13.389   9.677   8.779
 3058SOL    HW211014  13.503   9.635   8.869
 3059SOL     OW11015   0.972   2.756   6.442
 3059SOL    HW111016   0.964   2.679   6.499
 3059SOL    HW211017   1.066   2.770   6.434
 3060SOL     OW11018   0.453   4.915   6.148
 3060SOL    HW111019   0.539   4.956   6.134
 3060SOL    HW211020   0.391   4.988   6.144
 3061SOL     OW11021  11.989   0.177  14.866
 3061SOL    HW111022  12.025   0.252  14.819
 3061SOL    HW211023  12.059   0.112  14.866
 3062SOL     OW11024   9.095   7.083  13.222
 3062SOL    HW111025   9.181   7.055  13.253
 3062SOL    HW211026   9.058   7.006  13.181
 3063SOL     OW11027  10.259   9.168   3.511
 3063SOL    HW111028  10.355   9.172   3.508
 3063SOL    HW211029  10.236   9.098   3.451
 3064SOL     OW11030   7.863  11.123   7.234
 3064SOL    HW111031   7.881  11.206   7.279
 3064SOL    HW211032   7.883  11.141   7.142
 3065SOL     OW11033   8.874  12.247   1.176
 3065SOL    HW111034   8.951  12.213   1.131
 3065SOL    HW211035   8.894  12.340   1.192
 3066SOL     OW11036  13.769   8.495  11.637
 3066SOL    HW111037  13.725   8.474  11.720
 3066SOL    HW211038  13.786   8.409  11.598
 3067SOL     OW11039   8.658   6.128  13.396
 3067SOL    HW111040   8.625   6.206  13.439
 3067SOL    HW211041   8.580   6.075  13.379
 3068SOL     OW11042   7.803   3.761  11.815
 3068SOL    HW111043   7.885   3.718  11.789
 3068SOL    HW211044   7.828   3.818  11.887
 3069SOL     OW11045   2.938   1.655  14.292
 3069SOL    HW111046   3.026   1.621  14.306
 3069SOL    HW211047   2.935   1.737  14.341
 3070SOL     OW11048   1.243  12.503   6.227
 3070SOL    HW111049   1.182  12.573   6.246
 3070SOL    HW211050   1.288  12.486   6.310
 3071SOL     OW11051  12.969  11.742   3.046
 3071SOL    HW111052  13.030  11.807   3.011
 3071SOL    HW211053  12.981  11.666   2.989
 3072SOL     OW11054  13.857   7.936  11.227
 3072SOL    HW111055  13.910   7.939  11.306
 3072SOL    HW211056  13.829   7.844  11.220
 3073SOL     OW11057   0.850  11.277   8.565
 3073SOL    HW111058   0.790  11.255   8.493
 3073SOL    HW211059   0.859  11.195   8.614
 3074SOL     OW11060   7.877  13.982   7.413
 3074SOL    HW111061   7.970  14.000   7.426
 3074SOL    HW211062   7.851  13.930   7.488
 3075SOL     OW11063   4.778   5.441  12.607
 3075SOL    HW111064   4.779   5.395  12.691
 3075SOL    HW211065   4.809   5.529  12.627
 3076SOL     OW11066  12.540   8.040  10.928
 3076SOL    HW111067  12.457   7.992  10.937
 3076SOL    HW211068  12.520   8.128  10.960
 3077SOL     OW11069  10.851   0.159   2.272
 3077SOL    HW111070  10.775   0.104   2.254
 3077SOL    HW211071  10.870   0.145   2.365
 3078SOL     OW11072  10.625  13.499  13.737
 3078SOL    HW111073  10.618  13.404  13.723
 3078SOL    HW211074  10.683  13.529  13.667
 3079SOL     OW11075   7.297  13.203  10.350
 3079SOL    HW111076   7.346  13.281  10.323
 3079SOL    HW211077   7.305  13.202  10.446
 3080SOL     OW11078  14.153  11.802   0.760
 3080SOL    HW111079  14.067  11.781   0.796
 3080SOL    HW211080  14.215  11.780   0.830
 3081SOL     OW11081  11.640  10.286  10.530
 3081SOL    HW111082  11.685  10.215  10.486
 3081SOL    HW211083  11.709  10.346  10.558
 3082SOL     OW11084   7.969  11.161   5.874
 3082SOL    HW111085   7.914  11.207   5.811
 3082SOL    HW211086   8.032  11.227   5.903
 3083SOL     OW11087   5.365   0.748   9.339
 3083SOL    HW111088   5.296   0.813   9.324
 3083SOL    HW211089   5.442   0.783   9.294
 3084SOL     OW11090  11.589   8.422   6.313
 3084SOL    HW111091  11.528   8.372   6.258
 3084SOL    HW211092  11.561   8.403   6.402
 3085SOL     OW11093   5.686   8.673   4.317
 3085SOL    HW111094   5.777   8.648   4.298
 3085SOL    HW211095   5.651   8.598   4.366
 3086SOL     OW11096   0.997   2.929   5.848
 3086SOL    HW111097   1.089   2.900   5.844
 3086SOL    HW211098   0.977   2.932   5.942
 3087SOL     OW11099  13.323  12.747   0.489
 3087SOL    HW111100  13.269  12.822   0.515
 3087SOL    HW211101  13.260  12.682   0.456
 3088SOL     OW11102  12.482   4.713   4.221
 3088SOL    HW111103  12.555   4.684   4.165
 3088SOL    HW211104  12.413   4.737   4.159
 3089SOL     OW11105   8.367   6.932  11.109
 3089SOL    HW111106   8.438   6.869  11.121
 3089SOL    HW211107   8.338   6.952  11.198
 3090SOL     OW11108   7.842   5.243   3.209
 3090SOL    HW111109   7.913   5.228   3.147
 3090SOL    HW211110   7.856   5.332   3.241
 3091SOL     OW11111   2.295   5.252  10.519
 3091SOL    HW111112   2.379   5.284  10.553
 3091SOL    HW211113   2.256   5.327  10.475
 3092SOL     OW11114   9.461  10.152   7.475
 3092SOL    HW111115   9.534  10.203   7.509
 3092SOL    HW211116   9.390  10.163   7.538
 3093SOL     OW11117   2.290  11.820  14.711
 3093SOL    HW111118   2.285  11.730  14.678
 3093SOL    HW211119   2.315  11.872  14.634
 3094SOL     OW11120  11.384  10.982   6.018
 3094SOL    HW111121  11.466  10.986   6.067
 3094SOL    HW211122  11.407  11.006   5.928
 3095SOL     OW11123   3.706  10.263  13.383
 3095SOL    HW111124   3.721  10.233  13.473
 3095SOL    HW211125   3.759  10.204  13.329
 3096SOL     OW11126  14.361   2.205   8.706
 3096SOL    HW111127  14.315   2.226   8.787
 3096SOL    HW211128  14.305   2.140   8.663
 3097SOL     OW11129   1.032   7.447   2.665
 3097SOL    HW111130   1.027   7.351   2.671
 3097SOL    HW211131   1.102   7.470   2.726
 3098SOL     OW11132   7.257   2.199   6.708
 3098SOL    HW111133   7.175   2.154   6.728
 3098SOL    HW211134   7.320   2.128   6.695
 3099SOL     OW11135  13.098  11.037  14.392
 3099SOL    HW111136  13.161  10.970  14.366
 3099SOL    HW211137  13.013  10.995  14.386
 3100SOL     OW11138   0.860   3.165  11.519
 3100SOL    HW111139   0.785   3.166  11.460
 3100SOL    HW211140   0.828   3.205  11.600
 3101SOL     OW11141   4.379   9.676  13.668
 3101SOL    HW111142   4.405   9.730  13.593
 3101SOL    HW211143   4.343   9.738  13.731
 3102SOL     OW11144   8.272  11.306   5.510
 3102SOL    HW111145   8.288  11.217   5.480
 3102SOL    HW211146   8.315  11.362   5.446
 3103SOL     OW11147   0.970   0.810   6.287
 3103SOL    HW111148   0.933   0.896   6.306
 3103SOL    HW211149   1.058   0.813   6.327
 3104SOL     OW11150  13.611   9.692   0.184
 3104SOL    HW111151  13.649   9.666   0.100
 3104SOL    HW211152  13.638   9.783   0.196
 3105SOL     OW11153   6.258  12.309   7.338
 3105SOL    HW111154   6.353  12.318   7.327
 3105SOL    HW211155   6.222  12.388   7.300
 3106SOL     OW11156  13.674   4.299   7.757
 3106SOL    HW111157  13.662   4.380   7.806
 3106SOL    HW211158  13.585   4.266   7.744
 3107SOL     OW11159   8.109   3.640  10.086
 3107SOL    HW111160   8.093   3.613   9.996
 3107SOL    HW211161   8.074   3.569  10.140
 3108SOL     OW11162  12.812  14.600  13.748
 3108SOL    HW111163  12.776  14.512  13.749
 3108SOL    HW211164  12.799  14.631  13.658
 3109SOL     OW11165   5.676   3.389   0.984
 3109SOL    HW111166   5.765   3.355   0.992
 3109SOL    HW211167   5.686   3.470   0.934
 3110SOL     OW11168  12.400   8.022   6.483
 3110SOL    HW111169  12.486   7.986   6.460
 3110SOL    HW211170  12.382   7.988   6.571
 3111SOL     OW11171   9.282  10.043   1.144
 3111SOL    HW111172   9.208  10.094   1.177
 3111SOL    HW211173   9.299  10.079   1.057
 3112SOL     OW11174   9.202   6.100   3.649
 3112SOL    HW111175   9.269   6.105   3.718
 3112SOL    HW211176   9.227   6.167   3.586
 3113SOL     OW11177   0.082  12.839  11.176
 3113SOL    HW111178   0.098  12.848  11.270
 3113SOL    HW211179  14.878  12.796  11.171
 3114SOL     OW11180   8.195   1.712   4.226
 3114SOL    HW111181   8.126   1.723   4.161
 3114SOL    HW211182   8.212   1.800   4.259
 3115SOL     OW11183   8.471   8.498  11.131
 3115SOL    HW111184   8.552   8.452  11.153
 3115SOL    HW211185   8.500   8.582  11.096
 3116SOL     OW11186  12.572  13.353   3.444
 3116SOL    HW111187  12.638  13.322   3.505
 3116SOL    HW211188  12.489  13.322   3.480
 3117SOL     OW11189   8.777   8.107  12.755
 3117SOL    HW111190   8.778   8.014  12.732
 3117SOL    HW211191   8.751   8.151  12.674
 3118SOL     OW11192   0.832   3.137  13.007
 3118SOL    HW111193   0.908   3.188  13.033
 3118SOL    HW211194   0.802   3.095  13.088
 3119SOL     OW11195   1.910   2.424  12.841
 3119SOL    HW111196   1.899   2.449  12.749
 3119SOL    HW211197   2.002   2.401  12.849
 3120SOL     OW11198   2.174  11.594   2.584
 3120SOL    HW111199   2.266  11.614   2.602
 3120SOL    HW211200   2.170  11.498   2.586
 3121SOL     OW11201   3.107   3.680   4.994
 3121SOL    HW111202   3.046   3.659   5.064
 3121SOL    HW211203   3.181   3.722   5.038
 3122SOL     OW11204   0.843   3.279   8.969
 3122SOL    HW111205   0.936   3.262   8.982
 3122SOL    HW211206   0.840   3.344   8.898
 3123SOL     OW11207   3.948   8.433   4.927
 3123SOL    HW111208   3.863   8.409   4.890
 3123SOL    HW211209   3.927   8.471   5.012
 3124SOL     OW11210  10.193   1.916   1.574
 3124SOL    HW111211  10.286   1.896   1.576
 3124SOL    HW211212  10.154   1.847   1.520
 3125SOL     OW11213   1.303  12.045   4.834
 3125SOL    HW111214   1.222  12.000   4.860
 3125SOL    HW211215   1.359  12.040   4.911
 3126SOL     OW11216   1.981   3.456  13.890
 3126SOL    HW111217   1.897   3.436  13.930
 3126SOL    HW211218   1.961   3.516  13.818
 3127SOL     OW11219  11.354   3.713   1.146
 3127SOL    HW111220  11.290   3.641   1.143
 3127SOL    HW211221  11.316   3.776   1.206
 3128SOL     OW11222   8.693   7.410  10.711
 3128SOL    HW111223   8.674   7.464  10.634
 3128SOL    HW211224   8.621   7.347  10.715
 3129SOL     OW11225  11.363   9.059  12.243
 3129SOL    HW111226  11.361   8.966  12.265
 3129SOL    HW211227  11.319   9.102  12.316
 3130SOL     OW11228  14.294   6.360   2.960
 3130SOL    HW111229  14.283   6.265   2.957
 3130SOL    HW211230  14.333   6.377   3.046
 3131SOL     OW11231   7.071  11.534   0.516
 3131SOL    HW111232   6.998  11.560   0.459
 3131SOL    HW211233   7.095  11.613   0.563
 3132SOL     OW11234   7.827  11.188  12.799
 3132SOL    HW111235   7.904  11.136  12.823
 3132SOL    HW211236   7.784  11.136  12.731
 3133SOL     OW11237   8.477  13.903   2.772
 3133SOL    HW111238   8.537  13.831   2.750
 3133SOL    HW211239   8.535  13.976   2.795
 3134SOL     OW11240  11.134   6.430   6.599
 3134SOL    HW111241  11.131   6.504   6.659
 3134SOL    HW211242  11.226   6.403   6.598
 3135SOL     OW11243  13.718  13.753  12.522
 3135SOL    HW111244  13.730  13.848  12.517
 3135SOL    HW211245  13.675  13.731  12.439
 3136SOL     OW11246   9.803   5.179   7.404
 3136SOL    HW111247   9.810   5.204   7.312
 3136SOL    HW211248   9.881   5.126   7.421
 3137SOL     OW11249   6.897   9.074  11.967
 3137SOL    HW111250   6.881   8.986  12.001
 3137SOL    HW211251   6.810   9.107  11.945
 3138SOL     OW11252   5.854  12.277  14.845
 3138SOL    HW111253   5.892  12.213  14.784
 3138SOL    HW211254   5.782  12.230   0.004
 3139SOL     OW11255   0.336   9.425  10.461
 3139SOL    HW111256   0.288   9.502  10.430
 3139SOL    HW211257   0.306   9.413  10.551
 3140SOL     OW11258  12.073   8.439   2.103
 3140SOL    HW111259  12.096   8.517   2.053
 3140SOL    HW211260  12.017   8.389   2.044
 3141SOL     OW11261   1.493   8.914  11.874
 3141SOL    HW111262   1.536   8.993  11.840
 3141SOL    HW211263   1.555   8.843  11.856
 3142SOL     OW11264  12.046   4.371   7.922
 3142SOL    HW111265  12.118   4.390   7.862
 3142SOL    HW211266  12.002   4.295   7.884
 3143SOL     OW11267   0.235  11.892   6.506
 3143SOL    HW111268   0.310  11.879   6.447
 3143SOL    HW211269   0.172  11.941   6.453
 3144SOL     OW11270   7.802  10.366   1.875
 3144SOL    HW111271   7.739  10.436   1.888
 3144SOL    HW211272   7.752  10.295   1.835
 3145SOL     OW11273   3.004   3.272   6.043
 3145SOL    HW111274   3.014   3.304   6.133
 3145SOL    HW211275   3.040   3.183   6.046
 3146SOL     OW11276   6.363   9.334   2.501
 3146SOL    HW111277   6.406   9.370   2.423
 3146SOL    HW211278   6.298   9.273   2.466
 3147SOL     OW11279  11.807  10.676  13.822
 3147SOL    HW111280  11.737  10.622  13.860
 3147SOL    HW211281  11.806  10.756  13.874
 3148SOL     OW11282   5.520   3.340  11.758
 3148SOL    HW111283   5.557   3.337  11.670
 3148SOL    HW211284   5.427   3.357  11.744
 3149SOL     OW11285   9.070   3.352   4.413
 3149SOL    HW111286   9.114   3.408   4.477
 3149SOL    HW211287   9.128   3.352   4.337
 3150SOL     OW11288   4.586  10.413   9.933
 3150SOL    HW111289   4.508  10.421   9.988
 3150SOL    HW211290   4.625  10.330   9.959
 3151SOL     OW11291   7.026   4.031  11.482
 3151SOL    HW111292   6.941   4.036  11.437
 3151SOL    HW211293   7.053   3.940  11.472
 3152SOL     OW11294   9.260  10.482   8.327
 3152SOL    HW111295   9.172  10.448   8.312
 3152SOL    HW211296   9.264  10.563   8.277
 3153SOL     OW11297   6.626   2.819   4.504
 3153SOL    HW111298   6.669   2.734   4.503
 3153SOL    HW211299   6.684   2.876   4.554
 3154SOL     OW11300  13.164   8.712   0.524
 3154SOL    HW111301  13.201   8.628   0.549
 3154SOL    HW211302  13.133   8.699   0.434
 3155SOL     OW11303   2.738   4.782   2.941
 3155SOL    HW111304   2.773   4.749   2.859
 3155SOL    HW211305   2.727   4.876   2.926
 3156SOL     OW11306   7.227  13.700   1.299
 3156SOL    HW111307   7.321  13.717   1.310
 3156SOL    HW211308   7.188  13.726   1.382
 3157SOL     OW11309  14.703  12.465   8.366
 3157SOL    HW111310  14.723  12.372   8.366
 3157SOL    HW211311  14.649  12.478   8.288
 3158SOL     OW11312   2.294  12.816  11.818
 3158SOL    HW111313   2.234  12.842  11.748
 3158SOL    HW211314   2.238  12.770  11.881
 3159SOL     OW11315  11.830   8.958   5.602
 3159SOL    HW111316  11.876   8.890   5.553
 3159SOL    HW211317  11.817   8.920   5.689
 3160SOL     OW11318   6.643   0.975   6.498
 3160SOL    HW111319   6.557   0.974   6.540
 3160SOL    HW211320   6.688   0.899   6.535
 3161SOL     OW11321   0.358   5.506   9.198
 3161SOL    HW111322   0.313   5.586   9.171
 3161SOL    HW211323   0.399   5.473   9.118
 3162SOL     OW11324   5.449   1.532   7.200
 3162SOL    HW111325   5.450   1.620   7.163
 3162SOL    HW211326   5.379   1.534   7.266
 3163SOL     OW11327   3.015  13.159  10.451
 3163SOL    HW111328   3.089  13.149  10.511
 3163SOL    HW211329   2.973  13.241  10.479
 3164SOL     OW11330   3.481  12.022   6.688
 3164SOL    HW111331   3.451  11.973   6.764
 3164SOL    HW211332   3.573  12.042   6.707
 3165SOL     OW11333   1.569  11.178   1.163
 3165SOL    HW111334   1.479  11.178   1.130
 3165SOL    HW211335   1.593  11.271   1.166
 3166SOL     OW11336  11.705   3.081  11.436
 3166SOL    HW111337  11.612   3.067  11.456
 3166SOL    HW211338  11.710   3.078  11.341
 3167SOL     OW11339   9.158  11.040   7.388
 3167SOL    HW111340   9.157  11.106   7.319
 3167SOL    HW211341   9.211  10.969   7.351
 3168SOL     OW11342   4.496   4.450   3.911
 3168SOL    HW111343   4.496   4.376   3.851
 3168SOL    HW211344   4.588   4.476   3.916
 3169SOL     OW11345  13.985   5.681  12.473
 3169SOL    HW111346  13.942   5.600  12.445
 3169SOL    HW211347  14.052   5.652  12.535
 3170SOL     OW11348   5.325   5.547  12.308
 3170SOL    HW111349   5.368   5.488  12.370
 3170SOL    HW211350   5.232   5.524  12.314
 3171SOL     OW11351   9.640   0.715   3.001
 3171SOL    HW111352   9.551   0.703   3.033
 3171SOL    HW211353   9.633   0.706   2.906
 3172SOL     OW11354   3.958  12.757   6.041
 3172SOL    HW111355   3.969  12.720   5.953
 3172SOL    HW211356   4.013  12.702   6.097
 3173SOL     OW11357   0.162  12.019   4.708
 3173SOL    HW111358   0.237  12.068   4.674
 3173SOL    HW211359   0.090  12.081   4.707
 3174SOL     OW11360   2.471   0.184   6.038
 3174SOL    HW111361   2.433   0.249   6.096
 3174SOL    HW211362   2.427   0.102   6.061
 3175SOL     OW11363  12.649  12.212  12.887
 3175SOL    HW111364  12.617  12.138  12.939
 3175SOL    HW211365  12.700  12.265  12.949
 3176SOL     OW11366  10.251   4.524   4.555
 3176SOL    HW111367  10.318   4.542   4.622
 3176SOL    HW211368  10.170   4.558   4.593
 3177SOL     OW11369  11.834  11.290  14.480
 3177SOL    HW111370  11.764  11.255  14.536
 3177SOL    HW211371  11.790  11.314  14.399
 3178SOL     OW11372   4.663  11.460   0.011
 3178SOL    HW111373   4.606  11.384   0.021
 3178SOL    HW211374   4.745  11.424  14.859
 3179SOL     OW11375   4.322   0.134   3.687
 3179SOL    HW111376   4.362   0.221   3.693
 3179SOL    HW211377   4.375   0.088   3.622
 3180SOL     OW11378   1.273   7.445  12.492
 3180SOL    HW111379   1.244   7.411  12.577
 3180SOL    HW211380   1.345   7.387  12.466
 3181SOL     OW11381   2.847   6.381   0.768
 3181SOL    HW111382   2.903   6.455   0.745
 3181SOL    HW211383   2.759   6.418   0.772
 3182SOL     OW11384   8.966   5.926   1.905
 3182SOL    HW111385   8.918   6.003   1.875
 3182SOL    HW211386   8.949   5.860   1.838
 3183SOL     OW11387  14.033   0.164   7.342
 3183SOL    HW111388  13.985   0.119   7.412
 3183SOL    HW211389  13.966   0.213   7.295
 3184SOL     OW11390   4.139   5.336  11.920
 3184SOL    HW111391   4.071   5.399  11.944
 3184SOL    HW211392   4.094   5.275  11.861
 3185SOL     OW11393  10.453   4.231   5.642
 3185SOL    HW111394  10.385   4.288   5.678
 3185SOL    HW211395  10.413   4.193   5.564
 3186SOL     OW11396   4.816   0.172   9.201
 3186SOL    HW111397   4.741   0.191   9.257
 3186SOL    HW211398   4.892   0.198   9.254
 3187SOL     OW11399   8.743   4.742  11.923
 3187SOL    HW111400   8.742   4.809  11.854
 3187SOL    HW211401   8.746   4.659  11.876
 3188SOL     OW11402  10.758   9.943  12.143
 3188SOL    HW111403  10.818  10.017  12.152
 3188SOL    HW211404  10.781   9.905  12.059
 3189SOL     OW11405  11.210   0.707   9.119
 3189SOL    HW111406  11.166   0.780   9.163
 3189SOL    HW211407  11.150   0.680   9.050
 3190SOL     OW11408  10.332   8.468   1.813
 3190SOL    HW111409  10.244   8.492   1.841
 3190SOL    HW211410  10.384   8.471   1.893
 3191SOL     OW11411   5.048   3.453  13.900
 3191SOL    HW111412   5.123   3.499  13.938
 3191SOL    HW211413   5.002   3.521  13.849
 3192SOL     OW11414   8.497   8.085   8.666
 3192SOL    HW111415   8.512   8.051   8.578
 3192SOL    HW211416   8.402   8.091   8.673
 3193SOL     OW11417  13.465  11.465   4.253
 3193SOL    HW111418  13.470  11.526   4.326
 3193SOL    HW211419  13.384  11.415   4.268
 3194SOL     OW11420   6.546   4.775   2.347
 3194SOL    HW111421   6.641   4.766   2.342
 3194SOL    HW211422   6.527   4.857   2.302
 3195SOL     OW11423   5.490   6.285  14.360
 3195SOL    HW111424   5.496   6.342  14.284
 3195SOL    HW211425   5.560   6.220  14.347
 3196SOL     OW11426   9.592   6.442   6.707
 3196SOL    HW111427   9.601   6.410   6.797
 3196SOL    HW211428   9.539   6.376   6.663
 3197SOL     OW11429   6.686  13.303   5.011
 3197SOL    HW111430   6.734  13.384   4.994
 3197SOL    HW211431   6.753  13.241   5.039
 3198SOL     OW11432   3.649   5.490  11.446
 3198SOL    HW111433   3.687   5.515  11.362
 3198SOL    HW211434   3.694   5.546  11.510
 3199SOL     OW11435  12.389   5.611  14.413
 3199SOL    HW111436  12.313   5.571  14.370
 3199SOL    HW211437  12.385   5.703  14.387
 3200SOL     OW11438   8.167  14.511   0.326
 3200SOL    HW111439   8.126  14.595   0.345
 3200SOL    HW211440   8.258  14.533   0.303
 3201SOL     OW11441   2.801  12.966  10.338
 3201SOL    HW111442   2.852  13.044  10.361
 3201SOL    HW211443   2.841  12.934  10.258
 3202SOL     OW11444  10.039   5.520   2.186
 3202SOL    HW111445  10.106   5.465   2.226
 3202SOL    HW211446   9.987   5.551   2.260
 3203SOL     OW11447   5.269  12.219   9.673
 3203SOL    HW111448   5.326  12.247   9.601
 3203SOL    HW211449   5.246  12.300   9.718
 3204SOL     OW11450  12.555   4.781   0.398
 3204SOL    HW111451  12.585   4.690   0.392
 3204SOL    HW211452  12.523   4.801   0.310
 3205SOL     OW11453   7.825  11.014  13.120
 3205SOL    HW111454   7.816  11.108  13.140
 3205SOL    HW211455   7.882  10.981  13.189
 3206SOL     OW11456   6.056   5.873  12.401
 3206SOL    HW111457   5.970   5.864  12.360
 3206SOL    HW211458   6.038   5.868  12.495
 3207SOL     OW11459   1.182   7.218   9.098
 3207SOL    HW111460   1.243   7.201   9.170
 3207SOL    HW211461   1.098   7.182   9.128
 3208SOL     OW11462   2.155  12.581   1.734
 3208SOL    HW111463   2.064  12.608   1.745
 3208SOL    HW211464   2.206  12.653   1.770
 3209SOL     OW11465   0.970   3.525   2.393
 3209SOL    HW111466   0.884   3.553   2.364
 3209SOL    HW211467   0.953   3.454   2.456
 3210SOL     OW11468   6.750  12.878  10.694
 3210SOL    HW111469   6.664  12.872  10.653
 3210SOL    HW211470   6.732  12.913  10.782
 3211SOL     OW11471   3.925   1.939   5.748
 3211SOL    HW111472   3.908   2.033   5.740
 3211SOL    HW211473   3.917   1.906   5.658
 3212SOL     OW11474   5.443   9.297  12.894
 3212SOL    HW111475   5.411   9.381  12.926
 3212SOL    HW211476   5.537   9.311  12.881
 3213SOL     OW11477  10.712   7.493   6.943
 3213SOL    HW111478  10.749   7.536   7.020
 3213SOL    HW211479  10.659   7.421   6.979
 3214SOL     OW11480   1.317   0.528   5.116
 3214SOL    HW111481   1.250   0.525   5.185
 3214SOL    HW211482   1.389   0.578   5.155
 3215SOL     OW11483   0.674  12.713   1.761
 3215SOL    HW111484   0.657  12.622   1.735
 3215SOL    HW211485   0.622  12.765   1.700
 3216SOL     OW11486  11.031   2.185  11.549
 3216SOL    HW111487  11.098   2.176  11.617
 3216SOL    HW211488  11.049   2.113  11.489
 3217SOL     OW11489   7.655   0.686   2.307
 3217SOL    HW111490   7.692   0.631   2.376
 3217SOL    HW211491   7.569   0.646   2.289
 3218SOL     OW11492  13.326   3.341  11.552
 3218SOL    HW111493  13.346   3.422  11.505
 3218SOL    HW211494  13.398   3.330  11.614
 3219SOL     OW11495   5.366   2.992   7.505
 3219SOL    HW111496   5.343   3.079   7.537
 3219SOL    HW211497   5.324   2.932   7.566
 3220SOL     OW11498   4.036   3.433   2.396
 3220SOL    HW111499   4.082   3.361   2.439
 3220SOL    HW211500   4.067   3.511   2.443
 3221SOL     OW11501   3.822  10.273   8.976
 3221SOL    HW111502   3.837  10.365   8.996
 3221SOL    HW211503   3.908  10.232   8.987
 3222SOL     OW11504   0.031  11.077  12.166
 3222SOL    HW111505  14.828  11.114  12.147
 3222SOL    HW211506   0.077  11.146  12.214
 3223SOL     OW11507  10.610   8.875  10.347
 3223SOL    HW111508  10.619   8.859  10.253
 3223SOL    HW211509  10.526   8.835  10.370
 3224SOL     OW11510   6.262   7.669  14.837
 3224SOL    HW111511   6.281   7.583  14.874
 3224SOL    HW211512   6.256   7.727   0.030
 3225SOL     OW11513  13.493  14.408  10.470
 3225SOL    HW111514  13.458  14.373  10.387
 3225SOL    HW211515  13.427  14.470  10.500
 3226SOL     OW11516   6.577   6.797   1.455
 3226SOL    HW111517   6.487   6.802   1.423
 3226SOL    HW211518   6.594   6.703   1.464
 3227SOL     OW11519   5.664   9.004  14.638
 3227SOL    HW111520   5.658   9.045  14.725
 3227SOL    HW211521   5.622   9.067  14.580
 3228SOL     OW11522   2.820   9.003  12.013
 3228SOL    HW111523   2.909   9.014  11.979
 3228SOL    HW211524   2.765   9.045  11.948
 3229SOL     OW11525   9.604   7.231   8.432
 3229SOL    HW111526   9.583   7.162   8.496
 3229SOL    HW211527   9.551   7.209   8.355
 3230SOL     OW11528   9.044  13.461  12.513
 3230SOL    HW111529   8.991  13.426  12.585
 3230SOL    HW211530   9.017  13.409  12.437
 3231SOL     OW11531   9.403   6.168   7.181
 3231SOL    HW111532   9.467   6.097   7.183
 3231SOL    HW211533   9.319   6.124   7.165
 3232SOL     OW11534  12.295   8.384  10.622
 3232SOL    HW111535  12.274   8.391  10.529
 3232SOL    HW211536  12.387   8.410  10.627
 3233SOL     OW11537   6.625   3.459  14.826
 3233SOL    HW111538   6.548   3.449   0.001
 3233SOL    HW211539   6.609   3.540  14.778
 3234SOL     OW11540   7.598   5.338   2.866
 3234SOL    HW111541   7.647   5.257   2.853
 3234SOL    HW211542   7.655   5.392   2.921
 3235SOL     OW11543  11.419   9.089   7.075
 3235SOL    HW111544  11.399   9.173   7.116
 3235SOL    HW211545  11.395   9.024   7.141
 3236SOL     OW11546   7.375  13.820  13.555
 3236SOL    HW111547   7.332  13.778  13.481
 3236SOL    HW211548   7.350  13.767  13.631
 3237SOL     OW11549   8.733  13.806  14.061
 3237SOL    HW111550   8.752  13.776  14.149
 3237SOL    HW211551   8.768  13.896  14.058
 3238SOL     OW11552   1.693   5.520  10.024
 3238SOL    HW111553   1.777   5.490   9.988
 3238SOL    HW211554   1.703   5.511  10.119
 3239SOL     OW11555   5.918   8.790   5.881
 3239SOL    HW111556   5.867   8.816   5.958
 3239SOL    HW211557   5.853   8.755   5.820
 3240SOL     OW11558   1.154  14.261   5.461
 3240SOL    HW111559   1.084  14.326   5.454
 3240SOL    HW211560   1.126  14.204   5.533
 3241SOL     OW11561   7.169   5.462   1.445
 3241SOL    HW111562   7.119   5.401   1.391
 3241SOL    HW211563   7.256   5.424   1.450
 3242SOL     OW11564   2.999   5.118  14.560
 3242SOL    HW111565   2.969   5.209  14.561
 3242SOL    HW211566   2.919   5.067  14.547
 3243SOL     OW11567  14.223   8.845   4.515
 3243SOL    HW111568  14.305   8.805   4.485
 3243SOL    HW211569  14.249   8.932   4.547
 3244SOL     OW11570   8.591   9.156   5.462
 3244SOL    HW111571   8.524   9.196   5.407
 3244SOL    HW211572   8.610   9.222   5.529
 3245SOL     OW11573   0.928  10.828   2.126
 3245SOL    HW111574   0.883  10.867   2.051
 3245SOL    HW211575   1.011  10.876   2.131
 3246SOL     OW11576   7.172   4.715   5.907
 3246SOL    HW111577   7.154   4.766   5.828
 3246SOL    HW211578   7.088   4.711   5.952
 3247SOL     OW11579   6.815   1.823  14.744
 3247SOL    HW111580   6.843   1.831  14.653
 3247SOL    HW211581   6.724   1.853  14.743
 3248SOL     OW11582   5.754   1.643   6.146
 3248SOL    HW111583   5.681   1.704   6.135
 3248SOL    HW211584   5.717   1.568   6.191
 3249SOL     OW11585  14.081  13.158   5.876
 3249SOL    HW111586  14.081  13.211   5.956
 3249SOL    HW211587  14.017  13.200   5.819
 3250SOL     OW11588  12.645  12.144  13.841
 3250SOL    HW111589  12.740  12.134  13.847
 3250SOL    HW211590  12.630  12.171  13.750
 3251SOL     OW11591   4.872   3.480   6.281
 3251SOL    HW111592   4.930   3.482   6.356
 3251SOL    HW211593   4.800   3.539   6.304
 3252SOL     OW11594  12.174   9.892   0.496
 3252SOL    HW111595  12.142   9.807   0.465
 3252SOL    HW211596  12.148   9.894   0.588
 3253SOL     OW11597  13.187  10.359   5.300
 3253SOL    HW111598  13.163  10.267   5.298
 3253SOL    HW211599  13.270  10.362   5.348
 3254SOL     OW11600   1.036   8.758  13.373
 3254SOL    HW111601   1.124   8.720  13.380
 3254SOL    HW211602   1.006   8.732  13.286
 3255SOL     OW11603   9.987  14.143   9.102
 3255SOL    HW111604   9.975  14.143   9.007
 3255SOL    HW211605   9.898  14.139   9.138
 3256SOL     OW11606   2.667   1.154   7.978
 3256SOL    HW111607   2.728   1.116   8.041
 3256SOL    HW211608   2.581   1.133   8.012
 3257SOL     OW11609   1.081   1.748   6.612
 3257SOL    HW111610   1.071   1.768   6.519
 3257SOL    HW211611   1.003   1.698   6.634
 3258SOL     OW11612   0.510  14.358   6.015
 3258SOL    HW111613   0.556  14.434   6.050
 3258SOL    HW211614   0.446  14.335   6.083
 3259SOL     OW11615   8.178   4.556   1.459
 3259SOL    HW111616   8.120   4.621   1.499
 3259SOL    HW211617   8.126   4.518   1.389
 3260SOL     OW11618   1.196   2.391   9.638
 3260SOL    HW111619   1.184   2.391   9.543
 3260SOL    HW211620   1.140   2.320   9.669
 3261SOL     OW11621  11.362   5.900   3.663
 3261SOL    HW111622  11.338   5.992   3.652
 3261SOL    HW211623  11.278   5.854   3.667
 3262SOL     OW11624   4.924  10.561   5.560
 3262SOL    HW111625   4.897  10.495   5.624
 3262SOL    HW211626   4.912  10.517   5.475
 3263SOL     OW11627  11.314  10.510  11.095
 3263SOL    HW111628  11.220  10.526  11.083
 3263SOL    HW211629  11.343  10.580  11.154
 3264SOL     OW11630   4.368   0.938   7.813
 3264SOL    HW111631   4.294   0.998   7.802
 3264SOL    HW211632   4.396   0.918   7.724
 3265SOL     OW11633   8.336  14.800   0.942
 3265SOL    HW111634   8.268  14.761   0.997
 3265SOL    HW211635   8.293  14.876   0.902
 3266SOL     OW11636  11.735   4.579   3.344
 3266SOL    HW111637  11.671   4.522   3.387
 3266SOL    HW211638  11.739   4.545   3.254
 3267SOL     OW11639   9.816   8.433  14.445
 3267SOL    HW111640   9.823   8.479  14.528
 3267SOL    HW211641   9.905   8.431  14.410
 3268SOL     OW11642   4.066   2.428   3.978
 3268SOL    HW111643   4.134   2.365   4.001
 3268SOL    HW211644   4.033   2.397   3.894
 3269SOL     OW11645   2.766   8.621  10.328
 3269SOL    HW111646   2.711   8.686  10.372
 3269SOL    HW211647   2.855   8.646  10.350
 3270SOL     OW11648   5.940   0.790   2.332
 3270SOL    HW111649   5.891   0.871   2.318
 3270SOL    HW211650   6.028   0.809   2.300
 3271SOL     OW11651  14.803   9.612   7.035
 3271SOL    HW111652  14.856   9.684   7.071
 3271SOL    HW211653  14.852   9.533   7.057
 3272SOL     OW11654   3.884  12.379   7.111
 3272SOL    HW111655   3.910  12.287   7.111
 3272SOL    HW211656   3.913  12.412   7.026
 3273SOL     OW11657   9.674  14.562  13.549
 3273SOL    HW111658   9.746  14.500  13.559
 3273SOL    HW211659   9.596  14.507  13.540
 3274SOL     OW11660   9.899  10.337   7.126
 3274SOL    HW111661   9.913  10.268   7.191
 3274SOL    HW211662   9.964  10.404   7.149
 3275SOL     OW11663  11.028  11.081   7.267
 3275SOL    HW111664  10.950  11.134   7.251
 3275SOL    HW211665  11.018  11.051   7.358
 3276SOL     OW11666   2.821  11.332  10.916
 3276SOL    HW111667   2.750  11.355  10.856
 3276SOL    HW211668   2.833  11.238  10.903
 3277SOL     OW11669  10.093   7.523  11.357
 3277SOL    HW111670  10.071   7.560  11.271
 3277SOL    HW211671  10.177   7.563  11.378
 3278SOL     OW11672   9.486   7.160   4.187
 3278SOL    HW111673   9.440   7.125   4.110
 3278SOL    HW211674   9.491   7.254   4.172
 3279SOL     OW11675   6.636  10.615  12.939
 3279SOL    HW111676   6.542  10.632  12.948
 3279SOL    HW211677   6.665  10.678  12.873
 3280SOL     OW11678   5.842   9.729   1.599
 3280SOL    HW111679   5.855   9.637   1.576
 3280SOL    HW211680   5.769   9.728   1.661
 3281SOL     OW11681   3.139   0.967   5.585
 3281SOL    HW111682   3.085   0.901   5.629
 3281SOL    HW211683   3.076   1.034   5.556
 3282SOL     OW11684   0.467  12.915   1.857
 3282SOL    HW111685   0.514  12.832   1.864
 3282SOL    HW211686   0.508  12.971   1.922
 3283SOL     OW11687   6.612   8.934   0.926
 3283SOL    HW111688   6.696   8.898   0.953
 3283SOL    HW211689   6.634   8.995   0.855
 3284SOL     OW11690   8.333  10.527  14.245
 3284SOL    HW111691   8.299  10.459  14.303
 3284SOL    HW211692   8.256  10.561  14.199
 3285SOL     OW11693   0.635   6.815   6.743
 3285SOL    HW111694   0.706   6.851   6.797
 3285SOL    HW211695   0.579   6.768   6.804
 3286SOL     OW11696  14.073  11.956  10.095
 3286SOL    HW111697  14.002  12.013  10.065
 3286SOL    HW211698  14.057  11.946  10.189
 3287SOL     OW11699   8.969   9.445  11.239
 3287SOL    HW111700   8.894   9.502  11.256
 3287SOL    HW211701   9.045   9.502  11.242
 3288SOL     OW11702  14.158   2.279  14.107
 3288SOL    HW111703  14.184   2.187  14.094
 3288SOL    HW211704  14.240   2.325  14.124
 3289SOL     OW11705   8.044  10.649   3.255
 3289SOL    HW111706   8.081  10.656   3.167
 3289SOL    HW211707   7.984  10.722   3.262
 3290SOL     OW11708   4.288   3.136   1.914
 3290SOL    HW111709   4.202   3.103   1.887
 3290SOL    HW211710   4.351   3.081   1.867
 3291SOL     OW11711   3.000   4.755   4.179
 3291SOL    HW111712   3.073   4.708   4.219
 3291SOL    HW211713   2.984   4.828   4.239
 3292SOL     OW11714  13.568   6.223   0.354
 3292SOL    HW111715  13.626   6.148   0.371
 3292SOL    HW211716  13.602   6.262   0.274
 3293SOL     OW11717  10.608  11.896  10.311
 3293SOL    HW111718  10.525  11.944  10.320
 3293SOL    HW211719  10.589  11.828  10.245
 3294SOL     OW11720   8.640   3.833  12.284
 3294SOL    HW111721   8.555   3.868  12.258
 3294SOL    HW211722   8.664   3.883  12.362
 3295SOL     OW11723   5.864  13.698   4.447
 3295SOL    HW111724   5.890  13.685   4.538
 3295SOL    HW211725   5.787  13.754   4.451
 3296SOL     OW11726   1.687   4.659   4.801
 3296SOL    HW111727   1.722   4.574   4.771
 3296SOL    HW211728   1.755   4.722   4.777
 3297SOL     OW11729   3.210  12.401   1.847
 3297SOL    HW111730   3.276  12.334   1.863
 3297SOL    HW211731   3.173  12.379   1.762
 3298SOL     OW11732   6.998  11.394   1.665
 3298SOL    HW111733   6.992  11.373   1.572
 3298SOL    HW211734   6.919  11.445   1.683
 3299SOL     OW11735   0.861   4.707   2.810
 3299SOL    HW111736   0.840   4.799   2.826
 3299SOL    HW211737   0.802   4.659   2.868
 3300SOL     OW11738   6.049   4.117   1.852
 3300SOL    HW111739   5.993   4.150   1.922
 3300SOL    HW211740   6.086   4.036   1.886
 3301SOL     OW11741  11.710  10.991  11.635
 3301SOL    HW111742  11.669  10.992  11.722
 3301SOL    HW211743  11.640  11.021  11.576
 3302SOL     OW11744  11.593  14.692   5.050
 3302SOL    HW111745  11.615  14.731   4.965
 3302SOL    HW211746  11.536  14.756   5.092
 3303SOL     OW11747   1.310  11.428   8.266
 3303SOL    HW111748   1.255  11.435   8.344
 3303SOL    HW211749   1.390  11.387   8.297
 3304SOL     OW11750   3.615  14.596   4.226
 3304SOL    HW111751   3.531  14.571   4.265
 3304SOL    HW211752   3.592  14.664   4.162
 3305SOL     OW11753   8.048   2.261   9.997
 3305SOL    HW111754   7.991   2.322  10.044
 3305SOL    HW211755   7.989   2.197   9.958
 3306SOL     OW11756   2.201  10.665   3.426
 3306SOL    HW111757   2.120  10.670   3.377
 3306SOL    HW211758   2.184  10.717   3.505
 3307SOL     OW11759  13.350   7.899   8.956
 3307SOL    HW111760  13.443   7.901   8.978
 3307SOL    HW211761  13.342   7.954   8.879
 3308SOL     OW11762   0.808  14.464   0.580
 3308SOL    HW111763   0.885  14.519   0.589
 3308SOL    HW211764   0.734  14.523   0.597
 3309SOL     OW11765  12.653  14.868   5.579
 3309SOL    HW111766  12.586  14.827   5.524
 3309SOL    HW211767  12.678   0.065   5.531
 3310SOL     OW11768  10.417   2.966  10.696
 3310SOL    HW111769  10.482   2.899  10.676
 3310SOL    HW211770  10.391   2.948  10.787
 3311SOL     OW11771  14.289   5.601   0.022
 3311SOL    HW111772  14.323   5.517  14.872
 3311SOL    HW211773  14.306   5.662  14.833
 3312SOL     OW11774  10.516   0.751   0.244
 3312SOL    HW111775  10.435   0.788   0.209
 3312SOL    HW211776  10.562   0.825   0.283
 3313SOL     OW11777   9.843  14.249  12.448
 3313SOL    HW111778   9.938  14.255  12.463
 3313SOL    HW211779   9.831  14.291  12.362
 3314SOL     OW11780   6.831  10.163  13.070
 3314SOL    HW111781   6.768  10.128  13.007
 3314SOL    HW211782   6.856  10.248  13.034
 3315SOL     OW11783  10.504   0.077   8.212
 3315SOL    HW111784  10.430   0.109   8.161
 3315SOL    HW211785  10.549   0.015   8.154
 3316SOL     OW11786   4.501   2.664   0.793
 3316SOL    HW111787   4.479   2.603   0.723
 3316SOL    HW211788   4.531   2.743   0.749
 3317SOL     OW11789  14.656   6.739   8.118
 3317SOL    HW111790  14.675   6.771   8.206
 3317SOL    HW211791  14.730   6.682   8.096
 3318SOL     OW11792  14.077   4.966   1.682
 3318SOL    HW111793  14.170   4.989   1.692
 3318SOL    HW211794  14.044   4.959   1.772
 3319SOL     OW11795  13.047   1.847   5.781
 3319SOL    HW111796  13.021   1.926   5.830
 3319SOL    HW211797  13.021   1.775   5.838
 3320SOL     OW11798  11.595   1.213   0.359
 3320SOL    HW111799  11.653   1.143   0.333
 3320SOL    HW211800  11.569   1.256   0.278
 3321SOL     OW11801   3.078   7.922   4.952
 3321SOL    HW111802   3.065   7.974   5.032
 3321SOL    HW211803   3.166   7.947   4.922
 3322SOL     OW11804   6.229  14.570   8.773
 3322SOL    HW111805   6.245  14.664   8.774
 3322SOL    HW211806   6.144  14.559   8.815
 3323SOL     OW11807   9.423  13.842   9.820
 3323SOL    HW111808   9.374  13.801   9.892
 3323SOL    HW211809   9.479  13.906   9.863
 3324SOL     OW11810  12.863   0.315   3.369
 3324SOL    HW111811  12.791   0.277   3.419
 3324SOL    HW211812  12.830   0.400   3.339
 3325SOL     OW11813   0.861  14.108  10.616
 3325SOL    HW111814   0.925  14.168  10.652
 3325SOL    HW211815   0.804  14.162  10.561
 3326SOL     OW11816   1.424   4.322  12.960
 3326SOL    HW111817   1.519   4.318  12.950
 3326SOL    HW211818   1.405   4.271  13.039
 3327SOL     OW11819  10.276  10.138   2.063
 3327SOL    HW111820  10.237  10.098   1.985
 3327SOL    HW211821  10.318  10.218   2.030
 3328SOL     OW11822  13.060  10.490  10.345
 3328SOL    HW111823  13.073  10.557  10.278
 3328SOL    HW211824  12.976  10.512  10.385
 3329SOL     OW11825   0.186   9.810  11.849
 3329SOL    HW111826   0.175   9.872  11.921
 3329SOL    HW211827   0.118   9.832  11.787
 3330SOL     OW11828   2.090   6.053  13.519
 3330SOL    HW111829   2.147   6.111  13.568
 3330SOL    HW211830   2.137   5.969  13.516
 3331SOL     OW11831   6.926  10.757   8.429
 3331SOL    HW111832   6.981  10.827   8.394
 3331SOL    HW211833   6.973  10.677   8.408
 3332SOL     OW11834   5.931   0.980   9.192
 3332SOL    HW111835   5.905   0.903   9.141
 3332SOL    HW211836   5.849   1.010   9.233
 3333SOL     OW11837  14.115   6.699   0.461
 3333SOL    HW111838  14.144   6.609   0.469
 3333SOL    HW211839  14.168   6.736   0.390
 3334SOL     OW11840  14.207  10.195  13.745
 3334SOL    HW111841  14.189  10.162  13.833
 3334SOL    HW211842  14.302  10.189  13.735
 3335SOL     OW11843  13.088  10.998  11.987
 3335SOL    HW111844  13.180  11.019  12.002
 3335SOL    HW211845  13.086  10.957  11.900
 3336SOL     OW11846   5.818   1.643   5.237
 3336SOL    HW111847   5.842   1.706   5.169
 3336SOL    HW211848   5.726   1.663   5.256
 3337SOL     OW11849   9.724   7.099   6.536
 3337SOL    HW111850   9.701   7.006   6.543
 3337SOL    HW211851   9.738   7.127   6.627
 3338SOL     OW11852   2.560   0.142  12.561
 3338SOL    HW111853   2.508   0.159  12.640
 3338SOL    HW211854   2.609   0.063  12.582
 3339SOL     OW11855   0.603  10.985   1.593
 3339SOL    HW111856   0.559  10.921   1.649
 3339SOL    HW211857   0.588  10.952   1.504
 3340SOL     OW11858   9.542  10.684   0.294
 3340SOL    HW111859   9.633  10.708   0.278
 3340SOL    HW211860   9.492  10.733   0.228
 3341SOL     OW11861   6.838   5.404  10.274
 3341SOL    HW111862   6.923   5.412  10.231
 3341SOL    HW211863   6.775   5.402  10.202
 3342SOL     OW11864   8.266   2.335   8.376
 3342SOL    HW111865   8.318   2.283   8.437
 3342SOL    HW211866   8.303   2.423   8.382
 3343SOL     OW11867   7.878  13.978  10.046
 3343SOL    HW111868   7.930  13.915  10.095
 3343SOL    HW211869   7.915  13.976   9.958
 3344SOL     OW11870   4.814  13.661   0.040
 3344SOL    HW111871   4.861  13.742   0.060
 3344SOL    HW211872   4.879  13.606  14.878
 3345SOL     OW11873   2.165  13.378   3.798
 3345SOL    HW111874   2.212  13.295   3.799
 3345SOL    HW211875   2.113  13.377   3.878
 3346SOL     OW11876   5.629   2.612   1.803
 3346SOL    HW111877   5.595   2.702   1.803
 3346SOL    HW211878   5.718   2.620   1.835
 3347SOL     OW11879   0.468   8.566   0.141
 3347SOL    HW111880   0.382   8.545   0.106
 3347SOL    HW211881   0.505   8.481   0.166
 3348SOL     OW11882  12.541  10.811   4.544
 3348SOL    HW111883  12.606  10.834   4.610
 3348SOL    HW211884  12.568  10.724   4.513
 3349SOL     OW11885  12.488   9.660   3.083
 3349SOL    HW111886  12.513   9.570   3.106
 3349SOL    HW211887  12.458   9.698   3.166
 3350SOL     OW11888  13.505   3.234   5.190
 3350SOL    HW111889  13.537   3.255   5.103
 3350SOL    HW211890  13.417   3.272   5.193
 3351SOL     OW11891  14.170  12.908  12.783
 3351SOL    HW111892  14.229  12.968  12.829
 3351SOL    HW211893  14.225  12.833  12.760
 3352SOL     OW11894   4.317   6.950   5.861
 3352SOL    HW111895   4.327   6.870   5.809
 3352SOL    HW211896   4.330   6.922   5.952
 3353SOL     OW11897   9.064   9.364   3.443
 3353SOL    HW111898   8.985   9.363   3.498
 3353SOL    HW211899   9.118   9.433   3.480
 3354SOL     OW11900  11.101   9.510   3.374
 3354SOL    HW111901  11.075   9.481   3.461
 3354SOL    HW211902  11.144   9.594   3.388
 3355SOL     OW11903   4.476   0.138   1.024
 3355SOL    HW111904   4.570   0.129   1.011
 3355SOL    HW211905   4.451   0.061   1.075
 3356SOL     OW11906   0.927   7.664   6.955
 3356SOL    HW111907   0.843   7.662   6.908
 3356SOL    HW211908   0.973   7.739   6.918
 3357SOL     OW11909   5.273  14.408   2.949
 3357SOL    HW111910   5.321  14.470   3.004
 3357SOL    HW211911   5.183  14.441   2.949
 3358SOL     OW11912   0.885   8.635   3.165
 3358SOL    HW111913   0.966   8.603   3.203
 3358SOL    HW211914   0.909   8.664   3.077
 3359SOL     OW11915   8.130  13.938   4.249
 3359SOL    HW111916   8.124  14.011   4.187
 3359SOL    HW211917   8.144  13.861   4.194
 3360SOL     OW11918   9.439  10.949   1.517
 3360SOL    HW111919   9.485  11.011   1.574
 3360SOL    HW211920   9.508  10.913   1.460
 3361SOL     OW11921   3.223   0.772  11.921
 3361SOL    HW111922   3.300   0.797  11.870
 3361SOL    HW211923   3.258   0.749  12.007
 3362SOL     OW11924   7.800   2.633   6.514
 3362SOL    HW111925   7.817   2.694   6.443
 3362SOL    HW211926   7.744   2.566   6.475
 3363SOL     OW11927   0.480   0.340  12.921
 3363SOL    HW111928   0.424   0.348  12.998
 3363SOL    HW211929   0.422   0.307  12.853
 3364SOL     OW11930   1.889   5.386   3.250
 3364SOL    HW111931   1.861   5.474   3.225
 3364SOL    HW211932   1.820   5.329   3.216
 3365SOL     OW11933  14.317  13.104   8.685
 3365SOL    HW111934  14.408  13.133   8.690
 3365SOL    HW211935  14.270  13.177   8.644
 3366SOL     OW11936   2.899  10.887   4.330
 3366SOL    HW111937   2.842  10.823   4.372
 3366SOL    HW211938   2.984  10.875   4.373
 3367SOL     OW11939   6.923   7.811   9.492
 3367SOL    HW111940   6.974   7.730   9.494
 3367SOL    HW211941   6.832   7.782   9.483
 3368SOL     OW11942   8.046   1.522  11.139
 3368SOL    HW111943   8.130   1.512  11.093
 3368SOL    HW211944   7.982   1.533  11.069
 3369SOL     OW11945  13.420  14.155   8.865
 3369SOL    HW111946  13.489  14.091   8.875
 3369SOL    HW211947  13.361  14.118   8.799
 3370SOL     OW11948  11.729   6.904   3.558
 3370SOL    HW111949  11.722   6.862   3.472
 3370SOL    HW211950  11.669   6.978   3.553
 3371SOL     OW11951  13.072   3.446   4.058
 3371SOL    HW111952  12.990   3.428   4.012
 3371SOL    HW211953  13.140   3.414   3.998
 3372SOL     OW11954   4.401  12.097   2.141
 3372SOL    HW111955   4.442  12.054   2.216
 3372SOL    HW211956   4.431  12.187   2.146
 3373SOL     OW11957  13.268   4.077   8.419
 3373SOL    HW111958  13.300   3.990   8.443
 3373SOL    HW211959  13.302   4.093   8.332
 3374SOL     OW11960   2.873   9.230   4.054
 3374SOL    HW111961   2.928   9.184   4.118
 3374SOL    HW211962   2.870   9.171   3.979
 3375SOL     OW11963   1.764  12.284   1.317
 3375SOL    HW111964   1.721  12.269   1.401
 3375SOL    HW211965   1.699  12.257   1.252
 3376SOL     OW11966   9.795   9.588  12.166
 3376SOL    HW111967   9.728   9.550  12.109
 3376SOL    HW211968   9.868   9.607  12.108
 3377SOL     OW11969   8.237   8.021  10.048
 3377SOL    HW111970   8.318   8.034  10.097
 3377SOL    HW211971   8.198   7.943  10.087
 3378SOL     OW11972   0.869  12.485  14.411
 3378SOL    HW111973   0.834  12.532  14.486
 3378SOL    HW211974   0.792  12.453  14.364
 3379SOL     OW11975  12.856   2.195   8.396
 3379SOL    HW111976  12.796   2.223   8.465
 3379SOL    HW211977  12.910   2.127   8.436
 3380SOL     OW11978   0.272   1.230   1.502
 3380SOL    HW111979   0.330   1.298   1.535
 3380SOL    HW211980   0.251   1.176   1.578
 3381SOL     OW11981  12.081   0.845   8.188
 3381SOL    HW111982  11.996   0.884   8.210
 3381SOL    HW211983  12.063   0.790   8.111
 3382SOL     OW11984  13.449   0.928  10.680
 3382SOL    HW111985  13.373   0.872  10.690
 3382SOL    HW211986  13.415   1.017  10.688
 3383SOL     OW11987   0.460   0.426   2.884
 3383SOL    HW111988   0.486   0.508   2.842
 3383SOL    HW211989   0.491   0.357   2.826
 3384SOL     OW11990   0.407   3.513   1.723
 3384SOL    HW111991   0.482   3.462   1.691
 3384SOL    HW211992   0.440   3.603   1.727
 3385SOL     OW11993   5.408   6.959   6.203
 3385SOL    HW111994   5.487   6.906   6.192
 3385SOL    HW211995   5.439   7.049   6.204
 3386SOL     OW11996  11.555  11.908   9.256
 3386SOL    HW111997  11.564  11.910   9.161
 3386SOL    HW211998  11.646  11.904   9.288
 3387SOL     OW11999   1.065   4.779  12.126
 3387SOL    HW112000   1.104   4.693  12.143
 3387SOL    HW212001   0.971   4.764  12.133
 3388SOL     OW12002   2.174   4.777   4.373
 3388SOL    HW112003   2.267   4.757   4.388
 3388SOL    HW212004   2.129   4.735   4.446
 3389SOL     OW12005  11.101   5.501   1.132
 3389SOL    HW112006  11.071   5.579   1.086
 3389SOL    HW212007  11.021   5.455   1.158
 3390SOL     OW12008   4.328   6.295   0.439
 3390SOL    HW112009   4.309   6.389   0.444
 3390SOL    HW212010   4.423   6.290   0.435
 3391SOL     OW12011   8.967  12.298   7.286
 3391SOL    HW112012   8.986  12.332   7.199
 3391SOL    HW212013   8.876  12.323   7.303
 3392SOL     OW12014   2.700   3.802  11.232
 3392SOL    HW112015   2.759   3.842  11.168
 3392SOL    HW212016   2.648   3.741  11.180
 3393SOL     OW12017   0.109   2.615   8.574
 3393SOL    HW112018   0.122   2.543   8.512
 3393SOL    HW212019   0.197   2.648   8.591
 3394SOL     OW12020  10.486   6.767   6.559
 3394SOL    HW112021  10.539   6.812   6.493
 3394SOL    HW212022  10.399   6.763   6.521
 3395SOL     OW12023   5.835   0.499  14.690
 3395SOL    HW112024   5.812   0.409  14.666
 3395SOL    HW212025   5.823   0.549  14.609
 3396SOL     OW12026   2.070  10.735   1.047
 3396SOL    HW112027   2.149  10.683   1.065
 3396SOL    HW212028   2.078  10.759   0.955
 3397SOL     OW12029   2.556   4.694   1.447
 3397SOL    HW112030   2.630   4.650   1.490
 3397SOL    HW212031   2.590   4.720   1.362
 3398SOL     OW12032  12.249   9.474   3.364
 3398SOL    HW112033  12.212   9.562   3.376
 3398SOL    HW212034  12.341   9.483   3.391
 3399SOL     OW12035   6.476   3.617  12.273
 3399SOL    HW112036   6.410   3.585  12.335
 3399SOL    HW212037   6.521   3.538  12.244
 3400SOL     OW12038   9.334   5.993   8.844
 3400SOL    HW112039   9.337   6.027   8.755
 3400SOL    HW212040   9.295   5.906   8.835
 3401SOL     OW12041  13.570  10.408   9.977
 3401SOL    HW112042  13.609  10.494   9.959
 3401SOL    HW212043  13.502  10.398   9.910
 3402SOL     OW12044  13.609  13.700  10.168
 3402SOL    HW112045  13.695  13.739  10.154
 3402SOL    HW212046  13.615  13.659  10.255
 3403SOL     OW12047  10.809  14.516   7.240
 3403SOL    HW112048  10.726  14.563   7.254
 3403SOL    HW212049  10.820  14.516   7.145
 3404SOL     OW12050   9.837   1.972   0.596
 3404SOL    HW112051   9.900   1.967   0.668
 3404SOL    HW212052   9.844   1.887   0.553
 3405SOL     OW12053   4.945   7.328   1.282
 3405SOL    HW112054   4.991   7.250   1.315
 3405SOL    HW212055   4.919   7.304   1.193
 3406SOL     OW12056   8.463   5.742   1.994
 3406SOL    HW112057   8.436   5.818   2.045
 3406SOL    HW212058   8.450   5.769   1.903
 3407SOL     OW12059  12.917  12.388   2.021
 3407SOL    HW112060  12.903  12.465   1.966
 3407SOL    HW212061  12.990  12.412   2.078
 3408SOL     OW12062   3.492   5.143  11.230
 3408SOL    HW112063   3.482   5.191  11.313
 3408SOL    HW212064   3.408   5.154  11.186
 3409SOL     OW12065  11.194   0.576   3.551
 3409SOL    HW112066  11.123   0.623   3.594
 3409SOL    HW212067  11.254   0.552   3.622
 3410SOL     OW12068   3.266  13.176  10.604
 3410SOL    HW112069   3.314  13.198  10.684
 3410SOL    HW212070   3.334  13.164  10.537
 3411SOL     OW12071   6.563   6.761  10.078
 3411SOL    HW112072   6.609   6.772   9.995
 3411SOL    HW212073   6.508   6.838  10.086
 3412SOL     OW12074   1.830   9.389  11.009
 3412SOL    HW112075   1.887   9.390  10.932
 3412SOL    HW212076   1.818   9.481  11.031
 3413SOL     OW12077  12.296   6.030   4.186
 3413SOL    HW112078  12.364   6.044   4.252
 3413SOL    HW212079  12.249   5.952   4.215
 3414SOL     OW12080  12.333  12.670  13.655
 3414SOL    HW112081  12.404  12.608  13.638
 3414SOL    HW212082  12.275  12.661  13.580
 3415SOL     OW12083  13.281  12.977  12.604
 3415SOL    HW112084  13.297  12.989  12.510
 3415SOL    HW212085  13.228  12.898  12.609
 3416SOL     OW12086   9.722  10.213   9.960
 3416SOL    HW112087   9.736  10.296   9.914
 3416SOL    HW212088   9.689  10.154   9.892
 3417SOL     OW12089   2.884   9.212   4.464
 3417SOL    HW112090   2.801   9.180   4.427
 3417SOL    HW212091   2.862   9.295   4.504
 3418SOL     OW12092  13.608  13.276   6.335
 3418SOL    HW112093  13.679  13.298   6.396
 3418SOL    HW212094  13.559  13.357   6.325
 3419SOL     OW12095   1.209  10.723   9.263
 3419SOL    HW112096   1.288  10.693   9.307
 3419SOL    HW212097   1.145  10.653   9.277
 3420SOL     OW12098   5.832   8.520   9.523
 3420SOL    HW112099   5.805   8.517   9.432
 3420SOL    HW212100   5.750   8.523   9.572
 3421SOL     OW12101  13.455   5.224   0.347
 3421SOL    HW112102  13.418   5.192   0.265
 3421SOL    HW212103  13.541   5.182   0.353
 3422SOL     OW12104  14.116   7.047   6.568
 3422SOL    HW112105  14.059   6.978   6.534
 3422SOL    HW212106  14.060   7.125   6.570
 3423SOL     OW12107   7.055  11.128   7.105
 3423SOL    HW112108   7.114  11.108   7.033
 3423SOL    HW212109   7.095  11.086   7.181
 3424SOL     OW12110   7.301   4.053  10.856
 3424SOL    HW112111   7.307   4.046  10.760
 3424SOL    HW212112   7.208   4.064  10.873
 3425SOL     OW12113  13.435   2.974  12.860
 3425SOL    HW112114  13.344   3.004  12.867
 3425SOL    HW212115  13.431   2.880  12.878
 3426SOL     OW12116   0.998   2.427   8.780
 3426SOL    HW112117   0.953   2.343   8.777
 3426SOL    HW212118   1.044   2.433   8.696
 3427SOL     OW12119   4.101   3.139   2.859
 3427SOL    HW112120   4.118   3.111   2.949
 3427SOL    HW212121   4.058   3.224   2.868
 3428SOL     OW12122  10.388   9.270   1.274
 3428SOL    HW112123  10.399   9.348   1.327
 3428SOL    HW212124  10.465   9.269   1.216
 3429SOL     OW12125  11.778  10.417  14.047
 3429SOL    HW112126  11.840  10.452  14.112
 3429SOL    HW212127  11.693  10.425  14.090
 3430SOL     OW12128   8.327   0.367   2.346
 3430SOL    HW112129   8.421   0.369   2.363
 3430SOL    HW212130   8.316   0.295   2.284
 3431SOL     OW12131   4.730  11.381   9.346
 3431SOL    HW112132   4.723  11.401   9.439
 3431SOL    HW212133   4.721  11.285   9.341
 3432SOL     OW12134   0.657   2.727  11.141
 3432SOL    HW112135   0.703   2.678  11.209
 3432SOL    HW212136   0.615   2.660  11.087
 3433SOL     OW12137  11.203   2.275   2.841
 3433SOL    HW112138  11.115   2.266   2.805
 3433SOL    HW212139  11.228   2.187   2.867
 3434SOL     OW12140  14.549   8.868   6.139
 3434SOL    HW112141  14.585   8.838   6.055
 3434SOL    HW212142  14.599   8.947   6.160
 3435SOL     OW12143  13.429  11.823   4.232
 3435SOL    HW112144  13.421  11.878   4.310
 3435SOL    HW212145  13.488  11.752   4.260
 3436SOL     OW12146   2.007  10.389   1.537
 3436SOL    HW112147   2.011  10.466   1.594
 3436SOL    HW212148   1.940  10.410   1.472
 3437SOL     OW12149   8.323   1.093  12.836
 3437SOL    HW112150   8.397   1.101  12.775
 3437SOL    HW212151   8.287   1.006  12.818
 3438SOL     OW12152  14.552   4.371   3.908
 3438SOL    HW112153  14.459   4.358   3.926
 3438SOL    HW212154  14.561   4.465   3.892
 3439SOL     OW12155   2.245   3.844   5.430
 3439SOL    HW112156   2.164   3.826   5.381
 3439SOL    HW212157   2.216   3.852   5.521
 3440SOL     OW12158   1.505   3.467   8.753
 3440SOL    HW112159   1.443   3.454   8.826
 3440SOL    HW212160   1.552   3.384   8.748
 3441SOL     OW12161  12.198   7.971  11.216
 3441SOL    HW112162  12.135   7.952  11.286
 3441SOL    HW212163  12.251   7.892  11.210
 3442SOL     OW12164   8.702   0.643   7.641
 3442SOL    HW112165   8.658   0.678   7.563
 3442SOL    HW212166   8.653   0.564   7.663
 3443SOL     OW12167  10.930   0.254  11.281
 3443SOL    HW112168  10.938   0.292  11.193
 3443SOL    HW212169  10.918   0.330  11.338
 3444SOL     OW12170   8.814   8.146   3.971
 3444SOL    HW112171   8.809   8.051   3.980
 3444SOL    HW212172   8.834   8.159   3.878
 3445SOL     OW12173   5.843  14.089   6.230
 3445SOL    HW112174   5.787  14.032   6.176
 3445SOL    HW212175   5.786  14.119   6.300
 3446SOL     OW12176  13.118   4.760   7.123
 3446SOL    HW112177  13.176   4.776   7.048
 3446SOL    HW212178  13.177   4.756   7.198
 3447SOL     OW12179  11.752   5.022   5.973
 3447SOL    HW112180  11.810   5.097   5.983
 3447SOL    HW212181  11.689   5.049   5.905
 3448SOL     OW12182   7.401  13.190  14.464
 3448SOL    HW112183   7.458  13.204  14.389
 3448SOL    HW212184   7.331  13.254  14.454
 3449SOL     OW12185  14.495  14.715  11.211
 3449SOL    HW112186  14.577  14.708  11.162
 3449SOL    HW212187  14.448  14.787  11.169
 3450SOL     OW12188   0.651   3.259  10.858
 3450SOL    HW112189   0.639   3.283  10.766
 3450SOL    HW212190   0.738   3.221  10.862
 3451SOL     OW12191   5.530   6.948  13.359
 3451SOL    HW112192   5.488   6.934  13.444
 3451SOL    HW212193   5.478   7.017  13.318
 3452SOL     OW12194   6.466   7.380   9.172
 3452SOL    HW112195   6.559   7.401   9.182
 3452SOL    HW212196   6.421   7.463   9.191
 3453SOL     OW12197   4.132   5.893  14.638
 3453SOL    HW112198   4.050   5.921  14.678
 3453SOL    HW212199   4.110   5.876  14.547
 3454SOL     OW12200   4.995   0.393   3.553
 3454SOL    HW112201   5.039   0.418   3.634
 3454SOL    HW212202   4.907   0.367   3.580
 3455SOL     OW12203  12.472   3.610  13.751
 3455SOL    HW112204  12.509   3.600  13.663
 3455SOL    HW212205  12.431   3.696  13.751
 3456SOL     OW12206   8.109   6.884   6.080
 3456SOL    HW112207   8.049   6.958   6.086
 3456SOL    HW212208   8.195   6.922   6.100
 3457SOL     OW12209  13.752   3.873   2.690
 3457SOL    HW112210  13.766   3.944   2.628
 3457SOL    HW212211  13.806   3.801   2.656
 3458SOL     OW12212  11.527   7.585  11.886
 3458SOL    HW112213  11.542   7.676  11.859
 3458SOL    HW212214  11.503   7.592  11.978
 3459SOL     OW12215   6.648  11.285   7.469
 3459SOL    HW112216   6.696  11.310   7.390
 3459SOL    HW212217   6.652  11.189   7.471
 3460SOL     OW12218   6.567   0.348   4.026
 3460SOL    HW112219   6.650   0.312   4.061
 3460SOL    HW212220   6.520   0.271   3.995
 3461SOL     OW12221   4.840  12.211  11.800
 3461SOL    HW112222   4.878  12.148  11.739
 3461SOL    HW212223   4.750  12.223  11.770
 3462SOL     OW12224   1.547   5.342   4.878
 3462SOL    HW112225   1.569   5.386   4.960
 3462SOL    HW212226   1.622   5.284   4.861
 3463SOL     OW12227   3.446   3.448   3.031
 3463SOL    HW112228   3.510   3.384   3.001
 3463SOL    HW212229   3.496   3.528   3.045
 3464SOL     OW12230   4.109   1.311   7.003
 3464SOL    HW112231   4.185   1.310   6.946
 3464SOL    HW212232   4.037   1.281   6.947
 3465SOL     OW12233   2.591   8.808   2.788
 3465SOL    HW112234   2.596   8.734   2.728
 3465SOL    HW212235   2.656   8.788   2.856
 3466SOL     OW12236  11.289   7.641   4.448
 3466SOL    HW112237  11.376   7.629   4.485
 3466SOL    HW212238  11.267   7.733   4.466
 3467SOL     OW12239   7.359  13.570  13.194
 3467SOL    HW112240   7.384  13.646  13.140
 3467SOL    HW212241   7.400  13.496  13.151
 3468SOL     OW12242  10.902   5.381  10.038
 3468SOL    HW112243  10.892   5.286  10.035
 3468SOL    HW212244  10.966   5.396  10.108
 3469SOL     OW12245   3.166   0.035   4.155
 3469SOL    HW112246   3.155   0.121   4.197
 3469SOL    HW212247   3.209   0.055   4.072
 3470SOL     OW12248   6.126  11.527  14.024
 3470SOL    HW112249   6.033  11.514  14.006
 3470SOL    HW212250   6.152  11.597  13.964
 3471SOL     OW12251   4.258  13.778   4.071
 3471SOL    HW112252   4.272  13.862   4.028
 3471SOL    HW212253   4.166  13.778   4.095
 3472SOL     OW12254  10.677  11.934   1.461
 3472SOL    HW112255  10.638  11.852   1.492
 3472SOL    HW212256  10.633  12.002   1.512
 3473SOL     OW12257   2.090   7.211   6.091
 3473SOL    HW112258   2.118   7.183   6.178
 3473SOL    HW212259   2.142   7.159   6.030
 3474SOL     OW12260  11.057   0.596   6.918
 3474SOL    HW112261  11.061   0.514   6.968
 3474SOL    HW212262  11.148   0.622   6.907
 3475SOL     OW12263  12.980  11.341  11.165
 3475SOL    HW112264  12.929  11.260  11.163
 3475SOL    HW212265  13.048  11.324  11.230
 3476SOL     OW12266   6.282   9.465   0.645
 3476SOL    HW112267   6.296   9.511   0.563
 3476SOL    HW212268   6.315   9.376   0.629
 3477SOL     OW12269   7.999   7.720   6.326
 3477SOL    HW112270   8.059   7.675   6.386
 3477SOL    HW212271   7.912   7.689   6.351
 3478SOL     OW12272   5.900  12.294   0.241
 3478SOL    HW112273   5.908  12.284   0.146
 3478SOL    HW212274   5.984  12.264   0.275
 3479SOL     OW12275  10.999  14.428   7.854
 3479SOL    HW112276  10.915  14.469   7.873
 3479SOL    HW212277  11.017  14.374   7.931
 3480SOL     OW12278   3.747  10.571   4.189
 3480SOL    HW112279   3.744  10.661   4.220
 3480SOL    HW212280   3.660  10.536   4.207
 3481SOL     OW12281  13.869   3.995   8.487
 3481SOL    HW112282  13.846   3.950   8.568
 3481SOL    HW212283  13.796   3.977   8.428
 3482SOL     OW12284   8.233   9.965  12.763
 3482SOL    HW112285   8.252   9.873  12.777
 3482SOL    HW212286   8.318  10.005  12.744
 3483SOL     OW12287  13.011   3.857   8.348
 3483SOL    HW112288  13.017   3.766   8.378
 3483SOL    HW212289  13.099   3.878   8.318
 3484SOL     OW12290   7.324   5.894   3.586
 3484SOL    HW112291   7.379   5.854   3.653
 3484SOL    HW212292   7.382   5.906   3.511
 3485SOL     OW12293   4.021   4.474   7.545
 3485SOL    HW112294   3.956   4.529   7.589
 3485SOL    HW212295   4.102   4.525   7.551
 3486SOL     OW12296   7.309   5.480   4.316
 3486SOL    HW112297   7.382   5.418   4.308
 3486SOL    HW212298   7.347   5.565   4.297
 3487SOL     OW12299   8.091  14.878   9.907
 3487SOL    HW112300   8.020   0.057   9.885
 3487SOL    HW212301   8.153   0.049   9.957
 3488SOL     OW12302  12.482   6.388  12.270
 3488SOL    HW112303  12.515   6.387  12.360
 3488SOL    HW212304  12.489   6.480  12.244
 3489SOL     OW12305   7.345   7.166   5.976
 3489SOL    HW112306   7.256   7.199   5.966
 3489SOL    HW212307   7.334   7.080   6.019
 3490SOL     OW12308  13.224  14.698   5.452
 3490SOL    HW112309  13.201  14.607   5.432
 3490SOL    HW212310  13.142  14.746   5.440
 3491SOL     OW12311   8.485  10.732   6.123
 3491SOL    HW112312   8.547  10.674   6.078
 3491SOL    HW212313   8.443  10.675   6.188
 3492SOL     OW12314   6.118  14.115  12.906
 3492SOL    HW112315   6.146  14.032  12.945
 3492SOL    HW212316   6.042  14.141  12.958
 3493SOL     OW12317  10.267   3.473  14.338
 3493SOL    HW112318  10.302   3.391  14.304
 3493SOL    HW212319  10.189   3.490  14.284
 3494SOL     OW12320   6.687   4.377   3.968
 3494SOL    HW112321   6.768   4.332   3.946
 3494SOL    HW212322   6.701   4.468   3.942
 3495SOL     OW12323   0.533   1.366  14.547
 3495SOL    HW112324   0.570   1.417  14.619
 3495SOL    HW212325   0.521   1.278  14.584
 3496SOL     OW12326   9.595   4.215  11.945
 3496SOL    HW112327   9.623   4.137  11.993
 3496SOL    HW212328   9.667   4.277  11.957
 3497SOL     OW12329  13.739   4.305  12.624
 3497SOL    HW112330  13.766   4.299  12.716
 3497SOL    HW212331  13.818   4.288  12.574
 3498SOL     OW12332   4.814  13.260   5.973
 3498SOL    HW112333   4.822  13.181   6.027
 3498SOL    HW212334   4.830  13.229   5.884
 3499SOL     OW12335   7.797   0.383   1.277
 3499SOL    HW112336   7.723   0.328   1.302
 3499SOL    HW212337   7.860   0.373   1.348
 3500SOL     OW12338  11.717  10.958  12.429
 3500SOL    HW112339  11.670  10.949  12.511
 3500SOL    HW212340  11.785  10.890  12.432
 3501SOL     OW12341   1.229   3.084   7.601
 3501SOL    HW112342   1.196   3.174   7.594
 3501SOL    HW212343   1.167   3.032   7.549
 3502SOL     OW12344   8.151   5.992   1.049
 3502SOL    HW112345   8.060   5.976   1.074
 3502SOL    HW212346   8.201   5.934   1.107
 3503SOL     OW12347   0.426   0.392  14.864
 3503SOL    HW112348   0.464   0.354  14.785
 3503SOL    HW212349   0.502   0.417   0.035
 3504SOL     OW12350   0.663   5.960  12.850
 3504SOL    HW112351   0.661   5.866  12.835
 3504SOL    HW212352   0.633   5.971  12.940
 3505SOL     OW12353   8.363   5.257   8.969
 3505SOL    HW112354   8.308   5.243   9.046
 3505SOL    HW212355   8.391   5.348   8.976
 3506SOL     OW12356  12.341   5.012   9.518
 3506SOL    HW112357  12.321   5.105   9.527
 3506SOL    HW212358  12.355   4.999   9.424
 3507SOL     OW12359  10.979  10.612   5.654
 3507SOL    HW112360  10.919  10.676   5.692
 3507SOL    HW212361  10.960  10.530   5.701
 3508SOL     OW12362   0.057   3.871   9.253
 3508SOL    HW112363   0.150   3.883   9.273
 3508SOL    HW212364   0.033   3.789   9.295
 3509SOL     OW12365  13.388  12.644  11.972
 3509SOL    HW112366  13.355  12.569  11.922
 3509SOL    HW212367  13.483  12.640  11.960
 3510SOL     OW12368   2.674   2.386   4.711
 3510SOL    HW112369   2.590   2.359   4.748
 3510SOL    HW212370   2.688   2.474   4.747
 3511SOL     OW12371  14.736   9.211  12.941
 3511SOL    HW112372  14.679   9.286  12.925
 3511SOL    HW212373  14.770   9.189  12.854
 3512SOL     OW12374   4.139   8.938   9.223
 3512SOL    HW112375   4.086   8.858   9.218
 3512SOL    HW212376   4.135   8.975   9.135
 3513SOL     OW12377  10.214  14.437  12.874
 3513SOL    HW112378  10.225  14.458  12.781
 3513SOL    HW212379  10.303  14.431  12.907
 3514SOL     OW12380   1.936   8.621   5.041
 3514SOL    HW112381   1.961   8.580   4.958
 3514SOL    HW212382   1.888   8.700   5.016
 3515SOL     OW12383  10.616   0.335  13.586
 3515SOL    HW112384  10.680   0.310  13.519
 3515SOL    HW212385  10.631   0.429  13.600
 3516SOL     OW12386   3.254   2.035   5.177
 3516SOL    HW112387   3.255   1.940   5.193
 3516SOL    HW212388   3.306   2.047   5.098
 3517SOL     OW12389   0.846   8.210   7.898
 3517SOL    HW112390   0.842   8.302   7.926
 3517SOL    HW212391   0.756   8.179   7.906
 3518SOL     OW12392   3.927   9.408  12.493
 3518SOL    HW112393   3.930   9.498  12.460
 3518SOL    HW212394   4.003   9.401  12.551
 3519SOL     OW12395   9.986   1.585   7.343
 3519SOL    HW112396   9.890   1.591   7.338
 3519SOL    HW212397  10.002   1.501   7.386
 3520SOL     OW12398   5.342   3.941   2.705
 3520SOL    HW112399   5.410   3.987   2.753
 3520SOL    HW212400   5.294   3.892   2.771
 3521SOL     OW12401   0.441   7.302  10.132
 3521SOL    HW112402   0.365   7.287  10.075
 3521SOL    HW212403   0.404   7.341  10.211
 3522SOL     OW12404   0.597   7.787   2.529
 3522SOL    HW112405   0.679   7.741   2.511
 3522SOL    HW212406   0.610   7.825   2.616
 3523SOL     OW12407   0.113  10.800  10.962
 3523SOL    HW112408   0.145  10.775  10.875
 3523SOL    HW212409   0.103  10.895  10.957
 3524SOL     OW12410   4.451   3.289  13.156
 3524SOL    HW112411   4.435   3.384  13.157
 3524SOL    HW212412   4.539   3.280  13.120
 3525SOL     OW12413   4.604   5.536   2.180
 3525SOL    HW112414   4.667   5.474   2.143
 3525SOL    HW212415   4.629   5.544   2.272
 3526SOL     OW12416   9.988   1.825   9.712
 3526SOL    HW112417  10.029   1.778   9.639
 3526SOL    HW212418  10.008   1.772   9.789
 3527SOL     OW12419   3.851   8.421   0.894
 3527SOL    HW112420   3.898   8.454   0.818
 3527SOL    HW212421   3.918   8.385   0.951
 3528SOL     OW12422   6.909  11.549   2.322
 3528SOL    HW112423   6.935  11.527   2.233
 3528SOL    HW212424   6.898  11.464   2.366
 3529SOL     OW12425   6.202  12.317  14.680
 3529SOL    HW112426   6.109  12.332  14.663
 3529SOL    HW212427   6.204  12.272  14.765
 3530SOL     OW12428   1.652   0.491   3.139
 3530SOL    HW112429   1.588   0.476   3.070
 3530SOL    HW212430   1.605   0.473   3.221
 3531SOL     OW12431   7.393  10.393  12.907
 3531SOL    HW112432   7.468  10.446  12.880
 3531SOL    HW212433   7.385  10.409  13.001
 3532SOL     OW12434   4.545   3.104   9.707
 3532SOL    HW112435   4.455   3.105   9.739
 3532SOL    HW212436   4.552   3.182   9.652
 3533SOL     OW12437   0.587   6.538   3.236
 3533SOL    HW112438   0.668   6.489   3.237
 3533SOL    HW212439   0.592   6.592   3.156
 3534SOL     OW12440   2.537  11.778  12.732
 3534SOL    HW112441   2.539  11.683  12.722
 3534SOL    HW212442   2.505  11.811  12.648
 3535SOL     OW12443   4.316   0.225  13.553
 3535SOL    HW112444   4.349   0.237  13.642
 3535SOL    HW212445   4.277   0.138  13.553
 3536SOL     OW12446   2.503   6.571   5.068
 3536SOL    HW112447   2.422   6.533   5.101
 3536SOL    HW212448   2.568   6.502   5.079
 3537SOL     OW12449  11.754   2.898   3.866
 3537SOL    HW112450  11.687   2.934   3.808
 3537SOL    HW212451  11.798   2.975   3.903
 3538SOL     OW12452   3.478   0.547   2.440
 3538SOL    HW112453   3.416   0.620   2.433
 3538SOL    HW212454   3.442   0.479   2.384
 3539SOL     OW12455   1.109  13.667  14.152
 3539SOL    HW112456   1.048  13.613  14.103
 3539SOL    HW212457   1.154  13.720  14.086
 3540SOL     OW12458  12.662   1.100  13.641
 3540SOL    HW112459  12.672   1.188  13.605
 3540SOL    HW212460  12.576   1.102  13.683
 3541SOL     OW12461   9.017   3.602  13.348
 3541SOL    HW112462   8.938   3.652  13.325
 3541SOL    HW212463   9.060   3.655  13.415
 3542SOL     OW12464  14.020   6.550   5.950
 3542SOL    HW112465  14.080   6.493   5.998
 3542SOL    HW212466  14.039   6.638   5.983
 3543SOL     OW12467   2.538  12.870  12.345
 3543SOL    HW112468   2.487  12.899  12.421
 3543SOL    HW212469   2.629  12.890  12.368
 3544SOL     OW12470   0.991   5.387  12.309
 3544SOL    HW112471   0.915   5.386  12.367
 3544SOL    HW212472   1.059   5.432  12.360
 3545SOL     OW12473   1.954   1.204   9.452
 3545SOL    HW112474   2.004   1.195   9.370
 3545SOL    HW212475   2.016   1.179   9.520
 3546SOL     OW12476   9.372  14.135   1.080
 3546SOL    HW112477   9.386  14.084   1.000
 3546SOL    HW212478   9.408  14.221   1.059
 3547SOL     OW12479   7.655   4.859  10.673
 3547SOL    HW112480   7.580   4.840  10.616
 3547SOL    HW212481   7.726   4.805  10.636
 3548SOL     OW12482   7.978   7.263   4.687
 3548SOL    HW112483   7.953   7.308   4.768
 3548SOL    HW212484   8.062   7.221   4.708
 3549SOL     OW12485   1.829  14.219   5.621
 3549SOL    HW112486   1.872  14.137   5.597
 3549SOL    HW212487   1.736  14.203   5.606
 3550SOL     OW12488   0.581   7.476   8.362
 3550SOL    HW112489   0.512   7.460   8.298
 3550SOL    HW212490   0.541   7.536   8.426
 3551SOL     OW12491   9.022  13.052   9.521
 3551SOL    HW112492   8.944  13.077   9.571
 3551SOL    HW212493   9.088  13.030   9.587
 3552SOL     OW12494  10.470  13.560  14.679
 3552SOL    HW112495  10.426  13.638  14.709
 3552SOL    HW212496  10.560  13.570  14.709
 3553SOL     OW12497  12.301   0.438  10.554
 3553SOL    HW112498  12.233   0.505  10.551
 3553SOL    HW212499  12.282   0.389  10.634
 3554SOL     OW12500   3.315   8.882   8.510
 3554SOL    HW112501   3.247   8.826   8.471
 3554SOL    HW212502   3.397   8.843   8.481
 3555SOL     OW12503   7.914  10.927   3.025
 3555SOL    HW112504   7.982  10.969   2.972
 3555SOL    HW212505   7.862  10.877   2.961
 3556SOL     OW12506  12.641   3.510   8.131
 3556SOL    HW112507  12.600   3.430   8.097
 3556SOL    HW212508  12.571   3.574   8.136
 3557SOL     OW12509   9.955  12.959   8.919
 3557SOL    HW112510   9.861  12.962   8.936
 3557SOL    HW212511   9.988  12.890   8.977
 3558SOL     OW12512   6.528   7.805   7.930
 3558SOL    HW112513   6.434   7.788   7.933
 3558SOL    HW212514   6.551   7.833   8.018
 3559SOL     OW12515   0.584  11.780   9.673
 3559SOL    HW112516   0.554  11.851   9.731
 3559SOL    HW212517   0.665  11.749   9.713
 3560SOL     OW12518   6.685   5.986  11.342
 3560SOL    HW112519   6.667   5.950  11.255
 3560SOL    HW212520   6.660   6.079  11.334
 3561SOL     OW12521   2.958   8.388   6.411
 3561SOL    HW112522   2.955   8.296   6.384
 3561SOL    HW212523   2.983   8.385   6.503
 3562SOL     OW12524   2.436   9.449   8.321
 3562SOL    HW112525   2.396   9.532   8.345
 3562SOL    HW212526   2.365   9.385   8.329
 3563SOL     OW12527  12.471  13.839  11.870
 3563SOL    HW112528  12.497  13.792  11.950
 3563SOL    HW212529  12.481  13.931  11.893
 3564SOL     OW12530   2.249  13.488   8.389
 3564SOL    HW112531   2.281  13.541   8.316
 3564SOL    HW212532   2.328  13.451   8.428
 3565SOL     OW12533   8.453  13.948   3.614
 3565SOL    HW112534   8.466  13.908   3.700
 3565SOL    HW212535   8.407  14.030   3.633
 3566SOL     OW12536  13.351   1.132  14.871
 3566SOL    HW112537  13.354   1.069  14.799
 3566SOL    HW212538  13.276   1.188  14.850
 3567SOL     OW12539  12.811   2.071   5.136
 3567SOL    HW112540  12.771   2.153   5.105
 3567SOL    HW212541  12.807   2.012   5.060
 3568SOL     OW12542   0.002  11.031  10.663
 3568SOL    HW112543   0.094  11.044  10.687
 3568SOL    HW212544  14.858  11.112  10.620
 3569SOL     OW12545   3.444  12.411  13.955
 3569SOL    HW112546   3.367  12.365  13.921
 3569SOL    HW212547   3.514  12.387  13.894
 3570SOL     OW12548   3.166  12.438  11.429
 3570SOL    HW112549   3.168  12.363  11.489
 3570SOL    HW212550   3.092  12.490  11.458
 3571SOL     OW12551   0.680   5.092   6.090
 3571SOL    HW112552   0.636   5.135   6.017
 3571SOL    HW212553   0.771   5.086   6.062
 3572SOL     OW12554   7.761  11.519   4.472
 3572SOL    HW112555   7.688  11.546   4.416
 3572SOL    HW212556   7.763  11.584   4.542
 3573SOL     OW12557  14.202   8.477   5.120
 3573SOL    HW112558  14.271   8.525   5.165
 3573SOL    HW212559  14.211   8.387   5.150
 3574SOL     OW12560   8.600   5.697   9.836
 3574SOL    HW112561   8.550   5.665   9.911
 3574SOL    HW212562   8.624   5.787   9.860
 3575SOL     OW12563   6.333  12.793  14.327
 3575SOL    HW112564   6.377  12.839  14.399
 3575SOL    HW212565   6.261  12.747  14.369
 3576SOL     OW12566  13.968   5.125   3.167
 3576SOL    HW112567  14.020   5.144   3.088
 3576SOL    HW212568  14.011   5.176   3.236
 3577SOL     OW12569  14.606   7.073  14.790
 3577SOL    HW112570  14.524   7.096  14.834
 3577SOL    HW212571  14.588   7.083  14.697
 3578SOL     OW12572   6.399   7.832   9.515
 3578SOL    HW112573   6.353   7.802   9.437
 3578SOL    HW212574   6.374   7.924   9.524
 3579SOL     OW12575   9.600  10.746   5.703
 3579SOL    HW112576   9.670  10.810   5.692
 3579SOL    HW212577   9.539  10.786   5.766
 3580SOL     OW12578   1.826   3.740   0.826
 3580SOL    HW112579   1.850   3.664   0.774
 3580SOL    HW212580   1.887   3.740   0.899
 3581SOL     OW12581   3.687   1.304   5.427
 3581SOL    HW112582   3.650   1.217   5.416
 3581SOL    HW212583   3.654   1.334   5.512
 3582SOL     OW12584   1.159   4.457  10.562
 3582SOL    HW112585   1.144   4.398  10.488
 3582SOL    HW212586   1.075   4.501  10.574
 3583SOL     OW12587  11.066   2.320   6.946
 3583SOL    HW112588  10.982   2.336   6.987
 3583SOL    HW212589  11.117   2.272   7.012
 3584SOL     OW12590   0.719  10.177  10.769
 3584SOL    HW112591   0.787  10.193  10.703
 3584SOL    HW212592   0.637  10.175  10.720
 3585SOL     OW12593  10.706   2.418   3.355
 3585SOL    HW112594  10.705   2.336   3.403
 3585SOL    HW212595  10.776   2.409   3.291
 3586SOL     OW12596  10.128   7.764  12.987
 3586SOL    HW112597  10.103   7.751  13.078
 3586SOL    HW212598  10.050   7.802  12.946
 3587SOL     OW12599   1.084   5.063   4.753
 3587SOL    HW112600   1.050   5.076   4.841
 3587SOL    HW212601   1.178   5.073   4.761
 3588SOL     OW12602   3.339  14.764   4.784
 3588SOL    HW112603   3.427  14.728   4.794
 3588SOL    HW212604   3.282  14.701   4.829
 3589SOL     OW12605   4.857   9.164   8.089
 3589SOL    HW112606   4.913   9.086   8.089
 3589SOL    HW212607   4.821   9.167   8.178
 3590SOL     OW12608  10.389   8.158   6.872
 3590SOL    HW112609  10.362   8.195   6.788
 3590SOL    HW212610  10.348   8.215   6.937
 3591SOL     OW12611   6.276  13.951   5.077
 3591SOL    HW112612   6.301  13.859   5.069
 3591SOL    HW212613   6.358  13.998   5.089
 3592SOL     OW12614   4.760   9.409   8.461
 3592SOL    HW112615   4.827   9.475   8.445
 3592SOL    HW212616   4.679   9.450   8.431
 3593SOL     OW12617   0.318   8.429   3.953
 3593SOL    HW112618   0.391   8.374   3.980
 3593SOL    HW212619   0.353   8.484   3.884
 3594SOL     OW12620  10.953   6.333   6.138
 3594SOL    HW112621  10.869   6.295   6.165
 3594SOL    HW212622  10.935   6.427   6.133
 3595SOL     OW12623   2.622   0.767  13.624
 3595SOL    HW112624   2.609   0.817  13.705
 3595SOL    HW212625   2.546   0.788  13.570
 3596SOL     OW12626  13.767   7.872   3.888
 3596SOL    HW112627  13.790   7.812   3.959
 3596SOL    HW212628  13.673   7.864   3.878
 3597SOL     OW12629   3.031   7.791   7.618
 3597SOL    HW112630   2.941   7.787   7.652
 3597SOL    HW212631   3.063   7.877   7.646
 3598SOL     OW12632   9.775  10.542   2.991
 3598SOL    HW112633   9.789  10.461   3.040
 3598SOL    HW212634   9.685  10.568   3.014
 3599SOL     OW12635   3.054   0.558   2.509
 3599SOL    HW112636   2.987   0.562   2.441
 3599SOL    HW212637   3.061   0.648   2.542
 3600SOL     OW12638   3.515   1.681   1.284
 3600SOL    HW112639   3.442   1.623   1.262
 3600SOL    HW212640   3.577   1.625   1.330
 3601SOL     OW12641   0.296   6.476   8.368
 3601SOL    HW112642   0.339   6.399   8.331
 3601SOL    HW212643   0.257   6.520   8.293
 3602SOL     OW12644   1.630  10.906  14.492
 3602SOL    HW112645   1.582  10.827  14.519
 3602SOL    HW212646   1.590  10.976  14.543
 3603SOL     OW12647   6.276   8.606   7.155
 3603SOL    HW112648   6.211   8.636   7.092
 3603SOL    HW212649   6.236   8.620   7.241
 3604SOL     OW12650   8.401   7.150   7.983
 3604SOL    HW112651   8.394   7.237   8.024
 3604SOL    HW212652   8.326   7.145   7.924
 3605SOL     OW12653   4.125   2.490   9.254
 3605SOL    HW112654   4.163   2.405   9.275
 3605SOL    HW212655   4.181   2.553   9.299
 3606SOL     OW12656  13.801   0.752   1.652
 3606SOL    HW112657  13.847   0.817   1.598
 3606SOL    HW212658  13.821   0.668   1.610
 3607SOL     OW12659  10.441   2.822   2.614
 3607SOL    HW112660  10.358   2.837   2.568
 3607SOL    HW212661  10.508   2.837   2.548
 3608SOL     OW12662   0.626   6.003   1.915
 3608SOL    HW112663   0.599   6.063   1.984
 3608SOL    HW212664   0.638   5.919   1.959
 3609SOL     OW12665   0.289  10.178   9.323
 3609SOL    HW112666   0.223  10.219   9.378
 3609SOL    HW212667   0.289  10.086   9.350
 3610SOL     OW12668   0.070   9.847   9.480
 3610SOL    HW112669   0.156   9.883   9.461
 3610SOL    HW212670   0.010   9.898   9.425
 3611SOL     OW12671   6.756   0.646   9.534
 3611SOL    HW112672   6.666   0.653   9.502
 3611SOL    HW212673   6.757   0.700   9.613
 3612SOL     OW12674   1.165   8.356  10.946
 3612SOL    HW112675   1.240   8.400  10.986
 3612SOL    HW212676   1.146   8.282  11.005
 3613SOL     OW12677   1.889  11.622   2.605
 3613SOL    HW112678   1.913  11.529   2.600
 3613SOL    HW212679   1.969  11.666   2.634
 3614SOL     OW12680   0.165  10.872   9.841
 3614SOL    HW112681   0.201  10.832   9.920
 3614SOL    HW212682   0.096  10.930   9.873
 3615SOL     OW12683   3.354  13.946   1.368
 3615SOL    HW112684   3.438  13.976   1.401
 3615SOL    HW212685   3.289  13.993   1.420
 3616SOL     OW12686  13.501   6.171   8.568
 3616SOL    HW112687  13.556   6.207   8.499
 3616SOL    HW212688  13.481   6.082   8.539
 3617SOL     OW12689   7.720   5.578  12.391
 3617SOL    HW112690   7.774   5.511  12.432
 3617SOL    HW212691   7.687   5.630  12.465
 3618SOL     OW12692  10.780   9.286   6.344
 3618SOL    HW112693  10.713   9.298   6.277
 3618SOL    HW212694  10.744   9.329   6.422
 3619SOL     OW12695   9.629   8.601   3.254
 3619SOL    HW112696   9.537   8.627   3.260
 3619SOL    HW212697   9.665   8.618   3.341
 3620SOL     OW12698  10.103  12.313  13.965
 3620SOL    HW112699  10.152  12.233  13.984
 3620SOL    HW212700  10.070  12.342  14.050
 3621SOL     OW12701   9.104   2.258   7.568
 3621SOL    HW112702   9.124   2.323   7.501
 3621SOL    HW212703   9.011   2.272   7.588
 3622SOL     OW12704   0.841   3.057  10.615
 3622SOL    HW112705   0.912   3.074  10.554
 3622SOL    HW212706   0.874   3.085  10.700
 3623SOL     OW12707   8.854   3.305   3.122
 3623SOL    HW112708   8.889   3.389   3.090
 3623SOL    HW212709   8.779   3.287   3.065
 3624SOL     OW12710   7.071  14.110   0.940
 3624SOL    HW112711   7.028  14.175   0.996
 3624SOL    HW212712   7.094  14.039   1.000
 3625SOL     OW12713   3.250  10.512  12.109
 3625SOL    HW112714   3.243  10.564  12.189
 3625SOL    HW212715   3.297  10.569  12.048
 3626SOL     OW12716   2.782   9.107   8.239
 3626SOL    HW112717   2.814   9.031   8.191
 3626SOL    HW212718   2.701   9.131   8.193
 3627SOL     OW12719  14.049  12.425   1.084
 3627SOL    HW112720  14.139  12.398   1.099
 3627SOL    HW212721  14.030  12.397   0.994
 3628SOL     OW12722   4.284   0.656   6.181
 3628SOL    HW112723   4.193   0.628   6.183
 3628SOL    HW212724   4.287   0.723   6.112
 3629SOL     OW12725   4.436   1.207  12.769
 3629SOL    HW112726   4.492   1.190  12.846
 3629SOL    HW212727   4.429   1.122  12.726
 3630SOL     OW12728  12.928   8.146  12.768
 3630SOL    HW112729  12.939   8.122  12.676
 3630SOL    HW212730  12.896   8.236  12.765
 3631SOL     OW12731   9.203   1.942  12.843
 3631SOL    HW112732   9.188   2.017  12.900
 3631SOL    HW212733   9.194   1.865  12.900
 3632SOL     OW12734  10.945  13.324  10.727
 3632SOL    HW112735  10.850  13.312  10.719
 3632SOL    HW212736  10.966  13.291  10.814
 3633SOL     OW12737   1.030   6.813   7.301
 3633SOL    HW112738   1.021   6.734   7.249
 3633SOL    HW212739   1.116   6.848   7.277
 3634SOL     OW12740   4.526   3.325   2.459
 3634SOL    HW112741   4.516   3.230   2.466
 3634SOL    HW212742   4.587   3.338   2.387
 3635SOL     OW12743   9.137   2.957  12.886
 3635SOL    HW112744   9.153   2.897  12.813
 3635SOL    HW212745   9.042   2.954  12.899
 3636SOL     OW12746   2.327  10.383   2.844
 3636SOL    HW112747   2.334  10.411   2.935
 3636SOL    HW212748   2.298  10.461   2.797
 3637SOL     OW12749   2.467  13.550   0.319
 3637SOL    HW112750   2.400  13.546   0.250
 3637SOL    HW212751   2.418  13.576   0.397
 3638SOL     OW12752   2.344   3.494   8.232
 3638SOL    HW112753   2.375   3.499   8.322
 3638SOL    HW212754   2.250   3.475   8.240
 3639SOL     OW12755   8.727   9.546   7.151
 3639SOL    HW112756   8.758   9.619   7.098
 3639SOL    HW212757   8.794   9.479   7.141
 3640SOL     OW12758  11.775   8.549   4.802
 3640SOL    HW112759  11.746   8.572   4.714
 3640SOL    HW212760  11.825   8.468   4.790
 3641SOL     OW12761   5.975   1.696  14.144
 3641SOL    HW112762   5.887   1.707  14.179
 3641SOL    HW212763   5.975   1.608  14.105
 3642SOL     OW12764   6.645  10.596   4.334
 3642SOL    HW112765   6.639  10.690   4.351
 3642SOL    HW212766   6.738  10.576   4.341
 3643SOL     OW12767  10.164  12.663   3.943
 3643SOL    HW112768  10.100  12.593   3.957
 3643SOL    HW212769  10.249  12.621   3.954
 3644SOL     OW12770   3.566  13.616   3.593
 3644SOL    HW112771   3.602  13.550   3.652
 3644SOL    HW212772   3.636  13.633   3.530
 3645SOL     OW12773   6.941   3.765   7.279
 3645SOL    HW112774   6.974   3.742   7.192
 3645SOL    HW212775   6.934   3.860   7.278
 3646SOL     OW12776   3.991  11.856   6.340
 3646SOL    HW112777   4.000  11.904   6.422
 3646SOL    HW212778   3.909  11.808   6.350
 3647SOL     OW12779  11.533   4.715   9.292
 3647SOL    HW112780  11.492   4.660   9.226
 3647SOL    HW212781  11.477   4.709   9.368
 3648SOL     OW12782   6.277   3.427   9.472
 3648SOL    HW112783   6.205   3.379   9.513
 3648SOL    HW212784   6.291   3.383   9.389
 3649SOL     OW12785  13.234   1.263  10.098
 3649SOL    HW112786  13.175   1.236  10.028
 3649SOL    HW212787  13.178   1.275  10.174
 3650SOL     OW12788  13.763   3.290   9.092
 3650SOL    HW112789  13.738   3.273   9.183
 3650SOL    HW212790  13.694   3.347   9.058
 3651SOL     OW12791   8.348   6.629   2.740
 3651SOL    HW112792   8.359   6.575   2.818
 3651SOL    HW212793   8.254   6.627   2.723
 3652SOL     OW12794  12.407   9.861   1.250
 3652SOL    HW112795  12.440   9.846   1.339
 3652SOL    HW212796  12.346   9.934   1.259
 3653SOL     OW12797   2.657   5.690   9.865
 3653SOL    HW112798   2.747   5.658   9.873
 3653SOL    HW212799   2.646   5.706   9.771
 3654SOL     OW12800  12.453  11.517   7.962
 3654SOL    HW112801  12.490  11.605   7.965
 3654SOL    HW212802  12.525  11.459   7.987
 3655SOL     OW12803   2.916   1.180  12.563
 3655SOL    HW112804   3.010   1.169  12.575
 3655SOL    HW212805   2.907   1.262  12.515
 3656SOL     OW12806   4.452  13.980  11.588
 3656SOL    HW112807   4.540  13.943  11.591
 3656SOL    HW212808   4.465  14.074  11.601
 3657SOL     OW12809   3.793   2.726   9.165
 3657SOL    HW112810   3.771   2.816   9.190
 3657SOL    HW212811   3.859   2.736   9.096
 3658SOL     OW12812   3.666   0.381  14.172
 3658SOL    HW112813   3.734   0.387  14.105
 3658SOL    HW212814   3.588   0.351  14.124
 3659SOL     OW12815  13.022   6.818   8.599
 3659SOL    HW112816  13.113   6.815   8.630
 3659SOL    HW212817  12.973   6.854   8.673
 3660SOL     OW12818  12.200   3.628  11.121
 3660SOL    HW112819  12.229   3.705  11.072
 3660SOL    HW212820  12.139   3.584  11.062
 3661SOL     OW12821   3.030  10.564   7.716
 3661SOL    HW112822   3.076  10.641   7.683
 3661SOL    HW212823   3.099  10.505   7.745
 3662SOL     OW12824   4.186  10.305   6.608
 3662SOL    HW112825   4.131  10.373   6.649
 3662SOL    HW212826   4.135  10.225   6.620
 3663SOL     OW12827   8.819   6.786  13.425
 3663SOL    HW112828   8.832   6.753  13.336
 3663SOL    HW212829   8.737   6.834  13.421
 3664SOL     OW12830  14.045  13.217   6.755
 3664SOL    HW112831  13.988  13.147   6.787
 3664SOL    HW212832  13.988  13.293   6.748
 3665SOL     OW12833  14.199  14.458   5.692
 3665SOL    HW112834  14.275  14.514   5.676
 3665SOL    HW212835  14.227  14.399   5.762
 3666SOL     OW12836   9.540  11.202   8.956
 3666SOL    HW112837   9.630  11.194   8.925
 3666SOL    HW212838   9.486  11.187   8.878
 3667SOL     OW12839   1.436  11.648   2.264
 3667SOL    HW112840   1.498  11.646   2.190
 3667SOL    HW212841   1.438  11.560   2.300
 3668SOL     OW12842   6.742   5.787  12.949
 3668SOL    HW112843   6.833   5.808  12.927
 3668SOL    HW212844   6.700   5.772  12.864
 3669SOL     OW12845  13.283   5.449   4.629
 3669SOL    HW112846  13.365   5.418   4.669
 3669SOL    HW212847  13.310   5.482   4.543
 3670SOL     OW12848  12.452   0.190   8.460
 3670SOL    HW112849  12.534   0.150   8.489
 3670SOL    HW212850  12.437   0.154   8.373
 3671SOL     OW12851   0.886   7.160   0.123
 3671SOL    HW112852   0.912   7.221   0.054
 3671SOL    HW212853   0.922   7.076   0.095
 3672SOL     OW12854   1.001   1.262   5.591
 3672SOL    HW112855   0.912   1.233   5.569
 3672SOL    HW212856   1.056   1.217   5.527
 3673SOL     OW12857   3.921   4.027   2.738
 3673SOL    HW112858   3.882   4.111   2.711
 3673SOL    HW212859   3.846   3.973   2.763
 3674SOL     OW12860  13.765   1.510   0.867
 3674SOL    HW112861  13.822   1.454   0.815
 3674SOL    HW212862  13.741   1.581   0.807
 3675SOL     OW12863   1.364   5.478   7.607
 3675SOL    HW112864   1.426   5.506   7.675
 3675SOL    HW212865   1.406   5.506   7.525
 3676SOL     OW12866   1.029  14.563   9.611
 3676SOL    HW112867   1.122  14.573   9.630
 3676SOL    HW212868   1.007  14.639   9.557
 3677SOL     OW12869   8.147  11.698   3.908
 3677SOL    HW112870   8.154  11.758   3.834
 3677SOL    HW212871   8.228  11.712   3.957
 3678SOL     OW12872   8.638   8.909   8.339
 3678SOL    HW112873   8.705   8.951   8.394
 3678SOL    HW212874   8.681   8.831   8.304
 3679SOL     OW12875  10.900   3.023   5.809
 3679SOL    HW112876  10.913   3.018   5.904
 3679SOL    HW212877  10.931   3.110   5.785
 3680SOL     OW12878   1.699   3.404   8.309
 3680SOL    HW112879   1.634   3.456   8.357
 3680SOL    HW212880   1.783   3.426   8.350
 3681SOL     OW12881   4.042   5.755   0.385
 3681SOL    HW112882   4.057   5.789   0.297
 3681SOL    HW212883   4.015   5.831   0.436
 3682SOL     OW12884   2.113   3.709  14.428
 3682SOL    HW112885   2.036   3.765  14.426
 3682SOL    HW212886   2.142   3.705  14.336
 3683SOL     OW12887   4.898  14.836   4.224
 3683SOL    HW112888   4.948  14.761   4.255
 3683SOL    HW212889   4.851  14.804   4.147
 3684SOL     OW12890   1.582   2.685   9.252
 3684SOL    HW112891   1.508   2.665   9.309
 3684SOL    HW212892   1.564   2.772   9.218
 3685SOL     OW12893   8.853   6.782   6.381
 3685SOL    HW112894   8.789   6.834   6.332
 3685SOL    HW212895   8.916   6.846   6.413
 3686SOL     OW12896   2.111   3.172   3.449
 3686SOL    HW112897   2.130   3.137   3.362
 3686SOL    HW212898   2.049   3.109   3.487
 3687SOL     OW12899   0.842   1.539  11.889
 3687SOL    HW112900   0.785   1.533  11.813
 3687SOL    HW212901   0.900   1.613  11.870
 3688SOL     OW12902  11.544   9.646  14.239
 3688SOL    HW112903  11.489   9.688  14.172
 3688SOL    HW212904  11.612   9.602  14.189
 3689SOL     OW12905   0.761   9.876   7.805
 3689SOL    HW112906   0.854   9.864   7.788
 3689SOL    HW212907   0.721   9.875   7.717
 3690SOL     OW12908   3.853   7.939  13.299
 3690SOL    HW112909   3.826   8.001  13.368
 3690SOL    HW212910   3.922   7.887  13.340
 3691SOL     OW12911   1.843  10.821   1.784
 3691SOL    HW112912   1.789  10.780   1.717
 3691SOL    HW212913   1.779  10.859   1.845
 3692SOL     OW12914  14.684   8.520   0.611
 3692SOL    HW112915  14.696   8.562   0.696
 3692SOL    HW212916  14.689   8.591   0.548
 3693SOL     OW12917   5.766   1.292  12.563
 3693SOL    HW112918   5.761   1.275  12.657
 3693SOL    HW212919   5.774   1.388  12.556
 3694SOL     OW12920   4.461   0.546  10.320
 3694SOL    HW112921   4.553   0.541  10.347
 3694SOL    HW212922   4.465   0.564  10.226
 3695SOL     OW12923  10.221   8.593   1.211
 3695SOL    HW112924  10.279   8.551   1.274
 3695SOL    HW212925  10.233   8.543   1.130
 3696SOL     OW12926   6.552   1.969   1.008
 3696SOL    HW112927   6.640   2.000   1.030
 3696SOL    HW212928   6.564   1.914   0.931
 3697SOL     OW12929   9.702  14.770  13.717
 3697SOL    HW112930   9.708  14.738  13.807
 3697SOL    HW212931   9.708  14.691  13.663
 3698SOL     OW12932  12.826   9.755   4.955
 3698SOL    HW112933  12.842   9.824   4.890
 3698SOL    HW212934  12.907   9.703   4.955
 3699SOL     OW12935   2.059   4.657   9.983
 3699SOL    HW112936   2.080   4.603   9.907
 3699SOL    HW212937   2.112   4.619  10.054
 3700SOL     OW12938  13.945   7.708   6.337
 3700SOL    HW112939  13.857   7.743   6.325
 3700SOL    HW212940  13.977   7.690   6.248
 3701SOL     OW12941   1.689   0.580   6.661
 3701SOL    HW112942   1.603   0.622   6.670
 3701SOL    HW212943   1.690   0.548   6.571
 3702SOL     OW12944   0.375   4.822  11.506
 3702SOL    HW112945   0.429   4.880  11.453
 3702SOL    HW212946   0.311   4.786  11.445
 3703SOL     OW12947  13.379   7.602   9.013
 3703SOL    HW112948  13.426   7.597   9.096
 3703SOL    HW212949  13.401   7.688   8.978
 3704SOL     OW12950   4.920   0.855  13.610
 3704SOL    HW112951   5.007   0.880  13.579
 3704SOL    HW212952   4.924   0.760  13.619
 3705SOL     OW12953   8.710  11.268   7.849
 3705SOL    HW112954   8.648  11.321   7.798
 3705SOL    HW212955   8.794  11.313   7.839
 3706SOL     OW12956   5.276   9.070  14.332
 3706SOL    HW112957   5.323   8.990  14.311
 3706SOL    HW212958   5.187   9.040  14.353
 3707SOL     OW12959   9.047   9.461   5.362
 3707SOL    HW112960   9.026   9.548   5.396
 3707SOL    HW212961   8.963   9.427   5.331
 3708SOL     OW12962   9.248  10.524   2.173
 3708SOL    HW112963   9.178  10.461   2.156
 3708SOL    HW212964   9.217  10.606   2.136
 3709SOL     OW12965  10.192   3.712  10.565
 3709SOL    HW112966  10.181   3.798  10.525
 3709SOL    HW212967  10.167   3.725  10.657
 3710SOL     OW12968   1.820   9.604   9.927
 3710SOL    HW112969   1.745   9.638   9.977
 3710SOL    HW212970   1.781   9.549   9.859
 3711SOL     OW12971   9.153   3.575   9.066
 3711SOL    HW112972   9.123   3.645   9.008
 3711SOL    HW212973   9.219   3.616   9.122
 3712SOL     OW12974   1.699  12.710   9.008
 3712SOL    HW112975   1.673  12.799   8.983
 3712SOL    HW212976   1.736  12.672   8.929
 3713SOL     OW12977   5.152   1.093   7.851
 3713SOL    HW112978   5.202   1.138   7.784
 3713SOL    HW212979   5.217   1.043   7.900
 3714SOL     OW12980  12.214   6.952  12.222
 3714SOL    HW112981  12.221   6.923  12.131
 3714SOL    HW212982  12.240   6.876  12.274
 3715SOL     OW12983  10.372   0.319   7.141
 3715SOL    HW112984  10.291   0.280   7.173
 3715SOL    HW212985  10.390   0.272   7.059
 3716SOL     OW12986   4.088   5.669   2.148
 3716SOL    HW112987   4.005   5.629   2.171
 3716SOL    HW212988   4.113   5.628   2.065
 3717SOL     OW12989  12.522   6.328  12.774
 3717SOL    HW112990  12.591   6.268  12.802
 3717SOL    HW212991  12.569   6.405  12.741
 3718SOL     OW12992   0.797   2.422  14.406
 3718SOL    HW112993   0.794   2.412  14.311
 3718SOL    HW212994   0.793   2.333  14.440
 3719SOL     OW12995   1.775  12.803  10.886
 3719SOL    HW112996   1.843  12.764  10.831
 3719SOL    HW212997   1.788  12.898  10.877
 3720SOL     OW12998   2.479  10.502   4.847
 3720SOL    HW112999   2.509  10.550   4.925
 3720SOL    HW213000   2.394  10.541   4.827
 3721SOL     OW13001   3.069  14.130  10.360
 3721SOL    HW113002   3.115  14.075  10.297
 3721SOL    HW213003   3.096  14.097  10.446
 3722SOL     OW13004   1.921   6.325   7.559
 3722SOL    HW113005   2.007   6.346   7.594
 3722SOL    HW213006   1.925   6.231   7.541
 3723SOL     OW13007   4.787  14.170   7.967
 3723SOL    HW113008   4.786  14.222   8.047
 3723SOL    HW213009   4.805  14.232   7.897
 3724SOL     OW13010   5.870   0.268   5.464
 3724SOL    HW113011   5.847   0.261   5.372
 3724SOL    HW213012   5.941   0.332   5.467
 3725SOL     OW13013   4.574   0.291  14.719
 3725SOL    HW113014   4.586   0.385  14.731
 3725SOL    HW213015   4.608   0.252  14.799
 3726SOL     OW13016   9.965   6.472   2.636
 3726SOL    HW113017   9.874   6.446   2.622
 3726SOL    HW213018  10.003   6.400   2.687
 3727SOL     OW13019  12.377   1.813   9.047
 3727SOL    HW113020  12.286   1.814   9.019
 3727SOL    HW213021  12.404   1.722   9.039
 3728SOL     OW13022   5.799   8.668   2.305
 3728SOL    HW113023   5.866   8.700   2.245
 3728SOL    HW213024   5.800   8.573   2.294
 3729SOL     OW13025   7.681   5.497   3.303
 3729SOL    HW113026   7.761   5.490   3.354
 3729SOL    HW213027   7.697   5.443   3.226
 3730SOL     OW13028   7.448   8.329   4.215
 3730SOL    HW113029   7.505   8.252   4.209
 3730SOL    HW213030   7.500   8.400   4.179
 3731SOL     OW13031   6.617  14.691  10.499
 3731SOL    HW113032   6.657  14.642  10.426
 3731SOL    HW213033   6.563  14.626  10.544
 3732SOL     OW13034  12.484   0.705   2.799
 3732SOL    HW113035  12.516   0.621   2.834
 3732SOL    HW213036  12.431   0.681   2.723
 3733SOL     OW13037   1.056   3.313   7.244
 3733SOL    HW113038   0.998   3.378   7.204
 3733SOL    HW213039   1.050   3.237   7.187
 3734SOL     OW13040   4.233  14.079   8.164
 3734SOL    HW113041   4.140  14.089   8.187
 3734SOL    HW213042   4.267  14.168   8.165
 3735SOL     OW13043   8.830  11.302   2.629
 3735SOL    HW113044   8.846  11.209   2.645
 3735SOL    HW213045   8.827  11.310   2.533
 3736SOL     OW13046   6.477   5.529   4.362
 3736SOL    HW113047   6.382   5.540   4.358
 3736SOL    HW213048   6.494   5.448   4.314
 3737SOL     OW13049   6.198   9.168   7.706
 3737SOL    HW113050   6.155   9.164   7.620
 3737SOL    HW213051   6.287   9.198   7.686
 3738SOL     OW13052   0.199   5.923  11.731
 3738SOL    HW113053   0.247   5.898  11.652
 3738SOL    HW213054   0.234   6.010  11.753
 3739SOL     OW13055   8.324   8.967  12.977
 3739SOL    HW113056   8.377   9.047  12.986
 3739SOL    HW213057   8.309   8.939  13.067
 3740SOL     OW13058   2.165  13.708   4.863
 3740SOL    HW113059   2.174  13.637   4.928
 3740SOL    HW213060   2.113  13.669   4.793
 3741SOL     OW13061   3.903   9.790  12.708
 3741SOL    HW113062   3.971   9.748  12.760
 3741SOL    HW213063   3.950   9.851  12.651
 3742SOL     OW13064   4.471   4.344   6.080
 3742SOL    HW113065   4.545   4.381   6.031
 3742SOL    HW213066   4.428   4.419   6.119
 3743SOL     OW13067  10.046   1.072   0.422
 3743SOL    HW113068  10.130   1.098   0.382
 3743SOL    HW213069  10.008   1.155   0.452
 3744SOL     OW13070   6.499   5.504   1.779
 3744SOL    HW113071   6.536   5.523   1.693
 3744SOL    HW213072   6.523   5.579   1.833
 3745SOL     OW13073  12.682   5.551  12.049
 3745SOL    HW113074  12.721   5.616  12.107
 3745SOL    HW213075  12.720   5.467  12.078
 3746SOL     OW13076  12.756   1.513  12.503
 3746SOL    HW113077  12.759   1.541  12.412
 3746SOL    HW213078  12.801   1.582  12.551
 3747SOL     OW13079  13.507  12.498   4.357
 3747SOL    HW113080  13.466  12.450   4.286
 3747SOL    HW213081  13.436  12.548   4.397
 3748SOL     OW13082  13.648   5.561  12.561
 3748SOL    HW113083  13.723   5.507  12.587
 3748SOL    HW213084  13.648   5.634  12.622
 3749SOL     OW13085  12.025   8.311   0.153
 3749SOL    HW113086  12.000   8.277   0.067
 3749SOL    HW213087  12.118   8.333   0.143
 3750SOL     OW13088   7.209   8.976  14.515
 3750SOL    HW113089   7.145   8.941  14.453
 3750SOL    HW213090   7.180   9.066  14.531
 3751SOL     OW13091   6.898   2.606   5.684
 3751SOL    HW113092   6.985   2.565   5.686
 3751SOL    HW213093   6.837   2.533   5.697
 3752SOL     OW13094   7.268   8.287  13.654
 3752SOL    HW113095   7.277   8.356  13.720
 3752SOL    HW213096   7.185   8.308  13.610
 3753SOL     OW13097   9.428  13.152   8.243
 3753SOL    HW113098   9.423  13.239   8.283
 3753SOL    HW213099   9.344  13.112   8.264
 3754SOL     OW13100   7.612  13.311  13.932
 3754SOL    HW113101   7.558  13.390  13.925
 3754SOL    HW213102   7.631  13.288  13.841
 3755SOL     OW13103  13.614   0.436   0.391
 3755SOL    HW113104  13.554   0.431   0.466
 3755SOL    HW213105  13.643   0.346   0.379
 3756SOL     OW13106   4.306   7.821  13.053
 3756SOL    HW113107   4.269   7.823  13.141
 3756SOL    HW213108   4.400   7.831  13.065
 3757SOL     OW13109   1.622   1.057   7.091
 3757SOL    HW113110   1.689   1.084   7.029
 3757SOL    HW213111   1.669   1.004   7.156
 3758SOL     OW13112   8.542   7.437   2.493
 3758SOL    HW113113   8.465   7.477   2.452
 3758SOL    HW213114   8.514   7.418   2.582
 3759SOL     OW13115   3.140  13.575   2.535
 3759SOL    HW113116   3.073  13.543   2.474
 3759SOL    HW213117   3.096  13.646   2.583
 3760SOL     OW13118  11.525   6.030   2.225
 3760SOL    HW113119  11.569   6.102   2.270
 3760SOL    HW213120  11.595   5.981   2.182
 3761SOL     OW13121  13.072  14.562   5.946
 3761SOL    HW113122  13.080  14.468   5.932
 3761SOL    HW213123  13.161  14.595   5.940
 3762SOL     OW13124   7.554   3.493   0.112
 3762SOL    HW113125   7.567   3.583   0.140
 3762SOL    HW213126   7.464   3.490   0.080
 3763SOL     OW13127   9.638   1.678   4.154
 3763SOL    HW113128   9.697   1.753   4.156
 3763SOL    HW213129   9.564   1.704   4.209
 3764SOL     OW13130   5.779  10.171  11.698
 3764SOL    HW113131   5.874  10.175  11.705
 3764SOL    HW213132   5.759  10.205  11.611
 3765SOL     OW13133  11.383  12.792   6.385
 3765SOL    HW113134  11.317  12.787   6.455
 3765SOL    HW213135  11.466  12.806   6.431
 3766SOL     OW13136   4.306   0.086   9.113
 3766SOL    HW113137   4.399   0.087   9.091
 3766SOL    HW213138   4.265   0.141   9.046
 3767SOL     OW13139  10.190   3.171  11.838
 3767SOL    HW113140  10.229   3.242  11.888
 3767SOL    HW213141  10.146   3.214  11.765
 3768SOL     OW13142  12.758   9.847   2.775
 3768SOL    HW113143  12.750   9.752   2.768
 3768SOL    HW213144  12.767   9.863   2.869
 3769SOL     OW13145   1.254  12.657   1.487
 3769SOL    HW113146   1.172  12.703   1.509
 3769SOL    HW213147   1.310  12.725   1.449
 3770SOL     OW13148   5.263   1.963   5.970
 3770SOL    HW113149   5.290   2.043   6.015
 3770SOL    HW213150   5.218   1.912   6.038
 3771SOL     OW13151   2.702  14.766   5.785
 3771SOL    HW113152   2.613  14.767   5.751
 3771SOL    HW213153   2.757  14.755   5.708
 3772SOL     OW13154   8.883   4.028  10.291
 3772SOL    HW113155   8.843   3.976  10.221
 3772SOL    HW213156   8.972   3.993  10.299
 3773SOL     OW13157   8.868   8.350  10.924
 3773SOL    HW113158   8.962   8.359  10.940
 3773SOL    HW213159   8.850   8.258  10.944
 3774SOL     OW13160   7.999  12.911   1.955
 3774SOL    HW113161   8.010  13.006   1.948
 3774SOL    HW213162   8.051  12.886   2.031
 3775SOL     OW13163  11.857   0.557   8.291
 3775SOL    HW113164  11.951   0.540   8.287
 3775SOL    HW213165  11.850   0.653   8.286
 3776SOL     OW13166  11.548   2.948   2.767
 3776SOL    HW113167  11.487   2.940   2.841
 3776SOL    HW213168  11.632   2.965   2.808
 3777SOL     OW13169   5.739  11.235   9.807
 3777SOL    HW113170   5.820  11.218   9.758
 3777SOL    HW213171   5.761  11.212   9.897
 3778SOL     OW13172   4.565  10.482  11.475
 3778SOL    HW113173   4.651  10.459  11.510
 3778SOL    HW213174   4.522  10.398  11.458
 3779SOL     OW13175   0.574   1.400   4.572
 3779SOL    HW113176   0.560   1.408   4.477
 3779SOL    HW213177   0.513   1.462   4.611
 3780SOL     OW13178  12.441  11.601   4.763
 3780SOL    HW113179  12.491  11.571   4.839
 3780SOL    HW213180  12.499  11.588   4.688
 3781SOL     OW13181  13.028   1.796   9.665
 3781SOL    HW113182  13.076   1.858   9.612
 3781SOL    HW213183  13.053   1.710   9.631
 3782SOL     OW13184   4.849  12.860   5.795
 3782SOL    HW113185   4.869  12.898   5.881
 3782SOL    HW213186   4.761  12.892   5.776
 3783SOL     OW13187  10.966   7.571  10.025
 3783SOL    HW113188  11.022   7.647  10.009
 3783SOL    HW213189  10.925   7.553   9.940
 3784SOL     OW13190   2.054   0.104  13.710
 3784SOL    HW113191   2.052   0.166  13.783
 3784SOL    HW213192   2.011   0.026  13.744
 3785SOL     OW13193   2.465  13.937   6.248
 3785SOL    HW113194   2.414  14.009   6.287
 3785SOL    HW213195   2.543  13.979   6.213
 3786SOL     OW13196   7.561   1.684   9.597
 3786SOL    HW113197   7.518   1.738   9.663
 3786SOL    HW213198   7.541   1.594   9.622
 3787SOL     OW13199  11.868   2.990   5.340
 3787SOL    HW113200  11.916   3.038   5.272
 3787SOL    HW213201  11.796   3.049   5.363
 3788SOL     OW13202   3.569   6.883  10.985
 3788SOL    HW113203   3.648   6.902  10.935
 3788SOL    HW213204   3.536   6.969  11.010
 3789SOL     OW13205  14.876   9.351  12.711
 3789SOL    HW113206   0.056   9.347  12.784
 3789SOL    HW213207  14.855   9.259  12.692
 3790SOL     OW13208   6.909   0.820   7.377
 3790SOL    HW113209   6.975   0.761   7.339
 3790SOL    HW213210   6.846   0.835   7.306
 3791SOL     OW13211   6.240   0.423  11.756
 3791SOL    HW113212   6.233   0.341  11.707
 3791SOL    HW213213   6.286   0.482  11.697
 3792SOL     OW13214   4.766  10.761   3.824
 3792SOL    HW113215   4.789  10.675   3.858
 3792SOL    HW213216   4.711  10.742   3.748
 3793SOL     OW13217  11.200  12.834   6.605
 3793SOL    HW113218  11.147  12.910   6.630
 3793SOL    HW213219  11.283  12.846   6.651
 3794SOL     OW13220  12.240   3.755  13.802
 3794SOL    HW113221  12.214   3.833  13.850
 3794SOL    HW213222  12.234   3.684  13.867
 3795SOL     OW13223   8.626  14.526  13.400
 3795SOL    HW113224   8.576  14.551  13.478
 3795SOL    HW213225   8.577  14.453  13.362
 3796SOL     OW13226  14.555   5.729   3.052
 3796SOL    HW113227  14.579   5.821   3.055
 3796SOL    HW213228  14.500   5.721   2.974
 3797SOL     OW13229  13.837   8.080  13.668
 3797SOL    HW113230  13.872   8.046  13.750
 3797SOL    HW213231  13.914   8.100  13.615
 3798SOL     OW13232   0.697   1.360  14.299
 3798SOL    HW113233   0.636   1.312  14.243
 3798SOL    HW213234   0.657   1.359  14.385
 3799SOL     OW13235   7.619   6.350   2.276
 3799SOL    HW113236   7.556   6.350   2.204
 3799SOL    HW213237   7.610   6.264   2.317
 3800SOL     OW13238  10.999   3.037  12.058
 3800SOL    HW113239  10.990   2.996  12.144
 3800SOL    HW213240  11.092   3.057  12.050
 3801SOL     OW13241   5.090  10.848   1.974
 3801SOL    HW113242   5.013  10.848   1.918
 3801SOL    HW213243   5.153  10.793   1.929
 3802SOL     OW13244   5.451  10.011  10.726
 3802SOL    HW113245   5.489   9.948  10.786
 3802SOL    HW213246   5.367  10.034  10.764
 3803SOL     OW13247   5.549  13.277  10.096
 3803SOL    HW113248   5.568  13.254  10.005
 3803SOL    HW213249   5.497  13.357  10.090
 3804SOL     OW13250   3.102   9.807   2.865
 3804SOL    HW113251   3.077   9.778   2.952
 3804SOL    HW213252   3.108   9.726   2.814
 3805SOL     OW13253   7.139   4.990   7.961
 3805SOL    HW113254   7.203   4.974   7.891
 3805SOL    HW213255   7.098   4.905   7.975
 3806SOL     OW13256  12.131  10.223   5.084
 3806SOL    HW113257  12.047  10.177   5.090
 3806SOL    HW213258  12.194  10.165   5.127
 3807SOL     OW13259   2.328   4.637   0.621
 3807SOL    HW113260   2.239   4.607   0.642
 3807SOL    HW213261   2.384   4.594   0.685
 3808SOL     OW13262   6.057   6.409  10.884
 3808SOL    HW113263   6.016   6.373  10.963
 3808SOL    HW213264   6.103   6.487  10.914
 3809SOL     OW13265   8.346   4.793   6.899
 3809SOL    HW113266   8.371   4.870   6.847
 3809SOL    HW213267   8.330   4.725   6.834
 3810SOL     OW13268  10.105   6.957   1.888
 3810SOL    HW113269  10.032   7.007   1.851
 3810SOL    HW213270  10.155   6.928   1.812
 3811SOL     OW13271   3.382   2.852   7.719
 3811SOL    HW113272   3.463   2.837   7.767
 3811SOL    HW213273   3.333   2.770   7.728
 3812SOL     OW13274  13.978  13.640  14.043
 3812SOL    HW113275  13.886  13.665  14.029
 3812SOL    HW213276  13.994  13.661  14.135
 3813SOL     OW13277  12.565   9.068  13.050
 3813SOL    HW113278  12.513   9.105  12.979
 3813SOL    HW213279  12.613   9.142  13.086
 3814SOL     OW13280  14.524   2.677  12.303
 3814SOL    HW113281  14.452   2.614  12.314
 3814SOL    HW213282  14.595   2.626  12.264
 3815SOL     OW13283  11.461   3.548  14.144
 3815SOL    HW113284  11.510   3.626  14.172
 3815SOL    HW213285  11.473   3.546  14.049
 3816SOL     OW13286   9.136   4.413  12.437
 3816SOL    HW113287   9.178   4.358  12.503
 3816SOL    HW213288   9.199   4.416  12.365
 3817SOL     OW13289   9.955  10.212   3.116
 3817SOL    HW113290   9.862  10.207   3.136
 3817SOL    HW213291   9.981  10.122   3.097
 3818SOL     OW13292   9.732   3.493  10.678
 3818SOL    HW113293   9.693   3.487  10.765
 3818SOL    HW213294   9.819   3.453  10.687
 3819SOL     OW13295   2.859   8.521   4.527
 3819SOL    HW113296   2.846   8.611   4.554
 3819SOL    HW213297   2.891   8.476   4.605
 3820SOL     OW13298   1.521   3.995  12.789
 3820SOL    HW113299   1.532   4.082  12.750
 3820SOL    HW213300   1.598   3.946  12.762
 3821SOL     OW13301   9.680  10.261  13.790
 3821SOL    HW113302   9.684  10.304  13.875
 3821SOL    HW213303   9.700  10.169  13.809
 3822SOL     OW13304  11.079   3.094  13.664
 3822SOL    HW113305  11.043   3.180  13.639
 3822SOL    HW213306  11.019   3.063  13.732
 3823SOL     OW13307  11.764  13.780  13.333
 3823SOL    HW113308  11.823  13.709  13.357
 3823SOL    HW213309  11.762  13.779  13.238
 3824SOL     OW13310   1.132  11.162  12.066
 3824SOL    HW113311   1.126  11.211  11.984
 3824SOL    HW213312   1.201  11.097  12.050
 3825SOL     OW13313   9.286   3.863   7.731
 3825SOL    HW113314   9.273   3.896   7.642
 3825SOL    HW213315   9.354   3.919   7.768
 3826SOL     OW13316  12.225  14.127  11.965
 3826SOL    HW113317  12.224  14.167  12.052
 3826SOL    HW213318  12.306  14.158  11.926
 3827SOL     OW13319   9.120   7.528  14.366
 3827SOL    HW113320   9.035   7.560  14.397
 3827SOL    HW213321   9.184   7.582  14.411
 3828SOL     OW13322   8.200   2.383   1.798
 3828SOL    HW113323   8.202   2.454   1.734
 3828SOL    HW213324   8.142   2.414   1.867
 3829SOL     OW13325   8.903   4.460  11.017
 3829SOL    HW113326   8.825   4.432  11.065
 3829SOL    HW213327   8.943   4.379  10.988
 3830SOL     OW13328   1.808  11.228  14.207
 3830SOL    HW113329   1.866  11.301  14.230
 3830SOL    HW213330   1.747  11.221  14.280
 3831SOL     OW13331   1.313   6.114   6.944
 3831SOL    HW113332   1.304   6.055   7.018
 3831SOL    HW213333   1.395   6.161   6.960
 3832SOL     OW13334   0.230   5.490   6.172
 3832SOL    HW113335   0.182   5.484   6.254
 3832SOL    HW213336   0.322   5.480   6.198
 3833SOL     OW13337  10.374   4.499   8.784
 3833SOL    HW113338  10.328   4.424   8.821
 3833SOL    HW213339  10.323   4.575   8.812
 3834SOL     OW13340  11.128   9.375   8.234
 3834SOL    HW113341  11.118   9.353   8.326
 3834SOL    HW213342  11.042   9.407   8.207
 3835SOL     OW13343   9.266  12.226   9.259
 3835SOL    HW113344   9.183  12.180   9.246
 3835SOL    HW213345   9.308  12.181   9.332
 3836SOL     OW13346  14.767   7.617   9.931
 3836SOL    HW113347  14.840   7.671   9.901
 3836SOL    HW213348  14.693   7.677   9.938
 3837SOL     OW13349   2.340   6.015   9.651
 3837SOL    HW113350   2.431   6.017   9.679
 3837SOL    HW213351   2.292   5.979   9.726
 3838SOL     OW13352   7.925  12.864   2.556
 3838SOL    HW113353   7.923  12.960   2.555
 3838SOL    HW213354   7.843  12.838   2.513
 3839SOL     OW13355   7.440  10.367   5.593
 3839SOL    HW113356   7.433  10.338   5.502
 3839SOL    HW213357   7.527  10.339   5.621
 3840SOL     OW13358  10.250   6.741  12.587
 3840SOL    HW113359  10.274   6.832  12.566
 3840SOL    HW213360  10.155   6.742  12.593
 3841SOL     OW13361  11.404   0.107   3.777
 3841SOL    HW113362  11.464   0.037   3.750
 3841SOL    HW213363  11.367   0.075   3.860
 3842SOL     OW13364  11.492   4.817   4.728
 3842SOL    HW113365  11.413   4.863   4.701
 3842SOL    HW213366  11.460   4.735   4.767
 3843SOL     OW13367   8.839   1.271  14.588
 3843SOL    HW113368   8.790   1.316  14.657
 3843SOL    HW213369   8.909   1.331  14.565
 3844SOL     OW13370  14.721  14.490  14.778
 3844SOL    HW113371  14.699  14.412  14.726
 3844SOL    HW213372  14.687  14.471  14.865
 3845SOL     OW13373   0.841   6.493   2.987
 3845SOL    HW113374   0.910   6.537   2.937
 3845SOL    HW213375   0.876   6.407   3.006
 3846SOL     OW13376  10.988  10.274   0.590
 3846SOL    HW113377  10.934  10.207   0.631
 3846SOL    HW213378  11.023  10.232   0.511
 3847SOL     OW13379   9.790   3.901   9.565
 3847SOL    HW113380   9.776   3.885   9.658
 3847SOL    HW213381   9.881   3.930   9.559
 3848SOL     OW13382   7.661   3.191   9.311
 3848SOL    HW113383   7.647   3.238   9.394
 3848SOL    HW213384   7.631   3.102   9.329
 3849SOL     OW13385  14.687  12.838   9.404
 3849SOL    HW113386  14.704  12.798   9.318
 3849SOL    HW213387  14.602  12.802   9.430
 3850SOL     OW13388   4.340  12.995   0.577
 3850SOL    HW113389   4.407  12.961   0.635
 3850SOL    HW213390   4.356  13.089   0.574
 3851SOL     OW13391   0.761   8.846   7.543
 3851SOL    HW113392   0.749   8.851   7.638
 3851SOL    HW213393   0.745   8.754   7.522
 3852SOL     OW13394  10.066   9.438  12.724
 3852SOL    HW113395  10.080   9.419  12.817
 3852SOL    HW213396  10.128   9.507  12.704
 3853SOL     OW13397   1.382  13.162  13.955
 3853SOL    HW113398   1.424  13.246  13.974
 3853SOL    HW213399   1.401  13.107  14.031
 3854SOL     OW13400  13.979   7.866   7.346
 3854SOL    HW113401  13.937   7.952   7.357
 3854SOL    HW213402  13.910   7.811   7.309
 3855SOL     OW13403   1.411   8.880   3.676
 3855SOL    HW113404   1.407   8.906   3.767
 3855SOL    HW213405   1.357   8.801   3.671
 3856SOL     OW13406  10.795  14.550   5.489
 3856SOL    HW113407  10.832  14.579   5.406
 3856SOL    HW213408  10.865  14.565   5.553
 3857SOL     OW13409   9.402  14.695   0.462
 3857SOL    HW113410   9.375  14.645   0.538
 3857SOL    HW213411   9.457  14.765   0.497
 3858SOL     OW13412   2.858   9.756   4.741
 3858SOL    HW113413   2.858   9.787   4.831
 3858SOL    HW213414   2.815   9.826   4.691
 3859SOL     OW13415   4.414   2.820   6.211
 3859SOL    HW113416   4.434   2.746   6.268
 3859SOL    HW213417   4.356   2.784   6.144
 3860SOL     OW13418   8.482   0.253   3.772
 3860SOL    HW113419   8.476   0.345   3.800
 3860SOL    HW213420   8.521   0.208   3.847
 3861SOL     OW13421   9.102   5.924   6.401
 3861SOL    HW113422   9.192   5.909   6.429
 3861SOL    HW213423   9.053   5.929   6.483
 3862SOL     OW13424   1.414   7.352   1.296
 3862SOL    HW113425   1.466   7.288   1.344
 3862SOL    HW213426   1.329   7.309   1.285
 3863SOL     OW13427   4.018   3.533   3.851
 3863SOL    HW113428   3.922   3.534   3.854
 3863SOL    HW213429   4.041   3.615   3.807
 3864SOL     OW13430   8.201  11.861   5.199
 3864SOL    HW113431   8.161  11.922   5.136
 3864SOL    HW213432   8.126  11.821   5.243
 3865SOL     OW13433   5.888   4.940   8.580
 3865SOL    HW113434   5.924   4.856   8.609
 3865SOL    HW213435   5.951   4.972   8.515
 3866SOL     OW13436  10.248   0.039   9.087
 3866SOL    HW113437  10.227   0.109   9.025
 3866SOL    HW213438  10.285   0.084   9.163
 3867SOL     OW13439  10.137   7.753   0.716
 3867SOL    HW113440  10.053   7.781   0.752
 3867SOL    HW213441  10.182   7.712   0.790
 3868SOL     OW13442   7.954  10.788   3.513
 3868SOL    HW113443   7.897  10.810   3.440
 3868SOL    HW213444   7.952  10.692   3.517
 3869SOL     OW13445   3.695  12.765   5.781
 3869SOL    HW113446   3.675  12.740   5.871
 3869SOL    HW213447   3.751  12.842   5.789
 3870SOL     OW13448   2.856   6.485  14.419
 3870SOL    HW113449   2.794   6.494  14.491
 3870SOL    HW213450   2.930   6.437  14.457
 3871SOL     OW13451   3.806  14.791  12.352
 3871SOL    HW113452   3.786  14.769  12.443
 3871SOL    HW213453   3.734  14.753  12.302
 3872SOL     OW13454  14.649  12.554  12.264
 3872SOL    HW113455  14.582  12.542  12.197
 3872SOL    HW213456  14.720  12.600  12.220
 3873SOL     OW13457   6.242  10.356   4.021
 3873SOL    HW113458   6.150  10.383   4.024
 3873SOL    HW213459   6.289  10.425   4.068
 3874SOL     OW13460   4.393  14.374   3.670
 3874SOL    HW113461   4.360  14.317   3.600
 3874SOL    HW213462   4.470  14.416   3.632
 3875SOL     OW13463  10.091   6.295   3.667
 3875SOL    HW113464  10.120   6.307   3.757
 3875SOL    HW213465  10.035   6.217   3.670
 3876SOL     OW13466  11.159   1.150   8.664
 3876SOL    HW113467  11.129   1.104   8.742
 3876SOL    HW213468  11.095   1.219   8.650
 3877SOL     OW13469   2.209   4.185  13.534
 3877SOL    HW113470   2.278   4.250  13.519
 3877SOL    HW213471   2.129   4.237  13.544
 3878SOL     OW13472   0.608   8.304  10.296
 3878SOL    HW113473   0.645   8.254  10.369
 3878SOL    HW213474   0.653   8.389  10.300
 3879SOL     OW13475   6.979   2.205   6.751
 3879SOL    HW113476   6.974   2.259   6.829
 3879SOL    HW213477   6.926   2.251   6.686
 3880SOL     OW13478  10.558   6.696   7.890
 3880SOL    HW113479  10.628   6.759   7.873
 3880SOL    HW213480  10.544   6.700   7.985
 3881SOL     OW13481   3.605   1.042   0.935
 3881SOL    HW113482   3.560   0.996   1.006
 3881SOL    HW213483   3.654   0.973   0.889
 3882SOL     OW13484  11.863  10.687   1.431
 3882SOL    HW113485  11.917  10.615   1.398
 3882SOL    HW213486  11.846  10.742   1.355
 3883SOL     OW13487   2.204   5.354   4.460
 3883SOL    HW113488   2.216   5.363   4.554
 3883SOL    HW213489   2.247   5.272   4.437
 3884SOL     OW13490   9.117   4.172   0.485
 3884SOL    HW113491   9.202   4.137   0.513
 3884SOL    HW213492   9.134   4.206   0.397
 3885SOL     OW13493  11.425  10.641   9.458
 3885SOL    HW113494  11.480  10.611   9.386
 3885SOL    HW213495  11.337  10.642   9.423
 3886SOL     OW13496  10.082   5.328   3.673
 3886SOL    HW113497  10.027   5.294   3.744
 3886SOL    HW213498  10.022   5.379   3.620
 3887SOL     OW13499  13.189   9.940   8.733
 3887SOL    HW113500  13.135   9.894   8.797
 3887SOL    HW213501  13.237   9.871   8.688
 3888SOL     OW13502   9.287   4.240   1.460
 3888SOL    HW113503   9.309   4.147   1.462
 3888SOL    HW213504   9.202   4.245   1.503
 3889SOL     OW13505   2.758  14.201   6.492
 3889SOL    HW113506   2.829  14.138   6.485
 3889SOL    HW213507   2.743  14.232   6.402
 3890SOL     OW13508   0.902   6.237   6.164
 3890SOL    HW113509   0.838   6.275   6.103
 3890SOL    HW213510   0.974   6.209   6.108
 3891SOL     OW13511   9.404   7.623   5.883
 3891SOL    HW113512   9.355   7.583   5.811
 3891SOL    HW213513   9.385   7.716   5.876
 3892SOL     OW13514  11.444   6.183   4.520
 3892SOL    HW113515  11.470   6.094   4.544
 3892SOL    HW213516  11.453   6.186   4.425
 3893SOL     OW13517   1.748   3.680  13.590
 3893SOL    HW113518   1.726   3.672  13.497
 3893SOL    HW213519   1.663   3.694  13.632
 3894SOL     OW13520   9.920   6.666   9.826
 3894SOL    HW113521   9.913   6.577   9.859
 3894SOL    HW213522   9.913   6.721   9.904
 3895SOL     OW13523   3.111   0.190  10.297
 3895SOL    HW113524   3.193   0.239  10.300
 3895SOL    HW213525   3.106   0.158  10.207
 3896SOL     OW13526   4.254   3.280   3.543
 3896SOL    HW113527   4.221   3.271   3.454
 3896SOL    HW213528   4.175   3.284   3.597
 3897SOL     OW13529   5.159   0.433  10.904
 3897SOL    HW113530   5.097   0.373  10.863
 3897SOL    HW213531   5.140   0.427  10.998
 3898SOL     OW13532   9.700   1.880   9.657
 3898SOL    HW113533   9.792   1.870   9.679
 3898SOL    HW213534   9.671   1.955   9.709
 3899SOL     OW13535   2.378  10.511   8.641
 3899SOL    HW113536   2.399  10.473   8.726
 3899SOL    HW213537   2.423  10.595   8.640
 3900SOL     OW13538  14.071   6.190  14.790
 3900SOL    HW113539  14.132   6.170  14.861
 3900SOL    HW213540  14.100   6.136  14.717
 3901SOL     OW13541  10.927   9.379  12.348
 3901SOL    HW113542  10.874   9.451  12.381
 3901SOL    HW213543  10.864   9.315  12.315
 3902SOL     OW13544  13.090   6.914   6.092
 3902SOL    HW113545  13.120   7.005   6.097
 3902SOL    HW213546  13.011   6.918   6.037
 3903SOL     OW13547   5.685   5.550   2.111
 3903SOL    HW113548   5.615   5.486   2.097
 3903SOL    HW213549   5.765   5.505   2.084
 3904SOL     OW13550   8.270   5.974   9.780
 3904SOL    HW113551   8.225   5.925   9.711
 3904SOL    HW213552   8.347   6.011   9.736
 3905SOL     OW13553   7.739   4.730  13.192
 3905SOL    HW113554   7.778   4.644  13.206
 3905SOL    HW213555   7.808   4.782  13.151
 3906SOL     OW13556   1.947  10.903   5.246
 3906SOL    HW113557   1.908  10.892   5.333
 3906SOL    HW213558   2.013  10.834   5.241
 3907SOL     OW13559   6.523   4.733  10.996
 3907SOL    HW113560   6.433   4.754  11.019
 3907SOL    HW213561   6.576   4.770  11.066
 3908SOL     OW13562   2.517  11.233   3.561
 3908SOL    HW113563   2.532  11.155   3.614
 3908SOL    HW213564   2.598  11.284   3.570
 3909SOL     OW13565   6.341   7.180   5.313
 3909SOL    HW113566   6.324   7.142   5.399
 3909SOL    HW213567   6.258   7.172   5.266
 3910SOL     OW13568   0.734   5.785   4.415
 3910SOL    HW113569   0.706   5.698   4.444
 3910SOL    HW213570   0.777   5.822   4.492
 3911SOL     OW13571   1.505   7.272  10.438
 3911SOL    HW113572   1.518   7.353  10.488
 3911SOL    HW213573   1.533   7.295  10.349
 3912SOL     OW13574   6.017   7.046   1.013
 3912SOL    HW113575   6.030   6.967   0.961
 3912SOL    HW213576   5.937   7.030   1.063
 3913SOL     OW13577   6.265  10.357   2.234
 3913SOL    HW113578   6.277  10.267   2.204
 3913SOL    HW213579   6.253  10.408   2.154
 3914SOL     OW13580   7.793   2.260  10.878
 3914SOL    HW113581   7.839   2.192  10.829
 3914SOL    HW213582   7.846   2.273  10.956
 3915SOL     OW13583   0.429   3.696   6.899
 3915SOL    HW113584   0.495   3.764   6.914
 3915SOL    HW213585   0.480   3.615   6.888
 3916SOL     OW13586   0.965   7.194   1.937
 3916SOL    HW113587   1.049   7.164   1.902
 3916SOL    HW213588   0.916   7.223   1.860
 3917SOL     OW13589  11.677  13.798   6.628
 3917SOL    HW113590  11.603  13.858   6.620
 3917SOL    HW213591  11.675  13.747   6.547
 3918SOL     OW13592   0.774  10.772   1.217
 3918SOL    HW113593   0.790  10.841   1.153
 3918SOL    HW213594   0.713  10.810   1.280
 3919SOL     OW13595  11.562  12.426   3.872
 3919SOL    HW113596  11.474  12.443   3.905
 3919SOL    HW213597  11.560  12.456   3.781
 3920SOL     OW13598   0.779  10.420   8.875
 3920SOL    HW113599   0.688  10.437   8.897
 3920SOL    HW213600   0.828  10.456   8.949
 3921SOL     OW13601   8.901  13.466  10.343
 3921SOL    HW113602   8.837  13.537  10.338
 3921SOL    HW213603   8.976  13.504  10.388
 3922SOL     OW13604   7.611  10.093   4.324
 3922SOL    HW113605   7.538  10.079   4.385
 3922SOL    HW213606   7.667  10.016   4.336
 3923SOL     OW13607   1.644   1.636   9.197
 3923SOL    HW113608   1.686   1.618   9.281
 3923SOL    HW213609   1.604   1.723   9.208
 3924SOL     OW13610   1.345   4.094   8.919
 3924SOL    HW113611   1.260   4.054   8.934
 3924SOL    HW213612   1.333   4.186   8.940
 3925SOL     OW13613  13.580   8.042   9.343
 3925SOL    HW113614  13.569   8.030   9.437
 3925SOL    HW213615  13.580   8.137   9.330
 3926SOL     OW13616   9.505   1.426  14.537
 3926SOL    HW113617   9.516   1.382  14.621
 3926SOL    HW213618   9.549   1.511  14.548
 3927SOL     OW13619   7.401   1.004   4.029
 3927SOL    HW113620   7.473   0.988   4.090
 3927SOL    HW213621   7.335   0.939   4.053
 3928SOL     OW13622   5.028   4.080   5.561
 3928SOL    HW113623   5.086   4.040   5.626
 3928SOL    HW213624   4.940   4.072   5.598
 3929SOL     OW13625  12.251   2.476  14.450
 3929SOL    HW113626  12.296   2.391  14.452
 3929SOL    HW213627  12.310   2.533  14.401
 3930SOL     OW13628   2.479   6.461   3.342
 3930SOL    HW113629   2.412   6.513   3.388
 3930SOL    HW213630   2.463   6.478   3.249
 3931SOL     OW13631  14.494  13.414  12.348
 3931SOL    HW113632  14.527  13.503  12.334
 3931SOL    HW213633  14.525  13.364  12.272
 3932SOL     OW13634   5.489  14.447  11.775
 3932SOL    HW113635   5.573  14.490  11.760
 3932SOL    HW213636   5.480  14.443  11.871
 3933SOL     OW13637   2.288   8.569   9.211
 3933SOL    HW113638   2.258   8.518   9.286
 3933SOL    HW213639   2.375   8.534   9.192
 3934SOL     OW13640  13.858   0.266   4.344
 3934SOL    HW113641  13.868   0.352   4.303
 3934SOL    HW213642  13.926   0.263   4.411
 3935SOL     OW13643   3.628   5.616   4.174
 3935SOL    HW113644   3.533   5.608   4.166
 3935SOL    HW213645   3.654   5.672   4.101
 3936SOL     OW13646   9.103  12.539  14.145
 3936SOL    HW113647   9.147  12.486  14.211
 3936SOL    HW213648   9.033  12.584  14.193
 3937SOL     OW13649   3.571   1.520   5.285
 3937SOL    HW113650   3.569   1.477   5.199
 3937SOL    HW213651   3.622   1.461   5.340
 3938SOL     OW13652   1.276   0.305   9.692
 3938SOL    HW113653   1.367   0.305   9.723
 3938SOL    HW213654   1.277   0.362   9.615
 3939SOL     OW13655   1.904   5.747  11.801
 3939SOL    HW113656   1.946   5.830  11.826
 3939SOL    HW213657   1.811   5.765  11.807
 3940SOL     OW13658   9.972  10.918   7.979
 3940SOL    HW113659   9.950  10.978   7.908
 3940SOL    HW213660  10.038  10.964   8.031
 3941SOL     OW13661   6.452   4.466   5.081
 3941SOL    HW113662   6.454   4.376   5.051
 3941SOL    HW213663   6.489   4.517   5.009
 3942SOL     OW13664   9.542   1.985  12.382
 3942SOL    HW113665   9.568   2.030  12.462
 3942SOL    HW213666   9.578   2.038  12.311
 3943SOL     OW13667   6.000   7.599   5.150
 3943SOL    HW113668   6.064   7.541   5.109
 3943SOL    HW213669   6.043   7.684   5.151
 3944SOL     OW13670   5.218   5.644  10.728
 3944SOL    HW113671   5.291   5.656  10.667
 3944SOL    HW213672   5.188   5.554  10.711
 3945SOL     OW13673  10.208   2.727   6.810
 3945SOL    HW113674  10.242   2.743   6.722
 3945SOL    HW213675  10.229   2.635   6.827
 3946SOL     OW13676  11.611  10.491   7.502
 3946SOL    HW113677  11.613  10.395   7.499
 3946SOL    HW213678  11.701  10.517   7.521
 3947SOL     OW13679   6.917  10.109  11.356
 3947SOL    HW113680   6.839  10.063  11.324
 3947SOL    HW213681   6.890  10.147  11.440
 3948SOL     OW13682   3.141   5.155  10.636
 3948SOL    HW113683   3.159   5.239  10.678
 3948SOL    HW213684   3.049   5.138  10.654
 3949SOL     OW13685   6.254   8.390   9.221
 3949SOL    HW113686   6.301   8.461   9.178
 3949SOL    HW213687   6.165   8.395   9.186
 3950SOL     OW13688   9.298  11.270  11.081
 3950SOL    HW113689   9.283  11.179  11.057
 3950SOL    HW213690   9.353  11.266  11.160
 3951SOL     OW13691   6.826  13.886   6.459
 3951SOL    HW113692   6.827  13.791   6.449
 3951SOL    HW213693   6.752  13.903   6.518
 3952SOL     OW13694   5.222   0.417   9.650
 3952SOL    HW113695   5.296   0.398   9.592
 3952SOL    HW213696   5.257   0.402   9.738
 3953SOL     OW13697   9.098  12.829   6.122
 3953SOL    HW113698   9.160  12.756   6.125
 3953SOL    HW213699   9.079  12.840   6.028
 3954SOL     OW13700   6.958   4.165   1.519
 3954SOL    HW113701   6.868   4.178   1.491
 3954SOL    HW213702   6.953   4.156   1.614
 3955SOL     OW13703   8.736  14.746   0.422
 3955SOL    HW113704   8.642  14.754   0.404
 3955SOL    HW213705   8.763  14.835   0.445
 3956SOL     OW13706   9.852   4.272   0.917
 3956SOL    HW113707   9.945   4.249   0.917
 3956SOL    HW213708   9.846   4.347   0.976
 3957SOL     OW13709   8.369  11.829  12.065
 3957SOL    HW113710   8.362  11.737  12.089
 3957SOL    HW213711   8.279  11.861  12.061
 3958SOL     OW13712   5.773   8.806   5.295
 3958SOL    HW113713   5.730   8.808   5.380
 3958SOL    HW213714   5.764   8.716   5.265
 3959SOL     OW13715   1.430  13.752   7.437
 3959SOL    HW113716   1.370  13.715   7.373
 3959SOL    HW213717   1.378  13.818   7.483
 3960SOL     OW13718  11.249   9.370  11.624
 3960SOL    HW113719  11.248   9.390  11.718
 3960SOL    HW213720  11.244   9.274  11.620
 3961SOL     OW13721   3.866   9.868   7.714
 3961SOL    HW113722   3.949   9.869   7.667
 3961SOL    HW213723   3.889   9.845   7.804
 3962SOL     OW13724   8.473   9.858   3.409
 3962SOL    HW113725   8.514   9.775   3.385
 3962SOL    HW213726   8.416   9.879   3.335
 3963SOL     OW13727   9.350  13.890  14.847
 3963SOL    HW113728   9.267  13.844  14.836
 3963SOL    HW213729   9.393  13.846   0.039
 3964SOL     OW13730   6.730   0.059  11.378
 3964SOL    HW113731   6.795   0.051  11.448
 3964SOL    HW213732   6.672  14.866  11.390
 3965SOL     OW13733  10.692  14.050   5.487
 3965SOL    HW113734  10.782  14.028   5.465
 3965SOL    HW213735  10.646  14.052   5.403
 3966SOL     OW13736   2.504   7.268  13.650
 3966SOL    HW113737   2.481   7.351  13.693
 3966SOL    HW213738   2.422   7.238  13.610
 3967SOL     OW13739   4.595  13.417   2.974
 3967SOL    HW113740   4.654  13.410   3.049
 3967SOL    HW213741   4.512  13.382   3.005
 3968SOL     OW13742  12.914   5.775   3.853
 3968SOL    HW113743  12.833   5.824   3.868
 3968SOL    HW213744  12.981   5.822   3.903
 3969SOL     OW13745   5.286   1.853   6.455
 3969SOL    HW113746   5.301   1.769   6.498
 3969SOL    HW213747   5.201   1.882   6.487
 3970SOL     OW13748  14.359  14.649   5.617
 3970SOL    HW113749  14.317  14.630   5.533
 3970SOL    HW213750  14.453  14.643   5.598
 3971SOL     OW13751   1.258  12.292   7.080
 3971SOL    HW113752   1.178  12.341   7.098
 3971SOL    HW213753   1.228  12.210   7.041
 3972SOL     OW13754   6.116   0.158   3.126
 3972SOL    HW113755   6.171   0.197   3.194
 3972SOL    HW213756   6.130   0.213   3.049
 3973SOL     OW13757  14.814   0.851  13.676
 3973SOL    HW113758  14.811   0.885  13.766
 3973SOL    HW213759  14.788   0.925  13.622
 3974SOL     OW13760   2.880   9.090  13.048
 3974SOL    HW113761   2.803   9.049  13.009
 3974SOL    HW213762   2.887   9.175  13.005
 3975SOL     OW13763   6.965   6.201  14.041
 3975SOL    HW113764   6.988   6.289  14.071
 3975SOL    HW213765   7.048   6.162  14.014
 3976SOL     OW13766   2.810  13.067  12.821
 3976SOL    HW113767   2.733  13.022  12.786
 3976SOL    HW213768   2.846  13.114  12.746
 3977SOL     OW13769   3.684  11.997   2.692
 3977SOL    HW113770   3.771  11.968   2.720
 3977SOL    HW213771   3.624  11.939   2.739
 3978SOL     OW13772  13.110   8.577   4.596
 3978SOL    HW113773  13.153   8.653   4.556
 3978SOL    HW213774  13.092   8.604   4.686
 3979SOL     OW13775  11.711   9.291   5.936
 3979SOL    HW113776  11.668   9.358   5.989
 3979SOL    HW213777  11.638   9.238   5.902
 3980SOL     OW13778   0.673   0.811  14.015
 3980SOL    HW113779   0.687   0.846  13.927
 3980SOL    HW213780   0.666   0.889  14.071
 3981SOL     OW13781   2.622  12.640  11.961
 3981SOL    HW113782   2.542  12.606  11.920
 3981SOL    HW213783   2.647  12.715  11.907
 3982SOL     OW13784   0.724  12.752  13.145
 3982SOL    HW113785   0.810  12.756  13.104
 3982SOL    HW213786   0.696  12.661  13.133
 3983SOL     OW13787  14.816  13.293  10.220
 3983SOL    HW113788   0.016  13.324  10.258
 3983SOL    HW213789  14.827  13.198  10.213
 3984SOL     OW13790   0.432   6.300   8.209
 3984SOL    HW113791   0.491   6.225   8.218
 3984SOL    HW213792   0.487   6.371   8.175
 3985SOL     OW13793   7.062  11.316   4.345
 3985SOL    HW113794   7.077  11.270   4.263
 3985SOL    HW213795   7.146  11.313   4.390
 3986SOL     OW13796   4.639   2.294   3.122
 3986SOL    HW113797   4.686   2.247   3.053
 3986SOL    HW213798   4.566   2.336   3.076
 3987SOL     OW13799   2.394   0.078  12.834
 3987SOL    HW113800   2.425   0.030  12.911
 3987SOL    HW213801   2.389   0.169  12.862
 3988SOL     OW13802  11.392   4.937   3.823
 3988SOL    HW113803  11.397   4.841   3.823
 3988SOL    HW213804  11.324   4.957   3.887
 3989SOL     OW13805   8.789  13.694  12.601
 3989SOL    HW113806   8.776  13.646  12.519
 3989SOL    HW213807   8.718  13.664  12.658
 3990SOL     OW13808   3.734   5.966   2.378
 3990SOL    HW113809   3.744   6.040   2.437
 3990SOL    HW213810   3.737   5.889   2.435
 3991SOL     OW13811   0.665   3.166  13.785
 3991SOL    HW113812   0.603   3.159  13.712
 3991SOL    HW213813   0.670   3.077  13.820
 3992SOL     OW13814   4.527   1.691   2.638
 3992SOL    HW113815   4.546   1.609   2.682
 3992SOL    HW213816   4.448   1.725   2.682
 3993SOL     OW13817  10.462   8.099   5.538
 3993SOL    HW113818  10.450   8.193   5.545
 3993SOL    HW213819  10.516   8.087   5.460
 3994SOL     OW13820  13.071   3.319  10.477
 3994SOL    HW113821  13.005   3.383  10.449
 3994SOL    HW213822  13.020   3.245  10.508
 3995SOL     OW13823   1.680   4.154   6.500
 3995SOL    HW113824   1.592   4.149   6.462
 3995SOL    HW213825   1.688   4.077   6.555
 3996SOL     OW13826   5.993   2.513   8.680
 3996SOL    HW113827   5.999   2.573   8.755
 3996SOL    HW213828   5.900   2.512   8.659
 3997SOL     OW13829   7.933   5.464   3.400
 3997SOL    HW113830   7.980   5.546   3.418
 3997SOL    HW213831   7.978   5.398   3.453
 3998SOL     OW13832   7.799   4.339  13.468
 3998SOL    HW113833   7.800   4.430  13.495
 3998SOL    HW213834   7.835   4.291  13.543
 3999SOL     OW13835   3.856   0.982  10.645
 3999SOL    HW113836   3.883   0.924  10.573
 3999SOL    HW213837   3.936   1.029  10.669
 4000SOL     OW13838  11.652   0.786   9.996
 4000SOL    HW113839  11.610   0.866   9.967
 4000SOL    HW213840  11.638   0.724   9.924
 4001SOL     OW13841   6.866   2.240  10.940
 4001SOL    HW113842   6.918   2.191  11.004
 4001SOL    HW213843   6.861   2.329  10.977
 4002SOL     OW13844  10.459   7.642  14.678
 4002SOL    HW113845  10.428   7.606  14.595
 4002SOL    HW213846  10.522   7.577  14.711
 4003SOL     OW13847   4.954   0.202   4.907
 4003SOL    HW113848   5.045   0.193   4.937
 4003SOL    HW213849   4.906   0.232   4.984
 4004SOL     OW13850   6.916   3.198  14.694
 4004SOL    HW113851   6.946   3.156  14.774
 4004SOL    HW213852   6.989   3.253  14.666
 4005SOL     OW13853   5.889   9.958   4.748
 4005SOL    HW113854   5.859   9.881   4.796
 4005SOL    HW213855   5.946  10.004   4.810
 4006SOL     OW13856   8.746   0.787   4.242
 4006SOL    HW113857   8.691   0.850   4.196
 4006SOL    HW213858   8.709   0.781   4.330
 4007SOL     OW13859   1.883   8.971  11.688
 4007SOL    HW113860   1.838   8.911  11.629
 4007SOL    HW213861   1.976   8.956  11.673
 4008SOL     OW13862  12.102  13.727   4.305
 4008SOL    HW113863  12.013  13.693   4.294
 4008SOL    HW213864  12.102  13.768   4.392
 4009SOL     OW13865   7.554   7.086  10.336
 4009SOL    HW113866   7.533   7.024  10.268
 4009SOL    HW213867   7.636   7.054  10.374
 4010SOL     OW13868  11.337   7.421  14.347
 4010SOL    HW113869  11.244   7.446  14.343
 4010SOL    HW213870  11.354   7.378  14.263
 4011SOL     OW13871  11.038  13.843  12.632
 4011SOL    HW113872  11.004  13.804  12.712
 4011SOL    HW213873  10.964  13.841  12.571
 4012SOL     OW13874   3.531   2.868   7.210
 4012SOL    HW113875   3.578   2.951   7.214
 4012SOL    HW213876   3.444   2.890   7.177
 4013SOL     OW13877   0.157   2.732   4.676
 4013SOL    HW113878   0.206   2.808   4.647
 4013SOL    HW213879   0.065   2.755   4.661
 4014SOL     OW13880  12.019  13.624  11.960
 4014SOL    HW113881  12.035  13.719  11.959
 4014SOL    HW213882  11.972  13.609  12.042
 4015SOL     OW13883  10.996   0.806   2.035
 4015SOL    HW113884  10.942   0.755   1.974
 4015SOL    HW213885  10.946   0.886   2.050
 4016SOL     OW13886   9.824   2.862  11.250
 4016SOL    HW113887   9.875   2.837  11.173
 4016SOL    HW213888   9.881   2.839  11.324
 4017SOL     OW13889   1.048   4.614   9.998
 4017SOL    HW113890   0.987   4.612   9.924
 4017SOL    HW213891   0.992   4.606  10.075
 4018SOL     OW13892  11.282   9.092   1.269
 4018SOL    HW113893  11.354   9.152   1.251
 4018SOL    HW213894  11.249   9.120   1.354
 4019SOL     OW13895   1.146   8.972  12.451
 4019SOL    HW113896   1.218   8.940  12.398
 4019SOL    HW213897   1.165   9.065  12.464
 4020SOL     OW13898  10.610   8.683  13.483
 4020SOL    HW113899  10.698   8.665  13.517
 4020SOL    HW213900  10.594   8.612  13.421
 4021SOL     OW13901  12.511  12.026   0.261
 4021SOL    HW113902  12.457  11.977   0.199
 4021SOL    HW213903  12.601  12.006   0.235
 4022SOL     OW13904  11.485   0.367  12.078
 4022SOL    HW113905  11.400   0.369  12.123
 4022SOL    HW213906  11.505   0.458  12.061
 4023SOL     OW13907   0.582   9.315  10.924
 4023SOL    HW113908   0.611   9.323  10.833
 4023SOL    HW213909   0.650   9.263  10.966
 4024SOL     OW13910  14.881  11.302   2.930
 4024SOL    HW113911  14.882  11.349   3.013
 4024SOL    HW213912   0.081  11.253   2.930
 4025SOL     OW13913  14.365   0.891   6.804
 4025SOL    HW113914  14.282   0.918   6.845
 4025SOL    HW213915  14.383   0.805   6.841
 4026SOL     OW13916   8.312  13.487   3.880
 4026SOL    HW113917   8.242  13.546   3.904
 4026SOL    HW213918   8.297  13.469   3.787
 4027SOL     OW13919   2.336   1.158  12.726
 4027SOL    HW113920   2.289   1.205  12.795
 4027SOL    HW213921   2.268   1.119  12.672
 4028SOL     OW13922   4.028  13.048   8.370
 4028SOL    HW113923   3.935  13.034   8.354
 4028SOL    HW213924   4.060  12.963   8.401
 4029SOL     OW13925   7.010  13.264   5.128
 4029SOL    HW113926   7.025  13.336   5.189
 4029SOL    HW213927   6.946  13.208   5.171
 4030SOL     OW13928   1.468  11.565  14.868
 4030SOL    HW113929   1.490  11.609  14.786
 4030SOL    HW213930   1.391  11.513  14.847
 4031SOL     OW13931  10.935  14.230   5.502
 4031SOL    HW113932  10.913  14.212   5.411
 4031SOL    HW213933  10.850  14.241   5.545
 4032SOL     OW13934   4.771  11.824   7.423
 4032SOL    HW113935   4.779  11.814   7.328
 4032SOL    HW213936   4.848  11.874   7.448
 4033SOL     OW13937   8.552   1.626   2.661
 4033SOL    HW113938   8.475   1.681   2.643
 4033SOL    HW213939   8.607   1.680   2.718
 4034SOL     OW13940  11.640   5.304   3.897
 4034SOL    HW113941  11.633   5.273   3.988
 4034SOL    HW213942  11.667   5.396   3.906
 4035SOL     OW13943   1.882   9.923  12.395
 4035SOL    HW113944   1.938   9.954  12.466
 4035SOL    HW213945   1.807   9.882  12.440
 4036SOL     OW13946   3.675   4.415   5.032
 4036SOL    HW113947   3.643   4.470   5.104
 4036SOL    HW213948   3.757   4.379   5.064
 4037SOL     OW13949   5.570   9.527   7.368
 4037SOL    HW113950   5.571   9.446   7.418
 4037SOL    HW213951   5.650   9.524   7.316
 4038SOL     OW13952  10.785   1.737   6.377
 4038SOL    HW113953  10.844   1.751   6.451
 4038SOL    HW213954  10.798   1.645   6.353
 4039SOL     OW13955   9.633   8.577  14.837
 4039SOL    HW113956   9.569   8.594  14.768
 4039SOL    HW213957   9.598   8.500   0.001
 4040SOL     OW13958  14.530   7.927   5.209
 4040SOL    HW113959  14.543   7.906   5.117
 4040SOL    HW213960  14.442   7.894   5.229
 4041SOL     OW13961   7.768   8.065   3.946
 4041SOL    HW113962   7.675   8.075   3.930
 4041SOL    HW213963   7.800   8.154   3.957
 4042SOL     OW13964  13.632   6.867   8.256
 4042SOL    HW113965  13.665   6.956   8.250
 4042SOL    HW213966  13.708   6.812   8.240
 4043SOL     OW13967   9.378  11.354  13.104
 4043SOL    HW113968   9.437  11.372  13.177
 4043SOL    HW213969   9.424  11.388  13.027
 4044SOL     OW13970  11.879  11.581  13.943
 4044SOL    HW113971  11.808  11.603  13.882
 4044SOL    HW213972  11.842  11.598  14.030
 4045SOL     OW13973   1.463  13.221   9.898
 4045SOL    HW113974   1.472  13.171   9.817
 4045SOL    HW213975   1.379  13.192   9.934
 4046SOL     OW13976  13.135   5.290   4.272
 4046SOL    HW113977  13.130   5.210   4.324
 4046SOL    HW213978  13.228   5.299   4.251
 4047SOL     OW13979   4.866  12.147  13.932
 4047SOL    HW113980   4.904  12.216  13.987
 4047SOL    HW213981   4.925  12.073  13.945
 4048SOL     OW13982  14.050  12.980  14.299
 4048SOL    HW113983  14.062  12.925  14.376
 4048SOL    HW213984  14.037  12.918  14.227
 4049SOL     OW13985   2.364  13.371  12.510
 4049SOL    HW113986   2.459  13.366  12.496
 4049SOL    HW213987   2.353  13.372  12.605
 4050SOL     OW13988   1.799  10.722   1.034
 4050SOL    HW113989   1.777  10.805   1.078
 4050SOL    HW213990   1.891  10.707   1.056
 4051SOL     OW13991   0.251  13.699   8.683
 4051SOL    HW113992   0.226  13.630   8.744
 4051SOL    HW213993   0.301  13.761   8.736
 4052SOL     OW13994   4.490  14.034   8.238
 4052SOL    HW113995   4.408  14.052   8.191
 4052SOL    HW213996   4.488  14.093   8.313
 4053SOL     OW13997  10.903   1.357  10.212
 4053SOL    HW113998  10.926   1.449  10.227
 4053SOL    HW213999  10.974   1.308  10.253
 4054SOL     OW14000   4.143   3.377  11.879
 4054SOL    HW114001   4.176   3.336  11.960
 4054SOL    HW214002   4.221   3.412  11.837
 4055SOL     OW14003   4.443   5.960  13.537
 4055SOL    HW114004   4.370   5.951  13.475
 4055SOL    HW214005   4.406   6.009  13.611
 4056SOL     OW14006   9.805  12.298  12.690
 4056SOL    HW114007   9.819  12.222  12.746
 4056SOL    HW214008   9.780  12.368  12.750
 4057SOL     OW14009   3.842   6.209  12.726
 4057SOL    HW114010   3.876   6.243  12.643
 4057SOL    HW214011   3.770   6.268  12.749
 4058SOL     OW14012  11.614   4.576   8.446
 4058SOL    HW114013  11.530   4.564   8.399
 4058SOL    HW214014  11.606   4.520   8.523
 4059SOL     OW14015   3.521  13.371   2.092
 4059SOL    HW114016   3.500  13.389   2.183
 4059SOL    HW214017   3.588  13.436   2.070
 4060SOL     OW14018  10.987   6.864   7.218
 4060SOL    HW114019  11.054   6.930   7.237
 4060SOL    HW214020  10.988   6.855   7.123
 4061SOL     OW14021   4.647  13.409   4.937
 4061SOL    HW114022   4.673  13.445   5.022
 4061SOL    HW214023   4.729  13.379   4.898
 4062SOL     OW14024   5.146  10.429   3.097
 4062SOL    HW114025   5.155  10.341   3.062
 4062SOL    HW214026   5.091  10.475   3.033
 4063SOL     OW14027   7.456   5.460  12.926
 4063SOL    HW114028   7.413   5.475  13.010
 4063SOL    HW214029   7.384   5.450  12.863
 4064SOL     OW14030   5.410   1.897   5.177
 4064SOL    HW114031   5.427   1.925   5.267
 4064SOL    HW214032   5.350   1.963   5.143
 4065SOL     OW14033   1.625   3.843   6.379
 4065SOL    HW114034   1.617   3.798   6.294
 4065SOL    HW214035   1.605   3.934   6.359
 4066SOL     OW14036   2.156  10.846   1.461
 4066SOL    HW114037   2.225  10.854   1.395
 4066SOL    HW214038   2.203  10.822   1.541
 4067SOL     OW14039   5.601   4.514  13.424
 4067SOL    HW114040   5.584   4.602  13.457
 4067SOL    HW214041   5.514   4.478  13.405
 4068SOL     OW14042   1.169   7.999   9.843
 4068SOL    HW114043   1.130   7.946   9.773
 4068SOL    HW214044   1.140   7.958   9.924
 4069SOL     OW14045  11.441   8.421   0.086
 4069SOL    HW114046  11.380   8.398   0.157
 4069SOL    HW214047  11.395   8.396   0.006
 4070SOL     OW14048   1.208  13.092   6.600
 4070SOL    HW114049   1.294  13.064   6.632
 4070SOL    HW214050   1.166  13.131   6.676
 4071SOL     OW14051  11.618  10.077  14.377
 4071SOL    HW114052  11.623  10.107  14.287
 4071SOL    HW214053  11.543  10.124  14.414
 4072SOL     OW14054   8.742  13.959   7.644
 4072SOL    HW114055   8.741  14.006   7.561
 4072SOL    HW214056   8.669  13.996   7.694
 4073SOL     OW14057  10.583   6.116  11.425
 4073SOL    HW114058  10.601   6.096  11.517
 4073SOL    HW214059  10.494   6.084  11.411
 4074SOL     OW14060   9.641   3.473   2.284
 4074SOL    HW114061   9.696   3.541   2.246
 4074SOL    HW214062   9.700   3.398   2.296
 4075SOL     OW14063  11.637   3.205  14.233
 4075SOL    HW114064  11.635   3.250  14.149
 4075SOL    HW214065  11.730   3.195  14.253
 4076SOL     OW14066   8.166   9.658   7.133
 4076SOL    HW114067   8.253   9.633   7.102
 4076SOL    HW214068   8.156   9.749   7.106
 4077SOL     OW14069   7.464  10.258  10.804
 4077SOL    HW114070   7.495  10.181  10.852
 4077SOL    HW214071   7.395  10.224  10.747
 4078SOL     OW14072  10.396   2.647   8.917
 4078SOL    HW114073  10.373   2.698   8.994
 4078SOL    HW214074  10.336   2.678   8.849
 4079SOL     OW14075  10.850   0.568   9.180
 4079SOL    HW114076  10.927   0.535   9.225
 4079SOL    HW214077  10.825   0.647   9.229
 4080SOL     OW14078  13.596  11.700   1.570
 4080SOL    HW114079  13.588  11.617   1.523
 4080SOL    HW214080  13.682  11.695   1.612
 4081SOL     OW14081   9.465   2.641   3.105
 4081SOL    HW114082   9.391   2.624   3.047
 4081SOL    HW214083   9.470   2.564   3.161
 4082SOL     OW14084   8.490   8.779  14.351
 4082SOL    HW114085   8.545   8.838  14.301
 4082SOL    HW214086   8.437   8.836  14.406
 4083SOL     OW14087   9.760   0.739   5.272
 4083SOL    HW114088   9.762   0.809   5.337
 4083SOL    HW214089   9.765   0.659   5.324
 4084SOL     OW14090   6.572  10.805  14.847
 4084SOL    HW114091   6.616  10.738  14.795
 4084SOL    HW214092   6.485  10.769  14.865
 4085SOL     OW14093  14.867  14.130  11.625
 4085SOL    HW114094   0.011  14.222  11.633
 4085SOL    HW214095  14.875  14.095  11.714
 4086SOL     OW14096   1.779   0.461   0.784
 4086SOL    HW114097   1.798   0.555   0.784
 4086SOL    HW214098   1.848   0.423   0.729
 4087SOL     OW14099  11.565   6.502   7.321
 4087SOL    HW114100  11.578   6.451   7.241
 4087SOL    HW214101  11.575   6.593   7.293
 4088SOL     OW14102  12.815   9.991   7.457
 4088SOL    HW114103  12.758  10.049   7.407
 4088SOL    HW214104  12.777   9.990   7.545
 4089SOL     OW14105   7.324  14.161   3.041
 4089SOL    HW114106   7.415  14.137   3.052
 4089SOL    HW214107   7.291  14.174   3.130
 4090SOL     OW14108  11.573   8.042  12.817
 4090SOL    HW114109  11.506   8.099  12.778
 4090SOL    HW214110  11.558   7.957  12.776
 4091SOL     OW14111   5.067   8.358  13.521
 4091SOL    HW114112   5.040   8.340  13.431
 4091SOL    HW214113   5.153   8.317  13.530
 4092SOL     OW14114   1.248   4.090   2.802
 4092SOL    HW114115   1.159   4.110   2.772
 4092SOL    HW214116   1.284   4.033   2.734
 4093SOL     OW14117   6.051   7.200   7.758
 4093SOL    HW114118   6.044   7.284   7.802
 4093SOL    HW214119   6.085   7.140   7.825
 4094SOL     OW14120   7.818   8.263   6.448
 4094SOL    HW114121   7.903   8.223   6.428
 4094SOL    HW214122   7.783   8.210   6.520
 4095SOL     OW14123   1.360   6.932   7.443
 4095SOL    HW114124   1.283   6.901   7.490
 4095SOL    HW214125   1.427   6.865   7.461
 4096SOL     OW14126   5.218   9.420  14.637
 4096SOL    HW114127   5.186   9.469  14.713
 4096SOL    HW214128   5.249   9.487  14.576
 4097SOL     OW14129   6.720   3.528  11.661
 4097SOL    HW114130   6.744   3.453  11.607
 4097SOL    HW214131   6.666   3.490  11.731
 4098SOL     OW14132   6.175   0.696   7.458
 4098SOL    HW114133   6.086   0.732   7.463
 4098SOL    HW214134   6.180   0.634   7.531
 4099SOL     OW14135  14.832   0.738  12.312
 4099SOL    HW114136   0.046   0.734  12.312
 4099SOL    HW214137  14.809   0.770  12.399
 4100SOL     OW14138   0.546  11.167   3.646
 4100SOL    HW114139   0.505  11.221   3.578
 4100SOL    HW214140   0.511  11.201   3.728
 4101SOL     OW14141  10.009  11.539   8.760
 4101SOL    HW114142  10.081  11.505   8.708
 4101SOL    HW214143  10.033  11.520   8.851
 4102SOL     OW14144  12.697   2.571   4.425
 4102SOL    HW114145  12.653   2.580   4.341
 4102SOL    HW214146  12.653   2.634   4.482
 4103SOL     OW14147   7.811   0.646   3.495
 4103SOL    HW114148   7.809   0.559   3.455
 4103SOL    HW214149   7.761   0.637   3.576
 4104SOL     OW14150  11.152  10.873   5.725
 4104SOL    HW114151  11.146  10.845   5.816
 4104SOL    HW214152  11.101  10.809   5.676
 4105SOL     OW14153   1.763  11.625  13.634
 4105SOL    HW114154   1.672  11.600  13.649
 4105SOL    HW214155   1.814  11.553  13.671
 4106SOL     OW14156  14.508  14.181  14.188
 4106SOL    HW114157  14.486  14.087  14.182
 4106SOL    HW214158  14.505  14.212  14.097
 4107SOL     OW14159   9.189  10.855   6.032
 4107SOL    HW114160   9.161  10.934   6.078
 4107SOL    HW214161   9.129  10.847   5.958
 4108SOL     OW14162   2.850   1.471   7.798
 4108SOL    HW114163   2.887   1.468   7.709
 4108SOL    HW214164   2.801   1.553   7.800
 4109SOL     OW14165   1.733   4.029   2.364
 4109SOL    HW114166   1.828   4.033   2.371
 4109SOL    HW214167   1.707   3.960   2.425
 4110SOL     OW14168   4.465   7.640   4.280
 4110SOL    HW114169   4.442   7.557   4.239
 4110SOL    HW214170   4.559   7.633   4.298
 4111SOL     OW14171   6.170  13.525   2.717
 4111SOL    HW114172   6.198  13.508   2.627
 4111SOL    HW214173   6.158  13.620   2.721
 4112SOL     OW14174   8.124  14.822   6.275
 4112SOL    HW114175   8.178  14.851   6.201
 4112SOL    HW214176   8.037  14.809   6.237
 4113SOL     OW14177   6.096   3.901  11.784
 4113SOL    HW114178   6.065   3.879  11.872
 4113SOL    HW214179   6.172   3.957  11.799
 4114SOL     OW14180   9.619   9.700   1.221
 4114SOL    HW114181   9.617   9.721   1.315
 4114SOL    HW214182   9.536   9.734   1.188
 4115SOL     OW14183  14.238  14.166   4.170
 4115SOL    HW114184  14.236  14.209   4.084
 4115SOL    HW214185  14.234  14.073   4.151
 4116SOL     OW14186  12.011  13.867   6.838
 4116SOL    HW114187  11.919  13.850   6.858
 4116SOL    HW214188  12.032  13.807   6.767
 4117SOL     OW14189   5.038  14.847  14.587
 4117SOL    HW114190   4.999   0.045  14.620
 4117SOL    HW214191   5.055  14.795  14.666
 4118SOL     OW14192   2.653  11.957   1.317
 4118SOL    HW114193   2.704  11.937   1.239
 4118SOL    HW214194   2.568  11.917   1.301
 4119SOL     OW14195   5.744   2.613  13.627
 4119SOL    HW114196   5.705   2.627  13.713
 4119SOL    HW214197   5.805   2.686  13.615
 4120SOL     OW14198  10.980  10.860  11.417
 4120SOL    HW114199  11.028  10.883  11.337
 4120SOL    HW214200  11.016  10.776  11.443
 4121SOL     OW14201  10.530   7.969   3.215
 4121SOL    HW114202  10.529   7.893   3.274
 4121SOL    HW214203  10.512   7.933   3.128
 4122SOL     OW14204   1.425   4.526   1.058
 4122SOL    HW114205   1.358   4.459   1.070
 4122SOL    HW214206   1.437   4.565   1.144
 4123SOL     OW14207  12.758   8.991  13.406
 4123SOL    HW114208  12.829   9.009  13.467
 4123SOL    HW214209  12.719   9.077  13.388
 4124SOL     OW14210   1.581   9.526   7.311
 4124SOL    HW114211   1.495   9.491   7.333
 4124SOL    HW214212   1.598   9.592   7.378
 4125SOL     OW14213   9.495   7.396  13.387
 4125SOL    HW114214   9.558   7.358  13.449
 4125SOL    HW214215   9.502   7.490  13.401
 4126SOL     OW14216   6.560  12.676   9.210
 4126SOL    HW114217   6.630  12.741   9.201
 4126SOL    HW214218   6.599  12.606   9.261
 4127SOL     OW14219   7.263  13.985   7.239
 4127SOL    HW114220   7.334  13.969   7.177
 4127SOL    HW214221   7.254  14.080   7.242
 4128SOL     OW14222  14.267  11.174   1.231
 4128SOL    HW114223  14.173  11.166   1.244
 4128SOL    HW214224  14.293  11.089   1.195
 4129SOL     OW14225  10.388  14.448  10.875
 4129SOL    HW114226  10.300  14.419  10.901
 4129SOL    HW214227  10.438  14.367  10.866
 4130SOL     OW14228   0.510  11.348   8.975
 4130SOL    HW114229   0.561  11.273   9.005
 4130SOL    HW214230   0.569  11.423   8.984
 4131SOL     OW14231  12.340   0.359   4.093
 4131SOL    HW114232  12.400   0.408   4.037
 4131SOL    HW214233  12.268   0.333   4.035
 4132SOL     OW14234   5.801  10.804   2.645
 4132SOL    HW114235   5.860  10.730   2.630
 4132SOL    HW214236   5.731  10.769   2.700
 4133SOL     OW14237   6.275  10.254   3.214
 4133SOL    HW114238   6.302  10.301   3.293
 4133SOL    HW214239   6.184  10.279   3.201
 4134SOL     OW14240   8.429   2.550   8.006
 4134SOL    HW114241   8.342   2.539   8.044
 4134SOL    HW214242   8.489   2.524   8.076
 4135SOL     OW14243  10.951  12.427  10.223
 4135SOL    HW114244  10.902  12.509  10.218
 4135SOL    HW214245  11.006  12.427  10.145
 4136SOL     OW14246   1.247   6.276  14.657
 4136SOL    HW114247   1.199   6.282  14.739
 4136SOL    HW214248   1.213   6.197  14.615
 4137SOL     OW14249   9.180   8.183  12.969
 4137SOL    HW114250   9.130   8.264  12.980
 4137SOL    HW214251   9.114   8.114  12.959
 4138SOL     OW14252   2.457  13.219   8.273
 4138SOL    HW114253   2.513  13.240   8.198
 4138SOL    HW214254   2.504  13.255   8.348
 4139SOL     OW14255   3.973   3.245   7.585
 4139SOL    HW114256   3.906   3.296   7.539
 4139SOL    HW214257   3.983   3.288   7.670
 4140SOL     OW14258   8.763   8.612  11.687
 4140SOL    HW114259   8.856   8.593  11.694
 4140SOL    HW214260   8.735   8.568  11.607
 4141SOL     OW14261  14.406   5.791   0.940
 4141SOL    HW114262  14.411   5.705   0.897
 4141SOL    HW214263  14.359   5.846   0.877
 4142SOL     OW14264   4.058   1.649  10.967
 4142SOL    HW114265   3.974   1.608  10.988
 4142SOL    HW214266   4.035   1.738  10.940
 4143SOL     OW14267   3.280   3.776  14.030
 4143SOL    HW114268   3.217   3.838  14.067
 4143SOL    HW214269   3.365   3.816  14.046
 4144SOL     OW14270  12.199   0.388  13.780
 4144SOL    HW114271  12.295   0.393  13.773
 4144SOL    HW214272  12.175   0.454  13.844
 4145SOL     OW14273  11.093  10.485   0.691
 4145SOL    HW114274  11.048  10.417   0.641
 4145SOL    HW214275  11.055  10.478   0.779
 4146SOL     OW14276   7.368  12.654   9.638
 4146SOL    HW114277   7.370  12.750   9.633
 4146SOL    HW214278   7.361  12.626   9.547
 4147SOL     OW14279   4.891  12.823   7.879
 4147SOL    HW114280   4.947  12.887   7.922
 4147SOL    HW214281   4.837  12.876   7.820
 4148SOL     OW14282  13.325  11.842  11.406
 4148SOL    HW114283  13.410  11.804  11.426
 4148SOL    HW214284  13.306  11.901  11.479
 4149SOL     OW14285   9.518   7.303   6.748
 4149SOL    HW114286   9.517   7.339   6.837
 4149SOL    HW214287   9.581   7.231   6.753
 4150SOL     OW14288   4.315   3.982   3.382
 4150SOL    HW114289   4.318   4.077   3.385
 4150SOL    HW214290   4.353   3.953   3.464
 4151SOL     OW14291   6.497   9.089   5.459
 4151SOL    HW114292   6.412   9.084   5.503
 4151SOL    HW214293   6.548   9.018   5.497
 4152SOL     OW14294  13.995   4.550   2.880
 4152SOL    HW114295  13.986   4.521   2.971
 4152SOL    HW214296  13.905   4.562   2.850
 4153SOL     OW14297  12.872   4.449   2.812
 4153SOL    HW114298  12.908   4.525   2.768
 4153SOL    HW214299  12.829   4.484   2.890
 4154SOL     OW14300   4.125   2.532  13.338
 4154SOL    HW114301   4.074   2.468  13.389
 4154SOL    HW214302   4.208   2.539  13.384
 4155SOL     OW14303   5.947   9.550   0.102
 4155SOL    HW114304   5.964   9.458   0.082
 4155SOL    HW214305   5.877   9.548   0.168
 4156SOL     OW14306   5.495   7.656   2.017
 4156SOL    HW114307   5.425   7.591   2.021
 4156SOL    HW214308   5.493   7.687   1.926
 4157SOL     OW14309   6.643  10.936   6.615
 4157SOL    HW114310   6.653  10.888   6.697
 4157SOL    HW214311   6.551  10.962   6.613
 4158SOL     OW14312  12.912   5.144  10.393
 4158SOL    HW114313  13.002   5.111  10.394
 4158SOL    HW214314  12.912   5.210  10.324
 4159SOL     OW14315   9.409  10.593  14.381
 4159SOL    HW114316   9.352  10.635  14.318
 4159SOL    HW214317   9.358  10.519  14.414
 4160SOL     OW14318   4.168  13.519  11.923
 4160SOL    HW114319   4.224  13.444  11.900
 4160SOL    HW214320   4.175  13.526  12.018
 4161SOL     OW14321   2.081  12.152   0.366
 4161SOL    HW114322   2.072  12.071   0.417
 4161SOL    HW214323   2.176  12.166   0.361
 4162SOL     OW14324   9.699   0.789   9.226
 4162SOL    HW114325   9.704   0.845   9.304
 4162SOL    HW214326   9.614   0.810   9.186
 4163SOL     OW14327   7.492   8.002  10.594
 4163SOL    HW114328   7.444   7.991  10.676
 4163SOL    HW214329   7.536   7.918  10.581
 4164SOL     OW14330   4.938   6.551  11.879
 4164SOL    HW114331   4.970   6.583  11.795
 4164SOL    HW214332   4.902   6.628  11.922
 4165SOL     OW14333   1.960   1.736   7.749
 4165SOL    HW114334   1.928   1.671   7.686
 4165SOL    HW214335   1.881   1.778   7.782
 4166SOL     OW14336  14.567   8.697   2.821
 4166SOL    HW114337  14.590   8.783   2.858
 4166SOL    HW214338  14.494   8.715   2.762
 4167SOL     OW14339  10.431   8.311   3.845
 4167SOL    HW114340  10.443   8.353   3.930
 4167SOL    HW214341  10.424   8.383   3.782
 4168SOL     OW14342   0.360   0.584   7.380
 4168SOL    HW114343   0.329   0.496   7.357
 4168SOL    HW214344   0.287   0.642   7.360
 4169SOL     OW14345  11.760   4.791   7.032
 4169SOL    HW114346  11.680   4.760   6.989
 4169SOL    HW214347  11.745   4.884   7.047
 4170SOL     OW14348   0.144   3.834  11.771
 4170SOL    HW114349   0.074   3.769  11.776
 4170SOL    HW214350   0.184   3.833  11.859
 4171SOL     OW14351   5.531   7.865   8.388
 4171SOL    HW114352   5.536   7.782   8.341
 4171SOL    HW214353   5.441   7.867   8.423
 4172SOL     OW14354   4.277   3.281   7.918
 4172SOL    HW114355   4.269   3.362   7.867
 4172SOL    HW214356   4.370   3.259   7.914
 4173SOL     OW14357   6.829   2.824   2.874
 4173SOL    HW114358   6.914   2.789   2.901
 4173SOL    HW214359   6.805   2.773   2.797
 4174SOL     OW14360   5.904   4.441   3.267
 4174SOL    HW114361   5.916   4.486   3.351
 4174SOL    HW214362   5.860   4.359   3.290
 4175SOL     OW14363   6.485   4.225   4.963
 4175SOL    HW114364   6.545   4.263   4.899
 4175SOL    HW214365   6.542   4.176   5.022
 4176SOL     OW14366   4.642   7.101  14.489
 4176SOL    HW114367   4.573   7.047  14.527
 4176SOL    HW214368   4.619   7.190  14.515
 4177SOL     OW14369   1.479   9.477   9.747
 4177SOL    HW114370   1.403   9.533   9.733
 4177SOL    HW214371   1.492   9.476   9.841
 4178SOL     OW14372   3.466  12.571   5.514
 4178SOL    HW114373   3.386  12.608   5.476
 4178SOL    HW214374   3.449  12.571   5.608
 4179SOL     OW14375   2.906   1.513  14.055
 4179SOL    HW114376   2.831   1.521  13.996
 4179SOL    HW214377   2.881   1.560  14.134
 4180SOL     OW14378   1.297   0.019   6.045
 4180SOL    HW114379   1.322  14.881   6.135
 4180SOL    HW214380   1.356   0.090   6.019
 4181SOL     OW14381   3.985   2.318   9.920
 4181SOL    HW114382   4.058   2.378   9.903
 4181SOL    HW214383   3.907   2.369   9.899
 4182SOL     OW14384   3.789   2.530  11.544
 4182SOL    HW114385   3.745   2.611  11.518
 4182SOL    HW214386   3.882   2.551  11.540
 4183SOL     OW14387  10.370  11.402   0.009
 4183SOL    HW114388  10.419  11.484   0.018
 4183SOL    HW214389  10.436  11.337  14.865
 4184SOL     OW14390   3.086   7.917  11.538
 4184SOL    HW114391   2.999   7.936  11.503
 4184SOL    HW214392   3.069   7.864  11.616
 4185SOL     OW14393  14.580  13.009   4.651
 4185SOL    HW114394  14.609  13.100   4.652
 4185SOL    HW214395  14.524  13.003   4.574
 4186SOL     OW14396  14.193   0.228   8.588
 4186SOL    HW114397  14.171   0.137   8.607
 4186SOL    HW214398  14.196   0.270   8.674
 4187SOL     OW14399  10.732  10.720   2.593
 4187SOL    HW114400  10.653  10.771   2.576
 4187SOL    HW214401  10.700  10.638   2.629
 4188SOL     OW14402   8.216   6.786   2.422
 4188SOL    HW114403   8.251   6.865   2.462
 4188SOL    HW214404   8.210   6.723   2.495
 4189SOL     OW14405  10.303   1.028   3.197
 4189SOL    HW114406  10.390   1.018   3.235
 4189SOL    HW214407  10.310   1.107   3.143
 4190SOL     OW14408   5.133   5.778   3.697
 4190SOL    HW114409   5.157   5.869   3.678
 4190SOL    HW214410   5.044   5.783   3.730
 4191SOL     OW14411   1.048   9.216   0.450
 4191SOL    HW114412   1.097   9.297   0.436
 4191SOL    HW214413   1.007   9.228   0.536
 4192SOL     OW14414   7.026  11.408   3.567
 4192SOL    HW114415   7.108  11.443   3.531
 4192SOL    HW214416   7.023  11.317   3.538
 4193SOL     OW14417  12.226   0.313  10.142
 4193SOL    HW114418  12.260   0.298  10.053
 4193SOL    HW214419  12.300   0.351  10.190
 4194SOL     OW14420   8.342   4.844   7.163
 4194SOL    HW114421   8.255   4.867   7.130
 4194SOL    HW214422   8.399   4.847   7.086
 4195SOL     OW14423   6.044   7.287   9.412
 4195SOL    HW114424   6.033   7.331   9.497
 4195SOL    HW214425   6.065   7.358   9.351
 4196SOL     OW14426  13.282   4.800   1.412
 4196SOL    HW114427  13.267   4.740   1.485
 4196SOL    HW214428  13.362   4.768   1.371
 4197SOL     OW14429  13.261   7.614   5.927
 4197SOL    HW114430  13.185   7.669   5.908
 4197SOL    HW214431  13.259   7.545   5.860
 4198SOL     OW14432  14.148  12.871   1.414
 4198SOL    HW114433  14.158  12.943   1.476
 4198SOL    HW214434  14.207  12.803   1.446
 4199SOL     OW14435  12.815  12.785   2.123
 4199SOL    HW114436  12.802  12.697   2.159
 4199SOL    HW214437  12.860  12.771   2.041
 4200SOL     OW14438   0.071  12.011  14.389
 4200SOL    HW114439  14.868  11.970  14.404
 4200SOL    HW214440   0.107  12.024  14.476
 4201SOL     OW14441  12.808  12.257   2.273
 4201SOL    HW114442  12.834  12.273   2.182
 4201SOL    HW214443  12.842  12.170   2.293
 4202SOL     OW14444   1.381  11.276   7.423
 4202SOL    HW114445   1.304  11.221   7.438
 4202SOL    HW214446   1.452  11.214   7.404
 4203SOL     OW14447   5.388   3.718   8.066
 4203SOL    HW114448   5.353   3.753   8.148
 4203SOL    HW214449   5.464   3.667   8.093
 4204SOL     OW14450   9.515   2.275   7.691
 4204SOL    HW114451   9.502   2.302   7.600
 4204SOL    HW214452   9.504   2.355   7.742
 4205SOL     OW14453  13.496   2.363   9.867
 4205SOL    HW114454  13.448   2.310   9.930
 4205SOL    HW214455  13.435   2.434   9.843
 4206SOL     OW14456   2.284  13.905   1.242
 4206SOL    HW114457   2.275  13.928   1.335
 4206SOL    HW214458   2.195  13.890   1.212
 4207SOL     OW14459   3.671   1.713   0.806
 4207SOL    HW114460   3.677   1.800   0.766
 4207SOL    HW214461   3.713   1.654   0.742
 4208SOL     OW14462   4.954  13.456  13.202
 4208SOL    HW114463   4.972  13.390  13.134
 4208SOL    HW214464   4.962  13.408  13.284
 4209SOL     OW14465   6.989   7.656   5.916
 4209SOL    HW114466   7.015   7.693   6.000
 4209SOL    HW214467   6.966   7.731   5.862
 4210SOL     OW14468  12.908  10.021   1.144
 4210SOL    HW114469  12.904   9.975   1.228
 4210SOL    HW214470  12.828  10.072   1.140
 4211SOL     OW14471  10.762   6.121  10.221
 4211SOL    HW114472  10.845   6.115  10.174
 4211SOL    HW214473  10.780   6.181  10.294
 4212SOL     OW14474  12.320   7.932   5.485
 4212SOL    HW114475  12.356   7.996   5.547
 4212SOL    HW214476  12.294   7.858   5.540
 4213SOL     OW14477   9.941   9.549   1.639
 4213SOL    HW114478   9.875   9.550   1.570
 4213SOL    HW214479  10.020   9.517   1.596
 4214SOL     OW14480   9.361   3.586   7.219
 4214SOL    HW114481   9.374   3.668   7.172
 4214SOL    HW214482   9.292   3.604   7.283
 4215SOL     OW14483   4.337  14.542   5.276
 4215SOL    HW114484   4.260  14.598   5.275
 4215SOL    HW214485   4.388  14.569   5.200
 4216SOL     OW14486   2.446   5.104   1.367
 4216SOL    HW114487   2.536   5.088   1.336
 4216SOL    HW214488   2.416   5.019   1.397
 4217SOL     OW14489   7.319   9.997  14.831
 4217SOL    HW114490   7.399   9.952  14.805
 4217SOL    HW214491   7.255   9.927  14.844
 4218SOL     OW14492   5.109  14.788  13.011
 4218SOL    HW114493   5.145  14.834  13.087
 4218SOL    HW214494   5.028  14.748  13.044
 4219SOL     OW14495   4.985   8.683   3.990
 4219SOL    HW114496   5.065   8.704   4.039
 4219SOL    HW214497   4.915   8.686   4.056
 4220SOL     OW14498  10.885  10.635   2.377
 4220SOL    HW114499  10.821  10.675   2.436
 4220SOL    HW214500  10.878  10.684   2.296
 4221SOL     OW14501   2.900  12.668   2.893
 4221SOL    HW114502   2.959  12.731   2.935
 4221SOL    HW214503   2.853  12.628   2.966
 4222SOL     OW14504   7.598   3.396   3.374
 4222SOL    HW114505   7.693   3.391   3.366
 4222SOL    HW214506   7.568   3.418   3.285
 4223SOL     OW14507   5.641   8.572   4.914
 4223SOL    HW114508   5.708   8.515   4.877
 4223SOL    HW214509   5.596   8.518   4.978
 4224SOL     OW14510   0.115   5.552   8.562
 4224SOL    HW114511   0.098   5.588   8.648
 4224SOL    HW214512   0.121   5.629   8.505
 4225SOL     OW14513   2.593   9.485  11.230
 4225SOL    HW114514   2.648   9.420  11.273
 4225SOL    HW214515   2.647   9.517  11.157
 4226SOL     OW14516   3.122  10.685   3.259
 4226SOL    HW114517   3.185  10.748   3.294
 4226SOL    HW214518   3.153  10.667   3.170
 4227SOL     OW14519  12.983   3.807   9.911
 4227SOL    HW114520  13.013   3.897   9.899
 4227SOL    HW214521  12.919   3.794   9.841
 4228SOL     OW14522  10.145   4.458  10.814
 4228SOL    HW114523  10.223   4.510  10.831
 4228SOL    HW214524  10.166   4.411  10.733
 4229SOL     OW14525   8.203   7.169   3.105
 4229SOL    HW114526   8.294   7.198   3.106
 4229SOL    HW214527   8.155   7.238   3.150
 4230SOL     OW14528  11.681   5.533   9.673
 4230SOL    HW114529  11.722   5.584   9.743
 4230SOL    HW214530  11.610   5.485   9.716
 4231SOL     OW14531   1.788  13.511  10.256
 4231SOL    HW114532   1.753  13.530  10.168
 4231SOL    HW214533   1.763  13.587  10.308
 4232SOL     OW14534   0.865  12.858   2.856
 4232SOL    HW114535   0.896  12.948   2.853
 4232SOL    HW214536   0.877  12.830   2.946
 4233SOL     OW14537   3.670  10.578   5.280
 4233SOL    HW114538   3.645  10.551   5.192
 4233SOL    HW214539   3.744  10.521   5.303
 4234SOL     OW14540   9.125  11.592  13.439
 4234SOL    HW114541   9.072  11.519  13.472
 4234SOL    HW214542   9.215  11.565  13.455
 4235SOL     OW14543   3.062   2.302   0.857
 4235SOL    HW114544   3.017   2.374   0.901
 4235SOL    HW214545   3.041   2.225   0.910
 4236SOL     OW14546   0.621   0.074   9.784
 4236SOL    HW114547   0.715   0.095   9.780
 4236SOL    HW214548   0.618  14.860   9.775
 4237SOL     OW14549   6.153   6.680   0.331
 4237SOL    HW114550   6.195   6.672   0.417
 4237SOL    HW214551   6.146   6.774   0.316
 4238SOL     OW14552   7.877   7.855   3.280
 4238SOL    HW114553   7.784   7.870   3.300
 4238SOL    HW214554   7.896   7.916   3.209
 4239SOL     OW14555   4.411   7.017  10.650
 4239SOL    HW114556   4.488   7.009  10.595
 4239SOL    HW214557   4.433   7.088  10.711
 4240SOL     OW14558   8.388   9.909   1.486
 4240SOL    HW114559   8.425   9.892   1.399
 4240SOL    HW214560   8.353   9.998   1.480
 4241SOL     OW14561   3.488   8.247  14.484
 4241SOL    HW114562   3.504   8.272  14.392
 4241SOL    HW214563   3.396   8.224  14.487
 4242SOL     OW14564   4.492  14.528  10.425
 4242SOL    HW114565   4.512  14.620  10.407
 4242SOL    HW214566   4.449  14.497  10.345
 4243SOL     OW14567   7.283  11.657   9.626
 4243SOL    HW114568   7.301  11.710   9.549
 4243SOL    HW214569   7.207  11.604   9.602
 4244SOL     OW14570   6.535   2.974   9.691
 4244SOL    HW114571   6.531   2.899   9.631
 4244SOL    HW214572   6.495   3.046   9.642
 4245SOL     OW14573  11.105  11.393   5.792
 4245SOL    HW114574  11.084  11.405   5.885
 4245SOL    HW214575  11.122  11.300   5.783
 4246SOL     OW14576   8.735   9.149   6.251
 4246SOL    HW114577   8.688   9.232   6.240
 4246SOL    HW214578   8.744   9.140   6.346
 4247SOL     OW14579   8.910   1.367   1.355
 4247SOL    HW114580   8.928   1.402   1.268
 4247SOL    HW214581   8.831   1.412   1.384
 4248SOL     OW14582   5.428   7.405   8.991
 4248SOL    HW114583   5.357   7.445   8.940
 4248SOL    HW214584   5.468   7.342   8.932
 4249SOL     OW14585   2.327   1.258   8.601
 4249SOL    HW114586   2.343   1.168   8.573
 4249SOL    HW214587   2.408   1.304   8.581
 4250SOL     OW14588   3.617  11.721   5.615
 4250SOL    HW114589   3.711  11.715   5.635
 4250SOL    HW214590   3.609  11.680   5.529
 4251SOL     OW14591   5.008   1.059  11.109
 4251SOL    HW114592   4.916   1.036  11.119
 4251SOL    HW214593   5.045   1.047  11.196
 4252SOL     OW14594   3.769   5.731   1.803
 4252SOL    HW114595   3.704   5.664   1.824
 4252SOL    HW214596   3.727   5.814   1.825
 4253SOL     OW14597   3.775  14.235   0.836
 4253SOL    HW114598   3.760  14.326   0.811
 4253SOL    HW214599   3.870  14.228   0.847
 4254SOL     OW14600  11.208   6.455   2.913
 4254SOL    HW114601  11.118   6.432   2.891
 4254SOL    HW214602  11.260   6.425   2.839
 4255SOL     OW14603   7.839  13.547   3.427
 4255SOL    HW114604   7.771  13.614   3.423
 4255SOL    HW214605   7.816  13.494   3.504
 4256SOL     OW14606   2.273   4.303  10.199
 4256SOL    HW114607   2.225   4.220  10.196
 4256SOL    HW214608   2.256   4.337  10.287
 4257SOL     OW14609   7.698   7.552  12.421
 4257SOL    HW114610   7.761   7.573  12.353
 4257SOL    HW214611   7.652   7.634  12.438
 4258SOL     OW14612   6.297   8.747  11.196
 4258SOL    HW114613   6.347   8.808  11.250
 4258SOL    HW214614   6.217   8.730  11.245
 4259SOL     OW14615  13.196   3.896   4.955
 4259SOL    HW114616  13.217   3.803   4.949
 4259SOL    HW214617  13.280   3.938   4.973
 4260SOL     OW14618   6.003   9.821  12.252
 4260SOL    HW114619   5.923   9.804  12.301
 4260SOL    HW214620   6.073   9.802  12.314
 4261SOL     OW14621   8.552  13.662  14.320
 4261SOL    HW114622   8.557  13.584  14.375
 4261SOL    HW214623   8.642  13.696  14.319
 4262SOL     OW14624   5.461   1.238   7.234
 4262SOL    HW114625   5.428   1.231   7.145
 4262SOL    HW214626   5.471   1.332   7.249
 4263SOL     OW14627   7.772  14.648  12.310
 4263SOL    HW114628   7.723  14.719  12.350
 4263SOL    HW214629   7.864  14.674  12.319
 4264SOL     OW14630   9.203  13.545  13.762
 4264SOL    HW114631   9.127  13.594  13.730
 4264SOL    HW214632   9.192  13.458  13.725
 4265SOL     OW14633   9.050   8.781   3.363
 4265SOL    HW114634   9.095   8.854   3.405
 4265SOL    HW214635   9.042   8.806   3.271
 4266SOL     OW14636  14.280   1.350   6.842
 4266SOL    HW114637  14.367   1.365   6.805
 4266SOL    HW214638  14.233   1.432   6.827
 4267SOL     OW14639   9.385  10.621   4.620
 4267SOL    HW114640   9.318  10.650   4.681
 4267SOL    HW214641   9.372  10.673   4.542
 4268SOL     OW14642   3.769   7.693   1.192
 4268SOL    HW114643   3.715   7.613   1.196
 4268SOL    HW214644   3.827   7.687   1.267
 4269SOL     OW14645  10.724   5.265  10.953
 4269SOL    HW114646  10.689   5.243  11.039
 4269SOL    HW214647  10.669   5.336  10.921
 4270SOL     OW14648   6.815   9.787   7.255
 4270SOL    HW114649   6.781   9.806   7.167
 4270SOL    HW214650   6.908   9.769   7.241
 4271SOL     OW14651   4.869   6.201   9.373
 4271SOL    HW114652   4.788   6.151   9.356
 4271SOL    HW214653   4.854   6.286   9.332
 4272SOL     OW14654  13.102  11.412   2.618
 4272SOL    HW114655  13.197  11.404   2.604
 4272SOL    HW214656  13.073  11.469   2.547
 4273SOL     OW14657   1.343   3.160   1.813
 4273SOL    HW114658   1.326   3.077   1.769
 4273SOL    HW214659   1.413   3.141   1.876
 4274SOL     OW14660   0.507   1.419   4.307
 4274SOL    HW114661   0.547   1.501   4.280
 4274SOL    HW214662   0.429   1.411   4.251
 4275SOL     OW14663   7.171   6.394   1.154
 4275SOL    HW114664   7.252   6.437   1.129
 4275SOL    HW214665   7.186   6.301   1.136
 4276SOL     OW14666   7.567  12.289   9.652
 4276SOL    HW114667   7.530  12.310   9.567
 4276SOL    HW214668   7.539  12.200   9.670
 4277SOL     OW14669  13.169  13.495  14.763
 4277SOL    HW114670  13.130  13.480  14.849
 4277SOL    HW214671  13.232  13.423  14.752
 4278SOL     OW14672  10.937  12.382   5.739
 4278SOL    HW114673  10.947  12.440   5.814
 4278SOL    HW214674  10.928  12.295   5.777
 4279SOL     OW14675   7.980   9.626  14.213
 4279SOL    HW114676   7.967   9.675  14.294
 4279SOL    HW214677   7.905   9.650  14.159
 4280SOL     OW14678   2.230   0.017   0.008
 4280SOL    HW114679   2.203   0.103  14.859
 4280SOL    HW214680   2.205   0.015   0.100
 4281SOL     OW14681  13.951   6.320   8.333
 4281SOL    HW114682  13.954   6.311   8.237
 4281SOL    HW214683  14.043   6.329   8.359
 4282SOL     OW14684  14.258  14.724  14.273
 4282SOL    HW114685  14.288  14.756  14.188
 4282SOL    HW214686  14.334  14.733  14.330
 4283SOL     OW14687   4.750  10.932   9.250
 4283SOL    HW114688   4.832  10.936   9.299
 4283SOL    HW214689   4.753  10.847   9.206
 4284SOL     OW14690   6.206   7.552   4.193
 4284SOL    HW114691   6.195   7.469   4.147
 4284SOL    HW214692   6.135   7.553   4.257
 4285SOL     OW14693   2.602  14.557   1.233
 4285SOL    HW114694   2.619  14.651   1.229
 4285SOL    HW214695   2.675  14.518   1.184
 4286SOL     OW14696   1.868   0.249   7.367
 4286SOL    HW114697   1.810   0.301   7.422
 4286SOL    HW214698   1.826   0.249   7.281
 4287SOL     OW14699   6.656  11.929   3.857
 4287SOL    HW114700   6.652  11.924   3.953
 4287SOL    HW214701   6.570  11.965   3.832
 4288SOL     OW14702  11.398  11.492  11.628
 4288SOL    HW114703  11.452  11.542  11.566
 4288SOL    HW214704  11.360  11.422  11.575
 4289SOL     OW14705   2.561  11.380   0.183
 4289SOL    HW114706   2.474  11.398   0.146
 4289SOL    HW214707   2.608  11.334   0.113
 4290SOL     OW14708  12.843   7.713   7.747
 4290SOL    HW114709  12.831   7.624   7.781
 4290SOL    HW214710  12.754   7.747   7.738
 4291SOL     OW14711  13.930   9.514   4.235
 4291SOL    HW114712  13.841   9.480   4.241
 4291SOL    HW214713  13.950   9.544   4.324
 4292SOL     OW14714   0.400   4.439   4.320
 4292SOL    HW114715   0.428   4.348   4.330
 4292SOL    HW214716   0.306   4.437   4.339
 4293SOL     OW14717  11.196   4.856  12.488
 4293SOL    HW114718  11.208   4.899  12.572
 4293SOL    HW214719  11.105   4.874  12.465
 4294SOL     OW14720  12.800   0.784   6.854
 4294SOL    HW114721  12.892   0.765   6.867
 4294SOL    HW214722  12.793   0.879   6.863
 4295SOL     OW14723   8.805   9.979   6.520
 4295SOL    HW114724   8.893  10.016   6.514
 4295SOL    HW214725   8.763  10.028   6.591
 4296SOL     OW14726   2.787  12.544  13.321
 4296SOL    HW114727   2.718  12.606  13.297
 4296SOL    HW214728   2.742  12.460  13.330
 4297SOL     OW14729  13.809  11.592   9.533
 4297SOL    HW114730  13.876  11.610   9.467
 4297SOL    HW214731  13.761  11.516   9.499
 4298SOL     OW14732  11.463  11.630  13.307
 4298SOL    HW114733  11.378  11.589  13.325
 4298SOL    HW214734  11.444  11.724  13.307
 4299SOL     OW14735   7.025   9.511  13.910
 4299SOL    HW114736   7.033   9.480  14.001
 4299SOL    HW214737   6.934   9.491  13.886
 4300SOL     OW14738  11.868   6.852   8.079
 4300SOL    HW114739  11.806   6.779   8.075
 4300SOL    HW214740  11.812   6.930   8.088
 4301SOL     OW14741  11.508   6.623  10.727
 4301SOL    HW114742  11.587   6.655  10.771
 4301SOL    HW214743  11.436   6.674  10.765
 4302SOL     OW14744  10.686  12.298   8.758
 4302SOL    HW114745  10.761  12.243   8.735
 4302SOL    HW214746  10.696  12.376   8.704
 4303SOL     OW14747  12.984   8.931   0.586
 4303SOL    HW114748  12.945   8.908   0.501
 4303SOL    HW214749  13.057   8.869   0.596
 4304SOL     OW14750  11.614  14.130   2.108
 4304SOL    HW114751  11.590  14.100   2.196
 4304SOL    HW214752  11.649  14.218   2.121
 4305SOL     OW14753   4.771  11.808  13.941
 4305SOL    HW114754   4.764  11.833  14.033
 4305SOL    HW214755   4.857  11.841  13.914
 4306SOL     OW14756   1.499   0.315  14.220
 4306SOL    HW114757   1.494   0.261  14.142
 4306SOL    HW214758   1.411   0.350  14.232
 4307SOL     OW14759  12.641  11.858  11.869
 4307SOL    HW114760  12.685  11.900  11.795
 4307SOL    HW214761  12.616  11.930  11.927
 4308SOL     OW14762  13.159  11.898   3.503
 4308SOL    HW114763  13.085  11.944   3.543
 4308SOL    HW214764  13.151  11.917   3.409
 4309SOL     OW14765   2.245   0.771   6.149
 4309SOL    HW114766   2.274   0.697   6.096
 4309SOL    HW214767   2.325   0.820   6.168
 4310SOL     OW14768   3.004   4.094   3.179
 4310SOL    HW114769   2.933   4.046   3.222
 4310SOL    HW214770   3.084   4.064   3.223
 4311SOL     OW14771   3.493   8.618  11.531
 4311SOL    HW114772   3.462   8.671  11.458
 4311SOL    HW214773   3.469   8.668  11.609
 4312SOL     OW14774  14.419  12.751   3.187
 4312SOL    HW114775  14.393  12.822   3.128
 4312SOL    HW214776  14.393  12.671   3.142
 4313SOL     OW14777   9.896  12.379  14.166
 4313SOL    HW114778   9.882  12.287  14.143
 4313SOL    HW214779   9.886  12.383  14.261
 4314SOL     OW14780   0.964  14.053  11.476
 4314SOL    HW114781   0.868  14.056  11.476
 4314SOL    HW214782   0.988  14.061  11.568
 4315SOL     OW14783   6.104   4.942   5.675
 4315SOL    HW114784   6.023   4.895   5.656
 4315SOL    HW214785   6.174   4.882   5.649
 4316SOL     OW14786  13.680   4.241  10.238
 4316SOL    HW114787  13.707   4.151  10.256
 4316SOL    HW214788  13.609   4.258  10.301
 4317SOL     OW14789   4.570   0.528   0.013
 4317SOL    HW114790   4.489   0.480   0.031
 4317SOL    HW214791   4.542   0.618  14.882
 4318SOL     OW14792   0.875   3.167  12.448
 4318SOL    HW114793   0.886   3.256  12.415
 4318SOL    HW214794   0.781   3.156  12.456
 4319SOL     OW14795   5.580   3.785   7.410
 4319SOL    HW114796   5.659   3.819   7.452
 4319SOL    HW214797   5.601   3.694   7.388
 4320SOL     OW14798   3.544   9.242   7.030
 4320SOL    HW114799   3.506   9.248   6.942
 4320SOL    HW214800   3.480   9.286   7.086
 4321SOL     OW14801   8.457   0.247  10.208
 4321SOL    HW114802   8.533   0.212  10.162
 4321SOL    HW214803   8.469   0.220  10.299
 4322SOL     OW14804   1.359   0.903   7.263
 4322SOL    HW114805   1.386   0.862   7.345
 4322SOL    HW214806   1.398   0.847   7.195
 4323SOL     OW14807  14.383   6.306  13.589
 4323SOL    HW114808  14.299   6.331  13.627
 4323SOL    HW214809  14.431   6.268  13.662
 4324SOL     OW14810   7.677  12.132   5.987
 4324SOL    HW114811   7.709  12.132   6.077
 4324SOL    HW214812   7.743  12.181   5.938
 4325SOL     OW14813   3.795  11.902   4.114
 4325SOL    HW114814   3.852  11.963   4.161
 4325SOL    HW214815   3.823  11.909   4.022
 4326SOL     OW14816  10.334  10.070  10.642
 4326SOL    HW114817  10.382   9.988  10.657
 4326SOL    HW214818  10.254  10.061  10.695
 4327SOL     OW14819   5.509  13.472   5.527
 4327SOL    HW114820   5.501  13.563   5.554
 4327SOL    HW214821   5.493  13.473   5.432
 4328SOL     OW14822   4.467   0.529   3.447
 4328SOL    HW114823   4.559   0.504   3.440
 4328SOL    HW214824   4.463   0.616   3.408
 4329SOL     OW14825   6.418   0.204  10.250
 4329SOL    HW114826   6.408   0.271  10.318
 4329SOL    HW214827   6.476   0.139  10.289
 4330SOL     OW14828   8.796   6.135   6.677
 4330SOL    HW114829   8.841   6.185   6.609
 4330SOL    HW214830   8.762   6.201   6.737
 4331SOL     OW14831   6.129   4.148   0.788
 4331SOL    HW114832   6.101   4.064   0.825
 4331SOL    HW214833   6.053   4.178   0.738
 4332SOL     OW14834  14.332   5.680   7.934
 4332SOL    HW114835  14.247   5.691   7.893
 4332SOL    HW214836  14.324   5.723   8.019
 4333SOL     OW14837   5.675  13.629  12.034
 4333SOL    HW114838   5.747  13.632  12.098
 4333SOL    HW214839   5.600  13.664  12.081
 4334SOL     OW14840  10.735  14.693   6.114
 4334SOL    HW114841  10.826  14.699   6.143
 4334SOL    HW214842  10.740  14.648   6.029
 4335SOL     OW14843   0.714   9.435   0.674
 4335SOL    HW114844   0.745   9.500   0.612
 4335SOL    HW214845   0.785   9.370   0.678
 4336SOL     OW14846   1.003   2.269   7.252
 4336SOL    HW114847   1.047   2.185   7.265
 4336SOL    HW214848   1.012   2.286   7.158
 4337SOL     OW14849   7.051   8.208  14.165
 4337SOL    HW114850   7.058   8.113  14.159
 4337SOL    HW214851   7.075   8.239  14.077
 4338SOL     OW14852   7.847  12.163  13.635
 4338SOL    HW114853   7.866  12.159  13.541
 4338SOL    HW214854   7.804  12.248  13.647
 4339SOL     OW14855   0.880   3.854   9.452
 4339SOL    HW114856   0.951   3.887   9.506
 4339SOL    HW214857   0.833   3.932   9.423
 4340SOL     OW14858  13.292  13.928  14.014
 4340SOL    HW114859  13.365  13.907  14.071
 4340SOL    HW214860  13.232  13.854  14.023
 4341SOL     OW14861   8.312   7.654   8.250
 4341SOL    HW114862   8.405   7.669   8.270
 4341SOL    HW214863   8.267   7.673   8.332
 4342SOL     OW14864   0.110   1.424   2.409
 4342SOL    HW114865   0.069   1.508   2.431
 4342SOL    HW214866   0.036   1.364   2.396
 4343SOL     OW14867  14.724  14.272   1.081
 4343SOL    HW114868  14.783  14.199   1.101
 4343SOL    HW214869  14.701  14.309   1.167
 4344SOL     OW14870  10.859   8.160   0.107
 4344SOL    HW114871  10.801   8.234   0.124
 4344SOL    HW214872  10.892   8.135   0.194
 4345SOL     OW14873   0.405  13.145   4.365
 4345SOL    HW114874   0.469  13.216   4.372
 4345SOL    HW214875   0.398  13.129   4.271
 4346SOL     OW14876   7.481  13.007   8.165
 4346SOL    HW114877   7.396  13.049   8.148
 4346SOL    HW214878   7.465  12.914   8.149
 4347SOL     OW14879   5.386   0.766  13.700
 4347SOL    HW114880   5.356   0.841  13.753
 4347SOL    HW214881   5.338   0.691  13.736
 4348SOL     OW14882   0.467   7.348  12.802
 4348SOL    HW114883   0.444   7.355  12.709
 4348SOL    HW214884   0.385   7.323  12.845
 4349SOL     OW14885   6.131  11.114   7.846
 4349SOL    HW114886   6.125  11.180   7.777
 4349SOL    HW214887   6.220  11.079   7.838
 4350SOL     OW14888  14.870  13.815  11.130
 4350SOL    HW114889   0.082  13.805  11.147
 4350SOL    HW214890  14.830  13.822  11.217
 4351SOL     OW14891   2.885   6.541   9.988
 4351SOL    HW114892   2.871   6.521   9.896
 4351SOL    HW214893   2.936   6.622   9.988
 4352SOL     OW14894  12.972  14.786   9.042
 4352SOL    HW114895  13.039  14.810   8.977
 4352SOL    HW214896  13.012  14.715   9.092
 4353SOL     OW14897  14.555  12.127   3.103
 4353SOL    HW114898  14.490  12.121   3.033
 4353SOL    HW214899  14.509  12.094   3.181
 4354SOL     OW14900   2.596   7.040   9.109
 4354SOL    HW114901   2.516   7.033   9.161
 4354SOL    HW214902   2.635   7.123   9.138
 4355SOL     OW14903  10.404   3.700   0.046
 4355SOL    HW114904  10.386   3.694  14.834
 4355SOL    HW214905  10.499   3.698   0.053
 4356SOL     OW14906   0.407   8.944  11.082
 4356SOL    HW114907   0.418   9.017  11.022
 4356SOL    HW214908   0.313   8.938  11.096
 4357SOL     OW14909   0.966   9.920  10.499
 4357SOL    HW114910   0.871   9.924  10.514
 4357SOL    HW214911   0.984   9.828  10.482
 4358SOL     OW14912  14.234  12.347  11.691
 4358SOL    HW114913  14.317  12.387  11.662
 4358SOL    HW214914  14.170  12.418  11.684
 4359SOL     OW14915  14.756   5.588   5.012
 4359SOL    HW114916  14.752   5.493   5.004
 4359SOL    HW214917  14.761   5.620   4.922
 4360SOL     OW14918   8.783   6.151   8.537
 4360SOL    HW114919   8.809   6.062   8.512
 4360SOL    HW214920   8.866   6.198   8.547
 4361SOL     OW14921  14.280   2.547  13.152
 4361SOL    HW114922  14.287   2.519  13.061
 4361SOL    HW214923  14.222   2.483  13.193
 4362SOL     OW14924  13.806   6.150   5.888
 4362SOL    HW114925  13.845   6.158   5.975
 4362SOL    HW214926  13.812   6.238   5.851
 4363SOL     OW14927   2.401  12.957   8.674
 4363SOL    HW114928   2.316  12.931   8.637
 4363SOL    HW214929   2.399  13.053   8.673
 4364SOL     OW14930  10.079  12.764   3.004
 4364SOL    HW114931  10.169  12.775   2.974
 4364SOL    HW214932  10.072  12.818   3.082
 4365SOL     OW14933   8.923   6.444   4.359
 4365SOL    HW114934   8.932   6.439   4.454
 4365SOL    HW214935   8.972   6.522   4.334
 4366SOL     OW14936   5.459  12.916   3.621
 4366SOL    HW114937   5.461  12.865   3.702
 4366SOL    HW214938   5.405  12.864   3.561
 4367SOL     OW14939  11.768  14.805   2.642
 4367SOL    HW114940  11.740  14.731   2.696
 4367SOL    HW214941  11.863  14.795   2.636
 4368SOL     OW14942   7.958  13.247   2.351
 4368SOL    HW114943   7.923  13.307   2.417
 4368SOL    HW214944   7.886  13.187   2.332
 4369SOL     OW14945  12.967   0.002   1.459
 4369SOL    HW114946  12.913   0.050   1.521
 4369SOL    HW214947  12.919  14.804   1.441
 4370SOL     OW14948   9.420   1.647  10.513
 4370SOL    HW114949   9.375   1.612  10.436
 4370SOL    HW214950   9.493   1.587  10.527
 4371SOL     OW14951   9.392   1.808  14.661
 4371SOL    HW114952   9.313   1.791  14.712
 4371SOL    HW214953   9.377   1.763  14.578
 4372SOL     OW14954   3.955   7.619  11.621
 4372SOL    HW114955   4.015   7.694  11.616
 4372SOL    HW214956   3.875   7.656  11.660
 4373SOL     OW14957   0.788   3.881  10.511
 4373SOL    HW114958   0.816   3.942  10.579
 4373SOL    HW214959   0.729   3.819  10.557
 4374SOL     OW14960  10.902   9.300   5.297
 4374SOL    HW114961  10.875   9.244   5.224
 4374SOL    HW214962  10.973   9.353   5.261
 4375SOL     OW14963   6.099   6.700   3.059
 4375SOL    HW114964   6.128   6.613   3.032
 4375SOL    HW214965   6.171   6.734   3.113
 4376SOL     OW14966  14.379   5.494   3.455
 4376SOL    HW114967  14.446   5.494   3.523
 4376SOL    HW214968  14.427   5.504   3.373
 4377SOL     OW14969   4.115   7.212   3.888
 4377SOL    HW114970   4.180   7.220   3.818
 4377SOL    HW214971   4.032   7.198   3.843
 4378SOL     OW14972   3.774   4.896  12.074
 4378SOL    HW114973   3.709   4.875  12.140
 4378SOL    HW214974   3.724   4.931  12.001
 4379SOL     OW14975  10.242   8.092   0.854
 4379SOL    HW114976  10.241   8.187   0.853
 4379SOL    HW214977  10.156   8.066   0.822
 4380SOL     OW14978   6.582   2.402   1.883
 4380SOL    HW114979   6.667   2.445   1.884
 4380SOL    HW214980   6.520   2.471   1.906
 4381SOL     OW14981   1.947   3.262  12.367
 4381SOL    HW114982   1.926   3.354  12.383
 4381SOL    HW214983   1.952   3.223  12.454
 4382SOL     OW14984   2.682   8.352   2.233
 4382SOL    HW114985   2.621   8.422   2.211
 4382SOL    HW214986   2.658   8.324   2.321
 4383SOL     OW14987   9.616   4.841   8.582
 4383SOL    HW114988   9.539   4.834   8.525
 4383SOL    HW214989   9.597   4.917   8.638
 4384SOL     OW14990  13.908   8.039  11.571
 4384SOL    HW114991  13.976   8.064  11.509
 4384SOL    HW214992  13.955   7.999  11.644
 4385SOL     OW14993   5.610  13.186   7.906
 4385SOL    HW114994   5.549  13.203   7.833
 4385SOL    HW214995   5.572  13.111   7.952
 4386SOL     OW14996   5.844  12.585  13.658
 4386SOL    HW114997   5.862  12.637  13.579
 4386SOL    HW214998   5.930  12.553  13.685
 4387SOL     OW14999   2.473  13.409   3.094
 4387SOL    HW115000   2.453  13.459   3.173
 4387SOL    HW215001   2.425  13.327   3.103
 4388SOL     OW15002   3.615  14.601   3.468
 4388SOL    HW115003   3.562  14.561   3.537
 4388SOL    HW215004   3.668  14.667   3.513
 4389SOL     OW15005  13.065  13.723   9.506
 4389SOL    HW115006  13.058  13.710   9.600
 4389SOL    HW215007  13.156  13.703   9.485
 4390SOL     OW15008   4.227   7.375   2.862
 4390SOL    HW115009   4.319   7.349   2.861
 4390SOL    HW215010   4.208   7.393   2.954
 4391SOL     OW15011  10.302   5.273   3.503
 4391SOL    HW115012  10.229   5.256   3.562
 4391SOL    HW215013  10.276   5.233   3.420
 4392SOL     OW15014   7.200   2.145   0.855
 4392SOL    HW115015   7.276   2.189   0.816
 4392SOL    HW215016   7.223   2.052   0.854
 4393SOL     OW15017   9.450   3.463   0.067
 4393SOL    HW115018   9.522   3.437   0.125
 4393SOL    HW215019   9.391   3.513   0.122
 4394SOL     OW15020  14.466   5.850   8.451
 4394SOL    HW115021  14.557   5.833   8.429
 4394SOL    HW215022  14.445   5.783   8.517
 4395SOL     OW15023   9.116   8.785   6.165
 4395SOL    HW115024   9.041   8.813   6.217
 4395SOL    HW215025   9.159   8.719   6.218
 4396SOL     OW15026   5.280   2.951   5.717
 4396SOL    HW115027   5.275   2.862   5.752
 4396SOL    HW215028   5.284   3.007   5.795
 4397SOL     OW15029   4.605  14.140   4.822
 4397SOL    HW115030   4.649  14.148   4.906
 4397SOL    HW215031   4.633  14.055   4.788
 4398SOL     OW15032   6.674   4.122   9.535
 4398SOL    HW115033   6.590   4.120   9.489
 4398SOL    HW215034   6.715   4.204   9.507
 4399SOL     OW15035   7.108  12.890   3.289
 4399SOL    HW115036   7.040  12.875   3.354
 4399SOL    HW215037   7.183  12.839   3.320
 4400SOL     OW15038  13.187  11.490  14.804
 4400SOL    HW115039  13.264  11.545  14.820
 4400SOL    HW215040  13.134  11.499   0.001
 4401SOL     OW15041   6.824  12.157   3.906
 4401SOL    HW115042   6.784  12.075   3.937
 4401SOL    HW215043   6.804  12.221   3.975
 4402SOL     OW15044  12.534   4.586   8.687
 4402SOL    HW115045  12.457   4.541   8.650
 4402SOL    HW215046  12.504   4.617   8.772
 4403SOL     OW15047   0.952   0.729   2.121
 4403SOL    HW115048   0.948   0.671   2.044
 4403SOL    HW215049   0.928   0.672   2.194
 4404SOL     OW15050  10.914  10.915  12.315
 4404SOL    HW115051  10.955  10.961  12.242
 4404SOL    HW215052  10.863  10.845  12.274
 4405SOL     OW15053   0.810  14.373  10.828
 4405SOL    HW115054   0.877  14.441  10.832
 4405SOL    HW215055   0.859  14.293  10.809
 4406SOL     OW15056   5.647   2.433   7.393
 4406SOL    HW115057   5.581   2.502   7.398
 4406SOL    HW215058   5.642   2.389   7.478
 4407SOL     OW15059   2.396   7.965   7.921
 4407SOL    HW115060   2.479   7.932   7.956
 4407SOL    HW215061   2.407   7.961   7.826
 4408SOL     OW15062  12.301  10.112   0.388
 4408SOL    HW115063  12.269  10.048   0.451
 4408SOL    HW215064  12.223  10.144   0.344
 4409SOL     OW15065   7.696   7.956  13.974
 4409SOL    HW115066   7.748   7.982  14.050
 4409SOL    HW215067   7.679   8.037  13.927
 4410SOL     OW15068  10.457  14.650   5.787
 4410SOL    HW115069  10.472  14.591   5.713
 4410SOL    HW215070  10.406  14.598   5.849
 4411SOL     OW15071   3.158  12.118  12.664
 4411SOL    HW115072   3.070  12.082  12.661
 4411SOL    HW215073   3.199  12.074  12.739
 4412SOL     OW15074   3.728   7.342   1.319
 4412SOL    HW115075   3.780   7.261   1.319
 4412SOL    HW215076   3.709   7.357   1.226
 4413SOL     OW15077  11.754  14.768  12.697
 4413SOL    HW115078  11.659  14.778  12.711
 4413SOL    HW215079  11.777  14.688  12.745
 4414SOL     OW15080   7.400   6.692  12.375
 4414SOL    HW115081   7.318   6.657  12.409
 4414SOL    HW215082   7.430   6.626  12.312
 4415SOL     OW15083   6.231   3.507  13.624
 4415SOL    HW115084   6.278   3.582  13.659
 4415SOL    HW215085   6.262   3.500  13.533
 4416SOL     OW15086   8.578   3.991  14.702
 4416SOL    HW115087   8.552   3.912  14.655
 4416SOL    HW215088   8.674   3.986  14.704
 4417SOL     OW15089   8.044   1.916  13.751
 4417SOL    HW115090   8.098   1.880  13.680
 4417SOL    HW215091   8.027   1.841  13.808
 4418SOL     OW15092   9.793   4.478   4.680
 4418SOL    HW115093   9.739   4.557   4.682
 4418SOL    HW215094   9.755   4.420   4.745
 4419SOL     OW15095   6.783  13.267  11.594
 4419SOL    HW115096   6.710  13.243  11.650
 4419SOL    HW215097   6.813  13.351  11.629
 4420SOL     OW15098   2.813   4.309  13.404
 4420SOL    HW115099   2.907   4.325  13.406
 4420SOL    HW215100   2.780   4.367  13.335
 4421SOL     OW15101   2.290   3.871  11.461
 4421SOL    HW115102   2.307   3.882  11.368
 4421SOL    HW215103   2.340   3.793  11.486
 4422SOL     OW15104   5.400   0.797   9.722
 4422SOL    HW115105   5.352   0.875   9.695
 4422SOL    HW215106   5.365   0.727   9.666
 4423SOL     OW15107   5.894   7.627   0.157
 4423SOL    HW115108   5.882   7.706   0.104
 4423SOL    HW215109   5.932   7.659   0.239
 4424SOL     OW15110   2.698  14.078   8.593
 4424SOL    HW115111   2.755  14.001   8.589
 4424SOL    HW215112   2.610  14.044   8.576
 4425SOL     OW15113   8.223  13.845   0.539
 4425SOL    HW115114   8.194  13.773   0.484
 4425SOL    HW215115   8.280  13.897   0.483
 4426SOL     OW15116   8.776   7.629   1.442
 4426SOL    HW115117   8.817   7.566   1.383
 4426SOL    HW215118   8.763   7.580   1.523
 4427SOL     OW15119  13.465   0.348  12.641
 4427SOL    HW115120  13.377   0.387  12.637
 4427SOL    HW215121  13.504   0.370  12.556
 4428SOL     OW15122   6.587   8.128  12.920
 4428SOL    HW115123   6.644   8.183  12.973
 4428SOL    HW215124   6.549   8.188  12.856
 4429SOL     OW15125   7.377   4.263   5.613
 4429SOL    HW115126   7.316   4.265   5.540
 4429SOL    HW215127   7.329   4.222   5.684
 4430SOL     OW15128   5.431   4.112   1.174
 4430SOL    HW115129   5.357   4.053   1.160
 4430SOL    HW215130   5.395   4.199   1.162
 4431SOL     OW15131   0.201   7.888   4.411
 4431SOL    HW115132   0.133   7.870   4.347
 4431SOL    HW215133   0.272   7.828   4.389
 4432SOL     OW15134   5.010  12.630   8.559
 4432SOL    HW115135   4.989  12.594   8.473
 4432SOL    HW215136   4.998  12.725   8.548
 4433SOL     OW15137   5.747   0.604   3.896
 4433SOL    HW115138   5.751   0.545   3.971
 4433SOL    HW215139   5.799   0.680   3.923
 4434SOL     OW15140   7.152  11.941  12.019
 4434SOL    HW115141   7.125  11.980  12.102
 4434SOL    HW215142   7.106  11.992  11.953
 4435SOL     OW15143   6.149  11.111   8.768
 4435SOL    HW115144   6.162  11.151   8.681
 4435SOL    HW215145   6.230  11.132   8.815
 4436SOL     OW15146   9.690   1.289   1.883
 4436SOL    HW115147   9.608   1.251   1.915
 4436SOL    HW215148   9.694   1.375   1.924
 4437SOL     OW15149   5.713   5.086   4.685
 4437SOL    HW115150   5.633   5.135   4.668
 4437SOL    HW215151   5.691   4.995   4.663
 4438SOL     OW15152   8.631  14.213  12.663
 4438SOL    HW115153   8.707  14.245  12.614
 4438SOL    HW215154   8.641  14.118  12.663
 4439SOL     OW15155  12.803   8.882  11.780
 4439SOL    HW115156  12.764   8.796  11.763
 4439SOL    HW215157  12.747   8.942  11.730
 4440SOL     OW15158  10.673   3.888   0.908
 4440SOL    HW115159  10.726   3.963   0.879
 4440SOL    HW215160  10.645   3.845   0.827
 4441SOL     OW15161   3.068   0.080   2.132
 4441SOL    HW115162   3.004   0.072   2.203
 4441SOL    HW215163   3.033   0.026   2.061
 4442SOL     OW15164   5.948   1.815   4.478
 4442SOL    HW115165   5.867   1.794   4.525
 4442SOL    HW215166   6.017   1.805   4.544
 4443SOL     OW15167   6.491   6.901   0.871
 4443SOL    HW115168   6.503   6.875   0.780
 4443SOL    HW215169   6.569   6.952   0.892
 4444SOL     OW15170  11.322  14.196   7.290
 4444SOL    HW115171  11.255  14.211   7.224
 4444SOL    HW215172  11.377  14.126   7.252
 4445SOL     OW15173   6.369  14.289   1.991
 4445SOL    HW115174   6.352  14.231   1.916
 4445SOL    HW215175   6.283  14.312   2.024
 4446SOL     OW15176  14.047   1.976   1.271
 4446SOL    HW115177  14.069   2.050   1.215
 4446SOL    HW215178  14.128   1.953   1.315
 4447SOL     OW15179   4.577   8.312  14.076
 4447SOL    HW115180   4.669   8.300  14.053
 4447SOL    HW215181   4.529   8.257  14.014
 4448SOL     OW15182  12.393   7.828   4.692
 4448SOL    HW115183  12.379   7.842   4.598
 4448SOL    HW215184  12.305   7.822   4.728
 4449SOL     OW15185   6.894   5.427   3.114
 4449SOL    HW115186   6.910   5.333   3.101
 4449SOL    HW215187   6.800   5.437   3.102
 4450SOL     OW15188   9.009   2.214  11.572
 4450SOL    HW115189   8.987   2.304  11.599
 4450SOL    HW215190   9.071   2.226  11.500
 4451SOL     OW15191  13.731   8.734  12.694
 4451SOL    HW115192  13.691   8.648  12.685
 4451SOL    HW215193  13.686   8.788  12.629
 4452SOL     OW15194  13.006   8.344   3.785
 4452SOL    HW115195  13.015   8.262   3.833
 4452SOL    HW215196  13.095   8.380   3.782
 4453SOL     OW15197  10.044   9.515  14.323
 4453SOL    HW115198  10.026   9.602  14.286
 4453SOL    HW215199  10.044   9.528  14.417
 4454SOL     OW15200   2.935   2.602  10.114
 4454SOL    HW115201   3.001   2.533  10.106
 4454SOL    HW215202   2.907   2.598  10.205
 4455SOL     OW15203  14.338   8.424  11.913
 4455SOL    HW115204  14.413   8.409  11.971
 4455SOL    HW215205  14.306   8.511  11.938
 4456SOL     OW15206  13.925   9.688  13.392
 4456SOL    HW115207  13.850   9.645  13.433
 4456SOL    HW215208  13.966   9.739  13.462
 4457SOL     OW15209  14.076  13.311   2.655
 4457SOL    HW115210  14.063  13.361   2.735
 4457SOL    HW215211  13.989  13.283   2.629
 4458SOL     OW15212   2.418   2.524   8.578
 4458SOL    HW115213   2.327   2.495   8.575
 4458SOL    HW215214   2.420   2.591   8.646
 4459SOL     OW15215   9.750  12.629  10.212
 4459SOL    HW115216   9.748  12.720  10.242
 4459SOL    HW215217   9.842  12.606  10.211
 4460SOL     OW15218   0.718   7.932   1.275
 4460SOL    HW115219   0.665   7.992   1.328
 4460SOL    HW215220   0.654   7.878   1.229
 4461SOL     OW15221  11.168  12.555   2.224
 4461SOL    HW115222  11.085  12.531   2.183
 4461SOL    HW215223  11.230  12.560   2.151
 4462SOL     OW15224   2.376   6.695   2.765
 4462SOL    HW115225   2.327   6.776   2.753
 4462SOL    HW215226   2.308   6.628   2.774
 4463SOL     OW15227  14.197   7.195  11.683
 4463SOL    HW115228  14.191   7.226  11.773
 4463SOL    HW215229  14.233   7.106  11.690
 4464SOL     OW15230  12.807  14.268   6.998
 4464SOL    HW115231  12.844  14.269   6.910
 4464SOL    HW215232  12.739  14.334   6.996
 4465SOL     OW15233   9.627  13.698   9.612
 4465SOL    HW115234   9.585  13.612   9.621
 4465SOL    HW215235   9.554  13.759   9.601
 4466SOL     OW15236  11.432   5.759  12.252
 4466SOL    HW115237  11.425   5.675  12.206
 4466SOL    HW215238  11.453   5.822  12.183
 4467SOL     OW15239   1.609   9.975   7.487
 4467SOL    HW115240   1.518  10.006   7.483
 4467SOL    HW215241   1.658  10.049   7.522
 4468SOL     OW15242   8.796   5.313   1.528
 4468SOL    HW115243   8.871   5.331   1.472
 4468SOL    HW215244   8.722   5.308   1.468
 4469SOL     OW15245  10.766   7.851  12.391
 4469SOL    HW115246  10.844   7.807  12.357
 4469SOL    HW215247  10.710   7.780  12.422
 4470SOL     OW15248  14.391   4.797   7.427
 4470SOL    HW115249  14.384   4.719   7.480
 4470SOL    HW215250  14.445   4.857   7.478
 4471SOL     OW15251   1.355   3.171  10.172
 4471SOL    HW115252   1.334   3.251  10.221
 4471SOL    HW215253   1.281   3.159  10.114
 4472SOL     OW15254  10.499   0.532   0.110
 4472SOL    HW115255  10.578   0.480   0.097
 4472SOL    HW215256  10.530   0.617   0.140
 4473SOL     OW15257   8.573   2.968   2.970
 4473SOL    HW115258   8.618   3.043   3.010
 4473SOL    HW215259   8.503   2.946   3.032
 4474SOL     OW15260   3.612  10.501   2.985
 4474SOL    HW115261   3.565  10.562   2.929
 4474SOL    HW215262   3.557  10.422   2.985
 4475SOL     OW15263   6.950   3.222   1.457
 4475SOL    HW115264   6.969   3.278   1.382
 4475SOL    HW215265   7.035   3.184   1.481
 4476SOL     OW15266   8.703   0.831   7.834
 4476SOL    HW115267   8.708   0.762   7.768
 4476SOL    HW215268   8.619   0.873   7.819
 4477SOL     OW15269   7.988   6.864   4.819
 4477SOL    HW115270   7.909   6.901   4.780
 4477SOL    HW215271   8.003   6.915   4.898
 4478SOL     OW15272   1.150  14.724   4.595
 4478SOL    HW115273   1.121  14.637   4.621
 4478SOL    HW215274   1.217  14.708   4.528
 4479SOL     OW15275   7.850   1.536   7.935
 4479SOL    HW115276   7.812   1.490   8.010
 4479SOL    HW215277   7.843   1.629   7.957
 4480SOL     OW15278  12.346   4.785   5.518
 4480SOL    HW115279  12.405   4.712   5.497
 4480SOL    HW215280  12.262   4.744   5.537
 4481SOL     OW15281   7.421   4.535   7.704
 4481SOL    HW115282   7.411   4.575   7.791
 4481SOL    HW215283   7.335   4.545   7.663
 4482SOL     OW15284   0.773   8.597  11.427
 4482SOL    HW115285   0.735   8.660  11.489
 4482SOL    HW215286   0.701   8.537  11.407
 4483SOL     OW15287  11.615   8.550  13.266
 4483SOL    HW115288  11.687   8.554  13.203
 4483SOL    HW215289  11.624   8.629  13.319
 4484SOL     OW15290  14.859   5.426  13.215
 4484SOL    HW115291  14.860   5.521  13.215
 4484SOL    HW215292   0.009   5.401  13.128
 4485SOL     OW15293   1.018   1.850   1.601
 4485SOL    HW115294   0.971   1.829   1.521
 4485SOL    HW215295   0.968   1.806   1.670
 4486SOL     OW15296   6.641  12.748   2.683
 4486SOL    HW115297   6.545  12.740   2.679
 4486SOL    HW215298   6.656  12.842   2.697
 4487SOL     OW15299  10.904   5.800  10.853
 4487SOL    HW115300  10.881   5.890  10.876
 4487SOL    HW215301  10.960   5.770  10.925
 4488SOL     OW15302   7.682   1.806  10.414
 4488SOL    HW115303   7.711   1.747  10.484
 4488SOL    HW215304   7.605   1.849  10.449
 4489SOL     OW15305  13.677   4.704   5.569
 4489SOL    HW115306  13.628   4.786   5.566
 4489SOL    HW215307  13.769   4.732   5.565
 4490SOL     OW15308   7.456  11.291  11.750
 4490SOL    HW115309   7.428  11.348  11.822
 4490SOL    HW215310   7.375  11.261  11.710
 4491SOL     OW15311   0.563   6.601   4.876
 4491SOL    HW115312   0.489   6.554   4.914
 4491SOL    HW215313   0.615   6.628   4.952
 4492SOL     OW15314   1.970   3.629   1.052
 4492SOL    HW115315   2.028   3.625   0.976
 4492SOL    HW215316   2.023   3.671   1.120
 4493SOL     OW15317   6.686   2.559  13.811
 4493SOL    HW115318   6.762   2.553  13.753
 4493SOL    HW215319   6.678   2.472  13.850
 4494SOL     OW15320  14.054  14.224  14.192
 4494SOL    HW115321  14.006  14.212  14.110
 4494SOL    HW215322  14.125  14.284  14.170
 4495SOL     OW15323   8.425   2.627  11.827
 4495SOL    HW115324   8.364   2.676  11.772
 4495SOL    HW215325   8.446   2.687  11.899
 4496SOL     OW15326  13.380   0.172   4.195
 4496SOL    HW115327  13.403   0.082   4.217
 4496SOL    HW215328  13.436   0.226   4.251
 4497SOL     OW15329   5.938   8.138  14.065
 4497SOL    HW115330   5.986   8.198  14.122
 4497SOL    HW215331   6.006   8.100  14.009
 4498SOL     OW15332   1.901  14.458   0.812
 4498SOL    HW115333   1.987  14.435   0.848
 4498SOL    HW215334   1.913  14.452   0.717
 4499SOL     OW15335   7.094   6.049   2.535
 4499SOL    HW115336   7.007   6.086   2.550
 4499SOL    HW215337   7.129   6.101   2.462
 4500SOL     OW15338   9.042   2.458   5.174
 4500SOL    HW115339   9.071   2.497   5.091
 4500SOL    HW215340   9.123   2.443   5.223
 4501SOL     OW15341   2.573   2.762  14.798
 4501SOL    HW115342   2.598   2.849  14.766
 4501SOL    HW215343   2.478   2.765  14.806
 4502SOL     OW15344   8.528   1.702   7.177
 4502SOL    HW115345   8.560   1.757   7.105
 4502SOL    HW215346   8.440   1.734   7.195
 4503SOL     OW15347   7.604   4.145   6.449
 4503SOL    HW115348   7.606   4.238   6.424
 4503SOL    HW215349   7.660   4.140   6.527
 4504SOL     OW15350  14.140   1.846  12.708
 4504SOL    HW115351  14.120   1.863  12.800
 4504SOL    HW215352  14.062   1.804  12.674
 4505SOL     OW15353   4.640   0.860  14.198
 4505SOL    HW115354   4.654   0.900  14.283
 4505SOL    HW215355   4.608   0.772  14.218
 4506SOL     OW15356   1.234  13.522   5.122
 4506SOL    HW115357   1.226  13.500   5.215
 4506SOL    HW215358   1.255  13.616   5.122
 4507SOL     OW15359   1.662  12.325   7.288
 4507SOL    HW115360   1.620  12.359   7.367
 4507SOL    HW215361   1.600  12.347   7.218
 4508SOL     OW15362   2.051   7.054   6.773
 4508SOL    HW115363   1.985   7.055   6.704
 4508SOL    HW215364   2.131   7.085   6.730
 4509SOL     OW15365  13.326  11.751   7.559
 4509SOL    HW115366  13.386  11.702   7.616
 4509SOL    HW215367  13.249  11.696   7.551
 4510SOL     OW15368  10.435   2.324   5.388
 4510SOL    HW115369  10.399   2.238   5.411
 4510SOL    HW215370  10.376   2.358   5.321
 4511SOL     OW15371  13.257   3.204   6.082
 4511SOL    HW115372  13.261   3.291   6.123
 4511SOL    HW215373  13.164   3.182   6.082
 4512SOL     OW15374   9.686   4.224   2.420
 4512SOL    HW115375   9.737   4.152   2.384
 4512SOL    HW215376   9.738   4.303   2.402
 4513SOL     OW15377   2.589   3.333   8.269
 4513SOL    HW115378   2.626   3.356   8.355
 4513SOL    HW215379   2.494   3.327   8.285
 4514SOL     OW15380   0.938   9.068  10.147
 4514SOL    HW115381   0.878   9.033  10.081
 4514SOL    HW215382   0.922   9.162  10.146
 4515SOL     OW15383   7.306   1.087   3.754
 4515SOL    HW115384   7.337   1.059   3.840
 4515SOL    HW215385   7.349   1.027   3.693
 4516SOL     OW15386   1.732  13.683   8.026
 4516SOL    HW115387   1.720  13.742   8.100
 4516SOL    HW215388   1.778  13.735   7.960
 4517SOL     OW15389   4.113  11.475  11.717
 4517SOL    HW115390   4.092  11.520  11.635
 4517SOL    HW215391   4.185  11.527  11.755
 4518SOL     OW15392   7.714   3.692   6.947
 4518SOL    HW115393   7.708   3.783   6.918
 4518SOL    HW215394   7.802   3.664   6.922
 4519SOL     OW15395   7.093   0.795  13.902
 4519SOL    HW115396   7.029   0.750  13.846
 4519SOL    HW215397   7.058   0.884  13.912
 4520SOL     OW15398  11.345   5.271   5.696
 4520SOL    HW115399  11.273   5.306   5.749
 4520SOL    HW215400  11.302   5.228   5.622
 4521SOL     OW15401   3.395  14.514   9.983
 4521SOL    HW115402   3.422  14.604  10.001
 4521SOL    HW215403   3.315  14.523   9.932
 4522SOL     OW15404   2.530   5.618   6.377
 4522SOL    HW115405   2.589   5.665   6.318
 4522SOL    HW215406   2.489   5.551   6.322
 4523SOL     OW15407   5.064  11.645   0.601
 4523SOL    HW115408   5.062  11.554   0.571
 4523SOL    HW215409   5.148  11.655   0.645
 4524SOL     OW15410   5.610   7.828   4.769
 4524SOL    HW115411   5.615   7.743   4.813
 4524SOL    HW215412   5.700   7.861   4.771
 4525SOL     OW15413  10.095  13.202   3.478
 4525SOL    HW115414  10.076  13.276   3.536
 4525SOL    HW215415  10.068  13.233   3.391
 4526SOL     OW15416   7.443   9.904   4.132
 4526SOL    HW115417   7.347   9.904   4.131
 4526SOL    HW215418   7.467   9.968   4.199
 4527SOL     OW15419   8.391   6.255   1.161
 4527SOL    HW115420   8.374   6.310   1.085
 4527SOL    HW215421   8.327   6.284   1.227
 4528SOL     OW15422  12.313   0.539   1.342
 4528SOL    HW115423  12.241   0.512   1.399
 4528SOL    HW215424  12.388   0.487   1.371
 4529SOL     OW15425   9.044   4.901   1.190
 4529SOL    HW115426   9.040   4.940   1.277
 4529SOL    HW215427   8.984   4.826   1.194
 4530SOL     OW15428   4.215   8.961  11.796
 4530SOL    HW115429   4.224   9.038  11.853
 4530SOL    HW215430   4.286   8.903  11.822
 4531SOL     OW15431  12.596   1.047   9.945
 4531SOL    HW115432  12.521   1.106   9.956
 4531SOL    HW215433  12.672   1.104   9.954
 4532SOL     OW15434   3.709   9.998  12.719
 4532SOL    HW115435   3.765   9.921  12.714
 4532SOL    HW215436   3.654   9.983  12.796
 4533SOL     OW15437   5.009  12.205   5.653
 4533SOL    HW115438   4.927  12.255   5.661
 4533SOL    HW215439   5.069  12.264   5.609
 4534SOL     OW15440   2.391  10.797  11.056
 4534SOL    HW115441   2.466  10.755  11.097
 4534SOL    HW215442   2.397  10.773  10.963
 4535SOL     OW15443   6.184   0.825   0.213
 4535SOL    HW115444   6.152   0.853   0.127
 4535SOL    HW215445   6.148   0.888   0.275
 4536SOL     OW15446  13.550   3.477   0.393
 4536SOL    HW115447  13.627   3.435   0.431
 4536SOL    HW215448  13.553   3.454   0.300
 4537SOL     OW15449   1.466  11.307   3.130
 4537SOL    HW115450   1.523  11.231   3.140
 4537SOL    HW215451   1.492  11.347   3.047
 4538SOL     OW15452  11.033   1.534  11.362
 4538SOL    HW115453  11.052   1.441  11.348
 4538SOL    HW215454  10.951   1.534  11.410
 4539SOL     OW15455   8.185  10.315  10.300
 4539SOL    HW115456   8.194  10.239  10.357
 4539SOL    HW215457   8.170  10.278  10.213
 4540SOL     OW15458   9.993   9.744   9.757
 4540SOL    HW115459  10.033   9.826   9.726
 4540SOL    HW215460   9.928   9.723   9.690
 4541SOL     OW15461  11.303  14.429   0.236
 4541SOL    HW115462  11.314  14.389   0.150
 4541SOL    HW215463  11.392  14.458   0.260
 4542SOL     OW15464   2.597   2.040   7.630
 4542SOL    HW115465   2.531   1.975   7.608
 4542SOL    HW215466   2.555   2.096   7.695
 4543SOL     OW15467   4.705  13.666   6.263
 4543SOL    HW115468   4.657  13.653   6.345
 4543SOL    HW215469   4.765  13.592   6.257
 4544SOL     OW15470   4.237   2.389   2.773
 4544SOL    HW115471   4.201   2.343   2.697
 4544SOL    HW215472   4.186   2.470   2.778
 4545SOL     OW15473   2.252  13.515  12.036
 4545SOL    HW115474   2.308  13.590  12.058
 4545SOL    HW215475   2.267  13.452  12.107
 4546SOL     OW15476   2.675  10.424  10.976
 4546SOL    HW115477   2.687  10.424  10.881
 4546SOL    HW215478   2.607  10.359  10.991
 4547SOL     OW15479   5.851   1.887   0.191
 4547SOL    HW115480   5.766   1.880   0.234
 4547SOL    HW215481   5.902   1.815   0.228
 4548SOL     OW15482   5.321  12.573   7.777
 4548SOL    HW115483   5.385  12.642   7.794
 4548SOL    HW215484   5.374  12.494   7.766
 4549SOL     OW15485  12.991  13.749   5.894
 4549SOL    HW115486  13.083  13.776   5.888
 4549SOL    HW215487  12.952  13.812   5.955
 4550SOL     OW15488   0.104  12.219  11.076
 4550SOL    HW115489   0.110  12.256  11.164
 4550SOL    HW215490   0.037  12.271  11.032
 4551SOL     OW15491   9.813  12.183   3.104
 4551SOL    HW115492   9.731  12.194   3.152
 4551SOL    HW215493   9.792  12.121   3.034
 4552SOL     OW15494   1.446  11.132  10.779
 4552SOL    HW115495   1.444  11.105  10.687
 4552SOL    HW215496   1.390  11.209  10.783
 4553SOL     OW15497  11.102   5.679   6.064
 4553SOL    HW115498  11.192   5.649   6.050
 4553SOL    HW215499  11.049   5.623   6.008
 4554SOL     OW15500  11.083  12.604   6.727
 4554SOL    HW115501  11.146  12.672   6.753
 4554SOL    HW215502  11.014  12.652   6.681
 4555SOL     OW15503   1.031   6.906   1.307
 4555SOL    HW115504   1.032   6.820   1.350
 4555SOL    HW215505   1.010   6.886   1.215
 4556SOL     OW15506  11.066   7.935  12.641
 4556SOL    HW115507  10.986   7.900  12.682
 4556SOL    HW215508  11.134   7.921  12.707
 4557SOL     OW15509  13.722  13.828   1.693
 4557SOL    HW115510  13.666  13.812   1.769
 4557SOL    HW215511  13.699  13.759   1.631
 4558SOL     OW15512  13.823   1.798   1.931
 4558SOL    HW115513  13.786   1.792   2.018
 4558SOL    HW215514  13.748   1.812   1.873
 4559SOL     OW15515   8.854   0.690   5.297
 4559SOL    HW115516   8.798   0.753   5.252
 4559SOL    HW215517   8.937   0.693   5.250
 4560SOL     OW15518  10.230  13.890   4.655
 4560SOL    HW115519  10.203  13.911   4.745
 4560SOL    HW215520  10.224  13.973   4.608
 4561SOL     OW15521  14.508  11.887  14.237
 4561SOL    HW115522  14.441  11.880  14.169
 4561SOL    HW215523  14.524  11.797  14.265
 4562SOL     OW15524   5.427  14.031   5.131
 4562SOL    HW115525   5.504  14.054   5.078
 4562SOL    HW215526   5.365  14.101   5.113
 4563SOL     OW15527  11.515  13.643   4.603
 4563SOL    HW115528  11.585  13.597   4.648
 4563SOL    HW215529  11.558  13.720   4.564
 4564SOL     OW15530   9.166   1.737  13.008
 4564SOL    HW115531   9.200   1.775  13.088
 4564SOL    HW215532   9.101   1.673  13.037
 4565SOL     OW15533   8.544   8.298   4.893
 4565SOL    HW115534   8.466   8.352   4.880
 4565SOL    HW215535   8.593   8.342   4.963
 4566SOL     OW15536   4.279   3.923   2.937
 4566SOL    HW115537   4.220   3.943   3.011
 4566SOL    HW215538   4.313   3.836   2.956
 4567SOL     OW15539   7.645   9.411  11.051
 4567SOL    HW115540   7.587   9.402  11.127
 4567SOL    HW215541   7.725   9.365  11.077
 4568SOL     OW15542   7.106  11.243   6.497
 4568SOL    HW115543   7.027  11.195   6.520
 4568SOL    HW215544   7.175  11.205   6.551
 4569SOL     OW15545   2.033   7.577   2.334
 4569SOL    HW115546   1.979   7.556   2.257
 4569SOL    HW215547   2.117   7.534   2.316
 4570SOL     OW15548   0.520  11.519   8.399
 4570SOL    HW115549   0.590  11.492   8.340
 4570SOL    HW215550   0.486  11.600   8.362
 4571SOL     OW15551   3.705   8.282   6.177
 4571SOL    HW115552   3.717   8.339   6.102
 4571SOL    HW215553   3.638   8.219   6.150
 4572SOL     OW15554   4.203  12.134   0.312
 4572SOL    HW115555   4.113  12.166   0.304
 4572SOL    HW215556   4.198  12.065   0.378
 4573SOL     OW15557   5.601  10.010   1.961
 4573SOL    HW115558   5.544   9.933   1.968
 4573SOL    HW215559   5.545  10.078   1.923
 4574SOL     OW15560  13.963   3.767   3.018
 4574SOL    HW115561  13.945   3.718   3.098
 4574SOL    HW215562  13.897   3.836   3.017
 4575SOL     OW15563   1.243   4.871  13.803
 4575SOL    HW115564   1.217   4.936  13.738
 4575SOL    HW215565   1.337   4.882  13.812
 4576SOL     OW15566   4.948   6.658  14.729
 4576SOL    HW115567   4.892   6.621  14.661
 4576SOL    HW215568   4.888   6.684  14.799
 4577SOL     OW15569  13.771   6.017   1.186
 4577SOL    HW115570  13.746   6.065   1.266
 4577SOL    HW215571  13.840   5.957   1.215
 4578SOL     OW15572  11.722   3.334   5.580
 4578SOL    HW115573  11.688   3.318   5.668
 4578SOL    HW215574  11.817   3.335   5.591
 4579SOL     OW15575  12.362   4.849  12.934
 4579SOL    HW115576  12.363   4.926  12.877
 4579SOL    HW215577  12.378   4.775  12.876
 4580SOL     OW15578  10.073  14.446   2.860
 4580SOL    HW115579  10.106  14.484   2.779
 4580SOL    HW215580  10.135  14.476   2.927
 4581SOL     OW15581   3.192   1.709   6.117
 4581SOL    HW115582   3.197   1.658   6.197
 4581SOL    HW215583   3.283   1.724   6.091
 4582SOL     OW15584  12.684   2.860   8.027
 4582SOL    HW115585  12.684   2.848   7.932
 4582SOL    HW215586  12.603   2.818   8.056
 4583SOL     OW15587  13.889   3.236   3.267
 4583SOL    HW115588  13.800   3.248   3.234
 4583SOL    HW215589  13.921   3.158   3.222
 4584SOL     OW15590   1.279   6.935  13.574
 4584SOL    HW115591   1.224   6.994  13.522
 4584SOL    HW215592   1.368   6.967  13.560
 4585SOL     OW15593  12.342  10.558   8.345
 4585SOL    HW115594  12.413  10.498   8.322
 4585SOL    HW215595  12.386  10.636   8.378
 4586SOL     OW15596   8.427  13.590   8.246
 4586SOL    HW115597   8.521  13.579   8.230
 4586SOL    HW215598   8.388  13.596   8.159
 4587SOL     OW15599   4.229   6.478   6.777
 4587SOL    HW115600   4.142   6.506   6.747
 4587SOL    HW215601   4.249   6.402   6.723
 4588SOL     OW15602   7.017   0.637   9.873
 4588SOL    HW115603   6.938   0.598   9.835
 4588SOL    HW215604   6.984   0.705   9.932
 4589SOL     OW15605   1.197  10.489  11.345
 4589SOL    HW115606   1.137  10.488  11.420
 4589SOL    HW215607   1.163  10.556  11.287
 4590SOL     OW15608  10.157   7.474   3.825
 4590SOL    HW115609  10.143   7.541   3.759
 4590SOL    HW215610  10.237   7.500   3.870
 4591SOL     OW15611  10.913   1.355  12.625
 4591SOL    HW115612  10.991   1.377  12.575
 4591SOL    HW215613  10.882   1.273  12.586
 4592SOL     OW15614   9.906   7.442  13.884
 4592SOL    HW115615   9.952   7.381  13.942
 4592SOL    HW215616   9.815   7.410  13.885
 4593SOL     OW15617   6.260  12.735   7.503
 4593SOL    HW115618   6.307  12.671   7.557
 4593SOL    HW215619   6.329  12.794   7.472
 4594SOL     OW15620   3.579  13.645   4.173
 4594SOL    HW115621   3.651  13.693   4.132
 4594SOL    HW215622   3.592  13.660   4.267
 4595SOL     OW15623   9.251   3.856   0.679
 4595SOL    HW115624   9.187   3.883   0.745
 4595SOL    HW215625   9.198   3.828   0.604
 4596SOL     OW15626  14.321   8.667   3.137
 4596SOL    HW115627  14.308   8.751   3.094
 4596SOL    HW215628  14.237   8.646   3.175
 4597SOL     OW15629   6.342   2.177   8.446
 4597SOL    HW115630   6.404   2.207   8.380
 4597SOL    HW215631   6.276   2.246   8.449
 4598SOL     OW15632  13.353   0.675  13.193
 4598SOL    HW115633  13.335   0.582  13.191
 4598SOL    HW215634  13.341   0.704  13.103
 4599SOL     OW15635   0.575   9.905   3.238
 4599SOL    HW115636   0.545   9.818   3.263
 4599SOL    HW215637   0.670   9.903   3.250
 4600SOL     OW15638   0.976  13.804   1.390
 4600SOL    HW115639   1.024  13.754   1.456
 4600SOL    HW215640   0.902  13.841   1.439
 4601SOL     OW15641   6.146   8.334   4.121
 4601SOL    HW115642   6.176   8.255   4.165
 4601SOL    HW215643   6.050   8.331   4.129
 4602SOL     OW15644  13.880   9.986   6.852
 4602SOL    HW115645  13.886   9.931   6.931
 4602SOL    HW215646  13.811  10.049   6.873
 4603SOL     OW15647  14.745   5.111  10.827
 4603SOL    HW115648  14.808   5.095  10.757
 4603SOL    HW215649  14.765   5.199  10.859
 4604SOL     OW15650  14.077   3.411   3.061
 4604SOL    HW115651  14.050   3.356   2.987
 4604SOL    HW215652  14.010   3.394   3.128
 4605SOL     OW15653  10.570  11.635   7.413
 4605SOL    HW115654  10.550  11.647   7.320
 4605SOL    HW215655  10.484  11.626   7.455
 4606SOL     OW15656   3.007   7.243   9.984
 4606SOL    HW115657   3.010   7.335  10.011
 4606SOL    HW215658   3.098   7.214   9.987
 4607SOL     OW15659   5.355  13.517   5.196
 4607SOL    HW115660   5.394  13.603   5.180
 4607SOL    HW215661   5.276  13.536   5.248
 4608SOL     OW15662   2.608  12.366  13.277
 4608SOL    HW115663   2.558  12.443  13.247
 4608SOL    HW215664   2.627  12.317  13.197
 4609SOL     OW15665   5.968   3.889   3.648
 4609SOL    HW115666   5.940   3.808   3.605
 4609SOL    HW215667   5.943   3.877   3.739
 4610SOL     OW15668  11.611  14.496   3.236
 4610SOL    HW115669  11.615  14.500   3.332
 4610SOL    HW215670  11.563  14.415   3.218
 4611SOL     OW15671   0.404   2.877   5.810
 4611SOL    HW115672   0.363   2.923   5.883
 4611SOL    HW215673   0.444   2.799   5.850
 4612SOL     OW15674  13.584   2.835   6.197
 4612SOL    HW115675  13.525   2.819   6.271
 4612SOL    HW215676  13.634   2.912   6.223
 4613SOL     OW15677   7.471  13.478   0.086
 4613SOL    HW115678   7.508  13.409   0.030
 4613SOL    HW215679   7.379  13.456   0.094
 4614SOL     OW15680   9.445   0.740  14.241
 4614SOL    HW115681   9.409   0.725  14.153
 4614SOL    HW215682   9.412   0.826  14.266
 4615SOL     OW15683  13.279   5.990   6.745
 4615SOL    HW115684  13.214   6.058   6.727
 4615SOL    HW215685  13.332   6.025   6.816
 4616SOL     OW15686   0.385   5.362   8.703
 4616SOL    HW115687   0.334   5.413   8.640
 4616SOL    HW215688   0.354   5.272   8.692
 4617SOL     OW15689   0.437   4.276  13.484
 4617SOL    HW115690   0.412   4.253  13.394
 4617SOL    HW215691   0.525   4.312  13.476
 4618SOL     OW15692   8.687   0.725   0.534
 4618SOL    HW115693   8.777   0.716   0.502
 4618SOL    HW215694   8.694   0.714   0.628
 4619SOL     OW15695   0.266   2.438  10.770
 4619SOL    HW115696   0.311   2.365  10.814
 4619SOL    HW215697   0.287   2.426  10.677
 4620SOL     OW15698  13.293   5.286  10.594
 4620SOL    HW115699  13.268   5.342  10.520
 4620SOL    HW215700  13.380   5.318  10.620
 4621SOL     OW15701   6.749   2.579   3.399
 4621SOL    HW115702   6.829   2.528   3.413
 4621SOL    HW215703   6.781   2.666   3.377
 4622SOL     OW15704  13.043   5.256   8.538
 4622SOL    HW115705  13.095   5.190   8.492
 4622SOL    HW215706  12.958   5.255   8.494
 4623SOL     OW15707  10.026  11.355   1.727
 4623SOL    HW115708   9.986  11.439   1.752
 4623SOL    HW215709  10.093  11.339   1.793
 4624SOL     OW15710  13.250   3.711   4.217
 4624SOL    HW115711  13.216   3.787   4.264
 4624SOL    HW215712  13.185   3.642   4.233
 4625SOL     OW15713   2.862   4.528  11.562
 4625SOL    HW115714   2.852   4.546  11.656
 4625SOL    HW215715   2.773   4.521  11.529
 4626SOL     OW15716   2.192   9.394  14.709
 4626SOL    HW115717   2.265   9.367  14.766
 4626SOL    HW215718   2.231   9.400  14.622
 4627SOL     OW15719   5.368   9.909   5.018
 4627SOL    HW115720   5.307   9.861   4.962
 4627SOL    HW215721   5.427   9.842   5.052
 4628SOL     OW15722   7.865   5.158   6.639
 4628SOL    HW115723   7.866   5.253   6.654
 4628SOL    HW215724   7.954   5.130   6.660
 4629SOL     OW15725   7.045   7.255  10.262
 4629SOL    HW115726   7.026   7.335  10.213
 4629SOL    HW215727   7.141   7.254  10.270
 4630SOL     OW15728   1.788   8.167   1.128
 4630SOL    HW115729   1.725   8.100   1.155
 4630SOL    HW215730   1.790   8.229   1.201
 4631SOL     OW15731   5.854   1.918  12.432
 4631SOL    HW115732   5.916   1.928  12.504
 4631SOL    HW215733   5.871   1.830  12.398
 4632SOL     OW15734   9.476   0.545   7.327
 4632SOL    HW115735   9.418   0.484   7.280
 4632SOL    HW215736   9.564   0.511   7.313
 4633SOL     OW15737   8.120   5.425   6.033
 4633SOL    HW115738   8.056   5.391   6.096
 4633SOL    HW215739   8.193   5.456   6.088
 4634SOL     OW15740   4.285  13.576   3.045
 4634SOL    HW115741   4.360  13.547   3.096
 4634SOL    HW215742   4.217  13.511   3.063
 4635SOL     OW15743   9.292  11.608   3.521
 4635SOL    HW115744   9.282  11.575   3.432
 4635SOL    HW215745   9.268  11.533   3.577
 4636SOL     OW15746   9.608   2.230   3.563
 4636SOL    HW115747   9.519   2.249   3.592
 4636SOL    HW215748   9.603   2.141   3.527
 4637SOL     OW15749   4.735   0.399   8.586
 4637SOL    HW115750   4.710   0.324   8.639
 4637SOL    HW215751   4.818   0.373   8.544
 4638SOL     OW15752   1.840   8.089   1.605
 4638SOL    HW115753   1.836   8.157   1.671
 4638SOL    HW215754   1.931   8.089   1.574
 4639SOL     OW15755   0.096  10.365  10.999
 4639SOL    HW115756   0.174  10.403  10.959
 4639SOL    HW215757   0.121  10.347  11.090
 4640SOL     OW15758   1.450   8.779   3.288
 4640SOL    HW115759   1.415   8.749   3.204
 4640SOL    HW215760   1.418   8.869   3.297
 4641SOL     OW15761   3.433  14.616   6.421
 4641SOL    HW115762   3.524  14.597   6.445
 4641SOL    HW215763   3.432  14.614   6.326
 4642SOL     OW15764  12.900  12.164   8.182
 4642SOL    HW115765  12.977  12.186   8.130
 4642SOL    HW215766  12.927  12.182   8.273
 4643SOL     OW15767   6.208   6.212   5.446
 4643SOL    HW115768   6.147   6.140   5.432
 4643SOL    HW215769   6.154   6.284   5.479
 4644SOL     OW15770   3.531   6.599  10.389
 4644SOL    HW115771   3.486   6.679  10.362
 4644SOL    HW215772   3.562   6.618  10.478
 4645SOL     OW15773  11.394   2.820   7.584
 4645SOL    HW115774  11.321   2.881   7.573
 4645SOL    HW215775  11.456   2.867   7.641
 4646SOL     OW15776   1.499   5.113  13.598
 4646SOL    HW115777   1.571   5.168  13.629
 4646SOL    HW215778   1.438   5.175  13.559
 4647SOL     OW15779   7.697   2.126   3.526
 4647SOL    HW115780   7.692   2.147   3.433
 4647SOL    HW215781   7.607   2.136   3.558
 4648SOL     OW15782   6.202   9.162   5.202
 4648SOL    HW115783   6.125   9.211   5.173
 4648SOL    HW215784   6.175   9.122   5.284
 4649SOL     OW15785  11.198  14.813   0.131
 4649SOL    HW115786  11.185  14.739   0.073
 4649SOL    HW215787  11.293  14.830   0.128
 4650SOL     OW15788   4.517  11.571   9.968
 4650SOL    HW115789   4.516  11.553  10.062
 4650SOL    HW215790   4.609  11.560   9.943
 4651SOL     OW15791   5.935  13.802   5.779
 4651SOL    HW115792   5.846  13.768   5.774
 4651SOL    HW215793   5.924  13.896   5.794
 4652SOL     OW15794  13.894   2.060   0.487
 4652SOL    HW115795  13.815   2.010   0.469
 4652SOL    HW215796  13.886   2.089   0.578
 4653SOL     OW15797  10.182   8.811   1.341
 4653SOL    HW115798  10.195   8.739   1.280
 4653SOL    HW215799  10.093   8.842   1.324
 4654SOL     OW15800  11.763   1.670  12.805
 4654SOL    HW115801  11.773   1.764  12.816
 4654SOL    HW215802  11.807   1.651  12.722
 4655SOL     OW15803   0.259   7.952   8.695
 4655SOL    HW115804   0.246   7.899   8.616
 4655SOL    HW215805   0.190   7.924   8.755
 4656SOL     OW15806  12.397  12.623  11.672
 4656SOL    HW115807  12.488  12.601  11.694
 4656SOL    HW215808  12.353  12.538  11.669
 4657SOL     OW15809  12.912   4.794   3.037
 4657SOL    HW115810  12.891   4.830   3.123
 4657SOL    HW215811  12.898   4.700   3.045
 4658SOL     OW15812   5.655  12.656   8.080
 4658SOL    HW115813   5.637  12.564   8.061
 4658SOL    HW215814   5.593  12.679   8.149
 4659SOL     OW15815   7.604   4.710   6.057
 4659SOL    HW115816   7.589   4.746   6.144
 4659SOL    HW215817   7.699   4.696   6.053
 4660SOL     OW15818   4.279   2.193   3.750
 4660SOL    HW115819   4.190   2.227   3.761
 4660SOL    HW215820   4.334   2.271   3.747
 4661SOL     OW15821   5.911   7.718   1.105
 4661SOL    HW115822   5.895   7.715   1.200
 4661SOL    HW215823   6.006   7.714   1.097
 4662SOL     OW15824   1.488  12.842  13.580
 4662SOL    HW115825   1.404  12.858  13.538
 4662SOL    HW215826   1.508  12.925  13.625
 4663SOL     OW15827   2.157  10.768   2.609
 4663SOL    HW115828   2.135  10.818   2.531
 4663SOL    HW215829   2.118  10.682   2.594
 4664SOL     OW15830   0.452   8.210   2.275
 4664SOL    HW115831   0.383   8.210   2.207
 4664SOL    HW215832   0.452   8.121   2.309
 4665SOL     OW15833  13.321  14.409  13.591
 4665SOL    HW115834  13.228  14.387  13.584
 4665SOL    HW215835  13.365  14.338  13.544
 4666SOL     OW15836   9.211   7.891  11.424
 4666SOL    HW115837   9.133   7.839  11.402
 4666SOL    HW215838   9.181   7.951  11.492
 4667SOL     OW15839  14.446  13.038   3.759
 4667SOL    HW115840  14.478  12.955   3.792
 4667SOL    HW215841  14.407  13.016   3.674
 4668SOL     OW15842   1.499  11.781   1.178
 4668SOL    HW115843   1.431  11.825   1.127
 4668SOL    HW215844   1.551  11.852   1.215
 4669SOL     OW15845  10.983   6.028   8.491
 4669SOL    HW115846  10.982   5.969   8.567
 4669SOL    HW215847  11.017   5.974   8.419
 4670SOL     OW15848  13.644  11.549   2.067
 4670SOL    HW115849  13.565  11.580   2.111
 4670SOL    HW215850  13.689  11.629   2.039
 4671SOL     OW15851  12.234   5.644  10.110
 4671SOL    HW115852  12.298   5.646  10.039
 4671SOL    HW215853  12.214   5.736  10.127
 4672SOL     OW15854   7.231   5.689   3.880
 4672SOL    HW115855   7.310   5.638   3.863
 4672SOL    HW215856   7.181   5.636   3.942
 4673SOL     OW15857  14.868   1.371   1.746
 4673SOL    HW115858  14.843   1.358   1.838
 4673SOL    HW215859   0.059   1.310   1.732
 4674SOL     OW15860  11.894   5.681   0.981
 4674SOL    HW115861  11.835   5.621   1.027
 4674SOL    HW215862  11.980   5.665   1.021
 4675SOL     OW15863   0.187   1.405  12.846
 4675SOL    HW115864   0.124   1.380  12.913
 4675SOL    HW215865   0.153   1.365  12.766
 4676SOL     OW15866   0.562   2.439  12.405
 4676SOL    HW115867   0.609   2.367  12.447
 4676SOL    HW215868   0.487   2.455  12.463
 4677SOL     OW15869   9.696  12.471  10.955
 4677SOL    HW115870   9.684  12.388  11.001
 4677SOL    HW215871   9.658  12.456  10.868
 4678SOL     OW15872   4.428   5.820  13.230
 4678SOL    HW115873   4.361   5.780  13.285
 4678SOL    HW215874   4.384   5.894  13.189
 4679SOL     OW15875  12.340   1.125   6.424
 4679SOL    HW115876  12.291   1.094   6.347
 4679SOL    HW215877  12.310   1.069   6.496
 4680SOL     OW15878  10.269   4.683   6.903
 4680SOL    HW115879  10.336   4.741   6.865
 4680SOL    HW215880  10.231   4.638   6.828
 4681SOL     OW15881   1.287   0.612   9.233
 4681SOL    HW115882   1.281   0.698   9.274
 4681SOL    HW215883   1.369   0.614   9.184
 4682SOL     OW15884  14.833   0.377   2.785
 4682SOL    HW115885  14.827   0.464   2.745
 4682SOL    HW215886  14.850   0.318   2.711
 4683SOL     OW15887   8.683   3.289  10.708
 4683SOL    HW115888   8.768   3.281  10.664
 4683SOL    HW215889   8.630   3.341  10.647
 4684SOL     OW15890   3.261   9.044  14.219
 4684SOL    HW115891   3.284   9.135  14.236
 4684SOL    HW215892   3.306   8.995  14.287
 4685SOL     OW15893   9.651   8.290   9.355
 4685SOL    HW115894   9.656   8.296   9.450
 4685SOL    HW215895   9.614   8.204   9.338
 4686SOL     OW15896  10.510   0.306   1.334
 4686SOL    HW115897  10.439   0.258   1.378
 4686SOL    HW215898  10.538   0.372   1.398
 4687SOL     OW15899   4.171   1.525   2.313
 4687SOL    HW115900   4.163   1.601   2.372
 4687SOL    HW215901   4.253   1.483   2.339
 4688SOL     OW15902  10.893   1.165   1.759
 4688SOL    HW115903  10.982   1.147   1.789
 4688SOL    HW215904  10.857   1.224   1.826
 4689SOL     OW15905  12.410   9.877  14.322
 4689SOL    HW115906  12.420   9.902  14.230
 4689SOL    HW215907  12.499   9.868  14.354
 4690SOL     OW15908   1.691   4.684   9.861
 4690SOL    HW115909   1.719   4.650   9.946
 4690SOL    HW215910   1.608   4.728   9.879
 4691SOL     OW15911  10.100   6.250  11.258
 4691SOL    HW115912  10.146   6.314  11.204
 4691SOL    HW215913  10.024   6.298  11.291
 4692SOL     OW15914   6.853   5.805   1.880
 4692SOL    HW115915   6.798   5.757   1.942
 4692SOL    HW215916   6.925   5.840   1.933
 4693SOL     OW15917   2.690   0.926  14.567
 4693SOL    HW115918   2.774   0.926  14.612
 4693SOL    HW215919   2.670   0.833  14.555
 4694SOL     OW15920   0.399   4.784   5.709
 4694SOL    HW115921   0.366   4.709   5.759
 4694SOL    HW215922   0.346   4.785   5.629
 4695SOL     OW15923  12.464   3.323   4.592
 4695SOL    HW115924  12.465   3.352   4.501
 4695SOL    HW215925  12.395   3.375   4.633
 4696SOL     OW15926  12.664   3.746  10.392
 4696SOL    HW115927  12.736   3.797  10.354
 4696SOL    HW215928  12.707   3.672  10.435
 4697SOL     OW15929   3.312   3.153   9.860
 4697SOL    HW115930   3.387   3.205   9.890
 4697SOL    HW215931   3.348   3.065   9.847
 4698SOL     OW15932  11.578   4.953   9.198
 4698SOL    HW115933  11.651   4.966   9.257
 4698SOL    HW215934  11.572   4.858   9.187
 4699SOL     OW15935  14.698  12.556   9.594
 4699SOL    HW115936  14.751  12.488   9.553
 4699SOL    HW215937  14.754  12.634   9.591
 4700SOL     OW15938   5.023   4.705   4.337
 4700SOL    HW115939   5.008   4.620   4.377
 4700SOL    HW215940   4.977   4.701   4.253
 4701SOL     OW15941   9.345   7.671  10.927
 4701SOL    HW115942   9.346   7.644  11.018
 4701SOL    HW215943   9.336   7.766  10.930
 4702SOL     OW15944   4.334   0.878   6.760
 4702SOL    HW115945   4.254   0.836   6.729
 4702SOL    HW215946   4.404   0.820   6.731
 4703SOL     OW15947  14.710   1.890  12.027
 4703SOL    HW115948  14.662   1.916  12.105
 4703SOL    HW215949  14.647   1.839  11.976
 4704SOL     OW15950   4.644   6.668   7.231
 4704SOL    HW115951   4.579   6.611   7.191
 4704SOL    HW215952   4.717   6.668   7.169
 4705SOL     OW15953   6.861   4.424   6.770
 4705SOL    HW115954   6.794   4.409   6.703
 4705SOL    HW215955   6.835   4.368   6.843
 4706SOL     OW15956   4.998  12.736   2.544
 4706SOL    HW115957   4.994  12.826   2.576
 4706SOL    HW215958   5.020  12.684   2.621
 4707SOL     OW15959  12.529   6.949   4.751
 4707SOL    HW115960  12.507   6.863   4.788
 4707SOL    HW215961  12.551   6.931   4.660
 4708SOL     OW15962   9.762   4.606   8.567
 4708SOL    HW115963   9.815   4.641   8.496
 4708SOL    HW215964   9.709   4.680   8.596
 4709SOL     OW15965   3.816   5.398  12.225
 4709SOL    HW115966   3.902   5.358  12.230
 4709SOL    HW215967   3.834   5.492  12.214
 4710SOL     OW15968  12.187   1.534   3.604
 4710SOL    HW115969  12.233   1.614   3.579
 4710SOL    HW215970  12.251   1.464   3.589
 4711SOL     OW15971   4.433   9.790   4.003
 4711SOL    HW115972   4.495   9.718   3.991
 4711SOL    HW215973   4.488   9.868   4.011
 4712SOL     OW15974   4.434   6.735   9.624
 4712SOL    HW115975   4.506   6.756   9.565
 4712SOL    HW215976   4.355   6.762   9.577
 4713SOL     OW15977  13.311   4.216  10.064
 4713SOL    HW115978  13.383   4.274  10.039
 4713SOL    HW215979  13.259   4.268  10.125
 4714SOL     OW15980   5.855   5.294  11.656
 4714SOL    HW115981   5.860   5.277  11.750
 4714SOL    HW215982   5.886   5.384  11.646
 4715SOL     OW15983   1.669   7.550  14.179
 4715SOL    HW115984   1.705   7.622  14.231
 4715SOL    HW215985   1.702   7.471  14.221
 4716SOL     OW15986   5.074  11.761   4.740
 4716SOL    HW115987   5.138  11.690   4.740
 4716SOL    HW215988   4.991  11.719   4.716
 4717SOL     OW15989   3.424   2.922   0.948
 4717SOL    HW115990   3.513   2.951   0.929
 4717SOL    HW215991   3.417   2.836   0.906
 4718SOL     OW15992  12.097   4.142   1.627
 4718SOL    HW115993  12.039   4.078   1.668
 4718SOL    HW215994  12.181   4.130   1.672
 4719SOL     OW15995  10.343   3.775   3.793
 4719SOL    HW115996  10.391   3.817   3.865
 4719SOL    HW215997  10.369   3.683   3.797
 4720SOL     OW15998  10.311   9.975  12.961
 4720SOL    HW115999  10.324   9.964  12.866
 4720SOL    HW216000  10.396  10.004  12.994
 4721SOL     OW16001   9.116   0.656  11.441
 4721SOL    HW116002   9.171   0.660  11.520
 4721SOL    HW216003   9.034   0.617  11.471
 4722SOL     OW16004   1.130   5.273   8.166
 4722SOL    HW116005   1.059   5.320   8.209
 4722SOL    HW216006   1.209   5.302   8.212
 4723SOL     OW16007   9.000  12.944  11.257
 4723SOL    HW116008   9.094  12.930  11.253
 4723SOL    HW216009   8.964  12.884  11.192
 4724SOL     OW16010  11.374   5.264   7.670
 4724SOL    HW116011  11.281   5.247   7.685
 4724SOL    HW216012  11.401   5.316   7.746
 4725SOL     OW16013   9.352  10.297  12.232
 4725SOL    HW116014   9.328  10.318  12.323
 4725SOL    HW216015   9.343  10.202  12.227
 4726SOL     OW16016   9.754   1.021   2.006
 4726SOL    HW116017   9.791   0.956   1.946
 4726SOL    HW216018   9.712   1.085   1.949
 4727SOL     OW16019  12.267  11.011   2.270
 4727SOL    HW116020  12.341  10.970   2.314
 4727SOL    HW216021  12.287  11.004   2.177
 4728SOL     OW16022  13.712  11.856  13.839
 4728SOL    HW116023  13.658  11.932  13.862
 4728SOL    HW216024  13.768  11.842  13.915
 4729SOL     OW16025   1.715  13.034  14.268
 4729SOL    HW116026   1.756  13.054  14.352
 4729SOL    HW216027   1.759  12.954  14.239
 4730SOL     OW16028  14.021  10.089   5.698
 4730SOL    HW116029  14.058  10.144   5.768
 4730SOL    HW216030  13.965  10.026   5.744
 4731SOL     OW16031  12.866   1.585   9.121
 4731SOL    HW116032  12.891   1.508   9.171
 4731SOL    HW216033  12.850   1.552   9.032
 4732SOL     OW16034   5.473  11.786   4.954
 4732SOL    HW116035   5.520  11.705   4.973
 4732SOL    HW216036   5.542  11.848   4.929
 4733SOL     OW16037   5.791   1.498   9.374
 4733SOL    HW116038   5.747   1.563   9.318
 4733SOL    HW216039   5.719   1.446   9.410
 4734SOL     OW16040   6.130   1.259   1.152
 4734SOL    HW116041   6.210   1.213   1.124
 4734SOL    HW216042   6.119   1.234   1.244
 4735SOL     OW16043  11.006   6.165  14.298
 4735SOL    HW116044  10.952   6.087  14.285
 4735SOL    HW216045  11.072   6.139  14.362
 4736SOL     OW16046  10.365   2.680  13.511
 4736SOL    HW116047  10.424   2.643  13.444
 4736SOL    HW216048  10.370   2.618  13.584
 4737SOL     OW16049  13.462   4.694   4.692
 4737SOL    HW116050  13.557   4.684   4.690
 4737SOL    HW216051  13.431   4.647   4.615
 4738SOL     OW16052  13.028   5.564   9.307
 4738SOL    HW116053  13.051   5.471   9.316
 4738SOL    HW216054  12.952   5.575   9.363
 4739SOL     OW16055   6.516   8.586   2.779
 4739SOL    HW116056   6.575   8.553   2.711
 4739SOL    HW216057   6.512   8.680   2.763
 4740SOL     OW16058   5.527   3.012   3.689
 4740SOL    HW116059   5.575   2.981   3.766
 4740SOL    HW216060   5.478   2.935   3.660
 4741SOL     OW16061   3.030   1.193   7.584
 4741SOL    HW116062   3.101   1.186   7.648
 4741SOL    HW216063   3.075   1.210   7.501
 4742SOL     OW16064   4.380  14.791  11.625
 4742SOL    HW116065   4.307  14.794  11.562
 4742SOL    HW216066   4.395  14.698  11.641
 4743SOL     OW16067   2.670   6.886  11.256
 4743SOL    HW116068   2.735   6.899  11.325
 4743SOL    HW216069   2.609   6.821  11.291
 4744SOL     OW16070   6.973   6.881   9.639
 4744SOL    HW116071   6.958   6.787   9.651
 4744SOL    HW216072   7.019   6.909   9.719
 4745SOL     OW16073  10.529  10.248  12.314
 4745SOL    HW116074  10.465  10.206  12.256
 4745SOL    HW216075  10.596  10.283  12.255
 4746SOL     OW16076   7.322   0.804   7.900
 4746SOL    HW116077   7.231   0.819   7.873
 4746SOL    HW216078   7.330   0.709   7.907
 4747SOL     OW16079   0.090  11.272   3.368
 4747SOL    HW116080   0.073  11.181   3.346
 4747SOL    HW216081   0.137  11.307   3.292
 4748SOL     OW16082   6.404   0.535   9.535
 4748SOL    HW116083   6.341   0.536   9.607
 4748SOL    HW216084   6.407   0.626   9.505
 4749SOL     OW16085   9.706   2.894  13.578
 4749SOL    HW116086   9.684   2.924  13.490
 4749SOL    HW216087   9.755   2.967  13.616
 4750SOL     OW16088   6.711  10.899   1.779
 4750SOL    HW116089   6.637  10.890   1.839
 4750SOL    HW216090   6.783  10.853   1.822
 4751SOL     OW16091   5.060   9.395   1.291
 4751SOL    HW116092   5.058   9.426   1.381
 4751SOL    HW216093   5.150   9.366   1.278
 4752SOL     OW16094   3.712   2.768  14.826
 4752SOL    HW116095   3.661   2.689  14.846
 4752SOL    HW216096   3.755   2.791   0.026
 4753SOL     OW16097   9.177   0.692   7.106
 4753SOL    HW116098   9.199   0.740   7.026
 4753SOL    HW216099   9.178   0.600   7.080
 4754SOL     OW16100   8.262   8.623   3.082
 4754SOL    HW116101   8.340   8.644   3.030
 4754SOL    HW216102   8.244   8.703   3.131
 4755SOL     OW16103   9.409   0.986   3.042
 4755SOL    HW116104   9.383   0.894   3.034
 4755SOL    HW216105   9.504   0.985   3.048
 4756SOL     OW16106   2.711   8.889  12.910
 4756SOL    HW116107   2.636   8.846  12.869
 4756SOL    HW216108   2.706   8.863  13.002
 4757SOL     OW16109   1.534  10.716  12.190
 4757SOL    HW116110   1.544  10.651  12.259
 4757SOL    HW216111   1.466  10.775  12.222
 4758SOL     OW16112   9.690   7.366   5.786
 4758SOL    HW116113   9.719   7.456   5.801
 4758SOL    HW216114   9.747   7.314   5.843
 4759SOL     OW16115  10.250   4.914   7.073
 4759SOL    HW116116  10.222   4.841   7.017
 4759SOL    HW216117  10.328   4.949   7.030
 4760SOL     OW16118   9.244   2.071   1.324
 4760SOL    HW116119   9.263   2.134   1.254
 4760SOL    HW216120   9.219   2.124   1.399
 4761SOL     OW16121  11.571   4.384  11.278
 4761SOL    HW116122  11.511   4.430  11.218
 4761SOL    HW216123  11.650   4.371  11.226
 4762SOL     OW16124   2.892   0.336  13.756
 4762SOL    HW116125   2.967   0.394  13.772
 4762SOL    HW216126   2.816   0.387  13.785
 4763SOL     OW16127   8.853  10.958   8.196
 4763SOL    HW116128   8.822  11.043   8.164
 4763SOL    HW216129   8.916  10.929   8.131
 4764SOL     OW16130  12.109   7.224   3.673
 4764SOL    HW116131  12.014   7.222   3.660
 4764SOL    HW216132  12.135   7.312   3.643
 4765SOL     OW16133   8.126   3.074   3.404
 4765SOL    HW116134   8.053   3.130   3.432
 4765SOL    HW216135   8.204   3.123   3.431
 4766SOL     OW16136  12.912   2.617   9.042
 4766SOL    HW116137  12.831   2.629   8.993
 4766SOL    HW216138  12.955   2.542   9.001
 4767SOL     OW16139   4.447   2.859   7.083
 4767SOL    HW116140   4.540   2.881   7.074
 4767SOL    HW216141   4.446   2.790   7.149
 4768SOL     OW16142   4.589  13.392   6.337
 4768SOL    HW116143   4.576  13.455   6.408
 4768SOL    HW216144   4.676  13.356   6.354
 4769SOL     OW16145  11.866   0.720   2.949
 4769SOL    HW116146  11.778   0.690   2.972
 4769SOL    HW216147  11.852   0.794   2.889
 4770SOL     OW16148   9.061   3.415   0.701
 4770SOL    HW116149   9.134   3.439   0.644
 4770SOL    HW216150   9.103   3.383   0.781
 4771SOL     OW16151   8.432   3.165  10.427
 4771SOL    HW116152   8.499   3.098  10.416
 4771SOL    HW216153   8.480   3.244  10.451
 4772SOL     OW16154  14.132  11.635   7.387
 4772SOL    HW116155  14.149  11.687   7.465
 4772SOL    HW216156  14.169  11.549   7.407
 4773SOL     OW16157   4.113   9.252   7.130
 4773SOL    HW116158   4.034   9.199   7.139
 4773SOL    HW216159   4.185   9.192   7.152
 4774SOL     OW16160   7.164   2.428   8.100
 4774SOL    HW116161   7.162   2.522   8.082
 4774SOL    HW216162   7.230   2.417   8.168
 4775SOL     OW16163   9.621   9.980  13.770
 4775SOL    HW116164   9.542   9.934  13.742
 4775SOL    HW216165   9.684   9.966  13.699
 4776SOL     OW16166   4.447   0.022   1.955
 4776SOL    HW116167   4.434   0.098   1.898
 4776SOL    HW216168   4.359  14.879   1.982
 4777SOL     OW16169   9.136   4.098  10.038
 4777SOL    HW116170   9.218   4.067  10.076
 4777SOL    HW216171   9.105   4.165  10.099
 4778SOL     OW16172  14.613   6.305  10.490
 4778SOL    HW116173  14.571   6.388  10.468
 4778SOL    HW216174  14.681   6.293  10.424
 4779SOL     OW16175  11.129  10.080   8.737
 4779SOL    HW116176  11.126  10.072   8.832
 4779SOL    HW216177  11.146   9.991   8.706
 4780SOL     OW16178   2.246  10.948   4.987
 4780SOL    HW116179   2.340  10.930   4.989
 4780SOL    HW216180   2.238  11.028   4.936
 4781SOL     OW16181  12.752  10.070   8.374
 4781SOL    HW116182  12.790  10.010   8.438
 4781SOL    HW216183  12.784  10.157   8.401
 4782SOL     OW16184   4.201   8.554  12.925
 4782SOL    HW116185   4.270   8.490  12.909
 4782SOL    HW216186   4.242   8.639  12.908
 4783SOL     OW16187   1.131   6.397   6.568
 4783SOL    HW116188   1.146   6.363   6.656
 4783SOL    HW216189   1.076   6.331   6.526
 4784SOL     OW16190   6.588  14.065  13.034
 4784SOL    HW116191   6.513  14.102  12.987
 4784SOL    HW216192   6.549  14.006  13.098
 4785SOL     OW16193   9.465   8.610   5.652
 4785SOL    HW116194   9.432   8.657   5.728
 4785SOL    HW216195   9.424   8.653   5.577
 4786SOL     OW16196   7.100   8.384   5.303
 4786SOL    HW116197   7.184   8.402   5.345
 4786SOL    HW216198   7.093   8.288   5.305
 4787SOL     OW16199  10.310  13.110   4.294
 4787SOL    HW116200  10.368  13.035   4.299
 4787SOL    HW216201  10.363  13.184   4.324
 4788SOL     OW16202  11.879   0.176  11.225
 4788SOL    HW116203  11.834   0.143  11.303
 4788SOL    HW216204  11.939   0.106  11.201
 4789SOL     OW16205   4.061   0.710   1.315
 4789SOL    HW116206   4.104   0.796   1.312
 4789SOL    HW216207   3.986   0.719   1.256
 4790SOL     OW16208   5.251   5.216   1.731
 4790SOL    HW116209   5.227   5.277   1.801
 4790SOL    HW216210   5.328   5.256   1.691
 4791SOL     OW16211  12.395   6.314   4.071
 4791SOL    HW116212  12.343   6.247   4.027
 4791SOL    HW216213  12.486   6.292   4.049
 4792SOL     OW16214   7.002   9.036   8.790
 4792SOL    HW116215   6.972   9.041   8.699
 4792SOL    HW216216   6.921   9.041   8.841
 4793SOL     OW16217   9.976   8.049   0.128
 4793SOL    HW116218  10.019   8.013   0.051
 4793SOL    HW216219   9.917   7.979   0.158
 4794SOL     OW16220   5.809   7.257  13.057
 4794SOL    HW116221   5.734   7.199  13.072
 4794SOL    HW216222   5.772   7.345  13.061
 4795SOL     OW16223   3.786   6.439   1.212
 4795SOL    HW116224   3.791   6.385   1.133
 4795SOL    HW216225   3.870   6.425   1.255
 4796SOL     OW16226   1.728   0.921  11.085
 4796SOL    HW116227   1.633   0.930  11.098
 4796SOL    HW216228   1.756   1.009  11.061
 4797SOL     OW16229   8.327   4.667  11.074
 4797SOL    HW116230   8.420   4.665  11.050
 4797SOL    HW216231   8.321   4.736  11.140
 4798SOL     OW16232   9.057  13.732  12.544
 4798SOL    HW116233   8.963  13.737  12.561
 4798SOL    HW216234   9.075  13.639  12.534
 4799SOL     OW16235  10.642   9.664   3.636
 4799SOL    HW116236  10.717   9.644   3.580
 4799SOL    HW216237  10.568   9.620   3.594
 4800SOL     OW16238   2.173   6.749   6.083
 4800SOL    HW116239   2.232   6.673   6.086
 4800SOL    HW216240   2.117   6.737   6.160
 4801SOL     OW16241   1.559  11.657   8.012
 4801SOL    HW116242   1.466  11.679   8.019
 4801SOL    HW216243   1.571  11.635   7.920
 4802SOL     OW16244   9.173   5.218  10.042
 4802SOL    HW116245   9.137   5.131  10.027
 4802SOL    HW216246   9.171   5.228  10.138
 4803SOL     OW16247   6.904  12.070   3.415
 4803SOL    HW116248   6.889  12.016   3.493
 4803SOL    HW216249   6.862  12.022   3.344
 4804SOL     OW16250   1.941   4.045   4.568
 4804SOL    HW116251   1.993   3.981   4.519
 4804SOL    HW216252   1.990   4.058   4.649
 4805SOL     OW16253   9.348  14.419   7.726
 4805SOL    HW116254   9.328  14.512   7.714
 4805SOL    HW216255   9.389  14.392   7.643
 4806SOL     OW16256   0.120   1.648   5.344
 4806SOL    HW116257   0.154   1.716   5.285
 4806SOL    HW216258   0.137   1.566   5.297
 4807SOL     OW16259  10.767  12.765  12.260
 4807SOL    HW116260  10.680  12.744  12.293
 4807SOL    HW216261  10.807  12.815  12.330
 4808SOL     OW16262   1.143  11.266   5.173
 4808SOL    HW116263   1.107  11.219   5.249
 4808SOL    HW216264   1.227  11.300   5.204
 4809SOL     OW16265  10.210   6.393   7.128
 4809SOL    HW116266  10.117   6.374   7.120
 4809SOL    HW216267  10.230   6.378   7.220
 4810SOL     OW16268   7.663  12.830  12.631
 4810SOL    HW116269   7.748  12.851  12.594
 4810SOL    HW216270   7.634  12.753  12.582
 4811SOL     OW16271   7.013  10.026  13.860
 4811SOL    HW116272   7.038  10.019  13.768
 4811SOL    HW216273   7.028   9.939  13.896
 4812SOL     OW16274   9.151  11.618  14.550
 4812SOL    HW116275   9.076  11.633  14.493
 4812SOL    HW216276   9.195  11.703  14.556
 4813SOL     OW16277   2.019  14.837  12.318
 4813SOL    HW116278   2.059  14.751  12.329
 4813SOL    HW216279   1.974  14.853  12.401
 4814SOL     OW16280   9.599   7.705   0.530
 4814SOL    HW116281   9.680   7.749   0.504
 4814SOL    HW216282   9.530   7.768   0.512
 4815SOL     OW16283   2.261   7.095   1.934
 4815SOL    HW116284   2.211   7.156   1.880
 4815SOL    HW216285   2.320   7.151   1.985
 4816SOL     OW16286  13.989   0.877   3.792
 4816SOL    HW116287  14.048   0.819   3.839
 4816SOL    HW216288  13.963   0.827   3.714
 4817SOL     OW16289   5.767  10.971   6.580
 4817SOL    HW116290   5.742  10.883   6.606
 4817SOL    HW216291   5.689  11.025   6.598
 4818SOL     OW16292   8.077  10.550  12.437
 4818SOL    HW116293   8.033  10.474  12.398
 4818SOL    HW216294   8.051  10.623  12.382
 4819SOL     OW16295  11.635   3.547   7.000
 4819SOL    HW116296  11.696   3.473   6.995
 4819SOL    HW216297  11.589   3.546   6.916
 4820SOL     OW16298   6.894   5.732   5.924
 4820SOL    HW116299   6.874   5.707   5.834
 4820SOL    HW216300   6.908   5.648   5.969
 4821SOL     OW16301   6.750  11.448  11.313
 4821SOL    HW116302   6.703  11.416  11.235
 4821SOL    HW216303   6.684  11.444  11.383
 4822SOL     OW16304  13.264   6.303   3.762
 4822SOL    HW116305  13.334   6.273   3.820
 4822SOL    HW216306  13.210   6.225   3.748
 4823SOL     OW16307   9.798  11.584   8.152
 4823SOL    HW116308   9.766  11.596   8.062
 4823SOL    HW216309   9.728  11.534   8.195
 4824SOL     OW16310  10.102  11.325   2.356
 4824SOL    HW116311  10.072  11.236   2.339
 4824SOL    HW216312  10.051  11.353   2.432
 4825SOL     OW16313   1.812  12.614   0.386
 4825SOL    HW116314   1.738  12.607   0.445
 4825SOL    HW216315   1.793  12.690   0.331
 4826SOL     OW16316   1.960   0.663  12.250
 4826SOL    HW116317   1.867   0.683  12.261
 4826SOL    HW216318   1.965   0.622  12.164
 4827SOL     OW16319   9.606  11.121  14.788
 4827SOL    HW116320   9.532  11.089  14.839
 4827SOL    HW216321   9.671  11.052  14.793
 4828SOL     OW16322  13.659   0.929   2.531
 4828SOL    HW116323  13.571   0.965   2.540
 4828SOL    HW216324  13.699   0.980   2.461
 4829SOL     OW16325   3.010  11.460   6.884
 4829SOL    HW116326   3.026  11.553   6.901
 4829SOL    HW216327   2.953  11.460   6.806
 4830SOL     OW16328   1.109   1.841   4.603
 4830SOL    HW116329   1.032   1.804   4.559
 4830SOL    HW216330   1.084   1.931   4.624
 4831SOL     OW16331   8.018   9.234   2.950
 4831SOL    HW116332   8.024   9.293   2.875
 4831SOL    HW216333   8.102   9.189   2.952
 4832SOL     OW16334  14.057   5.506   7.799
 4832SOL    HW116335  14.092   5.452   7.728
 4832SOL    HW216336  13.980   5.549   7.761
 4833SOL     OW16337  10.429  13.552   0.986
 4833SOL    HW116338  10.433  13.564   1.081
 4833SOL    HW216339  10.520  13.539   0.960
 4834SOL     OW16340   8.806   4.374  12.093
 4834SOL    HW116341   8.787   4.339  12.006
 4834SOL    HW216342   8.835   4.464  12.076
 4835SOL     OW16343  13.363   5.440  13.874
 4835SOL    HW116344  13.291   5.377  13.872
 4835SOL    HW216345  13.392   5.448  13.783
 4836SOL     OW16346   9.820  11.387   9.817
 4836SOL    HW116347   9.750  11.411   9.757
 4836SOL    HW216348   9.901  11.401   9.768
 4837SOL     OW16349   8.749   1.843  12.210
 4837SOL    HW116350   8.706   1.913  12.162
 4837SOL    HW216351   8.695   1.765  12.195
 4838SOL     OW16352  13.649   3.150  13.781
 4838SOL    HW116353  13.598   3.230  13.795
 4838SOL    HW216354  13.728   3.179  13.736
 4839SOL     OW16355   0.898   1.059   6.288
 4839SOL    HW116356   0.940   1.087   6.207
 4839SOL    HW216357   0.825   1.121   6.300
 4840SOL     OW16358  10.958  11.563   7.361
 4840SOL    HW116359  10.937  11.595   7.449
 4840SOL    HW216360  11.003  11.637   7.319
 4841SOL     OW16361  13.189  13.327  14.095
 4841SOL    HW116362  13.134  13.250  14.106
 4841SOL    HW216363  13.144  13.380  14.028
 4842SOL     OW16364   6.401  13.828   0.287
 4842SOL    HW116365   6.332  13.845   0.222
 4842SOL    HW216366   6.355  13.786   0.360
 4843SOL     OW16367   6.315   3.151   1.274
 4843SOL    HW116368   6.401   3.144   1.233
 4843SOL    HW216369   6.253   3.152   1.201
 4844SOL     OW16370   3.452   8.890   5.549
 4844SOL    HW116371   3.485   8.831   5.617
 4844SOL    HW216372   3.390   8.947   5.595
 4845SOL     OW16373   2.368  14.692   2.030
 4845SOL    HW116374   2.326  14.608   2.014
 4845SOL    HW216375   2.319  14.730   2.103
 4846SOL     OW16376  14.669   3.986   6.960
 4846SOL    HW116377  14.594   4.034   6.923
 4846SOL    HW216378  14.719   3.958   6.884
 4847SOL     OW16379   7.892  14.525   7.021
 4847SOL    HW116380   7.891  14.437   7.057
 4847SOL    HW216381   7.943  14.576   7.084
 4848SOL     OW16382   0.842   0.408   1.622
 4848SOL    HW116383   0.864   0.322   1.659
 4848SOL    HW216384   0.755   0.427   1.655
 4849SOL     OW16385   0.711   5.134  13.148
 4849SOL    HW116386   0.744   5.187  13.075
 4849SOL    HW216387   0.672   5.057  13.106
 4850SOL     OW16388   7.634  14.350   1.966
 4850SOL    HW116389   7.551  14.320   2.003
 4850SOL    HW216390   7.679  14.393   2.039
 4851SOL     OW16391   6.514   9.938   8.109
 4851SOL    HW116392   6.422   9.948   8.131
 4851SOL    HW216393   6.554  10.021   8.134
 4852SOL     OW16394   5.994  11.697   3.973
 4852SOL    HW116395   6.043  11.615   3.967
 4852SOL    HW216396   6.004  11.724   4.064
 4853SOL     OW16397  14.157  14.699  10.351
 4853SOL    HW116398  14.182  14.779  10.306
 4853SOL    HW216399  14.238  14.649  10.358
 4854SOL     OW16400   2.246   1.936   9.087
 4854SOL    HW116401   2.332   1.978   9.090
 4854SOL    HW216402   2.185   2.002   9.120
 4855SOL     OW16403   0.781   6.407   1.930
 4855SOL    HW116404   0.756   6.337   1.990
 4855SOL    HW216405   0.721   6.398   1.856
 4856SOL     OW16406  11.066   2.976   6.921
 4856SOL    HW116407  11.092   3.019   6.840
 4856SOL    HW216408  11.086   2.883   6.907
 4857SOL     OW16409  12.295  12.328   1.532
 4857SOL    HW116410  12.201  12.338   1.540
 4857SOL    HW216411  12.317  12.256   1.591
 4858SOL     OW16412  10.056  12.976   4.309
 4858SOL    HW116413  10.134  13.032   4.302
 4858SOL    HW216414  10.082  12.906   4.368
 4859SOL     OW16415   2.614  13.216   8.819
 4859SOL    HW116416   2.689  13.253   8.772
 4859SOL    HW216417   2.588  13.284   8.880
 4860SOL     OW16418   2.786  13.480   6.310
 4860SOL    HW116419   2.827  13.466   6.396
 4860SOL    HW216420   2.857  13.472   6.248
 4861SOL     OW16421   1.161   1.167   3.955
 4861SOL    HW116422   1.196   1.164   4.044
 4861SOL    HW216423   1.229   1.211   3.904
 4862SOL     OW16424  12.186  11.108   5.467
 4862SOL    HW116425  12.124  11.156   5.412
 4862SOL    HW216426  12.250  11.072   5.405
 4863SOL     OW16427  12.579  14.221  10.159
 4863SOL    HW116428  12.571  14.217  10.254
 4863SOL    HW216429  12.633  14.145  10.137
 4864SOL     OW16430  14.532   3.100   1.678
 4864SOL    HW116431  14.597   3.156   1.635
 4864SOL    HW216432  14.449   3.124   1.636
 4865SOL     OW16433  11.328  10.926   3.372
 4865SOL    HW116434  11.247  10.933   3.322
 4865SOL    HW216435  11.300  10.897   3.459
 4866SOL     OW16436  10.456   8.780  14.399
 4866SOL    HW116437  10.415   8.781  14.485
 4866SOL    HW216438  10.539   8.734  14.411
 4867SOL     OW16439   6.069  14.260   0.829
 4867SOL    HW116440   6.137  14.258   0.896
 4867SOL    HW216441   5.992  14.223   0.872
 4868SOL     OW16442   0.830   9.419   2.142
 4868SOL    HW116443   0.856   9.352   2.206
 4868SOL    HW216444   0.740   9.440   2.165
 4869SOL     OW16445  14.132  11.613   4.949
 4869SOL    HW116446  14.173  11.581   5.029
 4869SOL    HW216447  14.157  11.706   4.945
 4870SOL     OW16448   5.933  12.061   2.881
 4870SOL    HW116449   5.927  12.081   2.787
 4870SOL    HW216450   5.963  11.970   2.884
 4871SOL     OW16451   5.242  11.775   8.476
 4871SOL    HW116452   5.249  11.688   8.435
 4871SOL    HW216453   5.234  11.756   8.570
 4872SOL     OW16454  12.691   6.428   9.145
 4872SOL    HW116455  12.701   6.507   9.092
 4872SOL    HW216456  12.596   6.416   9.151
 4873SOL     OW16457  12.270   1.196   6.793
 4873SOL    HW116458  12.338   1.170   6.854
 4873SOL    HW216459  12.286   1.142   6.715
 4874SOL     OW16460   1.574   5.071   7.626
 4874SOL    HW116461   1.615   5.107   7.705
 4874SOL    HW216462   1.486   5.046   7.655
 4875SOL     OW16463   8.166   3.440   6.985
 4875SOL    HW116464   8.236   3.485   7.032
 4875SOL    HW216465   8.169   3.351   7.020
 4876SOL     OW16466   3.701  10.545  10.216
 4876SOL    HW116467   3.747  10.561  10.298
 4876SOL    HW216468   3.675  10.453  10.221
 4877SOL     OW16469   0.126   2.242  14.193
 4877SOL    HW116470   0.069   2.195  14.132
 4877SOL    HW216471   0.161   2.174  14.250
 4878SOL     OW16472  10.175   9.980  10.830
 4878SOL    HW116473  10.132   9.975  10.916
 4878SOL    HW216474  10.235   9.906  10.828
 4879SOL     OW16475   6.336   8.909   7.958
 4879SOL    HW116476   6.253   8.943   7.991
 4879SOL    HW216477   6.377   8.984   7.915
 4880SOL     OW16478  10.340   2.819  10.919
 4880SOL    HW116479  10.321   2.835  11.011
 4880SOL    HW216480  10.307   2.730  10.903
 4881SOL     OW16481   7.749  13.196   2.017
 4881SOL    HW116482   7.672  13.245   1.987
 4881SOL    HW216483   7.713  13.120   2.062
 4882SOL     OW16484   9.531  12.031  13.009
 4882SOL    HW116485   9.566  12.095  13.072
 4882SOL    HW216486   9.481  11.969  13.063
 4883SOL     OW16487   9.991   2.948   5.837
 4883SOL    HW116488   9.899   2.974   5.846
 4883SOL    HW216489   9.988   2.859   5.803
 4884SOL     OW16490   2.060  12.641  11.508
 4884SOL    HW116491   2.086  12.683  11.425
 4884SOL    HW216492   1.982  12.689  11.535
 4885SOL     OW16493  12.941   4.394   8.593
 4885SOL    HW116494  12.874   4.437   8.539
 4885SOL    HW216495  13.016   4.453   8.589
 4886SOL     OW16496  11.209   5.240   8.157
 4886SOL    HW116497  11.155   5.319   8.150
 4886SOL    HW216498  11.177   5.182   8.089
 4887SOL     OW16499   4.103  14.018   6.199
 4887SOL    HW116500   4.127  13.928   6.174
 4887SOL    HW216501   4.047  14.007   6.276
 4888SOL     OW16502  11.647   9.323   5.377
 4888SOL    HW116503  11.684   9.379   5.445
 4888SOL    HW216504  11.648   9.235   5.416
 4889SOL     OW16505   2.999  10.658  12.007
 4889SOL    HW116506   3.013  10.696  11.920
 4889SOL    HW216507   3.079  10.679  12.055
 4890SOL     OW16508   9.720   3.565   7.890
 4890SOL    HW116509   9.763   3.543   7.972
 4890SOL    HW216510   9.791   3.596   7.834
 4891SOL     OW16511   9.726   8.339  12.969
 4891SOL    HW116512   9.657   8.285  12.932
 4891SOL    HW216513   9.720   8.324  13.064
 4892SOL     OW16514   3.817   3.240  11.834
 4892SOL    HW116515   3.890   3.195  11.877
 4892SOL    HW216516   3.812   3.200  11.747
 4893SOL     OW16517   8.844  14.273  11.849
 4893SOL    HW116518   8.800  14.205  11.797
 4893SOL    HW216519   8.824  14.251  11.940
 4894SOL     OW16520  14.818  10.172   1.640
 4894SOL    HW116521  14.794  10.262   1.662
 4894SOL    HW216522  14.771  10.118   1.704
 4895SOL     OW16523  10.285   1.957   2.356
 4895SOL    HW116524  10.322   2.022   2.296
 4895SOL    HW216525  10.356   1.939   2.418
 4896SOL     OW16526   5.485   5.000  11.177
 4896SOL    HW116527   5.414   5.055  11.143
 4896SOL    HW216528   5.562   5.056  11.177
 4897SOL     OW16529   4.169  10.725   3.999
 4897SOL    HW116530   4.225  10.660   3.958
 4897SOL    HW216531   4.148  10.689   4.085
 4898SOL     OW16532  12.864   6.104   1.182
 4898SOL    HW116533  12.810   6.026   1.197
 4898SOL    HW216534  12.953   6.075   1.201
 4899SOL     OW16535  12.946   3.847   0.856
 4899SOL    HW116536  13.037   3.846   0.885
 4899SOL    HW216537  12.906   3.771   0.898
 4900SOL     OW16538   0.610   2.824   9.144
 4900SOL    HW116539   0.660   2.848   9.066
 4900SOL    HW216540   0.608   2.729   9.143
 4901SOL     OW16541   4.094   2.841  10.237
 4901SOL    HW116542   4.087   2.804  10.149
 4901SOL    HW216543   4.136   2.772  10.289
 4902SOL     OW16544  12.739  12.122   4.068
 4902SOL    HW116545  12.788  12.199   4.037
 4902SOL    HW216546  12.761  12.053   4.005
 4903SOL     OW16547   8.261  12.628   9.557
 4903SOL    HW116548   8.197  12.617   9.628
 4903SOL    HW216549   8.322  12.555   9.567
 4904SOL     OW16550   2.472  12.552  11.761
 4904SOL    HW116551   2.521  12.566  11.680
 4904SOL    HW216552   2.396  12.609  11.753
 4905SOL     OW16553   4.551   5.981   3.456
 4905SOL    HW116554   4.589   6.037   3.388
 4905SOL    HW216555   4.626   5.935   3.494
 4906SOL     OW16556  14.224   9.100   2.607
 4906SOL    HW116557  14.225   9.134   2.517
 4906SOL    HW216558  14.207   9.006   2.597
 4907SOL     OW16559   5.382   4.862   2.471
 4907SOL    HW116560   5.310   4.810   2.505
 4907SOL    HW216561   5.444   4.868   2.544
 4908SOL     OW16562   3.196   0.295   3.276
 4908SOL    HW116563   3.110   0.325   3.246
 4908SOL    HW216564   3.234   0.371   3.321
 4909SOL     OW16565   9.533  14.294   6.667
 4909SOL    HW116566   9.485  14.352   6.609
 4909SOL    HW216567   9.609  14.345   6.695
 4910SOL     OW16568   6.181  13.419  14.530
 4910SOL    HW116569   6.129  13.401  14.608
 4910SOL    HW216570   6.212  13.333  14.502
 4911SOL     OW16571   1.051   0.577   5.789
 4911SOL    HW116572   0.983   0.531   5.739
 4911SOL    HW216573   1.003   0.627   5.855
 4912SOL     OW16574   6.069  14.471   3.157
 4912SOL    HW116575   6.065  14.567   3.156
 4912SOL    HW216576   5.985  14.445   3.196
 4913SOL     OW16577  14.091   9.697   6.745
 4913SOL    HW116578  14.009   9.718   6.789
 4913SOL    HW216579  14.087   9.602   6.732
 4914SOL     OW16580  14.852  12.553  11.857
 4914SOL    HW116581  14.788  12.495  11.897
 4914SOL    HW216582   0.023  12.585  11.930
 4915SOL     OW16583  14.629   7.009  11.701
 4915SOL    HW116584  14.708   6.966  11.671
 4915SOL    HW216585  14.623   7.089  11.650
 4916SOL     OW16586   1.033  14.112   5.651
 4916SOL    HW116587   0.938  14.108   5.651
 4916SOL    HW216588   1.060  14.049   5.718
 4917SOL     OW16589   8.477  14.660   6.719
 4917SOL    HW116590   8.450  14.751   6.731
 4917SOL    HW216591   8.570  14.659   6.742
 4918SOL     OW16592   7.027  11.803   6.639
 4918SOL    HW116593   7.027  11.862   6.715
 4918SOL    HW216594   6.986  11.854   6.569
 4919SOL     OW16595   1.181   7.933  10.447
 4919SOL    HW116596   1.246   7.956  10.380
 4919SOL    HW216597   1.136   7.857  10.411
 4920SOL     OW16598   4.651   2.484   7.414
 4920SOL    HW116599   4.682   2.432   7.340
 4920SOL    HW216600   4.728   2.530   7.445
 4921SOL     OW16601   9.606  14.711  11.904
 4921SOL    HW116602   9.655  14.777  11.856
 4921SOL    HW216603   9.529  14.757  11.937
 4922SOL     OW16604   4.704   2.495  10.808
 4922SOL    HW116605   4.706   2.495  10.712
 4922SOL    HW216606   4.635   2.557  10.831
 4923SOL     OW16607  10.478   7.323  14.274
 4923SOL    HW116608  10.540   7.301  14.344
 4923SOL    HW216609  10.533   7.347  14.199
 4924SOL     OW16610   8.618  11.798   7.278
 4924SOL    HW116611   8.603  11.866   7.344
 4924SOL    HW216612   8.710  11.774   7.289
 4925SOL     OW16613   4.861   9.237   6.736
 4925SOL    HW116614   4.774   9.203   6.759
 4925SOL    HW216615   4.905   9.249   6.820
 4926SOL     OW16616  14.852  11.598  10.126
 4926SOL    HW116617   0.020  11.587  10.045
 4926SOL    HW216618  14.878  11.523  10.180
 4927SOL     OW16619  11.161   2.826   7.907
 4927SOL    HW116620  11.135   2.815   7.998
 4927SOL    HW216621  11.248   2.865   7.911
 4928SOL     OW16622   3.941  14.862   3.446
 4928SOL    HW116623   4.015  14.824   3.398
 4928SOL    HW216624   3.957   0.075   3.443
 4929SOL     OW16625  11.547   6.255   9.508
 4929SOL    HW116626  11.609   6.244   9.436
 4929SOL    HW216627  11.578   6.195   9.576
 4930SOL     OW16628  10.209   4.799   8.316
 4930SOL    HW116629  10.138   4.820   8.376
 4930SOL    HW216630  10.205   4.866   8.248
 4931SOL     OW16631   7.572  14.853   9.328
 4931SOL    HW116632   7.526  14.781   9.372
 4931SOL    HW216633   7.519   0.049   9.349
 4932SOL     OW16634   0.339  10.833   4.436
 4932SOL    HW116635   0.331  10.928   4.440
 4932SOL    HW216636   0.364  10.815   4.345
 4933SOL     OW16637  12.456   5.516   2.449
 4933SOL    HW116638  12.367   5.485   2.465
 4933SOL    HW216639  12.455   5.607   2.479
 4934SOL     OW16640   9.222  11.625   7.523
 4934SOL    HW116641   9.142  11.594   7.480
 4934SOL    HW216642   9.280  11.549   7.524
 4935SOL     OW16643   7.903   2.142   2.479
 4935SOL    HW116644   7.935   2.052   2.488
 4935SOL    HW216645   7.820   2.142   2.525
 4936SOL     OW16646  13.559   3.717  12.671
 4936SOL    HW116647  13.650   3.739  12.649
 4936SOL    HW216648  13.561   3.623  12.689
 4937SOL     OW16649  13.478   1.278  13.624
 4937SOL    HW116650  13.466   1.190  13.660
 4937SOL    HW216651  13.421   1.334  13.677
 4938SOL     OW16652   3.154  11.375  10.565
 4938SOL    HW116653   3.188  11.382  10.655
 4938SOL    HW216654   3.228  11.341  10.514
 4939SOL     OW16655   9.837  13.119   8.224
 4939SOL    HW116656   9.923  13.111   8.266
 4939SOL    HW216657   9.777  13.138   8.297
 4940SOL     OW16658   0.712   0.611   7.705
 4940SOL    HW116659   0.631   0.560   7.705
 4940SOL    HW216660   0.702   0.673   7.777
 4941SOL     OW16661  11.854   2.370   2.848
 4941SOL    HW116662  11.760   2.363   2.831
 4941SOL    HW216663  11.864   2.341   2.938
 4942SOL     OW16664   4.397   8.062   3.587
 4942SOL    HW116665   4.309   8.099   3.599
 4942SOL    HW216666   4.382   7.969   3.575
 4943SOL     OW16667   2.035   6.316  12.258
 4943SOL    HW116668   1.969   6.287  12.321
 4943SOL    HW216669   2.118   6.309  12.304
 4944SOL     OW16670   3.395  11.641   1.277
 4944SOL    HW116671   3.385  11.548   1.259
 4944SOL    HW216672   3.470  11.668   1.224
 4945SOL     OW16673   1.691   7.367   9.455
 4945SOL    HW116674   1.747   7.390   9.381
 4945SOL    HW216675   1.663   7.277   9.438
 4946SOL     OW16676   2.617   9.135   4.383
 4946SOL    HW116677   2.531   9.098   4.404
 4946SOL    HW216678   2.629   9.206   4.446
 4947SOL     OW16679   7.198  11.874   6.026
 4947SOL    HW116680   7.289  11.876   5.994
 4947SOL    HW216681   7.185  11.783   6.054
 4948SOL     OW16682  12.476   1.768   9.355
 4948SOL    HW116683  12.476   1.758   9.260
 4948SOL    HW216684  12.527   1.693   9.387
 4949SOL     OW16685   8.650  10.379  14.429
 4949SOL    HW116686   8.611  10.443  14.488
 4949SOL    HW216687   8.611  10.295  14.454
 4950SOL     OW16688   3.012  11.169   9.870
 4950SOL    HW116689   3.092  11.129   9.905
 4950SOL    HW216690   2.944  11.145   9.933
 4951SOL     OW16691   5.310  12.967   1.662
 4951SOL    HW116692   5.274  13.047   1.700
 4951SOL    HW216693   5.285  12.970   1.570
 4952SOL     OW16694  14.369   0.991   6.131
 4952SOL    HW116695  14.391   0.898   6.137
 4952SOL    HW216696  14.412   1.021   6.051
 4953SOL     OW16697   9.496   8.383  10.233
 4953SOL    HW116698   9.417   8.358  10.184
 4953SOL    HW216699   9.467   8.393  10.323
 4954SOL     OW16700  10.232   7.355  14.626
 4954SOL    HW116701  10.156   7.413  14.628
 4954SOL    HW216702  10.207   7.285  14.565
 4955SOL     OW16703   4.590   4.294   3.710
 4955SOL    HW116704   4.567   4.217   3.658
 4955SOL    HW216705   4.648   4.260   3.778
 4956SOL     OW16706  13.656   1.876   6.664
 4956SOL    HW116707  13.703   1.828   6.595
 4956SOL    HW216708  13.657   1.817   6.739
 4957SOL     OW16709   0.411   9.567   5.199
 4957SOL    HW116710   0.434   9.530   5.114
 4957SOL    HW216711   0.365   9.649   5.178
 4958SOL     OW16712   8.067   1.388  14.324
 4958SOL    HW116713   8.087   1.349  14.238
 4958SOL    HW216714   7.972   1.391  14.327
 4959SOL     OW16715   5.603   7.344  13.378
 4959SOL    HW116716   5.656   7.422  13.361
 4959SOL    HW216717   5.667   7.275  13.394
 4960SOL     OW16718   7.787   8.067   7.883
 4960SOL    HW116719   7.692   8.071   7.887
 4960SOL    HW216720   7.806   8.042   7.792
 4961SOL     OW16721  12.198   2.121   1.337
 4961SOL    HW116722  12.107   2.096   1.355
 4961SOL    HW216723  12.248   2.042   1.354
 4962SOL     OW16724   4.873  11.620   1.538
 4962SOL    HW116725   4.938  11.571   1.487
 4962SOL    HW216726   4.917  11.641   1.620
 4963SOL     OW16727  12.206  11.503  11.630
 4963SOL    HW116728  12.252  11.583  11.655
 4963SOL    HW216729  12.144  11.532  11.563
 4964SOL     OW16730   7.188   7.767   7.967
 4964SOL    HW116731   7.112   7.761   7.909
 4964SOL    HW216732   7.158   7.732   8.050
 4965SOL     OW16733   5.293   9.689  13.409
 4965SOL    HW116734   5.328   9.663  13.324
 4965SOL    HW216735   5.262   9.778  13.397
 4966SOL     OW16736  10.570  13.256   0.802
 4966SOL    HW116737  10.612  13.341   0.791
 4966SOL    HW216738  10.504  13.253   0.733
 4967SOL     OW16739   3.036  12.374   5.195
 4967SOL    HW116740   3.096  12.339   5.129
 4967SOL    HW216741   2.950  12.371   5.153
 4968SOL     OW16742   1.423  14.316   0.253
 4968SOL    HW116743   1.389  14.401   0.281
 4968SOL    HW216744   1.345  14.270   0.220
 4969SOL     OW16745   4.578   7.810  12.978
 4969SOL    HW116746   4.630   7.760  13.041
 4969SOL    HW216747   4.614   7.899  12.983
 4970SOL     OW16748  11.428  12.118   3.016
 4970SOL    HW116749  11.453  12.196   3.066
 4970SOL    HW216750  11.337  12.132   2.993
 4971SOL     OW16751   3.430   3.398   5.158
 4971SOL    HW116752   3.374   3.466   5.195
 4971SOL    HW216753   3.493   3.378   5.227
 4972SOL     OW16754   6.467   3.941   6.166
 4972SOL    HW116755   6.423   3.939   6.081
 4972SOL    HW216756   6.522   3.862   6.167
 4973SOL     OW16757   8.997  10.422  12.711
 4973SOL    HW116758   9.022  10.510  12.739
 4973SOL    HW216759   8.914  10.433  12.664
 4974SOL     OW16760  10.002  10.654   7.953
 4974SOL    HW116761  10.035  10.741   7.973
 4974SOL    HW216762   9.936  10.669   7.885
 4975SOL     OW16763  10.721  12.736   3.452
 4975SOL    HW116764  10.669  12.802   3.406
 4975SOL    HW216765  10.748  12.779   3.533
 4976SOL     OW16766   1.221   6.036  13.849
 4976SOL    HW116767   1.316   6.028  13.847
 4976SOL    HW216768   1.205   6.129  13.864
 4977SOL     OW16769   1.524   2.589   7.296
 4977SOL    HW116770   1.522   2.622   7.385
 4977SOL    HW216771   1.593   2.639   7.253
 4978SOL     OW16772  12.057   1.003   9.220
 4978SOL    HW116773  11.985   0.989   9.157
 4978SOL    HW216774  12.013   1.033   9.300
 4979SOL     OW16775  12.577   9.449   7.299
 4979SOL    HW116776  12.554   9.532   7.340
 4979SOL    HW216777  12.558   9.462   7.206
 4980SOL     OW16778   9.069   7.839  11.079
 4980SOL    HW116779   9.019   7.815  11.001
 4980SOL    HW216780   9.159   7.850  11.048
 4981SOL     OW16781   9.265   1.071   4.156
 4981SOL    HW116782   9.307   1.043   4.075
 4981SOL    HW216783   9.270   0.995   4.214
 4982SOL     OW16784   4.300  14.640   9.720
 4982SOL    HW116785   4.288  14.692   9.799
 4982SOL    HW216786   4.236  14.676   9.658
 4983SOL     OW16787   6.430   4.375  11.068
 4983SOL    HW116788   6.437   4.346  10.978
 4983SOL    HW216789   6.357   4.436  11.068
 4984SOL     OW16790   8.931  10.608   2.712
 4984SOL    HW116791   8.970  10.548   2.649
 4984SOL    HW216792   8.934  10.561   2.795
 4985SOL     OW16793  11.136   5.938  11.534
 4985SOL    HW116794  11.096   5.995  11.600
 4985SOL    HW216795  11.160   5.859  11.582
 4986SOL     OW16796  14.861   4.881  14.318
 4986SOL    HW116797   0.069   4.847  14.323
 4986SOL    HW216798  14.867   4.968  14.356
 4987SOL     OW16799  12.495  14.071   0.574
 4987SOL    HW116800  12.558  14.111   0.514
 4987SOL    HW216801  12.489  13.980   0.545
 4988SOL     OW16802   3.626   8.089   3.928
 4988SOL    HW116803   3.606   8.110   4.019
 4988SOL    HW216804   3.577   8.008   3.911
 4989SOL     OW16805   2.461   9.465   1.223
 4989SOL    HW116806   2.432   9.381   1.260
 4989SOL    HW216807   2.546   9.447   1.185
 4990SOL     OW16808  12.151   1.681  11.425
 4990SOL    HW116809  12.175   1.690  11.517
 4990SOL    HW216810  12.182   1.593  11.401
 4991SOL     OW16811  13.091  11.855  10.247
 4991SOL    HW116812  13.047  11.803  10.314
 4991SOL    HW216813  13.043  11.937  10.245
 4992SOL     OW16814   3.193   0.545   5.504
 4992SOL    HW116815   3.113   0.561   5.555
 4992SOL    HW216816   3.261   0.532   5.570
 4993SOL     OW16817  12.372   0.944   0.981
 4993SOL    HW116818  12.456   0.902   0.958
 4993SOL    HW216819  12.306   0.884   0.946
 4994SOL     OW16820   0.209  13.315   1.064
 4994SOL    HW116821   0.258  13.333   0.984
 4994SOL    HW216822   0.159  13.395   1.080
 4995SOL     OW16823   7.557  11.669   2.311
 4995SOL    HW116824   7.494  11.597   2.309
 4995SOL    HW216825   7.598  11.663   2.398
 4996SOL     OW16826   4.005   8.914   0.666
 4996SOL    HW116827   3.940   8.848   0.642
 4996SOL    HW216828   3.999   8.920   0.761
 4997SOL     OW16829  11.811   0.819  11.905
 4997SOL    HW116830  11.762   0.758  11.850
 4997SOL    HW216831  11.749   0.889  11.923
 4998SOL     OW16832   8.829   5.758   7.264
 4998SOL    HW116833   8.843   5.756   7.170
 4998SOL    HW216834   8.909   5.796   7.300
 4999SOL     OW16835   7.200  12.256   0.065
 4999SOL    HW116836   7.265  12.188   0.051
 4999SOL    HW216837   7.122  12.226   0.018
 5000SOL     OW16838   0.534   7.216  14.536
 5000SOL    HW116839   0.597   7.228  14.607
 5000SOL    HW216840   0.569   7.143  14.485
 5001SOL     OW16841   0.425   4.705  13.419
 5001SOL    HW116842   0.479   4.662  13.485
 5001SOL    HW216843   0.336   4.674  13.437
 5002SOL     OW16844   5.655   3.988   2.563
 5002SOL    HW116845   5.605   3.983   2.645
 5002SOL    HW216846   5.709   3.909   2.564
 5003SOL     OW16847   8.081  13.945   6.813
 5003SOL    HW116848   8.095  13.858   6.849
 5003SOL    HW216849   8.168  13.984   6.810
 5004SOL     OW16850   0.954   3.074   3.138
 5004SOL    HW116851   0.920   3.108   3.056
 5004SOL    HW216852   0.882   3.086   3.201
 5005SOL     OW16853   1.999  12.245  13.868
 5005SOL    HW116854   1.907  12.234  13.843
 5005SOL    HW216855   2.045  12.253  13.784
 5006SOL     OW16856  12.133  12.728   8.972
 5006SOL    HW116857  12.082  12.653   9.004
 5006SOL    HW216858  12.090  12.804   9.011
 5007SOL     OW16859   5.015   6.573   2.073
 5007SOL    HW116860   4.992   6.575   2.166
 5007SOL    HW216861   4.944   6.622   2.031
 5008SOL     OW16862   0.335   5.341  13.791
 5008SOL    HW116863   0.278   5.418  13.793
 5008SOL    HW216864   0.296   5.281  13.855
 5009SOL     OW16865  14.511  14.528  10.815
 5009SOL    HW116866  14.496  14.611  10.860
 5009SOL    HW216867  14.424  14.488  10.809
 5010SOL     OW16868   5.021   1.096   4.732
 5010SOL    HW116869   5.005   1.095   4.638
 5010SOL    HW216870   5.111   1.129   4.741
 5011SOL     OW16871   9.385   2.965   0.534
 5011SOL    HW116872   9.306   2.991   0.486
 5011SOL    HW216873   9.369   2.992   0.624
 5012SOL     OW16874  12.146   3.069   9.212
 5012SOL    HW116875  12.094   3.009   9.266
 5012SOL    HW216876  12.095   3.151   9.212
 5013SOL     OW16877   1.322  13.212  12.902
 5013SOL    HW116878   1.233  13.236  12.876
 5013SOL    HW216879   1.369  13.295  12.903
 5014SOL     OW16880  11.046   6.152  10.216
 5014SOL    HW116881  11.109   6.215  10.183
 5014SOL    HW216882  11.081   6.067  10.190
 5015SOL     OW16883   8.117   1.368   0.578
 5015SOL    HW116884   8.159   1.331   0.501
 5015SOL    HW216885   8.091   1.456   0.551
 5016SOL     OW16886   8.964  14.282  13.328
 5016SOL    HW116887   8.926  14.211  13.381
 5016SOL    HW216888   8.893  14.345  13.318
 5017SOL     OW16889  10.345  12.743   9.328
 5017SOL    HW116890  10.408  12.678   9.358
 5017SOL    HW216891  10.389  12.788   9.256
 5018SOL     OW16892   4.338   4.894  12.045
 5018SOL    HW116893   4.242   4.887  12.042
 5018SOL    HW216894   4.355   4.988  12.041
 5019SOL     OW16895   2.453  12.468   2.474
 5019SOL    HW116896   2.453  12.474   2.378
 5019SOL    HW216897   2.534  12.512   2.501
 5020SOL     OW16898   2.564  11.954   3.033
 5020SOL    HW116899   2.600  11.922   3.116
 5020SOL    HW216900   2.495  11.891   3.011
 5021SOL     OW16901   8.882  10.030   1.840
 5021SOL    HW116902   8.804  10.087   1.837
 5021SOL    HW216903   8.863   9.968   1.910
 5022SOL     OW16904   7.165  12.060   7.892
 5022SOL    HW116905   7.120  12.088   7.813
 5022SOL    HW216906   7.102  12.075   7.963
 5023SOL     OW16907   5.834   6.797   7.823
 5023SOL    HW116908   5.925   6.772   7.840
 5023SOL    HW216909   5.798   6.817   7.910
 5024SOL     OW16910  13.838   7.204  13.742
 5024SOL    HW116911  13.773   7.144  13.703
 5024SOL    HW216912  13.817   7.203  13.835
 5025SOL     OW16913   4.346  14.818  11.123
 5025SOL    HW116914   4.285  14.792  11.192
 5025SOL    HW216915   4.431  14.785  11.152
 5026SOL     OW16916   8.806  11.265   8.130
 5026SOL    HW116917   8.822  11.310   8.046
 5026SOL    HW216918   8.850  11.321   8.195
 5027SOL     OW16919   6.049   7.445   3.452
 5027SOL    HW116920   5.968   7.448   3.503
 5027SOL    HW216921   6.022   7.455   3.361
 5028SOL     OW16922  13.867   3.628   6.605
 5028SOL    HW116923  13.828   3.542   6.594
 5028SOL    HW216924  13.866   3.667   6.517
 5029SOL     OW16925   6.384   3.080   2.470
 5029SOL    HW116926   6.327   3.120   2.405
 5029SOL    HW216927   6.469   3.122   2.456
 5030SOL     OW16928   0.786  14.741   9.092
 5030SOL    HW116929   0.779  14.737   8.996
 5030SOL    HW216930   0.709  14.790   9.120
 5031SOL     OW16931  11.440   8.135   5.650
 5031SOL    HW116932  11.354   8.154   5.686
 5031SOL    HW216933  11.423   8.105   5.561
 5032SOL     OW16934   9.006  13.138   0.672
 5032SOL    HW116935   9.045  13.051   0.674
 5032SOL    HW216936   8.938  13.131   0.605
 5033SOL     OW16937   0.304  12.353  13.332
 5033SOL    HW116938   0.222  12.395  13.358
 5033SOL    HW216939   0.277  12.273  13.287
 5034SOL     OW16940   9.949  13.718   1.659
 5034SOL    HW116941   9.984  13.767   1.584
 5034SOL    HW216942   9.981  13.765   1.736
 5035SOL     OW16943   5.662  12.548   3.473
 5035SOL    HW116944   5.571  12.554   3.445
 5035SOL    HW216945   5.698  12.635   3.456
 5036SOL     OW16946   9.616  12.211  14.758
 5036SOL    HW116947   9.617  12.273  14.685
 5036SOL    HW216948   9.660  12.257  14.829
 5037SOL     OW16949   4.230   7.386   6.830
 5037SOL    HW116950   4.293   7.414   6.764
 5037SOL    HW216951   4.196   7.303   6.797
 5038SOL     OW16952   1.505   1.366   4.694
 5038SOL    HW116953   1.568   1.401   4.757
 5038SOL    HW216954   1.507   1.272   4.708
 5039SOL     OW16955  13.948  13.833   1.293
 5039SOL    HW116956  13.938  13.792   1.207
 5039SOL    HW216957  13.862  13.867   1.314
 5040SOL     OW16958   9.585  13.027   4.362
 5040SOL    HW116959   9.654  12.981   4.314
 5040SOL    HW216960   9.580  12.982   4.447
 5041SOL     OW16961   9.627   7.342  14.871
 5041SOL    HW116962   9.663   7.360  14.784
 5041SOL    HW216963   9.673   7.403   0.046
 5042SOL     OW16964  11.903  12.704   0.656
 5042SOL    HW116965  11.822  12.686   0.703
 5042SOL    HW216966  11.909  12.634   0.591
 5043SOL     OW16967   4.949  11.263   3.856
 5043SOL    HW116968   4.976  11.340   3.906
 5043SOL    HW216969   5.021  11.200   3.868
 5044SOL     OW16970  12.252  11.026   7.781
 5044SOL    HW116971  12.309  11.095   7.751
 5044SOL    HW216972  12.242  10.968   7.706
 5045SOL     OW16973  14.301   3.423   6.979
 5045SOL    HW116974  14.337   3.429   7.067
 5045SOL    HW216975  14.359   3.477   6.925
 5046SOL     OW16976  10.700   8.072   1.552
 5046SOL    HW116977  10.743   8.093   1.635
 5046SOL    HW216978  10.606   8.076   1.572
 5047SOL     OW16979   1.963   7.392  12.299
 5047SOL    HW116980   2.016   7.343  12.236
 5047SOL    HW216981   1.988   7.484  12.285
 5048SOL     OW16982   6.169  12.848   2.732
 5048SOL    HW116983   6.182  12.901   2.811
 5048SOL    HW216984   6.077  12.822   2.735
 5049SOL     OW16985  12.037   2.823   3.818
 5049SOL    HW116986  12.047   2.896   3.757
 5049SOL    HW216987  11.978   2.856   3.886
 5050SOL     OW16988   5.626   1.045   0.914
 5050SOL    HW116989   5.698   1.050   0.850
 5050SOL    HW216990   5.557   0.996   0.868
 5051SOL     OW16991   1.678   9.828   9.574
 5051SOL    HW116992   1.700   9.736   9.559
 5051SOL    HW216993   1.659   9.862   9.487
 5052SOL     OW16994  12.349  13.318   6.602
 5052SOL    HW116995  12.399  13.267   6.539
 5052SOL    HW216996  12.369  13.409   6.581
 5053SOL     OW16997  11.890   8.625  13.522
 5053SOL    HW116998  11.947   8.567  13.471
 5053SOL    HW216999  11.924   8.713  13.504
 5054SOL     OW17000   1.974   8.727   8.616
 5054SOL    HW117001   1.957   8.666   8.544
 5054SOL    HW217002   2.044   8.783   8.584
 5055SOL     OW17003  13.635   8.231   5.972
 5055SOL    HW117004  13.592   8.237   5.887
 5055SOL    HW217005  13.676   8.145   5.972
 5056SOL     OW17006  12.072   8.456  11.740
 5056SOL    HW117007  12.076   8.544  11.777
 5056SOL    HW217008  12.164   8.430  11.731
 5057SOL     OW17009   3.340  10.751   4.327
 5057SOL    HW117010   3.407  10.818   4.313
 5057SOL    HW217011   3.289  10.783   4.401
 5058SOL     OW17012   4.386  13.216   3.704
 5058SOL    HW117013   4.479  13.223   3.727
 5058SOL    HW217014   4.347  13.173   3.781
 5059SOL     OW17015   5.792   1.115   5.878
 5059SOL    HW117016   5.803   1.200   5.921
 5059SOL    HW217017   5.875   1.070   5.891
 5060SOL     OW17018   0.207  11.021   7.576
 5060SOL    HW117019   0.171  11.003   7.489
 5060SOL    HW217020   0.226  11.115   7.575
 5061SOL     OW17021  11.447   5.543   8.799
 5061SOL    HW117022  11.381   5.474   8.799
 5061SOL    HW217023  11.426   5.596   8.876
 5062SOL     OW17024   8.783   9.533   7.984
 5062SOL    HW117025   8.704   9.571   8.023
 5062SOL    HW217026   8.769   9.439   7.990
 5063SOL     OW17027   5.239   4.206   6.496
 5063SOL    HW117028   5.313   4.179   6.550
 5063SOL    HW217029   5.232   4.300   6.510
 5064SOL     OW17030  12.083   1.018   0.167
 5064SOL    HW117031  12.166   1.063   0.151
 5064SOL    HW217032  12.089   0.938   0.114
 5065SOL     OW17033   3.240  10.516  10.606
 5065SOL    HW117034   3.211  10.605  10.587
 5065SOL    HW217035   3.206  10.498  10.694
 5066SOL     OW17036   5.873   4.984  10.128
 5066SOL    HW117037   5.911   4.898  10.147
 5066SOL    HW217038   5.786   4.965  10.094
 5067SOL     OW17039   3.183  11.320  12.325
 5067SOL    HW117040   3.226  11.241  12.359
 5067SOL    HW217041   3.206  11.321  12.232
 5068SOL     OW17042   6.457   1.888   9.954
 5068SOL    HW117043   6.449   1.803   9.998
 5068SOL    HW217044   6.368   1.920   9.947
 5069SOL     OW17045  11.163  13.018  14.185
 5069SOL    HW117046  11.134  13.085  14.247
 5069SOL    HW217047  11.236  12.974  14.230
 5070SOL     OW17048  14.080   7.162  13.063
 5070SOL    HW117049  13.992   7.198  13.075
 5070SOL    HW217050  14.084   7.089  13.125
 5071SOL     OW17051   9.351   4.561   5.436
 5071SOL    HW117052   9.351   4.590   5.345
 5071SOL    HW217053   9.400   4.628   5.483
 5072SOL     OW17054   3.431  10.091   4.591
 5072SOL    HW117055   3.464  10.179   4.576
 5072SOL    HW217056   3.339  10.103   4.615
 5073SOL     OW17057   0.234   6.120   7.061
 5073SOL    HW117058   0.181   6.071   6.998
 5073SOL    HW217059   0.232   6.210   7.029
 5074SOL     OW17060  14.113   5.576  13.031
 5074SOL    HW117061  14.093   5.584  13.124
 5074SOL    HW217062  14.159   5.492  13.024
 5075SOL     OW17063   0.581   0.618   7.171
 5075SOL    HW117064   0.540   0.614   7.258
 5075SOL    HW217065   0.522   0.673   7.119
 5076SOL     OW17066   7.754   4.394  10.419
 5076SOL    HW117067   7.751   4.394  10.514
 5076SOL    HW217068   7.713   4.476  10.393
 5077SOL     OW17069   3.296   1.071   6.812
 5077SOL    HW117070   3.217   1.120   6.789
 5077SOL    HW217071   3.306   1.008   6.741
 5078SOL     OW17072  14.401   0.723   6.176
 5078SOL    HW117073  14.453   0.672   6.238
 5078SOL    HW217074  14.439   0.701   6.090
 5079SOL     OW17075   2.304   3.159   9.535
 5079SOL    HW117076   2.239   3.219   9.501
 5079SOL    HW217077   2.354   3.210   9.598
 5080SOL     OW17078  11.022   6.300   4.972
 5080SOL    HW117079  11.081   6.344   5.034
 5080SOL    HW217080  11.035   6.207   4.989
 5081SOL     OW17081   4.755   2.523   1.938
 5081SOL    HW117082   4.839   2.537   1.983
 5081SOL    HW217083   4.780   2.507   1.847
 5082SOL     OW17084  11.186  12.624   2.753
 5082SOL    HW117085  11.206  12.557   2.818
 5082SOL    HW217086  11.142  12.577   2.682
 5083SOL     OW17087  10.342   2.263   4.803
 5083SOL    HW117088  10.388   2.310   4.872
 5083SOL    HW217089  10.390   2.181   4.792
 5084SOL     OW17090   9.364  10.857   2.026
 5084SOL    HW117091   9.414  10.939   2.036
 5084SOL    HW217092   9.369  10.838   1.932
 5085SOL     OW17093   4.096  13.748  14.603
 5085SOL    HW117094   4.010  13.711  14.587
 5085SOL    HW217095   4.157  13.684  14.565
 5086SOL     OW17096   3.816   1.674  11.987
 5086SOL    HW117097   3.820   1.668  11.892
 5086SOL    HW217098   3.855   1.759  12.007
 5087SOL     OW17099  13.882   9.900  14.064
 5087SOL    HW117100  13.962   9.951  14.073
 5087SOL    HW217101  13.811   9.964  14.070
 5088SOL     OW17102   3.391   6.273   1.434
 5088SOL    HW117103   3.341   6.253   1.354
 5088SOL    HW217104   3.324   6.292   1.500
 5089SOL     OW17105   5.778   6.418  10.659
 5089SOL    HW117106   5.851   6.474  10.685
 5089SOL    HW217107   5.714   6.427  10.729
 5090SOL     OW17108  13.304  10.714   2.164
 5090SOL    HW117109  13.330  10.664   2.241
 5090SOL    HW217110  13.212  10.736   2.179
 5091SOL     OW17111   2.475   6.765   9.442
 5091SOL    HW117112   2.561   6.768   9.401
 5091SOL    HW217113   2.492   6.744   9.534
 5092SOL     OW17114   6.776   0.284   4.793
 5092SOL    HW117115   6.720   0.254   4.722
 5092SOL    HW217116   6.846   0.219   4.798
 5093SOL     OW17117   7.571   0.109   4.765
 5093SOL    HW117118   7.560   0.203   4.751
 5093SOL    HW217119   7.648   0.085   4.714
 5094SOL     OW17120  10.582   4.117  13.326
 5094SOL    HW117121  10.569   4.023  13.313
 5094SOL    HW217122  10.574   4.129  13.421
 5095SOL     OW17123   4.799   7.239  13.159
 5095SOL    HW117124   4.759   7.302  13.099
 5095SOL    HW217125   4.748   7.159  13.147
 5096SOL     OW17126   2.018  10.293   6.970
 5096SOL    HW117127   2.101  10.290   7.017
 5096SOL    HW217128   1.972  10.214   6.999
 5097SOL     OW17129   4.389   2.187   0.589
 5097SOL    HW117130   4.466   2.215   0.639
 5097SOL    HW217131   4.414   2.102   0.553
 5098SOL     OW17132  12.481  11.686   7.349
 5098SOL    HW117133  12.504  11.715   7.438
 5098SOL    HW217134  12.539  11.612   7.332
 5099SOL     OW17135   1.384   9.898  10.682
 5099SOL    HW117136   1.478   9.890  10.703
 5099SOL    HW217137   1.362   9.988  10.707
 5100SOL     OW17138   4.222   2.764   1.410
 5100SOL    HW117139   4.178   2.847   1.392
 5100SOL    HW217140   4.226   2.720   1.325
 5101SOL     OW17141   5.603   9.395   2.524
 5101SOL    HW117142   5.619   9.393   2.618
 5101SOL    HW217143   5.572   9.484   2.506
 5102SOL     OW17144   9.967   0.066   6.143
 5102SOL    HW117145  10.044   0.109   6.181
 5102SOL    HW217146   9.994   0.039   6.056
 5103SOL     OW17147   8.537   3.528   9.954
 5103SOL    HW117148   8.506   3.605  10.001
 5103SOL    HW217149   8.460   3.493   9.910
 5104SOL     OW17150   9.725   0.818  14.029
 5104SOL    HW117151   9.774   0.789  14.107
 5104SOL    HW217152   9.633   0.818  14.057
 5105SOL     OW17153  14.274   0.688  13.199
 5105SOL    HW117154  14.337   0.630  13.243
 5105SOL    HW217155  14.243   0.637  13.124
 5106SOL     OW17156  13.582   2.435   1.925
 5106SOL    HW117157  13.507   2.398   1.971
 5106SOL    HW217158  13.604   2.514   1.975
 5107SOL     OW17159  10.032   5.628   5.447
 5107SOL    HW117160   9.948   5.665   5.422
 5107SOL    HW217161  10.090   5.650   5.374
 5108SOL     OW17162   8.589  13.544   2.219
 5108SOL    HW117163   8.545  13.629   2.211
 5108SOL    HW217164   8.519  13.483   2.241
 5109SOL     OW17165   8.377   4.372   6.598
 5109SOL    HW117166   8.380   4.355   6.504
 5109SOL    HW217167   8.384   4.467   6.606
 5110SOL     OW17168  12.854   2.133   3.539
 5110SOL    HW117169  12.933   2.090   3.506
 5110SOL    HW217170  12.882   2.221   3.562
 5111SOL     OW17171  13.785   5.556   4.636
 5111SOL    HW117172  13.837   5.574   4.714
 5111SOL    HW217173  13.697   5.587   4.658
 5112SOL     OW17174   0.292   1.336   1.012
 5112SOL    HW117175   0.223   1.332   1.078
 5112SOL    HW217176   0.289   1.425   0.979
 5113SOL     OW17177  14.257   2.434   2.213
 5113SOL    HW117178  14.177   2.393   2.247
 5113SOL    HW217179  14.268   2.398   2.125
 5114SOL     OW17180   3.630   8.287  13.779
 5114SOL    HW117181   3.639   8.345  13.703
 5114SOL    HW217182   3.690   8.323  13.844
 5115SOL     OW17183   0.805   1.371  12.560
 5115SOL    HW117184   0.827   1.299  12.619
 5115SOL    HW217185   0.717   1.398  12.585
 5116SOL     OW17186  13.447   0.212   7.760
 5116SOL    HW117187  13.499   0.266   7.819
 5116SOL    HW217188  13.465   0.248   7.672
 5117SOL     OW17189   7.039   2.769   8.773
 5117SOL    HW117190   7.039   2.706   8.701
 5117SOL    HW217191   7.117   2.822   8.759
 5118SOL     OW17192  12.227   3.821   0.720
 5118SOL    HW117193  12.305   3.783   0.681
 5118SOL    HW217194  12.154   3.774   0.681
 5119SOL     OW17195   7.969   9.983   3.501
 5119SOL    HW117196   7.912   9.938   3.563
 5119SOL    HW217197   7.910  10.030   3.442
 5120SOL     OW17198   4.425   3.481   8.438
 5120SOL    HW117199   4.392   3.504   8.525
 5120SOL    HW217200   4.494   3.416   8.454
 5121SOL     OW17201   1.322   3.127   3.477
 5121SOL    HW117202   1.338   3.214   3.442
 5121SOL    HW217203   1.368   3.068   3.416
 5122SOL     OW17204   7.000   3.439   2.771
 5122SOL    HW117205   6.969   3.364   2.721
 5122SOL    HW217206   7.095   3.427   2.777
 5123SOL     OW17207   0.684   2.067  14.417
 5123SOL    HW117208   0.625   2.072  14.342
 5123SOL    HW217209   0.701   1.973  14.427
 5124SOL     OW17210   4.855  13.356   7.445
 5124SOL    HW117211   4.915  13.421   7.481
 5124SOL    HW217212   4.912  13.290   7.405
 5125SOL     OW17213   0.964   0.941   3.304
 5125SOL    HW117214   0.892   1.004   3.307
 5125SOL    HW217215   0.972   0.909   3.394
 5126SOL     OW17216  14.866  14.617   1.646
 5126SOL    HW117217   0.002  14.691   1.588
 5126SOL    HW217218  14.862  14.656   1.734
 5127SOL     OW17219   9.709   9.140  11.208
 5127SOL    HW117220   9.704   9.225  11.251
 5127SOL    HW217221   9.786   9.146  11.151
 5128SOL     OW17222   7.854   1.778   7.049
 5128SOL    HW117223   7.792   1.709   7.073
 5128SOL    HW217224   7.938   1.732   7.041
 5129SOL     OW17225   7.895  11.576   6.431
 5129SOL    HW117226   7.975  11.529   6.410
 5129SOL    HW217227   7.872  11.547   6.519
 5130SOL     OW17228   5.239  13.263   6.927
 5130SOL    HW117229   5.196  13.309   6.999
 5130SOL    HW217230   5.170  13.208   6.890
 5131SOL     OW17231   2.986  11.578   6.324
 5131SOL    HW117232   2.914  11.620   6.370
 5131SOL    HW217233   3.059  11.580   6.387
 5132SOL     OW17234   7.647  10.223  10.541
 5132SOL    HW117235   7.718  10.173  10.502
 5132SOL    HW217236   7.650  10.201  10.634
 5133SOL     OW17237  12.700   1.161   1.138
 5133SOL    HW117238  12.614   1.168   1.096
 5133SOL    HW217239  12.682   1.123   1.224
 5134SOL     OW17240   9.136   0.958   2.445
 5134SOL    HW117241   9.225   0.979   2.475
 5134SOL    HW217242   9.079   1.011   2.500
 5135SOL     OW17243   5.304   9.608   5.630
 5135SOL    HW117244   5.258   9.683   5.668
 5135SOL    HW217245   5.243   9.536   5.638
 5136SOL     OW17246   3.381  11.127  10.968
 5136SOL    HW117247   3.425  11.044  10.951
 5136SOL    HW217248   3.414  11.187  10.900
 5137SOL     OW17249   1.479   6.876   8.974
 5137SOL    HW117250   1.417   6.827   8.921
 5137SOL    HW217251   1.439   6.880   9.061
 5138SOL     OW17252   2.472   5.761   0.368
 5138SOL    HW117253   2.468   5.677   0.413
 5138SOL    HW217254   2.478   5.826   0.438
 5139SOL     OW17255   7.493  10.172  14.042
 5139SOL    HW117256   7.461  10.239  14.102
 5139SOL    HW217257   7.413  10.126  14.013
 5140SOL     OW17258  10.471  11.739   3.008
 5140SOL    HW117259  10.545  11.679   2.997
 5140SOL    HW217260  10.466  11.786   2.925
 5141SOL     OW17261  14.832  10.741  10.378
 5141SOL    HW117262  14.789  10.763  10.460
 5141SOL    HW217263  14.864  10.825  10.345
 5142SOL     OW17264  12.001   9.534   3.534
 5142SOL    HW117265  11.942   9.462   3.514
 5142SOL    HW217266  12.054   9.502   3.608
 5143SOL     OW17267   6.615   1.419   2.807
 5143SOL    HW117268   6.643   1.479   2.738
 5143SOL    HW217269   6.592   1.475   2.881
 5144SOL     OW17270  12.185  12.692  11.485
 5144SOL    HW117271  12.231  12.683  11.568
 5144SOL    HW217272  12.254  12.707  11.421
 5145SOL     OW17273   9.779   4.765  13.719
 5145SOL    HW117274   9.781   4.861  13.720
 5145SOL    HW217275   9.871   4.739  13.731
 5146SOL     OW17276   6.285  11.066   0.859
 5146SOL    HW117277   6.354  11.038   0.800
 5146SOL    HW217278   6.329  11.079   0.943
 5147SOL     OW17279   4.733   6.213  14.581
 5147SOL    HW117280   4.706   6.143  14.521
 5147SOL    HW217281   4.828   6.204  14.586
 5148SOL     OW17282  14.831   1.615  14.831
 5148SOL    HW117283  14.812   1.702  14.864
 5148SOL    HW217284  14.824   1.558   0.026
 5149SOL     OW17285   1.011   5.616   6.364
 5149SOL    HW117286   0.947   5.616   6.435
 5149SOL    HW217287   1.095   5.623   6.408
 5150SOL     OW17288   7.700   1.337   7.787
 5150SOL    HW117289   7.762   1.305   7.722
 5150SOL    HW217290   7.720   1.429   7.797
 5151SOL     OW17291  14.836   4.700  10.947
 5151SOL    HW117292  14.808   4.678  10.858
 5151SOL    HW217293  14.790   4.782  10.966
 5152SOL     OW17294   6.315  11.807  10.330
 5152SOL    HW117295   6.233  11.856  10.338
 5152SOL    HW217296   6.358  11.819  10.415
 5153SOL     OW17297   8.939  12.219   8.982
 5153SOL    HW117298   8.928  12.185   8.893
 5153SOL    HW217299   8.903  12.308   8.978
 5154SOL     OW17300  14.620   5.439   3.618
 5154SOL    HW117301  14.711   5.426   3.644
 5154SOL    HW217302  14.612   5.534   3.605
 5155SOL     OW17303  14.530  10.912  12.297
 5155SOL    HW117304  14.583  10.871  12.228
 5155SOL    HW217305  14.445  10.867  12.292
 5156SOL     OW17306   9.430   2.768   5.719
 5156SOL    HW117307   9.460   2.849   5.761
 5156SOL    HW217308   9.369   2.797   5.652
 5157SOL     OW17309   3.618   2.521  10.837
 5157SOL    HW117310   3.592   2.429  10.849
 5157SOL    HW217311   3.656   2.523  10.749
 5158SOL     OW17312   4.776   5.610   7.417
 5158SOL    HW117313   4.789   5.536   7.357
 5158SOL    HW217314   4.837   5.593   7.489
 5159SOL     OW17315  14.405   8.750  12.773
 5159SOL    HW117316  14.500   8.756  12.761
 5159SOL    HW217317  14.390   8.782  12.862
 5160SOL     OW17318  12.907   8.667  13.037
 5160SOL    HW117319  12.966   8.612  13.089
 5160SOL    HW217320  12.896   8.746  13.089
 5161SOL     OW17321   6.047  12.030  13.694
 5161SOL    HW117322   6.042  12.075  13.610
 5161SOL    HW217323   6.129  12.060  13.733
 5162SOL     OW17324   6.165   5.528   0.962
 5162SOL    HW117325   6.121   5.464   1.018
 5162SOL    HW217326   6.197   5.596   1.021
 5163SOL     OW17327   7.321  13.702  12.045
 5163SOL    HW117328   7.228  13.681  12.039
 5163SOL    HW217329   7.325  13.774  12.109
 5164SOL     OW17330  13.108   7.487  13.722
 5164SOL    HW117331  13.043   7.430  13.682
 5164SOL    HW217332  13.168   7.509  13.650
 5165SOL     OW17333   2.270   3.019   0.185
 5165SOL    HW117334   2.352   2.976   0.209
 5165SOL    HW217335   2.209   2.947   0.169
 5166SOL     OW17336  14.158   2.957   6.640
 5166SOL    HW117337  14.115   2.923   6.562
 5166SOL    HW217338  14.151   2.886   6.704
 5167SOL     OW17339  12.146   0.958  13.253
 5167SOL    HW117340  12.151   0.974  13.159
 5167SOL    HW217341  12.055   0.932  13.268
 5168SOL     OW17342   5.071   2.315  13.875
 5168SOL    HW117343   4.981   2.303  13.844
 5168SOL    HW217344   5.105   2.226  13.886
 5169SOL     OW17345   7.953   3.483   8.954
 5169SOL    HW117346   7.926   3.526   9.036
 5169SOL    HW217347   7.990   3.399   8.983
 5170SOL     OW17348  12.380   0.516   9.836
 5170SOL    HW117349  12.387   0.421   9.849
 5170SOL    HW217350  12.293   0.529   9.799
 5171SOL     OW17351   9.817   3.851   4.446
 5171SOL    HW117352   9.828   3.910   4.520
 5171SOL    HW217353   9.850   3.900   4.371
 5172SOL     OW17354  12.642   3.629   5.805
 5172SOL    HW117355  12.572   3.689   5.830
 5172SOL    HW217356  12.649   3.638   5.710
 5173SOL     OW17357   7.267  12.426  11.350
 5173SOL    HW117358   7.343  12.410  11.407
 5173SOL    HW217359   7.219  12.343  11.352
 5174SOL     OW17360   3.593  11.771   9.157
 5174SOL    HW117361   3.545  11.832   9.101
 5174SOL    HW217362   3.557  11.685   9.135
 5175SOL     OW17363   4.461   4.805  10.343
 5175SOL    HW117364   4.425   4.723  10.377
 5175SOL    HW217365   4.490   4.852  10.420
 5176SOL     OW17366   1.316   3.257   2.441
 5176SOL    HW117367   1.285   3.262   2.350
 5176SOL    HW217368   1.407   3.230   2.434
 5177SOL     OW17369  14.645   9.135  10.789
 5177SOL    HW117370  14.598   9.081  10.725
 5177SOL    HW217371  14.737   9.125  10.765
 5178SOL     OW17372  10.497  11.125  12.662
 5178SOL    HW117373  10.531  11.136  12.574
 5178SOL    HW217374  10.402  11.132  12.653
 5179SOL     OW17375  14.606  11.733   2.925
 5179SOL    HW117376  14.657  11.742   3.005
 5179SOL    HW217377  14.519  11.706   2.954
 5180SOL     OW17378   7.410   1.814   2.800
 5180SOL    HW117379   7.402   1.811   2.705
 5180SOL    HW217380   7.500   1.843   2.815
 5181SOL     OW17381   2.587   9.050  14.799
 5181SOL    HW117382   2.522   8.997  14.845
 5181SOL    HW217383   2.656   9.064  14.864
 5182SOL     OW17384  14.759   2.074  11.272
 5182SOL    HW117385  14.708   2.152  11.293
 5182SOL    HW217386  14.849   2.106  11.261
 5183SOL     OW17387   2.347  13.029  12.845
 5183SOL    HW117388   2.339  13.095  12.776
 5183SOL    HW217389   2.322  13.075  12.925
 5184SOL     OW17390   2.795   4.443   3.659
 5184SOL    HW117391   2.871   4.429   3.603
 5184SOL    HW217392   2.721   4.410   3.608
 5185SOL     OW17393   6.722   2.273   5.878
 5185SOL    HW117394   6.639   2.249   5.919
 5185SOL    HW217395   6.698   2.303   5.790
 5186SOL     OW17396   6.500   8.978   8.169
 5186SOL    HW117397   6.461   8.930   8.096
 5186SOL    HW217398   6.508   8.914   8.239
 5187SOL     OW17399  12.616   7.146   2.684
 5187SOL    HW117400  12.572   7.231   2.682
 5187SOL    HW217401  12.632   7.129   2.777
 5188SOL     OW17402  13.554   9.504   3.648
 5188SOL    HW117403  13.466   9.528   3.616
 5188SOL    HW217404  13.581   9.432   3.591
 5189SOL     OW17405   2.984   2.264  10.877
 5189SOL    HW117406   2.960   2.190  10.822
 5189SOL    HW217407   2.907   2.321  10.877
 5190SOL     OW17408   2.163   2.310  12.385
 5190SOL    HW117409   2.143   2.277  12.297
 5190SOL    HW217410   2.229   2.378  12.372
 5191SOL     OW17411   3.038   4.418  10.231
 5191SOL    HW117412   2.976   4.397  10.161
 5191SOL    HW217413   2.999   4.380  10.310
 5192SOL     OW17414   6.273  13.936   5.656
 5192SOL    HW117415   6.228  13.946   5.572
 5192SOL    HW217416   6.351  13.991   5.649
 5193SOL     OW17417  14.104   7.878  11.677
 5193SOL    HW117418  14.185   7.927  11.662
 5193SOL    HW217419  14.123   7.789  11.647
 5194SOL     OW17420   2.376  12.699  13.522
 5194SOL    HW117421   2.392  12.786  13.559
 5194SOL    HW217422   2.435  12.641  13.571
 5195SOL     OW17423  10.180  10.493  13.709
 5195SOL    HW117424  10.253  10.467  13.766
 5195SOL    HW217425  10.212  10.477  13.620
 5196SOL     OW17426   9.450   2.035   5.125
 5196SOL    HW117427   9.390   2.004   5.194
 5196SOL    HW217428   9.401   2.023   5.044
 5197SOL     OW17429   9.375  10.897  12.090
 5197SOL    HW117430   9.333  10.818  12.056
 5197SOL    HW217431   9.312  10.933  12.152
 5198SOL     OW17432  13.615   9.231   1.681
 5198SOL    HW117433  13.579   9.193   1.601
 5198SOL    HW217434  13.635   9.321   1.658
 5199SOL     OW17435   7.015   9.063   6.272
 5199SOL    HW117436   7.069   8.990   6.242
 5199SOL    HW217437   6.927   9.028   6.277
 5200SOL     OW17438   7.522  10.686   4.971
 5200SOL    HW117439   7.487  10.764   4.929
 5200SOL    HW217440   7.465  10.615   4.940
 5201SOL     OW17441   5.694   5.700   6.046
 5201SOL    HW117442   5.787   5.696   6.068
 5201SOL    HW217443   5.668   5.609   6.034
 5202SOL     OW17444  10.133   1.399   1.259
 5202SOL    HW117445  10.190   1.322   1.257
 5202SOL    HW217446  10.084   1.395   1.176
 5203SOL     OW17447   9.745   4.584  13.426
 5203SOL    HW117448   9.694   4.562  13.503
 5203SOL    HW217449   9.705   4.664  13.392
 5204SOL     OW17450  11.138   1.206   7.749
 5204SOL    HW117451  11.169   1.290   7.781
 5204SOL    HW217452  11.042   1.213   7.750
 5205SOL     OW17453  14.495   8.894   8.112
 5205SOL    HW117454  14.499   8.800   8.095
 5205SOL    HW217455  14.578   8.928   8.080
 5206SOL     OW17456  13.166  13.973   8.103
 5206SOL    HW117457  13.224  13.971   8.179
 5206SOL    HW217458  13.112  13.894   8.113
 5207SOL     OW17459   4.475   4.667   5.320
 5207SOL    HW117460   4.481   4.589   5.374
 5207SOL    HW217461   4.441   4.636   5.236
 5208SOL     OW17462   4.113  13.023   0.709
 5208SOL    HW117463   4.125  12.962   0.782
 5208SOL    HW217464   4.170  12.991   0.640
 5209SOL     OW17465   7.784  12.335  11.894
 5209SOL    HW117466   7.801  12.338  11.988
 5209SOL    HW217467   7.865  12.302  11.855
 5210SOL     OW17468   9.654   6.330   6.952
 5210SOL    HW117469   9.639   6.273   7.028
 5210SOL    HW217470   9.640   6.419   6.986
 5211SOL     OW17471   3.837  13.322   1.761
 5211SOL    HW117472   3.849  13.414   1.737
 5211SOL    HW217473   3.871  13.273   1.686
 5212SOL     OW17474   1.066   3.896   1.451
 5212SOL    HW117475   1.104   3.983   1.466
 5212SOL    HW217476   1.050   3.862   1.539
 5213SOL     OW17477  12.772   1.853   1.879
 5213SOL    HW117478  12.777   1.839   1.974
 5213SOL    HW217479  12.851   1.810   1.845
 5214SOL     OW17480   9.969   7.389  12.326
 5214SOL    HW117481   9.896   7.388  12.264
 5214SOL    HW217482   9.968   7.477  12.363
 5215SOL     OW17483  11.811   2.593  10.200
 5215SOL    HW117484  11.790   2.601  10.292
 5215SOL    HW217485  11.739   2.543  10.162
 5216SOL     OW17486   3.317   4.306   9.247
 5216SOL    HW117487   3.273   4.313   9.162
 5216SOL    HW217488   3.266   4.363   9.305
 5217SOL     OW17489   1.336   5.863   3.407
 5217SOL    HW117490   1.336   5.957   3.427
 5217SOL    HW217491   1.244   5.842   3.393
 5218SOL     OW17492   4.898  14.208   1.689
 5218SOL    HW117493   4.901  14.133   1.749
 5218SOL    HW217494   4.943  14.177   1.610
 5219SOL     OW17495  14.190   4.596   9.054
 5219SOL    HW117496  14.245   4.666   9.088
 5219SOL    HW217497  14.248   4.520   9.049
 5220SOL     OW17498   5.308   3.865   6.245
 5220SOL    HW117499   5.279   3.776   6.225
 5220SOL    HW217500   5.227   3.917   6.247
 5221SOL     OW17501   6.302   8.407   6.408
 5221SOL    HW117502   6.306   8.345   6.336
 5221SOL    HW217503   6.228   8.378   6.461
 5222SOL     OW17504  11.681   5.872  12.021
 5222SOL    HW117505  11.644   5.802  11.966
 5222SOL    HW217506  11.605   5.910  12.065
 5223SOL     OW17507   6.437   4.850   1.991
 5223SOL    HW117508   6.358   4.798   2.004
 5223SOL    HW217509   6.506   4.800   2.034
 5224SOL     OW17510  14.362   4.660   4.384
 5224SOL    HW117511  14.313   4.658   4.466
 5224SOL    HW217512  14.298   4.635   4.318
 5225SOL     OW17513  13.167   3.056  10.920
 5225SOL    HW117514  13.150   3.068  10.827
 5225SOL    HW217515  13.144   3.139  10.960
 5226SOL     OW17516   3.155   5.414   0.161
 5226SOL    HW117517   3.106   5.497   0.167
 5226SOL    HW217518   3.123   5.373   0.081
 5227SOL     OW17519  11.290  11.261  11.504
 5227SOL    HW117520  11.334  11.188  11.547
 5227SOL    HW217521  11.246  11.222  11.429
 5228SOL     OW17522   7.586   5.688   1.250
 5228SOL    HW117523   7.629   5.729   1.175
 5228SOL    HW217524   7.637   5.609   1.267
 5229SOL     OW17525  13.106  14.392  10.595
 5229SOL    HW117526  13.188  14.437  10.576
 5229SOL    HW217527  13.108  14.379  10.690
 5230SOL     OW17528   4.657  12.121   2.450
 5230SOL    HW117529   4.650  12.206   2.495
 5230SOL    HW217530   4.742  12.086   2.477
 5231SOL     OW17531   6.310   6.537  13.874
 5231SOL    HW117532   6.351   6.537  13.960
 5231SOL    HW217533   6.349   6.462  13.828
 5232SOL     OW17534  11.768   3.818  12.599
 5232SOL    HW117535  11.815   3.763  12.537
 5232SOL    HW217536  11.807   3.798  12.684
 5233SOL     OW17537   6.643   7.447   8.028
 5233SOL    HW117538   6.719   7.421   7.976
 5233SOL    HW217539   6.674   7.521   8.080
 5234SOL     OW17540  13.656   0.378  14.330
 5234SOL    HW117541  13.750   0.396  14.318
 5234SOL    HW217542  13.614   0.463  14.323
 5235SOL     OW17543   3.434  12.546  10.987
 5235SOL    HW117544   3.488  12.589  10.922
 5235SOL    HW217545   3.494  12.528  11.060
 5236SOL     OW17546   3.683   3.406   3.539
 5236SOL    HW117547   3.634   3.382   3.461
 5236SOL    HW217548   3.682   3.328   3.594
 5237SOL     OW17549   6.498   3.960   7.298
 5237SOL    HW117550   6.576   3.939   7.348
 5237SOL    HW217551   6.470   4.045   7.332
 5238SOL     OW17552   5.608   4.084   5.627
 5238SOL    HW117553   5.564   4.064   5.544
 5238SOL    HW217554   5.545   4.137   5.676
 5239SOL     OW17555   8.721   6.211  12.744
 5239SOL    HW117556   8.710   6.304  12.765
 5239SOL    HW217557   8.812   6.204  12.715
 5240SOL     OW17558   3.023   6.198   0.856
 5240SOL    HW117559   2.961   6.238   0.796
 5240SOL    HW217560   2.977   6.123   0.893
 5241SOL     OW17561   3.857  10.321   7.691
 5241SOL    HW117562   3.789  10.309   7.624
 5241SOL    HW217563   3.939  10.304   7.645
 5242SOL     OW17564  11.912   3.156  14.264
 5242SOL    HW117565  11.934   3.230  14.321
 5242SOL    HW217566  11.991   3.102  14.263
 5243SOL     OW17567   7.394   9.448   8.120
 5243SOL    HW117568   7.464   9.477   8.178
 5243SOL    HW217569   7.434   9.380   8.066
 5244SOL     OW17570   1.798  11.955  10.902
 5244SOL    HW117571   1.821  11.980  10.812
 5244SOL    HW217572   1.882  11.941  10.945
 5245SOL     OW17573  13.326   1.387  12.750
 5245SOL    HW117574  13.398   1.447  12.769
 5245SOL    HW217575  13.350   1.347  12.666
 5246SOL     OW17576  10.340   7.519  11.498
 5246SOL    HW117577  10.414   7.496  11.441
 5246SOL    HW217578  10.312   7.435  11.534
 5247SOL     OW17579   0.871   3.971  12.144
 5247SOL    HW117580   0.925   3.893  12.154
 5247SOL    HW217581   0.933   4.044  12.146
 5248SOL     OW17582   3.088   4.654   7.083
 5248SOL    HW117583   3.057   4.712   7.012
 5248SOL    HW217584   3.099   4.712   7.158
 5249SOL     OW17585  13.118  13.195   9.822
 5249SOL    HW117586  13.171  13.218   9.746
 5249SOL    HW217587  13.059  13.269   9.834
 5250SOL     OW17588  10.718   5.506   7.723
 5250SOL    HW117589  10.776   5.583   7.725
 5250SOL    HW217590  10.768   5.438   7.768
 5251SOL     OW17591   3.764   9.569   4.714
 5251SOL    HW117592   3.727   9.646   4.758
 5251SOL    HW217593   3.688   9.520   4.682
 5252SOL     OW17594  11.299   9.531  10.665
 5252SOL    HW117595  11.281   9.625  10.661
 5252SOL    HW217596  11.215   9.491  10.691
 5253SOL     OW17597  11.932   1.289   2.651
 5253SOL    HW117598  11.867   1.226   2.622
 5253SOL    HW217599  11.959   1.335   2.571
 5254SOL     OW17600  14.365   6.994   2.930
 5254SOL    HW117601  14.301   6.926   2.908
 5254SOL    HW217602  14.365   6.996   3.025
 5255SOL     OW17603  14.126  12.982  10.478
 5255SOL    HW117604  14.169  12.927  10.543
 5255SOL    HW217605  14.171  13.066  10.484
 5256SOL     OW17606   6.901   0.756   1.286
 5256SOL    HW117607   6.936   0.692   1.348
 5256SOL    HW217608   6.904   0.839   1.332
 5257SOL     OW17609   0.541   4.154   8.338
 5257SOL    HW117610   0.554   4.197   8.423
 5257SOL    HW217611   0.449   4.126   8.339
 5258SOL     OW17612   6.206  14.551   9.977
 5258SOL    HW117613   6.269  14.621   9.959
 5258SOL    HW217614   6.194  14.553  10.071
 5259SOL     OW17615   3.952   4.056  12.172
 5259SOL    HW117616   4.044   4.059  12.199
 5259SOL    HW217617   3.949   3.987  12.105
 5260SOL     OW17618   2.832  11.896   6.535
 5260SOL    HW117619   2.873  11.982   6.539
 5260SOL    HW217620   2.788  11.894   6.450
 5261SOL     OW17621   0.859   2.075  11.083
 5261SOL    HW117622   0.782   2.058  11.029
 5261SOL    HW217623   0.932   2.072  11.022
 5262SOL     OW17624  11.609   9.379   8.262
 5262SOL    HW117625  11.633   9.298   8.216
 5262SOL    HW217626  11.550   9.424   8.202
 5263SOL     OW17627  13.034  13.796  12.153
 5263SOL    HW117628  13.069  13.709  12.172
 5263SOL    HW217629  13.008  13.830  12.239
 5264SOL     OW17630  12.319  14.312  11.197
 5264SOL    HW117631  12.326  14.407  11.207
 5264SOL    HW217632  12.309  14.279  11.286
 5265SOL     OW17633   8.568   3.192   5.207
 5265SOL    HW117634   8.547   3.099   5.214
 5265SOL    HW217635   8.578   3.207   5.113
 5266SOL     OW17636  13.055  10.409   3.913
 5266SOL    HW117637  13.030  10.498   3.887
 5266SOL    HW217638  13.102  10.420   3.995
 5267SOL     OW17639   7.238  14.439   4.920
 5267SOL    HW117640   7.300  14.436   4.992
 5267SOL    HW217641   7.292  14.437   4.841
 5268SOL     OW17642  11.444  13.262   7.545
 5268SOL    HW117643  11.509  13.298   7.484
 5268SOL    HW217644  11.361  13.299   7.515
 5269SOL     OW17645  12.121   4.048   8.824
 5269SOL    HW117646  12.187   4.067   8.890
 5269SOL    HW217647  12.121   4.126   8.768
 5270SOL     OW17648   5.889   2.892   3.133
 5270SOL    HW117649   5.888   2.960   3.200
 5270SOL    HW217650   5.982   2.873   3.119
 5271SOL     OW17651   1.589   4.109  11.264
 5271SOL    HW117652   1.588   4.077  11.354
 5271SOL    HW217653   1.605   4.203  11.273
 5272SOL     OW17654   2.572  10.811   6.314
 5272SOL    HW117655   2.643  10.825   6.377
 5272SOL    HW217656   2.528  10.731   6.343
 5273SOL     OW17657   7.056   1.909  10.800
 5273SOL    HW117658   7.107   1.972  10.749
 5273SOL    HW217659   7.099   1.908  10.886
 5274SOL     OW17660   8.462  13.583   2.900
 5274SOL    HW117661   8.493  13.643   2.833
 5274SOL    HW217662   8.475  13.631   2.982
 5275SOL     OW17663   7.620  11.240  10.350
 5275SOL    HW117664   7.712  11.250  10.375
 5275SOL    HW217665   7.617  11.155  10.306
 5276SOL     OW17666   0.719  13.430   3.691
 5276SOL    HW117667   0.781  13.363   3.718
 5276SOL    HW217668   0.634  13.386   3.687
 5277SOL     OW17669   9.546  12.755   0.851
 5277SOL    HW117670   9.512  12.770   0.763
 5277SOL    HW217671   9.601  12.677   0.843
 5278SOL     OW17672   1.327  13.803   7.871
 5278SOL    HW117673   1.231  13.804   7.870
 5278SOL    HW217674   1.352  13.777   7.782
 5279SOL     OW17675   9.189   2.568  12.386
 5279SOL    HW117676   9.137   2.552  12.307
 5279SOL    HW217677   9.193   2.482  12.429
 5280SOL     OW17678   0.296  14.545   8.573
 5280SOL    HW117679   0.271  14.465   8.619
 5280SOL    HW217680   0.379  14.571   8.613
 5281SOL     OW17681   3.690   2.669   3.650
 5281SOL    HW117682   3.711   2.758   3.622
 5281SOL    HW217683   3.720   2.665   3.741
 5282SOL     OW17684  13.120   4.172  11.065
 5282SOL    HW117685  13.104   4.195  11.157
 5282SOL    HW217686  13.050   4.215  11.017
 5283SOL     OW17687   9.499  13.698   4.187
 5283SOL    HW117688   9.531  13.785   4.209
 5283SOL    HW217689   9.547  13.639   4.245
 5284SOL     OW17690  12.135   6.858   9.769
 5284SOL    HW117691  12.096   6.890   9.688
 5284SOL    HW217692  12.067   6.804   9.809
 5285SOL     OW17693   5.423   3.718  13.736
 5285SOL    HW117694   5.422   3.782  13.807
 5285SOL    HW217695   5.476   3.758  13.668
 5286SOL     OW17696   5.290  11.326   1.776
 5286SOL    HW117697   5.238  11.247   1.792
 5286SOL    HW217698   5.325  11.349   1.862
 5287SOL     OW17699  10.342  14.838   1.872
 5287SOL    HW117700  10.332  14.784   1.951
 5287SOL    HW217701  10.420  14.802   1.828
 5288SOL     OW17702   1.825  13.807   5.417
 5288SOL    HW117703   1.781  13.880   5.373
 5288SOL    HW217704   1.845  13.841   5.504
 5289SOL     OW17705   5.453   5.741   6.171
 5289SOL    HW117706   5.547   5.748   6.160
 5289SOL    HW217707   5.435   5.786   6.254
 5290SOL     OW17708   2.615  10.440  12.253
 5290SOL    HW117709   2.554  10.456  12.181
 5290SOL    HW217710   2.665  10.364  12.225
 5291SOL     OW17711   8.649  12.198  14.105
 5291SOL    HW117712   8.697  12.116  14.096
 5291SOL    HW217713   8.717  12.265  14.110
 5292SOL     OW17714   8.986   0.930   1.775
 5292SOL    HW117715   9.078   0.942   1.798
 5292SOL    HW217716   8.940   0.934   1.859
 5293SOL     OW17717   0.339  10.745   0.519
 5293SOL    HW117718   0.273  10.814   0.522
 5293SOL    HW217719   0.303  10.680   0.459
 5294SOL     OW17720   2.053   2.688  14.531
 5294SOL    HW117721   2.004   2.680  14.449
 5294SOL    HW217722   2.082   2.779  14.533
 5295SOL     OW17723   6.639   3.732   5.782
 5295SOL    HW117724   6.576   3.783   5.833
 5295SOL    HW217725   6.713   3.792   5.770
 5296SOL     OW17726   3.684   5.876  11.615
 5296SOL    HW117727   3.612   5.920  11.571
 5296SOL    HW217728   3.648   5.792  11.644
 5297SOL     OW17729  10.643   5.394   1.183
 5297SOL    HW117730  10.738   5.384   1.188
 5297SOL    HW217731  10.608   5.307   1.200
 5298SOL     OW17732  14.170   1.151  13.873
 5298SOL    HW117733  14.238   1.157  13.940
 5298SOL    HW217734  14.088   1.160  13.921
 5299SOL     OW17735  14.740   6.831  10.992
 5299SOL    HW117736  14.804   6.845  10.922
 5299SOL    HW217737  14.704   6.918  11.009
 5300SOL     OW17738   4.682   9.423  11.723
 5300SOL    HW117739   4.663   9.343  11.676
 5300SOL    HW217740   4.775   9.416  11.747
 5301SOL     OW17741   6.764  11.250  13.978
 5301SOL    HW117742   6.804  11.219  13.897
 5301SOL    HW217743   6.779  11.180  14.042
 5302SOL     OW17744   7.011   2.180   7.038
 5302SOL    HW117745   6.938   2.150   7.093
 5302SOL    HW217746   7.007   2.276   7.043
 5303SOL     OW17747   8.363  11.474  12.622
 5303SOL    HW117748   8.432  11.477  12.688
 5303SOL    HW217749   8.394  11.413  12.556
 5304SOL     OW17750  10.767  11.169   5.787
 5304SOL    HW117751  10.672  11.165   5.778
 5304SOL    HW217752  10.784  11.140   5.877
 5305SOL     OW17753  10.323  12.937   0.793
 5305SOL    HW117754  10.308  13.027   0.824
 5305SOL    HW217755  10.357  12.948   0.704
 5306SOL     OW17756   3.038   9.508   9.687
 5306SOL    HW117757   3.096   9.458   9.629
 5306SOL    HW217758   2.975   9.549   9.628
 5307SOL     OW17759  13.251   2.384   9.612
 5307SOL    HW117760  13.293   2.453   9.663
 5307SOL    HW217761  13.157   2.400   9.622
 5308SOL     OW17762   2.980   4.621  14.563
 5308SOL    HW117763   3.015   4.548  14.614
 5308SOL    HW217764   2.892   4.593  14.539
 5309SOL     OW17765   4.307  14.410  14.008
 5309SOL    HW117766   4.261  14.329  14.032
 5309SOL    HW217767   4.245  14.457  13.953
 5310SOL     OW17768   0.906  10.378  13.265
 5310SOL    HW117769   0.903  10.302  13.324
 5310SOL    HW217770   0.965  10.352  13.195
 5311SOL     OW17771   7.560  10.922   5.687
 5311SOL    HW117772   7.638  10.977   5.690
 5311SOL    HW217773   7.487  10.983   5.680
 5312SOL     OW17774   2.463   6.553  14.806
 5312SOL    HW117775   2.417   6.629  14.840
 5312SOL    HW217776   2.450   6.557  14.711
 5313SOL     OW17777  14.463  14.507   2.234
 5313SOL    HW117778  14.552  14.532   2.208
 5313SOL    HW217779  14.475  14.453   2.312
 5314SOL     OW17780   8.048   0.350   2.440
 5314SOL    HW117781   8.024   0.437   2.473
 5314SOL    HW217782   8.133   0.363   2.399
 5315SOL     OW17783  10.869   5.342  11.577
 5315SOL    HW117784  10.874   5.380  11.664
 5315SOL    HW217785  10.863   5.417  11.518
 5316SOL     OW17786   4.674   7.915   3.426
 5316SOL    HW117787   4.679   8.005   3.458
 5316SOL    HW217788   4.683   7.861   3.505
 5317SOL     OW17789   8.279   2.830   8.767
 5317SOL    HW117790   8.207   2.767   8.769
 5317SOL    HW217791   8.357   2.778   8.788
 5318SOL     OW17792   0.647   8.066   0.611
 5318SOL    HW117793   0.703   8.136   0.578
 5318SOL    HW217794   0.633   8.009   0.535
 5319SOL     OW17795  13.092   2.113  13.796
 5319SOL    HW117796  13.143   2.041  13.833
 5319SOL    HW217797  13.052   2.077  13.717
 5320SOL     OW17798  12.461  10.972   8.188
 5320SOL    HW117799  12.403  11.024   8.244
 5320SOL    HW217800  12.412  10.960   8.107
 5321SOL     OW17801   2.414   9.742   2.642
 5321SOL    HW117802   2.386   9.748   2.551
 5321SOL    HW217803   2.338   9.704   2.688
 5322SOL     OW17804  12.603   6.771   7.361
 5322SOL    HW117805  12.595   6.845   7.420
 5322SOL    HW217806  12.697   6.754   7.356
 5323SOL     OW17807   1.951  10.688   1.395
 5323SOL    HW117808   2.018  10.736   1.443
 5323SOL    HW217809   1.876  10.748   1.393
 5324SOL     OW17810   9.979   0.550  12.036
 5324SOL    HW117811  10.038   0.561  11.962
 5324SOL    HW217812  10.030   0.576  12.113
 5325SOL     OW17813   4.041  13.578   5.564
 5325SOL    HW117814   4.048  13.600   5.657
 5325SOL    HW217815   4.120  13.527   5.546
 5326SOL     OW17816   9.286   3.381  11.346
 5326SOL    HW117817   9.332   3.429  11.415
 5326SOL    HW217818   9.272   3.445  11.277
 5327SOL     OW17819   5.849   9.346   4.081
 5327SOL    HW117820   5.801   9.425   4.108
 5327SOL    HW217821   5.786   9.275   4.093
 5328SOL     OW17822   2.568   3.642   2.181
 5328SOL    HW117823   2.579   3.551   2.155
 5328SOL    HW217824   2.604   3.647   2.270
 5329SOL     OW17825   1.762  13.541   4.914
 5329SOL    HW117826   1.823  13.473   4.886
 5329SOL    HW217827   1.695  13.494   4.963
 5330SOL     OW17828   9.934   3.967   4.862
 5330SOL    HW117829   9.918   3.874   4.880
 5330SOL    HW217830   9.847   4.005   4.853
 5331SOL     OW17831   7.297   0.579   5.383
 5331SOL    HW117832   7.392   0.570   5.377
 5331SOL    HW217833   7.280   0.671   5.366
 5332SOL     OW17834   2.991  10.105  12.883
 5332SOL    HW117835   3.056  10.073  12.820
 5332SOL    HW217836   3.005  10.052  12.961
 5333SOL     OW17837   4.705   1.795   6.630
 5333SOL    HW117838   4.722   1.824   6.541
 5333SOL    HW217839   4.755   1.714   6.640
 5334SOL     OW17840  10.110   7.357   1.713
 5334SOL    HW117841  10.200   7.378   1.736
 5334SOL    HW217842  10.099   7.391   1.624
 5335SOL     OW17843   3.137  14.178   5.423
 5335SOL    HW117844   3.156  14.147   5.512
 5335SOL    HW217845   3.098  14.264   5.436
 5336SOL     OW17846  10.675   6.451   1.196
 5336SOL    HW117847  10.637   6.436   1.282
 5336SOL    HW217848  10.767   6.425   1.205
 5337SOL     OW17849   4.769  14.824   6.582
 5337SOL    HW117850   4.849  14.859   6.622
 5337SOL    HW217851   4.799  14.752   6.527
 5338SOL     OW17852   9.635   5.787   7.227
 5338SOL    HW117853   9.724   5.756   7.210
 5338SOL    HW217854   9.584   5.707   7.239
 5339SOL     OW17855   5.158   7.797   5.580
 5339SOL    HW117856   5.234   7.847   5.608
 5339SOL    HW217857   5.125   7.757   5.661
 5340SOL     OW17858   7.025  10.492   8.400
 5340SOL    HW117859   7.110  10.511   8.440
 5340SOL    HW217860   7.024  10.396   8.392
 5341SOL     OW17861   4.397  12.016   9.199
 5341SOL    HW117862   4.423  12.053   9.283
 5341SOL    HW217863   4.476  12.020   9.145
 5342SOL     OW17864  11.096   1.546   9.362
 5342SOL    HW117865  11.171   1.534   9.420
 5342SOL    HW217866  11.059   1.459   9.351
 5343SOL     OW17867  11.231   7.255  13.318
 5343SOL    HW117868  11.294   7.285  13.253
 5343SOL    HW217869  11.273   7.271  13.402
 5344SOL     OW17870   1.071  12.583  10.254
 5344SOL    HW117871   1.066  12.585  10.350
 5344SOL    HW217872   1.003  12.521  10.228
 5345SOL     OW17873   8.130   4.721   0.142
 5345SOL    HW117874   8.121   4.675   0.226
 5345SOL    HW217875   8.129   4.652   0.076
 5346SOL     OW17876   6.224  13.858   8.752
 5346SOL    HW117877   6.148  13.915   8.739
 5346SOL    HW217878   6.186  13.773   8.776
 5347SOL     OW17879  12.681  11.762   0.669
 5347SOL    HW117880  12.700  11.669   0.677
 5347SOL    HW217881  12.726  11.803   0.743
 5348SOL     OW17882  12.260   0.718   4.477
 5348SOL    HW117883  12.296   0.650   4.420
 5348SOL    HW217884  12.320   0.792   4.466
 5349SOL     OW17885  11.637  10.593  13.337
 5349SOL    HW117886  11.625  10.676  13.291
 5349SOL    HW217887  11.684  10.616  13.417
 5350SOL     OW17888  14.786   3.193   1.465
 5350SOL    HW117889  14.737   3.185   1.383
 5350SOL    HW217890  14.861   3.135   1.454
 5351SOL     OW17891   3.083   9.539  13.264
 5351SOL    HW117892   3.049   9.536  13.354
 5351SOL    HW217893   3.018   9.491  13.212
 5352SOL     OW17894   5.669  13.558  13.846
 5352SOL    HW117895   5.744  13.507  13.814
 5352SOL    HW217896   5.602  13.492  13.866
 5353SOL     OW17897   9.653   0.638   9.635
 5353SOL    HW117898   9.606   0.666   9.713
 5353SOL    HW217899   9.674   0.720   9.590
 5354SOL     OW17900   6.783  11.636  10.898
 5354SOL    HW117901   6.819  11.715  10.857
 5354SOL    HW217902   6.790  11.568  10.831
 5355SOL     OW17903   5.436   4.997  13.539
 5355SOL    HW117904   5.446   5.051  13.617
 5355SOL    HW217905   5.451   5.057  13.466
 5356SOL     OW17906  10.192   8.238   3.668
 5356SOL    HW117907  10.188   8.333   3.667
 5356SOL    HW217908  10.256   8.217   3.736
 5357SOL     OW17909   9.669  14.764   9.705
 5357SOL    HW117910   9.678  14.805   9.619
 5357SOL    HW217911   9.577  14.774   9.728
 5358SOL     OW17912  14.797   4.630   9.070
 5358SOL    HW117913  14.862   4.682   9.023
 5358SOL    HW217914  14.715   4.677   9.058
 5359SOL     OW17915   6.623   2.335  11.155
 5359SOL    HW117916   6.689   2.374  11.211
 5359SOL    HW217917   6.603   2.403  11.090
 5360SOL     OW17918   6.634  12.151   8.762
 5360SOL    HW117919   6.660  12.161   8.671
 5360SOL    HW217920   6.583  12.230   8.782
 5361SOL     OW17921   5.830  12.649   3.258
 5361SOL    HW117922   5.873  12.683   3.180
 5361SOL    HW217923   5.892  12.665   3.329
 5362SOL     OW17924  12.696   7.194   8.034
 5362SOL    HW117925  12.677   7.134   7.962
 5362SOL    HW217926  12.771   7.156   8.078
 5363SOL     OW17927  12.098  12.553  11.191
 5363SOL    HW117928  12.187  12.587  11.202
 5363SOL    HW217929  12.109  12.478  11.132
 5364SOL     OW17930   2.675  11.891  14.796
 5364SOL    HW117931   2.746  11.955  14.793
 5364SOL    HW217932   2.699  11.832  14.868
 5365SOL     OW17933  12.542   5.441   4.170
 5365SOL    HW117934  12.628   5.476   4.190
 5365SOL    HW217935  12.491   5.452   4.250
 5366SOL     OW17936  14.499  13.750   2.118
 5366SOL    HW117937  14.509  13.812   2.046
 5366SOL    HW217938  14.429  13.786   2.171
 5367SOL     OW17939   0.087  14.525   5.155
 5367SOL    HW117940   0.131  14.448   5.119
 5367SOL    HW217941  14.881  14.521   5.119
 5368SOL     OW17942   2.659   0.888   2.877
 5368SOL    HW117943   2.622   0.800   2.873
 5368SOL    HW217944   2.584   0.946   2.859
 5369SOL     OW17945   0.720  13.122  14.872
 5369SOL    HW117946   0.718  13.180   0.066
 5369SOL    HW217947   0.651  13.155  14.814
 5370SOL     OW17948   2.279  14.382   6.286
 5370SOL    HW117949   2.294  14.338   6.370
 5370SOL    HW217950   2.250  14.312   6.227
 5371SOL     OW17951  10.535   9.399  13.656
 5371SOL    HW117952  10.487   9.481  13.654
 5371SOL    HW217953  10.535   9.369  13.565
 5372SOL     OW17954  12.405   4.375   3.586
 5372SOL    HW117955  12.416   4.283   3.561
 5372SOL    HW217956  12.311   4.388   3.590
 5373SOL     OW17957  12.429  10.819   0.393
 5373SOL    HW117958  12.405  10.764   0.319
 5373SOL    HW217959  12.346  10.857   0.423
 5374SOL     OW17960   6.227  10.901   8.394
 5374SOL    HW117961   6.244  10.880   8.302
 5374SOL    HW217962   6.270  10.985   8.408
 5375SOL     OW17963   1.099  11.889   1.597
 5375SOL    HW117964   1.133  11.819   1.652
 5375SOL    HW217965   1.040  11.939   1.654
 5376SOL     OW17966   4.142   4.250   3.129
 5376SOL    HW117967   4.080   4.253   3.056
 5376SOL    HW217968   4.126   4.331   3.177
 5377SOL     OW17969  12.137  10.231   4.098
 5377SOL    HW117970  12.058  10.185   4.124
 5377SOL    HW217971  12.110  10.323   4.093
 5378SOL     OW17972   3.500  11.988  10.419
 5378SOL    HW117973   3.471  12.072  10.455
 5378SOL    HW217974   3.506  11.930  10.495
 5379SOL     OW17975   0.944  13.637   5.411
 5379SOL    HW117976   0.949  13.594   5.325
 5379SOL    HW217977   0.850  13.647   5.426
 5380SOL     OW17978   7.984   0.698   2.297
 5380SOL    HW117979   8.073   0.678   2.267
 5380SOL    HW217980   7.976   0.652   2.381
 5381SOL     OW17981   4.157   8.512   2.734
 5381SOL    HW117982   4.212   8.590   2.746
 5381SOL    HW217983   4.077   8.546   2.694
 5382SOL     OW17984   6.395   0.494  12.889
 5382SOL    HW117985   6.362   0.408  12.862
 5382SOL    HW217986   6.345   0.557  12.837
 5383SOL     OW17987   6.259   6.576   6.585
 5383SOL    HW117988   6.354   6.577   6.588
 5383SOL    HW217989   6.234   6.490   6.619
 5384SOL     OW17990  11.316   6.314  12.830
 5384SOL    HW117991  11.360   6.331  12.914
 5384SOL    HW217992  11.260   6.390  12.817
 5385SOL     OW17993   8.466  11.170  12.813
 5385SOL    HW117994   8.381  11.128  12.807
 5385SOL    HW217995   8.517  11.114  12.871
 5386SOL     OW17996  13.931   2.578  11.955
 5386SOL    HW117997  13.863   2.555  12.018
 5386SOL    HW217998  13.884   2.596  11.873
 5387SOL     OW17999  12.902   7.106   7.567
 5387SOL    HW118000  12.941   7.018   7.563
 5387SOL    HW218001  12.907   7.130   7.659
 5388SOL     OW18002  13.672   3.401  10.574
 5388SOL    HW118003  13.617   3.351  10.514
 5388SOL    HW218004  13.683   3.344  10.651
 5389SOL     OW18005   7.784  14.236   9.527
 5389SOL    HW118006   7.742  14.318   9.500
 5389SOL    HW218007   7.875  14.246   9.500
 5390SOL     OW18008   2.622  11.551   4.216
 5390SOL    HW118009   2.685  11.534   4.146
 5390SOL    HW218010   2.676  11.565   4.294
 5391SOL     OW18011   0.509   7.604   6.582
 5391SOL    HW118012   0.445   7.647   6.639
 5391SOL    HW218013   0.460   7.533   6.541
 5392SOL     OW18014   2.671   6.811   7.227
 5392SOL    HW118015   2.722   6.775   7.300
 5392SOL    HW218016   2.595   6.852   7.268
 5393SOL     OW18017   2.570   6.854   3.724
 5393SOL    HW118018   2.604   6.779   3.773
 5393SOL    HW218019   2.476   6.853   3.742
 5394SOL     OW18020  12.050   1.964   7.897
 5394SOL    HW118021  11.958   1.974   7.871
 5394SOL    HW218022  12.082   1.892   7.844
 5395SOL     OW18023   1.885   5.677   3.911
 5395SOL    HW118024   1.979   5.656   3.912
 5395SOL    HW218025   1.864   5.687   3.818
 5396SOL     OW18026   6.279   9.765   4.196
 5396SOL    HW118027   6.212   9.827   4.225
 5396SOL    HW218028   6.343   9.764   4.267
 5397SOL     OW18029   9.510   0.487   5.828
 5397SOL    HW118030   9.556   0.568   5.809
 5397SOL    HW218031   9.562   0.419   5.786
 5398SOL     OW18032  11.739  11.352   1.594
 5398SOL    HW118033  11.765  11.441   1.571
 5398SOL    HW218034  11.740  11.350   1.689
 5399SOL     OW18035  11.682   0.422   2.788
 5399SOL    HW118036  11.662   0.388   2.875
 5399SOL    HW218037  11.776   0.405   2.777
 5400SOL     OW18038   5.877   2.450  12.414
 5400SOL    HW118039   5.841   2.361  12.423
 5400SOL    HW218040   5.971   2.438  12.423
 5401SOL     OW18041   3.051   1.248   6.154
 5401SOL    HW118042   3.059   1.214   6.065
 5401SOL    HW218043   3.130   1.301   6.167
 5402SOL     OW18044   6.428  12.488  12.166
 5402SOL    HW118045   6.475  12.419  12.118
 5402SOL    HW218046   6.381  12.441  12.235
 5403SOL     OW18047   4.300   6.570   0.504
 5403SOL    HW118048   4.246   6.575   0.583
 5403SOL    HW218049   4.238   6.550   0.434
 5404SOL     OW18050  12.138   0.206   6.175
 5404SOL    HW118051  12.102   0.152   6.246
 5404SOL    HW218052  12.092   0.175   6.097
 5405SOL     OW18053   4.994   0.639   6.727
 5405SOL    HW118054   4.964   0.685   6.805
 5405SOL    HW218055   4.921   0.582   6.703
 5406SOL     OW18056   4.029   6.139  14.472
 5406SOL    HW118057   3.981   6.057  14.480
 5406SOL    HW218058   4.121   6.113  14.471
 5407SOL     OW18059  12.689   2.489  14.051
 5407SOL    HW118060  12.729   2.499  13.965
 5407SOL    HW218061  12.646   2.404  14.047
 5408SOL     OW18062   1.364   0.992   2.892
 5408SOL    HW118063   1.451   1.025   2.916
 5408SOL    HW218064   1.306   1.067   2.900
 5409SOL     OW18065   1.953   5.371   6.760
 5409SOL    HW118066   1.960   5.361   6.665
 5409SOL    HW218067   2.041   5.352   6.793
 5410SOL     OW18068   7.913  13.900  13.400
 5410SOL    HW118069   7.962  13.969  13.356
 5410SOL    HW218070   7.956  13.891  13.485
 5411SOL     OW18071   4.378  10.054  12.415
 5411SOL    HW118072   4.284  10.052  12.399
 5411SOL    HW218073   4.397   9.973  12.462
 5412SOL     OW18074   7.814   7.587   1.512
 5412SOL    HW118075   7.768   7.612   1.592
 5412SOL    HW218076   7.907   7.594   1.535
 5413SOL     OW18077  11.412   0.512   7.368
 5413SOL    HW118078  11.410   0.541   7.459
 5413SOL    HW218079  11.431   0.418   7.374
 5414SOL     OW18080  13.581  13.248   3.645
 5414SOL    HW118081  13.570  13.309   3.718
 5414SOL    HW218082  13.591  13.305   3.568
 5415SOL     OW18083  12.530  12.110   0.952
 5415SOL    HW118084  12.532  12.148   1.039
 5415SOL    HW218085  12.523  12.016   0.966
 5416SOL     OW18086  13.100   5.781   8.650
 5416SOL    HW118087  13.015   5.824   8.665
 5416SOL    HW218088  13.144   5.784   8.735
 5417SOL     OW18089  12.935   8.270  11.771
 5417SOL    HW118090  13.025   8.244  11.750
 5417SOL    HW218091  12.926   8.357  11.733
 5418SOL     OW18092   0.860   1.723   9.796
 5418SOL    HW118093   0.947   1.732   9.757
 5418SOL    HW218094   0.845   1.806   9.842
 5419SOL     OW18095   9.871   8.605   9.770
 5419SOL    HW118096   9.877   8.556   9.852
 5419SOL    HW218097   9.928   8.558   9.710
 5420SOL     OW18098  11.748   3.600  10.084
 5420SOL    HW118099  11.758   3.606   9.989
 5420SOL    HW218100  11.807   3.666  10.119
 5421SOL     OW18101   6.188   7.773   1.044
 5421SOL    HW118102   6.243   7.778   0.966
 5421SOL    HW218103   6.187   7.863   1.078
 5422SOL     OW18104   8.359   3.732   0.798
 5422SOL    HW118105   8.322   3.667   0.858
 5422SOL    HW218106   8.453   3.720   0.804
 5423SOL     OW18107   3.373   8.013   5.513
 5423SOL    HW118108   3.386   8.101   5.480
 5423SOL    HW218109   3.391   7.956   5.438
 5424SOL     OW18110   3.548   2.930  13.113
 5424SOL    HW118111   3.632   2.965  13.083
 5424SOL    HW218112   3.519   2.873  13.042
 5425SOL     OW18113   9.158   5.810   2.070
 5425SOL    HW118114   9.104   5.829   1.993
 5425SOL    HW218115   9.229   5.755   2.036
 5426SOL     OW18116   3.240   9.284   9.672
 5426SOL    HW118117   3.265   9.273   9.580
 5426SOL    HW218118   3.317   9.257   9.722
 5427SOL     OW18119   4.669  10.167  10.833
 5427SOL    HW118120   4.724  10.102  10.789
 5427SOL    HW218121   4.728  10.241  10.846
 5428SOL     OW18122   8.489  13.326  14.438
 5428SOL    HW118123   8.538  13.306  14.518
 5428SOL    HW218124   8.403  13.355  14.469
 5429SOL     OW18125   0.270   5.010  14.604
 5429SOL    HW118126   0.272   5.075  14.534
 5429SOL    HW218127   0.361   4.983  14.616
 5430SOL     OW18128   7.217  12.358   3.137
 5430SOL    HW118129   7.150  12.422   3.161
 5430SOL    HW218130   7.297  12.391   3.179
 5431SOL     OW18131   9.582   7.295   1.383
 5431SOL    HW118132   9.573   7.386   1.409
 5431SOL    HW218133   9.499   7.274   1.338
 5432SOL     OW18134   6.168   1.397   1.885
 5432SOL    HW118135   6.249   1.356   1.855
 5432SOL    HW218136   6.168   1.483   1.843
 5433SOL     OW18137  12.637   9.832   6.633
 5433SOL    HW118138  12.610   9.786   6.554
 5433SOL    HW218139  12.719   9.791   6.659
 5434SOL     OW18140   0.049  13.572   0.547
 5434SOL    HW118141   0.037  13.662   0.517
 5434SOL    HW218142   0.087  13.526   0.472
 5435SOL     OW18143   9.011  12.367  14.551
 5435SOL    HW118144   9.039  12.457  14.566
 5435SOL    HW218145   9.063  12.316  14.614
 5436SOL     OW18146   6.789   6.752   5.519
 5436SOL    HW118147   6.713   6.801   5.489
 5436SOL    HW218148   6.863   6.791   5.472
 5437SOL     OW18149   5.443  12.831  13.095
 5437SOL    HW118150   5.498  12.907  13.110
 5437SOL    HW218151   5.378  12.833  13.165
 5438SOL     OW18152   1.001   7.675   5.196
 5438SOL    HW118153   0.993   7.688   5.290
 5438SOL    HW218154   1.096   7.665   5.181
 5439SOL     OW18155  14.228   8.566  13.785
 5439SOL    HW118156  14.282   8.519  13.721
 5439SOL    HW218157  14.280   8.566  13.865
 5440SOL     OW18158  12.497   6.655  12.200
 5440SOL    HW118159  12.559   6.667  12.128
 5440SOL    HW218160  12.424   6.714  12.180
 5441SOL     OW18161  12.149  13.685   1.649
 5441SOL    HW118162  12.226  13.665   1.702
 5441SOL    HW218163  12.145  13.614   1.585
 5442SOL     OW18164   8.689  14.174   1.461
 5442SOL    HW118165   8.655  14.203   1.545
 5442SOL    HW218166   8.634  14.099   1.438
 5443SOL     OW18167   7.042   2.895   5.551
 5443SOL    HW118168   7.050   2.921   5.643
 5443SOL    HW218169   7.050   2.800   5.552
 5444SOL     OW18170   4.607   3.960   8.253
 5444SOL    HW118171   4.632   3.997   8.168
 5444SOL    HW218172   4.632   4.027   8.317
 5445SOL     OW18173   5.724  12.780   6.847
 5445SOL    HW118174   5.806  12.759   6.802
 5445SOL    HW218175   5.752  12.817   6.931
 5446SOL     OW18176   6.033   9.365   5.088
 5446SOL    HW118177   6.020   9.363   4.994
 5446SOL    HW218178   5.945   9.369   5.125
 5447SOL     OW18179   5.375   8.296  11.605
 5447SOL    HW118180   5.301   8.281  11.546
 5447SOL    HW218181   5.421   8.371  11.568
 5448SOL     OW18182  12.886   9.179   8.410
 5448SOL    HW118183  12.818   9.145   8.351
 5448SOL    HW218184  12.889   9.116   8.482
 5449SOL     OW18185   0.335  12.636   3.814
 5449SOL    HW118186   0.384  12.702   3.861
 5449SOL    HW218187   0.300  12.578   3.882
 5450SOL     OW18188   4.466   9.265  13.289
 5450SOL    HW118189   4.413   9.198  13.333
 5450SOL    HW218190   4.461   9.341  13.347
 5451SOL     OW18191  12.337   6.378  12.002
 5451SOL    HW118192  12.392   6.446  11.962
 5451SOL    HW218193  12.381   6.356  12.084
 5452SOL     OW18194   4.072  10.170   3.771
 5452SOL    HW118195   4.157  10.194   3.809
 5452SOL    HW218196   4.051  10.242   3.712
 5453SOL     OW18197   9.751   8.854   3.138
 5453SOL    HW118198   9.735   8.826   3.048
 5453SOL    HW218199   9.683   8.811   3.190
 5454SOL     OW18200   8.359   0.971   2.406
 5454SOL    HW118201   8.416   0.895   2.396
 5454SOL    HW218202   8.388   1.033   2.340
 5455SOL     OW18203  12.794  13.108   9.751
 5455SOL    HW118204  12.878  13.080   9.714
 5455SOL    HW218205  12.800  13.083   9.843
 5456SOL     OW18206  10.036  11.531  10.377
 5456SOL    HW118207  10.021  11.443  10.344
 5456SOL    HW218208   9.973  11.586  10.332
 5457SOL     OW18209   8.831  14.851   7.225
 5457SOL    HW118210   8.911  14.875   7.272
 5457SOL    HW218211   8.760   0.007   7.277
 5458SOL     OW18212  10.789   9.389  11.088
 5458SOL    HW118213  10.787   9.386  11.184
 5458SOL    HW218214  10.790   9.298  11.061
 5459SOL     OW18215   2.505   7.031   0.818
 5459SOL    HW118216   2.493   7.007   0.909
 5459SOL    HW218217   2.599   7.048   0.810
 5460SOL     OW18218   2.491   6.880  12.391
 5460SOL    HW118219   2.475   6.939  12.318
 5460SOL    HW218220   2.510   6.937  12.465
 5461SOL     OW18221   6.401   1.814  10.383
 5461SOL    HW118222   6.472   1.861  10.425
 5461SOL    HW218223   6.410   1.724  10.414
 5462SOL     OW18224   0.437  13.765   4.292
 5462SOL    HW118225   0.405  13.848   4.256
 5462SOL    HW218226   0.484  13.790   4.372
 5463SOL     OW18227  13.298   5.132  11.904
 5463SOL    HW118228  13.205   5.136  11.885
 5463SOL    HW218229  13.341   5.138  11.818
 5464SOL     OW18230   9.752   2.511  11.484
 5464SOL    HW118231   9.813   2.437  11.490
 5464SOL    HW218232   9.809   2.588  11.479
 5465SOL     OW18233  10.597   3.105  11.702
 5465SOL    HW118234  10.551   3.106  11.619
 5465SOL    HW218235  10.550   3.041  11.755
 5466SOL     OW18236  11.871  12.960   9.476
 5466SOL    HW118237  11.925  13.004   9.410
 5466SOL    HW218238  11.924  12.965   9.556
 5467SOL     OW18239  10.339   2.428   2.055
 5467SOL    HW118240  10.385   2.471   2.126
 5467SOL    HW218241  10.312   2.343   2.091
 5468SOL     OW18242   6.749  11.942   0.933
 5468SOL    HW118243   6.696  11.964   1.009
 5468SOL    HW218244   6.839  11.941   0.967
 5469SOL     OW18245  14.168  13.835   8.069
 5469SOL    HW118246  14.170  13.856   7.975
 5469SOL    HW218247  14.252  13.791   8.085
 5470SOL     OW18248   1.645   6.342  14.612
 5470SOL    HW118249   1.692   6.359  14.693
 5470SOL    HW218250   1.702   6.283  14.563
 5471SOL     OW18251   8.440  10.243   8.703
 5471SOL    HW118252   8.398  10.158   8.716
 5471SOL    HW218253   8.466  10.243   8.611
 5472SOL     OW18254  14.425   6.899   3.463
 5472SOL    HW118255  14.466   6.914   3.378
 5472SOL    HW218256  14.369   6.975   3.477
 5473SOL     OW18257   9.711  14.792   5.959
 5473SOL    HW118258   9.669  14.711   5.986
 5473SOL    HW218259   9.796  14.764   5.925
 5474SOL     OW18260   2.146   7.997  11.200
 5474SOL    HW118261   2.109   7.952  11.123
 5474SOL    HW218262   2.234   7.961  11.208
 5475SOL     OW18263   8.441   5.626   3.854
 5475SOL    HW118264   8.382   5.695   3.884
 5475SOL    HW218265   8.409   5.547   3.898
 5476SOL     OW18266  13.782   8.954   4.492
 5476SOL    HW118267  13.817   8.955   4.581
 5476SOL    HW218268  13.853   8.988   4.438
 5477SOL     OW18269   0.635  12.603  12.655
 5477SOL    HW118270   0.685  12.615  12.575
 5477SOL    HW218271   0.695  12.556  12.714
 5478SOL     OW18272  14.034   1.882   3.175
 5478SOL    HW118273  14.081   1.949   3.226
 5478SOL    HW218274  13.942   1.899   3.192
 5479SOL     OW18275  10.092   1.812   8.818
 5479SOL    HW118276  10.042   1.891   8.798
 5479SOL    HW218277  10.182   1.843   8.827
 5480SOL     OW18278  13.126  12.407   9.062
 5480SOL    HW118279  13.155  12.497   9.076
 5480SOL    HW218280  13.052  12.396   9.122
 5481SOL     OW18281   4.329   1.804   1.524
 5481SOL    HW118282   4.256   1.791   1.464
 5481SOL    HW218283   4.380   1.723   1.519
 5482SOL     OW18284   8.574  11.342  14.143
 5482SOL    HW118285   8.579  11.429  14.102
 5482SOL    HW218286   8.481  11.330  14.162
 5483SOL     OW18287   6.198   0.105  11.640
 5483SOL    HW118288   6.111   0.069  11.625
 5483SOL    HW218289   6.245   0.090  11.557
 5484SOL     OW18290  14.822   6.626  12.071
 5484SOL    HW118291  14.852   6.712  12.100
 5484SOL    HW218292  14.787   6.585  12.150
 5485SOL     OW18293  10.329   9.140   7.956
 5485SOL    HW118294  10.394   9.204   7.984
 5485SOL    HW218295  10.280   9.119   8.036
 5486SOL     OW18296   2.053   3.530   4.778
 5486SOL    HW118297   2.030   3.552   4.687
 5486SOL    HW218298   2.136   3.575   4.793
 5487SOL     OW18299   2.976  11.365   3.495
 5487SOL    HW118300   3.029  11.439   3.468
 5487SOL    HW218301   3.029  11.288   3.474
 5488SOL     OW18302  13.725   0.892   8.367
 5488SOL    HW118303  13.815   0.883   8.336
 5488SOL    HW218304  13.711   0.987   8.370
 5489SOL     OW18305  14.468  13.632   4.972
 5489SOL    HW118306  14.527  13.707   4.962
 5489SOL    HW218307  14.527  13.559   4.992
 5490SOL     OW18308   7.712   3.818   8.912
 5490SOL    HW118309   7.782   3.791   8.852
 5490SOL    HW218310   7.680   3.900   8.876
 5491SOL     OW18311  10.989  10.064   6.638
 5491SOL    HW118312  10.921  10.056   6.571
 5491SOL    HW218313  11.003   9.975   6.669
 5492SOL     OW18314   8.786   0.525   7.268
 5492SOL    HW118315   8.840   0.604   7.261
 5492SOL    HW218316   8.754   0.526   7.359
 5493SOL     OW18317   1.206   9.293   7.658
 5493SOL    HW118318   1.183   9.381   7.629
 5493SOL    HW218319   1.298   9.299   7.683
 5494SOL     OW18320   2.427  14.745   9.263
 5494SOL    HW118321   2.384  14.667   9.229
 5494SOL    HW218322   2.509  14.751   9.214
 5495SOL     OW18323  10.471  11.804   0.187
 5495SOL    HW118324  10.546  11.833   0.239
 5495SOL    HW218325  10.438  11.727   0.233
 5496SOL     OW18326  11.094   8.686   3.141
 5496SOL    HW118327  11.097   8.631   3.219
 5496SOL    HW218328  11.130   8.632   3.071
 5497SOL     OW18329   1.002  10.501  10.263
 5497SOL    HW118330   1.077  10.546  10.223
 5497SOL    HW218331   0.926  10.539  10.220
 5498SOL     OW18332   5.482  12.518   7.385
 5498SOL    HW118333   5.517  12.429   7.393
 5498SOL    HW218334   5.388  12.508   7.397
 5499SOL     OW18335  14.628  11.247   1.254
 5499SOL    HW118336  14.634  11.245   1.158
 5499SOL    HW218337  14.574  11.171   1.276
 5500SOL     OW18338   8.763  12.869   8.960
 5500SOL    HW118339   8.731  12.782   8.936
 5500SOL    HW218340   8.698  12.929   8.922
 5501SOL     OW18341  13.400  13.432   5.136
 5501SOL    HW118342  13.355  13.396   5.060
 5501SOL    HW218343  13.417  13.523   5.113
 5502SOL     OW18344   5.071   8.397   4.164
 5502SOL    HW118345   5.022   8.316   4.183
 5502SOL    HW218346   5.163   8.372   4.175
 5503SOL     OW18347   6.015   6.210   6.230
 5503SOL    HW118348   6.030   6.304   6.236
 5503SOL    HW218349   6.051   6.185   6.144
 5504SOL     OW18350  14.315   1.862   9.136
 5504SOL    HW118351  14.351   1.773   9.132
 5504SOL    HW218352  14.376   1.915   9.084
 5505SOL     OW18353   0.655   6.614   0.817
 5505SOL    HW118354   0.660   6.699   0.862
 5505SOL    HW218355   0.733   6.568   0.845
 5506SOL     OW18356  13.694  12.938   3.170
 5506SOL    HW118357  13.601  12.961   3.165
 5506SOL    HW218358  13.714  12.941   3.263
 5507SOL     OW18359   9.488   0.083   4.421
 5507SOL    HW118360   9.425   0.059   4.489
 5507SOL    HW218361   9.567   0.107   4.469
 5508SOL     OW18362   7.946  12.662   7.112
 5508SOL    HW118363   7.918  12.575   7.142
 5508SOL    HW218364   7.878  12.689   7.050
 5509SOL     OW18365  12.371  10.865   8.666
 5509SOL    HW118366  12.331  10.779   8.653
 5509SOL    HW218367  12.302  10.927   8.644
 5510SOL     OW18368  14.289  10.022   8.517
 5510SOL    HW118369  14.219  10.028   8.452
 5510SOL    HW218370  14.279   9.934   8.554
 5511SOL     OW18371   2.321   9.767   4.455
 5511SOL    HW118372   2.313   9.705   4.528
 5511SOL    HW218373   2.274   9.845   4.484
 5512SOL     OW18374  13.851   2.166   7.967
 5512SOL    HW118375  13.865   2.205   8.054
 5512SOL    HW218376  13.924   2.197   7.915
 5513SOL     OW18377   1.269  11.884   3.644
 5513SOL    HW118378   1.352  11.840   3.629
 5513SOL    HW218379   1.217  11.821   3.694
 5514SOL     OW18380  11.664  10.797  11.097
 5514SOL    HW118381  11.584  10.802  11.149
 5514SOL    HW218382  11.725  10.746  11.151
 5515SOL     OW18383   3.446  12.038   9.114
 5515SOL    HW118384   3.351  12.028   9.101
 5515SOL    HW218385   3.465  12.127   9.084
 5516SOL     OW18386   7.660   2.202   2.864
 5516SOL    HW118387   7.584   2.172   2.913
 5516SOL    HW218388   7.631   2.283   2.823
 5517SOL     OW18389  14.783  10.686   7.393
 5517SOL    HW118390  14.814  10.702   7.482
 5517SOL    HW218391  14.834  10.746   7.339
 5518SOL     OW18392   3.655   1.703  10.716
 5518SOL    HW118393   3.730   1.661  10.673
 5518SOL    HW218394   3.662   1.675  10.807
 5519SOL     OW18395   2.136   7.275   2.213
 5519SOL    HW118396   2.207   7.323   2.256
 5519SOL    HW218397   2.158   7.183   2.227
 5520SOL     OW18398   4.875   4.356  11.631
 5520SOL    HW118399   4.888   4.367  11.725
 5520SOL    HW218400   4.841   4.267  11.621
 5521SOL     OW18401   2.010   3.154   6.728
 5521SOL    HW118402   2.092   3.134   6.772
 5521SOL    HW218403   2.024   3.127   6.637
 5522SOL     OW18404   5.919   6.359  14.495
 5522SOL    HW118405   5.931   6.444  14.537
 5522SOL    HW218406   5.825   6.341  14.505
 5523SOL     OW18407   9.399  10.764   3.508
 5523SOL    HW118408   9.347  10.823   3.563
 5523SOL    HW218409   9.341  10.741   3.435
 5524SOL     OW18410   6.485   1.884   0.109
 5524SOL    HW118411   6.543   1.956   0.086
 5524SOL    HW218412   6.408   1.896   0.054
 5525SOL     OW18413   8.353   3.967   2.104
 5525SOL    HW118414   8.426   3.929   2.055
 5525SOL    HW218415   8.394   4.029   2.165
 5526SOL     OW18416   4.757   7.692   1.443
 5526SOL    HW118417   4.732   7.732   1.526
 5526SOL    HW218418   4.710   7.609   1.440
 5527SOL     OW18419   0.092   9.250   2.185
 5527SOL    HW118420   0.089   9.257   2.281
 5527SOL    HW218421   0.162   9.309   2.159
 5528SOL     OW18422   3.450  12.141  10.101
 5528SOL    HW118423   3.478  12.052  10.124
 5528SOL    HW218424   3.446  12.187  10.185
 5529SOL     OW18425   6.091   8.064   3.662
 5529SOL    HW118426   6.097   7.982   3.711
 5529SOL    HW218427   6.129   8.130   3.721
 5530SOL     OW18428   3.130   0.052   1.718
 5530SOL    HW118429   3.145   0.062   1.812
 5530SOL    HW218430   3.162  14.845   1.698
 5531SOL     OW18431   1.144   8.642  10.443
 5531SOL    HW118432   1.051   8.628  10.427
 5531SOL    HW218433   1.148   8.684  10.529
 5532SOL     OW18434  11.157  13.902  14.163
 5532SOL    HW118435  11.122  13.914  14.074
 5532SOL    HW218436  11.086  13.859  14.211
 5533SOL     OW18437   5.858  11.832  10.232
 5533SOL    HW118438   5.831  11.838  10.140
 5533SOL    HW218439   5.832  11.744  10.259
 5534SOL     OW18440  10.586  14.257   1.753
 5534SOL    HW118441  10.533  14.296   1.684
 5534SOL    HW218442  10.611  14.171   1.718
 5535SOL     OW18443   7.144   8.269   4.625
 5535SOL    HW118444   7.191   8.315   4.694
 5535SOL    HW218445   7.206   8.266   4.552
 5536SOL     OW18446  14.595  13.767  12.609
 5536SOL    HW118447  14.531  13.799  12.546
 5536SOL    HW218448  14.651  13.708  12.559
 5537SOL     OW18449   5.062   1.034  11.381
 5537SOL    HW118450   5.039   1.096  11.450
 5537SOL    HW218451   5.075   0.951  11.427
 5538SOL     OW18452   7.912   6.311   2.381
 5538SOL    HW118453   7.965   6.236   2.409
 5538SOL    HW218454   7.825   6.293   2.416
 5539SOL     OW18455   6.306   5.480   0.314
 5539SOL    HW118456   6.332   5.498   0.224
 5539SOL    HW218457   6.278   5.389   0.314
 5540SOL     OW18458   6.224  14.321   8.016
 5540SOL    HW118459   6.198  14.413   8.023
 5540SOL    HW218460   6.277  14.317   7.937
 5541SOL     OW18461   0.856  12.539  10.599
 5541SOL    HW118462   0.950  12.529  10.582
 5541SOL    HW218463   0.816  12.539  10.512
 5542SOL     OW18464   9.079   1.721  10.159
 5542SOL    HW118465   9.023   1.647  10.134
 5542SOL    HW218466   9.109   1.757  10.075
 5543SOL     OW18467   8.617   3.185  14.217
 5543SOL    HW118468   8.560   3.189  14.294
 5543SOL    HW218469   8.697   3.228  14.245
 5544SOL     OW18470   5.356   8.936   1.363
 5544SOL    HW118471   5.296   9.008   1.342
 5544SOL    HW218472   5.364   8.886   1.281
 5545SOL     OW18473   9.419   2.600   6.988
 5545SOL    HW118474   9.368   2.525   6.959
 5545SOL    HW218475   9.482   2.615   6.918
 5546SOL     OW18476  12.968   5.034   9.807
 5546SOL    HW118477  12.895   5.028   9.868
 5546SOL    HW218478  13.045   5.007   9.857
 5547SOL     OW18479   9.849  13.759  13.497
 5547SOL    HW118480   9.844  13.668  13.469
 5547SOL    HW218481   9.770  13.772  13.550
 5548SOL     OW18482   6.901   0.593   5.249
 5548SOL    HW118483   6.864   0.681   5.242
 5548SOL    HW218484   6.960   0.585   5.175
 5549SOL     OW18485  12.541  12.000   9.953
 5549SOL    HW118486  12.462  12.053   9.955
 5549SOL    HW218487  12.608  12.056   9.993
 5550SOL     OW18488   6.443   8.221  13.811
 5550SOL    HW118489   6.479   8.227  13.900
 5550SOL    HW218490   6.519   8.203  13.756
 5551SOL     OW18491   5.939  10.504  11.832
 5551SOL    HW118492   5.985  10.439  11.886
 5551SOL    HW218493   5.851  10.469  11.822
 5552SOL     OW18494  12.575   0.238  10.108
 5552SOL    HW118495  12.508   0.227  10.041
 5552SOL    HW218496  12.527   0.274  10.183
 5553SOL     OW18497   6.124   1.378   7.104
 5553SOL    HW118498   6.120   1.295   7.056
 5553SOL    HW218499   6.044   1.381   7.155
 5554SOL     OW18500  14.815   5.909   2.378
 5554SOL    HW118501  14.782   5.842   2.438
 5554SOL    HW218502  14.737   5.938   2.330
 5555SOL     OW18503   5.670   6.525   2.530
 5555SOL    HW118504   5.616   6.470   2.586
 5555SOL    HW218505   5.670   6.611   2.572
 5556SOL     OW18506   4.998  14.794   7.241
 5556SOL    HW118507   4.910  14.777   7.208
 5556SOL    HW218508   5.020  14.716   7.293
 5557SOL     OW18509   4.753   8.499   9.607
 5557SOL    HW118510   4.671   8.465   9.644
 5557SOL    HW218511   4.799   8.538   9.681
 5558SOL     OW18512   6.283  10.817   4.144
 5558SOL    HW118513   6.276  10.761   4.220
 5558SOL    HW218514   6.368  10.797   4.106
 5559SOL     OW18515  11.464   3.074   0.343
 5559SOL    HW118516  11.489   3.143   0.404
 5559SOL    HW218517  11.397   3.024   0.390
 5560SOL     OW18518   1.669   9.632   3.699
 5560SOL    HW118519   1.603   9.620   3.766
 5560SOL    HW218520   1.752   9.612   3.743
 5561SOL     OW18521  14.827   5.794  11.114
 5561SOL    HW118522  14.844   5.857  11.044
 5561SOL    HW218523  14.735   5.807  11.137
 5562SOL     OW18524   1.979   8.649   3.424
 5562SOL    HW118525   1.977   8.557   3.399
 5562SOL    HW218526   2.056   8.658   3.480
 5563SOL     OW18527   5.529   2.246   9.612
 5563SOL    HW118528   5.611   2.215   9.574
 5563SOL    HW218529   5.548   2.258   9.705
 5564SOL     OW18530   8.366  12.414   7.112
 5564SOL    HW118531   8.311  12.480   7.071
 5564SOL    HW218532   8.339  12.412   7.203
 5565SOL     OW18533   6.295  11.993   0.447
 5565SOL    HW118534   6.291  11.908   0.489
 5565SOL    HW218535   6.364  12.040   0.495
 5566SOL     OW18536   4.481   6.551  12.995
 5566SOL    HW118537   4.462   6.533  12.902
 5566SOL    HW218538   4.420   6.620  13.019
 5567SOL     OW18539  12.151   0.559   1.591
 5567SOL    HW118540  12.183   0.590   1.676
 5567SOL    HW218541  12.096   0.631   1.559
 5568SOL     OW18542   3.125   7.459   3.121
 5568SOL    HW118543   3.127   7.449   3.216
 5568SOL    HW218544   3.086   7.545   3.107
 5569SOL     OW18545   8.304   7.326   6.407
 5569SOL    HW118546   8.352   7.360   6.482
 5569SOL    HW218547   8.346   7.367   6.331
 5570SOL     OW18548  11.390  10.655   8.040
 5570SOL    HW118549  11.473  10.634   7.997
 5570SOL    HW218550  11.415  10.678   8.129
 5571SOL     OW18551   4.187  12.905   7.311
 5571SOL    HW118552   4.116  12.841   7.321
 5571SOL    HW218553   4.262  12.864   7.353
 5572SOL     OW18554   4.862   6.149   7.593
 5572SOL    HW118555   4.886   6.239   7.617
 5572SOL    HW218556   4.771   6.155   7.565
 5573SOL     OW18557   0.784  13.253   9.658
 5573SOL    HW118558   0.876  13.229   9.647
 5573SOL    HW218559   0.783  13.348   9.649
 5574SOL     OW18560   0.911   5.716   8.587
 5574SOL    HW118561   0.971   5.690   8.658
 5574SOL    HW218562   0.865   5.792   8.621
 5575SOL     OW18563   9.228   7.925  13.745
 5575SOL    HW118564   9.142   7.954  13.775
 5575SOL    HW218565   9.266   7.880  13.821
 5576SOL     OW18566   8.290  11.751  13.964
 5576SOL    HW118567   8.205  11.708  13.954
 5576SOL    HW218568   8.311  11.782  13.876
 5577SOL     OW18569   1.875   4.488  14.650
 5577SOL    HW118570   1.930   4.450  14.581
 5577SOL    HW218571   1.788   4.452  14.634
 5578SOL     OW18572   6.716   8.011   1.983
 5578SOL    HW118573   6.774   8.082   1.954
 5578SOL    HW218574   6.654   8.054   2.042
 5579SOL     OW18575   3.217   9.811   3.977
 5579SOL    HW118576   3.142   9.758   4.003
 5579SOL    HW218577   3.248   9.770   3.896
 5580SOL     OW18578   0.105   1.757   9.194
 5580SOL    HW118579   0.130   1.834   9.143
 5580SOL    HW218580   0.040   1.789   9.256
 5581SOL     OW18581   5.377   1.277   4.149
 5581SOL    HW118582   5.465   1.241   4.145
 5581SOL    HW218583   5.339   1.240   4.229
 5582SOL     OW18584   5.455   4.050   8.696
 5582SOL    HW118585   5.371   4.094   8.680
 5582SOL    HW218586   5.461   3.983   8.628
 5583SOL     OW18587   3.075   1.604   4.341
 5583SOL    HW118588   3.043   1.628   4.254
 5583SOL    HW218589   3.055   1.680   4.396
 5584SOL     OW18590   5.535  10.762   4.698
 5584SOL    HW118591   5.524  10.828   4.630
 5584SOL    HW218592   5.550  10.812   4.779
 5585SOL     OW18593   2.041  10.245  13.175
 5585SOL    HW118594   1.972  10.303  13.144
 5585SOL    HW218595   2.100  10.301  13.225
 5586SOL     OW18596  12.002  13.353  13.425
 5586SOL    HW118597  11.909  13.375  13.420
 5586SOL    HW218598  12.004  13.258  13.434
 5587SOL     OW18599  10.510   0.821   1.203
 5587SOL    HW118600  10.429   0.824   1.153
 5587SOL    HW218601  10.487   0.772   1.283
 5588SOL     OW18602  12.108  13.041   8.699
 5588SOL    HW118603  12.111  13.131   8.665
 5588SOL    HW218604  12.057  12.993   8.634
 5589SOL     OW18605  11.455   5.880   6.446
 5589SOL    HW118606  11.502   5.947   6.396
 5589SOL    HW218607  11.504   5.799   6.429
 5590SOL     OW18608   9.831   3.612   8.315
 5590SOL    HW118609   9.802   3.683   8.258
 5590SOL    HW218610   9.790   3.630   8.399
 5591SOL     OW18611  14.510   8.360  14.009
 5591SOL    HW118612  14.531   8.425  13.941
 5591SOL    HW218613  14.414   8.354  14.007
 5592SOL     OW18614   4.649   4.032   7.993
 5592SOL    HW118615   4.689   3.950   7.964
 5592SOL    HW218616   4.640   4.083   7.912
 5593SOL     OW18617   8.430   8.731   1.739
 5593SOL    HW118618   8.491   8.699   1.673
 5593SOL    HW218619   8.376   8.655   1.761
 5594SOL     OW18620   0.981   5.399   5.475
 5594SOL    HW118621   0.984   5.406   5.379
 5594SOL    HW218622   0.994   5.489   5.506
 5595SOL     OW18623  12.091  14.814   5.756
 5595SOL    HW118624  12.022  14.785   5.696
 5595SOL    HW218625  12.169  14.819   5.701
 5596SOL     OW18626   2.712  11.834  11.305
 5596SOL    HW118627   2.623  11.867  11.314
 5596SOL    HW218628   2.704  11.739  11.317
 5597SOL     OW18629   6.064   9.747  14.265
 5597SOL    HW118630   6.061   9.817  14.330
 5597SOL    HW218631   6.008   9.678  14.302
 5598SOL     OW18632   3.534  12.439  14.724
 5598SOL    HW118633   3.500  12.502  14.660
 5598SOL    HW218634   3.590  12.381  14.672
 5599SOL     OW18635   0.587  12.834   7.465
 5599SOL    HW118636   0.606  12.808   7.374
 5599SOL    HW218637   0.576  12.751   7.511
 5600SOL     OW18638   1.319  13.482   2.957
 5600SOL    HW118639   1.396  13.533   2.930
 5600SOL    HW218640   1.351  13.391   2.961
 5601SOL     OW18641  10.789   6.814   5.210
 5601SOL    HW118642  10.883   6.796   5.204
 5601SOL    HW218643  10.757   6.750   5.274
 5602SOL     OW18644  12.990  10.307   6.323
 5602SOL    HW118645  12.973  10.400   6.313
 5602SOL    HW218646  13.055  10.286   6.256
 5603SOL     OW18647  14.514   8.261   5.027
 5603SOL    HW118648  14.523   8.204   4.950
 5603SOL    HW218649  14.602   8.263   5.065
 5604SOL     OW18650  12.337   2.454   8.406
 5604SOL    HW118651  12.336   2.460   8.502
 5604SOL    HW218652  12.336   2.545   8.376
 5605SOL     OW18653   4.213  12.881   7.985
 5605SOL    HW118654   4.266  12.806   7.957
 5605SOL    HW218655   4.149  12.844   8.045
 5606SOL     OW18656   0.831  10.324   4.567
 5606SOL    HW118657   0.844  10.306   4.660
 5606SOL    HW218658   0.745  10.366   4.562
 5607SOL     OW18659  12.462  14.825  10.759
 5607SOL    HW118660  12.410   0.024  10.756
 5607SOL    HW218661  12.443  14.781  10.676
 5608SOL     OW18662   0.536  10.139  10.237
 5608SOL    HW118663   0.507  10.100  10.155
 5608SOL    HW218664   0.630  10.120  10.241
 5609SOL     OW18665  14.300  10.217   2.194
 5609SOL    HW118666  14.328  10.199   2.105
 5609SOL    HW218667  14.212  10.254   2.185
 5610SOL     OW18668   3.065   3.679   5.852
 5610SOL    HW118669   2.980   3.655   5.888
 5610SOL    HW218670   3.064   3.774   5.848
 5611SOL     OW18671   2.883   9.562   1.221
 5611SOL    HW118672   2.871   9.525   1.308
 5611SOL    HW218673   2.943   9.635   1.234
 5612SOL     OW18674   8.885   4.314   5.698
 5612SOL    HW118675   8.845   4.392   5.737
 5612SOL    HW218676   8.977   4.338   5.685
 5613SOL     OW18677   7.749   8.814   1.065
 5613SOL    HW118678   7.678   8.760   1.031
 5613SOL    HW218679   7.737   8.899   1.022
 5614SOL     OW18680  13.286   7.591   2.838
 5614SOL    HW118681  13.206   7.587   2.889
 5614SOL    HW218682  13.321   7.502   2.840
 5615SOL     OW18683   2.113   1.167   6.998
 5615SOL    HW118684   2.160   1.087   7.021
 5615SOL    HW218685   2.155   1.197   6.917
 5616SOL     OW18686  13.227   9.651   8.639
 5616SOL    HW118687  13.273   9.572   8.612
 5616SOL    HW218688  13.158   9.662   8.573
 5617SOL     OW18689   3.138  11.975  10.477
 5617SOL    HW118690   3.079  12.006  10.546
 5617SOL    HW218691   3.191  12.051  10.455
 5618SOL     OW18692  11.200   7.740   9.258
 5618SOL    HW118693  11.189   7.753   9.352
 5618SOL    HW218694  11.173   7.650   9.242
 5619SOL     OW18695   6.118  12.511   8.876
 5619SOL    HW118696   6.141  12.477   8.963
 5619SOL    HW218697   6.101  12.604   8.891
 5620SOL     OW18698  12.203   6.954  14.015
 5620SOL    HW118699  12.152   7.019  14.064
 5620SOL    HW218700  12.139   6.912  13.957
 5621SOL     OW18701   1.703   6.649   8.525
 5621SOL    HW118702   1.763   6.599   8.580
 5621SOL    HW218703   1.737   6.639   8.436
 5622SOL     OW18704   4.689   4.602  10.448
 5622SOL    HW118705   4.705   4.635  10.536
 5622SOL    HW218706   4.593   4.595  10.442
 5623SOL     OW18707   4.038  10.593   1.100
 5623SOL    HW118708   3.958  10.644   1.089
 5623SOL    HW218709   4.037  10.568   1.193
 5624SOL     OW18710   9.395   1.440   1.083
 5624SOL    HW118711   9.372   1.519   1.131
 5624SOL    HW218712   9.320   1.382   1.096
 5625SOL     OW18713  12.014   6.691   3.914
 5625SOL    HW118714  12.021   6.775   3.869
 5625SOL    HW218715  11.994   6.628   3.845
 5626SOL     OW18716  14.815   7.179   5.549
 5626SOL    HW118717  14.747   7.112   5.542
 5626SOL    HW218718   0.001   7.140   5.604
 5627SOL     OW18719   1.769   4.004   7.494
 5627SOL    HW118720   1.776   3.927   7.439
 5627SOL    HW218721   1.860   4.028   7.515
 5628SOL     OW18722   2.210   7.992   7.557
 5628SOL    HW118723   2.181   8.077   7.523
 5628SOL    HW218724   2.305   7.993   7.544
 5629SOL     OW18725  14.261   3.361  10.208
 5629SOL    HW118726  14.187   3.421  10.210
 5629SOL    HW218727  14.338   3.418  10.202
 5630SOL     OW18728   2.589   1.598   7.997
 5630SOL    HW118729   2.578   1.652   7.919
 5630SOL    HW218730   2.622   1.658   8.063
 5631SOL     OW18731  12.173   8.469   5.401
 5631SOL    HW118732  12.246   8.425   5.356
 5631SOL    HW218733  12.208   8.491   5.487
 5632SOL     OW18734   4.864  13.949   8.116
 5632SOL    HW118735   4.835  14.021   8.060
 5632SOL    HW218736   4.813  13.960   8.197
 5633SOL     OW18737  14.149  13.491   2.428
 5633SOL    HW118738  14.123  13.574   2.468
 5633SOL    HW218739  14.155  13.430   2.501
 5634SOL     OW18740  11.067   8.945  12.045
 5634SOL    HW118741  11.008   9.014  12.073
 5634SOL    HW218742  11.066   8.881  12.117
 5635SOL     OW18743   4.440   5.868   8.632
 5635SOL    HW118744   4.426   5.931   8.562
 5635SOL    HW218745   4.480   5.792   8.590
 5636SOL     OW18746   6.002   4.478  14.778
 5636SOL    HW118747   5.987   4.436  14.693
 5636SOL    HW218748   5.987   4.408  14.842
 5637SOL     OW18749   0.593   5.568   4.564
 5637SOL    HW118750   0.655   5.522   4.621
 5637SOL    HW218751   0.535   5.499   4.532
 5638SOL     OW18752   9.075  10.978   1.475
 5638SOL    HW118753   9.137  10.995   1.546
 5638SOL    HW218754   9.010  11.047   1.481
 5639SOL     OW18755   6.813  14.304   9.827
 5639SOL    HW118756   6.727  14.264   9.813
 5639SOL    HW218757   6.873  14.230   9.835
 5640SOL     OW18758   2.459  13.991  10.045
 5640SOL    HW118759   2.475  13.999  10.139
 5640SOL    HW218760   2.475  13.899  10.026
 5641SOL     OW18761   2.536   1.094   4.078
 5641SOL    HW118762   2.458   1.054   4.116
 5641SOL    HW218763   2.504   1.177   4.040
 5642SOL     OW18764   0.455  12.909   6.175
 5642SOL    HW118765   0.483  12.904   6.267
 5642SOL    HW218766   0.528  12.951   6.130
 5643SOL     OW18767  13.755  14.221   5.506
 5643SOL    HW118768  13.754  14.261   5.419
 5643SOL    HW218769  13.833  14.166   5.506
 5644SOL     OW18770   8.081  11.495   2.886
 5644SOL    HW118771   8.015  11.442   2.843
 5644SOL    HW218772   8.089  11.573   2.831
 5645SOL     OW18773   1.721   3.557   1.098
 5645SOL    HW118774   1.814   3.571   1.081
 5645SOL    HW218775   1.719   3.504   1.178
 5646SOL     OW18776   4.944   3.607   8.281
 5646SOL    HW118777   4.963   3.534   8.221
 5646SOL    HW218778   4.881   3.661   8.233
 5647SOL     OW18779   2.790   0.090  12.869
 5647SOL    HW118780   2.733   0.029  12.822
 5647SOL    HW218781   2.767   0.176  12.834
 5648SOL     OW18782   3.737   0.624   6.498
 5648SOL    HW118783   3.725   0.578   6.581
 5648SOL    HW218784   3.832   0.631   6.487
 5649SOL     OW18785  13.808   8.463   5.592
 5649SOL    HW118786  13.877   8.515   5.551
 5649SOL    HW218787  13.726   8.502   5.561
 5650SOL     OW18788  12.870   8.194  13.631
 5650SOL    HW118789  12.795   8.172  13.577
 5650SOL    HW218790  12.944   8.200  13.570
 5651SOL     OW18791   2.216   7.174  10.878
 5651SOL    HW118792   2.312   7.175  10.875
 5651SOL    HW218793   2.195   7.126  10.958
 5652SOL     OW18794   8.104   1.800   2.244
 5652SOL    HW118795   8.106   1.777   2.337
 5652SOL    HW218796   8.196   1.794   2.216
 5653SOL     OW18797   1.598   6.116   5.839
 5653SOL    HW118798   1.650   6.037   5.825
 5653SOL    HW218799   1.526   6.108   5.776
 5654SOL     OW18800   9.551  10.984   6.785
 5654SOL    HW118801   9.475  10.937   6.752
 5654SOL    HW218802   9.591  11.021   6.706
 5655SOL     OW18803   0.942   2.698   8.002
 5655SOL    HW118804   0.931   2.761   7.931
 5655SOL    HW218805   0.853   2.682   8.033
 5656SOL     OW18806  12.139   9.615   0.879
 5656SOL    HW118807  12.065   9.560   0.852
 5656SOL    HW218808  12.121   9.638   0.970
 5657SOL     OW18809   8.935  14.293  10.658
 5657SOL    HW118810   8.864  14.298  10.594
 5657SOL    HW218811   8.985  14.216  10.631
 5658SOL     OW18812   5.195  13.155  12.980
 5658SOL    HW118813   5.253  13.222  12.945
 5658SOL    HW218814   5.176  13.098  12.906
 5659SOL     OW18815  12.150   7.563   9.868
 5659SOL    HW118816  12.092   7.617   9.815
 5659SOL    HW218817  12.093   7.494   9.903
 5660SOL     OW18818  10.655  13.246  10.208
 5660SOL    HW118819  10.669  13.334  10.243
 5660SOL    HW218820  10.716  13.240  10.134
 5661SOL     OW18821   7.889  14.428  14.714
 5661SOL    HW118822   7.896  14.423  14.809
 5661SOL    HW218823   7.812  14.482  14.698
 5662SOL     OW18824  13.245   7.828  12.712
 5662SOL    HW118825  13.258   7.830  12.618
 5662SOL    HW218826  13.334   7.820  12.748
 5663SOL     OW18827   7.058  12.381  12.804
 5663SOL    HW118828   7.083  12.467  12.771
 5663SOL    HW218829   6.962  12.382  12.805
 5664SOL     OW18830   7.207   9.599   5.920
 5664SOL    HW118831   7.232   9.668   5.981
 5664SOL    HW218832   7.270   9.606   5.849
 5665SOL     OW18833  13.056   3.835   2.913
 5665SOL    HW118834  13.011   3.864   2.834
 5665SOL    HW218835  13.109   3.761   2.885
 5666SOL     OW18836   9.124   2.395   5.791
 5666SOL    HW118837   9.063   2.401   5.717
 5666SOL    HW218838   9.103   2.311   5.832
 5667SOL     OW18839   5.953   3.791   1.541
 5667SOL    HW118840   5.963   3.886   1.545
 5667SOL    HW218841   5.867   3.775   1.581
 5668SOL     OW18842   4.435  11.046  11.634
 5668SOL    HW118843   4.483  11.121  11.669
 5668SOL    HW218844   4.415  10.993  11.711
 5669SOL     OW18845   1.853  11.289   3.319
 5669SOL    HW118846   1.881  11.200   3.300
 5669SOL    HW218847   1.926  11.344   3.292
 5670SOL     OW18848  13.967  11.765  14.673
 5670SOL    HW118849  13.966  11.801  14.761
 5670SOL    HW218850  14.053  11.788  14.638
 5671SOL     OW18851  12.034   7.150  14.140
 5671SOL    HW118852  11.942   7.171  14.124
 5671SOL    HW218853  12.082   7.215  14.089
 5672SOL     OW18854   7.620   5.112   3.407
 5672SOL    HW118855   7.714   5.127   3.393
 5672SOL    HW218856   7.613   5.088   3.499
 5673SOL     OW18857   0.242   8.031   0.526
 5673SOL    HW118858   0.288   8.030   0.609
 5673SOL    HW218859   0.227   8.123   0.506
 5674SOL     OW18860   3.326  10.828   9.291
 5674SOL    HW118861   3.350  10.920   9.278
 5674SOL    HW218862   3.270  10.807   9.216
 5675SOL     OW18863   9.616   4.787   9.793
 5675SOL    HW118864   9.622   4.882   9.805
 5675SOL    HW218865   9.555   4.758   9.860
 5676SOL     OW18866   3.493   9.911   3.705
 5676SOL    HW118867   3.450   9.996   3.700
 5676SOL    HW218868   3.571   9.920   3.650
 5677SOL     OW18869  14.616   0.030   1.458
 5677SOL    HW118870  14.648  14.825   1.482
 5677SOL    HW218871  14.690   0.089   1.474
 5678SOL     OW18872   7.268  13.156   3.218
 5678SOL    HW118873   7.258  13.145   3.123
 5678SOL    HW218874   7.221  13.081   3.255
 5679SOL     OW18875   8.791   4.955   4.741
 5679SOL    HW118876   8.737   5.020   4.785
 5679SOL    HW218877   8.770   4.965   4.648
 5680SOL     OW18878   8.805   9.328  12.524
 5680SOL    HW118879   8.898   9.331  12.505
 5680SOL    HW218880   8.765   9.296  12.443
 5681SOL     OW18881   1.265  12.969   3.399
 5681SOL    HW118882   1.287  12.876   3.402
 5681SOL    HW218883   1.225  12.982   3.313
 5682SOL     OW18884   2.483  13.400   8.524
 5682SOL    HW118885   2.556  13.428   8.579
 5682SOL    HW218886   2.429  13.346   8.582
 5683SOL     OW18887  10.469  14.109  11.600
 5683SOL    HW118888  10.428  14.196  11.605
 5683SOL    HW218889  10.467  14.077  11.690
 5684SOL     OW18890  12.234   3.278  11.818
 5684SOL    HW118891  12.165   3.225  11.857
 5684SOL    HW218892  12.296   3.293  11.889
 5685SOL     OW18893   2.088   7.530   7.091
 5685SOL    HW118894   2.042   7.475   7.155
 5685SOL    HW218895   2.035   7.609   7.085
 5686SOL     OW18896  13.662  14.030   2.946
 5686SOL    HW118897  13.719  14.095   2.989
 5686SOL    HW218898  13.700  13.946   2.971
 5687SOL     OW18899  12.071   0.495  10.002
 5687SOL    HW118900  12.037   0.571  10.051
 5687SOL    HW218901  12.118   0.443  10.067
 5688SOL     OW18902   3.195   4.649   4.321
 5688SOL    HW118903   3.279   4.694   4.312
 5688SOL    HW218904   3.215   4.573   4.377
 5689SOL     OW18905   3.545   2.496   5.147
 5689SOL    HW118906   3.607   2.523   5.215
 5689SOL    HW218907   3.470   2.461   5.195
 5690SOL     OW18908  10.605   4.313  10.861
 5690SOL    HW118909  10.696   4.313  10.830
 5690SOL    HW218910  10.553   4.298  10.782
 5691SOL     OW18911   4.397  13.931  12.487
 5691SOL    HW118912   4.355  13.999  12.540
 5691SOL    HW218913   4.467  13.976  12.440
 5692SOL     OW18914   4.034   4.542  10.065
 5692SOL    HW118915   4.129   4.537  10.077
 5692SOL    HW218916   4.021   4.543   9.970
 5693SOL     OW18917  11.842  10.682  11.926
 5693SOL    HW118918  11.870  10.623  11.857
 5693SOL    HW218919  11.899  10.758  11.917
 5694SOL     OW18920   3.225   8.509  10.874
 5694SOL    HW118921   3.282   8.434  10.892
 5694SOL    HW218922   3.179   8.485  10.794
 5695SOL     OW18923  10.436   9.736   9.239
 5695SOL    HW118924  10.411   9.827   9.257
 5695SOL    HW218925  10.474   9.738   9.151
 5696SOL     OW18926   7.828   7.929  11.312
 5696SOL    HW118927   7.808   7.975  11.393
 5696SOL    HW218928   7.893   7.984  11.268
 5697SOL     OW18929  13.927   4.337   1.088
 5697SOL    HW118930  13.968   4.424   1.084
 5697SOL    HW218931  13.942   4.308   1.178
 5698SOL     OW18932   6.610  10.928  10.214
 5698SOL    HW118933   6.525  10.886  10.200
 5698SOL    HW218934   6.668  10.885  10.151
 5699SOL     OW18935   0.316   2.924   9.346
 5699SOL    HW118936   0.333   3.012   9.313
 5699SOL    HW218937   0.344   2.927   9.438
 5700SOL     OW18938   9.801   1.559   8.061
 5700SOL    HW118939   9.877   1.503   8.071
 5700SOL    HW218940   9.728   1.499   8.044
 5701SOL     OW18941  14.865   6.517   9.027
 5701SOL    HW118942  14.816   6.570   9.090
 5701SOL    HW218943   0.010   6.579   8.959
 5702SOL     OW18944   9.090   6.173  13.573
 5702SOL    HW118945   9.120   6.263  13.585
 5702SOL    HW218946   9.076   6.165  13.479
 5703SOL     OW18947   0.377   8.398   4.998
 5703SOL    HW118948   0.422   8.332   4.944
 5703SOL    HW218949   0.391   8.480   4.952
 5704SOL     OW18950  10.863  13.913  10.092
 5704SOL    HW118951  10.923  13.936  10.164
 5704SOL    HW218952  10.920  13.895  10.018
 5705SOL     OW18953   5.349   2.792  11.159
 5705SOL    HW118954   5.288   2.772  11.088
 5705SOL    HW218955   5.417   2.724  11.153
 5706SOL     OW18956   2.720   5.771   2.733
 5706SOL    HW118957   2.775   5.739   2.661
 5706SOL    HW218958   2.747   5.720   2.809
 5707SOL     OW18959   3.169  14.123   5.695
 5707SOL    HW118960   3.177  14.192   5.761
 5707SOL    HW218961   3.183  14.042   5.744
 5708SOL     OW18962   9.711   5.491   0.252
 5708SOL    HW118963   9.773   5.478   0.180
 5708SOL    HW218964   9.669   5.575   0.233
 5709SOL     OW18965   7.873   9.535  12.348
 5709SOL    HW118966   7.885   9.559  12.256
 5709SOL    HW218967   7.936   9.589  12.395
 5710SOL     OW18968   3.065   7.538   6.595
 5710SOL    HW118969   3.114   7.477   6.541
 5710SOL    HW218970   2.974   7.516   6.581
 5711SOL     OW18971   0.048  14.617   5.538
 5711SOL    HW118972   0.055  14.700   5.492
 5711SOL    HW218973   0.093  14.554   5.481
 5712SOL     OW18974   2.298   8.534  13.790
 5712SOL    HW118975   2.277   8.504  13.701
 5712SOL    HW218976   2.361   8.605  13.777
 5713SOL     OW18977   7.172   8.420   9.870
 5713SOL    HW118978   7.263   8.406   9.894
 5713SOL    HW218979   7.133   8.332   9.873
 5714SOL     OW18980  10.462   9.206   1.700
 5714SOL    HW118981  10.508   9.188   1.618
 5714SOL    HW218982  10.446   9.119   1.738
 5715SOL     OW18983  14.437   0.117   8.853
 5715SOL    HW118984  14.343   0.129   8.861
 5715SOL    HW218985  14.470   0.203   8.825
 5716SOL     OW18986   8.876  11.821  14.762
 5716SOL    HW118987   8.932  11.866  14.698
 5716SOL    HW218988   8.797  11.875  14.767
 5717SOL     OW18989   4.363  14.652   5.024
 5717SOL    HW118990   4.277  14.611   5.010
 5717SOL    HW218991   4.360  14.731   4.970
 5718SOL     OW18992  11.125   6.667   2.350
 5718SOL    HW118993  11.167   6.622   2.424
 5718SOL    HW218994  11.122   6.759   2.376
 5719SOL     OW18995   4.106   5.093  11.329
 5719SOL    HW118996   4.057   5.034  11.387
 5719SOL    HW218997   4.109   5.047  11.245
 5720SOL     OW18998  14.702   8.140  11.439
 5720SOL    HW118999  14.795   8.126  11.457
 5720SOL    HW219000  14.687   8.098  11.354
 5721SOL     OW19001   3.109  11.582   6.081
 5721SOL    HW119002   3.042  11.542   6.026
 5721SOL    HW219003   3.068  11.587   6.168
 5722SOL     OW19004  14.317   2.724   7.216
 5722SOL    HW119005  14.287   2.811   7.192
 5722SOL    HW219006  14.243   2.666   7.198
 5723SOL     OW19007   5.842  10.076  13.410
 5723SOL    HW119008   5.767  10.020  13.435
 5723SOL    HW219009   5.886  10.027  13.340
 5724SOL     OW19010   3.071   7.103  10.415
 5724SOL    HW119011   3.133   7.164  10.376
 5724SOL    HW219012   3.095   7.101  10.508
 5725SOL     OW19013   5.249   5.180  11.248
 5725SOL    HW119014   5.162   5.191  11.286
 5725SOL    HW219015   5.303   5.246  11.292
 5726SOL     OW19016   5.466   2.430   0.626
 5726SOL    HW119017   5.381   2.410   0.588
 5726SOL    HW219018   5.460   2.399   0.717
 5727SOL     OW19019  10.683   8.152  11.817
 5727SOL    HW119020  10.760   8.195  11.854
 5727SOL    HW219021  10.714   8.066  11.788
 5728SOL     OW19022   9.932  10.584   6.219
 5728SOL    HW119023   9.934  10.497   6.178
 5728SOL    HW219024  10.012  10.588   6.271
 5729SOL     OW19025   9.842  10.789   2.279
 5729SOL    HW119026   9.759  10.802   2.232
 5729SOL    HW219027   9.829  10.834   2.363
 5730SOL     OW19028  10.556  11.977  12.651
 5730SOL    HW119029  10.513  12.062  12.643
 5730SOL    HW219030  10.649  11.997  12.654
 5731SOL     OW19031   6.250  13.330   7.977
 5731SOL    HW119032   6.250  13.424   7.959
 5731SOL    HW219033   6.252  13.290   7.890
 5732SOL     OW19034   4.814   2.122   2.498
 5732SOL    HW119035   4.766   2.162   2.425
 5732SOL    HW219036   4.754   2.056   2.533
 5733SOL     OW19037   7.580  11.551   6.930
 5733SOL    HW119038   7.659  11.497   6.924
 5733SOL    HW219039   7.559  11.574   6.840
 5734SOL     OW19040   2.612   8.509   4.981
 5734SOL    HW119041   2.610   8.464   4.897
 5734SOL    HW219042   2.677   8.461   5.032
 5735SOL     OW19043   9.855   4.391   0.104
 5735SOL    HW119044   9.891   4.455   0.043
 5735SOL    HW219045   9.921   4.322   0.108
 5736SOL     OW19046   2.621  11.489   3.862
 5736SOL    HW119047   2.629  11.448   3.776
 5736SOL    HW219048   2.602  11.581   3.843
 5737SOL     OW19049   7.657   9.377   9.038
 5737SOL    HW119050   7.645   9.425   8.956
 5737SOL    HW219051   7.680   9.443   9.102
 5738SOL     OW19052   3.259   6.325   0.973
 5738SOL    HW119053   3.201   6.266   0.924
 5738SOL    HW219054   3.200   6.393   1.005
 5739SOL     OW19055   1.676  12.635   3.204
 5739SOL    HW119056   1.649  12.687   3.128
 5739SOL    HW219057   1.616  12.661   3.274
 5740SOL     OW19058   5.616  13.472   4.107
 5740SOL    HW119059   5.690  13.530   4.125
 5740SOL    HW219060   5.587  13.443   4.193
 5741SOL     OW19061   0.988   8.778   5.674
 5741SOL    HW119062   1.035   8.702   5.709
 5741SOL    HW219063   1.015   8.851   5.729
 5742SOL     OW19064  11.289   6.146   2.579
 5742SOL    HW119065  11.373   6.192   2.572
 5742SOL    HW219066  11.270   6.145   2.673
 5743SOL     OW19067  12.330   2.226   6.062
 5743SOL    HW119068  12.425   2.217   6.057
 5743SOL    HW219069  12.298   2.189   5.979
 5744SOL     OW19070  11.920   6.829   9.560
 5744SOL    HW119071  11.875   6.770   9.500
 5744SOL    HW219072  11.999   6.856   9.513
 5745SOL     OW19073   2.449   3.144  13.416
 5745SOL    HW119074   2.409   3.146  13.329
 5745SOL    HW219075   2.488   3.230  13.427
 5746SOL     OW19076  10.461  12.218  11.130
 5746SOL    HW119077  10.496  12.271  11.058
 5746SOL    HW219078  10.519  12.238  11.204
 5747SOL     OW19079   7.631   3.023   6.611
 5747SOL    HW119080   7.714   2.982   6.637
 5747SOL    HW219081   7.643   3.115   6.634
 5748SOL     OW19082   0.135   6.655   2.499
 5748SOL    HW119083   0.093   6.597   2.563
 5748SOL    HW219084   0.062   6.696   2.452
 5749SOL     OW19085   6.358   2.049   0.641
 5749SOL    HW119086   6.286   2.001   0.600
 5749SOL    HW219087   6.349   2.031   0.734
 5750SOL     OW19088  11.001  14.338   8.130
 5750SOL    HW119089  11.026  14.302   8.215
 5750SOL    HW219090  10.912  14.370   8.142
 5751SOL     OW19091   2.836   4.974   3.875
 5751SOL    HW119092   2.885   4.995   3.795
 5751SOL    HW219093   2.806   4.884   3.862
 5752SOL     OW19094   5.318   3.697   5.243
 5752SOL    HW119095   5.283   3.786   5.243
 5752SOL    HW219096   5.281   3.657   5.322
 5753SOL     OW19097   6.370  12.131  10.487
 5753SOL    HW119098   6.424  12.171  10.555
 5753SOL    HW219099   6.375  12.037  10.504
 5754SOL     OW19100  14.639   6.700   5.984
 5754SOL    HW119101  14.545   6.700   5.965
 5754SOL    HW219102  14.648   6.759   6.058
 5755SOL     OW19103   4.837  12.470   5.066
 5755SOL    HW119104   4.814  12.512   4.982
 5755SOL    HW219105   4.848  12.378   5.044
 5756SOL     OW19106  13.878   1.968   6.895
 5756SOL    HW119107  13.938   2.001   6.829
 5756SOL    HW219108  13.807   2.033   6.897
 5757SOL     OW19109   8.350   2.079  12.141
 5757SOL    HW119110   8.352   2.173  12.124
 5757SOL    HW219111   8.276   2.047  12.089
 5758SOL     OW19112   6.881  10.892   4.969
 5758SOL    HW119113   6.870  10.933   4.883
 5758SOL    HW219114   6.792  10.878   5.001
 5759SOL     OW19115  10.822  13.232  13.971
 5759SOL    HW119116  10.857  13.156  14.018
 5759SOL    HW219117  10.883  13.246  13.899
 5760SOL     OW19118   4.586   1.125   4.912
 5760SOL    HW119119   4.569   1.152   4.822
 5760SOL    HW219120   4.671   1.164   4.933
 5761SOL     OW19121  13.643   9.130  10.961
 5761SOL    HW119122  13.648   9.155  11.054
 5761SOL    HW219123  13.619   9.211  10.915
 5762SOL     OW19124  12.805  10.430  12.534
 5762SOL    HW119125  12.823  10.341  12.564
 5762SOL    HW219126  12.734  10.460  12.591
 5763SOL     OW19127   3.722   3.620  13.706
 5763SOL    HW119128   3.812   3.631  13.676
 5763SOL    HW219129   3.728   3.615  13.802
 5764SOL     OW19130  11.678   5.616   3.331
 5764SOL    HW119131  11.673   5.683   3.398
 5764SOL    HW219132  11.588   5.583   3.324
 5765SOL     OW19133   3.626   6.227   4.427
 5765SOL    HW119134   3.602   6.138   4.401
 5765SOL    HW219135   3.644   6.220   4.521
 5766SOL     OW19136  13.779   3.829   2.297
 5766SOL    HW119137  13.794   3.843   2.203
 5766SOL    HW219138  13.700   3.774   2.300
 5767SOL     OW19139   9.384  14.360   4.427
 5767SOL    HW119140   9.441  14.349   4.503
 5767SOL    HW219141   9.312  14.416   4.459
 5768SOL     OW19142  13.879  11.995   2.404
 5768SOL    HW119143  13.917  12.033   2.483
 5768SOL    HW219144  13.950  11.945   2.364
 5769SOL     OW19145  10.226  14.378   2.473
 5769SOL    HW119146  10.260  14.303   2.523
 5769SOL    HW219147  10.183  14.338   2.398
 5770SOL     OW19148   5.577  13.635   0.385
 5770SOL    HW119149   5.501  13.662   0.334
 5770SOL    HW219150   5.564  13.676   0.470
 5771SOL     OW19151   5.616   0.991   3.391
 5771SOL    HW119152   5.690   0.992   3.330
 5771SOL    HW219153   5.540   1.012   3.338
 5772SOL     OW19154   9.877   5.995   3.604
 5772SOL    HW119155   9.877   5.900   3.598
 5772SOL    HW219156   9.874   6.013   3.698
 5773SOL     OW19157   6.063   3.664  13.209
 5773SOL    HW119158   6.145   3.665  13.259
 5773SOL    HW219159   6.081   3.604  13.136
 5774SOL     OW19160   8.148   4.031   9.154
 5774SOL    HW119161   8.206   4.029   9.077
 5774SOL    HW219162   8.065   3.997   9.121
 5775SOL     OW19163   0.303  11.947   7.165
 5775SOL    HW119164   0.381  11.891   7.174
 5775SOL    HW219165   0.232  11.886   7.146
 5776SOL     OW19166   1.328   1.677   1.623
 5776SOL    HW119167   1.404   1.628   1.655
 5776SOL    HW219168   1.253   1.628   1.655
 5777SOL     OW19169   3.432  12.175   0.226
 5777SOL    HW119170   3.402  12.205   0.140
 5777SOL    HW219171   3.353  12.171   0.280
 5778SOL     OW19172  13.322   5.541  12.204
 5778SOL    HW119173  13.346   5.562  12.114
 5778SOL    HW219174  13.229   5.565  12.210
 5779SOL     OW19175  14.088  12.152   1.879
 5779SOL    HW119176  14.111  12.238   1.915
 5779SOL    HW219177  13.994  12.145   1.892
 5780SOL     OW19178  12.104   4.220  12.711
 5780SOL    HW119179  12.166   4.285  12.745
 5780SOL    HW219180  12.041   4.207  12.781
 5781SOL     OW19181   3.282   0.965  11.441
 5781SOL    HW119182   3.290   0.999  11.530
 5781SOL    HW219183   3.238   0.880  11.452
 5782SOL     OW19184  10.525   7.232   7.012
 5782SOL    HW119185  10.509   7.138   7.016
 5782SOL    HW219186  10.451   7.268   6.964
 5783SOL     OW19187   3.103  11.974  13.986
 5783SOL    HW119188   3.085  11.916  14.059
 5783SOL    HW219189   3.072  11.926  13.909
 5784SOL     OW19190   7.673  11.350   7.482
 5784SOL    HW119191   7.667  11.371   7.388
 5784SOL    HW219192   7.583  11.358   7.513
 5785SOL     OW19193   7.666   0.191   5.826
 5785SOL    HW119194   7.707   0.132   5.763
 5785SOL    HW219195   7.607   0.135   5.876
 5786SOL     OW19196  14.494   6.209   4.012
 5786SOL    HW119197  14.408   6.207   4.054
 5786SOL    HW219198  14.556   6.199   4.084
 5787SOL     OW19199  11.668   5.538   1.110
 5787SOL    HW119200  11.579   5.568   1.129
 5787SOL    HW219201  11.689   5.480   1.182
 5788SOL     OW19202  12.593  12.579   6.530
 5788SOL    HW119203  12.681  12.611   6.549
 5788SOL    HW219204  12.603  12.485   6.521
 5789SOL     OW19205   4.907   5.392   9.740
 5789SOL    HW119206   4.900   5.485   9.762
 5789SOL    HW219207   4.818   5.367   9.714
 5790SOL     OW19208   5.484   2.743  11.577
 5790SOL    HW119209   5.467   2.713  11.488
 5790SOL    HW219210   5.538   2.675  11.616
 5791SOL     OW19211  10.908  11.903   1.927
 5791SOL    HW119212  10.910  11.875   1.836
 5791SOL    HW219213  10.942  11.992   1.925
 5792SOL     OW19214   8.615  14.390   3.081
 5792SOL    HW119215   8.527  14.399   3.046
 5792SOL    HW219216   8.603  14.350   3.168
 5793SOL     OW19217  10.155  10.603   6.377
 5793SOL    HW119218  10.192  10.686   6.408
 5793SOL    HW219219  10.183  10.538   6.441
 5794SOL     OW19220  10.466  13.013   5.393
 5794SOL    HW119221  10.403  12.968   5.449
 5794SOL    HW219222  10.432  13.102   5.386
 5795SOL     OW19223   1.435   5.055   0.533
 5795SOL    HW119224   1.366   5.090   0.590
 5795SOL    HW219225   1.484   5.132   0.504
 5796SOL     OW19226   7.718  11.414  11.655
 5796SOL    HW119227   7.762  11.480  11.709
 5796SOL    HW219228   7.669  11.360  11.717
 5797SOL     OW19229   4.628  10.697  11.262
 5797SOL    HW119230   4.575  10.767  11.301
 5797SOL    HW219231   4.620  10.624  11.323
 5798SOL     OW19232   6.990   6.041   4.961
 5798SOL    HW119233   6.979   6.030   4.867
 5798SOL    HW219234   6.910   6.086   4.989
 5799SOL     OW19235  13.245   9.970   0.321
 5799SOL    HW119236  13.153   9.947   0.316
 5799SOL    HW219237  13.292   9.890   0.296
 5800SOL     OW19238   5.559  11.587  11.460
 5800SOL    HW119239   5.521  11.552  11.541
 5800SOL    HW219240   5.539  11.521  11.394
 5801SOL     OW19241   9.338  14.347   6.471
 5801SOL    HW119242   9.261  14.291   6.486
 5801SOL    HW219243   9.315  14.431   6.511
 5802SOL     OW19244   9.151  11.394   8.176
 5802SOL    HW119245   9.065  11.392   8.217
 5802SOL    HW219246   9.212  11.403   8.249
 5803SOL     OW19247  13.647   5.221   3.124
 5803SOL    HW119248  13.596   5.297   3.097
 5803SOL    HW219249  13.724   5.258   3.167
 5804SOL     OW19250   3.045   2.433   0.618
 5804SOL    HW119251   3.045   2.388   0.703
 5804SOL    HW219252   3.138   2.451   0.602
 5805SOL     OW19253   5.699   0.336   5.232
 5805SOL    HW119254   5.743   0.407   5.186
 5805SOL    HW219255   5.606   0.349   5.214
 5806SOL     OW19256  10.347   0.125   3.130
 5806SOL    HW119257  10.442   0.112   3.131
 5806SOL    HW219258  10.317   0.072   3.056
 5807SOL     OW19259  13.554   5.887   4.777
 5807SOL    HW119260  13.630   5.901   4.720
 5807SOL    HW219261  13.479   5.911   4.723
 5808SOL     OW19262  10.116   2.814   7.855
 5808SOL    HW119263  10.131   2.720   7.844
 5808SOL    HW219264  10.052   2.836   7.787
 5809SOL     OW19265  12.233   9.966  10.470
 5809SOL    HW119266  12.220   9.947  10.377
 5809SOL    HW219267  12.148   9.997  10.500
 5810SOL     OW19268  11.180  12.951  11.882
 5810SOL    HW119269  11.229  12.904  11.815
 5810SOL    HW219270  11.088  12.933  11.861
 5811SOL     OW19271  13.693  11.455   3.605
 5811SOL    HW119272  13.622  11.505   3.564
 5811SOL    HW219273  13.758  11.442   3.536
 5812SOL     OW19274   4.342   9.805   0.322
 5812SOL    HW119275   4.428   9.769   0.343
 5812SOL    HW219276   4.361   9.885   0.272
 5813SOL     OW19277   9.471  10.426   0.396
 5813SOL    HW119278   9.481  10.420   0.301
 5813SOL    HW219279   9.473  10.520   0.414
 5814SOL     OW19280   2.564   5.833   4.315
 5814SOL    HW119281   2.572   5.875   4.400
 5814SOL    HW219282   2.636   5.869   4.263
 5815SOL     OW19283  10.081   4.361  14.712
 5815SOL    HW119284  10.017   4.290  14.707
 5815SOL    HW219285  10.031   4.439  14.687
 5816SOL     OW19286  13.735   3.419   6.545
 5816SOL    HW119287  13.689   3.378   6.617
 5816SOL    HW219288  13.767   3.346   6.492
 5817SOL     OW19289  13.642  11.958   8.109
 5817SOL    HW119290  13.557  11.917   8.131
 5817SOL    HW219291  13.687  11.965   8.193
 5818SOL     OW19292  13.799  11.870   0.660
 5818SOL    HW119293  13.824  11.793   0.711
 5818SOL    HW219294  13.854  11.865   0.582
 5819SOL     OW19295   9.426   7.177  14.461
 5819SOL    HW119296   9.369   7.120  14.513
 5819SOL    HW219297   9.366   7.233  14.411
 5820SOL     OW19298   4.555   9.562   6.185
 5820SOL    HW119299   4.556   9.580   6.091
 5820SOL    HW219300   4.462   9.563   6.208
 5821SOL     OW19301   6.677   3.849   8.102
 5821SOL    HW119302   6.600   3.891   8.064
 5821SOL    HW219303   6.747   3.913   8.090
 5822SOL     OW19304   6.823   3.078   4.459
 5822SOL    HW119305   6.795   3.141   4.525
 5822SOL    HW219306   6.772   3.099   4.381
 5823SOL     OW19307   4.808   0.752   3.903
 5823SOL    HW119308   4.902   0.755   3.888
 5823SOL    HW219309   4.785   0.841   3.930
 5824SOL     OW19310   2.772   0.585  10.610
 5824SOL    HW119311   2.840   0.518  10.619
 5824SOL    HW219312   2.821   0.667  10.604
 5825SOL     OW19313  10.055   7.715  11.920
 5825SOL    HW119314  10.023   7.805  11.930
 5825SOL    HW219315  10.143   7.725  11.882
 5826SOL     OW19316   3.488   1.219  12.015
 5826SOL    HW119317   3.551   1.275  12.060
 5826SOL    HW219318   3.541   1.167  11.955
 5827SOL     OW19319   4.492  13.377  12.800
 5827SOL    HW119320   4.494  13.355  12.707
 5827SOL    HW219321   4.577  13.418  12.817
 5828SOL     OW19322   4.588   7.589  10.110
 5828SOL    HW119323   4.499   7.614  10.137
 5828SOL    HW219324   4.592   7.614  10.017
 5829SOL     OW19325   2.597   9.881  11.508
 5829SOL    HW119326   2.630   9.840  11.588
 5829SOL    HW219327   2.645   9.964  11.502
 5830SOL     OW19328   3.212  12.289   3.658
 5830SOL    HW119329   3.297  12.296   3.615
 5830SOL    HW219330   3.228  12.231   3.733
 5831SOL     OW19331   7.016   8.698   0.808
 5831SOL    HW119332   7.085   8.691   0.875
 5831SOL    HW219333   6.951   8.756   0.848
 5832SOL     OW19334   8.030   4.624  14.013
 5832SOL    HW119335   7.967   4.680  13.969
 5832SOL    HW219336   7.982   4.544  14.033
 5833SOL     OW19337   9.198  12.860   7.524
 5833SOL    HW119338   9.207  12.898   7.611
 5833SOL    HW219339   9.243  12.776   7.530
 5834SOL     OW19340   6.758   5.224   5.975
 5834SOL    HW119341   6.768   5.170   6.054
 5834SOL    HW219342   6.717   5.304   6.006
 5835SOL     OW19343   4.868  11.522   4.686
 5835SOL    HW119344   4.794  11.570   4.649
 5835SOL    HW219345   4.829  11.466   4.753
 5836SOL     OW19346   5.893   8.497   0.267
 5836SOL    HW119347   5.839   8.419   0.255
 5836SOL    HW219348   5.950   8.476   0.341
 5837SOL     OW19349  10.908   5.305   7.843
 5837SOL    HW119350  10.867   5.267   7.921
 5837SOL    HW219351  10.887   5.244   7.773
 5838SOL     OW19352   6.734   0.553  12.876
 5838SOL    HW119353   6.812   0.563  12.932
 5838SOL    HW219354   6.661   0.547  12.938
 5839SOL     OW19355  14.588  10.571   9.095
 5839SOL    HW119356  14.569  10.631   9.167
 5839SOL    HW219357  14.683  10.577   9.083
 5840SOL     OW19358   8.116   7.772   0.702
 5840SOL    HW119359   8.065   7.853   0.708
 5840SOL    HW219360   8.161   7.779   0.617
 5841SOL     OW19361  12.170   7.046  11.031
 5841SOL    HW119362  12.244   7.033  10.972
 5841SOL    HW219363  12.203   7.105  11.099
 5842SOL     OW19364  11.521   8.851   3.452
 5842SOL    HW119365  11.539   8.804   3.533
 5842SOL    HW219366  11.491   8.938   3.480
 5843SOL     OW19367   3.231  12.418   8.889
 5843SOL    HW119368   3.183  12.421   8.972
 5843SOL    HW219369   3.165  12.395   8.824
 5844SOL     OW19370   2.019   5.478   9.306
 5844SOL    HW119371   1.926   5.458   9.298
 5844SOL    HW219372   2.021   5.564   9.349
 5845SOL     OW19373   2.834   4.496   1.227
 5845SOL    HW119374   2.805   4.532   1.311
 5845SOL    HW219375   2.921   4.462   1.245
 5846SOL     OW19376   8.144   0.646   3.274
 5846SOL    HW119377   8.209   0.613   3.336
 5846SOL    HW219378   8.196   0.673   3.198
 5847SOL     OW19379   5.317   5.331   8.931
 5847SOL    HW119380   5.261   5.306   8.858
 5847SOL    HW219381   5.395   5.276   8.921
 5848SOL     OW19382   0.637   2.110  12.807
 5848SOL    HW119383   0.717   2.163  12.800
 5848SOL    HW219384   0.571   2.159  12.758
 5849SOL     OW19385  10.888  11.769   2.615
 5849SOL    HW119386  10.936  11.740   2.537
 5849SOL    HW219387  10.870  11.862   2.598
 5850SOL     OW19388  14.717  10.348   6.074
 5850SOL    HW119389  14.801  10.309   6.051
 5850SOL    HW219390  14.739  10.435   6.108
 5851SOL     OW19391  14.297   8.219   5.184
 5851SOL    HW119392  14.366   8.208   5.119
 5851SOL    HW219393  14.343   8.217   5.268
 5852SOL     OW19394  14.878  11.161  14.289
 5852SOL    HW119395  14.828  11.182  14.368
 5852SOL    HW219396   0.056  11.234  14.278
 5853SOL     OW19397   4.411  10.252   1.300
 5853SOL    HW119398   4.421  10.160   1.323
 5853SOL    HW219399   4.324  10.258   1.260
 5854SOL     OW19400  13.140  11.265   7.746
 5854SOL    HW119401  13.159  11.177   7.713
 5854SOL    HW219402  13.044  11.272   7.741
 5855SOL     OW19403   6.101   2.826   0.985
 5855SOL    HW119404   6.024   2.775   0.960
 5855SOL    HW219405   6.169   2.760   1.000
 5856SOL     OW19406  10.008   6.601  13.174
 5856SOL    HW119407   9.919   6.634  13.163
 5856SOL    HW219408  10.054   6.629  13.095
 5857SOL     OW19409   1.968   4.842  10.960
 5857SOL    HW119410   1.920   4.792  11.025
 5857SOL    HW219411   1.991   4.778  10.892
 5858SOL     OW19412   1.037   5.084   8.764
 5858SOL    HW119413   0.977   5.045   8.828
 5858SOL    HW219414   0.982   5.103   8.688
 5859SOL     OW19415   9.086   3.093  12.200
 5859SOL    HW119416   9.168   3.075  12.154
 5859SOL    HW219417   9.112   3.109  12.290
 5860SOL     OW19418   4.835   4.112  10.536
 5860SOL    HW119419   4.746   4.081  10.520
 5860SOL    HW219420   4.831   4.155  10.622
 5861SOL     OW19421   9.280   2.224  14.085
 5861SOL    HW119422   9.206   2.221  14.025
 5861SOL    HW219423   9.240   2.227  14.172
 5862SOL     OW19424   4.715   9.495   2.635
 5862SOL    HW119425   4.699   9.455   2.721
 5862SOL    HW219426   4.638   9.550   2.620
 5863SOL     OW19427   8.791  10.362   2.062
 5863SOL    HW119428   8.771  10.301   1.991
 5863SOL    HW219429   8.877  10.335   2.094
 5864SOL     OW19430   4.214   4.741   7.260
 5864SOL    HW119431   4.157   4.675   7.222
 5864SOL    HW219432   4.201   4.818   7.205
 5865SOL     OW19433   7.116   2.365   0.181
 5865SOL    HW119434   7.032   2.371   0.226
 5865SOL    HW219435   7.103   2.296   0.116
 5866SOL     OW19436   7.616   3.599   5.531
 5866SOL    HW119437   7.667   3.601   5.451
 5866SOL    HW219438   7.529   3.630   5.506
 5867SOL     OW19439  14.101   8.752   1.950
 5867SOL    HW119440  14.017   8.707   1.936
 5867SOL    HW219441  14.167   8.684   1.935
 5868SOL     OW19442  11.682  10.628   7.927
 5868SOL    HW119443  11.764  10.607   7.884
 5868SOL    HW219444  11.706  10.645   8.019
 5869SOL     OW19445   1.396   0.142   3.885
 5869SOL    HW119446   1.334   0.092   3.938
 5869SOL    HW219447   1.423   0.214   3.942
 5870SOL     OW19448  10.049  13.958  12.079
 5870SOL    HW119449  10.103  13.945  12.001
 5870SOL    HW219450   9.982  13.890  12.074
 5871SOL     OW19451  10.924   1.114   3.789
 5871SOL    HW119452  10.875   1.186   3.828
 5871SOL    HW219453  10.879   1.035   3.819
 5872SOL     OW19454   7.874   1.546  12.776
 5872SOL    HW119455   7.830   1.630  12.766
 5872SOL    HW219456   7.819   1.496  12.836
 5873SOL     OW19457  12.021  13.094   2.203
 5873SOL    HW119458  12.072  13.022   2.167
 5873SOL    HW219459  12.031  13.165   2.138
 5874SOL     OW19460   1.533   5.413   9.786
 5874SOL    HW119461   1.494   5.339   9.833
 5874SOL    HW219462   1.583   5.460   9.853
 5875SOL     OW19463   5.944  13.237  12.031
 5875SOL    HW119464   5.892  13.157  12.038
 5875SOL    HW219465   6.035  13.205  12.027
 5876SOL     OW19466   9.076   7.605   9.556
 5876SOL    HW119467   9.048   7.525   9.511
 5876SOL    HW219468   9.102   7.574   9.643
 5877SOL     OW19469   6.204   3.447   2.568
 5877SOL    HW119470   6.291   3.435   2.532
 5877SOL    HW219471   6.210   3.416   2.659
 5878SOL     OW19472  10.469   8.248   1.659
 5878SOL    HW119473  10.466   8.335   1.701
 5878SOL    HW219474  10.387   8.243   1.609
 5879SOL     OW19475  13.862   9.111   3.903
 5879SOL    HW119476  13.788   9.144   3.954
 5879SOL    HW219477  13.876   9.177   3.836
 5880SOL     OW19478   0.134  12.164  12.816
 5880SOL    HW119479   0.208  12.103  12.815
 5880SOL    HW219480   0.158  12.232  12.755
 5881SOL     OW19481  14.191   9.502   6.994
 5881SOL    HW119482  14.191   9.579   7.051
 5881SOL    HW219483  14.100   9.473   6.993
 5882SOL     OW19484   8.933   5.336   3.028
 5882SOL    HW119485   8.940   5.409   2.966
 5882SOL    HW219486   8.873   5.368   3.096
 5883SOL     OW19487   2.914   6.404   5.669
 5883SOL    HW119488   2.960   6.388   5.586
 5883SOL    HW219489   2.873   6.320   5.690
 5884SOL     OW19490   1.203  12.385   3.700
 5884SOL    HW119491   1.291  12.355   3.723
 5884SOL    HW219492   1.166  12.418   3.782
 5885SOL     OW19493  13.854  13.761   0.073
 5885SOL    HW119494  13.846  13.856   0.085
 5885SOL    HW219495  13.814  13.724   0.152
 5886SOL     OW19496   6.030  11.113   4.030
 5886SOL    HW119497   6.119  11.115   4.066
 5886SOL    HW219498   5.974  11.117   4.107
 5887SOL     OW19499  14.306   6.577   3.554
 5887SOL    HW119500  14.400   6.588   3.564
 5887SOL    HW219501  14.292   6.577   3.460
 5888SOL     OW19502   3.115   9.822   9.660
 5888SOL    HW119503   3.103   9.909   9.698
 5888SOL    HW219504   3.165   9.773   9.726
 5889SOL     OW19505  10.878   9.787   2.004
 5889SOL    HW119506  10.886   9.692   2.013
 5889SOL    HW219507  10.792   9.808   2.041
 5890SOL     OW19508   3.080   2.021  10.749
 5890SOL    HW119509   3.132   2.075  10.690
 5890SOL    HW219510   3.129   2.020  10.832
 5891SOL     OW19511   7.201   0.037   0.640
 5891SOL    HW119512   7.136   0.083   0.587
 5891SOL    HW219513   7.159   0.024   0.725
 5892SOL     OW19514   6.647   5.973   7.189
 5892SOL    HW119515   6.609   5.949   7.104
 5892SOL    HW219516   6.575   5.963   7.251
 5893SOL     OW19517  12.099   5.803  12.899
 5893SOL    HW119518  12.059   5.842  12.977
 5893SOL    HW219519  12.025   5.777  12.844
 5894SOL     OW19520   8.491   5.277   3.711
 5894SOL    HW119521   8.585   5.289   3.725
 5894SOL    HW219522   8.452   5.362   3.733
 5895SOL     OW19523   7.074  10.248   1.501
 5895SOL    HW119524   7.147  10.196   1.468
 5895SOL    HW219525   7.010  10.183   1.530
 5896SOL     OW19526  14.459   1.378  10.088
 5896SOL    HW119527  14.375   1.355  10.050
 5896SOL    HW219528  14.437   1.441  10.157
 5897SOL     OW19529   2.095   0.026   7.248
 5897SOL    HW119530   2.108   0.026   7.343
 5897SOL    HW219531   2.115  14.819   7.220
 5898SOL     OW19532  13.575   8.103  14.062
 5898SOL    HW119533  13.490   8.080  14.025
 5898SOL    HW219534  13.604   8.179  14.012
 5899SOL     OW19535   7.336  13.940  13.292
 5899SOL    HW119536   7.253  13.908  13.328
 5899SOL    HW219537   7.401  13.916  13.358
 5900SOL     OW19538   9.816   1.927  14.058
 5900SOL    HW119539   9.737   1.875  14.042
 5900SOL    HW219540   9.887   1.862  14.060
 5901SOL     OW19541   5.072   0.635   8.576
 5901SOL    HW119542   5.102   0.724   8.556
 5901SOL    HW219543   4.980   0.634   8.547
 5902SOL     OW19544  14.398   0.120   7.565
 5902SOL    HW119545  14.420   0.062   7.638
 5902SOL    HW219546  14.352   0.064   7.503
 5903SOL     OW19547   4.624  14.754  14.537
 5903SOL    HW119548   4.565  14.805  14.592
 5903SOL    HW219549   4.688  14.717  14.599
 5904SOL     OW19550   8.761  13.986   1.207
 5904SOL    HW119551   8.790  14.017   1.121
 5904SOL    HW219552   8.731  14.065   1.252
 5905SOL     OW19553  13.519   0.486  13.612
 5905SOL    HW119554  13.462   0.562  13.619
 5905SOL    HW219555  13.491   0.443  13.531
 5906SOL     OW19556   5.961   4.009   4.691
 5906SOL    HW119557   5.999   4.091   4.658
 5906SOL    HW219558   5.936   3.961   4.613
 5907SOL     OW19559  11.907   2.553  11.252
 5907SOL    HW119560  11.970   2.621  11.229
 5907SOL    HW219561  11.934   2.477  11.201
 5908SOL     OW19562   7.151  10.384  12.725
 5908SOL    HW119563   7.228  10.440  12.737
 5908SOL    HW219564   7.182  10.295  12.743
 5909SOL     OW19565  12.520   8.394   1.621
 5909SOL    HW119566  12.450   8.423   1.562
 5909SOL    HW219567  12.589   8.362   1.563
 5910SOL     OW19568  13.327   6.380   5.251
 5910SOL    HW119569  13.366   6.465   5.274
 5910SOL    HW219570  13.294   6.392   5.162
 5911SOL     OW19571   1.194   6.320  10.689
 5911SOL    HW119572   1.163   6.234  10.717
 5911SOL    HW219573   1.144   6.340  10.610
 5912SOL     OW19574   3.144  14.284  14.253
 5912SOL    HW119575   3.059  14.302  14.292
 5912SOL    HW219576   3.153  14.188  14.256
 5913SOL     OW19577  13.719  13.109  10.737
 5913SOL    HW119578  13.637  13.121  10.689
 5913SOL    HW219579  13.766  13.191  10.723
 5914SOL     OW19580   0.706   3.802  12.557
 5914SOL    HW119581   0.611   3.801  12.540
 5914SOL    HW219582   0.742   3.853  12.485
 5915SOL     OW19583  11.206   7.065  10.509
 5915SOL    HW119584  11.285   7.014  10.492
 5915SOL    HW219585  11.221   7.150  10.467
 5916SOL     OW19586  13.096  13.891  11.608
 5916SOL    HW119587  13.051  13.815  11.643
 5916SOL    HW219588  13.077  13.961  11.671
 5917SOL     OW19589   3.258   1.808  12.919
 5917SOL    HW119590   3.242   1.901  12.904
 5917SOL    HW219591   3.334   1.805  12.977
 5918SOL     OW19592   7.382  13.276   6.748
 5918SOL    HW119593   7.343  13.323   6.822
 5918SOL    HW219594   7.460  13.234   6.784
 5919SOL     OW19595   6.386   0.142   6.442
 5919SOL    HW119596   6.367   0.206   6.374
 5919SOL    HW219597   6.308   0.087   6.447
 5920SOL     OW19598   9.838   1.416   4.668
 5920SOL    HW119599   9.834   1.468   4.749
 5920SOL    HW219600   9.829   1.480   4.598
 5921SOL     OW19601   5.060  12.049  12.259
 5921SOL    HW119602   5.060  12.044  12.164
 5921SOL    HW219603   4.970  12.028  12.284
 5922SOL     OW19604   2.239   9.739   6.315
 5922SOL    HW119605   2.288   9.748   6.397
 5922SOL    HW219606   2.304   9.709   6.252
 5923SOL     OW19607  12.499  11.182   7.146
 5923SOL    HW119608  12.493  11.276   7.130
 5923SOL    HW219609  12.409  11.150   7.142
 5924SOL     OW19610   0.799   8.875   2.170
 5924SOL    HW119611   0.713   8.915   2.187
 5924SOL    HW219612   0.779   8.782   2.157
 5925SOL     OW19613   3.272   1.433  13.137
 5925SOL    HW119614   3.264   1.465  13.227
 5925SOL    HW219615   3.361   1.399  13.131
 5926SOL     OW19616  13.726  11.417   2.695
 5926SOL    HW119617  13.637  11.442   2.719
 5926SOL    HW219618  13.752  11.481   2.628
 5927SOL     OW19619  11.557   3.815  14.166
 5927SOL    HW119620  11.466   3.843  14.176
 5927SOL    HW219621  11.608   3.896  14.169
 5928SOL     OW19622  14.294  13.256   1.745
 5928SOL    HW119623  14.389  13.247   1.750
 5928SOL    HW219624  14.271  13.311   1.821
 5929SOL     OW19625  12.286  14.696   9.987
 5929SOL    HW119626  12.201  14.738   9.970
 5929SOL    HW219627  12.351  14.759   9.955
 5930SOL     OW19628   4.006  13.275  10.847
 5930SOL    HW119629   4.012  13.315  10.760
 5930SOL    HW219630   3.912  13.263  10.861
 5931SOL     OW19631   1.854  13.731   1.801
 5931SOL    HW119632   1.774  13.701   1.844
 5931SOL    HW219633   1.834  13.730   1.708
 5932SOL     OW19634  11.260  13.855   6.292
 5932SOL    HW119635  11.222  13.825   6.375
 5932SOL    HW219636  11.240  13.786   6.229
 5933SOL     OW19637  14.009   4.871   6.973
 5933SOL    HW119638  13.997   4.927   6.896
 5933SOL    HW219639  13.991   4.783   6.941
 5934SOL     OW19640  13.074   9.026  13.116
 5934SOL    HW119641  13.040   9.076  13.042
 5934SOL    HW219642  13.156   9.070  13.139
 5935SOL     OW19643   4.421   5.878   0.809
 5935SOL    HW119644   4.353   5.811   0.804
 5935SOL    HW219645   4.439   5.900   0.717
 5936SOL     OW19646  12.149   8.614   2.483
 5936SOL    HW119647  12.219   8.659   2.532
 5936SOL    HW219648  12.195   8.551   2.428
 5937SOL     OW19649   8.251   6.375   4.657
 5937SOL    HW119650   8.311   6.340   4.723
 5937SOL    HW219651   8.253   6.470   4.672
 5938SOL     OW19652  14.536  12.543   6.903
 5938SOL    HW119653  14.534  12.582   6.990
 5938SOL    HW219654  14.556  12.451   6.918
 5939SOL     OW19655  12.007   0.206  13.109
 5939SOL    HW119656  11.990   0.119  13.143
 5939SOL    HW219657  12.062   0.192  13.032
 5940SOL     OW19658   0.308   4.262   1.348
 5940SOL    HW119659   0.317   4.175   1.309
 5940SOL    HW219660   0.365   4.260   1.425
 5941SOL     OW19661  14.261  12.630   8.414
 5941SOL    HW119662  14.325  12.560   8.399
 5941SOL    HW219663  14.177  12.584   8.419
 5942SOL     OW19664  11.424   1.155   8.991
 5942SOL    HW119665  11.340   1.114   8.973
 5942SOL    HW219666  11.436   1.218   8.919
 5943SOL     OW19667   3.216   3.861   6.955
 5943SOL    HW119668   3.190   3.869   6.864
 5943SOL    HW219669   3.297   3.912   6.961
 5944SOL     OW19670  13.497   3.038  14.776
 5944SOL    HW119671  13.584   3.044  14.737
 5944SOL    HW219672  13.464   3.128  14.776
 5945SOL     OW19673  10.502   8.169  10.679
 5945SOL    HW119674  10.434   8.199  10.739
 5945SOL    HW219675  10.496   8.228  10.604
 5946SOL     OW19676  14.137   0.800   7.015
 5946SOL    HW119677  14.066   0.780   6.955
 5946SOL    HW219678  14.147   0.721   7.068
 5947SOL     OW19679   7.651  10.117   5.929
 5947SOL    HW119680   7.576  10.150   5.978
 5947SOL    HW219681   7.726  10.160   5.969
 5948SOL     OW19682   9.584   2.123   1.541
 5948SOL    HW119683   9.624   2.099   1.625
 5948SOL    HW219684   9.656   2.161   1.490
 5949SOL     OW19685  10.030  11.280   7.565
 5949SOL    HW119686  10.088  11.218   7.610
 5949SOL    HW219687  10.087  11.325   7.503
 5950SOL     OW19688  13.769   6.923  11.488
 5950SOL    HW119689  13.700   6.987  11.471
 5950SOL    HW219690  13.738   6.843  11.446
 5951SOL     OW19691  11.086   6.371   8.148
 5951SOL    HW119692  11.025   6.445   8.149
 5951SOL    HW219693  11.133   6.378   8.231
 5952SOL     OW19694   8.941  11.670   7.365
 5952SOL    HW119695   8.863  11.658   7.420
 5952SOL    HW219696   8.928  11.610   7.291
 5953SOL     OW19697   7.995   4.345  13.038
 5953SOL    HW119698   7.953   4.294  12.969
 5953SOL    HW219699   8.019   4.281  13.105
 5954SOL     OW19700   8.931   4.748   2.504
 5954SOL    HW119701   8.947   4.724   2.596
 5954SOL    HW219702   8.909   4.841   2.507
 5955SOL     OW19703   4.123   9.975   2.197
 5955SOL    HW119704   4.187  10.006   2.133
 5955SOL    HW219705   4.176   9.953   2.274
 5956SOL     OW19706   0.090   4.830  13.885
 5956SOL    HW119707   0.079   4.754  13.942
 5956SOL    HW219708   0.154   4.885  13.930
 5957SOL     OW19709  13.853   2.079   3.408
 5957SOL    HW119710  13.855   2.039   3.495
 5957SOL    HW219711  13.818   2.010   3.351
 5958SOL     OW19712   8.482  13.322  13.870
 5958SOL    HW119713   8.499  13.258  13.801
 5958SOL    HW219714   8.476  13.406  13.824
 5959SOL     OW19715  10.461   0.337   3.714
 5959SOL    HW119716  10.385   0.375   3.670
 5959SOL    HW219717  10.441   0.244   3.721
 5960SOL     OW19718   6.927   9.201   5.351
 5960SOL    HW119719   6.962   9.290   5.347
 5960SOL    HW219720   6.989   9.153   5.405
 5961SOL     OW19721  13.849   6.595   6.565
 5961SOL    HW119722  13.883   6.511   6.596
 5961SOL    HW219723  13.757   6.594   6.592
 5962SOL     OW19724   6.970   3.387  10.357
 5962SOL    HW119725   7.002   3.474  10.333
 5962SOL    HW219726   7.005   3.328  10.290
 5963SOL     OW19727  13.921   0.191   1.530
 5963SOL    HW119728  13.889   0.101   1.530
 5963SOL    HW219729  13.884   0.230   1.451
 5964SOL     OW19730   0.135   2.081  13.677
 5964SOL    HW119731   0.106   1.991  13.659
 5964SOL    HW219732   0.081   2.136  13.620
 5965SOL     OW19733   1.462   1.361   8.946
 5965SOL    HW119734   1.526   1.339   9.014
 5965SOL    HW219735   1.449   1.455   8.954
 5966SOL     OW19736   7.319   3.352   8.338
 5966SOL    HW119737   7.395   3.315   8.384
 5966SOL    HW219738   7.264   3.387   8.407
 5967SOL     OW19739   2.256   2.442   1.215
 5967SOL    HW119740   2.180   2.489   1.251
 5967SOL    HW219741   2.250   2.457   1.121
 5968SOL     OW19742   9.164   0.077   4.961
 5968SOL    HW119743   9.096   0.090   4.894
 5968SOL    HW219744   9.118   0.092   5.044
 5969SOL     OW19745  13.780  11.491  13.913
 5969SOL    HW119746  13.722  11.504  13.987
 5969SOL    HW219747  13.864  11.529  13.941
 5970SOL     OW19748   2.559   5.560   4.392
 5970SOL    HW119749   2.620   5.581   4.463
 5970SOL    HW219750   2.546   5.644   4.347
 5971SOL     OW19751   7.645  11.461   1.643
 5971SOL    HW119752   7.704  11.466   1.718
 5971SOL    HW219753   7.564  11.504   1.673
 5972SOL     OW19754   4.631  10.743   7.738
 5972SOL    HW119755   4.612  10.667   7.794
 5972SOL    HW219756   4.572  10.811   7.770
 5973SOL     OW19757  11.240   3.353   7.009
 5973SOL    HW119758  11.274   3.434   7.048
 5973SOL    HW219759  11.183   3.383   6.938
 5974SOL     OW19760   7.044   7.170  11.325
 5974SOL    HW119761   7.008   7.187  11.238
 5974SOL    HW219762   7.024   7.249  11.375
 5975SOL     OW19763   7.948   1.567   5.358
 5975SOL    HW119764   7.955   1.626   5.433
 5975SOL    HW219765   7.861   1.527   5.367
 5976SOL     OW19766   8.814  11.235   3.496
 5976SOL    HW119767   8.888  11.176   3.488
 5976SOL    HW219768   8.763  11.200   3.569
 5977SOL     OW19769   4.577  10.347   8.811
 5977SOL    HW119770   4.606  10.256   8.807
 5977SOL    HW219771   4.524  10.352   8.890
 5978SOL     OW19772  14.441  11.355   0.408
 5978SOL    HW119773  14.467  11.361   0.500
 5978SOL    HW219774  14.359  11.304   0.410
 5979SOL     OW19775   6.554  12.666  14.167
 5979SOL    HW119776   6.479  12.703  14.212
 5979SOL    HW219777   6.594  12.740  14.122
 5980SOL     OW19778   7.028   7.341  13.210
 5980SOL    HW119779   7.052   7.284  13.137
 5980SOL    HW219780   6.932   7.336  13.214
 5981SOL     OW19781   3.761   6.980  12.914
 5981SOL    HW119782   3.770   7.033  12.834
 5981SOL    HW219783   3.762   6.890  12.883
 5982SOL     OW19784   6.736  10.446   6.328
 5982SOL    HW119785   6.722  10.510   6.258
 5982SOL    HW219786   6.654  10.397   6.332
 5983SOL     OW19787   7.619  11.850   1.739
 5983SOL    HW119788   7.686  11.805   1.791
 5983SOL    HW219789   7.621  11.941   1.770
 5984SOL     OW19790   6.789   3.967   6.697
 5984SOL    HW119791   6.866   3.966   6.639
 5984SOL    HW219792   6.826   3.967   6.785
 5985SOL     OW19793   7.336   1.899   0.827
 5985SOL    HW119794   7.322   1.805   0.819
 5985SOL    HW219795   7.431   1.909   0.822
 5986SOL     OW19796   0.434   1.047   0.932
 5986SOL    HW119797   0.341   1.047   0.955
 5986SOL    HW219798   0.448   0.961   0.891
 5987SOL     OW19799   8.399  12.417   7.381
 5987SOL    HW119800   8.451  12.339   7.396
 5987SOL    HW219801   8.392  12.458   7.467
 5988SOL     OW19802   3.858  11.533  13.053
 5988SOL    HW119803   3.878  11.559  12.963
 5988SOL    HW219804   3.866  11.437  13.053
 5989SOL     OW19805   0.926   0.014   7.713
 5989SOL    HW119806   0.943  14.858   7.799
 5989SOL    HW219807   0.970  14.837   7.652
 5990SOL     OW19808  13.966  12.990  14.629
 5990SOL    HW119809  14.046  13.028  14.667
 5990SOL    HW219810  13.997  12.934  14.558
 5991SOL     OW19811   7.654  11.087   3.960
 5991SOL    HW119812   7.600  11.137   4.021
 5991SOL    HW219813   7.640  11.128   3.875
 5992SOL     OW19814   1.243   8.567   7.844
 5992SOL    HW119815   1.257   8.510   7.919
 5992SOL    HW219816   1.232   8.507   7.770
 5993SOL     OW19817   3.167  12.256   8.307
 5993SOL    HW119818   3.121  12.181   8.269
 5993SOL    HW219819   3.118  12.332   8.277
 5994SOL     OW19820   0.868  11.602   4.004
 5994SOL    HW119821   0.808  11.528   4.011
 5994SOL    HW219822   0.951  11.563   3.974
 5995SOL     OW19823   6.385  13.470   1.565
 5995SOL    HW119824   6.353  13.508   1.647
 5995SOL    HW219825   6.307  13.460   1.511
 5996SOL     OW19826   3.895   1.559   5.056
 5996SOL    HW119827   3.896   1.497   5.128
 5996SOL    HW219828   3.866   1.508   4.980
 5997SOL     OW19829  13.448  14.188   6.182
 5997SOL    HW119830  13.418  14.246   6.252
 5997SOL    HW219831  13.535  14.159   6.210
 5998SOL     OW19832  11.160   3.540  12.566
 5998SOL    HW119833  11.210   3.504  12.639
 5998SOL    HW219834  11.223   3.590  12.515
 5999SOL     OW19835   3.664   0.996  12.603
 5999SOL    HW119836   3.693   0.924  12.547
 5999SOL    HW219837   3.572   1.009  12.581
 6000SOL     OW19838  12.742  11.349   8.376
 6000SOL    HW119839  12.834  11.321   8.378
 6000SOL    HW219840  12.693  11.270   8.399
 6001SOL     OW19841   7.974   8.540   5.054
 6001SOL    HW119842   7.895   8.508   5.010
 6001SOL    HW219843   8.007   8.609   4.997
 6002SOL     OW19844   4.486   0.753  11.814
 6002SOL    HW119845   4.429   0.687  11.855
 6002SOL    HW219846   4.555   0.702  11.772
 6003SOL     OW19847  11.024  13.789   7.525
 6003SOL    HW119848  11.090  13.794   7.594
 6003SOL    HW219849  11.033  13.871   7.477
 6004SOL     OW19850   6.098   9.523   6.530
 6004SOL    HW119851   6.065   9.447   6.482
 6004SOL    HW219852   6.184   9.496   6.563
 6005SOL     OW19853  11.039   7.576  12.547
 6005SOL    HW119854  11.033   7.580  12.642
 6005SOL    HW219855  10.974   7.510  12.522
 6006SOL     OW19856   4.061   0.873  11.509
 6006SOL    HW119857   4.117   0.842  11.580
 6006SOL    HW219858   4.008   0.943  11.548
 6007SOL     OW19859   4.928  14.611   6.096
 6007SOL    HW119860   4.972  14.655   6.169
 6007SOL    HW219861   4.942  14.669   6.021
 6008SOL     OW19862   1.812  11.094   2.720
 6008SOL    HW119863   1.886  11.124   2.773
 6008SOL    HW219864   1.734  11.116   2.772
 6009SOL     OW19865   9.718  14.860  10.044
 6009SOL    HW119866   9.764   0.038   9.986
 6009SOL    HW219867   9.736  14.773  10.009
 6010SOL     OW19868  14.352   0.830   0.727
 6010SOL    HW119869  14.262   0.862   0.724
 6010SOL    HW219870  14.400   0.889   0.669
 6011SOL     OW19871  10.540   4.818   5.941
 6011SOL    HW119872  10.604   4.818   6.012
 6011SOL    HW219873  10.577   4.879   5.877
 6012SOL     OW19874   0.929  10.752  11.915
 6012SOL    HW119875   0.914  10.819  11.849
 6012SOL    HW219876   0.901  10.791  11.997
 6013SOL     OW19877  11.505   9.081   0.867
 6013SOL    HW119878  11.466   8.995   0.853
 6013SOL    HW219879  11.564   9.068   0.942
 6014SOL     OW19880   7.266  14.211   4.562
 6014SOL    HW119881   7.232  14.185   4.476
 6014SOL    HW219882   7.192  14.252   4.606
 6015SOL     OW19883   3.183  13.464  10.631
 6015SOL    HW119884   3.240  13.497  10.701
 6015SOL    HW219885   3.208  13.372  10.621
 6016SOL     OW19886  11.799   5.288  13.724
 6016SOL    HW119887  11.823   5.257  13.812
 6016SOL    HW219888  11.827   5.379  13.722
 6017SOL     OW19889   8.634  14.213   3.306
 6017SOL    HW119890   8.558  14.159   3.283
 6017SOL    HW219891   8.707  14.171   3.261
 6018SOL     OW19892  14.312   5.545   3.815
 6018SOL    HW119893  14.404   5.553   3.837
 6018SOL    HW219894  14.274   5.631   3.834
 6019SOL     OW19895  13.589   9.872   7.208
 6019SOL    HW119896  13.588   9.800   7.272
 6019SOL    HW219897  13.655   9.932   7.241
 6020SOL     OW19898   1.792  12.765   9.294
 6020SOL    HW119899   1.780  12.723   9.209
 6020SOL    HW219900   1.740  12.845   9.289
 6021SOL     OW19901  10.597  13.286   1.214
 6021SOL    HW119902  10.628  13.328   1.294
 6021SOL    HW219903  10.590  13.358   1.151
 6022SOL     OW19904   2.046   3.350   9.817
 6022SOL    HW119905   2.079   3.383   9.900
 6022SOL    HW219906   2.017   3.427   9.770
 6023SOL     OW19907   1.704   0.129   7.645
 6023SOL    HW119908   1.661   0.177   7.575
 6023SOL    HW219909   1.669   0.167   7.726
 6024SOL     OW19910   5.525  10.498   6.580
 6024SOL    HW119911   5.463  10.425   6.576
 6024SOL    HW219912   5.503  10.545   6.660
 6025SOL     OW19913  10.920  14.676  13.992
 6025SOL    HW119914  10.885  14.745  13.935
 6025SOL    HW219915  10.853  14.607  13.990
 6026SOL     OW19916  10.775  11.559   1.007
 6026SOL    HW119917  10.856  11.610   1.015
 6026SOL    HW219918  10.792  11.478   1.055
 6027SOL     OW19919  11.521  12.352  12.032
 6027SOL    HW119920  11.588  12.285  12.022
 6027SOL    HW219921  11.444  12.316  11.989
 6028SOL     OW19922   8.252   7.570   0.056
 6028SOL    HW119923   8.333   7.601   0.014
 6028SOL    HW219924   8.269   7.577   0.150
 6029SOL     OW19925   3.478   3.063  10.333
 6029SOL    HW119926   3.384   3.055  10.320
 6029SOL    HW219927   3.488   3.095  10.422
 6030SOL     OW19928   5.474   9.553   8.890
 6030SOL    HW119929   5.511   9.636   8.918
 6030SOL    HW219930   5.470   9.560   8.794
 6031SOL     OW19931   4.609  13.732  13.026
 6031SOL    HW119932   4.546  13.702  12.961
 6031SOL    HW219933   4.667  13.657  13.040
 6032SOL     OW19934   8.611   3.148   4.943
 6032SOL    HW119935   8.683   3.096   4.978
 6032SOL    HW219936   8.593   3.110   4.858
 6033SOL     OW19937   7.261   4.411  12.885
 6033SOL    HW119938   7.341   4.402  12.936
 6033SOL    HW219939   7.243   4.505  12.885
 6034SOL     OW19940  12.992  14.805   5.487
 6034SOL    HW119941  12.953  14.718   5.478
 6034SOL    HW219942  13.000  14.817   5.582
 6035SOL     OW19943  11.825   1.736   9.031
 6035SOL    HW119944  11.917   1.740   9.057
 6035SOL    HW219945  11.796   1.827   9.030
 6036SOL     OW19946   8.588  14.757  13.858
 6036SOL    HW119947   8.531  14.832  13.871
 6036SOL    HW219948   8.582  14.707  13.939
 6037SOL     OW19949   3.768   3.881   4.586
 6037SOL    HW119950   3.819   3.866   4.506
 6037SOL    HW219951   3.793   3.969   4.614
 6038SOL     OW19952  13.169   6.501   4.629
 6038SOL    HW119953  13.222   6.421   4.629
 6038SOL    HW219954  13.085   6.474   4.593
 6039SOL     OW19955   2.341  12.281  13.406
 6039SOL    HW119956   2.379  12.194  13.414
 6039SOL    HW219957   2.406  12.331  13.356
 6040SOL     OW19958  14.618  12.878  11.332
 6040SOL    HW119959  14.627  12.924  11.249
 6040SOL    HW219960  14.532  12.838  11.329
 6041SOL     OW19961   3.081   5.773  10.829
 6041SOL    HW119962   3.072   5.755  10.736
 6041SOL    HW219963   3.081   5.686  10.871
 6042SOL     OW19964  12.203   4.650   1.093
 6042SOL    HW119965  12.116   4.687   1.107
 6042SOL    HW219966  12.203   4.623   1.001
 6043SOL     OW19967   5.717  13.202   3.624
 6043SOL    HW119968   5.678  13.196   3.711
 6043SOL    HW219969   5.692  13.121   3.580
 6044SOL     OW19970   2.255  14.552   9.179
 6044SOL    HW119971   2.230  14.469   9.220
 6044SOL    HW219972   2.234  14.540   9.087
 6045SOL     OW19973   7.214  10.343  14.497
 6045SOL    HW119974   7.188  10.342  14.404
 6045SOL    HW219975   7.259  10.260  14.510
 6046SOL     OW19976  12.129  11.252   3.366
 6046SOL    HW119977  12.209  11.223   3.412
 6046SOL    HW219978  12.110  11.181   3.306
 6047SOL     OW19979   1.805   2.216   0.400
 6047SOL    HW119980   1.863   2.275   0.352
 6047SOL    HW219981   1.758   2.273   0.461
 6048SOL     OW19982   6.532   6.604  14.678
 6048SOL    HW119983   6.502   6.516  14.654
 6048SOL    HW219984   6.524   6.607  14.773
 6049SOL     OW19985   0.952   9.346   7.063
 6049SOL    HW119986   0.889   9.337   7.134
 6049SOL    HW219987   0.913   9.296   6.990
 6050SOL     OW19988   2.906  12.678   2.094
 6050SOL    HW119989   2.911  12.594   2.047
 6050SOL    HW219990   2.889  12.653   2.185
 6051SOL     OW19991  11.982   3.324   6.712
 6051SOL    HW119992  12.073   3.299   6.695
 6051SOL    HW219993  11.930   3.261   6.662
 6052SOL     OW19994  13.625   2.491   4.345
 6052SOL    HW119995  13.675   2.553   4.400
 6052SOL    HW219996  13.680   2.413   4.342
 6053SOL     OW19997   9.638   3.741   2.112
 6053SOL    HW119998   9.577   3.716   2.042
 6053SOL    HW219999   9.715   3.686   2.098
 6054SOL     OW20000   8.936   3.457   3.419
 6054SOL    HW120001   8.999   3.408   3.367
 6054SOL    HW220002   8.982   3.537   3.445
 6055SOL     OW20003  12.526  12.046   9.568
 6055SOL    HW120004  12.587  12.109   9.604
 6055SOL    HW220005  12.551  11.962   9.607
 6056SOL     OW20006  12.271   1.222   5.651
 6056SOL    HW120007  12.237   1.308   5.672
 6056SOL    HW220008  12.336   1.237   5.583
 6057SOL     OW20009   5.593   1.648  11.279
 6057SOL    HW120010   5.640   1.719  11.324
 6057SOL    HW220011   5.647   1.628  11.202
 6058SOL     OW20012  12.289   3.136  13.988
 6058SOL    HW120013  12.250   3.150  13.901
 6058SOL    HW220014  12.382   3.119  13.970
 6059SOL     OW20015   9.646   1.743   8.969
 6059SOL    HW120016   9.571   1.780   9.016
 6059SOL    HW220017   9.709   1.815   8.962
 6060SOL     OW20018   0.346  12.170  11.666
 6060SOL    HW120019   0.406  12.098  11.691
 6060SOL    HW220020   0.370  12.190  11.576
 6061SOL     OW20021   2.142   6.023  13.175
 6061SOL    HW120022   2.210   6.088  13.159
 6061SOL    HW220023   2.060   6.070  13.160
 6062SOL     OW20024   2.415   9.086  14.486
 6062SOL    HW120025   2.502   9.070  14.451
 6062SOL    HW220026   2.374   9.000  14.492
 6063SOL     OW20027  10.919  12.814   9.237
 6063SOL    HW120028  10.866  12.892   9.219
 6063SOL    HW220029  10.954  12.829   9.325
 6064SOL     OW20030   4.726  12.578  14.328
 6064SOL    HW120031   4.734  12.512  14.397
 6064SOL    HW220032   4.631  12.586  14.314
 6065SOL     OW20033   8.868   0.969  12.260
 6065SOL    HW120034   8.833   1.053  12.290
 6065SOL    HW220035   8.815   0.947  12.184
 6066SOL     OW20036  12.685  14.673  12.995
 6066SOL    HW120037  12.615  14.738  12.996
 6066SOL    HW220038  12.695  14.647  13.087
 6067SOL     OW20039   2.428   5.674   5.543
 6067SOL    HW120040   2.342   5.648   5.511
 6067SOL    HW220041   2.412   5.757   5.590
 6068SOL     OW20042   3.921  14.352   6.802
 6068SOL    HW120043   4.007  14.330   6.838
 6068SOL    HW220044   3.937  14.366   6.709
 6069SOL     OW20045   7.598   4.826  14.050
 6069SOL    HW120046   7.528   4.804  14.112
 6069SOL    HW220047   7.602   4.922  14.053
 6070SOL     OW20048   5.427  13.697   8.605
 6070SOL    HW120049   5.412  13.732   8.517
 6070SOL    HW220050   5.382  13.758   8.663
 6071SOL     OW20051   0.631   1.238   2.474
 6071SOL    HW120052   0.624   1.197   2.560
 6071SOL    HW220053   0.545   1.278   2.460
 6072SOL     OW20054  12.799   2.656   6.947
 6072SOL    HW120055  12.752   2.666   6.864
 6072SOL    HW220056  12.788   2.563   6.969
 6073SOL     OW20057   9.619  11.933  13.825
 6073SOL    HW120058   9.627  11.866  13.893
 6073SOL    HW220059   9.699  11.923  13.773
 6074SOL     OW20060  14.828   5.606   8.028
 6074SOL    HW120061  14.739   5.588   7.996
 6074SOL    HW220062  14.830   5.569   8.116
 6075SOL     OW20063   5.111  13.135  13.753
 6075SOL    HW120064   5.082  13.104  13.667
 6075SOL    HW220065   5.200  13.100  13.762
 6076SOL     OW20066   7.488   7.795   7.625
 6076SOL    HW120067   7.448   7.760   7.703
 6076SOL    HW220068   7.552   7.728   7.598
 6077SOL     OW20069  14.658  14.155  13.273
 6077SOL    HW120070  14.586  14.200  13.228
 6077SOL    HW220071  14.670  14.074  13.222
 6078SOL     OW20072   6.556   2.431   8.600
 6078SOL    HW120073   6.528   2.455   8.512
 6078SOL    HW220074   6.474   2.422   8.650
 6079SOL     OW20075  11.951   9.769  11.581
 6079SOL    HW120076  11.983   9.840  11.526
 6079SOL    HW220077  11.857   9.766  11.564
 6080SOL     OW20078   5.167   8.625   8.611
 6080SOL    HW120079   5.188   8.571   8.687
 6080SOL    HW220080   5.249   8.671   8.592
 6081SOL     OW20081   4.412  10.995  13.149
 6081SOL    HW120082   4.371  10.957  13.072
 6081SOL    HW220083   4.400  10.929  13.217
 6082SOL     OW20084  13.607   1.230   3.279
 6082SOL    HW120085  13.631   1.151   3.326
 6082SOL    HW220086  13.691   1.274   3.262
 6083SOL     OW20087   2.871  11.215  14.100
 6083SOL    HW120088   2.883  11.285  14.164
 6083SOL    HW220089   2.946  11.158  14.112
 6084SOL     OW20090  10.874  13.269  13.146
 6084SOL    HW120091  10.881  13.335  13.077
 6084SOL    HW220092  10.847  13.189  13.100
 6085SOL     OW20093   5.167  12.681   8.777
 6085SOL    HW120094   5.100  12.684   8.845
 6085SOL    HW220095   5.120  12.656   8.697
 6086SOL     OW20096   6.617   0.388   9.621
 6086SOL    HW120097   6.532   0.428   9.602
 6086SOL    HW220098   6.658   0.449   9.683
 6087SOL     OW20099   2.878  11.863   1.971
 6087SOL    HW120100   2.817  11.909   1.914
 6087SOL    HW220101   2.906  11.787   1.921
 6088SOL     OW20102   2.049  13.056   8.419
 6088SOL    HW120103   2.136  13.024   8.396
 6088SOL    HW220104   1.998  12.977   8.439
 6089SOL     OW20105   1.842   7.903   4.259
 6089SOL    HW120106   1.884   7.906   4.173
 6089SOL    HW220107   1.913   7.881   4.319
 6090SOL     OW20108   0.046  14.505   9.276
 6090SOL    HW120109   0.082  14.455   9.203
 6090SOL    HW220110  14.863  14.563   9.236
 6091SOL     OW20111  12.228   1.564   1.307
 6091SOL    HW120112  12.280   1.591   1.231
 6091SOL    HW220113  12.137   1.578   1.280
 6092SOL     OW20114  10.652   0.268  11.301
 6092SOL    HW120115  10.593   0.337  11.332
 6092SOL    HW220116  10.712   0.313  11.242
 6093SOL     OW20117   6.802   8.368   4.109
 6093SOL    HW120118   6.785   8.289   4.160
 6093SOL    HW220119   6.865   8.340   4.042
 6094SOL     OW20120   2.680   9.588   9.989
 6094SOL    HW120121   2.599   9.542  10.007
 6094SOL    HW220122   2.740   9.520   9.957
 6095SOL     OW20123   0.805   1.360  12.096
 6095SOL    HW120124   0.796   1.439  12.042
 6095SOL    HW220125   0.725   1.311  12.081
 6096SOL     OW20126   2.267   5.349  13.890
 6096SOL    HW120127   2.357   5.378  13.901
 6096SOL    HW220128   2.271   5.254  13.905
 6097SOL     OW20129   6.560   2.574   5.802
 6097SOL    HW120130   6.577   2.649   5.859
 6097SOL    HW220131   6.503   2.517   5.854
 6098SOL     OW20132  13.726  10.416   7.187
 6098SOL    HW120133  13.722  10.480   7.117
 6098SOL    HW220134  13.743  10.333   7.143
 6099SOL     OW20135  10.928  14.035   7.048
 6099SOL    HW120136  10.898  14.106   6.991
 6099SOL    HW220137  11.023  14.036   7.039
 6100SOL     OW20138  10.022   0.519  12.511
 6100SOL    HW120139  10.085   0.531  12.583
 6100SOL    HW220140   9.960   0.455  12.545
 6101SOL     OW20141   3.593   9.347  11.450
 6101SOL    HW120142   3.661   9.307  11.505
 6101SOL    HW220143   3.631   9.430  11.422
 6102SOL     OW20144  12.428   7.087  12.422
 6102SOL    HW120145  12.375   7.078  12.343
 6102SOL    HW220146  12.389   7.027  12.484
 6103SOL     OW20147   9.826   4.818   4.970
 6103SOL    HW120148   9.822   4.734   4.924
 6103SOL    HW220149   9.900   4.810   5.030
 6104SOL     OW20150   8.339   4.684   3.133
 6104SOL    HW120151   8.321   4.665   3.041
 6104SOL    HW220152   8.285   4.759   3.153
 6105SOL     OW20153   0.124   3.700   3.959
 6105SOL    HW120154   0.049   3.760   3.960
 6105SOL    HW220155   0.195   3.751   3.919
 6106SOL     OW20156  14.645  12.680   6.703
 6106SOL    HW120157  14.630  12.625   6.780
 6106SOL    HW220158  14.726  12.646   6.665
 6107SOL     OW20159   8.599   7.957   9.216
 6107SOL    HW120160   8.608   8.023   9.147
 6107SOL    HW220161   8.573   8.007   9.293
 6108SOL     OW20162  11.970   3.733   8.168
 6108SOL    HW120163  11.943   3.804   8.227
 6108SOL    HW220164  12.061   3.755   8.145
 6109SOL     OW20165  12.264  14.123   7.598
 6109SOL    HW120166  12.213  14.177   7.539
 6109SOL    HW220167  12.212  14.116   7.678
 6110SOL     OW20168  10.353   7.895   1.001
 6110SOL    HW120169  10.304   7.813   0.988
 6110SOL    HW220170  10.321   7.953   0.933
 6111SOL     OW20171   0.435   2.940   2.011
 6111SOL    HW120172   0.510   2.999   2.002
 6111SOL    HW220173   0.474   2.853   2.011
 6112SOL     OW20174  10.614  13.053   6.347
 6112SOL    HW120175  10.574  13.034   6.262
 6112SOL    HW220176  10.604  12.972   6.397
 6113SOL     OW20177  11.895  11.050   7.168
 6113SOL    HW120178  11.868  11.091   7.250
 6113SOL    HW220179  11.920  10.961   7.192
 6114SOL     OW20180  10.212  12.904   3.822
 6114SOL    HW120181  10.137  12.909   3.762
 6114SOL    HW220182  10.202  12.820   3.866
 6115SOL     OW20183   3.692   7.578   6.950
 6115SOL    HW120184   3.683   7.653   6.892
 6115SOL    HW220185   3.759   7.524   6.908
 6116SOL     OW20186   5.965   8.114   2.524
 6116SOL    HW120187   5.890   8.056   2.537
 6116SOL    HW220188   5.931   8.202   2.541
 6117SOL     OW20189  11.785   4.765  10.608
 6117SOL    HW120190  11.840   4.694  10.641
 6117SOL    HW220191  11.711   4.720  10.567
 6118SOL     OW20192   9.823  11.696  10.286
 6118SOL    HW120193   9.885  11.767  10.274
 6118SOL    HW220194   9.750  11.736  10.333
 6119SOL     OW20195   8.737   4.757   4.948
 6119SOL    HW120196   8.758   4.820   4.879
 6119SOL    HW220197   8.645   4.773   4.969
 6120SOL     OW20198  10.282  14.806   2.936
 6120SOL    HW120199  10.373  14.805   2.907
 6120SOL    HW220200  10.234  14.844   2.862
 6121SOL     OW20201  14.876  12.497   3.461
 6121SOL    HW120202   0.077  12.455   3.436
 6121SOL    HW220203   0.018  12.589   3.475
 6122SOL     OW20204   7.675   2.565  14.450
 6122SOL    HW120205   7.601   2.555  14.510
 6122SOL    HW220206   7.637   2.553  14.363
 6123SOL     OW20207  13.476   9.361   3.172
 6123SOL    HW120208  13.489   9.426   3.104
 6123SOL    HW220209  13.403   9.308   3.141
 6124SOL     OW20210  11.420   9.968   6.765
 6124SOL    HW120211  11.408   9.966   6.860
 6124SOL    HW220212  11.355   9.905   6.731
 6125SOL     OW20213   4.854  11.236   8.380
 6125SOL    HW120214   4.901  11.195   8.307
 6125SOL    HW220215   4.835  11.165   8.440
 6126SOL     OW20216  11.744  12.870   2.938
 6126SOL    HW120217  11.775  12.788   2.976
 6126SOL    HW220218  11.808  12.890   2.870
 6127SOL     OW20219  14.365   5.055   7.666
 6127SOL    HW120220  14.361   5.115   7.740
 6127SOL    HW220221  14.458   5.033   7.657
 6128SOL     OW20222   9.835   4.004  14.476
 6128SOL    HW120223   9.928   4.012  14.494
 6128SOL    HW220224   9.828   3.934  14.412
 6129SOL     OW20225  11.954   0.417  12.760
 6129SOL    HW120226  12.029   0.414  12.701
 6129SOL    HW220227  11.968   0.496  12.814
 6130SOL     OW20228   7.952   2.147  13.495
 6130SOL    HW120229   7.936   2.206  13.421
 6130SOL    HW220230   7.907   2.066  13.471
 6131SOL     OW20231   5.183   8.629   7.394
 6131SOL    HW120232   5.149   8.554   7.443
 6131SOL    HW220233   5.229   8.682   7.459
 6132SOL     OW20234   8.844  11.569   9.561
 6132SOL    HW120235   8.935  11.596   9.573
 6132SOL    HW220236   8.840  11.481   9.597
 6133SOL     OW20237   6.560  12.395   7.690
 6133SOL    HW120238   6.595  12.358   7.609
 6133SOL    HW220239   6.468  12.412   7.671
 6134SOL     OW20240  12.216  11.639   3.441
 6134SOL    HW120241  12.187  11.586   3.366
 6134SOL    HW220242  12.213  11.579   3.515
 6135SOL     OW20243   8.535  11.833  14.059
 6135SOL    HW120244   8.440  11.823  14.055
 6135SOL    HW220245   8.556  11.887  13.983
 6136SOL     OW20246   4.868  11.598  14.249
 6136SOL    HW120247   4.785  11.646  14.246
 6136SOL    HW220248   4.912  11.632  14.327
 6137SOL     OW20249  14.769  13.178  13.978
 6137SOL    HW120250  14.709  13.180  14.052
 6137SOL    HW220251  14.757  13.262  13.934
 6138SOL     OW20252  13.845   6.535   9.426
 6138SOL    HW120253  13.780   6.556   9.494
 6138SOL    HW220254  13.833   6.441   9.410
 6139SOL     OW20255   7.830   4.569   0.568
 6139SOL    HW120256   7.768   4.631   0.530
 6139SOL    HW220257   7.881   4.538   0.494
 6140SOL     OW20258   1.068  14.344  12.815
 6140SOL    HW120259   1.054  14.438  12.819
 6140SOL    HW220260   1.032  14.318  12.731
 6141SOL     OW20261  11.395   7.490   7.728
 6141SOL    HW120262  11.307   7.529   7.735
 6141SOL    HW220263  11.446   7.554   7.678
 6142SOL     OW20264  14.127   2.228   4.926
 6142SOL    HW120265  14.067   2.189   4.990
 6142SOL    HW220266  14.100   2.189   4.842
 6143SOL     OW20267   7.879   5.442   7.613
 6143SOL    HW120268   7.969   5.440   7.644
 6143SOL    HW220269   7.861   5.353   7.584
 6144SOL     OW20270   5.886  12.217   5.660
 6144SOL    HW120271   5.821  12.218   5.590
 6144SOL    HW220272   5.960  12.170   5.623
 6145SOL     OW20273  13.683   7.781   7.625
 6145SOL    HW120274  13.605   7.796   7.677
 6145SOL    HW220275  13.713   7.868   7.598
 6146SOL     OW20276   9.084   4.118  13.422
 6146SOL    HW120277   9.072   4.051  13.355
 6146SOL    HW220278   8.996   4.131  13.459
 6147SOL     OW20279   0.964   2.844   2.455
 6147SOL    HW120280   0.877   2.880   2.470
 6147SOL    HW220281   0.998   2.826   2.543
 6148SOL     OW20282   6.048   5.377   3.458
 6148SOL    HW120283   6.001   5.335   3.530
 6148SOL    HW220284   6.021   5.469   3.463
 6149SOL     OW20285   0.073   0.311  13.597
 6149SOL    HW120286   0.122   0.276  13.522
 6149SOL    HW220287   0.092   0.404  13.597
 6150SOL     OW20288  13.508   1.000   0.632
 6150SOL    HW120289  13.546   1.064   0.572
 6150SOL    HW220290  13.414   1.019   0.631
 6151SOL     OW20291   9.728  10.518   6.531
 6151SOL    HW120292   9.692  10.546   6.615
 6151SOL    HW220293   9.754  10.599   6.488
 6152SOL     OW20294   4.992   2.940   1.363
 6152SOL    HW120295   4.918   2.980   1.318
 6152SOL    HW220296   5.013   2.862   1.310
 6153SOL     OW20297  11.531  12.421   2.075
 6153SOL    HW120298  11.477  12.349   2.044
 6153SOL    HW220299  11.606  12.378   2.117
 6154SOL     OW20300   2.542   8.588  10.925
 6154SOL    HW120301   2.609   8.637  10.972
 6154SOL    HW220302   2.459   8.616  10.965
 6155SOL     OW20303   4.569  12.201   4.940
 6155SOL    HW120304   4.539  12.259   4.871
 6155SOL    HW220305   4.566  12.254   5.019
 6156SOL     OW20306  14.804  12.481   6.602
 6156SOL    HW120307  14.869  12.489   6.532
 6156SOL    HW220308  14.732  12.431   6.562
 6157SOL     OW20309   3.950   9.295  12.228
 6157SOL    HW120310   3.863   9.292  12.187
 6157SOL    HW220311   3.932   9.306  12.321
 6158SOL     OW20312   1.187  13.310   6.407
 6158SOL    HW120313   1.181  13.270   6.321
 6158SOL    HW220314   1.185  13.236   6.468
 6159SOL     OW20315  13.349   0.124  12.224
 6159SOL    HW120316  13.278   0.065  12.249
 6159SOL    HW220317  13.427   0.069  12.225
 6160SOL     OW20318   8.775   1.399  12.714
 6160SOL    HW120319   8.744   1.365  12.797
 6160SOL    HW220320   8.787   1.493  12.728
 6161SOL     OW20321  10.251  13.944   6.367
 6161SOL    HW120322  10.340  13.922   6.395
 6161SOL    HW220323  10.231  13.882   6.297
 6162SOL     OW20324   3.526   1.578   7.205
 6162SOL    HW120325   3.581   1.558   7.281
 6162SOL    HW220326   3.448   1.524   7.217
 6163SOL     OW20327  12.382   7.320   7.610
 6163SOL    HW120328  12.339   7.397   7.574
 6163SOL    HW220329  12.352   7.247   7.556
 6164SOL     OW20330   6.039   2.503   0.095
 6164SOL    HW120331   6.097   2.493   0.020
 6164SOL    HW220332   6.095   2.484   0.171
 6165SOL     OW20333  11.774   7.558  14.584
 6165SOL    HW120334  11.801   7.630  14.527
 6165SOL    HW220335  11.700   7.519  14.539
 6166SOL     OW20336  11.948  12.325   1.153
 6166SOL    HW120337  11.971  12.244   1.198
 6166SOL    HW220338  11.902  12.377   1.219
 6167SOL     OW20339   3.753   2.784   5.882
 6167SOL    HW120340   3.676   2.729   5.895
 6167SOL    HW220341   3.726   2.871   5.910
 6168SOL     OW20342  11.562  10.499   3.720
 6168SOL    HW120343  11.650  10.476   3.750
 6168SOL    HW220344  11.546  10.586   3.757
 6169SOL     OW20345  13.704   5.433   4.176
 6169SOL    HW120346  13.624   5.481   4.199
 6169SOL    HW220347  13.737   5.400   4.260
 6170SOL     OW20348   1.277   0.253   8.344
 6170SOL    HW120349   1.278   0.194   8.269
 6170SOL    HW220350   1.247   0.198   8.417
 6171SOL     OW20351   9.386  12.819   5.821
 6171SOL    HW120352   9.467  12.769   5.829
 6171SOL    HW220353   9.415  12.911   5.819
 6172SOL     OW20354  12.906   1.519  11.320
 6172SOL    HW120355  12.829   1.464  11.311
 6172SOL    HW220356  12.876   1.606  11.293
 6173SOL     OW20357   6.320   2.189   5.569
 6173SOL    HW120358   6.302   2.262   5.628
 6173SOL    HW220359   6.386   2.223   5.509
 6174SOL     OW20360   8.112  12.995  14.453
 6174SOL    HW120361   8.186  13.050  14.426
 6174SOL    HW220362   8.078  12.961  14.370
 6175SOL     OW20363   0.435  11.713  12.756
 6175SOL    HW120364   0.501  11.681  12.695
 6175SOL    HW220365   0.452  11.665  12.837
 6176SOL     OW20366  13.895   7.593   9.320
 6176SOL    HW120367  13.834   7.598   9.247
 6176SOL    HW220368  13.872   7.668   9.375
 6177SOL     OW20369  12.018  13.631  10.201
 6177SOL    HW120370  12.019  13.685  10.280
 6177SOL    HW220371  11.947  13.568  10.216
 6178SOL     OW20372  14.698   7.834   3.167
 6178SOL    HW120373  14.722   7.908   3.111
 6178SOL    HW220374  14.641   7.780   3.112
 6179SOL     OW20375   3.462   9.541   4.275
 6179SOL    HW120376   3.473   9.524   4.182
 6179SOL    HW220377   3.551   9.547   4.310
 6180SOL     OW20378   7.294  14.843   9.753
 6180SOL    HW120379   7.262  14.812   9.669
 6180SOL    HW220380   7.388  14.823   9.752
 6181SOL     OW20381  13.506   3.849   4.190
 6181SOL    HW120382  13.475   3.938   4.171
 6181SOL    HW220383  13.426   3.797   4.195
 6182SOL     OW20384   7.805   1.490  14.363
 6182SOL    HW120385   7.797   1.569  14.310
 6182SOL    HW220386   7.739   1.430  14.328
 6183SOL     OW20387   1.666   9.784   1.131
 6183SOL    HW120388   1.675   9.691   1.109
 6183SOL    HW220389   1.572   9.797   1.142
 6184SOL     OW20390   8.183   9.622   2.929
 6184SOL    HW120391   8.122   9.616   3.003
 6184SOL    HW220392   8.153   9.554   2.868
 6185SOL     OW20393   0.652   3.059   8.727
 6185SOL    HW120394   0.581   3.008   8.767
 6185SOL    HW220395   0.629   3.150   8.745
 6186SOL     OW20396  11.654   6.263   0.244
 6186SOL    HW120397  11.698   6.343   0.273
 6186SOL    HW220398  11.704   6.192   0.283
 6187SOL     OW20399   0.410   2.745   1.016
 6187SOL    HW120400   0.473   2.675   1.001
 6187SOL    HW220401   0.356   2.746   0.937
 6188SOL     OW20402   5.390   1.384   9.727
 6188SOL    HW120403   5.311   1.338   9.699
 6188SOL    HW220404   5.367   1.477   9.724
 6189SOL     OW20405  14.082  14.229  12.191
 6189SOL    HW120406  14.004  14.175  12.179
 6189SOL    HW220407  14.110  14.212  12.281
 6190SOL     OW20408  11.776   9.247  14.567
 6190SOL    HW120409  11.771   9.185  14.640
 6190SOL    HW220410  11.860   9.291  14.580
 6191SOL     OW20411   5.698   4.906   4.393
 6191SOL    HW120412   5.681   4.952   4.311
 6191SOL    HW220413   5.649   4.824   4.386
 6192SOL     OW20414   6.893  10.805   6.273
 6192SOL    HW120415   6.946  10.834   6.347
 6192SOL    HW220416   6.802  10.819   6.302
 6193SOL     OW20417   2.803  13.510   2.774
 6193SOL    HW120418   2.887  13.477   2.806
 6193SOL    HW220419   2.768  13.438   2.720
 6194SOL     OW20420  13.026  13.122   5.165
 6194SOL    HW120421  12.978  13.040   5.150
 6194SOL    HW220422  12.958  13.187   5.179
 6195SOL     OW20423   4.480   2.528  14.429
 6195SOL    HW120424   4.557   2.488  14.389
 6195SOL    HW220425   4.464   2.476  14.507
 6196SOL     OW20426  10.329   2.230  10.538
 6196SOL    HW120427  10.254   2.188  10.496
 6196SOL    HW220428  10.398   2.164  10.535
 6197SOL     OW20429  10.575   6.256   9.767
 6197SOL    HW120430  10.601   6.278   9.856
 6197SOL    HW220431  10.494   6.305   9.753
 6198SOL     OW20432   9.843  13.773  12.103
 6198SOL    HW120433   9.765  13.811  12.144
 6198SOL    HW220434   9.809  13.721  12.031
 6199SOL     OW20435   7.969   3.869  13.688
 6199SOL    HW120436   7.882   3.850  13.654
 6199SOL    HW220437   7.954   3.908  13.774
 6200SOL     OW20438  13.816   2.917   9.794
 6200SOL    HW120439  13.834   3.003   9.754
 6200SOL    HW220440  13.739   2.885   9.747
 6201SOL     OW20441  10.074   0.709   9.930
 6201SOL    HW120442  10.018   0.685   9.857
 6201SOL    HW220443  10.024   0.683  10.008
 6202SOL     OW20444   1.595  14.141   7.360
 6202SOL    HW120445   1.658  14.119   7.292
 6202SOL    HW220446   1.645  14.138   7.442
 6203SOL     OW20447   7.469  11.767  10.610
 6203SOL    HW120448   7.409  11.840  10.629
 6203SOL    HW220449   7.417  11.707  10.557
 6204SOL     OW20450  10.504   8.002  14.399
 6204SOL    HW120451  10.439   8.033  14.461
 6204SOL    HW220452  10.588   8.020  14.441
 6205SOL     OW20453   5.298  12.384   4.796
 6205SOL    HW120454   5.362  12.438   4.750
 6205SOL    HW220455   5.214  12.405   4.755
 6206SOL     OW20456   8.928   0.242   9.922
 6206SOL    HW120457   8.958   0.164   9.875
 6206SOL    HW220458   9.001   0.264   9.981
 6207SOL     OW20459   2.450  10.221   8.329
 6207SOL    HW120460   2.493  10.136   8.314
 6207SOL    HW220461   2.514  10.285   8.297
 6208SOL     OW20462   9.853   7.278   1.978
 6208SOL    HW120463   9.926   7.239   2.026
 6208SOL    HW220464   9.846   7.224   1.898
 6209SOL     OW20465  12.604   9.475  13.761
 6209SOL    HW120466  12.540   9.507  13.697
 6209SOL    HW220467  12.688   9.506  13.729
 6210SOL     OW20468   0.536   4.326   6.217
 6210SOL    HW120469   0.576   4.347   6.132
 6210SOL    HW220470   0.558   4.234   6.231
 6211SOL     OW20471  14.108   6.543   7.243
 6211SOL    HW120472  14.086   6.467   7.188
 6211SOL    HW220473  14.023   6.572   7.278
 6212SOL     OW20474   1.179  10.508   0.000
 6212SOL    HW120475   1.235  10.567   0.050
 6212SOL    HW220476   1.090  10.534   0.024
 6213SOL     OW20477  11.685   5.951   6.772
 6213SOL    HW120478  11.712   5.863   6.745
 6213SOL    HW220479  11.767   6.000   6.776
 6214SOL     OW20480  10.210   0.720   6.740
 6214SOL    HW120481  10.235   0.680   6.657
 6214SOL    HW220482  10.246   0.809   6.736
 6215SOL     OW20483   3.813   9.497  10.427
 6215SOL    HW120484   3.781   9.552  10.498
 6215SOL    HW220485   3.769   9.413  10.440
 6216SOL     OW20486   3.329  14.665  12.997
 6216SOL    HW120487   3.399  14.705  13.049
 6216SOL    HW220488   3.262  14.733  12.989
 6217SOL     OW20489  12.074   0.211   4.540
 6217SOL    HW120490  12.092   0.145   4.606
 6217SOL    HW220491  12.126   0.184   4.464
 6218SOL     OW20492   6.405  11.400  12.755
 6218SOL    HW120493   6.338  11.458  12.720
 6218SOL    HW220494   6.384  11.391  12.847
 6219SOL     OW20495   2.730   8.906   1.109
 6219SOL    HW120496   2.717   8.837   1.043
 6219SOL    HW220497   2.644   8.946   1.120
 6220SOL     OW20498   6.943  11.127   8.167
 6220SOL    HW120499   6.959  11.152   8.076
 6220SOL    HW220500   6.935  11.031   8.164
 6221SOL     OW20501   2.117   1.908   3.650
 6221SOL    HW120502   2.117   1.950   3.563
 6221SOL    HW220503   2.024   1.894   3.669
 6222SOL     OW20504  11.637   0.446   4.237
 6222SOL    HW120505  11.639   0.367   4.291
 6222SOL    HW220506  11.565   0.497   4.271
 6223SOL     OW20507  14.476   4.483  10.851
 6223SOL    HW120508  14.412   4.428  10.898
 6223SOL    HW220509  14.541   4.504  10.918
 6224SOL     OW20510   6.202   6.769  14.075
 6224SOL    HW120511   6.219   6.798  14.164
 6224SOL    HW220512   6.151   6.688  14.085
 6225SOL     OW20513  11.048   2.141   2.191
 6225SOL    HW120514  11.101   2.200   2.138
 6225SOL    HW220515  11.100   2.126   2.270
 6226SOL     OW20516   6.612  10.761   3.301
 6226SOL    HW120517   6.644  10.708   3.375
 6226SOL    HW220518   6.519  10.773   3.320
 6227SOL     OW20519   1.812  13.145   3.778
 6227SOL    HW120520   1.879  13.077   3.777
 6227SOL    HW220521   1.763  13.130   3.859
 6228SOL     OW20522   8.750   6.391   1.883
 6228SOL    HW120523   8.798   6.470   1.856
 6228SOL    HW220524   8.816   6.322   1.883
 6229SOL     OW20525  11.525   3.611   0.963
 6229SOL    HW120526  11.481   3.629   0.880
 6229SOL    HW220527  11.471   3.654   1.029
 6230SOL     OW20528   2.366   1.497   8.107
 6230SOL    HW120529   2.405   1.543   8.182
 6230SOL    HW220530   2.423   1.519   8.033
 6231SOL     OW20531   9.455   9.836  10.263
 6231SOL    HW120532   9.503   9.919  10.259
 6231SOL    HW220533   9.370   9.857  10.225
 6232SOL     OW20534  13.851   8.024   5.108
 6232SOL    HW120535  13.913   8.065   5.049
 6232SOL    HW220536  13.809   8.097   5.154
 6233SOL     OW20537   2.473   9.096   8.211
 6233SOL    HW120538   2.462   9.050   8.128
 6233SOL    HW220539   2.384   9.107   8.244
 6234SOL     OW20540   5.236   7.569   3.052
 6234SOL    HW120541   5.325   7.546   3.076
 6234SOL    HW220542   5.246   7.644   2.993
 6235SOL     OW20543   7.926  10.702  11.261
 6235SOL    HW120544   7.915  10.741  11.175
 6235SOL    HW220545   7.921  10.607  11.245
 6236SOL     OW20546   2.312   9.211   5.302
 6236SOL    HW120547   2.315   9.305   5.321
 6236SOL    HW220548   2.307   9.169   5.388
 6237SOL     OW20549  14.450   6.428   3.183
 6237SOL    HW120550  14.378   6.454   3.240
 6237SOL    HW220551  14.522   6.407   3.243
 6238SOL     OW20552   5.541  13.481   1.473
 6238SOL    HW120553   5.600  13.509   1.543
 6238SOL    HW220554   5.464  13.537   1.483
 6239SOL     OW20555   4.706   7.846   4.003
 6239SOL    HW120556   4.801   7.838   3.990
 6239SOL    HW220557   4.680   7.760   4.037
 6240SOL     OW20558   6.901  14.164  11.711
 6240SOL    HW120559   6.985  14.169  11.757
 6240SOL    HW220560   6.890  14.249  11.670
 6241SOL     OW20561   4.946   7.781   7.129
 6241SOL    HW120562   4.912   7.706   7.081
 6241SOL    HW220563   4.930   7.856   7.071
 6242SOL     OW20564   5.597   2.390  11.193
 6242SOL    HW120565   5.660   2.402  11.122
 6242SOL    HW220566   5.515   2.366  11.150
 6243SOL     OW20567   9.382   8.795   8.529
 6243SOL    HW120568   9.439   8.801   8.607
 6243SOL    HW220569   9.426   8.731   8.473
 6244SOL     OW20570   0.459   2.935  14.630
 6244SOL    HW120571   0.551   2.961  14.626
 6244SOL    HW220572   0.439   2.903  14.542
 6245SOL     OW20573  13.978   1.659  12.526
 6245SOL    HW120574  13.982   1.564  12.511
 6245SOL    HW220575  13.959   1.695  12.439
 6246SOL     OW20576   5.622  13.316  14.199
 6246SOL    HW120577   5.564  13.260  14.148
 6246SOL    HW220578   5.605  13.291  14.290
 6247SOL     OW20579   0.667  11.998   3.254
 6247SOL    HW120580   0.721  11.921   3.237
 6247SOL    HW220581   0.725  12.073   3.235
 6248SOL     OW20582  13.559   1.559   0.609
 6248SOL    HW120583  13.513   1.559   0.525
 6248SOL    HW220584  13.523   1.483   0.656
 6249SOL     OW20585   9.418  14.625  10.023
 6249SOL    HW120586   9.468  14.682  10.083
 6249SOL    HW220587   9.406  14.679   9.944
 6250SOL     OW20588   4.893  11.328   1.743
 6250SOL    HW120589   4.802  11.331   1.772
 6250SOL    HW220590   4.943  11.364   1.816
 6251SOL     OW20591   5.389   2.549  12.925
 6251SOL    HW120592   5.450   2.616  12.893
 6251SOL    HW220593   5.317   2.598  12.965
 6252SOL     OW20594  11.862   3.703   9.840
 6252SOL    HW120595  11.946   3.743   9.820
 6252SOL    HW220596  11.882   3.611   9.859
 6253SOL     OW20597   1.755  12.800  13.629
 6253SOL    HW120598   1.734  12.780  13.720
 6253SOL    HW220599   1.672  12.790  13.582
 6254SOL     OW20600   0.297   3.463   7.056
 6254SOL    HW120601   0.386   3.446   7.025
 6254SOL    HW220602   0.306   3.537   7.115
 6255SOL     OW20603   8.922   5.946  12.307
 6255SOL    HW120604   9.009   5.987  12.311
 6255SOL    HW220605   8.878   5.989  12.234
 6256SOL     OW20606   7.761   4.465  11.341
 6256SOL    HW120607   7.699   4.430  11.277
 6256SOL    HW220608   7.722   4.442  11.426
 6257SOL     OW20609  10.796  10.180  10.899
 6257SOL    HW120610  10.798  10.256  10.956
 6257SOL    HW220611  10.808  10.216  10.811
 6258SOL     OW20612   7.905  12.568   5.853
 6258SOL    HW120613   7.872  12.616   5.776
 6258SOL    HW220614   7.962  12.631   5.898
 6259SOL     OW20615   5.257  11.791   1.113
 6259SOL    HW120616   5.179  11.836   1.144
 6259SOL    HW220617   5.262  11.712   1.166
 6260SOL     OW20618  12.033  14.731  11.543
 6260SOL    HW120619  12.071  14.680  11.616
 6260SOL    HW220620  12.010  14.665  11.478
 6261SOL     OW20621   5.328   2.506   6.152
 6261SOL    HW120622   5.350   2.593   6.119
 6261SOL    HW220623   5.404   2.480   6.204
 6262SOL     OW20624   8.928  11.725   5.067
 6262SOL    HW120625   8.937  11.708   5.161
 6262SOL    HW220626   8.996  11.672   5.026
 6263SOL     OW20627   6.792  10.332  10.835
 6263SOL    HW120628   6.835  10.367  10.757
 6263SOL    HW220629   6.846  10.258  10.861
 6264SOL     OW20630  13.777  14.673   1.534
 6264SOL    HW120631  13.853  14.714   1.576
 6264SOL    HW220632  13.721  14.746   1.508
 6265SOL     OW20633   2.423   3.647  13.034
 6265SOL    HW120634   2.449   3.556  13.053
 6265SOL    HW220635   2.422   3.690  13.119
 6266SOL     OW20636   8.707  11.836   8.315
 6266SOL    HW120637   8.617  11.813   8.291
 6266SOL    HW220638   8.699  11.916   8.367
 6267SOL     OW20639  14.531   7.192   7.178
 6267SOL    HW120640  14.600   7.148   7.226
 6267SOL    HW220641  14.564   7.198   7.088
 6268SOL     OW20642   8.046  12.559  11.236
 6268SOL    HW120643   7.959  12.557  11.274
 6268SOL    HW220644   8.098  12.500  11.290
 6269SOL     OW20645   6.491   3.203   0.868
 6269SOL    HW120646   6.542   3.180   0.945
 6269SOL    HW220647   6.408   3.235   0.903
 6270SOL     OW20648   2.437   9.164  13.611
 6270SOL    HW120649   2.418   9.215  13.533
 6270SOL    HW220650   2.480   9.085  13.579
 6271SOL     OW20651  11.898   8.501   7.570
 6271SOL    HW120652  11.977   8.493   7.623
 6271SOL    HW220653  11.828   8.469   7.627
 6272SOL     OW20654   3.224   7.737   2.486
 6272SOL    HW120655   3.273   7.669   2.532
 6272SOL    HW220656   3.182   7.788   2.555
 6273SOL     OW20657   0.749  11.627  12.774
 6273SOL    HW120658   0.769  11.689  12.844
 6273SOL    HW220659   0.720  11.548  12.819
 6274SOL     OW20660  13.421   6.076   2.507
 6274SOL    HW120661  13.508   6.054   2.473
 6274SOL    HW220662  13.382   6.131   2.439
 6275SOL     OW20663   9.596   1.937   3.110
 6275SOL    HW120664   9.521   1.884   3.083
 6275SOL    HW220665   9.621   1.985   3.031
 6276SOL     OW20666  11.468  13.303  11.986
 6276SOL    HW120667  11.527  13.377  11.972
 6276SOL    HW220668  11.428  13.287  11.900
 6277SOL     OW20669  13.917   2.361   3.655
 6277SOL    HW120670  14.005   2.397   3.669
 6277SOL    HW220671  13.900   2.307   3.732
 6278SOL     OW20672   9.595  11.732   5.096
 6278SOL    HW120673   9.668  11.672   5.114
 6278SOL    HW220674   9.535  11.719   5.169
 6279SOL     OW20675   9.769   0.891   7.774
 6279SOL    HW120676   9.822   0.834   7.718
 6279SOL    HW220677   9.818   0.896   7.856
 6280SOL     OW20678   2.403  10.493   3.922
 6280SOL    HW120679   2.430  10.403   3.900
 6280SOL    HW220680   2.409  10.497   4.017
 6281SOL     OW20681   3.892   6.088  12.155
 6281SOL    HW120682   3.923   6.025  12.089
 6281SOL    HW220683   3.952   6.077  12.228
 6282SOL     OW20684   1.044  11.738   1.359
 6282SOL    HW120685   1.047  11.787   1.441
 6282SOL    HW220686   1.135  11.733   1.331
 6283SOL     OW20687  10.220   9.148   7.476
 6283SOL    HW120688  10.290   9.082   7.472
 6283SOL    HW220689  10.266   9.232   7.474
 6284SOL     OW20690  12.647   6.191  11.490
 6284SOL    HW120691  12.572   6.160  11.540
 6284SOL    HW220692  12.646   6.286  11.502
 6285SOL     OW20693   3.853  13.712   4.433
 6285SOL    HW120694   3.761  13.686   4.436
 6285SOL    HW220695   3.861  13.777   4.503
 6286SOL     OW20696   6.672   5.657   1.031
 6286SOL    HW120697   6.726   5.603   0.973
 6286SOL    HW220698   6.609   5.596   1.069
 6287SOL     OW20699   3.388  10.850  11.244
 6287SOL    HW120700   3.299  10.818  11.261
 6287SOL    HW220701   3.408  10.906  11.320
 6288SOL     OW20702   1.987   4.636  12.114
 6288SOL    HW120703   2.015   4.547  12.091
 6288SOL    HW220704   1.959   4.629  12.206
 6289SOL     OW20705   1.231  10.404  13.697
 6289SOL    HW120706   1.299  10.352  13.740
 6289SOL    HW220707   1.275  10.485  13.672
 6290SOL     OW20708   6.648  13.225   9.869
 6290SOL    HW120709   6.713  13.199   9.934
 6290SOL    HW220710   6.574  13.167   9.884
 6291SOL     OW20711   3.259   6.633  11.981
 6291SOL    HW120712   3.236   6.654  11.891
 6291SOL    HW220713   3.218   6.548  11.997
 6292SOL     OW20714  11.516   8.436   3.597
 6292SOL    HW120715  11.536   8.512   3.653
 6292SOL    HW220716  11.501   8.473   3.510
 6293SOL     OW20717   5.237   6.583   1.001
 6293SOL    HW120718   5.171   6.517   1.023
 6293SOL    HW220719   5.309   6.565   1.062
 6294SOL     OW20720   7.478   4.847  11.984
 6294SOL    HW120721   7.454   4.755  11.995
 6294SOL    HW220722   7.562   4.844  11.938
 6295SOL     OW20723   2.799   9.368  14.457
 6295SOL    HW120724   2.787   9.279  14.490
 6295SOL    HW220725   2.824   9.419  14.535
 6296SOL     OW20726   1.420  12.815  12.984
 6296SOL    HW120727   1.340  12.854  13.020
 6296SOL    HW220728   1.389  12.756  12.915
 6297SOL     OW20729   4.831   0.307   6.356
 6297SOL    HW120730   4.748   0.297   6.402
 6297SOL    HW220731   4.810   0.365   6.283
 6298SOL     OW20732  14.110  13.706   6.763
 6298SOL    HW120733  14.175  13.762   6.720
 6298SOL    HW220734  14.160  13.656   6.828
 6299SOL     OW20735   7.419   9.591   6.936
 6299SOL    HW120736   7.430   9.541   7.017
 6299SOL    HW220737   7.338   9.640   6.950
 6300SOL     OW20738   2.346   9.843   0.943
 6300SOL    HW120739   2.338   9.802   1.029
 6300SOL    HW220740   2.278   9.803   0.890
 6301SOL     OW20741   8.063   8.651   9.432
 6301SOL    HW120742   8.041   8.721   9.371
 6301SOL    HW220743   7.979   8.624   9.469
 6302SOL     OW20744   1.974  12.878   1.285
 6302SOL    HW120745   1.968  12.971   1.308
 6302SOL    HW220746   2.025  12.839   1.356
 6303SOL     OW20747   3.541  12.197  11.076
 6303SOL    HW120748   3.504  12.176  11.162
 6303SOL    HW220749   3.593  12.120  11.054
 6304SOL     OW20750  13.987  10.954  11.168
 6304SOL    HW120751  13.951  11.018  11.230
 6304SOL    HW220752  13.971  10.869  11.210
 6305SOL     OW20753  11.453   3.311   0.946
 6305SOL    HW120754  11.506   3.371   0.998
 6305SOL    HW220755  11.498   3.227   0.952
 6306SOL     OW20756  14.491   3.397   9.435
 6306SOL    HW120757  14.425   3.367   9.373
 6306SOL    HW220758  14.569   3.413   9.381
 6307SOL     OW20759   8.430   3.929   6.712
 6307SOL    HW120760   8.354   3.905   6.659
 6307SOL    HW220761   8.498   3.867   6.686
 6308SOL     OW20762  10.663   9.747   4.461
 6308SOL    HW120763  10.658   9.843   4.457
 6308SOL    HW220764  10.733   9.724   4.400
 6309SOL     OW20765   9.248   3.535  13.166
 6309SOL    HW120766   9.246   3.591  13.089
 6309SOL    HW220767   9.160   3.539  13.203
 6310SOL     OW20768   1.806   6.331  14.825
 6310SOL    HW120769   1.774   6.262   0.000
 6310SOL    HW220770   1.901   6.318  14.822
 6311SOL     OW20771  12.777  11.127   8.830
 6311SOL    HW120772  12.842  11.193   8.803
 6311SOL    HW220773  12.735  11.099   8.749
 6312SOL     OW20774  10.867   0.344  12.636
 6312SOL    HW120775  10.959   0.368  12.621
 6312SOL    HW220776  10.835   0.409  12.699
 6313SOL     OW20777   5.989   6.209   0.864
 6313SOL    HW120778   5.953   6.138   0.918
 6313SOL    HW220779   5.960   6.188   0.775
 6314SOL     OW20780  11.716   3.293  12.678
 6314SOL    HW120781  11.663   3.221  12.643
 6314SOL    HW220782  11.689   3.301  12.769
 6315SOL     OW20783   2.182  10.289  12.493
 6315SOL    HW120784   2.220  10.331  12.416
 6315SOL    HW220785   2.247  10.301  12.562
 6316SOL     OW20786   5.355   1.372  13.165
 6316SOL    HW120787   5.322   1.449  13.120
 6316SOL    HW220788   5.438   1.399  13.203
 6317SOL     OW20789  10.452   9.903   6.850
 6317SOL    HW120790  10.385   9.896   6.782
 6317SOL    HW220791  10.456   9.996   6.870
 6318SOL     OW20792   3.509   6.127  10.375
 6318SOL    HW120793   3.570   6.200  10.360
 6318SOL    HW220794   3.546   6.080  10.450
 6319SOL     OW20795  12.256   5.160  10.671
 6319SOL    HW120796  12.168   5.192  10.690
 6319SOL    HW220797  12.294   5.143  10.758
 6320SOL     OW20798   7.619   1.742  10.951
 6320SOL    HW120799   7.562   1.747  11.028
 6320SOL    HW220800   7.630   1.833  10.923
 6321SOL     OW20801   6.341   6.232   2.433
 6321SOL    HW120802   6.340   6.173   2.509
 6321SOL    HW220803   6.253   6.226   2.396
 6322SOL     OW20804  11.765   2.213   6.224
 6322SOL    HW120805  11.778   2.306   6.203
 6322SOL    HW220806  11.743   2.173   6.140
 6323SOL     OW20807   4.987   7.042   3.214
 6323SOL    HW120808   5.010   6.950   3.223
 6323SOL    HW220809   4.993   7.060   3.120
 6324SOL     OW20810  10.500   6.096   6.357
 6324SOL    HW120811  10.441   6.034   6.316
 6324SOL    HW220812  10.469   6.182   6.327
 6325SOL     OW20813   4.424   0.895   1.435
 6325SOL    HW120814   4.369   0.887   1.356
 6325SOL    HW220815   4.470   0.811   1.440
 6326SOL     OW20816   8.020   8.921   9.341
 6326SOL    HW120817   8.115   8.933   9.335
 6326SOL    HW220818   7.995   8.889   9.254
 6327SOL     OW20819  14.126   5.850   7.858
 6327SOL    HW120820  14.039   5.818   7.835
 6327SOL    HW220821  14.127   5.850   7.954
 6328SOL     OW20822   8.573  11.323  10.366
 6328SOL    HW120823   8.583  11.230  10.346
 6328SOL    HW220824   8.606  11.369  10.289
 6329SOL     OW20825   9.621  14.589   8.643
 6329SOL    HW120826   9.629  14.582   8.548
 6329SOL    HW220827   9.707  14.619   8.672
 6330SOL     OW20828  13.493   2.365   0.466
 6330SOL    HW120829  13.579   2.359   0.507
 6330SOL    HW220830  13.443   2.424   0.523
 6331SOL     OW20831  12.819  11.068   3.623
 6331SOL    HW120832  12.863  11.023   3.695
 6331SOL    HW220833  12.815  11.004   3.552
 6332SOL     OW20834  11.277   7.901  11.519
 6332SOL    HW120835  11.217   7.887  11.446
 6332SOL    HW220836  11.220   7.911  11.595
 6333SOL     OW20837   3.649  12.032   8.067
 6333SOL    HW120838   3.735  12.017   8.029
 6333SOL    HW220839   3.639  11.963   8.132
 6334SOL     OW20840   7.797  14.150  12.547
 6334SOL    HW120841   7.800  14.237  12.507
 6334SOL    HW220842   7.782  14.090  12.473
 6335SOL     OW20843  13.610  10.076  10.016
 6335SOL    HW120844  13.637  10.168  10.004
 6335SOL    HW220845  13.682  10.025   9.981
 6336SOL     OW20846   4.641  12.294   4.274
 6336SOL    HW120847   4.665  12.350   4.348
 6336SOL    HW220848   4.699  12.218   4.282
 6337SOL     OW20849  12.909   7.029   0.205
 6337SOL    HW120850  12.874   6.941   0.189
 6337SOL    HW220851  12.987   7.034   0.149
 6338SOL     OW20852  12.822  14.535  10.720
 6338SOL    HW120853  12.886  14.481  10.765
 6338SOL    HW220854  12.785  14.478  10.652
 6339SOL     OW20855   9.684   6.023   4.919
 6339SOL    HW120856   9.775   6.051   4.930
 6339SOL    HW220857   9.691   5.941   4.870
 6340SOL     OW20858  11.381  10.808  13.269
 6340SOL    HW120859  11.350  10.846  13.351
 6340SOL    HW220860  11.470  10.841  13.259
 6341SOL     OW20861   9.840   5.305   9.481
 6341SOL    HW120862   9.829   5.400   9.474
 6341SOL    HW220863   9.880   5.279   9.398
 6342SOL     OW20864  11.074   9.648  11.260
 6342SOL    HW120865  11.091   9.626  11.352
 6342SOL    HW220866  10.979   9.646  11.252
 6343SOL     OW20867   3.861  12.910  11.500
 6343SOL    HW120868   3.796  12.849  11.465
 6343SOL    HW220869   3.936  12.856  11.522
 6344SOL     OW20870   1.003   7.703   9.276
 6344SOL    HW120871   0.929   7.708   9.216
 6344SOL    HW220872   1.032   7.794   9.286
 6345SOL     OW20873  12.749   0.968  14.864
 6345SOL    HW120874  12.831   0.924  14.842
 6345SOL    HW220875  12.770   1.024   0.057
 6346SOL     OW20876   3.851   8.514   2.288
 6346SOL    HW120877   3.919   8.569   2.250
 6346SOL    HW220878   3.805   8.477   2.212
 6347SOL     OW20879   1.682  11.385   8.106
 6347SOL    HW120880   1.697  11.480   8.112
 6347SOL    HW220881   1.621  11.367   8.177
 6348SOL     OW20882   2.043   1.781   6.678
 6348SOL    HW120883   2.025   1.862   6.725
 6348SOL    HW220884   1.957   1.744   6.659
 6349SOL     OW20885   5.601   5.817  14.333
 6349SOL    HW120886   5.630   5.899  14.373
 6349SOL    HW220887   5.553   5.772  14.403
 6350SOL     OW20888   4.006  13.341   0.783
 6350SOL    HW120889   4.012  13.245   0.779
 6350SOL    HW220890   4.066  13.371   0.715
 6351SOL     OW20891  11.603   5.055   9.495
 6351SOL    HW120892  11.551   5.009   9.562
 6351SOL    HW220893  11.682   5.002   9.486
 6352SOL     OW20894  13.936   1.421   9.089
 6352SOL    HW120895  13.939   1.420   8.993
 6352SOL    HW220896  13.948   1.329   9.114
 6353SOL     OW20897  11.035  12.551  13.960
 6353SOL    HW120898  10.943  12.578  13.951
 6353SOL    HW220899  11.077  12.624  14.005
 6354SOL     OW20900   5.566  11.723   5.346
 6354SOL    HW120901   5.476  11.727   5.312
 6354SOL    HW220902   5.604  11.647   5.303
 6355SOL     OW20903  11.796   6.785   8.700
 6355SOL    HW120904  11.729   6.774   8.632
 6355SOL    HW220905  11.773   6.866   8.744
 6356SOL     OW20906   7.385   6.589   5.891
 6356SOL    HW120907   7.321   6.522   5.871
 6356SOL    HW220908   7.343   6.671   5.865
 6357SOL     OW20909  10.912   1.786  14.403
 6357SOL    HW120910  10.839   1.845  14.424
 6357SOL    HW220911  10.939   1.812  14.315
 6358SOL     OW20912   2.764   8.076   5.751
 6358SOL    HW120913   2.831   8.026   5.798
 6358SOL    HW220914   2.684   8.026   5.765
 6359SOL     OW20915   0.710   5.556   3.413
 6359SOL    HW120916   0.693   5.642   3.374
 6359SOL    HW220917   0.626   5.532   3.454
 6360SOL     OW20918   4.284  10.161   0.589
 6360SOL    HW120919   4.284  10.176   0.494
 6360SOL    HW220920   4.292  10.066   0.598
 6361SOL     OW20921   1.730  13.530   0.265
 6361SOL    HW120922   1.768  13.496   0.346
 6361SOL    HW220923   1.788  13.603   0.241
 6362SOL     OW20924   0.274   0.937  12.189
 6362SOL    HW120925   0.241   0.855  12.152
 6362SOL    HW220926   0.369   0.934  12.172
 6363SOL     OW20927  13.098  11.290  11.580
 6363SOL    HW120928  13.074  11.345  11.655
 6363SOL    HW220929  13.026  11.227  11.573
 6364SOL     OW20930   2.323  13.053   6.703
 6364SOL    HW120931   2.241  13.085   6.742
 6364SOL    HW220932   2.387  13.121   6.724
 6365SOL     OW20933   2.653   7.130  11.153
 6365SOL    HW120934   2.674   7.040  11.178
 6365SOL    HW220935   2.590   7.159  11.219
 6366SOL     OW20936   3.344   1.336   2.943
 6366SOL    HW120937   3.423   1.344   2.997
 6366SOL    HW220938   3.275   1.378   2.995
 6367SOL     OW20939  12.113   3.000   8.261
 6367SOL    HW120940  12.142   3.030   8.347
 6367SOL    HW220941  12.019   3.020   8.259
 6368SOL     OW20942   5.014  11.087   0.832
 6368SOL    HW120943   5.023  11.068   0.926
 6368SOL    HW220944   5.077  11.156   0.815
 6369SOL     OW20945  10.692   4.570   1.794
 6369SOL    HW120946  10.689   4.483   1.755
 6369SOL    HW220947  10.610   4.611   1.769
 6370SOL     OW20948   6.265   7.640  14.412
 6370SOL    HW120949   6.178   7.634  14.452
 6370SOL    HW220950   6.309   7.560  14.440
 6371SOL     OW20951  13.351   4.466   7.399
 6371SOL    HW120952  13.383   4.468   7.490
 6371SOL    HW220953  13.271   4.414   7.403
 6372SOL     OW20954   4.069  12.806   1.612
 6372SOL    HW120955   4.028  12.879   1.658
 6372SOL    HW220956   4.047  12.729   1.664
 6373SOL     OW20957  12.940   0.609  13.308
 6373SOL    HW120958  12.927   0.514  13.307
 6373SOL    HW220959  12.859   0.645  13.271
 6374SOL     OW20960  14.124   5.101   8.593
 6374SOL    HW120961  14.124   5.007   8.577
 6374SOL    HW220962  14.213   5.121   8.623
 6375SOL     OW20963   0.155   1.863   1.211
 6375SOL    HW120964   0.065   1.838   1.229
 6375SOL    HW220965   0.208   1.807   1.267
 6376SOL     OW20966   0.946   9.103  14.552
 6376SOL    HW120967   0.950   9.195  14.580
 6376SOL    HW220968   0.951   9.053  14.634
 6377SOL     OW20969  14.879   5.397   3.675
 6377SOL    HW120970   0.056   5.350   3.734
 6377SOL    HW220971   0.054   5.431   3.606
 6378SOL     OW20972  11.705  11.491  13.298
 6378SOL    HW120973  11.670  11.406  13.271
 6378SOL    HW220974  11.631  11.551  13.291
 6379SOL     OW20975  12.853   5.516   7.526
 6379SOL    HW120976  12.787   5.494   7.460
 6379SOL    HW220977  12.836   5.457   7.599
 6380SOL     OW20978  11.877  14.879   8.586
 6380SOL    HW120979  11.931   0.007   8.508
 6380SOL    HW220980  11.940  14.878   8.658
 6381SOL     OW20981  12.693  12.234  14.596
 6381SOL    HW120982  12.674  12.200  14.683
 6381SOL    HW220983  12.677  12.328  14.603
 6382SOL     OW20984   3.149  12.990   7.094
 6382SOL    HW120985   3.220  12.948   7.046
 6382SOL    HW220986   3.096  12.917   7.126
 6383SOL     OW20987  13.052  14.871   9.713
 6383SOL    HW120988  13.080   0.079   9.696
 6383SOL    HW220989  12.962  14.867   9.681
 6384SOL     OW20990   9.707  12.088   8.472
 6384SOL    HW120991   9.656  12.147   8.528
 6384SOL    HW220992   9.670  12.001   8.488
 6385SOL     OW20993   8.106   2.189  11.797
 6385SOL    HW120994   8.167   2.130  11.753
 6385SOL    HW220995   8.154   2.221  11.873
 6386SOL     OW20996   0.167   7.452   6.290
 6386SOL    HW120997   0.124   7.471   6.207
 6386SOL    HW220998   0.096   7.423   6.348
 6387SOL     OW20999   9.072  10.087  10.373
 6387SOL    HW121000   9.025  10.043  10.444
 6387SOL    HW221001   9.050  10.036  10.294
 6388SOL     OW21002   9.706  13.476   4.609
 6388SOL    HW121003   9.691  13.382   4.607
 6388SOL    HW221004   9.663  13.505   4.689
 6389SOL     OW21005   8.162  13.599   3.142
 6389SOL    HW121006   8.126  13.597   3.231
 6389SOL    HW221007   8.254  13.625   3.153
 6390SOL     OW21008   3.477   0.562   9.633
 6390SOL    HW121009   3.394   0.563   9.681
 6390SOL    HW221010   3.473   0.640   9.578
 6391SOL     OW21011   9.931   5.637   2.416
 6391SOL    HW121012  10.007   5.669   2.464
 6391SOL    HW221013   9.857   5.651   2.476
 6392SOL     OW21014  12.970   6.014  13.347
 6392SOL    HW121015  12.897   6.074  13.347
 6392SOL    HW221016  13.012   6.027  13.432
 6393SOL     OW21017   2.985  10.184   1.913
 6393SOL    HW121018   2.996  10.212   2.004
 6393SOL    HW221019   2.979  10.089   1.918
 6394SOL     OW21020   7.770   6.237  11.727
 6394SOL    HW121021   7.813   6.250  11.642
 6394SOL    HW221022   7.694   6.181  11.707
 6395SOL     OW21023   9.407   8.817  11.434
 6395SOL    HW121024   9.431   8.905  11.403
 6395SOL    HW221025   9.462   8.803  11.511
 6396SOL     OW21026   6.634  10.839   6.343
 6396SOL    HW121027   6.554  10.789   6.327
 6396SOL    HW221028   6.625  10.872   6.433
 6397SOL     OW21029   6.896   1.649  12.482
 6397SOL    HW121030   6.904   1.613  12.393
 6397SOL    HW221031   6.925   1.739  12.475
 6398SOL     OW21032   6.473   4.940  12.827
 6398SOL    HW121033   6.564   4.910  12.822
 6398SOL    HW221034   6.458   4.955  12.921
 6399SOL     OW21035   9.812   8.119   5.449
 6399SOL    HW121036   9.877   8.048   5.447
 6399SOL    HW221037   9.785   8.129   5.358
 6400SOL     OW21038   3.415   1.510  13.639
 6400SOL    HW121039   3.486   1.459  13.678
 6400SOL    HW221040   3.402   1.583  13.699
 6401SOL     OW21041   7.359   0.128   5.143
 6401SOL    HW121042   7.348   0.210   5.192
 6401SOL    HW221043   7.320   0.146   5.057
 6402SOL     OW21044  10.890   6.456   1.488
 6402SOL    HW121045  10.891   6.425   1.398
 6402SOL    HW221046  10.976   6.496   1.501
 6403SOL     OW21047  13.913  12.638   7.548
 6403SOL    HW121048  13.847  12.593   7.496
 6403SOL    HW221049  13.879  12.634   7.638
 6404SOL     OW21050   7.125   8.373  12.109
 6404SOL    HW121051   7.194   8.309  12.130
 6404SOL    HW221052   7.066   8.369  12.184
 6405SOL     OW21053  14.586   2.275  12.307
 6405SOL    HW121054  14.668   2.233  12.282
 6405SOL    HW221055  14.563   2.330  12.232
 6406SOL     OW21056   0.705   0.901  14.694
 6406SOL    HW121057   0.789   0.859  14.714
 6406SOL    HW221058   0.657   0.836  14.643
 6407SOL     OW21059   7.596  12.802   3.258
 6407SOL    HW121060   7.599  12.894   3.283
 6407SOL    HW221061   7.685  12.784   3.226
 6408SOL     OW21062   1.567   4.042   3.133
 6408SOL    HW121063   1.543   4.097   3.207
 6408SOL    HW221064   1.484   4.005   3.102
 6409SOL     OW21065  11.066   1.609   1.247
 6409SOL    HW121066  11.023   1.643   1.325
 6409SOL    HW221067  10.995   1.593   1.185
 6410SOL     OW21068   9.070  11.409   9.144
 6410SOL    HW121069   9.102  11.494   9.175
 6410SOL    HW221070   9.118  11.393   9.063
 6411SOL     OW21071   7.345  11.847   7.859
 6411SOL    HW121072   7.382  11.876   7.776
 6411SOL    HW221073   7.267  11.902   7.871
 6412SOL     OW21074  12.861  11.951  14.684
 6412SOL    HW121075  12.878  12.008  14.759
 6412SOL    HW221076  12.941  11.901  14.673
 6413SOL     OW21077  12.127   5.800   1.678
 6413SOL    HW121078  12.130   5.881   1.628
 6413SOL    HW221079  12.058   5.748   1.637
 6414SOL     OW21080   6.393   6.571   1.940
 6414SOL    HW121081   6.362   6.661   1.932
 6414SOL    HW221082   6.442   6.570   2.022
 6415SOL     OW21083   4.107   2.304   2.293
 6415SOL    HW121084   4.150   2.274   2.213
 6415SOL    HW221085   4.022   2.260   2.293
 6416SOL     OW21086   1.935  14.519   6.252
 6416SOL    HW121087   2.019  14.551   6.286
 6416SOL    HW221088   1.927  14.560   6.166
 6417SOL     OW21089   7.398   8.248   9.913
 6417SOL    HW121090   7.365   8.181   9.852
 6417SOL    HW221091   7.481   8.212   9.945
 6418SOL     OW21092   9.425   7.540   6.669
 6418SOL    HW121093   9.464   7.460   6.704
 6418SOL    HW221094   9.367   7.571   6.739
 6419SOL     OW21095   0.478   7.362   1.268
 6419SOL    HW121096   0.500   7.455   1.278
 6419SOL    HW221097   0.435   7.339   1.350
 6420SOL     OW21098   6.895   3.299   5.755
 6420SOL    HW121099   6.822   3.344   5.712
 6420SOL    HW221100   6.887   3.208   5.723
 6421SOL     OW21101  14.543   4.811   6.734
 6421SOL    HW121102  14.627   4.852   6.713
 6421SOL    HW221103  14.562   4.754   6.808
 6422SOL     OW21104   3.395   7.138   3.917
 6422SOL    HW121105   3.482   7.153   3.952
 6422SOL    HW221106   3.394   7.045   3.893
 6423SOL     OW21107   4.890  10.134   9.506
 6423SOL    HW121108   4.904  10.194   9.579
 6423SOL    HW221109   4.890  10.047   9.545
 6424SOL     OW21110  10.819   7.161   4.137
 6424SOL    HW121111  10.862   7.125   4.215
 6424SOL    HW221112  10.749   7.099   4.118
 6425SOL     OW21113   4.510  13.036  11.056
 6425SOL    HW121114   4.426  13.055  11.097
 6425SOL    HW221115   4.544  12.961  11.105
 6426SOL     OW21116  10.339   2.950  12.961
 6426SOL    HW121117  10.395   2.881  12.926
 6426SOL    HW221118  10.398   3.025  12.972
 6427SOL     OW21119  12.272  11.888   3.334
 6427SOL    HW121120  12.257  11.822   3.401
 6427SOL    HW221121  12.351  11.933   3.362
 6428SOL     OW21122  10.530  10.491   3.966
 6428SOL    HW121123  10.446  10.446   3.972
 6428SOL    HW221124  10.576  10.467   4.046
 6429SOL     OW21125  10.448   6.031   5.024
 6429SOL    HW121126  10.490   5.998   4.945
 6429SOL    HW221127  10.491   6.115   5.041
 6430SOL     OW21128  11.140   6.130   7.127
 6430SOL    HW121129  11.183   6.050   7.159
 6430SOL    HW221130  11.211   6.187   7.101
 6431SOL     OW21131  14.402   7.455   0.800
 6431SOL    HW121132  14.409   7.365   0.767
 6431SOL    HW221133  14.327   7.492   0.754
 6432SOL     OW21134  11.484   2.361   7.728
 6432SOL    HW121135  11.542   2.344   7.802
 6432SOL    HW221136  11.426   2.432   7.758
 6433SOL     OW21137   8.811  11.233  12.946
 6433SOL    HW121138   8.840  11.195  13.029
 6433SOL    HW221139   8.839  11.169  12.880
 6434SOL     OW21140   3.684  14.189   0.194
 6434SOL    HW121141   3.676  14.094   0.208
 6434SOL    HW221142   3.697  14.197   0.100
 6435SOL     OW21143   9.783  11.764   6.945
 6435SOL    HW121144   9.847  11.828   6.915
 6435SOL    HW221145   9.829  11.711   7.010
 6436SOL     OW21146   3.577  10.297   1.648
 6436SOL    HW121147   3.606  10.233   1.583
 6436SOL    HW221148   3.483  10.282   1.655
 6437SOL     OW21149   9.992   6.763  12.576
 6437SOL    HW121150   9.937   6.691  12.607
 6437SOL    HW221151   9.950   6.793  12.496
 6438SOL     OW21152   0.744   7.982   2.699
 6438SOL    HW121153   0.815   8.014   2.754
 6438SOL    HW221154   0.768   8.008   2.610
 6439SOL     OW21155   7.970   9.926  11.396
 6439SOL    HW121156   7.930  10.012  11.408
 6439SOL    HW221157   7.897   9.864  11.406
 6440SOL     OW21158  14.086  10.440   9.981
 6440SOL    HW121159  14.079  10.363  10.038
 6440SOL    HW221160  14.065  10.514  10.038
 6441SOL     OW21161   4.950   1.678   5.726
 6441SOL    HW121162   4.865   1.716   5.705
 6441SOL    HW221163   4.979   1.638   5.644
 6442SOL     OW21164   4.722   9.900   9.557
 6442SOL    HW121165   4.713   9.806   9.571
 6442SOL    HW221166   4.661   9.940   9.619
 6443SOL     OW21167  12.791   0.058   2.767
 6443SOL    HW121168  12.776   0.063   2.861
 6443SOL    HW221169  12.726   0.117   2.729
 6444SOL     OW21170   6.891  13.162  13.224
 6444SOL    HW121171   6.816  13.137  13.170
 6444SOL    HW221172   6.963  13.108  13.193
 6445SOL     OW21173  12.129   7.633   8.165
 6445SOL    HW121174  12.218   7.663   8.147
 6445SOL    HW221175  12.129   7.614   8.259
 6446SOL     OW21176  10.014   2.104   1.399
 6446SOL    HW121177  10.061   2.070   1.475
 6446SOL    HW221178  10.030   2.040   1.330
 6447SOL     OW21179  11.337  11.739   9.200
 6447SOL    HW121180  11.418  11.778   9.233
 6447SOL    HW221181  11.267  11.782   9.250
 6448SOL     OW21182  10.479   7.152  12.857
 6448SOL    HW121183  10.444   7.093  12.924
 6448SOL    HW221184  10.434   7.235  12.873
 6449SOL     OW21185   6.388  13.243   0.537
 6449SOL    HW121186   6.360  13.317   0.591
 6449SOL    HW221187   6.482  13.234   0.554
 6450SOL     OW21188   3.729   1.089  13.186
 6450SOL    HW121189   3.671   1.064  13.114
 6450SOL    HW221190   3.782   1.011  13.202
 6451SOL     OW21191   3.102   0.533   6.156
 6451SOL    HW121192   3.062   0.460   6.108
 6451SOL    HW221193   3.091   0.511   6.248
 6452SOL     OW21194   5.633  14.493  12.479
 6452SOL    HW121195   5.642  14.554  12.406
 6452SOL    HW221196   5.644  14.407  12.440
 6453SOL     OW21197  10.659  13.406   5.818
 6453SOL    HW121198  10.572  13.370   5.834
 6453SOL    HW221199  10.696  13.350   5.750
 6454SOL     OW21200   6.078  12.887  10.488
 6454SOL    HW121201   6.044  12.870  10.576
 6454SOL    HW221202   6.004  12.869  10.430
 6455SOL     OW21203  13.307   0.471   7.996
 6455SOL    HW121204  13.250   0.498   7.924
 6455SOL    HW221205  13.385   0.437   7.953
 6456SOL     OW21206  14.706   7.837   6.910
 6456SOL    HW121207  14.779   7.846   6.971
 6456SOL    HW221208  14.641   7.900   6.939
 6457SOL     OW21209   7.247   1.728   5.228
 6457SOL    HW121210   7.285   1.773   5.303
 6457SOL    HW221211   7.172   1.782   5.203
 6458SOL     OW21212   6.376  11.468   7.425
 6458SOL    HW121213   6.313  11.471   7.353
 6458SOL    HW221214   6.462  11.472   7.383
 6459SOL     OW21215   7.841   6.753  10.632
 6459SOL    HW121216   7.780   6.726  10.701
 6459SOL    HW221217   7.788   6.756  10.552
 6460SOL     OW21218   7.323  12.314   7.026
 6460SOL    HW121219   7.362  12.321   6.939
 6460SOL    HW221220   7.398  12.304   7.085
 6461SOL     OW21221  11.284   8.847  13.722
 6461SOL    HW121222  11.328   8.913  13.774
 6461SOL    HW221223  11.191   8.863  13.736
 6462SOL     OW21224  14.124   1.094   3.667
 6462SOL    HW121225  14.192   1.028   3.657
 6462SOL    HW221226  14.054   1.050   3.715
 6463SOL     OW21227   5.592   4.259   2.018
 6463SOL    HW121228   5.568   4.352   2.021
 6463SOL    HW221229   5.574   4.232   1.928
 6464SOL     OW21230   8.331   6.468  11.039
 6464SOL    HW121231   8.416   6.508  11.017
 6464SOL    HW221232   8.285   6.537  11.087
 6465SOL     OW21233   5.557   8.883   0.351
 6465SOL    HW121234   5.528   8.923   0.269
 6465SOL    HW221235   5.643   8.846   0.330
 6466SOL     OW21236   5.201   1.829   2.643
 6466SOL    HW121237   5.106   1.813   2.645
 6466SOL    HW221238   5.229   1.799   2.556
 6467SOL     OW21239   1.010   3.519   8.868
 6467SOL    HW121240   1.045   3.438   8.829
 6467SOL    HW221241   0.938   3.544   8.811
 6468SOL     OW21242   8.396   4.802  13.362
 6468SOL    HW121243   8.356   4.761  13.439
 6468SOL    HW221244   8.464   4.859  13.397
 6469SOL     OW21245  11.425   4.887  13.347
 6469SOL    HW121246  11.495   4.855  13.291
 6469SOL    HW221247  11.344   4.858  13.304
 6470SOL     OW21248   9.986   6.380  14.082
 6470SOL    HW121249   9.967   6.473  14.067
 6470SOL    HW221250   9.905   6.335  14.058
 6471SOL     OW21251   4.271  12.333   3.201
 6471SOL    HW121252   4.319  12.413   3.225
 6471SOL    HW221253   4.299  12.268   3.265
 6472SOL     OW21254  14.121  11.198   7.470
 6472SOL    HW121255  14.048  11.149   7.432
 6472SOL    HW221256  14.140  11.152   7.552
 6473SOL     OW21257   4.366   1.270   1.581
 6473SOL    HW121258   4.411   1.214   1.645
 6473SOL    HW221259   4.276   1.273   1.612
 6474SOL     OW21260   6.115  14.626   1.724
 6474SOL    HW121261   6.120  14.722   1.731
 6474SOL    HW221262   6.038  14.603   1.776
 6475SOL     OW21263   7.224   6.901   1.890
 6475SOL    HW121264   7.239   6.980   1.837
 6475SOL    HW221265   7.130   6.884   1.881
 6476SOL     OW21266  14.141   1.986   3.587
 6476SOL    HW121267  14.173   2.050   3.651
 6476SOL    HW221268  14.080   1.931   3.636
 6477SOL     OW21269   7.821   7.276   5.519
 6477SOL    HW121270   7.799   7.366   5.542
 6477SOL    HW221271   7.917   7.272   5.524
 6478SOL     OW21272  10.961   5.149   2.719
 6478SOL    HW121273  10.948   5.172   2.811
 6478SOL    HW221274  10.935   5.057   2.714
 6479SOL     OW21275  14.268   2.812  12.240
 6479SOL    HW121276  14.205   2.753  12.199
 6479SOL    HW221277  14.335   2.755  12.277
 6480SOL     OW21278  12.392   4.145   9.423
 6480SOL    HW121279  12.397   4.219   9.363
 6480SOL    HW221280  12.419   4.181   9.508
 6481SOL     OW21281   6.725   1.177   9.548
 6481SOL    HW121282   6.796   1.131   9.593
 6481SOL    HW221283   6.703   1.121   9.474
 6482SOL     OW21284   7.348   8.521   3.908
 6482SOL    HW121285   7.435   8.554   3.884
 6482SOL    HW221286   7.340   8.439   3.860
 6483SOL     OW21287  12.445  10.740   4.258
 6483SOL    HW121288  12.391  10.815   4.283
 6483SOL    HW221289  12.507  10.730   4.330
 6484SOL     OW21290   1.067   6.461   4.131
 6484SOL    HW121291   1.151   6.506   4.116
 6484SOL    HW221292   1.066   6.391   4.066
 6485SOL     OW21293  12.408  10.581   2.570
 6485SOL    HW121294  12.318  10.562   2.598
 6485SOL    HW221295  12.462  10.519   2.619
 6486SOL     OW21296   5.594   0.832  12.961
 6486SOL    HW121297   5.520   0.859  13.015
 6486SOL    HW221298   5.590   0.889  12.884
 6487SOL     OW21299  11.172  10.258  10.033
 6487SOL    HW121300  11.196  10.214  10.114
 6487SOL    HW221301  11.077  10.244  10.025
 6488SOL     OW21302  10.166  10.072  13.187
 6488SOL    HW121303  10.236  10.039  13.244
 6488SOL    HW221304  10.196  10.050  13.098
 6489SOL     OW21305   0.035  14.201   2.913
 6489SOL    HW121306   0.100  14.132   2.897
 6489SOL    HW221307  14.836  14.154   2.933
 6490SOL     OW21308   9.088   8.143  12.221
 6490SOL    HW121309   9.018   8.095  12.267
 6490SOL    HW221310   9.102   8.092  12.141
 6491SOL     OW21311   4.423   0.616   2.352
 6491SOL    HW121312   4.510   0.584   2.328
 6491SOL    HW221313   4.396   0.671   2.279
 6492SOL     OW21314  11.905   6.103  10.886
 6492SOL    HW121315  11.868   6.174  10.833
 6492SOL    HW221316  11.860   6.112  10.971
 6493SOL     OW21317  11.202  11.423   4.817
 6493SOL    HW121318  11.241  11.443   4.902
 6493SOL    HW221319  11.194  11.327   4.816
 6494SOL     OW21320  10.629   8.211  10.297
 6494SOL    HW121321  10.689   8.252  10.358
 6494SOL    HW221322  10.680   8.142  10.255
 6495SOL     OW21323   9.079   2.517   5.507
 6495SOL    HW121324   9.087   2.606   5.472
 6495SOL    HW221325   9.157   2.471   5.476
 6496SOL     OW21326   5.825  12.519   6.358
 6496SOL    HW121327   5.766  12.593   6.346
 6496SOL    HW221328   5.791  12.474   6.436
 6497SOL     OW21329   3.009  13.123   9.950
 6497SOL    HW121330   3.022  13.195  10.011
 6497SOL    HW221331   3.012  13.163   9.863
 6498SOL     OW21332   0.061   6.474  13.708
 6498SOL    HW121333   0.150   6.453  13.734
 6498SOL    HW221334   0.041   6.414  13.637
 6499SOL     OW21335  10.670  13.375  10.465
 6499SOL    HW121336  10.618  13.438  10.515
 6499SOL    HW221337  10.615  13.297  10.462
 6500SOL     OW21338  13.307   9.096  12.083
 6500SOL    HW121339  13.362   9.128  12.154
 6500SOL    HW221340  13.362   9.103  12.005
 6501SOL     OW21341   3.197   4.675   7.706
 6501SOL    HW121342   3.123   4.636   7.752
 6501SOL    HW221343   3.259   4.697   7.776
 6502SOL     OW21344   0.194  13.253  11.682
 6502SOL    HW121345   0.233  13.186  11.626
 6502SOL    HW221346   0.162  13.320  11.621
 6503SOL     OW21347   7.406   5.454   8.061
 6503SOL    HW121348   7.405   5.359   8.071
 6503SOL    HW221349   7.338   5.472   7.996
 6504SOL     OW21350   8.196   7.449   2.821
 6504SOL    HW121351   8.227   7.538   2.837
 6504SOL    HW221352   8.271   7.403   2.784
 6505SOL     OW21353   8.528  12.640   6.867
 6505SOL    HW121354   8.603  12.582   6.858
 6505SOL    HW221355   8.556  12.722   6.826
 6506SOL     OW21356   8.746  13.130   3.998
 6506SOL    HW121357   8.654  13.157   3.995
 6506SOL    HW221358   8.756  13.072   3.923
 6507SOL     OW21359   8.705   6.940  10.036
 6507SOL    HW121360   8.680   6.850  10.012
 6507SOL    HW221361   8.636   6.994   9.997
 6508SOL     OW21362   9.066   7.503   2.735
 6508SOL    HW121363   9.008   7.474   2.805
 6508SOL    HW221364   9.066   7.430   2.673
 6509SOL     OW21365  13.208   3.958   7.667
 6509SOL    HW121366  13.153   3.976   7.590
 6509SOL    HW221367  13.153   3.985   7.741
 6510SOL     OW21368   5.933   1.824   8.121
 6510SOL    HW121369   5.984   1.851   8.198
 6510SOL    HW221370   5.915   1.905   8.074
 6511SOL     OW21371   1.477   8.316  10.336
 6511SOL    HW121372   1.399   8.367  10.313
 6511SOL    HW221373   1.454   8.273  10.418
 6512SOL     OW21374   1.403   8.953   3.952
 6512SOL    HW121375   1.426   9.007   4.027
 6512SOL    HW221376   1.458   8.875   3.961
 6513SOL     OW21377   5.631   9.364   6.083
 6513SOL    HW121378   5.709   9.310   6.094
 6513SOL    HW221379   5.567   9.307   6.041
 6514SOL     OW21380   4.775   0.060   5.111
 6514SOL    HW121381   4.823   0.063   5.194
 6514SOL    HW221382   4.686   0.035   5.136
 6515SOL     OW21383  11.723   5.778   4.528
 6515SOL    HW121384  11.668   5.769   4.450
 6515SOL    HW221385  11.678   5.843   4.582
 6516SOL     OW21386   9.101   3.354  14.236
 6516SOL    HW121387   9.133   3.435  14.195
 6516SOL    HW221388   9.126   3.285  14.175
 6517SOL     OW21389   0.711   8.241   8.867
 6517SOL    HW121390   0.789   8.296   8.878
 6517SOL    HW221391   0.712   8.218   8.774
 6518SOL     OW21392   4.375  10.359  12.483
 6518SOL    HW121393   4.340  10.369  12.572
 6518SOL    HW221394   4.298  10.361  12.426
 6519SOL     OW21395  11.061  12.842  12.771
 6519SOL    HW121396  11.120  12.796  12.712
 6519SOL    HW221397  10.980  12.791  12.767
 6520SOL     OW21398   1.721   9.182  11.439
 6520SOL    HW121399   1.644   9.232  11.412
 6520SOL    HW221400   1.700   9.152  11.527
 6521SOL     OW21401   2.130  12.952  14.515
 6521SOL    HW121402   2.185  13.014  14.466
 6521SOL    HW221403   2.044  12.995  14.519
 6522SOL     OW21404  10.399  13.865   3.044
 6522SOL    HW121405  10.412  13.960   3.037
 6522SOL    HW221406  10.468  13.828   2.988
 6523SOL     OW21407   5.752   6.662  14.126
 6523SOL    HW121408   5.731   6.749  14.092
 6523SOL    HW221409   5.701   6.602  14.072
 6524SOL     OW21410   5.327   4.028   0.774
 6524SOL    HW121411   5.299   4.097   0.835
 6524SOL    HW221412   5.420   4.015   0.794
 6525SOL     OW21413  14.227   8.032   3.642
 6525SOL    HW121414  14.310   8.045   3.688
 6525SOL    HW221415  14.172   8.104   3.673
 6526SOL     OW21416  11.894   5.373   0.420
 6526SOL    HW121417  11.807   5.405   0.395
 6526SOL    HW221418  11.952   5.446   0.401
 6527SOL     OW21419  10.356   7.852  10.969
 6527SOL    HW121420  10.421   7.919  10.990
 6527SOL    HW221421  10.340   7.862  10.875
 6528SOL     OW21422   7.436   8.421   9.428
 6528SOL    HW121423   7.477   8.496   9.472
 6528SOL    HW221424   7.342   8.433   9.444
 6529SOL     OW21425   3.429   0.132   1.893
 6529SOL    HW121426   3.457   0.041   1.882
 6529SOL    HW221427   3.495   0.170   1.951
 6530SOL     OW21428   0.798  11.541   6.305
 6530SOL    HW121429   0.712  11.578   6.285
 6530SOL    HW221430   0.861  11.606   6.273
 6531SOL     OW21431  11.210   5.131   4.432
 6531SOL    HW121432  11.198   5.215   4.476
 6531SOL    HW221433  11.122   5.093   4.428
 6532SOL     OW21434  12.860  12.320   9.174
 6532SOL    HW121435  12.816  12.279   9.100
 6532SOL    HW221436  12.858  12.253   9.243
 6533SOL     OW21437  13.687   0.813  10.783
 6533SOL    HW121438  13.746   0.888  10.768
 6533SOL    HW221439  13.600   0.847  10.760
 6534SOL     OW21440   1.962   1.424  10.253
 6534SOL    HW121441   2.008   1.390  10.176
 6534SOL    HW221442   1.993   1.514  10.262
 6535SOL     OW21443   7.738   7.965   8.585
 6535SOL    HW121444   7.689   7.885   8.604
 6535SOL    HW221445   7.816   7.960   8.641
 6536SOL     OW21446   8.958  14.538   7.629
 6536SOL    HW121447   8.961  14.507   7.719
 6536SOL    HW221448   8.881  14.496   7.591
 6537SOL     OW21449   7.691   1.030   0.989
 6537SOL    HW121450   7.642   1.097   1.036
 6537SOL    HW221451   7.659   1.035   0.899
 6538SOL     OW21452   3.882   8.821   2.827
 6538SOL    HW121453   3.839   8.876   2.761
 6538SOL    HW221454   3.831   8.740   2.827
 6539SOL     OW21455   7.856   1.554  13.222
 6539SOL    HW121456   7.766   1.527  13.239
 6539SOL    HW221457   7.848   1.639  13.179
 6540SOL     OW21458   2.813  10.440   7.350
 6540SOL    HW121459   2.858  10.505   7.405
 6540SOL    HW221460   2.868  10.432   7.272
 6541SOL     OW21461   4.510  10.530  11.909
 6541SOL    HW121462   4.565  10.457  11.881
 6541SOL    HW221463   4.512  10.527  12.004
 6542SOL     OW21464  13.037   6.673  13.544
 6542SOL    HW121465  13.017   6.583  13.517
 6542SOL    HW221466  13.120   6.694  13.501
 6543SOL     OW21467   4.853   3.864   0.967
 6543SOL    HW121468   4.786   3.860   1.035
 6543SOL    HW221469   4.894   3.950   0.977
 6544SOL     OW21470   4.552   5.086  13.859
 6544SOL    HW121471   4.578   5.002  13.897
 6544SOL    HW221472   4.489   5.063  13.790
 6545SOL     OW21473   0.347   1.024   8.778
 6545SOL    HW121474   0.418   0.973   8.739
 6545SOL    HW221475   0.312   0.969   8.847
 6546SOL     OW21476   0.045  13.025  13.385
 6546SOL    HW121477  14.872  12.952  13.412
 6546SOL    HW221478   0.092  12.992  13.308
 6547SOL     OW21479   8.722   0.806   1.097
 6547SOL    HW121480   8.655   0.847   1.041
 6547SOL    HW221481   8.677   0.730   1.134
 6548SOL     OW21482  12.340   3.889   9.130
 6548SOL    HW121483  12.337   3.969   9.077
 6548SOL    HW221484  12.395   3.829   9.079
 6549SOL     OW21485   9.507   7.210   5.611
 6549SOL    HW121486   9.509   7.229   5.705
 6549SOL    HW221487   9.568   7.137   5.600
 6550SOL     OW21488   6.676   8.863   7.528
 6550SOL    HW121489   6.724   8.838   7.448
 6550SOL    HW221490   6.668   8.781   7.577
 6551SOL     OW21491   2.621  13.743  13.238
 6551SOL    HW121492   2.598  13.651  13.247
 6551SOL    HW221493   2.650  13.769  13.325
 6552SOL     OW21494  14.852   5.381  12.935
 6552SOL    HW121495  14.778   5.329  12.905
 6552SOL    HW221496   0.047   5.326  12.917
 6553SOL     OW21497  10.596   1.880  11.657
 6553SOL    HW121498  10.511   1.869  11.699
 6553SOL    HW221499  10.581   1.860  11.565
 6554SOL     OW21500   1.035  11.196   6.141
 6554SOL    HW121501   1.091  11.124   6.171
 6554SOL    HW221502   0.946  11.159   6.142
 6555SOL     OW21503  11.406   8.948   9.247
 6555SOL    HW121504  11.385   9.036   9.278
 6555SOL    HW221505  11.340   8.892   9.287
 6556SOL     OW21506  14.254  14.826   6.745
 6556SOL    HW121507  14.282   0.033   6.766
 6556SOL    HW221508  14.281  14.813   6.654
 6557SOL     OW21509   5.371   8.821   5.130
 6557SOL    HW121510   5.278   8.825   5.153
 6557SOL    HW221511   5.400   8.735   5.160
 6558SOL     OW21512   7.948   7.362   7.962
 6558SOL    HW121513   8.030   7.398   7.998
 6558SOL    HW221514   7.928   7.417   7.887
 6559SOL     OW21515   6.365   0.122  12.301
 6559SOL    HW121516   6.420   0.186  12.255
 6559SOL    HW221517   6.424   0.083  12.366
 6560SOL     OW21518   2.714   2.881   7.107
 6560SOL    HW121519   2.641   2.901   7.166
 6560SOL    HW221520   2.766   2.816   7.155
 6561SOL     OW21521   6.108   8.986  13.236
 6561SOL    HW121522   6.015   9.007  13.232
 6561SOL    HW221523   6.123   8.930  13.159
 6562SOL     OW21524   8.623   0.399  12.667
 6562SOL    HW121525   8.582   0.355  12.742
 6562SOL    HW221526   8.564   0.383  12.594
 6563SOL     OW21527  13.361  13.937   8.309
 6563SOL    HW121528  13.386  13.845   8.303
 6563SOL    HW221529  13.331  13.948   8.399
 6564SOL     OW21530  13.450  13.206   3.363
 6564SOL    HW121531  13.458  13.194   3.457
 6564SOL    HW221532  13.442  13.301   3.352
 6565SOL     OW21533  11.930  11.721   3.331
 6565SOL    HW121534  11.923  11.773   3.251
 6565SOL    HW221535  11.984  11.646   3.307
 6566SOL     OW21536   2.097  13.878   9.187
 6566SOL    HW121537   2.136  13.791   9.196
 6566SOL    HW221538   2.071  13.884   9.096
 6567SOL     OW21539   3.199  11.277   7.031
 6567SOL    HW121540   3.131  11.342   7.012
 6567SOL    HW221541   3.160  11.221   7.099
 6568SOL     OW21542   0.332  10.479   4.963
 6568SOL    HW121543   0.411  10.488   5.017
 6568SOL    HW221544   0.263  10.520   5.014
 6569SOL     OW21545  11.132  11.848  14.340
 6569SOL    HW121546  11.165  11.826  14.427
 6569SOL    HW221547  11.067  11.917  14.356
 6570SOL     OW21548   5.069   5.136   1.543
 6570SOL    HW121549   5.116   5.165   1.621
 6570SOL    HW221550   5.126   5.071   1.502
 6571SOL     OW21551   2.001  14.457   9.774
 6571SOL    HW121552   1.909  14.431   9.781
 6571SOL    HW221553   2.001  14.527   9.709
 6572SOL     OW21554   3.711  13.234   5.848
 6572SOL    HW121555   3.639  13.188   5.889
 6572SOL    HW221556   3.678  13.259   5.762
 6573SOL     OW21557   3.364  14.530   0.211
 6573SOL    HW121558   3.379  14.614   0.167
 6573SOL    HW221559   3.280  14.542   0.256
 6574SOL     OW21560   6.305   6.055   9.851
 6574SOL    HW121561   6.219   6.014   9.838
 6574SOL    HW221562   6.361   6.014   9.786
 6575SOL     OW21563  14.485   1.373  12.475
 6575SOL    HW121564  14.460   1.461  12.446
 6575SOL    HW221565  14.485   1.321  12.395
 6576SOL     OW21566   1.661   9.314   7.149
 6576SOL    HW121567   1.632   9.403   7.173
 6576SOL    HW221568   1.741   9.328   7.099
 6577SOL     OW21569  14.260   8.560   8.568
 6577SOL    HW121570  14.221   8.592   8.650
 6577SOL    HW221571  14.354   8.572   8.580
 6578SOL     OW21572   7.267   6.826   5.122
 6578SOL    HW121573   7.307   6.873   5.195
 6578SOL    HW221574   7.199   6.885   5.090
 6579SOL     OW21575  12.939  10.643   3.841
 6579SOL    HW121576  12.868  10.583   3.820
 6579SOL    HW221577  12.898  10.730   3.843
 6580SOL     OW21578  14.712   2.990   9.909
 6580SOL    HW121579  14.799   2.972   9.874
 6580SOL    HW221580  14.672   3.049   9.845
 6581SOL     OW21581   6.621  11.009  14.694
 6581SOL    HW121582   6.594  10.972  14.610
 6581SOL    HW221583   6.603  10.940  14.758
 6582SOL     OW21584  12.093   2.523  13.293
 6582SOL    HW121585  12.078   2.452  13.354
 6582SOL    HW221586  12.176   2.500  13.250
 6583SOL     OW21587  12.660   2.161  14.083
 6583SOL    HW121588  12.570   2.131  14.095
 6583SOL    HW221589  12.677   2.217  14.159
 6584SOL     OW21590   3.830  12.148   0.059
 6584SOL    HW121591   3.887  12.205   0.008
 6584SOL    HW221592   3.742  12.169   0.027
 6585SOL     OW21593   8.865   4.844   2.759
 6585SOL    HW121594   8.844   4.938   2.757
 6585SOL    HW221595   8.800   4.806   2.818
 6586SOL     OW21596   9.164   1.312  13.088
 6586SOL    HW121597   9.155   1.266  13.172
 6586SOL    HW221598   9.099   1.383  13.093
 6587SOL     OW21599  10.197   4.314   6.398
 6587SOL    HW121600  10.288   4.301   6.371
 6587SOL    HW221601  10.202   4.319   6.494
 6588SOL     OW21602   9.748  14.744   1.097
 6588SOL    HW121603   9.827  14.690   1.095
 6588SOL    HW221604   9.725  14.756   1.004
 6589SOL     OW21605   8.726   2.058   5.494
 6589SOL    HW121606   8.646   2.092   5.455
 6589SOL    HW221607   8.782   2.134   5.505
 6590SOL     OW21608  13.039  13.910   2.909
 6590SOL    HW121609  12.959  13.960   2.895
 6590SOL    HW221610  13.013  13.819   2.895
 6591SOL     OW21611   2.028   8.959   0.509
 6591SOL    HW121612   2.115   8.936   0.478
 6591SOL    HW221613   1.980   8.983   0.430
 6592SOL     OW21614   0.692   4.218  13.733
 6592SOL    HW121615   0.696   4.272  13.654
 6592SOL    HW221616   0.734   4.136  13.708
 6593SOL     OW21617  10.287   9.300  12.117
 6593SOL    HW121618  10.223   9.343  12.059
 6593SOL    HW221619  10.276   9.207  12.098
 6594SOL     OW21620  13.515   6.553   3.518
 6594SOL    HW121621  13.543   6.464   3.542
 6594SOL    HW221622  13.424   6.558   3.546
 6595SOL     OW21623   1.231  14.015  13.614
 6595SOL    HW121624   1.310  13.977  13.653
 6595SOL    HW221625   1.246  14.012  13.520
 6596SOL     OW21626   8.987   5.147   6.824
 6596SOL    HW121627   8.986   5.175   6.732
 6596SOL    HW221628   8.925   5.075   6.828
 6597SOL     OW21629   3.228   6.601   1.910
 6597SOL    HW121630   3.174   6.609   1.988
 6597SOL    HW221631   3.258   6.510   1.911
 6598SOL     OW21632   6.564   8.048   9.873
 6598SOL    HW121633   6.525   7.966   9.843
 6598SOL    HW221634   6.491   8.109   9.878
 6599SOL     OW21635   0.197   1.303   8.691
 6599SOL    HW121636   0.228   1.214   8.673
 6599SOL    HW221637   0.277   1.357   8.687
 6600SOL     OW21638  12.989   2.345  13.895
 6600SOL    HW121639  13.026   2.260  13.871
 6600SOL    HW221640  12.913   2.325  13.950
 6601SOL     OW21641  10.310   6.575   1.900
 6601SOL    HW121642  10.228   6.621   1.881
 6601SOL    HW221643  10.341   6.613   1.982
 6602SOL     OW21644   7.068   2.534  12.798
 6602SOL    HW121645   7.007   2.548  12.870
 6602SOL    HW221646   7.134   2.602  12.808
 6603SOL     OW21647   8.290   4.177   3.372
 6603SOL    HW121648   8.215   4.225   3.407
 6603SOL    HW221649   8.281   4.186   3.277
 6604SOL     OW21650  11.393  11.930   5.988
 6604SOL    HW121651  11.427  11.892   5.907
 6604SOL    HW221652  11.358  11.855   6.037
 6605SOL     OW21653   5.581   3.115   4.127
 6605SOL    HW121654   5.611   3.056   4.197
 6605SOL    HW221655   5.564   3.197   4.172
 6606SOL     OW21656   0.867   6.980  11.610
 6606SOL    HW121657   0.855   6.892  11.576
 6606SOL    HW221658   0.956   7.004  11.584
 6607SOL     OW21659   7.402  14.203   9.086
 6607SOL    HW121660   7.394  14.183   9.180
 6607SOL    HW221661   7.429  14.120   9.046
 6608SOL     OW21662  12.227   3.564   8.968
 6608SOL    HW121663  12.138   3.574   9.001
 6608SOL    HW221664  12.282   3.558   9.046
 6609SOL     OW21665   0.869   3.749  11.771
 6609SOL    HW121666   0.922   3.679  11.734
 6609SOL    HW221667   0.779   3.723  11.754
 6610SOL     OW21668  14.103   3.756  11.130
 6610SOL    HW121669  14.175   3.731  11.073
 6610SOL    HW221670  14.094   3.682  11.190
 6611SOL     OW21671   3.613   6.809   1.159
 6611SOL    HW121672   3.697   6.848   1.135
 6611SOL    HW221673   3.587   6.760   1.081
 6612SOL     OW21674   2.017   9.379  12.754
 6612SOL    HW121675   1.994   9.288  12.772
 6612SOL    HW221676   2.033   9.381  12.659
 6613SOL     OW21677  10.156   9.521   5.907
 6613SOL    HW121678  10.186   9.584   5.842
 6613SOL    HW221679  10.086   9.472   5.863
 6614SOL     OW21680   8.928  11.915   6.942
 6614SOL    HW121681   8.877  11.834   6.933
 6614SOL    HW221682   8.893  11.973   6.874
 6615SOL     OW21683   9.363   7.585  12.802
 6615SOL    HW121684   9.280   7.626  12.778
 6615SOL    HW221685   9.430   7.640  12.761
 6616SOL     OW21686   0.278   6.643  11.768
 6616SOL    HW121687   0.313   6.589  11.697
 6616SOL    HW221688   0.346   6.707  11.786
 6617SOL     OW21689  13.708  13.406  14.836
 6617SOL    HW121690  13.638  13.468  14.815
 6617SOL    HW221691  13.666  13.321  14.839
 6618SOL     OW21692  10.286  12.224   2.431
 6618SOL    HW121693  10.203  12.223   2.382
 6618SOL    HW221694  10.350  12.185   2.371
 6619SOL     OW21695  14.199  12.641   9.385
 6619SOL    HW121696  14.186  12.562   9.334
 6619SOL    HW221697  14.153  12.710   9.337
 6620SOL     OW21698  11.315   9.873   7.105
 6620SOL    HW121699  11.270   9.804   7.056
 6620SOL    HW221700  11.250   9.906   7.167
 6621SOL     OW21701   3.272   4.460   7.007
 6621SOL    HW121702   3.194   4.507   7.038
 6621SOL    HW221703   3.339   4.480   7.072
 6622SOL     OW21704   8.960  12.453   0.278
 6622SOL    HW121705   8.928  12.453   0.368
 6622SOL    HW221706   8.918  12.378   0.237
 6623SOL     OW21707  11.761   2.789  10.831
 6623SOL    HW121708  11.680   2.840  10.830
 6623SOL    HW221709  11.830   2.855  10.828
 6624SOL     OW21710   9.536   1.628   2.390
 6624SOL    HW121711   9.509   1.595   2.476
 6624SOL    HW221712   9.502   1.717   2.387
 6625SOL     OW21713  11.499   3.353  14.736
 6625SOL    HW121714  11.407   3.328  14.728
 6625SOL    HW221715  11.547   3.286  14.688
 6626SOL     OW21716   2.638  13.995   0.907
 6626SOL    HW121717   2.611  13.986   0.999
 6626SOL    HW221718   2.599  13.919   0.863
 6627SOL     OW21719   9.817   8.416  13.902
 6627SOL    HW121720   9.857   8.493  13.943
 6627SOL    HW221721   9.886   8.379  13.847
 6628SOL     OW21722  10.971  14.401   1.219
 6628SOL    HW121723  10.880  14.415   1.196
 6628SOL    HW221724  10.979  14.306   1.227
 6629SOL     OW21725   7.689   9.000  11.045
 6629SOL    HW121726   7.748   9.075  11.039
 6629SOL    HW221727   7.729   8.934  10.988
 6630SOL     OW21728   5.045  12.290   3.489
 6630SOL    HW121729   5.015  12.250   3.570
 6630SOL    HW221730   5.140  12.295   3.499
 6631SOL     OW21731   1.917  12.288   7.368
 6631SOL    HW121732   1.830  12.319   7.343
 6631SOL    HW221733   1.937  12.337   7.448
 6632SOL     OW21734   9.387   3.383   3.769
 6632SOL    HW121735   9.382   3.460   3.711
 6632SOL    HW221736   9.307   3.389   3.822
 6633SOL     OW21737   1.697   6.582   6.921
 6633SOL    HW121738   1.748   6.520   6.870
 6633SOL    HW221739   1.754   6.609   6.993
 6634SOL     OW21740   1.895   5.375  13.333
 6634SOL    HW121741   1.806   5.409  13.324
 6634SOL    HW221742   1.948   5.433  13.278
 6635SOL     OW21743  12.803  12.609   4.861
 6635SOL    HW121744  12.821  12.519   4.889
 6635SOL    HW221745  12.729  12.637   4.916
 6636SOL     OW21746  10.077  11.766   2.026
 6636SOL    HW121747  10.074  11.765   1.930
 6636SOL    HW221748  10.064  11.675   2.051
 6637SOL     OW21749  10.545  11.331  11.008
 6637SOL    HW121750  10.453  11.357  11.004
 6637SOL    HW221751  10.591  11.395  10.955
 6638SOL     OW21752   2.895  10.449   4.354
 6638SOL    HW121753   2.811  10.416   4.324
 6638SOL    HW221754   2.960  10.394   4.311
 6639SOL     OW21755   5.721   3.781   8.286
 6639SOL    HW121756   5.755   3.843   8.221
 6639SOL    HW221757   5.660   3.833   8.339
 6640SOL     OW21758  14.871   3.296   5.364
 6640SOL    HW121759  14.793   3.340   5.398
 6640SOL    HW221760   0.032   3.260   5.442
 6641SOL     OW21761   4.031  11.608   7.754
 6641SOL    HW121762   4.064  11.614   7.664
 6641SOL    HW221763   3.950  11.660   7.754
 6642SOL     OW21764  10.240  11.958  12.653
 6642SOL    HW121765  10.229  12.027  12.718
 6642SOL    HW221766  10.215  11.999  12.570
 6643SOL     OW21767  11.432  13.938   9.016
 6643SOL    HW121768  11.427  14.008   8.951
 6643SOL    HW221769  11.359  13.955   9.076
 6644SOL     OW21770   2.067   4.354   7.852
 6644SOL    HW121771   2.130   4.349   7.780
 6644SOL    HW221772   2.056   4.264   7.882
 6645SOL     OW21773   0.146   1.247  13.252
 6645SOL    HW121774   0.111   1.310  13.189
 6645SOL    HW221775   0.205   1.192  13.200
 6646SOL     OW21776   9.103  14.078  10.577
 6646SOL    HW121777   9.134  14.019  10.508
 6646SOL    HW221778   9.100  14.023  10.655
 6647SOL     OW21779   9.291   8.163  10.159
 6647SOL    HW121780   9.282   8.141  10.252
 6647SOL    HW221781   9.333   8.086  10.121
 6648SOL     OW21782  12.225   2.295   3.016
 6648SOL    HW121783  12.317   2.274   3.029
 6648SOL    HW221784  12.220   2.332   2.928
 6649SOL     OW21785   5.810   8.298   7.210
 6649SOL    HW121786   5.766   8.216   7.187
 6649SOL    HW221787   5.826   8.340   7.126
 6650SOL     OW21788  12.936   2.984   3.987
 6650SOL    HW121789  12.882   2.975   3.908
 6650SOL    HW221790  13.018   2.940   3.964
 6651SOL     OW21791   0.881  13.253  12.400
 6651SOL    HW121792   0.950  13.318  12.405
 6651SOL    HW221793   0.805  13.294  12.441
 6652SOL     OW21794  10.904   1.335   2.002
 6652SOL    HW121795  10.823   1.332   2.053
 6652SOL    HW221796  10.954   1.408   2.039
 6653SOL     OW21797   2.946   2.010   9.005
 6653SOL    HW121798   3.020   2.000   8.946
 6653SOL    HW221799   2.914   1.920   9.020
 6654SOL     OW21800  11.197   5.624  13.024
 6654SOL    HW121801  11.243   5.708  13.019
 6654SOL    HW221802  11.189   5.595  12.933
 6655SOL     OW21803   0.337   3.059   4.098
 6655SOL    HW121804   0.333   3.041   4.192
 6655SOL    HW221805   0.306   2.978   4.057
 6656SOL     OW21806  11.344   5.603   7.003
 6656SOL    HW121807  11.371   5.524   7.050
 6656SOL    HW221808  11.252   5.587   6.981
 6657SOL     OW21809  14.420  13.357   0.630
 6657SOL    HW121810  14.417  13.394   0.541
 6657SOL    HW221811  14.358  13.284   0.628
 6658SOL     OW21812   4.904   4.384   2.447
 6658SOL    HW121813   4.824   4.430   2.421
 6658SOL    HW221814   4.969   4.454   2.458
 6659SOL     OW21815   7.512   3.880   2.851
 6659SOL    HW121816   7.582   3.943   2.867
 6659SOL    HW221817   7.437   3.915   2.899
 6660SOL     OW21818  13.092   5.062   8.310
 6660SOL    HW121819  13.157   5.097   8.249
 6660SOL    HW221820  13.041   5.000   8.257
 6661SOL     OW21821   7.192   3.945   8.382
 6661SOL    HW121822   7.247   3.942   8.460
 6661SOL    HW221823   7.142   3.863   8.385
 6662SOL     OW21824   8.670   1.017   9.803
 6662SOL    HW121825   8.584   1.050   9.777
 6662SOL    HW221826   8.730   1.090   9.789
 6663SOL     OW21827   8.982   3.564   3.756
 6663SOL    HW121828   8.894   3.541   3.785
 6663SOL    HW221829   8.969   3.613   3.675
 6664SOL     OW21830  13.417  11.758   1.803
 6664SOL    HW121831  13.413  11.792   1.892
 6664SOL    HW221832  13.506  11.779   1.773
 6665SOL     OW21833   1.822  11.825   9.235
 6665SOL    HW121834   1.838  11.916   9.260
 6665SOL    HW221835   1.809  11.779   9.319
 6666SOL     OW21836   0.193  12.657   1.924
 6666SOL    HW121837   0.288  12.651   1.935
 6666SOL    HW221838   0.161  12.684   2.010
 6667SOL     OW21839   2.765   1.080  12.039
 6667SOL    HW121840   2.861   1.089  12.038
 6667SOL    HW221841   2.735   1.147  12.100
 6668SOL     OW21842   3.699   3.513   3.104
 6668SOL    HW121843   3.715   3.446   3.037
 6668SOL    HW221844   3.766   3.497   3.170
 6669SOL     OW21845  14.080   2.016  12.177
 6669SOL    HW121846  14.011   1.995  12.114
 6669SOL    HW221847  14.047   2.094  12.223
 6670SOL     OW21848   1.295   5.072  11.470
 6670SOL    HW121849   1.370   5.022  11.502
 6670SOL    HW221850   1.334   5.144  11.419
 6671SOL     OW21851  12.288   1.255  11.551
 6671SOL    HW121852  12.287   1.257  11.647
 6671SOL    HW221853  12.196   1.247  11.526
 6672SOL     OW21854  14.686   3.212  13.245
 6672SOL    HW121855  14.695   3.117  13.258
 6672SOL    HW221856  14.594   3.229  13.265
 6673SOL     OW21857   7.694   2.349  11.995
 6673SOL    HW121858   7.665   2.437  12.016
 6673SOL    HW221859   7.765   2.361  11.932
 6674SOL     OW21860   7.372   5.070  11.797
 6674SOL    HW121861   7.416   5.012  11.859
 6674SOL    HW221862   7.280   5.044  11.801
 6675SOL     OW21863  11.864   0.950  10.800
 6675SOL    HW121864  11.785   1.002  10.819
 6675SOL    HW221865  11.916   0.956  10.880
 6676SOL     OW21866  13.448   7.429   3.696
 6676SOL    HW121867  13.458   7.496   3.764
 6676SOL    HW221868  13.491   7.352   3.732
 6677SOL     OW21869  10.096   3.650   6.560
 6677SOL    HW121870  10.180   3.610   6.540
 6677SOL    HW221871  10.034   3.608   6.500
 6678SOL     OW21872   0.146   5.291  14.138
 6678SOL    HW121873   0.077   5.296  14.204
 6678SOL    HW221874   0.184   5.379  14.135
 6679SOL     OW21875   5.053   6.559  10.170
 6679SOL    HW121876   4.992   6.591  10.235
 6679SOL    HW221877   5.109   6.498  10.218
 6680SOL     OW21878   6.972   5.540   7.080
 6680SOL    HW121879   6.901   5.595   7.114
 6680SOL    HW221880   7.049   5.565   7.131
 6681SOL     OW21881   8.862   8.900  14.315
 6681SOL    HW121882   8.958   8.896  14.318
 6681SOL    HW221883   8.834   8.827  14.371
 6682SOL     OW21884   8.336   7.282   0.487
 6682SOL    HW121885   8.400   7.235   0.540
 6682SOL    HW221886   8.367   7.274   0.397
 6683SOL     OW21887   8.166   7.247  10.771
 6683SOL    HW121888   8.256   7.262  10.744
 6683SOL    HW221889   8.137   7.173  10.719
 6684SOL     OW21890   5.430  12.226   5.394
 6684SOL    HW121891   5.441  12.140   5.436
 6684SOL    HW221892   5.468  12.214   5.307
 6685SOL     OW21893   7.504   0.150  10.261
 6685SOL    HW121894   7.586   0.201  10.260
 6685SOL    HW221895   7.532   0.060  10.247
 6686SOL     OW21896   6.455   7.288   4.635
 6686SOL    HW121897   6.459   7.243   4.720
 6686SOL    HW221898   6.373   7.256   4.596
 6687SOL     OW21899   9.056  10.211  13.861
 6687SOL    HW121900   9.144  10.216  13.824
 6687SOL    HW221901   9.069  10.190  13.953
 6688SOL     OW21902   6.444  11.328   0.530
 6688SOL    HW121903   6.352  11.346   0.551
 6688SOL    HW221904   6.444  11.315   0.436
 6689SOL     OW21905  14.607   0.754   3.666
 6689SOL    HW121906  14.669   0.685   3.689
 6689SOL    HW221907  14.658   0.834   3.667
 6690SOL     OW21908   8.864   1.993  11.131
 6690SOL    HW121909   8.929   2.062  11.115
 6690SOL    HW221910   8.908   1.912  11.107
 6691SOL     OW21911   3.752  11.836   9.377
 6691SOL    HW121912   3.700  11.801   9.303
 6691SOL    HW221913   3.687  11.853   9.445
 6692SOL     OW21914   5.656   7.524   0.089
 6692SOL    HW121915   5.746   7.543   0.112
 6692SOL    HW221916   5.660   7.440   0.044
 6693SOL     OW21917   6.599   4.868   4.682
 6693SOL    HW121918   6.549   4.838   4.607
 6693SOL    HW221919   6.582   4.962   4.687
 6694SOL     OW21920   9.741   3.545   9.567
 6694SOL    HW121921   9.662   3.597   9.582
 6694SOL    HW221922   9.770   3.570   9.479
 6695SOL     OW21923   5.637  10.245   2.772
 6695SOL    HW121924   5.704  10.263   2.838
 6695SOL    HW221925   5.637  10.150   2.763
 6696SOL     OW21926   7.419   1.733  14.599
 6696SOL    HW121927   7.501   1.770  14.567
 6696SOL    HW221928   7.440   1.698  14.686
 6697SOL     OW21929   1.731  11.849   8.540
 6697SOL    HW121930   1.784  11.783   8.496
 6697SOL    HW221931   1.663  11.870   8.476
 6698SOL     OW21932   7.497  12.130   0.998
 6698SOL    HW121933   7.480  12.221   1.019
 6698SOL    HW221934   7.508  12.129   0.903
 6699SOL     OW21935  12.450   6.052   3.121
 6699SOL    HW121936  12.478   5.987   3.185
 6699SOL    HW221937  12.421   6.126   3.174
 6700SOL     OW21938   2.064  13.107   5.754
 6700SOL    HW121939   2.065  13.111   5.658
 6700SOL    HW221940   2.156  13.101   5.779
 6701SOL     OW21941  10.266   1.842  10.317
 6701SOL    HW121942  10.239   1.879  10.233
 6701SOL    HW221943  10.204   1.879  10.380
 6702SOL     OW21944   2.136   6.071   9.487
 6702SOL    HW121945   2.180   6.152   9.461
 6702SOL    HW221946   2.185   6.040   9.563
 6703SOL     OW21947   2.368   9.016   6.378
 6703SOL    HW121948   2.411   9.014   6.293
 6703SOL    HW221949   2.312   8.938   6.378
 6704SOL     OW21950   0.752  10.963   4.825
 6704SOL    HW121951   0.745  11.014   4.744
 6704SOL    HW221952   0.729  10.874   4.800
 6705SOL     OW21953  12.681  11.889   3.277
 6705SOL    HW121954  12.635  11.878   3.193
 6705SOL    HW221955  12.716  11.802   3.297
 6706SOL     OW21956   5.961   5.586   4.545
 6706SOL    HW121957   6.002   5.657   4.595
 6706SOL    HW221958   5.913   5.535   4.611
 6707SOL     OW21959   2.567   8.962  13.514
 6707SOL    HW121960   2.535   8.884  13.559
 6707SOL    HW221961   2.572   8.937  13.422
 6708SOL     OW21962   1.273  14.182   7.639
 6708SOL    HW121963   1.290  14.267   7.679
 6708SOL    HW221964   1.210  14.200   7.570
 6709SOL     OW21965   5.819  11.505   8.359
 6709SOL    HW121966   5.831  11.525   8.266
 6709SOL    HW221967   5.734  11.544   8.380
 6710SOL     OW21968   9.160   4.492   2.370
 6710SOL    HW121969   9.205   4.517   2.451
 6710SOL    HW221970   9.128   4.575   2.334
 6711SOL     OW21971  10.990   5.699   2.182
 6711SOL    HW121972  10.923   5.742   2.236
 6711SOL    HW221973  11.068   5.754   2.193
 6712SOL     OW21974   0.505   2.723   4.987
 6712SOL    HW121975   0.435   2.745   5.048
 6712SOL    HW221976   0.505   2.627   4.983
 6713SOL     OW21977  10.246  10.584  12.301
 6713SOL    HW121978  10.232  10.603  12.208
 6713SOL    HW221979  10.255  10.670  12.342
 6714SOL     OW21980   9.540   8.293  13.718
 6714SOL    HW121981   9.450   8.301  13.685
 6714SOL    HW221982   9.571   8.383  13.725
 6715SOL     OW21983  14.706  10.763   1.628
 6715SOL    HW121984  14.763  10.691   1.601
 6715SOL    HW221985  14.766  10.824   1.673
 6716SOL     OW21986   7.214   2.738   3.637
 6716SOL    HW121987   7.149   2.804   3.659
 6716SOL    HW221988   7.221   2.742   3.541
 6717SOL     OW21989   3.963   3.036  14.513
 6717SOL    HW121990   3.927   3.061  14.428
 6717SOL    HW221991   4.055   3.014  14.495
 6718SOL     OW21992  13.542   6.777  10.386
 6718SOL    HW121993  13.476   6.829  10.432
 6718SOL    HW221994  13.625   6.800  10.429
 6719SOL     OW21995   8.236   5.616   6.538
 6719SOL    HW121996   8.198   5.622   6.450
 6719SOL    HW221997   8.161   5.609   6.596
 6720SOL     OW21998   9.246  12.128   8.403
 6720SOL    HW121999   9.318  12.146   8.342
 6720SOL    HW222000   9.241  12.206   8.458
 6721SOL     OW22001   7.499  11.656  12.615
 6721SOL    HW122002   7.542  11.622  12.693
 6721SOL    HW222003   7.564  11.648  12.545
 6722SOL     OW22004   2.557   8.099   4.850
 6722SOL    HW122005   2.499   8.138   4.915
 6722SOL    HW222006   2.501   8.040   4.799
 6723SOL     OW22007   3.810  12.904   2.815
 6723SOL    HW122008   3.764  12.984   2.790
 6723SOL    HW222009   3.741  12.847   2.849
 6724SOL     OW22010   9.528   2.126   0.892
 6724SOL    HW122011   9.511   2.033   0.908
 6724SOL    HW222012   9.583   2.128   0.814
 6725SOL     OW22013  13.169  14.628  14.737
 6725SOL    HW122014  13.175  14.723  14.749
 6725SOL    HW222015  13.168  14.616  14.642
 6726SOL     OW22016  13.681  13.578   6.891
 6726SOL    HW122017  13.658  13.606   6.980
 6726SOL    HW222018  13.640  13.492   6.881
 6727SOL     OW22019  10.611   3.261   5.915
 6727SOL    HW122020  10.703   3.245   5.935
 6727SOL    HW222021  10.612   3.295   5.825
 6728SOL     OW22022   0.148   0.831   1.401
 6728SOL    HW122023   0.131   0.780   1.480
 6728SOL    HW222024   0.196   0.771   1.344
 6729SOL     OW22025  12.825   2.845  13.333
 6729SOL    HW122026  12.871   2.761  13.341
 6729SOL    HW222027  12.733   2.823  13.348
 6730SOL     OW22028  10.117   1.292  11.127
 6730SOL    HW122029  10.096   1.199  11.120
 6730SOL    HW222030  10.131   1.319  11.036
 6731SOL     OW22031  10.145  10.372   1.208
 6731SOL    HW122032  10.147  10.305   1.140
 6731SOL    HW222033  10.237  10.385   1.231
 6732SOL     OW22034   5.085  12.666  11.693
 6732SOL    HW122035   5.103  12.619  11.611
 6732SOL    HW222036   5.147  12.628  11.755
 6733SOL     OW22037   0.077   5.805   8.407
 6733SOL    HW122038   0.039   5.865   8.472
 6733SOL    HW222039   0.171   5.819   8.414
 6734SOL     OW22040   7.351   9.221   5.447
 6734SOL    HW122041   7.388   9.220   5.358
 6734SOL    HW222042   7.423   9.252   5.502
 6735SOL     OW22043  10.885  12.898  10.656
 6735SOL    HW122044  10.961  12.946  10.689
 6735SOL    HW222045  10.917  12.855  10.576
 6736SOL     OW22046  11.214  14.737   5.940
 6736SOL    HW122047  11.277  14.794   5.984
 6736SOL    HW222048  11.148  14.718   6.007
 6737SOL     OW22049   6.740  10.323   5.066
 6737SOL    HW122050   6.736  10.414   5.036
 6737SOL    HW222051   6.814  10.286   5.018
 6738SOL     OW22052   4.207  14.584   7.800
 6738SOL    HW122053   4.206  14.528   7.877
 6738SOL    HW222054   4.138  14.548   7.743
 6739SOL     OW22055   6.257   2.872   8.399
 6739SOL    HW122056   6.289   2.959   8.420
 6739SOL    HW222057   6.190   2.854   8.465
 6740SOL     OW22058   6.236   7.021   8.193
 6740SOL    HW122059   6.325   6.988   8.200
 6740SOL    HW222060   6.194   6.999   8.276
 6741SOL     OW22061   2.097   1.682   4.341
 6741SOL    HW122062   2.075   1.769   4.375
 6741SOL    HW222063   2.176   1.696   4.288
 6742SOL     OW22064   1.959   8.734   1.065
 6742SOL    HW122065   1.877   8.692   1.090
 6742SOL    HW222066   2.009   8.666   1.021
 6743SOL     OW22067   8.276   0.507   1.475
 6743SOL    HW122068   8.248   0.575   1.536
 6743SOL    HW222069   8.349   0.546   1.428
 6744SOL     OW22070   2.457  12.931  12.101
 6744SOL    HW122071   2.506  12.871  12.044
 6744SOL    HW222072   2.489  12.912  12.189
 6745SOL     OW22073   0.496   0.420  13.644
 6745SOL    HW122074   0.543   0.344  13.610
 6745SOL    HW222075   0.562   0.489  13.651
 6746SOL     OW22076  11.079  13.223   3.487
 6746SOL    HW122077  11.042  13.226   3.576
 6746SOL    HW222078  11.115  13.135   3.479
 6747SOL     OW22079   4.326   2.328   3.248
 6747SOL    HW122080   4.283   2.401   3.295
 6747SOL    HW222081   4.258   2.294   3.190
 6748SOL     OW22082   6.414   0.535  10.861
 6748SOL    HW122083   6.364   0.495  10.790
 6748SOL    HW222084   6.487   0.475  10.875
 6749SOL     OW22085  14.751   3.687   3.638
 6749SOL    HW122086  14.689   3.614   3.646
 6749SOL    HW222087  14.836   3.649   3.659
 6750SOL     OW22088   7.984  14.334   1.410
 6750SOL    HW122089   7.896  14.352   1.442
 6750SOL    HW222090   8.023  14.277   1.476
 6751SOL     OW22091  10.281   9.125  11.783
 6751SOL    HW122092  10.269   9.056  11.718
 6751SOL    HW222093  10.252   9.085  11.866
 6752SOL     OW22094   9.524   3.658  11.642
 6752SOL    HW122095   9.493   3.722  11.705
 6752SOL    HW222096   9.617   3.646  11.663
 6753SOL     OW22097   7.204   2.009  12.109
 6753SOL    HW122098   7.122   1.960  12.103
 6753SOL    HW222099   7.272   1.941  12.109
 6754SOL     OW22100   1.005   9.797  14.250
 6754SOL    HW122101   1.087   9.758  14.278
 6754SOL    HW222102   0.965   9.830  14.331
 6755SOL     OW22103   9.807   5.555   4.458
 6755SOL    HW122104   9.867   5.505   4.404
 6755SOL    HW222105   9.853   5.568   4.541
 6756SOL     OW22106  10.361   3.296   9.631
 6756SOL    HW122107  10.443   3.335   9.601
 6756SOL    HW222108  10.388   3.214   9.673
 6757SOL     OW22109  10.730   2.656  13.809
 6757SOL    HW122110  10.741   2.571  13.766
 6757SOL    HW222111  10.701   2.635  13.898
 6758SOL     OW22112   7.340  13.813   6.176
 6758SOL    HW122113   7.294  13.796   6.258
 6758SOL    HW222114   7.326  13.906   6.159
 6759SOL     OW22115   9.854   7.864   2.975
 6759SOL    HW122116   9.920   7.932   2.990
 6759SOL    HW222117   9.902   7.792   2.933
 6760SOL     OW22118   4.278  13.940   0.715
 6760SOL    HW122119   4.185  13.948   0.739
 6760SOL    HW222120   4.281  13.863   0.657
 6761SOL     OW22121   6.556   9.908   3.629
 6761SOL    HW122122   6.537   9.918   3.722
 6761SOL    HW222123   6.471   9.894   3.588
 6762SOL     OW22124   6.429   7.126   2.424
 6762SOL    HW122125   6.503   7.103   2.479
 6762SOL    HW222126   6.398   7.209   2.459
 6763SOL     OW22127   6.652  10.456   9.008
 6763SOL    HW122128   6.672  10.518   8.937
 6763SOL    HW222129   6.575  10.493   9.052
 6764SOL     OW22130   5.598  14.438   6.431
 6764SOL    HW122131   5.503  14.438   6.421
 6764SOL    HW222132   5.620  14.529   6.451
 6765SOL     OW22133   9.521   4.989   5.523
 6765SOL    HW122134   9.606   4.986   5.567
 6765SOL    HW222135   9.523   5.070   5.472
 6766SOL     OW22136   8.042   6.202   5.696
 6766SOL    HW122137   7.964   6.231   5.743
 6766SOL    HW222138   8.115   6.240   5.745
 6767SOL     OW22139   9.398  14.173   6.125
 6767SOL    HW122140   9.329  14.238   6.113
 6767SOL    HW222141   9.452  14.209   6.195
 6768SOL     OW22142   0.827  11.387  13.817
 6768SOL    HW122143   0.828  11.449  13.744
 6768SOL    HW222144   0.841  11.301  13.776
 6769SOL     OW22145   6.158   4.717   8.474
 6769SOL    HW122146   6.162   4.622   8.477
 6769SOL    HW222147   6.184   4.745   8.562
 6770SOL     OW22148   6.236   4.431  10.376
 6770SOL    HW122149   6.316   4.435  10.429
 6770SOL    HW222150   6.178   4.496  10.415
 6771SOL     OW22151   5.024  13.269  12.250
 6771SOL    HW122152   4.930  13.280  12.245
 6771SOL    HW222153   5.056  13.289  12.162
 6772SOL     OW22154   9.032   1.612   1.871
 6772SOL    HW122155   9.099   1.544   1.871
 6772SOL    HW222156   9.079   1.692   1.848
 6773SOL     OW22157   4.089   6.578  10.788
 6773SOL    HW122158   4.097   6.603  10.696
 6773SOL    HW222159   4.167   6.525  10.805
 6774SOL     OW22160   4.132   2.097   6.734
 6774SOL    HW122161   4.189   2.135   6.802
 6774SOL    HW222162   4.084   2.028   6.779
 6775SOL     OW22163   1.799   6.614  11.574
 6775SOL    HW122164   1.746   6.643  11.648
 6775SOL    HW222165   1.827   6.696  11.531
 6776SOL     OW22166   2.887   3.575  10.396
 6776SOL    HW122167   2.915   3.543  10.482
 6776SOL    HW222168   2.799   3.609  10.411
 6777SOL     OW22169   7.496  14.733   0.131
 6777SOL    HW122170   7.495  14.641   0.155
 6777SOL    HW222171   7.584  14.747   0.095
 6778SOL     OW22172   8.145   1.963  12.022
 6778SOL    HW122173   8.141   1.925  11.934
 6778SOL    HW222174   8.061   2.006  12.034
 6779SOL     OW22175  10.403   8.651   7.158
 6779SOL    HW122176  10.368   8.697   7.082
 6779SOL    HW222177  10.441   8.571   7.122
 6780SOL     OW22178   1.201  11.722   3.213
 6780SOL    HW122179   1.185  11.701   3.305
 6780SOL    HW222180   1.161  11.650   3.165
 6781SOL     OW22181  10.665  12.762   3.876
 6781SOL    HW122182  10.601  12.762   3.948
 6781SOL    HW222183  10.746  12.795   3.916
 6782SOL     OW22184   6.319  13.722   0.521
 6782SOL    HW122185   6.350  13.792   0.578
 6782SOL    HW222186   6.238  13.691   0.562
 6783SOL     OW22187   0.088   1.804   1.722
 6783SOL    HW122188   0.042   1.871   1.773
 6783SOL    HW222189   0.032   1.726   1.730
 6784SOL     OW22190   6.563  12.913   3.008
 6784SOL    HW122191   6.602  12.935   2.924
 6784SOL    HW222192   6.562  12.995   3.057
 6785SOL     OW22193  14.339  13.232   4.520
 6785SOL    HW122194  14.314  13.294   4.588
 6785SOL    HW222195  14.289  13.152   4.541
 6786SOL     OW22196  10.513   7.878   7.418
 6786SOL    HW122197  10.572   7.875   7.494
 6786SOL    HW222198  10.464   7.959   7.429
 6787SOL     OW22199  14.609   3.202   3.761
 6787SOL    HW122200  14.534   3.177   3.707
 6787SOL    HW222201  14.584   3.285   3.801
 6788SOL     OW22202  13.560  12.876   6.967
 6788SOL    HW122203  13.471  12.872   7.002
 6788SOL    HW222204  13.578  12.969   6.958
 6789SOL     OW22205   6.396   6.894   0.331
 6789SOL    HW122206   6.465   6.960   0.337
 6789SOL    HW222207   6.443   6.814   0.308
 6790SOL     OW22208   8.216   1.140   6.757
 6790SOL    HW122209   8.184   1.121   6.845
 6790SOL    HW222210   8.310   1.121   6.761
 6791SOL     OW22211  13.238   3.692   2.765
 6791SOL    HW122212  13.222   3.629   2.695
 6791SOL    HW222213  13.318   3.738   2.739
 6792SOL     OW22214   8.263   1.511   6.232
 6792SOL    HW122215   8.326   1.439   6.237
 6792SOL    HW222216   8.283   1.555   6.149
 6793SOL     OW22217   0.507   6.785  12.983
 6793SOL    HW122218   0.498   6.709  13.041
 6793SOL    HW222219   0.521   6.859  13.042
 6794SOL     OW22220   5.389  12.572   8.895
 6794SOL    HW122221   5.317  12.614   8.847
 6794SOL    HW222222   5.354  12.486   8.920
 6795SOL     OW22223  14.512   4.279  10.684
 6795SOL    HW122224  14.518   4.361  10.733
 6795SOL    HW222225  14.459   4.301  10.608
 6796SOL     OW22226  14.057   1.917  13.622
 6796SOL    HW122227  14.004   1.967  13.685
 6796SOL    HW222228  14.060   1.829  13.659
 6797SOL     OW22229  13.621   5.466   6.168
 6797SOL    HW122230  13.551   5.411   6.204
 6797SOL    HW222231  13.652   5.418   6.091
 6798SOL     OW22232   7.066   4.202   6.409
 6798SOL    HW122233   7.139   4.141   6.404
 6798SOL    HW222234   7.080   4.262   6.336
 6799SOL     OW22235  12.750   8.358  12.105
 6799SOL    HW122236  12.754   8.311  12.189
 6799SOL    HW222237  12.828   8.414  12.105
 6800SOL     OW22238   9.534   4.388   3.043
 6800SOL    HW122239   9.459   4.373   3.101
 6800SOL    HW222240   9.543   4.483   3.042
 6801SOL     OW22241  14.735   8.029  13.337
 6801SOL    HW122242  14.645   7.998  13.331
 6801SOL    HW222243  14.788   7.956  13.304
 6802SOL     OW22244   7.038   5.255  14.640
 6802SOL    HW122245   7.016   5.200  14.715
 6802SOL    HW222246   6.961   5.311  14.627
 6803SOL     OW22247  12.754   1.081  13.394
 6803SOL    HW122248  12.710   1.055  13.475
 6803SOL    HW222249  12.685   1.077  13.328
 6804SOL     OW22250   9.596   1.724   2.803
 6804SOL    HW122251   9.662   1.659   2.777
 6804SOL    HW222252   9.608   1.732   2.898
 6805SOL     OW22253   6.617   6.346  10.985
 6805SOL    HW122254   6.607   6.329  10.892
 6805SOL    HW222255   6.587   6.436  10.997
 6806SOL     OW22256   2.711   3.649   4.130
 6806SOL    HW122257   2.803   3.675   4.123
 6806SOL    HW222258   2.705   3.568   4.078
 6807SOL     OW22259   2.050  13.978   8.177
 6807SOL    HW122260   2.058  13.995   8.271
 6807SOL    HW222261   1.983  14.040   8.147
 6808SOL     OW22262   8.609   2.583  14.189
 6808SOL    HW122263   8.703   2.582  14.168
 6808SOL    HW222264   8.605   2.619  14.278
 6809SOL     OW22265   3.333   1.775  12.650
 6809SOL    HW122266   3.276   1.824  12.592
 6809SOL    HW222267   3.307   1.801  12.738
 6810SOL     OW22268   2.480   8.921   4.804
 6810SOL    HW122269   2.463   8.994   4.862
 6810SOL    HW222270   2.550   8.871   4.848
 6811SOL     OW22271   3.180  10.756  10.705
 6811SOL    HW122272   3.203  10.831  10.650
 6811SOL    HW222273   3.208  10.781  10.793
 6812SOL     OW22274  12.330   4.350   6.673
 6812SOL    HW122275  12.383   4.287   6.625
 6812SOL    HW222276  12.357   4.341   6.764
 6813SOL     OW22277   1.542  10.602  10.780
 6813SOL    HW122278   1.557  10.513  10.748
 6813SOL    HW222279   1.628  10.632  10.810
 6814SOL     OW22280  12.175   5.579   9.475
 6814SOL    HW122281  12.146   5.495   9.441
 6814SOL    HW222282  12.101   5.638   9.460
 6815SOL     OW22283   6.928   9.482   4.344
 6815SOL    HW122284   6.994   9.550   4.350
 6815SOL    HW222285   6.977   9.400   4.353
 6816SOL     OW22286   2.267  12.483   9.533
 6816SOL    HW122287   2.223  12.476   9.448
 6816SOL    HW222288   2.227  12.415   9.586
 6817SOL     OW22289   5.055  12.623  10.545
 6817SOL    HW122290   4.985  12.619  10.481
 6817SOL    HW222291   5.023  12.572  10.619
 6818SOL     OW22292   1.118  12.691   5.553
 6818SOL    HW122293   1.099  12.637   5.630
 6818SOL    HW222294   1.038  12.742   5.539
 6819SOL     OW22295  11.411   3.895  14.681
 6819SOL    HW122296  11.411   3.988  14.703
 6819SOL    HW222297  11.371   3.891  14.594
 6820SOL     OW22298  12.418   3.101   0.158
 6820SOL    HW122299  12.494   3.158   0.148
 6820SOL    HW222300  12.370   3.139   0.232
 6821SOL     OW22301   4.047  11.194   7.505
 6821SOL    HW122302   4.140  11.215   7.503
 6821SOL    HW222303   4.029  11.151   7.422
 6822SOL     OW22304   9.632   3.660   3.572
 6822SOL    HW122305   9.712   3.662   3.520
 6822SOL    HW222306   9.629   3.571   3.607
 6823SOL     OW22307   5.316   5.991  10.396
 6823SOL    HW122308   5.300   5.899  10.416
 6823SOL    HW222309   5.356   5.991  10.309
 6824SOL     OW22310   0.643  14.519  11.404
 6824SOL    HW122311   0.715  14.566  11.446
 6824SOL    HW222312   0.565  14.568  11.428
 6825SOL     OW22313   7.195  14.222   9.690
 6825SOL    HW122314   7.149  14.239   9.772
 6825SOL    HW222315   7.170  14.133   9.667
 6826SOL     OW22316   7.553   6.006   7.222
 6826SOL    HW122317   7.640   6.043   7.230
 6826SOL    HW222318   7.503   6.071   7.173
 6827SOL     OW22319   1.896   4.363   2.687
 6827SOL    HW122320   1.945   4.437   2.651
 6827SOL    HW222321   1.806   4.375   2.655
 6828SOL     OW22322   0.229   4.982   4.932
 6828SOL    HW122323   0.220   4.902   4.881
 6828SOL    HW222324   0.194   4.959   5.018
 6829SOL     OW22325  14.347   8.861   1.626
 6829SOL    HW122326  14.420   8.824   1.676
 6829SOL    HW222327  14.354   8.956   1.640
 6830SOL     OW22328   5.824   7.032   2.897
 6830SOL    HW122329   5.814   6.937   2.893
 6830SOL    HW222330   5.880   7.048   2.973
 6831SOL     OW22331   5.411   7.251   4.423
 6831SOL    HW122332   5.367   7.189   4.481
 6831SOL    HW222333   5.435   7.325   4.479
 6832SOL     OW22334  12.544  12.534   2.133
 6832SOL    HW122335  12.512  12.513   2.221
 6832SOL    HW222336  12.637  12.551   2.146
 6833SOL     OW22337  13.774   1.431   6.793
 6833SOL    HW122338  13.824   1.463   6.718
 6833SOL    HW222339  13.749   1.509   6.842
 6834SOL     OW22340   6.004   3.027   9.146
 6834SOL    HW122341   5.963   2.942   9.161
 6834SOL    HW222342   6.063   3.012   9.072
 6835SOL     OW22343   7.874   3.660   8.762
 6835SOL    HW122344   7.892   3.596   8.831
 6835SOL    HW222345   7.916   3.623   8.684
 6836SOL     OW22346   3.069  14.576   9.219
 6836SOL    HW122347   3.074  14.525   9.300
 6836SOL    HW222348   3.007  14.528   9.165
 6837SOL     OW22349   8.653  11.807   0.897
 6837SOL    HW122350   8.566  11.814   0.936
 6837SOL    HW222351   8.659  11.881   0.837
 6838SOL     OW22352  10.673  10.391   1.971
 6838SOL    HW122353  10.698  10.311   1.924
 6838SOL    HW222354  10.618  10.361   2.043
 6839SOL     OW22355  10.324   9.556   0.407
 6839SOL    HW122356  10.250   9.522   0.458
 6839SOL    HW222357  10.304   9.529   0.317
 6840SOL     OW22358   4.489   4.910   7.119
 6840SOL    HW122359   4.481   4.930   7.212
 6840SOL    HW222360   4.576   4.942   7.095
 6841SOL     OW22361  11.538   6.509   4.891
 6841SOL    HW122362  11.497   6.541   4.811
 6841SOL    HW222363  11.623   6.474   4.863
 6842SOL     OW22364   5.965   9.676  13.939
 6842SOL    HW122365   5.871   9.677  13.956
 6842SOL    HW222366   6.003   9.732  14.007
 6843SOL     OW22367   5.268   7.936   0.456
 6843SOL    HW122368   5.227   7.955   0.372
 6843SOL    HW222369   5.359   7.916   0.435
 6844SOL     OW22370  14.064  13.703  13.797
 6844SOL    HW122371  14.058  13.671  13.887
 6844SOL    HW222372  13.978  13.687  13.760
 6845SOL     OW22373   5.496   1.492   1.650
 6845SOL    HW122374   5.455   1.577   1.640
 6845SOL    HW222375   5.572   1.508   1.706
 6846SOL     OW22376  10.744   3.045   2.790
 6846SOL    HW122377  10.681   3.026   2.860
 6846SOL    HW222378  10.698   3.107   2.733
 6847SOL     OW22379   9.372   8.721   6.954
 6847SOL    HW122380   9.465   8.701   6.959
 6847SOL    HW222381   9.338   8.699   7.041
 6848SOL     OW22382   5.902  13.477   5.051
 6848SOL    HW122383   5.964  13.496   4.981
 6848SOL    HW222384   5.832  13.427   5.008
 6849SOL     OW22385   4.554  12.205  10.862
 6849SOL    HW122386   4.581  12.177  10.775
 6849SOL    HW222387   4.622  12.172  10.920
 6850SOL     OW22388  11.432  12.430   5.144
 6850SOL    HW122389  11.521  12.399   5.162
 6850SOL    HW222390  11.387  12.426   5.228
 6851SOL     OW22391  11.529  12.036  11.917
 6851SOL    HW122392  11.613  12.072  11.944
 6851SOL    HW222393  11.533  11.944  11.942
 6852SOL     OW22394   2.691   9.700   1.981
 6852SOL    HW122395   2.677   9.694   2.075
 6852SOL    HW222396   2.644   9.625   1.945
 6853SOL     OW22397   1.210   1.812   3.912
 6853SOL    HW122398   1.150   1.853   3.974
 6853SOL    HW222399   1.279   1.877   3.898
 6854SOL     OW22400  14.830  10.901  12.691
 6854SOL    HW122401  14.796  10.830  12.637
 6854SOL    HW222402  14.878  10.957  12.629
 6855SOL     OW22403   1.319   2.393   4.339
 6855SOL    HW122404   1.343   2.346   4.259
 6855SOL    HW222405   1.368   2.476   4.333
 6856SOL     OW22406   2.912   1.977  14.363
 6856SOL    HW122407   2.836   2.016  14.318
 6856SOL    HW222408   2.962   2.052  14.394
 6857SOL     OW22409   4.269   7.826  12.749
 6857SOL    HW122410   4.253   7.792  12.838
 6857SOL    HW222411   4.291   7.749  12.698
 6858SOL     OW22412  10.168   7.442   8.293
 6858SOL    HW122413  10.261   7.440   8.269
 6858SOL    HW222414  10.129   7.371   8.242
 6859SOL     OW22415  12.667   5.884  11.508
 6859SOL    HW122416  12.679   5.967  11.463
 6859SOL    HW222417  12.613   5.905  11.585
 6860SOL     OW22418   7.277   9.250  10.265
 6860SOL    HW122419   7.202   9.310  10.267
 6860SOL    HW222420   7.264   9.192  10.340
 6861SOL     OW22421   0.054   7.702   5.420
 6861SOL    HW122422   0.054   7.616   5.462
 6861SOL    HW222423   0.143   7.735   5.432
 6862SOL     OW22424   7.119   0.374   0.033
 6862SOL    HW122425   7.031   0.388   0.067
 6862SOL    HW222426   7.116   0.289  14.872
 6863SOL     OW22427   6.692   3.456   5.628
 6863SOL    HW122428   6.634   3.518   5.673
 6863SOL    HW222429   6.766   3.508   5.599
 6864SOL     OW22430   7.931   4.550   5.361
 6864SOL    HW122431   7.838   4.535   5.343
 6864SOL    HW222432   7.950   4.635   5.322
 6865SOL     OW22433  14.258   3.828   7.000
 6865SOL    HW122434  14.350   3.799   6.994
 6865SOL    HW222435  14.263   3.916   7.037
 6866SOL     OW22436   2.625   5.941   4.547
 6866SOL    HW122437   2.580   5.897   4.620
 6866SOL    HW222438   2.593   6.030   4.550
 6867SOL     OW22439   8.401  13.136   7.116
 6867SOL    HW122440   8.315  13.173   7.137
 6867SOL    HW222441   8.430  13.184   7.038
 6868SOL     OW22442   3.191   3.126   2.464
 6868SOL    HW122443   3.118   3.065   2.465
 6868SOL    HW222444   3.269   3.070   2.465
 6869SOL     OW22445  11.723   2.157   8.526
 6869SOL    HW122446  11.800   2.141   8.581
 6869SOL    HW222447  11.649   2.155   8.587
 6870SOL     OW22448   0.185   5.251   3.892
 6870SOL    HW122449   0.227   5.217   3.970
 6870SOL    HW222450   0.249   5.239   3.822
 6871SOL     OW22451   9.956   4.579   2.524
 6871SOL    HW122452   9.955   4.534   2.440
 6871SOL    HW222453  10.001   4.519   2.583
 6872SOL     OW22454  10.133   6.847   4.060
 6872SOL    HW122455  10.093   6.763   4.035
 6872SOL    HW222456  10.193   6.825   4.132
 6873SOL     OW22457  10.174   4.425   5.971
 6873SOL    HW122458  10.220   4.507   5.987
 6873SOL    HW222459  10.226   4.359   6.017
 6874SOL     OW22460   7.743   7.057  11.126
 6874SOL    HW122461   7.832   7.023  11.130
 6874SOL    HW222462   7.708   7.044  11.214
 6875SOL     OW22463   0.947   3.113  13.992
 6875SOL    HW122464   1.020   3.093  14.050
 6875SOL    HW222465   0.915   3.028  13.963
 6876SOL     OW22466  11.934  12.173  10.202
 6876SOL    HW122467  11.952  12.188  10.110
 6876SOL    HW222468  12.001  12.110  10.230
 6877SOL     OW22469   9.984   1.636   2.407
 6877SOL    HW122470  10.008   1.695   2.335
 6877SOL    HW222471   9.905   1.592   2.377
 6878SOL     OW22472   6.826  12.177  13.078
 6878SOL    HW122473   6.854  12.104  13.023
 6878SOL    HW222474   6.768  12.229  13.022
 6879SOL     OW22475   7.702   9.939   0.139
 6879SOL    HW122476   7.725   9.887   0.216
 6879SOL    HW222477   7.633   9.998   0.169
 6880SOL     OW22478   3.286   0.482   8.178
 6880SOL    HW122479   3.191   0.489   8.182
 6880SOL    HW222480   3.313   0.548   8.114
 6881SOL     OW22481  13.614   3.362  11.612
 6881SOL    HW122482  13.646   3.302  11.545
 6881SOL    HW222483  13.593   3.442  11.564
 6882SOL     OW22484   1.904   6.600  12.371
 6882SOL    HW122485   1.924   6.531  12.308
 6882SOL    HW222486   1.826   6.568  12.417
 6883SOL     OW22487   1.291   9.200  12.895
 6883SOL    HW122488   1.324   9.110  12.897
 6883SOL    HW222489   1.368   9.255  12.907
 6884SOL     OW22490   2.801   7.922   0.910
 6884SOL    HW122491   2.735   7.930   0.842
 6884SOL    HW222492   2.884   7.937   0.864
 6885SOL     OW22493   5.346   4.986   6.078
 6885SOL    HW122494   5.440   4.970   6.074
 6885SOL    HW222495   5.336   5.056   6.142
 6886SOL     OW22496   4.746  12.240   1.291
 6886SOL    HW122497   4.698  12.158   1.301
 6886SOL    HW222498   4.807  12.241   1.365
 6887SOL     OW22499  12.637   8.637  10.391
 6887SOL    HW122500  12.658   8.719  10.346
 6887SOL    HW222501  12.692   8.638  10.470
 6888SOL     OW22502   8.492   0.333   8.578
 6888SOL    HW122503   8.500   0.325   8.483
 6888SOL    HW222504   8.427   0.402   8.591
 6889SOL     OW22505   8.291   1.424   7.312
 6889SOL    HW122506   8.257   1.511   7.335
 6889SOL    HW222507   8.366   1.412   7.371
 6890SOL     OW22508  12.726   3.387   5.977
 6890SOL    HW122509  12.709   3.479   5.956
 6890SOL    HW222510  12.807   3.389   6.029
 6891SOL     OW22511  12.374   0.262  12.265
 6891SOL    HW122512  12.367   0.337  12.206
 6891SOL    HW222513  12.286   0.224  12.265
 6892SOL     OW22514  12.245  10.315   1.731
 6892SOL    HW122515  12.198  10.388   1.772
 6892SOL    HW222516  12.284  10.353   1.653
 6893SOL     OW22517   3.856   5.616  11.617
 6893SOL    HW122518   3.949   5.594  11.619
 6893SOL    HW222519   3.854   5.710  11.600
 6894SOL     OW22520  12.581   2.421   3.677
 6894SOL    HW122521  12.669   2.428   3.714
 6894SOL    HW222522  12.592   2.448   3.585
 6895SOL     OW22523   7.381  10.470   1.748
 6895SOL    HW122524   7.318  10.473   1.676
 6895SOL    HW222525   7.452  10.527   1.720
 6896SOL     OW22526   2.599  10.394   9.309
 6896SOL    HW122527   2.582  10.311   9.354
 6896SOL    HW222528   2.674  10.376   9.253
 6897SOL     OW22529   4.281   1.516   8.510
 6897SOL    HW122530   4.225   1.579   8.556
 6897SOL    HW222531   4.249   1.431   8.539
 6898SOL     OW22532   4.465  13.454   1.058
 6898SOL    HW122533   4.373  13.482   1.058
 6898SOL    HW222534   4.511  13.520   1.110
 6899SOL     OW22535  14.671   2.836   5.330
 6899SOL    HW122536  14.610   2.838   5.257
 6899SOL    HW222537  14.650   2.914   5.382
 6900SOL     OW22538   4.442   9.322   9.090
 6900SOL    HW122539   4.513   9.312   9.153
 6900SOL    HW222540   4.461   9.405   9.046
 6901SOL     OW22541   3.448   4.692   1.971
 6901SOL    HW122542   3.363   4.650   1.982
 6901SOL    HW222543   3.431   4.768   1.916
 6902SOL     OW22544   1.427   3.392  11.347
 6902SOL    HW122545   1.490   3.443  11.297
 6902SOL    HW222546   1.422   3.436  11.432
 6903SOL     OW22547  12.126  10.140   9.461
 6903SOL    HW122548  12.177  10.063   9.486
 6903SOL    HW222549  12.045  10.104   9.426
 6904SOL     OW22550   9.479   7.672   9.559
 6904SOL    HW122551   9.574   7.670   9.545
 6904SOL    HW222552   9.469   7.686   9.653
 6905SOL     OW22553   8.822   8.534   4.670
 6905SOL    HW122554   8.757   8.469   4.642
 6905SOL    HW222555   8.780   8.618   4.656
 6906SOL     OW22556   7.074   8.446   8.995
 6906SOL    HW122557   7.004   8.469   9.056
 6906SOL    HW222558   7.062   8.353   8.978
 6907SOL     OW22559   3.074  14.525   4.607
 6907SOL    HW122560   3.164  14.504   4.633
 6907SOL    HW222561   3.082  14.607   4.558
 6908SOL     OW22562  13.870  12.960   0.053
 6908SOL    HW122563  13.852  12.914  14.853
 6908SOL    HW222564  13.965  12.952   0.066
 6909SOL     OW22565  11.379  14.574  10.010
 6909SOL    HW122566  11.380  14.488   9.967
 6909SOL    HW222567  11.305  14.619   9.970
 6910SOL     OW22568  12.395   2.726  10.084
 6910SOL    HW122569  12.311   2.741  10.042
 6910SOL    HW222570  12.411   2.805  10.135
 6911SOL     OW22571   0.046   7.605   5.802
 6911SOL    HW122572   0.098   7.684   5.783
 6911SOL    HW222573   0.031   7.565   5.716
 6912SOL     OW22574   5.220  14.513  10.821
 6912SOL    HW122575   5.271  14.523  10.741
 6912SOL    HW222576   5.182  14.425  10.814
 6913SOL     OW22577   8.574   9.883   4.057
 6913SOL    HW122578   8.565   9.800   4.103
 6913SOL    HW222579   8.484   9.911   4.041
 6914SOL     OW22580  12.209   8.947   3.249
 6914SOL    HW122581  12.221   8.951   3.344
 6914SOL    HW222582  12.298   8.943   3.213
 6915SOL     OW22583  12.938   5.860  14.605
 6915SOL    HW122584  13.010   5.805  14.574
 6915SOL    HW222585  12.971   5.950  14.596
 6916SOL     OW22586   0.049   4.968   2.738
 6916SOL    HW122587  14.872   5.031   2.696
 6916SOL    HW222588   0.132   4.980   2.693
 6917SOL     OW22589   6.445   4.794   8.178
 6917SOL    HW122590   6.459   4.761   8.266
 6917SOL    HW222591   6.531   4.825   8.149
 6918SOL     OW22592   4.839   8.392  13.289
 6918SOL    HW122593   4.899   8.447  13.239
 6918SOL    HW222594   4.813   8.446  13.363
 6919SOL     OW22595   8.851  13.000   6.593
 6919SOL    HW122596   8.878  12.974   6.505
 6919SOL    HW222597   8.907  12.947   6.651
 6920SOL     OW22598   6.242   4.499   2.282
 6920SOL    HW122599   6.272   4.482   2.193
 6920SOL    HW222600   6.159   4.452   2.289
 6921SOL     OW22601   0.780  13.736  10.668
 6921SOL    HW122602   0.784  13.672  10.739
 6921SOL    HW222603   0.832  13.809  10.699
 6922SOL     OW22604  13.625   6.525  11.613
 6922SOL    HW122605  13.641   6.567  11.698
 6922SOL    HW222606  13.643   6.433  11.628
 6923SOL     OW22607  10.070   3.634  14.770
 6923SOL    HW122608  10.126   3.556  14.774
 6923SOL    HW222609  10.125   3.705  14.805
 6924SOL     OW22610   7.836   4.471   5.043
 6924SOL    HW122611   7.787   4.389   5.036
 6924SOL    HW222612   7.809   4.508   5.127
 6925SOL     OW22613  11.742   8.798   1.888
 6925SOL    HW122614  11.753   8.809   1.982
 6925SOL    HW222615  11.715   8.885   1.857
 6926SOL     OW22616  10.599   1.742   4.494
 6926SOL    HW122617  10.571   1.734   4.402
 6926SOL    HW222618  10.518   1.733   4.544
 6927SOL     OW22619   3.562   7.961   6.448
 6927SOL    HW122620   3.599   7.873   6.436
 6927SOL    HW222621   3.469   7.946   6.466
 6928SOL     OW22622   0.057   9.555  13.953
 6928SOL    HW122623   0.081   9.475  13.905
 6928SOL    HW222624  14.876   9.599  13.896
 6929SOL     OW22625   4.414   9.984   5.190
 6929SOL    HW122626   4.361  10.010   5.265
 6929SOL    HW222627   4.377  10.033   5.116
 6930SOL     OW22628   8.052   7.217   6.090
 6930SOL    HW122629   8.137   7.252   6.063
 6930SOL    HW222630   8.043   7.243   6.181
 6931SOL     OW22631   5.508   7.620   8.259
 6931SOL    HW122632   5.558   7.604   8.179
 6931SOL    HW222633   5.432   7.563   8.252
 6932SOL     OW22634   1.790   9.664   7.098
 6932SOL    HW122635   1.739   9.658   7.018
 6932SOL    HW222636   1.836   9.581   7.104
 6933SOL     OW22637  14.601   2.949   0.916
 6933SOL    HW122638  14.675   2.927   0.974
 6933SOL    HW222639  14.591   3.044   0.926
 6934SOL     OW22640  13.644   1.572  11.264
 6934SOL    HW122641  13.672   1.505  11.202
 6934SOL    HW222642  13.673   1.654  11.225
 6935SOL     OW22643  11.492  13.908   3.106
 6935SOL    HW122644  11.412  13.856   3.103
 6935SOL    HW222645  11.541  13.874   3.181
 6936SOL     OW22646   5.772  13.450   6.109
 6936SOL    HW122647   5.802  13.397   6.035
 6936SOL    HW222648   5.773  13.540   6.076
 6937SOL     OW22649  13.005   9.741  14.675
 6937SOL    HW122650  13.086   9.770  14.632
 6937SOL    HW222651  13.000   9.792  14.755
 6938SOL     OW22652   4.218   0.140  11.638
 6938SOL    HW122653   4.268   0.059  11.632
 6938SOL    HW222654   4.283   0.209  11.626
 6939SOL     OW22655  13.804   9.259  12.029
 6939SOL    HW122656  13.883   9.231  11.983
 6939SOL    HW222657  13.732   9.225  11.976
 6940SOL     OW22658  10.683   2.239  14.119
 6940SOL    HW122659  10.727   2.258  14.037
 6940SOL    HW222660  10.735   2.169  14.159
 6941SOL     OW22661   5.396  13.374   9.423
 6941SOL    HW122662   5.440  13.457   9.443
 6941SOL    HW222663   5.359  13.387   9.336
 6942SOL     OW22664   5.625   8.777   7.914
 6942SOL    HW122665   5.684   8.747   7.845
 6942SOL    HW222666   5.569   8.842   7.872
 6943SOL     OW22667   3.842  14.766   2.787
 6943SOL    HW122668   3.873  14.825   2.856
 6943SOL    HW222669   3.818  14.825   2.715
 6944SOL     OW22670  14.125   7.673  14.553
 6944SOL    HW122671  14.172   7.754  14.535
 6944SOL    HW222672  14.079   7.653  14.471
 6945SOL     OW22673  13.942   0.499  10.316
 6945SOL    HW122674  13.877   0.442  10.357
 6945SOL    HW222675  13.899   0.584  10.310
 6946SOL     OW22676   9.300   9.387   5.534
 6946SOL    HW122677   9.216   9.428   5.518
 6946SOL    HW222678   9.300   9.309   5.479
 6947SOL     OW22679  10.801   8.578   3.913
 6947SOL    HW122680  10.760   8.640   3.853
 6947SOL    HW222681  10.895   8.590   3.899
 6948SOL     OW22682  11.585   4.340   3.425
 6948SOL    HW122683  11.539   4.340   3.509
 6948SOL    HW222684  11.642   4.263   3.429
 6949SOL     OW22685  10.233   0.249   4.568
 6949SOL    HW122686  10.216   0.164   4.608
 6949SOL    HW222687  10.276   0.300   4.637
 6950SOL     OW22688  13.638   0.737  12.542
 6950SOL    HW122689  13.602   0.805  12.599
 6950SOL    HW222690  13.626   0.655  12.590
 6951SOL     OW22691   7.340  13.072   8.552
 6951SOL    HW122692   7.289  13.130   8.608
 6951SOL    HW222693   7.334  13.112   8.465
 6952SOL     OW22694  11.949   3.352   8.549
 6952SOL    HW122695  11.906   3.341   8.464
 6952SOL    HW222696  12.029   3.402   8.529
 6953SOL     OW22697   7.327   5.346   0.965
 6953SOL    HW122698   7.375   5.391   1.035
 6953SOL    HW222699   7.246   5.397   0.955
 6954SOL     OW22700  12.332   5.387  13.352
 6954SOL    HW122701  12.377   5.302  13.344
 6954SOL    HW222702  12.398   5.451  13.327
 6955SOL     OW22703  10.939   6.919   1.906
 6955SOL    HW122704  11.032   6.915   1.884
 6955SOL    HW222705  10.928   6.854   1.976
 6956SOL     OW22706  14.198   6.413   8.336
 6956SOL    HW122707  14.279   6.436   8.381
 6956SOL    HW222708  14.226   6.355   8.265
 6957SOL     OW22709   5.836  10.353   3.004
 6957SOL    HW122710   5.756  10.398   3.033
 6957SOL    HW222711   5.838  10.273   3.057
 6958SOL     OW22712  11.781   8.522   8.630
 6958SOL    HW122713  11.764   8.605   8.586
 6958SOL    HW222714  11.850   8.542   8.693
 6959SOL     OW22715  13.926   0.911   5.622
 6959SOL    HW122716  13.959   0.952   5.542
 6959SOL    HW222717  14.005   0.891   5.673
 6960SOL     OW22718   7.418  10.779  10.923
 6960SOL    HW122719   7.497  10.822  10.890
 6960SOL    HW222720   7.353  10.790  10.853
 6961SOL     OW22721   7.594   3.426   2.280
 6961SOL    HW122722   7.642   3.497   2.322
 6961SOL    HW222723   7.568   3.369   2.353
 6962SOL     OW22724  14.770  10.114   5.098
 6962SOL    HW122725  14.681  10.102   5.132
 6962SOL    HW222726  14.798  10.025   5.073
 6963SOL     OW22727  14.835   6.277   9.325
 6963SOL    HW122728  14.744   6.250   9.341
 6963SOL    HW222729  14.871   6.207   9.270
 6964SOL     OW22730  12.214  10.653  12.664
 6964SOL    HW122731  12.282  10.591  12.640
 6964SOL    HW222732  12.257  10.739  12.659
 6965SOL     OW22733  11.429   8.167   2.564
 6965SOL    HW122734  11.345   8.176   2.519
 6965SOL    HW222735  11.409   8.177   2.657
 6966SOL     OW22736   1.837   7.820   1.917
 6966SOL    HW122737   1.920   7.775   1.932
 6966SOL    HW222738   1.811   7.794   1.828
 6967SOL     OW22739   4.573   6.943   4.891
 6967SOL    HW122740   4.571   7.008   4.961
 6967SOL    HW222741   4.662   6.946   4.858
 6968SOL     OW22742  13.015   1.394   5.900
 6968SOL    HW122743  13.091   1.368   5.952
 6968SOL    HW222744  12.993   1.481   5.933
 6969SOL     OW22745   2.883  11.975   8.778
 6969SOL    HW122746   2.875  11.888   8.738
 6969SOL    HW222747   2.799  12.017   8.758
 6970SOL     OW22748   7.049   1.490   8.000
 6970SOL    HW122749   7.064   1.401   8.034
 6970SOL    HW222750   6.970   1.519   8.045
 6971SOL     OW22751   2.197   7.536   4.819
 6971SOL    HW122752   2.223   7.496   4.736
 6971SOL    HW222753   2.190   7.462   4.880
 6972SOL     OW22754  13.802   8.268  11.447
 6972SOL    HW122755  13.882   8.216  11.444
 6972SOL    HW222756  13.738   8.210  11.489
 6973SOL     OW22757   8.053  12.744   6.797
 6973SOL    HW122758   8.101  12.683   6.854
 6973SOL    HW222759   8.047  12.825   6.848
 6974SOL     OW22760   3.302   8.197   0.316
 6974SOL    HW122761   3.373   8.256   0.337
 6974SOL    HW222762   3.231   8.222   0.374
 6975SOL     OW22763  10.466   5.874   3.780
 6975SOL    HW122764  10.508   5.902   3.861
 6975SOL    HW222765  10.375   5.859   3.805
 6976SOL     OW22766  10.844   9.133   1.804
 6976SOL    HW122767  10.878   9.050   1.838
 6976SOL    HW222768  10.912   9.197   1.825
 6977SOL     OW22769  14.620  13.042   9.591
 6977SOL    HW122770  14.602  12.983   9.518
 6977SOL    HW222771  14.702  13.011   9.628
 6978SOL     OW22772   2.230  12.668   8.570
 6978SOL    HW122773   2.214  12.608   8.643
 6978SOL    HW222774   2.166  12.739   8.583
 6979SOL     OW22775   3.608  11.387   1.241
 6979SOL    HW122776   3.559  11.360   1.163
 6979SOL    HW222777   3.699  11.395   1.210
 6980SOL     OW22778   9.208  14.167   4.299
 6980SOL    HW122779   9.260  14.122   4.232
 6980SOL    HW222780   9.258  14.246   4.320
 6981SOL     OW22781   1.570  11.223   3.681
 6981SOL    HW122782   1.618  11.296   3.721
 6981SOL    HW222783   1.608  11.145   3.721
 6982SOL     OW22784   6.613   9.868   9.878
 6982SOL    HW122785   6.596   9.866   9.973
 6982SOL    HW222786   6.624   9.960   9.858
 6983SOL     OW22787  14.864   4.309   6.951
 6983SOL    HW122788  14.848   4.347   7.038
 6983SOL    HW222789  14.851   4.382   6.891
 6984SOL     OW22790   9.806  11.202   8.874
 6984SOL    HW122791   9.741  11.187   8.806
 6984SOL    HW222792   9.848  11.284   8.849
 6985SOL     OW22793   9.190   6.228  12.943
 6985SOL    HW122794   9.266   6.230  12.885
 6985SOL    HW222795   9.211   6.290  13.013
 6986SOL     OW22796  10.975   4.756  13.242
 6986SOL    HW122797  10.959   4.723  13.331
 6986SOL    HW222798  10.979   4.676  13.188
 6987SOL     OW22799   7.098   4.457  10.303
 6987SOL    HW122800   7.064   4.521  10.241
 6987SOL    HW222801   7.180   4.496  10.335
 6988SOL     OW22802  13.886  11.617   8.131
 6988SOL    HW122803  13.900  11.643   8.222
 6988SOL    HW222804  13.885  11.699   8.082
 6989SOL     OW22805   3.460  13.617   9.951
 6989SOL    HW122806   3.394  13.551   9.931
 6989SOL    HW222807   3.540  13.566   9.967
 6990SOL     OW22808   1.376   5.411   0.077
 6990SOL    HW122809   1.338   5.481   0.024
 6990SOL    HW222810   1.470   5.415   0.059
 6991SOL     OW22811   1.670  12.670   6.062
 6991SOL    HW122812   1.641  12.762   6.065
 6991SOL    HW222813   1.745  12.671   6.003
 6992SOL     OW22814   8.501   3.654   7.398
 6992SOL    HW122815   8.520   3.644   7.492
 6992SOL    HW222816   8.433   3.589   7.381
 6993SOL     OW22817   8.135   0.953   2.558
 6993SOL    HW122818   8.150   0.876   2.613
 6993SOL    HW222819   8.206   0.952   2.494
 6994SOL     OW22820  11.781   4.502   7.533
 6994SOL    HW122821  11.764   4.578   7.478
 6994SOL    HW222822  11.696   4.479   7.570
 6995SOL     OW22823   0.721   4.869   5.718
 6995SOL    HW122824   0.707   4.906   5.630
 6995SOL    HW222825   0.646   4.900   5.768
 6996SOL     OW22826   1.086   0.391   8.588
 6996SOL    HW122827   1.122   0.448   8.519
 6996SOL    HW222828   0.994   0.418   8.595
 6997SOL     OW22829   7.470   3.016  12.854
 6997SOL    HW122830   7.531   2.946  12.877
 6997SOL    HW222831   7.399   3.007  12.917
 6998SOL     OW22832  11.625   0.048   1.052
 6998SOL    HW122833  11.661   0.070   0.966
 6998SOL    HW222834  11.531   0.041   1.038
 6999SOL     OW22835   1.832   2.439   1.785
 6999SOL    HW122836   1.776   2.397   1.719
 6999SOL    HW222837   1.812   2.533   1.776
 7000SOL     OW22838   3.002  12.726  11.211
 7000SOL    HW122839   2.912  12.757  11.205
 7000SOL    HW222840   3.008  12.686  11.297
 7001SOL     OW22841   1.485  13.564   7.956
 7001SOL    HW122842   1.436  13.645   7.943
 7001SOL    HW222843   1.571  13.593   7.987
 7002SOL     OW22844   8.617   7.190  13.225
 7002SOL    HW122845   8.610   7.276  13.183
 7002SOL    HW222846   8.697   7.194  13.277
 7003SOL     OW22847  11.094  14.755   8.447
 7003SOL    HW122848  11.104  14.823   8.380
 7003SOL    HW222849  11.004  14.723   8.435
 7004SOL     OW22850   2.465   8.006   2.228
 7004SOL    HW122851   2.558   8.016   2.208
 7004SOL    HW222852   2.442   8.085   2.276
 7005SOL     OW22853  10.211  10.648   0.928
 7005SOL    HW122854  10.183  10.559   0.949
 7005SOL    HW222855  10.195  10.658   0.834
 7006SOL     OW22856  13.538  11.005  11.232
 7006SOL    HW122857  13.515  10.965  11.148
 7006SOL    HW222858  13.600  10.943  11.271
 7007SOL     OW22859  10.665   6.077   0.076
 7007SOL    HW122860  10.751   6.074   0.117
 7007SOL    HW222861  10.637   6.168   0.086
 7008SOL     OW22862  11.663  13.596   6.369
 7008SOL    HW122863  11.657  13.671   6.310
 7008SOL    HW222864  11.575  13.586   6.405
 7009SOL     OW22865  10.933   0.167   4.069
 7009SOL    HW122866  10.851   0.184   4.022
 7009SOL    HW222867  10.981   0.249   4.064
 7010SOL     OW22868   4.446  12.407   7.019
 7010SOL    HW122869   4.396  12.368   7.090
 7010SOL    HW222870   4.516  12.456   7.062
 7011SOL     OW22871  10.860   4.669  13.483
 7011SOL    HW122872  10.785   4.717  13.519
 7011SOL    HW222873  10.836   4.577  13.494
 7012SOL     OW22874   0.243   1.518   0.680
 7012SOL    HW122875   0.167   1.553   0.634
 7012SOL    HW222876   0.277   1.450   0.622
 7013SOL     OW22877   3.784  13.626   0.781
 7013SOL    HW122878   3.776  13.548   0.727
 7013SOL    HW222879   3.869  13.617   0.824
 7014SOL     OW22880   3.012  12.883  12.848
 7014SOL    HW122881   2.927  12.925  12.862
 7014SOL    HW222882   3.067  12.915  12.920
 7015SOL     OW22883   6.983   4.718  13.058
 7015SOL    HW122884   7.001   4.636  13.013
 7015SOL    HW222885   6.939   4.692  13.139
 7016SOL     OW22886   1.419  14.621   1.040
 7016SOL    HW122887   1.410  14.604   0.947
 7016SOL    HW222888   1.510  14.648   1.052
 7017SOL     OW22889  11.098   2.421   6.698
 7017SOL    HW122890  11.137   2.348   6.651
 7017SOL    HW222891  11.082   2.388   6.786
 7018SOL     OW22892   1.177  13.936   3.953
 7018SOL    HW122893   1.155  13.867   4.015
 7018SOL    HW222894   1.117  14.007   3.973
 7019SOL     OW22895   8.311   7.648   7.270
 7019SOL    HW122896   8.273   7.736   7.279
 7019SOL    HW222897   8.373   7.640   7.342
 7020SOL     OW22898   9.455   6.857  10.411
 7020SOL    HW122899   9.365   6.880  10.434
 7020SOL    HW222900   9.450   6.833  10.318
 7021SOL     OW22901   9.469   8.116  13.456
 7021SOL    HW122902   9.377   8.142  13.446
 7021SOL    HW222903   9.475   8.085  13.547
 7022SOL     OW22904  11.662  13.520  12.761
 7022SOL    HW122905  11.725  13.488  12.824
 7022SOL    HW222906  11.578  13.516  12.807
 7023SOL     OW22907   6.120   7.158   2.612
 7023SOL    HW122908   6.026   7.158   2.630
 7023SOL    HW222909   6.132   7.228   2.547
 7024SOL     OW22910   3.601   3.518   6.687
 7024SOL    HW122911   3.517   3.501   6.644
 7024SOL    HW222912   3.659   3.543   6.616
 7025SOL     OW22913  10.593   6.726   2.331
 7025SOL    HW122914  10.575   6.735   2.424
 7025SOL    HW222915  10.647   6.647   2.324
 7026SOL     OW22916   1.368  13.581   3.931
 7026SOL    HW122917   1.297  13.623   3.979
 7026SOL    HW222918   1.418  13.654   3.894
 7027SOL     OW22919   7.632  10.921  10.833
 7027SOL    HW122920   7.710  10.874  10.802
 7027SOL    HW222921   7.664  10.972  10.908
 7028SOL     OW22922   2.094  10.999  10.060
 7028SOL    HW122923   2.022  10.946  10.027
 7028SOL    HW222924   2.111  11.062   9.989
 7029SOL     OW22925  10.939  11.811   4.734
 7029SOL    HW122926  10.971  11.891   4.692
 7029SOL    HW222927  11.017  11.772   4.775
 7030SOL     OW22928   6.843  13.775   9.553
 7030SOL    HW122929   6.871  13.825   9.476
 7030SOL    HW222930   6.810  13.693   9.517
 7031SOL     OW22931   7.138  13.673   7.895
 7031SOL    HW122932   7.094  13.599   7.938
 7031SOL    HW222933   7.068  13.738   7.882
 7032SOL     OW22934   3.953   9.632  13.060
 7032SOL    HW122935   3.862   9.653  13.079
 7032SOL    HW222936   3.949   9.569  12.988
 7033SOL     OW22937   9.254   2.544   1.014
 7033SOL    HW122938   9.275   2.506   1.099
 7033SOL    HW222939   9.309   2.623   1.009
 7034SOL     OW22940   9.987  12.567  11.360
 7034SOL    HW122941   9.990  12.623  11.282
 7034SOL    HW222942   9.904  12.589  11.402
 7035SOL     OW22943   7.688  14.621   6.007
 7035SOL    HW122944   7.716  14.559   5.939
 7035SOL    HW222945   7.671  14.566   6.084
 7036SOL     OW22946   1.507  13.090  11.876
 7036SOL    HW122947   1.463  13.092  11.791
 7036SOL    HW222948   1.458  13.152  11.930
 7037SOL     OW22949   1.839   1.446   9.779
 7037SOL    HW122950   1.899   1.474   9.848
 7037SOL    HW222951   1.850   1.511   9.710
 7038SOL     OW22952   8.790   1.491  14.299
 7038SOL    HW122953   8.732   1.567  14.308
 7038SOL    HW222954   8.877   1.528  14.287
 7039SOL     OW22955  12.445   7.853   7.334
 7039SOL    HW122956  12.388   7.776   7.336
 7039SOL    HW222957  12.481   7.859   7.422
 7040SOL     OW22958   7.718   6.782   3.549
 7040SOL    HW122959   7.648   6.773   3.614
 7040SOL    HW222960   7.706   6.868   3.511
 7041SOL     OW22961  12.465  12.518   1.431
 7041SOL    HW122962  12.399  12.457   1.464
 7041SOL    HW222963  12.533  12.462   1.394
 7042SOL     OW22964   7.666  11.144  11.636
 7042SOL    HW122965   7.724  11.170  11.565
 7042SOL    HW222966   7.610  11.220  11.651
 7043SOL     OW22967  12.911   6.512  13.360
 7043SOL    HW122968  12.975   6.514  13.289
 7043SOL    HW222969  12.846   6.579  13.337
 7044SOL     OW22970   4.995   8.590   4.341
 7044SOL    HW122971   4.927   8.646   4.303
 7044SOL    HW222972   5.025   8.535   4.268
 7045SOL     OW22973   2.877  14.247   1.222
 7045SOL    HW122974   2.836  14.251   1.309
 7045SOL    HW222975   2.935  14.170   1.227
 7046SOL     OW22976   1.045   9.105   6.605
 7046SOL    HW122977   1.039   9.010   6.607
 7046SOL    HW222978   1.017   9.129   6.517
 7047SOL     OW22979   7.548  14.722   4.214
 7047SOL    HW122980   7.612  14.677   4.160
 7047SOL    HW222981   7.529  14.661   4.285
 7048SOL     OW22982   6.018   9.290   2.391
 7048SOL    HW122983   6.003   9.378   2.358
 7048SOL    HW222984   5.962   9.234   2.338
 7049SOL     OW22985  14.443   3.391   4.629
 7049SOL    HW122986  14.367   3.340   4.603
 7049SOL    HW222987  14.465   3.358   4.717
 7050SOL     OW22988  12.804   1.044   7.012
 7050SOL    HW122989  12.884   1.075   7.054
 7050SOL    HW222990  12.790   1.104   6.939
 7051SOL     OW22991  11.644   0.965   2.770
 7051SOL    HW122992  11.723   0.972   2.824
 7051SOL    HW222993  11.629   0.871   2.761
 7052SOL     OW22994   0.244  10.720   6.164
 7052SOL    HW122995   0.195  10.676   6.095
 7052SOL    HW222996   0.336  10.697   6.146
 7053SOL     OW22997   9.616   0.879   6.520
 7053SOL    HW122998   9.587   0.963   6.485
 7053SOL    HW222999   9.590   0.881   6.612
 7054SOL     OW23000  11.232  10.965   3.644
 7054SOL    HW123001  11.192  11.028   3.704
 7054SOL    HW223002  11.230  10.882   3.692
 7055SOL     OW23003   0.964   2.454   8.277
 7055SOL    HW123004   1.041   2.500   8.242
 7055SOL    HW223005   0.914   2.431   8.199
 7056SOL     OW23006   4.224   5.838   3.227
 7056SOL    HW123007   4.256   5.817   3.315
 7056SOL    HW223008   4.172   5.918   3.239
 7057SOL     OW23009   3.187   9.225  11.591
 7057SOL    HW123010   3.230   9.144  11.561
 7057SOL    HW223011   3.258   9.286  11.606
 7058SOL     OW23012  13.001   6.283  10.853
 7058SOL    HW123013  12.943   6.275  10.929
 7058SOL    HW223014  12.949   6.331  10.789
 7059SOL     OW23015   3.188  12.974   6.060
 7059SOL    HW123016   3.178  13.020   6.144
 7059SOL    HW223017   3.098  12.964   6.028
 7060SOL     OW23018  14.032   3.977   8.961
 7060SOL    HW123019  13.982   3.953   9.039
 7060SOL    HW223020  14.054   4.070   8.974
 7061SOL     OW23021   5.382  13.861  12.920
 7061SOL    HW123022   5.374  13.934  12.981
 7061SOL    HW223023   5.388  13.783  12.975
 7062SOL     OW23024   9.148   9.982  12.934
 7062SOL    HW123025   9.200   9.923  12.879
 7062SOL    HW223026   9.068   9.996  12.883
 7063SOL     OW23027  11.345  12.863   2.797
 7063SOL    HW123028  11.430  12.847   2.756
 7063SOL    HW223029  11.304  12.777   2.803
 7064SOL     OW23030   9.873   2.468   6.187
 7064SOL    HW123031   9.967   2.470   6.204
 7064SOL    HW223032   9.864   2.411   6.110
 7065SOL     OW23033  14.629  12.469   3.914
 7065SOL    HW123034  14.624  12.453   3.820
 7065SOL    HW223035  14.714  12.512   3.926
 7066SOL     OW23036   1.660  11.236  12.507
 7066SOL    HW123037   1.756  11.234  12.516
 7066SOL    HW223038   1.628  11.214  12.595
 7067SOL     OW23039   7.910  14.299  10.617
 7067SOL    HW123040   7.965  14.270  10.690
 7067SOL    HW223041   7.909  14.225  10.557
 7068SOL     OW23042   1.091   8.386   4.614
 7068SOL    HW123043   1.172   8.383   4.563
 7068SOL    HW223044   1.041   8.457   4.575
 7069SOL     OW23045   6.088   8.577   0.841
 7069SOL    HW123046   6.137   8.645   0.796
 7069SOL    HW223047   6.050   8.621   0.918
 7070SOL     OW23048   1.239  12.873   9.711
 7070SOL    HW123049   1.318  12.821   9.697
 7070SOL    HW223050   1.232  12.928   9.633
 7071SOL     OW23051   2.725   1.352   9.127
 7071SOL    HW123052   2.727   1.259   9.105
 7071SOL    HW223053   2.755   1.356   9.217
 7072SOL     OW23054  12.029   2.005  12.180
 7072SOL    HW123055  12.118   1.990  12.147
 7072SOL    HW223056  12.042   2.042  12.267
 7073SOL     OW23057   8.199  14.807   4.330
 7073SOL    HW123058   8.229  14.717   4.323
 7073SOL    HW223059   8.278  14.859   4.342
 7074SOL     OW23060   1.680  13.780  13.782
 7074SOL    HW123061   1.722  13.800  13.866
 7074SOL    HW223062   1.752  13.754  13.725
 7075SOL     OW23063   3.299   9.540  12.077
 7075SOL    HW123064   3.325   9.602  12.145
 7075SOL    HW223065   3.310   9.454  12.117
 7076SOL     OW23066   9.915   2.980   2.549
 7076SOL    HW123067   9.966   3.025   2.481
 7076SOL    HW223068   9.874   2.907   2.503
 7077SOL     OW23069  11.117   4.005   4.116
 7077SOL    HW123070  11.197   4.013   4.168
 7077SOL    HW223071  11.066   3.937   4.159
 7078SOL     OW23072  14.570  11.938   7.788
 7078SOL    HW123073  14.482  11.974   7.780
 7078SOL    HW223074  14.560  11.864   7.847
 7079SOL     OW23075   8.291  14.445  11.331
 7079SOL    HW123076   8.378  14.429  11.368
 7079SOL    HW223077   8.236  14.467  11.406
 7080SOL     OW23078   6.111   8.253   7.844
 7080SOL    HW123079   6.055   8.289   7.777
 7080SOL    HW223080   6.174   8.322   7.864
 7081SOL     OW23081   0.901  12.291   1.044
 7081SOL    HW123082   0.855  12.365   1.003
 7081SOL    HW223083   0.876  12.295   1.136
 7082SOL     OW23084   1.664   5.221  13.184
 7082SOL    HW123085   1.612   5.184  13.113
 7082SOL    HW223086   1.697   5.145  13.232
 7083SOL     OW23087  12.244   2.701   1.125
 7083SOL    HW123088  12.170   2.737   1.174
 7083SOL    HW223089  12.300   2.662   1.192
 7084SOL     OW23090  13.508   0.362   2.666
 7084SOL    HW123091  13.552   0.380   2.583
 7084SOL    HW223092  13.501   0.267   2.670
 7085SOL     OW23093   2.388  12.861  10.196
 7085SOL    HW123094   2.365  12.852  10.104
 7085SOL    HW223095   2.435  12.780  10.217
 7086SOL     OW23096   5.814  14.847   2.396
 7086SOL    HW123097   5.849   0.045   2.435
 7086SOL    HW223098   5.733  14.830   2.445
 7087SOL     OW23099   7.370   7.654  11.731
 7087SOL    HW123100   7.460   7.688  11.736
 7087SOL    HW223101   7.371   7.575  11.784
 7088SOL     OW23102  10.606   1.810  13.576
 7088SOL    HW123103  10.616   1.730  13.626
 7088SOL    HW223104  10.577   1.875  13.640
 7089SOL     OW23105  13.985   3.169   8.167
 7089SOL    HW123106  14.034   3.095   8.203
 7089SOL    HW223107  13.920   3.191   8.235
 7090SOL     OW23108   0.393   5.834  11.539
 7090SOL    HW123109   0.455   5.887  11.590
 7090SOL    HW223110   0.336   5.898  11.496
 7091SOL     OW23111   3.072  11.417   2.859
 7091SOL    HW123112   3.148  11.388   2.909
 7091SOL    HW223113   2.997  11.386   2.909
 7092SOL     OW23114   9.810  10.724   7.748
 7092SOL    HW123115   9.791  10.806   7.704
 7092SOL    HW223116   9.726  10.696   7.784
 7093SOL     OW23117   8.319   8.651   9.986
 7093SOL    HW123118   8.290   8.649   9.895
 7093SOL    HW223119   8.414   8.664   9.981
 7094SOL     OW23120   3.107   1.963   4.059
 7094SOL    HW123121   3.167   2.026   4.099
 7094SOL    HW223122   3.024   1.977   4.105
 7095SOL     OW23123   6.970   5.039   1.832
 7095SOL    HW123124   7.043   5.025   1.892
 7095SOL    HW223125   6.892   5.035   1.888
 7096SOL     OW23126   1.961   4.932   7.643
 7096SOL    HW123127   1.876   4.903   7.675
 7096SOL    HW223128   1.984   5.007   7.698
 7097SOL     OW23129   1.066   4.827  13.357
 7097SOL    HW123130   0.998   4.889  13.329
 7097SOL    HW223131   1.089   4.855  13.446
 7098SOL     OW23132  11.053  12.480   9.409
 7098SOL    HW123133  10.989  12.499   9.340
 7098SOL    HW223134  11.126  12.438   9.364
 7099SOL     OW23135  11.741   1.593   3.630
 7099SOL    HW123136  11.731   1.685   3.654
 7099SOL    HW223137  11.813   1.592   3.567
 7100SOL     OW23138   7.027  13.385   5.919
 7100SOL    HW123139   6.944  13.382   5.968
 7100SOL    HW223140   7.009  13.443   5.845
 7101SOL     OW23141  10.288  11.023   5.872
 7101SOL    HW123142  10.201  11.060   5.890
 7101SOL    HW223143  10.348  11.077   5.923
 7102SOL     OW23144   5.239   1.693  10.077
 7102SOL    HW123145   5.331   1.675  10.061
 7102SOL    HW223146   5.239   1.770  10.135
 7103SOL     OW23147   8.304  11.054   1.390
 7103SOL    HW123148   8.400  11.053   1.382
 7103SOL    HW223149   8.285  11.139   1.431
 7104SOL     OW23150   7.345   9.784  13.005
 7104SOL    HW123151   7.302   9.743  12.931
 7104SOL    HW223152   7.292   9.760  13.081
 7105SOL     OW23153   9.827   7.961   7.200
 7105SOL    HW123154   9.882   7.889   7.231
 7105SOL    HW223155   9.865   8.039   7.239
 7106SOL     OW23156   6.885   1.111   0.695
 7106SOL    HW123157   6.818   1.162   0.740
 7106SOL    HW223158   6.914   1.047   0.759
 7107SOL     OW23159  13.071   0.273   8.565
 7107SOL    HW123160  13.130   0.333   8.520
 7107SOL    HW223161  13.092   0.284   8.658
 7108SOL     OW23162   6.184   5.854   5.689
 7108SOL    HW123163   6.158   5.767   5.659
 7108SOL    HW223164   6.109   5.910   5.666
 7109SOL     OW23165   5.985  14.513   7.173
 7109SOL    HW123166   5.943  14.532   7.258
 7109SOL    HW223167   6.018  14.598   7.144
 7110SOL     OW23168  10.750   7.574   0.569
 7110SOL    HW123169  10.658   7.555   0.548
 7110SOL    HW223170  10.751   7.669   0.583
 7111SOL     OW23171   5.575  10.777   8.159
 7111SOL    HW123172   5.648  10.829   8.125
 7111SOL    HW223173   5.570  10.800   8.252
 7112SOL     OW23174   9.296   9.424  14.768
 7112SOL    HW123175   9.364   9.358  14.761
 7112SOL    HW223176   9.275   9.427  14.861
 7113SOL     OW23177   4.735  13.752  13.347
 7113SOL    HW123178   4.740  13.814  13.274
 7113SOL    HW223179   4.693  13.674  13.309
 7114SOL     OW23180   7.045   9.124  12.334
 7114SOL    HW123181   6.956   9.124  12.369
 7114SOL    HW223182   7.098   9.085  12.404
 7115SOL     OW23183   3.542   2.221   8.987
 7115SOL    HW123184   3.527   2.310   9.020
 7115SOL    HW223185   3.635   2.207   8.999
 7116SOL     OW23186   2.888  12.972   0.051
 7116SOL    HW123187   2.896  12.989   0.145
 7116SOL    HW223188   2.921  12.883   0.040
 7117SOL     OW23189   4.129   9.313   8.350
 7117SOL    HW123190   4.135   9.333   8.443
 7117SOL    HW223191   4.145   9.397   8.307
 7118SOL     OW23192   5.201   4.217   8.616
 7118SOL    HW123193   5.174   4.246   8.529
 7118SOL    HW223194   5.163   4.130   8.626
 7119SOL     OW23195   9.613  12.945   5.074
 7119SOL    HW123196   9.593  12.985   4.989
 7119SOL    HW223197   9.534  12.957   5.126
 7120SOL     OW23198   8.153  10.209   3.385
 7120SOL    HW123199   8.192  10.294   3.406
 7120SOL    HW223200   8.069  10.231   3.345
 7121SOL     OW23201  13.909   4.616   0.270
 7121SOL    HW123202  13.949   4.533   0.296
 7121SOL    HW223203  13.983   4.675   0.256
 7122SOL     OW23204   1.519  13.696   3.630
 7122SOL    HW123205   1.454  13.758   3.597
 7122SOL    HW223206   1.468  13.619   3.656
 7123SOL     OW23207   1.312   9.227  11.596
 7123SOL    HW123208   1.370   9.301  11.581
 7123SOL    HW223209   1.366   9.162  11.641
 7124SOL     OW23210   8.634  14.438   7.774
 7124SOL    HW123211   8.584  14.494   7.832
 7124SOL    HW223212   8.724  14.444   7.806
 7125SOL     OW23213   2.612   3.639  12.849
 7125SOL    HW123214   2.544   3.629  12.916
 7125SOL    HW223215   2.681   3.688  12.892
 7126SOL     OW23216   1.725  13.721   4.709
 7126SOL    HW123217   1.749  13.653   4.773
 7126SOL    HW223218   1.683  13.673   4.638
 7127SOL     OW23219   2.015   8.233  11.674
 7127SOL    HW123220   2.093   8.179  11.658
 7127SOL    HW223221   2.016   8.298  11.605
 7128SOL     OW23222  11.112   8.135   8.397
 7128SOL    HW123223  11.025   8.174   8.404
 7128SOL    HW223224  11.109   8.084   8.316
 7129SOL     OW23225  11.195  10.315   2.410
 7129SOL    HW123226  11.200  10.410   2.420
 7129SOL    HW223227  11.107  10.299   2.375
 7130SOL     OW23228  13.861  14.822   0.555
 7130SOL    HW123229  13.932  14.844   0.495
 7130SOL    HW223230  13.906  14.795   0.636
 7131SOL     OW23231   6.342   2.043  12.547
 7131SOL    HW123232   6.292   1.965  12.520
 7131SOL    HW223233   6.419   2.043  12.490
 7132SOL     OW23234   5.046   8.271   2.709
 7132SOL    HW123235   5.014   8.312   2.628
 7132SOL    HW223236   5.083   8.344   2.760
 7133SOL     OW23237   3.240   3.518   2.305
 7133SOL    HW123238   3.202   3.603   2.327
 7133SOL    HW223239   3.166   3.458   2.302
 7134SOL     OW23240  10.499  13.883  11.829
 7134SOL    HW123241  10.404  13.878  11.818
 7134SOL    HW223242  10.534  13.842  11.749
 7135SOL     OW23243  10.002   9.320   8.691
 7135SOL    HW123244  10.005   9.302   8.597
 7135SOL    HW223245  10.064   9.257   8.729
 7136SOL     OW23246   5.123   3.890  10.584
 7136SOL    HW123247   5.158   3.920  10.668
 7136SOL    HW223248   5.190   3.831  10.550
 7137SOL     OW23249   1.491  10.000   6.703
 7137SOL    HW123250   1.412   9.960   6.665
 7137SOL    HW223251   1.469  10.093   6.710
 7138SOL     OW23252   2.408  14.456   8.044
 7138SOL    HW123253   2.398  14.528   8.105
 7138SOL    HW223254   2.333  14.399   8.061
 7139SOL     OW23255   9.029   6.239  11.938
 7139SOL    HW123256   9.114   6.205  11.911
 7139SOL    HW223257   8.966   6.189  11.887
 7140SOL     OW23258   1.723   0.730   3.478
 7140SOL    HW123259   1.746   0.637   3.478
 7140SOL    HW223260   1.671   0.742   3.558
 7141SOL     OW23261   8.265  13.813   8.705
 7141SOL    HW123262   8.220  13.744   8.753
 7141SOL    HW223263   8.314  13.861   8.771
 7142SOL     OW23264   8.608   2.275   1.866
 7142SOL    HW123265   8.523   2.240   1.894
 7142SOL    HW223266   8.597   2.294   1.773
 7143SOL     OW23267   1.657   9.713   7.496
 7143SOL    HW123268   1.617   9.799   7.494
 7143SOL    HW223269   1.750   9.729   7.481
 7144SOL     OW23270  11.473   2.942  11.456
 7144SOL    HW123271  11.495   2.864  11.506
 7144SOL    HW223272  11.377   2.948  11.462
 7145SOL     OW23273  11.878  13.659   2.024
 7145SOL    HW123274  11.914  13.575   2.051
 7145SOL    HW223275  11.851  13.645   1.933
 7146SOL     OW23276  11.834  12.643  11.712
 7146SOL    HW123277  11.748  12.620  11.747
 7146SOL    HW223278  11.889  12.567  11.731
 7147SOL     OW23279  12.853   4.778   4.301
 7147SOL    HW123280  12.930   4.732   4.335
 7147SOL    HW223281  12.790   4.776   4.373
 7148SOL     OW23282   1.137   7.641   8.728
 7148SOL    HW123283   1.131   7.563   8.784
 7148SOL    HW223284   1.231   7.657   8.720
 7149SOL     OW23285   4.625   4.554   0.751
 7149SOL    HW123286   4.647   4.478   0.698
 7149SOL    HW223287   4.543   4.587   0.713
 7150SOL     OW23288  12.389   7.696   1.505
 7150SOL    HW123289  12.435   7.702   1.421
 7150SOL    HW223290  12.373   7.786   1.531
 7151SOL     OW23291   3.763   2.229  11.687
 7151SOL    HW123292   3.749   2.318  11.718
 7151SOL    HW223293   3.841   2.234  11.632
 7152SOL     OW23294   3.440  13.662   1.308
 7152SOL    HW123295   3.416  13.622   1.225
 7152SOL    HW223296   3.387  13.742   1.312
 7153SOL     OW23297  14.318   9.153   0.407
 7153SOL    HW123298  14.287   9.102   0.482
 7153SOL    HW223299  14.273   9.237   0.414
 7154SOL     OW23300   9.022  13.393   2.587
 7154SOL    HW123301   8.978  13.421   2.507
 7154SOL    HW223302   9.049  13.303   2.568
 7155SOL     OW23303   6.837   0.912   4.619
 7155SOL    HW123304   6.741   0.909   4.627
 7155SOL    HW223305   6.859   0.831   4.573
 7156SOL     OW23306  10.947  14.635  11.015
 7156SOL    HW123307  11.039  14.627  11.041
 7156SOL    HW223308  10.899  14.591  11.085
 7157SOL     OW23309   7.711  11.194   4.645
 7157SOL    HW123310   7.736  11.103   4.626
 7157SOL    HW223311   7.742  11.244   4.570
 7158SOL     OW23312   5.640  12.631   1.430
 7158SOL    HW123313   5.683  12.582   1.500
 7158SOL    HW223314   5.568  12.676   1.474
 7159SOL     OW23315   1.479   7.131  13.615
 7159SOL    HW123316   1.432   7.214  13.610
 7159SOL    HW223317   1.496   7.118  13.709
 7160SOL     OW23318  13.858   4.087  14.131
 7160SOL    HW123319  13.889   4.089  14.222
 7160SOL    HW223320  13.831   4.177  14.113
 7161SOL     OW23321   2.918   8.068   9.959
 7161SOL    HW123322   2.892   8.094   9.870
 7161SOL    HW223323   3.011   8.089   9.963
 7162SOL     OW23324  11.483   4.991   2.697
 7162SOL    HW123325  11.421   4.918   2.710
 7162SOL    HW223326  11.427   5.065   2.673
 7163SOL     OW23327   3.424  11.550  10.543
 7163SOL    HW123328   3.342  11.596  10.525
 7163SOL    HW223329   3.428  11.545  10.639
 7164SOL     OW23330   0.354   6.145   8.672
 7164SOL    HW123331   0.436   6.194   8.674
 7164SOL    HW223332   0.333   6.136   8.579
 7165SOL     OW23333  14.877   5.064  12.583
 7165SOL    HW123334  14.866   5.020  12.498
 7165SOL    HW223335   0.077   5.112  12.574
 7166SOL     OW23336   6.546   9.286  14.121
 7166SOL    HW123337   6.550   9.275  14.216
 7166SOL    HW223338   6.489   9.363  14.109
 7167SOL     OW23339  12.960   9.071   3.126
 7167SOL    HW123340  12.937   9.068   3.034
 7167SOL    HW223341  12.978   8.980   3.151
 7168SOL     OW23342   3.783   8.646   1.050
 7168SOL    HW123343   3.833   8.624   1.128
 7168SOL    HW223344   3.786   8.567   0.996
 7169SOL     OW23345   6.561   8.934   8.827
 7169SOL    HW123346   6.625   8.977   8.884
 7169SOL    HW223347   6.567   8.982   8.744
 7170SOL     OW23348   1.496   6.559   2.294
 7170SOL    HW123349   1.477   6.572   2.201
 7170SOL    HW223350   1.569   6.618   2.311
 7171SOL     OW23351   0.770   0.674   6.145
 7171SOL    HW123352   0.688   0.667   6.195
 7171SOL    HW223353   0.834   0.704   6.209
 7172SOL     OW23354  13.509   2.022   9.938
 7172SOL    HW123355  13.526   2.090  10.003
 7172SOL    HW223356  13.518   2.066   9.854
 7173SOL     OW23357   2.848  10.251   9.472
 7173SOL    HW123358   2.879  10.221   9.557
 7173SOL    HW223359   2.851  10.347   9.477
 7174SOL     OW23360   6.735  13.851   9.216
 7174SOL    HW123361   6.756  13.943   9.203
 7174SOL    HW223362   6.771  13.806   9.139
 7175SOL     OW23363   8.646   8.582  14.500
 7175SOL    HW123364   8.732   8.620  14.515
 7175SOL    HW223365   8.593   8.654  14.466
 7176SOL     OW23366   2.089   9.719   8.069
 7176SOL    HW123367   2.112   9.638   8.114
 7176SOL    HW223368   2.001   9.704   8.034
 7177SOL     OW23369  10.277  13.566   4.407
 7177SOL    HW123370  10.211  13.622   4.448
 7177SOL    HW223371  10.263  13.480   4.445
 7178SOL     OW23372  12.992   3.708  12.179
 7178SOL    HW123373  12.979   3.657  12.259
 7178SOL    HW223374  12.923   3.680  12.120
 7179SOL     OW23375   9.200   1.213   1.745
 7179SOL    HW123376   9.127   1.235   1.687
 7179SOL    HW223377   9.159   1.177   1.823
 7180SOL     OW23378   3.968  10.854   6.164
 7180SOL    HW123379   4.002  10.943   6.169
 7180SOL    HW223380   4.029  10.801   6.215
 7181SOL     OW23381   1.884   7.686   7.723
 7181SOL    HW123382   1.971   7.715   7.693
 7181SOL    HW223383   1.824   7.722   7.657
 7182SOL     OW23384  14.418   1.243   2.290
 7182SOL    HW123385  14.474   1.200   2.225
 7182SOL    HW223386  14.353   1.177   2.312
 7183SOL     OW23387   3.302  11.484   5.375
 7183SOL    HW123388   3.296  11.402   5.423
 7183SOL    HW223389   3.395  11.494   5.356
 7184SOL     OW23390   2.383   8.849   0.330
 7184SOL    HW123391   2.432   8.924   0.364
 7184SOL    HW223392   2.303   8.887   0.294
 7185SOL     OW23393  14.671   0.377  10.495
 7185SOL    HW123394  14.687   0.322  10.419
 7185SOL    HW223395  14.715   0.333  10.568
 7186SOL     OW23396   3.563   4.207  11.836
 7186SOL    HW123397   3.564   4.302  11.846
 7186SOL    HW223398   3.487   4.189  11.782
 7187SOL     OW23399   5.792   8.853   6.549
 7187SOL    HW123400   5.753   8.924   6.498
 7187SOL    HW223401   5.886   8.870   6.545
 7188SOL     OW23402   8.202   1.393   3.539
 7188SOL    HW123403   8.143   1.466   3.517
 7188SOL    HW223404   8.276   1.434   3.583
 7189SOL     OW23405   7.144  14.654   7.037
 7189SOL    HW123406   7.070  14.700   6.998
 7189SOL    HW223407   7.221  14.706   7.011
 7190SOL     OW23408   2.281  10.127   8.987
 7190SOL    HW123409   2.206  10.183   8.967
 7190SOL    HW223410   2.310  10.154   9.074
 7191SOL     OW23411   8.646   3.962   6.167
 7191SOL    HW123412   8.714   3.898   6.146
 7191SOL    HW223413   8.576   3.910   6.207
 7192SOL     OW23414  10.967   0.510  10.897
 7192SOL    HW123415  11.040   0.451  10.882
 7192SOL    HW223416  10.904   0.490  10.828
 7193SOL     OW23417   2.609   5.523   3.252
 7193SOL    HW123418   2.694   5.501   3.290
 7193SOL    HW223419   2.623   5.605   3.206
 7194SOL     OW23420   0.503   0.420   3.927
 7194SOL    HW123421   0.505   0.464   3.842
 7194SOL    HW223422   0.502   0.492   3.991
 7195SOL     OW23423   4.869  12.612  10.344
 7195SOL    HW123424   4.794  12.634  10.399
 7195SOL    HW223425   4.832  12.601  10.257
 7196SOL     OW23426  14.637  12.492   8.784
 7196SOL    HW123427  14.728  12.511   8.760
 7196SOL    HW223428  14.599  12.577   8.804
 7197SOL     OW23429   1.818   5.659   5.460
 7197SOL    HW123430   1.854   5.571   5.450
 7197SOL    HW223431   1.784   5.680   5.373
 7198SOL     OW23432   9.637   5.918   1.388
 7198SOL    HW123433   9.607   6.009   1.388
 7198SOL    HW223434   9.560   5.867   1.412
 7199SOL     OW23435   5.138   4.930   3.481
 7199SOL    HW123436   5.147   4.835   3.494
 7199SOL    HW223437   5.218   4.956   3.435
 7200SOL     OW23438  13.502   1.147   9.425
 7200SOL    HW123439  13.593   1.172   9.437
 7200SOL    HW223440  13.455   1.192   9.496
 7201SOL     OW23441   9.532  10.735   7.800
 7201SOL    HW123442   9.473  10.791   7.851
 7201SOL    HW223443   9.490  10.648   7.803
 7202SOL     OW23444  11.465   7.072  12.502
 7202SOL    HW123445  11.537   7.070  12.438
 7202SOL    HW223446  11.444   7.165  12.511
 7203SOL     OW23447  14.156   8.716   8.763
 7203SOL    HW123448  14.108   8.794   8.735
 7203SOL    HW223449  14.223   8.749   8.822
 7204SOL     OW23450  12.473  14.540   2.285
 7204SOL    HW123451  12.537  14.529   2.355
 7204SOL    HW223452  12.400  14.483   2.310
 7205SOL     OW23453  12.874   9.832  10.983
 7205SOL    HW123454  12.915   9.904  10.936
 7205SOL    HW223455  12.814   9.793  10.920
 7206SOL     OW23456  12.286   3.002   0.431
 7206SOL    HW123457  12.261   2.966   0.346
 7206SOL    HW223458  12.206   3.040   0.466
 7207SOL     OW23459   5.574  13.121   4.958
 7207SOL    HW123460   5.574  13.098   5.050
 7207SOL    HW223461   5.482  13.123   4.933
 7208SOL     OW23462   4.047   6.295  10.830
 7208SOL    HW123463   4.013   6.375  10.870
 7208SOL    HW223464   4.035   6.307  10.736
 7209SOL     OW23465  10.569   5.842   0.837
 7209SOL    HW123466  10.654   5.847   0.795
 7209SOL    HW223467  10.578   5.772   0.902
 7210SOL     OW23468   7.835   7.979   5.860
 7210SOL    HW123469   7.753   8.023   5.835
 7210SOL    HW223470   7.827   7.891   5.823
 7211SOL     OW23471   7.769  13.826   8.107
 7211SOL    HW123472   7.684  13.870   8.101
 7211SOL    HW223473   7.829  13.895   8.137
 7212SOL     OW23474  10.034   7.663   8.198
 7212SOL    HW123475  10.072   7.577   8.217
 7212SOL    HW223476  10.103   7.726   8.220
 7213SOL     OW23477   8.824  11.435   1.364
 7213SOL    HW123478   8.768  11.408   1.291
 7213SOL    HW223479   8.856  11.522   1.339
 7214SOL     OW23480   3.923  10.002   8.504
 7214SOL    HW123481   3.976   9.928   8.533
 7214SOL    HW223482   3.843   9.962   8.471
 7215SOL     OW23483  10.595  10.603  14.132
 7215SOL    HW123484  10.568  10.692  14.155
 7215SOL    HW223485  10.687  10.611  14.108
 7216SOL     OW23486  10.472   6.595   6.254
 7216SOL    HW123487  10.508   6.671   6.299
 7216SOL    HW223488  10.454   6.626   6.165
 7217SOL     OW23489  13.372   8.429   6.950
 7217SOL    HW123490  13.345   8.470   7.031
 7217SOL    HW223491  13.292   8.424   6.897
 7218SOL     OW23492   5.605   5.945   1.696
 7218SOL    HW123493   5.613   5.864   1.747
 7218SOL    HW223494   5.599   6.015   1.762
 7219SOL     OW23495  12.504   1.782   6.062
 7219SOL    HW123496  12.409   1.780   6.077
 7219SOL    HW223497  12.520   1.865   6.018
 7220SOL     OW23498   2.772  11.193   3.955
 7220SOL    HW123499   2.821  11.186   3.873
 7220SOL    HW223500   2.742  11.284   3.956
 7221SOL     OW23501   2.922   3.060   3.011
 7221SOL    HW123502   2.988   3.126   2.991
 7221SOL    HW223503   2.840   3.095   2.975
 7222SOL     OW23504   5.420  11.068   2.741
 7222SOL    HW123505   5.455  11.030   2.661
 7222SOL    HW223506   5.404  10.993   2.798
 7223SOL     OW23507   2.162  11.884   2.813
 7223SOL    HW123508   2.130  11.831   2.740
 7223SOL    HW223509   2.135  11.973   2.793
 7224SOL     OW23510   9.469  11.262  11.278
 7224SOL    HW123511   9.450  11.351  11.308
 7224SOL    HW223512   9.561  11.265  11.251
 7225SOL     OW23513   7.174   3.377   6.443
 7225SOL    HW123514   7.154   3.313   6.375
 7225SOL    HW223515   7.195   3.324   6.521
 7226SOL     OW23516   1.692  14.688  12.718
 7226SOL    HW123517   1.702  14.695  12.813
 7226SOL    HW223518   1.600  14.710  12.701
 7227SOL     OW23519   2.845   6.526  10.373
 7227SOL    HW123520   2.843   6.499  10.465
 7227SOL    HW223521   2.858   6.445  10.325
 7228SOL     OW23522   4.985  11.760  13.239
 7228SOL    HW123523   4.894  11.751  13.213
 7228SOL    HW223524   4.984  11.826  13.308
 7229SOL     OW23525  10.258  13.570  13.500
 7229SOL    HW123526  10.240  13.562  13.593
 7229SOL    HW223527  10.290  13.660  13.489
 7230SOL     OW23528   3.465   8.227   2.259
 7230SOL    HW123529   3.443   8.221   2.166
 7230SOL    HW223530   3.555   8.261   2.260
 7231SOL     OW23531  14.672  11.372  13.459
 7231SOL    HW123532  14.712  11.415  13.534
 7231SOL    HW223533  14.700  11.280  13.466
 7232SOL     OW23534   4.277   8.287   2.858
 7232SOL    HW123535   4.242   8.356   2.803
 7232SOL    HW223536   4.355   8.326   2.899
 7233SOL     OW23537   6.401   4.330  12.545
 7233SOL    HW123538   6.455   4.402  12.511
 7233SOL    HW223539   6.419   4.257  12.485
 7234SOL     OW23540  13.038   8.300   5.433
 7234SOL    HW123541  13.032   8.350   5.351
 7234SOL    HW223542  13.085   8.358   5.493
 7235SOL     OW23543  14.182   4.724   9.864
 7235SOL    HW123544  14.234   4.654   9.825
 7235SOL    HW223545  14.127   4.680   9.929
 7236SOL     OW23546   2.089   6.118   0.740
 7236SOL    HW123547   2.059   6.141   0.652
 7236SOL    HW223548   2.052   6.031   0.756
 7237SOL     OW23549   2.550   0.497   0.655
 7237SOL    HW123550   2.575   0.503   0.747
 7237SOL    HW223551   2.629   0.465   0.611
 7238SOL     OW23552  13.732   2.576   2.872
 7238SOL    HW123553  13.824   2.554   2.880
 7238SOL    HW223554  13.716   2.580   2.778
 7239SOL     OW23555   8.929   0.528   0.590
 7239SOL    HW123556   8.952   0.472   0.664
 7239SOL    HW223557   8.849   0.489   0.555
 7240SOL     OW23558  10.069  10.778   7.643
 7240SOL    HW123559  10.115  10.696   7.661
 7240SOL    HW223560   9.982  10.766   7.681
 7241SOL     OW23561   8.203   1.580   8.382
 7241SOL    HW123562   8.254   1.510   8.422
 7241SOL    HW223563   8.154   1.537   8.312
 7242SOL     OW23564   4.038   2.309  10.730
 7242SOL    HW123565   4.056   2.395  10.768
 7242SOL    HW223566   4.098   2.250  10.774
 7243SOL     OW23567  11.474   0.256  10.767
 7243SOL    HW123568  11.495   0.163  10.769
 7243SOL    HW223569  11.502   0.289  10.853
 7244SOL     OW23570   6.553  14.167  12.480
 7244SOL    HW123571   6.529  14.238  12.540
 7244SOL    HW223572   6.646  14.154  12.494
 7245SOL     OW23573  12.778  10.892   7.424
 7245SOL    HW123574  12.769  10.797   7.428
 7245SOL    HW223575  12.838  10.914   7.496
 7246SOL     OW23576  13.474  12.789  14.694
 7246SOL    HW123577  13.458  12.747  14.609
 7246SOL    HW223578  13.393  12.776  14.743
 7247SOL     OW23579   4.146  13.297   7.692
 7247SOL    HW123580   4.214  13.356   7.660
 7247SOL    HW223581   4.131  13.235   7.621
 7248SOL     OW23582   7.344  14.758  12.790
 7248SOL    HW123583   7.275  14.708  12.745
 7248SOL    HW223584   7.350  14.718  12.876
 7249SOL     OW23585  12.886  13.311   4.926
 7249SOL    HW123586  12.883  13.406   4.916
 7249SOL    HW223587  12.883  13.296   5.021
 7250SOL     OW23588   4.087  10.441   8.952
 7250SOL    HW123589   4.097  10.535   8.971
 7250SOL    HW223590   4.073  10.400   9.037
 7251SOL     OW23591   0.364   5.925   9.526
 7251SOL    HW123592   0.425   5.967   9.585
 7251SOL    HW223593   0.399   5.836   9.514
 7252SOL     OW23594   6.499  12.130  12.896
 7252SOL    HW123595   6.538  12.197  12.952
 7252SOL    HW223596   6.425  12.175  12.854
 7253SOL     OW23597  14.758  10.220   4.152
 7253SOL    HW123598  14.724  10.133   4.129
 7253SOL    HW223599  14.700  10.281   4.107
 7254SOL     OW23600  14.167   5.264   1.359
 7254SOL    HW123601  14.114   5.339   1.333
 7254SOL    HW223602  14.120   5.226   1.434
 7255SOL     OW23603  10.421   7.692   8.467
 7255SOL    HW123604  10.437   7.624   8.533
 7255SOL    HW223605  10.325   7.701   8.466
 7256SOL     OW23606  10.590   7.672   9.936
 7256SOL    HW123607  10.674   7.663   9.889
 7256SOL    HW223608  10.550   7.585   9.930
 7257SOL     OW23609  14.004   7.344   2.052
 7257SOL    HW123610  13.977   7.279   2.117
 7257SOL    HW223611  13.935   7.341   1.985
 7258SOL     OW23612  14.099   9.887   5.523
 7258SOL    HW123613  14.154   9.934   5.461
 7258SOL    HW223614  14.073   9.954   5.587
 7259SOL     OW23615  14.212  13.898   4.066
 7259SOL    HW123616  14.154  13.878   4.140
 7259SOL    HW223617  14.292  13.848   4.085
 7260SOL     OW23618   4.890   8.389   5.875
 7260SOL    HW123619   4.902   8.298   5.903
 7260SOL    HW223620   4.920   8.389   5.784
 7261SOL     OW23621   2.790  14.640   4.447
 7261SOL    HW123622   2.750  14.683   4.523
 7261SOL    HW223623   2.862  14.698   4.423
 7262SOL     OW23624  13.111   1.982   4.723
 7262SOL    HW123625  13.141   1.935   4.801
 7262SOL    HW223626  13.187   1.986   4.666
 7263SOL     OW23627  13.055   8.065   8.677
 7263SOL    HW123628  12.990   8.095   8.740
 7263SOL    HW223629  13.112   8.141   8.663
 7264SOL     OW23630   2.247  12.347  12.666
 7264SOL    HW123631   2.296  12.376  12.589
 7264SOL    HW223632   2.201  12.268  12.636
 7265SOL     OW23633   8.725  14.155   2.702
 7265SOL    HW123634   8.802  14.106   2.675
 7265SOL    HW223635   8.662  14.144   2.631
 7266SOL     OW23636   9.291  11.183   5.153
 7266SOL    HW123637   9.382  11.188   5.184
 7266SOL    HW223638   9.299  11.166   5.060
 7267SOL     OW23639   8.232   2.831   7.605
 7267SOL    HW123640   8.289   2.886   7.659
 7267SOL    HW223641   8.210   2.757   7.662
 7268SOL     OW23642   2.699  12.339  14.677
 7268SOL    HW123643   2.650  12.257  14.675
 7268SOL    HW223644   2.666  12.385  14.754
 7269SOL     OW23645  13.850   0.885   0.441
 7269SOL    HW123646  13.774   0.838   0.407
 7269SOL    HW223647  13.925   0.847   0.393
 7270SOL     OW23648   7.574   3.516   6.611
 7270SOL    HW123649   7.572   3.561   6.696
 7270SOL    HW223650   7.586   3.586   6.547
 7271SOL     OW23651  13.067   4.386   5.729
 7271SOL    HW123652  13.065   4.347   5.816
 7271SOL    HW223653  12.979   4.374   5.694
 7272SOL     OW23654  13.304   7.675   6.424
 7272SOL    HW123655  13.288   7.755   6.474
 7272SOL    HW223656  13.281   7.604   6.484
 7273SOL     OW23657   5.819  11.405   5.457
 7273SOL    HW123658   5.780  11.480   5.503
 7273SOL    HW223659   5.902  11.439   5.424
 7274SOL     OW23660   2.818   3.045   8.329
 7274SOL    HW123661   2.762   3.089   8.264
 7274SOL    HW223662   2.904   3.086   8.318
 7275SOL     OW23663   1.964   0.479   9.965
 7275SOL    HW123664   2.007   0.394   9.966
 7275SOL    HW223665   2.012   0.531  10.030
 7276SOL     OW23666  14.639   0.736   7.273
 7276SOL    HW123667  14.656   0.830   7.275
 7276SOL    HW223668  14.630   0.712   7.365
 7277SOL     OW23669  10.874   5.301   5.677
 7277SOL    HW123670  10.798   5.360   5.680
 7277SOL    HW223671  10.944   5.353   5.640
 7278SOL     OW23672   3.870   9.701  14.880
 7278SOL    HW123673   3.922   9.751   0.061
 7278SOL    HW223674   3.873   9.753  14.800
 7279SOL     OW23675   8.311   9.583   7.952
 7279SOL    HW123676   8.280   9.503   7.994
 7279SOL    HW223677   8.325   9.559   7.860
 7280SOL     OW23678  12.746   5.159   4.297
 7280SOL    HW123679  12.690   5.104   4.241
 7280SOL    HW223680  12.741   5.246   4.257
 7281SOL     OW23681  12.969   1.491   3.993
 7281SOL    HW123682  12.938   1.479   3.904
 7281SOL    HW223683  12.990   1.402   4.023
 7282SOL     OW23684   8.038   8.863  12.052
 7282SOL    HW123685   8.078   8.804  12.116
 7282SOL    HW223686   8.079   8.839  11.969
 7283SOL     OW23687   9.731   5.285   3.135
 7283SOL    HW123688   9.664   5.286   3.067
 7283SOL    HW223689   9.690   5.243   3.210
 7284SOL     OW23690  10.385  12.409   0.223
 7284SOL    HW123691  10.291  12.392   0.229
 7284SOL    HW223692  10.410  12.438   0.311
 7285SOL     OW23693   5.543   3.697   0.097
 7285SOL    HW123694   5.452   3.685   0.124
 7285SOL    HW223695   5.542   3.687   0.002
 7286SOL     OW23696   2.826   1.491  13.504
 7286SOL    HW123697   2.849   1.430  13.573
 7286SOL    HW223698   2.730   1.496  13.507
 7287SOL     OW23699   9.154   3.449   0.403
 7287SOL    HW123700   9.224   3.385   0.388
 7287SOL    HW223701   9.082   3.418   0.347
 7288SOL     OW23702  12.144   3.735  10.384
 7288SOL    HW123703  12.182   3.651  10.359
 7288SOL    HW223704  12.050   3.718  10.389
 7289SOL     OW23705   6.233   6.684   2.733
 7289SOL    HW123706   6.178   6.615   2.770
 7289SOL    HW223707   6.218   6.760   2.789
 7290SOL     OW23708   9.830   4.132  10.997
 7290SOL    HW123709   9.839   4.225  11.017
 7290SOL    HW223710   9.774   4.129  10.920
 7291SOL     OW23711   1.543   0.860   7.475
 7291SOL    HW123712   1.586   0.902   7.549
 7291SOL    HW223713   1.597   0.881   7.399
 7292SOL     OW23714  14.306  13.593   4.071
 7292SOL    HW123715  14.346  13.657   4.130
 7292SOL    HW223716  14.381  13.550   4.029
 7293SOL     OW23717  12.637  11.678  14.163
 7293SOL    HW123718  12.643  11.602  14.105
 7293SOL    HW223719  12.654  11.642  14.250
 7294SOL     OW23720   5.207   5.548  14.325
 7294SOL    HW123721   5.210   5.517  14.234
 7294SOL    HW223722   5.154   5.627  14.322
 7295SOL     OW23723   5.414  12.035  13.819
 7295SOL    HW123724   5.365  12.067  13.743
 7295SOL    HW223725   5.346  12.019  13.885
 7296SOL     OW23726   4.063   8.336   7.826
 7296SOL    HW123727   3.969   8.327   7.811
 7296SOL    HW223728   4.086   8.263   7.884
 7297SOL     OW23729  11.248  13.320  12.681
 7297SOL    HW123730  11.292  13.348  12.600
 7297SOL    HW223731  11.235  13.226  12.670
 7298SOL     OW23732   7.214   9.515   5.417
 7298SOL    HW123733   7.183   9.487   5.502
 7298SOL    HW223734   7.232   9.434   5.369
 7299SOL     OW23735   2.584  14.659  11.705
 7299SOL    HW123736   2.533  14.685  11.782
 7299SOL    HW223737   2.569  14.565  11.697
 7300SOL     OW23738   6.605  11.879   0.012
 7300SOL    HW123739   6.585  11.797   0.058
 7300SOL    HW223740   6.691  11.863  14.855
 7301SOL     OW23741  12.647  11.279  10.835
 7301SOL    HW123742  12.687  11.193  10.845
 7301SOL    HW223743  12.583  11.285  10.906
 7302SOL     OW23744   5.148   1.701   0.118
 7302SOL    HW123745   5.061   1.666   0.138
 7302SOL    HW223746   5.198   1.690   0.198
 7303SOL     OW23747   6.276   1.243   8.879
 7303SOL    HW123748   6.205   1.283   8.829
 7303SOL    HW223749   6.255   1.150   8.881
 7304SOL     OW23750   9.242   4.562   7.920
 7304SOL    HW123751   9.332   4.568   7.952
 7304SOL    HW223752   9.208   4.651   7.927
 7305SOL     OW23753  13.508   2.322   8.993
 7305SOL    HW123754  13.553   2.320   9.078
 7305SOL    HW223755  13.476   2.233   8.980
 7306SOL     OW23756  14.785  12.127   7.845
 7306SOL    HW123757  14.754  12.218   7.843
 7306SOL    HW223758  14.714  12.077   7.805
 7307SOL     OW23759  13.939   4.196   0.485
 7307SOL    HW123760  13.972   4.107   0.472
 7307SOL    HW223761  13.854   4.197   0.441
 7308SOL     OW23762   8.240   8.568   1.821
 7308SOL    HW123763   8.166   8.545   1.764
 7308SOL    HW223764   8.280   8.485   1.844
 7309SOL     OW23765  13.023   9.140   7.747
 7309SOL    HW123766  12.986   9.223   7.777
 7309SOL    HW223767  12.965   9.112   7.676
 7310SOL     OW23768  12.337   0.396  11.636
 7310SOL    HW123769  12.350   0.302  11.629
 7310SOL    HW223770  12.284   0.407  11.715
 7311SOL     OW23771   6.256  14.537  10.286
 7311SOL    HW123772   6.343  14.497  10.282
 7311SOL    HW223773   6.236  14.540  10.380
 7312SOL     OW23774  10.566   3.543  11.023
 7312SOL    HW123775  10.505   3.606  10.985
 7312SOL    HW223776  10.586   3.482  10.952
 7313SOL     OW23777  10.613   5.635   1.027
 7313SOL    HW123778  10.549   5.597   0.968
 7313SOL    HW223779  10.638   5.562   1.085
 7314SOL     OW23780  11.419   3.005   8.385
 7314SOL    HW123781  11.497   2.972   8.341
 7314SOL    HW223782  11.450   3.073   8.444
 7315SOL     OW23783  13.165  12.974   3.010
 7315SOL    HW123784  13.193  13.000   2.923
 7315SOL    HW223785  13.171  13.054   3.062
 7316SOL     OW23786   4.173   6.452  11.431
 7316SOL    HW123787   4.100   6.431  11.489
 7316SOL    HW223788   4.249   6.408  11.471
 7317SOL     OW23789   5.124   9.670   8.036
 7317SOL    HW123790   5.174   9.649   7.957
 7317SOL    HW223791   5.119   9.765   8.037
 7318SOL     OW23792   5.965   4.353   7.333
 7318SOL    HW123793   5.927   4.357   7.245
 7318SOL    HW223794   5.919   4.420   7.383
 7319SOL     OW23795   1.836   7.851   4.827
 7319SOL    HW123796   1.804   7.880   4.742
 7319SOL    HW223797   1.869   7.762   4.810
 7320SOL     OW23798   5.926  13.041   5.326
 7320SOL    HW123799   5.883  12.968   5.371
 7320SOL    HW223800   5.900  13.118   5.376
 7321SOL     OW23801   5.131   7.638   3.314
 7321SOL    HW123802   5.157   7.625   3.223
 7321SOL    HW223803   5.098   7.553   3.342
 7322SOL     OW23804   1.064   9.050   6.291
 7322SOL    HW123805   0.972   9.061   6.317
 7322SOL    HW223806   1.060   9.000   6.209
 7323SOL     OW23807  12.642   4.732   5.196
 7323SOL    HW123808  12.710   4.725   5.130
 7323SOL    HW223809  12.604   4.819   5.182
 7324SOL     OW23810   3.166  12.836   6.697
 7324SOL    HW123811   3.258  12.816   6.679
 7324SOL    HW223812   3.134  12.759   6.745
 7325SOL     OW23813   6.489   1.902  13.473
 7325SOL    HW123814   6.396   1.921  13.461
 7325SOL    HW223815   6.527   1.985  13.505
 7326SOL     OW23816   6.595  12.277   4.455
 7326SOL    HW123817   6.524  12.324   4.409
 7326SOL    HW223818   6.569  12.278   4.547
 7327SOL     OW23819   4.691  14.529   0.045
 7327SOL    HW123820   4.614  14.585   0.053
 7327SOL    HW223821   4.696  14.483   0.129
 7328SOL     OW23822   3.700   0.740   6.110
 7328SOL    HW123823   3.783   0.784   6.092
 7328SOL    HW223824   3.723   0.665   6.164
 7329SOL     OW23825   4.500   2.706  10.315
 7329SOL    HW123826   4.443   2.709  10.239
 7329SOL    HW223827   4.518   2.798  10.335
 7330SOL     OW23828  13.150   9.713  12.140
 7330SOL    HW123829  13.189   9.642  12.191
 7330SOL    HW223830  13.070   9.735  12.187
 7331SOL     OW23831  13.793   8.152  14.823
 7331SOL    HW123832  13.849   8.229  14.827
 7331SOL    HW223833  13.803   8.120  14.733
 7332SOL     OW23834   5.680   0.783   5.159
 7332SOL    HW123835   5.613   0.760   5.223
 7332SOL    HW223836   5.751   0.822   5.210
 7333SOL     OW23837   9.332  11.381   7.538
 7333SOL    HW123838   9.346  11.312   7.602
 7333SOL    HW223839   9.417  11.425   7.531
 7334SOL     OW23840  13.557   6.692   1.784
 7334SOL    HW123841  13.591   6.763   1.839
 7334SOL    HW223842  13.611   6.617   1.807
 7335SOL     OW23843   1.779   1.190  14.500
 7335SOL    HW123844   1.705   1.251  14.501
 7335SOL    HW223845   1.830   1.212  14.578
 7336SOL     OW23846   2.716   1.141   4.274
 7336SOL    HW123847   2.655   1.128   4.201
 7336SOL    HW223848   2.671   1.103   4.349
 7337SOL     OW23849   1.853   3.401   1.312
 7337SOL    HW123850   1.873   3.339   1.242
 7337SOL    HW223851   1.936   3.443   1.332
 7338SOL     OW23852  10.181   7.153   3.008
 7338SOL    HW123853  10.174   7.090   3.080
 7338SOL    HW223854  10.146   7.235   3.045
 7339SOL     OW23855   7.197   9.225   3.774
 7339SOL    HW123856   7.138   9.280   3.722
 7339SOL    HW223857   7.140   9.156   3.809
 7340SOL     OW23858  10.297   9.898  13.717
 7340SOL    HW123859  10.320   9.947  13.637
 7340SOL    HW223860  10.201   9.899  13.718
 7341SOL     OW23861   5.679   8.355   1.242
 7341SOL    HW123862   5.676   8.285   1.307
 7341SOL    HW223863   5.743   8.325   1.178
 7342SOL     OW23864   9.945   5.682  11.503
 7342SOL    HW123865   9.868   5.626  11.495
 7342SOL    HW223866   9.981   5.662  11.589
 7343SOL     OW23867   2.908   0.066  13.698
 7343SOL    HW123868   2.863   0.055  13.614
 7343SOL    HW223869   2.893   0.157  13.721
 7344SOL     OW23870  12.426   5.964  10.868
 7344SOL    HW123871  12.387   6.045  10.900
 7344SOL    HW223872  12.372   5.895  10.907
 7345SOL     OW23873   7.719  11.602   8.875
 7345SOL    HW123874   7.716  11.506   8.878
 7345SOL    HW223875   7.711  11.623   8.782
 7346SOL     OW23876  11.279   9.719   1.730
 7346SOL    HW123877  11.215   9.677   1.788
 7346SOL    HW223878  11.237   9.800   1.701
 7347SOL     OW23879   8.800   3.176   9.995
 7347SOL    HW123880   8.782   3.226  10.074
 7347SOL    HW223881   8.893   3.153  10.001
 7348SOL     OW23882  14.304   1.412   2.510
 7348SOL    HW123883  14.322   1.376   2.423
 7348SOL    HW223884  14.224   1.366   2.539
 7349SOL     OW23885   2.897  14.771   1.910
 7349SOL    HW123886   2.825  14.715   1.935
 7349SOL    HW223887   2.884  14.787   1.816
 7350SOL     OW23888   9.475   1.867  11.482
 7350SOL    HW123889   9.382   1.868  11.459
 7350SOL    HW223890   9.513   1.799  11.427
 7351SOL     OW23891  11.543   4.728  11.163
 7351SOL    HW123892  11.454   4.760  11.174
 7351SOL    HW223893  11.547   4.696  11.073
 7352SOL     OW23894   2.042   3.710   3.705
 7352SOL    HW123895   2.080   3.633   3.747
 7352SOL    HW223896   2.046   3.691   3.611
 7353SOL     OW23897   8.209  13.562   5.804
 7353SOL    HW123898   8.190  13.502   5.876
 7353SOL    HW223899   8.235  13.643   5.846
 7354SOL     OW23900  13.695   0.690   7.317
 7354SOL    HW123901  13.632   0.755   7.350
 7354SOL    HW223902  13.777   0.713   7.360
 7355SOL     OW23903   1.881  13.490  13.114
 7355SOL    HW123904   1.893  13.429  13.041
 7355SOL    HW223905   1.788  13.483  13.135
 7356SOL     OW23906  11.435  11.602   8.940
 7356SOL    HW123907  11.481  11.522   8.914
 7356SOL    HW223908  11.464  11.618   9.031
 7357SOL     OW23909   3.605   7.359   4.658
 7357SOL    HW123910   3.586   7.312   4.577
 7357SOL    HW223911   3.701   7.358   4.665
 7358SOL     OW23912   3.333  14.140   1.951
 7358SOL    HW123913   3.407  14.168   1.897
 7358SOL    HW223914   3.319  14.213   2.012
 7359SOL     OW23915  10.410  10.709   8.702
 7359SOL    HW123916  10.350  10.746   8.767
 7359SOL    HW223917  10.382  10.618   8.692
 7360SOL     OW23918   8.790   8.797   0.943
 7360SOL    HW123919   8.719   8.839   0.894
 7360SOL    HW223920   8.759   8.707   0.957
 7361SOL     OW23921   1.338  14.173   9.270
 7361SOL    HW123922   1.359  14.261   9.301
 7361SOL    HW223923   1.298  14.187   9.184
 7362SOL     OW23924   5.509  10.454  14.234
 7362SOL    HW123925   5.416  10.443  14.214
 7362SOL    HW223926   5.511  10.465  14.329
 7363SOL     OW23927   2.822   8.477  12.894
 7363SOL    HW123928   2.866   8.392  12.894
 7363SOL    HW223929   2.892   8.540  12.877
 7364SOL     OW23930   7.209  13.712   8.281
 7364SOL    HW123931   7.242  13.717   8.371
 7364SOL    HW223932   7.114  13.723   8.290
 7365SOL     OW23933  13.784   8.043   7.575
 7365SOL    HW123934  13.746   8.108   7.634
 7365SOL    HW223935  13.875   8.034   7.605
 7366SOL     OW23936   5.287   2.090  10.033
 7366SOL    HW123937   5.193   2.073  10.041
 7366SOL    HW223938   5.292   2.173   9.986
 7367SOL     OW23939   6.910   9.928  12.792
 7367SOL    HW123940   6.929  10.017  12.763
 7367SOL    HW223941   6.883   9.882  12.713
 7368SOL     OW23942   9.154   3.948  12.467
 7368SOL    HW123943   9.092   3.957  12.395
 7368SOL    HW223944   9.171   3.854  12.474
 7369SOL     OW23945   9.456  14.521  12.246
 7369SOL    HW123946   9.478  14.607  12.282
 7369SOL    HW223947   9.461  14.461  12.320
 7370SOL     OW23948   6.841   0.347   6.284
 7370SOL    HW123949   6.785   0.311   6.216
 7370SOL    HW223950   6.880   0.426   6.245
 7371SOL     OW23951   7.352  13.821   3.551
 7371SOL    HW123952   7.307  13.827   3.467
 7371SOL    HW223953   7.369  13.912   3.575
 7372SOL     OW23954   0.631   1.468   7.156
 7372SOL    HW123955   0.692   1.539   7.135
 7372SOL    HW223956   0.652   1.445   7.247
 7373SOL     OW23957   3.534  10.747   7.815
 7373SOL    HW123958   3.603  10.759   7.750
 7373SOL    HW223959   3.571  10.779   7.897
 7374SOL     OW23960   6.556   2.069   3.145
 7374SOL    HW123961   6.631   2.052   3.088
 7374SOL    HW223962   6.583   2.143   3.199
 7375SOL     OW23963  14.289   2.876  13.517
 7375SOL    HW123964  14.222   2.848  13.455
 7375SOL    HW223965  14.260   2.839  13.601
 7376SOL     OW23966  10.281   9.216  13.395
 7376SOL    HW123967  10.249   9.219  13.305
 7376SOL    HW223968  10.216   9.163  13.441
 7377SOL     OW23969   4.254   6.640   3.257
 7377SOL    HW123970   4.180   6.626   3.316
 7377SOL    HW223971   4.233   6.722   3.212
 7378SOL     OW23972  12.983   4.025   5.117
 7378SOL    HW123973  13.043   3.965   5.075
 7378SOL    HW223974  12.927   4.057   5.046
 7379SOL     OW23975  10.328  14.677   0.080
 7379SOL    HW123976  10.258  14.698   0.142
 7379SOL    HW223977  10.403  14.729   0.109
 7380SOL     OW23978   7.028   7.177   9.365
 7380SOL    HW123979   6.957   7.228   9.327
 7380SOL    HW223980   7.104   7.199   9.311
 7381SOL     OW23981   9.585   1.641  11.357
 7381SOL    HW123982   9.589   1.616  11.265
 7381SOL    HW223983   9.669   1.683  11.374
 7382SOL     OW23984  11.200   5.790   3.458
 7382SOL    HW123985  11.245   5.858   3.408
 7382SOL    HW223986  11.117   5.778   3.412
 7383SOL     OW23987   0.614   1.239   1.342
 7383SOL    HW123988   0.611   1.222   1.248
 7383SOL    HW223989   0.573   1.163   1.382
 7384SOL     OW23990   9.432   3.829   2.266
 7384SOL    HW123991   9.513   3.790   2.233
 7384SOL    HW223992   9.377   3.754   2.289
 7385SOL     OW23993   5.138  13.638   3.045
 7385SOL    HW123994   5.058  13.623   2.995
 7385SOL    HW223995   5.162  13.552   3.079
 7386SOL     OW23996  11.966  11.216   1.474
 7386SOL    HW123997  11.895  11.259   1.524
 7386SOL    HW223998  12.025  11.288   1.451
 7387SOL     OW23999   2.405  11.419   7.924
 7387SOL    HW124000   2.435  11.365   7.851
 7387SOL    HW224001   2.482  11.471   7.948
 7388SOL     OW24002   4.885   5.357  13.557
 7388SOL    HW124003   4.892   5.271  13.597
 7388SOL    HW224004   4.796   5.386  13.577
 7389SOL     OW24005   5.865   0.570   7.263
 7389SOL    HW124006   5.852   0.621   7.343
 7389SOL    HW224007   5.918   0.626   7.206
 7390SOL     OW24008  14.431   3.053  12.208
 7390SOL    HW124009  14.360   2.991  12.227
 7390SOL    HW224010  14.500   2.999  12.170
 7391SOL     OW24011  11.155  10.598   2.412
 7391SOL    HW124012  11.193  10.586   2.325
 7391SOL    HW224013  11.061  10.609   2.397
 7392SOL     OW24014   1.707  10.848   4.944
 7392SOL    HW124015   1.692  10.770   4.998
 7392SOL    HW224016   1.630  10.853   4.888
 7393SOL     OW24017  11.702  11.273   1.268
 7393SOL    HW124018  11.766  11.207   1.243
 7393SOL    HW224019  11.619  11.226   1.273
 7394SOL     OW24020   7.236   1.055   9.665
 7394SOL    HW124021   7.300   1.053   9.736
 7394SOL    HW224022   7.260   0.982   9.608
 7395SOL     OW24023   7.882   8.042   2.097
 7395SOL    HW124024   7.878   7.978   2.168
 7395SOL    HW224025   7.821   8.111   2.124
 7396SOL     OW24026   8.739  13.397  12.877
 7396SOL    HW124027   8.647  13.420  12.892
 7396SOL    HW224028   8.785  13.481  12.882
 7397SOL     OW24029   5.795   9.362   5.270
 7397SOL    HW124030   5.725   9.311   5.311
 7397SOL    HW224031   5.859   9.375   5.339
 7398SOL     OW24032   2.790   3.932   0.102
 7398SOL    HW124033   2.820   4.008   0.053
 7398SOL    HW224034   2.730   3.968   0.168
 7399SOL     OW24035  13.978   3.288   1.843
 7399SOL    HW124036  13.973   3.283   1.748
 7399SOL    HW224037  13.989   3.197   1.871
 7400SOL     OW24038  13.954   8.409   9.256
 7400SOL    HW124039  13.931   8.330   9.305
 7400SOL    HW224040  14.028   8.447   9.304
 7401SOL     OW24041   8.812   2.271   7.546
 7401SOL    HW124042   8.726   2.228   7.544
 7401SOL    HW224043   8.804   2.343   7.484
 7402SOL     OW24044  11.090   8.797   7.596
 7402SOL    HW124045  11.084   8.807   7.691
 7402SOL    HW224046  11.015   8.742   7.573
 7403SOL     OW24047   1.723   3.538   9.254
 7403SOL    HW124048   1.632   3.524   9.283
 7403SOL    HW224049   1.723   3.624   9.214
 7404SOL     OW24050   2.935   6.608   9.662
 7404SOL    HW124051   2.971   6.519   9.660
 7404SOL    HW224052   3.007   6.663   9.691
 7405SOL     OW24053  10.980   1.705   1.940
 7405SOL    HW124054  10.920   1.679   2.010
 7405SOL    HW224055  11.005   1.795   1.964
 7406SOL     OW24056  12.210   4.521   3.246
 7406SOL    HW124057  12.175   4.582   3.181
 7406SOL    HW224058  12.160   4.539   3.326
 7407SOL     OW24059  12.547  14.462   9.712
 7407SOL    HW124060  12.583  14.432   9.796
 7407SOL    HW224061  12.527  14.382   9.664
 7408SOL     OW24062   4.308  11.479  12.492
 7408SOL    HW124063   4.379  11.415  12.492
 7408SOL    HW224064   4.304  11.509  12.583
 7409SOL     OW24065   4.749   2.282  13.050
 7409SOL    HW124066   4.781   2.239  12.971
 7409SOL    HW224067   4.690   2.218  13.089
 7410SOL     OW24068   2.431   9.473   8.041
 7410SOL    HW124069   2.462   9.475   8.132
 7410SOL    HW224070   2.346   9.429   8.046
 7411SOL     OW24071   4.686   0.553   2.975
 7411SOL    HW124072   4.657   0.462   2.973
 7411SOL    HW224073   4.755   0.557   2.908
 7412SOL     OW24074   3.777   4.995   1.938
 7412SOL    HW124075   3.834   4.951   1.875
 7412SOL    HW224076   3.702   4.937   1.947
 7413SOL     OW24077   5.804  11.244   1.244
 7413SOL    HW124078   5.835  11.178   1.307
 7413SOL    HW224079   5.865  11.317   1.254
 7414SOL     OW24080   2.376   8.921   8.770
 7414SOL    HW124081   2.368   8.834   8.808
 7414SOL    HW224082   2.324   8.977   8.827
 7415SOL     OW24083  12.262  14.668   6.523
 7415SOL    HW124084  12.227  14.756   6.536
 7415SOL    HW224085  12.357  14.680   6.525
 7416SOL     OW24086   4.887   3.647   2.718
 7416SOL    HW124087   4.809   3.622   2.669
 7416SOL    HW224088   4.902   3.739   2.695
 7417SOL     OW24089  14.219   6.364  13.210
 7417SOL    HW124090  14.147   6.303  13.227
 7417SOL    HW224091  14.267   6.368  13.292
 7418SOL     OW24092   5.349  12.156   1.761
 7418SOL    HW124093   5.389  12.228   1.808
 7418SOL    HW224094   5.380  12.077   1.806
 7419SOL     OW24095   9.290   2.794  10.973
 7419SOL    HW124096   9.360   2.801  11.038
 7419SOL    HW224097   9.214   2.764  11.022
 7420SOL     OW24098   1.856   4.822  10.135
 7420SOL    HW124099   1.940   4.781  10.114
 7420SOL    HW224100   1.793   4.751  10.130
 7421SOL     OW24101   3.143   0.287   0.957
 7421SOL    HW124102   3.202   0.282   1.031
 7421SOL    HW224103   3.061   0.249   0.989
 7422SOL     OW24104   7.715   0.506   5.519
 7422SOL    HW124105   7.783   0.441   5.538
 7422SOL    HW224106   7.651   0.495   5.590
 7423SOL     OW24107   3.229   1.940  10.107
 7423SOL    HW124108   3.266   1.885  10.038
 7423SOL    HW224109   3.288   1.929  10.181
 7424SOL     OW24110   1.298  13.211   4.548
 7424SOL    HW124111   1.266  13.124   4.573
 7424SOL    HW224112   1.248  13.271   4.604
 7425SOL     OW24113   2.947  14.109   2.456
 7425SOL    HW124114   3.042  14.108   2.444
 7425SOL    HW224115   2.916  14.033   2.405
 7426SOL     OW24116  11.187   1.991   9.873
 7426SOL    HW124117  11.140   1.922   9.827
 7426SOL    HW224118  11.168   1.975   9.966
 7427SOL     OW24119  13.640   9.561   9.122
 7427SOL    HW124120  13.700   9.635   9.120
 7427SOL    HW224121  13.649   9.520   9.035
 7428SOL     OW24122  12.960   6.405   7.048
 7428SOL    HW124123  13.034   6.349   7.026
 7428SOL    HW224124  12.994   6.494   7.039
 7429SOL     OW24125   2.219  11.506  13.550
 7429SOL    HW124126   2.192  11.433  13.494
 7429SOL    HW224127   2.218  11.470  13.639
 7430SOL     OW24128  12.731   1.344  14.292
 7430SOL    HW124129  12.686   1.264  14.318
 7430SOL    HW224130  12.748   1.333  14.198
 7431SOL     OW24131   0.756   7.049   0.329
 7431SOL    HW124132   0.788   7.105   0.258
 7431SOL    HW224133   0.829   7.046   0.391
 7432SOL     OW24134   8.696  12.792  11.741
 7432SOL    HW124135   8.697  12.699  11.717
 7432SOL    HW224136   8.781  12.807  11.782
 7433SOL     OW24137  11.443   6.133   7.181
 7433SOL    HW124138  11.520   6.124   7.126
 7433SOL    HW224139  11.417   6.043   7.202
 7434SOL     OW24140   9.391  14.191   1.570
 7434SOL    HW124141   9.332  14.263   1.549
 7434SOL    HW224142   9.345  14.112   1.542
 7435SOL     OW24143   1.462  14.542  10.872
 7435SOL    HW124144   1.432  14.461  10.912
 7435SOL    HW224145   1.457  14.526  10.778
 7436SOL     OW24146   4.137   4.940  10.174
 7436SOL    HW124147   4.091   5.024  10.181
 7436SOL    HW224148   4.084   4.888  10.115
 7437SOL     OW24149  11.869   8.357  12.693
 7437SOL    HW124150  11.890   8.448  12.672
 7437SOL    HW224151  11.927   8.305  12.638
 7438SOL     OW24152   2.257  10.446  14.581
 7438SOL    HW124153   2.242  10.498  14.659
 7438SOL    HW224154   2.330  10.490  14.537
 7439SOL     OW24155  10.333   3.508   8.224
 7439SOL    HW124156  10.283   3.540   8.299
 7439SOL    HW224157  10.386   3.437   8.259
 7440SOL     OW24158  10.319   7.119   0.370
 7440SOL    HW124159  10.290   7.195   0.421
 7440SOL    HW224160  10.238   7.083   0.333
 7441SOL     OW24161  10.570  10.785  14.419
 7441SOL    HW124162  10.525  10.866  14.445
 7441SOL    HW224163  10.661  10.810  14.407
 7442SOL     OW24164   3.101   3.581   8.913
 7442SOL    HW124165   3.095   3.544   8.825
 7442SOL    HW224166   3.162   3.654   8.903
 7443SOL     OW24167   0.706  13.035   9.328
 7443SOL    HW124168   0.723  12.955   9.279
 7443SOL    HW224169   0.632  13.013   9.385
 7444SOL     OW24170  14.701   8.767   5.928
 7444SOL    HW124171  14.755   8.759   5.849
 7444SOL    HW224172  14.699   8.678   5.964
 7445SOL     OW24173   7.806   9.438   8.745
 7445SOL    HW124174   7.860   9.458   8.821
 7445SOL    HW224175   7.807   9.343   8.739
 7446SOL     OW24176   7.589   6.393   5.814
 7446SOL    HW124177   7.575   6.387   5.908
 7446SOL    HW224178   7.515   6.346   5.776
 7447SOL     OW24179   0.329   4.986  11.713
 7447SOL    HW124180   0.390   4.961  11.783
 7447SOL    HW224181   0.348   4.924  11.643
 7448SOL     OW24182   0.996  12.466   9.842
 7448SOL    HW124183   0.968  12.475   9.751
 7448SOL    HW224184   1.086  12.435   9.836
 7449SOL     OW24185  14.761   6.922   3.000
 7449SOL    HW124186  14.827   6.960   3.058
 7449SOL    HW224187  14.810   6.857   2.948
 7450SOL     OW24188  11.719  11.342  10.880
 7450SOL    HW124189  11.682  11.267  10.833
 7450SOL    HW224190  11.807  11.353  10.843
 7451SOL     OW24191   1.999   0.405  12.998
 7451SOL    HW124192   1.950   0.425  12.919
 7451SOL    HW224193   2.066   0.473  13.003
 7452SOL     OW24194   8.603   3.175   2.648
 7452SOL    HW124195   8.599   3.080   2.648
 7452SOL    HW224196   8.595   3.199   2.556
 7453SOL     OW24197   8.719   7.879  14.554
 7453SOL    HW124198   8.635   7.904  14.518
 7453SOL    HW224199   8.771   7.960  14.554
 7454SOL     OW24200  11.563   3.856   0.610
 7454SOL    HW124201  11.527   3.838   0.697
 7454SOL    HW224202  11.585   3.771   0.574
 7455SOL     OW24203  10.274  13.136   9.432
 7455SOL    HW124204  10.263  13.231   9.441
 7455SOL    HW224205  10.364  13.125   9.401
 7456SOL     OW24206   5.590   3.638  10.740
 7456SOL    HW124207   5.661   3.608  10.683
 7456SOL    HW224208   5.551   3.558  10.774
 7457SOL     OW24209   4.615   4.080   2.436
 7457SOL    HW124210   4.653   3.993   2.450
 7457SOL    HW224211   4.642   4.131   2.513
 7458SOL     OW24212   1.096  12.979  10.676
 7458SOL    HW124213   1.165  13.024  10.628
 7458SOL    HW224214   1.015  13.009  10.636
 7459SOL     OW24215  10.232   6.970   1.054
 7459SOL    HW124216  10.279   6.943   1.133
 7459SOL    HW224217  10.265   7.058   1.035
 7460SOL     OW24218   6.966  10.675  10.243
 7460SOL    HW124219   6.883  10.689  10.289
 7460SOL    HW224220   7.015  10.755  10.257
 7461SOL     OW24221  11.343   2.235  14.590
 7461SOL    HW124222  11.342   2.156  14.644
 7461SOL    HW224223  11.252   2.247  14.564
 7462SOL     OW24224   9.007  11.371  10.242
 7462SOL    HW124225   9.032  11.282  10.265
 7462SOL    HW224226   9.080  11.426  10.274
 7463SOL     OW24227  12.538  13.780   3.866
 7463SOL    HW124228  12.569  13.865   3.899
 7463SOL    HW224229  12.467  13.803   3.805
 7464SOL     OW24230   9.305  12.031   4.722
 7464SOL    HW124231   9.231  11.977   4.748
 7464SOL    HW224232   9.308  12.101   4.787
 7465SOL     OW24233   1.680   6.552   9.878
 7465SOL    HW124234   1.589   6.561   9.849
 7465SOL    HW224235   1.686   6.463   9.912
 7466SOL     OW24236   3.881   3.275   7.250
 7466SOL    HW124237   3.881   3.365   7.285
 7466SOL    HW224238   3.972   3.259   7.225
 7467SOL     OW24239   5.885  13.912   0.704
 7467SOL    HW124240   5.845  13.936   0.787
 7467SOL    HW224241   5.870  13.817   0.696
 7468SOL     OW24242  13.217   6.855   5.103
 7468SOL    HW124243  13.226   6.933   5.158
 7468SOL    HW224244  13.129   6.823   5.121
 7469SOL     OW24245  13.485  14.019   4.304
 7469SOL    HW124246  13.534  13.975   4.234
 7469SOL    HW224247  13.394  13.993   4.289
 7470SOL     OW24248   1.577   2.872   1.043
 7470SOL    HW124249   1.631   2.917   0.978
 7470SOL    HW224250   1.520   2.941   1.078
 7471SOL     OW24251   2.545   4.121  14.857
 7471SOL    HW124252   2.641   4.127  14.857
 7471SOL    HW224253   2.516   4.207  14.825
 7472SOL     OW24254   4.469  14.650   2.558
 7472SOL    HW124255   4.374  14.645   2.571
 7472SOL    HW224256   4.485  14.741   2.535
 7473SOL     OW24257  14.666  12.233   1.796
 7473SOL    HW124258  14.694  12.325   1.802
 7473SOL    HW224259  14.608  12.231   1.720
 7474SOL     OW24260  12.979   0.186   8.198
 7474SOL    HW124261  13.029   0.267   8.209
 7474SOL    HW224262  12.887   0.213   8.202
 7475SOL     OW24263   0.220   5.423   3.135
 7475SOL    HW124264   0.168   5.482   3.189
 7475SOL    HW224265   0.173   5.340   3.138
 7476SOL     OW24266   6.422   6.443   5.069
 7476SOL    HW124267   6.461   6.376   5.124
 7476SOL    HW224268   6.495   6.480   5.019
 7477SOL     OW24269  13.901   0.220  11.366
 7477SOL    HW124270  13.973   0.175  11.412
 7477SOL    HW224271  13.941   0.300  11.332
 7478SOL     OW24272   7.704   4.211   1.708
 7478SOL    HW124273   7.755   4.173   1.779
 7478SOL    HW224274   7.714   4.149   1.636
 7479SOL     OW24275   2.256   0.511   0.600
 7479SOL    HW124276   2.348   0.535   0.607
 7479SOL    HW224277   2.240   0.506   0.505
 7480SOL     OW24278  10.940  11.009  10.435
 7480SOL    HW124279  10.899  10.922  10.428
 7480SOL    HW224280  10.991  11.017  10.354
 7481SOL     OW24281   7.060  10.066   3.514
 7481SOL    HW124282   7.101  10.050   3.599
 7481SOL    HW224283   7.133  10.067   3.452
 7482SOL     OW24284   9.727  12.549   7.530
 7482SOL    HW124285   9.752  12.616   7.466
 7482SOL    HW224286   9.734  12.593   7.614
 7483SOL     OW24287  11.661   7.845   4.348
 7483SOL    HW124288  11.641   7.934   4.378
 7483SOL    HW224289  11.632   7.844   4.257
 7484SOL     OW24290   4.411   4.209  13.108
 7484SOL    HW124291   4.433   4.296  13.139
 7484SOL    HW224292   4.319   4.216  13.081
 7485SOL     OW24293   2.879   4.431   4.785
 7485SOL    HW124294   2.931   4.449   4.707
 7485SOL    HW224295   2.804   4.491   4.778
 7486SOL     OW24296   4.833   9.580   4.247
 7486SOL    HW124297   4.748   9.622   4.260
 7486SOL    HW224298   4.871   9.576   4.335
 7487SOL     OW24299  11.606  12.820  11.572
 7487SOL    HW124300  11.698  12.845  11.565
 7487SOL    HW224301  11.592  12.756  11.503
 7488SOL     OW24302  10.650  14.568   4.805
 7488SOL    HW124303  10.596  14.492   4.785
 7488SOL    HW224304  10.594  14.644   4.787
 7489SOL     OW24305   9.086   8.758   0.344
 7489SOL    HW124306   9.096   8.750   0.249
 7489SOL    HW224307   8.992   8.748   0.359
 7490SOL     OW24308   8.254   8.503  11.958
 7490SOL    HW124309   8.319   8.557  12.001
 7490SOL    HW224310   8.264   8.416  11.998
 7491SOL     OW24311   9.051   8.776   0.051
 7491SOL    HW124312   9.024   8.867   0.065
 7491SOL    HW224313   9.076   8.773  14.840
 7492SOL     OW24314   3.045  13.444   9.249
 7492SOL    HW124315   3.128  13.461   9.203
 7492SOL    HW224316   3.057  13.485   9.334
 7493SOL     OW24317   5.903   8.740   1.796
 7493SOL    HW124318   5.917   8.799   1.871
 7493SOL    HW224319   5.818   8.699   1.813
 7494SOL     OW24320   7.014   8.700  10.204
 7494SOL    HW124321   7.096   8.654  10.185
 7494SOL    HW224322   7.041   8.782  10.246
 7495SOL     OW24323   4.920   6.529  14.201
 7495SOL    HW124324   4.906   6.622  14.181
 7495SOL    HW224325   4.971   6.530  14.282
 7496SOL     OW24326   3.583   8.472   2.137
 7496SOL    HW124327   3.487   8.465   2.133
 7496SOL    HW224328   3.600   8.565   2.120
 7497SOL     OW24329   7.793   0.590   5.977
 7497SOL    HW124330   7.736   0.566   6.050
 7497SOL    HW224331   7.876   0.615   6.018
 7498SOL     OW24332   6.468  14.367  10.253
 7498SOL    HW124333   6.426  14.284  10.231
 7498SOL    HW224334   6.547  14.341  10.302
 7499SOL     OW24335  13.830   8.781   6.831
 7499SOL    HW124336  13.845   8.875   6.826
 7499SOL    HW224337  13.803   8.756   6.743
 7500SOL     OW24338   1.125   0.959   1.367
 7500SOL    HW124339   1.103   0.922   1.281
 7500SOL    HW224340   1.121   1.053   1.354
 7501SOL     OW24341   4.521   2.716  10.816
 7501SOL    HW124342   4.438   2.741  10.855
 7501SOL    HW224343   4.510   2.735  10.723
 7502SOL     OW24344   8.027   0.463  10.270
 7502SOL    HW124345   7.961   0.532  10.273
 7502SOL    HW224346   8.102   0.502  10.226
 7503SOL     OW24347  11.678   3.019   7.483
 7503SOL    HW124348  11.721   2.950   7.432
 7503SOL    HW224349  11.671   2.982   7.571
 7504SOL     OW24350   9.503   3.453   6.884
 7504SOL    HW124351   9.496   3.431   6.791
 7504SOL    HW224352   9.506   3.549   6.886
 7505SOL     OW24353  13.983  12.183   0.154
 7505SOL    HW124354  13.952  12.257   0.101
 7505SOL    HW224355  13.985  12.218   0.243
 7506SOL     OW24356  10.242  12.574  10.013
 7506SOL    HW124357  10.199  12.534  10.089
 7506SOL    HW224358  10.191  12.653   9.995
 7507SOL     OW24359   1.174   2.731   7.541
 7507SOL    HW124360   1.100   2.786   7.514
 7507SOL    HW224361   1.165   2.724   7.636
 7508SOL     OW24362   5.664   1.247   4.720
 7508SOL    HW124363   5.634   1.188   4.789
 7508SOL    HW224364   5.679   1.330   4.764
 7509SOL     OW24365   4.150   3.001  12.269
 7509SOL    HW124366   4.174   2.962  12.185
 7509SOL    HW224367   4.207   2.958  12.333
 7510SOL     OW24368  13.847   4.175  11.847
 7510SOL    HW124369  13.811   4.215  11.927
 7510SOL    HW224370  13.927   4.133  11.876
 7511SOL     OW24371   0.744   2.943   8.021
 7511SOL    HW124372   0.684   2.875   8.051
 7511SOL    HW224373   0.757   2.926   7.928
 7512SOL     OW24374   5.133  13.719   6.977
 7512SOL    HW124375   5.152  13.634   7.017
 7512SOL    HW224376   5.216  13.766   6.981
 7513SOL     OW24377  13.423   4.000   9.971
 7513SOL    HW124378  13.383   3.985   9.886
 7513SOL    HW224379  13.394   4.088   9.996
 7514SOL     OW24380  11.436   8.210  11.605
 7514SOL    HW124381  11.445   8.186  11.513
 7514SOL    HW224382  11.512   8.172  11.648
 7515SOL     OW24383  10.461  10.143  13.157
 7515SOL    HW124384  10.474  10.237  13.167
 7515SOL    HW224385  10.522  10.103  13.218
 7516SOL     OW24386  12.207   3.529   5.054
 7516SOL    HW124387  12.271   3.467   5.089
 7516SOL    HW224388  12.123   3.499   5.090
 7517SOL     OW24389  13.276   2.989  11.260
 7517SOL    HW124390  13.220   3.063  11.284
 7517SOL    HW224391  13.310   2.957  11.343
 7518SOL     OW24392   1.132   8.899  14.036
 7518SOL    HW124393   1.113   8.813  13.999
 7518SOL    HW224394   1.047   8.943  14.040
 7519SOL     OW24395  13.086   1.476   7.795
 7519SOL    HW124396  13.058   1.459   7.884
 7519SOL    HW224397  13.128   1.563   7.799
 7520SOL     OW24398   9.838  13.345   1.932
 7520SOL    HW124399   9.889  13.268   1.956
 7520SOL    HW224400   9.902  13.406   1.897
 7521SOL     OW24401  11.568  13.874   5.456
 7521SOL    HW124402  11.577  13.846   5.365
 7521SOL    HW224403  11.480  13.911   5.462
 7522SOL     OW24404  10.588   6.023   0.444
 7522SOL    HW124405  10.496   6.010   0.464
 7522SOL    HW224406  10.603   6.117   0.457
 7523SOL     OW24407   7.464   4.573   7.961
 7523SOL    HW124408   7.430   4.563   8.050
 7523SOL    HW224409   7.547   4.524   7.961
 7524SOL     OW24410  14.755   7.079   5.021
 7524SOL    HW124411  14.812   7.106   5.092
 7524SOL    HW224412  14.672   7.059   5.063
 7525SOL     OW24413  13.282   5.883   9.972
 7525SOL    HW124414  13.216   5.945  10.003
 7525SOL    HW224415  13.354   5.890  10.035
 7526SOL     OW24416   8.372   3.987  14.364
 7526SOL    HW124417   8.435   3.946  14.423
 7526SOL    HW224418   8.365   4.077  14.396
 7527SOL     OW24419   2.128  11.139   9.830
 7527SOL    HW124420   2.200  11.096   9.785
 7527SOL    HW224421   2.069  11.167   9.759
 7528SOL     OW24422  10.533   1.817  11.386
 7528SOL    HW124423  10.539   1.909  11.360
 7528SOL    HW224424  10.619   1.781  11.364
 7529SOL     OW24425  13.919   4.792  11.918
 7529SOL    HW124426  13.861   4.867  11.912
 7529SOL    HW224427  14.005   4.825  11.891
 7530SOL     OW24428   8.074   5.790   2.612
 7530SOL    HW124429   8.044   5.813   2.700
 7530SOL    HW224430   8.002   5.740   2.574
 7531SOL     OW24431   6.293   8.507   8.456
 7531SOL    HW124432   6.313   8.535   8.545
 7531SOL    HW224433   6.359   8.441   8.436
 7532SOL     OW24434   9.488   6.923   0.567
 7532SOL    HW124435   9.553   6.853   0.562
 7532SOL    HW224436   9.538   7.001   0.588
 7533SOL     OW24437  13.756  14.773   1.146
 7533SOL    HW124438  13.738  14.745   1.056
 7533SOL    HW224439  13.827  14.836   1.138
 7534SOL     OW24440   2.678  11.970  11.608
 7534SOL    HW124441   2.591  11.952  11.643
 7534SOL    HW224442   2.713  11.884  11.584
 7535SOL     OW24443   4.448   5.749   1.379
 7535SOL    HW124444   4.469   5.775   1.289
 7535SOL    HW224445   4.402   5.825   1.415
 7536SOL     OW24446   5.108   9.942   3.258
 7536SOL    HW124447   5.042   9.933   3.189
 7536SOL    HW224448   5.144   9.854   3.269
 7537SOL     OW24449  10.057   4.532   9.870
 7537SOL    HW124450   9.976   4.584   9.864
 7537SOL    HW224451  10.032   4.455   9.921
 7538SOL     OW24452  10.722  10.136  12.819
 7538SOL    HW124453  10.714  10.212  12.877
 7538SOL    HW224454  10.679  10.163  12.738
 7539SOL     OW24455  10.301   6.846  14.658
 7539SOL    HW124456  10.338   6.929  14.626
 7539SOL    HW224457  10.249   6.813  14.585
 7540SOL     OW24458   6.722  13.703  12.942
 7540SOL    HW124459   6.746  13.631  13.001
 7540SOL    HW224460   6.630  13.688  12.921
 7541SOL     OW24461   8.929  10.102  11.674
 7541SOL    HW124462   9.010  10.132  11.714
 7541SOL    HW224463   8.873  10.180  11.671
 7542SOL     OW24464   2.871  13.847   5.021
 7542SOL    HW124465   2.842  13.758   5.000
 7542SOL    HW224466   2.828  13.902   4.955
 7543SOL     OW24467  11.167   8.091   5.626
 7543SOL    HW124468  11.097   8.027   5.623
 7543SOL    HW224469  11.174   8.123   5.536
 7544SOL     OW24470   6.394  13.954   7.653
 7544SOL    HW124471   6.423  13.974   7.563
 7544SOL    HW224472   6.421  14.030   7.704
 7545SOL     OW24473   4.350   9.331   7.583
 7545SOL    HW124474   4.298   9.313   7.660
 7545SOL    HW224475   4.436   9.294   7.602
 7546SOL     OW24476   8.666   5.293  12.965
 7546SOL    HW124477   8.688   5.206  12.931
 7546SOL    HW224478   8.749   5.339  12.969
 7547SOL     OW24479   2.427  14.285   8.494
 7547SOL    HW124480   2.489  14.252   8.430
 7547SOL    HW224481   2.453  14.244   8.576
 7548SOL     OW24482   6.259   2.420   6.469
 7548SOL    HW124483   6.232   2.352   6.531
 7548SOL    HW224484   6.354   2.420   6.473
 7549SOL     OW24485   3.334  11.924   4.068
 7549SOL    HW124486   3.356  11.832   4.054
 7549SOL    HW224487   3.404  11.957   4.125
 7550SOL     OW24488   9.404  10.523  12.080
 7550SOL    HW124489   9.448  10.477  12.008
 7550SOL    HW224490   9.379  10.454  12.141
 7551SOL     OW24491   9.725   8.550   5.365
 7551SOL    HW124492   9.715   8.505   5.449
 7551SOL    HW224493   9.741   8.480   5.301
 7552SOL     OW24494   3.939   2.639   3.840
 7552SOL    HW124495   4.008   2.611   3.900
 7552SOL    HW224496   3.960   2.729   3.819
 7553SOL     OW24497   9.488   1.995  14.363
 7553SOL    HW124498   9.429   1.919  14.365
 7553SOL    HW224499   9.492   2.019  14.270
 7554SOL     OW24500  14.550   3.723  10.344
 7554SOL    HW124501  14.550   3.818  10.353
 7554SOL    HW224502  14.535   3.708  10.250
 7555SOL     OW24503   4.866   0.413   0.252
 7555SOL    HW124504   4.816   0.423   0.334
 7555SOL    HW224505   4.930   0.344   0.272
 7556SOL     OW24506   6.227   8.344   9.959
 7556SOL    HW124507   6.170   8.381   9.891
 7556SOL    HW224508   6.209   8.397  10.037
 7557SOL     OW24509   7.042   0.906   4.028
 7557SOL    HW124510   7.033   0.940   3.939
 7557SOL    HW224511   7.036   0.984   4.084
 7558SOL     OW24512   4.771   8.767   9.295
 7558SOL    HW124513   4.866   8.763   9.303
 7558SOL    HW224514   4.745   8.678   9.272
 7559SOL     OW24515   0.811   4.926  11.492
 7559SOL    HW124516   0.745   4.993  11.477
 7559SOL    HW224517   0.893   4.975  11.503
 7560SOL     OW24518   5.042   9.838   2.744
 7560SOL    HW124519   5.050   9.865   2.653
 7560SOL    HW224520   4.997   9.754   2.740
 7561SOL     OW24521   7.071  12.891   5.360
 7561SOL    HW124522   7.126  12.819   5.330
 7561SOL    HW224523   7.109  12.969   5.320
 7562SOL     OW24524   3.050   5.585   7.636
 7562SOL    HW124525   3.050   5.642   7.559
 7562SOL    HW224526   2.957   5.566   7.652
 7563SOL     OW24527   6.918   9.662   9.875
 7563SOL    HW124528   6.947   9.739   9.924
 7563SOL    HW224529   6.830   9.683   9.844
 7564SOL     OW24530  10.110   1.756  11.461
 7564SOL    HW124531  10.191   1.710  11.439
 7564SOL    HW224532  10.071   1.705  11.532
 7565SOL     OW24533   1.547   6.712   7.519
 7565SOL    HW124534   1.474   6.652   7.534
 7565SOL    HW224535   1.602   6.667   7.456
 7566SOL     OW24536   7.333  14.167  12.407
 7566SOL    HW124537   7.366  14.087  12.364
 7566SOL    HW224538   7.263  14.198  12.350
 7567SOL     OW24539   7.235  14.602  13.841
 7567SOL    HW124540   7.245  14.631  13.750
 7567SOL    HW224541   7.241  14.507  13.837
 7568SOL     OW24542   7.706   7.210   8.839
 7568SOL    HW124543   7.762   7.133   8.847
 7568SOL    HW224544   7.729   7.248   8.754
 7569SOL     OW24545  10.956   8.062   0.982
 7569SOL    HW124546  10.894   8.133   1.001
 7569SOL    HW224547  10.947   8.003   1.057
 7570SOL     OW24548   5.248  13.647  12.032
 7570SOL    HW124549   5.312  13.618  11.966
 7570SOL    HW224550   5.166  13.654  11.984
 7571SOL     OW24551  10.794  10.303   3.572
 7571SOL    HW124552  10.890  10.300   3.570
 7571SOL    HW224553  10.774  10.355   3.650
 7572SOL     OW24554   0.253   7.632  11.454
 7572SOL    HW124555   0.347   7.642  11.443
 7572SOL    HW224556   0.225   7.713  11.497
 7573SOL     OW24557   6.961   0.046  10.612
 7573SOL    HW124558   6.968   0.011  10.523
 7573SOL    HW224559   6.889  14.878  10.651
 7574SOL     OW24560   7.582   0.824   0.367
 7574SOL    HW124561   7.551   0.741   0.332
 7574SOL    HW224562   7.670   0.805   0.401
 7575SOL     OW24563  14.468   4.334   5.806
 7575SOL    HW124564  14.477   4.240   5.821
 7575SOL    HW224565  14.533   4.373   5.865
 7576SOL     OW24566  14.667   5.055  10.425
 7576SOL    HW124567  14.693   5.139  10.389
 7576SOL    HW224568  14.606   5.018  10.361
 7577SOL     OW24569  10.636   8.915   8.653
 7577SOL    HW124570  10.613   8.905   8.745
 7577SOL    HW224571  10.602   9.001   8.629
 7578SOL     OW24572   8.541  13.662   0.737
 7578SOL    HW124573   8.576  13.622   0.657
 7578SOL    HW224574   8.582  13.748   0.741
 7579SOL     OW24575  11.098   0.204   8.410
 7579SOL    HW124576  11.078   0.269   8.343
 7579SOL    HW224577  11.012   0.178   8.444
 7580SOL     OW24578  14.792  13.965  11.847
 7580SOL    HW124579  14.773  13.876  11.875
 7580SOL    HW224580  14.739  13.979  11.769
 7581SOL     OW24581   0.669   4.391  10.866
 7581SOL    HW124582   0.689   4.374  10.773
 7581SOL    HW224583   0.583   4.433  10.865
 7582SOL     OW24584   9.551   8.617  12.910
 7582SOL    HW124585   9.548   8.605  12.815
 7582SOL    HW224586   9.508   8.539  12.945
 7583SOL     OW24587   2.181   4.273   6.122
 7583SOL    HW124588   2.209   4.303   6.036
 7583SOL    HW224589   2.150   4.183   6.107
 7584SOL     OW24590   2.992   4.787   5.809
 7584SOL    HW124591   3.042   4.788   5.891
 7584SOL    HW224592   2.953   4.875   5.805
 7585SOL     OW24593   2.609   6.756   0.324
 7585SOL    HW124594   2.637   6.831   0.377
 7585SOL    HW224595   2.645   6.680   0.369
 7586SOL     OW24596   4.507  13.322   4.137
 7586SOL    HW124597   4.455  13.281   4.206
 7586SOL    HW224598   4.478  13.413   4.137
 7587SOL     OW24599   8.140   1.537   9.086
 7587SOL    HW124600   8.088   1.487   9.023
 7587SOL    HW224601   8.077   1.594   9.129
 7588SOL     OW24602   6.051   5.336   2.255
 7588SOL    HW124603   6.113   5.263   2.250
 7588SOL    HW224604   5.982   5.312   2.193
 7589SOL     OW24605  11.688   1.813  12.394
 7589SOL    HW124606  11.762   1.873  12.404
 7589SOL    HW224607  11.612   1.869  12.383
 7590SOL     OW24608   5.456   2.370   0.873
 7590SOL    HW124609   5.390   2.360   0.941
 7590SOL    HW224610   5.535   2.399   0.919
 7591SOL     OW24611   5.068   7.738  12.130
 7591SOL    HW124612   5.061   7.824  12.171
 7591SOL    HW224613   5.140   7.748  12.067
 7592SOL     OW24614   5.837   6.748  11.611
 7592SOL    HW124615   5.749   6.717  11.631
 7592SOL    HW224616   5.828   6.843  11.607
 7593SOL     OW24617   2.098  14.493  11.450
 7593SOL    HW124618   2.163  14.436  11.491
 7593SOL    HW224619   2.017  14.444  11.453
 7594SOL     OW24620  14.503  13.886   0.244
 7594SOL    HW124621  14.514  13.816   0.308
 7594SOL    HW224622  14.421  13.929   0.270
 7595SOL     OW24623  14.027  13.469   8.800
 7595SOL    HW124624  14.024  13.413   8.878
 7595SOL    HW224625  14.057  13.554   8.833
 7596SOL     OW24626   6.635   5.344   2.189
 7596SOL    HW124627   6.681   5.422   2.157
 7596SOL    HW224628   6.548   5.348   2.148
 7597SOL     OW24629  13.672   0.250  12.788
 7597SOL    HW124630  13.746   0.281  12.736
 7597SOL    HW224631  13.595   0.280  12.740
 7598SOL     OW24632   0.435   7.894  12.565
 7598SOL    HW124633   0.478   7.843  12.496
 7598SOL    HW224634   0.498   7.963  12.587
 7599SOL     OW24635  13.499  10.867   3.855
 7599SOL    HW124636  13.470  10.863   3.764
 7599SOL    HW224637  13.518  10.960   3.870
 7600SOL     OW24638   4.086   9.070   4.788
 7600SOL    HW124639   4.090   8.975   4.778
 7600SOL    HW224640   4.058   9.102   4.702
 7601SOL     OW24641   7.072   2.874   9.249
 7601SOL    HW124642   7.129   2.912   9.315
 7601SOL    HW224643   7.017   2.946   9.220
 7602SOL     OW24644   0.614  11.015   0.303
 7602SOL    HW124645   0.540  10.959   0.279
 7602SOL    HW224646   0.647  11.048   0.220
 7603SOL     OW24647   7.284   3.941   8.017
 7603SOL    HW124648   7.226   3.963   8.090
 7603SOL    HW224649   7.227   3.943   7.940
 7604SOL     OW24650   9.137   0.559  13.817
 7604SOL    HW124651   9.103   0.544  13.905
 7604SOL    HW224652   9.218   0.608  13.831
 7605SOL     OW24653   3.717   3.056  12.034
 7605SOL    HW124654   3.800   3.053  11.987
 7605SOL    HW224655   3.682   3.144  12.017
 7606SOL     OW24656   6.616   5.965  12.116
 7606SOL    HW124657   6.629   5.951  12.209
 7606SOL    HW224658   6.526   5.936  12.099
 7607SOL     OW24659   1.186   9.767   7.522
 7607SOL    HW124660   1.242   9.812   7.585
 7607SOL    HW224661   1.117   9.831   7.502
 7608SOL     OW24662  13.005   7.259  13.947
 7608SOL    HW124663  12.949   7.269  14.024
 7608SOL    HW224664  12.993   7.168  13.920
 7609SOL     OW24665  14.724  13.598   4.393
 7609SOL    HW124666  14.789  13.536   4.425
 7609SOL    HW224667  14.642  13.549   4.394
 7610SOL     OW24668   9.255   7.595   6.931
 7610SOL    HW124669   9.197   7.520   6.918
 7610SOL    HW224670   9.233   7.655   6.860
 7611SOL     OW24671   7.935   1.227   8.065
 7611SOL    HW124672   7.930   1.143   8.020
 7611SOL    HW224673   7.972   1.206   8.151
 7612SOL     OW24674   8.870   0.602   2.984
 7612SOL    HW124675   8.879   0.508   2.998
 7612SOL    HW224676   8.778   0.615   2.960
 7613SOL     OW24677   4.180  12.855   3.709
 7613SOL    HW124678   4.160  12.768   3.674
 7613SOL    HW224679   4.173  12.914   3.633
 7614SOL     OW24680   5.692  14.005  13.760
 7614SOL    HW124681   5.787  14.001  13.751
 7614SOL    HW224682   5.661  13.921  13.725
 7615SOL     OW24683   6.364  11.199  13.804
 7615SOL    HW124684   6.269  11.200  13.792
 7615SOL    HW224685   6.392  11.115  13.767
 7616SOL     OW24686   9.875   4.907   7.407
 7616SOL    HW124687   9.934   4.832   7.410
 7616SOL    HW224688   9.852   4.916   7.314
 7617SOL     OW24689  10.056   6.696   1.820
 7617SOL    HW124690  10.018   6.755   1.884
 7617SOL    HW224691  10.072   6.750   1.743
 7618SOL     OW24692  10.237   1.410   9.256
 7618SOL    HW124693  10.271   1.493   9.224
 7618SOL    HW224694  10.146   1.408   9.227
 7619SOL     OW24695   4.597   5.882  11.185
 7619SOL    HW124696   4.511   5.861  11.220
 7619SOL    HW224697   4.658   5.837  11.244
 7620SOL     OW24698   3.909   1.285  13.219
 7620SOL    HW124699   3.836   1.228  13.198
 7620SOL    HW224700   3.983   1.250  13.169
 7621SOL     OW24701   9.145   6.739  11.254
 7621SOL    HW124702   9.084   6.712  11.186
 7621SOL    HW224703   9.232   6.725  11.216
 7622SOL     OW24704  10.435   8.585   6.477
 7622SOL    HW124705  10.504   8.520   6.491
 7622SOL    HW224706  10.478   8.669   6.494
 7623SOL     OW24707   9.654  10.505   8.159
 7623SOL    HW124708   9.677  10.592   8.127
 7623SOL    HW224709   9.717  10.488   8.229
 7624SOL     OW24710   5.695   0.874  13.774
 7624SOL    HW124711   5.735   0.815  13.710
 7624SOL    HW224712   5.674   0.953  13.723
 7625SOL     OW24713   8.671  10.961   3.487
 7625SOL    HW124714   8.578  10.947   3.505
 7625SOL    HW224715   8.699  11.023   3.555
 7626SOL     OW24716   5.872  12.089   5.067
 7626SOL    HW124717   5.922  12.110   4.988
 7626SOL    HW224718   5.932  12.038   5.121
 7627SOL     OW24719   3.851  10.549  14.612
 7627SOL    HW124720   3.921  10.589  14.664
 7627SOL    HW224721   3.894  10.526  14.529
 7628SOL     OW24722   0.144   6.196   1.046
 7628SOL    HW124723   0.210   6.160   1.106
 7628SOL    HW224724   0.087   6.248   1.103
 7629SOL     OW24725  10.179   8.337   5.204
 7629SOL    HW124726  10.208   8.321   5.114
 7629SOL    HW224727  10.107   8.400   5.195
 7630SOL     OW24728   7.808  13.678   0.505
 7630SOL    HW124729   7.733  13.718   0.460
 7630SOL    HW224730   7.774  13.652   0.591
 7631SOL     OW24731   9.484   9.235   6.297
 7631SOL    HW124732   9.527   9.188   6.369
 7631SOL    HW224733   9.392   9.213   6.305
 7632SOL     OW24734   5.540   6.409  11.096
 7632SOL    HW124735   5.465   6.454  11.058
 7632SOL    HW224736   5.543   6.324  11.052
 7633SOL     OW24737   4.821   7.542  11.532
 7633SOL    HW124738   4.826   7.637  11.518
 7633SOL    HW224739   4.781   7.533  11.619
 7634SOL     OW24740   9.904   1.437   1.711
 7634SOL    HW124741   9.896   1.405   1.621
 7634SOL    HW224742   9.838   1.388   1.759
 7635SOL     OW24743   8.880   2.262   1.962
 7635SOL    HW124744   8.797   2.223   1.935
 7635SOL    HW224745   8.895   2.333   1.900
 7636SOL     OW24746   5.588  11.863   1.672
 7636SOL    HW124747   5.642  11.923   1.620
 7636SOL    HW224748   5.594  11.896   1.761
 7637SOL     OW24749   1.147   7.719  13.034
 7637SOL    HW124750   1.085   7.696  13.103
 7637SOL    HW224751   1.189   7.799  13.065
 7638SOL     OW24752   0.140   4.093  13.783
 7638SOL    HW124753   0.058   4.107  13.829
 7638SOL    HW224754   0.183   4.021  13.830
 7639SOL     OW24755   7.903  11.256   7.642
 7639SOL    HW124756   7.910  11.160   7.641
 7639SOL    HW224757   7.816  11.275   7.609
 7640SOL     OW24758   5.169  11.945   3.336
 7640SOL    HW124759   5.194  11.853   3.325
 7640SOL    HW224760   5.195  11.986   3.253
 7641SOL     OW24761   6.604   3.973  12.685
 7641SOL    HW124762   6.687   3.935  12.656
 7641SOL    HW224763   6.555   3.898  12.720
 7642SOL     OW24764   1.353   1.115  14.508
 7642SOL    HW124765   1.376   1.112  14.416
 7642SOL    HW224766   1.346   1.208  14.529
 7643SOL     OW24767  11.096  13.489   1.257
 7643SOL    HW124768  11.150  13.466   1.181
 7643SOL    HW224769  11.159  13.515   1.325
 7644SOL     OW24770   1.471   0.601   0.599
 7644SOL    HW124771   1.382   0.630   0.618
 7644SOL    HW224772   1.498   0.552   0.677
 7645SOL     OW24773  11.594   4.689   5.133
 7645SOL    HW124774  11.548   4.734   5.204
 7645SOL    HW224775  11.685   4.715   5.143
 7646SOL     OW24776  10.286   5.853   0.043
 7646SOL    HW124777  10.368   5.823   0.003
 7646SOL    HW224778  10.306   5.942   0.073
 7647SOL     OW24779   7.217   6.212  13.701
 7647SOL    HW124780   7.269   6.210  13.621
 7647SOL    HW224781   7.128   6.194  13.672
 7648SOL     OW24782   0.397   6.751  14.064
 7648SOL    HW124783   0.355   6.675  14.105
 7648SOL    HW224784   0.335   6.823  14.077
 7649SOL     OW24785   7.272   3.599  13.759
 7649SOL    HW124786   7.188   3.580  13.717
 7649SOL    HW224787   7.252   3.666  13.825
 7650SOL     OW24788   8.066   5.745   7.499
 7650SOL    HW124789   8.051   5.661   7.543
 7650SOL    HW224790   8.152   5.773   7.529
 7651SOL     OW24791   4.336  13.549   4.290
 7651SOL    HW124792   4.305  13.594   4.212
 7651SOL    HW224793   4.390  13.613   4.335
 7652SOL     OW24794   1.227   9.259   9.482
 7652SOL    HW124795   1.297   9.268   9.546
 7652SOL    HW224796   1.205   9.166   9.482
 7653SOL     OW24797   1.690   6.993   5.840
 7653SOL    HW124798   1.611   6.971   5.889
 7653SOL    HW224799   1.734   6.909   5.826
 7654SOL     OW24800   6.040   1.458   6.141
 7654SOL    HW124801   6.007   1.548   6.133
 7654SOL    HW224802   5.972   1.405   6.099
 7655SOL     OW24803   9.215   4.547   7.637
 7655SOL    HW124804   9.281   4.523   7.702
 7655SOL    HW224805   9.265   4.593   7.569
 7656SOL     OW24806   5.751   0.590  10.309
 7656SOL    HW124807   5.729   0.632  10.226
 7656SOL    HW224808   5.728   0.656  10.375
 7657SOL     OW24809   3.950  10.072  13.013
 7657SOL    HW124810   3.980  10.138  13.075
 7657SOL    HW224811   3.942  10.119  12.930
 7658SOL     OW24812   2.450  14.828  10.264
 7658SOL    HW124813   2.469  14.756  10.323
 7658SOL    HW224814   2.381  14.794  10.207
 7659SOL     OW24815  10.329   7.731  12.636
 7659SOL    HW124816  10.290   7.805  12.590
 7659SOL    HW224817  10.358   7.672  12.566
 7660SOL     OW24818  11.787   6.910  12.741
 7660SOL    HW124819  11.746   6.903  12.655
 7660SOL    HW224820  11.881   6.904  12.724
 7661SOL     OW24821   9.046   2.241  10.976
 7661SOL    HW124822   9.051   2.210  10.885
 7661SOL    HW224823   9.116   2.194  11.021
 7662SOL     OW24824   8.282   9.819  14.591
 7662SOL    HW124825   8.275   9.858  14.679
 7662SOL    HW224826   8.196   9.778  14.577
 7663SOL     OW24827   8.737   3.680  11.264
 7663SOL    HW124828   8.700   3.733  11.193
 7663SOL    HW224829   8.736   3.738  11.340
 7664SOL     OW24830   8.376   3.406   7.371
 7664SOL    HW124831   8.364   3.314   7.347
 7664SOL    HW224832   8.427   3.402   7.453
 7665SOL     OW24833   4.922  13.911   0.068
 7665SOL    HW124834   4.915  13.956   0.152
 7665SOL    HW224835   4.903  13.979   0.003
 7666SOL     OW24836   4.122   8.174   1.430
 7666SOL    HW124837   4.143   8.143   1.343
 7666SOL    HW224838   4.106   8.095   1.482
 7667SOL     OW24839  12.874   0.249  11.400
 7667SOL    HW124840  12.811   0.184  11.370
 7667SOL    HW224841  12.846   0.271  11.489
 7668SOL     OW24842   8.252   8.067  12.697
 7668SOL    HW124843   8.260   8.125  12.772
 7668SOL    HW224844   8.158   8.056  12.685
 7669SOL     OW24845   7.143   4.548   0.242
 7669SOL    HW124846   7.153   4.608   0.168
 7669SOL    HW224847   7.231   4.512   0.254
 7670SOL     OW24848   3.983   4.512   3.068
 7670SOL    HW124849   3.940   4.481   3.148
 7670SOL    HW224850   3.989   4.434   3.012
 7671SOL     OW24851   3.658  11.067   7.414
 7671SOL    HW124852   3.691  11.046   7.502
 7671SOL    HW224853   3.630  11.158   7.420
 7672SOL     OW24854   2.479   9.753   5.058
 7672SOL    HW124855   2.475   9.740   4.963
 7672SOL    HW224856   2.408   9.815   5.076
 7673SOL     OW24857  13.160   8.837   4.485
 7673SOL    HW124858  13.092   8.847   4.418
 7673SOL    HW224859  13.227   8.900   4.461
 7674SOL     OW24860   7.576  13.615   3.233
 7674SOL    HW124861   7.644  13.648   3.175
 7674SOL    HW224862   7.562  13.524   3.205
 7675SOL     OW24863  12.395   5.981   9.158
 7675SOL    HW124864  12.486   6.012   9.153
 7675SOL    HW224865  12.390   5.912   9.092
 7676SOL     OW24866   5.104   9.136   6.578
 7676SOL    HW124867   5.073   9.075   6.645
 7676SOL    HW224868   5.032   9.198   6.568
 7677SOL     OW24869   5.058  13.942   5.860
 7677SOL    HW124870   5.069  13.929   5.954
 7677SOL    HW224871   5.145  13.965   5.828
 7678SOL     OW24872  12.636   5.443   5.805
 7678SOL    HW124873  12.568   5.463   5.740
 7678SOL    HW224874  12.619   5.504   5.877
 7679SOL     OW24875   5.725  12.122   0.588
 7679SOL    HW124876   5.780  12.053   0.552
 7679SOL    HW224877   5.688  12.165   0.511
 7680SOL     OW24878   1.608   2.688  11.232
 7680SOL    HW124879   1.556   2.684  11.313
 7680SOL    HW224880   1.641   2.777  11.229
 7681SOL     OW24881  11.754   6.094   3.395
 7681SOL    HW124882  11.664   6.065   3.408
 7681SOL    HW224883  11.804   6.048   3.463
 7682SOL     OW24884   0.304   1.304  10.755
 7682SOL    HW124885   0.271   1.393  10.750
 7682SOL    HW224886   0.238   1.251  10.711
 7683SOL     OW24887   1.791   4.399   4.693
 7683SOL    HW124888   1.778   4.321   4.747
 7683SOL    HW224889   1.727   4.389   4.622
 7684SOL     OW24890  12.199  12.316   7.253
 7684SOL    HW124891  12.180  12.223   7.269
 7684SOL    HW224892  12.205  12.355   7.340
 7685SOL     OW24893  11.667   7.860  13.024
 7685SOL    HW124894  11.631   7.910  12.951
 7685SOL    HW224895  11.760   7.881  13.025
 7686SOL     OW24896   1.504   5.014  10.707
 7686SOL    HW124897   1.485   5.084  10.770
 7686SOL    HW224898   1.508   5.058  10.622
 7687SOL     OW24899  11.057   7.049   8.498
 7687SOL    HW124900  10.972   7.092   8.486
 7687SOL    HW224901  11.074   7.056   8.592
 7688SOL     OW24902  12.462   3.810   7.528
 7688SOL    HW124903  12.474   3.732   7.473
 7688SOL    HW224904  12.535   3.807   7.590
 7689SOL     OW24905  11.849  14.265   6.268
 7689SOL    HW124906  11.758  14.257   6.237
 7689SOL    HW224907  11.889  14.181   6.245
 7690SOL     OW24908   1.728   8.020   2.386
 7690SOL    HW124909   1.777   7.940   2.364
 7690SOL    HW224910   1.641   8.006   2.348
 7691SOL     OW24911   4.602  13.481  13.484
 7691SOL    HW124912   4.635  13.468  13.395
 7691SOL    HW224913   4.681  13.489  13.538
 7692SOL     OW24914   8.881   0.979  13.885
 7692SOL    HW124915   8.859   0.916  13.816
 7692SOL    HW224916   8.975   0.992  13.878
 7693SOL     OW24917   8.041   2.046  11.483
 7693SOL    HW124918   7.993   2.116  11.438
 7693SOL    HW224919   8.127   2.083  11.500
 7694SOL     OW24920  11.253  11.394   4.007
 7694SOL    HW124921  11.185  11.450   3.971
 7694SOL    HW224922  11.317  11.385   3.935
 7695SOL     OW24923   9.986   2.225   8.033
 7695SOL    HW124924   9.908   2.207   8.085
 7695SOL    HW224925  10.044   2.273   8.092
 7696SOL     OW24926   2.729   8.137   4.511
 7696SOL    HW124927   2.649   8.085   4.507
 7696SOL    HW224928   2.768   8.114   4.595
 7697SOL     OW24929   5.916   3.608   8.447
 7697SOL    HW124930   5.842   3.653   8.407
 7697SOL    HW224931   5.979   3.597   8.376
 7698SOL     OW24932   9.249   2.691  13.858
 7698SOL    HW124933   9.308   2.633  13.906
 7698SOL    HW224934   9.240   2.651  13.772
 7699SOL     OW24935   3.085   3.453   4.029
 7699SOL    HW124936   3.168   3.441   3.983
 7699SOL    HW224937   3.110   3.456   4.122
 7700SOL     OW24938   6.611   8.516  11.930
 7700SOL    HW124939   6.673   8.442  11.933
 7700SOL    HW224940   6.610   8.542  11.838
 7701SOL     OW24941  14.805   6.907   7.752
 7701SOL    HW124942  14.764   6.984   7.713
 7701SOL    HW224943  14.751   6.834   7.724
 7702SOL     OW24944   7.452   0.884   3.658
 7702SOL    HW124945   7.547   0.872   3.667
 7702SOL    HW224946   7.433   0.855   3.569
 7703SOL     OW24947  13.631  10.583   0.597
 7703SOL    HW124948  13.584  10.664   0.613
 7703SOL    HW224949  13.564  10.515   0.596
 7704SOL     OW24950   3.643   8.098   9.803
 7704SOL    HW124951   3.738   8.107   9.800
 7704SOL    HW224952   3.611   8.186   9.824
 7705SOL     OW24953  14.473   6.656   3.011
 7705SOL    HW124954  14.385   6.684   2.985
 7705SOL    HW224955  14.459   6.603   3.090
 7706SOL     OW24956   8.656  13.394   0.636
 7706SOL    HW124957   8.595  13.376   0.565
 7706SOL    HW224958   8.634  13.330   0.703
 7707SOL     OW24959  13.797   8.822   9.694
 7707SOL    HW124960  13.734   8.750   9.679
 7707SOL    HW224961  13.860   8.813   9.622
 7708SOL     OW24962   2.408  14.689   3.525
 7708SOL    HW124963   2.353  14.662   3.599
 7708SOL    HW224964   2.481  14.737   3.566
 7709SOL     OW24965   4.195   6.764   6.298
 7709SOL    HW124966   4.103   6.781   6.317
 7709SOL    HW224967   4.219   6.691   6.355
 7710SOL     OW24968   0.000   6.064   9.591
 7710SOL    HW124969   0.034   6.064   9.501
 7710SOL    HW224970   0.068   6.020   9.642
 7711SOL     OW24971   8.112  12.216   4.734
 7711SOL    HW124972   8.143  12.190   4.647
 7711SOL    HW224973   8.048  12.149   4.758
 7712SOL     OW24974   3.481   7.039  14.188
 7712SOL    HW124975   3.528   7.013  14.267
 7712SOL    HW224976   3.419   6.968  14.172
 7713SOL     OW24977  13.101   6.016   4.711
 7713SOL    HW124978  13.136   6.099   4.679
 7713SOL    HW224979  13.011   6.037   4.739
 7714SOL     OW24980  10.236  10.722   0.611
 7714SOL    HW124981  10.152  10.733   0.657
 7714SOL    HW224982  10.212  10.698   0.522
 7715SOL     OW24983   0.348  10.315   3.992
 7715SOL    HW124984   0.258  10.349   3.992
 7715SOL    HW224985   0.400  10.386   3.954
 7716SOL     OW24986  13.377   5.199   4.120
 7716SOL    HW124987  13.432   5.244   4.056
 7716SOL    HW224988  13.439   5.156   4.180
 7717SOL     OW24989   5.649   3.492  13.288
 7717SOL    HW124990   5.560   3.504  13.322
 7717SOL    HW224991   5.642   3.416  13.230
 7718SOL     OW24992  13.690   8.225   5.225
 7718SOL    HW124993  13.600   8.223   5.255
 7718SOL    HW224994  13.743   8.227   5.305
 7719SOL     OW24995  10.610   6.034   2.549
 7719SOL    HW124996  10.632   6.087   2.472
 7719SOL    HW224997  10.517   6.015   2.539
 7720SOL     OW24998  13.118   9.268  14.427
 7720SOL    HW124999  13.069   9.303  14.353
 7720SOL    HW225000  13.205   9.250  14.393
 7721SOL     OW25001  10.242   3.948   5.530
 7721SOL    HW125002  10.237   3.983   5.619
 7721SOL    HW225003  10.216   4.021   5.473
 7722SOL     OW25004  11.419   8.734  13.523
 7722SOL    HW125005  11.409   8.641  13.545
 7722SOL    HW225006  11.352   8.777  13.576
 7723SOL     OW25007   0.910   9.855   2.189
 7723SOL    HW125008   0.833   9.868   2.134
 7723SOL    HW225009   0.954   9.780   2.149
 7724SOL     OW25010   9.350  13.935  13.687
 7724SOL    HW125011   9.433  13.941  13.639
 7724SOL    HW225012   9.282  13.943  13.620
 7725SOL     OW25013   2.218  14.436  11.128
 7725SOL    HW125014   2.252  14.413  11.041
 7725SOL    HW225015   2.188  14.353  11.164
 7726SOL     OW25016   8.896  13.977   1.498
 7726SOL    HW125017   8.918  13.958   1.589
 7726SOL    HW225018   8.842  14.056   1.502
 7727SOL     OW25019  10.113  13.181   9.928
 7727SOL    HW125020  10.207  13.197   9.919
 7727SOL    HW225021  10.075  13.224   9.851
 7728SOL     OW25022   8.660   8.203   7.529
 7728SOL    HW125023   8.660   8.110   7.506
 7728SOL    HW225024   8.658   8.249   7.445
 7729SOL     OW25025  14.079   4.568   8.354
 7729SOL    HW125026  14.072   4.481   8.315
 7729SOL    HW225027  13.992   4.607   8.340
 7730SOL     OW25028  14.405  10.083  12.721
 7730SOL    HW125029  14.337  10.050  12.780
 7730SOL    HW225030  14.358  10.130  12.653
 7731SOL     OW25031   5.615   0.129  12.430
 7731SOL    HW125032   5.556   0.091  12.496
 7731SOL    HW225033   5.562   0.195  12.386
 7732SOL     OW25034   7.137   4.194  13.294
 7732SOL    HW125035   7.115   4.146  13.214
 7732SOL    HW225036   7.062   4.253  13.308
 7733SOL     OW25037   8.017  10.683   1.261
 7733SOL    HW125038   7.977  10.606   1.301
 7733SOL    HW225039   8.111  10.672   1.277
 7734SOL     OW25040   8.437  14.809   2.281
 7734SOL    HW125041   8.426  14.724   2.324
 7734SOL    HW225042   8.512  14.848   2.326
 7735SOL     OW25043   0.751  12.483   7.948
 7735SOL    HW125044   0.665  12.487   7.991
 7735SOL    HW225045   0.754  12.562   7.895
 7736SOL     OW25046   8.319  14.119   6.750
 7736SOL    HW125047   8.377  14.195   6.748
 7736SOL    HW225048   8.376  14.045   6.730
 7737SOL     OW25049   5.317   5.491  10.268
 7737SOL    HW125050   5.412   5.501  10.274
 7737SOL    HW225051   5.302   5.397  10.266
 7738SOL     OW25052  11.052   0.818   0.031
 7738SOL    HW125053  11.109   0.749   0.065
 7738SOL    HW225054  11.107   0.896   0.032
 7739SOL     OW25055  11.661   5.815  10.118
 7739SOL    HW125056  11.663   5.722  10.141
 7739SOL    HW225057  11.568   5.835  10.107
 7740SOL     OW25058   9.212   5.476   0.344
 7740SOL    HW125059   9.223   5.568   0.323
 7740SOL    HW225060   9.269   5.461   0.419
 7741SOL     OW25061   5.090   7.234   5.622
 7741SOL    HW125062   5.130   7.320   5.634
 7741SOL    HW225063   5.067   7.205   5.711
 7742SOL     OW25064   2.714   7.012   0.483
 7742SOL    HW125065   2.750   7.070   0.416
 7742SOL    HW225066   2.694   7.071   0.557
 7743SOL     OW25067   9.659   6.218   1.760
 7743SOL    HW125068   9.634   6.298   1.806
 7743SOL    HW225069   9.641   6.237   1.668
 7744SOL     OW25070  11.860   2.231   9.474
 7744SOL    HW125071  11.860   2.255   9.566
 7744SOL    HW225072  11.932   2.168   9.466
 7745SOL     OW25073  12.888   5.451   5.940
 7745SOL    HW125074  12.961   5.451   5.878
 7745SOL    HW225075  12.811   5.430   5.887
 7746SOL     OW25076   3.321   0.060   6.870
 7746SOL    HW125077   3.367  14.861   6.889
 7746SOL    HW225078   3.249   0.035   6.811
 7747SOL     OW25079   1.613  10.465   1.454
 7747SOL    HW125080   1.641  10.374   1.440
 7747SOL    HW225081   1.580  10.494   1.369
 7748SOL     OW25082  14.083   4.091   8.168
 7748SOL    HW125083  14.108   4.003   8.139
 7748SOL    HW225084  13.988   4.091   8.167
 7749SOL     OW25085   7.505  14.842   7.653
 7749SOL    HW125086   7.430  14.810   7.604
 7749SOL    HW225087   7.535   0.037   7.603
 7750SOL     OW25088  14.866  14.573   8.544
 7750SOL    HW125089   0.024  14.660   8.537
 7750SOL    HW225090  14.785  14.580   8.494
 7751SOL     OW25091   7.309   7.042  13.741
 7751SOL    HW125092   7.293   7.136  13.736
 7751SOL    HW225093   7.256   7.005  13.670
 7752SOL     OW25094   5.368   1.680   4.219
 7752SOL    HW125095   5.434   1.630   4.171
 7752SOL    HW225096   5.307   1.710   4.152
 7753SOL     OW25097   5.236   7.788   1.045
 7753SOL    HW125098   5.280   7.726   1.104
 7753SOL    HW225099   5.179   7.733   0.991
 7754SOL     OW25100  14.536   5.214   7.131
 7754SOL    HW125101  14.459   5.227   7.187
 7754SOL    HW225102  14.503   5.219   7.042
 7755SOL     OW25103   3.489  10.109   0.353
 7755SOL    HW125104   3.434  10.066   0.287
 7755SOL    HW225105   3.440  10.188   0.377
 7756SOL     OW25106   7.689   6.178   5.627
 7756SOL    HW125107   7.661   6.167   5.718
 7756SOL    HW225108   7.685   6.090   5.590
 7757SOL     OW25109   5.662   6.658   8.341
 7757SOL    HW125110   5.569   6.632   8.342
 7757SOL    HW225111   5.679   6.680   8.249
 7758SOL     OW25112   9.104   9.922   4.330
 7758SOL    HW125113   9.136   9.915   4.420
 7758SOL    HW225114   9.109   9.833   4.296
 7759SOL     OW25115   4.821   9.184   2.315
 7759SOL    HW125116   4.808   9.278   2.301
 7759SOL    HW225117   4.876   9.156   2.241
 7760SOL     OW25118  12.159   0.967  12.222
 7760SOL    HW125119  12.134   0.965  12.129
 7760SOL    HW225120  12.190   1.057  12.236
 7761SOL     OW25121  13.375   6.981  11.699
 7761SOL    HW125122  13.398   6.900  11.654
 7761SOL    HW225123  13.396   7.051  11.636
 7762SOL     OW25124   9.914  14.416   8.368
 7762SOL    HW125125   9.980  14.478   8.398
 7762SOL    HW225126   9.922  14.341   8.427
 7763SOL     OW25127  10.598  11.921  13.722
 7763SOL    HW125128  10.664  11.948  13.658
 7763SOL    HW225129  10.521  11.898  13.669
 7764SOL     OW25130   0.531   3.724   3.638
 7764SOL    HW125131   0.613   3.725   3.688
 7764SOL    HW225132   0.519   3.815   3.610
 7765SOL     OW25133   1.645  13.009   2.141
 7765SOL    HW125134   1.661  13.103   2.144
 7765SOL    HW225135   1.609  12.988   2.227
 7766SOL     OW25136   2.634  12.755  12.883
 7766SOL    HW125137   2.658  12.703  12.807
 7766SOL    HW225138   2.538  12.750  12.887
 7767SOL     OW25139  12.050   9.929   2.337
 7767SOL    HW125140  12.136   9.971   2.345
 7767SOL    HW225141  12.065   9.854   2.280
 7768SOL     OW25142   4.254   3.509  14.743
 7768SOL    HW125143   4.303   3.427  14.730
 7768SOL    HW225144   4.256   3.523  14.837
 7769SOL     OW25145   3.708   6.116   5.660
 7769SOL    HW125146   3.690   6.133   5.567
 7769SOL    HW225147   3.691   6.022   5.671
 7770SOL     OW25148  14.288  12.886  11.203
 7770SOL    HW125149  14.261  12.956  11.263
 7770SOL    HW225150  14.209  12.833  11.192
 7771SOL     OW25151   9.655   7.480  12.938
 7771SOL    HW125152   9.673   7.561  12.889
 7771SOL    HW225153   9.728   7.472  12.999
 7772SOL     OW25154  12.221   6.120  14.248
 7772SOL    HW125155  12.174   6.044  14.282
 7772SOL    HW225156  12.196   6.192  14.307
 7773SOL     OW25157  11.069   4.158   4.421
 7773SOL    HW125158  11.164   4.157   4.430
 7773SOL    HW225159  11.052   4.217   4.347
 7774SOL     OW25160   2.022   9.739   1.354
 7774SOL    HW125161   2.063   9.755   1.439
 7774SOL    HW225162   1.935   9.705   1.375
 7775SOL     OW25163   1.487   5.273   0.352
 7775SOL    HW125164   1.449   5.313   0.274
 7775SOL    HW225165   1.572   5.316   0.361
 7776SOL     OW25166   4.788   2.679   9.597
 7776SOL    HW125167   4.703   2.637   9.611
 7776SOL    HW225168   4.775   2.769   9.627
 7777SOL     OW25169  10.267   0.801   2.836
 7777SOL    HW125170  10.351   0.807   2.789
 7777SOL    HW225171  10.227   0.721   2.802
 7778SOL     OW25172   3.104   5.421   8.806
 7778SOL    HW125173   3.045   5.488   8.838
 7778SOL    HW225174   3.053   5.373   8.740
 7779SOL     OW25175   7.835   0.559  11.313
 7779SOL    HW125176   7.860   0.467  11.307
 7779SOL    HW225177   7.876   0.600  11.236
 7780SOL     OW25178   8.200   3.676   1.832
 7780SOL    HW125179   8.176   3.766   1.811
 7780SOL    HW225180   8.153   3.657   1.913
 7781SOL     OW25181   6.097   0.487   4.278
 7781SOL    HW125182   6.183   0.525   4.263
 7781SOL    HW225183   6.109   0.428   4.352
 7782SOL     OW25184   4.965   4.739  14.761
 7782SOL    HW125185   5.006   4.798  14.698
 7782SOL    HW225186   4.967   4.653  14.717
 7783SOL     OW25187   4.422   0.217  13.805
 7783SOL    HW125188   4.399   0.298  13.850
 7783SOL    HW225189   4.502   0.187  13.847
 7784SOL     OW25190   7.624   4.312   9.809
 7784SOL    HW125191   7.661   4.400   9.806
 7784SOL    HW225192   7.588   4.298   9.722
 7785SOL     OW25193   7.142   3.515   1.527
 7785SOL    HW125194   7.190   3.442   1.489
 7785SOL    HW225195   7.181   3.526   1.614
 7786SOL     OW25196   2.806   2.926   0.244
 7786SOL    HW125197   2.750   2.861   0.202
 7786SOL    HW225198   2.798   2.908   0.338
 7787SOL     OW25199  10.212  14.429   5.114
 7787SOL    HW125200  10.173  14.488   5.179
 7787SOL    HW225201  10.173  14.344   5.133
 7788SOL     OW25202   1.896   7.008   6.560
 7788SOL    HW125203   1.892   6.920   6.597
 7788SOL    HW225204   1.900   6.994   6.465
 7789SOL     OW25205   1.709   8.057  12.040
 7789SOL    HW125206   1.730   8.072  11.948
 7789SOL    HW225207   1.790   8.080  12.087
 7790SOL     OW25208   0.525   4.718   4.275
 7790SOL    HW125209   0.517   4.624   4.265
 7790SOL    HW225210   0.599   4.730   4.334
 7791SOL     OW25211   5.363   7.179   5.801
 7791SOL    HW125212   5.293   7.158   5.864
 7791SOL    HW225213   5.436   7.122   5.826
 7792SOL     OW25214  11.835  10.660   6.072
 7792SOL    HW125215  11.792  10.613   6.000
 7792SOL    HW225216  11.764  10.707   6.115
 7793SOL     OW25217   8.664   1.844   6.294
 7793SOL    HW125218   8.629   1.756   6.279
 7793SOL    HW225219   8.719   1.861   6.217
 7794SOL     OW25220  11.092   8.739   8.844
 7794SOL    HW125221  11.165   8.685   8.875
 7794SOL    HW225222  11.129   8.826   8.835
 7795SOL     OW25223  10.176   1.940  10.561
 7795SOL    HW125224  10.124   1.921  10.639
 7795SOL    HW225225  10.131   2.015  10.520
 7796SOL     OW25226   3.685  13.165   1.411
 7796SOL    HW125227   3.690  13.260   1.394
 7796SOL    HW225228   3.647  13.158   1.498
 7797SOL     OW25229   1.354   0.113   4.200
 7797SOL    HW125230   1.293   0.075   4.137
 7797SOL    HW225231   1.387   0.191   4.157
 7798SOL     OW25232   8.390  10.092   7.923
 7798SOL    HW125233   8.365  10.177   7.960
 7798SOL    HW225234   8.338  10.084   7.844
 7799SOL     OW25235   4.825  12.552  12.801
 7799SOL    HW125236   4.905  12.538  12.852
 7799SOL    HW225237   4.855  12.560  12.710
 7800SOL     OW25238   8.973  13.015   7.423
 7800SOL    HW125239   9.042  12.949   7.431
 7800SOL    HW225240   9.004  13.089   7.474
 7801SOL     OW25241   1.181   0.922   1.072
 7801SOL    HW125242   1.137   1.001   1.043
 7801SOL    HW225243   1.115   0.853   1.063
 7802SOL     OW25244   6.470   7.462  10.336
 7802SOL    HW125245   6.553   7.440  10.378
 7802SOL    HW225246   6.407   7.400  10.373
 7803SOL     OW25247  14.827   0.550  10.346
 7803SOL    HW125248  14.777   0.484  10.394
 7803SOL    HW225249   0.011   0.580  10.408
 7804SOL     OW25250  13.057   4.803   5.162
 7804SOL    HW125251  13.110   4.867   5.210
 7804SOL    HW225252  13.109   4.723   5.163
 7805SOL     OW25253   9.937   6.819  10.036
 7805SOL    HW125254   9.935   6.914  10.023
 7805SOL    HW225255   9.940   6.808  10.131
 7806SOL     OW25256  11.737  10.501   8.869
 7806SOL    HW125257  11.805  10.436   8.886
 7806SOL    HW225258  11.655  10.455   8.884
 7807SOL     OW25259   3.074   9.809   0.012
 7807SOL    HW125260   3.024   9.890  14.882
 7807SOL    HW225261   3.035   9.769   0.090
 7808SOL     OW25262   0.865   7.733   6.607
 7808SOL    HW125263   0.843   7.816   6.565
 7808SOL    HW225264   0.799   7.723   6.676
 7809SOL     OW25265   3.649   8.963  10.694
 7809SOL    HW125266   3.626   8.899  10.762
 7809SOL    HW225267   3.707   9.025  10.739
 7810SOL     OW25268  11.785   5.273   9.652
 7810SOL    HW125269  11.721   5.236   9.713
 7810SOL    HW225270  11.769   5.367   9.655
 7811SOL     OW25271  12.963   3.551  12.405
 7811SOL    HW125272  12.938   3.504  12.485
 7811SOL    HW225273  13.006   3.630  12.438
 7812SOL     OW25274   7.780  14.779  14.368
 7812SOL    HW125275   7.703  14.732  14.336
 7812SOL    HW225276   7.848  14.713  14.374
 7813SOL     OW25277  10.959   7.686   5.267
 7813SOL    HW125278  10.981   7.618   5.203
 7813SOL    HW225279  10.881   7.653   5.312
 7814SOL     OW25280  11.999   2.781   9.150
 7814SOL    HW125281  11.910   2.816   9.151
 7814SOL    HW225282  12.042   2.826   9.077
 7815SOL     OW25283  10.464   4.869   8.418
 7815SOL    HW125284  10.378   4.837   8.391
 7815SOL    HW225285  10.449   4.908   8.504
 7816SOL     OW25286   0.232  14.642   5.762
 7816SOL    HW125287   0.248  14.548   5.770
 7816SOL    HW225288   0.156  14.648   5.703
 7817SOL     OW25289   0.834   4.747   8.465
 7817SOL    HW125290   0.918   4.791   8.452
 7817SOL    HW225291   0.781   4.774   8.390
 7818SOL     OW25292   2.161   3.734   7.363
 7818SOL    HW125293   2.226   3.677   7.404
 7818SOL    HW225294   2.205   3.818   7.353
 7819SOL     OW25295   0.565  10.050   7.574
 7819SOL    HW125296   0.640  10.021   7.521
 7819SOL    HW225297   0.500   9.980   7.563
 7820SOL     OW25298   1.736   0.238  12.122
 7820SOL    HW125299   1.767   0.149  12.106
 7820SOL    HW225300   1.803   0.277  12.179
 7821SOL     OW25301   3.840  14.826   1.905
 7821SOL    HW125302   3.757  14.873   1.906
 7821SOL    HW225303   3.839  14.773   1.985
 7822SOL     OW25304   2.165   6.366   7.659
 7822SOL    HW125305   2.243   6.340   7.708
 7822SOL    HW225306   2.199   6.406   7.579
 7823SOL     OW25307   9.244  13.313  10.455
 7823SOL    HW125308   9.301  13.349  10.388
 7823SOL    HW225309   9.191  13.387  10.485
 7824SOL     OW25310   9.433  10.975  13.600
 7824SOL    HW125311   9.499  11.041  13.619
 7824SOL    HW225312   9.432  10.968  13.505
 7825SOL     OW25313   8.657  11.558  12.340
 7825SOL    HW125314   8.702  11.513  12.268
 7825SOL    HW225315   8.572  11.515  12.345
 7826SOL     OW25316   4.653   1.750   0.562
 7826SOL    HW125317   4.626   1.659   0.562
 7826SOL    HW225318   4.726   1.754   0.500
 7827SOL     OW25319  12.228   6.215   6.675
 7827SOL    HW125320  12.263   6.158   6.744
 7827SOL    HW225321  12.287   6.204   6.601
 7828SOL     OW25322  11.278  13.658  14.772
 7828SOL    HW125323  11.332  13.606  14.714
 7828SOL    HW225324  11.283  13.747  14.736
 7829SOL     OW25325   8.424  13.732   3.136
 7829SOL    HW125326   8.412  13.825   3.156
 7829SOL    HW225327   8.499  13.706   3.190
 7830SOL     OW25328   1.093   5.158   5.509
 7830SOL    HW125329   1.128   5.176   5.596
 7830SOL    HW225330   1.048   5.239   5.483
 7831SOL     OW25331   5.995   8.115   8.451
 7831SOL    HW125332   5.968   8.165   8.528
 7831SOL    HW225333   5.931   8.138   8.383
 7832SOL     OW25334  12.408   8.564  10.964
 7832SOL    HW125335  12.375   8.601  10.882
 7832SOL    HW225336  12.448   8.638  11.009
 7833SOL     OW25337  10.124   2.129  10.937
 7833SOL    HW125338  10.033   2.122  10.965
 7833SOL    HW225339  10.136   2.058  10.873
 7834SOL     OW25340  14.515  10.003   1.176
 7834SOL    HW125341  14.518   9.992   1.272
 7834SOL    HW225342  14.599   9.967   1.146
 7835SOL     OW25343   2.251  10.653   4.729
 7835SOL    HW125344   2.335  10.698   4.738
 7835SOL    HW225345   2.265  10.590   4.659
 7836SOL     OW25346   0.986  12.703   0.581
 7836SOL    HW125347   0.994  12.765   0.508
 7836SOL    HW225348   1.074  12.667   0.591
 7837SOL     OW25349   6.983  10.162   7.416
 7837SOL    HW125350   7.076  10.176   7.434
 7837SOL    HW225351   6.971  10.067   7.419
 7838SOL     OW25352   7.425   3.179   0.568
 7838SOL    HW125353   7.456   3.090   0.588
 7838SOL    HW225354   7.353   3.165   0.506
 7839SOL     OW25355   7.359  14.407   8.455
 7839SOL    HW125356   7.436  14.382   8.404
 7839SOL    HW225357   7.358  14.344   8.528
 7840SOL     OW25358  12.642  11.287  14.546
 7840SOL    HW125359  12.684  11.373  14.543
 7840SOL    HW225360  12.688  11.236  14.480
 7841SOL     OW25361  14.646   4.744   0.516
 7841SOL    HW125362  14.734   4.779   0.499
 7841SOL    HW225363  14.598   4.760   0.435
 7842SOL     OW25364  10.399   6.757   3.468
 7842SOL    HW125365  10.319   6.778   3.516
 7842SOL    HW225366  10.450   6.838   3.468
 7843SOL     OW25367  12.940   8.375   3.286
 7843SOL    HW125368  12.911   8.440   3.350
 7843SOL    HW225369  12.867   8.367   3.225
 7844SOL     OW25370  11.929  10.857  13.320
 7844SOL    HW125371  11.941  10.784  13.259
 7844SOL    HW225372  11.888  10.817  13.397
 7845SOL     OW25373  10.849   4.138  13.218
 7845SOL    HW125374  10.906   4.070  13.253
 7845SOL    HW225375  10.764   4.120  13.258
 7846SOL     OW25376   3.839   7.976   1.353
 7846SOL    HW125377   3.890   7.915   1.405
 7846SOL    HW225378   3.821   7.929   1.271
 7847SOL     OW25379   6.639   1.969   3.702
 7847SOL    HW125380   6.619   2.041   3.642
 7847SOL    HW225381   6.726   1.939   3.676
 7848SOL     OW25382   9.718   0.330   9.474
 7848SOL    HW125383   9.728   0.291   9.387
 7848SOL    HW225384   9.629   0.307   9.500
 7849SOL     OW25385  13.668   2.069   5.567
 7849SOL    HW125386  13.622   2.141   5.524
 7849SOL    HW225387  13.598   2.010   5.596
 7850SOL     OW25388   2.810  13.254   4.572
 7850SOL    HW125389   2.739  13.211   4.524
 7850SOL    HW225390   2.840  13.323   4.514
 7851SOL     OW25391   1.060   6.705  14.118
 7851SOL    HW125392   1.037   6.657  14.198
 7851SOL    HW225393   1.012   6.660  14.049
 7852SOL     OW25394   1.687  12.815  13.048
 7852SOL    HW125395   1.594  12.833  13.031
 7852SOL    HW225396   1.689  12.779  13.137
 7853SOL     OW25397   8.727  10.683   5.058
 7853SOL    HW125398   8.673  10.756   5.027
 7853SOL    HW225399   8.788  10.723   5.120
 7854SOL     OW25400  11.731   5.371  13.341
 7854SOL    HW125401  11.774   5.352  13.424
 7854SOL    HW225402  11.716   5.285  13.301
 7855SOL     OW25403   0.657   9.325   5.174
 7855SOL    HW125404   0.727   9.385   5.150
 7855SOL    HW225405   0.578   9.363   5.135
 7856SOL     OW25406  13.072   4.803   0.055
 7856SOL    HW125407  13.151   4.752   0.072
 7856SOL    HW225408  13.015   4.744   0.005
 7857SOL     OW25409   6.688   9.983   6.643
 7857SOL    HW125410   6.697   9.889   6.656
 7857SOL    HW225411   6.594   9.999   6.646
 7858SOL     OW25412   7.230  10.094  14.036
 7858SOL    HW125413   7.206  10.053  14.120
 7858SOL    HW225414   7.159  10.070  13.977
 7859SOL     OW25415   8.778   8.722  13.387
 7859SOL    HW125416   8.757   8.675  13.467
 7859SOL    HW225417   8.693   8.741  13.347
 7860SOL     OW25418   1.572   6.496   3.982
 7860SOL    HW125419   1.641   6.471   4.044
 7860SOL    HW225420   1.601   6.580   3.946
 7861SOL     OW25421  12.405   7.881  12.476
 7861SOL    HW125422  12.361   7.857  12.558
 7861SOL    HW225423  12.425   7.797  12.435
 7862SOL     OW25424   9.771   2.707  10.409
 7862SOL    HW125425   9.758   2.707  10.504
 7862SOL    HW225426   9.691   2.666  10.374
 7863SOL     OW25427   7.037   1.325  12.352
 7863SOL    HW125428   7.014   1.391  12.287
 7863SOL    HW225429   6.952   1.289  12.380
 7864SOL     OW25430   7.760   1.344   6.635
 7864SOL    HW125431   7.708   1.400   6.693
 7864SOL    HW225432   7.826   1.402   6.598
 7865SOL     OW25433   0.575  13.516   4.174
 7865SOL    HW125434   0.532  13.508   4.089
 7865SOL    HW225435   0.604  13.607   4.178
 7866SOL     OW25436  10.697  14.457  10.841
 7866SOL    HW125437  10.706  14.427  10.932
 7866SOL    HW225438  10.685  14.551  10.848
 7867SOL     OW25439   4.615   2.951   4.683
 7867SOL    HW125440   4.687   2.891   4.703
 7867SOL    HW225441   4.572   2.966   4.767
 7868SOL     OW25442   0.714   8.030   9.898
 7868SOL    HW125443   0.696   7.941   9.929
 7868SOL    HW225444   0.654   8.043   9.825
 7869SOL     OW25445   7.706  13.558   8.417
 7869SOL    HW125446   7.645  13.627   8.443
 7869SOL    HW225447   7.653  13.478   8.419
 7870SOL     OW25448   6.626   3.723  14.318
 7870SOL    HW125449   6.676   3.666  14.376
 7870SOL    HW225450   6.688   3.746  14.248
 7871SOL     OW25451   9.800  11.425   5.096
 7871SOL    HW125452   9.748  11.459   5.168
 7871SOL    HW225453   9.891  11.438   5.124
 7872SOL     OW25454  12.062   7.937   9.262
 7872SOL    HW125455  12.150   7.912   9.292
 7872SOL    HW225456  12.049   8.026   9.297
 7873SOL     OW25457   8.450   1.873   3.243
 7873SOL    HW125458   8.423   1.873   3.151
 7873SOL    HW225459   8.461   1.780   3.265
 7874SOL     OW25460   7.647  13.277  12.903
 7874SOL    HW125461   7.593  13.277  12.982
 7874SOL    HW225462   7.698  13.358  12.908
 7875SOL     OW25463   4.763  12.135  13.547
 7875SOL    HW125464   4.786  12.058  13.599
 7875SOL    HW225465   4.672  12.121  13.521
 7876SOL     OW25466  13.383   4.024   6.120
 7876SOL    HW125467  13.456   3.966   6.099
 7876SOL    HW225468  13.421   4.092   6.176
 7877SOL     OW25469   1.662  13.550   1.887
 7877SOL    HW125470   1.594  13.486   1.869
 7877SOL    HW225471   1.627  13.603   1.959
 7878SOL     OW25472   6.362   9.813   8.467
 7878SOL    HW125473   6.390   9.880   8.530
 7878SOL    HW225474   6.274   9.841   8.440
 7879SOL     OW25475   1.922   3.550   0.623
 7879SOL    HW125476   1.864   3.517   0.555
 7879SOL    HW225477   2.008   3.512   0.601
 7880SOL     OW25478  10.278   8.835   6.961
 7880SOL    HW125479  10.220   8.884   7.020
 7880SOL    HW225480  10.219   8.784   6.906
 7881SOL     OW25481  13.162  14.004  11.990
 7881SOL    HW125482  13.187  14.087  12.032
 7881SOL    HW225483  13.098  13.966  12.049
 7882SOL     OW25484  13.846   9.693  12.234
 7882SOL    HW125485  13.811   9.621  12.287
 7882SOL    HW225486  13.780   9.762  12.241
 7883SOL     OW25487   2.352  12.290  10.161
 7883SOL    HW125488   2.308  12.323  10.082
 7883SOL    HW225489   2.445  12.305  10.145
 7884SOL     OW25490   8.677  14.300  13.856
 7884SOL    HW125491   8.710  14.365  13.918
 7884SOL    HW225492   8.744  14.296  13.788
 7885SOL     OW25493   9.362   3.617   6.301
 7885SOL    HW125494   9.310   3.642   6.225
 7885SOL    HW225495   9.333   3.678   6.370
 7886SOL     OW25496  10.203   7.307  12.191
 7886SOL    HW125497  10.127   7.334  12.243
 7886SOL    HW225498  10.188   7.347  12.105
 7887SOL     OW25499   8.380   7.029   8.642
 7887SOL    HW125500   8.334   7.009   8.560
 7887SOL    HW225501   8.466   6.988   8.631
 7888SOL     OW25502   0.047  13.766   5.732
 7888SOL    HW125503   0.095  13.785   5.651
 7888SOL    HW225504  14.877  13.844   5.747
 7889SOL     OW25505   6.024   2.771   2.185
 7889SOL    HW125506   6.061   2.831   2.121
 7889SOL    HW225507   6.004   2.826   2.261
 7890SOL     OW25508   9.827  13.621   3.866
 7890SOL    HW125509   9.747  13.569   3.865
 7890SOL    HW225510   9.840  13.645   3.958
 7891SOL     OW25511   1.006  10.940   6.318
 7891SOL    HW125512   1.092  10.958   6.356
 7891SOL    HW225513   0.951  10.915   6.392
 7892SOL     OW25514  12.888  10.075   8.135
 7892SOL    HW125515  12.821  10.049   8.198
 7892SOL    HW225516  12.960  10.109   8.189
 7893SOL     OW25517  13.980  14.333   6.394
 7893SOL    HW125518  14.015  14.264   6.451
 7893SOL    HW225519  13.996  14.301   6.305
 7894SOL     OW25520   6.346  14.383   2.785
 7894SOL    HW125521   6.345  14.474   2.812
 7894SOL    HW225522   6.439  14.361   2.777
 7895SOL     OW25523   0.195   6.169   4.671
 7895SOL    HW125524   0.102   6.148   4.669
 7895SOL    HW225525   0.214   6.204   4.584
 7896SOL     OW25526   2.415   1.067   2.840
 7896SOL    HW125527   2.367   1.087   2.920
 7896SOL    HW225528   2.433   1.153   2.801
 7897SOL     OW25529   3.983  11.742  12.106
 7897SOL    HW125530   3.918  11.740  12.176
 7897SOL    HW225531   4.067  11.728  12.150
 7898SOL     OW25532   0.993   4.575   7.304
 7898SOL    HW125533   0.998   4.488   7.266
 7898SOL    HW225534   1.001   4.635   7.230
 7899SOL     OW25535   6.161  11.795   7.581
 7899SOL    HW125536   6.187  11.886   7.594
 7899SOL    HW225537   6.136  11.789   7.489
 7900SOL     OW25538  13.804   5.710   6.657
 7900SOL    HW125539  13.882   5.654   6.658
 7900SOL    HW225540  13.826   5.781   6.596
 7901SOL     OW25541   9.394   8.663  12.110
 7901SOL    HW125542   9.469   8.607  12.132
 7901SOL    HW225543   9.330   8.602  12.073
 7902SOL     OW25544   9.970  11.607   7.617
 7902SOL    HW125545   9.972  11.603   7.712
 7902SOL    HW225546   9.921  11.529   7.590
 7903SOL     OW25547   9.347   4.545  10.371
 7903SOL    HW125548   9.268   4.513  10.328
 7903SOL    HW225549   9.356   4.490  10.449
 7904SOL     OW25550  13.928   5.433  12.358
 7904SOL    HW125551  14.008   5.411  12.309
 7904SOL    HW225552  13.857   5.404  12.302
 7905SOL     OW25553   5.044   1.085   7.440
 7905SOL    HW125554   5.136   1.080   7.466
 7905SOL    HW225555   5.047   1.110   7.347
 7906SOL     OW25556  10.102   9.666  11.832
 7906SOL    HW125557  10.197   9.663  11.847
 7906SOL    HW225558  10.091   9.640  11.741
 7907SOL     OW25559   6.015   7.291   0.555
 7907SOL    HW125560   6.005   7.318   0.464
 7907SOL    HW225561   5.961   7.212   0.563
 7908SOL     OW25562   6.670   7.470   8.437
 7908SOL    HW125563   6.740   7.405   8.435
 7908SOL    HW225564   6.591   7.421   8.417
 7909SOL     OW25565   3.234   1.389  12.354
 7909SOL    HW125566   3.277   1.414  12.436
 7909SOL    HW225567   3.292   1.323  12.315
 7910SOL     OW25568   8.157   0.787   7.365
 7910SOL    HW125569   8.124   0.868   7.402
 7910SOL    HW225570   8.178   0.809   7.274
 7911SOL     OW25571  13.230   4.033   3.069
 7911SOL    HW125572  13.284   4.058   2.994
 7911SOL    HW225573  13.177   3.960   3.036
 7912SOL     OW25574  11.572  12.376  13.207
 7912SOL    HW125575  11.654  12.328  13.197
 7912SOL    HW225576  11.591  12.464  13.176
 7913SOL     OW25577   4.490   3.051   7.409
 7913SOL    HW125578   4.441   2.970   7.426
 7913SOL    HW225579   4.422   3.118   7.400
 7914SOL     OW25580   5.525   9.374   4.623
 7914SOL    HW125581   5.455   9.321   4.662
 7914SOL    HW225582   5.606   9.332   4.652
 7915SOL     OW25583   8.027   5.295  14.109
 7915SOL    HW125584   8.073   5.301  14.025
 7915SOL    HW225585   8.000   5.204  14.116
 7916SOL     OW25586   9.394   4.739   7.539
 7916SOL    HW125587   9.438   4.742   7.454
 7916SOL    HW225588   9.457   4.775   7.600
 7917SOL     OW25589   1.719   2.471   3.259
 7917SOL    HW125590   1.770   2.450   3.337
 7917SOL    HW225591   1.652   2.404   3.255
 7918SOL     OW25592   7.096  11.778   7.086
 7918SOL    HW125593   7.058  11.709   7.032
 7918SOL    HW225594   7.136  11.838   7.022
 7919SOL     OW25595   4.411   7.512  11.947
 7919SOL    HW125596   4.460   7.552  12.019
 7919SOL    HW225597   4.408   7.580  11.879
 7920SOL     OW25598  13.100   5.018   5.671
 7920SOL    HW125599  13.081   4.979   5.756
 7920SOL    HW225600  13.043   5.095   5.667
 7921SOL     OW25601  12.101   8.805   0.127
 7921SOL    HW125602  12.147   8.781   0.046
 7921SOL    HW225603  12.094   8.901   0.123
 7922SOL     OW25604   5.560   2.055   9.291
 7922SOL    HW125605   5.653   2.059   9.313
 7922SOL    HW225606   5.549   2.119   9.221
 7923SOL     OW25607   3.042   7.209  10.926
 7923SOL    HW125608   3.074   7.126  10.889
 7923SOL    HW225609   3.097   7.276  10.885
 7924SOL     OW25610   1.026   9.191   4.697
 7924SOL    HW125611   0.931   9.192   4.683
 7924SOL    HW225612   1.050   9.098   4.691
 7925SOL     OW25613   6.833  13.122   9.628
 7925SOL    HW125614   6.838  13.200   9.683
 7925SOL    HW225615   6.923  13.090   9.623
 7926SOL     OW25616   5.796   8.918  13.765
 7926SOL    HW125617   5.834   8.832  13.746
 7926SOL    HW225618   5.860   8.960  13.822
 7927SOL     OW25619   1.201  13.084   7.114
 7927SOL    HW125620   1.194  13.172   7.077
 7927SOL    HW225621   1.217  13.027   7.038
 7928SOL     OW25622   4.205   1.935   0.762
 7928SOL    HW125623   4.202   2.028   0.784
 7928SOL    HW225624   4.295   1.909   0.780
 7929SOL     OW25625   8.386  14.616   2.959
 7929SOL    HW125626   8.406  14.707   2.982
 7929SOL    HW225627   8.455  14.590   2.898
 7930SOL     OW25628   3.256  12.194  13.926
 7930SOL    HW125629   3.196  12.119  13.930
 7930SOL    HW225630   3.327  12.170  13.985
 7931SOL     OW25631   4.894   2.271  14.184
 7931SOL    HW125632   4.969   2.262  14.125
 7931SOL    HW225633   4.933   2.299  14.267
 7932SOL     OW25634  10.567   5.557   9.934
 7932SOL    HW125635  10.601   5.509  10.010
 7932SOL    HW225636  10.627   5.534   9.863
 7933SOL     OW25637  11.786   7.379   0.575
 7933SOL    HW125638  11.698   7.412   0.593
 7933SOL    HW225639  11.829   7.450   0.528
 7934SOL     OW25640   3.547   2.960   9.414
 7934SOL    HW125641   3.595   2.946   9.495
 7934SOL    HW225642   3.457   2.978   9.441
 7935SOL     OW25643  13.994   1.371  12.551
 7935SOL    HW125644  14.074   1.318  12.556
 7935SOL    HW225645  13.993   1.422  12.632
 7936SOL     OW25646  14.818   6.048   2.777
 7936SOL    HW125647   0.019   6.068   2.821
 7936SOL    HW225648  14.753   6.050   2.847
 7937SOL     OW25649   8.029  10.669   0.007
 7937SOL    HW125650   8.013  10.689  14.797
 7937SOL    HW225651   8.004  10.749   0.054
 7938SOL     OW25652  13.313   2.100   3.546
 7938SOL    HW125653  13.402   2.125   3.523
 7938SOL    HW225654  13.310   2.105   3.642
 7939SOL     OW25655   7.942   0.579   9.101
 7939SOL    HW125656   7.982   0.635   9.168
 7939SOL    HW225657   7.869   0.537   9.146
 7940SOL     OW25658  10.529  14.421   5.634
 7940SOL    HW125659  10.623  14.411   5.650
 7940SOL    HW225660  10.522  14.433   5.540
 7941SOL     OW25661   3.428  13.975  10.936
 7941SOL    HW125662   3.479  13.941  11.010
 7941SOL    HW225663   3.347  14.008  10.976
 7942SOL     OW25664   9.590   5.272   7.791
 7942SOL    HW125665   9.618   5.281   7.700
 7942SOL    HW225666   9.604   5.358   7.830
 7943SOL     OW25667   9.708   4.736   7.855
 7943SOL    HW125668   9.770   4.741   7.782
 7943SOL    HW225669   9.631   4.783   7.824
 7944SOL     OW25670   1.190  13.285  11.301
 7944SOL    HW125671   1.099  13.255  11.302
 7944SOL    HW225672   1.203  13.323  11.388
 7945SOL     OW25673   6.247   0.837   3.364
 7945SOL    HW125674   6.177   0.889   3.404
 7945SOL    HW225675   6.239   0.751   3.406
 7946SOL     OW25676   3.126   1.745  10.506
 7946SOL    HW125677   3.128   1.652  10.526
 7946SOL    HW225678   3.159   1.788  10.585
 7947SOL     OW25679  11.867   5.965  13.839
 7947SOL    HW125680  11.908   5.911  13.906
 7947SOL    HW225681  11.895   6.054  13.860
 7948SOL     OW25682  10.692  11.636   0.746
 7948SOL    HW125683  10.714  11.615   0.836
 7948SOL    HW225684  10.773  11.673   0.710
 7949SOL     OW25685   3.057  13.639  13.111
 7949SOL    HW125686   3.133  13.619  13.056
 7949SOL    HW225687   3.094  13.652  13.198
 7950SOL     OW25688   7.448   5.859   4.084
 7950SOL    HW125689   7.464   5.857   3.990
 7950SOL    HW225690   7.510   5.923   4.119
 7951SOL     OW25691   5.677   2.407   1.267
 7951SOL    HW125692   5.681   2.488   1.318
 7951SOL    HW225693   5.764   2.368   1.277
 7952SOL     OW25694   4.446   7.157  12.130
 7952SOL    HW125695   4.418   7.219  12.063
 7952SOL    HW225696   4.501   7.208  12.189
 7953SOL     OW25697  14.157   0.671   8.735
 7953SOL    HW125698  14.096   0.745   8.729
 7953SOL    HW225699  14.217   0.695   8.806
 7954SOL     OW25700   2.163   3.810   0.631
 7954SOL    HW125701   2.171   3.905   0.640
 7954SOL    HW225702   2.103   3.797   0.558
 7955SOL     OW25703  13.555   1.918  12.084
 7955SOL    HW125704  13.504   1.862  12.144
 7955SOL    HW225705  13.534   1.884  11.997
 7956SOL     OW25706   1.156   5.978   4.929
 7956SOL    HW125707   1.075   6.028   4.922
 7956SOL    HW225708   1.209   6.027   4.992
 7957SOL     OW25709  11.492  12.119   7.955
 7957SOL    HW125710  11.424  12.143   7.893
 7957SOL    HW225711  11.561  12.080   7.901
 7958SOL     OW25712   9.668  12.796   8.735
 7958SOL    HW125713   9.667  12.768   8.826
 7958SOL    HW225714   9.578  12.783   8.705
 7959SOL     OW25715   6.308   9.831   9.969
 7959SOL    HW125716   6.349   9.917   9.967
 7959SOL    HW225717   6.295   9.814  10.063
 7960SOL     OW25718   9.453   0.411   1.031
 7960SOL    HW125719   9.492   0.491   0.996
 7960SOL    HW225720   9.365   0.438   1.059
 7961SOL     OW25721   5.733   9.492   5.809
 7961SOL    HW125722   5.753   9.543   5.888
 7961SOL    HW225723   5.646   9.455   5.825
 7962SOL     OW25724   5.198   2.215  10.852
 7962SOL    HW125725   5.110   2.187  10.875
 7962SOL    HW225726   5.245   2.133  10.834
 7963SOL     OW25727   9.405   4.062   3.794
 7963SOL    HW125728   9.401   4.057   3.890
 7963SOL    HW225729   9.479   4.007   3.770
 7964SOL     OW25730   5.152   1.490  12.947
 7964SOL    HW125731   5.058   1.492  12.965
 7964SOL    HW225732   5.167   1.563  12.888
 7965SOL     OW25733  13.233  13.437   6.894
 7965SOL    HW125734  13.328  13.442   6.881
 7965SOL    HW225735  13.203  13.527   6.883
 7966SOL     OW25736  14.342   9.522   1.086
 7966SOL    HW125737  14.421   9.484   1.047
 7966SOL    HW225738  14.271   9.495   1.027
 7967SOL     OW25739  14.456   3.904   7.868
 7967SOL    HW125740  14.456   3.809   7.884
 7967SOL    HW225741  14.435   3.943   7.953
 7968SOL     OW25742   9.757   3.491   4.650
 7968SOL    HW125743   9.756   3.396   4.664
 7968SOL    HW225744   9.803   3.526   4.727
 7969SOL     OW25745   5.057   1.333   5.084
 7969SOL    HW125746   5.011   1.347   5.167
 7969SOL    HW225747   5.113   1.257   5.099
 7970SOL     OW25748  10.410   6.105  12.840
 7970SOL    HW125749  10.491   6.135  12.798
 7970SOL    HW225750  10.358   6.069  12.768
 7971SOL     OW25751  10.151   9.733   5.174
 7971SOL    HW125752  10.058   9.710   5.172
 7971SOL    HW225753  10.164   9.783   5.094
 7972SOL     OW25754  13.130   0.166   5.179
 7972SOL    HW125755  13.063   0.144   5.114
 7972SOL    HW225756  13.081   0.182   5.259
 7973SOL     OW25757  10.670   0.354   6.768
 7973SOL    HW125758  10.694   0.281   6.711
 7973SOL    HW225759  10.708   0.331   6.853
 7974SOL     OW25760   0.802   4.548   8.245
 7974SOL    HW125761   0.894   4.572   8.250
 7974SOL    HW225762   0.802   4.459   8.209
 7975SOL     OW25763   0.808  12.255  11.609
 7975SOL    HW125764   0.833  12.216  11.525
 7975SOL    HW225765   0.810  12.182  11.671
 7976SOL     OW25766   7.425   2.811  10.086
 7976SOL    HW125767   7.510   2.772  10.105
 7976SOL    HW225768   7.366   2.772  10.151
 7977SOL     OW25769   3.452  10.486   7.772
 7977SOL    HW125770   3.456  10.576   7.806
 7977SOL    HW225771   3.521  10.440   7.821
 7978SOL     OW25772  13.761  10.534   8.072
 7978SOL    HW125773  13.834  10.595   8.073
 7978SOL    HW225774  13.690  10.582   8.030
 7979SOL     OW25775   8.175   5.241   7.306
 7979SOL    HW125776   8.127   5.322   7.322
 7979SOL    HW225777   8.253   5.246   7.361
 7980SOL     OW25778   8.466  10.757  11.404
 7980SOL    HW125779   8.400  10.784  11.468
 7980SOL    HW225780   8.529  10.829  11.402
 7981SOL     OW25781   0.799   7.851   9.603
 7981SOL    HW125782   0.720   7.885   9.647
 7981SOL    HW225783   0.808   7.762   9.636
 7982SOL     OW25784   7.948  12.471  12.803
 7982SOL    HW125785   7.862  12.428  12.796
 7982SOL    HW225786   8.007  12.401  12.830
 7983SOL     OW25787   2.434   4.447   1.172
 7983SOL    HW125788   2.394   4.532   1.190
 7983SOL    HW225789   2.494   4.463   1.099
 7984SOL     OW25790   9.703  14.004   5.750
 7984SOL    HW125791   9.660  14.049   5.677
 7984SOL    HW225792   9.663  14.042   5.829
 7985SOL     OW25793   7.421   9.032  11.923
 7985SOL    HW125794   7.467   9.023  11.840
 7985SOL    HW225795   7.470   8.976  11.984
 7986SOL     OW25796  14.805   5.253   9.015
 7986SOL    HW125797  14.857   5.271   8.937
 7986SOL    HW225798  14.798   5.338   9.060
 7987SOL     OW25799  10.021   9.428   9.537
 7987SOL    HW125800  10.015   9.404   9.629
 7987SOL    HW225801  10.020   9.345   9.490
 7988SOL     OW25802   6.255   0.962  13.740
 7988SOL    HW125803   6.328   1.016  13.772
 7988SOL    HW225804   6.296   0.899  13.681
 7989SOL     OW25805   5.372   3.490  13.061
 7989SOL    HW125806   5.363   3.458  13.151
 7989SOL    HW225807   5.358   3.413  13.006
 7990SOL     OW25808  11.067   0.677   7.812
 7990SOL    HW125809  11.141   0.656   7.869
 7990SOL    HW225810  11.006   0.604   7.825
 7991SOL     OW25811  14.750   7.779  11.233
 7991SOL    HW125812  14.710   7.864  11.218
 7991SOL    HW225813  14.813   7.794  11.304
 7992SOL     OW25814  10.936  11.274  10.512
 7992SOL    HW125815  10.962  11.190  10.476
 7992SOL    HW225816  10.896  11.252  10.596
 7993SOL     OW25817  11.014   3.614   3.492
 7993SOL    HW125818  11.019   3.705   3.521
 7993SOL    HW225819  10.970   3.619   3.407
 7994SOL     OW25820   9.608   6.949  11.334
 7994SOL    HW125821   9.585   6.944  11.427
 7994SOL    HW225822   9.580   6.865  11.298
 7995SOL     OW25823   6.628   9.498   1.383
 7995SOL    HW125824   6.544   9.527   1.418
 7995SOL    HW225825   6.645   9.555   1.308
 7996SOL     OW25826   7.849   7.589  12.852
 7996SOL    HW125827   7.889   7.526  12.912
 7996SOL    HW225828   7.882   7.566  12.766
 7997SOL     OW25829   4.319   8.280  14.228
 7997SOL    HW125830   4.246   8.290  14.167
 7997SOL    HW225831   4.396   8.307  14.178
 7998SOL     OW25832   4.951  12.379   5.346
 7998SOL    HW125833   4.933  12.439   5.418
 7998SOL    HW225834   4.882  12.396   5.282
 7999SOL     OW25835   5.682  11.208   5.197
 7999SOL    HW125836   5.757  11.195   5.138
 7999SOL    HW225837   5.702  11.154   5.274
 8000SOL     OW25838  11.614  11.656  11.430
 8000SOL    HW125839  11.552  11.599  11.384
 8000SOL    HW225840  11.560  11.727  11.464
 8001SOL     OW25841   6.001   8.231  13.176
 8001SOL    HW125842   6.007   8.317  13.218
 8001SOL    HW225843   5.933   8.185  13.224
 8002SOL     OW25844  12.003   2.872   0.847
 8002SOL    HW125845  11.914   2.843   0.827
 8002SOL    HW225846  12.050   2.792   0.871
 8003SOL     OW25847  11.123   8.209   1.455
 8003SOL    HW125848  11.210   8.230   1.422
 8003SOL    HW225849  11.064   8.266   1.406
 8004SOL     OW25850  13.736   3.001  14.625
 8004SOL    HW125851  13.784   3.072  14.582
 8004SOL    HW225852  13.804   2.941  14.655
 8005SOL     OW25853   8.755  13.965   0.258
 8005SOL    HW125854   8.771  14.026   0.330
 8005SOL    HW225855   8.739  13.881   0.300
 8006SOL     OW25856  13.473  12.908   0.801
 8006SOL    HW125857  13.456  12.964   0.725
 8006SOL    HW225858  13.397  12.920   0.858
 8007SOL     OW25859  14.654   4.474   5.912
 8007SOL    HW125860  14.711   4.467   5.836
 8007SOL    HW225861  14.640   4.569   5.923
 8008SOL     OW25862  11.223   0.976  12.663
 8008SOL    HW125863  11.212   1.065  12.629
 8008SOL    HW225864  11.315   0.955  12.646
 8009SOL     OW25865   6.494  12.810   0.030
 8009SOL    HW125866   6.484  12.720   0.000
 8009SOL    HW225867   6.457  12.863  14.841
 8010SOL     OW25868   0.545  13.667   7.740
 8010SOL    HW125869   0.461  13.682   7.785
 8010SOL    HW225870   0.559  13.573   7.748
 8011SOL     OW25871   2.878   4.550   6.584
 8011SOL    HW125872   2.801   4.554   6.527
 8011SOL    HW225873   2.900   4.642   6.601
 8012SOL     OW25874   2.297  10.258  11.273
 8012SOL    HW125875   2.242  10.201  11.326
 8012SOL    HW225876   2.303  10.215  11.188
 8013SOL     OW25877  13.464  14.157  11.911
 8013SOL    HW125878  13.393  14.176  11.973
 8013SOL    HW225879  13.485  14.242  11.872
 8014SOL     OW25880  12.382   8.628   3.818
 8014SOL    HW125881  12.427   8.708   3.847
 8014SOL    HW225882  12.340   8.653   3.736
 8015SOL     OW25883  14.601   9.339   9.939
 8015SOL    HW125884  14.665   9.314   9.872
 8015SOL    HW225885  14.608   9.270  10.006
 8016SOL     OW25886   0.769  14.496   1.224
 8016SOL    HW125887   0.850  14.461   1.262
 8016SOL    HW225888   0.711  14.421   1.219
 8017SOL     OW25889   8.119   5.735  11.621
 8017SOL    HW125890   8.047   5.694  11.670
 8017SOL    HW225891   8.123   5.686  11.540
 8018SOL     OW25892   4.694   2.360  14.014
 8018SOL    HW125893   4.742   2.324  14.088
 8018SOL    HW225894   4.761   2.404  13.961
 8019SOL     OW25895   3.894   9.891  13.381
 8019SOL    HW125896   3.905   9.984  13.361
 8019SOL    HW225897   3.944   9.876  13.461
 8020SOL     OW25898  12.452   7.379  10.913
 8020SOL    HW125899  12.474   7.454  10.857
 8020SOL    HW225900  12.535   7.333  10.925
 8021SOL     OW25901  14.379  13.162   3.984
 8021SOL    HW125902  14.461  13.178   4.030
 8021SOL    HW225903  14.406  13.119   3.902
 8022SOL     OW25904   1.496  13.541   1.572
 8022SOL    HW125905   1.588  13.564   1.561
 8022SOL    HW225906   1.498  13.456   1.615
 8023SOL     OW25907   0.290   3.937  13.312
 8023SOL    HW125908   0.302   3.844  13.329
 8023SOL    HW225909   0.283   3.976  13.400
 8024SOL     OW25910   2.234  13.031   0.480
 8024SOL    HW125911   2.291  13.107   0.465
 8024SOL    HW225912   2.207  13.003   0.393
 8025SOL     OW25913   4.861  10.937  10.986
 8025SOL    HW125914   4.845  10.969  11.075
 8025SOL    HW225915   4.817  10.853  10.982
 8026SOL     OW25916   2.114   1.498   0.807
 8026SOL    HW125917   2.136   1.518   0.898
 8026SOL    HW225918   2.128   1.581   0.761
 8027SOL     OW25919  11.448  14.725   3.303
 8027SOL    HW125920  11.493  14.651   3.261
 8027SOL    HW225921  11.517  14.791   3.314
 8028SOL     OW25922  13.585  12.879  12.466
 8028SOL    HW125923  13.658  12.930  12.431
 8028SOL    HW225924  13.591  12.890  12.561
 8029SOL     OW25925   6.589   5.770   8.478
 8029SOL    HW125926   6.575   5.835   8.409
 8029SOL    HW225927   6.553   5.811   8.557
 8030SOL     OW25928   9.096   8.320  11.635
 8030SOL    HW125929   9.182   8.361  11.640
 8030SOL    HW225930   9.074   8.321  11.542
 8031SOL     OW25931  12.227  10.942   8.036
 8031SOL    HW125932  12.217  10.958   7.942
 8031SOL    HW225933  12.177  11.012   8.078
 8032SOL     OW25934   7.311   4.690   0.047
 8032SOL    HW125935   7.351   4.628  14.867
 8032SOL    HW225936   7.232   4.721   0.002
 8033SOL     OW25937   9.559   7.291  11.854
 8033SOL    HW125938   9.492   7.223  11.868
 8033SOL    HW225939   9.578   7.324  11.941
 8034SOL     OW25940   0.653   0.299   5.749
 8034SOL    HW125941   0.682   0.211   5.728
 8034SOL    HW225942   0.718   0.356   5.709
 8035SOL     OW25943   2.328   3.390   3.538
 8035SOL    HW125944   2.384   3.319   3.570
 8035SOL    HW225945   2.389   3.463   3.523
 8036SOL     OW25946   1.479   3.717   6.995
 8036SOL    HW125947   1.398   3.739   7.041
 8036SOL    HW225948   1.549   3.749   7.053
 8037SOL     OW25949   5.684  10.462   5.653
 8037SOL    HW125950   5.719  10.435   5.738
 8037SOL    HW225951   5.759  10.498   5.606
 8038SOL     OW25952   0.173   6.303   0.791
 8038SOL    HW125953   0.194   6.227   0.737
 8038SOL    HW225954   0.163   6.268   0.880
 8039SOL     OW25955  11.419   8.449   4.734
 8039SOL    HW125956  11.468   8.529   4.754
 8039SOL    HW225957  11.365   8.434   4.812
 8040SOL     OW25958   2.487   6.496   4.016
 8040SOL    HW125959   2.520   6.408   3.995
 8040SOL    HW225960   2.455   6.488   4.105
 8041SOL     OW25961   7.936   6.929   5.100
 8041SOL    HW125962   7.989   6.956   5.175
 8041SOL    HW225963   7.846   6.928   5.134
 8042SOL     OW25964   9.930  13.502  13.060
 8042SOL    HW125965   9.984  13.580  13.050
 8042SOL    HW225966   9.840  13.535  13.066
 8043SOL     OW25967  10.825   8.914   7.537
 8043SOL    HW125968  10.796   8.991   7.488
 8043SOL    HW225969  10.860   8.949   7.619
 8044SOL     OW25970   6.565   6.498   5.362
 8044SOL    HW125971   6.513   6.417   5.363
 8044SOL    HW225972   6.640   6.477   5.307
 8045SOL     OW25973   9.151   0.850   2.160
 8045SOL    HW125974   9.129   0.889   2.244
 8045SOL    HW225975   9.242   0.874   2.145
 8046SOL     OW25976  13.259   8.607   5.646
 8046SOL    HW125977  13.199   8.647   5.709
 8046SOL    HW225978  13.335   8.665   5.644
 8047SOL     OW25979   5.055   9.694   0.959
 8047SOL    HW125980   5.042   9.662   0.870
 8047SOL    HW225981   5.133   9.749   0.954
 8048SOL     OW25982  11.611   0.423  12.585
 8048SOL    HW125983  11.608   0.333  12.551
 8048SOL    HW225984  11.696   0.429  12.628
 8049SOL     OW25985   6.960   4.310   9.387
 8049SOL    HW125986   6.887   4.358   9.424
 8049SOL    HW225987   7.017   4.290   9.462
 8050SOL     OW25988   9.014   0.063   2.567
 8050SOL    HW125989   8.942   0.126   2.569
 8050SOL    HW225990   9.083   0.107   2.518
 8051SOL     OW25991   1.646   8.891   8.821
 8051SOL    HW125992   1.737   8.869   8.843
 8051SOL    HW225993   1.594   8.823   8.863
 8052SOL     OW25994  14.772   1.924   1.283
 8052SOL    HW125995  14.736   1.951   1.199
 8052SOL    HW225996  14.817   2.002   1.316
 8053SOL     OW25997  13.587  13.630   1.583
 8053SOL    HW125998  13.547  13.585   1.657
 8053SOL    HW225999  13.589  13.565   1.513
 8054SOL     OW26000   7.792   5.902   8.050
 8054SOL    HW126001   7.804   5.808   8.062
 8054SOL    HW226002   7.880   5.938   8.055
 8055SOL     OW26003  10.652   3.971  14.173
 8055SOL    HW126004  10.598   3.964  14.251
 8055SOL    HW226005  10.704   4.050  14.187
 8056SOL     OW26006   3.178   3.762   2.394
 8056SOL    HW126007   3.233   3.840   2.403
 8056SOL    HW226008   3.153   3.739   2.484
 8057SOL     OW26009  13.023   9.968  12.728
 8057SOL    HW126010  13.076   9.915  12.667
 8057SOL    HW226011  12.997   9.906  12.796
 8058SOL     OW26012   6.343  12.826   4.568
 8058SOL    HW126013   6.386  12.822   4.653
 8058SOL    HW226014   6.364  12.742   4.526
 8059SOL     OW26015   9.226   0.428   2.292
 8059SOL    HW126016   9.196   0.418   2.202
 8059SOL    HW226017   9.299   0.367   2.300
 8060SOL     OW26018   0.162  12.036  13.867
 8060SOL    HW126019   0.109  12.076  13.936
 8060SOL    HW226020   0.193  11.954  13.905
 8061SOL     OW26021   4.306  14.354   2.227
 8061SOL    HW126022   4.377  14.374   2.288
 8061SOL    HW226023   4.233  14.408   2.256
 8062SOL     OW26024  13.029   4.633   3.295
 8062SOL    HW126025  13.094   4.648   3.363
 8062SOL    HW226026  13.032   4.539   3.279
 8063SOL     OW26027   7.691  10.903   9.553
 8063SOL    HW126028   7.746  10.825   9.556
 8063SOL    HW226029   7.623  10.888   9.618
 8064SOL     OW26030  10.713   0.658   6.881
 8064SOL    HW126031  10.670   0.720   6.821
 8064SOL    HW226032  10.731   0.581   6.827
 8065SOL     OW26033   6.653   7.405   9.446
 8065SOL    HW126034   6.702   7.480   9.413
 8065SOL    HW226035   6.623   7.432   9.533
 8066SOL     OW26036  13.297  13.863  13.429
 8066SOL    HW126037  13.308  13.859  13.334
 8066SOL    HW226038  13.209  13.900  13.441
 8067SOL     OW26039   3.159   4.619   1.030
 8067SOL    HW126040   3.221   4.683   0.996
 8067SOL    HW226041   3.085   4.623   0.969
 8068SOL     OW26042   1.109   8.110  13.266
 8068SOL    HW126043   1.032   8.070  13.306
 8068SOL    HW226044   1.101   8.203  13.287
 8069SOL     OW26045  13.229  11.289   4.300
 8069SOL    HW126046  13.190  11.241   4.227
 8069SOL    HW226047  13.157  11.337   4.339
 8070SOL     OW26048   7.009  12.318  11.561
 8070SOL    HW126049   7.007  12.304  11.467
 8070SOL    HW226050   7.099  12.297  11.587
 8071SOL     OW26051   8.424  13.829   5.513
 8071SOL    HW126052   8.473  13.793   5.586
 8071SOL    HW226053   8.333  13.831   5.543
 8072SOL     OW26054   6.870   8.751   5.807
 8072SOL    HW126055   6.940   8.816   5.795
 8072SOL    HW226056   6.878   8.726   5.899
 8073SOL     OW26057  13.870   1.337  13.031
 8073SOL    HW126058  13.865   1.414  12.974
 8073SOL    HW226059  13.895   1.372  13.117
 8074SOL     OW26060   8.974   0.629  14.784
 8074SOL    HW126061   9.065   0.633  14.756
 8074SOL    HW226062   8.952   0.536  14.780
 8075SOL     OW26063   7.378   1.763   3.098
 8075SOL    HW126064   7.389   1.776   3.004
 8075SOL    HW226065   7.450   1.705   3.122
 8076SOL     OW26066   9.749  11.770   4.068
 8076SOL    HW126067   9.713  11.832   4.131
 8076SOL    HW226068   9.679  11.755   4.004
 8077SOL     OW26069   0.925  11.130   0.794
 8077SOL    HW126070   0.843  11.144   0.747
 8077SOL    HW226071   0.981  11.203   0.765
 8078SOL     OW26072   9.187   1.819   4.674
 8078SOL    HW126073   9.137   1.894   4.708
 8078SOL    HW226074   9.132   1.783   4.605
 8079SOL     OW26075   4.497   6.561   6.899
 8079SOL    HW126076   4.579   6.610   6.896
 8079SOL    HW226077   4.508   6.493   6.832
 8080SOL     OW26078   7.451  12.698   7.165
 8080SOL    HW126079   7.386  12.765   7.144
 8080SOL    HW226080   7.512  12.700   7.090
 8081SOL     OW26081  13.873   8.543   1.176
 8081SOL    HW126082  13.965   8.523   1.155
 8081SOL    HW226083  13.878   8.598   1.254
 8082SOL     OW26084   2.600   5.025  10.967
 8082SOL    HW126085   2.575   4.976  10.889
 8082SOL    HW226086   2.673   4.977  11.003
 8083SOL     OW26087   8.970   3.978   9.843
 8083SOL    HW126088   8.931   4.060   9.814
 8083SOL    HW226089   9.044   4.005   9.897
 8084SOL     OW26090  11.631  11.026   9.920
 8084SOL    HW126091  11.634  10.938   9.882
 8084SOL    HW226092  11.637  11.084   9.844
 8085SOL     OW26093  13.367   8.834   7.319
 8085SOL    HW126094  13.315   8.887   7.379
 8085SOL    HW226095  13.421   8.898   7.272
 8086SOL     OW26096   9.990  11.856  12.272
 8086SOL    HW126097   9.907  11.856  12.224
 8086SOL    HW226098  10.051  11.809  12.215
 8087SOL     OW26099  11.201   3.968   0.505
 8087SOL    HW126100  11.289   3.956   0.469
 8087SOL    HW226101  11.176   4.056   0.479
 8088SOL     OW26102   7.319   0.551   6.307
 8088SOL    HW126103   7.376   0.486   6.349
 8088SOL    HW226104   7.230   0.527   6.334
 8089SOL     OW26105   1.612   4.058   8.690
 8089SOL    HW126106   1.549   3.986   8.689
 8089SOL    HW226107   1.633   4.073   8.598
 8090SOL     OW26108  12.986  10.642  12.116
 8090SOL    HW126109  13.035  10.696  12.178
 8090SOL    HW226110  12.965  10.562  12.164
 8091SOL     OW26111   2.062   4.324   9.561
 8091SOL    HW126112   2.066   4.330   9.657
 8091SOL    HW226113   1.981   4.370   9.538
 8092SOL     OW26114   5.590   2.667  11.143
 8092SOL    HW126115   5.652   2.647  11.073
 8092SOL    HW226116   5.592   2.590  11.199
 8093SOL     OW26117   0.029  11.610   5.489
 8093SOL    HW126118   0.049  11.683   5.431
 8093SOL    HW226119   0.115  11.580   5.520
 8094SOL     OW26120   5.151   4.334   8.873
 8094SOL    HW126121   5.223   4.398   8.873
 8094SOL    HW226122   5.140   4.312   8.781
 8095SOL     OW26123  14.254   5.904  13.543
 8095SOL    HW126124  14.254   5.814  13.578
 8095SOL    HW226125  14.214   5.896  13.457
 8096SOL     OW26126   2.933   4.643  10.405
 8096SOL    HW126127   3.015   4.645  10.355
 8096SOL    HW226128   2.865   4.656  10.339
 8097SOL     OW26129   4.415   2.146   8.824
 8097SOL    HW126130   4.468   2.106   8.892
 8097SOL    HW226131   4.334   2.096   8.823
 8098SOL     OW26132   1.491  13.671  11.341
 8098SOL    HW126133   1.410  13.619  11.336
 8098SOL    HW226134   1.512  13.691  11.250
 8099SOL     OW26135   6.795   6.105   8.211
 8099SOL    HW126136   6.717   6.109   8.267
 8099SOL    HW226137   6.765   6.139   8.127
 8100SOL     OW26138   1.169   9.329  13.306
 8100SOL    HW126139   1.238   9.370  13.254
 8100SOL    HW226140   1.213   9.302  13.387
 8101SOL     OW26141  12.036  12.264   6.655
 8101SOL    HW126142  11.951  12.293   6.624
 8101SOL    HW226143  12.020  12.234   6.745
 8102SOL     OW26144   4.929   6.727   4.461
 8102SOL    HW126145   4.844   6.763   4.436
 8102SOL    HW226146   4.989   6.801   4.457
 8103SOL     OW26147  13.561   2.415  14.368
 8103SOL    HW126148  13.493   2.474  14.401
 8103SOL    HW226149  13.631   2.422  14.433
 8104SOL     OW26150   9.647   7.798   5.435
 8104SOL    HW126151   9.694   7.716   5.422
 8104SOL    HW226152   9.666   7.849   5.356
 8105SOL     OW26153   7.586  10.906   2.445
 8105SOL    HW126154   7.594  10.908   2.349
 8105SOL    HW226155   7.491  10.911   2.461
 8106SOL     OW26156   5.579   6.198  10.229
 8106SOL    HW126157   5.514   6.139  10.193
 8106SOL    HW226158   5.587   6.268  10.164
 8107SOL     OW26159  13.456   5.357   1.559
 8107SOL    HW126160  13.443   5.296   1.486
 8107SOL    HW226161  13.441   5.443   1.521
 8108SOL     OW26162   8.279   7.000   4.065
 8108SOL    HW126163   8.368   7.028   4.045
 8108SOL    HW226164   8.223   7.066   4.025
 8109SOL     OW26165  10.335  12.865   2.925
 8109SOL    HW126166  10.297  12.892   2.842
 8109SOL    HW226167  10.354  12.947   2.970
 8110SOL     OW26168  11.477  13.321   4.758
 8110SOL    HW126169  11.392  13.356   4.783
 8110SOL    HW226170  11.530  13.327   4.838
 8111SOL     OW26171  10.716  11.687  13.855
 8111SOL    HW126172  10.635  11.640  13.879
 8111SOL    HW226173  10.687  11.776  13.836
 8112SOL     OW26174   0.412   3.204   6.106
 8112SOL    HW126175   0.337   3.200   6.164
 8112SOL    HW226176   0.385   3.261   6.034
 8113SOL     OW26177   8.377   2.681   2.881
 8113SOL    HW126178   8.391   2.593   2.915
 8113SOL    HW226179   8.401   2.740   2.953
 8114SOL     OW26180   0.706   2.716  13.730
 8114SOL    HW126181   0.688   2.622  13.723
 8114SOL    HW226182   0.781   2.730  13.672
 8115SOL     OW26183   3.765  10.842   9.174
 8115SOL    HW126184   3.772  10.807   9.262
 8115SOL    HW226185   3.708  10.918   9.182
 8116SOL     OW26186   4.176  12.990  10.988
 8116SOL    HW126187   4.246  13.027  10.935
 8116SOL    HW226188   4.198  13.014  11.078
 8117SOL     OW26189   8.157   2.232   4.634
 8117SOL    HW126190   8.077   2.281   4.620
 8117SOL    HW226191   8.222   2.276   4.579
 8118SOL     OW26192   2.717  10.262   6.638
 8118SOL    HW126193   2.787  10.230   6.581
 8118SOL    HW226194   2.674  10.331   6.587
 8119SOL     OW26195   2.479  12.508   1.780
 8119SOL    HW126196   2.479  12.581   1.718
 8119SOL    HW226197   2.571  12.493   1.799
 8120SOL     OW26198   9.321  11.778  10.725
 8120SOL    HW126199   9.326  11.807  10.816
 8120SOL    HW226200   9.412  11.755  10.702
 8121SOL     OW26201  10.947  13.046   2.489
 8121SOL    HW126202  10.996  13.051   2.408
 8121SOL    HW226203  10.978  12.967   2.532
 8122SOL     OW26204  13.081   6.081  14.503
 8122SOL    HW126205  13.158   6.028  14.481
 8122SOL    HW226206  13.109   6.171  14.489
 8123SOL     OW26207  14.252   5.910  10.534
 8123SOL    HW126208  14.320   5.976  10.548
 8123SOL    HW226209  14.285   5.832  10.579
 8124SOL     OW26210   6.072  10.966  11.978
 8124SOL    HW126211   6.030  11.007  11.903
 8124SOL    HW226212   6.015  10.989  12.052
 8125SOL     OW26213  12.530   3.988  13.834
 8125SOL    HW126214  12.592   4.023  13.897
 8125SOL    HW226215  12.469   3.936  13.887
 8126SOL     OW26216  12.526   4.704   9.540
 8126SOL    HW126217  12.602   4.657   9.506
 8126SOL    HW226218  12.561   4.758   9.610
 8127SOL     OW26219   0.809  10.079  13.165
 8127SOL    HW126220   0.828  10.140  13.093
 8127SOL    HW226221   0.815   9.992  13.126
 8128SOL     OW26222  13.734  10.575   6.982
 8128SOL    HW126223  13.721  10.667   7.007
 8128SOL    HW226224  13.813  10.575   6.928
 8129SOL     OW26225   7.382   0.242  11.054
 8129SOL    HW126226   7.437   0.264  10.979
 8129SOL    HW226227   7.437   0.187  11.109
 8130SOL     OW26228  14.125   8.061  11.426
 8130SOL    HW126229  14.215   8.093  11.429
 8130SOL    HW226230  14.131   7.975  11.384
 8131SOL     OW26231   4.986  14.576  11.551
 8131SOL    HW126232   4.915  14.634  11.526
 8131SOL    HW226233   4.943  14.494  11.577
 8132SOL     OW26234   3.485  10.145  11.272
 8132SOL    HW126235   3.571  10.113  11.300
 8132SOL    HW226236   3.498  10.177  11.183
 8133SOL     OW26237  11.619  14.484   1.218
 8133SOL    HW126238  11.553  14.554   1.218
 8133SOL    HW226239  11.614  14.447   1.130
 8134SOL     OW26240   9.940   4.146   2.129
 8134SOL    HW126241   9.866   4.086   2.130
 8134SOL    HW226242  10.017   4.089   2.128
 8135SOL     OW26243   0.915  10.840  12.197
 8135SOL    HW126244   0.909  10.829  12.292
 8135SOL    HW226245   1.007  10.826  12.176
 8136SOL     OW26246   8.302  14.481  12.483
 8136SOL    HW126247   8.264  14.522  12.561
 8136SOL    HW226248   8.238  14.414  12.458
 8137SOL     OW26249  10.475   3.840   1.092
 8137SOL    HW126250  10.548   3.850   1.031
 8137SOL    HW226251  10.431   3.925   1.091
 8138SOL     OW26252   9.791  14.715   2.905
 8138SOL    HW126253   9.736  14.641   2.929
 8138SOL    HW226254   9.854  14.723   2.977
 8139SOL     OW26255   5.650   3.896  12.691
 8139SOL    HW126256   5.733   3.943  12.700
 8139SOL    HW226257   5.652   3.862  12.602
 8140SOL     OW26258   1.158  14.690   0.123
 8140SOL    HW126259   1.121  14.766   0.167
 8140SOL    HW226260   1.191  14.634   0.194
 8141SOL     OW26261  14.030   2.593  13.610
 8141SOL    HW126262  14.110   2.604  13.662
 8141SOL    HW226263  14.059   2.605  13.520
 8142SOL     OW26264  10.188   5.392   6.896
 8142SOL    HW126265  10.162   5.341   6.819
 8142SOL    HW226266  10.222   5.474   6.859
 8143SOL     OW26267   3.672  11.948  13.976
 8143SOL    HW126268   3.602  12.012  13.973
 8143SOL    HW226269   3.717  11.966  14.059
 8144SOL     OW26270   2.422   4.370   4.430
 8144SOL    HW126271   2.375   4.438   4.382
 8144SOL    HW226272   2.356   4.305   4.451
 8145SOL     OW26273  12.314   5.637   1.795
 8145SOL    HW126274  12.238   5.686   1.763
 8145SOL    HW226275  12.385   5.702   1.798
 8146SOL     OW26276   1.058   6.255  11.537
 8146SOL    HW126277   1.149   6.246  11.509
 8146SOL    HW226278   1.012   6.185  11.491
 8147SOL     OW26279  12.548  11.401   4.002
 8147SOL    HW126280  12.464  11.447   3.999
 8147SOL    HW226281  12.534  11.321   3.952
 8148SOL     OW26282  12.944   1.125   5.351
 8148SOL    HW126283  12.991   1.042   5.345
 8148SOL    HW226284  12.986   1.182   5.287
 8149SOL     OW26285  13.532   1.892  13.296
 8149SOL    HW126286  13.613   1.844  13.310
 8149SOL    HW226287  13.487   1.890  13.381
 8150SOL     OW26288   4.541   4.096   6.129
 8150SOL    HW126289   4.530   4.057   6.216
 8150SOL    HW226290   4.507   4.185   6.138
 8151SOL     OW26291   7.954   1.618  10.532
 8151SOL    HW126292   7.948   1.523  10.529
 8151SOL    HW226293   7.876   1.646  10.580
 8152SOL     OW26294   1.594   7.825   4.202
 8152SOL    HW126295   1.553   7.808   4.287
 8152SOL    HW226296   1.688   7.833   4.222
 8153SOL     OW26297   7.940   1.430  12.454
 8153SOL    HW126298   7.967   1.346  12.417
 8153SOL    HW226299   7.889   1.406  12.531
 8154SOL     OW26300   7.600   9.867  13.586
 8154SOL    HW126301   7.519   9.816  13.593
 8154SOL    HW226302   7.644   9.833  13.509
 8155SOL     OW26303  13.218   0.809   7.304
 8155SOL    HW126304  13.204   0.751   7.230
 8155SOL    HW226305  13.165   0.771   7.375
 8156SOL     OW26306   9.432   2.838   8.229
 8156SOL    HW126307   9.367   2.908   8.225
 8156SOL    HW226308   9.471   2.847   8.316
 8157SOL     OW26309   0.005   8.222   1.540
 8157SOL    HW126310  14.830   8.162   1.589
 8157SOL    HW226311   0.066   8.165   1.494
 8158SOL     OW26312  12.973   3.427   6.107
 8158SOL    HW126313  12.956   3.520   6.121
 8158SOL    HW226314  13.002   3.394   6.192
 8159SOL     OW26315   5.320  12.783   3.079
 8159SOL    HW126316   5.394  12.758   3.134
 8159SOL    HW226317   5.317  12.718   3.010
 8160SOL     OW26318   1.017   1.710   4.347
 8160SOL    HW126319   1.069   1.640   4.386
 8160SOL    HW226320   0.926   1.680   4.356
 8161SOL     OW26321   8.704   5.665   1.528
 8161SOL    HW126322   8.746   5.613   1.459
 8161SOL    HW226323   8.748   5.750   1.523
 8162SOL     OW26324   6.115   7.475  14.581
 8162SOL    HW126325   6.091   7.533  14.654
 8162SOL    HW226326   6.199   7.438  14.607
 8163SOL     OW26327   9.588   2.704   0.816
 8163SOL    HW126328   9.615   2.613   0.831
 8163SOL    HW226329   9.546   2.730   0.898
 8164SOL     OW26330   9.563  12.469  11.806
 8164SOL    HW126331   9.611  12.487  11.725
 8164SOL    HW226332   9.628  12.430  11.865
 8165SOL     OW26333   9.104   1.943   9.940
 8165SOL    HW126334   9.174   2.006   9.955
 8165SOL    HW226335   9.050   1.982   9.872
 8166SOL     OW26336   7.070   6.557   7.276
 8166SOL    HW126337   7.144   6.577   7.334
 8166SOL    HW226338   7.057   6.638   7.226
 8167SOL     OW26339   7.302   6.297   8.908
 8167SOL    HW126340   7.254   6.216   8.893
 8167SOL    HW226341   7.370   6.274   8.971
 8168SOL     OW26342   1.145   6.433   1.625
 8168SOL    HW126343   1.101   6.410   1.707
 8168SOL    HW226344   1.218   6.489   1.651
 8169SOL     OW26345   3.309   7.898  10.417
 8169SOL    HW126346   3.225   7.906  10.371
 8169SOL    HW226347   3.374   7.930  10.354
 8170SOL     OW26348  13.040   6.022  10.725
 8170SOL    HW126349  12.979   6.002  10.654
 8170SOL    HW226350  13.023   6.114  10.747
 8171SOL     OW26351   4.308  13.727  12.208
 8171SOL    HW126352   4.273  13.813  12.232
 8171SOL    HW226353   4.231  13.676  12.182
 8172SOL     OW26354   0.713   3.321   0.786
 8172SOL    HW126355   0.749   3.261   0.852
 8172SOL    HW226356   0.761   3.300   0.706
 8173SOL     OW26357   8.003  10.750   2.143
 8173SOL    HW126358   7.968  10.790   2.064
 8173SOL    HW226359   7.968  10.661   2.143
 8174SOL     OW26360   8.681   8.461   9.838
 8174SOL    HW126361   8.775   8.458   9.820
 8174SOL    HW226362   8.640   8.426   9.759
 8175SOL     OW26363   2.157   9.720   6.838
 8175SOL    HW126364   2.081   9.724   6.780
 8175SOL    HW226365   2.232   9.715   6.779
 8176SOL     OW26366  12.482  12.800   1.136
 8176SOL    HW126367  12.549  12.852   1.091
 8176SOL    HW226368  12.505  12.709   1.116
 8177SOL     OW26369   4.156   5.665  12.376
 8177SOL    HW126370   4.170   5.677  12.470
 8177SOL    HW226371   4.130   5.752  12.344
 8178SOL     OW26372   8.927   2.228   6.399
 8178SOL    HW126373   8.974   2.190   6.324
 8178SOL    HW226374   8.889   2.309   6.365
 8179SOL     OW26375  13.138   7.242  14.733
 8179SOL    HW126376  13.080   7.314  14.761
 8179SOL    HW226377  13.216   7.252  14.787
 8180SOL     OW26378  11.918   5.368  11.169
 8180SOL    HW126379  11.994   5.426  11.159
 8180SOL    HW226380  11.932   5.325  11.253
 8181SOL     OW26381   4.808   4.435   8.350
 8181SOL    HW126382   4.749   4.483   8.293
 8181SOL    HW226383   4.891   4.482   8.344
 8182SOL     OW26384   2.243   6.473   5.125
 8182SOL    HW126385   2.271   6.401   5.181
 8182SOL    HW226386   2.198   6.533   5.184
 8183SOL     OW26387   6.879  13.731   6.818
 8183SOL    HW126388   6.969  13.721   6.850
 8183SOL    HW226389   6.872  13.825   6.799
 8184SOL     OW26390   8.544   0.098   3.442
 8184SOL    HW126391   8.463   0.049   3.453
 8184SOL    HW226392   8.517   0.188   3.427
 8185SOL     OW26393   0.395   3.114  12.902
 8185SOL    HW126394   0.469   3.174  12.892
 8185SOL    HW226395   0.363   3.130  12.991
 8186SOL     OW26396   1.068   7.061   5.138
 8186SOL    HW126397   1.041   7.091   5.051
 8186SOL    HW226398   1.149   7.011   5.122
 8187SOL     OW26399  13.854   6.361   0.335
 8187SOL    HW126400  13.904   6.390   0.259
 8187SOL    HW226401  13.845   6.267   0.324
 8188SOL     OW26402  13.383   2.512   5.560
 8188SOL    HW126403  13.299   2.557   5.561
 8188SOL    HW226404  13.447   2.581   5.576
 8189SOL     OW26405   5.968   5.694  14.111
 8189SOL    HW126406   6.022   5.719  14.186
 8189SOL    HW226407   5.998   5.750  14.040
 8190SOL     OW26408   4.601   8.857  13.641
 8190SOL    HW126409   4.606   8.953  13.640
 8190SOL    HW226410   4.676   8.828  13.589
 8191SOL     OW26411   4.025   9.029   0.196
 8191SOL    HW126412   3.984   9.107   0.159
 8191SOL    HW226413   3.955   8.984   0.243
 8192SOL     OW26414  10.705   6.126  14.572
 8192SOL    HW126415  10.611   6.110  14.561
 8192SOL    HW226416  10.744   6.039  14.577
 8193SOL     OW26417   1.799  14.293  11.496
 8193SOL    HW126418   1.770  14.381  11.518
 8193SOL    HW226419   1.843  14.262  11.575
 8194SOL     OW26420   1.214   4.500  13.314
 8194SOL    HW126421   1.188   4.589  13.290
 8194SOL    HW226422   1.307   4.495  13.290
 8195SOL     OW26423   9.798   1.825   3.475
 8195SOL    HW126424   9.835   1.875   3.402
 8195SOL    HW226425   9.872   1.779   3.513
 8196SOL     OW26426  14.335   8.944   9.761
 8196SOL    HW126427  14.269   8.881   9.735
 8196SOL    HW226428  14.287   9.010   9.811
 8197SOL     OW26429  11.474   5.476  10.142
 8197SOL    HW126430  11.466   5.382  10.127
 8197SOL    HW226431  11.567   5.491  10.154
 8198SOL     OW26432   4.846   1.989   7.263
 8198SOL    HW126433   4.873   2.025   7.178
 8198SOL    HW226434   4.845   2.065   7.321
 8199SOL     OW26435   8.154   3.530   2.235
 8199SOL    HW126436   8.110   3.497   2.313
 8199SOL    HW226437   8.103   3.606   2.208
 8200SOL     OW26438  12.588  11.537   4.563
 8200SOL    HW126439  12.673  11.573   4.587
 8200SOL    HW226440  12.608  11.473   4.494
 8201SOL     OW26441  13.828  14.475   4.963
 8201SOL    HW126442  13.894  14.456   4.895
 8201SOL    HW226443  13.789  14.558   4.935
 8202SOL     OW26444   5.330   6.043  10.866
 8202SOL    HW126445   5.383   5.964  10.864
 8202SOL    HW226446   5.321   6.068  10.774
 8203SOL     OW26447   8.003   7.049   1.363
 8203SOL    HW126448   7.935   7.063   1.429
 8203SOL    HW226449   8.025   6.956   1.370
 8204SOL     OW26450   8.008   8.803   3.438
 8204SOL    HW126451   8.082   8.769   3.486
 8204SOL    HW226452   7.978   8.878   3.489
 8205SOL     OW26453   9.647   9.685   3.285
 8205SOL    HW126454   9.583   9.636   3.336
 8205SOL    HW226455   9.721   9.697   3.345
 8206SOL     OW26456   1.087   0.653  14.099
 8206SOL    HW126457   1.000   0.615  14.088
 8206SOL    HW226458   1.082   0.738  14.054
 8207SOL     OW26459  14.360   8.851   5.690
 8207SOL    HW126460  14.287   8.804   5.730
 8207SOL    HW226461  14.413   8.784   5.648
 8208SOL     OW26462   9.272   6.835   8.270
 8208SOL    HW126463   9.322   6.779   8.212
 8208SOL    HW226464   9.277   6.923   8.231
 8209SOL     OW26465   1.609   5.821   2.116
 8209SOL    HW126466   1.554   5.817   2.038
 8209SOL    HW226467   1.667   5.896   2.100
 8210SOL     OW26468   1.048  10.762   6.068
 8210SOL    HW126469   0.979  10.802   6.014
 8210SOL    HW226470   1.034  10.798   6.155
 8211SOL     OW26471   2.696   6.604   9.133
 8211SOL    HW126472   2.712   6.669   9.201
 8211SOL    HW226473   2.778   6.600   9.084
 8212SOL     OW26474   9.038  12.302  13.923
 8212SOL    HW126475   9.082  12.365  13.866
 8212SOL    HW226476   9.095  12.296  14.000
 8213SOL     OW26477  10.352   2.372   6.561
 8213SOL    HW126478  10.417   2.366   6.491
 8213SOL    HW226479  10.306   2.288   6.559
 8214SOL     OW26480   6.590   9.777   3.066
 8214SOL    HW126481   6.581   9.683   3.079
 8214SOL    HW226482   6.511   9.803   3.019
 8215SOL     OW26483  12.823  10.861  13.058
 8215SOL    HW126484  12.831  10.833  12.967
 8215SOL    HW226485  12.840  10.782  13.109
 8216SOL     OW26486  10.221   2.800  11.619
 8216SOL    HW126487  10.255   2.836  11.701
 8216SOL    HW226488  10.186   2.714  11.643
 8217SOL     OW26489  13.458   9.273   2.697
 8217SOL    HW126490  13.368   9.241   2.696
 8217SOL    HW226491  13.472   9.305   2.786
 8218SOL     OW26492  13.806   3.066   7.476
 8218SOL    HW126493  13.886   3.032   7.516
 8218SOL    HW226494  13.836   3.139   7.422
 8219SOL     OW26495   1.237   5.026   9.320
 8219SOL    HW126496   1.321   5.054   9.283
 8219SOL    HW226497   1.240   5.054   9.411
 8220SOL     OW26498   1.525   4.135  10.931
 8220SOL    HW126499   1.546   4.059  10.876
 8220SOL    HW226500   1.600   4.142  10.991
 8221SOL     OW26501   3.794   5.838   5.204
 8221SOL    HW126502   3.883   5.807   5.220
 8221SOL    HW226503   3.805   5.909   5.141
 8222SOL     OW26504   6.247   0.070   7.460
 8222SOL    HW126505   6.155   0.045   7.448
 8222SOL    HW226506   6.252   0.161   7.431
 8223SOL     OW26507   9.481   0.910  11.502
 8223SOL    HW126508   9.404   0.945  11.547
 8223SOL    HW226509   9.492   0.822  11.538
 8224SOL     OW26510  10.560  13.200   5.996
 8224SOL    HW126511  10.510  13.229   5.919
 8224SOL    HW226512  10.498  13.203   6.068
 8225SOL     OW26513   9.527  12.492  14.324
 8225SOL    HW126514   9.454  12.553  14.331
 8225SOL    HW226515   9.579  12.525  14.251
 8226SOL     OW26516  11.195   9.901   4.043
 8226SOL    HW126517  11.268   9.957   4.068
 8226SOL    HW226518  11.236   9.822   4.008
 8227SOL     OW26519   1.542   0.275   7.440
 8227SOL    HW126520   1.543   0.362   7.400
 8227SOL    HW226521   1.452   0.264   7.472
 8228SOL     OW26522   3.977   0.249   8.053
 8228SOL    HW126523   3.991   0.332   8.009
 8228SOL    HW226524   3.936   0.272   8.137
 8229SOL     OW26525   0.826   0.493   5.635
 8229SOL    HW126526   0.782   0.578   5.638
 8229SOL    HW226527   0.835   0.474   5.541
 8230SOL     OW26528   5.735   1.034   2.166
 8230SOL    HW126529   5.821   1.064   2.195
 8230SOL    HW226530   5.675   1.105   2.190
 8231SOL     OW26531   3.859  12.893  12.908
 8231SOL    HW126532   3.799  12.820  12.897
 8231SOL    HW226533   3.944  12.860  12.878
 8232SOL     OW26534   0.223   7.804   0.323
 8232SOL    HW126535   0.238   7.841   0.410
 8232SOL    HW226536   0.185   7.717   0.340
 8233SOL     OW26537   0.028   5.168   9.951
 8233SOL    HW126538   0.051   5.083   9.913
 8233SOL    HW226539   0.053   5.232   9.883
 8234SOL     OW26540   4.346   3.512   0.739
 8234SOL    HW126541   4.295   3.464   0.674
 8234SOL    HW226542   4.283   3.568   0.783
 8235SOL     OW26543   0.423  12.663  14.220
 8235SOL    HW126544   0.364  12.627  14.287
 8235SOL    HW226545   0.509  12.628  14.243
 8236SOL     OW26546   1.079   2.872   9.457
 8236SOL    HW126547   1.048   2.816   9.386
 8236SOL    HW226548   1.141   2.816   9.506
 8237SOL     OW26549   8.614  13.680   4.086
 8237SOL    HW126550   8.701  13.714   4.065
 8237SOL    HW226551   8.629  13.588   4.108
 8238SOL     OW26552   9.516   8.542   0.642
 8238SOL    HW126553   9.454   8.577   0.579
 8238SOL    HW226554   9.531   8.452   0.613
 8239SOL     OW26555   7.880   6.664   5.534
 8239SOL    HW126556   7.900   6.752   5.502
 8239SOL    HW226557   7.888   6.671   5.630
 8240SOL     OW26558  10.268  13.296   8.357
 8240SOL    HW126559  10.323  13.371   8.379
 8240SOL    HW226560  10.282  13.234   8.429
 8241SOL     OW26561   3.992  14.705   0.522
 8241SOL    HW126562   3.962  14.735   0.608
 8241SOL    HW226563   3.914  14.668   0.481
 8242SOL     OW26564  10.093   9.405   7.842
 8242SOL    HW126565  10.063   9.314   7.847
 8242SOL    HW226566  10.062   9.436   7.757
 8243SOL     OW26567   0.693   9.887   1.450
 8243SOL    HW126568   0.654   9.974   1.441
 8243SOL    HW226569   0.628   9.836   1.496
 8244SOL     OW26570   5.930  11.140  12.841
 8244SOL    HW126571   5.974  11.092  12.771
 8244SOL    HW226572   5.844  11.100  12.847
 8245SOL     OW26573   2.527   9.080   5.229
 8245SOL    HW126574   2.452   9.128   5.264
 8245SOL    HW226575   2.490   8.998   5.198
 8246SOL     OW26576   7.880  14.468   7.448
 8246SOL    HW126577   7.826  14.389   7.455
 8246SOL    HW226578   7.960  14.439   7.404
 8247SOL     OW26579   7.677   4.523   1.836
 8247SOL    HW126580   7.718   4.437   1.827
 8247SOL    HW226581   7.731   4.582   1.784
 8248SOL     OW26582  12.182  12.235  12.933
 8248SOL    HW126583  12.132  12.154  12.931
 8248SOL    HW226584  12.273  12.206  12.946
 8249SOL     OW26585  12.073  11.473   5.008
 8249SOL    HW126586  12.062  11.487   4.914
 8249SOL    HW226587  12.078  11.378   5.018
 8250SOL     OW26588  10.155   0.439   7.417
 8250SOL    HW126589  10.182   0.382   7.344
 8250SOL    HW226590  10.192   0.398   7.494
 8251SOL     OW26591   4.513  12.097   8.247
 8251SOL    HW126592   4.465  12.150   8.309
 8251SOL    HW226593   4.453  12.086   8.173
 8252SOL     OW26594  13.399   9.367  11.814
 8252SOL    HW126595  13.493   9.352  11.828
 8252SOL    HW226596  13.377   9.439  11.872
 8253SOL     OW26597   1.924   3.149   1.840
 8253SOL    HW126598   1.875   3.203   1.779
 8253SOL    HW226599   1.993   3.206   1.873
 8254SOL     OW26600  13.012   8.873  11.940
 8254SOL    HW126601  12.947   8.878  11.870
 8254SOL    HW226602  13.050   8.960  11.944
 8255SOL     OW26603   4.456  11.209   3.447
 8255SOL    HW126604   4.382  11.148   3.442
 8255SOL    HW226605   4.475  11.215   3.541
 8256SOL     OW26606   2.458  12.422   5.175
 8256SOL    HW126607   2.383  12.404   5.117
 8256SOL    HW226608   2.442  12.511   5.207
 8257SOL     OW26609   6.226  10.411  11.368
 8257SOL    HW126610   6.177  10.380  11.292
 8257SOL    HW226611   6.286  10.477  11.334
 8258SOL     OW26612   8.988   6.069   4.995
 8258SOL    HW126613   8.923   6.064   5.065
 8258SOL    HW226614   9.052   6.132   5.026
 8259SOL     OW26615  14.662  10.411   1.671
 8259SOL    HW126616  14.575  10.413   1.631
 8259SOL    HW226617  14.646  10.406   1.765
 8260SOL     OW26618  10.290   1.281   9.004
 8260SOL    HW126619  10.315   1.314   9.090
 8260SOL    HW226620  10.238   1.203   9.023
 8261SOL     OW26621   1.217   5.128  10.971
 8261SOL    HW126622   1.277   5.198  10.998
 8261SOL    HW226623   1.230   5.121  10.876
 8262SOL     OW26624   3.034  13.904   7.742
 8262SOL    HW126625   3.093  13.828   7.737
 8262SOL    HW226626   3.087  13.977   7.712
 8263SOL     OW26627   4.281  11.584  13.615
 8263SOL    HW126628   4.337  11.506  13.616
 8263SOL    HW226629   4.323  11.643  13.553
 8264SOL     OW26630   6.991  13.965  12.391
 8264SOL    HW126631   6.987  13.948  12.297
 8264SOL    HW226632   6.964  13.882  12.431
 8265SOL     OW26633  14.005   5.906   4.815
 8265SOL    HW126634  14.039   5.916   4.903
 8265SOL    HW226635  13.983   5.813   4.808
 8266SOL     OW26636  12.209  11.788   6.910
 8266SOL    HW126637  12.270  11.765   6.980
 8266SOL    HW226638  12.223  11.721   6.843
 8267SOL     OW26639   8.158  14.528   1.356
 8267SOL    HW126640   8.096  14.456   1.366
 8267SOL    HW226641   8.233  14.503   1.411
 8268SOL     OW26642   3.403   3.709  10.049
 8268SOL    HW126643   3.320   3.668  10.027
 8268SOL    HW226644   3.397   3.797  10.012
 8269SOL     OW26645   1.431   5.959   3.925
 8269SOL    HW126646   1.497   5.890   3.917
 8269SOL    HW226647   1.480   6.041   3.913
 8270SOL     OW26648   8.850  13.638   2.941
 8270SOL    HW126649   8.938  13.625   2.975
 8270SOL    HW226650   8.801  13.561   2.970
 8271SOL     OW26651   3.855  12.834   7.155
 8271SOL    HW126652   3.859  12.926   7.182
 8271SOL    HW226653   3.773  12.802   7.191
 8272SOL     OW26654   3.587  13.354   6.389
 8272SOL    HW126655   3.567  13.437   6.433
 8272SOL    HW226656   3.512  13.339   6.332
 8273SOL     OW26657   8.027  10.967   1.610
 8273SOL    HW126658   7.953  10.967   1.549
 8273SOL    HW226659   8.088  11.031   1.574
 8274SOL     OW26660   1.833   3.092   9.923
 8274SOL    HW126661   1.880   3.174   9.932
 8274SOL    HW226662   1.789   3.080  10.007
 8275SOL     OW26663   2.907   0.967  13.231
 8275SOL    HW126664   2.850   0.987  13.157
 8275SOL    HW226665   2.873   1.020  13.303
 8276SOL     OW26666   8.044  13.193   5.212
 8276SOL    HW126667   8.026  13.281   5.246
 8276SOL    HW226668   8.001  13.134   5.275
 8277SOL     OW26669  13.294   0.119   0.138
 8277SOL    HW126670  13.354   0.142   0.208
 8277SOL    HW226671  13.287   0.198   0.085
 8278SOL     OW26672   6.762  14.292   6.813
 8278SOL    HW126673   6.843  14.264   6.856
 8278SOL    HW226674   6.791  14.340   6.736
 8279SOL     OW26675   3.753  11.830   6.058
 8279SOL    HW126676   3.782  11.912   6.099
 8279SOL    HW226677   3.668  11.851   6.019
 8280SOL     OW26678   3.054   5.750  12.805
 8280SOL    HW126679   3.033   5.843  12.790
 8280SOL    HW226680   3.007   5.704  12.735
 8281SOL     OW26681   1.427   3.974   5.399
 8281SOL    HW126682   1.477   3.894   5.385
 8281SOL    HW226683   1.424   4.015   5.312
 8282SOL     OW26684   2.743   1.282   1.363
 8282SOL    HW126685   2.805   1.225   1.316
 8282SOL    HW226686   2.732   1.240   1.448
 8283SOL     OW26687  13.137  11.754   1.756
 8283SOL    HW126688  13.226  11.762   1.790
 8283SOL    HW226689  13.149  11.727   1.664
 8284SOL     OW26690   6.799   3.646   0.161
 8284SOL    HW126691   6.789   3.567   0.215
 8284SOL    HW226692   6.869   3.624   0.099
 8285SOL     OW26693   6.335  13.448   5.698
 8285SOL    HW126694   6.337  13.447   5.794
 8285SOL    HW226695   6.301  13.535   5.676
 8286SOL     OW26696   9.858   5.677   7.135
 8286SOL    HW126697   9.877   5.620   7.060
 8286SOL    HW226698   9.912   5.642   7.206
 8287SOL     OW26699   6.724  14.378   5.777
 8287SOL    HW126700   6.650  14.431   5.805
 8287SOL    HW226701   6.797  14.440   5.773
 8288SOL     OW26702   6.550   7.718  10.334
 8288SOL    HW126703   6.509   7.641  10.294
 8288SOL    HW226704   6.584   7.686  10.418
 8289SOL     OW26705  14.718   2.548   8.517
 8289SOL    HW126706  14.810   2.570   8.527
 8289SOL    HW226707  14.672   2.628   8.540
 8290SOL     OW26708  14.067  13.325  12.492
 8290SOL    HW126709  14.159  13.329  12.520
 8290SOL    HW226710  14.023  13.391  12.544
 8291SOL     OW26711  13.815   3.178   9.659
 8291SOL    HW126712  13.722   3.160   9.648
 8291SOL    HW226713  13.838   3.231   9.583
 8292SOL     OW26714  14.566  14.532   4.939
 8292SOL    HW126715  14.602  14.614   4.973
 8292SOL    HW226716  14.477  14.554   4.912
 8293SOL     OW26717   1.119  10.958   7.225
 8293SOL    HW126718   1.139  10.872   7.188
 8293SOL    HW226719   1.032  10.980   7.190
 8294SOL     OW26720   3.281   3.043   2.775
 8294SOL    HW126721   3.188   3.037   2.750
 8294SOL    HW226722   3.327   2.993   2.708
 8295SOL     OW26723  13.534   4.834  11.597
 8295SOL    HW126724  13.569   4.756  11.554
 8295SOL    HW226725  13.523   4.808  11.689
 8296SOL     OW26726   2.832   5.250   1.692
 8296SOL    HW126727   2.921   5.216   1.701
 8296SOL    HW226728   2.782   5.178   1.654
 8297SOL     OW26729   1.878   2.604   2.753
 8297SOL    HW126730   1.896   2.542   2.824
 8297SOL    HW226731   1.787   2.630   2.767
 8298SOL     OW26732  11.876   2.031   1.451
 8298SOL    HW126733  11.883   2.014   1.545
 8298SOL    HW226734  11.808   2.098   1.443
 8299SOL     OW26735   6.686   6.183  12.942
 8299SOL    HW126736   6.625   6.150  12.876
 8299SOL    HW226737   6.761   6.124  12.938
 8300SOL     OW26738   2.380  12.325   6.161
 8300SOL    HW126739   2.319  12.372   6.105
 8300SOL    HW226740   2.391  12.381   6.238
 8301SOL     OW26741  10.611   3.888   4.508
 8301SOL    HW126742  10.552   3.829   4.460
 8301SOL    HW226743  10.554   3.932   4.572
 8302SOL     OW26744  14.115   0.618  10.133
 8302SOL    HW126745  14.189   0.558  10.123
 8302SOL    HW226746  14.071   0.588  10.212
 8303SOL     OW26747  12.564   8.522   7.796
 8303SOL    HW126748  12.613   8.567   7.727
 8303SOL    HW226749  12.492   8.581   7.818
 8304SOL     OW26750  13.722   8.489   8.127
 8304SOL    HW126751  13.758   8.479   8.039
 8304SOL    HW226752  13.796   8.517   8.181
 8305SOL     OW26753  13.079   6.745   1.200
 8305SOL    HW126754  13.082   6.665   1.253
 8305SOL    HW226755  13.008   6.730   1.138
 8306SOL     OW26756   4.779   5.061   4.568
 8306SOL    HW126757   4.723   5.044   4.644
 8306SOL    HW226758   4.867   5.071   4.605
 8307SOL     OW26759   7.086   3.485   6.846
 8307SOL    HW126760   7.068   3.533   6.765
 8307SOL    HW226761   7.003   3.443   6.868
 8308SOL     OW26762   8.596  11.751   8.751
 8308SOL    HW126763   8.689  11.739   8.768
 8308SOL    HW226764   8.577  11.693   8.677
 8309SOL     OW26765   6.054  10.981   1.020
 8309SOL    HW126766   6.113  11.003   0.948
 8309SOL    HW226767   5.985  11.047   1.015
 8310SOL     OW26768  14.101   4.664   7.635
 8310SOL    HW126769  14.116   4.742   7.688
 8310SOL    HW226770  14.139   4.593   7.687
 8311SOL     OW26771   8.903   4.204  14.536
 8311SOL    HW126772   8.829   4.262  14.518
 8311SOL    HW226773   8.980   4.258  14.520
 8312SOL     OW26774   2.285  13.526   6.290
 8312SOL    HW126775   2.278  13.528   6.385
 8312SOL    HW226776   2.367  13.572   6.271
 8313SOL     OW26777   7.701  12.661   8.571
 8313SOL    HW126778   7.697  12.714   8.491
 8313SOL    HW226779   7.770  12.702   8.623
 8314SOL     OW26780   8.994  11.469  12.839
 8314SOL    HW126781   9.030  11.505  12.920
 8314SOL    HW226782   8.949  11.388  12.866
 8315SOL     OW26783  12.183   2.934   3.507
 8315SOL    HW126784  12.256   2.902   3.560
 8315SOL    HW226785  12.201   3.028   3.496
 8316SOL     OW26786   4.606   8.478   8.721
 8316SOL    HW126787   4.578   8.393   8.756
 8316SOL    HW226788   4.566   8.542   8.780
 8317SOL     OW26789   5.419  13.235  11.784
 8317SOL    HW126790   5.476  13.309  11.802
 8317SOL    HW226791   5.432  13.216  11.691
 8318SOL     OW26792   9.729   1.550  10.007
 8318SOL    HW126793   9.703   1.473   9.956
 8318SOL    HW226794   9.819   1.567   9.981
 8319SOL     OW26795   3.549   5.348  12.090
 8319SOL    HW126796   3.628   5.359  12.142
 8319SOL    HW226797   3.565   5.400  12.011
 8320SOL     OW26798   5.063   1.539   8.890
 8320SOL    HW126799   5.041   1.518   8.799
 8320SOL    HW226800   5.008   1.614   8.912
 8321SOL     OW26801  11.143  12.107   3.437
 8321SOL    HW126802  11.150  12.203   3.428
 8321SOL    HW226803  11.062  12.094   3.486
 8322SOL     OW26804   3.231   8.349  11.134
 8322SOL    HW126805   3.300   8.340  11.068
 8322SOL    HW226806   3.151   8.323  11.089
 8323SOL     OW26807   3.851   6.972   5.631
 8323SOL    HW126808   3.887   6.994   5.545
 8323SOL    HW226809   3.920   6.923   5.675
 8324SOL     OW26810  12.129   6.642   4.488
 8324SOL    HW126811  12.105   6.619   4.398
 8324SOL    HW226812  12.225   6.644   4.487
 8325SOL     OW26813  11.584   2.044   8.984
 8325SOL    HW126814  11.650   2.056   9.053
 8325SOL    HW226815  11.635   2.032   8.904
 8326SOL     OW26816   3.529   1.679   2.900
 8326SOL    HW126817   3.498   1.763   2.934
 8326SOL    HW226818   3.512   1.683   2.806
 8327SOL     OW26819   0.033   8.018  13.818
 8327SOL    HW126820   0.050   8.091  13.877
 8327SOL    HW226821   0.040   7.940  13.873
 8328SOL     OW26822   4.316   0.460   1.734
 8328SOL    HW126823   4.404   0.495   1.719
 8328SOL    HW226824   4.266   0.487   1.657
 8329SOL     OW26825  12.085  11.094   7.408
 8329SOL    HW126826  12.099  11.130   7.496
 8329SOL    HW226827  11.991  11.102   7.394
 8330SOL     OW26828   4.503   1.551  10.417
 8330SOL    HW126829   4.438   1.579  10.482
 8330SOL    HW226830   4.575   1.516  10.470
 8331SOL     OW26831   1.209   6.278  13.975
 8331SOL    HW126832   1.204   6.259  14.068
 8331SOL    HW226833   1.285   6.336  13.966
 8332SOL     OW26834   5.560  12.395   5.985
 8332SOL    HW126835   5.608  12.319   6.018
 8332SOL    HW226836   5.624  12.466   5.986
 8333SOL     OW26837   2.732  12.440  14.418
 8333SOL    HW126838   2.643  12.468  14.398
 8333SOL    HW226839   2.727  12.410  14.509
 8334SOL     OW26840   6.740   9.859   6.996
 8334SOL    HW126841   6.749   9.926   6.929
 8334SOL    HW226842   6.824   9.811   6.993
 8335SOL     OW26843  12.595  12.529   4.245
 8335SOL    HW126844  12.550  12.465   4.300
 8335SOL    HW226845  12.688  12.518   4.266
 8336SOL     OW26846   6.367   2.794   4.097
 8336SOL    HW126847   6.428   2.807   4.024
 8336SOL    HW226848   6.281   2.814   4.060
 8337SOL     OW26849  13.778   1.499   1.747
 8337SOL    HW126850  13.844   1.462   1.805
 8337SOL    HW226851  13.704   1.520   1.804
 8338SOL     OW26852  13.015   4.526   1.081
 8338SOL    HW126853  12.920   4.513   1.085
 8338SOL    HW226854  13.029   4.574   0.999
 8339SOL     OW26855  14.304   2.547   1.266
 8339SOL    HW126856  14.392   2.568   1.237
 8339SOL    HW226857  14.256   2.630   1.258
 8340SOL     OW26858   0.995   6.716   4.909
 8340SOL    HW126859   0.950   6.771   4.974
 8340SOL    HW226860   0.927   6.694   4.845
 8341SOL     OW26861   3.104  11.533  13.189
 8341SOL    HW126862   3.071  11.623  13.195
 8341SOL    HW226863   3.199  11.543  13.182
 8342SOL     OW26864   2.742   8.079   2.167
 8342SOL    HW126865   2.720   8.159   2.214
 8342SOL    HW226866   2.736   8.103   2.074
 8343SOL     OW26867   6.398   6.381  12.303
 8343SOL    HW126868   6.380   6.331  12.224
 8343SOL    HW226869   6.315   6.422  12.326
 8344SOL     OW26870  12.118   0.936  13.990
 8344SOL    HW126871  12.126   0.986  13.908
 8344SOL    HW226872  12.024   0.919  13.998
 8345SOL     OW26873   4.693   8.344  11.097
 8345SOL    HW126874   4.631   8.413  11.120
 8345SOL    HW226875   4.692   8.342  11.001
 8346SOL     OW26876   4.353   9.351   0.829
 8346SOL    HW126877   4.375   9.350   0.922
 8346SOL    HW226878   4.432   9.383   0.786
 8347SOL     OW26879   4.221   3.590  10.532
 8347SOL    HW126880   4.179   3.650  10.594
 8347SOL    HW226881   4.314   3.596  10.551
 8348SOL     OW26882   6.713  11.281  10.843
 8348SOL    HW126883   6.679  11.245  10.925
 8348SOL    HW226884   6.785  11.337  10.869
 8349SOL     OW26885  10.510   8.962   9.621
 8349SOL    HW126886  10.503   9.034   9.559
 8349SOL    HW226887  10.420   8.932   9.633
 8350SOL     OW26888  13.275   9.382  13.955
 8350SOL    HW126889  13.286   9.290  13.979
 8350SOL    HW226890  13.199   9.411  14.005
 8351SOL     OW26891  11.814   3.910   8.515
 8351SOL    HW126892  11.753   3.846   8.552
 8351SOL    HW226893  11.794   3.991   8.561
 8352SOL     OW26894   2.456   4.766  12.252
 8352SOL    HW126895   2.484   4.855  12.229
 8352SOL    HW226896   2.382   4.749  12.194
 8353SOL     OW26897   7.332  14.662  11.571
 8353SOL    HW126898   7.390  14.685  11.499
 8353SOL    HW226899   7.277  14.592  11.536
 8354SOL     OW26900   5.605   4.429   6.141
 8354SOL    HW126901   5.548   4.418   6.217
 8354SOL    HW226902   5.555   4.485   6.082
 8355SOL     OW26903  11.473   0.576  14.859
 8355SOL    HW126904  11.455   0.638  14.788
 8355SOL    HW226905  11.537   0.515  14.821
 8356SOL     OW26906   4.971   2.108   4.635
 8356SOL    HW126907   4.901   2.087   4.572
 8356SOL    HW226908   5.044   2.052   4.609
 8357SOL     OW26909  14.690   8.436  12.420
 8357SOL    HW126910  14.645   8.359  12.455
 8357SOL    HW226911  14.782   8.410  12.414
 8358SOL     OW26912   6.432   4.512   7.185
 8358SOL    HW126913   6.467   4.428   7.154
 8358SOL    HW226914   6.340   4.494   7.203
 8359SOL     OW26915  13.606   8.202  12.800
 8359SOL    HW126916  13.621   8.132  12.862
 8359SOL    HW226917  13.691   8.218  12.759
 8360SOL     OW26918   5.186   9.631   9.213
 8360SOL    HW126919   5.247   9.701   9.235
 8360SOL    HW226920   5.170   9.642   9.119
 8361SOL     OW26921   2.216   8.968   2.181
 8361SOL    HW126922   2.167   8.990   2.261
 8361SOL    HW226923   2.272   9.044   2.167
 8362SOL     OW26924  13.449  10.940   7.554
 8362SOL    HW126925  13.485  10.996   7.485
 8362SOL    HW226926  13.457  10.852   7.519
 8363SOL     OW26927   1.509  13.663   0.561
 8363SOL    HW126928   1.508  13.569   0.545
 8363SOL    HW226929   1.479  13.673   0.651
 8364SOL     OW26930  11.239   3.184  10.384
 8364SOL    HW126931  11.295   3.106  10.379
 8364SOL    HW226932  11.165   3.156  10.438
 8365SOL     OW26933   5.888  13.343   7.332
 8365SOL    HW126934   5.942  13.386   7.266
 8365SOL    HW226935   5.917  13.252   7.331
 8366SOL     OW26936   2.444  12.953   7.160
 8366SOL    HW126937   2.388  12.902   7.219
 8366SOL    HW226938   2.386  13.021   7.126
 8367SOL     OW26939  13.571   6.497   9.990
 8367SOL    HW126940  13.563   6.442   9.912
 8367SOL    HW226941  13.535   6.582   9.962
 8368SOL     OW26942  12.238  11.113   9.066
 8368SOL    HW126943  12.146  11.117   9.093
 8368SOL    HW226944  12.286  11.102   9.148
 8369SOL     OW26945  14.694  14.453   0.687
 8369SOL    HW126946  14.778  14.425   0.652
 8369SOL    HW226947  14.632  14.438   0.616
 8370SOL     OW26948   2.421   6.536  14.347
 8370SOL    HW126949   2.392   6.615  14.392
 8370SOL    HW226950   2.434   6.472  14.418
 8371SOL     OW26951  12.735   6.123   8.591
 8371SOL    HW126952  12.753   6.033   8.619
 8371SOL    HW226953  12.712   6.169   8.671
 8372SOL     OW26954   6.935   3.735   2.971
 8372SOL    HW126955   6.842   3.747   2.988
 8372SOL    HW226956   6.954   3.795   2.898
 8373SOL     OW26957  13.738   2.537   6.689
 8373SOL    HW126958  13.765   2.598   6.619
 8373SOL    HW226959  13.793   2.561   6.763
 8374SOL     OW26960   9.812   5.378   8.318
 8374SOL    HW126961   9.827   5.287   8.292
 8374SOL    HW226962   9.880   5.397   8.383
 8375SOL     OW26963   6.489  10.983  12.786
 8375SOL    HW126964   6.398  10.954  12.776
 8375SOL    HW226965   6.508  10.968  12.879
 8376SOL     OW26966   2.023  11.484  10.859
 8376SOL    HW126967   2.088  11.421  10.891
 8376SOL    HW226968   1.958  11.430  10.814
 8377SOL     OW26969  11.043   7.231   3.940
 8377SOL    HW126970  10.974   7.229   4.007
 8377SOL    HW226971  11.089   7.313   3.957
 8378SOL     OW26972   5.594   3.156   8.134
 8378SOL    HW126973   5.516   3.182   8.084
 8378SOL    HW226974   5.629   3.238   8.169
 8379SOL     OW26975   2.059   6.220   1.523
 8379SOL    HW126976   2.098   6.249   1.605
 8379SOL    HW226977   1.985   6.166   1.550
 8380SOL     OW26978  11.536   4.836   1.744
 8380SOL    HW126979  11.539   4.897   1.671
 8380SOL    HW226980  11.453   4.855   1.788
 8381SOL     OW26981  13.951  12.423   9.590
 8381SOL    HW126982  13.928  12.383   9.674
 8381SOL    HW226983  13.963  12.516   9.610
 8382SOL     OW26984   4.509   7.286  11.192
 8382SOL    HW126985   4.574   7.355  11.179
 8382SOL    HW226986   4.425   7.332  11.189
 8383SOL     OW26987   4.260  11.161   1.992
 8383SOL    HW126988   4.187  11.107   1.962
 8383SOL    HW226989   4.227  11.251   1.984
 8384SOL     OW26990   9.667   4.717   5.281
 8384SOL    HW126991   9.630   4.636   5.247
 8384SOL    HW226992   9.709   4.692   5.363
 8385SOL     OW26993   6.691  11.103  10.390
 8385SOL    HW126994   6.658  11.051  10.317
 8385SOL    HW226995   6.628  11.086  10.461
 8386SOL     OW26996   5.086   2.575   1.820
 8386SOL    HW126997   5.173   2.558   1.783
 8386SOL    HW226998   5.059   2.658   1.780
 8387SOL     OW26999   1.925   4.371   5.918
 8387SOL    HW127000   1.900   4.340   6.005
 8387SOL    HW227001   1.868   4.446   5.902
 8388SOL     OW27002   0.650   2.705   0.326
 8388SOL    HW127003   0.677   2.750   0.406
 8388SOL    HW227004   0.729   2.703   0.272
 8389SOL     OW27005  13.298   1.355   1.176
 8389SOL    HW127006  13.378   1.320   1.215
 8389SOL    HW227007  13.251   1.278   1.144
 8390SOL     OW27008   1.803  14.436   2.864
 8390SOL    HW127009   1.747  14.501   2.907
 8390SOL    HW227010   1.891  14.471   2.872
 8391SOL     OW27011  12.610   0.711   3.406
 8391SOL    HW127012  12.575   0.654   3.338
 8391SOL    HW227013  12.684   0.755   3.365
 8392SOL     OW27014   1.524   2.224   8.791
 8392SOL    HW127015   1.473   2.283   8.736
 8392SOL    HW227016   1.498   2.137   8.762
 8393SOL     OW27017  12.773  14.009   2.865
 8393SOL    HW127018  12.727  14.065   2.803
 8393SOL    HW227019  12.741  14.038   2.951
 8394SOL     OW27020   0.654   6.129  14.841
 8394SOL    HW127021   0.628   6.089  14.757
 8394SOL    HW227022   0.603   6.081   0.024
 8395SOL     OW27023  13.697   8.191   8.844
 8395SOL    HW127024  13.722   8.164   8.755
 8395SOL    HW227025  13.755   8.264   8.864
 8396SOL     OW27026   0.039   9.531   1.153
 8396SOL    HW127027   0.075   9.442   1.147
 8396SOL    HW227028  14.828   9.518   1.172
 8397SOL     OW27029  14.225   3.256   7.868
 8397SOL    HW127030  14.160   3.307   7.819
 8397SOL    HW227031  14.196   3.165   7.858
 8398SOL     OW27032  13.276   1.768   0.176
 8398SOL    HW127033  13.234   1.840   0.223
 8398SOL    HW227034  13.308   1.808   0.095
 8399SOL     OW27035   1.302  14.602   7.589
 8399SOL    HW127036   1.303  14.650   7.672
 8399SOL    HW227037   1.362  14.529   7.603
 8400SOL     OW27038   1.987   4.829   9.796
 8400SOL    HW127039   2.033   4.770   9.856
 8400SOL    HW227040   1.894   4.812   9.812
 8401SOL     OW27041   7.583   8.332   0.468
 8401SOL    HW127042   7.679   8.331   0.464
 8401SOL    HW227043   7.557   8.250   0.427
 8402SOL     OW27044  14.354   3.571   8.133
 8402SOL    HW127045  14.372   3.648   8.186
 8402SOL    HW227046  14.261   3.553   8.147
 8403SOL     OW27047   7.137   1.575   9.263
 8403SOL    HW127048   7.064   1.518   9.238
 8403SOL    HW227049   7.099   1.635   9.327
 8404SOL     OW27050   5.440  11.513   0.322
 8404SOL    HW127051   5.406  11.428   0.295
 8404SOL    HW227052   5.535  11.500   0.325
 8405SOL     OW27053  10.865   9.814   8.720
 8405SOL    HW127054  10.812   9.825   8.641
 8405SOL    HW227055  10.817   9.862   8.788
 8406SOL     OW27056  11.449  14.788  11.774
 8406SOL    HW127057  11.402  14.824  11.849
 8406SOL    HW227058  11.541  14.813  11.789
 8407SOL     OW27059   8.930   2.324   2.244
 8407SOL    HW127060   8.847   2.281   2.261
 8407SOL    HW227061   8.975   2.266   2.182
 8408SOL     OW27062   3.717   2.457   9.092
 8408SOL    HW127063   3.741   2.546   9.117
 8408SOL    HW227064   3.683   2.466   9.002
 8409SOL     OW27065   2.671   2.728   3.043
 8409SOL    HW127066   2.760   2.762   3.052
 8409SOL    HW227067   2.617   2.805   3.028
 8410SOL     OW27068   5.406  12.567   3.385
 8410SOL    HW127069   5.350  12.522   3.322
 8410SOL    HW227070   5.348  12.630   3.428
 8411SOL     OW27071  10.479   8.470  11.598
 8411SOL    HW127072  10.523   8.526  11.662
 8411SOL    HW227073  10.421   8.529  11.549
 8412SOL     OW27074  11.316   1.036   7.192
 8412SOL    HW127075  11.237   1.056   7.142
 8412SOL    HW227076  11.379   1.102   7.166
 8413SOL     OW27077   3.994   7.455  14.427
 8413SOL    HW127078   3.964   7.368  14.399
 8413SOL    HW227079   3.998   7.450  14.523
 8414SOL     OW27080   6.573   8.460   4.399
 8414SOL    HW127081   6.487   8.457   4.358
 8414SOL    HW227082   6.566   8.530   4.464
 8415SOL     OW27083   8.032   3.862   8.272
 8415SOL    HW127084   8.059   3.832   8.185
 8415SOL    HW227085   7.936   3.867   8.267
 8416SOL     OW27086   7.727   0.948   8.962
 8416SOL    HW127087   7.667   1.005   9.010
 8416SOL    HW227088   7.806   1.002   8.948
 8417SOL     OW27089  10.706  14.083  10.792
 8417SOL    HW127090  10.640  14.148  10.767
 8417SOL    HW227091  10.656  14.012  10.832
 8418SOL     OW27092   8.762   1.408   2.576
 8418SOL    HW127093   8.743   1.500   2.556
 8418SOL    HW227094   8.680   1.374   2.613
 8419SOL     OW27095   0.341   1.403  10.042
 8419SOL    HW127096   0.386   1.322  10.065
 8419SOL    HW227097   0.248   1.383  10.051
 8420SOL     OW27098  12.417  11.955  10.328
 8420SOL    HW127099  12.420  11.939  10.422
 8420SOL    HW227100  12.488  11.901  10.292
 8421SOL     OW27101  11.581  13.889   4.544
 8421SOL    HW127102  11.503  13.888   4.489
 8421SOL    HW227103  11.643  13.944   4.497
 8422SOL     OW27104   9.585   7.842   7.700
 8422SOL    HW127105   9.637   7.877   7.627
 8422SOL    HW227106   9.648   7.795   7.755
 8423SOL     OW27107   0.309   4.637  11.695
 8423SOL    HW127108   0.359   4.557  11.680
 8423SOL    HW227109   0.334   4.694  11.622
 8424SOL     OW27110  14.214  13.493   1.899
 8424SOL    HW127111  14.217  13.575   1.850
 8424SOL    HW227112  14.216  13.520   1.991
 8425SOL     OW27113   3.463  10.949   0.722
 8425SOL    HW127114   3.385  11.003   0.712
 8425SOL    HW227115   3.532  11.010   0.749
 8426SOL     OW27116   2.326   0.888  10.346
 8426SOL    HW127117   2.370   0.971  10.368
 8426SOL    HW227118   2.382   0.821  10.386
 8427SOL     OW27119   4.109   2.249   7.752
 8427SOL    HW127120   4.024   2.284   7.723
 8427SOL    HW227121   4.103   2.155   7.735
 8428SOL     OW27122   7.427   7.265   7.493
 8428SOL    HW127123   7.432   7.358   7.470
 8428SOL    HW227124   7.451   7.263   7.586
 8429SOL     OW27125  10.091   6.665   3.674
 8429SOL    HW127126  10.112   6.756   3.655
 8429SOL    HW227127  10.072   6.627   3.588
 8430SOL     OW27128   5.635   5.545  11.555
 8430SOL    HW127129   5.563   5.605  11.536
 8430SOL    HW227130   5.709   5.581  11.505
 8431SOL     OW27131   9.587  14.749  11.101
 8431SOL    HW127132   9.656  14.754  11.167
 8431SOL    HW227133   9.509  14.784  11.144
 8432SOL     OW27134  10.288   2.036   3.953
 8432SOL    HW127135  10.294   1.949   3.913
 8432SOL    HW227136  10.194   2.056   3.953
 8433SOL     OW27137   9.326   1.642  10.781
 8433SOL    HW127138   9.358   1.641  10.691
 8433SOL    HW227139   9.231   1.636  10.773
 8434SOL     OW27140   8.552   2.583   1.178
 8434SOL    HW127141   8.547   2.502   1.228
 8434SOL    HW227142   8.482   2.638   1.212
 8435SOL     OW27143  14.813   1.719   2.251
 8435SOL    HW127144  14.810   1.686   2.341
 8435SOL    HW227145   0.024   1.718   2.229
 8436SOL     OW27146   6.545   7.200  13.749
 8436SOL    HW127147   6.479   7.130  13.752
 8436SOL    HW227148   6.515   7.264  13.813
 8437SOL     OW27149   2.963  10.009   2.394
 8437SOL    HW127150   2.896  10.060   2.348
 8437SOL    HW227151   3.042  10.019   2.341
 8438SOL     OW27152   1.519  13.927  13.373
 8438SOL    HW127153   1.428  13.955  13.375
 8438SOL    HW227154   1.557  13.963  13.453
 8439SOL     OW27155   3.958   8.785   3.269
 8439SOL    HW127156   3.945   8.762   3.361
 8439SOL    HW227157   3.891   8.734   3.223
 8440SOL     OW27158   4.056   1.685   7.783
 8440SOL    HW127159   4.070   1.709   7.875
 8440SOL    HW227160   4.114   1.611   7.768
 8441SOL     OW27161   5.262  11.675  12.494
 8441SOL    HW127162   5.208  11.709  12.565
 8441SOL    HW227163   5.348  11.661  12.533
 8442SOL     OW27164   2.255  10.209  12.183
 8442SOL    HW127165   2.270  10.139  12.120
 8442SOL    HW227166   2.171  10.187  12.224
 8443SOL     OW27167  11.984   1.339  11.146
 8443SOL    HW127168  12.066   1.386  11.162
 8443SOL    HW227169  11.921   1.382  11.203
 8444SOL     OW27170   6.482  11.394  10.684
 8444SOL    HW127171   6.468  11.312  10.636
 8444SOL    HW227172   6.565  11.381  10.730
 8445SOL     OW27173   6.752   2.867  10.242
 8445SOL    HW127174   6.755   2.904  10.330
 8445SOL    HW227175   6.689   2.922  10.195
 8446SOL     OW27176   3.530   3.020   4.607
 8446SOL    HW127177   3.612   3.068   4.596
 8446SOL    HW227178   3.523   3.007   4.702
 8447SOL     OW27179   0.337   5.190   4.112
 8447SOL    HW127180   0.353   5.095   4.108
 8447SOL    HW227181   0.382   5.218   4.191
 8448SOL     OW27182   9.706   3.251   7.625
 8448SOL    HW127183   9.664   3.271   7.709
 8448SOL    HW227184   9.797   3.280   7.636
 8449SOL     OW27185   1.568   1.943   3.290
 8449SOL    HW127186   1.561   2.008   3.360
 8449SOL    HW227187   1.512   1.976   3.220
 8450SOL     OW27188   3.857  13.113  12.697
 8450SOL    HW127189   3.937  13.091  12.649
 8450SOL    HW227190   3.849  13.044  12.763
 8451SOL     OW27191   6.506  11.270   8.010
 8451SOL    HW127192   6.483  11.206   7.943
 8451SOL    HW227193   6.422  11.304   8.041
 8452SOL     OW27194  10.234  11.067   5.153
 8452SOL    HW127195  10.154  11.034   5.113
 8452SOL    HW227196  10.229  11.162   5.143
 8453SOL     OW27197   5.663  11.369   6.061
 8453SOL    HW127198   5.583  11.416   6.037
 8453SOL    HW227199   5.699  11.337   5.979
 8454SOL     OW27200  13.024  11.115   1.826
 8454SOL    HW127201  13.097  11.136   1.884
 8454SOL    HW227202  13.055  11.139   1.739
 8455SOL     OW27203   0.094   0.595   7.544
 8455SOL    HW127204   0.178   0.573   7.585
 8455SOL    HW227205   0.117   0.660   7.477
 8456SOL     OW27206   5.464  13.652   2.385
 8456SOL    HW127207   5.535  13.624   2.444
 8456SOL    HW227208   5.437  13.737   2.419
 8457SOL     OW27209   5.837   1.037   8.153
 8457SOL    HW127210   5.919   1.047   8.201
 8457SOL    HW227211   5.862   0.994   8.071
 8458SOL     OW27212   3.942   1.950   6.921
 8458SOL    HW127213   3.908   1.900   6.995
 8458SOL    HW227214   3.992   2.021   6.961
 8459SOL     OW27215   8.691  10.389   3.725
 8459SOL    HW127216   8.662  10.429   3.807
 8459SOL    HW227217   8.633  10.313   3.714
 8460SOL     OW27218   5.028   4.686   9.463
 8460SOL    HW127219   4.961   4.719   9.403
 8460SOL    HW227220   4.978   4.639   9.530
 8461SOL     OW27221   9.126   6.122  12.332
 8461SOL    HW127222   9.107   6.214  12.312
 8461SOL    HW227223   9.173   6.125  12.416
 8462SOL     OW27224   1.311   9.779   4.016
 8462SOL    HW127225   1.348   9.799   4.102
 8462SOL    HW227226   1.372   9.717   3.977
 8463SOL     OW27227  14.048  11.774  11.889
 8463SOL    HW127228  14.092  11.733  11.964
 8463SOL    HW227229  14.036  11.865  11.916
 8464SOL     OW27230   6.632  10.006  13.787
 8464SOL    HW127231   6.630  10.091  13.742
 8464SOL    HW227232   6.541   9.989  13.810
 8465SOL     OW27233   2.370   0.747   8.489
 8465SOL    HW127234   2.316   0.690   8.435
 8465SOL    HW227235   2.360   0.712   8.578
 8466SOL     OW27236   2.960   2.863  12.208
 8466SOL    HW127237   2.870   2.878  12.180
 8466SOL    HW227238   3.007   2.841  12.128
 8467SOL     OW27239   3.733   6.531  13.292
 8467SOL    HW127240   3.810   6.563  13.339
 8467SOL    HW227241   3.692   6.469  13.353
 8468SOL     OW27242  10.668   0.697   3.021
 8468SOL    HW127243  10.748   0.700   3.074
 8468SOL    HW227244  10.597   0.717   3.082
 8469SOL     OW27245   0.203   6.336  14.378
 8469SOL    HW127246   0.194   6.312  14.471
 8469SOL    HW227247   0.191   6.254  14.331
 8470SOL     OW27248   2.400   7.123   9.750
 8470SOL    HW127249   2.441   7.131   9.836
 8470SOL    HW227250   2.473   7.127   9.688
 8471SOL     OW27251   8.591   6.231   0.239
 8471SOL    HW127252   8.501   6.212   0.216
 8471SOL    HW227253   8.605   6.185   0.321
 8472SOL     OW27254   8.865   0.192  10.287
 8472SOL    HW127255   8.830   0.110  10.322
 8472SOL    HW227256   8.791   0.230  10.238
 8473SOL     OW27257  11.253  10.993   4.578
 8473SOL    HW127258  11.220  10.965   4.493
 8473SOL    HW227259  11.294  11.077   4.562
 8474SOL     OW27260   7.766  13.838  11.570
 8474SOL    HW127261   7.796  13.792  11.492
 8474SOL    HW227262   7.816  13.920  11.570
 8475SOL     OW27263   8.075   0.824  13.583
 8475SOL    HW127264   8.034   0.811  13.497
 8475SOL    HW227265   8.150   0.880  13.565
 8476SOL     OW27266   2.222   0.994   5.353
 8476SOL    HW127267   2.238   1.054   5.280
 8476SOL    HW227268   2.183   0.917   5.313
 8477SOL     OW27269   8.847   2.188   0.046
 8477SOL    HW127270   8.894   2.197  14.845
 8477SOL    HW227271   8.757   2.171   0.020
 8478SOL     OW27272   7.143   1.964   1.670
 8478SOL    HW127273   7.062   1.924   1.639
 8478SOL    HW227274   7.185   1.998   1.590
 8479SOL     OW27275   1.190  12.682   3.404
 8479SOL    HW127276   1.105  12.723   3.415
 8479SOL    HW227277   1.177  12.619   3.333
 8480SOL     OW27278  14.465   3.169   3.074
 8480SOL    HW127279  14.433   3.156   2.984
 8480SOL    HW227280  14.492   3.082   3.103
 8481SOL     OW27281  12.864   4.130   4.200
 8481SOL    HW127282  12.859   4.041   4.236
 8481SOL    HW227283  12.950   4.133   4.157
 8482SOL     OW27284   6.785  12.486   3.649
 8482SOL    HW127285   6.751  12.399   3.631
 8482SOL    HW227286   6.818  12.481   3.739
 8483SOL     OW27287   0.573   5.486   2.466
 8483SOL    HW127288   0.539   5.401   2.441
 8483SOL    HW227289   0.554   5.494   2.559
 8484SOL     OW27290  12.143  13.898  11.480
 8484SOL    HW127291  12.132  13.806  11.455
 8484SOL    HW227292  12.237  13.914  11.469
 8485SOL     OW27293  12.127   1.983   8.365
 8485SOL    HW127294  12.180   2.058   8.337
 8485SOL    HW227295  12.152   1.912   8.307
 8486SOL     OW27296   5.023   6.596   8.578
 8486SOL    HW127297   5.075   6.524   8.543
 8486SOL    HW227298   5.087   6.664   8.598
 8487SOL     OW27299  14.357   9.802   5.770
 8487SOL    HW127300  14.320   9.739   5.708
 8487SOL    HW227301  14.297   9.801   5.844
 8488SOL     OW27302  10.299   6.892   9.805
 8488SOL    HW127303  10.276   6.844   9.885
 8488SOL    HW227304  10.220   6.887   9.751
 8489SOL     OW27305   8.478   2.929   8.604
 8489SOL    HW127306   8.443   2.999   8.660
 8489SOL    HW227307   8.427   2.852   8.627
 8490SOL     OW27308  11.716  13.170  12.884
 8490SOL    HW127309  11.785  13.189  12.822
 8490SOL    HW227310  11.664  13.100  12.843
 8491SOL     OW27311  11.541   2.710  13.945
 8491SOL    HW127312  11.611   2.644  13.944
 8491SOL    HW227313  11.576   2.780  14.001
 8492SOL     OW27314   5.399  13.331   0.605
 8492SOL    HW127315   5.322  13.387   0.595
 8492SOL    HW227316   5.366  13.250   0.645
 8493SOL     OW27317   8.487  10.991   9.261
 8493SOL    HW127318   8.467  11.016   9.170
 8493SOL    HW227319   8.416  10.932   9.285
 8494SOL     OW27320   9.171   4.326   5.711
 8494SOL    HW127321   9.142   4.335   5.801
 8494SOL    HW227322   9.232   4.398   5.698
 8495SOL     OW27323  10.859  12.132   7.399
 8495SOL    HW127324  10.848  12.095   7.486
 8495SOL    HW227325  10.953  12.121   7.380
 8496SOL     OW27326   0.355  13.170  13.136
 8496SOL    HW127327   0.412  13.095  13.153
 8496SOL    HW227328   0.282  13.135  13.085
 8497SOL     OW27329   2.410   4.981   6.820
 8497SOL    HW127330   2.459   4.991   6.901
 8497SOL    HW227331   2.414   5.066   6.778
 8498SOL     OW27332  14.492  13.412   1.199
 8498SOL    HW127333  14.546  13.488   1.180
 8498SOL    HW227334  14.402  13.446   1.198
 8499SOL     OW27335  14.736   8.900  12.859
 8499SOL    HW127336  14.820   8.909  12.903
 8499SOL    HW227337  14.732   8.975  12.800
 8500SOL     OW27338   4.210  14.647   0.011
 8500SOL    HW127339   4.300  14.622   0.029
 8500SOL    HW227340   4.161  14.618   0.087
 8501SOL     OW27341  14.463   9.362   7.716
 8501SOL    HW127342  14.534   9.303   7.689
 8501SOL    HW227343  14.505   9.426   7.773
 8502SOL     OW27344   1.321  14.876   1.723
 8502SOL    HW127345   1.353   0.083   1.738
 8502SOL    HW227346   1.268  14.882   1.643
 8503SOL     OW27347   7.354   4.275  10.349
 8503SOL    HW127348   7.367   4.296  10.442
 8503SOL    HW227349   7.284   4.333  10.320
 8504SOL     OW27350  14.661   1.844   6.646
 8504SOL    HW127351  14.692   1.935   6.650
 8504SOL    HW227352  14.569   1.851   6.622
 8505SOL     OW27353  13.675  10.295  13.296
 8505SOL    HW127354  13.677  10.322  13.387
 8505SOL    HW227355  13.609  10.351  13.256
 8506SOL     OW27356  14.612   4.970   7.565
 8506SOL    HW127357  14.673   5.040   7.588
 8506SOL    HW227358  14.666   4.892   7.560
 8507SOL     OW27359   3.993  10.744  11.425
 8507SOL    HW127360   3.984  10.714  11.334
 8507SOL    HW227361   4.074  10.795  11.425
 8508SOL     OW27362   4.973  11.706  14.785
 8508SOL    HW127363   5.055  11.675  14.746
 8508SOL    HW227364   4.916  11.629  14.786
 8509SOL     OW27365   5.139   4.061   7.391
 8509SOL    HW127366   5.119   4.121   7.320
 8509SOL    HW227367   5.179   3.985   7.348
 8510SOL     OW27368  12.161  12.696   9.828
 8510SOL    HW127369  12.098  12.767   9.818
 8510SOL    HW227370  12.109  12.616   9.819
 8511SOL     OW27371  14.308   1.222   4.244
 8511SOL    HW127372  14.285   1.245   4.154
 8511SOL    HW227373  14.228   1.184   4.280
 8512SOL     OW27374   6.045  11.878   3.236
 8512SOL    HW127375   5.972  11.939   3.232
 8512SOL    HW227376   6.055  11.847   3.146
 8513SOL     OW27377   5.790  10.820   7.037
 8513SOL    HW127378   5.728  10.869   6.983
 8513SOL    HW227379   5.842  10.888   7.080
 8514SOL     OW27380   3.050   7.626  10.372
 8514SOL    HW127381   3.107   7.612  10.296
 8514SOL    HW227382   2.975   7.569  10.356
 8515SOL     OW27383   7.330   4.807   3.932
 8515SOL    HW127384   7.387   4.883   3.919
 8515SOL    HW227385   7.382   4.733   3.902
 8516SOL     OW27386   1.030   4.401   6.471
 8516SOL    HW127387   1.110   4.361   6.505
 8516SOL    HW227388   0.990   4.333   6.417
 8517SOL     OW27389  14.313  11.361   2.112
 8517SOL    HW127390  14.404  11.337   2.094
 8517SOL    HW227391  14.319  11.443   2.162
 8518SOL     OW27392   6.500   7.712   2.033
 8518SOL    HW127393   6.577   7.658   2.016
 8518SOL    HW227394   6.451   7.710   1.951
 8519SOL     OW27395   9.001   0.080   7.415
 8519SOL    HW127396   9.044   0.165   7.419
 8519SOL    HW227397   8.984   0.057   7.506
 8520SOL     OW27398   3.990  10.487   6.914
 8520SOL    HW127399   3.943  10.551   6.968
 8520SOL    HW227400   4.044  10.439   6.977
 8521SOL     OW27401  12.515   8.830   1.506
 8521SOL    HW127402  12.482   8.813   1.418
 8521SOL    HW227403  12.609   8.842   1.495
 8522SOL     OW27404   0.202   9.857   0.003
 8522SOL    HW127405   0.168   9.937   0.043
 8522SOL    HW227406   0.251   9.814   0.073
 8523SOL     OW27407   3.494  11.660  11.393
 8523SOL    HW127408   3.426  11.617  11.341
 8523SOL    HW227409   3.458  11.747  11.411
 8524SOL     OW27410   3.590   2.498   3.443
 8524SOL    HW127411   3.560   2.573   3.394
 8524SOL    HW227412   3.623   2.534   3.525
 8525SOL     OW27413   4.496  12.944   7.381
 8525SOL    HW127414   4.463  12.905   7.462
 8525SOL    HW227415   4.449  13.027   7.373
 8526SOL     OW27416   7.948   3.054   3.045
 8526SOL    HW127417   7.930   3.026   3.135
 8526SOL    HW227418   7.986   3.141   3.053
 8527SOL     OW27419  12.599   1.536   9.412
 8527SOL    HW127420  12.692   1.534   9.389
 8527SOL    HW227421  12.563   1.456   9.374
 8528SOL     OW27422   1.331   7.325   2.228
 8528SOL    HW127423   1.332   7.413   2.264
 8528SOL    HW227424   1.261   7.327   2.162
 8529SOL     OW27425   4.111   1.796   0.069
 8529SOL    HW127426   4.079   1.886   0.072
 8529SOL    HW227427   4.123   1.772   0.161
 8530SOL     OW27428   1.077   7.614  11.951
 8530SOL    HW127429   1.089   7.529  11.909
 8530SOL    HW227430   1.119   7.605  12.036
 8531SOL     OW27431  13.558  12.904   5.960
 8531SOL    HW127432  13.549  12.868   5.873
 8531SOL    HW227433  13.482  12.871   6.009
 8532SOL     OW27434   4.253  11.125  14.680
 8532SOL    HW127435   4.189  11.183  14.640
 8532SOL    HW227436   4.212  11.097  14.762
 8533SOL     OW27437   2.113   4.859   1.896
 8533SOL    HW127438   2.150   4.841   1.810
 8533SOL    HW227439   2.177   4.822   1.958
 8534SOL     OW27440   7.275   0.962  11.598
 8534SOL    HW127441   7.313   1.033  11.546
 8534SOL    HW227442   7.341   0.942  11.664
 8535SOL     OW27443   8.513   8.934   5.170
 8535SOL    HW127444   8.487   9.005   5.111
 8535SOL    HW227445   8.608   8.939   5.172
 8536SOL     OW27446   6.512   6.735   2.320
 8536SOL    HW127447   6.571   6.673   2.278
 8536SOL    HW227448   6.448   6.680   2.366
 8537SOL     OW27449  11.887   6.481   0.979
 8537SOL    HW127450  11.800   6.441   0.992
 8537SOL    HW227451  11.939   6.412   0.938
 8538SOL     OW27452   8.585   4.668   8.604
 8538SOL    HW127453   8.583   4.719   8.686
 8538SOL    HW227454   8.495   4.669   8.574
 8539SOL     OW27455   1.904   2.278   4.240
 8539SOL    HW127456   1.913   2.330   4.160
 8539SOL    HW227457   1.966   2.206   4.230
 8540SOL     OW27458   8.283  14.375   9.321
 8540SOL    HW127459   8.256  14.406   9.408
 8540SOL    HW227460   8.248  14.287   9.314
 8541SOL     OW27461   2.086   9.304   4.627
 8541SOL    HW127462   2.069   9.239   4.559
 8541SOL    HW227463   1.999   9.329   4.658
 8542SOL     OW27464   9.956  14.382  14.815
 8542SOL    HW127465   9.899  14.372  14.739
 8542SOL    HW227466  10.041  14.407  14.779
 8543SOL     OW27467   6.748   7.816   0.687
 8543SOL    HW127468   6.708   7.740   0.729
 8543SOL    HW227469   6.772   7.873   0.760
 8544SOL     OW27470  12.283   9.816   7.756
 8544SOL    HW127471  12.344   9.755   7.798
 8544SOL    HW227472  12.209   9.761   7.730
 8545SOL     OW27473   7.176   9.994   6.920
 8545SOL    HW127474   7.158  10.028   6.832
 8545SOL    HW227475   7.165  10.070   6.978
 8546SOL     OW27476   6.170  14.850   4.236
 8546SOL    HW127477   6.084  14.848   4.194
 8546SOL    HW227478   6.150  14.843   4.329
 8547SOL     OW27479   3.601   7.303  14.366
 8547SOL    HW127480   3.615   7.344  14.451
 8547SOL    HW227481   3.563   7.371  14.312
 8548SOL     OW27482  10.054  11.843   2.729
 8548SOL    HW127483  10.024  11.820   2.817
 8548SOL    HW227484  10.105  11.923   2.741
 8549SOL     OW27485  13.320   0.440  11.866
 8549SOL    HW127486  13.334   0.408  11.955
 8549SOL    HW227487  13.408   0.447  11.829
 8550SOL     OW27488   6.038   6.156  11.424
 8550SOL    HW127489   6.122   6.201  11.414
 8550SOL    HW227490   5.975   6.228  11.435
 8551SOL     OW27491   4.608   9.275   7.641
 8551SOL    HW127492   4.595   9.197   7.695
 8551SOL    HW227493   4.702   9.282   7.631
 8552SOL     OW27494   8.876   5.750   9.101
 8552SOL    HW127495   8.792   5.704   9.110
 8552SOL    HW227496   8.898   5.742   9.008
 8553SOL     OW27497  14.775   2.501   9.135
 8553SOL    HW127498  14.701   2.444   9.117
 8553SOL    HW227499  14.822   2.507   9.052
 8554SOL     OW27500   5.738   4.866  11.295
 8554SOL    HW127501   5.658   4.861  11.242
 8554SOL    HW227502   5.714   4.922  11.368
 8555SOL     OW27503   3.089   5.340   8.326
 8555SOL    HW127504   3.171   5.294   8.344
 8555SOL    HW227505   3.088   5.411   8.390
 8556SOL     OW27506  12.808   0.412   5.092
 8556SOL    HW127507  12.751   0.340   5.062
 8556SOL    HW227508  12.883   0.409   5.034
 8557SOL     OW27509  14.710   1.533   7.023
 8557SOL    HW127510  14.659   1.457   6.995
 8557SOL    HW227511  14.745   1.569   6.942
 8558SOL     OW27512   1.278   3.549   9.487
 8558SOL    HW127513   1.370   3.523   9.491
 8558SOL    HW227514   1.231   3.468   9.466
 8559SOL     OW27515   0.214   5.026  12.078
 8559SOL    HW127516   0.164   5.077  12.015
 8559SOL    HW227517   0.193   4.935  12.058
 8560SOL     OW27518  10.588   9.760   7.758
 8560SOL    HW127519  10.518   9.770   7.693
 8560SOL    HW227520  10.665   9.736   7.706
 8561SOL     OW27521  14.790   6.639  13.886
 8561SOL    HW127522  14.824   6.576  13.822
 8561SOL    HW227523  14.695   6.637  13.874
 8562SOL     OW27524   9.828   3.204   5.600
 8562SOL    HW127525   9.802   3.257   5.675
 8562SOL    HW227526   9.866   3.266   5.538
 8563SOL     OW27527  11.769   3.712  14.773
 8563SOL    HW127528  11.686   3.712  14.725
 8563SOL    HW227529  11.757   3.779  14.840
 8564SOL     OW27530  14.594   5.130   1.698
 8564SOL    HW127531  14.670   5.129   1.640
 8564SOL    HW227532  14.564   5.221   1.698
 8565SOL     OW27533   6.056  12.956  13.233
 8565SOL    HW127534   6.034  13.043  13.266
 8565SOL    HW227535   5.972  12.911  13.225
 8566SOL     OW27536  11.958  12.720   7.970
 8566SOL    HW127537  12.011  12.647   8.003
 8566SOL    HW227538  11.874  12.710   8.014
 8567SOL     OW27539  11.931   9.691   1.779
 8567SOL    HW127540  11.935   9.676   1.685
 8567SOL    HW227541  11.992   9.763   1.795
 8568SOL     OW27542  13.997   4.489   5.259
 8568SOL    HW127543  14.080   4.461   5.297
 8568SOL    HW227544  14.010   4.581   5.236
 8569SOL     OW27545  10.534   8.140   0.414
 8569SOL    HW127546  10.492   8.130   0.329
 8569SOL    HW227547  10.521   8.056   0.457
 8570SOL     OW27548  13.813   4.335  14.002
 8570SOL    HW127549  13.782   4.425  14.017
 8570SOL    HW227550  13.785   4.315  13.913
 8571SOL     OW27551   8.147   2.319  14.479
 8571SOL    HW127552   8.068   2.372  14.466
 8571SOL    HW227553   8.144   2.253  14.410
 8572SOL     OW27554  11.323   4.899   1.156
 8572SOL    HW127555  11.243   4.866   1.197
 8572SOL    HW227556  11.394   4.851   1.199
 8573SOL     OW27557   5.800   9.760   2.831
 8573SOL    HW127558   5.811   9.761   2.926
 8573SOL    HW227559   5.889   9.748   2.797
 8574SOL     OW27560   8.060   0.380  11.227
 8574SOL    HW127561   8.111   0.355  11.304
 8574SOL    HW227562   8.123   0.423  11.169
 8575SOL     OW27563   4.778   6.705   4.158
 8575SOL    HW127564   4.860   6.656   4.148
 8575SOL    HW227565   4.797   6.791   4.121
 8576SOL     OW27566   5.653   9.563   1.077
 8576SOL    HW127567   5.736   9.569   1.032
 8576SOL    HW227568   5.675   9.537   1.167
 8577SOL     OW27569  13.315  11.422   9.152
 8577SOL    HW127570  13.253  11.488   9.183
 8577SOL    HW227571  13.316  11.432   9.057
 8578SOL     OW27572   0.865   9.341  10.181
 8578SOL    HW127573   0.850   9.318  10.273
 8578SOL    HW227574   0.932   9.410  10.184
 8579SOL     OW27575   0.298  12.729   8.896
 8579SOL    HW127576   0.340  12.662   8.842
 8579SOL    HW227577   0.222  12.757   8.845
 8580SOL     OW27578   4.468  13.918   2.227
 8580SOL    HW127579   4.421  13.835   2.244
 8580SOL    HW227580   4.405  13.971   2.178
 8581SOL     OW27581  10.989   0.689   8.963
 8581SOL    HW127582  10.954   0.638   9.036
 8581SOL    HW227583  10.945   0.655   8.886
 8582SOL     OW27584  10.780  13.741   6.943
 8582SOL    HW127585  10.697  13.728   6.897
 8582SOL    HW227586  10.813  13.824   6.910
 8583SOL     OW27587  13.837   7.366  14.659
 8583SOL    HW127588  13.873   7.292  14.611
 8583SOL    HW227589  13.913   7.406  14.702
 8584SOL     OW27590   3.378   5.742  14.153
 8584SOL    HW127591   3.323   5.682  14.101
 8584SOL    HW227592   3.352   5.829  14.123
 8585SOL     OW27593  13.972   9.170   4.769
 8585SOL    HW127594  13.986   9.162   4.863
 8585SOL    HW227595  13.882   9.202   4.761
 8586SOL     OW27596   1.768   5.781   9.666
 8586SOL    HW127597   1.742   5.868   9.636
 8586SOL    HW227598   1.738   5.776   9.756
 8587SOL     OW27599   5.645   5.376   6.742
 8587SOL    HW127600   5.565   5.378   6.794
 8587SOL    HW227601   5.616   5.398   6.653
 8588SOL     OW27602   5.233  13.147   9.509
 8588SOL    HW127603   5.294  13.074   9.498
 8588SOL    HW227604   5.278  13.222   9.471
 8589SOL     OW27605   4.140   7.551   2.344
 8589SOL    HW127606   4.092   7.632   2.324
 8589SOL    HW227607   4.180   7.567   2.429
 8590SOL     OW27608   8.835   6.778   3.499
 8590SOL    HW127609   8.757   6.765   3.552
 8590SOL    HW227610   8.874   6.858   3.533
 8591SOL     OW27611   0.907   9.316   1.538
 8591SOL    HW127612   0.871   9.250   1.479
 8591SOL    HW227613   0.965   9.368   1.482
 8592SOL     OW27614   9.638   2.158   0.626
 8592SOL    HW127615   9.694   2.226   0.589
 8592SOL    HW227616   9.686   2.077   0.611
 8593SOL     OW27617   2.197   4.777   1.655
 8593SOL    HW127618   2.178   4.820   1.572
 8593SOL    HW227619   2.216   4.687   1.632
 8594SOL     OW27620  10.848   8.613  13.558
 8594SOL    HW127621  10.865   8.587  13.649
 8594SOL    HW227622  10.935   8.624  13.520
 8595SOL     OW27623  11.894   9.946   1.425
 8595SOL    HW127624  11.815   9.956   1.479
 8595SOL    HW227625  11.862   9.953   1.335
 8596SOL     OW27626   3.566  14.054   7.640
 8596SOL    HW127627   3.577  14.062   7.735
 8596SOL    HW227628   3.633  13.991   7.614
 8597SOL     OW27629   5.067   0.807  10.255
 8597SOL    HW127630   5.025   0.786  10.338
 8597SOL    HW227631   5.130   0.736  10.241
 8598SOL     OW27632   6.210   3.724   4.264
 8598SOL    HW127633   6.212   3.648   4.321
 8598SOL    HW227634   6.228   3.798   4.322
 8599SOL     OW27635  10.269  14.180  14.634
 8599SOL    HW127636  10.216  14.136  14.568
 8599SOL    HW227637  10.347  14.209  14.586
 8600SOL     OW27638   8.234   0.038  10.437
 8600SOL    HW127639   8.187   0.080  10.365
 8600SOL    HW227640   8.177  14.848  10.464
 8601SOL     OW27641   8.356  12.676  10.648
 8601SOL    HW127642   8.439  12.663  10.694
 8601SOL    HW227643   8.368  12.759  10.602
 8602SOL     OW27644   1.755   6.087   0.048
 8602SOL    HW127645   1.720   6.051   0.129
 8602SOL    HW227646   1.751   6.014  14.868
 8603SOL     OW27647  10.387   9.336   2.741
 8603SOL    HW127648  10.431   9.399   2.799
 8603SOL    HW227649  10.442   9.258   2.744
 8604SOL     OW27650   5.358   6.120   5.750
 8604SOL    HW127651   5.318   6.078   5.826
 8604SOL    HW227652   5.416   6.054   5.713
 8605SOL     OW27653   8.618  13.378   2.792
 8605SOL    HW127654   8.595  13.290   2.821
 8605SOL    HW227655   8.553  13.435   2.833
 8606SOL     OW27656  13.003   3.696   6.971
 8606SOL    HW127657  12.930   3.681   7.031
 8606SOL    HW227658  13.066   3.747   7.022
 8607SOL     OW27659   5.617   9.417  11.752
 8607SOL    HW127660   5.592   9.491  11.697
 8607SOL    HW227661   5.688   9.452  11.807
 8608SOL     OW27662   9.613   8.920  12.821
 8608SOL    HW127663   9.627   9.013  12.804
 8608SOL    HW227664   9.520   8.907  12.805
 8609SOL     OW27665   5.770   4.749  12.249
 8609SOL    HW127666   5.851   4.717  12.289
 8609SOL    HW227667   5.766   4.842  12.275
 8610SOL     OW27668  11.981   1.058   2.354
 8610SOL    HW127669  12.028   1.121   2.300
 8610SOL    HW227670  12.006   0.973   2.318
 8611SOL     OW27671   5.454  10.110   1.574
 8611SOL    HW127672   5.440  10.085   1.665
 8611SOL    HW227673   5.528  10.057   1.546
 8612SOL     OW27674   9.040  10.360   9.938
 8612SOL    HW127675   9.089  10.442   9.943
 8612SOL    HW227676   8.948  10.386   9.950
 8613SOL     OW27677  10.321   2.696   0.797
 8613SOL    HW127678  10.304   2.771   0.740
 8613SOL    HW227679  10.292   2.724   0.884
 8614SOL     OW27680   7.713  11.342   2.102
 8614SOL    HW127681   7.756  11.384   2.028
 8614SOL    HW227682   7.742  11.250   2.098
 8615SOL     OW27683  11.034  10.804   0.426
 8615SOL    HW127684  11.016  10.765   0.512
 8615SOL    HW227685  10.964  10.771   0.370
 8616SOL     OW27686  11.924   1.710  10.995
 8616SOL    HW127687  11.899   1.650  10.925
 8616SOL    HW227688  11.856   1.699  11.061
 8617SOL     OW27689   2.991   8.196  11.745
 8617SOL    HW127690   3.056   8.139  11.785
 8617SOL    HW227691   2.964   8.150  11.666
 8618SOL     OW27692   2.849  14.129   7.830
 8618SOL    HW127693   2.914  14.062   7.807
 8618SOL    HW227694   2.779  14.080   7.874
 8619SOL     OW27695   5.779   7.502  14.647
 8619SOL    HW127696   5.856   7.549  14.679
 8619SOL    HW227697   5.806   7.410  14.646
 8620SOL     OW27698   6.231   3.942   0.258
 8620SOL    HW127699   6.215   3.983   0.343
 8620SOL    HW227700   6.307   3.987   0.222
 8621SOL     OW27701  13.244   9.514   2.789
 8621SOL    HW127702  13.181   9.537   2.721
 8621SOL    HW227703  13.329   9.539   2.753
 8622SOL     OW27704  10.988   7.489   0.693
 8622SOL    HW127705  10.915   7.536   0.652
 8622SOL    HW227706  10.949   7.408   0.726
 8623SOL     OW27707   8.208  12.392  11.396
 8623SOL    HW127708   8.229  12.318  11.340
 8623SOL    HW227709   8.219  12.358  11.485
 8624SOL     OW27710  13.991   5.618  13.803
 8624SOL    HW127711  14.086   5.629  13.803
 8624SOL    HW227712  13.973   5.566  13.725
 8625SOL     OW27713  14.007  12.307   3.826
 8625SOL    HW127714  14.046  12.275   3.908
 8625SOL    HW227715  13.998  12.229   3.772
 8626SOL     OW27716   3.875   4.502   8.560
 8626SOL    HW127717   3.924   4.568   8.512
 8626SOL    HW227718   3.843   4.548   8.638
 8627SOL     OW27719   9.679   8.197  14.411
 8627SOL    HW127720   9.602   8.194  14.467
 8627SOL    HW227721   9.704   8.289  14.408
 8628SOL     OW27722  12.981  10.492   1.255
 8628SOL    HW127723  13.007  10.497   1.163
 8628SOL    HW227724  13.047  10.435   1.296
 8629SOL     OW27725   6.651   7.452   5.508
 8629SOL    HW127726   6.726   7.511   5.497
 8629SOL    HW227727   6.634   7.451   5.602
 8630SOL     OW27728  11.695   6.841  13.403
 8630SOL    HW127729  11.661   6.793  13.328
 8630SOL    HW227730  11.618   6.858  13.458
 8631SOL     OW27731   0.201   3.391   2.132
 8631SOL    HW127732   0.220   3.301   2.106
 8631SOL    HW227733   0.116   3.385   2.176
 8632SOL     OW27734   3.233   2.424  12.336
 8632SOL    HW127735   3.251   2.473  12.416
 8632SOL    HW227736   3.147   2.455  12.307
 8633SOL     OW27737  11.149   1.036  14.381
 8633SOL    HW127738  11.117   1.126  14.375
 8633SOL    HW227739  11.110   1.003  14.462
 8634SOL     OW27740   2.791   4.997   5.964
 8634SOL    HW127741   2.742   5.078   5.980
 8634SOL    HW227742   2.880   5.017   5.994
 8635SOL     OW27743   8.781   4.072   2.913
 8635SOL    HW127744   8.875   4.072   2.891
 8635SOL    HW227745   8.754   4.163   2.901
 8636SOL     OW27746   3.223   7.334   2.274
 8636SOL    HW127747   3.218   7.300   2.363
 8636SOL    HW227748   3.305   7.300   2.239
 8637SOL     OW27749   4.841   7.359  11.306
 8637SOL    HW127750   4.818   7.426  11.371
 8637SOL    HW227751   4.796   7.386  11.226
 8638SOL     OW27752   1.307   5.680  13.438
 8638SOL    HW127753   1.246   5.615  13.402
 8638SOL    HW227754   1.391   5.635  13.442
 8639SOL     OW27755   1.750   4.848   0.237
 8639SOL    HW127756   1.655   4.838   0.229
 8639SOL    HW227757   1.779   4.766   0.276
 8640SOL     OW27758  14.035  13.357  13.033
 8640SOL    HW127759  14.020  13.364  12.938
 8640SOL    HW227760  13.976  13.422  13.071
 8641SOL     OW27761  14.479   9.130   8.288
 8641SOL    HW127762  14.415   9.059   8.290
 8641SOL    HW227763  14.560   9.088   8.259
 8642SOL     OW27764  13.977   1.808   2.183
 8642SOL    HW127765  14.006   1.774   2.267
 8642SOL    HW227766  14.006   1.743   2.119
 8643SOL     OW27767   8.907   3.820   4.301
 8643SOL    HW127768   8.852   3.887   4.340
 8643SOL    HW227769   8.945   3.773   4.375
 8644SOL     OW27770  14.125   8.216   7.174
 8644SOL    HW127771  14.159   8.152   7.236
 8644SOL    HW227772  14.043   8.247   7.213
 8645SOL     OW27773   4.363  12.905   8.402
 8645SOL    HW127774   4.366  12.986   8.350
 8645SOL    HW227775   4.377  12.835   8.338
 8646SOL     OW27776   3.055   3.465  12.864
 8646SOL    HW127777   2.981   3.499  12.814
 8646SOL    HW227778   3.132   3.501  12.819
 8647SOL     OW27779  10.233   1.718   3.316
 8647SOL    HW127780  10.319   1.693   3.351
 8647SOL    HW227781  10.252   1.777   3.244
 8648SOL     OW27782   3.411   8.566   6.721
 8648SOL    HW127783   3.499   8.602   6.728
 8648SOL    HW227784   3.409   8.495   6.785
 8649SOL     OW27785   0.836   0.043  14.827
 8649SOL    HW127786   0.932   0.040  14.825
 8649SOL    HW227787   0.809  14.867  14.756
 8650SOL     OW27788  13.089   1.236  14.830
 8650SOL    HW127789  13.006   1.222  14.783
 8650SOL    HW227790  13.080   1.186   0.029
 8651SOL     OW27791   9.536   4.493   6.515
 8651SOL    HW127792   9.453   4.446   6.504
 8651SOL    HW227793   9.578   4.487   6.429
 8652SOL     OW27794   6.900   1.342  14.336
 8652SOL    HW127795   6.818   1.390  14.350
 8652SOL    HW227796   6.880   1.282  14.264
 8653SOL     OW27797  14.238   1.017   9.435
 8653SOL    HW127798  14.174   0.976   9.494
 8653SOL    HW227799  14.322   0.981   9.462
 8654SOL     OW27800   0.607  11.074   4.280
 8654SOL    HW127801   0.684  11.080   4.223
 8654SOL    HW227802   0.626  11.001   4.339
 8655SOL     OW27803   3.036   1.054  14.204
 8655SOL    HW127804   3.023   1.014  14.118
 8655SOL    HW227805   3.130   1.052  14.218
 8656SOL     OW27806   0.521   8.058   1.858
 8656SOL    HW127807   0.449   8.029   1.912
 8656SOL    HW227808   0.599   8.043   1.911
 8657SOL     OW27809  12.335   4.565   6.494
 8657SOL    HW127810  12.370   4.483   6.528
 8657SOL    HW227811  12.386   4.633   6.539
 8658SOL     OW27812  10.686   4.439   0.221
 8658SOL    HW127813  10.663   4.509   0.160
 8658SOL    HW227814  10.648   4.465   0.304
 8659SOL     OW27815   9.722   5.656  10.266
 8659SOL    HW127816   9.809   5.696  10.272
 8659SOL    HW227817   9.661   5.727  10.286
 8660SOL     OW27818   0.869   3.307   1.419
 8660SOL    HW127819   0.797   3.256   1.383
 8660SOL    HW227820   0.942   3.292   1.358
 8661SOL     OW27821  10.781   0.789  11.206
 8661SOL    HW127822  10.746   0.744  11.282
 8661SOL    HW227823  10.861   0.740  11.185
 8662SOL     OW27824  11.436   4.294  14.342
 8662SOL    HW127825  11.340   4.296  14.343
 8662SOL    HW227826  11.461   4.347  14.417
 8663SOL     OW27827   7.222   0.259   9.901
 8663SOL    HW127828   7.166   0.202   9.849
 8663SOL    HW227829   7.200   0.348   9.872
 8664SOL     OW27830   0.764  12.038  12.842
 8664SOL    HW127831   0.838  12.084  12.802
 8664SOL    HW227832   0.712  12.007  12.768
 8665SOL     OW27833  11.370   6.799   3.734
 8665SOL    HW127834  11.426   6.726   3.759
 8665SOL    HW227835  11.293   6.759   3.695
 8666SOL     OW27836   9.794   7.855   5.668
 8666SOL    HW127837   9.859   7.890   5.607
 8666SOL    HW227838   9.718   7.837   5.613
 8667SOL     OW27839   0.265   0.993   6.458
 8667SOL    HW127840   0.352   0.967   6.425
 8667SOL    HW227841   0.283   1.063   6.521
 8668SOL     OW27842  14.480   4.373  10.303
 8668SOL    HW127843  14.439   4.413  10.380
 8668SOL    HW227844  14.450   4.427  10.229
 8669SOL     OW27845   0.041   7.852   0.619
 8669SOL    HW127846   0.070   7.811   0.701
 8669SOL    HW227847   0.107   7.918   0.600
 8670SOL     OW27848   5.507  14.261   9.069
 8670SOL    HW127849   5.552  14.267   9.153
 8670SOL    HW227850   5.527  14.343   9.024
 8671SOL     OW27851   7.658  11.963   6.441
 8671SOL    HW127852   7.743  11.996   6.473
 8671SOL    HW227853   7.640  11.888   6.497
 8672SOL     OW27854   7.032   3.279   4.361
 8672SOL    HW127855   7.054   3.264   4.453
 8672SOL    HW227856   7.030   3.192   4.322
 8673SOL     OW27857   2.342  14.684   2.900
 8673SOL    HW127858   2.306  14.608   2.855
 8673SOL    HW227859   2.431  14.660   2.922
 8674SOL     OW27860  12.475   2.610  14.281
 8674SOL    HW127861  12.545   2.546  14.267
 8674SOL    HW227862  12.444   2.632  14.194
 8675SOL     OW27863   1.376  12.045  13.178
 8675SOL    HW127864   1.467  12.065  13.202
 8675SOL    HW227865   1.376  12.047  13.082
 8676SOL     OW27866  10.514   4.781   6.798
 8676SOL    HW127867  10.533   4.696   6.759
 8676SOL    HW227868  10.545   4.845   6.734
 8677SOL     OW27869   9.206   6.939  10.540
 8677SOL    HW127870   9.200   7.002  10.612
 8677SOL    HW227871   9.124   6.951  10.491
 8678SOL     OW27872  11.767  14.077   9.163
 8678SOL    HW127873  11.693  14.025   9.197
 8678SOL    HW227874  11.845  14.030   9.192
 8679SOL     OW27875   3.625   4.605   9.764
 8679SOL    HW127876   3.669   4.654   9.694
 8679SOL    HW227877   3.553   4.560   9.719
 8680SOL     OW27878   9.524   4.193   6.411
 8680SOL    HW127879   9.579   4.256   6.458
 8680SOL    HW227880   9.434   4.215   6.438
 8681SOL     OW27881   9.221  10.904   0.195
 8681SOL    HW127882   9.260  10.914   0.108
 8681SOL    HW227883   9.215  10.994   0.228
 8682SOL     OW27884  14.705  11.607   2.020
 8682SOL    HW127885  14.738  11.629   2.107
 8682SOL    HW227886  14.719  11.687   1.969
 8683SOL     OW27887   5.419   8.786  12.392
 8683SOL    HW127888   5.462   8.706  12.360
 8683SOL    HW227889   5.488   8.852  12.393
 8684SOL     OW27890  11.028   2.646   9.181
 8684SOL    HW127891  11.103   2.693   9.218
 8684SOL    HW227892  11.065   2.562   9.154
 8685SOL     OW27893   9.603   2.478   4.094
 8685SOL    HW127894   9.672   2.502   4.032
 8685SOL    HW227895   9.536   2.546   4.083
 8686SOL     OW27896  14.035  10.968   5.060
 8686SOL    HW127897  13.973  10.969   4.987
 8686SOL    HW227898  14.085  11.049   5.052
 8687SOL     OW27899  13.190   2.360   2.416
 8687SOL    HW127900  13.198   2.281   2.362
 8687SOL    HW227901  13.270   2.409   2.398
 8688SOL     OW27902  13.731   0.095   5.582
 8688SOL    HW127903  13.689   0.180   5.591
 8688SOL    HW227904  13.662   0.037   5.550
 8689SOL     OW27905   7.421  12.716  13.812
 8689SOL    HW127906   7.399  12.623  13.807
 8689SOL    HW227907   7.403  12.740  13.903
 8690SOL     OW27908   5.757   8.416   9.269
 8690SOL    HW127909   5.723   8.328   9.285
 8690SOL    HW227910   5.679   8.470   9.259
 8691SOL     OW27911  12.016  10.555  12.849
 8691SOL    HW127912  12.003  10.634  12.902
 8691SOL    HW227913  12.097  10.571  12.801
 8692SOL     OW27914  13.333   7.839   1.566
 8692SOL    HW127915  13.315   7.786   1.488
 8692SOL    HW227916  13.404   7.794   1.611
 8693SOL     OW27917  12.940   9.390   7.115
 8693SOL    HW127918  12.895   9.353   7.192
 8693SOL    HW227919  12.908   9.480   7.110
 8694SOL     OW27920   7.173   3.087   9.037
 8694SOL    HW127921   7.078   3.093   9.049
 8694SOL    HW227922   7.190   3.137   8.956
 8695SOL     OW27923   9.924   5.604  14.168
 8695SOL    HW127924   9.924   5.584  14.074
 8695SOL    HW227925   9.843   5.566  14.200
 8696SOL     OW27926   5.630   3.223   9.067
 8696SOL    HW127927   5.561   3.289   9.076
 8696SOL    HW227928   5.616   3.184   8.981
 8697SOL     OW27929   4.423   0.219  11.391
 8697SOL    HW127930   4.327   0.217  11.386
 8697SOL    HW227931   4.449   0.285  11.328
 8698SOL     OW27932   9.904   3.135   7.177
 8698SOL    HW127933   9.844   3.169   7.112
 8698SOL    HW227934   9.955   3.068   7.131
 8699SOL     OW27935   7.669  14.092  13.675
 8699SOL    HW127936   7.658  14.033  13.600
 8699SOL    HW227937   7.603  14.160  13.663
 8700SOL     OW27938   3.986  11.556  12.799
 8700SOL    HW127939   3.953  11.606  12.725
 8700SOL    HW227940   4.022  11.476  12.760
 8701SOL     OW27941  11.526   8.461   9.336
 8701SOL    HW127942  11.581   8.404   9.390
 8701SOL    HW227943  11.499   8.405   9.263
 8702SOL     OW27944   4.946   7.457  14.662
 8702SOL    HW127945   5.015   7.484  14.601
 8702SOL    HW227946   4.989   7.452  14.747
 8703SOL     OW27947   3.634   6.042   3.095
 8703SOL    HW127948   3.577   6.030   3.018
 8703SOL    HW227949   3.578   6.021   3.169
 8704SOL     OW27950  10.937   8.989   2.255
 8704SOL    HW127951  10.989   9.025   2.327
 8704SOL    HW227952  10.991   9.004   2.177
 8705SOL     OW27953  12.881   0.641   3.224
 8705SOL    HW127954  12.870   0.734   3.205
 8705SOL    HW227955  12.945   0.638   3.295
 8706SOL     OW27956  11.843   1.936  12.975
 8706SOL    HW127957  11.888   1.852  12.985
 8706SOL    HW227958  11.895   1.997  13.027
 8707SOL     OW27959  10.367   1.667   5.139
 8707SOL    HW127960  10.275   1.653   5.164
 8707SOL    HW227961  10.397   1.738   5.196
 8708SOL     OW27962   7.114  10.307   8.990
 8708SOL    HW127963   7.167  10.256   8.928
 8708SOL    HW227964   7.148  10.396   8.983
 8709SOL     OW27965   3.314  12.661   6.258
 8709SOL    HW127966   3.286  12.579   6.299
 8709SOL    HW227967   3.266  12.729   6.306
 8710SOL     OW27968   4.261   5.943   1.499
 8710SOL    HW127969   4.304   5.902   1.574
 8710SOL    HW227970   4.180   5.979   1.535
 8711SOL     OW27971   9.269  10.539   3.607
 8711SOL    HW127972   9.335  10.603   3.582
 8711SOL    HW227973   9.189  10.569   3.566
 8712SOL     OW27974  11.497  10.788   5.265
 8712SOL    HW127975  11.582  10.830   5.276
 8712SOL    HW227976  11.510  10.724   5.195
 8713SOL     OW27977  14.541  10.416   4.085
 8713SOL    HW127978  14.532  10.452   4.174
 8713SOL    HW227979  14.561  10.493   4.031
 8714SOL     OW27980   0.986   9.628   2.062
 8714SOL    HW127981   0.933   9.552   2.085
 8714SOL    HW227982   1.070   9.612   2.105
 8715SOL     OW27983   9.537   8.319   4.591
 8715SOL    HW127984   9.588   8.372   4.529
 8715SOL    HW227985   9.529   8.234   4.548
 8716SOL     OW27986   9.928   5.112  13.556
 8716SOL    HW127987  10.017   5.122  13.520
 8716SOL    HW227988   9.871   5.146  13.487
 8717SOL     OW27989   7.458  14.480   9.719
 8717SOL    HW127990   7.381  14.461   9.665
 8717SOL    HW227991   7.486  14.396   9.753
 8718SOL     OW27992   3.386  10.637   8.738
 8718SOL    HW127993   3.477  10.616   8.719
 8718SOL    HW227994   3.365  10.587   8.817
 8719SOL     OW27995   3.937   5.945   2.673
 8719SOL    HW127996   3.965   6.036   2.660
 8719SOL    HW227997   3.845   5.953   2.701
 8720SOL     OW27998   2.244   2.029   4.593
 8720SOL    HW127999   2.332   2.011   4.559
 8720SOL    HW228000   2.209   1.943   4.614
 8721SOL     OW28001  12.708  10.718  11.314
 8721SOL    HW128002  12.676  10.681  11.232
 8721SOL    HW228003  12.741  10.805  11.290
 8722SOL     OW28004  14.844  13.773  14.404
 8722SOL    HW128005   0.041  13.734  14.442
 8722SOL    HW228006  14.818  13.712  14.335
 8723SOL     OW28007  11.297   7.975   0.240
 8723SOL    HW128008  11.339   8.059   0.261
 8723SOL    HW228009  11.364   7.926   0.193
 8724SOL     OW28010  11.950   9.969   0.079
 8724SOL    HW128011  11.984   9.981  14.872
 8724SOL    HW228012  11.901   9.887   0.074
 8725SOL     OW28013   5.928   8.395   3.515
 8725SOL    HW128014   5.958   8.447   3.440
 8725SOL    HW228015   6.004   8.389   3.572
 8726SOL     OW28016   4.372   4.938  10.033
 8726SOL    HW128017   4.454   4.928  10.081
 8726SOL    HW228018   4.304   4.933  10.100
 8727SOL     OW28019  11.733   0.682   5.739
 8727SOL    HW128020  11.809   0.702   5.793
 8727SOL    HW228021  11.765   0.687   5.649
 8728SOL     OW28022   3.799   5.395  12.825
 8728SOL    HW128023   3.848   5.359  12.751
 8728SOL    HW228024   3.715   5.421  12.788
 8729SOL     OW28025  13.678  11.745  12.500
 8729SOL    HW128026  13.700  11.825  12.453
 8729SOL    HW228027  13.591  11.721  12.468
 8730SOL     OW28028  10.788   0.557   0.835
 8730SOL    HW128029  10.744   0.640   0.851
 8730SOL    HW228030  10.765   0.502   0.909
 8731SOL     OW28031  10.231  14.162  10.381
 8731SOL    HW128032  10.283  14.166  10.301
 8731SOL    HW228033  10.267  14.230  10.437
 8732SOL     OW28034  12.190   8.268  12.507
 8732SOL    HW128035  12.272   8.261  12.556
 8732SOL    HW228036  12.141   8.189  12.529
 8733SOL     OW28037  12.396   3.139   3.224
 8733SOL    HW128038  12.377   3.173   3.136
 8733SOL    HW228039  12.331   3.181   3.280
 8734SOL     OW28040  11.371   6.772   9.675
 8734SOL    HW128041  11.315   6.748   9.749
 8734SOL    HW228042  11.310   6.807   9.610
 8735SOL     OW28043   1.073   4.646   1.025
 8735SOL    HW128044   1.150   4.695   0.996
 8735SOL    HW228045   1.059   4.676   1.115
 8736SOL     OW28046   1.876   5.485   4.251
 8736SOL    HW128047   1.900   5.394   4.268
 8736SOL    HW228048   1.842   5.484   4.161
 8737SOL     OW28049   8.267  13.616   7.527
 8737SOL    HW128050   8.315  13.651   7.452
 8737SOL    HW228051   8.283  13.679   7.597
 8738SOL     OW28052  11.630   7.738   5.253
 8738SOL    HW128053  11.646   7.748   5.346
 8738SOL    HW228054  11.551   7.789   5.236
 8739SOL     OW28055   4.629   4.108   5.365
 8739SOL    HW128056   4.631   4.062   5.449
 8739SOL    HW228057   4.541   4.090   5.330
 8740SOL     OW28058  14.370   7.279  13.870
 8740SOL    HW128059  14.420   7.349  13.828
 8740SOL    HW228060  14.282   7.286  13.833
 8741SOL     OW28061  12.105  13.130  12.367
 8741SOL    HW128062  12.110  13.213  12.413
 8741SOL    HW228063  12.011  13.111  12.360
 8742SOL     OW28064   7.810   3.959   6.297
 8742SOL    HW128065   7.765   4.024   6.350
 8742SOL    HW228066   7.876   4.009   6.249
 8743SOL     OW28067   5.248   1.951  10.503
 8743SOL    HW128068   5.290   1.932  10.419
 8743SOL    HW228069   5.316   1.994  10.555
 8744SOL     OW28070  12.609   8.384   8.035
 8744SOL    HW128071  12.584   8.444   7.965
 8744SOL    HW228072  12.616   8.299   7.992
 8745SOL     OW28073  10.978   5.907   8.827
 8745SOL    HW128074  10.893   5.933   8.863
 8745SOL    HW228075  10.974   5.812   8.822
 8746SOL     OW28076   3.079  13.459   7.829
 8746SOL    HW128077   3.134  13.459   7.908
 8746SOL    HW228078   3.100  13.540   7.784
 8747SOL     OW28079   4.076   4.428  13.580
 8747SOL    HW128080   3.995   4.479  13.570
 8747SOL    HW228081   4.049   4.350  13.628
 8748SOL     OW28082  12.195   1.220   9.732
 8748SOL    HW128083  12.226   1.298   9.778
 8748SOL    HW228084  12.275   1.179   9.699
 8749SOL     OW28085   6.956  10.328   9.897
 8749SOL    HW128086   6.915  10.414   9.885
 8749SOL    HW228087   6.962  10.292   9.809
 8750SOL     OW28088  13.361  13.651   0.891
 8750SOL    HW128089  13.409  13.733   0.906
 8750SOL    HW228090  13.297  13.648   0.963
 8751SOL     OW28091   7.457   0.119  12.853
 8751SOL    HW128092   7.415   0.120  12.939
 8751SOL    HW228093   7.409   0.053  12.803
 8752SOL     OW28094   1.249  10.377   7.865
 8752SOL    HW128095   1.298  10.458   7.853
 8752SOL    HW228096   1.188  10.396   7.937
 8753SOL     OW28097   1.475   9.058   5.102
 8753SOL    HW128098   1.499   9.059   5.195
 8753SOL    HW228099   1.379   9.053   5.103
 8754SOL     OW28100   4.211   7.469   5.580
 8754SOL    HW128101   4.174   7.382   5.599
 8754SOL    HW228102   4.135   7.526   5.571
 8755SOL     OW28103   5.618   9.499   2.781
 8755SOL    HW128104   5.634   9.592   2.766
 8755SOL    HW228105   5.534   9.497   2.828
 8756SOL     OW28106  13.727   1.838   0.452
 8756SOL    HW128107  13.781   1.761   0.437
 8756SOL    HW228108  13.652   1.827   0.392
 8757SOL     OW28109  12.584   9.706   2.560
 8757SOL    HW128110  12.507   9.657   2.531
 8757SOL    HW228111  12.651   9.685   2.496
 8758SOL     OW28112   1.657  12.055  11.123
 8758SOL    HW128113   1.692  12.049  11.034
 8758SOL    HW228114   1.726  12.098  11.173
 8759SOL     OW28115   0.268   9.137   7.354
 8759SOL    HW128116   0.231   9.222   7.329
 8759SOL    HW228117   0.191   9.083   7.375
 8760SOL     OW28118   3.176  13.228  12.221
 8760SOL    HW128119   3.204  13.213  12.130
 8760SOL    HW228120   3.085  13.255  12.214
 8761SOL     OW28121   8.369  14.596  10.607
 8761SOL    HW128122   8.311  14.527  10.576
 8761SOL    HW228123   8.379  14.654  10.531
 8762SOL     OW28124  14.373   1.923   0.318
 8762SOL    HW128125  14.381   1.949   0.410
 8762SOL    HW228126  14.386   1.828   0.319
 8763SOL     OW28127   0.806   9.244   7.313
 8763SOL    HW128128   0.745   9.170   7.311
 8763SOL    HW228129   0.873   9.219   7.376
 8764SOL     OW28130   1.536   1.489   8.486
 8764SOL    HW128131   1.594   1.435   8.539
 8764SOL    HW228132   1.579   1.495   8.401
 8765SOL     OW28133   0.315   9.224   1.724
 8765SOL    HW128134   0.370   9.147   1.712
 8765SOL    HW228135   0.266   9.233   1.642
 8766SOL     OW28136   9.841  14.319   3.174
 8766SOL    HW128137   9.768  14.283   3.224
 8766SOL    HW228138   9.826  14.413   3.171
 8767SOL     OW28139   4.377   8.714   4.604
 8767SOL    HW128140   4.361   8.801   4.566
 8767SOL    HW228141   4.386   8.656   4.528
 8768SOL     OW28142   2.560   9.884   4.646
 8768SOL    HW128143   2.478   9.933   4.649
 8768SOL    HW228144   2.561   9.846   4.558
 8769SOL     OW28145  13.700   5.202  12.521
 8769SOL    HW128146  13.736   5.215  12.433
 8769SOL    HW228147  13.769   5.234  12.580
 8770SOL     OW28148   9.407   5.663   8.095
 8770SOL    HW128149   9.462   5.615   8.157
 8770SOL    HW228150   9.467   5.689   8.025
 8771SOL     OW28151   0.166  11.748   4.500
 8771SOL    HW128152   0.205  11.692   4.566
 8771SOL    HW228153   0.188  11.837   4.528
 8772SOL     OW28154  11.839  11.474   8.242
 8772SOL    HW128155  11.927  11.436   8.245
 8772SOL    HW228156  11.785  11.405   8.203
 8773SOL     OW28157  14.312   8.173  13.302
 8773SOL    HW128158  14.350   8.218  13.227
 8773SOL    HW228159  14.223   8.150  13.275
 8774SOL     OW28160   8.753   1.849   7.924
 8774SOL    HW128161   8.718   1.925   7.879
 8774SOL    HW228162   8.832   1.826   7.875
 8775SOL     OW28163  11.844  14.713   5.208
 8775SOL    HW128164  11.762  14.714   5.159
 8775SOL    HW228165  11.880  14.801   5.196
 8776SOL     OW28166  11.044   2.302  14.381
 8776SOL    HW128167  11.069   2.337  14.466
 8776SOL    HW228168  11.009   2.378  14.334
 8777SOL     OW28169  13.725  12.565   7.748
 8777SOL    HW128170  13.688  12.633   7.692
 8777SOL    HW228171  13.692  12.483   7.711
 8778SOL     OW28172   4.826   3.936   4.100
 8778SOL    HW128173   4.758   3.944   4.033
 8778SOL    HW228174   4.908   3.939   4.052
 8779SOL     OW28175   6.681  12.617   8.740
 8779SOL    HW128176   6.741  12.623   8.814
 8779SOL    HW228177   6.598  12.652   8.773
 8780SOL     OW28178   6.306  12.288   3.344
 8780SOL    HW128179   6.396  12.302   3.372
 8780SOL    HW228180   6.295  12.193   3.346
 8781SOL     OW28181  13.232  11.685   6.548
 8781SOL    HW128182  13.247  11.766   6.499
 8781SOL    HW228183  13.234  11.616   6.481
 8782SOL     OW28184  12.945  12.641   3.974
 8782SOL    HW128185  13.013  12.632   3.908
 8782SOL    HW228186  12.863  12.634   3.925
 8783SOL     OW28187   0.611  14.263   3.678
 8783SOL    HW128188   0.699  14.289   3.652
 8783SOL    HW228189   0.561  14.344   3.678
 8784SOL     OW28190   3.407   1.034  14.757
 8784SOL    HW128191   3.355   1.057  14.680
 8784SOL    HW228192   3.470   0.969  14.725
 8785SOL     OW28193   6.430  10.819   2.705
 8785SOL    HW128194   6.395  10.763   2.775
 8785SOL    HW228195   6.522  10.793   2.698
 8786SOL     OW28196   2.722   7.465   4.023
 8786SOL    HW128197   2.664   7.486   3.949
 8786SOL    HW228198   2.810   7.486   3.990
 8787SOL     OW28199   0.282  10.693  12.027
 8787SOL    HW128200   0.206  10.635  12.031
 8787SOL    HW228201   0.246  10.778  12.003
 8788SOL     OW28202  12.479  11.868  13.736
 8788SOL    HW128203  12.479  11.775  13.760
 8788SOL    HW228204  12.567  11.884  13.701
 8789SOL     OW28205   4.060   8.813   4.682
 8789SOL    HW128206   4.091   8.725   4.664
 8789SOL    HW228207   4.055   8.855   4.596
 8790SOL     OW28208   2.819   7.546   0.120
 8790SOL    HW128209   2.806   7.579   0.031
 8790SOL    HW228210   2.800   7.453   0.114
 8791SOL     OW28211   8.699   8.803   4.722
 8791SOL    HW128212   8.784   8.816   4.763
 8791SOL    HW228213   8.677   8.889   4.685
 8792SOL     OW28214   7.955   1.078   4.326
 8792SOL    HW128215   7.889   1.111   4.265
 8792SOL    HW228216   8.015   1.152   4.339
 8793SOL     OW28217  13.598   9.647   9.583
 8793SOL    HW128218  13.549   9.642   9.501
 8793SOL    HW228219  13.616   9.741   9.594
 8794SOL     OW28220  13.342   0.093   6.239
 8794SOL    HW128221  13.435   0.068   6.237
 8794SOL    HW228222  13.307   0.050   6.317
 8795SOL     OW28223  12.622  12.163  11.186
 8795SOL    HW128224  12.611  12.223  11.260
 8795SOL    HW228225  12.567  12.088  11.208
 8796SOL     OW28226   4.015   7.111  10.245
 8796SOL    HW128227   3.954   7.149  10.308
 8796SOL    HW228228   3.959   7.082  10.172
 8797SOL     OW28229  13.046   5.094  12.594
 8797SOL    HW128230  13.018   5.111  12.685
 8797SOL    HW228231  13.085   5.177  12.566
 8798SOL     OW28232  13.822  12.819  11.608
 8798SOL    HW128233  13.877  12.889  11.571
 8798SOL    HW228234  13.734  12.840  11.579
 8799SOL     OW28235  10.906   9.170  13.936
 8799SOL    HW128236  10.969   9.232  13.973
 8799SOL    HW228237  10.960   9.108  13.888
 8800SOL     OW28238  10.614   0.227   1.840
 8800SOL    HW128239  10.668   0.163   1.888
 8800SOL    HW228240  10.650   0.226   1.751
 8801SOL     OW28241   4.850  13.254   6.438
 8801SOL    HW128242   4.868  13.164   6.412
 8801SOL    HW228243   4.863  13.305   6.358
 8802SOL     OW28244   1.810   4.515   5.526
 8802SOL    HW128245   1.850   4.434   5.557
 8802SOL    HW228246   1.787   4.562   5.606
 8803SOL     OW28247   3.755   0.540  12.676
 8803SOL    HW128248   3.663   0.532  12.700
 8803SOL    HW228249   3.785   0.619  12.721
 8804SOL     OW28250  14.109   8.592  14.312
 8804SOL    HW128251  14.185   8.552  14.354
 8804SOL    HW228252  14.135   8.683  14.296
 8805SOL     OW28253   2.264   5.174   0.823
 8805SOL    HW128254   2.241   5.254   0.776
 8805SOL    HW228255   2.323   5.203   0.892
 8806SOL     OW28256   9.259   6.106  10.199
 8806SOL    HW128257   9.341   6.055  10.197
 8806SOL    HW228258   9.211   6.077  10.121
 8807SOL     OW28259  13.128  11.055   7.180
 8807SOL    HW128260  13.168  10.981   7.224
 8807SOL    HW228261  13.159  11.132   7.228
 8808SOL     OW28262   8.986   1.345   3.465
 8808SOL    HW128263   8.974   1.418   3.404
 8808SOL    HW228264   8.898   1.323   3.495
 8809SOL     OW28265   4.375   7.626   0.326
 8809SOL    HW128266   4.365   7.710   0.371
 8809SOL    HW228267   4.293   7.580   0.341
 8810SOL     OW28268   4.774   3.406   1.527
 8810SOL    HW128269   4.721   3.483   1.547
 8810SOL    HW228270   4.864   3.432   1.545
 8811SOL     OW28271   8.797   3.407   6.364
 8811SOL    HW128272   8.774   3.483   6.312
 8811SOL    HW228273   8.767   3.332   6.313
 8812SOL     OW28274   7.332   0.860  10.193
 8812SOL    HW128275   7.389   0.890  10.264
 8812SOL    HW228276   7.256   0.918  10.197
 8813SOL     OW28277  14.358   2.679   9.391
 8813SOL    HW128278  14.382   2.586   9.385
 8813SOL    HW228279  14.381   2.704   9.480
 8814SOL     OW28280   6.912  13.190  12.234
 8814SOL    HW128281   6.941  13.152  12.317
 8814SOL    HW228282   6.926  13.284  12.245
 8815SOL     OW28283   7.892   8.428  13.738
 8815SOL    HW128284   7.803   8.452  13.713
 8815SOL    HW228285   7.934   8.510  13.764
 8816SOL     OW28286  14.827  14.200   8.687
 8816SOL    HW128287  14.739  14.167   8.669
 8816SOL    HW228288  14.856  14.240   8.605
 8817SOL     OW28289   0.418   7.399   7.860
 8817SOL    HW128290   0.324   7.392   7.844
 8817SOL    HW228291   0.449   7.309   7.857
 8818SOL     OW28292   3.699   3.617   6.451
 8818SOL    HW128293   3.660   3.601   6.365
 8818SOL    HW228294   3.791   3.637   6.433
 8819SOL     OW28295   1.340   9.944  11.091
 8819SOL    HW128296   1.325   9.922  11.183
 8819SOL    HW228297   1.434   9.956  11.084
 8820SOL     OW28298   8.791   5.279   0.581
 8820SOL    HW128299   8.798   5.248   0.490
 8820SOL    HW228300   8.728   5.219   0.622
 8821SOL     OW28301  12.375   5.964   5.442
 8821SOL    HW128302  12.302   6.023   5.461
 8821SOL    HW228303  12.395   5.923   5.526
 8822SOL     OW28304  10.760   9.442   3.450
 8822SOL    HW128305  10.808   9.393   3.516
 8822SOL    HW228306  10.774   9.393   3.369
 8823SOL     OW28307   2.206   3.294  13.600
 8823SOL    HW128308   2.112   3.308  13.593
 8823SOL    HW228309   2.245   3.363  13.545
 8824SOL     OW28310  14.246   1.079   2.839
 8824SOL    HW128311  14.288   1.016   2.897
 8824SOL    HW228312  14.217   1.150   2.897
 8825SOL     OW28313   2.831   7.988  11.449
 8825SOL    HW128314   2.752   8.039  11.467
 8825SOL    HW228315   2.850   8.005  11.356
 8826SOL     OW28316  14.799   3.178   3.936
 8826SOL    HW128317  14.732   3.183   3.868
 8826SOL    HW228318  14.865   3.119   3.900
 8827SOL     OW28319   2.581   3.487   1.119
 8827SOL    HW128320   2.674   3.479   1.139
 8827SOL    HW228321   2.569   3.439   1.037
 8828SOL     OW28322  11.397   5.659   4.172
 8828SOL    HW128323  11.415   5.672   4.079
 8828SOL    HW228324  11.453   5.723   4.217
 8829SOL     OW28325   3.719  11.344   0.301
 8829SOL    HW128326   3.666  11.416   0.267
 8829SOL    HW228327   3.688  11.266   0.254
 8830SOL     OW28328  13.027   3.907  14.477
 8830SOL    HW128329  12.943   3.861  14.488
 8830SOL    HW228330  13.071   3.896  14.562
 8831SOL     OW28331   5.092   1.615   5.500
 8831SOL    HW128332   5.155   1.596   5.570
 8831SOL    HW228333   5.146   1.633   5.423
 8832SOL     OW28334   3.484  12.685   0.741
 8832SOL    HW128335   3.456  12.754   0.680
 8832SOL    HW228336   3.515  12.733   0.817
 8833SOL     OW28337   7.547   1.875   3.556
 8833SOL    HW128338   7.615   1.907   3.616
 8833SOL    HW228339   7.468   1.923   3.582
 8834SOL     OW28340   1.069   5.100  10.303
 8834SOL    HW128341   0.991   5.045  10.310
 8834SOL    HW228342   1.034   5.190  10.301
 8835SOL     OW28343   4.602  11.795  14.835
 8835SOL    HW128344   4.649  11.831  14.760
 8835SOL    HW228345   4.614  11.700  14.827
 8836SOL     OW28346   3.098   8.681  12.593
 8836SOL    HW128347   3.030   8.708  12.655
 8836SOL    HW228348   3.180   8.712  12.631
 8837SOL     OW28349   7.748   3.418  10.048
 8837SOL    HW128350   7.841   3.419  10.071
 8837SOL    HW228351   7.707   3.472  10.115
 8838SOL     OW28352   6.708  12.231  14.400
 8838SOL    HW128353   6.743  12.145  14.426
 8838SOL    HW228354   6.624  12.211  14.359
 8839SOL     OW28355   8.405  11.548   0.795
 8839SOL    HW128356   8.350  11.617   0.832
 8839SOL    HW228357   8.350  11.470   0.798
 8840SOL     OW28358   3.678   8.419   8.002
 8840SOL    HW128359   3.691   8.510   8.027
 8840SOL    HW228360   3.614   8.422   7.931
 8841SOL     OW28361  14.394   9.383   8.292
 8841SOL    HW128362  14.421   9.291   8.291
 8841SOL    HW228363  14.473   9.432   8.268
 8842SOL     OW28364  14.000   4.865   7.244
 8842SOL    HW128365  13.986   4.863   7.150
 8842SOL    HW228366  14.004   4.772   7.269
 8843SOL     OW28367  14.484  12.111   3.786
 8843SOL    HW128368  14.506  12.024   3.820
 8843SOL    HW228369  14.487  12.168   3.863
 8844SOL     OW28370   6.924  13.806   7.896
 8844SOL    HW128371   6.915  13.856   7.978
 8844SOL    HW228372   6.834  13.799   7.863
 8845SOL     OW28373  12.395   3.866  10.457
 8845SOL    HW128374  12.478   3.822  10.472
 8845SOL    HW228375  12.340   3.802  10.412
 8846SOL     OW28376   5.632  10.677   0.335
 8846SOL    HW128377   5.645  10.595   0.287
 8846SOL    HW228378   5.652  10.655   0.426
 8847SOL     OW28379   6.817   4.310  14.230
 8847SOL    HW128380   6.890   4.307  14.292
 8847SOL    HW228381   6.847   4.369  14.161
 8848SOL     OW28382   2.205   7.981  13.367
 8848SOL    HW128383   2.237   7.954  13.453
 8848SOL    HW228384   2.117   8.015  13.383
 8849SOL     OW28385   8.787  12.984  11.432
 8849SOL    HW128386   8.864  12.979  11.376
 8849SOL    HW228387   8.719  12.935  11.385
 8850SOL     OW28388   2.752   1.403   9.385
 8850SOL    HW128389   2.681   1.343   9.408
 8850SOL    HW228390   2.769   1.451   9.466
 8851SOL     OW28391   5.723   1.233  10.209
 8851SOL    HW128392   5.696   1.257  10.298
 8851SOL    HW228393   5.652   1.267  10.154
 8852SOL     OW28394   3.986   6.826  11.518
 8852SOL    HW128395   3.963   6.767  11.590
 8852SOL    HW228396   3.977   6.772  11.440
 8853SOL     OW28397   3.830  11.130   3.970
 8853SOL    HW128398   3.752  11.095   4.013
 8853SOL    HW228399   3.797  11.169   3.889
 8854SOL     OW28400   4.281   8.088   2.679
 8854SOL    HW128401   4.281   8.156   2.747
 8854SOL    HW228402   4.254   8.008   2.724
 8855SOL     OW28403   3.379  12.594   2.086
 8855SOL    HW128404   3.347  12.554   2.005
 8855SOL    HW228405   3.332  12.548   2.156
 8856SOL     OW28406   8.262   8.977  11.475
 8856SOL    HW128407   8.201   9.001  11.545
 8856SOL    HW228408   8.207   8.966  11.398
 8857SOL     OW28409   3.321  10.898  13.460
 8857SOL    HW128410   3.390  10.963  13.471
 8857SOL    HW228411   3.254  10.944  13.408
 8858SOL     OW28412   3.177  14.220  10.077
 8858SOL    HW128413   3.084  14.197  10.078
 8858SOL    HW228414   3.190  14.265   9.994
 8859SOL     OW28415  10.740   8.862  13.255
 8859SOL    HW128416  10.736   8.767  13.247
 8859SOL    HW228417  10.649   8.891  13.243
 8860SOL     OW28418  11.098  13.666   9.329
 8860SOL    HW128419  11.100  13.760   9.351
 8860SOL    HW228420  11.096  13.664   9.233
 8861SOL     OW28421   4.422   2.387   2.966
 8861SOL    HW128422   4.360   2.351   3.030
 8861SOL    HW228423   4.372   2.393   2.885
 8862SOL     OW28424  10.585  12.252  11.962
 8862SOL    HW128425  10.680  12.266  11.965
 8862SOL    HW228426  10.576  12.157  11.963
 8863SOL     OW28427   7.061   6.780   0.857
 8863SOL    HW128428   7.043   6.697   0.900
 8863SOL    HW228429   7.054   6.846   0.926
 8864SOL     OW28430   3.738   6.126   9.836
 8864SOL    HW128431   3.740   6.032   9.816
 8864SOL    HW228432   3.646   6.151   9.826
 8865SOL     OW28433   4.644  13.130  11.445
 8865SOL    HW128434   4.589  13.203  11.415
 8865SOL    HW228435   4.694  13.105  11.367
 8866SOL     OW28436   1.583  11.844   9.972
 8866SOL    HW128437   1.576  11.768  10.029
 8866SOL    HW228438   1.621  11.912  10.028
 8867SOL     OW28439   6.138   6.044   6.454
 8867SOL    HW128440   6.150   6.066   6.361
 8867SOL    HW228441   6.045   6.055   6.469
 8868SOL     OW28442   0.595   0.237   8.957
 8868SOL    HW128443   0.674   0.268   9.002
 8868SOL    HW228444   0.539   0.205   9.027
 8869SOL     OW28445  11.367  13.258   5.509
 8869SOL    HW128446  11.332  13.225   5.427
 8869SOL    HW228447  11.450  13.299   5.485
 8870SOL     OW28448   9.135   8.803  11.003
 8870SOL    HW128449   9.206   8.782  11.063
 8870SOL    HW228450   9.107   8.891  11.028
 8871SOL     OW28451  14.164  14.329   6.797
 8871SOL    HW128452  14.196  14.363   6.881
 8871SOL    HW228453  14.127  14.405   6.753
 8872SOL     OW28454   3.477  12.227   6.483
 8872SOL    HW128455   3.522  12.198   6.404
 8872SOL    HW228456   3.492  12.156   6.546
 8873SOL     OW28457   5.983  12.070  12.382
 8873SOL    HW128458   5.941  12.138  12.329
 8873SOL    HW228459   5.995  12.110  12.468
 8874SOL     OW28460   9.694   8.219  11.736
 8874SOL    HW128461   9.661   8.159  11.803
 8874SOL    HW228462   9.616   8.266  11.706
 8875SOL     OW28463  12.196  10.167  12.860
 8875SOL    HW128464  12.159  10.125  12.937
 8875SOL    HW228465  12.256  10.102  12.823
 8876SOL     OW28466   7.383   0.112   1.993
 8876SOL    HW128467   7.450   0.045   1.980
 8876SOL    HW228468   7.381   0.160   1.911
 8877SOL     OW28469   9.308   1.408  13.451
 8877SOL    HW128470   9.287   1.325  13.408
 8877SOL    HW228471   9.313   1.471  13.379
 8878SOL     OW28472   4.170   1.077   7.688
 8878SOL    HW128473   4.147   1.122   7.607
 8878SOL    HW228474   4.088   1.038   7.719
 8879SOL     OW28475   8.771   7.643   4.240
 8879SOL    HW128476   8.774   7.698   4.161
 8879SOL    HW228477   8.722   7.566   4.213
 8880SOL     OW28478  14.355  10.038  14.617
 8880SOL    HW128479  14.378  10.059  14.527
 8880SOL    HW228480  14.262  10.014  14.614
 8881SOL     OW28481   8.611   6.381   4.704
 8881SOL    HW128482   8.590   6.360   4.795
 8881SOL    HW228483   8.531   6.358   4.656
 8882SOL     OW28484   2.910   3.132  14.736
 8882SOL    HW128485   2.889   3.180  14.816
 8882SOL    HW228486   2.934   3.045  14.767
 8883SOL     OW28487   1.124   1.130   7.525
 8883SOL    HW128488   1.212   1.148   7.492
 8883SOL    HW228489   1.126   1.036   7.545
 8884SOL     OW28490  14.622   1.993   5.038
 8884SOL    HW128491  14.596   2.044   4.961
 8884SOL    HW228492  14.573   1.911   5.030
 8885SOL     OW28493  11.935  10.243  10.183
 8885SOL    HW128494  12.016  10.292  10.198
 8885SOL    HW228495  11.872  10.310  10.156
 8886SOL     OW28496  13.161   5.790   7.812
 8886SOL    HW128497  13.219   5.738   7.756
 8886SOL    HW228498  13.164   5.878   7.773
 8887SOL     OW28499   4.138   7.434   4.708
 8887SOL    HW128500   4.217   7.415   4.758
 8887SOL    HW228501   4.165   7.423   4.616
 8888SOL     OW28502   5.133  10.464  10.608
 8888SOL    HW128503   5.040  10.448  10.620
 8888SOL    HW228504   5.163  10.496  10.694
 8889SOL     OW28505  10.867  14.440  12.423
 8889SOL    HW128506  10.880  14.373  12.491
 8889SOL    HW228507  10.897  14.521  12.464
 8890SOL     OW28508  13.042   4.955   8.813
 8890SOL    HW128509  13.064   4.910   8.895
 8890SOL    HW228510  12.969   4.904   8.777
 8891SOL     OW28511  13.800  14.758  13.675
 8891SOL    HW128512  13.781  14.665  13.664
 8891SOL    HW228513  13.807  14.792  13.586
 8892SOL     OW28514   0.359   2.189  13.700
 8892SOL    HW128515   0.287   2.128  13.686
 8892SOL    HW228516   0.430   2.154  13.646
 8893SOL     OW28517   5.891  11.643  11.904
 8893SOL    HW128518   5.909  11.694  11.982
 8893SOL    HW228519   5.816  11.587  11.928
 8894SOL     OW28520   9.998  14.471   0.471
 8894SOL    HW128521  10.086  14.491   0.504
 8894SOL    HW228522   9.961  14.412   0.536
 8895SOL     OW28523   6.296   2.739   0.473
 8895SOL    HW128524   6.304   2.646   0.497
 8895SOL    HW228525   6.290   2.737   0.377
 8896SOL     OW28526  13.719   4.237   7.443
 8896SOL    HW128527  13.717   4.194   7.529
 8896SOL    HW228528  13.674   4.177   7.385
 8897SOL     OW28529   4.924   5.220  10.586
 8897SOL    HW128530   4.860   5.159  10.622
 8897SOL    HW228531   4.956   5.177  10.506
 8898SOL     OW28532  14.122   1.059   6.112
 8898SOL    HW128533  14.211   1.034   6.138
 8898SOL    HW228534  14.102   1.003   6.037
 8899SOL     OW28535  11.813   7.378   9.042
 8899SOL    HW128536  11.845   7.369   9.132
 8899SOL    HW228537  11.778   7.467   9.037
 8900SOL     OW28538   8.592   1.697   1.802
 8900SOL    HW128539   8.591   1.673   1.709
 8900SOL    HW228540   8.632   1.783   1.805
 8901SOL     OW28541   1.043  11.020   9.636
 8901SOL    HW128542   1.055  11.071   9.556
 8901SOL    HW228543   0.950  10.997   9.636
 8902SOL     OW28544   5.120   6.566   8.122
 8902SOL    HW128545   5.093   6.482   8.159
 8902SOL    HW228546   5.093   6.631   8.187
 8903SOL     OW28547   8.528   5.092   1.821
 8903SOL    HW128548   8.513   5.073   1.913
 8903SOL    HW228549   8.468   5.163   1.801
 8904SOL     OW28550   0.458  10.331   2.206
 8904SOL    HW128551   0.439  10.315   2.299
 8904SOL    HW228552   0.457  10.426   2.197
 8905SOL     OW28553   5.237   2.619   7.186
 8905SOL    HW128554   5.227   2.530   7.218
 8905SOL    HW228555   5.162   2.631   7.127
 8906SOL     OW28556   6.137   0.923  14.801
 8906SOL    HW128557   6.174   0.888  14.720
 8906SOL    HW228558   6.045   0.938  14.780
 8907SOL     OW28559   6.259  12.194   4.450
 8907SOL    HW128560   6.281  12.181   4.358
 8907SOL    HW228561   6.212  12.278   4.451
 8908SOL     OW28562   3.959  10.882  13.497
 8908SOL    HW128563   4.005  10.844  13.572
 8908SOL    HW228564   4.023  10.878  13.426
 8909SOL     OW28565   9.516  11.389  14.775
 8909SOL    HW128566   9.523  11.379  14.680
 8909SOL    HW228567   9.567  11.317  14.810
 8910SOL     OW28568   6.303   2.421  11.083
 8910SOL    HW128569   6.305   2.361  11.008
 8910SOL    HW228570   6.312   2.364  11.159
 8911SOL     OW28571  11.512   7.631   1.405
 8911SOL    HW128572  11.588   7.673   1.366
 8911SOL    HW228573  11.444   7.635   1.338
 8912SOL     OW28574  13.642   2.010  13.832
 8912SOL    HW128575  13.613   2.086  13.882
 8912SOL    HW228576  13.642   1.938  13.896
 8913SOL     OW28577   2.167   8.544  11.799
 8913SOL    HW128578   2.096   8.561  11.738
 8913SOL    HW228579   2.233   8.498  11.748
 8914SOL     OW28580   5.133   6.909  12.398
 8914SOL    HW128581   5.079   6.988  12.404
 8914SOL    HW228582   5.086   6.843  12.449
 8915SOL     OW28583   3.004  14.026   0.981
 8915SOL    HW128584   3.008  14.023   1.077
 8915SOL    HW228585   3.094  14.009   0.953
 8916SOL     OW28586   4.980   6.891  13.572
 8916SOL    HW128587   4.989   6.878  13.478
 8916SOL    HW228588   4.910   6.956  13.581
 8917SOL     OW28589   7.461   0.713   3.921
 8917SOL    HW128590   7.523   0.640   3.928
 8917SOL    HW228591   7.510   0.782   3.877
 8918SOL     OW28592   8.999   0.762   5.067
 8918SOL    HW128593   9.053   0.719   5.002
 8918SOL    HW228594   8.921   0.792   5.019
 8919SOL     OW28595   3.296   1.776   5.238
 8919SOL    HW128596   3.330   1.757   5.325
 8919SOL    HW228597   3.201   1.777   5.248
 8920SOL     OW28598   4.166   1.000  11.998
 8920SOL    HW128599   4.241   0.979  12.053
 8920SOL    HW228600   4.116   0.918  11.992
 8921SOL     OW28601   5.553  14.217   0.911
 8921SOL    HW128602   5.473  14.193   0.865
 8921SOL    HW228603   5.525  14.271   0.984
 8922SOL     OW28604  12.054   5.263   8.531
 8922SOL    HW128605  12.149   5.271   8.525
 8922SOL    HW228606  12.032   5.303   8.615
 8923SOL     OW28607   4.374  13.038  12.864
 8923SOL    HW128608   4.301  13.054  12.925
 8923SOL    HW228609   4.364  13.106  12.797
 8924SOL     OW28610   7.206   7.745   4.579
 8924SOL    HW128611   7.121   7.787   4.565
 8924SOL    HW228612   7.216   7.685   4.505
 8925SOL     OW28613   0.377  11.252   0.128
 8925SOL    HW128614   0.302  11.307   0.148
 8925SOL    HW228615   0.344  11.189   0.063
 8926SOL     OW28616  13.360  14.230   4.755
 8926SOL    HW128617  13.377  14.300   4.818
 8926SOL    HW228618  13.272  14.249   4.721
 8927SOL     OW28619   7.285  12.732   8.223
 8927SOL    HW128620   7.294  12.796   8.294
 8927SOL    HW228621   7.277  12.647   8.268
 8928SOL     OW28622   6.345  10.871   8.865
 8928SOL    HW128623   6.382  10.955   8.892
 8928SOL    HW228624   6.250  10.884   8.870
 8929SOL     OW28625   3.618  13.445   3.824
 8929SOL    HW128626   3.558  13.431   3.897
 8929SOL    HW228627   3.596  13.376   3.761
 8930SOL     OW28628  10.142  11.983  14.713
 8930SOL    HW128629  10.101  12.069  14.721
 8930SOL    HW228630  10.176  11.963  14.800
 8931SOL     OW28631   7.817  10.096   3.301
 8931SOL    HW128632   7.729  10.133   3.310
 8931SOL    HW228633   7.869  10.166   3.263
 8932SOL     OW28634   4.666  13.938  10.309
 8932SOL    HW128635   4.571  13.945  10.311
 8932SOL    HW228636   4.692  13.973  10.225
 8933SOL     OW28637   8.069  13.097  13.862
 8933SOL    HW128638   8.057  13.036  13.789
 8933SOL    HW228639   7.988  13.148  13.863
 8934SOL     OW28640   0.969   1.899   5.475
 8934SOL    HW128641   0.910   1.933   5.407
 8934SOL    HW228642   0.928   1.818   5.504
 8935SOL     OW28643  12.138   7.111   7.708
 8935SOL    HW128644  12.132   7.125   7.614
 8935SOL    HW228645  12.155   7.017   7.717
 8936SOL     OW28646   7.331  14.497   8.801
 8936SOL    HW128647   7.274  14.553   8.854
 8936SOL    HW228648   7.352  14.550   8.724
 8937SOL     OW28649  12.172   8.955   1.215
 8937SOL    HW128650  12.197   8.966   1.123
 8937SOL    HW228651  12.234   9.010   1.263
 8938SOL     OW28652   6.025   6.070  10.043
 8938SOL    HW128653   5.970   6.146  10.063
 8938SOL    HW228654   6.030   6.022  10.125
 8939SOL     OW28655   0.208   6.027   2.476
 8939SOL    HW128656   0.282   6.000   2.421
 8939SOL    HW228657   0.132   6.021   2.419
 8940SOL     OW28658   8.934   2.982  14.361
 8940SOL    HW128659   8.919   2.951  14.272
 8940SOL    HW228660   8.887   3.065  14.366
 8941SOL     OW28661   1.092   1.166  12.856
 8941SOL    HW128662   1.055   1.158  12.768
 8941SOL    HW228663   1.037   1.109  12.910
 8942SOL     OW28664   1.492   7.997   6.627
 8942SOL    HW128665   1.492   7.993   6.723
 8942SOL    HW228666   1.414   7.947   6.601
 8943SOL     OW28667   0.896   1.060  13.580
 8943SOL    HW128668   0.935   1.021  13.658
 8943SOL    HW228669   0.961   1.046  13.510
 8944SOL     OW28670   1.629   3.113   0.277
 8944SOL    HW128671   1.567   3.142   0.344
 8944SOL    HW228672   1.661   3.194   0.238
 8945SOL     OW28673   3.273  10.628   6.134
 8945SOL    HW128674   3.230  10.693   6.190
 8945SOL    HW228675   3.303  10.560   6.195
 8946SOL     OW28676   4.594   4.556  13.927
 8946SOL    HW128677   4.669   4.560  13.987
 8946SOL    HW228678   4.628   4.510  13.850
 8947SOL     OW28679   2.526   4.213   9.657
 8947SOL    HW128680   2.608   4.243   9.617
 8947SOL    HW228681   2.457   4.247   9.601
 8948SOL     OW28682   3.310   4.346  11.868
 8948SOL    HW128683   3.326   4.260  11.828
 8948SOL    HW228684   3.252   4.390  11.805
 8949SOL     OW28685   9.734  10.222  12.671
 8949SOL    HW128686   9.791  10.291  12.638
 8949SOL    HW228687   9.647  10.262  12.675
 8950SOL     OW28688   6.178  13.508  11.385
 8950SOL    HW128689   6.087  13.517  11.414
 8950SOL    HW228690   6.204  13.597  11.359
 8951SOL     OW28691   7.732   2.421   4.387
 8951SOL    HW128692   7.679   2.440   4.309
 8951SOL    HW228693   7.721   2.497   4.443
 8952SOL     OW28694   2.835  10.568  14.605
 8952SOL    HW128695   2.749  10.586  14.567
 8952SOL    HW228696   2.862  10.485  14.565
 8953SOL     OW28697   8.572   7.934   8.407
 8953SOL    HW128698   8.523   7.910   8.327
 8953SOL    HW228699   8.579   7.852   8.455
 8954SOL     OW28700  11.420   6.989   5.296
 8954SOL    HW128701  11.489   7.042   5.336
 8954SOL    HW228702  11.436   6.995   5.202
 8955SOL     OW28703   7.711   2.174   4.747
 8955SOL    HW128704   7.671   2.101   4.793
 8955SOL    HW228705   7.643   2.207   4.689
 8956SOL     OW28706   3.009  11.035  14.498
 8956SOL    HW128707   2.996  10.994  14.412
 8956SOL    HW228708   3.082  11.096  14.484
 8957SOL     OW28709  10.552   9.188   9.171
 8957SOL    HW128710  10.511   9.271   9.193
 8957SOL    HW228711  10.496   9.151   9.103
 8958SOL     OW28712  10.047  14.152   3.099
 8958SOL    HW128713   9.985  14.222   3.121
 8958SOL    HW228714  10.097  14.138   3.179
 8959SOL     OW28715  13.812   1.989   5.791
 8959SOL    HW128716  13.749   2.043   5.838
 8959SOL    HW228717  13.802   2.014   5.699
 8960SOL     OW28718   8.723   5.961  10.759
 8960SOL    HW128719   8.738   5.867  10.768
 8960SOL    HW228720   8.695   5.972  10.668
 8961SOL     OW28721   9.835   9.950   7.105
 8961SOL    HW128722   9.807  10.035   7.138
 8961SOL    HW228723   9.928   9.945   7.125
 8962SOL     OW28724  12.773   7.054  13.336
 8962SOL    HW128725  12.835   7.050  13.263
 8962SOL    HW228726  12.757   6.963  13.359
 8963SOL     OW28727  13.485   2.588   5.189
 8963SOL    HW128728  13.494   2.613   5.281
 8963SOL    HW228729  13.531   2.504   5.183
 8964SOL     OW28730   8.639  11.858   2.817
 8964SOL    HW128731   8.688  11.926   2.863
 8964SOL    HW228732   8.565  11.838   2.876
 8965SOL     OW28733  14.617   4.136  13.553
 8965SOL    HW128734  14.700   4.089  13.547
 8965SOL    HW228735  14.554   4.070  13.579
 8966SOL     OW28736   2.732   1.975   5.179
 8966SOL    HW128737   2.786   1.896   5.167
 8966SOL    HW228738   2.768   2.016   5.258
 8967SOL     OW28739   6.065   4.484   9.224
 8967SOL    HW128740   5.982   4.528   9.242
 8967SOL    HW228741   6.044   4.390   9.232
 8968SOL     OW28742  13.391   8.833   8.265
 8968SOL    HW128743  13.334   8.868   8.334
 8968SOL    HW228744  13.478   8.867   8.286
 8969SOL     OW28745  12.527   7.922   4.148
 8969SOL    HW128746  12.597   7.967   4.101
 8969SOL    HW228747  12.573   7.860   4.205
 8970SOL     OW28748   5.814   0.300   5.735
 8970SOL    HW128749   5.805   0.278   5.642
 8970SOL    HW228750   5.895   0.258   5.762
 8971SOL     OW28751   7.588  13.278   5.503
 8971SOL    HW128752   7.567  13.273   5.410
 8971SOL    HW228753   7.507  13.306   5.544
 8972SOL     OW28754   7.494  14.388  14.663
 8972SOL    HW128755   7.399  14.391  14.669
 8972SOL    HW228756   7.516  14.295  14.661
 8973SOL     OW28757   5.431  13.527  14.137
 8973SOL    HW128758   5.484  13.452  14.165
 8973SOL    HW228759   5.351  13.520  14.189
 8974SOL     OW28760   8.890   5.546   5.752
 8974SOL    HW128761   8.818   5.602   5.780
 8974SOL    HW228762   8.969   5.591   5.781
 8975SOL     OW28763   4.007  12.686  12.738
 8975SOL    HW128764   3.933  12.633  12.768
 8975SOL    HW228765   4.084  12.643  12.777
 8976SOL     OW28766   0.665   2.678   8.571
 8976SOL    HW128767   0.742   2.724   8.537
 8976SOL    HW228768   0.687   2.659   8.662
 8977SOL     OW28769   7.364  12.240   8.580
 8977SOL    HW128770   7.344  12.252   8.673
 8977SOL    HW228771   7.407  12.322   8.554
 8978SOL     OW28772  10.402  12.671   4.145
 8978SOL    HW128773  10.398  12.609   4.072
 8978SOL    HW228774  10.388  12.756   4.104
 8979SOL     OW28775   0.721  10.359   7.683
 8979SOL    HW128776   0.638  10.343   7.728
 8979SOL    HW228777   0.761  10.432   7.730
 8980SOL     OW28778   4.836   9.791   0.430
 8980SOL    HW128779   4.821   9.881   0.458
 8980SOL    HW228780   4.863   9.798   0.339
 8981SOL     OW28781  13.286   0.099  11.490
 8981SOL    HW128782  13.371   0.139  11.470
 8981SOL    HW228783  13.232   0.121  11.414
 8982SOL     OW28784  13.048   7.361   4.042
 8982SOL    HW128785  13.142   7.357   4.061
 8982SOL    HW228786  13.042   7.333   3.950
 8983SOL     OW28787   4.516   4.969   8.011
 8983SOL    HW128788   4.424   4.943   8.007
 8983SOL    HW228789   4.530   4.991   8.103
 8984SOL     OW28790   3.377   9.529   8.293
 8984SOL    HW128791   3.410   9.589   8.227
 8984SOL    HW228792   3.336   9.458   8.244
 8985SOL     OW28793   0.192   0.587  11.678
 8985SOL    HW128794   0.108   0.630  11.695
 8985SOL    HW228795   0.257   0.642  11.721
 8986SOL     OW28796   6.897  11.132   9.382
 8986SOL    HW128797   6.948  11.123   9.302
 8986SOL    HW228798   6.817  11.083   9.365
 8987SOL     OW28799   4.863   2.778   8.517
 8987SOL    HW128800   4.891   2.793   8.608
 8987SOL    HW228801   4.775   2.740   8.525
 8988SOL     OW28802  13.991  14.353  11.073
 8988SOL    HW128803  13.986  14.385  10.983
 8988SOL    HW228804  14.083  14.366  11.097
 8989SOL     OW28805   3.443   0.366   6.417
 8989SOL    HW128806   3.412   0.334   6.501
 8989SOL    HW228807   3.376   0.336   6.354
 8990SOL     OW28808   8.534   8.755   9.418
 8990SOL    HW128809   8.580   8.833   9.386
 8990SOL    HW228810   8.535   8.694   9.345
 8991SOL     OW28811   2.480   4.392  13.793
 8991SOL    HW128812   2.447   4.334  13.862
 8991SOL    HW228813   2.477   4.339  13.713
 8992SOL     OW28814   6.648   7.521  12.052
 8992SOL    HW128815   6.688   7.434  12.055
 8992SOL    HW228816   6.705   7.571  11.994
 8993SOL     OW28817   4.741   7.303   4.350
 8993SOL    HW128818   4.670   7.238   4.352
 8993SOL    HW228819   4.793   7.284   4.428
 8994SOL     OW28820  10.515  11.422  10.076
 8994SOL    HW128821  10.498  11.384   9.989
 8994SOL    HW228822  10.461  11.369  10.136
 8995SOL     OW28823   2.786   4.271  13.680
 8995SOL    HW128824   2.770   4.362  13.705
 8995SOL    HW228825   2.777   4.271  13.584
 8996SOL     OW28826   0.425  10.975   2.410
 8996SOL    HW128827   0.463  10.889   2.391
 8996SOL    HW228828   0.399  10.969   2.502
 8997SOL     OW28829  10.247   5.901  13.920
 8997SOL    HW128830  10.245   5.807  13.935
 8997SOL    HW228831  10.251   5.910  13.825
 8998SOL     OW28832   9.014   9.887   8.159
 8998SOL    HW128833   9.042   9.846   8.077
 8998SOL    HW228834   8.976   9.816   8.211
 8999SOL     OW28835   6.308  13.796  13.395
 8999SOL    HW128836   6.285  13.705  13.411
 8999SOL    HW228837   6.289  13.841  13.477
 9000SOL     OW28838   7.458   9.063   5.790
 9000SOL    HW128839   7.545   9.027   5.773
 9000SOL    HW228840   7.440   9.119   5.715
 9001SOL     OW28841   6.305   0.120   3.839
 9001SOL    HW128842   6.213   0.110   3.816
 9001SOL    HW228843   6.306   0.192   3.902
 9002SOL     OW28844  14.021   5.410   4.095
 9002SOL    HW128845  13.933   5.372   4.092
 9002SOL    HW228846  14.010   5.499   4.063
 9003SOL     OW28847   7.756   7.312  11.443
 9003SOL    HW128848   7.736   7.218  11.444
 9003SOL    HW228849   7.680   7.352  11.486
 9004SOL     OW28850   0.638  14.231  14.388
 9004SOL    HW128851   0.622  14.325  14.401
 9004SOL    HW228852   0.573  14.188  14.444
 9005SOL     OW28853   9.419   1.014   3.808
 9005SOL    HW128854   9.470   1.057   3.877
 9005SOL    HW228855   9.328   1.023   3.836
 9006SOL     OW28856   2.846  10.855   5.111
 9006SOL    HW128857   2.775  10.826   5.168
 9006SOL    HW228858   2.900  10.911   5.166
 9007SOL     OW28859   5.349   6.420   7.953
 9007SOL    HW128860   5.377   6.329   7.961
 9007SOL    HW228861   5.430   6.471   7.962
 9008SOL     OW28862  14.063   3.221   4.300
 9008SOL    HW128863  14.088   3.313   4.307
 9008SOL    HW228864  14.052   3.206   4.206
 9009SOL     OW28865  12.711  11.934  11.608
 9009SOL    HW128866  12.803  11.910  11.593
 9009SOL    HW228867  12.662  11.885  11.542
 9010SOL     OW28868  10.756   4.248  10.504
 9010SOL    HW128869  10.664   4.259  10.525
 9010SOL    HW228870  10.758   4.242  10.408
 9011SOL     OW28871   1.992  14.676  14.513
 9011SOL    HW128872   1.976  14.766  14.485
 9011SOL    HW228873   2.078  14.679  14.554
 9012SOL     OW28874   1.079  10.469   4.136
 9012SOL    HW128875   1.023  10.462   4.214
 9012SOL    HW228876   1.104  10.561   4.134
 9013SOL     OW28877   3.027  10.502  13.341
 9013SOL    HW128878   3.025  10.545  13.426
 9013SOL    HW228879   3.005  10.572  13.279
 9014SOL     OW28880  10.931  14.013   5.857
 9014SOL    HW128881  10.998  13.997   5.791
 9014SOL    HW228882  10.952  13.952   5.927
 9015SOL     OW28883   2.890  12.118  14.465
 9015SOL    HW128884   2.814  12.105  14.408
 9015SOL    HW228885   2.949  12.046  14.442
 9016SOL     OW28886   6.211   6.463   3.446
 9016SOL    HW128887   6.297   6.437   3.414
 9016SOL    HW228888   6.229   6.515   3.525
 9017SOL     OW28889   6.646  14.442   1.432
 9017SOL    HW128890   6.711  14.511   1.419
 9017SOL    HW228891   6.609  14.426   1.345
 9018SOL     OW28892   8.274   1.826   8.039
 9018SOL    HW128893   8.218   1.805   7.964
 9018SOL    HW228894   8.306   1.914   8.021
 9019SOL     OW28895  11.129   6.999   8.108
 9019SOL    HW128896  11.098   6.963   8.191
 9019SOL    HW228897  11.052   7.000   8.052
 9020SOL     OW28898  12.077   5.572  12.363
 9020SOL    HW128899  11.983   5.552  12.364
 9020SOL    HW228900  12.086   5.648  12.420
 9021SOL     OW28901   4.993   8.116   5.004
 9021SOL    HW128902   5.011   8.066   5.084
 9021SOL    HW228903   5.078   8.121   4.959
 9022SOL     OW28904   9.201  10.610   3.065
 9022SOL    HW128905   9.186  10.531   3.117
 9022SOL    HW228906   9.213  10.578   2.976
 9023SOL     OW28907   2.734  10.676   2.782
 9023SOL    HW128908   2.685  10.607   2.828
 9023SOL    HW228909   2.760  10.636   2.699
 9024SOL     OW28910   7.345  10.981   8.775
 9024SOL    HW128911   7.345  10.915   8.706
 9024SOL    HW228912   7.258  10.975   8.814
 9025SOL     OW28913   2.712  10.587   0.320
 9025SOL    HW128914   2.785  10.578   0.259
 9025SOL    HW228915   2.654  10.652   0.279
 9026SOL     OW28916   3.744   5.443   8.193
 9026SOL    HW128917   3.788   5.429   8.109
 9026SOL    HW228918   3.662   5.486   8.170
 9027SOL     OW28919   2.676   6.260   0.414
 9027SOL    HW128920   2.628   6.208   0.350
 9027SOL    HW228921   2.734   6.197   0.457
 9028SOL     OW28922  11.739  12.306   0.809
 9028SOL    HW128923  11.790  12.235   0.771
 9028SOL    HW228924  11.699  12.268   0.887
 9029SOL     OW28925   0.338   2.459   2.722
 9029SOL    HW128926   0.282   2.534   2.744
 9029SOL    HW228927   0.278   2.391   2.694
 9030SOL     OW28928  12.862  14.748   0.616
 9030SOL    HW128929  12.885  14.788   0.532
 9030SOL    HW228930  12.767  14.738   0.612
 9031SOL     OW28931   9.416   5.444  14.717
 9031SOL    HW128932   9.486   5.487  14.767
 9031SOL    HW228933   9.462   5.387  14.656
 9032SOL     OW28934   3.181   5.261   0.385
 9032SOL    HW128935   3.095   5.225   0.407
 9032SOL    HW228936   3.163   5.333   0.325
 9033SOL     OW28937   8.383   4.629   6.247
 9033SOL    HW128938   8.398   4.659   6.158
 9033SOL    HW228939   8.424   4.696   6.302
 9034SOL     OW28940  10.803   8.287  10.478
 9034SOL    HW128941  10.778   8.378  10.488
 9034SOL    HW228942  10.813   8.254  10.568
 9035SOL     OW28943  13.498  11.145  14.033
 9035SOL    HW128944  13.588  11.159  14.006
 9035SOL    HW228945  13.472  11.063  13.990
 9036SOL     OW28946   5.167   2.062   7.019
 9036SOL    HW128947   5.076   2.088   7.035
 9036SOL    HW228948   5.162   1.968   7.000
 9037SOL     OW28949   9.619   3.526  10.943
 9037SOL    HW128950   9.545   3.468  10.963
 9037SOL    HW228951   9.642   3.565  11.027
 9038SOL     OW28952  12.495  12.508   5.921
 9038SOL    HW128953  12.424  12.445   5.934
 9038SOL    HW228954  12.493  12.562   6.000
 9039SOL     OW28955  10.618   1.905   0.579
 9039SOL    HW128956  10.554   1.976   0.588
 9039SOL    HW228957  10.652   1.893   0.668
 9040SOL     OW28958  12.221   3.509  14.564
 9040SOL    HW128959  12.242   3.488  14.473
 9040SOL    HW228960  12.253   3.433  14.614
 9041SOL     OW28961   0.416   7.717   3.282
 9041SOL    HW128962   0.339   7.738   3.334
 9041SOL    HW228963   0.478   7.680   3.344
 9042SOL     OW28964   8.716   6.712   6.629
 9042SOL    HW128965   8.791   6.711   6.570
 9042SOL    HW228966   8.646   6.753   6.578
 9043SOL     OW28967  11.846   4.939   5.562
 9043SOL    HW128968  11.814   5.029   5.572
 9043SOL    HW228969  11.918   4.946   5.499
 9044SOL     OW28970   9.637  13.085   8.437
 9044SOL    HW128971   9.592  13.041   8.509
 9044SOL    HW228972   9.568  13.105   8.374
 9045SOL     OW28973   4.442   9.577  10.055
 9045SOL    HW128974   4.470   9.662  10.020
 9045SOL    HW228975   4.388   9.599  10.131
 9046SOL     OW28976   0.966   5.589   0.441
 9046SOL    HW128977   0.880   5.549   0.431
 9046SOL    HW228978   0.985   5.627   0.355
 9047SOL     OW28979   7.479  10.023  13.083
 9047SOL    HW128980   7.493  10.068  12.999
 9047SOL    HW228981   7.438   9.940  13.059
 9048SOL     OW28982   8.733   6.596   4.217
 9048SOL    HW128983   8.794   6.531   4.251
 9048SOL    HW228984   8.707   6.562   4.131
 9049SOL     OW28985   6.531   2.886   3.094
 9049SOL    HW128986   6.470   2.878   3.021
 9049SOL    HW228987   6.525   2.803   3.141
 9050SOL     OW28988   1.719   5.018  12.789
 9050SOL    HW128989   1.790   5.044  12.846
 9050SOL    HW228990   1.644   5.069  12.819
 9051SOL     OW28991   3.006   5.947   1.276
 9051SOL    HW128992   3.041   5.869   1.319
 9051SOL    HW228993   3.013   5.928   1.183
 9052SOL     OW28994  10.202  11.469  13.961
 9052SOL    HW128995  10.228  11.555  13.929
 9052SOL    HW228996  10.167  11.486  14.049
 9053SOL     OW28997  12.801   5.292  12.630
 9053SOL    HW128998  12.895   5.296  12.610
 9053SOL    HW228999  12.765   5.374  12.596
 9054SOL     OW29000   1.973   4.571   8.933
 9054SOL    HW129001   1.963   4.657   8.893
 9054SOL    HW229002   1.961   4.510   8.860
 9055SOL     OW29003  11.618  10.712   6.941
 9055SOL    HW129004  11.609  10.677   7.030
 9055SOL    HW229005  11.652  10.800   6.954
 9056SOL     OW29006  11.047  11.775   7.969
 9056SOL    HW129007  11.126  11.752   7.921
 9056SOL    HW229008  11.049  11.870   7.974
 9057SOL     OW29009   2.469   9.517  12.860
 9057SOL    HW129010   2.476   9.435  12.811
 9057SOL    HW229011   2.531   9.576  12.817
 9058SOL     OW29012   7.433   8.771   2.982
 9058SOL    HW129013   7.474   8.808   3.060
 9058SOL    HW229014   7.383   8.843   2.944
 9059SOL     OW29015   6.744   5.085  14.736
 9059SOL    HW129016   6.709   5.103  14.648
 9059SOL    HW229017   6.668   5.059  14.787
 9060SOL     OW29018  10.403  13.152  11.318
 9060SOL    HW129019  10.456  13.232  11.319
 9060SOL    HW229020  10.447  13.094  11.380
 9061SOL     OW29021   7.462   3.174  12.333
 9061SOL    HW129022   7.384   3.131  12.301
 9061SOL    HW229023   7.523   3.173  12.259
 9062SOL     OW29024  10.042   6.478  12.485
 9062SOL    HW129025  10.107   6.520  12.429
 9062SOL    HW229026   9.957   6.505  12.448
 9063SOL     OW29027   0.721  10.196   6.475
 9063SOL    HW129028   0.686  10.188   6.564
 9063SOL    HW229029   0.722  10.290   6.458
 9064SOL     OW29030   6.707   6.753   9.834
 9064SOL    HW129031   6.716   6.665   9.797
 9064SOL    HW229032   6.692   6.810   9.758
 9065SOL     OW29033   3.041  13.727   7.301
 9065SOL    HW129034   3.084  13.644   7.283
 9065SOL    HW229035   2.948  13.709   7.292
 9066SOL     OW29036   0.992   7.997   5.331
 9066SOL    HW129037   1.021   8.048   5.255
 9066SOL    HW229038   0.968   7.912   5.295
 9067SOL     OW29039  12.916   2.868   0.724
 9067SOL    HW129040  12.826   2.846   0.700
 9067SOL    HW229041  12.910   2.955   0.764
 9068SOL     OW29042   9.157   1.330  14.661
 9068SOL    HW129043   9.166   1.300  14.571
 9068SOL    HW229044   9.100   1.407  14.655
 9069SOL     OW29045   1.848   1.929   3.688
 9069SOL    HW129046   1.793   1.859   3.723
 9069SOL    HW229047   1.785   1.992   3.651
 9070SOL     OW29048   9.239   3.544   1.508
 9070SOL    HW129049   9.276   3.627   1.538
 9070SOL    HW229050   9.314   3.496   1.473
 9071SOL     OW29051   8.127   2.980  12.280
 9071SOL    HW129052   8.107   2.993  12.373
 9071SOL    HW229053   8.136   3.069  12.245
 9072SOL     OW29054  10.005   0.656   0.496
 9072SOL    HW129055  10.097   0.670   0.475
 9072SOL    HW229056   9.975   0.590   0.433
 9073SOL     OW29057  13.676  14.069   8.656
 9073SOL    HW129058  13.723  14.067   8.739
 9073SOL    HW229059  13.635  14.156   8.654
 9074SOL     OW29060   6.210   0.443  10.695
 9074SOL    HW129061   6.120   0.476  10.694
 9074SOL    HW229062   6.217   0.392  10.775
 9075SOL     OW29063  11.622   3.328   4.675
 9075SOL    HW129064  11.562   3.387   4.629
 9075SOL    HW229065  11.565   3.267   4.722
 9076SOL     OW29066   0.149  14.401   3.547
 9076SOL    HW129067   0.074  14.455   3.571
 9076SOL    HW229068   0.169  14.352   3.626
 9077SOL     OW29069  13.702  14.871   6.429
 9077SOL    HW129070  13.690  14.872   6.334
 9077SOL    HW229071  13.794   0.012   6.442
 9078SOL     OW29072   2.284   2.034   1.351
 9078SOL    HW129073   2.373   2.065   1.367
 9078SOL    HW229074   2.292   1.938   1.350
 9079SOL     OW29075   4.460  14.805  13.976
 9079SOL    HW129076   4.499  14.839  14.056
 9079SOL    HW229077   4.367  14.824  13.984
 9080SOL     OW29078   4.179  12.385  10.981
 9080SOL    HW129079   4.113  12.425  10.925
 9080SOL    HW229080   4.130  12.327  11.039
 9081SOL     OW29081   7.783   0.183   9.536
 9081SOL    HW129082   7.836   0.104   9.522
 9081SOL    HW229083   7.847   0.252   9.554
 9082SOL     OW29084   6.402   3.604  11.533
 9082SOL    HW129085   6.370   3.571  11.617
 9082SOL    HW229086   6.349   3.683  11.517
 9083SOL     OW29087  10.773   6.832  12.946
 9083SOL    HW129088  10.795   6.769  12.878
 9083SOL    HW229089  10.677   6.832  12.949
 9084SOL     OW29090  10.927  10.833   9.416
 9084SOL    HW129091  10.930  10.742   9.448
 9084SOL    HW229092  10.936  10.886   9.495
 9085SOL     OW29093  13.446   8.440  13.714
 9085SOL    HW129094  13.536   8.466  13.693
 9085SOL    HW229095  13.410   8.516  13.760
 9086SOL     OW29096   7.251  12.879   7.550
 9086SOL    HW129097   7.230  12.884   7.643
 9086SOL    HW229098   7.267  12.786   7.534
 9087SOL     OW29099   2.471  14.362   6.604
 9087SOL    HW129100   2.565  14.368   6.622
 9087SOL    HW229101   2.445  14.451   6.582
 9088SOL     OW29102  13.046   9.913   4.664
 9088SOL    HW129103  13.142   9.910   4.665
 9088SOL    HW229104  13.020   9.822   4.646
 9089SOL     OW29105   2.600  13.670   9.515
 9089SOL    HW129106   2.530  13.638   9.458
 9089SOL    HW229107   2.562  13.667   9.603
 9090SOL     OW29108   5.984   8.449   3.123
 9090SOL    HW129109   6.006   8.520   3.184
 9090SOL    HW229110   6.039   8.376   3.150
 9091SOL     OW29111   1.883   2.653   9.285
 9091SOL    HW129112   1.863   2.592   9.215
 9091SOL    HW229113   1.814   2.719   9.281
 9092SOL     OW29114  13.564   8.628   1.235
 9092SOL    HW129115  13.554   8.577   1.316
 9092SOL    HW229116  13.506   8.584   1.172
 9093SOL     OW29117   1.043   6.029   3.565
 9093SOL    HW129118   1.060   5.935   3.559
 9093SOL    HW229119   1.108   6.061   3.627
 9094SOL     OW29120   9.468  11.085  13.092
 9094SOL    HW129121   9.413  11.162  13.075
 9094SOL    HW229122   9.443  11.023  13.024
 9095SOL     OW29123   1.803  14.613  11.408
 9095SOL    HW129124   1.722  14.663  11.421
 9095SOL    HW229125   1.872  14.679  11.406
 9096SOL     OW29126   5.041   8.680  12.459
 9096SOL    HW129127   5.070   8.710  12.372
 9096SOL    HW229128   5.059   8.586  12.459
 9097SOL     OW29129   6.135   1.331  11.179
 9097SOL    HW129130   6.131   1.336  11.274
 9097SOL    HW229131   6.224   1.359  11.157
 9098SOL     OW29132  13.873   2.117   9.268
 9098SOL    HW129133  13.918   2.183   9.215
 9098SOL    HW229134  13.900   2.033   9.229
 9099SOL     OW29135  14.383   8.372   5.808
 9099SOL    HW129136  14.361   8.337   5.894
 9099SOL    HW229137  14.473   8.342   5.793
 9100SOL     OW29138   1.286   2.321   1.558
 9100SOL    HW129139   1.220   2.265   1.517
 9100SOL    HW229140   1.305   2.387   1.492
 9101SOL     OW29141  10.927   5.719   8.628
 9101SOL    HW129142  11.016   5.742   8.601
 9101SOL    HW229143  10.939   5.661   8.703
 9102SOL     OW29144  11.831   9.143   3.652
 9102SOL    HW129145  11.916   9.168   3.690
 9102SOL    HW229146  11.809   9.060   3.694
 9103SOL     OW29147  10.244  11.366  10.556
 9103SOL    HW129148  10.250  11.327  10.643
 9103SOL    HW229149  10.176  11.315  10.512
 9104SOL     OW29150  13.202  14.362  12.857
 9104SOL    HW129151  13.248  14.442  12.831
 9104SOL    HW229152  13.165  14.382  12.942
 9105SOL     OW29153  12.762  14.450  10.266
 9105SOL    HW129154  12.695  14.518  10.255
 9105SOL    HW229155  12.779  14.419  10.177
 9106SOL     OW29156   6.895   1.428   4.677
 9106SOL    HW129157   6.888   1.522   4.696
 9106SOL    HW229158   6.986   1.416   4.652
 9107SOL     OW29159  12.865   3.056   4.827
 9107SOL    HW129160  12.789   3.103   4.792
 9107SOL    HW229161  12.911   3.025   4.749
 9108SOL     OW29162   1.828  12.513  14.694
 9108SOL    HW129163   1.837  12.590  14.750
 9108SOL    HW229164   1.864  12.540  14.610
 9109SOL     OW29165  11.752   8.944  10.807
 9109SOL    HW129166  11.662   8.923  10.832
 9109SOL    HW229167  11.747   9.034  10.773
 9110SOL     OW29168  10.077  13.217  14.063
 9110SOL    HW129169  10.109  13.305  14.048
 9110SOL    HW229170  10.153  13.161  14.048
 9111SOL     OW29171   8.478  14.651   7.980
 9111SOL    HW129172   8.498  14.666   7.888
 9111SOL    HW229173   8.387  14.620   7.981
 9112SOL     OW29174   1.817  14.667   3.306
 9112SOL    HW129175   1.899  14.619   3.318
 9112SOL    HW229176   1.840  14.741   3.249
 9113SOL     OW29177   0.300   8.994  11.514
 9113SOL    HW129178   0.285   9.052  11.440
 9113SOL    HW229179   0.306   8.907  11.476
 9114SOL     OW29180   8.256   1.039   3.500
 9114SOL    HW129181   8.185   0.984   3.467
 9114SOL    HW229182   8.260   1.113   3.439
 9115SOL     OW29183   6.816   2.172  13.191
 9115SOL    HW129184   6.833   2.189  13.099
 9115SOL    HW229185   6.721   2.173  13.199
 9116SOL     OW29186   4.986   6.334   3.644
 9116SOL    HW129187   4.930   6.366   3.715
 9116SOL    HW229188   5.074   6.363   3.668
 9117SOL     OW29189   7.811   3.206   5.981
 9117SOL    HW129190   7.719   3.209   5.954
 9117SOL    HW229191   7.849   3.286   5.945
 9118SOL     OW29192   3.027   5.401   4.455
 9118SOL    HW129193   2.967   5.332   4.484
 9118SOL    HW229194   2.987   5.434   4.375
 9119SOL     OW29195  11.391  12.386  11.411
 9119SOL    HW129196  11.351  12.469  11.436
 9119SOL    HW229197  11.366  12.325  11.480
 9120SOL     OW29198   3.957   0.143  11.691
 9120SOL    HW129199   3.906   0.219  11.665
 9120SOL    HW229200   4.048   0.170  11.681
 9121SOL     OW29201   4.866   3.205   0.696
 9121SOL    HW129202   4.804   3.174   0.762
 9121SOL    HW229203   4.948   3.160   0.716
 9122SOL     OW29204   0.001   9.312   3.366
 9122SOL    HW129205  14.862   9.264   3.446
 9122SOL    HW229206   0.024   9.400   3.397
 9123SOL     OW29207   0.590  14.146   4.705
 9123SOL    HW129208   0.629  14.063   4.733
 9123SOL    HW229209   0.657  14.212   4.721
 9124SOL     OW29210  14.802   4.231  13.301
 9124SOL    HW129211  14.861   4.202  13.232
 9124SOL    HW229212  14.856   4.235  13.380
 9125SOL     OW29213   4.172   3.041  13.576
 9125SOL    HW129214   4.227   2.969  13.605
 9125SOL    HW229215   4.226   3.090  13.514
 9126SOL     OW29216  12.152  13.801   7.795
 9126SOL    HW129217  12.207  13.786   7.718
 9126SOL    HW229218  12.194  13.750   7.864
 9127SOL     OW29219   2.005   5.176   0.509
 9127SOL    HW129220   1.971   5.124   0.436
 9127SOL    HW229221   2.090   5.137   0.528
 9128SOL     OW29222  14.608   1.238   7.007
 9128SOL    HW129223  14.533   1.196   6.966
 9128SOL    HW229224  14.623   1.188   7.087
 9129SOL     OW29225   2.970   2.252  14.056
 9129SOL    HW129226   3.018   2.231  13.976
 9129SOL    HW229227   3.018   2.207  14.125
 9130SOL     OW29228  13.500   9.905  10.588
 9130SOL    HW129229  13.472   9.924  10.499
 9130SOL    HW229230  13.586   9.864  10.579
 9131SOL     OW29231   4.394   9.510  11.614
 9131SOL    HW129232   4.400   9.552  11.528
 9131SOL    HW229233   4.471   9.542  11.661
 9132SOL     OW29234   9.134   7.087   3.046
 9132SOL    HW129235   9.221   7.087   3.085
 9132SOL    HW229236   9.151   7.092   2.951
 9133SOL     OW29237  14.304   3.883   2.476
 9133SOL    HW129238  14.363   3.898   2.550
 9133SOL    HW229239  14.344   3.929   2.403
 9134SOL     OW29240  11.548   5.066  11.803
 9134SOL    HW129241  11.491   5.028  11.736
 9134SOL    HW229242  11.499   5.142  11.835
 9135SOL     OW29243   4.613   7.304  12.290
 9135SOL    HW129244   4.585   7.359  12.363
 9135SOL    HW229245   4.709   7.302  12.296
 9136SOL     OW29246   8.759   3.016   6.437
 9136SOL    HW129247   8.722   3.086   6.491
 9136SOL    HW229248   8.823   3.060   6.381
 9137SOL     OW29249   2.528  13.968   7.633
 9137SOL    HW129250   2.520  13.956   7.727
 9137SOL    HW229251   2.554  14.060   7.622
 9138SOL     OW29252   9.586   5.449   8.200
 9138SOL    HW129253   9.672   5.435   8.240
 9138SOL    HW229254   9.603   5.456   8.107
 9139SOL     OW29255   1.235  12.004   5.517
 9139SOL    HW129256   1.301  12.030   5.581
 9139SOL    HW229257   1.153  12.037   5.554
 9140SOL     OW29258   4.325   3.640  14.332
 9140SOL    HW129259   4.364   3.553  14.335
 9140SOL    HW229260   4.247   3.633  14.387
 9141SOL     OW29261   3.942   2.460  12.036
 9141SOL    HW129262   3.976   2.508  11.961
 9141SOL    HW229263   3.944   2.368  12.009
 9142SOL     OW29264  13.634  10.974   6.264
 9142SOL    HW129265  13.667  10.891   6.231
 9142SOL    HW229266  13.564  10.949   6.325
 9143SOL     OW29267   7.884  14.775  12.931
 9143SOL    HW129268   7.972  14.810  12.940
 9143SOL    HW229269   7.828  14.852  12.927
 9144SOL     OW29270  12.423  10.137   9.353
 9144SOL    HW129271  12.491  10.182   9.404
 9144SOL    HW229272  12.426  10.047   9.384
 9145SOL     OW29273   8.788  13.481   1.732
 9145SOL    HW129274   8.840  13.453   1.656
 9145SOL    HW229275   8.825  13.433   1.805
 9146SOL     OW29276  12.206   3.202  11.537
 9146SOL    HW129277  12.226   3.220  11.629
 9146SOL    HW229278  12.196   3.106  11.534
 9147SOL     OW29279   4.818   0.487  12.169
 9147SOL    HW129280   4.741   0.534  12.137
 9147SOL    HW229281   4.794   0.394  12.164
 9148SOL     OW29282   0.288   9.324   9.762
 9148SOL    HW129283   0.220   9.265   9.794
 9148SOL    HW229284   0.368   9.296   9.806
 9149SOL     OW29285   1.162   8.267   8.543
 9149SOL    HW129286   1.099   8.228   8.483
 9149SOL    HW229287   1.167   8.359   8.516
 9150SOL     OW29288   7.375   5.827  13.170
 9150SOL    HW129289   7.456   5.858  13.130
 9150SOL    HW229290   7.402   5.760  13.233
 9151SOL     OW29291   6.924   7.726   1.691
 9151SOL    HW129292   6.882   7.691   1.612
 9151SOL    HW229293   6.974   7.801   1.660
 9152SOL     OW29294  13.430  12.679   8.406
 9152SOL    HW129295  13.337  12.661   8.422
 9152SOL    HW229296  13.473  12.659   8.489
 9153SOL     OW29297   1.946  14.306  13.196
 9153SOL    HW129298   1.870  14.325  13.251
 9153SOL    HW229299   1.999  14.247  13.249
 9154SOL     OW29300  11.185   9.374   2.390
 9154SOL    HW129301  11.113   9.400   2.447
 9154SOL    HW229302  11.259   9.426   2.419
 9155SOL     OW29303   3.100   2.159   5.596
 9155SOL    HW129304   3.104   2.226   5.527
 9155SOL    HW229305   3.190   2.152   5.628
 9156SOL     OW29306   5.862   9.368  12.347
 9156SOL    HW129307   5.802   9.295  12.335
 9156SOL    HW229308   5.806   9.443  12.367
 9157SOL     OW29309  10.038   3.126   6.365
 9157SOL    HW129310  10.085   3.046   6.340
 9157SOL    HW229311   9.971   3.136   6.297
 9158SOL     OW29312   5.035   5.189   7.257
 9158SOL    HW129313   5.113   5.141   7.227
 9158SOL    HW229314   5.004   5.236   7.180
 9159SOL     OW29315  10.315  11.157   7.036
 9159SOL    HW129316  10.253  11.136   7.106
 9159SOL    HW229317  10.335  11.073   6.995
 9160SOL     OW29318  13.500   6.945  10.761
 9160SOL    HW129319  13.582   6.902  10.740
 9160SOL    HW229320  13.490   7.012  10.693
 9161SOL     OW29321  14.461  14.315   5.479
 9161SOL    HW129322  14.392  14.380   5.491
 9161SOL    HW229323  14.461  14.264   5.561
 9162SOL     OW29324   2.955   1.478   7.508
 9162SOL    HW129325   2.911   1.473   7.423
 9162SOL    HW229326   2.977   1.387   7.530
 9163SOL     OW29327  14.207   3.700   9.590
 9163SOL    HW129328  14.257   3.770   9.631
 9163SOL    HW229329  14.233   3.703   9.497
 9164SOL     OW29330   4.122   0.382   0.266
 9164SOL    HW129331   4.198   0.367   0.209
 9164SOL    HW229332   4.152   0.446   0.330
 9165SOL     OW29333   2.023   6.029   6.468
 9165SOL    HW129334   2.091   6.008   6.531
 9165SOL    HW229335   1.945   6.047   6.521
 9166SOL     OW29336  11.992   2.521  12.724
 9166SOL    HW129337  11.926   2.474  12.774
 9166SOL    HW229338  12.018   2.460  12.655
 9167SOL     OW29339  12.199   4.431   7.435
 9167SOL    HW129340  12.156   4.458   7.516
 9167SOL    HW229341  12.141   4.463   7.365
 9168SOL     OW29342  11.941   6.458  10.785
 9168SOL    HW129343  11.922   6.377  10.738
 9168SOL    HW229344  11.866   6.470  10.844
 9169SOL     OW29345   4.257   2.317  13.196
 9169SOL    HW129346   4.230   2.368  13.272
 9169SOL    HW229347   4.251   2.378  13.123
 9170SOL     OW29348  11.482  12.843   4.351
 9170SOL    HW129349  11.514  12.764   4.395
 9170SOL    HW229350  11.559  12.879   4.307
 9171SOL     OW29351  13.731  10.848   7.029
 9171SOL    HW129352  13.684  10.919   7.073
 9171SOL    HW229353  13.770  10.890   6.952
 9172SOL     OW29354   9.131   0.978  12.287
 9172SOL    HW129355   9.036   0.970  12.279
 9172SOL    HW229356   9.143   1.054  12.344
 9173SOL     OW29357   8.671   0.617  13.032
 9173SOL    HW129358   8.671   0.585  13.122
 9173SOL    HW229359   8.748   0.673  13.026
 9174SOL     OW29360  12.956  13.566   2.544
 9174SOL    HW129361  12.900  13.628   2.589
 9174SOL    HW229362  12.896  13.509   2.496
 9175SOL     OW29363   4.974  12.962   8.949
 9175SOL    HW129364   4.898  12.916   8.915
 9175SOL    HW229365   4.958  13.054   8.930
 9176SOL     OW29366   0.166   7.303   0.350
 9176SOL    HW129367   0.214   7.307   0.267
 9176SOL    HW229368   0.132   7.214   0.354
 9177SOL     OW29369   9.957   1.106   4.534
 9177SOL    HW129370   9.949   1.083   4.441
 9177SOL    HW229371   9.867   1.107   4.566
 9178SOL     OW29372  11.886   1.760   7.635
 9178SOL    HW129373  11.858   1.827   7.698
 9178SOL    HW229374  11.894   1.680   7.686
 9179SOL     OW29375   4.546   2.000  11.048
 9179SOL    HW129376   4.562   2.091  11.075
 9179SOL    HW229377   4.624   1.953  11.076
 9180SOL     OW29378   9.869   1.169  13.519
 9180SOL    HW129379   9.874   1.256  13.479
 9180SOL    HW229380   9.884   1.109  13.446
 9181SOL     OW29381   6.421   3.968  10.888
 9181SOL    HW129382   6.384   3.891  10.844
 9181SOL    HW229383   6.400   4.041  10.829
 9182SOL     OW29384   0.241  11.269  11.677
 9182SOL    HW129385   0.192  11.272  11.759
 9182SOL    HW229386   0.273  11.358  11.665
 9183SOL     OW29387   3.592   8.811   0.970
 9183SOL    HW129388   3.657   8.743   0.989
 9183SOL    HW229389   3.528   8.768   0.913
 9184SOL     OW29390   6.808   3.804  14.108
 9184SOL    HW129391   6.859   3.866  14.159
 9184SOL    HW229392   6.801   3.843  14.021
 9185SOL     OW29393   4.123   7.953   1.196
 9185SOL    HW129394   4.104   7.989   1.109
 9185SOL    HW229395   4.104   7.859   1.187
 9186SOL     OW29396   1.693  14.457   6.758
 9186SOL    HW129397   1.603  14.477   6.784
 9186SOL    HW229398   1.739  14.541   6.762
 9187SOL     OW29399   8.926  13.856   3.821
 9187SOL    HW129400   9.013  13.818   3.809
 9187SOL    HW229401   8.868  13.802   3.767
 9188SOL     OW29402  10.646  12.456   0.738
 9188SOL    HW129403  10.607  12.453   0.650
 9188SOL    HW229404  10.675  12.366   0.754
 9189SOL     OW29405   3.192   5.915   0.114
 9189SOL    HW129406   3.221   5.986   0.171
 9189SOL    HW229407   3.147   5.960   0.041
 9190SOL     OW29408  13.983   9.971  10.466
 9190SOL    HW129409  14.001  10.057  10.505
 9190SOL    HW229410  14.064   9.922  10.478
 9191SOL     OW29411   2.662   7.495   6.383
 9191SOL    HW129412   2.706   7.574   6.351
 9191SOL    HW229413   2.570   7.521   6.392
 9192SOL     OW29414  13.194  10.912   3.844
 9192SOL    HW129415  13.250  10.843   3.809
 9192SOL    HW229416  13.254  10.971   3.889
 9193SOL     OW29417   6.531  10.886  12.433
 9193SOL    HW129418   6.463  10.919  12.374
 9193SOL    HW229419   6.602  10.950  12.427
 9194SOL     OW29420  14.278   1.849   3.886
 9194SOL    HW129421  14.262   1.936   3.920
 9194SOL    HW229422  14.356   1.818   3.932
 9195SOL     OW29423   1.155   0.062   2.680
 9195SOL    HW129424   1.208   0.100   2.750
 9195SOL    HW229425   1.121   0.137   2.631
 9196SOL     OW29426   2.647  12.988   6.017
 9196SOL    HW129427   2.623  13.081   6.012
 9196SOL    HW229428   2.569  12.943   5.985
 9197SOL     OW29429   6.138   4.010   5.107
 9197SOL    HW129430   6.161   4.071   5.178
 9197SOL    HW229431   6.086   4.063   5.047
 9198SOL     OW29432   4.453   8.327  14.553
 9198SOL    HW129433   4.420   8.384  14.484
 9198SOL    HW229434   4.480   8.386  14.623
 9199SOL     OW29435   6.467   4.044   5.322
 9199SOL    HW129436   6.430   3.956   5.324
 9199SOL    HW229437   6.400   4.099   5.362
 9200SOL     OW29438   1.605   5.699   3.051
 9200SOL    HW129439   1.602   5.744   2.967
 9200SOL    HW229440   1.553   5.755   3.110
 9201SOL     OW29441   8.710   0.489  10.475
 9201SOL    HW129442   8.649   0.557  10.503
 9201SOL    HW229443   8.655   0.413  10.457
 9202SOL     OW29444   0.746   4.732  12.830
 9202SOL    HW129445   0.781   4.719  12.918
 9202SOL    HW229446   0.808   4.687  12.772
 9203SOL     OW29447   5.037  12.330   8.887
 9203SOL    HW129448   5.094  12.335   8.810
 9203SOL    HW229449   4.987  12.412   8.885
 9204SOL     OW29450   0.333   9.897   0.396
 9204SOL    HW129451   0.395   9.824   0.399
 9204SOL    HW229452   0.380   9.966   0.349
 9205SOL     OW29453   2.732   5.246  14.139
 9205SOL    HW129454   2.752   5.324  14.191
 9205SOL    HW229455   2.815   5.198  14.136
 9206SOL     OW29456   0.309  10.029  10.352
 9206SOL    HW129457   0.311   9.951  10.296
 9206SOL    HW229458   0.384  10.082  10.323
 9207SOL     OW29459   6.953   0.265  13.918
 9207SOL    HW129460   6.967   0.315  13.837
 9207SOL    HW229461   6.860   0.246  13.919
 9208SOL     OW29462  13.311  12.132   6.812
 9208SOL    HW129463  13.238  12.081   6.778
 9208SOL    HW229464  13.312  12.212   6.759
 9209SOL     OW29465   8.696  13.650  13.257
 9209SOL    HW129466   8.621  13.596  13.281
 9209SOL    HW229467   8.772  13.599  13.286
 9210SOL     OW29468   1.494   1.639   8.715
 9210SOL    HW129469   1.508   1.582   8.640
 9210SOL    HW229470   1.581   1.673   8.736
 9211SOL     OW29471  11.559   3.491   7.714
 9211SOL    HW129472  11.586   3.529   7.797
 9211SOL    HW229473  11.490   3.549   7.682
 9212SOL     OW29474   0.104   7.775   8.159
 9212SOL    HW129475   0.125   7.713   8.229
 9212SOL    HW229476   0.088   7.720   8.083
 9213SOL     OW29477   0.822  10.640  13.908
 9213SOL    HW129478   0.774  10.628  13.990
 9213SOL    HW229479   0.787  10.572  13.850
 9214SOL     OW29480   8.028  10.613   7.943
 9214SOL    HW129481   8.084  10.616   7.865
 9214SOL    HW229482   8.046  10.697   7.987
 9215SOL     OW29483   4.199  11.431   2.804
 9215SOL    HW129484   4.283  11.393   2.778
 9215SOL    HW229485   4.145  11.425   2.726
 9216SOL     OW29486   4.130  13.350  10.577
 9216SOL    HW129487   4.087  13.341  10.492
 9216SOL    HW229488   4.166  13.438  10.577
 9217SOL     OW29489   9.020   2.229   0.986
 9217SOL    HW129490   9.025   2.290   0.912
 9217SOL    HW229491   9.111   2.206   1.003
 9218SOL     OW29492   9.016   0.383   0.086
 9218SOL    HW129493   9.036   0.297   0.048
 9218SOL    HW229494   8.932   0.371   0.129
 9219SOL     OW29495   5.954   7.816   2.229
 9219SOL    HW129496   5.863   7.792   2.211
 9219SOL    HW229497   5.949   7.896   2.280
 9220SOL     OW29498   0.773   6.485  10.112
 9220SOL    HW129499   0.807   6.574  10.109
 9220SOL    HW229500   0.790   6.450  10.024
 9221SOL     OW29501   8.930  13.022   5.896
 9221SOL    HW129502   8.967  12.935   5.883
 9221SOL    HW229503   8.879  13.040   5.817
 9222SOL     OW29504   6.763  14.515   7.003
 9222SOL    HW129505   6.792  14.443   6.947
 9222SOL    HW229506   6.673  14.532   6.976
 9223SOL     OW29507   5.763  11.230   7.865
 9223SOL    HW129508   5.836  11.249   7.924
 9223SOL    HW229509   5.706  11.172   7.915
 9224SOL     OW29510   8.457  11.365   3.694
 9224SOL    HW129511   8.455  11.287   3.750
 9224SOL    HW229512   8.550  11.383   3.680
 9225SOL     OW29513   2.282   2.389   5.805
 9225SOL    HW129514   2.315   2.342   5.729
 9225SOL    HW229515   2.303   2.331   5.879
 9226SOL     OW29516   6.717   5.088   5.211
 9226SOL    HW129517   6.740   5.043   5.292
 9226SOL    HW229518   6.626   5.113   5.223
 9227SOL     OW29519  10.946  13.495  10.915
 9227SOL    HW129520  10.916  13.452  10.835
 9227SOL    HW229521  11.041  13.506  10.902
 9228SOL     OW29522  11.108  10.541  10.193
 9228SOL    HW129523  11.135  10.455  10.160
 9228SOL    HW229524  11.174  10.602  10.160
 9229SOL     OW29525   7.510   7.437   4.127
 9229SOL    HW129526   7.544   7.449   4.215
 9229SOL    HW229527   7.454   7.360   4.133
 9230SOL     OW29528   3.396   1.421   0.850
 9230SOL    HW129529   3.428   1.346   0.800
 9230SOL    HW229530   3.418   1.497   0.795
 9231SOL     OW29531   6.946   3.799  13.245
 9231SOL    HW129532   6.977   3.771  13.159
 9231SOL    HW229533   7.026   3.813  13.296
 9232SOL     OW29534   5.624  14.620   0.248
 9232SOL    HW129535   5.663  14.534   0.262
 9232SOL    HW229536   5.530  14.608   0.262
 9233SOL     OW29537  11.892   8.438   1.337
 9233SOL    HW129538  11.805   8.411   1.307
 9233SOL    HW229539  11.953   8.394   1.277
 9234SOL     OW29540   4.385   9.290   8.623
 9234SOL    HW129541   4.420   9.257   8.540
 9234SOL    HW229542   4.438   9.246   8.690
 9235SOL     OW29543   8.021  14.142   1.582
 9235SOL    HW129544   8.096  14.136   1.642
 9235SOL    HW229545   7.951  14.179   1.636
 9236SOL     OW29546  10.893   2.864  14.028
 9236SOL    HW129547  10.862   2.903  14.109
 9236SOL    HW229548  10.952   2.794  14.057
 9237SOL     OW29549   1.467   5.426   6.187
 9237SOL    HW129550   1.492   5.403   6.277
 9237SOL    HW229551   1.380   5.465   6.195
 9238SOL     OW29552   4.303  13.193  14.444
 9238SOL    HW129553   4.363  13.212  14.372
 9238SOL    HW229554   4.359  13.175  14.519
 9239SOL     OW29555   5.184  10.145   4.747
 9239SOL    HW129556   5.093  10.145   4.778
 9239SOL    HW229557   5.180  10.191   4.664
 9240SOL     OW29558   3.081   7.409   7.738
 9240SOL    HW129559   3.057   7.421   7.829
 9240SOL    HW229560   3.032   7.332   7.710
 9241SOL     OW29561   9.186   3.605   7.424
 9241SOL    HW129562   9.122   3.676   7.428
 9241SOL    HW229563   9.201   3.581   7.516
 9242SOL     OW29564   9.387   0.365   6.474
 9242SOL    HW129565   9.428   0.287   6.437
 9242SOL    HW229566   9.300   0.337   6.500
 9243SOL     OW29567   6.344   8.265  13.039
 9243SOL    HW129568   6.295   8.215  12.974
 9243SOL    HW229569   6.377   8.198  13.099
 9244SOL     OW29570  10.789   5.349   7.405
 9244SOL    HW129571  10.759   5.260   7.391
 9244SOL    HW229572  10.777   5.392   7.321
 9245SOL     OW29573   8.971   5.744  11.745
 9245SOL    HW129574   9.044   5.683  11.755
 9245SOL    HW229575   8.944   5.764  11.835
 9246SOL     OW29576   8.943  12.021  11.030
 9246SOL    HW129577   8.974  11.933  11.009
 9246SOL    HW229578   8.993  12.078  10.973
 9247SOL     OW29579  13.730  13.441   5.582
 9247SOL    HW129580  13.690  13.409   5.663
 9247SOL    HW229581  13.659  13.486   5.536
 9248SOL     OW29582   7.278   6.566  14.065
 9248SOL    HW129583   7.346   6.507  14.032
 9248SOL    HW229584   7.281   6.642  14.007
 9249SOL     OW29585  11.640   4.029   6.510
 9249SOL    HW129586  11.721   4.038   6.459
 9249SOL    HW229587  11.628   3.934   6.520
 9250SOL     OW29588   5.609   8.372   2.012
 9250SOL    HW129589   5.574   8.461   2.011
 9250SOL    HW229590   5.610   8.345   1.920
 9251SOL     OW29591  13.629  13.955   5.180
 9251SOL    HW129592  13.710  13.941   5.130
 9251SOL    HW229593  13.655  13.943   5.271
 9252SOL     OW29594   7.757   2.689   4.501
 9252SOL    HW129595   7.753   2.756   4.433
 9252SOL    HW229596   7.846   2.695   4.535
 9253SOL     OW29597   4.176  14.543  10.479
 9253SOL    HW129598   4.250  14.570  10.425
 9253SOL    HW229599   4.170  14.610  10.547
 9254SOL     OW29600   3.275  13.349  13.310
 9254SOL    HW129601   3.257  13.282  13.244
 9254SOL    HW229602   3.217  13.328  13.383
 9255SOL     OW29603   4.316   9.654   8.506
 9255SOL    HW129604   4.309   9.705   8.425
 9255SOL    HW229605   4.225   9.641   8.533
 9256SOL     OW29606   0.347  13.961   6.560
 9256SOL    HW129607   0.424  13.951   6.616
 9256SOL    HW229608   0.287  13.893   6.588
 9257SOL     OW29609   7.913   8.473   0.685
 9257SOL    HW129610   7.873   8.468   0.771
 9257SOL    HW229611   8.006   8.488   0.702
 9258SOL     OW29612  13.131   7.488  12.949
 9258SOL    HW129613  13.090   7.557  13.001
 9258SOL    HW229614  13.068   7.415  12.953
 9259SOL     OW29615   8.798  12.929   4.543
 9259SOL    HW129616   8.714  12.885   4.529
 9259SOL    HW229617   8.776  13.022   4.546
 9260SOL     OW29618   7.653  10.250   7.928
 9260SOL    HW129619   7.583  10.278   7.987
 9260SOL    HW229620   7.701  10.184   7.978
 9261SOL     OW29621  11.254  11.569   2.645
 9261SOL    HW129622  11.188  11.539   2.582
 9261SOL    HW229623  11.209  11.570   2.729
 9262SOL     OW29624   6.880   3.161   6.492
 9262SOL    HW129625   6.907   3.103   6.420
 9262SOL    HW229626   6.817   3.220   6.452
 9263SOL     OW29627  12.702  12.875  10.233
 9263SOL    HW129628  12.622  12.910  10.273
 9263SOL    HW229629  12.733  12.946  10.176
 9264SOL     OW29630   2.765   3.849  11.523
 9264SOL    HW129631   2.712   3.824  11.447
 9264SOL    HW229632   2.723   3.929  11.555
 9265SOL     OW29633  14.749  11.583   7.573
 9265SOL    HW129634  14.793  11.639   7.509
 9265SOL    HW229635  14.661  11.619   7.580
 9266SOL     OW29636   2.944   3.718  11.723
 9266SOL    HW129637   3.037   3.695  11.720
 9266SOL    HW229638   2.926   3.761  11.640
 9267SOL     OW29639   9.542   0.040   8.166
 9267SOL    HW129640   9.558   0.102   8.094
 9267SOL    HW229641   9.567   0.088   8.245
 9268SOL     OW29642   7.637   5.425   7.333
 9268SOL    HW129643   7.638   5.473   7.250
 9268SOL    HW229644   7.669   5.337   7.310
 9269SOL     OW29645   2.315   3.246   6.533
 9269SOL    HW129646   2.372   3.191   6.479
 9269SOL    HW229647   2.254   3.185   6.574
 9270SOL     OW29648  14.125   9.957   6.727
 9270SOL    HW129649  14.117   9.862   6.725
 9270SOL    HW229650  14.038   9.988   6.751
 9271SOL     OW29651   3.137   6.780   4.694
 9271SOL    HW129652   3.068   6.832   4.654
 9271SOL    HW229653   3.199   6.845   4.728
 9272SOL     OW29654  11.062  10.836   9.081
 9272SOL    HW129655  10.988  10.890   9.110
 9272SOL    HW229656  11.022  10.768   9.027
 9273SOL     OW29657   6.403   3.784   5.323
 9273SOL    HW129658   6.460   3.745   5.256
 9273SOL    HW229659   6.346   3.712   5.350
 9274SOL     OW29660  13.764   6.466   8.814
 9274SOL    HW129661  13.745   6.515   8.734
 9274SOL    HW229662  13.680   6.428   8.840
 9275SOL     OW29663  14.646   9.696   6.598
 9275SOL    HW129664  14.552   9.718   6.599
 9275SOL    HW229665  14.676   9.724   6.512
 9276SOL     OW29666   4.295   4.525  10.126
 9276SOL    HW129667   4.373   4.493  10.171
 9276SOL    HW229668   4.307   4.499  10.035
 9277SOL     OW29669   2.878  10.663   9.287
 9277SOL    HW129670   2.961  10.616   9.292
 9277SOL    HW229671   2.845  10.644   9.200
 9278SOL     OW29672   9.238  11.415   3.716
 9278SOL    HW129673   9.272  11.336   3.674
 9278SOL    HW229674   9.304  11.439   3.780
 9279SOL     OW29675   3.440   2.516  10.382
 9279SOL    HW129676   3.533   2.535  10.391
 9279SOL    HW229677   3.404   2.530  10.469
 9280SOL     OW29678   8.642  12.433   1.629
 9280SOL    HW129679   8.659  12.347   1.668
 9280SOL    HW229680   8.714  12.487   1.659
 9281SOL     OW29681   0.076   8.169  13.403
 9281SOL    HW129682   0.132   8.091  13.408
 9281SOL    HW229683  14.869   8.135  13.394
 9282SOL     OW29684  12.148   1.209   8.116
 9282SOL    HW129685  12.212   1.137   8.112
 9282SOL    HW229686  12.126   1.216   8.209
 9283SOL     OW29687  14.192   8.134   8.596
 9283SOL    HW129688  14.116   8.192   8.595
 9283SOL    HW229689  14.262   8.186   8.637
 9284SOL     OW29690  13.720   5.512   9.452
 9284SOL    HW129691  13.717   5.457   9.530
 9284SOL    HW229692  13.638   5.562   9.455
 9285SOL     OW29693   6.896  12.342   7.420
 9285SOL    HW129694   6.973  12.362   7.472
 9285SOL    HW229695   6.908  12.391   7.339
 9286SOL     OW29696   1.609  12.094   0.644
 9286SOL    HW129697   1.521  12.132   0.648
 9286SOL    HW229698   1.613  12.035   0.719
 9287SOL     OW29699   3.636   9.531   1.361
 9287SOL    HW129700   3.592   9.450   1.386
 9287SOL    HW229701   3.700   9.546   1.431
 9288SOL     OW29702   7.616   2.842   8.439
 9288SOL    HW129703   7.631   2.761   8.487
 9288SOL    HW229704   7.621   2.911   8.506
 9289SOL     OW29705   0.406  14.148   3.163
 9289SOL    HW129706   0.447  14.070   3.200
 9289SOL    HW229707   0.389  14.204   3.239
 9290SOL     OW29708  12.462   0.593   2.006
 9290SOL    HW129709  12.478   0.528   1.938
 9290SOL    HW229710  12.422   0.667   1.961
 9291SOL     OW29711   8.478  14.590   1.365
 9291SOL    HW129712   8.574  14.594   1.361
 9291SOL    HW229713   8.454  14.532   1.293
 9292SOL     OW29714  13.779  13.636   3.210
 9292SOL    HW129715  13.741  13.649   3.297
 9292SOL    HW229716  13.712  13.586   3.163
 9293SOL     OW29717   7.528  13.957   7.431
 9293SOL    HW129718   7.435  13.981   7.426
 9293SOL    HW229719   7.547  13.918   7.346
 9294SOL     OW29720   1.316   9.325   5.397
 9294SOL    HW129721   1.345   9.383   5.327
 9294SOL    HW229722   1.221   9.336   5.399
 9295SOL     OW29723   4.223  10.369   5.847
 9295SOL    HW129724   4.317  10.384   5.861
 9295SOL    HW229725   4.203  10.295   5.904
 9296SOL     OW29726  12.036   6.703  11.786
 9296SOL    HW129727  12.112   6.645  11.773
 9296SOL    HW229728  12.030   6.752  11.704
 9297SOL     OW29729  10.794  11.942   0.724
 9297SOL    HW129730  10.886  11.961   0.705
 9297SOL    HW229731  10.794  11.850   0.749
 9298SOL     OW29732  10.698   7.886  13.650
 9298SOL    HW129733  10.707   7.974  13.614
 9298SOL    HW229734  10.783   7.844  13.633
 9299SOL     OW29735   7.128   7.040   5.010
 9299SOL    HW129736   7.160   7.129   5.026
 9299SOL    HW229737   7.048   7.052   4.959
 9300SOL     OW29738  14.417   6.983   5.976
 9300SOL    HW129739  14.397   6.987   6.070
 9300SOL    HW229740  14.391   6.894   5.951
 9301SOL     OW29741   6.042  12.731   5.191
 9301SOL    HW129742   6.009  12.756   5.104
 9301SOL    HW229743   6.122  12.782   5.202
 9302SOL     OW29744   4.879   9.427  12.566
 9302SOL    HW129745   4.965   9.402  12.600
 9302SOL    HW229746   4.824   9.437  12.643
 9303SOL     OW29747   6.200   7.799   3.297
 9303SOL    HW129748   6.251   7.796   3.216
 9303SOL    HW229749   6.205   7.890   3.325
 9304SOL     OW29750   3.525   3.646  11.079
 9304SOL    HW129751   3.524   3.709  11.006
 9304SOL    HW229752   3.495   3.697  11.155
 9305SOL     OW29753  11.020   8.456   7.797
 9305SOL    HW129754  10.969   8.378   7.773
 9305SOL    HW229755  10.955   8.518   7.829
 9306SOL     OW29756  10.584   1.125  10.579
 9306SOL    HW129757  10.669   1.161  10.553
 9306SOL    HW229758  10.585   1.035  10.545
 9307SOL     OW29759   5.660  11.206   3.334
 9307SOL    HW129760   5.744  11.173   3.305
 9307SOL    HW229761   5.606  11.208   3.255
 9308SOL     OW29762  10.438   1.783  12.912
 9308SOL    HW129763  10.441   1.707  12.970
 9308SOL    HW229764  10.505   1.767  12.846
 9309SOL     OW29765  13.695   7.813   6.286
 9309SOL    HW129766  13.654   7.867   6.354
 9309SOL    HW229767  13.682   7.862   6.205
 9310SOL     OW29768   8.159   2.972   2.124
 9310SOL    HW129769   8.247   2.975   2.162
 9310SOL    HW229770   8.134   3.064   2.115
 9311SOL     OW29771  12.519   9.000  12.198
 9311SOL    HW129772  12.481   9.088  12.207
 9311SOL    HW229773  12.483   8.966  12.116
 9312SOL     OW29774  13.304   1.612   9.660
 9312SOL    HW129775  13.363   1.688   9.659
 9312SOL    HW229776  13.318   1.570   9.575
 9313SOL     OW29777   6.736   5.925  10.453
 9313SOL    HW129778   6.756   5.834  10.429
 9313SOL    HW229779   6.647   5.940  10.421
 9314SOL     OW29780   2.190   0.658   0.346
 9314SOL    HW129781   2.265   0.704   0.383
 9314SOL    HW229782   2.182   0.693   0.258
 9315SOL     OW29783  10.841   0.361   4.874
 9315SOL    HW129784  10.933   0.340   4.855
 9315SOL    HW229785  10.842   0.455   4.893
 9316SOL     OW29786   7.479   6.480  13.362
 9316SOL    HW129787   7.540   6.446  13.426
 9316SOL    HW229788   7.447   6.562  13.400
 9317SOL     OW29789   8.589   0.061   0.658
 9317SOL    HW129790   8.629   0.001   0.721
 9317SOL    HW229791   8.505   0.084   0.696
 9318SOL     OW29792   8.808  12.413  11.350
 9318SOL    HW129793   8.767  12.357  11.416
 9318SOL    HW229794   8.767  12.387  11.268
 9319SOL     OW29795   7.070   0.122  14.823
 9319SOL    HW129796   7.064   0.065  14.747
 9319SOL    HW229797   7.025   0.074   0.011
 9320SOL     OW29798  14.772   3.910   6.115
 9320SOL    HW129799  14.722   3.973   6.167
 9320SOL    HW229800  14.705   3.860   6.068
 9321SOL     OW29801   4.494   0.322   1.419
 9321SOL    HW129802   4.454   0.302   1.334
 9321SOL    HW229803   4.588   0.318   1.402
 9322SOL     OW29804   6.578   8.137   6.359
 9322SOL    HW129805   6.483   8.136   6.368
 9322SOL    HW229806   6.608   8.064   6.414
 9323SOL     OW29807   3.339   2.529   1.789
 9323SOL    HW129808   3.299   2.572   1.714
 9323SOL    HW229809   3.377   2.600   1.840
 9324SOL     OW29810   9.691  14.067  13.478
 9324SOL    HW129811   9.699  13.978  13.512
 9324SOL    HW229812   9.643  14.114  13.546
 9325SOL     OW29813   9.511   6.144  14.691
 9325SOL    HW129814   9.513   6.083  14.617
 9325SOL    HW229815   9.436   6.115  14.743
 9326SOL     OW29816   3.747   9.209  10.471
 9326SOL    HW129817   3.685   9.271  10.508
 9326SOL    HW229818   3.830   9.230  10.511
 9327SOL     OW29819  13.612  14.151   9.790
 9327SOL    HW129820  13.685  14.095   9.814
 9327SOL    HW229821  13.534  14.101   9.813
 9328SOL     OW29822   0.969  13.823   6.973
 9328SOL    HW129823   1.037  13.756   6.973
 9328SOL    HW229824   0.907  13.794   7.040
 9329SOL     OW29825  14.275   9.059  11.325
 9329SOL    HW129826  14.338   9.130  11.338
 9329SOL    HW229827  14.305   9.015  11.245
 9330SOL     OW29828   1.617   9.436  14.275
 9330SOL    HW129829   1.650   9.428  14.365
 9330SOL    HW229830   1.541   9.378  14.272
 9331SOL     OW29831   7.727   1.047   8.185
 9331SOL    HW129832   7.638   1.053   8.150
 9331SOL    HW229833   7.778   1.108   8.130
 9332SOL     OW29834   3.638   5.267  13.057
 9332SOL    HW129835   3.670   5.201  12.996
 9332SOL    HW229836   3.556   5.298  13.019
 9333SOL     OW29837   0.686   7.448   9.430
 9333SOL    HW129838   0.780   7.438   9.440
 9333SOL    HW229839   0.675   7.532   9.385
 9334SOL     OW29840   4.660   2.083  13.443
 9334SOL    HW129841   4.755   2.091  13.443
 9334SOL    HW229842   4.628   2.172  13.428
 9335SOL     OW29843   3.383  12.625   8.779
 9335SOL    HW129844   3.326  12.555   8.811
 9335SOL    HW229845   3.363  12.700   8.836
 9336SOL     OW29846   0.211   2.232   9.767
 9336SOL    HW129847   0.198   2.139   9.787
 9336SOL    HW229848   0.271   2.232   9.692
 9337SOL     OW29849  13.566   0.555   2.232
 9337SOL    HW129850  13.591   0.570   2.323
 9337SOL    HW229851  13.481   0.512   2.237
 9338SOL     OW29852   9.085   1.878   3.071
 9338SOL    HW129853   9.016   1.811   3.076
 9338SOL    HW229854   9.047   1.947   3.017
 9339SOL     OW29855  13.138   8.668   3.027
 9339SOL    HW129856  13.189   8.655   3.107
 9339SOL    HW229857  13.071   8.732   3.052
 9340SOL     OW29858   1.898   6.629   7.740
 9340SOL    HW129859   1.962   6.694   7.715
 9340SOL    HW229860   1.935   6.545   7.710
 9341SOL     OW29861   6.157   6.022   1.257
 9341SOL    HW129862   6.136   5.959   1.327
 9341SOL    HW229863   6.198   6.095   1.303
 9342SOL     OW29864   9.034   7.148   3.464
 9342SOL    HW129865   9.120   7.189   3.450
 9342SOL    HW229866   9.019   7.096   3.385
 9343SOL     OW29867  12.186  14.201   5.337
 9343SOL    HW129868  12.226  14.118   5.363
 9343SOL    HW229869  12.092  14.183   5.338
 9344SOL     OW29870   0.986   8.508   4.270
 9344SOL    HW129871   1.056   8.566   4.242
 9344SOL    HW229872   1.026   8.422   4.275
 9345SOL     OW29873   5.409   3.372  10.111
 9345SOL    HW129874   5.387   3.463  10.132
 9345SOL    HW229875   5.392   3.324  10.192
 9346SOL     OW29876   2.879   0.291   9.295
 9346SOL    HW129877   2.827   0.229   9.346
 9346SOL    HW229878   2.879   0.371   9.348
 9347SOL     OW29879  11.928  13.852   1.568
 9347SOL    HW129880  11.926  13.817   1.479
 9347SOL    HW229881  12.014  13.827   1.601
 9348SOL     OW29882   4.095   9.534   0.809
 9348SOL    HW129883   4.114   9.446   0.840
 9348SOL    HW229884   4.177   9.565   0.771
 9349SOL     OW29885   5.862   3.702   9.145
 9349SOL    HW129886   5.934   3.704   9.209
 9349SOL    HW229887   5.783   3.715   9.198
 9350SOL     OW29888   6.021   3.966   9.989
 9350SOL    HW129889   6.004   3.961  10.083
 9350SOL    HW229890   6.113   3.941   9.980
 9351SOL     OW29891   1.078   3.063  10.468
 9351SOL    HW129892   1.116   3.092  10.385
 9351SOL    HW229893   1.149   3.073  10.531
 9352SOL     OW29894  12.835  13.221  14.508
 9352SOL    HW129895  12.772  13.287  14.477
 9352SOL    HW229896  12.857  13.171  14.430
 9353SOL     OW29897   5.082   4.982   6.361
 9353SOL    HW129898   5.050   4.916   6.422
 9353SOL    HW229899   5.024   5.057   6.374
 9354SOL     OW29900   0.503   4.550   4.588
 9354SOL    HW129901   0.431   4.614   4.588
 9354SOL    HW229902   0.484   4.493   4.513
 9355SOL     OW29903   4.965   7.124  14.147
 9355SOL    HW129904   5.025   7.095  14.216
 9355SOL    HW229905   4.881   7.134  14.192
 9356SOL     OW29906  12.181   9.463  13.989
 9356SOL    HW129907  12.188   9.489  13.897
 9356SOL    HW229908  12.236   9.385  13.995
 9357SOL     OW29909   2.632   0.241   6.995
 9357SOL    HW129910   2.631   0.149   6.967
 9357SOL    HW229911   2.577   0.242   7.074
 9358SOL     OW29912   3.292   3.261   8.112
 9358SOL    HW129913   3.356   3.332   8.117
 9358SOL    HW229914   3.299   3.217   8.196
 9359SOL     OW29915  10.172   7.592  13.891
 9359SOL    HW129916  10.084   7.559  13.873
 9359SOL    HW229917  10.174   7.603  13.986
 9360SOL     OW29918   7.885   7.048   0.496
 9360SOL    HW129919   7.979   7.031   0.494
 9360SOL    HW229920   7.872   7.121   0.436
 9361SOL     OW29921   1.075  14.787  14.564
 9361SOL    HW129922   1.137  14.761  14.632
 9361SOL    HW229923   1.104  14.874  14.537
 9362SOL     OW29924   7.214   5.519  13.079
 9362SOL    HW129925   7.183   5.607  13.100
 9362SOL    HW229926   7.136   5.472  13.051
 9363SOL     OW29927   4.144   9.656  11.440
 9363SOL    HW129928   4.164   9.746  11.417
 9363SOL    HW229929   4.190   9.603  11.374
 9364SOL     OW29930   6.183   8.674   1.428
 9364SOL    HW129931   6.149   8.739   1.366
 9364SOL    HW229932   6.212   8.725   1.503
 9365SOL     OW29933   3.764   1.022   1.291
 9365SOL    HW129934   3.674   1.032   1.322
 9365SOL    HW229935   3.792   1.111   1.268
 9366SOL     OW29936  11.327   2.936  10.685
 9366SOL    HW129937  11.323   2.921  10.779
 9366SOL    HW229938  11.404   2.888  10.656
 9367SOL     OW29939  13.932   2.857  13.711
 9367SOL    HW129940  13.841   2.864  13.741
 9367SOL    HW229941  13.932   2.782  13.652
 9368SOL     OW29942   9.180   6.650   0.491
 9368SOL    HW129943   9.174   6.734   0.535
 9368SOL    HW229944   9.266   6.650   0.450
 9369SOL     OW29945   4.754   1.566   9.221
 9369SOL    HW129946   4.685   1.630   9.205
 9369SOL    HW229947   4.712   1.481   9.210
 9370SOL     OW29948   7.761  11.874  12.122
 9370SOL    HW129949   7.737  11.947  12.065
 9370SOL    HW229950   7.803  11.811  12.063
 9371SOL     OW29951   0.298   5.660   0.007
 9371SOL    HW129952   0.340   5.744   0.021
 9371SOL    HW229953   0.245   5.646   0.085
 9372SOL     OW29954   9.769   1.502   4.015
 9372SOL    HW129955   9.718   1.573   4.054
 9372SOL    HW229956   9.845   1.492   4.072
 9373SOL     OW29957   2.602  14.605   4.950
 9373SOL    HW129958   2.653  14.656   5.013
 9373SOL    HW229959   2.511  14.627   4.968
 9374SOL     OW29960   8.664   9.674   5.139
 9374SOL    HW129961   8.660   9.715   5.053
 9374SOL    HW229962   8.728   9.725   5.188
 9375SOL     OW29963   1.055  14.008   4.804
 9375SOL    HW129964   1.025  14.018   4.714
 9375SOL    HW229965   0.976  14.022   4.857
 9376SOL     OW29966   0.141   6.003   4.358
 9376SOL    HW129967   0.233   5.979   4.370
 9376SOL    HW229968   0.141   6.061   4.282
 9377SOL     OW29969   8.609  10.610   7.141
 9377SOL    HW129970   8.650  10.566   7.216
 9377SOL    HW229971   8.656  10.693   7.134
 9378SOL     OW29972  14.647   0.205  12.938
 9378SOL    HW129973  14.685   0.238  13.019
 9378SOL    HW229974  14.715   0.215  12.872
 9379SOL     OW29975   9.704   2.458   2.191
 9379SOL    HW129976   9.622   2.484   2.149
 9379SOL    HW229977   9.766   2.528   2.170
 9380SOL     OW29978  12.228   7.235   9.112
 9380SOL    HW129979  12.199   7.258   9.023
 9380SOL    HW229980  12.249   7.320   9.152
 9381SOL     OW29981  11.212   3.228  14.683
 9381SOL    HW129982  11.163   3.230  14.600
 9381SOL    HW229983  11.146   3.204  14.748
 9382SOL     OW29984  14.004   2.495   8.016
 9382SOL    HW129985  13.913   2.518   8.000
 9382SOL    HW229986  14.025   2.430   7.949
 9383SOL     OW29987  13.147  13.558  12.251
 9383SOL    HW129988  13.221  13.531  12.196
 9383SOL    HW229989  13.080  13.492  12.234
 9384SOL     OW29990   9.344   7.325   1.922
 9384SOL    HW129991   9.289   7.360   1.992
 9384SOL    HW229992   9.430   7.363   1.938
 9385SOL     OW29993   2.383   3.308   8.700
 9385SOL    HW129994   2.380   3.294   8.795
 9385SOL    HW229995   2.416   3.226   8.665
 9386SOL     OW29996  13.585  13.079   9.806
 9386SOL    HW129997  13.655  13.078   9.740
 9386SOL    HW229998  13.606  13.155   9.860
 9387SOL     OW29999  12.157  14.103  13.728
 9387SOL    HW130000  12.111  14.160  13.667
 9387SOL    HW230001  12.149  14.147  13.812
 9388SOL     OW30002   4.599  12.687   1.477
 9388SOL    HW130003   4.537  12.739   1.427
 9388SOL    HW230004   4.548  12.612   1.509
 9389SOL     OW30005  14.150  13.044   4.719
 9389SOL    HW130006  14.157  12.997   4.636
 9389SOL    HW230007  14.204  12.995   4.779
 9390SOL     OW30008  10.456   8.326   4.128
 9390SOL    HW130009  10.546   8.296   4.121
 9390SOL    HW230010  10.448   8.359   4.217
 9391SOL     OW30011   4.317   9.025  12.942
 9391SOL    HW130012   4.340   8.977  13.021
 9391SOL    HW230013   4.335   9.117  12.963
 9392SOL     OW30014   8.425   4.720  12.666
 9392SOL    HW130015   8.349   4.714  12.607
 9392SOL    HW230016   8.425   4.637  12.714
 9393SOL     OW30017   5.427  13.746   7.049
 9393SOL    HW130018   5.493  13.676   7.050
 9393SOL    HW230019   5.478  13.826   7.062
 9394SOL     OW30020   1.599   2.185  13.474
 9394SOL    HW130021   1.579   2.163  13.565
 9394SOL    HW230022   1.649   2.110  13.442
 9395SOL     OW30023   5.849  12.700  11.172
 9395SOL    HW130024   5.827  12.698  11.266
 9395SOL    HW230025   5.926  12.644  11.165
 9396SOL     OW30026   6.657   9.936   2.560
 9396SOL    HW130027   6.658   9.948   2.655
 9396SOL    HW230028   6.588   9.995   2.529
 9397SOL     OW30029   9.462   1.105   3.563
 9397SOL    HW130030   9.442   1.042   3.631
 9397SOL    HW230031   9.405   1.081   3.490
 9398SOL     OW30032   5.357   9.722   1.008
 9398SOL    HW130033   5.370   9.631   0.980
 9398SOL    HW230034   5.407   9.728   1.090
 9399SOL     OW30035   4.484   3.955   3.619
 9399SOL    HW130036   4.570   3.951   3.576
 9399SOL    HW230037   4.499   3.918   3.706
 9400SOL     OW30038   1.058  12.418   0.132
 9400SOL    HW130039   1.113  12.457   0.064
 9400SOL    HW230040   1.023  12.338   0.093
 9401SOL     OW30041   9.632   2.537   9.835
 9401SOL    HW130042   9.673   2.621   9.856
 9401SOL    HW230043   9.703   2.483   9.799
 9402SOL     OW30044   1.242  12.583   4.708
 9402SOL    HW130045   1.147  12.583   4.720
 9402SOL    HW230046   1.255  12.627   4.624
 9403SOL     OW30047   9.500  13.809   5.489
 9403SOL    HW130048   9.406  13.820   5.494
 9403SOL    HW230049   9.523  13.835   5.400
 9404SOL     OW30050   7.685   8.315   9.766
 9404SOL    HW130051   7.637   8.387   9.807
 9404SOL    HW230052   7.752   8.358   9.713
 9405SOL     OW30053   9.672   8.523   9.236
 9405SOL    HW130054   9.756   8.501   9.195
 9405SOL    HW230055   9.649   8.445   9.287
 9406SOL     OW30056  13.446  12.577   0.974
 9406SOL    HW130057  13.502  12.512   1.016
 9406SOL    HW230058  13.475  12.661   1.011
 9407SOL     OW30059   3.363   0.908  13.693
 9407SOL    HW130060   3.344   0.926  13.785
 9407SOL    HW230061   3.441   0.959  13.674
 9408SOL     OW30062   9.614   3.933  14.743
 9408SOL    HW130063   9.641   3.842  14.746
 9408SOL    HW230064   9.579   3.945  14.654
 9409SOL     OW30065  10.920   1.082   0.650
 9409SOL    HW130066  10.875   1.045   0.726
 9409SOL    HW230067  10.850   1.118   0.595
 9410SOL     OW30068   5.608   3.775   3.004
 9410SOL    HW130069   5.622   3.806   3.094
 9410SOL    HW230070   5.513   3.772   2.994
 9411SOL     OW30071   0.620  13.590   6.066
 9411SOL    HW130072   0.695  13.622   6.116
 9411SOL    HW230073   0.546  13.598   6.127
 9412SOL     OW30074   7.573  11.417  10.142
 9412SOL    HW130075   7.638  11.388  10.078
 9412SOL    HW230076   7.583  11.357  10.216
 9413SOL     OW30077   5.850  14.720  13.378
 9413SOL    HW130078   5.871  14.627  13.373
 9413SOL    HW230079   5.756  14.725  13.358
 9414SOL     OW30080   3.097   8.487  14.472
 9414SOL    HW130081   3.010   8.460  14.501
 9414SOL    HW230082   3.139   8.406  14.443
 9415SOL     OW30083  14.718   9.500   0.159
 9415SOL    HW130084  14.770   9.519   0.081
 9415SOL    HW230085  14.627   9.499   0.127
 9416SOL     OW30086   0.217   3.169  10.146
 9416SOL    HW130087   0.142   3.226  10.164
 9416SOL    HW230088   0.284   3.228  10.112
 9417SOL     OW30089   2.006   0.304  12.618
 9417SOL    HW130090   2.009   0.256  12.701
 9417SOL    HW230091   1.980   0.393  12.642
 9418SOL     OW30092   1.706  10.758   6.987
 9418SOL    HW130093   1.651  10.698   7.037
 9418SOL    HW230094   1.653  10.837   6.978
 9419SOL     OW30095   5.956  11.777   6.203
 9419SOL    HW130096   5.892  11.786   6.274
 9419SOL    HW230097   5.906  11.740   6.130
 9420SOL     OW30098  13.139  12.279  10.044
 9420SOL    HW130099  13.158  12.359   9.995
 9420SOL    HW230100  13.145  12.209   9.979
 9421SOL     OW30101  13.701  10.786  14.118
 9421SOL    HW130102  13.752  10.725  14.171
 9421SOL    HW230103  13.610  10.771  14.143
 9422SOL     OW30104   8.914  12.968  13.937
 9422SOL    HW130105   8.927  12.938  14.026
 9422SOL    HW230106   8.830  13.015  13.939
 9423SOL     OW30107   6.394  11.177   7.594
 9423SOL    HW130108   6.329  11.247   7.604
 9423SOL    HW230109   6.471  11.220   7.558
 9424SOL     OW30110   0.740   9.629  13.110
 9424SOL    HW130111   0.715   9.537  13.111
 9424SOL    HW230112   0.816   9.634  13.168
 9425SOL     OW30113   9.473  13.395   7.592
 9425SOL    HW130114   9.408  13.331   7.562
 9425SOL    HW230115   9.440  13.424   7.677
 9426SOL     OW30116   7.895   3.702   1.921
 9426SOL    HW130117   7.826   3.642   1.948
 9426SOL    HW230118   7.887   3.706   1.825
 9427SOL     OW30119  11.999  13.177   4.792
 9427SOL    HW130120  11.989  13.127   4.873
 9427SOL    HW230121  11.974  13.267   4.817
 9428SOL     OW30122   1.304   8.099   3.314
 9428SOL    HW130123   1.286   8.047   3.235
 9428SOL    HW230124   1.371   8.048   3.361
 9429SOL     OW30125  13.427   2.755  12.608
 9429SOL    HW130126  13.413   2.660  12.610
 9429SOL    HW230127  13.514   2.767  12.648
 9430SOL     OW30128  13.843   6.446  11.342
 9430SOL    HW130129  13.839   6.377  11.408
 9430SOL    HW230130  13.928   6.434  11.300
 9431SOL     OW30131   8.823   3.796   1.933
 9431SOL    HW130132   8.849   3.823   1.845
 9431SOL    HW230133   8.847   3.703   1.938
 9432SOL     OW30134  13.373   7.265   8.787
 9432SOL    HW130135  13.462   7.266   8.820
 9432SOL    HW230136  13.321   7.310   8.854
 9433SOL     OW30137  14.402  13.534   3.181
 9433SOL    HW130138  14.494  13.558   3.197
 9433SOL    HW230139  14.407  13.447   3.142
 9434SOL     OW30140  13.008  11.327   5.233
 9434SOL    HW130141  13.026  11.253   5.291
 9434SOL    HW230142  12.912  11.335   5.233
 9435SOL     OW30143   9.902  13.702  10.360
 9435SOL    HW130144   9.884  13.624  10.308
 9435SOL    HW230145   9.977  13.742  10.316
 9436SOL     OW30146  11.987   6.256   2.816
 9436SOL    HW130147  11.954   6.218   2.734
 9436SOL    HW230148  11.910   6.262   2.872
 9437SOL     OW30149  10.293   3.482   0.477
 9437SOL    HW130150  10.243   3.401   0.491
 9437SOL    HW230151  10.322   3.477   0.386
 9438SOL     OW30152  12.763   1.606   4.755
 9438SOL    HW130153  12.789   1.670   4.821
 9438SOL    HW230154  12.720   1.658   4.687
 9439SOL     OW30155  11.718  10.952   0.082
 9439SOL    HW130156  11.653  10.925   0.017
 9439SOL    HW230157  11.680  10.925   0.166
 9440SOL     OW30158   8.425   3.550   5.071
 9440SOL    HW130159   8.425   3.634   5.026
 9440SOL    HW230160   8.511   3.546   5.115
 9441SOL     OW30161  10.151   8.896   2.373
 9441SOL    HW130162  10.226   8.896   2.313
 9441SOL    HW230163  10.121   8.987   2.374
 9442SOL     OW30164   3.469   2.041   0.819
 9442SOL    HW130165   3.529   1.998   0.879
 9442SOL    HW230166   3.420   1.970   0.778
 9443SOL     OW30167   2.615   4.500  11.446
 9443SOL    HW130168   2.612   4.408  11.420
 9443SOL    HW230169   2.533   4.514  11.493
 9444SOL     OW30170  10.537  10.988   3.856
 9444SOL    HW130171  10.523  10.969   3.764
 9444SOL    HW230172  10.525  10.904   3.900
 9445SOL     OW30173  13.279   1.685   6.102
 9445SOL    HW130174  13.204   1.714   6.155
 9445SOL    HW230175  13.331   1.764   6.088
 9446SOL     OW30176   0.948   8.871   2.482
 9446SOL    HW130177   0.968   8.963   2.502
 9446SOL    HW230178   0.862   8.856   2.520
 9447SOL     OW30179   3.697   1.067   2.998
 9447SOL    HW130180   3.640   0.990   2.993
 9447SOL    HW230181   3.785   1.032   2.985
 9448SOL     OW30182  12.130   7.454   0.664
 9448SOL    HW130183  12.092   7.542   0.665
 9448SOL    HW230184  12.110   7.418   0.751
 9449SOL     OW30185   5.191   4.177  10.198
 9449SOL    HW130186   5.122   4.235  10.165
 9449SOL    HW230187   5.145   4.117  10.257
 9450SOL     OW30188   2.270   3.934  11.738
 9450SOL    HW130189   2.280   3.930  11.643
 9450SOL    HW230190   2.183   3.973  11.752
 9451SOL     OW30191  10.934   2.884  12.967
 9451SOL    HW130192  10.959   2.954  12.906
 9451SOL    HW230193  10.870   2.925  13.025
 9452SOL     OW30194   5.678   3.105   1.278
 9452SOL    HW130195   5.751   3.118   1.339
 9452SOL    HW230196   5.641   3.193   1.266
 9453SOL     OW30197   2.191  12.111   6.463
 9453SOL    HW130198   2.152  12.104   6.376
 9453SOL    HW230199   2.283  12.130   6.447
 9454SOL     OW30200   7.662   4.430   6.266
 9454SOL    HW130201   7.644   4.424   6.172
 9454SOL    HW230202   7.743   4.480   6.272
 9455SOL     OW30203  14.435   1.694  12.024
 9455SOL    HW130204  14.470   1.681  12.112
 9455SOL    HW230205  14.471   1.621  11.973
 9456SOL     OW30206  14.312   5.253   8.754
 9456SOL    HW130207  14.245   5.317   8.777
 9456SOL    HW230208  14.369   5.300   8.693
 9457SOL     OW30209   5.264   1.691   0.819
 9457SOL    HW130210   5.308   1.732   0.893
 9457SOL    HW230211   5.329   1.630   0.783
 9458SOL     OW30212   8.455   6.215  11.614
 9458SOL    HW130213   8.490   6.165  11.688
 9458SOL    HW230214   8.528   6.270  11.585
 9459SOL     OW30215   3.672   8.520   5.545
 9459SOL    HW130216   3.666   8.579   5.469
 9459SOL    HW230217   3.622   8.564   5.613
 9460SOL     OW30218   4.369  11.601   8.380
 9460SOL    HW130219   4.317  11.676   8.408
 9460SOL    HW230220   4.390  11.554   8.461
 9461SOL     OW30221   7.289   4.056   7.648
 9461SOL    HW130222   7.229   4.061   7.574
 9461SOL    HW230223   7.339   3.976   7.634
 9462SOL     OW30224  10.813   9.538  13.499
 9462SOL    HW130225  10.851   9.620  13.469
 9462SOL    HW230226  10.745   9.517  13.435
 9463SOL     OW30227   2.454  13.250  14.839
 9463SOL    HW130228   2.491  13.162  14.842
 9463SOL    HW230229   2.445  13.268  14.745
 9464SOL     OW30230   6.163  12.697   0.404
 9464SOL    HW130231   6.135  12.770   0.349
 9464SOL    HW230232   6.086  12.641   0.410
 9465SOL     OW30233   1.670   3.766   9.143
 9465SOL    HW130234   1.627   3.746   9.060
 9465SOL    HW230235   1.671   3.861   9.149
 9466SOL     OW30236   6.898  12.398   6.576
 9466SOL    HW130237   6.890  12.485   6.536
 9466SOL    HW230238   6.966  12.354   6.526
 9467SOL     OW30239   1.652   8.009   9.602
 9467SOL    HW130240   1.687   8.092   9.635
 9467SOL    HW230241   1.573   7.995   9.654
 9468SOL     OW30242   3.102  12.138   3.402
 9468SOL    HW130243   3.075  12.137   3.494
 9468SOL    HW230244   3.088  12.229   3.375
 9469SOL     OW30245  12.696   4.783   2.614
 9469SOL    HW130246  12.784   4.766   2.647
 9469SOL    HW230247  12.702   4.868   2.571
 9470SOL     OW30248   0.351   6.366   3.814
 9470SOL    HW130249   0.280   6.422   3.844
 9470SOL    HW230250   0.399   6.343   3.894
 9471SOL     OW30251   4.869   2.717  11.723
 9471SOL    HW130252   4.933   2.688  11.659
 9471SOL    HW230253   4.806   2.769  11.672
 9472SOL     OW30254   1.025   0.406   6.558
 9472SOL    HW130255   0.930   0.407   6.549
 9472SOL    HW230256   1.045   0.490   6.600
 9473SOL     OW30257   4.911   3.606   9.576
 9473SOL    HW130258   4.824   3.587   9.611
 9473SOL    HW230259   4.913   3.702   9.569
 9474SOL     OW30260   5.215   8.740  11.476
 9474SOL    HW130261   5.253   8.746  11.388
 9474SOL    HW230262   5.129   8.781  11.468
 9475SOL     OW30263   0.328  13.163   3.807
 9475SOL    HW130264   0.392  13.211   3.755
 9475SOL    HW230265   0.249  13.217   3.803
 9476SOL     OW30266   9.668   0.036   1.512
 9476SOL    HW130267   9.671  14.823   1.522
 9476SOL    HW230268   9.658   0.050   1.418
 9477SOL     OW30269   7.390   7.721   3.377
 9477SOL    HW130270   7.307   7.747   3.418
 9477SOL    HW230271   7.446   7.698   3.451
 9478SOL     OW30272  11.879  14.755   1.842
 9478SOL    HW130273  11.973  14.742   1.834
 9478SOL    HW230274  11.863  14.845   1.813
 9479SOL     OW30275  12.749   4.986  14.782
 9479SOL    HW130276  12.668   5.037  14.794
 9479SOL    HW230277  12.819   5.046  14.807
 9480SOL     OW30278   1.941   3.683   3.417
 9480SOL    HW130279   1.960   3.595   3.451
 9480SOL    HW230280   2.024   3.712   3.379
 9481SOL     OW30281   5.235   6.469   5.019
 9481SOL    HW130282   5.297   6.542   5.025
 9481SOL    HW230283   5.238   6.428   5.106
 9482SOL     OW30284   2.641  12.744   7.813
 9482SOL    HW130285   2.595  12.743   7.729
 9482SOL    HW230286   2.574  12.767   7.877
 9483SOL     OW30287   9.414   4.562   9.164
 9483SOL    HW130288   9.490   4.515   9.130
 9483SOL    HW230289   9.392   4.624   9.095
 9484SOL     OW30290  14.120   6.358   1.945
 9484SOL    HW130291  14.090   6.424   1.882
 9484SOL    HW230292  14.215   6.368   1.947
 9485SOL     OW30293  14.596   6.250   2.709
 9485SOL    HW130294  14.667   6.186   2.701
 9485SOL    HW230295  14.605   6.305   2.631
 9486SOL     OW30296   2.638   3.801   7.809
 9486SOL    HW130297   2.699   3.731   7.833
 9486SOL    HW230298   2.680   3.844   7.734
 9487SOL     OW30299  14.450   8.468   7.642
 9487SOL    HW130300  14.361   8.498   7.662
 9487SOL    HW230301  14.438   8.404   7.571
 9488SOL     OW30302   2.866  12.497   8.868
 9488SOL    HW130303   2.792  12.453   8.826
 9488SOL    HW230304   2.943  12.448   8.840
 9489SOL     OW30305   3.502  10.843  14.035
 9489SOL    HW130306   3.415  10.879  14.049
 9489SOL    HW230307   3.533  10.886  13.956
 9490SOL     OW30308   5.601   0.567   4.695
 9490SOL    HW130309   5.678   0.619   4.671
 9490SOL    HW230310   5.603   0.493   4.634
 9491SOL     OW30311   3.600   8.234  11.653
 9491SOL    HW130312   3.652   8.194  11.583
 9491SOL    HW230313   3.657   8.302  11.689
 9492SOL     OW30314   5.104  11.384   3.588
 9492SOL    HW130315   5.016  11.421   3.591
 9492SOL    HW230316   5.107  11.338   3.504
 9493SOL     OW30317   1.944   0.869   8.453
 9493SOL    HW130318   1.997   0.913   8.519
 9493SOL    HW230319   1.899   0.799   8.501
 9494SOL     OW30320   9.801   3.337   3.210
 9494SOL    HW130321   9.884   3.383   3.220
 9494SOL    HW230322   9.767   3.367   3.126
 9495SOL     OW30323  12.342   8.054   1.201
 9495SOL    HW130324  12.403   8.014   1.139
 9495SOL    HW230325  12.348   8.148   1.184
 9496SOL     OW30326  14.418   9.704   1.282
 9496SOL    HW130327  14.491   9.665   1.331
 9496SOL    HW230328  14.425   9.666   1.194
 9497SOL     OW30329   5.004   4.610   1.540
 9497SOL    HW130330   4.951   4.600   1.619
 9497SOL    HW230331   4.946   4.652   1.477
 9498SOL     OW30332  12.162  13.159   3.226
 9498SOL    HW130333  12.076  13.185   3.192
 9498SOL    HW230334  12.179  13.074   3.186
 9499SOL     OW30335  12.430   8.589   4.815
 9499SOL    HW130336  12.491   8.627   4.751
 9499SOL    HW230337  12.428   8.495   4.793
 9500SOL     OW30338   9.940  11.241  14.551
 9500SOL    HW130339   9.936  11.207  14.640
 9500SOL    HW230340   9.944  11.336  14.562
 9501SOL     OW30341   6.140   6.464  12.412
 9501SOL    HW130342   6.062   6.423  12.375
 9501SOL    HW230343   6.116   6.557  12.420
 9502SOL     OW30344  10.101  10.179   3.825
 9502SOL    HW130345  10.086  10.200   3.733
 9502SOL    HW230346  10.057  10.094   3.838
 9503SOL     OW30347  10.382  10.300   8.455
 9503SOL    HW130348  10.287  10.305   8.447
 9503SOL    HW230349  10.402  10.349   8.535
 9504SOL     OW30350   8.437   8.384   2.232
 9504SOL    HW130351   8.483   8.310   2.271
 9504SOL    HW230352   8.365   8.402   2.292
 9505SOL     OW30353   9.888   6.001  13.476
 9505SOL    HW130354   9.964   6.046  13.440
 9505SOL    HW230355   9.920   5.957  13.555
 9506SOL     OW30356   5.921   3.168   3.755
 9506SOL    HW130357   5.905   3.078   3.727
 9506SOL    HW230358   6.006   3.190   3.718
 9507SOL     OW30359  12.911  10.915   3.842
 9507SOL    HW130360  12.896  10.981   3.910
 9507SOL    HW230361  13.005  10.899   3.845
 9508SOL     OW30362   0.138  13.356   3.353
 9508SOL    HW130363   0.112  13.337   3.443
 9508SOL    HW230364   0.057  13.344   3.302
 9509SOL     OW30365   5.140   1.460   4.157
 9509SOL    HW130366   5.218   1.405   4.163
 9509SOL    HW230367   5.151   1.526   4.225
 9510SOL     OW30368   0.270  13.092  10.110
 9510SOL    HW130369   0.295  13.176  10.071
 9510SOL    HW230370   0.344  13.034  10.091
 9511SOL     OW30371   9.662   3.192   1.051
 9511SOL    HW130372   9.577   3.215   1.090
 9511SOL    HW230373   9.723   3.195   1.125
 9512SOL     OW30374   6.674   6.611   0.031
 9512SOL    HW130375   6.747   6.604   0.092
 9512SOL    HW230376   6.711   6.654  14.835
 9513SOL     OW30377  12.250   4.410  12.423
 9513SOL    HW130378  12.262   4.349  12.496
 9513SOL    HW230379  12.316   4.386  12.359
 9514SOL     OW30380   9.098   5.597   4.894
 9514SOL    HW130381   9.022   5.616   4.838
 9514SOL    HW230382   9.174   5.612   4.838
 9515SOL     OW30383   8.961   0.967  12.572
 9515SOL    HW130384   8.964   0.898  12.506
 9515SOL    HW230385   8.870   0.965  12.604
 9516SOL     OW30386  13.017  13.870   7.039
 9516SOL    HW130387  12.993  13.906   7.124
 9516SOL    HW230388  12.976  13.783   7.037
 9517SOL     OW30389   7.682  10.397   1.245
 9517SOL    HW130390   7.661  10.344   1.321
 9517SOL    HW230391   7.601  10.444   1.225
 9518SOL     OW30392   5.321   7.834   4.716
 9518SOL    HW130393   5.412   7.804   4.713
 9518SOL    HW230394   5.297   7.829   4.809
 9519SOL     OW30395   5.832   5.504   1.193
 9519SOL    HW130396   5.897   5.448   1.151
 9519SOL    HW230397   5.766   5.444   1.227
 9520SOL     OW30398   5.785   8.305  10.131
 9520SOL    HW130399   5.822   8.336  10.213
 9520SOL    HW230400   5.708   8.360  10.117
 9521SOL     OW30401  13.273   0.792   9.474
 9521SOL    HW130402  13.238   0.856   9.413
 9521SOL    HW230403  13.368   0.806   9.472
 9522SOL     OW30404   5.613  14.037   3.205
 9522SOL    HW130405   5.553  14.057   3.277
 9522SOL    HW230406   5.633  13.944   3.216
 9523SOL     OW30407   7.106  11.029   4.946
 9523SOL    HW130408   7.033  10.972   4.969
 9523SOL    HW230409   7.183  10.988   4.986
 9524SOL     OW30410  14.185   9.387   0.733
 9524SOL    HW130411  14.092   9.372   0.717
 9524SOL    HW230412  14.220   9.412   0.647
 9525SOL     OW30413   2.561   5.248   7.318
 9525SOL    HW130414   2.539   5.276   7.407
 9525SOL    HW230415   2.624   5.313   7.287
 9526SOL     OW30416   3.140   4.160  14.866
 9526SOL    HW130417   3.229   4.159   0.021
 9526SOL    HW230418   3.112   4.069  14.868
 9527SOL     OW30419  10.079   0.752  11.838
 9527SOL    HW130420  10.023   0.774  11.763
 9527SOL    HW230421  10.118   0.668  11.815
 9528SOL     OW30422   9.084  11.945  11.294
 9528SOL    HW130423   9.024  11.935  11.221
 9528SOL    HW230424   9.079  12.039  11.316
 9529SOL     OW30425  10.935   2.725  13.263
 9529SOL    HW130426  10.860   2.745  13.319
 9529SOL    HW230427  10.938   2.797  13.200
 9530SOL     OW30428  14.430   3.096  13.259
 9530SOL    HW130429  14.443   3.124  13.350
 9530SOL    HW230430  14.444   3.001  13.262
 9531SOL     OW30431   9.199   7.438   2.116
 9531SOL    HW130432   9.109   7.412   2.137
 9531SOL    HW230433   9.202   7.532   2.132
 9532SOL     OW30434   9.354   6.127  13.175
 9532SOL    HW130435   9.429   6.127  13.234
 9532SOL    HW230436   9.389   6.094  13.092
 9533SOL     OW30437  13.013   5.240  12.843
 9533SOL    HW130438  13.023   5.330  12.810
 9533SOL    HW230439  13.103   5.212  12.862
 9534SOL     OW30440   0.596   2.308  13.286
 9534SOL    HW130441   0.524   2.282  13.227
 9534SOL    HW230442   0.675   2.274  13.243
 9535SOL     OW30443   3.575   5.671   6.044
 9535SOL    HW130444   3.649   5.619   6.013
 9535SOL    HW230445   3.591   5.683   6.138
 9536SOL     OW30446   4.896  11.809   1.838
 9536SOL    HW130447   4.849  11.738   1.882
 9536SOL    HW230448   4.987  11.779   1.834
 9537SOL     OW30449  11.318   3.750   5.323
 9537SOL    HW130450  11.249   3.800   5.366
 9537SOL    HW230451  11.378   3.817   5.288
 9538SOL     OW30452   8.103   9.024  12.430
 9538SOL    HW130453   8.074   9.070  12.351
 9538SOL    HW230454   8.172   9.079  12.467
 9539SOL     OW30455   3.356   7.504   4.145
 9539SOL    HW130456   3.325   7.580   4.095
 9539SOL    HW230457   3.436   7.534   4.187
 9540SOL     OW30458   8.149  13.410   1.000
 9540SOL    HW130459   8.065  13.411   0.953
 9540SOL    HW230460   8.215  13.414   0.931
 9541SOL     OW30461  10.329   0.082  12.085
 9541SOL    HW130462  10.332  14.870  12.102
 9541SOL    HW230463  10.241   0.108  12.112
 9542SOL     OW30464   6.420  11.110   8.268
 9542SOL    HW130465   6.495  11.127   8.210
 9542SOL    HW230466   6.347  11.091   8.209
 9543SOL     OW30467   5.326   3.332  12.027
 9543SOL    HW130468   5.355   3.335  12.118
 9543SOL    HW230469   5.335   3.240  12.002
 9544SOL     OW30470   2.521  10.488   5.179
 9544SOL    HW130471   2.446  10.498   5.120
 9544SOL    HW230472   2.556  10.577   5.189
 9545SOL     OW30473   5.033  12.097   6.039
 9545SOL    HW130474   5.060  12.018   5.993
 9545SOL    HW230475   4.942  12.110   6.012
 9546SOL     OW30476   3.558  14.289   1.023
 9546SOL    HW130477   3.634  14.308   1.078
 9546SOL    HW230478   3.595  14.282   0.934
 9547SOL     OW30479   4.106  14.559   8.976
 9547SOL    HW130480   4.181  14.552   9.035
 9547SOL    HW230481   4.130  14.630   8.916
 9548SOL     OW30482   2.555   5.087   8.163
 9548SOL    HW130483   2.526   5.094   8.254
 9548SOL    HW230484   2.578   5.176   8.138
 9549SOL     OW30485   6.785   8.970   2.520
 9549SOL    HW130486   6.830   8.950   2.438
 9549SOL    HW230487   6.820   9.055   2.547
 9550SOL     OW30488  10.467   0.212   6.451
 9550SOL    HW130489  10.425   0.277   6.506
 9550SOL    HW230490  10.542   0.182   6.502
 9551SOL     OW30491  14.414   0.708   9.981
 9551SOL    HW130492  14.320   0.729   9.980
 9551SOL    HW230493  14.448   0.758  10.055
 9552SOL     OW30494  12.276  11.889  10.601
 9552SOL    HW130495  12.251  11.960  10.661
 9552SOL    HW230496  12.210  11.821  10.617
 9553SOL     OW30497   9.265  14.494   9.490
 9553SOL    HW130498   9.321  14.467   9.562
 9553SOL    HW230499   9.234  14.411   9.452
 9554SOL     OW30500   5.142  12.890   0.171
 9554SOL    HW130501   5.128  12.932   0.257
 9554SOL    HW230502   5.093  12.808   0.176
 9555SOL     OW30503   6.544  10.977   4.802
 9555SOL    HW130504   6.636  10.989   4.778
 9555SOL    HW230505   6.534  10.882   4.811
 9556SOL     OW30506  11.200  12.096   6.900
 9556SOL    HW130507  11.251  12.037   6.845
 9556SOL    HW230508  11.126  12.121   6.845
 9557SOL     OW30509   2.671  11.169  10.680
 9557SOL    HW130510   2.728  11.101  10.643
 9557SOL    HW230511   2.667  11.148  10.773
 9558SOL     OW30512   5.910   1.315  13.023
 9558SOL    HW130513   5.832   1.262  13.006
 9558SOL    HW230514   5.890   1.362  13.103
 9559SOL     OW30515  11.058  11.365   2.418
 9559SOL    HW130516  10.973  11.366   2.374
 9559SOL    HW230517  11.122  11.370   2.347
 9560SOL     OW30518  14.236   3.782  14.287
 9560SOL    HW130519  14.265   3.800  14.198
 9560SOL    HW230520  14.297   3.831  14.343
 9561SOL     OW30521   1.355   9.028  11.217
 9561SOL    HW130522   1.436   9.060  11.178
 9561SOL    HW230523   1.333   8.951  11.164
 9562SOL     OW30524   7.711  13.042   5.600
 9562SOL    HW130525   7.741  13.051   5.691
 9562SOL    HW230526   7.639  13.104   5.593
 9563SOL     OW30527   3.307  11.410   1.008
 9563SOL    HW130528   3.382  11.352   1.003
 9563SOL    HW230529   3.231  11.352   1.011
 9564SOL     OW30530   8.961   5.993   7.929
 9564SOL    HW130531   9.054   5.972   7.923
 9564SOL    HW230532   8.959   6.085   7.957
 9565SOL     OW30533   3.898   7.132  14.034
 9565SOL    HW130534   3.809   7.097  14.036
 9565SOL    HW230535   3.903   7.188  14.112
 9566SOL     OW30536  11.457   6.941   0.713
 9566SOL    HW130537  11.450   6.863   0.768
 9566SOL    HW230538  11.467   7.013   0.776
 9567SOL     OW30539   4.670  11.421   9.611
 9567SOL    HW130540   4.712  11.343   9.646
 9567SOL    HW230541   4.576  11.400   9.609
 9568SOL     OW30542  12.544  10.887   7.079
 9568SOL    HW130543  12.595  10.966   7.060
 9568SOL    HW230544  12.528  10.891   7.173
 9569SOL     OW30545   8.099   5.695   2.019
 9569SOL    HW130546   8.008   5.704   1.989
 9569SOL    HW230547   8.136   5.782   2.008
 9570SOL     OW30548   1.151   7.781   2.927
 9570SOL    HW130549   1.237   7.743   2.907
 9570SOL    HW230550   1.104   7.711   2.972
 9571SOL     OW30551  13.352   8.156   0.739
 9571SOL    HW130552  13.433   8.198   0.769
 9571SOL    HW230553  13.321   8.107   0.816
 9572SOL     OW30554  10.313  13.455   5.549
 9572SOL    HW130555  10.386  13.514   5.572
 9572SOL    HW230556  10.242  13.513   5.523
 9573SOL     OW30557  13.472  13.116   1.827
 9573SOL    HW130558  13.409  13.061   1.875
 9573SOL    HW230559  13.427  13.138   1.745
 9574SOL     OW30560   4.643   6.397   6.703
 9574SOL    HW130561   4.616   6.339   6.633
 9574SOL    HW230562   4.710   6.348   6.750
 9575SOL     OW30563   7.276   3.447  10.939
 9575SOL    HW130564   7.295   3.512  11.007
 9575SOL    HW230565   7.227   3.378  10.983
 9576SOL     OW30566   3.960  14.212  10.707
 9576SOL    HW130567   3.870  14.238  10.726
 9576SOL    HW230568   4.011  14.293  10.715
 9577SOL     OW30569   9.560   2.113  13.219
 9577SOL    HW130570   9.573   2.195  13.173
 9577SOL    HW230571   9.502   2.062  13.163
 9578SOL     OW30572  12.010  14.778   2.905
 9578SOL    HW130573  11.939  14.714   2.917
 9578SOL    HW230574  12.084  14.725   2.876
 9579SOL     OW30575   2.683  13.734   2.016
 9579SOL    HW130576   2.773  13.755   1.990
 9579SOL    HW230577   2.676  13.639   2.006
 9580SOL     OW30578  10.185  10.098   0.109
 9580SOL    HW130579  10.184  10.079   0.203
 9580SOL    HW230580  10.219  10.018   0.068
 9581SOL     OW30581   1.264  13.924   7.574
 9581SOL    HW130582   1.269  14.014   7.606
 9581SOL    HW230583   1.170  13.905   7.571
 9582SOL     OW30584   4.046  13.447   1.987
 9582SOL    HW130585   3.988  13.401   2.048
 9582SOL    HW230586   4.127  13.394   1.987
 9583SOL     OW30587   2.556   9.623   0.298
 9583SOL    HW130588   2.532   9.668   0.380
 9583SOL    HW230589   2.651   9.629   0.294
 9584SOL     OW30590  12.068  11.167  13.016
 9584SOL    HW130591  12.002  11.158  13.085
 9584SOL    HW230592  12.030  11.125  12.940
 9585SOL     OW30593   7.642  10.476   6.328
 9585SOL    HW130594   7.577  10.460   6.260
 9585SOL    HW230595   7.707  10.534   6.286
 9586SOL     OW30596  13.684   6.281   8.364
 9586SOL    HW130597  13.774   6.314   8.356
 9586SOL    HW230598  13.629   6.355   8.338
 9587SOL     OW30599   5.170   6.956  14.306
 9587SOL    HW130600   5.120   6.942  14.387
 9587SOL    HW230601   5.224   6.877  14.299
 9588SOL     OW30602   9.495   1.705   9.719
 9588SOL    HW130603   9.430   1.745   9.660
 9588SOL    HW230604   9.574   1.758   9.707
 9589SOL     OW30605   2.197   3.798  12.225
 9589SOL    HW130606   2.277   3.778  12.274
 9589SOL    HW230607   2.219   3.777  12.134
 9590SOL     OW30608  12.084  12.670   0.159
 9590SOL    HW130609  12.012  12.609   0.143
 9590SOL    HW230610  12.043  12.756   0.167
 9591SOL     OW30611   3.656   5.984   1.853
 9591SOL    HW130612   3.643   6.023   1.766
 9591SOL    HW230613   3.567   5.970   1.886
 9592SOL     OW30614   2.002   3.575  10.280
 9592SOL    HW130615   2.051   3.540  10.354
 9592SOL    HW230616   1.968   3.659  10.312
 9593SOL     OW30617   7.612   9.587  13.406
 9593SOL    HW130618   7.600   9.492  13.399
 9593SOL    HW230619   7.666   9.610  13.330
 9594SOL     OW30620  11.267  12.988   5.181
 9594SOL    HW130621  11.284  13.080   5.198
 9594SOL    HW230622  11.298  12.974   5.092
 9595SOL     OW30623   0.204  12.252   0.596
 9595SOL    HW130624   0.248  12.183   0.547
 9595SOL    HW230625   0.269  12.282   0.659
 9596SOL     OW30626   9.553   7.955   6.590
 9596SOL    HW130627   9.623   8.019   6.577
 9596SOL    HW230628   9.592   7.871   6.563
 9597SOL     OW30629   3.649   5.269   9.227
 9597SOL    HW130630   3.686   5.347   9.267
 9597SOL    HW230631   3.722   5.228   9.181
 9598SOL     OW30632   9.214   5.819   7.625
 9598SOL    HW130633   9.154   5.823   7.551
 9598SOL    HW230634   9.222   5.726   7.645
 9599SOL     OW30635  13.254   7.308   2.192
 9599SOL    HW130636  13.320   7.321   2.124
 9599SOL    HW230637  13.259   7.215   2.214
 9600SOL     OW30638   8.371  11.841   9.869
 9600SOL    HW130639   8.327  11.757   9.885
 9600SOL    HW230640   8.414  11.862   9.951
 9601SOL     OW30641  10.767  13.312   8.282
 9601SOL    HW130642  10.839  13.249   8.286
 9601SOL    HW230643  10.693  13.263   8.246
 9602SOL     OW30644  12.762   6.012  11.959
 9602SOL    HW130645  12.717   6.070  12.021
 9602SOL    HW230646  12.725   6.035  11.874
 9603SOL     OW30647  12.391   2.906   1.400
 9603SOL    HW130648  12.417   2.991   1.436
 9603SOL    HW230649  12.434   2.902   1.314
 9604SOL     OW30650  14.816   9.690  11.158
 9604SOL    HW130651  14.845   9.768  11.111
 9604SOL    HW230652  14.722   9.686  11.142
 9605SOL     OW30653  14.128  12.426   0.314
 9605SOL    HW130654  14.120  12.522   0.316
 9605SOL    HW230655  14.220  12.410   0.294
 9606SOL     OW30656   0.109   5.937   0.697
 9606SOL    HW130657   0.137   5.971   0.613
 9606SOL    HW230658   0.189   5.907   0.739
 9607SOL     OW30659   3.233   8.706   5.037
 9607SOL    HW130660   3.195   8.663   4.960
 9607SOL    HW230661   3.249   8.796   5.008
 9608SOL     OW30662   0.245   2.497   1.938
 9608SOL    HW130663   0.260   2.532   1.850
 9608SOL    HW230664   0.326   2.515   1.985
 9609SOL     OW30665  14.226  14.007  13.409
 9609SOL    HW130666  14.182  13.923  13.403
 9609SOL    HW230667  14.189  14.059  13.338
 9610SOL     OW30668   7.407   9.548   3.146
 9610SOL    HW130669   7.333   9.494   3.171
 9610SOL    HW230670   7.482   9.488   3.145
 9611SOL     OW30671   8.113  14.486   5.550
 9611SOL    HW130672   8.061  14.550   5.599
 9611SOL    HW230673   8.119  14.522   5.461
 9612SOL     OW30674   6.369   4.830   4.210
 9612SOL    HW130675   6.372   4.735   4.209
 9612SOL    HW230676   6.382   4.856   4.118
 9613SOL     OW30677   3.771   3.057  14.721
 9613SOL    HW130678   3.802   3.062  14.811
 9613SOL    HW230679   3.848   3.033  14.670
 9614SOL     OW30680   4.819   3.149  10.654
 9614SOL    HW130681   4.804   3.238  10.621
 9614SOL    HW230682   4.834   3.161  10.748
 9615SOL     OW30683   4.705   4.033  10.076
 9615SOL    HW130684   4.745   4.088  10.143
 9615SOL    HW230685   4.715   4.084   9.995
 9616SOL     OW30686  14.717   4.276   6.085
 9616SOL    HW130687  14.686   4.355   6.041
 9616SOL    HW230688  14.793   4.248   6.034
 9617SOL     OW30689  13.182  10.309   9.906
 9617SOL    HW130690  13.217  10.337   9.990
 9617SOL    HW230691  13.090  10.290   9.923
 9618SOL     OW30692   4.102   0.079   6.510
 9618SOL    HW130693   4.115   0.054   6.602
 9618SOL    HW230694   4.073  14.880   6.467
 9619SOL     OW30695   1.588   9.539  12.395
 9619SOL    HW130696   1.632   9.554  12.479
 9619SOL    HW230697   1.545   9.454  12.406
 9620SOL     OW30698   1.441   0.710   6.579
 9620SOL    HW130699   1.426   0.646   6.509
 9620SOL    HW230700   1.364   0.702   6.635
 9621SOL     OW30701  12.116  11.309   6.198
 9621SOL    HW130702  12.114  11.250   6.123
 9621SOL    HW230703  12.174  11.266   6.261
 9622SOL     OW30704  13.195   5.564   0.834
 9622SOL    HW130705  13.144   5.641   0.807
 9622SOL    HW230706  13.144   5.526   0.906
 9623SOL     OW30707   4.560   6.904  11.032
 9623SOL    HW130708   4.575   6.811  11.048
 9623SOL    HW230709   4.578   6.915  10.938
 9624SOL     OW30710   1.377   4.401   3.513
 9624SOL    HW130711   1.339   4.435   3.432
 9624SOL    HW230712   1.302   4.367   3.562
 9625SOL     OW30713  10.490  12.516  11.248
 9625SOL    HW130714  10.396  12.526  11.264
 9625SOL    HW230715  10.514  12.437  11.297
 9626SOL     OW30716  11.737  13.411   5.910
 9626SOL    HW130717  11.718  13.334   5.964
 9626SOL    HW230718  11.751  13.482   5.973
 9627SOL     OW30719  11.995   7.102  11.726
 9627SOL    HW130720  11.973   7.068  11.639
 9627SOL    HW230721  11.988   7.197  11.718
 9628SOL     OW30722  10.529  12.111  14.344
 9628SOL    HW130723  10.597  12.054  14.307
 9628SOL    HW230724  10.463  12.051  14.377
 9629SOL     OW30725   5.894   7.540   2.665
 9629SOL    HW130726   5.874   7.488   2.587
 9629SOL    HW230727   5.895   7.476   2.737
 9630SOL     OW30728   2.599   7.882  10.239
 9630SOL    HW130729   2.632   7.969  10.213
 9630SOL    HW230730   2.655   7.821  10.191
 9631SOL     OW30731   7.396   7.429  11.910
 9631SOL    HW130732   7.464   7.363  11.925
 9631SOL    HW230733   7.417   7.499  11.971
 9632SOL     OW30734   0.700   2.510  11.744
 9632SOL    HW130735   0.669   2.453  11.814
 9632SOL    HW230736   0.795   2.506  11.750
 9633SOL     OW30737   6.336  11.439  10.435
 9633SOL    HW130738   6.424  11.453  10.470
 9633SOL    HW230739   6.296  11.377  10.495
 9634SOL     OW30740   3.735   5.194   0.399
 9634SOL    HW130741   3.749   5.139   0.322
 9634SOL    HW230742   3.692   5.273   0.365
 9635SOL     OW30743   4.326   4.078  14.349
 9635SOL    HW130744   4.364   4.100  14.264
 9635SOL    HW230745   4.238   4.045  14.329
 9636SOL     OW30746   1.033   8.682  13.921
 9636SOL    HW130747   1.006   8.595  13.947
 9636SOL    HW230748   1.013   8.687  13.827
 9637SOL     OW30749   8.041   8.501   0.979
 9637SOL    HW130750   8.118   8.533   1.025
 9637SOL    HW230751   7.988   8.458   1.046
 9638SOL     OW30752  11.995   5.804   4.554
 9638SOL    HW130753  12.038   5.806   4.640
 9638SOL    HW230754  11.907   5.772   4.573
 9639SOL     OW30755   5.648   6.016   5.384
 9639SOL    HW130756   5.572   5.958   5.382
 9639SOL    HW230757   5.620   6.091   5.435
 9640SOL     OW30758   2.795   8.120  10.881
 9640SOL    HW130759   2.750   8.051  10.833
 9640SOL    HW230760   2.770   8.201  10.836
 9641SOL     OW30761   2.909   1.770   5.106
 9641SOL    HW130762   2.933   1.678   5.116
 9641SOL    HW230763   2.966   1.802   5.036
 9642SOL     OW30764   1.679   5.702   9.153
 9642SOL    HW130765   1.607   5.750   9.192
 9642SOL    HW230766   1.739   5.770   9.122
 9643SOL     OW30767   8.718   5.520   7.681
 9643SOL    HW130768   8.779   5.582   7.642
 9643SOL    HW230769   8.764   5.487   7.758
 9644SOL     OW30770  13.607   2.841   0.047
 9644SOL    HW130771  13.557   2.766   0.016
 9644SOL    HW230772  13.557   2.917   0.017
 9645SOL     OW30773   3.703  11.724   4.749
 9645SOL    HW130774   3.796  11.707   4.738
 9645SOL    HW230775   3.677  11.773   4.670
 9646SOL     OW30776   8.492  11.576   2.198
 9646SOL    HW130777   8.581  11.586   2.165
 9646SOL    HW230778   8.503  11.560   2.292
 9647SOL     OW30779   3.350  13.947   8.884
 9647SOL    HW130780   3.390  13.988   8.961
 9647SOL    HW230781   3.258  13.936   8.908
 9648SOL     OW30782  11.238  11.765   6.885
 9648SOL    HW130783  11.222  11.740   6.976
 9648SOL    HW230784  11.331  11.789   6.883
 9649SOL     OW30785   7.796   4.585  13.571
 9649SOL    HW130786   7.867   4.641  13.539
 9649SOL    HW230787   7.754   4.636  13.640
 9650SOL     OW30788   2.789  11.539   1.013
 9650SOL    HW130789   2.796  11.473   1.081
 9650SOL    HW230790   2.730  11.605   1.049
 9651SOL     OW30791   0.163   9.611   6.832
 9651SOL    HW130792   0.115   9.543   6.786
 9651SOL    HW230793   0.165   9.582   6.923
 9652SOL     OW30794   1.237   1.849  13.681
 9652SOL    HW130795   1.186   1.929  13.695
 9652SOL    HW230796   1.211   1.819  13.594
 9653SOL     OW30797  13.200   6.735   6.500
 9653SOL    HW130798  13.250   6.681   6.440
 9653SOL    HW230799  13.250   6.816   6.507
 9654SOL     OW30800  12.526   4.840   6.345
 9654SOL    HW130801  12.560   4.791   6.420
 9654SOL    HW230802  12.450   4.886   6.380
 9655SOL     OW30803   2.717   7.942  10.509
 9655SOL    HW130804   2.675   7.906  10.431
 9655SOL    HW230805   2.795   7.888  10.523
 9656SOL     OW30806   6.893   6.438  13.658
 9656SOL    HW130807   6.952   6.415  13.586
 9656SOL    HW230808   6.818   6.479  13.615
 9657SOL     OW30809   9.159  10.457   5.568
 9657SOL    HW130810   9.244  10.495   5.546
 9657SOL    HW230811   9.149  10.472   5.662
 9658SOL     OW30812  10.388  14.353   8.916
 9658SOL    HW130813  10.331  14.390   8.848
 9658SOL    HW230814  10.329  14.300   8.969
 9659SOL     OW30815   7.767  11.600  12.667
 9659SOL    HW130816   7.818  11.543  12.609
 9659SOL    HW230817   7.832  11.656  12.709
 9660SOL     OW30818   7.109  11.450  14.750
 9660SOL    HW130819   7.064  11.407  14.677
 9660SOL    HW230820   7.074  11.408  14.828
 9661SOL     OW30821  13.296   6.413  13.454
 9661SOL    HW130822  13.347   6.375  13.382
 9661SOL    HW230823  13.360   6.426  13.524
 9662SOL     OW30824   5.905   4.410   8.202
 9662SOL    HW130825   5.959   4.331   8.207
 9662SOL    HW230826   5.838   4.398   8.268
 9663SOL     OW30827   8.843   7.413   1.654
 9663SOL    HW130828   8.834   7.320   1.631
 9663SOL    HW230829   8.793   7.422   1.735
 9664SOL     OW30830  14.151   1.470   0.007
 9664SOL    HW130831  14.225   1.531   0.016
 9664SOL    HW230832  14.076   1.526  14.869
 9665SOL     OW30833  13.631   9.928  10.822
 9665SOL    HW130834  13.573   9.908  10.748
 9665SOL    HW230835  13.675   9.845  10.841
 9666SOL     OW30836   3.953   8.750   9.234
 9666SOL    HW130837   3.923   8.690   9.165
 9666SOL    HW230838   3.875   8.770   9.285
 9667SOL     OW30839   4.744   8.042  13.030
 9667SOL    HW130840   4.783   8.128  13.046
 9667SOL    HW230841   4.740   8.001  13.116
 9668SOL     OW30842   7.282  11.551   8.557
 9668SOL    HW130843   7.255  11.591   8.475
 9668SOL    HW230844   7.205  11.558   8.614
 9669SOL     OW30845  10.741   1.805  11.876
 9669SOL    HW130846  10.692   1.734  11.919
 9669SOL    HW230847  10.687   1.828  11.800
 9670SOL     OW30848  11.846  10.173  14.502
 9670SOL    HW130849  11.752  10.182  14.486
 9670SOL    HW230850  11.878  10.263  14.505
 9671SOL     OW30851   9.935  13.686   2.251
 9671SOL    HW130852  10.017  13.734   2.239
 9671SOL    HW230853   9.939  13.652   2.340
 9672SOL     OW30854   4.419   8.689   2.003
 9672SOL    HW130855   4.376   8.771   2.027
 9672SOL    HW230856   4.348   8.631   1.979
 9673SOL     OW30857  14.127   9.597  13.233
 9673SOL    HW130858  14.064   9.654  13.277
 9673SOL    HW230859  14.208   9.649  13.231
 9674SOL     OW30860   6.622  13.494   5.267
 9674SOL    HW130861   6.547  13.525   5.319
 9674SOL    HW230862   6.670  13.437   5.327
 9675SOL     OW30863  14.640  13.611   8.943
 9675SOL    HW130864  14.578  13.658   8.998
 9675SOL    HW230865  14.725  13.649   8.965
 9676SOL     OW30866  14.595   4.353   7.806
 9676SOL    HW130867  14.574   4.310   7.889
 9676SOL    HW230868  14.666   4.413   7.828
 9677SOL     OW30869   0.857  14.110   4.955
 9677SOL    HW130870   0.825  14.200   4.963
 9677SOL    HW230871   0.779  14.056   4.970
 9678SOL     OW30872   0.039   4.263   4.781
 9678SOL    HW130873   0.113   4.293   4.834
 9678SOL    HW230874   0.078   4.207   4.715
 9679SOL     OW30875   8.127  11.843   6.943
 9679SOL    HW130876   8.173  11.896   6.879
 9679SOL    HW230877   8.162  11.754   6.931
 9680SOL     OW30878   4.976  11.611   1.039
 9680SOL    HW130879   5.021  11.621   1.122
 9680SOL    HW230880   4.981  11.517   1.020
 9681SOL     OW30881   7.420  10.794   0.649
 9681SOL    HW130882   7.431  10.713   0.699
 9681SOL    HW230883   7.452  10.863   0.706
 9682SOL     OW30884   4.895   1.886  14.762
 9682SOL    HW130885   4.955   1.875  14.688
 9682SOL    HW230886   4.814   1.843  14.733
 9683SOL     OW30887  13.489  10.304   3.119
 9683SOL    HW130888  13.398  10.289   3.143
 9683SOL    HW230889  13.526  10.217   3.109
 9684SOL     OW30890   6.660  11.909   9.049
 9684SOL    HW130891   6.604  11.854   8.994
 9684SOL    HW230892   6.701  11.847   9.110
 9685SOL     OW30893   7.946   4.848   0.304
 9685SOL    HW130894   7.976   4.758   0.315
 9685SOL    HW230895   7.881   4.843   0.233
 9686SOL     OW30896   0.822  11.632   2.570
 9686SOL    HW130897   0.734  11.643   2.536
 9686SOL    HW230898   0.878  11.625   2.493
 9687SOL     OW30899   5.640   2.172   5.295
 9687SOL    HW130900   5.595   2.194   5.378
 9687SOL    HW230901   5.569   2.165   5.231
 9688SOL     OW30902  11.021   7.480   0.129
 9688SOL    HW130903  10.944   7.494   0.073
 9688SOL    HW230904  10.985   7.472   0.218
 9689SOL     OW30905   5.043   9.653  10.447
 9689SOL    HW130906   4.994   9.733  10.461
 9689SOL    HW230907   4.990   9.602  10.386
 9690SOL     OW30908   0.670   7.591  13.277
 9690SOL    HW130909   0.728   7.534  13.328
 9690SOL    HW230910   0.585   7.584  13.321
 9691SOL     OW30911   3.896  13.422  14.804
 9691SOL    HW130912   3.863  13.460   0.003
 9691SOL    HW230913   3.949  13.347  14.832
 9692SOL     OW30914  10.955   9.523   1.680
 9692SOL    HW130915  10.962   9.444   1.733
 9692SOL    HW230916  11.027   9.578   1.711
 9693SOL     OW30917   7.270  10.364   9.816
 9693SOL    HW130918   7.352  10.363   9.865
 9693SOL    HW230919   7.203  10.379   9.883
 9694SOL     OW30920  10.492  12.457   8.599
 9694SOL    HW130921  10.450  12.395   8.660
 9694SOL    HW230922  10.531  12.401   8.532
 9695SOL     OW30923   7.937   9.322   2.494
 9695SOL    HW130924   7.946   9.245   2.439
 9695SOL    HW230925   7.852   9.312   2.537
 9696SOL     OW30926   3.723   8.320   1.842
 9696SOL    HW130927   3.693   8.355   1.925
 9696SOL    HW230928   3.672   8.368   1.776
 9697SOL     OW30929  10.059   2.468   3.107
 9697SOL    HW130930  10.006   2.512   3.174
 9697SOL    HW230931  10.042   2.517   3.027
 9698SOL     OW30932   8.342  10.926   3.710
 9698SOL    HW130933   8.356  10.880   3.628
 9698SOL    HW230934   8.429  10.938   3.747
 9699SOL     OW30935   5.424   1.988  11.948
 9699SOL    HW130936   5.359   1.957  12.012
 9699SOL    HW230937   5.374   2.002  11.868
 9700SOL     OW30938  12.814   8.120  11.996
 9700SOL    HW130939  12.775   8.197  12.038
 9700SOL    HW230940  12.842   8.152  11.910
 9701SOL     OW30941   5.600   0.621   5.908
 9701SOL    HW130942   5.689   0.637   5.875
 9701SOL    HW230943   5.545   0.619   5.829
 9702SOL     OW30944  14.598  13.062   3.130
 9702SOL    HW130945  14.655  13.048   3.206
 9702SOL    HW230946  14.555  12.978   3.117
 9703SOL     OW30947   1.700   4.812   7.747
 9703SOL    HW130948   1.635   4.880   7.729
 9703SOL    HW230949   1.684   4.785   7.837
 9704SOL     OW30950   9.017   0.787   2.860
 9704SOL    HW130951   8.954   0.855   2.878
 9704SOL    HW230952   8.987   0.711   2.910
 9705SOL     OW30953  10.880  12.899   0.662
 9705SOL    HW130954  10.932  12.825   0.630
 9705SOL    HW230955  10.871  12.884   0.756
 9706SOL     OW30956   2.161   2.275  11.655
 9706SOL    HW130957   2.150   2.353  11.709
 9706SOL    HW230958   2.072   2.248  11.633
 9707SOL     OW30959   8.030  13.928  10.284
 9707SOL    HW130960   7.954  13.983  10.305
 9707SOL    HW230961   8.044  13.875  10.362
 9708SOL     OW30962   5.508   1.066   1.977
 9708SOL    HW130963   5.548   1.149   1.951
 9708SOL    HW230964   5.571   0.999   1.947
 9709SOL     OW30965   3.287   5.546  14.536
 9709SOL    HW130966   3.320   5.500  14.459
 9709SOL    HW230967   3.334   5.508  14.610
 9710SOL     OW30968   6.239   8.404   4.709
 9710SOL    HW130969   6.208   8.490   4.682
 9710SOL    HW230970   6.207   8.394   4.799
 9711SOL     OW30971   5.231  12.719   5.011
 9711SOL    HW130972   5.291  12.644   5.006
 9711SOL    HW230973   5.246  12.768   4.930
 9712SOL     OW30974   9.776  10.200   7.806
 9712SOL    HW130975   9.713  10.153   7.862
 9712SOL    HW230976   9.812  10.268   7.863
 9713SOL     OW30977   4.102  12.210   9.923
 9713SOL    HW130978   4.134  12.291   9.964
 9713SOL    HW230979   4.056  12.165   9.994
 9714SOL     OW30980   6.331  12.939   3.511
 9714SOL    HW130981   6.408  12.986   3.545
 9714SOL    HW230982   6.286  13.004   3.456
 9715SOL     OW30983  11.182   8.757   7.924
 9715SOL    HW130984  11.156   8.842   7.960
 9715SOL    HW230985  11.160   8.695   7.994
 9716SOL     OW30986  14.271  12.247   6.167
 9716SOL    HW130987  14.205  12.312   6.144
 9716SOL    HW230988  14.331  12.247   6.093
 9717SOL     OW30989   2.487   2.833  13.593
 9717SOL    HW130990   2.569   2.816  13.547
 9717SOL    HW230991   2.506   2.812  13.684
 9718SOL     OW30992   4.351   1.302   4.198
 9718SOL    HW130993   4.420   1.367   4.214
 9718SOL    HW230994   4.386   1.247   4.129
 9719SOL     OW30995   6.122  10.620   2.213
 9719SOL    HW130996   6.201  10.669   2.190
 9719SOL    HW230997   6.154  10.531   2.229
 9720SOL     OW30998   6.667  14.422  14.613
 9720SOL    HW130999   6.628  14.339  14.640
 9720SOL    HW231000   6.635  14.486  14.677
 9721SOL     OW31001   1.684   7.738   5.021
 9721SOL    HW131002   1.709   7.646   5.013
 9721SOL    HW231003   1.726   7.781   4.946
 9722SOL     OW31004   0.804   2.580   5.655
 9722SOL    HW131005   0.846   2.598   5.739
 9722SOL    HW231006   0.813   2.485   5.644
 9723SOL     OW31007  13.890   4.048   5.686
 9723SOL    HW131008  13.901   4.143   5.691
 9723SOL    HW231009  13.877   4.021   5.776
 9724SOL     OW31010  14.492   7.447  12.298
 9724SOL    HW131011  14.410   7.444  12.348
 9724SOL    HW231012  14.527   7.534  12.315
 9725SOL     OW31013   9.059  10.102   8.679
 9725SOL    HW131014   8.968  10.094   8.651
 9725SOL    HW231015   9.055  10.117   8.773
 9726SOL     OW31016   0.959   4.997   0.175
 9726SOL    HW131017   1.001   5.079   0.149
 9726SOL    HW231018   0.959   4.999   0.270
 9727SOL     OW31019   0.812   4.707   5.385
 9727SOL    HW131020   0.765   4.690   5.466
 9727SOL    HW231021   0.836   4.800   5.390
 9728SOL     OW31022   7.029   3.659   4.863
 9728SOL    HW131023   6.983   3.710   4.796
 9728SOL    HW231024   7.003   3.569   4.847
 9729SOL     OW31025   9.537   0.960   1.204
 9729SOL    HW131026   9.457   1.008   1.178
 9729SOL    HW231027   9.511   0.912   1.282
 9730SOL     OW31028   9.117   2.119   8.293
 9730SOL    HW131029   9.182   2.123   8.223
 9730SOL    HW231030   9.110   2.026   8.315
 9731SOL     OW31031  13.075  11.798   5.354
 9731SOL    HW131032  13.152  11.756   5.314
 9731SOL    HW231033  13.111  11.852   5.424
 9732SOL     OW31034   8.982   5.581   6.640
 9732SOL    HW131035   8.946   5.551   6.556
 9732SOL    HW231036   8.980   5.676   6.634
 9733SOL     OW31037  13.809   5.671   0.166
 9733SOL    HW131038  13.758   5.749   0.147
 9733SOL    HW231039  13.880   5.672   0.102
 9734SOL     OW31040  14.199   5.910  10.983
 9734SOL    HW131041  14.182   5.998  10.949
 9734SOL    HW231042  14.147   5.853  10.926
 9735SOL     OW31043   1.707   5.230  13.742
 9735SOL    HW131044   1.786   5.191  13.778
 9735SOL    HW231045   1.734   5.317  13.714
 9736SOL     OW31046   8.737   8.692  13.872
 9736SOL    HW131047   8.682   8.721  13.945
 9736SOL    HW231048   8.815   8.747  13.877
 9737SOL     OW31049  13.975   6.038  13.424
 9737SOL    HW131050  13.967   6.105  13.356
 9737SOL    HW231051  13.931   6.076  13.500
 9738SOL     OW31052  13.570   4.837  11.057
 9738SOL    HW131053  13.504   4.899  11.087
 9738SOL    HW231054  13.619   4.814  11.136
 9739SOL     OW31055  11.950  13.711   8.431
 9739SOL    HW131056  11.953  13.794   8.480
 9739SOL    HW231057  11.988  13.647   8.491
 9740SOL     OW31058   3.890   9.290   6.272
 9740SOL    HW131059   3.919   9.304   6.182
 9740SOL    HW231060   3.970   9.274   6.321
 9741SOL     OW31061   6.668   6.650  12.925
 9741SOL    HW131062   6.607   6.581  12.951
 9741SOL    HW231063   6.754   6.615  12.947
 9742SOL     OW31064   6.596   1.838   0.782
 9742SOL    HW131065   6.633   1.914   0.737
 9742SOL    HW231066   6.535   1.800   0.719
 9743SOL     OW31067   7.386   4.841   9.361
 9743SOL    HW131068   7.393   4.785   9.438
 9743SOL    HW231069   7.370   4.780   9.289
 9744SOL     OW31070   5.854   5.283   5.860
 9744SOL    HW131071   5.917   5.220   5.893
 9744SOL    HW231072   5.882   5.300   5.770
 9745SOL     OW31073  10.975   3.957  13.385
 9745SOL    HW131074  11.020   4.026  13.434
 9745SOL    HW231075  10.910   3.922  13.445
 9746SOL     OW31076  14.395  13.019  12.426
 9746SOL    HW131077  14.310  13.042  12.464
 9746SOL    HW231078  14.457  13.075  12.472
 9747SOL     OW31079   1.725   5.230   7.420
 9747SOL    HW131080   1.678   5.169   7.476
 9747SOL    HW231081   1.812   5.191   7.410
 9748SOL     OW31082   9.980   8.689   3.418
 9748SOL    HW131083   9.972   8.768   3.472
 9748SOL    HW231084  10.008   8.722   3.332
 9749SOL     OW31085   0.668  12.637   3.259
 9749SOL    HW131086   0.633  12.569   3.317
 9749SOL    HW231087   0.604  12.643   3.188
 9750SOL     OW31088   5.775   3.757   0.211
 9750SOL    HW131089   5.689   3.759   0.170
 9750SOL    HW231090   5.823   3.829   0.170
 9751SOL     OW31091  14.828   0.151  12.707
 9751SOL    HW131092  14.796   0.099  12.634
 9751SOL    HW231093   0.000   0.091  12.759
 9752SOL     OW31094   9.084  10.457  10.868
 9752SOL    HW131095   8.990  10.475  10.873
 9752SOL    HW231096   9.104  10.455  10.775
 9753SOL     OW31097   8.673   4.744  12.531
 9753SOL    HW131098   8.601   4.736  12.593
 9753SOL    HW231099   8.659   4.829  12.488
 9754SOL     OW31100   8.114   5.293  12.957
 9754SOL    HW131101   8.159   5.306  13.040
 9754SOL    HW231102   8.148   5.211  12.923
 9755SOL     OW31103   1.670  13.313   2.987
 9755SOL    HW131104   1.645  13.400   3.017
 9755SOL    HW231105   1.743  13.288   3.044
 9756SOL     OW31106   6.949  11.233   2.814
 9756SOL    HW131107   6.870  11.211   2.863
 9756SOL    HW231108   6.953  11.329   2.819
 9757SOL     OW31109   4.844   3.300   2.729
 9757SOL    HW131110   4.898   3.317   2.652
 9757SOL    HW231111   4.781   3.372   2.730
 9758SOL     OW31112   8.368   5.447  14.753
 9758SOL    HW131113   8.371   5.396  14.671
 9758SOL    HW231114   8.398   5.534  14.727
 9759SOL     OW31115  10.842   0.484   6.419
 9759SOL    HW131116  10.895   0.511   6.494
 9759SOL    HW231117  10.871   0.541   6.348
 9760SOL     OW31118   3.991  11.063  14.168
 9760SOL    HW131119   3.895  11.053  14.167
 9760SOL    HW231120   4.018  11.034  14.080
 9761SOL     OW31121   1.326   6.857  11.498
 9761SOL    HW131122   1.311   6.762  11.497
 9761SOL    HW231123   1.420   6.866  11.507
 9762SOL     OW31124  12.361   8.670   7.405
 9762SOL    HW131125  12.306   8.747   7.420
 9762SOL    HW231126  12.346   8.615   7.482
 9763SOL     OW31127   6.691   2.836   9.884
 9763SOL    HW131128   6.622   2.797   9.938
 9763SOL    HW231129   6.645   2.867   9.806
 9764SOL     OW31130  10.650   1.820  11.086
 9764SOL    HW131131  10.644   1.732  11.048
 9764SOL    HW231132  10.720   1.814  11.150
 9765SOL     OW31133  14.294   3.430   3.449
 9765SOL    HW131134  14.276   3.365   3.380
 9765SOL    HW231135  14.362   3.486   3.410
 9766SOL     OW31136   6.350   0.598   9.991
 9766SOL    HW131137   6.320   0.611   9.901
 9766SOL    HW231138   6.347   0.503  10.003
 9767SOL     OW31139   0.630   1.602   1.340
 9767SOL    HW131140   0.553   1.629   1.290
 9767SOL    HW231141   0.677   1.542   1.282
 9768SOL     OW31142   4.797   5.470  14.180
 9768SOL    HW131143   4.891   5.458  14.166
 9768SOL    HW231144   4.755   5.410  14.119
 9769SOL     OW31145   6.290   1.339   9.135
 9769SOL    HW131146   6.270   1.356   9.043
 9769SOL    HW231147   6.383   1.314   9.135
 9770SOL     OW31148  13.181  14.106  10.679
 9770SOL    HW131149  13.105  14.048  10.678
 9770SOL    HW231150  13.223  14.091  10.595
 9771SOL     OW31151  12.153   9.884   3.413
 9771SOL    HW131152  12.098   9.910   3.339
 9771SOL    HW231153  12.094   9.886   3.489
 9772SOL     OW31154  13.945  11.817   0.437
 9772SOL    HW131155  13.925  11.760   0.363
 9772SOL    HW231156  14.037  11.800   0.457
 9773SOL     OW31157   5.251   2.218   9.577
 9773SOL    HW131158   5.181   2.262   9.626
 9773SOL    HW231159   5.330   2.235   9.627
 9774SOL     OW31160   6.865  10.546  13.694
 9774SOL    HW131161   6.903  10.552  13.606
 9774SOL    HW231162   6.936  10.571  13.753
 9775SOL     OW31163   3.917   5.270  13.784
 9775SOL    HW131164   3.869   5.325  13.844
 9775SOL    HW231165   3.957   5.331  13.722
 9776SOL     OW31166   1.139  14.603   1.053
 9776SOL    HW131167   1.231  14.630   1.061
 9776SOL    HW231168   1.126  14.593   0.958
 9777SOL     OW31169  14.686   5.185  13.812
 9777SOL    HW131170  14.741   5.251  13.855
 9777SOL    HW231171  14.718   5.184  13.721
 9778SOL     OW31172  11.948   0.062   2.414
 9778SOL    HW131173  11.971   0.083   2.323
 9778SOL    HW231174  11.925   0.146   2.453
 9779SOL     OW31175   6.291   2.997  11.434
 9779SOL    HW131176   6.229   2.928  11.409
 9779SOL    HW231177   6.243   3.078  11.419
 9780SOL     OW31178   1.714   2.953  11.233
 9780SOL    HW131179   1.680   3.020  11.292
 9780SOL    HW231180   1.805   2.977  11.219
 9781SOL     OW31181   8.255  14.049   2.049
 9781SOL    HW131182   8.329  14.107   2.033
 9781SOL    HW231183   8.182  14.108   2.067
 9782SOL     OW31184   0.567   2.263   7.831
 9782SOL    HW131185   0.529   2.286   7.915
 9782SOL    HW231186   0.628   2.192   7.851
 9783SOL     OW31187  11.847   2.254   7.148
 9783SOL    HW131188  11.809   2.210   7.224
 9783SOL    HW231189  11.789   2.232   7.075
 9784SOL     OW31190   9.055   6.103   7.505
 9784SOL    HW131191   9.128   6.140   7.555
 9784SOL    HW231192   8.999   6.178   7.486
 9785SOL     OW31193  10.305   5.051   8.168
 9785SOL    HW131194  10.320   5.132   8.216
 9785SOL    HW231195  10.378   5.044   8.107
 9786SOL     OW31196   7.285   8.587  14.198
 9786SOL    HW131197   7.294   8.672  14.155
 9786SOL    HW231198   7.192   8.580  14.219
 9787SOL     OW31199   1.772  11.215   9.027
 9787SOL    HW131200   1.737  11.281   9.087
 9787SOL    HW231201   1.867  11.214   9.044
 9788SOL     OW31202   4.657   5.583   9.589
 9788SOL    HW131203   4.633   5.613   9.501
 9788SOL    HW231204   4.634   5.656   9.647
 9789SOL     OW31205   9.189   6.682   4.613
 9789SOL    HW131206   9.242   6.605   4.630
 9789SOL    HW231207   9.138   6.695   4.693
 9790SOL     OW31208   5.589  14.321  10.044
 9790SOL    HW131209   5.559  14.321   9.954
 9790SOL    HW231210   5.641  14.401  10.053
 9791SOL     OW31211   1.009   6.312  14.822
 9791SOL    HW131212   0.966   6.378  14.877
 9791SOL    HW231213   0.942   6.286  14.759
 9792SOL     OW31214   7.736   6.510  10.310
 9792SOL    HW131215   7.802   6.482  10.373
 9792SOL    HW231216   7.691   6.583  10.354
 9793SOL     OW31217   4.588   3.702   6.940
 9793SOL    HW131218   4.554   3.644   6.872
 9793SOL    HW231219   4.565   3.790   6.910
 9794SOL     OW31220   6.611   4.887  13.873
 9794SOL    HW131221   6.610   4.982  13.880
 9794SOL    HW231222   6.625   4.870  13.780
 9795SOL     OW31223  14.567   8.693   9.597
 9795SOL    HW131224  14.599   8.782   9.583
 9795SOL    HW231225  14.624   8.638   9.543
 9796SOL     OW31226   6.171  13.155   0.387
 9796SOL    HW131227   6.136  13.240   0.358
 9796SOL    HW231228   6.238  13.177   0.451
 9797SOL     OW31229   8.692   8.073  10.285
 9797SOL    HW131230   8.680   7.981  10.258
 9797SOL    HW231231   8.652   8.078  10.372
 9798SOL     OW31232  11.337  11.998   8.535
 9798SOL    HW131233  11.285  11.937   8.483
 9798SOL    HW231234  11.280  12.024   8.607
 9799SOL     OW31235   0.034   9.455   9.836
 9799SOL    HW131236  14.831   9.417   9.814
 9799SOL    HW231237   0.097   9.404   9.784
 9800SOL     OW31238   0.258  13.943   3.465
 9800SOL    HW131239   0.252  13.994   3.384
 9800SOL    HW231240   0.282  14.007   3.532
 9801SOL     OW31241  12.316   4.928   9.247
 9801SOL    HW131242  12.397   4.966   9.213
 9801SOL    HW231243  12.335   4.835   9.256
 9802SOL     OW31244   1.557   7.118   1.403
 9802SOL    HW131245   1.606   7.087   1.479
 9802SOL    HW231246   1.613   7.098   1.328
 9803SOL     OW31247   3.195  11.196   5.103
 9803SOL    HW131248   3.177  11.276   5.054
 9803SOL    HW231249   3.288  11.203   5.126
 9804SOL     OW31250   8.119   0.995   0.047
 9804SOL    HW131251   8.210   0.970   0.029
 9804SOL    HW231252   8.067   0.925   0.006
 9805SOL     OW31253   6.634  12.743  11.638
 9805SOL    HW131254   6.701  12.676  11.622
 9805SOL    HW231255   6.657  12.815  11.580
 9806SOL     OW31256   3.142  13.051   8.542
 9806SOL    HW131257   3.166  13.042   8.634
 9806SOL    HW231258   3.106  12.966   8.518
 9807SOL     OW31259   1.237   9.309  10.001
 9807SOL    HW131260   1.174   9.381  10.006
 9807SOL    HW231261   1.323   9.352   9.996
 9808SOL     OW31262   8.975   6.668  13.812
 9808SOL    HW131263   9.008   6.739  13.868
 9808SOL    HW231264   8.977   6.590  13.867
 9809SOL     OW31265   3.239   3.815   7.879
 9809SOL    HW131266   3.310   3.773   7.830
 9809SOL    HW231267   3.167   3.753   7.875
 9810SOL     OW31268   2.059   2.934  13.845
 9810SOL    HW131269   2.154   2.921  13.843
 9810SOL    HW231270   2.048   3.024  13.876
 9811SOL     OW31271  10.258   2.347   2.738
 9811SOL    HW131272  10.281   2.329   2.829
 9811SOL    HW231273  10.276   2.265   2.692
 9812SOL     OW31274  11.056   4.915   0.472
 9812SOL    HW131275  11.122   4.950   0.532
 9812SOL    HW231276  11.006   4.854   0.525
 9813SOL     OW31277   8.982   0.761   7.267
 9813SOL    HW131278   8.937   0.833   7.224
 9813SOL    HW231279   9.040   0.725   7.200
 9814SOL     OW31280   1.606  10.177   8.541
 9814SOL    HW131281   1.637  10.116   8.475
 9814SOL    HW231282   1.566  10.248   8.490
 9815SOL     OW31283  12.590   0.018  14.550
 9815SOL    HW131284  12.571  14.808  14.566
 9815SOL    HW231285  12.518   0.049  14.496
 9816SOL     OW31286  14.097  14.309  12.748
 9816SOL    HW131287  14.155  14.325  12.823
 9816SOL    HW231288  14.078  14.215  12.752
 9817SOL     OW31289  12.683  12.509  10.493
 9817SOL    HW131290  12.605  12.549  10.456
 9817SOL    HW231291  12.745  12.582  10.502
 9818SOL     OW31292   0.562   9.558  10.094
 9818SOL    HW131293   0.546   9.477  10.141
 9818SOL    HW231294   0.493   9.562  10.028
 9819SOL     OW31295   2.491   4.685  13.996
 9819SOL    HW131296   2.416   4.651  14.044
 9819SOL    HW231297   2.530   4.749  14.055
 9820SOL     OW31298   9.433   5.126   7.949
 9820SOL    HW131299   9.379   5.116   7.870
 9820SOL    HW231300   9.511   5.172   7.919
 9821SOL     OW31301   8.495   6.127   9.758
 9821SOL    HW131302   8.496   6.222   9.772
 9821SOL    HW231303   8.571   6.109   9.704
 9822SOL     OW31304   6.598   7.607   6.870
 9822SOL    HW131305   6.549   7.576   6.946
 9822SOL    HW231306   6.654   7.534   6.846
 9823SOL     OW31307  13.408   4.175   7.717
 9823SOL    HW131308  13.343   4.242   7.738
 9823SOL    HW231309  13.357   4.095   7.703
 9824SOL     OW31310   6.050   8.684   4.761
 9824SOL    HW131311   6.115   8.735   4.810
 9824SOL    HW231312   5.969   8.734   4.769
 9825SOL     OW31313   5.483   7.460   8.474
 9825SOL    HW131314   5.387   7.451   8.478
 9825SOL    HW231315   5.497   7.535   8.416
 9826SOL     OW31316  10.625   5.481   6.062
 9826SOL    HW131317  10.710   5.449   6.033
 9826SOL    HW231318  10.641   5.573   6.086
 9827SOL     OW31319  12.141   7.729  14.578
 9827SOL    HW131320  12.189   7.737  14.496
 9827SOL    HW231321  12.082   7.655  14.564
 9828SOL     OW31322   1.252  14.145  11.992
 9828SOL    HW131323   1.260  14.130  12.086
 9828SOL    HW231324   1.246  14.058  11.954
 9829SOL     OW31325   4.187  13.793   2.243
 9829SOL    HW131326   4.113  13.806   2.303
 9829SOL    HW231327   4.174  13.857   2.174
 9830SOL     OW31328   5.079   9.465   0.731
 9830SOL    HW131329   5.142   9.527   0.695
 9830SOL    HW231330   5.132   9.398   0.775
 9831SOL     OW31331   0.212   1.920  11.419
 9831SOL    HW131332   0.210   1.829  11.388
 9831SOL    HW231333   0.153   1.920  11.495
 9832SOL     OW31334   4.580  14.719   7.990
 9832SOL    HW131335   4.647  14.652   7.981
 9832SOL    HW231336   4.624  14.791   8.036
 9833SOL     OW31337  10.113   4.795   7.897
 9833SOL    HW131338  10.168   4.746   7.958
 9833SOL    HW231339  10.164   4.873   7.876
 9834SOL     OW31340  12.991  13.595  13.649
 9834SOL    HW131341  13.049  13.568  13.577
 9834SOL    HW231342  12.962  13.683  13.624
 9835SOL     OW31343  11.170  10.846   1.528
 9835SOL    HW131344  11.162  10.751   1.526
 9835SOL    HW231345  11.238  10.864   1.593
 9836SOL     OW31346   6.109   8.548   5.001
 9836SOL    HW131347   6.096   8.599   4.921
 9836SOL    HW231348   6.169   8.601   5.053
 9837SOL     OW31349  11.375   0.092  11.971
 9837SOL    HW131350  11.442   0.150  12.008
 9837SOL    HW231351  11.319   0.150  11.920
 9838SOL     OW31352  10.991   0.742   5.847
 9838SOL    HW131353  10.912   0.689   5.857
 9838SOL    HW231354  11.049   0.712   5.916
 9839SOL     OW31355   0.621   1.605   9.819
 9839SOL    HW131356   0.581   1.608   9.906
 9839SOL    HW231357   0.713   1.623   9.834
 9840SOL     OW31358   4.068   7.542   3.346
 9840SOL    HW131359   3.997   7.590   3.389
 9840SOL    HW231360   4.083   7.466   3.403
 9841SOL     OW31361   5.622   9.215   9.771
 9841SOL    HW131362   5.590   9.224   9.860
 9841SOL    HW231363   5.574   9.140   9.735
 9842SOL     OW31364  14.245  12.679  13.529
 9842SOL    HW131365  14.279  12.677  13.618
 9842SOL    HW231366  14.151  12.664  13.539
 9843SOL     OW31367   3.298   0.950   0.346
 9843SOL    HW131368   3.296   0.900   0.265
 9843SOL    HW231369   3.251   1.031   0.326
 9844SOL     OW31370   1.168   7.178  14.554
 9844SOL    HW131371   1.182   7.171  14.460
 9844SOL    HW231372   1.246   7.138  14.593
 9845SOL     OW31373   2.086   9.324  13.945
 9845SOL    HW131374   2.106   9.392  13.881
 9845SOL    HW231375   2.095   9.368  14.030
 9846SOL     OW31376   2.513  13.767   8.632
 9846SOL    HW131377   2.463  13.813   8.699
 9846SOL    HW231378   2.507  13.823   8.554
 9847SOL     OW31379   9.244   8.423   2.581
 9847SOL    HW131380   9.262   8.333   2.607
 9847SOL    HW231381   9.177   8.453   2.641
 9848SOL     OW31382   5.347  14.505  11.538
 9848SOL    HW131383   5.380  14.498  11.628
 9848SOL    HW231384   5.271  14.448  11.536
 9849SOL     OW31385   6.206  14.459  10.558
 9849SOL    HW131386   6.239  14.371  10.573
 9849SOL    HW231387   6.274  14.517  10.593
 9850SOL     OW31388   1.255   8.243   6.489
 9850SOL    HW131389   1.213   8.240   6.575
 9850SOL    HW231390   1.237   8.157   6.451
 9851SOL     OW31391   2.172   6.853  11.618
 9851SOL    HW131392   2.260   6.825  11.593
 9851SOL    HW231393   2.187   6.907  11.697
 9852SOL     OW31394   6.131   2.740   7.276
 9852SOL    HW131395   6.148   2.833   7.294
 9852SOL    HW231396   6.165   2.727   7.188
 9853SOL     OW31397   0.556  13.690   3.324
 9853SOL    HW131398   0.649  13.672   3.334
 9853SOL    HW231399   0.525  13.625   3.262
 9854SOL     OW31400  10.045   7.647  12.201
 9854SOL    HW131401   9.982   7.582  12.233
 9854SOL    HW231402  10.036   7.644  12.106
 9855SOL     OW31403   3.813  10.638   0.708
 9855SOL    HW131404   3.778  10.726   0.693
 9855SOL    HW231405   3.736  10.584   0.723
 9856SOL     OW31406   0.926   0.896   9.254
 9856SOL    HW131407   0.857   0.961   9.270
 9856SOL    HW231408   0.952   0.867   9.342
 9857SOL     OW31409   2.874   6.691   1.869
 9857SOL    HW131410   2.943   6.703   1.934
 9857SOL    HW231411   2.824   6.773   1.872
 9858SOL     OW31412   6.873   1.558   4.361
 9858SOL    HW131413   6.830   1.555   4.275
 9858SOL    HW231414   6.906   1.470   4.375
 9859SOL     OW31415  11.016   7.421  10.690
 9859SOL    HW131416  11.076   7.346  10.694
 9859SOL    HW231417  10.941   7.394  10.742
 9860SOL     OW31418  13.472  12.494  10.263
 9860SOL    HW131419  13.511  12.575  10.298
 9860SOL    HW231420  13.378  12.504  10.281
 9861SOL     OW31421   1.108   2.643   5.577
 9861SOL    HW131422   1.015   2.663   5.567
 9861SOL    HW231423   1.110   2.552   5.606
 9862SOL     OW31424  11.610  14.281   2.869
 9862SOL    HW131425  11.692  14.285   2.820
 9862SOL    HW231426  11.634  14.240   2.952
 9863SOL     OW31427   7.193   0.723   3.881
 9863SOL    HW131428   7.132   0.770   3.939
 9863SOL    HW231429   7.280   0.744   3.915
 9864SOL     OW31430   2.575  11.603  13.378
 9864SOL    HW131431   2.515  11.549  13.327
 9864SOL    HW231432   2.643  11.628  13.316
 9865SOL     OW31433  10.870   9.050   5.134
 9865SOL    HW131434  10.787   9.029   5.091
 9865SOL    HW231435  10.867   9.003   5.217
 9866SOL     OW31436   4.373  13.076   7.824
 9866SOL    HW131437   4.321  13.146   7.786
 9866SOL    HW231438   4.316  13.035   7.889
 9867SOL     OW31439   1.191   6.349   5.357
 9867SOL    HW131440   1.188   6.387   5.270
 9867SOL    HW231441   1.275   6.377   5.393
 9868SOL     OW31442   3.173   6.998  13.044
 9868SOL    HW131443   3.098   7.007  12.985
 9868SOL    HW231444   3.246   6.978  12.986
 9869SOL     OW31445   6.190   7.111   6.157
 9869SOL    HW131446   6.165   7.079   6.243
 9869SOL    HW231447   6.284   7.131   6.164
 9870SOL     OW31448   0.433   9.352  11.261
 9870SOL    HW131449   0.504   9.287  11.256
 9870SOL    HW231450   0.456   9.407  11.336
 9871SOL     OW31451  12.518   2.867   7.209
 9871SOL    HW131452  12.603   2.896   7.243
 9871SOL    HW231453  12.518   2.897   7.118
 9872SOL     OW31454  10.667   7.154   3.069
 9872SOL    HW131455  10.596   7.098   3.101
 9872SOL    HW231456  10.627   7.240   3.058
 9873SOL     OW31457  14.328   2.974   0.854
 9873SOL    HW131458  14.424   2.968   0.850
 9873SOL    HW231459  14.303   3.010   0.769
 9874SOL     OW31460  13.536   8.632   0.062
 9874SOL    HW131461  13.593   8.628  14.867
 9874SOL    HW231462  13.556   8.552   0.111
 9875SOL     OW31463  13.544   1.747   0.245
 9875SOL    HW131464  13.601   1.747   0.168
 9875SOL    HW231465  13.456   1.759   0.210
 9876SOL     OW31466   5.701   5.510  12.454
 9876SOL    HW131467   5.629   5.447  12.454
 9876SOL    HW231468   5.687   5.561  12.375
 9877SOL     OW31469   8.643   4.228   9.577
 9877SOL    HW131470   8.607   4.140   9.588
 9877SOL    HW231471   8.675   4.230   9.487
 9878SOL     OW31472   3.719   1.806   3.936
 9878SOL    HW131473   3.699   1.833   3.846
 9878SOL    HW231474   3.809   1.835   3.950
 9879SOL     OW31475   2.036  10.607  13.499
 9879SOL    HW131476   1.972  10.537  13.490
 9879SOL    HW231477   2.068  10.598  13.589
 9880SOL     OW31478   8.331  14.210  12.287
 9880SOL    HW131479   8.315  14.124  12.249
 9880SOL    HW231480   8.251  14.230  12.335
 9881SOL     OW31481   8.697   7.955   3.416
 9881SOL    HW131482   8.770   7.980   3.359
 9881SOL    HW231483   8.652   8.038   3.435
 9882SOL     OW31484   6.079   2.107   9.123
 9882SOL    HW131485   6.072   2.138   9.033
 9882SOL    HW231486   6.102   2.014   9.116
 9883SOL     OW31487   1.956   1.812  13.582
 9883SOL    HW131488   1.998   1.891  13.546
 9883SOL    HW231489   1.884   1.846  13.634
 9884SOL     OW31490   9.815   6.856   1.715
 9884SOL    HW131491   9.809   6.796   1.640
 9884SOL    HW231492   9.880   6.920   1.689
 9885SOL     OW31493   5.050   7.275   4.845
 9885SOL    HW131494   5.053   7.258   4.940
 9885SOL    HW231495   5.023   7.366   4.839
 9886SOL     OW31496  14.231   5.474   2.343
 9886SOL    HW131497  14.256   5.501   2.431
 9886SOL    HW231498  14.137   5.490   2.338
 9887SOL     OW31499  10.115  13.622  14.761
 9887SOL    HW131500  10.112  13.682  14.687
 9887SOL    HW231501  10.134  13.537  14.722
 9888SOL     OW31502  14.023   3.808   7.151
 9888SOL    HW131503  13.954   3.752   7.117
 9888SOL    HW231504  14.094   3.801   7.088
 9889SOL     OW31505  12.185   6.850   7.801
 9889SOL    HW131506  12.274   6.848   7.767
 9889SOL    HW231507  12.188   6.797   7.880
 9890SOL     OW31508  14.572   3.664  11.994
 9890SOL    HW131509  14.505   3.724  12.027
 9890SOL    HW231510  14.524   3.582  11.976
 9891SOL     OW31511   9.894   7.445   7.668
 9891SOL    HW131512   9.928   7.437   7.757
 9891SOL    HW231513   9.962   7.408   7.613
 9892SOL     OW31514   3.982   6.415   0.013
 9892SOL    HW131515   3.949   6.342  14.843
 9892SOL    HW231516   4.077   6.413  14.881
 9893SOL     OW31517  14.594   3.233  14.639
 9893SOL    HW131518  14.534   3.305  14.619
 9893SOL    HW231519  14.618   3.246  14.731
 9894SOL     OW31520  14.740  14.445  11.414
 9894SOL    HW131521  14.701  14.414  11.495
 9894SOL    HW231522  14.825  14.401  11.409
 9895SOL     OW31523   9.750   9.440   9.718
 9895SOL    HW131524   9.815   9.493   9.766
 9895SOL    HW231525   9.685   9.503   9.687
 9896SOL     OW31526   0.281   5.731   6.568
 9896SOL    HW131527   0.224   5.803   6.541
 9896SOL    HW231528   0.317   5.759   6.653
 9897SOL     OW31529   4.855  13.334   8.327
 9897SOL    HW131530   4.763  13.358   8.315
 9897SOL    HW231531   4.878  13.371   8.413
 9898SOL     OW31532  13.350  10.000   5.276
 9898SOL    HW131533  13.278  10.049   5.316
 9898SOL    HW231534  13.411  10.067   5.246
 9899SOL     OW31535   3.720   0.498   6.729
 9899SOL    HW131536   3.720   0.402   6.727
 9899SOL    HW231537   3.803   0.522   6.769
 9900SOL     OW31538  12.369  12.681  11.255
 9900SOL    HW131539  12.384  12.756  11.197
 9900SOL    HW231540  12.449  12.629  11.249
 9901SOL     OW31541  10.598   9.101   4.052
 9901SOL    HW131542  10.614   9.050   4.132
 9901SOL    HW231543  10.530   9.053   4.006
 9902SOL     OW31544   6.184   4.322   1.420
 9902SOL    HW131545   6.200   4.246   1.365
 9902SOL    HW231546   6.253   4.384   1.397
 9903SOL     OW31547  14.049  14.192   5.033
 9903SOL    HW131548  14.038  14.171   4.940
 9903SOL    HW231549  14.129  14.145   5.059
 9904SOL     OW31550   5.210   2.600   2.752
 9904SOL    HW131551   5.295   2.634   2.725
 9904SOL    HW231552   5.216   2.505   2.737
 9905SOL     OW31553   7.793   5.952  10.750
 9905SOL    HW131554   7.720   5.923  10.804
 9905SOL    HW231555   7.813   5.878  10.693
 9906SOL     OW31556   3.168   2.423   1.974
 9906SOL    HW131557   3.210   2.467   1.901
 9906SOL    HW231558   3.074   2.434   1.958
 9907SOL     OW31559   3.854   7.671   3.720
 9907SOL    HW131560   3.778   7.669   3.778
 9907SOL    HW231561   3.928   7.645   3.775
 9908SOL     OW31562   2.215   3.944  12.996
 9908SOL    HW131563   2.226   4.017  13.057
 9908SOL    HW231564   2.259   3.871  13.039
 9909SOL     OW31565   5.968   6.457   1.446
 9909SOL    HW131566   5.952   6.447   1.352
 9909SOL    HW231567   6.014   6.541   1.454
 9910SOL     OW31568  11.966   1.044   1.550
 9910SOL    HW131569  12.003   1.011   1.468
 9910SOL    HW231570  11.873   1.057   1.531
 9911SOL     OW31571  12.112   8.693  14.091
 9911SOL    HW131572  12.089   8.603  14.069
 9911SOL    HW231573  12.034   8.727  14.136
 9912SOL     OW31574  10.759  10.867   9.191
 9912SOL    HW131575  10.671  10.844   9.221
 9912SOL    HW231576  10.806  10.890   9.271
 9913SOL     OW31577  10.098   4.052   3.255
 9913SOL    HW131578  10.092   4.027   3.347
 9913SOL    HW231579  10.133   3.975   3.211
 9914SOL     OW31580   9.354   2.907   1.999
 9914SOL    HW131581   9.280   2.847   2.008
 9914SOL    HW231582   9.314   2.994   1.989
 9915SOL     OW31583   5.941   7.064   8.206
 9915SOL    HW131584   5.996   7.136   8.237
 9915SOL    HW231585   5.913   7.091   8.119
 9916SOL     OW31586   3.315   2.971   5.952
 9916SOL    HW131587   3.298   3.038   5.886
 9916SOL    HW231588   3.406   2.986   5.979
 9917SOL     OW31589   2.538   2.129   2.365
 9917SOL    HW131590   2.520   2.035   2.364
 9917SOL    HW231591   2.496   2.161   2.445
 9918SOL     OW31592   2.041   4.113   8.591
 9918SOL    HW131593   2.067   4.143   8.504
 9918SOL    HW231594   2.122   4.112   8.642
 9919SOL     OW31595  13.621   7.704  13.862
 9919SOL    HW131596  13.599   7.626  13.811
 9919SOL    HW231597  13.539   7.728  13.906
 9920SOL     OW31598   4.561   0.365   9.143
 9920SOL    HW131599   4.503   0.426   9.099
 9920SOL    HW231600   4.546   0.281   9.100
 9921SOL     OW31601   8.425   7.553  12.677
 9921SOL    HW131602   8.338   7.521  12.702
 9921SOL    HW231603   8.419   7.648  12.687
 9922SOL     OW31604   8.106   8.250   5.829
 9922SOL    HW131605   8.102   8.331   5.778
 9922SOL    HW231606   8.154   8.274   5.909
 9923SOL     OW31607   6.557   4.116  13.357
 9923SOL    HW131608   6.644   4.077  13.354
 9923SOL    HW231609   6.547   4.146  13.447
 9924SOL     OW31610  12.869  14.339   1.014
 9924SOL    HW131611  12.886  14.348   1.108
 9924SOL    HW231612  12.860  14.245   1.001
 9925SOL     OW31613   3.499  14.444   3.702
 9925SOL    HW131614   3.548  14.406   3.775
 9925SOL    HW231615   3.412  14.462   3.737
 9926SOL     OW31616   2.485   3.156   5.075
 9926SOL    HW131617   2.530   3.205   5.144
 9926SOL    HW231618   2.531   3.073   5.071
 9927SOL     OW31619  13.023   1.064   4.920
 9927SOL    HW131620  13.080   1.110   4.982
 9927SOL    HW231621  13.071   1.065   4.838
 9928SOL     OW31622   9.267   8.861  11.963
 9928SOL    HW131623   9.303   8.787  12.012
 9928SOL    HW231624   9.181   8.876  12.002
 9929SOL     OW31625  10.766   2.009  13.426
 9929SOL    HW131626  10.834   2.027  13.491
 9929SOL    HW231627  10.710   1.944  13.468
 9930SOL     OW31628   5.645   8.285  12.360
 9930SOL    HW131629   5.601   8.369  12.351
 9930SOL    HW231630   5.692   8.291  12.444
 9931SOL     OW31631  13.078   9.229   5.494
 9931SOL    HW131632  13.141   9.161   5.521
 9931SOL    HW231633  13.006   9.221   5.556
 9932SOL     OW31634   1.823   6.291   6.448
 9932SOL    HW131635   1.745   6.273   6.500
 9932SOL    HW231636   1.794   6.282   6.357
 9933SOL     OW31637   3.102   2.065   8.794
 9933SOL    HW131638   3.068   1.999   8.733
 9933SOL    HW231639   3.115   2.143   8.740
 9934SOL     OW31640  13.865  14.874  13.171
 9934SOL    HW131641  13.893  14.872  13.080
 9934SOL    HW231642  13.808  14.798  13.180
 9935SOL     OW31643   0.323  13.288   5.241
 9935SOL    HW131644   0.230  13.287   5.263
 9935SOL    HW231645   0.326  13.277   5.146
 9936SOL     OW31646   7.266   8.932  12.635
 9936SOL    HW131647   7.290   8.852  12.588
 9936SOL    HW231648   7.249   8.903  12.725
 9937SOL     OW31649   0.579   8.579  12.765
 9937SOL    HW131650   0.505   8.547  12.817
 9937SOL    HW231651   0.561   8.548  12.676
 9938SOL     OW31652   9.974  14.794   7.116
 9938SOL    HW131653   9.908  14.825   7.178
 9938SOL    HW231654  10.029  14.734   7.167
 9939SOL     OW31655   4.100  11.413   8.122
 9939SOL    HW131656   4.098  11.350   8.194
 9939SOL    HW231657   4.008  11.431   8.103
 9940SOL     OW31658   9.374   0.137   7.306
 9940SOL    HW131659   9.461   0.125   7.267
 9940SOL    HW231660   9.393   0.169   7.394
 9941SOL     OW31661   2.911  12.355   4.561
 9941SOL    HW131662   2.997  12.380   4.595
 9941SOL    HW231663   2.899  12.264   4.589
 9942SOL     OW31664   2.295   0.006   1.199
 9942SOL    HW131665   2.245   0.014   1.280
 9942SOL    HW231666   2.354   0.081   1.199
 9943SOL     OW31667   5.255   1.200   4.409
 9943SOL    HW131668   5.326   1.168   4.465
 9943SOL    HW231669   5.258   1.295   4.417
 9944SOL     OW31670   0.017   3.781  14.393
 9944SOL    HW131671   0.096   3.738  14.360
 9944SOL    HW231672  14.856   3.816  14.315
 9945SOL     OW31673   8.586  10.998  11.328
 9945SOL    HW131674   8.615  10.983  11.238
 9945SOL    HW231675   8.665  10.990  11.381
 9946SOL     OW31676   8.573   9.723   1.869
 9946SOL    HW131677   8.495   9.751   1.822
 9946SOL    HW231678   8.549   9.640   1.910
 9947SOL     OW31679  11.440   8.873  10.732
 9947SOL    HW131680  11.353   8.909  10.746
 9947SOL    HW231681  11.463   8.832  10.816
 9948SOL     OW31682   6.595  11.195   9.687
 9948SOL    HW131683   6.561  11.285   9.684
 9948SOL    HW231684   6.676  11.203   9.739
 9949SOL     OW31685   8.281   6.047   5.567
 9949SOL    HW131686   8.219   6.116   5.591
 9949SOL    HW231687   8.349   6.093   5.517
 9950SOL     OW31688   1.179  10.924  10.092
 9950SOL    HW131689   1.260  10.967  10.118
 9950SOL    HW231690   1.205  10.835  10.069
 9951SOL     OW31691   8.574   8.910   3.614
 9951SOL    HW131692   8.670   8.912   3.610
 9951SOL    HW231693   8.548   8.860   3.536
 9952SOL     OW31694   8.102   9.840   2.839
 9952SOL    HW131695   8.022   9.848   2.892
 9952SOL    HW231696   8.144   9.760   2.871
 9953SOL     OW31697   5.709   4.172   3.699
 9953SOL    HW131698   5.714   4.185   3.793
 9953SOL    HW231699   5.691   4.259   3.663
 9954SOL     OW31700   7.908  12.247   2.335
 9954SOL    HW131701   7.950  12.167   2.304
 9954SOL    HW231702   7.980  12.307   2.351
 9955SOL     OW31703   0.337  13.198  10.965
 9955SOL    HW131704   0.367  13.173  10.878
 9955SOL    HW231705   0.289  13.122  10.997
 9956SOL     OW31706   8.687   1.084   9.105
 9956SOL    HW131707   8.771   1.128   9.118
 9956SOL    HW231708   8.710   0.998   9.071
 9957SOL     OW31709  13.486   5.435   7.432
 9957SOL    HW131710  13.472   5.373   7.504
 9957SOL    HW231711  13.553   5.394   7.377
 9958SOL     OW31712   9.920   3.802   0.929
 9958SOL    HW131713   9.875   3.872   0.976
 9958SOL    HW231714  10.011   3.830   0.927
 9959SOL     OW31715  10.991  13.705   5.789
 9959SOL    HW131716  11.040  13.777   5.751
 9959SOL    HW231717  11.049  13.629   5.781
 9960SOL     OW31718  13.058   3.348   9.048
 9960SOL    HW131719  13.016   3.395   9.120
 9960SOL    HW231720  13.051   3.406   8.973
 9961SOL     OW31721   0.596   2.645   3.297
 9961SOL    HW131722   0.690   2.634   3.306
 9961SOL    HW231723   0.584   2.738   3.281
 9962SOL     OW31724  10.852   0.603   2.394
 9962SOL    HW131725  10.936   0.595   2.348
 9962SOL    HW231726  10.809   0.678   2.352
 9963SOL     OW31727   9.398  10.480   2.428
 9963SOL    HW131728   9.471  10.448   2.375
 9963SOL    HW231729   9.322  10.478   2.369
 9964SOL     OW31730   8.921  11.856   2.278
 9964SOL    HW131731   8.869  11.791   2.231
 9964SOL    HW231732   8.920  11.826   2.369
 9965SOL     OW31733   7.385   5.060   4.974
 9965SOL    HW131734   7.479   5.059   4.991
 9965SOL    HW231735   7.379   5.064   4.878
 9966SOL     OW31736  13.821  11.786   2.048
 9966SOL    HW131737  13.787  11.828   1.969
 9966SOL    HW231738  13.915  11.779   2.033
 9967SOL     OW31739  10.816  11.157   4.677
 9967SOL    HW131740  10.762  11.084   4.708
 9967SOL    HW231741  10.836  11.207   4.757
 9968SOL     OW31742  10.188  14.614   9.799
 9968SOL    HW131743  10.111  14.562   9.778
 9968SOL    HW231744  10.165  14.704   9.776
 9969SOL     OW31745   4.226   4.119   4.908
 9969SOL    HW131746   4.234   4.037   4.957
 9969SOL    HW231747   4.197   4.183   4.973
 9970SOL     OW31748   8.848  11.306   0.156
 9970SOL    HW131749   8.821  11.350   0.236
 9970SOL    HW231750   8.935  11.339   0.138
 9971SOL     OW31751   5.917   4.414  11.534
 9971SOL    HW131752   5.968   4.354  11.479
 9971SOL    HW231753   5.826   4.390  11.518
 9972SOL     OW31754   0.648   3.084   0.576
 9972SOL    HW131755   0.575   3.120   0.626
 9972SOL    HW231756   0.607   3.032   0.507
 9973SOL     OW31757   5.643  10.096   6.007
 9973SOL    HW131758   5.731  10.129   6.026
 9973SOL    HW231759   5.642  10.007   6.042
 9974SOL     OW31760   0.880   6.603  10.874
 9974SOL    HW131761   0.854   6.690  10.842
 9974SOL    HW231762   0.806   6.546  10.853
 9975SOL     OW31763   7.067   2.594   0.894
 9975SOL    HW131764   7.151   2.569   0.855
 9975SOL    HW231765   7.067   2.554   0.981
 9976SOL     OW31766   5.354   9.592   1.297
 9976SOL    HW131767   5.273   9.640   1.281
 9976SOL    HW231768   5.338   9.504   1.263
 9977SOL     OW31769   4.890  13.918   7.408
 9977SOL    HW131770   4.895  14.006   7.446
 9977SOL    HW231771   4.953  13.867   7.458
 9978SOL     OW31772   8.441  12.989  10.358
 9978SOL    HW131773   8.423  12.931  10.285
 9978SOL    HW231774   8.487  12.935  10.422
 9979SOL     OW31775   4.704   6.021   9.210
 9979SOL    HW131776   4.748   6.081   9.149
 9979SOL    HW231777   4.719   5.934   9.173
 9980SOL     OW31778   5.750   9.553  13.397
 9980SOL    HW131779   5.747   9.490  13.326
 9980SOL    HW231780   5.804   9.625  13.364
 9981SOL     OW31781   9.052   9.408   2.566
 9981SOL    HW131782   8.981   9.464   2.598
 9981SOL    HW231783   9.129   9.436   2.616
 9982SOL     OW31784  10.053   2.823   9.675
 9982SOL    HW131785   9.994   2.898   9.685
 9982SOL    HW231786  10.099   2.839   9.592
 9983SOL     OW31787   6.648   5.197  14.493
 9983SOL    HW131788   6.679   5.143  14.420
 9983SOL    HW231789   6.599   5.268  14.452
 9984SOL     OW31790   9.071   4.472   3.525
 9984SOL    HW131791   9.158   4.464   3.487
 9984SOL    HW231792   9.017   4.409   3.476
 9985SOL     OW31793  13.304   5.971   2.046
 9985SOL    HW131794  13.249   5.986   2.123
 9985SOL    HW231795  13.321   6.058   2.011
 9986SOL     OW31796   3.756   7.165  13.729
 9986SOL    HW131797   3.779   7.098  13.665
 9986SOL    HW231798   3.754   7.119  13.813
 9987SOL     OW31799  11.345   7.371   9.885
 9987SOL    HW131800  11.333   7.432   9.813
 9987SOL    HW231801  11.388   7.423   9.953
 9988SOL     OW31802   6.158   5.733   1.788
 9988SOL    HW131803   6.242   5.740   1.833
 9988SOL    HW231804   6.150   5.816   1.740
 9989SOL     OW31805   1.184  11.843   9.511
 9989SOL    HW131806   1.187  11.865   9.605
 9989SOL    HW231807   1.121  11.771   9.505
 9990SOL     OW31808  11.457   3.655  12.162
 9990SOL    HW131809  11.422   3.666  12.073
 9990SOL    HW231810  11.510   3.576  12.157
 9991SOL     OW31811  11.659   7.473   7.807
 9991SOL    HW131812  11.574   7.453   7.768
 9991SOL    HW231813  11.676   7.400   7.867
 9992SOL     OW31814   9.182   3.787  10.032
 9992SOL    HW131815   9.265   3.744  10.012
 9992SOL    HW231816   9.116   3.733   9.987
 9993SOL     OW31817   4.909   4.806   8.582
 9993SOL    HW131818   4.926   4.750   8.658
 9993SOL    HW231819   4.901   4.894   8.618
 9994SOL     OW31820   5.111   5.820   9.415
 9994SOL    HW131821   5.019   5.843   9.429
 9994SOL    HW231822   5.148   5.815   9.503
 9995SOL     OW31823   6.587   6.095   1.274
 9995SOL    HW131824   6.567   6.120   1.184
 9995SOL    HW231825   6.666   6.143   1.296
 9996SOL     OW31826   0.408   2.478   6.927
 9996SOL    HW131827   0.424   2.524   6.845
 9996SOL    HW231828   0.489   2.488   6.977
 9997SOL     OW31829   7.336   8.157   1.601
 9997SOL    HW131830   7.287   8.108   1.667
 9997SOL    HW231831   7.324   8.107   1.520
 9998SOL     OW31832  10.193   7.864   7.029
 9998SOL    HW131833  10.287   7.879   7.031
 9998SOL    HW231834  10.154   7.948   7.053
 9999SOL     OW31835   8.636   3.815   8.937
 9999SOL    HW131836   8.710   3.833   8.995
 9999SOL    HW231837   8.660   3.855   8.854
10000SOL     OW31838   3.661  10.490  13.684
10000SOL    HW131839   3.694  10.400  13.677
10000SOL    HW231840   3.640  10.514  13.594
10001SOL     OW31841  11.721   3.912   0.068
10001SOL    HW131842  11.801   3.956   0.038
10001SOL    HW231843  11.672   3.980   0.114
10002SOL     OW31844  13.174   6.264   4.386
10002SOL    HW131845  13.106   6.296   4.444
10002SOL    HW231846  13.163   6.168   4.387
10003SOL     OW31847   1.358   1.978  11.065
10003SOL    HW131848   1.297   2.041  11.105
10003SOL    HW231849   1.438   1.986  11.117
10004SOL     OW31850   2.970  14.822   8.881
10004SOL    HW131851   2.934  14.784   8.961
10004SOL    HW231852   2.984  14.747   8.823
10005SOL     OW31853   4.734  11.430  12.476
10005SOL    HW131854   4.667  11.381  12.428
10005SOL    HW231855   4.817  11.394  12.445
10006SOL     OW31856   7.919   3.943   8.644
10006SOL    HW131857   7.939   3.850   8.631
10006SOL    HW231858   7.967   3.967   8.723
10007SOL     OW31859   5.616  11.957   0.798
10007SOL    HW131860   5.631  12.008   0.718
10007SOL    HW231861   5.550  12.006   0.847
10008SOL     OW31862   5.136   9.633   7.695
10008SOL    HW131863   5.161   9.688   7.621
10008SOL    HW231864   5.046   9.660   7.715
10009SOL     OW31865   3.510   7.520  12.120
10009SOL    HW131866   3.488   7.490  12.032
10009SOL    HW231867   3.585   7.578  12.108
10010SOL     OW31868   0.711  12.775   6.003
10010SOL    HW131869   0.672  12.767   6.090
10010SOL    HW231870   0.799  12.809   6.020
10011SOL     OW31871   5.666  12.967  14.540
10011SOL    HW131872   5.738  12.941  14.598
10011SOL    HW231873   5.707  12.981  14.455
10012SOL     OW31874   5.065  12.052   2.246
10012SOL    HW131875   5.116  12.055   2.165
10012SOL    HW231876   5.041  12.143   2.262
10013SOL     OW31877  14.502  13.426   4.428
10013SOL    HW131878  14.456  13.347   4.458
10013SOL    HW231879  14.463  13.446   4.343
10014SOL     OW31880   0.951   3.179  10.832
10014SOL    HW131881   0.979   3.099  10.877
10014SOL    HW231882   1.020   3.243  10.851
10015SOL     OW31883   2.779  12.269   6.383
10015SOL    HW131884   2.853  12.329   6.371
10015SOL    HW231885   2.723  12.284   6.306
10016SOL     OW31886  10.419   0.247   0.991
10016SOL    HW131887  10.421   0.263   1.086
10016SOL    HW231888  10.352   0.307   0.958
10017SOL     OW31889   8.300   8.019   2.045
10017SOL    HW131890   8.263   7.944   1.998
10017SOL    HW231891   8.251   8.094   2.011
10018SOL     OW31892  10.926   3.365  13.637
10018SOL    HW131893  10.838   3.342  13.608
10018SOL    HW231894  10.913   3.435  13.701
10019SOL     OW31895  13.641   0.778   4.947
10019SOL    HW131896  13.561   0.780   4.999
10019SOL    HW231897  13.672   0.868   4.948
10020SOL     OW31898  10.018   6.405   7.996
10020SOL    HW131899   9.947   6.351   8.032
10020SOL    HW231900   9.977   6.453   7.924
10021SOL     OW31901   7.966  13.264  12.281
10021SOL    HW131902   7.904  13.194  12.262
10021SOL    HW231903   8.051  13.219  12.286
10022SOL     OW31904   8.992  12.422   7.834
10022SOL    HW131905   8.899  12.400   7.829
10022SOL    HW231906   9.010  12.472   7.754
10023SOL     OW31907  12.407   4.196   8.668
10023SOL    HW131908  12.464   4.246   8.610
10023SOL    HW231909  12.441   4.107   8.665
10024SOL     OW31910   0.272   4.115   4.161
10024SOL    HW131911   0.214   4.120   4.237
10024SOL    HW231912   0.217   4.140   4.087
10025SOL     OW31913  13.717   3.967   7.314
10025SOL    HW131914  13.774   3.961   7.390
10025SOL    HW231915  13.651   3.898   7.326
10026SOL     OW31916   1.411   6.910   8.133
10026SOL    HW131917   1.384   6.905   8.225
10026SOL    HW231918   1.331   6.892   8.084
10027SOL     OW31919  10.395  11.599  11.706
10027SOL    HW131920  10.376  11.691  11.688
10027SOL    HW231921  10.396  11.592  11.801
10028SOL     OW31922  13.863   4.251   6.788
10028SOL    HW131923  13.780   4.206   6.771
10028SOL    HW231924  13.915   4.237   6.709
10029SOL     OW31925   9.296  10.226  13.722
10029SOL    HW131926   9.345  10.154  13.682
10029SOL    HW231927   9.345  10.305  13.699
10030SOL     OW31928   4.407   6.757  13.412
10030SOL    HW131929   4.401   6.824  13.344
10030SOL    HW231930   4.462   6.688  13.374
10031SOL     OW31931   9.146   3.626  11.446
10031SOL    HW131932   9.236   3.595  11.447
10031SOL    HW231933   9.143   3.690  11.375
10032SOL     OW31934  11.056   1.303  12.880
10032SOL    HW131935  11.077   1.211  12.898
10032SOL    HW231936  11.047   1.307  12.784
10033SOL     OW31937  11.827   2.670   2.160
10033SOL    HW131938  11.900   2.609   2.167
10033SOL    HW231939  11.850   2.727   2.087
10034SOL     OW31940  10.937  10.458   2.746
10034SOL    HW131941  10.846  10.459   2.717
10034SOL    HW231942  10.958  10.549   2.766
10035SOL     OW31943   3.012   5.630   5.678
10035SOL    HW131944   2.990   5.549   5.632
10035SOL    HW231945   3.101   5.650   5.648
10036SOL     OW31946  10.036   5.628   1.458
10036SOL    HW131947   9.989   5.711   1.452
10036SOL    HW231948  10.071   5.628   1.547
10037SOL     OW31949  12.560   6.517  14.624
10037SOL    HW131950  12.493   6.497  14.559
10037SOL    HW231951  12.519   6.496  14.708
10038SOL     OW31952   6.084   8.891  10.950
10038SOL    HW131953   6.044   8.805  10.932
10038SOL    HW231954   6.042   8.919  11.031
10039SOL     OW31955  11.949  11.201   5.360
10039SOL    HW131956  11.931  11.294   5.345
10039SOL    HW231957  11.927  11.158   5.277
10040SOL     OW31958   0.047   5.066   1.279
10040SOL    HW131959  14.846   5.060   1.232
10040SOL    HW231960   0.112   5.031   1.218
10041SOL     OW31961   4.541   0.515   7.545
10041SOL    HW131962   4.524   0.436   7.595
10041SOL    HW231963   4.570   0.484   7.460
10042SOL     OW31964   7.576   6.526   4.119
10042SOL    HW131965   7.656   6.497   4.163
10042SOL    HW231966   7.600   6.611   4.081
10043SOL     OW31967   5.924   1.998   2.073
10043SOL    HW131968   5.899   2.057   2.002
10043SOL    HW231969   5.992   2.046   2.121
10044SOL     OW31970   2.956   5.534  12.339
10044SOL    HW131971   2.907   5.590  12.280
10044SOL    HW231972   3.017   5.486  12.283
10045SOL     OW31973   7.039   8.379   1.219
10045SOL    HW131974   6.971   8.312   1.211
10045SOL    HW231975   7.116   8.331   1.247
10046SOL     OW31976   3.696   2.087   0.320
10046SOL    HW131977   3.724   2.075   0.229
10046SOL    HW231978   3.688   1.998   0.355
10047SOL     OW31979   0.596  10.017   9.065
10047SOL    HW131980   0.642   9.943   9.105
10047SOL    HW231981   0.505  10.008   9.095
10048SOL     OW31982   7.000   9.198   0.881
10048SOL    HW131983   6.932   9.164   0.822
10048SOL    HW231984   7.082   9.162   0.846
10049SOL     OW31985  10.049   0.453   1.845
10049SOL    HW131986  10.058   0.548   1.852
10049SOL    HW231987  10.111   0.419   1.910
10050SOL     OW31988   9.793   1.710  10.726
10050SOL    HW131989   9.763   1.798  10.749
10050SOL    HW231990   9.727   1.652  10.764
10051SOL     OW31991   3.497   6.926   9.627
10051SOL    HW131992   3.455   6.986   9.688
10051SOL    HW231993   3.445   6.933   9.547
10052SOL     OW31994  14.301   1.697   1.905
10052SOL    HW131995  14.301   1.748   1.986
10052SOL    HW231996  14.377   1.639   1.914
10053SOL     OW31997   0.211   3.558   4.428
10053SOL    HW131998   0.192   3.469   4.401
10053SOL    HW231999   0.208   3.556   4.524
10054SOL     OW32000   4.301  14.390   4.376
10054SOL    HW132001   4.321  14.482   4.392
10054SOL    HW232002   4.351  14.342   4.442
10055SOL     OW32003   4.384   8.952  12.591
10055SOL    HW132004   4.468   8.919  12.623
10055SOL    HW232005   4.388   9.047  12.608
10056SOL     OW32006   9.407   6.043   7.988
10056SOL    HW132007   9.378   6.061   8.078
10056SOL    HW232008   9.386   6.123   7.940
10057SOL     OW32009   7.549   6.335  11.516
10057SOL    HW132010   7.542   6.240  11.501
10057SOL    HW232011   7.531   6.373  11.430
10058SOL     OW32012   9.604   8.267   7.406
10058SOL    HW132013   9.602   8.275   7.501
10058SOL    HW232014   9.653   8.343   7.376
10059SOL     OW32015  14.801   4.745  11.250
10059SOL    HW132016  14.741   4.742  11.176
10059SOL    HW232017  14.880   4.700  11.219
10060SOL     OW32018   6.489   7.247   1.322
10060SOL    HW132019   6.406   7.276   1.361
10060SOL    HW232020   6.464   7.214   1.235
10061SOL     OW32021   5.624   0.777   1.088
10061SOL    HW132022   5.701   0.830   1.109
10061SOL    HW232023   5.658   0.706   1.033
10062SOL     OW32024  11.793   5.592   4.844
10062SOL    HW132025  11.828   5.681   4.838
10062SOL    HW232026  11.703   5.600   4.813
10063SOL     OW32027   3.650  13.160   1.685
10063SOL    HW132028   3.577  13.161   1.747
10063SOL    HW232029   3.725  13.191   1.735
10064SOL     OW32030   6.086  11.601  14.708
10064SOL    HW132031   6.171  11.589  14.751
10064SOL    HW232032   6.108  11.636  14.622
10065SOL     OW32033   5.860   7.152   5.890
10065SOL    HW132034   5.855   7.194   5.804
10065SOL    HW232035   5.940   7.100   5.887
10066SOL     OW32036   9.837   4.771   3.311
10066SOL    HW132037   9.862   4.858   3.342
10066SOL    HW232038   9.863   4.712   3.382
10067SOL     OW32039  12.030   8.731   2.016
10067SOL    HW132040  12.069   8.736   1.928
10067SOL    HW232041  12.094   8.773   2.073
10068SOL     OW32042   1.054   9.200  10.890
10068SOL    HW132043   1.104   9.125  10.858
10068SOL    HW232044   1.119   9.259  10.927
10069SOL     OW32045   8.920   8.280   3.723
10069SOL    HW132046   8.846   8.339   3.709
10069SOL    HW232047   8.932   8.238   3.638
10070SOL     OW32048   7.972   2.864   5.784
10070SOL    HW132049   7.897   2.814   5.818
10070SOL    HW232050   7.940   2.904   5.703
10071SOL     OW32051   4.322   8.421   6.193
10071SOL    HW132052   4.395   8.365   6.166
10071SOL    HW232053   4.244   8.369   6.177
10072SOL     OW32054  11.252  14.008  10.495
10072SOL    HW132055  11.285  14.095  10.472
10072SOL    HW232056  11.233  14.013  10.589
10073SOL     OW32057  13.233  10.762  10.586
10073SOL    HW132058  13.272  10.845  10.613
10073SOL    HW232059  13.307  10.711  10.553
10074SOL     OW32060  11.177   4.303  14.871
10074SOL    HW132061  11.110   4.352  14.824
10074SOL    HW232062  11.133   4.274   0.069
10075SOL     OW32063   8.666   1.905  13.497
10075SOL    HW132064   8.664   1.810  13.506
10075SOL    HW232065   8.718   1.921  13.419
10076SOL     OW32066  12.820   8.984  14.609
10076SOL    HW132067  12.843   8.927  14.536
10076SOL    HW232068  12.864   9.067  14.590
10077SOL     OW32069   1.917  14.461  10.102
10077SOL    HW132070   1.912  14.405  10.179
10077SOL    HW232071   2.010  14.462  10.079
10078SOL     OW32072   2.210   5.835   2.218
10078SOL    HW132073   2.281   5.790   2.263
10078SOL    HW232074   2.174   5.895   2.282
10079SOL     OW32075   9.161   7.658   8.539
10079SOL    HW132076   9.167   7.752   8.520
10079SOL    HW232077   9.067   7.640   8.541
10080SOL     OW32078   3.490   3.432   5.598
10080SOL    HW132079   3.448   3.518   5.606
10080SOL    HW232080   3.582   3.449   5.618
10081SOL     OW32081   0.093   8.323  12.484
10081SOL    HW132082   0.129   8.238  12.456
10081SOL    HW232083   0.106   8.325  12.579
10082SOL     OW32084  11.232   2.887   9.185
10082SOL    HW132085  11.288   2.957   9.151
10082SOL    HW232086  11.204   2.919   9.271
10083SOL     OW32087   3.237  12.101  13.487
10083SOL    HW132088   3.171  12.142  13.542
10083SOL    HW232089   3.200  12.016  13.464
10084SOL     OW32090  11.380   4.048  14.240
10084SOL    HW132091  11.394   4.125  14.295
10084SOL    HW232092  11.381   4.082  14.151
10085SOL     OW32093  12.941   3.214   5.053
10085SOL    HW132094  12.987   3.156   4.992
10085SOL    HW232095  12.967   3.184   5.140
10086SOL     OW32096   9.304  13.348   1.401
10086SOL    HW132097   9.276  13.413   1.336
10086SOL    HW232098   9.399  13.363   1.409
10087SOL     OW32099   8.522   8.828  11.048
10087SOL    HW132100   8.515   8.923  11.052
10087SOL    HW232101   8.505   8.806  10.956
10088SOL     OW32102   6.846   5.576   9.743
10088SOL    HW132103   6.931   5.617   9.763
10088SOL    HW232104   6.816   5.620   9.664
10089SOL     OW32105   0.528   7.687  11.992
10089SOL    HW132106   0.496   7.606  12.031
10089SOL    HW232107   0.517   7.753  12.061
10090SOL     OW32108  13.445  14.251   0.606
10090SOL    HW132109  13.429  14.250   0.511
10090SOL    HW232110  13.507  14.180   0.620
10091SOL     OW32111   7.236   7.019   8.590
10091SOL    HW132112   7.226   6.953   8.521
10091SOL    HW232113   7.209   6.975   8.670
10092SOL     OW32114   5.747  11.874  14.095
10092SOL    HW132115   5.805  11.798  14.097
10092SOL    HW232116   5.714  11.876  14.005
10093SOL     OW32117   5.776   2.291   2.370
10093SOL    HW132118   5.784   2.204   2.411
10093SOL    HW232119   5.850   2.296   2.310
10094SOL     OW32120   7.699   5.040  14.840
10094SOL    HW132121   7.767   5.105  14.855
10094SOL    HW232122   7.620   5.091  14.822
10095SOL     OW32123   3.771   8.750   8.863
10095SOL    HW132124   3.746   8.690   8.793
10095SOL    HW232125   3.762   8.698   8.944
10096SOL     OW32126   7.666   6.317  11.101
10096SOL    HW132127   7.710   6.399  11.124
10096SOL    HW232128   7.734   6.250  11.108
10097SOL     OW32129  13.539   8.196  11.798
10097SOL    HW132130  13.464   8.256  11.803
10097SOL    HW232131  13.563   8.181  11.890
10098SOL     OW32132  12.532   8.592   5.921
10098SOL    HW132133  12.471   8.651   5.965
10098SOL    HW232134  12.491   8.505   5.929
10099SOL     OW32135  12.206  13.828  10.670
10099SOL    HW132136  12.194  13.743  10.713
10099SOL    HW232137  12.298  13.828  10.642
10100SOL     OW32138   8.288   1.470  10.986
10100SOL    HW132139   8.254   1.527  10.916
10100SOL    HW232140   8.366   1.429  10.948
10101SOL     OW32141   6.558  14.225   6.972
10101SOL    HW132142   6.617  14.272   6.912
10101SOL    HW232143   6.528  14.149   6.922
10102SOL     OW32144   9.563   4.884  14.504
10102SOL    HW132145   9.541   4.792  14.491
10102SOL    HW232146   9.552   4.899  14.598
10103SOL     OW32147  11.487   7.100   4.995
10103SOL    HW132148  11.512   7.192   4.981
10103SOL    HW232149  11.451   7.072   4.911
10104SOL     OW32150  10.682   5.441   3.389
10104SOL    HW132151  10.755   5.457   3.449
10104SOL    HW232152  10.639   5.363   3.424
10105SOL     OW32153  12.950   2.528   4.414
10105SOL    HW132154  12.975   2.589   4.484
10105SOL    HW232155  12.855   2.536   4.408
10106SOL     OW32156  14.343  11.180   9.927
10106SOL    HW132157  14.383  11.144   9.848
10106SOL    HW232158  14.317  11.269   9.903
10107SOL     OW32159  12.103  11.194  10.706
10107SOL    HW132160  12.135  11.284  10.706
10107SOL    HW232161  12.062  11.183  10.792
10108SOL     OW32162   7.001   6.079  11.295
10108SOL    HW132163   7.078   6.058  11.243
10108SOL    HW232164   6.941   6.121  11.234
10109SOL     OW32165   0.990   3.694   2.808
10109SOL    HW132166   1.084   3.675   2.802
10109SOL    HW232167   0.957   3.632   2.872
10110SOL     OW32168  12.484   6.749   1.870
10110SOL    HW132169  12.513   6.840   1.864
10110SOL    HW232170  12.564   6.700   1.888
10111SOL     OW32171   0.654   7.849   5.215
10111SOL    HW132172   0.581   7.898   5.179
10111SOL    HW232173   0.684   7.901   5.289
10112SOL     OW32174  10.636  12.577  14.184
10112SOL    HW132175  10.565  12.623  14.140
10112SOL    HW232176  10.711  12.636  14.176
10113SOL     OW32177   1.582  12.623  14.363
10113SOL    HW132178   1.539  12.604  14.280
10113SOL    HW232179   1.532  12.696  14.401
10114SOL     OW32180  14.001   3.957  10.989
10114SOL    HW132181  14.027   3.929  10.902
10114SOL    HW232182  14.022   3.883  11.046
10115SOL     OW32183   9.713  10.657  13.157
10115SOL    HW132184   9.678  10.612  13.233
10115SOL    HW232185   9.798  10.691  13.187
10116SOL     OW32186  10.966   8.353  11.217
10116SOL    HW132187  11.015   8.322  11.141
10116SOL    HW232188  11.022   8.333  11.292
10117SOL     OW32189   6.326   9.476   7.471
10117SOL    HW132190   6.235   9.490   7.498
10117SOL    HW232191   6.330   9.383   7.446
10118SOL     OW32192   2.525  11.416   5.480
10118SOL    HW132193   2.430  11.406   5.467
10118SOL    HW232194   2.551  11.482   5.415
10119SOL     OW32195  11.367   6.576   7.552
10119SOL    HW132196  11.431   6.632   7.508
10119SOL    HW232197  11.292   6.575   7.493
10120SOL     OW32198   1.192   3.838   8.039
10120SOL    HW132199   1.217   3.777   8.109
10120SOL    HW232200   1.117   3.796   7.996
10121SOL     OW32201   1.864   7.324   7.200
10121SOL    HW132202   1.784   7.357   7.159
10121SOL    HW232203   1.895   7.256   7.141
10122SOL     OW32204   8.493   8.703   2.951
10122SOL    HW132205   8.519   8.749   2.871
10122SOL    HW232206   8.567   8.645   2.971
10123SOL     OW32207   6.454   4.884   8.866
10123SOL    HW132208   6.522   4.903   8.801
10123SOL    HW232209   6.501   4.838   8.936
10124SOL     OW32210   9.417   1.230   5.486
10124SOL    HW132211   9.492   1.187   5.446
10124SOL    HW232212   9.444   1.247   5.577
10125SOL     OW32213   1.981   0.050   7.548
10125SOL    HW132214   1.920  14.876   7.598
10125SOL    HW232215   1.926   0.122   7.516
10126SOL     OW32216   9.815   7.789   6.128
10126SOL    HW132217   9.730   7.746   6.122
10126SOL    HW232218   9.799   7.866   6.183
10127SOL     OW32219  10.148  14.410   9.252
10127SOL    HW132220  10.204  14.460   9.192
10127SOL    HW232221  10.169  14.444   9.339
10128SOL     OW32222   7.469  11.660   4.100
10128SOL    HW132223   7.507  11.646   4.013
10128SOL    HW232224   7.427  11.745   4.095
10129SOL     OW32225   7.233  13.519  11.804
10129SOL    HW132226   7.236  13.613  11.786
10129SOL    HW232227   7.297  13.506  11.874
10130SOL     OW32228  12.771  11.613  11.695
10130SOL    HW132229  12.737  11.666  11.624
10130SOL    HW232230  12.702  11.550  11.714
10131SOL     OW32231  14.651  11.790  13.167
10131SOL    HW132232  14.717  11.855  13.192
10131SOL    HW232233  14.675  11.711  13.216
10132SOL     OW32234   5.175  14.297  10.432
10132SOL    HW132235   5.150  14.227  10.372
10132SOL    HW232236   5.195  14.372  10.375
10133SOL     OW32237  13.140   3.040   4.999
10133SOL    HW132238  13.203   3.054   4.928
10133SOL    HW232239  13.192   3.003   5.070
10134SOL     OW32240   7.560   6.694   2.365
10134SOL    HW132241   7.592   6.708   2.454
10134SOL    HW232242   7.630   6.644   2.322
10135SOL     OW32243   9.117  13.232   7.510
10135SOL    HW132244   9.119  13.311   7.456
10135SOL    HW232245   9.207  13.199   7.508
10136SOL     OW32246  12.176   6.411  14.263
10136SOL    HW132247  12.176   6.483  14.200
10136SOL    HW232248  12.085   6.404  14.291
10137SOL     OW32249   1.180   3.942  12.901
10137SOL    HW132250   1.131   3.871  12.858
10137SOL    HW232251   1.190   4.009  12.833
10138SOL     OW32252   8.761   4.510   8.057
10138SOL    HW132253   8.724   4.574   8.119
10138SOL    HW232254   8.833   4.469   8.106
10139SOL     OW32255   4.967   1.105   1.017
10139SOL    HW132256   4.888   1.065   1.052
10139SOL    HW232257   4.950   1.199   1.019
10140SOL     OW32258   0.012   5.037   0.259
10140SOL    HW132259   0.064   5.025   0.339
10140SOL    HW232260  14.807   5.062   0.291
10141SOL     OW32261   0.289   8.545   4.764
10141SOL    HW132262   0.327   8.574   4.681
10141SOL    HW232263   0.226   8.477   4.740
10142SOL     OW32264  13.135  14.092  11.255
10142SOL    HW132265  13.196  14.159  11.287
10142SOL    HW232266  13.179  14.009  11.273
10143SOL     OW32267   8.674   4.242   8.063
10143SOL    HW132268   8.583   4.215   8.071
10143SOL    HW232269   8.670   4.337   8.050
10144SOL     OW32270  10.038  13.235   3.011
10144SOL    HW132271  10.126  13.270   3.026
10144SOL    HW232272   9.994  13.247   3.095
10145SOL     OW32273  11.263   2.153   9.080
10145SOL    HW132274  11.314   2.192   9.151
10145SOL    HW232275  11.306   2.184   9.000
10146SOL     OW32276   8.320  10.479   6.718
10146SOL    HW132277   8.362  10.427   6.787
10146SOL    HW232278   8.248  10.424   6.687
10147SOL     OW32279   5.739  12.726   4.997
10147SOL    HW132280   5.720  12.661   5.064
10147SOL    HW232281   5.682  12.703   4.924
10148SOL     OW32282  11.365   0.715   1.860
10148SOL    HW132283  11.414   0.734   1.780
10148SOL    HW232284  11.318   0.796   1.878
10149SOL     OW32285   0.430  11.008  14.719
10149SOL    HW132286   0.502  11.050  14.671
10149SOL    HW232287   0.395  10.943  14.658
10150SOL     OW32288  11.817   7.694  11.916
10150SOL    HW132289  11.828   7.616  11.969
10150SOL    HW232290  11.796   7.660  11.828
10151SOL     OW32291   5.958   8.799   1.336
10151SOL    HW132292   5.925   8.778   1.423
10151SOL    HW232293   5.886   8.846   1.294
10152SOL     OW32294   5.161   1.842   4.716
10152SOL    HW132295   5.226   1.773   4.709
10152SOL    HW232296   5.198   1.916   4.668
10153SOL     OW32297  10.900   9.348   4.171
10153SOL    HW132298  10.805   9.365   4.174
10153SOL    HW232299  10.912   9.294   4.094
10154SOL     OW32300   0.877   7.468   7.179
10154SOL    HW132301   0.828   7.404   7.127
10154SOL    HW232302   0.905   7.534   7.116
10155SOL     OW32303   3.216   5.089  13.175
10155SOL    HW132304   3.230   5.183  13.190
10155SOL    HW232305   3.303   5.056  13.152
10156SOL     OW32306   8.369   0.997  13.083
10156SOL    HW132307   8.421   1.019  13.006
10156SOL    HW232308   8.360   1.079  13.131
10157SOL     OW32309   2.356  13.872   7.414
10157SOL    HW132310   2.421  13.898   7.480
10157SOL    HW232311   2.350  13.948   7.356
10158SOL     OW32312   2.653  12.361   3.313
10158SOL    HW132313   2.680  12.299   3.381
10158SOL    HW232314   2.649  12.445   3.358
10159SOL     OW32315   7.626   0.663   7.278
10159SOL    HW132316   7.635   0.650   7.373
10159SOL    HW232317   7.532   0.664   7.263
10160SOL     OW32318  14.218   0.545   9.644
10160SOL    HW132319  14.170   0.547   9.727
10160SOL    HW232320  14.232   0.637   9.622
10161SOL     OW32321  13.516   1.577  12.816
10161SOL    HW132322  13.581   1.609  12.753
10161SOL    HW232323  13.536   1.623  12.897
10162SOL     OW32324   6.784   7.939   7.193
10162SOL    HW132325   6.791   7.971   7.283
10162SOL    HW232326   6.718   7.870   7.198
10163SOL     OW32327   7.407  10.244   8.905
10163SOL    HW132328   7.501  10.229   8.909
10163SOL    HW232329   7.372  10.166   8.861
10164SOL     OW32330   2.205   9.463  14.160
10164SOL    HW132331   2.224   9.557  14.169
10164SOL    HW232332   2.287   9.424  14.130
10165SOL     OW32333   3.580   0.408  10.495
10165SOL    HW132334   3.662   0.362  10.475
10165SOL    HW232335   3.598   0.499  10.474
10166SOL     OW32336   4.556   1.578   5.977
10166SOL    HW132337   4.485   1.636   6.005
10166SOL    HW232338   4.615   1.573   6.052
10167SOL     OW32339   0.380   3.135   3.624
10167SOL    HW132340   0.370   3.230   3.618
10167SOL    HW232341   0.408   3.120   3.714
10168SOL     OW32342   9.608   1.365   4.935
10168SOL    HW132343   9.678   1.430   4.935
10168SOL    HW232344   9.648   1.287   4.895
10169SOL     OW32345   1.683   6.432   1.794
10169SOL    HW132346   1.635   6.475   1.865
10169SOL    HW232347   1.614   6.404   1.733
10170SOL     OW32348   7.815   9.065   7.667
10170SOL    HW132349   7.783   9.014   7.593
10170SOL    HW232350   7.756   9.141   7.671
10171SOL     OW32351   9.432  12.628  13.862
10171SOL    HW132352   9.347  12.595  13.836
10171SOL    HW232353   9.495  12.572  13.817
10172SOL     OW32354  14.548   0.987  11.988
10172SOL    HW132355  14.466   1.005  11.941
10172SOL    HW232356  14.614   1.039  11.942
10173SOL     OW32357   9.062   4.254  10.930
10173SOL    HW132358   9.047   4.178  10.874
10173SOL    HW232359   9.113   4.221  11.003
10174SOL     OW32360  13.320   6.995   8.160
10174SOL    HW132361  13.230   6.975   8.186
10174SOL    HW232362  13.313   7.076   8.109
10175SOL     OW32363   8.230   0.263   8.119
10175SOL    HW132364   8.219   0.345   8.071
10175SOL    HW232365   8.201   0.195   8.059
10176SOL     OW32366   0.262  13.668   9.132
10176SOL    HW132367   0.244  13.761   9.120
10176SOL    HW232368   0.347  13.654   9.090
10177SOL     OW32369   8.807   3.894   3.155
10177SOL    HW132370   8.830   3.949   3.080
10177SOL    HW232371   8.736   3.838   3.124
10178SOL     OW32372   2.168  11.207   6.904
10178SOL    HW132373   2.160  11.203   6.999
10178SOL    HW232374   2.089  11.253   6.875
10179SOL     OW32375   3.560   9.893   4.474
10179SOL    HW132376   3.496   9.961   4.495
10179SOL    HW232377   3.579   9.908   4.381
10180SOL     OW32378  14.858  12.865  12.628
10180SOL    HW132379   0.066  12.888  12.608
10180SOL    HW232380  14.863  12.777  12.665
10181SOL     OW32381  13.784  11.801   0.175
10181SOL    HW132382  13.807  11.891   0.198
10181SOL    HW232383  13.746  11.764   0.255
10182SOL     OW32384  12.321   4.985   5.850
10182SOL    HW132385  12.384   4.931   5.898
10182SOL    HW232386  12.367   5.067   5.834
10183SOL     OW32387   4.813   0.535  10.348
10183SOL    HW132388   4.857   0.620  10.352
10183SOL    HW232389   4.772   0.526  10.434
10184SOL     OW32390   8.631  10.201   7.815
10184SOL    HW132391   8.550  10.150   7.824
10184SOL    HW232392   8.657  10.221   7.904
10185SOL     OW32393   8.001   1.106  12.581
10185SOL    HW132394   7.954   1.053  12.645
10185SOL    HW232395   8.090   1.115  12.617
10186SOL     OW32396   7.125  13.943   2.345
10186SOL    HW132397   7.032  13.965   2.336
10186SOL    HW232398   7.135  13.862   2.296
10187SOL     OW32399  14.063  12.866   9.242
10187SOL    HW132400  14.150  12.863   9.202
10187SOL    HW232401  14.005  12.826   9.176
10188SOL     OW32402  13.499   3.023   9.236
10188SOL    HW132403  13.412   3.027   9.197
10188SOL    HW232404  13.557   2.996   9.165
10189SOL     OW32405  12.632   3.025   1.843
10189SOL    HW132406  12.705   2.987   1.794
10189SOL    HW232407  12.675   3.074   1.914
10190SOL     OW32408   4.791  12.831  13.459
10190SOL    HW132409   4.768  12.883  13.536
10190SOL    HW232410   4.760  12.882  13.385
10191SOL     OW32411   5.810   6.265  12.922
10191SOL    HW132412   5.782   6.340  12.974
10191SOL    HW232413   5.730   6.215  12.906
10192SOL     OW32414   6.822   3.700   3.533
10192SOL    HW132415   6.732   3.727   3.554
10192SOL    HW232416   6.867   3.699   3.617
10193SOL     OW32417   4.636   6.235  10.012
10193SOL    HW132418   4.619   6.235  10.106
10193SOL    HW232419   4.561   6.281   9.974
10194SOL     OW32420   1.953  13.526  12.149
10194SOL    HW132421   2.041  13.498  12.124
10194SOL    HW232422   1.953  13.621  12.140
10195SOL     OW32423  11.306   2.089   6.185
10195SOL    HW132424  11.339   2.072   6.273
10195SOL    HW232425  11.237   2.154   6.198
10196SOL     OW32426  11.285   6.933  14.016
10196SOL    HW132427  11.262   6.845  13.984
10196SOL    HW232428  11.344   6.968  13.948
10197SOL     OW32429   4.021   7.507   0.640
10197SOL    HW132430   4.024   7.447   0.714
10197SOL    HW232431   3.956   7.573   0.664
10198SOL     OW32432   1.192   2.954   1.359
10198SOL    HW132433   1.174   3.048   1.367
10198SOL    HW232434   1.159   2.916   1.441
10199SOL     OW32435  11.415   0.487  10.645
10199SOL    HW132436  11.473   0.417  10.674
10199SOL    HW232437  11.338   0.479  10.701
10200SOL     OW32438   0.354  14.665   0.089
10200SOL    HW132439   0.332  14.650   0.181
10200SOL    HW232440   0.269  14.670   0.044
10201SOL     OW32441  12.158  10.058  14.333
10201SOL    HW132442  12.215   9.990  14.368
10201SOL    HW232443  12.214  10.135  14.327
10202SOL     OW32444   9.974  12.012   2.072
10202SOL    HW132445  10.014  11.925   2.075
10202SOL    HW232446   9.917  12.009   1.996
10203SOL     OW32447   4.008   9.935   3.877
10203SOL    HW132448   4.077   9.873   3.855
10203SOL    HW232449   4.023  10.010   3.819
10204SOL     OW32450   9.557   1.626   7.575
10204SOL    HW132451   9.515   1.554   7.621
10204SOL    HW232452   9.485   1.682   7.546
10205SOL     OW32453  10.226   7.309   5.382
10205SOL    HW132454  10.199   7.393   5.418
10205SOL    HW232455  10.148   7.276   5.337
10206SOL     OW32456   4.602  10.986  14.829
10206SOL    HW132457   4.555  11.069  14.824
10206SOL    HW232458   4.687  11.004  14.787
10207SOL     OW32459  10.237  13.024   5.779
10207SOL    HW132460  10.242  13.115   5.807
10207SOL    HW232461  10.328  12.995   5.775
10208SOL     OW32462   0.349   5.508  12.502
10208SOL    HW132463   0.328   5.532  12.412
10208SOL    HW232464   0.280   5.548  12.555
10209SOL     OW32465   3.952   3.456  14.298
10209SOL    HW132466   4.032   3.465  14.245
10209SOL    HW232467   3.984   3.436  14.386
10210SOL     OW32468   4.117   6.370   5.451
10210SOL    HW132469   4.208   6.352   5.427
10210SOL    HW232470   4.103   6.322   5.532
10211SOL     OW32471   6.782  10.453   0.997
10211SOL    HW132472   6.870  10.457   1.036
10211SOL    HW232473   6.791  10.502   0.915
10212SOL     OW32474   6.770   2.665   7.583
10212SOL    HW132475   6.834   2.701   7.644
10212SOL    HW232476   6.822   2.637   7.508
10213SOL     OW32477   5.889   5.838   9.046
10213SOL    HW132478   5.854   5.749   9.055
10213SOL    HW232479   5.902   5.867   9.136
10214SOL     OW32480  12.143   3.793   4.295
10214SOL    HW132481  12.090   3.870   4.275
10214SOL    HW232482  12.216   3.827   4.347
10215SOL     OW32483   4.609  13.406   2.037
10215SOL    HW132484   4.651  13.332   2.082
10215SOL    HW232485   4.611  13.477   2.101
10216SOL     OW32486   3.394  12.469   0.325
10216SOL    HW132487   3.324  12.406   0.343
10216SOL    HW232488   3.433  12.487   0.410
10217SOL     OW32489   6.434   1.012  10.726
10217SOL    HW132490   6.509   1.037  10.672
10217SOL    HW232491   6.407   1.093  10.768
10218SOL     OW32492   4.275  13.935   5.828
10218SOL    HW132493   4.369  13.919   5.823
10218SOL    HW232494   4.264  14.024   5.797
10219SOL     OW32495  14.855   2.238   8.685
10219SOL    HW132496  14.769   2.220   8.649
10219SOL    HW232497   0.033   2.225   8.612
10220SOL     OW32498  14.774   6.354   3.661
10220SOL    HW132499  14.696   6.380   3.711
10220SOL    HW232500  14.825   6.434   3.652
10221SOL     OW32501   5.071  12.462  13.010
10221SOL    HW132502   5.100  12.553  13.002
10221SOL    HW232503   5.051  12.452  13.103
10222SOL     OW32504  12.226   9.374  12.954
10222SOL    HW132505  12.145   9.392  12.906
10222SOL    HW232506  12.198   9.364  13.045
10223SOL     OW32507   6.519   0.412   4.512
10223SOL    HW132508   6.587   0.363   4.467
10223SOL    HW232509   6.539   0.504   4.492
10224SOL     OW32510  10.320  10.612   9.178
10224SOL    HW132511  10.326  10.569   9.264
10224SOL    HW232512  10.404  10.594   9.136
10225SOL     OW32513   8.182   2.830   7.012
10225SOL    HW132514   8.269   2.790   7.019
10225SOL    HW232515   8.186   2.881   6.931
10226SOL     OW32516  13.405   5.966  10.226
10226SOL    HW132517  13.361   6.044  10.191
10226SOL    HW232518  13.445   5.997  10.307
10227SOL     OW32519   1.448   4.307   0.519
10227SOL    HW132520   1.432   4.355   0.600
10227SOL    HW232521   1.426   4.216   0.540
10228SOL     OW32522   4.577   3.035   8.934
10228SOL    HW132523   4.618   3.033   8.848
10228SOL    HW232524   4.646   3.066   8.993
10229SOL     OW32525   6.975  14.350  12.247
10229SOL    HW132526   7.027  14.271  12.232
10229SOL    HW232527   7.024  14.420  12.204
10230SOL     OW32528  11.081   4.086   6.528
10230SOL    HW132529  11.019   4.014   6.536
10230SOL    HW232530  11.061   4.144   6.602
10231SOL     OW32531   5.135   3.643  12.739
10231SOL    HW132532   5.045   3.639  12.707
10231SOL    HW232533   5.180   3.700  12.677
10232SOL     OW32534  10.376   6.780   4.198
10232SOL    HW132535  10.414   6.693   4.203
10232SOL    HW232536  10.447   6.835   4.165
10233SOL     OW32537   3.010  12.720   1.600
10233SOL    HW132538   3.045  12.697   1.686
10233SOL    HW232539   3.019  12.815   1.595
10234SOL     OW32540  11.738   0.972   7.491
10234SOL    HW132541  11.683   0.906   7.532
10234SOL    HW232542  11.697   0.987   7.406
10235SOL     OW32543  11.655   6.203   5.281
10235SOL    HW132544  11.707   6.127   5.255
10235SOL    HW232545  11.700   6.238   5.358
10236SOL     OW32546  11.377  14.197   1.687
10236SOL    HW132547  11.377  14.253   1.610
10236SOL    HW232548  11.350  14.111   1.654
10237SOL     OW32549  13.062   3.933  13.021
10237SOL    HW132550  13.064   4.028  13.034
10237SOL    HW232551  12.973   3.914  12.992
10238SOL     OW32552  13.403   3.590   1.625
10238SOL    HW132553  13.392   3.620   1.715
10238SOL    HW232554  13.436   3.666   1.578
10239SOL     OW32555  12.313  12.774   6.366
10239SOL    HW132556  12.357  12.776   6.451
10239SOL    HW232557  12.297  12.866   6.345
10240SOL     OW32558  12.694  11.942   5.519
10240SOL    HW132559  12.618  11.987   5.556
10240SOL    HW232560  12.661  11.856   5.493
10241SOL     OW32561  12.353  11.400  13.858
10241SOL    HW132562  12.343  11.346  13.937
10241SOL    HW232563  12.344  11.339  13.786
10242SOL     OW32564   2.692   3.017   4.011
10242SOL    HW132565   2.695   3.000   3.917
10242SOL    HW232566   2.783   3.007   4.039
10243SOL     OW32567  10.851  14.333   9.534
10243SOL    HW132568  10.767  14.296   9.559
10243SOL    HW232569  10.916  14.276   9.576
10244SOL     OW32570   8.237  10.911   2.698
10244SOL    HW132571   8.230  10.897   2.792
10244SOL    HW232572   8.147  10.905   2.666
10245SOL     OW32573  10.771   4.565   4.033
10245SOL    HW132574  10.701   4.607   3.982
10245SOL    HW232575  10.729   4.489   4.073
10246SOL     OW32576  14.233  13.777   1.522
10246SOL    HW132577  14.165  13.717   1.491
10246SOL    HW232578  14.263  13.738   1.604
10247SOL     OW32579   8.064   4.055   7.337
10247SOL    HW132580   8.028   4.108   7.408
10247SOL    HW232581   8.143   4.102   7.310
10248SOL     OW32582   8.463   0.083   2.761
10248SOL    HW132583   8.431   0.111   2.846
10248SOL    HW232584   8.477   0.164   2.713
10249SOL     OW32585  14.009   8.609   6.048
10249SOL    HW132586  14.017   8.561   6.131
10249SOL    HW232587  13.962   8.550   5.990
10250SOL     OW32588   6.389  14.310   6.466
10250SOL    HW132589   6.461  14.323   6.405
10250SOL    HW232590   6.313  14.295   6.410
10251SOL     OW32591  11.060   7.196   6.281
10251SOL    HW132592  11.078   7.134   6.211
10251SOL    HW232593  10.967   7.182   6.301
10252SOL     OW32594  11.847  11.892  14.661
10252SOL    HW132595  11.800  11.821  14.616
10252SOL    HW232596  11.779  11.955  14.683
10253SOL     OW32597   9.125   7.758  11.754
10253SOL    HW132598   9.151   7.848  11.734
10253SOL    HW232599   9.079   7.728  11.675
10254SOL     OW32600  11.868  10.998  11.356
10254SOL    HW132601  11.779  11.033  11.355
10254SOL    HW232602  11.915  11.049  11.290
10255SOL     OW32603   1.310   4.266   5.599
10255SOL    HW132604   1.363   4.327   5.548
10255SOL    HW232605   1.248   4.229   5.536
10256SOL     OW32606  13.601   5.640   8.841
10256SOL    HW132607  13.635   5.629   8.930
10256SOL    HW232608  13.577   5.732   8.835
10257SOL     OW32609   5.413  10.168  13.351
10257SOL    HW132610   5.431  10.112  13.276
10257SOL    HW232611   5.388  10.252  13.313
10258SOL     OW32612   8.097   5.085   5.025
10258SOL    HW132613   8.030   5.097   4.957
10258SOL    HW232614   8.047   5.059   5.103
10259SOL     OW32615   1.593   7.740   6.988
10259SOL    HW132616   1.522   7.678   6.971
10259SOL    HW232617   1.559   7.824   6.958
10260SOL     OW32618  13.655   1.216   7.747
10260SOL    HW132619  13.704   1.297   7.733
10260SOL    HW232620  13.719   1.155   7.785
10261SOL     OW32621   7.413  14.675   9.500
10261SOL    HW132622   7.326  14.642   9.477
10261SOL    HW232623   7.461  14.598   9.530
10262SOL     OW32624  13.520  10.365   1.879
10262SOL    HW132625  13.505  10.374   1.785
10262SOL    HW232626  13.442  10.404   1.919
10263SOL     OW32627   8.287   8.614   7.619
10263SOL    HW132628   8.210   8.668   7.632
10263SOL    HW232629   8.299   8.570   7.703
10264SOL     OW32630   2.122   3.841   5.689
10264SOL    HW132631   2.139   3.771   5.752
10264SOL    HW232632   2.048   3.889   5.726
10265SOL     OW32633   7.027   5.932   5.222
10265SOL    HW132634   7.094   5.989   5.260
10265SOL    HW232635   7.023   5.957   5.130
10266SOL     OW32636  13.183   9.264  12.331
10266SOL    HW132637  13.142   9.182  12.358
10266SOL    HW232638  13.273   9.239  12.310
10267SOL     OW32639  10.686  10.614  14.791
10267SOL    HW132640  10.767  10.656  14.763
10267SOL    HW232641  10.642  10.679  14.846
10268SOL     OW32642   9.582  12.425   6.939
10268SOL    HW132643   9.581  12.457   6.849
10268SOL    HW232644   9.544  12.337   6.933
10269SOL     OW32645   7.195  11.912  11.609
10269SOL    HW132646   7.204  11.905  11.514
10269SOL    HW232647   7.107  11.945  11.622
10270SOL     OW32648   5.769  13.200  11.451
10270SOL    HW132649   5.823  13.151  11.390
10270SOL    HW232650   5.785  13.292  11.429
10271SOL     OW32651  11.540   2.668   6.003
10271SOL    HW132652  11.467   2.687   5.944
10271SOL    HW232653  11.616   2.658   5.944
10272SOL     OW32654  12.743   6.489   5.952
10272SOL    HW132655  12.782   6.577   5.958
10272SOL    HW232656  12.725   6.465   6.043
10273SOL     OW32657   7.259   0.438   6.630
10273SOL    HW132658   7.335   0.413   6.578
10273SOL    HW232659   7.190   0.456   6.566
10274SOL     OW32660  10.773   1.871   3.863
10274SOL    HW132661  10.742   1.872   3.953
10274SOL    HW232662  10.803   1.961   3.847
10275SOL     OW32663  14.231   8.364  13.980
10275SOL    HW132664  14.199   8.412  13.904
10275SOL    HW232665  14.167   8.384  14.049
10276SOL     OW32666  12.711   1.119  11.549
10276SOL    HW132667  12.671   1.039  11.516
10276SOL    HW232668  12.765   1.091  11.622
10277SOL     OW32669  10.253   9.125  12.906
10277SOL    HW132670  10.213   9.127  12.994
10277SOL    HW232671  10.218   9.203  12.863
10278SOL     OW32672   9.021   2.448  12.225
10278SOL    HW132673   9.036   2.440  12.131
10278SOL    HW232674   8.942   2.502  12.232
10279SOL     OW32675   4.412  10.642   9.997
10279SOL    HW132676   4.461  10.660  10.077
10279SOL    HW232677   4.357  10.567  10.019
10280SOL     OW32678   3.059   5.987   6.525
10280SOL    HW132679   3.098   6.044   6.592
10280SOL    HW232680   2.969   5.973   6.554
10281SOL     OW32681  11.311  11.398  12.391
10281SOL    HW132682  11.382  11.458  12.371
10281SOL    HW232683  11.299  11.347  12.311
10282SOL     OW32684   9.676   7.597   8.372
10282SOL    HW132685   9.655   7.650   8.295
10282SOL    HW232686   9.597   7.602   8.426
10283SOL     OW32687  11.880   1.213   0.914
10283SOL    HW132688  11.875   1.121   0.890
10283SOL    HW232689  11.832   1.220   0.996
10284SOL     OW32690  12.565   9.999  12.253
10284SOL    HW132691  12.518   9.940  12.312
10284SOL    HW232692  12.551   9.963  12.166
10285SOL     OW32693   1.676   0.490   9.467
10285SOL    HW132694   1.631   0.556   9.414
10285SOL    HW232695   1.749   0.537   9.507
10286SOL     OW32696   2.588   9.429   3.578
10286SOL    HW132697   2.592   9.519   3.544
10286SOL    HW232698   2.562   9.439   3.669
10287SOL     OW32699  12.216   0.048   5.282
10287SOL    HW132700  12.269   0.116   5.241
10287SOL    HW232701  12.211  14.860   5.217
10288SOL     OW32702   7.194   0.087   4.437
10288SOL    HW132703   7.279   0.062   4.474
10288SOL    HW232704   7.187   0.035   4.357
10289SOL     OW32705   4.572  12.995   1.494
10289SOL    HW132706   4.496  12.941   1.473
10289SOL    HW232707   4.602  12.963   1.578
10290SOL     OW32708   5.025   8.688   7.661
10290SOL    HW132709   5.114   8.711   7.632
10290SOL    HW232710   5.001   8.612   7.608
10291SOL     OW32711  12.446  12.544   5.152
10291SOL    HW132712  12.369  12.528   5.098
10291SOL    HW232713  12.503  12.469   5.135
10292SOL     OW32714  12.623  10.752   5.301
10292SOL    HW132715  12.620  10.665   5.260
10292SOL    HW232716  12.555  10.802   5.256
10293SOL     OW32717   2.574  14.159   1.798
10293SOL    HW132718   2.616  14.134   1.880
10293SOL    HW232719   2.547  14.076   1.758
10294SOL     OW32720   8.931   5.046   2.459
10294SOL    HW132721   8.904   5.113   2.522
10294SOL    HW232722   8.848   5.012   2.424
10295SOL     OW32723  11.153  12.738   7.195
10295SOL    HW132724  11.204  12.809   7.157
10295SOL    HW232725  11.062  12.758   7.173
10296SOL     OW32726   5.902   7.753   5.794
10296SOL    HW132727   5.909   7.661   5.769
10296SOL    HW232728   5.826   7.785   5.746
10297SOL     OW32729   5.596   0.765   8.463
10297SOL    HW132730   5.621   0.827   8.394
10297SOL    HW232731   5.579   0.683   8.416
10298SOL     OW32732   9.231   5.474   7.500
10298SOL    HW132733   9.161   5.410   7.497
10298SOL    HW232734   9.232   5.506   7.590
10299SOL     OW32735   1.709   8.724   0.056
10299SOL    HW132736   1.642   8.742  14.871
10299SOL    HW232737   1.659   8.718   0.138
10300SOL     OW32738   6.917  10.736  14.547
10300SOL    HW132739   6.999  10.687  14.548
10300SOL    HW232740   6.859  10.684  14.491
10301SOL     OW32741   3.276   7.727  10.023
10301SOL    HW132742   3.192   7.728   9.978
10301SOL    HW232743   3.330   7.790   9.975
10302SOL     OW32744  14.655   4.367   1.013
10302SOL    HW132745  14.737   4.382   1.058
10302SOL    HW232746  14.616   4.292   1.057
10303SOL     OW32747   5.718   1.766   0.718
10303SOL    HW132748   5.708   1.682   0.763
10303SOL    HW232749   5.738   1.742   0.627
10304SOL     OW32750  13.322   0.622   0.951
10304SOL    HW132751  13.403   0.672   0.959
10304SOL    HW232752  13.255   0.687   0.931
10305SOL     OW32753   0.520   6.072   8.088
10305SOL    HW132754   0.499   6.139   8.022
10305SOL    HW232755   0.510   5.989   8.042
10306SOL     OW32756   0.914   8.672   9.204
10306SOL    HW132757   0.992   8.625   9.175
10306SOL    HW232758   0.877   8.617   9.273
10307SOL     OW32759  12.073   3.136  11.319
10307SOL    HW132760  12.142   3.109  11.258
10307SOL    HW232761  12.118   3.185  11.387
10308SOL     OW32762  12.011   0.765  14.572
10308SOL    HW132763  11.932   0.718  14.599
10308SOL    HW232764  12.067   0.697  14.534
10309SOL     OW32765   7.893   5.050   2.825
10309SOL    HW132766   7.840   5.069   2.903
10309SOL    HW232767   7.914   5.136   2.789
10310SOL     OW32768   8.777   7.105   1.627
10310SOL    HW132769   8.830   7.102   1.547
10310SOL    HW232770   8.839   7.083   1.697
10311SOL     OW32771   5.694   0.755  10.500
10311SOL    HW132772   5.737   0.840  10.494
10311SOL    HW232773   5.707   0.727  10.590
10312SOL     OW32774   7.481   1.223   2.260
10312SOL    HW132775   7.446   1.285   2.324
10312SOL    HW232776   7.568   1.256   2.239
10313SOL     OW32777   2.430   7.431   6.986
10313SOL    HW132778   2.444   7.348   6.941
10313SOL    HW232779   2.477   7.495   6.932
10314SOL     OW32780   2.807  12.257  12.156
10314SOL    HW132781   2.896  12.246  12.189
10314SOL    HW232782   2.756  12.191  12.203
10315SOL     OW32783  13.194   7.146   9.934
10315SOL    HW132784  13.252   7.218   9.957
10315SOL    HW232785  13.166   7.166   9.844
10316SOL     OW32786   8.012  13.599  11.094
10316SOL    HW132787   8.064  13.664  11.141
10316SOL    HW232788   7.985  13.537  11.161
10317SOL     OW32789   7.160   8.296  11.185
10317SOL    HW132790   7.153   8.204  11.161
10317SOL    HW232791   7.073   8.318  11.220
10318SOL     OW32792   9.729   2.872   7.267
10318SOL    HW132793   9.655   2.825   7.229
10318SOL    HW232794   9.731   2.956   7.220
10319SOL     OW32795   4.234   4.660   3.050
10319SOL    HW132796   4.190   4.593   3.102
10319SOL    HW232797   4.168   4.728   3.037
10320SOL     OW32798   7.727   2.373   2.104
10320SOL    HW132799   7.727   2.371   2.200
10320SOL    HW232800   7.649   2.423   2.081
10321SOL     OW32801   6.133  13.842   0.849
10321SOL    HW132802   6.083  13.771   0.808
10321SOL    HW232803   6.156  13.900   0.776
10322SOL     OW32804   2.240   0.585  10.695
10322SOL    HW132805   2.235   0.570  10.790
10322SOL    HW232806   2.274   0.503  10.660
10323SOL     OW32807   9.327  14.466   4.819
10323SOL    HW132808   9.252  14.526   4.818
10323SOL    HW232809   9.388  14.507   4.880
10324SOL     OW32810   5.955  12.487   5.045
10324SOL    HW132811   5.968  12.559   4.984
10324SOL    HW232812   5.860  12.483   5.057
10325SOL     OW32813   0.322   4.887   4.203
10325SOL    HW132814   0.390   4.821   4.185
10325SOL    HW232815   0.246   4.858   4.153
10326SOL     OW32816   3.766  11.658  14.647
10326SOL    HW132817   3.728  11.623  14.727
10326SOL    HW232818   3.782  11.582  14.591
10327SOL     OW32819   4.526   5.842  14.530
10327SOL    HW132820   4.620   5.824  14.538
10327SOL    HW232821   4.497   5.789  14.457
10328SOL     OW32822   5.014   1.029   7.052
10328SOL    HW132823   4.920   1.010   7.050
10328SOL    HW232824   5.020   1.110   7.102
10329SOL     OW32825   7.254  12.282  12.966
10329SOL    HW132826   7.226  12.315  12.881
10329SOL    HW232827   7.191  12.320  13.028
10330SOL     OW32828  13.217   9.141   2.733
10330SOL    HW132829  13.247   9.112   2.819
10330SOL    HW232830  13.205   9.060   2.684
10331SOL     OW32831  11.624   6.990  14.015
10331SOL    HW132832  11.686   7.033  13.956
10331SOL    HW232833  11.618   7.047  14.091
10332SOL     OW32834   5.600   1.046   1.225
10332SOL    HW132835   5.533   1.113   1.239
10332SOL    HW232836   5.639   1.068   1.141
10333SOL     OW32837  13.901   5.052   4.220
10333SOL    HW132838  13.880   5.130   4.169
10333SOL    HW232839  13.961   5.083   4.288
10334SOL     OW32840   4.922   7.332   9.199
10334SOL    HW132841   4.970   7.399   9.248
10334SOL    HW232842   4.920   7.363   9.109
10335SOL     OW32843   2.811   2.759   9.184
10335SOL    HW132844   2.732   2.755   9.238
10335SOL    HW232845   2.872   2.699   9.227
10336SOL     OW32846  10.194   6.576   0.439
10336SOL    HW132847  10.116   6.620   0.403
10336SOL    HW232848  10.192   6.597   0.533
10337SOL     OW32849   6.880   5.916  10.754
10337SOL    HW132850   6.818   5.873  10.813
10337SOL    HW232851   6.886   6.006  10.787
10338SOL     OW32852   8.545  13.712   7.568
10338SOL    HW132853   8.537  13.732   7.662
10338SOL    HW232854   8.523  13.794   7.524
10339SOL     OW32855  13.306   5.687   5.884
10339SOL    HW132856  13.260   5.713   5.964
10339SOL    HW232857  13.380   5.747   5.878
10340SOL     OW32858   1.914  11.367   2.011
10340SOL    HW132859   1.859  11.438   2.045
10340SOL    HW232860   1.882  11.354   1.921
10341SOL     OW32861  12.513   2.889  13.478
10341SOL    HW132862  12.430   2.905  13.522
10341SOL    HW232863  12.574   2.866  13.548
10342SOL     OW32864   6.342   1.283  12.463
10342SOL    HW132865   6.396   1.231  12.523
10342SOL    HW232866   6.296   1.219  12.410
10343SOL     OW32867  10.805  11.332   6.242
10343SOL    HW132868  10.871  11.312   6.176
10343SOL    HW232869  10.841  11.406   6.290
10344SOL     OW32870   1.139   1.678   9.699
10344SOL    HW132871   1.107   1.611   9.639
10344SOL    HW232872   1.195   1.733   9.644
10345SOL     OW32873   8.159  12.493  13.780
10345SOL    HW132874   8.234  12.526  13.829
10345SOL    HW232875   8.141  12.562  13.716
10346SOL     OW32876  11.355   9.431   4.043
10346SOL    HW132877  11.404   9.472   4.114
10346SOL    HW232878  11.273   9.480   4.038
10347SOL     OW32879   1.569   1.150   8.540
10347SOL    HW132880   1.637   1.183   8.480
10347SOL    HW232881   1.615   1.138   8.623
10348SOL     OW32882   1.737   8.705   5.241
10348SOL    HW132883   1.769   8.749   5.163
10348SOL    HW232884   1.643   8.696   5.226
10349SOL     OW32885  14.207   6.101   9.745
10349SOL    HW132886  14.198   6.080   9.838
10349SOL    HW232887  14.192   6.018   9.700
10350SOL     OW32888   9.159  14.268  14.654
10350SOL    HW132889   9.186  14.332  14.720
10350SOL    HW232890   9.174  14.312  14.570
10351SOL     OW32891   2.063   6.333   0.545
10351SOL    HW132892   2.058   6.400   0.477
10351SOL    HW232893   2.142   6.356   0.595
10352SOL     OW32894   6.415  12.598  14.682
10352SOL    HW132895   6.386  12.680  14.643
10352SOL    HW232896   6.340  12.569  14.735
10353SOL     OW32897  12.027   5.048   1.024
10353SOL    HW132898  12.092   4.990   0.984
10353SOL    HW232899  11.943   5.011   1.000
10354SOL     OW32900   3.909   4.582  12.622
10354SOL    HW132901   3.875   4.560  12.709
10354SOL    HW232902   3.937   4.674  12.630
10355SOL     OW32903  13.840   0.839  11.845
10355SOL    HW132904  13.867   0.930  11.838
10355SOL    HW232905  13.808   0.830  11.935
10356SOL     OW32906  14.308  12.175   3.587
10356SOL    HW132907  14.223  12.196   3.625
10356SOL    HW232908  14.361  12.147   3.662
10357SOL     OW32909   7.618   5.664   1.677
10357SOL    HW132910   7.612   5.727   1.604
10357SOL    HW232911   7.589   5.713   1.753
10358SOL     OW32912  12.277   5.274   5.475
10358SOL    HW132913  12.251   5.272   5.567
10358SOL    HW232914  12.201   5.309   5.429
10359SOL     OW32915   9.797   6.355   2.430
10359SOL    HW132916   9.849   6.305   2.368
10359SOL    HW232917   9.785   6.440   2.388
10360SOL     OW32918   0.783   0.336  11.066
10360SOL    HW132919   0.807   0.362  11.155
10360SOL    HW232920   0.735   0.254  11.077
10361SOL     OW32921   6.937  14.540   9.693
10361SOL    HW132922   6.907  14.452   9.716
10361SOL    HW232923   6.922  14.592   9.772
10362SOL     OW32924   5.340  10.559   6.970
10362SOL    HW132925   5.358  10.547   7.063
10362SOL    HW232926   5.319  10.471   6.938
10363SOL     OW32927   0.678   7.292   6.196
10363SOL    HW132928   0.711   7.261   6.280
10363SOL    HW232929   0.618   7.223   6.167
10364SOL     OW32930   9.481   7.594   4.463
10364SOL    HW132931   9.432   7.558   4.389
10364SOL    HW232932   9.501   7.519   4.518
10365SOL     OW32933  13.982  14.688   9.986
10365SOL    HW132934  13.913  14.753   9.978
10365SOL    HW232935  13.967  14.647  10.071
10366SOL     OW32936  11.935  11.622   2.390
10366SOL    HW132937  11.879  11.596   2.463
10366SOL    HW232938  12.017  11.648   2.432
10367SOL     OW32939   2.697  12.416  12.561
10367SOL    HW132940   2.610  12.399  12.526
10367SOL    HW232941   2.755  12.412  12.485
10368SOL     OW32942   5.131   3.737  13.735
10368SOL    HW132943   5.130   3.758  13.829
10368SOL    HW232944   5.221   3.755  13.708
10369SOL     OW32945   2.073   7.754   7.538
10369SOL    HW132946   2.138   7.691   7.509
10369SOL    HW232947   2.122   7.836   7.548
10370SOL     OW32948   4.780   0.625   2.543
10370SOL    HW132949   4.715   0.693   2.530
10370SOL    HW232950   4.861   0.662   2.508
10371SOL     OW32951   1.923  12.283   9.470
10371SOL    HW132952   1.912  12.358   9.411
10371SOL    HW232953   1.983  12.315   9.538
10372SOL     OW32954  10.238  11.492   1.226
10372SOL    HW132955  10.187  11.463   1.150
10372SOL    HW232956  10.218  11.585   1.235
10373SOL     OW32957  11.555   8.442  10.900
10373SOL    HW132958  11.517   8.508  10.958
10373SOL    HW232959  11.629   8.406  10.949
10374SOL     OW32960  12.205   4.467  10.331
10374SOL    HW132961  12.214   4.372  10.328
10374SOL    HW232962  12.111   4.483  10.318
10375SOL     OW32963  13.215   5.460   9.882
10375SOL    HW132964  13.298   5.504   9.861
10375SOL    HW232965  13.214   5.383   9.826
10376SOL     OW32966   8.753   9.845   4.388
10376SOL    HW132967   8.698   9.783   4.342
10376SOL    HW232968   8.842   9.809   4.381
10377SOL     OW32969  14.284  11.664   0.942
10377SOL    HW132970  14.291  11.583   0.993
10377SOL    HW232971  14.373  11.680   0.910
10378SOL     OW32972   8.471  12.612  10.226
10378SOL    HW132973   8.398  12.648  10.277
10378SOL    HW232974   8.492  12.682  10.164
10379SOL     OW32975   9.848   1.231   1.215
10379SOL    HW132976   9.774   1.291   1.221
10379SOL    HW232977   9.812   1.153   1.173
10380SOL     OW32978   4.976   7.987   2.946
10380SOL    HW132979   4.903   7.926   2.949
10380SOL    HW232980   4.987   8.007   2.854
10381SOL     OW32981  13.824  14.858   8.177
10381SOL    HW132982  13.904  14.861   8.125
10381SOL    HW232983  13.853  14.836   8.266
10382SOL     OW32984  14.773   5.855   8.861
10382SOL    HW132985  14.809   5.921   8.920
10382SOL    HW232986  14.713   5.804   8.915
10383SOL     OW32987  10.921   7.640  11.618
10383SOL    HW132988  10.983   7.653  11.690
10383SOL    HW232989  10.955   7.564  11.571
10384SOL     OW32990   3.106   5.959   4.440
10384SOL    HW132991   3.180   5.991   4.388
10384SOL    HW232992   3.126   5.867   4.457
10385SOL     OW32993   8.272   6.651  10.388
10385SOL    HW132994   8.217   6.632  10.464
10385SOL    HW232995   8.235   6.597  10.318
10386SOL     OW32996   8.694  11.065   5.193
10386SOL    HW132997   8.757  11.024   5.252
10386SOL    HW232998   8.714  11.158   5.197
10387SOL     OW32999  10.319   1.213   7.564
10387SOL    HW133000  10.227   1.204   7.542
10387SOL    HW233001  10.356   1.266   7.493
10388SOL     OW33002   0.086   6.319   4.140
10388SOL    HW133003   0.127   6.234   4.119
10388SOL    HW233004   0.127   6.381   4.080
10389SOL     OW33005   9.245  13.174   5.040
10389SOL    HW133006   9.200  13.241   4.988
10389SOL    HW233007   9.282  13.223   5.113
10390SOL     OW33008   5.844   7.808  14.288
10390SOL    HW133009   5.920   7.805  14.230
10390SOL    HW233010   5.855   7.889  14.338
10391SOL     OW33011   6.499   7.294  12.170
10391SOL    HW133012   6.563   7.250  12.113
10391SOL    HW233013   6.421   7.238  12.167
10392SOL     OW33014   7.230  13.759   8.550
10392SOL    HW133015   7.231  13.846   8.590
10392SOL    HW233016   7.221  13.699   8.624
10393SOL     OW33017   0.747   9.503  12.190
10393SOL    HW133018   0.672   9.462  12.147
10393SOL    HW233019   0.729   9.597  12.184
10394SOL     OW33020   3.561   9.768   0.240
10394SOL    HW133021   3.650   9.779   0.272
10394SOL    HW233022   3.508   9.823   0.298
10395SOL     OW33023   0.438  14.639   9.054
10395SOL    HW133024   0.347  14.660   9.032
10395SOL    HW233025   0.469  14.714   9.105
10396SOL     OW33026   8.860   5.475   4.970
10396SOL    HW133027   8.953   5.492   4.956
10396SOL    HW233028   8.858   5.390   5.014
10397SOL     OW33029   6.398   8.288   5.882
10397SOL    HW133030   6.368   8.361   5.936
10397SOL    HW233031   6.321   8.231   5.874
10398SOL     OW33032   7.918   1.485   6.043
10398SOL    HW133033   7.912   1.488   6.138
10398SOL    HW233034   7.965   1.565   6.020
10399SOL     OW33035   4.792  11.165  12.644
10399SOL    HW133036   4.748  11.080  12.638
10399SOL    HW233037   4.743  11.222  12.584
10400SOL     OW33038   4.163  10.532   5.610
10400SOL    HW133039   4.175  10.479   5.690
10400SOL    HW233040   4.085  10.496   5.569
10401SOL     OW33041   5.337  11.560   9.288
10401SOL    HW133042   5.358  11.575   9.380
10401SOL    HW233043   5.256  11.609   9.274
10402SOL     OW33044   7.155   0.702  13.521
10402SOL    HW133045   7.246   0.678  13.539
10402SOL    HW233046   7.140   0.782  13.573
10403SOL     OW33047   9.783   3.434  10.027
10403SOL    HW133048   9.862   3.428  10.082
10403SOL    HW233049   9.713   3.399  10.081
10404SOL     OW33050  11.251   5.346   1.942
10404SOL    HW133051  11.347   5.343   1.945
10404SOL    HW233052  11.224   5.358   2.033
10405SOL     OW33053   9.627  10.384  11.442
10405SOL    HW133054   9.664  10.384  11.530
10405SOL    HW233055   9.657  10.302  11.403
10406SOL     OW33056   4.323   0.592   4.438
10406SOL    HW133057   4.415   0.616   4.426
10406SOL    HW233058   4.277   0.675   4.445
10407SOL     OW33059  11.607   1.159   5.047
10407SOL    HW133060  11.611   1.244   5.003
10407SOL    HW233061  11.545   1.108   4.995
10408SOL     OW33062   5.722   8.071  12.195
10408SOL    HW133063   5.754   8.122  12.269
10408SOL    HW233064   5.629   8.095  12.187
10409SOL     OW33065   1.510  13.090  13.709
10409SOL    HW133066   1.535  13.180  13.689
10409SOL    HW233067   1.467  13.095  13.794
10410SOL     OW33068   4.300   1.995   6.274
10410SOL    HW133069   4.315   1.995   6.369
10410SOL    HW233070   4.231   2.060   6.261
10411SOL     OW33071   3.992   0.303   5.108
10411SOL    HW133072   3.926   0.269   5.047
10411SOL    HW233073   3.972   0.396   5.115
10412SOL     OW33074   0.495   6.038   3.229
10412SOL    HW133075   0.490   6.134   3.231
10412SOL    HW233076   0.469   6.015   3.140
10413SOL     OW33077   7.673  12.049  12.319
10413SOL    HW133078   7.625  12.016  12.396
10413SOL    HW233079   7.707  11.970  12.277
10414SOL     OW33080   8.250   7.270   4.752
10414SOL    HW133081   8.253   7.313   4.838
10414SOL    HW233082   8.291   7.184   4.767
10415SOL     OW33083  11.190   1.484   5.593
10415SOL    HW133084  11.131   1.505   5.666
10415SOL    HW233085  11.274   1.467   5.635
10416SOL     OW33086   8.290   4.635   8.553
10416SOL    HW133087   8.254   4.584   8.480
10416SOL    HW233088   8.289   4.574   8.627
10417SOL     OW33089  12.767   6.956   8.276
10417SOL    HW133090  12.860   6.972   8.289
10417SOL    HW233091  12.755   6.959   8.181
10418SOL     OW33092  12.954   6.076   6.450
10418SOL    HW133093  12.981   6.117   6.368
10418SOL    HW233094  12.900   6.001   6.422
10419SOL     OW33095  14.783   8.062   8.585
10419SOL    HW133096  14.695   8.038   8.614
10419SOL    HW233097  14.811   7.989   8.530
10420SOL     OW33098  14.835  14.785   8.121
10420SOL    HW133099  14.879  14.845   8.181
10420SOL    HW233100  14.748  14.823   8.108
10421SOL     OW33101   2.347  13.907  12.557
10421SOL    HW133102   2.339  13.848  12.482
10421SOL    HW233103   2.440  13.909  12.576
10422SOL     OW33104   0.504  12.564  11.052
10422SOL    HW133105   0.432  12.616  11.088
10422SOL    HW233106   0.506  12.485  11.106
10423SOL     OW33107  11.459   3.322   1.793
10423SOL    HW133108  11.504   3.398   1.754
10423SOL    HW233109  11.523   3.285   1.853
10424SOL     OW33110   7.567  11.773   7.562
10424SOL    HW133111   7.608  11.712   7.624
10424SOL    HW233112   7.478  11.739   7.551
10425SOL     OW33113  13.771   5.841   5.861
10425SOL    HW133114  13.780   5.857   5.955
10425SOL    HW233115  13.849   5.881   5.823
10426SOL     OW33116  11.705  11.861  14.345
10426SOL    HW133117  11.611  11.854  14.329
10426SOL    HW233118  11.719  11.812  14.426
10427SOL     OW33119  10.363   9.079   2.371
10427SOL    HW133120  10.436   9.043   2.422
10427SOL    HW233121  10.366   9.032   2.288
10428SOL     OW33122   0.118   4.664  13.436
10428SOL    HW133123   0.051   4.677  13.503
10428SOL    HW233124   0.141   4.753  13.409
10429SOL     OW33125   8.664  10.617  13.812
10429SOL    HW133126   8.702  10.673  13.745
10429SOL    HW233127   8.617  10.549  13.763
10430SOL     OW33128   2.435  13.508   5.043
10430SOL    HW133129   2.345  13.486   5.065
10430SOL    HW233130   2.471  13.427   5.005
10431SOL     OW33131   6.503  11.438   8.413
10431SOL    HW133132   6.507  11.475   8.325
10431SOL    HW233133   6.411  11.444   8.438
10432SOL     OW33134  13.206   8.218   9.753
10432SOL    HW133135  13.143   8.287   9.773
10432SOL    HW233136  13.291   8.260   9.765
10433SOL     OW33137   4.006   2.590   0.180
10433SOL    HW133138   3.918   2.569   0.210
10433SOL    HW233139   4.037   2.511   0.136
10434SOL     OW33140   7.419   7.069   6.625
10434SOL    HW133141   7.425   6.974   6.629
10434SOL    HW233142   7.486   7.100   6.686
10435SOL     OW33143   8.812   5.867   2.449
10435SOL    HW133144   8.821   5.955   2.483
10435SOL    HW233145   8.885   5.857   2.387
10436SOL     OW33146  14.716  10.153   3.230
10436SOL    HW133147  14.665  10.193   3.159
10436SOL    HW233148  14.782  10.101   3.184
10437SOL     OW33149   1.850  14.825   8.350
10437SOL    HW133150   1.784  14.757   8.357
10437SOL    HW233151   1.836  14.881   8.426
10438SOL     OW33152   8.175   2.402   2.950
10438SOL    HW133153   8.161   2.484   2.903
10438SOL    HW233154   8.142   2.419   3.038
10439SOL     OW33155   0.266   8.404   0.336
10439SOL    HW133156   0.334   8.362   0.388
10439SOL    HW233157   0.283   8.498   0.347
10440SOL     OW33158  12.285   7.537   8.817
10440SOL    HW133159  12.355   7.505   8.874
10440SOL    HW233160  12.324   7.612   8.771
10441SOL     OW33161   5.877   9.224   6.085
10441SOL    HW133162   5.874   9.142   6.135
10441SOL    HW233163   5.944   9.208   6.019
10442SOL     OW33164  14.729  14.715  11.381
10442SOL    HW133165  14.752  14.624  11.398
10442SOL    HW233166  14.654  14.710  11.321
10443SOL     OW33167   7.918   7.367   7.046
10443SOL    HW133168   7.947   7.305   7.113
10443SOL    HW233169   7.838   7.405   7.082
10444SOL     OW33170   6.404   7.934   1.218
10444SOL    HW133171   6.477   7.962   1.163
10444SOL    HW233172   6.420   7.841   1.233
10445SOL     OW33173  12.828  12.961  14.370
10445SOL    HW133174  12.747  12.911  14.383
10445SOL    HW233175  12.895  12.895  14.352
10446SOL     OW33176   6.320  11.377   9.710
10446SOL    HW133177   6.349  11.333   9.631
10446SOL    HW233178   6.384  11.351   9.777
10447SOL     OW33179  14.347   1.404  14.177
10447SOL    HW133180  14.323   1.474  14.238
10447SOL    HW233181  14.442   1.402  14.180
10448SOL     OW33182  13.009   2.685   6.720
10448SOL    HW133183  12.982   2.649   6.635
10448SOL    HW233184  13.075   2.623   6.751
10449SOL     OW33185   5.133   2.272   1.293
10449SOL    HW133186   5.060   2.270   1.354
10449SOL    HW233187   5.149   2.179   1.273
10450SOL     OW33188   6.390   0.197   5.895
10450SOL    HW133189   6.412   0.222   5.805
10450SOL    HW233190   6.440   0.259   5.949
10451SOL     OW33191   7.160   3.937   1.767
10451SOL    HW133192   7.216   3.915   1.842
10451SOL    HW233193   7.208   4.006   1.721
10452SOL     OW33194   6.787   4.198   5.897
10452SOL    HW133195   6.870   4.241   5.915
10452SOL    HW233196   6.757   4.167   5.982
10453SOL     OW33197   4.966  12.615  11.324
10453SOL    HW133198   5.037  12.582  11.379
10453SOL    HW233199   4.893  12.628  11.385
10454SOL     OW33200   5.641  12.116  10.207
10454SOL    HW133201   5.676  12.195  10.165
10454SOL    HW233202   5.569  12.090  10.150
10455SOL     OW33203   6.287   9.697   0.021
10455SOL    HW133204   6.201   9.736   0.039
10455SOL    HW233205   6.347   9.749   0.075
10456SOL     OW33206   4.040   7.964   7.759
10456SOL    HW133207   4.062   7.967   7.852
10456SOL    HW233208   4.015   7.873   7.742
10457SOL     OW33209  14.673   0.381  13.209
10457SOL    HW133210  14.629   0.458  13.171
10457SOL    HW233211  14.737   0.418  13.270
10458SOL     OW33212   1.669   6.490   5.626
10458SOL    HW133213   1.655   6.471   5.719
10458SOL    HW233214   1.657   6.585   5.619
10459SOL     OW33215  14.484   7.393   4.173
10459SOL    HW133216  14.399   7.435   4.161
10459SOL    HW233217  14.520   7.385   4.085
10460SOL     OW33218   5.524   0.032   4.202
10460SOL    HW133219   5.434   0.007   4.178
10460SOL    HW233220   5.549  14.850   4.268
10461SOL     OW33221  13.502   0.721   8.373
10461SOL    HW133222  13.580   0.774   8.354
10461SOL    HW233223  13.536   0.648   8.425
10462SOL     OW33224   7.202  10.364   9.552
10462SOL    HW133225   7.224  10.272   9.535
10462SOL    HW233226   7.222  10.377   9.645
10463SOL     OW33227   7.687   8.937   4.110
10463SOL    HW133228   7.664   8.870   4.046
10463SOL    HW233229   7.709   9.014   4.058
10464SOL     OW33230  10.228  14.307   3.731
10464SOL    HW133231  10.176  14.245   3.782
10464SOL    HW233232  10.233  14.385   3.786
10465SOL     OW33233   4.876  13.319  12.624
10465SOL    HW133234   4.840  13.232  12.604
10465SOL    HW233235   4.964  13.318  12.587
10466SOL     OW33236  11.248   0.305  11.847
10466SOL    HW133237  11.170   0.291  11.793
10466SOL    HW233238  11.242   0.396  11.875
10467SOL     OW33239  12.678  13.921  12.271
10467SOL    HW133240  12.699  13.906  12.179
10467SOL    HW233241  12.614  13.993  12.270
10468SOL     OW33242   4.819   6.081  11.843
10468SOL    HW133243   4.794   6.173  11.833
10468SOL    HW233244   4.899   6.084  11.895
10469SOL     OW33245   6.418  10.192  10.384
10469SOL    HW133246   6.371  10.274  10.400
10469SOL    HW233247   6.470  10.178  10.463
10470SOL     OW33248   4.185   6.087  13.359
10470SOL    HW133249   4.159   6.018  13.297
10470SOL    HW233250   4.231   6.151  13.304
10471SOL     OW33251   9.039  12.516  12.982
10471SOL    HW133252   8.974  12.484  12.920
10471SOL    HW233253   9.083  12.587  12.936
10472SOL     OW33254   7.887   1.325  14.053
10472SOL    HW133255   7.973   1.286  14.035
10472SOL    HW233256   7.861   1.364  13.970
10473SOL     OW33257  12.745  10.531  10.060
10473SOL    HW133258  12.685  10.503   9.991
10473SOL    HW233259  12.696  10.595  10.111
10474SOL     OW33260   6.378   1.821   5.559
10474SOL    HW133261   6.292   1.834   5.519
10474SOL    HW233262   6.382   1.728   5.579
10475SOL     OW33263   2.610   4.331  10.297
10475SOL    HW133264   2.633   4.251  10.344
10475SOL    HW233265   2.516   4.325  10.282
10476SOL     OW33266   4.571  12.777   8.509
10476SOL    HW133267   4.642  12.839   8.496
10476SOL    HW233268   4.494  12.821   8.473
10477SOL     OW33269  13.308   0.732   3.575
10477SOL    HW133270  13.313   0.771   3.662
10477SOL    HW233271  13.376   0.665   3.574
10478SOL     OW33272   1.892   8.536   8.435
10478SOL    HW133273   1.831   8.520   8.506
10478SOL    HW233274   1.918   8.449   8.406
10479SOL     OW33275  12.183   8.782  14.438
10479SOL    HW133276  12.134   8.702  14.422
10479SOL    HW233277  12.133   8.850  14.393
10480SOL     OW33278   6.473   1.395   0.971
10480SOL    HW133279   6.445   1.426   1.057
10480SOL    HW233280   6.420   1.446   0.908
10481SOL     OW33281   2.524   2.943   5.294
10481SOL    HW133282   2.608   2.900   5.315
10481SOL    HW233283   2.483   2.958   5.379
10482SOL     OW33284   1.313   8.643   2.141
10482SOL    HW133285   1.333   8.554   2.113
10482SOL    HW233286   1.237   8.634   2.198
10483SOL     OW33287   0.130  14.869  12.861
10483SOL    HW133288   0.081  14.813  12.920
10483SOL    HW233289   0.222  14.853  12.884
10484SOL     OW33290  11.447  10.034   1.775
10484SOL    HW133291  11.490   9.971   1.717
10484SOL    HW233292  11.509  10.048   1.847
10485SOL     OW33293  14.766   4.360  12.539
10485SOL    HW133294  14.829   4.321  12.477
10485SOL    HW233295  14.752   4.449  12.506
10486SOL     OW33296   6.564   6.884   0.609
10486SOL    HW133297   6.582   6.790   0.607
10486SOL    HW233298   6.644   6.925   0.578
10487SOL     OW33299  12.854   7.765   9.963
10487SOL    HW133300  12.820   7.710   9.892
10487SOL    HW233301  12.781   7.824   9.984
10488SOL     OW33302  13.356   0.319   3.915
10488SOL    HW133303  13.385   0.233   3.883
10488SOL    HW233304  13.310   0.300   3.996
10489SOL     OW33305   9.896  13.601   5.427
10489SOL    HW133306   9.909  13.660   5.502
10489SOL    HW233307   9.982  13.597   5.386
10490SOL     OW33308  12.236  13.166   1.997
10490SOL    HW133309  12.233  13.207   2.083
10490SOL    HW233310  12.264  13.236   1.938
10491SOL     OW33311  13.159   9.767   2.069
10491SOL    HW133312  13.229   9.826   2.043
10491SOL    HW233313  13.184   9.682   2.032
10492SOL     OW33314  13.310   7.967  11.970
10492SOL    HW133315  13.368   7.902  11.930
10492SOL    HW233316  13.222   7.941  11.942
10493SOL     OW33317   4.269  12.561  11.608
10493SOL    HW133318   4.288  12.476  11.566
10493SOL    HW233319   4.314  12.557  11.692
10494SOL     OW33320   4.495  11.004   9.327
10494SOL    HW133321   4.522  11.019   9.418
10494SOL    HW233322   4.574  11.021   9.276
10495SOL     OW33323   7.549   4.033  12.660
10495SOL    HW133324   7.569   3.982  12.581
10495SOL    HW233325   7.594   3.986  12.731
10496SOL     OW33326  11.303  13.892   9.822
10496SOL    HW133327  11.250  13.841   9.883
10496SOL    HW233328  11.349  13.826   9.770
10497SOL     OW33329   9.326   6.428   4.618
10497SOL    HW133330   9.271   6.365   4.665
10497SOL    HW233331   9.408   6.429   4.668
10498SOL     OW33332   7.879  13.646  13.324
10498SOL    HW133333   7.884  13.739  13.345
10498SOL    HW233334   7.946  13.605  13.379
10499SOL     OW33335   4.293  13.966   2.001
10499SOL    HW133336   4.198  13.960   1.995
10499SOL    HW233337   4.316  14.038   1.943
10500SOL     OW33338   8.002   8.481   9.923
10500SOL    HW133339   7.992   8.386   9.930
10500SOL    HW233340   7.914   8.514   9.905
10501SOL     OW33341  12.962   3.408   9.486
10501SOL    HW133342  13.006   3.462   9.552
10501SOL    HW233343  12.913   3.344   9.536
10502SOL     OW33344   2.716  10.858  11.209
10502SOL    HW133345   2.646  10.907  11.164
10502SOL    HW233346   2.682  10.768  11.214
10503SOL     OW33347   6.414   5.518   9.766
10503SOL    HW133348   6.495   5.543   9.809
10503SOL    HW233349   6.439   5.443   9.711
10504SOL     OW33350  11.981   7.675  13.823
10504SOL    HW133351  11.928   7.622  13.763
10504SOL    HW233352  11.977   7.763  13.788
10505SOL     OW33353   9.584   0.726  12.944
10505SOL    HW133354   9.525   0.651  12.934
10505SOL    HW233355   9.583   0.746  13.037
10506SOL     OW33356   7.062   2.177  11.096
10506SOL    HW133357   7.098   2.105  11.045
10506SOL    HW233358   7.096   2.256  11.054
10507SOL     OW33359  13.170   4.185   5.876
10507SOL    HW133360  13.240   4.211   5.817
10507SOL    HW233361  13.120   4.120   5.827
10508SOL     OW33362  14.683  11.154   3.988
10508SOL    HW133363  14.717  11.079   3.940
10508SOL    HW233364  14.588  11.139   3.992
10509SOL     OW33365  11.214   9.696  13.621
10509SOL    HW133366  11.239   9.699  13.713
10509SOL    HW233367  11.179   9.608  13.608
10510SOL     OW33368   9.183  13.669   4.156
10510SOL    HW133369   9.202  13.708   4.242
10510SOL    HW233370   9.212  13.578   4.164
10511SOL     OW33371   7.432   6.707   6.116
10511SOL    HW133372   7.444   6.657   6.197
10511SOL    HW233373   7.414   6.642   6.049
10512SOL     OW33374  14.032   0.619   0.527
10512SOL    HW133375  13.958   0.588   0.476
10512SOL    HW233376  13.993   0.671   0.597
10513SOL     OW33377   2.732   8.661   8.954
10513SOL    HW133378   2.645   8.635   8.924
10513SOL    HW233379   2.716   8.737   9.011
10514SOL     OW33380  13.239  11.151   5.865
10514SOL    HW133381  13.148  11.124   5.874
10514SOL    HW233382  13.241  11.240   5.902
10515SOL     OW33383   0.479   0.444   5.492
10515SOL    HW133384   0.527   0.503   5.550
10515SOL    HW233385   0.502   0.473   5.404
10516SOL     OW33386  13.321   0.655  13.541
10516SOL    HW133387  13.370   0.720  13.491
10516SOL    HW233388  13.246   0.703  13.576
10517SOL     OW33389   4.194   0.751   9.037
10517SOL    HW133390   4.234   0.837   9.026
10517SOL    HW233391   4.134   0.762   9.111
10518SOL     OW33392   0.833  13.674   2.145
10518SOL    HW133393   0.853  13.582   2.164
10518SOL    HW233394   0.747  13.672   2.102
10519SOL     OW33395   5.728   7.494   6.614
10519SOL    HW133396   5.725   7.418   6.674
10519SOL    HW233397   5.636   7.512   6.594
10520SOL     OW33398  11.025  11.234   3.411
10520SOL    HW133399  11.108  11.280   3.399
10520SOL    HW233400  11.042  11.145   3.380
10521SOL     OW33401   7.693  14.792   6.383
10521SOL    HW133402   7.736  14.827   6.461
10521SOL    HW233403   7.697  14.863   6.319
10522SOL     OW33404   0.507   8.449  11.686
10522SOL    HW133405   0.485   8.500  11.608
10522SOL    HW233406   0.470   8.499  11.758
10523SOL     OW33407  13.473   6.605  10.805
10523SOL    HW133408  13.561   6.568  10.794
10523SOL    HW233409  13.414   6.531  10.793
10524SOL     OW33410   4.939   4.937  11.833
10524SOL    HW133411   4.921   4.885  11.911
10524SOL    HW233412   4.963   5.024  11.866
10525SOL     OW33413   4.842   2.524   2.870
10525SOL    HW133414   4.904   2.502   2.939
10525SOL    HW233415   4.893   2.575   2.807
10526SOL     OW33416   1.178  11.249   1.731
10526SOL    HW133417   1.266  11.229   1.760
10526SOL    HW233418   1.191  11.307   1.655
10527SOL     OW33419   1.331   6.684  12.779
10527SOL    HW133420   1.353   6.690  12.872
10527SOL    HW233421   1.335   6.774  12.748
10528SOL     OW33422   7.891   8.447  11.595
10528SOL    HW133423   7.885   8.538  11.627
10528SOL    HW233424   7.809   8.407  11.623
10529SOL     OW33425  10.181   7.029   7.840
10529SOL    HW133426  10.157   6.958   7.900
10529SOL    HW233427  10.184   7.107   7.896
10530SOL     OW33428   3.745   5.208  10.854
10530SOL    HW133429   3.771   5.155  10.778
10530SOL    HW233430   3.805   5.283  10.852
10531SOL     OW33431  13.910  13.555  12.468
10531SOL    HW133432  13.857  13.629  12.499
10531SOL    HW233433  13.900  13.557  12.373
10532SOL     OW33434  14.140   4.182   6.967
10532SOL    HW133435  14.226   4.140   6.974
10532SOL    HW233436  14.088   4.144   7.038
10533SOL     OW33437  10.409   5.778   3.209
10533SOL    HW133438  10.493   5.767   3.164
10533SOL    HW233439  10.421   5.734   3.293
10534SOL     OW33440  11.795   2.328   1.379
10534SOL    HW133441  11.721   2.384   1.401
10534SOL    HW233442  11.760   2.265   1.315
10535SOL     OW33443   3.387   5.835   5.204
10535SOL    HW133444   3.420   5.757   5.160
10535SOL    HW233445   3.310   5.860   5.154
10536SOL     OW33446   8.879   3.506   5.007
10536SOL    HW133447   8.806   3.517   5.068
10536SOL    HW233448   8.868   3.418   4.972
10537SOL     OW33449   3.453   1.245   9.410
10537SOL    HW133450   3.371   1.214   9.449
10537SOL    HW233451   3.513   1.170   9.419
10538SOL     OW33452   0.456  12.194   8.252
10538SOL    HW133453   0.543  12.186   8.213
10538SOL    HW233454   0.418  12.271   8.209
10539SOL     OW33455   4.838   8.284  14.497
10539SOL    HW133456   4.844   8.232  14.417
10539SOL    HW233457   4.869   8.226  14.566
10540SOL     OW33458   2.897  11.282   2.629
10540SOL    HW133459   2.870  11.277   2.720
10540SOL    HW233460   2.948  11.363   2.623
10541SOL     OW33461  13.571   8.027  12.426
10541SOL    HW133462  13.582   7.993  12.337
10541SOL    HW233463  13.622   7.967  12.481
10542SOL     OW33464   5.264   3.982  13.018
10542SOL    HW133465   5.244   3.890  13.036
10542SOL    HW233466   5.347   3.980  12.970
10543SOL     OW33467   4.181   8.050  13.766
10543SOL    HW133468   4.220   7.964  13.783
10543SOL    HW233469   4.090   8.032  13.746
10544SOL     OW33470   4.279   3.119   9.832
10544SOL    HW133471   4.253   3.138   9.922
10544SOL    HW233472   4.263   3.025   9.822
10545SOL     OW33473   3.742  10.462   9.224
10545SOL    HW133474   3.698  10.514   9.291
10545SOL    HW233475   3.789  10.395   9.274
10546SOL     OW33476   6.703   7.963   6.146
10546SOL    HW133477   6.668   8.046   6.178
10546SOL    HW233478   6.797   7.980   6.134
10547SOL     OW33479   5.958   4.736   2.578
10547SOL    HW133480   5.935   4.661   2.523
10547SOL    HW233481   5.950   4.704   2.667
10548SOL     OW33482   6.410   7.368  13.960
10548SOL    HW133483   6.339   7.344  14.019
10548SOL    HW233484   6.460   7.435  14.008
10549SOL     OW33485   3.905   4.394  10.619
10549SOL    HW133486   3.965   4.369  10.550
10549SOL    HW233487   3.855   4.314  10.638
10550SOL     OW33488   5.452   9.130   2.521
10550SOL    HW133489   5.540   9.166   2.531
10550SOL    HW233490   5.416   9.129   2.610
10551SOL     OW33491   4.878   2.840   4.984
10551SOL    HW133492   4.795   2.811   5.021
10551SOL    HW233493   4.934   2.856   5.059
10552SOL     OW33494  10.796   4.108   2.201
10552SOL    HW133495  10.841   4.186   2.169
10552SOL    HW233496  10.862   4.038   2.195
10553SOL     OW33497   4.028   3.412  13.923
10553SOL    HW133498   4.090   3.461  13.869
10553SOL    HW233499   3.998   3.341  13.867
10554SOL     OW33500   3.496   5.440   5.074
10554SOL    HW133501   3.557   5.509   5.051
10554SOL    HW233502   3.551   5.364   5.095
10555SOL     OW33503   6.167   7.320   7.189
10555SOL    HW133504   6.110   7.281   7.256
10555SOL    HW233505   6.251   7.276   7.202
10556SOL     OW33506  10.422  10.194  14.322
10556SOL    HW133507  10.510  10.221  14.294
10556SOL    HW233508  10.430  10.180  14.417
10557SOL     OW33509   4.259   3.616   0.115
10557SOL    HW133510   4.288   3.565   0.191
10557SOL    HW233511   4.306   3.699   0.123
10558SOL     OW33512   0.654   6.009   9.236
10558SOL    HW133513   0.708   6.058   9.174
10558SOL    HW233514   0.586   6.070   9.262
10559SOL     OW33515  14.367  14.741  11.993
10559SOL    HW133516  14.329  14.829  11.991
10559SOL    HW233517  14.445  14.748  11.938
10560SOL     OW33518  11.700  12.763   6.973
10560SOL    HW133519  11.655  12.679   6.965
10560SOL    HW233520  11.774  12.745   7.030
10561SOL     OW33521   8.427   4.762   0.443
10561SOL    HW133522   8.460   4.704   0.513
10561SOL    HW233523   8.427   4.707   0.365
10562SOL     OW33524   3.958   0.437   2.630
10562SOL    HW133525   3.866   0.420   2.653
10562SOL    HW233526   3.961   0.425   2.535
10563SOL     OW33527  12.159   8.485   2.758
10563SOL    HW133528  12.112   8.479   2.675
10563SOL    HW233529  12.095   8.459   2.824
10564SOL     OW33530   8.617   9.880   7.148
10564SOL    HW133531   8.691   9.829   7.116
10564SOL    HW233532   8.656   9.950   7.200
10565SOL     OW33533   9.960   8.307   0.046
10565SOL    HW133534   9.974   8.220   0.082
10565SOL    HW233535  10.015   8.311  14.850
10566SOL     OW33536  10.257   3.845   3.156
10566SOL    HW133537  10.313   3.792   3.100
10566SOL    HW233538  10.268   3.808   3.244
10567SOL     OW33539  11.588  10.178   8.066
10567SOL    HW133540  11.676  10.172   8.103
10567SOL    HW233541  11.533  10.129   8.126
10568SOL     OW33542   5.296   8.815   3.550
10568SOL    HW133543   5.376   8.844   3.595
10568SOL    HW233544   5.233   8.802   3.621
10569SOL     OW33545   1.856  13.247   4.394
10569SOL    HW133546   1.880  13.157   4.376
10569SOL    HW233547   1.764  13.253   4.367
10570SOL     OW33548   6.821   5.679   1.617
10570SOL    HW133549   6.813   5.704   1.709
10570SOL    HW233550   6.908   5.710   1.592
10571SOL     OW33551   5.755   6.625   8.741
10571SOL    HW133552   5.831   6.572   8.768
10571SOL    HW233553   5.694   6.619   8.814
10572SOL     OW33554  13.390  14.663  11.988
10572SOL    HW133555  13.313  14.628  11.943
10572SOL    HW233556  13.354  14.721  12.055
10573SOL     OW33557  11.126  11.488  12.846
10573SOL    HW133558  11.218  11.483  12.871
10573SOL    HW233559  11.093  11.399  12.859
10574SOL     OW33560   4.292  10.735   2.445
10574SOL    HW133561   4.267  10.712   2.535
10574SOL    HW233562   4.383  10.764   2.453
10575SOL     OW33563   6.790   2.218  13.713
10575SOL    HW133564   6.872   2.182  13.748
10575SOL    HW233565   6.812   2.247  13.625
10576SOL     OW33566  11.774   4.461   9.519
10576SOL    HW133567  11.795   4.550   9.546
10576SOL    HW233568  11.846   4.435   9.462
10577SOL     OW33569  12.600   7.296  11.571
10577SOL    HW133570  12.630   7.366  11.629
10577SOL    HW233571  12.531   7.336  11.519
10578SOL     OW33572  11.392   9.503  10.384
10578SOL    HW133573  11.351   9.417  10.386
10578SOL    HW233574  11.365   9.544  10.467
10579SOL     OW33575   9.126  10.100  10.873
10579SOL    HW133576   9.176  10.025  10.841
10579SOL    HW233577   9.182  10.176  10.854
10580SOL     OW33578   4.522   6.627   2.235
10580SOL    HW133579   4.505   6.541   2.196
10580SOL    HW233580   4.453   6.683   2.198
10581SOL     OW33581   0.372   8.140  14.490
10581SOL    HW133582   0.416   8.079  14.549
10581SOL    HW233583   0.296   8.171  14.540
10582SOL     OW33584   6.236  11.359   4.272
10582SOL    HW133585   6.171  11.307   4.319
10582SOL    HW233586   6.222  11.448   4.302
10583SOL     OW33587   1.021   5.343   6.051
10583SOL    HW133588   1.012   5.314   5.960
10583SOL    HW233589   0.951   5.407   6.062
10584SOL     OW33590   5.275   2.637  13.607
10584SOL    HW133591   5.336   2.611  13.676
10584SOL    HW233592   5.329   2.683  13.543
10585SOL     OW33593   2.303  12.308   5.579
10585SOL    HW133594   2.285  12.345   5.493
10585SOL    HW233595   2.380  12.355   5.610
10586SOL     OW33596  14.743   2.938   9.296
10586SOL    HW133597  14.779   3.025   9.312
10586SOL    HW233598  14.652   2.944   9.326
10587SOL     OW33599  12.222   5.341   5.959
10587SOL    HW133600  12.249   5.433   5.965
10587SOL    HW233601  12.281   5.295   6.018
10588SOL     OW33602   2.028   7.047   2.553
10588SOL    HW133603   2.066   6.961   2.533
10588SOL    HW233604   2.104   7.105   2.562
10589SOL     OW33605  13.396   4.387  10.886
10589SOL    HW133606  13.347   4.445  10.945
10589SOL    HW233607  13.348   4.390  10.803
10590SOL     OW33608   2.545  13.142  14.048
10590SOL    HW133609   2.498  13.088  14.111
10590SOL    HW233610   2.625  13.167  14.093
10591SOL     OW33611  12.271   2.109   0.424
10591SOL    HW133612  12.323   2.106   0.343
10591SOL    HW233613  12.334   2.131   0.492
10592SOL     OW33614   5.222   9.875   6.970
10592SOL    HW133615   5.217   9.931   6.893
10592SOL    HW233616   5.281   9.803   6.945
10593SOL     OW33617   9.256   1.465   4.517
10593SOL    HW133618   9.307   1.442   4.440
10593SOL    HW233619   9.321   1.488   4.583
10594SOL     OW33620   7.097   3.523   3.057
10594SOL    HW133621   7.119   3.550   3.146
10594SOL    HW233622   7.027   3.582   3.030
10595SOL     OW33623   9.604   6.184  13.278
10595SOL    HW133624   9.646   6.194  13.364
10595SOL    HW233625   9.677   6.174  13.217
10596SOL     OW33626   3.556  10.981   4.830
10596SOL    HW133627   3.544  11.069   4.865
10596SOL    HW233628   3.579  10.928   4.906
10597SOL     OW33629   1.646   4.433   2.586
10597SOL    HW133630   1.586   4.471   2.522
10597SOL    HW233631   1.611   4.345   2.602
10598SOL     OW33632  14.581  11.688   0.911
10598SOL    HW133633  14.647  11.637   0.863
10598SOL    HW233634  14.606  11.779   0.895
10599SOL     OW33635   1.164   2.005   7.258
10599SOL    HW133636   1.167   2.056   7.339
10599SOL    HW233637   1.255   1.982   7.241
10600SOL     OW33638  14.461  13.414   8.692
10600SOL    HW133639  14.459  13.493   8.637
10600SOL    HW233640  14.489  13.445   8.778
10601SOL     OW33641   1.589  12.847   7.640
10601SOL    HW133642   1.564  12.897   7.718
10601SOL    HW233643   1.507  12.830   7.595
10602SOL     OW33644  13.986  11.873   8.913
10602SOL    HW133645  14.035  11.950   8.940
10602SOL    HW233646  14.011  11.858   8.822
10603SOL     OW33647   3.514  12.644   0.137
10603SOL    HW133648   3.472  12.573   0.185
10603SOL    HW233649   3.462  12.652   0.056
10604SOL     OW33650   2.652   2.091   5.862
10604SOL    HW133651   2.684   2.064   5.949
10604SOL    HW233652   2.730   2.120   5.816
10605SOL     OW33653   7.077   5.608   3.186
10605SOL    HW133654   7.014   5.679   3.198
10605SOL    HW233655   7.025   5.536   3.150
10606SOL     OW33656   9.993  10.121   7.283
10606SOL    HW133657   9.947  10.077   7.354
10606SOL    HW233658  10.053  10.055   7.249
10607SOL     OW33659   3.969   8.975   1.766
10607SOL    HW133660   4.040   8.977   1.702
10607SOL    HW233661   4.000   9.027   1.839
10608SOL     OW33662  12.112   7.257  12.259
10608SOL    HW133663  12.120   7.245  12.165
10608SOL    HW233664  12.123   7.351  12.272
10609SOL     OW33665  12.401   8.024   2.212
10609SOL    HW133666  12.490   8.009   2.242
10609SOL    HW233667  12.363   8.083   2.276
10610SOL     OW33668   4.816   2.411   5.621
10610SOL    HW133669   4.852   2.369   5.543
10610SOL    HW233670   4.822   2.344   5.689
10611SOL     OW33671   6.894   9.380   3.203
10611SOL    HW133672   6.847   9.380   3.286
10611SOL    HW233673   6.910   9.473   3.184
10612SOL     OW33674  14.777   5.057   7.122
10612SOL    HW133675  14.818   5.048   7.208
10612SOL    HW233676  14.695   5.104   7.139
10613SOL     OW33677  13.792  13.576   7.491
10613SOL    HW133678  13.876  13.590   7.447
10613SOL    HW233679  13.763  13.663   7.517
10614SOL     OW33680   5.466  14.676  11.350
10614SOL    HW133681   5.392  14.651  11.294
10614SOL    HW233682   5.451  14.628  11.432
10615SOL     OW33683   1.597   2.303   0.552
10615SOL    HW133684   1.653   2.377   0.574
10615SOL    HW233685   1.508   2.339   0.555
10616SOL     OW33686   2.911   8.049   4.750
10616SOL    HW133687   2.883   7.965   4.713
10616SOL    HW233688   2.959   8.025   4.830
10617SOL     OW33689   1.680   0.890  11.987
10617SOL    HW133690   1.618   0.819  12.003
10617SOL    HW233691   1.765   0.846  11.980
10618SOL     OW33692   4.134   4.553   1.582
10618SOL    HW133693   4.091   4.492   1.641
10618SOL    HW233694   4.069   4.571   1.514
10619SOL     OW33695   2.852   3.949   9.973
10619SOL    HW133696   2.772   3.973   9.926
10619SOL    HW233697   2.916   3.934   9.903
10620SOL     OW33698  10.730   3.205   2.233
10620SOL    HW133699  10.718   3.259   2.155
10620SOL    HW233700  10.672   3.130   2.219
10621SOL     OW33701   4.309   0.186   1.756
10621SOL    HW133702   4.296   0.281   1.751
10621SOL    HW233703   4.221   0.150   1.753
10622SOL     OW33704   8.340   7.681   8.930
10622SOL    HW133705   8.316   7.709   8.841
10622SOL    HW233706   8.286   7.604   8.947
10623SOL     OW33707  13.749   4.999  10.405
10623SOL    HW133708  13.653   5.001  10.404
10623SOL    HW233709  13.772   5.022  10.495
10624SOL     OW33710   8.377   1.059   8.101
10624SOL    HW133711   8.388   1.079   8.194
10624SOL    HW233712   8.440   1.117   8.057
10625SOL     OW33713  11.436   7.883   2.347
10625SOL    HW133714  11.505   7.873   2.413
10625SOL    HW233715  11.356   7.897   2.398
10626SOL     OW33716   5.710   2.727  14.522
10626SOL    HW133717   5.709   2.704  14.614
10626SOL    HW233718   5.647   2.668  14.481
10627SOL     OW33719   5.288   4.507   7.079
10627SOL    HW133720   5.250   4.568   7.143
10627SOL    HW233721   5.347   4.562   7.027
10628SOL     OW33722   3.804   2.358  10.380
10628SOL    HW133723   3.847   2.272  10.378
10628SOL    HW233724   3.838   2.403  10.303
10629SOL     OW33725   0.048  11.445  12.164
10629SOL    HW133726   0.063  11.533  12.129
10629SOL    HW233727  14.842  11.449  12.201
10630SOL     OW33728  10.906   7.970  10.493
10630SOL    HW133729  10.852   7.918  10.433
10630SOL    HW233730  10.926   8.050  10.444
10631SOL     OW33731   3.128  12.057   4.426
10631SOL    HW133732   3.053  12.112   4.449
10631SOL    HW233733   3.201  12.095   4.474
10632SOL     OW33734   7.697   6.431  13.535
10632SOL    HW133735   7.705   6.491  13.609
10632SOL    HW233736   7.787   6.415  13.507
10633SOL     OW33737   8.573  14.447  14.567
10633SOL    HW133738   8.478  14.435  14.558
10633SOL    HW233739   8.599  14.493  14.487
10634SOL     OW33740   8.657   1.116   6.225
10634SOL    HW133741   8.700   1.060   6.290
10634SOL    HW233742   8.675   1.073   6.141
10635SOL     OW33743   8.192   2.052   2.077
10635SOL    HW133744   8.146   2.106   2.141
10635SOL    HW233745   8.235   1.984   2.128
10636SOL     OW33746  12.464   4.357   8.379
10636SOL    HW133747  12.501   4.277   8.342
10636SOL    HW233748  12.532   4.423   8.366
10637SOL     OW33749   4.690   9.658   7.679
10637SOL    HW133750   4.700   9.608   7.598
10637SOL    HW233751   4.690   9.591   7.748
10638SOL     OW33752   8.098  11.867  12.090
10638SOL    HW133753   8.050  11.911  12.161
10638SOL    HW233754   8.029  11.833  12.033
10639SOL     OW33755   4.820   7.033   0.743
10639SOL    HW133756   4.884   7.034   0.672
10639SOL    HW233757   4.821   6.942   0.774
10640SOL     OW33758  11.947   7.268   6.589
10640SOL    HW133759  12.014   7.201   6.603
10640SOL    HW233760  11.920   7.294   6.677
10641SOL     OW33761   6.594   0.338   1.621
10641SOL    HW133762   6.600   0.375   1.709
10641SOL    HW233763   6.567   0.412   1.566
10642SOL     OW33764   1.449  12.397   7.933
10642SOL    HW133765   1.522  12.441   7.976
10642SOL    HW233766   1.428  12.323   7.990
10643SOL     OW33767  11.772   7.410  11.827
10643SOL    HW133768  11.712   7.478  11.855
10643SOL    HW233769  11.766   7.343  11.896
10644SOL     OW33770   1.703   9.161  10.882
10644SOL    HW133771   1.737   9.240  10.925
10644SOL    HW233772   1.674   9.192  10.796
10645SOL     OW33773  12.560   1.609   8.922
10645SOL    HW133774  12.600   1.695   8.909
10645SOL    HW233775  12.613   1.549   8.870
10646SOL     OW33776   4.695   6.678   2.681
10646SOL    HW133777   4.643   6.610   2.638
10646SOL    HW233778   4.728   6.731   2.609
10647SOL     OW33779   5.600   1.307   0.985
10647SOL    HW133780   5.626   1.219   0.958
10647SOL    HW233781   5.510   1.316   0.956
10648SOL     OW33782   4.931  14.274  11.078
10648SOL    HW133783   4.864  14.326  11.035
10648SOL    HW233784   5.010  14.289  11.026
10649SOL     OW33785  12.110   5.017   6.350
10649SOL    HW133786  12.027   5.007   6.397
10649SOL    HW233787  12.094   4.978   6.265
10650SOL     OW33788  12.266  14.688  10.932
10650SOL    HW133789  12.325  14.703  10.858
10650SOL    HW233790  12.205  14.622  10.901
10651SOL     OW33791   9.865   1.551   6.675
10651SOL    HW133792   9.869   1.522   6.766
10651SOL    HW233793   9.822   1.636   6.678
10652SOL     OW33794   8.109  11.325  11.049
10652SOL    HW133795   8.148  11.380  11.118
10652SOL    HW233796   8.111  11.380  10.971
10653SOL     OW33797  14.274   9.991   6.084
10653SOL    HW133798  14.348   9.940   6.051
10653SOL    HW233799  14.307  10.031   6.165
10654SOL     OW33800   7.139  14.838  11.740
10654SOL    HW133801   7.208  14.776  11.716
10654SOL    HW233802   7.094  14.798  11.814
10655SOL     OW33803  11.458  11.576  13.587
10655SOL    HW133804  11.513  11.611  13.518
10655SOL    HW233805  11.502  11.495  13.614
10656SOL     OW33806  10.147  10.088   7.681
10656SOL    HW133807  10.071  10.136   7.648
10656SOL    HW233808  10.222  10.134   7.643
10657SOL     OW33809  14.860   3.633   4.284
10657SOL    HW133810   0.018   3.649   4.198
10657SOL    HW233811   0.052   3.634   4.345
10658SOL     OW33812   9.694   6.741   9.225
10658SOL    HW133813   9.787   6.737   9.246
10658SOL    HW233814   9.670   6.651   9.205
10659SOL     OW33815   1.163   9.742  10.111
10659SOL    HW133816   1.119   9.803  10.052
10659SOL    HW233817   1.235   9.791  10.149
10660SOL     OW33818   7.263   1.169   4.733
10660SOL    HW133819   7.318   1.170   4.811
10660SOL    HW233820   7.294   1.094   4.682
10661SOL     OW33821   4.016  14.065   1.412
10661SOL    HW133822   4.106  14.076   1.444
10661SOL    HW233823   3.962  14.118   1.471
10662SOL     OW33824   8.962  12.185   1.880
10662SOL    HW133825   8.875  12.194   1.840
10662SOL    HW233826   8.945  12.146   1.966
10663SOL     OW33827  11.506  14.554  13.673
10663SOL    HW133828  11.468  14.467  13.661
10663SOL    HW233829  11.593  14.548  13.632
10664SOL     OW33830   2.290   2.890   2.859
10664SOL    HW133831   2.284   2.833   2.783
10664SOL    HW233832   2.213   2.947   2.853
10665SOL     OW33833  13.364   4.594  13.783
10665SOL    HW133834  13.446   4.614  13.829
10665SOL    HW233835  13.390   4.532  13.714
10666SOL     OW33836  12.357  12.274   0.283
10666SOL    HW133837  12.384  12.262   0.192
10666SOL    HW233838  12.372  12.188   0.323
10667SOL     OW33839  10.784  13.470   8.531
10667SOL    HW133840  10.803  13.428   8.448
10667SOL    HW233841  10.688  13.473   8.536
10668SOL     OW33842   8.413  14.371  13.774
10668SOL    HW133843   8.500  14.367  13.813
10668SOL    HW233844   8.355  14.335  13.841
10669SOL     OW33845   9.706   4.118   9.306
10669SOL    HW133846   9.624   4.145   9.266
10669SOL    HW233847   9.739   4.049   9.248
10670SOL     OW33848   6.362  11.384   7.025
10670SOL    HW133849   6.328  11.443   7.092
10670SOL    HW233850   6.443  11.349   7.062
10671SOL     OW33851   9.810   4.900   2.807
10671SOL    HW133852   9.761   4.889   2.888
10671SOL    HW233853   9.900   4.877   2.830
10672SOL     OW33854   5.778  11.245   6.939
10672SOL    HW133855   5.701  11.291   6.905
10672SOL    HW233856   5.829  11.223   6.862
10673SOL     OW33857  11.567   3.831   1.358
10673SOL    HW133858  11.579   3.913   1.310
10673SOL    HW233859  11.531   3.770   1.293
10674SOL     OW33860   8.348   0.719   9.636
10674SOL    HW133861   8.385   0.802   9.604
10674SOL    HW233862   8.314   0.676   9.558
10675SOL     OW33863   4.307  14.106   6.527
10675SOL    HW133864   4.344  14.047   6.462
10675SOL    HW233865   4.273  14.180   6.476
10676SOL     OW33866  12.849   8.556   3.476
10676SOL    HW133867  12.848   8.587   3.566
10676SOL    HW233868  12.810   8.627   3.425
10677SOL     OW33869   4.073   1.379   4.144
10677SOL    HW133870   4.157   1.335   4.155
10677SOL    HW233871   4.036   1.383   4.232
10678SOL     OW33872  13.166   6.534   3.908
10678SOL    HW133873  13.073   6.557   3.916
10678SOL    HW233874  13.169   6.469   3.838
10679SOL     OW33875   3.620   9.345   9.233
10679SOL    HW133876   3.607   9.392   9.315
10679SOL    HW233877   3.561   9.388   9.171
10680SOL     OW33878   5.141   8.879   9.095
10680SOL    HW133879   5.102   8.865   9.181
10680SOL    HW233880   5.207   8.947   9.109
10681SOL     OW33881   7.883  12.348  10.151
10681SOL    HW133882   7.916  12.310  10.233
10681SOL    HW233883   7.903  12.282  10.085
10682SOL     OW33884  14.207  14.739  13.690
10682SOL    HW133885  14.248  14.779  13.767
10682SOL    HW233886  14.237  14.649  13.690
10683SOL     OW33887   2.812   5.591   2.946
10683SOL    HW133888   2.903   5.605   2.973
10683SOL    HW233889   2.761   5.652   3.000
10684SOL     OW33890   6.786   0.479   0.319
10684SOL    HW133891   6.845   0.555   0.322
10684SOL    HW233892   6.814   0.424   0.392
10685SOL     OW33893   8.716   5.196   7.239
10685SOL    HW133894   8.726   5.180   7.333
10685SOL    HW233895   8.764   5.277   7.223
10686SOL     OW33896   8.838   8.275   0.875
10686SOL    HW133897   8.814   8.312   0.960
10686SOL    HW233898   8.877   8.347   0.827
10687SOL     OW33899   1.762   7.629   6.819
10687SOL    HW133900   1.848   7.669   6.812
10687SOL    HW233901   1.716   7.682   6.884
10688SOL     OW33902   3.097   0.742  13.320
10688SOL    HW133903   3.169   0.750  13.258
10688SOL    HW233904   3.034   0.809  13.293
10689SOL     OW33905  10.671   3.161   7.631
10689SOL    HW133906  10.671   3.229   7.565
10689SOL    HW233907  10.685   3.207   7.714
10690SOL     OW33908   7.784  14.689   7.544
10690SOL    HW133909   7.856  14.750   7.524
10690SOL    HW233910   7.817  14.604   7.516
10691SOL     OW33911   4.964  10.120   4.965
10691SOL    HW133912   4.873  10.092   4.977
10691SOL    HW233913   5.009  10.042   4.932
10692SOL     OW33914   7.635   4.753   0.499
10692SOL    HW133915   7.563   4.814   0.513
10692SOL    HW233916   7.621   4.719   0.410
10693SOL     OW33917   7.719   7.658  14.479
10693SOL    HW133918   7.762   7.626  14.400
10693SOL    HW233919   7.782   7.718  14.519
10694SOL     OW33920   1.312   6.402   7.174
10694SOL    HW133921   1.320   6.455   7.094
10694SOL    HW233922   1.399   6.364   7.186
10695SOL     OW33923   1.548  11.308  10.469
10695SOL    HW133924   1.569  11.389  10.514
10695SOL    HW233925   1.474  11.330  10.413
10696SOL     OW33926   3.750  10.062   6.053
10696SOL    HW133927   3.784   9.979   6.086
10696SOL    HW233928   3.684  10.089   6.117
10697SOL     OW33929   0.783  10.266   9.226
10697SOL    HW133930   0.798  10.354   9.191
10697SOL    HW233931   0.827  10.208   9.164
10698SOL     OW33932   3.684  10.614  12.187
10698SOL    HW133933   3.715  10.552  12.120
10698SOL    HW233934   3.760  10.626  12.245
10699SOL     OW33935   5.779   5.525   1.664
10699SOL    HW133936   5.863   5.480   1.675
10699SOL    HW233937   5.719   5.478   1.722
10700SOL     OW33938   3.095   3.994   0.279
10700SOL    HW133939   3.100   3.903   0.308
10700SOL    HW233940   3.168   4.038   0.323
10701SOL     OW33941  10.732   8.336   0.415
10701SOL    HW133942  10.674   8.402   0.452
10701SOL    HW233943  10.675   8.260   0.401
10702SOL     OW33944   6.807  10.286  13.916
10702SOL    HW133945   6.877  10.337  13.876
10702SOL    HW233946   6.794  10.211  13.857
10703SOL     OW33947  12.524   3.897  11.929
10703SOL    HW133948  12.566   3.902  11.843
10703SOL    HW233949  12.539   3.983  11.968
10704SOL     OW33950   7.055   9.417  10.224
10704SOL    HW133951   7.015   9.498  10.256
10704SOL    HW233952   6.980   9.357  10.213
10705SOL     OW33953   5.623   9.438   9.597
10705SOL    HW133954   5.593   9.497   9.667
10705SOL    HW233955   5.620   9.351   9.636
10706SOL     OW33956   9.985   0.620  11.464
10706SOL    HW133957  10.072   0.659  11.476
10706SOL    HW233958   9.924   0.688  11.491
10707SOL     OW33959  14.158  10.602   4.562
10707SOL    HW133960  14.126  10.647   4.640
10707SOL    HW233961  14.098  10.529   4.551
10708SOL     OW33962   0.382   9.779   7.588
10708SOL    HW133963   0.309   9.837   7.607
10708SOL    HW233964   0.375   9.709   7.654
10709SOL     OW33965  10.364   4.802   5.540
10709SOL    HW133966  10.330   4.751   5.613
10709SOL    HW233967  10.459   4.790   5.545
10710SOL     OW33968   3.564   1.620   8.863
10710SOL    HW133969   3.556   1.703   8.817
10710SOL    HW233970   3.635   1.575   8.818
10711SOL     OW33971   9.906  12.306   0.657
10711SOL    HW133972   9.927  12.329   0.748
10711SOL    HW233973   9.839  12.237   0.666
10712SOL     OW33974   5.395  13.994   0.493
10712SOL    HW133975   5.337  14.023   0.423
10712SOL    HW233976   5.436  14.074   0.526
10713SOL     OW33977   4.628   6.800   1.570
10713SOL    HW133978   4.689   6.873   1.578
10713SOL    HW233979   4.548   6.830   1.612
10714SOL     OW33980   5.506   9.562  10.632
10714SOL    HW133981   5.437   9.616  10.593
10714SOL    HW233982   5.513   9.595  10.722
10715SOL     OW33983  14.773  11.529   0.011
10715SOL    HW133984  14.798  11.581   0.087
10715SOL    HW233985  14.717  11.460   0.046
10716SOL     OW33986   2.025  11.777  10.766
10716SOL    HW133987   2.022  11.689  10.805
10716SOL    HW233988   2.118  11.793  10.750
10717SOL     OW33989   7.451   5.504   1.993
10717SOL    HW133990   7.400   5.468   2.066
10717SOL    HW233991   7.504   5.573   2.033
10718SOL     OW33992   0.673  14.607   0.124
10718SOL    HW133993   0.680  14.629   0.031
10718SOL    HW233994   0.579  14.610   0.142
10719SOL     OW33995   3.862   3.459   3.304
10719SOL    HW133996   3.828   3.466   3.393
10719SOL    HW233997   3.923   3.386   3.308
10720SOL     OW33998   3.472   8.415  13.090
10720SOL    HW133999   3.478   8.322  13.113
10720SOL    HW234000   3.560   8.450  13.106
10721SOL     OW34001   1.401   7.635  14.138
10721SOL    HW134002   1.332   7.655  14.202
10721SOL    HW234003   1.458   7.573  14.183
10722SOL     OW34004   1.039   3.083   3.487
10722SOL    HW134005   1.024   3.155   3.426
10722SOL    HW234006   1.131   3.093   3.512
10723SOL     OW34007  14.024  10.319   2.137
10723SOL    HW134008  13.952  10.345   2.193
10723SOL    HW234009  13.983  10.285   2.058
10724SOL     OW34010  12.779   5.590   9.414
10724SOL    HW134011  12.686   5.571   9.424
10724SOL    HW234012  12.809   5.610   9.502
10725SOL     OW34013   8.702   5.880  12.141
10725SOL    HW134014   8.681   5.970  12.117
10725SOL    HW234015   8.622   5.849  12.185
10726SOL     OW34016   4.917   6.320   5.073
10726SOL    HW134017   4.924   6.414   5.090
10726SOL    HW234018   4.841   6.292   5.124
10727SOL     OW34019  12.250   2.080   5.811
10727SOL    HW134020  12.305   2.013   5.769
10727SOL    HW234021  12.165   2.038   5.821
10728SOL     OW34022  13.747   6.731   0.562
10728SOL    HW134023  13.665   6.770   0.592
10728SOL    HW234024  13.797   6.715   0.642
10729SOL     OW34025   6.239   3.164   2.244
10729SOL    HW134026   6.235   3.101   2.173
10729SOL    HW234027   6.251   3.249   2.201
10730SOL     OW34028   7.784   4.374   0.296
10730SOL    HW134029   7.750   4.462   0.310
10730SOL    HW234030   7.792   4.366   0.201
10731SOL     OW34031  12.016  10.722  11.063
10731SOL    HW134032  12.092  10.742  11.118
10731SOL    HW234033  11.960  10.667  11.118
10732SOL     OW34034  12.906  12.218   6.831
10732SOL    HW134035  12.870  12.245   6.916
10732SOL    HW234036  12.833  12.175   6.786
10733SOL     OW34037   0.627  14.712  10.030
10733SOL    HW134038   0.600  14.802  10.050
10733SOL    HW234039   0.601  14.699   9.938
10734SOL     OW34040  11.389   5.662  11.964
10734SOL    HW134041  11.473   5.617  11.950
10734SOL    HW234042  11.339   5.604  12.020
10735SOL     OW34043   7.918   1.565   6.589
10735SOL    HW134044   7.907   1.651   6.630
10735SOL    HW234045   7.983   1.521   6.643
10736SOL     OW34046   4.304   6.856   7.424
10736SOL    HW134047   4.295   6.942   7.385
10736SOL    HW234048   4.388   6.858   7.470
10737SOL     OW34049  11.895  11.216   4.338
10737SOL    HW134050  11.865  11.277   4.405
10737SOL    HW234051  11.895  11.130   4.381
10738SOL     OW34052  14.628   3.480   0.843
10738SOL    HW134053  14.710   3.529   0.834
10738SOL    HW234054  14.560   3.547   0.846
10739SOL     OW34055   2.672   8.024   1.111
10739SOL    HW134056   2.710   8.101   1.153
10739SOL    HW234057   2.735   8.000   1.043
10740SOL     OW34058   8.397   3.353  14.049
10740SOL    HW134059   8.492   3.354  14.037
10740SOL    HW234060   8.381   3.419  14.117
10741SOL     OW34061   1.679   3.904   4.561
10741SOL    HW134062   1.771   3.926   4.573
10741SOL    HW234063   1.674   3.866   4.473
10742SOL     OW34064   2.992   9.359   2.945
10742SOL    HW134065   3.076   9.369   2.990
10742SOL    HW234066   2.928   9.349   3.015
10743SOL     OW34067   4.082  14.882  11.938
10743SOL    HW134068   4.057   0.047  11.859
10743SOL    HW234069   4.028   0.040  12.007
10744SOL     OW34070   7.656  11.244  12.271
10744SOL    HW134071   7.603  11.276  12.344
10744SOL    HW234072   7.618  11.159  12.249
10745SOL     OW34073   2.438   3.908  13.879
10745SOL    HW134074   2.453   3.814  13.870
10745SOL    HW234075   2.450   3.943  13.791
10746SOL     OW34076   3.188   0.716  11.439
10746SOL    HW134077   3.211   0.670  11.358
10746SOL    HW234078   3.111   0.670  11.472
10747SOL     OW34079   3.890   7.712  12.508
10747SOL    HW134080   3.921   7.661  12.583
10747SOL    HW234081   3.905   7.655  12.433
10748SOL     OW34082   9.726   4.376   9.795
10748SOL    HW134083   9.767   4.298   9.831
10748SOL    HW234084   9.663   4.343   9.731
10749SOL     OW34085   4.121  12.231   5.732
10749SOL    HW134086   4.145  12.138   5.736
10749SOL    HW234087   4.039  12.238   5.781
10750SOL     OW34088  13.974   2.453  10.784
10750SOL    HW134089  14.035   2.416  10.848
10750SOL    HW234090  14.028   2.471  10.707
10751SOL     OW34091   9.519   3.514   8.677
10751SOL    HW134092   9.424   3.503   8.683
10751SOL    HW234093   9.547   3.529   8.767
10752SOL     OW34094   0.758   3.976  12.848
10752SOL    HW134095   0.839   4.014  12.882
10752SOL    HW234096   0.750   4.013  12.760
10753SOL     OW34097   8.790   1.889   8.872
10753SOL    HW134098   8.880   1.877   8.902
10753SOL    HW234099   8.798   1.905   8.778
10754SOL     OW34100  10.264   9.070   5.520
10754SOL    HW134101  10.315   9.092   5.442
10754SOL    HW234102  10.214   9.150   5.539
10755SOL     OW34103  10.633   4.867  13.614
10755SOL    HW134104  10.617   4.790  13.669
10755SOL    HW234105  10.565   4.929  13.640
10756SOL     OW34106   1.922   2.219   9.665
10756SOL    HW134107   1.980   2.169   9.608
10756SOL    HW234108   1.834   2.194   9.638
10757SOL     OW34109   7.622   8.948  14.650
10757SOL    HW134110   7.553   8.916  14.708
10757SOL    HW234111   7.665   9.018  14.700
10758SOL     OW34112   4.585  13.024   4.798
10758SOL    HW134113   4.492  13.028   4.775
10758SOL    HW234114   4.631  13.049   4.718
10759SOL     OW34115   7.534  14.684  11.171
10759SOL    HW134116   7.564  14.764  11.129
10759SOL    HW234117   7.526  14.621  11.099
10760SOL     OW34118   2.635   0.146  14.717
10760SOL    HW134119   2.694   0.077  14.687
10760SOL    HW234120   2.587   0.172  14.638
10761SOL     OW34121   8.156   9.290   0.276
10761SOL    HW134122   8.075   9.250   0.308
10761SOL    HW234123   8.127   9.372   0.235
10762SOL     OW34124  11.899  12.418   6.303
10762SOL    HW134125  11.950  12.360   6.247
10762SOL    HW234126  11.955  12.495   6.315
10763SOL     OW34127  11.626   5.075  14.397
10763SOL    HW134128  11.597   4.991  14.359
10763SOL    HW234129  11.561   5.138  14.367
10764SOL     OW34130   1.263  11.122   8.743
10764SOL    HW134131   1.273  11.192   8.808
10764SOL    HW234132   1.322  11.053   8.773
10765SOL     OW34133   0.021   7.687  12.571
10765SOL    HW134134   0.085   7.749  12.607
10765SOL    HW234135  14.868   7.732  12.494
10766SOL     OW34136  14.815   3.855  11.439
10766SOL    HW134137  14.839   3.763  11.434
10766SOL    HW234138  14.811   3.874  11.533
10767SOL     OW34139  12.207   1.255   9.307
10767SOL    HW134140  12.153   1.191   9.262
10767SOL    HW234141  12.292   1.212   9.317
10768SOL     OW34142   2.818   7.359  13.769
10768SOL    HW134143   2.820   7.454  13.757
10768SOL    HW234144   2.791   7.347  13.860
10769SOL     OW34145   3.632  14.336   9.317
10769SOL    HW134146   3.716  14.331   9.272
10769SOL    HW234147   3.652  14.377   9.401
10770SOL     OW34148  10.422  13.318   0.571
10770SOL    HW134149  10.338  13.361   0.586
10770SOL    HW234150  10.432  13.315   0.476
10771SOL     OW34151  10.452   2.140   4.461
10771SOL    HW134152  10.520   2.077   4.487
10771SOL    HW234153  10.371   2.103   4.496
10772SOL     OW34154   4.850   9.906   2.345
10772SOL    HW134155   4.790   9.885   2.417
10772SOL    HW234156   4.797   9.899   2.266
10773SOL     OW34157   2.504   1.245  12.447
10773SOL    HW134158   2.539   1.308  12.510
10773SOL    HW234159   2.426   1.289  12.411
10774SOL     OW34160   1.408   7.239   2.769
10774SOL    HW134161   1.338   7.304   2.761
10774SOL    HW234162   1.419   7.204   2.680
10775SOL     OW34163   0.581   6.738   5.172
10775SOL    HW134164   0.530   6.761   5.095
10775SOL    HW234165   0.546   6.654   5.200
10776SOL     OW34166   6.510   0.787   6.182
10776SOL    HW134167   6.450   0.787   6.107
10776SOL    HW234168   6.464   0.736   6.249
10777SOL     OW34169   9.449  14.860  14.848
10777SOL    HW134170   9.437  14.797  14.776
10777SOL    HW234171   9.430  14.810   0.045
10778SOL     OW34172  12.318   5.209   3.026
10778SOL    HW134173  12.410   5.186   3.012
10778SOL    HW234174  12.304   5.198   3.120
10779SOL     OW34175   1.146  10.465  11.980
10779SOL    HW134176   1.113  10.394  12.035
10779SOL    HW234177   1.082  10.472  11.909
10780SOL     OW34178  11.108   6.014   4.470
10780SOL    HW134179  11.141   6.099   4.500
10780SOL    HW234180  11.112   6.019   4.375
10781SOL     OW34181  10.486   7.211   2.405
10781SOL    HW134182  10.439   7.130   2.422
10781SOL    HW234183  10.502   7.211   2.311
10782SOL     OW34184   9.564   0.242  14.748
10782SOL    HW134185   9.553   0.153  14.781
10782SOL    HW234186   9.535   0.299  14.819
10783SOL     OW34187  12.609  11.757  11.440
10783SOL    HW134188  12.643  11.740  11.352
10783SOL    HW234189  12.530  11.703  11.446
10784SOL     OW34190   5.516  13.397   0.175
10784SOL    HW134191   5.558  13.476   0.208
10784SOL    HW234192   5.564  13.377   0.094
10785SOL     OW34193   9.145  12.223   5.888
10785SOL    HW134194   9.156  12.309   5.847
10785SOL    HW234195   9.150  12.240   5.982
10786SOL     OW34196   7.009   6.893   8.408
10786SOL    HW134197   7.078   6.913   8.345
10786SOL    HW234198   7.013   6.798   8.420
10787SOL     OW34199  12.913   8.953   6.812
10787SOL    HW134200  12.918   8.984   6.902
10787SOL    HW234201  12.891   9.031   6.761
10788SOL     OW34202   0.111   8.876   9.651
10788SOL    HW134203   0.199   8.845   9.631
10788SOL    HW234204   0.097   8.950   9.591
10789SOL     OW34205   7.786  11.300   4.291
10789SOL    HW134206   7.710  11.248   4.317
10789SOL    HW234207   7.793  11.368   4.359
10790SOL     OW34208  11.674   6.167   1.674
10790SOL    HW134209  11.664   6.195   1.583
10790SOL    HW234210  11.742   6.099   1.671
10791SOL     OW34211   8.604   2.102   0.024
10791SOL    HW134212   8.560   2.093   0.109
10791SOL    HW234213   8.544   2.156  14.854
10792SOL     OW34214   2.976  14.079  12.406
10792SOL    HW134215   2.955  14.048  12.318
10792SOL    HW234216   3.046  14.020  12.435
10793SOL     OW34217   8.613  10.233   4.628
10793SOL    HW134218   8.651  10.307   4.676
10793SOL    HW234219   8.668  10.225   4.550
10794SOL     OW34220  14.566   0.791  12.158
10794SOL    HW134221  14.652   0.789  12.200
10794SOL    HW234222  14.557   0.881  12.127
10795SOL     OW34223   4.309   7.139  12.432
10795SOL    HW134224   4.341   7.165  12.345
10795SOL    HW234225   4.214   7.132  12.422
10796SOL     OW34226   3.115   8.782   3.640
10796SOL    HW134227   3.166   8.717   3.590
10796SOL    HW234228   3.149   8.775   3.729
10797SOL     OW34229   6.805   9.020   5.176
10797SOL    HW134230   6.838   9.095   5.226
10797SOL    HW234231   6.884   8.979   5.140
10798SOL     OW34232   2.006  10.070   9.733
10798SOL    HW134233   1.943  10.008   9.769
10798SOL    HW234234   2.020  10.041   9.643
10799SOL     OW34235   1.893  14.395  13.827
10799SOL    HW134236   1.963  14.441  13.873
10799SOL    HW234237   1.903  14.304  13.853
10800SOL     OW34238   1.137   3.032  12.844
10800SOL    HW134239   1.089   2.990  12.772
10800SOL    HW234240   1.181   2.959  12.889
10801SOL     OW34241   3.941   7.560   0.283
10801SOL    HW134242   3.851   7.528   0.294
10801SOL    HW234243   3.932   7.638   0.229
10802SOL     OW34244  12.382   1.735   3.528
10802SOL    HW134245  12.444   1.699   3.464
10802SOL    HW234246  12.425   1.815   3.559
10803SOL     OW34247   8.704  10.159   4.358
10803SOL    HW134248   8.797  10.177   4.349
10803SOL    HW234249   8.699  10.065   4.375
10804SOL     OW34250  11.226  11.279   1.244
10804SOL    HW134251  11.226  11.353   1.305
10804SOL    HW234252  11.228  11.201   1.301
10805SOL     OW34253  12.565   9.237   5.495
10805SOL    HW134254  12.576   9.213   5.403
10805SOL    HW234255  12.617   9.317   5.505
10806SOL     OW34256   6.556  14.814  12.355
10806SOL    HW134257   6.481  14.786  12.303
10806SOL    HW234258   6.630  14.766  12.317
10807SOL     OW34259  12.975   5.632   6.830
10807SOL    HW134260  13.027   5.712   6.822
10807SOL    HW234261  12.967   5.599   6.740
10808SOL     OW34262   2.225   9.563  12.064
10808SOL    HW134263   2.157   9.530  12.124
10808SOL    HW234264   2.284   9.489  12.051
10809SOL     OW34265  14.804   2.795  13.519
10809SOL    HW134266  14.842   2.708  13.534
10809SOL    HW234267  14.863   2.856  13.563
10810SOL     OW34268  10.744   9.352   3.197
10810SOL    HW134269  10.809   9.282   3.198
10810SOL    HW234270  10.673   9.317   3.142
10811SOL     OW34271  12.321   3.068   7.271
10811SOL    HW134272  12.383   2.996   7.262
10811SOL    HW234273  12.372   3.138   7.312
10812SOL     OW34274   2.169   8.485   7.323
10812SOL    HW134275   2.233   8.553   7.303
10812SOL    HW234276   2.091   8.533   7.352
10813SOL     OW34277  13.589   1.980   2.253
10813SOL    HW134278  13.637   2.052   2.211
10813SOL    HW234279  13.504   1.979   2.210
10814SOL     OW34280  10.017  11.078   2.252
10814SOL    HW134281   9.945  11.049   2.196
10814SOL    HW234282  10.091  11.023   2.226
10815SOL     OW34283   8.892   5.688   4.712
10815SOL    HW134284   8.798   5.703   4.720
10815SOL    HW234285   8.930   5.776   4.709
10816SOL     OW34286   3.229   9.612   3.147
10816SOL    HW134287   3.167   9.685   3.151
10816SOL    HW234288   3.176   9.536   3.172
10817SOL     OW34289   9.252   4.875  12.208
10817SOL    HW134290   9.211   4.799  12.251
10817SOL    HW234291   9.246   4.945  12.273
10818SOL     OW34292  12.147   1.442  12.985
10818SOL    HW134293  12.242   1.439  12.990
10818SOL    HW234294  12.118   1.358  13.022
10819SOL     OW34295   3.736   0.049   2.197
10819SOL    HW134296   3.674   0.003   2.253
10819SOL    HW234297   3.690   0.128   2.168
10820SOL     OW34298   0.465   6.484   7.821
10820SOL    HW134299   0.462   6.505   7.914
10820SOL    HW234300   0.513   6.556   7.781
10821SOL     OW34301   8.434  14.276  11.052
10821SOL    HW134302   8.529  14.284  11.044
10821SOL    HW234303   8.400  14.357  11.015
10822SOL     OW34304   1.482   3.822   8.592
10822SOL    HW134305   1.494   3.728   8.584
10822SOL    HW234306   1.390   3.837   8.572
10823SOL     OW34307   7.005   5.035   1.007
10823SOL    HW134308   7.035   5.122   1.035
10823SOL    HW234309   6.983   4.990   1.089
10824SOL     OW34310   5.653   6.879   7.185
10824SOL    HW134311   5.656   6.972   7.164
10824SOL    HW234312   5.578   6.846   7.136
10825SOL     OW34313   7.658   2.692   3.782
10825SOL    HW134314   7.627   2.685   3.692
10825SOL    HW234315   7.739   2.641   3.784
10826SOL     OW34316   1.566  10.664   9.397
10826SOL    HW134317   1.645  10.679   9.344
10826SOL    HW234318   1.500  10.634   9.334
10827SOL     OW34319  11.455   3.445   7.446
10827SOL    HW134320  11.376   3.473   7.491
10827SOL    HW234321  11.474   3.517   7.385
10828SOL     OW34322   8.528  11.872   5.251
10828SOL    HW134323   8.534  11.795   5.308
10828SOL    HW234324   8.441  11.907   5.268
10829SOL     OW34325   6.578   5.906   9.976
10829SOL    HW134326   6.487   5.876   9.984
10829SOL    HW234327   6.578   5.963   9.899
10830SOL     OW34328  13.900   0.661  12.382
10830SOL    HW134329  13.839   0.698  12.446
10830SOL    HW234330  13.957   0.604  12.434
10831SOL     OW34331  13.797   5.913   6.145
10831SOL    HW134332  13.889   5.921   6.169
10831SOL    HW234333  13.757   5.995   6.174
10832SOL     OW34334   6.562   5.980   9.701
10832SOL    HW134335   6.550   5.893   9.663
10832SOL    HW234336   6.591   6.034   9.628
10833SOL     OW34337  13.155  13.429   1.069
10833SOL    HW134338  13.154  13.467   1.156
10833SOL    HW234339  13.062  13.422   1.045
10834SOL     OW34340   4.745   9.451   3.443
10834SOL    HW134341   4.819   9.399   3.475
10834SOL    HW234342   4.681   9.447   3.514
10835SOL     OW34343   5.440  12.796  14.532
10835SOL    HW134344   5.361  12.796  14.478
10835SOL    HW234345   5.470  12.887  14.531
10836SOL     OW34346   3.066   5.545   4.140
10836SOL    HW134347   2.991   5.579   4.188
10836SOL    HW234348   3.052   5.450   4.138
10837SOL     OW34349   2.868   1.844   7.400
10837SOL    HW134350   2.917   1.899   7.339
10837SOL    HW234351   2.934   1.807   7.458
10838SOL     OW34352   4.244  11.553   7.940
10838SOL    HW134353   4.205  11.496   8.007
10838SOL    HW234354   4.170  11.576   7.883
10839SOL     OW34355   3.994   8.917   2.507
10839SOL    HW134356   3.993   9.006   2.542
10839SOL    HW234357   4.052   8.922   2.431
10840SOL     OW34358   5.452  10.245   7.271
10840SOL    HW134359   5.486  10.237   7.182
10840SOL    HW234360   5.517  10.300   7.316
10841SOL     OW34361  13.861  14.583   7.887
10841SOL    HW134362  13.938  14.533   7.860
10841SOL    HW234363  13.888  14.674   7.878
10842SOL     OW34364   4.077   8.711  11.788
10842SOL    HW134365   4.106   8.801  11.778
10842SOL    HW234366   4.156   8.659  11.777
10843SOL     OW34367  10.947   9.377   5.988
10843SOL    HW134368  10.860   9.391   5.950
10843SOL    HW234369  11.008   9.411   5.923
10844SOL     OW34370  13.134   2.998   0.254
10844SOL    HW134371  13.066   3.030   0.314
10844SOL    HW234372  13.086   2.962   0.180
10845SOL     OW34373   7.969   6.462   3.897
10845SOL    HW134374   7.975   6.384   3.842
10845SOL    HW234375   7.878   6.490   3.890
10846SOL     OW34376   0.914   0.136   0.953
10846SOL    HW134377   0.982   0.160   0.890
10846SOL    HW234378   0.890   0.219   0.995
10847SOL     OW34379   6.417   3.145   7.916
10847SOL    HW134380   6.487   3.124   7.854
10847SOL    HW234381   6.354   3.074   7.905
10848SOL     OW34382  13.853   5.933   7.506
10848SOL    HW134383  13.915   5.874   7.548
10848SOL    HW234384  13.898   6.018   7.504
10849SOL     OW34385   4.046  11.401   0.189
10849SOL    HW134386   4.048  11.492   0.219
10849SOL    HW234387   3.962  11.367   0.221
10850SOL     OW34388   3.016   2.541  12.134
10850SOL    HW134389   2.961   2.582  12.201
10850SOL    HW234390   2.992   2.585  12.053
10851SOL     OW34391   5.937  10.349  14.651
10851SOL    HW134392   5.963  10.437  14.679
10851SOL    HW234393   5.844  10.344  14.671
10852SOL     OW34394  11.362  10.640   1.732
10852SOL    HW134395  11.426  10.706   1.705
10852SOL    HW234396  11.332  10.668   1.818
10853SOL     OW34397  10.489  12.921   5.769
10853SOL    HW134398  10.527  12.860   5.833
10853SOL    HW234399  10.559  12.934   5.705
10854SOL     OW34400  10.577   5.124   5.389
10854SOL    HW134401  10.563   5.131   5.484
10854SOL    HW234402  10.616   5.209   5.365
10855SOL     OW34403   9.189  11.436   0.974
10855SOL    HW134404   9.129  11.509   0.986
10855SOL    HW234405   9.276  11.476   0.978
10856SOL     OW34406   9.097   7.508   7.919
10856SOL    HW134407   9.090   7.413   7.921
10856SOL    HW234408   9.055   7.533   7.837
10857SOL     OW34409  11.132   8.122   4.252
10857SOL    HW134410  11.066   8.118   4.183
10857SOL    HW234411  11.130   8.212   4.283
10858SOL     OW34412  10.741   3.834  11.675
10858SOL    HW134413  10.691   3.817  11.595
10858SOL    HW234414  10.831   3.846  11.645
10859SOL     OW34415   2.504   4.703   6.509
10859SOL    HW134416   2.438   4.694   6.577
10859SOL    HW234417   2.538   4.792   6.519
10860SOL     OW34418  14.267  12.501  12.266
10860SOL    HW134419  14.187  12.449  12.259
10860SOL    HW234420  14.253  12.556  12.343
10861SOL     OW34421   0.560  12.847   2.843
10861SOL    HW134422   0.535  12.933   2.808
10861SOL    HW234423   0.655  12.845   2.838
10862SOL     OW34424   4.101   2.197   1.678
10862SOL    HW134425   4.006   2.207   1.683
10862SOL    HW234426   4.115   2.132   1.610
10863SOL     OW34427  11.563   2.252   0.192
10863SOL    HW134428  11.564   2.252   0.096
10863SOL    HW234429  11.480   2.293   0.215
10864SOL     OW34430  11.999   1.145   4.290
10864SOL    HW134431  12.040   1.072   4.338
10864SOL    HW234432  11.938   1.102   4.230
10865SOL     OW34433   5.114   5.587   7.100
10865SOL    HW134434   5.040   5.644   7.124
10865SOL    HW234435   5.171   5.643   7.048
10866SOL     OW34436   5.391  10.757  11.948
10866SOL    HW134437   5.345  10.804  11.878
10866SOL    HW234438   5.420  10.676  11.906
10867SOL     OW34439   2.440   6.518   5.626
10867SOL    HW134440   2.414   6.528   5.534
10867SOL    HW234441   2.514   6.578   5.637
10868SOL     OW34442  13.700  11.578   4.707
10868SOL    HW134443  13.697  11.487   4.678
10868SOL    HW234444  13.793  11.596   4.721
10869SOL     OW34445  13.878  14.442  10.570
10869SOL    HW134446  13.858  14.373  10.633
10869SOL    HW234447  13.930  14.399  10.502
10870SOL     OW34448   1.401   7.159   8.318
10870SOL    HW134449   1.495   7.151   8.303
10870SOL    HW234450   1.380   7.089   8.380
10871SOL     OW34451   5.387   5.992   1.327
10871SOL    HW134452   5.328   5.965   1.397
10871SOL    HW234453   5.474   5.965   1.357
10872SOL     OW34454  11.013   3.165   5.038
10872SOL    HW134455  11.098   3.194   5.069
10872SOL    HW234456  10.993   3.225   4.965
10873SOL     OW34457   0.484   8.290   4.557
10873SOL    HW134458   0.404   8.306   4.607
10873SOL    HW234459   0.468   8.208   4.512
10874SOL     OW34460   9.189   4.679  13.716
10874SOL    HW134461   9.254   4.609  13.721
10874SOL    HW234462   9.238   4.756  13.687
10875SOL     OW34463   0.871   2.853  14.005
10875SOL    HW134464   0.778   2.871  14.000
10875SOL    HW234465   0.883   2.809  14.090
10876SOL     OW34466   7.783   5.874   0.727
10876SOL    HW134467   7.811   5.936   0.661
10876SOL    HW234468   7.754   5.797   0.677
10877SOL     OW34469   2.697  12.298   9.611
10877SOL    HW134470   2.760  12.357   9.654
10877SOL    HW234471   2.736  12.211   9.621
10878SOL     OW34472  12.540   2.500  10.011
10878SOL    HW134473  12.484   2.574  10.035
10878SOL    HW234474  12.495   2.460   9.936
10879SOL     OW34475  10.308   0.113  10.343
10879SOL    HW134476  10.247   0.151  10.406
10879SOL    HW234477  10.251   0.072  10.277
10880SOL     OW34478   1.354  13.642   8.299
10880SOL    HW134479   1.298  13.717   8.322
10880SOL    HW234480   1.438  13.662   8.342
10881SOL     OW34481   1.574   4.127  12.508
10881SOL    HW134482   1.502   4.189  12.515
10881SOL    HW234483   1.653   4.180  12.517
10882SOL     OW34484   9.104  10.483   5.843
10882SOL    HW134485   9.149  10.506   5.924
10882SOL    HW234486   9.029  10.431   5.872
10883SOL     OW34487  13.368  12.925   2.325
10883SOL    HW134488  13.446  12.948   2.375
10883SOL    HW234489  13.401  12.878   2.248
10884SOL     OW34490  11.389  10.934   6.334
10884SOL    HW134491  11.424  10.888   6.258
10884SOL    HW234492  11.420  11.024   6.324
10885SOL     OW34493  11.101   1.149  12.034
10885SOL    HW134494  11.078   1.072  12.086
10885SOL    HW234495  11.067   1.223  12.084
10886SOL     OW34496   3.552  13.641   0.920
10886SOL    HW134497   3.573  13.577   0.987
10886SOL    HW234498   3.628  13.641   0.861
10887SOL     OW34499  14.744   4.098  13.836
10887SOL    HW134500  14.670   4.051  13.875
10887SOL    HW234501  14.709   4.185  13.816
10888SOL     OW34502   6.442   7.435  13.540
10888SOL    HW134503   6.416   7.527  13.539
10888SOL    HW234504   6.389   7.396  13.609
10889SOL     OW34505  13.659   1.606  13.871
10889SOL    HW134506  13.660   1.608  13.775
10889SOL    HW234507  13.706   1.525  13.894
10890SOL     OW34508   0.783   2.652   4.651
10890SOL    HW134509   0.772   2.592   4.577
10890SOL    HW234510   0.711   2.715   4.641
10891SOL     OW34511   2.000   3.345   7.690
10891SOL    HW134512   1.906   3.360   7.703
10891SOL    HW234513   2.042   3.421   7.731
10892SOL     OW34514  13.552   3.409  11.280
10892SOL    HW134515  13.534   3.321  11.246
10892SOL    HW234516  13.631   3.437  11.232
10893SOL     OW34517   9.450  10.672  13.559
10893SOL    HW134518   9.437  10.653  13.652
10893SOL    HW234519   9.504  10.751  13.558
10894SOL     OW34520  11.265   5.510  12.168
10894SOL    HW134521  11.178   5.472  12.182
10894SOL    HW234522  11.325   5.447  12.207
10895SOL     OW34523  11.525   6.894  11.454
10895SOL    HW134524  11.524   6.854  11.366
10895SOL    HW234525  11.519   6.988  11.437
10896SOL     OW34526   4.118  11.805   4.127
10896SOL    HW134527   4.058  11.859   4.075
10896SOL    HW234528   4.062  11.745   4.175
10897SOL     OW34529  13.533  14.463  14.815
10897SOL    HW134530  13.580  14.407  14.753
10897SOL    HW234531  13.537  14.550  14.775
10898SOL     OW34532  12.800   9.153   2.544
10898SOL    HW134533  12.856   9.212   2.594
10898SOL    HW234534  12.859   9.084   2.514
10899SOL     OW34535   3.343  10.924   7.085
10899SOL    HW134536   3.345  10.914   6.990
10899SOL    HW234537   3.432  10.907   7.114
10900SOL     OW34538   2.407  13.002  14.294
10900SOL    HW134539   2.404  12.911  14.264
10900SOL    HW234540   2.324  13.040  14.265
10901SOL     OW34541   8.973  13.430   0.380
10901SOL    HW134542   9.056  13.464   0.347
10901SOL    HW234543   8.967  13.463   0.470
10902SOL     OW34544   7.542   6.343   6.087
10902SOL    HW134545   7.473   6.398   6.123
10902SOL    HW234546   7.623   6.390   6.108
10903SOL     OW34547   7.337   0.455   4.342
10903SOL    HW134548   7.335   0.360   4.352
10903SOL    HW234549   7.316   0.470   4.250
10904SOL     OW34550  13.119  12.810   8.020
10904SOL    HW134551  13.101  12.900   7.994
10904SOL    HW234552  13.033  12.768   8.023
10905SOL     OW34553   6.214   1.763   2.791
10905SOL    HW134554   6.139   1.722   2.834
10905SOL    HW234555   6.271   1.791   2.862
10906SOL     OW34556  12.864   3.562   1.837
10906SOL    HW134557  12.904   3.629   1.781
10906SOL    HW234558  12.900   3.579   1.924
10907SOL     OW34559   2.492  10.459   6.972
10907SOL    HW134560   2.491  10.365   6.991
10907SOL    HW234561   2.534  10.498   7.049
10908SOL     OW34562  14.805   8.260   5.608
10908SOL    HW134563  14.853   8.191   5.561
10908SOL    HW234564  14.873   8.306   5.657
10909SOL     OW34565  10.056   8.335   5.613
10909SOL    HW134566  10.088   8.269   5.551
10909SOL    HW234567  10.057   8.290   5.698
10910SOL     OW34568   1.072   0.979  14.611
10910SOL    HW134569   1.157   1.022  14.605
10910SOL    HW234570   1.048   0.960  14.520
10911SOL     OW34571  12.838   9.330   7.685
10911SOL    HW134572  12.811   9.344   7.775
10911SOL    HW234573  12.854   9.418   7.650
10912SOL     OW34574   4.887   1.107  14.266
10912SOL    HW134575   4.852   1.027  14.227
10912SOL    HW234576   4.959   1.133  14.209
10913SOL     OW34577  14.490   2.068   6.841
10913SOL    HW134578  14.463   2.092   6.929
10913SOL    HW234579  14.491   1.972   6.841
10914SOL     OW34580   1.509   1.003  10.055
10914SOL    HW134581   1.511   0.915  10.090
10914SOL    HW234582   1.495   1.060  10.131
10915SOL     OW34583   5.906   5.817   3.526
10915SOL    HW134584   5.837   5.875   3.492
10915SOL    HW234585   5.903   5.740   3.469
10916SOL     OW34586  13.603  14.542   3.503
10916SOL    HW134587  13.603  14.447   3.489
10916SOL    HW234588  13.628  14.552   3.595
10917SOL     OW34589   4.340  10.220   6.399
10917SOL    HW134590   4.290  10.138   6.395
10917SOL    HW234591   4.315  10.260   6.482
10918SOL     OW34592   5.535   8.344   1.723
10918SOL    HW134593   5.482   8.267   1.704
10918SOL    HW234594   5.624   8.310   1.732
10919SOL     OW34595   2.296  14.289   6.902
10919SOL    HW134596   2.258  14.233   6.969
10919SOL    HW234597   2.353  14.349   6.949
10920SOL     OW34598  11.413   5.299   0.741
10920SOL    HW134599  11.363   5.334   0.668
10920SOL    HW234600  11.453   5.375   0.782
10921SOL     OW34601   5.981   1.601   0.137
10921SOL    HW134602   6.003   1.605   0.044
10921SOL    HW234603   5.891   1.569   0.139
10922SOL     OW34604  13.376   2.972   9.874
10922SOL    HW134605  13.395   3.059   9.908
10922SOL    HW234606  13.375   2.915   9.951
10923SOL     OW34607  14.113   1.081   0.548
10923SOL    HW134608  14.037   1.139   0.544
10923SOL    HW234609  14.097   1.026   0.625
10924SOL     OW34610   5.301   4.482   0.755
10924SOL    HW134611   5.223   4.474   0.699
10924SOL    HW234612   5.356   4.546   0.710
10925SOL     OW34613   2.505  13.971   2.654
10925SOL    HW134614   2.527  13.880   2.635
10925SOL    HW234615   2.563  14.022   2.597
10926SOL     OW34616  12.112  12.039   8.975
10926SOL    HW134617  12.127  11.992   8.894
10926SOL    HW234618  12.143  11.980   9.044
10927SOL     OW34619  10.865  14.273   9.036
10927SOL    HW134620  10.957  14.252   9.016
10927SOL    HW234621  10.870  14.319   9.120
10928SOL     OW34622   6.370  13.748  12.242
10928SOL    HW134623   6.435  13.792  12.298
10928SOL    HW234624   6.315  13.820  12.209
10929SOL     OW34625  12.931  14.858   7.562
10929SOL    HW134626  12.878  14.784   7.592
10929SOL    HW234627  13.003  14.863   7.625
10930SOL     OW34628   3.762   7.169   4.211
10930SOL    HW134629   3.701   7.214   4.153
10930SOL    HW234630   3.750   7.076   4.191
10931SOL     OW34631   3.949   4.879   4.886
10931SOL    HW134632   3.868   4.834   4.912
10931SOL    HW234633   3.951   4.958   4.940
10932SOL     OW34634  10.839  11.562   3.924
10932SOL    HW134635  10.926  11.602   3.917
10932SOL    HW234636  10.783  11.617   3.869
10933SOL     OW34637   9.312   1.027   6.614
10933SOL    HW134638   9.345   1.117   6.616
10933SOL    HW234639   9.276   1.016   6.526
10934SOL     OW34640   7.320  12.218  10.765
10934SOL    HW134641   7.283  12.303  10.741
10934SOL    HW234642   7.301  12.209  10.859
10935SOL     OW34643   6.790   6.809   8.134
10935SOL    HW134644   6.844   6.785   8.210
10935SOL    HW234645   6.853   6.840   8.069
10936SOL     OW34646  13.087   8.604  13.767
10936SOL    HW134647  13.011   8.567  13.813
10936SOL    HW234648  13.055   8.621  13.679
10937SOL     OW34649   0.329  12.797   3.548
10937SOL    HW134650   0.405  12.812   3.604
10937SOL    HW234651   0.260  12.769   3.607
10938SOL     OW34652  10.954   8.183   7.210
10938SOL    HW134653  10.871   8.224   7.234
10938SOL    HW234654  10.989   8.150   7.293
10939SOL     OW34655   7.452   5.813  11.626
10939SOL    HW134656   7.370   5.802  11.577
10939SOL    HW234657   7.476   5.724  11.652
10940SOL     OW34658   4.937   5.472  12.953
10940SOL    HW134659   4.942   5.435  13.041
10940SOL    HW234660   4.868   5.422  12.910
10941SOL     OW34661   2.493  10.428   2.217
10941SOL    HW134662   2.510  10.491   2.147
10941SOL    HW234663   2.523  10.471   2.297
10942SOL     OW34664  12.587   3.338   1.194
10942SOL    HW134665  12.622   3.424   1.172
10942SOL    HW234666  12.522   3.354   1.262
10943SOL     OW34667   6.428   5.870   2.765
10943SOL    HW134668   6.482   5.858   2.843
10943SOL    HW234669   6.341   5.839   2.792
10944SOL     OW34670   2.906   9.671   5.032
10944SOL    HW134671   2.908   9.606   5.102
10944SOL    HW234672   2.842   9.735   5.061
10945SOL     OW34673  14.617   1.876  14.401
10945SOL    HW134674  14.667   1.934  14.458
10945SOL    HW234675  14.671   1.797  14.395
10946SOL     OW34676   7.253   5.818  13.945
10946SOL    HW134677   7.259   5.784  14.035
10946SOL    HW234678   7.225   5.908  13.956
10947SOL     OW34679   1.907   5.210   6.085
10947SOL    HW134680   1.957   5.217   6.166
10947SOL    HW234681   1.971   5.228   6.016
10948SOL     OW34682  10.628   2.110   2.780
10948SOL    HW134683  10.589   2.164   2.849
10948SOL    HW234684  10.577   2.029   2.783
10949SOL     OW34685   7.607   8.535   4.614
10949SOL    HW134686   7.686   8.586   4.630
10949SOL    HW234687   7.553   8.550   4.692
10950SOL     OW34688   9.465  12.723   2.057
10950SOL    HW134689   9.439  12.734   2.148
10950SOL    HW234690   9.557  12.751   2.055
10951SOL     OW34691  10.212   5.135   9.688
10951SOL    HW134692  10.170   5.131   9.601
10951SOL    HW234693  10.168   5.208   9.731
10952SOL     OW34694   9.942  10.004   1.332
10952SOL    HW134695   9.914   9.931   1.388
10952SOL    HW234696   9.908   9.982   1.245
10953SOL     OW34697  13.328   8.799   6.421
10953SOL    HW134698  13.280   8.872   6.461
10953SOL    HW234699  13.300   8.722   6.472
10954SOL     OW34700  11.940   9.872  11.301
10954SOL    HW134701  11.883   9.799  11.325
10954SOL    HW234702  12.028   9.836  11.304
10955SOL     OW34703  14.029  11.050   6.352
10955SOL    HW134704  14.066  11.113   6.414
10955SOL    HW234705  13.939  11.080   6.338
10956SOL     OW34706   5.123   7.457   7.023
10956SOL    HW134707   5.170   7.459   7.106
10956SOL    HW234708   5.051   7.519   7.036
10957SOL     OW34709   5.577  12.760  10.215
10957SOL    HW134710   5.670  12.761  10.239
10957SOL    HW234711   5.543  12.845  10.245
10958SOL     OW34712   8.986   1.715   2.728
10958SOL    HW134713   8.967   1.809   2.739
10958SOL    HW234714   9.080   1.712   2.712
10959SOL     OW34715   9.270  12.072  12.669
10959SOL    HW134716   9.218  12.146  12.638
10959SOL    HW234717   9.340  12.111  12.720
10960SOL     OW34718   5.806   4.037   6.775
10960SOL    HW134719   5.792   3.990   6.693
10960SOL    HW234720   5.745   3.997   6.837
10961SOL     OW34721  13.454  11.209   9.655
10961SOL    HW134722  13.486  11.137   9.601
10961SOL    HW234723  13.436  11.280   9.593
10962SOL     OW34724   5.092   8.756  12.142
10962SOL    HW134725   5.051   8.819  12.083
10962SOL    HW234726   5.034   8.680  12.140
10963SOL     OW34727   7.253   8.161   3.919
10963SOL    HW134728   7.207   8.201   3.992
10963SOL    HW234729   7.209   8.077   3.906
10964SOL     OW34730   2.196   7.105  13.611
10964SOL    HW134731   2.267   7.042  13.626
10964SOL    HW234732   2.184   7.148  13.696
10965SOL     OW34733   8.191  14.543  13.759
10965SOL    HW134734   8.189  14.544  13.663
10965SOL    HW234735   8.255  14.476  13.781
10966SOL     OW34736  10.774  11.026   6.024
10966SOL    HW134737  10.746  10.945   6.068
10966SOL    HW234738  10.868  11.032   6.041
10967SOL     OW34739   2.079  10.244  13.823
10967SOL    HW134740   2.108  10.184  13.892
10967SOL    HW234741   2.062  10.326  13.868
10968SOL     OW34742   1.980   2.264   6.655
10968SOL    HW134743   2.054   2.245   6.596
10968SOL    HW234744   1.906   2.219   6.615
10969SOL     OW34745  14.308   7.085  10.559
10969SOL    HW134746  14.342   7.058  10.474
10969SOL    HW234747  14.259   7.008  10.591
10970SOL     OW34748   9.386  12.382   4.602
10970SOL    HW134749   9.375  12.368   4.696
10970SOL    HW234750   9.423  12.471   4.596
10971SOL     OW34751  10.719  11.011  11.845
10971SOL    HW134752  10.794  11.064  11.820
10971SOL    HW234753  10.723  11.008  11.941
10972SOL     OW34754   3.637   8.601   6.295
10972SOL    HW134755   3.645   8.697   6.300
10972SOL    HW234756   3.700   8.569   6.360
10973SOL     OW34757   7.479   6.064  11.468
10973SOL    HW134758   7.468   5.996  11.534
10973SOL    HW234759   7.426   6.034  11.394
10974SOL     OW34760   6.973   4.407  13.296
10974SOL    HW134761   7.004   4.477  13.353
10974SOL    HW234762   6.979   4.444  13.208
10975SOL     OW34763  14.008   8.404   0.272
10975SOL    HW134764  14.031   8.489   0.308
10975SOL    HW234765  14.093   8.360   0.258
10976SOL     OW34766  12.682   3.381   5.453
10976SOL    HW134767  12.591   3.352   5.458
10976SOL    HW234768  12.677   3.476   5.442
10977SOL     OW34769   7.785  13.705   3.056
10977SOL    HW134770   7.713  13.762   3.029
10977SOL    HW234771   7.863  13.761   3.052
10978SOL     OW34772   6.542  11.526   8.851
10978SOL    HW134773   6.560  11.438   8.816
10978SOL    HW234774   6.562  11.585   8.778
10979SOL     OW34775   5.795   1.979   9.714
10979SOL    HW134776   5.844   1.898   9.719
10979SOL    HW234777   5.802   2.018   9.801
10980SOL     OW34778  12.328  13.646   9.868
10980SOL    HW134779  12.274  13.637   9.946
10980SOL    HW234780  12.377  13.726   9.882
10981SOL     OW34781  13.286   5.636  13.401
10981SOL    HW134782  13.348   5.652  13.330
10981SOL    HW234783  13.204   5.613  13.357
10982SOL     OW34784  14.085   7.083   8.354
10982SOL    HW134785  14.051   7.147   8.290
10982SOL    HW234786  14.123   7.014   8.300
10983SOL     OW34787   0.544  11.602   3.164
10983SOL    HW134788   0.606  11.633   3.097
10983SOL    HW234789   0.600  11.563   3.232
10984SOL     OW34790   0.457   4.252   1.593
10984SOL    HW134791   0.377   4.294   1.625
10984SOL    HW234792   0.512   4.243   1.671
10985SOL     OW34793  10.441   2.135   9.348
10985SOL    HW134794  10.521   2.131   9.297
10985SOL    HW234795  10.378   2.084   9.298
10986SOL     OW34796   5.978   6.819   9.096
10986SOL    HW134797   5.960   6.903   9.137
10986SOL    HW234798   5.899   6.768   9.110
10987SOL     OW34799   2.821  11.582  12.806
10987SOL    HW134800   2.798  11.653  12.747
10987SOL    HW234801   2.885  11.530  12.756
10988SOL     OW34802   6.783   4.708  10.678
10988SOL    HW134803   6.788   4.688  10.772
10988SOL    HW234804   6.852   4.773  10.664
10989SOL     OW34805  14.427   5.942   7.809
10989SOL    HW134806  14.353   5.885   7.834
10989SOL    HW234807  14.404   5.974   7.722
10990SOL     OW34808   1.069  10.902   8.649
10990SOL    HW134809   1.146  10.929   8.699
10990SOL    HW234810   1.084  10.810   8.629
10991SOL     OW34811   9.085   9.528  12.792
10991SOL    HW134812   9.117   9.469  12.724
10991SOL    HW234813   9.096   9.616  12.755
10992SOL     OW34814   5.963   4.655   5.849
10992SOL    HW134815   6.005   4.697   5.924
10992SOL    HW234816   5.977   4.561   5.862
10993SOL     OW34817  11.788  11.237  13.772
10993SOL    HW134818  11.837  11.253  13.852
10993SOL    HW234819  11.853  11.243  13.702
10994SOL     OW34820  10.899   8.916   4.753
10994SOL    HW134821  10.853   8.967   4.686
10994SOL    HW234822  10.986   8.954   4.757
10995SOL     OW34823   1.091  11.504   3.046
10995SOL    HW134824   1.073  11.550   2.964
10995SOL    HW234825   1.133  11.422   3.020
10996SOL     OW34826   0.124   1.752   2.693
10996SOL    HW134827   0.202   1.772   2.641
10996SOL    HW234828   0.125   1.657   2.703
10997SOL     OW34829   8.703   9.236  10.814
10997SOL    HW134830   8.624   9.183  10.806
10997SOL    HW234831   8.753   9.195  10.885
10998SOL     OW34832   5.683  10.754   3.360
10998SOL    HW134833   5.622  10.731   3.430
10998SOL    HW234834   5.627  10.771   3.284
10999SOL     OW34835   7.465  11.912   6.003
10999SOL    HW134836   7.521  11.987   6.023
10999SOL    HW234837   7.470  11.904   5.908
11000SOL     OW34838  10.481   9.196  12.475
11000SOL    HW134839  10.394   9.160  12.460
11000SOL    HW234840  10.502   9.172  12.565
11001SOL     OW34841   9.205   0.690  14.586
11001SOL    HW134842   9.181   0.783  14.586
11001SOL    HW234843   9.210   0.666  14.494
11002SOL     OW34844   2.578   8.312   6.440
11002SOL    HW134845   2.586   8.372   6.514
11002SOL    HW234846   2.542   8.366   6.370
11003SOL     OW34847   5.969  12.585   2.060
11003SOL    HW134848   5.901  12.633   2.108
11003SOL    HW234849   6.033  12.562   2.128
11004SOL     OW34850   1.226  10.940   1.822
11004SOL    HW134851   1.234  10.846   1.838
11004SOL    HW234852   1.170  10.947   1.745
11005SOL     OW34853   5.063   1.332   3.261
11005SOL    HW134854   5.121   1.307   3.189
11005SOL    HW234855   5.109   1.402   3.307
11006SOL     OW34856   4.796  14.538   9.155
11006SOL    HW134857   4.776  14.523   9.247
11006SOL    HW234858   4.813  14.632   9.149
11007SOL     OW34859   3.562   6.050   1.561
11007SOL    HW134860   3.651   6.079   1.543
11007SOL    HW234861   3.506   6.119   1.527
11008SOL     OW34862  13.327   6.146  10.941
11008SOL    HW134863  13.283   6.061  10.938
11008SOL    HW234864  13.397   6.139  10.876
11009SOL     OW34865   8.131  12.161   8.904
11009SOL    HW134866   8.060  12.111   8.862
11009SOL    HW234867   8.086  12.224   8.960
11010SOL     OW34868  11.137  14.487   9.006
11010SOL    HW134869  11.182  14.572   9.011
11010SOL    HW234870  11.167  14.440   9.083
11011SOL     OW34871   7.257  11.625  10.496
11011SOL    HW134872   7.314  11.557  10.464
11011SOL    HW234873   7.207  11.654  10.419
11012SOL     OW34874   0.348   6.989  10.327
11012SOL    HW134875   0.292   7.045  10.382
11012SOL    HW234876   0.287   6.934  10.279
11013SOL     OW34877   6.582  11.851   2.651
11013SOL    HW134878   6.610  11.770   2.608
11013SOL    HW234879   6.489  11.837   2.670
11014SOL     OW34880   1.725   3.429   7.817
11014SOL    HW134881   1.682   3.392   7.894
11014SOL    HW234882   1.786   3.494   7.852
11015SOL     OW34883   1.456   0.685  14.026
11015SOL    HW134884   1.432   0.777  14.035
11015SOL    HW234885   1.540   0.677  14.072
11016SOL     OW34886  14.009  10.642  14.503
11016SOL    HW134887  14.029  10.732  14.477
11016SOL    HW234888  13.914  10.639  14.509
11017SOL     OW34889   1.238   2.077  12.780
11017SOL    HW134890   1.174   2.017  12.818
11017SOL    HW234891   1.198   2.106  12.698
11018SOL     OW34892   7.911   2.745   6.740
11018SOL    HW134893   7.866   2.696   6.671
11018SOL    HW234894   7.989   2.694   6.758
11019SOL     OW34895   7.414   3.040  13.912
11019SOL    HW134896   7.440   3.038  14.004
11019SOL    HW234897   7.496   3.035  13.863
11020SOL     OW34898   5.681   4.030   5.288
11020SOL    HW134899   5.718   3.995   5.207
11020SOL    HW234900   5.664   4.123   5.269
11021SOL     OW34901  11.331   1.499   6.941
11021SOL    HW134902  11.415   1.469   6.974
11021SOL    HW234903  11.267   1.463   7.001
11022SOL     OW34904   4.765   0.504   6.156
11022SOL    HW134905   4.688   0.539   6.200
11022SOL    HW234906   4.800   0.578   6.106
11023SOL     OW34907   7.042   9.441   6.394
11023SOL    HW134908   7.102   9.431   6.320
11023SOL    HW234909   6.980   9.508   6.365
11024SOL     OW34910   1.494   8.064   2.158
11024SOL    HW134911   1.416   8.031   2.202
11024SOL    HW234912   1.518   8.142   2.207
11025SOL     OW34913   2.625   3.973   9.774
11025SOL    HW134914   2.565   4.045   9.754
11025SOL    HW234915   2.666   3.952   9.690
11026SOL     OW34916   0.513   6.619   1.329
11026SOL    HW134917   0.496   6.576   1.245
11026SOL    HW234918   0.492   6.552   1.394
11027SOL     OW34919   2.846  11.286   1.847
11027SOL    HW134920   2.762  11.332   1.854
11027SOL    HW234921   2.827  11.197   1.876
11028SOL     OW34922   7.933  13.184  11.939
11028SOL    HW134923   7.997  13.122  11.973
11028SOL    HW234924   7.849  13.155  11.975
11029SOL     OW34925   0.854  14.135   2.791
11029SOL    HW134926   0.827  14.121   2.882
11029SOL    HW234927   0.864  14.229   2.783
11030SOL     OW34928   3.596  10.684  11.592
11030SOL    HW134929   3.616  10.640  11.675
11030SOL    HW234930   3.668  10.745  11.580
11031SOL     OW34931   1.051   8.293  10.139
11031SOL    HW134932   1.028   8.227  10.205
11031SOL    HW234933   0.975   8.297  10.082
11032SOL     OW34934   8.709   8.359   2.055
11032SOL    HW134935   8.622   8.339   2.090
11032SOL    HW234936   8.712   8.312   1.971
11033SOL     OW34937   5.082  13.584   2.471
11033SOL    HW134938   5.080  13.643   2.547
11033SOL    HW234939   5.009  13.524   2.485
11034SOL     OW34940   3.733   1.192   2.745
11034SOL    HW134941   3.711   1.169   2.835
11034SOL    HW234942   3.783   1.117   2.713
11035SOL     OW34943  13.727   3.266  10.803
11035SOL    HW134944  13.682   3.195  10.850
11035SOL    HW234945  13.819   3.240  10.803
11036SOL     OW34946   3.704   4.638   2.061
11036SOL    HW134947   3.611   4.650   2.043
11036SOL    HW234948   3.720   4.545   2.045
11037SOL     OW34949   1.757   3.434  13.709
11037SOL    HW134950   1.759   3.515  13.657
11037SOL    HW234951   1.724   3.462  13.795
11038SOL     OW34952   3.554   7.978  14.028
11038SOL    HW134953   3.514   8.059  14.060
11038SOL    HW234954   3.626   8.007  13.972
11039SOL     OW34955   1.638  14.591  12.414
11039SOL    HW134956   1.609  14.671  12.369
11039SOL    HW234957   1.634  14.613  12.507
11040SOL     OW34958   1.013  14.146  13.223
11040SOL    HW134959   0.963  14.080  13.271
11040SOL    HW234960   1.019  14.112  13.134
11041SOL     OW34961  10.809  10.636  12.993
11041SOL    HW134962  10.802  10.717  13.043
11041SOL    HW234963  10.887  10.648  12.938
11042SOL     OW34964   3.382  13.803   5.387
11042SOL    HW134965   3.395  13.885   5.433
11042SOL    HW234966   3.469  13.779   5.355
11043SOL     OW34967   4.972   4.279   6.815
11043SOL    HW134968   4.900   4.329   6.777
11043SOL    HW234969   4.932   4.229   6.886
11044SOL     OW34970   7.463   1.197   7.778
11044SOL    HW134971   7.395   1.203   7.711
11044SOL    HW234972   7.527   1.265   7.754
11045SOL     OW34973  14.104  10.397   4.234
11045SOL    HW134974  14.090  10.391   4.329
11045SOL    HW234975  14.188  10.352   4.220
11046SOL     OW34976  13.605  13.714  11.789
11046SOL    HW134977  13.518  13.749  11.811
11046SOL    HW234978  13.587  13.637  11.735
11047SOL     OW34979   1.852   8.833   9.813
11047SOL    HW134980   1.793   8.868   9.880
11047SOL    HW234981   1.808   8.852   9.731
11048SOL     OW34982  11.612   5.976   5.788
11048SOL    HW134983  11.614   6.012   5.699
11048SOL    HW234984  11.525   5.997   5.820
11049SOL     OW34985  13.535   3.284   7.009
11049SOL    HW134986  13.618   3.265   6.965
11049SOL    HW234987  13.555   3.277   7.102
11050SOL     OW34988  14.128   5.321   9.347
11050SOL    HW134989  14.086   5.274   9.419
11050SOL    HW234990  14.181   5.388   9.389
11051SOL     OW34991   8.148   4.470  13.357
11051SOL    HW134992   8.105   4.394  13.318
11051SOL    HW234993   8.149   4.452  13.451
11052SOL     OW34994   6.397   9.498  14.090
11052SOL    HW134995   6.340   9.517  14.015
11052SOL    HW234996   6.367   9.557  14.159
11053SOL     OW34997   1.970  14.080   1.983
11053SOL    HW134998   1.931  14.145   2.041
11053SOL    HW234999   1.996  14.008   2.041
11054SOL     OW35000  14.816   3.910   4.312
11054SOL    HW135001  14.821   3.845   4.241
11054SOL    HW235002  14.724   3.936   4.314
11055SOL     OW35003   6.986   0.799  12.075
11055SOL    HW135004   6.938   0.726  12.113
11055SOL    HW235005   6.972   0.791  11.981
11056SOL     OW35006  11.208   7.637  13.385
11056SOL    HW135007  11.182   7.729  13.380
11056SOL    HW235008  11.154   7.592  13.320
11057SOL     OW35009  13.697  10.793   6.550
11057SOL    HW135010  13.772  10.799   6.491
11057SOL    HW235011  13.681  10.699   6.559
11058SOL     OW35012   5.482   4.528   7.930
11058SOL    HW135013   5.491   4.437   7.956
11058SOL    HW235014   5.567   4.551   7.892
11059SOL     OW35015   9.429   5.789  11.802
11059SOL    HW135016   9.459   5.816  11.716
11059SOL    HW235017   9.489   5.831  11.863
11060SOL     OW35018   1.218  13.508   7.675
11060SOL    HW135019   1.183  13.515   7.763
11060SOL    HW235020   1.306  13.472   7.686
11061SOL     OW35021   6.608  10.583  12.393
11061SOL    HW135022   6.666  10.659  12.385
11061SOL    HW235023   6.610  10.561  12.487
11062SOL     OW35024   7.391   8.901   0.720
11062SOL    HW135025   7.364   8.830   0.662
11062SOL    HW235026   7.480   8.922   0.692
11063SOL     OW35027  14.392   3.436   7.345
11063SOL    HW135028  14.367   3.527   7.331
11063SOL    HW235029  14.335   3.407   7.417
11064SOL     OW35030  14.324  12.331   9.539
11064SOL    HW135031  14.310  12.422   9.566
11064SOL    HW235032  14.264  12.319   9.465
11065SOL     OW35033  12.272   3.893   9.705
11065SOL    HW135034  12.279   3.971   9.759
11065SOL    HW235035  12.222   3.921   9.628
11066SOL     OW35036  14.651  11.523  11.978
11066SOL    HW135037  14.690  11.551  11.895
11066SOL    HW235038  14.637  11.429  11.967
11067SOL     OW35039  10.734   7.552   5.067
11067SOL    HW135040  10.779   7.488   5.011
11067SOL    HW235041  10.778   7.635   5.049
11068SOL     OW35042  10.906  12.434   4.460
11068SOL    HW135043  10.924  12.528   4.452
11068SOL    HW235044  10.992  12.394   4.474
11069SOL     OW35045   3.903   8.939  10.468
11069SOL    HW135046   3.935   9.004  10.406
11069SOL    HW235047   3.977   8.923  10.527
11070SOL     OW35048   3.423  12.089  14.097
11070SOL    HW135049   3.447  12.147  14.170
11070SOL    HW235050   3.438  12.001  14.131
11071SOL     OW35051  13.379   7.366   0.576
11071SOL    HW135052  13.440   7.439   0.590
11071SOL    HW235053  13.308   7.383   0.637
11072SOL     OW35054  13.802   5.009   4.978
11072SOL    HW135055  13.797   4.919   5.010
11072SOL    HW235056  13.852   5.055   5.044
11073SOL     OW35057   3.630   5.149   8.598
11073SOL    HW135058   3.628   5.195   8.514
11073SOL    HW235059   3.560   5.190   8.650
11074SOL     OW35060   7.908  11.687  11.970
11074SOL    HW135061   7.816  11.676  11.944
11074SOL    HW235062   7.923  11.619  12.035
11075SOL     OW35063  11.178   7.418   8.895
11075SOL    HW135064  11.208   7.414   8.804
11075SOL    HW235065  11.258   7.432   8.946
11076SOL     OW35066   1.509  12.297   8.519
11076SOL    HW135067   1.504  12.320   8.612
11076SOL    HW235068   1.437  12.345   8.478
11077SOL     OW35069   6.042  13.413   0.315
11077SOL    HW135070   6.000  13.442   0.396
11077SOL    HW235071   6.095  13.488   0.288
11078SOL     OW35072  10.167  12.995   2.707
11078SOL    HW135073  10.087  13.018   2.755
11078SOL    HW235074  10.138  12.937   2.637
11079SOL     OW35075  13.538   5.518   2.030
11079SOL    HW135076  13.458   5.512   1.978
11079SOL    HW235077  13.560   5.612   2.030
11080SOL     OW35078  14.537  10.212  12.216
11080SOL    HW135079  14.577  10.274  12.277
11080SOL    HW235080  14.443  10.230  12.221
11081SOL     OW35081   3.519  10.314  11.020
11081SOL    HW135082   3.424  10.304  11.028
11081SOL    HW235083   3.535  10.317  10.926
11082SOL     OW35084   6.493   7.159   1.580
11082SOL    HW135085   6.541   7.084   1.614
11082SOL    HW235086   6.530   7.174   1.493
11083SOL     OW35087   5.145   9.609   4.032
11083SOL    HW135088   5.119   9.537   4.090
11083SOL    HW235089   5.076   9.612   3.965
11084SOL     OW35090   6.606   8.689  10.506
11084SOL    HW135091   6.523   8.676  10.461
11084SOL    HW235092   6.583   8.697  10.598
11085SOL     OW35093  12.707  14.852   1.060
11085SOL    HW135094  12.739  14.874   0.972
11085SOL    HW235095  12.635  14.791   1.044
11086SOL     OW35096  14.728   2.500   6.399
11086SOL    HW135097  14.778   2.511   6.479
11086SOL    HW235098  14.664   2.571   6.401
11087SOL     OW35099   1.735  11.354   0.250
11087SOL    HW135100   1.657  11.404   0.273
11087SOL    HW235101   1.740  11.285   0.316
11088SOL     OW35102  13.480   1.511  12.016
11088SOL    HW135103  13.500   1.466  11.934
11088SOL    HW235104  13.443   1.443  12.073
11089SOL     OW35105  13.704   7.140   2.849
11089SOL    HW135106  13.772   7.075   2.834
11089SOL    HW235107  13.743   7.202   2.911
11090SOL     OW35108  12.777   3.679  13.913
11090SOL    HW135109  12.705   3.666  13.975
11090SOL    HW235110  12.780   3.773  13.898
11091SOL     OW35111  11.002  11.258  12.567
11091SOL    HW135112  11.013  11.352  12.551
11091SOL    HW235113  11.091  11.225  12.577
11092SOL     OW35114   3.463  13.846   0.676
11092SOL    HW135115   3.477  13.763   0.631
11092SOL    HW235116   3.539  13.900   0.652
11093SOL     OW35117   8.066   6.002   8.069
11093SOL    HW135118   8.064   6.025   7.976
11093SOL    HW235119   8.071   6.086   8.114
11094SOL     OW35120  11.956   3.964   9.712
11094SOL    HW135121  11.972   3.911   9.634
11094SOL    HW235122  12.036   4.016   9.723
11095SOL     OW35123   1.707   5.617   6.453
11095SOL    HW135124   1.612   5.625   6.445
11095SOL    HW235125   1.741   5.633   6.365
11096SOL     OW35126   0.778   9.899  12.391
11096SOL    HW135127   0.771   9.994  12.385
11096SOL    HW235128   0.805   9.882  12.481
11097SOL     OW35129  13.918   7.835  12.743
11097SOL    HW135130  13.835   7.826  12.696
11097SOL    HW235131  13.935   7.747  12.777
11098SOL     OW35132   1.203  12.391   7.510
11098SOL    HW135133   1.142  12.465   7.503
11098SOL    HW235134   1.273  12.424   7.566
11099SOL     OW35135   7.721   2.209  14.351
11099SOL    HW135136   7.767   2.277  14.401
11099SOL    HW235137   7.630   2.239  14.348
11100SOL     OW35138   5.070   3.340  12.902
11100SOL    HW135139   5.113   3.337  12.988
11100SOL    HW235140   5.126   3.286  12.846
11101SOL     OW35141  10.393   8.648   5.090
11101SOL    HW135142  10.462   8.712   5.106
11101SOL    HW235143  10.439   8.569   5.064
11102SOL     OW35144  11.851   6.450   0.388
11102SOL    HW135145  11.931   6.488   0.351
11102SOL    HW235146  11.852   6.477   0.480
11103SOL     OW35147  10.332   3.317   2.286
11103SOL    HW135148  10.369   3.401   2.314
11103SOL    HW235149  10.238   3.326   2.302
11104SOL     OW35150   7.052   4.848  10.640
11104SOL    HW135151   7.071   4.941  10.626
11104SOL    HW235152   7.029   4.815  10.554
11105SOL     OW35153   2.303   1.763   6.672
11105SOL    HW135154   2.302   1.669   6.649
11105SOL    HW235155   2.211   1.789   6.667
11106SOL     OW35156  14.455  12.452  10.802
11106SOL    HW135157  14.404  12.413  10.874
11106SOL    HW235158  14.404  12.433  10.724
11107SOL     OW35159   4.266  10.167   5.012
11107SOL    HW135160   4.173  10.152   4.996
11107SOL    HW235161   4.294  10.223   4.940
11108SOL     OW35162   6.341   4.729   6.491
11108SOL    HW135163   6.392   4.730   6.572
11108SOL    HW235164   6.272   4.665   6.506
11109SOL     OW35165  11.376   6.129   8.796
11109SOL    HW135166  11.448   6.139   8.733
11109SOL    HW235167  11.359   6.035   8.798
11110SOL     OW35168  10.917   6.314   7.593
11110SOL    HW135169  10.840   6.262   7.615
11110SOL    HW235170  10.936   6.364   7.672
11111SOL     OW35171  14.531   9.266   5.325
11111SOL    HW135172  14.467   9.313   5.271
11111SOL    HW235173  14.493   9.264   5.412
11112SOL     OW35174   7.972  12.869   8.614
11112SOL    HW135175   7.981  12.860   8.519
11112SOL    HW235176   8.021  12.796   8.651
11113SOL     OW35177  12.023   5.093  14.586
11113SOL    HW135178  11.976   5.010  14.587
11113SOL    HW235179  11.955   5.160  14.581
11114SOL     OW35180  14.216   7.122  12.230
11114SOL    HW135181  14.171   7.194  12.274
11114SOL    HW235182  14.297   7.161  12.197
11115SOL     OW35183   5.553   2.364  12.833
11115SOL    HW135184   5.499   2.302  12.882
11115SOL    HW235185   5.539   2.448  12.877
11116SOL     OW35186  13.143   3.111  14.241
11116SOL    HW135187  13.071   3.047  14.245
11116SOL    HW235188  13.222   3.058  14.230
11117SOL     OW35189   3.495   4.997   4.493
11117SOL    HW135190   3.471   5.074   4.544
11117SOL    HW235191   3.574   4.963   4.537
11118SOL     OW35192   3.653   4.502  10.977
11118SOL    HW135193   3.678   4.430  10.918
11118SOL    HW235194   3.737   4.538  11.007
11119SOL     OW35195   2.122  12.834   8.049
11119SOL    HW135196   2.114  12.842   7.954
11119SOL    HW235197   2.065  12.902   8.085
11120SOL     OW35198   1.257   9.779   0.916
11120SOL    HW135199   1.324   9.734   0.967
11120SOL    HW235200   1.265   9.871   0.942
11121SOL     OW35201   2.392   3.040   4.673
11121SOL    HW135202   2.367   2.997   4.591
11121SOL    HW235203   2.447   2.976   4.717
11122SOL     OW35204  14.676   0.550   9.029
11122SOL    HW135205  14.702   0.516   9.115
11122SOL    HW235206  14.746   0.522   8.970
11123SOL     OW35207  12.109   3.679   0.285
11123SOL    HW135208  12.014   3.669   0.274
11123SOL    HW235209  12.135   3.608   0.344
11124SOL     OW35210   7.796   7.501   2.006
11124SOL    HW135211   7.769   7.429   2.063
11124SOL    HW235212   7.883   7.475   1.974
11125SOL     OW35213   0.831   3.791   3.766
11125SOL    HW135214   0.873   3.750   3.841
11125SOL    HW235215   0.891   3.862   3.741
11126SOL     OW35216  14.783   7.815   1.632
11126SOL    HW135217  14.791   7.756   1.557
11126SOL    HW235218  14.760   7.757   1.706
11127SOL     OW35219   9.478   8.248   1.150
11127SOL    HW135220   9.406   8.303   1.181
11127SOL    HW235221   9.540   8.308   1.109
11128SOL     OW35222   2.769   3.907   9.550
11128SOL    HW135223   2.784   3.999   9.528
11128SOL    HW235224   2.737   3.869   9.468
11129SOL     OW35225  14.502   9.145  14.875
11129SOL    HW135226  14.526   9.140   0.085
11129SOL    HW235227  14.435   9.078  14.863
11130SOL     OW35228   1.125   9.968  13.632
11130SOL    HW135229   1.067   9.914  13.685
11130SOL    HW235230   1.151  10.039  13.690
11131SOL     OW35231   9.698   3.455  12.357
11131SOL    HW135232   9.698   3.365  12.324
11131SOL    HW235233   9.712   3.447  12.451
11132SOL     OW35234   5.756   1.219  14.301
11132SOL    HW135235   5.833   1.269  14.331
11132SOL    HW235236   5.726   1.172  14.379
11133SOL     OW35237   5.913   0.569  13.325
11133SOL    HW135238   5.819   0.551  13.331
11133SOL    HW235239   5.918   0.659  13.293
11134SOL     OW35240   9.409   5.698   1.963
11134SOL    HW135241   9.378   5.609   1.981
11134SOL    HW235242   9.464   5.689   1.885
11135SOL     OW35243   9.890  14.245   6.745
11135SOL    HW135244   9.861  14.336   6.739
11135SOL    HW235245   9.961  14.246   6.808
11136SOL     OW35246   6.445  14.078  11.933
11136SOL    HW135247   6.486  14.125  11.860
11136SOL    HW235248   6.438  13.987  11.902
11137SOL     OW35249   0.086   9.610   3.808
11137SOL    HW135250   0.172   9.624   3.847
11137SOL    HW235251   0.064   9.694   3.768
11138SOL     OW35252  12.137   9.711   6.234
11138SOL    HW135253  12.202   9.642   6.221
11138SOL    HW235254  12.140   9.762   6.154
11139SOL     OW35255  13.342  14.061  12.363
11139SOL    HW135256  13.353  13.983  12.309
11139SOL    HW235257  13.270  14.040  12.423
11140SOL     OW35258   2.663   6.656   3.881
11140SOL    HW135259   2.621   6.600   3.946
11140SOL    HW235260   2.747   6.680   3.921
11141SOL     OW35261  10.718   0.515   4.633
11141SOL    HW135262  10.683   0.454   4.566
11141SOL    HW235263  10.751   0.457   4.702
11142SOL     OW35264  10.454   2.465  12.416
11142SOL    HW135265  10.513   2.450  12.490
11142SOL    HW235266  10.465   2.389  12.360
11143SOL     OW35267   4.001   2.603   7.700
11143SOL    HW135268   3.955   2.602   7.616
11143SOL    HW235269   4.072   2.539   7.689
11144SOL     OW35270   6.601   0.273   9.225
11144SOL    HW135271   6.606   0.322   9.306
11144SOL    HW235272   6.692   0.251   9.204
11145SOL     OW35273  11.240   6.246   1.736
11145SOL    HW135274  11.188   6.327   1.732
11145SOL    HW235275  11.250   6.228   1.829
11146SOL     OW35276   7.561  12.583   6.374
11146SOL    HW135277   7.532  12.496   6.347
11146SOL    HW235278   7.558  12.636   6.294
11147SOL     OW35279  13.537  10.412  14.213
11147SOL    HW135280  13.576  10.409  14.126
11147SOL    HW235281  13.456  10.361  14.205
11148SOL     OW35282  11.770   8.147   1.161
11148SOL    HW135283  11.794   8.207   1.090
11148SOL    HW235284  11.680   8.120   1.138
11149SOL     OW35285   1.259   3.278   6.773
11149SOL    HW135286   1.240   3.332   6.697
11149SOL    HW235287   1.178   3.229   6.789
11150SOL     OW35288  10.964   1.660  11.734
11150SOL    HW135289  10.950   1.746  11.773
11150SOL    HW235290  10.959   1.599  11.807
11151SOL     OW35291  11.823   8.814   0.918
11151SOL    HW135292  11.835   8.821   1.012
11151SOL    HW235293  11.841   8.722   0.898
11152SOL     OW35294   5.230  13.709   3.893
11152SOL    HW135295   5.304  13.767   3.872
11152SOL    HW235296   5.266  13.645   3.954
11153SOL     OW35297   1.956   6.412   5.445
11153SOL    HW135298   1.867   6.436   5.470
11153SOL    HW235299   2.005   6.412   5.527
11154SOL     OW35300   8.142   0.253   8.756
11154SOL    HW135301   8.220   0.204   8.783
11154SOL    HW235302   8.070   0.190   8.766
11155SOL     OW35303   1.922  11.478  10.110
11155SOL    HW135304   1.938  11.570  10.089
11155SOL    HW235305   2.002  11.433  10.082
11156SOL     OW35306   7.224   5.267   1.736
11156SOL    HW135307   7.314   5.298   1.723
11156SOL    HW235308   7.171   5.330   1.688
11157SOL     OW35309  13.699   5.447   0.067
11157SOL    HW135310  13.722   5.519   0.126
11157SOL    HW235311  13.757   5.457  14.874
11158SOL     OW35312   0.431   7.416  12.542
11158SOL    HW135313   0.520   7.436  12.514
11158SOL    HW235314   0.397   7.498  12.578
11159SOL     OW35315  13.908   9.008   8.945
11159SOL    HW135316  13.912   9.068   8.871
11159SOL    HW235317  13.991   9.021   8.991
11160SOL     OW35318   5.953   6.571   0.550
11160SOL    HW135319   5.959   6.478   0.532
11160SOL    HW235320   5.966   6.613   0.465
11161SOL     OW35321   0.165  14.427  13.289
11161SOL    HW135322   0.240  14.373  13.311
11161SOL    HW235323   0.116  14.377  13.225
11162SOL     OW35324   1.335   9.442   1.417
11162SOL    HW135325   1.339   9.374   1.350
11162SOL    HW235326   1.244   9.471   1.417
11163SOL     OW35327   2.412   1.058   4.883
11163SOL    HW135328   2.342   1.058   4.818
11163SOL    HW235329   2.462   1.138   4.866
11164SOL     OW35330   1.829   4.092   3.280
11164SOL    HW135331   1.759   4.090   3.215
11164SOL    HW235332   1.805   4.025   3.344
11165SOL     OW35333   1.672   7.736   3.699
11165SOL    HW135334   1.674   7.686   3.780
11165SOL    HW235335   1.611   7.808   3.716
11166SOL     OW35336   6.267  12.831   1.942
11166SOL    HW135337   6.343  12.838   1.883
11166SOL    HW235338   6.215  12.760   1.906
11167SOL     OW35339   4.019   2.742  12.895
11167SOL    HW135340   4.000   2.733  12.989
11167SOL    HW235341   4.107   2.780  12.892
11168SOL     OW35342   8.992   4.380   8.173
11168SOL    HW135343   9.046   4.380   8.094
11168SOL    HW235344   9.029   4.450   8.227
11169SOL     OW35345   7.263   4.981   4.522
11169SOL    HW135346   7.258   4.898   4.476
11169SOL    HW235347   7.283   5.045   4.454
11170SOL     OW35348  10.494  14.802   5.452
11170SOL    HW135349  10.433  14.794   5.379
11170SOL    HW235350  10.581  14.795   5.412
11171SOL     OW35351   7.257   4.131  13.697
11171SOL    HW135352   7.255   4.192  13.623
11171SOL    HW235353   7.324   4.166  13.755
11172SOL     OW35354  13.018   4.593  11.178
11172SOL    HW135355  12.951   4.658  11.155
11172SOL    HW235356  12.971   4.529  11.231
11173SOL     OW35357   8.367   8.713   6.036
11173SOL    HW135358   8.402   8.656   5.967
11173SOL    HW235359   8.379   8.801   6.001
11174SOL     OW35360  11.227  11.172   7.628
11174SOL    HW135361  11.228  11.262   7.595
11174SOL    HW235362  11.155  11.131   7.580
11175SOL     OW35363   1.041   1.374   4.883
11175SOL    HW135364   1.079   1.378   4.971
11175SOL    HW235365   1.081   1.296   4.844
11176SOL     OW35366   1.457  14.062  14.271
11176SOL    HW135367   1.445  14.097  14.359
11176SOL    HW235368   1.372  14.072  14.229
11177SOL     OW35369   5.437  12.895   9.159
11177SOL    HW135370   5.469  12.967   9.214
11177SOL    HW235371   5.343  12.912   9.151
11178SOL     OW35372  14.809   1.663   8.229
11178SOL    HW135373  14.783   1.664   8.137
11178SOL    HW235374  14.762   1.736   8.268
11179SOL     OW35375   8.522  13.762  11.059
11179SOL    HW135376   8.469  13.686  11.038
11179SOL    HW235377   8.593  13.729  11.114
11180SOL     OW35378   7.892   2.578   9.950
11180SOL    HW135379   7.957   2.631   9.995
11180SOL    HW235380   7.875   2.505  10.009
11181SOL     OW35381  13.266  11.487   7.294
11181SOL    HW135382  13.219  11.564   7.327
11181SOL    HW235383  13.358  11.509   7.304
11182SOL     OW35384   7.860  10.022   0.698
11182SOL    HW135385   7.836   9.991   0.785
11182SOL    HW235386   7.837  10.115   0.698
11183SOL     OW35387   1.897  12.866  12.070
11183SOL    HW135388   1.943  12.918  12.004
11183SOL    HW235389   1.804  12.881  12.052
11184SOL     OW35390  11.681  11.193   4.154
11184SOL    HW135391  11.626  11.146   4.217
11184SOL    HW235392  11.770  11.183   4.188
11185SOL     OW35393   4.503   2.901   4.449
11185SOL    HW135394   4.467   2.988   4.434
11185SOL    HW235395   4.548   2.908   4.533
11186SOL     OW35396   1.608   8.985   3.530
11186SOL    HW135397   1.682   8.924   3.530
11186SOL    HW235398   1.543   8.944   3.587
11187SOL     OW35399  13.834   9.563   4.887
11187SOL    HW135400  13.800   9.640   4.932
11187SOL    HW235401  13.842   9.497   4.956
11188SOL     OW35402   2.259   6.186   2.082
11188SOL    HW135403   2.181   6.154   2.127
11188SOL    HW235404   2.325   6.194   2.151
11189SOL     OW35405   1.150  12.429   3.189
11189SOL    HW135406   1.081  12.364   3.206
11189SOL    HW235407   1.229  12.389   3.227
11190SOL     OW35408   0.620   0.630  12.025
11190SOL    HW135409   0.540   0.614  12.076
11190SOL    HW235410   0.690   0.595  12.080
11191SOL     OW35411  12.572   2.577   9.608
11191SOL    HW135412  12.506   2.641   9.635
11191SOL    HW235413  12.563   2.572   9.512
11192SOL     OW35414   0.802  12.587   3.596
11192SOL    HW135415   0.860  12.515   3.572
11192SOL    HW235416   0.718  12.546   3.615
11193SOL     OW35417   1.344   7.511   5.760
11193SOL    HW135418   1.303   7.553   5.835
11193SOL    HW235419   1.434   7.542   5.761
11194SOL     OW35420   6.839  10.695  10.621
11194SOL    HW135421   6.818  10.635  10.550
11194SOL    HW235422   6.841  10.781  10.580
11195SOL     OW35423   7.640   9.539   8.555
11195SOL    HW135424   7.707   9.486   8.597
11195SOL    HW235425   7.675   9.556   8.467
11196SOL     OW35426   0.497   5.670   9.447
11196SOL    HW135427   0.483   5.656   9.354
11196SOL    HW235428   0.524   5.584   9.481
11197SOL     OW35429   9.224   3.689  12.949
11197SOL    HW135430   9.284   3.762  12.964
11197SOL    HW235431   9.244   3.659  12.860
11198SOL     OW35432   4.981   1.384  14.146
11198SOL    HW135433   5.018   1.296  14.136
11198SOL    HW235434   4.886   1.371  14.144
11199SOL     OW35435   1.974  12.827   1.793
11199SOL    HW135436   1.908  12.777   1.841
11199SOL    HW235437   1.947  12.821   1.702
11200SOL     OW35438   9.462   6.571   3.797
11200SOL    HW135439   9.488   6.482   3.773
11200SOL    HW235440   9.383   6.589   3.746
11201SOL     OW35441  11.321   3.799   6.760
11201SOL    HW135442  11.375   3.814   6.682
11201SOL    HW235443  11.318   3.884   6.803
11202SOL     OW35444   5.723   9.596   8.474
11202SOL    HW135445   5.672   9.535   8.421
11202SOL    HW235446   5.662   9.665   8.498
11203SOL     OW35447   6.186   0.592  11.965
11203SOL    HW135448   6.093   0.572  11.967
11203SOL    HW235449   6.217   0.555  11.882
11204SOL     OW35450  12.651   5.664   3.706
11204SOL    HW135451  12.660   5.574   3.676
11204SOL    HW235452  12.594   5.658   3.783
11205SOL     OW35453   2.928   1.150  10.505
11205SOL    HW135454   2.944   1.065  10.466
11205SOL    HW235455   2.952   1.139  10.598
11206SOL     OW35456   2.359   5.695  14.415
11206SOL    HW135457   2.410   5.771  14.387
11206SOL    HW235458   2.269   5.728  14.421
11207SOL     OW35459   4.197   0.843   9.931
11207SOL    HW135460   4.123   0.856   9.872
11207SOL    HW235461   4.169   0.772   9.988
11208SOL     OW35462   7.274  14.144   0.751
11208SOL    HW135463   7.264  14.102   0.836
11208SOL    HW235464   7.333  14.218   0.768
11209SOL     OW35465   7.358  12.922  14.852
11209SOL    HW135466   7.274  12.889   0.001
11209SOL    HW235467   7.344  12.939  14.759
11210SOL     OW35468   5.270  12.836   8.093
11210SOL    HW135469   5.251  12.773   8.163
11210SOL    HW235470   5.201  12.822   8.028
11211SOL     OW35471  11.178   9.628   8.340
11211SOL    HW135472  11.233   9.552   8.320
11211SOL    HW235473  11.103   9.619   8.281
11212SOL     OW35474   6.652   2.336   0.769
11212SOL    HW135475   6.746   2.330   0.782
11212SOL    HW235476   6.619   2.378   0.848
11213SOL     OW35477  13.350   5.209  12.232
11213SOL    HW135478  13.270   5.240  12.189
11213SOL    HW235479  13.375   5.281  12.289
11214SOL     OW35480   2.816   6.202   6.154
11214SOL    HW135481   2.826   6.266   6.224
11214SOL    HW235482   2.849   6.120   6.190
11215SOL     OW35483   3.317  13.635  10.205
11215SOL    HW135484   3.353  13.619  10.118
11215SOL    HW235485   3.393  13.636  10.263
11216SOL     OW35486   4.984   0.051   6.697
11216SOL    HW135487   5.075   0.082   6.698
11216SOL    HW235488   4.952   0.067   6.786
11217SOL     OW35489  13.479  14.082  12.959
11217SOL    HW135490  13.435  14.118  13.036
11217SOL    HW235491  13.495  13.990  12.983
11218SOL     OW35492   5.399  10.791   0.035
11218SOL    HW135493   5.364  10.708   0.068
11218SOL    HW235494   5.493  10.785   0.051
11219SOL     OW35495   6.089  14.231   6.812
11219SOL    HW135496   6.119  14.254   6.900
11219SOL    HW235497   6.026  14.160   6.826
11220SOL     OW35498  13.062  11.908   2.244
11220SOL    HW135499  13.066  11.876   2.154
11220SOL    HW235500  13.085  11.833   2.298
11221SOL     OW35501   8.765   6.908   3.047
11221SOL    HW135502   8.802   6.839   2.992
11221SOL    HW235503   8.800   6.989   3.010
11222SOL     OW35504  14.280   0.998  10.467
11222SOL    HW135505  14.279   0.911  10.507
11222SOL    HW235506  14.275   1.058  10.542
11223SOL     OW35507   5.163   9.184   9.006
11223SOL    HW135508   5.178   9.260   8.949
11223SOL    HW235509   5.181   9.108   8.950
11224SOL     OW35510   1.311   6.581   6.424
11224SOL    HW135511   1.236   6.526   6.445
11224SOL    HW235512   1.387   6.530   6.450
11225SOL     OW35513   3.861  10.098   4.491
11225SOL    HW135514   3.948  10.077   4.457
11225SOL    HW235515   3.816  10.139   4.417
11226SOL     OW35516   7.690   4.549   4.068
11226SOL    HW135517   7.743   4.481   4.109
11226SOL    HW235518   7.602   4.511   4.062
11227SOL     OW35519   0.826   1.327  10.491
11227SOL    HW135520   0.864   1.239  10.483
11227SOL    HW235521   0.787   1.328  10.579
11228SOL     OW35522  13.280  10.027   5.796
11228SOL    HW135523  13.340  10.029   5.871
11228SOL    HW235524  13.204  10.078   5.825
11229SOL     OW35525   6.737   2.508   6.412
11229SOL    HW135526   6.727   2.602   6.422
11229SOL    HW235527   6.811   2.498   6.352
11230SOL     OW35528   4.407  13.659  11.258
11230SOL    HW135529   4.484  13.641  11.312
11230SOL    HW235530   4.344  13.591  11.284
11231SOL     OW35531   5.148   5.897   9.851
11231SOL    HW135532   5.184   5.837   9.786
11231SOL    HW235533   5.163   5.984   9.815
11232SOL     OW35534  12.464   3.493   4.375
11232SOL    HW135535  12.472   3.582   4.409
11232SOL    HW235536  12.433   3.504   4.285
11233SOL     OW35537   8.488   7.168  11.594
11233SOL    HW135538   8.517   7.078  11.584
11233SOL    HW235539   8.559   7.212  11.641
11234SOL     OW35540  13.155  11.062   4.710
11234SOL    HW135541  13.069  11.059   4.667
11234SOL    HW235542  13.215  11.085   4.639
11235SOL     OW35543   9.268  10.388   9.619
11235SOL    HW135544   9.338  10.450   9.596
11235SOL    HW235545   9.315  10.309   9.646
11236SOL     OW35546  10.933   9.141   6.613
11236SOL    HW135547  10.993   9.180   6.678
11236SOL    HW235548  10.906   9.215   6.559
11237SOL     OW35549   6.384   4.111   9.508
11237SOL    HW135550   6.372   4.106   9.603
11237SOL    HW235551   6.310   4.062   9.472
11238SOL     OW35552   7.212  14.211   3.284
11238SOL    HW135553   7.215  14.294   3.333
11238SOL    HW235554   7.120  14.185   3.287
11239SOL     OW35555   2.180   3.666   0.868
11239SOL    HW135556   2.259   3.718   0.881
11239SOL    HW235557   2.137   3.709   0.793
11240SOL     OW35558   0.007   1.304   6.331
11240SOL    HW135559  14.833   1.349   6.267
11240SOL    HW235560  14.844   1.313   6.414
11241SOL     OW35561   8.681   4.817   9.026
11241SOL    HW135562   8.650   4.840   8.939
11241SOL    HW235563   8.610   4.841   9.084
11242SOL     OW35564   0.465  14.824   6.130
11242SOL    HW135565   0.496  14.736   6.109
11242SOL    HW235566   0.528  14.858   6.194
11243SOL     OW35567  14.830  13.702  10.589
11243SOL    HW135568  14.818  13.616  10.630
11243SOL    HW235569  14.879  13.753  10.653
11244SOL     OW35570   6.402   9.258   1.282
11244SOL    HW135571   6.402   9.344   1.240
11244SOL    HW235572   6.444   9.200   1.218
11245SOL     OW35573  13.193  12.911  14.548
11245SOL    HW135574  13.117  12.860  14.523
11245SOL    HW235575  13.176  12.938  14.638
11246SOL     OW35576  12.275  13.353   3.050
11246SOL    HW135577  12.197  13.397   3.082
11246SOL    HW235578  12.288  13.279   3.109
11247SOL     OW35579   3.526   3.621   1.086
11247SOL    HW135580   3.616   3.619   1.053
11247SOL    HW235581   3.474   3.652   1.012
11248SOL     OW35582   6.622   5.449   3.104
11248SOL    HW135583   6.565   5.374   3.088
11248SOL    HW235584   6.562   5.520   3.128
11249SOL     OW35585   3.928  13.151   1.555
11249SOL    HW135586   3.975  13.173   1.474
11249SOL    HW235587   3.840  13.125   1.525
11250SOL     OW35588  12.873  10.203   4.008
11250SOL    HW135589  12.960  10.242   4.005
11250SOL    HW235590  12.853  10.195   4.101
11251SOL     OW35591   8.823  12.376   4.395
11251SOL    HW135592   8.728  12.368   4.395
11251SOL    HW235593   8.855  12.286   4.405
11252SOL     OW35594   7.148   9.392   1.740
11252SOL    HW135595   7.233   9.427   1.766
11252SOL    HW235596   7.152   9.299   1.760
11253SOL     OW35597   3.048   7.725  14.862
11253SOL    HW135598   3.007   7.658  14.807
11253SOL    HW235599   2.978   7.755   0.038
11254SOL     OW35600  12.973   1.625  12.025
11254SOL    HW135601  13.068   1.615  12.015
11254SOL    HW235602  12.937   1.586  11.946
11255SOL     OW35603  11.858   1.526  11.690
11255SOL    HW135604  11.890   1.535  11.780
11255SOL    HW235605  11.855   1.616  11.656
11256SOL     OW35606   9.044  12.024   3.165
11256SOL    HW135607   9.068  12.044   3.255
11256SOL    HW235608   8.974  12.086   3.144
11257SOL     OW35609  11.555   1.791   9.401
11257SOL    HW135610  11.586   1.879   9.420
11257SOL    HW235611  11.509   1.799   9.318
11258SOL     OW35612   7.325  10.795   3.468
11258SOL    HW135613   7.243  10.838   3.490
11258SOL    HW235614   7.344  10.824   3.379
11259SOL     OW35615  10.534   6.099   4.188
11259SOL    HW135616  10.615   6.149   4.190
11259SOL    HW235617  10.496   6.110   4.275
11260SOL     OW35618  14.627   8.815  13.378
11260SOL    HW135619  14.694   8.785  13.316
11260SOL    HW235620  14.663   8.897  13.414
11261SOL     OW35621  11.028  14.597  10.135
11261SOL    HW135622  11.037  14.650  10.056
11261SOL    HW235623  10.939  14.617  10.166
11262SOL     OW35624   9.258   9.866  11.230
11262SOL    HW135625   9.178   9.905  11.195
11262SOL    HW235626   9.309   9.843  11.152
11263SOL     OW35627   6.260   9.430  14.836
11263SOL    HW135628   6.240   9.514  14.876
11263SOL    HW235629   6.209   9.429  14.755
11264SOL     OW35630   1.645  12.452   9.783
11264SOL    HW135631   1.717  12.511   9.804
11264SOL    HW235632   1.571  12.511   9.765
11265SOL     OW35633  14.624   0.886   8.805
11265SOL    HW135634  14.580   0.833   8.739
11265SOL    HW235635  14.580   0.864   8.887
11266SOL     OW35636   2.042  13.225   0.684
11266SOL    HW135637   2.130  13.262   0.678
11266SOL    HW235638   2.056  13.133   0.705
11267SOL     OW35639   4.503   7.925   6.164
11267SOL    HW135640   4.508   7.895   6.073
11267SOL    HW235641   4.486   7.845   6.214
11268SOL     OW35642   7.899  10.871  10.992
11268SOL    HW135643   7.889  10.862  10.897
11268SOL    HW235644   7.842  10.944  11.016
11269SOL     OW35645   0.542   5.354   7.277
11269SOL    HW135646   0.485   5.390   7.209
11269SOL    HW235647   0.564   5.266   7.245
11270SOL     OW35648   4.577   7.401  10.657
11270SOL    HW135649   4.494   7.377  10.697
11270SOL    HW235650   4.559   7.404  10.563
11271SOL     OW35651   0.286   3.573   4.947
11271SOL    HW135652   0.228   3.627   5.000
11271SOL    HW235653   0.311   3.500   5.004
11272SOL     OW35654  14.262   0.910  13.707
11272SOL    HW135655  14.218   0.993  13.728
11272SOL    HW235656  14.231   0.887  13.620
11273SOL     OW35657  12.895   9.410   5.076
11273SOL    HW135658  12.917   9.482   5.135
11273SOL    HW235659  12.915   9.331   5.126
11274SOL     OW35660  13.587   0.374   7.933
11274SOL    HW135661  13.660   0.427   7.901
11274SOL    HW235662  13.597   0.375   8.028
11275SOL     OW35663   0.307   7.707   2.564
11275SOL    HW135664   0.380   7.732   2.506
11275SOL    HW235665   0.313   7.769   2.637
11276SOL     OW35666  11.109   0.992   0.430
11276SOL    HW135667  11.046   1.007   0.501
11276SOL    HW235668  11.057   0.947   0.363
11277SOL     OW35669  10.198   5.036  13.174
11277SOL    HW135670  10.208   5.126  13.203
11277SOL    HW235671  10.119   5.005  13.219
11278SOL     OW35672   6.899   8.820   4.053
11278SOL    HW135673   6.977   8.839   4.001
11278SOL    HW235674   6.901   8.725   4.065
11279SOL     OW35675   3.717   9.589   6.488
11279SOL    HW135676   3.746   9.499   6.495
11279SOL    HW235677   3.714   9.620   6.579
11280SOL     OW35678   1.906   5.109   5.080
11280SOL    HW135679   1.860   5.085   5.160
11280SOL    HW235680   1.997   5.120   5.107
11281SOL     OW35681   1.349  11.274   3.826
11281SOL    HW135682   1.389  11.224   3.755
11281SOL    HW235683   1.373  11.227   3.905
11282SOL     OW35684  13.597   2.316   7.974
11282SOL    HW135685  13.682   2.293   8.011
11282SOL    HW235686  13.584   2.408   7.998
11283SOL     OW35687  14.547   0.611  13.181
11283SOL    HW135688  14.536   0.663  13.261
11283SOL    HW235689  14.581   0.673  13.117
11284SOL     OW35690  12.402   0.951   4.458
11284SOL    HW135691  12.360   1.034   4.436
11284SOL    HW235692  12.495   0.965   4.439
11285SOL     OW35693  12.444   0.790  12.689
11285SOL    HW135694  12.489   0.709  12.712
11285SOL    HW235695  12.383   0.765  12.620
11286SOL     OW35696   3.973  12.683   9.811
11286SOL    HW135697   3.978  12.738   9.734
11286SOL    HW235698   4.001  12.596   9.781
11287SOL     OW35699  11.546  10.366   4.502
11287SOL    HW135700  11.468  10.311   4.510
11287SOL    HW235701  11.600  10.321   4.436
11288SOL     OW35702   8.397   9.791   0.741
11288SOL    HW135703   8.358   9.850   0.805
11288SOL    HW235704   8.427   9.848   0.670
11289SOL     OW35705   2.573   4.709   1.858
11289SOL    HW135706   2.649   4.765   1.844
11289SOL    HW235707   2.564   4.659   1.777
11290SOL     OW35708   7.669   5.743   7.369
11290SOL    HW135709   7.632   5.823   7.331
11290SOL    HW235710   7.643   5.746   7.461
11291SOL     OW35711  12.356   4.225  14.072
11291SOL    HW135712  12.320   4.294  14.017
11291SOL    HW235713  12.280   4.194  14.123
11292SOL     OW35714  10.482   8.807  10.783
11292SOL    HW135715  10.562   8.807  10.732
11292SOL    HW235716  10.437   8.888  10.758
11293SOL     OW35717  11.159   5.172   9.906
11293SOL    HW135718  11.211   5.092   9.918
11293SOL    HW235719  11.076   5.152   9.951
11294SOL     OW35720   9.115   3.252  13.027
11294SOL    HW135721   9.173   3.324  13.003
11294SOL    HW235722   9.142   3.179  12.972
11295SOL     OW35723   9.604  12.573   5.847
11295SOL    HW135724   9.627  12.502   5.787
11295SOL    HW235725   9.684  12.626   5.853
11296SOL     OW35726  10.728  12.056   9.098
11296SOL    HW135727  10.645  12.103   9.109
11296SOL    HW235728  10.779  12.080   9.175
11297SOL     OW35729   4.948   2.577  12.312
11297SOL    HW135730   4.917   2.667  12.321
11297SOL    HW235731   4.869   2.523  12.317
11298SOL     OW35732   2.785   2.834   8.688
11298SOL    HW135733   2.834   2.912   8.715
11298SOL    HW235734   2.787   2.776   8.764
11299SOL     OW35735  12.327  12.262   4.853
11299SOL    HW135736  12.298  12.337   4.802
11299SOL    HW235737  12.391  12.218   4.798
11300SOL     OW35738   5.101   8.820  13.272
11300SOL    HW135739   5.126   8.910  13.295
11300SOL    HW235740   5.106   8.773  13.355
11301SOL     OW35741   7.051   5.795  13.410
11301SOL    HW135742   6.998   5.860  13.457
11301SOL    HW235743   6.994   5.718  13.404
11302SOL     OW35744   2.232   5.529   9.601
11302SOL    HW135745   2.269   5.600   9.653
11302SOL    HW235746   2.185   5.475   9.665
11303SOL     OW35747   7.759  12.091  14.647
11303SOL    HW135748   7.767  11.997  14.630
11303SOL    HW235749   7.666  12.109  14.638
11304SOL     OW35750  13.077   5.462  13.609
11304SOL    HW135751  13.166   5.496  13.616
11304SOL    HW235752  13.032   5.496  13.686
11305SOL     OW35753   3.499   1.974  11.627
11305SOL    HW135754   3.569   1.970  11.561
11305SOL    HW235755   3.470   1.883  11.637
11306SOL     OW35756  12.449   6.202   9.501
11306SOL    HW135757  12.463   6.236   9.413
11306SOL    HW235758  12.494   6.117   9.502
11307SOL     OW35759   1.669   3.015   8.235
11307SOL    HW135760   1.719   2.962   8.173
11307SOL    HW235761   1.586   3.032   8.191
11308SOL     OW35762  10.737   0.439   3.108
11308SOL    HW135763  10.827   0.407   3.120
11308SOL    HW235764  10.746   0.512   3.046
11309SOL     OW35765  10.811   8.294   1.749
11309SOL    HW135766  10.846   8.268   1.664
11309SOL    HW235767  10.777   8.382   1.734
11310SOL     OW35768   5.385   4.948   4.548
11310SOL    HW135769   5.330   4.969   4.624
11310SOL    HW235770   5.350   4.866   4.515
11311SOL     OW35771   5.772  11.204   1.933
11311SOL    HW135772   5.736  11.126   1.974
11311SOL    HW235773   5.777  11.269   2.003
11312SOL     OW35774   5.145   0.285   1.633
11312SOL    HW135775   5.063   0.301   1.679
11312SOL    HW235776   5.190   0.220   1.686
11313SOL     OW35777  13.507  10.758  14.292
11313SOL    HW135778  13.498  10.773  14.386
11313SOL    HW235779  13.488  10.665  14.280
11314SOL     OW35780  11.244   1.501   8.541
11314SOL    HW135781  11.281   1.433   8.484
11314SOL    HW235782  11.183   1.454   8.598
11315SOL     OW35783   4.639  10.369   5.217
11315SOL    HW135784   4.569  10.422   5.255
11315SOL    HW235785   4.594  10.313   5.153
11316SOL     OW35786  11.281  12.738  12.590
11316SOL    HW135787  11.263  12.768  12.501
11316SOL    HW235788  11.354  12.676  12.580
11317SOL     OW35789   2.431   7.574   1.077
11317SOL    HW135790   2.520   7.553   1.050
11317SOL    HW235791   2.405   7.647   1.021
11318SOL     OW35792   3.890   7.262   0.841
11318SOL    HW135793   3.880   7.236   0.749
11318SOL    HW235794   3.831   7.337   0.851
11319SOL     OW35795  14.039   3.709   1.788
11319SOL    HW135796  14.089   3.791   1.789
11319SOL    HW235797  13.990   3.713   1.706
11320SOL     OW35798   0.157   8.794  11.343
11320SOL    HW135799   0.071   8.757  11.322
11320SOL    HW235800   0.220   8.727  11.317
11321SOL     OW35801   0.514  11.832  13.706
11321SOL    HW135802   0.508  11.906  13.766
11321SOL    HW235803   0.476  11.864  13.624
11322SOL     OW35804  14.500   6.677   4.802
11322SOL    HW135805  14.561   6.743   4.769
11322SOL    HW235806  14.447   6.652   4.725
11323SOL     OW35807  13.773  13.814   6.467
11323SOL    HW135808  13.720  13.778   6.538
11323SOL    HW235809  13.712  13.865   6.414
11324SOL     OW35810   7.068   5.043   4.673
11324SOL    HW135811   7.136   5.024   4.608
11324SOL    HW235812   6.987   5.013   4.633
11325SOL     OW35813  11.628   2.150   0.514
11325SOL    HW135814  11.575   2.173   0.439
11325SOL    HW235815  11.612   2.057   0.528
11326SOL     OW35816  10.251   7.961   4.889
11326SOL    HW135817  10.311   7.952   4.962
11326SOL    HW235818  10.212   7.874   4.879
11327SOL     OW35819   1.823   5.663  14.478
11327SOL    HW135820   1.746   5.711  14.507
11327SOL    HW235821   1.800   5.631  14.391
11328SOL     OW35822   1.344   0.149   0.345
11328SOL    HW135823   1.424   0.118   0.303
11328SOL    HW235824   1.367   0.235   0.380
11329SOL     OW35825   3.212   0.546  13.489
11329SOL    HW135826   3.260   0.533  13.406
11329SOL    HW235827   3.176   0.634  13.482
11330SOL     OW35828   2.701   2.703  12.337
11330SOL    HW135829   2.676   2.729  12.248
11330SOL    HW235830   2.740   2.617  12.326
11331SOL     OW35831  13.673   3.611   3.057
11331SOL    HW135832  13.647   3.559   3.133
11331SOL    HW235833  13.600   3.605   2.997
11332SOL     OW35834   3.774   1.866  11.200
11332SOL    HW135835   3.703   1.815  11.238
11332SOL    HW235836   3.759   1.860  11.105
11333SOL     OW35837   2.648  10.913   1.056
11333SOL    HW135838   2.735  10.875   1.069
11333SOL    HW235839   2.663  10.992   1.004
11334SOL     OW35840   9.279   7.532  10.455
11334SOL    HW135841   9.296   7.543  10.361
11334SOL    HW235842   9.355   7.484  10.487
11335SOL     OW35843  12.525   5.468   7.013
11335SOL    HW135844  12.589   5.509   6.956
11335SOL    HW235845  12.538   5.509   7.099
11336SOL     OW35846  14.570  12.008   5.985
11336SOL    HW135847  14.537  12.095   5.966
11336SOL    HW235848  14.647  12.022   6.038
11337SOL     OW35849   8.315   9.975   3.950
11337SOL    HW135850   8.297   9.996   3.858
11337SOL    HW235851   8.267  10.042   3.999
11338SOL     OW35852   2.942   0.136  10.791
11338SOL    HW135853   2.986   0.080  10.727
11338SOL    HW235854   2.921   0.077  10.863
11339SOL     OW35855   6.648  12.309  11.256
11339SOL    HW135856   6.706  12.335  11.184
11339SOL    HW235857   6.698  12.241  11.302
11340SOL     OW35858  13.100  14.618   3.224
11340SOL    HW135859  13.046  14.543   3.248
11340SOL    HW235860  13.040  14.693   3.225
11341SOL     OW35861  12.857   5.352   4.141
11341SOL    HW135862  12.890   5.404   4.068
11341SOL    HW235863  12.935   5.333   4.194
11342SOL     OW35864   8.997   7.681   6.227
11342SOL    HW135865   8.934   7.610   6.213
11342SOL    HW235866   9.079   7.646   6.194
11343SOL     OW35867  13.888  12.586   6.754
11343SOL    HW135868  13.851  12.605   6.840
11343SOL    HW235869  13.828  12.626   6.692
11344SOL     OW35870   4.017   3.077  12.847
11344SOL    HW135871   4.048   3.164  12.869
11344SOL    HW235872   4.065   3.018  12.905
11345SOL     OW35873  10.496  12.969   7.390
11345SOL    HW135874  10.507  12.956   7.484
11345SOL    HW235875  10.577  13.012   7.363
11346SOL     OW35876   8.130   3.700   2.570
11346SOL    HW135877   8.175   3.619   2.597
11346SOL    HW235878   8.060   3.711   2.635
11347SOL     OW35879   7.135   2.512   2.587
11347SOL    HW135880   7.173   2.536   2.503
11347SOL    HW235881   7.087   2.590   2.615
11348SOL     OW35882  13.427  13.451   3.433
11348SOL    HW135883  13.512  13.480   3.466
11348SOL    HW235884  13.365  13.474   3.502
11349SOL     OW35885   0.976   1.231   7.766
11349SOL    HW135886   0.990   1.195   7.678
11349SOL    HW235887   1.028   1.176   7.824
11350SOL     OW35888   8.970  11.343   7.415
11350SOL    HW135889   8.925  11.295   7.345
11350SOL    HW235890   9.058  11.358   7.380
11351SOL     OW35891   2.665   4.293  11.937
11351SOL    HW135892   2.661   4.284  12.032
11351SOL    HW235893   2.591   4.240  11.905
11352SOL     OW35894  14.036  14.114   2.123
11352SOL    HW135895  14.110  14.089   2.067
11352SOL    HW235896  13.962  14.122   2.064
11353SOL     OW35897   7.348  14.380  10.731
11353SOL    HW135898   7.326  14.467  10.698
11353SOL    HW235899   7.339  14.322  10.655
11354SOL     OW35900  14.395  12.440   8.272
11354SOL    HW135901  14.309  12.427   8.233
11354SOL    HW235902  14.434  12.352   8.274
11355SOL     OW35903   1.771   3.623   3.764
11355SOL    HW135904   1.730   3.556   3.707
11355SOL    HW235905   1.848   3.652   3.715
11356SOL     OW35906  11.364   2.395   4.011
11356SOL    HW135907  11.368   2.440   4.095
11356SOL    HW235908  11.428   2.325   4.018
11357SOL     OW35909   1.664   1.450  10.335
11357SOL    HW135910   1.758   1.439  10.326
11357SOL    HW235911   1.648   1.542  10.315
11358SOL     OW35912   7.014  12.255  14.491
11358SOL    HW135913   6.921  12.270  14.479
11358SOL    HW235914   7.047  12.236  14.403
11359SOL     OW35915  13.445  14.225   0.323
11359SOL    HW135916  13.391  14.303   0.333
11359SOL    HW235917  13.438  14.202   0.231
11360SOL     OW35918  11.504   8.863   5.517
11360SOL    HW135919  11.450   8.859   5.596
11360SOL    HW235920  11.543   8.776   5.509
11361SOL     OW35921   8.628  12.378   4.131
11361SOL    HW135922   8.568  12.321   4.178
11361SOL    HW235923   8.597  12.467   4.150
11362SOL     OW35924   9.821  14.583   3.169
11362SOL    HW135925   9.743  14.628   3.202
11362SOL    HW235926   9.892  14.645   3.183
11363SOL     OW35927  12.867  13.249   1.560
11363SOL    HW135928  12.844  13.284   1.646
11363SOL    HW235929  12.825  13.163   1.557
11364SOL     OW35930  14.486   3.532   5.548
11364SOL    HW135931  14.575   3.545   5.517
11364SOL    HW235932  14.452   3.461   5.493
11365SOL     OW35933   1.815   3.230  14.272
11365SOL    HW135934   1.891   3.172  14.281
11365SOL    HW235935   1.852   3.318  14.266
11366SOL     OW35936  12.267  12.413   4.073
11366SOL    HW135937  12.241  12.392   4.163
11366SOL    HW235938  12.264  12.329   4.027
11367SOL     OW35939  13.910  14.685   3.737
11367SOL    HW135940  13.911  14.772   3.696
11367SOL    HW235941  13.963  14.695   3.816
11368SOL     OW35942   0.451   9.258   2.975
11368SOL    HW135943   0.420   9.182   2.926
11368SOL    HW235944   0.423   9.333   2.923
11369SOL     OW35945   0.451   3.132   8.344
11369SOL    HW135946   0.379   3.086   8.301
11369SOL    HW235947   0.500   3.063   8.389
11370SOL     OW35948   2.397  14.237  14.616
11370SOL    HW135949   2.372  14.329  14.603
11370SOL    HW235950   2.486  14.232  14.581
11371SOL     OW35951   9.876   2.716   9.176
11371SOL    HW135952   9.906   2.793   9.225
11371SOL    HW235953   9.830   2.752   9.101
11372SOL     OW35954   3.203   3.699  10.666
11372SOL    HW135955   3.208   3.777  10.721
11372SOL    HW235956   3.196   3.733  10.577
11373SOL     OW35957   6.289  10.895   7.368
11373SOL    HW135958   6.302  10.987   7.345
11373SOL    HW235959   6.364  10.850   7.330
11374SOL     OW35960   7.603   5.654  14.231
11374SOL    HW135961   7.665   5.710  14.184
11374SOL    HW235962   7.618   5.674  14.323
11375SOL     OW35963   8.583   2.896   2.721
11375SOL    HW135964   8.674   2.882   2.745
11375SOL    HW235965   8.541   2.923   2.803
11376SOL     OW35966   8.790   1.718   4.775
11376SOL    HW135967   8.702   1.689   4.754
11376SOL    HW235968   8.805   1.795   4.720
11377SOL     OW35969  11.607   3.816   7.639
11377SOL    HW135970  11.652   3.744   7.683
11377SOL    HW235971  11.634   3.809   7.547
11378SOL     OW35972   7.463   2.310   0.468
11378SOL    HW135973   7.447   2.280   0.378
11378SOL    HW235974   7.482   2.404   0.459
11379SOL     OW35975   0.575   8.479   7.226
11379SOL    HW135976   0.520   8.401   7.234
11379SOL    HW235977   0.665   8.446   7.229
11380SOL     OW35978   4.315   8.598   0.312
11380SOL    HW135979   4.363   8.609   0.394
11380SOL    HW235980   4.294   8.687   0.285
11381SOL     OW35981   6.491  10.506   0.143
11381SOL    HW135982   6.447  10.579   0.187
11381SOL    HW235983   6.428  10.477   0.078
11382SOL     OW35984   4.959  14.068   2.836
11382SOL    HW135985   5.040  14.021   2.854
11382SOL    HW235986   4.915  14.015   2.770
11383SOL     OW35987   5.994   9.496  13.543
11383SOL    HW135988   5.926   9.475  13.479
11383SOL    HW235989   5.956   9.467  13.627
11384SOL     OW35990  14.858  12.582  10.650
11384SOL    HW135991  14.842  12.600  10.557
11384SOL    HW235992   0.065  12.616  10.666
11385SOL     OW35993  12.264   6.080   1.227
11385SOL    HW135994  12.296   6.093   1.138
11385SOL    HW235995  12.237   5.989   1.231
11386SOL     OW35996  14.301   9.072  13.886
11386SOL    HW135997  14.326   9.164  13.874
11386SOL    HW235998  14.251   9.071  13.967
11387SOL     OW35999   6.340   4.041   7.904
11387SOL    HW136000   6.432   4.065   7.920
11387SOL    HW236001   6.342   3.995   7.820
11388SOL     OW36002   6.153   2.566   3.980
11388SOL    HW136003   6.133   2.637   3.919
11388SOL    HW236004   6.247   2.553   3.973
11389SOL     OW36005  12.907   1.835  12.584
11389SOL    HW136006  12.865   1.888  12.516
11389SOL    HW236007  13.000   1.841  12.565
11390SOL     OW36008   0.982   2.511   0.921
11390SOL    HW136009   0.947   2.552   1.000
11390SOL    HW236010   0.943   2.424   0.919
11391SOL     OW36011   0.262   9.339   4.768
11391SOL    HW136012   0.305   9.420   4.740
11391SOL    HW236013   0.298   9.272   4.710
11392SOL     OW36014   0.830   6.468   8.245
11392SOL    HW136015   0.798   6.554   8.274
11392SOL    HW236016   0.778   6.448   8.168
11393SOL     OW36017   1.016   3.021   9.832
11393SOL    HW136018   1.035   2.934   9.865
11393SOL    HW236019   0.936   3.011   9.781
11394SOL     OW36020   4.529   6.203   6.521
11394SOL    HW136021   4.547   6.179   6.430
11394SOL    HW236022   4.433   6.210   6.525
11395SOL     OW36023  13.959  11.324   8.744
11395SOL    HW136024  14.047  11.361   8.739
11395SOL    HW236025  13.950  11.295   8.835
11396SOL     OW36026   5.217   8.054   4.131
11396SOL    HW136027   5.139   8.107   4.145
11396SOL    HW236028   5.190   7.988   4.067
11397SOL     OW36029  12.891   5.989   9.041
11397SOL    HW136030  12.891   5.985   9.137
11397SOL    HW236031  12.981   5.968   9.016
11398SOL     OW36032   9.541   5.143  10.778
11398SOL    HW136033   9.564   5.074  10.840
11398SOL    HW236034   9.586   5.118  10.697
11399SOL     OW36035   4.300   6.165   7.659
11399SOL    HW136036   4.343   6.085   7.631
11399SOL    HW236037   4.283   6.152   7.752
11400SOL     OW36038   1.037   7.043  12.073
11400SOL    HW136039   0.963   7.098  12.049
11400SOL    HW236040   1.111   7.103  12.083
11401SOL     OW36041  13.205   5.469   7.347
11401SOL    HW136042  13.298   5.462   7.370
11401SOL    HW236043  13.206   5.503   7.257
11402SOL     OW36044   5.811  11.584   2.805
11402SOL    HW136045   5.820  11.489   2.805
11402SOL    HW236046   5.725  11.600   2.766
11403SOL     OW36047   4.068   1.153   8.440
11403SOL    HW136048   4.064   1.058   8.451
11403SOL    HW236049   4.127   1.165   8.365
11404SOL     OW36050   1.967  12.455   7.580
11404SOL    HW136051   1.908  12.517   7.621
11404SOL    HW236052   1.979  12.386   7.645
11405SOL     OW36053  13.408   3.010   3.795
11405SOL    HW136054  13.480   2.947   3.801
11405SOL    HW236055  13.444   3.092   3.829
11406SOL     OW36056   4.440  12.511   6.752
11406SOL    HW136057   4.467  12.603   6.754
11406SOL    HW236058   4.446  12.483   6.843
11407SOL     OW36059   3.455   7.608   0.947
11407SOL    HW136060   3.455   7.687   0.894
11407SOL    HW236061   3.428   7.637   1.034
11408SOL     OW36062   4.291  11.795   5.399
11408SOL    HW136063   4.368  11.761   5.444
11408SOL    HW236064   4.284  11.886   5.428
11409SOL     OW36065   9.208   8.568   2.211
11409SOL    HW136066   9.173   8.657   2.211
11409SOL    HW236067   9.146   8.518   2.263
11410SOL     OW36068   5.419   3.012  13.555
11410SOL    HW136069   5.414   2.936  13.498
11410SOL    HW236070   5.342   3.065  13.532
11411SOL     OW36071   9.412   6.683   3.066
11411SOL    HW136072   9.479   6.750   3.077
11411SOL    HW236073   9.395   6.681   2.971
11412SOL     OW36074  13.004   7.988  11.064
11412SOL    HW136075  12.917   7.997  11.023
11412SOL    HW236076  13.038   7.905  11.030
11413SOL     OW36077  14.188  11.860   3.822
11413SOL    HW136078  14.164  11.793   3.886
11413SOL    HW236079  14.139  11.836   3.743
11414SOL     OW36080   0.120   1.614   3.561
11414SOL    HW136081   0.122   1.571   3.476
11414SOL    HW236082   0.071   1.695   3.546
11415SOL     OW36083   8.365  11.710   0.330
11415SOL    HW136084   8.457  11.731   0.344
11415SOL    HW236085   8.328  11.786   0.287
11416SOL     OW36086  12.883   5.279   4.821
11416SOL    HW136087  12.799   5.274   4.775
11416SOL    HW236088  12.867   5.233   4.904
11417SOL     OW36089   3.971   7.342   1.485
11417SOL    HW136090   3.928   7.353   1.570
11417SOL    HW236091   3.900   7.345   1.421
11418SOL     OW36092   2.448   9.679   6.135
11418SOL    HW136093   2.472   9.588   6.154
11418SOL    HW236094   2.531   9.721   6.113
11419SOL     OW36095   7.876  14.650   2.353
11419SOL    HW136096   7.944  14.651   2.420
11419SOL    HW236097   7.834  14.564   2.363
11420SOL     OW36098   8.557   6.527   5.506
11420SOL    HW136099   8.571   6.458   5.441
11420SOL    HW236100   8.489   6.493   5.563
11421SOL     OW36101  10.246  13.776   6.160
11421SOL    HW136102  10.229  13.786   6.066
11421SOL    HW236103  10.298  13.696   6.167
11422SOL     OW36104  12.958   9.394  11.191
11422SOL    HW136105  12.927   9.370  11.104
11422SOL    HW236106  12.987   9.485  11.182
11423SOL     OW36107   6.628   5.702   9.589
11423SOL    HW136108   6.573   5.629   9.617
11423SOL    HW236109   6.601   5.720   9.499
11424SOL     OW36110  12.291  14.811  11.485
11424SOL    HW136111  12.196  14.806  11.489
11424SOL    HW236112  12.320  14.720  11.496
11425SOL     OW36113   2.842   7.658  11.710
11425SOL    HW136114   2.916   7.696  11.757
11425SOL    HW236115   2.818   7.724  11.645
11426SOL     OW36116   6.194   3.310   0.010
11426SOL    HW136117   6.208   3.300  14.798
11426SOL    HW236118   6.138   3.388   0.017
11427SOL     OW36119   7.765  14.704   1.652
11427SOL    HW136120   7.800  14.627   1.697
11427SOL    HW236121   7.811  14.778   1.692
11428SOL     OW36122   5.639   1.561  14.677
11428SOL    HW136123   5.604   1.649  14.691
11428SOL    HW236124   5.697   1.546  14.752
11429SOL     OW36125   6.564   1.701   3.693
11429SOL    HW136126   6.631   1.657   3.640
11429SOL    HW236127   6.594   1.791   3.700
11430SOL     OW36128   3.876   8.903   9.654
11430SOL    HW136129   3.817   8.832   9.678
11430SOL    HW236130   3.963   8.872   9.679
11431SOL     OW36131  12.745  12.098   1.663
11431SOL    HW136132  12.719  12.068   1.576
11431SOL    HW236133  12.687  12.052   1.724
11432SOL     OW36134   8.291  13.226  11.119
11432SOL    HW136135   8.328  13.228  11.207
11432SOL    HW236136   8.216  13.168  11.126
11433SOL     OW36137   2.108  10.231   9.499
11433SOL    HW136138   2.056  10.257   9.575
11433SOL    HW236139   2.051  10.249   9.424
11434SOL     OW36140   0.621   2.411   2.709
11434SOL    HW136141   0.670   2.447   2.782
11434SOL    HW236142   0.529   2.423   2.733
11435SOL     OW36143  13.878   1.966   0.833
11435SOL    HW136144  13.854   2.052   0.866
11435SOL    HW236145  13.966   1.978   0.797
11436SOL     OW36146   7.173  11.760   2.734
11436SOL    HW136147   7.186  11.687   2.674
11436SOL    HW236148   7.159  11.836   2.677
11437SOL     OW36149   1.483   9.915  14.025
11437SOL    HW136150   1.482   9.821  14.044
11437SOL    HW236151   1.508   9.920  13.933
11438SOL     OW36152  12.246   5.536   1.439
11438SOL    HW136153  12.289   5.594   1.503
11438SOL    HW236154  12.155   5.532   1.467
11439SOL     OW36155   8.074  10.491   1.511
11439SOL    HW136156   8.122  10.572   1.526
11439SOL    HW236157   8.061  10.454   1.598
11440SOL     OW36158  12.976   7.634   9.000
11440SOL    HW136159  12.994   7.721   8.964
11440SOL    HW236160  13.052   7.615   9.055
11441SOL     OW36161   7.344  11.856  11.389
11441SOL    HW136162   7.272  11.867  11.326
11441SOL    HW236163   7.419  11.898  11.347
11442SOL     OW36164  10.171  13.312  10.435
11442SOL    HW136165  10.115  13.358  10.497
11442SOL    HW236166  10.119  13.308  10.354
11443SOL     OW36167   9.863   6.968  12.033
11443SOL    HW136168   9.833   7.059  12.029
11443SOL    HW236169   9.791   6.918  11.995
11444SOL     OW36170  10.581   0.974   7.177
11444SOL    HW136171  10.519   0.963   7.105
11444SOL    HW236172  10.534   0.946   7.255
11445SOL     OW36173   0.673  10.763   8.373
11445SOL    HW136174   0.697  10.685   8.422
11445SOL    HW236175   0.614  10.811   8.431
11446SOL     OW36176   8.402   2.779  12.516
11446SOL    HW136177   8.494   2.791  12.490
11446SOL    HW236178   8.352   2.830  12.452
11447SOL     OW36179   5.585  13.965   0.167
11447SOL    HW136180   5.585  14.056   0.199
11447SOL    HW236181   5.604  13.973   0.073
11448SOL     OW36182   5.901   4.920  13.745
11448SOL    HW136183   5.840   4.993  13.753
11448SOL    HW236184   5.988   4.961  13.749
11449SOL     OW36185  14.852   2.413   4.623
11449SOL    HW136186  14.788   2.353   4.661
11449SOL    HW236187   0.054   2.369   4.635
11450SOL     OW36188   4.265  14.594   5.811
11450SOL    HW136189   4.247  14.688   5.803
11450SOL    HW236190   4.350  14.590   5.854
11451SOL     OW36191   5.112   8.072  12.497
11451SOL    HW136192   5.178   8.023  12.448
11451SOL    HW236193   5.061   8.117  12.430
11452SOL     OW36194   1.882   6.870   1.131
11452SOL    HW136195   1.843   6.947   1.172
11452SOL    HW236196   1.849   6.871   1.042
11453SOL     OW36197   6.306  14.204  10.819
11453SOL    HW136198   6.285  14.173  10.731
11453SOL    HW236199   6.280  14.133  10.877
11454SOL     OW36200   4.231  11.341   1.431
11454SOL    HW136201   4.303  11.279   1.420
11454SOL    HW236202   4.265  11.424   1.397
11455SOL     OW36203  13.757   3.858   6.834
11455SOL    HW136204  13.728   3.946   6.855
11455SOL    HW236205  13.853   3.862   6.842
11456SOL     OW36206   7.375   8.235   7.618
11456SOL    HW136207   7.403   8.274   7.535
11456SOL    HW236208   7.288   8.199   7.600
11457SOL     OW36209   5.746   6.538  12.344
11457SOL    HW136210   5.697   6.619  12.330
11457SOL    HW236211   5.768   6.507  12.256
11458SOL     OW36212  11.536   0.775  14.618
11458SOL    HW136213  11.553   0.869  14.619
11458SOL    HW236214  11.485   0.761  14.539
11459SOL     OW36215  11.461  11.093   4.786
11459SOL    HW136216  11.513  11.044   4.850
11459SOL    HW236217  11.478  11.185   4.807
11460SOL     OW36218  12.183   1.788   6.006
11460SOL    HW136219  12.219   1.764   6.091
11460SOL    HW236220  12.100   1.830   6.027
11461SOL     OW36221   4.056  13.509  14.268
11461SOL    HW136222   3.979  13.562  14.288
11461SOL    HW236223   4.107  13.509  14.350
11462SOL     OW36224   6.704  11.857  10.197
11462SOL    HW136225   6.779  11.916  10.203
11462SOL    HW236226   6.653  11.889  10.124
11463SOL     OW36227   0.519   7.526  13.017
11463SOL    HW136228   0.529   7.448  12.963
11463SOL    HW236229   0.534   7.496  13.107
11464SOL     OW36230   0.662   1.135   0.290
11464SOL    HW136231   0.729   1.147   0.358
11464SOL    HW236232   0.661   1.040   0.275
11465SOL     OW36233   8.902   3.379   0.239
11465SOL    HW136234   8.900   3.451   0.175
11465SOL    HW236235   8.814   3.341   0.234
11466SOL     OW36236  14.454   4.333   2.446
11466SOL    HW136237  14.514   4.326   2.520
11466SOL    HW236238  14.372   4.295   2.478
11467SOL     OW36239   8.660   2.642   0.238
11467SOL    HW136240   8.629   2.715   0.184
11467SOL    HW236241   8.711   2.587   0.178
11468SOL     OW36242   2.482   8.367   7.605
11468SOL    HW136243   2.489   8.307   7.531
11468SOL    HW236244   2.522   8.320   7.678
11469SOL     OW36245  13.674   5.687   1.755
11469SOL    HW136246  13.766   5.707   1.738
11469SOL    HW236247  13.668   5.592   1.743
11470SOL     OW36248   7.052   0.199   6.446
11470SOL    HW136249   7.138   0.164   6.425
11470SOL    HW236250   7.011   0.216   6.362
11471SOL     OW36251   5.107  11.095  12.777
11471SOL    HW136252   5.140  11.075  12.864
11471SOL    HW236253   5.015  11.118  12.791
11472SOL     OW36254  10.122  13.394   5.045
11472SOL    HW136255  10.049  13.336   5.070
11472SOL    HW236256  10.192  13.334   5.019
11473SOL     OW36257   9.094   5.618  14.094
11473SOL    HW136258   9.033   5.658  14.156
11473SOL    HW236259   9.040   5.587  14.021
11474SOL     OW36260  13.512   5.499  11.696
11474SOL    HW136261  13.492   5.587  11.729
11474SOL    HW236262  13.503   5.507  11.601
11475SOL     OW36263   9.177  10.720   2.567
11475SOL    HW136264   9.204  10.657   2.634
11475SOL    HW236265   9.137  10.666   2.499
11476SOL     OW36266   1.591   7.243  13.055
11476SOL    HW136267   1.675   7.215  13.020
11476SOL    HW236268   1.610   7.327  13.098
11477SOL     OW36269  12.335   0.832  14.115
11477SOL    HW136270  12.270   0.876  14.059
11477SOL    HW236271  12.325   0.874  14.200
11478SOL     OW36272   4.227   7.284   2.286
11478SOL    HW136273   4.213   7.369   2.328
11478SOL    HW236274   4.321   7.268   2.296
11479SOL     OW36275  14.011   0.354   1.015
11479SOL    HW136276  14.060   0.371   0.934
11479SOL    HW236277  14.064   0.395   1.083
11480SOL     OW36278   3.265  12.176   0.904
11480SOL    HW136279   3.339  12.179   0.964
11480SOL    HW236280   3.223  12.092   0.921
11481SOL     OW36281  10.064   9.511   2.446
11481SOL    HW136282  10.047   9.505   2.540
11481SOL    HW236283   9.982   9.545   2.409
11482SOL     OW36284  12.437  10.087   3.584
11482SOL    HW136285  12.362  10.085   3.642
11482SOL    HW236286  12.414  10.151   3.517
11483SOL     OW36287   1.248  10.138   2.469
11483SOL    HW136288   1.298  10.216   2.490
11483SOL    HW236289   1.157  10.167   2.470
11484SOL     OW36290   2.287   6.968   0.055
11484SOL    HW136291   2.206   6.993   0.101
11484SOL    HW236292   2.310   6.883   0.092
11485SOL     OW36293   7.991  14.800  14.685
11485SOL    HW136294   8.026  14.729  14.631
11485SOL    HW236295   8.067  14.855  14.704
11486SOL     OW36296   4.017   5.130  10.998
11486SOL    HW136297   3.922   5.117  10.993
11486SOL    HW236298   4.049   5.050  11.040
11487SOL     OW36299   3.177  12.187   6.047
11487SOL    HW136300   3.123  12.163   6.123
11487SOL    HW236301   3.253  12.231   6.085
11488SOL     OW36302  13.763   7.949  11.954
11488SOL    HW136303  13.777   7.856  11.938
11488SOL    HW236304  13.849   7.989  11.940
11489SOL     OW36305  10.080  13.834   2.533
11489SOL    HW136306  10.029  13.754   2.519
11489SOL    HW236307  10.137  13.813   2.607
11490SOL     OW36308  13.856  11.818   3.191
11490SOL    HW136309  13.913  11.785   3.260
11490SOL    HW236310  13.884  11.908   3.176
11491SOL     OW36311  11.104   1.911   1.587
11491SOL    HW136312  11.103   1.910   1.492
11491SOL    HW236313  11.101   1.819   1.613
11492SOL     OW36314   5.816  12.968   3.292
11492SOL    HW136315   5.754  12.903   3.325
11492SOL    HW236316   5.882  12.976   3.362
11493SOL     OW36317   5.568   9.835   8.915
11493SOL    HW136318   5.539   9.917   8.877
11493SOL    HW236319   5.657   9.853   8.947
11494SOL     OW36320   3.735  12.146   6.749
11494SOL    HW136321   3.729  12.241   6.757
11494SOL    HW236322   3.821  12.124   6.784
11495SOL     OW36323  10.251   6.505  11.205
11495SOL    HW136324  10.346   6.512  11.214
11495SOL    HW236325  10.226   6.581  11.153
11496SOL     OW36326   8.176   8.662  11.427
11496SOL    HW136327   8.249   8.654  11.489
11496SOL    HW236328   8.209   8.721  11.359
11497SOL     OW36329   0.251  14.615  13.707
11497SOL    HW136330   0.288  14.552  13.645
11497SOL    HW236331   0.167  14.578  13.732
11498SOL     OW36332   2.928   8.323   4.065
11498SOL    HW136333   2.919   8.293   4.155
11498SOL    HW236334   2.859   8.388   4.054
11499SOL     OW36335   6.770   4.433   9.515
11499SOL    HW136336   6.696   4.490   9.491
11499SOL    HW236337   6.778   4.442   9.609
11500SOL     OW36338  10.895   0.393   3.543
11500SOL    HW136339  10.931   0.450   3.475
11500SOL    HW236340  10.891   0.449   3.621
11501SOL     OW36341   8.710   1.856  14.850
11501SOL    HW136342   8.693   1.936   0.018
11501SOL    HW236343   8.680   1.877  14.761
11502SOL     OW36344   6.294   4.380   9.694
11502SOL    HW136345   6.267   4.301   9.740
11502SOL    HW236346   6.346   4.429   9.758
11503SOL     OW36347   5.279   2.091  14.404
11503SOL    HW136348   5.271   2.070  14.497
11503SOL    HW236349   5.279   2.006  14.360
11504SOL     OW36350   2.458   7.072   6.110
11504SOL    HW136351   2.490   6.986   6.083
11504SOL    HW236352   2.379   7.086   6.058
11505SOL     OW36353   8.969  10.563   1.204
11505SOL    HW136354   8.908  10.503   1.161
11505SOL    HW236355   8.967  10.539   1.296
11506SOL     OW36356   7.954   9.554   1.721
11506SOL    HW136357   7.933   9.607   1.798
11506SOL    HW236358   7.869   9.528   1.686
11507SOL     OW36359  10.027  10.241   9.334
11507SOL    HW136360  10.071  10.234   9.418
11507SOL    HW236361   9.945  10.193   9.345
11508SOL     OW36362  10.658   8.454   8.372
11508SOL    HW136363  10.635   8.411   8.289
11508SOL    HW236364  10.652   8.548   8.351
11509SOL     OW36365  13.752   6.997   6.434
11509SOL    HW136366  13.662   6.973   6.415
11509SOL    HW236367  13.800   6.976   6.354
11510SOL     OW36368   9.956   9.193  12.293
11510SOL    HW136369   9.928   9.194  12.201
11510SOL    HW236370   9.883   9.232  12.340
11511SOL     OW36371   1.252   7.852   5.512
11511SOL    HW136372   1.188   7.812   5.453
11511SOL    HW236373   1.215   7.840   5.599
11512SOL     OW36374   1.359   7.667  13.572
11512SOL    HW136375   1.328   7.737  13.630
11512SOL    HW236376   1.433   7.628  13.619
11513SOL     OW36377   7.654   5.714  10.873
11513SOL    HW136378   7.666   5.714  10.968
11513SOL    HW236379   7.564   5.745  10.861
11514SOL     OW36380   0.442   9.520  13.507
11514SOL    HW136381   0.527   9.561  13.491
11514SOL    HW236382   0.459   9.455  13.575
11515SOL     OW36383   8.357  10.430   8.910
11515SOL    HW136384   8.394  10.354   8.864
11515SOL    HW236385   8.295  10.467   8.848
11516SOL     OW36386   5.367   7.808   0.095
11516SOL    HW136387   5.275   7.784   0.097
11516SOL    HW236388   5.406   7.761   0.169
11517SOL     OW36389   5.007   8.667  10.260
11517SOL    HW136390   5.038   8.590  10.212
11517SOL    HW236391   5.086   8.706  10.296
11518SOL     OW36392  13.778   6.160   7.179
11518SOL    HW136393  13.789   6.066   7.192
11518SOL    HW236394  13.709   6.185   7.241
11519SOL     OW36395   0.947   4.301   3.884
11519SOL    HW136396   0.923   4.234   3.948
11519SOL    HW236397   1.023   4.344   3.922
11520SOL     OW36398   3.325  10.484   1.284
11520SOL    HW136399   3.335  10.390   1.272
11520SOL    HW236400   3.353  10.500   1.374
11521SOL     OW36401   0.375  14.784   8.243
11521SOL    HW136402   0.393  14.866   8.289
11521SOL    HW236403   0.458  14.762   8.201
11522SOL     OW36404  14.065  12.426   3.016
11522SOL    HW136405  13.995  12.438   3.080
11522SOL    HW236406  14.024  12.442   2.932
11523SOL     OW36407  10.159   8.974   1.993
11523SOL    HW136408  10.161   8.965   1.897
11523SOL    HW236409  10.250   8.973   2.019
11524SOL     OW36410   2.657   9.768  14.597
11524SOL    HW136411   2.644   9.802  14.509
11524SOL    HW236412   2.568   9.755  14.631
11525SOL     OW36413  13.169  14.418   5.362
11525SOL    HW136414  13.163  14.459   5.276
11525SOL    HW236415  13.087  14.369   5.371
11526SOL     OW36416   3.613   6.473   9.372
11526SOL    HW136417   3.528   6.432   9.358
11526SOL    HW236418   3.596   6.544   9.434
11527SOL     OW36419   3.990   6.563   5.265
11527SOL    HW136420   3.914   6.573   5.208
11527SOL    HW236421   3.970   6.488   5.320
11528SOL     OW36422   1.330  12.795   3.922
11528SOL    HW136423   1.366  12.884   3.915
11528SOL    HW236424   1.235  12.808   3.928
11529SOL     OW36425  10.329  10.434   6.931
11529SOL    HW136426  10.268  10.362   6.918
11529SOL    HW236427  10.309  10.497   6.862
11530SOL     OW36428  14.201   5.406  10.871
11530SOL    HW136429  14.257   5.482  10.884
11530SOL    HW236430  14.226   5.345  10.941
11531SOL     OW36431   9.309   1.477  10.990
11531SOL    HW136432   9.364   1.496  10.914
11531SOL    HW236433   9.220   1.479  10.956
11532SOL     OW36434   8.576  12.052  10.610
11532SOL    HW136435   8.508  12.116  10.591
11532SOL    HW236436   8.549  12.012  10.692
11533SOL     OW36437  11.602   5.328   2.511
11533SOL    HW136438  11.631   5.385   2.440
11533SOL    HW236439  11.624   5.377   2.591
11534SOL     OW36440   1.532   2.906   9.479
11534SOL    HW136441   1.595   2.920   9.408
11534SOL    HW236442   1.582   2.859   9.546
11535SOL     OW36443  11.525   3.339  11.068
11535SOL    HW136444  11.560   3.286  10.997
11535SOL    HW236445  11.519   3.427  11.030
11536SOL     OW36446   9.089  11.742   8.127
11536SOL    HW136447   9.060  11.830   8.153
11536SOL    HW236448   9.185  11.746   8.132
11537SOL     OW36449   7.345   4.578  10.372
11537SOL    HW136450   7.437   4.583  10.400
11537SOL    HW236451   7.320   4.669  10.357
11538SOL     OW36452  11.742  10.528   4.666
11538SOL    HW136453  11.664  10.474   4.662
11538SOL    HW236454  11.815  10.466   4.665
11539SOL     OW36455  13.290  14.857   7.522
11539SOL    HW136456  13.232   0.024   7.581
11539SOL    HW236457  13.248  14.771   7.514
11540SOL     OW36458   2.630  14.796  12.726
11540SOL    HW136459   2.707  14.759  12.683
11540SOL    HW236460   2.576  14.720  12.747
11541SOL     OW36461   3.681  10.973   3.685
11541SOL    HW136462   3.656  10.919   3.760
11541SOL    HW236463   3.776  10.979   3.689
11542SOL     OW36464   7.831  10.912  11.430
11542SOL    HW136465   7.838  10.840  11.368
11542SOL    HW236466   7.893  10.890  11.500
11543SOL     OW36467   1.804  11.165  10.438
11543SOL    HW136468   1.773  11.128  10.355
11543SOL    HW236469   1.725  11.199  10.480
11544SOL     OW36470   4.510  12.708   0.787
11544SOL    HW136471   4.454  12.661   0.724
11544SOL    HW236472   4.492  12.800   0.771
11545SOL     OW36473   4.620   2.017   5.405
11545SOL    HW136474   4.554   2.084   5.420
11545SOL    HW236475   4.576   1.935   5.428
11546SOL     OW36476   5.541   5.635   7.016
11546SOL    HW136477   5.624   5.654   7.060
11546SOL    HW236478   5.556   5.552   6.971
11547SOL     OW36479   5.349  13.325   7.285
11547SOL    HW136480   5.438  13.328   7.248
11547SOL    HW236481   5.335  13.232   7.305
11548SOL     OW36482  12.999   2.584  10.415
11548SOL    HW136483  12.987   2.679  10.427
11548SOL    HW236484  13.088   2.568  10.444
11549SOL     OW36485   0.146  14.136   3.217
11549SOL    HW136486   0.076  14.169   3.162
11549SOL    HW236487   0.225  14.146   3.164
11550SOL     OW36488   0.350   3.404   3.751
11550SOL    HW136489   0.436   3.433   3.780
11550SOL    HW236490   0.299   3.395   3.831
11551SOL     OW36491   6.975   6.621   0.501
11551SOL    HW136492   7.038   6.682   0.539
11551SOL    HW236493   7.017   6.535   0.509
11552SOL     OW36494   7.585   5.852   1.481
11552SOL    HW136495   7.553   5.791   1.415
11552SOL    HW236496   7.571   5.938   1.442
11553SOL     OW36497  11.638   5.790  10.757
11553SOL    HW136498  11.591   5.865  10.795
11553SOL    HW236499  11.605   5.714  10.805
11554SOL     OW36500   6.405   8.914  11.385
11554SOL    HW136501   6.388   8.900  11.478
11554SOL    HW236502   6.498   8.937  11.381
11555SOL     OW36503   9.050  12.846   6.771
11555SOL    HW136504   9.062  12.794   6.692
11555SOL    HW236505   9.135  12.887   6.785
11556SOL     OW36506  14.671   4.366   0.260
11556SOL    HW136507  14.710   4.452   0.278
11556SOL    HW236508  14.746   4.306   0.254
11557SOL     OW36509   0.924  14.730   7.329
11557SOL    HW136510   0.878  14.711   7.411
11557SOL    HW236511   1.016  14.717   7.351
11558SOL     OW36512   5.110  13.394   7.155
11558SOL    HW136513   5.080  13.471   7.203
11558SOL    HW236514   5.195  13.374   7.194
11559SOL     OW36515  14.142   1.641   7.385
11559SOL    HW136516  14.158   1.660   7.292
11559SOL    HW236517  14.083   1.566   7.384
11560SOL     OW36518  13.995   5.101  11.193
11560SOL    HW136519  14.003   5.077  11.101
11560SOL    HW236520  14.026   5.191  11.197
11561SOL     OW36521  12.069  11.577   9.028
11561SOL    HW136522  12.030  11.496   9.061
11561SOL    HW236523  12.000  11.618   8.977
11562SOL     OW36524   8.328   9.585   1.539
11562SOL    HW136525   8.418   9.573   1.507
11562SOL    HW236526   8.336   9.654   1.605
11563SOL     OW36527   7.524   1.419   3.468
11563SOL    HW136528   7.571   1.337   3.483
11563SOL    HW236529   7.500   1.416   3.375
11564SOL     OW36530   9.936  14.777  12.920
11564SOL    HW136531   9.877  14.734  12.982
11564SOL    HW236532  10.024  14.761  12.954
11565SOL     OW36533   0.583  13.308  14.734
11565SOL    HW136534   0.591  13.243  14.664
11565SOL    HW236535   0.600  13.391  14.691
11566SOL     OW36536   3.955   6.807   0.694
11566SOL    HW136537   3.867   6.771   0.702
11566SOL    HW236538   3.962   6.869   0.767
11567SOL     OW36539   1.622  13.741  11.100
11567SOL    HW136540   1.664  13.826  11.108
11567SOL    HW236541   1.658  13.705  11.019
11568SOL     OW36542   2.300   2.238  14.395
11568SOL    HW136543   2.371   2.200  14.448
11568SOL    HW236544   2.224   2.237  14.453
11569SOL     OW36545  11.195  10.600   3.345
11569SOL    HW136546  11.275  10.631   3.303
11569SOL    HW236547  11.130  10.668   3.324
11570SOL     OW36548   2.080   5.434   2.240
11570SOL    HW136549   2.044   5.349   2.264
11570SOL    HW236550   2.036   5.496   2.297
11571SOL     OW36551  13.805   0.363   3.968
11571SOL    HW136552  13.739   0.419   3.927
11571SOL    HW236553  13.810   0.393   4.058
11572SOL     OW36554   5.309   5.374   3.490
11572SOL    HW136555   5.276   5.397   3.403
11572SOL    HW236556   5.318   5.458   3.536
11573SOL     OW36557   7.489   4.615   2.388
11573SOL    HW136558   7.580   4.637   2.368
11573SOL    HW236559   7.477   4.648   2.477
11574SOL     OW36560   2.371  10.751   6.995
11574SOL    HW136561   2.355  10.659   6.971
11574SOL    HW236562   2.403  10.792   6.915
11575SOL     OW36563   3.365   0.051   8.028
11575SOL    HW136564   3.371   0.135   8.072
11575SOL    HW236565   3.273   0.028   8.030
11576SOL     OW36566   6.215   9.028   4.670
11576SOL    HW136567   6.125   9.001   4.649
11576SOL    HW236568   6.250   8.954   4.719
11577SOL     OW36569  10.025  13.799   5.709
11577SOL    HW136570   9.932  13.776   5.714
11577SOL    HW236571  10.032  13.856   5.633
11578SOL     OW36572   8.519   8.433  10.117
11578SOL    HW136573   8.581   8.476  10.058
11578SOL    HW236574   8.435   8.438  10.073
11579SOL     OW36575   2.393  10.754   3.831
11579SOL    HW136576   2.383  10.673   3.880
11579SOL    HW236577   2.487  10.761   3.814
11580SOL     OW36578  11.848   6.070   4.554
11580SOL    HW136579  11.842   6.003   4.486
11580SOL    HW236580  11.930   6.051   4.599
11581SOL     OW36581   7.866  13.462  12.070
11581SOL    HW136582   7.785  13.419  12.099
11581SOL    HW236583   7.934  13.397  12.083
11582SOL     OW36584   2.113  13.758   7.073
11582SOL    HW136585   2.018  13.744   7.066
11582SOL    HW236586   2.135  13.811   6.997
11583SOL     OW36587  14.223   9.750   1.459
11583SOL    HW136588  14.300   9.756   1.402
11583SOL    HW236589  14.156   9.709   1.404
11584SOL     OW36590   3.445   6.056   9.972
11584SOL    HW136591   3.534   6.088   9.990
11584SOL    HW236592   3.388   6.114  10.023
11585SOL     OW36593   8.455   2.350  12.078
11585SOL    HW136594   8.426   2.429  12.125
11585SOL    HW236595   8.551   2.355  12.081
11586SOL     OW36596   0.897   4.018   6.068
11586SOL    HW136597   0.865   4.054   5.985
11586SOL    HW236598   0.970   4.074   6.092
11587SOL     OW36599   8.294  11.989   5.434
11587SOL    HW136600   8.219  11.948   5.475
11587SOL    HW236601   8.271  11.995   5.341
11588SOL     OW36602   0.431   2.874   5.539
11588SOL    HW136603   0.431   2.909   5.628
11588SOL    HW236604   0.514   2.827   5.531
11589SOL     OW36605   4.738  14.155  11.551
11589SOL    HW136606   4.798  14.226  11.575
11589SOL    HW236607   4.652  14.189  11.573
11590SOL     OW36608  10.444   0.706   1.447
11590SOL    HW136609  10.501   0.635   1.478
11590SOL    HW236610  10.391   0.729   1.523
11591SOL     OW36611  10.666   8.052   5.740
11591SOL    HW136612  10.583   8.058   5.693
11591SOL    HW236613  10.655   8.107   5.817
11592SOL     OW36614  11.406  11.965   6.694
11592SOL    HW136615  11.344  12.017   6.644
11592SOL    HW236616  11.407  11.880   6.650
11593SOL     OW36617  12.345   0.522   5.382
11593SOL    HW136618  12.358   0.471   5.302
11593SOL    HW236619  12.326   0.611   5.352
11594SOL     OW36620  12.458   7.244   4.948
11594SOL    HW136621  12.453   7.212   4.858
11594SOL    HW236622  12.372   7.282   4.965
11595SOL     OW36623  12.444   1.699  10.520
11595SOL    HW136624  12.430   1.758  10.446
11595SOL    HW236625  12.394   1.620  10.497
11596SOL     OW36626   3.018   4.657   2.402
11596SOL    HW136627   3.056   4.731   2.449
11596SOL    HW236628   2.948   4.696   2.349
11597SOL     OW36629   7.979   3.038   6.081
11597SOL    HW136630   7.953   2.949   6.058
11597SOL    HW236631   7.908   3.093   6.047
11598SOL     OW36632   2.133  11.170   3.326
11598SOL    HW136633   2.150  11.124   3.409
11598SOL    HW236634   2.072  11.114   3.280
11599SOL     OW36635   7.184   2.815  12.526
11599SOL    HW136636   7.270   2.792  12.560
11599SOL    HW236637   7.124   2.797  12.598
11600SOL     OW36638  11.546  11.194  13.213
11600SOL    HW136639  11.491  11.257  13.167
11600SOL    HW236640  11.492  11.166  13.288
11601SOL     OW36641   8.926   9.127   1.634
11601SOL    HW136642   9.007   9.176   1.624
11601SOL    HW236643   8.888   9.159   1.716
11602SOL     OW36644   2.937   1.305  10.291
11602SOL    HW136645   2.932   1.235  10.355
11602SOL    HW236646   2.947   1.385  10.343
11603SOL     OW36647   5.040  12.178  10.104
11603SOL    HW136648   5.046  12.250  10.167
11603SOL    HW236649   4.970  12.203  10.045
11604SOL     OW36650   0.570  13.002  14.318
11604SOL    HW136651   0.626  13.021  14.243
11604SOL    HW236652   0.482  13.027  14.290
11605SOL     OW36653  12.657   2.756  14.443
11605SOL    HW136654  12.585   2.704  14.406
11605SOL    HW236655  12.711   2.692  14.489
11606SOL     OW36656   5.227   7.255   9.179
11606SOL    HW136657   5.298   7.317   9.198
11606SOL    HW236658   5.245   7.180   9.236
11607SOL     OW36659   5.246  12.153  13.143
11607SOL    HW136660   5.259  12.248  13.138
11607SOL    HW236661   5.194  12.141  13.223
11608SOL     OW36662   4.114   8.213   2.244
11608SOL    HW136663   4.065   8.194   2.163
11608SOL    HW236664   4.179   8.278   2.218
11609SOL     OW36665   6.134   2.380   8.477
11609SOL    HW136666   6.082   2.413   8.551
11609SOL    HW236667   6.139   2.454   8.416
11610SOL     OW36668   0.655   6.656  13.620
11610SOL    HW136669   0.583   6.698  13.667
11610SOL    HW236670   0.734   6.696  13.656
11611SOL     OW36671   2.039   7.549  12.996
11611SOL    HW136672   2.131   7.578  12.998
11611SOL    HW236673   1.994   7.610  13.055
11612SOL     OW36674   8.948   2.203   6.701
11612SOL    HW136675   8.875   2.256   6.732
11612SOL    HW236676   8.943   2.208   6.605
11613SOL     OW36677   6.613   6.845   6.009
11613SOL    HW136678   6.601   6.780   6.079
11613SOL    HW236679   6.595   6.797   5.928
11614SOL     OW36680  10.650   6.645  10.872
11614SOL    HW136681  10.731   6.615  10.830
11614SOL    HW236682  10.665   6.631  10.966
11615SOL     OW36683  13.194  12.251   6.217
11615SOL    HW136684  13.152  12.304   6.285
11615SOL    HW236685  13.287  12.255   6.238
11616SOL     OW36686   0.678   1.342   8.504
11616SOL    HW136687   0.677   1.247   8.496
11616SOL    HW236688   0.737   1.360   8.577
11617SOL     OW36689   5.760   1.426   1.759
11617SOL    HW136690   5.848   1.460   1.744
11617SOL    HW236691   5.748   1.358   1.693
11618SOL     OW36692   6.385  12.287  11.214
11618SOL    HW136693   6.479  12.299  11.223
11618SOL    HW236694   6.361  12.232  11.288
11619SOL     OW36695  10.812   9.069  10.068
11619SOL    HW136696  10.847   9.131  10.004
11619SOL    HW236697  10.884   9.008  10.083
11620SOL     OW36698   5.019  13.602   9.558
11620SOL    HW136699   4.927  13.590   9.535
11620SOL    HW236700   5.049  13.514   9.582
11621SOL     OW36701   9.919  12.783   4.829
11621SOL    HW136702   9.939  12.844   4.757
11621SOL    HW236703   9.847  12.730   4.797
11622SOL     OW36704  10.858  14.406   6.305
11622SOL    HW136705  10.809  14.368   6.232
11622SOL    HW236706  10.940  14.357   6.307
11623SOL     OW36707   2.729   1.514   8.887
11623SOL    HW136708   2.654   1.468   8.850
11623SOL    HW236709   2.751   1.465   8.966
11624SOL     OW36710  14.672   2.799   6.408
11624SOL    HW136711  14.652   2.839   6.324
11624SOL    HW236712  14.651   2.866   6.473
11625SOL     OW36713   6.626   2.887   7.500
11625SOL    HW136714   6.674   2.806   7.519
11625SOL    HW236715   6.693   2.947   7.469
11626SOL     OW36716   5.643   0.384   6.226
11626SOL    HW136717   5.590   0.375   6.147
11626SOL    HW236718   5.731   0.403   6.195
11627SOL     OW36719   5.638  13.178   8.865
11627SOL    HW136720   5.698  13.242   8.826
11627SOL    HW236721   5.662  13.177   8.958
11628SOL     OW36722  12.933  12.094   7.562
11628SOL    HW136723  13.023  12.083   7.533
11628SOL    HW236724  12.899  12.165   7.508
11629SOL     OW36725  14.213   3.194  14.259
11629SOL    HW136726  14.207   3.285  14.229
11629SOL    HW236727  14.170   3.143  14.190
11630SOL     OW36728   5.252   6.044   9.616
11630SOL    HW136729   5.229   6.092   9.536
11630SOL    HW236730   5.313   6.101   9.662
11631SOL     OW36731  10.704   6.431  11.979
11631SOL    HW136732  10.735   6.419  11.889
11631SOL    HW236733  10.699   6.525  11.990
11632SOL     OW36734   2.615   4.491   8.789
11632SOL    HW136735   2.592   4.553   8.857
11632SOL    HW236736   2.689   4.442   8.824
11633SOL     OW36737   4.816   6.883   0.995
11633SOL    HW136738   4.808   6.813   1.061
11633SOL    HW236739   4.910   6.890   0.980
11634SOL     OW36740   3.086   5.504  11.349
11634SOL    HW136741   3.105   5.597  11.362
11634SOL    HW236742   3.172   5.463  11.343
11635SOL     OW36743  14.383   7.630  11.996
11635SOL    HW136744  14.468   7.603  11.963
11635SOL    HW236745  14.320   7.584  11.940
11636SOL     OW36746   8.328  10.050   9.777
11636SOL    HW136747   8.390  10.122   9.766
11636SOL    HW236748   8.383   9.974   9.799
11637SOL     OW36749   8.432  14.193   2.271
11637SOL    HW136750   8.432  14.257   2.200
11637SOL    HW236751   8.400  14.112   2.230
11638SOL     OW36752   6.679   1.109   7.665
11638SOL    HW136753   6.666   1.016   7.651
11638SOL    HW236754   6.761   1.129   7.620
11639SOL     OW36755   1.999  12.167   4.702
11639SOL    HW136756   2.012  12.173   4.797
11639SOL    HW236757   2.083  12.136   4.669
11640SOL     OW36758   8.496  14.729   6.217
11640SOL    HW136759   8.517  14.647   6.172
11640SOL    HW236760   8.453  14.702   6.298
11641SOL     OW36761  12.865   4.104   3.044
11641SOL    HW136762  12.773   4.095   3.067
11641SOL    HW236763  12.912   4.093   3.126
11642SOL     OW36764  14.319   5.318   6.546
11642SOL    HW136765  14.308   5.224   6.557
11642SOL    HW236766  14.374   5.327   6.467
11643SOL     OW36767  10.980   9.717  12.328
11643SOL    HW136768  10.974   9.804  12.367
11643SOL    HW236769  10.919   9.663  12.379
11644SOL     OW36770   6.879   1.605  11.116
11644SOL    HW136771   6.845   1.693  11.097
11644SOL    HW236772   6.820   1.571  11.183
11645SOL     OW36773  11.471   9.237  13.353
11645SOL    HW136774  11.442   9.176  13.285
11645SOL    HW236775  11.468   9.186  13.434
11646SOL     OW36776  10.318   2.520  14.507
11646SOL    HW136777  10.395   2.466  14.521
11646SOL    HW236778  10.245   2.458  14.508
11647SOL     OW36779   1.523   6.305   6.711
11647SOL    HW136780   1.479   6.231   6.669
11647SOL    HW236781   1.524   6.374   6.645
11648SOL     OW36782   6.960  10.272   4.563
11648SOL    HW136783   6.890  10.275   4.629
11648SOL    HW236784   6.917  10.237   4.485
11649SOL     OW36785   1.467   1.387   0.212
11649SOL    HW136786   1.552   1.372   0.173
11649SOL    HW236787   1.406   1.387   0.138
11650SOL     OW36788   9.932   8.535   0.233
11650SOL    HW136789   9.843   8.522   0.265
11650SOL    HW236790   9.956   8.451   0.194
11651SOL     OW36791  12.429  13.625   6.074
11651SOL    HW136792  12.416  13.595   6.164
11651SOL    HW236793  12.353  13.680   6.055
11652SOL     OW36794   4.157   7.348  13.950
11652SOL    HW136795   4.082   7.350  13.891
11652SOL    HW236796   4.181   7.256  13.956
11653SOL     OW36797   5.147   2.351   7.084
11653SOL    HW136798   5.054   2.349   7.063
11653SOL    HW236799   5.174   2.259   7.084
11654SOL     OW36800   8.811  14.085  14.115
11654SOL    HW136801   8.737  14.145  14.119
11654SOL    HW236802   8.852  14.102  14.030
11655SOL     OW36803   9.806  14.309   6.482
11655SOL    HW136804   9.901  14.307   6.473
11655SOL    HW236805   9.786  14.241   6.546
11656SOL     OW36806   8.372   8.740   8.127
11656SOL    HW136807   8.407   8.653   8.112
11656SOL    HW236808   8.286   8.740   8.085
11657SOL     OW36809   9.740   2.161   7.381
11657SOL    HW136810   9.819   2.199   7.421
11657SOL    HW236811   9.716   2.223   7.313
11658SOL     OW36812   6.908  10.292   0.631
11658SOL    HW136813   6.954  10.209   0.646
11658SOL    HW236814   6.817  10.274   0.654
11659SOL     OW36815   1.288   8.682  11.283
11659SOL    HW136816   1.287   8.750  11.350
11659SOL    HW236817   1.199   8.647  11.283
11660SOL     OW36818  14.704  14.804   0.413
11660SOL    HW136819  14.639  14.873   0.403
11660SOL    HW236820  14.746  14.798   0.327
11661SOL     OW36821  10.926   9.855   5.443
11661SOL    HW136822  10.978   9.808   5.379
11661SOL    HW236823  10.878   9.921   5.392
11662SOL     OW36824  14.543   9.658   7.115
11662SOL    HW136825  14.494   9.670   7.033
11662SOL    HW236826  14.635   9.672   7.090
11663SOL     OW36827   8.917  14.635  13.814
11663SOL    HW136828   8.995  14.591  13.847
11663SOL    HW236829   8.929  14.638  13.719
11664SOL     OW36830   9.641   7.686   9.215
11664SOL    HW136831   9.701   7.749   9.174
11664SOL    HW236832   9.554   7.719   9.196
11665SOL     OW36833   2.843   1.989   4.706
11665SOL    HW136834   2.753   1.977   4.736
11665SOL    HW236835   2.845   2.077   4.669
11666SOL     OW36836   2.665  13.716  12.735
11666SOL    HW136837   2.656  13.688  12.826
11666SOL    HW236838   2.729  13.655  12.697
11667SOL     OW36839   9.186   7.247  12.140
11667SOL    HW136840   9.223   7.167  12.102
11667SOL    HW236841   9.096   7.223  12.164
11668SOL     OW36842   4.864  14.792  11.752
11668SOL    HW136843   4.929  14.790  11.821
11668SOL    HW236844   4.829  14.703  11.749
11669SOL     OW36845   0.293   5.277   1.122
11669SOL    HW136846   0.354   5.338   1.080
11669SOL    HW236847   0.268   5.217   1.052
11670SOL     OW36848   8.028  13.180   7.661
11670SOL    HW136849   8.005  13.094   7.625
11670SOL    HW236850   7.995  13.242   7.596
11671SOL     OW36851   3.217  13.806  10.759
11671SOL    HW136852   3.276  13.771  10.692
11671SOL    HW236853   3.276  13.836  10.829
11672SOL     OW36854   4.766  12.504   3.275
11672SOL    HW136855   4.716  12.583   3.254
11672SOL    HW236856   4.755  12.448   3.198
11673SOL     OW36857   1.890   3.856   0.121
11673SOL    HW136858   1.813   3.842   0.066
11673SOL    HW236859   1.877   3.944   0.157
11674SOL     OW36860   6.995   5.641  14.802
11674SOL    HW136861   6.999   5.737  14.805
11674SOL    HW236862   6.963   5.621  14.715
11675SOL     OW36863  11.034  13.282   4.631
11675SOL    HW136864  11.115  13.233   4.647
11675SOL    HW236865  11.042  13.312   4.540
11676SOL     OW36866  12.230   9.383  13.251
11676SOL    HW136867  12.202   9.472  13.273
11676SOL    HW236868  12.164   9.327  13.290
11677SOL     OW36869  14.315   3.072   3.675
11677SOL    HW136870  14.329   3.051   3.583
11677SOL    HW236871  14.259   3.150   3.674
11678SOL     OW36872  14.545  11.803   0.068
11678SOL    HW136873  14.555  11.708   0.073
11678SOL    HW236874  14.595  11.836   0.142
11679SOL     OW36875  10.744  13.650   8.231
11679SOL    HW136876  10.787  13.659   8.316
11679SOL    HW236877  10.697  13.567   8.236
11680SOL     OW36878   6.885   7.208  14.420
11680SOL    HW136879   6.798   7.205  14.460
11680SOL    HW236880   6.929   7.280  14.465
11681SOL     OW36881  14.499   4.682   3.363
11681SOL    HW136882  14.538   4.697   3.449
11681SOL    HW236883  14.508   4.766   3.318
11682SOL     OW36884   5.623  11.750  10.027
11682SOL    HW136885   5.562  11.766   9.954
11682SOL    HW236886   5.596  11.664  10.061
11683SOL     OW36887   2.579   0.174   5.584
11683SOL    HW136888   2.651   0.231   5.559
11683SOL    HW236889   2.605   0.087   5.552
11684SOL     OW36890   6.484   8.498   9.617
11684SOL    HW136891   6.507   8.440   9.690
11684SOL    HW236892   6.401   8.463   9.584
11685SOL     OW36893  13.512   6.427   7.207
11685SOL    HW136894  13.483   6.501   7.260
11685SOL    HW236895  13.569   6.377   7.265
11686SOL     OW36896  10.068  12.818   2.520
11686SOL    HW136897   9.984  12.779   2.495
11686SOL    HW236898  10.126  12.800   2.446
11687SOL     OW36899  10.741   7.083   1.814
11687SOL    HW136900  10.792   7.162   1.794
11687SOL    HW236901  10.806   7.019   1.843
11688SOL     OW36902   0.392  12.712  13.360
11688SOL    HW136903   0.346  12.724  13.443
11688SOL    HW236904   0.361  12.783  13.304
11689SOL     OW36905   5.380  14.732   5.835
11689SOL    HW136906   5.433  14.809   5.815
11689SOL    HW236907   5.308  14.735   5.772
11690SOL     OW36908   1.025  12.811  14.411
11690SOL    HW136909   1.012  12.750  14.339
11690SOL    HW236910   0.993  12.764  14.488
11691SOL     OW36911   1.432   4.517  10.920
11691SOL    HW136912   1.482   4.459  10.862
11691SOL    HW236913   1.469   4.604  10.905
11692SOL     OW36914  10.032   1.032  11.082
11692SOL    HW136915  10.036   0.938  11.065
11692SOL    HW236916   9.957   1.063  11.031
11693SOL     OW36917  11.778   6.271   3.005
11693SOL    HW136918  11.692   6.276   3.046
11693SOL    HW236919  11.839   6.257   3.078
11694SOL     OW36920   6.959   8.173  12.490
11694SOL    HW136921   6.880   8.183  12.543
11694SOL    HW236922   6.970   8.079  12.481
11695SOL     OW36923   9.639  10.999   5.985
11695SOL    HW136924   9.571  10.933   5.970
11695SOL    HW236925   9.626  11.063   5.916
11696SOL     OW36926   4.206  10.989  13.868
11696SOL    HW136927   4.111  10.996  13.853
11696SOL    HW236928   4.245  11.007  13.783
11697SOL     OW36929   8.707  10.664   4.137
11697SOL    HW136930   8.721  10.752   4.172
11697SOL    HW236931   8.672  10.614   4.211
11698SOL     OW36932   8.513  13.644   8.620
11698SOL    HW136933   8.505  13.677   8.709
11698SOL    HW236934   8.423  13.640   8.587
11699SOL     OW36935   8.475  12.411   0.702
11699SOL    HW136936   8.496  12.391   0.611
11699SOL    HW236937   8.555  12.450   0.738
11700SOL     OW36938  10.410   8.385   1.158
11700SOL    HW136939  10.323   8.377   1.120
11700SOL    HW236940  10.429   8.297   1.191
11701SOL     OW36941   3.561   9.137  12.773
11701SOL    HW136942   3.474   9.157  12.807
11701SOL    HW236943   3.585   9.055  12.816
11702SOL     OW36944   2.928  11.343  12.398
11702SOL    HW136945   3.016  11.333  12.361
11702SOL    HW236946   2.928  11.288  12.476
11703SOL     OW36947   9.575   1.728  12.427
11703SOL    HW136948   9.577   1.820  12.400
11703SOL    HW236949   9.485   1.714  12.455
11704SOL     OW36950  10.938  14.189  13.547
11704SOL    HW136951  11.012  14.149  13.591
11704SOL    HW236952  10.906  14.122  13.487
11705SOL     OW36953   3.198   2.911   0.215
11705SOL    HW136954   3.112   2.870   0.224
11705SOL    HW236955   3.191   2.993   0.263
11706SOL     OW36956  10.426   8.284  14.872
11706SOL    HW136957  10.507   8.316   0.030
11706SOL    HW236958  10.370   8.262   0.065
11707SOL     OW36959   4.651   9.039  13.024
11707SOL    HW136960   4.591   9.109  13.051
11707SOL    HW236961   4.738   9.072  13.046
11708SOL     OW36962   1.568   2.243   3.038
11708SOL    HW136963   1.608   2.312   2.984
11708SOL    HW236964   1.523   2.291   3.108
11709SOL     OW36965  12.218  13.036   6.304
11709SOL    HW136966  12.156  13.058   6.373
11709SOL    HW236967  12.281  13.108   6.305
11710SOL     OW36968   2.957  12.898  14.651
11710SOL    HW136969   2.912  12.932  14.729
11710SOL    HW236970   2.933  12.806  14.648
11711SOL     OW36971   6.850   9.000   2.084
11711SOL    HW136972   6.786   9.046   2.138
11711SOL    HW236973   6.904   8.952   2.146
11712SOL     OW36974  13.542  11.022  12.866
11712SOL    HW136975  13.481  10.958  12.905
11712SOL    HW236976  13.486  11.094  12.838
11713SOL     OW36977   5.122   3.508   1.866
11713SOL    HW136978   5.068   3.429   1.866
11713SOL    HW236979   5.209   3.478   1.890
11714SOL     OW36980  10.088   2.376  12.829
11714SOL    HW136981  10.108   2.300  12.773
11714SOL    HW236982  10.152   2.442  12.803
11715SOL     OW36983   4.749   5.604   0.356
11715SOL    HW136984   4.737   5.690   0.397
11715SOL    HW236985   4.816   5.561   0.410
11716SOL     OW36986   1.984   5.589   0.691
11716SOL    HW136987   1.916   5.592   0.758
11716SOL    HW236988   1.970   5.667   0.638
11717SOL     OW36989  14.268   1.597  12.601
11717SOL    HW136990  14.190   1.635  12.642
11717SOL    HW236991  14.244   1.587  12.509
11718SOL     OW36992   5.075   6.814  10.948
11718SOL    HW136993   5.024   6.734  10.957
11718SOL    HW236994   5.013   6.884  10.966
11719SOL     OW36995   5.764  11.060  13.655
11719SOL    HW136996   5.779  11.114  13.578
11719SOL    HW236997   5.784  11.117  13.729
11720SOL     OW36998   5.384   9.186   0.504
11720SOL    HW136999   5.352   9.257   0.560
11720SOL    HW237000   5.328   9.112   0.525
11721SOL     OW37001   9.277  13.475   0.903
11721SOL    HW137002   9.240  13.450   0.819
11721SOL    HW237003   9.369  13.496   0.884
11722SOL     OW37004  13.950   6.990   4.301
11722SOL    HW137005  13.992   6.945   4.227
11722SOL    HW237006  13.939   6.922   4.367
11723SOL     OW37007  10.370   7.975  13.798
11723SOL    HW137008  10.446   7.922  13.821
11723SOL    HW237009  10.379   8.055  13.850
11724SOL     OW37010   4.620   4.954   1.238
11724SOL    HW137011   4.596   5.035   1.284
11724SOL    HW237012   4.540   4.902   1.238
11725SOL     OW37013   2.651  11.052   5.954
11725SOL    HW137014   2.634  10.960   5.936
11725SOL    HW237015   2.724  11.051   6.017
11726SOL     OW37016  12.707   2.984   4.483
11726SOL    HW137017  12.765   2.943   4.419
11726SOL    HW237018  12.657   3.048   4.433
11727SOL     OW37019   5.495  10.105   4.427
11727SOL    HW137020   5.573  10.127   4.375
11727SOL    HW237021   5.528  10.097   4.516
11728SOL     OW37022  11.528   7.082   3.515
11728SOL    HW137023  11.452   7.039   3.476
11728SOL    HW237024  11.556   7.147   3.450
11729SOL     OW37025   1.454   8.137   4.441
11729SOL    HW137026   1.422   8.080   4.511
11729SOL    HW237027   1.494   8.077   4.378
11730SOL     OW37028  12.334   2.644   3.034
11730SOL    HW137029  12.317   2.609   3.121
11730SOL    HW237030  12.313   2.738   3.041
11731SOL     OW37031   6.897   5.641   3.451
11731SOL    HW137032   6.953   5.708   3.490
11731SOL    HW237033   6.889   5.666   3.359
11732SOL     OW37034  13.812   9.724   7.348
11732SOL    HW137035  13.738   9.688   7.396
11732SOL    HW237036  13.874   9.651   7.339
11733SOL     OW37037   3.990   0.445   6.598
11733SOL    HW137038   4.052   0.516   6.614
11733SOL    HW237039   3.984   0.399   6.682
11734SOL     OW37040   1.614   2.304   3.788
11734SOL    HW137041   1.568   2.251   3.853
11734SOL    HW237042   1.581   2.273   3.704
11735SOL     OW37043   6.077   2.218   0.655
11735SOL    HW137044   6.156   2.240   0.705
11735SOL    HW237045   6.080   2.277   0.579
11736SOL     OW37046   3.447  12.460   3.114
11736SOL    HW137047   3.419  12.475   3.205
11736SOL    HW237048   3.411  12.534   3.066
11737SOL     OW37049   0.997   3.101   4.894
11737SOL    HW137050   1.062   3.154   4.940
11737SOL    HW237051   1.010   3.013   4.928
11738SOL     OW37052   2.114   3.162  12.185
11738SOL    HW137053   2.052   3.208  12.241
11738SOL    HW237054   2.069   3.083  12.157
11739SOL     OW37055  11.554  11.313  13.675
11739SOL    HW137056  11.495  11.302  13.750
11739SOL    HW237057  11.639  11.281  13.707
11740SOL     OW37058  12.792   5.507   5.522
11740SOL    HW137059  12.807   5.467   5.436
11740SOL    HW237060  12.708   5.470   5.551
11741SOL     OW37061   5.578   4.330   7.474
11741SOL    HW137062   5.567   4.373   7.388
11741SOL    HW237063   5.498   4.281   7.486
11742SOL     OW37064   5.818   4.791   8.266
11742SOL    HW137065   5.909   4.788   8.236
11742SOL    HW237066   5.825   4.794   8.362
11743SOL     OW37067  14.376  10.506  13.600
11743SOL    HW137068  14.438  10.439  13.629
11743SOL    HW237069  14.427  10.587  13.601
11744SOL     OW37070   5.612  13.944   5.807
11744SOL    HW137071   5.646  13.961   5.895
11744SOL    HW237072   5.654  14.010   5.752
11745SOL     OW37073   5.195  13.057   5.664
11745SOL    HW137074   5.196  13.049   5.759
11745SOL    HW237075   5.248  12.983   5.633
11746SOL     OW37076   2.012   3.984   9.966
11746SOL    HW137077   2.039   3.916   9.905
11746SOL    HW237078   1.929   3.953  10.002
11747SOL     OW37079   7.438  14.372  14.061
11747SOL    HW137080   7.496  14.428  14.009
11747SOL    HW237081   7.353  14.416  14.059
11748SOL     OW37082  12.207   6.165   7.039
11748SOL    HW137083  12.291   6.176   7.084
11748SOL    HW237084  12.187   6.072   7.048
11749SOL     OW37085   6.115   2.584  13.107
11749SOL    HW137086   6.086   2.506  13.156
11749SOL    HW237087   6.210   2.585  13.117
11750SOL     OW37088  12.114   4.694   8.522
11750SOL    HW137089  12.028   4.663   8.496
11750SOL    HW237090  12.101   4.787   8.541
11751SOL     OW37091   0.505   3.681  12.181
11751SOL    HW137092   0.422   3.696  12.136
11751SOL    HW237093   0.525   3.764  12.224
11752SOL     OW37094   8.519   4.728   3.713
11752SOL    HW137095   8.554   4.707   3.799
11752SOL    HW237096   8.465   4.806   3.727
11753SOL     OW37097   6.481  14.695   3.171
11753SOL    HW137098   6.423  14.744   3.230
11753SOL    HW237099   6.485  14.608   3.210
11754SOL     OW37100  13.111   4.437   0.283
11754SOL    HW137101  13.092   4.529   0.300
11754SOL    HW237102  13.198   4.423   0.322
11755SOL     OW37103   4.029  10.161   0.688
11755SOL    HW137104   4.008  10.255   0.689
11755SOL    HW237105   4.111  10.156   0.640
11756SOL     OW37106  12.987   3.326   0.718
11756SOL    HW137107  12.956   3.319   0.628
11756SOL    HW237108  12.908   3.330   0.770
11757SOL     OW37109   3.207   6.589   4.499
11757SOL    HW137110   3.141   6.533   4.460
11757SOL    HW237111   3.158   6.653   4.550
11758SOL     OW37112   6.914   3.687  12.222
11758SOL    HW137113   6.990   3.744  12.236
11758SOL    HW237114   6.941   3.630  12.150
11759SOL     OW37115   6.040  10.039  10.515
11759SOL    HW137116   5.950  10.010  10.528
11759SOL    HW237117   6.036  10.134  10.531
11760SOL     OW37118  12.365   6.382   8.920
11760SOL    HW137119  12.311   6.319   8.968
11760SOL    HW237120  12.392   6.446   8.985
11761SOL     OW37121  12.860  12.800  12.728
11761SOL    HW137122  12.824  12.828  12.644
11761SOL    HW237123  12.831  12.709  12.738
11762SOL     OW37124   7.711  14.042   9.303
11762SOL    HW137125   7.621  14.074   9.314
11762SOL    HW237126   7.755  14.067   9.383
11763SOL     OW37127  12.817   1.751   2.999
11763SOL    HW137128  12.777   1.790   3.077
11763SOL    HW237129  12.908   1.781   3.002
11764SOL     OW37130  12.428   9.094   9.602
11764SOL    HW137131  12.374   9.034   9.551
11764SOL    HW237132  12.431   9.055   9.690
11765SOL     OW37133  12.544   0.153   1.226
11765SOL    HW137134  12.460   0.144   1.181
11765SOL    HW237135  12.607   0.110   1.169
11766SOL     OW37136   5.724   4.110   0.125
11766SOL    HW137137   5.668   4.052   0.073
11766SOL    HW237138   5.813   4.078   0.109
11767SOL     OW37139   0.295  11.559  11.508
11767SOL    HW137140   0.355  11.491  11.478
11767SOL    HW237141   0.347  11.640  11.504
11768SOL     OW37142   9.175   1.162   0.387
11768SOL    HW137143   9.112   1.098   0.419
11768SOL    HW237144   9.186   1.140   0.295
11769SOL     OW37145   9.750  12.873   8.114
11769SOL    HW137146   9.761  12.942   8.180
11769SOL    HW237147   9.689  12.909   8.051
11770SOL     OW37148  11.092   5.864  12.903
11770SOL    HW137149  11.122   5.954  12.889
11770SOL    HW237150  11.049   5.840  12.822
11771SOL     OW37151   7.267   1.503   5.863
11771SOL    HW137152   7.331   1.436   5.884
11771SOL    HW237153   7.220   1.519   5.945
11772SOL     OW37154   7.465  14.030   6.536
11772SOL    HW137155   7.556  14.060   6.536
11772SOL    HW237156   7.471  13.935   6.542
11773SOL     OW37157   4.619   8.115   2.891
11773SOL    HW137158   4.655   8.112   2.802
11773SOL    HW237159   4.686   8.160   2.943
11774SOL     OW37160   5.487  14.747  10.561
11774SOL    HW137161   5.566  14.718  10.607
11774SOL    HW237162   5.486  14.842  10.574
11775SOL     OW37163   5.637   7.840   3.605
11775SOL    HW137164   5.698   7.857   3.676
11775SOL    HW237165   5.594   7.758   3.629
11776SOL     OW37166  13.580   0.912   1.269
11776SOL    HW137167  13.585   0.890   1.363
11776SOL    HW237168  13.649   0.976   1.255
11777SOL     OW37169  11.210  10.810   9.339
11777SOL    HW137170  11.136  10.807   9.401
11777SOL    HW237171  11.168  10.824   9.254
11778SOL     OW37172   7.180  11.277   8.881
11778SOL    HW137173   7.157  11.195   8.924
11778SOL    HW237174   7.101  11.331   8.888
11779SOL     OW37175  13.341   3.742   8.128
11779SOL    HW137176  13.341   3.770   8.036
11779SOL    HW237177  13.275   3.673   8.133
11780SOL     OW37178  12.144   9.291   2.427
11780SOL    HW137179  12.220   9.331   2.468
11780SOL    HW237180  12.117   9.353   2.359
11781SOL     OW37181  11.224   7.648  10.377
11781SOL    HW137182  11.245   7.681  10.465
11781SOL    HW237183  11.185   7.562  10.393
11782SOL     OW37184   8.814   9.006   4.011
11782SOL    HW137185   8.863   9.039   4.086
11782SOL    HW237186   8.839   9.063   3.938
11783SOL     OW37187  11.100   3.366   7.854
11783SOL    HW137188  11.080   3.272   7.849
11783SOL    HW237189  11.052   3.396   7.931
11784SOL     OW37190   0.032   3.176  14.206
11784SOL    HW137191   0.085   3.143  14.279
11784SOL    HW237192   0.036   3.272  14.215
11785SOL     OW37193   3.939   7.848   9.034
11785SOL    HW137194   3.979   7.935   9.040
11785SOL    HW237195   3.982   7.798   9.103
11786SOL     OW37196   6.811   9.617  11.044
11786SOL    HW137197   6.734   9.562  11.029
11786SOL    HW237198   6.775   9.699  11.079
11787SOL     OW37199  13.053  13.278   4.714
11787SOL    HW137200  13.019  13.276   4.804
11787SOL    HW237201  13.089  13.190   4.700
11788SOL     OW37202  10.672  14.136   7.435
11788SOL    HW137203  10.741  14.162   7.495
11788SOL    HW237204  10.710  14.147   7.348
11789SOL     OW37205   6.922   8.230   2.880
11789SOL    HW137206   6.856   8.299   2.867
11789SOL    HW237207   6.871   8.149   2.885
11790SOL     OW37208   5.377   1.247   1.244
11790SOL    HW137209   5.366   1.342   1.238
11790SOL    HW237210   5.337   1.213   1.164
11791SOL     OW37211  12.295   5.331   0.235
11791SOL    HW137212  12.283   5.236   0.239
11791SOL    HW237213  12.345   5.353   0.313
11792SOL     OW37214  14.722   6.664   2.440
11792SOL    HW137215  14.700   6.704   2.356
11792SOL    HW237216  14.638   6.660   2.487
11793SOL     OW37217   8.310  10.193  11.227
11793SOL    HW137218   8.357  10.147  11.297
11793SOL    HW237219   8.378  10.238  11.178
11794SOL     OW37220  10.756   4.654   8.562
11794SOL    HW137221  10.705   4.597   8.620
11794SOL    HW237222  10.730   4.742   8.587
11795SOL     OW37223   2.577  14.556  10.034
11795SOL    HW137224   2.670  14.533  10.029
11795SOL    HW237225   2.541  14.492  10.096
11796SOL     OW37226  13.207  10.543  11.221
11796SOL    HW137227  13.221  10.451  11.240
11796SOL    HW237228  13.113  10.551  11.208
11797SOL     OW37229   8.229   8.485   2.693
11797SOL    HW137230   8.191   8.557   2.743
11797SOL    HW237231   8.174   8.409   2.715
11798SOL     OW37232   9.398   5.327   2.674
11798SOL    HW137233   9.407   5.419   2.650
11798SOL    HW237234   9.488   5.293   2.674
11799SOL     OW37235   9.923  13.077  13.352
11799SOL    HW137236   9.850  13.018  13.335
11799SOL    HW237237   9.892  13.163  13.324
11800SOL     OW37238   9.546   7.140  10.422
11800SOL    HW137239   9.598   7.152  10.502
11800SOL    HW237240   9.515   7.049  10.427
11801SOL     OW37241  10.982   6.535  14.005
11801SOL    HW137242  10.964   6.494  13.920
11801SOL    HW237243  10.949   6.472  14.069
11802SOL     OW37244   3.775   7.752  13.113
11802SOL    HW137245   3.829   7.810  13.167
11802SOL    HW237246   3.809   7.763  13.024
11803SOL     OW37247   0.883   6.702  11.851
11803SOL    HW137248   0.801   6.653  11.857
11803SOL    HW237249   0.929   6.683  11.933
11804SOL     OW37250   3.906  13.114   2.406
11804SOL    HW137251   3.884  13.043   2.345
11804SOL    HW237252   3.996  13.097   2.431
11805SOL     OW37253   6.107   5.589  10.109
11805SOL    HW137254   6.113   5.503  10.066
11805SOL    HW237255   6.029   5.582  10.164
11806SOL     OW37256  13.982  13.499   3.557
11806SOL    HW137257  14.008  13.497   3.464
11806SOL    HW237258  13.962  13.591   3.574
11807SOL     OW37259   7.874  11.090  14.775
11807SOL    HW137260   7.964  11.059  14.790
11807SOL    HW237261   7.885  11.181  14.747
11808SOL     OW37262   7.124   3.805  13.935
11808SOL    HW137263   7.107   3.774  14.024
11808SOL    HW237264   7.197   3.867  13.944
11809SOL     OW37265  11.861   1.977   8.370
11809SOL    HW137266  11.954   1.999   8.370
11809SOL    HW237267  11.822   2.039   8.431
11810SOL     OW37268  12.626   1.000   7.591
11810SOL    HW137269  12.536   1.032   7.593
11810SOL    HW237270  12.639   0.969   7.502
11811SOL     OW37271  14.164   2.604   0.031
11811SOL    HW137272  14.226   2.548   0.077
11811SOL    HW237273  14.179   2.585  14.820
11812SOL     OW37274   4.790   6.181   6.815
11812SOL    HW137275   4.820   6.134   6.737
11812SOL    HW237276   4.750   6.114   6.870
11813SOL     OW37277   9.894   9.656   3.120
11813SOL    HW137278   9.827   9.664   3.188
11813SOL    HW237279   9.966   9.609   3.163
11814SOL     OW37280  14.061   2.269   2.321
11814SOL    HW137281  13.996   2.339   2.317
11814SOL    HW237282  14.028   2.201   2.262
11815SOL     OW37283   6.529   0.249  13.222
11815SOL    HW137284   6.490   0.187  13.283
11815SOL    HW237285   6.511   0.211  13.135
11816SOL     OW37286   4.210  14.792   0.385
11816SOL    HW137287   4.158  14.741   0.446
11816SOL    HW237288   4.171  14.880   0.388
11817SOL     OW37289   7.043   0.086   3.127
11817SOL    HW137290   6.964   0.086   3.072
11817SOL    HW237291   7.115   0.090   3.064
11818SOL     OW37292   5.078   0.910  11.978
11818SOL    HW137293   5.038   0.892  11.893
11818SOL    HW237294   5.093   0.824  12.017
11819SOL     OW37295   4.806   9.449   1.678
11819SOL    HW137296   4.793   9.481   1.767
11819SOL    HW237297   4.724   9.469   1.633
11820SOL     OW37298  14.709  14.500   4.383
11820SOL    HW137299  14.655  14.479   4.459
11820SOL    HW237300  14.750  14.417   4.359
11821SOL     OW37301  12.621  11.605   5.845
11821SOL    HW137302  12.608  11.547   5.921
11821SOL    HW237303  12.705  11.647   5.861
11822SOL     OW37304   0.761  13.307  10.664
11822SOL    HW137305   0.692  13.368  10.639
11822SOL    HW237306   0.722  13.254  10.733
11823SOL     OW37307  10.048  11.568   2.692
11823SOL    HW137308  10.056  11.568   2.787
11823SOL    HW237309  10.043  11.661   2.668
11824SOL     OW37310   8.420   3.539   4.249
11824SOL    HW137311   8.385   3.496   4.327
11824SOL    HW237312   8.366   3.505   4.177
11825SOL     OW37313   0.316   9.801   5.097
11825SOL    HW137314   0.226   9.815   5.127
11825SOL    HW237315   0.342   9.884   5.058
11826SOL     OW37316   1.999  13.451   3.554
11826SOL    HW137317   2.062  13.483   3.620
11826SOL    HW237318   1.929  13.411   3.606
11827SOL     OW37319   6.537  12.559   1.690
11827SOL    HW137320   6.619  12.556   1.642
11827SOL    HW237321   6.563  12.567   1.782
11828SOL     OW37322  10.115  12.673  10.937
11828SOL    HW137323  10.064  12.691  11.016
11828SOL    HW237324  10.206  12.687  10.963
11829SOL     OW37325  12.813   2.076   1.629
11829SOL    HW137326  12.854   2.031   1.555
11829SOL    HW237327  12.803   2.009   1.696
11830SOL     OW37328   4.960   3.378   7.819
11830SOL    HW137329   5.053   3.365   7.803
11830SOL    HW237330   4.916   3.312   7.765
11831SOL     OW37331   3.136  12.799   3.783
11831SOL    HW137332   3.130  12.887   3.820
11831SOL    HW237333   3.045  12.772   3.772
11832SOL     OW37334   9.516  10.268   8.139
11832SOL    HW137335   9.535  10.360   8.157
11832SOL    HW237336   9.511  10.226   8.225
11833SOL     OW37337   5.153   4.064   1.254
11833SOL    HW137338   5.214   4.082   1.326
11833SOL    HW237339   5.115   3.979   1.276
11834SOL     OW37340   7.916   7.731  13.901
11834SOL    HW137341   7.936   7.702  13.812
11834SOL    HW237342   7.820   7.742  13.902
11835SOL     OW37343   5.072  12.208  11.249
11835SOL    HW137344   5.047  12.283  11.195
11835SOL    HW237345   5.014  12.137  11.219
11836SOL     OW37346  12.238   8.780   6.974
11836SOL    HW137347  12.271   8.868   6.994
11836SOL    HW237348  12.317   8.730   6.952
11837SOL     OW37349   2.081   0.028   4.205
11837SOL    HW137350   2.141  14.862   4.149
11837SOL    HW237351   2.129   0.106   4.231
11838SOL     OW37352  10.435  10.313   1.221
11838SOL    HW137353  10.453  10.407   1.217
11838SOL    HW237354  10.511  10.275   1.264
11839SOL     OW37355   2.911   0.450  11.173
11839SOL    HW137356   2.836   0.473  11.118
11839SOL    HW237357   2.988   0.471  11.119
11840SOL     OW37358  10.310  14.021   3.733
11840SOL    HW137359  10.222  13.994   3.707
11840SOL    HW237360  10.307  14.117   3.733
11841SOL     OW37361  11.859   0.610   4.189
11841SOL    HW137362  11.789   0.546   4.199
11841SOL    HW237363  11.831   0.665   4.116
11842SOL     OW37364  14.377  11.711  13.611
11842SOL    HW137365  14.302  11.736  13.665
11842SOL    HW237366  14.447  11.772  13.637
11843SOL     OW37367   4.854   4.373  13.912
11843SOL    HW137368   4.827   4.322  13.835
11843SOL    HW237369   4.950   4.369  13.910
11844SOL     OW37370  13.980  12.779   3.295
11844SOL    HW137371  14.019  12.813   3.376
11844SOL    HW237372  13.946  12.693   3.319
11845SOL     OW37373  10.854  11.177  11.232
11845SOL    HW137374  10.844  11.267  11.263
11845SOL    HW237375  10.764  11.144  11.224
11846SOL     OW37376   6.680   4.047   8.438
11846SOL    HW137377   6.730   4.005   8.508
11846SOL    HW237378   6.637   3.976   8.392
11847SOL     OW37379  14.598   3.277  12.727
11847SOL    HW137380  14.644   3.292  12.810
11847SOL    HW237381  14.668   3.259  12.664
11848SOL     OW37382   7.770   1.278   0.705
11848SOL    HW137383   7.815   1.345   0.756
11848SOL    HW237384   7.689   1.262   0.753
11849SOL     OW37385   7.399  13.746  14.703
11849SOL    HW137386   7.377  13.811  14.637
11849SOL    HW237387   7.494  13.751  14.712
11850SOL     OW37388   0.048   7.624   4.354
11850SOL    HW137389   0.140   7.611   4.377
11850SOL    HW237390   0.003   7.636   4.438
11851SOL     OW37391   9.623  12.431   3.625
11851SOL    HW137392   9.568  12.428   3.703
11851SOL    HW237393   9.694  12.492   3.648
11852SOL     OW37394   9.532   2.860  11.240
11852SOL    HW137395   9.497   2.858  11.329
11852SOL    HW237396   9.624   2.884  11.252
11853SOL     OW37397   3.976  10.450   4.305
11853SOL    HW137398   4.001  10.379   4.245
11853SOL    HW237399   3.881  10.441   4.314
11854SOL     OW37400   9.194   5.476   2.438
11854SOL    HW137401   9.235   5.561   2.421
11854SOL    HW237402   9.256   5.412   2.404
11855SOL     OW37403   1.628   6.230   0.379
11855SOL    HW137404   1.716   6.195   0.394
11855SOL    HW237405   1.573   6.183   0.442
11856SOL     OW37406  11.428  11.390   3.810
11856SOL    HW137407  11.515  11.371   3.845
11856SOL    HW237408  11.436  11.374   3.716
11857SOL     OW37409   8.800   7.178   4.113
11857SOL    HW137410   8.747   7.256   4.096
11857SOL    HW237411   8.805   7.134   4.028
11858SOL     OW37412   3.758   9.876  10.832
11858SOL    HW137413   3.732   9.965  10.852
11858SOL    HW237414   3.852   9.882  10.812
11859SOL     OW37415  14.493   9.878   6.006
11859SOL    HW137416  14.511   9.879   5.912
11859SOL    HW237417  14.573   9.911   6.047
11860SOL     OW37418  12.615   4.471   1.533
11860SOL    HW137419  12.698   4.515   1.515
11860SOL    HW237420  12.549   4.540   1.523
11861SOL     OW37421   6.081   5.889  13.901
11861SOL    HW137422   6.107   5.804  13.867
11861SOL    HW237423   6.120   5.952  13.841
11862SOL     OW37424   8.536   8.256  14.804
11862SOL    HW137425   8.507   8.343  14.830
11862SOL    HW237426   8.505   8.246  14.714
11863SOL     OW37427   0.676   1.881  13.702
11863SOL    HW137428   0.660   1.791  13.675
11863SOL    HW237429   0.768   1.881  13.729
11864SOL     OW37430   7.616  12.598   4.126
11864SOL    HW137431   7.593  12.620   4.216
11864SOL    HW237432   7.532  12.588   4.081
11865SOL     OW37433  12.983   7.001  13.876
11865SOL    HW137434  12.971   6.924  13.932
11865SOL    HW237435  13.074   6.995  13.846
11866SOL     OW37436  14.170   0.927   5.206
11866SOL    HW137437  14.262   0.904   5.193
11866SOL    HW237438  14.136   0.858   5.262
11867SOL     OW37439  13.535  12.375   9.454
11867SOL    HW137440  13.454  12.425   9.444
11867SOL    HW237441  13.509  12.284   9.442
11868SOL     OW37442   8.136   2.223  13.726
11868SOL    HW137443   8.186   2.174  13.660
11868SOL    HW237444   8.057   2.171  13.739
11869SOL     OW37445   5.086   3.573  14.259
11869SOL    HW137446   5.110   3.482  14.243
11869SOL    HW237447   5.008   3.568  14.314
11870SOL     OW37448  14.396   7.825   5.935
11870SOL    HW137449  14.324   7.887   5.935
11870SOL    HW237450  14.440   7.839   6.019
11871SOL     OW37451   9.493   1.763   5.725
11871SOL    HW137452   9.407   1.799   5.703
11871SOL    HW237453   9.555   1.818   5.678
11872SOL     OW37454   8.037   0.249  12.987
11872SOL    HW137455   8.091   0.328  12.988
11872SOL    HW237456   7.990   0.254  12.904
11873SOL     OW37457   5.975   9.253   8.107
11873SOL    HW137458   6.048   9.286   8.160
11873SOL    HW237459   5.998   9.278   8.017
11874SOL     OW37460  10.587   8.904  10.078
11874SOL    HW137461  10.604   8.838  10.010
11874SOL    HW237462  10.665   8.959  10.077
11875SOL     OW37463   4.958  13.044   3.285
11875SOL    HW137464   4.960  13.135   3.254
11875SOL    HW237465   5.049  13.015   3.281
11876SOL     OW37466   9.060   5.259   8.064
11876SOL    HW137467   9.065   5.331   8.002
11876SOL    HW237468   9.077   5.299   8.149
11877SOL     OW37469  10.732   6.440  14.809
11877SOL    HW137470  10.793   6.480  14.747
11877SOL    HW237471  10.787   6.404  14.877
11878SOL     OW37472  14.563   2.307   9.081
11878SOL    HW137473  14.543   2.367   9.009
11878SOL    HW237474  14.537   2.221   9.049
11879SOL     OW37475  13.083   4.417   9.460
11879SOL    HW137476  13.079   4.325   9.485
11879SOL    HW237477  13.141   4.457   9.525
11880SOL     OW37478   8.862   7.540  10.863
11880SOL    HW137479   8.809   7.493  10.799
11880SOL    HW237480   8.932   7.479  10.886
11881SOL     OW37481  11.783   1.819   4.088
11881SOL    HW137482  11.809   1.851   4.174
11881SOL    HW237483  11.820   1.883   4.026
11882SOL     OW37484   7.901   5.283   0.000
11882SOL    HW137485   7.971   5.292   0.065
11882SOL    HW237486   7.894   5.371  14.844
11883SOL     OW37487   7.981   0.277   4.862
11883SOL    HW137488   7.890   0.306   4.854
11883SOL    HW237489   8.021   0.297   4.778
11884SOL     OW37490   7.576   2.497   4.687
11884SOL    HW137491   7.531   2.415   4.665
11884SOL    HW237492   7.520   2.566   4.651
11885SOL     OW37493  14.227  13.776   0.752
11885SOL    HW137494  14.144  13.737   0.723
11885SOL    HW237495  14.252  13.834   0.679
11886SOL     OW37496  11.084   5.389   0.707
11886SOL    HW137497  11.166   5.435   0.689
11886SOL    HW237498  11.052   5.363   0.620
11887SOL     OW37499  13.534   3.156   8.243
11887SOL    HW137500  13.562   3.120   8.159
11887SOL    HW237501  13.527   3.251   8.226
11888SOL     OW37502   7.142  12.403   9.100
11888SOL    HW137503   7.113  12.322   9.142
11888SOL    HW237504   7.237  12.396   9.097
11889SOL     OW37505   8.194  11.088   8.087
11889SOL    HW137506   8.201  11.103   8.181
11889SOL    HW237507   8.138  11.010   8.079
11890SOL     OW37508   4.986   1.138   0.068
11890SOL    HW137509   4.931   1.134  14.872
11890SOL    HW237510   5.032   1.222   0.062
11891SOL     OW37511   8.169   9.669   6.539
11891SOL    HW137512   8.150   9.633   6.453
11891SOL    HW237513   8.139   9.602   6.601
11892SOL     OW37514  14.825   7.443  11.624
11892SOL    HW137515  14.795   7.533  11.617
11892SOL    HW237516   0.039   7.450  11.630
11893SOL     OW37517   3.365   0.081   2.180
11893SOL    HW137518   3.399  14.876   2.159
11893SOL    HW237519   3.293   0.094   2.119
11894SOL     OW37520  12.062   0.936   0.962
11894SOL    HW137521  12.137   0.989   0.934
11894SOL    HW237522  12.083   0.847   0.934
11895SOL     OW37523  14.286  13.226   9.102
11895SOL    HW137524  14.269  13.272   9.185
11895SOL    HW237525  14.364  13.174   9.120
11896SOL     OW37526   2.938   4.838   6.562
11896SOL    HW137527   2.923   4.848   6.468
11896SOL    HW237528   2.912   4.922   6.600
11897SOL     OW37529  10.655   9.243  14.800
11897SOL    HW137530  10.685   9.253   0.008
11897SOL    HW237531  10.727   9.275  14.746
11898SOL     OW37532  14.296  11.501   5.199
11898SOL    HW137533  14.245  11.489   5.279
11898SOL    HW237534  14.385  11.520   5.230
11899SOL     OW37535   8.265   0.359   2.648
11899SOL    HW137536   8.292   0.368   2.739
11899SOL    HW237537   8.343   0.379   2.597
11900SOL     OW37538  12.532   5.278   8.430
11900SOL    HW137539  12.461   5.236   8.477
11900SOL    HW237540  12.491   5.353   8.386
11901SOL     OW37541  14.303   6.315  11.095
11901SOL    HW137542  14.299   6.331  11.000
11901SOL    HW237543  14.378   6.366  11.125
11902SOL     OW37544   2.736   4.574   7.778
11902SOL    HW137545   2.687   4.526   7.845
11902SOL    HW237546   2.755   4.508   7.711
11903SOL     OW37547   9.433   3.669   1.917
11903SOL    HW137548   9.344   3.704   1.925
11903SOL    HW237549   9.430   3.584   1.961
11904SOL     OW37550   8.586   6.598   4.945
11904SOL    HW137551   8.552   6.528   4.889
11904SOL    HW237552   8.510   6.652   4.965
11905SOL     OW37553  13.697  10.741  10.231
11905SOL    HW137554  13.690  10.652  10.198
11905SOL    HW237555  13.735  10.732  10.318
11906SOL     OW37556  10.670  14.356   8.106
11906SOL    HW137557  10.609  14.326   8.038
11906SOL    HW237558  10.679  14.281   8.164
11907SOL     OW37559   2.145  12.966  11.288
11907SOL    HW137560   2.130  13.060  11.298
11907SOL    HW237561   2.181  12.958  11.200
11908SOL     OW37562   2.537  12.255   6.708
11908SOL    HW137563   2.564  12.163   6.707
11908SOL    HW237564   2.578  12.292   6.786
11909SOL     OW37565   8.679   2.981   3.787
11909SOL    HW137566   8.751   2.923   3.764
11909SOL    HW237567   8.603   2.924   3.796
11910SOL     OW37568   9.129   9.524  10.857
11910SOL    HW137569   9.095   9.446  10.813
11910SOL    HW237570   9.189   9.563  10.793
11911SOL     OW37571   3.950   5.965   4.994
11911SOL    HW137572   3.985   5.882   5.027
11911SOL    HW237573   4.026   6.010   4.957
11912SOL     OW37574   7.204   5.417  11.879
11912SOL    HW137575   7.155   5.492  11.913
11912SOL    HW237576   7.165   5.400  11.793
11913SOL     OW37577   2.590  13.888  10.270
11913SOL    HW137578   2.626  13.861  10.354
11913SOL    HW237579   2.510  13.836  10.260
11914SOL     OW37580  10.924  13.732  12.852
11914SOL    HW137581  10.940  13.644  12.818
11914SOL    HW237582  10.835  13.728  12.886
11915SOL     OW37583   0.043   1.892   5.995
11915SOL    HW137584   0.056   1.833   5.921
11915SOL    HW237585   0.100   1.857   6.064
11916SOL     OW37586   8.812   5.887   0.409
11916SOL    HW137587   8.723   5.917   0.428
11916SOL    HW237588   8.824   5.906   0.316
11917SOL     OW37589  12.131   2.575   0.807
11917SOL    HW137590  12.074   2.548   0.735
11917SOL    HW237591  12.084   2.551   0.886
11918SOL     OW37592   5.923   1.751   8.537
11918SOL    HW137593   5.924   1.657   8.519
11918SOL    HW237594   5.834   1.779   8.518
11919SOL     OW37595   1.155  11.999   1.948
11919SOL    HW137596   1.076  11.974   1.899
11919SOL    HW237597   1.125  12.008   2.038
11920SOL     OW37598   0.611   1.254   6.935
11920SOL    HW137599   0.630   1.265   6.841
11920SOL    HW237600   0.626   1.341   6.972
11921SOL     OW37601   7.301   3.488   7.337
11921SOL    HW137602   7.326   3.403   7.300
11921SOL    HW237603   7.385   3.533   7.351
11922SOL     OW37604  10.280   2.365  13.282
11922SOL    HW137605  10.244   2.332  13.200
11922SOL    HW237606  10.372   2.338  13.280
11923SOL     OW37607   7.121  13.567  13.676
11923SOL    HW137608   7.057  13.571  13.605
11923SOL    HW237609   7.090  13.496  13.732
11924SOL     OW37610   7.642  10.629  14.807
11924SOL    HW137611   7.576  10.651  14.873
11924SOL    HW237612   7.672  10.713  14.775
11925SOL     OW37613   3.474   6.722   0.915
11925SOL    HW137614   3.466   6.627   0.913
11925SOL    HW237615   3.408   6.751   0.979
11926SOL     OW37616   6.227   3.441   8.475
11926SOL    HW137617   6.317   3.414   8.458
11926SOL    HW237618   6.203   3.494   8.399
11927SOL     OW37619  13.950   8.554  11.961
11927SOL    HW137620  13.859   8.540  11.932
11927SOL    HW237621  13.960   8.499  12.038
11928SOL     OW37622   0.772   0.003  13.225
11928SOL    HW137623   0.789  14.875  13.319
11928SOL    HW237624   0.684  14.849  13.213
11929SOL     OW37625  12.809  11.188   9.101
11929SOL    HW137626  12.736  11.249   9.089
11929SOL    HW237627  12.814  11.141   9.017
11930SOL     OW37628   1.015   3.400   0.931
11930SOL    HW137629   1.041   3.492   0.935
11930SOL    HW237630   0.996   3.376   1.022
11931SOL     OW37631   7.384  14.265   2.063
11931SOL    HW137632   7.298  14.304   2.081
11931SOL    HW237633   7.365  14.172   2.050
11932SOL     OW37634   9.087   2.561   0.440
11932SOL    HW137635   9.171   2.592   0.472
11932SOL    HW237636   9.108   2.511   0.361
11933SOL     OW37637   1.413   3.060   1.162
11933SOL    HW137638   1.449   3.132   1.214
11933SOL    HW237639   1.421   2.983   1.218
11934SOL     OW37640  13.355   9.952   1.982
11934SOL    HW137641  13.346   9.908   1.898
11934SOL    HW237642  13.439   9.998   1.977
11935SOL     OW37643   2.124  10.397   2.472
11935SOL    HW137644   2.089  10.435   2.552
11935SOL    HW237645   2.055  10.339   2.440
11936SOL     OW37646   6.883   8.279  10.430
11936SOL    HW137647   6.862   8.372  10.430
11936SOL    HW237648   6.905   8.259  10.339
11937SOL     OW37649   3.588   5.668  10.068
11937SOL    HW137650   3.608   5.715  10.150
11937SOL    HW237651   3.567   5.738  10.006
11938SOL     OW37652   4.068  11.541   3.476
11938SOL    HW137653   4.019  11.478   3.528
11938SOL    HW237654   4.068  11.503   3.387
11939SOL     OW37655   3.589   8.524   4.014
11939SOL    HW137656   3.659   8.585   3.993
11939SOL    HW237657   3.598   8.507   4.107
11940SOL     OW37658  12.638   6.552   0.912
11940SOL    HW137659  12.626   6.483   0.977
11940SOL    HW237660  12.549   6.580   0.889
11941SOL     OW37661   5.801   0.293  10.157
11941SOL    HW137662   5.862   0.339  10.100
11941SOL    HW237663   5.730   0.355  10.171
11942SOL     OW37664  10.184   7.940  12.219
11942SOL    HW137665  10.122   7.925  12.149
11942SOL    HW237666  10.223   7.854  12.236
11943SOL     OW37667   4.924   8.085  10.099
11943SOL    HW137668   4.923   8.180  10.112
11943SOL    HW237669   4.836   8.064  10.068
11944SOL     OW37670   4.921  12.000  11.627
11944SOL    HW137671   4.996  11.960  11.583
11944SOL    HW237672   4.850  11.937  11.616
11945SOL     OW37673   2.196   7.279   3.089
11945SOL    HW137674   2.134   7.252   3.020
11945SOL    HW237675   2.144   7.280   3.169
11946SOL     OW37676  10.387   7.132   1.590
11946SOL    HW137677  10.413   7.223   1.577
11946SOL    HW237678  10.330   7.113   1.516
11947SOL     OW37679   3.035   4.120   8.485
11947SOL    HW137680   3.044   4.146   8.394
11947SOL    HW237681   3.107   4.165   8.530
11948SOL     OW37682   5.410  14.780   5.373
11948SOL    HW137683   5.464  14.743   5.303
11948SOL    HW237684   5.464  14.851   5.409
11949SOL     OW37685   4.877   6.654   3.875
11949SOL    HW137686   4.872   6.559   3.862
11949SOL    HW237687   4.957   6.667   3.927
11950SOL     OW37688   8.816   3.287  11.897
11950SOL    HW137689   8.731   3.320  11.867
11950SOL    HW237690   8.846   3.231  11.825
11951SOL     OW37691   4.214   8.483   9.884
11951SOL    HW137692   4.245   8.524   9.804
11951SOL    HW237693   4.124   8.458   9.865
11952SOL     OW37694   5.070   9.556   8.649
11952SOL    HW137695   5.000   9.584   8.709
11952SOL    HW237696   5.033   9.569   8.562
11953SOL     OW37697   5.897   7.293  11.717
11953SOL    HW137698   5.844   7.372  11.721
11953SOL    HW237699   5.985   7.322  11.743
11954SOL     OW37700   3.365   0.983   7.444
11954SOL    HW137701   3.286   0.929   7.446
11954SOL    HW237702   3.406   0.971   7.529
11955SOL     OW37703   5.333   3.526   0.262
11955SOL    HW137704   5.324   3.446   0.210
11955SOL    HW237705   5.244   3.562   0.266
11956SOL     OW37706   1.703   8.598   7.771
11956SOL    HW137707   1.663   8.685   7.759
11956SOL    HW237708   1.631   8.537   7.758
11957SOL     OW37709   3.306  11.894   3.631
11957SOL    HW137710   3.295  11.800   3.648
11957SOL    HW237711   3.313  11.901   3.536
11958SOL     OW37712  12.913  12.680   7.708
11958SOL    HW137713  12.936  12.614   7.643
11958SOL    HW237714  12.997  12.717   7.736
11959SOL     OW37715   6.586  12.047   9.351
11959SOL    HW137716   6.617  12.035   9.441
11959SOL    HW237717   6.639  11.986   9.300
11960SOL     OW37718  13.078   1.687   8.129
11960SOL    HW137719  13.081   1.610   8.186
11960SOL    HW237720  13.043   1.756   8.185
11961SOL     OW37721   9.942  13.776   1.935
11961SOL    HW137722   9.905  13.698   1.977
11961SOL    HW237723   9.894  13.849   1.973
11962SOL     OW37724   4.511   0.855   0.900
11962SOL    HW137725   4.549   0.780   0.945
11962SOL    HW237726   4.538   0.931   0.952
11963SOL     OW37727   9.777   1.168   7.668
11963SOL    HW137728   9.826   1.212   7.738
11963SOL    HW237729   9.749   1.086   7.707
11964SOL     OW37730   9.722   1.341   6.843
11964SOL    HW137731   9.712   1.253   6.878
11964SOL    HW237732   9.739   1.327   6.749
11965SOL     OW37733  12.364   8.975   9.863
11965SOL    HW137734  12.308   9.040   9.904
11965SOL    HW237735  12.425   8.948   9.932
11966SOL     OW37736  12.276   2.804   9.021
11966SOL    HW137737  12.289   2.789   9.115
11966SOL    HW237738  12.363   2.795   8.983
11967SOL     OW37739   3.206   8.937  12.202
11967SOL    HW137740   3.285   8.890  12.228
11967SOL    HW237741   3.135   8.886  12.242
11968SOL     OW37742   2.841   4.081   8.673
11968SOL    HW137743   2.803   3.993   8.663
11968SOL    HW237744   2.895   4.092   8.595
11969SOL     OW37745  13.887  13.986  13.832
11969SOL    HW137746  13.908  13.895  13.856
11969SOL    HW237747  13.898  13.990  13.738
11970SOL     OW37748   9.125   7.436  12.669
11970SOL    HW137749   9.137   7.383  12.747
11970SOL    HW237750   9.166   7.386  12.599
11971SOL     OW37751  12.605  14.646  10.206
11971SOL    HW137752  12.563  14.690  10.281
11971SOL    HW237753  12.538  14.585  10.174
11972SOL     OW37754   6.178  14.488   5.954
11972SOL    HW137755   6.178  14.393   5.970
11972SOL    HW237756   6.254  14.502   5.899
11973SOL     OW37757   7.630   7.780   3.965
11973SOL    HW137758   7.548   7.810   4.005
11973SOL    HW237759   7.638   7.833   3.885
11974SOL     OW37760   2.068  12.325   9.713
11974SOL    HW137761   2.119  12.349   9.790
11974SOL    HW237762   1.990  12.281   9.748
11975SOL     OW37763   0.652   0.172   2.257
11975SOL    HW137764   0.648   0.221   2.174
11975SOL    HW237765   0.690   0.233   2.319
11976SOL     OW37766  12.289   9.285  10.178
11976SOL    HW137767  12.244   9.344  10.239
11976SOL    HW237768  12.221   9.253  10.120
11977SOL     OW37769  12.575   6.595  11.339
11977SOL    HW137770  12.590   6.687  11.362
11977SOL    HW237771  12.540   6.598  11.250
11978SOL     OW37772   1.529   9.065   7.122
11978SOL    HW137773   1.527   9.049   7.028
11978SOL    HW237774   1.568   9.152   7.132
11979SOL     OW37775   3.121   8.025   3.580
11979SOL    HW137776   3.081   8.099   3.533
11979SOL    HW237777   3.207   8.015   3.539
11980SOL     OW37778   1.658   1.598   0.283
11980SOL    HW137779   1.601   1.525   0.305
11980SOL    HW237780   1.607   1.676   0.307
11981SOL     OW37781  10.503  14.115   0.455
11981SOL    HW137782  10.494  14.074   0.369
11981SOL    HW237783  10.584  14.077   0.490
11982SOL     OW37784   7.405   4.415   0.221
11982SOL    HW137785   7.456   4.448   0.147
11982SOL    HW237786   7.470   4.400   0.290
11983SOL     OW37787   6.385   5.604   4.660
11983SOL    HW137788   6.474   5.630   4.634
11983SOL    HW237789   6.350   5.559   4.584
11984SOL     OW37790   4.737   6.353  11.816
11984SOL    HW137791   4.777   6.440  11.824
11984SOL    HW237792   4.720   6.344  11.722
11985SOL     OW37793   2.267   5.814   3.819
11985SOL    HW137794   2.362   5.802   3.824
11985SOL    HW237795   2.231   5.731   3.850
11986SOL     OW37796   2.945  11.429   6.625
11986SOL    HW137797   2.892  11.354   6.598
11986SOL    HW237798   3.035  11.396   6.623
11987SOL     OW37799   9.760   1.538  11.734
11987SOL    HW137800   9.758   1.630  11.759
11987SOL    HW237801   9.673   1.522  11.697
11988SOL     OW37802   0.683  10.563  14.435
11988SOL    HW137803   0.669  10.632  14.500
11988SOL    HW237804   0.758  10.514  14.467
11989SOL     OW37805  10.367   9.796   5.365
11989SOL    HW137806  10.434   9.746   5.320
11989SOL    HW237807  10.288   9.785   5.311
11990SOL     OW37808   8.876   7.111  11.161
11990SOL    HW137809   8.968   7.084  11.172
11990SOL    HW237810   8.879   7.207  11.164
11991SOL     OW37811  10.118   2.028   7.395
11991SOL    HW137812  10.183   1.998   7.332
11991SOL    HW237813  10.043   1.971   7.382
11992SOL     OW37814  11.457   7.995  10.344
11992SOL    HW137815  11.385   8.006  10.406
11992SOL    HW237816  11.482   7.903  10.351
11993SOL     OW37817   2.935  14.792  10.964
11993SOL    HW137818   2.841  14.786  10.953
11993SOL    HW237819   2.952  14.750  11.048
11994SOL     OW37820   6.588   2.454   0.541
11994SOL    HW137821   6.649   2.401   0.490
11994SOL    HW237822   6.601   2.426   0.632
11995SOL     OW37823   4.913   1.371   1.606
11995SOL    HW137824   4.937   1.285   1.639
11995SOL    HW237825   4.992   1.424   1.619
11996SOL     OW37826  10.676   9.803  11.546
11996SOL    HW137827  10.632   9.792  11.462
11996SOL    HW237828  10.762   9.838  11.524
11997SOL     OW37829   0.271   7.468   5.454
11997SOL    HW137830   0.205   7.420   5.405
11997SOL    HW237831   0.354   7.443   5.413
11998SOL     OW37832  12.595   5.104  12.867
11998SOL    HW137833  12.546   5.147  12.797
11998SOL    HW237834  12.567   5.148  12.947
11999SOL     OW37835   6.759   7.259   4.214
11999SOL    HW137836   6.774   7.334   4.272
11999SOL    HW237837   6.770   7.182   4.270
12000SOL     OW37838   6.564   2.739   9.156
12000SOL    HW137839   6.595   2.789   9.079
12000SOL    HW237840   6.644   2.704   9.195
12001SOL     OW37841   8.956   2.713  12.769
12001SOL    HW137842   8.958   2.748  12.680
12001SOL    HW237843   8.881   2.653  12.769
12002SOL     OW37844   9.273  12.009  10.573
12002SOL    HW137845   9.293  11.936  10.632
12002SOL    HW237846   9.356  12.055  10.563
12003SOL     OW37847  12.349   9.162   6.439
12003SOL    HW137848  12.283   9.101   6.405
12003SOL    HW237849  12.298   9.239   6.467
12004SOL     OW37850   7.974  10.471   5.747
12004SOL    HW137851   8.040  10.449   5.813
12004SOL    HW237852   7.980  10.566   5.738
12005SOL     OW37853   1.492   5.786   2.781
12005SOL    HW137854   1.549   5.747   2.715
12005SOL    HW237855   1.409   5.739   2.773
12006SOL     OW37856   0.091   4.463  10.741
12006SOL    HW137857   0.059   4.423  10.822
12006SOL    HW237858   0.011   4.483  10.691
12007SOL     OW37859   2.745   8.366  10.197
12007SOL    HW137860   2.763   8.458  10.214
12007SOL    HW237861   2.796   8.319  10.263
12008SOL     OW37862  14.172   9.111   5.305
12008SOL    HW137863  14.252   9.060   5.304
12008SOL    HW237864  14.126   9.084   5.385
12009SOL     OW37865   7.472  12.660   2.432
12009SOL    HW137866   7.505  12.668   2.521
12009SOL    HW237867   7.377  12.667   2.440
12010SOL     OW37868   7.622  13.031   0.526
12010SOL    HW137869   7.570  13.060   0.452
12010SOL    HW237870   7.610  13.099   0.592
12011SOL     OW37871   5.398   1.817   1.043
12011SOL    HW137872   5.423   1.862   0.961
12011SOL    HW237873   5.479   1.814   1.094
12012SOL     OW37874  14.608  11.269   8.267
12012SOL    HW137875  14.588  11.243   8.177
12012SOL    HW237876  14.611  11.365   8.263
12013SOL     OW37877   4.422  12.900   4.366
12013SOL    HW137878   4.433  12.883   4.273
12013SOL    HW237879   4.488  12.966   4.386
12014SOL     OW37880   5.833  12.636  10.208
12014SOL    HW137881   5.887  12.585  10.148
12014SOL    HW237882   5.878  12.630  10.292
12015SOL     OW37883   3.415   6.206   3.197
12015SOL    HW137884   3.492   6.237   3.244
12015SOL    HW237885   3.360   6.165   3.264
12016SOL     OW37886   1.806  12.726   1.594
12016SOL    HW137887   1.746  12.652   1.592
12016SOL    HW237888   1.750  12.803   1.604
12017SOL     OW37889   9.938  13.965   8.517
12017SOL    HW137890   9.890  13.907   8.576
12017SOL    HW237891   9.870  14.004   8.461
12018SOL     OW37892  10.353  14.339   4.068
12018SOL    HW137893  10.277  14.397   4.058
12018SOL    HW237894  10.340  14.298   4.153
12019SOL     OW37895  12.492   9.755   5.403
12019SOL    HW137896  12.407   9.729   5.368
12019SOL    HW237897  12.494   9.717   5.491
12020SOL     OW37898   4.128  11.874   8.053
12020SOL    HW137899   4.164  11.857   7.966
12020SOL    HW237900   4.201  11.857   8.112
12021SOL     OW37901  13.080   9.475  14.124
12021SOL    HW137902  13.047   9.494  14.212
12021SOL    HW237903  13.013   9.508  14.065
12022SOL     OW37904   4.561  12.166   2.917
12022SOL    HW137905   4.472  12.148   2.947
12022SOL    HW237906   4.597  12.079   2.896
12023SOL     OW37907  13.722  12.139   9.036
12023SOL    HW137908  13.704  12.050   9.066
12023SOL    HW237909  13.637  12.171   9.005
12024SOL     OW37910   0.469  13.667   2.904
12024SOL    HW137911   0.527  13.741   2.918
12024SOL    HW237912   0.397  13.702   2.850
12025SOL     OW37913  13.265  13.232  12.712
12025SOL    HW137914  13.274  13.139  12.695
12025SOL    HW237915  13.170  13.247  12.718
12026SOL     OW37916   9.382   7.069   6.711
12026SOL    HW137917   9.287   7.080   6.707
12026SOL    HW237918   9.417   7.157   6.703
12027SOL     OW37919   2.323   3.272   1.474
12027SOL    HW137920   2.297   3.333   1.405
12027SOL    HW237921   2.358   3.327   1.543
12028SOL     OW37922  11.934   3.523  14.649
12028SOL    HW137923  11.900   3.599  14.696
12028SOL    HW237924  11.977   3.471  14.717
12029SOL     OW37925   3.955   3.943   7.246
12029SOL    HW137926   3.947   4.022   7.192
12029SOL    HW237927   4.049   3.935   7.263
12030SOL     OW37928   9.915   7.460  11.858
12030SOL    HW137929   9.907   7.483  11.766
12030SOL    HW237930   9.987   7.515  11.890
12031SOL     OW37931  13.747  12.124   0.384
12031SOL    HW137932  13.814  12.188   0.407
12031SOL    HW237933  13.791  12.040   0.387
12032SOL     OW37934   5.493   8.607  12.842
12032SOL    HW137935   5.452   8.638  12.923
12032SOL    HW237936   5.580   8.577  12.870
12033SOL     OW37937   9.566  12.966   6.774
12033SOL    HW137938   9.514  13.027   6.826
12033SOL    HW237939   9.625  12.925   6.837
12034SOL     OW37940   7.742  11.577  13.802
12034SOL    HW137941   7.711  11.573  13.712
12034SOL    HW237942   7.830  11.540  13.799
12035SOL     OW37943   1.216   4.783   1.785
12035SOL    HW137944   1.128   4.819   1.774
12035SOL    HW237945   1.232   4.785   1.879
12036SOL     OW37946   8.602   0.901  13.543
12036SOL    HW137947   8.592   0.996  13.537
12036SOL    HW237948   8.567   0.868  13.460
12037SOL     OW37949   1.404   5.408   5.168
12037SOL    HW137950   1.347   5.341   5.130
12037SOL    HW237951   1.371   5.490   5.133
12038SOL     OW37952   7.971   6.593   6.645
12038SOL    HW137953   7.909   6.652   6.687
12038SOL    HW237954   7.980   6.520   6.707
12039SOL     OW37955  13.614   9.856   2.860
12039SOL    HW137956  13.601   9.950   2.848
12039SOL    HW237957  13.536   9.827   2.907
12040SOL     OW37958  13.034   0.352  10.504
12040SOL    HW137959  13.109   0.300  10.531
12040SOL    HW237960  12.974   0.289  10.465
12041SOL     OW37961   2.605   5.826   7.376
12041SOL    HW137962   2.698   5.809   7.391
12041SOL    HW237963   2.588   5.909   7.421
12042SOL     OW37964   1.339  14.660   4.408
12042SOL    HW137965   1.398  14.710   4.352
12042SOL    HW237966   1.289  14.605   4.347
12043SOL     OW37967   2.555   3.600  13.569
12043SOL    HW137968   2.596   3.594  13.655
12043SOL    HW237969   2.469   3.638  13.585
12044SOL     OW37970   4.362   0.164  12.644
12044SOL    HW137971   4.379   0.246  12.597
12044SOL    HW237972   4.445   0.116  12.639
12045SOL     OW37973   9.928  14.799   4.245
12045SOL    HW137974   9.956  14.810   4.154
12045SOL    HW237975   9.991  14.849   4.296
12046SOL     OW37976  10.150  12.167   9.985
12046SOL    HW137977  10.079  12.230   9.971
12046SOL    HW237978  10.205  12.176   9.907
12047SOL     OW37979  12.692  11.195   3.321
12047SOL    HW137980  12.776  11.181   3.366
12047SOL    HW237981  12.668  11.285   3.343
12048SOL     OW37982   8.752   1.428   2.149
12048SOL    HW137983   8.718   1.413   2.060
12048SOL    HW237984   8.761   1.340   2.186
12049SOL     OW37985  10.572   2.082  14.563
12049SOL    HW137986  10.482   2.104  14.583
12049SOL    HW237987  10.601   2.028  14.637
12050SOL     OW37988  12.942   2.465   8.726
12050SOL    HW137989  12.847   2.452   8.719
12050SOL    HW237990  12.964   2.434   8.814
12051SOL     OW37991   9.202   8.986   9.839
12051SOL    HW137992   9.179   8.982   9.932
12051SOL    HW237993   9.230   9.076   9.825
12052SOL     OW37994   4.954   8.827   0.965
12052SOL    HW137995   4.930   8.746   0.919
12052SOL    HW237996   4.883   8.888   0.945
12053SOL     OW37997   0.409   4.071   8.755
12053SOL    HW137998   0.341   4.126   8.794
12053SOL    HW237999   0.491   4.102   8.795
12054SOL     OW38000   7.060   5.112  10.564
12054SOL    HW138001   7.115   5.152  10.497
12054SOL    HW238002   6.983   5.080  10.515
12055SOL     OW38003   6.414   5.420   5.963
12055SOL    HW138004   6.483   5.427   6.029
12055SOL    HW238005   6.452   5.459   5.884
12056SOL     OW38006  10.615  12.624   6.226
12056SOL    HW138007  10.559  12.595   6.154
12056SOL    HW238008  10.697  12.576   6.213
12057SOL     OW38009   0.034  14.650   0.861
12057SOL    HW138010  14.834  14.631   0.816
12057SOL    HW238011   0.040  14.746   0.861
12058SOL     OW38012  13.551   1.230   5.955
12058SOL    HW138013  13.615   1.246   6.024
12058SOL    HW238014  13.502   1.312   5.948
12059SOL     OW38015   2.127   6.479   9.952
12059SOL    HW138016   2.149   6.549  10.014
12059SOL    HW238017   2.090   6.523   9.876
12060SOL     OW38018   5.327   4.100  14.387
12060SOL    HW138019   5.364   4.018  14.420
12060SOL    HW238020   5.260   4.072  14.325
12061SOL     OW38021  11.587  14.252  12.426
12061SOL    HW138022  11.572  14.228  12.517
12061SOL    HW238023  11.500  14.273  12.391
12062SOL     OW38024  11.823   1.613   9.786
12062SOL    HW138025  11.742   1.565   9.771
12062SOL    HW238026  11.809   1.658   9.870
12063SOL     OW38027   6.470   9.161   2.026
12063SOL    HW138028   6.381   9.196   2.031
12063SOL    HW238029   6.521   9.232   1.987
12064SOL     OW38030   1.748   2.149   0.854
12064SOL    HW138031   1.694   2.140   0.933
12064SOL    HW238032   1.726   2.235   0.820
12065SOL     OW38033  11.781   7.847   2.009
12065SOL    HW138034  11.745   7.810   2.090
12065SOL    HW238035  11.871   7.814   2.005
12066SOL     OW38036   6.467   2.230  14.742
12066SOL    HW138037   6.407   2.230  14.668
12066SOL    HW238038   6.410   2.226  14.819
12067SOL     OW38039   2.474   0.553   3.068
12067SOL    HW138040   2.390   0.586   3.037
12067SOL    HW238041   2.536   0.580   3.000
12068SOL     OW38042   7.609  13.040   9.758
12068SOL    HW138043   7.527  13.025   9.710
12068SOL    HW238044   7.678  13.016   9.696
12069SOL     OW38045  10.924   4.696   7.217
12069SOL    HW138046  10.876   4.648   7.285
12069SOL    HW238047  10.858   4.748   7.173
12070SOL     OW38048   9.837   9.912   4.008
12070SOL    HW138049   9.824   9.838   4.067
12070SOL    HW238050   9.905   9.884   3.947
12071SOL     OW38051   7.022   5.128   5.239
12071SOL    HW138052   7.023   5.072   5.162
12071SOL    HW238053   6.938   5.173   5.234
12072SOL     OW38054   4.263   1.111  10.539
12072SOL    HW138055   4.201   1.119  10.466
12072SOL    HW238056   4.334   1.057  10.504
12073SOL     OW38057   0.105   1.898   7.084
12073SOL    HW138058   0.174   1.925   7.144
12073SOL    HW238059   0.029   1.882   7.141
12074SOL     OW38060   8.004  14.404   3.252
12074SOL    HW138061   8.048  14.464   3.192
12074SOL    HW238062   7.974  14.461   3.323
12075SOL     OW38063   6.540  13.752   4.886
12075SOL    HW138064   6.610  13.689   4.906
12075SOL    HW238065   6.461  13.712   4.921
12076SOL     OW38066   5.964   6.396   7.103
12076SOL    HW138067   5.879   6.353   7.109
12076SOL    HW238068   5.944   6.489   7.107
12077SOL     OW38069  10.231   3.443   1.590
12077SOL    HW138070  10.170   3.480   1.526
12077SOL    HW238071  10.196   3.470   1.674
12078SOL     OW38072   8.178   6.494   1.941
12078SOL    HW138073   8.143   6.420   1.991
12078SOL    HW238074   8.210   6.555   2.007
12079SOL     OW38075  10.794   0.273  14.005
12079SOL    HW138076  10.875   0.287  13.955
12079SOL    HW238077  10.725   0.306  13.947
12080SOL     OW38078  11.508   8.312  12.153
12080SOL    HW138079  11.563   8.386  12.127
12080SOL    HW238080  11.568   8.238  12.161
12081SOL     OW38081  10.070   3.047   8.928
12081SOL    HW138082   9.975   3.038   8.932
12081SOL    HW238083  10.097   2.984   8.861
12082SOL     OW38084   4.891   8.446   1.456
12082SOL    HW138085   4.886   8.355   1.486
12082SOL    HW238086   4.911   8.439   1.362
12083SOL     OW38087   7.096   8.038   7.245
12083SOL    HW138088   7.153   8.024   7.170
12083SOL    HW238089   7.008   8.020   7.213
12084SOL     OW38090   6.298   2.470   4.351
12084SOL    HW138091   6.359   2.423   4.408
12084SOL    HW238092   6.337   2.557   4.340
12085SOL     OW38093  12.646   6.599  13.061
12085SOL    HW138094  12.650   6.524  13.120
12085SOL    HW238095  12.735   6.606  13.025
12086SOL     OW38096   3.268   6.353   7.321
12086SOL    HW138097   3.178   6.328   7.302
12086SOL    HW238098   3.260   6.432   7.375
12087SOL     OW38099   6.701  12.239   8.081
12087SOL    HW138100   6.737  12.285   8.157
12087SOL    HW238101   6.617  12.282   8.064
12088SOL     OW38102  13.923   0.400  13.321
12088SOL    HW138103  13.976   0.468  13.364
12088SOL    HW238104  13.878   0.356  13.393
12089SOL     OW38105  11.651   3.365  10.832
12089SOL    HW138106  11.709   3.355  10.757
12089SOL    HW238107  11.600   3.443  10.813
12090SOL     OW38108   7.401   0.784   1.751
12090SOL    HW138109   7.492   0.754   1.738
12090SOL    HW238110   7.378   0.825   1.668
12091SOL     OW38111   0.691   1.036   9.339
12091SOL    HW138112   0.697   0.976   9.414
12091SOL    HW238113   0.686   1.123   9.379
12092SOL     OW38114  12.007  10.261  13.927
12092SOL    HW138115  11.933  10.315  13.954
12092SOL    HW238116  11.990  10.175  13.967
12093SOL     OW38117   4.649   3.623   1.942
12093SOL    HW138118   4.614   3.539   1.913
12093SOL    HW238119   4.592   3.688   1.900
12094SOL     OW38120   3.712   3.209   7.948
12094SOL    HW138121   3.632   3.203   7.897
12094SOL    HW238122   3.750   3.294   7.925
12095SOL     OW38123   3.193  12.215   0.365
12095SOL    HW138124   3.114  12.182   0.322
12095SOL    HW238125   3.162  12.291   0.415
12096SOL     OW38126   1.178   4.326   2.262
12096SOL    HW138127   1.119   4.365   2.197
12096SOL    HW238128   1.264   4.326   2.220
12097SOL     OW38129  10.551   1.727   6.154
12097SOL    HW138130  10.622   1.688   6.206
12097SOL    HW238131  10.492   1.765   6.219
12098SOL     OW38132   4.440   6.379   6.177
12098SOL    HW138133   4.488   6.318   6.121
12098SOL    HW238134   4.368   6.327   6.213
12099SOL     OW38135   0.784   3.582  12.677
12099SOL    HW138136   0.756   3.668  12.644
12099SOL    HW238137   0.708   3.526  12.665
12100SOL     OW38138   1.532   1.529  11.160
12100SOL    HW138139   1.460   1.581  11.126
12100SOL    HW238140   1.495   1.441  11.169
12101SOL     OW38141   0.066   0.951   9.995
12101SOL    HW138142   0.158   0.979   9.995
12101SOL    HW238143   0.023   1.011   9.934
12102SOL     OW38144   3.415   8.234   7.777
12102SOL    HW138145   3.443   8.224   7.686
12102SOL    HW238146   3.488   8.199   7.828
12103SOL     OW38147  10.039  13.257   0.393
12103SOL    HW138148  10.071  13.202   0.464
12103SOL    HW238149  10.113  13.264   0.333
12104SOL     OW38150   5.445   2.704   6.592
12104SOL    HW138151   5.357   2.665   6.595
12104SOL    HW238152   5.479   2.693   6.680
12105SOL     OW38153   8.487   0.447   1.847
12105SOL    HW138154   8.477   0.358   1.813
12105SOL    HW238155   8.436   0.501   1.787
12106SOL     OW38156   8.352   1.337   9.037
12106SOL    HW138157   8.278   1.397   9.030
12106SOL    HW238158   8.384   1.326   8.947
12107SOL     OW38159  12.297  12.361  10.447
12107SOL    HW138160  12.386  12.339  10.476
12107SOL    HW238161  12.282  12.306  10.371
12108SOL     OW38162  10.573   4.627   0.048
12108SOL    HW138163  10.544   4.684  14.859
12108SOL    HW238164  10.521   4.656   0.124
12109SOL     OW38165   4.828   1.260   4.892
12109SOL    HW138166   4.897   1.306   4.941
12109SOL    HW238167   4.875   1.199   4.836
12110SOL     OW38168   7.946   2.304  11.135
12110SOL    HW138169   7.972   2.367  11.068
12110SOL    HW238170   8.003   2.229  11.120
12111SOL     OW38171  13.982   4.410   0.625
12111SOL    HW138172  13.970   4.325   0.583
12111SOL    HW238173  13.903   4.422   0.678
12112SOL     OW38174  12.228  10.493  14.410
12112SOL    HW138175  12.229  10.561  14.478
12112SOL    HW238176  12.194  10.538  14.333
12113SOL     OW38177  13.529   4.957   3.222
12113SOL    HW138178  13.586   4.902   3.168
12113SOL    HW238179  13.563   5.045   3.212
12114SOL     OW38180   0.352   0.707  14.694
12114SOL    HW138181   0.330   0.619  14.663
12114SOL    HW238182   0.419   0.738  14.634
12115SOL     OW38183   6.062  12.464  11.053
12115SOL    HW138184   6.009  12.419  11.119
12115SOL    HW238185   6.117  12.395  11.016
12116SOL     OW38186   1.777   5.953  10.116
12116SOL    HW138187   1.865   5.965  10.152
12116SOL    HW238188   1.785   5.981  10.025
12117SOL     OW38189   9.751   8.211   6.040
12117SOL    HW138190   9.674   8.232   5.987
12117SOL    HW238191   9.799   8.146   5.988
12118SOL     OW38192   9.276   8.943   8.045
12118SOL    HW138193   9.221   9.021   8.050
12118SOL    HW238194   9.288   8.928   7.952
12119SOL     OW38195  10.557  10.289   1.590
12119SOL    HW138196  10.572  10.224   1.658
12119SOL    HW238197  10.644  10.326   1.571
12120SOL     OW38198  14.782  13.734  13.252
12120SOL    HW138199  14.857  13.675  13.261
12120SOL    HW238200  14.706  13.676  13.249
12121SOL     OW38201   2.727   3.107  12.364
12121SOL    HW138202   2.737   3.101  12.269
12121SOL    HW238203   2.649   3.161  12.377
12122SOL     OW38204   6.734  11.753   9.282
12122SOL    HW138205   6.781  11.768   9.364
12122SOL    HW238206   6.644  11.734   9.308
12123SOL     OW38207  14.711   4.933  13.911
12123SOL    HW138208  14.806   4.922  13.901
12123SOL    HW238209  14.690   5.010  13.858
12124SOL     OW38210   9.362   6.073   1.474
12124SOL    HW138211   9.391   6.098   1.387
12124SOL    HW238212   9.341   5.980   1.467
12125SOL     OW38213   7.492   3.414   7.578
12125SOL    HW138214   7.506   3.491   7.523
12125SOL    HW238215   7.407   3.380   7.550
12126SOL     OW38216  12.995   1.657  11.571
12126SOL    HW138217  13.020   1.745  11.543
12126SOL    HW238218  12.960   1.616  11.492
12127SOL     OW38219  14.300   7.437   3.205
12127SOL    HW138220  14.227   7.470   3.154
12127SOL    HW238221  14.336   7.513   3.250
12128SOL     OW38222  10.975   0.679   7.318
12128SOL    HW138223  10.987   0.762   7.365
12128SOL    HW238224  10.959   0.705   7.228
12129SOL     OW38225  14.573  13.746   8.297
12129SOL    HW138226  14.491  13.754   8.248
12129SOL    HW238227  14.547  13.747   8.389
12130SOL     OW38228   7.089  10.611   4.816
12130SOL    HW138229   7.163  10.623   4.756
12130SOL    HW238230   7.096  10.684   4.877
12131SOL     OW38231   3.901  13.798   0.299
12131SOL    HW138232   3.954  13.722   0.277
12131SOL    HW238233   3.957  13.851   0.355
12132SOL     OW38234  14.484  12.396   8.569
12132SOL    HW138235  14.531  12.432   8.644
12132SOL    HW238236  14.539  12.417   8.494
12133SOL     OW38237   5.387   3.144  12.645
12133SOL    HW138238   5.346   3.231  12.655
12133SOL    HW238239   5.479   3.163  12.631
12134SOL     OW38240   7.672  13.448   1.809
12134SOL    HW138241   7.724  13.369   1.797
12134SOL    HW238242   7.623  13.432   1.890
12135SOL     OW38243   8.572   5.672  10.447
12135SOL    HW138244   8.647   5.670  10.506
12135SOL    HW238245   8.586   5.600  10.386
12136SOL     OW38246   2.737  12.508   6.650
12136SOL    HW138247   2.645  12.482   6.639
12136SOL    HW238248   2.787  12.432   6.620
12137SOL     OW38249   4.331   5.572   0.875
12137SOL    HW138250   4.365   5.498   0.825
12137SOL    HW238251   4.257   5.536   0.924
12138SOL     OW38252   4.522   1.443   6.917
12138SOL    HW138253   4.578   1.371   6.946
12138SOL    HW238254   4.560   1.521   6.958
12139SOL     OW38255   3.607   6.125  14.179
12139SOL    HW138256   3.683   6.174  14.149
12139SOL    HW238257   3.617   6.039  14.139
12140SOL     OW38258   9.289  13.706  12.675
12140SOL    HW138259   9.217  13.752  12.631
12140SOL    HW238260   9.360  13.769  12.677
12141SOL     OW38261   5.435  14.758  11.838
12141SOL    HW138262   5.459  14.850  11.845
12141SOL    HW238263   5.513  14.711  11.869
12142SOL     OW38264  12.486   8.851   1.224
12142SOL    HW138265  12.527   8.801   1.153
12142SOL    HW238266  12.475   8.939   1.187
12143SOL     OW38267   8.531   0.406   3.517
12143SOL    HW138268   8.510   0.348   3.590
12143SOL    HW238269   8.604   0.459   3.549
12144SOL     OW38270  10.601   7.785  10.692
12144SOL    HW138271  10.652   7.750  10.619
12144SOL    HW238272  10.667   7.809  10.758
12145SOL     OW38273  14.574   6.425   4.656
12145SOL    HW138274  14.522   6.434   4.736
12145SOL    HW238275  14.528   6.360   4.604
12146SOL     OW38276  11.243   8.025   4.786
12146SOL    HW138277  11.331   8.062   4.788
12146SOL    HW238278  11.229   8.001   4.694
12147SOL     OW38279   0.705  13.057  11.382
12147SOL    HW138280   0.694  12.977  11.330
12147SOL    HW238281   0.623  13.068  11.429
12148SOL     OW38282   9.647  11.952   4.282
12148SOL    HW138283   9.563  11.968   4.239
12148SOL    HW238284   9.625  11.949   4.375
12149SOL     OW38285   7.727  11.132   1.203
12149SOL    HW138286   7.749  11.223   1.220
12149SOL    HW238287   7.810  11.085   1.211
12150SOL     OW38288   7.959  12.658  14.741
12150SOL    HW138289   8.011  12.736  14.758
12150SOL    HW238290   7.879  12.671  14.792
12151SOL     OW38291   1.080   0.173   8.739
12151SOL    HW138292   1.076   0.258   8.697
12151SOL    HW238293   1.079   0.193   8.833
12152SOL     OW38294   7.453   5.946   1.139
12152SOL    HW138295   7.525   5.891   1.108
12152SOL    HW238296   7.479   5.972   1.227
12153SOL     OW38297   3.516   3.520   4.230
12153SOL    HW138298   3.566   3.498   4.152
12153SOL    HW238299   3.542   3.610   4.251
12154SOL     OW38300  13.599   6.515  10.436
12154SOL    HW138301  13.582   6.609  10.433
12154SOL    HW238302  13.652   6.503  10.515
12155SOL     OW38303   9.397   7.986   8.439
12155SOL    HW138304   9.302   7.977   8.435
12155SOL    HW238305   9.425   7.917   8.498
12156SOL     OW38306  10.417   1.268  14.344
12156SOL    HW138307  10.410   1.317  14.262
12156SOL    HW238308  10.356   1.195  14.333
12157SOL     OW38309   8.451  12.866   1.035
12157SOL    HW138310   8.525  12.919   1.063
12157SOL    HW238311   8.434  12.807   1.109
12158SOL     OW38312   9.852   5.808   8.018
12158SOL    HW138313   9.900   5.728   7.996
12158SOL    HW238314   9.889   5.875   7.961
12159SOL     OW38315   3.126   3.804   4.265
12159SOL    HW138316   3.172   3.789   4.347
12159SOL    HW238317   3.157   3.889   4.235
12160SOL     OW38318  12.295   3.177  13.692
12160SOL    HW138319  12.290   3.087  13.662
12160SOL    HW238320  12.389   3.195  13.702
12161SOL     OW38321  11.837   3.056  10.191
12161SOL    HW138322  11.832   3.080  10.099
12161SOL    HW238323  11.925   3.083  10.218
12162SOL     OW38324   6.679  13.741  11.153
12162SOL    HW138325   6.611  13.760  11.088
12162SOL    HW238326   6.659  13.653  11.184
12163SOL     OW38327   0.075  14.357   1.746
12163SOL    HW138328   0.086  14.428   1.683
12163SOL    HW238329   0.031  14.397   1.820
12164SOL     OW38330  13.964  11.857  12.513
12164SOL    HW138331  14.014  11.916  12.570
12164SOL    HW238332  13.877  11.895  12.509
12165SOL     OW38333   5.442  14.096   8.170
12165SOL    HW138334   5.529  14.096   8.130
12165SOL    HW238335   5.427  14.004   8.192
12166SOL     OW38336  12.121   6.507  13.718
12166SOL    HW138337  12.028   6.528  13.727
12166SOL    HW238338  12.123   6.434  13.656
12167SOL     OW38339   6.226  13.620  11.992
12167SOL    HW138340   6.272  13.698  11.962
12167SOL    HW238341   6.296  13.557  12.010
12168SOL     OW38342   9.604   6.172   2.745
12168SOL    HW138343   9.542   6.118   2.695
12168SOL    HW238344   9.672   6.195   2.682
12169SOL     OW38345  13.431  12.086   3.106
12169SOL    HW138346  13.406  12.107   3.196
12169SOL    HW238347  13.483  12.006   3.114
12170SOL     OW38348   5.813   8.493   5.975
12170SOL    HW138349   5.789   8.460   6.062
12170SOL    HW238350   5.780   8.583   5.974
12171SOL     OW38351   6.617   7.407   2.096
12171SOL    HW138352   6.533   7.376   2.132
12171SOL    HW238353   6.595   7.438   2.008
12172SOL     OW38354   8.664   3.416   4.242
12172SOL    HW138355   8.687   3.375   4.159
12172SOL    HW238356   8.584   3.465   4.224
12173SOL     OW38357  10.241   9.652  12.642
12173SOL    HW138358  10.323   9.676  12.685
12173SOL    HW238359  10.214   9.732  12.597
12174SOL     OW38360  13.472  14.851   3.264
12174SOL    HW138361  13.379  14.873   3.264
12174SOL    HW238362  13.494  14.840   3.172
12175SOL     OW38363  13.347  10.267   8.477
12175SOL    HW138364  13.415  10.334   8.482
12175SOL    HW238365  13.347  10.227   8.564
12176SOL     OW38366  13.609  13.435  12.809
12176SOL    HW138367  13.577  13.428  12.719
12176SOL    HW238368  13.531  13.425  12.863
12177SOL     OW38369  10.188  13.111   0.550
12177SOL    HW138370  10.283  13.125   0.559
12177SOL    HW238371  10.174  13.024   0.587
12178SOL     OW38372  12.920  12.908   9.026
12178SOL    HW138373  12.939  12.974   9.093
12178SOL    HW238374  12.983  12.925   8.957
12179SOL     OW38375   6.120   5.624  11.020
12179SOL    HW138376   6.152   5.644  11.108
12179SOL    HW238377   6.102   5.530  11.022
12180SOL     OW38378  13.569   9.177  13.716
12180SOL    HW138379  13.551   9.198  13.624
12180SOL    HW238380  13.622   9.097  13.712
12181SOL     OW38381   7.762   9.895   0.434
12181SOL    HW138382   7.762   9.941   0.518
12181SOL    HW238383   7.742   9.804   0.455
12182SOL     OW38384  13.245  11.423   5.132
12182SOL    HW138385  13.276  11.486   5.197
12182SOL    HW238386  13.155  11.403   5.159
12183SOL     OW38387   1.228   8.017   7.216
12183SOL    HW138388   1.322   8.007   7.201
12183SOL    HW238389   1.221   8.067   7.297
12184SOL     OW38390  10.807  13.246  11.444
12184SOL    HW138391  10.885  13.298  11.465
12184SOL    HW238392  10.735  13.309  11.443
12185SOL     OW38393  10.760  13.737   5.122
12185SOL    HW138394  10.809  13.675   5.176
12185SOL    HW238395  10.808  13.738   5.038
12186SOL     OW38396   5.500  12.301  14.370
12186SOL    HW138397   5.577  12.245  14.364
12186SOL    HW238398   5.524  12.368  14.435
12187SOL     OW38399  11.515  10.358  10.983
12187SOL    HW138400  11.580  10.329  11.047
12187SOL    HW238401  11.452  10.410  11.033
12188SOL     OW38402  11.943   5.437   0.790
12188SOL    HW138403  11.939   5.521   0.744
12188SOL    HW238404  12.021   5.443   0.845
12189SOL     OW38405  11.337   1.833  12.774
12189SOL    HW138406  11.383   1.915  12.786
12189SOL    HW238407  11.391   1.768  12.817
12190SOL     OW38408   8.122  12.777   2.904
12190SOL    HW138409   8.133  12.866   2.870
12190SOL    HW238410   8.074  12.731   2.836
12191SOL     OW38411   9.585   5.048   9.558
12191SOL    HW138412   9.666   5.096   9.539
12191SOL    HW238413   9.523   5.117   9.584
12192SOL     OW38414   8.096   5.579   2.266
12192SOL    HW138415   8.125   5.635   2.193
12192SOL    HW238416   8.177   5.544   2.303
12193SOL     OW38417   1.775   5.551  12.449
12193SOL    HW138418   1.759   5.457  12.450
12193SOL    HW238419   1.870   5.560  12.461
12194SOL     OW38420   1.247   7.481   1.561
12194SOL    HW138421   1.237   7.488   1.466
12194SOL    HW238422   1.185   7.545   1.596
12195SOL     OW38423   6.882   3.849   2.044
12195SOL    HW138424   6.934   3.925   2.070
12195SOL    HW238425   6.923   3.776   2.090
12196SOL     OW38426  10.792   4.290   5.925
12196SOL    HW138427  10.805   4.384   5.910
12196SOL    HW238428  10.836   4.248   5.851
12197SOL     OW38429   9.549  13.744  14.603
12197SOL    HW138430   9.453  13.746  14.606
12197SOL    HW238431   9.574  13.701  14.684
12198SOL     OW38432  10.379   0.065   2.411
12198SOL    HW138433  10.407   0.084   2.501
12198SOL    HW238434  10.401  14.855   2.398
12199SOL     OW38435  11.273   0.791   0.321
12199SOL    HW138436  11.230   0.870   0.351
12199SOL    HW238437  11.231   0.720   0.371
12200SOL     OW38438   6.184   3.917   8.197
12200SOL    HW138439   6.214   3.892   8.284
12200SOL    HW238440   6.252   3.885   8.138
12201SOL     OW38441   4.276  13.968  11.150
12201SOL    HW138442   4.347  13.920  11.192
12201SOL    HW238443   4.196  13.930  11.187
12202SOL     OW38444  11.329   7.807   3.097
12202SOL    HW138445  11.382   7.885   3.080
12202SOL    HW238446  11.343   7.789   3.190
12203SOL     OW38447  14.498   7.706  11.583
12203SOL    HW138448  14.489   7.731  11.491
12203SOL    HW238449  14.429   7.641  11.598
12204SOL     OW38450   5.618  14.798   9.602
12204SOL    HW138451   5.708  14.780   9.631
12204SOL    HW238452   5.578  14.712   9.594
12205SOL     OW38453   4.435   6.374   7.559
12205SOL    HW138454   4.444   6.447   7.621
12205SOL    HW238455   4.376   6.313   7.602
12206SOL     OW38456  12.904  14.408   6.771
12206SOL    HW138457  12.911  14.466   6.695
12206SOL    HW238458  12.953  14.452   6.840
12207SOL     OW38459   8.591  10.215  11.929
12207SOL    HW138460   8.505  10.255  11.939
12207SOL    HW238461   8.572  10.127  11.895
12208SOL     OW38462   1.304   3.519  11.809
12208SOL    HW138463   1.336   3.457  11.744
12208SOL    HW238464   1.230   3.562  11.766
12209SOL     OW38465  13.185  14.159   2.681
12209SOL    HW138466  13.213  14.094   2.744
12209SOL    HW238467  13.266  14.199   2.649
12210SOL     OW38468   7.860   2.538   4.792
12210SOL    HW138469   7.859   2.485   4.871
12210SOL    HW238470   7.768   2.560   4.777
12211SOL     OW38471   1.382  10.156   0.651
12211SOL    HW138472   1.295  10.196   0.655
12211SOL    HW238473   1.377  10.096   0.576
12212SOL     OW38474   1.820  14.300   4.288
12212SOL    HW138475   1.738  14.258   4.314
12212SOL    HW238476   1.884  14.229   4.287
12213SOL     OW38477   9.804   2.024  12.036
12213SOL    HW138478   9.730   2.079  12.063
12213SOL    HW238479   9.842   2.071  11.962
12214SOL     OW38480   2.532   4.894   4.629
12214SOL    HW138481   2.508   4.859   4.715
12214SOL    HW238482   2.499   4.984   4.630
12215SOL     OW38483  11.367   7.896  12.277
12215SOL    HW138484  11.314   7.856  12.346
12215SOL    HW238485  11.411   7.970  12.320
12216SOL     OW38486   5.346   2.984   7.934
12216SOL    HW138487   5.396   3.018   7.860
12216SOL    HW238488   5.345   2.889   7.920
12217SOL     OW38489   0.145   5.427  14.608
12217SOL    HW138490   0.208   5.499  14.611
12217SOL    HW238491   0.166   5.380  14.528
12218SOL     OW38492  12.801   3.892   1.555
12218SOL    HW138493  12.805   3.886   1.651
12218SOL    HW238494  12.733   3.829   1.530
12219SOL     OW38495  14.769   6.325   8.866
12219SOL    HW138496  14.810   6.380   8.933
12219SOL    HW238497  14.840   6.271   8.832
12220SOL     OW38498   6.033   4.036   7.583
12220SOL    HW138499   6.097   3.973   7.550
12220SOL    HW238500   5.981   3.987   7.647
12221SOL     OW38501   3.866   6.271  13.418
12221SOL    HW138502   3.955   6.306  13.427
12221SOL    HW238503   3.851   6.268  13.323
12222SOL     OW38504   0.791   3.018   7.268
12222SOL    HW138505   0.746   3.076   7.329
12222SOL    HW238506   0.725   2.952   7.245
12223SOL     OW38507  10.847   2.154   5.125
12223SOL    HW138508  10.778   2.162   5.192
12223SOL    HW238509  10.844   2.061   5.100
12224SOL     OW38510   4.028   1.058   3.453
12224SOL    HW138511   4.020   1.096   3.366
12224SOL    HW238512   4.104   1.102   3.491
12225SOL     OW38513   3.671  12.618  12.338
12225SOL    HW138514   3.695  12.526  12.343
12225SOL    HW238515   3.748  12.665  12.371
12226SOL     OW38516   4.413   2.991   7.737
12226SOL    HW138517   4.387   3.042   7.660
12226SOL    HW238518   4.429   2.903   7.704
12227SOL     OW38519   9.315   2.110   8.120
12227SOL    HW138520   9.384   2.136   8.181
12227SOL    HW238521   9.339   2.151   8.037
12228SOL     OW38522   2.926   8.227   4.366
12228SOL    HW138523   2.994   8.222   4.433
12228SOL    HW238524   2.845   8.244   4.414
12229SOL     OW38525  10.270   0.739   1.665
12229SOL    HW138526  10.187   0.691   1.654
12229SOL    HW238527  10.243   0.829   1.681
12230SOL     OW38528   6.328   9.356  12.119
12230SOL    HW138529   6.251   9.312  12.084
12230SOL    HW238530   6.307   9.371  12.212
12231SOL     OW38531   1.140  11.170  13.595
12231SOL    HW138532   1.134  11.161  13.691
12231SOL    HW238533   1.158  11.081  13.564
12232SOL     OW38534  13.004   2.409   2.166
12232SOL    HW138535  12.973   2.319   2.173
12232SOL    HW238536  13.084   2.411   2.218
12233SOL     OW38537   5.936   5.040   2.384
12233SOL    HW138538   5.927   4.946   2.364
12233SOL    HW238539   6.003   5.043   2.452
12234SOL     OW38540  12.110  11.593  14.775
12234SOL    HW138541  12.070  11.508  14.792
12234SOL    HW238542  12.204  11.578  14.785
12235SOL     OW38543  12.132  14.517   3.832
12235SOL    HW138544  12.166  14.429   3.816
12235SOL    HW238545  12.100  14.546   3.746
12236SOL     OW38546  13.660   0.081   4.038
12236SOL    HW138547  13.673   0.070   4.133
12236SOL    HW238548  13.748   0.080   4.002
12237SOL     OW38549  11.849  12.727  12.895
12237SOL    HW138550  11.773  12.693  12.849
12237SOL    HW238551  11.866  12.812  12.854
12238SOL     OW38552  13.998   3.526   9.614
12238SOL    HW138553  14.009   3.486   9.700
12238SOL    HW238554  14.085   3.558   9.591
12239SOL     OW38555   8.542   6.156   6.553
12239SOL    HW138556   8.540   6.250   6.538
12239SOL    HW238557   8.630   6.137   6.585
12240SOL     OW38558   5.067   1.317   1.305
12240SOL    HW138559   5.138   1.332   1.368
12240SOL    HW238560   5.009   1.392   1.316
12241SOL     OW38561   7.007   4.771   0.531
12241SOL    HW138562   6.931   4.780   0.588
12241SOL    HW238563   7.075   4.822   0.575
12242SOL     OW38564   4.437   0.012   5.441
12242SOL    HW138565   4.476   0.029   5.355
12242SOL    HW238566   4.443   0.096   5.486
12243SOL     OW38567   5.163  11.329   7.553
12243SOL    HW138568   5.106  11.254   7.570
12243SOL    HW238569   5.124  11.373   7.478
12244SOL     OW38570   6.034  11.722   5.195
12244SOL    HW138571   6.045  11.703   5.102
12244SOL    HW238572   6.076  11.807   5.208
12245SOL     OW38573  13.217   7.897   4.472
12245SOL    HW138574  13.186   7.970   4.526
12245SOL    HW238575  13.230   7.825   4.534
12246SOL     OW38576  12.660   5.795   5.267
12246SOL    HW138577  12.680   5.864   5.331
12246SOL    HW238578  12.735   5.796   5.207
12247SOL     OW38579  11.099   1.753   4.953
12247SOL    HW138580  11.118   1.708   5.035
12247SOL    HW238581  11.173   1.812   4.940
12248SOL     OW38582  10.367   2.130   7.535
12248SOL    HW138583  10.296   2.107   7.475
12248SOL    HW238584  10.437   2.162   7.478
12249SOL     OW38585   2.486  10.362   0.292
12249SOL    HW138586   2.505  10.421   0.365
12249SOL    HW238587   2.434  10.416   0.231
12250SOL     OW38588   1.542  12.206   2.554
12250SOL    HW138589   1.594  12.284   2.534
12250SOL    HW238590   1.462  12.217   2.503
12251SOL     OW38591   4.568   6.342  13.160
12251SOL    HW138592   4.532   6.404  13.096
12251SOL    HW238593   4.492   6.314  13.211
12252SOL     OW38594   3.012   4.308  11.484
12252SOL    HW138595   2.987   4.401  11.489
12252SOL    HW238596   2.958   4.272  11.414
12253SOL     OW38597   5.218   8.173   1.324
12253SOL    HW138598   5.233   8.130   1.240
12253SOL    HW238599   5.122   8.180   1.330
12254SOL     OW38600  13.484   9.726   9.908
12254SOL    HW138601  13.411   9.706   9.849
12254SOL    HW238602  13.443   9.769   9.983
12255SOL     OW38603   7.822  11.813   5.179
12255SOL    HW138604   7.805  11.841   5.269
12255SOL    HW238605   7.767  11.871   5.126
12256SOL     OW38606   9.015   1.789  10.940
12256SOL    HW138607   8.922   1.805  10.923
12256SOL    HW238608   9.043   1.737  10.865
12257SOL     OW38609   2.488   9.952  11.011
12257SOL    HW138610   2.395   9.936  11.000
12257SOL    HW238611   2.507   9.921  11.099
12258SOL     OW38612  11.197   4.599   6.043
12258SOL    HW138613  11.264   4.663   6.066
12258SOL    HW238614  11.242   4.515   6.049
12259SOL     OW38615   9.252  14.666   7.582
12259SOL    HW138616   9.218  14.756   7.581
12259SOL    HW238617   9.183  14.613   7.542
12260SOL     OW38618  10.837   6.582  13.257
12260SOL    HW138619  10.758   6.636  13.252
12260SOL    HW238620  10.890   6.625  13.325
12261SOL     OW38621  14.826   0.585   6.885
12261SOL    HW138622  14.747   0.587   6.830
12261SOL    HW238623  14.794   0.563   6.972
12262SOL     OW38624  13.627   8.313  12.446
12262SOL    HW138625  13.596   8.343  12.361
12262SOL    HW238626  13.609   8.219  12.447
12263SOL     OW38627   6.036   3.356  13.886
12263SOL    HW138628   6.110   3.304  13.853
12263SOL    HW238629   6.001   3.400  13.809
12264SOL     OW38630   8.595  12.795  10.493
12264SOL    HW138631   8.535  12.721  10.490
12264SOL    HW238632   8.670  12.768  10.439
12265SOL     OW38633  12.438   6.893   0.847
12265SOL    HW138634  12.413   6.985   0.841
12265SOL    HW238635  12.355   6.846   0.859
12266SOL     OW38636  13.746   4.722   5.864
12266SOL    HW138637  13.704   4.678   5.791
12266SOL    HW238638  13.819   4.770   5.824
12267SOL     OW38639   1.885  12.068   9.341
12267SOL    HW138640   1.967  12.021   9.354
12267SOL    HW238641   1.896  12.150   9.390
12268SOL     OW38642   7.368   7.448   8.156
12268SOL    HW138643   7.396   7.510   8.224
12268SOL    HW238644   7.285   7.414   8.187
12269SOL     OW38645   9.657   3.883   6.082
12269SOL    HW138646   9.577   3.898   6.133
12269SOL    HW238647   9.684   3.794   6.104
12270SOL     OW38648   3.259  10.895  13.846
12270SOL    HW138649   3.273  10.983  13.810
12270SOL    HW238650   3.244  10.840  13.769
12271SOL     OW38651   1.070   6.753   8.417
12271SOL    HW138652   1.000   6.721   8.473
12271SOL    HW238653   1.032   6.829   8.371
12272SOL     OW38654   8.683  13.362   2.483
12272SOL    HW138655   8.603  13.408   2.459
12272SOL    HW238656   8.687  13.368   2.578
12273SOL     OW38657   9.655   8.684  11.195
12273SOL    HW138658   9.609   8.766  11.177
12273SOL    HW238659   9.731   8.686  11.136
12274SOL     OW38660   3.570  12.504   6.504
12274SOL    HW138661   3.651  12.519   6.551
12274SOL    HW238662   3.540  12.418   6.532
12275SOL     OW38663   1.280   4.633   8.432
12275SOL    HW138664   1.313   4.553   8.473
12275SOL    HW238665   1.357   4.670   8.388
12276SOL     OW38666   0.798   7.086   4.987
12276SOL    HW138667   0.714   7.129   4.970
12276SOL    HW238668   0.864   7.149   4.960
12277SOL     OW38669   8.304  14.765  11.570
12277SOL    HW138670   8.396  14.780  11.550
12277SOL    HW238671   8.257  14.816  11.504
12278SOL     OW38672   4.829  12.870   4.673
12278SOL    HW138673   4.824  12.877   4.768
12278SOL    HW238674   4.904  12.812   4.657
12279SOL     OW38675  10.970  12.593   3.649
12279SOL    HW138676  11.008  12.645   3.579
12279SOL    HW238677  11.022  12.616   3.727
12280SOL     OW38678  12.772  11.663  12.254
12280SOL    HW138679  12.734  11.659  12.167
12280SOL    HW238680  12.865  11.680  12.239
12281SOL     OW38681   7.142   3.540  13.461
12281SOL    HW138682   7.100   3.558  13.545
12281SOL    HW238683   7.182   3.623  13.436
12282SOL     OW38684   2.531   5.315   2.139
12282SOL    HW138685   2.462   5.377   2.115
12282SOL    HW238686   2.590   5.314   2.063
12283SOL     OW38687   9.600   5.727  14.423
12283SOL    HW138688   9.664   5.657  14.437
12283SOL    HW238689   9.542   5.694  14.355
12284SOL     OW38690  13.161   7.613  13.988
12284SOL    HW138691  13.115   7.694  13.967
12284SOL    HW238692  13.157   7.561  13.908
12285SOL     OW38693  10.271   7.025   4.251
12285SOL    HW138694  10.332   7.071   4.310
12285SOL    HW238695  10.303   6.935   4.249
12286SOL     OW38696   6.702  14.274  10.338
12286SOL    HW138697   6.764  14.281  10.266
12286SOL    HW238698   6.740  14.207  10.396
12287SOL     OW38699   6.229   3.581   8.724
12287SOL    HW138700   6.148   3.632   8.731
12287SOL    HW238701   6.219   3.531   8.644
12288SOL     OW38702   9.322   3.874   3.515
12288SOL    HW138703   9.234   3.840   3.500
12288SOL    HW238704   9.347   3.841   3.601
12289SOL     OW38705   2.634   2.954   2.739
12289SOL    HW138706   2.576   2.902   2.794
12289SOL    HW238707   2.630   3.042   2.776
12290SOL     OW38708   9.133   9.584  14.065
12290SOL    HW138709   9.173   9.497  14.072
12290SOL    HW238710   9.131   9.616  14.155
12291SOL     OW38711   7.154  10.987   8.986
12291SOL    HW138712   7.233  10.934   9.000
12291SOL    HW238713   7.148  11.041   9.065
12292SOL     OW38714   0.466  11.800   1.581
12292SOL    HW138715   0.532  11.868   1.567
12292SOL    HW238716   0.471  11.746   1.502
12293SOL     OW38717   8.426  12.089   0.584
12293SOL    HW138718   8.467  12.151   0.524
12293SOL    HW238719   8.336  12.081   0.553
12294SOL     OW38720  14.389  12.368   0.233
12294SOL    HW138721  14.379  12.276   0.209
12294SOL    HW238722  14.454  12.402   0.172
12295SOL     OW38723   8.562   2.402   3.345
12295SOL    HW138724   8.559   2.317   3.300
12295SOL    HW238725   8.524   2.385   3.431
12296SOL     OW38726   4.475  10.292   7.480
12296SOL    HW138727   4.431  10.207   7.478
12296SOL    HW238728   4.568  10.271   7.466
12297SOL     OW38729   2.378  13.895   9.369
12297SOL    HW138730   2.386  13.842   9.448
12297SOL    HW238731   2.284  13.898   9.351
12298SOL     OW38732   3.692   3.032  13.689
12298SOL    HW138733   3.777   2.989  13.678
12298SOL    HW238734   3.635   2.989  13.625
12299SOL     OW38735   0.541   9.002  12.655
12299SOL    HW138736   0.464   8.947  12.673
12299SOL    HW238737   0.603   8.942  12.613
12300SOL     OW38738  10.547  12.354   4.343
12300SOL    HW138739  10.501  12.430   4.378
12300SOL    HW238740  10.617  12.390   4.289
12301SOL     OW38741   5.315   3.426  12.696
12301SOL    HW138742   5.264   3.490  12.747
12301SOL    HW238743   5.375   3.479  12.645
12302SOL     OW38744  10.478   7.947   8.519
12302SOL    HW138745  10.462   7.854   8.507
12302SOL    HW238746  10.534   7.952   8.596
12303SOL     OW38747   7.399   0.044   8.849
12303SOL    HW138748   7.348   0.065   8.771
12303SOL    HW238749   7.437   0.128   8.876
12304SOL     OW38750   1.442  11.202   6.404
12304SOL    HW138751   1.494  11.247   6.337
12304SOL    HW238752   1.385  11.270   6.440
12305SOL     OW38753   4.505  11.409   8.811
12305SOL    HW138754   4.483  11.318   8.791
12305SOL    HW238755   4.480  11.458   8.733
12306SOL     OW38756   5.406   5.104   2.014
12306SOL    HW138757   5.336   5.050   2.051
12306SOL    HW238758   5.442   5.051   1.943
12307SOL     OW38759  13.875   8.459   6.679
12307SOL    HW138760  13.799   8.490   6.630
12307SOL    HW238761  13.948   8.470   6.619
12308SOL     OW38762   1.729   6.678   1.244
12308SOL    HW138763   1.801   6.736   1.216
12308SOL    HW238764   1.764   6.632   1.320
12309SOL     OW38765   4.757   1.608   1.899
12309SOL    HW138766   4.822   1.665   1.858
12309SOL    HW238767   4.808   1.534   1.931
12310SOL     OW38768   9.984   5.385   1.733
12310SOL    HW138769   9.928   5.411   1.660
12310SOL    HW238770  10.068   5.362   1.692
12311SOL     OW38771  12.161  11.882  10.168
12311SOL    HW138772  12.219  11.930  10.227
12311SOL    HW238773  12.160  11.935  10.088
12312SOL     OW38774   5.780   0.839   8.987
12312SOL    HW138775   5.768   0.749   8.956
12312SOL    HW238776   5.741   0.893   8.918
12313SOL     OW38777   3.888   9.247  13.125
12313SOL    HW138778   3.928   9.310  13.185
12313SOL    HW238779   3.848   9.181  13.182
12314SOL     OW38780  12.244   2.918  12.662
12314SOL    HW138781  12.249   2.829  12.695
12314SOL    HW238782  12.223   2.971  12.738
12315SOL     OW38783   7.708  10.589   4.369
12315SOL    HW138784   7.684  10.682   4.378
12315SOL    HW238785   7.801  10.586   4.389
12316SOL     OW38786  12.364  12.752   2.041
12316SOL    HW138787  12.402  12.677   2.087
12316SOL    HW238788  12.437  12.791   1.994
12317SOL     OW38789  11.640  13.879   5.184
12317SOL    HW138790  11.681  13.964   5.169
12317SOL    HW238791  11.711  13.822   5.212
12318SOL     OW38792   5.011  14.281   0.137
12318SOL    HW138793   5.092  14.245   0.102
12318SOL    HW238794   4.950  14.279   0.064
12319SOL     OW38795  11.285  11.881   3.481
12319SOL    HW138796  11.346  11.907   3.412
12319SOL    HW238797  11.217  11.949   3.480
12320SOL     OW38798   6.501  10.692  11.532
12320SOL    HW138799   6.460  10.692  11.446
12320SOL    HW238800   6.428  10.696  11.594
12321SOL     OW38801   0.477   8.384   8.939
12321SOL    HW138802   0.417   8.317   8.908
12321SOL    HW238803   0.564   8.349   8.921
12322SOL     OW38804  12.264   6.948   3.990
12322SOL    HW138805  12.283   6.971   3.899
12322SOL    HW238806  12.179   6.989   4.008
12323SOL     OW38807   8.258   3.816  10.953
12323SOL    HW138808   8.329   3.872  10.983
12323SOL    HW238809   8.301   3.748  10.902
12324SOL     OW38810   9.330   2.288   2.777
12324SOL    HW138811   9.393   2.292   2.849
12324SOL    HW238812   9.314   2.194   2.764
12325SOL     OW38813  13.099  13.822   0.190
12325SOL    HW138814  13.007  13.818   0.164
12325SOL    HW238815  13.119  13.734   0.222
12326SOL     OW38816   1.525   1.341   2.364
12326SOL    HW138817   1.572   1.396   2.426
12326SOL    HW238818   1.584   1.267   2.348
12327SOL     OW38819   7.858   5.631   7.233
12327SOL    HW138820   7.790   5.664   7.292
12327SOL    HW238821   7.858   5.691   7.159
12328SOL     OW38822  13.101  10.247  11.585
12328SOL    HW138823  13.088  10.154  11.567
12328SOL    HW238824  13.079  10.290  11.503
12329SOL     OW38825   2.938   1.568  10.398
12329SOL    HW138826   2.981   1.653  10.405
12329SOL    HW238827   2.857   1.587  10.349
12330SOL     OW38828   6.524   2.043   5.386
12330SOL    HW138829   6.614   2.012   5.371
12330SOL    HW238830   6.474   1.963   5.402
12331SOL     OW38831   7.850  14.150   1.053
12331SOL    HW138832   7.826  14.243   1.051
12331SOL    HW238833   7.789  14.111   1.115
12332SOL     OW38834  11.253  13.965   1.856
12332SOL    HW138835  11.320  13.920   1.907
12332SOL    HW238836  11.197  14.007   1.921
12333SOL     OW38837   7.045  13.604   3.452
12333SOL    HW138838   7.087  13.525   3.416
12333SOL    HW238839   7.102  13.676   3.423
12334SOL     OW38840  13.192  14.666  14.455
12334SOL    HW138841  13.195  14.635  14.365
12334SOL    HW238842  13.229  14.754  14.452
12335SOL     OW38843  10.880   2.775   6.315
12335SOL    HW138844  10.895   2.779   6.409
12335SOL    HW238845  10.881   2.866   6.286
12336SOL     OW38846   2.855   6.674   5.732
12336SOL    HW138847   2.770   6.695   5.695
12336SOL    HW238848   2.866   6.580   5.716
12337SOL     OW38849   0.262   0.820   7.582
12337SOL    HW138850   0.335   0.842   7.638
12337SOL    HW238851   0.280   0.865   7.499
12338SOL     OW38852   3.681   0.086   5.729
12338SOL    HW138853   3.732   0.006   5.715
12338SOL    HW238854   3.718   0.125   5.808
12339SOL     OW38855   6.501   9.944   0.710
12339SOL    HW138856   6.561  10.000   0.760
12339SOL    HW238857   6.490   9.989   0.627
12340SOL     OW38858   1.896  14.259   9.419
12340SOL    HW138859   1.898  14.169   9.386
12340SOL    HW238860   1.974  14.300   9.382
12341SOL     OW38861  11.950   9.693   5.904
12341SOL    HW138862  12.016   9.744   5.952
12341SOL    HW238863  12.001   9.643   5.840
12342SOL     OW38864   1.143   1.115   5.438
12342SOL    HW138865   1.090   1.041   5.466
12342SOL    HW238866   1.225   1.075   5.408
12343SOL     OW38867   7.911  14.767   6.087
12343SOL    HW138868   7.820  14.737   6.075
12343SOL    HW238869   7.961  14.686   6.097
12344SOL     OW38870   7.027   0.982   3.765
12344SOL    HW138871   7.118   1.000   3.741
12344SOL    HW238872   6.982   1.066   3.753
12345SOL     OW38873   5.795   6.755   5.465
12345SOL    HW138874   5.723   6.807   5.429
12345SOL    HW238875   5.752   6.686   5.515
12346SOL     OW38876   8.243   5.567   9.928
12346SOL    HW138877   8.267   5.618  10.005
12346SOL    HW238878   8.303   5.493   9.928
12347SOL     OW38879   9.405   6.267   6.625
12347SOL    HW138880   9.371   6.222   6.548
12347SOL    HW238881   9.374   6.214   6.699
12348SOL     OW38882   0.199   0.800  13.548
12348SOL    HW138883   0.109   0.796  13.580
12348SOL    HW238884   0.227   0.709  13.542
12349SOL     OW38885   2.467   5.512   9.468
12349SOL    HW138886   2.435   5.539   9.382
12349SOL    HW238887   2.391   5.519   9.525
12350SOL     OW38888  10.955   7.773   2.436
12350SOL    HW138889  10.911   7.809   2.512
12350SOL    HW238890  11.036   7.824   2.428
12351SOL     OW38891  11.449   8.284   1.948
12351SOL    HW138892  11.421   8.332   1.870
12351SOL    HW238893  11.493   8.207   1.914
12352SOL     OW38894  12.331   6.098   3.926
12352SOL    HW138895  12.339   6.071   4.018
12352SOL    HW238896  12.365   6.024   3.876
12353SOL     OW38897  14.811   3.933   7.192
12353SOL    HW138898  14.759   3.957   7.115
12353SOL    HW238899  14.752   3.946   7.266
12354SOL     OW38900   2.432  11.024  11.462
12354SOL    HW138901   2.419  10.949  11.520
12354SOL    HW238902   2.395  10.995  11.378
12355SOL     OW38903  12.578  12.993   3.645
12355SOL    HW138904  12.504  13.000   3.584
12355SOL    HW238905  12.644  12.944   3.597
12356SOL     OW38906   7.468   5.938   6.453
12356SOL    HW138907   7.382   5.901   6.434
12356SOL    HW238908   7.527   5.892   6.393
12357SOL     OW38909   9.665  14.764   4.355
12357SOL    HW138910   9.750  14.783   4.316
12357SOL    HW238911   9.611  14.839   4.333
12358SOL     OW38912   3.925   0.020  10.575
12358SOL    HW138913   3.957   0.110  10.569
12358SOL    HW238914   3.842   0.020  10.527
12359SOL     OW38915   4.310  10.810   0.801
12359SOL    HW138916   4.275  10.728   0.768
12359SOL    HW238917   4.400  10.814   0.767
12360SOL     OW38918  11.919   3.324   2.017
12360SOL    HW138919  11.932   3.254   2.080
12360SOL    HW238920  11.897   3.401   2.070
12361SOL     OW38921   8.590  10.468   9.478
12361SOL    HW138922   8.502  10.431   9.463
12361SOL    HW238923   8.626  10.479   9.390
12362SOL     OW38924  10.524   8.053  12.659
12362SOL    HW138925  10.452   8.044  12.721
12362SOL    HW238926  10.601   8.027  12.709
12363SOL     OW38927   5.146  12.250   6.254
12363SOL    HW138928   5.078  12.244   6.321
12363SOL    HW238929   5.107  12.210   6.177
12364SOL     OW38930   6.416   0.088   5.625
12364SOL    HW138931   6.494   0.038   5.601
12364SOL    HW238932   6.421   0.168   5.573
12365SOL     OW38933   2.308  10.513  11.203
12365SOL    HW138934   2.244  10.489  11.137
12365SOL    HW238935   2.330  10.430  11.246
12366SOL     OW38936   7.415  12.443   3.300
12366SOL    HW138937   7.508  12.423   3.294
12366SOL    HW238938   7.385  12.398   3.379
12367SOL     OW38939  12.749   3.227  11.692
12367SOL    HW138940  12.663   3.268  11.696
12367SOL    HW238941  12.733   3.141  11.652
12368SOL     OW38942   4.743  12.419   2.186
12368SOL    HW138943   4.754  12.365   2.108
12368SOL    HW238944   4.661  12.387   2.225
12369SOL     OW38945   8.122   7.510  11.462
12369SOL    HW138946   8.110   7.454  11.385
12369SOL    HW238947   8.043   7.497  11.514
12370SOL     OW38948   9.423   1.674   7.147
12370SOL    HW138949   9.498   1.618   7.127
12370SOL    HW238950   9.380   1.631   7.221
12371SOL     OW38951   9.114  13.468   7.356
12371SOL    HW138952   9.020  13.466   7.335
12371SOL    HW238953   9.124  13.546   7.410
12372SOL     OW38954   3.797  13.736   1.069
12372SOL    HW138955   3.759  13.805   1.015
12372SOL    HW238956   3.887  13.729   1.040
12373SOL     OW38957   4.323  11.151  12.253
12373SOL    HW138958   4.303  11.100  12.332
12373SOL    HW238959   4.238  11.176  12.218
12374SOL     OW38960  10.769   2.751  12.416
12374SOL    HW138961  10.703   2.736  12.349
12374SOL    HW238962  10.833   2.681  12.404
12375SOL     OW38963   5.736   5.021  12.265
12375SOL    HW138964   5.645   5.042  12.285
12375SOL    HW238965   5.760   5.081  12.194
12376SOL     OW38966   1.174   9.142   2.903
12376SOL    HW138967   1.082   9.122   2.882
12376SOL    HW238968   1.202   9.199   2.831
12377SOL     OW38969   7.798   1.427  11.555
12377SOL    HW138970   7.727   1.476  11.513
12377SOL    HW238971   7.838   1.378  11.484
12378SOL     OW38972   0.751  11.969   0.394
12378SOL    HW138973   0.681  12.032   0.409
12378SOL    HW238974   0.812  12.015   0.336
12379SOL     OW38975  12.341  12.074   7.910
12379SOL    HW138976  12.348  12.066   8.006
12379SOL    HW238977  12.411  12.134   7.886
12380SOL     OW38978   2.401   1.352  11.736
12380SOL    HW138979   2.488   1.366  11.700
12380SOL    HW238980   2.342   1.380  11.666
12381SOL     OW38981  11.167   1.915   8.943
12381SOL    HW138982  11.145   1.847   9.006
12381SOL    HW238983  11.225   1.974   8.991
12382SOL     OW38984   3.592  13.550  10.271
12382SOL    HW138985   3.661  13.615  10.280
12382SOL    HW238986   3.613  13.504  10.190
12383SOL     OW38987   0.578  10.837  14.328
12383SOL    HW138988   0.634  10.806  14.400
12383SOL    HW238989   0.490  10.839  14.366
12384SOL     OW38990   6.366   6.139   7.861
12384SOL    HW138991   6.329   6.226   7.846
12384SOL    HW238992   6.290   6.084   7.883
12385SOL     OW38993   7.437   8.954   9.202
12385SOL    HW138994   7.423   9.047   9.216
12385SOL    HW238995   7.454   8.946   9.109
12386SOL     OW38996   8.874   0.331   6.297
12386SOL    HW138997   8.890   0.255   6.353
12386SOL    HW238998   8.813   0.385   6.348
12387SOL     OW38999   2.437   8.437   2.516
12387SOL    HW139000   2.349   8.429   2.481
12387SOL    HW239001   2.469   8.347   2.524
12388SOL     OW39002   0.034   8.860   7.989
12388SOL    HW139003   0.040   8.827   7.900
12388SOL    HW239004   0.095   8.805   8.039
12389SOL     OW39005   2.644  11.265   0.998
12389SOL    HW139006   2.664  11.295   1.087
12389SOL    HW239007   2.579  11.328   0.965
12390SOL     OW39008  10.849   9.890  10.360
12390SOL    HW139009  10.937   9.857  10.347
12390SOL    HW239010  10.795   9.812  10.369
12391SOL     OW39011   5.058   5.206   3.127
12391SOL    HW139012   5.112   5.130   3.107
12391SOL    HW239013   5.118   5.281   3.118
12392SOL     OW39014   1.823   2.104  14.043
12392SOL    HW139015   1.892   2.155  14.085
12392SOL    HW239016   1.741   2.148  14.067
12393SOL     OW39017  13.535   5.591   4.340
12393SOL    HW139018  13.577   5.661   4.391
12393SOL    HW239019  13.531   5.517   4.401
12394SOL     OW39020  13.709   2.226   2.182
12394SOL    HW139021  13.641   2.274   2.135
12394SOL    HW239022  13.791   2.250   2.137
12395SOL     OW39023   5.490   7.484  10.010
12395SOL    HW139024   5.506   7.578  10.018
12395SOL    HW239025   5.557   7.454   9.948
12396SOL     OW39026  10.786   5.230  14.732
12396SOL    HW139027  10.771   5.324  14.744
12396SOL    HW239028  10.837   5.225  14.651
12397SOL     OW39029   2.182   3.835   8.258
12397SOL    HW139030   2.119   3.773   8.294
12397SOL    HW239031   2.237   3.859   8.333
12398SOL     OW39032   8.401   0.440  10.732
12398SOL    HW139033   8.325   0.424  10.675
12398SOL    HW239034   8.383   0.389  10.811
12399SOL     OW39035   6.169   6.690   7.046
12399SOL    HW139036   6.164   6.728   7.134
12399SOL    HW239037   6.202   6.602   7.060
12400SOL     OW39038   1.650  11.385   1.500
12400SOL    HW139039   1.737  11.417   1.475
12400SOL    HW239040   1.645  11.298   1.460
12401SOL     OW39041   5.179   6.198   9.380
12401SOL    HW139042   5.222   6.143   9.314
12401SOL    HW239043   5.102   6.234   9.336
12402SOL     OW39044   6.592   8.069  14.498
12402SOL    HW139045   6.513   8.069  14.553
12402SOL    HW239046   6.645   8.140  14.533
12403SOL     OW39047   3.856  12.362   3.493
12403SOL    HW139048   3.829  12.346   3.403
12403SOL    HW239049   3.939  12.314   3.502
12404SOL     OW39050  10.959  10.976   9.671
12404SOL    HW139051  10.953  11.004   9.762
12404SOL    HW239052  10.928  11.052   9.621
12405SOL     OW39053   6.013   9.224  11.134
12405SOL    HW139054   5.949   9.252  11.068
12405SOL    HW239055   5.964   9.227  11.217
12406SOL     OW39056  11.160   1.077   9.665
12406SOL    HW139057  11.198   1.042   9.745
12406SOL    HW239058  11.225   1.059   9.597
12407SOL     OW39059   2.270   3.621   9.931
12407SOL    HW139060   2.223   3.573   9.999
12407SOL    HW239061   2.203   3.676   9.890
12408SOL     OW39062   0.856   7.551   1.964
12408SOL    HW139063   0.887   7.523   1.877
12408SOL    HW239064   0.921   7.614   1.994
12409SOL     OW39065  11.702  11.992   7.370
12409SOL    HW139066  11.773  12.042   7.327
12409SOL    HW239067  11.673  12.049   7.441
12410SOL     OW39068   7.622   0.949  14.273
12410SOL    HW139069   7.644   0.857  14.280
12410SOL    HW239070   7.621   0.981  14.363
12411SOL     OW39071   6.239  13.084   0.020
12411SOL    HW139072   6.300  13.089   0.094
12411SOL    HW239073   6.178  13.156   0.034
12412SOL     OW39074   6.467   8.365  14.497
12412SOL    HW139075   6.423   8.320  14.425
12412SOL    HW239076   6.439   8.318  14.576
12413SOL     OW39077   0.174   7.044  13.452
12413SOL    HW139078   0.193   7.138  13.460
12413SOL    HW239079   0.092   7.041  13.402
12414SOL     OW39080  14.325  11.528  14.464
12414SOL    HW139081  14.402  11.538  14.409
12414SOL    HW239082  14.311  11.615  14.501
12415SOL     OW39083  12.603   3.190   2.906
12415SOL    HW139084  12.679   3.223   2.955
12415SOL    HW239085  12.592   3.100   2.938
12416SOL     OW39086  11.621   7.109   8.482
12416SOL    HW139087  11.646   7.016   8.482
12416SOL    HW239088  11.525   7.107   8.483
12417SOL     OW39089   9.519   3.026   8.869
12417SOL    HW139090   9.520   3.086   8.795
12417SOL    HW239091   9.444   3.055   8.922
12418SOL     OW39092   1.270  11.293   5.686
12418SOL    HW139093   1.209  11.317   5.616
12418SOL    HW239094   1.321  11.221   5.650
12419SOL     OW39095  10.515   2.360   5.003
12419SOL    HW139096  10.523   2.409   4.921
12419SOL    HW239097  10.596   2.380   5.050
12420SOL     OW39098   1.248  12.700   7.695
12420SOL    HW139099   1.294  12.617   7.699
12420SOL    HW239100   1.293  12.755   7.759
12421SOL     OW39101   4.120   1.784   1.006
12421SOL    HW139102   4.033   1.818   1.030
12421SOL    HW239103   4.148   1.841   0.934
12422SOL     OW39104  12.883   3.221  10.752
12422SOL    HW139105  12.844   3.253  10.671
12422SOL    HW239106  12.811   3.177  10.798
12423SOL     OW39107  14.542   9.100  11.106
12423SOL    HW139108  14.474   9.075  11.043
12423SOL    HW239109  14.608   9.145  11.053
12424SOL     OW39110   9.496  13.080   0.813
12424SOL    HW139111   9.572  13.042   0.768
12424SOL    HW239112   9.525  13.169   0.835
12425SOL     OW39113  10.252  10.796   1.334
12425SOL    HW139114  10.268  10.867   1.273
12425SOL    HW239115  10.158  10.778   1.326
12426SOL     OW39116   7.371  10.592   3.636
12426SOL    HW139117   7.349  10.649   3.563
12426SOL    HW239118   7.461  10.613   3.658
12427SOL     OW39119  12.437   6.696   8.394
12427SOL    HW139120  12.479   6.612   8.373
12427SOL    HW239121  12.504   6.744   8.443
12428SOL     OW39122  10.345   7.587  11.045
12428SOL    HW139123  10.271   7.598  11.105
12428SOL    HW239124  10.377   7.676  11.030
12429SOL     OW39125   7.129   5.604   0.156
12429SOL    HW139126   7.088   5.621   0.072
12429SOL    HW239127   7.211   5.559   0.135
12430SOL     OW39128   6.330   4.309   5.911
12430SOL    HW139129   6.399   4.308   5.845
12430SOL    HW239130   6.286   4.225   5.900
12431SOL     OW39131  11.213   9.918   2.416
12431SOL    HW139132  11.242   9.938   2.505
12431SOL    HW239133  11.135   9.971   2.404
12432SOL     OW39134   9.280  11.482   6.211
12432SOL    HW139135   9.283  11.573   6.240
12432SOL    HW239136   9.371  11.459   6.195
12433SOL     OW39137  11.720   8.696   9.034
12433SOL    HW139138  11.772   8.750   9.093
12433SOL    HW239139  11.646   8.751   9.011
12434SOL     OW39140  12.973   9.801  13.263
12434SOL    HW139141  13.029   9.828  13.336
12434SOL    HW239142  12.884   9.826  13.290
12435SOL     OW39143  10.704  12.717  11.351
12435SOL    HW139144  10.656  12.729  11.433
12435SOL    HW239145  10.649  12.657  11.300
12436SOL     OW39146  12.663   1.798  11.895
12436SOL    HW139147  12.727   1.727  11.887
12436SOL    HW239148  12.704   1.871  11.849
12437SOL     OW39149   9.409   6.231  12.779
12437SOL    HW139150   9.439   6.146  12.811
12437SOL    HW239151   9.452   6.242  12.694
12438SOL     OW39152   6.521   9.716   4.340
12438SOL    HW139153   6.528   9.635   4.392
12438SOL    HW239154   6.610   9.749   4.336
12439SOL     OW39155  14.528  14.510   9.485
12439SOL    HW139156  14.481  14.585   9.449
12439SOL    HW239157  14.505  14.509   9.578
12440SOL     OW39158  11.496   7.319  13.946
12440SOL    HW139159  11.530   7.256  13.883
12440SOL    HW239160  11.522   7.284  14.031
12441SOL     OW39161   2.005  12.008   5.222
12441SOL    HW139162   2.088  11.988   5.267
12441SOL    HW239163   1.942  12.020   5.293
12442SOL     OW39164   5.165  13.572   1.344
12442SOL    HW139165   5.251  13.575   1.386
12442SOL    HW239166   5.112  13.519   1.404
12443SOL     OW39167   7.474   8.891   3.632
12443SOL    HW139168   7.392   8.874   3.585
12443SOL    HW239169   7.482   8.986   3.633
12444SOL     OW39170  12.339  11.527   7.701
12444SOL    HW139171  12.343  11.616   7.665
12444SOL    HW239172  12.379  11.534   7.787
12445SOL     OW39173   3.150  11.310   2.428
12445SOL    HW139174   3.086  11.337   2.363
12445SOL    HW239175   3.182  11.393   2.465
12446SOL     OW39176   9.084  12.812   1.744
12446SOL    HW139177   9.122  12.786   1.828
12446SOL    HW239178   9.140  12.770   1.679
12447SOL     OW39179  11.291   2.364   0.571
12447SOL    HW139180  11.264   2.286   0.619
12447SOL    HW239181  11.238   2.435   0.608
12448SOL     OW39182  14.398   4.240  12.962
12448SOL    HW139183  14.432   4.277  13.044
12448SOL    HW239184  14.349   4.162  12.990
12449SOL     OW39185   1.196   6.580   2.694
12449SOL    HW139186   1.242   6.595   2.611
12449SOL    HW239187   1.110   6.548   2.669
12450SOL     OW39188   3.618   3.062   0.594
12450SOL    HW139189   3.692   3.103   0.549
12450SOL    HW239190   3.590   2.993   0.534
12451SOL     OW39191   5.212   6.748  14.622
12451SOL    HW139192   5.144   6.737  14.688
12451SOL    HW239193   5.294   6.732  14.669
12452SOL     OW39194   0.708   5.863  11.957
12452SOL    HW139195   0.750   5.781  11.984
12452SOL    HW239196   0.763   5.932  11.993
12453SOL     OW39197   4.707   0.012   0.599
12453SOL    HW139198   4.708   0.107   0.608
12453SOL    HW239199   4.742  14.861   0.681
12454SOL     OW39200  13.488   5.274   0.092
12454SOL    HW139201  13.408   5.324   0.074
12454SOL    HW239202  13.555   5.341   0.106
12455SOL     OW39203  14.494   2.308  11.087
12455SOL    HW139204  14.458   2.238  11.034
12455SOL    HW239205  14.490   2.386  11.031
12456SOL     OW39206   2.848   2.325   3.596
12456SOL    HW139207   2.910   2.253   3.612
12456SOL    HW239208   2.867   2.388   3.666
12457SOL     OW39209   0.815   9.207   4.917
12457SOL    HW139210   0.846   9.120   4.892
12457SOL    HW239211   0.832   9.213   5.011
12458SOL     OW39212   6.647   9.592  14.576
12458SOL    HW139213   6.709   9.638  14.519
12458SOL    HW239214   6.674   9.615  14.665
12459SOL     OW39215  14.044   6.807   2.156
12459SOL    HW139216  14.054   6.893   2.114
12459SOL    HW239217  14.114   6.753   2.118
12460SOL     OW39218  12.846   3.810   3.577
12460SOL    HW139219  12.909   3.802   3.505
12460SOL    HW239220  12.899   3.836   3.652
12461SOL     OW39221  11.047   6.187  11.075
12461SOL    HW139222  11.053   6.135  11.155
12461SOL    HW239223  11.044   6.277  11.106
12462SOL     OW39224   3.631   4.031   3.722
12462SOL    HW139225   3.609   4.016   3.630
12462SOL    HW239226   3.606   4.122   3.737
12463SOL     OW39227   7.994   7.197   8.482
12463SOL    HW139228   7.998   7.105   8.506
12463SOL    HW239229   7.954   7.197   8.395
12464SOL     OW39230  10.043  10.218   5.631
12464SOL    HW139231  10.132  10.242   5.655
12464SOL    HW239232   9.989  10.291   5.660
12465SOL     OW39233  13.277   1.873  13.019
12465SOL    HW139234  13.266   1.784  13.053
12465SOL    HW239235  13.275   1.864  12.924
12466SOL     OW39236   0.074   6.901   7.215
12466SOL    HW139237   0.101   6.927   7.303
12466SOL    HW239238   0.009   6.833   7.229
12467SOL     OW39239   3.830   6.205  14.781
12467SOL    HW139240   3.836   6.111  14.763
12467SOL    HW239241   3.738   6.227  14.767
12468SOL     OW39242   3.139  13.609  11.250
12468SOL    HW139243   3.147  13.663  11.171
12468SOL    HW239244   3.176  13.663  11.320
12469SOL     OW39245   6.851  13.719   7.547
12469SOL    HW139246   6.787  13.738   7.616
12469SOL    HW239247   6.798  13.700   7.470
12470SOL     OW39248   7.784  10.497   8.202
12470SOL    HW139249   7.783  10.402   8.212
12470SOL    HW239250   7.696  10.519   8.172
12471SOL     OW39251   7.922  10.736   5.651
12471SOL    HW139252   7.868  10.768   5.578
12471SOL    HW239253   7.967  10.815   5.683
12472SOL     OW39254   2.664   4.817   4.052
12472SOL    HW139255   2.758   4.838   4.050
12472SOL    HW239256   2.651   4.759   3.977
12473SOL     OW39257  14.666  13.772  10.403
12473SOL    HW139258  14.702  13.763  10.491
12473SOL    HW239259  14.690  13.691  10.359
12474SOL     OW39260   8.154  10.128  13.248
12474SOL    HW139261   8.161  10.038  13.279
12474SOL    HW239262   8.136  10.120  13.155
12475SOL     OW39263   8.137  12.268   1.055
12475SOL    HW139264   8.148  12.351   1.008
12475SOL    HW239265   8.112  12.294   1.143
12476SOL     OW39266   4.013   9.811   9.758
12476SOL    HW139267   4.107   9.830   9.766
12476SOL    HW239268   3.982   9.870   9.690
12477SOL     OW39269  11.422   2.726   6.376
12477SOL    HW139270  11.365   2.798   6.400
12477SOL    HW239271  11.363   2.658   6.345
12478SOL     OW39272   8.499   0.240   9.876
12478SOL    HW139273   8.523   0.310   9.815
12478SOL    HW239274   8.465   0.170   9.820
12479SOL     OW39275   3.487   9.585   3.998
12479SOL    HW139276   3.560   9.603   3.938
12479SOL    HW239277   3.409   9.589   3.943
12480SOL     OW39278   6.432   2.157  10.194
12480SOL    HW139279   6.464   2.222  10.131
12480SOL    HW239280   6.467   2.074  10.161
12481SOL     OW39281   3.085   5.360  11.879
12481SOL    HW139282   3.097   5.298  11.950
12481SOL    HW239283   3.074   5.445  11.923
12482SOL     OW39284   2.320  11.047  14.225
12482SOL    HW139285   2.287  10.988  14.293
12482SOL    HW239286   2.297  11.004  14.143
12483SOL     OW39287   5.428   7.779  14.408
12483SOL    HW139288   5.457   7.744  14.492
12483SOL    HW239289   5.508   7.789  14.357
12484SOL     OW39290  14.659   3.851   8.795
12484SOL    HW139291  14.602   3.865   8.871
12484SOL    HW239292  14.715   3.778   8.821
12485SOL     OW39293  12.648  13.063  12.397
12485SOL    HW139294  12.560  13.071  12.361
12485SOL    HW239295  12.635  13.061  12.492
12486SOL     OW39296  11.248   6.893   6.658
12486SOL    HW139297  11.216   6.984   6.658
12486SOL    HW239298  11.328   6.897   6.605
12487SOL     OW39299  14.637   7.586  12.513
12487SOL    HW139300  14.732   7.588  12.524
12487SOL    HW239301  14.603   7.551  12.595
12488SOL     OW39302   4.747   7.618   0.753
12488SOL    HW139303   4.667   7.671   0.755
12488SOL    HW239304   4.723   7.541   0.702
12489SOL     OW39305  12.184   8.848  11.579
12489SOL    HW139306  12.217   8.922  11.528
12489SOL    HW239307  12.232   8.772  11.546
12490SOL     OW39308  13.124   8.408  12.967
12490SOL    HW139309  13.218   8.402  12.956
12490SOL    HW239310  13.097   8.319  12.991
12491SOL     OW39311   6.191   5.870  10.521
12491SOL    HW139312   6.272   5.821  10.533
12491SOL    HW239313   6.207   5.955  10.562
12492SOL     OW39314   9.950   7.116  13.002
12492SOL    HW139315   9.948   7.046  13.068
12492SOL    HW239316   9.902   7.189  13.042
12493SOL     OW39317  12.808  11.783  10.805
12493SOL    HW139318  12.871  11.831  10.858
12493SOL    HW239319  12.847  11.697  10.792
12494SOL     OW39320   1.363  11.956  12.188
12494SOL    HW139321   1.351  12.021  12.257
12494SOL    HW239322   1.301  11.984  12.119
12495SOL     OW39323  14.309  11.134   8.026
12495SOL    HW139324  14.303  11.058   8.084
12495SOL    HW239325  14.295  11.099   7.938
12496SOL     OW39326   2.932   7.379   0.511
12496SOL    HW139327   2.883   7.327   0.446
12496SOL    HW239328   2.988   7.436   0.458
12497SOL     OW39329  14.736  10.274   5.731
12497SOL    HW139330  14.653  10.272   5.778
12497SOL    HW239331  14.711  10.267   5.638
12498SOL     OW39332   1.390   4.557   5.260
12498SOL    HW139333   1.351   4.477   5.225
12498SOL    HW239334   1.427   4.601   5.184
12499SOL     OW39335   8.954   0.501  10.803
12499SOL    HW139336   8.860   0.511  10.788
12499SOL    HW239337   8.960   0.453  10.885
12500SOL     OW39338   0.001   7.470   5.574
12500SOL    HW139339  14.795   7.438   5.553
12500SOL    HW239340   0.057   7.393   5.566
12501SOL     OW39341   1.571  11.608  14.074
12501SOL    HW139342   1.585  11.534  14.133
12501SOL    HW239343   1.576  11.685  14.131
12502SOL     OW39344   9.276   9.177   8.723
12502SOL    HW139345   9.313   9.251   8.771
12502SOL    HW239346   9.204   9.147   8.779
12503SOL     OW39347   8.591   8.166  11.272
12503SOL    HW139348   8.497   8.176  11.283
12503SOL    HW239349   8.611   8.082  11.315
12504SOL     OW39350   0.168   8.057   0.005
12504SOL    HW139351   0.119   8.137  14.868
12504SOL    HW239352   0.131   8.024   0.087
12505SOL     OW39353   3.794  11.752   8.522
12505SOL    HW139354   3.747  11.806   8.458
12505SOL    HW239355   3.882  11.789   8.526
12506SOL     OW39356   0.458  12.022   2.598
12506SOL    HW139357   0.450  11.979   2.683
12506SOL    HW239358   0.385  12.083   2.595
12507SOL     OW39359   1.485   3.908  11.765
12507SOL    HW139360   1.426   3.913  11.690
12507SOL    HW239361   1.436   3.859  11.831
12508SOL     OW39362  11.688  14.857   4.814
12508SOL    HW139363  11.649  14.834   4.729
12508SOL    HW239364  11.663   0.067   4.827
12509SOL     OW39365  11.428   6.577  10.085
12509SOL    HW139366  11.346   6.540  10.053
12509SOL    HW239367  11.407   6.616  10.169
12510SOL     OW39368   0.639   2.388  11.484
12510SOL    HW139369   0.670   2.298  11.491
12510SOL    HW239370   0.632   2.418  11.575
12511SOL     OW39371   6.341  10.039   4.832
12511SOL    HW139372   6.305  10.022   4.745
12511SOL    HW239373   6.420  10.090   4.816
12512SOL     OW39374   1.131   1.650   2.498
12512SOL    HW139375   1.166   1.602   2.423
12512SOL    HW239376   1.039   1.662   2.478
12513SOL     OW39377   7.735  13.973   7.675
12513SOL    HW139378   7.671  13.959   7.606
12513SOL    HW239379   7.714  13.908   7.741
12514SOL     OW39380   5.182   6.706   7.534
12514SOL    HW139381   5.119   6.768   7.571
12514SOL    HW239382   5.183   6.633   7.595
12515SOL     OW39383  14.414   1.419   8.871
12515SOL    HW139384  14.368   1.339   8.896
12515SOL    HW239385  14.500   1.390   8.843
12516SOL     OW39386  11.138   7.570   1.446
12516SOL    HW139387  11.085   7.646   1.471
12516SOL    HW239388  11.199   7.604   1.381
12517SOL     OW39389   9.292   6.936   9.842
12517SOL    HW139390   9.263   7.023   9.868
12517SOL    HW239391   9.238   6.876   9.893
12518SOL     OW39392   3.742  14.527   5.220
12518SOL    HW139393   3.833  14.552   5.236
12518SOL    HW239394   3.717  14.574   5.141
12519SOL     OW39395   4.780   6.985   6.082
12519SOL    HW139396   4.811   6.906   6.038
12519SOL    HW239397   4.762   7.047   6.011
12520SOL     OW39398  10.008  10.438   9.861
12520SOL    HW139399  10.056  10.397   9.933
12520SOL    HW239400   9.960  10.366   9.820
12521SOL     OW39401   7.376  14.439   0.440
12521SOL    HW139402   7.470  14.422   0.453
12521SOL    HW239403   7.359  14.518   0.490
12522SOL     OW39404   8.812  12.545  13.929
12522SOL    HW139405   8.902  12.563  13.904
12522SOL    HW239406   8.759  12.588  13.862
12523SOL     OW39407   4.440   0.038   6.144
12523SOL    HW139408   4.418   0.052   6.236
12523SOL    HW239409   4.382   0.097   6.096
12524SOL     OW39410   9.007  10.597   2.339
12524SOL    HW139411   9.055  10.619   2.260
12524SOL    HW239412   8.925  10.647   2.332
12525SOL     OW39413  12.352   0.242   9.480
12525SOL    HW139414  12.389   0.277   9.398
12525SOL    HW239415  12.282   0.304   9.503
12526SOL     OW39416   2.627   3.172  10.751
12526SOL    HW139417   2.657   3.225  10.678
12526SOL    HW239418   2.535   3.155  10.732
12527SOL     OW39419   2.600   8.087  12.253
12527SOL    HW139420   2.534   8.109  12.188
12527SOL    HW239421   2.597   8.160  12.315
12528SOL     OW39422  12.074   8.128   9.767
12528SOL    HW139423  12.096   8.040   9.737
12528SOL    HW239424  11.980   8.124   9.786
12529SOL     OW39425  11.355   4.734   9.525
12529SOL    HW139426  11.260   4.734   9.515
12529SOL    HW239427  11.375   4.649   9.563
12530SOL     OW39428   4.929   9.196   8.839
12530SOL    HW139429   4.886   9.110   8.841
12530SOL    HW239430   5.004   9.184   8.780
12531SOL     OW39431   6.589  14.734   5.627
12531SOL    HW139432   6.619  14.648   5.599
12531SOL    HW239433   6.669  14.786   5.637
12532SOL     OW39434   5.211   6.358   0.738
12532SOL    HW139435   5.195   6.391   0.826
12532SOL    HW239436   5.283   6.413   0.705
12533SOL     OW39437  11.086   5.218   0.959
12533SOL    HW139438  11.054   5.227   1.048
12533SOL    HW239439  11.108   5.307   0.932
12534SOL     OW39440   5.506   9.125  14.439
12534SOL    HW139441   5.421   9.114  14.397
12534SOL    HW239442   5.536   9.212  14.411
12535SOL     OW39443   3.008  13.437   5.517
12535SOL    HW139444   3.070  13.497   5.560
12535SOL    HW239445   3.063  13.383   5.461
12536SOL     OW39446   7.824  12.509   7.401
12536SOL    HW139447   7.827  12.484   7.493
12536SOL    HW239448   7.913  12.496   7.370
12537SOL     OW39449   7.173   1.018   8.516
12537SOL    HW139450   7.189   1.078   8.588
12537SOL    HW239451   7.080   1.029   8.496
12538SOL     OW39452  13.172   5.683   4.997
12538SOL    HW139453  13.113   5.638   4.937
12538SOL    HW239454  13.145   5.652   5.084
12539SOL     OW39455  13.862   4.324  13.138
12539SOL    HW139456  13.869   4.353  13.047
12539SOL    HW239457  13.771   4.342  13.162
12540SOL     OW39458   3.520   1.079  10.621
12540SOL    HW139459   3.429   1.051  10.628
12540SOL    HW239460   3.545   1.100  10.711
12541SOL     OW39461  13.716   1.873  14.614
12541SOL    HW139462  13.699   1.850  14.523
12541SOL    HW239463  13.662   1.951  14.630
12542SOL     OW39464   6.253   5.884   7.604
12542SOL    HW139465   6.159   5.892   7.619
12542SOL    HW239466   6.294   5.937   7.672
12543SOL     OW39467  14.092   7.295   0.104
12543SOL    HW139468  14.008   7.299   0.149
12543SOL    HW239469  14.149   7.354   0.153
12544SOL     OW39470   6.816   4.490   1.206
12544SOL    HW139471   6.816   4.560   1.272
12544SOL    HW239472   6.879   4.426   1.240
12545SOL     OW39473   1.934   0.299   0.577
12545SOL    HW139474   1.992   0.240   0.624
12545SOL    HW239475   1.993   0.359   0.531
12546SOL     OW39476  10.236   8.064  14.272
12546SOL    HW139477  10.188   8.135  14.228
12546SOL    HW239478  10.272   8.012  14.200
12547SOL     OW39479  11.149   2.879  10.049
12547SOL    HW139480  11.200   2.946  10.096
12547SOL    HW239481  11.062   2.917  10.039
12548SOL     OW39482  12.520  13.516   9.071
12548SOL    HW139483  12.430  13.494   9.047
12548SOL    HW239484  12.540  13.459   9.144
12549SOL     OW39485   7.501   9.935   9.372
12549SOL    HW139486   7.569   9.995   9.340
12549SOL    HW239487   7.433   9.993   9.406
12550SOL     OW39488   7.713   1.142  11.628
12550SOL    HW139489   7.789   1.148  11.686
12550SOL    HW239490   7.743   1.087  11.556
12551SOL     OW39491   0.572  13.382   7.777
12551SOL    HW139492   0.599  13.354   7.690
12551SOL    HW239493   0.623  13.327   7.837
12552SOL     OW39494  12.648  11.702   8.850
12552SOL    HW139495  12.561  11.667   8.833
12552SOL    HW239496  12.663  11.764   8.779
12553SOL     OW39497  11.142   9.901   1.942
12553SOL    HW139498  11.114   9.920   1.852
12553SOL    HW239499  11.080   9.835   1.973
12554SOL     OW39500   2.847  11.348  13.126
12554SOL    HW139501   2.806  11.423  13.083
12554SOL    HW239502   2.931  11.338  13.083
12555SOL     OW39503  14.116   1.005   2.609
12555SOL    HW139504  14.067   0.923   2.604
12555SOL    HW239505  14.155   1.005   2.696
12556SOL     OW39506   8.698  12.910  13.028
12556SOL    HW139507   8.685  12.828  12.980
12556SOL    HW239508   8.705  12.883  13.120
12557SOL     OW39509   5.346   4.290  12.739
12557SOL    HW139510   5.439   4.277  12.723
12557SOL    HW239511   5.304   4.213  12.699
12558SOL     OW39512   7.389   4.668   5.686
12558SOL    HW139513   7.392   4.755   5.726
12558SOL    HW239514   7.332   4.617   5.744
12559SOL     OW39515  10.943  11.559  11.093
12559SOL    HW139516  10.883  11.550  11.018
12559SOL    HW239517  11.025  11.519  11.063
12560SOL     OW39518   9.586  12.882   6.008
12560SOL    HW139519   9.636  12.881   6.090
12560SOL    HW239520   9.496  12.901   6.036
12561SOL     OW39521  14.636   3.318   0.631
12561SOL    HW139522  14.621   3.236   0.678
12561SOL    HW239523  14.674   3.377   0.696
12562SOL     OW39524   2.624  13.050   5.121
12562SOL    HW139525   2.614  13.123   5.182
12562SOL    HW239526   2.635  13.091   5.036
12563SOL     OW39527   7.676  10.460   7.231
12563SOL    HW139528   7.765  10.444   7.201
12563SOL    HW239529   7.631  10.377   7.220
12564SOL     OW39530   9.682   8.299   9.643
12564SOL    HW139531   9.676   8.247   9.723
12564SOL    HW239532   9.615   8.366   9.652
12565SOL     OW39533   2.093  10.775  11.806
12565SOL    HW139534   2.053  10.792  11.721
12565SOL    HW239535   2.182  10.808  11.798
12566SOL     OW39536  12.433   7.230   3.738
12566SOL    HW139537  12.430   7.175   3.659
12566SOL    HW239538  12.342   7.251   3.757
12567SOL     OW39539  14.050   4.891   3.640
12567SOL    HW139540  14.020   4.828   3.575
12567SOL    HW239541  13.980   4.956   3.646
12568SOL     OW39542  11.044   1.925   5.905
12568SOL    HW139543  11.094   1.995   5.947
12568SOL    HW239544  11.082   1.844   5.939
12569SOL     OW39545   4.161   1.148   8.174
12569SOL    HW139546   4.229   1.112   8.117
12569SOL    HW239547   4.082   1.146   8.121
12570SOL     OW39548   8.119   7.149   7.899
12570SOL    HW139549   8.117   7.177   7.991
12570SOL    HW239550   8.050   7.200   7.857
12571SOL     OW39551   9.451   4.938  10.301
12571SOL    HW139552   9.374   4.989  10.326
12571SOL    HW239553   9.420   4.878  10.233
12572SOL     OW39554   7.508  10.769  13.752
12572SOL    HW139555   7.598  10.736  13.749
12572SOL    HW239556   7.500  10.823  13.673
12573SOL     OW39557   8.978  14.069   3.052
12573SOL    HW139558   8.927  14.001   3.009
12573SOL    HW239559   8.992  14.035   3.141
12574SOL     OW39560   1.742  10.596   9.191
12574SOL    HW139561   1.695  10.607   9.108
12574SOL    HW239562   1.760  10.502   9.196
12575SOL     OW39563   5.385   8.754   9.695
12575SOL    HW139564   5.396   8.695   9.620
12575SOL    HW239565   5.298   8.734   9.729
12576SOL     OW39566   3.499  12.285  10.436
12576SOL    HW139567   3.474  12.344  10.507
12576SOL    HW239568   3.562  12.335  10.385
12577SOL     OW39569   9.382  12.571  11.012
12577SOL    HW139570   9.395  12.627  10.936
12577SOL    HW239571   9.413  12.485  10.984
12578SOL     OW39572   2.051   7.977   7.788
12578SOL    HW139573   2.002   8.058   7.778
12578SOL    HW239574   2.120   7.982   7.722
12579SOL     OW39575  12.454   3.206   0.659
12579SOL    HW139576  12.474   3.290   0.617
12579SOL    HW239577  12.360   3.208   0.675
12580SOL     OW39578  14.846   1.435  11.034
12580SOL    HW139579  14.857   1.494  10.959
12580SOL    HW239580  14.863   1.491  11.110
12581SOL     OW39581   2.785  14.518   9.365
12581SOL    HW139582   2.707  14.534   9.419
12581SOL    HW239583   2.849  14.481   9.426
12582SOL     OW39584  11.565   6.303  14.621
12582SOL    HW139585  11.473   6.317  14.646
12582SOL    HW239586  11.615   6.325  14.699
12583SOL     OW39587   0.731   0.088   5.169
12583SOL    HW139588   0.724   0.149   5.095
12583SOL    HW239589   0.814   0.043   5.154
12584SOL     OW39590  14.636   2.342   0.299
12584SOL    HW139591  14.686   2.260   0.296
12584SOL    HW239592  14.689   2.401   0.352
12585SOL     OW39593  13.022  11.442   4.460
12585SOL    HW139594  12.975  11.363   4.437
12585SOL    HW239595  13.023  11.443   4.556
12586SOL     OW39596  13.870  11.202   6.061
12586SOL    HW139597  13.835  11.216   6.149
12586SOL    HW239598  13.913  11.284   6.039
12587SOL     OW39599   4.331   8.357   2.175
12587SOL    HW139600   4.412   8.306   2.179
12587SOL    HW239601   4.322   8.395   2.262
12588SOL     OW39602  12.415   0.459   4.892
12588SOL    HW139603  12.491   0.413   4.929
12588SOL    HW239604  12.453   0.518   4.827
12589SOL     OW39605   9.497   9.509   7.538
12589SOL    HW139606   9.523   9.600   7.553
12589SOL    HW239607   9.558   9.458   7.591
12590SOL     OW39608   0.168  13.992   1.024
12590SOL    HW139609   0.079  13.966   0.998
12590SOL    HW239610   0.158  14.081   1.057
12591SOL     OW39611  11.007   0.319   6.631
12591SOL    HW139612  11.096   0.292   6.651
12591SOL    HW239613  10.981   0.266   6.556
12592SOL     OW39614   5.001   1.164   5.398
12592SOL    HW139615   4.926   1.127   5.352
12592SOL    HW239616   4.982   1.150   5.490
12593SOL     OW39617  13.993   5.047  14.458
12593SOL    HW139618  13.954   5.053  14.545
12593SOL    HW239619  14.031   5.133  14.442
12594SOL     OW39620   2.640   7.797  14.312
12594SOL    HW139621   2.703   7.795  14.384
12594SOL    HW239622   2.566   7.746  14.345
12595SOL     OW39623   7.560   3.358   4.636
12595SOL    HW139624   7.642   3.310   4.621
12595SOL    HW239625   7.563   3.382   4.728
12596SOL     OW39626   7.577   6.420   4.604
12596SOL    HW139627   7.624   6.490   4.558
12596SOL    HW239628   7.645   6.373   4.652
12597SOL     OW39629  14.727   6.511  11.030
12597SOL    HW139630  14.727   6.586  10.971
12597SOL    HW239631  14.793   6.452  10.994
12598SOL     OW39632   4.366  14.570   8.128
12598SOL    HW139633   4.327  14.606   8.207
12598SOL    HW239634   4.403  14.646   8.083
12599SOL     OW39635   7.529   2.580   0.092
12599SOL    HW139636   7.512   2.486   0.102
12599SOL    HW239637   7.586   2.586   0.015
12600SOL     OW39638   8.113   6.067   6.637
12600SOL    HW139639   8.134   6.120   6.560
12600SOL    HW239640   8.199   6.038   6.670
12601SOL     OW39641  11.764   9.562   8.099
12601SOL    HW139642  11.730   9.529   8.183
12601SOL    HW239643  11.703   9.631   8.074
12602SOL     OW39644   7.705   9.800   2.093
12602SOL    HW139645   7.712   9.891   2.119
12602SOL    HW239646   7.612   9.786   2.078
12603SOL     OW39647   0.174   2.238  11.975
12603SOL    HW139648   0.091   2.284  11.981
12603SOL    HW239649   0.199   2.221  12.066
12604SOL     OW39650  13.115   8.542   6.007
12604SOL    HW139651  13.204   8.577   6.008
12604SOL    HW239652  13.077   8.569   6.090
12605SOL     OW39653  12.120  14.073   2.774
12605SOL    HW139654  12.158  14.017   2.706
12605SOL    HW239655  12.158  14.159   2.757
12606SOL     OW39656   7.600   5.615   8.448
12606SOL    HW139657   7.566   5.697   8.413
12606SOL    HW239658   7.623   5.563   8.371
12607SOL     OW39659   7.522  11.259   2.584
12607SOL    HW139660   7.460  11.192   2.615
12607SOL    HW239661   7.521  11.250   2.489
12608SOL     OW39662  14.003   0.546  10.854
12608SOL    HW139663  13.922   0.551  10.904
12608SOL    HW239664  13.976   0.526  10.765
12609SOL     OW39665  11.169   1.384   3.499
12609SOL    HW139666  11.232   1.315   3.521
12609SOL    HW239667  11.084   1.340   3.505
12610SOL     OW39668  14.826  14.572   3.069
12610SOL    HW139669  14.881  14.586   3.145
12610SOL    HW239670  14.773  14.495   3.092
12611SOL     OW39671   7.008  13.077  11.698
12611SOL    HW139672   7.052  13.160  11.681
12611SOL    HW239673   6.976  13.049  11.612
12612SOL     OW39674  12.219   7.000   1.624
12612SOL    HW139675  12.255   7.087   1.605
12612SOL    HW239676  12.181   6.971   1.542
12613SOL     OW39677   1.834   6.171   3.481
12613SOL    HW139678   1.909   6.133   3.526
12613SOL    HW239679   1.865   6.256   3.450
12614SOL     OW39680   0.438  14.553   2.634
12614SOL    HW139681   0.386  14.523   2.709
12614SOL    HW239682   0.376  14.604   2.581
12615SOL     OW39683  12.176   5.845  14.027
12615SOL    HW139684  12.083   5.844  14.005
12615SOL    HW239685  12.217   5.894  13.956
12616SOL     OW39686   6.769   0.400   4.380
12616SOL    HW139687   6.764   0.492   4.355
12616SOL    HW239688   6.848   0.393   4.432
12617SOL     OW39689   2.561  13.586   6.941
12617SOL    HW139690   2.567  13.584   6.845
12617SOL    HW239691   2.643  13.546   6.970
12618SOL     OW39692   2.345   2.136   9.614
12618SOL    HW139693   2.408   2.206   9.628
12618SOL    HW239694   2.362   2.073   9.683
12619SOL     OW39695   0.021   3.092   0.207
12619SOL    HW139696  14.831   3.073   0.148
12619SOL    HW239697   0.005   3.181   0.237
12620SOL     OW39698  14.477   5.157   5.444
12620SOL    HW139699  14.415   5.164   5.517
12620SOL    HW239700  14.550   5.107   5.480
12621SOL     OW39701   9.251   0.359  14.481
12621SOL    HW139702   9.320   0.298  14.507
12621SOL    HW239703   9.180   0.303  14.448
12622SOL     OW39704  10.521   4.449  14.135
12622SOL    HW139705  10.527   4.443  14.040
12622SOL    HW239706  10.494   4.362  14.163
12623SOL     OW39707   2.427   7.088   3.936
12623SOL    HW139708   2.522   7.100   3.934
12623SOL    HW239709   2.393   7.174   3.960
12624SOL     OW39710   1.363   2.939   6.980
12624SOL    HW139711   1.381   2.904   6.893
12624SOL    HW239712   1.372   2.864   7.039
12625SOL     OW39713  11.181   1.966   3.673
12625SOL    HW139714  11.106   1.912   3.647
12625SOL    HW239715  11.238   1.906   3.722
12626SOL     OW39716   7.512   5.027   7.240
12626SOL    HW139717   7.569   5.063   7.172
12626SOL    HW239718   7.505   4.934   7.219
12627SOL     OW39719  12.434  13.753   8.550
12627SOL    HW139720  12.397  13.680   8.502
12627SOL    HW239721  12.449  13.719   8.638
12628SOL     OW39722   6.210   4.723  14.181
12628SOL    HW139723   6.269   4.719  14.106
12628SOL    HW239724   6.267   4.718  14.258
12629SOL     OW39725   8.470  10.714   5.746
12629SOL    HW139726   8.537  10.675   5.802
12629SOL    HW239727   8.414  10.640   5.721
12630SOL     OW39728  14.453   6.185  13.361
12630SOL    HW139729  14.427   6.234  13.439
12630SOL    HW239730  14.542   6.214  13.343
12631SOL     OW39731   4.467   2.250  13.869
12631SOL    HW139732   4.536   2.271  13.932
12631SOL    HW239733   4.386   2.256  13.920
12632SOL     OW39734   2.465   5.755   3.569
12632SOL    HW139735   2.379   5.714   3.561
12632SOL    HW239736   2.526   5.682   3.561
12633SOL     OW39737   0.491   4.835  12.766
12633SOL    HW139738   0.578   4.808  12.795
12633SOL    HW239739   0.497   4.838  12.670
12634SOL     OW39740  14.022  11.909   4.213
12634SOL    HW139741  14.097  11.948   4.257
12634SOL    HW239742  13.978  11.983   4.171
12635SOL     OW39743   9.003  10.787   9.180
12635SOL    HW139744   8.913  10.755   9.186
12635SOL    HW239745   9.057  10.716   9.215
12636SOL     OW39746   2.285  11.206   4.208
12636SOL    HW139747   2.333  11.272   4.157
12636SOL    HW239748   2.319  11.214   4.297
12637SOL     OW39749   6.710   3.359   3.702
12637SOL    HW139750   6.699   3.451   3.725
12637SOL    HW239751   6.767   3.324   3.770
12638SOL     OW39752   1.807   3.003   4.521
12638SOL    HW139753   1.806   3.017   4.616
12638SOL    HW239754   1.893   2.968   4.503
12639SOL     OW39755   5.199   3.212   9.382
12639SOL    HW139756   5.274   3.270   9.376
12639SOL    HW239757   5.130   3.265   9.423
12640SOL     OW39758   3.267  14.240   4.620
12640SOL    HW139759   3.319  14.192   4.556
12640SOL    HW239760   3.215  14.173   4.664
12641SOL     OW39761   8.961   2.074   2.956
12641SOL    HW139762   8.984   2.142   2.893
12641SOL    HW239763   8.877   2.103   2.992
12642SOL     OW39764  10.051   2.193   1.933
12642SOL    HW139765  10.017   2.168   1.848
12642SOL    HW239766  10.138   2.152   1.937
12643SOL     OW39767   4.469  12.186   9.727
12643SOL    HW139768   4.390  12.135   9.706
12643SOL    HW239769   4.541  12.131   9.697
12644SOL     OW39770   5.517   6.407   4.827
12644SOL    HW139771   5.523   6.478   4.891
12644SOL    HW239772   5.577   6.340   4.861
12645SOL     OW39773   4.673   8.549  13.532
12645SOL    HW139774   4.586   8.558  13.571
12645SOL    HW239775   4.728   8.515  13.602
12646SOL     OW39776   5.269   3.584  13.998
12646SOL    HW139777   5.275   3.678  13.983
12646SOL    HW239778   5.346   3.564  14.052
12647SOL     OW39779   6.463   8.049  13.171
12647SOL    HW139780   6.460   7.959  13.204
12647SOL    HW239781   6.530   8.047  13.102
12648SOL     OW39782  11.991   9.336   5.466
12648SOL    HW139783  11.896   9.344   5.476
12648SOL    HW239784  12.017   9.268   5.529
12649SOL     OW39785   5.226   4.217   9.218
12649SOL    HW139786   5.207   4.135   9.264
12649SOL    HW239787   5.146   4.269   9.227
12650SOL     OW39788   0.092  11.791  14.182
12650SOL    HW139789   0.055  11.723  14.238
12650SOL    HW239790   0.133  11.853  14.243
12651SOL     OW39791   2.470   2.077   4.408
12651SOL    HW139792   2.428   2.054   4.325
12651SOL    HW239793   2.457   2.171   4.417
12652SOL     OW39794   0.624   8.763  11.639
12652SOL    HW139795   0.532   8.740  11.627
12652SOL    HW239796   0.647   8.726  11.725
12653SOL     OW39797   6.846  11.032   0.524
12653SOL    HW139798   6.833  10.977   0.601
12653SOL    HW239799   6.828  11.121   0.553
12654SOL     OW39800   1.591   7.403   5.351
12654SOL    HW139801   1.547   7.321   5.332
12654SOL    HW239802   1.647   7.384   5.426
12655SOL     OW39803   7.059  14.556  14.810
12655SOL    HW139804   6.996  14.551  14.881
12655SOL    HW239805   7.009  14.536  14.731
12656SOL     OW39806   0.225  10.441   0.700
12656SOL    HW139807   0.296  10.436   0.764
12656SOL    HW239808   0.257  10.394   0.624
12657SOL     OW39809   1.870  12.503  13.907
12657SOL    HW139810   1.822  12.511  13.824
12657SOL    HW239811   1.918  12.421  13.898
12658SOL     OW39812   1.916  13.225   7.113
12658SOL    HW139813   1.910  13.221   7.017
12658SOL    HW239814   1.878  13.310   7.135
12659SOL     OW39815   7.973   1.715   5.578
12659SOL    HW139816   7.945   1.642   5.634
12659SOL    HW239817   7.997   1.784   5.639
12660SOL     OW39818   5.453  11.539   6.012
12660SOL    HW139819   5.413  11.626   6.012
12660SOL    HW239820   5.400  11.488   5.951
12661SOL     OW39821  11.822   5.391   6.155
12661SOL    HW139822  11.730   5.414   6.166
12661SOL    HW239823  11.865   5.427   6.233
12662SOL     OW39824   8.577   6.541   0.721
12662SOL    HW139825   8.648   6.502   0.670
12662SOL    HW239826   8.510   6.563   0.656
12663SOL     OW39827  10.739  12.270  10.311
12663SOL    HW139828  10.731  12.189  10.260
12663SOL    HW239829  10.825  12.305  10.286
12664SOL     OW39830   9.714  10.160   0.083
12664SOL    HW139831   9.685  10.083   0.034
12664SOL    HW239832   9.637  10.186   0.134
12665SOL     OW39833   7.907  14.275   0.469
12665SOL    HW139834   7.921  14.180   0.476
12665SOL    HW239835   7.964  14.312   0.536
12666SOL     OW39836   4.077  10.194   7.978
12666SOL    HW139837   4.086  10.286   8.003
12666SOL    HW239838   4.133  10.184   7.901
12667SOL     OW39839  14.765  12.890  12.920
12667SOL    HW139840  14.769  12.917  12.828
12667SOL    HW239841  14.676  12.859  12.932
12668SOL     OW39842   2.942  11.197   5.801
12668SOL    HW139843   2.849  11.215   5.818
12668SOL    HW239844   2.976  11.168   5.885
12669SOL     OW39845  12.800   7.417  12.609
12669SOL    HW139846  12.711   7.426  12.642
12669SOL    HW239847  12.816   7.499  12.562
12670SOL     OW39848   6.780   5.646  10.396
12670SOL    HW139849   6.806   5.577  10.335
12670SOL    HW239850   6.802   5.612  10.482
12671SOL     OW39851   2.736  10.910  13.873
12671SOL    HW139852   2.688  10.913  13.956
12671SOL    HW239853   2.739  11.002  13.844
12672SOL     OW39854  12.268   2.990   4.178
12672SOL    HW139855  12.304   3.052   4.241
12672SOL    HW239856  12.342   2.933   4.156
12673SOL     OW39857  11.037  10.034   6.107
12673SOL    HW139858  11.099   9.977   6.152
12673SOL    HW239859  11.085  10.066   6.030
12674SOL     OW39860   0.000   1.420  14.354
12674SOL    HW139861   0.085   1.387  14.384
12674SOL    HW239862  14.822   1.346  14.365
12675SOL     OW39863   7.424   8.828   0.996
12675SOL    HW139864   7.409   8.867   0.910
12675SOL    HW239865   7.465   8.898   1.047
12676SOL     OW39866   8.534   2.857   0.116
12676SOL    HW139867   8.546   2.922   0.047
12676SOL    HW239868   8.459   2.889   0.166
12677SOL     OW39869   4.972  13.888   4.624
12677SOL    HW139870   5.005  13.813   4.673
12677SOL    HW239871   5.020  13.963   4.659
12678SOL     OW39872   7.416   9.113   4.103
12678SOL    HW139873   7.400   9.171   4.028
12678SOL    HW239874   7.507   9.085   4.093
12679SOL     OW39875  11.543  11.287   6.601
12679SOL    HW139876  11.634  11.277   6.574
12679SOL    HW239877  11.548  11.321   6.690
12680SOL     OW39878   5.974   4.769   7.631
12680SOL    HW139879   6.050   4.715   7.654
12680SOL    HW239880   5.922   4.772   7.711
12681SOL     OW39881  13.459   6.757   0.342
12681SOL    HW139882  13.422   6.765   0.430
12681SOL    HW239883  13.522   6.685   0.349
12682SOL     OW39884   2.105  14.234   8.818
12682SOL    HW139885   2.136  14.240   8.727
12682SOL    HW239886   2.150  14.305   8.863
12683SOL     OW39887  10.580  12.007   2.397
12683SOL    HW139888  10.603  11.929   2.347
12683SOL    HW239889  10.523  12.057   2.339
12684SOL     OW39890   5.301  10.996  12.095
12684SOL    HW139891   5.302  10.904  12.070
12684SOL    HW239892   5.269  11.042  12.018
12685SOL     OW39893  12.637   1.649  13.641
12685SOL    HW139894  12.722   1.691  13.652
12685SOL    HW239895  12.622   1.605  13.725
12686SOL     OW39896  13.964   5.900  13.741
12686SOL    HW139897  13.966   5.806  13.724
12686SOL    HW239898  13.882   5.930  13.701
12687SOL     OW39899  10.019   3.457   6.359
12687SOL    HW139900  10.008   3.539   6.312
12687SOL    HW239901   9.940   3.449   6.413
12688SOL     OW39902   9.666   8.161   5.214
12688SOL    HW139903   9.694   8.250   5.192
12688SOL    HW239904   9.580   8.173   5.255
12689SOL     OW39905   1.349   7.852   0.190
12689SOL    HW139906   1.324   7.936   0.228
12689SOL    HW239907   1.433   7.831   0.232
12690SOL     OW39908   8.322   4.011   6.986
12690SOL    HW139909   8.372   4.050   6.915
12690SOL    HW239910   8.355   4.055   7.065
12691SOL     OW39911   2.632  10.081   6.104
12691SOL    HW139912   2.683  10.001   6.113
12691SOL    HW239913   2.612  10.086   6.010
12692SOL     OW39914  12.798   5.212   8.440
12692SOL    HW139915  12.792   5.116   8.445
12692SOL    HW239916  12.708   5.242   8.451
12693SOL     OW39917  10.376   0.792   6.276
12693SOL    HW139918  10.303   0.842   6.239
12693SOL    HW239919  10.443   0.794   6.208
12694SOL     OW39920   5.146  14.786   0.392
12694SOL    HW139921   5.156  14.785   0.487
12694SOL    HW239922   5.223  14.834   0.360
12695SOL     OW39923   1.281  14.044  13.314
12695SOL    HW139924   1.301  14.125  13.266
12695SOL    HW239925   1.212  14.002  13.264
12696SOL     OW39926  14.238   8.930  14.579
12696SOL    HW139927  14.294   9.008  14.583
12696SOL    HW239928  14.295   8.858  14.605
12697SOL     OW39929   2.962   6.757   4.258
12697SOL    HW139930   2.993   6.673   4.292
12697SOL    HW239931   2.945   6.810   4.336
12698SOL     OW39932   7.983  13.473   7.859
12698SOL    HW139933   7.998  13.407   7.791
12698SOL    HW239934   7.932  13.429   7.926
12699SOL     OW39935  12.202  13.457  11.504
12699SOL    HW139936  12.211  13.528  11.568
12699SOL    HW239937  12.164  13.385  11.553
12700SOL     OW39938   4.844   7.630   1.917
12700SOL    HW139939   4.821   7.722   1.901
12700SOL    HW239940   4.782   7.601   1.984
12701SOL     OW39941  11.589  13.657   7.856
12701SOL    HW139942  11.600  13.753   7.856
12701SOL    HW239943  11.678  13.623   7.852
12702SOL     OW39944   7.887   0.630   0.230
12702SOL    HW139945   7.840   0.711   0.246
12702SOL    HW239946   7.968   0.657   0.188
12703SOL     OW39947   7.681   2.293   5.032
12703SOL    HW139948   7.731   2.276   4.953
12703SOL    HW239949   7.651   2.206   5.061
12704SOL     OW39950   0.002  14.872   6.861
12704SOL    HW139951   0.046  14.842   6.781
12704SOL    HW239952  14.792  14.850   6.847
12705SOL     OW39953  12.099   0.865  10.641
12705SOL    HW139954  12.041   0.896  10.710
12705SOL    HW239955  12.119   0.943  10.589
12706SOL     OW39956   0.433  11.445   6.729
12706SOL    HW139957   0.430  11.538   6.708
12706SOL    HW239958   0.467  11.441   6.818
12707SOL     OW39959   7.091  10.336   4.795
12707SOL    HW139960   7.104  10.431   4.798
12707SOL    HW239961   7.062  10.319   4.706
12708SOL     OW39962   5.741   6.262   1.564
12708SOL    HW139963   5.734   6.197   1.495
12708SOL    HW239964   5.742   6.346   1.518
12709SOL     OW39965   2.715   2.184   2.747
12709SOL    HW139966   2.655   2.110   2.760
12709SOL    HW239967   2.707   2.205   2.654
12710SOL     OW39968   1.723   6.795   2.338
12710SOL    HW139969   1.645   6.844   2.311
12710SOL    HW239970   1.788   6.817   2.271
12711SOL     OW39971   6.300   9.570   8.564
12711SOL    HW139972   6.331   9.659   8.547
12711SOL    HW239973   6.342   9.545   8.646
12712SOL     OW39974   1.708  12.020  10.130
12712SOL    HW139975   1.682  12.107  10.100
12712SOL    HW239976   1.795  12.007  10.094
12713SOL     OW39977  14.707  10.204   2.331
12713SOL    HW139978  14.681  10.283   2.378
12713SOL    HW239979  14.787  10.175   2.375
12714SOL     OW39980   0.205  13.050  11.366
12714SOL    HW139981   0.220  13.070  11.274
12714SOL    HW239982   0.116  13.082  11.384
12715SOL     OW39983  10.717  12.688   2.130
12715SOL    HW139984  10.728  12.783   2.125
12715SOL    HW239985  10.678  12.663   2.046
12716SOL     OW39986  10.068  13.446  11.920
12716SOL    HW139987  10.121  13.518  11.954
12716SOL    HW239988  10.110  13.367  11.953
12717SOL     OW39989   1.477  12.604   9.146
12717SOL    HW139990   1.412  12.611   9.076
12717SOL    HW239991   1.561  12.617   9.102
12718SOL     OW39992  10.077   2.327   6.450
12718SOL    HW139993  10.152   2.269   6.435
12718SOL    HW239994  10.111   2.415   6.432
12719SOL     OW39995  13.542   3.392   0.142
12719SOL    HW139996  13.455   3.373   0.107
12719SOL    HW239997  13.577   3.459   0.083
12720SOL     OW39998   2.278  13.415   9.846
12720SOL    HW139999   2.287  13.326   9.879
12720SOL    HW240000   2.203  13.412   9.787
12721SOL     OW40001  12.344  14.410   8.903
12721SOL    HW140002  12.281  14.339   8.888
12721SOL    HW240003  12.291  14.481   8.940
12722SOL     OW40004   6.185  14.319   5.190
12722SOL    HW140005   6.258  14.261   5.168
12722SOL    HW240006   6.124  14.263   5.239
12723SOL     OW40007   8.406   5.841  12.190
12723SOL    HW140008   8.328   5.837  12.134
12723SOL    HW240009   8.389   5.779  12.260
12724SOL     OW40010   1.378  11.209   4.457
12724SOL    HW140011   1.418  11.256   4.384
12724SOL    HW240012   1.449  11.197   4.520
12725SOL     OW40013  11.497  11.653   7.615
12725SOL    HW140014  11.422  11.713   7.611
12725SOL    HW240015  11.573  11.710   7.621
12726SOL     OW40016   2.534  10.699   0.886
12726SOL    HW140017   2.569  10.778   0.928
12726SOL    HW240018   2.604  10.635   0.896
12727SOL     OW40019  11.497  11.202   1.570
12727SOL    HW140020  11.526  11.123   1.524
12727SOL    HW240021  11.575  11.258   1.572
12728SOL     OW40022   0.431  14.091   9.473
12728SOL    HW140023   0.525  14.076   9.483
12728SOL    HW240024   0.392  14.048   9.549
12729SOL     OW40025   7.815   7.265   4.107
12729SOL    HW140026   7.748   7.214   4.063
12729SOL    HW240027   7.841   7.332   4.044
12730SOL     OW40028   4.623   5.893  14.225
12730SOL    HW140029   4.590   5.978  14.194
12730SOL    HW240030   4.674   5.915  14.303
12731SOL     OW40031   9.605  11.278   1.872
12731SOL    HW140032   9.628  11.198   1.825
12731SOL    HW240033   9.689  11.312   1.903
12732SOL     OW40034  12.622   3.111  11.146
12732SOL    HW140035  12.631   3.166  11.224
12732SOL    HW240036  12.690   3.045  11.155
12733SOL     OW40037   3.633  10.213   7.539
12733SOL    HW140038   3.611  10.125   7.507
12733SOL    HW240039   3.550  10.259   7.543
12734SOL     OW40040   4.763  11.374   2.380
12734SOL    HW140041   4.855  11.376   2.407
12734SOL    HW240042   4.739  11.465   2.369
12735SOL     OW40043   4.634  12.830   7.138
12735SOL    HW140044   4.557  12.844   7.082
12735SOL    HW240045   4.616  12.883   7.216
12736SOL     OW40046   6.628   5.588  10.647
12736SOL    HW140047   6.699   5.648  10.669
12736SOL    HW240048   6.549   5.643  10.646
12737SOL     OW40049  11.559   7.647  11.567
12737SOL    HW140050  11.508   7.705  11.624
12737SOL    HW240051  11.644   7.691  11.558
12738SOL     OW40052   4.556   6.153   5.008
12738SOL    HW140053   4.553   6.239   5.050
12738SOL    HW240054   4.532   6.169   4.917
12739SOL     OW40055  10.555   1.428  11.682
12739SOL    HW140056  10.471   1.466  11.658
12739SOL    HW240057  10.532   1.351  11.734
12740SOL     OW40058   9.258   7.156   4.753
12740SOL    HW140059   9.172   7.117   4.742
12740SOL    HW240060   9.286   7.180   4.664
12741SOL     OW40061   3.622   2.056   5.501
12741SOL    HW140062   3.669   2.105   5.434
12741SOL    HW240063   3.623   1.965   5.470
12742SOL     OW40064   1.083  13.301  12.866
12742SOL    HW140065   1.023  13.268  12.799
12742SOL    HW240066   1.074  13.396  12.861
12743SOL     OW40067   6.778   8.800  13.909
12743SOL    HW140068   6.704   8.743  13.927
12743SOL    HW240069   6.738   8.879  13.872
12744SOL     OW40070  11.351   0.184  13.121
12744SOL    HW140071  11.281   0.210  13.061
12744SOL    HW240072  11.414   0.137  13.066
12745SOL     OW40073  13.101  11.633   0.549
12745SOL    HW140074  13.138  11.666   0.631
12745SOL    HW240075  13.177  11.623   0.491
12746SOL     OW40076  13.478  13.344   7.690
12746SOL    HW140077  13.431  13.268   7.657
12746SOL    HW240078  13.568  13.331   7.661
12747SOL     OW40079   8.804   4.516   2.403
12747SOL    HW140080   8.822   4.511   2.309
12747SOL    HW240081   8.849   4.595   2.432
12748SOL     OW40082  12.271   7.092  13.269
12748SOL    HW140083  12.237   7.169  13.222
12748SOL    HW240084  12.236   7.101  13.358
12749SOL     OW40085  13.556   6.728   9.868
12749SOL    HW140086  13.550   6.818   9.901
12749SOL    HW240087  13.642   6.723   9.827
12750SOL     OW40088   3.053   8.171   1.368
12750SOL    HW140089   3.106   8.135   1.439
12750SOL    HW240090   2.970   8.195   1.409
12751SOL     OW40091   7.632   7.597  13.697
12751SOL    HW140092   7.717   7.608  13.654
12751SOL    HW240093   7.605   7.686  13.718
12752SOL     OW40094   5.694   3.840   5.073
12752SOL    HW140095   5.713   3.783   5.147
12752SOL    HW240096   5.761   3.818   5.008
12753SOL     OW40097   9.659   4.421  10.454
12753SOL    HW140098   9.599   4.454  10.387
12753SOL    HW240099   9.665   4.327  10.436
12754SOL     OW40100   3.397   4.133   0.940
12754SOL    HW140101   3.400   4.094   0.853
12754SOL    HW240102   3.412   4.227   0.925
12755SOL     OW40103   7.140   0.927   7.096
12755SOL    HW140104   7.099   0.976   7.024
12755SOL    HW240105   7.140   0.988   7.169
12756SOL     OW40106  13.031   5.480  13.338
12756SOL    HW140107  12.936   5.477  13.330
12756SOL    HW240108  13.048   5.463  13.431
12757SOL     OW40109   6.619   8.875   4.079
12757SOL    HW140110   6.607   8.786   4.113
12757SOL    HW240111   6.714   8.885   4.072
12758SOL     OW40112  11.782   2.861   2.338
12758SOL    HW140113  11.809   2.790   2.280
12758SOL    HW240114  11.741   2.818   2.413
12759SOL     OW40115   6.749   6.303   8.458
12759SOL    HW140116   6.659   6.281   8.483
12759SOL    HW240117   6.803   6.242   8.509
12760SOL     OW40118   1.557   0.394   1.788
12760SOL    HW140119   1.546   0.367   1.697
12760SOL    HW240120   1.481   0.358   1.833
12761SOL     OW40121  14.281  12.214  14.437
12761SOL    HW140122  14.263  12.283  14.372
12761SOL    HW240123  14.269  12.258  14.521
12762SOL     OW40124  13.869   7.672   1.346
12762SOL    HW140125  13.935   7.740   1.342
12762SOL    HW240126  13.837   7.664   1.256
12763SOL     OW40127  12.102  13.647  11.346
12763SOL    HW140128  12.152  13.645  11.265
12763SOL    HW240129  12.136  13.574  11.398
12764SOL     OW40130   1.868   0.915   1.766
12764SOL    HW140131   1.934   0.961   1.818
12764SOL    HW240132   1.894   0.823   1.770
12765SOL     OW40133  10.903  11.632  14.696
12765SOL    HW140134  10.889  11.635  14.602
12765SOL    HW240135  10.877  11.718  14.728
12766SOL     OW40136  13.495   6.748  12.054
12766SOL    HW140137  13.470   6.671  12.105
12766SOL    HW240138  13.529   6.810  12.119
12767SOL     OW40139   8.251   5.579   4.304
12767SOL    HW140140   8.218   5.526   4.232
12767SOL    HW240141   8.287   5.657   4.262
12768SOL     OW40142   6.017  10.110   9.096
12768SOL    HW140143   5.992  10.035   9.151
12768SOL    HW240144   5.947  10.174   9.111
12769SOL     OW40145  11.673   3.825   2.847
12769SOL    HW140146  11.588   3.790   2.875
12769SOL    HW240147  11.666   3.919   2.863
12770SOL     OW40148  12.589  11.499  14.851
12770SOL    HW140149  12.662  11.562  14.846
12770SOL    HW240150  12.620  11.431   0.030
12771SOL     OW40151   3.195  13.918  10.177
12771SOL    HW140152   3.226  13.828  10.180
12771SOL    HW240153   3.155  13.927  10.091
12772SOL     OW40154   7.433  13.325   7.426
12772SOL    HW140155   7.504  13.371   7.472
12772SOL    HW240156   7.426  13.371   7.342
12773SOL     OW40157   0.231   8.283   5.367
12773SOL    HW140158   0.269   8.314   5.450
12773SOL    HW240159   0.182   8.204   5.391
12774SOL     OW40160  10.062   3.929  12.681
12774SOL    HW140161  10.114   3.995  12.727
12774SOL    HW240162  10.109   3.847  12.695
12775SOL     OW40163   1.737   8.781  11.079
12775SOL    HW140164   1.812   8.780  11.138
12775SOL    HW240165   1.699   8.869  11.090
12776SOL     OW40166  10.948  10.909  13.255
12776SOL    HW140167  10.935  10.958  13.174
12776SOL    HW240168  11.032  10.940  13.289
12777SOL     OW40169  13.638   1.403  10.306
12777SOL    HW140170  13.700   1.476  10.312
12777SOL    HW240171  13.686   1.336  10.257
12778SOL     OW40172   7.718   5.015   6.033
12778SOL    HW140173   7.779   5.088   6.043
12778SOL    HW240174   7.772   4.942   6.003
12779SOL     OW40175   6.402  13.663  13.823
12779SOL    HW140176   6.387  13.611  13.744
12779SOL    HW240177   6.448  13.604  13.883
12780SOL     OW40178   6.317   6.153  13.954
12780SOL    HW140179   6.335   6.185  14.042
12780SOL    HW240180   6.229   6.183  13.935
12781SOL     OW40181   9.925   5.054   6.763
12781SOL    HW140182  10.009   5.092   6.787
12781SOL    HW240183   9.861   5.120   6.790
12782SOL     OW40184   4.966   5.487   8.213
12782SOL    HW140185   4.916   5.411   8.185
12782SOL    HW240186   5.050   5.478   8.169
12783SOL     OW40187  12.265   6.723  12.360
12783SOL    HW140188  12.245   6.638  12.321
12783SOL    HW240189  12.346   6.709  12.409
12784SOL     OW40190   6.223   4.546  12.130
12784SOL    HW140191   6.155   4.598  12.088
12784SOL    HW240192   6.175   4.488  12.189
12785SOL     OW40193  14.514   7.657  13.310
12785SOL    HW140194  14.567   7.731  13.282
12785SOL    HW240195  14.471   7.687  13.390
12786SOL     OW40196  10.819   3.779  12.811
12786SOL    HW140197  10.769   3.857  12.788
12786SOL    HW240198  10.901   3.812  12.847
12787SOL     OW40199  12.814  11.651  14.835
12787SOL    HW140200  12.852  11.696  14.760
12787SOL    HW240201  12.824  11.713   0.026
12788SOL     OW40202   5.151   5.014   0.367
12788SOL    HW140203   5.070   5.001   0.416
12788SOL    HW240204   5.171   5.107   0.378
12789SOL     OW40205   8.718   1.980   8.609
12789SOL    HW140206   8.679   1.923   8.543
12789SOL    HW240207   8.676   2.064   8.597
12790SOL     OW40208  11.947   8.624  11.249
12790SOL    HW140209  11.940   8.572  11.328
12790SOL    HW240210  12.019   8.584  11.200
12791SOL     OW40211   2.564   8.579   1.668
12791SOL    HW140212   2.562   8.485   1.654
12791SOL    HW240213   2.604   8.590   1.754
12792SOL     OW40214  13.243   0.286   7.209
12792SOL    HW140215  13.298   0.364   7.203
12792SOL    HW240216  13.303   0.215   7.232
12793SOL     OW40217   6.012  10.692   6.094
12793SOL    HW140218   5.960  10.622   6.132
12793SOL    HW240219   5.948  10.758   6.067
12794SOL     OW40220  13.886   8.053   3.379
12794SOL    HW140221  13.849   8.074   3.465
12794SOL    HW240222  13.940   7.975   3.395
12795SOL     OW40223  13.010  11.525   4.053
12795SOL    HW140224  12.929  11.488   4.088
12795SOL    HW240225  12.999  11.620   4.061
12796SOL     OW40226  10.910  12.404  11.609
12796SOL    HW140227  10.936  12.427  11.519
12796SOL    HW240228  10.928  12.482  11.660
12797SOL     OW40229  11.225  12.838  10.868
12797SOL    HW140230  11.319  12.831  10.888
12797SOL    HW240231  11.201  12.751  10.836
12798SOL     OW40232   1.696   4.603  12.978
12798SOL    HW140233   1.658   4.669  13.036
12798SOL    HW240234   1.714   4.651  12.897
12799SOL     OW40235  10.017   6.921   7.546
12799SOL    HW140236  10.030   6.835   7.586
12799SOL    HW240237  10.105   6.957   7.538
12800SOL     OW40238  12.895   0.799   4.129
12800SOL    HW140239  12.837   0.776   4.057
12800SOL    HW240240  12.836   0.820   4.201
12801SOL     OW40241  11.340  10.095   7.458
12801SOL    HW140242  11.250  10.130   7.457
12801SOL    HW240243  11.361  10.080   7.366
12802SOL     OW40244   0.614   3.240   6.643
12802SOL    HW140245   0.605   3.259   6.550
12802SOL    HW240246   0.548   3.173   6.660
12803SOL     OW40247   8.665   2.440  12.281
12803SOL    HW140248   8.695   2.444  12.371
12803SOL    HW240249   8.697   2.356  12.248
12804SOL     OW40250  10.501   3.750   3.554
12804SOL    HW140251  10.560   3.674   3.554
12804SOL    HW240252  10.548   3.818   3.601
12805SOL     OW40253   3.233   6.501  14.585
12805SOL    HW140254   3.179   6.444  14.640
12805SOL    HW240255   3.317   6.505  14.632
12806SOL     OW40256  10.645  12.094   6.700
12806SOL    HW140257  10.678  12.129   6.783
12806SOL    HW240258  10.722  12.091   6.643
12807SOL     OW40259   0.382   3.737   5.682
12807SOL    HW140260   0.311   3.688   5.723
12807SOL    HW240261   0.451   3.740   5.749
12808SOL     OW40262  14.692   9.890   0.496
12808SOL    HW140263  14.649   9.975   0.510
12808SOL    HW240264  14.620   9.827   0.495
12809SOL     OW40265  13.852  12.989   1.124
12809SOL    HW140266  13.863  12.976   1.030
12809SOL    HW240267  13.924  12.940   1.164
12810SOL     OW40268   8.265   9.112  13.395
12810SOL    HW140269   8.228   9.079  13.477
12810SOL    HW240270   8.359   9.118  13.411
12811SOL     OW40271   6.077   9.202   3.949
12811SOL    HW140272   6.024   9.277   3.974
12811SOL    HW240273   6.029   9.161   3.877
12812SOL     OW40274   8.269   1.936   9.594
12812SOL    HW140275   8.281   1.844   9.571
12812SOL    HW240276   8.240   1.977   9.513
12813SOL     OW40277  12.522  12.751   1.596
12813SOL    HW140278  12.517  12.668   1.548
12813SOL    HW240279  12.433  12.785   1.594
12814SOL     OW40280   9.680   3.155   2.652
12814SOL    HW140281   9.666   3.090   2.722
12814SOL    HW240282   9.752   3.119   2.600
12815SOL     OW40283  14.517   8.693   0.829
12815SOL    HW140284  14.428   8.710   0.797
12815SOL    HW240285  14.515   8.602   0.857
12816SOL     OW40286   2.379  10.662  14.469
12816SOL    HW140287   2.411  10.730  14.528
12816SOL    HW240288   2.289  10.689  14.448
12817SOL     OW40289   0.556   8.327  14.370
12817SOL    HW140290   0.491   8.282  14.424
12817SOL    HW240291   0.629   8.345  14.430
12818SOL     OW40292  14.238  10.111  11.890
12818SOL    HW140293  14.159  10.164  11.882
12818SOL    HW240294  14.235  10.075  11.979
12819SOL     OW40295  12.916   5.563   0.276
12819SOL    HW140296  12.923   5.543   0.182
12819SOL    HW240297  12.839   5.515   0.305
12820SOL     OW40298  10.334  12.334   8.312
12820SOL    HW140299  10.344  12.357   8.220
12820SOL    HW240300  10.424  12.325   8.345
12821SOL     OW40301   8.728  14.124   4.096
12821SOL    HW140302   8.781  14.183   4.042
12821SOL    HW240303   8.787  14.095   4.165
12822SOL     OW40304   8.775   9.551  11.757
12822SOL    HW140305   8.795   9.541  11.664
12822SOL    HW240306   8.760   9.462  11.788
12823SOL     OW40307   0.148  13.181  11.993
12823SOL    HW140308   0.104  13.096  11.990
12823SOL    HW240309   0.117  13.226  11.915
12824SOL     OW40310   1.113   8.395   7.257
12824SOL    HW140311   1.164   8.475   7.266
12824SOL    HW240312   1.102   8.363   7.347
12825SOL     OW40313  12.448   0.979   3.265
12825SOL    HW140314  12.538   0.999   3.290
12825SOL    HW240315  12.414   1.061   3.228
12826SOL     OW40316   9.623   3.957  12.080
12826SOL    HW140317   9.592   3.991  12.164
12826SOL    HW240318   9.712   3.926  12.098
12827SOL     OW40319   6.561  13.617   0.509
12827SOL    HW140320   6.474  13.643   0.481
12827SOL    HW240321   6.566  13.645   0.600
12828SOL     OW40322   5.904   6.800  11.120
12828SOL    HW140323   5.840   6.870  11.126
12828SOL    HW240324   5.857   6.728  11.079
12829SOL     OW40325   4.461   6.854  11.435
12829SOL    HW140326   4.552   6.873  11.415
12829SOL    HW240327   4.414   6.874  11.354
12830SOL     OW40328   7.501  10.666   5.680
12830SOL    HW140329   7.492  10.593   5.619
12830SOL    HW240330   7.535  10.738   5.627
12831SOL     OW40331   3.297  13.425   6.854
12831SOL    HW140332   3.287  13.496   6.791
12831SOL    HW240333   3.361  13.458   6.917
12832SOL     OW40334   9.559   8.357   6.981
12832SOL    HW140335   9.648   8.380   7.008
12832SOL    HW240336   9.570   8.290   6.915
12833SOL     OW40337  12.046  10.124   8.492
12833SOL    HW140338  12.127  10.138   8.444
12833SOL    HW240339  12.024  10.032   8.475
12834SOL     OW40340  13.800  10.849   1.594
12834SOL    HW140341  13.827  10.902   1.669
12834SOL    HW240342  13.769  10.767   1.633
12835SOL     OW40343   8.977   1.013   0.474
12835SOL    HW140344   9.011   0.924   0.467
12835SOL    HW240345   8.974   1.030   0.568
12836SOL     OW40346  10.335   5.917  13.400
12836SOL    HW140347  10.418   5.962  13.387
12836SOL    HW240348  10.345   5.834  13.352
12837SOL     OW40349  13.466  13.685   8.026
12837SOL    HW140350  13.471  13.771   8.067
12837SOL    HW240351  13.450  13.624   8.098
12838SOL     OW40352   1.313   3.890   7.572
12838SOL    HW140353   1.388   3.932   7.528
12838SOL    HW240354   1.321   3.798   7.549
12839SOL     OW40355   8.455   6.828  10.265
12839SOL    HW140356   8.543   6.792  10.275
12839SOL    HW240357   8.399   6.770  10.316
12840SOL     OW40358   7.241   1.719  10.402
12840SOL    HW140359   7.159   1.713  10.451
12840SOL    HW240360   7.259   1.629  10.375
12841SOL     OW40361  11.115   9.111   7.417
12841SOL    HW140362  11.138   9.066   7.498
12841SOL    HW240363  11.102   9.040   7.353
12842SOL     OW40364   7.854   2.721  12.001
12842SOL    HW140365   7.874   2.795  11.945
12842SOL    HW240366   7.765   2.736  12.031
12843SOL     OW40367   1.451  13.199   7.382
12843SOL    HW140368   1.487  13.285   7.362
12843SOL    HW240369   1.372  13.218   7.434
12844SOL     OW40370   6.269  10.249  14.261
12844SOL    HW140371   6.252  10.213  14.174
12844SOL    HW240372   6.201  10.210  14.317
12845SOL     OW40373   3.348   9.991   8.471
12845SOL    HW140374   3.391  10.017   8.552
12845SOL    HW240375   3.346   9.895   8.475
12846SOL     OW40376  10.010   0.582  14.716
12846SOL    HW140377  10.057   0.635  14.779
12846SOL    HW240378   9.953   0.526  14.769
12847SOL     OW40379   7.976   0.677  13.045
12847SOL    HW140380   8.046   0.741  13.057
12847SOL    HW240381   7.895   0.729  13.052
12848SOL     OW40382  11.366   9.415   2.042
12848SOL    HW140383  11.271   9.404   2.047
12848SOL    HW240384  11.401   9.329   2.068
12849SOL     OW40385  11.773   3.299  11.584
12849SOL    HW140386  11.864   3.322  11.565
12849SOL    HW240387  11.754   3.225  11.527
12850SOL     OW40388  13.046   8.877   9.203
12850SOL    HW140389  13.006   8.827   9.131
12850SOL    HW240390  12.972   8.906   9.256
12851SOL     OW40391  13.312   1.463   9.414
12851SOL    HW140392  13.398   1.451   9.375
12851SOL    HW240393  13.302   1.388   9.473
12852SOL     OW40394   6.093  12.813   6.196
12852SOL    HW140395   6.143  12.761   6.259
12852SOL    HW240396   6.071  12.752   6.126
12853SOL     OW40397   5.341  10.979   7.064
12853SOL    HW140398   5.432  11.004   7.045
12853SOL    HW240399   5.349  10.898   7.114
12854SOL     OW40400  12.085  13.380   6.239
12854SOL    HW140401  12.050  13.460   6.278
12854SOL    HW240402  12.077  13.315   6.309
12855SOL     OW40403   5.985   5.274   0.569
12855SOL    HW140404   5.982   5.187   0.530
12855SOL    HW240405   5.976   5.334   0.495
12856SOL     OW40406  11.077   7.394   3.589
12856SOL    HW140407  11.069   7.482   3.624
12856SOL    HW240408  11.117   7.343   3.660
12857SOL     OW40409  12.726  10.807   9.190
12857SOL    HW140410  12.785  10.862   9.139
12857SOL    HW240411  12.773  10.789   9.271
12858SOL     OW40412  13.043   2.203  12.610
12858SOL    HW140413  12.989   2.231  12.684
12858SOL    HW240414  12.982   2.197  12.537
12859SOL     OW40415   7.677   4.506  10.108
12859SOL    HW140416   7.735   4.579  10.088
12859SOL    HW240417   7.592   4.532  10.074
12860SOL     OW40418   3.796   8.458  11.678
12860SOL    HW140419   3.886   8.433  11.699
12860SOL    HW240420   3.785   8.544  11.719
12861SOL     OW40421  10.747   6.233   6.507
12861SOL    HW140422  10.770   6.206   6.596
12861SOL    HW240423  10.736   6.150   6.459
12862SOL     OW40424  10.453  13.230   9.872
12862SOL    HW140425  10.451  13.227   9.776
12862SOL    HW240426  10.526  13.173   9.896
12863SOL     OW40427   6.798   4.689  14.728
12863SOL    HW140428   6.834   4.665  14.643
12863SOL    HW240429   6.715   4.734  14.707
12864SOL     OW40430   5.632   2.348  10.306
12864SOL    HW140431   5.704   2.357  10.368
12864SOL    HW240432   5.672   2.362  10.220
12865SOL     OW40433   3.565   9.307   8.107
12865SOL    HW140434   3.516   9.320   8.025
12865SOL    HW240435   3.509   9.250   8.160
12866SOL     OW40436   5.687  13.974   4.811
12866SOL    HW140437   5.687  13.878   4.812
12866SOL    HW240438   5.777  13.998   4.793
12867SOL     OW40439  11.231  14.337   7.066
12867SOL    HW140440  11.221  14.372   6.977
12867SOL    HW240441  11.279  14.404   7.113
12868SOL     OW40442   3.657  10.541   8.821
12868SOL    HW140443   3.589  10.559   8.887
12868SOL    HW240444   3.739  10.548   8.869
12869SOL     OW40445   6.631  14.771   2.779
12869SOL    HW140446   6.704  14.778   2.718
12869SOL    HW240447   6.672  14.754   2.864
12870SOL     OW40448   8.818   3.589   0.087
12870SOL    HW140449   8.830   3.684   0.086
12870SOL    HW240450   8.724   3.577   0.098
12871SOL     OW40451  14.816   5.968  11.704
12871SOL    HW140452  14.832   5.958  11.610
12871SOL    HW240453   0.015   5.939  11.745
12872SOL     OW40454   7.811   7.873  12.861
12872SOL    HW140455   7.877   7.880  12.793
12872SOL    HW240456   7.827   7.788  12.902
12873SOL     OW40457   1.201   9.983   1.430
12873SOL    HW140458   1.113  10.015   1.410
12873SOL    HW240459   1.253  10.062   1.445
12874SOL     OW40460  11.998   0.108   0.964
12874SOL    HW140461  12.023   0.182   1.020
12874SOL    HW240462  12.080   0.080   0.923
12875SOL     OW40463  12.068   9.583   5.679
12875SOL    HW140464  12.053   9.495   5.644
12875SOL    HW240465  12.046   9.642   5.608
12876SOL     OW40466   2.210   8.425   7.593
12876SOL    HW140467   2.202   8.474   7.512
12876SOL    HW240468   2.301   8.393   7.593
12877SOL     OW40469   3.374   2.008   3.855
12877SOL    HW140470   3.449   1.994   3.797
12877SOL    HW240471   3.341   2.094   3.831
12878SOL     OW40472  11.067  10.085   0.401
12878SOL    HW140473  11.116  10.009   0.432
12878SOL    HW240474  11.105  10.104   0.315
12879SOL     OW40475   4.333   5.252   1.577
12879SOL    HW140476   4.317   5.346   1.583
12879SOL    HW240477   4.266   5.213   1.633
12880SOL     OW40478   7.776   5.295  12.143
12880SOL    HW140479   7.782   5.284  12.048
12880SOL    HW240480   7.766   5.390  12.155
12881SOL     OW40481   2.270   9.218   8.776
12881SOL    HW140482   2.351   9.251   8.739
12881SOL    HW240483   2.211   9.207   8.701
12882SOL     OW40484   9.693   3.001  13.937
12882SOL    HW140485   9.762   2.989  13.872
12882SOL    HW240486   9.628   3.056  13.893
12883SOL     OW40487   0.988  13.100   7.283
12883SOL    HW140488   0.980  13.189   7.316
12883SOL    HW240489   1.074  13.097   7.241
12884SOL     OW40490   4.790   7.188   2.593
12884SOL    HW140491   4.789   7.276   2.630
12884SOL    HW240492   4.799   7.129   2.668
12885SOL     OW40493   9.360  13.589  11.671
12885SOL    HW140494   9.452  13.613  11.677
12885SOL    HW240495   9.331  13.579  11.761
12886SOL     OW40496   0.564   2.136  13.523
12886SOL    HW140497   0.572   2.182  13.440
12886SOL    HW240498   0.625   2.063  13.516
12887SOL     OW40499  12.841   0.508   9.076
12887SOL    HW140500  12.859   0.423   9.116
12887SOL    HW240501  12.808   0.562   9.148
12888SOL     OW40502  13.778  11.797  12.116
12888SOL    HW140503  13.837  11.727  12.090
12888SOL    HW240504  13.694  11.753  12.131
12889SOL     OW40505   3.287   3.935   8.108
12889SOL    HW140506   3.260   3.895   8.025
12889SOL    HW240507   3.379   3.958   8.095
12890SOL     OW40508  14.638  10.044  11.535
12890SOL    HW140509  14.584  10.076  11.462
12890SOL    HW240510  14.582  10.056  11.612
12891SOL     OW40511   7.660  11.912   3.155
12891SOL    HW140512   7.601  11.848   3.194
12891SOL    HW240513   7.671  11.979   3.222
12892SOL     OW40514  12.318   7.471   9.229
12892SOL    HW140515  12.386   7.494   9.292
12892SOL    HW240516  12.264   7.550   9.222
12893SOL     OW40517   8.961   8.681  10.090
12893SOL    HW140518   9.054   8.698  10.076
12893SOL    HW240519   8.917   8.732  10.022
12894SOL     OW40520   5.161   3.611   2.742
12894SOL    HW140521   5.189   3.531   2.786
12894SOL    HW240522   5.066   3.604   2.738
12895SOL     OW40523   5.187   1.959   1.205
12895SOL    HW140524   5.248   1.935   1.134
12895SOL    HW240525   5.111   1.904   1.191
12896SOL     OW40526  14.087  10.370   2.591
12896SOL    HW140527  14.153  10.341   2.528
12896SOL    HW240528  14.024  10.298   2.595
12897SOL     OW40529   8.103  14.171   6.120
12897SOL    HW140530   8.105  14.080   6.150
12897SOL    HW240531   8.184  14.181   6.070
12898SOL     OW40532   3.166   4.294   0.618
12898SOL    HW140533   3.073   4.272   0.617
12898SOL    HW240534   3.174   4.368   0.557
12899SOL     OW40535   1.348  13.626   9.414
12899SOL    HW140536   1.392  13.550   9.375
12899SOL    HW240537   1.419  13.688   9.433
12900SOL     OW40538  13.385   0.650   5.408
12900SOL    HW140539  13.322   0.719   5.431
12900SOL    HW240540  13.331   0.576   5.382
12901SOL     OW40541  13.665   5.914   9.962
12901SOL    HW140542  13.665   6.004   9.997
12901SOL    HW240543  13.600   5.868  10.015
12902SOL     OW40544   2.934   7.189   7.687
12902SOL    HW140545   2.941   7.209   7.594
12902SOL    HW240546   2.914   7.095   7.690
12903SOL     OW40547  10.130   3.297  13.521
12903SOL    HW140548  10.151   3.375  13.469
12903SOL    HW240549  10.085   3.239  13.460
12904SOL     OW40550   2.153   3.500   2.577
12904SOL    HW140551   2.136   3.410   2.551
12904SOL    HW240552   2.208   3.535   2.507
12905SOL     OW40553   9.185   4.298   7.529
12905SOL    HW140554   9.219   4.377   7.571
12905SOL    HW240555   9.146   4.329   7.447
12906SOL     OW40556   8.981  14.843   7.680
12906SOL    HW140557   9.039  14.871   7.751
12906SOL    HW240558   9.007  14.752   7.663
12907SOL     OW40559  11.732   2.674   1.461
12907SOL    HW140560  11.812   2.685   1.512
12907SOL    HW240561  11.693   2.762   1.460
12908SOL     OW40562   0.738  11.316  11.491
12908SOL    HW140563   0.798  11.365  11.435
12908SOL    HW240564   0.771  11.330  11.580
12909SOL     OW40565  12.532  13.674   0.433
12909SOL    HW140566  12.582  13.637   0.506
12909SOL    HW240567  12.512  13.600   0.377
12910SOL     OW40568   2.356   0.048  13.675
12910SOL    HW140569   2.279   0.092  13.711
12910SOL    HW240570   2.348  14.839  13.703
12911SOL     OW40571   3.598   9.895   9.341
12911SOL    HW140572   3.620   9.818   9.394
12911SOL    HW240573   3.614   9.868   9.251
12912SOL     OW40574   5.129   8.714   9.763
12912SOL    HW140575   5.074   8.792   9.765
12912SOL    HW240576   5.120   8.680   9.674
12913SOL     OW40577   7.886   3.135  14.017
12913SOL    HW140578   7.797   3.166  14.001
12913SOL    HW240579   7.896   3.136  14.112
12914SOL     OW40580  13.540   8.571   8.425
12914SOL    HW140581  13.596   8.648   8.432
12914SOL    HW240582  13.536   8.553   8.331
12915SOL     OW40583   6.837   1.174   0.069
12915SOL    HW140584   6.799   1.176  14.863
12915SOL    HW240585   6.764   1.154   0.126
12916SOL     OW40586  14.401   3.272   9.647
12916SOL    HW140587  14.438   3.337   9.587
12916SOL    HW240588  14.350   3.215   9.590
12917SOL     OW40589  11.349   8.674   5.175
12917SOL    HW140590  11.406   8.597   5.168
12917SOL    HW240591  11.360   8.720   5.092
12918SOL     OW40592   1.359  12.169   8.148
12918SOL    HW140593   1.306  12.122   8.213
12918SOL    HW240594   1.364  12.109   8.074
12919SOL     OW40595  14.705   9.422  13.124
12919SOL    HW140596  14.686   9.417  13.218
12919SOL    HW240597  14.741   9.336  13.103
12920SOL     OW40598   0.708  10.426  11.655
12920SOL    HW140599   0.730  10.470  11.573
12920SOL    HW240600   0.674  10.340  11.627
12921SOL     OW40601  12.681   1.715  13.219
12921SOL    HW140602  12.722   1.750  13.297
12921SOL    HW240603  12.676   1.620  13.234
12922SOL     OW40604   0.921  10.502   5.010
12922SOL    HW140605   0.886  10.418   5.040
12922SOL    HW240606   1.015  10.497   5.028
12923SOL     OW40607   4.486   3.336  13.872
12923SOL    HW140608   4.431   3.261  13.850
12923SOL    HW240609   4.573   3.311  13.841
12924SOL     OW40610  11.091   1.093   0.093
12924SOL    HW140611  11.076   1.132   0.008
12924SOL    HW240612  11.111   1.168   0.151
12925SOL     OW40613  13.496  10.950   0.043
12925SOL    HW140614  13.524  10.884  14.861
12925SOL    HW240615  13.472  10.900   0.120
12926SOL     OW40616  10.973  12.338  14.298
12926SOL    HW140617  10.953  12.330  14.205
12926SOL    HW240618  10.947  12.255  14.336
12927SOL     OW40619   9.326  11.924  13.157
12927SOL    HW140620   9.289  11.962  13.237
12927SOL    HW240621   9.258  11.936  13.091
12928SOL     OW40622  11.875  13.232  13.688
12928SOL    HW140623  11.862  13.327  13.685
12928SOL    HW240624  11.889  13.207  13.597
12929SOL     OW40625  11.647   0.120   6.213
12929SOL    HW140626  11.698   0.111   6.133
12929SOL    HW240627  11.624   0.213   6.216
12930SOL     OW40628   5.098   7.205  12.002
12930SOL    HW140629   5.069   7.198  11.912
12930SOL    HW240630   5.017   7.213  12.053
12931SOL     OW40631   3.529  13.440   9.385
12931SOL    HW140632   3.529  13.418   9.478
12931SOL    HW240633   3.442  13.414   9.354
12932SOL     OW40634   7.986   0.110   5.916
12932SOL    HW140635   7.904   0.095   5.867
12932SOL    HW240636   7.977   0.055   5.994
12933SOL     OW40637  11.163  11.137   5.731
12933SOL    HW140638  11.142  11.047   5.757
12933SOL    HW240639  11.256  11.134   5.707
12934SOL     OW40640   9.427   8.108   4.740
12934SOL    HW140641   9.460   8.100   4.829
12934SOL    HW240642   9.345   8.158   4.750
12935SOL     OW40643  12.789   8.408   7.368
12935SOL    HW140644  12.791   8.341   7.436
12935SOL    HW240645  12.844   8.478   7.402
12936SOL     OW40646   5.542  13.861   9.163
12936SOL    HW140647   5.462  13.819   9.132
12936SOL    HW240648   5.519  13.895   9.250
12937SOL     OW40649   2.403   2.746   6.177
12937SOL    HW140650   2.496   2.764   6.177
12937SOL    HW240651   2.392   2.676   6.112
12938SOL     OW40652   4.620   7.041   6.976
12938SOL    HW140653   4.709   7.007   6.969
12938SOL    HW240654   4.590   7.010   7.061
12939SOL     OW40655  11.039   5.450   1.781
12939SOL    HW140656  10.967   5.467   1.842
12939SOL    HW240657  11.117   5.449   1.835
12940SOL     OW40658  12.463  10.877  11.191
12940SOL    HW140659  12.507  10.865  11.275
12940SOL    HW240660  12.422  10.963  11.197
12941SOL     OW40661   1.801  11.816   6.518
12941SOL    HW140662   1.708  11.837   6.506
12941SOL    HW240663   1.829  11.781   6.434
12942SOL     OW40664  14.520  14.765   7.372
12942SOL    HW140665  14.429  14.794   7.368
12942SOL    HW240666  14.526  14.714   7.453
12943SOL     OW40667  12.849   2.278   6.500
12943SOL    HW140668  12.794   2.347   6.463
12943SOL    HW240669  12.811   2.261   6.587
12944SOL     OW40670   7.368   3.144   4.551
12944SOL    HW140671   7.433   3.129   4.619
12944SOL    HW240672   7.322   3.224   4.578
12945SOL     OW40673   3.964   5.736  11.143
12945SOL    HW140674   3.941   5.823  11.110
12945SOL    HW240675   4.046   5.714  11.098
12946SOL     OW40676   7.016   1.575   2.597
12946SOL    HW140677   7.079   1.529   2.541
12946SOL    HW240678   6.952   1.508   2.621
12947SOL     OW40679  10.431   7.366  10.585
12947SOL    HW140680  10.492   7.384  10.514
12947SOL    HW240681  10.421   7.450  10.630
12948SOL     OW40682   6.576  12.795   7.356
12948SOL    HW140683   6.551  12.783   7.264
12948SOL    HW240684   6.652  12.738   7.367
12949SOL     OW40685   6.660  14.253   3.871
12949SOL    HW140686   6.737  14.211   3.911
12949SOL    HW240687   6.618  14.300   3.942
12950SOL     OW40688   7.706  10.324   3.506
12950SOL    HW140689   7.639  10.330   3.573
12950SOL    HW240690   7.670  10.264   3.440
12951SOL     OW40691   3.027  10.856   8.072
12951SOL    HW140692   3.109  10.905   8.082
12951SOL    HW240693   3.018  10.843   7.978
12952SOL     OW40694   9.858   8.813   4.089
12952SOL    HW140695   9.765   8.806   4.107
12952SOL    HW240696   9.895   8.729   4.117
12953SOL     OW40697   7.649   1.926  12.561
12953SOL    HW140698   7.706   1.899  12.633
12953SOL    HW240699   7.568   1.954  12.604
12954SOL     OW40700   8.614   3.858   5.663
12954SOL    HW140701   8.551   3.788   5.646
12954SOL    HW240702   8.673   3.821   5.729
12955SOL     OW40703   6.408   7.138   0.757
12955SOL    HW140704   6.454   7.113   0.678
12955SOL    HW240705   6.412   7.061   0.813
12956SOL     OW40706  12.940   0.647  14.080
12956SOL    HW140707  12.979   0.609  14.158
12956SOL    HW240708  12.877   0.711  14.113
12957SOL     OW40709   7.629   9.851   8.592
12957SOL    HW140710   7.540   9.815   8.592
12957SOL    HW240711   7.663   9.832   8.680
12958SOL     OW40712   5.551   1.780   4.392
12958SOL    HW140713   5.483   1.773   4.324
12958SOL    HW240714   5.553   1.874   4.414
12959SOL     OW40715   7.241  13.536  10.701
12959SOL    HW140716   7.329  13.573  10.709
12959SOL    HW240717   7.240  13.494  10.615
12960SOL     OW40718   7.956   9.323  10.740
12960SOL    HW140719   8.003   9.245  10.711
12960SOL    HW240720   8.025   9.386  10.761
12961SOL     OW40721   2.749   6.581  11.336
12961SOL    HW140722   2.656   6.558  11.347
12961SOL    HW240723   2.775   6.535  11.256
12962SOL     OW40724  12.715   2.324  14.306
12962SOL    HW140725  12.759   2.409  14.304
12962SOL    HW240726  12.779   2.264  14.343
12963SOL     OW40727   8.499   8.902  13.965
12963SOL    HW140728   8.532   8.919  13.877
12963SOL    HW240729   8.499   8.988  14.008
12964SOL     OW40730   5.451   5.133  13.806
12964SOL    HW140731   5.394   5.057  13.822
12964SOL    HW240732   5.448   5.182  13.889
12965SOL     OW40733   0.831   3.220   2.271
12965SOL    HW140734   0.777   3.197   2.196
12965SOL    HW240735   0.914   3.248   2.233
12966SOL     OW40736  10.119  11.718  12.672
12966SOL    HW140737  10.027  11.729  12.649
12966SOL    HW240738  10.158  11.804  12.659
12967SOL     OW40739  11.769  14.524   7.108
12967SOL    HW140740  11.768  14.492   7.199
12967SOL    HW240741  11.766  14.445   7.055
12968SOL     OW40742   4.560   6.059   2.374
12968SOL    HW140743   4.529   6.098   2.456
12968SOL    HW240744   4.503   6.094   2.307
12969SOL     OW40745   3.117   1.777   5.865
12969SOL    HW140746   3.189   1.830   5.831
12969SOL    HW240747   3.140   1.760   5.956
12970SOL     OW40748   2.825  12.875  10.054
12970SOL    HW140749   2.868  12.921   9.982
12970SOL    HW240750   2.860  12.786  10.050
12971SOL     OW40751   1.804   9.744   4.289
12971SOL    HW140752   1.840   9.704   4.211
12971SOL    HW240753   1.875   9.798   4.324
12972SOL     OW40754   3.538   1.280   8.215
12972SOL    HW140755   3.496   1.270   8.130
12972SOL    HW240756   3.562   1.373   8.219
12973SOL     OW40757  10.343   6.459  11.741
12973SOL    HW140758  10.395   6.498  11.812
12973SOL    HW240759  10.316   6.533  11.687
12974SOL     OW40760   8.194   5.336   0.980
12974SOL    HW140761   8.216   5.254   0.935
12974SOL    HW240762   8.099   5.343   0.969
12975SOL     OW40763   8.976  11.047   2.907
12975SOL    HW140764   8.917  11.065   2.833
12975SOL    HW240765   8.976  10.952   2.916
12976SOL     OW40766  14.586  11.458   1.533
12976SOL    HW140767  14.596  11.369   1.569
12976SOL    HW240768  14.602  11.448   1.440
12977SOL     OW40769  13.791   0.234  10.994
12977SOL    HW140770  13.801   0.142  10.971
12977SOL    HW240771  13.880   0.270  10.989
12978SOL     OW40772   0.280   0.474  13.093
12978SOL    HW140773   0.346   0.464  13.161
12978SOL    HW240774   0.311   0.546  13.039
12979SOL     OW40775  12.850   0.898   0.935
12979SOL    HW140776  12.846   0.976   0.991
12979SOL    HW240777  12.930   0.853   0.962
12980SOL     OW40778  11.977   2.178   6.363
12980SOL    HW140779  12.037   2.249   6.340
12980SOL    HW240780  11.902   2.190   6.304
12981SOL     OW40781  11.616   1.515   7.252
12981SOL    HW140782  11.621   1.606   7.280
12981SOL    HW240783  11.614   1.520   7.156
12982SOL     OW40784   9.709  13.247   9.904
12982SOL    HW140785   9.668  13.255   9.990
12982SOL    HW240786   9.775  13.316   9.902
12983SOL     OW40787   3.290   1.221   0.415
12983SOL    HW140788   3.370   1.271   0.432
12983SOL    HW240789   3.297   1.145   0.473
12984SOL     OW40790   5.095   7.478   6.203
12984SOL    HW140791   5.032   7.444   6.140
12984SOL    HW240792   5.052   7.470   6.288
12985SOL     OW40793  10.405   4.062  10.082
12985SOL    HW140794  10.402   4.002  10.008
12985SOL    HW240795  10.359   4.140  10.052
12986SOL     OW40796  10.619   2.370  11.962
12986SOL    HW140797  10.571   2.293  11.931
12986SOL    HW240798  10.584   2.387  12.050
12987SOL     OW40799   1.681  13.067  12.732
12987SOL    HW140800   1.603  13.051  12.786
12987SOL    HW240801   1.646  13.089  12.645
12988SOL     OW40802   9.562   9.527   3.779
12988SOL    HW140803   9.655   9.534   3.797
12988SOL    HW240804   9.556   9.463   3.708
12989SOL     OW40805   4.753   6.267  12.700
12989SOL    HW140806   4.799   6.344  12.668
12989SOL    HW240807   4.822   6.210  12.734
12990SOL     OW40808   5.645   8.860   5.822
12990SOL    HW140809   5.621   8.803   5.895
12990SOL    HW240810   5.565   8.868   5.771
12991SOL     OW40811   1.362   0.382  11.180
12991SOL    HW140812   1.341   0.293  11.207
12991SOL    HW240813   1.436   0.407  11.235
12992SOL     OW40814   5.422  11.425   0.876
12992SOL    HW140815   5.428  11.409   0.782
12992SOL    HW240816   5.512  11.446   0.902
12993SOL     OW40817   5.238   4.555  13.687
12993SOL    HW140818   5.167   4.501  13.722
12993SOL    HW240819   5.316   4.527  13.736
12994SOL     OW40820  14.484  13.805  12.373
12994SOL    HW140821  14.477  13.861  12.295
12994SOL    HW240822  14.556  13.745  12.354
12995SOL     OW40823   8.666  10.142  10.424
12995SOL    HW140824   8.604  10.206  10.390
12995SOL    HW240825   8.629  10.057  10.401
12996SOL     OW40826   4.567  12.938   2.141
12996SOL    HW140827   4.572  12.953   2.235
12996SOL    HW240828   4.601  12.849   2.130
12997SOL     OW40829  11.427   0.124   9.577
12997SOL    HW140830  11.510   0.077   9.586
12997SOL    HW240831  11.445   0.193   9.512
12998SOL     OW40832  12.854   6.690  11.214
12998SOL    HW140833  12.890   6.612  11.256
12998SOL    HW240834  12.806   6.736  11.283
12999SOL     OW40835  10.385   9.967   7.161
12999SOL    HW140836  10.425   9.974   7.248
12999SOL    HW240837  10.437   9.900   7.116
13000SOL     OW40838   6.410  10.929   9.760
13000SOL    HW140839   6.428  11.023   9.749
13000SOL    HW240840   6.318  10.920   9.735
13001SOL     OW40841   8.080   8.857   8.853
13001SOL    HW140842   8.118   8.826   8.770
13001SOL    HW240843   8.109   8.793   8.918
13002SOL     OW40844  13.928  14.675  14.680
13002SOL    HW140845  14.005  14.658  14.626
13002SOL    HW240846  13.858  14.693  14.617
13003SOL     OW40847  13.012   4.690  14.227
13003SOL    HW140848  13.021   4.756  14.159
13003SOL    HW240849  13.064   4.616  14.196
13004SOL     OW40850   3.929   2.718   3.241
13004SOL    HW140851   3.854   2.743   3.187
13004SOL    HW240852   3.907   2.751   3.329
13005SOL     OW40853  11.430  13.679   1.959
13005SOL    HW140854  11.449  13.589   1.933
13005SOL    HW240855  11.495  13.699   2.026
13006SOL     OW40856   8.968   9.935   4.784
13006SOL    HW140857   8.950  10.000   4.716
13006SOL    HW240858   9.007   9.861   4.736
13007SOL     OW40859  13.326   6.904   3.192
13007SOL    HW140860  13.412   6.902   3.234
13007SOL    HW240861  13.275   6.837   3.237
13008SOL     OW40862   7.459   2.240   4.633
13008SOL    HW140863   7.437   2.230   4.540
13008SOL    HW240864   7.380   2.277   4.672
13009SOL     OW40865  11.384   9.467   9.082
13009SOL    HW140866  11.297   9.503   9.096
13009SOL    HW240867  11.416   9.511   9.004
13010SOL     OW40868   9.032  14.261   7.917
13010SOL    HW140869   8.980  14.283   7.995
13010SOL    HW240870   9.115  14.309   7.930
13011SOL     OW40871   6.814   9.957   7.853
13011SOL    HW140872   6.791  10.018   7.783
13011SOL    HW240873   6.740   9.897   7.858
13012SOL     OW40874   6.634  13.642   0.217
13012SOL    HW140875   6.639  13.735   0.194
13012SOL    HW240876   6.598  13.641   0.306
13013SOL     OW40877   7.916   9.299   8.022
13013SOL    HW140878   7.987   9.346   8.065
13013SOL    HW240879   7.887   9.358   7.953
13014SOL     OW40880   1.485   2.790   4.559
13014SOL    HW140881   1.529   2.747   4.632
13014SOL    HW240882   1.397   2.811   4.593
13015SOL     OW40883   8.734   6.482  12.823
13015SOL    HW140884   8.679   6.520  12.891
13015SOL    HW240885   8.821   6.479  12.862
13016SOL     OW40886  13.423   4.137   4.076
13016SOL    HW140887  13.372   4.191   4.015
13016SOL    HW240888  13.500   4.110   4.026
13017SOL     OW40889   2.634  14.688   1.974
13017SOL    HW140890   2.541  14.672   1.989
13017SOL    HW240891   2.678  14.635   2.040
13018SOL     OW40892  10.757   7.956   8.058
13018SOL    HW140893  10.691   8.009   8.012
13018SOL    HW240894  10.754   7.988   8.148
13019SOL     OW40895  12.496  13.264   4.126
13019SOL    HW140896  12.498  13.202   4.198
13019SOL    HW240897  12.453  13.217   4.054
13020SOL     OW40898  13.333  13.157   6.175
13020SOL    HW140899  13.323  13.252   6.181
13020SOL    HW240900  13.356  13.129   6.264
13021SOL     OW40901  13.893   5.889  12.331
13021SOL    HW140902  13.800   5.873  12.317
13021SOL    HW240903  13.929   5.804  12.357
13022SOL     OW40904  11.825  12.631   9.999
13022SOL    HW140905  11.806  12.588  10.082
13022SOL    HW240906  11.878  12.567   9.951
13023SOL     OW40907  12.451   2.184   0.628
13023SOL    HW140908  12.545   2.167   0.638
13023SOL    HW240909  12.416   2.177   0.717
13024SOL     OW40910   4.797   3.579   8.893
13024SOL    HW140911   4.735   3.607   8.825
13024SOL    HW240912   4.874   3.549   8.845
13025SOL     OW40913  10.317   3.694   9.210
13025SOL    HW140914  10.361   3.756   9.269
13025SOL    HW240915  10.251   3.747   9.165
13026SOL     OW40916   9.018  13.050   1.497
13026SOL    HW140917   8.988  13.141   1.497
13026SOL    HW240918   9.107  13.053   1.534
13027SOL     OW40919   1.183  10.292   9.590
13027SOL    HW140920   1.108  10.248   9.549
13027SOL    HW240921   1.259  10.240   9.562
13028SOL     OW40922   6.115   7.964   7.773
13028SOL    HW140923   6.135   8.057   7.771
13028SOL    HW240924   6.039   7.957   7.831
13029SOL     OW40925   3.987  13.481  12.630
13029SOL    HW140926   4.069  13.444  12.598
13029SOL    HW240927   4.013  13.543  12.698
13030SOL     OW40928   1.122  13.193  13.833
13030SOL    HW140929   1.072  13.193  13.915
13030SOL    HW240930   1.209  13.162  13.858
13031SOL     OW40931   2.551  13.551   0.649
13031SOL    HW140932   2.620  13.591   0.702
13031SOL    HW240933   2.574  13.458   0.645
13032SOL     OW40934  11.737  13.782  13.014
13032SOL    HW140935  11.809  13.747  12.962
13032SOL    HW240936  11.658  13.748  12.972
13033SOL     OW40937   2.550   8.009   8.755
13033SOL    HW140938   2.642   7.994   8.733
13033SOL    HW240939   2.502   7.948   8.700
13034SOL     OW40940   6.968   4.458  10.997
13034SOL    HW140941   6.896   4.520  10.984
13034SOL    HW240942   6.962   4.398  10.923
13035SOL     OW40943   3.614   0.176   0.741
13035SOL    HW140944   3.577   0.121   0.672
13035SOL    HW240945   3.613   0.120   0.819
13036SOL     OW40946   0.801   2.311   6.175
13036SOL    HW140947   0.875   2.310   6.114
13036SOL    HW240948   0.842   2.312   6.262
13037SOL     OW40949   6.363   0.267  12.693
13037SOL    HW140950   6.300   0.236  12.758
13037SOL    HW240951   6.396   0.188  12.651
13038SOL     OW40952  10.222   2.249   3.170
13038SOL    HW140953  10.290   2.292   3.221
13038SOL    HW240954  10.150   2.313   3.166
13039SOL     OW40955  14.266   4.113   9.925
13039SOL    HW140956  14.242   4.185   9.867
13039SOL    HW240957  14.211   4.125  10.002
13040SOL     OW40958   2.388   4.089   0.477
13040SOL    HW140959   2.310   4.108   0.529
13040SOL    HW240960   2.460   4.088   0.541
13041SOL     OW40961   5.895  12.960  11.637
13041SOL    HW140962   5.888  12.954  11.732
13041SOL    HW240963   5.817  13.008  11.610
13042SOL     OW40964   3.214   6.388  13.195
13042SOL    HW140965   3.205   6.330  13.119
13042SOL    HW240966   3.197   6.331  13.270
13043SOL     OW40967  14.409  13.707   8.083
13043SOL    HW140968  14.367  13.621   8.078
13043SOL    HW240969  14.460  13.714   8.002
13044SOL     OW40970   4.708  10.020   6.268
13044SOL    HW140971   4.726  10.095   6.210
13044SOL    HW240972   4.679  10.060   6.350
13045SOL     OW40973   4.238  12.496   9.677
13045SOL    HW140974   4.242  12.547   9.759
13045SOL    HW240975   4.165  12.436   9.690
13046SOL     OW40976  12.899   3.879  14.762
13046SOL    HW140977  12.812   3.905  14.732
13046SOL    HW240978  12.901   3.905  14.854
13047SOL     OW40979  10.646   0.281   7.693
13047SOL    HW140980  10.711   0.347   7.670
13047SOL    HW240981  10.562   0.326   7.684
13048SOL     OW40982   6.505   4.338   8.083
13048SOL    HW140983   6.462   4.327   8.168
13048SOL    HW240984   6.438   4.377   8.027
13049SOL     OW40985  10.282   3.473  10.229
13049SOL    HW140986  10.284   3.567  10.209
13049SOL    HW240987  10.374   3.448  10.236
13050SOL     OW40988  12.113   8.107   4.670
13050SOL    HW140989  12.134   8.036   4.730
13050SOL    HW240990  12.116   8.067   4.583
13051SOL     OW40991   6.703   8.466   6.423
13051SOL    HW140992   6.695   8.390   6.366
13051SOL    HW240993   6.654   8.443   6.502
13052SOL     OW40994   4.713  14.149   5.073
13052SOL    HW140995   4.636  14.112   5.117
13052SOL    HW240996   4.773  14.172   5.144
13053SOL     OW40997  13.541   6.435   4.529
13053SOL    HW140998  13.595   6.514   4.534
13053SOL    HW240999  13.470   6.458   4.469
13054SOL     OW41000  12.578   9.590   9.110
13054SOL    HW141001  12.532   9.674   9.108
13054SOL    HW241002  12.508   9.524   9.103
13055SOL     OW41003   0.348  14.653   4.948
13055SOL    HW141004   0.286  14.697   4.890
13055SOL    HW241005   0.313  14.564   4.959
13056SOL     OW41006   2.330   1.569   2.360
13056SOL    HW141007   2.313   1.655   2.399
13056SOL    HW241008   2.356   1.589   2.269
13057SOL     OW41009   7.965   9.040  10.767
13057SOL    HW141010   8.029   8.970  10.752
13057SOL    HW241011   7.892   9.018  10.709
13058SOL     OW41012  10.906   7.792   1.999
13058SOL    HW141013  10.917   7.805   1.905
13058SOL    HW241014  10.995   7.774   2.031
13059SOL     OW41015  14.410  11.034   4.294
13059SOL    HW141016  14.325  11.068   4.267
13059SOL    HW241017  14.392  10.984   4.374
13060SOL     OW41018  13.613   2.036   6.148
13060SOL    HW141019  13.620   2.113   6.091
13060SOL    HW241020  13.520   2.014   6.146
13061SOL     OW41021   4.265   4.617  12.426
13061SOL    HW141022   4.313   4.664  12.494
13061SOL    HW241023   4.228   4.541  12.470
13062SOL     OW41024  13.314  11.243  11.022
13062SOL    HW141025  13.312  11.257  11.117
13062SOL    HW241026  13.283  11.154  11.010
13063SOL     OW41027   4.401  12.614  14.360
13063SOL    HW141028   4.400  12.630  14.266
13063SOL    HW241029   4.309  12.598  14.382
13064SOL     OW41030  11.209   3.268   7.292
13064SOL    HW141031  11.281   3.249   7.352
13064SOL    HW241032  11.246   3.250   7.205
13065SOL     OW41033   0.761   2.449   1.652
13065SOL    HW141034   0.667   2.468   1.648
13065SOL    HW241035   0.772   2.371   1.599
13066SOL     OW41036  14.360   7.938   3.411
13066SOL    HW141037  14.317   7.960   3.494
13066SOL    HW241038  14.299   7.970   3.344
13067SOL     OW41039   2.985  13.236   6.252
13067SOL    HW141040   2.954  13.223   6.162
13067SOL    HW241041   2.962  13.154   6.297
13068SOL     OW41042   1.181   8.320   6.230
13068SOL    HW141043   1.213   8.317   6.320
13068SOL    HW241044   1.130   8.401   6.225
13069SOL     OW41045   2.489   1.780   1.165
13069SOL    HW141046   2.518   1.839   1.235
13069SOL    HW241047   2.570   1.757   1.119
13070SOL     OW41048  12.037   6.013   0.582
13070SOL    HW141049  12.099   5.955   0.626
13070SOL    HW241050  12.093   6.070   0.528
13071SOL     OW41051   5.628   5.050   7.393
13071SOL    HW141052   5.714   5.074   7.358
13071SOL    HW241053   5.635   5.066   7.487
13072SOL     OW41054   5.655   0.617   2.567
13072SOL    HW141055   5.577   0.664   2.594
13072SOL    HW241056   5.652   0.535   2.616
13073SOL     OW41057  12.993   1.276   8.018
13073SOL    HW141058  12.963   1.225   7.943
13073SOL    HW241059  12.920   1.333   8.040
13074SOL     OW41060   8.788   9.863  13.669
13074SOL    HW141061   8.852   9.929  13.694
13074SOL    HW241062   8.761   9.887  13.580
13075SOL     OW41063  13.909   3.416  13.994
13075SOL    HW141064  13.870   3.502  14.010
13075SOL    HW241065  13.933   3.384  14.081
13076SOL     OW41066   2.170   1.493   8.632
13076SOL    HW141067   2.201   1.406   8.609
13076SOL    HW241068   2.202   1.507   8.721
13077SOL     OW41069  10.248   6.380   9.348
13077SOL    HW141070  10.343   6.396   9.346
13077SOL    HW241071  10.231   6.356   9.439
13078SOL     OW41072   7.478   7.740  11.119
13078SOL    HW141073   7.386   7.744  11.093
13078SOL    HW241074   7.519   7.682  11.055
13079SOL     OW41075   1.819  13.892   5.936
13079SOL    HW141076   1.889  13.897   5.871
13079SOL    HW241077   1.818  13.800   5.962
13080SOL     OW41078  13.388   7.282   5.397
13080SOL    HW141079  13.442   7.211   5.431
13080SOL    HW241080  13.449   7.335   5.344
13081SOL     OW41081  11.437  11.801  14.348
13081SOL    HW141082  11.389  11.720  14.329
13081SOL    HW241083  11.384  11.844  14.415
13082SOL     OW41084  14.292   5.171   5.657
13082SOL    HW141085  14.203   5.203   5.675
13082SOL    HW241086  14.337   5.181   5.741
13083SOL     OW41087  11.882   3.645   3.982
13083SOL    HW141088  11.876   3.639   3.886
13083SOL    HW241089  11.973   3.624   4.001
13084SOL     OW41090  14.205   1.950  11.465
13084SOL    HW141091  14.138   1.887  11.490
13084SOL    HW241092  14.285   1.919  11.507
13085SOL     OW41093  13.657   6.686  12.449
13085SOL    HW141094  13.600   6.609  12.451
13085SOL    HW241095  13.744   6.651  12.429
13086SOL     OW41096  13.298   8.435   0.427
13086SOL    HW141097  13.247   8.384   0.491
13086SOL    HW241098  13.363   8.481   0.479
13087SOL     OW41099  14.022   5.478   6.345
13087SOL    HW141100  13.955   5.527   6.297
13087SOL    HW241101  14.016   5.389   6.310
13088SOL     OW41102   4.889  10.489   3.813
13088SOL    HW141103   4.941  10.517   3.888
13088SOL    HW241104   4.921  10.400   3.794
13089SOL     OW41105   0.291   0.623   4.113
13089SOL    HW141106   0.213   0.669   4.143
13089SOL    HW241107   0.323   0.675   4.039
13090SOL     OW41108   2.018  14.523  12.736
13090SOL    HW141109   1.948  14.569  12.689
13090SOL    HW241110   1.972  14.470  12.801
13091SOL     OW41111   5.311   0.743   3.692
13091SOL    HW141112   5.324   0.660   3.645
13091SOL    HW241113   5.384   0.747   3.754
13092SOL     OW41114   2.739  11.049   7.345
13092SOL    HW141115   2.709  11.108   7.277
13092SOL    HW241116   2.660  11.007   7.379
13093SOL     OW41117   0.051   5.727  14.299
13093SOL    HW141118  14.877   5.690  14.367
13093SOL    HW241119   0.001   5.800  14.263
13094SOL     OW41120  12.158  13.131  14.447
13094SOL    HW141121  12.091  13.115  14.513
13094SOL    HW241122  12.241  13.124  14.494
13095SOL     OW41123   0.577   2.605   2.348
13095SOL    HW141124   0.602   2.583   2.438
13095SOL    HW241125   0.660   2.606   2.300
13096SOL     OW41126  14.814   9.440  12.458
13096SOL    HW141127   0.007   9.412  12.405
13096SOL    HW241128  14.841   9.422  12.549
13097SOL     OW41129  11.168   6.065   5.211
13097SOL    HW141130  11.093   6.037   5.158
13097SOL    HW241131  11.144   6.043   5.301
13098SOL     OW41132   8.641   4.812   6.814
13098SOL    HW141133   8.630   4.881   6.880
13098SOL    HW241134   8.667   4.735   6.864
13099SOL     OW41135   8.423  13.648  12.938
13099SOL    HW141136   8.445  13.619  12.850
13099SOL    HW241137   8.489  13.713  12.959
13100SOL     OW41138   1.331   4.115   8.073
13100SOL    HW141139   1.387   4.105   7.996
13100SOL    HW241140   1.268   4.043   8.066
13101SOL     OW41141   6.227   8.565  14.151
13101SOL    HW141142   6.252   8.574  14.059
13101SOL    HW241143   6.169   8.639  14.167
13102SOL     OW41144   1.767   8.600  10.632
13102SOL    HW141145   1.790   8.671  10.573
13102SOL    HW241146   1.803   8.627  10.717
13103SOL     OW41147  13.287   6.295   6.438
13103SOL    HW141148  13.223   6.322   6.372
13103SOL    HW241149  13.309   6.205   6.415
13104SOL     OW41150  12.251   2.013  10.163
13104SOL    HW141151  12.193   1.963  10.106
13104SOL    HW241152  12.269   2.093  10.114
13105SOL     OW41153   4.111  12.290   5.429
13105SOL    HW141154   4.102  12.292   5.524
13105SOL    HW241155   4.075  12.373   5.399
13106SOL     OW41156  10.241   6.311   4.934
13106SOL    HW141157  10.301   6.343   5.002
13106SOL    HW241158  10.154   6.320   4.974
13107SOL     OW41159  10.989   1.279   9.317
13107SOL    HW141160  10.998   1.239   9.403
13107SOL    HW241161  10.895   1.284   9.302
13108SOL     OW41162   5.245   7.530   8.847
13108SOL    HW141163   5.225   7.492   8.762
13108SOL    HW241164   5.223   7.623   8.838
13109SOL     OW41165  13.457   6.079   2.770
13109SOL    HW141166  13.454   6.100   2.677
13109SOL    HW241167  13.541   6.036   2.783
13110SOL     OW41168  11.836   0.640   2.522
13110SOL    HW141169  11.902   0.660   2.456
13110SOL    HW241170  11.885   0.629   2.603
13111SOL     OW41171   5.626  13.329   2.171
13111SOL    HW141172   5.559  13.264   2.148
13111SOL    HW241173   5.700  13.309   2.114
13112SOL     OW41174  11.445   2.763   9.356
13112SOL    HW141175  11.365   2.783   9.403
13112SOL    HW241176  11.419   2.758   9.264
13113SOL     OW41177   8.642   1.135  12.974
13113SOL    HW141178   8.643   1.231  12.978
13113SOL    HW241179   8.651   1.107  13.065
13114SOL     OW41180  11.794   3.240   2.724
13114SOL    HW141181  11.842   3.161   2.751
13114SOL    HW241182  11.743   3.212   2.648
13115SOL     OW41183  13.123  13.243   2.005
13115SOL    HW141184  13.086  13.155   2.008
13115SOL    HW241185  13.202  13.238   2.059
13116SOL     OW41186   5.867   4.935   5.189
13116SOL    HW141187   5.892   4.845   5.172
13116SOL    HW241188   5.948   4.985   5.177
13117SOL     OW41189   0.802   7.616   4.613
13117SOL    HW141190   0.778   7.571   4.694
13117SOL    HW241191   0.797   7.548   4.546
13118SOL     OW41192   1.593   3.104   1.909
13118SOL    HW141193   1.574   3.075   1.998
13118SOL    HW241194   1.632   3.191   1.919
13119SOL     OW41195   6.347  12.276   3.030
13119SOL    HW141196   6.344  12.371   3.024
13119SOL    HW241197   6.325  12.257   3.122
13120SOL     OW41198  10.118   6.073  13.341
13120SOL    HW141199  10.090   6.031  13.260
13120SOL    HW241200  10.205   6.037  13.358
13121SOL     OW41201   2.749  11.830   8.423
13121SOL    HW141202   2.693  11.879   8.364
13121SOL    HW241203   2.818  11.892   8.447
13122SOL     OW41204   1.751   8.361  10.017
13122SOL    HW141205   1.821   8.419   9.987
13122SOL    HW241206   1.730   8.392  10.105
13123SOL     OW41207  10.720   3.369   7.418
13123SOL    HW141208  10.653   3.417   7.370
13123SOL    HW241209  10.766   3.436   7.468
13124SOL     OW41210   3.373   4.740   2.241
13124SOL    HW141211   3.420   4.749   2.158
13124SOL    HW241212   3.317   4.817   2.245
13125SOL     OW41213   1.186  10.566   3.181
13125SOL    HW141214   1.232  10.499   3.132
13125SOL    HW241215   1.227  10.564   3.268
13126SOL     OW41216   6.556  14.500  13.305
13126SOL    HW141217   6.642  14.500  13.262
13126SOL    HW241218   6.505  14.436  13.255
13127SOL     OW41219   8.027   3.725  14.165
13127SOL    HW141220   8.048   3.803  14.114
13127SOL    HW241221   8.024   3.755  14.256
13128SOL     OW41222   7.347   8.724  12.487
13128SOL    HW141223   7.346   8.646  12.542
13128SOL    HW241224   7.364   8.691  12.399
13129SOL     OW41225   1.075   1.312   3.221
13129SOL    HW141226   1.125   1.391   3.206
13129SOL    HW241227   1.031   1.326   3.305
13130SOL     OW41228   0.726   7.185   4.660
13130SOL    HW141229   0.674   7.214   4.585
13130SOL    HW241230   0.805   7.148   4.622
13131SOL     OW41231   7.512   4.395  13.448
13131SOL    HW141232   7.504   4.436  13.362
13131SOL    HW241233   7.607   4.393  13.464
13132SOL     OW41234   8.291   3.305   1.845
13132SOL    HW141235   8.384   3.327   1.845
13132SOL    HW241236   8.255   3.359   1.774
13133SOL     OW41237  14.629   5.282   1.040
13133SOL    HW141238  14.682   5.349   1.084
13133SOL    HW241239  14.632   5.207   1.099
13134SOL     OW41240   7.461  13.533   5.211
13134SOL    HW141241   7.550  13.555   5.182
13134SOL    HW241242   7.460  13.551   5.304
13135SOL     OW41243   6.484   3.556  10.583
13135SOL    HW141244   6.461   3.500  10.657
13135SOL    HW241245   6.412   3.545  10.521
13136SOL     OW41246   8.163  13.309   8.085
13136SOL    HW141247   8.074  13.327   8.054
13136SOL    HW241248   8.216  13.379   8.048
13137SOL     OW41249   8.906   0.425   9.479
13137SOL    HW141250   8.986   0.439   9.529
13137SOL    HW241251   8.912   0.333   9.451
13138SOL     OW41252  11.944  11.180   3.048
13138SOL    HW141253  11.961  11.087   3.062
13138SOL    HW241254  11.885  11.205   3.119
13139SOL     OW41255   2.002   5.306  11.956
13139SOL    HW141256   1.928   5.362  11.932
13139SOL    HW241257   2.059   5.309  11.880
13140SOL     OW41258   3.206  10.232  14.720
13140SOL    HW141259   3.289  10.245  14.766
13140SOL    HW241260   3.210  10.143  14.686
13141SOL     OW41261  10.965   6.572   8.382
13141SOL    HW141262  10.890   6.519   8.406
13141SOL    HW241263  11.020   6.572   8.461
13142SOL     OW41264   1.536   2.757   0.697
13142SOL    HW141265   1.556   2.787   0.608
13142SOL    HW241266   1.606   2.795   0.751
13143SOL     OW41267   0.566  14.201   1.427
13143SOL    HW141268   0.614  14.238   1.501
13143SOL    HW241269   0.476  14.231   1.439
13144SOL     OW41270   9.559  13.916   1.633
13144SOL    HW141271   9.608  13.834   1.634
13144SOL    HW241272   9.475  13.893   1.594
13145SOL     OW41273   0.894   6.327   5.573
13145SOL    HW141274   0.942   6.369   5.645
13145SOL    HW241275   0.827   6.274   5.616
13146SOL     OW41276  11.895   3.147   3.933
13146SOL    HW141277  11.989   3.165   3.928
13146SOL    HW241278  11.854   3.219   3.886
13147SOL     OW41279   3.683  10.544  11.799
13147SOL    HW141280   3.778  10.546  11.804
13147SOL    HW241281   3.663  10.481  11.729
13148SOL     OW41282   5.561  13.073  13.201
13148SOL    HW141283   5.583  13.165  13.215
13148SOL    HW241284   5.533  13.043  13.288
13149SOL     OW41285   4.346   0.651   0.805
13149SOL    HW141286   4.399   0.726   0.831
13149SOL    HW241287   4.409   0.582   0.785
13150SOL     OW41288  13.948   5.306  13.825
13150SOL    HW141289  13.948   5.345  13.912
13150SOL    HW241290  14.038   5.277  13.811
13151SOL     OW41291  14.665  11.918   0.290
13151SOL    HW141292  14.622  11.903   0.375
13151SOL    HW241293  14.754  11.944   0.314
13152SOL     OW41294   8.892   6.237   3.350
13152SOL    HW141295   8.910   6.252   3.443
13152SOL    HW241296   8.942   6.158   3.328
13153SOL     OW41297  11.484  14.267  13.663
13153SOL    HW141298  11.574  14.289  13.688
13153SOL    HW241299  11.450  14.218  13.738
13154SOL     OW41300  11.107   7.164  12.793
13154SOL    HW141301  11.158   7.097  12.746
13154SOL    HW241302  11.169   7.235  12.808
13155SOL     OW41303   9.683   4.719  11.331
13155SOL    HW141304   9.744   4.688  11.263
13155SOL    HW241305   9.601   4.733  11.284
13156SOL     OW41306   4.468   8.426   5.823
13156SOL    HW141307   4.449   8.399   5.733
13156SOL    HW241308   4.439   8.352   5.877
13157SOL     OW41309   0.846  10.972   5.753
13157SOL    HW141310   0.897  10.892   5.736
13157SOL    HW241311   0.845  11.018   5.669
13158SOL     OW41312  14.315   5.595   7.552
13158SOL    HW141313  14.249   5.620   7.488
13158SOL    HW241314  14.287   5.509   7.583
13159SOL     OW41315   5.304  13.508   8.280
13159SOL    HW141316   5.396  13.531   8.269
13159SOL    HW241317   5.281  13.463   8.198
13160SOL     OW41318   2.860   7.711   6.368
13160SOL    HW141319   2.905   7.633   6.335
13160SOL    HW241320   2.922   7.750   6.429
13161SOL     OW41321   2.161   6.509   2.801
13161SOL    HW141322   2.106   6.533   2.875
13161SOL    HW241323   2.227   6.451   2.838
13162SOL     OW41324   2.668   3.278   7.847
13162SOL    HW141325   2.640   3.207   7.788
13162SOL    HW241326   2.631   3.357   7.808
13163SOL     OW41327   4.928   3.881   9.676
13163SOL    HW141328   4.991   3.883   9.748
13163SOL    HW241329   4.860   3.942   9.703
13164SOL     OW41330   2.715   1.800   9.650
13164SOL    HW141331   2.807   1.802   9.674
13164SOL    HW241332   2.714   1.802   9.554
13165SOL     OW41333   7.343  13.712   9.545
13165SOL    HW141334   7.397  13.683   9.471
13165SOL    HW241335   7.406  13.726   9.616
13166SOL     OW41336   9.849   7.584   6.484
13166SOL    HW141337   9.830   7.540   6.567
13166SOL    HW241338   9.834   7.677   6.501
13167SOL     OW41339  10.653   7.476   1.331
13167SOL    HW141340  10.669   7.414   1.260
13167SOL    HW241341  10.641   7.560   1.287
13168SOL     OW41342  12.985  14.477   9.733
13168SOL    HW141343  12.926  14.553   9.726
13168SOL    HW241344  13.066  14.505   9.691
13169SOL     OW41345   4.963   2.355  14.497
13169SOL    HW141346   4.963   2.450  14.509
13169SOL    HW241347   5.044   2.325  14.538
13170SOL     OW41348   3.856  12.542   9.338
13170SOL    HW141349   3.924  12.571   9.277
13170SOL    HW241350   3.884  12.456   9.367
13171SOL     OW41351   1.493   8.774   1.996
13171SOL    HW141352   1.584   8.778   2.024
13171SOL    HW241353   1.447   8.729   2.067
13172SOL     OW41354  13.290   9.801  10.084
13172SOL    HW141355  13.286   9.897  10.075
13172SOL    HW241356  13.202   9.776  10.113
13173SOL     OW41357   6.541   9.710   8.266
13173SOL    HW141358   6.495   9.719   8.349
13173SOL    HW241359   6.524   9.792   8.220
13174SOL     OW41360   3.855   7.202   0.119
13174SOL    HW141361   3.864   7.130   0.181
13174SOL    HW241362   3.782   7.253   0.152
13175SOL     OW41363   5.096   6.366   0.430
13175SOL    HW141364   5.137   6.390   0.513
13175SOL    HW241365   5.110   6.271   0.422
13176SOL     OW41366  10.355   5.117   5.153
13176SOL    HW141367  10.443   5.089   5.128
13176SOL    HW241368  10.366   5.207   5.183
13177SOL     OW41369   5.680   8.124   5.475
13177SOL    HW141370   5.743   8.108   5.405
13177SOL    HW241371   5.725   8.097   5.555
13178SOL     OW41372   8.785   3.549   7.043
13178SOL    HW141373   8.874   3.527   7.016
13178SOL    HW241374   8.781   3.524   7.136
13179SOL     OW41375   6.260  14.854   2.223
13179SOL    HW141376   6.284   0.007   2.309
13179SOL    HW241377   6.336  14.802   2.197
13180SOL     OW41378   3.222   3.579   7.018
13180SOL    HW141379   3.226   3.671   6.994
13180SOL    HW241380   3.206   3.579   7.112
13181SOL     OW41381   8.579  10.003   4.749
13181SOL    HW141382   8.599   9.940   4.680
13181SOL    HW241383   8.591  10.089   4.708
13182SOL     OW41384   1.462   1.931   0.762
13182SOL    HW141385   1.492   1.846   0.793
13182SOL    HW241386   1.538   1.968   0.717
13183SOL     OW41387   9.007   4.303  13.097
13183SOL    HW141388   8.937   4.368  13.091
13183SOL    HW241389   8.964   4.225  13.134
13184SOL     OW41390  14.499   4.093  14.839
13184SOL    HW141391  14.543   4.078  14.755
13184SOL    HW241392  14.468   4.184  14.833
13185SOL     OW41393   4.690   9.277   7.282
13185SOL    HW141394   4.639   9.200   7.308
13185SOL    HW241395   4.649   9.307   7.201
13186SOL     OW41396  10.696  11.779  12.423
13186SOL    HW141397  10.779  11.748  12.386
13186SOL    HW241398  10.688  11.731  12.506
13187SOL     OW41399   6.316   3.893  11.150
13187SOL    HW141400   6.323   3.933  11.063
13187SOL    HW241401   6.320   3.799  11.134
13188SOL     OW41402   1.877  11.810  11.225
13188SOL    HW141403   1.946  11.860  11.181
13188SOL    HW241404   1.872  11.728  11.177
13189SOL     OW41405   8.426   4.186   2.882
13189SOL    HW141406   8.491   4.199   2.951
13189SOL    HW241407   8.452   4.248   2.813
13190SOL     OW41408   3.454   5.427  14.753
13190SOL    HW141409   3.453   5.479  14.834
13190SOL    HW241410   3.547   5.420  14.731
13191SOL     OW41411  10.388  10.032   9.246
13191SOL    HW141412  10.473  10.016   9.204
13191SOL    HW241413  10.349  10.103   9.196
13192SOL     OW41414  13.206   7.511  12.465
13192SOL    HW141415  13.246   7.439  12.513
13192SOL    HW241416  13.173   7.471  12.385
13193SOL     OW41417   4.661   7.845   0.318
13193SOL    HW141418   4.693   7.919   0.266
13193SOL    HW241419   4.620   7.787   0.254
13194SOL     OW41420   4.697   5.560   4.903
13194SOL    HW141421   4.685   5.596   4.990
13194SOL    HW241422   4.683   5.634   4.844
13195SOL     OW41423  13.225   2.687  14.121
13195SOL    HW141424  13.202   2.708  14.212
13195SOL    HW241425  13.300   2.743  14.102
13196SOL     OW41426   8.020   6.413  11.000
13196SOL    HW141427   8.004   6.507  10.998
13196SOL    HW241428   8.115   6.404  10.996
13197SOL     OW41429   8.673  13.037   4.241
13197SOL    HW141430   8.671  13.081   4.157
13197SOL    HW241431   8.724  13.096   4.298
13198SOL     OW41432   0.104   0.828  14.655
13198SOL    HW141433   0.189   0.787  14.671
13198SOL    HW241434   0.048   0.757  14.624
13199SOL     OW41435   2.477   0.456  12.098
13199SOL    HW141436   2.436   0.518  12.038
13199SOL    HW241437   2.404   0.405  12.133
13200SOL     OW41438  10.498   2.014  14.120
13200SOL    HW141439  10.548   2.096  14.120
13200SOL    HW241440  10.406   2.042  14.117
13201SOL     OW41441  13.204   8.005   3.655
13201SOL    HW141442  13.234   8.011   3.564
13201SOL    HW241443  13.108   8.006   3.649
13202SOL     OW41444   6.239   7.362  11.756
13202SOL    HW141445   6.298   7.307  11.806
13202SOL    HW241446   6.281   7.372  11.671
13203SOL     OW41447   7.752   8.531  12.132
13203SOL    HW141448   7.843   8.535  12.102
13203SOL    HW241449   7.746   8.448  12.179
13204SOL     OW41450  11.058   8.667  14.001
13204SOL    HW141451  11.149   8.669  13.974
13204SOL    HW241452  11.012   8.717  13.934
13205SOL     OW41453   3.324   7.281  12.792
13205SOL    HW141454   3.346   7.188  12.784
13205SOL    HW241455   3.375   7.312  12.867
13206SOL     OW41456   5.740   9.894   5.713
13206SOL    HW141457   5.709   9.927   5.629
13206SOL    HW241458   5.660   9.883   5.764
13207SOL     OW41459   4.857  12.811   2.801
13207SOL    HW141460   4.904  12.872   2.744
13207SOL    HW241461   4.926  12.768   2.852
13208SOL     OW41462   4.443   9.985   7.363
13208SOL    HW141463   4.533   9.983   7.395
13208SOL    HW241464   4.436   9.908   7.306
13209SOL     OW41465  13.949   5.873   1.370
13209SOL    HW141466  14.013   5.945   1.365
13209SOL    HW241467  13.897   5.894   1.448
13210SOL     OW41468  10.611  10.760  12.585
13210SOL    HW141469  10.589  10.697  12.518
13210SOL    HW241470  10.604  10.712  12.668
13211SOL     OW41471   8.191   0.449   1.994
13211SOL    HW141472   8.225   0.445   1.905
13211SOL    HW241473   8.180   0.358   2.020
13212SOL     OW41474   7.492  13.355   3.143
13212SOL    HW141475   7.425  13.322   3.203
13212SOL    HW241476   7.447  13.364   3.059
13213SOL     OW41477  12.852  10.765  12.804
13213SOL    HW141478  12.912  10.692  12.815
13213SOL    HW241479  12.821  10.758  12.713
13214SOL     OW41480   5.429  13.580  12.795
13214SOL    HW141481   5.377  13.660  12.801
13214SOL    HW241482   5.492  13.596  12.725
13215SOL     OW41483   0.335  10.995  10.220
13215SOL    HW141484   0.359  11.038  10.138
13215SOL    HW241485   0.380  11.046  10.288
13216SOL     OW41486   7.338   3.465   9.002
13216SOL    HW141487   7.355   3.416   9.082
13216SOL    HW241488   7.423   3.502   8.978
13217SOL     OW41489   1.050  13.982   3.709
13217SOL    HW141490   1.114  13.923   3.751
13217SOL    HW241491   0.965  13.943   3.729
13218SOL     OW41492   3.348   2.539  11.513
13218SOL    HW141493   3.403   2.467  11.482
13218SOL    HW241494   3.274   2.495  11.556
13219SOL     OW41495  10.278  11.121  11.203
13219SOL    HW141496  10.182  11.115  11.205
13219SOL    HW241497  10.305  11.051  11.144
13220SOL     OW41498   0.299  10.199   7.800
13220SOL    HW141499   0.307  10.287   7.764
13220SOL    HW241500   0.388  10.175   7.824
13221SOL     OW41501   2.496   7.014  11.937
13221SOL    HW141502   2.559   6.986  12.004
13221SOL    HW241503   2.540   7.085  11.891
13222SOL     OW41504  11.259   2.747  12.942
13222SOL    HW141505  11.268   2.830  12.989
13222SOL    HW241506  11.166   2.742  12.920
13223SOL     OW41507  11.601   4.776   5.425
13223SOL    HW141508  11.697   4.777   5.428
13223SOL    HW241509  11.575   4.783   5.517
13224SOL     OW41510  11.843  10.366   1.048
13224SOL    HW141511  11.930  10.398   1.073
13224SOL    HW241512  11.803  10.340   1.130
13225SOL     OW41513   2.468  13.521   1.653
13225SOL    HW141514   2.374  13.511   1.662
13225SOL    HW241515   2.501  13.432   1.640
13226SOL     OW41516   1.324   7.760  11.608
13226SOL    HW141517   1.371   7.841  11.629
13226SOL    HW241518   1.376   7.720  11.538
13227SOL     OW41519   1.255   4.155  12.406
13227SOL    HW141520   1.280   4.064  12.418
13227SOL    HW241521   1.290   4.200  12.483
13228SOL     OW41522  14.070   1.165   8.458
13228SOL    HW141523  14.071   1.161   8.363
13228SOL    HW241524  14.158   1.138   8.484
13229SOL     OW41525   9.301  13.178   0.327
13229SOL    HW141526   9.292  13.138   0.414
13229SOL    HW241527   9.389  13.217   0.328
13230SOL     OW41528   5.393   4.621   5.212
13230SOL    HW141529   5.356   4.542   5.251
13230SOL    HW241530   5.319   4.660   5.164
13231SOL     OW41531   6.894  13.141  12.546
13231SOL    HW141532   6.978  13.186  12.534
13231SOL    HW241533   6.829  13.204  12.515
13232SOL     OW41534   2.841  14.279  13.595
13232SOL    HW141535   2.780  14.297  13.523
13232SOL    HW241536   2.920  14.328  13.572
13233SOL     OW41537   5.982   3.381   3.500
13233SOL    HW141538   5.992   3.339   3.414
13233SOL    HW241539   6.033   3.326   3.559
13234SOL     OW41540   1.869   9.676  12.817
13234SOL    HW141541   1.844   9.733  12.889
13234SOL    HW241542   1.869   9.588  12.856
13235SOL     OW41543   3.559   4.016  13.037
13235SOL    HW141544   3.532   4.023  12.946
13235SOL    HW241545   3.559   3.922  13.055
13236SOL     OW41546   2.857   2.111  14.675
13236SOL    HW141547   2.939   2.146  14.710
13236SOL    HW241548   2.871   2.016  14.671
13237SOL     OW41549  12.866   3.449   4.618
13237SOL    HW141550  12.896   3.362   4.594
13237SOL    HW241551  12.894   3.460   4.709
13238SOL     OW41552  11.425   6.321   0.124
13238SOL    HW141553  11.503   6.298   0.176
13238SOL    HW241554  11.383   6.391   0.173
13239SOL     OW41555   6.556  14.568  14.797
13239SOL    HW141556   6.531  14.545   0.004
13239SOL    HW241557   6.527  14.658  14.785
13240SOL     OW41558   5.677   0.192   1.819
13240SOL    HW141559   5.656   0.101   1.799
13240SOL    HW241560   5.749   0.214   1.760
13241SOL     OW41561   3.688   0.367   8.015
13241SOL    HW141562   3.752   0.303   7.984
13241SOL    HW241563   3.720   0.451   7.979
13242SOL     OW41564  11.802  10.907   4.402
13242SOL    HW141565  11.739  10.837   4.420
13242SOL    HW241566  11.884  10.874   4.439
13243SOL     OW41567   3.286   9.030   5.729
13243SOL    HW141568   3.210   9.033   5.671
13243SOL    HW241569   3.251   9.055   5.814
13244SOL     OW41570   8.995   6.055  14.827
13244SOL    HW141571   8.934   5.985  14.806
13244SOL    HW241572   8.942   6.122  14.870
13245SOL     OW41573   3.433   5.964  11.481
13245SOL    HW141574   3.379   6.016  11.541
13245SOL    HW241575   3.419   6.003  11.395
13246SOL     OW41576   8.492   1.331   6.152
13246SOL    HW141577   8.559   1.268   6.179
13246SOL    HW241578   8.426   1.279   6.107
13247SOL     OW41579   0.574  11.255   6.279
13247SOL    HW141580   0.647  11.272   6.340
13247SOL    HW241581   0.527  11.181   6.318
13248SOL     OW41582   3.496   6.893   1.934
13248SOL    HW141583   3.521   6.807   1.903
13248SOL    HW241584   3.437   6.876   2.008
13249SOL     OW41585  13.313   0.980   1.222
13249SOL    HW141586  13.278   1.000   1.309
13249SOL    HW241587  13.406   0.965   1.237
13250SOL     OW41588   3.790   3.506  11.525
13250SOL    HW141589   3.814   3.493  11.434
13250SOL    HW241590   3.773   3.418  11.559
13251SOL     OW41591  14.783  14.085   0.852
13251SOL    HW141592  14.755  14.123   0.935
13251SOL    HW241593  14.719  14.115   0.789
13252SOL     OW41594   6.158  12.716  11.704
13252SOL    HW141595   6.218  12.705  11.631
13252SOL    HW241596   6.115  12.631  11.714
13253SOL     OW41597   0.107   7.568   0.399
13253SOL    HW141598   0.109   7.472   0.391
13253SOL    HW241599   0.033   7.586   0.456
13254SOL     OW41600   8.112  14.711  14.001
13254SOL    HW141601   8.113  14.668  13.916
13254SOL    HW241602   8.023  14.745  14.010
13255SOL     OW41603  13.915   3.298   3.687
13255SOL    HW141604  13.915   3.205   3.710
13255SOL    HW241605  13.822   3.319   3.676
13256SOL     OW41606   9.822   8.694  10.375
13256SOL    HW141607   9.764   8.668  10.303
13256SOL    HW241608   9.784   8.652  10.452
13257SOL     OW41609   2.297   3.778  10.872
13257SOL    HW141610   2.355   3.837  10.824
13257SOL    HW241611   2.227   3.757  10.810
13258SOL     OW41612   9.697  13.906   4.265
13258SOL    HW141613   9.620  13.906   4.323
13258SOL    HW241614   9.770  13.883   4.322
13259SOL     OW41615   4.938   8.417   5.610
13259SOL    HW141616   4.849   8.452   5.610
13259SOL    HW241617   4.960   8.408   5.517
13260SOL     OW41618   6.494   2.379   2.195
13260SOL    HW141619   6.572   2.324   2.204
13260SOL    HW241620   6.529   2.467   2.178
13261SOL     OW41621   4.944  11.669  10.759
13261SOL    HW141622   4.963  11.583  10.797
13261SOL    HW241623   5.019  11.686  10.702
13262SOL     OW41624   0.440   3.283  10.407
13262SOL    HW141625   0.420   3.190  10.423
13262SOL    HW241626   0.442   3.291  10.312
13263SOL     OW41627  14.821   8.805   6.957
13263SOL    HW141628  14.755   8.865   6.991
13263SOL    HW241629   0.015   8.820   7.013
13264SOL     OW41630   0.416   6.196   6.030
13264SOL    HW141631   0.400   6.211   5.937
13264SOL    HW241632   0.411   6.101   6.041
13265SOL     OW41633  11.908   7.753  14.411
13265SOL    HW141634  11.834   7.753  14.349
13265SOL    HW241635  11.919   7.845  14.435
13266SOL     OW41636   3.798   5.349  14.268
13266SOL    HW141637   3.706   5.369  14.285
13266SOL    HW241638   3.844   5.428  14.296
13267SOL     OW41639   2.141  10.818  12.671
13267SOL    HW141640   2.155  10.729  12.638
13267SOL    HW241641   2.125  10.870  12.593
13268SOL     OW41642   1.008  10.394   8.681
13268SOL    HW141643   1.044  10.458   8.742
13268SOL    HW241644   0.916  10.386   8.707
13269SOL     OW41645   2.084   0.615  14.775
13269SOL    HW141646   2.169   0.621  14.819
13269SOL    HW241647   2.048   0.704  14.782
13270SOL     OW41648   2.015  11.497   4.412
13270SOL    HW141649   2.088  11.554   4.434
13270SOL    HW241650   2.000  11.445   4.491
13271SOL     OW41651   6.679   3.123   2.227
13271SOL    HW141652   6.652   3.214   2.239
13271SOL    HW241653   6.748   3.110   2.292
13272SOL     OW41654   1.786   9.570  10.740
13272SOL    HW141655   1.726   9.573  10.815
13272SOL    HW241656   1.855   9.633  10.762
13273SOL     OW41657   5.216   9.394   8.844
13273SOL    HW141658   5.308   9.387   8.817
13273SOL    HW241659   5.172   9.437   8.771
13274SOL     OW41660   5.658   4.571   5.095
13274SOL    HW141661   5.657   4.479   5.068
13274SOL    HW241662   5.565   4.592   5.108
13275SOL     OW41663   9.729   1.297   6.564
13275SOL    HW141664   9.654   1.316   6.508
13275SOL    HW241665   9.798   1.357   6.533
13276SOL     OW41666   1.122   5.208  12.931
13276SOL    HW141667   1.040   5.160  12.931
13276SOL    HW241668   1.187   5.146  12.964
13277SOL     OW41669   7.020   8.818  14.016
13277SOL    HW141670   6.926   8.819  13.997
13277SOL    HW241671   7.050   8.905  13.990
13278SOL     OW41672   6.807  10.180  10.076
13278SOL    HW141673   6.859  10.233  10.016
13278SOL    HW241674   6.717  10.208  10.062
13279SOL     OW41675   4.111  11.288  14.324
13279SOL    HW141676   4.072  11.201  14.312
13279SOL    HW241677   4.106  11.328  14.237
13280SOL     OW41678  13.023  11.060  10.536
13280SOL    HW141679  12.990  10.988  10.591
13280SOL    HW241680  13.115  11.068  10.561
13281SOL     OW41681  10.289   2.746   4.628
13281SOL    HW141682  10.262   2.657   4.603
13281SOL    HW241683  10.212   2.784   4.669
13282SOL     OW41684   3.830  12.908   3.428
13282SOL    HW141685   3.754  12.907   3.487
13282SOL    HW241686   3.822  12.827   3.378
13283SOL     OW41687   1.288   1.823  11.607
13283SOL    HW141688   1.356   1.758  11.619
13283SOL    HW241689   1.234   1.788  11.536
13284SOL     OW41690   3.645  12.776   9.376
13284SOL    HW141691   3.703  12.838   9.332
13284SOL    HW241692   3.698  12.698   9.391
13285SOL     OW41693   4.641   2.211   2.315
13285SOL    HW141694   4.644   2.213   2.219
13285SOL    HW241695   4.594   2.291   2.339
13286SOL     OW41696   1.084   1.160  12.577
13286SOL    HW141697   1.173   1.173  12.545
13286SOL    HW241698   1.044   1.099  12.515
13287SOL     OW41699   6.417  11.033   3.745
13287SOL    HW141700   6.349  10.984   3.700
13287SOL    HW241701   6.384  11.122   3.749
13288SOL     OW41702   1.336  13.523   4.228
13288SOL    HW141703   1.347  13.516   4.323
13288SOL    HW241704   1.310  13.435   4.200
13289SOL     OW41705   7.381   1.862   8.390
13289SOL    HW141706   7.324   1.799   8.347
13289SOL    HW241707   7.321   1.922   8.435
13290SOL     OW41708   4.125   5.224   3.726
13290SOL    HW141709   4.099   5.316   3.728
13290SOL    HW241710   4.121   5.196   3.818
13291SOL     OW41711   9.217   3.682   1.043
13291SOL    HW141712   9.139   3.630   1.023
13291SOL    HW241713   9.192   3.772   1.022
13292SOL     OW41714   8.117  13.690   9.466
13292SOL    HW141715   8.174  13.613   9.462
13292SOL    HW241716   8.057  13.678   9.393
13293SOL     OW41717   1.111   9.689   3.123
13293SOL    HW141718   1.106   9.729   3.210
13293SOL    HW241719   1.204   9.668   3.112
13294SOL     OW41720   2.965  14.397   0.643
13294SOL    HW141721   2.939  14.378   0.734
13294SOL    HW241722   3.059  14.411   0.648
13295SOL     OW41723  11.221  13.114  10.384
13295SOL    HW141724  11.224  13.199  10.429
13295SOL    HW241725  11.129  13.089  10.387
13296SOL     OW41726  13.745   1.852   8.047
13296SOL    HW141727  13.696   1.778   8.012
13296SOL    HW241728  13.754   1.913   7.974
13297SOL     OW41729  12.046  12.027   7.054
13297SOL    HW141730  12.080  12.098   7.000
13297SOL    HW241731  12.120  12.002   7.111
13298SOL     OW41732   8.725   0.303  11.757
13298SOL    HW141733   8.645   0.354  11.744
13298SOL    HW241734   8.790   0.347  11.701
13299SOL     OW41735   5.018  11.037   5.460
13299SOL    HW141736   4.972  10.973   5.515
13299SOL    HW241737   5.108  11.004   5.456
13300SOL     OW41738  10.319   3.187   4.893
13300SOL    HW141739  10.247   3.249   4.881
13300SOL    HW241740  10.390   3.222   4.840
13301SOL     OW41741   9.261   4.670   6.003
13301SOL    HW141742   9.341   4.638   6.044
13301SOL    HW241743   9.286   4.755   5.965
13302SOL     OW41744   4.134  11.137   4.627
13302SOL    HW141745   4.166  11.198   4.693
13302SOL    HW241746   4.075  11.079   4.675
13303SOL     OW41747  13.374   2.256  11.136
13303SOL    HW141748  13.296   2.308  11.156
13303SOL    HW241749  13.438   2.281  11.203
13304SOL     OW41750   2.957   9.091  10.832
13304SOL    HW141751   3.027   9.150  10.805
13304SOL    HW241752   2.911   9.140  10.901
13305SOL     OW41753   8.802  14.621   9.034
13305SOL    HW141754   8.725  14.632   8.977
13305SOL    HW241755   8.861  14.691   9.008
13306SOL     OW41756   6.352  12.582   1.511
13306SOL    HW141757   6.389  12.535   1.437
13306SOL    HW241758   6.415  12.568   1.582
13307SOL     OW41759   8.107   1.653   0.475
13307SOL    HW141760   8.037   1.709   0.439
13307SOL    HW241761   8.162   1.634   0.399
13308SOL     OW41762   4.578   5.022   2.260
13308SOL    HW141763   4.562   5.033   2.167
13308SOL    HW241764   4.647   5.085   2.281
13309SOL     OW41765   3.385  14.446   9.263
13309SOL    HW141766   3.384  14.539   9.284
13309SOL    HW241767   3.478  14.424   9.257
13310SOL     OW41768  10.315  10.654   6.773
13310SOL    HW141769  10.409  10.662   6.785
13310SOL    HW241770  10.278  10.733   6.813
13311SOL     OW41771   0.941  11.902   5.085
13311SOL    HW141772   0.994  11.850   5.146
13311SOL    HW241773   0.869  11.935   5.139
13312SOL     OW41774  14.658   3.877   3.789
13312SOL    HW141775  14.691   3.810   3.730
13312SOL    HW241776  14.657   3.958   3.737
13313SOL     OW41777   9.829   1.740   5.571
13313SOL    HW141778   9.811   1.648   5.589
13313SOL    HW241779   9.903   1.762   5.628
13314SOL     OW41780   3.940   7.990  13.678
13314SOL    HW141781   3.861   8.013  13.628
13314SOL    HW241782   3.906   7.959  13.762
13315SOL     OW41783  10.159   5.530  12.403
13315SOL    HW141784  10.116   5.609  12.434
13315SOL    HW241785  10.088   5.467  12.389
13316SOL     OW41786   0.616  10.154   2.076
13316SOL    HW141787   0.586  10.237   2.114
13316SOL    HW241788   0.696  10.177   2.029
13317SOL     OW41789  10.475   7.784  11.975
13317SOL    HW141790  10.505   7.772  11.884
13317SOL    HW241791  10.551   7.822  12.020
13318SOL     OW41792   5.559   0.671  14.562
13318SOL    HW141793   5.642   0.659  14.517
13318SOL    HW241794   5.517   0.744  14.516
13319SOL     OW41795   6.841   6.367   4.783
13319SOL    HW141796   6.754   6.372   4.822
13319SOL    HW241797   6.826   6.333   4.695
13320SOL     OW41798   9.140  10.832   8.200
13320SOL    HW141799   9.183  10.841   8.115
13320SOL    HW241800   9.209  10.850   8.264
13321SOL     OW41801   2.335  11.371   3.370
13321SOL    HW141802   2.397  11.317   3.418
13321SOL    HW241803   2.265  11.311   3.344
13322SOL     OW41804   9.162  10.895   6.904
13322SOL    HW141805   9.199  10.980   6.878
13322SOL    HW241806   9.194  10.880   6.993
13323SOL     OW41807  11.832  12.668  13.523
13323SOL    HW141808  11.808  12.597  13.582
13323SOL    HW241809  11.800  12.639  13.437
13324SOL     OW41810   1.721  12.656   2.855
13324SOL    HW141811   1.753  12.733   2.807
13324SOL    HW241812   1.637  12.683   2.891
13325SOL     OW41813  13.391   0.162   9.731
13325SOL    HW141814  13.336   0.206   9.795
13325SOL    HW241815  13.356   0.073   9.726
13326SOL     OW41816   2.868   7.166   1.959
13326SOL    HW141817   2.798   7.227   1.984
13326SOL    HW241818   2.949   7.214   1.974
13327SOL     OW41819   3.225  10.569   8.528
13327SOL    HW141820   3.288  10.616   8.582
13327SOL    HW241821   3.261  10.481   8.520
13328SOL     OW41822   9.575   0.744  13.235
13328SOL    HW141823   9.537   0.711  13.317
13328SOL    HW241824   9.646   0.802  13.263
13329SOL     OW41825   3.971  14.590   1.089
13329SOL    HW141826   4.009  14.540   1.161
13329SOL    HW241827   3.923  14.661   1.131
13330SOL     OW41828   4.262   6.601   5.432
13330SOL    HW141829   4.182   6.547   5.431
13330SOL    HW241830   4.266   6.635   5.522
13331SOL     OW41831   9.935   2.534   5.479
13331SOL    HW141832   9.876   2.490   5.418
13331SOL    HW241833   9.928   2.483   5.561
13332SOL     OW41834   8.907   2.837   3.755
13332SOL    HW141835   8.932   2.895   3.683
13332SOL    HW241836   8.986   2.784   3.771
13333SOL     OW41837   6.261   6.573   3.694
13333SOL    HW141838   6.247   6.645   3.756
13333SOL    HW241839   6.324   6.516   3.738
13334SOL     OW41840   9.743   8.308   7.693
13334SOL    HW141841   9.749   8.215   7.715
13334SOL    HW241842   9.825   8.345   7.726
13335SOL     OW41843   7.696  13.135   2.383
13335SOL    HW141844   7.696  13.164   2.474
13335SOL    HW241845   7.703  13.039   2.389
13336SOL     OW41846   4.726   3.780  10.130
13336SOL    HW141847   4.702   3.870  10.110
13336SOL    HW241848   4.822   3.780  10.126
13337SOL     OW41849  14.165   9.844   4.297
13337SOL    HW141850  14.254   9.862   4.267
13337SOL    HW241851  14.116   9.825   4.217
13338SOL     OW41852   0.749   1.737   5.047
13338SOL    HW141853   0.784   1.694   4.968
13338SOL    HW241854   0.728   1.665   5.106
13339SOL     OW41855  10.104   0.871   8.800
13339SOL    HW141856  10.144   0.796   8.844
13339SOL    HW241857  10.142   0.947   8.843
13340SOL     OW41858   1.965  13.707   3.408
13340SOL    HW141859   1.890  13.715   3.466
13340SOL    HW241860   2.003  13.621   3.429
13341SOL     OW41861   0.230  12.415  12.701
13341SOL    HW141862   0.196  12.444  12.616
13341SOL    HW241863   0.321  12.391  12.684
13342SOL     OW41864   5.007  13.026   6.379
13342SOL    HW141865   5.009  12.943   6.427
13342SOL    HW241866   5.094  13.033   6.340
13343SOL     OW41867   6.276   2.670   0.231
13343SOL    HW141868   6.264   2.740   0.167
13343SOL    HW241869   6.327   2.603   0.186
13344SOL     OW41870  14.516  10.004  13.544
13344SOL    HW141871  14.445  10.012  13.481
13344SOL    HW241872  14.593  10.036  13.496
13345SOL     OW41873   0.629  13.969  14.582
13345SOL    HW141874   0.578  14.026  14.639
13345SOL    HW241875   0.720  13.996  14.596
13346SOL     OW41876   8.092   4.724   4.239
13346SOL    HW141877   8.092   4.817   4.263
13346SOL    HW241878   8.022   4.686   4.292
13347SOL     OW41879  11.367  11.204   3.535
13347SOL    HW141880  11.311  11.281   3.542
13347SOL    HW241881  11.309  11.130   3.556
13348SOL     OW41882   8.216   4.679   5.240
13348SOL    HW141883   8.264   4.672   5.158
13348SOL    HW241884   8.197   4.589   5.265
13349SOL     OW41885   0.067   6.717   3.217
13349SOL    HW141886  14.855   6.711   3.231
13349SOL    HW241887   0.085   6.811   3.215
13350SOL     OW41888  12.458   1.387   6.159
13350SOL    HW141889  12.392   1.424   6.218
13350SOL    HW241890  12.424   1.406   6.071
13351SOL     OW41891   4.097   0.640  12.500
13351SOL    HW141892   4.008   0.624  12.469
13351SOL    HW241893   4.109   0.734  12.490
13352SOL     OW41894   3.711   3.986   9.771
13352SOL    HW141895   3.712   3.957   9.680
13352SOL    HW241896   3.690   3.908   9.821
13353SOL     OW41897   5.797  12.502   4.313
13353SOL    HW141898   5.783  12.596   4.313
13353SOL    HW241899   5.829  12.482   4.225
13354SOL     OW41900   1.922   7.720   3.284
13354SOL    HW141901   1.901   7.799   3.334
13354SOL    HW241902   2.017   7.722   3.275
13355SOL     OW41903   6.121  12.029   1.497
13355SOL    HW141904   6.199  12.085   1.498
13355SOL    HW241905   6.070  12.058   1.573
13356SOL     OW41906  12.897   2.744   3.188
13356SOL    HW141907  12.931   2.700   3.110
13356SOL    HW241908  12.887   2.673   3.252
13357SOL     OW41909   2.450   3.863  10.033
13357SOL    HW141910   2.455   3.774   9.998
13357SOL    HW241911   2.494   3.917   9.967
13358SOL     OW41912  11.010  10.563   9.889
13358SOL    HW141913  11.097  10.571   9.929
13358SOL    HW241914  10.952  10.614   9.945
13359SOL     OW41915   6.433   8.443   5.144
13359SOL    HW141916   6.390   8.528   5.131
13359SOL    HW241917   6.366   8.387   5.183
13360SOL     OW41918   9.603   7.824   3.404
13360SOL    HW141919   9.589   7.909   3.445
13360SOL    HW241920   9.651   7.844   3.323
13361SOL     OW41921   7.101   2.976   2.811
13361SOL    HW141922   7.173   2.939   2.863
13361SOL    HW241923   7.052   3.029   2.874
13362SOL     OW41924   3.003   3.387   7.059
13362SOL    HW141925   2.985   3.380   7.153
13362SOL    HW241926   3.067   3.459   7.053
13363SOL     OW41927   3.460   5.046   1.053
13363SOL    HW141928   3.511   4.975   1.016
13363SOL    HW241929   3.467   5.034   1.148
13364SOL     OW41930   4.959   9.226   7.845
13364SOL    HW141931   4.926   9.203   7.932
13364SOL    HW241932   5.055   9.225   7.855
13365SOL     OW41933   4.731  11.731   2.483
13365SOL    HW141934   4.642  11.767   2.474
13365SOL    HW241935   4.755  11.705   2.394
13366SOL     OW41936  14.786  10.529   6.274
13366SOL    HW141937  14.732  10.604   6.300
13366SOL    HW241938  14.797  10.478   6.355
13367SOL     OW41939   5.739   5.819   6.828
13367SOL    HW141940   5.748   5.724   6.818
13367SOL    HW241941   5.805   5.843   6.893
13368SOL     OW41942  11.269  12.447   8.386
13368SOL    HW141943  11.285  12.388   8.460
13368SOL    HW241944  11.269  12.534   8.425
13369SOL     OW41945  13.929   1.179   5.745
13369SOL    HW141946  13.946   1.247   5.679
13369SOL    HW241947  13.967   1.100   5.707
13370SOL     OW41948   5.024   3.224   6.233
13370SOL    HW141949   5.047   3.206   6.324
13370SOL    HW241950   4.980   3.309   6.236
13371SOL     OW41951   0.215   3.937  14.014
13371SOL    HW141952   0.304   3.960  13.988
13371SOL    HW241953   0.217   3.843  14.029
13372SOL     OW41954   6.725   7.504   7.130
13372SOL    HW141955   6.756   7.480   7.218
13372SOL    HW241956   6.684   7.425   7.096
13373SOL     OW41957  12.159   5.820   7.675
13373SOL    HW141958  12.097   5.856   7.612
13373SOL    HW241959  12.138   5.726   7.678
13374SOL     OW41960  14.825   6.236  13.997
13374SOL    HW141961  14.782   6.296  13.936
13374SOL    HW241962  14.827   6.283  14.080
13375SOL     OW41963   2.333   6.125  14.627
13375SOL    HW141964   2.261   6.085  14.675
13375SOL    HW241965   2.382   6.051  14.591
13376SOL     OW41966   2.030   2.299   0.283
13376SOL    HW141967   2.060   2.335   0.199
13376SOL    HW241968   2.057   2.207   0.280
13377SOL     OW41969   3.935   8.868  10.046
13377SOL    HW141970   3.849   8.875  10.003
13377SOL    HW241971   3.917   8.824  10.129
13378SOL     OW41972  13.688   6.887   1.928
13378SOL    HW141973  13.647   6.901   2.013
13378SOL    HW241974  13.765   6.943   1.928
13379SOL     OW41975  14.146  10.830   4.374
13379SOL    HW141976  14.164  10.901   4.436
13379SOL    HW241977  14.183  10.752   4.417
13380SOL     OW41978  12.446   9.525   3.610
13380SOL    HW141979  12.500   9.485   3.541
13380SOL    HW241980  12.496   9.602   3.637
13381SOL     OW41981  14.539   0.455  11.395
13381SOL    HW141982  14.605   0.424  11.332
13381SOL    HW241983  14.536   0.550  11.381
13382SOL     OW41984   0.970  11.745  10.972
13382SOL    HW141985   1.023  11.706  10.903
13382SOL    HW241986   1.016  11.724  11.054
13383SOL     OW41987  10.895  11.883  12.937
13383SOL    HW141988  10.900  11.788  12.925
13383SOL    HW241989  10.932  11.919  12.857
13384SOL     OW41990  13.171   7.457  10.848
13384SOL    HW141991  13.145   7.491  10.933
13384SOL    HW241992  13.136   7.519  10.784
13385SOL     OW41993  14.849   6.922   9.326
13385SOL    HW141994  14.811   7.009   9.317
13385SOL    HW241995  14.792   6.865   9.275
13386SOL     OW41996  13.908  12.748   1.775
13386SOL    HW141997  13.837  12.759   1.713
13386SOL    HW241998  13.902  12.824   1.833
13387SOL     OW41999   4.289   0.203   8.042
13387SOL    HW142000   4.300   0.176   7.950
13387SOL    HW242001   4.195   0.190   8.059
13388SOL     OW42002   1.795   1.666   6.605
13388SOL    HW142003   1.795   1.591   6.545
13388SOL    HW242004   1.719   1.718   6.578
13389SOL     OW42005  12.071   7.166   5.454
13389SOL    HW142006  12.005   7.188   5.388
13389SOL    HW242007  12.045   7.080   5.487
13390SOL     OW42008  14.050   0.365   8.372
13390SOL    HW142009  14.015   0.443   8.417
13390SOL    HW242010  14.102   0.321   8.439
13391SOL     OW42011  14.836   4.506  13.253
13391SOL    HW142012   0.037   4.535  13.291
13391SOL    HW242013  14.827   4.415  13.280
13392SOL     OW42014   6.436   4.735  10.388
13392SOL    HW142015   6.478   4.707  10.469
13392SOL    HW242016   6.358   4.782  10.415
13393SOL     OW42017   7.569  11.671  10.299
13393SOL    HW142018   7.511  11.739  10.263
13393SOL    HW242019   7.555  11.595  10.242
13394SOL     OW42020  10.524   1.065   1.538
13394SOL    HW142021  10.530   1.133   1.605
13394SOL    HW242022  10.441   1.020   1.556
13395SOL     OW42023   2.027   7.639   8.559
13395SOL    HW142024   2.062   7.564   8.607
13395SOL    HW242025   2.088   7.710   8.576
13396SOL     OW42026  10.886   5.060   0.854
13396SOL    HW142027  10.823   5.126   0.822
13396SOL    HW242028  10.954   5.111   0.897
13397SOL     OW42029   6.106   6.063   5.156
13397SOL    HW142030   6.080   6.153   5.176
13397SOL    HW242031   6.068   6.011   5.227
13398SOL     OW42032   3.573  14.541   4.778
13398SOL    HW142033   3.668  14.551   4.783
13398SOL    HW242034   3.553  14.474   4.843
13399SOL     OW42035  14.139  13.516  10.795
13399SOL    HW142036  14.233  13.517  10.778
13399SOL    HW242037  14.111  13.428  10.772
13400SOL     OW42038   4.564  13.937   5.237
13400SOL    HW142039   4.483  13.891   5.218
13400SOL    HW242040   4.632  13.871   5.228
13401SOL     OW42041   3.629  13.307   5.610
13401SOL    HW142042   3.579  13.273   5.536
13401SOL    HW242043   3.671  13.386   5.575
13402SOL     OW42044  13.514   6.665   6.213
13402SOL    HW142045  13.589   6.652   6.156
13402SOL    HW242046  13.528   6.605   6.286
13403SOL     OW42047   2.111  10.272   4.147
13403SOL    HW142048   2.143  10.184   4.127
13403SOL    HW242049   2.028  10.257   4.193
13404SOL     OW42050  14.161   7.743   7.815
13404SOL    HW142051  14.246   7.704   7.795
13404SOL    HW242052  14.109   7.671   7.850
13405SOL     OW42053  13.098  12.863  14.224
13405SOL    HW142054  13.189  12.833  14.228
13405SOL    HW242055  13.054  12.797  14.169
13406SOL     OW42056   0.710   3.543  10.684
13406SOL    HW142057   0.784   3.511  10.634
13406SOL    HW242058   0.645   3.474  10.678
13407SOL     OW42059  11.721  13.824   7.461
13407SOL    HW142060  11.781  13.898   7.472
13407SOL    HW242061  11.703  13.820   7.368
13408SOL     OW42062   2.294  13.694  11.699
13408SOL    HW142063   2.319  13.693  11.792
13408SOL    HW242064   2.206  13.729  11.698
13409SOL     OW42065   1.049   4.763   1.526
13409SOL    HW142066   1.048   4.815   1.607
13409SOL    HW242067   0.971   4.708   1.533
13410SOL     OW42068   3.154  13.370  10.062
13410SOL    HW142069   3.164  13.402   9.973
13410SOL    HW242070   3.139  13.448  10.114
13411SOL     OW42071  14.607  13.862   5.030
13411SOL    HW142072  14.703  13.860   5.037
13411SOL    HW242073  14.587  13.951   5.003
13412SOL     OW42074   0.322  11.279   7.578
13412SOL    HW142075   0.387  11.278   7.507
13412SOL    HW242076   0.253  11.337   7.547
13413SOL     OW42077  11.192   5.732   1.750
13413SOL    HW142078  11.217   5.752   1.840
13413SOL    HW242079  11.148   5.647   1.755
13414SOL     OW42080   8.593   8.353   1.518
13414SOL    HW142081   8.601   8.367   1.612
13414SOL    HW242082   8.548   8.269   1.510
13415SOL     OW42083   2.457  12.894  10.825
13415SOL    HW142084   2.447  12.803  10.853
13415SOL    HW242085   2.535  12.893  10.769
13416SOL     OW42086  11.256   5.397   2.603
13416SOL    HW142087  11.243   5.303   2.593
13416SOL    HW242088  11.279   5.428   2.515
13417SOL     OW42089   1.793   5.269  11.117
13417SOL    HW142090   1.883   5.288  11.090
13417SOL    HW242091   1.762   5.207  11.051
13418SOL     OW42092   4.399  11.036   1.545
13418SOL    HW142093   4.414  11.116   1.496
13418SOL    HW242094   4.393  10.968   1.478
13419SOL     OW42095   1.846  12.290  14.847
13419SOL    HW142096   1.857  12.379  14.811
13419SOL    HW242097   1.882  12.296   0.053
13420SOL     OW42098   6.584   8.833   3.342
13420SOL    HW142099   6.628   8.753   3.370
13420SOL    HW242100   6.544   8.812   3.258
13421SOL     OW42101  14.446  10.098  14.190
13421SOL    HW142102  14.469  10.005  14.184
13421SOL    HW242103  14.352  10.099  14.203
13422SOL     OW42104   6.158   1.203   6.176
13422SOL    HW142105   6.130   1.295   6.180
13422SOL    HW242106   6.253   1.207   6.178
13423SOL     OW42107   0.648   4.887   0.077
13423SOL    HW142108   0.642   4.913  14.867
13423SOL    HW242109   0.736   4.912   0.103
13424SOL     OW42110   0.450  13.974   0.971
13424SOL    HW142111   0.355  13.972   0.980
13424SOL    HW242112   0.479  14.027   1.046
13425SOL     OW42113   3.437   6.020   2.859
13425SOL    HW142114   3.354   6.067   2.850
13425SOL    HW242115   3.496   6.062   2.796
13426SOL     OW42116   2.411   2.524   0.246
13426SOL    HW142117   2.438   2.456   0.184
13426SOL    HW242118   2.377   2.595   0.191
13427SOL     OW42119   7.984  12.363   6.236
13427SOL    HW142120   7.969  12.457   6.225
13427SOL    HW242121   8.040  12.357   6.314
13428SOL     OW42122   7.746   7.931   7.273
13428SOL    HW142123   7.687   7.901   7.204
13428SOL    HW242124   7.817   7.975   7.226
13429SOL     OW42125   9.405   3.127  11.826
13429SOL    HW142126   9.478   3.189  11.827
13429SOL    HW242127   9.380   3.122  11.733
13430SOL     OW42128  12.166   6.191   1.797
13430SOL    HW142129  12.083   6.238   1.803
13430SOL    HW242130  12.161   6.122   1.862
13431SOL     OW42131   0.656   2.233   5.619
13431SOL    HW142132   0.668   2.260   5.710
13431SOL    HW242133   0.742   2.245   5.579
13432SOL     OW42134  14.832   6.335   4.657
13432SOL    HW142135  14.740   6.358   4.666
13432SOL    HW242136  14.849   6.340   4.563
13433SOL     OW42137  12.409   6.468   2.725
13433SOL    HW142138  12.357   6.432   2.797
13433SOL    HW242139  12.372   6.555   2.709
13434SOL     OW42140   5.031   6.498   1.747
13434SOL    HW142141   4.966   6.561   1.717
13434SOL    HW242142   4.982   6.418   1.763
13435SOL     OW42143   5.115   3.898   9.891
13435SOL    HW142144   5.103   3.992   9.903
13435SOL    HW242145   5.070   3.859   9.966
13436SOL     OW42146   3.892   2.710   1.499
13436SOL    HW142147   3.903   2.688   1.407
13436SOL    HW242148   3.968   2.670   1.542
13437SOL     OW42149  11.559   6.096   7.565
13437SOL    HW142150  11.490   6.122   7.503
13437SOL    HW242151  11.580   6.177   7.612
13438SOL     OW42152   4.427   7.577  14.721
13438SOL    HW142153   4.394   7.659  14.684
13438SOL    HW242154   4.522   7.584  14.712
13439SOL     OW42155   7.704   7.496   6.793
13439SOL    HW142156   7.688   7.401   6.792
13439SOL    HW242157   7.633   7.533   6.741
13440SOL     OW42158   5.698   6.435   3.952
13440SOL    HW142159   5.650   6.358   3.922
13440SOL    HW242160   5.745   6.405   4.031
13441SOL     OW42161   1.734   4.084   4.297
13441SOL    HW142162   1.812   4.138   4.309
13441SOL    HW242163   1.768   3.999   4.271
13442SOL     OW42164   7.791   4.486  12.155
13442SOL    HW142165   7.761   4.564  12.202
13442SOL    HW242166   7.868   4.516  12.106
13443SOL     OW42167  14.642   8.555   9.855
13443SOL    HW142168  14.651   8.572   9.761
13443SOL    HW242169  14.602   8.635   9.889
13444SOL     OW42170   6.272   1.788   6.236
13444SOL    HW142171   6.192   1.766   6.188
13444SOL    HW242172   6.336   1.723   6.208
13445SOL     OW42173  10.699   3.966   6.258
13445SOL    HW142174  10.764   4.014   6.206
13445SOL    HW242175  10.643   3.923   6.194
13446SOL     OW42176   2.947   0.699   8.377
13446SOL    HW142177   3.041   0.700   8.394
13446SOL    HW242178   2.939   0.714   8.283
13447SOL     OW42179   0.900  11.853   8.950
13447SOL    HW142180   0.864  11.783   8.895
13447SOL    HW242181   0.849  11.931   8.926
13448SOL     OW42182  13.309   8.481  14.649
13448SOL    HW142183  13.220   8.488  14.614
13448SOL    HW242184  13.303   8.517  14.737
13449SOL     OW42185   2.000  10.387   6.729
13449SOL    HW142186   2.012  10.357   6.819
13449SOL    HW242187   2.042  10.473   6.727
13450SOL     OW42188   1.620  11.400   3.457
13450SOL    HW142189   1.663  11.424   3.539
13450SOL    HW242190   1.680  11.337   3.417
13451SOL     OW42191  14.456   9.084   2.779
13451SOL    HW142192  14.489   9.172   2.799
13451SOL    HW242193  14.388   9.099   2.713
13452SOL     OW42194  10.404   2.717   5.604
13452SOL    HW142195  10.422   2.623   5.603
13452SOL    HW242196  10.430   2.747   5.518
13453SOL     OW42197   9.571   6.206  11.243
13453SOL    HW142198   9.602   6.147  11.175
13453SOL    HW242199   9.638   6.201  11.311
13454SOL     OW42200   9.907   1.333   0.514
13454SOL    HW142201   9.821   1.334   0.558
13454SOL    HW242202   9.959   1.397   0.561
13455SOL     OW42203  14.875  11.240   6.174
13455SOL    HW142204  14.809  11.255   6.241
13455SOL    HW242205   0.063  11.194   6.219
13456SOL     OW42206  12.618   8.929  10.987
13456SOL    HW142207  12.549   8.916  10.922
13456SOL    HW242208  12.605   9.018  11.018
13457SOL     OW42209   7.193   9.489   5.089
13457SOL    HW142210   7.215   9.568   5.139
13457SOL    HW242211   7.151   9.522   5.010
13458SOL     OW42212  14.717  10.015  10.645
13458SOL    HW142213  14.785  10.024  10.578
13458SOL    HW242214  14.641   9.980  10.597
13459SOL     OW42215   3.471  10.204   1.044
13459SOL    HW142216   3.424  10.226   1.123
13459SOL    HW242217   3.551  10.161   1.075
13460SOL     OW42218  11.469   1.785   1.213
13460SOL    HW142219  11.505   1.838   1.142
13460SOL    HW242220  11.538   1.783   1.279
13461SOL     OW42221  13.585   0.480   8.476
13461SOL    HW142222  13.643   0.466   8.551
13461SOL    HW242223  13.515   0.416   8.487
13462SOL     OW42224   0.553   8.045   2.871
13462SOL    HW142225   0.612   8.040   2.795
13462SOL    HW242226   0.488   7.976   2.855
13463SOL     OW42227   8.734   8.151  13.050
13463SOL    HW142228   8.745   8.110  12.965
13463SOL    HW242229   8.642   8.179  13.051
13464SOL     OW42230   0.651   0.168   4.552
13464SOL    HW142231   0.665   0.183   4.646
13464SOL    HW242232   0.689   0.245   4.510
13465SOL     OW42233   5.999   8.621   6.426
13465SOL    HW142234   5.940   8.577   6.487
13465SOL    HW242235   6.015   8.707   6.465
13466SOL     OW42236   4.298   1.107   6.184
13466SOL    HW142237   4.342   1.186   6.154
13466SOL    HW242238   4.321   1.101   6.277
13467SOL     OW42239  10.087   6.305   8.472
13467SOL    HW142240  10.077   6.239   8.540
13467SOL    HW242241  10.154   6.365   8.506
13468SOL     OW42242   7.498  11.929   5.713
13468SOL    HW142243   7.426  11.989   5.694
13468SOL    HW242244   7.573  11.985   5.729
13469SOL     OW42245  14.006   6.277   6.397
13469SOL    HW142246  14.095   6.304   6.415
13469SOL    HW242247  13.969   6.256   6.483
13470SOL     OW42248  11.625   0.222   4.904
13470SOL    HW142249  11.695   0.280   4.875
13470SOL    HW242250  11.631   0.221   4.999
13471SOL     OW42251  12.872   3.715  12.824
13471SOL    HW142252  12.954   3.684  12.863
13471SOL    HW242253  12.849   3.793  12.875
13472SOL     OW42254   9.228  14.508  12.106
13472SOL    HW142255   9.175  14.469  12.176
13472SOL    HW242256   9.318  14.492  12.133
13473SOL     OW42257   4.509   7.938   2.638
13473SOL    HW142258   4.601   7.963   2.646
13473SOL    HW242259   4.460   8.018   2.658
13474SOL     OW42260  11.600   1.385   3.529
13474SOL    HW142261  11.644   1.454   3.581
13474SOL    HW242262  11.507   1.395   3.550
13475SOL     OW42263  14.514   0.380   7.041
13475SOL    HW142264  14.460   0.301   7.046
13475SOL    HW242265  14.601   0.352   7.069
13476SOL     OW42266   0.990  11.260   6.642
13476SOL    HW142267   0.963  11.255   6.550
13476SOL    HW242268   1.076  11.218   6.644
13477SOL     OW42269  10.309  12.671   8.649
13477SOL    HW142270  10.272  12.654   8.736
13477SOL    HW242271  10.357  12.592   8.628
13478SOL     OW42272   8.431   4.241   7.781
13478SOL    HW142273   8.472   4.243   7.694
13478SOL    HW242274   8.472   4.166   7.825
13479SOL     OW42275   5.226  10.877  11.768
13479SOL    HW142276   5.207  10.889  11.675
13479SOL    HW242277   5.204  10.961  11.808
13480SOL     OW42278   5.481  10.654   4.007
13480SOL    HW142279   5.437  10.733   4.039
13480SOL    HW242280   5.452  10.585   4.067
13481SOL     OW42281  14.610   1.376   8.156
13481SOL    HW142282  14.647   1.305   8.209
13481SOL    HW242283  14.599   1.449   8.218
13482SOL     OW42284   0.920   0.791  10.900
13482SOL    HW142285   0.999   0.738  10.914
13482SOL    HW242286   0.852   0.746  10.950
13483SOL     OW42287  14.000   8.676   4.512
13483SOL    HW142288  13.951   8.688   4.593
13483SOL    HW242289  14.071   8.740   4.516
13484SOL     OW42290   3.032   1.683   4.083
13484SOL    HW142291   3.089   1.760   4.079
13484SOL    HW242292   2.981   1.686   4.002
13485SOL     OW42293   1.844   9.046   5.424
13485SOL    HW142294   1.878   9.081   5.341
13485SOL    HW242295   1.795   9.118   5.462
13486SOL     OW42296  12.505   5.933   9.749
13486SOL    HW142297  12.487   6.027   9.756
13486SOL    HW242298  12.589   5.927   9.703
13487SOL     OW42299   2.212  10.802   0.533
13487SOL    HW142300   2.222  10.881   0.481
13487SOL    HW242301   2.181  10.833   0.618
13488SOL     OW42302  12.696   8.949  10.282
13488SOL    HW142303  12.773   8.916  10.236
13488SOL    HW242304  12.663   9.020  10.226
13489SOL     OW42305  10.591   5.985  12.420
13489SOL    HW142306  10.578   6.026  12.335
13489SOL    HW242307  10.644   5.907  12.401
13490SOL     OW42308   9.568  11.597   6.921
13490SOL    HW142309   9.620  11.661   6.970
13490SOL    HW242310   9.558  11.636   6.834
13491SOL     OW42311  10.058  12.505   1.806
13491SOL    HW142312  10.082  12.550   1.887
13491SOL    HW242313  10.022  12.421   1.835
13492SOL     OW42314   3.969  12.950  14.685
13492SOL    HW142315   3.978  13.011  14.612
13492SOL    HW242316   3.877  12.955  14.710
13493SOL     OW42317   4.409   6.737   4.286
13493SOL    HW142318   4.326   6.784   4.284
13493SOL    HW242319   4.389   6.655   4.331
13494SOL     OW42320   5.947   0.008   9.339
13494SOL    HW142321   5.855   0.031   9.329
13494SOL    HW242322   5.994   0.088   9.314
13495SOL     OW42323   2.616  12.368   8.021
13495SOL    HW142324   2.595  12.396   7.932
13495SOL    HW242325   2.676  12.295   8.009
13496SOL     OW42326  14.503   1.222  11.619
13496SOL    HW142327  14.481   1.297  11.675
13496SOL    HW242328  14.422   1.173  11.612
13497SOL     OW42329   5.557   5.168   8.928
13497SOL    HW142330   5.609   5.193   9.004
13497SOL    HW242331   5.619   5.128   8.868
13498SOL     OW42332  10.553  10.253   5.041
13498SOL    HW142333  10.616  10.207   4.986
13498SOL    HW242334  10.603  10.321   5.084
13499SOL     OW42335   5.211  13.890   1.359
13499SOL    HW142336   5.189  13.797   1.355
13499SOL    HW242337   5.260  13.899   1.441
13500SOL     OW42338   8.574  14.837   5.561
13500SOL    HW142339   8.480  14.821   5.570
13500SOL    HW242340   8.590  14.838   5.467
13501SOL     OW42341   1.919   0.702  13.402
13501SOL    HW142342   2.004   0.683  13.441
13501SOL    HW242343   1.937   0.774  13.341
13502SOL     OW42344   1.689  11.429   9.161
13502SOL    HW142345   1.732  11.512   9.140
13502SOL    HW242346   1.650  11.443   9.247
13503SOL     OW42347   2.725   6.265   8.461
13503SOL    HW142348   2.755   6.204   8.529
13503SOL    HW242349   2.659   6.216   8.413
13504SOL     OW42350   4.333   3.582   7.819
13504SOL    HW142351   4.403   3.568   7.883
13504SOL    HW242352   4.373   3.560   7.735
13505SOL     OW42353  11.323  10.747   1.029
13505SOL    HW142354  11.389  10.696   1.075
13505SOL    HW242355  11.354  10.837   1.032
13506SOL     OW42356   3.555  14.091   5.157
13506SOL    HW142357   3.469  14.128   5.142
13506SOL    HW242358   3.590  14.073   5.070
13507SOL     OW42359   2.961   8.379  10.374
13507SOL    HW142360   3.046   8.422  10.365
13507SOL    HW242361   2.927   8.410  10.459
13508SOL     OW42362   9.220  11.131   7.090
13508SOL    HW142363   9.303  11.149   7.134
13508SOL    HW242364   9.225  11.182   7.009
13509SOL     OW42365   6.890   7.379   1.619
13509SOL    HW142366   6.821   7.404   1.681
13509SOL    HW242367   6.845   7.375   1.534
13510SOL     OW42368   8.671  10.247  14.708
13510SOL    HW142369   8.638  10.316  14.765
13510SOL    HW242370   8.667  10.168  14.762
13511SOL     OW42371   0.043   4.832   0.927
13511SOL    HW142372   0.138   4.821   0.920
13511SOL    HW242373   0.018   4.782   1.005
13512SOL     OW42374  12.595   2.310  12.514
13512SOL    HW142375  12.586   2.404  12.525
13512SOL    HW242376  12.518   2.284  12.463
13513SOL     OW42377  12.706   8.646   5.434
13513SOL    HW142378  12.615   8.635   5.408
13513SOL    HW242379  12.715   8.739   5.452
13514SOL     OW42380   1.207   7.171   0.593
13514SOL    HW142381   1.257   7.115   0.534
13514SOL    HW242382   1.273   7.225   0.637
13515SOL     OW42383   3.987   2.650   9.001
13515SOL    HW142384   3.983   2.664   8.906
13515SOL    HW242385   4.077   2.624   9.018
13516SOL     OW42386  13.916   1.272   2.817
13516SOL    HW142387  13.912   1.231   2.904
13516SOL    HW242388  13.836   1.242   2.773
13517SOL     OW42389   9.298   2.525   6.468
13517SOL    HW142390   9.393   2.525   6.477
13517SOL    HW242391   9.281   2.572   6.386
13518SOL     OW42392   5.412  10.621   7.764
13518SOL    HW142393   5.444  10.681   7.697
13518SOL    HW242394   5.491  10.573   7.792
13519SOL     OW42395   3.278  14.161  14.605
13519SOL    HW142396   3.305  14.160  14.513
13519SOL    HW242397   3.359  14.149  14.654
13520SOL     OW42398   6.895   1.715  11.860
13520SOL    HW142399   6.823   1.688  11.917
13520SOL    HW242400   6.947   1.636  11.847
13521SOL     OW42401   6.208  13.622  14.287
13521SOL    HW142402   6.138  13.556  14.285
13521SOL    HW242403   6.244  13.616  14.375
13522SOL     OW42404   2.521   2.427   6.837
13522SOL    HW142405   2.525   2.447   6.931
13522SOL    HW242406   2.501   2.334   6.833
13523SOL     OW42407   5.885   3.866   4.490
13523SOL    HW142408   5.907   3.940   4.434
13523SOL    HW242409   5.870   3.794   4.429
13524SOL     OW42410  11.178   7.233   5.171
13524SOL    HW142411  11.249   7.291   5.143
13524SOL    HW242412  11.127   7.218   5.092
13525SOL     OW42413   2.100   7.568  13.759
13525SOL    HW142414   2.025   7.617  13.725
13525SOL    HW242415   2.154   7.634  13.802
13526SOL     OW42416   6.628  11.292   1.228
13526SOL    HW142417   6.640  11.367   1.169
13526SOL    HW242418   6.668  11.218   1.181
13527SOL     OW42419   6.085   9.751   2.741
13527SOL    HW142420   6.138   9.796   2.676
13527SOL    HW242421   6.069   9.664   2.704
13528SOL     OW42422   0.167   7.442   2.173
13528SOL    HW142423   0.102   7.491   2.223
13528SOL    HW242424   0.129   7.433   2.086
13529SOL     OW42425  12.656  11.612  11.996
13529SOL    HW142426  12.571  11.572  11.975
13529SOL    HW242427  12.666  11.682  11.932
13530SOL     OW42428  11.508   7.092   0.495
13530SOL    HW142429  11.504   7.036   0.573
13530SOL    HW242430  11.505   7.181   0.530
13531SOL     OW42431   3.560   4.509   3.356
13531SOL    HW142432   3.472   4.513   3.318
13531SOL    HW242433   3.589   4.600   3.360
13532SOL     OW42434   0.507   3.893   5.437
13532SOL    HW142435   0.555   3.855   5.364
13532SOL    HW242436   0.489   3.818   5.495
13533SOL     OW42437  12.006   9.149  12.689
13533SOL    HW142438  11.953   9.131  12.611
13533SOL    HW242439  12.096   9.142  12.659
13534SOL     OW42440   5.333   4.253   7.513
13534SOL    HW142441   5.267   4.208   7.461
13534SOL    HW242442   5.302   4.244   7.604
13535SOL     OW42443   6.389   7.799   6.834
13535SOL    HW142444   6.414   7.725   6.778
13535SOL    HW242445   6.407   7.768   6.923
13536SOL     OW42446   2.625   4.283   9.906
13536SOL    HW142447   2.585   4.207   9.949
13536SOL    HW242448   2.613   4.267   9.813
13537SOL     OW42449   0.356   3.210   9.305
13537SOL    HW142450   0.431   3.156   9.329
13537SOL    HW242451   0.393   3.295   9.284
13538SOL     OW42452  11.227  10.752  12.610
13538SOL    HW142453  11.193  10.764  12.699
13538SOL    HW242454  11.270  10.835  12.590
13539SOL     OW42455   3.999  12.001  14.501
13539SOL    HW142456   3.949  12.033  14.426
13539SOL    HW242457   3.936  11.997  14.573
13540SOL     OW42458   7.343  11.613  14.516
13540SOL    HW142459   7.311  11.699  14.544
13540SOL    HW242460   7.278  11.582  14.453
13541SOL     OW42461   6.373  14.383  13.131
13541SOL    HW142462   6.294  14.335  13.153
13541SOL    HW242463   6.410  14.337  13.056
13542SOL     OW42464  13.275   5.643   4.273
13542SOL    HW142465  13.364   5.625   4.304
13542SOL    HW242466  13.237   5.556   4.258
13543SOL     OW42467   5.184  10.730   5.231
13543SOL    HW142468   5.172  10.824   5.238
13543SOL    HW242469   5.209  10.702   5.320
13544SOL     OW42470  14.228   3.627   3.213
13544SOL    HW142471  14.208   3.562   3.145
13544SOL    HW242472  14.314   3.601   3.247
13545SOL     OW42473   7.866   3.574   9.233
13545SOL    HW142474   7.771   3.561   9.232
13545SOL    HW242475   7.896   3.527   9.311
13546SOL     OW42476   0.210   5.717   5.333
13546SOL    HW142477   0.233   5.792   5.278
13546SOL    HW242478   0.129   5.743   5.376
13547SOL     OW42479   4.672   8.237   6.566
13547SOL    HW142480   4.681   8.302   6.636
13547SOL    HW242481   4.656   8.289   6.487
13548SOL     OW42482   1.264  13.331  12.615
13548SOL    HW142483   1.274  13.238  12.594
13548SOL    HW242484   1.177  13.354  12.582
13549SOL     OW42485   6.721   2.900   0.795
13549SOL    HW142486   6.807   2.934   0.770
13549SOL    HW242487   6.691   2.852   0.718
13550SOL     OW42488  10.826   2.926  11.129
13550SOL    HW142489  10.765   2.990  11.165
13550SOL    HW242490  10.911   2.949  11.168
13551SOL     OW42491   6.129  12.434   4.471
13551SOL    HW142492   6.057  12.430   4.534
13551SOL    HW242493   6.096  12.488   4.399
13552SOL     OW42494  13.338   9.515   6.242
13552SOL    HW142495  13.362   9.503   6.334
13552SOL    HW242496  13.417   9.489   6.194
13553SOL     OW42497   5.447   0.961   4.795
13553SOL    HW142498   5.523   0.913   4.830
13553SOL    HW242499   5.451   0.946   4.701
13554SOL     OW42500   2.747   2.583  11.506
13554SOL    HW142501   2.718   2.492  11.504
13554SOL    HW242502   2.767   2.604  11.414
13555SOL     OW42503  14.589  11.940   0.830
13555SOL    HW142504  14.517  11.958   0.768
13555SOL    HW242505  14.592  12.019   0.885
13556SOL     OW42506   8.397   0.308  11.200
13556SOL    HW142507   8.393   0.397  11.234
13556SOL    HW242508   8.481   0.274  11.231
13557SOL     OW42509  14.363   1.998   4.319
13557SOL    HW142510  14.446   1.967   4.283
13557SOL    HW242511  14.349   1.946   4.398
13558SOL     OW42512  11.564   5.295   5.400
13558SOL    HW142513  11.482   5.257   5.368
13558SOL    HW242514  11.619   5.303   5.322
13559SOL     OW42515  11.195  12.435   1.187
13559SOL    HW142516  11.289  12.451   1.186
13559SOL    HW242517  11.156  12.523   1.183
13560SOL     OW42518  13.963   6.200   1.800
13560SOL    HW142519  14.027   6.241   1.859
13560SOL    HW242520  13.993   6.110   1.790
13561SOL     OW42521  13.464   1.676  14.542
13561SOL    HW142522  13.531   1.629  14.592
13561SOL    HW242523  13.446   1.619  14.467
13562SOL     OW42524   7.295   3.559   0.059
13562SOL    HW142525   7.302   3.590  14.851
13562SOL    HW242526   7.213   3.597   0.091
13563SOL     OW42527   4.256  13.316   6.197
13563SOL    HW142528   4.317  13.356   6.135
13563SOL    HW242529   4.237  13.231   6.160
13564SOL     OW42530   9.898   9.774   6.034
13564SOL    HW142531   9.822   9.801   6.086
13564SOL    HW242532   9.973   9.803   6.084
13565SOL     OW42533   5.285  13.166   4.909
13565SOL    HW142534   5.319  13.245   4.866
13565SOL    HW242535   5.275  13.192   5.001
13566SOL     OW42536  11.529   5.653   6.748
13566SOL    HW142537  11.611   5.609   6.772
13566SOL    HW242538  11.488   5.675   6.831
13567SOL     OW42539  10.256   7.532   4.876
13567SOL    HW142540  10.305   7.454   4.849
13567SOL    HW242541  10.319   7.604   4.868
13568SOL     OW42542  10.428   6.873   5.632
13568SOL    HW142543  10.469   6.814   5.694
13568SOL    HW242544  10.360   6.820   5.589
13569SOL     OW42545  11.457  13.942   6.664
13569SOL    HW142546  11.403  13.914   6.590
13569SOL    HW242547  11.422  14.028   6.687
13570SOL     OW42548   9.925  12.913   4.583
13570SOL    HW142549  10.010  12.918   4.540
13570SOL    HW242550   9.863  12.892   4.513
13571SOL     OW42551  12.928  11.013   7.614
13571SOL    HW142552  13.023  11.016   7.601
13571SOL    HW242553  12.917  11.033   7.707
13572SOL     OW42554   5.616  11.040  14.600
13572SOL    HW142555   5.561  11.087  14.537
13572SOL    HW242556   5.703  11.040  14.560
13573SOL     OW42557   3.621  12.346  10.825
13573SOL    HW142558   3.633  12.337  10.919
13573SOL    HW242559   3.617  12.256  10.792
13574SOL     OW42560   0.087   3.202   3.574
13574SOL    HW142561   0.121   3.290   3.557
13574SOL    HW242562   0.151   3.143   3.533
13575SOL     OW42563  13.608   5.831   3.515
13575SOL    HW142564  13.697   5.840   3.481
13575SOL    HW242565  13.568   5.918   3.500
13576SOL     OW42566   1.247   0.040   9.795
13576SOL    HW142567   1.219   0.115   9.743
13576SOL    HW242568   1.336   0.022   9.764
13577SOL     OW42569  11.288   2.668   9.986
13577SOL    HW142570  11.223   2.600   9.970
13577SOL    HW242571  11.237   2.749   9.993
13578SOL     OW42572  10.499   1.295   1.676
13578SOL    HW142573  10.404   1.300   1.684
13578SOL    HW242574  10.532   1.349   1.747
13579SOL     OW42575   8.733  13.853   0.684
13579SOL    HW142576   8.824  13.879   0.668
13579SOL    HW242577   8.681  13.928   0.656
13580SOL     OW42578  11.887  14.142   7.918
13580SOL    HW142579  11.812  14.102   7.873
13580SOL    HW242580  11.894  14.229   7.879
13581SOL     OW42581  12.960   5.952   1.958
13581SOL    HW142582  12.902   5.995   2.021
13581SOL    HW242583  13.048   5.975   1.988
13582SOL     OW42584  11.961   3.235  12.432
13582SOL    HW142585  11.971   3.151  12.476
13582SOL    HW242586  11.946   3.212  12.340
13583SOL     OW42587   2.292   5.832   6.448
13583SOL    HW142588   2.217   5.860   6.395
13583SOL    HW242589   2.343   5.775   6.391
13584SOL     OW42590   0.784   3.599   5.185
13584SOL    HW142591   0.842   3.538   5.140
13584SOL    HW242592   0.789   3.680   5.133
13585SOL     OW42593  13.688   6.582   6.007
13585SOL    HW142594  13.642   6.550   5.929
13585SOL    HW242595  13.780   6.563   5.989
13586SOL     OW42596  14.873   5.330   2.912
13586SOL    HW142597  14.852   5.236   2.911
13586SOL    HW242598  14.814   5.367   2.978
13587SOL     OW42599  14.834   3.532  13.594
13587SOL    HW142600   0.031   3.539  13.540
13587SOL    HW242601  14.805   3.442  13.582
13588SOL     OW42602  12.998   8.056  12.516
13588SOL    HW142603  13.006   7.975  12.464
13588SOL    HW242604  13.083   8.099  12.506
13589SOL     OW42605   3.754   4.255   2.701
13589SOL    HW142606   3.763   4.346   2.674
13589SOL    HW242607   3.662   4.246   2.728
13590SOL     OW42608   2.484   7.473   0.732
13590SOL    HW142609   2.541   7.486   0.656
13590SOL    HW242610   2.542   7.478   0.808
13591SOL     OW42611   4.629   6.072   2.769
13591SOL    HW142612   4.537   6.071   2.743
13591SOL    HW242613   4.629   6.031   2.856
13592SOL     OW42614   5.085   0.885   9.340
13592SOL    HW142615   5.081   0.929   9.425
13592SOL    HW242616   5.096   0.955   9.277
13593SOL     OW42617   5.475   8.192   7.600
13593SOL    HW142618   5.381   8.207   7.609
13593SOL    HW242619   5.495   8.223   7.512
13594SOL     OW42620   7.295   9.809  12.307
13594SOL    HW142621   7.296   9.847  12.395
13594SOL    HW242622   7.368   9.747  12.306
13595SOL     OW42623  14.240   9.700   9.163
13595SOL    HW142624  14.291   9.654   9.096
13595SOL    HW242625  14.213   9.632   9.223
13596SOL     OW42626  14.077   5.453   0.895
13596SOL    HW142627  14.137   5.504   0.949
13596SOL    HW242628  13.993   5.458   0.942
13597SOL     OW42629   7.736   5.186   0.357
13597SOL    HW142630   7.683   5.115   0.322
13597SOL    HW242631   7.692   5.212   0.438
13598SOL     OW42632   5.226  14.353   0.415
13598SOL    HW142633   5.297  14.292   0.435
13598SOL    HW242634   5.185  14.317   0.336
13599SOL     OW42635   4.465   4.976  11.618
13599SOL    HW142636   4.395   5.029  11.581
13599SOL    HW242637   4.505   4.933  11.542
13600SOL     OW42638   1.824   3.494  12.109
13600SOL    HW142639   1.889   3.522  12.044
13600SOL    HW242640   1.860   3.414  12.145
13601SOL     OW42641   9.116  13.515   1.604
13601SOL    HW142642   9.041  13.468   1.568
13601SOL    HW242643   9.190  13.456   1.591
13602SOL     OW42644  10.649  14.088   7.126
13602SOL    HW142645  10.743  14.078   7.109
13602SOL    HW242646  10.613  14.117   7.043
13603SOL     OW42647  11.898   0.901  12.341
13603SOL    HW142648  11.979   0.916  12.293
13603SOL    HW242649  11.831   0.944  12.288
13604SOL     OW42650   0.396  14.397  10.167
13604SOL    HW142651   0.395  14.403  10.071
13604SOL    HW242652   0.310  14.360  10.189
13605SOL     OW42653   3.375   7.764   6.962
13605SOL    HW142654   3.352   7.784   7.053
13605SOL    HW242655   3.298   7.717   6.929
13606SOL     OW42656  13.598   9.414   6.158
13606SOL    HW142657  13.632   9.401   6.247
13606SOL    HW242658  13.579   9.325   6.127
13607SOL     OW42659  10.145  13.931   1.623
13607SOL    HW142660  10.110  14.019   1.612
13607SOL    HW242661  10.169  13.926   1.716
13608SOL     OW42662  14.851   1.472   1.512
13608SOL    HW142663  14.864   1.451   1.605
13608SOL    HW242664   0.058   1.484   1.478
13609SOL     OW42665  10.264   4.016  11.896
13609SOL    HW142666  10.193   4.081  11.892
13609SOL    HW242667  10.227   3.937  11.856
13610SOL     OW42668   6.792  12.137   8.990
13610SOL    HW142669   6.747  12.160   8.908
13610SOL    HW242670   6.773  12.044   9.002
13611SOL     OW42671   9.222   7.705   2.770
13611SOL    HW142672   9.295   7.683   2.712
13611SOL    HW242673   9.160   7.633   2.757
13612SOL     OW42674   7.488   5.276   5.702
13612SOL    HW142675   7.461   5.233   5.621
13612SOL    HW242676   7.509   5.366   5.675
13613SOL     OW42677  11.585   9.561   4.210
13613SOL    HW142678  11.668   9.566   4.257
13613SOL    HW242679  11.542   9.644   4.231
13614SOL     OW42680  14.572   4.670  12.736
13614SOL    HW142681  14.525   4.591  12.765
13614SOL    HW242682  14.648   4.636  12.689
13615SOL     OW42683  13.165   3.077  12.918
13615SOL    HW142684  13.176   3.049  13.009
13615SOL    HW242685  13.070   3.085  12.907
13616SOL     OW42686   0.239  14.440   0.529
13616SOL    HW142687   0.329  14.471   0.540
13616SOL    HW242688   0.208  14.429   0.619
13617SOL     OW42689  12.683   4.525   1.071
13617SOL    HW142690  12.615   4.582   1.106
13617SOL    HW242691  12.704   4.465   1.143
13618SOL     OW42692   7.018   8.749  12.201
13618SOL    HW142693   7.033   8.733  12.108
13618SOL    HW242694   7.078   8.821  12.222
13619SOL     OW42695   1.953  12.577  12.643
13619SOL    HW142696   1.887  12.642  12.665
13619SOL    HW242697   2.013  12.578  12.717
13620SOL     OW42698   3.327  13.642   7.409
13620SOL    HW142699   3.307  13.630   7.316
13620SOL    HW242700   3.421  13.661   7.410
13621SOL     OW42701   1.337   7.224   6.931
13621SOL    HW142702   1.382   7.308   6.940
13621SOL    HW242703   1.347   7.201   6.838
13622SOL     OW42704   7.927   1.211   3.807
13622SOL    HW142705   7.942   1.305   3.822
13622SOL    HW242706   7.885   1.181   3.888
13623SOL     OW42707   7.426   6.198  10.211
13623SOL    HW142708   7.357   6.162  10.267
13623SOL    HW242709   7.415   6.154  10.127
13624SOL     OW42710  11.358   8.895   1.664
13624SOL    HW142711  11.319   8.946   1.593
13624SOL    HW242712  11.381   8.811   1.623
13625SOL     OW42713   2.925  13.814  12.793
13625SOL    HW142714   2.962  13.780  12.875
13625SOL    HW242715   2.832  13.823  12.811
13626SOL     OW42716   3.509  11.221   9.971
13626SOL    HW142717   3.501  11.309  10.008
13626SOL    HW242718   3.593  11.189  10.004
13627SOL     OW42719   9.831   1.003   0.268
13627SOL    HW142720   9.880   1.039   0.342
13627SOL    HW242721   9.883   0.927   0.240
13628SOL     OW42722   6.967   9.545   6.042
13628SOL    HW142723   7.052   9.565   6.002
13628SOL    HW242724   6.982   9.463   6.090
13629SOL     OW42725   7.216   9.019  11.265
13629SOL    HW142726   7.159   8.982  11.332
13629SOL    HW242727   7.285   8.953  11.255
13630SOL     OW42728   2.080   9.316  12.191
13630SOL    HW142729   2.110   9.340  12.279
13630SOL    HW242730   2.160   9.300  12.142
13631SOL     OW42731   1.818  11.659   5.792
13631SOL    HW142732   1.853  11.638   5.879
13631SOL    HW242733   1.733  11.615   5.789
13632SOL     OW42734   9.852   3.299   4.164
13632SOL    HW142735   9.923   3.253   4.207
13632SOL    HW242736   9.786   3.231   4.147
13633SOL     OW42737   7.847   9.671   2.374
13633SOL    HW142738   7.804   9.589   2.397
13633SOL    HW242739   7.806   9.698   2.291
13634SOL     OW42740   9.691  13.341   9.467
13634SOL    HW142741   9.704  13.267   9.527
13634SOL    HW242742   9.596  13.353   9.465
13635SOL     OW42743   9.064   3.607   5.210
13635SOL    HW142744   8.978   3.616   5.170
13635SOL    HW242745   9.063   3.520   5.250
13636SOL     OW42746   9.966   1.509   4.200
13636SOL    HW142747  10.058   1.536   4.206
13636SOL    HW242748   9.966   1.418   4.228
13637SOL     OW42749  12.862   6.008   6.928
13637SOL    HW142750  12.789   6.070   6.922
13637SOL    HW242751  12.917   6.028   6.852
13638SOL     OW42752  11.610   9.466  13.249
13638SOL    HW142753  11.649   9.433  13.168
13638SOL    HW242754  11.572   9.389  13.291
13639SOL     OW42755   0.288  13.926   1.317
13639SOL    HW142756   0.269  14.017   1.339
13639SOL    HW242757   0.256  13.916   1.227
13640SOL     OW42758   3.959   1.514  12.967
13640SOL    HW142759   3.908   1.482  12.892
13640SOL    HW242760   3.918   1.598  12.989
13641SOL     OW42761  13.444   2.746   8.476
13641SOL    HW142762  13.468   2.750   8.568
13641SOL    HW242763  13.416   2.655   8.462
13642SOL     OW42764  10.861   2.229  13.869
13642SOL    HW142765  10.838   2.137  13.859
13642SOL    HW242766  10.955   2.233  13.853
13643SOL     OW42767  11.475  14.724   5.548
13643SOL    HW142768  11.501  14.641   5.509
13643SOL    HW242769  11.504  14.791   5.486
13644SOL     OW42770   3.477   8.051   9.557
13644SOL    HW142771   3.536   8.074   9.630
13644SOL    HW242772   3.433   7.971   9.586
13645SOL     OW42773  13.328   9.313   5.249
13645SOL    HW142774  13.364   9.226   5.229
13645SOL    HW242775  13.267   9.297   5.321
13646SOL     OW42776   6.479  10.515   0.956
13646SOL    HW142777   6.424  10.442   0.930
13646SOL    HW242778   6.562  10.475   0.984
13647SOL     OW42779   9.176   1.695  11.769
13647SOL    HW142780   9.104   1.681  11.708
13647SOL    HW242781   9.193   1.789  11.764
13648SOL     OW42782   0.551   5.222   5.878
13648SOL    HW142783   0.522   5.307   5.848
13648SOL    HW242784   0.495   5.159   5.832
13649SOL     OW42785   6.212   8.210   3.876
13649SOL    HW142786   6.279   8.142   3.889
13649SOL    HW242787   6.207   8.256   3.959
13650SOL     OW42788  11.123  11.927   2.435
13650SOL    HW142789  11.039  11.972   2.434
13650SOL    HW242790  11.106  11.845   2.388
13651SOL     OW42791   7.377  12.891   1.298
13651SOL    HW142792   7.301  12.841   1.328
13651SOL    HW242793   7.376  12.882   1.203
13652SOL     OW42794  12.600   6.256   3.433
13652SOL    HW142795  12.643   6.232   3.351
13652SOL    HW242796  12.584   6.172   3.477
13653SOL     OW42797  12.956   3.324   7.106
13653SOL    HW142798  12.901   3.260   7.151
13653SOL    HW242799  12.902   3.355   7.034
13654SOL     OW42800   5.595   8.704  14.432
13654SOL    HW142801   5.605   8.798  14.422
13654SOL    HW242802   5.681   8.668  14.412
13655SOL     OW42803  13.617   7.879   1.907
13655SOL    HW142804  13.599   7.948   1.971
13655SOL    HW242805  13.712   7.867   1.910
13656SOL     OW42806   4.020  13.432   9.562
13656SOL    HW142807   4.037  13.473   9.477
13656SOL    HW242808   3.927  13.449   9.580
13657SOL     OW42809   0.723   0.674   4.434
13657SOL    HW142810   0.733   0.579   4.436
13657SOL    HW242811   0.658   0.690   4.365
13658SOL     OW42812   6.206   1.778   3.738
13658SOL    HW142813   6.197   1.711   3.807
13658SOL    HW242814   6.231   1.728   3.660
13659SOL     OW42815   3.056   5.653  10.546
13659SOL    HW142816   3.138   5.675  10.502
13659SOL    HW242817   2.988   5.683  10.486
13660SOL     OW42818   7.470   9.513   0.076
13660SOL    HW142819   7.540   9.572   0.048
13660SOL    HW242820   7.485   9.433   0.025
13661SOL     OW42821  13.659   1.855  10.843
13661SOL    HW142822  13.575   1.814  10.821
13661SOL    HW242823  13.688   1.896  10.762
13662SOL     OW42824   7.352  10.097   1.087
13662SOL    HW142825   7.307  10.072   1.006
13662SOL    HW242826   7.391  10.016   1.119
13663SOL     OW42827   3.986   0.711   6.411
13663SOL    HW142828   4.008   0.794   6.370
13663SOL    HW242829   4.006   0.645   6.345
13664SOL     OW42830   4.712  14.780  12.120
13664SOL    HW142831   4.620  14.791  12.098
13664SOL    HW242832   4.728  14.844  12.189
13665SOL     OW42833  12.480   7.874   7.064
13665SOL    HW142834  12.489   7.870   7.159
13665SOL    HW242835  12.392   7.838   7.048
13666SOL     OW42836  11.384   5.374  11.138
13666SOL    HW142837  11.404   5.320  11.062
13666SOL    HW242838  11.466   5.378  11.187
13667SOL     OW42839  13.224   9.958  12.043
13667SOL    HW142840  13.162   9.991  11.979
13667SOL    HW242841  13.199   9.866  12.056
13668SOL     OW42842   0.680  10.480   5.947
13668SOL    HW142843   0.641  10.398   5.916
13668SOL    HW242844   0.770  10.478   5.913
13669SOL     OW42845  12.950   9.614   6.081
13669SOL    HW142846  13.028   9.568   6.050
13669SOL    HW242847  12.983   9.682   6.140
13670SOL     OW42848   8.727   6.951   1.989
13670SOL    HW142849   8.789   6.994   1.930
13670SOL    HW242850   8.643   6.991   1.969
13671SOL     OW42851   1.282   5.831   5.248
13671SOL    HW142852   1.369   5.872   5.239
13671SOL    HW242853   1.220   5.901   5.228
13672SOL     OW42854   4.527   7.789   8.418
13672SOL    HW142855   4.596   7.750   8.473
13672SOL    HW242856   4.447   7.746   8.447
13673SOL     OW42857  11.877   2.480   9.355
13673SOL    HW142858  11.860   2.395   9.395
13673SOL    HW242859  11.793   2.507   9.318
13674SOL     OW42860   1.782   0.340   1.433
13674SOL    HW142861   1.787   0.421   1.382
13674SOL    HW242862   1.688   0.322   1.438
13675SOL     OW42863  11.389  11.961   9.500
13675SOL    HW142864  11.433  11.919   9.574
13675SOL    HW242865  11.452  11.956   9.428
13676SOL     OW42866   1.271  11.216   4.933
13676SOL    HW142867   1.207  11.242   4.999
13676SOL    HW242868   1.250  11.269   4.856
13677SOL     OW42869  13.333   7.741   0.133
13677SOL    HW142870  13.302   7.656   0.164
13677SOL    HW242871  13.412   7.721   0.083
13678SOL     OW42872   8.379  12.464   8.196
13678SOL    HW142873   8.453  12.404   8.206
13678SOL    HW242874   8.419  12.550   8.186
13679SOL     OW42875   1.231   7.368  10.656
13679SOL    HW142876   1.298   7.302  10.637
13679SOL    HW242877   1.150   7.330  10.623
13680SOL     OW42878  14.474   7.013   5.140
13680SOL    HW142879  14.384   7.046   5.144
13680SOL    HW242880  14.522   7.064   5.205
13681SOL     OW42881   4.273  10.463   3.636
13681SOL    HW142882   4.355  10.452   3.683
13681SOL    HW242883   4.297  10.505   3.554
13682SOL     OW42884   2.294  10.309  13.635
13682SOL    HW142885   2.226  10.284  13.698
13682SOL    HW242886   2.364  10.246  13.650
13683SOL     OW42887   8.392   1.791   2.199
13683SOL    HW142888   8.429   1.846   2.130
13683SOL    HW242889   8.469   1.755   2.244
13684SOL     OW42890   0.271  11.908  12.079
13684SOL    HW142891   0.304  11.961  12.151
13684SOL    HW242892   0.234  11.971  12.017
13685SOL     OW42893   8.752   5.594   6.821
13685SOL    HW142894   8.798   5.584   6.737
13685SOL    HW242895   8.739   5.688   6.830
13686SOL     OW42896   8.849   7.255   7.226
13686SOL    HW142897   8.836   7.258   7.321
13686SOL    HW242898   8.760   7.249   7.190
13687SOL     OW42899  10.692   2.820   7.835
13687SOL    HW142900  10.754   2.863   7.776
13687SOL    HW242901  10.701   2.727   7.815
13688SOL     OW42902   4.054   8.074   2.004
13688SOL    HW142903   4.132   8.052   1.954
13688SOL    HW242904   3.982   8.072   1.940
13689SOL     OW42905  13.212   0.504   8.990
13689SOL    HW142906  13.212   0.600   9.001
13689SOL    HW242907  13.208   0.470   9.080
13690SOL     OW42908  12.141   3.065   2.003
13690SOL    HW142909  12.067   3.120   2.028
13690SOL    HW242910  12.214   3.125   1.993
13691SOL     OW42911   9.791   4.188   8.918
13691SOL    HW142912   9.749   4.254   8.862
13691SOL    HW242913   9.719   4.150   8.969
13692SOL     OW42914   5.599   9.717   1.764
13692SOL    HW142915   5.524   9.729   1.706
13692SOL    HW242916   5.580   9.636   1.812
13693SOL     OW42917   9.054   3.041  11.667
13693SOL    HW142918   9.127   3.084  11.622
13693SOL    HW242919   8.979   3.099  11.652
13694SOL     OW42920   7.069   0.764   7.842
13694SOL    HW142921   6.986   0.792   7.881
13694SOL    HW242922   7.066   0.668   7.847
13695SOL     OW42923   4.493  12.403   8.597
13695SOL    HW142924   4.588  12.407   8.611
13695SOL    HW242925   4.463  12.492   8.617
13696SOL     OW42926   5.845  10.915  10.251
13696SOL    HW142927   5.749  10.911  10.254
13696SOL    HW242928   5.873  10.824  10.254
13697SOL     OW42929   1.698   2.392   8.346
13697SOL    HW142930   1.789   2.397   8.316
13697SOL    HW242931   1.704   2.397   8.441
13698SOL     OW42932   7.325  13.607   7.718
13698SOL    HW142933   7.377  13.546   7.770
13698SOL    HW242934   7.263  13.646   7.779
13699SOL     OW42935  14.702   7.596   6.216
13699SOL    HW142936  14.711   7.508   6.254
13699SOL    HW242937  14.719   7.583   6.122
13700SOL     OW42938  11.548  10.456  12.864
13700SOL    HW142939  11.455  10.462  12.846
13700SOL    HW242940  11.587  10.435  12.779
13701SOL     OW42941  12.925   4.270  11.667
13701SOL    HW142942  12.908   4.307  11.580
13701SOL    HW242943  13.021   4.274  11.676
13702SOL     OW42944   6.202  11.803   0.208
13702SOL    HW142945   6.174  11.787   0.298
13702SOL    HW242946   6.248  11.723   0.182
13703SOL     OW42947   9.386  14.708   1.381
13703SOL    HW142948   9.422  14.753   1.304
13703SOL    HW242949   9.462  14.673   1.426
13704SOL     OW42950  12.450   1.725   6.930
13704SOL    HW142951  12.408   1.736   7.016
13704SOL    HW242952  12.433   1.634   6.907
13705SOL     OW42953  10.228   4.297   6.694
13705SOL    HW142954  10.155   4.242   6.722
13705SOL    HW242955  10.302   4.266   6.746
13706SOL     OW42956   5.573   1.352   7.621
13706SOL    HW142957   5.602   1.436   7.584
13706SOL    HW242958   5.633   1.338   7.695
13707SOL     OW42959   5.523   7.989   9.242
13707SOL    HW142960   5.470   7.997   9.162
13707SOL    HW242961   5.527   7.895   9.258
13708SOL     OW42962   5.858   8.975   1.907
13708SOL    HW142963   5.770   9.012   1.899
13708SOL    HW242964   5.898   9.021   1.981
13709SOL     OW42965  10.779   6.762   4.018
13709SOL    HW142966  10.865   6.731   3.988
13709SOL    HW242967  10.729   6.773   3.937
13710SOL     OW42968   8.577   0.792   9.947
13710SOL    HW142969   8.609   0.711   9.906
13710SOL    HW242970   8.598   0.861   9.884
13711SOL     OW42971   7.926   0.962   6.991
13711SOL    HW142972   7.888   0.968   7.079
13711SOL    HW242973   7.888   0.883   6.953
13712SOL     OW42974   2.240   3.314  14.726
13712SOL    HW142975   2.198   3.353  14.649
13712SOL    HW242976   2.194   3.352  14.801
13713SOL     OW42977   6.447   3.409   7.980
13713SOL    HW142978   6.541   3.391   7.984
13713SOL    HW242979   6.406   3.323   7.994
13714SOL     OW42980  12.628   1.263   7.854
13714SOL    HW142981  12.683   1.191   7.823
13714SOL    HW242982  12.589   1.299   7.775
13715SOL     OW42983   7.198   5.896   2.299
13715SOL    HW142984   7.251   5.821   2.324
13715SOL    HW242985   7.158   5.926   2.380
13716SOL     OW42986   2.003   3.002   7.285
13716SOL    HW142987   2.036   3.060   7.354
13716SOL    HW242988   1.954   3.060   7.227
13717SOL     OW42989  13.590   1.598   3.672
13717SOL    HW142990  13.507   1.634   3.702
13717SOL    HW242991  13.641   1.582   3.752
13718SOL     OW42992   3.708  13.434   1.382
13718SOL    HW142993   3.800  13.458   1.380
13718SOL    HW242994   3.666  13.504   1.432
13719SOL     OW42995  12.860   7.124  10.627
13719SOL    HW142996  12.947   7.114  10.589
13719SOL    HW242997  12.853   7.052  10.690
13720SOL     OW42998   6.817   8.626   2.182
13720SOL    HW142999   6.723   8.640   2.194
13720SOL    HW243000   6.859   8.687   2.243
13721SOL     OW43001   5.293  11.548   4.711
13721SOL    HW143002   5.247  11.465   4.700
13721SOL    HW243003   5.374  11.538   4.661
13722SOL     OW43004  12.244  12.241   1.936
13722SOL    HW143005  12.219  12.333   1.945
13722SOL    HW243006  12.290  12.221   2.017
13723SOL     OW43007  13.980   3.609   9.088
13723SOL    HW143008  13.974   3.517   9.112
13723SOL    HW243009  13.968   3.610   8.993
13724SOL     OW43010   6.649   3.420  12.143
13724SOL    HW143011   6.624   3.426  12.051
13724SOL    HW243012   6.743   3.398  12.142
13725SOL     OW43013   7.085   6.054   3.593
13725SOL    HW143014   7.159   5.993   3.593
13725SOL    HW243015   7.099   6.108   3.671
13726SOL     OW43016   5.107  12.133   0.985
13726SOL    HW143017   5.052  12.084   1.046
13726SOL    HW243018   5.047  12.160   0.915
13727SOL     OW43019  13.298   9.072  12.746
13727SOL    HW143020  13.240   9.007  12.785
13727SOL    HW243021  13.255   9.156  12.763
13728SOL     OW43022  11.718   9.795   3.558
13728SOL    HW143023  11.631   9.757   3.571
13728SOL    HW243024  11.754   9.747   3.484
13729SOL     OW43025   7.667   0.986   7.674
13729SOL    HW143026   7.748   1.035   7.659
13729SOL    HW243027   7.618   1.038   7.737
13730SOL     OW43028   1.242   0.270  12.476
13730SOL    HW143029   1.236   0.293  12.568
13730SOL    HW243030   1.178   0.200  12.464
13731SOL     OW43031  13.590  12.890   6.253
13731SOL    HW143032  13.517  12.898   6.192
13731SOL    HW243033  13.667  12.920   6.204
13732SOL     OW43034  14.128   3.849   9.304
13732SOL    HW143035  14.179   3.798   9.241
13732SOL    HW243036  14.048   3.871   9.257
13733SOL     OW43037   0.535   2.555  14.132
13733SOL    HW143038   0.522   2.645  14.161
13733SOL    HW243039   0.457   2.535  14.079
13734SOL     OW43040   3.556  11.298   9.686
13734SOL    HW143041   3.567  11.253   9.770
13734SOL    HW243042   3.490  11.366   9.704
13735SOL     OW43043   2.482   2.419   1.650
13735SOL    HW143044   2.461   2.472   1.574
13735SOL    HW243045   2.465   2.477   1.725
13736SOL     OW43046  10.964   3.434  11.469
13736SOL    HW143047  10.947   3.350  11.427
13736SOL    HW243048  10.878   3.472  11.484
13737SOL     OW43049  10.353   0.380  10.251
13737SOL    HW143050  10.349   0.284  10.258
13737SOL    HW243051  10.291   0.401  10.181
13738SOL     OW43052   9.863   3.203  13.354
13738SOL    HW143053   9.913   3.153  13.290
13738SOL    HW243054   9.788   3.147  13.375
13739SOL     OW43055   0.441  13.641  12.847
13739SOL    HW143056   0.483  13.714  12.892
13739SOL    HW243057   0.414  13.581  12.917
13740SOL     OW43058   4.181  14.194   1.612
13740SOL    HW143059   4.269  14.194   1.650
13740SOL    HW243060   4.133  14.130   1.665
13741SOL     OW43061   2.139   7.208   5.218
13741SOL    HW143062   2.164   7.219   5.310
13741SOL    HW243063   2.103   7.119   5.215
13742SOL     OW43064  12.459   4.942  12.381
13742SOL    HW143065  12.400   4.975  12.313
13742SOL    HW243066  12.546   4.968  12.352
13743SOL     OW43067   5.570  14.697   5.153
13743SOL    HW143068   5.574  14.608   5.189
13743SOL    HW243069   5.575  14.685   5.058
13744SOL     OW43070   9.236   6.339   7.338
13744SOL    HW143071   9.276   6.272   7.284
13744SOL    HW243072   9.153   6.359   7.294
13745SOL     OW43073  13.827  14.211   7.892
13745SOL    HW143074  13.886  14.251   7.956
13745SOL    HW243075  13.814  14.122   7.924
13746SOL     OW43076   0.735  11.385  14.355
13746SOL    HW143077   0.705  11.294  14.355
13746SOL    HW243078   0.676  11.429  14.293
13747SOL     OW43079   1.218  11.282   2.203
13747SOL    HW143080   1.159  11.214   2.169
13747SOL    HW243081   1.182  11.304   2.289
13748SOL     OW43082   2.874  11.773   7.669
13748SOL    HW143083   2.826  11.852   7.648
13748SOL    HW243084   2.881  11.773   7.765
13749SOL     OW43085   5.905   3.453  12.470
13749SOL    HW143086   5.846   3.527  12.455
13749SOL    HW243087   5.872   3.413  12.550
13750SOL     OW43088   9.751  13.363   2.948
13750SOL    HW143089   9.738  13.383   2.855
13750SOL    HW243090   9.707  13.279   2.961
13751SOL     OW43091   1.492  13.207   6.080
13751SOL    HW143092   1.509  13.113   6.076
13751SOL    HW243093   1.577  13.248   6.064
13752SOL     OW43094   1.628  11.678  11.787
13752SOL    HW143095   1.717  11.714  11.784
13752SOL    HW243096   1.604  11.665  11.695
13753SOL     OW43097   1.693   4.402  12.527
13753SOL    HW143098   1.666   4.468  12.463
13753SOL    HW243099   1.664   4.437  12.611
13754SOL     OW43100   8.646  12.920   9.755
13754SOL    HW143101   8.686  12.885   9.676
13754SOL    HW243102   8.586  12.987   9.724
13755SOL     OW43103   5.128   8.626   5.672
13755SOL    HW143104   5.066   8.574   5.620
13755SOL    HW243105   5.100   8.716   5.657
13756SOL     OW43106   2.399   7.611  12.611
13756SOL    HW143107   2.410   7.602  12.517
13756SOL    HW243108   2.464   7.551  12.648
13757SOL     OW43109   9.843   3.780  14.347
13757SOL    HW143110   9.890   3.709  14.390
13757SOL    HW243111   9.862   3.769  14.254
13758SOL     OW43112   1.216   0.549   7.662
13758SOL    HW143113   1.209   0.502   7.745
13758SOL    HW243114   1.131   0.534   7.620
13759SOL     OW43115   3.077   2.089   9.255
13759SOL    HW143116   3.049   2.038   9.179
13759SOL    HW243117   3.101   2.024   9.321
13760SOL     OW43118   4.098   4.340   8.986
13760SOL    HW143119   4.012   4.299   8.983
13760SOL    HW243120   4.081   4.433   8.971
13761SOL     OW43121   0.567   4.771   0.871
13761SOL    HW143122   0.655   4.746   0.898
13761SOL    HW243123   0.564   4.866   0.883
13762SOL     OW43124   5.660  11.229   4.815
13762SOL    HW143125   5.582  11.201   4.863
13762SOL    HW243126   5.729  11.170   4.844
13763SOL     OW43127   2.787  10.088   2.750
13763SOL    HW143128   2.836  10.065   2.829
13763SOL    HW243129   2.801  10.015   2.691
13764SOL     OW43130  11.916  10.985  10.604
13764SOL    HW143131  11.848  11.025  10.659
13764SOL    HW243132  11.988  11.048  10.606
13765SOL     OW43133   6.669   0.051   8.776
13765SOL    HW143134   6.587   0.066   8.822
13765SOL    HW243135   6.665  14.841   8.748
13766SOL     OW43136  10.286   0.594   4.620
13766SOL    HW143137  10.245   0.628   4.700
13766SOL    HW243138  10.297   0.500   4.638
13767SOL     OW43139   6.471  13.892   8.266
13767SOL    HW143140   6.506  13.979   8.283
13767SOL    HW243141   6.540  13.846   8.219
13768SOL     OW43142   9.236   9.773   0.819
13768SOL    HW143143   9.321   9.814   0.829
13768SOL    HW243144   9.173   9.844   0.827
13769SOL     OW43145   3.380   4.343  14.058
13769SOL    HW143146   3.292   4.342  14.094
13769SOL    HW243147   3.437   4.318  14.131
13770SOL     OW43148   5.143   0.672   1.019
13770SOL    HW143149   5.103   0.606   1.076
13770SOL    HW243150   5.194   0.727   1.078
13771SOL     OW43151   9.952   8.636   1.219
13771SOL    HW143152   9.925   8.700   1.153
13771SOL    HW243153  10.045   8.621   1.200
13772SOL     OW43154  14.394  14.293   6.213
13772SOL    HW143155  14.452  14.369   6.211
13772SOL    HW243156  14.351  14.298   6.298
13773SOL     OW43157   9.261   1.392   2.553
13773SOL    HW143158   9.216   1.463   2.507
13773SOL    HW243159   9.310   1.436   2.623
13774SOL     OW43160   4.386   8.149  10.920
13774SOL    HW143161   4.345   8.236  10.922
13774SOL    HW243162   4.425   8.143  10.833
13775SOL     OW43163   4.597   4.994   1.940
13775SOL    HW143164   4.548   5.071   1.968
13775SOL    HW243165   4.548   4.960   1.865
13776SOL     OW43166   5.390   6.393   1.959
13776SOL    HW143167   5.453   6.340   2.007
13776SOL    HW243168   5.424   6.396   1.870
13777SOL     OW43169  11.970   3.404  14.387
13777SOL    HW143170  11.898   3.460  14.358
13777SOL    HW243171  11.982   3.426  14.479
13778SOL     OW43172  14.301  11.198   5.357
13778SOL    HW143173  14.364  11.265   5.383
13778SOL    HW243174  14.298  11.137   5.431
13779SOL     OW43175  12.807   7.984  10.868
13779SOL    HW143176  12.715   8.006  10.880
13779SOL    HW243177  12.847   8.065  10.836
13780SOL     OW43178   8.631   5.940   4.274
13780SOL    HW143179   8.701   6.005   4.267
13780SOL    HW243180   8.551   5.986   4.249
13781SOL     OW43181   5.690  12.468   8.612
13781SOL    HW143182   5.656  12.553   8.637
13781SOL    HW243183   5.757  12.448   8.677
13782SOL     OW43184   3.379   3.739   5.029
13782SOL    HW143185   3.398   3.827   5.063
13782SOL    HW243186   3.439   3.682   5.077
13783SOL     OW43187   4.159   7.441   4.437
13783SOL    HW143188   4.087   7.419   4.378
13783SOL    HW243189   4.194   7.524   4.403
13784SOL     OW43190  12.180  10.479  14.870
13784SOL    HW143191  12.258  10.439  14.832
13784SOL    HW243192  12.106  10.431  14.833
13785SOL     OW43193   5.910   4.073   7.353
13785SOL    HW143194   5.955   4.033   7.428
13785SOL    HW243195   5.927   4.166   7.362
13786SOL     OW43196   9.392  12.058   0.169
13786SOL    HW143197   9.303  12.071   0.201
13786SOL    HW243198   9.443  12.124   0.216
13787SOL     OW43199   0.974   6.234   3.942
13787SOL    HW143200   0.898   6.197   3.897
13787SOL    HW243201   1.049   6.190   3.901
13788SOL     OW43202   5.208  11.016   0.025
13788SOL    HW143203   5.266  10.940   0.017
13788SOL    HW243204   5.123  10.979   0.050
13789SOL     OW43205  11.860   7.429  10.622
13789SOL    HW143206  11.901   7.514  10.606
13789SOL    HW243207  11.931   7.365  10.609
13790SOL     OW43208   2.044  11.460   8.269
13790SOL    HW143209   2.011  11.375   8.298
13790SOL    HW243210   2.133  11.441   8.237
13791SOL     OW43211   5.116   6.179   5.593
13791SOL    HW143212   5.094   6.107   5.534
13791SOL    HW243213   5.204   6.157   5.625
13792SOL     OW43214  13.282   8.044  11.125
13792SOL    HW143215  13.285   8.072  11.216
13792SOL    HW243216  13.189   8.042  11.103
13793SOL     OW43217   9.998  14.757   5.629
13793SOL    HW143218   9.903  14.763   5.618
13793SOL    HW243219  10.009  14.728   5.720
13794SOL     OW43220   3.845   1.593   1.719
13794SOL    HW143221   3.887   1.580   1.803
13794SOL    HW243222   3.856   1.687   1.701
13795SOL     OW43223   4.645   9.720   8.445
13795SOL    HW143224   4.563   9.706   8.398
13795SOL    HW243225   4.627   9.694   8.535
13796SOL     OW43226   7.413   0.728   3.415
13796SOL    HW143227   7.419   0.634   3.430
13796SOL    HW243228   7.496   0.751   3.373
13797SOL     OW43229   5.162   0.255  13.323
13797SOL    HW143230   5.085   0.311  13.313
13797SOL    HW243231   5.181   0.224  13.234
13798SOL     OW43232   7.370  10.089   2.609
13798SOL    HW143233   7.414  10.163   2.567
13798SOL    HW243234   7.440  10.024   2.622
13799SOL     OW43235   8.362   5.848   7.366
13799SOL    HW143236   8.355   5.942   7.386
13799SOL    HW243237   8.442   5.820   7.409
13800SOL     OW43238  13.237  13.717   6.610
13800SOL    HW143239  13.209  13.752   6.694
13800SOL    HW243240  13.182  13.762   6.545
13801SOL     OW43241  12.150   9.486  12.659
13801SOL    HW143242  12.078   9.442  12.702
13801SOL    HW243243  12.113   9.518  12.576
13802SOL     OW43244  11.405  11.623   1.949
13802SOL    HW143245  11.355  11.628   2.030
13802SOL    HW243246  11.359  11.557   1.897
13803SOL     OW43247  11.630   1.837   0.313
13803SOL    HW143248  11.632   1.752   0.269
13803SOL    HW243249  11.544   1.873   0.291
13804SOL     OW43250   6.692   4.442  13.287
13804SOL    HW143251   6.715   4.534  13.297
13804SOL    HW243252   6.776   4.398  13.273
13805SOL     OW43253   7.644   7.307   0.981
13805SOL    HW143254   7.669   7.235   1.039
13805SOL    HW243255   7.650   7.271   0.893
13806SOL     OW43256  11.432  10.317   5.616
13806SOL    HW143257  11.357  10.353   5.663
13806SOL    HW243258  11.484  10.274   5.684
13807SOL     OW43259  10.085   9.037   4.776
13807SOL    HW143260  10.101   9.109   4.716
13807SOL    HW243261  10.114   8.959   4.729
13808SOL     OW43262  13.675  12.713   1.212
13808SOL    HW143263  13.765  12.708   1.182
13808SOL    HW243264  13.636  12.785   1.163
13809SOL     OW43265  13.776  11.187   6.320
13809SOL    HW143266  13.717  11.114   6.299
13809SOL    HW243267  13.724  11.245   6.375
13810SOL     OW43268   8.942   5.789   9.496
13810SOL    HW143269   8.884   5.810   9.570
13810SOL    HW243270   9.013   5.853   9.503
13811SOL     OW43271  11.602  11.190  14.602
13811SOL    HW143272  11.549  11.257  14.645
13811SOL    HW243273  11.565  11.184  14.513
13812SOL     OW43274   6.302   9.870   1.654
13812SOL    HW143275   6.383   9.893   1.700
13812SOL    HW243276   6.331   9.834   1.570
13813SOL     OW43277   3.296   6.334   3.927
13813SOL    HW143278   3.239   6.317   3.851
13813SOL    HW243279   3.354   6.405   3.898
13814SOL     OW43280   7.576  11.093  11.918
13814SOL    HW143281   7.556  11.117  11.827
13814SOL    HW243282   7.494  11.108  11.964
13815SOL     OW43283   6.752   9.765   1.566
13815SOL    HW143284   6.811   9.710   1.617
13815SOL    HW243285   6.796   9.774   1.481
13816SOL     OW43286  10.579   9.216   7.337
13816SOL    HW143287  10.651   9.230   7.399
13816SOL    HW243288  10.594   9.128   7.303
13817SOL     OW43289   9.444   4.820   2.503
13817SOL    HW143290   9.380   4.866   2.448
13817SOL    HW243291   9.506   4.783   2.441
13818SOL     OW43292   2.557   1.470  13.504
13818SOL    HW143293   2.473   1.469  13.548
13818SOL    HW243294   2.536   1.486  13.412
13819SOL     OW43295   7.521   3.069   0.865
13819SOL    HW143296   7.578   3.123   0.920
13819SOL    HW243297   7.574   3.047   0.789
13820SOL     OW43298   1.949   8.754  12.032
13820SOL    HW143299   2.029   8.806  12.033
13820SOL    HW243300   1.891   8.799  11.971
13821SOL     OW43301  13.163   1.358   4.308
13821SOL    HW143302  13.122   1.294   4.251
13821SOL    HW243303  13.164   1.317   4.394
13822SOL     OW43304  10.080   1.833   5.630
13822SOL    HW143305  10.125   1.821   5.714
13822SOL    HW243306  10.079   1.927   5.616
13823SOL     OW43307  14.159   3.944  12.285
13823SOL    HW143308  14.184   4.036  12.273
13823SOL    HW243309  14.225   3.895  12.237
13824SOL     OW43310   6.738   3.472   7.700
13824SOL    HW143311   6.733   3.376   7.691
13824SOL    HW243312   6.735   3.504   7.610
13825SOL     OW43313  12.426  12.586  10.383
13825SOL    HW143314  12.384  12.625  10.306
13825SOL    HW243315  12.357  12.534  10.424
13826SOL     OW43316   2.043   0.266   3.200
13826SOL    HW143317   1.983   0.308   3.262
13826SOL    HW243318   2.130   0.284   3.235
13827SOL     OW43319  11.077   7.484  11.460
13827SOL    HW143320  11.154   7.450  11.505
13827SOL    HW243321  11.109   7.558  11.409
13828SOL     OW43322   1.575   8.768   9.382
13828SOL    HW143323   1.587   8.675   9.364
13828SOL    HW243324   1.605   8.780   9.472
13829SOL     OW43325  14.589   6.113   8.551
13829SOL    HW143326  14.553   6.060   8.622
13829SOL    HW243327  14.563   6.067   8.471
13830SOL     OW43328  14.825   3.938  10.400
13830SOL    HW143329  14.742   3.937  10.447
13830SOL    HW243330   0.000   3.993  10.453
13831SOL     OW43331  12.409  11.361   0.174
13831SOL    HW143332  12.355  11.324   0.244
13831SOL    HW243333  12.426  11.451   0.203
13832SOL     OW43334   3.954   0.166   7.520
13832SOL    HW143335   4.026   0.113   7.487
13832SOL    HW243336   3.912   0.201   7.442
13833SOL     OW43337   6.005   7.859  10.814
13833SOL    HW143338   6.021   7.766  10.799
13833SOL    HW243339   5.977   7.893  10.730
13834SOL     OW43340   8.487   3.594   6.933
13834SOL    HW143341   8.578   3.620   6.950
13834SOL    HW243342   8.434   3.666   6.967
13835SOL     OW43343   7.120   0.516   1.081
13835SOL    HW143344   7.161   0.505   1.167
13835SOL    HW243345   7.149   0.602   1.051
13836SOL     OW43346  11.444  14.638  11.544
13836SOL    HW143347  11.459  14.686  11.625
13836SOL    HW243348  11.527  14.644  11.497
13837SOL     OW43349   6.617  10.135  13.274
13837SOL    HW143350   6.655  10.164  13.358
13837SOL    HW243351   6.686  10.151  13.210
13838SOL     OW43352   0.325   7.195   8.556
13838SOL    HW143353   0.283   7.278   8.580
13838SOL    HW243354   0.362   7.162   8.637
13839SOL     OW43355   1.184   5.812  10.576
13839SOL    HW143356   1.159   5.730  10.534
13839SOL    HW243357   1.105   5.866  10.571
13840SOL     OW43358   7.145   0.550   3.390
13840SOL    HW143359   7.154   0.575   3.482
13840SOL    HW243360   7.165   0.456   3.389
13841SOL     OW43361  13.751  13.787  14.440
13841SOL    HW143362  13.677  13.800  14.499
13841SOL    HW243363  13.824  13.764  14.497
13842SOL     OW43364   0.641  14.465   9.563
13842SOL    HW143365   0.724  14.420   9.579
13842SOL    HW243366   0.651  14.502   9.475
13843SOL     OW43367   1.148   5.806  11.207
13843SOL    HW143368   1.149   5.900  11.188
13843SOL    HW243369   1.074   5.794  11.266
13844SOL     OW43370   6.904   4.912  13.968
13844SOL    HW143371   6.809   4.900  13.971
13844SOL    HW243372   6.919   4.994  14.015
13845SOL     OW43373   3.731  12.651  14.540
13845SOL    HW143374   3.740  12.717  14.608
13845SOL    HW243375   3.728  12.702  14.458
13846SOL     OW43376  11.191   2.243   8.523
13846SOL    HW143377  11.160   2.323   8.566
13846SOL    HW243378  11.167   2.173   8.584
13847SOL     OW43379  12.426   7.793   2.714
13847SOL    HW143380  12.395   7.743   2.639
13847SOL    HW243381  12.519   7.770   2.722
13848SOL     OW43382  10.527   8.602   1.319
13848SOL    HW143383  10.476   8.580   1.398
13848SOL    HW243384  10.474   8.569   1.247
13849SOL     OW43385  12.841   9.192   5.671
13849SOL    HW143386  12.798   9.273   5.644
13849SOL    HW243387  12.803   9.171   5.756
13850SOL     OW43388   5.872   3.087  10.284
13850SOL    HW143389   5.784   3.056  10.309
13850SOL    HW243390   5.890   3.157  10.346
13851SOL     OW43391   5.505   0.099   3.772
13851SOL    HW143392   5.472   0.164   3.833
13851SOL    HW243393   5.458   0.117   3.690
13852SOL     OW43394   2.797   1.683   3.097
13852SOL    HW143395   2.826   1.718   3.182
13852SOL    HW243396   2.802   1.758   3.037
13853SOL     OW43397   0.338  14.123   9.957
13853SOL    HW143398   0.269  14.057   9.954
13853SOL    HW243399   0.379  14.112  10.043
13854SOL     OW43400   8.171  10.385   7.597
13854SOL    HW143401   8.105  10.453   7.610
13854SOL    HW243402   8.254  10.434   7.590
13855SOL     OW43403  12.181  14.411   6.504
13855SOL    HW143404  12.196  14.502   6.479
13855SOL    HW243405  12.180  14.412   6.600
13856SOL     OW43406   9.556   4.558   3.483
13856SOL    HW143407   9.633   4.529   3.434
13856SOL    HW243408   9.489   4.492   3.464
13857SOL     OW43409   1.107   5.647   8.394
13857SOL    HW143410   1.055   5.573   8.361
13857SOL    HW243411   1.057   5.678   8.470
13858SOL     OW43412   7.041   8.859   6.707
13858SOL    HW143413   6.987   8.794   6.751
13858SOL    HW243414   6.992   8.941   6.718
13859SOL     OW43415   1.539  11.612  11.216
13859SOL    HW143416   1.615  11.558  11.197
13859SOL    HW243417   1.575  11.701  11.226
13860SOL     OW43418   3.498   9.696   0.677
13860SOL    HW143419   3.532   9.759   0.741
13860SOL    HW243420   3.576   9.657   0.637
13861SOL     OW43421   2.739   3.424   3.320
13861SOL    HW143422   2.689   3.505   3.309
13861SOL    HW243423   2.814   3.449   3.373
13862SOL     OW43424   2.113  13.099   4.580
13862SOL    HW143425   2.037  13.111   4.637
13862SOL    HW243426   2.152  13.185   4.572
13863SOL     OW43427  12.127   2.166  11.921
13863SOL    HW143428  12.189   2.198  11.986
13863SOL    HW243429  12.041   2.193  11.954
13864SOL     OW43430   9.249   6.677   3.633
13864SOL    HW143431   9.212   6.723   3.708
13864SOL    HW243432   9.175   6.663   3.575
13865SOL     OW43433   2.218   3.241  13.017
13865SOL    HW143434   2.247   3.166  12.965
13865SOL    HW243435   2.146   3.208  13.069
13866SOL     OW43436   7.720  10.127  11.101
13866SOL    HW143437   7.729  10.213  11.142
13866SOL    HW243438   7.627  10.122  11.076
13867SOL     OW43439   6.788  12.322   1.699
13867SOL    HW143440   6.849  12.385   1.659
13867SOL    HW243441   6.805  12.329   1.793
13868SOL     OW43442   1.251   6.059   7.207
13868SOL    HW143443   1.274   6.033   7.297
13868SOL    HW243444   1.238   6.154   7.213
13869SOL     OW43445   9.435   0.914   8.376
13869SOL    HW143446   9.360   0.971   8.392
13869SOL    HW243447   9.424   0.841   8.438
13870SOL     OW43448   6.635  11.988  10.945
13870SOL    HW143449   6.603  12.071  10.911
13870SOL    HW243450   6.559  11.930  10.941
13871SOL     OW43451   8.969   6.865   5.557
13871SOL    HW143452   8.940   6.777   5.581
13871SOL    HW243453   9.041   6.884   5.617
13872SOL     OW43454   7.230   2.537   2.344
13872SOL    HW143455   7.250   2.467   2.282
13872SOL    HW243456   7.228   2.617   2.292
13873SOL     OW43457   4.702   9.732   4.531
13873SOL    HW143458   4.685   9.748   4.624
13873SOL    HW243459   4.779   9.675   4.530
13874SOL     OW43460  10.372  14.264  10.132
13874SOL    HW143461  10.450  14.207  10.135
13874SOL    HW243462  10.405  14.351  10.152
13875SOL     OW43463   8.140  13.746   5.566
13875SOL    HW143464   8.161  13.665   5.613
13875SOL    HW243465   8.060  13.778   5.607
13876SOL     OW43466   0.032   9.095   9.523
13876SOL    HW143467   0.079   9.127   9.447
13876SOL    HW243468  14.840   9.156   9.533
13877SOL     OW43469   1.454   9.044   3.316
13877SOL    HW143470   1.507   9.014   3.390
13877SOL    HW243471   1.381   9.091   3.357
13878SOL     OW43472   7.553   8.641   8.243
13878SOL    HW143473   7.566   8.553   8.278
13878SOL    HW243474   7.584   8.699   8.312
13879SOL     OW43475   0.804   7.271   1.741
13879SOL    HW143476   0.795   7.363   1.717
13879SOL    HW243477   0.714   7.240   1.752
13880SOL     OW43478  14.260  11.335   3.266
13880SOL    HW143479  14.291  11.402   3.326
13880SOL    HW243480  14.251  11.256   3.319
13881SOL     OW43481   3.731   1.352   9.121
13881SOL    HW143482   3.698   1.294   9.052
13881SOL    HW243483   3.696   1.316   9.202
13882SOL     OW43484   6.821   9.625   8.843
13882SOL    HW143485   6.846   9.533   8.852
13882SOL    HW243486   6.760   9.626   8.769
13883SOL     OW43487   8.317   0.537   8.627
13883SOL    HW143488   8.237   0.518   8.579
13883SOL    HW243489   8.354   0.614   8.583
13884SOL     OW43490  11.789   5.561   4.257
13884SOL    HW143491  11.821   5.651   4.258
13884SOL    HW243492  11.766   5.545   4.165
13885SOL     OW43493  11.710  10.069  10.327
13885SOL    HW143494  11.650  10.079  10.253
13885SOL    HW243495  11.787  10.122  10.303
13886SOL     OW43496  10.369  13.561   8.413
13886SOL    HW143497  10.288  13.606   8.434
13886SOL    HW243498  10.407  13.611   8.341
13887SOL     OW43499  11.908   7.935  10.251
13887SOL    HW143500  11.970   7.944  10.179
13887SOL    HW243501  11.956   7.966  10.328
13888SOL     OW43502  11.214   2.148   6.612
13888SOL    HW143503  11.184   2.072   6.562
13888SOL    HW243504  11.268   2.111   6.682
13889SOL     OW43505  13.932   9.922   3.502
13889SOL    HW143506  13.895   9.974   3.573
13889SOL    HW243507  13.923   9.977   3.424
13890SOL     OW43508   4.190  14.838  14.364
13890SOL    HW143509   4.222  14.766  14.419
13890SOL    HW243510   4.260   0.021  14.366
13891SOL     OW43511   6.467  13.080   3.883
13891SOL    HW143512   6.484  12.988   3.903
13891SOL    HW243513   6.527  13.099   3.810
13892SOL     OW43514   3.815   6.346   4.265
13892SOL    HW143515   3.736   6.298   4.292
13892SOL    HW243516   3.837   6.400   4.341
13893SOL     OW43517  10.481  12.823   4.856
13893SOL    HW143518  10.436  12.756   4.908
13893SOL    HW243519  10.574  12.801   4.864
13894SOL     OW43520  14.015   9.329   3.205
13894SOL    HW143521  13.920   9.322   3.196
13894SOL    HW243522  14.045   9.238   3.215
13895SOL     OW43523   0.201   8.859   4.405
13895SOL    HW143524   0.291   8.828   4.401
13895SOL    HW243525   0.149   8.780   4.422
13896SOL     OW43526  12.009   9.066   0.487
13896SOL    HW143527  11.986   9.052   0.579
13896SOL    HW243528  11.952   9.137   0.458
13897SOL     OW43529   5.091   4.772   2.009
13897SOL    HW143530   5.001   4.745   2.028
13897SOL    HW243531   5.100   4.758   1.915
13898SOL     OW43532   8.897   6.876  12.318
13898SOL    HW143533   8.915   6.835  12.403
13898SOL    HW243534   8.877   6.802  12.260
13899SOL     OW43535   4.192   3.274  12.145
13899SOL    HW143536   4.198   3.190  12.189
13899SOL    HW243537   4.160   3.335  12.212
13900SOL     OW43538   3.970   0.244  13.799
13900SOL    HW143539   3.940   0.182  13.864
13900SOL    HW243540   4.064   0.227  13.791
13901SOL     OW43541   3.855   1.410   6.312
13901SOL    HW143542   3.850   1.318   6.337
13901SOL    HW243543   3.942   1.438   6.338
13902SOL     OW43544   4.640   9.842   2.520
13902SOL    HW143545   4.591   9.771   2.561
13902SOL    HW243546   4.641   9.912   2.586
13903SOL     OW43547   7.266   9.001   6.722
13903SOL    HW143548   7.190   8.949   6.697
13903SOL    HW243549   7.309   8.950   6.791
13904SOL     OW43550   2.619  14.425   0.050
13904SOL    HW143551   2.555  14.376   0.102
13904SOL    HW243552   2.603  14.397  14.842
13905SOL     OW43553   1.105   9.116   4.399
13905SOL    HW143554   1.086   9.126   4.306
13905SOL    HW243555   1.189   9.159   4.412
13906SOL     OW43556  12.443   9.837   6.126
13906SOL    HW143557  12.491   9.894   6.066
13906SOL    HW243558  12.455   9.749   6.090
13907SOL     OW43559   3.721   4.193  12.329
13907SOL    HW143560   3.790   4.166  12.269
13907SOL    HW243561   3.755   4.273  12.369
13908SOL     OW43562  10.567  11.774   1.010
13908SOL    HW143563  10.608  11.688   1.004
13908SOL    HW243564  10.585  11.804   1.099
13909SOL     OW43565  12.044   6.628   2.707
13909SOL    HW143566  12.003   6.585   2.782
13909SOL    HW243567  12.053   6.559   2.641
13910SOL     OW43568  10.198   4.814  10.644
13910SOL    HW143569  10.117   4.858  10.672
13910SOL    HW243570  10.168   4.743  10.587
13911SOL     OW43571   5.176  12.797   6.623
13911SOL    HW143572   5.252  12.783   6.566
13911SOL    HW243573   5.184  12.887   6.652
13912SOL     OW43574   1.640   1.869   2.843
13912SOL    HW143575   1.562   1.887   2.791
13912SOL    HW243576   1.713   1.886   2.783
13913SOL     OW43577  10.737   2.329   6.370
13913SOL    HW143578  10.767   2.338   6.279
13913SOL    HW243579  10.644   2.352   6.368
13914SOL     OW43580   9.914   9.647   8.156
13914SOL    HW143581   9.931   9.556   8.130
13914SOL    HW243582   9.834   9.671   8.108
13915SOL     OW43583   1.659  13.974   5.288
13915SOL    HW143584   1.640  13.954   5.197
13915SOL    HW243585   1.580  13.949   5.336
13916SOL     OW43586   4.445  11.306   9.220
13916SOL    HW143587   4.454  11.235   9.284
13916SOL    HW243588   4.450  11.386   9.273
13917SOL     OW43589   3.683  10.294  14.287
13917SOL    HW143590   3.699  10.200  14.286
13917SOL    HW243591   3.599  10.305  14.243
13918SOL     OW43592  12.852   4.298   7.843
13918SOL    HW143593  12.764   4.263   7.861
13918SOL    HW243594  12.866   4.364   7.911
13919SOL     OW43595   5.886   9.637  13.145
13919SOL    HW143596   5.797   9.627  13.112
13919SOL    HW243597   5.899   9.731  13.151
13920SOL     OW43598   9.149  13.983  13.377
13920SOL    HW143599   9.150  13.892  13.346
13920SOL    HW243600   9.159  14.035  13.297
13921SOL     OW43601   8.262  11.736  14.609
13921SOL    HW143602   8.285  11.779  14.692
13921SOL    HW243603   8.345  11.729  14.562
13922SOL     OW43604   7.072  13.496  10.941
13922SOL    HW143605   7.148  13.507  10.883
13922SOL    HW243606   7.110  13.484  11.028
13923SOL     OW43607  11.482   9.845   2.310
13923SOL    HW143608  11.391   9.874   2.319
13923SOL    HW243609  11.510   9.825   2.399
13924SOL     OW43610   3.175  12.184   4.952
13924SOL    HW143611   3.227  12.188   5.032
13924SOL    HW243612   3.159  12.091   4.938
13925SOL     OW43613  14.659  12.192  13.070
13925SOL    HW143614  14.668  12.282  13.102
13925SOL    HW243615  14.730  12.144  13.112
13926SOL     OW43616   5.043  12.726   6.377
13926SOL    HW143617   5.084  12.739   6.463
13926SOL    HW243618   5.109  12.680   6.326
13927SOL     OW43619   9.224   1.213   6.368
13927SOL    HW143620   9.159   1.145   6.380
13927SOL    HW243621   9.190   1.288   6.416
13928SOL     OW43622   1.189  11.788  10.817
13928SOL    HW143623   1.261  11.786  10.754
13928SOL    HW243624   1.157  11.878  10.813
13929SOL     OW43625  10.035   1.329  13.989
13929SOL    HW143626   9.965   1.300  13.930
13929SOL    HW243627   9.993   1.337  14.074
13930SOL     OW43628  12.151  10.965   0.168
13930SOL    HW143629  12.242  10.971   0.141
13930SOL    HW243630  12.116  10.889   0.120
13931SOL     OW43631  14.479  11.227   2.790
13931SOL    HW143632  14.533  11.249   2.715
13931SOL    HW243633  14.496  11.297   2.854
13932SOL     OW43634   8.179   0.161   3.407
13932SOL    HW143635   8.202   0.070   3.427
13932SOL    HW243636   8.118   0.186   3.476
13933SOL     OW43637   3.108   5.711  13.732
13933SOL    HW143638   3.028   5.699  13.783
13933SOL    HW243639   3.088   5.782  13.671
13934SOL     OW43640   2.191   7.728   3.021
13934SOL    HW143641   2.237   7.678   2.953
13934SOL    HW243642   2.113   7.761   2.978
13935SOL     OW43643   5.713   7.334   1.820
13935SOL    HW143644   5.734   7.406   1.879
13935SOL    HW243645   5.755   7.358   1.738
13936SOL     OW43646  11.561   9.953   0.230
13936SOL    HW143647  11.567   9.962   0.325
13936SOL    HW243648  11.605  10.031   0.195
13937SOL     OW43649   3.562   3.186   1.257
13937SOL    HW143650   3.492   3.131   1.293
13937SOL    HW243651   3.521   3.272   1.246
13938SOL     OW43652   0.244  10.673   5.146
13938SOL    HW143653   0.282  10.759   5.128
13938SOL    HW243654   0.226  10.675   5.240
13939SOL     OW43655   2.744   1.023  14.323
13939SOL    HW143656   2.812   0.958  14.305
13939SOL    HW243657   2.718   1.005  14.413
13940SOL     OW43658   6.602   1.466  10.805
13940SOL    HW143659   6.527   1.419  10.771
13940SOL    HW243660   6.638   1.410  10.873
13941SOL     OW43661  12.575   7.457   3.767
13941SOL    HW143662  12.519   7.382   3.744
13941SOL    HW243663  12.513   7.526   3.792
13942SOL     OW43664   9.638  10.794   1.369
13942SOL    HW143665   9.617  10.707   1.336
13942SOL    HW243666   9.718  10.782   1.421
13943SOL     OW43667  11.617  12.300  10.873
13943SOL    HW143668  11.575  12.219  10.902
13943SOL    HW243669  11.604  12.302  10.779
13944SOL     OW43670   8.440   9.108   7.479
13944SOL    HW143671   8.518   9.153   7.513
13944SOL    HW243672   8.474   9.024   7.447
13945SOL     OW43673   0.059  12.510   0.553
13945SOL    HW143674   0.124  12.440   0.551
13945SOL    HW243675   0.033  12.521   0.461
13946SOL     OW43676   6.650   9.953   2.826
13946SOL    HW143677   6.598  10.019   2.873
13946SOL    HW243678   6.708   9.916   2.894
13947SOL     OW43679   8.275  14.609   4.002
13947SOL    HW143680   8.337  14.566   3.943
13947SOL    HW243681   8.189  14.585   3.968
13948SOL     OW43682   2.723   8.682  12.039
13948SOL    HW143683   2.675   8.762  12.062
13948SOL    HW243684   2.810   8.713  12.014
13949SOL     OW43685  12.239   0.761  12.510
13949SOL    HW143686  12.228   0.854  12.532
13949SOL    HW243687  12.304   0.761  12.440
13950SOL     OW43688   2.017  11.198   8.358
13950SOL    HW143689   2.108  11.171   8.360
13950SOL    HW243690   1.968  11.118   8.337
13951SOL     OW43691  13.117   7.994  12.908
13951SOL    HW143692  13.170   7.985  12.828
13951SOL    HW243693  13.041   8.045  12.880
13952SOL     OW43694   5.562  12.269   4.160
13952SOL    HW143695   5.610  12.343   4.123
13952SOL    HW243696   5.475  12.305   4.178
13953SOL     OW43697   3.065  10.985   9.244
13953SOL    HW143698   3.073  10.891   9.231
13953SOL    HW243699   3.153  11.013   9.269
13954SOL     OW43700   9.098   9.986  12.496
13954SOL    HW143701   9.108  10.080  12.477
13954SOL    HW243702   9.090   9.945  12.410
13955SOL     OW43703   3.293   1.851   7.438
13955SOL    HW143704   3.223   1.787   7.452
13955SOL    HW243705   3.267   1.927   7.489
13956SOL     OW43706   9.320   7.362   0.698
13956SOL    HW143707   9.291   7.330   0.784
13956SOL    HW243708   9.243   7.405   0.661
13957SOL     OW43709  11.531   0.721   1.017
13957SOL    HW143710  11.496   0.730   0.928
13957SOL    HW243711  11.617   0.682   1.005
13958SOL     OW43712  10.856   4.606  14.415
13958SOL    HW143713  10.854   4.685  14.469
13958SOL    HW243714  10.833   4.637  14.327
13959SOL     OW43715   5.936   9.231  11.393
13959SOL    HW143716   5.851   9.226  11.438
13959SOL    HW243717   5.998   9.192  11.455
13960SOL     OW43718  10.580   9.638   0.852
13960SOL    HW143719  10.657   9.634   0.795
13960SOL    HW243720  10.591   9.720   0.900
13961SOL     OW43721   3.338   7.226  10.554
13961SOL    HW143722   3.308   7.246  10.465
13961SOL    HW243723   3.434   7.229  10.549
13962SOL     OW43724  14.683   4.916  11.970
13962SOL    HW143725  14.591   4.887  11.972
13962SOL    HW243726  14.730   4.840  11.936
13963SOL     OW43727   5.406  11.918   1.374
13963SOL    HW143728   5.467  11.987   1.401
13963SOL    HW243729   5.393  11.931   1.280
13964SOL     OW43730   1.285   0.516  11.899
13964SOL    HW143731   1.298   0.459  11.975
13964SOL    HW243732   1.315   0.464  11.825
13965SOL     OW43733   5.419  12.368  10.478
13965SOL    HW143734   5.360  12.393  10.549
13965SOL    HW243735   5.363  12.364  10.400
13966SOL     OW43736   6.168   6.458   2.935
13966SOL    HW143737   6.172   6.404   2.856
13966SOL    HW243738   6.186   6.397   3.007
13967SOL     OW43739  13.442   3.758   1.025
13967SOL    HW143740  13.498   3.817   1.075
13967SOL    HW243741  13.426   3.685   1.085
13968SOL     OW43742   9.029   3.393   2.801
13968SOL    HW143743   9.115   3.404   2.761
13968SOL    HW243744   9.021   3.466   2.862
13969SOL     OW43745   3.814   5.077   5.012
13969SOL    HW143746   3.827   5.021   5.088
13969SOL    HW243747   3.756   5.147   5.044
13970SOL     OW43748   5.717  13.909   6.427
13970SOL    HW143749   5.671  13.849   6.368
13970SOL    HW243750   5.655  13.980   6.442
13971SOL     OW43751   6.843   4.445   0.741
13971SOL    HW143752   6.937   4.459   0.756
13971SOL    HW243753   6.829   4.470   0.650
13972SOL     OW43754  14.538   0.903  12.755
13972SOL    HW143755  14.458   0.850  12.755
13972SOL    HW243756  14.509   0.991  12.779
13973SOL     OW43757  14.590   7.062   4.010
13973SOL    HW143758  14.642   7.131   3.969
13973SOL    HW243759  14.591   7.083   4.103
13974SOL     OW43760   1.081   3.393  10.155
13974SOL    HW143761   1.087   3.482  10.118
13974SOL    HW243762   1.095   3.405  10.249
13975SOL     OW43763  13.801  10.680   2.652
13975SOL    HW143764  13.858  10.611   2.687
13975SOL    HW243765  13.814  10.676   2.557
13976SOL     OW43766   0.038   7.206  13.164
13976SOL    HW143767   0.103   7.276  13.157
13976SOL    HW243768  14.881   7.218  13.251
13977SOL     OW43769   6.308  13.258  11.713
13977SOL    HW143770   6.403  13.263  11.728
13977SOL    HW243771   6.299  13.230  11.622
13978SOL     OW43772   2.267   6.005   7.588
13978SOL    HW143773   2.331   5.967   7.649
13978SOL    HW243774   2.204   6.051   7.643
13979SOL     OW43775   6.844   4.171   9.976
13979SOL    HW143776   6.874   4.189  10.066
13979SOL    HW243777   6.909   4.109   9.942
13980SOL     OW43778  10.631   3.987  11.326
13980SOL    HW143779  10.650   4.049  11.256
13980SOL    HW243780  10.628   3.902  11.282
13981SOL     OW43781   7.867  13.343  11.166
13981SOL    HW143782   7.822  13.278  11.219
13981SOL    HW243783   7.801  13.375  11.105
13982SOL     OW43784  13.731   6.706  13.598
13982SOL    HW143785  13.799   6.645  13.570
13982SOL    HW243786  13.730   6.700  13.693
13983SOL     OW43787   1.556   8.698   3.956
13983SOL    HW143788   1.611   8.637   3.906
13983SOL    HW243789   1.488   8.643   3.994
13984SOL     OW43790  10.123   5.812  11.345
13984SOL    HW143791  10.057   5.765  11.397
13984SOL    HW243792  10.160   5.745  11.287
13985SOL     OW43793   5.187  14.532   7.710
13985SOL    HW143794   5.243  14.513   7.785
13985SOL    HW243795   5.215  14.619   7.680
13986SOL     OW43796   5.447   8.050  11.719
13986SOL    HW143797   5.437   8.132  11.671
13986SOL    HW243798   5.369   7.999  11.696
13987SOL     OW43799   5.845   7.477   9.189
13987SOL    HW143800   5.884   7.562   9.206
13987SOL    HW243801   5.918   7.422   9.161
13988SOL     OW43802  13.037   5.240   7.403
13988SOL    HW143803  13.076   5.185   7.471
13988SOL    HW243804  13.065   5.329   7.426
13989SOL     OW43805   3.542   0.844   0.562
13989SOL    HW143806   3.556   0.875   0.472
13989SOL    HW243807   3.471   0.899   0.595
13990SOL     OW43808  13.666   9.099   2.616
13990SOL    HW143809  13.605   9.161   2.656
13990SOL    HW243810  13.700   9.146   2.539
13991SOL     OW43811   5.148   1.075  10.231
13991SOL    HW143812   5.100   0.993  10.215
13991SOL    HW243813   5.092   1.143  10.194
13992SOL     OW43814  14.742   2.942  13.290
13992SOL    HW143815  14.673   2.890  13.248
13992SOL    HW243816  14.744   2.910  13.380
13993SOL     OW43817   7.165   7.873  11.688
13993SOL    HW143818   7.090   7.820  11.659
13993SOL    HW243819   7.229   7.809  11.719
13994SOL     OW43820   4.579   8.066  12.521
13994SOL    HW143821   4.646   8.117  12.566
13994SOL    HW243822   4.496   8.093  12.561
13995SOL     OW43823  12.455   4.986   4.305
13995SOL    HW143824  12.510   4.909   4.294
13995SOL    HW243825  12.450   4.998   4.400
13996SOL     OW43826  10.460  11.046   3.198
13996SOL    HW143827  10.514  11.058   3.276
13996SOL    HW243828  10.519  11.064   3.125
13997SOL     OW43829   7.652  12.252   6.445
13997SOL    HW143830   7.721  12.188   6.467
13997SOL    HW243831   7.673  12.280   6.356
13998SOL     OW43832   8.871  11.711   5.397
13998SOL    HW143833   8.811  11.654   5.444
13998SOL    HW243834   8.849  11.799   5.426
13999SOL     OW43835  10.785  12.145  13.915
13999SOL    HW143836  10.803  12.130  13.822
13999SOL    HW243837  10.746  12.232  13.918
14000SOL     OW43838   4.703   3.395   5.382
14000SOL    HW143839   4.791   3.414   5.414
14000SOL    HW243840   4.658   3.356   5.457
14001SOL     OW43841   1.061  11.560   5.416
14001SOL    HW143842   1.144  11.525   5.448
14001SOL    HW243843   1.001  11.555   5.491
14002SOL     OW43844  11.989   5.839   2.127
14002SOL    HW143845  12.052   5.785   2.176
14002SOL    HW243846  11.929   5.776   2.087
14003SOL     OW43847   0.624   2.308   3.331
14003SOL    HW143848   0.623   2.379   3.395
14003SOL    HW243849   0.533   2.300   3.304
14004SOL     OW43850   2.482   4.681  10.460
14004SOL    HW143851   2.391   4.655  10.445
14004SOL    HW243852   2.514   4.707  10.374
14005SOL     OW43853   5.603   2.575  12.120
14005SOL    HW143854   5.554   2.516  12.178
14005SOL    HW243855   5.655   2.516  12.065
14006SOL     OW43856   8.785  12.475   8.065
14006SOL    HW143857   8.864  12.498   8.113
14006SOL    HW243858   8.768  12.551   8.009
14007SOL     OW43859   7.792   1.376   1.073
14007SOL    HW143860   7.792   1.397   0.979
14007SOL    HW243861   7.885   1.379   1.097
14008SOL     OW43862   2.995  12.692  11.488
14008SOL    HW143863   3.060  12.714  11.555
14008SOL    HW243864   2.914  12.732  11.519
14009SOL     OW43865   6.582   0.954   0.982
14009SOL    HW143866   6.606   1.022   0.920
14009SOL    HW243867   6.666   0.918   1.011
14010SOL     OW43868   5.511   7.553  14.606
14010SOL    HW143869   5.602   7.540  14.633
14010SOL    HW243870   5.479   7.465  14.585
14011SOL     OW43871   5.507   3.309  14.307
14011SOL    HW143872   5.453   3.273  14.378
14011SOL    HW243873   5.466   3.276  14.227
14012SOL     OW43874   1.853   9.262  10.564
14012SOL    HW143875   1.903   9.314  10.627
14012SOL    HW243876   1.761   9.274  10.592
14013SOL     OW43877  13.117  12.967   5.734
14013SOL    HW143878  13.169  13.039   5.699
14013SOL    HW243879  13.111  12.905   5.661
14014SOL     OW43880   9.342   4.231   1.963
14014SOL    HW143881   9.392   4.157   1.927
14014SOL    HW243882   9.341   4.216   2.058
14015SOL     OW43883   4.751   7.063  13.594
14015SOL    HW143884   4.670   7.017  13.613
14015SOL    HW243885   4.725   7.134  13.536
14016SOL     OW43886   6.668  11.956   4.718
14016SOL    HW143887   6.687  12.043   4.755
14016SOL    HW243888   6.745  11.904   4.742
14017SOL     OW43889   8.861  12.650  12.753
14017SOL    HW143890   8.854  12.611  12.666
14017SOL    HW243891   8.771  12.651  12.786
14018SOL     OW43892   8.472  10.983   5.626
14018SOL    HW143893   8.472  10.889   5.647
14018SOL    HW243894   8.465  10.986   5.531
14019SOL     OW43895  13.946   9.509   2.040
14019SOL    HW143896  13.958   9.431   1.986
14019SOL    HW243897  14.021   9.564   2.019
14020SOL     OW43898  10.906   6.774   8.657
14020SOL    HW143899  10.844   6.786   8.729
14020SOL    HW243900  10.952   6.693   8.678
14021SOL     OW43901   6.807   0.913   6.911
14021SOL    HW143902   6.733   0.885   6.857
14021SOL    HW243903   6.796   0.865   6.993
14022SOL     OW43904   4.797  13.707  11.039
14022SOL    HW143905   4.848  13.681  11.116
14022SOL    HW243906   4.706  13.698  11.066
14023SOL     OW43907   6.273  11.986  11.659
14023SOL    HW143908   6.333  11.919  11.695
14023SOL    HW243909   6.187  11.959  11.690
14024SOL     OW43910   4.046  13.053   2.952
14024SOL    HW143911   4.035  13.026   3.044
14024SOL    HW243912   3.996  12.988   2.903
14025SOL     OW43913  12.395  10.858  11.833
14025SOL    HW143914  12.476  10.860  11.884
14025SOL    HW243915  12.349  10.938  11.857
14026SOL     OW43916   1.387  14.007   1.184
14026SOL    HW143917   1.447  13.952   1.134
14026SOL    HW243918   1.306  13.958   1.186
14027SOL     OW43919   5.490   7.765  10.030
14027SOL    HW143920   5.562   7.827  10.022
14027SOL    HW243921   5.447   7.789  10.112
14028SOL     OW43922   2.315   3.708  13.537
14028SOL    HW143923   2.229   3.670  13.553
14028SOL    HW243924   2.316   3.788  13.591
14029SOL     OW43925   4.649   6.852   3.899
14029SOL    HW143926   4.725   6.794   3.891
14029SOL    HW243927   4.586   6.803   3.952
14030SOL     OW43928  12.136   8.347   0.651
14030SOL    HW143929  12.104   8.410   0.587
14030SOL    HW243930  12.225   8.326   0.623
14031SOL     OW43931   8.299   3.235   3.575
14031SOL    HW143932   8.248   3.237   3.656
14031SOL    HW243933   8.388   3.213   3.602
14032SOL     OW43934   7.028  11.584   9.896
14032SOL    HW143935   7.083  11.658   9.920
14032SOL    HW243936   6.951  11.592   9.953
14033SOL     OW43937   0.746   8.890  14.588
14033SOL    HW143938   0.779   8.886  14.678
14033SOL    HW243939   0.803   8.953  14.544
14034SOL     OW43940   8.946   3.394  14.799
14034SOL    HW143941   9.036   3.403  14.830
14034SOL    HW243942   8.896   3.458  14.850
14035SOL     OW43943   2.116   5.969  10.851
14035SOL    HW143944   2.055   5.946  10.781
14035SOL    HW243945   2.065   5.960  10.931
14036SOL     OW43946   6.979   9.724   1.956
14036SOL    HW143947   7.013   9.645   1.999
14036SOL    HW243948   7.052   9.786   1.958
14037SOL     OW43949   8.990   5.565  13.782
14037SOL    HW143950   9.019   5.652  13.753
14037SOL    HW243951   9.062   5.507  13.758
14038SOL     OW43952   8.979   9.041   9.608
14038SOL    HW143953   8.926   9.104   9.656
14038SOL    HW243954   9.070   9.068   9.624
14039SOL     OW43955  10.289  11.394  12.080
14039SOL    HW143956  10.334  11.456  12.138
14039SOL    HW243957  10.357  11.333  12.052
14040SOL     OW43958   1.640   4.432   8.230
14040SOL    HW143959   1.556   4.423   8.276
14040SOL    HW243960   1.627   4.385   8.148
14041SOL     OW43961   7.521  10.435   7.782
14041SOL    HW143962   7.529  10.358   7.838
14041SOL    HW243963   7.431  10.431   7.749
14042SOL     OW43964   5.412   5.046   5.286
14042SOL    HW143965   5.499   5.079   5.261
14042SOL    HW243966   5.352   5.116   5.261
14043SOL     OW43967  13.032  12.422   4.114
14043SOL    HW143968  13.006  12.490   4.052
14043SOL    HW243969  12.962  12.421   4.179
14044SOL     OW43970   1.269   2.292   0.755
14044SOL    HW143971   1.310   2.311   0.671
14044SOL    HW243972   1.207   2.364   0.769
14045SOL     OW43973   9.997   2.021   2.443
14045SOL    HW143974  10.076   2.034   2.391
14045SOL    HW243975  10.028   1.980   2.524
14046SOL     OW43976  13.306   5.246   8.684
14046SOL    HW143977  13.213   5.226   8.693
14046SOL    HW243978  13.313   5.339   8.706
14047SOL     OW43979  10.483   1.896   1.485
14047SOL    HW143980  10.458   1.934   1.401
14047SOL    HW243981  10.573   1.866   1.472
14048SOL     OW43982  10.166   0.003   9.974
14048SOL    HW143983  10.139  14.820  10.038
14048SOL    HW243984  10.087   0.054   9.956
14049SOL     OW43985  12.078  10.498   5.029
14049SOL    HW143986  12.077  10.405   5.049
14049SOL    HW243987  12.171  10.520   5.022
14050SOL     OW43988   5.880  11.598   4.256
14050SOL    HW143989   5.877  11.630   4.346
14050SOL    HW243990   5.795  11.624   4.219
14051SOL     OW43991   7.564   3.513   7.095
14051SOL    HW143992   7.482   3.500   7.047
14051SOL    HW243993   7.612   3.577   7.042
14052SOL     OW43994   1.721   6.135  11.519
14052SOL    HW143995   1.784   6.206  11.532
14052SOL    HW243996   1.774   6.055  11.517
14053SOL     OW43997  14.643   0.697   4.971
14053SOL    HW143998  14.654   0.719   5.063
14053SOL    HW243999  14.732   0.698   4.935
14054SOL     OW44000  11.161  13.625   9.038
14054SOL    HW144001  11.207  13.555   9.085
14054SOL    HW244002  11.071  13.594   9.030
14055SOL     OW44003   8.813   3.808  13.234
14055SOL    HW144004   8.902   3.825  13.203
14055SOL    HW244005   8.765   3.889  13.213
14056SOL     OW44006   3.545   8.220   0.491
14056SOL    HW144007   3.591   8.137   0.504
14056SOL    HW244008   3.571   8.273   0.566
14057SOL     OW44009   0.142  11.767  13.375
14057SOL    HW144010   0.158  11.833  13.307
14057SOL    HW244011   0.063  11.722  13.347
14058SOL     OW44012   2.369  13.734  13.877
14058SOL    HW144013   2.436  13.778  13.825
14058SOL    HW244014   2.412  13.657  13.913
14059SOL     OW44015   0.026  13.062   6.784
14059SOL    HW144016  14.877  12.976   6.814
14059SOL    HW244017   0.114  13.070   6.822
14060SOL     OW44018   1.034  14.632  14.001
14060SOL    HW144019   1.066  14.613  14.090
14060SOL    HW244020   0.984  14.553  13.977
14061SOL     OW44021   5.993   0.492   8.481
14061SOL    HW144022   5.969   0.415   8.533
14061SOL    HW244023   5.997   0.460   8.391
14062SOL     OW44024  14.018  11.804   8.623
14062SOL    HW144025  14.034  11.897   8.611
14062SOL    HW244026  14.091  11.761   8.580
14063SOL     OW44027  11.949   5.079   9.093
14063SOL    HW144028  12.018   5.086   9.028
14063SOL    HW244029  11.875   5.127   9.056
14064SOL     OW44030   4.471   2.463  12.225
14064SOL    HW144031   4.431   2.496  12.144
14064SOL    HW244032   4.457   2.533  12.289
14065SOL     OW44033  11.481  10.510  10.256
14065SOL    HW144034  11.484  10.517  10.352
14065SOL    HW244035  11.473  10.417  10.239
14066SOL     OW44036  11.354  13.102   6.525
14066SOL    HW144037  11.412  13.074   6.596
14066SOL    HW244038  11.403  13.084   6.445
14067SOL     OW44039   3.984   6.834   5.827
14067SOL    HW144040   4.024   6.893   5.890
14067SOL    HW244041   3.898   6.815   5.865
14068SOL     OW44042  14.442   9.588  11.234
14068SOL    HW144043  14.406   9.642  11.304
14068SOL    HW244044  14.498   9.647  11.184
14069SOL     OW44045  10.552  10.482  10.456
14069SOL    HW144046  10.531  10.415  10.522
14069SOL    HW244047  10.628  10.528  10.492
14070SOL     OW44048   4.657  11.205  10.114
14070SOL    HW144049   4.661  11.238  10.024
14070SOL    HW244050   4.747  11.212  10.146
14071SOL     OW44051  10.215  12.285   6.848
14071SOL    HW144052  10.237  12.199   6.885
14071SOL    HW244053  10.258  12.347   6.907
14072SOL     OW44054   3.804   6.922   7.355
14072SOL    HW144055   3.741   6.959   7.293
14072SOL    HW244056   3.875   6.986   7.358
14073SOL     OW44057   9.971   1.247   8.130
14073SOL    HW144058  10.038   1.300   8.087
14073SOL    HW244059   9.917   1.214   8.058
14074SOL     OW44060   4.039  12.692   7.496
14074SOL    HW144061   3.946  12.715   7.496
14074SOL    HW244062   4.047  12.619   7.435
14075SOL     OW44063  14.776   2.555   7.711
14075SOL    HW144064  14.789   2.559   7.617
14075SOL    HW244065  14.729   2.473   7.726
14076SOL     OW44066  11.546   2.053  10.590
14076SOL    HW144067  11.565   1.999  10.667
14076SOL    HW244068  11.478   2.113  10.619
14077SOL     OW44069  11.887   8.254   4.385
14077SOL    HW144070  11.802   8.250   4.429
14077SOL    HW244071  11.907   8.163   4.363
14078SOL     OW44072   1.351   1.562  12.758
14078SOL    HW144073   1.256   1.549  12.747
14078SOL    HW244074   1.387   1.474  12.760
14079SOL     OW44075   7.053  12.656   7.013
14079SOL    HW144076   7.089  12.611   6.937
14079SOL    HW244077   7.119  12.722   7.035
14080SOL     OW44078  14.416   7.031  13.192
14080SOL    HW144079  14.337   6.984  13.221
14080SOL    HW244080  14.477   6.962  13.166
14081SOL     OW44081   5.891   1.469  13.721
14081SOL    HW144082   5.958   1.537  13.726
14081SOL    HW244083   5.831   1.501  13.654
14082SOL     OW44084   9.398   0.265   8.461
14082SOL    HW144085   9.318   0.250   8.410
14082SOL    HW244086   9.452   0.320   8.404
14083SOL     OW44087   4.494   6.395  11.206
14083SOL    HW144088   4.408   6.368  11.173
14083SOL    HW244089   4.502   6.352  11.291
14084SOL     OW44090  11.062  14.311  13.069
14084SOL    HW144091  10.969  14.292  13.075
14084SOL    HW244092  11.085  14.351  13.153
14085SOL     OW44093   4.318   6.349  13.307
14085SOL    HW144094   4.226   6.367  13.291
14085SOL    HW244095   4.322   6.324  13.399
14086SOL     OW44096   6.369   9.582  14.555
14086SOL    HW144097   6.375   9.492  14.525
14086SOL    HW244098   6.453   9.600  14.597
14087SOL     OW44099   4.506   2.433   2.367
14087SOL    HW144100   4.422   2.471   2.338
14087SOL    HW244101   4.569   2.505   2.357
14088SOL     OW44102   5.377  10.073   0.473
14088SOL    HW144103   5.363  10.111   0.386
14088SOL    HW244104   5.296  10.025   0.490
14089SOL     OW44105   3.875   8.625   3.849
14089SOL    HW144106   3.953   8.679   3.858
14089SOL    HW244107   3.906   8.536   3.867
14090SOL     OW44108   4.120   1.317  11.674
14090SOL    HW144109   4.204   1.274  11.662
14090SOL    HW244110   4.141   1.410  11.685
14091SOL     OW44111   6.433   1.032   5.651
14091SOL    HW144112   6.417   1.122   5.622
14091SOL    HW244113   6.420   1.035   5.746
14092SOL     OW44114  10.546  11.034   7.712
14092SOL    HW144115  10.554  11.028   7.617
14092SOL    HW244116  10.609  11.103   7.737
14093SOL     OW44117   8.580   3.877  10.402
14093SOL    HW144118   8.559   3.852  10.312
14093SOL    HW244119   8.531   3.958  10.416
14094SOL     OW44120  13.183  12.497   1.627
14094SOL    HW144121  13.202  12.418   1.678
14094SOL    HW244122  13.097  12.479   1.588
14095SOL     OW44123   7.554   4.433   5.506
14095SOL    HW144124   7.466   4.401   5.527
14095SOL    HW244125   7.606   4.414   5.584
14096SOL     OW44126   1.772   6.858   5.302
14096SOL    HW144127   1.831   6.931   5.282
14096SOL    HW244128   1.785   6.842   5.396
14097SOL     OW44129  10.990   9.550   8.827
14097SOL    HW144130  11.005   9.645   8.830
14097SOL    HW244131  10.954   9.529   8.912
14098SOL     OW44132   6.181   7.321   8.091
14098SOL    HW144133   6.195   7.233   8.055
14098SOL    HW244134   6.263   7.367   8.076
14099SOL     OW44135  13.633   0.991  13.200
14099SOL    HW144136  13.578   0.940  13.259
14099SOL    HW244137  13.708   1.017  13.253
14100SOL     OW44138  14.698  13.734   2.997
14100SOL    HW144139  14.789  13.764   2.996
14100SOL    HW244140  14.695  13.668   3.066
14101SOL     OW44141  10.946   9.980  11.011
14101SOL    HW144142  10.999  10.020  11.079
14101SOL    HW244143  10.895  10.053  10.974
14102SOL     OW44144  13.375  10.617   0.891
14102SOL    HW144145  13.395  10.639   0.799
14102SOL    HW244146  13.432  10.542   0.909
14103SOL     OW44147   8.551   7.437   9.258
14103SOL    HW144148   8.457   7.419   9.258
14103SOL    HW244149   8.558   7.528   9.230
14104SOL     OW44150   7.860  11.136   0.438
14104SOL    HW144151   7.765  11.125   0.435
14104SOL    HW244152   7.877  11.175   0.524
14105SOL     OW44153   2.090   3.744  10.689
14105SOL    HW144154   2.055   3.821  10.644
14105SOL    HW244155   2.125   3.689  10.618
14106SOL     OW44156  13.319   8.240   7.783
14106SOL    HW144157  13.408   8.204   7.775
14106SOL    HW244158  13.323   8.297   7.859
14107SOL     OW44159  11.769  10.869   5.236
14107SOL    HW144160  11.810  10.857   5.321
14107SOL    HW244161  11.834  10.837   5.173
14108SOL     OW44162   4.171   3.635  10.830
14108SOL    HW144163   4.185   3.543  10.854
14108SOL    HW244164   4.222   3.684  10.895
14109SOL     OW44165   2.877   2.551   2.875
14109SOL    HW144166   2.933   2.562   2.951
14109SOL    HW244167   2.804   2.611   2.889
14110SOL     OW44168   2.680  10.384  10.073
14110SOL    HW144169   2.669  10.313  10.137
14110SOL    HW244170   2.594  10.427  10.070
14111SOL     OW44171  10.866   8.058   9.051
14111SOL    HW144172  10.935   7.992   9.060
14111SOL    HW244173  10.862   8.076   8.957
14112SOL     OW44174  14.848  12.962  11.956
14112SOL    HW144175  14.767  12.999  11.991
14112SOL    HW244176  14.821  12.882  11.910
14113SOL     OW44177  13.708   7.553   9.090
14113SOL    HW144178  13.674   7.549   9.000
14113SOL    HW244179  13.704   7.462   9.121
14114SOL     OW44180   8.986   2.998  13.282
14114SOL    HW144181   9.040   3.007  13.361
14114SOL    HW244182   8.965   3.088  13.257
14115SOL     OW44183  12.540  10.502   5.404
14115SOL    HW144184  12.570  10.553   5.479
14115SOL    HW244185  12.621  10.471   5.363
14116SOL     OW44186   5.756   9.448   0.657
14116SOL    HW144187   5.807   9.499   0.595
14116SOL    HW244188   5.806   9.368   0.671
14117SOL     OW44189   1.125   1.447  12.484
14117SOL    HW144190   1.087   1.365  12.454
14117SOL    HW244191   1.207   1.454  12.435
14118SOL     OW44192  11.779   0.119   9.868
14118SOL    HW144193  11.767   0.031   9.902
14118SOL    HW244194  11.738   0.176   9.933
14119SOL     OW44195  12.405   4.798  11.575
14119SOL    HW144196  12.386   4.891  11.584
14119SOL    HW244197  12.485   4.795  11.522
14120SOL     OW44198   1.555   5.248   2.876
14120SOL    HW144199   1.564   5.307   2.951
14120SOL    HW244200   1.515   5.303   2.808
14121SOL     OW44201   9.755   0.525  11.287
14121SOL    HW144202   9.744   0.445  11.236
14121SOL    HW244203   9.842   0.518  11.324
14122SOL     OW44204   0.713   9.163   0.031
14122SOL    HW144205   0.679   9.111   0.104
14122SOL    HW244206   0.720   9.101  14.841
14123SOL     OW44207  10.290   0.249  11.431
14123SOL    HW144208  10.364   0.276  11.377
14123SOL    HW244209  10.213   0.279  11.383
14124SOL     OW44210  14.880   4.211   1.587
14124SOL    HW144211  14.858   4.180   1.499
14124SOL    HW244212  14.795   4.220   1.631
14125SOL     OW44213  10.032   2.387  11.508
14125SOL    HW144214  10.062   2.297  11.516
14125SOL    HW244215  10.110   2.436  11.482
14126SOL     OW44216   4.975   9.421   9.102
14126SOL    HW144217   5.050   9.379   9.060
14126SOL    HW244218   4.993   9.415   9.196
14127SOL     OW44219   8.831  14.002   5.037
14127SOL    HW144220   8.793  14.004   4.949
14127SOL    HW244221   8.758  14.023   5.095
14128SOL     OW44222  13.981   8.393   1.684
14128SOL    HW144223  13.929   8.328   1.733
14128SOL    HW244224  14.003   8.348   1.602
14129SOL     OW44225   0.400  10.629  12.783
14129SOL    HW144226   0.399  10.595  12.873
14129SOL    HW244227   0.483  10.675  12.776
14130SOL     OW44228   7.316   9.535  14.578
14130SOL    HW144229   7.397   9.551  14.529
14130SOL    HW244230   7.345   9.506  14.664
14131SOL     OW44231   7.672   8.218  11.949
14131SOL    HW144232   7.651   8.129  11.979
14131SOL    HW244233   7.768   8.222  11.952
14132SOL     OW44234   4.603   3.180  12.656
14132SOL    HW144235   4.682   3.205  12.704
14132SOL    HW244236   4.624   3.198  12.565
14133SOL     OW44237   6.867   9.696  10.211
14133SOL    HW144238   6.945   9.721  10.259
14133SOL    HW244239   6.865   9.755  10.135
14134SOL     OW44240   7.736   3.609  13.141
14134SOL    HW144241   7.665   3.644  13.194
14134SOL    HW244242   7.775   3.541  13.196
14135SOL     OW44243   0.155  12.816   9.228
14135SOL    HW144244   0.228  12.861   9.186
14135SOL    HW244245   0.129  12.874   9.299
14136SOL     OW44246   1.882   8.444   7.905
14136SOL    HW144247   1.968   8.486   7.910
14136SOL    HW244248   1.830   8.503   7.850
14137SOL     OW44249   9.193   5.961   2.803
14137SOL    HW144250   9.189   6.012   2.883
14137SOL    HW244251   9.102   5.936   2.786
14138SOL     OW44252   6.802   7.163   8.852
14138SOL    HW144253   6.729   7.204   8.804
14138SOL    HW244254   6.872   7.156   8.788
14139SOL     OW44255   9.219   5.102   0.656
14139SOL    HW144256   9.153   5.040   0.688
14139SOL    HW244257   9.287   5.047   0.618
14140SOL     OW44258   7.296   6.599   0.031
14140SOL    HW144259   7.228   6.662   0.009
14140SOL    HW244260   7.267   6.517  14.874
14141SOL     OW44261  11.844  12.106   9.057
14141SOL    HW144262  11.920  12.084   9.002
14141SOL    HW244263  11.801  12.178   9.011
14142SOL     OW44264   8.477   1.964   9.317
14142SOL    HW144265   8.517   1.940   9.234
14142SOL    HW244266   8.453   1.881   9.357
14143SOL     OW44267   3.877  11.818   5.728
14143SOL    HW144268   3.935  11.847   5.798
14143SOL    HW244269   3.810  11.886   5.723
14144SOL     OW44270   8.254   5.034   0.863
14144SOL    HW144271   8.169   4.993   0.877
14144SOL    HW244272   8.287   4.993   0.783
14145SOL     OW44273   5.515   6.449   0.760
14145SOL    HW144274   5.590   6.503   0.735
14145SOL    HW244275   5.539   6.414   0.846
14146SOL     OW44276  13.318  12.692  14.090
14146SOL    HW144277  13.346  12.635  14.018
14146SOL    HW244278  13.226  12.668  14.104
14147SOL     OW44279   8.398   2.356   3.575
14147SOL    HW144280   8.452   2.292   3.621
14147SOL    HW244281   8.427   2.441   3.609
14148SOL     OW44282  12.568  13.451  13.709
14148SOL    HW144283  12.482  13.459  13.667
14148SOL    HW244284  12.548  13.434  13.801
14149SOL     OW44285   4.696   3.189  14.615
14149SOL    HW144286   4.659   3.105  14.641
14149SOL    HW244287   4.658   3.206  14.528
14150SOL     OW44288  11.544  14.230   8.581
14150SOL    HW144289  11.554  14.220   8.676
14150SOL    HW244290  11.633  14.241   8.549
14151SOL     OW44291  14.749   2.020   2.174
14151SOL    HW144292  14.813   2.045   2.240
14151SOL    HW244293  14.713   1.936   2.205
14152SOL     OW44294   2.302   8.034   6.144
14152SOL    HW144295   2.297   8.087   6.224
14152SOL    HW244296   2.326   7.947   6.174
14153SOL     OW44297   1.126  11.816   2.967
14153SOL    HW144298   1.148  11.794   3.057
14153SOL    HW244299   1.207  11.803   2.918
14154SOL     OW44300   2.589   8.344   8.087
14154SOL    HW144301   2.529   8.284   8.131
14154SOL    HW244302   2.600   8.307   7.999
14155SOL     OW44303   0.563  13.322  11.646
14155SOL    HW144304   0.639  13.325  11.588
14155SOL    HW244305   0.520  13.239  11.624
14156SOL     OW44306   3.246   6.622  10.659
14156SOL    HW144307   3.300   6.700  10.669
14156SOL    HW244308   3.156   6.655  10.657
14157SOL     OW44309   9.484   3.707   2.979
14157SOL    HW144310   9.536   3.647   2.926
14157SOL    HW244311   9.483   3.789   2.930
14158SOL     OW44312   0.990  10.175   9.459
14158SOL    HW144313   1.041  10.160   9.379
14158SOL    HW244314   0.911  10.123   9.447
14159SOL     OW44315   6.669  11.485  12.850
14159SOL    HW144316   6.619  11.461  12.772
14159SOL    HW244317   6.701  11.402  12.884
14160SOL     OW44318  13.388   5.074  12.564
14160SOL    HW144319  13.433   5.155  12.541
14160SOL    HW244320  13.296   5.091  12.543
14161SOL     OW44321   1.961   4.002   9.077
14161SOL    HW144322   1.905   4.064   9.122
14161SOL    HW244323   1.949   4.021   8.984
14162SOL     OW44324   3.395   2.633   2.603
14162SOL    HW144325   3.477   2.586   2.614
14162SOL    HW244326   3.340   2.574   2.551
14163SOL     OW44327  11.867   5.772   6.303
14163SOL    HW144328  11.779   5.741   6.322
14163SOL    HW244329  11.924   5.700   6.331
14164SOL     OW44330   0.250   2.487   7.695
14164SOL    HW144331   0.267   2.531   7.778
14164SOL    HW244332   0.295   2.403   7.703
14165SOL     OW44333   1.454   7.358  12.148
14165SOL    HW144334   1.481   7.367  12.056
14165SOL    HW244335   1.447   7.448  12.180
14166SOL     OW44336   7.958   3.083   4.276
14166SOL    HW144337   7.986   3.030   4.201
14166SOL    HW244338   8.035   3.085   4.334
14167SOL     OW44339   5.451   7.298   5.225
14167SOL    HW144340   5.539   7.335   5.229
14167SOL    HW244341   5.396   7.360   5.273
14168SOL     OW44342   9.538  14.449   7.100
14168SOL    HW144343   9.502  14.360   7.103
14168SOL    HW244344   9.632  14.435   7.086
14169SOL     OW44345   8.276   1.797   0.291
14169SOL    HW144346   8.275   1.813   0.197
14169SOL    HW244347   8.297   1.704   0.300
14170SOL     OW44348   3.000   8.592   9.223
14170SOL    HW144349   3.035   8.570   9.137
14170SOL    HW244350   3.003   8.687   9.227
14171SOL     OW44351   6.589  10.384   1.226
14171SOL    HW144352   6.669  10.369   1.177
14171SOL    HW244353   6.571  10.478   1.216
14172SOL     OW44354  14.160  11.411   5.720
14172SOL    HW144355  14.075  11.426   5.679
14172SOL    HW244356  14.194  11.498   5.739
14173SOL     OW44357   6.904   3.095  11.938
14173SOL    HW144358   6.989   3.050  11.934
14173SOL    HW244359   6.918   3.175  11.888
14174SOL     OW44360   3.662  14.319  13.936
14174SOL    HW144361   3.690  14.234  13.900
14174SOL    HW244362   3.725  14.382  13.901
14175SOL     OW44363  14.738   5.818   0.743
14175SOL    HW144364  14.814   5.861   0.705
14175SOL    HW244365  14.761   5.725   0.743
14176SOL     OW44366   9.253  13.694   8.044
14176SOL    HW144367   9.249  13.778   8.088
14176SOL    HW244368   9.244  13.630   8.115
14177SOL     OW44369   7.776   4.820   7.217
14177SOL    HW144370   7.791   4.911   7.189
14177SOL    HW244371   7.803   4.767   7.142
14178SOL     OW44372   7.356  12.384  12.629
14178SOL    HW144373   7.440  12.369  12.586
14178SOL    HW244374   7.323  12.296  12.647
14179SOL     OW44375  10.885   6.617   6.076
14179SOL    HW144376  10.901   6.636   6.169
14179SOL    HW244377  10.839   6.694   6.043
14180SOL     OW44378   4.185   6.509   0.241
14180SOL    HW144379   4.129   6.436   0.214
14180SOL    HW244380   4.265   6.497   0.189
14181SOL     OW44381   9.400   8.139  11.569
14181SOL    HW144382   9.416   8.218  11.518
14181SOL    HW244383   9.469   8.079  11.542
14182SOL     OW44384   7.228   5.037   6.784
14182SOL    HW144385   7.147   4.986   6.781
14182SOL    HW244386   7.298   4.972   6.790
14183SOL     OW44387   8.796  10.933   1.742
14183SOL    HW144388   8.842  10.939   1.826
14183SOL    HW244389   8.712  10.892   1.763
14184SOL     OW44390   0.257   3.450  13.164
14184SOL    HW144391   0.328   3.506  13.133
14184SOL    HW244392   0.184   3.510  13.178
14185SOL     OW44393   7.316   7.981   2.548
14185SOL    HW144394   7.319   7.928   2.628
14185SOL    HW244395   7.387   8.044   2.558
14186SOL     OW44396   5.928  12.166  10.600
14186SOL    HW144397   5.841  12.189  10.570
14186SOL    HW244398   5.915  12.133  10.689
14187SOL     OW44399   1.651  13.921   9.689
14187SOL    HW144400   1.589  13.883   9.752
14187SOL    HW244401   1.619  14.010   9.675
14188SOL     OW44402   2.978  13.132   9.059
14188SOL    HW144403   3.062  13.132   9.015
14188SOL    HW244404   2.994  13.176   9.143
14189SOL     OW44405   2.272   4.135   9.335
14189SOL    HW144406   2.179   4.128   9.355
14189SOL    HW244407   2.296   4.224   9.361
14190SOL     OW44408   2.519   4.468   3.259
14190SOL    HW144409   2.601   4.496   3.218
14190SOL    HW244410   2.457   4.466   3.186
14191SOL     OW44411   4.918   6.150  12.885
14191SOL    HW144412   4.995   6.158  12.941
14191SOL    HW244413   4.844   6.157  12.945
14192SOL     OW44414  10.228  11.453   9.452
14192SOL    HW144415  10.221  11.532   9.505
14192SOL    HW244416  10.137  11.430   9.430
14193SOL     OW44417   2.234  12.096   1.404
14193SOL    HW144418   2.270  12.166   1.459
14193SOL    HW244419   2.142  12.117   1.395
14194SOL     OW44420   5.406   4.244   4.993
14194SOL    HW144421   5.445   4.174   4.942
14194SOL    HW244422   5.368   4.303   4.928
14195SOL     OW44423   7.638   3.043   2.218
14195SOL    HW144424   7.565   3.104   2.209
14195SOL    HW244425   7.603   2.974   2.275
14196SOL     OW44426  10.232  11.748   8.429
14196SOL    HW144427  10.208  11.807   8.501
14196SOL    HW244428  10.302  11.794   8.383
14197SOL     OW44429   8.600   2.110   4.551
14197SOL    HW144430   8.673   2.061   4.591
14197SOL    HW244431   8.522   2.059   4.572
14198SOL     OW44432   1.914   1.443   6.116
14198SOL    HW144433   1.968   1.371   6.081
14198SOL    HW244434   1.836   1.443   6.059
14199SOL     OW44435   6.082   5.359  11.044
14199SOL    HW144436   6.071   5.309  11.124
14199SOL    HW244437   6.051   5.301  10.974
14200SOL     OW44438  10.949   7.493  10.390
14200SOL    HW144439  10.888   7.424  10.364
14200SOL    HW244440  10.998   7.456  10.463
14201SOL     OW44441   8.631   4.331  13.689
14201SOL    HW144442   8.713   4.318  13.738
14201SOL    HW244443   8.646   4.412  13.640
14202SOL     OW44444   8.828   0.623  13.485
14202SOL    HW144445   8.883   0.554  13.446
14202SOL    HW244446   8.751   0.627  13.428
14203SOL     OW44447   1.896   1.595   2.225
14203SOL    HW144448   1.917   1.655   2.153
14203SOL    HW244449   1.801   1.605   2.238
14204SOL     OW44450   6.476   5.761  11.106
14204SOL    HW144451   6.495   5.725  11.192
14204SOL    HW244452   6.410   5.828  11.123
14205SOL     OW44453   3.789   5.690   6.546
14205SOL    HW144454   3.813   5.660   6.634
14205SOL    HW244455   3.720   5.755   6.561
14206SOL     OW44456   7.035   8.658   9.586
14206SOL    HW144457   6.942   8.634   9.576
14206SOL    HW244458   7.033   8.739   9.637
14207SOL     OW44459  10.286   6.059  11.350
14207SOL    HW144460  10.238   6.136  11.321
14207SOL    HW244461  10.304   6.011  11.269
14208SOL     OW44462   7.100   4.754   6.349
14208SOL    HW144463   7.050   4.806   6.412
14208SOL    HW244464   7.124   4.674   6.397
14209SOL     OW44465   3.178   5.755   9.697
14209SOL    HW144466   3.221   5.755   9.783
14209SOL    HW244467   3.161   5.662   9.679
14210SOL     OW44468   8.499  11.665   1.488
14210SOL    HW144469   8.415  11.641   1.527
14210SOL    HW244470   8.488  11.648   1.394
14211SOL     OW44471   1.004  11.883  12.904
14211SOL    HW144472   1.033  11.930  12.982
14211SOL    HW244473   0.909  11.876  12.915
14212SOL     OW44474   3.960  11.015  12.091
14212SOL    HW144475   4.012  10.937  12.110
14212SOL    HW244476   3.904  10.989  12.017
14213SOL     OW44477   9.511   5.003   7.182
14213SOL    HW144478   9.476   5.091   7.169
14213SOL    HW244479   9.586   4.997   7.122
14214SOL     OW44480   8.917  14.239   6.775
14214SOL    HW144481   8.854  14.220   6.845
14214SOL    HW244482   8.982  14.296   6.816
14215SOL     OW44483   5.070   4.392  12.281
14215SOL    HW144484   4.982   4.376  12.316
14215SOL    HW244485   5.107   4.457  12.340
14216SOL     OW44486   7.795   1.694   0.369
14216SOL    HW144487   7.700   1.691   0.384
14216SOL    HW244488   7.817   1.607   0.336
14217SOL     OW44489   7.862  14.050   6.323
14217SOL    HW144490   7.900  14.125   6.368
14217SOL    HW244491   7.789  14.023   6.379
14218SOL     OW44492   3.472  14.726   1.392
14218SOL    HW144493   3.535  14.653   1.396
14218SOL    HW244494   3.427  14.714   1.309
14219SOL     OW44495   5.743   6.894   4.817
14219SOL    HW144496   5.735   6.804   4.784
14219SOL    HW244497   5.811   6.933   4.762
14220SOL     OW44498   7.871   9.706   5.115
14220SOL    HW144499   7.867   9.720   5.020
14220SOL    HW244500   7.822   9.780   5.151
14221SOL     OW44501   1.221   0.859  11.197
14221SOL    HW144502   1.209   0.774  11.154
14221SOL    HW244503   1.134   0.881  11.231
14222SOL     OW44504   1.154   1.405  13.597
14222SOL    HW144505   1.243   1.408  13.630
14222SOL    HW244506   1.137   1.312  13.582
14223SOL     OW44507   5.324   5.145   2.473
14223SOL    HW144508   5.312   5.051   2.458
14223SOL    HW244509   5.296   5.159   2.563
14224SOL     OW44510   0.469   7.983  12.942
14224SOL    HW144511   0.549   8.033  12.955
14224SOL    HW244512   0.495   7.892  12.952
14225SOL     OW44513  10.355   6.390   2.330
14225SOL    HW144514  10.353   6.298   2.356
14225SOL    HW244515  10.281   6.429   2.377
14226SOL     OW44516   0.081   6.118  11.990
14226SOL    HW144517   0.042   6.185  11.934
14226SOL    HW244518   0.007   6.082  12.039
14227SOL     OW44519   5.290  11.225  11.515
14227SOL    HW144520   5.272  11.265  11.600
14227SOL    HW244521   5.248  11.140  11.518
14228SOL     OW44522  10.170  13.920   4.120
14228SOL    HW144523  10.166  13.942   4.214
14228SOL    HW244524  10.171  13.825   4.118
14229SOL     OW44525  14.733   9.793   2.363
14229SOL    HW144526  14.790   9.722   2.395
14229SOL    HW244527  14.710   9.842   2.442
14230SOL     OW44528   4.461   9.614   9.017
14230SOL    HW144529   4.409   9.649   9.089
14230SOL    HW244530   4.542   9.667   9.019
14231SOL     OW44531  12.892   3.001   3.066
14231SOL    HW144532  12.951   3.000   2.990
14231SOL    HW244533  12.903   2.915   3.106
14232SOL     OW44534   8.286  14.519  10.852
14232SOL    HW144535   8.329  14.568  10.922
14232SOL    HW244536   8.340  14.535  10.775
14233SOL     OW44537  12.434   0.508   6.945
14233SOL    HW144538  12.475   0.518   7.031
14233SOL    HW244539  12.500   0.538   6.882
14234SOL     OW44540  13.405  12.687  12.464
14234SOL    HW144541  13.457  12.767  12.470
14234SOL    HW244542  13.400  12.669  12.370
14235SOL     OW44543   2.554   4.905   9.902
14235SOL    HW144544   2.535   4.848   9.977
14235SOL    HW244545   2.472   4.954   9.888
14236SOL     OW44546   3.615   1.927   8.444
14236SOL    HW144547   3.615   1.986   8.368
14236SOL    HW244548   3.647   1.982   8.516
14237SOL     OW44549  14.278   7.001   9.231
14237SOL    HW144550  14.267   6.957   9.146
14237SOL    HW244551  14.214   6.958   9.288
14238SOL     OW44552  12.772  12.176  14.334
14238SOL    HW144553  12.734  12.173  14.421
14238SOL    HW244554  12.786  12.084  14.310
14239SOL     OW44555   6.778   8.608  10.919
14239SOL    HW144556   6.842   8.672  10.887
14239SOL    HW244557   6.719   8.660  10.974
14240SOL     OW44558  11.396   5.104   1.021
14240SOL    HW144559  11.358   5.185   1.055
14240SOL    HW244560  11.379   5.038   1.089
14241SOL     OW44561   2.605   3.708   0.450
14241SOL    HW144562   2.529   3.734   0.399
14241SOL    HW244563   2.668   3.779   0.437
14242SOL     OW44564  14.731   2.829   7.801
14242SOL    HW144565  14.735   2.829   7.897
14242SOL    HW244566  14.800   2.768   7.775
14243SOL     OW44567  11.853   4.731   9.604
14243SOL    HW144568  11.836   4.787   9.679
14243SOL    HW244569  11.946   4.742   9.586
14244SOL     OW44570   7.962   1.441   8.673
14244SOL    HW144571   7.897   1.501   8.710
14244SOL    HW244572   7.912   1.363   8.649
14245SOL     OW44573   2.068   9.458   8.778
14245SOL    HW144574   2.145   9.493   8.822
14245SOL    HW244575   2.060   9.369   8.812
14246SOL     OW44576   8.177   5.742   4.913
14246SOL    HW144577   8.168   5.835   4.891
14246SOL    HW244578   8.266   5.720   4.887
14247SOL     OW44579   1.966   1.981   2.195
14247SOL    HW144580   1.978   1.908   2.135
14247SOL    HW244581   2.040   2.040   2.176
14248SOL     OW44582   3.276   1.821   9.840
14248SOL    HW144583   3.344   1.760   9.812
14248SOL    HW244584   3.266   1.882   9.767
14249SOL     OW44585   3.274   6.454   2.311
14249SOL    HW144586   3.180   6.439   2.321
14249SOL    HW244587   3.311   6.366   2.303
14250SOL     OW44588  12.393  14.772   4.901
14250SOL    HW144589  12.387  14.860   4.865
14250SOL    HW244590  12.477  14.738   4.869
14251SOL     OW44591   2.436   9.923   6.574
14251SOL    HW144592   2.472   9.944   6.660
14251SOL    HW244593   2.444  10.004   6.525
14252SOL     OW44594   4.694   0.282   0.594
14252SOL    HW144595   4.782   0.296   0.629
14252SOL    HW244596   4.685   0.347   0.524
14253SOL     OW44597   4.145   0.390   3.599
14253SOL    HW144598   4.096   0.317   3.637
14253SOL    HW244599   4.100   0.469   3.630
14254SOL     OW44600   0.653  10.049   5.376
14254SOL    HW144601   0.589  10.117   5.355
14254SOL    HW244602   0.709  10.043   5.298
14255SOL     OW44603  13.603   4.466  14.446
14255SOL    HW144604  13.664   4.491  14.515
14255SOL    HW244605  13.517   4.489  14.481
14256SOL     OW44606   7.861   8.046  14.586
14256SOL    HW144607   7.814   8.000  14.656
14256SOL    HW244608   7.920   7.980  14.550
14257SOL     OW44609   5.921  12.882  10.742
14257SOL    HW144610   5.925  12.817  10.812
14257SOL    HW244611   5.931  12.966  10.786
14258SOL     OW44612   5.534   9.801   7.813
14258SOL    HW144613   5.568   9.870   7.756
14258SOL    HW244614   5.524   9.725   7.756
14259SOL     OW44615   1.841   1.718   0.634
14259SOL    HW144616   1.929   1.755   0.645
14259SOL    HW244617   1.838   1.692   0.542
14260SOL     OW44618   6.598   5.979   5.982
14260SOL    HW144619   6.531   5.988   5.914
14260SOL    HW244620   6.680   5.992   5.936
14261SOL     OW44621  13.605   1.788   1.156
14261SOL    HW144622  13.674   1.844   1.192
14261SOL    HW244623  13.640   1.699   1.163
14262SOL     OW44624   0.669   2.804   3.531
14262SOL    HW144625   0.744   2.858   3.506
14262SOL    HW244626   0.608   2.813   3.458
14263SOL     OW44627   0.274   1.301  13.510
14263SOL    HW144628   0.181   1.320  13.502
14263SOL    HW244629   0.296   1.252  13.431
14264SOL     OW44630   2.082  11.120   3.827
14264SOL    HW144631   2.011  11.067   3.863
14264SOL    HW244632   2.161  11.084   3.866
14265SOL     OW44633   9.417   7.573  13.782
14265SOL    HW144634   9.337   7.527  13.760
14265SOL    HW244635   9.387   7.656  13.821
14266SOL     OW44636   6.318  11.791  12.858
14266SOL    HW144637   6.405  11.754  12.867
14266SOL    HW244638   6.315  11.826  12.769
14267SOL     OW44639  14.198  10.937   3.014
14267SOL    HW144640  14.219  11.022   2.975
14267SOL    HW244641  14.102  10.935   3.016
14268SOL     OW44642   3.067   4.902   9.391
14268SOL    HW144643   3.156   4.899   9.427
14268SOL    HW244644   3.073   4.964   9.318
14269SOL     OW44645   4.563   3.018   1.845
14269SOL    HW144646   4.594   2.929   1.859
14269SOL    HW244647   4.519   3.015   1.760
14270SOL     OW44648   4.677   5.041   7.809
14270SOL    HW144649   4.686   5.136   7.808
14270SOL    HW244650   4.636   5.022   7.893
14271SOL     OW44651   3.313   3.850   2.710
14271SOL    HW144652   3.292   3.896   2.630
14271SOL    HW244653   3.333   3.919   2.773
14272SOL     OW44654   3.156   3.563   8.131
14272SOL    HW144655   3.240   3.570   8.085
14272SOL    HW244656   3.171   3.603   8.216
14273SOL     OW44657   9.035   0.370   7.053
14273SOL    HW144658   8.946   0.347   7.079
14273SOL    HW244659   9.062   0.300   6.994
14274SOL     OW44660   6.309  13.169   4.558
14274SOL    HW144661   6.215  13.174   4.578
14274SOL    HW244662   6.322  13.081   4.523
14275SOL     OW44663  11.734  13.079   3.986
14275SOL    HW144664  11.727  13.049   4.077
14275SOL    HW244665  11.781  13.163   3.993
14276SOL     OW44666   1.789  10.690   8.293
14276SOL    HW144667   1.838  10.769   8.316
14276SOL    HW244668   1.845  10.645   8.229
14277SOL     OW44669  14.521   7.477  12.732
14277SOL    HW144670  14.455   7.511  12.792
14277SOL    HW244671  14.556   7.400  12.777
14278SOL     OW44672  11.296  11.974   2.797
14278SOL    HW144673  11.232  12.029   2.842
14278SOL    HW244674  11.336  12.032   2.732
14279SOL     OW44675  11.341  10.365   1.274
14279SOL    HW144676  11.286  10.331   1.345
14279SOL    HW244677  11.401  10.425   1.317
14280SOL     OW44678   5.728   6.459   4.426
14280SOL    HW144679   5.788   6.477   4.499
14280SOL    HW244680   5.744   6.367   4.405
14281SOL     OW44681   1.415   0.936   6.883
14281SOL    HW144682   1.487   0.979   6.929
14281SOL    HW244683   1.414   0.975   6.796
14282SOL     OW44684   1.454  12.110   5.683
14282SOL    HW144685   1.474  12.130   5.775
14282SOL    HW244686   1.468  12.193   5.637
14283SOL     OW44687   1.074   0.231  11.040
14283SOL    HW144688   1.130   0.308  11.024
14283SOL    HW244689   1.077   0.182  10.958
14284SOL     OW44690  13.869  10.510   3.524
14284SOL    HW144691  13.892  10.518   3.616
14284SOL    HW244692  13.807  10.437   3.520
14285SOL     OW44693   9.013   6.189   1.172
14285SOL    HW144694   9.006   6.184   1.077
14285SOL    HW244695   8.996   6.100   1.203
14286SOL     OW44696   9.124   0.027  13.024
14286SOL    HW144697   9.169   0.104  12.991
14286SOL    HW244698   9.122   0.039  13.119
14287SOL     OW44699  10.534   3.046   5.411
14287SOL    HW144700  10.518   3.049   5.505
14287SOL    HW244701  10.576   2.962   5.396
14288SOL     OW44702  12.885   7.967  11.722
14288SOL    HW144703  12.812   7.908  11.701
14288SOL    HW244704  12.844   8.052  11.737
14289SOL     OW44705   3.109  14.674  10.788
14289SOL    HW144706   3.097  14.581  10.768
14289SOL    HW244707   3.032  14.698  10.840
14290SOL     OW44708   8.051   8.784   0.868
14290SOL    HW144709   8.141   8.767   0.898
14290SOL    HW244710   7.996   8.753   0.940
14291SOL     OW44711   6.570   3.195   8.509
14291SOL    HW144712   6.581   3.276   8.459
14291SOL    HW244713   6.592   3.126   8.447
14292SOL     OW44714  10.943   7.882   6.588
14292SOL    HW144715  10.875   7.817   6.568
14292SOL    HW244716  10.899   7.966   6.578
14293SOL     OW44717   6.112   0.609   6.160
14293SOL    HW144718   6.178   0.541   6.147
14293SOL    HW244719   6.032   0.573   6.123
14294SOL     OW44720   6.256   4.716   5.615
14294SOL    HW144721   6.292   4.675   5.693
14294SOL    HW244722   6.228   4.643   5.560
14295SOL     OW44723   4.236  14.334  12.045
14295SOL    HW144724   4.170  14.403  12.050
14295SOL    HW244725   4.203  14.275  11.978
14296SOL     OW44726   7.986  12.099  11.556
14296SOL    HW144727   7.953  12.072  11.471
14296SOL    HW244728   7.936  12.048  11.619
14297SOL     OW44729  11.070   4.023   2.993
14297SOL    HW144730  11.165   4.027   2.985
14297SOL    HW244731  11.043   4.112   3.015
14298SOL     OW44732   5.798   2.375  10.097
14298SOL    HW144733   5.870   2.350  10.038
14298SOL    HW244734   5.769   2.460  10.064
14299SOL     OW44735   8.274  13.630  12.083
14299SOL    HW144736   8.356  13.659  12.043
14299SOL    HW244737   8.275  13.535  12.075
14300SOL     OW44738   6.928  14.858   3.782
14300SOL    HW144739   6.934  14.763   3.770
14300SOL    HW244740   6.881   0.008   3.705
14301SOL     OW44741   6.951   8.383   3.864
14301SOL    HW144742   6.965   8.322   3.791
14301SOL    HW244743   7.018   8.360   3.928
14302SOL     OW44744   6.886  11.849   1.409
14302SOL    HW144745   6.976  11.848   1.378
14302SOL    HW244746   6.871  11.939   1.438
14303SOL     OW44747   1.371   9.636  10.579
14303SOL    HW144748   1.386   9.724  10.611
14303SOL    HW244749   1.417   9.579  10.640
14304SOL     OW44750   6.593   6.744   5.759
14304SOL    HW144751   6.688   6.734   5.767
14304SOL    HW244752   6.581   6.804   5.685
14305SOL     OW44753  12.727   1.372  13.565
14305SOL    HW144754  12.775   1.378  13.482
14305SOL    HW244755  12.686   1.458  13.575
14306SOL     OW44756  14.679   1.175  14.038
14306SOL    HW144757  14.586   1.152  14.037
14306SOL    HW244758  14.693   1.212  14.126
14307SOL     OW44759  14.192  13.300   1.491
14307SOL    HW144760  14.202  13.392   1.464
14307SOL    HW244761  14.218  13.300   1.583
14308SOL     OW44762   6.836   6.226   3.870
14308SOL    HW144763   6.871   6.137   3.876
14308SOL    HW244764   6.912   6.282   3.883
14309SOL     OW44765   7.424   2.984   7.703
14309SOL    HW144766   7.357   2.957   7.640
14309SOL    HW244767   7.376   3.030   7.772
14310SOL     OW44768   4.713   4.123  11.617
14310SOL    HW144769   4.698   4.036  11.580
14310SOL    HW244770   4.631   4.171  11.603
14311SOL     OW44771   4.824  12.510   8.728
14311SOL    HW144772   4.826  12.415   8.712
14311SOL    HW244773   4.903  12.543   8.686
14312SOL     OW44774  14.336   9.908   5.348
14312SOL    HW144775  14.302   9.978   5.291
14312SOL    HW244776  14.423   9.938   5.373
14313SOL     OW44777  12.838  12.268   9.875
14313SOL    HW144778  12.924  12.296   9.907
14313SOL    HW244779  12.803  12.214   9.946
14314SOL     OW44780   1.888   2.599  11.233
14314SOL    HW144781   1.796   2.623  11.226
14314SOL    HW244782   1.899   2.525  11.173
14315SOL     OW44783   6.906   4.152   8.282
14315SOL    HW144784   6.901   4.182   8.373
14315SOL    HW244785   6.849   4.076   8.279
14316SOL     OW44786   5.267   0.609   3.360
14316SOL    HW144787   5.323   0.541   3.323
14316SOL    HW244788   5.179   0.571   3.360
14317SOL     OW44789  11.357  12.656   3.730
14317SOL    HW144790  11.276  12.657   3.780
14317SOL    HW244791  11.419  12.707   3.782
14318SOL     OW44792   4.270   6.920  11.612
14318SOL    HW144793   4.201   6.924  11.546
14318SOL    HW244794   4.350   6.905  11.561
14319SOL     OW44795   9.846   9.210  13.714
14319SOL    HW144796   9.814   9.156  13.787
14319SOL    HW244797   9.941   9.213  13.727
14320SOL     OW44798  11.497   1.783  14.834
14320SOL    HW144799  11.590   1.804  14.833
14320SOL    HW244800  11.476   1.760  14.743
14321SOL     OW44801   6.344   8.668  11.504
14321SOL    HW144802   6.251   8.670  11.480
14321SOL    HW244803   6.389   8.643  11.423
14322SOL     OW44804   4.906   5.756   5.349
14322SOL    HW144805   4.869   5.704   5.420
14322SOL    HW244806   4.984   5.708   5.321
14323SOL     OW44807   1.077   6.032   0.284
14323SOL    HW144808   1.117   6.117   0.304
14323SOL    HW244809   0.998   6.054   0.234
14324SOL     OW44810   2.286   5.495   4.224
14324SOL    HW144811   2.378   5.500   4.251
14324SOL    HW244812   2.247   5.435   4.287
14325SOL     OW44813   5.289   6.969   7.469
14325SOL    HW144814   5.207   6.992   7.514
14325SOL    HW244815   5.295   6.874   7.479
14326SOL     OW44816  13.111   8.305   0.608
14326SOL    HW144817  13.182   8.257   0.649
14326SOL    HW244818  13.031   8.271   0.648
14327SOL     OW44819   0.311   4.474   6.228
14327SOL    HW144820   0.301   4.492   6.135
14327SOL    HW244821   0.374   4.402   6.232
14328SOL     OW44822   7.379   3.745   7.010
14328SOL    HW144823   7.336   3.830   7.013
14328SOL    HW244824   7.383   3.722   6.917
14329SOL     OW44825   5.940  11.010   5.801
14329SOL    HW144826   5.982  11.050   5.725
14329SOL    HW244827   5.988  11.043   5.876
14330SOL     OW44828   0.081   3.633   0.236
14330SOL    HW144829   0.122   3.677   0.162
14330SOL    HW244830  14.873   3.667   0.237
14331SOL     OW44831   7.008   4.828  11.172
14331SOL    HW144832   6.997   4.908  11.224
14331SOL    HW244833   7.033   4.761  11.236
14332SOL     OW44834   7.521  12.639  14.587
14332SOL    HW144835   7.580  12.565  14.573
14332SOL    HW244836   7.465  12.611  14.660
14333SOL     OW44837  13.222   5.466   0.499
14333SOL    HW144838  13.143   5.418   0.522
14333SOL    HW244839  13.202   5.557   0.520
14334SOL     OW44840   2.814   9.943   0.281
14334SOL    HW144841   2.835  10.005   0.211
14334SOL    HW244842   2.796   9.860   0.236
14335SOL     OW44843   2.299   8.800  10.263
14335SOL    HW144844   2.271   8.730  10.322
14335SOL    HW244845   2.295   8.880  10.316
14336SOL     OW44846  13.994   5.630   2.659
14336SOL    HW144847  13.939   5.604   2.734
14336SOL    HW244848  14.047   5.703   2.692
14337SOL     OW44849  11.820   0.388  10.449
14337SOL    HW144850  11.821   0.478  10.481
14337SOL    HW244851  11.824   0.397  10.353
14338SOL     OW44852   4.535   2.301   5.609
14338SOL    HW144853   4.621   2.309   5.569
14338SOL    HW244854   4.550   2.255   5.692
14339SOL     OW44855  11.077  12.691   8.838
14339SOL    HW144856  11.019  12.667   8.766
14339SOL    HW244857  11.042  12.774   8.871
14340SOL     OW44858  13.243   5.113   1.438
14340SOL    HW144859  13.326   5.077   1.469
14340SOL    HW244860  13.193   5.131   1.518
14341SOL     OW44861  12.756   4.540  11.534
14341SOL    HW144862  12.663   4.529  11.514
14341SOL    HW244863  12.759   4.619  11.589
14342SOL     OW44864  13.359   1.002  12.598
14342SOL    HW144865  13.349   1.094  12.576
14342SOL    HW244866  13.434   0.999  12.657
14343SOL     OW44867  14.855   9.022   0.172
14343SOL    HW144868  14.785   9.065   0.221
14343SOL    HW244869  14.820   9.010   0.084
14344SOL     OW44870   8.073  12.223  13.152
14344SOL    HW144871   8.029  12.190  13.230
14344SOL    HW244872   8.074  12.318  13.163
14345SOL     OW44873  13.063   8.908   8.333
14345SOL    HW144874  13.008   8.967   8.281
14345SOL    HW244875  13.001   8.860   8.388
14346SOL     OW44876   6.782   9.798  13.636
14346SOL    HW144877   6.824   9.844  13.564
14346SOL    HW244878   6.740   9.867  13.688
14347SOL     OW44879  10.995  14.493   5.688
14347SOL    HW144880  11.004  14.400   5.707
14347SOL    HW244881  11.084  14.522   5.668
14348SOL     OW44882   6.349   3.376  11.408
14348SOL    HW144883   6.439   3.345  11.396
14348SOL    HW244884   6.358   3.460  11.453
14349SOL     OW44885   6.399  14.598   0.801
14349SOL    HW144886   6.415  14.692   0.789
14349SOL    HW244887   6.307  14.593   0.827
14350SOL     OW44888   2.414   2.225   7.511
14350SOL    HW144889   2.491   2.277   7.485
14350SOL    HW244890   2.425   2.212   7.605
14351SOL     OW44891  11.660   8.099  10.193
14351SOL    HW144892  11.586   8.063  10.243
14351SOL    HW244893  11.729   8.034  10.202
14352SOL     OW44894  14.561   6.098   6.732
14352SOL    HW144895  14.642   6.104   6.783
14352SOL    HW244896  14.513   6.025   6.772
14353SOL     OW44897  14.100   2.304  12.108
14353SOL    HW144898  14.054   2.248  12.046
14353SOL    HW244899  14.032   2.358  12.147
14354SOL     OW44900   6.976  12.285  10.835
14354SOL    HW144901   7.057  12.236  10.823
14354SOL    HW244902   6.923  12.231  10.894
14355SOL     OW44903  12.833   2.542   4.715
14355SOL    HW144904  12.816   2.465   4.660
14355SOL    HW244905  12.922   2.569   4.692
14356SOL     OW44906   2.553   4.561   2.912
14356SOL    HW144907   2.604   4.636   2.943
14356SOL    HW244908   2.560   4.566   2.816
14357SOL     OW44909  12.170  12.580   8.019
14357SOL    HW144910  12.246  12.632   7.994
14357SOL    HW244911  12.172  12.579   8.115
14358SOL     OW44912  14.144  12.125   8.934
14358SOL    HW144913  14.120  12.215   8.913
14358SOL    HW244914  14.163  12.126   9.028
14359SOL     OW44915   3.810   5.005  13.010
14359SOL    HW144916   3.809   4.933  12.947
14359SOL    HW244917   3.841   4.965  13.092
14360SOL     OW44918   9.595  11.859  10.344
14360SOL    HW144919   9.661  11.927  10.328
14360SOL    HW244920   9.561  11.879  10.431
14361SOL     OW44921  12.126   1.399   7.619
14361SOL    HW144922  12.181   1.473   7.645
14361SOL    HW244923  12.135   1.336   7.690
14362SOL     OW44924   7.660   0.447   3.130
14362SOL    HW144925   7.688   0.437   3.221
14362SOL    HW244926   7.573   0.487   3.136
14363SOL     OW44927   6.291   6.503   8.537
14363SOL    HW144928   6.287   6.517   8.442
14363SOL    HW244929   6.245   6.579   8.574
14364SOL     OW44930   7.215   9.565   2.493
14364SOL    HW144931   7.135   9.609   2.465
14364SOL    HW244932   7.199   9.542   2.585
14365SOL     OW44933   7.995   3.640   3.045
14365SOL    HW144934   7.901   3.661   3.042
14365SOL    HW244935   8.003   3.576   3.115
14366SOL     OW44936  10.861  11.641  14.415
14366SOL    HW144937  10.776  11.600  14.428
14366SOL    HW244938  10.905  11.586  14.351
14367SOL     OW44939  12.664   0.102  11.654
14367SOL    HW144940  12.734   0.166  11.662
14367SOL    HW244941  12.695   0.039  11.589
14368SOL     OW44942   9.847   9.672   5.284
14368SOL    HW144943   9.754   9.684   5.306
14368SOL    HW244944   9.894   9.706   5.361
14369SOL     OW44945  10.282  10.801  10.162
14369SOL    HW144946  10.262  10.873  10.102
14369SOL    HW244947  10.231  10.728  10.129
14370SOL     OW44948  10.178   9.621  11.571
14370SOL    HW144949  10.238   9.696  11.580
14370SOL    HW244950  10.234   9.550  11.540
14371SOL     OW44951   6.440   5.161   3.629
14371SOL    HW144952   6.474   5.119   3.550
14371SOL    HW244953   6.507   5.227   3.651
14372SOL     OW44954  14.247  14.572  11.817
14372SOL    HW144955  14.181  14.511  11.851
14372SOL    HW244956  14.272  14.625  11.893
14373SOL     OW44957   6.314  11.238   1.634
14373SOL    HW144958   6.384  11.176   1.612
14373SOL    HW244959   6.289  11.214   1.723
14374SOL     OW44960   5.377   0.585  12.487
14374SOL    HW144961   5.347   0.660  12.539
14374SOL    HW244962   5.468   0.572  12.514
14375SOL     OW44963   4.261   6.092   1.229
14375SOL    HW144964   4.285   6.008   1.270
14375SOL    HW244965   4.332   6.110   1.168
14376SOL     OW44966   9.798   5.561   8.779
14376SOL    HW144967   9.738   5.625   8.740
14376SOL    HW244968   9.795   5.486   8.719
14377SOL     OW44969  13.780   9.699   3.430
14377SOL    HW144970  13.817   9.618   3.466
14377SOL    HW244971  13.844   9.767   3.452
14378SOL     OW44972   0.997  14.676   3.165
14378SOL    HW144973   1.043  14.712   3.241
14378SOL    HW244974   1.012  14.739   3.095
14379SOL     OW44975  14.004   2.762   3.729
14379SOL    HW144976  14.020   2.711   3.809
14379SOL    HW244977  13.913   2.743   3.706
14380SOL     OW44978  12.707   2.288   2.194
14380SOL    HW144979  12.692   2.339   2.273
14380SOL    HW244980  12.716   2.353   2.124
14381SOL     OW44981   8.745   6.689  14.493
14381SOL    HW144982   8.709   6.760  14.441
14381SOL    HW244983   8.677   6.668  14.557
14382SOL     OW44984   5.807  13.664   4.738
14382SOL    HW144985   5.898  13.637   4.734
14382SOL    HW244986   5.782  13.652   4.830
14383SOL     OW44987  12.159  13.632   7.403
14383SOL    HW144988  12.244  13.664   7.433
14383SOL    HW244989  12.144  13.677   7.320
14384SOL     OW44990  11.210   1.826  13.870
14384SOL    HW144991  11.254   1.772  13.803
14384SOL    HW244992  11.207   1.770  13.947
14385SOL     OW44993   3.113   1.198   8.346
14385SOL    HW144994   3.109   1.105   8.368
14385SOL    HW244995   3.021   1.224   8.332
14386SOL     OW44996   4.173  14.374   8.523
14386SOL    HW144997   4.204  14.353   8.611
14386SOL    HW244998   4.160  14.469   8.524
14387SOL     OW44999  10.849  12.740  10.882
14387SOL    HW145000  10.824  12.659  10.838
14387SOL    HW245001  10.833  12.808  10.817
14388SOL     OW45002   2.183   6.268   8.048
14388SOL    HW145003   2.161   6.351   8.006
14388SOL    HW245004   2.195   6.291   8.141
14389SOL     OW45005   9.037  14.560   1.214
14389SOL    HW145006   9.071  14.598   1.295
14389SOL    HW245007   8.943  14.554   1.229
14390SOL     OW45008   0.737  13.529  14.204
14390SOL    HW145009   0.806  13.530  14.271
14390SOL    HW245010   0.784  13.520  14.121
14391SOL     OW45011   3.558   1.050   7.904
14391SOL    HW145012   3.484   0.992   7.889
14391SOL    HW245013   3.518   1.135   7.922
14392SOL     OW45014   7.782   1.911   8.895
14392SOL    HW145015   7.692   1.935   8.917
14392SOL    HW245016   7.833   1.940   8.971
14393SOL     OW45017   7.480   2.563   6.204
14393SOL    HW145018   7.422   2.602   6.270
14393SOL    HW245019   7.533   2.636   6.173
14394SOL     OW45020   0.844  14.417   2.860
14394SOL    HW145021   0.848  14.426   2.764
14394SOL    HW245022   0.751  14.426   2.881
14395SOL     OW45023   0.613   8.151  13.233
14395SOL    HW145024   0.551   8.127  13.302
14395SOL    HW245025   0.673   8.076  13.228
14396SOL     OW45026  12.844   2.585  14.565
14396SOL    HW145027  12.929   2.557  14.531
14396SOL    HW245028  12.860   2.605  14.657
14397SOL     OW45029  10.787  10.288  11.295
14397SOL    HW145030  10.867  10.246  11.325
14397SOL    HW245031  10.797  10.380  11.322
14398SOL     OW45032   6.136   0.908   9.356
14398SOL    HW145033   6.071   0.937   9.293
14398SOL    HW245034   6.146   0.981   9.417
14399SOL     OW45035   4.919   6.081   4.214
14399SOL    HW145036   4.949   5.992   4.198
14399SOL    HW245037   4.865   6.075   4.292
14400SOL     OW45038   3.986   5.371   9.300
14400SOL    HW145039   3.903   5.412   9.323
14400SOL    HW245040   3.962   5.286   9.262
14401SOL     OW45041   6.238  10.659   8.471
14401SOL    HW145042   6.214  10.749   8.450
14401SOL    HW245043   6.333  10.656   8.464
14402SOL     OW45044   7.049  11.187  14.098
14402SOL    HW145045   7.121  11.233  14.055
14402SOL    HW245046   7.035  11.109  14.044
14403SOL     OW45047   3.575   1.713  10.186
14403SOL    HW145048   3.520   1.770  10.239
14403SOL    HW245049   3.565   1.627  10.225
14404SOL     OW45050   0.812  13.634  14.806
14404SOL    HW145051   0.864  13.695  14.754
14404SOL    HW245052   0.727  13.630  14.762
14405SOL     OW45053  13.615   6.569   4.082
14405SOL    HW145054  13.593   6.656   4.048
14405SOL    HW245055  13.540   6.544   4.136
14406SOL     OW45056  10.590   6.546   8.773
14406SOL    HW145057  10.546   6.493   8.706
14406SOL    HW245058  10.537   6.625   8.779
14407SOL     OW45059   5.272   9.394   6.264
14407SOL    HW145060   5.208   9.457   6.299
14407SOL    HW245061   5.230   9.357   6.187
14408SOL     OW45062   8.844  14.023   3.591
14408SOL    HW145063   8.823  13.958   3.523
14408SOL    HW245064   8.867  13.970   3.668
14409SOL     OW45065   7.257   6.154   5.981
14409SOL    HW145066   7.240   6.065   5.951
14409SOL    HW245067   7.320   6.189   5.918
14410SOL     OW45068  10.808   3.245   1.806
14410SOL    HW145069  10.771   3.315   1.859
14410SOL    HW245070  10.876   3.287   1.753
14411SOL     OW45071   7.535   4.411   1.014
14411SOL    HW145072   7.587   4.409   0.934
14411SOL    HW245073   7.587   4.361   1.077
14412SOL     OW45074   2.904   6.943  12.821
14412SOL    HW145075   2.883   6.930  12.729
14412SOL    HW245076   2.851   7.018  12.848
14413SOL     OW45077   3.739   4.109   9.275
14413SOL    HW145078   3.690   4.182   9.314
14413SOL    HW245079   3.788   4.149   9.203
14414SOL     OW45080   1.070   2.048  13.774
14414SOL    HW145081   1.128   2.111  13.818
14414SOL    HW245082   1.039   2.095  13.696
14415SOL     OW45083   4.725   0.759  13.289
14415SOL    HW145084   4.803   0.813  13.277
14415SOL    HW245085   4.656   0.822  13.312
14416SOL     OW45086  10.996  12.240   2.212
14416SOL    HW145087  10.935  12.311   2.193
14416SOL    HW245088  10.977  12.215   2.302
14417SOL     OW45089  11.241  10.996  11.044
14417SOL    HW145090  11.159  10.967  11.086
14417SOL    HW245091  11.233  10.966  10.954
14418SOL     OW45092  13.835  12.513   3.210
14418SOL    HW145093  13.742  12.519   3.192
14418SOL    HW245094  13.841  12.496   3.304
14419SOL     OW45095   2.563   2.315   9.619
14419SOL    HW145096   2.556   2.357   9.533
14419SOL    HW245097   2.599   2.228   9.601
14420SOL     OW45098   3.652   6.970   0.761
14420SOL    HW145099   3.665   6.876   0.758
14420SOL    HW245100   3.706   7.005   0.690
14421SOL     OW45101   9.655   8.538   2.780
14421SOL    HW145102   9.606   8.518   2.700
14421SOL    HW245103   9.746   8.541   2.751
14422SOL     OW45104  13.269  13.739  11.115
14422SOL    HW145105  13.273  13.794  11.193
14422SOL    HW245106  13.220  13.791  11.051
14423SOL     OW45107   9.392   4.723   9.943
14423SOL    HW145108   9.341   4.701   9.865
14423SOL    HW245109   9.327   4.754  10.006
14424SOL     OW45110  12.849   5.507   3.926
14424SOL    HW145111  12.784   5.463   3.871
14424SOL    HW245112  12.856   5.595   3.889
14425SOL     OW45113   2.449  11.746   4.225
14425SOL    HW145114   2.488  11.779   4.306
14425SOL    HW245115   2.511  11.679   4.194
14426SOL     OW45116   1.689  14.604   0.905
14426SOL    HW145117   1.697  14.600   1.000
14426SOL    HW245118   1.752  14.540   0.873
14427SOL     OW45119   0.157   3.413   0.009
14427SOL    HW145120   0.195   3.449   0.090
14427SOL    HW245121   0.233   3.391  14.837
14428SOL     OW45122  14.662   0.684   9.456
14428SOL    HW145123  14.640   0.695   9.549
14428SOL    HW245124  14.738   0.740   9.443
14429SOL     OW45125   2.591  10.688   1.409
14429SOL    HW145126   2.656  10.757   1.406
14429SOL    HW245127   2.636  10.611   1.375
14430SOL     OW45128   6.191  13.095   3.896
14430SOL    HW145129   6.191  13.185   3.928
14430SOL    HW245130   6.284  13.074   3.885
14431SOL     OW45131   7.391   7.902   3.728
14431SOL    HW145132   7.334   7.860   3.792
14431SOL    HW245133   7.330   7.948   3.670
14432SOL     OW45134   0.102   7.607   8.365
14432SOL    HW145135   0.166   7.557   8.415
14432SOL    HW245136   0.032   7.545   8.346
14433SOL     OW45137   4.273   1.352   9.708
14433SOL    HW145138   4.265   1.298   9.787
14433SOL    HW245139   4.237   1.437   9.734
14434SOL     OW45140  12.032   1.871   1.299
14434SOL    HW145141  12.023   1.785   1.340
14434SOL    HW245142  11.966   1.926   1.343
14435SOL     OW45143  14.156   3.678  11.412
14435SOL    HW145144  14.165   3.715  11.500
14435SOL    HW245145  14.238   3.631  11.397
14436SOL     OW45146   4.318  11.994   6.953
14436SOL    HW145147   4.274  11.984   7.037
14436SOL    HW245148   4.411  11.983   6.973
14437SOL     OW45149   2.880   1.509  14.724
14437SOL    HW145150   2.924   1.594  14.728
14437SOL    HW245151   2.941   1.452  14.678
14438SOL     OW45152  12.602  12.311  13.442
14438SOL    HW145153  12.580  12.261  13.363
14438SOL    HW245154  12.659  12.253  13.492
14439SOL     OW45155   7.210  14.311  12.979
14439SOL    HW145156   7.242  14.360  13.055
14439SOL    HW245157   7.130  14.268  13.011
14440SOL     OW45158   4.414   4.092  11.855
14440SOL    HW145159   4.360   4.162  11.819
14440SOL    HW245160   4.470   4.135  11.920
14441SOL     OW45161   9.071   6.790   7.326
14441SOL    HW145162   9.099   6.829   7.243
14441SOL    HW245163   8.981   6.822   7.337
14442SOL     OW45164  12.017   0.969   7.505
14442SOL    HW145165  12.000   1.061   7.485
14442SOL    HW245166  11.930   0.929   7.508
14443SOL     OW45167   0.760  13.301  12.041
14443SOL    HW145168   0.852  13.325  12.044
14443SOL    HW245169   0.760  13.206  12.057
14444SOL     OW45170  11.266  11.784  13.032
14444SOL    HW145171  11.250  11.867  12.987
14444SOL    HW245172  11.305  11.808  13.116
14445SOL     OW45173   0.376  12.684   6.886
14445SOL    HW145174   0.445  12.630   6.923
14445SOL    HW245175   0.312  12.622   6.852
14446SOL     OW45176   5.709   6.255  11.850
14446SOL    HW145177   5.692   6.348  11.865
14446SOL    HW245178   5.734   6.250  11.757
14447SOL     OW45179   9.388   5.529  13.188
14447SOL    HW145180   9.329   5.455  13.197
14447SOL    HW245181   9.343   5.588  13.127
14448SOL     OW45182   8.846   7.740   1.780
14448SOL    HW145183   8.918   7.771   1.835
14448SOL    HW245184   8.857   7.787   1.697
14449SOL     OW45185   1.172   3.219   1.424
14449SOL    HW145186   1.110   3.221   1.497
14449SOL    HW245187   1.252   3.256   1.459
14450SOL     OW45188   4.935   3.287   5.840
14450SOL    HW145189   4.893   3.202   5.854
14450SOL    HW245190   4.998   3.273   5.770
14451SOL     OW45191   4.975  14.123   7.560
14451SOL    HW145192   4.916  14.168   7.620
14451SOL    HW245193   5.047  14.092   7.615
14452SOL     OW45194   1.920   6.565   1.596
14452SOL    HW145195   1.990   6.533   1.653
14452SOL    HW245196   1.861   6.613   1.654
14453SOL     OW45197   8.663   0.748   5.876
14453SOL    HW145198   8.579   0.746   5.830
14453SOL    HW245199   8.728   0.736   5.808
14454SOL     OW45200   6.206   3.268  14.635
14454SOL    HW145201   6.177   3.319  14.559
14454SOL    HW245202   6.147   3.193  14.637
14455SOL     OW45203   6.016   8.148   9.371
14455SOL    HW145204   5.929   8.178   9.342
14455SOL    HW245205   6.039   8.206   9.443
14456SOL     OW45206  12.329   9.300  14.827
14456SOL    HW145207  12.361   9.329   0.031
14456SOL    HW245208  12.249   9.252  14.847
14457SOL     OW45209   3.366   4.800  10.177
14457SOL    HW145210   3.397   4.890  10.192
14457SOL    HW245211   3.346   4.798  10.083
14458SOL     OW45212   7.303  10.115  11.362
14458SOL    HW145213   7.330  10.027  11.336
14458SOL    HW245214   7.289  10.109  11.457
14459SOL     OW45215  10.166   5.462   1.940
14459SOL    HW145216  10.115   5.499   2.013
14459SOL    HW245217  10.140   5.370   1.938
14460SOL     OW45218   7.049   1.891   8.219
14460SOL    HW145219   7.103   1.967   8.197
14460SOL    HW245220   6.986   1.885   8.147
14461SOL     OW45221  13.122   0.124   3.005
14461SOL    HW145222  13.175   0.203   3.002
14461SOL    HW245223  13.032   0.156   3.019
14462SOL     OW45224   8.249   0.382  12.837
14462SOL    HW145225   8.304   0.449  12.876
14462SOL    HW245226   8.182   0.432  12.788
14463SOL     OW45227   6.877  10.730  10.887
14463SOL    HW145228   6.842  10.819  10.876
14463SOL    HW245229   6.853  10.685  10.805
14464SOL     OW45230   3.230  11.801   8.904
14464SOL    HW145231   3.305  11.740   8.902
14464SOL    HW245232   3.261  11.878   8.858
14465SOL     OW45233  10.779   9.278   7.860
14465SOL    HW145234  10.813   9.361   7.825
14465SOL    HW245235  10.688   9.276   7.831
14466SOL     OW45236  12.586   1.693   5.636
14466SOL    HW145237  12.536   1.618   5.668
14466SOL    HW245238  12.533   1.769   5.662
14467SOL     OW45239   2.453  10.219   3.208
14467SOL    HW145240   2.415  10.294   3.162
14467SOL    HW245241   2.423  10.229   3.299
14468SOL     OW45242  13.832   8.452   5.874
14468SOL    HW145243  13.762   8.396   5.908
14468SOL    HW245244  13.832   8.434   5.779
14469SOL     OW45245   5.629  10.077   4.701
14469SOL    HW145246   5.722  10.079   4.721
14469SOL    HW245247   5.586  10.096   4.785
14470SOL     OW45248  11.722   6.360   7.801
14470SOL    HW145249  11.630   6.347   7.825
14470SOL    HW245250  11.721   6.369   7.706
14471SOL     OW45251  10.482   0.871  13.174
14471SOL    HW145252  10.485   0.911  13.088
14471SOL    HW245253  10.530   0.788  13.164
14472SOL     OW45254   8.359   2.539   6.733
14472SOL    HW145255   8.378   2.631   6.753
14472SOL    HW245256   8.444   2.500   6.717
14473SOL     OW45257  10.529  12.377   7.298
14473SOL    HW145258  10.584  12.370   7.377
14473SOL    HW245259  10.474  12.453   7.314
14474SOL     OW45260   3.551   8.892   6.592
14474SOL    HW145261   3.594   8.871   6.509
14474SOL    HW245262   3.457   8.887   6.573
14475SOL     OW45263   3.184   7.536  14.210
14475SOL    HW145264   3.216   7.589  14.283
14475SOL    HW245265   3.198   7.445  14.239
14476SOL     OW45266   5.458   6.792  10.040
14476SOL    HW145267   5.446   6.839  10.122
14476SOL    HW245268   5.369   6.766  10.015
14477SOL     OW45269   7.790   5.436   5.740
14477SOL    HW145270   7.860   5.468   5.683
14477SOL    HW245271   7.730   5.510   5.748
14478SOL     OW45272   7.235  14.693  13.574
14478SOL    HW145273   7.311  14.715  13.519
14478SOL    HW245274   7.198  14.777  13.599
14479SOL     OW45275  10.159   5.840   0.294
14479SOL    HW145276  10.175   5.839   0.200
14479SOL    HW245277  10.066   5.863   0.302
14480SOL     OW45278  13.148  13.198  13.720
14480SOL    HW145279  13.190  13.115  13.742
14480SOL    HW245280  13.217  13.264  13.729
14481SOL     OW45281   3.647   4.796   1.218
14481SOL    HW145282   3.677   4.860   1.154
14481SOL    HW245283   3.671   4.711   1.181
14482SOL     OW45284  10.923  13.016   4.623
14482SOL    HW145285  10.934  13.019   4.718
14482SOL    HW245286  11.007  13.049   4.589
14483SOL     OW45287   5.460  14.227  14.546
14483SOL    HW145288   5.401  14.154  14.530
14483SOL    HW245289   5.407  14.291  14.594
14484SOL     OW45290   0.278  10.604   2.431
14484SOL    HW145291   0.289  10.661   2.355
14484SOL    HW245292   0.246  10.662   2.500
14485SOL     OW45293   0.814   3.696   7.061
14485SOL    HW145294   0.838   3.603   7.062
14485SOL    HW245295   0.802   3.718   7.153
14486SOL     OW45296  13.788  11.003  10.642
14486SOL    HW145297  13.847  10.996  10.567
14486SOL    HW245298  13.843  11.038  10.712
14487SOL     OW45299   1.564   6.884   8.625
14487SOL    HW145300   1.566   6.790   8.609
14487SOL    HW245301   1.631   6.898   8.692
14488SOL     OW45302   3.575  10.055   2.502
14488SOL    HW145303   3.598   9.972   2.545
14488SOL    HW245304   3.499  10.087   2.551
14489SOL     OW45305  11.289   9.357   3.740
14489SOL    HW145306  11.223   9.373   3.673
14489SOL    HW245307  11.367   9.331   3.691
14490SOL     OW45308  14.838  10.690   2.260
14490SOL    HW145309  14.879  10.777   2.253
14490SOL    HW245310   0.010  10.634   2.204
14491SOL     OW45311   5.591   3.924  11.483
14491SOL    HW145312   5.630   3.971  11.557
14491SOL    HW245313   5.663   3.873  11.447
14492SOL     OW45314   8.539   5.785   5.369
14492SOL    HW145315   8.556   5.765   5.276
14492SOL    HW245316   8.578   5.711   5.416
14493SOL     OW45317  13.883   0.057  14.014
14493SOL    HW145318  13.957   0.084  14.069
14493SOL    HW245319  13.878   0.124  13.946
14494SOL     OW45320  10.574   3.535   5.147
14494SOL    HW145321  10.568   3.453   5.195
14494SOL    HW245322  10.654   3.576   5.178
14495SOL     OW45323   8.226   2.534   0.506
14495SOL    HW145324   8.290   2.605   0.508
14495SOL    HW245325   8.279   2.455   0.515
14496SOL     OW45326   0.332   5.241  11.281
14496SOL    HW145327   0.316   5.264  11.373
14496SOL    HW245328   0.261   5.180  11.259
14497SOL     OW45329  14.780  10.561   8.052
14497SOL    HW145330  14.855  10.566   7.993
14497SOL    HW245331  14.807  10.500   8.120
14498SOL     OW45332   4.832   8.968  13.434
14498SOL    HW145333   4.809   8.885  13.392
14498SOL    HW245334   4.765   9.029  13.404
14499SOL     OW45335  11.726  12.284   0.042
14499SOL    HW145336  11.697  12.362   0.090
14499SOL    HW245337  11.677  12.212   0.081
14500SOL     OW45338   7.446  10.321   8.077
14500SOL    HW145339   7.460  10.375   8.154
14500SOL    HW245340   7.384  10.253   8.105
14501SOL     OW45341  14.629   4.622   7.321
14501SOL    HW145342  14.598   4.655   7.406
14501SOL    HW245343  14.610   4.693   7.260
14502SOL     OW45344   9.715   1.626   7.322
14502SOL    HW145345   9.716   1.533   7.303
14502SOL    HW245346   9.650   1.635   7.392
14503SOL     OW45347   6.000  14.426   9.264
14503SOL    HW145348   6.038  14.381   9.339
14503SOL    HW245349   6.055  14.400   9.190
14504SOL     OW45350   8.119   4.234   3.840
14504SOL    HW145351   8.061   4.277   3.903
14504SOL    HW245352   8.127   4.297   3.768
14505SOL     OW45353  11.495   2.743  11.634
14505SOL    HW145354  11.536   2.669  11.679
14505SOL    HW245355  11.422   2.704  11.586
14506SOL     OW45356   6.608  11.758   0.370
14506SOL    HW145357   6.571  11.733   0.285
14506SOL    HW245358   6.531  11.766   0.428
14507SOL     OW45359   1.912   2.620  13.225
14507SOL    HW145360   1.927   2.529  13.200
14507SOL    HW245361   1.988   2.667  13.191
14508SOL     OW45362   6.514   9.907   1.159
14508SOL    HW145363   6.422   9.931   1.170
14508SOL    HW245364   6.514   9.844   1.087
14509SOL     OW45365   1.098   1.671  13.508
14509SOL    HW145366   1.144   1.587  13.507
14509SOL    HW245367   1.029   1.662  13.442
14510SOL     OW45368   7.085   2.186   0.498
14510SOL    HW145369   7.168   2.200   0.454
14510SOL    HW245370   7.019   2.212   0.434
14511SOL     OW45371  10.283   6.421   6.594
14511SOL    HW145372  10.311   6.371   6.671
14511SOL    HW245373  10.363   6.460   6.561
14512SOL     OW45374  14.762   3.408   5.655
14512SOL    HW145375  14.852   3.397   5.686
14512SOL    HW245376  14.770   3.466   5.579
14513SOL     OW45377  12.004  12.111   3.301
14513SOL    HW145378  12.090  12.143   3.273
14513SOL    HW245379  12.021  12.024   3.336
14514SOL     OW45380  11.888  14.012   6.503
14514SOL    HW145381  11.810  14.021   6.447
14514SOL    HW245382  11.863  13.946   6.567
14515SOL     OW45383  10.754   8.866   8.073
14515SOL    HW145384  10.671   8.846   8.030
14515SOL    HW245385  10.764   8.961   8.063
14516SOL     OW45386   8.249   9.832   4.650
14516SOL    HW145387   8.255   9.768   4.579
14516SOL    HW245388   8.333   9.878   4.647
14517SOL     OW45389   4.315  11.988   1.668
14517SOL    HW145390   4.226  11.975   1.701
14517SOL    HW245391   4.350  12.059   1.722
14518SOL     OW45392   8.623  11.428   9.105
14518SOL    HW145393   8.712  11.453   9.129
14518SOL    HW245394   8.587  11.506   9.062
14519SOL     OW45395   3.068   8.513   9.888
14519SOL    HW145396   2.973   8.505   9.899
14519SOL    HW245397   3.103   8.429   9.920
14520SOL     OW45398   0.804  13.981  12.890
14520SOL    HW145399   0.764  13.936  12.815
14520SOL    HW245400   0.763  13.942  12.967
14521SOL     OW45401   8.674   0.282   4.901
14521SOL    HW145402   8.712   0.205   4.943
14521SOL    HW245403   8.613   0.248   4.836
14522SOL     OW45404   6.724   7.251   0.435
14522SOL    HW145405   6.667   7.322   0.463
14522SOL    HW245406   6.750   7.207   0.516
14523SOL     OW45407  14.668   0.378  11.184
14523SOL    HW145408  14.634   0.380  11.094
14523SOL    HW245409  14.755   0.418  11.177
14524SOL     OW45410   1.644   2.732   6.273
14524SOL    HW145411   1.732   2.762   6.293
14524SOL    HW245412   1.656   2.670   6.200
14525SOL     OW45413   6.717   0.028   2.120
14525SOL    HW145414   6.656   0.087   2.074
14525SOL    HW245415   6.764   0.085   2.180
14526SOL     OW45416  10.406   1.320  11.388
14526SOL    HW145417  10.478   1.375  11.358
14526SOL    HW245418  10.381   1.357  11.472
14527SOL     OW45419   5.240   6.477   7.676
14527SOL    HW145420   5.334   6.490   7.684
14527SOL    HW245421   5.229   6.430   7.593
14528SOL     OW45422  12.128   4.569  12.668
14528SOL    HW145423  12.100   4.535  12.583
14528SOL    HW245424  12.186   4.501  12.703
14529SOL     OW45425  10.404   7.438   6.191
14529SOL    HW145426  10.496   7.413   6.191
14529SOL    HW245427  10.359   7.363   6.152
14530SOL     OW45428  11.990  10.466   1.375
14530SOL    HW145429  11.990  10.374   1.400
14530SOL    HW245430  12.020  10.466   1.284
14531SOL     OW45431   6.105  11.666   0.954
14531SOL    HW145432   6.055  11.715   0.889
14531SOL    HW245433   6.053  11.587   0.969
14532SOL     OW45434   0.806  10.491   8.174
14532SOL    HW145435   0.817  10.548   8.098
14532SOL    HW245436   0.729  10.439   8.154
14533SOL     OW45437   7.541   0.277  14.124
14533SOL    HW145438   7.595   0.216  14.073
14533SOL    HW245439   7.477   0.220  14.167
14534SOL     OW45440   2.640  13.723   7.861
14534SOL    HW145441   2.684  13.676   7.931
14534SOL    HW245442   2.639  13.815   7.889
14535SOL     OW45443  11.094  13.749   3.379
14535SOL    HW145444  11.188  13.732   3.386
14535SOL    HW245445  11.053  13.667   3.403
14536SOL     OW45446   9.668   6.279   9.309
14536SOL    HW145447   9.645   6.328   9.230
14536SOL    HW245448   9.703   6.345   9.369
14537SOL     OW45449   8.945   6.829  10.592
14537SOL    HW145450   9.006   6.792  10.528
14537SOL    HW245451   9.002   6.860  10.663
14538SOL     OW45452   6.729  13.256  11.316
14538SOL    HW145453   6.730  13.269  11.411
14538SOL    HW245454   6.646  13.212  11.300
14539SOL     OW45455   4.446   4.881   3.868
14539SOL    HW145456   4.534   4.919   3.864
14539SOL    HW245457   4.405   4.922   3.944
14540SOL     OW45458  11.352   4.085   5.627
14540SOL    HW145459  11.435   4.098   5.580
14540SOL    HW245460  11.330   4.172   5.660
14541SOL     OW45461  13.732   6.302  11.107
14541SOL    HW145462  13.795   6.290  11.177
14541SOL    HW245463  13.754   6.387  11.068
14542SOL     OW45464   9.501   6.843   8.411
14542SOL    HW145465   9.422   6.896   8.404
14542SOL    HW245466   9.518   6.837   8.505
14543SOL     OW45467   2.170  10.911  10.553
14543SOL    HW145468   2.261  10.939  10.553
14543SOL    HW245469   2.124  10.978  10.503
14544SOL     OW45470  11.804   8.731  12.189
14544SOL    HW145471  11.775   8.797  12.125
14544SOL    HW245472  11.799   8.776  12.273
14545SOL     OW45473  12.815  12.527  11.105
14545SOL    HW145474  12.837  12.515  11.197
14545SOL    HW245475  12.789  12.440  11.075
14546SOL     OW45476  11.736   1.885   3.741
14546SOL    HW145477  11.826   1.889   3.773
14546SOL    HW245478  11.699   1.970   3.763
14547SOL     OW45479  10.884   6.941   0.358
14547SOL    HW145480  10.817   6.924   0.291
14547SOL    HW245481  10.927   6.857   0.371
14548SOL     OW45482   3.850  10.753  10.933
14548SOL    HW145483   3.766  10.754  10.979
14548SOL    HW245484   3.850  10.672  10.883
14549SOL     OW45485  13.101  10.729  10.142
14549SOL    HW145486  13.100  10.802  10.204
14549SOL    HW245487  13.055  10.762  10.065
14550SOL     OW45488   9.657   1.821  11.117
14550SOL    HW145489   9.751   1.838  11.114
14550SOL    HW245490   9.618   1.904  11.144
14551SOL     OW45491   0.057  11.014   4.158
14551SOL    HW145492   0.078  10.923   4.178
14551SOL    HW245493   0.103  11.064   4.225
14552SOL     OW45494   5.443   9.002   7.670
14552SOL    HW145495   5.473   9.070   7.731
14552SOL    HW245496   5.476   9.029   7.585
14553SOL     OW45497   7.642  12.805   5.492
14553SOL    HW145498   7.673  12.871   5.554
14553SOL    HW245499   7.662  12.722   5.533
14554SOL     OW45500   4.491  13.447   6.074
14554SOL    HW145501   4.567  13.460   6.016
14554SOL    HW245502   4.529  13.434   6.161
14555SOL     OW45503   2.064   3.858   4.940
14555SOL    HW145504   1.970   3.869   4.953
14555SOL    HW245505   2.073   3.828   4.850
14556SOL     OW45506  13.303   6.920   6.859
14556SOL    HW145507  13.289   6.826   6.851
14556SOL    HW245508  13.309   6.936   6.953
14557SOL     OW45509   8.851   7.240  13.356
14557SOL    HW145510   8.867   7.211  13.446
14557SOL    HW245511   8.925   7.204  13.306
14558SOL     OW45512   0.545   0.411   3.295
14558SOL    HW145513   0.585   0.414   3.382
14558SOL    HW245514   0.495   0.492   3.289
14559SOL     OW45515   8.743   3.433   3.798
14559SOL    HW145516   8.755   3.374   3.723
14559SOL    HW245517   8.783   3.386   3.872
14560SOL     OW45518  14.548   5.641   7.156
14560SOL    HW145519  14.575   5.633   7.248
14560SOL    HW245520  14.626   5.673   7.112
14561SOL     OW45521   7.055  12.357  13.992
14561SOL    HW145522   6.983  12.382  14.049
14561SOL    HW245523   7.038  12.403  13.909
14562SOL     OW45524  14.339  11.115   7.305
14562SOL    HW145525  14.431  11.140   7.307
14562SOL    HW245526  14.297  11.183   7.253
14563SOL     OW45527   8.208   9.547   9.169
14563SOL    HW145528   8.180   9.607   9.100
14563SOL    HW245529   8.272   9.490   9.127
14564SOL     OW45530  13.284   4.324   3.907
14564SOL    HW145531  13.340   4.402   3.905
14564SOL    HW245532  13.262   4.309   3.815
14565SOL     OW45533   6.935   9.232  10.618
14565SOL    HW145534   6.843   9.223  10.592
14565SOL    HW245535   6.961   9.318  10.585
14566SOL     OW45536   4.294   7.864   0.475
14566SOL    HW145537   4.379   7.888   0.512
14566SOL    HW245538   4.262   7.945   0.434
14567SOL     OW45539   1.930  10.675   5.681
14567SOL    HW145540   2.009  10.623   5.668
14567SOL    HW245541   1.917  10.675   5.776
14568SOL     OW45542   8.737   4.116   1.352
14568SOL    HW145543   8.685   4.101   1.431
14568SOL    HW245544   8.723   4.208   1.331
14569SOL     OW45545   3.334   8.605  11.131
14569SOL    HW145546   3.303   8.607  11.041
14569SOL    HW245547   3.310   8.518  11.163
14570SOL     OW45548   4.237   8.570   6.989
14570SOL    HW145549   4.296   8.496   6.974
14570SOL    HW245550   4.156   8.528   7.019
14571SOL     OW45551   8.970   8.209  13.517
14571SOL    HW145552   8.939   8.299  13.522
14571SOL    HW245553   8.910   8.160  13.573
14572SOL     OW45554  10.841  10.259  12.464
14572SOL    HW145555  10.749  10.253  12.487
14572SOL    HW245556  10.848  10.340  12.413
14573SOL     OW45557  11.874   6.046   6.365
14573SOL    HW145558  11.853   6.038   6.458
14573SOL    HW245559  11.879   5.955   6.333
14574SOL     OW45560   0.221   0.771   8.010
14574SOL    HW145561   0.246   0.679   8.014
14574SOL    HW245562   0.182   0.782   7.924
14575SOL     OW45563   0.785   9.596   0.469
14575SOL    HW145564   0.825   9.553   0.394
14575SOL    HW245565   0.841   9.673   0.485
14576SOL     OW45566   0.047   9.781  13.514
14576SOL    HW145567  14.877   9.772  13.434
14576SOL    HW245568   0.071   9.874  13.516
14577SOL     OW45569   2.079  13.114   6.868
14577SOL    HW145570   2.080  13.024   6.902
14577SOL    HW245571   1.987  13.136   6.862
14578SOL     OW45572   4.035   5.965   3.389
14578SOL    HW145573   3.995   6.046   3.421
14578SOL    HW245574   3.961   5.909   3.365
14579SOL     OW45575   0.142  11.683  13.759
14579SOL    HW145576   0.218  11.728  13.796
14579SOL    HW245577   0.174  11.643  13.678
14580SOL     OW45578   2.351   7.157  14.238
14580SOL    HW145579   2.441   7.151  14.205
14580SOL    HW245580   2.361   7.165  14.332
14581SOL     OW45581  14.787   3.547  11.309
14581SOL    HW145582  14.845   3.496  11.365
14581SOL    HW245583  14.738   3.482  11.260
14582SOL     OW45584   6.534   4.621   0.903
14582SOL    HW145585   6.536   4.696   0.843
14582SOL    HW245586   6.549   4.545   0.848
14583SOL     OW45587  11.139   6.491  11.027
14583SOL    HW145588  11.205   6.468  10.961
14583SOL    HW245589  11.190   6.523  11.102
14584SOL     OW45590   9.277   6.968   0.353
14584SOL    HW145591   9.341   6.937   0.418
14584SOL    HW245592   9.330   6.984   0.274
14585SOL     OW45593   4.838   8.953   9.526
14585SOL    HW145594   4.882   9.023   9.478
14585SOL    HW245595   4.785   8.908   9.460
14586SOL     OW45596  14.150   1.930   2.925
14586SOL    HW145597  14.068   1.915   2.877
14586SOL    HW245598  14.137   1.885   3.009
14587SOL     OW45599   7.920   2.700  12.521
14587SOL    HW145600   7.890   2.660  12.439
14587SOL    HW245601   8.005   2.659  12.538
14588SOL     OW45602   8.509   3.867   4.328
14588SOL    HW145603   8.502   3.773   4.315
14588SOL    HW245604   8.437   3.904   4.277
14589SOL     OW45605   4.684  11.021   7.121
14589SOL    HW145606   4.626  10.957   7.080
14589SOL    HW245607   4.628  11.067   7.183
14590SOL     OW45608   4.289  13.293   2.069
14590SOL    HW145609   4.290  13.198   2.079
14590SOL    HW245610   4.382  13.317   2.070
14591SOL     OW45611   7.930  13.346  13.551
14591SOL    HW145612   7.996  13.278  13.540
14591SOL    HW245613   7.974  13.427  13.528
14592SOL     OW45614   4.009   4.494  14.112
14592SOL    HW145615   4.101   4.517  14.119
14592SOL    HW245616   3.971   4.562  14.056
14593SOL     OW45617   2.796  10.056   8.595
14593SOL    HW145618   2.836  10.020   8.516
14593SOL    HW245619   2.782  10.149   8.575
14594SOL     OW45620  11.767   2.098   2.381
14594SOL    HW145621  11.809   2.148   2.311
14594SOL    HW245622  11.824   2.110   2.457
14595SOL     OW45623  13.370  12.613  11.615
14595SOL    HW145624  13.438  12.581  11.676
14595SOL    HW245625  13.398  12.581  11.530
14596SOL     OW45626   6.457  11.618   6.266
14596SOL    HW145627   6.402  11.566   6.208
14596SOL    HW245628   6.544  11.581   6.257
14597SOL     OW45629   2.224   5.642   3.446
14597SOL    HW145630   2.197   5.567   3.500
14597SOL    HW245631   2.187   5.718   3.491
14598SOL     OW45632   7.316   6.951  11.914
14598SOL    HW145633   7.320   6.876  11.854
14598SOL    HW245634   7.228   6.946  11.952
14599SOL     OW45635   0.277   1.331   8.339
14599SOL    HW145636   0.198   1.378   8.367
14599SOL    HW245637   0.348   1.375   8.386
14600SOL     OW45638  13.484   4.591   2.713
14600SOL    HW145639  13.412   4.580   2.651
14600SOL    HW245640  13.483   4.511   2.766
14601SOL     OW45641   9.057   1.596  10.718
14601SOL    HW145642   8.967   1.593  10.685
14601SOL    HW245643   9.097   1.516  10.686
14602SOL     OW45644  10.459   1.337  11.001
14602SOL    HW145645  10.416   1.289  10.930
14602SOL    HW245646  10.539   1.371  10.962
14603SOL     OW45647   9.577   1.305   2.769
14603SOL    HW145648   9.642   1.240   2.741
14603SOL    HW245649   9.622   1.389   2.761
14604SOL     OW45650  10.396   8.633   3.192
14604SOL    HW145651  10.395   8.726   3.172
14604SOL    HW245652  10.473   8.599   3.146
14605SOL     OW45653   2.746   7.367   4.933
14605SOL    HW145654   2.717   7.458   4.936
14605SOL    HW245655   2.796   7.360   4.852
14606SOL     OW45656   3.669  11.330   2.048
14606SOL    HW145657   3.756  11.326   2.009
14606SOL    HW245658   3.667  11.415   2.092
14607SOL     OW45659   5.815   1.364   1.131
14607SOL    HW145660   5.857   1.278   1.129
14607SOL    HW245661   5.754   1.363   1.057
14608SOL     OW45662  14.636   2.451  13.537
14608SOL    HW145663  14.615   2.509  13.464
14608SOL    HW245664  14.607   2.499  13.614
14609SOL     OW45665  14.239   7.404   4.473
14609SOL    HW145666  14.154   7.360   4.478
14609SOL    HW245667  14.284   7.362   4.400
14610SOL     OW45668  13.411   7.085  14.576
14610SOL    HW145669  13.457   7.133  14.646
14610SOL    HW245670  13.388   7.153  14.512
14611SOL     OW45671  13.368  10.635  10.187
14611SOL    HW145672  13.400  10.687  10.113
14611SOL    HW245673  13.273  10.646  10.184
14612SOL     OW45674   0.510  14.382   6.652
14612SOL    HW145675   0.472  14.328   6.721
14612SOL    HW245676   0.602  14.355   6.649
14613SOL     OW45677   5.079   2.654   5.080
14613SOL    HW145678   5.014   2.601   5.126
14613SOL    HW245679   5.063   2.744   5.110
14614SOL     OW45680   3.806   8.624   7.683
14614SOL    HW145681   3.897   8.656   7.685
14614SOL    HW245682   3.805   8.550   7.743
14615SOL     OW45683   9.648  11.766  14.037
14615SOL    HW145684   9.583  11.810  14.093
14615SOL    HW245685   9.719  11.743  14.097
14616SOL     OW45686   7.846   3.634   3.394
14616SOL    HW145687   7.772   3.683   3.359
14616SOL    HW245688   7.844   3.551   3.348
14617SOL     OW45689  13.838  11.502  12.038
14617SOL    HW145690  13.874  11.482  12.125
14617SOL    HW245691  13.901  11.465  11.977
14618SOL     OW45692   7.145   4.706   0.802
14618SOL    HW145693   7.078   4.760   0.844
14618SOL    HW245694   7.101   4.624   0.783
14619SOL     OW45695   6.510   2.716   8.069
14619SOL    HW145696   6.488   2.809   8.081
14619SOL    HW245697   6.440   2.682   8.014
14620SOL     OW45698   4.417   6.271  10.543
14620SOL    HW145699   4.338   6.306  10.501
14620SOL    HW245700   4.384   6.219  10.616
14621SOL     OW45701   1.324   0.888   8.025
14621SOL    HW145702   1.408   0.891   7.978
14621SOL    HW245703   1.299   0.796   8.023
14622SOL     OW45704   4.023   9.777   6.689
14622SOL    HW145705   4.046   9.699   6.639
14622SOL    HW245706   4.107   9.812   6.717
14623SOL     OW45707  10.879  12.882   4.043
14623SOL    HW145708  10.862  12.801   4.092
14623SOL    HW245709  10.960  12.915   4.080
14624SOL     OW45710   1.767  11.930   1.934
14624SOL    HW145711   1.672  11.944   1.933
14624SOL    HW245712   1.790  11.924   2.027
14625SOL     OW45713  11.774   8.587  14.859
14625SOL    HW145714  11.840   8.582  14.790
14625SOL    HW245715  11.759   8.496   0.002
14626SOL     OW45716   3.288  12.372   1.550
14626SOL    HW145717   3.241  12.296   1.582
14626SOL    HW245718   3.229  12.412   1.486
14627SOL     OW45719   7.007   3.085  13.131
14627SOL    HW145720   7.016   3.112  13.040
14627SOL    HW245721   6.920   3.113  13.156
14628SOL     OW45722   7.925   2.295  11.405
14628SOL    HW145723   7.949   2.298  11.312
14628SOL    HW245724   7.959   2.377  11.441
14629SOL     OW45725   3.011   2.260   7.448
14629SOL    HW145726   2.928   2.211   7.448
14629SOL    HW245727   3.072   2.203   7.403
14630SOL     OW45728  13.352  11.918  12.145
14630SOL    HW145729  13.423  11.884  12.091
14630SOL    HW245730  13.273  11.900  12.094
14631SOL     OW45731   0.608   3.193   5.280
14631SOL    HW145732   0.644   3.163   5.197
14631SOL    HW245733   0.681   3.239   5.322
14632SOL     OW45734   7.110  12.459   9.418
14632SOL    HW145735   7.076  12.383   9.370
14632SOL    HW245736   7.200  12.467   9.390
14633SOL     OW45737  14.135  13.725  12.280
14633SOL    HW145738  14.181  13.758  12.202
14633SOL    HW245739  14.110  13.636  12.257
14634SOL     OW45740  14.533  12.696  10.729
14634SOL    HW145741  14.501  12.611  10.759
14634SOL    HW245742  14.582  12.730  10.804
14635SOL     OW45743   6.914   9.924   1.350
14635SOL    HW145744   6.889   9.991   1.286
14635SOL    HW245745   6.938   9.848   1.297
14636SOL     OW45746   3.083   2.177   8.092
14636SOL    HW145747   3.066   2.202   8.001
14636SOL    HW245748   3.014   2.222   8.142
14637SOL     OW45749   4.207   2.789   3.200
14637SOL    HW145750   4.221   2.883   3.203
14637SOL    HW245751   4.112   2.780   3.190
14638SOL     OW45752   4.640   3.221  14.332
14638SOL    HW145753   4.723   3.259  14.304
14638SOL    HW245754   4.575   3.290  14.318
14639SOL     OW45755   2.175   1.103  12.391
14639SOL    HW145756   2.125   1.099  12.473
14639SOL    HW245757   2.225   1.185  12.398
14640SOL     OW45758  12.716   2.308   8.874
14640SOL    HW145759  12.767   2.329   8.952
14640SOL    HW245760  12.689   2.393   8.839
14641SOL     OW45761   6.702  10.990   7.478
14641SOL    HW145762   6.723  10.969   7.387
14641SOL    HW245763   6.747  10.922   7.529
14642SOL     OW45764   0.812  14.540  10.129
14642SOL    HW145765   0.768  14.460  10.101
14642SOL    HW245766   0.743  14.607  10.129
14643SOL     OW45767  12.540   0.037  12.309
14643SOL    HW145768  12.567   0.030  12.400
14643SOL    HW245769  12.474   0.106  12.308
14644SOL     OW45770   5.659   1.782  10.090
14644SOL    HW145771   5.746   1.810  10.116
14644SOL    HW245772   5.636   1.713  10.153
14645SOL     OW45773   1.000   4.217   9.601
14645SOL    HW145774   0.952   4.277   9.544
14645SOL    HW245775   0.931   4.171   9.650
14646SOL     OW45776  11.880   8.569   8.133
14646SOL    HW145777  11.961   8.523   8.156
14646SOL    HW245778  11.890   8.592   8.041
14647SOL     OW45779  10.619  13.461   6.251
14647SOL    HW145780  10.619  13.490   6.160
14647SOL    HW245781  10.698  13.500   6.289
14648SOL     OW45782  12.999   3.866   0.537
14648SOL    HW145783  13.079   3.843   0.584
14648SOL    HW245784  13.024   3.942   0.484
14649SOL     OW45785   5.568   7.018   5.872
14649SOL    HW145786   5.583   6.923   5.866
14649SOL    HW245787   5.640   7.050   5.926
14650SOL     OW45788  13.954  11.435   5.977
14650SOL    HW145789  14.001  11.516   5.958
14650SOL    HW245790  13.963  11.383   5.898
14651SOL     OW45791  11.015   7.053   2.919
14651SOL    HW145792  11.000   7.108   2.842
14651SOL    HW245793  10.940   7.071   2.976
14652SOL     OW45794   5.166   8.006   9.726
14652SOL    HW145795   5.075   8.034   9.724
14652SOL    HW245796   5.163   7.912   9.711
14653SOL     OW45797   8.404   2.333   0.630
14653SOL    HW145798   8.451   2.250   0.638
14653SOL    HW245799   8.428   2.382   0.709
14654SOL     OW45800   4.029  13.276   3.321
14654SOL    HW145801   3.944  13.306   3.354
14654SOL    HW245802   4.093  13.313   3.383
14655SOL     OW45803   0.979   0.165  12.600
14655SOL    HW145804   0.928   0.094  12.562
14655SOL    HW245805   0.933   0.245  12.572
14656SOL     OW45806  14.399  12.922  11.593
14656SOL    HW145807  14.408  12.827  11.580
14656SOL    HW245808  14.305  12.939  11.585
14657SOL     OW45809  11.088   6.919   7.680
14657SOL    HW145810  11.028   6.885   7.613
14657SOL    HW245811  11.066   7.011   7.687
14658SOL     OW45812  10.577   2.591   0.327
14658SOL    HW145813  10.554   2.620   0.415
14658SOL    HW245814  10.505   2.532   0.302
14659SOL     OW45815  12.068  13.727  12.614
14659SOL    HW145816  12.141  13.665  12.620
14659SOL    HW245817  12.054  13.756  12.704
14660SOL     OW45818   2.536   2.801  12.890
14660SOL    HW145819   2.515   2.709  12.876
14660SOL    HW245820   2.497   2.846  12.815
14661SOL     OW45821   9.077   4.636  12.929
14661SOL    HW145822   9.078   4.549  12.968
14661SOL    HW245823   9.048   4.622  12.839
14662SOL     OW45824   3.833  12.306   1.119
14662SOL    HW145825   3.788  12.390   1.134
14662SOL    HW245826   3.921  12.321   1.152
14663SOL     OW45827   3.417  10.048   9.865
14663SOL    HW145828   3.423   9.963   9.821
14663SOL    HW245829   3.390  10.109   9.796
14664SOL     OW45830   8.602  13.842  14.618
14664SOL    HW145831   8.677  13.874  14.568
14664SOL    HW245832   8.588  13.909  14.685
14665SOL     OW45833   6.615   8.687   6.277
14665SOL    HW145834   6.521   8.673   6.286
14665SOL    HW245835   6.654   8.617   6.329
14666SOL     OW45836   5.370   9.013   9.951
14666SOL    HW145837   5.349   9.095   9.995
14666SOL    HW245838   5.286   8.969   9.942
14667SOL     OW45839   5.662   2.002   7.731
14667SOL    HW145840   5.605   2.023   7.657
14667SOL    HW245841   5.741   1.965   7.692
14668SOL     OW45842   5.713  11.402  11.083
14668SOL    HW145843   5.805  11.409  11.054
14668SOL    HW245844   5.662  11.427  11.006
14669SOL     OW45845  11.023   1.585  12.381
14669SOL    HW145846  11.028   1.667  12.430
14669SOL    HW245847  10.935   1.584  12.343
14670SOL     OW45848  12.717   6.257   6.977
14670SOL    HW145849  12.787   6.315   7.006
14670SOL    HW245850  12.664   6.310   6.917
14671SOL     OW45851   4.157   4.909   2.735
14671SOL    HW145852   4.120   4.996   2.751
14671SOL    HW245853   4.251   4.922   2.733
14672SOL     OW45854   6.986   8.261   6.263
14672SOL    HW145855   6.931   8.291   6.191
14672SOL    HW245856   7.071   8.301   6.247
14673SOL     OW45857  11.408   1.529   9.051
14673SOL    HW145858  11.335   1.484   9.094
14673SOL    HW245859  11.371   1.559   8.968
14674SOL     OW45860   9.938   9.434   7.377
14674SOL    HW145861   9.986   9.406   7.299
14674SOL    HW245862   9.850   9.453   7.346
14675SOL     OW45863   1.649  13.641   8.369
14675SOL    HW145864   1.642  13.722   8.320
14675SOL    HW245865   1.709  13.587   8.318
14676SOL     OW45866   3.603  13.727   4.867
14676SOL    HW145867   3.685  13.729   4.818
14676SOL    HW245868   3.539  13.693   4.805
14677SOL     OW45869   1.800   9.143  14.192
14677SOL    HW145870   1.710   9.109  14.195
14677SOL    HW245871   1.822   9.159  14.284
14678SOL     OW45872  11.805   0.449  11.818
14678SOL    HW145873  11.799   0.396  11.898
14678SOL    HW245874  11.745   0.522  11.832
14679SOL     OW45875   5.988  14.597  11.589
14679SOL    HW145876   5.948  14.666  11.537
14679SOL    HW245877   6.045  14.643  11.651
14680SOL     OW45878   2.389  11.931   9.229
14680SOL    HW145879   2.354  11.842   9.223
14680SOL    HW245880   2.468  11.922   9.282
14681SOL     OW45881   3.027   0.964   1.853
14681SOL    HW145882   3.019   1.059   1.849
14681SOL    HW245883   2.972   0.938   1.927
14682SOL     OW45884   2.317   9.651  13.668
14682SOL    HW145885   2.323   9.734  13.715
14682SOL    HW245886   2.277   9.673  13.584
14683SOL     OW45887  11.311  14.493   6.255
14683SOL    HW145888  11.289  14.585   6.273
14683SOL    HW245889  11.290  14.482   6.162
14684SOL     OW45890   1.279   4.232  11.404
14684SOL    HW145891   1.320   4.274  11.328
14684SOL    HW245892   1.298   4.139  11.393
14685SOL     OW45893   7.313   1.963  11.781
14685SOL    HW145894   7.354   2.045  11.809
14685SOL    HW245895   7.383   1.914  11.738
14686SOL     OW45896   6.295  14.197  13.530
14686SOL    HW145897   6.283  14.203  13.436
14686SOL    HW245898   6.237  14.264  13.566
14687SOL     OW45899   3.019   1.480  10.816
14687SOL    HW145900   2.981   1.563  10.843
14687SOL    HW245901   2.994   1.418  10.884
14688SOL     OW45902   6.348   5.944  12.763
14688SOL    HW145903   6.318   6.028  12.798
14688SOL    HW245904   6.442   5.956  12.751
14689SOL     OW45905   7.663   3.397   8.720
14689SOL    HW145906   7.650   3.460   8.648
14689SOL    HW245907   7.729   3.336   8.687
14690SOL     OW45908   1.750   5.512   3.464
14690SOL    HW145909   1.730   5.567   3.388
14690SOL    HW245910   1.842   5.489   3.453
14691SOL     OW45911  12.013   0.280   7.177
14691SOL    HW145912  11.981   0.208   7.232
14691SOL    HW245913  12.096   0.248   7.141
14692SOL     OW45914   3.480  12.683  10.651
14692SOL    HW145915   3.565  12.672  10.692
14692SOL    HW245916   3.450  12.593  10.634
14693SOL     OW45917   5.872  14.390   3.956
14693SOL    HW145918   5.788  14.394   4.003
14693SOL    HW245919   5.900  14.481   3.952
14694SOL     OW45920  12.733   9.379  12.067
14694SOL    HW145921  12.728   9.471  12.092
14694SOL    HW245922  12.727   9.330  12.149
14695SOL     OW45923  11.415   8.302  12.958
14695SOL    HW145924  11.433   8.287  13.051
14695SOL    HW245925  11.494   8.345  12.925
14696SOL     OW45926   5.645  12.861   2.864
14696SOL    HW145927   5.625  12.922   2.793
14696SOL    HW245928   5.740  12.865   2.873
14697SOL     OW45929   9.323   3.371   5.340
14697SOL    HW145930   9.238   3.363   5.383
14697SOL    HW245931   9.369   3.439   5.389
14698SOL     OW45932  14.329  11.581   6.679
14698SOL    HW145933  14.249  11.609   6.635
14698SOL    HW245934  14.375  11.528   6.613
14699SOL     OW45935   1.327  12.589   0.224
14699SOL    HW145936   1.284  12.541   0.154
14699SOL    HW245937   1.416  12.603   0.193
14700SOL     OW45938   9.834   0.199  12.964
14700SOL    HW145939   9.774   0.232  12.897
14700SOL    HW245940   9.794   0.118  12.995
14701SOL     OW45941   0.067  11.977  10.665
14701SOL    HW145942   0.033  11.988  10.754
14701SOL    HW245943   0.072  12.066  10.630
14702SOL     OW45944   9.448   2.976   9.664
14702SOL    HW145945   9.435   2.883   9.646
14702SOL    HW245946   9.474   3.013   9.579
14703SOL     OW45947   3.349  12.698   1.399
14703SOL    HW145948   3.354  12.786   1.362
14703SOL    HW245949   3.362  12.640   1.324
14704SOL     OW45950   6.398  13.816  11.902
14704SOL    HW145951   6.397  13.801  11.808
14704SOL    HW245952   6.468  13.758  11.934
14705SOL     OW45953   1.200   3.945   5.094
14705SOL    HW145954   1.218   3.853   5.075
14705SOL    HW245955   1.285   3.988   5.085
14706SOL     OW45956   6.862   6.469  12.940
14706SOL    HW145957   6.840   6.384  12.979
14706SOL    HW245958   6.861   6.453  12.846
14707SOL     OW45959   7.799   3.388  11.417
14707SOL    HW145960   7.773   3.297  11.424
14707SOL    HW245961   7.740   3.435  11.476
14708SOL     OW45962   1.590   1.007   1.332
14708SOL    HW145963   1.647   0.973   1.402
14708SOL    HW245964   1.601   1.102   1.337
14709SOL     OW45965   3.313  12.878   4.800
14709SOL    HW145966   3.290  12.789   4.771
14709SOL    HW245967   3.250  12.934   4.755
14710SOL     OW45968   9.262   9.490   8.402
14710SOL    HW145969   9.247   9.414   8.458
14710SOL    HW245970   9.252   9.565   8.460
14711SOL     OW45971   7.695  12.376  14.506
14711SOL    HW145972   7.705  12.391  14.412
14711SOL    HW245973   7.615  12.325  14.514
14712SOL     OW45974   2.904   0.055   4.920
14712SOL    HW145975   2.930  14.852   4.884
14712SOL    HW245976   2.809   0.048   4.929
14713SOL     OW45977   2.065   6.112  12.577
14713SOL    HW145978   2.041   6.028  12.536
14713SOL    HW245979   2.161   6.114  12.572
14714SOL     OW45980   2.296  14.775   6.617
14714SOL    HW145981   2.334  14.689   6.636
14714SOL    HW245982   2.341  14.834   6.678
14715SOL     OW45983  13.155   4.460   2.726
14715SOL    HW145984  13.140   4.420   2.812
14715SOL    HW245985  13.182   4.550   2.745
14716SOL     OW45986   5.858   2.789   9.247
14716SOL    HW145987   5.818   2.713   9.205
14716SOL    HW245988   5.787   2.830   9.297
14717SOL     OW45989   8.912  14.340  10.200
14717SOL    HW145990   8.873  14.375  10.120
14717SOL    HW245991   9.004  14.366  10.197
14718SOL     OW45992   4.026  14.816   4.331
14718SOL    HW145993   3.945  14.766   4.334
14718SOL    HW245994   4.043  14.839   4.423
14719SOL     OW45995   1.887   7.808   2.325
14719SOL    HW145996   1.930   7.848   2.250
14719SOL    HW245997   1.931   7.724   2.337
14720SOL     OW45998   9.229  10.939   6.592
14720SOL    HW145999   9.265  10.976   6.512
14720SOL    HW246000   9.137  10.922   6.572
14721SOL     OW46001   3.229   7.914   0.855
14721SOL    HW146002   3.250   7.960   0.773
14721SOL    HW246003   3.274   7.964   0.923
14722SOL     OW46004  12.956   4.078   3.309
14722SOL    HW146005  12.912   4.149   3.357
14722SOL    HW246006  12.964   4.007   3.373
14723SOL     OW46007   1.439  13.716   4.423
14723SOL    HW146008   1.382  13.731   4.498
14723SOL    HW246009   1.387  13.742   4.347
14724SOL     OW46010   5.781   7.285   7.210
14724SOL    HW146011   5.722   7.253   7.278
14724SOL    HW246012   5.771   7.222   7.139
14725SOL     OW46013   3.624   1.727   9.883
14725SOL    HW146014   3.600   1.703   9.973
14725SOL    HW246015   3.720   1.730   9.884
14726SOL     OW46016   6.899   7.611   4.549
14726SOL    HW146017   6.922   7.700   4.578
14726SOL    HW246018   6.811   7.620   4.513
14727SOL     OW46019  14.804   9.336  14.430
14727SOL    HW146020  14.873   9.270  14.433
14727SOL    HW246021  14.849   9.417  14.405
14728SOL     OW46022   6.254   8.857   6.217
14728SOL    HW146023   6.255   8.946   6.252
14728SOL    HW246024   6.309   8.806   6.277
14729SOL     OW46025  14.068   3.485   3.923
14729SOL    HW146026  14.067   3.539   4.002
14729SOL    HW246027  14.131   3.527   3.865
14730SOL     OW46028   2.037  11.438   0.561
14730SOL    HW146029   2.036  11.407   0.471
14730SOL    HW246030   1.994  11.523   0.558
14731SOL     OW46031   7.137   5.093   9.832
14731SOL    HW146032   7.219   5.126   9.796
14731SOL    HW246033   7.129   5.005   9.795
14732SOL     OW46034   8.947  13.437   7.098
14732SOL    HW146035   8.888  13.448   7.172
14732SOL    HW246036   8.902  13.479   7.025
14733SOL     OW46037  11.026  10.109   5.030
14733SOL    HW146038  10.956  10.048   5.009
14733SOL    HW246039  11.071  10.124   4.946
14734SOL     OW46040   3.147   7.504   1.028
14734SOL    HW146041   3.106   7.420   1.005
14734SOL    HW246042   3.121   7.564   0.959
14735SOL     OW46043   1.914   0.826  11.548
14735SOL    HW146044   1.971   0.880  11.603
14735SOL    HW246045   1.860   0.777  11.610
14736SOL     OW46046  12.477   2.363   9.770
14736SOL    HW146047  12.499   2.431   9.706
14736SOL    HW246048  12.506   2.282   9.728
14737SOL     OW46049  13.023  11.113   6.407
14737SOL    HW146050  12.972  11.073   6.477
14737SOL    HW246051  13.085  11.171   6.451
14738SOL     OW46052  10.959   9.192   7.120
14738SOL    HW146053  11.040   9.149   7.091
14738SOL    HW246054  10.914   9.125   7.171
14739SOL     OW46055   1.109   1.793   0.473
14739SOL    HW146056   1.073   1.758   0.391
14739SOL    HW246057   1.200   1.765   0.474
14740SOL     OW46058   1.595  10.487   4.037
14740SOL    HW146059   1.590  10.469   4.130
14740SOL    HW246060   1.655  10.420   4.003
14741SOL     OW46061   9.965   0.407  10.718
14741SOL    HW146062   9.900   0.464  10.757
14741SOL    HW246063  10.003   0.458  10.647
14742SOL     OW46064   3.231   5.802   0.540
14742SOL    HW146065   3.255   5.867   0.474
14742SOL    HW246066   3.283   5.725   0.517
14743SOL     OW46067   1.509   3.708   2.110
14743SOL    HW146068   1.512   3.717   2.015
14743SOL    HW246069   1.597   3.678   2.135
14744SOL     OW46070  10.818   4.230  12.934
14744SOL    HW146071  10.814   4.147  12.885
14744SOL    HW246072  10.823   4.203  13.026
14745SOL     OW46073   0.950   1.314   6.078
14745SOL    HW146074   0.905   1.319   6.162
14745SOL    HW246075   0.885   1.278   6.017
14746SOL     OW46076   2.602   0.587  12.312
14746SOL    HW146077   2.559   0.533  12.246
14746SOL    HW246078   2.532   0.616  12.370
14747SOL     OW46079  12.616   9.866   1.681
14747SOL    HW146080  12.619   9.825   1.768
14747SOL    HW246081  12.549   9.934   1.689
14748SOL     OW46082   2.958   3.911   8.098
14748SOL    HW146083   2.944   3.840   8.036
14748SOL    HW246084   3.047   3.897   8.131
14749SOL     OW46085   1.230   2.185   4.826
14749SOL    HW146086   1.198   2.108   4.873
14749SOL    HW246087   1.170   2.256   4.852
14750SOL     OW46088   8.109   6.301   6.097
14750SOL    HW146089   8.090   6.393   6.078
14750SOL    HW246090   8.026   6.266   6.130
14751SOL     OW46091   9.092  14.243  11.228
14751SOL    HW146092   9.017  14.184  11.235
14751SOL    HW246093   9.065  14.308  11.163
14752SOL     OW46094   3.098   2.781   1.706
14752SOL    HW146095   3.169   2.801   1.766
14752SOL    HW246096   3.063   2.867   1.680
14753SOL     OW46097   5.489   1.791  13.317
14753SOL    HW146098   5.425   1.745  13.262
14753SOL    HW246099   5.446   1.873  13.340
14754SOL     OW46100   5.724  13.623   1.961
14754SOL    HW146101   5.637  13.587   1.944
14754SOL    HW246102   5.748  13.587   2.046
14755SOL     OW46103   6.652  10.655  10.366
14755SOL    HW146104   6.574  10.710  10.370
14755SOL    HW246105   6.658  10.628  10.274
14756SOL     OW46106   4.479   1.975   4.129
14756SOL    HW146107   4.501   2.066   4.107
14756SOL    HW246108   4.428   1.981   4.210
14757SOL     OW46109   3.536  13.611   9.070
14757SOL    HW146110   3.578  13.675   9.129
14757SOL    HW246111   3.589  13.613   8.991
14758SOL     OW46112  11.162   4.893   2.493
14758SOL    HW146113  11.129   4.894   2.403
14758SOL    HW246114  11.102   4.835   2.540
14759SOL     OW46115  13.773   2.795   9.339
14759SOL    HW146116  13.858   2.751   9.343
14759SOL    HW246117  13.710   2.726   9.360
14760SOL     OW46118  12.424  14.635   5.190
14760SOL    HW146119  12.342  14.614   5.145
14760SOL    HW246120  12.474  14.686   5.126
14761SOL     OW46121  11.651   2.045   9.387
14761SOL    HW146122  11.694   2.055   9.302
14761SOL    HW246123  11.694   2.108   9.444
14762SOL     OW46124  13.017   8.533   9.905
14762SOL    HW146125  13.059   8.611   9.869
14762SOL    HW246126  12.988   8.484   9.828
14763SOL     OW46127   4.562  14.135   3.584
14763SOL    HW146128   4.481  14.106   3.626
14763SOL    HW246129   4.536  14.165   3.497
14764SOL     OW46130   1.364  12.455  14.395
14764SOL    HW146131   1.416  12.520  14.442
14764SOL    HW246132   1.409  12.372  14.410
14765SOL     OW46133   7.920   2.453  14.436
14765SOL    HW146134   7.968   2.523  14.391
14765SOL    HW246135   7.831   2.486  14.444
14766SOL     OW46136  13.796  10.811   7.900
14766SOL    HW146137  13.828  10.819   7.990
14766SOL    HW246138  13.706  10.782   7.910
14767SOL     OW46139   6.059   6.781   9.888
14767SOL    HW146140   6.134   6.781   9.829
14767SOL    HW246141   6.097   6.794   9.975
14768SOL     OW46142   3.849   8.926   0.400
14768SOL    HW146143   3.829   8.935   0.493
14768SOL    HW246144   3.783   8.978   0.355
14769SOL     OW46145   6.673   5.851  12.705
14769SOL    HW146146   6.734   5.803  12.649
14769SOL    HW246147   6.703   5.942  12.700
14770SOL     OW46148   2.628   1.892  12.023
14770SOL    HW146149   2.645   1.941  11.942
14770SOL    HW246150   2.572   1.950  12.075
14771SOL     OW46151  10.430  13.754   1.757
14771SOL    HW146152  10.468  13.697   1.823
14771SOL    HW246153  10.335  13.749   1.773
14772SOL     OW46154   9.574   7.103   7.160
14772SOL    HW146155   9.569   7.176   7.221
14772SOL    HW246156   9.489   7.103   7.115
14773SOL     OW46157   7.772   8.812   1.609
14773SOL    HW146158   7.752   8.803   1.516
14773SOL    HW246159   7.843   8.749   1.625
14774SOL     OW46160  12.283   4.910   0.846
14774SOL    HW146161  12.361   4.856   0.835
14774SOL    HW246162  12.308   4.995   0.809
14775SOL     OW46163   0.976  11.812   0.195
14775SOL    HW146164   1.027  11.791   0.273
14775SOL    HW246165   1.040  11.813   0.124
14776SOL     OW46166   2.646   0.963  11.169
14776SOL    HW146167   2.558   0.929  11.188
14776SOL    HW246168   2.706   0.897  11.203
14777SOL     OW46169   0.817   7.587  13.788
14777SOL    HW146170   0.734   7.545  13.767
14777SOL    HW246171   0.797   7.648  13.859
14778SOL     OW46172  13.118  10.191   1.641
14778SOL    HW146173  13.091  10.118   1.697
14778SOL    HW246174  13.176  10.151   1.577
14779SOL     OW46175  13.241  14.024   8.718
14779SOL    HW146176  13.211  14.100   8.669
14779SOL    HW246177  13.288  13.970   8.654
14780SOL     OW46178  10.668   0.171  12.817
14780SOL    HW146179  10.578   0.198  12.796
14780SOL    HW246180  10.689   0.105  12.751
14781SOL     OW46181  10.988   2.111  10.330
14781SOL    HW146182  11.018   2.035  10.380
14781SOL    HW246183  10.905   2.135  10.372
14782SOL     OW46184  10.810   9.881  12.840
14782SOL    HW146185  10.837   9.862  12.930
14782SOL    HW246186  10.784   9.972  12.841
14783SOL     OW46187   5.531   3.641   4.399
14783SOL    HW146188   5.490   3.579   4.459
14783SOL    HW246189   5.508   3.608   4.312
14784SOL     OW46190   7.233   2.152   9.689
14784SOL    HW146191   7.144   2.178   9.712
14784SOL    HW246192   7.288   2.222   9.723
14785SOL     OW46193   3.139   9.190   9.191
14785SOL    HW146194   3.168   9.184   9.100
14785SOL    HW246195   3.044   9.179   9.187
14786SOL     OW46196   4.854   0.126  11.348
14786SOL    HW146197   4.899   0.101  11.428
14786SOL    HW246198   4.901   0.080  11.279
14787SOL     OW46199  12.495   4.882   8.407
14787SOL    HW146200  12.481   4.947   8.338
14787SOL    HW246201  12.461   4.800   8.370
14788SOL     OW46202   0.402   1.253  12.632
14788SOL    HW146203   0.351   1.275  12.710
14788SOL    HW246204   0.472   1.196  12.664
14789SOL     OW46205   5.486  11.735   0.161
14789SOL    HW146206   5.480  11.671   0.233
14789SOL    HW246207   5.401  11.778   0.161
14790SOL     OW46208   2.211  12.987   2.441
14790SOL    HW146209   2.272  13.002   2.369
14790SOL    HW246210   2.254  13.025   2.518
14791SOL     OW46211   8.963  13.926   6.430
14791SOL    HW146212   8.925  13.994   6.374
14791SOL    HW246213   8.902  13.920   6.504
14792SOL     OW46214   6.820   6.158   7.047
14792SOL    HW146215   6.886   6.098   7.011
14792SOL    HW246216   6.776   6.106   7.115
14793SOL     OW46217  14.674   6.904   0.909
14793SOL    HW146218  14.616   6.940   0.977
14793SOL    HW246219  14.748   6.965   0.907
14794SOL     OW46220   9.947   8.747  11.338
14794SOL    HW146221   9.904   8.758  11.254
14794SOL    HW246222   9.941   8.833  11.379
14795SOL     OW46223   8.597   7.238   0.613
14795SOL    HW146224   8.574   7.176   0.682
14795SOL    HW246225   8.683   7.210   0.583
14796SOL     OW46226   4.059   2.722   2.257
14796SOL    HW146227   4.069   2.732   2.162
14796SOL    HW246228   3.972   2.683   2.267
14797SOL     OW46229   8.036  13.300   9.682
14797SOL    HW146230   7.943  13.295   9.703
14797SOL    HW246231   8.081  13.284   9.765
14798SOL     OW46232  11.841   8.238  11.995
14798SOL    HW146233  11.936   8.225  11.996
14798SOL    HW246234  11.827   8.309  11.934
14799SOL     OW46235  10.312  13.680  10.692
14799SOL    HW146236  10.232  13.729  10.674
14799SOL    HW246237  10.284  13.588  10.697
14800SOL     OW46238   0.336  11.098   9.085
14800SOL    HW146239   0.419  11.138   9.060
14800SOL    HW246240   0.311  11.045   9.009
14801SOL     OW46241   3.214   0.549   0.339
14801SOL    HW146242   3.185   0.602   0.265
14801SOL    HW246243   3.292   0.594   0.371
14802SOL     OW46244   7.307   3.020  11.737
14802SOL    HW146245   7.318   2.937  11.691
14802SOL    HW246246   7.250   3.072  11.680
14803SOL     OW46247  10.219   8.155   4.092
14803SOL    HW146248  10.243   8.073   4.048
14803SOL    HW246249  10.303   8.201   4.105
14804SOL     OW46250  14.705   3.543  13.210
14804SOL    HW146251  14.710   3.449  13.194
14804SOL    HW246252  14.614   3.558  13.236
14805SOL     OW46253  14.876   6.811   1.262
14805SOL    HW146254  14.858   6.776   1.349
14805SOL    HW246255  14.833   6.749   1.203
14806SOL     OW46256   8.472   2.101  14.337
14806SOL    HW146257   8.466   2.181  14.284
14806SOL    HW246258   8.412   2.040  14.295
14807SOL     OW46259   1.960   9.080  12.297
14807SOL    HW146260   2.036   9.124  12.258
14807SOL    HW246261   1.950   9.123  12.382
14808SOL     OW46262  12.408  12.613   6.167
14808SOL    HW146263  12.413  12.522   6.195
14808SOL    HW246264  12.378  12.661   6.244
14809SOL     OW46265  11.793  12.142   4.285
14809SOL    HW146266  11.753  12.077   4.342
14809SOL    HW246267  11.788  12.105   4.197
14810SOL     OW46268   0.879  10.442   4.326
14810SOL    HW146269   0.837  10.366   4.285
14810SOL    HW246270   0.903  10.412   4.414
14811SOL     OW46271   4.980  13.369   0.189
14811SOL    HW146272   4.997  13.411   0.104
14811SOL    HW246273   5.067  13.347   0.223
14812SOL     OW46274  11.766   0.872  11.510
14812SOL    HW146275  11.771   0.807  11.441
14812SOL    HW246276  11.855   0.908  11.516
14813SOL     OW46277   1.286   2.504   9.247
14813SOL    HW146278   1.305   2.549   9.330
14813SOL    HW246279   1.206   2.454   9.265
14814SOL     OW46280   8.159  14.315   4.134
14814SOL    HW146281   8.254  14.315   4.121
14814SOL    HW246282   8.132  14.226   4.111
14815SOL     OW46283   4.326  11.866   9.602
14815SOL    HW146284   4.333  11.829   9.514
14815SOL    HW246285   4.343  11.792   9.660
14816SOL     OW46286   2.191  12.423   9.981
14816SOL    HW146287   2.278  12.437   9.942
14816SOL    HW246288   2.178  12.498  10.038
14817SOL     OW46289  12.275   4.944   9.956
14817SOL    HW146290  12.309   4.963   9.868
14817SOL    HW246291  12.339   4.883   9.993
14818SOL     OW46292  12.603   8.758   7.299
14818SOL    HW146293  12.633   8.699   7.230
14818SOL    HW246294  12.529   8.713   7.340
14819SOL     OW46295  12.675   7.633   0.921
14819SOL    HW146296  12.705   7.610   0.833
14819SOL    HW246297  12.696   7.556   0.974
14820SOL     OW46298   6.047   9.123   7.475
14820SOL    HW146299   5.958   9.099   7.500
14820SOL    HW246300   6.088   9.041   7.449
14821SOL     OW46301  13.819  14.184  12.876
14821SOL    HW146302  13.743  14.238  12.856
14821SOL    HW246303  13.810  14.108  12.819
14822SOL     OW46304  13.461  14.434   5.737
14822SOL    HW146305  13.425  14.504   5.792
14822SOL    HW246306  13.427  14.354   5.775
14823SOL     OW46307   2.624  11.511  14.121
14823SOL    HW146308   2.702  11.479  14.166
14823SOL    HW246309   2.657  11.546  14.038
14824SOL     OW46310   9.142   7.388  11.884
14824SOL    HW146311   9.198   7.465  11.870
14824SOL    HW246312   9.139   7.378  11.979
14825SOL     OW46313   9.012   1.963   6.819
14825SOL    HW146314   9.086   1.936   6.765
14825SOL    HW246315   9.008   2.058   6.809
14826SOL     OW46316  13.508  12.221   6.562
14826SOL    HW146317  13.603  12.212   6.565
14826SOL    HW246318  13.484  12.248   6.650
14827SOL     OW46319   7.852   3.385   3.287
14827SOL    HW146320   7.888   3.322   3.350
14827SOL    HW246321   7.901   3.369   3.207
14828SOL     OW46322   2.585   9.413   9.678
14828SOL    HW146323   2.640   9.397   9.601
14828SOL    HW246324   2.619   9.352   9.744
14829SOL     OW46325   5.237   6.401   2.727
14829SOL    HW146326   5.212   6.353   2.648
14829SOL    HW246327   5.220   6.339   2.798
14830SOL     OW46328   6.865   2.478  14.016
14830SOL    HW146329   6.958   2.498  14.021
14830SOL    HW246330   6.822   2.563  14.016
14831SOL     OW46331   2.920   3.259   5.082
14831SOL    HW146332   2.984   3.281   5.014
14831SOL    HW246333   2.845   3.316   5.063
14832SOL     OW46334   9.387   3.477  13.640
14832SOL    HW146335   9.396   3.571  13.626
14832SOL    HW246336   9.295   3.465  13.663
14833SOL     OW46337   1.986   8.310   5.663
14833SOL    HW146338   2.080   8.314   5.648
14833SOL    HW246339   1.974   8.357   5.746
14834SOL     OW46340   2.185   1.222  13.797
14834SOL    HW146341   2.132   1.149  13.828
14834SOL    HW246342   2.125   1.297  13.795
14835SOL     OW46343   4.589  12.088   9.038
14835SOL    HW146344   4.661  12.142   9.071
14835SOL    HW246345   4.617  12.060   8.951
14836SOL     OW46346   6.434   7.046  11.658
14836SOL    HW146347   6.446   7.044  11.753
14836SOL    HW246348   6.339   7.039  11.646
14837SOL     OW46349   5.942   0.993   0.224
14837SOL    HW146350   5.860   1.026   0.187
14837SOL    HW246351   5.988   1.071   0.254
14838SOL     OW46352  13.878   5.057  12.320
14838SOL    HW146353  13.904   4.979  12.367
14838SOL    HW246354  13.940   5.124  12.348
14839SOL     OW46355   8.955   3.603  10.025
14839SOL    HW146356   8.985   3.536  10.087
14839SOL    HW246357   8.884   3.562   9.977
14840SOL     OW46358   9.830   8.900   8.273
14840SOL    HW146359   9.786   8.816   8.281
14840SOL    HW246360   9.909   8.881   8.223
14841SOL     OW46361   2.477  13.090   9.779
14841SOL    HW146362   2.571  13.092   9.798
14841SOL    HW246363   2.462  13.162   9.718
14842SOL     OW46364  10.983   2.641  12.853
14842SOL    HW146365  10.952   2.657  12.764
14842SOL    HW246366  10.972   2.725  12.897
14843SOL     OW46367   4.522   3.786  12.741
14843SOL    HW146368   4.597   3.821  12.694
14843SOL    HW246369   4.465   3.750  12.673
14844SOL     OW46370  10.503   0.793   9.436
14844SOL    HW146371  10.478   0.742   9.513
14844SOL    HW246372  10.441   0.765   9.368
14845SOL     OW46373   5.606  11.117   8.467
14845SOL    HW146374   5.660  11.103   8.545
14845SOL    HW246375   5.556  11.036   8.458
14846SOL     OW46376  11.861   8.805   2.365
14846SOL    HW146377  11.819   8.741   2.308
14846SOL    HW246378  11.946   8.766   2.386
14847SOL     OW46379  11.611   9.908   8.412
14847SOL    HW146380  11.566   9.976   8.362
14847SOL    HW246381  11.541   9.864   8.461
14848SOL     OW46382  11.378   5.219   0.111
14848SOL    HW146383  11.443   5.277   0.150
14848SOL    HW246384  11.350   5.263   0.032
14849SOL     OW46385  14.511  12.936   2.050
14849SOL    HW146386  14.416  12.936   2.040
14849SOL    HW246387  14.532  13.024   2.080
14850SOL     OW46388   2.149   0.666   3.230
14850SOL    HW146389   2.142   0.761   3.234
14850SOL    HW246390   2.100   0.641   3.152
14851SOL     OW46391   7.679   5.090   9.841
14851SOL    HW146392   7.638   5.128   9.919
14851SOL    HW246393   7.693   5.164   9.782
14852SOL     OW46394   8.113   5.258   8.518
14852SOL    HW146395   8.031   5.307   8.521
14852SOL    HW246396   8.174   5.311   8.569
14853SOL     OW46397   6.932   3.736  12.801
14853SOL    HW146398   6.984   3.687  12.738
14853SOL    HW246399   6.897   3.809  12.752
14854SOL     OW46400   9.431   6.220   6.117
14854SOL    HW146401   9.486   6.297   6.109
14854SOL    HW246402   9.350   6.243   6.074
14855SOL     OW46403  12.444   0.107   5.100
14855SOL    HW146404  12.457   0.019   5.137
14855SOL    HW246405  12.528   0.130   5.062
14856SOL     OW46406   1.207   3.074   8.348
14856SOL    HW146407   1.261   3.054   8.424
14856SOL    HW246408   1.264   3.060   8.273
14857SOL     OW46409   3.924  10.447   5.497
14857SOL    HW146410   3.917  10.376   5.434
14857SOL    HW246411   3.863  10.423   5.567
14858SOL     OW46412   3.126  13.174  11.730
14858SOL    HW146413   3.150  13.253  11.682
14858SOL    HW246414   3.030  13.170  11.724
14859SOL     OW46415   3.722  13.724   9.720
14859SOL    HW146416   3.719  13.630   9.737
14859SOL    HW246417   3.665  13.736   9.644
14860SOL     OW46418  12.469   5.387   8.742
14860SOL    HW146419  12.402   5.455   8.734
14860SOL    HW246420  12.549   5.434   8.766
14861SOL     OW46421   9.984  11.477  11.252
14861SOL    HW146422   9.925  11.421  11.303
14861SOL    HW246423  10.067  11.429  11.251
14862SOL     OW46424   6.921  11.178  11.473
14862SOL    HW146425   6.827  11.163  11.461
14862SOL    HW246426   6.927  11.227  11.556
14863SOL     OW46427  11.945   0.749   9.379
14863SOL    HW146428  11.900   0.767   9.296
14863SOL    HW246429  11.968   0.835   9.414
14864SOL     OW46430   5.908   1.809   6.299
14864SOL    HW146431   5.837   1.857   6.342
14864SOL    HW246432   5.863   1.750   6.238
14865SOL     OW46433   5.414  12.032  14.505
14865SOL    HW146434   5.460  12.034  14.420
14865SOL    HW246435   5.480  12.061  14.568
14866SOL     OW46436   9.813   2.892   4.946
14866SOL    HW146437   9.740   2.928   4.996
14866SOL    HW246438   9.869   2.850   5.011
14867SOL     OW46439   1.421   6.088   9.564
14867SOL    HW146440   1.334   6.125   9.581
14867SOL    HW246441   1.438   6.109   9.472
14868SOL     OW46442   6.990   1.528   6.980
14868SOL    HW146443   7.014   1.478   7.058
14868SOL    HW246444   6.909   1.486   6.949
14869SOL     OW46445   9.224  13.585  14.071
14869SOL    HW146446   9.291  13.606  14.006
14869SOL    HW246447   9.218  13.489  14.070
14870SOL     OW46448   9.629   4.139   8.263
14870SOL    HW146449   9.665   4.154   8.176
14870SOL    HW246450   9.558   4.075   8.249
14871SOL     OW46451  11.835   3.475  12.515
14871SOL    HW146452  11.880   3.398  12.481
14871SOL    HW246453  11.774   3.440  12.580
14872SOL     OW46454   9.165  13.897  12.366
14872SOL    HW146455   9.116  13.846  12.430
14872SOL    HW246456   9.104  13.966  12.338
14873SOL     OW46457   4.158  14.462   1.506
14873SOL    HW146458   4.116  14.528   1.560
14873SOL    HW246459   4.164  14.385   1.562
14874SOL     OW46460   1.655   7.819  14.399
14874SOL    HW146461   1.728   7.831  14.338
14874SOL    HW246462   1.694   7.823  14.486
14875SOL     OW46463  14.551   3.582   7.559
14875SOL    HW146464  14.517   3.546   7.477
14875SOL    HW246465  14.612   3.515   7.590
14876SOL     OW46466   5.481   3.931   8.286
14876SOL    HW146467   5.475   4.011   8.234
14876SOL    HW246468   5.398   3.926   8.332
14877SOL     OW46469   8.048   6.931  12.981
14877SOL    HW146470   8.109   6.995  13.017
14877SOL    HW246471   8.076   6.918  12.890
14878SOL     OW46472   7.104   7.771   5.547
14878SOL    HW146473   7.060   7.841   5.498
14878SOL    HW246474   7.197   7.793   5.539
14879SOL     OW46475   8.244  10.941  12.750
14879SOL    HW146476   8.180  10.980  12.809
14879SOL    HW246477   8.228  10.984  12.666
14880SOL     OW46478  14.798   0.235   0.960
14880SOL    HW146479  14.740   0.167   0.994
14880SOL    HW246480  14.828   0.200   0.876
14881SOL     OW46481   8.726   5.867   7.978
14881SOL    HW146482   8.642   5.907   7.954
14881SOL    HW246483   8.789   5.906   7.918
14882SOL     OW46484   2.963   1.136   0.023
14882SOL    HW146485   3.020   1.177   0.088
14882SOL    HW246486   2.875   1.148   0.058
14883SOL     OW46487   2.962   0.957   5.137
14883SOL    HW146488   2.956   0.900   5.214
14883SOL    HW246489   2.945   0.899   5.063
14884SOL     OW46490  12.176   0.956   3.229
14884SOL    HW146491  12.163   0.880   3.173
14884SOL    HW246492  12.267   0.950   3.259
14885SOL     OW46493   4.310  10.147   7.169
14885SOL    HW146494   4.375  10.176   7.105
14885SOL    HW246495   4.360  10.092   7.230
14886SOL     OW46496  13.836   1.855   2.480
14886SOL    HW146497  13.813   1.822   2.393
14886SOL    HW246498  13.753   1.859   2.528
14887SOL     OW46499   5.918   7.748   7.435
14887SOL    HW146500   5.839   7.734   7.383
14887SOL    HW246501   5.894   7.722   7.524
14888SOL     OW46502   4.633  10.288  14.854
14888SOL    HW146503   4.683  10.215  14.817
14888SOL    HW246504   4.623  10.349  14.782
14889SOL     OW46505  10.848   3.175   5.273
14889SOL    HW146506  10.900   3.177   5.193
14889SOL    HW246507  10.836   3.082   5.292
14890SOL     OW46508   5.188  11.950   3.626
14890SOL    HW146509   5.097  11.969   3.650
14890SOL    HW246510   5.188  11.951   3.530
14891SOL     OW46511   6.717   6.318  14.591
14891SOL    HW146512   6.764   6.401  14.600
14891SOL    HW246513   6.780   6.252  14.620
14892SOL     OW46514   7.716   2.881   5.374
14892SOL    HW146515   7.622   2.892   5.358
14892SOL    HW246516   7.731   2.787   5.364
14893SOL     OW46517   9.971  12.544   9.683
14893SOL    HW146518  10.012  12.615   9.732
14893SOL    HW246519   9.889  12.527   9.729
14894SOL     OW46520  13.985   5.347  10.146
14894SOL    HW146521  14.079   5.345  10.129
14894SOL    HW246522  13.979   5.368  10.239
14895SOL     OW46523   5.693  14.752  11.228
14895SOL    HW146524   5.760  14.684  11.222
14895SOL    HW246525   5.620  14.710  11.274
14896SOL     OW46526   2.468  11.136   9.471
14896SOL    HW146527   2.533  11.067   9.477
14896SOL    HW246528   2.472  11.181   9.555
14897SOL     OW46529  12.112  11.215  14.508
14897SOL    HW146530  12.170  11.286  14.536
14897SOL    HW246531  12.025  11.255  14.506
14898SOL     OW46532  14.317   5.627  10.974
14898SOL    HW146533  14.260   5.703  10.984
14898SOL    HW246534  14.348   5.607  11.062
14899SOL     OW46535  13.643   0.265   9.937
14899SOL    HW146536  13.613   0.185   9.979
14899SOL    HW246537  13.570   0.326   9.946
14900SOL     OW46538   2.560   2.784  10.499
14900SOL    HW146539   2.470   2.797  10.528
14900SOL    HW246540   2.608   2.760  10.578
14901SOL     OW46541  13.811  11.516  12.523
14901SOL    HW146542  13.879  11.526  12.590
14901SOL    HW246543  13.769  11.602  12.518
14902SOL     OW46544   5.698   4.732  10.698
14902SOL    HW146545   5.658   4.775  10.773
14902SOL    HW246546   5.742   4.655  10.735
14903SOL     OW46547  13.398   9.059   5.194
14903SOL    HW146548  13.348   9.024   5.120
14903SOL    HW246549  13.490   9.052   5.166
14904SOL     OW46550   0.713   4.885   0.366
14904SOL    HW146551   0.648   4.860   0.432
14904SOL    HW246552   0.785   4.923   0.416
14905SOL     OW46553   5.968  10.223   5.128
14905SOL    HW146554   5.875  10.229   5.110
14905SOL    HW246555   5.974  10.227   5.224
14906SOL     OW46556  14.317  11.475   9.117
14906SOL    HW146557  14.274  11.396   9.085
14906SOL    HW246558  14.273  11.547   9.072
14907SOL     OW46559   5.062   5.069   4.634
14907SOL    HW146560   5.042   5.055   4.727
14907SOL    HW246561   5.101   5.157   4.631
14908SOL     OW46562   9.431  11.317   9.631
14908SOL    HW146563   9.395  11.260   9.699
14908SOL    HW246564   9.359  11.328   9.568
14909SOL     OW46565   7.102   9.379   1.389
14909SOL    HW146566   7.050   9.301   1.412
14909SOL    HW246567   7.177   9.375   1.447
14910SOL     OW46568  11.652  13.983  13.478
14910SOL    HW146569  11.700  13.914  13.432
14910SOL    HW246570  11.634  14.048  13.410
14911SOL     OW46571   4.619   0.575   4.447
14911SOL    HW146572   4.640   0.613   4.361
14911SOL    HW246573   4.704   0.555   4.485
14912SOL     OW46574  13.888   4.745   9.564
14912SOL    HW146575  13.844   4.717   9.484
14912SOL    HW246576  13.853   4.833   9.581
14913SOL     OW46577   2.338  11.702   2.998
14913SOL    HW146578   2.280  11.683   3.071
14913SOL    HW246579   2.281  11.736   2.930
14914SOL     OW46580   3.169  10.286  13.365
14914SOL    HW146581   3.133  10.372  13.342
14914SOL    HW246582   3.246  10.306  13.418
14915SOL     OW46583  11.506   1.635  12.860
14915SOL    HW146584  11.597   1.637  12.829
14915SOL    HW246585  11.500   1.555  12.911
14916SOL     OW46586   6.866   7.056   9.099
14916SOL    HW146587   6.826   7.103   9.026
14916SOL    HW246588   6.822   7.090   9.177
14917SOL     OW46589   1.643  10.545  12.921
14917SOL    HW146590   1.702  10.621  12.916
14917SOL    HW246591   1.555  10.582  12.913
14918SOL     OW46592   7.406   3.378  10.729
14918SOL    HW146593   7.461   3.456  10.734
14918SOL    HW246594   7.340   3.391  10.798
14919SOL     OW46595   0.914  13.816   4.283
14919SOL    HW146596   0.849  13.768   4.232
14919SOL    HW246597   0.906  13.780   4.371
14920SOL     OW46598   1.122   9.990   3.867
14920SOL    HW146599   1.044   9.960   3.913
14920SOL    HW246600   1.190   9.994   3.934
14921SOL     OW46601   4.704   0.517   0.444
14921SOL    HW146602   4.781   0.570   0.464
14921SOL    HW246603   4.647   0.575   0.393
14922SOL     OW46604   7.588   8.002   5.123
14922SOL    HW146605   7.579   7.968   5.034
14922SOL    HW246606   7.683   8.014   5.134
14923SOL     OW46607  12.273  10.431  11.349
14923SOL    HW146608  12.357  10.473  11.371
14923SOL    HW246609  12.294  10.338  11.345
14924SOL     OW46610   1.331   5.974   1.465
14924SOL    HW146611   1.269   6.008   1.530
14924SOL    HW246612   1.373   6.052   1.429
14925SOL     OW46613   5.265   8.940   0.549
14925SOL    HW146614   5.280   8.942   0.643
14925SOL    HW246615   5.324   8.873   0.516
14926SOL     OW46616  10.954   2.450   3.572
14926SOL    HW146617  11.012   2.376   3.590
14926SOL    HW246618  10.894   2.417   3.504
14927SOL     OW46619   4.688   2.851   7.476
14927SOL    HW146620   4.618   2.799   7.437
14927SOL    HW246621   4.648   2.937   7.490
14928SOL     OW46622  10.674   3.315   9.758
14928SOL    HW146623  10.654   3.392   9.705
14928SOL    HW246624  10.659   3.343   9.848
14929SOL     OW46625  14.506  13.797  13.970
14929SOL    HW146626  14.417  13.809  13.936
14929SOL    HW246627  14.562  13.799  13.892
14930SOL     OW46628   2.337  14.271   9.494
14930SOL    HW146629   2.379  14.342   9.543
14930SOL    HW246630   2.259  14.250   9.546
14931SOL     OW46631  14.059   3.262   0.457
14931SOL    HW146632  14.031   3.275   0.367
14931SOL    HW246633  14.094   3.347   0.484
14932SOL     OW46634   8.486   6.035   1.042
14932SOL    HW146635   8.428   6.091   1.093
14932SOL    HW246636   8.430   5.997   0.975
14933SOL     OW46637   6.803   2.359   6.619
14933SOL    HW146638   6.765   2.415   6.686
14933SOL    HW246639   6.776   2.398   6.536
14934SOL     OW46640   5.059   6.925   6.722
14934SOL    HW146641   5.113   6.995   6.758
14934SOL    HW246642   5.069   6.852   6.783
14935SOL     OW46643   0.840   2.436  13.345
14935SOL    HW146644   0.753   2.462  13.315
14935SOL    HW246645   0.900   2.493  13.297
14936SOL     OW46646   1.277  10.246   1.263
14936SOL    HW146647   1.279  10.317   1.198
14936SOL    HW246648   1.365  10.208   1.258
14937SOL     OW46649  11.280   2.153  11.040
14937SOL    HW146650  11.343   2.199  11.095
14937SOL    HW246651  11.271   2.067  11.081
14938SOL     OW46652  10.588   4.556   1.121
14938SOL    HW146653  10.622   4.524   1.205
14938SOL    HW246654  10.523   4.622   1.146
14939SOL     OW46655  14.073  13.616  11.685
14939SOL    HW146656  14.090  13.706  11.658
14939SOL    HW246657  14.038  13.574  11.606
14940SOL     OW46658   7.838   9.476   7.810
14940SOL    HW146659   7.858   9.550   7.752
14940SOL    HW246660   7.817   9.404   7.751
14941SOL     OW46661  12.401   0.576  14.176
14941SOL    HW146662  12.392   0.671  14.174
14941SOL    HW246663  12.461   0.556  14.104
14942SOL     OW46664  11.648  11.165   3.519
14942SOL    HW146665  11.554  11.174   3.532
14942SOL    HW246666  11.685  11.247   3.552
14943SOL     OW46667   0.603  13.721   1.996
14943SOL    HW146668   0.596  13.714   1.901
14943SOL    HW246669   0.557  13.644   2.029
14944SOL     OW46670  11.457   2.986  13.306
14944SOL    HW146671  11.495   2.900  13.325
14944SOL    HW246672  11.532   3.043  13.292
14945SOL     OW46673  12.090   4.763   3.664
14945SOL    HW146674  11.999   4.749   3.639
14945SOL    HW246675  12.085   4.810   3.747
14946SOL     OW46676   9.045  13.245   6.019
14946SOL    HW146677   9.019  13.180   5.954
14946SOL    HW246678   8.993  13.223   6.096
14947SOL     OW46679   8.906   7.111   1.396
14947SOL    HW146680   8.998   7.136   1.408
14947SOL    HW246681   8.869   7.182   1.343
14948SOL     OW46682   8.719   1.134   4.488
14948SOL    HW146683   8.780   1.176   4.427
14948SOL    HW246684   8.650   1.200   4.502
14949SOL     OW46685  14.722   8.553   9.404
14949SOL    HW146686  14.733   8.640   9.366
14949SOL    HW246687  14.685   8.501   9.332
14950SOL     OW46688   0.740   2.924   4.189
14950SOL    HW146689   0.703   2.879   4.113
14950SOL    HW246690   0.769   3.008   4.154
14951SOL     OW46691  10.604   7.725   6.299
14951SOL    HW146692  10.519   7.707   6.259
14951SOL    HW246693  10.637   7.801   6.251
14952SOL     OW46694   3.319  14.722   6.066
14952SOL    HW146695   3.224  14.723   6.052
14952SOL    HW246696   3.352  14.795   6.015
14953SOL     OW46697   6.426  11.047   7.836
14953SOL    HW146698   6.416  11.079   7.747
14953SOL    HW246699   6.440  10.953   7.827
14954SOL     OW46700   5.545   3.325  14.656
14954SOL    HW146701   5.532   3.420  14.651
14954SOL    HW246702   5.531   3.303  14.748
14955SOL     OW46703  13.338   5.418   7.849
14955SOL    HW146704  13.396   5.386   7.918
14955SOL    HW246705  13.349   5.514   7.851
14956SOL     OW46706   7.987   9.409   3.541
14956SOL    HW146707   8.045   9.415   3.617
14956SOL    HW246708   7.903   9.380   3.576
14957SOL     OW46709   8.488  14.616  13.640
14957SOL    HW146710   8.529  14.648  13.720
14957SOL    HW246711   8.444  14.535  13.667
14958SOL     OW46712   0.408  13.418   0.002
14958SOL    HW146713   0.475  13.381  14.827
14958SOL    HW246714   0.443  13.404   0.091
14959SOL     OW46715  10.683   3.070   4.935
14959SOL    HW146716  10.687   3.164   4.954
14959SOL    HW246717  10.743   3.057   4.862
14960SOL     OW46718  10.060   5.215   5.420
14960SOL    HW146719  10.068   5.181   5.331
14960SOL    HW246720  10.128   5.169   5.469
14961SOL     OW46721   5.439  14.188   4.260
14961SOL    HW146722   5.402  14.171   4.347
14961SOL    HW246723   5.381  14.143   4.200
14962SOL     OW46724   5.535   3.147   2.482
14962SOL    HW146725   5.593   3.101   2.422
14962SOL    HW246726   5.474   3.195   2.425
14963SOL     OW46727   7.241   9.774   7.050
14963SOL    HW146728   7.186   9.727   7.114
14963SOL    HW246729   7.186   9.847   7.020
14964SOL     OW46730   4.073   0.933   8.769
14964SOL    HW146731   4.167   0.943   8.783
14964SOL    HW246732   4.066   0.903   8.678
14965SOL     OW46733   5.929   1.324   9.200
14965SOL    HW146734   5.874   1.381   9.253
14965SOL    HW246735   6.006   1.307   9.255
14966SOL     OW46736   8.090  11.609  11.330
14966SOL    HW146737   8.006  11.618  11.286
14966SOL    HW246738   8.150  11.578  11.262
14967SOL     OW46739   8.973   0.979   1.479
14967SOL    HW146740   8.975   0.948   1.570
14967SOL    HW246741   8.887   0.952   1.447
14968SOL     OW46742   2.414   8.794   5.623
14968SOL    HW146743   2.458   8.734   5.563
14968SOL    HW246744   2.349   8.740   5.668
14969SOL     OW46745  12.541  13.974  10.731
14969SOL    HW146746  12.576  13.948  10.816
14969SOL    HW246747  12.553  14.068  10.727
14970SOL     OW46748  13.424   1.862   9.124
14970SOL    HW146749  13.449   1.783   9.076
14970SOL    HW246750  13.403   1.926   9.056
14971SOL     OW46751  13.917  13.630   2.057
14971SOL    HW146752  13.965  13.616   1.975
14971SOL    HW246753  13.981  13.670   2.116
14972SOL     OW46754  13.971  11.254   2.334
14972SOL    HW146755  13.987  11.160   2.329
14972SOL    HW246756  13.898  11.263   2.396
14973SOL     OW46757   6.140  13.892  10.744
14973SOL    HW146758   6.088  13.942  10.681
14973SOL    HW246759   6.084  13.817  10.767
14974SOL     OW46760  10.679  14.662  11.683
14974SOL    HW146761  10.696  14.567  11.683
14974SOL    HW246762  10.719  14.694  11.602
14975SOL     OW46763   9.511   6.470   3.241
14975SOL    HW146764   9.495   6.523   3.320
14975SOL    HW246765   9.493   6.529   3.168
14976SOL     OW46766   9.060  12.171  10.866
14976SOL    HW146767   9.023  12.152  10.780
14976SOL    HW246768   9.136  12.228  10.847
14977SOL     OW46769   5.652   3.867  13.223
14977SOL    HW146770   5.726   3.885  13.165
14977SOL    HW246771   5.627   3.953  13.258
14978SOL     OW46772   0.413   6.214  13.543
14978SOL    HW146773   0.499   6.255  13.540
14978SOL    HW246774   0.367   6.249  13.467
14979SOL     OW46775  14.803   4.915  10.146
14979SOL    HW146776  14.717   4.942  10.113
14979SOL    HW246777  14.840   4.996  10.183
14980SOL     OW46778  11.023   5.624   8.892
14980SOL    HW146779  10.974   5.626   8.974
14980SOL    HW246780  11.057   5.535   8.885
14981SOL     OW46781   0.205  13.402   5.804
14981SOL    HW146782   0.113  13.429   5.799
14981SOL    HW246783   0.204  13.320   5.852
14982SOL     OW46784  14.782   7.872  13.616
14982SOL    HW146785  14.724   7.926  13.562
14982SOL    HW246786  14.847   7.934  13.650
14983SOL     OW46787   8.810  12.150   5.661
14983SOL    HW146788   8.718  12.148   5.689
14983SOL    HW246789   8.814  12.222   5.599
14984SOL     OW46790   9.079   5.445   6.855
14984SOL    HW146791   9.086   5.354   6.828
14984SOL    HW246792   9.038   5.489   6.780
14985SOL     OW46793  14.761   5.821   6.563
14985SOL    HW146794  14.687   5.840   6.504
14985SOL    HW246795  14.834   5.869   6.525
14986SOL     OW46796   3.548  11.640  11.012
14986SOL    HW146797   3.479  11.628  11.077
14986SOL    HW246798   3.629  11.618  11.058
14987SOL     OW46799   8.885   0.834  10.283
14987SOL    HW146800   8.796   0.800  10.286
14987SOL    HW246801   8.886   0.903  10.349
14988SOL     OW46802   3.748   2.590   0.966
14988SOL    HW146803   3.737   2.569   1.059
14988SOL    HW246804   3.681   2.538   0.922
14989SOL     OW46805   6.025  14.574   1.111
14989SOL    HW146806   6.036  14.607   1.201
14989SOL    HW246807   5.950  14.514   1.117
14990SOL     OW46808  12.175  12.384  13.207
14990SOL    HW146809  12.218  12.353  13.127
14990SOL    HW246810  12.103  12.440  13.176
14991SOL     OW46811   2.474  11.565   1.810
14991SOL    HW146812   2.487  11.471   1.814
14991SOL    HW246813   2.380  11.577   1.823
14992SOL     OW46814   8.584  11.289   5.537
14992SOL    HW146815   8.521  11.221   5.514
14992SOL    HW246816   8.669  11.252   5.513
14993SOL     OW46817  10.641   5.067  10.504
14993SOL    HW146818  10.569   5.111  10.551
14993SOL    HW246819  10.691   5.024  10.573
14994SOL     OW46820   4.227   1.703   3.154
14994SOL    HW146821   4.299   1.726   3.097
14994SOL    HW246822   4.267   1.652   3.224
14995SOL     OW46823   8.657   2.742  14.444
14995SOL    HW146824   8.682   2.824  14.485
14995SOL    HW246825   8.647   2.681  14.517
14996SOL     OW46826   0.988   1.468   8.974
14996SOL    HW146827   0.901   1.451   9.010
14996SOL    HW246828   0.973   1.487   8.882
14997SOL     OW46829  10.041   6.735   3.253
14997SOL    HW146830  10.102   6.666   3.277
14997SOL    HW246831   9.958   6.710   3.295
14998SOL     OW46832  12.311  12.204   7.575
14998SOL    HW146833  12.378  12.151   7.530
14998SOL    HW246834  12.315  12.175   7.666
14999SOL     OW46835  11.409   2.707  13.536
14999SOL    HW146836  11.441   2.787  13.578
14999SOL    HW246837  11.441   2.712  13.446
15000SOL     OW46838  14.671  12.172   0.091
15000SOL    HW146839  14.682  12.188   0.185
15000SOL    HW246840  14.732  12.101   0.071
15001SOL     OW46841  14.319   2.289  13.456
15001SOL    HW146842  14.257   2.317  13.525
15001SOL    HW246843  14.263   2.259  13.385
15002SOL     OW46844   5.779   2.852   9.646
15002SOL    HW146845   5.830   2.887   9.573
15002SOL    HW246846   5.687   2.864   9.619
15003SOL     OW46847   2.284  12.788   1.831
15003SOL    HW146848   2.361  12.825   1.789
15003SOL    HW246849   2.216  12.854   1.819
15004SOL     OW46850  10.569   9.757   7.042
15004SOL    HW146851  10.522   9.674   7.054
15004SOL    HW246852  10.531   9.795   6.963
15005SOL     OW46853  11.558   9.366   5.111
15005SOL    HW146854  11.506   9.446   5.101
15005SOL    HW246855  11.558   9.349   5.205
15006SOL     OW46856  11.621   5.143  14.697
15006SOL    HW146857  11.540   5.194  14.707
15006SOL    HW246858  11.611   5.099  14.613
15007SOL     OW46859   7.025   8.713   4.719
15007SOL    HW146860   6.975   8.661   4.781
15007SOL    HW246861   7.110   8.669   4.713
15008SOL     OW46862   9.643   7.460   0.393
15008SOL    HW146863   9.707   7.482   0.326
15008SOL    HW246864   9.628   7.542   0.440
15009SOL     OW46865   2.209   7.144  12.372
15009SOL    HW146866   2.152   7.171  12.301
15009SOL    HW246867   2.150   7.108  12.439
15010SOL     OW46868  13.368   7.586  12.882
15010SOL    HW146869  13.286   7.542  12.904
15010SOL    HW246870  13.374   7.658  12.944
15011SOL     OW46871  12.855   6.123   9.550
15011SOL    HW146872  12.947   6.144   9.561
15011SOL    HW246873  12.814   6.208   9.531
15012SOL     OW46874   7.968  13.021   4.833
15012SOL    HW146875   7.894  13.050   4.886
15012SOL    HW246876   7.996  13.099   4.786
15013SOL     OW46877  11.086   6.573   0.297
15013SOL    HW146878  11.060   6.581   0.389
15013SOL    HW246879  11.175   6.609   0.294
15014SOL     OW46880  13.329   3.864  11.858
15014SOL    HW146881  13.384   3.786  11.846
15014SOL    HW246882  13.333   3.909  11.774
15015SOL     OW46883   7.713   8.701  10.413
15015SOL    HW146884   7.655   8.649  10.357
15015SOL    HW246885   7.658   8.771  10.446
15016SOL     OW46886   4.487   0.432  12.391
15016SOL    HW146887   4.579   0.410  12.408
15016SOL    HW246888   4.456   0.361  12.335
15017SOL     OW46889   7.623   2.040   9.518
15017SOL    HW146890   7.587   2.094   9.588
15017SOL    HW246891   7.547   1.993   9.483
15018SOL     OW46892   6.137  13.241   6.327
15018SOL    HW146893   6.198  13.267   6.395
15018SOL    HW246894   6.192  13.213   6.254
15019SOL     OW46895  11.069   0.205   0.813
15019SOL    HW146896  11.077   0.300   0.800
15019SOL    HW246897  11.045   0.195   0.905
15020SOL     OW46898   4.401  10.183   6.749
15020SOL    HW146899   4.419  10.234   6.827
15020SOL    HW246900   4.324  10.225   6.710
15021SOL     OW46901  13.671  10.914   2.231
15021SOL    HW146902  13.653  10.821   2.214
15021SOL    HW246903  13.766  10.921   2.228
15022SOL     OW46904   5.708   7.509  13.080
15022SOL    HW146905   5.752   7.525  13.164
15022SOL    HW246906   5.693   7.597  13.045
15023SOL     OW46907  13.402   4.778   4.214
15023SOL    HW146908  13.466   4.783   4.285
15023SOL    HW246909  13.449   4.738   4.141
15024SOL     OW46910   4.642   2.575   2.643
15024SOL    HW146911   4.684   2.627   2.711
15024SOL    HW246912   4.715   2.536   2.594
15025SOL     OW46913  11.004   4.428  13.253
15025SOL    HW146914  10.984   4.350  13.202
15025SOL    HW246915  10.929   4.439  13.311
15026SOL     OW46916  14.112   3.818  11.946
15026SOL    HW146917  14.046   3.761  11.984
15026SOL    HW246918  14.065   3.900  11.928
15027SOL     OW46919  11.109  13.819   3.664
15027SOL    HW146920  11.198  13.815   3.629
15027SOL    HW246921  11.067  13.890   3.617
15028SOL     OW46922   1.693   3.477   5.428
15028SOL    HW146923   1.652   3.429   5.355
15028SOL    HW246924   1.747   3.412   5.472
15029SOL     OW46925  10.148  14.276   8.626
15029SOL    HW146926  10.083  14.257   8.693
15029SOL    HW246927  10.176  14.366   8.645
15030SOL     OW46928   5.695  14.390   5.525
15030SOL    HW146929   5.623  14.449   5.547
15030SOL    HW246930   5.760  14.405   5.593
15031SOL     OW46931   6.228   3.577  14.015
15031SOL    HW146932   6.274   3.579  13.931
15031SOL    HW246933   6.177   3.657  14.017
15032SOL     OW46934  11.313   7.803   2.836
15032SOL    HW146935  11.228   7.839   2.810
15032SOL    HW246936  11.312   7.806   2.932
15033SOL     OW46937   6.972   5.570   6.562
15033SOL    HW146938   7.054   5.529   6.588
15033SOL    HW246939   6.987   5.664   6.576
15034SOL     OW46940   7.660   4.778   2.878
15034SOL    HW146941   7.704   4.793   2.794
15034SOL    HW246942   7.626   4.689   2.872
15035SOL     OW46943  10.289   1.111   2.231
15035SOL    HW146944  10.339   1.038   2.267
15035SOL    HW246945  10.263   1.162   2.307
15036SOL     OW46946  11.387   3.366  11.990
15036SOL    HW146947  11.470   3.378  11.945
15036SOL    HW246948  11.340   3.448  11.978
15037SOL     OW46949   1.846  11.091   7.695
15037SOL    HW146950   1.908  11.136   7.638
15037SOL    HW246951   1.842  11.146   7.774
15038SOL     OW46952   6.986   2.601   7.371
15038SOL    HW146953   7.072   2.559   7.364
15038SOL    HW246954   7.000   2.689   7.336
15039SOL     OW46955   0.547   9.574   1.177
15039SOL    HW146956   0.587   9.560   1.092
15039SOL    HW246957   0.620   9.576   1.239
15040SOL     OW46958   2.525   6.364   0.628
15040SOL    HW146959   2.479   6.283   0.652
15040SOL    HW246960   2.577   6.340   0.552
15041SOL     OW46961  10.376  13.898   1.234
15041SOL    HW146962  10.440  13.847   1.185
15041SOL    HW246963  10.293  13.851   1.223
15042SOL     OW46964  13.424  14.253  14.087
15042SOL    HW146965  13.413  14.332  14.034
15042SOL    HW246966  13.339  14.211  14.085
15043SOL     OW46967  13.313  12.543   9.439
15043SOL    HW146968  13.234  12.502   9.475
15043SOL    HW246969  13.285  12.631   9.414
15044SOL     OW46970   4.849   1.944   0.169
15044SOL    HW146971   4.902   2.022   0.186
15044SOL    HW246972   4.864   1.925   0.076
15045SOL     OW46973   6.680  12.043   0.354
15045SOL    HW146974   6.649  11.955   0.376
15045SOL    HW246975   6.605  12.100   0.373
15046SOL     OW46976  14.876  13.629  14.178
15046SOL    HW146977  14.872  13.533  14.178
15046SOL    HW246978   0.084  13.650  14.201
15047SOL     OW46979   3.392   8.614  14.775
15047SOL    HW146980   3.473   8.607  14.825
15047SOL    HW246981   3.408   8.562  14.696
15048SOL     OW46982  14.598   6.738  10.767
15048SOL    HW146983  14.546   6.682  10.825
15048SOL    HW246984  14.635   6.804  10.826
15049SOL     OW46985   2.009   6.477   6.292
15049SOL    HW146986   1.955   6.425   6.351
15049SOL    HW246987   1.972   6.460   6.205
15050SOL     OW46988   0.943  13.155  11.340
15050SOL    HW146989   0.992  13.083  11.380
15050SOL    HW246990   0.851  13.132  11.353
15051SOL     OW46991  10.418  14.736  11.242
15051SOL    HW146992  10.336  14.708  11.200
15051SOL    HW246993  10.438  14.820  11.201
15052SOL     OW46994   7.862   8.504   6.913
15052SOL    HW146995   7.824   8.421   6.940
15052SOL    HW246996   7.797   8.542   6.854
15053SOL     OW46997   1.530  12.170   3.975
15053SOL    HW146998   1.586  12.207   3.907
15053SOL    HW246999   1.569  12.199   4.057
15054SOL     OW47000  10.617   6.586   9.085
15054SOL    HW147001  10.599   6.567   8.993
15054SOL    HW247002  10.687   6.525   9.108
15055SOL     OW47003  12.580   1.871  13.997
15055SOL    HW147004  12.499   1.911  13.968
15055SOL    HW247005  12.641   1.944  14.008
15056SOL     OW47006  11.347   0.415  11.043
15056SOL    HW147007  11.434   0.410  11.003
15056SOL    HW247008  11.286   0.413  10.969
15057SOL     OW47009  13.028   1.715   1.103
15057SOL    HW147010  13.093   1.677   1.044
15057SOL    HW247011  13.039   1.667   1.185
15058SOL     OW47012   0.578   6.399   1.731
15058SOL    HW147013   0.612   6.460   1.665
15058SOL    HW247014   0.600   6.312   1.697
15059SOL     OW47015   2.111  10.026  12.535
15059SOL    HW147016   2.142  10.116  12.540
15059SOL    HW247017   2.147   9.983  12.612
15060SOL     OW47018   4.007   3.712   3.605
15060SOL    HW147019   4.065   3.787   3.618
15060SOL    HW247020   3.975   3.722   3.516
15061SOL     OW47021   7.868  13.476   0.165
15061SOL    HW147022   7.805  13.432   0.222
15061SOL    HW247023   7.913  13.406   0.119
15062SOL     OW47024  11.037  13.951   9.365
15062SOL    HW147025  11.023  13.999   9.446
15062SOL    HW247026  10.959  13.895   9.358
15063SOL     OW47027  13.562  11.045  13.750
15063SOL    HW147028  13.608  11.115  13.796
15063SOL    HW247029  13.612  10.966  13.770
15064SOL     OW47030   5.350   1.461   4.418
15064SOL    HW147031   5.350   1.545   4.372
15064SOL    HW247032   5.441   1.447   4.444
15065SOL     OW47033   0.091   3.067  13.496
15065SOL    HW147034   0.159   3.119  13.538
15065SOL    HW247035   0.138   3.011  13.434
15066SOL     OW47036   6.396   7.222   3.107
15066SOL    HW147037   6.412   7.233   3.201
15066SOL    HW247038   6.342   7.144   3.101
15067SOL     OW47039   9.593  11.864   7.508
15067SOL    HW147040   9.527  11.933   7.514
15067SOL    HW247041   9.668  11.897   7.558
15068SOL     OW47042   7.320   6.937  10.646
15068SOL    HW147043   7.266   6.997  10.593
15068SOL    HW247044   7.408   6.975  10.643
15069SOL     OW47045   6.263   9.694   4.680
15069SOL    HW147046   6.183   9.725   4.639
15069SOL    HW247047   6.303   9.637   4.614
15070SOL     OW47048   7.879  12.066   4.208
15070SOL    HW147049   7.903  12.129   4.277
15070SOL    HW247050   7.949  12.075   4.143
15071SOL     OW47051  11.349   4.652  13.965
15071SOL    HW147052  11.340   4.658  14.061
15071SOL    HW247053  11.318   4.736  13.933
15072SOL     OW47054   1.269   3.059   0.587
15072SOL    HW147055   1.283   2.968   0.612
15072SOL    HW247056   1.198   3.057   0.523
15073SOL     OW47057   4.038  13.642  11.016
15073SOL    HW147058   4.001  13.647  10.928
15073SOL    HW247059   4.044  13.548  11.034
15074SOL     OW47060   0.089   8.702   3.068
15074SOL    HW147061   0.171   8.665   3.100
15074SOL    HW247062   0.048   8.631   3.019
15075SOL     OW47063   7.782  14.794   1.938
15075SOL    HW147064   7.696  14.822   1.906
15075SOL    HW247065   7.765  14.712   1.983
15076SOL     OW47066   5.257  10.669   1.872
15076SOL    HW147067   5.264  10.603   1.804
15076SOL    HW247068   5.322  10.643   1.938
15077SOL     OW47069  12.965  11.254  10.245
15077SOL    HW147070  13.036  11.206  10.201
15077SOL    HW247071  12.899  11.187  10.262
15078SOL     OW47072  10.354   1.158   5.455
15078SOL    HW147073  10.304   1.182   5.377
15078SOL    HW247074  10.291   1.165   5.526
15079SOL     OW47075  10.823   4.326  10.204
15079SOL    HW147076  10.813   4.366  10.117
15079SOL    HW247077  10.762   4.252  10.203
15080SOL     OW47078  12.964  13.164   2.459
15080SOL    HW147079  13.032  13.097   2.455
15080SOL    HW247080  13.010  13.247   2.446
15081SOL     OW47081   0.866  12.199  14.113
15081SOL    HW147082   0.905  12.189  14.200
15081SOL    HW247083   0.909  12.131  14.060
15082SOL     OW47084  11.195   4.094   8.737
15082SOL    HW147085  11.109   4.129   8.759
15082SOL    HW247086  11.216   4.034   8.809
15083SOL     OW47087   5.687  10.105  14.660
15083SOL    HW147088   5.726  10.021  14.638
15083SOL    HW247089   5.614  10.115  14.600
15084SOL     OW47090   8.120   4.514  11.176
15084SOL    HW147091   8.118   4.437  11.119
15084SOL    HW247092   8.195   4.565  11.145
15085SOL     OW47093  12.690   9.740  10.811
15085SOL    HW147094  12.673   9.676  10.742
15085SOL    HW247095  12.654   9.700  10.890
15086SOL     OW47096   0.592   9.767   0.731
15086SOL    HW147097   0.509   9.755   0.779
15086SOL    HW247098   0.651   9.703   0.770
15087SOL     OW47099   6.970   0.093   7.507
15087SOL    HW147100   6.939   0.154   7.441
15087SOL    HW247101   6.988   0.012   7.459
15088SOL     OW47102   8.222   2.664   9.780
15088SOL    HW147103   8.291   2.717   9.822
15088SOL    HW247104   8.212   2.701   9.693
15089SOL     OW47105   0.470   3.252   2.964
15089SOL    HW147106   0.434   3.203   3.038
15089SOL    HW247107   0.468   3.190   2.891
15090SOL     OW47108  12.561  12.711   4.917
15090SOL    HW147109  12.537  12.803   4.906
15090SOL    HW247110  12.518  12.685   4.998
15091SOL     OW47111   6.151   8.604   7.387
15091SOL    HW147112   6.056   8.593   7.383
15091SOL    HW247113   6.178   8.549   7.460
15092SOL     OW47114  13.835   8.553   1.974
15092SOL    HW147115  13.805   8.641   1.950
15092SOL    HW247116  13.774   8.494   1.930
15093SOL     OW47117   7.872  10.102   2.035
15093SOL    HW147118   7.897  10.138   1.950
15093SOL    HW247119   7.945  10.123   2.093
15094SOL     OW47120   8.907   3.948   3.585
15094SOL    HW147121   8.857   4.013   3.535
15094SOL    HW247122   8.901   3.978   3.676
15095SOL     OW47123   0.349   8.234  11.789
15095SOL    HW147124   0.284   8.288  11.834
15095SOL    HW247125   0.390   8.293  11.727
15096SOL     OW47126   6.853   6.259  11.152
15096SOL    HW147127   6.781   6.268  11.214
15096SOL    HW247128   6.812   6.263  11.066
15097SOL     OW47129   8.932  10.034   6.007
15097SOL    HW147130   8.906   9.987   6.086
15097SOL    HW247131   9.018   9.999   5.984
15098SOL     OW47132  10.686   9.341   8.356
15098SOL    HW147133  10.647   9.364   8.271
15098SOL    HW247134  10.638   9.393   8.420
15099SOL     OW47135   2.141   6.773  14.263
15099SOL    HW147136   2.045   6.771  14.257
15099SOL    HW247137   2.169   6.818  14.184
15100SOL     OW47138  12.193   3.098   0.808
15100SOL    HW147139  12.263   3.043   0.844
15100SOL    HW247140  12.129   3.036   0.772
15101SOL     OW47141   7.117   3.792   7.697
15101SOL    HW147142   7.033   3.807   7.741
15101SOL    HW247143   7.168   3.740   7.760
15102SOL     OW47144   9.545  10.881   4.373
15102SOL    HW147145   9.461  10.841   4.397
15102SOL    HW247146   9.596  10.881   4.454
15103SOL     OW47147   9.787   6.368   7.236
15103SOL    HW147148   9.706   6.362   7.286
15103SOL    HW247149   9.845   6.304   7.276
15104SOL     OW47150   5.348  14.809  10.952
15104SOL    HW147151   5.431  14.794  10.906
15104SOL    HW247152   5.328  14.725  10.994
15105SOL     OW47153   9.250   3.684   5.450
15105SOL    HW147154   9.168   3.704   5.406
15105SOL    HW247155   9.318   3.722   5.393
15106SOL     OW47156   3.889   9.033   6.547
15106SOL    HW147157   3.841   9.092   6.605
15106SOL    HW247158   3.980   9.044   6.573
15107SOL     OW47159  12.775  10.066   0.443
15107SOL    HW147160  12.764  10.137   0.506
15107SOL    HW247161  12.704  10.005   0.462
15108SOL     OW47162   3.429   9.316   8.503
15108SOL    HW147163   3.450   9.243   8.444
15108SOL    HW247164   3.414   9.390   8.444
15109SOL     OW47165   2.629   4.845  14.135
15109SOL    HW147166   2.703   4.858  14.195
15109SOL    HW247167   2.573   4.921  14.149
15110SOL     OW47168   0.200   0.904   4.529
15110SOL    HW147169   0.241   0.906   4.443
15110SOL    HW247170   0.246   0.833   4.575
15111SOL     OW47171   0.134   2.187   4.780
15111SOL    HW147172   0.185   2.193   4.699
15111SOL    HW247173   0.067   2.120   4.760
15112SOL     OW47174   2.644   0.992  14.085
15112SOL    HW147175   2.575   0.930  14.110
15112SOL    HW247176   2.671   1.033  14.167
15113SOL     OW47177   1.288  11.318   6.762
15113SOL    HW147178   1.252  11.402   6.734
15113SOL    HW247179   1.361  11.301   6.702
15114SOL     OW47180   2.801   9.518   4.616
15114SOL    HW147181   2.827   9.583   4.680
15114SOL    HW247182   2.874   9.515   4.554
15115SOL     OW47183   9.461   8.293   0.069
15115SOL    HW147184   9.402   8.226   0.103
15115SOL    HW247185   9.547   8.269   0.104
15116SOL     OW47186   7.112   6.988   4.598
15116SOL    HW147187   7.194   6.980   4.646
15116SOL    HW247188   7.047   6.949   4.655
15117SOL     OW47189   6.773   6.250  12.039
15117SOL    HW147190   6.759   6.178  12.101
15117SOL    HW247191   6.740   6.328  12.084
15118SOL     OW47192   7.578   2.922  12.467
15118SOL    HW147193   7.529   2.846  12.498
15118SOL    HW247194   7.516   2.995  12.478
15119SOL     OW47195   1.987   8.543   6.400
15119SOL    HW147196   1.909   8.497   6.433
15119SOL    HW247197   1.978   8.540   6.305
15120SOL     OW47198   2.972  14.483   4.170
15120SOL    HW147199   2.994  14.570   4.203
15120SOL    HW247200   3.044  14.427   4.201
15121SOL     OW47201   7.596  13.058  11.141
15121SOL    HW147202   7.676  13.008  11.157
15121SOL    HW247203   7.603  13.133  11.199
15122SOL     OW47204   4.360   7.711   5.542
15122SOL    HW147205   4.322   7.627   5.516
15122SOL    HW247206   4.450   7.707   5.511
15123SOL     OW47207   8.362  13.476  10.993
15123SOL    HW147208   8.296  13.528  10.948
15123SOL    HW247209   8.318  13.394  11.016
15124SOL     OW47210   3.838   2.724  10.357
15124SOL    HW147211   3.926   2.699  10.384
15124SOL    HW247212   3.808   2.652  10.302
15125SOL     OW47213   8.271   7.718   2.790
15125SOL    HW147214   8.339   7.742   2.726
15125SOL    HW247215   8.290   7.772   2.866
15126SOL     OW47216   0.933   0.337  13.527
15126SOL    HW147217   0.844   0.320  13.498
15126SOL    HW247218   0.924   0.395  13.602
15127SOL     OW47219  11.697   4.436   9.976
15127SOL    HW147220  11.725   4.437   9.885
15127SOL    HW247221  11.726   4.521  10.011
15128SOL     OW47222  12.365  11.644   2.053
15128SOL    HW147223  12.308  11.585   2.103
15128SOL    HW247224  12.325  11.730   2.062
15129SOL     OW47225   9.536   9.501   8.310
15129SOL    HW147226   9.462   9.511   8.369
15129SOL    HW247227   9.513   9.554   8.233
15130SOL     OW47228   3.418   4.008  10.443
15130SOL    HW147229   3.411   3.915  10.421
15130SOL    HW247230   3.454   4.049  10.364
15131SOL     OW47231   1.290   7.653   8.111
15131SOL    HW147232   1.257   7.648   8.021
15131SOL    HW247233   1.282   7.745   8.134
15132SOL     OW47234   7.108   8.738   2.896
15132SOL    HW147235   7.016   8.762   2.885
15132SOL    HW247236   7.157   8.812   2.861
15133SOL     OW47237   2.338   5.212   8.879
15133SOL    HW147238   2.390   5.265   8.820
15133SOL    HW247239   2.247   5.230   8.854
15134SOL     OW47240  14.551  14.017   0.027
15134SOL    HW147241  14.642  14.042   0.011
15134SOL    HW247242  14.551  13.979   0.114
15135SOL     OW47243   1.433   1.950  12.350
15135SOL    HW147244   1.348   1.914  12.325
15135SOL    HW247245   1.454   1.906  12.432
15136SOL     OW47246   5.475  11.334   6.818
15136SOL    HW147247   5.400  11.368   6.866
15136SOL    HW247248   5.500  11.405   6.759
15137SOL     OW47249  13.957   2.450   4.289
15137SOL    HW147250  13.969   2.535   4.246
15137SOL    HW247251  13.982   2.466   4.381
15138SOL     OW47252  12.054   7.953  11.454
15138SOL    HW147253  12.105   7.942  11.534
15138SOL    HW247254  11.980   7.893  11.465
15139SOL     OW47255   5.060  13.304   3.465
15139SOL    HW147256   5.145  13.301   3.422
15139SOL    HW247257   5.001  13.344   3.400
15140SOL     OW47258  10.880   1.870   2.649
15140SOL    HW147259  10.963   1.903   2.615
15140SOL    HW247260  10.823   1.864   2.572
15141SOL     OW47261  12.820  14.599  11.052
15141SOL    HW147262  12.778  14.665  10.997
15141SOL    HW247263  12.789  14.515  11.017
15142SOL     OW47264  11.530   4.777   1.291
15142SOL    HW147265  11.607   4.832   1.276
15142SOL    HW247266  11.531   4.714   1.219
15143SOL     OW47267   8.068   0.158  10.262
15143SOL    HW147268   8.103   0.151  10.173
15143SOL    HW247269   8.071   0.251  10.281
15144SOL     OW47270  11.834   9.914  10.706
15144SOL    HW147271  11.911   9.871  10.669
15144SOL    HW247272  11.868   9.997  10.742
15145SOL     OW47273   7.524   9.296   5.229
15145SOL    HW147274   7.586   9.263   5.164
15145SOL    HW247275   7.564   9.377   5.261
15146SOL     OW47276  12.883   3.694  13.154
15146SOL    HW147277  12.964   3.703  13.103
15146SOL    HW247278  12.877   3.775  13.203
15147SOL     OW47279   4.415   1.772   6.111
15147SOL    HW147280   4.436   1.745   6.200
15147SOL    HW247281   4.435   1.865   6.108
15148SOL     OW47282   6.176   7.315   4.041
15148SOL    HW147283   6.263   7.319   4.001
15148SOL    HW247284   6.159   7.221   4.052
15149SOL     OW47285  11.488   9.784   4.580
15149SOL    HW147286  11.494   9.863   4.634
15149SOL    HW247287  11.504   9.815   4.491
15150SOL     OW47288  12.965  11.423  11.774
15150SOL    HW147289  12.916  11.492  11.731
15150SOL    HW247290  12.915  11.403  11.853
15151SOL     OW47291   7.592   9.930   1.311
15151SOL    HW147292   7.529   9.928   1.384
15151SOL    HW247293   7.579   9.847   1.266
15152SOL     OW47294   0.590   6.032   4.941
15152SOL    HW147295   0.546   5.991   5.015
15152SOL    HW247296   0.584   5.968   4.870
15153SOL     OW47297   0.603  12.029   1.535
15153SOL    HW147298   0.663  12.056   1.465
15153SOL    HW247299   0.598  12.104   1.594
15154SOL     OW47300   9.008  14.753   2.374
15154SOL    HW147301   9.006  14.823   2.308
15154SOL    HW247302   9.012  14.799   2.458
15155SOL     OW47303   3.115   1.199  11.305
15155SOL    HW147304   3.145   1.118  11.346
15155SOL    HW247305   3.021   1.186  11.292
15156SOL     OW47306   5.420   1.101   3.237
15156SOL    HW147307   5.381   1.045   3.170
15156SOL    HW247308   5.398   1.190   3.211
15157SOL     OW47309   5.903   9.794  11.224
15157SOL    HW147310   5.814   9.812  11.195
15157SOL    HW247311   5.894   9.769  11.316
15158SOL     OW47312   5.272   4.110  11.880
15158SOL    HW147313   5.251   4.111  11.974
15158SOL    HW247314   5.344   4.048  11.873
15159SOL     OW47315  11.439  14.249   3.201
15159SOL    HW147316  11.469  14.172   3.154
15159SOL    HW247317  11.369  14.285   3.147
15160SOL     OW47318   5.914   9.568   0.435
15160SOL    HW147319   5.988   9.519   0.400
15160SOL    HW247320   5.850   9.567   0.364
15161SOL     OW47321   9.350  12.237   5.569
15161SOL    HW147322   9.257  12.234   5.546
15161SOL    HW247323   9.375  12.328   5.558
15162SOL     OW47324   7.765   8.590   3.103
15162SOL    HW147325   7.692   8.565   3.047
15162SOL    HW247326   7.790   8.677   3.073
15163SOL     OW47327   3.165   3.085   6.356
15163SOL    HW147328   3.103   3.147   6.395
15163SOL    HW247329   3.235   3.139   6.320
15164SOL     OW47330   8.832  11.957   0.604
15164SOL    HW147331   8.814  11.988   0.515
15164SOL    HW247332   8.750  11.970   0.651
15165SOL     OW47333  10.525   1.290   4.986
15165SOL    HW147334  10.511   1.204   5.026
15165SOL    HW247335  10.438   1.319   4.960
15166SOL     OW47336  13.820   9.000   3.079
15166SOL    HW147337  13.740   8.972   3.035
15166SOL    HW247338  13.885   9.007   3.009
15167SOL     OW47339  10.106   2.314   8.798
15167SOL    HW147340  10.159   2.245   8.839
15167SOL    HW247341  10.170   2.380   8.772
15168SOL     OW47342   6.413  14.703   5.282
15168SOL    HW147343   6.344  14.732   5.341
15168SOL    HW247344   6.466  14.781   5.266
15169SOL     OW47345  10.886   1.020  11.095
15169SOL    HW147346  10.822   0.951  11.114
15169SOL    HW247347  10.966   0.972  11.073
15170SOL     OW47348   7.715   5.638   0.406
15170SOL    HW147349   7.791   5.583   0.391
15170SOL    HW247350   7.649   5.578   0.441
15171SOL     OW47351  12.032  13.216   6.453
15171SOL    HW147352  11.942  13.186   6.463
15171SOL    HW247353  12.061  13.234   6.542
15172SOL     OW47354   6.203   3.373  12.774
15172SOL    HW147355   6.150   3.296  12.753
15172SOL    HW247356   6.182   3.392  12.866
15173SOL     OW47357   4.421   5.190   1.979
15173SOL    HW147358   4.433   5.283   1.998
15173SOL    HW247359   4.326   5.177   1.981
15174SOL     OW47360  12.082   5.196   1.623
15174SOL    HW147361  12.132   5.157   1.694
15174SOL    HW247362  12.106   5.146   1.545
15175SOL     OW47363   8.918   6.045   5.424
15175SOL    HW147364   8.871   6.077   5.502
15175SOL    HW247365   8.947   6.124   5.380
15176SOL     OW47366  10.555   9.776   5.140
15176SOL    HW147367  10.503   9.805   5.065
15176SOL    HW247368  10.646   9.794   5.115
15177SOL     OW47369   4.812   4.094   3.827
15177SOL    HW147370   4.872   4.022   3.847
15177SOL    HW247371   4.758   4.062   3.755
15178SOL     OW47372   2.097  14.512  13.991
15178SOL    HW147373   2.077  14.473  14.077
15178SOL    HW247374   2.192  14.523  13.992
15179SOL     OW47375   1.434  10.802   2.554
15179SOL    HW147376   1.417  10.883   2.506
15179SOL    HW247377   1.529  10.801   2.566
15180SOL     OW47378   1.853   2.135  14.446
15180SOL    HW147379   1.933   2.083  14.443
15180SOL    HW247380   1.883   2.225  14.435
15181SOL     OW47381  11.105   5.329   3.848
15181SOL    HW147382  11.042   5.266   3.813
15181SOL    HW247383  11.072   5.349   3.936
15182SOL     OW47384   9.395   8.367   3.177
15182SOL    HW147385   9.387   8.399   3.087
15182SOL    HW247386   9.484   8.331   3.182
15183SOL     OW47387   1.367   8.922   4.853
15183SOL    HW147388   1.429   8.969   4.908
15183SOL    HW247389   1.384   8.830   4.870
15184SOL     OW47390   7.649   2.390   9.226
15184SOL    HW147391   7.721   2.373   9.165
15184SOL    HW247392   7.599   2.308   9.226
15185SOL     OW47393   9.954   4.434  14.239
15185SOL    HW147394   9.932   4.515  14.191
15185SOL    HW247395   9.928   4.452  14.329
15186SOL     OW47396   6.262  13.758  11.218
15186SOL    HW147397   6.168  13.774  11.220
15186SOL    HW247398   6.282  13.745  11.126
15187SOL     OW47399   3.329   1.205   9.806
15187SOL    HW147400   3.421   1.225   9.787
15187SOL    HW247401   3.280   1.277   9.766
15188SOL     OW47402   2.352  10.579   1.493
15188SOL    HW147403   2.447  10.582   1.479
15188SOL    HW247404   2.342  10.576   1.588
15189SOL     OW47405  14.119  14.828   1.349
15189SOL    HW147406  14.082  14.743   1.325
15189SOL    HW247407  14.212  14.821   1.327
15190SOL     OW47408   1.610   9.848   5.514
15190SOL    HW147409   1.556   9.770   5.528
15190SOL    HW247410   1.689   9.815   5.470
15191SOL     OW47411   7.441   4.030  10.448
15191SOL    HW147412   7.389   3.980  10.510
15191SOL    HW247413   7.384   4.101  10.419
15192SOL     OW47414   6.052   3.031  10.582
15192SOL    HW147415   6.064   3.110  10.529
15192SOL    HW247416   6.048   2.960  10.518
15193SOL     OW47417   8.258   4.931  13.150
15193SOL    HW147418   8.246   5.016  13.192
15193SOL    HW247419   8.292   4.874  13.219
15194SOL     OW47420   1.538   1.072  13.185
15194SOL    HW147421   1.560   0.992  13.136
15194SOL    HW247422   1.459   1.105  13.141
15195SOL     OW47423   6.697   1.567   2.615
15195SOL    HW147424   6.706   1.532   2.526
15195SOL    HW247425   6.696   1.662   2.603
15196SOL     OW47426   3.236   6.401  14.265
15196SOL    HW147427   3.249   6.416  14.358
15196SOL    HW247428   3.177   6.325  14.260
15197SOL     OW47429   2.536   2.505   3.006
15197SOL    HW147430   2.562   2.439   3.070
15197SOL    HW247431   2.603   2.573   3.014
15198SOL     OW47432   5.049   2.558  12.615
15198SOL    HW147433   5.004   2.516  12.542
15198SOL    HW247434   5.116   2.612  12.575
15199SOL     OW47435  10.967   0.011   9.497
15199SOL    HW147436  10.974  14.865   9.406
15199SOL    HW247437  11.057   0.028   9.524
15200SOL     OW47438  11.738  14.199   5.942
15200SOL    HW147439  11.830  14.216   5.918
15200SOL    HW247440  11.688  14.264   5.893
15201SOL     OW47441  10.310  10.847   6.462
15201SOL    HW147442  10.281  10.873   6.549
15201SOL    HW247443  10.394  10.802   6.477
15202SOL     OW47444   4.062  11.010   1.833
15202SOL    HW147445   4.059  10.915   1.824
15202SOL    HW247446   4.073  11.042   1.744
15203SOL     OW47447  11.148  13.791  10.810
15203SOL    HW147448  11.159  13.823  10.899
15203SOL    HW247449  11.226  13.824  10.763
15204SOL     OW47450   2.519  10.996   4.972
15204SOL    HW147451   2.606  11.022   4.942
15204SOL    HW247452   2.489  11.069   5.025
15205SOL     OW47453  10.647   6.093   3.646
15205SOL    HW147454  10.617   6.162   3.587
15205SOL    HW247455  10.570   6.039   3.662
15206SOL     OW47456   4.317   4.894  11.183
15206SOL    HW147457   4.370   4.973  11.196
15206SOL    HW247458   4.344   4.836  11.254
15207SOL     OW47459   8.488  10.376   6.895
15207SOL    HW147460   8.573  10.391   6.936
15207SOL    HW247461   8.441  10.321   6.958
15208SOL     OW47462   2.096  11.114   5.545
15208SOL    HW147463   2.166  11.064   5.586
15208SOL    HW247464   2.078  11.068   5.463
15209SOL     OW47465   9.997   9.968  10.301
15209SOL    HW147466   9.973   9.889  10.252
15209SOL    HW247467   9.980   9.946  10.392
15210SOL     OW47468   0.958   9.348  10.523
15210SOL    HW147469   0.901   9.289  10.573
15210SOL    HW247470   1.045   9.310  10.531
15211SOL     OW47471   5.650   0.599   7.842
15211SOL    HW147472   5.728   0.558   7.807
15211SOL    HW247473   5.579   0.568   7.786
15212SOL     OW47474   9.106   1.153  11.826
15212SOL    HW147475   9.096   1.239  11.868
15212SOL    HW247476   9.161   1.103  11.886
15213SOL     OW47477   9.428   6.728   2.793
15213SOL    HW147478   9.444   6.665   2.722
15213SOL    HW247479   9.506   6.784   2.793
15214SOL     OW47480   9.789   6.866   6.108
15214SOL    HW147481   9.811   6.854   6.015
15214SOL    HW247482   9.726   6.938   6.108
15215SOL     OW47483   1.645   2.622  10.332
15215SOL    HW147484   1.648   2.552  10.398
15215SOL    HW247485   1.552   2.641  10.323
15216SOL     OW47486  13.208   2.587  12.827
15216SOL    HW147487  13.258   2.506  12.828
15216SOL    HW247488  13.267   2.652  12.866
15217SOL     OW47489  11.626   2.433  11.665
15217SOL    HW147490  11.597   2.353  11.621
15217SOL    HW247491  11.577   2.433  11.748
15218SOL     OW47492   3.681   9.423  13.761
15218SOL    HW147493   3.745   9.361  13.796
15218SOL    HW247494   3.690   9.501  13.815
15219SOL     OW47495   9.385  10.858   0.871
15219SOL    HW147496   9.452  10.827   0.810
15219SOL    HW247497   9.428  10.858   0.956
15220SOL     OW47498  10.169  12.788  13.452
15220SOL    HW147499  10.204  12.710  13.408
15220SOL    HW247500  10.197  12.779  13.543
15221SOL     OW47501   7.707  11.422   2.692
15221SOL    HW147502   7.625  11.380   2.666
15221SOL    HW247503   7.681  11.499   2.742
15222SOL     OW47504  11.037   9.622   0.344
15222SOL    HW147505  11.098   9.548   0.342
15222SOL    HW247506  11.031   9.646   0.436
15223SOL     OW47507  12.775   9.899  11.762
15223SOL    HW147508  12.815   9.813  11.769
15223SOL    HW247509  12.837   9.950  11.709
15224SOL     OW47510  13.144   6.516   0.328
15224SOL    HW147511  13.104   6.584   0.382
15224SOL    HW247512  13.235   6.511   0.358
15225SOL     OW47513  12.821  11.380  10.011
15225SOL    HW147514  12.900  11.406   9.963
15225SOL    HW247515  12.850  11.369  10.102
15226SOL     OW47516  14.494  12.772   6.492
15226SOL    HW147517  14.549  12.786   6.415
15226SOL    HW247518  14.556  12.745   6.561
15227SOL     OW47519   2.015   8.703  13.145
15227SOL    HW147520   2.071   8.644  13.195
15227SOL    HW247521   1.940   8.719  13.203
15228SOL     OW47522   5.822   0.973   4.649
15228SOL    HW147523   5.819   1.018   4.564
15228SOL    HW247524   5.799   1.040   4.713
15229SOL     OW47525  10.780   0.459   5.879
15229SOL    HW147526  10.762   0.369   5.852
15229SOL    HW247527  10.709   0.511   5.842
15230SOL     OW47528   7.982  12.772   5.655
15230SOL    HW147529   8.049  12.728   5.604
15230SOL    HW247530   8.005  12.864   5.651
15231SOL     OW47531  14.320   9.529  11.976
15231SOL    HW147532  14.331   9.618  11.943
15231SOL    HW247533  14.335   9.536  12.070
15232SOL     OW47534   3.762   2.989   9.215
15232SOL    HW147535   3.847   2.998   9.257
15232SOL    HW247536   3.699   2.991   9.287
15233SOL     OW47537  13.091   4.764   6.397
15233SOL    HW147538  13.058   4.769   6.486
15233SOL    HW247539  13.095   4.670   6.378
15234SOL     OW47540   9.532  10.444   5.361
15234SOL    HW147541   9.560  10.382   5.427
15234SOL    HW247542   9.589  10.427   5.286
15235SOL     OW47543   5.990  13.821  12.005
15235SOL    HW147544   6.046  13.744  11.991
15235SOL    HW247545   5.925  13.792  12.070
15236SOL     OW47546   5.815  13.204  13.940
15236SOL    HW147547   5.757  13.263  13.891
15236SOL    HW247548   5.862  13.261  14.001
15237SOL     OW47549   3.281  10.600   0.269
15237SOL    HW147550   3.369  10.624   0.300
15237SOL    HW247551   3.294  10.580   0.176
15238SOL     OW47552   7.097   0.208   6.948
15238SOL    HW147553   7.027   0.256   6.902
15238SOL    HW247554   7.176   0.228   6.898
15239SOL     OW47555   3.891   9.004   3.681
15239SOL    HW147556   3.833   9.024   3.607
15239SOL    HW247557   3.833   8.964   3.746
15240SOL     OW47558   9.819  10.294   6.371
15240SOL    HW147559   9.910  10.275   6.397
15240SOL    HW247560   9.799  10.377   6.415
15241SOL     OW47561   7.713   4.980  11.891
15241SOL    HW147562   7.679   4.932  11.816
15241SOL    HW247563   7.754   5.058  11.853
15242SOL     OW47564   4.480   6.770  12.469
15242SOL    HW147565   4.502   6.788  12.377
15242SOL    HW247566   4.516   6.683  12.486
15243SOL     OW47567  10.821  13.609   3.137
15243SOL    HW147568  10.882  13.570   3.075
15243SOL    HW247569  10.814  13.545   3.208
15244SOL     OW47570   6.066   1.778   2.013
15244SOL    HW147571   6.011   1.830   2.071
15244SOL    HW247572   6.113   1.718   2.072
15245SOL     OW47573   3.921  11.018   8.989
15245SOL    HW147574   3.865  10.961   9.042
15245SOL    HW247575   3.934  11.096   9.042
15246SOL     OW47576  13.931  14.573  10.236
15246SOL    HW147577  14.006  14.610  10.283
15246SOL    HW247578  13.857  14.629  10.262
15247SOL     OW47579   5.784   8.969  11.651
15247SOL    HW147580   5.740   9.049  11.623
15247SOL    HW247581   5.830   8.994  11.732
15248SOL     OW47582   9.986  14.823   6.659
15248SOL    HW147583   9.894  14.841   6.639
15248SOL    HW247584   9.996  14.729   6.649
15249SOL     OW47585   4.146   1.501   0.647
15249SOL    HW147586   4.086   1.471   0.715
15249SOL    HW247587   4.203   1.563   0.691
15250SOL     OW47588   0.337  11.909   3.630
15250SOL    HW147589   0.337  11.939   3.539
15250SOL    HW247590   0.420  11.864   3.641
15251SOL     OW47591   1.360   2.532   5.152
15251SOL    HW147592   1.420   2.458   5.155
15251SOL    HW247593   1.327   2.539   5.242
15252SOL     OW47594   8.541   8.485  10.639
15252SOL    HW147595   8.616   8.427  10.629
15252SOL    HW247596   8.528   8.521  10.551
15253SOL     OW47597  11.312   0.311   1.822
15253SOL    HW147598  11.265   0.383   1.865
15253SOL    HW247599  11.292   0.321   1.729
15254SOL     OW47600   1.771   6.626   2.571
15254SOL    HW147601   1.746   6.693   2.508
15254SOL    HW247602   1.691   6.605   2.619
15255SOL     OW47603  10.434  12.788   1.420
15255SOL    HW147604  10.475  12.864   1.379
15255SOL    HW247605  10.357  12.770   1.365
15256SOL     OW47606   0.854   3.560   3.438
15256SOL    HW147607   0.929   3.574   3.496
15256SOL    HW247608   0.783   3.611   3.477
15257SOL     OW47609   1.323  12.825  11.071
15257SOL    HW147610   1.367  12.843  11.154
15257SOL    HW247611   1.395  12.820  11.007
15258SOL     OW47612  10.468   2.408   3.218
15258SOL    HW147613  10.553   2.406   3.261
15258SOL    HW247614  10.416   2.471   3.268
15259SOL     OW47615   2.600   9.866  13.779
15259SOL    HW147616   2.514   9.903  13.758
15259SOL    HW247617   2.662   9.937  13.761
15260SOL     OW47618  13.902  11.943  10.962
15260SOL    HW147619  13.827  11.983  11.007
15260SOL    HW247620  13.864  11.895  10.889
15261SOL     OW47621   3.221   4.410   6.728
15261SOL    HW147622   3.149   4.347   6.729
15261SOL    HW247623   3.239   4.429   6.820
15262SOL     OW47624   6.705  14.629   7.974
15262SOL    HW147625   6.731  14.673   7.894
15262SOL    HW247626   6.744  14.682   8.044
15263SOL     OW47627  11.497   6.403  14.293
15263SOL    HW147628  11.509   6.483  14.345
15263SOL    HW247629  11.565   6.344  14.325
15264SOL     OW47630   3.817   9.519   1.162
15264SOL    HW147631   3.788   9.521   1.071
15264SOL    HW247632   3.738   9.538   1.213
15265SOL     OW47633   9.330   8.969  14.028
15265SOL    HW147634   9.356   8.943  13.940
15265SOL    HW247635   9.411   8.965  14.079
15266SOL     OW47636   2.634   5.149  11.612
15266SOL    HW147637   2.711   5.187  11.655
15266SOL    HW247638   2.569   5.219  11.612
15267SOL     OW47639   1.264   1.925   1.687
15267SOL    HW147640   1.170   1.913   1.677
15267SOL    HW247641   1.302   1.842   1.656
15268SOL     OW47642   7.143   4.096  14.120
15268SOL    HW147643   7.092   4.094  14.038
15268SOL    HW247644   7.182   4.183  14.121
15269SOL     OW47645  13.602  13.276   8.716
15269SOL    HW147646  13.647  13.226   8.649
15269SOL    HW247647  13.663  13.345   8.742
15270SOL     OW47648   6.440   5.672   3.167
15270SOL    HW147649   6.478   5.718   3.242
15270SOL    HW247650   6.370   5.618   3.205
15271SOL     OW47651   3.950   9.144   7.581
15271SOL    HW147652   3.862   9.179   7.572
15271SOL    HW247653   3.948   9.093   7.662
15272SOL     OW47654   9.898  14.319   0.671
15272SOL    HW147655   9.903  14.250   0.737
15272SOL    HW247656   9.889  14.400   0.722
15273SOL     OW47657   7.310  14.535   5.907
15273SOL    HW147658   7.332  14.445   5.930
15273SOL    HW247659   7.308  14.582   5.990
15274SOL     OW47660   4.097  11.340  10.661
15274SOL    HW147661   4.157  11.392  10.607
15274SOL    HW247662   4.146  11.259  10.678
15275SOL     OW47663   9.458   7.531   5.404
15275SOL    HW147664   9.409   7.604   5.366
15275SOL    HW247665   9.527   7.513   5.339
15276SOL     OW47666   2.887   6.644   6.618
15276SOL    HW147667   2.918   6.578   6.681
15276SOL    HW247668   2.840   6.708   6.672
15277SOL     OW47669   8.725   8.806   8.703
15277SOL    HW147670   8.800   8.836   8.652
15277SOL    HW247671   8.720   8.867   8.777
15278SOL     OW47672   4.561  11.961   7.132
15278SOL    HW147673   4.615  11.883   7.141
15278SOL    HW247674   4.530  11.980   7.220
15279SOL     OW47675   1.543   8.205   1.885
15279SOL    HW147676   1.634   8.221   1.861
15279SOL    HW247677   1.547   8.130   1.945
15280SOL     OW47678   2.459   1.340   5.739
15280SOL    HW147679   2.397   1.304   5.803
15280SOL    HW247680   2.453   1.281   5.664
15281SOL     OW47681   2.296   0.348  12.575
15281SOL    HW147682   2.266   0.259  12.557
15281SOL    HW247683   2.215   0.399  12.582
15282SOL     OW47684   3.299   5.648   3.809
15282SOL    HW147685   3.344   5.580   3.858
15282SOL    HW247686   3.368   5.694   3.761
15283SOL     OW47687  10.426  12.032   4.123
15283SOL    HW147688  10.377  11.950   4.111
15283SOL    HW247689  10.498  12.009   4.181
15284SOL     OW47690   6.045   5.312   8.639
15284SOL    HW147691   6.011   5.366   8.710
15284SOL    HW247692   6.140   5.314   8.650
15285SOL     OW47693   1.693   4.728  13.614
15285SOL    HW147694   1.664   4.817  13.595
15285SOL    HW247695   1.612   4.680  13.632
15286SOL     OW47696  12.167   8.399   0.930
15286SOL    HW147697  12.154   8.484   0.973
15286SOL    HW247698  12.141   8.415   0.839
15287SOL     OW47699   1.774   5.400   4.014
15287SOL    HW147700   1.716   5.474   4.001
15287SOL    HW247701   1.726   5.325   3.980
15288SOL     OW47702   5.893   9.554  14.343
15288SOL    HW147703   5.935   9.492  14.402
15288SOL    HW247704   5.823   9.593  14.396
15289SOL     OW47705   3.187   8.035  11.136
15289SOL    HW147706   3.259   8.071  11.085
15289SOL    HW247707   3.220   8.032  11.226
15290SOL     OW47708  13.703  11.659   1.054
15290SOL    HW147709  13.633  11.724   1.050
15290SOL    HW247710  13.763  11.693   1.121
15291SOL     OW47711   2.182  10.592  13.743
15291SOL    HW147712   2.271  10.567  13.770
15291SOL    HW247713   2.127  10.567  13.817
15292SOL     OW47714   0.661  13.211  10.134
15292SOL    HW147715   0.690  13.152  10.203
15292SOL    HW247716   0.707  13.180  10.055
15293SOL     OW47717   1.745   6.412  13.768
15293SOL    HW147718   1.660   6.454  13.751
15293SOL    HW247719   1.810   6.476  13.740
15294SOL     OW47720  13.080  12.452   9.543
15294SOL    HW147721  13.050  12.374   9.496
15294SOL    HW247722  13.001  12.502   9.561
15295SOL     OW47723   7.710   6.825   6.152
15295SOL    HW147724   7.620   6.795   6.135
15295SOL    HW247725   7.723   6.807   6.246
15296SOL     OW47726  12.770   6.379   2.355
15296SOL    HW147727  12.722   6.395   2.436
15296SOL    HW247728  12.845   6.325   2.381
15297SOL     OW47729  11.114   2.732   8.223
15297SOL    HW147730  11.121   2.820   8.261
15297SOL    HW247731  11.052   2.687   8.279
15298SOL     OW47732   0.459   7.313   5.828
15298SOL    HW147733   0.548   7.318   5.794
15298SOL    HW247734   0.445   7.398   5.870
15299SOL     OW47735   0.387  11.350   5.749
15299SOL    HW147736   0.397  11.363   5.844
15299SOL    HW247737   0.388  11.255   5.738
15300SOL     OW47738   1.754  10.893   6.180
15300SOL    HW147739   1.830  10.872   6.235
15300SOL    HW247740   1.713  10.808   6.162
15301SOL     OW47741   4.109   1.259   3.683
15301SOL    HW147742   4.135   1.338   3.634
15301SOL    HW247743   4.014   1.264   3.688
15302SOL     OW47744   2.981   2.542  11.685
15302SOL    HW147745   2.916   2.566  11.620
15302SOL    HW247746   2.930   2.516  11.762
15303SOL     OW47747   7.458   1.554   2.294
15303SOL    HW147748   7.457   1.575   2.201
15303SOL    HW247749   7.550   1.559   2.319
15304SOL     OW47750   8.479  13.124   9.665
15304SOL    HW147751   8.478  13.197   9.603
15304SOL    HW247752   8.443  13.051   9.615
15305SOL     OW47753   6.098  10.031  12.693
15305SOL    HW147754   6.024  10.021  12.753
15305SOL    HW247755   6.163  10.081  12.743
15306SOL     OW47756   2.267  12.159   4.636
15306SOL    HW147757   2.278  12.134   4.544
15306SOL    HW247758   2.354  12.151   4.673
15307SOL     OW47759  11.602   0.431  14.691
15307SOL    HW147760  11.651   0.350  14.674
15307SOL    HW247761  11.556   0.448  14.609
15308SOL     OW47762   6.524   1.382   0.249
15308SOL    HW147763   6.544   1.469   0.216
15308SOL    HW247764   6.437   1.362   0.213
15309SOL     OW47765   0.305   0.565   5.762
15309SOL    HW147766   0.279   0.583   5.672
15309SOL    HW247767   0.278   0.474   5.778
15310SOL     OW47768   3.294   4.235   8.014
15310SOL    HW147769   3.374   4.254   8.064
15310SOL    HW247770   3.324   4.231   7.923
15311SOL     OW47771   6.879   9.641   3.086
15311SOL    HW147772   6.878   9.715   3.026
15311SOL    HW247773   6.865   9.681   3.172
15312SOL     OW47774  10.033   9.934   3.070
15312SOL    HW147775   9.975   9.859   3.054
15312SOL    HW247776  10.096   9.902   3.134
15313SOL     OW47777   8.177   2.168  11.101
15313SOL    HW147778   8.176   2.073  11.113
15313SOL    HW247779   8.260   2.196  11.140
15314SOL     OW47780   8.370   3.292   6.585
15314SOL    HW147781   8.418   3.364   6.625
15314SOL    HW247782   8.280   3.305   6.613
15315SOL     OW47783   1.888   2.104   5.631
15315SOL    HW147784   1.943   2.026   5.623
15315SOL    HW247785   1.877   2.135   5.541
15316SOL     OW47786  13.495   4.183   3.495
15316SOL    HW147787  13.413   4.152   3.533
15316SOL    HW247788  13.506   4.272   3.531
15317SOL     OW47789   6.647  14.637   0.947
15317SOL    HW147790   6.726  14.635   0.893
15317SOL    HW247791   6.579  14.597   0.892
15318SOL     OW47792  11.476   2.701   4.191
15318SOL    HW147793  11.508   2.775   4.244
15318SOL    HW247794  11.381   2.707   4.197
15319SOL     OW47795   6.523   3.815   8.491
15319SOL    HW147796   6.543   3.840   8.582
15319SOL    HW247797   6.585   3.745   8.471
15320SOL     OW47798   8.066  10.297   6.098
15320SOL    HW147799   8.142  10.265   6.146
15320SOL    HW247800   8.067  10.392   6.114
15321SOL     OW47801   6.230   8.289   5.218
15321SOL    HW147802   6.137   8.314   5.225
15321SOL    HW247803   6.229   8.206   5.171
15322SOL     OW47804   9.131  10.192  14.185
15322SOL    HW147805   9.057  10.253  14.187
15322SOL    HW247806   9.207  10.246  14.207
15323SOL     OW47807  12.804   0.682   5.941
15323SOL    HW147808  12.880   0.733   5.915
15323SOL    HW247809  12.739   0.747   5.970
15324SOL     OW47810  13.608   0.041   0.849
15324SOL    HW147811  13.525   0.050   0.895
15324SOL    HW247812  13.599   0.098   0.772
15325SOL     OW47813  14.354   6.076  13.109
15325SOL    HW147814  14.354   6.102  13.201
15325SOL    HW247815  14.446   6.060  13.088
15326SOL     OW47816   4.648  13.721   4.928
15326SOL    HW147817   4.620  13.635   4.897
15326SOL    HW247818   4.582  13.782   4.894
15327SOL     OW47819  14.429  10.260   5.247
15327SOL    HW147820  14.371  10.196   5.288
15327SOL    HW247821  14.450  10.222   5.161
15328SOL     OW47822   8.454   4.075   1.399
15328SOL    HW147823   8.479   4.034   1.316
15328SOL    HW247824   8.414   4.005   1.450
15329SOL     OW47825   7.654  11.874  10.468
15329SOL    HW147826   7.585  11.851  10.530
15329SOL    HW247827   7.660  11.799  10.409
15330SOL     OW47828  11.280   6.987   7.098
15330SOL    HW147829  11.305   7.079   7.103
15330SOL    HW247830  11.354   6.940   7.136
15331SOL     OW47831   0.614  13.375   1.240
15331SOL    HW147832   0.708  13.356   1.236
15331SOL    HW247833   0.591  13.398   1.150
15332SOL     OW47834  13.877  14.362  10.035
15332SOL    HW147835  13.875  14.439  10.092
15332SOL    HW247836  13.799  14.312  10.061
15333SOL     OW47837   8.167  11.594   8.465
15333SOL    HW147838   8.089  11.611   8.412
15333SOL    HW247839   8.154  11.646   8.544
15334SOL     OW47840   3.120   9.895  10.643
15334SOL    HW147841   3.167   9.969  10.684
15334SOL    HW247842   3.169   9.878  10.563
15335SOL     OW47843   9.279   3.931   9.128
15335SOL    HW147844   9.338   3.868   9.169
15335SOL    HW247845   9.307   3.933   9.036
15336SOL     OW47846   4.161  12.859  12.979
15336SOL    HW147847   4.121  12.831  13.061
15336SOL    HW247848   4.243  12.810  12.973
15337SOL     OW47849  13.755   0.469   2.783
15337SOL    HW147850  13.691   0.411   2.742
15337SOL    HW247851  13.832   0.413   2.796
15338SOL     OW47852   8.609   7.849  10.130
15338SOL    HW147853   8.662   7.792  10.075
15338SOL    HW247854   8.522   7.808  10.130
15339SOL     OW47855   0.632   2.959   1.048
15339SOL    HW147856   0.580   2.888   1.087
15339SOL    HW247857   0.574   2.996   0.981
15340SOL     OW47858  14.548   4.055  12.045
15340SOL    HW147859  14.554   4.021  12.134
15340SOL    HW247860  14.568   4.148  12.052
15341SOL     OW47861  11.257   3.058  12.593
15341SOL    HW147862  11.173   3.093  12.624
15341SOL    HW247863  11.259   3.080  12.500
15342SOL     OW47864   0.945  12.000   3.506
15342SOL    HW147865   1.002  11.974   3.579
15342SOL    HW247866   0.940  11.922   3.450
15343SOL     OW47867   9.486  12.321   3.843
15343SOL    HW147868   9.508  12.409   3.873
15343SOL    HW247869   9.507  12.264   3.917
15344SOL     OW47870   8.653   1.111  13.996
15344SOL    HW147871   8.698   1.178  14.048
15344SOL    HW247872   8.723   1.065  13.950
15345SOL     OW47873  10.907   5.067   1.173
15345SOL    HW147874  10.946   4.980   1.184
15345SOL    HW247875  10.832   5.052   1.115
15346SOL     OW47876   7.148  11.196   7.554
15346SOL    HW147877   7.196  11.272   7.523
15346SOL    HW247878   7.064  11.230   7.582
15347SOL     OW47879   9.867  13.807   9.657
15347SOL    HW147880   9.878  13.814   9.751
15347SOL    HW247881   9.784  13.761   9.645
15348SOL     OW47882   3.017   3.872   9.270
15348SOL    HW147883   2.984   3.903   9.186
15348SOL    HW247884   3.038   3.780   9.256
15349SOL     OW47885  12.008   4.519  14.522
15349SOL    HW147886  12.046   4.604  14.498
15349SOL    HW247887  11.930   4.541  14.572
15350SOL     OW47888  12.071  12.120   4.208
15350SOL    HW147889  12.055  12.088   4.297
15350SOL    HW247890  12.102  12.043   4.160
15351SOL     OW47891   1.694   3.649   8.797
15351SOL    HW147892   1.638   3.711   8.844
15351SOL    HW247893   1.635   3.578   8.771
15352SOL     OW47894   1.287   8.522   9.076
15352SOL    HW147895   1.286   8.426   9.079
15352SOL    HW247896   1.214   8.546   9.020
15353SOL     OW47897   8.089   7.048   6.358
15353SOL    HW147898   8.163   7.062   6.299
15353SOL    HW247899   8.101   6.958   6.389
15354SOL     OW47900   2.950   9.489  11.741
15354SOL    HW147901   2.965   9.395  11.744
15354SOL    HW247902   2.980   9.521  11.827
15355SOL     OW47903   5.663   3.355  10.031
15355SOL    HW147904   5.568   3.369  10.026
15355SOL    HW247905   5.675   3.265  10.003
15356SOL     OW47906   4.227  10.537   0.419
15356SOL    HW147907   4.193  10.603   0.480
15356SOL    HW247908   4.300  10.496   0.466
15357SOL     OW47909   8.938   1.943   2.575
15357SOL    HW147910   8.863   1.998   2.596
15357SOL    HW247911   8.913   1.897   2.496
15358SOL     OW47912   3.331   8.148   5.814
15358SOL    HW147913   3.250   8.167   5.861
15358SOL    HW247914   3.346   8.055   5.828
15359SOL     OW47915   4.469  10.434   8.461
15359SOL    HW147916   4.546  10.476   8.424
15359SOL    HW247917   4.457  10.476   8.546
15360SOL     OW47918   2.381  14.276  13.454
15360SOL    HW147919   2.369  14.324  13.372
15360SOL    HW247920   2.472  14.248  13.452
15361SOL     OW47921   9.825  10.049   5.527
15361SOL    HW147922   9.911  10.090   5.539
15361SOL    HW247923   9.804  10.013   5.612
15362SOL     OW47924   0.119   2.105   1.030
15362SOL    HW147925   0.181   2.034   1.046
15362SOL    HW247926   0.035   2.071   1.063
15363SOL     OW47927  10.203  14.707  12.111
15363SOL    HW147928  10.183  14.713  12.205
15363SOL    HW247929  10.121  14.678  12.071
15364SOL     OW47930  12.520   4.656   8.256
15364SOL    HW147931  12.424   4.655   8.251
15364SOL    HW247932  12.549   4.597   8.188
15365SOL     OW47933   7.906  10.135   9.924
15365SOL    HW147934   7.965  10.162   9.854
15365SOL    HW247935   7.884  10.044   9.902
15366SOL     OW47936  11.869  14.727   5.667
15366SOL    HW147937  11.876  14.647   5.719
15366SOL    HW247938  11.813  14.703   5.593
15367SOL     OW47939   5.062  13.820  14.257
15367SOL    HW147940   5.111  13.755  14.207
15367SOL    HW247941   4.987  13.842  14.201
15368SOL     OW47942   6.593  13.709  10.411
15368SOL    HW147943   6.543  13.769  10.354
15368SOL    HW247944   6.632  13.766  10.477
15369SOL     OW47945   4.051   3.531   7.725
15369SOL    HW147946   4.051   3.608   7.668
15369SOL    HW247947   4.099   3.558   7.803
15370SOL     OW47948  10.815   3.600  11.886
15370SOL    HW147949  10.818   3.659  11.961
15370SOL    HW247950  10.904   3.602  11.850
15371SOL     OW47951   6.637   7.242  11.605
15371SOL    HW147952   6.601   7.291  11.679
15371SOL    HW247953   6.567   7.182  11.579
15372SOL     OW47954   1.939   8.406  10.648
15372SOL    HW147955   1.981   8.379  10.566
15372SOL    HW247956   1.862   8.456  10.621
15373SOL     OW47957   1.204  10.346   8.478
15373SOL    HW147958   1.177  10.293   8.402
15373SOL    HW247959   1.127  10.346   8.535
15374SOL     OW47960  14.832   2.625   7.431
15374SOL    HW147961  14.807   2.692   7.367
15374SOL    HW247962  14.863   2.674   7.507
15375SOL     OW47963   0.331   2.220   4.204
15375SOL    HW147964   0.297   2.148   4.257
15375SOL    HW247965   0.269   2.227   4.131
15376SOL     OW47966  11.207   0.160   7.196
15376SOL    HW147967  11.232   0.077   7.238
15376SOL    HW247968  11.151   0.203   7.260
15377SOL     OW47969  14.248  10.409  14.218
15377SOL    HW147970  14.315  10.402  14.150
15377SOL    HW247971  14.188  10.477  14.186
15378SOL     OW47972   1.300  10.330   7.329
15378SOL    HW147973   1.235  10.360   7.392
15378SOL    HW247974   1.379  10.379   7.351
15379SOL     OW47975   1.131   7.178   3.368
15379SOL    HW147976   1.206   7.146   3.319
15379SOL    HW247977   1.058   7.124   3.338
15380SOL     OW47978   3.699   8.010   8.585
15380SOL    HW147979   3.781   7.975   8.621
15380SOL    HW247980   3.716   8.103   8.572
15381SOL     OW47981   5.906   6.407  11.456
15381SOL    HW147982   5.818   6.441  11.441
15381SOL    HW247983   5.964   6.467  11.408
15382SOL     OW47984   4.963  13.547   2.846
15382SOL    HW147985   4.967  13.451   2.849
15382SOL    HW247986   4.869  13.567   2.845
15383SOL     OW47987   5.753   2.410   9.399
15383SOL    HW147988   5.802   2.339   9.440
15383SOL    HW247989   5.719   2.462   9.472
15384SOL     OW47990   2.951   9.183   1.819
15384SOL    HW147991   2.956   9.228   1.904
15384SOL    HW247992   2.861   9.153   1.813
15385SOL     OW47993  11.596   1.982  14.569
15385SOL    HW147994  11.586   2.047  14.638
15385SOL    HW247995  11.540   2.013  14.497
15386SOL     OW47996   1.654   4.359   4.473
15386SOL    HW147997   1.621   4.272   4.497
15386SOL    HW247998   1.667   4.355   4.378
15387SOL     OW47999   8.245   4.155   1.780
15387SOL    HW148000   8.188   4.216   1.734
15387SOL    HW248001   8.214   4.156   1.870
15388SOL     OW48002   4.056   2.903   3.698
15388SOL    HW148003   4.088   2.838   3.636
15388SOL    HW248004   4.112   2.979   3.683
15389SOL     OW48005   6.925   1.822   8.457
15389SOL    HW148006   6.868   1.745   8.455
15389SOL    HW248007   6.958   1.830   8.368
15390SOL     OW48008   8.454   1.409   0.536
15390SOL    HW148009   8.487   1.472   0.473
15390SOL    HW248010   8.388   1.457   0.586
15391SOL     OW48011   0.191   9.873   6.412
15391SOL    HW148012   0.100   9.842   6.422
15391SOL    HW248013   0.210   9.918   6.494
15392SOL     OW48014   3.104   7.585   2.193
15392SOL    HW148015   3.143   7.516   2.247
15392SOL    HW248016   3.154   7.664   2.216
15393SOL     OW48017   6.275  13.683  14.661
15393SOL    HW148018   6.237  13.707  14.746
15393SOL    HW248019   6.216  13.616  14.627
15394SOL     OW48020  13.881   0.663   4.535
15394SOL    HW148021  13.953   0.608   4.567
15394SOL    HW248022  13.858   0.719   4.609
15395SOL     OW48023  13.843  11.950   5.724
15395SOL    HW148024  13.810  11.954   5.813
15395SOL    HW248025  13.919  12.009   5.723
15396SOL     OW48026   3.585   4.786  12.581
15396SOL    HW148027   3.538   4.863  12.548
15396SOL    HW248028   3.533   4.712  12.552
15397SOL     OW48029  13.163   1.678   8.918
15397SOL    HW148030  13.081   1.724   8.934
15397SOL    HW248031  13.189   1.644   9.003
15398SOL     OW48032  12.937  14.029   8.885
15398SOL    HW148033  12.881  14.040   8.962
15398SOL    HW248034  13.011  14.088   8.901
15399SOL     OW48035  13.553   7.836   1.248
15399SOL    HW148036  13.501   7.763   1.282
15399SOL    HW248037  13.495   7.912   1.252
15400SOL     OW48038   1.805   5.631  14.032
15400SOL    HW148039   1.868   5.696  14.064
15400SOL    HW248040   1.844   5.598  13.951
15401SOL     OW48041  11.241   3.520   1.691
15401SOL    HW148042  11.295   3.516   1.612
15401SOL    HW248043  11.303   3.508   1.763
15402SOL     OW48044   1.544   9.735   1.809
15402SOL    HW148045   1.512   9.678   1.739
15402SOL    HW248046   1.527   9.824   1.778
15403SOL     OW48047   7.414   9.182  11.477
15403SOL    HW148048   7.335   9.127  11.476
15403SOL    HW248049   7.479   9.130  11.525
15404SOL     OW48050  10.064   2.841   3.261
15404SOL    HW148051  10.114   2.922   3.271
15404SOL    HW248052  10.125   2.780   3.219
15405SOL     OW48053   0.335   5.462  10.642
15405SOL    HW148054   0.400   5.499  10.582
15405SOL    HW248055   0.386   5.427  10.715
15406SOL     OW48056  11.644   8.777  12.472
15406SOL    HW148057  11.578   8.827  12.519
15406SOL    HW248058  11.593   8.715  12.419
15407SOL     OW48059   3.179   3.548  11.561
15407SOL    HW148060   3.156   3.505  11.478
15407SOL    HW248061   3.195   3.475  11.621
15408SOL     OW48062  12.618  10.336   7.765
15408SOL    HW148063  12.534  10.350   7.809
15408SOL    HW248064  12.684  10.362   7.830
15409SOL     OW48065  13.547  12.160   8.721
15409SOL    HW148066  13.594  12.076   8.720
15409SOL    HW248067  13.528  12.175   8.814
15410SOL     OW48068   1.849   7.149   2.369
15410SOL    HW148069   1.899   7.105   2.438
15410SOL    HW248070   1.894   7.232   2.356
15411SOL     OW48071  13.707  12.009  11.474
15411SOL    HW148072  13.731  12.068  11.402
15411SOL    HW248073  13.786  12.001  11.526
15412SOL     OW48074   7.640   0.306   0.417
15412SOL    HW148075   7.622   0.266   0.332
15412SOL    HW248076   7.636   0.234   0.479
15413SOL     OW48077  13.981  11.148  13.111
15413SOL    HW148078  13.891  11.153  13.078
15413SOL    HW248079  14.017  11.235  13.095
15414SOL     OW48080   4.930   4.360  14.852
15414SOL    HW148081   5.007   4.347   0.025
15414SOL    HW248082   4.925   4.282  14.798
15415SOL     OW48083  10.417   3.893   1.988
15415SOL    HW148084  10.460   3.978   1.986
15415SOL    HW248085  10.479   3.837   2.035
15416SOL     OW48086   9.651   5.396  12.893
15416SOL    HW148087   9.561   5.412  12.922
15416SOL    HW248088   9.645   5.398  12.797
15417SOL     OW48089   1.617   5.268   4.529
15417SOL    HW148090   1.522   5.277   4.540
15417SOL    HW248091   1.655   5.338   4.582
15418SOL     OW48092  14.735   0.069  12.211
15418SOL    HW148093  14.829   0.065  12.196
15418SOL    HW248094  14.709  14.859  12.226
15419SOL     OW48095   8.670  12.701  13.742
15419SOL    HW148096   8.581  12.690  13.708
15419SOL    HW248097   8.685  12.795  13.740
15420SOL     OW48098  12.707   7.401   4.849
15420SOL    HW148099  12.720   7.428   4.940
15420SOL    HW248100  12.612   7.400   4.838
15421SOL     OW48101  11.491  12.993   9.196
15421SOL    HW148102  11.560  13.037   9.245
15421SOL    HW248103  11.529  12.908   9.172
15422SOL     OW48104  11.821   4.123   8.696
15422SOL    HW148105  11.911   4.095   8.713
15422SOL    HW248106  11.787   4.148   8.782
15423SOL     OW48107   2.054   2.118   9.149
15423SOL    HW148108   1.978   2.066   9.175
15423SOL    HW248109   2.020   2.181   9.086
15424SOL     OW48110   0.220   2.219   8.008
15424SOL    HW148111   0.142   2.237   8.060
15424SOL    HW248112   0.187   2.189   7.924
15425SOL     OW48113  11.531   7.152   0.214
15425SOL    HW148114  11.580   7.234   0.222
15425SOL    HW248115  11.543   7.108   0.298
15426SOL     OW48116   6.987   3.979   9.541
15426SOL    HW148117   7.031   4.058   9.572
15426SOL    HW248118   6.895   4.003   9.535
15427SOL     OW48119  11.156   1.491   3.244
15427SOL    HW148120  11.166   1.420   3.181
15427SOL    HW248121  11.177   1.451   3.328
15428SOL     OW48122   2.542   0.740   9.060
15428SOL    HW148123   2.589   0.798   8.999
15428SOL    HW248124   2.450   0.750   9.036
15429SOL     OW48125  13.428   1.753  11.532
15429SOL    HW148126  13.374   1.782  11.605
15429SOL    HW248127  13.444   1.660  11.550
15430SOL     OW48128  10.497  11.375   4.792
15430SOL    HW148129  10.582  11.349   4.829
15430SOL    HW248130  10.504  11.469   4.780
15431SOL     OW48131   3.714   6.508   5.118
15431SOL    HW148132   3.632   6.550   5.096
15431SOL    HW248133   3.782   6.569   5.088
15432SOL     OW48134  13.119  10.605  10.897
15432SOL    HW148135  13.213  10.590  10.897
15432SOL    HW248136  13.081  10.524  10.864
15433SOL     OW48137   6.132  12.101  10.039
15433SOL    HW148138   6.216  12.062  10.014
15433SOL    HW248139   6.112  12.161   9.967
15434SOL     OW48140  10.738   1.804   7.637
15434SOL    HW148141  10.768   1.889   7.605
15434SOL    HW248142  10.762   1.742   7.568
15435SOL     OW48143  13.284   7.972   3.340
15435SOL    HW148144  13.232   8.044   3.305
15435SOL    HW248145  13.368   7.980   3.294
15436SOL     OW48146   4.072   4.874  11.102
15436SOL    HW148147   4.167   4.874  11.117
15436SOL    HW248148   4.043   4.788  11.131
15437SOL     OW48149  12.948   0.930  10.430
15437SOL    HW148150  12.913   0.884  10.507
15437SOL    HW248151  12.872   0.943  10.373
15438SOL     OW48152  11.930   6.740   5.016
15438SOL    HW148153  12.007   6.698   4.978
15438SOL    HW248154  11.918   6.820   4.965
15439SOL     OW48155  14.806   5.539   9.768
15439SOL    HW148156  14.864   5.609   9.797
15439SOL    HW248157  14.718   5.568   9.794
15440SOL     OW48158   0.477  14.421   5.175
15440SOL    HW148159   0.458  14.495   5.233
15440SOL    HW248160   0.452  14.453   5.088
15441SOL     OW48161  11.630  10.623   7.231
15441SOL    HW148162  11.546  10.669   7.227
15441SOL    HW248163  11.608  10.537   7.267
15442SOL     OW48164   4.580   2.599  11.593
15442SOL    HW148165   4.625   2.680  11.614
15442SOL    HW248166   4.618   2.534  11.653
15443SOL     OW48167  10.231   9.032   0.140
15443SOL    HW148168  10.191   8.947   0.152
15443SOL    HW248169  10.300   9.018   0.076
15444SOL     OW48170  14.274   1.826   8.280
15444SOL    HW148171  14.354   1.869   8.250
15444SOL    HW248172  14.205   1.891   8.266
15445SOL     OW48173   4.821   8.322   3.293
15445SOL    HW148174   4.852   8.402   3.334
15445SOL    HW248175   4.894   8.292   3.239
15446SOL     OW48176   7.853   4.100   5.045
15446SOL    HW148177   7.776   4.057   5.082
15446SOL    HW248178   7.819   4.156   4.976
15447SOL     OW48179  13.472   4.853   7.158
15447SOL    HW148180  13.554   4.874   7.202
15447SOL    HW248181  13.431   4.787   7.215
15448SOL     OW48182   2.405   9.092   4.054
15448SOL    HW148183   2.346   9.026   4.017
15448SOL    HW248184   2.349   9.147   4.108
15449SOL     OW48185   9.300  11.160   9.835
15449SOL    HW148186   9.211  11.193   9.825
15449SOL    HW248187   9.295  11.102   9.911
15450SOL     OW48188  11.427   5.601  13.513
15450SOL    HW148189  11.370   5.533  13.478
15450SOL    HW248190  11.368   5.668  13.546
15451SOL     OW48191  10.348  11.624  12.216
15451SOL    HW148192  10.395  11.620  12.299
15451SOL    HW248193  10.353  11.716  12.189
15452SOL     OW48194   3.367  14.335  11.438
15452SOL    HW148195   3.294  14.274  11.433
15452SOL    HW248196   3.430  14.302  11.373
15453SOL     OW48197   5.357  13.500   4.050
15453SOL    HW148198   5.340  13.406   4.055
15453SOL    HW248199   5.451  13.509   4.062
15454SOL     OW48200   9.360  14.025   8.733
15454SOL    HW148201   9.344  14.093   8.667
15454SOL    HW248202   9.361  14.073   8.816
15455SOL     OW48203   4.998   3.643   3.990
15455SOL    HW148204   4.974   3.725   3.945
15455SOL    HW248205   4.927   3.583   3.969
15456SOL     OW48206   2.266   9.258   3.408
15456SOL    HW148207   2.274   9.167   3.438
15456SOL    HW248208   2.356   9.285   3.388
15457SOL     OW48209  11.953   2.324   2.030
15457SOL    HW148210  11.959   2.231   2.007
15457SOL    HW248211  11.971   2.326   2.124
15458SOL     OW48212  12.724   8.043  10.119
15458SOL    HW148213  12.651   8.105  10.114
15458SOL    HW248214  12.736   8.027  10.213
15459SOL     OW48215   4.898  13.351   4.891
15459SOL    HW148216   4.944  13.383   4.813
15459SOL    HW248217   4.954  13.377   4.964
15460SOL     OW48218   1.525   7.661   5.297
15460SOL    HW148219   1.526   7.576   5.342
15460SOL    HW248220   1.579   7.647   5.219
15461SOL     OW48221   9.051  13.426   7.828
15461SOL    HW148222   9.078  13.516   7.815
15461SOL    HW248223   9.028  13.394   7.741
15462SOL     OW48224  13.699  14.551   1.308
15462SOL    HW148225  13.745  14.560   1.392
15462SOL    HW248226  13.710  14.635   1.265
15463SOL     OW48227   3.371   3.772   8.866
15463SOL    HW148228   3.434   3.700   8.870
15463SOL    HW248229   3.397   3.823   8.790
15464SOL     OW48230  11.230   7.569  12.310
15464SOL    HW148231  11.317   7.589  12.275
15464SOL    HW248232  11.247   7.534  12.398
15465SOL     OW48233   4.372   5.069   0.086
15465SOL    HW148234   4.336   5.081  14.881
15465SOL    HW248235   4.463   5.096   0.079
15466SOL     OW48236  13.443   8.335   9.782
15466SOL    HW148237  13.436   8.413   9.836
15466SOL    HW248238  13.537   8.328   9.762
15467SOL     OW48239   0.816   6.778   1.918
15467SOL    HW148240   0.842   6.857   1.965
15467SOL    HW248241   0.890   6.757   1.861
15468SOL     OW48242   4.370   9.079   2.523
15468SOL    HW148243   4.433   9.107   2.590
15468SOL    HW248244   4.293   9.133   2.539
15469SOL     OW48245  10.634   7.766   5.551
15469SOL    HW148246  10.563   7.702   5.543
15469SOL    HW248247  10.593   7.841   5.596
15470SOL     OW48248  10.574   3.460  13.896
15470SOL    HW148249  10.532   3.479  13.979
15470SOL    HW248250  10.631   3.385  13.913
15471SOL     OW48251   4.373  13.520   5.165
15471SOL    HW148252   4.364  13.460   5.239
15471SOL    HW248253   4.463  13.509   5.136
15472SOL     OW48254   3.632   3.296   2.236
15472SOL    HW148255   3.663   3.259   2.154
15472SOL    HW248256   3.536   3.296   2.228
15473SOL     OW48257   0.447  11.396  13.755
15473SOL    HW148258   0.494  11.447  13.688
15473SOL    HW248259   0.447  11.307  13.720
15474SOL     OW48260   6.640   0.858  13.296
15474SOL    HW148261   6.730   0.877  13.324
15474SOL    HW248262   6.631   0.764  13.307
15475SOL     OW48263   4.741  12.206   1.972
15475SOL    HW148264   4.785  12.154   2.038
15475SOL    HW248265   4.749  12.155   1.891
15476SOL     OW48266  12.220   6.693   0.581
15476SOL    HW148267  12.179   6.778   0.566
15476SOL    HW248268  12.231   6.688   0.676
15477SOL     OW48269   4.370   9.866  13.885
15477SOL    HW148270   4.459   9.839  13.908
15477SOL    HW248271   4.378   9.904  13.797
15478SOL     OW48272   7.996   1.843  10.145
15478SOL    HW148273   7.955   1.757  10.152
15478SOL    HW248274   7.979   1.884  10.230
15479SOL     OW48275   6.296   0.464   5.200
15479SOL    HW148276   6.231   0.508   5.146
15479SOL    HW248277   6.378   0.470   5.150
15480SOL     OW48278  10.154   5.906   4.180
15480SOL    HW148279  10.086   5.963   4.144
15480SOL    HW248280  10.138   5.907   4.274
15481SOL     OW48281   4.786   0.661  13.875
15481SOL    HW148282   4.870   0.661  13.830
15481SOL    HW248283   4.767   0.569  13.892
15482SOL     OW48284   6.579   9.219  12.102
15482SOL    HW148285   6.497   9.268  12.105
15482SOL    HW248286   6.582   9.172  12.186
15483SOL     OW48287   6.682   7.390  11.175
15483SOL    HW148288   6.636   7.457  11.125
15483SOL    HW248289   6.747   7.354  11.114
15484SOL     OW48290   9.038   7.681   4.826
15484SOL    HW148291   9.027   7.649   4.737
15484SOL    HW248292   9.093   7.758   4.818
15485SOL     OW48293   4.487  10.222   2.038
15485SOL    HW148294   4.569  10.201   1.992
15485SOL    HW248295   4.493  10.317   2.053
15486SOL     OW48296   9.885   8.736  11.048
15486SOL    HW148297   9.843   8.790  10.981
15486SOL    HW248298   9.968   8.779  11.065
15487SOL     OW48299   5.145   4.029  12.740
15487SOL    HW148300   5.227   3.986  12.718
15487SOL    HW248301   5.147   4.039  12.835
15488SOL     OW48302   4.421   6.476   0.112
15488SOL    HW148303   4.511   6.444   0.115
15488SOL    HW248304   4.377   6.416   0.051
15489SOL     OW48305  14.762  11.678   5.016
15489SOL    HW148306  14.822  11.696   4.943
15489SOL    HW248307  14.736  11.587   5.003
15490SOL     OW48308   7.684   9.501  14.249
15490SOL    HW148309   7.728   9.495  14.164
15490SOL    HW248310   7.603   9.451  14.237
15491SOL     OW48311  14.272  14.837   7.381
15491SOL    HW148312  14.181  14.838   7.413
15491SOL    HW248313  14.264  14.835   7.286
15492SOL     OW48314   8.800   9.880   9.450
15492SOL    HW148315   8.741   9.901   9.523
15492SOL    HW248316   8.751   9.904   9.371
15493SOL     OW48317   7.392   2.287  10.761
15493SOL    HW148318   7.444   2.317  10.836
15493SOL    HW248319   7.383   2.364  10.705
15494SOL     OW48320   0.711  13.133   8.577
15494SOL    HW148321   0.795  13.097   8.605
15494SOL    HW248322   0.672  13.168   8.657
15495SOL     OW48323   3.811   2.023   6.258
15495SOL    HW148324   3.778   2.098   6.209
15495SOL    HW248325   3.732   1.977   6.288
15496SOL     OW48326  10.035   8.059   4.272
15496SOL    HW148327  10.005   7.969   4.257
15496SOL    HW248328  10.078   8.083   4.191
15497SOL     OW48329   6.184   0.181  13.840
15497SOL    HW148330   6.232   0.263  13.828
15497SOL    HW248331   6.174   0.147  13.751
15498SOL     OW48332  12.885  14.843   9.382
15498SOL    HW148333  12.963   0.013   9.402
15498SOL    HW248334  12.917  14.773   9.325
15499SOL     OW48335   5.242  12.764   3.500
15499SOL    HW148336   5.168  12.762   3.560
15499SOL    HW248337   5.219  12.830   3.435
15500SOL     OW48338   1.446   1.185   9.619
15500SOL    HW148339   1.475   1.094   9.627
15500SOL    HW248340   1.508   1.234   9.673
15501SOL     OW48341  11.035  12.363  13.768
15501SOL    HW148342  11.097  12.365  13.695
15501SOL    HW248343  11.053  12.444  13.817
15502SOL     OW48344  11.094  14.619   7.098
15502SOL    HW148345  11.033  14.545   7.089
15502SOL    HW248346  11.038  14.697   7.093
15503SOL     OW48347  11.131   0.854   6.333
15503SOL    HW148348  11.042   0.851   6.300
15503SOL    HW248349  11.149   0.946   6.349
15504SOL     OW48350   2.899   0.421   3.972
15504SOL    HW148351   2.931   0.371   3.897
15504SOL    HW248352   2.806   0.399   3.978
15505SOL     OW48353   7.901   9.228   1.918
15505SOL    HW148354   7.892   9.149   1.864
15505SOL    HW248355   7.987   9.263   1.894
15506SOL     OW48356   9.435   3.370  13.222
15506SOL    HW148357   9.379   3.446  13.204
15506SOL    HW248358   9.468   3.344  13.136
15507SOL     OW48359   3.349   4.730   8.970
15507SOL    HW148360   3.263   4.714   8.932
15507SOL    HW248361   3.345   4.690   9.057
15508SOL     OW48362  12.178   0.343   2.383
15508SOL    HW148363  12.247   0.345   2.317
15508SOL    HW248364  12.149   0.434   2.390
15509SOL     OW48365   6.107  14.127   1.393
15509SOL    HW148366   6.148  14.213   1.406
15509SOL    HW248367   6.168  14.080   1.336
15510SOL     OW48368  11.203   0.396  10.794
15510SOL    HW148369  11.221   0.304  10.773
15510SOL    HW248370  11.168   0.432  10.713
15511SOL     OW48371   4.062  14.645  13.046
15511SOL    HW148372   4.070  14.727  12.998
15511SOL    HW248373   3.967  14.629  13.051
15512SOL     OW48374   7.945   0.978  11.484
15512SOL    HW148375   8.038   0.962  11.500
15512SOL    HW248376   7.902   0.895  11.502
15513SOL     OW48377   6.546  14.299  10.618
15513SOL    HW148378   6.497  14.235  10.670
15513SOL    HW248379   6.629  14.255  10.598
15514SOL     OW48380   2.950  12.121   0.254
15514SOL    HW148381   2.965  12.091   0.165
15514SOL    HW248382   2.858  12.103   0.270
15515SOL     OW48383   7.228   1.504   0.094
15515SOL    HW148384   7.145   1.494   0.139
15515SOL    HW248385   7.290   1.453   0.146
15516SOL     OW48386  12.310  13.778   3.003
15516SOL    HW148387  12.364  13.701   2.983
15516SOL    HW248388  12.262  13.795   2.922
15517SOL     OW48389   7.093  13.489   1.197
15517SOL    HW148390   7.135  13.560   1.245
15517SOL    HW248391   7.135  13.409   1.230
15518SOL     OW48392  14.247  10.434   9.389
15518SOL    HW148393  14.208  10.475   9.466
15518SOL    HW248394  14.320  10.491   9.365
15519SOL     OW48395   1.673   1.165   7.881
15519SOL    HW148396   1.727   1.224   7.935
15519SOL    HW248397   1.584   1.196   7.894
15520SOL     OW48398   4.379   7.532   4.831
15520SOL    HW148399   4.406   7.533   4.740
15520SOL    HW248400   4.429   7.602   4.872
15521SOL     OW48401  12.440  10.574   0.906
15521SOL    HW148402  12.403  10.652   0.947
15521SOL    HW248403  12.419  10.584   0.813
15522SOL     OW48404   5.042   8.770   6.110
15522SOL    HW148405   4.995   8.756   6.192
15522SOL    HW248406   4.974   8.788   6.045
15523SOL     OW48407   6.829  11.643   6.504
15523SOL    HW148408   6.795  11.604   6.585
15523SOL    HW248409   6.899  11.702   6.534
15524SOL     OW48410   3.130  10.356   4.706
15524SOL    HW148411   3.191  10.335   4.776
15524SOL    HW248412   3.129  10.277   4.651
15525SOL     OW48413   5.616  10.122   0.597
15525SOL    HW148414   5.633  10.028   0.584
15525SOL    HW248415   5.537  10.139   0.545
15526SOL     OW48416  13.320   0.389   6.197
15526SOL    HW148417  13.327   0.376   6.102
15526SOL    HW248418  13.314   0.300   6.233
15527SOL     OW48419   0.168   2.846  10.637
15527SOL    HW148420   0.137   2.764  10.674
15527SOL    HW248421   0.263   2.841  10.643
15528SOL     OW48422   2.728  10.679   6.541
15528SOL    HW148423   2.664  10.616   6.575
15528SOL    HW248424   2.799  10.678   6.606
15529SOL     OW48425   4.791  13.172   0.155
15529SOL    HW148426   4.849  13.247   0.168
15529SOL    HW248427   4.803  13.118   0.233
15530SOL     OW48428   7.262  14.072  13.712
15530SOL    HW148429   7.251  13.977  13.708
15530SOL    HW248430   7.322  14.093  13.641
15531SOL     OW48431   3.948  13.010   1.791
15531SOL    HW148432   4.024  13.043   1.839
15531SOL    HW248433   3.953  13.053   1.706
15532SOL     OW48434   4.462  10.055   9.129
15532SOL    HW148435   4.525   9.998   9.173
15532SOL    HW248436   4.468  10.138   9.177
15533SOL     OW48437   7.717  10.659   6.771
15533SOL    HW148438   7.683  10.654   6.681
15533SOL    HW248439   7.797  10.606   6.769
15534SOL     OW48440   0.565  14.704  13.569
15534SOL    HW148441   0.640  14.736  13.519
15534SOL    HW248442   0.517  14.649  13.507
15535SOL     OW48443  11.073  13.223   0.419
15535SOL    HW148444  11.102  13.281   0.348
15535SOL    HW248445  10.989  13.258   0.446
15536SOL     OW48446   2.435  13.046   1.756
15536SOL    HW148447   2.490  13.099   1.814
15536SOL    HW248448   2.488  13.032   1.678
15537SOL     OW48449   8.478  11.102   8.164
15537SOL    HW148450   8.474  11.197   8.166
15537SOL    HW248451   8.496  11.077   8.255
15538SOL     OW48452   9.164   1.169  14.377
15538SOL    HW148453   9.201   1.214  14.302
15538SOL    HW248454   9.090   1.120  14.342
15539SOL     OW48455   2.037   0.524  11.746
15539SOL    HW148456   1.958   0.576  11.739
15539SOL    HW248457   2.032   0.462  11.673
15540SOL     OW48458   8.481   2.543  14.871
15540SOL    HW148459   8.487   2.565   0.083
15540SOL    HW248460   8.499   2.449  14.867
15541SOL     OW48461  13.659   8.257  13.833
15541SOL    HW148462  13.730   8.218  13.782
15541SOL    HW248463  13.579   8.219  13.796
15542SOL     OW48464   6.618   7.742   7.233
15542SOL    HW148465   6.600   7.728   7.326
15542SOL    HW248466   6.650   7.658   7.201
15543SOL     OW48467   4.628   1.491  11.012
15543SOL    HW148468   4.569   1.561  10.985
15543SOL    HW248469   4.693   1.533  11.067
15544SOL     OW48470   5.608  13.624   9.807
15544SOL    HW148471   5.696  13.587   9.799
15544SOL    HW248472   5.623  13.714   9.838
15545SOL     OW48473   4.770  13.407   0.530
15545SOL    HW148474   4.784  13.470   0.601
15545SOL    HW248475   4.755  13.461   0.453
15546SOL     OW48476  11.786   9.006   0.101
15546SOL    HW148477  11.753   8.919   0.124
15546SOL    HW248478  11.757   9.062   0.172
15547SOL     OW48479   2.537   6.191   5.010
15547SOL    HW148480   2.483   6.233   4.943
15547SOL    HW248481   2.610   6.251   5.023
15548SOL     OW48482   6.245   8.865   0.040
15548SOL    HW148483   6.203   8.887  14.839
15548SOL    HW248484   6.173   8.862   0.103
15549SOL     OW48485  14.839   3.652   9.073
15549SOL    HW148486  14.836   3.666   9.167
15549SOL    HW248487  14.812   3.561   9.062
15550SOL     OW48488   6.440  14.850  11.935
15550SOL    HW148489   6.478  14.820  11.852
15550SOL    HW248490   6.395  14.772  11.970
15551SOL     OW48491   1.670   3.501   0.482
15551SOL    HW148492   1.577   3.501   0.507
15551SOL    HW248493   1.695   3.593   0.480
15552SOL     OW48494   1.308   7.726   2.119
15552SOL    HW148495   1.396   7.756   2.099
15552SOL    HW248496   1.253   7.804   2.115
15553SOL     OW48497  12.914   9.647  13.675
15553SOL    HW148498  12.903   9.607  13.589
15553SOL    HW248499  13.007   9.639  13.694
15554SOL     OW48500   1.554  12.352  14.723
15554SOL    HW148501   1.650  12.347  14.722
15554SOL    HW248502   1.535  12.438  14.686
15555SOL     OW48503  12.334   9.591   5.052
15555SOL    HW148504  12.282   9.547   4.985
15555SOL    HW248505  12.400   9.640   5.002
15556SOL     OW48506   8.113   5.212  12.405
15556SOL    HW148507   8.083   5.138  12.458
15556SOL    HW248508   8.143   5.277  12.468
15557SOL     OW48509   5.746   3.598  12.238
15557SOL    HW148510   5.814   3.553  12.187
15557SOL    HW248511   5.667   3.589  12.184
15558SOL     OW48512   9.868   7.842  13.338
15558SOL    HW148513   9.867   7.771  13.401
15558SOL    HW248514   9.791   7.895  13.360
15559SOL     OW48515  11.611  14.240   6.746
15559SOL    HW148516  11.520  14.214   6.734
15559SOL    HW248517  11.657  14.206   6.669
15560SOL     OW48518   0.630   3.393   1.589
15560SOL    HW148519   0.692   3.320   1.591
15560SOL    HW248520   0.676   3.464   1.545
15561SOL     OW48521   8.134   2.103   7.468
15561SOL    HW148522   8.142   2.198   7.466
15561SOL    HW248523   8.180   2.076   7.548
15562SOL     OW48524   3.286   8.790   9.635
15562SOL    HW148525   3.199   8.751   9.649
15562SOL    HW248526   3.338   8.718   9.599
15563SOL     OW48527   7.403  10.916   7.621
15563SOL    HW148528   7.362  10.832   7.600
15563SOL    HW248529   7.494  10.906   7.594
15564SOL     OW48530  10.374  13.225  10.209
15564SOL    HW148531  10.458  13.262  10.183
15564SOL    HW248532  10.327  13.298  10.249
15565SOL     OW48533   2.921   3.214   5.361
15565SOL    HW148534   2.906   3.228   5.268
15565SOL    HW248535   2.850   3.261   5.404
15566SOL     OW48536  14.173   3.396  11.615
15566SOL    HW148537  14.217   3.422  11.533
15566SOL    HW248538  14.239   3.345  11.662
15567SOL     OW48539   8.183   7.048  13.706
15567SOL    HW148540   8.132   7.118  13.664
15567SOL    HW248541   8.182   6.977  13.643
15568SOL     OW48542   1.877  10.381   4.325
15568SOL    HW148543   1.904  10.462   4.368
15568SOL    HW248544   1.781  10.387   4.321
15569SOL     OW48545  12.654   8.106   7.096
15569SOL    HW148546  12.575   8.065   7.060
15569SOL    HW248547  12.630   8.129   7.186
15570SOL     OW48548   9.979   9.460  10.414
15570SOL    HW148549   9.903   9.514  10.393
15570SOL    HW248550   9.965   9.380  10.363
15571SOL     OW48551   9.807   2.054   6.218
15571SOL    HW148552   9.744   2.085   6.283
15571SOL    HW248553   9.877   2.014   6.270
15572SOL     OW48554   6.260   2.249   7.353
15572SOL    HW148555   6.207   2.306   7.408
15572SOL    HW248556   6.235   2.271   7.264
15573SOL     OW48557  14.270   5.294   4.730
15573SOL    HW148558  14.277   5.224   4.665
15573SOL    HW248559  14.345   5.351   4.714
15574SOL     OW48560   7.704  12.202   9.967
15574SOL    HW148561   7.623  12.161   9.937
15574SOL    HW248562   7.697  12.201  10.063
15575SOL     OW48563   3.254   3.583  14.745
15575SOL    HW148564   3.286   3.641  14.814
15575SOL    HW248565   3.258   3.495  14.782
15576SOL     OW48566   6.221   1.702  11.352
15576SOL    HW148567   6.144   1.659  11.390
15576SOL    HW248568   6.261   1.635  11.297
15577SOL     OW48569   5.551   2.141  11.323
15577SOL    HW148570   5.557   2.226  11.278
15577SOL    HW248571   5.630   2.137  11.377
15578SOL     OW48572  11.166   5.630   5.090
15578SOL    HW148573  11.132   5.566   5.028
15578SOL    HW248574  11.255   5.649   5.059
15579SOL     OW48575   3.466   2.169  14.300
15579SOL    HW148576   3.493   2.118  14.224
15579SOL    HW248577   3.378   2.137  14.321
15580SOL     OW48578   5.092   4.078   6.287
15580SOL    HW148579   5.031   4.143   6.250
15580SOL    HW248580   5.127   4.120   6.366
15581SOL     OW48581   3.110   8.489  10.624
15581SOL    HW148582   3.073   8.577  10.631
15581SOL    HW248583   3.166   8.493  10.546
15582SOL     OW48584   7.394  11.665  13.176
15582SOL    HW148585   7.468  11.703  13.223
15582SOL    HW248586   7.320  11.676  13.236
15583SOL     OW48587   9.693   4.460   7.886
15583SOL    HW148588   9.712   4.551   7.910
15583SOL    HW248589   9.780   4.422   7.870
15584SOL     OW48590   9.643   6.407   8.248
15584SOL    HW148591   9.668   6.470   8.316
15584SOL    HW248592   9.726   6.382   8.208
15585SOL     OW48593  11.978  13.378   2.047
15585SOL    HW148594  11.886  13.405   2.050
15585SOL    HW248595  12.005  13.398   1.957
15586SOL     OW48596  14.119   0.027  11.883
15586SOL    HW148597  14.100  14.866  11.800
15586SOL    HW248598  14.206   0.065  11.871
15587SOL     OW48599   9.496   1.952   3.780
15587SOL    HW148600   9.458   1.914   3.701
15587SOL    HW248601   9.449   1.910   3.852
15588SOL     OW48602   6.392   7.508  14.645
15588SOL    HW148603   6.479   7.543  14.625
15588SOL    HW248604   6.356   7.570  14.709
15589SOL     OW48605  13.931   3.623   8.817
15589SOL    HW148606  13.873   3.550   8.795
15589SOL    HW248607  13.891   3.699   8.775
15590SOL     OW48608   8.915   0.073   2.161
15590SOL    HW148609   8.943   0.152   2.115
15590SOL    HW248610   8.925   0.002   2.098
15591SOL     OW48611   6.208   0.625   9.732
15591SOL    HW148612   6.128   0.572   9.724
15591SOL    HW248613   6.177   0.714   9.744
15592SOL     OW48614   8.980   5.177  13.804
15592SOL    HW148615   8.976   5.218  13.718
15592SOL    HW248616   9.058   5.120  13.800
15593SOL     OW48617   6.005   2.598   6.816
15593SOL    HW148618   5.987   2.657   6.888
15593SOL    HW248619   6.090   2.558   6.838
15594SOL     OW48620   3.403  11.905  13.230
15594SOL    HW148621   3.478  11.964  13.217
15594SOL    HW248622   3.419  11.866  13.316
15595SOL     OW48623   9.905   1.039   9.596
15595SOL    HW148624   9.929   1.117   9.547
15595SOL    HW248625   9.914   1.065   9.688
15596SOL     OW48626  13.445  12.154  10.488
15596SOL    HW148627  13.432  12.156  10.393
15596SOL    HW248628  13.512  12.220  10.505
15597SOL     OW48629   9.049   0.215  14.370
15597SOL    HW148630   8.974   0.163  14.399
15597SOL    HW248631   9.101   0.155  14.317
15598SOL     OW48632  12.818   3.849   4.027
15598SOL    HW148633  12.729   3.872   4.003
15598SOL    HW248634  12.873   3.900   3.967
15599SOL     OW48635   4.846   4.315   0.284
15599SOL    HW148636   4.777   4.252   0.265
15599SOL    HW248637   4.813   4.398   0.251
15600SOL     OW48638  13.287   7.775   7.055
15600SOL    HW148639  13.361   7.837   7.052
15600SOL    HW248640  13.213   7.829   7.082
15601SOL     OW48641   2.525  13.492  13.274
15601SOL    HW148642   2.479  13.413  13.245
15601SOL    HW248643   2.595  13.460  13.330
15602SOL     OW48644   5.580   5.027  10.726
15602SOL    HW148645   5.605   5.008  10.635
15602SOL    HW248646   5.648   5.088  10.757
15603SOL     OW48647   7.410  14.489   1.388
15603SOL    HW148648   7.375  14.545   1.319
15603SOL    HW248649   7.433  14.549   1.459
15604SOL     OW48650  13.306   3.932   4.632
15604SOL    HW148651  13.350   4.011   4.664
15604SOL    HW248652  13.251   3.904   4.705
15605SOL     OW48653   8.945   5.515   3.880
15605SOL    HW148654   8.856   5.539   3.908
15605SOL    HW248655   8.968   5.440   3.934
15606SOL     OW48656   4.369   1.305   5.311
15606SOL    HW148657   4.447   1.359   5.304
15606SOL    HW248658   4.336   1.300   5.221
15607SOL     OW48659   1.785   0.948   3.330
15607SOL    HW148660   1.784   0.864   3.376
15607SOL    HW248661   1.808   0.925   3.240
15608SOL     OW48662   6.733   7.012  12.356
15608SOL    HW148663   6.790   7.040  12.284
15608SOL    HW248664   6.779   7.041  12.435
15609SOL     OW48665  10.088   1.662   9.496
15609SOL    HW148666  10.147   1.593   9.529
15609SOL    HW248667  10.121   1.682   9.409
15610SOL     OW48668   6.509   7.402   5.289
15610SOL    HW148669   6.563   7.400   5.368
15610SOL    HW248670   6.476   7.313   5.280
15611SOL     OW48671   7.085   1.341   6.419
15611SOL    HW148672   7.014   1.303   6.472
15611SOL    HW248673   7.165   1.321   6.467
15612SOL     OW48674   9.113   7.752  12.857
15612SOL    HW148675   9.080   7.737  12.768
15612SOL    HW248676   9.080   7.839  12.881
15613SOL     OW48677   2.110   2.366   0.027
15613SOL    HW148678   2.068   2.312  14.842
15613SOL    HW248679   2.169   2.423  14.860
15614SOL     OW48680   7.951   0.095   7.093
15614SOL    HW148681   7.881   0.064   7.150
15614SOL    HW248682   7.919   0.178   7.057
15615SOL     OW48683   3.720   8.683   3.168
15615SOL    HW148684   3.703   8.777   3.176
15615SOL    HW248685   3.638   8.641   3.194
15616SOL     OW48686   8.817   2.371   3.068
15616SOL    HW148687   8.905   2.374   3.104
15616SOL    HW248688   8.759   2.391   3.142
15617SOL     OW48689   2.941   1.689  11.017
15617SOL    HW148690   2.991   1.629  11.072
15617SOL    HW248691   2.907   1.755  11.078
15618SOL     OW48692   7.091   2.299   2.959
15618SOL    HW148693   7.154   2.283   3.029
15618SOL    HW248694   7.093   2.219   2.907
15619SOL     OW48695   6.260  14.348   1.440
15619SOL    HW148696   6.258  14.389   1.526
15619SOL    HW248697   6.255  14.422   1.379
15620SOL     OW48698   5.659   8.902  12.317
15620SOL    HW148699   5.667   8.968  12.385
15620SOL    HW248700   5.693   8.945  12.238
15621SOL     OW48701  14.585   8.271   1.544
15621SOL    HW148702  14.519   8.266   1.613
15621SOL    HW248703  14.643   8.198   1.561
15622SOL     OW48704   5.247  11.919   0.596
15622SOL    HW148705   5.189  11.990   0.568
15622SOL    HW248706   5.197  11.871   0.662
15623SOL     OW48707   3.180   5.785   3.602
15623SOL    HW148708   3.201   5.736   3.681
15623SOL    HW248709   3.171   5.718   3.534
15624SOL     OW48710  11.826  12.014  10.507
15624SOL    HW148711  11.906  12.060  10.484
15624SOL    HW248712  11.841  11.924  10.478
15625SOL     OW48713   9.031   3.292  11.369
15625SOL    HW148714   9.100   3.355  11.349
15625SOL    HW248715   8.979   3.287  11.289
15626SOL     OW48716  11.733   9.942   2.219
15626SOL    HW148717  11.650   9.900   2.244
15626SOL    HW248718  11.774   9.880   2.158
15627SOL     OW48719  13.538   0.510   6.943
15627SOL    HW148720  13.456   0.539   6.984
15627SOL    HW248721  13.510   0.444   6.880
15628SOL     OW48722  14.221  14.006   5.086
15628SOL    HW148723  14.314  14.020   5.106
15628SOL    HW248724  14.213  13.911   5.075
15629SOL     OW48725   7.734   2.019   1.764
15629SOL    HW148726   7.746   2.114   1.760
15629SOL    HW248727   7.639   2.007   1.756
15630SOL     OW48728  13.610   9.795   2.239
15630SOL    HW148729  13.577   9.870   2.189
15630SOL    HW248730  13.702   9.816   2.257
15631SOL     OW48731   0.427   1.617   4.677
15631SOL    HW148732   0.398   1.661   4.757
15631SOL    HW248733   0.404   1.678   4.607
15632SOL     OW48734   4.187   4.954   7.103
15632SOL    HW148735   4.156   5.041   7.077
15632SOL    HW248736   4.269   4.942   7.055
15633SOL     OW48737   2.761   7.935  14.623
15633SOL    HW148738   2.855   7.938  14.640
15633SOL    HW248739   2.740   8.020  14.584
15634SOL     OW48740   4.383  14.610   7.548
15634SOL    HW148741   4.402  14.672   7.619
15634SOL    HW248742   4.419  14.527   7.580
15635SOL     OW48743  14.144   2.738  10.868
15635SOL    HW148744  14.063   2.688  10.881
15635SOL    HW248745  14.170   2.719  10.778
15636SOL     OW48746   8.774  14.823  13.602
15636SOL    HW148747   8.792   0.034  13.617
15636SOL    HW248748   8.714  14.798  13.672
15637SOL     OW48749   8.022   7.641   3.278
15637SOL    HW148750   7.973   7.723   3.269
15637SOL    HW248751   7.967   7.586   3.333
15638SOL     OW48752   0.487   3.499   3.493
15638SOL    HW148753   0.503   3.585   3.533
15638SOL    HW248754   0.549   3.441   3.537
15639SOL     OW48755   3.166   4.733   6.281
15639SOL    HW148756   3.097   4.667   6.287
15639SOL    HW248757   3.176   4.765   6.371
15640SOL     OW48758   0.827   6.095   9.735
15640SOL    HW148759   0.920   6.086   9.757
15640SOL    HW248760   0.826   6.122   9.643
15641SOL     OW48761  13.475   6.772   5.799
15641SOL    HW148762  13.480   6.776   5.894
15641SOL    HW248763  13.466   6.678   5.780
15642SOL     OW48764   9.076   7.648   9.973
15642SOL    HW148765   9.036   7.578   9.921
15642SOL    HW248766   9.010   7.718   9.973
15643SOL     OW48767   2.343   1.937   2.148
15643SOL    HW148768   2.433   1.962   2.127
15643SOL    HW248769   2.293   2.019   2.142
15644SOL     OW48770  11.266   1.010   7.940
15644SOL    HW148771  11.360   1.000   7.930
15644SOL    HW248772  11.242   1.077   7.876
15645SOL     OW48773  11.547  12.870   5.315
15645SOL    HW148774  11.561  12.785   5.357
15645SOL    HW248775  11.452  12.873   5.297
15646SOL     OW48776   0.976   1.937   0.798
15646SOL    HW148777   1.014   1.985   0.725
15646SOL    HW248778   0.935   2.004   0.853
15647SOL     OW48779   7.349  11.407  14.240
15647SOL    HW148780   7.433  11.451  14.231
15647SOL    HW248781   7.347  11.378  14.331
15648SOL     OW48782   9.379  13.180   3.488
15648SOL    HW148783   9.432  13.165   3.410
15648SOL    HW248784   9.422  13.129   3.556
15649SOL     OW48785  10.383   1.849  11.141
15649SOL    HW148786  10.386   1.857  11.236
15649SOL    HW248787  10.474   1.862  11.113
15650SOL     OW48788   4.505   0.027  14.700
15650SOL    HW148789   4.520   0.119  14.679
15650SOL    HW248790   4.420   0.026  14.745
15651SOL     OW48791  13.519   9.475  14.621
15651SOL    HW148792  13.432   9.489  14.583
15651SOL    HW248793  13.574   9.449  14.548
15652SOL     OW48794   7.560   6.313  10.843
15652SOL    HW148795   7.639   6.366  10.836
15652SOL    HW248796   7.522   6.338  10.928
15653SOL     OW48797   3.540   1.312   0.636
15653SOL    HW148798   3.562   1.264   0.556
15653SOL    HW248799   3.623   1.316   0.685
15654SOL     OW48800   7.107   7.193   2.733
15654SOL    HW148801   7.021   7.211   2.771
15654SOL    HW248802   7.091   7.123   2.670
15655SOL     OW48803  12.903   5.946   8.740
15655SOL    HW148804  12.853   5.981   8.814
15655SOL    HW248805  12.979   6.004   8.734
15656SOL     OW48806   0.287  13.180   8.022
15656SOL    HW148807   0.193  13.198   8.011
15656SOL    HW248808   0.320  13.253   8.074
15657SOL     OW48809   2.760   3.713   9.260
15657SOL    HW148810   2.806   3.763   9.192
15657SOL    HW248811   2.791   3.623   9.247
15658SOL     OW48812   7.104  12.986  12.873
15658SOL    HW148813   7.185  13.016  12.914
15658SOL    HW248814   7.130  12.959  12.785
15659SOL     OW48815   0.930   5.043   9.966
15659SOL    HW148816   0.888   5.095   9.898
15659SOL    HW248817   0.858   5.003  10.014
15660SOL     OW48818   7.640  11.931   7.323
15660SOL    HW148819   7.576  12.001   7.320
15660SOL    HW248820   7.616  11.879   7.400
15661SOL     OW48821   8.538   9.981  11.274
15661SOL    HW148822   8.630   9.980  11.250
15661SOL    HW248823   8.538   9.998  11.369
15662SOL     OW48824  11.326   1.055   7.615
15662SOL    HW148825  11.267   1.101   7.675
15662SOL    HW248826  11.331   0.966   7.651
15663SOL     OW48827   8.994   2.155   9.768
15663SOL    HW148828   9.058   2.225   9.751
15663SOL    HW248829   8.920   2.176   9.711
15664SOL     OW48830   9.724  14.343   0.970
15664SOL    HW148831   9.652  14.306   0.919
15664SOL    HW248832   9.753  14.418   0.918
15665SOL     OW48833   8.535   8.078   2.157
15665SOL    HW148834   8.610   8.023   2.131
15665SOL    HW248835   8.462   8.044   2.105
15666SOL     OW48836   6.261   3.907  14.807
15666SOL    HW148837   6.249   3.974  14.739
15666SOL    HW248838   6.310   3.952  14.876
15667SOL     OW48839  13.687  14.122  11.562
15667SOL    HW148840  13.602  14.079  11.572
15667SOL    HW248841  13.675  14.181  11.487
15668SOL     OW48842  12.919   0.303   3.742
15668SOL    HW148843  12.884   0.216   3.723
15668SOL    HW248844  13.004   0.305   3.696
15669SOL     OW48845   4.995   4.618   0.424
15669SOL    HW148846   4.906   4.654   0.425
15669SOL    HW248847   5.028   4.639   0.336
15670SOL     OW48848   6.141   9.297   4.645
15670SOL    HW148849   6.219   9.343   4.613
15670SOL    HW248850   6.176   9.223   4.696
15671SOL     OW48851  14.545   2.411  12.091
15671SOL    HW148852  14.458   2.436  12.060
15671SOL    HW248853  14.599   2.489  12.074
15672SOL     OW48854   4.822   0.198   7.500
15672SOL    HW148855   4.907   0.154   7.490
15672SOL    HW248856   4.840   0.271   7.560
15673SOL     OW48857   4.349   0.466   7.252
15673SOL    HW148858   4.334   0.421   7.169
15673SOL    HW248859   4.443   0.454   7.268
15674SOL     OW48860   6.968   6.396  13.391
15674SOL    HW148861   6.899   6.331  13.378
15674SOL    HW248862   6.937   6.474  13.344
15675SOL     OW48863   4.521   0.955   7.575
15675SOL    HW148864   4.597   0.985   7.525
15675SOL    HW248865   4.454   1.023   7.560
15676SOL     OW48866   7.776   1.914   2.288
15676SOL    HW148867   7.706   1.973   2.260
15676SOL    HW248868   7.849   1.933   2.229
15677SOL     OW48869  14.807   8.051   3.455
15677SOL    HW148870  14.726   8.100   3.466
15677SOL    HW248871  14.849   8.089   3.378
15678SOL     OW48872  13.672   3.183   6.691
15678SOL    HW148873  13.726   3.120   6.644
15678SOL    HW248874  13.582   3.158   6.668
15679SOL     OW48875   8.003   2.367   7.405
15679SOL    HW148876   7.910   2.367   7.424
15679SOL    HW248877   8.009   2.391   7.312
15680SOL     OW48878  14.623   4.203  11.692
15680SOL    HW148879  14.603   4.192  11.599
15680SOL    HW248880  14.629   4.115  11.727
15681SOL     OW48881   6.597  14.272  14.308
15681SOL    HW148882   6.569  14.201  14.366
15681SOL    HW248883   6.598  14.232  14.220
15682SOL     OW48884   1.855   7.304   4.363
15682SOL    HW148885   1.809   7.317   4.446
15682SOL    HW248886   1.939   7.267   4.388
15683SOL     OW48887   4.930  12.889  10.133
15683SOL    HW148888   5.021  12.859  10.140
15683SOL    HW248889   4.893  12.872  10.219
15684SOL     OW48890  13.464  10.806   0.668
15684SOL    HW148891  13.387  10.821   0.613
15684SOL    HW248892  13.459  10.874   0.735
15685SOL     OW48893  11.220   9.551   8.669
15685SOL    HW148894  11.135   9.510   8.654
15685SOL    HW248895  11.264   9.547   8.584
15686SOL     OW48896   4.865  11.644  12.019
15686SOL    HW148897   4.889  11.725  11.975
15686SOL    HW248898   4.886  11.659  12.111
15687SOL     OW48899   6.526   4.499  10.753
15687SOL    HW148900   6.570   4.435  10.809
15687SOL    HW248901   6.525   4.580  10.805
15688SOL     OW48902   8.614  10.815   0.887
15688SOL    HW148903   8.614  10.768   0.971
15688SOL    HW248904   8.696  10.788   0.845
15689SOL     OW48905   1.395  12.983   5.778
15689SOL    HW148906   1.347  12.909   5.815
15689SOL    HW248907   1.484  12.950   5.768
15690SOL     OW48908   5.823   4.295  12.048
15690SOL    HW148909   5.911   4.280  12.012
15690SOL    HW248910   5.837   4.311  12.141
15691SOL     OW48911   1.427   8.635  11.994
15691SOL    HW148912   1.334   8.655  12.010
15691SOL    HW248913   1.473   8.673  12.068
15692SOL     OW48914   6.846   4.737   2.063
15692SOL    HW148915   6.819   4.678   1.992
15692SOL    HW248916   6.936   4.760   2.042
15693SOL     OW48917   1.673  12.978   8.897
15693SOL    HW148918   1.693  13.036   8.970
15693SOL    HW248919   1.578  12.966   8.902
15694SOL     OW48920  13.319   5.776   7.537
15694SOL    HW148921  13.240   5.727   7.513
15694SOL    HW248922  13.306   5.863   7.497
15695SOL     OW48923  12.640  10.069   0.194
15695SOL    HW148924  12.697  10.089   0.268
15695SOL    HW248925  12.699  10.046   0.123
15696SOL     OW48926   5.598   0.501   8.320
15696SOL    HW148927   5.598   0.438   8.248
15696SOL    HW248928   5.576   0.449   8.397
15697SOL     OW48929   4.278   0.558  12.202
15697SOL    HW148930   4.312   0.513  12.124
15697SOL    HW248931   4.185   0.536  12.203
15698SOL     OW48932  11.576  12.529   0.138
15698SOL    HW148933  11.630  12.561   0.066
15698SOL    HW248934  11.545  12.608   0.182
15699SOL     OW48935   2.190  10.864  14.427
15699SOL    HW148936   2.236  10.877  14.510
15699SOL    HW248937   2.102  10.898  14.443
15700SOL     OW48938  12.556   7.510  12.652
15700SOL    HW148939  12.577   7.597  12.618
15700SOL    HW248940  12.519   7.463  12.577
15701SOL     OW48941   9.852  10.640   3.844
15701SOL    HW148942   9.850  10.545   3.858
15701SOL    HW248943   9.764  10.660   3.810
15702SOL     OW48944   3.920   3.455  12.024
15702SOL    HW148945   3.994   3.430  11.968
15702SOL    HW248946   3.846   3.459  11.964
15703SOL     OW48947   6.354   6.978   9.482
15703SOL    HW148948   6.354   7.026   9.399
15703SOL    HW248949   6.360   6.886   9.456
15704SOL     OW48950   8.283   9.004   4.096
15704SOL    HW148951   8.221   8.960   4.154
15704SOL    HW248952   8.278   8.955   4.015
15705SOL     OW48953   8.565   8.731   1.315
15705SOL    HW148954   8.544   8.822   1.336
15705SOL    HW248955   8.661   8.728   1.317
15706SOL     OW48956   7.898   7.482   4.246
15706SOL    HW148957   7.856   7.398   4.228
15706SOL    HW248958   7.912   7.482   4.340
15707SOL     OW48959   0.243   2.226   4.510
15707SOL    HW148960   0.255   2.177   4.429
15707SOL    HW248961   0.325   2.274   4.522
15708SOL     OW48962  14.613   0.882  14.505
15708SOL    HW148963  14.641   0.801  14.547
15708SOL    HW248964  14.673   0.949  14.538
15709SOL     OW48965   7.311  13.178  11.858
15709SOL    HW148966   7.263  13.237  11.801
15709SOL    HW248967   7.389  13.154  11.808
15710SOL     OW48968  10.965   1.998   7.848
15710SOL    HW148969  11.042   1.945   7.870
15710SOL    HW248970  10.988   2.041   7.766
15711SOL     OW48971  14.641  12.381   6.230
15711SOL    HW148972  14.735  12.375   6.248
15711SOL    HW248973  14.634  12.441   6.156
15712SOL     OW48974  13.940   2.694   2.457
15712SOL    HW148975  14.031   2.721   2.463
15712SOL    HW248976  13.892   2.759   2.509
15713SOL     OW48977   0.218   7.171   4.014
15713SOL    HW148978   0.123   7.177   4.002
15713SOL    HW248979   0.232   7.081   4.044
15714SOL     OW48980  12.803   7.015  12.819
15714SOL    HW148981  12.820   6.943  12.758
15714SOL    HW248982  12.714   6.999  12.851
15715SOL     OW48983  11.197   4.828   6.402
15715SOL    HW148984  11.138   4.833   6.327
15715SOL    HW248985  11.217   4.920   6.423
15716SOL     OW48986  14.112   6.540   4.809
15716SOL    HW148987  14.068   6.571   4.730
15716SOL    HW248988  14.152   6.618   4.847
15717SOL     OW48989  10.875   9.975  11.426
15717SOL    HW148990  10.835   9.962  11.340
15717SOL    HW248991  10.940  10.044  11.412
15718SOL     OW48992   2.358   8.959   2.913
15718SOL    HW148993   2.369   9.030   2.977
15718SOL    HW248994   2.446   8.943   2.880
15719SOL     OW48995   3.272   4.401   8.820
15719SOL    HW148996   3.257   4.489   8.784
15719SOL    HW248997   3.315   4.354   8.749
15720SOL     OW48998   7.183   1.647   6.077
15720SOL    HW148999   7.096   1.666   6.043
15720SOL    HW249000   7.175   1.661   6.171
15721SOL     OW49001   3.395   5.454  14.281
15721SOL    HW149002   3.483   5.486  14.262
15721SOL    HW249003   3.344   5.474  14.202
15722SOL     OW49004   6.007   8.638   1.130
15722SOL    HW149005   6.034   8.555   1.169
15722SOL    HW249006   5.987   8.694   1.205
15723SOL     OW49007   3.268   2.594   9.815
15723SOL    HW149008   3.324   2.659   9.772
15723SOL    HW249009   3.180   2.611   9.781
15724SOL     OW49010   5.156  10.679  10.388
15724SOL    HW149011   5.163  10.600  10.442
15724SOL    HW249012   5.146  10.751  10.451
15725SOL     OW49013   2.860   6.956   9.140
15725SOL    HW149014   2.793   6.919   9.082
15725SOL    HW249015   2.891   7.034   9.095
15726SOL     OW49016  14.346   1.572   7.594
15726SOL    HW149017  14.297   1.645   7.556
15726SOL    HW249018  14.338   1.502   7.530
15727SOL     OW49019   6.908   7.914   5.839
15727SOL    HW149020   6.823   7.904   5.796
15727SOL    HW249021   6.952   7.982   5.787
15728SOL     OW49022  14.671   0.799   7.904
15728SOL    HW149023  14.683   0.891   7.928
15728SOL    HW249024  14.616   0.763   7.973
15729SOL     OW49025   8.300   4.942  11.556
15729SOL    HW149026   8.324   5.002  11.626
15729SOL    HW249027   8.327   4.856  11.589
15730SOL     OW49028   3.922   1.599   9.984
15730SOL    HW149029   3.983   1.534   9.950
15730SOL    HW249030   3.859   1.549  10.035
15731SOL     OW49031  11.427  10.136   9.381
15731SOL    HW149032  11.393  10.059   9.427
15731SOL    HW249033  11.397  10.211   9.432
15732SOL     OW49034   4.599   4.139   6.928
15732SOL    HW149035   4.569   4.088   6.853
15732SOL    HW249036   4.532   4.124   6.995
15733SOL     OW49037   8.918   3.845   5.848
15733SOL    HW149038   8.936   3.933   5.879
15733SOL    HW249039   8.911   3.792   5.927
15734SOL     OW49040  14.072   1.046   3.386
15734SOL    HW149041  14.069   1.076   3.476
15734SOL    HW249042  14.164   1.030   3.368
15735SOL     OW49043   7.062   1.188  11.486
15735SOL    HW149044   7.119   1.158  11.416
15735SOL    HW249045   7.083   1.281  11.496
15736SOL     OW49046  12.386  10.359  13.421
15736SOL    HW149047  12.395  10.414  13.499
15736SOL    HW249048  12.296  10.329  13.423
15737SOL     OW49049  11.757   7.687   1.293
15737SOL    HW149050  11.807   7.765   1.317
15737SOL    HW249051  11.799   7.616   1.343
15738SOL     OW49052  10.792  11.943   8.048
15738SOL    HW149053  10.734  11.990   7.988
15738SOL    HW249054  10.863  11.911   7.992
15739SOL     OW49055  12.486   0.712   1.604
15739SOL    HW149056  12.579   0.696   1.617
15739SOL    HW249057  12.476   0.717   1.509
15740SOL     OW49058   8.795   5.905   0.122
15740SOL    HW149059   8.724   5.860   0.168
15740SOL    HW249060   8.751   5.946   0.047
15741SOL     OW49061   2.253   6.257   9.029
15741SOL    HW149062   2.296   6.179   9.065
15741SOL    HW249063   2.323   6.322   9.024
15742SOL     OW49064   2.561   2.093   0.268
15742SOL    HW149065   2.654   2.116   0.273
15742SOL    HW249066   2.526   2.119   0.353
15743SOL     OW49067   0.675  13.881  12.631
15743SOL    HW149068   0.733  13.885  12.556
15743SOL    HW249069   0.619  13.958  12.622
15744SOL     OW49070   4.512  14.091   5.570
15744SOL    HW149071   4.445  14.026   5.547
15744SOL    HW249072   4.593  14.041   5.577
15745SOL     OW49073   3.951   7.097  11.092
15745SOL    HW149074   3.891   7.084  11.165
15745SOL    HW249075   3.926   7.181  11.054
15746SOL     OW49076   5.722   0.711   0.697
15746SOL    HW149077   5.647   0.769   0.707
15746SOL    HW249078   5.782   0.737   0.768
15747SOL     OW49079  14.307  11.802  10.242
15747SOL    HW149080  14.239  11.743  10.210
15747SOL    HW249081  14.293  11.884  10.195
15748SOL     OW49082  14.486   0.002   0.734
15748SOL    HW149083  14.521   0.091   0.739
15748SOL    HW249084  14.563  14.828   0.724
15749SOL     OW49085   8.256   6.805   4.464
15749SOL    HW149086   8.302   6.770   4.388
15749SOL    HW249087   8.202   6.876   4.429
15750SOL     OW49088   9.203   7.321  12.919
15750SOL    HW149089   9.238   7.232  12.919
15750SOL    HW249090   9.175   7.336  13.010
15751SOL     OW49091   1.001  12.391   3.520
15751SOL    HW149092   1.075  12.416   3.575
15751SOL    HW249093   1.040  12.343   3.447
15752SOL     OW49094  13.496  12.912   0.185
15752SOL    HW149095  13.566  12.976   0.174
15752SOL    HW249096  13.521  12.862   0.263
15753SOL     OW49097   2.679   4.288   3.417
15753SOL    HW149098   2.625   4.354   3.372
15753SOL    HW249099   2.619   4.248   3.481
15754SOL     OW49100   1.024   6.839   1.726
15754SOL    HW149101   0.958   6.884   1.674
15754SOL    HW249102   1.053   6.766   1.670
15755SOL     OW49103   1.023  14.630   3.954
15755SOL    HW149104   1.115  14.623   3.927
15755SOL    HW249105   0.981  14.679   3.882
15756SOL     OW49106  12.070   5.783   4.047
15756SOL    HW149107  12.033   5.853   4.101
15756SOL    HW249108  11.994   5.735   4.015
15757SOL     OW49109   1.502   3.068   2.211
15757SOL    HW149110   1.419   3.115   2.217
15757SOL    HW249111   1.478   2.976   2.227
15758SOL     OW49112  14.665  12.989   5.760
15758SOL    HW149113  14.685  12.936   5.837
15758SOL    HW249114  14.650  13.077   5.795
15759SOL     OW49115   0.309   1.883   8.507
15759SOL    HW149116   0.241   1.883   8.440
15759SOL    HW249117   0.330   1.790   8.519
15760SOL     OW49118  14.010   2.423   5.514
15760SOL    HW149119  14.085   2.407   5.457
15760SOL    HW249120  13.986   2.514   5.499
15761SOL     OW49121   6.205   1.412  13.275
15761SOL    HW149122   6.198   1.317  13.273
15761SOL    HW249123   6.239   1.432  13.362
15762SOL     OW49124   0.938   7.281  14.154
15762SOL    HW149125   0.869   7.283  14.221
15762SOL    HW249126   1.012   7.324  14.196
15763SOL     OW49127   0.948   3.706   0.017
15763SOL    HW149128   0.872   3.695   0.073
15763SOL    HW249129   0.912   3.728  14.813
15764SOL     OW49130   5.255   4.160   3.703
15764SOL    HW149131   5.208   4.147   3.786
15764SOL    HW249132   5.291   4.248   3.709
15765SOL     OW49133   8.090   4.431   1.232
15765SOL    HW149134   8.092   4.503   1.169
15765SOL    HW249135   8.020   4.374   1.200
15766SOL     OW49136  14.556  12.282  13.502
15766SOL    HW149137  14.515  12.329  13.429
15766SOL    HW249138  14.566  12.192  13.470
15767SOL     OW49139   2.980  13.220   2.350
15767SOL    HW149140   2.946  13.146   2.400
15767SOL    HW249141   3.056  13.184   2.304
15768SOL     OW49142   0.629   2.196   2.035
15768SOL    HW149143   0.549   2.197   1.982
15768SOL    HW249144   0.602   2.155   2.117
15769SOL     OW49145   7.575   5.232   9.516
15769SOL    HW149146   7.626   5.313   9.520
15769SOL    HW249147   7.525   5.240   9.434
15770SOL     OW49148  14.757   6.116  14.863
15770SOL    HW149149  14.755   6.095  14.770
15770SOL    HW249150  14.669   6.097   0.013
15771SOL     OW49151   0.392  14.347   9.633
15771SOL    HW149152   0.367  14.278   9.571
15771SOL    HW249153   0.469  14.388   9.593
15772SOL     OW49154  14.556   7.467  13.779
15772SOL    HW149155  14.648   7.467  13.807
15772SOL    HW249156  14.523   7.553  13.807
15773SOL     OW49157   2.141  14.298   8.547
15773SOL    HW149158   2.236  14.299   8.534
15773SOL    HW249159   2.108  14.370   8.492
15774SOL     OW49160   6.845   5.996  13.469
15774SOL    HW149161   6.841   5.951  13.385
15774SOL    HW249162   6.813   6.084  13.452
15775SOL     OW49163  14.823  10.188   8.426
15775SOL    HW149164  14.784  10.137   8.498
15775SOL    HW249165  14.837  10.275   8.463
15776SOL     OW49166  12.081   9.227  14.583
15776SOL    HW149167  12.088   9.139  14.621
15776SOL    HW249168  12.073   9.285  14.659
15777SOL     OW49169   1.087   3.945  10.408
15777SOL    HW149170   1.021   3.878  10.390
15777SOL    HW249171   1.065   3.979  10.494
15778SOL     OW49172   9.524  10.940   5.330
15778SOL    HW149173   9.494  10.898   5.249
15778SOL    HW249174   9.602  10.891   5.354
15779SOL     OW49175   2.237   4.738   5.449
15779SOL    HW149176   2.241   4.730   5.544
15779SOL    HW249177   2.144   4.729   5.427
15780SOL     OW49178  10.081   2.869   4.781
15780SOL    HW149179  10.007   2.813   4.802
15780SOL    HW249180  10.080   2.937   4.849
15781SOL     OW49181   1.917   3.421   6.764
15781SOL    HW149182   1.928   3.328   6.781
15781SOL    HW249183   1.992   3.446   6.710
15782SOL     OW49184   2.209   9.994  12.029
15782SOL    HW149185   2.156   9.919  12.058
15782SOL    HW249186   2.173  10.018  11.944
15783SOL     OW49187   0.428   3.206  14.448
15783SOL    HW149188   0.478   3.175  14.523
15783SOL    HW249189   0.492   3.252  14.393
15784SOL     OW49190  11.787  12.865   7.262
15784SOL    HW149191  11.818  12.849   7.351
15784SOL    HW249192  11.844  12.810   7.208
15785SOL     OW49193   1.981  13.488   4.379
15785SOL    HW149194   1.979  13.510   4.285
15785SOL    HW249195   1.940  13.402   4.384
15786SOL     OW49196   9.673   1.282  12.808
15786SOL    HW149197   9.749   1.267  12.751
15786SOL    HW249198   9.609   1.323  12.751
15787SOL     OW49199   2.171  10.181  10.998
15787SOL    HW149200   2.196  10.264  10.958
15787SOL    HW249201   2.127  10.133  10.929
15788SOL     OW49202  12.119   0.562   9.703
15788SOL    HW149203  12.091   0.530   9.788
15788SOL    HW249204  12.132   0.483   9.650
15789SOL     OW49205  13.799   3.281   6.319
15789SOL    HW149206  13.888   3.257   6.345
15789SOL    HW249207  13.810   3.347   6.251
15790SOL     OW49208  14.387   1.688  14.113
15790SOL    HW149209  14.456   1.752  14.131
15790SOL    HW249210  14.354   1.663  14.199
15791SOL     OW49211   0.725   1.948   4.081
15791SOL    HW149212   0.647   1.923   4.032
15791SOL    HW249213   0.706   2.036   4.113
15792SOL     OW49214  10.434   0.821   8.655
15792SOL    HW149215  10.522   0.829   8.694
15792SOL    HW249216  10.389   0.901   8.682
15793SOL     OW49217   6.239   2.592   8.327
15793SOL    HW149218   6.161   2.608   8.274
15793SOL    HW249219   6.265   2.678   8.359
15794SOL     OW49220   0.386  13.515   2.048
15794SOL    HW149221   0.372  13.484   1.958
15794SOL    HW249222   0.407  13.437   2.098
15795SOL     OW49223   1.862  11.292   1.747
15795SOL    HW149224   1.880  11.207   1.707
15795SOL    HW249225   1.776  11.317   1.713
15796SOL     OW49226   9.324  14.617   2.351
15796SOL    HW149227   9.413  14.588   2.372
15796SOL    HW249228   9.287  14.645   2.435
15797SOL     OW49229   8.911   9.674  13.945
15797SOL    HW149230   8.993   9.655  13.990
15797SOL    HW249231   8.935   9.741  13.881
15798SOL     OW49232  11.885  13.739   8.986
15798SOL    HW149233  11.808  13.767   9.036
15798SOL    HW249234  11.886  13.643   8.995
15799SOL     OW49235   1.916   0.746  14.045
15799SOL    HW149236   1.988   0.810  14.042
15799SOL    HW249237   1.956   0.666  14.079
15800SOL     OW49238   9.521   2.681   5.004
15800SOL    HW149239   9.480   2.652   4.922
15800SOL    HW249240   9.501   2.774   5.009
15801SOL     OW49241   9.534   2.410  10.102
15801SOL    HW149242   9.601   2.401  10.170
15801SOL    HW249243   9.582   2.434  10.024
15802SOL     OW49244   8.684   1.441   4.372
15802SOL    HW149245   8.669   1.535   4.363
15802SOL    HW249246   8.739   1.433   4.450
15803SOL     OW49247   1.448   4.906   0.281
15803SOL    HW149248   1.458   4.908   0.376
15803SOL    HW249249   1.426   4.814   0.262
15804SOL     OW49250   3.022  13.840   8.257
15804SOL    HW149251   3.013  13.869   8.166
15804SOL    HW249252   3.053  13.918   8.303
15805SOL     OW49253   6.569  13.605  11.506
15805SOL    HW149254   6.654  13.606  11.550
15805SOL    HW249255   6.505  13.618  11.576
15806SOL     OW49256   2.249  11.578   5.017
15806SOL    HW149257   2.218  11.569   5.107
15806SOL    HW249258   2.344  11.590   5.025
15807SOL     OW49259   9.122   7.379  11.090
15807SOL    HW149260   9.054   7.354  11.153
15807SOL    HW249261   9.204   7.367  11.138
15808SOL     OW49262   6.476   1.626  14.042
15808SOL    HW149263   6.539   1.698  14.040
15808SOL    HW249264   6.504   1.571  14.114
15809SOL     OW49265  10.385   0.185  13.606
15809SOL    HW149266  10.304   0.229  13.580
15809SOL    HW249267  10.452   0.253  13.601
15810SOL     OW49268   9.420   2.934  14.701
15810SOL    HW149269   9.429   2.943  14.796
15810SOL    HW249270   9.334   2.970  14.681
15811SOL     OW49271   8.236   3.284  14.322
15811SOL    HW149272   8.195   3.331  14.250
15811SOL    HW249273   8.324   3.322  14.330
15812SOL     OW49274   5.126   9.957   8.166
15812SOL    HW149275   5.031   9.948   8.166
15812SOL    HW249276   5.141  10.048   8.140
15813SOL     OW49277   4.179   4.861  13.594
15813SOL    HW149278   4.170   4.871  13.499
15813SOL    HW249279   4.210   4.946  13.624
15814SOL     OW49280   8.547   9.466  10.747
15814SOL    HW149281   8.467   9.447  10.797
15814SOL    HW249282   8.609   9.399  10.774
15815SOL     OW49283   8.652  10.746  10.946
15815SOL    HW149284   8.608  10.723  10.864
15815SOL    HW249285   8.587  10.726  11.014
15816SOL     OW49286   7.757   6.807   0.450
15816SOL    HW149287   7.798   6.888   0.481
15816SOL    HW249288   7.672   6.835   0.416
15817SOL     OW49289  10.154  14.615  11.159
15817SOL    HW149290  10.106  14.617  11.077
15817SOL    HW249291  10.090  14.646  11.224
15818SOL     OW49292  11.230   5.943   2.943
15818SOL    HW149293  11.296   5.882   2.976
15818SOL    HW249294  11.147   5.909   2.974
15819SOL     OW49295   1.588  14.849  12.311
15819SOL    HW149296   1.668  14.841  12.260
15819SOL    HW249297   1.605   0.039  12.371
15820SOL     OW49298   4.900   0.575   4.580
15820SOL    HW149299   4.977   0.570   4.523
15820SOL    HW249300   4.936   0.570   4.669
15821SOL     OW49301   2.168  12.750   3.989
15821SOL    HW149302   2.249  12.788   4.024
15821SOL    HW249303   2.129  12.705   4.064
15822SOL     OW49304   0.847   6.163   7.417
15822SOL    HW149305   0.757   6.130   7.421
15822SOL    HW249306   0.901   6.084   7.413
15823SOL     OW49307  14.397  12.749  12.818
15823SOL    HW149308  14.462  12.768  12.750
15823SOL    HW249309  14.349  12.673  12.786
15824SOL     OW49310  12.125   2.794   6.093
15824SOL    HW149311  12.105   2.709   6.054
15824SOL    HW249312  12.048   2.848   6.075
15825SOL     OW49313  10.176   0.916   0.858
15825SOL    HW149314  10.115   0.927   0.785
15825SOL    HW249315  10.191   1.004   0.891
15826SOL     OW49316   0.520   5.467   1.087
15826SOL    HW149317   0.569   5.409   1.029
15826SOL    HW249318   0.565   5.551   1.080
15827SOL     OW49319  12.372   8.770   8.834
15827SOL    HW149320  12.409   8.712   8.900
15827SOL    HW249321  12.446   8.822   8.803
15828SOL     OW49322   3.967  12.636   4.668
15828SOL    HW149323   3.942  12.560   4.721
15828SOL    HW249324   4.059  12.651   4.689
15829SOL     OW49325   1.019  14.782   1.673
15829SOL    HW149326   0.931  14.745   1.664
15829SOL    HW249327   1.059  14.732   1.745
15830SOL     OW49328  10.843  10.810  14.396
15830SOL    HW149329  10.890  10.840  14.473
15830SOL    HW249330  10.877  10.864  14.324
15831SOL     OW49331  13.450   8.250   5.301
15831SOL    HW149332  13.402   8.177   5.340
15831SOL    HW249333  13.405   8.328   5.332
15832SOL     OW49334   2.709   1.269   2.617
15832SOL    HW149335   2.629   1.317   2.596
15832SOL    HW249336   2.710   1.263   2.712
15833SOL     OW49337   7.582  12.860   0.213
15833SOL    HW149338   7.526  12.791   0.178
15833SOL    HW249339   7.520  12.926   0.245
15834SOL     OW49340   8.401  13.773  10.804
15834SOL    HW149341   8.463  13.722  10.753
15834SOL    HW249342   8.450  13.800  10.881
15835SOL     OW49343   5.893   1.267   2.485
15835SOL    HW149344   5.918   1.359   2.483
15835SOL    HW249345   5.977   1.220   2.478
15836SOL     OW49346   6.847   7.235   6.539
15836SOL    HW149347   6.928   7.198   6.507
15836SOL    HW249348   6.862   7.330   6.538
15837SOL     OW49349   0.337  10.920   0.984
15837SOL    HW149350   0.421  10.879   0.965
15837SOL    HW249351   0.275  10.876   0.926
15838SOL     OW49352   0.040   0.889   6.176
15838SOL    HW149353   0.002   0.836   6.107
15838SOL    HW249354   0.128   0.853   6.189
15839SOL     OW49355   3.571   6.638  13.658
15839SOL    HW149356   3.615   6.679  13.584
15839SOL    HW249357   3.515   6.707  13.693
15840SOL     OW49358   9.934   2.250   2.925
15840SOL    HW149359   9.929   2.299   3.008
15840SOL    HW249360   9.855   2.196   2.925
15841SOL     OW49361   4.838   5.426   5.237
15841SOL    HW149362   4.788   5.498   5.199
15841SOL    HW249363   4.775   5.381   5.294
15842SOL     OW49364  11.760  10.895  14.010
15842SOL    HW149365  11.821  10.903  14.083
15842SOL    HW249366  11.674  10.902  14.050
15843SOL     OW49367   4.902  12.085   2.534
15843SOL    HW149368   4.933  11.997   2.555
15843SOL    HW249369   4.967  12.144   2.573
15844SOL     OW49370   4.092   4.159  11.477
15844SOL    HW149371   4.146   4.080  11.472
15844SOL    HW249372   4.042   4.150  11.558
15845SOL     OW49373   7.192   0.836   2.245
15845SOL    HW149374   7.218   0.928   2.248
15845SOL    HW249375   7.246   0.793   2.312
15846SOL     OW49376  11.562   4.627   8.081
15846SOL    HW149377  11.485   4.655   8.131
15846SOL    HW249378  11.618   4.705   8.076
15847SOL     OW49379   4.537  11.720   2.980
15847SOL    HW149380   4.612  11.660   2.977
15847SOL    HW249381   4.567  11.792   3.035
15848SOL     OW49382   1.517   1.492  13.034
15848SOL    HW149383   1.440   1.521  13.084
15848SOL    HW249384   1.496   1.402  13.007
15849SOL     OW49385   3.715  10.455   8.257
15849SOL    HW149386   3.693  10.374   8.304
15849SOL    HW249387   3.733  10.426   8.168
15850SOL     OW49388  13.852   7.546  12.847
15850SOL    HW149389  13.859   7.494  12.767
15850SOL    HW249390  13.780   7.607  12.830
15851SOL     OW49391   8.199  13.465  10.180
15851SOL    HW149392   8.239  13.460  10.093
15851SOL    HW249393   8.220  13.381  10.221
15852SOL     OW49394   2.464   1.922   5.927
15852SOL    HW149395   2.514   1.843   5.911
15852SOL    HW249396   2.517   1.992   5.887
15853SOL     OW49397   9.205  14.599   5.198
15853SOL    HW149398   9.208  14.504   5.212
15853SOL    HW249399   9.290  14.631   5.229
15854SOL     OW49400  14.351   8.251  11.432
15854SOL    HW149401  14.274   8.301  11.459
15854SOL    HW249402  14.413   8.261  11.504
15855SOL     OW49403   7.267   5.374   2.179
15855SOL    HW149404   7.196   5.437   2.164
15855SOL    HW249405   7.251   5.341   2.267
15856SOL     OW49406   2.432  14.058   6.570
15856SOL    HW149407   2.464  14.148   6.575
15856SOL    HW249408   2.338  14.066   6.587
15857SOL     OW49409  10.122   4.302   8.011
15857SOL    HW149410  10.082   4.283   8.096
15857SOL    HW249411  10.214   4.280   8.022
15858SOL     OW49412   6.369   1.036   5.925
15858SOL    HW149413   6.350   0.968   5.990
15858SOL    HW249414   6.414   1.104   5.975
15859SOL     OW49415   8.691  11.991  14.628
15859SOL    HW149416   8.709  12.022  14.539
15859SOL    HW249417   8.602  12.021  14.647
15860SOL     OW49418  14.498   1.913   8.176
15860SOL    HW149419  14.555   1.863   8.118
15860SOL    HW249420  14.530   2.003   8.168
15861SOL     OW49421  11.970  14.535  10.471
15861SOL    HW149422  12.018  14.452  10.474
15861SOL    HW249423  11.899  14.524  10.534
15862SOL     OW49424   3.699   0.423   9.675
15862SOL    HW149425   3.608   0.444   9.652
15862SOL    HW249426   3.692   0.377   9.759
15863SOL     OW49427  13.171   0.418   3.262
15863SOL    HW149428  13.088   0.374   3.244
15863SOL    HW249429  13.147   0.501   3.302
15864SOL     OW49430   5.312   8.147  13.699
15864SOL    HW149431   5.265   8.065  13.686
15864SOL    HW249432   5.393   8.122  13.744
15865SOL     OW49433   4.725   0.106   1.958
15865SOL    HW149434   4.711   0.192   1.998
15865SOL    HW249435   4.637   0.070   1.949
15866SOL     OW49436   7.601   8.538  10.914
15866SOL    HW149437   7.510   8.562  10.932
15866SOL    HW249438   7.651   8.580  10.985
15867SOL     OW49439  13.806  10.322   9.230
15867SOL    HW149440  13.759  10.401   9.204
15867SOL    HW249441  13.889  10.328   9.183
15868SOL     OW49442   8.179  11.040  11.132
15868SOL    HW149443   8.178  11.133  11.108
15868SOL    HW249444   8.103  11.029  11.189
15869SOL     OW49445   3.682   4.741   4.918
15869SOL    HW149446   3.749   4.702   4.974
15869SOL    HW249447   3.600   4.726   4.965
15870SOL     OW49448  14.817   5.146   1.519
15870SOL    HW149449  14.850   5.235   1.509
15870SOL    HW249450  14.848   5.100   1.441
15871SOL     OW49451  10.454   6.416  12.848
15871SOL    HW149452  10.529   6.376  12.805
15871SOL    HW249453  10.489   6.445  12.933
15872SOL     OW49454   5.357   1.470   9.157
15872SOL    HW149455   5.415   1.396   9.139
15872SOL    HW249456   5.416   1.541   9.183
15873SOL     OW49457  10.212  13.549   0.134
15873SOL    HW149458  10.187  13.613   0.200
15873SOL    HW249459  10.185  13.589   0.051
15874SOL     OW49460  10.521   7.157   2.138
15874SOL    HW149461  10.468   7.139   2.060
15874SOL    HW249462  10.589   7.090   2.137
15875SOL     OW49463   4.255   9.215   3.486
15875SOL    HW149464   4.341   9.174   3.502
15875SOL    HW249465   4.198   9.176   3.552
15876SOL     OW49466   6.086   8.374  13.778
15876SOL    HW149467   6.023   8.394  13.848
15876SOL    HW249468   6.054   8.423  13.702
15877SOL     OW49469   4.121   3.259   7.136
15877SOL    HW149470   4.124   3.206   7.057
15877SOL    HW249471   4.212   3.261   7.167
15878SOL     OW49472  12.954   8.787  11.520
15878SOL    HW149473  12.889   8.768  11.453
15878SOL    HW249474  12.908   8.843  11.582
15879SOL     OW49475   6.646  14.533   5.056
15879SOL    HW149476   6.659  14.487   5.139
15879SOL    HW249477   6.732  14.570   5.036
15880SOL     OW49478   8.939  12.026   7.497
15880SOL    HW149479   8.932  12.052   7.405
15880SOL    HW249480   9.001  11.952   7.496
15881SOL     OW49481   3.684  12.776  10.104
15881SOL    HW149482   3.726  12.844  10.050
15881SOL    HW249483   3.676  12.701  10.046
15882SOL     OW49484   2.327  14.356  11.562
15882SOL    HW149485   2.407  14.383  11.607
15882SOL    HW249486   2.355  14.337  11.472
15883SOL     OW49487   7.463   7.248   2.326
15883SOL    HW149488   7.387   7.218   2.376
15883SOL    HW249489   7.469   7.342   2.346
15884SOL     OW49490  12.054  10.222  13.396
15884SOL    HW149491  12.028  10.169  13.471
15884SOL    HW249492  12.040  10.313  13.424
15885SOL     OW49493   1.455   2.297   7.677
15885SOL    HW149494   1.423   2.363   7.616
15885SOL    HW249495   1.452   2.339   7.763
15886SOL     OW49496  13.137   6.188   9.620
15886SOL    HW149497  13.202   6.202   9.550
15886SOL    HW249498  13.143   6.266   9.674
15887SOL     OW49499   2.228  14.737  12.110
15887SOL    HW149500   2.308  14.707  12.152
15887SOL    HW249501   2.158  14.708  12.168
15888SOL     OW49502   5.747   4.740   0.994
15888SOL    HW149503   5.677   4.806   0.995
15888SOL    HW249504   5.753   4.713   0.902
15889SOL     OW49505   4.453  10.447   0.579
15889SOL    HW149506   4.424  10.364   0.617
15889SOL    HW249507   4.530  10.471   0.631
15890SOL     OW49508   0.823  14.648   5.066
15890SOL    HW149509   0.827  14.554   5.050
15890SOL    HW249510   0.751  14.679   5.011
15891SOL     OW49511   3.667  12.840   1.409
15891SOL    HW149512   3.694  12.931   1.424
15891SOL    HW249513   3.634  12.840   1.319
15892SOL     OW49514  14.731  13.558  10.237
15892SOL    HW149515  14.654  13.569  10.180
15892SOL    HW249516  14.785  13.494  10.191
15893SOL     OW49517   6.022   3.720   7.969
15893SOL    HW149518   6.000   3.713   8.062
15893SOL    HW249519   6.033   3.814   7.954
15894SOL     OW49520  11.053   4.796   3.090
15894SOL    HW149521  11.100   4.876   3.066
15894SOL    HW249522  10.972   4.827   3.131
15895SOL     OW49523  10.900   3.801   1.121
15895SOL    HW149524  10.918   3.736   1.053
15895SOL    HW249525  10.853   3.871   1.076
15896SOL     OW49526   5.048  13.365  13.492
15896SOL    HW149527   5.142  13.380  13.504
15896SOL    HW249528   5.039  13.270  13.495
15897SOL     OW49529  10.949   5.565   9.143
15897SOL    HW149530  10.884   5.498   9.122
15897SOL    HW249531  10.985   5.538   9.227
15898SOL     OW49532  13.214   8.688  11.443
15898SOL    HW149533  13.123   8.709  11.465
15898SOL    HW249534  13.210   8.654  11.353
15899SOL     OW49535  11.053  11.982   0.747
15899SOL    HW149536  11.094  12.067   0.764
15899SOL    HW249537  11.098  11.949   0.669
15900SOL     OW49538   4.790   6.153   0.611
15900SOL    HW149539   4.721   6.194   0.664
15900SOL    HW249540   4.865   6.145   0.671
15901SOL     OW49541  11.817   5.205  10.435
15901SOL    HW149542  11.822   5.300  10.449
15901SOL    HW249543  11.853   5.167  10.516
15902SOL     OW49544   9.059  10.572   6.784
15902SOL    HW149545   9.048  10.571   6.879
15902SOL    HW249546   9.061  10.665   6.761
15903SOL     OW49547  10.417  14.529  13.440
15903SOL    HW149548  10.335  14.541  13.488
15903SOL    HW249549  10.484  14.568  13.497
15904SOL     OW49550  12.246  10.947   1.317
15904SOL    HW149551  12.177  10.931   1.382
15904SOL    HW249552  12.323  10.968   1.369
15905SOL     OW49553   9.657   6.687   0.520
15905SOL    HW149554   9.643   6.696   0.426
15905SOL    HW249555   9.750   6.707   0.533
15906SOL     OW49556   8.008   1.675   3.472
15906SOL    HW149557   7.950   1.674   3.549
15906SOL    HW249558   8.010   1.766   3.445
15907SOL     OW49559   5.735  12.953   9.989
15907SOL    HW149560   5.799  12.989  10.051
15907SOL    HW249561   5.666  12.916  10.044
15908SOL     OW49562   9.946   7.144  13.801
15908SOL    HW149563   9.943   7.150  13.705
15908SOL    HW249564  10.032   7.180  13.825
15909SOL     OW49565  12.816   3.727  14.374
15909SOL    HW149566  12.859   3.785  14.311
15909SOL    HW249567  12.837   3.639  14.344
15910SOL     OW49568   5.925  12.843   3.056
15910SOL    HW149569   5.944  12.910   2.990
15910SOL    HW249570   5.890  12.892   3.130
15911SOL     OW49571   7.639   4.667  10.385
15911SOL    HW149572   7.725   4.695  10.415
15911SOL    HW249573   7.619   4.724  10.311
15912SOL     OW49574   9.683   9.643   6.218
15912SOL    HW149575   9.763   9.633   6.269
15912SOL    HW249576   9.705   9.608   6.131
15913SOL     OW49577   5.857  10.173   6.328
15913SOL    HW149578   5.779  10.225   6.349
15913SOL    HW249579   5.869  10.115   6.403
15914SOL     OW49580   8.726   4.697   8.378
15914SOL    HW149581   8.674   4.644   8.317
15914SOL    HW249582   8.672   4.702   8.457
15915SOL     OW49583  10.074  13.656  14.333
15915SOL    HW149584  10.042  13.712  14.263
15915SOL    HW249585  10.051  13.702  14.414
15916SOL     OW49586   3.640   1.258   9.677
15916SOL    HW149587   3.730   1.289   9.683
15916SOL    HW249588   3.606   1.298   9.597
15917SOL     OW49589  12.488   4.832   2.133
15917SOL    HW149590  12.566   4.856   2.182
15917SOL    HW249591  12.520   4.803   2.048
15918SOL     OW49592   0.330   4.881   1.438
15918SOL    HW149593   0.324   4.786   1.446
15918SOL    HW249594   0.300   4.899   1.349
15919SOL     OW49595   0.691   3.562   9.158
15919SOL    HW149596   0.615   3.571   9.101
15919SOL    HW249597   0.720   3.472   9.146
15920SOL     OW49598   5.393   0.392  13.465
15920SOL    HW149599   5.302   0.400  13.436
15920SOL    HW249600   5.411   0.298  13.462
15921SOL     OW49601   8.542   8.178  14.072
15921SOL    HW149602   8.534   8.272  14.055
15921SOL    HW249603   8.568   8.140  13.988
15922SOL     OW49604  12.427  10.549   5.071
15922SOL    HW149605  12.397  10.637   5.093
15922SOL    HW249606  12.473  10.560   4.988
15923SOL     OW49607  10.935   4.503  11.070
15923SOL    HW149608  10.864   4.559  11.102
15923SOL    HW249609  10.963   4.452  11.146
15924SOL     OW49610   3.408   4.380  13.349
15924SOL    HW149611   3.440   4.292  13.329
15924SOL    HW249612   3.424   4.391  13.443
15925SOL     OW49613  12.722   9.294   2.336
15925SOL    HW149614  12.800   9.342   2.309
15925SOL    HW249615  12.748   9.251   2.418
15926SOL     OW49616  14.387  12.168   9.885
15926SOL    HW149617  14.375  12.106   9.814
15926SOL    HW249618  14.339  12.246   9.857
15927SOL     OW49619   0.025  13.688  12.952
15927SOL    HW149620  14.818  13.671  12.919
15927SOL    HW249621   0.047  13.610  13.002
15928SOL     OW49622  11.485   9.174   4.938
15928SOL    HW149623  11.520   9.224   5.011
15928SOL    HW249624  11.547   9.188   4.866
15929SOL     OW49625   1.325   2.817   5.040
15929SOL    HW149626   1.229   2.822   5.042
15929SOL    HW249627   1.344   2.725   5.020
15930SOL     OW49628   0.888  10.577   0.362
15930SOL    HW149629   0.917  10.645   0.424
15930SOL    HW249630   0.907  10.494   0.407
15931SOL     OW49631   0.385   3.294   5.747
15931SOL    HW149632   0.460   3.273   5.692
15931SOL    HW249633   0.410   3.374   5.792
15932SOL     OW49634   3.808   8.052   4.432
15932SOL    HW149635   3.877   8.117   4.439
15932SOL    HW249636   3.790   8.026   4.523
15933SOL     OW49637   6.141   0.746  10.231
15933SOL    HW149638   6.095   0.725  10.313
15933SOL    HW249639   6.234   0.741  10.254
15934SOL     OW49640  12.862  12.489   2.705
15934SOL    HW149641  12.905  12.574   2.699
15934SOL    HW249642  12.813  12.493   2.787
15935SOL     OW49643  13.391   7.552   3.175
15935SOL    HW149644  13.354   7.516   3.255
15935SOL    HW249645  13.316   7.591   3.129
15936SOL     OW49646   0.376   7.169  14.252
15936SOL    HW149647   0.368   7.265  14.254
15936SOL    HW249648   0.459   7.152  14.297
15937SOL     OW49649   2.216   6.399  12.460
15937SOL    HW149650   2.127   6.398  12.496
15937SOL    HW249651   2.244   6.491  12.468
15938SOL     OW49652  13.869  14.307   2.980
15938SOL    HW149653  13.858  14.349   3.066
15938SOL    HW249654  13.913  14.224   3.000
15939SOL     OW49655   3.556   2.328   4.103
15939SOL    HW149656   3.606   2.249   4.120
15939SOL    HW249657   3.611   2.378   4.042
15940SOL     OW49658   9.289  10.351   3.804
15940SOL    HW149659   9.270  10.407   3.729
15940SOL    HW249660   9.204  10.313   3.828
15941SOL     OW49661   7.613   2.551   8.497
15941SOL    HW149662   7.519   2.544   8.510
15941SOL    HW249663   7.651   2.531   8.582
15942SOL     OW49664  11.714   9.101  11.709
15942SOL    HW149665  11.648   9.120  11.642
15942SOL    HW249666  11.794   9.082  11.659
15943SOL     OW49667   3.022   3.248   0.306
15943SOL    HW149668   3.115   3.227   0.318
15943SOL    HW249669   3.021   3.333   0.263
15944SOL     OW49670   4.701  12.623   0.072
15944SOL    HW149671   4.726  12.702   0.120
15944SOL    HW249672   4.738  12.551   0.123
15945SOL     OW49673   6.439   4.373  13.218
15945SOL    HW149674   6.526   4.411  13.227
15945SOL    HW249675   6.450   4.281  13.241
15946SOL     OW49676   3.802  13.910   8.957
15946SOL    HW149677   3.828  13.820   8.937
15946SOL    HW249678   3.800  13.913   9.053
15947SOL     OW49679  11.733  10.468   2.656
15947SOL    HW149680  11.647  10.505   2.673
15947SOL    HW249681  11.787  10.497   2.730
15948SOL     OW49682  13.747   4.441   3.913
15948SOL    HW149683  13.733   4.494   3.992
15948SOL    HW249684  13.818   4.485   3.867
15949SOL     OW49685   1.166  12.427  11.566
15949SOL    HW149686   1.249  12.413  11.520
15949SOL    HW249687   1.156  12.350  11.622
15950SOL     OW49688   1.621   2.962  13.624
15950SOL    HW149689   1.686   2.892  13.622
15950SOL    HW249690   1.640   3.011  13.705
15951SOL     OW49691   8.512   1.312   7.160
15951SOL    HW149692   8.453   1.369   7.210
15951SOL    HW249693   8.599   1.333   7.194
15952SOL     OW49694   1.169   4.000   5.778
15952SOL    HW149695   1.237   3.954   5.828
15952SOL    HW249696   1.112   3.930   5.746
15953SOL     OW49697   9.662   6.806   5.829
15953SOL    HW149698   9.634   6.727   5.782
15953SOL    HW249699   9.757   6.797   5.836
15954SOL     OW49700   2.806   7.189  12.910
15954SOL    HW149701   2.889   7.235  12.898
15954SOL    HW249702   2.754   7.212  12.833
15955SOL     OW49703   2.244  14.159   3.484
15955SOL    HW149704   2.280  14.194   3.565
15955SOL    HW249705   2.281  14.071   3.477
15956SOL     OW49706   8.872   3.245  10.269
15956SOL    HW149707   8.945   3.294  10.232
15956SOL    HW249708   8.875   3.265  10.363
15957SOL     OW49709  10.092   5.092  12.362
15957SOL    HW149710  10.099   5.121  12.271
15957SOL    HW249711  10.097   5.173  12.413
15958SOL     OW49712  13.924  10.094  10.793
15958SOL    HW149713  13.869  10.151  10.739
15958SOL    HW249714  13.924  10.135  10.879
15959SOL     OW49715   3.288   2.231  10.077
15959SOL    HW149716   3.328   2.229  10.164
15959SOL    HW249717   3.261   2.140  10.061
15960SOL     OW49718   4.105  10.541   7.522
15960SOL    HW149719   4.142  10.587   7.598
15960SOL    HW249720   4.108  10.449   7.547
15961SOL     OW49721   9.380   4.353   9.481
15961SOL    HW149722   9.333   4.320   9.405
15961SOL    HW249723   9.447   4.410   9.446
15962SOL     OW49724   8.714  10.574   2.212
15962SOL    HW149725   8.713  10.498   2.154
15962SOL    HW249726   8.692  10.540   2.298
15963SOL     OW49727  12.553  11.180   8.438
15963SOL    HW149728  12.459  11.173   8.421
15963SOL    HW249729  12.564  11.154   8.529
15964SOL     OW49730   4.510   0.807  11.381
15964SOL    HW149731   4.536   0.884  11.330
15964SOL    HW249732   4.416   0.800  11.367
15965SOL     OW49733   3.365  12.878   0.592
15965SOL    HW149734   3.273  12.893   0.613
15965SOL    HW249735   3.366  12.863   0.497
15966SOL     OW49736   2.936   0.084  11.681
15966SOL    HW149737   2.904   0.167  11.717
15966SOL    HW249738   3.025   0.076  11.716
15967SOL     OW49739  10.339  12.364   8.811
15967SOL    HW149740  10.358  12.270   8.803
15967SOL    HW249741  10.244  12.369   8.816
15968SOL     OW49742   3.055  12.892   0.547
15968SOL    HW149743   2.984  12.879   0.609
15968SOL    HW249744   3.075  12.986   0.552
15969SOL     OW49745   1.000   1.078   9.051
15969SOL    HW149746   0.981   1.031   9.132
15969SOL    HW249747   1.055   1.152   9.079
15970SOL     OW49748  14.284   9.118   2.318
15970SOL    HW149749  14.336   9.041   2.294
15970SOL    HW249750  14.207   9.113   2.260
15971SOL     OW49751  12.483   2.466   3.921
15971SOL    HW149752  12.399   2.508   3.940
15971SOL    HW249753  12.481   2.449   3.827
15972SOL     OW49754   9.660  11.497   2.964
15972SOL    HW149755   9.747  11.456   2.960
15972SOL    HW249756   9.660  11.561   2.892
15973SOL     OW49757  13.063   2.678   1.735
15973SOL    HW149758  12.979   2.633   1.727
15973SOL    HW249759  13.116   2.641   1.664
15974SOL     OW49760   9.345   4.757   8.997
15974SOL    HW149761   9.303   4.842   9.009
15974SOL    HW249762   9.345   4.744   8.902
15975SOL     OW49763   2.142  13.939   6.881
15975SOL    HW149764   2.086  14.016   6.876
15975SOL    HW249765   2.224  13.967   6.839
15976SOL     OW49766  10.795  13.809   9.248
15976SOL    HW149767  10.775  13.897   9.219
15976SOL    HW249768  10.736  13.794   9.322
15977SOL     OW49769  10.678   5.486   3.704
15977SOL    HW149770  10.628   5.422   3.653
15977SOL    HW249771  10.762   5.443   3.720
15978SOL     OW49772  11.881   4.643  12.743
15978SOL    HW149773  11.954   4.607  12.692
15978SOL    HW249774  11.806   4.589  12.719
15979SOL     OW49775   4.453  13.938   1.565
15979SOL    HW149776   4.522  13.990   1.606
15979SOL    HW249777   4.434  13.869   1.628
15980SOL     OW49778   4.545   2.781  12.157
15980SOL    HW149779   4.542   2.694  12.197
15980SOL    HW249780   4.600   2.770  12.080
15981SOL     OW49781   2.478   5.065  11.201
15981SOL    HW149782   2.525   5.070  11.117
15981SOL    HW249783   2.536   5.108  11.264
15982SOL     OW49784   0.199  13.840  10.003
15982SOL    HW149785   0.137  13.793  10.058
15982SOL    HW249786   0.230  13.775   9.940
15983SOL     OW49787   8.088  14.779   0.130
15983SOL    HW149788   7.996  14.787   0.108
15983SOL    HW249789   8.118  14.703   0.080
15984SOL     OW49790   4.511   7.608  13.322
15984SOL    HW149791   4.474   7.524  13.295
15984SOL    HW249792   4.577   7.627  13.255
15985SOL     OW49793  11.743   9.176  13.913
15985SOL    HW149794  11.652   9.201  13.930
15985SOL    HW249795  11.776   9.242  13.853
15986SOL     OW49796   5.218   3.030  10.224
15986SOL    HW149797   5.226   2.964  10.155
15986SOL    HW249798   5.201   3.112  10.177
15987SOL     OW49799   2.729   3.217   2.882
15987SOL    HW149800   2.682   3.228   2.965
15987SOL    HW249801   2.679   3.269   2.819
15988SOL     OW49802  12.529  13.209   6.879
15988SOL    HW149803  12.443  13.246   6.857
15988SOL    HW249804  12.536  13.220   6.974
15989SOL     OW49805   2.704   6.730   8.404
15989SOL    HW149806   2.761   6.661   8.437
15989SOL    HW249807   2.649   6.754   8.478
15990SOL     OW49808  13.882   2.655  10.936
15990SOL    HW149809  13.823   2.704  10.880
15990SOL    HW249810  13.905   2.577  10.884
15991SOL     OW49811  10.685   6.382  11.709
15991SOL    HW149812  10.685   6.453  11.646
15991SOL    HW249813  10.603   6.335  11.693
15992SOL     OW49814   0.181   4.218   9.841
15992SOL    HW149815   0.185   4.222   9.937
15992SOL    HW249816   0.092   4.190   9.822
15993SOL     OW49817   0.093   8.139   4.149
15993SOL    HW149818   0.098   8.178   4.061
15993SOL    HW249819   0.052   8.054   4.135
15994SOL     OW49820   2.535   8.434  14.746
15994SOL    HW149821   2.592   8.371  14.703
15994SOL    HW249822   2.464   8.382  14.783
15995SOL     OW49823   6.485  12.381   7.956
15995SOL    HW149824   6.495  12.383   7.861
15995SOL    HW249825   6.490  12.472   7.984
15996SOL     OW49826   3.618   1.722  13.463
15996SOL    HW149827   3.549   1.760  13.519
15996SOL    HW249828   3.699   1.740  13.511
15997SOL     OW49829   3.166  13.086   2.161
15997SOL    HW149830   3.244  13.055   2.116
15997SOL    HW249831   3.105  13.013   2.156
15998SOL     OW49832   7.569   2.141   2.227
15998SOL    HW149833   7.562   2.191   2.146
15998SOL    HW249834   7.599   2.205   2.292
15999SOL     OW49835  14.109  12.216  10.485
15999SOL    HW149836  14.052  12.185  10.556
15999SOL    HW249837  14.060  12.288  10.445
16000SOL     OW49838   8.015   2.226  12.238
16000SOL    HW149839   8.083   2.253  12.175
16000SOL    HW249840   7.941   2.200  12.184
16001SOL     OW49841   6.581  14.675   8.725
16001SOL    HW149842   6.606  14.635   8.642
16001SOL    HW249843   6.608  14.612   8.792
16002SOL     OW49844   2.830  11.801   6.858
16002SOL    HW149845   2.893  11.764   6.920
16002SOL    HW249846   2.745  11.786   6.898
16003SOL     OW49847   9.401   4.684   9.411
16003SOL    HW149848   9.491   4.699   9.439
16003SOL    HW249849   9.409   4.646   9.323
16004SOL     OW49850  13.180   1.350  13.537
16004SOL    HW149851  13.191   1.284  13.605
16004SOL    HW249852  13.217   1.309  13.458
16005SOL     OW49853  13.131   8.216   7.363
16005SOL    HW149854  13.049   8.175   7.334
16005SOL    HW249855  13.103   8.280   7.429
16006SOL     OW49856   8.408   7.649   3.691
16006SOL    HW149857   8.441   7.721   3.637
16006SOL    HW249858   8.350   7.691   3.754
16007SOL     OW49859   6.016   4.626   3.828
16007SOL    HW149860   5.995   4.620   3.921
16007SOL    HW249861   6.055   4.713   3.819
16008SOL     OW49862   2.280  13.599  13.132
16008SOL    HW149863   2.365  13.631  13.162
16008SOL    HW249864   2.268  13.640  13.047
16009SOL     OW49865   6.779   9.327   0.065
16009SOL    HW149866   6.860   9.286   0.037
16009SOL    HW249867   6.710   9.267   0.036
16010SOL     OW49868   7.949   3.864   4.155
16010SOL    HW149869   8.033   3.838   4.193
16010SOL    HW249870   7.927   3.947   4.198
16011SOL     OW49871   7.706   1.788   5.302
16011SOL    HW149872   7.651   1.736   5.243
16011SOL    HW249873   7.793   1.750   5.294
16012SOL     OW49874   2.148  14.108  14.659
16012SOL    HW149875   2.240  14.137  14.660
16012SOL    HW249876   2.152  14.016  14.683
16013SOL     OW49877   3.792   9.518   4.150
16013SOL    HW149878   3.820   9.595   4.101
16013SOL    HW249879   3.755   9.553   4.231
16014SOL     OW49880   1.683   1.497  14.579
16014SOL    HW149881   1.719   1.544  14.504
16014SOL    HW249882   1.638   1.564  14.630
16015SOL     OW49883  13.338   5.944   3.234
16015SOL    HW149884  13.358   6.027   3.192
16015SOL    HW249885  13.265   5.964   3.293
16016SOL     OW49886  13.855   5.675   7.107
16016SOL    HW149887  13.833   5.582   7.093
16016SOL    HW249888  13.943   5.684   7.071
16017SOL     OW49889   8.223   0.247  11.435
16017SOL    HW149890   8.237   0.174  11.374
16017SOL    HW249891   8.306   0.255  11.482
16018SOL     OW49892   8.559   6.442   6.540
16018SOL    HW149893   8.474   6.454   6.584
16018SOL    HW249894   8.609   6.521   6.562
16019SOL     OW49895   7.175   2.522   0.380
16019SOL    HW149896   7.257   2.571   0.384
16019SOL    HW249897   7.179   2.476   0.296
16020SOL     OW49898  13.302   5.516   2.408
16020SOL    HW149899  13.314   5.609   2.391
16020SOL    HW249900  13.230   5.489   2.352
16021SOL     OW49901  12.268   8.058   8.567
16021SOL    HW149902  12.203   8.005   8.520
16021SOL    HW249903  12.265   8.143   8.524
16022SOL     OW49904   2.636   2.914  10.894
16022SOL    HW149905   2.568   2.935  10.959
16022SOL    HW249906   2.625   2.981  10.827
16023SOL     OW49907   1.942  12.585   2.983
16023SOL    HW149908   1.864  12.605   2.932
16023SOL    HW249909   1.909  12.557   3.068
16024SOL     OW49910   8.300   3.447   3.121
16024SOL    HW149911   8.391   3.471   3.135
16024SOL    HW249912   8.277   3.491   3.038
16025SOL     OW49913  10.299   4.451   5.707
16025SOL    HW149914  10.366   4.511   5.739
16025SOL    HW249915  10.225   4.463   5.766
16026SOL     OW49916  11.994   9.819   9.920
16026SOL    HW149917  12.023   9.908   9.940
16026SOL    HW249918  11.929   9.830   9.850
16027SOL     OW49919   6.725   2.243   2.153
16027SOL    HW149920   6.710   2.193   2.073
16027SOL    HW249921   6.793   2.193   2.199
16028SOL     OW49922   3.244  13.628   3.202
16028SOL    HW149923   3.242  13.648   3.108
16028SOL    HW249924   3.233  13.713   3.245
16029SOL     OW49925   0.259  11.721  10.253
16029SOL    HW149926   0.193  11.679  10.308
16029SOL    HW249927   0.262  11.811  10.286
16030SOL     OW49928  14.450   5.168  11.252
16030SOL    HW149929  14.541   5.142  11.265
16030SOL    HW249930  14.404   5.133  11.329
16031SOL     OW49931   4.969   0.310  12.893
16031SOL    HW149932   4.926   0.263  12.822
16031SOL    HW249933   4.935   0.399  12.887
16032SOL     OW49934   3.711   2.959   4.335
16032SOL    HW149935   3.720   2.922   4.422
16032SOL    HW249936   3.697   3.053   4.349
16033SOL     OW49937   6.556   3.938   9.717
16033SOL    HW149938   6.465   3.916   9.696
16033SOL    HW249939   6.583   3.999   9.649
16034SOL     OW49940   0.417  10.202  13.692
16034SOL    HW149941   0.416  10.149  13.771
16034SOL    HW249942   0.410  10.292  13.724
16035SOL     OW49943   5.263   6.199   3.297
16035SOL    HW149944   5.229   6.289   3.308
16035SOL    HW249945   5.351   6.211   3.261
16036SOL     OW49946   8.757   8.310  10.669
16036SOL    HW149947   8.781   8.344  10.755
16036SOL    HW249948   8.819   8.351  10.609
16037SOL     OW49949  12.826   1.209  10.010
16037SOL    HW149950  12.858   1.128   9.971
16037SOL    HW249951  12.873   1.278   9.964
16038SOL     OW49952   5.874   9.626   7.840
16038SOL    HW149953   5.833   9.546   7.872
16038SOL    HW249954   5.967   9.607   7.839
16039SOL     OW49955   2.054   3.762   9.819
16039SOL    HW149956   1.968   3.722   9.830
16039SOL    HW249957   2.060   3.779   9.725
16040SOL     OW49958  11.974   7.852   8.521
16040SOL    HW149959  12.013   7.822   8.603
16040SOL    HW249960  11.957   7.772   8.472
16041SOL     OW49961   3.891   9.821  14.218
16041SOL    HW149962   3.862   9.847  14.131
16041SOL    HW249963   3.810   9.809  14.268
16042SOL     OW49964   5.043  13.815   6.391
16042SOL    HW149965   4.958  13.853   6.414
16042SOL    HW249966   5.106  13.865   6.443
16043SOL     OW49967   4.456   8.998   8.367
16043SOL    HW149968   4.507   9.074   8.394
16043SOL    HW249969   4.406   8.973   8.444
16044SOL     OW49970   4.094  10.496  13.593
16044SOL    HW149971   4.016  10.496  13.538
16044SOL    HW249972   4.120  10.588  13.597
16045SOL     OW49973   3.581   8.596  14.524
16045SOL    HW149974   3.607   8.611  14.433
16045SOL    HW249975   3.619   8.669  14.572
16046SOL     OW49976  13.450  11.569  14.597
16046SOL    HW149977  13.511  11.513  14.548
16046SOL    HW249978  13.494  11.583  14.681
16047SOL     OW49979  13.513  10.417  12.684
16047SOL    HW149980  13.509  10.321  12.681
16047SOL    HW249981  13.605  10.437  12.672
16048SOL     OW49982   8.676  13.896   7.307
16048SOL    HW149983   8.605  13.926   7.363
16048SOL    HW249984   8.756  13.914   7.357
16049SOL     OW49985  12.896   5.338  10.157
16049SOL    HW149986  12.880   5.421  10.202
16049SOL    HW249987  12.969   5.356  10.098
16050SOL     OW49988  10.715  10.222   1.285
16050SOL    HW149989  10.726  10.163   1.211
16050SOL    HW249990  10.744  10.307   1.252
16051SOL     OW49991   9.170  10.690   4.743
16051SOL    HW149992   9.101  10.728   4.688
16051SOL    HW249993   9.124  10.650   4.816
16052SOL     OW49994   0.652   7.907   8.304
16052SOL    HW149995   0.746   7.926   8.312
16052SOL    HW249996   0.648   7.812   8.290
16053SOL     OW49997   8.408   7.564   0.284
16053SOL    HW149998   8.503   7.569   0.298
16053SOL    HW249999   8.387   7.471   0.297
16054SOL     OW50000   7.707  12.877  10.886
16054SOL    HW150001   7.710  12.863  10.981
16054SOL    HW250002   7.751  12.960  10.872
16055SOL     OW50003   6.654   5.486   0.300
16055SOL    HW150004   6.659   5.410   0.358
16055SOL    HW250005   6.602   5.550   0.349
16056SOL     OW50006   3.198   2.984  10.289
16056SOL    HW150007   3.229   2.910  10.237
16056SOL    HW250008   3.124   3.019  10.239
16057SOL     OW50009   0.556   8.782  12.993
16057SOL    HW150010   0.475   8.735  12.971
16057SOL    HW250011   0.624   8.736  12.945
16058SOL     OW50012   4.088   6.494   6.383
16058SOL    HW150013   4.073   6.521   6.473
16058SOL    HW250014   4.001   6.471   6.350
16059SOL     OW50015  13.401   1.881  10.454
16059SOL    HW150016  13.362   1.803  10.416
16059SOL    HW250017  13.327   1.940  10.469
16060SOL     OW50018   3.649   3.500   9.152
16060SOL    HW150019   3.676   3.588   9.125
16060SOL    HW250020   3.705   3.441   9.102
16061SOL     OW50021   1.420   0.185  13.478
16061SOL    HW150022   1.426   0.090  13.494
16061SOL    HW250023   1.511   0.215  13.484
16062SOL     OW50024   6.021  13.100   8.921
16062SOL    HW150025   5.966  13.097   8.999
16062SOL    HW250026   6.075  13.178   8.932
16063SOL     OW50027   8.281   6.670   9.963
16063SOL    HW150028   8.210   6.607   9.965
16063SOL    HW250029   8.240   6.754   9.984
16064SOL     OW50030   6.757   7.614   8.240
16064SOL    HW150031   6.735   7.582   8.328
16064SOL    HW250032   6.698   7.689   8.227
16065SOL     OW50033   8.864   2.649   9.482
16065SOL    HW150034   8.947   2.695   9.474
16065SOL    HW250035   8.802   2.716   9.513
16066SOL     OW50036   6.309   1.523   0.811
16066SOL    HW150037   6.345   1.560   0.730
16066SOL    HW250038   6.222   1.491   0.785
16067SOL     OW50039  12.202   7.509   1.378
16067SOL    HW150040  12.250   7.576   1.426
16067SOL    HW250041  12.219   7.428   1.427
16068SOL     OW50042   1.099  10.281   4.523
16068SOL    HW150043   1.116  10.201   4.573
16068SOL    HW250044   1.010  10.306   4.546
16069SOL     OW50045   2.555   5.918  10.477
16069SOL    HW150046   2.539   5.831  10.439
16069SOL    HW250047   2.527   5.910  10.568
16070SOL     OW50048   1.365   8.332   0.717
16070SOL    HW150049   1.460   8.337   0.728
16070SOL    HW250050   1.330   8.335   0.806
16071SOL     OW50051  11.652  11.280   8.190
16071SOL    HW150052  11.665  11.190   8.220
16071SOL    HW250053  11.601  11.270   8.109
16072SOL     OW50054   7.456   2.527  13.793
16072SOL    HW150055   7.526   2.591  13.807
16072SOL    HW250056   7.387   2.576  13.747
16073SOL     OW50057   6.405   3.136   8.904
16073SOL    HW150058   6.471   3.151   8.973
16073SOL    HW250059   6.365   3.222   8.890
16074SOL     OW50060   3.764   5.094   0.627
16074SOL    HW150061   3.701   5.154   0.668
16074SOL    HW250062   3.768   5.122   0.536
16075SOL     OW50063   8.555   0.036   5.292
16075SOL    HW150064   8.613   0.040   5.215
16075SOL    HW250065   8.482   0.094   5.270
16076SOL     OW50066   8.193  14.229   5.613
16076SOL    HW150067   8.239  14.190   5.539
16076SOL    HW250068   8.164  14.314   5.581
16077SOL     OW50069   4.301   9.814   8.762
16077SOL    HW150070   4.372   9.852   8.813
16077SOL    HW250071   4.345   9.763   8.694
16078SOL     OW50072   8.071   9.357  13.005
16078SOL    HW150073   8.132   9.329  12.937
16078SOL    HW250074   8.080   9.292  13.074
16079SOL     OW50075   0.503   5.672   6.408
16079SOL    HW150076   0.541   5.757   6.432
16079SOL    HW250077   0.421   5.668   6.458
16080SOL     OW50078  13.090  10.083   2.327
16080SOL    HW150079  13.154  10.146   2.293
16080SOL    HW250080  13.046  10.050   2.249
16081SOL     OW50081   7.367   0.268   9.024
16081SOL    HW150082   7.342   0.193   9.079
16081SOL    HW250083   7.291   0.325   9.026
16082SOL     OW50084  11.928  12.682   9.583
16082SOL    HW150085  11.929  12.774   9.557
16082SOL    HW250086  11.940  12.633   9.502
16083SOL     OW50087  12.928  13.578   6.701
16083SOL    HW150088  12.925  13.490   6.665
16083SOL    HW250089  12.943  13.635   6.626
16084SOL     OW50090  14.752   9.889   2.656
16084SOL    HW150091  14.729   9.797   2.657
16084SOL    HW250092  14.721   9.923   2.740
16085SOL     OW50093   7.071   0.573  10.946
16085SOL    HW150094   7.090   0.607  11.034
16085SOL    HW250095   7.065   0.478  10.959
16086SOL     OW50096   7.862   6.871   7.083
16086SOL    HW150097   7.806   6.933   7.130
16086SOL    HW250098   7.914   6.829   7.151
16087SOL     OW50099   5.103   0.131   5.644
16087SOL    HW150100   5.102   0.218   5.683
16087SOL    HW250101   5.093   0.147   5.550
16088SOL     OW50102   9.300  10.793  11.462
16088SOL    HW150103   9.307  10.756  11.374
16088SOL    HW250104   9.359  10.868  11.462
16089SOL     OW50105   5.584   1.819   0.235
16089SOL    HW150106   5.536   1.899   0.213
16089SOL    HW250107   5.571   1.761   0.160
16090SOL     OW50108   8.315   7.611  10.709
16090SOL    HW150109   8.227   7.576  10.694
16090SOL    HW250110   8.318   7.690  10.655
16091SOL     OW50111   9.230   5.288   8.905
16091SOL    HW150112   9.278   5.341   8.842
16091SOL    HW250113   9.267   5.312   8.990
16092SOL     OW50114   4.868   3.756  12.717
16092SOL    HW150115   4.829   3.792  12.797
16092SOL    HW250116   4.828   3.670  12.707
16093SOL     OW50117   6.875   4.188   1.796
16093SOL    HW150118   6.804   4.138   1.837
16093SOL    HW250119   6.831   4.262   1.754
16094SOL     OW50120  10.010   2.385  12.001
16094SOL    HW150121   9.943   2.334  11.955
16094SOL    HW250122   9.960   2.455  12.043
16095SOL     OW50123  13.473   2.586   9.089
16095SOL    HW150124  13.406   2.604   9.155
16095SOL    HW250125  13.437   2.514   9.037
16096SOL     OW50126   1.515   8.048   9.894
16096SOL    HW150127   1.579   7.984   9.924
16096SOL    HW250128   1.529   8.125   9.949
16097SOL     OW50129  11.981  13.729   1.312
16097SOL    HW150130  12.019  13.642   1.325
16097SOL    HW250131  12.008  13.754   1.224
16098SOL     OW50132   1.330   7.457   1.816
16098SOL    HW150133   1.408   7.495   1.856
16098SOL    HW250134   1.340   7.475   1.723
16099SOL     OW50135   6.815   2.737  11.789
16099SOL    HW150136   6.754   2.804  11.759
16099SOL    HW250137   6.766   2.688  11.856
16100SOL     OW50138  12.668   1.476   9.844
16100SOL    HW150139  12.649   1.500   9.935
16100SOL    HW250140  12.584   1.448   9.809
16101SOL     OW50141   7.954  14.071   8.029
16101SOL    HW150142   7.950  14.129   7.953
16101SOL    HW250143   7.893  14.110   8.092
16102SOL     OW50144   0.988   3.121  13.368
16102SOL    HW150145   1.073   3.132  13.325
16102SOL    HW250146   1.007   3.068  13.445
16103SOL     OW50147   7.151  10.978   3.237
16103SOL    HW150148   7.130  10.990   3.144
16103SOL    HW250149   7.070  10.947   3.276
16104SOL     OW50150  12.390   8.089   0.309
16104SOL    HW150151  12.429   8.084   0.222
16104SOL    HW250152  12.450   8.039   0.365
16105SOL     OW50153  12.539  14.480  11.423
16105SOL    HW150154  12.531  14.479  11.328
16105SOL    HW250155  12.622  14.436  11.441
16106SOL     OW50156  10.553  14.849   5.966
16106SOL    HW150157  10.581  14.800   6.043
16106SOL    HW250158  10.516  14.782   5.908
16107SOL     OW50159   7.520  14.246   8.235
16107SOL    HW150160   7.457  14.175   8.247
16107SOL    HW250161   7.497  14.284   8.150
16108SOL     OW50162   4.038   3.393  10.540
16108SOL    HW150163   3.967   3.454  10.559
16108SOL    HW250164   4.111   3.449  10.512
16109SOL     OW50165   9.962   9.061  12.682
16109SOL    HW150166  10.046   9.047  12.725
16109SOL    HW250167   9.916   8.978  12.689
16110SOL     OW50168   2.053   7.956   2.106
16110SOL    HW150169   1.966   7.937   2.071
16110SOL    HW250170   2.070   8.047   2.080
16111SOL     OW50171   0.022  10.859   7.151
16111SOL    HW150172  14.868  10.786   7.101
16111SOL    HW250173   0.091  10.895   7.094
16112SOL     OW50174  11.147   8.970   3.952
16112SOL    HW150175  11.197   8.898   3.915
16112SOL    HW250176  11.204   9.006   4.021
16113SOL     OW50177   4.996   1.095   8.079
16113SOL    HW150178   5.031   1.014   8.116
16113SOL    HW250179   5.031   1.099   7.990
16114SOL     OW50180   4.987   3.294   2.492
16114SOL    HW150181   4.965   3.201   2.496
16114SOL    HW250182   5.005   3.310   2.399
16115SOL     OW50183   7.711  12.880   9.138
16115SOL    HW150184   7.697  12.788   9.119
16115SOL    HW250185   7.766  12.881   9.216
16116SOL     OW50186   5.084  10.173   8.011
16116SOL    HW150187   5.023  10.232   8.056
16116SOL    HW250188   5.160  10.227   7.990
16117SOL     OW50189  13.476   3.732   6.169
16117SOL    HW150190  13.486   3.693   6.256
16117SOL    HW250191  13.384   3.759   6.165
16118SOL     OW50192   2.871   9.421   9.886
16118SOL    HW150193   2.901   9.335   9.917
16118SOL    HW250194   2.912   9.432   9.801
16119SOL     OW50195  14.497   3.624   7.920
16119SOL    HW150196  14.432   3.595   7.983
16119SOL    HW250197  14.513   3.548   7.864
16120SOL     OW50198  10.343   5.016   1.692
16120SOL    HW150199  10.393   5.015   1.774
16120SOL    HW250200  10.265   4.965   1.711
16121SOL     OW50201   3.633   8.518   8.732
16121SOL    HW150202   3.548   8.489   8.699
16121SOL    HW250203   3.643   8.474   8.816
16122SOL     OW50204  12.264   4.644   9.555
16122SOL    HW150205  12.205   4.714   9.583
16122SOL    HW250206  12.343   4.689   9.526
16123SOL     OW50207   5.798  11.413  14.539
16123SOL    HW150208   5.703  11.402  14.529
16123SOL    HW250209   5.807  11.485  14.601
16124SOL     OW50210  14.796   2.355   1.715
16124SOL    HW150211  14.765   2.294   1.649
16124SOL    HW250212  14.782   2.310   1.798
16125SOL     OW50213   6.199   9.686  11.864
16125SOL    HW150214   6.270   9.750  11.859
16125SOL    HW250215   6.170   9.690  11.955
16126SOL     OW50216   6.024   3.149  12.645
16126SOL    HW150217   6.074   3.189  12.574
16126SOL    HW250218   5.983   3.072  12.605
16127SOL     OW50219   5.881  11.047   2.260
16127SOL    HW150220   5.964  11.077   2.297
16127SOL    HW250221   5.906  10.980   2.197
16128SOL     OW50222   6.315   7.396  11.480
16128SOL    HW150223   6.287   7.452  11.408
16128SOL    HW250224   6.331   7.311  11.439
16129SOL     OW50225   5.675  13.617   8.680
16129SOL    HW150226   5.706  13.670   8.753
16129SOL    HW250227   5.593  13.658   8.654
16130SOL     OW50228  11.859   0.910  13.328
16130SOL    HW150229  11.881   0.937  13.418
16130SOL    HW250230  11.771   0.871  13.336
16131SOL     OW50231   8.711   3.078  11.497
16131SOL    HW150232   8.760   3.153  11.530
16131SOL    HW250233   8.645   3.115  11.438
16132SOL     OW50234   6.174  12.821  11.320
16132SOL    HW150235   6.258  12.867  11.309
16132SOL    HW250236   6.167  12.765  11.242
16133SOL     OW50237  12.334   0.798   6.010
16133SOL    HW150238  12.400   0.747   6.058
16133SOL    HW250239  12.356   0.785   5.918
16134SOL     OW50240   0.669   8.744   0.331
16134SOL    HW150241   0.581   8.723   0.302
16134SOL    HW250242   0.723   8.671   0.299
16135SOL     OW50243  12.534   0.245   4.243
16135SOL    HW150244  12.561   0.324   4.289
16135SOL    HW250245  12.456   0.271   4.193
16136SOL     OW50246   6.734  13.120   4.021
16136SOL    HW150247   6.639  13.130   4.031
16136SOL    HW250248   6.744  13.062   3.946
16137SOL     OW50249   3.155   8.878  13.421
16137SOL    HW150250   3.106   8.919  13.350
16137SOL    HW250251   3.133   8.785  13.415
16138SOL     OW50252  10.035  14.632   2.647
16138SOL    HW150253  10.002  14.583   2.571
16138SOL    HW250254  10.003  14.721   2.634
16139SOL     OW50255  10.633   2.271   0.683
16139SOL    HW150256  10.705   2.228   0.729
16139SOL    HW250257  10.565   2.204   0.675
16140SOL     OW50258  13.037   6.576   9.081
16140SOL    HW150259  12.990   6.633   9.019
16140SOL    HW250260  13.121   6.620   9.093
16141SOL     OW50261  13.114   0.910   8.076
16141SOL    HW150262  13.146   0.822   8.058
16141SOL    HW250263  13.054   0.930   8.004
16142SOL     OW50264   9.092  10.263   1.451
16142SOL    HW150265   9.161  10.278   1.387
16142SOL    HW250266   9.092  10.169   1.466
16143SOL     OW50267   4.500   8.176   7.242
16143SOL    HW150268   4.477   8.123   7.318
16143SOL    HW250269   4.418   8.191   7.196
16144SOL     OW50270   9.281   7.609   6.125
16144SOL    HW150271   9.322   7.661   6.194
16144SOL    HW250272   9.326   7.636   6.045
16145SOL     OW50273   8.592   0.640   6.118
16145SOL    HW150274   8.616   0.586   6.043
16145SOL    HW250275   8.638   0.722   6.104
16146SOL     OW50276   2.342   8.261   0.912
16146SOL    HW150277   2.297   8.345   0.911
16146SOL    HW250278   2.371   8.249   0.821
16147SOL     OW50279   1.076   8.602   5.868
16147SOL    HW150280   1.151   8.630   5.920
16147SOL    HW250281   1.098   8.515   5.837
16148SOL     OW50282   7.249   8.077  11.519
16148SOL    HW150283   7.203   8.009  11.568
16148SOL    HW250284   7.219   8.159  11.557
16149SOL     OW50285   0.003   0.971  12.060
16149SOL    HW150286  14.840   1.045  12.100
16149SOL    HW250287   0.086   0.965  12.107
16150SOL     OW50288   2.306   1.362   5.272
16150SOL    HW150289   2.214   1.361   5.296
16150SOL    HW250290   2.319   1.284   5.219
16151SOL     OW50291   8.759  13.221  10.359
16151SOL    HW150292   8.694  13.256  10.420
16151SOL    HW250293   8.803  13.298  10.323
16152SOL     OW50294   2.594   9.087   8.644
16152SOL    HW150295   2.520   9.031   8.667
16152SOL    HW250296   2.557   9.175   8.638
16153SOL     OW50297   0.329   6.993  10.741
16153SOL    HW150298   0.340   7.044  10.821
16153SOL    HW250299   0.284   7.052  10.681
16154SOL     OW50300   1.786   3.690   5.122
16154SOL    HW150301   1.768   3.603   5.085
16154SOL    HW250302   1.862   3.676   5.179
16155SOL     OW50303   5.947   6.739   1.216
16155SOL    HW150304   5.913   6.652   1.233
16155SOL    HW250305   6.030   6.724   1.169
16156SOL     OW50306  14.276   3.212  11.823
16156SOL    HW150307  14.247   3.147  11.888
16156SOL    HW250308  14.312   3.160  11.751
16157SOL     OW50309  10.754  13.872   8.574
16157SOL    HW150310  10.829  13.866   8.514
16157SOL    HW250311  10.702  13.945   8.540
16158SOL     OW50312   0.989   5.060   1.180
16158SOL    HW150313   0.983   4.970   1.212
16158SOL    HW250314   0.898   5.084   1.162
16159SOL     OW50315   0.251  13.600  14.242
16159SOL    HW150316   0.336  13.639  14.261
16159SOL    HW250317   0.272  13.514  14.205
16160SOL     OW50318   4.399   0.429   2.699
16160SOL    HW150319   4.393   0.435   2.794
16160SOL    HW250320   4.419   0.518   2.670
16161SOL     OW50321  14.254  13.579   9.996
16161SOL    HW150322  14.221  13.651  10.050
16161SOL    HW250323  14.211  13.501  10.031
16162SOL     OW50324  10.720   9.419  10.219
16162SOL    HW150325  10.724   9.419  10.124
16162SOL    HW250326  10.661   9.347  10.241
16163SOL     OW50327  14.226   4.611  13.919
16163SOL    HW150328  14.289   4.668  13.964
16163SOL    HW250329  14.232   4.527  13.964
16164SOL     OW50330  14.833   3.532  12.544
16164SOL    HW150331   0.033   3.516  12.496
16164SOL    HW250332  14.856   3.596  12.610
16165SOL     OW50333   5.551   4.096  14.022
16165SOL    HW150334   5.634   4.129  14.055
16165SOL    HW250335   5.539   4.013  14.067
16166SOL     OW50336   8.836  10.827   7.125
16166SOL    HW150337   8.889  10.779   7.188
16166SOL    HW250338   8.872  10.916   7.127
16167SOL     OW50339   6.951  11.358   6.741
16167SOL    HW150340   6.935  11.351   6.647
16167SOL    HW250341   6.929  11.271   6.775
16168SOL     OW50342  13.053   3.330  13.114
16168SOL    HW150343  12.992   3.257  13.126
16168SOL    HW250344  13.137   3.298  13.146
16169SOL     OW50345   4.124   3.296  12.930
16169SOL    HW150346   4.218   3.295  12.911
16169SOL    HW250347   4.110   3.379  12.975
16170SOL     OW50348   1.040   6.766   4.085
16170SOL    HW150349   1.015   6.708   4.157
16170SOL    HW250350   0.959   6.783   4.038
16171SOL     OW50351  10.014   1.904  14.381
16171SOL    HW150352   9.922   1.899  14.407
16171SOL    HW250353  10.050   1.818  14.400
16172SOL     OW50354   3.969   9.934   4.826
16172SOL    HW150355   4.005   9.873   4.891
16172SOL    HW250356   3.950  10.014   4.875
16173SOL     OW50357   2.217   9.300  12.964
16173SOL    HW150358   2.299   9.289  12.915
16173SOL    HW250359   2.152   9.253  12.914
16174SOL     OW50360  13.250   8.517  10.252
16174SOL    HW150361  13.280   8.439  10.206
16174SOL    HW250362  13.319   8.582  10.236
16175SOL     OW50363   5.421   6.677   6.545
16175SOL    HW150364   5.408   6.737   6.471
16175SOL    HW250365   5.354   6.610   6.533
16176SOL     OW50366   9.526  13.045   2.092
16176SOL    HW150367   9.438  13.030   2.129
16176SOL    HW250368   9.578  13.076   2.166
16177SOL     OW50369   5.566  12.576  13.205
16177SOL    HW150370   5.530  12.654  13.162
16177SOL    HW250371   5.510  12.504  13.175
16178SOL     OW50372  14.401   1.849   2.818
16178SOL    HW150373  14.315   1.880   2.846
16178SOL    HW250374  14.383   1.779   2.756
16179SOL     OW50375   4.880  10.445  10.148
16179SOL    HW150376   4.792  10.479  10.131
16179SOL    HW250377   4.932  10.476  10.074
16180SOL     OW50378   5.741   6.800   1.856
16180SOL    HW150379   5.670   6.834   1.909
16180SOL    HW250380   5.753   6.710   1.885
16181SOL     OW50381   9.488  14.352   1.762
16181SOL    HW150382   9.453  14.290   1.699
16181SOL    HW250383   9.434  14.341   1.840
16182SOL     OW50384   9.428   7.296   8.099
16182SOL    HW150385   9.417   7.391   8.107
16182SOL    HW250386   9.482   7.284   8.021
16183SOL     OW50387   8.041  11.278   3.619
16183SOL    HW150388   8.047  11.329   3.538
16183SOL    HW250389   8.063  11.189   3.593
16184SOL     OW50390   7.370   7.049   1.020
16184SOL    HW150391   7.296   7.103   1.047
16184SOL    HW250392   7.337   6.959   1.023
16185SOL     OW50393   5.559   6.199   3.889
16185SOL    HW150394   5.487   6.137   3.890
16185SOL    HW250395   5.638   6.144   3.898
16186SOL     OW50396   4.510  13.022  12.564
16186SOL    HW150397   4.509  12.932  12.596
16186SOL    HW250398   4.460  13.019  12.483
16187SOL     OW50399   5.570  11.884   5.794
16187SOL    HW150400   5.600  11.794   5.783
16187SOL    HW250401   5.649  11.935   5.811
16188SOL     OW50402  13.466   6.160   9.356
16188SOL    HW150403  13.386   6.118   9.387
16188SOL    HW250404  13.487   6.115   9.275
16189SOL     OW50405   3.475   9.588   8.873
16189SOL    HW150406   3.564   9.618   8.858
16189SOL    HW250407   3.420   9.660   8.843
16190SOL     OW50408  10.444  11.707  14.649
16190SOL    HW150409  10.496  11.675  14.723
16190SOL    HW250410  10.397  11.629  14.618
16191SOL     OW50411   6.501   3.843   3.904
16191SOL    HW150412   6.551   3.885   3.974
16191SOL    HW250413   6.459   3.916   3.858
16192SOL     OW50414   3.156   3.159   7.043
16192SOL    HW150415   3.238   3.189   7.005
16192SOL    HW250416   3.112   3.239   7.070
16193SOL     OW50417  12.259  10.911   9.608
16193SOL    HW150418  12.350  10.899   9.636
16193SOL    HW250419  12.230  10.990   9.654
16194SOL     OW50420   0.674   2.709  13.088
16194SOL    HW150421   0.743   2.716  13.154
16194SOL    HW250422   0.681   2.620  13.055
16195SOL     OW50423   5.041  13.028   7.971
16195SOL    HW150424   4.985  13.096   8.009
16195SOL    HW250425   5.110  13.014   8.035
16196SOL     OW50426  11.606   2.069  11.073
16196SOL    HW150427  11.582   2.090  11.164
16196SOL    HW250428  11.608   2.153  11.029
16197SOL     OW50429   0.824   1.108   9.988
16197SOL    HW150430   0.751   1.049   9.970
16197SOL    HW250431   0.824   1.119  10.083
16198SOL     OW50432  13.814   6.579   3.259
16198SOL    HW150433  13.815   6.591   3.354
16198SOL    HW250434  13.724   6.599   3.234
16199SOL     OW50435  13.500  11.620   6.424
16199SOL    HW150436  13.482  11.532   6.389
16199SOL    HW250437  13.441  11.677   6.375
16200SOL     OW50438   0.149   9.283  12.935
16200SOL    HW150439   0.218   9.224  12.965
16200SOL    HW250440   0.120   9.329  13.014
16201SOL     OW50441   4.760  14.784   5.370
16201SOL    HW150442   4.735  14.725   5.299
16201SOL    HW250443   4.694  14.769   5.438
16202SOL     OW50444   8.183   2.632   8.484
16202SOL    HW150445   8.135   2.715   8.485
16202SOL    HW250446   8.232   2.633   8.402
16203SOL     OW50447  10.894  12.156   5.070
16203SOL    HW150448  10.970  12.097   5.072
16203SOL    HW250449  10.845  12.129   4.993
16204SOL     OW50450   8.465   6.182   5.764
16204SOL    HW150451   8.403   6.141   5.824
16204SOL    HW250452   8.411   6.235   5.705
16205SOL     OW50453   5.580   6.960   5.023
16205SOL    HW150454   5.616   7.046   5.042
16205SOL    HW250455   5.631   6.927   4.949
16206SOL     OW50456  13.520  11.974   2.499
16206SOL    HW150457  13.450  12.032   2.469
16206SOL    HW250458  13.585  12.033   2.537
16207SOL     OW50459   7.635   4.767   4.955
16207SOL    HW150460   7.614   4.823   4.881
16207SOL    HW250461   7.596   4.811   5.030
16208SOL     OW50462   9.137   4.461   7.270
16208SOL    HW150463   9.079   4.519   7.319
16208SOL    HW250464   9.209   4.518   7.241
16209SOL     OW50465  12.852  11.698   3.293
16209SOL    HW150466  12.900  11.719   3.212
16209SOL    HW250467  12.921  11.684   3.358
16210SOL     OW50468   7.483   0.025   0.385
16210SOL    HW150469   7.390   0.020   0.403
16210SOL    HW250470   7.489   0.019   0.289
16211SOL     OW50471  12.409   0.930  11.752
16211SOL    HW150472  12.485   0.937  11.693
16211SOL    HW250473  12.340   0.892  11.697
16212SOL     OW50474   8.777   4.899   3.993
16212SOL    HW150475   8.851   4.942   4.037
16212SOL    HW250476   8.817   4.850   3.921
16213SOL     OW50477  11.066   2.419  10.472
16213SOL    HW150478  11.113   2.498  10.498
16213SOL    HW250479  11.132   2.365  10.429
16214SOL     OW50480   1.455   7.564   6.511
16214SOL    HW150481   1.376   7.529   6.552
16214SOL    HW250482   1.527   7.533   6.567
16215SOL     OW50483  13.535  14.682   4.542
16215SOL    HW150484  13.482  14.671   4.620
16215SOL    HW250485  13.509  14.768   4.508
16216SOL     OW50486   5.784   6.301   5.838
16216SOL    HW150487   5.745   6.358   5.772
16216SOL    HW250488   5.877   6.298   5.813
16217SOL     OW50489  13.601   7.132   7.490
16217SOL    HW150490  13.692   7.100   7.489
16217SOL    HW250491  13.570   7.118   7.401
16218SOL     OW50492   5.606   5.725   9.627
16218SOL    HW150493   5.684   5.698   9.676
16218SOL    HW250494   5.640   5.751   9.541
16219SOL     OW50495  13.649   0.157   5.887
16219SOL    HW150496  13.644   0.246   5.923
16219SOL    HW250497  13.591   0.159   5.811
16220SOL     OW50498  13.415   6.650   6.988
16220SOL    HW150499  13.400   6.559   6.965
16220SOL    HW250500  13.479   6.682   6.925
16221SOL     OW50501   7.243   7.503   7.645
16221SOL    HW150502   7.174   7.554   7.602
16221SOL    HW250503   7.262   7.432   7.584
16222SOL     OW50504  11.009   3.012   8.266
16222SOL    HW150505  11.062   3.046   8.194
16222SOL    HW250506  11.021   3.076   8.336
16223SOL     OW50507   7.583   3.889  12.409
16223SOL    HW150508   7.603   3.795  12.404
16223SOL    HW250509   7.609   3.923  12.323
16224SOL     OW50510  13.506  12.316   5.820
16224SOL    HW150511  13.588  12.320   5.771
16224SOL    HW250512  13.482  12.224   5.818
16225SOL     OW50513  11.735  12.499   0.447
16225SOL    HW150514  11.656  12.533   0.490
16225SOL    HW250515  11.729  12.528   0.357
16226SOL     OW50516  13.639   9.224  10.591
16226SOL    HW150517  13.723   9.224  10.545
16226SOL    HW250518  13.597   9.142  10.566
16227SOL     OW50519  14.097   7.300   5.982
16227SOL    HW150520  14.100   7.207   5.962
16227SOL    HW250521  14.189   7.327   5.986
16228SOL     OW50522   8.649  10.308  12.192
16228SOL    HW150523   8.742  10.284  12.196
16228SOL    HW250524   8.621  10.280  12.105
16229SOL     OW50525  13.961   5.185   1.540
16229SOL    HW150526  14.008   5.107   1.569
16229SOL    HW250527  13.883   5.188   1.594
16230SOL     OW50528  13.665   8.651   3.739
16230SOL    HW150529  13.677   8.561   3.711
16230SOL    HW250530  13.700   8.654   3.828
16231SOL     OW50531   7.537   8.888   1.239
16231SOL    HW150532   7.620   8.891   1.191
16231SOL    HW250533   7.542   8.808   1.291
16232SOL     OW50534   1.556   5.002   4.825
16232SOL    HW150535   1.547   5.031   4.734
16232SOL    HW250536   1.622   5.060   4.863
16233SOL     OW50537   3.988   2.084  12.746
16233SOL    HW150538   4.054   2.097  12.814
16233SOL    HW250539   4.037   2.046  12.672
16234SOL     OW50540  13.958   3.250   2.372
16234SOL    HW150541  13.876   3.264   2.421
16234SOL    HW250542  13.929   3.226   2.284
16235SOL     OW50543  11.491  11.946  14.121
16235SOL    HW150544  11.513  12.034  14.150
16235SOL    HW250545  11.469  11.899  14.201
16236SOL     OW50546   6.811  11.023  10.785
16236SOL    HW150547   6.837  10.996  10.697
16236SOL    HW250548   6.766  11.106  10.773
16237SOL     OW50549  13.242   1.656   7.090
16237SOL    HW150550  13.252   1.571   7.133
16237SOL    HW250551  13.151   1.681   7.108
16238SOL     OW50552   1.312  12.085  14.060
16238SOL    HW150553   1.346  12.155  14.115
16238SOL    HW250554   1.290  12.127  13.977
16239SOL     OW50555   5.940   5.293   5.588
16239SOL    HW150556   6.014   5.351   5.604
16239SOL    HW250557   5.979   5.206   5.578
16240SOL     OW50558   5.437  10.479  13.838
16240SOL    HW150559   5.450  10.406  13.778
16240SOL    HW250560   5.342  10.493  13.839
16241SOL     OW50561  14.671   5.436  11.215
16241SOL    HW150562  14.718   5.439  11.298
16241SOL    HW250563  14.703   5.357  11.172
16242SOL     OW50564   0.907   4.548   6.650
16242SOL    HW150565   0.981   4.599   6.681
16242SOL    HW250566   0.943   4.491   6.582
16243SOL     OW50567  13.787   4.576   9.797
16243SOL    HW150568  13.823   4.649   9.746
16243SOL    HW250569  13.709   4.549   9.749
16244SOL     OW50570   7.351  12.325  13.664
16244SOL    HW150571   7.352  12.346  13.758
16244SOL    HW250572   7.264  12.288  13.649
16245SOL     OW50573  14.544   4.001  10.318
16245SOL    HW150574  14.526   4.040  10.232
16245SOL    HW250575  14.496   4.056  10.380
16246SOL     OW50576  13.805   9.565  13.123
16246SOL    HW150577  13.823   9.480  13.082
16246SOL    HW250578  13.892   9.599  13.145
16247SOL     OW50579   8.166  11.225   6.544
16247SOL    HW150580   8.104  11.227   6.617
16247SOL    HW250581   8.133  11.157   6.485
16248SOL     OW50582   4.132  14.567  13.832
16248SOL    HW150583   4.178  14.583  13.750
16248SOL    HW250584   4.137  14.651  13.879
16249SOL     OW50585   8.217   4.363  12.028
16249SOL    HW150586   8.179   4.448  12.006
16249SOL    HW250587   8.295   4.357  11.974
16250SOL     OW50588   9.823   8.822   9.385
16250SOL    HW150589   9.775   8.796   9.464
16250SOL    HW250590   9.906   8.858   9.419
16251SOL     OW50591   8.131   4.508   4.910
16251SOL    HW150592   8.092   4.467   4.988
16251SOL    HW250593   8.157   4.595   4.940
16252SOL     OW50594   0.554   1.180  10.690
16252SOL    HW150595   0.547   1.175  10.594
16252SOL    HW250596   0.560   1.274  10.708
16253SOL     OW50597   0.656   9.572   0.913
16253SOL    HW150598   0.665   9.500   0.851
16253SOL    HW250599   0.746   9.596   0.936
16254SOL     OW50600  11.496  11.604  12.589
16254SOL    HW150601  11.536  11.668  12.531
16254SOL    HW250602  11.432  11.654  12.641
16255SOL     OW50603   0.650  12.763   0.922
16255SOL    HW150604   0.604  12.737   1.003
16255SOL    HW250605   0.617  12.851   0.904
16256SOL     OW50606   3.355   2.288  10.762
16256SOL    HW150607   3.434   2.263  10.812
16256SOL    HW250608   3.353   2.228  10.688
16257SOL     OW50609   9.239   6.169  11.132
16257SOL    HW150610   9.330   6.197  11.137
16257SOL    HW250611   9.199   6.231  11.071
16258SOL     OW50612   2.135  11.032   3.556
16258SOL    HW150613   2.126  11.078   3.640
16258SOL    HW250614   2.140  10.939   3.579
16259SOL     OW50615   1.832   9.714   7.940
16259SOL    HW150616   1.829   9.655   7.865
16259SOL    HW250617   1.756   9.689   7.993
16260SOL     OW50618   0.416  13.400   8.563
16260SOL    HW150619   0.499  13.412   8.518
16260SOL    HW250620   0.381  13.489   8.573
16261SOL     OW50621  12.291  13.511   8.488
16261SOL    HW150622  12.201  13.515   8.520
16261SOL    HW250623  12.332  13.443   8.540
16262SOL     OW50624  13.249   5.925  11.619
16262SOL    HW150625  13.289   5.982  11.554
16262SOL    HW250626  13.159   5.912  11.587
16263SOL     OW50627   1.712  14.057   8.389
16263SOL    HW150628   1.793  14.043   8.439
16263SOL    HW250629   1.643  14.060   8.456
16264SOL     OW50630   0.784   2.012   9.629
16264SOL    HW150631   0.746   1.953   9.565
16264SOL    HW250632   0.750   1.981   9.713
16265SOL     OW50633   8.060   7.902   2.757
16265SOL    HW150634   8.120   7.827   2.763
16265SOL    HW250635   7.995   7.886   2.826
16266SOL     OW50636  14.515  13.591   9.349
16266SOL    HW150637  14.466  13.673   9.341
16266SOL    HW250638  14.581  13.609   9.416
16267SOL     OW50639   2.143   4.835  11.172
16267SOL    HW150640   2.110   4.821  11.083
16267SOL    HW250641   2.237   4.824  11.165
16268SOL     OW50642   9.494   0.864   5.256
16268SOL    HW150643   9.430   0.839   5.190
16268SOL    HW250644   9.559   0.793   5.255
16269SOL     OW50645   5.223   3.383  14.649
16269SOL    HW150646   5.265   3.360  14.731
16269SOL    HW250647   5.129   3.386  14.670
16270SOL     OW50648   1.656   6.469  12.396
16270SOL    HW150649   1.659   6.432  12.307
16270SOL    HW250650   1.566   6.455  12.424
16271SOL     OW50651   7.166   8.767   2.155
16271SOL    HW150652   7.251   8.805   2.131
16271SOL    HW250653   7.145   8.707   2.084
16272SOL     OW50654   2.830   0.262   5.510
16272SOL    HW150655   2.865   0.280   5.597
16272SOL    HW250656   2.906   0.232   5.459
16273SOL     OW50657   1.278   8.868   9.664
16273SOL    HW150658   1.246   8.855   9.753
16273SOL    HW250659   1.235   8.948   9.634
16274SOL     OW50660  10.073   8.894   8.128
16274SOL    HW150661  10.087   8.982   8.164
16274SOL    HW250662  10.035   8.909   8.041
16275SOL     OW50663   6.653  11.435   3.723
16275SOL    HW150664   6.564  11.458   3.697
16275SOL    HW250665   6.643  11.395   3.809
16276SOL     OW50666  14.585   4.809   7.119
16276SOL    HW150667  14.633   4.891   7.128
16276SOL    HW250668  14.493   4.836   7.112
16277SOL     OW50669   3.616   9.391   9.880
16277SOL    HW150670   3.658   9.361   9.800
16277SOL    HW250671   3.684   9.385   9.947
16278SOL     OW50672   9.782   9.244  11.811
16278SOL    HW150673   9.742   9.167  11.770
16278SOL    HW250674   9.872   9.217  11.829
16279SOL     OW50675   2.660   1.500  11.160
16279SOL    HW150676   2.619   1.414  11.162
16279SOL    HW250677   2.636   1.540  11.244
16280SOL     OW50678  10.399  14.350   3.504
16280SOL    HW150679  10.343  14.346   3.582
16280SOL    HW250680  10.414  14.444   3.490
16281SOL     OW50681  11.660   5.096  13.572
16281SOL    HW150682  11.659   5.041  13.651
16281SOL    HW250683  11.683   5.183  13.604
16282SOL     OW50684   8.828  14.209  12.884
16282SOL    HW150685   8.771  14.174  12.816
16282SOL    HW250686   8.821  14.147  12.956
16283SOL     OW50687   4.206  10.934  11.837
16283SOL    HW150688   4.127  10.979  11.809
16283SOL    HW250689   4.266  11.004  11.863
16284SOL     OW50690  11.356   5.207  10.927
16284SOL    HW150691  11.405   5.128  10.906
16284SOL    HW250692  11.271   5.174  10.957
16285SOL     OW50693  13.449   1.994  11.127
16285SOL    HW150694  13.369   1.946  11.102
16285SOL    HW250695  13.423   2.086  11.125
16286SOL     OW50696   0.461   2.394  14.333
16286SOL    HW150697   0.502   2.310  14.310
16286SOL    HW250698   0.492   2.454  14.265
16287SOL     OW50699  11.525   1.987   2.438
16287SOL    HW150700  11.606   2.013   2.393
16287SOL    HW250701  11.536   2.020   2.527
16288SOL     OW50702   3.050  10.297  10.547
16288SOL    HW150703   3.124  10.248  10.584
16288SOL    HW250704   3.075  10.314  10.457
16289SOL     OW50705   8.144  10.941  14.134
16289SOL    HW150706   8.157  10.854  14.171
16289SOL    HW250707   8.179  10.935  14.045
16290SOL     OW50708   1.351   7.562   4.032
16290SOL    HW150709   1.409   7.498   4.071
16290SOL    HW250710   1.355   7.637   4.091
16291SOL     OW50711   5.905   1.013   1.766
16291SOL    HW150712   5.969   0.960   1.718
16291SOL    HW250713   5.837   0.950   1.792
16292SOL     OW50714   3.820   9.562   1.605
16292SOL    HW150715   3.788   9.588   1.691
16292SOL    HW250716   3.915   9.554   1.616
16293SOL     OW50717   9.965   0.388   1.589
16293SOL    HW150718   9.890   0.330   1.581
16293SOL    HW250719   9.973   0.404   1.683
16294SOL     OW50720   9.975   7.073   4.123
16294SOL    HW150721  10.025   6.992   4.115
16294SOL    HW250722  10.029   7.138   4.079
16295SOL     OW50723  10.864   6.941  13.403
16295SOL    HW150724  10.808   6.970  13.332
16295SOL    HW250725  10.811   6.950  13.482
16296SOL     OW50726  14.481   0.545   9.779
16296SOL    HW150727  14.480   0.620   9.838
16296SOL    HW250728  14.420   0.568   9.709
16297SOL     OW50729   5.595   2.680   0.463
16297SOL    HW150730   5.604   2.622   0.539
16297SOL    HW250731   5.645   2.758   0.486
16298SOL     OW50732   9.957   6.783   5.362
16298SOL    HW150733   9.960   6.877   5.383
16298SOL    HW250734   9.913   6.780   5.277
16299SOL     OW50735   7.675   1.904   2.796
16299SOL    HW150736   7.694   1.902   2.890
16299SOL    HW250737   7.751   1.861   2.755
16300SOL     OW50738   1.252  12.626  11.755
16300SOL    HW150739   1.194  12.702  11.757
16300SOL    HW250740   1.234  12.583  11.671
16301SOL     OW50741  10.741   0.040   4.482
16301SOL    HW150742  10.773  14.845   4.530
16301SOL    HW250743  10.811   0.062   4.421
16302SOL     OW50744   5.363   1.520   5.165
16302SOL    HW150745   5.289   1.532   5.106
16302SOL    HW250746   5.327   1.475   5.242
16303SOL     OW50747  12.517   1.616   2.007
16303SOL    HW150748  12.460   1.684   1.971
16303SOL    HW250749  12.587   1.607   1.943
16304SOL     OW50750  10.488   6.292   0.673
16304SOL    HW150751  10.502   6.269   0.765
16304SOL    HW250752  10.575   6.288   0.633
16305SOL     OW50753   5.888  12.371   8.801
16305SOL    HW150754   5.938  12.293   8.775
16305SOL    HW250755   5.955  12.436   8.823
16306SOL     OW50756   3.282   7.544  13.700
16306SOL    HW150757   3.374   7.544  13.675
16306SOL    HW250758   3.279   7.597  13.780
16307SOL     OW50759   5.264   7.949   3.510
16307SOL    HW150760   5.248   7.944   3.416
16307SOL    HW250761   5.246   8.040   3.533
16308SOL     OW50762   8.177   8.766   2.045
16308SOL    HW150763   8.198   8.732   1.958
16308SOL    HW250764   8.226   8.710   2.105
16309SOL     OW50765  13.723   3.893   1.897
16309SOL    HW150766  13.723   3.915   1.804
16309SOL    HW250767  13.804   3.931   1.931
16310SOL     OW50768   8.524   1.402  10.922
16310SOL    HW150769   8.561   1.429  10.838
16310SOL    HW250770   8.561   1.315  10.937
16311SOL     OW50771   7.279   6.157   6.262
16311SOL    HW150772   7.267   6.064   6.281
16311SOL    HW250773   7.267   6.164   6.168
16312SOL     OW50774   4.673  13.931   4.658
16312SOL    HW150775   4.763  13.911   4.684
16312SOL    HW250776   4.623  13.855   4.688
16313SOL     OW50777  14.766  14.236  12.816
16313SOL    HW150778  14.683  14.270  12.850
16313SOL    HW250779  14.752  14.141  12.811
16314SOL     OW50780   8.266   8.321   5.045
16314SOL    HW150781   8.186   8.283   5.010
16314SOL    HW250782   8.276   8.403   4.998
16315SOL     OW50783   2.982   9.625   5.458
16315SOL    HW150784   3.014   9.704   5.413
16315SOL    HW250785   2.900   9.653   5.499
16316SOL     OW50786  13.189  14.724   2.996
16316SOL    HW150787  13.157  14.684   3.077
16316SOL    HW250788  13.165  14.817   3.005
16317SOL     OW50789   4.252   2.121   7.279
16317SOL    HW150790   4.331   2.166   7.311
16317SOL    HW250791   4.239   2.049   7.342
16318SOL     OW50792  10.327   2.303   7.014
16318SOL    HW150793  10.393   2.256   7.064
16318SOL    HW250794  10.375   2.372   6.969
16319SOL     OW50795  13.425   0.232   0.359
16319SOL    HW150796  13.513   0.204   0.331
16319SOL    HW250797  13.437   0.265   0.448
16320SOL     OW50798   3.480   4.221   2.629
16320SOL    HW150799   3.493   4.314   2.615
16320SOL    HW250800   3.397   4.215   2.677
16321SOL     OW50801   4.933  11.602  13.643
16321SOL    HW150802   4.889  11.527  13.683
16321SOL    HW250803   5.008  11.619  13.699
16322SOL     OW50804   8.870   1.693   3.052
16322SOL    HW150805   8.859   1.659   2.964
16322SOL    HW250806   8.788   1.740   3.070
16323SOL     OW50807  13.823   8.320   2.141
16323SOL    HW150808  13.904   8.276   2.167
16323SOL    HW250809  13.851   8.385   2.076
16324SOL     OW50810  13.024  10.010   3.139
16324SOL    HW150811  13.116   9.985   3.140
16324SOL    HW250812  13.009  10.041   3.050
16325SOL     OW50813   5.911   2.747  13.034
16325SOL    HW150814   5.950   2.667  13.069
16325SOL    HW250815   5.849   2.774  13.101
16326SOL     OW50816   5.446   8.096   6.394
16326SOL    HW150817   5.380   8.077   6.461
16326SOL    HW250818   5.481   8.182   6.418
16327SOL     OW50819  13.709   3.360   4.996
16327SOL    HW150820  13.773   3.352   5.067
16327SOL    HW250821  13.737   3.296   4.931
16328SOL     OW50822   4.770  14.407  13.625
16328SOL    HW150823   4.805  14.486  13.666
16328SOL    HW250824   4.842  14.374  13.571
16329SOL     OW50825  11.419  13.266   5.923
16329SOL    HW150826  11.435  13.240   6.014
16329SOL    HW250827  11.493  13.229   5.875
16330SOL     OW50828   6.381   5.751   6.699
16330SOL    HW150829   6.389   5.657   6.680
16330SOL    HW250830   6.286   5.766   6.706
16331SOL     OW50831   3.940  12.106   7.119
16331SOL    HW150832   3.963  12.087   7.028
16331SOL    HW250833   4.013  12.071   7.170
16332SOL     OW50834   6.583  13.354   7.725
16332SOL    HW150835   6.542  13.416   7.785
16332SOL    HW250836   6.676  13.376   7.727
16333SOL     OW50837   7.876   6.107  13.428
16333SOL    HW150838   7.952   6.087  13.374
16333SOL    HW250839   7.813   6.146  13.368
16334SOL     OW50840  13.626   9.607   2.424
16334SOL    HW150841  13.636   9.674   2.357
16334SOL    HW250842  13.706   9.612   2.475
16335SOL     OW50843  12.262   1.453  12.723
16335SOL    HW150844  12.319   1.415  12.656
16335SOL    HW250845  12.250   1.382  12.787
16336SOL     OW50846  13.652  11.091   1.455
16336SOL    HW150847  13.600  11.120   1.530
16336SOL    HW250848  13.686  11.006   1.482
16337SOL     OW50849  11.684   9.160   0.319
16337SOL    HW150850  11.741   9.224   0.361
16337SOL    HW250851  11.607   9.155   0.375
16338SOL     OW50852   3.337  12.082   8.426
16338SOL    HW150853   3.292  12.148   8.373
16338SOL    HW250854   3.395  12.036   8.364
16339SOL     OW50855   6.474   8.007   3.080
16339SOL    HW150856   6.548   8.009   3.020
16339SOL    HW250857   6.495   7.936   3.141
16340SOL     OW50858  14.767   0.166  13.701
16340SOL    HW150859  14.787   0.181  13.793
16340SOL    HW250860  14.842   0.201  13.654
16341SOL     OW50861   9.677   6.882  11.806
16341SOL    HW150862   9.732   6.951  11.768
16341SOL    HW250863   9.609   6.866  11.740
16342SOL     OW50864   5.004   8.609   2.632
16342SOL    HW150865   4.977   8.570   2.549
16342SOL    HW250866   4.923   8.627   2.679
16343SOL     OW50867   8.782  10.697   6.164
16343SOL    HW150868   8.773  10.792   6.171
16343SOL    HW250869   8.741  10.674   6.081
16344SOL     OW50870   4.562   5.608   4.435
16344SOL    HW150871   4.570   5.677   4.370
16344SOL    HW250872   4.644   5.558   4.428
16345SOL     OW50873   5.701   3.809   5.599
16345SOL    HW150874   5.628   3.793   5.658
16345SOL    HW250875   5.719   3.902   5.607
16346SOL     OW50876   9.091   0.095   1.758
16346SOL    HW150877   9.056   0.152   1.689
16346SOL    HW250878   9.157   0.148   1.802
16347SOL     OW50879   7.973   1.119   0.259
16347SOL    HW150880   7.930   1.185   0.204
16347SOL    HW250881   8.003   1.052   0.197
16348SOL     OW50882   4.692   9.906   9.254
16348SOL    HW150883   4.751   9.851   9.203
16348SOL    HW250884   4.743   9.929   9.332
16349SOL     OW50885   1.967   7.102   8.407
16349SOL    HW150886   1.936   7.032   8.349
16349SOL    HW250887   2.035   7.060   8.460
16350SOL     OW50888   0.933   2.869   6.109
16350SOL    HW150889   0.856   2.925   6.096
16350SOL    HW250890   0.926   2.840   6.200
16351SOL     OW50891   9.484   9.402   7.010
16351SOL    HW150892   9.577   9.388   6.992
16351SOL    HW250893   9.449   9.314   7.026
16352SOL     OW50894   0.298   1.582   0.939
16352SOL    HW150895   0.285   1.584   0.844
16352SOL    HW250896   0.209   1.587   0.975
16353SOL     OW50897   4.628   7.134   4.003
16353SOL    HW150898   4.556   7.141   4.065
16353SOL    HW250899   4.624   7.044   3.971
16354SOL     OW50900   2.993   2.076  11.795
16354SOL    HW150901   3.007   2.032  11.879
16354SOL    HW250902   3.027   2.164  11.808
16355SOL     OW50903   5.763  10.164   8.709
16355SOL    HW150904   5.734  10.156   8.618
16355SOL    HW250905   5.843  10.216   8.704
16356SOL     OW50906   9.848   0.718   6.287
16356SOL    HW150907   9.776   0.781   6.281
16356SOL    HW250908   9.839   0.664   6.209
16357SOL     OW50909  11.390  13.621   2.310
16357SOL    HW150910  11.334  13.551   2.277
16357SOL    HW250911  11.369  13.626   2.403
16358SOL     OW50912  13.821  14.304  11.898
16358SOL    HW150913  13.835  14.249  11.976
16358SOL    HW250914  13.740  14.271  11.860
16359SOL     OW50915  12.226   0.949   8.367
16359SOL    HW150916  12.167   0.893   8.316
16359SOL    HW250917  12.178   1.030   8.378
16360SOL     OW50918   0.242   9.963  12.062
16360SOL    HW150919   0.304  10.023  12.021
16360SOL    HW250920   0.293   9.915  12.126
16361SOL     OW50921   2.277   4.412  11.721
16361SOL    HW150922   2.338   4.341  11.742
16361SOL    HW250923   2.331   4.490  11.712
16362SOL     OW50924   9.069   0.169   3.690
16362SOL    HW150925   9.118   0.215   3.757
16362SOL    HW250926   9.006   0.233   3.657
16363SOL     OW50927  14.030  12.425   8.532
16363SOL    HW150928  13.941  12.396   8.554
16363SOL    HW250929  14.057  12.478   8.607
16364SOL     OW50930   1.795  14.856   6.204
16364SOL    HW150931   1.703   0.000   6.216
16364SOL    HW250932   1.827  14.841   6.293
16365SOL     OW50933   3.856   4.432   7.945
16365SOL    HW150934   3.788   4.402   7.885
16365SOL    HW250935   3.824   4.516   7.978
16366SOL     OW50936   1.145   9.557   6.049
16366SOL    HW150937   1.229   9.543   6.093
16366SOL    HW250938   1.149   9.647   6.016
16367SOL     OW50939   9.451  13.367  11.520
16367SOL    HW150940   9.460  13.272  11.534
16367SOL    HW250941   9.472  13.406  11.605
16368SOL     OW50942   3.560  10.260   9.987
16368SOL    HW150943   3.512  10.179   9.969
16368SOL    HW250944   3.560  10.267  10.083
16369SOL     OW50945   7.024   1.837   5.106
16369SOL    HW150946   6.989   1.749   5.102
16369SOL    HW250947   6.981   1.877   5.182
16370SOL     OW50948  14.257  10.635   5.678
16370SOL    HW150949  14.322  10.643   5.608
16370SOL    HW250950  14.296  10.573   5.740
16371SOL     OW50951   6.110   8.673  11.403
16371SOL    HW150952   6.066   8.756  11.423
16371SOL    HW250953   6.050   8.606  11.434
16372SOL     OW50954  11.724   8.848   3.279
16372SOL    HW150955  11.696   8.908   3.209
16372SOL    HW250956  11.655   8.852   3.344
16373SOL     OW50957   1.122   5.574  10.414
16373SOL    HW150958   1.203   5.538  10.376
16373SOL    HW250959   1.063   5.499  10.419
16374SOL     OW50960   5.255   3.879   3.279
16374SOL    HW150961   5.323   3.879   3.346
16374SOL    HW250962   5.268   3.797   3.232
16375SOL     OW50963   4.585   7.761   8.133
16375SOL    HW150964   4.572   7.765   8.227
16375SOL    HW250965   4.649   7.830   8.115
16376SOL     OW50966  11.001   2.694  12.110
16376SOL    HW150967  10.968   2.749  12.181
16376SOL    HW250968  10.923   2.666  12.062
16377SOL     OW50969  13.415   1.946   3.791
16377SOL    HW150970  13.473   1.898   3.851
16377SOL    HW250971  13.377   1.879   3.735
16378SOL     OW50972   2.729  10.131  12.803
16378SOL    HW150973   2.776  10.109  12.723
16378SOL    HW250974   2.791  10.112  12.873
16379SOL     OW50975  11.620  12.228   1.025
16379SOL    HW150976  11.605  12.182   1.108
16379SOL    HW250977  11.614  12.320   1.048
16380SOL     OW50978   7.401   5.919  12.043
16380SOL    HW150979   7.397   5.869  12.124
16380SOL    HW250980   7.310   5.926  12.014
16381SOL     OW50981   1.705   9.348  14.041
16381SOL    HW150982   1.681   9.408  14.111
16381SOL    HW250983   1.754   9.278  14.084
16382SOL     OW50984  10.780   2.583  11.850
16382SOL    HW150985  10.739   2.502  11.883
16382SOL    HW250986  10.707   2.644  11.839
16383SOL     OW50987  11.072   5.884  10.107
16383SOL    HW150988  11.160   5.871  10.072
16383SOL    HW250989  11.015   5.837  10.046
16384SOL     OW50990   0.190   9.606   8.749
16384SOL    HW150991   0.144   9.522   8.760
16384SOL    HW250992   0.120   9.669   8.735
16385SOL     OW50993  13.997   7.001   3.091
16385SOL    HW150994  14.042   7.039   3.167
16385SOL    HW250995  13.949   7.075   3.053
16386SOL     OW50996   7.441   2.856   6.574
16386SOL    HW150997   7.516   2.797   6.567
16386SOL    HW250998   7.477   2.938   6.606
16387SOL     OW50999  12.822   7.100   9.784
16387SOL    HW151000  12.743   7.049   9.800
16387SOL    HW251001  12.874   7.091   9.864
16388SOL     OW51002   8.059   8.228   8.455
16388SOL    HW151003   7.989   8.238   8.519
16388SOL    HW251004   8.019   8.181   8.382
16389SOL     OW51005  13.159   4.751  11.829
16389SOL    HW151006  13.181   4.730  11.920
16389SOL    HW251007  13.080   4.701  11.812
16390SOL     OW51008   8.597  11.149   9.461
16390SOL    HW151009   8.556  11.134   9.546
16390SOL    HW251010   8.546  11.095   9.400
16391SOL     OW51011   9.780   3.488   1.823
16391SOL    HW151012   9.741   3.415   1.776
16391SOL    HW251013   9.836   3.447   1.889
16392SOL     OW51014   7.702  10.601   7.908
16392SOL    HW151015   7.665  10.541   7.844
16392SOL    HW251016   7.784  10.559   7.935
16393SOL     OW51017  12.633  10.525   5.986
16393SOL    HW151018  12.661  10.464   6.054
16393SOL    HW251019  12.708  10.582   5.973
16394SOL     OW51020  14.563   0.043   8.057
16394SOL    HW151021  14.619   0.115   8.086
16394SOL    HW251022  14.498   0.034   8.127
16395SOL     OW51023   6.022   6.655  11.363
16395SOL    HW151024   6.015   6.684  11.272
16395SOL    HW251025   5.959   6.709  11.410
16396SOL     OW51026   8.501  10.289   3.144
16396SOL    HW151027   8.505  10.267   3.237
16396SOL    HW251028   8.565  10.359   3.133
16397SOL     OW51029   1.413   3.277   1.570
16397SOL    HW151030   1.409   3.218   1.645
16397SOL    HW251031   1.481   3.240   1.513
16398SOL     OW51032   2.563   1.800  14.793
16398SOL    HW151033   2.582   1.786   0.004
16398SOL    HW251034   2.632   1.859  14.763
16399SOL     OW51035   9.234   4.560   4.779
16399SOL    HW151036   9.169   4.524   4.838
16399SOL    HW251037   9.189   4.630   4.732
16400SOL     OW51038   2.053  11.596   8.683
16400SOL    HW151039   2.131  11.565   8.730
16400SOL    HW251040   2.007  11.650   8.747
16401SOL     OW51041   0.182   7.391  12.853
16401SOL    HW151042   0.207   7.471  12.899
16401SOL    HW251043   0.193   7.321  12.917
16402SOL     OW51044  10.931   0.637  14.429
16402SOL    HW151045  10.903   0.680  14.348
16402SOL    HW251046  10.853   0.588  14.458
16403SOL     OW51047  10.718  12.196   0.794
16403SOL    HW151048  10.749  12.110   0.763
16403SOL    HW251049  10.651  12.175   0.859
16404SOL     OW51050   7.887   3.249   2.348
16404SOL    HW151051   7.891   3.154   2.341
16404SOL    HW251052   7.818   3.276   2.287
16405SOL     OW51053   7.804  13.246   7.072
16405SOL    HW151054   7.819  13.169   7.127
16405SOL    HW251055   7.886  13.257   7.023
16406SOL     OW51056   4.511   2.415  13.664
16406SOL    HW151057   4.588   2.467  13.687
16406SOL    HW251058   4.491   2.365  13.744
16407SOL     OW51059   4.571   0.094   9.027
16407SOL    HW151060   4.557  14.881   9.028
16407SOL    HW251061   4.661   0.105   8.999
16408SOL     OW51062  14.295   1.328   5.055
16408SOL    HW151063  14.213   1.293   5.021
16408SOL    HW251064  14.360   1.261   5.034
16409SOL     OW51065   4.637  14.304   6.406
16409SOL    HW151066   4.587  14.252   6.342
16409SOL    HW251067   4.680  14.371   6.353
16410SOL     OW51068  10.079  12.954   3.210
16410SOL    HW151069  10.169  12.948   3.241
16410SOL    HW251070  10.067  13.047   3.190
16411SOL     OW51071   5.123   7.002   2.953
16411SOL    HW151072   5.198   7.047   2.913
16411SOL    HW251073   5.078   6.961   2.879
16412SOL     OW51074   1.558   9.179  11.768
16412SOL    HW151075   1.653   9.172  11.782
16412SOL    HW251076   1.527   9.234  11.840
16413SOL     OW51077   4.075   3.591   2.942
16413SOL    HW151078   4.165   3.622   2.933
16413SOL    HW251079   4.078   3.500   2.913
16414SOL     OW51080   3.426   1.966   1.119
16414SOL    HW151081   3.506   1.953   1.170
16414SOL    HW251082   3.422   1.889   1.061
16415SOL     OW51083  13.238  12.679  10.350
16415SOL    HW151084  13.168  12.623  10.385
16415SOL    HW251085  13.223  12.681  10.256
16416SOL     OW51086   4.966   8.152   4.178
16416SOL    HW151087   4.949   8.087   4.246
16416SOL    HW251088   4.879   8.178   4.147
16417SOL     OW51089  10.229  14.819   5.881
16417SOL    HW151090  10.275  14.853   5.804
16417SOL    HW251091  10.289  14.754   5.918
16418SOL     OW51092  11.000   7.847   6.869
16418SOL    HW151093  11.006   7.874   6.777
16418SOL    HW251094  11.014   7.752   6.866
16419SOL     OW51095  14.224   4.984   9.820
16419SOL    HW151096  14.174   5.025   9.890
16419SOL    HW251097  14.217   4.890   9.836
16420SOL     OW51098   1.953   1.065   7.813
16420SOL    HW151099   1.867   1.076   7.854
16420SOL    HW251100   1.984   1.155   7.799
16421SOL     OW51101   2.098   0.250   8.085
16421SOL    HW151102   2.082   0.209   8.000
16421SOL    HW251103   2.164   0.317   8.069
16422SOL     OW51104   6.768   0.249  11.679
16422SOL    HW151105   6.749   0.186  11.749
16422SOL    HW251106   6.742   0.204  11.599
16423SOL     OW51107   0.125   0.109   0.267
16423SOL    HW151108   0.218   0.104   0.289
16423SOL    HW251109   0.080   0.085   0.348
16424SOL     OW51110   3.169   3.133  13.583
16424SOL    HW151111   3.148   3.166  13.495
16424SOL    HW251112   3.087   3.145  13.632
16425SOL     OW51113   5.811   5.646   5.129
16425SOL    HW151114   5.891   5.672   5.084
16425SOL    HW251115   5.841   5.613   5.214
16426SOL     OW51116   4.655   4.978   1.566
16426SOL    HW151117   4.649   5.051   1.504
16426SOL    HW251118   4.692   4.906   1.515
16427SOL     OW51119  13.866   4.448  10.322
16427SOL    HW151120  13.847   4.538  10.294
16427SOL    HW251121  13.791   4.397  10.292
16428SOL     OW51122  12.486   5.842   5.009
16428SOL    HW151123  12.461   5.912   5.070
16428SOL    HW251124  12.522   5.773   5.065
16429SOL     OW51125   3.725   6.203   0.459
16429SOL    HW151126   3.678   6.186   0.377
16429SOL    HW251127   3.662   6.253   0.512
16430SOL     OW51128   0.909   7.852   7.486
16430SOL    HW151129   0.986   7.845   7.541
16430SOL    HW251130   0.942   7.846   7.396
16431SOL     OW51131  14.252   9.600  14.187
16431SOL    HW151132  14.286   9.673  14.238
16431SOL    HW251133  14.328   9.566  14.141
16432SOL     OW51134   0.568  10.754   8.929
16432SOL    HW151135   0.532  10.696   8.861
16432SOL    HW251136   0.629  10.811   8.882
16433SOL     OW51137   9.766  10.854  13.809
16433SOL    HW151138   9.767  10.778  13.868
16433SOL    HW251139   9.718  10.824  13.732
16434SOL     OW51140   3.588   1.109  10.894
16434SOL    HW151141   3.656   1.164  10.932
16434SOL    HW251142   3.520   1.105  10.962
16435SOL     OW51143   3.246   6.706   5.506
16435SOL    HW151144   3.168   6.706   5.450
16435SOL    HW251145   3.289   6.623   5.487
16436SOL     OW51146   8.263  12.412   5.706
16436SOL    HW151147   8.276  12.399   5.800
16436SOL    HW251148   8.337  12.366   5.666
16437SOL     OW51149  12.713   4.460  14.710
16437SOL    HW151150  12.736   4.493  14.623
16437SOL    HW251151  12.757   4.519  14.770
16438SOL     OW51152  10.450   8.464   9.828
16438SOL    HW151153  10.518   8.531   9.833
16438SOL    HW251154  10.398   8.476   9.908
16439SOL     OW51155   2.073  13.189  13.373
16439SOL    HW151156   2.077  13.259  13.308
16439SOL    HW251157   2.014  13.223  13.441
16440SOL     OW51158   4.731   2.400   9.745
16440SOL    HW151159   4.673   2.396   9.820
16440SOL    HW251160   4.816   2.425   9.781
16441SOL     OW51161  12.880   0.476   0.445
16441SOL    HW151162  12.832   0.488   0.363
16441SOL    HW251163  12.909   0.385   0.443
16442SOL     OW51164   2.382   4.738   2.642
16442SOL    HW151165   2.304   4.792   2.660
16442SOL    HW251166   2.455   4.791   2.674
16443SOL     OW51167  14.820  10.254   6.657
16443SOL    HW151168  14.830  10.339   6.614
16443SOL    HW251169  14.726  10.239   6.660
16444SOL     OW51170   2.003   7.690   9.578
16444SOL    HW151171   2.065   7.624   9.545
16444SOL    HW251172   2.056   7.767   9.595
16445SOL     OW51173  14.195   4.582   3.343
16445SOL    HW151174  14.230   4.515   3.402
16445SOL    HW251175  14.269   4.605   3.287
16446SOL     OW51176   8.593  11.540  11.143
16446SOL    HW151177   8.677  11.574  11.174
16446SOL    HW251178   8.571  11.470  11.205
16447SOL     OW51179   2.345   4.433   7.428
16447SOL    HW151180   2.309   4.454   7.342
16447SOL    HW251181   2.435   4.404   7.410
16448SOL     OW51182   2.768   6.245  13.146
16448SOL    HW151183   2.678   6.275  13.133
16448SOL    HW251184   2.811   6.318  13.190
16449SOL     OW51185   0.976   6.808   5.888
16449SOL    HW151186   0.888   6.845   5.890
16449SOL    HW251187   1.004   6.809   5.979
16450SOL     OW51188   0.109   0.480  11.928
16450SOL    HW151189   0.134   0.491  11.836
16450SOL    HW251190   0.014   0.474  11.926
16451SOL     OW51191   9.316   0.773   7.305
16451SOL    HW151192   9.260   0.739   7.235
16451SOL    HW251193   9.398   0.725   7.296
16452SOL     OW51194  11.018   8.790   5.111
16452SOL    HW151195  10.951   8.851   5.079
16452SOL    HW251196  11.007   8.791   5.206
16453SOL     OW51197   2.383  14.010   3.157
16453SOL    HW151198   2.446  14.024   3.227
16453SOL    HW251199   2.304  13.979   3.200
16454SOL     OW51200  14.030   2.816   5.879
16454SOL    HW151201  14.047   2.815   5.785
16454SOL    HW251202  14.092   2.752   5.915
16455SOL     OW51203   0.592  11.529   0.007
16455SOL    HW151204   0.593  11.598  14.822
16455SOL    HW251205   0.643  11.564   0.079
16456SOL     OW51206   7.982   0.371  14.284
16456SOL    HW151207   8.063   0.405  14.245
16456SOL    HW251208   8.010   0.339  14.370
16457SOL     OW51209  11.154  13.506   3.804
16457SOL    HW151210  11.205  13.528   3.726
16457SOL    HW251211  11.090  13.442   3.773
16458SOL     OW51212  14.396   6.247   1.153
16458SOL    HW151213  14.357   6.160   1.156
16458SOL    HW251214  14.338   6.298   1.097
16459SOL     OW51215  14.232   4.154   1.003
16459SOL    HW151216  14.202   4.079   0.952
16459SOL    HW251217  14.177   4.227   0.973
16460SOL     OW51218  10.530  12.201   5.659
16460SOL    HW151219  10.554  12.290   5.636
16460SOL    HW251220  10.520  12.203   5.754
16461SOL     OW51221   6.414  10.809   6.732
16461SOL    HW151222   6.422  10.836   6.824
16461SOL    HW251223   6.413  10.713   6.735
16462SOL     OW51224   0.784  13.874   5.881
16462SOL    HW151225   0.769  13.782   5.857
16462SOL    HW251226   0.729  13.887   5.958
16463SOL     OW51227   7.883   9.022   4.993
16463SOL    HW151228   7.914   9.043   5.081
16463SOL    HW251229   7.810   8.963   5.006
16464SOL     OW51230   3.784  11.949  14.684
16464SOL    HW151231   3.693  11.929  14.705
16464SOL    HW251232   3.834  11.877  14.722
16465SOL     OW51233   6.137   6.707   7.909
16465SOL    HW151234   6.153   6.726   7.816
16465SOL    HW251235   6.184   6.626   7.926
16466SOL     OW51236   0.010   8.416   1.135
16466SOL    HW151237   0.099   8.400   1.167
16466SOL    HW251238  14.836   8.401   1.211
16467SOL     OW51239  14.632   5.722   0.222
16467SOL    HW151240  14.689   5.778   0.275
16467SOL    HW251241  14.660   5.633   0.243
16468SOL     OW51242   0.036   4.864  11.703
16468SOL    HW151243   0.066   4.953  11.725
16468SOL    HW251244   0.077   4.808  11.769
16469SOL     OW51245   9.701  13.195   9.216
16469SOL    HW151246   9.680  13.273   9.267
16469SOL    HW251247   9.699  13.123   9.279
16470SOL     OW51248  12.224   5.210   9.300
16470SOL    HW151249  12.240   5.117   9.282
16470SOL    HW251250  12.302   5.254   9.269
16471SOL     OW51251  10.342   3.114  13.646
16471SOL    HW151252  10.312   3.160  13.567
16471SOL    HW251253  10.324   3.021  13.628
16472SOL     OW51254   0.945   6.559   6.282
16472SOL    HW151255   1.001   6.584   6.356
16472SOL    HW251256   0.996   6.493   6.235
16473SOL     OW51257  10.998  10.768   3.198
16473SOL    HW151258  10.944  10.776   3.120
16473SOL    HW251259  10.949  10.707   3.254
16474SOL     OW51260  10.909   3.409   3.643
16474SOL    HW151261  10.954   3.453   3.570
16474SOL    HW251262  10.901   3.477   3.710
16475SOL     OW51263   9.730  13.285  11.228
16475SOL    HW151264   9.640  13.258  11.207
16475SOL    HW251265   9.759  13.222  11.294
16476SOL     OW51266   0.764   7.110   8.087
16476SOL    HW151267   0.833   7.166   8.051
16476SOL    HW251268   0.720   7.165   8.152
16477SOL     OW51269   6.687   7.461   3.589
16477SOL    HW151270   6.776   7.485   3.564
16477SOL    HW251271   6.695   7.373   3.627
16478SOL     OW51272   9.287   8.353   0.393
16478SOL    HW151273   9.194   8.373   0.397
16478SOL    HW251274   9.309   8.322   0.481
16479SOL     OW51275   5.283   9.999   7.247
16479SOL    HW151276   5.291  10.095   7.245
16479SOL    HW251277   5.294   9.973   7.155
16480SOL     OW51278   6.948   0.587  12.669
16480SOL    HW151279   6.876   0.636  12.631
16480SOL    HW251280   6.922   0.572  12.760
16481SOL     OW51281  14.598  14.389   3.581
16481SOL    HW151282  14.587  14.318   3.517
16481SOL    HW251283  14.509  14.419   3.599
16482SOL     OW51284   5.459   9.313   4.372
16482SOL    HW151285   5.413   9.381   4.323
16482SOL    HW251286   5.467   9.347   4.461
16483SOL     OW51287   4.259   4.340   9.198
16483SOL    HW151288   4.256   4.249   9.227
16483SOL    HW251289   4.208   4.341   9.117
16484SOL     OW51290  12.428  13.922   4.101
16484SOL    HW151291  12.476  13.840   4.098
16484SOL    HW251292  12.476  13.980   4.042
16485SOL     OW51293   9.438   1.930   0.360
16485SOL    HW151294   9.444   2.018   0.397
16485SOL    HW251295   9.368   1.936   0.295
16486SOL     OW51296   1.305   5.768   5.514
16486SOL    HW151297   1.272   5.790   5.427
16486SOL    HW251298   1.379   5.709   5.498
16487SOL     OW51299   9.960   5.588   6.646
16487SOL    HW151300  10.043   5.608   6.689
16487SOL    HW251301   9.956   5.492   6.646
16488SOL     OW51302  14.237   5.530  13.893
16488SOL    HW151303  14.173   5.463  13.917
16488SOL    HW251304  14.302   5.527  13.964
16489SOL     OW51305   6.275  10.143   4.322
16489SOL    HW151306   6.218  10.216   4.346
16489SOL    HW251307   6.217  10.082   4.277
16490SOL     OW51308   1.183   0.170  14.552
16490SOL    HW151309   1.267   0.215  14.559
16490SOL    HW251310   1.124   0.236  14.513
16491SOL     OW51311  10.205   6.806   6.754
16491SOL    HW151312  10.200   6.816   6.659
16491SOL    HW251313  10.154   6.880   6.788
16492SOL     OW51314  12.772   4.603   9.465
16492SOL    HW151315  12.805   4.662   9.533
16492SOL    HW251316  12.846   4.591   9.406
16493SOL     OW51317  13.935   0.876   7.636
16493SOL    HW151318  14.012   0.898   7.584
16493SOL    HW251319  13.887   0.814   7.582
16494SOL     OW51320   0.633  10.776   2.523
16494SOL    HW151321   0.695  10.730   2.581
16494SOL    HW251322   0.596  10.846   2.578
16495SOL     OW51323   5.969   5.557   3.939
16495SOL    HW151324   6.040   5.620   3.927
16495SOL    HW251325   5.971   5.503   3.859
16496SOL     OW51326  10.968   0.757  11.529
16496SOL    HW151327  11.036   0.690  11.530
16496SOL    HW251328  10.998   0.823  11.592
16497SOL     OW51329   5.848  13.464   9.826
16497SOL    HW151330   5.944  13.455   9.820
16497SOL    HW251331   5.831  13.473   9.920
16498SOL     OW51332   9.619   6.093   8.743
16498SOL    HW151333   9.605   6.048   8.826
16498SOL    HW251334   9.579   6.179   8.755
16499SOL     OW51335   0.472  12.086   5.399
16499SOL    HW151336   0.449  12.111   5.489
16499SOL    HW251337   0.392  12.102   5.349
16500SOL     OW51338   8.912  14.711   9.905
16500SOL    HW151339   8.832  14.744   9.864
16500SOL    HW251340   8.895  14.618   9.919
16501SOL     OW51341   2.013   6.653  14.608
16501SOL    HW151342   1.940   6.616  14.558
16501SOL    HW251343   2.013   6.746  14.585
16502SOL     OW51344   8.900  10.575   7.902
16502SOL    HW151345   8.828  10.610   7.850
16502SOL    HW251346   8.975  10.630   7.880
16503SOL     OW51347   2.388   0.840  14.561
16503SOL    HW151348   2.457   0.783  14.594
16503SOL    HW251349   2.325   0.780  14.520
16504SOL     OW51350   2.626   1.474   2.405
16504SOL    HW151351   2.712   1.449   2.372
16504SOL    HW251352   2.595   1.540   2.343
16505SOL     OW51353   0.401   1.521   7.410
16505SOL    HW151354   0.396   1.430   7.439
16505SOL    HW251355   0.492   1.546   7.427
16506SOL     OW51356   0.887   5.085   2.988
16506SOL    HW151357   0.857   5.146   3.055
16506SOL    HW251358   0.893   5.001   3.032
16507SOL     OW51359   9.975   3.301   0.195
16507SOL    HW151360  10.026   3.223   0.217
16507SOL    HW251361   9.946   3.286   0.105
16508SOL     OW51362  10.543   9.295  11.553
16508SOL    HW151363  10.534   9.206  11.588
16508SOL    HW251364  10.618   9.332  11.598
16509SOL     OW51365  11.057  10.904  14.576
16509SOL    HW151366  11.143  10.861  14.580
16509SOL    HW251367  11.064  10.976  14.639
16510SOL     OW51368  11.901   6.135  14.263
16510SOL    HW151369  11.821   6.167  14.304
16510SOL    HW251370  11.907   6.044  14.290
16511SOL     OW51371   1.703   0.749   6.905
16511SOL    HW151372   1.707   0.724   6.813
16511SOL    HW251373   1.794   0.766   6.930
16512SOL     OW51374  12.749   9.131   8.990
16512SOL    HW151375  12.801   9.210   8.972
16512SOL    HW251376  12.668   9.163   9.027
16513SOL     OW51377  13.477   2.702   3.418
16513SOL    HW151378  13.401   2.753   3.391
16513SOL    HW251379  13.472   2.623   3.365
16514SOL     OW51380   9.593  14.292   0.701
16514SOL    HW151381   9.638  14.344   0.634
16514SOL    HW251382   9.624  14.202   0.686
16515SOL     OW51383  13.879   6.585   4.978
16515SOL    HW151384  13.949   6.530   4.944
16515SOL    HW251385  13.850   6.541   5.058
16516SOL     OW51386  10.489  13.277   9.052
16516SOL    HW151387  10.396  13.299   9.058
16516SOL    HW251388  10.512  13.248   9.141
16517SOL     OW51389  10.013   5.461  13.335
16517SOL    HW151390   9.966   5.512  13.400
16517SOL    HW251391   9.964   5.379  13.328
16518SOL     OW51392   8.904   2.179   0.312
16518SOL    HW151393   8.904   2.206   0.221
16518SOL    HW251394   8.971   2.233   0.353
16519SOL     OW51395   6.817  13.479  10.828
16519SOL    HW151396   6.796  13.458  10.919
16519SOL    HW251397   6.913  13.479  10.825
16520SOL     OW51398   1.983  14.457   0.310
16520SOL    HW151399   2.068  14.419   0.290
16520SOL    HW251400   1.934  14.452   0.228
16521SOL     OW51401   9.639   4.192   1.526
16521SOL    HW151402   9.714   4.137   1.547
16521SOL    HW251403   9.593   4.203   1.609
16522SOL     OW51404  12.406   7.959   5.800
16522SOL    HW151405  12.311   7.953   5.807
16522SOL    HW251406  12.422   8.045   5.761
16523SOL     OW51407  12.646   2.947  14.752
16523SOL    HW151408  12.643   2.950  14.848
16523SOL    HW251409  12.628   2.855  14.731
16524SOL     OW51410   9.609  13.876   6.296
16524SOL    HW151411   9.671  13.862   6.367
16524SOL    HW251412   9.648  13.946   6.244
16525SOL     OW51413   2.455  10.912  13.281
16525SOL    HW151414   2.480  10.829  13.239
16525SOL    HW251415   2.537  10.946  13.317
16526SOL     OW51416  10.903  11.026   8.562
16526SOL    HW151417  10.971  11.066   8.507
16526SOL    HW251418  10.824  11.030   8.509
16527SOL     OW51419   0.475  12.327   4.013
16527SOL    HW151420   0.463  12.236   4.041
16527SOL    HW251421   0.527  12.321   3.933
16528SOL     OW51422  12.041  14.624   6.274
16528SOL    HW151423  11.983  14.572   6.329
16528SOL    HW251424  12.047  14.709   6.317
16529SOL     OW51425   6.860   5.876   5.417
16529SOL    HW151426   6.914   5.916   5.349
16529SOL    HW251427   6.784   5.842   5.370
16530SOL     OW51428   9.716   6.772   3.948
16530SOL    HW151429   9.675   6.743   4.029
16530SOL    HW251430   9.806   6.739   3.953
16531SOL     OW51431  11.617   4.020   3.966
16531SOL    HW151432  11.687   3.995   4.026
16531SOL    HW251433  11.637   4.111   3.942
16532SOL     OW51434   2.049  13.957   0.289
16532SOL    HW151435   2.007  14.044   0.289
16532SOL    HW251436   1.979  13.897   0.263
16533SOL     OW51437  13.877   4.898   4.703
16533SOL    HW151438  13.865   4.977   4.756
16533SOL    HW251439  13.964   4.866   4.728
16534SOL     OW51440  12.493   8.045  13.386
16534SOL    HW151441  12.483   8.123  13.442
16534SOL    HW251442  12.432   7.981  13.425
16535SOL     OW51443  11.864   0.481  14.140
16535SOL    HW151444  11.864   0.416  14.210
16535SOL    HW251445  11.955   0.486  14.112
16536SOL     OW51446   7.864  13.299  10.609
16536SOL    HW151447   7.795  13.364  10.618
16536SOL    HW251448   7.937  13.346  10.569
16537SOL     OW51449  14.558   5.130   5.046
16537SOL    HW151450  14.642   5.121   5.090
16537SOL    HW251451  14.496   5.087   5.105
16538SOL     OW51452   4.409   3.163   4.461
16538SOL    HW151453   4.385   3.162   4.553
16538SOL    HW251454   4.330   3.193   4.416
16539SOL     OW51455   6.028  12.538  13.222
16539SOL    HW151456   6.087  12.609  13.198
16539SOL    HW251457   6.064  12.503  13.303
16540SOL     OW51458   9.791   1.243  11.032
16540SOL    HW151459   9.752   1.189  10.963
16540SOL    HW251460   9.827   1.319  10.985
16541SOL     OW51461  11.692   9.308   4.189
16541SOL    HW151462  11.634   9.382   4.212
16541SOL    HW251463  11.640   9.255   4.129
16542SOL     OW51464   6.997  13.179   5.453
16542SOL    HW151465   6.970  13.134   5.533
16542SOL    HW251466   7.093  13.177   5.456
16543SOL     OW51467   7.786   9.067  12.952
16543SOL    HW151468   7.875   9.059  12.917
16543SOL    HW251469   7.785   9.012  13.030
16544SOL     OW51470  10.793  12.839   7.854
16544SOL    HW151471  10.732  12.885   7.911
16544SOL    HW251472  10.757  12.751   7.846
16545SOL     OW51473   3.536   7.685   9.761
16545SOL    HW151474   3.501   7.602   9.730
16545SOL    HW251475   3.631   7.673   9.762
16546SOL     OW51476   5.402  14.117   8.707
16546SOL    HW151477   5.498  14.121   8.704
16546SOL    HW251478   5.375  14.125   8.616
16547SOL     OW51479   1.649   7.896   0.504
16547SOL    HW151480   1.690   7.819   0.465
16547SOL    HW251481   1.613   7.866   0.587
16548SOL     OW51482   7.846   2.321   5.778
16548SOL    HW151483   7.897   2.401   5.790
16548SOL    HW251484   7.761   2.342   5.817
16549SOL     OW51485   7.606  11.081   7.472
16549SOL    HW151486   7.552  11.160   7.470
16549SOL    HW251487   7.616  11.056   7.380
16550SOL     OW51488   1.714  12.995  13.884
16550SOL    HW151489   1.659  13.000  13.805
16550SOL    HW251490   1.706  12.904  13.912
16551SOL     OW51491  13.622   3.246   9.324
16551SOL    HW151492  13.595   3.154   9.315
16551SOL    HW251493  13.561   3.283   9.387
16552SOL     OW51494   2.482   3.389  13.041
16552SOL    HW151495   2.545   3.330  13.082
16552SOL    HW251496   2.397   3.347  13.058
16553SOL     OW51497   4.147   1.542  13.697
16553SOL    HW151498   4.101   1.595  13.762
16553SOL    HW251499   4.116   1.576  13.613
16554SOL     OW51500   6.336   8.388   7.852
16554SOL    HW151501   6.403   8.320   7.862
16554SOL    HW251502   6.374   8.466   7.893
16555SOL     OW51503   3.115  14.096   9.666
16555SOL    HW151504   3.045  14.084   9.729
16555SOL    HW251505   3.186  14.137   9.716
16556SOL     OW51506  10.957   6.740  12.502
16556SOL    HW151507  10.970   6.832  12.525
16556SOL    HW251508  10.899   6.742  12.426
16557SOL     OW51509  13.099   7.757   4.091
16557SOL    HW151510  13.024   7.741   4.149
16557SOL    HW251511  13.060   7.797   4.013
16558SOL     OW51512  10.585   0.491   1.552
16558SOL    HW151513  10.646   0.417   1.560
16558SOL    HW251514  10.559   0.510   1.643
16559SOL     OW51515  14.702   6.164   3.188
16559SOL    HW151516  14.684   6.182   3.280
16559SOL    HW251517  14.720   6.250   3.150
16560SOL     OW51518  14.312  10.092   3.467
16560SOL    HW151519  14.271  10.018   3.421
16560SOL    HW251520  14.324  10.158   3.399
16561SOL     OW51521  10.497  14.802   3.874
16561SOL    HW151522  10.521  14.855   3.798
16561SOL    HW251523  10.563  14.733   3.878
16562SOL     OW51524  13.748   7.254   5.554
16562SOL    HW151525  13.834   7.221   5.527
16562SOL    HW251526  13.759   7.349   5.559
16563SOL     OW51527   2.824   3.619   7.663
16563SOL    HW151528   2.907   3.606   7.616
16563SOL    HW251529   2.757   3.588   7.603
16564SOL     OW51530   3.932  11.683   5.319
16564SOL    HW151531   3.865  11.633   5.366
16564SOL    HW251532   3.938  11.765   5.367
16565SOL     OW51533  10.063  12.217   3.676
16565SOL    HW151534  10.061  12.293   3.617
16565SOL    HW251535   9.979  12.220   3.722
16566SOL     OW51536   3.425   3.139   9.143
16566SOL    HW151537   3.341   3.094   9.141
16566SOL    HW251538   3.453   3.134   9.235
16567SOL     OW51539   7.457  13.848  12.686
16567SOL    HW151540   7.453  13.847  12.590
16567SOL    HW251541   7.514  13.922  12.706
16568SOL     OW51542   4.192   6.879  10.741
16568SOL    HW151543   4.264   6.918  10.692
16568SOL    HW251544   4.198   6.917  10.829
16569SOL     OW51545   3.735   1.988   0.077
16569SOL    HW151546   3.753   1.938  14.879
16569SOL    HW251547   3.655   2.035   0.059
16570SOL     OW51548   1.753  13.903   9.029
16570SOL    HW151549   1.708  13.908   8.945
16570SOL    HW251550   1.804  13.822   9.024
16571SOL     OW51551  12.523   7.000   1.256
16571SOL    HW151552  12.580   6.929   1.228
16571SOL    HW251553  12.461   6.959   1.316
16572SOL     OW51554   9.333  10.006   1.676
16572SOL    HW151555   9.327   9.929   1.733
16572SOL    HW251556   9.298  10.077   1.730
16573SOL     OW51557   1.740  13.347  12.700
16573SOL    HW151558   1.715  13.282  12.635
16573SOL    HW251559   1.657  13.381  12.733
16574SOL     OW51560  12.458  13.755  10.546
16574SOL    HW151561  12.490  13.824  10.603
16574SOL    HW251562  12.526  13.688  10.548
16575SOL     OW51563   6.184   8.605   2.087
16575SOL    HW151564   6.232   8.566   2.160
16575SOL    HW251565   6.191   8.541   2.017
16576SOL     OW51566   9.674   9.169   7.920
16576SOL    HW151567   9.768   9.183   7.921
16576SOL    HW251568   9.663   9.075   7.930
16577SOL     OW51569   3.172   2.015  11.035
16577SOL    HW151570   3.231   2.085  11.064
16577SOL    HW251571   3.087   2.039  11.073
16578SOL     OW51572  12.163   3.887  10.149
16578SOL    HW151573  12.114   3.882  10.230
16578SOL    HW251574  12.254   3.874  10.175
16579SOL     OW51575  14.035  14.125   8.694
16579SOL    HW151576  14.029  14.030   8.698
16579SOL    HW251577  13.972  14.157   8.759
16580SOL     OW51578   4.034   4.916   7.531
16580SOL    HW151579   4.104   4.853   7.513
16580SOL    HW251580   3.958   4.861   7.551
16581SOL     OW51581   1.656  11.238   9.933
16581SOL    HW151582   1.631  11.251   9.841
16581SOL    HW251583   1.689  11.323   9.961
16582SOL     OW51584  13.743   7.539   5.611
16582SOL    HW151585  13.792   7.540   5.693
16582SOL    HW251586  13.778   7.613   5.561
16583SOL     OW51587   1.326   6.865   9.601
16583SOL    HW151588   1.286   6.951   9.592
16583SOL    HW251589   1.253   6.803   9.596
16584SOL     OW51590   0.527   7.768  13.610
16584SOL    HW151591   0.514   7.703  13.679
16584SOL    HW251592   0.529   7.717  13.529
16585SOL     OW51593   2.285   5.616   8.488
16585SOL    HW151594   2.286   5.705   8.453
16585SOL    HW251595   2.377   5.588   8.484
16586SOL     OW51596   3.966   9.233  12.718
16586SOL    HW151597   3.948   9.139  12.704
16586SOL    HW251598   4.057   9.244  12.692
16587SOL     OW51599  11.965   6.883  14.773
16587SOL    HW151600  11.990   6.911  14.861
16587SOL    HW251601  11.966   6.788  14.776
16588SOL     OW51602   1.364   2.051   2.450
16588SOL    HW151603   1.310   1.995   2.394
16588SOL    HW251604   1.454   2.026   2.431
16589SOL     OW51605   2.140   1.190   8.311
16589SOL    HW151606   2.111   1.169   8.400
16589SOL    HW251607   2.147   1.286   8.310
16590SOL     OW51608   0.591   4.994   1.386
16590SOL    HW151609   0.613   4.901   1.373
16590SOL    HW251610   0.522   4.993   1.452
16591SOL     OW51611  10.930   2.857   9.036
16591SOL    HW151612  10.963   2.789   9.094
16591SOL    HW251613  10.869   2.812   8.978
16592SOL     OW51614   5.871   3.169   6.559
16592SOL    HW151615   5.863   3.214   6.643
16592SOL    HW251616   5.948   3.113   6.569
16593SOL     OW51617   9.402  14.064   7.575
16593SOL    HW151618   9.338  14.078   7.646
16593SOL    HW251619   9.418  14.152   7.541
16594SOL     OW51620  12.962   5.438  10.515
16594SOL    HW151621  12.881   5.414  10.560
16594SOL    HW251622  12.932   5.486  10.437
16595SOL     OW51623   6.565   4.190  12.361
16595SOL    HW151624   6.556   4.194  12.266
16595SOL    HW251625   6.586   4.098  12.380
16596SOL     OW51626   4.749  14.493   8.617
16596SOL    HW151627   4.781  14.418   8.668
16596SOL    HW251628   4.753  14.567   8.678
16597SOL     OW51629  12.079   5.219   2.605
16597SOL    HW151630  12.082   5.157   2.532
16597SOL    HW251631  12.074   5.164   2.684
16598SOL     OW51632   2.824   4.298   7.309
16598SOL    HW151633   2.729   4.298   7.321
16598SOL    HW251634   2.840   4.367   7.244
16599SOL     OW51635   2.516   9.451  13.660
16599SOL    HW151636   2.446   9.500  13.616
16599SOL    HW251637   2.498   9.359  13.640
16600SOL     OW51638   3.914   1.432   7.505
16600SOL    HW151639   3.960   1.511   7.475
16600SOL    HW251640   3.889   1.452   7.596
16601SOL     OW51641  14.551  10.529  13.074
16601SOL    HW151642  14.577  10.586  13.001
16601SOL    HW251643  14.464  10.497  13.050
16602SOL     OW51644   7.912   1.484   1.535
16602SOL    HW151645   7.852   1.469   1.462
16602SOL    HW251646   7.877   1.561   1.579
16603SOL     OW51647  11.657  10.886   9.078
16603SOL    HW151648  11.643  10.976   9.107
16603SOL    HW251649  11.570  10.853   9.058
16604SOL     OW51650  13.336  12.801   6.056
16604SOL    HW151651  13.324  12.717   6.013
16604SOL    HW251652  13.286  12.794   6.137
16605SOL     OW51653   5.376   1.234   2.720
16605SOL    HW151654   5.399   1.142   2.725
16605SOL    HW251655   5.282   1.237   2.738
16606SOL     OW51656  10.632  11.968   5.489
16606SOL    HW151657  10.571  12.042   5.495
16606SOL    HW251658  10.697  11.996   5.425
16607SOL     OW51659   5.091   8.175   2.216
16607SOL    HW151660   5.165   8.183   2.277
16607SOL    HW251661   5.099   8.251   2.158
16608SOL     OW51662   9.356   4.011   8.848
16608SOL    HW151663   9.410   3.948   8.800
16608SOL    HW251664   9.280   4.025   8.792
16609SOL     OW51665  11.074  12.161  12.314
16609SOL    HW151666  11.061  12.204  12.229
16609SOL    HW251667  11.008  12.091  12.315
16610SOL     OW51668  10.477   5.671  13.861
16610SOL    HW151669  10.398   5.687  13.911
16610SOL    HW251670  10.482   5.575  13.854
16611SOL     OW51671   4.377   7.866   1.598
16611SOL    HW151672   4.383   7.962   1.604
16611SOL    HW251673   4.391   7.848   1.505
16612SOL     OW51674  14.307   1.669  11.706
16612SOL    HW151675  14.284   1.717  11.627
16612SOL    HW251676  14.245   1.596  11.709
16613SOL     OW51677   3.134   5.045   9.183
16613SOL    HW151678   3.115   5.043   9.089
16613SOL    HW251679   3.173   5.131   9.199
16614SOL     OW51680   6.256   1.046   7.059
16614SOL    HW151681   6.192   1.076   7.124
16614SOL    HW251682   6.217   1.069   6.975
16615SOL     OW51683  10.928   2.648  11.577
16615SOL    HW151684  10.940   2.701  11.656
16615SOL    HW251685  10.900   2.562  11.610
16616SOL     OW51686   2.320   7.546   2.315
16616SOL    HW151687   2.311   7.639   2.292
16616SOL    HW251688   2.414   7.531   2.319
16617SOL     OW51689   8.969  10.085  13.651
16617SOL    HW151690   8.924  10.158  13.610
16617SOL    HW251691   9.006  10.122  13.731
16618SOL     OW51692   4.733   3.069  11.378
16618SOL    HW151693   4.746   3.098  11.288
16618SOL    HW251694   4.794   2.996  11.388
16619SOL     OW51695   1.337   1.210  12.481
16619SOL    HW151696   1.359   1.301  12.463
16619SOL    HW251697   1.393   1.159  12.422
16620SOL     OW51698   1.517   4.967   2.878
16620SOL    HW151699   1.446   4.977   2.815
16620SOL    HW251700   1.544   5.056   2.898
16621SOL     OW51701   1.163   3.350  10.672
16621SOL    HW151702   1.188   3.272  10.721
16621SOL    HW251703   1.245   3.393  10.651
16622SOL     OW51704  13.688  10.289   8.079
16622SOL    HW151705  13.697  10.262   8.171
16622SOL    HW251706  13.692  10.384   8.081
16623SOL     OW51707   6.010   3.942   9.620
16623SOL    HW151708   6.070   3.929   9.694
16623SOL    HW251709   5.981   3.854   9.597
16624SOL     OW51710   4.026  14.426   6.273
16624SOL    HW151711   4.065  14.495   6.219
16624SOL    HW251712   3.985  14.367   6.210
16625SOL     OW51713   7.404   3.636   8.651
16625SOL    HW151714   7.428   3.613   8.740
16625SOL    HW251715   7.479   3.609   8.598
16626SOL     OW51716   8.909   8.416   5.493
16626SOL    HW151717   9.000   8.443   5.499
16626SOL    HW251718   8.913   8.326   5.459
16627SOL     OW51719   9.819  13.687   6.039
16627SOL    HW151720   9.803  13.621   6.106
16627SOL    HW251721   9.743  13.681   5.981
16628SOL     OW51722   5.307  12.172   3.206
16628SOL    HW151723   5.298  12.263   3.177
16628SOL    HW251724   5.361  12.177   3.284
16629SOL     OW51725  12.280   3.650   5.478
16629SOL    HW151726  12.229   3.702   5.541
16629SOL    HW251727  12.360   3.701   5.464
16630SOL     OW51728   7.946  12.193   4.457
16630SOL    HW151729   7.903  12.228   4.535
16630SOL    HW251730   8.017  12.255   4.439
16631SOL     OW51731   9.778   7.516  12.637
16631SOL    HW151732   9.865   7.519  12.596
16631SOL    HW251733   9.727   7.583  12.592
16632SOL     OW51734   9.029  13.009   9.239
16632SOL    HW151735   8.949  12.965   9.214
16632SOL    HW251736   9.022  13.021   9.334
16633SOL     OW51737  14.651   1.895  11.484
16633SOL    HW151738  14.670   1.968  11.424
16633SOL    HW251739  14.716   1.829  11.462
16634SOL     OW51740   8.512   9.484   3.916
16634SOL    HW151741   8.477   9.516   3.833
16634SOL    HW251742   8.440   9.435   3.955
16635SOL     OW51743   0.966  11.323   6.368
16635SOL    HW151744   1.014  11.306   6.287
16635SOL    HW251745   0.893  11.380   6.341
16636SOL     OW51746  14.736  13.913   6.915
16636SOL    HW151747  14.704  13.972   6.984
16636SOL    HW251748  14.705  13.827   6.941
16637SOL     OW51749   5.250  10.027  10.045
16637SOL    HW151750   5.282   9.999   9.959
16637SOL    HW251751   5.235   9.946  10.093
16638SOL     OW51752   7.495  13.185  10.899
16638SOL    HW151753   7.576  13.153  10.857
16638SOL    HW251754   7.486  13.131  10.977
16639SOL     OW51755   8.260   2.976  11.933
16639SOL    HW151756   8.190   3.035  11.906
16639SOL    HW251757   8.222   2.924  12.004
16640SOL     OW51758   5.216   6.774   0.057
16640SOL    HW151759   5.173   6.699   0.099
16640SOL    HW251760   5.179   6.850   0.101
16641SOL     OW51761   3.653   7.016  13.953
16641SOL    HW151762   3.673   6.925  13.975
16641SOL    HW251763   3.596   7.045  14.024
16642SOL     OW51764  12.841  14.635   4.156
16642SOL    HW151765  12.837  14.557   4.211
16642SOL    HW251766  12.774  14.620   4.089
16643SOL     OW51767  13.312   1.118   8.040
16643SOL    HW151768  13.396   1.072   8.039
16643SOL    HW251769  13.253   1.058   8.084
16644SOL     OW51770   9.519   0.002   6.743
16644SOL    HW151771   9.611  14.881   6.767
16644SOL    HW251772   9.518   0.037   6.654
16645SOL     OW51773   8.175  12.878   3.574
16645SOL    HW151774   8.142  12.804   3.626
16645SOL    HW251775   8.205  12.839   3.492
16646SOL     OW51776   7.103  12.703   4.224
16646SOL    HW151777   7.021  12.681   4.179
16646SOL    HW251778   7.105  12.645   4.300
16647SOL     OW51779   7.471   8.258  12.201
16647SOL    HW151780   7.414   8.223  12.270
16647SOL    HW251781   7.558   8.259  12.242
16648SOL     OW51782   6.201  10.682   4.584
16648SOL    HW151783   6.123  10.733   4.606
16648SOL    HW251784   6.202  10.681   4.488
16649SOL     OW51785  13.165  13.527   8.057
16649SOL    HW151786  13.211  13.537   7.974
16649SOL    HW251787  13.117  13.609   8.068
16650SOL     OW51788  10.156   9.951   4.976
16650SOL    HW151789  10.245   9.971   4.949
16650SOL    HW251790  10.152   9.981   5.067
16651SOL     OW51791  10.215   8.662   2.045
16651SOL    HW151792  10.139   8.699   2.090
16651SOL    HW251793  10.188   8.574   2.020
16652SOL     OW51794  11.129   6.597  14.255
16652SOL    HW151795  11.098   6.591  14.165
16652SOL    HW251796  11.222   6.618  14.247
16653SOL     OW51797   5.879   8.888   4.863
16653SOL    HW151798   5.806   8.890   4.802
16653SOL    HW251799   5.840   8.863   4.947
16654SOL     OW51800   2.006  14.388   7.007
16654SOL    HW151801   1.927  14.414   7.056
16654SOL    HW251802   2.060  14.467   7.007
16655SOL     OW51803   0.617  10.554   9.552
16655SOL    HW151804   0.578  10.491   9.492
16655SOL    HW251805   0.586  10.527   9.639
16656SOL     OW51806  11.584   4.602  10.523
16656SOL    HW151807  11.547   4.589  10.436
16656SOL    HW251808  11.515   4.574  10.583
16657SOL     OW51809   7.128  14.676   4.986
16657SOL    HW151810   7.222  14.682   4.999
16657SOL    HW251811   7.112  14.583   4.969
16658SOL     OW51812   2.363   5.919   5.166
16658SOL    HW151813   2.352   5.962   5.250
16658SOL    HW251814   2.458   5.910   5.155
16659SOL     OW51815   0.743   4.965   7.809
16659SOL    HW151816   0.814   4.944   7.749
16659SOL    HW251817   0.669   4.914   7.778
16660SOL     OW51818  10.039   6.931   2.693
16660SOL    HW151819   9.987   6.899   2.620
16660SOL    HW251820  10.091   6.856   2.721
16661SOL     OW51821  12.916   3.322  11.488
16661SOL    HW151822  12.863   3.305  11.566
16661SOL    HW251823  12.956   3.407  11.505
16662SOL     OW51824   4.548   1.533   4.632
16662SOL    HW151825   4.493   1.554   4.707
16662SOL    HW251826   4.505   1.576   4.558
16663SOL     OW51827   1.250   2.417   6.256
16663SOL    HW151828   1.278   2.483   6.320
16663SOL    HW251829   1.312   2.345   6.266
16664SOL     OW51830   5.007   6.430   9.553
16664SOL    HW151831   4.969   6.381   9.480
16664SOL    HW251832   5.102   6.426   9.537
16665SOL     OW51833  12.777   7.791   6.615
16665SOL    HW151834  12.872   7.787   6.629
16665SOL    HW251835  12.740   7.802   6.703
16666SOL     OW51836   8.182   0.348   4.660
16666SOL    HW151837   8.197   0.438   4.688
16666SOL    HW251838   8.259   0.300   4.689
16667SOL     OW51839   0.084  10.880   4.929
16667SOL    HW151840   0.130  10.879   5.013
16667SOL    HW251841  14.875  10.865   4.952
16668SOL     OW51842  13.559   9.366   0.045
16668SOL    HW151843  13.605   9.283   0.058
16668SOL    HW251844  13.600   9.404  14.849
16669SOL     OW51845   2.682   9.434   1.096
16669SOL    HW151846   2.710   9.349   1.061
16669SOL    HW251847   2.756   9.463   1.149
16670SOL     OW51848  14.623   1.417   7.309
16670SOL    HW151849  14.700   1.392   7.257
16670SOL    HW251850  14.655   1.487   7.366
16671SOL     OW51851   4.834  14.715  13.064
16671SOL    HW151852   4.835  14.623  13.037
16671SOL    HW251853   4.773  14.718  13.137
16672SOL     OW51854   5.421  12.121   3.978
16672SOL    HW151855   5.487  12.091   3.915
16672SOL    HW251856   5.467  12.182   4.035
16673SOL     OW51857   0.663  10.097   2.994
16673SOL    HW151858   0.610  10.042   3.051
16673SOL    HW251859   0.622  10.088   2.908
16674SOL     OW51860   5.925   2.437  11.023
16674SOL    HW151861   6.005   2.469  11.063
16674SOL    HW251862   5.925   2.343  11.040
16675SOL     OW51863   3.571  12.036   4.148
16675SOL    HW151864   3.645  11.988   4.110
16675SOL    HW251865   3.598  12.052   4.239
16676SOL     OW51866  10.615   3.023  13.998
16676SOL    HW151867  10.673   2.985  13.932
16676SOL    HW251868  10.568   2.949  14.035
16677SOL     OW51869   5.246   5.231   3.951
16677SOL    HW151870   5.204   5.208   3.868
16677SOL    HW251871   5.232   5.154   4.007
16678SOL     OW51872   3.961   7.420   5.974
16678SOL    HW151873   3.924   7.389   5.891
16678SOL    HW251874   4.015   7.495   5.949
16679SOL     OW51875   2.233   0.610   7.321
16679SOL    HW151876   2.162   0.593   7.382
16679SOL    HW251877   2.311   0.574   7.364
16680SOL     OW51878   4.540   0.305   3.044
16680SOL    HW151879   4.520   0.313   3.137
16680SOL    HW251880   4.455   0.314   3.000
16681SOL     OW51881   8.142   3.606  13.509
16681SOL    HW151882   8.087   3.610  13.431
16681SOL    HW251883   8.199   3.530  13.494
16682SOL     OW51884  10.561  10.558   7.590
16682SOL    HW151885  10.640  10.540   7.641
16682SOL    HW251886  10.552  10.482   7.533
16683SOL     OW51887   6.551  10.322  12.302
16683SOL    HW151888   6.582  10.273  12.377
16683SOL    HW251889   6.565  10.414  12.326
16684SOL     OW51890   2.554   7.541   3.356
16684SOL    HW151891   2.617   7.468   3.353
16684SOL    HW251892   2.514   7.541   3.269
16685SOL     OW51893   8.853  11.178  11.481
16685SOL    HW151894   8.831  11.085  11.481
16685SOL    HW251895   8.833  11.207  11.570
16686SOL     OW51896   5.990   8.186   2.004
16686SOL    HW151897   5.920   8.251   1.998
16686SOL    HW251898   5.965   8.131   2.078
16687SOL     OW51899  10.894   0.307   0.265
16687SOL    HW151900  10.988   0.285   0.263
16687SOL    HW251901  10.850   0.222   0.266
16688SOL     OW51902   0.132  10.609   9.202
16688SOL    HW151903   0.086  10.627   9.284
16688SOL    HW251904   0.079  10.654   9.135
16689SOL     OW51905  10.699  10.811   1.124
16689SOL    HW151906  10.710  10.905   1.112
16689SOL    HW251907  10.761  10.788   1.193
16690SOL     OW51908  14.366  10.189  13.368
16690SOL    HW151909  14.306  10.261  13.387
16690SOL    HW251910  14.442  10.231  13.329
16691SOL     OW51911  14.368   3.355  10.556
16691SOL    HW151912  14.432   3.349  10.485
16691SOL    HW251913  14.320   3.436  10.539
16692SOL     OW51914  12.162  13.674   2.781
16692SOL    HW151915  12.129  13.700   2.695
16692SOL    HW251916  12.226  13.605   2.762
16693SOL     OW51917   1.280   1.590  13.135
16693SOL    HW151918   1.267   1.641  13.056
16693SOL    HW251919   1.201   1.538  13.144
16694SOL     OW51920  11.247   0.904   2.127
16694SOL    HW151921  11.233   0.998   2.140
16694SOL    HW251922  11.167   0.875   2.083
16695SOL     OW51923   1.386  10.620   6.806
16695SOL    HW151924   1.363  10.712   6.821
16695SOL    HW251925   1.430  10.592   6.886
16696SOL     OW51926  14.298  13.793   2.301
16696SOL    HW151927  14.321  13.861   2.364
16696SOL    HW251928  14.203  13.788   2.304
16697SOL     OW51929   7.845   4.049   1.856
16697SOL    HW151930   7.923   3.996   1.843
16697SOL    HW251931   7.830   4.047   1.951
16698SOL     OW51932  11.487   2.698   0.791
16698SOL    HW151933  11.405   2.705   0.841
16698SOL    HW251934  11.466   2.736   0.705
16699SOL     OW51935  10.064  13.161   2.202
16699SOL    HW151936  10.020  13.137   2.120
16699SOL    HW251937  10.073  13.256   2.198
16700SOL     OW51938  11.244   6.557   2.133
16700SOL    HW151939  11.218   6.566   2.225
16700SOL    HW251940  11.321   6.612   2.125
16701SOL     OW51941  11.787   7.572   9.771
16701SOL    HW151942  11.718   7.551   9.709
16701SOL    HW251943  11.787   7.500   9.834
16702SOL     OW51944  13.951   5.399   1.849
16702SOL    HW151945  13.886   5.342   1.808
16702SOL    HW251946  13.899   5.455   1.908
16703SOL     OW51947  11.781  10.142  13.238
16703SOL    HW151948  11.747  10.116  13.153
16703SOL    HW251949  11.870  10.173  13.219
16704SOL     OW51950   4.056   0.984   5.223
16704SOL    HW151951   4.048   0.899   5.265
16704SOL    HW251952   4.087   1.042   5.292
16705SOL     OW51953  11.800  12.032   5.967
16705SOL    HW151954  11.844  12.009   5.885
16705SOL    HW251955  11.810  11.953   6.021
16706SOL     OW51956   8.887  11.617  11.478
16706SOL    HW151957   8.862  11.558  11.407
16706SOL    HW251958   8.903  11.560  11.553
16707SOL     OW51959   2.328   0.993  14.102
16707SOL    HW151960   2.346   0.899  14.102
16707SOL    HW251961   2.323   1.017  14.195
16708SOL     OW51962   9.547   0.247  12.359
16708SOL    HW151963   9.547   0.330  12.406
16708SOL    HW251964   9.613   0.256  12.291
16709SOL     OW51965  11.515   2.128   3.228
16709SOL    HW151966  11.569   2.103   3.303
16709SOL    HW251967  11.540   2.067   3.159
16710SOL     OW51968  11.189   8.384   7.034
16710SOL    HW151969  11.176   8.455   7.097
16710SOL    HW251970  11.261   8.332   7.072
16711SOL     OW51971   9.665  11.385   8.532
16711SOL    HW151972   9.631  11.296   8.538
16711SOL    HW251973   9.591  11.441   8.554
16712SOL     OW51974   7.823  11.539   6.678
16712SOL    HW151975   7.883  11.528   6.752
16712SOL    HW251976   7.770  11.460   6.677
16713SOL     OW51977  14.243  13.766  12.034
16713SOL    HW151978  14.335  13.751  12.013
16713SOL    HW251979  14.233  13.861  12.037
16714SOL     OW51980   7.961   6.480   8.047
16714SOL    HW151981   7.927   6.543   7.983
16714SOL    HW251982   7.950   6.523   8.131
16715SOL     OW51983   5.320   7.635  14.144
16715SOL    HW151984   5.401   7.666  14.186
16715SOL    HW251985   5.300   7.552  14.188
16716SOL     OW51986   1.708   6.456   0.904
16716SOL    HW151987   1.678   6.525   0.846
16716SOL    HW251988   1.800   6.442   0.880
16717SOL     OW51989  13.722   2.245  11.644
16717SOL    HW151990  13.802   2.288  11.676
16717SOL    HW251991  13.745   2.214  11.557
16718SOL     OW51992  14.231   6.600  14.245
16718SOL    HW151993  14.229   6.677  14.188
16718SOL    HW251994  14.297   6.621  14.311
16719SOL     OW51995   3.638  12.367   3.864
16719SOL    HW151996   3.595  12.339   3.783
16719SOL    HW251997   3.732  12.357   3.845
16720SOL     OW51998   2.073   1.414   9.967
16720SOL    HW151999   2.048   1.324   9.945
16720SOL    HW252000   2.096   1.454   9.884
16721SOL     OW52001  14.135   8.521   1.367
16721SOL    HW152002  14.095   8.605   1.388
16721SOL    HW252003  14.206   8.511   1.431
16722SOL     OW52004  10.220   6.996   5.852
16722SOL    HW152005  10.301   7.046   5.847
16722SOL    HW252006  10.151   7.061   5.843
16723SOL     OW52007   7.750  12.486  14.225
16723SOL    HW152008   7.691  12.413  14.204
16723SOL    HW252009   7.831  12.464  14.181
16724SOL     OW52010   1.818  12.847  12.376
16724SOL    HW152011   1.832  12.758  12.407
16724SOL    HW252012   1.884  12.859  12.308
16725SOL     OW52013   6.763   7.114  13.616
16725SOL    HW152014   6.815   7.047  13.660
16725SOL    HW252015   6.689   7.129  13.674
16726SOL     OW52016   8.411   7.299   0.238
16726SOL    HW152017   8.499   7.277   0.268
16726SOL    HW252018   8.408   7.269   0.147
16727SOL     OW52019   9.433   4.905   2.086
16727SOL    HW152020   9.481   4.984   2.109
16727SOL    HW252021   9.379   4.886   2.162
16728SOL     OW52022   7.520   1.176   0.801
16728SOL    HW152023   7.448   1.145   0.856
16728SOL    HW252024   7.520   1.271   0.813
16729SOL     OW52025   1.642  13.564   4.345
16729SOL    HW152026   1.590  13.642   4.364
16729SOL    HW252027   1.726  13.598   4.314
16730SOL     OW52028  11.191   5.658   2.724
16730SOL    HW152029  11.199   5.573   2.681
16730SOL    HW252030  11.164   5.637   2.814
16731SOL     OW52031   4.978   1.089   8.447
16731SOL    HW152032   5.048   1.129   8.396
16731SOL    HW252033   4.958   1.007   8.402
16732SOL     OW52034   3.334  10.664  13.613
16732SOL    HW152035   3.355  10.746  13.570
16732SOL    HW252036   3.418  10.621  13.626
16733SOL     OW52037   8.087   6.747  12.196
16733SOL    HW152038   8.035   6.826  12.209
16733SOL    HW252039   8.140   6.739  12.275
16734SOL     OW52040   4.318  14.081   0.058
16734SOL    HW152041   4.297  14.035  14.859
16734SOL    HW252042   4.237  14.078   0.109
16735SOL     OW52043   3.049   1.934  13.608
16735SOL    HW152044   3.030   1.840  13.609
16735SOL    HW252045   3.111   1.945  13.536
16736SOL     OW52046  11.832   3.763   7.434
16736SOL    HW152047  11.810   3.694   7.372
16736SOL    HW252048  11.928   3.765   7.435
16737SOL     OW52049   2.574  12.907   2.909
16737SOL    HW152050   2.588  12.901   3.004
16737SOL    HW252051   2.524  12.828   2.887
16738SOL     OW52052  13.307  12.711   8.708
16738SOL    HW152053  13.366  12.660   8.762
16738SOL    HW252054  13.364  12.760   8.649
16739SOL     OW52055   4.963  13.412   4.030
16739SOL    HW152056   4.963  13.506   4.046
16739SOL    HW252057   4.915  13.402   3.947
16740SOL     OW52058   1.616  12.294   6.502
16740SOL    HW152059   1.594  12.384   6.478
16740SOL    HW252060   1.540  12.242   6.476
16741SOL     OW52061   1.978   8.716   2.965
16741SOL    HW152062   1.927   8.705   2.885
16741SOL    HW252063   1.939   8.793   3.007
16742SOL     OW52064   9.525   1.521   1.468
16742SOL    HW152065   9.485   1.552   1.550
16742SOL    HW252066   9.459   1.541   1.401
16743SOL     OW52067  12.283  12.318  10.780
16743SOL    HW152068  12.296  12.268  10.700
16743SOL    HW252069  12.294  12.409  10.754
16744SOL     OW52070   5.945   8.056  11.318
16744SOL    HW152071   5.949   7.998  11.241
16744SOL    HW252072   5.993   8.009  11.386
16745SOL     OW52073  13.868  14.158   7.504
16745SOL    HW152074  13.863  14.194   7.415
16745SOL    HW252075  13.857  14.234   7.561
16746SOL     OW52076   4.343   8.786   6.295
16746SOL    HW152077   4.380   8.751   6.213
16746SOL    HW252078   4.248   8.781   6.281
16747SOL     OW52079  13.604   2.566   7.443
16747SOL    HW152080  13.585   2.659   7.458
16747SOL    HW252081  13.671   2.544   7.508
16748SOL     OW52082   6.926  13.076  11.300
16748SOL    HW152083   6.976  13.088  11.219
16748SOL    HW252084   6.861  13.146  11.298
16749SOL     OW52085   2.439   9.910  13.209
16749SOL    HW152086   2.353   9.936  13.241
16749SOL    HW252087   2.454   9.967  13.133
16750SOL     OW52088   9.041  13.122   1.822
16750SOL    HW152089   9.006  13.033   1.832
16750SOL    HW252090   9.120  13.111   1.768
16751SOL     OW52091   8.237   1.610   1.165
16751SOL    HW152092   8.231   1.665   1.244
16751SOL    HW252093   8.329   1.584   1.162
16752SOL     OW52094  14.142   7.048   5.915
16752SOL    HW152095  14.115   7.023   5.826
16752SOL    HW252096  14.237   7.045   5.912
16753SOL     OW52097   7.129   5.540   0.989
16753SOL    HW152098   7.160   5.584   1.068
16753SOL    HW252099   7.116   5.610   0.925
16754SOL     OW52100   2.317   6.058   6.122
16754SOL    HW152101   2.285   6.134   6.075
16754SOL    HW252102   2.371   6.095   6.193
16755SOL     OW52103  13.401   1.948   5.474
16755SOL    HW152104  13.358   1.870   5.508
16755SOL    HW252105  13.377   2.017   5.536
16756SOL     OW52106   5.976   3.804  10.926
16756SOL    HW152107   5.980   3.899  10.938
16756SOL    HW252108   5.950   3.793  10.835
16757SOL     OW52109   2.818  12.665   8.538
16757SOL    HW152110   2.745  12.611   8.567
16757SOL    HW252111   2.779  12.749   8.517
16758SOL     OW52112   8.985   9.129   5.090
16758SOL    HW152113   8.910   9.105   5.035
16758SOL    HW252114   9.039   9.185   5.033
16759SOL     OW52115  11.663  11.520  12.801
16759SOL    HW152116  11.596  11.522  12.733
16759SOL    HW252117  11.621  11.562  12.876
16760SOL     OW52118  11.806  13.390  12.524
16760SOL    HW152119  11.759  13.426  12.448
16760SOL    HW252120  11.761  13.428  12.599
16761SOL     OW52121  11.550   6.287   5.034
16761SOL    HW152122  11.552   6.379   5.011
16761SOL    HW252123  11.595   6.282   5.118
16762SOL     OW52124  10.691  14.603   3.860
16762SOL    HW152125  10.719  14.680   3.810
16762SOL    HW252126  10.693  14.531   3.798
16763SOL     OW52127   3.022  10.457   0.610
16763SOL    HW152128   2.939  10.497   0.634
16763SOL    HW252129   3.032  10.476   0.517
16764SOL     OW52130   3.021   3.000   3.836
16764SOL    HW152131   3.045   3.020   3.927
16764SOL    HW252132   2.927   2.987   3.838
16765SOL     OW52133  10.886   4.841   3.546
16765SOL    HW152134  10.858   4.845   3.638
16765SOL    HW252135  10.961   4.780   3.546
16766SOL     OW52136  12.939   1.715  12.967
16766SOL    HW152137  12.899   1.758  13.043
16766SOL    HW252138  12.937   1.782  12.898
16767SOL     OW52139   3.121  11.586  14.367
16767SOL    HW152140   3.188  11.654  14.369
16767SOL    HW252141   3.161  11.512  14.414
16768SOL     OW52142   5.703   8.961  11.220
16768SOL    HW152143   5.623   9.007  11.196
16768SOL    HW252144   5.773   9.013  11.182
16769SOL     OW52145   5.060   9.936  10.376
16769SOL    HW152146   5.114   9.996  10.325
16769SOL    HW252147   5.079   9.958  10.468
16770SOL     OW52148   0.426   8.044  11.328
16770SOL    HW152149   0.426   8.043  11.423
16770SOL    HW252150   0.518   8.057  11.304
16771SOL     OW52151   9.379   3.189   4.030
16771SOL    HW152152   9.416   3.212   3.945
16771SOL    HW252153   9.335   3.105   4.015
16772SOL     OW52154   0.273   3.721  12.919
16772SOL    HW152155   0.182   3.696  12.901
16772SOL    HW252156   0.320   3.700  12.838
16773SOL     OW52157   9.338   2.787   7.729
16773SOL    HW152158   9.285   2.849   7.679
16773SOL    HW252159   9.381   2.840   7.795
16774SOL     OW52160   2.962  12.663  13.487
16774SOL    HW152161   2.903  12.624  13.422
16774SOL    HW252162   3.021  12.593  13.512
16775SOL     OW52163   9.149  13.035   9.745
16775SOL    HW152164   9.123  12.984   9.821
16775SOL    HW252165   9.203  13.106   9.780
16776SOL     OW52166   6.866   5.802   3.229
16776SOL    HW152167   6.832   5.842   3.148
16776SOL    HW252168   6.928   5.866   3.263
16777SOL     OW52169   2.688   0.678   9.989
16777SOL    HW152170   2.732   0.678  10.074
16777SOL    HW252171   2.711   0.764   9.952
16778SOL     OW52172   8.443   0.328   8.328
16778SOL    HW152173   8.383   0.291   8.263
16778SOL    HW252174   8.512   0.370   8.277
16779SOL     OW52175   6.700  13.724  13.239
16779SOL    HW152176   6.788  13.701  13.269
16779SOL    HW252177   6.703  13.709  13.144
16780SOL     OW52178   3.774   6.259   0.978
16780SOL    HW152179   3.848   6.204   0.954
16780SOL    HW252180   3.715   6.201   1.026
16781SOL     OW52181   4.170   1.860   8.382
16781SOL    HW152182   4.202   1.883   8.469
16781SOL    HW252183   4.079   1.833   8.396
16782SOL     OW52184   9.378  12.613  12.186
16782SOL    HW152185   9.385  12.533  12.238
16782SOL    HW252186   9.343  12.585  12.102
16783SOL     OW52187   6.059  12.593   2.958
16783SOL    HW152188   6.002  12.555   2.890
16783SOL    HW252189   6.019  12.678   2.977
16784SOL     OW52190   9.114   4.615   4.255
16784SOL    HW152191   9.132   4.681   4.188
16784SOL    HW252192   9.023   4.632   4.281
16785SOL     OW52193   4.467  11.379   2.785
16785SOL    HW152194   4.547  11.408   2.742
16785SOL    HW252195   4.462  11.432   2.864
16786SOL     OW52196   9.506   0.482   2.643
16786SOL    HW152197   9.442   0.460   2.710
16786SOL    HW252198   9.455   0.494   2.563
16787SOL     OW52199   3.008   4.016   7.442
16787SOL    HW152200   3.014   4.005   7.347
16787SOL    HW252201   3.100   4.018   7.471
16788SOL     OW52202  14.286  10.577   3.720
16788SOL    HW152203  14.223  10.648   3.738
16788SOL    HW252204  14.361  10.597   3.777
16789SOL     OW52205   7.617  12.428   5.395
16789SOL    HW152206   7.536  12.409   5.348
16789SOL    HW252207   7.683  12.437   5.327
16790SOL     OW52208   3.303  10.050   0.162
16790SOL    HW152209   3.343  10.109   0.098
16790SOL    HW252210   3.248   9.992   0.109
16791SOL     OW52211  10.448  14.347   4.759
16791SOL    HW152212  10.490  14.331   4.843
16791SOL    HW252213  10.489  14.283   4.700
16792SOL     OW52214   8.546  10.023   9.289
16792SOL    HW152215   8.512  10.053   9.374
16792SOL    HW252216   8.534  10.097   9.230
16793SOL     OW52217   2.150   4.760  14.680
16793SOL    HW152218   2.235   4.787  14.645
16793SOL    HW252219   2.090   4.767  14.606
16794SOL     OW52220   8.774  11.206  14.229
16794SOL    HW152221   8.744  11.157  14.307
16794SOL    HW252222   8.696  11.254  14.200
16795SOL     OW52223   1.528   5.588  12.549
16795SOL    HW152224   1.564   5.623  12.631
16795SOL    HW252225   1.587   5.516  12.526
16796SOL     OW52226  11.025  14.298   7.618
16796SOL    HW152227  10.976  14.362   7.566
16796SOL    HW252228  11.034  14.340   7.704
16797SOL     OW52229   6.551  10.005   5.976
16797SOL    HW152230   6.598  10.047   6.048
16797SOL    HW252231   6.615   9.943   5.939
16798SOL     OW52232   2.581   1.426  11.549
16798SOL    HW152233   2.634   1.478  11.609
16798SOL    HW252234   2.539   1.491  11.492
16799SOL     OW52235  12.793   5.093   8.809
16799SOL    HW152236  12.805   5.119   8.718
16799SOL    HW252237  12.775   5.175   8.856
16800SOL     OW52238  12.415  14.239   2.207
16800SOL    HW152239  12.397  14.238   2.300
16800SOL    HW252240  12.366  14.314   2.173
16801SOL     OW52241   0.572  10.170   0.670
16801SOL    HW152242   0.509  10.113   0.626
16801SOL    HW252243   0.578  10.135   0.759
16802SOL     OW52244  11.124   4.263  11.747
16802SOL    HW152245  11.156   4.325  11.681
16802SOL    HW252246  11.182   4.276  11.822
16803SOL     OW52247  13.683   8.466   0.503
16803SOL    HW152248  13.774   8.493   0.516
16803SOL    HW252249  13.632   8.541   0.533
16804SOL     OW52250   6.063  10.550   8.299
16804SOL    HW152251   6.083  10.589   8.214
16804SOL    HW252252   6.138  10.573   8.354
16805SOL     OW52253   8.082   8.434   7.461
16805SOL    HW152254   8.092   8.529   7.453
16805SOL    HW252255   8.171   8.401   7.469
16806SOL     OW52256   1.168   5.770  14.583
16806SOL    HW152257   1.150   5.798  14.493
16806SOL    HW252258   1.123   5.686  14.591
16807SOL     OW52259   3.763  13.864  10.950
16807SOL    HW152260   3.835  13.804  10.930
16807SOL    HW252261   3.793  13.949  10.918
16808SOL     OW52262  13.720   6.308   9.669
16808SOL    HW152263  13.761   6.231   9.710
16808SOL    HW252264  13.758   6.311   9.581
16809SOL     OW52265   6.043   9.789   1.181
16809SOL    HW152266   5.951   9.764   1.171
16809SOL    HW252267   6.069   9.816   1.093
16810SOL     OW52268   0.654   3.901   6.369
16810SOL    HW152269   0.603   3.821   6.352
16810SOL    HW252270   0.743   3.870   6.382
16811SOL     OW52271   8.365   2.428  13.089
16811SOL    HW152272   8.413   2.346  13.099
16811SOL    HW252273   8.331   2.425  13.000
16812SOL     OW52274   7.026   9.789  12.239
16812SOL    HW152275   7.121   9.788  12.251
16812SOL    HW252276   7.006   9.701  12.207
16813SOL     OW52277  12.538   6.611   2.212
16813SOL    HW152278  12.604   6.677   2.232
16813SOL    HW252279  12.513   6.575   2.298
16814SOL     OW52280   5.864  10.559   9.943
16814SOL    HW152281   5.877  10.537   9.851
16814SOL    HW252282   5.771  10.544   9.958
16815SOL     OW52283   7.891   3.839  10.457
16815SOL    HW152284   7.922   3.929  10.468
16815SOL    HW252285   7.801   3.848  10.428
16816SOL     OW52286   7.099   1.229   5.442
16816SOL    HW152287   7.156   1.167   5.487
16816SOL    HW252288   7.156   1.303   5.420
16817SOL     OW52289   2.936  11.441   1.429
16817SOL    HW152290   2.996  11.366   1.428
16817SOL    HW252291   2.863  11.413   1.483
16818SOL     OW52292   7.636  10.482   8.990
16818SOL    HW152293   7.561  10.509   8.938
16818SOL    HW252294   7.645  10.388   8.972
16819SOL     OW52295   4.545   8.025  14.118
16819SOL    HW152296   4.620   8.015  14.059
16819SOL    HW252297   4.548   8.117  14.145
16820SOL     OW52298   9.978   8.920   5.121
16820SOL    HW152299   9.995   8.907   5.214
16820SOL    HW252300  10.040   8.862   5.077
16821SOL     OW52301  12.031   5.623   0.366
16821SOL    HW152302  11.940   5.651   0.358
16821SOL    HW252303  12.082   5.703   0.352
16822SOL     OW52304  11.587   9.946   3.846
16822SOL    HW152305  11.663   9.970   3.900
16822SOL    HW252306  11.522   9.916   3.909
16823SOL     OW52307   2.663   3.560   5.404
16823SOL    HW152308   2.693   3.541   5.492
16823SOL    HW252309   2.583   3.612   5.416
16824SOL     OW52310  14.716   2.782   7.143
16824SOL    HW152311  14.706   2.836   7.222
16824SOL    HW252312  14.784   2.826   7.092
16825SOL     OW52313  11.708   4.281   5.041
16825SOL    HW152314  11.720   4.213   4.975
16825SOL    HW252315  11.702   4.363   4.991
16826SOL     OW52316   1.002   2.966  11.076
16826SOL    HW152317   0.982   2.905  11.004
16826SOL    HW252318   1.092   2.944  11.100
16827SOL     OW52319   6.197  12.830  14.105
16827SOL    HW152320   6.167  12.744  14.074
16827SOL    HW252321   6.247  12.811  14.184
16828SOL     OW52322   0.904  11.533   2.813
16828SOL    HW152323   0.863  11.570   2.734
16828SOL    HW252324   0.966  11.468   2.780
16829SOL     OW52325  10.043  13.342   5.777
16829SOL    HW152326  10.012  13.268   5.830
16829SOL    HW252327   9.964  13.375   5.734
16830SOL     OW52328  13.357   2.462   4.740
16830SOL    HW152329  13.451   2.454   4.726
16830SOL    HW252330  13.318   2.445   4.654
16831SOL     OW52331  14.528   0.597  10.583
16831SOL    HW152332  14.537   0.649  10.503
16831SOL    HW252333  14.576   0.516  10.564
16832SOL     OW52334   7.774   4.743   3.552
16832SOL    HW152335   7.754   4.712   3.640
16832SOL    HW252336   7.688   4.762   3.513
16833SOL     OW52337   9.678  14.539   4.601
16833SOL    HW152338   9.655  14.591   4.524
16833SOL    HW252339   9.770  14.516   4.588
16834SOL     OW52340   5.868   3.254  14.760
16834SOL    HW152341   5.840   3.281  14.672
16834SOL    HW252342   5.863   3.335  14.812
16835SOL     OW52343   0.040   0.009   7.419
16835SOL    HW152344  14.830   0.025   7.395
16835SOL    HW252345   0.057   0.070   7.491
16836SOL     OW52346   1.030  13.544   8.774
16836SOL    HW152347   1.117  13.535   8.736
16836SOL    HW252348   1.030  13.629   8.817
16837SOL     OW52349   8.815   3.742   5.340
16837SOL    HW152350   8.751   3.807   5.368
16837SOL    HW252351   8.882   3.742   5.409
16838SOL     OW52352  12.835   5.328  10.911
16838SOL    HW152353  12.806   5.374  10.832
16838SOL    HW252354  12.928   5.349  10.919
16839SOL     OW52355   6.397   3.213   4.713
16839SOL    HW152356   6.349   3.170   4.783
16839SOL    HW252357   6.401   3.148   4.643
16840SOL     OW52358   8.001  13.888   1.758
16840SOL    HW152359   8.010  13.929   1.672
16840SOL    HW252360   7.911  13.854   1.758
16841SOL     OW52361  14.000   5.861  11.694
16841SOL    HW152362  14.038   5.947  11.684
16841SOL    HW252363  13.930   5.857  11.629
16842SOL     OW52364   8.271  13.921  12.219
16842SOL    HW152365   8.355  13.876  12.209
16842SOL    HW252366   8.207  13.861  12.183
16843SOL     OW52367  12.537   8.919  14.584
16843SOL    HW152368  12.627   8.926  14.617
16843SOL    HW252369  12.491   8.992  14.626
16844SOL     OW52370   7.959   1.367   9.604
16844SOL    HW152371   7.921   1.296   9.553
16844SOL    HW252372   8.008   1.419   9.540
16845SOL     OW52373   7.243  11.355  12.206
16845SOL    HW152374   7.223  11.269  12.242
16845SOL    HW252375   7.254  11.411  12.283
16846SOL     OW52376  12.891  10.283  10.034
16846SOL    HW152377  12.901  10.202  10.085
16846SOL    HW252378  12.877  10.351  10.100
16847SOL     OW52379   3.043   3.775  11.434
16847SOL    HW152380   3.059   3.684  11.459
16847SOL    HW252381   2.948   3.784  11.435
16848SOL     OW52382  12.884   1.977   8.101
16848SOL    HW152383  12.879   2.068   8.073
16848SOL    HW252384  12.842   1.928   8.030
16849SOL     OW52385  13.411  10.265  11.110
16849SOL    HW152386  13.391  10.286  11.202
16849SOL    HW252387  13.488  10.208  11.115
16850SOL     OW52388   9.629   7.152   0.670
16850SOL    HW152389   9.607   7.244   0.679
16850SOL    HW252390   9.712   7.151   0.622
16851SOL     OW52391   4.642   6.884   0.498
16851SOL    HW152392   4.622   6.797   0.463
16851SOL    HW252393   4.669   6.868   0.588
16852SOL     OW52394   1.370   3.923   2.635
16852SOL    HW152395   1.460   3.949   2.654
16852SOL    HW252396   1.370   3.904   2.541
16853SOL     OW52397  10.286  10.719   7.388
16853SOL    HW152398  10.308  10.811   7.371
16853SOL    HW252399  10.328  10.700   7.472
16854SOL     OW52400   1.061  12.059  12.534
16854SOL    HW152401   1.106  12.079  12.616
16854SOL    HW252402   1.058  11.963  12.531
16855SOL     OW52403  11.627  13.153   5.006
16855SOL    HW152404  11.614  13.160   5.101
16855SOL    HW252405  11.701  13.212   4.988
16856SOL     OW52406   7.252   1.737  13.341
16856SOL    HW152407   7.186   1.671  13.323
16856SOL    HW252408   7.202   1.814  13.370
16857SOL     OW52409   6.724   0.988   1.749
16857SOL    HW152410   6.707   1.039   1.828
16857SOL    HW252411   6.747   1.053   1.683
16858SOL     OW52412   7.876   4.898   1.107
16858SOL    HW152413   7.917   4.904   1.021
16858SOL    HW252414   7.948   4.911   1.169
16859SOL     OW52415   0.378   3.500   9.272
16859SOL    HW152416   0.300   3.525   9.323
16859SOL    HW252417   0.382   3.566   9.202
16860SOL     OW52418   5.920   7.493  14.118
16860SOL    HW152419   5.998   7.447  14.147
16860SOL    HW252420   5.853   7.470  14.183
16861SOL     OW52421   3.578  13.493  11.492
16861SOL    HW152422   3.609  13.573  11.449
16861SOL    HW252423   3.513  13.457  11.431
16862SOL     OW52424  10.078   0.330   8.493
16862SOL    HW152425  10.002   0.386   8.476
16862SOL    HW252426  10.067   0.302   8.584
16863SOL     OW52427  14.192   4.267   2.558
16863SOL    HW152428  14.216   4.206   2.629
16863SOL    HW252429  14.185   4.352   2.601
16864SOL     OW52430   3.570  12.177   5.912
16864SOL    HW152431   3.626  12.209   5.983
16864SOL    HW252432   3.541  12.256   5.866
16865SOL     OW52433  11.679  10.956   5.761
16865SOL    HW152434  11.708  10.994   5.677
16865SOL    HW252435  11.750  10.976   5.822
16866SOL     OW52436   8.999  14.288   7.410
16866SOL    HW152437   9.060  14.305   7.483
16866SOL    HW252438   8.914  14.317   7.442
16867SOL     OW52439  11.152   0.978   5.479
16867SOL    HW152440  11.070   1.001   5.522
16867SOL    HW252441  11.220   1.003   5.542
16868SOL     OW52442  12.409   3.267  13.350
16868SOL    HW152443  12.325   3.303  13.380
16868SOL    HW252444  12.407   3.276  13.255
16869SOL     OW52445  13.548   8.832   9.410
16869SOL    HW152446  13.609   8.900   9.438
16869SOL    HW252447  13.499   8.871   9.338
16870SOL     OW52448   4.975   4.186   2.593
16870SOL    HW152449   4.961   4.260   2.535
16870SOL    HW252450   5.070   4.174   2.595
16871SOL     OW52451   3.680   0.989   1.922
16871SOL    HW152452   3.714   1.060   1.869
16871SOL    HW252453   3.708   1.010   2.011
16872SOL     OW52454  12.077   8.951   5.217
16872SOL    HW152455  11.995   8.960   5.170
16872SOL    HW252456  12.119   8.874   5.177
16873SOL     OW52457   1.416  14.565   5.258
16873SOL    HW152458   1.433  14.652   5.223
16873SOL    HW252459   1.368  14.520   5.189
16874SOL     OW52460   9.517   9.536   3.031
16874SOL    HW152461   9.572   9.575   3.098
16874SOL    HW252462   9.507   9.605   2.965
16875SOL     OW52463   7.319   6.775   1.049
16875SOL    HW152464   7.266   6.730   0.983
16875SOL    HW252465   7.262   6.780   1.125
16876SOL     OW52466  14.202   5.970   8.478
16876SOL    HW152467  14.197   6.059   8.512
16876SOL    HW252468  14.296   5.950   8.479
16877SOL     OW52469   7.295  10.825  13.158
16877SOL    HW152470   7.247  10.865  13.086
16877SOL    HW252471   7.372  10.785  13.117
16878SOL     OW52472   8.660   8.151   6.772
16878SOL    HW152473   8.648   8.242   6.742
16878SOL    HW252474   8.713   8.159   6.851
16879SOL     OW52475   0.686   7.672   6.806
16879SOL    HW152476   0.635   7.743   6.845
16879SOL    HW252477   0.620   7.607   6.780
16880SOL     OW52478   8.142   8.773  11.790
16880SOL    HW152479   8.088   8.828  11.734
16880SOL    HW252480   8.164   8.698  11.735
16881SOL     OW52481  13.746  10.266  10.668
16881SOL    HW152482  13.708  10.208  10.602
16881SOL    HW252483  13.677  10.275  10.734
16882SOL     OW52484  13.682   5.526  13.606
16882SOL    HW152485  13.697   5.563  13.519
16882SOL    HW252486  13.761   5.476  13.624
16883SOL     OW52487   3.491  13.279   3.645
16883SOL    HW152488   3.409  13.230   3.655
16883SOL    HW252489   3.491  13.309   3.554
16884SOL     OW52490   4.368   9.999   1.040
16884SOL    HW152491   4.320  10.081   1.042
16884SOL    HW252492   4.321   9.942   1.100
16885SOL     OW52493   8.953   2.833   7.984
16885SOL    HW152494   9.009   2.776   7.931
16885SOL    HW252495   8.992   2.920   7.974
16886SOL     OW52496  10.134   3.938   8.855
16886SOL    HW152497  10.225   3.951   8.826
16886SOL    HW252498  10.112   4.019   8.901
16887SOL     OW52499   8.144   5.230  10.461
16887SOL    HW152500   8.214   5.294  10.456
16887SOL    HW252501   8.074   5.274  10.510
16888SOL     OW52502   9.912   0.573   3.935
16888SOL    HW152503   9.997   0.613   3.953
16888SOL    HW252504   9.866   0.578   4.019
16889SOL     OW52505   1.102  13.635   3.980
16889SOL    HW152506   1.043  13.616   3.906
16889SOL    HW252507   1.050  13.613   4.057
16890SOL     OW52508   7.117   0.097   4.722
16890SOL    HW152509   7.171   0.123   4.648
16890SOL    HW252510   7.071   0.019   4.692
16891SOL     OW52511  13.113  12.609   0.389
16891SOL    HW152512  13.045  12.582   0.451
16891SOL    HW252513  13.106  12.546   0.317
16892SOL     OW52514  10.289   8.387  12.978
16892SOL    HW152515  10.336   8.360  13.057
16892SOL    HW252516  10.223   8.319  12.965
16893SOL     OW52517   1.112   3.979   9.292
16893SOL    HW152518   1.169   4.055   9.299
16893SOL    HW252519   1.159   3.909   9.338
16894SOL     OW52520   5.917  11.829   9.525
16894SOL    HW152521   5.920  11.819   9.430
16894SOL    HW252522   5.880  11.916   9.539
16895SOL     OW52523  10.639   9.173  10.259
16895SOL    HW152524  10.704   9.155  10.191
16895SOL    HW252525  10.605   9.087  10.283
16896SOL     OW52526   1.366   6.750   5.833
16896SOL    HW152527   1.417   6.728   5.755
16896SOL    HW252528   1.309   6.822   5.806
16897SOL     OW52529  10.719   2.985  13.642
16897SOL    HW152530  10.643   2.945  13.684
16897SOL    HW252531  10.752   3.048  13.706
16898SOL     OW52532   1.667  11.602   1.855
16898SOL    HW152533   1.583  11.629   1.819
16898SOL    HW252534   1.657  11.614   1.949
16899SOL     OW52535   6.405   6.792   4.412
16899SOL    HW152536   6.425   6.705   4.377
16899SOL    HW252537   6.311   6.789   4.431
16900SOL     OW52538  12.722   6.513   4.668
16900SOL    HW152539  12.762   6.588   4.713
16900SOL    HW252540  12.704   6.545   4.580
16901SOL     OW52541  10.000   3.543  12.019
16901SOL    HW152542   9.985   3.563  12.111
16901SOL    HW252543  10.096   3.542  12.010
16902SOL     OW52544   8.560   4.268   1.569
16902SOL    HW152545   8.499   4.215   1.518
16902SOL    HW252546   8.528   4.357   1.559
16903SOL     OW52547   4.922  11.167  10.199
16903SOL    HW152548   4.982  11.116  10.253
16903SOL    HW252549   4.969  11.249  10.181
16904SOL     OW52550  11.251   1.332   2.805
16904SOL    HW152551  11.246   1.293   2.893
16904SOL    HW252552  11.327   1.290   2.764
16905SOL     OW52553   1.040   0.802  10.438
16905SOL    HW152554   1.034   0.712  10.473
16905SOL    HW252555   1.126   0.832  10.466
16906SOL     OW52556   6.593  14.058   1.819
16906SOL    HW152557   6.599  13.963   1.834
16906SOL    HW252558   6.502  14.080   1.842
16907SOL     OW52559  12.263  12.662   0.672
16907SOL    HW152560  12.201  12.622   0.612
16907SOL    HW252561  12.321  12.591   0.698
16908SOL     OW52562   2.832   8.540   0.776
16908SOL    HW152563   2.831   8.449   0.747
16908SOL    HW252564   2.743   8.571   0.761
16909SOL     OW52565   2.690   7.454  12.314
16909SOL    HW152566   2.599   7.475  12.334
16909SOL    HW252567   2.724   7.533  12.273
16910SOL     OW52568  11.408   9.742   7.375
16910SOL    HW152569  11.470   9.767   7.444
16910SOL    HW252570  11.332   9.799   7.389
16911SOL     OW52571   4.977   1.220   6.143
16911SOL    HW152572   4.951   1.286   6.079
16911SOL    HW252573   5.019   1.269   6.213
16912SOL     OW52574  12.790   3.938  11.215
16912SOL    HW152575  12.836   4.022  11.223
16912SOL    HW252576  12.825   3.900  11.134
16913SOL     OW52577   9.991   9.107   0.385
16913SOL    HW152578   9.998   9.191   0.430
16913SOL    HW252579  10.072   9.061   0.408
16914SOL     OW52580   8.834  10.036  10.596
16914SOL    HW152581   8.764  10.068  10.539
16914SOL    HW252582   8.851  10.108  10.656
16915SOL     OW52583   2.436   4.124  12.019
16915SOL    HW152584   2.346   4.134  12.049
16915SOL    HW252585   2.431   4.133  11.924
16916SOL     OW52586   2.135   1.344  14.075
16916SOL    HW152587   2.064   1.344  14.011
16916SOL    HW252588   2.097   1.302  14.153
16917SOL     OW52589   6.580  11.994   7.655
16917SOL    HW152590   6.605  11.993   7.747
16917SOL    HW252591   6.488  12.022   7.656
16918SOL     OW52592   8.234   8.865  13.196
16918SOL    HW152593   8.218   8.772  13.186
16918SOL    HW252594   8.266   8.875  13.286
16919SOL     OW52595   3.832  12.438  12.136
16919SOL    HW152596   3.920  12.456  12.102
16919SOL    HW252597   3.774  12.470  12.067
16920SOL     OW52598   9.253   3.328   7.989
16920SOL    HW152599   9.304   3.326   7.908
16920SOL    HW252600   9.223   3.238   8.001
16921SOL     OW52601   7.993   2.892  10.919
16921SOL    HW152602   8.079   2.854  10.901
16921SOL    HW252603   8.007   2.950  10.993
16922SOL     OW52604  14.199  12.534   4.488
16922SOL    HW152605  14.131  12.517   4.553
16922SOL    HW252606  14.152  12.542   4.405
16923SOL     OW52607   5.193  10.377   7.698
16923SOL    HW152608   5.191  10.448   7.762
16923SOL    HW252609   5.247  10.310   7.739
16924SOL     OW52610   4.675   4.527  10.816
16924SOL    HW152611   4.699   4.443  10.775
16924SOL    HW252612   4.686   4.511  10.910
16925SOL     OW52613   4.189  11.176   5.951
16925SOL    HW152614   4.171  11.265   5.924
16925SOL    HW252615   4.250  11.142   5.885
16926SOL     OW52616  10.100  11.982   8.053
16926SOL    HW152617  10.105  12.051   8.119
16926SOL    HW252618  10.157  11.913   8.087
16927SOL     OW52619   1.548   6.604   2.012
16927SOL    HW152620   1.634   6.632   2.043
16927SOL    HW252621   1.526   6.665   1.942
16928SOL     OW52622   9.725   8.219   9.932
16928SOL    HW152623   9.797   8.156   9.933
16928SOL    HW252624   9.766   8.303   9.954
16929SOL     OW52625  13.001   5.652   6.105
16929SOL    HW152626  13.059   5.611   6.169
16929SOL    HW252627  12.986   5.584   6.039
16930SOL     OW52628  13.293   9.612   4.140
16930SOL    HW152629  13.370   9.615   4.084
16930SOL    HW252630  13.256   9.525   4.126
16931SOL     OW52631   1.317   7.434   8.314
16931SOL    HW152632   1.376   7.359   8.303
16931SOL    HW252633   1.339   7.493   8.242
16932SOL     OW52634   6.228  14.443  14.152
16932SOL    HW152635   6.148  14.489  14.126
16932SOL    HW252636   6.273  14.425  14.069
16933SOL     OW52637  14.114   1.021  10.897
16933SOL    HW152638  14.026   1.057  10.905
16933SOL    HW252639  14.166   1.069  10.961
16934SOL     OW52640  13.355  13.291  14.737
16934SOL    HW152641  13.424  13.229  14.759
16934SOL    HW252642  13.330  13.269  14.647
16935SOL     OW52643   6.876  13.023   2.918
16935SOL    HW152644   6.860  13.102   2.970
16935SOL    HW252645   6.874  12.952   2.982
16936SOL     OW52646   8.310   5.459  10.448
16936SOL    HW152647   8.390   5.512  10.457
16936SOL    HW252648   8.262   5.501  10.377
16937SOL     OW52649   5.328  10.190   6.316
16937SOL    HW152650   5.235  10.171   6.316
16937SOL    HW252651   5.368  10.111   6.353
16938SOL     OW52652   1.035   1.669   0.255
16938SOL    HW152653   1.070   1.592   0.208
16938SOL    HW252654   0.942   1.668   0.235
16939SOL     OW52655  14.044   2.778   7.860
16939SOL    HW152656  14.000   2.743   7.782
16939SOL    HW252657  14.116   2.717   7.876
16940SOL     OW52658  10.353   0.109   8.448
16940SOL    HW152659  10.409   0.125   8.372
16940SOL    HW252660  10.279   0.168   8.436
16941SOL     OW52661  13.222   4.690  12.099
16941SOL    HW152662  13.243   4.675  12.192
16941SOL    HW252663  13.228   4.785  12.089
16942SOL     OW52664  14.674  12.522   1.604
16942SOL    HW152665  14.721  12.502   1.685
16942SOL    HW252666  14.706  12.608   1.578
16943SOL     OW52667  11.889  11.726   1.165
16943SOL    HW152668  11.981  11.713   1.145
16943SOL    HW252669  11.842  11.674   1.101
16944SOL     OW52670  14.477   7.441   2.407
16944SOL    HW152671  14.433   7.453   2.491
16944SOL    HW252672  14.407   7.424   2.344
16945SOL     OW52673  11.077   1.509   2.710
16945SOL    HW152674  11.142   1.439   2.716
16945SOL    HW252675  11.082   1.553   2.795
16946SOL     OW52676   5.647   4.062   9.665
16946SOL    HW152677   5.557   4.091   9.681
16946SOL    HW252678   5.663   3.996   9.732
16947SOL     OW52679  11.606  11.911   3.008
16947SOL    HW152680  11.535  11.974   2.994
16947SOL    HW252681  11.589  11.841   2.946
16948SOL     OW52682   0.759  14.181   2.249
16948SOL    HW152683   0.846  14.220   2.251
16948SOL    HW252684   0.759  14.128   2.169
16949SOL     OW52685   5.066   3.715   5.029
16949SOL    HW152686   5.139   3.777   5.029
16949SOL    HW252687   5.063   3.683   4.939
16950SOL     OW52688   8.211   5.381   9.584
16950SOL    HW152689   8.120   5.353   9.572
16950SOL    HW252690   8.263   5.306   9.553
16951SOL     OW52691   6.100   2.678  14.714
16951SOL    HW152692   6.125   2.636  14.632
16951SOL    HW252693   6.004   2.676  14.714
16952SOL     OW52694   6.090  13.118   5.027
16952SOL    HW152695   6.014  13.060   5.022
16952SOL    HW252696   6.160  13.071   4.982
16953SOL     OW52697   0.965   8.429   3.868
16953SOL    HW152698   0.980   8.368   3.940
16953SOL    HW252699   1.045   8.423   3.815
16954SOL     OW52700   7.496   6.084  14.288
16954SOL    HW152701   7.575   6.087  14.233
16954SOL    HW252702   7.524   6.034  14.366
16955SOL     OW52703   3.759   7.845   5.268
16955SOL    HW152704   3.749   7.914   5.333
16955SOL    HW252705   3.813   7.884   5.200
16956SOL     OW52706   4.983  12.359   0.363
16956SOL    HW152707   5.075  12.371   0.342
16956SOL    HW252708   4.964  12.269   0.337
16957SOL     OW52709   8.084   3.088  14.711
16957SOL    HW152710   8.038   3.095  14.627
16957SOL    HW252711   8.025   3.036  14.766
16958SOL     OW52712  12.965   8.535   1.719
16958SOL    HW152713  12.896   8.516   1.655
16958SOL    HW252714  12.951   8.470   1.788
16959SOL     OW52715   3.101   3.984  10.658
16959SOL    HW152716   3.128   4.073  10.634
16959SOL    HW252717   3.026   3.967  10.601
16960SOL     OW52718  13.531   7.240   7.989
16960SOL    HW152719  13.463   7.247   8.056
16960SOL    HW252720  13.529   7.324   7.943
16961SOL     OW52721  14.496  11.306   2.453
16961SOL    HW152722  14.432  11.289   2.383
16961SOL    HW252723  14.560  11.236   2.444
16962SOL     OW52724  12.369   9.798   9.068
16962SOL    HW152725  12.313   9.784   9.145
16962SOL    HW252726  12.319   9.763   8.995
16963SOL     OW52727  11.276   2.942  10.955
16963SOL    HW152728  11.216   2.874  10.984
16963SOL    HW252729  11.325   2.966  11.034
16964SOL     OW52730  11.630  10.110   1.460
16964SOL    HW152731  11.536  10.121   1.475
16964SOL    HW252732  11.672  10.170   1.521
16965SOL     OW52733   1.555   5.152   4.159
16965SOL    HW152734   1.615   5.167   4.086
16965SOL    HW252735   1.468   5.162   4.120
16966SOL     OW52736   4.252  14.195   7.456
16966SOL    HW152737   4.323  14.130   7.457
16966SOL    HW252738   4.293  14.275   7.488
16967SOL     OW52739   4.536   7.672   6.519
16967SOL    HW152740   4.456   7.703   6.560
16967SOL    HW252741   4.602   7.676   6.588
16968SOL     OW52742  12.633   8.708  11.670
16968SOL    HW152743  12.573   8.783  11.668
16968SOL    HW252744  12.604   8.652  11.598
16969SOL     OW52745  10.419   8.424   7.760
16969SOL    HW152746  10.361   8.500   7.764
16969SOL    HW252747  10.430   8.408   7.666
16970SOL     OW52748   4.814   1.315   7.369
16970SOL    HW152749   4.864   1.352   7.443
16970SOL    HW252750   4.787   1.229   7.400
16971SOL     OW52751   9.298   4.576   5.759
16971SOL    HW152752   9.283   4.620   5.842
16971SOL    HW252753   9.333   4.644   5.702
16972SOL     OW52754  10.687  12.871  13.113
16972SOL    HW152755  10.782  12.866  13.130
16972SOL    HW252756  10.649  12.897  13.197
16973SOL     OW52757   0.958   3.135   8.022
16973SOL    HW152758   0.977   3.148   8.115
16973SOL    HW252759   0.891   3.067   8.021
16974SOL     OW52760   6.161  13.538   5.469
16974SOL    HW152761   6.126  13.499   5.389
16974SOL    HW252762   6.096  13.604   5.494
16975SOL     OW52763   3.747  13.013  10.760
16975SOL    HW152764   3.684  13.027  10.832
16975SOL    HW252765   3.692  12.990  10.685
16976SOL     OW52766   7.337   7.978   7.446
16976SOL    HW152767   7.382   7.914   7.501
16976SOL    HW252768   7.244   7.963   7.463
16977SOL     OW52769   0.602  13.286   2.611
16977SOL    HW152770   0.624  13.332   2.693
16977SOL    HW252771   0.686  13.271   2.568
16978SOL     OW52772   9.244  14.345  10.276
16978SOL    HW152773   9.235  14.329  10.182
16978SOL    HW252774   9.305  14.278  10.306
16979SOL     OW52775   7.292   6.882  11.627
16979SOL    HW152776   7.218   6.839  11.586
16979SOL    HW252777   7.266   6.974  11.632
16980SOL     OW52778  11.368  13.405   0.847
16980SOL    HW152779  11.339  13.427   0.758
16980SOL    HW252780  11.288  13.408   0.900
16981SOL     OW52781   8.999  11.844  13.365
16981SOL    HW152782   9.012  11.753  13.393
16981SOL    HW252783   9.081  11.888  13.390
16982SOL     OW52784  10.726  13.125  12.286
16982SOL    HW152785  10.662  13.190  12.314
16982SOL    HW252786  10.769  13.098  12.367
16983SOL     OW52787   0.749   8.823  14.015
16983SOL    HW152788   0.821   8.763  14.039
16983SOL    HW252789   0.672   8.784  14.057
16984SOL     OW52790  13.860   4.606   8.798
16984SOL    HW152791  13.916   4.682   8.814
16984SOL    HW252792  13.808   4.631   8.721
16985SOL     OW52793   0.415   9.979  12.799
16985SOL    HW152794   0.433   9.941  12.713
16985SOL    HW252795   0.472   9.931  12.860
16986SOL     OW52796   6.586   7.145  11.262
16986SOL    HW152797   6.585   7.227  11.213
16986SOL    HW252798   6.667   7.148  11.313
16987SOL     OW52799   4.260  12.690   4.620
16987SOL    HW152800   4.256  12.595   4.607
16987SOL    HW252801   4.333  12.703   4.680
16988SOL     OW52802   9.304   0.388   7.864
16988SOL    HW152803   9.233   0.379   7.801
16988SOL    HW252804   9.354   0.463   7.832
16989SOL     OW52805  12.490   9.141   6.904
16989SOL    HW152806  12.459   9.170   6.990
16989SOL    HW252807  12.459   9.207   6.843
16990SOL     OW52808   2.941   1.667   2.594
16990SOL    HW152809   2.937   1.589   2.539
16990SOL    HW252810   3.016   1.716   2.560
16991SOL     OW52811   6.713   6.540  10.080
16991SOL    HW152812   6.687   6.627  10.112
16991SOL    HW252813   6.656   6.479  10.126
16992SOL     OW52814  11.943  10.647   4.816
16992SOL    HW152815  11.856  10.613   4.798
16992SOL    HW252816  12.001  10.572   4.801
16993SOL     OW52817  11.993   3.948  13.387
16993SOL    HW152818  12.045   3.907  13.456
16993SOL    HW252819  11.916   3.893  13.378
16994SOL     OW52820   6.502  10.871   8.655
16994SOL    HW152821   6.592  10.850   8.683
16994SOL    HW252822   6.450  10.860   8.734
16995SOL     OW52823   5.668  14.379   2.590
16995SOL    HW152824   5.607  14.357   2.519
16995SOL    HW252825   5.621  14.357   2.670
16996SOL     OW52826  10.028   3.184  10.248
16996SOL    HW152827  10.103   3.146  10.293
16996SOL    HW252828  10.008   3.123  10.178
16997SOL     OW52829  14.293   4.369   8.853
16997SOL    HW152830  14.264   4.335   8.768
16997SOL    HW252831  14.245   4.317   8.917
16998SOL     OW52832   1.385  10.044   3.527
16998SOL    HW152833   1.448   9.973   3.525
16998SOL    HW252834   1.416  10.107   3.462
16999SOL     OW52835   4.149  12.875  10.103
16999SOL    HW152836   4.150  12.858  10.197
16999SOL    HW252837   4.201  12.955  10.092
17000SOL     OW52838  12.278  13.959   5.404
17000SOL    HW152839  12.342  13.900   5.364
17000SOL    HW252840  12.317  13.984   5.488
17001SOL     OW52841   0.989   9.483   2.767
17001SOL    HW152842   1.019   9.571   2.790
17001SOL    HW252843   0.934   9.456   2.840
17002SOL     OW52844   5.894  12.141   8.583
17002SOL    HW152845   5.905  12.229   8.548
17002SOL    HW252846   5.914  12.083   8.509
17003SOL     OW52847   6.647  14.186   0.127
17003SOL    HW152848   6.633  14.140   0.209
17003SOL    HW252849   6.648  14.118   0.060
17004SOL     OW52850  11.793   9.350   3.501
17004SOL    HW152851  11.797   9.318   3.410
17004SOL    HW252852  11.812   9.273   3.554
17005SOL     OW52853   6.979  13.162   7.615
17005SOL    HW152854   6.956  13.249   7.583
17005SOL    HW252855   6.895  13.122   7.636
17006SOL     OW52856   2.891   9.306   8.958
17006SOL    HW152857   2.865   9.331   8.869
17006SOL    HW252858   2.929   9.386   8.995
17007SOL     OW52859   8.815   6.002  10.177
17007SOL    HW152860   8.754   6.001  10.102
17007SOL    HW252861   8.892   6.048  10.144
17008SOL     OW52862  13.235  13.507   2.010
17008SOL    HW152863  13.229  13.412   2.007
17008SOL    HW252864  13.259  13.526   2.101
17009SOL     OW52865   9.813   2.173   2.548
17009SOL    HW152866   9.881   2.118   2.510
17009SOL    HW252867   9.861   2.238   2.599
17010SOL     OW52868   2.217   8.602   0.330
17010SOL    HW152869   2.265   8.685   0.333
17010SOL    HW252870   2.229   8.564   0.417
17011SOL     OW52871   8.215   2.455  13.600
17011SOL    HW152872   8.207   2.372  13.647
17011SOL    HW252873   8.188   2.434  13.510
17012SOL     OW52874   8.843   5.498   0.988
17012SOL    HW152875   8.871   5.468   0.902
17012SOL    HW252876   8.924   5.522   1.033
17013SOL     OW52877  13.922   9.653   3.121
17013SOL    HW152878  13.900   9.608   3.202
17013SOL    HW252879  14.015   9.675   3.129
17014SOL     OW52880  13.548   7.354   7.613
17014SOL    HW152881  13.571   7.279   7.558
17014SOL    HW252882  13.483   7.402   7.562
17015SOL     OW52883   9.371   6.112   8.261
17015SOL    HW152884   9.341   6.025   8.290
17015SOL    HW252885   9.452   6.127   8.310
17016SOL     OW52886  12.581   2.747  10.326
17016SOL    HW152887  12.494   2.782  10.347
17016SOL    HW252888  12.568   2.652  10.324
17017SOL     OW52889   3.168   2.486  10.067
17017SOL    HW152890   3.193   2.481   9.975
17017SOL    HW252891   3.193   2.402  10.104
17018SOL     OW52892   9.250  10.489  11.089
17018SOL    HW152893   9.188  10.442  11.033
17018SOL    HW252894   9.237  10.450  11.176
17019SOL     OW52895   8.651   1.965  14.581
17019SOL    HW152896   8.557   1.956  14.598
17019SOL    HW252897   8.666   2.059  14.576
17020SOL     OW52898  14.688   6.481  11.846
17020SOL    HW152899  14.734   6.406  11.810
17020SOL    HW252900  14.746   6.513  11.915
17021SOL     OW52901   2.758   5.249  11.368
17021SOL    HW152902   2.690   5.296  11.417
17021SOL    HW252903   2.839   5.272  11.412
17022SOL     OW52904  14.157   0.925  12.505
17022SOL    HW152905  14.062   0.937  12.512
17022SOL    HW252906  14.193   1.009  12.535
17023SOL     OW52907   5.202   0.289  10.371
17023SOL    HW152908   5.176   0.350  10.302
17023SOL    HW252909   5.280   0.245  10.337
17024SOL     OW52910   2.285  11.246  10.587
17024SOL    HW152911   2.317  11.158  10.565
17024SOL    HW252912   2.190  11.237  10.588
17025SOL     OW52913   6.242  11.566  14.301
17025SOL    HW152914   6.147  11.564  14.308
17025SOL    HW252915   6.261  11.534  14.212
17026SOL     OW52916   0.519   9.005  13.217
17026SOL    HW152917   0.568   9.081  13.183
17026SOL    HW252918   0.582   8.932  13.211
17027SOL     OW52919   6.825   7.101   4.436
17027SOL    HW152920   6.795   7.156   4.509
17027SOL    HW252921   6.892   7.044   4.475
17028SOL     OW52922  13.382  11.880   7.306
17028SOL    HW152923  13.330  11.822   7.362
17028SOL    HW252924  13.448  11.917   7.364
17029SOL     OW52925   1.967   2.743   8.772
17029SOL    HW152926   1.977   2.740   8.677
17029SOL    HW252927   2.003   2.828   8.798
17030SOL     OW52928  10.879   1.460   1.098
17030SOL    HW152929  10.827   1.389   1.136
17030SOL    HW252930  10.886   1.438   1.005
17031SOL     OW52931   2.863   5.221   0.898
17031SOL    HW152932   2.863   5.288   0.830
17031SOL    HW252933   2.907   5.146   0.858
17032SOL     OW52934   8.014   9.886   6.966
17032SOL    HW152935   7.981   9.863   6.879
17032SOL    HW252936   8.099   9.926   6.949
17033SOL     OW52937   3.138  14.808   8.295
17033SOL    HW152938   3.214  14.753   8.278
17033SOL    HW252939   3.064  14.747   8.293
17034SOL     OW52940   7.100  10.182  13.369
17034SOL    HW152941   7.036  10.193  13.300
17034SOL    HW252942   7.184  10.175  13.323
17035SOL     OW52943   7.000   2.936   6.067
17035SOL    HW152944   6.970   2.853   6.031
17035SOL    HW252945   7.033   2.914   6.154
17036SOL     OW52946  14.161   8.438   8.068
17036SOL    HW152947  14.207   8.356   8.053
17036SOL    HW252948  14.137   8.436   8.161
17037SOL     OW52949   5.100  12.626   5.461
17037SOL    HW152950   5.145  12.548   5.493
17037SOL    HW252951   5.069  12.671   5.540
17038SOL     OW52952   4.202  14.524   2.807
17038SOL    HW152953   4.116  14.565   2.795
17038SOL    HW252954   4.251  14.549   2.729
17039SOL     OW52955   1.346   8.616   9.611
17039SOL    HW152956   1.313   8.706   9.612
17039SOL    HW252957   1.269   8.562   9.626
17040SOL     OW52958   6.840   8.081   4.068
17040SOL    HW152959   6.775   8.020   4.033
17040SOL    HW252960   6.836   8.069   4.163
17041SOL     OW52961   6.498   8.447   7.205
17041SOL    HW152962   6.494   8.459   7.300
17041SOL    HW252963   6.446   8.520   7.170
17042SOL     OW52964   2.124   0.440  14.547
17042SOL    HW152965   2.118   0.498  14.470
17042SOL    HW252966   2.108   0.498  14.621
17043SOL     OW52967  10.333  10.926  13.000
17043SOL    HW152968  10.360  10.902  12.911
17043SOL    HW252969  10.269  10.996  12.987
17044SOL     OW52970  13.047  11.062   2.344
17044SOL    HW152971  13.083  11.059   2.433
17044SOL    HW252972  13.081  11.144   2.308
17045SOL     OW52973   2.724   3.818  12.380
17045SOL    HW152974   2.683   3.871  12.448
17045SOL    HW252975   2.700   3.861  12.298
17046SOL     OW52976   9.567   2.090   4.777
17046SOL    HW152977   9.651   2.058   4.810
17046SOL    HW252978   9.501   2.037   4.822
17047SOL     OW52979  14.118  10.144   0.982
17047SOL    HW152980  14.166  10.085   1.041
17047SOL    HW252981  14.046  10.090   0.948
17048SOL     OW52982  14.012   6.237   4.462
17048SOL    HW152983  13.955   6.270   4.531
17048SOL    HW252984  14.087   6.296   4.462
17049SOL     OW52985  11.361  13.982  13.524
17049SOL    HW152986  11.442  13.970  13.475
17049SOL    HW252987  11.381  14.049  13.589
17050SOL     OW52988   1.678  12.442   9.511
17050SOL    HW152989   1.669  12.403   9.598
17050SOL    HW252990   1.705  12.369   9.455
17051SOL     OW52991   8.084   4.140   2.052
17051SOL    HW152992   8.160   4.084   2.067
17051SOL    HW252993   8.010   4.093   2.091
17052SOL     OW52994   2.194  14.337   3.922
17052SOL    HW152995   2.176  14.392   3.998
17052SOL    HW252996   2.152  14.253   3.942
17053SOL     OW52997   6.210   3.129   5.739
17053SOL    HW152998   6.196   3.199   5.676
17053SOL    HW252999   6.124   3.114   5.779
17054SOL     OW53000  10.389   3.233  14.191
17054SOL    HW153001  10.345   3.153  14.221
17054SOL    HW253002  10.385   3.229  14.096
17055SOL     OW53003   0.155  14.289   1.115
17055SOL    HW153004   0.206  14.325   1.043
17055SOL    HW253005   0.142  14.362   1.174
17056SOL     OW53006   4.463  10.032   1.455
17056SOL    HW153007   4.551   9.997   1.470
17056SOL    HW253008   4.404   9.963   1.485
17057SOL     OW53009   6.131   9.430   9.195
17057SOL    HW153010   6.093   9.487   9.128
17057SOL    HW253011   6.109   9.341   9.166
17058SOL     OW53012  11.175   8.165  11.708
17058SOL    HW153013  11.241   8.182  11.641
17058SOL    HW253014  11.225   8.154  11.789
17059SOL     OW53015   7.811   1.456   0.249
17059SOL    HW153016   7.823   1.406   0.168
17059SOL    HW253017   7.749   1.404   0.300
17060SOL     OW53018  12.727   2.036  13.665
17060SOL    HW153019  12.664   2.098  13.703
17060SOL    HW253020  12.772   1.998  13.741
17061SOL     OW53021   5.399   1.526  13.645
17061SOL    HW153022   5.421   1.457  13.708
17061SOL    HW253023   5.303   1.523  13.640
17062SOL     OW53024   5.391   4.005  13.806
17062SOL    HW153025   5.472   4.041  13.841
17062SOL    HW253026   5.349   4.078  13.761
17063SOL     OW53027  11.007   9.975   3.813
17063SOL    HW153028  11.061   9.922   3.871
17063SOL    HW253029  11.004  10.062   3.855
17064SOL     OW53030  12.391   1.797   4.708
17064SOL    HW153031  12.363   1.859   4.641
17064SOL    HW253032  12.358   1.833   4.790
17065SOL     OW53033   9.779   3.255   3.887
17065SOL    HW153034   9.842   3.187   3.912
17065SOL    HW253035   9.798   3.328   3.945
17066SOL     OW53036   3.504   3.465   4.753
17066SOL    HW153037   3.569   3.533   4.770
17066SOL    HW253038   3.504   3.454   4.658
17067SOL     OW53039  10.410   3.070   3.029
17067SOL    HW153040  10.471   3.013   3.076
17067SOL    HW253041  10.433   3.158   3.056
17068SOL     OW53042   6.715  12.530   0.095
17068SOL    HW153043   6.729  12.625   0.088
17068SOL    HW253044   6.762  12.505   0.174
17069SOL     OW53045   6.153   7.953   6.881
17069SOL    HW153046   6.086   7.900   6.838
17069SOL    HW253047   6.233   7.903   6.870
17070SOL     OW53048  14.354   8.256   1.275
17070SOL    HW153049  14.405   8.322   1.321
17070SOL    HW253050  14.412   8.180   1.270
17071SOL     OW53051   5.171   6.810   9.091
17071SOL    HW153052   5.119   6.878   9.048
17071SOL    HW253053   5.111   6.735   9.097
17072SOL     OW53054   5.886   3.071  11.418
17072SOL    HW153055   5.959   3.116  11.460
17072SOL    HW253056   5.834   3.037  11.491
17073SOL     OW53057   5.317   0.226  14.665
17073SOL    HW153058   5.386   0.283  14.632
17073SOL    HW253059   5.306   0.160  14.596
17074SOL     OW53060   7.211   5.393  12.371
17074SOL    HW153061   7.292   5.408  12.322
17074SOL    HW253062   7.158   5.471  12.356
17075SOL     OW53063  12.638   3.444   3.837
17075SOL    HW153064  12.676   3.469   3.921
17075SOL    HW253065  12.645   3.523   3.783
17076SOL     OW53066   5.585   1.472   4.558
17076SOL    HW153067   5.643   1.412   4.604
17076SOL    HW253068   5.635   1.554   4.552
17077SOL     OW53069  12.806  10.263   2.012
17077SOL    HW153070  12.779  10.227   2.097
17077SOL    HW253071  12.724  10.287   1.969
17078SOL     OW53072   3.829   9.787   0.316
17078SOL    HW153073   3.791   9.827   0.393
17078SOL    HW253074   3.887   9.854   0.280
17079SOL     OW53075   8.777   9.261  10.269
17079SOL    HW153076   8.755   9.229  10.356
17079SOL    HW253077   8.695   9.253  10.219
17080SOL     OW53078   6.861  10.099   1.150
17080SOL    HW153079   6.865  10.087   1.055
17080SOL    HW253080   6.873  10.193   1.162
17081SOL     OW53081   8.917   8.835  12.685
17081SOL    HW153082   8.831   8.877  12.676
17081SOL    HW253083   8.957   8.879  12.760
17082SOL     OW53084   7.929   7.426  11.270
17082SOL    HW153085   7.859   7.395  11.327
17082SOL    HW253086   7.911   7.519  11.258
17083SOL     OW53087  10.731   3.113   0.910
17083SOL    HW153088  10.765   3.030   0.944
17083SOL    HW253089  10.763   3.179   0.972
17084SOL     OW53090   8.186  10.395  13.640
17084SOL    HW153091   8.200  10.334  13.713
17084SOL    HW253092   8.118  10.353  13.587
17085SOL     OW53093   5.969  10.836   9.310
17085SOL    HW153094   5.986  10.843   9.216
17085SOL    HW253095   6.056  10.831   9.350
17086SOL     OW53096  14.372   7.398   6.038
17086SOL    HW153097  14.365   7.464   6.107
17086SOL    HW253098  14.458   7.358   6.053
17087SOL     OW53099   5.753  10.226   0.018
17087SOL    HW153100   5.708  10.186  14.826
17087SOL    HW253101   5.819  10.161   0.044
17088SOL     OW53102   5.100  13.100   8.530
17088SOL    HW153103   5.109  13.194   8.514
17088SOL    HW253104   5.190  13.068   8.534
17089SOL     OW53105   1.405  13.153   6.870
17089SOL    HW153106   1.433  13.063   6.886
17089SOL    HW253107   1.469  13.188   6.808
17090SOL     OW53108   0.141   2.137   3.201
17090SOL    HW153109   0.061   2.190   3.207
17090SOL    HW253110   0.109   2.046   3.200
17091SOL     OW53111   2.183   0.033  10.403
17091SOL    HW153112   2.189   0.013  10.310
17091SOL    HW253113   2.267   0.003  10.439
17092SOL     OW53114  13.780   3.243  11.109
17092SOL    HW153115  13.773   3.296  11.030
17092SOL    HW253116  13.846   3.177  11.088
17093SOL     OW53117  12.970  14.353   3.253
17093SOL    HW153118  12.937  14.263   3.249
17093SOL    HW253119  12.949  14.382   3.342
17094SOL     OW53120   3.937   0.081   0.808
17094SOL    HW153121   3.936   0.159   0.863
17094SOL    HW253122   3.995   0.020   0.853
17095SOL     OW53123   5.321   3.308   7.222
17095SOL    HW153124   5.327   3.234   7.162
17095SOL    HW253125   5.248   3.360   7.189
17096SOL     OW53126  14.047   8.938   8.628
17096SOL    HW153127  14.122   8.992   8.603
17096SOL    HW253128  13.999   8.991   8.692
17097SOL     OW53129   2.469   5.495  13.647
17097SOL    HW153130   2.520   5.450  13.714
17097SOL    HW253131   2.502   5.585  13.647
17098SOL     OW53132   0.059   9.837   1.264
17098SOL    HW153133   0.037   9.927   1.289
17098SOL    HW253134   0.049   9.786   1.345
17099SOL     OW53135   2.399   9.774  12.139
17099SOL    HW153136   2.366   9.852  12.095
17099SOL    HW253137   2.335   9.706  12.119
17100SOL     OW53138   0.727   8.780  12.618
17100SOL    HW153139   0.794   8.742  12.562
17100SOL    HW253140   0.672   8.707  12.644
17101SOL     OW53141   5.820  11.610   1.543
17101SOL    HW153142   5.844  11.674   1.610
17101SOL    HW253143   5.725  11.617   1.536
17102SOL     OW53144   2.020   1.945   4.082
17102SOL    HW153145   1.929   1.919   4.074
17102SOL    HW253146   2.037   1.949   4.176
17103SOL     OW53147   9.277   0.871   1.790
17103SOL    HW153148   9.322   0.854   1.708
17103SOL    HW253149   9.331   0.828   1.857
17104SOL     OW53150   3.508   1.389   4.578
17104SOL    HW153151   3.416   1.408   4.597
17104SOL    HW253152   3.522   1.426   4.491
17105SOL     OW53153   5.799   4.475  13.039
17105SOL    HW153154   5.847   4.558  13.031
17105SOL    HW253155   5.867   4.408  13.030
17106SOL     OW53156   9.370   9.161   4.743
17106SOL    HW153157   9.323   9.122   4.817
17106SOL    HW253158   9.393   9.249   4.774
17107SOL     OW53159  12.477   3.898   0.279
17107SOL    HW153160  12.396   3.935   0.316
17107SOL    HW253161  12.450   3.815   0.240
17108SOL     OW53162   7.397   5.383   7.038
17108SOL    HW153163   7.413   5.295   7.005
17108SOL    HW253164   7.360   5.370   7.125
17109SOL     OW53165  14.836   4.616   9.843
17109SOL    HW153166  14.752   4.611   9.889
17109SOL    HW253167   0.012   4.660   9.905
17110SOL     OW53168   0.902   5.094   9.269
17110SOL    HW153169   0.844   5.157   9.227
17110SOL    HW253170   0.990   5.125   9.249
17111SOL     OW53171   6.021  12.981   8.686
17111SOL    HW153172   5.941  12.929   8.674
17111SOL    HW253173   6.025  12.998   8.780
17112SOL     OW53174  12.056  11.216   0.245
17112SOL    HW153175  11.972  11.235   0.204
17112SOL    HW253176  12.086  11.136   0.201
17113SOL     OW53177  14.548   0.428  14.797
17113SOL    HW153178  14.629   0.475  14.814
17113SOL    HW253179  14.564   0.339  14.828
17114SOL     OW53180   3.459  11.488   8.641
17114SOL    HW153181   3.551  11.498   8.617
17114SOL    HW253182   3.413  11.555   8.591
17115SOL     OW53183  14.435   9.288   4.368
17115SOL    HW153184  14.425   9.383   4.379
17115SOL    HW253185  14.438   9.254   4.458
17116SOL     OW53186   0.481   7.949   2.328
17116SOL    HW153187   0.513   7.900   2.252
17116SOL    HW253188   0.530   7.913   2.402
17117SOL     OW53189   1.917   9.281  14.747
17117SOL    HW153190   1.983   9.348  14.727
17117SOL    HW253191   1.956   9.199  14.716
17118SOL     OW53192  10.295   0.659  10.714
17118SOL    HW153193  10.276   0.568  10.736
17118SOL    HW253194  10.345   0.653  10.633
17119SOL     OW53195   4.754  11.144   0.399
17119SOL    HW153196   4.671  11.129   0.353
17119SOL    HW253197   4.764  11.239   0.400
17120SOL     OW53198  11.176  11.126   4.839
17120SOL    HW153199  11.128  11.045   4.854
17120SOL    HW253200  11.234  11.106   4.766
17121SOL     OW53201   6.640   0.952  12.536
17121SOL    HW153202   6.585   1.017  12.579
17121SOL    HW253203   6.582   0.909  12.473
17122SOL     OW53204   3.567   5.594   0.895
17122SOL    HW153205   3.638   5.539   0.862
17122SOL    HW253206   3.556   5.566   0.986
17123SOL     OW53207   7.406   9.037   7.301
17123SOL    HW153208   7.333   9.019   7.242
17123SOL    HW253209   7.366   9.055   7.385
17124SOL     OW53210   9.712   5.989   4.640
17124SOL    HW153211   9.674   5.903   4.625
17124SOL    HW253212   9.639   6.044   4.669
17125SOL     OW53213  13.739   5.683  10.878
17125SOL    HW153214  13.802   5.611  10.884
17125SOL    HW253215  13.694   5.669  10.795
17126SOL     OW53216   5.624  12.377  10.677
17126SOL    HW153217   5.618  12.347  10.586
17126SOL    HW253218   5.540  12.353  10.716
17127SOL     OW53219   3.710  14.181   8.941
17127SOL    HW153220   3.719  14.087   8.922
17127SOL    HW253221   3.768  14.223   8.877
17128SOL     OW53222   4.250   2.551   2.347
17128SOL    HW153223   4.195   2.623   2.318
17128SOL    HW253224   4.191   2.475   2.350
17129SOL     OW53225   5.860  13.057   9.175
17129SOL    HW153226   5.846  13.148   9.202
17129SOL    HW253227   5.933  13.027   9.229
17130SOL     OW53228   2.705   3.990  13.696
17130SOL    HW153229   2.755   3.911  13.678
17130SOL    HW253230   2.767   4.062  13.682
17131SOL     OW53231   8.831  12.381  14.122
17131SOL    HW153232   8.925  12.394  14.128
17131SOL    HW253233   8.803  12.437  14.050
17132SOL     OW53234   1.675  10.057   6.479
17132SOL    HW153235   1.632  10.001   6.543
17132SOL    HW253236   1.766  10.063   6.510
17133SOL     OW53237  12.906   6.149  13.704
17133SOL    HW153238  12.974   6.197  13.656
17133SOL    HW253239  12.841   6.127  13.637
17134SOL     OW53240   4.188  13.987  12.274
17134SOL    HW153241   4.232  14.058  12.320
17134SOL    HW253242   4.183  14.016  12.183
17135SOL     OW53243  14.037   9.426   6.709
17135SOL    HW153244  13.999   9.365   6.646
17135SOL    HW253245  14.013   9.389   6.794
17136SOL     OW53246   1.252  13.788   4.656
17136SOL    HW153247   1.175  13.747   4.696
17136SOL    HW253248   1.321  13.778   4.722
17137SOL     OW53249  11.439   5.621   5.971
17137SOL    HW153250  11.450   5.710   6.006
17137SOL    HW253251  11.497   5.617   5.896
17138SOL     OW53252  13.479  13.325   0.568
17138SOL    HW153253  13.464  13.233   0.588
17138SOL    HW253254  13.487  13.367   0.654
17139SOL     OW53255   7.466   7.699   5.780
17139SOL    HW153256   7.495   7.753   5.854
17139SOL    HW253257   7.426   7.623   5.821
17140SOL     OW53258   3.981  14.066  13.072
17140SOL    HW153259   3.932  14.098  12.996
17140SOL    HW253260   4.061  14.117  13.073
17141SOL     OW53261   9.757   0.231  13.260
17141SOL    HW153262   9.740   0.308  13.314
17141SOL    HW253263   9.831   0.188  13.302
17142SOL     OW53264  11.228   3.885   3.887
17142SOL    HW153265  11.183   3.942   3.950
17142SOL    HW253266  11.301   3.848   3.935
17143SOL     OW53267   2.837   2.482   0.882
17143SOL    HW153268   2.769   2.520   0.937
17143SOL    HW253269   2.789   2.443   0.808
17144SOL     OW53270   5.078   8.912   1.844
17144SOL    HW153271   5.077   8.817   1.846
17144SOL    HW253272   5.171   8.935   1.856
17145SOL     OW53273  14.457   7.252  10.709
17145SOL    HW153274  14.538   7.212  10.676
17145SOL    HW253275  14.387   7.207  10.663
17146SOL     OW53276   7.080  14.189   1.932
17146SOL    HW153277   7.101  14.098   1.913
17146SOL    HW253278   7.008  14.210   1.872
17147SOL     OW53279  11.998   4.309   9.427
17147SOL    HW153280  12.040   4.287   9.510
17147SOL    HW253281  11.930   4.243   9.416
17148SOL     OW53282   4.082   0.455  11.835
17148SOL    HW153283   4.031   0.465  11.754
17148SOL    HW253284   4.019   0.419  11.898
17149SOL     OW53285   0.078   3.452  11.500
17149SOL    HW153286   0.091   3.380  11.561
17149SOL    HW253287   0.139   3.520  11.530
17150SOL     OW53288   4.392   2.490  11.006
17150SOL    HW153289   4.316   2.483  11.065
17150SOL    HW253290   4.406   2.584  10.998
17151SOL     OW53291   6.435   0.124   8.390
17151SOL    HW153292   6.530   0.112   8.392
17151SOL    HW253293   6.424   0.219   8.386
17152SOL     OW53294   4.724   1.904   8.810
17152SOL    HW153295   4.785   1.902   8.884
17152SOL    HW253296   4.638   1.916   8.851
17153SOL     OW53297   2.030   2.517  11.766
17153SOL    HW153298   1.977   2.565  11.829
17153SOL    HW253299   1.969   2.497  11.694
17154SOL     OW53300   1.033   7.281   6.225
17154SOL    HW153301   1.002   7.330   6.301
17154SOL    HW253302   0.980   7.201   6.225
17155SOL     OW53303  14.743   7.679   3.640
17155SOL    HW153304  14.699   7.724   3.568
17155SOL    HW253305  14.727   7.586   3.623
17156SOL     OW53306   7.132  10.573  14.619
17156SOL    HW153307   7.173  10.497  14.578
17156SOL    HW253308   7.085  10.538  14.694
17157SOL     OW53309   8.630  11.383  10.112
17157SOL    HW153310   8.551  11.395  10.060
17157SOL    HW253311   8.674  11.468  10.109
17158SOL     OW53312   4.225   6.239   6.263
17158SOL    HW153313   4.190   6.328   6.259
17158SOL    HW253314   4.173   6.195   6.330
17159SOL     OW53315   3.435  12.334   9.898
17159SOL    HW153316   3.443  12.274   9.973
17159SOL    HW253317   3.522  12.337   9.860
17160SOL     OW53318   3.675   0.160  14.696
17160SOL    HW153319   3.607   0.093  14.688
17160SOL    HW253320   3.746   0.117  14.742
17161SOL     OW53321   0.292  14.374   4.966
17161SOL    HW153322   0.254  14.291   4.995
17161SOL    HW253323   0.339  14.351   4.885
17162SOL     OW53324   6.435  13.051  13.009
17162SOL    HW153325   6.395  13.127  12.966
17162SOL    HW253326   6.361  13.008  13.053
17163SOL     OW53327   0.778   0.065   4.896
17163SOL    HW153328   0.694   0.018   4.901
17163SOL    HW253329   0.839   0.001   4.859
17164SOL     OW53330   5.466   5.671   8.379
17164SOL    HW153331   5.498   5.674   8.289
17164SOL    HW253332   5.489   5.583   8.409
17165SOL     OW53333   5.094   5.887  14.167
17165SOL    HW153334   5.121   5.913  14.079
17165SOL    HW253335   5.035   5.813  14.153
17166SOL     OW53336  14.156   8.191   6.709
17166SOL    HW153337  14.145   8.256   6.639
17166SOL    HW253338  14.112   8.230   6.785
17167SOL     OW53339   7.629  11.048   0.059
17167SOL    HW153340   7.566  11.046  14.868
17167SOL    HW253341   7.712  11.075   0.018
17168SOL     OW53342   3.374   0.751  10.238
17168SOL    HW153343   3.388   0.844  10.222
17168SOL    HW253344   3.371   0.711  10.151
17169SOL     OW53345   3.942  14.044   3.525
17169SOL    HW153346   3.966  14.135   3.505
17169SOL    HW253347   3.944  14.000   3.440
17170SOL     OW53348  14.238   7.777   2.149
17170SOL    HW153349  14.244   7.857   2.202
17170SOL    HW253350  14.311   7.723   2.179
17171SOL     OW53351   9.611   3.321   0.810
17171SOL    HW153352   9.628   3.303   0.902
17171SOL    HW253353   9.549   3.394   0.810
17172SOL     OW53354  12.586   3.873  13.078
17172SOL    HW153355  12.525   3.885  13.150
17172SOL    HW253356  12.531   3.840  13.006
17173SOL     OW53357   4.974   0.433   5.551
17173SOL    HW153358   5.030   0.438   5.628
17173SOL    HW253359   4.948   0.523   5.533
17174SOL     OW53360  11.388  12.088   0.918
17174SOL    HW153361  11.326  12.158   0.896
17174SOL    HW253362  11.465  12.133   0.952
17175SOL     OW53363   2.150   5.249   5.932
17175SOL    HW153364   2.165   5.155   5.935
17175SOL    HW253365   2.238   5.288   5.930
17176SOL     OW53366  14.393   8.522   0.586
17176SOL    HW153367  14.480   8.485   0.597
17176SOL    HW253368  14.405   8.617   0.597
17177SOL     OW53369  14.561   9.833  10.412
17177SOL    HW153370  14.529   9.773  10.479
17177SOL    HW253371  14.504   9.909  10.419
17178SOL     OW53372  14.349  10.983   0.987
17178SOL    HW153373  14.344  10.912   1.051
17178SOL    HW253374  14.273  11.038   1.007
17179SOL     OW53375   3.725  14.526   7.718
17179SOL    HW153376   3.636  14.562   7.708
17179SOL    HW253377   3.733  14.462   7.648
17180SOL     OW53378   6.854   9.934   4.141
17180SOL    HW153379   6.791   9.939   4.070
17180SOL    HW253380   6.809   9.883   4.209
17181SOL     OW53381   0.388   6.710   1.911
17181SOL    HW153382   0.389   6.790   1.963
17181SOL    HW253383   0.451   6.652   1.955
17182SOL     OW53384   2.885   3.004   2.325
17182SOL    HW153385   2.838   2.980   2.404
17182SOL    HW253386   2.839   2.958   2.254
17183SOL     OW53387  14.163  11.542  12.192
17183SOL    HW153388  14.206  11.602  12.253
17183SOL    HW253389  14.092  11.503  12.244
17184SOL     OW53390   2.610   6.006  11.579
17184SOL    HW153391   2.611   6.047  11.493
17184SOL    HW253392   2.554   5.929  11.568
17185SOL     OW53393   2.143  10.627   2.321
17185SOL    HW153394   2.139  10.547   2.374
17185SOL    HW253395   2.115  10.599   2.234
17186SOL     OW53396   0.564  14.671  13.198
17186SOL    HW153397   0.579  14.595  13.256
17186SOL    HW253398   0.528  14.633  13.118
17187SOL     OW53399   4.944  14.638  12.660
17187SOL    HW153400   4.893  14.686  12.725
17187SOL    HW253401   5.034  14.640  12.694
17188SOL     OW53402   0.182   9.398  12.370
17188SOL    HW153403   0.217   9.309  12.366
17188SOL    HW253404   0.245   9.446  12.423
17189SOL     OW53405  12.742  10.655   4.916
17189SOL    HW153406  12.719  10.567   4.886
17189SOL    HW253407  12.681  10.713   4.869
17190SOL     OW53408   2.053   5.358  10.673
17190SOL    HW153409   2.137   5.359  10.627
17190SOL    HW253410   2.070   5.305  10.751
17191SOL     OW53411   3.586  14.768   2.372
17191SOL    HW153412   3.627  14.689   2.406
17191SOL    HW253413   3.547  14.811   2.448
17192SOL     OW53414  11.932   3.549   2.305
17192SOL    HW153415  11.918   3.643   2.314
17192SOL    HW253416  11.852   3.509   2.339
17193SOL     OW53417  11.471   2.348   9.345
17193SOL    HW153418  11.519   2.342   9.428
17193SOL    HW253419  11.411   2.273   9.347
17194SOL     OW53420  10.852   1.475   4.010
17194SOL    HW153421  10.901   1.555   4.032
17194SOL    HW253422  10.902   1.405   4.051
17195SOL     OW53423   8.721  14.654   2.385
17195SOL    HW153424   8.684  14.703   2.459
17195SOL    HW253425   8.813  14.680   2.382
17196SOL     OW53426   8.249  11.475   2.584
17196SOL    HW153427   8.161  11.455   2.617
17196SOL    HW253428   8.276  11.553   2.633
17197SOL     OW53429   8.219  14.746   3.635
17197SOL    HW153430   8.248  14.835   3.657
17197SOL    HW253431   8.128  14.743   3.666
17198SOL     OW53432   8.243   9.043   3.661
17198SOL    HW153433   8.301   9.101   3.612
17198SOL    HW253434   8.301   8.986   3.711
17199SOL     OW53435   7.377  12.416   5.929
17199SOL    HW153436   7.396  12.490   5.872
17199SOL    HW253437   7.435  12.346   5.898
17200SOL     OW53438   9.652   8.940  13.940
17200SOL    HW153439   9.659   8.926  13.846
17200SOL    HW253440   9.717   9.008  13.959
17201SOL     OW53441  12.940   4.733   6.627
17201SOL    HW153442  12.857   4.778   6.642
17201SOL    HW253443  12.965   4.700   6.713
17202SOL     OW53444   2.585  12.663  13.696
17202SOL    HW153445   2.574  12.758  13.700
17202SOL    HW253446   2.656  12.644  13.758
17203SOL     OW53447  13.736   3.550   5.813
17203SOL    HW153448  13.821   3.586   5.784
17203SOL    HW253449  13.759   3.473   5.865
17204SOL     OW53450  14.679   2.857   3.948
17204SOL    HW153451  14.589   2.872   3.916
17204SOL    HW253452  14.734   2.906   3.887
17205SOL     OW53453   5.321   8.653   9.043
17205SOL    HW153454   5.290   8.598   8.971
17205SOL    HW253455   5.378   8.718   9.001
17206SOL     OW53456  12.586  11.792   1.660
17206SOL    HW153457  12.580  11.854   1.732
17206SOL    HW253458  12.498  11.756   1.651
17207SOL     OW53459   5.454   1.909   6.245
17207SOL    HW153460   5.404   1.895   6.324
17207SOL    HW253461   5.536   1.949   6.275
17208SOL     OW53462   0.265   5.985   3.384
17208SOL    HW153463   0.218   6.066   3.404
17208SOL    HW253464   0.333   6.011   3.323
17209SOL     OW53465   5.376  14.701   3.730
17209SOL    HW153466   5.368  14.685   3.824
17209SOL    HW253467   5.430  14.780   3.723
17210SOL     OW53468   0.489  11.224   7.783
17210SOL    HW153469   0.428  11.256   7.717
17210SOL    HW253470   0.463  11.133   7.799
17211SOL     OW53471   6.038   4.391  14.131
17211SOL    HW153472   6.133   4.403  14.138
17211SOL    HW253473   6.003   4.434  14.209
17212SOL     OW53474   5.044  11.523   6.109
17212SOL    HW153475   5.122  11.562   6.149
17212SOL    HW253476   4.972  11.545   6.168
17213SOL     OW53477   5.191  14.555   7.309
17213SOL    HW153478   5.186  14.577   7.216
17213SOL    HW253479   5.150  14.469   7.316
17214SOL     OW53480  12.631   0.484   2.912
17214SOL    HW153481  12.683   0.468   2.833
17214SOL    HW253482  12.551   0.433   2.899
17215SOL     OW53483   2.127   6.904   7.780
17215SOL    HW153484   2.066   6.943   7.718
17215SOL    HW253485   2.190   6.974   7.799
17216SOL     OW53486  10.556   7.621  14.079
17216SOL    HW153487  10.487   7.686  14.094
17216SOL    HW253488  10.557   7.607  13.985
17217SOL     OW53489   4.021   3.762   7.570
17217SOL    HW153490   4.081   3.837   7.571
17217SOL    HW253491   3.934   3.801   7.580
17218SOL     OW53492   0.088   9.435   7.760
17218SOL    HW153493   0.143   9.361   7.785
17218SOL    HW253494   0.146   9.511   7.764
17219SOL     OW53495   5.450  11.163   4.066
17219SOL    HW153496   5.477  11.235   4.008
17219SOL    HW253497   5.400  11.206   4.136
17220SOL     OW53498  10.920  12.284  10.774
17220SOL    HW153499  10.922  12.228  10.696
17220SOL    HW253500  10.866  12.235  10.837
17221SOL     OW53501   2.422  14.216  12.590
17221SOL    HW153502   2.378  14.158  12.528
17221SOL    HW253503   2.429  14.165  12.670
17222SOL     OW53504  12.121   4.870   5.705
17222SOL    HW153505  12.193   4.901   5.760
17222SOL    HW253506  12.113   4.935   5.636
17223SOL     OW53507  12.281   6.256   2.450
17223SOL    HW153508  12.353   6.230   2.394
17223SOL    HW253509  12.310   6.232   2.539
17224SOL     OW53510   5.818   6.551   6.830
17224SOL    HW153511   5.820   6.587   6.919
17224SOL    HW253512   5.894   6.590   6.787
17225SOL     OW53513  14.861  13.186   0.459
17225SOL    HW153514   0.020  13.132   0.526
17225SOL    HW253515  14.772  13.201   0.490
17226SOL     OW53516   0.994  11.646   2.051
17226SOL    HW153517   1.055  11.573   2.040
17226SOL    HW253518   1.021  11.710   1.985
17227SOL     OW53519   0.825  11.475   6.790
17227SOL    HW153520   0.891  11.407   6.804
17227SOL    HW253521   0.846  11.542   6.855
17228SOL     OW53522   5.017   3.023   8.903
17228SOL    HW153523   5.101   3.001   8.942
17228SOL    HW253524   5.017   3.118   8.897
17229SOL     OW53525   5.859  11.133  10.715
17229SOL    HW153526   5.893  11.220  10.731
17229SOL    HW253527   5.777  11.129  10.764
17230SOL     OW53528  11.048  10.886   7.085
17230SOL    HW153529  11.039  10.947   7.158
17230SOL    HW253530  11.143  10.877   7.073
17231SOL     OW53531   5.248   9.139   5.678
17231SOL    HW153532   5.322   9.194   5.653
17231SOL    HW253533   5.190   9.198   5.727
17232SOL     OW53534   0.188  10.662  10.483
17232SOL    HW153535   0.258  10.681  10.420
17232SOL    HW253536   0.107  10.672  10.433
17233SOL     OW53537   1.070   9.248  11.729
17233SOL    HW153538   1.091   9.238  11.822
17233SOL    HW253539   1.155   9.243  11.685
17234SOL     OW53540  12.106   9.324   8.816
17234SOL    HW153541  12.058   9.272   8.879
17234SOL    HW253542  12.162   9.260   8.770
17235SOL     OW53543   7.515   7.535   6.565
17235SOL    HW153544   7.449   7.470   6.588
17235SOL    HW253545   7.508   7.544   6.471
17236SOL     OW53546   4.826   6.785   8.582
17236SOL    HW153547   4.898   6.724   8.566
17236SOL    HW253548   4.821   6.793   8.677
17237SOL     OW53549  13.244   0.766  10.731
17237SOL    HW153550  13.154   0.778  10.762
17237SOL    HW253551  13.281   0.702  10.791
17238SOL     OW53552  14.112   9.590   1.220
17238SOL    HW153553  14.202   9.574   1.190
17238SOL    HW253554  14.086   9.670   1.175
17239SOL     OW53555   7.878   5.649   8.450
17239SOL    HW153556   7.863   5.716   8.383
17239SOL    HW253557   7.798   5.649   8.502
17240SOL     OW53558  14.878   1.647  11.191
17240SOL    HW153559   0.082   1.668  11.229
17240SOL    HW253560  14.879   1.691  11.106
17241SOL     OW53561   2.356  12.695   6.068
17241SOL    HW153562   2.390  12.714   6.156
17241SOL    HW253563   2.288  12.629   6.083
17242SOL     OW53564   4.711   7.590   4.317
17242SOL    HW153565   4.716   7.525   4.387
17242SOL    HW253566   4.799   7.628   4.314
17243SOL     OW53567   1.437  12.835   1.809
17243SOL    HW153568   1.449  12.841   1.714
17243SOL    HW253569   1.493  12.904   1.845
17244SOL     OW53570   0.951   7.082   4.575
17244SOL    HW153571   0.980   7.110   4.488
17244SOL    HW253572   1.012   7.012   4.599
17245SOL     OW53573   7.083  14.761   6.370
17245SOL    HW153574   7.076  14.854   6.350
17245SOL    HW253575   7.067  14.755   6.465
17246SOL     OW53576  12.591   6.864   4.503
17246SOL    HW153577  12.678   6.903   4.501
17246SOL    HW253578  12.606   6.771   4.490
17247SOL     OW53579  13.722  12.645   4.264
17247SOL    HW153580  13.729  12.728   4.311
17247SOL    HW253581  13.650  12.599   4.306
17248SOL     OW53582   6.407   4.317  14.549
17248SOL    HW153583   6.475   4.326  14.481
17248SOL    HW253584   6.370   4.230  14.534
17249SOL     OW53585  14.081   7.366   2.646
17249SOL    HW153586  14.024   7.412   2.707
17249SOL    HW253587  14.122   7.297   2.698
17250SOL     OW53588   2.496  12.115   6.433
17250SOL    HW153589   2.550  12.131   6.510
17250SOL    HW253590   2.554  12.132   6.359
17251SOL     OW53591   5.781   2.028  14.847
17251SOL    HW153592   5.832   1.977   0.028
17251SOL    HW253593   5.773   2.114   0.004
17252SOL     OW53594  10.121   2.850   8.722
17252SOL    HW153595  10.079   2.821   8.642
17252SOL    HW253596  10.211   2.870   8.697
17253SOL     OW53597   0.388   7.172   5.201
17253SOL    HW153598   0.352   7.174   5.112
17253SOL    HW253599   0.389   7.079   5.224
17254SOL     OW53600  12.341   2.786   8.685
17254SOL    HW153601  12.434   2.806   8.700
17254SOL    HW253602  12.299   2.871   8.674
17255SOL     OW53603   9.293  12.646   0.257
17255SOL    HW153604   9.351  12.586   0.211
17255SOL    HW253605   9.235  12.590   0.308
17256SOL     OW53606   5.558   7.797  11.089
17256SOL    HW153607   5.527   7.888  11.078
17256SOL    HW253608   5.495   7.745  11.039
17257SOL     OW53609   3.968   3.640   6.545
17257SOL    HW153610   4.059   3.622   6.571
17257SOL    HW253611   3.921   3.653   6.627
17258SOL     OW53612  10.996   2.977   7.190
17258SOL    HW153613  10.924   3.039   7.191
17258SOL    HW253614  11.023   2.974   7.098
17259SOL     OW53615   7.999  12.735  12.402
17259SOL    HW153616   7.983  12.644  12.429
17259SOL    HW253617   7.964  12.788  12.473
17260SOL     OW53618   6.043   1.436   0.407
17260SOL    HW153619   6.018   1.353   0.366
17260SOL    HW253620   6.070   1.492   0.334
17261SOL     OW53621   0.166  13.439   8.044
17261SOL    HW153622   0.073  13.460   8.043
17261SOL    HW253623   0.186  13.423   8.136
17262SOL     OW53624  13.973   9.014   0.413
17262SOL    HW153625  13.961   9.099   0.370
17262SOL    HW253626  14.029   9.033   0.488
17263SOL     OW53627   3.969   2.997   1.028
17263SOL    HW153628   3.939   2.917   0.984
17263SOL    HW253629   3.918   3.000   1.109
17264SOL     OW53630   0.549   4.343  14.332
17264SOL    HW153631   0.475   4.390  14.369
17264SOL    HW253632   0.516   4.255  14.314
17265SOL     OW53633   2.420   3.721   7.429
17265SOL    HW153634   2.463   3.730   7.344
17265SOL    HW253635   2.430   3.629   7.452
17266SOL     OW53636   1.976   9.309   9.755
17266SOL    HW153637   2.000   9.296   9.847
17266SOL    HW253638   1.902   9.250   9.741
17267SOL     OW53639  13.482   3.329   2.274
17267SOL    HW153640  13.387   3.319   2.262
17267SOL    HW253641  13.501   3.418   2.245
17268SOL     OW53642  10.903   6.067   6.993
17268SOL    HW153643  10.927   5.979   6.966
17268SOL    HW253644  10.984   6.104   7.029
17269SOL     OW53645   5.565   6.595   5.188
17269SOL    HW153646   5.566   6.500   5.175
17269SOL    HW253647   5.526   6.607   5.274
17270SOL     OW53648   6.333   8.726  10.433
17270SOL    HW153649   6.283   8.779  10.495
17270SOL    HW253650   6.309   8.760  10.347
17271SOL     OW53651  14.543   2.682   9.186
17271SOL    HW153652  14.620   2.625   9.182
17271SOL    HW253653  14.530   2.698   9.279
17272SOL     OW53654   0.492   9.094  13.531
17272SOL    HW153655   0.400   9.117  13.540
17272SOL    HW253656   0.501   9.064  13.440
17273SOL     OW53657  14.512   1.004  14.804
17273SOL    HW153658  14.577   1.044  14.746
17273SOL    HW253659  14.433   1.056  14.791
17274SOL     OW53660  11.685   7.111   5.702
17274SOL    HW153661  11.762   7.072   5.744
17274SOL    HW253662  11.614   7.049   5.720
17275SOL     OW53663   6.856   8.322  12.288
17275SOL    HW153664   6.915   8.286  12.355
17275SOL    HW253665   6.793   8.252  12.272
17276SOL     OW53666   9.291   5.253  10.621
17276SOL    HW153667   9.214   5.262  10.678
17276SOL    HW253668   9.359   5.217  10.678
17277SOL     OW53669   4.812  11.228   9.809
17277SOL    HW153670   4.874  11.297   9.788
17277SOL    HW253671   4.824  11.162   9.741
17278SOL     OW53672   7.999  13.206  10.946
17278SOL    HW153673   8.032  13.137  11.004
17278SOL    HW253674   7.941  13.258  11.001
17279SOL     OW53675  14.674  14.352   5.297
17279SOL    HW153676  14.613  14.349   5.370
17279SOL    HW253677  14.750  14.301   5.327
17280SOL     OW53678   1.944  12.027  10.676
17280SOL    HW153679   1.992  11.944  10.675
17280SOL    HW253680   1.995  12.084  10.734
17281SOL     OW53681  11.686   6.639   3.702
17281SOL    HW153682  11.657   6.646   3.793
17281SOL    HW253683  11.681   6.728   3.668
17282SOL     OW53684   9.433   1.885   9.071
17282SOL    HW153685   9.496   1.877   9.142
17282SOL    HW253686   9.405   1.976   9.073
17283SOL     OW53687  14.278   4.888   3.372
17283SOL    HW153688  14.251   4.949   3.441
17283SOL    HW253689  14.297   4.807   3.419
17284SOL     OW53690  13.945   1.619  14.125
17284SOL    HW153691  13.959   1.621  14.030
17284SOL    HW253692  13.979   1.534  14.152
17285SOL     OW53693   6.272   3.372   1.418
17285SOL    HW153694   6.284   3.425   1.339
17285SOL    HW253695   6.280   3.282   1.387
17286SOL     OW53696   9.865   6.033   1.702
17286SOL    HW153697   9.814   6.112   1.720
17286SOL    HW253698   9.954   6.065   1.685
17287SOL     OW53699   6.128   2.187  14.289
17287SOL    HW153700   6.141   2.192  14.384
17287SOL    HW253701   6.171   2.265  14.255
17288SOL     OW53702   0.366  11.964  12.862
17288SOL    HW153703   0.408  11.898  12.806
17288SOL    HW253704   0.439  12.012  12.900
17289SOL     OW53705   4.520   5.369   1.189
17289SOL    HW153706   4.476   5.449   1.160
17289SOL    HW253707   4.613   5.386   1.177
17290SOL     OW53708   9.238   4.128  11.135
17290SOL    HW153709   9.261   4.146  11.227
17290SOL    HW253710   9.208   4.037  11.135
17291SOL     OW53711  12.786   5.621   1.895
17291SOL    HW153712  12.827   5.623   1.981
17291SOL    HW253713  12.733   5.700   1.892
17292SOL     OW53714   6.002  12.074  14.426
17292SOL    HW153715   6.097  12.086  14.436
17292SOL    HW253716   5.993  11.984  14.395
17293SOL     OW53717   7.379   7.636  13.191
17293SOL    HW153718   7.422   7.667  13.270
17293SOL    HW253719   7.448   7.595  13.139
17294SOL     OW53720   2.031   9.120   2.589
17294SOL    HW153721   2.052   9.091   2.678
17294SOL    HW253722   2.022   9.039   2.539
17295SOL     OW53723   7.678  11.507  10.471
17295SOL    HW153724   7.595  11.463  10.487
17295SOL    HW253725   7.655  11.580  10.412
17296SOL     OW53726   3.998  11.434  14.746
17296SOL    HW153727   4.064  11.465  14.808
17296SOL    HW253728   4.023  11.474  14.663
17297SOL     OW53729   6.978   4.373  14.442
17297SOL    HW153730   6.981   4.466  14.467
17297SOL    HW253731   7.065   4.355  14.407
17298SOL     OW53732   0.718  14.740   9.511
17298SOL    HW153733   0.763  14.807   9.459
17298SOL    HW253734   0.655  14.789   9.563
17299SOL     OW53735  14.759   7.194   9.185
17299SOL    HW153736  14.845   7.233   9.169
17299SOL    HW253737  14.705   7.266   9.218
17300SOL     OW53738   6.157   4.918   2.531
17300SOL    HW153739   6.193   4.910   2.619
17300SOL    HW253740   6.076   4.867   2.533
17301SOL     OW53741   9.508   4.707  13.786
17301SOL    HW153742   9.556   4.626  13.767
17301SOL    HW253743   9.576   4.775  13.787
17302SOL     OW53744   7.106   7.067   7.497
17302SOL    HW153745   7.195   7.084   7.464
17302SOL    HW253746   7.095   6.973   7.487
17303SOL     OW53747   8.663   5.439   8.615
17303SOL    HW153748   8.713   5.485   8.548
17303SOL    HW253749   8.618   5.369   8.567
17304SOL     OW53750   1.875   2.084   7.518
17304SOL    HW153751   1.811   2.071   7.587
17304SOL    HW253752   1.865   2.176   7.493
17305SOL     OW53753   4.763   1.719   7.055
17305SOL    HW153754   4.826   1.648   7.043
17305SOL    HW253755   4.682   1.674   7.081
17306SOL     OW53756   8.900  10.048   0.065
17306SOL    HW153757   8.819  10.064   0.114
17306SOL    HW253758   8.931  10.135   0.040
17307SOL     OW53759   4.483   7.163   1.731
17307SOL    HW153760   4.457   7.204   1.813
17307SOL    HW253761   4.558   7.109   1.753
17308SOL     OW53762   8.521  13.609  10.538
17308SOL    HW153763   8.463  13.538  10.567
17308SOL    HW253764   8.578  13.626  10.613
17309SOL     OW53765  12.435   6.360   0.586
17309SOL    HW153766  12.375   6.365   0.660
17309SOL    HW253767  12.387   6.399   0.513
17310SOL     OW53768   1.909   2.963   3.513
17310SOL    HW153769   1.923   2.884   3.461
17310SOL    HW253770   1.818   2.959   3.540
17311SOL     OW53771   0.437   1.969   1.110
17311SOL    HW153772   0.403   2.039   1.166
17311SOL    HW253773   0.519   1.943   1.153
17312SOL     OW53774   9.763   0.734   3.288
17312SOL    HW153775   9.713   0.688   3.356
17312SOL    HW253776   9.715   0.717   3.207
17313SOL     OW53777   8.887  13.605   5.270
17313SOL    HW153778   8.850  13.530   5.316
17313SOL    HW253779   8.892  13.674   5.336
17314SOL     OW53780   7.099   1.310   7.149
17314SOL    HW153781   7.186   1.290   7.184
17314SOL    HW253782   7.041   1.301   7.225
17315SOL     OW53783   4.202   8.630   9.672
17315SOL    HW153784   4.168   8.689   9.739
17315SOL    HW253785   4.156   8.655   9.592
17316SOL     OW53786   1.524   0.019   7.952
17316SOL    HW153787   1.511   0.093   7.892
17316SOL    HW253788   1.618   0.014   7.964
17317SOL     OW53789  10.267   6.533  14.021
17317SOL    HW153790  10.329   6.506  14.089
17317SOL    HW253791  10.211   6.456  14.009
17318SOL     OW53792   7.188  10.511   4.154
17318SOL    HW153793   7.150  10.459   4.225
17318SOL    HW253794   7.260  10.559   4.196
17319SOL     OW53795  10.927   8.192   4.029
17319SOL    HW153796  10.873   8.270   4.043
17319SOL    HW253797  10.873   8.119   4.058
17320SOL     OW53798  11.457   3.411   5.494
17320SOL    HW153799  11.548   3.405   5.523
17320SOL    HW253800  11.462   3.418   5.399
17321SOL     OW53801  12.630  10.544   8.671
17321SOL    HW153802  12.621  10.465   8.725
17321SOL    HW253803  12.540  10.570   8.652
17322SOL     OW53804   9.594   8.343   8.797
17322SOL    HW153805   9.642   8.260   8.795
17322SOL    HW253806   9.511   8.325   8.753
17323SOL     OW53807   7.533   9.223   6.996
17323SOL    HW153808   7.596   9.238   6.926
17323SOL    HW253809   7.455   9.270   6.968
17324SOL     OW53810   0.981  13.071  10.237
17324SOL    HW153811   0.962  13.078  10.331
17324SOL    HW253812   1.001  13.161  10.210
17325SOL     OW53813   7.654   3.252   1.060
17325SOL    HW153814   7.748   3.267   1.049
17325SOL    HW253815   7.643   3.225   1.151
17326SOL     OW53816  10.555  10.895  10.517
17326SOL    HW153817  10.501  10.970  10.541
17326SOL    HW253818  10.528  10.875  10.427
17327SOL     OW53819  13.118   2.660  11.332
17327SOL    HW153820  13.052   2.717  11.292
17327SOL    HW253821  13.187   2.653  11.267
17328SOL     OW53822   2.564  10.290  10.331
17328SOL    HW153823   2.527  10.362  10.383
17328SOL    HW253824   2.637  10.257  10.384
17329SOL     OW53825   5.524   3.994  12.019
17329SOL    HW153826   5.618   3.984  12.035
17329SOL    HW253827   5.490   4.033  12.099
17330SOL     OW53828   0.809  14.796  13.472
17330SOL    HW153829   0.866  14.742  13.418
17330SOL    HW253830   0.856  14.808  13.554
17331SOL     OW53831  12.229   0.169   3.562
17331SOL    HW153832  12.215   0.205   3.474
17331SOL    HW253833  12.143   0.177   3.605
17332SOL     OW53834  13.085  11.815  14.665
17332SOL    HW153835  13.104  11.740  14.608
17332SOL    HW253836  13.131  11.795  14.747
17333SOL     OW53837   7.107  11.801   1.985
17333SOL    HW153838   7.059  11.874   1.947
17333SOL    HW253839   7.183  11.789   1.927
17334SOL     OW53840  12.655   3.019   6.356
17334SOL    HW153841  12.615   2.995   6.272
17334SOL    HW253842  12.580   3.030   6.414
17335SOL     OW53843   9.163   8.501  11.337
17335SOL    HW153844   9.139   8.409  11.324
17335SOL    HW253845   9.257   8.500  11.353
17336SOL     OW53846  14.148   5.869   7.568
17336SOL    HW153847  14.132   5.835   7.657
17336SOL    HW253848  14.129   5.795   7.511
17337SOL     OW53849   9.435   1.311  11.719
17337SOL    HW153850   9.455   1.390  11.669
17337SOL    HW253851   9.398   1.251  11.654
17338SOL     OW53852  12.648   8.085   2.297
17338SOL    HW153853  12.707   8.112   2.227
17338SOL    HW253854  12.665   8.148   2.368
17339SOL     OW53855   7.942   2.722   1.326
17339SOL    HW153856   7.878   2.669   1.373
17339SOL    HW253857   7.934   2.694   1.234
17340SOL     OW53858   3.017   2.965   9.424
17340SOL    HW153859   2.924   2.939   9.429
17340SOL    HW253860   3.015   3.058   9.404
17341SOL     OW53861  12.664   0.265  13.091
17341SOL    HW153862  12.758   0.269  13.074
17341SOL    HW253863  12.625   0.243  13.007
17342SOL     OW53864   8.127   1.924  12.530
17342SOL    HW153865   8.146   2.017  12.517
17342SOL    HW253866   8.088   1.896  12.448
17343SOL     OW53867   7.786   1.440  12.156
17343SOL    HW153868   7.728   1.389  12.214
17343SOL    HW253869   7.848   1.483  12.215
17344SOL     OW53870  11.135  13.777   0.331
17344SOL    HW153871  11.115  13.870   0.323
17344SOL    HW253872  11.212  13.765   0.275
17345SOL     OW53873  11.528   5.981   2.809
17345SOL    HW153874  11.509   5.938   2.726
17345SOL    HW253875  11.521   5.912   2.874
17346SOL     OW53876   0.677   3.765  14.505
17346SOL    HW153877   0.748   3.816  14.544
17346SOL    HW253878   0.630   3.727  14.580
17347SOL     OW53879   0.040  13.859   3.603
17347SOL    HW153880  14.866  13.931   3.575
17347SOL    HW253881   0.125  13.876   3.561
17348SOL     OW53882  10.516   5.325  12.293
17348SOL    HW153883  10.539   5.290  12.380
17348SOL    HW253884  10.543   5.257  12.232
17349SOL     OW53885   7.836   4.843  12.660
17349SOL    HW153886   7.780   4.778  12.617
17349SOL    HW253887   7.792   4.862  12.743
17350SOL     OW53888   1.823  13.195   2.798
17350SOL    HW153889   1.918  13.208   2.806
17350SOL    HW253890   1.788  13.227   2.881
17351SOL     OW53891   7.257  10.692   9.634
17351SOL    HW153892   7.187  10.629   9.649
17351SOL    HW253893   7.230  10.771   9.681
17352SOL     OW53894   9.879  10.022   1.780
17352SOL    HW153895   9.793  10.042   1.741
17352SOL    HW253896   9.872   9.932   1.810
17353SOL     OW53897   5.652  14.086   3.904
17353SOL    HW153898   5.638  14.149   3.833
17353SOL    HW253899   5.700  14.136   3.971
17354SOL     OW53900   2.682   8.161  14.406
17354SOL    HW153901   2.729   8.111  14.339
17354SOL    HW253902   2.673   8.248  14.367
17355SOL     OW53903   5.011   0.725   7.490
17355SOL    HW153904   4.979   0.718   7.580
17355SOL    HW253905   4.943   0.773   7.444
17356SOL     OW53906  12.098   1.009   1.248
17356SOL    HW153907  12.086   1.102   1.227
17356SOL    HW253908  12.153   0.975   1.177
17357SOL     OW53909   8.525   2.751   6.360
17357SOL    HW153910   8.431   2.748   6.340
17357SOL    HW253911   8.568   2.763   6.276
17358SOL     OW53912  13.481   9.812   6.949
17358SOL    HW153913  13.529   9.843   7.026
17358SOL    HW253914  13.463   9.891   6.898
17359SOL     OW53915   1.823  11.355  11.611
17359SOL    HW153916   1.783  11.269  11.602
17359SOL    HW253917   1.751  11.412  11.639
17360SOL     OW53918   2.042   9.327  10.804
17360SOL    HW153919   2.072   9.407  10.760
17360SOL    HW253920   2.120   9.273  10.812
17361SOL     OW53921  12.915  10.426   7.233
17361SOL    HW153922  12.937  10.380   7.314
17361SOL    HW253923  12.906  10.518   7.260
17362SOL     OW53924   1.521   8.358   7.753
17362SOL    HW153925   1.436   8.372   7.795
17362SOL    HW253926   1.543   8.267   7.773
17363SOL     OW53927   7.279   4.268   0.568
17363SOL    HW153928   7.305   4.228   0.651
17363SOL    HW253929   7.193   4.231   0.549
17364SOL     OW53930   8.767   3.841  11.470
17364SOL    HW153931   8.720   3.921  11.494
17364SOL    HW253932   8.859   3.863  11.484
17365SOL     OW53933  14.761   5.944  14.642
17365SOL    HW153934  14.722   5.878  14.698
17365SOL    HW253935  14.855   5.924  14.642
17366SOL     OW53936   2.248  14.508   2.331
17366SOL    HW153937   2.195  14.457   2.393
17366SOL    HW253938   2.228  14.470   2.246
17367SOL     OW53939   2.446   4.964   5.132
17367SOL    HW153940   2.360   4.966   5.090
17367SOL    HW253941   2.508   4.976   5.060
17368SOL     OW53942   8.608   7.783   1.296
17368SOL    HW153943   8.661   7.724   1.349
17368SOL    HW253944   8.659   7.797   1.217
17369SOL     OW53945   4.718   0.193   8.253
17369SOL    HW153946   4.633   0.231   8.230
17369SOL    HW253947   4.779   0.267   8.250
17370SOL     OW53948  11.672   5.547   0.453
17370SOL    HW153949  11.733   5.580   0.520
17370SOL    HW253950  11.596   5.605   0.459
17371SOL     OW53951   1.147  10.979  12.506
17371SOL    HW153952   1.135  11.020  12.421
17371SOL    HW253953   1.229  11.016  12.539
17372SOL     OW53954  10.296  13.433  13.128
17372SOL    HW153955  10.291  13.408  13.035
17372SOL    HW253956  10.347  13.362  13.168
17373SOL     OW53957   3.089  10.160   8.626
17373SOL    HW153958   3.175  10.177   8.587
17373SOL    HW253959   3.050  10.094   8.569
17374SOL     OW53960  11.106  11.939  10.510
17374SOL    HW153961  11.032  11.948  10.449
17374SOL    HW253962  11.183  11.935  10.454
17375SOL     OW53963   5.971  10.095   0.169
17375SOL    HW153964   5.915  10.025   0.202
17375SOL    HW253965   5.983  10.153   0.245
17376SOL     OW53966  14.792   0.799   1.745
17376SOL    HW153967  14.767   0.707   1.750
17376SOL    HW253968  14.771   0.826   1.656
17377SOL     OW53969   3.676   3.374  12.501
17377SOL    HW153970   3.669   3.434  12.575
17377SOL    HW253971   3.756   3.325  12.518
17378SOL     OW53972   1.508  12.871  12.367
17378SOL    HW153973   1.473  12.856  12.279
17378SOL    HW253974   1.602  12.878  12.355
17379SOL     OW53975   9.797   0.321   0.936
17379SOL    HW153976   9.814   0.382   0.864
17379SOL    HW253977   9.743   0.252   0.896
17380SOL     OW53978   0.075   6.575  10.216
17380SOL    HW153979   0.134   6.510  10.253
17380SOL    HW253980  14.873   6.530  10.208
17381SOL     OW53981   2.256  11.612   9.470
17381SOL    HW153982   2.321  11.581   9.533
17381SOL    HW253983   2.299  11.606   9.385
17382SOL     OW53984  10.244   1.290   5.237
17382SOL    HW153985  10.237   1.379   5.204
17382SOL    HW253986  10.157   1.253   5.225
17383SOL     OW53987  11.797   3.764  10.858
17383SOL    HW153988  11.814   3.858  10.862
17383SOL    HW253989  11.753   3.744  10.941
17384SOL     OW53990   8.161   0.686   5.074
17384SOL    HW153991   8.116   0.634   5.141
17384SOL    HW253992   8.138   0.643   4.991
17385SOL     OW53993   3.359  14.413   1.343
17385SOL    HW153994   3.408  14.483   1.299
17385SOL    HW253995   3.329  14.356   1.272
17386SOL     OW53996   2.598   1.678   2.215
17386SOL    HW153997   2.604   1.772   2.201
17386SOL    HW253998   2.613   1.640   2.129
17387SOL     OW53999   8.085  13.412   4.799
17387SOL    HW154000   8.064  13.347   4.732
17387SOL    HW254001   8.148  13.471   4.756
17388SOL     OW54002   5.419   4.754   5.758
17388SOL    HW154003   5.432   4.786   5.669
17388SOL    HW254004   5.508   4.734   5.789
17389SOL     OW54005   3.257   9.396   6.007
17389SOL    HW154006   3.332   9.399   5.948
17389SOL    HW254007   3.268   9.471   6.065
17390SOL     OW54008   7.666   1.128   1.957
17390SOL    HW154009   7.655   1.066   2.030
17390SOL    HW254010   7.761   1.134   1.945
17391SOL     OW54011   4.169  12.638   2.028
17391SOL    HW154012   4.204  12.594   1.950
17391SOL    HW254013   4.082  12.666   2.002
17392SOL     OW54014  13.523  13.100   5.616
17392SOL    HW154015  13.520  13.040   5.542
17392SOL    HW254016  13.601  13.153   5.602
17393SOL     OW54017  14.513   3.766   3.093
17393SOL    HW154018  14.600   3.731   3.074
17393SOL    HW254019  14.460   3.742   3.016
17394SOL     OW54020   9.661   4.810   3.989
17394SOL    HW154021   9.746   4.770   4.011
17394SOL    HW254022   9.639   4.771   3.904
17395SOL     OW54023   4.941  14.612   0.735
17395SOL    HW154024   4.927  14.573   0.649
17395SOL    HW254025   4.929  14.539   0.796
17396SOL     OW54026   5.288   0.081   9.928
17396SOL    HW154027   5.366   0.040   9.966
17396SOL    HW254028   5.215   0.049   9.982
17397SOL     OW54029   2.664  11.605   7.900
17397SOL    HW154030   2.611  11.676   7.863
17397SOL    HW254031   2.741  11.649   7.936
17398SOL     OW54032   1.281   1.017   2.455
17398SOL    HW154033   1.201   1.006   2.404
17398SOL    HW254034   1.263   0.972   2.538
17399SOL     OW54035  11.998  13.125   9.311
17399SOL    HW154036  11.963  13.210   9.334
17399SOL    HW254037  12.088  13.142   9.284
17400SOL     OW54038   6.603  10.724  11.882
17400SOL    HW154039   6.694  10.734  11.909
17400SOL    HW254040   6.599  10.636  11.844
17401SOL     OW54041  12.401   5.524   4.386
17401SOL    HW154042  12.407   5.613   4.420
17401SOL    HW254043  12.308   5.501   4.396
17402SOL     OW54044   1.423  13.763   4.875
17402SOL    HW154045   1.484  13.719   4.933
17402SOL    HW254046   1.422  13.854   4.905
17403SOL     OW54047  14.159  11.597   9.480
17403SOL    HW154048  14.240  11.574   9.435
17403SOL    HW254049  14.130  11.516   9.522
17404SOL     OW54050  11.948  11.131  11.672
17404SOL    HW154051  12.026  11.077  11.678
17404SOL    HW254052  11.875  11.069  11.675
17405SOL     OW54053   6.048   8.138  13.544
17405SOL    HW154054   5.976   8.109  13.601
17405SOL    HW254055   6.015   8.218  13.504
17406SOL     OW54056   5.888   6.325  10.161
17406SOL    HW154057   5.910   6.327  10.254
17406SOL    HW254058   5.825   6.396  10.149
17407SOL     OW54059  11.389   1.575   1.384
17407SOL    HW154060  11.418   1.652   1.335
17407SOL    HW254061  11.411   1.501   1.327
17408SOL     OW54062   7.215   9.255  11.110
17408SOL    HW154063   7.128   9.280  11.079
17408SOL    HW254064   7.201   9.175  11.160
17409SOL     OW54065   9.390  10.395  11.629
17409SOL    HW154066   9.422  10.430  11.546
17409SOL    HW254067   9.330  10.463  11.661
17410SOL     OW54068  12.005   6.701   9.951
17410SOL    HW154069  12.060   6.733  10.022
17410SOL    HW254070  11.948   6.636   9.991
17411SOL     OW54071   3.765   1.881  14.697
17411SOL    HW154072   3.715   1.841  14.625
17411SOL    HW254073   3.835   1.930  14.653
17412SOL     OW54074   8.347   5.626  14.095
17412SOL    HW154075   8.421   5.570  14.116
17412SOL    HW254076   8.300   5.580  14.026
17413SOL     OW54077   5.091  12.806   3.908
17413SOL    HW154078   5.007  12.773   3.942
17413SOL    HW254079   5.123  12.736   3.851
17414SOL     OW54080   2.024   5.017   7.899
17414SOL    HW154081   2.025   5.082   7.970
17414SOL    HW254082   2.057   4.937   7.939
17415SOL     OW54083   9.012   1.480   8.305
17415SOL    HW154084   9.078   1.547   8.287
17415SOL    HW254085   8.965   1.471   8.222
17416SOL     OW54086  10.719  10.342  12.992
17416SOL    HW154087  10.768  10.422  13.012
17416SOL    HW254088  10.672  10.321  13.073
17417SOL     OW54089   5.951  11.880   3.641
17417SOL    HW154090   5.910  11.918   3.563
17417SOL    HW254091   5.882  11.879   3.707
17418SOL     OW54092  10.375  10.279   7.979
17418SOL    HW154093  10.338  10.364   7.954
17418SOL    HW254094  10.298  10.224   7.997
17419SOL     OW54095   0.677   5.312   5.570
17419SOL    HW154096   0.766   5.344   5.582
17419SOL    HW254097   0.624   5.365   5.630
17420SOL     OW54098  11.917   2.603   3.018
17420SOL    HW154099  11.968   2.557   2.951
17420SOL    HW254100  11.940   2.560   3.100
17421SOL     OW54101  12.126   3.939  14.339
17421SOL    HW154102  12.207   3.985  14.361
17421SOL    HW254103  12.082   3.997  14.277
17422SOL     OW54104   2.569   2.841   9.830
17422SOL    HW154105   2.523   2.862   9.912
17422SOL    HW254106   2.629   2.770   9.853
17423SOL     OW54107   7.611   8.576   5.821
17423SOL    HW154108   7.631   8.600   5.911
17423SOL    HW254109   7.678   8.620   5.768
17424SOL     OW54110   9.631   0.694  11.121
17424SOL    HW154111   9.640   0.652  11.036
17424SOL    HW254112   9.684   0.641  11.180
17425SOL     OW54113   6.152   8.125  13.821
17425SOL    HW154114   6.107   8.201  13.784
17425SOL    HW254115   6.244   8.151  13.825
17426SOL     OW54116   6.446   0.354   6.145
17426SOL    HW154117   6.352   0.343   6.157
17426SOL    HW254118   6.467   0.435   6.193
17427SOL     OW54119   4.048   6.251   1.283
17427SOL    HW154120   4.068   6.289   1.368
17427SOL    HW254121   4.123   6.195   1.263
17428SOL     OW54122   2.082   6.032   2.458
17428SOL    HW154123   1.996   6.000   2.486
17428SOL    HW254124   2.095   6.112   2.509
17429SOL     OW54125   4.248  14.846  13.481
17429SOL    HW154126   4.259  14.765  13.532
17429SOL    HW254127   4.175  14.827  13.422
17430SOL     OW54128   2.942   4.119   6.968
17430SOL    HW154129   2.908   4.064   7.039
17430SOL    HW254130   2.918   4.208   6.993
17431SOL     OW54131   6.606   2.708  14.180
17431SOL    HW154132   6.623   2.620  14.213
17431SOL    HW254133   6.625   2.766  14.254
17432SOL     OW54134   4.221   3.765   7.965
17432SOL    HW154135   4.266   3.821   7.900
17432SOL    HW254136   4.234   3.676   7.933
17433SOL     OW54137   5.403   4.878  10.320
17433SOL    HW154138   5.411   4.821  10.397
17433SOL    HW254139   5.332   4.839  10.269
17434SOL     OW54140   1.651   0.678   1.730
17434SOL    HW154141   1.609   0.600   1.766
17434SOL    HW254142   1.623   0.749   1.788
17435SOL     OW54143   4.833  12.253   9.959
17435SOL    HW154144   4.816  12.213   9.873
17435SOL    HW254145   4.800  12.343   9.950
17436SOL     OW54146   2.212   2.398  13.618
17436SOL    HW154147   2.293   2.440  13.589
17436SOL    HW254148   2.142   2.453  13.583
17437SOL     OW54149   0.370  14.849   5.855
17437SOL    HW154150   0.341  14.761   5.832
17437SOL    HW254151   0.427  14.837   5.931
17438SOL     OW54152   8.903   7.787   7.958
17438SOL    HW154153   8.970   7.822   7.900
17438SOL    HW254154   8.946   7.779   8.043
17439SOL     OW54155   9.579  10.299  13.024
17439SOL    HW154156   9.619  10.294  13.111
17439SOL    HW254157   9.574  10.208  12.995
17440SOL     OW54158   2.999   2.311   7.061
17440SOL    HW154159   2.952   2.232   7.033
17440SOL    HW254160   3.004   2.365   6.982
17441SOL     OW54161  13.757   5.437   8.759
17441SOL    HW154162  13.729   5.361   8.811
17441SOL    HW254163  13.691   5.504   8.776
17442SOL     OW54164  13.573   5.776   0.388
17442SOL    HW154165  13.612   5.802   0.471
17442SOL    HW254166  13.562   5.681   0.395
17443SOL     OW54167   7.403   5.113  11.542
17443SOL    HW154168   7.391   5.101  11.636
17443SOL    HW254169   7.354   5.042  11.502
17444SOL     OW54170  14.203  12.587   5.421
17444SOL    HW154171  14.255  12.642   5.364
17444SOL    HW254172  14.241  12.499   5.411
17445SOL     OW54173   7.903  13.342   0.823
17445SOL    HW154174   7.809  13.351   0.832
17445SOL    HW254175   7.921  13.362   0.731
17446SOL     OW54176   3.726  12.116   1.455
17446SOL    HW154177   3.820  12.095   1.460
17446SOL    HW254178   3.684  12.033   1.433
17447SOL     OW54179   5.738   5.034   2.629
17447SOL    HW154180   5.742   5.121   2.670
17447SOL    HW254181   5.793   5.042   2.551
17448SOL     OW54182   7.476   6.536   6.302
17448SOL    HW154183   7.554   6.492   6.337
17448SOL    HW254184   7.408   6.520   6.367
17449SOL     OW54185  10.528   5.983   1.738
17449SOL    HW154186  10.574   6.005   1.657
17449SOL    HW254187  10.576   6.031   1.807
17450SOL     OW54188   3.540   4.989  13.613
17450SOL    HW154189   3.534   5.024  13.524
17450SOL    HW254190   3.468   4.927  13.620
17451SOL     OW54191   6.144   0.977   0.499
17451SOL    HW154192   6.142   1.033   0.577
17451SOL    HW254193   6.052   0.960   0.479
17452SOL     OW54194   5.918   9.540  12.816
17452SOL    HW154195   5.956   9.532  12.903
17452SOL    HW254196   5.928   9.632  12.792
17453SOL     OW54197   1.432   4.305   7.826
17453SOL    HW154198   1.478   4.309   7.743
17453SOL    HW254199   1.356   4.363   7.815
17454SOL     OW54200  12.537  12.262  10.532
17454SOL    HW154201  12.551  12.192  10.595
17454SOL    HW254202  12.592  12.334  10.563
17455SOL     OW54203   6.019   9.233   6.856
17455SOL    HW154204   6.032   9.289   6.933
17455SOL    HW254205   5.930   9.198   6.866
17456SOL     OW54206   9.924   9.523   6.290
17456SOL    HW154207  10.014   9.514   6.321
17456SOL    HW254208   9.929   9.513   6.195
17457SOL     OW54209   3.137   1.719   0.889
17457SOL    HW154210   3.054   1.709   0.843
17457SOL    HW254211   3.194   1.766   0.828
17458SOL     OW54212  10.011   0.350   5.260
17458SOL    HW154213  10.079   0.397   5.211
17458SOL    HW254214  10.059   0.282   5.307
17459SOL     OW54215   4.567  13.501  14.264
17459SOL    HW154216   4.532  13.567  14.204
17459SOL    HW254217   4.539  13.532  14.351
17460SOL     OW54218  14.134   7.245   3.285
17460SOL    HW154219  14.206   7.298   3.251
17460SOL    HW254220  14.065   7.309   3.305
17461SOL     OW54221  10.924   4.537  13.759
17461SOL    HW154222  10.973   4.563  13.837
17461SOL    HW254223  10.951   4.447  13.742
17462SOL     OW54224   8.109   3.829   0.871
17462SOL    HW154225   8.047   3.873   0.813
17462SOL    HW254226   8.191   3.827   0.821
17463SOL     OW54227   2.954   8.154   6.208
17463SOL    HW154228   2.911   8.069   6.221
17463SOL    HW254229   2.882   8.214   6.189
17464SOL     OW54230   3.547   3.655   6.923
17464SOL    HW154231   3.601   3.734   6.924
17464SOL    HW254232   3.563   3.617   6.837
17465SOL     OW54233   0.495   1.833   3.983
17465SOL    HW154234   0.444   1.810   4.062
17465SOL    HW254235   0.429   1.837   3.914
17466SOL     OW54236   4.885   5.985   6.307
17466SOL    HW154237   4.803   5.942   6.332
17466SOL    HW254238   4.895   5.964   6.214
17467SOL     OW54239   3.770  13.019   8.320
17467SOL    HW154240   3.712  12.951   8.354
17467SOL    HW254241   3.764  13.010   8.225
17468SOL     OW54242   4.756  12.320  10.238
17468SOL    HW154243   4.783  12.284  10.154
17468SOL    HW254244   4.669  12.356  10.223
17469SOL     OW54245   1.728   5.753   8.256
17469SOL    HW154246   1.822   5.770   8.253
17469SOL    HW254247   1.694   5.818   8.317
17470SOL     OW54248   0.555   1.738   3.559
17470SOL    HW154249   0.546   1.829   3.532
17470SOL    HW254250   0.567   1.743   3.654
17471SOL     OW54251  12.474  13.661  13.022
17471SOL    HW154252  12.452  13.718  12.948
17471SOL    HW254253  12.538  13.711  13.073
17472SOL     OW54254   0.061   2.058   0.092
17472SOL    HW154255   0.048   2.138   0.042
17472SOL    HW254256   0.156   2.049   0.100
17473SOL     OW54257  12.948   2.502   3.337
17473SOL    HW154258  12.968   2.517   3.430
17473SOL    HW254259  13.007   2.432   3.311
17474SOL     OW54260   5.849   1.239  14.720
17474SOL    HW154261   5.882   1.303  14.656
17474SOL    HW254262   5.858   1.154  14.676
17475SOL     OW54263   8.814   2.747   8.601
17475SOL    HW154264   8.802   2.663   8.645
17475SOL    HW254265   8.755   2.807   8.646
17476SOL     OW54266  13.622   2.901   8.783
17476SOL    HW154267  13.626   2.973   8.846
17476SOL    HW254268  13.663   2.937   8.704
17477SOL     OW54269  13.206   6.248   8.295
17477SOL    HW154270  13.133   6.301   8.262
17477SOL    HW254271  13.165   6.176   8.342
17478SOL     OW54272   6.709   7.715   3.450
17478SOL    HW154273   6.797   7.726   3.485
17478SOL    HW254274   6.665   7.656   3.512
17479SOL     OW54275   2.638   2.284   6.221
17479SOL    HW154276   2.546   2.309   6.210
17479SOL    HW254277   2.684   2.368   6.226
17480SOL     OW54278   8.908   0.696  14.396
17480SOL    HW154279   8.996   0.661  14.381
17480SOL    HW254280   8.894   0.759  14.325
17481SOL     OW54281   7.786   5.116  10.638
17481SOL    HW154282   7.763   5.138  10.728
17481SOL    HW254283   7.765   5.023  10.631
17482SOL     OW54284  12.348   1.098  11.338
17482SOL    HW154285  12.357   1.147  11.420
17482SOL    HW254286  12.254   1.080  11.332
17483SOL     OW54287   8.062  14.706  11.879
17483SOL    HW154288   8.007  14.738  11.808
17483SOL    HW254289   8.151  14.726  11.852
17484SOL     OW54290  12.579   7.190  10.573
17484SOL    HW154291  12.610   7.267  10.621
17484SOL    HW254292  12.651   7.127  10.578
17485SOL     OW54293   8.804   4.107  13.385
17485SOL    HW154294   8.712   4.133  13.394
17485SOL    HW254295   8.812   4.029  13.440
17486SOL     OW54296   0.108   1.115   3.807
17486SOL    HW154297   0.143   1.180   3.868
17486SOL    HW254298   0.104   1.161   3.723
17487SOL     OW54299   9.940  14.399  12.867
17487SOL    HW154300   9.924  14.429  12.956
17487SOL    HW254301  10.035  14.407  12.856
17488SOL     OW54302   1.559   2.440   4.529
17488SOL    HW154303   1.519   2.375   4.587
17488SOL    HW254304   1.565   2.396   4.445
17489SOL     OW54305  11.206   8.400   4.910
17489SOL    HW154306  11.146   8.381   4.982
17489SOL    HW254307  11.213   8.495   4.909
17490SOL     OW54308  11.112   2.527  13.329
17490SOL    HW154309  11.040   2.585  13.306
17490SOL    HW254310  11.131   2.549  13.421
17491SOL     OW54311   7.924   7.980   8.329
17491SOL    HW154312   7.836   7.986   8.367
17491SOL    HW254313   7.909   7.959   8.237
17492SOL     OW54314  12.596   4.979  11.728
17492SOL    HW154315  12.666   5.031  11.688
17492SOL    HW254316  12.562   5.035  11.798
17493SOL     OW54317   5.000   5.818   4.256
17493SOL    HW154318   5.043   5.764   4.322
17493SOL    HW254319   4.944   5.757   4.207
17494SOL     OW54320  11.141  13.977   3.212
17494SOL    HW154321  11.136  13.892   3.254
17494SOL    HW254322  11.165  13.958   3.121
17495SOL     OW54323   3.835  11.091   8.567
17495SOL    HW154324   3.853  10.998   8.582
17495SOL    HW254325   3.816  11.096   8.473
17496SOL     OW54326  11.133  13.239   4.956
17496SOL    HW154327  11.188  13.221   5.033
17496SOL    HW254328  11.075  13.164   4.950
17497SOL     OW54329  10.413  13.980  11.360
17497SOL    HW154330  10.459  14.013  11.438
17497SOL    HW254331  10.451  13.894  11.345
17498SOL     OW54332   3.269   0.851   0.907
17498SOL    HW154333   3.337   0.787   0.886
17498SOL    HW254334   3.298   0.931   0.863
17499SOL     OW54335  14.446   0.206  11.335
17499SOL    HW154336  14.491   0.153  11.401
17499SOL    HW254337  14.471   0.296  11.356
17500SOL     OW54338  11.611  12.981   8.890
17500SOL    HW154339  11.548  13.038   8.847
17500SOL    HW254340  11.617  13.014   8.980
17501SOL     OW54341   6.500   0.991   5.039
17501SOL    HW154342   6.427   1.014   4.982
17501SOL    HW254343   6.467   0.921   5.095
17502SOL     OW54344  13.885   2.967  12.503
17502SOL    HW154345  13.927   2.918  12.433
17502SOL    HW254346  13.834   2.902  12.551
17503SOL     OW54347   2.924   8.167   0.562
17503SOL    HW154348   2.965   8.212   0.635
17503SOL    HW254349   2.981   8.093   0.544
17504SOL     OW54350  13.382   7.224   0.337
17504SOL    HW154351  13.356   7.255   0.424
17504SOL    HW254352  13.299   7.205   0.293
17505SOL     OW54353   0.358   4.138   3.093
17505SOL    HW154354   0.332   4.097   3.010
17505SOL    HW254355   0.281   4.130   3.149
17506SOL     OW54356   0.664   3.430  12.153
17506SOL    HW154357   0.703   3.433  12.241
17506SOL    HW254358   0.618   3.514  12.145
17507SOL     OW54359  10.620   0.035  12.294
17507SOL    HW154360  10.710   0.002  12.295
17507SOL    HW254361  10.566  14.839  12.278
17508SOL     OW54362   2.707   0.118   9.428
17508SOL    HW154363   2.619   0.094   9.457
17508SOL    HW254364   2.756   0.131   9.509
17509SOL     OW54365   5.776   2.047  14.573
17509SOL    HW154366   5.709   2.100  14.531
17509SOL    HW254367   5.752   2.047  14.666
17510SOL     OW54368  11.806   8.077  13.472
17510SOL    HW154369  11.716   8.078  13.503
17510SOL    HW254370  11.815   7.996  13.423
17511SOL     OW54371   8.718  10.445   3.184
17511SOL    HW154372   8.770  10.514   3.144
17511SOL    HW254373   8.733  10.457   3.278
17512SOL     OW54374  14.726   8.839   9.418
17512SOL    HW154375  14.787   8.896   9.464
17512SOL    HW254376  14.720   8.876   9.330
17513SOL     OW54377   0.504  10.905   8.522
17513SOL    HW154378   0.422  10.942   8.553
17513SOL    HW254379   0.569  10.930   8.588
17514SOL     OW54380   2.192   7.365  12.822
17514SOL    HW154381   2.163   7.423  12.752
17514SOL    HW254382   2.142   7.392  12.899
17515SOL     OW54383   5.239   0.505  14.411
17515SOL    HW154384   5.245   0.585  14.463
17515SOL    HW254385   5.327   0.468  14.413
17516SOL     OW54386   8.115   8.552   3.820
17516SOL    HW154387   8.090   8.462   3.843
17516SOL    HW254388   8.143   8.590   3.903
17517SOL     OW54389   6.465  10.460  11.792
17517SOL    HW154390   6.555  10.432  11.774
17517SOL    HW254391   6.417  10.437  11.713
17518SOL     OW54392   0.150  10.465  12.148
17518SOL    HW154393   0.086  10.397  12.170
17518SOL    HW254394   0.225  10.445  12.204
17519SOL     OW54395   7.610  10.026   9.674
17519SOL    HW154396   7.534   9.990   9.719
17519SOL    HW254397   7.584  10.114   9.649
17520SOL     OW54398   7.613   9.347   1.885
17520SOL    HW154399   7.693   9.295   1.874
17520SOL    HW254400   7.599   9.350   1.980
17521SOL     OW54401   8.704  10.951   6.268
17521SOL    HW154402   8.730  10.899   6.344
17521SOL    HW254403   8.610  10.964   6.279
17522SOL     OW54404  11.659   3.428   6.350
17522SOL    HW154405  11.686   3.469   6.433
17522SOL    HW254406  11.736   3.378   6.323
17523SOL     OW54407  12.805  13.639  10.612
17523SOL    HW154408  12.757  13.710  10.570
17523SOL    HW254409  12.897  13.661  10.599
17524SOL     OW54410   3.027   1.249   0.788
17524SOL    HW154411   3.046   1.226   0.879
17524SOL    HW254412   3.079   1.327   0.772
17525SOL     OW54413   3.850   6.792   6.775
17525SOL    HW154414   3.773   6.772   6.721
17525SOL    HW254415   3.814   6.828   6.856
17526SOL     OW54416   5.726   1.090   2.603
17526SOL    HW154417   5.770   1.018   2.647
17526SOL    HW254418   5.797   1.146   2.571
17527SOL     OW54419  10.497  14.800   0.230
17527SOL    HW154420  10.417  14.829   0.273
17527SOL    HW254421  10.567  14.822   0.292
17528SOL     OW54422   3.690   3.046   3.304
17528SOL    HW154423   3.686   2.960   3.263
17528SOL    HW254424   3.646   3.104   3.242
17529SOL     OW54425   4.033  11.429   3.214
17529SOL    HW154426   4.032  11.506   3.156
17529SOL    HW254427   4.051  11.356   3.156
17530SOL     OW54428  11.735  12.254   7.007
17530SOL    HW154429  11.783  12.264   7.089
17530SOL    HW254430  11.774  12.176   6.966
17531SOL     OW54431   2.614   5.246   6.032
17531SOL    HW154432   2.524   5.242   6.002
17531SOL    HW254433   2.656   5.311   5.975
17532SOL     OW54434   0.971   3.531   8.131
17532SOL    HW154435   0.906   3.470   8.096
17532SOL    HW254436   1.032   3.475   8.181
17533SOL     OW54437   0.827   9.431   9.413
17533SOL    HW154438   0.810   9.398   9.502
17533SOL    HW254439   0.899   9.377   9.381
17534SOL     OW54440  13.850  13.345  12.119
17534SOL    HW154441  13.805  13.374  12.040
17534SOL    HW254442  13.889  13.261  12.096
17535SOL     OW54443   8.498   6.164  14.763
17535SOL    HW154444   8.454   6.201  14.839
17535SOL    HW254445   8.575   6.220  14.751
17536SOL     OW54446   9.696   7.235  11.016
17536SOL    HW154447   9.780   7.258  10.976
17536SOL    HW254448   9.683   7.143  10.995
17537SOL     OW54449   3.004   5.469   9.152
17537SOL    HW154450   2.949   5.485   9.076
17537SOL    HW254451   2.985   5.542   9.212
17538SOL     OW54452   9.578  10.772   2.228
17538SOL    HW154453   9.498  10.764   2.177
17538SOL    HW254454   9.597  10.682   2.256
17539SOL     OW54455   7.002   4.370   2.905
17539SOL    HW154456   7.051   4.452   2.915
17539SOL    HW254457   7.030   4.336   2.820
17540SOL     OW54458  13.187  11.989   8.260
17540SOL    HW154459  13.136  12.043   8.320
17540SOL    HW254460  13.167  12.025   8.173
17541SOL     OW54461   0.300  10.318   5.846
17541SOL    HW154462   0.215  10.280   5.868
17541SOL    HW254463   0.347  10.248   5.799
17542SOL     OW54464   7.505   6.458   1.126
17542SOL    HW154465   7.522   6.546   1.159
17542SOL    HW254466   7.540   6.400   1.194
17543SOL     OW54467   8.898   0.401   4.310
17543SOL    HW154468   8.897   0.462   4.383
17543SOL    HW254469   8.955   0.330   4.339
17544SOL     OW54470  10.855   6.517   4.530
17544SOL    HW154471  10.892   6.492   4.445
17544SOL    HW254472  10.784   6.454   4.544
17545SOL     OW54473   5.532   9.709   5.153
17545SOL    HW154474   5.500   9.675   5.236
17545SOL    HW254475   5.585   9.638   5.117
17546SOL     OW54476  11.169   8.094   8.651
17546SOL    HW154477  11.160   8.186   8.678
17546SOL    HW254478  11.197   8.099   8.559
17547SOL     OW54479  14.434   1.404   1.262
17547SOL    HW154480  14.480   1.324   1.288
17547SOL    HW254481  14.451   1.465   1.334
17548SOL     OW54482   3.388   1.072   6.028
17548SOL    HW154483   3.457   1.135   6.009
17548SOL    HW254484   3.313   1.102   5.977
17549SOL     OW54485   8.666  11.201   3.262
17549SOL    HW154486   8.577  11.191   3.295
17549SOL    HW254487   8.718  11.227   3.338
17550SOL     OW54488   7.271  13.341   5.561
17550SOL    HW154489   7.272  13.369   5.653
17550SOL    HW254490   7.239  13.417   5.513
17551SOL     OW54491   9.051   5.765   5.149
17551SOL    HW154492   9.079   5.738   5.062
17551SOL    HW254493   8.978   5.707   5.170
17552SOL     OW54494   0.751  10.151  12.326
17552SOL    HW154495   0.747  10.145  12.231
17552SOL    HW254496   0.704  10.231  12.348
17553SOL     OW54497   1.378   0.942  12.908
17553SOL    HW154498   1.382   1.037  12.919
17553SOL    HW254499   1.293   0.917  12.943
17554SOL     OW54500  14.271   3.140   6.361
17554SOL    HW154501  14.337   3.107   6.422
17554SOL    HW254502  14.320   3.164   6.283
17555SOL     OW54503   9.658  12.262   7.611
17555SOL    HW154504   9.640  12.316   7.534
17555SOL    HW254505   9.606  12.182   7.597
17556SOL     OW54506   9.361  11.208   1.621
17556SOL    HW154507   9.391  11.299   1.621
17556SOL    HW254508   9.415  11.165   1.555
17557SOL     OW54509   2.870   8.996  13.495
17557SOL    HW154510   2.881   8.910  13.452
17557SOL    HW254511   2.776   9.005  13.506
17558SOL     OW54512   4.670   8.190   5.733
17558SOL    HW154513   4.693   8.246   5.659
17558SOL    HW254514   4.710   8.234   5.809
17559SOL     OW54515  10.319  11.831   9.896
17559SOL    HW154516  10.359  11.760   9.946
17559SOL    HW254517  10.392  11.883   9.864
17560SOL     OW54518   8.444   1.348   6.458
17560SOL    HW154519   8.530   1.350   6.416
17560SOL    HW254520   8.455   1.402   6.537
17561SOL     OW54521   7.539  13.394   3.898
17561SOL    HW154522   7.547  13.408   3.993
17561SOL    HW254523   7.446  13.400   3.880
17562SOL     OW54524   3.817   6.703   0.413
17562SOL    HW154525   3.729   6.712   0.450
17562SOL    HW254526   3.848   6.618   0.445
17563SOL     OW54527  12.306  11.107  11.265
17563SOL    HW154528  12.235  11.156  11.223
17563SOL    HW254529  12.263  11.055  11.333
17564SOL     OW54530   9.906   8.620   5.803
17564SOL    HW154531   9.912   8.525   5.791
17564SOL    HW254532   9.824   8.633   5.851
17565SOL     OW54533  13.343  11.384   6.008
17565SOL    HW154534  13.258  11.416   5.980
17565SOL    HW254535  13.403  11.457   5.991
17566SOL     OW54536   8.823   7.539   2.229
17566SOL    HW154537   8.786   7.605   2.288
17566SOL    HW254538   8.897   7.583   2.187
17567SOL     OW54539   9.111   1.396  11.504
17567SOL    HW154540   9.112   1.424  11.413
17567SOL    HW254541   9.185   1.335  11.511
17568SOL     OW54542   3.374   0.966   3.025
17568SOL    HW154543   3.331   1.011   2.952
17568SOL    HW254544   3.334   1.004   3.103
17569SOL     OW54545   2.622   7.664   4.254
17569SOL    HW154546   2.688   7.639   4.189
17569SOL    HW254547   2.555   7.596   4.248
17570SOL     OW54548   5.918   1.717  12.675
17570SOL    HW154549   5.927   1.749  12.765
17570SOL    HW254550   5.984   1.648  12.667
17571SOL     OW54551   8.212   1.359  13.660
17571SOL    HW154552   8.187   1.306  13.736
17571SOL    HW254553   8.171   1.316  13.585
17572SOL     OW54554   3.996  13.466   1.374
17572SOL    HW154555   4.020  13.444   1.464
17572SOL    HW254556   3.999  13.562   1.371
17573SOL     OW54557  14.066  14.428  13.990
17573SOL    HW154558  13.981  14.388  14.005
17573SOL    HW254559  14.045  14.517  13.960
17574SOL     OW54560   4.041   9.813   7.102
17574SOL    HW154561   4.022   9.732   7.055
17574SOL    HW254562   4.103   9.788   7.170
17575SOL     OW54563   3.868   3.608   1.935
17575SOL    HW154564   3.944   3.645   1.891
17575SOL    HW254565   3.849   3.670   2.006
17576SOL     OW54566   1.657   4.546   5.969
17576SOL    HW154567   1.616   4.619   6.015
17576SOL    HW254568   1.586   4.504   5.921
17577SOL     OW54569   3.584   5.884  10.244
17577SOL    HW154570   3.666   5.898  10.291
17577SOL    HW254571   3.536   5.965  10.256
17578SOL     OW54572   3.500  12.953   3.895
17578SOL    HW154573   3.417  12.993   3.921
17578SOL    HW254574   3.476  12.866   3.862
17579SOL     OW54575  13.572   4.596   9.263
17579SOL    HW154576  13.562   4.502   9.277
17579SOL    HW254577  13.656   4.618   9.302
17580SOL     OW54578   9.174  14.479  12.805
17580SOL    HW154579   9.131  14.518  12.882
17580SOL    HW254580   9.229  14.550  12.771
17581SOL     OW54581   6.712  10.674   6.800
17581SOL    HW154582   6.739  10.597   6.749
17581SOL    HW254583   6.693  10.639   6.887
17582SOL     OW54584   4.830   3.839  13.778
17582SOL    HW154585   4.826   3.752  13.818
17582SOL    HW254586   4.922   3.862  13.780
17583SOL     OW54587   9.487  11.336   6.983
17583SOL    HW154588   9.532  11.392   6.920
17583SOL    HW254589   9.457  11.397   7.051
17584SOL     OW54590   8.694   0.460   0.433
17584SOL    HW154591   8.714   0.504   0.351
17584SOL    HW254592   8.599   0.455   0.435
17585SOL     OW54593   1.257   8.483  10.268
17585SOL    HW154594   1.193   8.415  10.247
17585SOL    HW254595   1.223   8.524  10.347
17586SOL     OW54596  14.192   6.624  12.376
17586SOL    HW154597  14.234   6.679  12.310
17586SOL    HW254598  14.253   6.624  12.450
17587SOL     OW54599   8.328   0.786  14.461
17587SOL    HW154600   8.368   0.765  14.546
17587SOL    HW254601   8.398   0.827  14.411
17588SOL     OW54602   3.336  11.404  14.288
17588SOL    HW154603   3.281  11.433  14.215
17588SOL    HW254604   3.406  11.353  14.246
17589SOL     OW54605  13.792   5.625  14.029
17589SOL    HW154606  13.750   5.539  14.019
17589SOL    HW254607  13.876   5.616  13.986
17590SOL     OW54608   6.150   1.486  10.470
17590SOL    HW154609   6.087   1.533  10.524
17590SOL    HW254610   6.124   1.506  10.380
17591SOL     OW54611   2.795   8.253  12.636
17591SOL    HW154612   2.840   8.325  12.592
17591SOL    HW254613   2.850   8.233  12.712
17592SOL     OW54614   1.424  12.555   5.957
17592SOL    HW154615   1.394  12.495   6.025
17592SOL    HW254616   1.511  12.582   5.985
17593SOL     OW54617   3.078   2.676   9.481
17593SOL    HW154618   3.064   2.770   9.466
17593SOL    HW254619   3.034   2.634   9.407
17594SOL     OW54620  14.588  10.995   5.723
17594SOL    HW154621  14.659  10.934   5.740
17594SOL    HW254622  14.580  11.045   5.804
17595SOL     OW54623   7.099  14.562   4.619
17595SOL    HW154624   7.190  14.564   4.649
17595SOL    HW254625   7.067  14.651   4.636
17596SOL     OW54626   8.851  14.326   3.887
17596SOL    HW154627   8.868  14.268   3.812
17596SOL    HW254628   8.788  14.390   3.854
17597SOL     OW54629   4.128   6.361   9.785
17597SOL    HW154630   4.048   6.398   9.747
17597SOL    HW254631   4.190   6.360   9.712
17598SOL     OW54632  13.150  11.125   8.796
17598SOL    HW154633  13.227  11.161   8.752
17598SOL    HW254634  13.081  11.188   8.779
17599SOL     OW54635   8.831   3.452   4.460
17599SOL    HW154636   8.883   3.372   4.462
17599SOL    HW254637   8.780   3.445   4.379
17600SOL     OW54638  10.480  12.323   9.442
17600SOL    HW154639  10.497  12.298   9.532
17600SOL    HW254640  10.397  12.280   9.420
17601SOL     OW54641   9.093   8.759  13.895
17601SOL    HW154642   9.082   8.677  13.943
17601SOL    HW254643   9.117   8.823  13.963
17602SOL     OW54644  13.045   9.180   1.595
17602SOL    HW154645  12.950   9.181   1.605
17602SOL    HW254646  13.077   9.155   1.682
17603SOL     OW54647   7.842  11.320   9.111
17603SOL    HW154648   7.758  11.362   9.130
17603SOL    HW254649   7.857  11.261   9.185
17604SOL     OW54650   0.676  11.257   5.196
17604SOL    HW154651   0.726  11.333   5.225
17604SOL    HW254652   0.717  11.231   5.114
17605SOL     OW54653  13.653   0.008  12.486
17605SOL    HW154654  13.660   0.021  12.392
17605SOL    HW254655  13.733  14.843  12.510
17606SOL     OW54656  13.110  11.147  13.537
17606SOL    HW154657  13.053  11.225  13.536
17606SOL    HW254658  13.186  11.174  13.588
17607SOL     OW54659   3.529   4.375   4.630
17607SOL    HW154660   3.467   4.442   4.657
17607SOL    HW254661   3.510   4.300   4.685
17608SOL     OW54662  13.304  13.985   0.744
17608SOL    HW154663  13.209  13.980   0.754
17608SOL    HW254664  13.318  14.057   0.683
17609SOL     OW54665  10.815   0.487   7.679
17609SOL    HW154666  10.794   0.527   7.763
17609SOL    HW254667  10.776   0.546   7.614
17610SOL     OW54668  11.848   0.863   6.388
17610SOL    HW154669  11.937   0.835   6.408
17610SOL    HW254670  11.822   0.810   6.313
17611SOL     OW54671   1.508   1.589   5.708
17611SOL    HW154672   1.515   1.498   5.680
17611SOL    HW254673   1.566   1.637   5.648
17612SOL     OW54674   9.721  11.540   7.889
17612SOL    HW154675   9.625  11.546   7.883
17612SOL    HW254676   9.747  11.505   7.804
17613SOL     OW54677  13.005  11.344   1.403
17613SOL    HW154678  13.063  11.390   1.342
17613SOL    HW254679  12.968  11.272   1.351
17614SOL     OW54680   4.869  12.494   6.569
17614SOL    HW154681   4.827  12.568   6.525
17614SOL    HW254682   4.920  12.534   6.640
17615SOL     OW54683   0.496   4.795   1.783
17615SOL    HW154684   0.409   4.834   1.784
17615SOL    HW254685   0.545   4.844   1.849
17616SOL     OW54686  12.251   2.658   1.954
17616SOL    HW154687  12.220   2.735   1.906
17616SOL    HW254688  12.270   2.691   2.042
17617SOL     OW54689  14.218   0.198  13.463
17617SOL    HW154690  14.202   0.110  13.431
17617SOL    HW254691  14.240   0.249  13.384
17618SOL     OW54692   2.081   0.892  12.767
17618SOL    HW154693   2.174   0.871  12.766
17618SOL    HW254694   2.077   0.983  12.795
17619SOL     OW54695   4.175   6.491  14.596
17619SOL    HW154696   4.203   6.462  14.509
17619SOL    HW254697   4.085   6.459  14.605
17620SOL     OW54698   4.802   3.989   0.078
17620SOL    HW154699   4.838   3.901   0.084
17620SOL    HW254700   4.810   4.012  14.867
17621SOL     OW54701   0.018   7.547   1.548
17621SOL    HW154702   0.054   7.477   1.493
17621SOL    HW254703   0.095   7.591   1.585
17622SOL     OW54704   2.066   6.783   2.250
17622SOL    HW154705   2.140   6.722   2.248
17622SOL    HW254706   2.055   6.805   2.342
17623SOL     OW54707  13.640  10.715   5.010
17623SOL    HW154708  13.646  10.627   5.046
17623SOL    HW254709  13.670  10.772   5.081
17624SOL     OW54710   9.209   3.275  13.475
17624SOL    HW154711   9.294   3.236  13.459
17624SOL    HW254712   9.175   3.297  13.388
17625SOL     OW54713  13.318  10.921   8.014
17625SOL    HW154714  13.245  10.898   8.071
17625SOL    HW254715  13.384  10.957   8.073
17626SOL     OW54716   0.489   8.784   0.798
17626SOL    HW154717   0.413   8.739   0.836
17626SOL    HW254718   0.511   8.732   0.720
17627SOL     OW54719   0.273  12.539  10.647
17627SOL    HW154720   0.214  12.471  10.613
17627SOL    HW254721   0.361  12.502  10.635
17628SOL     OW54722   8.140   1.058   7.432
17628SOL    HW154723   8.075   1.123   7.405
17628SOL    HW254724   8.164   1.084   7.521
17629SOL     OW54725  13.941   6.487  13.899
17629SOL    HW154726  13.933   6.402  13.941
17629SOL    HW254727  13.935   6.550  13.971
17630SOL     OW54728   3.476   2.317   1.105
17630SOL    HW154729   3.467   2.231   1.146
17630SOL    HW254730   3.435   2.378   1.166
17631SOL     OW54731   6.223  13.943  12.113
17631SOL    HW154732   6.153  13.892  12.072
17631SOL    HW254733   6.265  13.988  12.040
17632SOL     OW54734  13.296   7.093  13.121
17632SOL    HW154735  13.283   7.120  13.030
17632SOL    HW254736  13.267   7.167  13.173
17633SOL     OW54737   9.135   1.936   7.170
17633SOL    HW154738   9.074   1.862   7.173
17633SOL    HW254739   9.100   1.999   7.233
17634SOL     OW54740   7.224  10.056  11.626
17634SOL    HW154741   7.259  10.088  11.709
17634SOL    HW254742   7.226   9.961  11.634
17635SOL     OW54743   1.391  11.655  13.359
17635SOL    HW154744   1.353  11.568  13.352
17635SOL    HW254745   1.434  11.669  13.274
17636SOL     OW54746   2.535   3.795   9.394
17636SOL    HW154747   2.611   3.762   9.345
17636SOL    HW254748   2.496   3.717   9.433
17637SOL     OW54749   3.785  12.570   0.080
17637SOL    HW154750   3.777  12.665   0.091
17637SOL    HW254751   3.695  12.540   0.069
17638SOL     OW54752  11.288   0.343   1.142
17638SOL    HW154753  11.326   0.384   1.064
17638SOL    HW254754  11.304   0.250   1.130
17639SOL     OW54755  13.826  14.646   3.352
17639SOL    HW154756  13.869  14.568   3.389
17639SOL    HW254757  13.739  14.646   3.392
17640SOL     OW54758  11.565   3.736   3.767
17640SOL    HW154759  11.581   3.823   3.730
17640SOL    HW254760  11.539   3.752   3.857
17641SOL     OW54761   9.910   0.765   5.783
17641SOL    HW154762   9.962   0.716   5.720
17641SOL    HW254763   9.913   0.712   5.863
17642SOL     OW54764  11.137   7.083   6.044
17642SOL    HW154765  11.197   7.103   5.972
17642SOL    HW254766  11.062   7.041   6.003
17643SOL     OW54767  10.190   7.838  13.284
17643SOL    HW154768  10.192   7.930  13.259
17643SOL    HW254769  10.156   7.837  13.373
17644SOL     OW54770  11.636   6.483   2.495
17644SOL    HW154771  11.692   6.500   2.419
17644SOL    HW254772  11.696   6.482   2.570
17645SOL     OW54773  11.168  11.334  10.004
17645SOL    HW154774  11.203  11.401   9.945
17645SOL    HW254775  11.093  11.376  10.046
17646SOL     OW54776  10.611   9.198   5.562
17646SOL    HW154777  10.564   9.257   5.622
17646SOL    HW254778  10.577   9.111   5.583
17647SOL     OW54779  13.169  11.742  11.773
17647SOL    HW154780  13.148  11.823  11.728
17647SOL    HW254781  13.086  11.711  11.808
17648SOL     OW54782  13.515  13.784  14.573
17648SOL    HW154783  13.449  13.730  14.530
17648SOL    HW254784  13.475  13.870  14.579
17649SOL     OW54785  10.089   6.560   0.693
17649SOL    HW154786  10.136   6.598   0.768
17649SOL    HW254787  10.031   6.495   0.732
17650SOL     OW54788   3.548   3.315   6.108
17650SOL    HW154789   3.485   3.313   6.036
17650SOL    HW254790   3.610   3.384   6.084
17651SOL     OW54791  10.194   4.312  10.585
17651SOL    HW154792  10.111   4.265  10.595
17651SOL    HW254793  10.205   4.321  10.490
17652SOL     OW54794   8.800  12.288  14.388
17652SOL    HW154795   8.821  12.306  14.296
17652SOL    HW254796   8.882  12.301  14.434
17653SOL     OW54797  12.679   3.794   4.757
17653SOL    HW154798  12.690   3.699   4.746
17653SOL    HW254799  12.636   3.803   4.842
17654SOL     OW54800   4.764   5.103   5.438
17654SOL    HW154801   4.790   5.053   5.516
17654SOL    HW254802   4.702   5.046   5.392
17655SOL     OW54803  13.042   0.307   2.270
17655SOL    HW154804  12.996   0.324   2.352
17655SOL    HW254805  12.987   0.347   2.203
17656SOL     OW54806   5.839   7.747  11.709
17656SOL    HW154807   5.929   7.776  11.721
17656SOL    HW254808   5.786   7.825  11.727
17657SOL     OW54809  12.178   9.010  13.258
17657SOL    HW154810  12.235   8.998  13.182
17657SOL    HW254811  12.227   8.972  13.331
17658SOL     OW54812   3.514   8.655   5.719
17658SOL    HW154813   3.576   8.687   5.784
17658SOL    HW254814   3.445   8.613   5.770
17659SOL     OW54815  12.688  14.809  10.894
17659SOL    HW154816  12.620  14.806  10.827
17659SOL    HW254817  12.745  14.881  10.868
17660SOL     OW54818   2.725  13.714   7.578
17660SOL    HW154819   2.699  13.740   7.666
17660SOL    HW254820   2.783  13.639   7.591
17661SOL     OW54821   3.441   9.084   0.173
17661SOL    HW154822   3.414   9.112   0.085
17661SOL    HW254823   3.360   9.060   0.216
17662SOL     OW54824   3.936   2.005   8.190
17662SOL    HW154825   3.972   2.058   8.262
17662SOL    HW254826   3.877   2.065   8.144
17663SOL     OW54827   8.259  11.238   1.897
17663SOL    HW154828   8.318  11.234   1.973
17663SOL    HW254829   8.308  11.288   1.832
17664SOL     OW54830   6.437   6.150   5.586
17664SOL    HW154831   6.494   6.109   5.521
17664SOL    HW254832   6.359   6.175   5.537
17665SOL     OW54833   9.402  10.745   0.022
17665SOL    HW154834   9.318  10.779  14.872
17665SOL    HW254835   9.447  10.716  14.825
17666SOL     OW54836  10.607  11.308  14.156
17666SOL    HW154837  10.645  11.261  14.230
17666SOL    HW254838  10.654  11.391  14.154
17667SOL     OW54839  11.398   3.151  13.883
17667SOL    HW154840  11.404   3.081  13.817
17667SOL    HW254841  11.309   3.184  13.875
17668SOL     OW54842   3.318   9.828  14.581
17668SOL    HW154843   3.240   9.852  14.631
17668SOL    HW254844   3.385   9.889  14.611
17669SOL     OW54845   9.600   9.923   8.435
17669SOL    HW154846   9.507   9.927   8.415
17669SOL    HW254847   9.613   9.837   8.474
17670SOL     OW54848  12.448   2.677   3.690
17670SOL    HW154849  12.392   2.703   3.617
17670SOL    HW254850  12.387   2.650   3.759
17671SOL     OW54851  11.314  10.063   3.763
17671SOL    HW154852  11.397  10.016   3.771
17671SOL    HW254853  11.248  10.000   3.792
17672SOL     OW54854   2.789  11.315  14.655
17672SOL    HW154855   2.727  11.385  14.639
17672SOL    HW254856   2.794  11.309  14.751
17673SOL     OW54857   0.294   1.716  12.536
17673SOL    HW154858   0.324   1.625  12.530
17673SOL    HW254859   0.239   1.718  12.614
17674SOL     OW54860   1.645   3.594   7.505
17674SOL    HW154861   1.629   3.569   7.596
17674SOL    HW254862   1.636   3.513   7.456
17675SOL     OW54863   4.625   0.307   2.127
17675SOL    HW154864   4.619   0.276   2.218
17675SOL    HW254865   4.535   0.302   2.094
17676SOL     OW54866   7.571  12.943  11.755
17676SOL    HW154867   7.608  12.961  11.668
17676SOL    HW254868   7.497  12.885  11.738
17677SOL     OW54869   0.444  14.519   4.002
17677SOL    HW154870   0.359  14.563   4.004
17677SOL    HW254871   0.506  14.586   4.032
17678SOL     OW54872   9.287  14.825   2.158
17678SOL    HW154873   9.291  14.742   2.206
17678SOL    HW254874   9.258  14.801   2.070
17679SOL     OW54875   8.255   4.897  13.875
17679SOL    HW154876   8.200   4.887  13.798
17679SOL    HW254877   8.199   4.874  13.949
17680SOL     OW54878   5.368   8.025  11.083
17680SOL    HW154879   5.354   8.086  11.011
17680SOL    HW254880   5.288   7.972  11.086
17681SOL     OW54881  11.540   1.950   4.051
17681SOL    HW154882  11.470   1.915   4.105
17681SOL    HW254883  11.610   1.885   4.058
17682SOL     OW54884  14.695  11.262   7.550
17682SOL    HW154885  14.709  11.349   7.514
17682SOL    HW254886  14.631  11.221   7.492
17683SOL     OW54887   8.533   8.702  11.831
17683SOL    HW154888   8.472   8.637  11.795
17683SOL    HW254889   8.615   8.687  11.785
17684SOL     OW54890   9.685   6.874  13.715
17684SOL    HW154891   9.625   6.941  13.749
17684SOL    HW254892   9.713   6.826  13.793
17685SOL     OW54893   8.573  13.300   0.908
17685SOL    HW154894   8.640  13.285   0.975
17685SOL    HW254895   8.534  13.214   0.894
17686SOL     OW54896   8.949   4.573   0.495
17686SOL    HW154897   9.039   4.605   0.505
17686SOL    HW254898   8.895   4.652   0.496
17687SOL     OW54899   1.747   1.639  11.041
17687SOL    HW154900   1.695   1.666  10.965
17687SOL    HW254901   1.685   1.595  11.099
17688SOL     OW54902   0.011   4.782   7.824
17688SOL    HW154903   0.043   4.833   7.750
17688SOL    HW254904   0.083   4.722   7.845
17689SOL     OW54905   1.202  14.676  14.288
17689SOL    HW154906   1.210  14.611  14.358
17689SOL    HW254907   1.151  14.747  14.327
17690SOL     OW54908   8.769   7.935   2.126
17690SOL    HW154909   8.824   8.004   2.163
17690SOL    HW254910   8.815   7.908   2.047
17691SOL     OW54911   7.393   4.648  12.596
17691SOL    HW154912   7.327   4.670  12.663
17691SOL    HW254913   7.410   4.731  12.552
17692SOL     OW54914   7.809  13.829  13.899
17692SOL    HW154915   7.776  13.913  13.929
17692SOL    HW254916   7.734  13.770  13.907
17693SOL     OW54917   7.479   4.254   9.349
17693SOL    HW154918   7.559   4.201   9.355
17693SOL    HW254919   7.414   4.202   9.396
17694SOL     OW54920  13.003   9.300   2.690
17694SOL    HW154921  13.026   9.382   2.733
17694SOL    HW254922  13.083   9.247   2.694
17695SOL     OW54923   0.676   1.538   5.220
17695SOL    HW154924   0.585   1.568   5.226
17695SOL    HW254925   0.673   1.446   5.249
17696SOL     OW54926  14.749   3.579   5.416
17696SOL    HW154927  14.777   3.671   5.411
17696SOL    HW254928  14.758   3.547   5.326
17697SOL     OW54929  14.259   5.661  13.341
17697SOL    HW154930  14.205   5.739  13.352
17697SOL    HW254931  14.311   5.679  13.262
17698SOL     OW54932   1.811  12.721  11.586
17698SOL    HW154933   1.740  12.686  11.532
17698SOL    HW254934   1.768  12.782  11.646
17699SOL     OW54935   3.347   2.431   5.307
17699SOL    HW154936   3.319   2.489   5.378
17699SOL    HW254937   3.377   2.352   5.351
17700SOL     OW54938   2.442   1.794   7.192
17700SOL    HW154939   2.383   1.779   7.119
17700SOL    HW254940   2.386   1.822   7.264
17701SOL     OW54941   0.748   6.819   3.725
17701SOL    HW154942   0.685   6.890   3.715
17701SOL    HW254943   0.731   6.761   3.651
17702SOL     OW54944   4.543   0.207   8.613
17702SOL    HW154945   4.564   0.152   8.537
17702SOL    HW254946   4.487   0.276   8.578
17703SOL     OW54947   4.852  14.472   7.511
17703SOL    HW154948   4.923  14.461   7.447
17703SOL    HW254949   4.772  14.461   7.460
17704SOL     OW54950   0.713   3.560  12.990
17704SOL    HW154951   0.807   3.553  13.010
17704SOL    HW254952   0.708   3.625  12.920
17705SOL     OW54953   1.724   8.382   5.630
17705SOL    HW154954   1.659   8.361   5.697
17705SOL    HW254955   1.805   8.341   5.661
17706SOL     OW54956   3.322   3.619   3.356
17706SOL    HW154957   3.371   3.656   3.429
17706SOL    HW254958   3.253   3.684   3.339
17707SOL     OW54959   1.900  12.870   4.504
17707SOL    HW154960   1.890  12.925   4.582
17707SOL    HW254961   1.994  12.850   4.501
17708SOL     OW54962  14.780   8.074   7.293
17708SOL    HW154963  14.817   8.027   7.218
17708SOL    HW254964  14.819   8.033   7.369
17709SOL     OW54965   7.103  10.538   2.339
17709SOL    HW154966   7.154  10.561   2.262
17709SOL    HW254967   7.133  10.450   2.362
17710SOL     OW54968  11.134  10.237   9.276
17710SOL    HW154969  11.078  10.296   9.225
17710SOL    HW254970  11.206  10.215   9.217
17711SOL     OW54971   3.513   3.758   3.927
17711SOL    HW154972   3.572   3.781   3.856
17711SOL    HW254973   3.483   3.842   3.962
17712SOL     OW54974   6.409  10.611   5.964
17712SOL    HW154975   6.396  10.523   6.000
17712SOL    HW254976   6.323  10.639   5.935
17713SOL     OW54977   4.335   4.871   9.143
17713SOL    HW154978   4.371   4.916   9.066
17713SOL    HW254979   4.255   4.829   9.111
17714SOL     OW54980   5.343   0.705   0.745
17714SOL    HW154981   5.298   0.663   0.672
17714SOL    HW254982   5.280   0.702   0.817
17715SOL     OW54983   4.239  11.551   0.462
17715SOL    HW154984   4.249  11.570   0.368
17715SOL    HW254985   4.256  11.457   0.469
17716SOL     OW54986   3.075   9.239   2.705
17716SOL    HW154987   3.113   9.160   2.743
17716SOL    HW254988   3.039   9.287   2.780
17717SOL     OW54989   5.516   3.979  12.912
17717SOL    HW154990   5.564   3.937  12.841
17717SOL    HW254991   5.543   4.071  12.908
17718SOL     OW54992   6.518   2.858   2.571
17718SOL    HW154993   6.455   2.914   2.526
17718SOL    HW254994   6.466   2.807   2.632
17719SOL     OW54995   6.151   7.424   1.857
17719SOL    HW154996   6.124   7.415   1.949
17719SOL    HW254997   6.171   7.335   1.829
17720SOL     OW54998   1.782   6.424   1.400
17720SOL    HW154999   1.771   6.330   1.414
17720SOL    HW255000   1.829   6.454   1.478
17721SOL     OW55001   8.880   6.779   2.166
17721SOL    HW155002   8.836   6.858   2.134
17721SOL    HW255003   8.808   6.720   2.190
17722SOL     OW55004   0.396  10.202   6.355
17722SOL    HW155005   0.301  10.194   6.342
17722SOL    HW255006   0.434  10.184   6.269
17723SOL     OW55007   7.068   3.682   8.107
17723SOL    HW155008   7.023   3.761   8.077
17723SOL    HW255009   7.050   3.677   8.200
17724SOL     OW55010   5.614  12.027   7.156
17724SOL    HW155011   5.620  12.024   7.060
17724SOL    HW255012   5.705  12.038   7.185
17725SOL     OW55013   4.026   2.572   2.723
17725SOL    HW155014   4.077   2.653   2.728
17725SOL    HW255015   3.948   2.596   2.672
17726SOL     OW55016   9.379  13.191   6.406
17726SOL    HW155017   9.404  13.251   6.476
17726SOL    HW255018   9.415  13.230   6.327
17727SOL     OW55019  14.311   7.886  14.606
17727SOL    HW155020  14.305   7.963  14.549
17727SOL    HW255021  14.319   7.923  14.694
17728SOL     OW55022  12.645   5.516   7.798
17728SOL    HW155023  12.688   5.434   7.824
17728SOL    HW255024  12.670   5.579   7.865
17729SOL     OW55025   3.716  12.566  13.793
17729SOL    HW155026   3.671  12.490  13.755
17729SOL    HW255027   3.647  12.632  13.801
17730SOL     OW55028  11.466  13.708  13.890
17730SOL    HW155029  11.414  13.741  13.816
17730SOL    HW255030  11.533  13.653  13.850
17731SOL     OW55031  13.319   9.788   1.035
17731SOL    HW155032  13.258   9.840   0.983
17731SOL    HW255033  13.364   9.734   0.971
17732SOL     OW55034   3.412  10.786   2.084
17732SOL    HW155035   3.448  10.844   2.151
17732SOL    HW255036   3.481  10.779   2.018
17733SOL     OW55037   7.071  11.275  12.995
17733SOL    HW155038   7.119  11.234  12.923
17733SOL    HW255039   7.089  11.368  12.987
17734SOL     OW55040   2.966  10.450   9.652
17734SOL    HW155041   3.024  10.524   9.638
17734SOL    HW255042   3.016  10.374   9.619
17735SOL     OW55043  13.840   0.982  11.515
17735SOL    HW155044  13.785   0.915  11.475
17735SOL    HW255045  13.779   1.037  11.565
17736SOL     OW55046   6.694   7.234   5.853
17736SOL    HW155047   6.669   7.204   5.766
17736SOL    HW255048   6.784   7.203   5.864
17737SOL     OW55049   6.662   9.154   2.254
17737SOL    HW155050   6.593   9.189   2.197
17737SOL    HW255051   6.677   9.223   2.318
17738SOL     OW55052  11.418   2.682   6.819
17738SOL    HW155053  11.441   2.682   6.912
17738SOL    HW255054  11.399   2.590   6.800
17739SOL     OW55055  13.990   4.305   1.890
17739SOL    HW155056  13.969   4.377   1.830
17739SOL    HW255057  13.906   4.263   1.907
17740SOL     OW55058  12.220  11.698   1.392
17740SOL    HW155059  12.190  11.730   1.477
17740SOL    HW255060  12.198  11.768   1.331
17741SOL     OW55061   6.231  13.168   1.420
17741SOL    HW155062   6.185  13.115   1.355
17741SOL    HW255063   6.162  13.197   1.479
17742SOL     OW55064  11.740   2.739  12.367
17742SOL    HW155065  11.726   2.721  12.460
17742SOL    HW255066  11.680   2.679  12.322
17743SOL     OW55067   8.294   2.710   4.645
17743SOL    HW155068   8.321   2.793   4.606
17743SOL    HW255069   8.207   2.726   4.680
17744SOL     OW55070  11.757  14.262   1.382
17744SOL    HW155071  11.716  14.332   1.331
17744SOL    HW255072  11.710  14.264   1.466
17745SOL     OW55073  13.266  14.141   4.010
17745SOL    HW155074  13.348  14.120   3.965
17745SOL    HW255075  13.206  14.166   3.940
17746SOL     OW55076   5.946   9.106   3.711
17746SOL    HW155077   5.933   9.135   3.621
17746SOL    HW255078   5.929   9.012   3.708
17747SOL     OW55079   1.007   0.486   9.013
17747SOL    HW155080   1.087   0.493   8.961
17747SOL    HW255081   0.985   0.576   9.035
17748SOL     OW55082   0.076   3.174   6.895
17748SOL    HW155083   0.047   3.236   6.828
17748SOL    HW255084   0.050   3.214   6.978
17749SOL     OW55085   9.647   6.979   5.614
17749SOL    HW155086   9.637   6.944   5.703
17749SOL    HW255087   9.580   6.933   5.563
17750SOL     OW55088   2.270   1.533   0.023
17750SOL    HW155089   2.327   1.546   0.099
17750SOL    HW255090   2.261   1.620  14.866
17751SOL     OW55091  10.394   5.392  11.087
17751SOL    HW155092  10.319   5.336  11.070
17751SOL    HW255093  10.364   5.454  11.154
17752SOL     OW55094   7.508   4.099  14.036
17752SOL    HW155095   7.518   4.112  13.941
17752SOL    HW255096   7.423   4.137  14.056
17753SOL     OW55097   8.529   7.428  11.499
17753SOL    HW155098   8.517   7.336  11.476
17753SOL    HW255099   8.440   7.463  11.508
17754SOL     OW55100  10.722   8.457   1.461
17754SOL    HW155101  10.707   8.541   1.418
17754SOL    HW255102  10.663   8.458   1.536
17755SOL     OW55103  10.207   3.506   3.982
17755SOL    HW155104  10.129   3.537   4.027
17755SOL    HW255105  10.175   3.448   3.914
17756SOL     OW55106   8.051   1.764   1.779
17756SOL    HW155107   8.144   1.745   1.767
17756SOL    HW255108   8.033   1.740   1.870
17757SOL     OW55109  11.592  14.869  12.285
17757SOL    HW155110  11.499   0.012  12.286
17757SOL    HW255111  11.593  14.781  12.247
17758SOL     OW55112  14.412  14.527   5.231
17758SOL    HW155113  14.482  14.505   5.170
17758SOL    HW255114  14.332  14.522   5.178
17759SOL     OW55115   1.592   9.861   8.536
17759SOL    HW155116   1.523   9.923   8.559
17759SOL    HW255117   1.621   9.825   8.620
17760SOL     OW55118   8.541   7.793  11.798
17760SOL    HW155119   8.507   7.879  11.772
17760SOL    HW255120   8.577   7.756  11.718
17761SOL     OW55121   2.015   2.926  14.814
17761SOL    HW155122   1.986   2.895  14.728
17761SOL    HW255123   2.098   2.971  14.797
17762SOL     OW55124   9.123   6.702   6.834
17762SOL    HW155125   9.086   6.622   6.872
17762SOL    HW255126   9.208   6.676   6.800
17763SOL     OW55127   0.848   9.188  11.951
17763SOL    HW155128   0.828   9.278  11.925
17763SOL    HW255129   0.917   9.196  12.016
17764SOL     OW55130   7.674   3.966   6.902
17764SOL    HW155131   7.594   4.016   6.909
17764SOL    HW255132   7.715   3.973   6.988
17765SOL     OW55133   6.682   2.543   2.452
17765SOL    HW155134   6.671   2.623   2.399
17765SOL    HW255135   6.752   2.495   2.409
17766SOL     OW55136   7.388   3.906   6.632
17766SOL    HW155137   7.392   3.856   6.714
17766SOL    HW255138   7.446   3.857   6.573
17767SOL     OW55139  12.710   7.814   9.344
17767SOL    HW155140  12.651   7.844   9.274
17767SOL    HW255141  12.660   7.828   9.424
17768SOL     OW55142   9.805   5.209  10.167
17768SOL    HW155143   9.891   5.215  10.208
17768SOL    HW255144   9.744   5.202  10.241
17769SOL     OW55145  12.224  11.979   6.691
17769SOL    HW155146  12.130  11.975   6.673
17769SOL    HW255147  12.236  11.922   6.767
17770SOL     OW55148  12.075   0.032   9.549
17770SOL    HW155149  12.102  14.869   9.469
17770SOL    HW255150  12.065  14.844   9.614
17771SOL     OW55151   4.849   8.531   9.175
17771SOL    HW155152   4.879   8.499   9.260
17771SOL    HW255153   4.769   8.482   9.158
17772SOL     OW55154  13.848   1.556   4.913
17772SOL    HW155155  13.778   1.576   4.852
17772SOL    HW255156  13.807   1.560   5.000
17773SOL     OW55157   3.145  10.118   4.627
17773SOL    HW155158   3.151  10.029   4.593
17773SOL    HW255159   3.084  10.111   4.701
17774SOL     OW55160  11.767  12.048   7.849
17774SOL    HW155161  11.859  12.058   7.871
17774SOL    HW255162  11.753  11.953   7.845
17775SOL     OW55163  13.991  11.278   3.550
17775SOL    HW155164  13.953  11.345   3.492
17775SOL    HW255165  14.069  11.248   3.505
17776SOL     OW55166   2.014   9.990   4.982
17776SOL    HW155167   1.927   9.967   5.013
17776SOL    HW255168   2.043   9.914   4.933
17777SOL     OW55169   6.776  10.618   7.621
17777SOL    HW155170   6.837  10.691   7.636
17777SOL    HW255171   6.813  10.570   7.548
17778SOL     OW55172   9.031   6.719   4.378
17778SOL    HW155173   9.060   6.709   4.469
17778SOL    HW255174   8.956   6.778   4.382
17779SOL     OW55175   6.051   8.954  10.034
17779SOL    HW155176   6.091   9.006   9.964
17779SOL    HW255177   5.958   8.978  10.032
17780SOL     OW55178   8.333  13.097  12.907
17780SOL    HW155179   8.418  13.117  12.867
17780SOL    HW255180   8.311  13.010  12.873
17781SOL     OW55181   9.410   7.205  13.238
17781SOL    HW155182   9.454   7.208  13.154
17781SOL    HW255183   9.431   7.288  13.280
17782SOL     OW55184   9.812  14.342  10.441
17782SOL    HW155185   9.841  14.381  10.523
17782SOL    HW255186   9.867  14.265  10.430
17783SOL     OW55187   9.842   9.888  14.513
17783SOL    HW155188   9.840   9.929  14.599
17783SOL    HW255189   9.851   9.961  14.452
17784SOL     OW55190  12.775   1.799   2.166
17784SOL    HW155191  12.816   1.714   2.180
17784SOL    HW255192  12.715   1.809   2.240
17785SOL     OW55193  12.262   5.822   4.423
17785SOL    HW155194  12.176   5.850   4.454
17785SOL    HW255195  12.309   5.795   4.501
17786SOL     OW55196   3.678   2.263   3.743
17786SOL    HW155197   3.603   2.307   3.702
17786SOL    HW255198   3.708   2.325   3.809
17787SOL     OW55199   2.481   5.662  11.108
17787SOL    HW155200   2.437   5.743  11.134
17787SOL    HW255201   2.409   5.601  11.088
17788SOL     OW55202   3.965  10.436   1.970
17788SOL    HW155203   3.961  10.342   1.989
17788SOL    HW255204   4.045  10.446   1.918
17789SOL     OW55205  14.776   4.233  12.268
17789SOL    HW155206  14.684   4.249  12.246
17789SOL    HW255207  14.820   4.233  12.183
17790SOL     OW55208   3.402   0.800  14.189
17790SOL    HW155209   3.474   0.739  14.202
17790SOL    HW255210   3.324   0.751  14.215
17791SOL     OW55211   8.361  13.820   9.242
17791SOL    HW155212   8.278  13.819   9.194
17791SOL    HW255213   8.340  13.863   9.325
17792SOL     OW55214   5.621   2.847   4.823
17792SOL    HW155215   5.576   2.930   4.812
17792SOL    HW255216   5.551   2.781   4.820
17793SOL     OW55217   1.634  14.038   6.657
17793SOL    HW155218   1.636  13.946   6.630
17793SOL    HW255219   1.610  14.086   6.577
17794SOL     OW55220   4.725   0.767   7.299
17794SOL    HW155221   4.758   0.679   7.279
17794SOL    HW255222   4.633   0.752   7.324
17795SOL     OW55223   8.986   7.859  10.172
17795SOL    HW155224   8.942   7.885  10.254
17795SOL    HW255225   9.062   7.809  10.201
17796SOL     OW55226  10.760   1.335   3.797
17796SOL    HW155227  10.760   1.386   3.877
17796SOL    HW255228  10.723   1.394   3.731
17797SOL     OW55229   5.059   4.276   7.235
17797SOL    HW155230   5.017   4.282   7.149
17797SOL    HW255231   5.121   4.348   7.237
17798SOL     OW55232  11.830   7.204   5.261
17798SOL    HW155233  11.798   7.132   5.206
17798SOL    HW255234  11.761   7.215   5.327
17799SOL     OW55235   7.608   9.932   5.185
17799SOL    HW155236   7.555   9.968   5.257
17799SOL    HW255237   7.545   9.887   5.129
17800SOL     OW55238   2.373   7.194   8.898
17800SOL    HW155239   2.408   7.282   8.890
17800SOL    HW255240   2.439   7.146   8.948
17801SOL     OW55241  12.077   9.240   7.016
17801SOL    HW155242  11.996   9.291   7.022
17801SOL    HW255243  12.072   9.196   6.932
17802SOL     OW55244   0.960  14.313   1.370
17802SOL    HW155245   0.921  14.253   1.433
17802SOL    HW255246   1.035  14.266   1.334
17803SOL     OW55247   7.173   7.645  10.795
17803SOL    HW155248   7.137   7.586  10.729
17803SOL    HW255249   7.142   7.732  10.768
17804SOL     OW55250   4.207  11.325   8.367
17804SOL    HW155251   4.219  11.242   8.414
17804SOL    HW255252   4.243  11.391   8.426
17805SOL     OW55253   2.824   1.379   3.916
17805SOL    HW155254   2.824   1.346   4.006
17805SOL    HW255255   2.822   1.301   3.861
17806SOL     OW55256   9.484   8.440  10.708
17806SOL    HW155257   9.413   8.462  10.648
17806SOL    HW255258   9.452   8.466  10.794
17807SOL     OW55259   0.031   7.888  11.420
17807SOL    HW155260   0.075   7.926  11.344
17807SOL    HW255261   0.102   7.863  11.480
17808SOL     OW55262  10.078   7.335   0.899
17808SOL    HW155263  10.051   7.361   0.811
17808SOL    HW255264  10.093   7.240   0.893
17809SOL     OW55265   3.676  12.640   3.176
17809SOL    HW155266   3.746  12.643   3.241
17809SOL    HW255267   3.607  12.588   3.217
17810SOL     OW55268   5.049   5.995   3.253
17810SOL    HW155269   5.137   6.029   3.236
17810SOL    HW255270   5.021   6.040   3.333
17811SOL     OW55271   0.080   5.646   3.239
17811SOL    HW155272   0.051   5.698   3.164
17811SOL    HW255273   0.071   5.706   3.313
17812SOL     OW55274   6.134   6.275   9.249
17812SOL    HW155275   6.056   6.264   9.304
17812SOL    HW255276   6.206   6.287   9.311
17813SOL     OW55277  14.156  12.041  11.697
17813SOL    HW155278  14.205  12.121  11.715
17813SOL    HW255279  14.091  12.036  11.767
17814SOL     OW55280   1.766   0.766   7.731
17814SOL    HW155281   1.751   0.855   7.701
17814SOL    HW255282   1.808   0.776   7.817
17815SOL     OW55283  11.947   4.305   4.564
17815SOL    HW155284  11.891   4.351   4.503
17815SOL    HW255285  11.984   4.374   4.620
17816SOL     OW55286   1.308   8.567   5.691
17816SOL    HW155287   1.356   8.649   5.694
17816SOL    HW255288   1.350   8.512   5.757
17817SOL     OW55289   3.461   3.699  14.506
17817SOL    HW155290   3.404   3.653  14.567
17817SOL    HW255291   3.519   3.751  14.561
17818SOL     OW55292  12.095   9.759   7.029
17818SOL    HW155293  12.135   9.788   7.110
17818SOL    HW255294  12.112   9.665   7.025
17819SOL     OW55295   6.237   5.398   9.965
17819SOL    HW155296   6.302   5.437   9.908
17819SOL    HW255297   6.281   5.321  10.002
17820SOL     OW55298   8.934  10.980  10.360
17820SOL    HW155299   8.919  11.018  10.447
17820SOL    HW255300   8.849  10.986  10.317
17821SOL     OW55301  11.896  11.400   1.095
17821SOL    HW155302  11.841  11.414   1.173
17821SOL    HW255303  11.837  11.417   1.022
17822SOL     OW55304   5.183   3.553   8.524
17822SOL    HW155305   5.276   3.542   8.503
17822SOL    HW255306   5.137   3.496   8.462
17823SOL     OW55307   1.499  13.472   7.315
17823SOL    HW155308   1.543  13.551   7.345
17823SOL    HW255309   1.433  13.503   7.253
17824SOL     OW55310   7.009   0.475  10.239
17824SOL    HW155311   7.013   0.394  10.290
17824SOL    HW255312   7.097   0.484  10.201
17825SOL     OW55313   7.016   6.425   3.886
17825SOL    HW155314   7.108   6.450   3.887
17825SOL    HW255315   6.972   6.492   3.939
17826SOL     OW55316  14.650   7.015   1.524
17826SOL    HW155317  14.665   7.106   1.549
17826SOL    HW255318  14.633   7.019   1.430
17827SOL     OW55319   6.467   0.107   9.824
17827SOL    HW155320   6.403   0.042   9.796
17827SOL    HW255321   6.471   0.170   9.752
17828SOL     OW55322  13.741  11.217  13.912
17828SOL    HW155323  13.739  11.310  13.891
17828SOL    HW255324  13.832  11.191  13.893
17829SOL     OW55325   3.357  10.099   1.516
17829SOL    HW155326   3.309  10.083   1.598
17829SOL    HW255327   3.364  10.013   1.475
17830SOL     OW55328   7.429   7.349   9.857
17830SOL    HW155329   7.518   7.383   9.844
17830SOL    HW255330   7.394   7.403   9.928
17831SOL     OW55331   9.322   0.326  12.228
17831SOL    HW155332   9.327   0.340  12.134
17831SOL    HW255333   9.404   0.281  12.250
17832SOL     OW55334   4.775  12.422  14.578
17832SOL    HW155335   4.793  12.378  14.661
17832SOL    HW255336   4.856  12.412  14.528
17833SOL     OW55337   1.474   4.851   9.945
17833SOL    HW155338   1.499   4.901  10.022
17833SOL    HW255339   1.380   4.836   9.956
17834SOL     OW55340   8.231   2.962  10.118
17834SOL    HW155341   8.297   3.012  10.070
17834SOL    HW255342   8.281   2.919  10.188
17835SOL     OW55343  11.499  10.316  14.842
17835SOL    HW155344  11.545  10.296   0.041
17835SOL    HW255345  11.407  10.321  14.868
17836SOL     OW55346   7.205   2.059   2.242
17836SOL    HW155347   7.230   2.149   2.220
17836SOL    HW255348   7.119   2.047   2.203
17837SOL     OW55349   1.676   5.725   5.221
17837SOL    HW155350   1.764   5.723   5.182
17837SOL    HW255351   1.628   5.789   5.168
17838SOL     OW55352   8.052   0.372   9.309
17838SOL    HW155353   7.986   0.387   9.242
17838SOL    HW255354   8.107   0.302   9.274
17839SOL     OW55355   8.528   2.465   9.755
17839SOL    HW155356   8.573   2.402   9.812
17839SOL    HW255357   8.507   2.539   9.812
17840SOL     OW55358   3.751   0.850  13.460
17840SOL    HW155359   3.745   0.934  13.505
17840SOL    HW255360   3.672   0.803  13.484
17841SOL     OW55361  10.268   7.585   4.259
17841SOL    HW155362  10.308   7.567   4.173
17841SOL    HW255363  10.285   7.506   4.310
17842SOL     OW55364   8.451   6.571  14.836
17842SOL    HW155365   8.519   6.556   0.019
17842SOL    HW255366   8.469   6.658  14.801
17843SOL     OW55367   1.845   9.522   7.757
17843SOL    HW155368   1.759   9.556   7.732
17843SOL    HW255369   1.865   9.457   7.690
17844SOL     OW55370  12.550   8.118   7.914
17844SOL    HW155371  12.497   8.063   7.972
17844SOL    HW255372  12.504   8.116   7.831
17845SOL     OW55373   2.616   7.591   2.235
17845SOL    HW155374   2.705   7.617   2.211
17845SOL    HW255375   2.602   7.631   2.321
17846SOL     OW55376   4.163   2.457  13.732
17846SOL    HW155377   4.184   2.371  13.697
17846SOL    HW255378   4.071   2.471  13.708
17847SOL     OW55379   9.698  14.030   6.579
17847SOL    HW155380   9.707  13.957   6.640
17847SOL    HW255381   9.785  14.041   6.542
17848SOL     OW55382   8.398   8.935   1.034
17848SOL    HW155383   8.492   8.935   1.016
17848SOL    HW255384   8.360   8.881   0.965
17849SOL     OW55385  13.163   4.687  13.615
17849SOL    HW155386  13.209   4.635  13.681
17849SOL    HW255387  13.080   4.710  13.656
17850SOL     OW55388   9.823   7.463   0.175
17850SOL    HW155389   9.889   7.495   0.114
17850SOL    HW255390   9.873   7.422   0.245
17851SOL     OW55391   9.810  12.839   4.335
17851SOL    HW155392   9.857  12.892   4.270
17851SOL    HW255393   9.844  12.750   4.323
17852SOL     OW55394  10.041   7.321   4.008
17852SOL    HW155395  10.072   7.379   3.939
17852SOL    HW255396  10.032   7.378   4.085
17853SOL     OW55397  11.437   9.598   8.856
17853SOL    HW155398  11.375   9.609   8.784
17853SOL    HW255399  11.522   9.587   8.814
17854SOL     OW55400   3.641   6.630   4.270
17854SOL    HW155401   3.673   6.621   4.359
17854SOL    HW255402   3.548   6.608   4.275
17855SOL     OW55403   3.634   3.022  10.129
17855SOL    HW155404   3.723   3.022  10.165
17855SOL    HW255405   3.578   3.046  10.203
17856SOL     OW55406   9.596   7.465   0.701
17856SOL    HW155407   9.501   7.449   0.706
17856SOL    HW255408   9.605   7.531   0.633
17857SOL     OW55409   9.196  13.717   1.399
17857SOL    HW155410   9.149  13.641   1.435
17857SOL    HW255411   9.270  13.679   1.352
17858SOL     OW55412  14.455   3.864   4.601
17858SOL    HW155413  14.445   3.772   4.574
17858SOL    HW255414  14.550   3.877   4.606
17859SOL     OW55415   1.328   3.791  11.984
17859SOL    HW155416   1.255   3.837  11.943
17859SOL    HW255417   1.296   3.701  11.995
17860SOL     OW55418  12.990  14.791   1.113
17860SOL    HW155419  12.896  14.787   1.094
17860SOL    HW255420  12.998  14.761   1.203
17861SOL     OW55421   6.807  11.093   4.474
17861SOL    HW155422   6.744  11.036   4.429
17861SOL    HW255423   6.854  11.137   4.403
17862SOL     OW55424  12.750  12.440   6.267
17862SOL    HW155425  12.753  12.427   6.362
17862SOL    HW255426  12.756  12.351   6.231
17863SOL     OW55427   2.804  13.507   7.012
17863SOL    HW155428   2.819  13.418   7.044
17863SOL    HW255429   2.869  13.519   6.943
17864SOL     OW55430   1.644  10.348  13.349
17864SOL    HW155431   1.568  10.406  13.354
17864SOL    HW255432   1.611  10.268  13.310
17865SOL     OW55433   5.699   9.328  12.772
17865SOL    HW155434   5.739   9.248  12.738
17865SOL    HW255435   5.761   9.360  12.838
17866SOL     OW55436  11.858   7.702  11.329
17866SOL    HW155437  11.816   7.624  11.293
17866SOL    HW255438  11.854   7.767  11.259
17867SOL     OW55439   6.696   7.498   0.021
17867SOL    HW155440   6.744   7.551   0.084
17867SOL    HW255441   6.604   7.511   0.043
17868SOL     OW55442   9.566   9.086   1.475
17868SOL    HW155443   9.595   9.031   1.402
17868SOL    HW255444   9.517   9.027   1.532
17869SOL     OW55445   6.503   1.063  11.680
17869SOL    HW155446   6.451   1.142  11.666
17869SOL    HW255447   6.549   1.050  11.597
17870SOL     OW55448   2.959  12.233   2.927
17870SOL    HW155449   2.899  12.160   2.918
17870SOL    HW255450   2.949  12.261   3.019
17871SOL     OW55451   4.062   0.286   4.709
17871SOL    HW155452   4.050   0.356   4.773
17871SOL    HW255453   4.127   0.321   4.648
17872SOL     OW55454   1.715  11.008   3.781
17872SOL    HW155455   1.793  10.983   3.832
17872SOL    HW255456   1.743  11.004   3.690
17873SOL     OW55457   0.638  12.665  12.170
17873SOL    HW155458   0.669  12.634  12.085
17873SOL    HW255459   0.604  12.753  12.152
17874SOL     OW55460   2.708   1.627  13.747
17874SOL    HW155461   2.689   1.565  13.818
17874SOL    HW255462   2.637   1.614  13.684
17875SOL     OW55463   9.508   9.801   4.503
17875SOL    HW155464   9.563   9.816   4.426
17875SOL    HW255465   9.449   9.731   4.475
17876SOL     OW55466  10.279   1.380   8.213
17876SOL    HW155467  10.374   1.395   8.212
17876SOL    HW255468  10.255   1.389   8.305
17877SOL     OW55469  13.011   2.305   2.824
17877SOL    HW155470  12.984   2.388   2.784
17877SOL    HW255471  13.041   2.252   2.751
17878SOL     OW55472   2.291   6.410  11.117
17878SOL    HW155473   2.273   6.384  11.027
17878SOL    HW255474   2.333   6.496  11.110
17879SOL     OW55475   6.870   2.542  13.587
17879SOL    HW155476   6.941   2.499  13.635
17879SOL    HW255477   6.830   2.472  13.536
17880SOL     OW55478   2.446  10.524  13.839
17880SOL    HW155479   2.511  10.482  13.783
17880SOL    HW255480   2.482  10.516  13.927
17881SOL     OW55481  12.838   5.424   7.973
17881SOL    HW155482  12.857   5.420   8.067
17881SOL    HW255483  12.918   5.458   7.934
17882SOL     OW55484   7.234   5.344   8.692
17882SOL    HW155485   7.316   5.309   8.729
17882SOL    HW255486   7.219   5.290   8.614
17883SOL     OW55487   3.664   6.113  13.824
17883SOL    HW155488   3.684   6.021  13.839
17883SOL    HW255489   3.671   6.124  13.730
17884SOL     OW55490   4.164   8.426  12.526
17884SOL    HW155491   4.163   8.335  12.496
17884SOL    HW255492   4.107   8.427  12.602
17885SOL     OW55493   9.464   9.546   3.447
17885SOL    HW155494   9.531   9.495   3.493
17885SOL    HW255495   9.420   9.482   3.391
17886SOL     OW55496   8.796  11.205  11.761
17886SOL    HW155497   8.805  11.219  11.855
17886SOL    HW255498   8.795  11.110  11.750
17887SOL     OW55499  11.796   3.451   7.550
17887SOL    HW155500  11.713   3.499   7.561
17887SOL    HW255501  11.783   3.370   7.598
17888SOL     OW55502   3.417   1.868  13.564
17888SOL    HW155503   3.366   1.892  13.487
17888SOL    HW255504   3.403   1.940  13.626
17889SOL     OW55505  13.324  10.998   9.797
17889SOL    HW155506  13.371  11.073   9.759
17889SOL    HW255507  13.246  10.990   9.743
17890SOL     OW55508   8.985   9.665   4.491
17890SOL    HW155509   9.035   9.605   4.436
17890SOL    HW255510   9.052   9.711   4.543
17891SOL     OW55511   3.264   8.102   1.073
17891SOL    HW155512   3.318   8.077   1.148
17891SOL    HW255513   3.185   8.049   1.083
17892SOL     OW55514   0.716   0.326  12.665
17892SOL    HW155515   0.725   0.383  12.741
17892SOL    HW255516   0.628   0.342  12.633
17893SOL     OW55517  14.861  12.736   7.834
17893SOL    HW155518   0.066  12.770   7.814
17893SOL    HW255519  14.850  12.663   7.774
17894SOL     OW55520   2.988   1.000   8.545
17894SOL    HW155521   3.065   0.947   8.524
17894SOL    HW255522   3.015   1.052   8.621
17895SOL     OW55523  14.486   2.403  14.728
17895SOL    HW155524  14.480   2.310  14.709
17895SOL    HW255525  14.409   2.441  14.685
17896SOL     OW55526  12.827   5.046   5.006
17896SOL    HW155527  12.802   5.044   5.099
17896SOL    HW255528  12.899   4.983   5.000
17897SOL     OW55529  11.250   7.405   4.849
17897SOL    HW155530  11.325   7.414   4.790
17897SOL    HW255531  11.287   7.412   4.937
17898SOL     OW55532  12.714  11.194  12.785
17898SOL    HW155533  12.632  11.226  12.747
17898SOL    HW255534  12.771  11.270  12.787
17899SOL     OW55535  11.589   4.155  12.161
17899SOL    HW155536  11.669   4.164  12.212
17899SOL    HW255537  11.619   4.141  12.071
17900SOL     OW55538   7.200   8.828   5.644
17900SOL    HW155539   7.169   8.877   5.720
17900SOL    HW255540   7.254   8.758   5.681
17901SOL     OW55541  13.732  12.380  10.076
17901SOL    HW155542  13.653  12.360  10.026
17901SOL    HW255543  13.713  12.463  10.120
17902SOL     OW55544  10.544   9.587   9.796
17902SOL    HW155545  10.580   9.590   9.707
17902SOL    HW255546  10.452   9.611   9.786
17903SOL     OW55547   3.613   6.631  10.634
17903SOL    HW155548   3.554   6.593  10.698
17903SOL    HW255549   3.696   6.643  10.681
17904SOL     OW55550  13.853   5.843  11.349
17904SOL    HW155551  13.850   5.929  11.307
17904SOL    HW255552  13.946   5.828  11.367
17905SOL     OW55553   5.653   2.772   2.326
17905SOL    HW155554   5.577   2.829   2.315
17905SOL    HW255555   5.687   2.794   2.413
17906SOL     OW55556   2.163  13.909   0.617
17906SOL    HW155557   2.244  13.959   0.615
17906SOL    HW255558   2.094  13.976   0.625
17907SOL     OW55559   9.330  13.624  10.686
17907SOL    HW155560   9.392  13.555  10.710
17907SOL    HW255561   9.384  13.703  10.680
17908SOL     OW55562   1.921   5.917  11.040
17908SOL    HW155563   1.828   5.939  11.049
17908SOL    HW255564   1.923   5.822  11.036
17909SOL     OW55565   4.805  10.091   4.269
17909SOL    HW155566   4.854  10.155   4.319
17909SOL    HW255567   4.825  10.109   4.177
17910SOL     OW55568   2.298  11.697  14.052
17910SOL    HW155569   2.313  11.754  14.128
17910SOL    HW255570   2.337  11.744  13.979
17911SOL     OW55571   5.512   2.862   9.605
17911SOL    HW155572   5.464   2.780   9.613
17911SOL    HW255573   5.450   2.929   9.635
17912SOL     OW55574  10.271   8.329   2.206
17912SOL    HW155575  10.336   8.370   2.149
17912SOL    HW255576  10.311   8.248   2.234
17913SOL     OW55577  12.913   9.253  10.059
17913SOL    HW155578  12.844   9.195  10.027
17913SOL    HW255579  12.938   9.306   9.983
17914SOL     OW55580  13.918  10.669  11.860
17914SOL    HW155581  13.840  10.686  11.914
17914SOL    HW255582  13.989  10.660  11.923
17915SOL     OW55583   8.393   9.229  10.820
17915SOL    HW155584   8.381   9.137  10.799
17915SOL    HW255585   8.317   9.273  10.782
17916SOL     OW55586   8.870   7.070  14.785
17916SOL    HW155587   8.847   7.036  14.872
17916SOL    HW255588   8.786   7.076  14.739
17917SOL     OW55589   7.992   6.849  13.782
17917SOL    HW155590   8.043   6.774  13.813
17917SOL    HW255591   7.955   6.888  13.861
17918SOL     OW55592   3.145   4.605  13.470
17918SOL    HW155593   3.134   4.614  13.565
17918SOL    HW255594   3.123   4.513  13.453
17919SOL     OW55595   3.190   7.114   2.768
17919SOL    HW155596   3.173   7.155   2.853
17919SOL    HW255597   3.241   7.035   2.789
17920SOL     OW55598  12.849   6.138   2.487
17920SOL    HW155599  12.832   6.165   2.578
17920SOL    HW255600  12.874   6.046   2.493
17921SOL     OW55601  10.155  11.001   1.885
17921SOL    HW155602  10.066  10.975   1.908
17921SOL    HW255603  10.190  10.928   1.834
17922SOL     OW55604   2.070   0.095   8.683
17922SOL    HW155605   1.983   0.105   8.644
17922SOL    HW255606   2.109   0.022   8.635
17923SOL     OW55607   0.482  12.289   6.397
17923SOL    HW155608   0.405  12.293   6.453
17923SOL    HW255609   0.450  12.248   6.316
17924SOL     OW55610   7.096   6.212   6.453
17924SOL    HW155611   7.032   6.168   6.397
17924SOL    HW255612   7.176   6.214   6.401
17925SOL     OW55613   5.225   0.348   5.165
17925SOL    HW155614   5.319   0.342   5.181
17925SOL    HW255615   5.203   0.269   5.117
17926SOL     OW55616  11.640  14.368  13.182
17926SOL    HW155617  11.732  14.353  13.203
17926SOL    HW255618  11.634  14.462  13.165
17927SOL     OW55619  12.373  11.191   3.494
17927SOL    HW155620  12.430  11.262   3.462
17927SOL    HW255621  12.418  11.111   3.467
17928SOL     OW55622   1.045   5.033  13.656
17928SOL    HW155623   1.029   4.985  13.737
17928SOL    HW255624   0.957   5.053  13.623
17929SOL     OW55625  10.336  10.113   0.741
17929SOL    HW155626  10.341  10.095   0.647
17929SOL    HW255627  10.327  10.026   0.781
17930SOL     OW55628   8.428   4.651   2.816
17930SOL    HW155629   8.486   4.676   2.889
17930SOL    HW255630   8.487   4.623   2.747
17931SOL     OW55631   1.884   8.597   5.477
17931SOL    HW155632   1.821   8.652   5.430
17931SOL    HW255633   1.830   8.543   5.535
17932SOL     OW55634   5.599   6.089   9.791
17932SOL    HW155635   5.683   6.129   9.811
17932SOL    HW255636   5.594   6.089   9.695
17933SOL     OW55637  13.672   0.136   0.293
17933SOL    HW155638  13.706   0.047   0.283
17933SOL    HW255639  13.686   0.177   0.208
17934SOL     OW55640   6.208   1.866   9.548
17934SOL    HW155641   6.279   1.846   9.487
17934SOL    HW255642   6.193   1.960   9.539
17935SOL     OW55643  14.622   2.802  10.097
17935SOL    HW155644  14.697   2.752  10.127
17935SOL    HW255645  14.657   2.863  10.032
17936SOL     OW55646   5.691   4.912   7.182
17936SOL    HW155647   5.662   4.953   7.263
17936SOL    HW255648   5.715   4.985   7.125
17937SOL     OW55649   3.357   3.204  11.353
17937SOL    HW155650   3.264   3.217  11.335
17937SOL    HW255651   3.386   3.289  11.388
17938SOL     OW55652   3.259   9.792   5.479
17938SOL    HW155653   3.195   9.757   5.418
17938SOL    HW255654   3.344   9.775   5.437
17939SOL     OW55655   7.838  13.419   9.063
17939SOL    HW155656   7.795  13.365   9.129
17939SOL    HW255657   7.856  13.359   8.990
17940SOL     OW55658   2.737  13.343   1.923
17940SOL    HW155659   2.752  13.422   1.869
17940SOL    HW255660   2.675  13.372   1.989
17941SOL     OW55661   0.369   8.280   7.302
17941SOL    HW155662   0.279   8.290   7.272
17941SOL    HW255663   0.366   8.209   7.366
17942SOL     OW55664   5.720  10.946  12.748
17942SOL    HW155665   5.757  10.860  12.770
17942SOL    HW255666   5.655  10.927  12.681
17943SOL     OW55667  11.666   5.443   8.953
17943SOL    HW155668  11.696   5.353   8.937
17943SOL    HW255669  11.604   5.460   8.881
17944SOL     OW55670   9.460  12.300  10.994
17944SOL    HW155671   9.374  12.291  11.034
17944SOL    HW255672   9.521  12.271  11.062
17945SOL     OW55673   8.508  12.299   0.426
17945SOL    HW155674   8.579  12.295   0.361
17945SOL    HW255675   8.435  12.338   0.379
17946SOL     OW55676   3.979  13.936   0.774
17946SOL    HW155677   3.888  13.947   0.747
17946SOL    HW255678   4.009  13.859   0.726
17947SOL     OW55679   4.356  14.807   4.180
17947SOL    HW155680   4.435  14.860   4.192
17947SOL    HW255681   4.368  14.733   4.240
17948SOL     OW55682  13.853  11.406   5.149
17948SOL    HW155683  13.860  11.430   5.241
17948SOL    HW255684  13.857  11.489   5.102
17949SOL     OW55685  13.368   2.851   2.526
17949SOL    HW155686  13.276   2.876   2.517
17949SOL    HW255687  13.409   2.924   2.573
17950SOL     OW55688   8.522  10.348  10.339
17950SOL    HW155689   8.474  10.369  10.259
17950SOL    HW255690   8.569  10.429  10.361
17951SOL     OW55691   1.973   6.976  12.031
17951SOL    HW155692   2.061   6.942  12.019
17951SOL    HW255693   1.981   7.039  12.103
17952SOL     OW55694   7.214   6.241   4.057
17952SOL    HW155695   7.298   6.214   4.095
17952SOL    HW255696   7.224   6.336   4.045
17953SOL     OW55697  14.149  10.306   7.166
17953SOL    HW155698  14.140  10.210   7.171
17953SOL    HW255699  14.086  10.340   7.230
17954SOL     OW55700   6.166  13.402   4.942
17954SOL    HW155701   6.105  13.330   4.956
17954SOL    HW255702   6.247  13.359   4.915
17955SOL     OW55703   6.298   5.575   8.617
17955SOL    HW155704   6.213   5.588   8.659
17955SOL    HW255705   6.344   5.514   8.674
17956SOL     OW55706   3.725  14.877  11.815
17956SOL    HW155707   3.676  14.821  11.755
17956SOL    HW255708   3.785   0.045  11.759
17957SOL     OW55709   1.240   3.632  10.410
17957SOL    HW155710   1.148   3.653  10.423
17957SOL    HW255711   1.253   3.638  10.315
17958SOL     OW55712  11.372   8.380  10.141
17958SOL    HW155713  11.389   8.386  10.235
17958SOL    HW255714  11.345   8.290  10.126
17959SOL     OW55715   7.365   6.294  14.401
17959SOL    HW155716   7.410   6.224  14.353
17959SOL    HW255717   7.272   6.280  14.383
17960SOL     OW55718   6.625   8.626   5.260
17960SOL    HW155719   6.708   8.580   5.250
17960SOL    HW255720   6.560   8.568   5.221
17961SOL     OW55721   6.445  14.564  10.692
17961SOL    HW155722   6.479  14.482  10.654
17961SOL    HW255723   6.426  14.542  10.783
17962SOL     OW55724  14.260  12.993   9.656
17962SOL    HW155725  14.292  13.006   9.566
17962SOL    HW255726  14.277  13.076   9.699
17963SOL     OW55727   8.749   6.144   6.325
17963SOL    HW155728   8.842   6.146   6.303
17963SOL    HW255729   8.718   6.061   6.290
17964SOL     OW55730   9.622   9.119   0.444
17964SOL    HW155731   9.672   9.194   0.413
17964SOL    HW255732   9.621   9.059   0.369
17965SOL     OW55733  12.739   7.714   7.162
17965SOL    HW155734  12.760   7.657   7.087
17965SOL    HW255735  12.689   7.786   7.124
17966SOL     OW55736   8.359  11.797   4.037
17966SOL    HW155737   8.421  11.769   3.970
17966SOL    HW255738   8.414  11.839   4.104
17967SOL     OW55739  10.750   6.252   0.560
17967SOL    HW155740  10.788   6.324   0.611
17967SOL    HW255741  10.821   6.222   0.504
17968SOL     OW55742   6.822  10.733   7.107
17968SOL    HW155743   6.807  10.657   7.163
17968SOL    HW255744   6.912  10.724   7.076
17969SOL     OW55745   2.698   4.588  14.533
17969SOL    HW155746   2.622   4.615  14.583
17969SOL    HW255747   2.662   4.559  14.449
17970SOL     OW55748   7.279  11.402   5.234
17970SOL    HW155749   7.279  11.318   5.279
17970SOL    HW255750   7.270  11.380   5.142
17971SOL     OW55751   2.531   1.566   6.891
17971SOL    HW155752   2.472   1.636   6.920
17971SOL    HW255753   2.532   1.504   6.964
17972SOL     OW55754   1.423   9.834   3.288
17972SOL    HW155755   1.457   9.773   3.353
17972SOL    HW255756   1.369   9.780   3.230
17973SOL     OW55757   5.239   3.180   1.505
17973SOL    HW155758   5.255   3.156   1.414
17973SOL    HW255759   5.290   3.117   1.555
17974SOL     OW55760   4.759   5.374   6.730
17974SOL    HW155761   4.742   5.288   6.691
17974SOL    HW255762   4.798   5.425   6.659
17975SOL     OW55763  13.472   7.112   5.065
17975SOL    HW155764  13.394   7.082   5.112
17975SOL    HW255765  13.545   7.087   5.122
17976SOL     OW55766   0.071  14.260   5.732
17976SOL    HW155767   0.104  14.257   5.822
17976SOL    HW255768   0.116  14.190   5.687
17977SOL     OW55769  11.977   5.177   3.302
17977SOL    HW155770  11.913   5.196   3.372
17977SOL    HW255771  11.923   5.160   3.225
17978SOL     OW55772   9.389  12.514  10.547
17978SOL    HW155773   9.420  12.434  10.588
17978SOL    HW255774   9.300  12.493  10.517
17979SOL     OW55775   7.798  10.907   8.068
17979SOL    HW155776   7.867  10.851   8.034
17979SOL    HW255777   7.794  10.886   8.161
17980SOL     OW55778  13.033   7.218  11.608
17980SOL    HW155779  13.076   7.140  11.643
17980SOL    HW255780  13.084   7.291  11.642
17981SOL     OW55781   5.213   8.934   0.052
17981SOL    HW155782   5.305   8.958   0.063
17981SOL    HW255783   5.215   8.846   0.014
17982SOL     OW55784   9.319   0.734  14.003
17982SOL    HW155785   9.257   0.671  14.041
17982SOL    HW255786   9.325   0.708  13.911
17983SOL     OW55787   8.766   2.103  14.031
17983SOL    HW155788   8.752   2.194  14.004
17983SOL    HW255789   8.780   2.108  14.125
17984SOL     OW55790   3.540   8.198   8.998
17984SOL    HW155791   3.597   8.275   9.004
17984SOL    HW255792   3.600   8.125   8.982
17985SOL     OW55793   9.523  12.609  13.275
17985SOL    HW155794   9.593  12.648  13.327
17985SOL    HW255795   9.457  12.677  13.268
17986SOL     OW55796  12.478   4.676   8.956
17986SOL    HW155797  12.448   4.701   9.043
17986SOL    HW255798  12.552   4.734   8.938
17987SOL     OW55799   7.661  12.056   1.909
17987SOL    HW155800   7.675  12.126   1.971
17987SOL    HW255801   7.726  11.990   1.932
17988SOL     OW55802  10.692  14.311  12.008
17988SOL    HW155803  10.619  14.351  11.962
17988SOL    HW255804  10.682  14.217  11.991
17989SOL     OW55805   9.478   2.323   7.425
17989SOL    HW155806   9.553   2.368   7.387
17989SOL    HW255807   9.451   2.260   7.357
17990SOL     OW55808   1.714   5.551   4.624
17990SOL    HW155809   1.802   5.553   4.586
17990SOL    HW255810   1.729   5.557   4.718
17991SOL     OW55811   4.994  12.293   3.118
17991SOL    HW155812   4.905  12.257   3.124
17991SOL    HW255813   5.049  12.216   3.105
17992SOL     OW55814   3.535   6.868   2.638
17992SOL    HW155815   3.540   6.923   2.560
17992SOL    HW255816   3.444   6.838   2.641
17993SOL     OW55817   3.673   2.154   2.824
17993SOL    HW155818   3.727   2.166   2.901
17993SOL    HW255819   3.584   2.173   2.854
17994SOL     OW55820   6.130   1.708   0.456
17994SOL    HW155821   6.139   1.671   0.544
17994SOL    HW255822   6.142   1.802   0.469
17995SOL     OW55823   1.416   3.499  13.930
17995SOL    HW155824   1.320   3.495  13.921
17995SOL    HW255825   1.447   3.423  13.881
17996SOL     OW55826  11.066  14.275  14.761
17996SOL    HW155827  11.119  14.307  14.689
17996SOL    HW255828  11.061  14.349  14.822
17997SOL     OW55829   8.553  14.550  11.719
17997SOL    HW155830   8.564  14.641  11.690
17997SOL    HW255831   8.620  14.501  11.672
17998SOL     OW55832   0.272   5.420   0.531
17998SOL    HW155833   0.341   5.466   0.483
17998SOL    HW255834   0.209   5.489   0.552
17999SOL     OW55835   0.099   8.844   0.346
17999SOL    HW155836   0.067   8.901   0.276
17999SOL    HW255837   0.023   8.829   0.402
18000SOL     OW55838  13.011   9.219  14.681
18000SOL    HW155839  13.058   9.218  14.598
18000SOL    HW255840  12.978   9.308  14.689
18001SOL     OW55841  12.050   4.787   6.900
18001SOL    HW155842  11.963   4.746   6.906
18001SOL    HW255843  12.073   4.780   6.808
18002SOL     OW55844   2.543   4.046  11.197
18002SOL    HW155845   2.564   4.069  11.107
18002SOL    HW255846   2.599   3.971  11.216
18003SOL     OW55847   2.011   9.822   7.157
18003SOL    HW155848   1.999   9.910   7.121
18003SOL    HW255849   1.933   9.774   7.131
18004SOL     OW55850   8.932   0.689   9.277
18004SOL    HW155851   8.993   0.762   9.269
18004SOL    HW255852   8.947   0.655   9.365
18005SOL     OW55853   0.515   4.854  11.865
18005SOL    HW155854   0.487   4.797  11.793
18005SOL    HW255855   0.522   4.797  11.941
18006SOL     OW55856   6.585   4.821   3.586
18006SOL    HW155857   6.602   4.912   3.560
18006SOL    HW255858   6.592   4.771   3.504
18007SOL     OW55859  14.578  11.453   4.167
18007SOL    HW155860  14.501  11.441   4.113
18007SOL    HW255861  14.550  11.512   4.237
18008SOL     OW55862  10.170   0.456  14.245
18008SOL    HW155863  10.177   0.495  14.332
18008SOL    HW255864  10.121   0.375  14.259
18009SOL     OW55865   6.081   9.325  13.050
18009SOL    HW155866   6.159   9.269  13.047
18009SOL    HW255867   6.042   9.306  13.135
18010SOL     OW55868   8.928   9.369   7.112
18010SOL    HW155869   9.015   9.401   7.137
18010SOL    HW255870   8.931   9.276   7.133
18011SOL     OW55871  12.886  13.532   3.096
18011SOL    HW155872  12.861  13.440   3.098
18011SOL    HW255873  12.812  13.576   3.055
18012SOL     OW55874   2.095   5.292   7.638
18012SOL    HW155875   2.107   5.378   7.677
18012SOL    HW255876   2.149   5.293   7.559
18013SOL     OW55877  13.331  13.110   1.597
18013SOL    HW155878  13.331  13.015   1.588
18013SOL    HW255879  13.239  13.133   1.611
18014SOL     OW55880   4.337   1.503   3.327
18014SOL    HW155881   4.309   1.512   3.418
18014SOL    HW255882   4.433   1.501   3.331
18015SOL     OW55883  13.625   1.346   7.008
18015SOL    HW155884  13.565   1.395   6.952
18015SOL    HW255885  13.703   1.335   6.954
18016SOL     OW55886   3.126   7.587  11.381
18016SOL    HW155887   3.164   7.664  11.424
18016SOL    HW255888   3.033   7.607  11.374
18017SOL     OW55889   2.882  14.066   1.542
18017SOL    HW155890   2.794  14.028   1.532
18017SOL    HW255891   2.866  14.161   1.544
18018SOL     OW55892  11.805   3.120   0.642
18018SOL    HW155893  11.772   3.084   0.724
18018SOL    HW255894  11.790   3.051   0.577
18019SOL     OW55895   2.868   9.548   2.789
18019SOL    HW155896   2.913   9.479   2.837
18019SOL    HW255897   2.807   9.586   2.853
18020SOL     OW55898   4.527  10.625   0.365
18020SOL    HW155899   4.497  10.549   0.415
18020SOL    HW255900   4.491  10.700   0.413
18021SOL     OW55901  13.986   6.382  11.907
18021SOL    HW155902  13.940   6.388  11.991
18021SOL    HW255903  13.957   6.460  11.859
18022SOL     OW55904   7.131   6.010  11.973
18022SOL    HW155905   7.163   6.094  12.007
18022SOL    HW255906   7.065   6.035  11.909
18023SOL     OW55907   5.733  13.493  12.949
18023SOL    HW155908   5.750  13.585  12.927
18023SOL    HW255909   5.780  13.443  12.882
18024SOL     OW55910   4.484   2.615   5.887
18024SOL    HW155911   4.561   2.558   5.893
18024SOL    HW255912   4.439   2.587   5.807
18025SOL     OW55913  14.803  13.257   2.665
18025SOL    HW155914  14.723  13.297   2.698
18025SOL    HW255915  14.848  13.224   2.743
18026SOL     OW55916   8.159  12.286   3.524
18026SOL    HW155917   8.155  12.256   3.615
18026SOL    HW255918   8.071  12.318   3.506
18027SOL     OW55919  10.987   0.021  11.037
18027SOL    HW155920  11.046   0.030  11.112
18027SOL    HW255921  10.939  14.822  11.053
18028SOL     OW55922   0.579  12.579   0.146
18028SOL    HW155923   0.501  12.611   0.191
18028SOL    HW255924   0.548  12.505   0.094
18029SOL     OW55925   3.330   4.201   7.463
18029SOL    HW155926   3.253   4.252   7.440
18029SOL    HW255927   3.401   4.265   7.469
18030SOL     OW55928   8.442   7.998   5.629
18030SOL    HW155929   8.410   8.047   5.704
18030SOL    HW255930   8.363   7.962   5.588
18031SOL     OW55931   0.948   9.693   6.298
18031SOL    HW155932   0.910   9.616   6.340
18031SOL    HW255933   0.947   9.672   6.204
18032SOL     OW55934   5.420  12.710   1.610
18032SOL    HW155935   5.333  12.697   1.574
18032SOL    HW255936   5.419  12.800   1.644
18033SOL     OW55937   4.961  14.478   1.421
18033SOL    HW155938   4.973  14.466   1.515
18033SOL    HW255939   4.932  14.569   1.412
18034SOL     OW55940   3.894  14.101  10.088
18034SOL    HW155941   3.897  14.079  10.181
18034SOL    HW255942   3.891  14.016  10.044
18035SOL     OW55943   0.211   8.953   0.012
18035SOL    HW155944   0.180   9.010  14.823
18035SOL    HW255945   0.164   8.984   0.089
18036SOL     OW55946  12.086   3.940   2.303
18036SOL    HW155947  12.093   4.000   2.378
18036SOL    HW255948  11.993   3.919   2.298
18037SOL     OW55949   7.459   3.588   1.468
18037SOL    HW155950   7.499   3.520   1.522
18037SOL    HW255951   7.401   3.635   1.528
18038SOL     OW55952   0.094  13.906   6.310
18038SOL    HW155953   0.100  13.919   6.215
18038SOL    HW255954   0.039  13.978   6.340
18039SOL     OW55955   5.240   1.465   4.657
18039SOL    HW155956   5.273   1.381   4.689
18039SOL    HW255957   5.254   1.461   4.563
18040SOL     OW55958  13.134   9.385   8.880
18040SOL    HW155959  13.169   9.432   8.805
18040SOL    HW255960  13.211   9.357   8.929
18041SOL     OW55961   7.414  10.200  11.779
18041SOL    HW155962   7.432  10.265  11.711
18041SOL    HW255963   7.500  10.181  11.817
18042SOL     OW55964   2.028   0.455   2.948
18042SOL    HW155965   2.099   0.513   2.921
18042SOL    HW255966   2.058   0.368   2.925
18043SOL     OW55967   1.337   9.776   4.840
18043SOL    HW155968   1.346   9.855   4.894
18043SOL    HW255969   1.311   9.809   4.754
18044SOL     OW55970   5.859  12.946  14.730
18044SOL    HW155971   5.901  12.883  14.789
18044SOL    HW255972   5.931  12.989  14.684
18045SOL     OW55973   2.707  13.972   3.625
18045SOL    HW155974   2.767  14.044   3.645
18045SOL    HW255975   2.709  13.965   3.529
18046SOL     OW55976   7.947   2.394   4.564
18046SOL    HW155977   7.886   2.425   4.497
18046SOL    HW255978   7.911   2.426   4.647
18047SOL     OW55979  14.335  14.326   4.704
18047SOL    HW155980  14.355  14.240   4.740
18047SOL    HW255981  14.309  14.378   4.779
18048SOL     OW55982   6.105   4.029   0.478
18048SOL    HW155983   6.125   4.027   0.572
18048SOL    HW255984   6.051   3.952   0.463
18049SOL     OW55985   1.954  12.213   5.577
18049SOL    HW155986   1.959  12.121   5.552
18049SOL    HW255987   2.032  12.228   5.631
18050SOL     OW55988  14.663  10.204  14.869
18050SOL    HW155989  14.590  10.254  14.833
18050SOL    HW255990  14.635  10.113  14.864
18051SOL     OW55991   7.382   7.952   8.026
18051SOL    HW155992   7.417   7.965   7.937
18051SOL    HW255993   7.294   7.918   8.012
18052SOL     OW55994   2.294   0.984  10.961
18052SOL    HW155995   2.306   0.962  11.054
18052SOL    HW255996   2.366   1.044  10.942
18053SOL     OW55997  12.085   5.223   9.932
18053SOL    HW155998  12.071   5.255  10.022
18053SOL    HW255999  12.149   5.152   9.941
18054SOL     OW56000   3.609  10.962   8.700
18054SOL    HW156001   3.680  11.026   8.693
18054SOL    HW256002   3.542  11.006   8.751
18055SOL     OW56003  12.618   5.899   0.818
18055SOL    HW156004  12.712   5.894   0.836
18055SOL    HW256005  12.578   5.852   0.891
18056SOL     OW56006   3.694   3.857   2.869
18056SOL    HW156007   3.678   3.773   2.828
18056SOL    HW256008   3.608   3.888   2.896
18057SOL     OW56009   5.140   4.843  14.162
18057SOL    HW156010   5.123   4.764  14.110
18057SOL    HW256011   5.171   4.907  14.098
18058SOL     OW56012  10.949  13.925   5.393
18058SOL    HW156013  11.032  13.935   5.346
18058SOL    HW256014  10.935  13.831   5.397
18059SOL     OW56015   7.908   3.624   9.707
18059SOL    HW156016   7.816   3.633   9.733
18059SOL    HW256017   7.953   3.693   9.756
18060SOL     OW56018   3.934   6.263  11.106
18060SOL    HW156019   3.927   6.206  11.030
18060SOL    HW256020   3.845   6.298  11.119
18061SOL     OW56021   4.332   6.199   2.493
18061SOL    HW156022   4.294   6.267   2.437
18061SOL    HW256023   4.303   6.221   2.581
18062SOL     OW56024  13.609   1.597   4.772
18062SOL    HW156025  13.626   1.642   4.689
18062SOL    HW256026  13.527   1.635   4.803
18063SOL     OW56027   8.048  10.901   7.708
18063SOL    HW156028   8.062  10.983   7.755
18063SOL    HW256029   7.955  10.902   7.685
18064SOL     OW56030  12.359  13.938   7.058
18064SOL    HW156031  12.362  13.999   7.131
18064SOL    HW256032  12.278  13.889   7.071
18065SOL     OW56033   2.356   1.809   2.655
18065SOL    HW156034   2.271   1.811   2.699
18065SOL    HW256035   2.342   1.855   2.572
18066SOL     OW56036  11.252   6.706  10.259
18066SOL    HW156037  11.252   6.662  10.344
18066SOL    HW256038  11.159   6.717  10.238
18067SOL     OW56039   2.069  12.704   5.640
18067SOL    HW156040   2.009  12.686   5.568
18067SOL    HW256041   2.141  12.752   5.600
18068SOL     OW56042   0.267   4.621   7.138
18068SOL    HW156043   0.262   4.714   7.116
18068SOL    HW256044   0.359   4.607   7.160
18069SOL     OW56045   7.793   4.533  10.867
18069SOL    HW156046   7.731   4.537  10.794
18069SOL    HW256047   7.878   4.554  10.828
18070SOL     OW56048   7.432  11.328   7.594
18070SOL    HW156049   7.441  11.256   7.657
18070SOL    HW256050   7.376  11.391   7.638
18071SOL     OW56051  10.854   8.881   8.453
18071SOL    HW156052  10.865   8.956   8.394
18071SOL    HW256053  10.793   8.914   8.520
18072SOL     OW56054   4.956  14.178   1.015
18072SOL    HW156055   4.919  14.235   1.082
18072SOL    HW256056   4.885  14.118   0.992
18073SOL     OW56057   1.103   4.891  11.070
18073SOL    HW156058   1.030   4.935  11.113
18073SOL    HW256059   1.137   4.956  11.008
18074SOL     OW56060  13.995   3.694   4.134
18074SOL    HW156061  14.016   3.773   4.183
18074SOL    HW256062  13.902   3.680   4.149
18075SOL     OW56063   8.848   4.517   2.123
18075SOL    HW156064   8.761   4.528   2.084
18075SOL    HW256065   8.907   4.512   2.048
18076SOL     OW56066   9.268   0.303   6.896
18076SOL    HW156067   9.332   0.360   6.853
18076SOL    HW256068   9.321   0.242   6.948
18077SOL     OW56069   5.374   8.579   7.830
18077SOL    HW156070   5.386   8.615   7.917
18077SOL    HW256071   5.332   8.494   7.844
18078SOL     OW56072   8.062   3.947   3.078
18078SOL    HW156073   8.028   3.984   3.160
18078SOL    HW256074   8.047   3.853   3.087
18079SOL     OW56075   4.809   5.403   1.142
18079SOL    HW156076   4.821   5.310   1.159
18079SOL    HW256077   4.889   5.430   1.098
18080SOL     OW56078   1.188   9.731   8.039
18080SOL    HW156079   1.218   9.660   8.096
18080SOL    HW256080   1.185   9.692   7.952
18081SOL     OW56081  10.328   0.111   9.796
18081SOL    HW156082  10.285   0.070   9.872
18081SOL    HW256083  10.282   0.194   9.786
18082SOL     OW56084   7.940   8.529   4.696
18082SOL    HW156085   7.881   8.512   4.770
18082SOL    HW256086   7.899   8.601   4.648
18083SOL     OW56087  10.672   5.536   1.791
18083SOL    HW156088  10.743   5.560   1.850
18083SOL    HW256089  10.608   5.492   1.848
18084SOL     OW56090   4.192  11.711  12.348
18084SOL    HW156091   4.224  11.622  12.364
18084SOL    HW256092   4.271  11.765  12.345
18085SOL     OW56093   8.157   0.627  11.575
18085SOL    HW156094   8.077   0.665  11.540
18085SOL    HW256095   8.131   0.541  11.608
18086SOL     OW56096   7.489   8.519  12.910
18086SOL    HW156097   7.550   8.470  12.966
18086SOL    HW256098   7.541   8.540  12.832
18087SOL     OW56099   0.483   6.993   7.494
18087SOL    HW156100   0.473   7.039   7.410
18087SOL    HW256101   0.571   7.014   7.523
18088SOL     OW56102  12.088  11.100   5.993
18088SOL    HW156103  12.095  11.005   6.002
18088SOL    HW256104  12.111  11.117   5.901
18089SOL     OW56105   3.879  10.903   5.532
18089SOL    HW156106   3.941  10.975   5.548
18089SOL    HW256107   3.834  10.891   5.616
18090SOL     OW56108   7.506  13.006   3.020
18090SOL    HW156109   7.590  13.042   2.990
18090SOL    HW256110   7.508  13.018   3.115
18091SOL     OW56111   9.854  14.543   8.920
18091SOL    HW156112   9.764  14.511   8.929
18091SOL    HW256113   9.874  14.532   8.827
18092SOL     OW56114   6.174  13.524  12.639
18092SOL    HW156115   6.171  13.613  12.674
18092SOL    HW256116   6.262  13.492  12.660
18093SOL     OW56117   6.881  13.471  12.276
18093SOL    HW156118   6.934  13.533  12.325
18093SOL    HW256119   6.834  13.422  12.343
18094SOL     OW56120   3.245   4.914  12.641
18094SOL    HW156121   3.274   5.001  12.613
18094SOL    HW256122   3.174   4.930  12.702
18095SOL     OW56123   6.199   9.891  13.010
18095SOL    HW156124   6.109   9.919  13.024
18095SOL    HW256125   6.192   9.806  12.968
18096SOL     OW56126   5.136   1.630   0.577
18096SOL    HW156127   5.148   1.535   0.574
18096SOL    HW256128   5.179   1.658   0.657
18097SOL     OW56129  14.725  13.629   2.207
18097SOL    HW156130  14.643  13.678   2.194
18097SOL    HW256131  14.747  13.595   2.121
18098SOL     OW56132   3.572   6.007  12.069
18098SOL    HW156133   3.643   5.995  12.132
18098SOL    HW256134   3.493   6.005  12.122
18099SOL     OW56135   5.592  13.763   7.828
18099SOL    HW156136   5.552  13.739   7.744
18099SOL    HW256137   5.641  13.686   7.855
18100SOL     OW56138   5.236   9.687  12.001
18100SOL    HW156139   5.276   9.623  12.060
18100SOL    HW256140   5.214   9.761  12.058
18101SOL     OW56141  11.469  11.465   6.275
18101SOL    HW156142  11.406  11.445   6.344
18101SOL    HW256143  11.547  11.415   6.298
18102SOL     OW56144  14.381  12.635   0.654
18102SOL    HW156145  14.424  12.579   0.589
18102SOL    HW256146  14.365  12.576   0.728
18103SOL     OW56147   7.395   4.656   1.434
18103SOL    HW156148   7.436   4.742   1.433
18103SOL    HW256149   7.388   4.632   1.341
18104SOL     OW56150  11.231   0.518   1.991
18104SOL    HW156151  11.138   0.526   1.971
18104SOL    HW256152  11.273   0.589   1.941
18105SOL     OW56153   0.843   0.364   0.505
18105SOL    HW156154   0.784   0.439   0.501
18105SOL    HW256155   0.785   0.289   0.516
18106SOL     OW56156   0.163   3.338  12.932
18106SOL    HW156157   0.213   3.340  13.013
18106SOL    HW256158   0.073   3.319  12.959
18107SOL     OW56159   4.063   0.638   5.733
18107SOL    HW156160   4.070   0.733   5.730
18107SOL    HW256161   4.003   0.620   5.805
18108SOL     OW56162  12.878   7.234   4.627
18108SOL    HW156163  12.809   7.281   4.673
18108SOL    HW256164  12.957   7.285   4.644
18109SOL     OW56165   1.784  12.930   2.815
18109SOL    HW156166   1.823  12.941   2.729
18109SOL    HW256167   1.767  13.020   2.846
18110SOL     OW56168   9.523  14.322   4.682
18110SOL    HW156169   9.581  14.397   4.664
18110SOL    HW256170   9.454  14.359   4.736
18111SOL     OW56171  13.500   5.438  12.928
18111SOL    HW156172  13.566   5.442  12.998
18111SOL    HW256173  13.497   5.345  12.905
18112SOL     OW56174  10.196   7.139  13.319
18112SOL    HW156175  10.220   7.169  13.407
18112SOL    HW256176  10.103   7.118  13.325
18113SOL     OW56177  13.598  11.224   0.037
18113SOL    HW156178  13.542  11.217  14.842
18113SOL    HW256179  13.622  11.133   0.058
18114SOL     OW56180   1.476   1.709   9.634
18114SOL    HW156181   1.546   1.671   9.687
18114SOL    HW256182   1.443   1.635   9.582
18115SOL     OW56183  14.854   3.243   0.845
18115SOL    HW156184   0.011   3.269   0.762
18115SOL    HW256185   0.033   3.275   0.911
18116SOL     OW56186   5.072   0.543   4.387
18116SOL    HW156187   5.109   0.458   4.412
18116SOL    HW256188   4.998   0.521   4.331
18117SOL     OW56189   9.446   0.129  13.492
18117SOL    HW156190   9.464   0.194  13.559
18117SOL    HW256191   9.531   0.108  13.454
18118SOL     OW56192  13.625   7.865   0.886
18118SOL    HW156193  13.657   7.945   0.845
18118SOL    HW256194  13.651   7.795   0.826
18119SOL     OW56195   4.664   6.785  10.005
18119SOL    HW156196   4.742   6.774   9.951
18119SOL    HW256197   4.680   6.730  10.083
18120SOL     OW56198  12.759  11.399   0.147
18120SOL    HW156199  12.790  11.484   0.117
18120SOL    HW256200  12.808  11.383   0.228
18121SOL     OW56201   4.747   7.002   5.580
18121SOL    HW156202   4.662   6.957   5.576
18121SOL    HW256203   4.743   7.052   5.662
18122SOL     OW56204   6.069  10.108  14.760
18122SOL    HW156205   6.070  10.102  14.856
18122SOL    HW256206   5.998  10.169  14.741
18123SOL     OW56207  14.690   3.721   1.662
18123SOL    HW156208  14.680   3.800   1.715
18123SOL    HW256209  14.784   3.704   1.663
18124SOL     OW56210   7.542   3.460   3.090
18124SOL    HW156211   7.618   3.406   3.068
18124SOL    HW256212   7.477   3.439   3.023
18125SOL     OW56213   3.713   7.766   6.752
18125SOL    HW156214   3.780   7.731   6.692
18125SOL    HW256215   3.750   7.848   6.784
18126SOL     OW56216  13.728   8.828  14.201
18126SOL    HW156217  13.721   8.841  14.106
18126SOL    HW256218  13.638   8.820  14.231
18127SOL     OW56219   0.072  14.389  11.215
18127SOL    HW156220   0.122  14.428  11.287
18127SOL    HW256221   0.106  14.431  11.136
18128SOL     OW56222   6.389   3.781  14.408
18128SOL    HW156223   6.483   3.779  14.390
18128SOL    HW256224   6.366   3.690  14.427
18129SOL     OW56225   6.721   8.659   1.914
18129SOL    HW156226   6.631   8.669   1.944
18129SOL    HW256227   6.772   8.649   1.994
18130SOL     OW56228   2.352   8.166   2.607
18130SOL    HW156229   2.317   8.120   2.683
18130SOL    HW256230   2.326   8.112   2.532
18131SOL     OW56231   6.607   0.483  13.861
18131SOL    HW156232   6.637   0.392  13.856
18131SOL    HW256233   6.626   0.519  13.775
18132SOL     OW56234   8.579   7.271  14.835
18132SOL    HW156235   8.660   7.268   0.004
18132SOL    HW256236   8.573   7.362  14.805
18133SOL     OW56237   2.964  10.481   3.967
18133SOL    HW156238   2.894  10.467   4.030
18133SOL    HW256239   2.920  10.480   3.882
18134SOL     OW56240   2.102   7.377  14.634
18134SOL    HW156241   2.064   7.433  14.701
18134SOL    HW256242   2.119   7.294  14.679
18135SOL     OW56243   9.866   3.110   7.925
18135SOL    HW156244   9.920   3.072   7.994
18135SOL    HW256245   9.859   3.040   7.859
18136SOL     OW56246  11.152   9.177  12.764
18136SOL    HW156247  11.058   9.187  12.751
18136SOL    HW256248  11.159   9.123  12.843
18137SOL     OW56249   3.545   9.006   0.814
18137SOL    HW156250   3.542   8.947   0.889
18137SOL    HW256251   3.473   9.067   0.828
18138SOL     OW56252   0.835   8.347   2.956
18138SOL    HW156253   0.929   8.350   2.970
18138SOL    HW256254   0.815   8.254   2.948
18139SOL     OW56255  14.820   5.366   0.109
18139SOL    HW156256  14.742   5.380   0.163
18139SOL    HW256257   0.001   5.324   0.168
18140SOL     OW56258   0.312   2.242  11.575
18140SOL    HW156259   0.378   2.172  11.576
18140SOL    HW256260   0.326   2.289  11.657
18141SOL     OW56261  14.638  11.435   2.870
18141SOL    HW156262  14.636  11.516   2.921
18141SOL    HW256263  14.725  11.399   2.885
18142SOL     OW56264   0.401   7.839   7.652
18142SOL    HW156265   0.457   7.844   7.574
18142SOL    HW256266   0.451   7.786   7.714
18143SOL     OW56267   1.575  10.181   7.844
18143SOL    HW156268   1.530  10.104   7.878
18143SOL    HW256269   1.658  10.147   7.811
18144SOL     OW56270  10.001  11.821   1.739
18144SOL    HW156271   9.955  11.897   1.705
18144SOL    HW256272  10.071  11.805   1.675
18145SOL     OW56273   8.299  14.482   0.641
18145SOL    HW156274   8.359  14.532   0.697
18145SOL    HW256275   8.275  14.542   0.571
18146SOL     OW56276   8.752   7.997   1.484
18146SOL    HW156277   8.717   7.914   1.452
18146SOL    HW256278   8.777   8.045   1.405
18147SOL     OW56279  13.458   7.192  13.537
18147SOL    HW156280  13.447   7.215  13.445
18147SOL    HW256281  13.516   7.260  13.571
18148SOL     OW56282   3.069   8.910   3.986
18148SOL    HW156283   3.044   8.823   4.016
18148SOL    HW256284   3.144   8.895   3.929
18149SOL     OW56285   9.017   6.537  11.889
18149SOL    HW156286   8.941   6.488  11.858
18149SOL    HW256287   9.092   6.487  11.857
18150SOL     OW56288  11.650   3.456   2.363
18150SOL    HW156289  11.635   3.385   2.425
18150SOL    HW256290  11.593   3.436   2.289
18151SOL     OW56291   5.246  10.622  12.478
18151SOL    HW156292   5.214  10.555  12.539
18151SOL    HW256293   5.207  10.599  12.394
18152SOL     OW56294   5.302  14.684  13.478
18152SOL    HW156295   5.272  14.596  13.499
18152SOL    HW256296   5.307  14.728  13.563
18153SOL     OW56297   8.437   2.237   9.640
18153SOL    HW156298   8.343   2.245   9.659
18153SOL    HW256299   8.477   2.312   9.684
18154SOL     OW56300   4.468  11.353   0.383
18154SOL    HW156301   4.412  11.327   0.310
18154SOL    HW256302   4.507  11.436   0.355
18155SOL     OW56303   7.040   9.336   8.220
18155SOL    HW156304   7.125   9.346   8.177
18155SOL    HW256305   6.997   9.421   8.208
18156SOL     OW56306   9.767  12.915   7.581
18156SOL    HW156307   9.736  13.005   7.572
18156SOL    HW256308   9.802  12.911   7.670
18157SOL     OW56309   0.056  13.488   6.749
18157SOL    HW156310  14.870  13.469   6.813
18157SOL    HW256311   0.023  13.452   6.667
18158SOL     OW56312   7.893   8.057   2.599
18158SOL    HW156313   7.936   8.110   2.533
18158SOL    HW256314   7.960   7.996   2.629
18159SOL     OW56315   3.930   0.044  11.323
18159SOL    HW156316   3.864   0.023  11.256
18159SOL    HW256317   3.927  14.852  11.383
18160SOL     OW56318  10.208  10.821  14.637
18160SOL    HW156319  10.115  10.836  14.621
18160SOL    HW256320  10.232  10.887  14.702
18161SOL     OW56321   3.865   2.487  13.719
18161SOL    HW156322   3.887   2.573  13.683
18161SOL    HW256323   3.770   2.487  13.726
18162SOL     OW56324  13.364   7.865   2.996
18162SOL    HW156325  13.316   7.792   3.034
18162SOL    HW256326  13.300   7.910   2.942
18163SOL     OW56327   9.183   0.071   7.109
18163SOL    HW156328   9.240   0.012   7.060
18163SOL    HW256329   9.231   0.088   7.190
18164SOL     OW56330  12.419   8.145   9.794
18164SOL    HW156331  12.370   8.088   9.735
18164SOL    HW256332  12.357   8.213   9.819
18165SOL     OW56333   1.794   1.511   7.306
18165SOL    HW156334   1.861   1.578   7.297
18165SOL    HW256335   1.786   1.473   7.218
18166SOL     OW56336  11.869   9.274   3.240
18166SOL    HW156337  11.907   9.186   3.248
18166SOL    HW256338  11.939   9.327   3.202
18167SOL     OW56339   2.091  14.391  11.996
18167SOL    HW156340   2.046  14.309  12.012
18167SOL    HW256341   2.023  14.451  11.966
18168SOL     OW56342  12.659  12.909   0.930
18168SOL    HW156343  12.689  12.864   0.851
18168SOL    HW256344  12.734  12.905   0.990
18169SOL     OW56345  10.169   4.073  13.744
18169SOL    HW156346  10.101   4.124  13.788
18169SOL    HW256347  10.125   3.993  13.716
18170SOL     OW56348   7.112   5.105   2.215
18170SOL    HW156349   7.023   5.132   2.196
18170SOL    HW256350   7.165   5.144   2.145
18171SOL     OW56351   5.786   9.517  11.151
18171SOL    HW156352   5.719   9.585  11.155
18171SOL    HW256353   5.854   9.547  11.211
18172SOL     OW56354  12.349   4.349   9.241
18172SOL    HW156355  12.279   4.414   9.229
18172SOL    HW256356  12.407   4.361   9.166
18173SOL     OW56357  14.638   9.020   7.390
18173SOL    HW156358  14.550   9.030   7.353
18173SOL    HW256359  14.650   8.925   7.399
18174SOL     OW56360   7.420   6.205  11.116
18174SOL    HW156361   7.396   6.270  11.181
18174SOL    HW256362   7.508   6.232  11.087
18175SOL     OW56363  14.338   4.650   8.066
18175SOL    HW156364  14.410   4.637   8.128
18175SOL    HW256365  14.334   4.744   8.052
18176SOL     OW56366   5.908   3.196   6.878
18176SOL    HW156367   5.828   3.192   6.929
18176SOL    HW256368   5.971   3.144   6.928
18177SOL     OW56369   0.137  10.365   2.390
18177SOL    HW156370   0.192  10.442   2.408
18177SOL    HW256371   0.058  10.380   2.442
18178SOL     OW56372   7.275   7.173   8.053
18178SOL    HW156373   7.217   7.165   7.977
18178SOL    HW256374   7.302   7.265   8.053
18179SOL     OW56375  12.798   1.714   0.651
18179SOL    HW156376  12.836   1.791   0.693
18179SOL    HW256377  12.733   1.748   0.590
18180SOL     OW56378   7.838   6.758  13.042
18180SOL    HW156379   7.899   6.823  13.009
18180SOL    HW256380   7.804   6.714  12.964
18181SOL     OW56381   2.086   3.384   8.234
18181SOL    HW156382   2.099   3.294   8.206
18181SOL    HW256383   2.025   3.378   8.308
18182SOL     OW56384   8.223   6.792   5.229
18182SOL    HW156385   8.186   6.850   5.295
18182SOL    HW256386   8.183   6.707   5.247
18183SOL     OW56387   3.802  14.250   5.156
18183SOL    HW156388   3.781  14.331   5.203
18183SOL    HW256389   3.734  14.188   5.181
18184SOL     OW56390  12.886   8.408   7.785
18184SOL    HW156391  12.868   8.336   7.845
18184SOL    HW256392  12.872   8.487   7.838
18185SOL     OW56393   0.116  10.959  11.286
18185SOL    HW156394   0.123  11.042  11.334
18185SOL    HW256395   0.050  10.909  11.336
18186SOL     OW56396   0.467   4.114  12.442
18186SOL    HW156397   0.432   4.121  12.353
18186SOL    HW256398   0.487   4.205  12.467
18187SOL     OW56399   7.895  11.168   4.933
18187SOL    HW156400   7.827  11.209   4.986
18187SOL    HW256401   7.961  11.236   4.920
18188SOL     OW56402   8.353  11.944  12.422
18188SOL    HW156403   8.375  11.925  12.331
18188SOL    HW256404   8.338  11.859  12.462
18189SOL     OW56405  13.909   3.461   3.467
18189SOL    HW156406  13.932   3.401   3.538
18189SOL    HW256407  13.897   3.404   3.391
18190SOL     OW56408   9.549   4.416  10.768
18190SOL    HW156409   9.524   4.380  10.683
18190SOL    HW256410   9.515   4.354  10.832
18191SOL     OW56411   6.578   5.257  11.143
18191SOL    HW156412   6.558   5.176  11.096
18191SOL    HW256413   6.585   5.324  11.075
18192SOL     OW56414  13.752  13.821   4.418
18192SOL    HW156415  13.739  13.787   4.506
18192SOL    HW256416  13.760  13.915   4.429
18193SOL     OW56417   9.352   6.367   6.992
18193SOL    HW156418   9.372   6.343   7.082
18193SOL    HW256419   9.390   6.453   6.980
18194SOL     OW56420   8.027   3.009   6.455
18194SOL    HW156421   8.005   2.982   6.545
18194SOL    HW256422   8.122   3.001   6.450
18195SOL     OW56423   4.460   5.690  13.658
18195SOL    HW156424   4.459   5.766  13.600
18195SOL    HW256425   4.507   5.623  13.608
18196SOL     OW56426   2.793   7.964  11.948
18196SOL    HW156427   2.818   7.973  12.040
18196SOL    HW256428   2.870   7.924  11.906
18197SOL     OW56429   1.791  14.846  12.126
18197SOL    HW156430   1.794  14.771  12.066
18197SOL    HW256431   1.880  14.854  12.159
18198SOL     OW56432   4.538  12.443  12.544
18198SOL    HW156433   4.446  12.451  12.571
18198SOL    HW256434   4.567  12.361  12.582
18199SOL     OW56435   1.120  11.973   8.040
18199SOL    HW156436   1.043  12.029   8.028
18199SOL    HW256437   1.093  11.910   8.106
18200SOL     OW56438   3.228  11.052   1.340
18200SOL    HW156439   3.289  11.120   1.369
18200SOL    HW256440   3.274  10.970   1.355
18201SOL     OW56441   3.669  13.983   4.932
18201SOL    HW156442   3.686  13.891   4.913
18201SOL    HW256443   3.687  14.028   4.849
18202SOL     OW56444   3.221   0.785   2.088
18202SOL    HW156445   3.186   0.872   2.067
18202SOL    HW256446   3.154   0.744   2.143
18203SOL     OW56447  11.170   8.681   4.903
18203SOL    HW156448  11.220   8.761   4.886
18203SOL    HW256449  11.118   8.702   4.980
18204SOL     OW56450   8.739  10.329   6.730
18204SOL    HW156451   8.747  10.368   6.817
18204SOL    HW256452   8.693  10.246   6.746
18205SOL     OW56453  11.644   7.161  10.082
18205SOL    HW156454  11.608   7.073  10.091
18205SOL    HW256455  11.734   7.154  10.115
18206SOL     OW56456  10.889   7.714   3.044
18206SOL    HW156457  10.817   7.665   3.005
18206SOL    HW256458  10.966   7.660   3.028
18207SOL     OW56459   0.043   8.414   9.043
18207SOL    HW156460   0.023   8.475   9.113
18207SOL    HW256461   0.067   8.333   9.087
18208SOL     OW56462  10.247  12.645  11.704
18208SOL    HW156463  10.232  12.682  11.791
18208SOL    HW256464  10.160  12.634  11.666
18209SOL     OW56465   5.758   6.704   6.424
18209SOL    HW156466   5.667   6.674   6.421
18209SOL    HW256467   5.757   6.791   6.385
18210SOL     OW56468   6.539  12.229  10.242
18210SOL    HW156469   6.545  12.321  10.218
18210SOL    HW256470   6.463  12.224  10.300
18211SOL     OW56471   3.577   8.924   6.862
18211SOL    HW156472   3.608   8.847   6.910
18211SOL    HW256473   3.556   8.891   6.775
18212SOL     OW56474   2.406   3.423   5.145
18212SOL    HW156475   2.417   3.396   5.054
18212SOL    HW256476   2.495   3.423   5.181
18213SOL     OW56477   2.342  13.981   5.787
18213SOL    HW156478   2.402  14.045   5.748
18213SOL    HW256479   2.263  14.031   5.806
18214SOL     OW56480   8.178   4.047   1.084
18214SOL    HW156481   8.249   4.009   1.135
18214SOL    HW256482   8.153   3.979   1.022
18215SOL     OW56483  11.980  11.682   6.525
18215SOL    HW156484  12.001  11.628   6.449
18215SOL    HW256485  11.909  11.636   6.569
18216SOL     OW56486  14.731   6.629  11.296
18216SOL    HW156487  14.771   6.620  11.209
18216SOL    HW256488  14.764   6.712  11.329
18217SOL     OW56489  10.168   8.653   0.005
18217SOL    HW156490  10.118   8.614  14.816
18217SOL    HW256491  10.122   8.626   0.085
18218SOL     OW56492  13.987   7.340   7.895
18218SOL    HW156493  13.990   7.436   7.906
18218SOL    HW256494  13.941   7.327   7.813
18219SOL     OW56495   2.687   3.674   0.746
18219SOL    HW156496   2.640   3.681   0.829
18219SOL    HW256497   2.627   3.712   0.681
18220SOL     OW56498   1.073   7.803  11.247
18220SOL    HW156499   1.066   7.886  11.293
18220SOL    HW256500   1.055   7.737  11.314
18221SOL     OW56501   9.168   9.663   0.289
18221SOL    HW156502   9.148   9.659   0.383
18221SOL    HW256503   9.098   9.716   0.252
18222SOL     OW56504   9.116   8.100   3.139
18222SOL    HW156505   9.186   8.087   3.203
18222SOL    HW256506   9.151   8.166   3.079
18223SOL     OW56507  13.478  13.868  13.656
18223SOL    HW156508  13.496  13.958  13.684
18223SOL    HW256509  13.418  13.877  13.583
18224SOL     OW56510  10.820  12.950   6.804
18224SOL    HW156511  10.802  12.896   6.727
18224SOL    HW256512  10.914  12.967   6.800
18225SOL     OW56513   7.525   4.789   8.637
18225SOL    HW156514   7.590   4.723   8.661
18225SOL    HW256515   7.520   4.786   8.542
18226SOL     OW56516  13.515   2.191   1.264
18226SOL    HW156517  13.597   2.240   1.251
18226SOL    HW256518  13.476   2.230   1.342
18227SOL     OW56519   7.881   6.163   5.003
18227SOL    HW156520   7.837   6.078   5.002
18227SOL    HW256521   7.972   6.143   5.027
18228SOL     OW56522   2.412   8.731   9.570
18228SOL    HW156523   2.321   8.757   9.554
18228SOL    HW256524   2.441   8.695   9.486
18229SOL     OW56525   2.335   3.456  12.463
18229SOL    HW156526   2.352   3.460  12.557
18229SOL    HW256527   2.247   3.493  12.452
18230SOL     OW56528   3.813   7.255   5.025
18230SOL    HW156529   3.859   7.339   5.015
18230SOL    HW256530   3.733   7.265   4.973
18231SOL     OW56531   8.456   8.938   2.214
18231SOL    HW156532   8.390   8.983   2.161
18231SOL    HW256533   8.534   8.992   2.207
18232SOL     OW56534   8.683  14.026   1.720
18232SOL    HW156535   8.734  14.057   1.795
18232SOL    HW256536   8.716  13.938   1.703
18233SOL     OW56537   3.527   7.814   8.145
18233SOL    HW156538   3.589   7.873   8.188
18233SOL    HW256539   3.581   7.740   8.117
18234SOL     OW56540   1.482   9.736  11.420
18234SOL    HW156541   1.395   9.717  11.456
18234SOL    HW256542   1.496   9.669  11.353
18235SOL     OW56543  13.959  11.295   9.326
18235SOL    HW156544  14.019  11.310   9.399
18235SOL    HW256545  13.952  11.200   9.319
18236SOL     OW56546   7.633  12.628   7.985
18236SOL    HW156547   7.607  12.536   7.990
18236SOL    HW256548   7.554  12.674   7.957
18237SOL     OW56549  14.035  13.280   9.602
18237SOL    HW156550  14.034  13.359   9.548
18237SOL    HW256551  14.117  13.286   9.652
18238SOL     OW56552  10.288   3.638  13.640
18238SOL    HW156553  10.382   3.655  13.646
18238SOL    HW256554  10.271   3.572  13.708
18239SOL     OW56555   9.751   1.027  11.509
18239SOL    HW156556   9.764   1.061  11.420
18239SOL    HW256557   9.661   0.994  11.509
18240SOL     OW56558  14.476   6.608   2.537
18240SOL    HW156559  14.411   6.639   2.474
18240SOL    HW256560  14.425   6.574   2.610
18241SOL     OW56561   9.306   0.572  12.365
18241SOL    HW156562   9.305   0.488  12.319
18241SOL    HW256563   9.310   0.547  12.458
18242SOL     OW56564   8.727   5.041  11.610
18242SOL    HW156565   8.708   5.021  11.702
18242SOL    HW256566   8.742   5.136  11.610
18243SOL     OW56567   6.555  11.895   8.344
18243SOL    HW156568   6.640  11.914   8.384
18243SOL    HW256569   6.497  11.878   8.419
18244SOL     OW56570   4.309   9.092   7.190
18244SOL    HW156571   4.401   9.077   7.212
18244SOL    HW256572   4.278   9.007   7.158
18245SOL     OW56573  11.510   9.928   1.126
18245SOL    HW156574  11.476  10.012   1.096
18245SOL    HW256575  11.431   9.876   1.144
18246SOL     OW56576  12.531   2.189   7.471
18246SOL    HW156577  12.455   2.201   7.414
18246SOL    HW256578  12.525   2.261   7.535
18247SOL     OW56579   7.770   0.454   7.176
18247SOL    HW156580   7.734   0.539   7.203
18247SOL    HW256581   7.728   0.436   7.092
18248SOL     OW56582   6.709  13.107   7.712
18248SOL    HW156583   6.644  13.177   7.703
18248SOL    HW256584   6.696  13.074   7.801
18249SOL     OW56585  10.077  12.172   4.958
18249SOL    HW156586  10.164  12.208   4.942
18249SOL    HW256587  10.053  12.205   5.045
18250SOL     OW56588  14.476   2.464   8.634
18250SOL    HW156589  14.458   2.371   8.650
18250SOL    HW256590  14.571   2.472   8.648
18251SOL     OW56591  12.631   6.543  13.862
18251SOL    HW156592  12.611   6.460  13.820
18251SOL    HW256593  12.681   6.519  13.941
18252SOL     OW56594   8.600   9.581   3.462
18252SOL    HW156595   8.607   9.607   3.370
18252SOL    HW256596   8.685   9.602   3.499
18253SOL     OW56597   8.326  11.907  13.364
18253SOL    HW156598   8.249  11.887  13.417
18253SOL    HW256599   8.385  11.954  13.423
18254SOL     OW56600   0.865   7.514   8.890
18254SOL    HW156601   0.811   7.503   8.812
18254SOL    HW256602   0.955   7.517   8.857
18255SOL     OW56603  12.523   4.155   6.631
18255SOL    HW156604  12.479   4.070   6.634
18255SOL    HW256605  12.530   4.181   6.722
18256SOL     OW56606   8.447  11.142  13.489
18256SOL    HW156607   8.492  11.201  13.549
18256SOL    HW256608   8.395  11.084  13.546
18257SOL     OW56609   9.743  12.005   7.908
18257SOL    HW156610   9.803  12.072   7.941
18257SOL    HW256611   9.768  11.993   7.816
18258SOL     OW56612  11.480   2.673  11.092
18258SOL    HW156613  11.445   2.762  11.096
18258SOL    HW256614  11.571   2.681  11.119
18259SOL     OW56615  14.129  13.895   3.538
18259SOL    HW156616  14.175  13.892   3.622
18259SOL    HW256617  14.188  13.854   3.476
18260SOL     OW56618   0.450   6.881   4.971
18260SOL    HW156619   0.495   6.860   4.889
18260SOL    HW256620   0.416   6.969   4.958
18261SOL     OW56621   4.209   6.436  12.965
18261SOL    HW156622   4.160   6.422  12.884
18261SOL    HW256623   4.300   6.443  12.937
18262SOL     OW56624   6.367  12.115   4.708
18262SOL    HW156625   6.405  12.191   4.753
18262SOL    HW256626   6.345  12.148   4.621
18263SOL     OW56627   8.294   1.992   9.860
18263SOL    HW156628   8.283   1.903   9.892
18263SOL    HW256629   8.284   1.985   9.765
18264SOL     OW56630   3.810   5.791   5.868
18264SOL    HW156631   3.808   5.695   5.865
18264SOL    HW256632   3.741   5.817   5.807
18265SOL     OW56633   1.390   1.391  14.475
18265SOL    HW156634   1.386   1.469  14.419
18265SOL    HW256635   1.468   1.403  14.528
18266SOL     OW56636   2.907  12.724   7.953
18266SOL    HW156637   2.823  12.680   7.966
18266SOL    HW256638   2.942  12.736   8.041
18267SOL     OW56639  12.457   5.531   8.036
18267SOL    HW156640  12.497   5.618   8.037
18267SOL    HW256641  12.531   5.470   8.031
18268SOL     OW56642   1.164   5.712   9.451
18268SOL    HW156643   1.195   5.649   9.386
18268SOL    HW256644   1.140   5.789   9.400
18269SOL     OW56645  14.496  14.737   2.645
18269SOL    HW156646  14.504  14.647   2.676
18269SOL    HW256647  14.486  14.729   2.550
18270SOL     OW56648  11.705   7.716  13.539
18270SOL    HW156649  11.725   7.748  13.451
18270SOL    HW256650  11.636   7.774  13.572
18271SOL     OW56651   6.526   8.656   9.395
18271SOL    HW156652   6.495   8.606   9.471
18271SOL    HW256653   6.449   8.663   9.338
18272SOL     OW56654   4.450   9.905   6.443
18272SOL    HW156655   4.509   9.979   6.450
18272SOL    HW256656   4.507   9.829   6.432
18273SOL     OW56657   4.242   0.077   2.206
18273SOL    HW156658   4.288   0.160   2.224
18273SOL    HW256659   4.295   0.011   2.251
18274SOL     OW56660  10.067   6.703   8.999
18274SOL    HW156661  10.080   6.632   8.935
18274SOL    HW256662  10.067   6.782   8.946
18275SOL     OW56663   0.794  11.359   4.188
18275SOL    HW156664   0.809  11.270   4.220
18275SOL    HW256665   0.714  11.388   4.232
18276SOL     OW56666   7.614   1.885   4.168
18276SOL    HW156667   7.694   1.908   4.216
18276SOL    HW256668   7.544   1.929   4.216
18277SOL     OW56669   3.985   9.433   1.350
18277SOL    HW156670   3.929   9.455   1.276
18277SOL    HW256671   4.010   9.518   1.387
18278SOL     OW56672   8.597  10.638  10.274
18278SOL    HW156673   8.687  10.605  10.267
18278SOL    HW256674   8.574  10.663  10.184
18279SOL     OW56675   6.795  13.807  10.604
18279SOL    HW156676   6.758  13.801  10.692
18279SOL    HW256677   6.889  13.790  10.616
18280SOL     OW56678  11.121   7.447   5.726
18280SOL    HW156679  11.086   7.451   5.637
18280SOL    HW256680  11.208   7.409   5.717
18281SOL     OW56681  13.681   1.313   9.849
18281SOL    HW156682  13.591   1.342   9.861
18281SOL    HW256683  13.676   1.218   9.849
18282SOL     OW56684  12.395  14.805  11.167
18282SOL    HW156685  12.333  14.798  11.094
18282SOL    HW256686  12.342  14.789  11.245
18283SOL     OW56687   2.077  11.052   9.347
18283SOL    HW156688   2.164  11.015   9.364
18283SOL    HW256689   2.022  10.975   9.331
18284SOL     OW56690  12.532   4.460  11.045
18284SOL    HW156691  12.560   4.502  11.126
18284SOL    HW256692  12.478   4.526  11.001
18285SOL     OW56693   1.678   7.876  13.814
18285SOL    HW156694   1.693   7.812  13.883
18285SOL    HW256695   1.606   7.931  13.847
18286SOL     OW56696   1.921   6.053  12.812
18286SOL    HW156697   1.923   6.130  12.868
18286SOL    HW256698   1.983   6.074  12.742
18287SOL     OW56699   8.384   0.179   4.774
18287SOL    HW156700   8.379   0.212   4.863
18287SOL    HW256701   8.386   0.084   4.783
18288SOL     OW56702   3.961  11.682  10.745
18288SOL    HW156703   4.012  11.639  10.677
18288SOL    HW256704   3.990  11.773  10.743
18289SOL     OW56705   7.760   5.902   5.016
18289SOL    HW156706   7.801   5.893   5.102
18289SOL    HW256707   7.715   5.819   5.002
18290SOL     OW56708   2.851   7.471   8.963
18290SOL    HW156709   2.889   7.517   9.039
18290SOL    HW256710   2.815   7.541   8.909
18291SOL     OW56711  11.063  10.582  11.351
18291SOL    HW156712  11.079  10.596  11.258
18291SOL    HW256713  11.107  10.499  11.371
18292SOL     OW56714   7.026   1.730   1.137
18292SOL    HW156715   6.944   1.685   1.159
18292SOL    HW256716   7.076   1.729   1.219
18293SOL     OW56717   5.109   0.652   9.021
18293SOL    HW156718   5.154   0.735   9.039
18293SOL    HW256719   5.031   0.654   9.076
18294SOL     OW56720   8.213   6.877  13.477
18294SOL    HW156721   8.202   6.786  13.504
18294SOL    HW256722   8.284   6.875  13.412
18295SOL     OW56723   8.819   9.738   6.994
18295SOL    HW156724   8.775   9.732   6.909
18295SOL    HW256725   8.897   9.791   6.976
18296SOL     OW56726   0.183  13.894  11.582
18296SOL    HW156727   0.112  13.923  11.525
18296SOL    HW256728   0.185  13.959  11.653
18297SOL     OW56729  11.137   8.386   2.569
18297SOL    HW156730  11.117   8.479   2.571
18297SOL    HW256731  11.178   8.368   2.653
18298SOL     OW56732  11.889   8.004  12.983
18298SOL    HW156733  11.947   8.068  13.025
18298SOL    HW256734  11.900   8.019  12.889
18299SOL     OW56735  13.370   7.886  10.228
18299SOL    HW156736  13.400   7.949  10.294
18299SOL    HW256737  13.376   7.934  10.146
18300SOL     OW56738   4.282  14.260   9.846
18300SOL    HW156739   4.372  14.260   9.813
18300SOL    HW256740   4.240  14.186   9.802
18301SOL     OW56741  11.533   9.821   4.294
18301SOL    HW156742  11.618   9.863   4.310
18301SOL    HW256743  11.477   9.892   4.263
18302SOL     OW56744   6.208  10.766   9.470
18302SOL    HW156745   6.303  10.781   9.467
18302SOL    HW256746   6.199  10.672   9.454
18303SOL     OW56747   3.205   2.144  12.409
18303SOL    HW156748   3.188   2.159  12.502
18303SOL    HW256749   3.178   2.226  12.367
18304SOL     OW56750  11.866   7.987   5.314
18304SOL    HW156751  11.958   8.013   5.311
18304SOL    HW256752  11.847   7.978   5.407
18305SOL     OW56753   2.576  10.058   4.039
18305SOL    HW156754   2.521   9.981   4.022
18305SOL    HW256755   2.514  10.126   4.065
18306SOL     OW56756   8.438   9.907  14.404
18306SOL    HW156757   8.396   9.938  14.324
18306SOL    HW256758   8.366   9.878  14.460
18307SOL     OW56759   3.112   7.153   5.464
18307SOL    HW156760   3.110   7.238   5.419
18307SOL    HW256761   3.201   7.145   5.497
18308SOL     OW56762  11.766   3.671  12.004
18308SOL    HW156763  11.776   3.592  12.056
18308SOL    HW256764  11.840   3.726  12.028
18309SOL     OW56765  12.462   0.222  12.906
18309SOL    HW156766  12.372   0.220  12.936
18309SOL    HW256767  12.465   0.293  12.842
18310SOL     OW56768   7.095  14.853   0.894
18310SOL    HW156769   7.089   0.062   0.924
18310SOL    HW256770   7.137  14.807   0.967
18311SOL     OW56771   2.503  10.227  11.004
18311SOL    HW156772   2.519  10.134  10.989
18311SOL    HW256773   2.439  10.251  10.937
18312SOL     OW56774  11.509   6.169  12.698
18312SOL    HW156775  11.573   6.223  12.652
18312SOL    HW256776  11.447   6.232  12.735
18313SOL     OW56777  11.174  13.406   7.762
18313SOL    HW156778  11.188  13.461   7.685
18313SOL    HW256779  11.250  13.420   7.818
18314SOL     OW56780   8.945  10.007   7.792
18314SOL    HW156781   8.956  10.013   7.697
18314SOL    HW256782   8.882   9.936   7.805
18315SOL     OW56783   2.464   0.936   6.000
18315SOL    HW156784   2.502   0.906   6.082
18315SOL    HW256785   2.448   0.855   5.950
18316SOL     OW56786  12.386   5.786   1.538
18316SOL    HW156787  12.335   5.832   1.471
18316SOL    HW256788  12.473   5.826   1.534
18317SOL     OW56789  10.837   4.548   6.724
18317SOL    HW156790  10.876   4.500   6.651
18317SOL    HW256791  10.908   4.561   6.786
18318SOL     OW56792   2.614  11.412  13.553
18318SOL    HW156793   2.690  11.362  13.522
18318SOL    HW256794   2.603  11.481  13.488
18319SOL     OW56795  13.885   9.269  10.473
18319SOL    HW156796  13.945   9.303  10.539
18319SOL    HW256797  13.897   9.325  10.397
18320SOL     OW56798   5.747   8.016  11.763
18320SOL    HW156799   5.716   8.004  11.673
18320SOL    HW256800   5.698   8.091  11.795
18321SOL     OW56801   7.083   6.468  10.022
18321SOL    HW156802   7.166   6.420  10.026
18321SOL    HW256803   7.050   6.465  10.111
18322SOL     OW56804   9.008   8.803  11.726
18322SOL    HW156805   9.044   8.748  11.796
18322SOL    HW256806   9.062   8.784  11.650
18323SOL     OW56807   0.713  14.140   9.492
18323SOL    HW156808   0.726  14.087   9.571
18323SOL    HW256809   0.757  14.223   9.511
18324SOL     OW56810  12.730  13.976  11.742
18324SOL    HW156811  12.640  14.007  11.753
18324SOL    HW256812  12.740  13.964  11.647
18325SOL     OW56813  14.647   8.900   1.785
18325SOL    HW156814  14.688   8.969   1.733
18325SOL    HW256815  14.614   8.945   1.863
18326SOL     OW56816  12.794   3.220   9.629
18326SOL    HW156817  12.784   3.271   9.709
18326SOL    HW256818  12.736   3.145   9.640
18327SOL     OW56819   0.057   9.691   9.208
18327SOL    HW156820  14.876   9.755   9.243
18327SOL    HW256821   0.111   9.668   9.284
18328SOL     OW56822   1.432   8.196  13.622
18328SOL    HW156823   1.494   8.225  13.555
18328SOL    HW256824   1.364   8.151  13.572
18329SOL     OW56825  11.671  12.776  13.984
18329SOL    HW156826  11.633  12.730  14.058
18329SOL    HW256827  11.669  12.868  14.009
18330SOL     OW56828   3.526   4.182   0.591
18330SOL    HW156829   3.565   4.240   0.657
18330SOL    HW256830   3.487   4.110   0.642
18331SOL     OW56831  11.757  12.011  13.757
18331SOL    HW156832  11.850  12.030  13.762
18331SOL    HW256833  11.714  12.096  13.763
18332SOL     OW56834  14.753  11.987   1.691
18332SOL    HW156835  14.703  12.054   1.737
18332SOL    HW256836  14.787  12.031   1.614
18333SOL     OW56837   2.791  14.151  14.762
18333SOL    HW156838   2.723  14.113  14.706
18333SOL    HW256839   2.784  14.102  14.845
18334SOL     OW56840   2.784   3.435   3.670
18334SOL    HW156841   2.733   3.366   3.628
18334SOL    HW256842   2.865   3.438   3.619
18335SOL     OW56843  11.536   0.641  12.480
18335SOL    HW156844  11.571   0.558  12.512
18335SOL    HW256845  11.549   0.639  12.386
18336SOL     OW56846   3.786  14.765   8.297
18336SOL    HW156847   3.875  14.740   8.272
18336SOL    HW256848   3.736  14.760   8.215
18337SOL     OW56849  11.135   2.237  13.783
18337SOL    HW156850  11.182   2.290  13.719
18337SOL    HW256851  11.200   2.217  13.850
18338SOL     OW56852   3.887   4.535   9.819
18338SOL    HW156853   3.793   4.553   9.824
18338SOL    HW256854   3.910   4.550   9.728
18339SOL     OW56855   5.080   1.574   7.230
18339SOL    HW156856   5.134   1.639   7.274
18339SOL    HW256857   5.027   1.535   7.300
18340SOL     OW56858   0.516   8.777   1.406
18340SOL    HW156859   0.592   8.725   1.381
18340SOL    HW256860   0.515   8.774   1.502
18341SOL     OW56861   2.064   8.212   7.445
18341SOL    HW156862   2.081   8.221   7.351
18341SOL    HW256863   2.110   8.286   7.485
18342SOL     OW56864   6.652   9.596   0.335
18342SOL    HW156865   6.685   9.686   0.325
18342SOL    HW256866   6.617   9.574   0.249
18343SOL     OW56867   2.175  13.474  13.944
18343SOL    HW156868   2.124  13.402  13.907
18343SOL    HW256869   2.245  13.488  13.881
18344SOL     OW56870   0.891  10.434   3.358
18344SOL    HW156871   0.971  10.406   3.313
18344SOL    HW256872   0.878  10.524   3.330
18345SOL     OW56873  11.195   3.578   2.897
18345SOL    HW156874  11.173   3.492   2.935
18345SOL    HW256875  11.117   3.631   2.911
18346SOL     OW56876   7.092  11.124  14.683
18346SOL    HW156877   7.133  11.038  14.676
18346SOL    HW256878   7.104  11.150  14.774
18347SOL     OW56879   1.820   4.689   1.095
18347SOL    HW156880   1.773   4.679   1.013
18347SOL    HW256881   1.888   4.622   1.093
18348SOL     OW56882   9.326   4.149  11.428
18348SOL    HW156883   9.264   4.193  11.486
18348SOL    HW256884   9.385   4.102  11.487
18349SOL     OW56885  11.892  13.948   2.071
18349SOL    HW156886  11.884  14.012   1.999
18349SOL    HW256887  11.864  13.865   2.032
18350SOL     OW56888   6.661   6.921   7.496
18350SOL    HW156889   6.713   6.867   7.436
18350SOL    HW256890   6.649   7.004   7.449
18351SOL     OW56891  10.512  13.435  10.868
18351SOL    HW156892  10.567  13.387  10.806
18351SOL    HW256893  10.425  13.433  10.829
18352SOL     OW56894   1.994   4.048   5.842
18352SOL    HW156895   2.085   4.052   5.871
18352SOL    HW256896   1.970   4.139   5.825
18353SOL     OW56897   8.142   9.612   6.262
18353SOL    HW156898   8.130   9.694   6.214
18353SOL    HW256899   8.105   9.545   6.206
18354SOL     OW56900   2.302   7.779   4.893
18354SOL    HW156901   2.272   7.694   4.860
18354SOL    HW256902   2.260   7.788   4.978
18355SOL     OW56903   4.782   5.771  10.028
18355SOL    HW156904   4.746   5.701  10.082
18355SOL    HW256905   4.782   5.734   9.939
18356SOL     OW56906   2.610   6.431  13.373
18356SOL    HW156907   2.649   6.488  13.306
18356SOL    HW256908   2.517   6.433  13.354
18357SOL     OW56909   8.356   4.817   0.010
18357SOL    HW156910   8.359   4.795  14.798
18357SOL    HW256911   8.267   4.795   0.037
18358SOL     OW56912  11.898   7.450  12.466
18358SOL    HW156913  11.951   7.524  12.496
18358SOL    HW256914  11.922   7.378  12.525
18359SOL     OW56915  12.642   4.769   1.311
18359SOL    HW156916  12.698   4.726   1.375
18359SOL    HW256917  12.568   4.710   1.300
18360SOL     OW56918   5.750  14.681   3.368
18360SOL    HW156919   5.745  14.673   3.463
18360SOL    HW256920   5.789  14.598   3.339
18361SOL     OW56921   7.815  14.633   5.564
18361SOL    HW156922   7.829  14.666   5.475
18361SOL    HW256923   7.729  14.591   5.561
18362SOL     OW56924   4.057   5.088  11.729
18362SOL    HW156925   3.963   5.109  11.728
18362SOL    HW256926   4.063   5.006  11.778
18363SOL     OW56927   2.742   4.849   6.915
18363SOL    HW156928   2.713   4.876   7.002
18363SOL    HW256929   2.714   4.920   6.857
18364SOL     OW56930   4.701   2.389   4.628
18364SOL    HW156931   4.624   2.345   4.593
18364SOL    HW256932   4.768   2.378   4.560
18365SOL     OW56933  14.605  14.655   2.007
18365SOL    HW156934  14.535  14.593   1.986
18365SOL    HW256935  14.677  14.600   2.037
18366SOL     OW56936  10.320   8.443  11.321
18366SOL    HW156937  10.344   8.416  11.233
18366SOL    HW256938  10.369   8.524  11.336
18367SOL     OW56939   2.272   0.603   9.909
18367SOL    HW156940   2.272   0.508   9.903
18367SOL    HW256941   2.243   0.621   9.999
18368SOL     OW56942   9.812  11.379   7.673
18368SOL    HW156943   9.888  11.327   7.647
18368SOL    HW256944   9.739  11.317   7.669
18369SOL     OW56945   8.222   5.609   1.011
18369SOL    HW156946   8.162   5.654   0.952
18369SOL    HW256947   8.231   5.521   0.974
18370SOL     OW56948   9.315   0.158   5.450
18370SOL    HW156949   9.243   0.154   5.514
18370SOL    HW256950   9.281   0.113   5.373
18371SOL     OW56951   4.044  10.453   3.014
18371SOL    HW156952   4.130  10.433   2.977
18371SOL    HW256953   3.982  10.429   2.945
18372SOL     OW56954   4.313  12.536   1.330
18372SOL    HW156955   4.363  12.603   1.282
18372SOL    HW256956   4.223  12.567   1.326
18373SOL     OW56957   9.681   2.980   4.719
18373SOL    HW156958   9.707   2.937   4.800
18373SOL    HW256959   9.748   2.954   4.656
18374SOL     OW56960  14.015  12.617  13.852
18374SOL    HW156961  13.950  12.660  13.798
18374SOL    HW256962  13.969  12.542  13.890
18375SOL     OW56963   9.519  10.205   5.867
18375SOL    HW156964   9.503  10.277   5.806
18375SOL    HW256965   9.438  10.199   5.919
18376SOL     OW56966   0.428   2.574   3.563
18376SOL    HW156967   0.354   2.543   3.511
18376SOL    HW256968   0.479   2.628   3.502
18377SOL     OW56969   5.658   2.952   7.442
18377SOL    HW156970   5.686   2.866   7.476
18377SOL    HW256971   5.563   2.951   7.450
18378SOL     OW56972  11.390   7.978   9.921
18378SOL    HW156973  11.426   7.901   9.964
18378SOL    HW256974  11.382   8.043   9.991
18379SOL     OW56975   7.988  11.202   1.843
18379SOL    HW156976   8.081  11.208   1.865
18379SOL    HW256977   7.986  11.202   1.747
18380SOL     OW56978   6.536  11.617  11.015
18380SOL    HW156979   6.481  11.664  10.954
18380SOL    HW256980   6.625  11.627  10.982
18381SOL     OW56981   5.803   4.231   4.776
18381SOL    HW156982   5.819   4.322   4.753
18381SOL    HW256983   5.873   4.208   4.837
18382SOL     OW56984  13.005   8.696  10.429
18382SOL    HW156985  13.077   8.759  10.428
18382SOL    HW256986  12.994   8.671  10.337
18383SOL     OW56987   5.988   2.525   5.950
18383SOL    HW156988   6.017   2.485   6.032
18383SOL    HW256989   5.984   2.452   5.888
18384SOL     OW56990   1.430   2.291   2.266
18384SOL    HW156991   1.448   2.198   2.258
18384SOL    HW256992   1.347   2.296   2.315
18385SOL     OW56993  13.378  10.196  14.211
18385SOL    HW156994  13.421  10.128  14.159
18385SOL    HW256995  13.298  10.217  14.161
18386SOL     OW56996   5.966   4.764   6.629
18386SOL    HW156997   6.050   4.752   6.674
18386SOL    HW256998   5.924   4.678   6.634
18387SOL     OW56999   5.654   0.553   1.419
18387SOL    HW157000   5.647   0.644   1.388
18387SOL    HW257001   5.659   0.560   1.514
18388SOL     OW57002   5.736   8.080  11.137
18388SOL    HW157003   5.658   8.085  11.191
18388SOL    HW257004   5.808   8.098  11.197
18389SOL     OW57005   8.572  12.849   2.893
18389SOL    HW157006   8.566  12.840   2.798
18389SOL    HW257007   8.574  12.944   2.908
18390SOL     OW57008   1.584   3.118  12.906
18390SOL    HW157009   1.529   3.119  12.828
18390SOL    HW257010   1.655   3.058  12.885
18391SOL     OW57011  14.587   8.163  13.044
18391SOL    HW157012  14.549   8.139  12.960
18391SOL    HW257013  14.659   8.101  13.057
18392SOL     OW57014   0.353   0.336   9.431
18392SOL    HW157015   0.298   0.388   9.489
18392SOL    HW257016   0.404   0.400   9.382
18393SOL     OW57017   6.708  12.777   2.352
18393SOL    HW157018   6.614  12.794   2.346
18393SOL    HW257019   6.717  12.710   2.419
18394SOL     OW57020   1.697   8.887  10.458
18394SOL    HW157021   1.793   8.889  10.454
18394SOL    HW257022   1.672   8.822  10.393
18395SOL     OW57023  14.692  14.861  13.527
18395SOL    HW157024  14.649   0.018  13.451
18395SOL    HW257025  14.704   0.052  13.588
18396SOL     OW57026  14.827   2.710   3.421
18396SOL    HW157027  14.753   2.669   3.376
18396SOL    HW257028  14.837   2.795   3.378
18397SOL     OW57029  14.077  14.402   7.811
18397SOL    HW157030  14.119  14.345   7.747
18397SOL    HW257031  14.087  14.356   7.894
18398SOL     OW57032  13.463  11.711  12.350
18398SOL    HW157033  13.474  11.654  12.274
18398SOL    HW257034  13.422  11.790  12.315
18399SOL     OW57035   4.427   3.108  10.981
18399SOL    HW157036   4.484   3.054  10.926
18399SOL    HW257037   4.485   3.176  11.016
18400SOL     OW57038   5.375   8.460   9.849
18400SOL    HW157039   5.304   8.492   9.904
18400SOL    HW257040   5.370   8.365   9.855
18401SOL     OW57041   0.188   9.245   1.412
18401SOL    HW157042   0.148   9.236   1.326
18401SOL    HW257043   0.148   9.324   1.449
18402SOL     OW57044   3.555   1.409   5.029
18402SOL    HW157045   3.493   1.371   4.966
18402SOL    HW257046   3.638   1.365   5.011
18403SOL     OW57047   3.989   1.552   5.443
18403SOL    HW157048   3.970   1.484   5.379
18403SOL    HW257049   3.933   1.532   5.518
18404SOL     OW57050   7.634  10.081  11.514
18404SOL    HW157051   7.616  10.158  11.567
18404SOL    HW257052   7.672  10.115  11.433
18405SOL     OW57053   3.423   1.574   4.294
18405SOL    HW157054   3.483   1.536   4.229
18405SOL    HW257055   3.339   1.531   4.277
18406SOL     OW57056   7.356   1.206   5.201
18406SOL    HW157057   7.289   1.148   5.165
18406SOL    HW257058   7.312   1.291   5.209
18407SOL     OW57059   1.482   6.918   6.929
18407SOL    HW157060   1.438   6.891   7.010
18407SOL    HW257061   1.412   6.920   6.864
18408SOL     OW57062   4.069   3.260  10.262
18408SOL    HW157063   3.975   3.246  10.252
18408SOL    HW257064   4.076   3.333  10.324
18409SOL     OW57065  12.150   0.755   3.573
18409SOL    HW157066  12.091   0.829   3.582
18409SOL    HW257067  12.238   0.794   3.571
18410SOL     OW57068   9.581  12.976   2.484
18410SOL    HW157069   9.569  12.925   2.564
18410SOL    HW257070   9.575  13.067   2.512
18411SOL     OW57071  12.829   3.264   8.825
18411SOL    HW157072  12.860   3.352   8.803
18411SOL    HW257073  12.810   3.268   8.919
18412SOL     OW57074   1.493   3.742   9.724
18412SOL    HW157075   1.519   3.734   9.632
18412SOL    HW257076   1.431   3.670   9.737
18413SOL     OW57077   3.881   1.406  11.772
18413SOL    HW157078   3.958   1.361  11.736
18413SOL    HW257079   3.893   1.402  11.867
18414SOL     OW57080   0.392   8.607  11.904
18414SOL    HW157081   0.420   8.698  11.896
18414SOL    HW257082   0.298   8.612  11.921
18415SOL     OW57083   2.234   1.089   4.694
18415SOL    HW157084   2.265   1.026   4.628
18415SOL    HW257085   2.203   1.164   4.643
18416SOL     OW57086   8.661   0.103   2.342
18416SOL    HW157087   8.702   0.070   2.422
18416SOL    HW257088   8.730   0.098   2.276
18417SOL     OW57089  12.858   3.955  10.373
18417SOL    HW157090  12.935   4.011  10.383
18417SOL    HW257091  12.838   3.926  10.462
18418SOL     OW57092  10.351   1.436   6.749
18418SOL    HW157093  10.418   1.494   6.714
18418SOL    HW257094  10.269   1.472   6.717
18419SOL     OW57095   1.974   7.030  12.504
18419SOL    HW157096   1.881   7.006  12.509
18419SOL    HW257097   2.016   6.953  12.465
18420SOL     OW57098   4.014   0.049   9.042
18420SOL    HW157099   4.099   0.023   9.006
18420SOL    HW257100   3.952   0.033   8.971
18421SOL     OW57101   7.256   1.168   2.092
18421SOL    HW157102   7.326   1.204   2.147
18421SOL    HW257103   7.299   1.097   2.043
18422SOL     OW57104   4.895   4.733   3.977
18422SOL    HW157105   4.815   4.777   3.948
18422SOL    HW257106   4.868   4.684   4.055
18423SOL     OW57107   7.978  14.644   9.311
18423SOL    HW157108   8.007  14.593   9.235
18423SOL    HW257109   7.896  14.685   9.283
18424SOL     OW57110  14.811   5.125   5.144
18424SOL    HW157111  14.847   5.037   5.152
18424SOL    HW257112   0.004   5.183   5.153
18425SOL     OW57113   1.971   2.676   8.498
18425SOL    HW157114   1.898   2.639   8.448
18425SOL    HW257115   2.034   2.704   8.432
18426SOL     OW57116   3.892   1.274  10.908
18426SOL    HW157117   3.942   1.202  10.872
18426SOL    HW257118   3.876   1.333  10.834
18427SOL     OW57119   1.465   1.860   9.077
18427SOL    HW157120   1.412   1.855   9.156
18427SOL    HW257121   1.420   1.923   9.022
18428SOL     OW57122   1.401   8.486   4.741
18428SOL    HW157123   1.385   8.405   4.789
18428SOL    HW257124   1.483   8.470   4.694
18429SOL     OW57125   1.467   8.353  11.906
18429SOL    HW157126   1.382   8.310  11.915
18429SOL    HW257127   1.456   8.437  11.952
18430SOL     OW57128   8.901   7.634   1.072
18430SOL    HW157129   8.877   7.627   0.980
18430SOL    HW257130   8.873   7.722   1.098
18431SOL     OW57131  12.454  13.111  14.525
18431SOL    HW157132  12.461  13.196  14.568
18431SOL    HW257133  12.488  13.125  14.437
18432SOL     OW57134  13.275   2.335  13.776
18432SOL    HW157135  13.274   2.375  13.690
18432SOL    HW257136  13.210   2.264  13.771
18433SOL     OW57137   8.145   7.537   1.198
18433SOL    HW157138   8.093   7.457   1.207
18433SOL    HW257139   8.201   7.538   1.276
18434SOL     OW57140   7.795   8.125  14.191
18434SOL    HW157141   7.882   8.147  14.224
18434SOL    HW257142   7.777   8.191  14.125
18435SOL     OW57143   8.327   4.941   8.987
18435SOL    HW157144   8.248   4.968   8.939
18435SOL    HW257145   8.384   5.018   8.983
18436SOL     OW57146  14.770  10.817   9.661
18436SOL    HW157147  14.843  10.859   9.705
18436SOL    HW257148  14.806  10.786   9.578
18437SOL     OW57149   9.397   7.927   3.167
18437SOL    HW157150   9.358   7.964   3.247
18437SOL    HW257151   9.474   7.982   3.151
18438SOL     OW57152  13.295  13.151   7.612
18438SOL    HW157153  13.206  13.168   7.642
18438SOL    HW257154  13.285  13.099   7.532
18439SOL     OW57155   4.957  12.777   1.701
18439SOL    HW157156   5.046  12.791   1.734
18439SOL    HW257157   4.968  12.721   1.624
18440SOL     OW57158  14.289  13.362   5.579
18440SOL    HW157159  14.246  13.447   5.582
18440SOL    HW257160  14.217  13.299   5.567
18441SOL     OW57161   9.706   7.051   4.713
18441SOL    HW157162   9.646   7.079   4.645
18441SOL    HW257163   9.684   7.105   4.789
18442SOL     OW57164  13.448   9.465   4.824
18442SOL    HW157165  13.451   9.441   4.916
18442SOL    HW257166  13.421   9.384   4.779
18443SOL     OW57167   9.435  10.437   0.033
18443SOL    HW157168   9.445  10.421  14.821
18443SOL    HW257169   9.429  10.533   0.040
18444SOL     OW57170  12.398   2.393  13.938
18444SOL    HW157171  12.409   2.488  13.947
18444SOL    HW257172  12.315   2.374  13.982
18445SOL     OW57173   6.999  12.577   2.314
18445SOL    HW157174   6.927  12.571   2.377
18445SOL    HW257175   6.963  12.541   2.233
18446SOL     OW57176   7.129   0.001  14.448
18446SOL    HW157177   7.041   0.019  14.481
18446SOL    HW257178   7.177  14.850  14.524
18447SOL     OW57179  11.249   8.097   5.998
18447SOL    HW157180  11.157   8.074   6.009
18447SOL    HW257181  11.287   8.021   5.953
18448SOL     OW57182  12.494  14.817   6.151
18448SOL    HW157183  12.459  14.728   6.161
18448SOL    HW257184  12.585  14.810   6.180
18449SOL     OW57185   5.366  10.439  14.763
18449SOL    HW157186   5.461  10.450  14.754
18449SOL    HW257187   5.346  10.471  14.851
18450SOL     OW57188   0.816   0.216   9.578
18450SOL    HW157189   0.807   0.296   9.630
18450SOL    HW257190   0.852   0.152   9.639
18451SOL     OW57191   5.739   2.396   0.942
18451SOL    HW157192   5.810   2.424   0.999
18451SOL    HW257193   5.768   2.312   0.907
18452SOL     OW57194   4.355  13.830   8.721
18452SOL    HW157195   4.321  13.848   8.809
18452SOL    HW257196   4.336  13.737   8.707
18453SOL     OW57197   5.646   3.164   9.759
18453SOL    HW157198   5.618   3.072   9.759
18453SOL    HW257199   5.602   3.203   9.684
18454SOL     OW57200   5.802   3.761   7.159
18454SOL    HW157201   5.858   3.838   7.147
18454SOL    HW257202   5.860   3.687   7.149
18455SOL     OW57203  13.006   5.830   6.598
18455SOL    HW157204  12.937   5.812   6.533
18455SOL    HW257205  12.989   5.920   6.626
18456SOL     OW57206   4.217   1.510  10.308
18456SOL    HW157207   4.208   1.443  10.240
18456SOL    HW257208   4.210   1.462  10.390
18457SOL     OW57209   8.952   5.201   8.968
18457SOL    HW157210   9.011   5.243   8.905
18457SOL    HW257211   9.009   5.176   9.041
18458SOL     OW57212   5.490   9.715   4.730
18458SOL    HW157213   5.469   9.808   4.723
18458SOL    HW257214   5.424   9.680   4.790
18459SOL     OW57215  10.834  14.210   6.105
18459SOL    HW157216  10.788  14.139   6.149
18459SOL    HW257217  10.862  14.173   6.022
18460SOL     OW57218   3.437   3.469  13.670
18460SOL    HW157219   3.502   3.536  13.648
18460SOL    HW257220   3.396   3.500  13.751
18461SOL     OW57221   1.431   7.728  12.778
18461SOL    HW157222   1.385   7.740  12.861
18461SOL    HW257223   1.377   7.774  12.713
18462SOL     OW57224   0.244  14.147   9.244
18462SOL    HW157225   0.293  14.140   9.326
18462SOL    HW257226   0.280  14.225   9.201
18463SOL     OW57227   1.693  12.970  14.695
18463SOL    HW157228   1.743  12.921  14.629
18463SOL    HW257229   1.610  12.923  14.701
18464SOL     OW57230   0.098   6.194   9.085
18464SOL    HW157231   0.107   6.289   9.096
18464SOL    HW257232   0.177   6.168   9.038
18465SOL     OW57233   8.745   3.018   8.562
18465SOL    HW157234   8.766   3.007   8.469
18465SOL    HW257235   8.649   3.027   8.563
18466SOL     OW57236   7.727   0.226   8.938
18466SOL    HW157237   7.696   0.191   8.854
18466SOL    HW257238   7.809   0.271   8.916
18467SOL     OW57239   3.085   7.088   1.264
18467SOL    HW157240   3.142   7.151   1.218
18467SOL    HW257241   3.145   7.020   1.295
18468SOL     OW57242   5.390   4.236   5.739
18468SOL    HW157243   5.307   4.279   5.717
18468SOL    HW257244   5.452   4.308   5.749
18469SOL     OW57245   3.314  11.617   4.323
18469SOL    HW157246   3.327  11.525   4.345
18469SOL    HW257247   3.381  11.636   4.257
18470SOL     OW57248  12.530   1.399   3.971
18470SOL    HW157249  12.486   1.460   4.031
18470SOL    HW257250  12.460   1.341   3.941
18471SOL     OW57251   0.183   3.274   5.913
18471SOL    HW157252   0.164   3.368   5.922
18471SOL    HW257253   0.248   3.270   5.842
18472SOL     OW57254   5.753   1.530   7.309
18472SOL    HW157255   5.690   1.515   7.239
18472SOL    HW257256   5.700   1.556   7.384
18473SOL     OW57257  14.371   9.287   8.980
18473SOL    HW157258  14.430   9.218   8.951
18473SOL    HW257259  14.364   9.346   8.905
18474SOL     OW57260   8.175  11.718   3.387
18474SOL    HW157261   8.259  11.710   3.342
18474SOL    HW257262   8.115  11.753   3.322
18475SOL     OW57263  12.976   2.650   3.889
18475SOL    HW157264  13.057   2.701   3.889
18475SOL    HW257265  12.974   2.608   3.975
18476SOL     OW57266   4.985   8.728   1.226
18476SOL    HW157267   4.997   8.761   1.137
18476SOL    HW257268   4.897   8.758   1.251
18477SOL     OW57269   2.299   9.191  10.926
18477SOL    HW157270   2.390   9.213  10.906
18477SOL    HW257271   2.294   9.199  11.022
18478SOL     OW57272  14.504  13.588   4.690
18478SOL    HW157273  14.444  13.520   4.660
18478SOL    HW257274  14.478  13.604   4.781
18479SOL     OW57275   0.548   7.952   6.099
18479SOL    HW157276   0.482   7.910   6.043
18479SOL    HW257277   0.537   8.045   6.083
18480SOL     OW57278   9.041   0.722   4.256
18480SOL    HW157279   8.973   0.775   4.299
18480SOL    HW257280   9.016   0.632   4.276
18481SOL     OW57281   8.837   6.230  12.430
18481SOL    HW157282   8.774   6.213  12.360
18481SOL    HW257283   8.882   6.147  12.444
18482SOL     OW57284   3.052   6.057   3.611
18482SOL    HW157285   2.959   6.052   3.589
18482SOL    HW257286   3.077   5.966   3.628
18483SOL     OW57287  10.719   8.958   6.920
18483SOL    HW157288  10.762   8.940   7.003
18483SOL    HW257289  10.719   8.874   6.874
18484SOL     OW57290  10.408   0.682  10.200
18484SOL    HW157291  10.403   0.587  10.190
18484SOL    HW257292  10.500   0.699  10.221
18485SOL     OW57293  10.794   9.228   2.800
18485SOL    HW157294  10.875   9.179   2.788
18485SOL    HW257295  10.819   9.320   2.793
18486SOL     OW57296   9.850  10.978   9.047
18486SOL    HW157297   9.851  11.062   9.001
18486SOL    HW257298   9.827  10.914   8.980
18487SOL     OW57299  10.106  11.000  13.559
18487SOL    HW157300  10.098  10.915  13.604
18487SOL    HW257301  10.125  11.062  13.630
18488SOL     OW57302  14.249  12.054  13.640
18488SOL    HW157303  14.264  12.146  13.661
18488SOL    HW257304  14.154  12.046  13.628
18489SOL     OW57305   7.885   8.383  10.894
18489SOL    HW157306   7.824   8.391  10.968
18489SOL    HW257307   7.839   8.424  10.820
18490SOL     OW57308   1.909   2.945   1.523
18490SOL    HW157309   1.978   2.882   1.506
18490SOL    HW257310   1.952   3.030   1.521
18491SOL     OW57311   0.712  11.775  10.779
18491SOL    HW157312   0.692  11.809  10.867
18491SOL    HW257313   0.634  11.794  10.727
18492SOL     OW57314  10.575   3.447   8.983
18492SOL    HW157315  10.589   3.434   9.077
18492SOL    HW257316  10.482   3.431   8.970
18493SOL     OW57317   0.361   2.311   3.222
18493SOL    HW157318   0.293   2.245   3.239
18493SOL    HW257319   0.339   2.345   3.135
18494SOL     OW57320   7.665   9.227   4.972
18494SOL    HW157321   7.737   9.164   4.972
18494SOL    HW257322   7.590   9.178   4.938
18495SOL     OW57323  13.408   2.878   7.018
18495SOL    HW157324  13.410   2.796   6.969
18495SOL    HW257325  13.497   2.889   7.052
18496SOL     OW57326   0.023  13.932  12.462
18496SOL    HW157327   0.041  13.838  12.462
18496SOL    HW257328  14.824  13.942  12.412
18497SOL     OW57329   5.298   8.803   7.240
18497SOL    HW157330   5.253   8.884   7.265
18497SOL    HW257331   5.240   8.733   7.268
18498SOL     OW57332  10.929  10.369   4.331
18498SOL    HW157333  10.969  10.425   4.397
18498SOL    HW257334  11.002  10.332   4.283
18499SOL     OW57335   9.303   7.070   9.600
18499SOL    HW157336   9.290   7.018   9.680
18499SOL    HW257337   9.394   7.099   9.606
18500SOL     OW57338   5.250  12.964  12.520
18500SOL    HW157339   5.328  12.948  12.467
18500SOL    HW257340   5.188  12.896  12.493
18501SOL     OW57341   4.628   2.321  11.004
18501SOL    HW157342   4.545   2.368  11.013
18501SOL    HW257343   4.668   2.357  10.925
18502SOL     OW57344   8.597   3.307   1.833
18502SOL    HW157345   8.598   3.402   1.839
18502SOL    HW257346   8.597   3.277   1.924
18503SOL     OW57347  10.142   8.166   5.410
18503SOL    HW157348  10.101   8.124   5.334
18503SOL    HW257349  10.182   8.246   5.374
18504SOL     OW57350   6.704   9.998   4.897
18504SOL    HW157351   6.639   9.940   4.938
18504SOL    HW257352   6.763  10.021   4.969
18505SOL     OW57353  11.796  10.816  14.679
18505SOL    HW157354  11.707  10.851  14.672
18505SOL    HW257355  11.790  10.750  14.748
18506SOL     OW57356  13.414  12.784   7.609
18506SOL    HW157357  13.466  12.846   7.661
18506SOL    HW257358  13.478  12.741   7.553
18507SOL     OW57359   7.414   0.601  13.557
18507SOL    HW157360   7.415   0.508  13.579
18507SOL    HW257361   7.421   0.646  13.641
18508SOL     OW57362  14.524   0.461   5.813
18508SOL    HW157363  14.523   0.549   5.850
18508SOL    HW257364  14.535   0.404   5.888
18509SOL     OW57365   7.499   8.489   0.001
18509SOL    HW157366   7.536   8.523  14.801
18509SOL    HW257367   7.405   8.508  14.876
18510SOL     OW57368  13.244   9.336   9.651
18510SOL    HW157369  13.257   9.314   9.743
18510SOL    HW257370  13.151   9.317   9.635
18511SOL     OW57371   2.045   5.750  12.069
18511SOL    HW157372   1.970   5.779  12.120
18511SOL    HW257373   2.066   5.824  12.012
18512SOL     OW57374  12.449   5.646   5.356
18512SOL    HW157375  12.391   5.722   5.354
18512SOL    HW257376  12.535   5.681   5.331
18513SOL     OW57377   1.269  12.214   1.341
18513SOL    HW157378   1.220  12.276   1.394
18513SOL    HW257379   1.251  12.240   1.250
18514SOL     OW57380  12.881  10.546   7.851
18514SOL    HW157381  12.923  10.480   7.907
18514SOL    HW257382  12.901  10.518   7.762
18515SOL     OW57383   2.184  14.061  14.006
18515SOL    HW157384   2.183  14.084  14.099
18515SOL    HW257385   2.273  14.079  13.977
18516SOL     OW57386   6.785   6.038   0.809
18516SOL    HW157387   6.735   5.996   0.739
18516SOL    HW257388   6.781   6.132   0.789
18517SOL     OW57389   6.621  11.388   4.390
18517SOL    HW157390   6.702  11.439   4.385
18517SOL    HW257391   6.599  11.386   4.483
18518SOL     OW57392   0.107  12.284   5.463
18518SOL    HW157393   0.028  12.236   5.436
18518SOL    HW257394   0.125  12.343   5.390
18519SOL     OW57395   8.902  10.832  12.590
18519SOL    HW157396   8.899  10.780  12.510
18519SOL    HW257397   8.969  10.789  12.644
18520SOL     OW57398  12.781   1.044   2.935
18520SOL    HW157399  12.759   1.078   2.848
18520SOL    HW257400  12.877   1.043   2.936
18521SOL     OW57401  12.523   1.053  14.237
18521SOL    HW157402  12.555   1.068  14.326
18521SOL    HW257403  12.430   1.031  14.249
18522SOL     OW57404   4.731  13.287   8.671
18522SOL    HW157405   4.780  13.350   8.619
18522SOL    HW257406   4.798  13.229   8.707
18523SOL     OW57407   6.339   9.101   6.108
18523SOL    HW157408   6.257   9.151   6.100
18523SOL    HW257409   6.384   9.115   6.025
18524SOL     OW57410  14.282   2.152   9.754
18524SOL    HW157411  14.304   2.107   9.836
18524SOL    HW257412  14.243   2.084   9.699
18525SOL     OW57413  12.059   7.968   4.446
18525SOL    HW157414  12.006   7.893   4.416
18525SOL    HW257415  12.114   7.989   4.371
18526SOL     OW57416   7.881   1.133   8.503
18526SOL    HW157417   7.811   1.193   8.479
18526SOL    HW257418   7.940   1.134   8.427
18527SOL     OW57419   2.847  12.024   9.117
18527SOL    HW157420   2.860  12.025   9.022
18527SOL    HW257421   2.766  12.073   9.131
18528SOL     OW57422  12.559  11.194   2.683
18528SOL    HW157423  12.581  11.109   2.720
18528SOL    HW257424  12.473  11.183   2.645
18529SOL     OW57425   3.984  14.546   5.738
18529SOL    HW157426   3.928  14.470   5.758
18529SOL    HW257427   4.057  14.539   5.800
18530SOL     OW57428   1.290  11.548  13.944
18530SOL    HW157429   1.213  11.591  13.906
18530SOL    HW257430   1.348  11.620  13.968
18531SOL     OW57431   5.782   4.655   1.394
18531SOL    HW157432   5.737   4.603   1.326
18531SOL    HW257433   5.866   4.610   1.406
18532SOL     OW57434  11.783   3.690   4.387
18532SOL    HW157435  11.771   3.640   4.468
18532SOL    HW257436  11.877   3.689   4.372
18533SOL     OW57437   0.181   9.649  12.881
18533SOL    HW157438   0.231   9.643  12.963
18533SOL    HW257439   0.091   9.635  12.907
18534SOL     OW57440  14.292  11.602   4.284
18534SOL    HW157441  14.345  11.586   4.362
18534SOL    HW257442  14.211  11.553   4.299
18535SOL     OW57443  13.467   1.939   5.187
18535SOL    HW157444  13.522   2.015   5.205
18535SOL    HW257445  13.444   1.905   5.273
18536SOL     OW57446  13.628   5.867   3.185
18536SOL    HW157447  13.654   5.794   3.241
18536SOL    HW257448  13.537   5.884   3.209
18537SOL     OW57449   4.980   6.187  13.160
18537SOL    HW157450   5.067   6.148  13.152
18537SOL    HW257451   4.920   6.113  13.159
18538SOL     OW57452   8.128   4.026  14.652
18538SOL    HW157453   8.194   4.095  14.644
18538SOL    HW257454   8.172   3.957  14.703
18539SOL     OW57455   2.861   8.079   3.150
18539SOL    HW157456   2.826   8.022   3.219
18539SOL    HW257457   2.872   8.164   3.192
18540SOL     OW57458   7.653  11.164   9.939
18540SOL    HW157459   7.677  11.103  10.009
18540SOL    HW257460   7.710  11.239   9.951
18541SOL     OW57461   1.842   7.399   7.817
18541SOL    HW157462   1.830   7.309   7.788
18541SOL    HW257463   1.871   7.446   7.739
18542SOL     OW57464   1.752   4.128  10.611
18542SOL    HW157465   1.765   4.182  10.689
18542SOL    HW257466   1.701   4.183  10.552
18543SOL     OW57467   9.878  12.959  14.285
18543SOL    HW157468   9.961  12.938  14.243
18543SOL    HW257469   9.899  13.028  14.348
18544SOL     OW57470   5.882   9.387  13.767
18544SOL    HW157471   5.921   9.313  13.813
18544SOL    HW257472   5.832   9.434  13.834
18545SOL     OW57473   2.237  13.589   0.142
18545SOL    HW157474   2.279  13.625   0.064
18545SOL    HW257475   2.224  13.664   0.200
18546SOL     OW57476   9.955   2.583   4.853
18546SOL    HW157477   9.929   2.556   4.765
18546SOL    HW257478   9.874   2.576   4.904
18547SOL     OW57479   4.093   9.282  11.516
18547SOL    HW157480   4.107   9.359  11.571
18547SOL    HW257481   4.180   9.241  11.511
18548SOL     OW57482   3.119   7.439   4.450
18548SOL    HW157483   3.130   7.393   4.533
18548SOL    HW257484   3.208   7.466   4.426
18549SOL     OW57485   9.202   9.862   8.758
18549SOL    HW157486   9.279   9.885   8.811
18549SOL    HW257487   9.162   9.946   8.735
18550SOL     OW57488  11.315   9.453  13.913
18550SOL    HW157489  11.248   9.398  13.872
18550SOL    HW257490  11.277   9.541  13.913
18551SOL     OW57491   8.563   4.865  11.093
18551SOL    HW157492   8.612   4.784  11.109
18551SOL    HW257493   8.506   4.874  11.169
18552SOL     OW57494   9.647   3.074  13.021
18552SOL    HW157495   9.640   3.156  12.972
18552SOL    HW257496   9.573   3.021  12.990
18553SOL     OW57497  14.298   0.590   2.158
18553SOL    HW157498  14.220   0.544   2.126
18553SOL    HW257499  14.266   0.677   2.182
18554SOL     OW57500   2.165  11.137   8.889
18554SOL    HW157501   2.134  11.165   8.975
18554SOL    HW257502   2.123  11.197   8.827
18555SOL     OW57503  10.089   8.668   0.448
18555SOL    HW157504  10.031   8.666   0.524
18555SOL    HW257505  10.048   8.609   0.385
18556SOL     OW57506   1.373  13.223   5.582
18556SOL    HW157507   1.401  13.183   5.664
18556SOL    HW257508   1.400  13.315   5.590
18557SOL     OW57509   2.401   2.492  10.671
18557SOL    HW157510   2.436   2.519  10.756
18557SOL    HW257511   2.315   2.533  10.666
18558SOL     OW57512  10.776   2.125   1.508
18558SOL    HW157513  10.808   2.035   1.502
18558SOL    HW257514  10.767   2.141   1.602
18559SOL     OW57515  14.823   8.630  11.248
18559SOL    HW157516  14.729   8.636  11.234
18559SOL    HW257517  14.836   8.547  11.293
18560SOL     OW57518   4.109  11.298  11.298
18560SOL    HW157519   4.193  11.280  11.255
18560SOL    HW257520   4.133  11.319  11.389
18561SOL     OW57521   9.497   7.338   3.267
18561SOL    HW157522   9.577   7.333   3.214
18561SOL    HW257523   9.494   7.429   3.296
18562SOL     OW57524   5.415   3.539  13.484
18562SOL    HW157525   5.362   3.498  13.416
18562SOL    HW257526   5.357   3.545  13.560
18563SOL     OW57527   6.540  11.486   3.062
18563SOL    HW157528   6.575  11.505   2.976
18563SOL    HW257529   6.462  11.433   3.045
18564SOL     OW57530   8.338   6.414  14.353
18564SOL    HW157531   8.250   6.416  14.317
18564SOL    HW257532   8.390   6.367  14.287
18565SOL     OW57533   5.174   6.644  12.936
18565SOL    HW157534   5.078   6.652  12.940
18565SOL    HW257535   5.193   6.642  12.842
18566SOL     OW57536  12.818  14.092   5.198
18566SOL    HW157537  12.745  14.153   5.192
18566SOL    HW257538  12.882  14.136   5.253
18567SOL     OW57539   7.903   3.770  14.487
18567SOL    HW157540   7.962   3.841  14.460
18567SOL    HW257541   7.818   3.795  14.451
18568SOL     OW57542   3.773   4.099  10.040
18568SOL    HW157543   3.863   4.128  10.050
18568SOL    HW257544   3.758   4.098   9.945
18569SOL     OW57545   5.817  11.783  12.618
18569SOL    HW157546   5.878  11.850  12.651
18569SOL    HW257547   5.810  11.720  12.690
18570SOL     OW57548   2.475  10.678  13.516
18570SOL    HW157549   2.409  10.636  13.570
18570SOL    HW257550   2.425  10.727  13.451
18571SOL     OW57551   8.408   6.842  13.242
18571SOL    HW157552   8.458   6.908  13.290
18571SOL    HW257553   8.372   6.889  13.167
18572SOL     OW57554   3.139   9.550   2.708
18572SOL    HW157555   3.178   9.469   2.673
18572SOL    HW257556   3.045   9.533   2.710
18573SOL     OW57557  10.470   5.855   2.128
18573SOL    HW157558  10.564   5.854   2.144
18573SOL    HW257559  10.458   5.800   2.051
18574SOL     OW57560   6.459   9.489   6.483
18574SOL    HW157561   6.462   9.393   6.476
18574SOL    HW257562   6.486   9.506   6.574
18575SOL     OW57563   6.469   2.682  12.430
18575SOL    HW157564   6.477   2.592  12.399
18575SOL    HW257565   6.414   2.676  12.508
18576SOL     OW57566  12.748   2.521  12.708
18576SOL    HW157567  12.714   2.521  12.797
18576SOL    HW257568  12.839   2.549  12.717
18577SOL     OW57569  12.067   0.428  11.123
18577SOL    HW157570  12.006   0.375  11.175
18577SOL    HW257571  12.123   0.471  11.188
18578SOL     OW57572   1.072  10.697   7.107
18578SOL    HW157573   1.056  10.604   7.119
18578SOL    HW257574   1.000  10.727   7.052
18579SOL     OW57575  10.742   7.092  11.543
18579SOL    HW157576  10.740   6.998  11.527
18579SOL    HW257577  10.826   7.108  11.584
18580SOL     OW57578   5.047  11.831   0.354
18580SOL    HW157579   4.960  11.803   0.384
18580SOL    HW257580   5.104  11.814   0.429
18581SOL     OW57581  13.797  13.270   2.649
18581SOL    HW157582  13.780  13.328   2.724
18581SOL    HW257583  13.796  13.182   2.687
18582SOL     OW57584   0.397   7.487   9.226
18582SOL    HW157585   0.433   7.474   9.138
18582SOL    HW257586   0.457   7.548   9.268
18583SOL     OW57587  11.423   6.367   4.007
18583SOL    HW157588  11.333   6.399   4.017
18583SOL    HW257589  11.439   6.371   3.913
18584SOL     OW57590   1.096   6.203   2.113
18584SOL    HW157591   1.053   6.171   2.192
18584SOL    HW257592   1.097   6.128   2.053
18585SOL     OW57593   7.332   4.179   3.205
18585SOL    HW157594   7.293   4.229   3.133
18585SOL    HW257595   7.407   4.135   3.165
18586SOL     OW57596   9.799   8.196   2.068
18586SOL    HW157597   9.816   8.277   2.020
18586SOL    HW257598   9.886   8.159   2.086
18587SOL     OW57599  12.287  10.328   6.380
18587SOL    HW157600  12.297  10.357   6.289
18587SOL    HW257601  12.361  10.369   6.426
18588SOL     OW57602   2.988  10.406   2.988
18588SOL    HW157603   2.896  10.432   2.985
18588SOL    HW257604   3.015  10.403   2.897
18589SOL     OW57605   4.857   7.565   8.017
18589SOL    HW157606   4.783   7.626   8.014
18589SOL    HW257607   4.821   7.486   8.058
18590SOL     OW57608   3.581   2.425   2.069
18590SOL    HW157609   3.509   2.478   2.105
18590SOL    HW257610   3.616   2.378   2.145
18591SOL     OW57611   4.012   0.698   4.604
18591SOL    HW157612   4.105   0.716   4.591
18591SOL    HW257613   3.972   0.784   4.616
18592SOL     OW57614   0.696  12.239   8.635
18592SOL    HW157615   0.663  12.301   8.700
18592SOL    HW257616   0.763  12.288   8.587
18593SOL     OW57617   0.807  13.150   5.642
18593SOL    HW157618   0.793  13.241   5.618
18593SOL    HW257619   0.902  13.142   5.651
18594SOL     OW57620   0.568   6.857  10.337
18594SOL    HW157621   0.497   6.916  10.359
18594SOL    HW257622   0.603   6.890  10.255
18595SOL     OW57623   8.605   2.869   1.519
18595SOL    HW157624   8.583   2.961   1.511
18595SOL    HW257625   8.521   2.823   1.518
18596SOL     OW57626   6.318   9.501  11.052
18596SOL    HW157627   6.257   9.491  10.979
18596SOL    HW257628   6.267   9.479  11.130
18597SOL     OW57629   7.553  12.710   6.620
18597SOL    HW157630   7.532  12.668   6.536
18597SOL    HW257631   7.582  12.798   6.596
18598SOL     OW57632   6.481   1.679  14.353
18598SOL    HW157633   6.417   1.713  14.290
18598SOL    HW257634   6.455   1.718  14.436
18599SOL     OW57635   5.577  14.783   0.859
18599SOL    HW157636   5.546  14.872   0.875
18599SOL    HW257637   5.613  14.785   0.770
18600SOL     OW57638   4.129  10.261   7.566
18600SOL    HW157639   4.160  10.173   7.545
18600SOL    HW257640   4.186  10.290   7.637
18601SOL     OW57641   1.482   8.494   9.289
18601SOL    HW157642   1.414   8.523   9.350
18601SOL    HW257643   1.438   8.491   9.204
18602SOL     OW57644  12.749   1.442   8.064
18602SOL    HW157645  12.728   1.530   8.031
18602SOL    HW257646  12.670   1.391   8.048
18603SOL     OW57647   9.266   4.954   3.259
18603SOL    HW157648   9.252   4.877   3.203
18603SOL    HW257649   9.293   4.917   3.343
18604SOL     OW57650  10.900   6.554   1.918
18604SOL    HW157651  10.902   6.620   1.849
18604SOL    HW257652  10.916   6.603   1.998
18605SOL     OW57653  10.575   7.262   8.246
18605SOL    HW157654  10.570   7.358   8.246
18605SOL    HW257655  10.663   7.243   8.214
18606SOL     OW57656   5.118   0.458   2.612
18606SOL    HW157657   5.214   0.448   2.615
18606SOL    HW257658   5.104   0.538   2.561
18607SOL     OW57659   0.698   4.698  11.650
18607SOL    HW157660   0.739   4.780  11.622
18607SOL    HW257661   0.647   4.670  11.575
18608SOL     OW57662   2.834   7.050  12.496
18608SOL    HW157663   2.813   7.093  12.413
18608SOL    HW257664   2.904   6.988  12.474
18609SOL     OW57665  11.665  12.424  10.354
18609SOL    HW157666  11.740  12.448  10.299
18609SOL    HW257667  11.702  12.408  10.440
18610SOL     OW57668  14.401   7.365   2.917
18610SOL    HW157669  14.382   7.334   2.829
18610SOL    HW257670  14.346   7.443   2.927
18611SOL     OW57671   9.690  10.271  13.288
18611SOL    HW157672   9.782  10.246  13.300
18611SOL    HW257673   9.673  10.334  13.358
18612SOL     OW57674  14.472   3.882   7.586
18612SOL    HW157675  14.466   3.904   7.679
18612SOL    HW257676  14.498   3.790   7.585
18613SOL     OW57677  12.279  10.269   9.718
18613SOL    HW157678  12.343  10.237   9.782
18613SOL    HW257679  12.276  10.202   9.650
18614SOL     OW57680   9.065  13.669   9.339
18614SOL    HW157681   9.045  13.705   9.425
18614SOL    HW257682   8.979  13.660   9.297
18615SOL     OW57683   1.926   9.822   7.410
18615SOL    HW157684   1.891   9.887   7.350
18615SOL    HW257685   1.990   9.773   7.358
18616SOL     OW57686  10.243  13.290   7.738
18616SOL    HW157687  10.162  13.245   7.714
18616SOL    HW257688  10.220  13.383   7.740
18617SOL     OW57689   7.092   4.202   4.550
18617SOL    HW157690   7.008   4.249   4.552
18617SOL    HW257691   7.089   4.145   4.626
18618SOL     OW57692   5.587   1.340   9.447
18618SOL    HW157693   5.575   1.290   9.366
18618SOL    HW257694   5.540   1.289   9.513
18619SOL     OW57695   5.845  11.833   8.619
18619SOL    HW157696   5.778  11.877   8.567
18619SOL    HW257697   5.822  11.740   8.613
18620SOL     OW57698  14.161  10.203   4.950
18620SOL    HW157699  14.081  10.224   4.903
18620SOL    HW257700  14.208  10.286   4.955
18621SOL     OW57701   4.546   8.437   3.624
18621SOL    HW157702   4.568   8.530   3.635
18621SOL    HW257703   4.452   8.436   3.610
18622SOL     OW57704  10.021   7.176   5.873
18622SOL    HW157705  10.010   7.203   5.782
18622SOL    HW257706   9.946   7.215   5.919
18623SOL     OW57707  13.929  14.159   8.314
18623SOL    HW157708  13.986  14.190   8.384
18623SOL    HW257709  13.874  14.234   8.292
18624SOL     OW57710   9.787   9.992   3.651
18624SOL    HW157711   9.753  10.022   3.736
18624SOL    HW257712   9.714  10.003   3.591
18625SOL     OW57713   5.118  13.647   5.319
18625SOL    HW157714   5.069  13.680   5.394
18625SOL    HW257715   5.101  13.710   5.249
18626SOL     OW57716   9.488  12.831   3.301
18626SOL    HW157717   9.426  12.759   3.302
18626SOL    HW257718   9.566  12.795   3.258
18627SOL     OW57719  11.480   1.240   3.271
18627SOL    HW157720  11.428   1.159   3.278
18627SOL    HW257721  11.433   1.303   3.326
18628SOL     OW57722   5.345   8.197   9.841
18628SOL    HW157723   5.296   8.159   9.768
18628SOL    HW257724   5.298   8.167   9.919
18629SOL     OW57725   8.339  11.400  13.338
18629SOL    HW157726   8.423  11.382  13.296
18629SOL    HW257727   8.316  11.317  13.380
18630SOL     OW57728   8.458   6.459   2.073
18630SOL    HW157729   8.433   6.376   2.114
18630SOL    HW257730   8.440   6.446   1.980
18631SOL     OW57731  11.652   2.956   1.472
18631SOL    HW157732  11.619   2.994   1.554
18631SOL    HW257733  11.748   2.962   1.480
18632SOL     OW57734   1.150  10.723  10.504
18632SOL    HW157735   1.122  10.638  10.539
18632SOL    HW257736   1.245  10.712  10.491
18633SOL     OW57737   4.548  11.337  12.814
18633SOL    HW157738   4.544  11.272  12.744
18633SOL    HW257739   4.551  11.286  12.895
18634SOL     OW57740   6.961  14.206  13.717
18634SOL    HW157741   6.900  14.211  13.791
18634SOL    HW257742   7.030  14.148  13.746
18635SOL     OW57743  11.189   8.290   3.398
18635SOL    HW157744  11.206   8.298   3.492
18635SOL    HW257745  11.232   8.209   3.372
18636SOL     OW57746   8.143  10.981   0.396
18636SOL    HW157747   8.140  10.894   0.436
18636SOL    HW257748   8.110  11.040   0.463
18637SOL     OW57749   7.676   8.452   7.483
18637SOL    HW157750   7.673   8.408   7.568
18637SOL    HW257751   7.585   8.457   7.454
18638SOL     OW57752  14.846  11.878   2.497
18638SOL    HW157753   0.008  11.914   2.421
18638SOL    HW257754  14.755  11.907   2.489
18639SOL     OW57755   5.835  11.109   3.738
18639SOL    HW157756   5.742  11.126   3.725
18639SOL    HW257757   5.871  11.191   3.771
18640SOL     OW57758  12.919   4.146   8.420
18640SOL    HW157759  13.008   4.125   8.389
18640SOL    HW257760  12.931   4.218   8.481
18641SOL     OW57761   9.726   0.191   6.000
18641SOL    HW157762   9.802   0.211   5.945
18641SOL    HW257763   9.725   0.095   6.005
18642SOL     OW57764   8.400   7.232   8.329
18642SOL    HW157765   8.338   7.167   8.363
18642SOL    HW257766   8.486   7.189   8.338
18643SOL     OW57767   3.718   4.075  14.150
18643SOL    HW157768   3.801   4.116  14.124
18643SOL    HW257769   3.744   3.997  14.199
18644SOL     OW57770   2.018   7.552  14.023
18644SOL    HW157771   2.025   7.541  13.929
18644SOL    HW257772   2.100   7.515  14.058
18645SOL     OW57773   2.993   9.904   1.046
18645SOL    HW157774   3.060   9.915   0.978
18645SOL    HW257775   2.934   9.979   1.034
18646SOL     OW57776   4.193   3.362  10.804
18646SOL    HW157777   4.281   3.334  10.778
18646SOL    HW257778   4.140   3.351  10.725
18647SOL     OW57779  10.614   6.487   7.637
18647SOL    HW157780  10.665   6.483   7.718
18647SOL    HW257781  10.560   6.566   7.646
18648SOL     OW57782   2.660   2.864   6.841
18648SOL    HW157783   2.623   2.779   6.819
18648SOL    HW257784   2.699   2.852   6.927
18649SOL     OW57785  13.211   6.418   9.738
18649SOL    HW157786  13.299   6.443   9.709
18649SOL    HW257787  13.161   6.500   9.737
18650SOL     OW57788   7.985   2.207   8.566
18650SOL    HW157789   8.039   2.129   8.579
18650SOL    HW257790   8.016   2.244   8.483
18651SOL     OW57791   4.563   9.216   6.545
18651SOL    HW157792   4.572   9.296   6.595
18651SOL    HW257793   4.565   9.146   6.610
18652SOL     OW57794   3.178   1.418  12.856
18652SOL    HW157795   3.239   1.443  12.925
18652SOL    HW257796   3.101   1.387  12.903
18653SOL     OW57797   0.258   7.119  12.528
18653SOL    HW157798   0.292   7.107  12.617
18653SOL    HW257799   0.167   7.146  12.541
18654SOL     OW57800   8.829   2.149  13.721
18654SOL    HW157801   8.796   2.233  13.755
18654SOL    HW257802   8.754   2.109  13.679
18655SOL     OW57803  10.669  10.017   3.555
18655SOL    HW157804  10.653   9.986   3.644
18655SOL    HW257805  10.710  10.103   3.566
18656SOL     OW57806   7.874   8.881   0.684
18656SOL    HW157807   7.936   8.849   0.750
18656SOL    HW257808   7.921   8.872   0.601
18657SOL     OW57809   4.100   6.411   7.023
18657SOL    HW157810   4.149   6.451   6.952
18657SOL    HW257811   4.163   6.355   7.068
18658SOL     OW57812   6.138  10.360   1.275
18658SOL    HW157813   6.146  10.362   1.180
18658SOL    HW257814   6.075  10.289   1.292
18659SOL     OW57815  13.660   5.418   1.732
18659SOL    HW157816  13.624   5.362   1.801
18659SOL    HW257817  13.607   5.398   1.655
18660SOL     OW57818  13.650   4.582  11.443
18660SOL    HW157819  13.615   4.510  11.495
18660SOL    HW257820  13.713   4.540  11.384
18661SOL     OW57821   5.684  14.839   3.984
18661SOL    HW157822   5.660   0.033   3.930
18661SOL    HW257823   5.631  14.848   4.063
18662SOL     OW57824   9.529   4.565   2.398
18662SOL    HW157825   9.596   4.540   2.462
18662SOL    HW257826   9.456   4.597   2.451
18663SOL     OW57827  10.002   3.209   5.307
18663SOL    HW157828  10.005   3.277   5.374
18663SOL    HW257829  10.084   3.161   5.318
18664SOL     OW57830   9.334  11.167  11.691
18664SOL    HW157831   9.309  11.122  11.610
18664SOL    HW257832   9.387  11.103  11.739
18665SOL     OW57833   5.481   2.296   6.775
18665SOL    HW157834   5.455   2.329   6.861
18665SOL    HW257835   5.458   2.203   6.777
18666SOL     OW57836   8.172   6.710   2.135
18666SOL    HW157837   8.230   6.688   2.208
18666SOL    HW257838   8.097   6.751   2.176
18667SOL     OW57839  12.195   5.448   2.486
18667SOL    HW157840  12.134   5.437   2.413
18667SOL    HW257841  12.205   5.360   2.522
18668SOL     OW57842   1.252   3.214  14.118
18668SOL    HW157843   1.254   3.237  14.210
18668SOL    HW257844   1.243   3.118  14.117
18669SOL     OW57845   0.095   1.308   5.029
18669SOL    HW157846   0.135   1.328   5.114
18669SOL    HW257847   0.168   1.283   4.973
18670SOL     OW57848   7.830   0.415   0.877
18670SOL    HW157849   7.761   0.350   0.892
18670SOL    HW257850   7.833   0.425   0.782
18671SOL     OW57851   4.197   1.802   1.277
18671SOL    HW157852   4.270   1.863   1.268
18671SOL    HW257853   4.161   1.795   1.189
18672SOL     OW57854   6.981  12.720   4.954
18672SOL    HW157855   6.940  12.694   5.036
18672SOL    HW257856   7.021  12.804   4.972
18673SOL     OW57857   8.328   4.167  11.502
18673SOL    HW157858   8.374   4.127  11.428
18673SOL    HW257859   8.311   4.094  11.561
18674SOL     OW57860   4.023   6.005  14.079
18674SOL    HW157861   4.095   5.950  14.047
18674SOL    HW257862   3.970   5.947  14.133
18675SOL     OW57863  12.785  10.705  14.038
18675SOL    HW157864  12.780  10.771  13.970
18675SOL    HW257865  12.862  10.652  14.015
18676SOL     OW57866   3.468  10.485   0.590
18676SOL    HW157867   3.525  10.414   0.618
18676SOL    HW257868   3.496  10.561   0.642
18677SOL     OW57869   0.033  11.355   7.256
18677SOL    HW157870  14.864  11.342   7.175
18677SOL    HW257871   0.060  11.267   7.281
18678SOL     OW57872   5.167   5.279   9.836
18678SOL    HW157873   5.087   5.330   9.821
18678SOL    HW257874   5.169   5.265   9.930
18679SOL     OW57875   5.018  13.141   7.385
18679SOL    HW157876   5.017  13.140   7.481
18679SOL    HW257877   5.110  13.127   7.362
18680SOL     OW57878   1.574   5.548   8.171
18680SOL    HW157879   1.502   5.604   8.141
18680SOL    HW257880   1.645   5.609   8.191
18681SOL     OW57881   3.258  11.072   1.044
18681SOL    HW157882   3.238  11.000   0.984
18681SOL    HW257883   3.193  11.064   1.114
18682SOL     OW57884   9.612  13.116   1.578
18682SOL    HW157885   9.544  13.052   1.557
18682SOL    HW257886   9.604  13.129   1.673
18683SOL     OW57887   9.648   5.931   7.718
18683SOL    HW157888   9.618   6.021   7.731
18683SOL    HW257889   9.587   5.896   7.652
18684SOL     OW57890   9.858   9.867  11.215
18684SOL    HW157891   9.898   9.811  11.149
18684SOL    HW257892   9.766   9.841  11.217
18685SOL     OW57893   3.843   5.834  12.419
18685SOL    HW157894   3.775   5.890  12.456
18685SOL    HW257895   3.903   5.818  12.491
18686SOL     OW57896   8.015   1.587  14.859
18686SOL    HW157897   7.989   1.595  14.767
18686SOL    HW257898   7.935   1.609   0.026
18687SOL     OW57899  13.646   4.918   7.354
18687SOL    HW157900  13.556   4.901   7.382
18687SOL    HW257901  13.699   4.896   7.431
18688SOL     OW57902   0.980   2.044  14.413
18688SOL    HW157903   0.921   2.093  14.470
18688SOL    HW257904   1.017   1.976  14.470
18689SOL     OW57905   1.471   6.730   4.972
18689SOL    HW157906   1.543   6.689   4.925
18689SOL    HW257907   1.396   6.724   4.913
18690SOL     OW57908   9.949  13.179   0.846
18690SOL    HW157909   9.988  13.240   0.785
18690SOL    HW257910   9.951  13.224   0.931
18691SOL     OW57911   6.113   7.348   1.130
18691SOL    HW157912   6.055   7.327   1.058
18691SOL    HW257913   6.180   7.404   1.092
18692SOL     OW57914   1.683   6.246   8.678
18692SOL    HW157915   1.670   6.237   8.583
18692SOL    HW257916   1.623   6.317   8.704
18693SOL     OW57917   5.932   3.035  13.694
18693SOL    HW157918   5.838   3.016  13.695
18693SOL    HW257919   5.941   3.114  13.747
18694SOL     OW57920   3.538   8.080   7.953
18694SOL    HW157921   3.621   8.039   7.978
18694SOL    HW257922   3.483   8.007   7.924
18695SOL     OW57923  11.936   1.294   5.077
18695SOL    HW157924  11.932   1.199   5.078
18695SOL    HW257925  12.017   1.314   5.029
18696SOL     OW57926  14.423  12.145  12.939
18696SOL    HW157927  14.495  12.167  12.999
18696SOL    HW257928  14.345  12.148  12.994
18697SOL     OW57929   8.570  13.035   3.146
18697SOL    HW157930   8.479  13.027   3.175
18697SOL    HW257931   8.620  12.985   3.210
18698SOL     OW57932   1.139  10.436   5.491
18698SOL    HW157933   1.044  10.428   5.507
18698SOL    HW257934   1.172  10.483   5.567
18699SOL     OW57935   2.717   6.362   7.375
18699SOL    HW157936   2.727   6.348   7.469
18699SOL    HW257937   2.770   6.294   7.334
18700SOL     OW57938   6.758   4.477  12.281
18700SOL    HW157939   6.792   4.567  12.283
18700SOL    HW257940   6.710   4.472  12.199
18701SOL     OW57941  11.074   7.558   7.148
18701SOL    HW157942  11.114   7.596   7.070
18701SOL    HW257943  11.136   7.577   7.219
18702SOL     OW57944   5.053   0.170   3.885
18702SOL    HW157945   5.106   0.243   3.854
18702SOL    HW257946   4.993   0.150   3.813
18703SOL     OW57947   9.031  12.224  11.256
18703SOL    HW157948   9.006  12.240  11.165
18703SOL    HW257949   8.963  12.268  11.307
18704SOL     OW57950   6.192   1.325  13.700
18704SOL    HW157951   6.198   1.251  13.760
18704SOL    HW257952   6.100   1.351  13.703
18705SOL     OW57953  13.169   1.967   7.761
18705SOL    HW157954  13.234   1.943   7.827
18705SOL    HW257955  13.085   1.945   7.801
18706SOL     OW57956   1.250  14.383   2.599
18706SOL    HW157957   1.223  14.475   2.594
18706SOL    HW257958   1.296  14.376   2.682
18707SOL     OW57959   8.145  11.340   8.553
18707SOL    HW157960   8.168  11.424   8.513
18707SOL    HW257961   8.071  11.360   8.610
18708SOL     OW57962   3.582   1.022   3.365
18708SOL    HW157963   3.489   1.024   3.387
18708SOL    HW257964   3.623   0.977   3.439
18709SOL     OW57965   3.881   1.942  11.824
18709SOL    HW157966   3.863   1.858  11.781
18709SOL    HW257967   3.797   1.988  11.823
18710SOL     OW57968   0.673  13.834   9.811
18710SOL    HW157969   0.706  13.923   9.800
18710SOL    HW257970   0.612  13.840   9.884
18711SOL     OW57971  12.552  10.042   6.328
18711SOL    HW157972  12.478  10.012   6.274
18711SOL    HW257973  12.519  10.038   6.418
18712SOL     OW57974   2.028   6.020  10.236
18712SOL    HW157975   2.078   6.094  10.202
18712SOL    HW257976   2.094   5.955  10.259
18713SOL     OW57977   8.297   8.250  12.077
18713SOL    HW157978   8.283   8.161  12.043
18713SOL    HW257979   8.223   8.265  12.136
18714SOL     OW57980  11.648   8.193   6.985
18714SOL    HW157981  11.741   8.199   7.007
18714SOL    HW257982  11.621   8.283   6.969
18715SOL     OW57983  14.428   0.458  11.652
18715SOL    HW157984  14.444   0.491  11.563
18715SOL    HW257985  14.456   0.528  11.710
18716SOL     OW57986  14.337   7.851   6.216
18716SOL    HW157987  14.273   7.801   6.267
18716SOL    HW257988  14.287   7.921   6.175
18717SOL     OW57989   5.827  12.613  12.007
18717SOL    HW157990   5.836  12.519  12.025
18717SOL    HW257991   5.736  12.622  11.978
18718SOL     OW57992   3.113   4.155   8.231
18718SOL    HW157993   3.197   4.167   8.187
18718SOL    HW257994   3.048   4.155   8.161
18719SOL     OW57995  11.647   5.589   3.947
18719SOL    HW157996  11.697   5.670   3.940
18719SOL    HW257997  11.557   5.615   3.927
18720SOL     OW57998  11.117  11.022   4.332
18720SOL    HW157999  11.121  11.116   4.345
18720SOL    HW258000  11.114  11.011   4.237
18721SOL     OW58001   6.844   6.887   1.540
18721SOL    HW158002   6.762   6.866   1.495
18721SOL    HW258003   6.880   6.802   1.565
18722SOL     OW58004  14.373  12.978   9.414
18722SOL    HW158005  14.411  13.035   9.347
18722SOL    HW258006  14.337  12.904   9.364
18723SOL     OW58007  13.435  14.461   5.453
18723SOL    HW158008  13.452  14.416   5.536
18723SOL    HW258009  13.359  14.416   5.416
18724SOL     OW58010   5.808   0.978   7.345
18724SOL    HW158011   5.774   0.992   7.257
18724SOL    HW258012   5.742   1.016   7.402
18725SOL     OW58013   4.294   9.685  14.815
18725SOL    HW158014   4.263   9.650  14.731
18725SOL    HW258015   4.374   9.733  14.793
18726SOL     OW58016   5.435  10.085   3.220
18726SOL    HW158017   5.488  10.029   3.163
18726SOL    HW258018   5.357  10.105   3.168
18727SOL     OW58019  12.397   0.143  11.638
18727SOL    HW158020  12.491   0.134  11.628
18727SOL    HW258021  12.360   0.070  11.588
18728SOL     OW58022  13.851   1.530   9.939
18728SOL    HW158023  13.896   1.584  10.004
18728SOL    HW258024  13.839   1.446   9.983
18729SOL     OW58025   2.189  11.104   1.930
18729SOL    HW158026   2.217  11.102   1.839
18729SOL    HW258027   2.268  11.128   1.979
18730SOL     OW58028   2.047  10.127   0.988
18730SOL    HW158029   2.062  10.180   1.066
18730SOL    HW258030   1.973  10.170   0.944
18731SOL     OW58031  12.019  13.753  12.910
18731SOL    HW158032  12.054  13.665  12.898
18731SOL    HW258033  12.059  13.784  12.992
18732SOL     OW58034   9.518   6.762   4.566
18732SOL    HW158035   9.552   6.829   4.506
18732SOL    HW258036   9.425   6.758   4.548
18733SOL     OW58037   6.827   5.951   3.008
18733SOL    HW158038   6.869   5.887   2.950
18733SOL    HW258039   6.798   6.021   2.950
18734SOL     OW58040  12.228   3.197   6.670
18734SOL    HW158041  12.229   3.134   6.597
18734SOL    HW258042  12.319   3.202   6.699
18735SOL     OW58043   8.797  14.011  10.884
18735SOL    HW158044   8.884  14.044  10.865
18735SOL    HW258045   8.812  13.932  10.936
18736SOL     OW58046  12.366  13.055  12.320
18736SOL    HW158047  12.276  13.057  12.352
18736SOL    HW258048  12.373  12.973  12.272
18737SOL     OW58049  13.916  11.644   6.406
18737SOL    HW158050  13.842  11.586   6.419
18737SOL    HW258051  13.912  11.705   6.480
18738SOL     OW58052   2.315   5.983  11.852
18738SOL    HW158053   2.366   6.015  11.777
18738SOL    HW258054   2.379   5.974  11.922
18739SOL     OW58055   1.656  13.044   7.394
18739SOL    HW158056   1.663  13.023   7.487
18739SOL    HW258057   1.583  13.106   7.389
18740SOL     OW58058   3.469  13.291   7.214
18740SOL    HW158059   3.455  13.308   7.307
18740SOL    HW258060   3.564  13.300   7.202
18741SOL     OW58061   2.027   2.809   0.730
18741SOL    HW158062   1.960   2.778   0.791
18741SOL    HW258063   1.983   2.876   0.677
18742SOL     OW58064  14.478   1.274  13.410
18742SOL    HW158065  14.427   1.312  13.482
18742SOL    HW258066  14.425   1.291  13.332
18743SOL     OW58067   3.220  11.220   6.173
18743SOL    HW158068   3.128  11.244   6.180
18743SOL    HW258069   3.224  11.160   6.099
18744SOL     OW58070   7.537   8.742   5.537
18744SOL    HW158071   7.448   8.764   5.566
18744SOL    HW258072   7.547   8.650   5.561
18745SOL     OW58073   7.190   9.426  10.773
18745SOL    HW158074   7.247   9.458  10.842
18745SOL    HW258075   7.108   9.475  10.784
18746SOL     OW58076   3.612  11.074   7.064
18746SOL    HW158077   3.668  11.142   7.101
18746SOL    HW258078   3.591  11.017   7.139
18747SOL     OW58079   3.725   6.412   1.933
18747SOL    HW158080   3.639   6.454   1.930
18747SOL    HW258081   3.787   6.481   1.909
18748SOL     OW58082   0.214   5.173  10.527
18748SOL    HW158083   0.146   5.109  10.548
18748SOL    HW258084   0.296   5.130  10.550
18749SOL     OW58085   9.788  11.347   9.152
18749SOL    HW158086   9.700  11.311   9.144
18749SOL    HW258087   9.791  11.385   9.240
18750SOL     OW58088  11.927   3.385   5.013
18750SOL    HW158089  11.907   3.437   4.935
18750SOL    HW258090  11.944   3.297   4.980
18751SOL     OW58091   2.640   0.891   4.653
18751SOL    HW158092   2.570   0.835   4.621
18751SOL    HW258093   2.713   0.876   4.592
18752SOL     OW58094   4.443   5.821   3.937
18752SOL    HW158095   4.528   5.864   3.927
18752SOL    HW258096   4.383   5.875   3.886
18753SOL     OW58097   1.953  12.841  14.255
18753SOL    HW158098   2.032  12.895  14.253
18753SOL    HW258099   1.982  12.755  14.225
18754SOL     OW58100   1.544   2.262  11.976
18754SOL    HW158101   1.462   2.227  11.941
18754SOL    HW258102   1.562   2.209  12.053
18755SOL     OW58103   5.839   3.786   2.591
18755SOL    HW158104   5.808   3.736   2.666
18755SOL    HW258105   5.929   3.756   2.578
18756SOL     OW58106   8.194  10.585  11.719
18756SOL    HW158107   8.186  10.665  11.770
18756SOL    HW258108   8.284  10.584  11.688
18757SOL     OW58109   4.341   9.427   3.345
18757SOL    HW158110   4.314   9.375   3.420
18757SOL    HW258111   4.260   9.463   3.310
18758SOL     OW58112  13.354   2.895  11.548
18758SOL    HW158113  13.355   2.956  11.622
18758SOL    HW258114  13.367   2.809  11.588
18759SOL     OW58115   0.362  14.866   2.899
18759SOL    HW158116   0.308   0.051   2.857
18759SOL    HW258117   0.332  14.867   2.990
18760SOL     OW58118   1.734   0.640   0.451
18760SOL    HW158119   1.782   0.560   0.428
18760SOL    HW258120   1.650   0.609   0.482
18761SOL     OW58121   8.842  12.631  14.840
18761SOL    HW158122   8.934  12.606  14.853
18761SOL    HW258123   8.820  12.683   0.035
18762SOL     OW58124   9.712  13.135   3.419
18762SOL    HW158125   9.731  13.228   3.403
18762SOL    HW258126   9.751  13.089   3.345
18763SOL     OW58127  14.312   5.711   5.555
18763SOL    HW158128  14.230   5.753   5.531
18763SOL    HW258129  14.311   5.628   5.508
18764SOL     OW58130   8.007  13.636  10.114
18764SOL    HW158131   8.074  13.578  10.150
18764SOL    HW258132   7.983  13.596  10.030
18765SOL     OW58133   0.484  14.641   8.770
18765SOL    HW158134   0.467  14.729   8.735
18765SOL    HW258135   0.455  14.646   8.861
18766SOL     OW58136   3.225  11.987  10.854
18766SOL    HW158137   3.264  12.069  10.887
18766SOL    HW258138   3.150  12.016  10.802
18767SOL     OW58139   6.677   4.436  14.470
18767SOL    HW158140   6.744   4.500  14.491
18767SOL    HW258141   6.700   4.405  14.383
18768SOL     OW58142  14.087   7.390  10.877
18768SOL    HW158143  14.028   7.465  10.889
18768SOL    HW258144  14.059   7.351  10.794
18769SOL     OW58145   4.555   0.315   2.464
18769SOL    HW158146   4.636   0.307   2.515
18769SOL    HW258147   4.495   0.362   2.522
18770SOL     OW58148   1.520  11.071  12.979
18770SOL    HW158149   1.574  11.143  13.011
18770SOL    HW258150   1.432  11.109  12.972
18771SOL     OW58151   8.417   3.944   5.306
18771SOL    HW158152   8.509   3.964   5.324
18771SOL    HW258153   8.398   3.993   5.225
18772SOL     OW58154  11.016   4.443   2.436
18772SOL    HW158155  11.089   4.382   2.422
18772SOL    HW258156  10.950   4.391   2.482
18773SOL     OW58157   1.777  13.890  14.008
18773SOL    HW158158   1.789  13.931  14.094
18773SOL    HW258159   1.682  13.886  13.997
18774SOL     OW58160   3.968   8.360  14.155
18774SOL    HW158161   3.958   8.280  14.208
18774SOL    HW258162   3.972   8.431  14.219
18775SOL     OW58163   6.576  10.490  14.003
18775SOL    HW158164   6.506  10.440  13.961
18775SOL    HW258165   6.657  10.453  13.967
18776SOL     OW58166   9.772   7.649   8.778
18776SOL    HW158167   9.697   7.700   8.810
18776SOL    HW258168   9.797   7.691   8.696
18777SOL     OW58169   7.264   5.820   1.901
18777SOL    HW158170   7.222   5.740   1.869
18777SOL    HW258171   7.356   5.796   1.910
18778SOL     OW58172   0.510   9.478  12.951
18778SOL    HW158173   0.432   9.472  12.895
18778SOL    HW258174   0.582   9.451  12.894
18779SOL     OW58175   9.504   2.986   5.855
18779SOL    HW158176   9.473   2.994   5.945
18779SOL    HW258177   9.599   2.990   5.861
18780SOL     OW58178  14.308   4.791   6.580
18780SOL    HW158179  14.379   4.813   6.640
18780SOL    HW258180  14.281   4.703   6.606
18781SOL     OW58181  12.970   9.783  12.337
18781SOL    HW158182  12.936   9.857  12.287
18781SOL    HW258183  12.898   9.720  12.339
18782SOL     OW58184   4.917   3.782   3.747
18782SOL    HW158185   4.914   3.698   3.700
18782SOL    HW258186   4.983   3.833   3.700
18783SOL     OW58187   2.515   8.884  11.639
18783SOL    HW158188   2.456   8.914  11.570
18783SOL    HW258189   2.600   8.877  11.596
18784SOL     OW58190  12.708  13.123   6.699
18784SOL    HW158191  12.661  13.193   6.744
18784SOL    HW258192  12.747  13.071   6.769
18785SOL     OW58193  13.687   6.445  12.128
18785SOL    HW158194  13.705   6.358  12.163
18785SOL    HW258195  13.771   6.490  12.132
18786SOL     OW58196  10.709  10.711   3.603
18786SOL    HW158197  10.635  10.682   3.550
18786SOL    HW258198  10.707  10.807   3.596
18787SOL     OW58199  13.517   2.012   4.498
18787SOL    HW158200  13.577   1.990   4.569
18787SOL    HW258201  13.502   1.929   4.453
18788SOL     OW58202   4.377  10.650   6.883
18788SOL    HW158203   4.446  10.698   6.928
18788SOL    HW258204   4.409  10.560   6.880
18789SOL     OW58205  13.095  14.581   0.476
18789SOL    HW158206  13.084  14.598   0.570
18789SOL    HW258207  13.033  14.640   0.433
18790SOL     OW58208  13.499   4.499   3.819
18790SOL    HW158209  13.507   4.502   3.724
18790SOL    HW258210  13.585   4.469   3.850
18791SOL     OW58211   6.432   3.789   1.116
18791SOL    HW158212   6.397   3.865   1.163
18791SOL    HW258213   6.457   3.824   1.030
18792SOL     OW58214   2.409   8.747   4.473
18792SOL    HW158215   2.482   8.788   4.427
18792SOL    HW258216   2.331   8.790   4.438
18793SOL     OW58217   9.436   3.987   6.562
18793SOL    HW158218   9.501   3.927   6.600
18793SOL    HW258219   9.488   4.054   6.517
18794SOL     OW58220   6.122   6.569   8.313
18794SOL    HW158221   6.090   6.658   8.326
18794SOL    HW258222   6.199   6.579   8.257
18795SOL     OW58223   1.305   5.435   8.363
18795SOL    HW158224   1.369   5.473   8.424
18795SOL    HW258225   1.237   5.502   8.354
18796SOL     OW58226  11.986   2.903   4.229
18796SOL    HW158227  12.019   2.815   4.247
18796SOL    HW258228  12.062   2.950   4.195
18797SOL     OW58229   7.654  11.772   6.615
18797SOL    HW158230   7.731  11.773   6.672
18797SOL    HW258231   7.612  11.688   6.633
18798SOL     OW58232  10.490   4.417   7.819
18798SOL    HW158233  10.571   4.377   7.851
18798SOL    HW258234  10.492   4.400   7.724
18799SOL     OW58235  14.526   4.115   5.482
18799SOL    HW158236  14.580   4.126   5.403
18799SOL    HW258237  14.585   4.137   5.554
18800SOL     OW58238   1.061   8.014   7.951
18800SOL    HW158239   0.979   8.061   7.935
18800SOL    HW258240   1.034   7.922   7.958
18801SOL     OW58241  10.815   7.343   9.389
18801SOL    HW158242  10.856   7.257   9.390
18801SOL    HW258243  10.722   7.326   9.401
18802SOL     OW58244  14.785   4.764   5.460
18802SOL    HW158245  14.745   4.678   5.467
18802SOL    HW258246  14.713   4.826   5.477
18803SOL     OW58247   2.333   0.767  13.407
18803SOL    HW158248   2.255   0.822  13.408
18803SOL    HW258249   2.335   0.728  13.320
18804SOL     OW58250  13.311   4.641   6.149
18804SOL    HW158251  13.387   4.627   6.206
18804SOL    HW258252  13.277   4.553   6.132
18805SOL     OW58253   3.710   4.395  14.654
18805SOL    HW158254   3.712   4.340  14.576
18805SOL    HW258255   3.675   4.478  14.624
18806SOL     OW58256   5.906  14.674   4.806
18806SOL    HW158257   5.813  14.681   4.784
18806SOL    HW258258   5.917  14.732   4.882
18807SOL     OW58259   7.302  12.783   5.884
18807SOL    HW158260   7.331  12.858   5.935
18807SOL    HW258261   7.372  12.718   5.893
18808SOL     OW58262   0.612   0.560   1.674
18808SOL    HW158263   0.640   0.648   1.700
18808SOL    HW258264   0.522   0.552   1.707
18809SOL     OW58265  12.605   8.058   1.353
18809SOL    HW158266  12.591   7.963   1.357
18809SOL    HW258267  12.633   8.081   1.442
18810SOL     OW58268   6.861  14.423  12.734
18810SOL    HW158269   6.921  14.457  12.668
18810SOL    HW258270   6.912  14.359  12.783
18811SOL     OW58271   9.233   1.442   9.040
18811SOL    HW158272   9.223   1.524   9.088
18811SOL    HW258273   9.143   1.416   9.018
18812SOL     OW58274   6.903   5.729   2.852
18812SOL    HW158275   6.817   5.707   2.816
18812SOL    HW258276   6.945   5.645   2.869
18813SOL     OW58277   5.618  11.493   4.841
18813SOL    HW158278   5.681  11.523   4.907
18813SOL    HW258279   5.646  11.404   4.820
18814SOL     OW58280   2.399   4.858  13.447
18814SOL    HW158281   2.391   4.954  13.441
18814SOL    HW258282   2.414   4.842  13.540
18815SOL     OW58283   3.625   1.410   1.839
18815SOL    HW158284   3.648   1.490   1.792
18815SOL    HW258285   3.694   1.348   1.815
18816SOL     OW58286   2.062   6.690   7.351
18816SOL    HW158287   2.075   6.784   7.338
18816SOL    HW258288   2.068   6.678   7.445
18817SOL     OW58289   7.876   0.178  12.776
18817SOL    HW158290   7.847   0.222  12.696
18817SOL    HW258291   7.798   0.179  12.832
18818SOL     OW58292   5.453   4.544   2.597
18818SOL    HW158293   5.526   4.559   2.657
18818SOL    HW258294   5.494   4.534   2.511
18819SOL     OW58295   5.271  14.467  12.991
18819SOL    HW158296   5.261  14.462  12.896
18819SOL    HW258297   5.186  14.496  13.023
18820SOL     OW58298  11.404  14.034   4.030
18820SOL    HW158299  11.333  14.081   3.987
18820SOL    HW258300  11.392  13.943   4.005
18821SOL     OW58301   3.813   4.036   0.238
18821SOL    HW158302   3.788   4.067   0.151
18821SOL    HW258303   3.902   4.067   0.250
18822SOL     OW58304   8.315   5.544   6.182
18822SOL    HW158305   8.362   5.622   6.211
18822SOL    HW258306   8.235   5.542   6.235
18823SOL     OW58307   6.919   3.161   2.384
18823SOL    HW158308   6.936   3.147   2.477
18823SOL    HW258309   7.006   3.153   2.343
18824SOL     OW58310  12.266   5.750   2.539
18824SOL    HW158311  12.213   5.803   2.598
18824SOL    HW258312  12.227   5.663   2.544
18825SOL     OW58313   1.991   7.789   7.095
18825SOL    HW158314   1.970   7.767   7.186
18825SOL    HW258315   1.961   7.880   7.085
18826SOL     OW58316   8.872   2.641  14.141
18826SOL    HW158317   8.899   2.599  14.222
18826SOL    HW258318   8.899   2.732  14.151
18827SOL     OW58319  14.236   3.362   6.693
18827SOL    HW158320  14.246   3.286   6.751
18827SOL    HW258321  14.318   3.410   6.702
18828SOL     OW58322  10.468   3.538   5.848
18828SOL    HW158323  10.461   3.522   5.754
18828SOL    HW258324  10.484   3.452   5.887
18829SOL     OW58325  12.826   8.319   7.117
18829SOL    HW158326  12.762   8.249   7.105
18829SOL    HW258327  12.836   8.325   7.212
18830SOL     OW58328   4.788  12.032   2.215
18830SOL    HW158329   4.731  12.076   2.278
18830SOL    HW258330   4.875  12.039   2.254
18831SOL     OW58331  11.595   7.458   5.294
18831SOL    HW158332  11.548   7.530   5.252
18831SOL    HW258333  11.681   7.493   5.316
18832SOL     OW58334  14.356   1.762   6.782
18832SOL    HW158335  14.377   1.768   6.688
18832SOL    HW258336  14.429   1.714   6.820
18833SOL     OW58337   7.770   2.368   1.085
18833SOL    HW158338   7.786   2.366   0.991
18833SOL    HW258339   7.836   2.311   1.123
18834SOL     OW58340  11.505  10.430   9.259
18834SOL    HW158341  11.476  10.436   9.168
18834SOL    HW258342  11.582  10.373   9.256
18835SOL     OW58343   7.846   1.008   5.064
18835SOL    HW158344   7.792   1.076   5.025
18835SOL    HW258345   7.909   1.054   5.118
18836SOL     OW58346  10.147   2.579   7.099
18836SOL    HW158347  10.065   2.608   7.137
18836SOL    HW258348  10.213   2.601   7.165
18837SOL     OW58349   3.400  13.378   7.453
18837SOL    HW158350   3.495  13.389   7.455
18837SOL    HW258351   3.366  13.466   7.439
18838SOL     OW58352   0.460  14.154   5.825
18838SOL    HW158353   0.549  14.120   5.826
18838SOL    HW258354   0.462  14.228   5.886
18839SOL     OW58355   0.958   3.716   6.779
18839SOL    HW158356   0.955   3.651   6.708
18839SOL    HW258357   0.995   3.669   6.853
18840SOL     OW58358   7.450  11.623  11.536
18840SOL    HW158359   7.437  11.555  11.470
18840SOL    HW258360   7.441  11.705  11.487
18841SOL     OW58361   8.676  11.399   1.581
18841SOL    HW158362   8.726  11.421   1.503
18841SOL    HW258363   8.708  11.313   1.607
18842SOL     OW58364  14.441  14.783   2.381
18842SOL    HW158365  14.425  14.707   2.325
18842SOL    HW258366  14.385  14.852   2.345
18843SOL     OW58367   8.411   6.168   3.562
18843SOL    HW158368   8.348   6.197   3.496
18843SOL    HW258369   8.489   6.219   3.547
18844SOL     OW58370   3.572   2.552  13.714
18844SOL    HW158371   3.552   2.491  13.644
18844SOL    HW258372   3.529   2.514  13.791
18845SOL     OW58373  11.514  13.473   0.533
18845SOL    HW158374  11.423  13.480   0.564
18845SOL    HW258375  11.563  13.531   0.591
18846SOL     OW58376   2.677  14.756   7.516
18846SOL    HW158377   2.673  14.661   7.522
18846SOL    HW258378   2.675  14.774   7.422
18847SOL     OW58379   3.279  11.051   9.885
18847SOL    HW158380   3.251  11.032   9.974
18847SOL    HW258381   3.373  11.065   9.891
18848SOL     OW58382   6.309   9.014   2.760
18848SOL    HW158383   6.257   9.043   2.686
18848SOL    HW258384   6.363   8.943   2.726
18849SOL     OW58385  13.562  12.305  11.186
18849SOL    HW158386  13.646  12.311  11.232
18849SOL    HW258387  13.569  12.226  11.133
18850SOL     OW58388   2.851  13.109   1.822
18850SOL    HW158389   2.838  13.197   1.857
18850SOL    HW258390   2.852  13.053   1.900
18851SOL     OW58391   0.706   1.693   6.643
18851SOL    HW158392   0.615   1.716   6.628
18851SOL    HW258393   0.743   1.767   6.691
18852SOL     OW58394   1.636   5.758   3.966
18852SOL    HW158395   1.726   5.745   3.938
18852SOL    HW258396   1.637   5.736   4.059
18853SOL     OW58397   9.435  13.020   8.610
18853SOL    HW158398   9.420  12.929   8.637
18853SOL    HW258399   9.347  13.056   8.599
18854SOL     OW58400   8.821  12.954   0.951
18854SOL    HW158401   8.741  12.959   1.003
18854SOL    HW258402   8.847  12.862   0.957
18855SOL     OW58403  11.202   3.805   1.677
18855SOL    HW158404  11.286   3.832   1.639
18855SOL    HW258405  11.210   3.711   1.689
18856SOL     OW58406  10.390   9.979  12.440
18856SOL    HW158407  10.482   9.961  12.424
18856SOL    HW258408  10.343   9.907  12.398
18857SOL     OW58409   0.982  10.386  12.611
18857SOL    HW158410   0.973  10.291  12.600
18857SOL    HW258411   0.976  10.399  12.706
18858SOL     OW58412   5.080   7.992  10.333
18858SOL    HW158413   5.089   8.088  10.329
18858SOL    HW258414   5.010   7.972  10.271
18859SOL     OW58415  11.129   0.108  10.805
18859SOL    HW158416  11.050   0.142  10.763
18859SOL    HW258417  11.099   0.075  10.890
18860SOL     OW58418   3.386   1.925   8.581
18860SOL    HW158419   3.463   1.923   8.525
18860SOL    HW258420   3.324   1.981   8.535
18861SOL     OW58421  12.575  11.424   6.720
18861SOL    HW158422  12.619  11.342   6.739
18861SOL    HW258423  12.518  11.404   6.645
18862SOL     OW58424  13.697   6.123   3.231
18862SOL    HW158425  13.629   6.182   3.263
18862SOL    HW258426  13.651   6.042   3.209
18863SOL     OW58427  13.702   4.885  10.822
18863SOL    HW158428  13.782   4.838  10.798
18863SOL    HW258429  13.681   4.854  10.910
18864SOL     OW58430   0.145   0.526   4.510
18864SOL    HW158431   0.105   0.496   4.429
18864SOL    HW258432   0.091   0.600   4.538
18865SOL     OW58433   5.305   2.523   5.083
18865SOL    HW158434   5.255   2.443   5.100
18865SOL    HW258435   5.238   2.588   5.062
18866SOL     OW58436   6.032   1.413  12.752
18866SOL    HW158437   5.968   1.388  12.819
18866SOL    HW258438   6.116   1.386  12.788
18867SOL     OW58439   0.824   0.016   8.239
18867SOL    HW158440   0.798  14.840   8.310
18867SOL    HW258441   0.799   0.104   8.269
18868SOL     OW58442   9.169  14.668   4.926
18868SOL    HW158443   9.165  14.641   5.017
18868SOL    HW258444   9.204  14.757   4.929
18869SOL     OW58445   2.713   6.049   7.089
18869SOL    HW158446   2.776   6.064   7.160
18869SOL    HW258447   2.708   6.133   7.043
18870SOL     OW58448  13.585   9.499   1.596
18870SOL    HW158449  13.490   9.511   1.602
18870SOL    HW258450  13.599   9.468   1.506
18871SOL     OW58451  11.266   7.463   0.601
18871SOL    HW158452  11.268   7.509   0.517
18871SOL    HW258453  11.174   7.465   0.627
18872SOL     OW58454  11.825  14.205  12.268
18872SOL    HW158455  11.743  14.247  12.295
18872SOL    HW258456  11.892  14.250  12.320
18873SOL     OW58457  10.109   4.377   9.071
18873SOL    HW158458  10.150   4.357   8.987
18873SOL    HW258459  10.111   4.473   9.077
18874SOL     OW58460  12.978   6.223   3.117
18874SOL    HW158461  12.999   6.271   3.198
18874SOL    HW258462  12.885   6.199   3.127
18875SOL     OW58463   0.425   0.928   8.197
18875SOL    HW158464   0.441   0.993   8.129
18875SOL    HW258465   0.371   0.974   8.261
18876SOL     OW58466   5.463   6.294   1.685
18876SOL    HW158467   5.406   6.313   1.611
18876SOL    HW258468   5.549   6.280   1.646
18877SOL     OW58469  13.980   3.701   2.681
18877SOL    HW158470  13.976   3.770   2.614
18877SOL    HW258471  14.041   3.734   2.746
18878SOL     OW58472  11.509   5.869   6.039
18878SOL    HW158473  11.480   5.933   5.974
18878SOL    HW258474  11.559   5.921   6.103
18879SOL     OW58475  13.260   5.344   1.755
18879SOL    HW158476  13.295   5.381   1.674
18879SOL    HW258477  13.229   5.420   1.805
18880SOL     OW58478   1.752   1.818   7.911
18880SOL    HW158479   1.677   1.859   7.868
18880SOL    HW258480   1.713   1.764   7.980
18881SOL     OW58481  13.958   7.242   8.153
18881SOL    HW158482  13.999   7.316   8.197
18881SOL    HW258483  13.963   7.263   8.060
18882SOL     OW58484   1.598  14.120  11.769
18882SOL    HW158485   1.663  14.064  11.727
18882SOL    HW258486   1.564  14.066  11.841
18883SOL     OW58487   8.062  10.611  12.731
18883SOL    HW158488   8.065  10.562  12.649
18883SOL    HW258489   8.153  10.615  12.761
18884SOL     OW58490  12.155   1.356  11.789
18884SOL    HW158491  12.230   1.360  11.847
18884SOL    HW258492  12.084   1.398  11.838
18885SOL     OW58493   8.162  13.606  10.847
18885SOL    HW158494   8.094  13.586  10.911
18885SOL    HW258495   8.172  13.701  10.850
18886SOL     OW58496  10.417   1.314  11.875
18886SOL    HW158497  10.377   1.399  11.894
18886SOL    HW258498  10.343   1.254  11.866
18887SOL     OW58499   4.596   9.581   5.905
18887SOL    HW158500   4.510   9.623   5.898
18887SOL    HW258501   4.592   9.508   5.844
18888SOL     OW58502   4.298   3.848  10.228
18888SOL    HW158503   4.255   3.766  10.205
18888SOL    HW258504   4.373   3.822  10.282
18889SOL     OW58505   9.737   2.140   5.958
18889SOL    HW158506   9.816   2.090   5.940
18889SOL    HW258507   9.725   2.133   6.053
18890SOL     OW58508   4.557  10.886  10.130
18890SOL    HW158509   4.583  10.978  10.129
18890SOL    HW258510   4.515  10.872  10.045
18891SOL     OW58511   0.923   7.038   3.290
18891SOL    HW158512   0.842   6.997   3.259
18891SOL    HW258513   0.991   6.972   3.276
18892SOL     OW58514  12.455  11.070   5.610
18892SOL    HW158515  12.495  11.155   5.589
18892SOL    HW258516  12.361  11.089   5.618
18893SOL     OW58517   6.607   3.136   4.222
18893SOL    HW158518   6.530   3.192   4.209
18893SOL    HW258519   6.681   3.195   4.207
18894SOL     OW58520   3.462  11.272   7.378
18894SOL    HW158521   3.449  11.363   7.350
18894SOL    HW258522   3.382  11.250   7.426
18895SOL     OW58523   9.018  13.574  14.472
18895SOL    HW158524   9.003  13.531  14.556
18895SOL    HW258525   8.977  13.517  14.407
18896SOL     OW58526  13.555   0.787   8.682
18896SOL    HW158527  13.535   0.863   8.737
18896SOL    HW258528  13.471   0.743   8.671
18897SOL     OW58529   0.339   6.339   3.529
18897SOL    HW158530   0.339   6.421   3.480
18897SOL    HW258531   0.325   6.365   3.620
18898SOL     OW58532   0.009   3.638   9.608
18898SOL    HW158533   0.072   3.647   9.679
18898SOL    HW258534  14.813   3.602   9.650
18899SOL     OW58535  10.825   1.043   7.120
18899SOL    HW158536  10.737   1.012   7.145
18899SOL    HW258537  10.880   0.965   7.123
18900SOL     OW58538   0.268   8.482   7.758
18900SOL    HW158539   0.347   8.534   7.769
18900SOL    HW258540   0.197   8.546   7.763
18901SOL     OW58541  10.195   3.629   8.430
18901SOL    HW158542  10.120   3.571   8.436
18901SOL    HW258543  10.160   3.716   8.447
18902SOL     OW58544   5.251   1.733   7.367
18902SOL    HW158545   5.243   1.735   7.463
18902SOL    HW258546   5.254   1.825   7.341
18903SOL     OW58547   4.287  12.433   4.540
18903SOL    HW158548   4.195  12.411   4.528
18903SOL    HW258549   4.329  12.351   4.565
18904SOL     OW58550   0.359  14.686  10.207
18904SOL    HW158551   0.350  14.597  10.173
18904SOL    HW258552   0.434  14.722  10.159
18905SOL     OW58553  13.484   5.019   1.518
18905SOL    HW158554  13.446   4.933   1.533
18905SOL    HW258555  13.533   5.010   1.437
18906SOL     OW58556   5.637  11.285   5.756
18906SOL    HW158557   5.732  11.296   5.762
18906SOL    HW258558   5.625  11.193   5.732
18907SOL     OW58559  12.773   8.004  14.820
18907SOL    HW158560  12.830   7.928  14.830
18907SOL    HW258561  12.794   8.061   0.012
18908SOL     OW58562   2.263   1.429   4.080
18908SOL    HW158563   2.350   1.457   4.054
18908SOL    HW258564   2.240   1.359   4.019
18909SOL     OW58565   2.626   5.432   9.676
18909SOL    HW158566   2.556   5.385   9.720
18909SOL    HW258567   2.591   5.452   9.589
18910SOL     OW58568   2.598   6.856   8.626
18910SOL    HW158569   2.594   6.878   8.719
18910SOL    HW258570   2.662   6.916   8.589
18911SOL     OW58571   5.233   2.491   6.762
18911SOL    HW158572   5.199   2.577   6.739
18911SOL    HW258573   5.290   2.468   6.689
18912SOL     OW58574  14.657  13.272   5.329
18912SOL    HW158575  14.745  13.280   5.368
18912SOL    HW258576  14.601  13.249   5.403
18913SOL     OW58577  10.234   2.558  10.901
18913SOL    HW158578  10.238   2.476  10.851
18913SOL    HW258579  10.240   2.531  10.992
18914SOL     OW58580   8.540   6.795   5.619
18914SOL    HW158581   8.556   6.705   5.593
18914SOL    HW258582   8.550   6.846   5.538
18915SOL     OW58583   3.745  13.596   0.409
18915SOL    HW158584   3.758  13.513   0.361
18915SOL    HW258585   3.804  13.657   0.366
18916SOL     OW58586   8.724   1.436   8.289
18916SOL    HW158587   8.665   1.482   8.229
18916SOL    HW258588   8.796   1.497   8.304
18917SOL     OW58589   2.834  11.059   2.194
18917SOL    HW158590   2.845  11.113   2.116
18917SOL    HW258591   2.908  11.082   2.250
18918SOL     OW58592  13.670   8.205   8.177
18918SOL    HW158593  13.614   8.221   8.253
18918SOL    HW258594  13.678   8.290   8.135
18919SOL     OW58595   9.163   0.256   8.290
18919SOL    HW158596   9.085   0.218   8.330
18919SOL    HW258597   9.132   0.291   8.206
18920SOL     OW58598   1.599   2.486   6.168
18920SOL    HW158599   1.562   2.411   6.121
18920SOL    HW258600   1.592   2.464   6.260
18921SOL     OW58601   3.922   0.615   1.636
18921SOL    HW158602   3.848   0.594   1.693
18921SOL    HW258603   3.908   0.707   1.611
18922SOL     OW58604  12.254   9.447   0.691
18922SOL    HW158605  12.234   9.467   0.782
18922SOL    HW258606  12.321   9.511   0.666
18923SOL     OW58607   9.877   0.558   4.886
18923SOL    HW158608   9.804   0.611   4.916
18923SOL    HW258609   9.899   0.502   4.960
18924SOL     OW58610  13.229   9.532  12.333
18924SOL    HW158611  13.324   9.516  12.333
18924SOL    HW258612  13.190   9.445  12.335
18925SOL     OW58613  14.015  10.950  13.857
18925SOL    HW158614  14.098  10.945  13.809
18925SOL    HW258615  13.996  11.044  13.861
18926SOL     OW58616   1.857  10.486   4.844
18926SOL    HW158617   1.901  10.557   4.797
18926SOL    HW258618   1.765  10.494   4.821
18927SOL     OW58619   5.106   9.344  12.710
18927SOL    HW158620   5.159   9.282  12.659
18927SOL    HW258621   5.160   9.423  12.714
18928SOL     OW58622   9.868  11.047  12.272
18928SOL    HW158623   9.894  11.110  12.339
18928SOL    HW258624   9.877  10.962  12.315
18929SOL     OW58625   6.512   9.793   7.702
18929SOL    HW158626   6.560   9.789   7.785
18929SOL    HW258627   6.572   9.754   7.638
18930SOL     OW58628   4.468   6.961   2.386
18930SOL    HW158629   4.533   6.891   2.377
18930SOL    HW258630   4.450   6.966   2.480
18931SOL     OW58631   0.414   2.341   5.866
18931SOL    HW158632   0.505   2.354   5.893
18931SOL    HW258633   0.393   2.418   5.814
18932SOL     OW58634   6.056  12.084   6.063
18932SOL    HW158635   6.090  12.044   5.983
18932SOL    HW258636   6.009  12.013   6.107
18933SOL     OW58637   3.385   9.359   7.847
18933SOL    HW158638   3.341   9.348   7.763
18933SOL    HW258639   3.449   9.287   7.850
18934SOL     OW58640   7.801   9.277   0.159
18934SOL    HW158641   7.791   9.254   0.067
18934SOL    HW258642   7.803   9.373   0.159
18935SOL     OW58643  10.951   9.495  10.494
18935SOL    HW158644  10.892   9.489  10.569
18935SOL    HW258645  10.926   9.422  10.438
18936SOL     OW58646   4.175   5.768  10.730
18936SOL    HW158647   4.131   5.744  10.811
18936SOL    HW258648   4.257   5.809  10.757
18937SOL     OW58649   7.576   6.746   1.146
18937SOL    HW158650   7.557   6.830   1.189
18937SOL    HW258651   7.502   6.733   1.086
18938SOL     OW58652  13.549   4.230  14.314
18938SOL    HW158653  13.509   4.246  14.229
18938SOL    HW258654  13.586   4.315  14.340
18939SOL     OW58655   9.638   5.327   0.450
18939SOL    HW158656   9.683   5.381   0.385
18939SOL    HW258657   9.668   5.361   0.535
18940SOL     OW58658   7.720   8.390   7.782
18940SOL    HW158659   7.703   8.327   7.853
18940SOL    HW258660   7.801   8.359   7.742
18941SOL     OW58661   4.298   9.758  14.139
18941SOL    HW158662   4.361   9.691  14.165
18941SOL    HW258663   4.321   9.780  14.049
18942SOL     OW58664  12.011   6.828  10.924
18942SOL    HW158665  12.075   6.899  10.931
18942SOL    HW258666  12.024   6.794  10.835
18943SOL     OW58667  13.693   3.382   7.793
18943SOL    HW158668  13.765   3.354   7.850
18943SOL    HW258669  13.686   3.313   7.728
18944SOL     OW58670  11.106  13.741   5.107
18944SOL    HW158671  11.200  13.722   5.112
18944SOL    HW258672  11.100  13.813   5.045
18945SOL     OW58673  14.113   6.060  12.354
18945SOL    HW158674  14.187   6.029  12.303
18945SOL    HW258675  14.048   5.989  12.349
18946SOL     OW58676  10.399   9.541  11.036
18946SOL    HW158677  10.382   9.479  10.966
18946SOL    HW258678  10.328   9.605  11.030
18947SOL     OW58679   8.825   6.684   5.951
18947SOL    HW158680   8.735   6.684   5.918
18947SOL    HW258681   8.850   6.777   5.955
18948SOL     OW58682   4.119   4.563  13.076
18948SOL    HW158683   4.025   4.547  13.078
18948SOL    HW258684   4.155   4.493  13.021
18949SOL     OW58685   8.051   7.925  12.225
18949SOL    HW158686   8.122   7.911  12.287
18949SOL    HW258687   8.060   7.854  12.162
18950SOL     OW58688  11.267   6.547  12.506
18950SOL    HW158689  11.215   6.529  12.584
18950SOL    HW258690  11.241   6.636  12.480
18951SOL     OW58691  13.744   5.052  13.108
18951SOL    HW158692  13.777   4.972  13.148
18951SOL    HW258693  13.793   5.122  13.151
18952SOL     OW58694  12.664  11.080  11.700
18952SOL    HW158695  12.664  11.066  11.794
18952SOL    HW258696  12.606  11.154  11.685
18953SOL     OW58697   6.558   8.485   3.200
18953SOL    HW158698   6.580   8.547   3.131
18953SOL    HW258699   6.634   8.485   3.258
18954SOL     OW58700  10.382   5.561  11.309
18954SOL    HW158701  10.303   5.561  11.363
18954SOL    HW258702  10.430   5.639  11.337
18955SOL     OW58703   4.558   4.675   1.005
18955SOL    HW158704   4.571   4.760   0.962
18955SOL    HW258705   4.593   4.611   0.943
18956SOL     OW58706  13.747   9.879   6.037
18956SOL    HW158707  13.719   9.800   5.992
18956SOL    HW258708  13.779   9.849   6.122
18957SOL     OW58709   1.857  10.052  11.576
18957SOL    HW158710   1.820  10.067  11.488
18957SOL    HW258711   1.839   9.960  11.594
18958SOL     OW58712   8.035   1.087   9.926
18958SOL    HW158713   8.098   1.089   9.998
18958SOL    HW258714   8.028   1.179   9.898
18959SOL     OW58715   0.525  11.638   2.492
18959SOL    HW158716   0.456  11.694   2.458
18959SOL    HW258717   0.525  11.562   2.434
18960SOL     OW58718   8.799   7.144  12.513
18960SOL    HW158719   8.796   7.049  12.527
18960SOL    HW258720   8.876   7.157  12.457
18961SOL     OW58721   9.729  11.185  11.102
18961SOL    HW158722   9.720  11.117  11.168
18961SOL    HW258723   9.750  11.137  11.021
18962SOL     OW58724   7.004   1.999   3.125
18962SOL    HW158725   7.022   1.990   3.031
18962SOL    HW258726   7.025   1.914   3.162
18963SOL     OW58727   9.625   0.613   4.967
18963SOL    HW158728   9.538   0.583   4.940
18963SOL    HW258729   9.656   0.546   5.027
18964SOL     OW58730   5.344   0.663   4.099
18964SOL    HW158731   5.254   0.645   4.072
18964SOL    HW258732   5.336   0.690   4.191
18965SOL     OW58733   5.531   4.106   5.968
18965SOL    HW158734   5.494   4.145   5.889
18965SOL    HW258735   5.490   4.155   6.040
18966SOL     OW58736   4.424   2.268  12.437
18966SOL    HW158737   4.454   2.186  12.396
18966SOL    HW258738   4.421   2.331  12.365
18967SOL     OW58739  13.088  12.816  12.434
18967SOL    HW158740  13.115  12.838  12.345
18967SOL    HW258741  12.992  12.813  12.430
18968SOL     OW58742   9.853  10.808  10.300
18968SOL    HW158743   9.779  10.867  10.314
18968SOL    HW258744   9.894  10.840  10.220
18969SOL     OW58745  13.767   1.357  13.951
18969SOL    HW158746  13.769   1.293  13.880
18969SOL    HW258747  13.770   1.305  14.031
18970SOL     OW58748   5.617  11.254  12.320
18970SOL    HW158749   5.588  11.265  12.411
18970SOL    HW258750   5.664  11.335  12.301
18971SOL     OW58751   7.380  11.096  10.549
18971SOL    HW158752   7.474  11.103  10.532
18971SOL    HW258753   7.347  11.042  10.477
18972SOL     OW58754  10.069  14.201  13.468
18972SOL    HW158755  10.044  14.112  13.443
18972SOL    HW258756  10.163  14.205  13.452
18973SOL     OW58757   3.323   4.917  11.476
18973SOL    HW158758   3.261   4.850  11.448
18973SOL    HW258759   3.318   4.984  11.409
18974SOL     OW58760   4.977   7.715   6.617
18974SOL    HW158761   4.896   7.739   6.662
18974SOL    HW258762   4.992   7.624   6.643
18975SOL     OW58763   9.823   0.090   9.319
18975SOL    HW158764   9.751   0.069   9.378
18975SOL    HW258765   9.891   0.026   9.340
18976SOL     OW58766   3.981  13.298  14.097
18976SOL    HW158767   3.967  13.209  14.130
18976SOL    HW258768   4.015  13.346  14.172
18977SOL     OW58769   3.746   1.235   5.023
18977SOL    HW158770   3.691   1.163   5.051
18977SOL    HW258771   3.824   1.193   4.986
18978SOL     OW58772   8.643   2.208   2.456
18978SOL    HW158773   8.589   2.129   2.451
18978SOL    HW258774   8.702   2.192   2.530
18979SOL     OW58775   2.648   9.675   7.710
18979SOL    HW158776   2.655   9.745   7.645
18979SOL    HW258777   2.737   9.665   7.744
18980SOL     OW58778  12.786  10.676   4.109
18980SOL    HW158779  12.748  10.590   4.095
18980SOL    HW258780  12.732  10.735   4.056
18981SOL     OW58781  11.957   6.226  13.664
18981SOL    HW158782  11.878   6.278  13.651
18981SOL    HW258783  11.956   6.161  13.594
18982SOL     OW58784  10.995  10.348   7.760
18982SOL    HW158785  11.070  10.301   7.723
18982SOL    HW258786  11.032  10.398   7.833
18983SOL     OW58787  13.066   9.720   5.771
18983SOL    HW158788  13.135   9.660   5.742
18983SOL    HW258789  13.023   9.748   5.690
18984SOL     OW58790   3.339   0.445   7.558
18984SOL    HW158791   3.307   0.385   7.625
18984SOL    HW258792   3.274   0.439   7.488
18985SOL     OW58793   0.416  13.756  12.024
18985SOL    HW158794   0.346  13.810  12.062
18985SOL    HW258795   0.420  13.679  12.081
18986SOL     OW58796  10.715   6.927  10.423
18986SOL    HW158797  10.678   6.961  10.341
18986SOL    HW258798  10.651   6.951  10.490
18987SOL     OW58799   0.925  12.839   5.186
18987SOL    HW158800   0.842  12.885   5.196
18987SOL    HW258801   0.992  12.906   5.198
18988SOL     OW58802  12.064   7.529   6.714
18988SOL    HW158803  12.061   7.611   6.665
18988SOL    HW258804  11.975   7.515   6.744
18989SOL     OW58805   1.723  12.218   4.710
18989SOL    HW158806   1.815  12.193   4.700
18989SOL    HW258807   1.675  12.136   4.706
18990SOL     OW58808   9.646   4.614   0.185
18990SOL    HW158809   9.568   4.597   0.239
18990SOL    HW258810   9.627   4.572   0.102
18991SOL     OW58811   1.986  11.332   6.718
18991SOL    HW158812   1.931  11.406   6.695
18991SOL    HW258813   1.947  11.258   6.671
18992SOL     OW58814   6.497   8.967   0.489
18992SOL    HW158815   6.487   8.967   0.394
18992SOL    HW258816   6.521   8.877   0.511
18993SOL     OW58817  13.854  13.032  13.660
18993SOL    HW158818  13.918  12.973  13.620
18993SOL    HW258819  13.852  13.108  13.603
18994SOL     OW58820  11.446   6.683  14.407
18994SOL    HW158821  11.394   6.758  14.378
18994SOL    HW258822  11.392   6.641  14.474
18995SOL     OW58823   7.198   6.332   1.641
18995SOL    HW158824   7.149   6.356   1.720
18995SOL    HW258825   7.233   6.245   1.660
18996SOL     OW58826   4.702   0.338   3.388
18996SOL    HW158827   4.617   0.315   3.351
18996SOL    HW258828   4.691   0.326   3.482
18997SOL     OW58829   0.932   4.265   7.250
18997SOL    HW158830   0.865   4.240   7.313
18997SOL    HW258831   1.011   4.220   7.279
18998SOL     OW58832  13.251   7.329  13.295
18998SOL    HW158833  13.174   7.373  13.260
18998SOL    HW258834  13.258   7.360  13.385
18999SOL     OW58835   1.649  11.677   1.496
18999SOL    HW158836   1.660  11.620   1.420
18999SOL    HW258837   1.732  11.671   1.543
19000SOL     OW58838   5.236   5.436   3.257
19000SOL    HW158839   5.246   5.467   3.167
19000SOL    HW258840   5.200   5.511   3.304
19001SOL     OW58841  11.850   4.741   6.291
19001SOL    HW158842  11.863   4.775   6.203
19001SOL    HW258843  11.937   4.711   6.319
19002SOL     OW58844   6.876   2.352  11.892
19002SOL    HW158845   6.840   2.264  11.879
19002SOL    HW258846   6.920   2.372  11.809
19003SOL     OW58847   5.129   0.533  10.517
19003SOL    HW158848   5.174   0.570  10.442
19003SOL    HW258849   5.176   0.451  10.535
19004SOL     OW58850   9.146   0.035   9.491
19004SOL    HW158851   9.187   0.102   9.437
19004SOL    HW258852   9.167  14.835   9.447
19005SOL     OW58853   5.618   9.974  10.016
19005SOL    HW158854   5.654   9.897  10.059
19005SOL    HW258855   5.549  10.004  10.075
19006SOL     OW58856   3.130  11.264  10.179
19006SOL    HW158857   3.207  11.289  10.230
19006SOL    HW258858   3.143  11.170  10.162
19007SOL     OW58859   9.231  12.223  11.852
19007SOL    HW158860   9.174  12.153  11.886
19007SOL    HW258861   9.190  12.249  11.769
19008SOL     OW58862   8.803  14.191   9.007
19008SOL    HW158863   8.760  14.239   8.936
19008SOL    HW258864   8.805  14.253   9.080
19009SOL     OW58865  11.464  10.476   5.400
19009SOL    HW158866  11.474  10.555   5.453
19009SOL    HW258867  11.461  10.405   5.463
19010SOL     OW58868  13.653   6.115   2.365
19010SOL    HW158869  13.698   6.044   2.320
19010SOL    HW258870  13.651   6.186   2.300
19011SOL     OW58871   0.235  10.066   5.225
19011SOL    HW158872   0.206  10.100   5.141
19011SOL    HW258873   0.177   9.992   5.242
19012SOL     OW58874   2.646   2.554  13.707
19012SOL    HW158875   2.727   2.599  13.730
19012SOL    HW258876   2.602   2.537  13.790
19013SOL     OW58877   9.534   5.739   5.793
19013SOL    HW158878   9.522   5.748   5.698
19013SOL    HW258879   9.538   5.829   5.825
19014SOL     OW58880   2.616   4.087   2.068
19014SOL    HW158881   2.565   4.014   2.102
19014SOL    HW258882   2.621   4.149   2.141
19015SOL     OW58883  11.399   2.317   6.500
19015SOL    HW158884  11.311   2.279   6.497
19015SOL    HW258885  11.453   2.257   6.448
19016SOL     OW58886  13.751  10.233   5.014
19016SOL    HW158887  13.808  10.278   4.951
19016SOL    HW258888  13.801  10.234   5.096
19017SOL     OW58889   9.962   4.127  13.498
19017SOL    HW158890   9.984   4.046  13.453
19017SOL    HW258891  10.026   4.134  13.569
19018SOL     OW58892   8.711   9.308   1.819
19018SOL    HW158893   8.697   9.399   1.793
19018SOL    HW258894   8.623   9.270   1.820
19019SOL     OW58895   3.444  10.328  14.150
19019SOL    HW158896   3.370  10.315  14.210
19019SOL    HW258897   3.413  10.395  14.088
19020SOL     OW58898   9.438   8.353   6.253
19020SOL    HW158899   9.428   8.375   6.161
19020SOL    HW258900   9.374   8.284   6.269
19021SOL     OW58901   5.607  12.140   6.076
19021SOL    HW158902   5.631  12.050   6.098
19021SOL    HW258903   5.519  12.134   6.039
19022SOL     OW58904   0.507   7.635  11.079
19022SOL    HW158905   0.600   7.620  11.091
19022SOL    HW258906   0.483   7.577  11.007
19023SOL     OW58907  10.491   9.033   7.063
19023SOL    HW158908  10.435   8.958   7.045
19023SOL    HW258909  10.565   9.022   7.004
19024SOL     OW58910   0.733   7.855   0.026
19024SOL    HW158911   0.790   7.826  14.837
19024SOL    HW258912   0.751   7.795   0.098
19025SOL     OW58913  14.790  12.529   7.544
19025SOL    HW158914  14.817  12.491   7.460
19025SOL    HW258915  14.749  12.612   7.520
19026SOL     OW58916   3.721  12.230  12.698
19026SOL    HW158917   3.789  12.217  12.632
19026SOL    HW258918   3.767  12.269  12.772
19027SOL     OW58919  12.534   3.530   3.458
19027SOL    HW158920  12.496   3.615   3.436
19027SOL    HW258921  12.564   3.495   3.374
19028SOL     OW58922   4.023  11.670  11.535
19028SOL    HW158923   3.939  11.658  11.490
19028SOL    HW258924   4.078  11.716  11.472
19029SOL     OW58925  12.006   7.547  14.058
19029SOL    HW158926  11.993   7.562  13.964
19029SOL    HW258927  12.031   7.455  14.064
19030SOL     OW58928  13.182   9.455   4.928
19030SOL    HW158929  13.199   9.469   4.835
19030SOL    HW258930  13.135   9.372   4.932
19031SOL     OW58931   7.874  11.976   0.298
19031SOL    HW158932   7.837  12.043   0.355
19031SOL    HW258933   7.869  12.014   0.210
19032SOL     OW58934  13.275   2.347   1.003
19032SOL    HW158935  13.258   2.291   0.927
19032SOL    HW258936  13.190   2.355   1.047
19033SOL     OW58937   2.336   6.173  12.431
19033SOL    HW158938   2.421   6.171  12.476
19033SOL    HW258939   2.300   6.259  12.452
19034SOL     OW58940   8.599   8.119   3.668
19034SOL    HW158941   8.673   8.061   3.685
19034SOL    HW258942   8.523   8.061   3.663
19035SOL     OW58943   1.113   4.745   8.639
19035SOL    HW158944   1.155   4.727   8.554
19035SOL    HW258945   1.152   4.682   8.699
19036SOL     OW58946  11.457   7.425   4.677
19036SOL    HW158947  11.484   7.502   4.627
19036SOL    HW258948  11.505   7.352   4.636
19037SOL     OW58949  13.008   6.189   5.636
19037SOL    HW158950  13.067   6.184   5.562
19037SOL    HW258951  13.063   6.169   5.712
19038SOL     OW58952   0.688   4.560  10.380
19038SOL    HW158953   0.633   4.496  10.425
19038SOL    HW258954   0.634   4.639  10.375
19039SOL     OW58955  10.629   4.481   8.210
19039SOL    HW158956  10.601   4.570   8.191
19039SOL    HW258957  10.705   4.491   8.267
19040SOL     OW58958   5.605  10.842   5.932
19040SOL    HW158959   5.596  10.748   5.917
19040SOL    HW258960   5.673  10.849   5.999
19041SOL     OW58961  12.482   0.483   1.760
19041SOL    HW158962  12.434   0.415   1.712
19041SOL    HW258963  12.460   0.565   1.715
19042SOL     OW58964   5.355   4.880   6.387
19042SOL    HW158965   5.437   4.923   6.365
19042SOL    HW258966   5.287   4.941   6.357
19043SOL     OW58967   7.451   3.091   5.531
19043SOL    HW158968   7.428   3.097   5.438
19043SOL    HW258969   7.466   2.997   5.546
19044SOL     OW58970   4.589   5.789   2.485
19044SOL    HW158971   4.664   5.834   2.526
19044SOL    HW258972   4.515   5.846   2.504
19045SOL     OW58973   0.919  12.891   0.877
19045SOL    HW158974   0.823  12.883   0.871
19045SOL    HW258975   0.948  12.806   0.910
19046SOL     OW58976   1.798  11.866  13.555
19046SOL    HW158977   1.729  11.874  13.489
19046SOL    HW258978   1.783  11.781  13.596
19047SOL     OW58979   4.931   6.420   3.173
19047SOL    HW158980   4.865   6.466   3.226
19047SOL    HW258981   5.013   6.433   3.221
19048SOL     OW58982   9.315   5.685   4.364
19048SOL    HW158983   9.280   5.596   4.360
19048SOL    HW258984   9.283   5.720   4.447
19049SOL     OW58985  11.100  11.719  13.248
19049SOL    HW158986  11.172  11.722  13.185
19049SOL    HW258987  11.031  11.671  13.202
19050SOL     OW58988   1.059  13.190   9.643
19050SOL    HW158989   1.142  13.237   9.635
19050SOL    HW258990   1.022  13.192   9.555
19051SOL     OW58991   7.797   9.586  11.679
19051SOL    HW158992   7.783   9.636  11.599
19051SOL    HW258993   7.733   9.515  11.675
19052SOL     OW58994   5.837   1.393   5.969
19052SOL    HW158995   5.863   1.403   5.877
19052SOL    HW258996   5.770   1.461   5.981
19053SOL     OW58997   5.390   7.752   1.736
19053SOL    HW158998   5.425   7.837   1.709
19053SOL    HW258999   5.299   7.770   1.761
19054SOL     OW59000  11.864   9.103   1.835
19054SOL    HW159001  11.800   9.072   1.771
19054SOL    HW259002  11.948   9.098   1.790
19055SOL     OW59003   7.383  12.349   1.310
19055SOL    HW159004   7.348  12.386   1.391
19055SOL    HW259005   7.373  12.418   1.245
19056SOL     OW59006   2.529   7.853   2.939
19056SOL    HW159007   2.578   7.776   2.910
19056SOL    HW259008   2.588   7.926   2.924
19057SOL     OW59009   6.881   7.643   5.503
19057SOL    HW159010   6.915   7.556   5.483
19057SOL    HW259011   6.958   7.694   5.528
19058SOL     OW59012   3.445   1.446   8.585
19058SOL    HW159013   3.444   1.513   8.517
19058SOL    HW259014   3.354   1.416   8.590
19059SOL     OW59015   6.662  11.895   7.403
19059SOL    HW159016   6.585  11.867   7.355
19059SOL    HW259017   6.628  11.932   7.485
19060SOL     OW59018  12.457   9.375   5.209
19060SOL    HW159019  12.416   9.450   5.165
19060SOL    HW259020  12.515   9.337   5.143
19061SOL     OW59021   9.060   6.021  14.545
19061SOL    HW159022   8.982   6.073  14.561
19061SOL    HW259023   9.113   6.032  14.624
19062SOL     OW59024   7.423   0.401   1.671
19062SOL    HW159025   7.449   0.460   1.741
19062SOL    HW259026   7.493   0.410   1.605
19063SOL     OW59027   3.125  12.153   6.818
19063SOL    HW159028   3.161  12.141   6.906
19063SOL    HW259029   3.156  12.076   6.769
19064SOL     OW59030   5.650   9.974  13.972
19064SOL    HW159031   5.613   9.987  13.884
19064SOL    HW259032   5.597  10.030  14.029
19065SOL     OW59033   2.370  12.158   5.900
19065SOL    HW159034   2.367  12.072   5.942
19065SOL    HW259035   2.406  12.141   5.813
19066SOL     OW59036   0.046  14.242  13.751
19066SOL    HW159037   0.018  14.235  13.660
19066SOL    HW259038  14.877  14.176  13.798
19067SOL     OW59039   7.134   6.920   6.847
19067SOL    HW159040   7.118   6.831   6.814
19067SOL    HW259041   7.155   6.971   6.770
19068SOL     OW59042  14.061  12.163  12.443
19068SOL    HW159043  14.079  12.093  12.381
19068SOL    HW259044  14.082  12.126  12.529
19069SOL     OW59045  13.348  13.868   2.398
19069SOL    HW159046  13.408  13.794   2.412
19069SOL    HW259047  13.294  13.870   2.477
19070SOL     OW59048   2.318  10.108   5.536
19070SOL    HW159049   2.405  10.106   5.498
19070SOL    HW259050   2.260  10.130   5.463
19071SOL     OW59051  11.313   6.933  13.277
19071SOL    HW159052  11.283   7.013  13.232
19071SOL    HW259053  11.265   6.862  13.234
19072SOL     OW59054  13.161   9.075   5.959
19072SOL    HW159055  13.179   9.029   6.041
19072SOL    HW259056  13.080   9.122   5.976
19073SOL     OW59057  12.216   1.133   1.642
19073SOL    HW159058  12.239   1.215   1.597
19073SOL    HW259059  12.121   1.129   1.636
19074SOL     OW59060   0.760   2.191  13.117
19074SOL    HW159061   0.798   2.118  13.166
19074SOL    HW259062   0.826   2.213  13.052
19075SOL     OW59063   2.970   3.786  14.312
19075SOL    HW159064   3.013   3.758  14.393
19075SOL    HW259065   3.036   3.837  14.266
19076SOL     OW59066  13.828   5.942   0.518
19076SOL    HW159067  13.765   5.912   0.584
19076SOL    HW259068  13.882   5.865   0.500
19077SOL     OW59069   6.871   1.436   9.196
19077SOL    HW159070   6.864   1.479   9.111
19077SOL    HW259071   6.908   1.350   9.176
19078SOL     OW59072  10.061   3.204  14.421
19078SOL    HW159073  10.133   3.152  14.385
19078SOL    HW259074  10.017   3.145  14.482
19079SOL     OW59075   9.685   3.772  13.733
19079SOL    HW159076   9.707   3.835  13.801
19079SOL    HW259077   9.767   3.760  13.684
19080SOL     OW59078   0.049  13.724   4.584
19080SOL    HW159079   0.026  13.633   4.566
19080SOL    HW259080   0.125  13.718   4.642
19081SOL     OW59081   7.760   3.519  12.555
19081SOL    HW159082   7.837   3.528  12.611
19081SOL    HW259083   7.746   3.424  12.550
19082SOL     OW59084   9.054  14.221   6.540
19082SOL    HW159085   8.992  14.233   6.612
19082SOL    HW259086   9.119  14.159   6.576
19083SOL     OW59087   7.184  14.028   9.273
19083SOL    HW159088   7.194  14.003   9.181
19083SOL    HW259089   7.145  14.115   9.270
19084SOL     OW59090   2.541   3.702  11.012
19084SOL    HW159091   2.511   3.631  11.068
19084SOL    HW259092   2.462   3.735  10.969
19085SOL     OW59093   0.385   7.897  11.058
19085SOL    HW159094   0.425   7.815  11.087
19085SOL    HW259095   0.404   7.959  11.128
19086SOL     OW59096  10.077  12.185  10.648
19086SOL    HW159097  10.135  12.198  10.723
19086SOL    HW259098  10.136  12.187  10.572
19087SOL     OW59099  11.279  11.272   8.670
19087SOL    HW159100  11.351  11.335   8.663
19087SOL    HW259101  11.322  11.188   8.687
19088SOL     OW59102   2.021   0.791   4.625
19088SOL    HW159103   2.104   0.800   4.578
19088SOL    HW259104   1.958   0.838   4.572
19089SOL     OW59105   7.329   9.074   7.581
19089SOL    HW159106   7.251   9.032   7.617
19089SOL    HW259107   7.392   9.074   7.653
19090SOL     OW59108   8.823   6.169  12.154
19090SOL    HW159109   8.903   6.220  12.138
19090SOL    HW259110   8.784   6.158  12.067
19091SOL     OW59111   2.251   6.742   3.140
19091SOL    HW159112   2.311   6.816   3.131
19091SOL    HW259113   2.202   6.760   3.220
19092SOL     OW59114   2.700  12.306   9.954
19092SOL    HW159115   2.768  12.247   9.920
19092SOL    HW259116   2.709  12.385   9.902
19093SOL     OW59117  12.256   5.537   6.285
19093SOL    HW159118  12.199   5.474   6.240
19093SOL    HW259119  12.234   5.526   6.378
19094SOL     OW59120  13.694  13.092  10.276
19094SOL    HW159121  13.782  13.056  10.289
19094SOL    HW259122  13.665  13.056  10.192
19095SOL     OW59123   4.465   3.086  14.102
19095SOL    HW159124   4.446   3.162  14.157
19095SOL    HW259125   4.555   3.062  14.126
19096SOL     OW59126   5.915  12.701   3.664
19096SOL    HW159127   5.975  12.669   3.596
19096SOL    HW259128   5.970  12.754   3.721
19097SOL     OW59129  10.217   0.093   6.678
19097SOL    HW159130  10.136   0.045   6.693
19097SOL    HW259131  10.191   0.172   6.632
19098SOL     OW59132   9.191  14.074   9.412
19098SOL    HW159133   9.216  14.027   9.332
19098SOL    HW259134   9.140  14.011   9.462
19099SOL     OW59135   0.811   9.382  14.809
19099SOL    HW159136   0.771   9.307  14.852
19099SOL    HW259137   0.743   9.415  14.750
19100SOL     OW59138   5.770  14.441   1.170
19100SOL    HW159139   5.709  14.367   1.165
19100SOL    HW259140   5.749  14.484   1.253
19101SOL     OW59141   6.806   4.782   0.709
19101SOL    HW159142   6.807   4.746   0.798
19101SOL    HW259143   6.827   4.874   0.720
19102SOL     OW59144  12.377  10.593   5.929
19102SOL    HW159145  12.355  10.665   5.989
19102SOL    HW259146  12.464  10.564   5.958
19103SOL     OW59147   7.173   1.341   4.946
19103SOL    HW159148   7.211   1.289   4.875
19103SOL    HW259149   7.219   1.425   4.940
19104SOL     OW59150   8.301  10.136   0.105
19104SOL    HW159151   8.301  10.211   0.045
19104SOL    HW259152   8.341  10.169   0.185
19105SOL     OW59153   7.081  13.359   0.615
19105SOL    HW159154   7.115  13.448   0.626
19105SOL    HW259155   6.997  13.359   0.661
19106SOL     OW59156   3.269  10.578   2.246
19106SOL    HW159157   3.351  10.589   2.198
19106SOL    HW259158   3.253  10.663   2.287
19107SOL     OW59159   6.705  14.056   9.798
19107SOL    HW159160   6.679  13.975   9.754
19107SOL    HW259161   6.624  14.107   9.805
19108SOL     OW59162   9.079   9.021  14.094
19108SOL    HW159163   9.173   9.024  14.073
19108SOL    HW259164   9.047   9.109  14.071
19109SOL     OW59165   2.619  14.282   8.001
19109SOL    HW159166   2.693  14.341   8.006
19109SOL    HW259167   2.544  14.335   8.029
19110SOL     OW59168  13.043   7.781   6.658
19110SOL    HW159169  13.091   7.823   6.586
19110SOL    HW259170  13.080   7.821   6.737
19111SOL     OW59171  12.370  11.700   3.072
19111SOL    HW159172  12.285  11.743   3.083
19111SOL    HW259173  12.350  11.607   3.075
19112SOL     OW59174   0.657   5.273   0.074
19112SOL    HW159175   0.592   5.226   0.023
19112SOL    HW259176   0.635   5.366   0.060
19113SOL     OW59177  10.096  10.732  13.128
19113SOL    HW159178  10.163  10.795  13.153
19113SOL    HW259179  10.013  10.774  13.150
19114SOL     OW59180   0.596   3.405  12.607
19114SOL    HW159181   0.609   3.344  12.680
19114SOL    HW259182   0.577   3.349  12.532
19115SOL     OW59183   1.665   1.433  13.634
19115SOL    HW159184   1.704   1.347  13.643
19115SOL    HW259185   1.610   1.443  13.712
19116SOL     OW59186  12.921   0.524   8.807
19116SOL    HW159187  12.894   0.552   8.894
19116SOL    HW259188  13.015   0.507   8.815
19117SOL     OW59189  14.665  14.235   7.547
19117SOL    HW159190  14.756  14.263   7.561
19117SOL    HW259191  14.659  14.151   7.593
19118SOL     OW59192   9.383  10.922   9.180
19118SOL    HW159193   9.450  10.971   9.227
19118SOL    HW259194   9.319  10.987   9.154
19119SOL     OW59195  12.760   9.310  14.292
19119SOL    HW159196  12.779   9.227  14.250
19119SOL    HW259197  12.708   9.286  14.369
19120SOL     OW59198   7.239   6.042   3.860
19120SOL    HW159199   7.215   6.106   3.927
19120SOL    HW259200   7.192   5.963   3.885
19121SOL     OW59201   4.785  11.032   6.833
19121SOL    HW159202   4.744  11.070   6.911
19121SOL    HW259203   4.792  11.106   6.772
19122SOL     OW59204   0.119   9.580   6.312
19122SOL    HW159205   0.158   9.653   6.359
19122SOL    HW259206   0.089   9.521   6.380
19123SOL     OW59207   1.939   5.601  11.188
19123SOL    HW159208   2.013   5.588  11.247
19123SOL    HW259209   1.877   5.531  11.211
19124SOL     OW59210  11.470  12.045   3.376
19124SOL    HW159211  11.503  12.072   3.462
19124SOL    HW259212  11.511  12.105   3.314
19125SOL     OW59213   2.538   6.556   8.235
19125SOL    HW159214   2.589   6.487   8.193
19125SOL    HW259215   2.603   6.607   8.284
19126SOL     OW59216   2.215   8.588   9.917
19126SOL    HW159217   2.219   8.683   9.921
19126SOL    HW259218   2.164   8.569   9.838
19127SOL     OW59219  11.455   5.153   6.191
19127SOL    HW159220  11.521   5.098   6.233
19127SOL    HW259221  11.471   5.241   6.226
19128SOL     OW59222  13.566   5.898   8.872
19128SOL    HW159223  13.531   5.919   8.959
19128SOL    HW259224  13.628   5.968   8.853
19129SOL     OW59225   5.525   2.143  14.560
19129SOL    HW159226   5.494   2.187  14.639
19129SOL    HW259227   5.446   2.131  14.507
19130SOL     OW59228  12.371   0.499   3.419
19130SOL    HW159229  12.393   0.440   3.347
19130SOL    HW259230  12.428   0.471   3.491
19131SOL     OW59231  12.801   6.415   5.168
19131SOL    HW159232  12.877   6.442   5.116
19131SOL    HW259233  12.738   6.485   5.155
19132SOL     OW59234   7.790  12.753  14.309
19132SOL    HW159235   7.744  12.670  14.316
19132SOL    HW259236   7.846  12.744  14.232
19133SOL     OW59237   4.624   9.142   1.244
19133SOL    HW159238   4.602   9.135   1.151
19133SOL    HW259239   4.680   9.220   1.249
19134SOL     OW59240  10.604   7.854   9.304
19134SOL    HW159241  10.671   7.818   9.362
19134SOL    HW259242  10.569   7.778   9.257
19135SOL     OW59243   0.621   7.741  10.002
19135SOL    HW159244   0.647   7.749  10.094
19135SOL    HW259245   0.527   7.757  10.002
19136SOL     OW59246  14.420   8.881   6.726
19136SOL    HW159247  14.376   8.914   6.647
19136SOL    HW259248  14.481   8.951   6.750
19137SOL     OW59249   0.670   8.054  11.231
19137SOL    HW159250   0.730   8.088  11.297
19137SOL    HW259251   0.718   7.981  11.191
19138SOL     OW59252  12.562   7.449   9.647
19138SOL    HW159253  12.584   7.541   9.663
19138SOL    HW259254  12.496   7.429   9.713
19139SOL     OW59255   2.657  12.223   5.137
19139SOL    HW159256   2.659  12.268   5.222
19139SOL    HW259257   2.567  12.237   5.106
19140SOL     OW59258  14.367   7.485  10.791
19140SOL    HW159259  14.430   7.427  10.749
19140SOL    HW259260  14.306   7.427  10.837
19141SOL     OW59261  11.632   3.622   0.500
19141SOL    HW159262  11.635   3.539   0.549
19141SOL    HW259263  11.607   3.596   0.411
19142SOL     OW59264   8.332   8.560   9.436
19142SOL    HW159265   8.397   8.630   9.432
19142SOL    HW259266   8.248   8.605   9.445
19143SOL     OW59267   8.422  12.983   4.277
19143SOL    HW159268   8.512  13.010   4.257
19143SOL    HW259269   8.396  13.037   4.351
19144SOL     OW59270   4.722   0.246   0.063
19144SOL    HW159271   4.761   0.321   0.109
19144SOL    HW259272   4.631   0.245   0.093
19145SOL     OW59273   1.671   4.375  12.852
19145SOL    HW159274   1.764   4.365  12.870
19145SOL    HW259275   1.655   4.469  12.865
19146SOL     OW59276   1.721   0.352   8.414
19146SOL    HW159277   1.663   0.413   8.459
19146SOL    HW259278   1.693   0.355   8.323
19147SOL     OW59279   6.796   2.789  13.960
19147SOL    HW159280   6.776   2.729  13.889
19147SOL    HW259281   6.723   2.778  14.021
19148SOL     OW59282   2.855  12.771  12.600
19148SOL    HW159283   2.827  12.698  12.655
19148SOL    HW259284   2.775  12.823  12.587
19149SOL     OW59285  10.357   0.254   0.497
19149SOL    HW159286  10.348   0.166   0.460
19149SOL    HW259287  10.384   0.308   0.423
19150SOL     OW59288   9.756  11.183   2.146
19150SOL    HW159289   9.733  11.234   2.224
19150SOL    HW259290   9.790  11.247   2.084
19151SOL     OW59291   0.254  14.682   7.378
19151SOL    HW159292   0.178  14.714   7.428
19151SOL    HW259293   0.279  14.756   7.323
19152SOL     OW59294   6.911   4.020   5.005
19152SOL    HW159295   6.902   4.095   5.062
19152SOL    HW259296   6.825   3.977   5.007
19153SOL     OW59297  10.153   0.068   6.978
19153SOL    HW159298  10.103  14.869   6.969
19153SOL    HW259299  10.107   0.130   6.922
19154SOL     OW59300   8.773   1.183   1.075
19154SOL    HW159301   8.773   1.269   1.032
19154SOL    HW259302   8.737   1.123   1.010
19155SOL     OW59303  10.485   7.457   8.628
19155SOL    HW159304  10.562   7.475   8.682
19155SOL    HW259305  10.428   7.406   8.684
19156SOL     OW59306   8.846   3.713   9.302
19156SOL    HW159307   8.852   3.756   9.217
19156SOL    HW259308   8.753   3.713   9.323
19157SOL     OW59309  10.519   5.743   8.062
19157SOL    HW159310  10.516   5.722   8.155
19157SOL    HW259311  10.428   5.748   8.034
19158SOL     OW59312   4.107   3.438  11.503
19158SOL    HW159313   4.038   3.423  11.439
19158SOL    HW259314   4.094   3.370  11.569
19159SOL     OW59315  10.914   9.554   8.238
19159SOL    HW159316  10.911   9.586   8.148
19159SOL    HW259317  10.823   9.558   8.268
19160SOL     OW59318  10.522  10.696   6.485
19160SOL    HW159319  10.522  10.644   6.565
19160SOL    HW259320  10.596  10.662   6.435
19161SOL     OW59321   5.844  12.485  14.380
19161SOL    HW159322   5.860  12.492  14.474
19161SOL    HW259323   5.805  12.569  14.356
19162SOL     OW59324   7.226   1.446   5.263
19162SOL    HW159325   7.132   1.453   5.282
19162SOL    HW259326   7.254   1.536   5.246
19163SOL     OW59327   3.775  11.206  12.702
19163SOL    HW159328   3.718  11.173  12.632
19163SOL    HW259329   3.851  11.242  12.656
19164SOL     OW59330   6.661   8.605   8.042
19164SOL    HW159331   6.707   8.525   8.015
19164SOL    HW259332   6.678   8.611   8.136
19165SOL     OW59333   3.821   9.995   0.546
19165SOL    HW159334   3.868   9.920   0.582
19165SOL    HW259335   3.884  10.037   0.488
19166SOL     OW59336   6.466   8.630   0.192
19166SOL    HW159337   6.467   8.667   0.103
19166SOL    HW259338   6.459   8.706   0.249
19167SOL     OW59339   9.476   5.480   6.624
19167SOL    HW159340   9.498   5.453   6.535
19167SOL    HW259341   9.399   5.429   6.647
19168SOL     OW59342   9.777  10.769  12.030
19168SOL    HW159343   9.841  10.701  12.007
19168SOL    HW259344   9.698  10.746  11.982
19169SOL     OW59345   4.276   7.118  10.360
19169SOL    HW159346   4.296   7.086  10.448
19169SOL    HW259347   4.181   7.110  10.352
19170SOL     OW59348   8.636   5.822   7.430
19170SOL    HW159349   8.682   5.763   7.371
19170SOL    HW259350   8.706   5.867   7.478
19171SOL     OW59351   1.165   3.225   9.949
19171SOL    HW159352   1.107   3.280  10.002
19171SOL    HW259353   1.109   3.152   9.921
19172SOL     OW59354   9.506  14.035   2.561
19172SOL    HW159355   9.547  14.038   2.474
19172SOL    HW259356   9.579  14.036   2.622
19173SOL     OW59357   7.734  10.440  10.291
19173SOL    HW159358   7.674  10.376  10.254
19173SOL    HW259359   7.735  10.421  10.385
19174SOL     OW59360   1.984  14.802  11.408
19174SOL    HW159361   1.915  14.867  11.398
19174SOL    HW259362   2.027  14.799  11.323
19175SOL     OW59363  10.757  11.581   7.857
19175SOL    HW159364  10.740  11.616   7.944
19175SOL    HW259365  10.850  11.559   7.858
19176SOL     OW59366   3.593   1.261   4.230
19176SOL    HW159367   3.635   1.338   4.192
19176SOL    HW259368   3.594   1.195   4.161
19177SOL     OW59369   7.145   3.557   0.352
19177SOL    HW159370   7.228   3.511   0.342
19177SOL    HW259371   7.166   3.649   0.336
19178SOL     OW59372   9.784   1.167   2.231
19178SOL    HW159373   9.842   1.111   2.281
19178SOL    HW259374   9.771   1.121   2.148
19179SOL     OW59375   2.209   3.491  11.121
19179SOL    HW159376   2.132   3.501  11.065
19179SOL    HW259377   2.264   3.427  11.075
19180SOL     OW59378   6.531  12.910   4.755
19180SOL    HW159379   6.576  12.890   4.673
19180SOL    HW259380   6.581  12.862   4.821
19181SOL     OW59381   6.484  12.244  14.273
19181SOL    HW159382   6.434  12.250  14.354
19181SOL    HW259383   6.423  12.270  14.204
19182SOL     OW59384  10.254  10.631   0.071
19182SOL    HW159385  10.168  10.622   0.030
19182SOL    HW259386  10.288  10.541   0.074
19183SOL     OW59387   3.119  14.798  10.105
19183SOL    HW159388   3.194  14.765  10.155
19183SOL    HW259389   3.047  14.798  10.167
19184SOL     OW59390  14.600   7.491   2.036
19184SOL    HW159391  14.562   7.405   2.021
19184SOL    HW259392  14.558   7.547   1.971
19185SOL     OW59393  10.584   3.955  13.014
19185SOL    HW159394  10.539   4.024  12.965
19185SOL    HW259395  10.651   4.000  13.064
19186SOL     OW59396  11.079   4.556   0.206
19186SOL    HW159397  11.040   4.491   0.263
19186SOL    HW259398  11.096   4.631   0.263
19187SOL     OW59399   4.426   2.794   8.306
19187SOL    HW159400   4.333   2.789   8.330
19187SOL    HW259401   4.430   2.751   8.220
19188SOL     OW59402   3.668   8.797  10.978
19188SOL    HW159403   3.650   8.703  10.977
19188SOL    HW259404   3.762   8.804  10.993
19189SOL     OW59405  10.216   4.489   7.529
19189SOL    HW159406  10.175   4.403   7.528
19189SOL    HW259407  10.269   4.489   7.609
19190SOL     OW59408  11.663   1.369  11.556
19190SOL    HW159409  11.684   1.278  11.576
19190SOL    HW259410  11.709   1.419  11.624
19191SOL     OW59411   3.438   0.791   9.467
19191SOL    HW159412   3.498   0.866   9.463
19191SOL    HW259413   3.358   0.822   9.425
19192SOL     OW59414   9.541   7.445   4.122
19192SOL    HW159415   9.618   7.444   4.067
19192SOL    HW259416   9.498   7.528   4.103
19193SOL     OW59417  12.119   7.097   6.241
19193SOL    HW159418  12.026   7.091   6.222
19193SOL    HW259419  12.138   7.020   6.294
19194SOL     OW59420  10.286  10.910   2.916
19194SOL    HW159421  10.211  10.953   2.875
19194SOL    HW259422  10.251  10.870   2.995
19195SOL     OW59423   8.157  13.092   3.361
19195SOL    HW159424   8.196  13.023   3.414
19195SOL    HW259425   8.063  13.077   3.367
19196SOL     OW59426   4.433  14.264   3.370
19196SOL    HW159427   4.477  14.201   3.312
19196SOL    HW259428   4.377  14.315   3.311
19197SOL     OW59429   2.876  11.081  10.434
19197SOL    HW159430   2.793  11.100  10.389
19197SOL    HW259431   2.907  11.166  10.464
19198SOL     OW59432   6.406   7.020   5.855
19198SOL    HW159433   6.430   7.044   5.766
19198SOL    HW259434   6.485   6.980   5.892
19199SOL     OW59435   4.090   0.250   6.197
19199SOL    HW159436   4.089   0.154   6.208
19199SOL    HW259437   4.150   0.264   6.124
19200SOL     OW59438   0.827   0.498   2.727
19200SOL    HW159439   0.780   0.420   2.700
19200SOL    HW259440   0.758   0.562   2.746
19201SOL     OW59441  14.477  10.237   7.581
19201SOL    HW159442  14.459  10.310   7.521
19201SOL    HW259443  14.572  10.233   7.586
19202SOL     OW59444   4.524   3.203   3.521
19202SOL    HW159445   4.444   3.238   3.561
19202SOL    HW259446   4.549   3.131   3.579
19203SOL     OW59447   2.106   3.164   9.035
19203SOL    HW159448   2.097   3.091   9.097
19203SOL    HW259449   2.030   3.156   8.977
19204SOL     OW59450   3.830   5.150   9.567
19204SOL    HW159451   3.753   5.135   9.514
19204SOL    HW259452   3.820   5.090   9.641
19205SOL     OW59453   7.889   4.167  12.588
19205SOL    HW159454   7.867   4.208  12.505
19205SOL    HW259455   7.853   4.226  12.655
19206SOL     OW59456  14.623   8.810   7.667
19206SOL    HW159457  14.609   8.789   7.574
19206SOL    HW259458  14.629   8.724   7.709
19207SOL     OW59459  11.300  11.713   7.829
19207SOL    HW159460  11.366  11.713   7.899
19207SOL    HW259461  11.328  11.781   7.769
19208SOL     OW59462  12.480  12.886  13.152
19208SOL    HW159463  12.503  12.905  13.243
19208SOL    HW259464  12.429  12.805  13.157
19209SOL     OW59465   8.478   8.418   3.415
19209SOL    HW159466   8.390   8.455   3.426
19209SOL    HW259467   8.481   8.390   3.324
19210SOL     OW59468   6.779   2.190   7.550
19210SOL    HW159469   6.763   2.184   7.644
19210SOL    HW259470   6.692   2.200   7.512
19211SOL     OW59471  14.335   9.986   9.591
19211SOL    HW159472  14.342  10.040   9.512
19211SOL    HW259473  14.420   9.996   9.634
19212SOL     OW59474   0.763   0.467   8.066
19212SOL    HW159475   0.683   0.514   8.091
19212SOL    HW259476   0.741   0.427   7.982
19213SOL     OW59477  14.563   4.611   9.948
19213SOL    HW159478  14.498   4.566   9.893
19213SOL    HW259479  14.514   4.640  10.025
19214SOL     OW59480   5.791  12.908   2.516
19214SOL    HW159481   5.792  12.821   2.556
19214SOL    HW259482   5.737  12.960   2.575
19215SOL     OW59483  11.599  14.329   0.114
19215SOL    HW159484  11.514  14.332   0.069
19215SOL    HW259485  11.590  14.391   0.186
19216SOL     OW59486  12.376   6.028   7.294
19216SOL    HW159487  12.463   6.030   7.255
19216SOL    HW259488  12.373   6.104   7.352
19217SOL     OW59489  11.226  11.543  10.885
19217SOL    HW159490  11.211  11.451  10.864
19217SOL    HW259491  11.166  11.591  10.829
19218SOL     OW59492   5.712  14.721   6.309
19218SOL    HW159493   5.727  14.768   6.391
19218SOL    HW259494   5.694  14.790   6.245
19219SOL     OW59495  12.270  14.478   4.533
19219SOL    HW159496  12.335  14.504   4.597
19219SOL    HW259497  12.189  14.521   4.562
19220SOL     OW59498   5.987   4.470  11.184
19220SOL    HW159499   5.920   4.403  11.171
19220SOL    HW259500   5.956   4.523  11.257
19221SOL     OW59501   0.489   6.438  14.476
19221SOL    HW159502   0.504   6.460  14.567
19221SOL    HW259503   0.395   6.421  14.470
19222SOL     OW59504   0.565  13.945   6.738
19222SOL    HW159505   0.655  13.966   6.761
19222SOL    HW259506   0.513  14.015   6.777
19223SOL     OW59507  12.621  12.575   7.444
19223SOL    HW159508  12.649  12.490   7.411
19223SOL    HW259509  12.627  12.568   7.539
19224SOL     OW59510   0.215   3.255   9.751
19224SOL    HW159511   0.297   3.294   9.779
19224SOL    HW259512   0.229   3.161   9.756
19225SOL     OW59513   0.515  12.481  10.509
19225SOL    HW159514   0.592  12.534  10.488
19225SOL    HW259515   0.530  12.452  10.599
19226SOL     OW59516   2.674   7.058   3.188
19226SOL    HW159517   2.662   7.151   3.167
19226SOL    HW259518   2.699   7.057   3.281
19227SOL     OW59519   9.798   8.087   4.898
19227SOL    HW159520   9.743   8.162   4.876
19227SOL    HW259521   9.887   8.121   4.897
19228SOL     OW59522   0.020   0.779   2.931
19228SOL    HW159523   0.105   0.736   2.938
19228SOL    HW259524   0.040   0.865   2.893
19229SOL     OW59525   4.967   4.314   9.263
19229SOL    HW159526   4.915   4.241   9.228
19229SOL    HW259527   4.918   4.392   9.237
19230SOL     OW59528   9.610   4.707   2.209
19230SOL    HW159529   9.543   4.753   2.159
19230SOL    HW259530   9.562   4.654   2.272
19231SOL     OW59531   7.223  11.942   3.133
19231SOL    HW159532   7.177  11.998   3.071
19231SOL    HW259533   7.309  11.984   3.145
19232SOL     OW59534   4.018  11.242  11.792
19232SOL    HW159535   3.955  11.249  11.863
19232SOL    HW259536   4.033  11.332  11.764
19233SOL     OW59537   3.559  13.111  12.315
19233SOL    HW159538   3.650  13.081  12.307
19233SOL    HW259539   3.543  13.157  12.233
19234SOL     OW59540  13.704  13.978   1.346
19234SOL    HW159541  13.666  13.941   1.266
19234SOL    HW259542  13.641  14.046   1.372
19235SOL     OW59543   5.497   8.610   3.199
19235SOL    HW159544   5.553   8.542   3.235
19235SOL    HW259545   5.554   8.686   3.189
19236SOL     OW59546   6.668  14.357   1.788
19236SOL    HW159547   6.602  14.419   1.755
19236SOL    HW259548   6.621  14.274   1.797
19237SOL     OW59549  11.343   5.594   3.344
19237SOL    HW159550  11.336   5.514   3.396
19237SOL    HW259551  11.310   5.663   3.401
19238SOL     OW59552   3.480   9.654  14.436
19238SOL    HW159553   3.445   9.651  14.347
19238SOL    HW259554   3.423   9.715  14.482
19239SOL     OW59555  13.606   7.977   8.036
19239SOL    HW159556  13.638   8.056   8.079
19239SOL    HW259557  13.542   7.940   8.097
19240SOL     OW59558   6.095  13.191  13.673
19240SOL    HW159559   6.102  13.105  13.631
19240SOL    HW259560   6.024  13.181  13.737
19241SOL     OW59561  10.583   3.164  14.761
19241SOL    HW159562  10.581   3.240  14.703
19241SOL    HW259563  10.588   3.089  14.701
19242SOL     OW59564  12.709  10.840   5.783
19242SOL    HW159565  12.796  10.814   5.753
19242SOL    HW259566  12.650  10.800   5.720
19243SOL     OW59567   0.270   2.056  13.336
19243SOL    HW159568   0.342   1.995  13.344
19243SOL    HW259569   0.302   2.124  13.277
19244SOL     OW59570   2.837   4.297  11.191
19244SOL    HW159571   2.860   4.390  11.194
19244SOL    HW259572   2.861   4.270  11.102
19245SOL     OW59573  12.280   4.384   1.628
19245SOL    HW159574  12.315   4.473   1.635
19245SOL    HW259575  12.311   4.340   1.708
19246SOL     OW59576   3.295   9.605  11.011
19246SOL    HW159577   3.341   9.575  11.089
19246SOL    HW259578   3.298   9.701  11.016
19247SOL     OW59579   7.100   2.904   4.665
19247SOL    HW159580   7.023   2.876   4.714
19247SOL    HW259581   7.076   2.891   4.573
19248SOL     OW59582   9.169   5.437   5.464
19248SOL    HW159583   9.143   5.422   5.373
19248SOL    HW259584   9.088   5.461   5.509
19249SOL     OW59585   7.344  10.810   2.328
19249SOL    HW159586   7.307  10.875   2.269
19249SOL    HW259587   7.364  10.735   2.272
19250SOL     OW59588  10.202   1.363   6.967
19250SOL    HW159589  10.256   1.355   7.046
19250SOL    HW259590  10.265   1.385   6.898
19251SOL     OW59591  13.074   2.730   6.338
19251SOL    HW159592  13.017   2.805   6.327
19251SOL    HW259593  13.106   2.736   6.428
19252SOL     OW59594  11.468   6.044   6.672
19252SOL    HW159595  11.538   6.004   6.724
19252SOL    HW259596  11.456   5.984   6.599
19253SOL     OW59597  12.826   8.343   0.455
19253SOL    HW159598  12.842   8.410   0.522
19253SOL    HW259599  12.907   8.341   0.404
19254SOL     OW59600   0.258  14.314   0.810
19254SOL    HW159601   0.330  14.251   0.817
19254SOL    HW259602   0.193  14.270   0.754
19255SOL     OW59603   4.994  14.777  14.124
19255SOL    HW159604   5.048  14.788  14.046
19255SOL    HW259605   4.952  14.863  14.136
19256SOL     OW59606  13.851   5.852  14.141
19256SOL    HW159607  13.817   5.770  14.104
19256SOL    HW259608  13.774   5.907  14.152
19257SOL     OW59609   1.621   2.563   8.939
19257SOL    HW159610   1.618   2.649   8.898
19257SOL    HW259611   1.536   2.554   8.981
19258SOL     OW59612   8.380   9.036   5.956
19258SOL    HW159613   8.285   9.045   5.961
19258SOL    HW259614   8.407   9.008   6.044
19259SOL     OW59615  14.735   0.911   0.678
19259SOL    HW159616  14.683   0.962   0.739
19259SOL    HW259617  14.677   0.895   0.604
19260SOL     OW59618  12.411   6.681   4.729
19260SOL    HW159619  12.404   6.643   4.641
19260SOL    HW259620  12.400   6.607   4.788
19261SOL     OW59621  11.552  13.663   0.754
19261SOL    HW159622  11.542  13.641   0.847
19261SOL    HW259623  11.523  13.754   0.747
19262SOL     OW59624   0.469  11.728  14.694
19262SOL    HW159625   0.535  11.706  14.629
19262SOL    HW259626   0.426  11.806  14.659
19263SOL     OW59627  14.401  14.546  13.556
19263SOL    HW159628  14.327  14.491  13.580
19263SOL    HW259629  14.379  14.579  13.470
19264SOL     OW59630   7.399   6.187  10.612
19264SOL    HW159631   7.465   6.207  10.679
19264SOL    HW259632   7.429   6.105  10.572
19265SOL     OW59633   7.832  10.648  12.880
19265SOL    HW159634   7.870  10.611  12.960
19265SOL    HW259635   7.904  10.649  12.817
19266SOL     OW59636   9.655  14.342   5.259
19266SOL    HW159637   9.633  14.317   5.349
19266SOL    HW259638   9.680  14.260   5.217
19267SOL     OW59639   2.860   2.331  12.692
19267SOL    HW159640   2.863   2.423  12.665
19267SOL    HW259641   2.769   2.306  12.682
19268SOL     OW59642  14.024   2.580   4.546
19268SOL    HW159643  14.069   2.514   4.598
19268SOL    HW259644  14.055   2.664   4.581
19269SOL     OW59645  11.291   3.522   6.665
19269SOL    HW159646  11.276   3.617   6.662
19269SOL    HW259647  11.208   3.483   6.638
19270SOL     OW59648   8.327  14.289   7.035
19270SOL    HW159649   8.309  14.352   7.105
19270SOL    HW259650   8.328  14.341   6.955
19271SOL     OW59651  14.414   9.389  12.540
19271SOL    HW159652  14.376   9.464  12.586
19271SOL    HW259653  14.339   9.344  12.502
19272SOL     OW59654   2.834  12.968   7.807
19272SOL    HW159655   2.894  12.981   7.880
19272SOL    HW259656   2.792  12.884   7.825
19273SOL     OW59657   0.036   5.560   2.321
19273SOL    HW159658  14.846   5.593   2.267
19273SOL    HW259659   0.081   5.496   2.265
19274SOL     OW59660   3.018  13.788   6.181
19274SOL    HW159661   2.927  13.808   6.159
19274SOL    HW259662   3.030  13.697   6.152
19275SOL     OW59663   6.404  10.149   6.455
19275SOL    HW159664   6.313  10.166   6.482
19275SOL    HW259665   6.433  10.231   6.416
19276SOL     OW59666  10.508   4.252   3.406
19276SOL    HW159667  10.437   4.237   3.344
19276SOL    HW259668  10.579   4.195   3.376
19277SOL     OW59669  10.686  11.280   7.808
19277SOL    HW159670  10.674  11.269   7.903
19277SOL    HW259671  10.645  11.365   7.789
19278SOL     OW59672   8.401  13.643  11.573
19278SOL    HW159673   8.340  13.672  11.641
19278SOL    HW259674   8.456  13.578  11.616
19279SOL     OW59675   5.802  13.072   4.806
19279SOL    HW159676   5.835  13.026   4.884
19279SOL    HW259677   5.708  13.083   4.823
19280SOL     OW59678   9.938   0.739  11.008
19280SOL    HW159679   9.998   0.684  11.058
19280SOL    HW259680   9.857   0.689  11.003
19281SOL     OW59681  10.193   2.489  12.488
19281SOL    HW159682  10.285   2.482  12.464
19281SOL    HW259683  10.145   2.460  12.410
19282SOL     OW59684   0.591  14.066   8.636
19282SOL    HW159685   0.523  14.005   8.666
19282SOL    HW259686   0.646  14.015   8.578
19283SOL     OW59687   5.424  10.916  11.523
19283SOL    HW159688   5.421  10.824  11.551
19283SOL    HW259689   5.333  10.944  11.524
19284SOL     OW59690   4.265   4.374  14.389
19284SOL    HW159691   4.330   4.409  14.450
19284SOL    HW259692   4.300   4.289  14.363
19285SOL     OW59693   5.608   6.972  14.453
19285SOL    HW159694   5.630   6.989  14.545
19285SOL    HW259695   5.692   6.950  14.412
19286SOL     OW59696  12.226   4.686   8.263
19286SOL    HW159697  12.211   4.593   8.247
19286SOL    HW259698  12.160   4.710   8.328
19287SOL     OW59699  13.145   3.778  14.730
19287SOL    HW159700  13.054   3.807  14.737
19287SOL    HW259701  13.151   3.703  14.789
19288SOL     OW59702   6.126  14.565   5.081
19288SOL    HW159703   6.212  14.589   5.046
19288SOL    HW259704   6.135  14.474   5.108
19289SOL     OW59705   1.979   8.921  12.968
19289SOL    HW159706   1.953   8.842  13.016
19289SOL    HW259707   2.036   8.968  13.030
19290SOL     OW59708  13.645  14.599  12.058
19290SOL    HW159709  13.558  14.595  12.019
19290SOL    HW259710  13.704  14.572  11.988
19291SOL     OW59711   6.823   2.394   8.663
19291SOL    HW159712   6.838   2.358   8.750
19291SOL    HW259713   6.731   2.422   8.665
19292SOL     OW59714   1.673   2.670   7.813
19292SOL    HW159715   1.608   2.735   7.841
19292SOL    HW259716   1.678   2.609   7.887
19293SOL     OW59717   9.053   3.277   9.443
19293SOL    HW159718   8.987   3.236   9.499
19293SOL    HW259719   9.002   3.330   9.381
19294SOL     OW59720   6.117   4.905   7.043
19294SOL    HW159721   6.049   4.874   7.103
19294SOL    HW259722   6.169   4.965   7.096
19295SOL     OW59723   8.735  13.468   0.270
19295SOL    HW159724   8.825  13.456   0.301
19295SOL    HW259725   8.709  13.382   0.236
19296SOL     OW59726   6.155   3.329  10.436
19296SOL    HW159727   6.190   3.266  10.373
19296SOL    HW259728   6.217   3.402  10.434
19297SOL     OW59729  10.657   7.680   4.312
19297SOL    HW159730  10.645   7.592   4.276
19297SOL    HW259731  10.613   7.738   4.250
19298SOL     OW59732   0.194   7.902  10.527
19298SOL    HW159733   0.123   7.949  10.482
19298SOL    HW259734   0.199   7.944  10.613
19299SOL     OW59735  14.718   9.727   5.580
19299SOL    HW159736  14.738   9.762   5.667
19299SOL    HW259737  14.672   9.645   5.598
19300SOL     OW59738   0.335  14.278   4.714
19300SOL    HW159739   0.270  14.208   4.718
19300SOL    HW259740   0.419  14.233   4.715
19301SOL     OW59741  11.074  11.959  13.660
19301SOL    HW159742  11.016  12.035  13.668
19301SOL    HW259743  11.151  11.982  13.713
19302SOL     OW59744   3.249   7.660  12.745
19302SOL    HW159745   3.338   7.663  12.781
19302SOL    HW259746   3.250   7.587  12.684
19303SOL     OW59747   7.031  14.631   8.792
19303SOL    HW159748   6.957  14.598   8.843
19303SOL    HW259749   7.076  14.691   8.850
19304SOL     OW59750   3.655   0.720   1.826
19304SOL    HW159751   3.564   0.711   1.856
19304SOL    HW259752   3.687   0.799   1.869
19305SOL     OW59753   3.719   4.882   3.579
19305SOL    HW159754   3.796   4.939   3.579
19305SOL    HW259755   3.648   4.937   3.547
19306SOL     OW59756  14.627   5.105   9.971
19306SOL    HW159757  14.718   5.134   9.975
19306SOL    HW259758  14.593   5.145   9.891
19307SOL     OW59759  12.553  14.410  13.777
19307SOL    HW159760  12.560  14.441  13.867
19307SOL    HW259761  12.479  14.458  13.741
19308SOL     OW59762  11.266   4.762   5.582
19308SOL    HW159763  11.283   4.705   5.508
19308SOL    HW259764  11.353   4.784   5.616
19309SOL     OW59765   7.213   4.540   6.957
19309SOL    HW159766   7.246   4.600   7.023
19309SOL    HW259767   7.250   4.455   6.980
19310SOL     OW59768   2.724   4.585   6.961
19310SOL    HW159769   2.646   4.583   7.017
19310SOL    HW259770   2.749   4.677   6.958
19311SOL     OW59771  12.780   5.251   7.706
19311SOL    HW159772  12.784   5.166   7.662
19311SOL    HW259773  12.863   5.259   7.752
19312SOL     OW59774   0.846   6.410   2.346
19312SOL    HW159775   0.863   6.329   2.298
19312SOL    HW259776   0.864   6.480   2.282
19313SOL     OW59777   2.066   8.467  14.232
19313SOL    HW159778   2.059   8.553  14.274
19313SOL    HW259779   2.026   8.480  14.146
19314SOL     OW59780   6.359   8.813   1.052
19314SOL    HW159781   6.273   8.785   1.019
19314SOL    HW259782   6.381   8.891   1.001
19315SOL     OW59783   5.639   4.954  14.377
19315SOL    HW159784   5.675   5.034  14.339
19315SOL    HW259785   5.598   4.908  14.304
19316SOL     OW59786   8.477  11.909  10.104
19316SOL    HW159787   8.427  11.976  10.150
19316SOL    HW259788   8.467  11.830  10.156
19317SOL     OW59789   6.194   0.407  12.302
19317SOL    HW159790   6.276   0.366  12.272
19317SOL    HW259791   6.162   0.350  12.371
19318SOL     OW59792   9.519   2.955   5.033
19318SOL    HW159793   9.525   2.963   5.128
19318SOL    HW259794   9.495   3.042   5.002
19319SOL     OW59795   8.368   8.105   7.905
19319SOL    HW159796   8.437   8.115   7.971
19319SOL    HW259797   8.396   8.162   7.833
19320SOL     OW59798  12.003  11.734  11.824
19320SOL    HW159799  12.005  11.780  11.740
19320SOL    HW259800  11.924  11.680  11.819
19321SOL     OW59801   3.497   1.296  13.064
19321SOL    HW159802   3.497   1.203  13.038
19321SOL    HW259803   3.516   1.343  12.983
19322SOL     OW59804   3.801   8.187   5.149
19322SOL    HW159805   3.707   8.200   5.163
19322SOL    HW259806   3.842   8.267   5.183
19323SOL     OW59807   6.459  11.539  14.743
19323SOL    HW159808   6.548  11.549  14.709
19323SOL    HW259809   6.459  11.593  14.823
19324SOL     OW59810   6.876   6.453   3.656
19324SOL    HW159811   6.900   6.388   3.590
19324SOL    HW259812   6.933   6.433   3.731
19325SOL     OW59813  12.015   6.584   9.111
19325SOL    HW159814  12.085   6.528   9.143
19325SOL    HW259815  12.059   6.647   9.054
19326SOL     OW59816   7.788   9.899   9.869
19326SOL    HW159817   7.724   9.891   9.939
19326SOL    HW259818   7.736   9.922   9.792
19327SOL     OW59819  11.102   6.969   0.090
19327SOL    HW159820  11.040   6.896   0.084
19327SOL    HW259821  11.172   6.945   0.029
19328SOL     OW59822   4.539   3.903  13.425
19328SOL    HW159823   4.529   3.855  13.508
19328SOL    HW259824   4.558   3.993  13.451
19329SOL     OW59825  13.975   8.973   3.547
19329SOL    HW159826  14.044   8.936   3.492
19329SOL    HW259827  13.904   8.909   3.544
19330SOL     OW59828   7.445   5.359   1.483
19330SOL    HW159829   7.438   5.394   1.572
19330SOL    HW259830   7.462   5.266   1.496
19331SOL     OW59831  10.020   7.632   4.966
19331SOL    HW159832   9.987   7.647   4.878
19331SOL    HW259833  10.101   7.583   4.954
19332SOL     OW59834  12.253  10.376   7.812
19332SOL    HW159835  12.290  10.294   7.779
19332SOL    HW259836  12.291  10.385   7.900
19333SOL     OW59837   1.528   2.189   9.936
19333SOL    HW159838   1.451   2.187   9.992
19333SOL    HW259839   1.577   2.266   9.965
19334SOL     OW59840   9.664   0.104   8.426
19334SOL    HW159841   9.622   0.190   8.427
19334SOL    HW259842   9.597   0.044   8.461
19335SOL     OW59843   3.647  10.391   3.833
19335SOL    HW159844   3.615  10.350   3.913
19335SOL    HW259845   3.718  10.449   3.862
19336SOL     OW59846   8.033   9.131  14.574
19336SOL    HW159847   8.009   9.153  14.484
19336SOL    HW259848   8.002   9.041  14.586
19337SOL     OW59849   1.412  10.137   2.042
19337SOL    HW159850   1.405  10.148   1.947
19337SOL    HW259851   1.449  10.050   2.053
19338SOL     OW59852   2.478   2.574  10.927
19338SOL    HW159853   2.539   2.609  10.863
19338SOL    HW259854   2.501   2.619  11.009
19339SOL     OW59855   5.515   6.484   7.706
19339SOL    HW159856   5.537   6.528   7.788
19339SOL    HW259857   5.594   6.491   7.652
19340SOL     OW59858  13.960   7.668   8.522
19340SOL    HW159859  14.014   7.620   8.584
19340SOL    HW259860  13.994   7.757   8.524
19341SOL     OW59861   9.275   3.141   9.294
19341SOL    HW159862   9.334   3.214   9.314
19341SOL    HW259863   9.191   3.167   9.332
19342SOL     OW59864   1.121  14.183  10.191
19342SOL    HW159865   1.150  14.153  10.104
19342SOL    HW259866   1.145  14.275  10.194
19343SOL     OW59867   9.032  13.044   8.138
19343SOL    HW159868   9.048  12.976   8.073
19343SOL    HW259869   9.095  13.026   8.208
19344SOL     OW59870   5.426   4.695   2.216
19344SOL    HW159871   5.419   4.734   2.128
19344SOL    HW259872   5.415   4.769   2.276
19345SOL     OW59873  10.936   3.680   0.588
19345SOL    HW159874  10.842   3.673   0.569
19345SOL    HW259875  10.961   3.593   0.620
19346SOL     OW59876   4.120   6.153   3.923
19346SOL    HW159877   4.105   6.132   4.015
19346SOL    HW259878   4.143   6.069   3.883
19347SOL     OW59879  13.867   7.719   3.294
19347SOL    HW159880  13.829   7.679   3.217
19347SOL    HW259881  13.797   7.774   3.330
19348SOL     OW59882   4.441  13.839   0.960
19348SOL    HW159883   4.366  13.781   0.974
19348SOL    HW259884   4.451  13.842   0.864
19349SOL     OW59885   3.665   0.644  14.554
19349SOL    HW159886   3.636   0.575  14.614
19349SOL    HW259887   3.757   0.624  14.537
19350SOL     OW59888  13.715   4.911  14.068
19350SOL    HW159889  13.744   4.943  14.153
19350SOL    HW259890  13.645   4.972  14.042
19351SOL     OW59891   3.297  11.348  12.615
19351SOL    HW159892   3.355  11.360  12.540
19351SOL    HW259893   3.355  11.325  12.687
19352SOL     OW59894   8.172   3.932   6.573
19352SOL    HW159895   8.111   3.897   6.637
19352SOL    HW259896   8.199   3.855   6.522
19353SOL     OW59897   8.136  11.732   8.712
19353SOL    HW159898   8.187  11.737   8.793
19353SOL    HW259899   8.080  11.809   8.714
19354SOL     OW59900   6.041   8.439   1.293
19354SOL    HW159901   6.100   8.498   1.339
19354SOL    HW259902   6.015   8.375   1.359
19355SOL     OW59903  14.866   5.920   8.618
19355SOL    HW159904  14.785   5.969   8.610
19355SOL    HW259905  14.854   5.864   8.695
19356SOL     OW59906   5.514  12.664  10.703
19356SOL    HW159907   5.451  12.671  10.631
19356SOL    HW259908   5.516  12.571  10.726
19357SOL     OW59909   2.025   9.449   0.724
19357SOL    HW159910   1.935   9.484   0.722
19357SOL    HW259911   2.049   9.437   0.632
19358SOL     OW59912   9.434   3.839  12.960
19358SOL    HW159913   9.497   3.886  12.906
19358SOL    HW259914   9.425   3.893  13.039
19359SOL     OW59915   3.423  10.259   7.099
19359SOL    HW159916   3.516  10.242   7.082
19359SOL    HW259917   3.406  10.218   7.184
19360SOL     OW59918  13.946  14.073  11.313
19360SOL    HW159919  13.858  14.109  11.304
19360SOL    HW259920  13.940  14.011  11.385
19361SOL     OW59921  12.126   1.574   4.272
19361SOL    HW159922  12.044   1.533   4.244
19361SOL    HW259923  12.115   1.587   4.366
19362SOL     OW59924   3.611   7.637  12.521
19362SOL    HW159925   3.700   7.654  12.489
19362SOL    HW259926   3.595   7.706  12.585
19363SOL     OW59927   4.228  10.835   5.556
19363SOL    HW159928   4.181  10.758   5.525
19363SOL    HW259929   4.176  10.866   5.630
19364SOL     OW59930  13.158  10.297   1.107
19364SOL    HW159931  13.224  10.239   1.069
19364SOL    HW259932  13.162  10.376   1.054
19365SOL     OW59933  14.218   4.960   2.283
19365SOL    HW159934  14.283   4.991   2.219
19365SOL    HW259935  14.270   4.926   2.356
19366SOL     OW59936   4.434   3.661  11.230
19366SOL    HW159937   4.491   3.633  11.301
19366SOL    HW259938   4.480   3.635  11.150
19367SOL     OW59939   3.472   4.428  13.632
19367SOL    HW159940   3.469   4.511  13.679
19367SOL    HW259941   3.458   4.361  13.700
19368SOL     OW59942  13.802   5.323   4.409
19368SOL    HW159943  13.808   5.375   4.489
19368SOL    HW259944  13.876   5.262   4.414
19369SOL     OW59945   9.596  12.384  14.547
19369SOL    HW159946   9.675  12.439  14.543
19369SOL    HW259947   9.546  12.409  14.469
19370SOL     OW59948   9.317   2.210   3.332
19370SOL    HW159949   9.340   2.218   3.425
19370SOL    HW259950   9.278   2.123   3.325
19371SOL     OW59951  14.606  14.610  14.581
19371SOL    HW159952  14.678  14.650  14.532
19371SOL    HW259953  14.646  14.579  14.662
19372SOL     OW59954  12.274  14.104  10.147
19372SOL    HW159955  12.324  14.071  10.222
19372SOL    HW259956  12.309  14.192  10.132
19373SOL     OW59957   5.682  14.015  10.633
19373SOL    HW159958   5.717  14.104  10.623
19373SOL    HW259959   5.605  14.026  10.688
19374SOL     OW59960   0.061  13.953   0.300
19374SOL    HW159961   0.145  13.912   0.280
19374SOL    HW259962   0.039  13.920   0.387
19375SOL     OW59963   9.557  11.170  10.151
19375SOL    HW159964   9.486  11.231  10.135
19375SOL    HW259965   9.626  11.195  10.090
19376SOL     OW59966   5.520   2.559   5.547
19376SOL    HW159967   5.430   2.551   5.514
19376SOL    HW259968   5.512   2.546   5.641
19377SOL     OW59969  12.208   3.794  10.661
19377SOL    HW159970  12.156   3.739  10.602
19377SOL    HW259971  12.294   3.799  10.619
19378SOL     OW59972   4.331   2.546  14.798
19378SOL    HW159973   4.330   2.462  14.754
19378SOL    HW259974   4.314   2.526   0.008
19379SOL     OW59975  13.264  14.693   7.226
19379SOL    HW159976  13.265  14.759   7.295
19379SOL    HW259977  13.336  14.718   7.167
19380SOL     OW59978   1.921   5.828   1.276
19380SOL    HW159979   1.932   5.786   1.361
19380SOL    HW259980   1.847   5.782   1.236
19381SOL     OW59981   0.095   0.866   5.292
19381SOL    HW159982   0.062   0.892   5.378
19381SOL    HW259983   0.170   0.924   5.277
19382SOL     OW59984   7.133   8.522  12.772
19382SOL    HW159985   7.061   8.459  12.775
19382SOL    HW259986   7.097   8.602  12.811
19383SOL     OW59987   6.606  11.288  10.219
19383SOL    HW159988   6.523  11.249  10.195
19383SOL    HW259989   6.659  11.215  10.252
19384SOL     OW59990  11.952  13.884  13.873
19384SOL    HW159991  11.936  13.924  13.788
19384SOL    HW259992  11.994  13.952  13.925
19385SOL     OW59993   1.227   1.273  13.237
19385SOL    HW159994   1.153   1.334  13.238
19385SOL    HW259995   1.271   1.289  13.320
19386SOL     OW59996   1.778  12.475   7.056
19386SOL    HW159997   1.711  12.533   7.019
19386SOL    HW259998   1.730  12.417   7.115
19387SOL     OW59999   8.080   4.014   4.884
19387SOL    HW160000   7.988   4.040   4.880
19387SOL    HW260001   8.112   4.024   4.795
19388SOL     OW60002  12.311  14.356  13.226
19388SOL    HW160003  12.404  14.371  13.214
19388SOL    HW260004  12.300  14.262  13.218
19389SOL     OW60005  14.718  12.454  14.707
19389SOL    HW160006  14.782  12.512  14.667
19389SOL    HW260007  14.641  12.461  14.652
19390SOL     OW60008  13.545   8.682   0.835
19390SOL    HW160009  13.630   8.670   0.877
19390SOL    HW260010  13.517   8.770   0.860
19391SOL     OW60011   9.849  13.240   0.187
19391SOL    HW160012   9.919  13.236   0.253
19391SOL    HW260013   9.851  13.154   0.145
19392SOL     OW60014   6.666   8.087   5.205
19392SOL    HW160015   6.628   8.000   5.203
19392SOL    HW260016   6.599   8.142   5.247
19393SOL     OW60017   7.656   3.144   7.325
19393SOL    HW160018   7.691   3.138   7.414
19393SOL    HW260019   7.698   3.222   7.288
19394SOL     OW60020  14.394   8.469  14.421
19394SOL    HW160021  14.399   8.377  14.394
19394SOL    HW260022  14.451   8.515  14.359
19395SOL     OW60023   4.215  13.507  11.408
19395SOL    HW160024   4.194  13.571  11.476
19395SOL    HW260025   4.139  13.449  11.404
19396SOL     OW60026   3.603   5.831   2.135
19396SOL    HW160027   3.560   5.910   2.102
19396SOL    HW260028   3.665   5.863   2.201
19397SOL     OW60029   5.435   7.695   5.089
19397SOL    HW160030   5.411   7.673   5.179
19397SOL    HW260031   5.509   7.756   5.098
19398SOL     OW60032   0.368   9.368   9.271
19398SOL    HW160033   0.352   9.429   9.199
19398SOL    HW260034   0.355   9.421   9.350
19399SOL     OW60035   6.987  11.832  13.548
19399SOL    HW160036   7.006  11.798  13.635
19399SOL    HW260037   6.906  11.786  13.522
19400SOL     OW60038  13.001  11.303   6.994
19400SOL    HW160039  12.975  11.231   7.052
19400SOL    HW260040  13.094  11.316   7.013
19401SOL     OW60041   2.200   8.097   5.040
19401SOL    HW160042   2.203   8.011   4.997
19401SOL    HW260043   2.292   8.118   5.058
19402SOL     OW60044   4.111  14.483   9.869
19402SOL    HW160045   4.144  14.540   9.799
19402SOL    HW260046   4.146  14.396   9.847
19403SOL     OW60047   3.786  14.702  11.059
19403SOL    HW160048   3.728  14.635  11.096
19403SOL    HW260049   3.817  14.665  10.977
19404SOL     OW60050   8.719  12.695   1.210
19404SOL    HW160051   8.627  12.719   1.206
19404SOL    HW260052   8.755  12.748   1.281
19405SOL     OW60053   6.242   7.220  10.813
19405SOL    HW160054   6.237   7.239  10.907
19405SOL    HW260055   6.153   7.236  10.781
19406SOL     OW60056   0.887   7.433   8.219
19406SOL    HW160057   0.953   7.416   8.152
19406SOL    HW260058   0.931   7.489   8.283
19407SOL     OW60059  12.268  14.428   4.270
19407SOL    HW160060  12.309  14.510   4.241
19407SOL    HW260061  12.255  14.440   4.364
19408SOL     OW60062   9.369  12.004   3.848
19408SOL    HW160063   9.322  12.082   3.877
19408SOL    HW260064   9.311  11.965   3.782
19409SOL     OW60065   9.537   0.514   3.287
19409SOL    HW160066   9.568   0.455   3.218
19409SOL    HW260067   9.600   0.503   3.358
19410SOL     OW60068   7.439  14.186   8.638
19410SOL    HW160069   7.407  14.097   8.654
19410SOL    HW260070   7.450  14.224   8.725
19411SOL     OW60071   5.113   0.741   5.386
19411SOL    HW160072   5.163   0.663   5.413
19411SOL    HW260073   5.029   0.732   5.431
19412SOL     OW60074   7.696   4.767   1.246
19412SOL    HW160075   7.755   4.823   1.195
19412SOL    HW260076   7.608   4.795   1.220
19413SOL     OW60077  11.353   1.033  11.203
19413SOL    HW160078  11.304   0.965  11.250
19413SOL    HW260079  11.322   1.027  11.113
19414SOL     OW60080   0.524   8.476   9.298
19414SOL    HW160081   0.540   8.391   9.256
19414SOL    HW260082   0.564   8.540   9.239
19415SOL     OW60083  12.368   7.629   3.076
19415SOL    HW160084  12.362   7.578   3.157
19415SOL    HW260085  12.462   7.638   3.060
19416SOL     OW60086   3.251   7.960  12.689
19416SOL    HW160087   3.259   7.996  12.778
19416SOL    HW260088   3.264   7.866  12.701
19417SOL     OW60089  10.468  11.968  13.951
19417SOL    HW160090  10.438  12.051  13.988
19417SOL    HW260091  10.490  11.989  13.860
19418SOL     OW60092  11.671  13.083  11.437
19418SOL    HW160093  11.729  13.082  11.513
19418SOL    HW260094  11.707  13.016  11.378
19419SOL     OW60095   8.653   8.189  14.311
19419SOL    HW160096   8.610   8.113  14.349
19419SOL    HW260097   8.620   8.194  14.222
19420SOL     OW60098  14.550  14.606   3.871
19420SOL    HW160099  14.497  14.572   3.798
19420SOL    HW260100  14.580  14.528   3.917
19421SOL     OW60101  10.393   8.919   2.161
19421SOL    HW160102  10.387   8.844   2.221
19421SOL    HW260103  10.474   8.904   2.112
19422SOL     OW60104   2.066   3.219   3.876
19422SOL    HW160105   2.083   3.271   3.954
19422SOL    HW260106   1.980   3.179   3.892
19423SOL     OW60107   3.824   1.800   3.648
19423SOL    HW160108   3.904   1.839   3.683
19423SOL    HW260109   3.819   1.714   3.690
19424SOL     OW60110  10.341   4.340  14.747
19424SOL    HW160111  10.339   4.244  14.747
19424SOL    HW260112  10.251   4.366  14.727
19425SOL     OW60113   1.586   1.107   5.708
19425SOL    HW160114   1.536   1.162   5.769
19425SOL    HW260115   1.666   1.158   5.691
19426SOL     OW60116   0.237   3.749  12.500
19426SOL    HW160117   0.201   3.795  12.576
19426SOL    HW260118   0.221   3.807  12.426
19427SOL     OW60119  12.283   5.153   4.831
19427SOL    HW160120  12.374   5.134   4.809
19427SOL    HW260121  12.268   5.103   4.912
19428SOL     OW60122  13.917  10.283   6.849
19428SOL    HW160123  13.993  10.332   6.883
19428SOL    HW260124  13.888  10.230   6.923
19429SOL     OW60125  13.611   9.970   3.872
19429SOL    HW160126  13.631   9.877   3.883
19429SOL    HW260127  13.526   9.980   3.917
19430SOL     OW60128  10.265  10.862  14.140
19430SOL    HW160129  10.320  10.881  14.216
19430SOL    HW260130  10.327  10.833  14.072
19431SOL     OW60131   3.352  12.282  11.945
19431SOL    HW160132   3.273  12.315  11.903
19431SOL    HW260133   3.326  12.199  11.984
19432SOL     OW60134   8.948  11.629   0.440
19432SOL    HW160135   8.998  11.703   0.474
19432SOL    HW260136   8.934  11.651   0.348
19433SOL     OW60137   3.629   5.637   2.807
19433SOL    HW160138   3.577   5.561   2.780
19433SOL    HW260139   3.567   5.693   2.854
19434SOL     OW60140   6.372   5.163  10.075
19434SOL    HW160141   6.463   5.136  10.059
19434SOL    HW260142   6.328   5.082  10.104
19435SOL     OW60143   2.833   3.537  12.680
19435SOL    HW160144   2.756   3.573  12.634
19435SOL    HW260145   2.830   3.443  12.661
19436SOL     OW60146   1.978  13.031   2.290
19436SOL    HW160147   1.999  13.093   2.219
19436SOL    HW260148   2.056  13.032   2.345
19437SOL     OW60149   0.881   7.943   1.708
19437SOL    HW160150   0.871   7.915   1.617
19437SOL    HW260151   0.963   7.993   1.709
19438SOL     OW60152  14.236  10.821   5.175
19438SOL    HW160153  14.186  10.900   5.156
19438SOL    HW260154  14.185  10.750   5.136
19439SOL     OW60155  14.507  13.984  12.127
19439SOL    HW160156  14.418  14.017  12.117
19439SOL    HW260157  14.517  13.919  12.057
19440SOL     OW60158  11.225   5.974  11.127
19440SOL    HW160159  11.264   6.025  11.198
19440SOL    HW260160  11.212   6.037  11.056
19441SOL     OW60161  10.757  10.007   2.965
19441SOL    HW160162  10.768  10.102   2.953
19441SOL    HW260163  10.784   9.991   3.056
19442SOL     OW60164   5.133  14.613   1.043
19442SOL    HW160165   5.068  14.547   1.020
19442SOL    HW260166   5.194  14.613   0.970
19443SOL     OW60167  12.600   4.360   0.642
19443SOL    HW160168  12.507   4.352   0.664
19443SOL    HW260169  12.630   4.434   0.695
19444SOL     OW60170   0.125   0.148   9.444
19444SOL    HW160171   0.216   0.167   9.465
19444SOL    HW260172   0.075   0.210   9.498
19445SOL     OW60173  11.119  13.395   0.966
19445SOL    HW160174  11.093  13.486   0.977
19445SOL    HW260175  11.044  13.353   0.923
19446SOL     OW60176   3.890   8.036   3.841
19446SOL    HW160177   3.932   8.067   3.921
19446SOL    HW260178   3.797   8.054   3.854
19447SOL     OW60179   0.346  14.356   3.338
19447SOL    HW160180   0.417  14.404   3.381
19447SOL    HW260181   0.266  14.389   3.378
19448SOL     OW60182   2.681   4.858   0.240
19448SOL    HW160183   2.631   4.797   0.186
19448SOL    HW260184   2.755   4.884   0.185
19449SOL     OW60185   9.489   1.654   5.961
19449SOL    HW160186   9.469   1.683   5.872
19449SOL    HW260187   9.578   1.685   5.977
19450SOL     OW60188   7.997   9.871   9.682
19450SOL    HW160189   7.956   9.876   9.768
19450SOL    HW260190   7.931   9.828   9.626
19451SOL     OW60191   2.090   5.461   0.393
19451SOL    HW160192   2.055   5.404   0.324
19451SOL    HW260193   2.065   5.550   0.366
19452SOL     OW60194   4.347  12.306  13.324
19452SOL    HW160195   4.417  12.320  13.389
19452SOL    HW260196   4.370  12.222  13.284
19453SOL     OW60197  10.985  10.357   1.938
19453SOL    HW160198  10.939  10.439   1.919
19453SOL    HW260199  10.958  10.297   1.869
19454SOL     OW60200  10.764   3.263  14.013
19454SOL    HW160201  10.788   3.248  14.104
19454SOL    HW260202  10.697   3.196  13.995
19455SOL     OW60203   1.470   8.719   5.356
19455SOL    HW160204   1.475   8.644   5.415
19455SOL    HW260205   1.379   8.721   5.327
19456SOL     OW60206   5.491   5.355   2.070
19456SOL    HW160207   5.447   5.361   2.154
19456SOL    HW260208   5.464   5.269   2.035
19457SOL     OW60209  13.564  11.485   1.371
19457SOL    HW160210  13.485  11.535   1.349
19457SOL    HW260211  13.536  11.423   1.438
19458SOL     OW60212  11.030  11.681  13.690
19458SOL    HW160213  11.057  11.764  13.650
19458SOL    HW260214  11.019  11.702  13.783
19459SOL     OW60215   6.272  13.173   6.102
19459SOL    HW160216   6.239  13.236   6.037
19459SOL    HW260217   6.365  13.162   6.080
19460SOL     OW60218  14.134   8.120  13.633
19460SOL    HW160219  14.190   8.187  13.594
19460SOL    HW260220  14.154   8.123  13.727
19461SOL     OW60221  10.299   0.593   6.525
19461SOL    HW160222  10.296   0.633   6.438
19461SOL    HW260223  10.390   0.568   6.536
19462SOL     OW60224  10.786   5.789   9.316
19462SOL    HW160225  10.853   5.779   9.248
19462SOL    HW260226  10.708   5.818   9.269
19463SOL     OW60227  10.467   9.719  14.258
19463SOL    HW160228  10.535   9.776  14.223
19463SOL    HW260229  10.406   9.779  14.302
19464SOL     OW60230   1.414  13.565   5.987
19464SOL    HW160231   1.349  13.631   5.963
19464SOL    HW260232   1.403  13.552   6.081
19465SOL     OW60233   6.239   9.440  13.338
19465SOL    HW160234   6.155   9.396  13.330
19465SOL    HW260235   6.220   9.532  13.322
19466SOL     OW60236   2.795   6.161   5.719
19466SOL    HW160237   2.760   6.172   5.807
19466SOL    HW260238   2.745   6.088   5.681
19467SOL     OW60239   6.502   2.774   5.999
19467SOL    HW160240   6.438   2.764   6.070
19467SOL    HW260241   6.528   2.866   6.003
19468SOL     OW60242   9.636  13.356  12.002
19468SOL    HW160243   9.675  13.289  12.057
19468SOL    HW260244   9.591  13.414  12.063
19469SOL     OW60245  11.730   7.516  11.143
19469SOL    HW160246  11.682   7.589  11.103
19469SOL    HW260247  11.725   7.445  11.079
19470SOL     OW60248   3.481  11.247   4.926
19470SOL    HW160249   3.533  11.328   4.935
19470SOL    HW260250   3.499  11.198   5.006
19471SOL     OW60251   3.484   0.384   2.654
19471SOL    HW160252   3.475   0.462   2.600
19471SOL    HW260253   3.567   0.345   2.627
19472SOL     OW60254   7.400   0.957   1.985
19472SOL    HW160255   7.388   0.884   1.924
19472SOL    HW260256   7.491   0.949   2.012
19473SOL     OW60257   2.237  10.244   8.492
19473SOL    HW160258   2.312  10.250   8.433
19473SOL    HW260259   2.277  10.234   8.579
19474SOL     OW60260  10.631   9.617   2.291
19474SOL    HW160261  10.595   9.564   2.362
19474SOL    HW260262  10.556   9.666   2.257
19475SOL     OW60263   6.820   0.240   1.023
19475SOL    HW160264   6.773   0.302   0.967
19475SOL    HW260265   6.912   0.259   1.009
19476SOL     OW60266  14.603  12.679   5.145
19476SOL    HW160267  14.560  12.765   5.144
19476SOL    HW260268  14.681  12.692   5.199
19477SOL     OW60269   6.927   8.862   9.793
19477SOL    HW160270   6.950   8.914   9.869
19477SOL    HW260271   6.926   8.772   9.825
19478SOL     OW60272   7.154   9.135  13.661
19478SOL    HW160273   7.073   9.186  13.651
19478SOL    HW260274   7.211   9.190  13.714
19479SOL     OW60275   5.497   5.056   4.214
19479SOL    HW160276   5.471   5.115   4.285
19479SOL    HW260277   5.416   5.013   4.187
19480SOL     OW60278   4.331   1.723   4.178
19480SOL    HW160279   4.340   1.667   4.101
19480SOL    HW260280   4.400   1.789   4.168
19481SOL     OW60281   3.789  10.195   8.045
19481SOL    HW160282   3.831  10.171   8.127
19481SOL    HW260283   3.856  10.244   7.997
19482SOL     OW60284   1.380   2.015   9.773
19482SOL    HW160285   1.432   1.940   9.743
19482SOL    HW260286   1.439   2.066   9.828
19483SOL     OW60287   0.040   1.944   7.599
19483SOL    HW160288  14.829   1.926   7.589
19483SOL    HW260289   0.084   1.867   7.561
19484SOL     OW60290  10.349   7.213   1.037
19484SOL    HW160291  10.350   7.282   1.103
19484SOL    HW260292  10.437   7.213   1.000
19485SOL     OW60293   8.787   7.217   6.200
19485SOL    HW160294   8.808   7.291   6.143
19485SOL    HW260295   8.868   7.167   6.206
19486SOL     OW60296  12.733   8.804  12.510
19486SOL    HW160297  12.782   8.807  12.592
19486SOL    HW260298  12.773   8.871  12.455
19487SOL     OW60299   2.875   4.046  13.005
19487SOL    HW160300   2.869   4.129  12.958
19487SOL    HW260301   2.860   4.069  13.097
19488SOL     OW60302   3.336   0.880   5.119
19488SOL    HW160303   3.362   0.870   5.211
19488SOL    HW260304   3.256   0.931   5.122
19489SOL     OW60305   3.296  12.302   0.662
19489SOL    HW160306   3.219  12.334   0.615
19489SOL    HW260307   3.262  12.268   0.744
19490SOL     OW60308  13.555   1.375   7.418
19490SOL    HW160309  13.611   1.305   7.383
19490SOL    HW260310  13.484   1.328   7.461
19491SOL     OW60311  10.235   9.455   4.750
19491SOL    HW160312  10.170   9.403   4.703
19491SOL    HW260313  10.316   9.444   4.700
19492SOL     OW60314   8.369   4.295  13.776
19492SOL    HW160315   8.450   4.323  13.734
19492SOL    HW260316   8.337   4.372  13.821
19493SOL     OW60317   6.533  13.179   6.112
19493SOL    HW160318   6.587  13.113   6.069
19493SOL    HW260319   6.555  13.172   6.205
19494SOL     OW60320  13.967   0.855   9.133
19494SOL    HW160321  13.958   0.811   9.217
19494SOL    HW260322  14.058   0.840   9.107
19495SOL     OW60323   0.939  11.822   8.652
19495SOL    HW160324   1.019  11.871   8.633
19495SOL    HW260325   0.881  11.886   8.693
19496SOL     OW60326  14.710  13.965   3.356
19496SOL    HW160327  14.625  13.934   3.386
19496SOL    HW260328  14.769  13.890   3.367
19497SOL     OW60329   0.259   0.337   3.029
19497SOL    HW160330   0.322   0.381   2.971
19497SOL    HW260331   0.310   0.270   3.073
19498SOL     OW60332   6.830   7.893  10.424
19498SOL    HW160333   6.877   7.819  10.386
19498SOL    HW260334   6.749   7.898  10.373
19499SOL     OW60335  13.952   6.971  11.680
19499SOL    HW160336  13.889   6.947  11.611
19499SOL    HW260337  14.020   6.904  11.675
19500SOL     OW60338   2.812   4.026   5.461
19500SOL    HW160339   2.824   4.100   5.519
19500SOL    HW260340   2.738   4.050   5.405
19501SOL     OW60341  13.959   2.985   4.413
19501SOL    HW160342  13.988   3.070   4.378
19501SOL    HW260343  13.867   2.979   4.387
19502SOL     OW60344  12.273   5.823   8.087
19502SOL    HW160345  12.310   5.798   8.002
19502SOL    HW260346  12.349   5.837   8.143
19503SOL     OW60347   2.718  10.707   6.867
19503SOL    HW160348   2.710  10.801   6.883
19503SOL    HW260349   2.642  10.668   6.910
19504SOL     OW60350  10.753   7.173   3.421
19504SOL    HW160351  10.717   7.213   3.500
19504SOL    HW260352  10.844   7.155   3.442
19505SOL     OW60353  11.469   0.222  14.314
19505SOL    HW160354  11.489   0.239  14.222
19505SOL    HW260355  11.380   0.187  14.312
19506SOL     OW60356   0.277   6.865  14.704
19506SOL    HW160357   0.301   6.930  14.637
19506SOL    HW260358   0.221   6.913  14.765
19507SOL     OW60359  12.877   6.386   7.309
19507SOL    HW160360  12.918   6.389   7.223
19507SOL    HW260361  12.877   6.293   7.333
19508SOL     OW60362   4.900   3.363   1.245
19508SOL    HW160363   4.859   3.366   1.331
19508SOL    HW260364   4.924   3.454   1.226
19509SOL     OW60365   7.646   5.780  12.828
19509SOL    HW160366   7.706   5.833  12.775
19509SOL    HW260367   7.627   5.704  12.773
19510SOL     OW60368   5.402   1.458  14.160
19510SOL    HW160369   5.466   1.511  14.208
19510SOL    HW260370   5.318   1.500  14.178
19511SOL     OW60371   6.359  11.248   5.869
19511SOL    HW160372   6.447  11.268   5.900
19511SOL    HW260373   6.364  11.254   5.774
19512SOL     OW60374  13.278   4.192  10.418
19512SOL    HW160375  13.324   4.114  10.451
19512SOL    HW260376  13.204   4.156  10.368
19513SOL     OW60377   7.136  14.596   2.230
19513SOL    HW160378   7.103  14.620   2.144
19513SOL    HW260379   7.159  14.503   2.221
19514SOL     OW60380  13.502  10.789   9.176
19514SOL    HW160381  13.574  10.808   9.115
19514SOL    HW260382  13.425  10.830   9.135
19515SOL     OW60383   4.431   3.138  12.148
19515SOL    HW160384   4.485   3.124  12.071
19515SOL    HW260385   4.383   3.219  12.130
19516SOL     OW60386   3.491  13.079  14.044
19516SOL    HW160387   3.484  13.128  14.126
19516SOL    HW260388   3.552  13.008  14.064
19517SOL     OW60389  11.740   7.440   2.197
19517SOL    HW160390  11.749   7.353   2.235
19517SOL    HW260391  11.825   7.458   2.159
19518SOL     OW60392   7.532  13.563   5.712
19518SOL    HW160393   7.542  13.499   5.782
19518SOL    HW260394   7.538  13.648   5.755
19519SOL     OW60395   9.729   0.861   8.736
19519SOL    HW160396   9.737   0.792   8.801
19519SOL    HW260397   9.819   0.892   8.724
19520SOL     OW60398  10.244   8.515   4.343
19520SOL    HW160399  10.305   8.493   4.414
19520SOL    HW260400  10.181   8.443   4.342
19521SOL     OW60401   6.563   8.374   6.634
19521SOL    HW160402   6.633   8.309   6.633
19521SOL    HW260403   6.488   8.328   6.597
19522SOL     OW60404   5.201   4.952   2.156
19522SOL    HW160405   5.175   4.881   2.097
19522SOL    HW260406   5.155   4.933   2.238
19523SOL     OW60407   9.677   5.623   3.455
19523SOL    HW160408   9.641   5.689   3.515
19523SOL    HW260409   9.645   5.648   3.369
19524SOL     OW60410  11.136   8.523   6.788
19524SOL    HW160411  11.225   8.557   6.790
19524SOL    HW260412  11.134   8.458   6.858
19525SOL     OW60413   5.327  14.079   4.808
19525SOL    HW160414   5.375  14.027   4.743
19525SOL    HW260415   5.392  14.141   4.841
19526SOL     OW60416  12.989  10.339  10.746
19526SOL    HW160417  12.965  10.269  10.684
19526SOL    HW260418  13.044  10.398  10.695
19527SOL     OW60419   3.315  11.080   4.170
19527SOL    HW160420   3.251  11.019   4.134
19527SOL    HW260421   3.280  11.167   4.146
19528SOL     OW60422  11.737   3.600   0.789
19528SOL    HW160423  11.784   3.683   0.780
19528SOL    HW260424  11.682   3.613   0.866
19529SOL     OW60425   0.615  12.488  10.141
19529SOL    HW160426   0.613  12.394  10.153
19529SOL    HW260427   0.529  12.518  10.172
19530SOL     OW60428  12.510   0.784   8.220
19530SOL    HW160429  12.600   0.813   8.236
19530SOL    HW260430  12.484   0.742   8.301
19531SOL     OW60431   3.746  12.189   0.814
19531SOL    HW160432   3.741  12.095   0.802
19531SOL    HW260433   3.812  12.202   0.882
19532SOL     OW60434   1.333   9.883  10.352
19532SOL    HW160435   1.338   9.819  10.424
19532SOL    HW260436   1.241   9.906  10.346
19533SOL     OW60437   1.699   4.257   0.440
19533SOL    HW160438   1.744   4.222   0.517
19533SOL    HW260439   1.607   4.264   0.469
19534SOL     OW60440   0.339   5.113   0.165
19534SOL    HW160441   0.332   5.018   0.160
19534SOL    HW260442   0.372   5.140   0.079
19535SOL     OW60443   3.092   1.530   0.517
19535SOL    HW160444   3.072   1.529   0.424
19535SOL    HW260445   3.186   1.510   0.522
19536SOL     OW60446  12.506   1.196   2.377
19536SOL    HW160447  12.524   1.245   2.296
19536SOL    HW260448  12.425   1.149   2.359
19537SOL     OW60449  12.631  14.758   9.302
19537SOL    HW160450  12.723  14.771   9.325
19537SOL    HW260451  12.587  14.743   9.386
19538SOL     OW60452   9.721   7.070  13.984
19538SOL    HW160453   9.768   7.084  14.066
19538SOL    HW260454   9.785   7.088  13.916
19539SOL     OW60455   1.169   3.669   0.324
19539SOL    HW160456   1.075   3.681   0.337
19539SOL    HW260457   1.196   3.746   0.274
19540SOL     OW60458  13.282  14.243   5.575
19540SOL    HW160459  13.210  14.291   5.534
19540SOL    HW260460  13.241  14.197   5.648
19541SOL     OW60461   6.549  10.381   4.461
19541SOL    HW160462   6.571  10.442   4.391
19541SOL    HW260463   6.462  10.408   4.491
19542SOL     OW60464   3.827  10.435   5.832
19542SOL    HW160465   3.825  10.512   5.889
19542SOL    HW260466   3.830  10.360   5.892
19543SOL     OW60467   9.294   7.747  10.660
19543SOL    HW160468   9.313   7.730  10.752
19543SOL    HW260469   9.320   7.667  10.615
19544SOL     OW60470  12.880   5.837   5.881
19544SOL    HW160471  12.827   5.879   5.948
19544SOL    HW260472  12.947   5.789   5.930
19545SOL     OW60473   8.693  13.577   7.129
19545SOL    HW160474   8.744  13.629   7.067
19545SOL    HW260475   8.620  13.543   7.077
19546SOL     OW60476   1.620   1.869  11.979
19546SOL    HW160477   1.547   1.810  11.999
19546SOL    HW260478   1.606   1.945  12.035
19547SOL     OW60479   2.493   1.099   9.132
19547SOL    HW160480   2.470   1.030   9.193
19547SOL    HW260481   2.569   1.065   9.084
19548SOL     OW60482   8.325   1.570   5.946
19548SOL    HW160483   8.304   1.500   5.885
19548SOL    HW260484   8.421   1.573   5.947
19549SOL     OW60485  11.936   5.519   2.004
19549SOL    HW160486  11.857   5.465   1.999
19549SOL    HW260487  11.925   5.584   1.934
19550SOL     OW60488  14.699  12.013   8.459
19550SOL    HW160489  14.748  11.932   8.465
19550SOL    HW260490  14.618  11.996   8.507
19551SOL     OW60491  14.729   4.321   4.283
19551SOL    HW160492  14.731   4.342   4.377
19551SOL    HW260493  14.687   4.396   4.242
19552SOL     OW60494  14.304   0.793   7.978
19552SOL    HW160495  14.356   0.873   7.967
19552SOL    HW260496  14.277   0.795   8.070
19553SOL     OW60497   9.655  10.628  14.456
19553SOL    HW160498   9.574  10.602  14.413
19553SOL    HW260499   9.689  10.700  14.403
19554SOL     OW60500   7.677   2.609   3.225
19554SOL    HW160501   7.622   2.687   3.229
19554SOL    HW260502   7.623   2.539   3.262
19555SOL     OW60503   5.546   7.529   1.595
19555SOL    HW160504   5.556   7.621   1.572
19555SOL    HW260505   5.632   7.491   1.581
19556SOL     OW60506   3.836   1.682  11.690
19556SOL    HW160507   3.853   1.687  11.596
19556SOL    HW260508   3.800   1.595  11.704
19557SOL     OW60509  12.743   6.970   7.816
19557SOL    HW160510  12.761   6.888   7.770
19557SOL    HW260511  12.700   6.944   7.897
19558SOL     OW60512   2.150  13.222   4.974
19558SOL    HW160513   2.094  13.214   5.051
19558SOL    HW260514   2.104  13.285   4.918
19559SOL     OW60515  10.012   4.259  12.894
19559SOL    HW160516  10.080   4.306  12.846
19559SOL    HW260517   9.938   4.254  12.834
19560SOL     OW60518   2.342   0.464  13.496
19560SOL    HW160519   2.255   0.455  13.535
19560SOL    HW260520   2.363   0.557  13.506
19561SOL     OW60521   7.447   9.725   2.963
19561SOL    HW160522   7.428   9.670   3.039
19561SOL    HW260523   7.528   9.770   2.985
19562SOL     OW60524  10.862   1.514   6.257
19562SOL    HW160525  10.904   1.578   6.201
19562SOL    HW260526  10.845   1.439   6.199
19563SOL     OW60527   9.239   3.830  14.436
19563SOL    HW160528   9.158   3.875  14.412
19563SOL    HW260529   9.216   3.778  14.512
19564SOL     OW60530   6.343  10.169   7.321
19564SOL    HW160531   6.349  10.260   7.290
19564SOL    HW260532   6.264  10.168   7.376
19565SOL     OW60533   5.024   8.390   5.353
19565SOL    HW160534   5.119   8.393   5.362
19565SOL    HW260535   5.008   8.420   5.264
19566SOL     OW60536  14.360  10.190   1.444
19566SOL    HW160537  14.324  10.267   1.398
19566SOL    HW260538  14.334  10.202   1.535
19567SOL     OW60539   2.861  11.098   7.983
19567SOL    HW160540   2.878  11.078   8.075
19567SOL    HW260541   2.873  11.192   7.976
19568SOL     OW60542   7.609  12.105   4.011
19568SOL    HW160543   7.654  12.175   4.059
19568SOL    HW260544   7.647  12.025   4.045
19569SOL     OW60545   9.108   0.330   7.416
19569SOL    HW160546   9.145   0.369   7.338
19569SOL    HW260547   9.179   0.329   7.480
19570SOL     OW60548   7.128   0.553  14.710
19570SOL    HW160549   7.169   0.504  14.638
19570SOL    HW260550   7.114   0.487  14.778
19571SOL     OW60551   1.422   2.897   9.147
19571SOL    HW160552   1.379   2.944   9.218
19571SOL    HW260553   1.471   2.964   9.100
19572SOL     OW60554  11.474   2.450  12.012
19572SOL    HW160555  11.381   2.476  12.013
19572SOL    HW260556  11.516   2.514  11.955
19573SOL     OW60557  14.314   7.665   4.460
19573SOL    HW160558  14.254   7.595   4.432
19573SOL    HW260559  14.265   7.746   4.443
19574SOL     OW60560   8.633   4.326   0.769
19574SOL    HW160561   8.654   4.372   0.851
19574SOL    HW260562   8.599   4.241   0.798
19575SOL     OW60563   1.664   7.834   9.924
19575SOL    HW160564   1.721   7.860   9.997
19575SOL    HW260565   1.721   7.784   9.865
19576SOL     OW60566   8.072  13.460   6.697
19576SOL    HW160567   8.146  13.403   6.677
19576SOL    HW260568   8.006  13.438   6.631
19577SOL     OW60569   2.659   7.682   5.812
19577SOL    HW160570   2.751   7.707   5.819
19577SOL    HW260571   2.660   7.586   5.808
19578SOL     OW60572   7.480   9.672  11.788
19578SOL    HW160573   7.506   9.606  11.852
19578SOL    HW260574   7.423   9.732  11.836
19579SOL     OW60575   2.794   7.115   2.916
19579SOL    HW160576   2.845   7.092   2.839
19579SOL    HW260577   2.818   7.048   2.981
19580SOL     OW60578   7.346   0.644   9.213
19580SOL    HW160579   7.421   0.585   9.199
19580SOL    HW260580   7.386   0.729   9.230
19581SOL     OW60581   6.551   6.781  11.583
19581SOL    HW160582   6.646   6.794  11.585
19581SOL    HW260583   6.514   6.867  11.602
19582SOL     OW60584  14.716   8.692   0.354
19582SOL    HW160585  14.709   8.773   0.405
19582SOL    HW260586  14.702   8.719   0.263
19583SOL     OW60587   6.338  10.932  14.485
19583SOL    HW160588   6.359  10.985  14.408
19583SOL    HW260589   6.415  10.876  14.497
19584SOL     OW60590   4.616   3.845   3.839
19584SOL    HW160591   4.576   3.781   3.897
19584SOL    HW260592   4.703   3.811   3.822
19585SOL     OW60593  11.312   1.967   2.724
19585SOL    HW160594  11.295   1.972   2.818
19585SOL    HW260595  11.403   1.994   2.714
19586SOL     OW60596  10.124  11.892  13.984
19586SOL    HW160597  10.138  11.886  14.079
19586SOL    HW260598  10.085  11.809  13.960
19587SOL     OW60599   1.872  12.207   6.594
19587SOL    HW160600   1.923  12.188   6.516
19587SOL    HW260601   1.797  12.256   6.563
19588SOL     OW60602   9.048   6.802  13.211
19588SOL    HW160603   9.074   6.815  13.303
19588SOL    HW260604   9.129   6.775  13.167
19589SOL     OW60605  11.455   1.138   1.388
19589SOL    HW160606  11.362   1.139   1.409
19589SOL    HW260607  11.466   1.062   1.331
19590SOL     OW60608   2.165  11.199  12.094
19590SOL    HW160609   2.261  11.203  12.087
19590SOL    HW260610   2.135  11.287  12.070
19591SOL     OW60611   2.878   4.714   9.445
19591SOL    HW160612   2.928   4.796   9.443
19591SOL    HW260613   2.800   4.735   9.497
19592SOL     OW60614   9.954   2.881   8.057
19592SOL    HW160615  10.019   2.867   7.987
19592SOL    HW260616   9.911   2.796   8.067
19593SOL     OW60617   6.674   7.869  10.105
19593SOL    HW160618   6.615   7.828  10.167
19593SOL    HW260619   6.640   7.958  10.094
19594SOL     OW60620   9.999  10.398   4.060
19594SOL    HW160621   9.954  10.384   3.976
19594SOL    HW260622   9.930  10.388   4.126
19595SOL     OW60623   5.341   9.093   1.748
19595SOL    HW160624   5.415   9.064   1.694
19595SOL    HW260625   5.276   9.122   1.685
19596SOL     OW60626   0.737   1.850  14.065
19596SOL    HW160627   0.732   1.946  14.070
19596SOL    HW260628   0.795   1.833  13.991
19597SOL     OW60629   4.263   8.863  13.762
19597SOL    HW160630   4.200   8.934  13.766
19597SOL    HW260631   4.238   8.805  13.835
19598SOL     OW60632   9.723  11.812  11.186
19598SOL    HW160633   9.790  11.868  11.224
19598SOL    HW260634   9.703  11.853  11.101
19599SOL     OW60635  14.096  10.890  14.372
19599SOL    HW160636  14.109  10.886  14.277
19599SOL    HW260637  14.057  10.976  14.387
19600SOL     OW60638   2.067   9.747   2.101
19600SOL    HW160639   2.122   9.708   2.033
19600SOL    HW260640   2.074   9.687   2.175
19601SOL     OW60641   4.583   8.275   8.026
19601SOL    HW160642   4.505   8.296   7.975
19601SOL    HW260643   4.561   8.303   8.115
19602SOL     OW60644   7.597  12.680   3.676
19602SOL    HW160645   7.664  12.737   3.714
19602SOL    HW260646   7.639  12.643   3.599
19603SOL     OW60647   3.344   5.660   1.784
19603SOL    HW160648   3.423   5.629   1.826
19603SOL    HW260649   3.350   5.628   1.694
19604SOL     OW60650  12.688   2.415  13.610
19604SOL    HW160651  12.646   2.347  13.663
19604SOL    HW260652  12.620   2.445  13.550
19605SOL     OW60653   6.964   7.103  11.673
19605SOL    HW160654   6.915   7.028  11.639
19605SOL    HW260655   6.937   7.176  11.618
19606SOL     OW60656   7.733   2.973   1.470
19606SOL    HW160657   7.819   2.979   1.512
19606SOL    HW260658   7.752   2.975   1.376
19607SOL     OW60659  10.369   9.795  11.600
19607SOL    HW160660  10.389   9.831  11.687
19607SOL    HW260661  10.454   9.787  11.557
19608SOL     OW60662   8.767   1.738   7.296
19608SOL    HW160663   8.835   1.695   7.244
19608SOL    HW260664   8.686   1.722   7.247
19609SOL     OW60665  14.063   9.358   2.377
19609SOL    HW160666  14.025   9.297   2.314
19609SOL    HW260667  14.146   9.385   2.338
19610SOL     OW60668   9.937  11.479   0.051
19610SOL    HW160669   9.996  11.407   0.030
19610SOL    HW260670   9.895  11.501  14.849
19611SOL     OW60671   8.189   2.373   1.393
19611SOL    HW160672   8.146   2.453   1.422
19611SOL    HW260673   8.142   2.303   1.438
19612SOL     OW60674   6.015  11.798   2.870
19612SOL    HW160675   6.089  11.738   2.875
19612SOL    HW260676   5.940  11.743   2.844
19613SOL     OW60677  12.375   1.154  12.396
19613SOL    HW160678  12.388   1.150  12.301
19613SOL    HW260679  12.394   1.245  12.419
19614SOL     OW60680   1.764  12.199  10.549
19614SOL    HW160681   1.843  12.163  10.589
19614SOL    HW260682   1.726  12.126  10.501
19615SOL     OW60683   6.702   9.477   8.645
19615SOL    HW160684   6.638   9.408   8.662
19615SOL    HW260685   6.782   9.431   8.618
19616SOL     OW60686   6.421   5.190   4.543
19616SOL    HW160687   6.339   5.240   4.543
19616SOL    HW260688   6.397   5.105   4.579
19617SOL     OW60689   4.570  14.796  14.255
19617SOL    HW160690   4.557  14.764  14.344
19617SOL    HW260691   4.635  14.737  14.217
19618SOL     OW60692   2.024   1.941   7.352
19618SOL    HW160693   1.976   1.966   7.431
19618SOL    HW260694   2.087   2.011   7.338
19619SOL     OW60695   8.635   6.498  13.276
19619SOL    HW160696   8.595   6.560  13.337
19619SOL    HW260697   8.565   6.436  13.255
19620SOL     OW60698  10.902   5.687   1.447
19620SOL    HW160699  10.901   5.592   1.461
19620SOL    HW260700  10.842   5.700   1.374
19621SOL     OW60701  10.972   2.923   2.834
19621SOL    HW160702  10.948   2.889   2.920
19621SOL    HW260703  10.910   2.994   2.819
19622SOL     OW60704   4.469   6.625   9.864
19622SOL    HW160705   4.556   6.642   9.900
19622SOL    HW260706   4.465   6.678   9.784
19623SOL     OW60707  10.309  12.476  13.663
19623SOL    HW160708  10.231  12.430  13.632
19623SOL    HW260709  10.376  12.458  13.598
19624SOL     OW60710   2.085  13.834   9.798
19624SOL    HW160711   2.141  13.911   9.806
19624SOL    HW260712   2.139  13.762   9.831
19625SOL     OW60713  12.347   7.839   8.319
19625SOL    HW160714  12.413   7.900   8.354
19625SOL    HW260715  12.311   7.796   8.397
19626SOL     OW60716  10.884   6.759   0.007
19626SOL    HW160717  10.828   6.805  14.825
19626SOL    HW260718  10.831   6.756   0.087
19627SOL     OW60719  12.610  11.038   1.657
19627SOL    HW160720  12.573  10.956   1.688
19627SOL    HW260721  12.534  11.095   1.641
19628SOL     OW60722  11.589   5.080   0.745
19628SOL    HW160723  11.631   5.160   0.776
19628SOL    HW260724  11.618   5.071   0.654
19629SOL     OW60725  12.745  13.664  12.290
19629SOL    HW160726  12.686  13.628  12.356
19629SOL    HW260727  12.726  13.758  12.290
19630SOL     OW60728   7.965  14.194  12.752
19630SOL    HW160729   8.040  14.138  12.730
19630SOL    HW260730   7.902  14.179  12.682
19631SOL     OW60731   8.593  11.429   3.948
19631SOL    HW160732   8.551  11.345   3.965
19631SOL    HW260733   8.628  11.422   3.859
19632SOL     OW60734   8.789   9.865   1.141
19632SOL    HW160735   8.818   9.804   1.209
19632SOL    HW260736   8.822   9.828   1.059
19633SOL     OW60737   7.000  13.217   0.220
19633SOL    HW160738   6.917  13.262   0.234
19633SOL    HW260739   6.985  13.164   0.141
19634SOL     OW60740  11.301   4.413   8.072
19634SOL    HW160741  11.224   4.464   8.044
19634SOL    HW260742  11.353   4.403   7.992
19635SOL     OW60743  10.271   8.304   0.259
19635SOL    HW160744  10.298   8.391   0.289
19635SOL    HW260745  10.190   8.286   0.306
19636SOL     OW60746  11.800  11.756   4.983
19636SOL    HW160747  11.772  11.681   4.931
19636SOL    HW260748  11.874  11.792   4.935
19637SOL     OW60749   5.049   2.152   8.384
19637SOL    HW160750   4.959   2.184   8.373
19637SOL    HW260751   5.092   2.174   8.301
19638SOL     OW60752  11.078   3.421   0.277
19638SOL    HW160753  10.993   3.447   0.244
19638SOL    HW260754  11.121   3.504   0.300
19639SOL     OW60755  12.962   3.205   8.557
19639SOL    HW160756  12.939   3.217   8.649
19639SOL    HW260757  12.879   3.215   8.510
19640SOL     OW60758  10.307   7.047   6.277
19640SOL    HW160759  10.295   7.089   6.362
19640SOL    HW260760  10.219   7.035   6.243
19641SOL     OW60761  10.344  12.720   6.909
19641SOL    HW160762  10.376  12.778   6.977
19641SOL    HW260763  10.399  12.739   6.833
19642SOL     OW60764   2.350   9.640   2.075
19642SOL    HW160765   2.322   9.697   2.003
19642SOL    HW260766   2.427   9.595   2.041
19643SOL     OW60767   2.360  10.073   8.738
19643SOL    HW160768   2.443  10.025   8.744
19643SOL    HW260769   2.349  10.113   8.824
19644SOL     OW60770   9.022   0.296   0.727
19644SOL    HW160771   8.955   0.229   0.735
19644SOL    HW260772   9.064   0.299   0.814
19645SOL     OW60773  11.601   9.327   1.181
19645SOL    HW160774  11.616   9.368   1.266
19645SOL    HW260775  11.675   9.268   1.169
19646SOL     OW60776   5.550   3.271   2.203
19646SOL    HW160777   5.635   3.236   2.176
19646SOL    HW260778   5.570   3.358   2.238
19647SOL     OW60779   5.672  14.168   8.670
19647SOL    HW160780   5.717  14.107   8.730
19647SOL    HW260781   5.713  14.153   8.585
19648SOL     OW60782  13.812   7.324   2.480
19648SOL    HW160783  13.853   7.340   2.565
19648SOL    HW260784  13.763   7.243   2.491
19649SOL     OW60785   4.904  12.929   4.931
19649SOL    HW160786   4.917  12.988   5.005
19649SOL    HW260787   4.890  12.843   4.971
19650SOL     OW60788   2.306  11.190   4.868
19650SOL    HW160789   2.335  11.242   4.943
19650SOL    HW260790   2.371  11.207   4.800
19651SOL     OW60791  11.596   4.536  13.916
19651SOL    HW160792  11.611   4.465  13.977
19651SOL    HW260793  11.502   4.555  13.923
19652SOL     OW60794   4.924   9.979   4.624
19652SOL    HW160795   4.857  10.036   4.585
19652SOL    HW260796   4.959   9.929   4.550
19653SOL     OW60797   5.197   1.519   3.368
19653SOL    HW160798   5.232   1.494   3.454
19653SOL    HW260799   5.259   1.585   3.336
19654SOL     OW60800   2.547   2.478  11.350
19654SOL    HW160801   2.524   2.385  11.358
19654SOL    HW260802   2.596   2.483  11.268
19655SOL     OW60803   4.270   7.302  12.845
19655SOL    HW160804   4.298   7.387  12.881
19655SOL    HW260805   4.250   7.321  12.754
19656SOL     OW60806   0.113   8.984  11.136
19656SOL    HW160807   0.108   8.939  11.221
19656SOL    HW260808   0.064   8.928  11.076
19657SOL     OW60809   7.143   5.357   4.784
19657SOL    HW160810   7.154   5.310   4.701
19657SOL    HW260811   7.232   5.373   4.814
19658SOL     OW60812   1.954  11.750   1.816
19658SOL    HW160813   1.875  11.789   1.854
19658SOL    HW260814   2.007  11.825   1.788
19659SOL     OW60815   1.855  11.515  11.983
19659SOL    HW160816   1.840  11.586  11.921
19659SOL    HW260817   1.768  11.489  12.011
19660SOL     OW60818   6.994   5.228   9.026
19660SOL    HW160819   6.925   5.167   9.001
19660SOL    HW260820   6.954   5.314   9.018
19661SOL     OW60821  10.038   3.184  11.618
19661SOL    HW160822   9.991   3.101  11.620
19661SOL    HW260823  10.088   3.182  11.537
19662SOL     OW60824  10.595   5.708  10.970
19662SOL    HW160825  10.611   5.768  10.897
19662SOL    HW260826  10.553   5.763  11.037
19663SOL     OW60827  10.763   8.127   9.613
19663SOL    HW160828  10.771   8.173   9.530
19663SOL    HW260829  10.807   8.183   9.677
19664SOL     OW60830  13.428   5.541   1.267
19664SOL    HW160831  13.375   5.467   1.240
19664SOL    HW260832  13.473   5.569   1.187
19665SOL     OW60833   5.900   7.059  11.587
19665SOL    HW160834   5.880   7.135  11.642
19665SOL    HW260835   5.922   7.096  11.502
19666SOL     OW60836   7.607   0.196  14.765
19666SOL    HW160837   7.695   0.181  14.730
19666SOL    HW260838   7.549   0.182  14.690
19667SOL     OW60839   5.879   6.424   9.173
19667SOL    HW160840   5.886   6.359   9.242
19667SOL    HW260841   5.969   6.436   9.143
19668SOL     OW60842  14.611   6.141  10.924
19668SOL    HW160843  14.635   6.234  10.918
19668SOL    HW260844  14.515   6.141  10.915
19669SOL     OW60845   9.378   6.406  10.469
19669SOL    HW160846   9.390   6.338  10.535
19669SOL    HW260847   9.315   6.367  10.408
19670SOL     OW60848   2.596   9.885   9.252
19670SOL    HW160849   2.588   9.952   9.184
19670SOL    HW260850   2.680   9.904   9.294
19671SOL     OW60851   3.461   4.432  10.418
19671SOL    HW160852   3.487   4.412  10.328
19671SOL    HW260853   3.482   4.525  10.430
19672SOL     OW60854   2.059   8.200   1.446
19672SOL    HW160855   2.151   8.177   1.433
19672SOL    HW260856   2.025   8.217   1.358
19673SOL     OW60857   7.328  10.864   5.430
19673SOL    HW160858   7.355  10.882   5.520
19673SOL    HW260859   7.389  10.797   5.399
19674SOL     OW60860   3.923  12.250   8.366
19674SOL    HW160861   3.910  12.270   8.274
19674SOL    HW260862   3.912  12.155   8.373
19675SOL     OW60863   1.562   6.085   2.463
19675SOL    HW160864   1.538   6.142   2.536
19675SOL    HW260865   1.552   6.141   2.386
19676SOL     OW60866   2.748  12.384   1.071
19676SOL    HW160867   2.836  12.376   1.108
19676SOL    HW260868   2.740  12.477   1.048
19677SOL     OW60869   7.011  12.114   6.684
19677SOL    HW160870   6.916  12.107   6.682
19677SOL    HW260871   7.032  12.182   6.621
19678SOL     OW60872   5.969   6.577  10.411
19678SOL    HW160873   5.874   6.570  10.419
19678SOL    HW260874   6.003   6.497  10.452
19679SOL     OW60875   6.984   3.771   5.092
19679SOL    HW160876   6.937   3.843   5.050
19679SOL    HW260877   7.040   3.736   5.022
19680SOL     OW60878   8.911  14.161   9.960
19680SOL    HW160879   8.991  14.109   9.955
19680SOL    HW260880   8.848  14.105  10.006
19681SOL     OW60881   9.135   7.699   3.219
19681SOL    HW160882   9.082   7.762   3.170
19681SOL    HW260883   9.177   7.645   3.153
19682SOL     OW60884   8.843   6.936   0.131
19682SOL    HW160885   8.890   6.907   0.209
19682SOL    HW260886   8.750   6.927   0.155
19683SOL     OW60887   6.933  10.412   5.959
19683SOL    HW160888   6.840  10.408   5.935
19683SOL    HW260889   6.973  10.466   5.891
19684SOL     OW60890   2.905   7.038   2.687
19684SOL    HW160891   2.888   7.037   2.593
19684SOL    HW260892   2.997   7.064   2.694
19685SOL     OW60893   9.864   5.571   9.391
19685SOL    HW160894   9.938   5.537   9.340
19685SOL    HW260895   9.861   5.664   9.370
19686SOL     OW60896   4.525  12.149   5.312
19686SOL    HW160897   4.592  12.081   5.303
19686SOL    HW260898   4.542  12.188   5.398
19687SOL     OW60899   1.076  12.206   3.352
19687SOL    HW160900   1.149  12.156   3.315
19687SOL    HW260901   1.033  12.145   3.411
19688SOL     OW60902   8.766  12.532   5.289
19688SOL    HW160903   8.801  12.498   5.207
19688SOL    HW260904   8.712  12.606   5.264
19689SOL     OW60905   1.532   6.434   8.799
19689SOL    HW160906   1.617   6.464   8.829
19689SOL    HW260907   1.482   6.515   8.782
19690SOL     OW60908   2.207  11.850   9.597
19690SOL    HW160909   2.183  11.828   9.687
19690SOL    HW260910   2.225  11.766   9.555
19691SOL     OW60911   5.910   0.593   9.934
19691SOL    HW160912   5.957   0.672   9.962
19691SOL    HW260913   5.902   0.603   9.839
19692SOL     OW60914   4.862   8.131   0.851
19692SOL    HW160915   4.914   8.196   0.899
19692SOL    HW260916   4.882   8.048   0.895
19693SOL     OW60917   7.006   7.373  12.222
19693SOL    HW160918   7.063   7.304  12.256
19693SOL    HW260919   7.034   7.384  12.131
19694SOL     OW60920   6.885  10.016   0.898
19694SOL    HW160921   6.871  10.011   0.803
19694SOL    HW260922   6.969   9.973   0.912
19695SOL     OW60923   7.701   1.344  11.103
19695SOL    HW160924   7.754   1.265  11.110
19695SOL    HW260925   7.633   1.332  11.169
19696SOL     OW60926  10.471  12.230   5.263
19696SOL    HW160927  10.477  12.309   5.317
19696SOL    HW260928  10.506  12.257   5.178
19697SOL     OW60929   4.468   0.304  11.676
19697SOL    HW160930   4.541   0.245  11.659
19697SOL    HW260931   4.485   0.380  11.621
19698SOL     OW60932   6.887   8.301   4.565
19698SOL    HW160933   6.835   8.223   4.584
19698SOL    HW260934   6.976   8.277   4.590
19699SOL     OW60935   2.089   3.404   1.829
19699SOL    HW160936   2.160   3.468   1.833
19699SOL    HW260937   2.013   3.451   1.862
19700SOL     OW60938   8.540   1.746   5.789
19700SOL    HW160939   8.478   1.806   5.831
19700SOL    HW260940   8.485   1.676   5.753
19701SOL     OW60941  14.766   9.654   1.573
19701SOL    HW160942  14.839   9.716   1.567
19701SOL    HW260943  14.765   9.626   1.664
19702SOL     OW60944   8.510  12.297   9.782
19702SOL    HW160945   8.473  12.289   9.870
19702SOL    HW260946   8.438  12.271   9.724
19703SOL     OW60947  13.144  14.003   9.572
19703SOL    HW160948  13.086  13.927   9.576
19703SOL    HW260949  13.163  14.023   9.663
19704SOL     OW60950  13.734   4.953   9.235
19704SOL    HW160951  13.782   4.991   9.161
19704SOL    HW260952  13.649   4.997   9.234
19705SOL     OW60953   0.459  12.875   8.581
19705SOL    HW160954   0.502  12.952   8.543
19705SOL    HW260955   0.399  12.845   8.512
19706SOL     OW60956  14.822   0.161   2.142
19706SOL    HW160957  14.803   0.240   2.193
19706SOL    HW260958  14.736   0.122   2.126
19707SOL     OW60959   1.886   4.746   8.737
19707SOL    HW160960   1.854   4.683   8.672
19707SOL    HW260961   1.807   4.778   8.781
19708SOL     OW60962  10.658  12.086  10.025
19708SOL    HW160963  10.617  12.172  10.033
19708SOL    HW260964  10.636  12.057   9.936
19709SOL     OW60965   1.728   0.923  14.436
19709SOL    HW160966   1.744   1.005  14.482
19709SOL    HW260967   1.634   0.921  14.422
19710SOL     OW60968   0.071   2.616  10.756
19710SOL    HW160969   0.135   2.545  10.754
19710SOL    HW260970   0.076   2.651  10.845
19711SOL     OW60971   1.931  13.718  11.379
19711SOL    HW160972   2.008  13.731  11.323
19711SOL    HW260973   1.903  13.628  11.361
19712SOL     OW60974   0.620   2.983  11.987
19712SOL    HW160975   0.580   3.009  11.904
19712SOL    HW260976   0.713   3.001  11.977
19713SOL     OW60977   2.638  13.406  13.639
19713SOL    HW160978   2.689  13.357  13.574
19713SOL    HW260979   2.683  13.490  13.646
19714SOL     OW60980   9.870   7.723   8.520
19714SOL    HW160981   9.958   7.685   8.517
19714SOL    HW260982   9.820   7.674   8.455
19715SOL     OW60983  11.212   6.608   7.315
19715SOL    HW160984  11.168   6.689   7.291
19715SOL    HW260985  11.204   6.553   7.238
19716SOL     OW60986   9.811  10.472  13.714
19716SOL    HW160987   9.788  10.521  13.793
19716SOL    HW260988   9.760  10.391  13.720
19717SOL     OW60989   1.237   7.636   3.392
19717SOL    HW160990   1.146   7.638   3.360
19717SOL    HW260991   1.286   7.593   3.321
19718SOL     OW60992   9.964   3.650  11.340
19718SOL    HW160993   9.908   3.623  11.413
19718SOL    HW260994   9.937   3.739  11.320
19719SOL     OW60995   5.047  13.743   2.037
19719SOL    HW160996   4.997  13.776   2.112
19719SOL    HW260997   5.035  13.648   2.042
19720SOL     OW60998   9.303   6.452   4.330
19720SOL    HW160999   9.323   6.434   4.422
19720SOL    HW261000   9.288   6.365   4.292
19721SOL     OW61001  14.333   6.861  13.634
19721SOL    HW161002  14.387   6.786  13.610
19721SOL    HW261003  14.364   6.932  13.578
19722SOL     OW61004   2.166   6.498   1.719
19722SOL    HW161005   2.165   6.414   1.765
19722SOL    HW261006   2.220   6.482   1.642
19723SOL     OW61007   9.029   3.761  10.662
19723SOL    HW161008   8.951   3.809  10.634
19723SOL    HW261009   9.090   3.771  10.589
19724SOL     OW61010  10.731   3.202   8.265
19724SOL    HW161011  10.750   3.108   8.274
19724SOL    HW261012  10.665   3.206   8.196
19725SOL     OW61013   7.799   2.605   3.483
19725SOL    HW161014   7.880   2.557   3.500
19725SOL    HW261015   7.793   2.609   3.388
19726SOL     OW61016   5.487   1.694   8.696
19726SOL    HW161017   5.420   1.682   8.628
19726SOL    HW261018   5.441   1.676   8.778
19727SOL     OW61019  14.436   4.388   0.488
19727SOL    HW161020  14.515   4.357   0.443
19727SOL    HW261021  14.370   4.394   0.419
19728SOL     OW61022  10.533   8.868   1.254
19728SOL    HW161023  10.617   8.864   1.208
19728SOL    HW261024  10.525   8.784   1.297
19729SOL     OW61025   8.920   0.752  12.429
19729SOL    HW161026   8.896   0.817  12.363
19729SOL    HW261027   8.917   0.668  12.383
19730SOL     OW61028  10.268   8.076  14.541
19730SOL    HW161029  10.238   8.001  14.592
19730SOL    HW261030  10.248   8.052  14.450
19731SOL     OW61031   5.745   9.529   3.205
19731SOL    HW161032   5.758   9.532   3.300
19731SOL    HW261033   5.822   9.482   3.172
19732SOL     OW61034   1.735   1.821   8.493
19732SOL    HW161035   1.737   1.909   8.454
19732SOL    HW261036   1.728   1.837   8.587
19733SOL     OW61037   1.523   0.263  10.991
19733SOL    HW161038   1.465   0.339  10.984
19733SOL    HW261039   1.588   0.276  10.922
19734SOL     OW61040   4.854   1.983   9.423
19734SOL    HW161041   4.838   2.062   9.474
19734SOL    HW261042   4.925   1.938   9.470
19735SOL     OW61043  12.795   5.067  13.249
19735SOL    HW161044  12.831   5.126  13.315
19735SOL    HW261045  12.841   5.091  13.168
19736SOL     OW61046   3.867  14.560  10.816
19736SOL    HW161047   3.819  14.606  10.747
19736SOL    HW261048   3.957  14.555  10.784
19737SOL     OW61049   8.435   9.312   1.900
19737SOL    HW161050   8.444   9.218   1.884
19737SOL    HW261051   8.341   9.329   1.896
19738SOL     OW61052  12.233  10.721  11.234
19738SOL    HW161053  12.279  10.656  11.287
19738SOL    HW261054  12.302  10.777  11.199
19739SOL     OW61055   9.400  13.416  10.213
19739SOL    HW161056   9.427  13.498  10.254
19739SOL    HW261057   9.332  13.442  10.151
19740SOL     OW61058  14.596   6.769   1.956
19740SOL    HW161059  14.688   6.742   1.952
19740SOL    HW261060  14.599   6.864   1.956
19741SOL     OW61061  14.200   7.696   6.436
19741SOL    HW161062  14.197   7.778   6.486
19741SOL    HW261063  14.111   7.686   6.402
19742SOL     OW61064  12.006   1.145   3.006
19742SOL    HW161065  11.981   1.095   2.929
19742SOL    HW261066  11.966   1.231   2.993
19743SOL     OW61067  12.077   2.259  13.036
19743SOL    HW161068  12.001   2.312  13.012
19743SOL    HW261069  12.043   2.194  13.098
19744SOL     OW61070  14.479   0.886  10.180
19744SOL    HW161071  14.544   0.957  10.188
19744SOL    HW261072  14.515   0.815  10.232
19745SOL     OW61073   9.203  12.751   8.100
19745SOL    HW161074   9.228  12.792   8.183
19745SOL    HW261075   9.281  12.760   8.045
19746SOL     OW61076   7.052   9.674  11.196
19746SOL    HW161077   7.070   9.594  11.245
19746SOL    HW261078   6.962   9.663  11.165
19747SOL     OW61079   1.848  12.458   4.782
19747SOL    HW161080   1.817  12.500   4.702
19747SOL    HW261081   1.809  12.370   4.779
19748SOL     OW61082   9.513  14.191  12.213
19748SOL    HW161083   9.480  14.240  12.288
19748SOL    HW261084   9.458  14.218  12.140
19749SOL     OW61085   6.193   7.944   1.416
19749SOL    HW161086   6.285   7.922   1.399
19749SOL    HW261087   6.145   7.865   1.394
19750SOL     OW61088   0.483  11.416   2.318
19750SOL    HW161089   0.484  11.326   2.286
19750SOL    HW261090   0.447  11.467   2.245
19751SOL     OW61091   5.518   4.599  11.574
19751SOL    HW161092   5.455   4.552  11.520
19751SOL    HW261093   5.496   4.691  11.561
19752SOL     OW61094  10.711   9.555   2.606
19752SOL    HW161095  10.784   9.616   2.592
19752SOL    HW261096  10.717   9.531   2.698
19753SOL     OW61097   6.101   2.097   0.071
19753SOL    HW161098   6.163   2.132   0.136
19753SOL    HW261099   6.015   2.130   0.100
19754SOL     OW61100   3.434   7.713  11.558
19754SOL    HW161101   3.426   7.738  11.650
19754SOL    HW261102   3.419   7.795  11.510
19755SOL     OW61103   4.748  10.513   9.358
19755SOL    HW161104   4.745  10.526   9.453
19755SOL    HW261105   4.829  10.463   9.344
19756SOL     OW61106   3.631   5.862  13.286
19756SOL    HW161107   3.717   5.859  13.328
19756SOL    HW261108   3.580   5.795  13.332
19757SOL     OW61109   7.814   4.756   6.475
19757SOL    HW161110   7.740   4.759   6.414
19757SOL    HW261111   7.888   4.791   6.425
19758SOL     OW61112  11.346   8.943   7.610
19758SOL    HW161113  11.270   8.890   7.586
19758SOL    HW261114  11.419   8.881   7.608
19759SOL     OW61115   5.281  14.435  14.788
19759SOL    HW161116   5.231  14.507  14.824
19759SOL    HW261117   5.252  14.427  14.697
19760SOL     OW61118   9.539   8.664   4.886
19760SOL    HW161119   9.604   8.735   4.879
19760SOL    HW261120   9.550   8.613   4.806
19761SOL     OW61121  11.211   4.041   7.773
19761SOL    HW161122  11.302   4.012   7.778
19761SOL    HW261123  11.195   4.056   7.679
19762SOL     OW61124   0.874  12.105   5.837
19762SOL    HW161125   0.806  12.166   5.867
19762SOL    HW261126   0.921  12.081   5.917
19763SOL     OW61127   0.032  13.723   2.453
19763SOL    HW161128   0.085  13.803   2.458
19763SOL    HW261129   0.096  13.652   2.450
19764SOL     OW61130  10.135  13.121   6.864
19764SOL    HW161131  10.226  13.121   6.895
19764SOL    HW261132  10.093  13.192   6.913
19765SOL     OW61133   4.674  14.538   2.989
19765SOL    HW161134   4.707  14.605   2.929
19765SOL    HW261135   4.698  14.455   2.948
19766SOL     OW61136  13.860   2.820   2.165
19766SOL    HW161137  13.940   2.822   2.216
19766SOL    HW261138  13.810   2.895   2.195
19767SOL     OW61139   4.971  14.336   2.342
19767SOL    HW161140   5.025  14.269   2.301
19767SOL    HW261141   5.019  14.362   2.420
19768SOL     OW61142   7.650  10.633   3.388
19768SOL    HW161143   7.657  10.676   3.474
19768SOL    HW261144   7.712  10.560   3.392
19769SOL     OW61145  10.070   1.607  10.451
19769SOL    HW161146  10.150   1.647  10.417
19769SOL    HW261147  10.000   1.665  10.420
19770SOL     OW61148   1.697  13.657   2.129
19770SOL    HW161149   1.701  13.747   2.097
19770SOL    HW261150   1.713  13.663   2.223
19771SOL     OW61151  13.540   8.483   6.464
19771SOL    HW161152  13.475   8.514   6.401
19771SOL    HW261153  13.529   8.540   6.540
19772SOL     OW61154   6.325  14.791   7.665
19772SOL    HW161155   6.300  14.853   7.596
19772SOL    HW261156   6.377  14.725   7.621
19773SOL     OW61157  12.421   3.357   8.307
19773SOL    HW161158  12.463   3.272   8.322
19773SOL    HW261159  12.462   3.390   8.227
19774SOL     OW61160  12.514   0.991  13.084
19774SOL    HW161161  12.566   1.064  13.048
19774SOL    HW261162  12.483   1.023  13.169
19775SOL     OW61163   5.697   2.213   7.906
19775SOL    HW161164   5.697   2.142   7.842
19775SOL    HW261165   5.606   2.240   7.912
19776SOL     OW61166   5.352  13.401   5.855
19776SOL    HW161167   5.323  13.352   5.933
19776SOL    HW261168   5.371  13.332   5.791
19777SOL     OW61169   9.363   9.385   7.805
19777SOL    HW161170   9.399   9.388   7.893
19777SOL    HW261171   9.279   9.339   7.814
19778SOL     OW61172   3.892   8.992   7.779
19778SOL    HW161173   3.818   8.989   7.839
19778SOL    HW261174   3.906   8.901   7.753
19779SOL     OW61175  11.801   2.835   7.306
19779SOL    HW161176  11.859   2.908   7.284
19779SOL    HW261177  11.857   2.774   7.353
19780SOL     OW61178   7.840   8.299   1.593
19780SOL    HW161179   7.789   8.235   1.642
19780SOL    HW261180   7.818   8.281   1.501
19781SOL     OW61181   0.452   1.298   8.794
19781SOL    HW161182   0.542   1.267   8.791
19781SOL    HW261183   0.399   1.219   8.798
19782SOL     OW61184   2.165  12.620   7.216
19782SOL    HW161185   2.181  12.531   7.183
19782SOL    HW261186   2.076  12.640   7.187
19783SOL     OW61187   1.388   2.145   1.764
19783SOL    HW161188   1.364   2.205   1.694
19783SOL    HW261189   1.346   2.062   1.740
19784SOL     OW61190  11.533   3.655  14.637
19784SOL    HW161191  11.471   3.727  14.646
19784SOL    HW261192  11.482   3.577  14.661
19785SOL     OW61193  12.146  14.456  14.657
19785SOL    HW161194  12.083  14.426  14.591
19785SOL    HW261195  12.092  14.491  14.728
19786SOL     OW61196   0.085   6.282  11.260
19786SOL    HW161197   0.066   6.340  11.187
19786SOL    HW261198   0.002   6.274  11.307
19787SOL     OW61199   7.625  14.774   3.683
19787SOL    HW161200   7.696  14.719   3.652
19787SOL    HW261201   7.669  14.844   3.733
19788SOL     OW61202   7.294   0.443  11.261
19788SOL    HW161203   7.311   0.389  11.183
19788SOL    HW261204   7.235   0.512  11.230
19789SOL     OW61205   5.361   8.275   2.973
19789SOL    HW161206   5.333   8.212   3.041
19789SOL    HW261207   5.288   8.336   2.966
19790SOL     OW61208  14.849   1.861   4.694
19790SOL    HW161209  14.853   1.847   4.789
19790SOL    HW261210   0.041   1.812   4.659
19791SOL     OW61211   9.126   4.840   5.347
19791SOL    HW161212   9.046   4.788   5.353
19791SOL    HW261213   9.191   4.781   5.309
19792SOL     OW61214   4.205   3.171   0.712
19792SOL    HW161215   4.187   3.234   0.642
19792SOL    HW261216   4.149   3.200   0.784
19793SOL     OW61217   8.947   6.114   9.966
19793SOL    HW161218   8.902   6.076   9.890
19793SOL    HW261219   9.008   6.177   9.928
19794SOL     OW61220   3.526   9.316  10.833
19794SOL    HW161221   3.550   9.366  10.911
19794SOL    HW261222   3.544   9.225  10.858
19795SOL     OW61223  11.548   0.614   5.942
19795SOL    HW161224  11.633   0.632   5.900
19795SOL    HW261225  11.509   0.546   5.887
19796SOL     OW61226   3.599  14.381   1.521
19796SOL    HW161227   3.528  14.351   1.464
19796SOL    HW261228   3.645  14.447   1.468
19797SOL     OW61229   3.863   0.466   8.555
19797SOL    HW161230   3.863   0.559   8.577
19797SOL    HW261231   3.772   0.438   8.570
19798SOL     OW61232   3.257   5.190  12.455
19798SOL    HW161233   3.201   5.124  12.412
19798SOL    HW261234   3.341   5.147  12.465
19799SOL     OW61235   8.629  12.272  11.195
19799SOL    HW161236   8.659  12.202  11.137
19799SOL    HW261237   8.563  12.231  11.251
19800SOL     OW61238   2.810   8.381  14.052
19800SOL    HW161239   2.827   8.459  14.105
19800SOL    HW261240   2.857   8.398  13.970
19801SOL     OW61241   6.427  13.432   3.277
19801SOL    HW161242   6.400  13.522   3.259
19801SOL    HW261243   6.346  13.382   3.281
19802SOL     OW61244   6.796   9.562   2.117
19802SOL    HW161245   6.701   9.551   2.124
19802SOL    HW261246   6.808   9.650   2.082
19803SOL     OW61247   8.029   7.183  14.043
19803SOL    HW161248   8.042   7.277  14.027
19803SOL    HW261249   8.031   7.175  14.138
19804SOL     OW61250   5.098   8.466   0.183
19804SOL    HW161251   5.030   8.518   0.140
19804SOL    HW261252   5.107   8.505   0.270
19805SOL     OW61253   3.389   0.763   4.436
19805SOL    HW161254   3.335   0.841   4.424
19805SOL    HW261255   3.462   0.794   4.490
19806SOL     OW61256   2.268   5.735  10.881
19806SOL    HW161257   2.230   5.823  10.882
19806SOL    HW261258   2.192   5.677  10.874
19807SOL     OW61259   2.041   3.738  12.865
19807SOL    HW161260   2.095   3.660  12.877
19807SOL    HW261261   2.093   3.809  12.901
19808SOL     OW61262   2.755   1.717   8.215
19808SOL    HW161263   2.848   1.734   8.225
19808SOL    HW261264   2.717   1.803   8.194
19809SOL     OW61265  11.895   8.996   0.730
19809SOL    HW161266  11.912   9.061   0.799
19809SOL    HW261267  11.875   8.916   0.777
19810SOL     OW61268   0.585  13.411   9.297
19810SOL    HW161269   0.639  13.361   9.235
19810SOL    HW261270   0.498  13.413   9.257
19811SOL     OW61271   1.334  10.930  13.837
19811SOL    HW161272   1.250  10.952  13.878
19811SOL    HW261273   1.371  10.863  13.894
19812SOL     OW61274  11.138   5.761   3.766
19812SOL    HW161275  11.044   5.744   3.767
19812SOL    HW261276  11.175   5.691   3.712
19813SOL     OW61277  14.156  11.108   4.262
19813SOL    HW161278  14.086  11.156   4.220
19813SOL    HW261279  14.131  11.016   4.252
19814SOL     OW61280   8.801  13.275   3.148
19814SOL    HW161281   8.744  13.199   3.159
19814SOL    HW261282   8.827  13.273   3.056
19815SOL     OW61283  10.658   2.850   3.802
19815SOL    HW161284  10.689   2.828   3.890
19815SOL    HW261285  10.719   2.806   3.743
19816SOL     OW61286   6.969   1.127   7.998
19816SOL    HW161287   7.023   1.098   8.072
19816SOL    HW261288   6.905   1.187   8.037
19817SOL     OW61289   9.548  13.036   8.014
19817SOL    HW161290   9.505  13.075   8.090
19817SOL    HW261291   9.486  12.970   7.982
19818SOL     OW61292   9.629   3.674  14.559
19818SOL    HW161293   9.593   3.694  14.472
19818SOL    HW261294   9.724   3.685  14.549
19819SOL     OW61295  10.357   5.779  11.503
19819SOL    HW161296  10.422   5.793  11.434
19819SOL    HW261297  10.275   5.813  11.465
19820SOL     OW61298   9.069   4.438  14.448
19820SOL    HW161299   8.986   4.466  14.408
19820SOL    HW261300   9.111   4.386  14.380
19821SOL     OW61301  10.744   6.330  12.471
19821SOL    HW161302  10.816   6.386  12.498
19821SOL    HW261303  10.773   6.293  12.387
19822SOL     OW61304   0.847   0.632   0.077
19822SOL    HW161305   0.940   0.618   0.059
19822SOL    HW261306   0.816   0.682   0.001
19823SOL     OW61307   2.050   0.466  11.162
19823SOL    HW161308   2.112   0.532  11.194
19823SOL    HW261309   2.094   0.382  11.179
19824SOL     OW61310   4.633  12.834  10.102
19824SOL    HW161311   4.691  12.895  10.056
19824SOL    HW261312   4.575  12.890  10.154
19825SOL     OW61313  11.111   3.160   0.296
19825SOL    HW161314  11.100   3.253   0.279
19825SOL    HW261315  11.162   3.127   0.222
19826SOL     OW61316  11.076   8.487  12.155
19826SOL    HW161317  11.128   8.471  12.234
19826SOL    HW261318  10.998   8.432  12.166
19827SOL     OW61319  10.047   5.464   8.457
19827SOL    HW161320  10.018   5.540   8.405
19827SOL    HW261321  10.083   5.502   8.537
19828SOL     OW61322   5.456   2.787  14.810
19828SOL    HW161323   5.533   2.823  14.854
19828SOL    HW261324   5.474   2.693  14.802
19829SOL     OW61325  12.358  10.267  14.338
19829SOL    HW161326  12.450  10.289  14.323
19829SOL    HW261327  12.316  10.350  14.360
19830SOL     OW61328   4.955   7.253   7.331
19830SOL    HW161329   4.881   7.258   7.270
19830SOL    HW261330   4.939   7.323   7.394
19831SOL     OW61331   1.559   5.121   6.987
19831SOL    HW161332   1.567   5.172   7.068
19831SOL    HW261333   1.572   5.185   6.917
19832SOL     OW61334  11.136   9.631   6.445
19832SOL    HW161335  11.208   9.669   6.394
19832SOL    HW261336  11.067   9.615   6.381
19833SOL     OW61337   7.851   3.015   7.044
19833SOL    HW161338   7.880   3.030   6.954
19833SOL    HW261339   7.861   3.100   7.088
19834SOL     OW61340  14.420   0.044   3.454
19834SOL    HW161341  14.390   0.070   3.367
19834SOL    HW261342  14.366   0.095   3.514
19835SOL     OW61343   9.167   8.146   5.372
19835SOL    HW161344   9.262   8.134   5.375
19835SOL    HW261345   9.133   8.083   5.436
19836SOL     OW61346   1.830   2.508   4.535
19836SOL    HW161347   1.747   2.466   4.515
19836SOL    HW261348   1.809   2.572   4.603
19837SOL     OW61349   1.492  11.411   6.185
19837SOL    HW161350   1.532  11.334   6.145
19837SOL    HW261351   1.422  11.436   6.126
19838SOL     OW61352   5.776   3.850  12.083
19838SOL    HW161353   5.758   3.767  12.127
19838SOL    HW261354   5.871   3.854  12.074
19839SOL     OW61355   2.199   6.997   8.159
19839SOL    HW161356   2.243   6.931   8.212
19839SOL    HW261357   2.143   6.947   8.099
19840SOL     OW61358   7.464   8.116   7.257
19840SOL    HW161359   7.435   8.082   7.342
19840SOL    HW261360   7.478   8.038   7.203
19841SOL     OW61361   0.836  11.275  10.679
19841SOL    HW161362   0.911  11.232  10.720
19841SOL    HW261363   0.834  11.362  10.719
19842SOL     OW61364   3.789  13.521   7.279
19842SOL    HW161365   3.766  13.428   7.285
19842SOL    HW261366   3.867  13.523   7.224
19843SOL     OW61367   6.761   1.447   7.415
19843SOL    HW161368   6.725   1.470   7.500
19843SOL    HW261369   6.782   1.531   7.374
19844SOL     OW61370   8.185   5.796  11.234
19844SOL    HW161371   8.263   5.796  11.178
19844SOL    HW261372   8.190   5.879  11.281
19845SOL     OW61373  14.472   6.402   1.387
19845SOL    HW161374  14.456   6.352   1.308
19845SOL    HW261375  14.418   6.480   1.379
19846SOL     OW61376   0.335   0.278   7.330
19846SOL    HW161377   0.243   0.286   7.303
19846SOL    HW261378   0.385   0.301   7.252
19847SOL     OW61379  10.744   4.975  11.812
19847SOL    HW161380  10.832   4.990  11.847
19847SOL    HW261381  10.686   4.999  11.884
19848SOL     OW61382   5.013   9.883   9.560
19848SOL    HW161383   5.022   9.817   9.629
19848SOL    HW261384   4.924   9.870   9.527
19849SOL     OW61385  12.287   7.712  10.284
19849SOL    HW161386  12.302   7.639  10.343
19849SOL    HW261387  12.198   7.742  10.304
19850SOL     OW61388  11.252   5.258   1.435
19850SOL    HW161389  11.337   5.274   1.475
19850SOL    HW261390  11.211   5.344   1.430
19851SOL     OW61391   2.251   0.937   7.027
19851SOL    HW161392   2.312   0.895   7.087
19851SOL    HW261393   2.206   0.864   6.984
19852SOL     OW61394   1.741  11.074   0.078
19852SOL    HW161395   1.695  11.090  14.877
19852SOL    HW261396   1.695  11.000   0.117
19853SOL     OW61397  12.973   4.562  12.040
19853SOL    HW161398  13.062   4.596  12.042
19853SOL    HW261399  12.946   4.569  11.948
19854SOL     OW61400  13.148   8.185   5.121
19854SOL    HW161401  13.176   8.172   5.211
19854SOL    HW261402  13.172   8.275   5.100
19855SOL     OW61403  13.650   2.801   0.324
19855SOL    HW161404  13.557   2.785   0.342
19855SOL    HW261405  13.652   2.831   0.233
19856SOL     OW61406   3.654   5.964  12.575
19856SOL    HW161407   3.681   5.945  12.664
19856SOL    HW261408   3.570   5.919  12.565
19857SOL     OW61409  11.995  14.530  14.880
19857SOL    HW161410  12.025  14.567   0.081
19857SOL    HW261411  11.929  14.465   0.023
19858SOL     OW61412  10.439   8.365   6.150
19858SOL    HW161413  10.400   8.451   6.141
19858SOL    HW261414  10.389   8.323   6.221
19859SOL     OW61415   8.525  12.222   2.928
19859SOL    HW161416   8.435  12.192   2.946
19859SOL    HW261417   8.531  12.306   2.971
19860SOL     OW61418  13.895  12.647   9.185
19860SOL    HW161419  13.966  12.590   9.155
19860SOL    HW261420  13.857  12.599   9.259
19861SOL     OW61421  12.649  11.031   9.431
19861SOL    HW161422  12.676  11.074   9.350
19861SOL    HW261423  12.728  10.984   9.460
19862SOL     OW61424   7.890   0.955  12.820
19862SOL    HW161425   7.903   1.009  12.899
19862SOL    HW261426   7.813   0.902  12.841
19863SOL     OW61427   3.128  10.021   5.114
19863SOL    HW161428   3.210  10.070   5.115
19863SOL    HW261429   3.151   9.934   5.148
19864SOL     OW61430   2.975   3.697   4.068
19864SOL    HW161431   3.023   3.747   4.135
19864SOL    HW261432   3.032   3.622   4.049
19865SOL     OW61433   4.937   0.022   0.800
19865SOL    HW161434   5.025   0.056   0.787
19865SOL    HW261435   4.944  14.810   0.782
19866SOL     OW61436   5.567   0.766   6.607
19866SOL    HW161437   5.519   0.786   6.526
19866SOL    HW261438   5.628   0.839   6.616
19867SOL     OW61439   1.892  14.738  10.236
19867SOL    HW161440   1.928  14.806  10.178
19867SOL    HW261441   1.908  14.656  10.188
19868SOL     OW61442   4.326   1.743  12.506
19868SOL    HW161443   4.278   1.693  12.440
19868SOL    HW261444   4.373   1.676  12.556
19869SOL     OW61445   3.464  13.536   0.088
19869SOL    HW161446   3.400  13.581   0.032
19869SOL    HW261447   3.455  13.578   0.173
19870SOL     OW61448   0.541   2.911   3.301
19870SOL    HW161449   0.589   2.990   3.326
19870SOL    HW261450   0.467   2.942   3.250
19871SOL     OW61451   8.144   7.073   9.173
19871SOL    HW161452   8.127   7.009   9.242
19871SOL    HW261453   8.209   7.031   9.117
19872SOL     OW61454   0.810   6.710   8.542
19872SOL    HW161455   0.773   6.732   8.628
19872SOL    HW261456   0.758   6.761   8.480
19873SOL     OW61457   3.945   8.742  13.885
19873SOL    HW161458   3.918   8.653  13.865
19873SOL    HW261459   4.040   8.738  13.890
19874SOL     OW61460   3.105   8.319   9.061
19874SOL    HW161461   3.142   8.360   9.139
19874SOL    HW261462   3.068   8.392   9.011
19875SOL     OW61463   0.002   0.884   6.453
19875SOL    HW161464   0.088   0.924   6.469
19875SOL    HW261465  14.871   0.892   6.358
19876SOL     OW61466  12.446  14.803   1.830
19876SOL    HW161467  12.533  14.807   1.789
19876SOL    HW261468  12.464  14.788   1.923
19877SOL     OW61469   5.819   0.084  10.544
19877SOL    HW161470   5.858   0.093  10.457
19877SOL    HW261471   5.829   0.171  10.583
19878SOL     OW61472  11.214   5.419   4.500
19878SOL    HW161473  11.143   5.447   4.559
19878SOL    HW261474  11.190   5.456   4.415
19879SOL     OW61475   3.967   1.202   3.247
19879SOL    HW161476   4.040   1.259   3.223
19879SOL    HW261477   3.900   1.262   3.281
19880SOL     OW61478  12.102  11.402   5.530
19880SOL    HW161479  12.115  11.372   5.440
19880SOL    HW261480  12.188  11.393   5.571
19881SOL     OW61481   7.647   9.185  14.291
19881SOL    HW161482   7.583   9.125  14.328
19881SOL    HW261483   7.595   9.253  14.248
19882SOL     OW61484  10.561   2.847   8.058
19882SOL    HW161485  10.599   2.832   7.972
19882SOL    HW261486  10.628   2.815   8.119
19883SOL     OW61487  10.639   4.574   9.598
19883SOL    HW161488  10.562   4.544   9.550
19883SOL    HW261489  10.666   4.653   9.552
19884SOL     OW61490  14.548   8.176  11.653
19884SOL    HW161491  14.609   8.177  11.580
19884SOL    HW261492  14.603   8.166  11.731
19885SOL     OW61493   3.627   8.105   0.874
19885SOL    HW161494   3.567   8.158   0.927
19885SOL    HW261495   3.675   8.169   0.822
19886SOL     OW61496   2.698   9.894   7.547
19886SOL    HW161497   2.667   9.953   7.615
19886SOL    HW261498   2.789   9.920   7.531
19887SOL     OW61499   8.722  14.098  13.477
19887SOL    HW161500   8.641  14.077  13.524
19887SOL    HW261501   8.740  14.019  13.426
19888SOL     OW61502   8.412  10.701   9.330
19888SOL    HW161503   8.394  10.609   9.351
19888SOL    HW261504   8.333  10.747   9.357
19889SOL     OW61505  11.181   9.105   2.363
19889SOL    HW161506  11.246   9.084   2.430
19889SOL    HW261507  11.177   9.200   2.363
19890SOL     OW61508   8.079  12.893  10.640
19890SOL    HW161509   8.019  12.880  10.566
19890SOL    HW261510   8.105  12.985  10.634
19891SOL     OW61511  14.007  13.645   0.685
19891SOL    HW161512  14.002  13.551   0.699
19891SOL    HW261513  13.924  13.668   0.645
19892SOL     OW61514  12.074   7.710   5.379
19892SOL    HW161515  12.102   7.801   5.368
19892SOL    HW261516  12.077   7.696   5.473
19893SOL     OW61517   4.586   1.578  12.184
19893SOL    HW161518   4.593   1.673  12.199
19893SOL    HW261519   4.588   1.540  12.272
19894SOL     OW61520   1.166   8.358   6.956
19894SOL    HW161521   1.239   8.410   6.921
19894SOL    HW261522   1.159   8.384   7.047
19895SOL     OW61523  14.087   4.096  11.823
19895SOL    HW161524  14.081   4.042  11.744
19895SOL    HW261525  14.180   4.101  11.842
19896SOL     OW61526  12.939   4.867  12.205
19896SOL    HW161527  12.914   4.908  12.288
19896SOL    HW261528  12.982   4.785  12.231
19897SOL     OW61529  11.768  14.755   0.768
19897SOL    HW161530  11.767  14.849   0.788
19897SOL    HW261531  11.804  14.750   0.680
19898SOL     OW61532   1.252   2.997   9.707
19898SOL    HW161533   1.158   3.015   9.714
19898SOL    HW261534   1.271   2.940   9.781
19899SOL     OW61535  14.568   7.269   4.897
19899SOL    HW161536  14.494   7.275   4.836
19899SOL    HW261537  14.615   7.190   4.869
19900SOL     OW61538   4.175  12.590   2.932
19900SOL    HW161539   4.167  12.636   3.016
19900SOL    HW261540   4.121  12.642   2.872
19901SOL     OW61541   2.868   4.994   3.604
19901SOL    HW161542   2.893   5.016   3.514
19901SOL    HW261543   2.773   5.008   3.605
19902SOL     OW61544  13.900   1.109   5.393
19902SOL    HW161545  13.935   1.100   5.304
19902SOL    HW261546  13.812   1.071   5.388
19903SOL     OW61547  12.093   1.223  13.118
19903SOL    HW161548  12.011   1.211  13.166
19903SOL    HW261549  12.108   1.138  13.075
19904SOL     OW61550   3.185   1.210   1.667
19904SOL    HW161551   3.142   1.249   1.743
19904SOL    HW261552   3.126   1.231   1.594
19905SOL     OW61553  11.294   9.149   1.784
19905SOL    HW161554  11.383   9.181   1.801
19905SOL    HW261555  11.300   9.054   1.798
19906SOL     OW61556   1.971   4.935  14.854
19906SOL    HW161557   1.939   4.875   0.038
19906SOL    HW261558   2.042   4.888  14.811
19907SOL     OW61559   9.327   6.725   2.469
19907SOL    HW161560   9.351   6.721   2.376
19907SOL    HW261561   9.388   6.665   2.512
19908SOL     OW61562  11.758   3.749   5.658
19908SOL    HW161563  11.717   3.759   5.572
19908SOL    HW261564  11.852   3.740   5.639
19909SOL     OW61565   2.010   7.019  10.051
19909SOL    HW161566   2.086   7.075  10.044
19909SOL    HW261567   1.943   7.062   9.998
19910SOL     OW61568   8.762  12.861   1.864
19910SOL    HW161569   8.822  12.891   1.932
19910SOL    HW261570   8.796  12.776   1.837
19911SOL     OW61571  14.331   4.897   7.168
19911SOL    HW161572  14.283   4.979   7.168
19911SOL    HW261573  14.325   4.866   7.258
19912SOL     OW61574   5.415  13.880   1.134
19912SOL    HW161575   5.378  13.867   1.221
19912SOL    HW261576   5.492  13.935   1.147
19913SOL     OW61577   8.448   7.107   9.553
19913SOL    HW161578   8.491   7.024   9.575
19913SOL    HW261579   8.499   7.174   9.599
19914SOL     OW61580   3.282   7.468   0.200
19914SOL    HW161581   3.328   7.385   0.187
19914SOL    HW261582   3.306   7.521   0.124
19915SOL     OW61583  10.402   8.937   1.795
19915SOL    HW161584  10.362   8.902   1.715
19915SOL    HW261585  10.433   8.860   1.843
19916SOL     OW61586  10.463  14.278   0.711
19916SOL    HW161587  10.457  14.190   0.749
19916SOL    HW261588  10.475  14.263   0.618
19917SOL     OW61589   5.674   9.554  12.990
19917SOL    HW161590   5.723   9.581  12.912
19917SOL    HW261591   5.582   9.559  12.964
19918SOL     OW61592   3.484   2.602   7.320
19918SOL    HW161593   3.440   2.661   7.381
19918SOL    HW261594   3.518   2.658   7.251
19919SOL     OW61595   9.412   8.409  13.041
19919SOL    HW161596   9.318   8.424  13.033
19919SOL    HW261597   9.420   8.340  13.107
19920SOL     OW61598   9.027   1.781   3.437
19920SOL    HW161599   9.094   1.717   3.460
19920SOL    HW261600   8.957   1.730   3.396
19921SOL     OW61601  14.529   5.525   3.228
19921SOL    HW161602  14.611   5.476   3.222
19921SOL    HW261603  14.535   5.591   3.158
19922SOL     OW61604   3.727   5.708   3.088
19922SOL    HW161605   3.648   5.740   3.044
19922SOL    HW261606   3.766   5.646   3.026
19923SOL     OW61607   6.814   5.568  11.992
19923SOL    HW161608   6.789   5.637  12.054
19923SOL    HW261609   6.826   5.491  12.047
19924SOL     OW61610  11.230   8.811   5.990
19924SOL    HW161611  11.166   8.871   5.952
19924SOL    HW261612  11.199   8.796   6.080
19925SOL     OW61613  11.999   6.987   8.340
19925SOL    HW161614  12.077   6.948   8.379
19925SOL    HW261615  11.973   6.926   8.271
19926SOL     OW61616  14.256   1.188   9.222
19926SOL    HW161617  14.233   1.138   9.300
19926SOL    HW261618  14.343   1.157   9.199
19927SOL     OW61619   7.875  11.712  14.608
19927SOL    HW161620   7.900  11.736  14.698
19927SOL    HW261621   7.797  11.765  14.591
19928SOL     OW61622   6.471   3.512   6.024
19928SOL    HW161623   6.475   3.435   5.967
19928SOL    HW261624   6.402   3.491   6.087
19929SOL     OW61625  13.092  12.722   2.160
19929SOL    HW161626  13.097  12.758   2.072
19929SOL    HW261627  13.075  12.797   2.216
19930SOL     OW61628  10.676   8.770   3.767
19930SOL    HW161629  10.602   8.824   3.739
19930SOL    HW261630  10.741   8.833   3.798
19931SOL     OW61631   1.711   4.068   5.082
19931SOL    HW161632   1.750   4.154   5.066
19931SOL    HW261633   1.730   4.018   5.003
19932SOL     OW61634   3.506   0.037   0.516
19932SOL    HW161635   3.541   0.031   0.428
19932SOL    HW261636   3.431  14.858   0.516
19933SOL     OW61637   2.178   4.165  10.464
19933SOL    HW161638   2.129   4.106  10.407
19933SOL    HW261639   2.113   4.222  10.502
19934SOL     OW61640   0.798  11.210   2.790
19934SOL    HW161641   0.765  11.261   2.864
19934SOL    HW261642   0.862  11.150   2.828
19935SOL     OW61643   6.388   3.898   5.917
19935SOL    HW161644   6.326   3.965   5.887
19935SOL    HW261645   6.349   3.816   5.888
19936SOL     OW61646   0.555   5.158  13.749
19936SOL    HW161647   0.501   5.237  13.746
19936SOL    HW261648   0.517   5.100  13.683
19937SOL     OW61649  10.183  14.829  13.611
19937SOL    HW161650  10.126  14.869  13.677
19937SOL    HW261651  10.261   0.003  13.611
19938SOL     OW61652   7.180  13.270  12.346
19938SOL    HW161653   7.213  13.351  12.309
19938SOL    HW261654   7.211  13.202  12.286
19939SOL     OW61655  13.722  12.751   5.351
19939SOL    HW161656  13.779  12.674   5.349
19939SOL    HW261657  13.778  12.824   5.328
19940SOL     OW61658  12.384   3.634  14.811
19940SOL    HW161659  12.420   3.589  14.734
19940SOL    HW261660  12.456   3.637  14.873
19941SOL     OW61661   9.442  14.533   2.941
19941SOL    HW161662   9.475  14.617   2.973
19941SOL    HW261663   9.472  14.470   3.007
19942SOL     OW61664   4.873   9.693  12.010
19942SOL    HW161665   4.892   9.694  12.104
19942SOL    HW261666   4.869   9.785  11.985
19943SOL     OW61667   8.740  14.694   8.642
19943SOL    HW161668   8.681  14.700   8.567
19943SOL    HW261669   8.754  14.600   8.654
19944SOL     OW61670   0.002  10.040  13.066
19944SOL    HW161671  14.817  10.108  13.076
19944SOL    HW261672   0.074  10.084  13.022
19945SOL     OW61673   9.776   1.142  13.029
19945SOL    HW161674   9.849   1.203  13.015
19945SOL    HW261675   9.710   1.169  12.966
19946SOL     OW61676  14.437   1.206   8.586
19946SOL    HW161677  14.479   1.167   8.509
19946SOL    HW261678  14.507   1.256   8.629
19947SOL     OW61679   1.385  10.051  13.111
19947SOL    HW161680   1.450  10.000  13.063
19947SOL    HW261681   1.303  10.035  13.066
19948SOL     OW61682   8.363   1.533   3.739
19948SOL    HW161683   8.454   1.540   3.769
19948SOL    HW261684   8.323   1.469   3.798
19949SOL     OW61685  11.196  13.165   7.324
19949SOL    HW161686  11.181  13.247   7.277
19949SOL    HW261687  11.129  13.165   7.393
19950SOL     OW61688   3.786   1.548   7.097
19950SOL    HW161689   3.694   1.524   7.090
19950SOL    HW261690   3.832   1.488   7.039
19951SOL     OW61691   0.234  10.994   7.017
19951SOL    HW161692   0.289  10.920   6.988
19951SOL    HW261693   0.273  11.022   7.099
19952SOL     OW61694  10.474  10.145  10.328
19952SOL    HW161695  10.382  10.166  10.309
19952SOL    HW261696  10.470  10.096  10.410
19953SOL     OW61697   7.730   1.312   4.928
19953SOL    HW161698   7.765   1.290   4.842
19953SOL    HW261699   7.678   1.391   4.913
19954SOL     OW61700   3.356  14.516   5.211
19954SOL    HW161701   3.386  14.587   5.267
19954SOL    HW261702   3.261  14.527   5.206
19955SOL     OW61703   6.732  12.695  12.702
19955SOL    HW161704   6.705  12.739  12.782
19955SOL    HW261705   6.674  12.731  12.634
19956SOL     OW61706  10.144   6.729  11.033
19956SOL    HW161707  10.149   6.715  10.939
19956SOL    HW261708  10.156   6.823  11.044
19957SOL     OW61709   2.317   4.651   2.296
19957SOL    HW161710   2.279   4.722   2.348
19957SOL    HW261711   2.358   4.593   2.361
19958SOL     OW61712   8.212  13.017   8.933
19958SOL    HW161713   8.121  13.013   8.904
19958SOL    HW261714   8.263  13.020   8.852
19959SOL     OW61715   8.190  14.333   8.242
19959SOL    HW161716   8.104  14.367   8.218
19959SOL    HW261717   8.230  14.403   8.293
19960SOL     OW61718   1.699   1.790  13.090
19960SOL    HW161719   1.616   1.798  13.136
19960SOL    HW261720   1.725   1.880  13.071
19961SOL     OW61721   2.958   8.433   1.878
19961SOL    HW161722   3.034   8.376   1.865
19961SOL    HW261723   2.986   8.518   1.845
19962SOL     OW61724  11.966  14.405   6.032
19962SOL    HW161725  12.026  14.364   6.094
19962SOL    HW261726  11.895  14.440   6.087
19963SOL     OW61727   1.798  13.341   4.678
19963SOL    HW161728   1.812  13.336   4.584
19963SOL    HW261729   1.709  13.375   4.687
19964SOL     OW61730  11.036   5.358   6.071
19964SOL    HW161731  10.962   5.317   6.026
19964SOL    HW261732  11.096   5.384   6.000
19965SOL     OW61733   9.982  11.233   4.174
19965SOL    HW161734  10.056  11.184   4.209
19965SOL    HW261735  10.021  11.295   4.112
19966SOL     OW61736   4.736   7.948  12.742
19966SOL    HW161737   4.741   7.925  12.835
19966SOL    HW261738   4.743   8.044  12.741
19967SOL     OW61739   7.098  11.017   2.970
19967SOL    HW161740   7.048  11.085   2.925
19967SOL    HW261741   7.092  10.941   2.912
19968SOL     OW61742   1.627   3.886   7.145
19968SOL    HW161743   1.664   3.974   7.142
19968SOL    HW261744   1.678   3.841   7.212
19969SOL     OW61745  14.739   2.670  11.341
19969SOL    HW161746  14.745   2.616  11.263
19969SOL    HW261747  14.829   2.698  11.358
19970SOL     OW61748  13.840  10.650   8.775
19970SOL    HW161749  13.854  10.577   8.715
19970SOL    HW261750  13.906  10.715   8.750
19971SOL     OW61751   4.258   0.542   8.712
19971SOL    HW161752   4.181   0.587   8.747
19971SOL    HW261753   4.223   0.462   8.672
19972SOL     OW61754   7.936   8.275  11.953
19972SOL    HW161755   7.952   8.369  11.957
19972SOL    HW261756   7.964   8.249  11.865
19973SOL     OW61757  12.502   4.119   2.627
19973SOL    HW161758  12.544   4.095   2.544
19973SOL    HW261759  12.566   4.177   2.670
19974SOL     OW61760   6.705  11.340   1.765
19974SOL    HW161761   6.625  11.317   1.813
19974SOL    HW261762   6.689  11.309   1.676
19975SOL     OW61763   8.958   9.827   0.402
19975SOL    HW161764   9.009   9.782   0.470
19975SOL    HW261765   8.868   9.803   0.420
19976SOL     OW61766  10.871  11.916   3.267
19976SOL    HW161767  10.777  11.922   3.286
19976SOL    HW261768  10.876  11.902   3.172
19977SOL     OW61769   8.734   8.408  11.869
19977SOL    HW161770   8.676   8.383  11.941
19977SOL    HW261771   8.709   8.497  11.847
19978SOL     OW61772   9.167   5.295   1.107
19978SOL    HW161773   9.110   5.236   1.058
19978SOL    HW261774   9.252   5.250   1.109
19979SOL     OW61775  12.960   2.243  14.413
19979SOL    HW161776  13.035   2.200  14.453
19979SOL    HW261777  12.981   2.336  14.417
19980SOL     OW61778   2.671  13.739   8.864
19980SOL    HW161779   2.732  13.666   8.854
19980SOL    HW261780   2.609  13.729   8.791
19981SOL     OW61781   0.506   2.905   6.251
19981SOL    HW161782   0.424   2.927   6.208
19981SOL    HW261783   0.574   2.931   6.189
19982SOL     OW61784  13.987   6.864   6.813
19982SOL    HW161785  13.923   6.920   6.768
19982SOL    HW261786  14.017   6.917   6.887
19983SOL     OW61787   9.440  13.361   4.951
19983SOL    HW161788   9.374  13.292   4.943
19983SOL    HW261789   9.499  13.329   5.020
19984SOL     OW61790   1.038   4.957   0.739
19984SOL    HW161791   1.090   4.879   0.760
19984SOL    HW261792   0.948   4.925   0.733
19985SOL     OW61793   9.098   6.340   9.857
19985SOL    HW161794   9.146   6.366   9.778
19985SOL    HW261795   9.151   6.375   9.929
19986SOL     OW61796   5.153   4.170  12.143
19986SOL    HW161797   5.097   4.105  12.185
19986SOL    HW261798   5.105   4.252  12.152
19987SOL     OW61799   6.957   3.419   0.502
19987SOL    HW161800   6.956   3.323   0.499
19987SOL    HW261801   7.039   3.444   0.458
19988SOL     OW61802   0.175   0.375   4.093
19988SOL    HW161803   0.236   0.445   4.117
19988SOL    HW261804   0.227   0.314   4.041
19989SOL     OW61805   7.232   7.013   3.962
19989SOL    HW161806   7.145   7.031   3.999
19989SOL    HW261807   7.218   6.936   3.907
19990SOL     OW61808   3.500   4.238   8.714
19990SOL    HW161809   3.515   4.160   8.767
19990SOL    HW261810   3.581   4.250   8.665
19991SOL     OW61811   4.829   7.000  14.731
19991SOL    HW161812   4.797   7.075  14.781
19991SOL    HW261813   4.758   6.937  14.734
19992SOL     OW61814  10.781   7.517   5.946
19992SOL    HW161815  10.815   7.478   5.865
19992SOL    HW261816  10.750   7.604   5.920
19993SOL     OW61817   1.595   5.661   9.488
19993SOL    HW161818   1.515   5.708   9.507
19993SOL    HW261819   1.651   5.676   9.564
19994SOL     OW61820   0.437  14.524   6.406
19994SOL    HW161821   0.458  14.611   6.440
19994SOL    HW261822   0.484  14.464   6.463
19995SOL     OW61823  12.855   3.977  10.651
19995SOL    HW161824  12.906   3.960  10.730
19995SOL    HW261825  12.764   3.959  10.676
19996SOL     OW61826   5.738   2.495   3.408
19996SOL    HW161827   5.684   2.574   3.404
19996SOL    HW261828   5.801   2.506   3.336
19997SOL     OW61829  13.044  12.563   0.078
19997SOL    HW161830  13.046  12.657   0.062
19997SOL    HW261831  13.043  12.525  14.872
19998SOL     OW61832   9.950   9.959  14.850
19998SOL    HW161833   9.968  10.027   0.034
19998SOL    HW261834   9.857   9.967  14.831
19999SOL     OW61835   8.157  12.920  13.640
19999SOL    HW161836   8.252  12.924  13.651
19999SOL    HW261837   8.138  12.829  13.617
20000SOL     OW61838   9.445   8.266   2.369
20000SOL    HW161839   9.521   8.312   2.403
20000SOL    HW261840   9.472   8.238   2.281
20001SOL     OW61841   1.496  11.330   0.613
20001SOL    HW161842   1.501  11.247   0.660
20001SOL    HW261843   1.404  11.354   0.615
20002SOL     OW61844  13.300  12.218   8.954
20002SOL    HW161845  13.242  12.278   9.002
20002SOL    HW261846  13.284  12.238   8.862
20003SOL     OW61847   0.979   9.123   2.583
20003SOL    HW161848   1.045   9.192   2.583
20003SOL    HW261849   0.945   9.121   2.672
20004SOL     OW61850  10.367   3.148  13.936
20004SOL    HW161851  10.447   3.096  13.939
20004SOL    HW261852  10.352   3.164  13.843
20005SOL     OW61853   0.862   0.724   9.979
20005SOL    HW161854   0.910   0.654  10.023
20005SOL    HW261855   0.928   0.769   9.927
20006SOL     OW61856  11.641   1.781   8.420
20006SOL    HW161857  11.632   1.801   8.514
20006SOL    HW261858  11.662   1.866   8.380
20007SOL     OW61859   3.664  12.515  11.916
20007SOL    HW161860   3.631  12.603  11.897
20007SOL    HW261861   3.706  12.488  11.834
20008SOL     OW61862   7.323  10.032  13.667
20008SOL    HW161863   7.349   9.952  13.622
20008SOL    HW261864   7.228  10.037  13.656
20009SOL     OW61865   3.671   6.784  11.296
20009SOL    HW161866   3.688   6.861  11.240
20009SOL    HW261867   3.641   6.821  11.379
20010SOL     OW61868   0.335  13.226   4.936
20010SOL    HW161869   0.254  13.176   4.935
20010SOL    HW261870   0.396  13.174   4.883
20011SOL     OW61871   5.046   7.149  14.711
20011SOL    HW161872   5.007   7.068  14.745
20011SOL    HW261873   4.973   7.198  14.674
20012SOL     OW61874   6.898   6.443   5.953
20012SOL    HW161875   6.937   6.359   5.980
20012SOL    HW261876   6.805   6.424   5.941
20013SOL     OW61877  14.077   3.452   7.752
20013SOL    HW161878  13.992   3.445   7.793
20013SOL    HW261879  14.069   3.525   7.691
20014SOL     OW61880   9.722   4.573  11.556
20014SOL    HW161881   9.630   4.548  11.559
20014SOL    HW261882   9.729   4.631  11.480
20015SOL     OW61883   1.850   1.045   3.590
20015SOL    HW161884   1.881   0.957   3.568
20015SOL    HW261885   1.799   1.073   3.514
20016SOL     OW61886   2.684   0.957   0.673
20016SOL    HW161887   2.713   0.879   0.721
20016SOL    HW261888   2.707   1.030   0.730
20017SOL     OW61889  13.214  13.653   8.318
20017SOL    HW161890  13.164  13.590   8.266
20017SOL    HW261891  13.148  13.697   8.372
20018SOL     OW61892   9.784   7.445   1.713
20018SOL    HW161893   9.708   7.432   1.770
20018SOL    HW261894   9.847   7.379   1.742
20019SOL     OW61895  10.696   7.748   6.557
20019SOL    HW161896  10.655   7.826   6.594
20019SOL    HW261897  10.654   7.737   6.472
20020SOL     OW61898   4.421   0.383   4.197
20020SOL    HW161899   4.407   0.466   4.242
20020SOL    HW261900   4.396   0.316   4.261
20021SOL     OW61901   4.852   0.178   9.921
20021SOL    HW161902   4.903   0.252   9.890
20021SOL    HW261903   4.761   0.206   9.914
20022SOL     OW61904  10.451   6.038   0.977
20022SOL    HW161905  10.498   5.979   0.918
20022SOL    HW261906  10.358   6.023   0.957
20023SOL     OW61907   7.222  14.391  14.653
20023SOL    HW161908   7.204  14.417  14.562
20023SOL    HW261909   7.150  14.428  14.703
20024SOL     OW61910   5.176   3.710  12.995
20024SOL    HW161911   5.161   3.676  12.907
20024SOL    HW261912   5.245   3.654  13.031
20025SOL     OW61913   5.018   3.961   0.674
20025SOL    HW161914   5.051   3.944   0.762
20025SOL    HW261915   4.976   3.879   0.648
20026SOL     OW61916   7.757   0.285  10.234
20026SOL    HW161917   7.792   0.355  10.179
20026SOL    HW261918   7.834   0.241  10.269
20027SOL     OW61919  13.202  10.381  14.816
20027SOL    HW161920  13.223  10.291  14.792
20027SOL    HW261921  13.119  10.400  14.772
20028SOL     OW61922   9.337   9.743   6.673
20028SOL    HW161923   9.348   9.699   6.758
20028SOL    HW261924   9.412   9.714   6.621
20029SOL     OW61925   3.822   4.641   0.163
20029SOL    HW161926   3.752   4.583   0.135
20029SOL    HW261927   3.858   4.677   0.082
20030SOL     OW61928   0.158   0.446   9.600
20030SOL    HW161929   0.062   0.440   9.605
20030SOL    HW261930   0.185   0.470   9.689
20031SOL     OW61931  13.010   7.694   1.946
20031SOL    HW161932  12.944   7.625   1.958
20031SOL    HW261933  13.065   7.689   2.024
20032SOL     OW61934   2.185   1.498   7.022
20032SOL    HW161935   2.277   1.482   7.041
20032SOL    HW261936   2.141   1.492   7.107
20033SOL     OW61937   5.733   1.939   0.486
20033SOL    HW161938   5.734   1.853   0.443
20033SOL    HW261939   5.819   1.947   0.526
20034SOL     OW61940   3.470   6.288   9.146
20034SOL    HW161941   3.429   6.257   9.226
20034SOL    HW261942   3.440   6.228   9.078
20035SOL     OW61943  10.653   8.461   1.039
20035SOL    HW161944  10.703   8.401   1.094
20035SOL    HW261945  10.562   8.432   1.049
20036SOL     OW61946   3.892   1.606  14.507
20036SOL    HW161947   3.933   1.666  14.570
20036SOL    HW261948   3.963   1.579  14.450
20037SOL     OW61949   6.923  12.272   0.986
20037SOL    HW161950   7.016  12.290   0.974
20037SOL    HW261951   6.905  12.300   1.076
20038SOL     OW61952   1.269  10.647   5.660
20038SOL    HW161953   1.318  10.666   5.580
20038SOL    HW261954   1.335  10.611   5.720
20039SOL     OW61955   2.168   3.191   8.492
20039SOL    HW161956   2.208   3.263   8.540
20039SOL    HW261957   2.237   3.157   8.435
20040SOL     OW61958  12.852   7.042   8.967
20040SOL    HW161959  12.826   7.048   9.059
20040SOL    HW261960  12.908   7.118   8.953
20041SOL     OW61961   0.198   0.620  12.406
20041SOL    HW161962   0.163   0.629  12.494
20041SOL    HW261963   0.185   0.527  12.384
20042SOL     OW61964   3.633  11.440   2.647
20042SOL    HW161965   3.586  11.461   2.566
20042SOL    HW261966   3.574  11.383   2.695
20043SOL     OW61967   2.444   8.011  12.888
20043SOL    HW161968   2.376   7.969  12.940
20043SOL    HW261969   2.480   7.941  12.834
20044SOL     OW61970  11.959  11.938   6.573
20044SOL    HW161971  11.873  11.968   6.544
20044SOL    HW261972  11.962  11.845   6.551
20045SOL     OW61973   1.200   4.279   1.132
20045SOL    HW161974   1.172   4.338   1.202
20045SOL    HW261975   1.276   4.233   1.168
20046SOL     OW61976  11.429   6.721   1.605
20046SOL    HW161977  11.411   6.631   1.631
20046SOL    HW261978  11.443   6.717   1.511
20047SOL     OW61979   3.255   3.773  10.401
20047SOL    HW161980   3.213   3.710  10.342
20047SOL    HW261981   3.225   3.859  10.369
20048SOL     OW61982  11.622   4.544   4.576
20048SOL    HW161983  11.556   4.485   4.540
20048SOL    HW261984  11.571   4.614   4.616
20049SOL     OW61985   8.381   0.336   9.569
20049SOL    HW161986   8.472   0.343   9.600
20049SOL    HW261987   8.385   0.363   9.477
20050SOL     OW61988  10.692   7.089  12.690
20050SOL    HW161989  10.628   7.117  12.755
20050SOL    HW261990  10.652   7.013  12.648
20051SOL     OW61991   8.704  11.660   2.668
20051SOL    HW161992   8.735  11.597   2.733
20051SOL    HW261993   8.673  11.734   2.720
20052SOL     OW61994  12.743  14.239   3.777
20052SOL    HW161995  12.722  14.198   3.693
20052SOL    HW261996  12.800  14.312   3.754
20053SOL     OW61997   3.694  10.354   7.140
20053SOL    HW161998   3.646  10.423   7.186
20053SOL    HW261999   3.759  10.324   7.203
20054SOL     OW62000   4.163  14.110   2.387
20054SOL    HW162001   4.101  14.174   2.422
20054SOL    HW262002   4.201  14.152   2.311
20055SOL     OW62003   0.237  12.812   0.066
20055SOL    HW162004   0.253  12.779   0.155
20055SOL    HW262005   0.317  12.859   0.043
20056SOL     OW62006   3.590   1.618   2.588
20056SOL    HW162007   3.526   1.554   2.620
20056SOL    HW262008   3.547   1.702   2.597
20057SOL     OW62009   3.378   4.418  12.329
20057SOL    HW162010   3.296   4.459  12.305
20057SOL    HW262011   3.386   4.341  12.272
20058SOL     OW62012   1.345   4.975   6.918
20058SOL    HW162013   1.426   5.021   6.896
20058SOL    HW262014   1.372   4.886   6.939
20059SOL     OW62015  12.547  12.795   8.281
20059SOL    HW162016  12.512  12.821   8.366
20059SOL    HW262017  12.559  12.878   8.234
20060SOL     OW62018  10.096   9.189   2.824
20060SOL    HW162019  10.139   9.221   2.744
20060SOL    HW262020  10.029   9.129   2.792
20061SOL     OW62021   7.930   3.807   1.195
20061SOL    HW162022   7.950   3.725   1.150
20061SOL    HW262023   7.861   3.847   1.143
20062SOL     OW62024   5.792   2.201  12.477
20062SOL    HW162025   5.795   2.107  12.461
20062SOL    HW262026   5.818   2.211  12.569
20063SOL     OW62027  12.578   5.627  11.606
20063SOL    HW162028  12.564   5.597  11.696
20063SOL    HW262029  12.598   5.720  11.615
20064SOL     OW62030   3.977   7.684   8.819
20064SOL    HW162031   3.950   7.735   8.896
20064SOL    HW262032   3.919   7.608   8.819
20065SOL     OW62033   7.149  13.361  11.186
20065SOL    HW162034   7.150  13.369  11.281
20065SOL    HW262035   7.231  13.402  11.158
20066SOL     OW62036  10.934   5.406   1.507
20066SOL    HW162037  10.839   5.398   1.513
20066SOL    HW262038  10.963   5.413   1.598
20067SOL     OW62039   6.431   0.987   4.026
20067SOL    HW162040   6.373   1.042   3.974
20067SOL    HW262041   6.373   0.941   4.086
20068SOL     OW62042   0.963   6.359   5.854
20068SOL    HW162043   0.975   6.443   5.809
20068SOL    HW262044   0.877   6.366   5.896
20069SOL     OW62045  14.868   4.244  12.776
20069SOL    HW162046   0.057   4.215  12.719
20069SOL    HW262047  14.808   4.293  12.718
20070SOL     OW62048   9.068  11.497   2.113
20070SOL    HW162049   9.148  11.494   2.061
20070SOL    HW262050   9.093  11.461   2.198
20071SOL     OW62051   4.945   4.824   1.212
20071SOL    HW162052   5.003   4.886   1.257
20071SOL    HW262053   4.994   4.742   1.211
20072SOL     OW62054  13.205  14.729   8.141
20072SOL    HW162055  13.261  14.782   8.197
20072SOL    HW262056  13.265  14.681   8.085
20073SOL     OW62057   6.138  13.754   4.078
20073SOL    HW162058   6.114  13.666   4.049
20073SOL    HW262059   6.120  13.754   4.172
20074SOL     OW62060   6.241   8.488   7.612
20074SOL    HW162061   6.168   8.538   7.647
20074SOL    HW262062   6.286   8.453   7.689
20075SOL     OW62063  14.524   8.695   5.518
20075SOL    HW162064  14.601   8.735   5.478
20075SOL    HW262065  14.549   8.603   5.532
20076SOL     OW62066  14.422   5.292   4.436
20076SOL    HW162067  14.410   5.245   4.354
20076SOL    HW262068  14.339   5.338   4.450
20077SOL     OW62069   6.770  12.868   0.674
20077SOL    HW162070   6.790  12.825   0.591
20077SOL    HW262071   6.688  12.829   0.703
20078SOL     OW62072  13.442  10.516   3.808
20078SOL    HW162073  13.377  10.583   3.786
20078SOL    HW262074  13.392  10.434   3.808
20079SOL     OW62075  13.247  14.670   3.502
20079SOL    HW162076  13.260  14.604   3.434
20079SOL    HW262077  13.152  14.668   3.519
20080SOL     OW62078  14.875  10.305  12.647
20080SOL    HW162079  14.783  10.279  12.638
20080SOL    HW262080   0.005  10.319  12.741
20081SOL     OW62081   1.628   8.513   8.116
20081SOL    HW162082   1.631   8.441   8.053
20081SOL    HW262083   1.720   8.533   8.134
20082SOL     OW62084   2.050   9.140   6.343
20082SOL    HW162085   2.031   9.050   6.366
20082SOL    HW262086   1.964   9.180   6.328
20083SOL     OW62087   9.765   3.043   0.764
20083SOL    HW162088   9.711   3.035   0.685
20083SOL    HW262089   9.726   3.115   0.813
20084SOL     OW62090   2.893   3.819  11.984
20084SOL    HW162091   2.881   3.913  11.973
20084SOL    HW262092   2.910   3.786  11.895
20085SOL     OW62093   2.411  11.936   0.299
20085SOL    HW162094   2.327  11.941   0.345
20085SOL    HW262095   2.437  12.028   0.287
20086SOL     OW62096  13.904   4.157  12.460
20086SOL    HW162097  13.863   4.138  12.375
20086SOL    HW262098  13.996   4.172  12.440
20087SOL     OW62099   7.087  14.303   9.258
20087SOL    HW162100   7.143  14.361   9.208
20087SOL    HW262101   7.010  14.356   9.281
20088SOL     OW62102   8.248  14.337   7.955
20088SOL    HW162103   8.234  14.429   7.935
20088SOL    HW262104   8.238  14.331   8.050
20089SOL     OW62105   7.979   9.064   8.361
20089SOL    HW162106   7.998   8.970   8.370
20089SOL    HW262107   7.945   9.089   8.447
20090SOL     OW62108   9.685  10.500  13.461
20090SOL    HW162109   9.741  10.505  13.539
20090SOL    HW262110   9.619  10.568  13.475
20091SOL     OW62111  11.320   0.406   0.505
20091SOL    HW162112  11.352   0.320   0.533
20091SOL    HW262113  11.394   0.465   0.519
20092SOL     OW62114  10.086  14.658   8.414
20092SOL    HW162115  10.031  14.733   8.394
20092SOL    HW262116  10.175  14.688   8.398
20093SOL     OW62117  11.978  12.368   3.564
20093SOL    HW162118  11.919  12.317   3.621
20093SOL    HW262119  12.066  12.348   3.596
20094SOL     OW62120  12.369   5.785   8.963
20094SOL    HW162121  12.297   5.735   9.000
20094SOL    HW262122  12.338   5.811   8.876
20095SOL     OW62123   8.612   6.045   9.529
20095SOL    HW162124   8.565   6.103   9.469
20095SOL    HW262125   8.583   5.957   9.505
20096SOL     OW62126   8.245  14.140  10.284
20096SOL    HW162127   8.158  14.100  10.284
20096SOL    HW262128   8.303  14.071  10.319
20097SOL     OW62129   5.875   9.495   8.688
20097SOL    HW162130   5.913   9.581   8.704
20097SOL    HW262131   5.796   9.513   8.637
20098SOL     OW62132   2.296  10.938   6.263
20098SOL    HW162133   2.379  10.918   6.306
20098SOL    HW262134   2.298  10.887   6.182
20099SOL     OW62135   8.119   6.021   1.458
20099SOL    HW162136   8.083   5.948   1.407
20099SOL    HW262137   8.214   6.013   1.448
20100SOL     OW62138   3.377   5.093   0.298
20100SOL    HW162139   3.313   5.143   0.349
20100SOL    HW262140   3.362   5.120   0.208
20101SOL     OW62141  13.123   4.336   4.376
20101SOL    HW162142  13.078   4.269   4.426
20101SOL    HW262143  13.175   4.288   4.312
20102SOL     OW62144   0.703   7.258  14.758
20102SOL    HW162145   0.634   7.245  14.822
20102SOL    HW262146   0.736   7.170  14.739
20103SOL     OW62147   4.871  10.216   4.018
20103SOL    HW162148   4.929  10.286   4.048
20103SOL    HW262149   4.898  10.199   3.928
20104SOL     OW62150   1.174   7.457   2.059
20104SOL    HW162151   1.171   7.548   2.089
20104SOL    HW262152   1.208   7.463   1.969
20105SOL     OW62153  13.053   6.862   9.408
20105SOL    HW162154  12.966   6.833   9.380
20105SOL    HW262155  13.052   6.852   9.503
20106SOL     OW62156   3.149   4.414   0.158
20106SOL    HW162157   3.189   4.338   0.116
20106SOL    HW262158   3.203   4.431   0.235
20107SOL     OW62159  10.587   2.501  14.777
20107SOL    HW162160  10.669   2.549  14.789
20107SOL    HW262161  10.519   2.565  14.794
20108SOL     OW62162   9.386   5.287   4.824
20108SOL    HW162163   9.353   5.204   4.790
20108SOL    HW262164   9.413   5.268   4.914
20109SOL     OW62165  11.654  12.900   2.662
20109SOL    HW162166  11.643  12.811   2.693
20109SOL    HW262167  11.749  12.910   2.651
20110SOL     OW62168  12.986   3.355   6.391
20110SOL    HW162169  13.078   3.362   6.414
20110SOL    HW262170  12.958   3.272   6.429
20111SOL     OW62171   1.899  11.344  13.689
20111SOL    HW162172   1.870  11.277  13.751
20111SOL    HW262173   1.991  11.359  13.711
20112SOL     OW62174   4.136  14.870   5.831
20112SOL    HW162175   4.053  14.836   5.866
20112SOL    HW262176   4.112   0.069   5.786
20113SOL     OW62177  14.793   2.871  12.657
20113SOL    HW162178  14.856   2.919  12.712
20113SOL    HW262179  14.716   2.928  12.655
20114SOL     OW62180   2.405   2.223  11.939
20114SOL    HW162181   2.345   2.281  11.987
20114SOL    HW262182   2.408   2.143  11.993
20115SOL     OW62183   8.566  12.120   1.990
20115SOL    HW162184   8.524  12.044   2.032
20115SOL    HW262185   8.552  12.192   2.052
20116SOL     OW62186  12.400   0.071   3.342
20116SOL    HW162187  12.416   0.140   3.278
20116SOL    HW262188  12.362   0.117   3.417
20117SOL     OW62189   0.296   5.778   7.426
20117SOL    HW162190   0.367   5.731   7.468
20117SOL    HW262191   0.306   5.759   7.333
20118SOL     OW62192   5.894   3.345  13.654
20118SOL    HW162193   5.808   3.386  13.667
20118SOL    HW262194   5.910   3.351  13.560
20119SOL     OW62195  11.166  13.986  11.006
20119SOL    HW162196  11.102  14.057  11.004
20119SOL    HW262197  11.144  13.936  11.085
20120SOL     OW62198   7.998   7.350   9.185
20120SOL    HW162199   8.028   7.261   9.201
20120SOL    HW262200   7.961   7.379   9.268
20121SOL     OW62201  14.510   5.288   0.703
20121SOL    HW162202  14.587   5.262   0.753
20121SOL    HW262203  14.445   5.220   0.720
20122SOL     OW62204   2.408   5.169  12.657
20122SOL    HW162205   2.353   5.246  12.671
20122SOL    HW262206   2.466   5.167  12.733
20123SOL     OW62207  10.296   8.561  14.311
20123SOL    HW162208  10.365   8.497  14.301
20123SOL    HW262209  10.341   8.643  14.332
20124SOL     OW62210   1.139   8.462   0.129
20124SOL    HW162211   1.178   8.394   0.183
20124SOL    HW262212   1.106   8.415   0.052
20125SOL     OW62213  13.044   2.109   9.243
20125SOL    HW162214  13.077   2.083   9.157
20125SOL    HW262215  12.950   2.120   9.230
20126SOL     OW62216   9.067   2.568   0.056
20126SOL    HW162217   9.127   2.497   0.082
20126SOL    HW262218   9.112   2.611  14.865
20127SOL     OW62219   1.330  12.858   7.908
20127SOL    HW162220   1.393  12.907   7.959
20127SOL    HW262221   1.246  12.902   7.924
20128SOL     OW62222   0.035   0.013   5.481
20128SOL    HW162223   0.089   0.038   5.556
20128SOL    HW262224  14.828   0.008   5.515
20129SOL     OW62225   8.505   9.816  12.848
20129SOL    HW162226   8.568   9.748  12.824
20129SOL    HW262227   8.501   9.874  12.772
20130SOL     OW62228  12.662   4.132   6.058
20130SOL    HW162229  12.679   4.051   6.107
20130SOL    HW262230  12.673   4.108   5.966
20131SOL     OW62231   3.905  10.759   9.453
20131SOL    HW162232   3.863  10.678   9.482
20131SOL    HW262233   3.834  10.823   9.452
20132SOL     OW62234  10.844   8.463   6.728
20132SOL    HW162235  10.921   8.515   6.711
20132SOL    HW262236  10.869   8.405   6.801
20133SOL     OW62237  14.433   1.081   4.722
20133SOL    HW162238  14.522   1.099   4.753
20133SOL    HW262239  14.436   0.991   4.691
20134SOL     OW62240  12.624   7.383  14.759
20134SOL    HW162241  12.658   7.473  14.753
20134SOL    HW262242  12.553   7.380  14.696
20135SOL     OW62243   1.208   5.290   0.435
20135SOL    HW162244   1.282   5.348   0.414
20135SOL    HW262245   1.232   5.252   0.519
20136SOL     OW62246  12.272   1.812  11.211
20136SOL    HW162247  12.278   1.745  11.143
20136SOL    HW262248  12.231   1.767  11.285
20137SOL     OW62249   7.639  11.363  12.710
20137SOL    HW162250   7.686  11.312  12.776
20137SOL    HW262251   7.671  11.452  12.722
20138SOL     OW62252   6.811  11.159   6.944
20138SOL    HW162253   6.890  11.141   6.995
20138SOL    HW262254   6.796  11.078   6.894
20139SOL     OW62255   1.838   0.517  10.764
20139SOL    HW162256   1.784   0.439  10.750
20139SOL    HW262257   1.875   0.536  10.677
20140SOL     OW62258   2.835   9.555  14.662
20140SOL    HW162259   2.783   9.629  14.629
20140SOL    HW262260   2.926   9.584  14.655
20141SOL     OW62261  12.689  13.834   3.535
20141SOL    HW162262  12.674  13.764   3.471
20141SOL    HW262263  12.700  13.787   3.618
20142SOL     OW62264   2.791  12.995  10.954
20142SOL    HW162265   2.750  12.908  10.961
20142SOL    HW262266   2.793  13.012  10.859
20143SOL     OW62267   8.141  14.359   2.787
20143SOL    HW162268   8.071  14.307   2.746
20143SOL    HW262269   8.098  14.441   2.812
20144SOL     OW62270   8.191  14.284   5.237
20144SOL    HW162271   8.226  14.372   5.221
20144SOL    HW262272   8.255  14.242   5.295
20145SOL     OW62273  12.364  10.695   3.470
20145SOL    HW162274  12.356  10.600   3.466
20145SOL    HW262275  12.276  10.727   3.447
20146SOL     OW62276   2.839   0.554   7.490
20146SOL    HW162277   2.786   0.497   7.547
20146SOL    HW262278   2.801   0.641   7.503
20147SOL     OW62279   0.750  10.916   3.349
20147SOL    HW162280   0.794  10.961   3.276
20147SOL    HW262281   0.723  10.832   3.312
20148SOL     OW62282  10.138   7.468   7.485
20148SOL    HW162283  10.182   7.388   7.515
20148SOL    HW262284  10.189   7.496   7.409
20149SOL     OW62285   1.647  10.114  14.788
20149SOL    HW162286   1.572  10.172  14.783
20149SOL    HW262287   1.720  10.171  14.812
20150SOL     OW62288   1.222  12.722   4.465
20150SOL    HW162289   1.270  12.720   4.383
20150SOL    HW262290   1.133  12.694   4.442
20151SOL     OW62291  10.679   7.900   4.769
20151SOL    HW162292  10.627   7.846   4.709
20151SOL    HW262293  10.696   7.981   4.721
20152SOL     OW62294   8.585   2.766   4.502
20152SOL    HW162295   8.512   2.745   4.443
20152SOL    HW262296   8.647   2.694   4.490
20153SOL     OW62297  12.249   3.806  12.754
20153SOL    HW162298  12.319   3.834  12.813
20153SOL    HW262299  12.248   3.873  12.686
20154SOL     OW62300   1.228  12.132  12.770
20154SOL    HW162301   1.290  12.205  12.775
20154SOL    HW262302   1.257  12.071  12.838
20155SOL     OW62303  14.207   3.525  13.449
20155SOL    HW162304  14.207   3.430  13.438
20155SOL    HW262305  14.173   3.539  13.537
20156SOL     OW62306   6.099  11.528  13.346
20156SOL    HW162307   6.177  11.478  13.323
20156SOL    HW262308   6.026  11.473  13.320
20157SOL     OW62309  14.472   7.247   1.978
20157SOL    HW162310  14.406   7.193   2.023
20157SOL    HW262311  14.538   7.185   1.949
20158SOL     OW62312   2.860  12.784   3.710
20158SOL    HW162313   2.840  12.777   3.617
20158SOL    HW262314   2.783  12.825   3.749
20159SOL     OW62315  12.993   9.651   9.632
20159SOL    HW162316  12.986   9.724   9.570
20159SOL    HW262317  12.906   9.647   9.673
20160SOL     OW62318  14.225  13.133   0.594
20160SOL    HW162319  14.257  13.087   0.516
20160SOL    HW262320  14.134  13.104   0.603
20161SOL     OW62321   7.494  13.292  13.161
20161SOL    HW162322   7.542  13.352  13.219
20161SOL    HW262323   7.489  13.210  13.210
20162SOL     OW62324   9.017   6.385   8.290
20162SOL    HW162325   9.051   6.339   8.367
20162SOL    HW262326   9.064   6.468   8.288
20163SOL     OW62327   6.613  10.391   3.218
20163SOL    HW162328   6.661  10.318   3.178
20163SOL    HW262329   6.590  10.359   3.306
20164SOL     OW62330   5.099  12.733  13.053
20164SOL    HW162331   5.139  12.740  12.966
20164SOL    HW262332   5.056  12.818  13.066
20165SOL     OW62333  10.097   6.662   7.635
20165SOL    HW162334  10.154   6.645   7.710
20165SOL    HW262335  10.025   6.599   7.645
20166SOL     OW62336   7.613  12.980   4.728
20166SOL    HW162337   7.531  13.027   4.737
20166SOL    HW262338   7.662  13.001   4.808
20167SOL     OW62339   1.476   6.556   3.689
20167SOL    HW162340   1.388   6.540   3.654
20167SOL    HW262341   1.467   6.541   3.783
20168SOL     OW62342  14.328  14.710   3.704
20168SOL    HW162343  14.328  14.752   3.790
20168SOL    HW262344  14.345  14.781   3.642
20169SOL     OW62345  13.778  11.226  14.231
20169SOL    HW162346  13.780  11.143  14.279
20169SOL    HW262347  13.774  11.200  14.139
20170SOL     OW62348   5.082   4.673  13.477
20170SOL    HW162349   5.002   4.621  13.485
20170SOL    HW262350   5.144   4.629  13.535
20171SOL     OW62351   2.725   5.503   1.078
20171SOL    HW162352   2.662   5.536   1.142
20171SOL    HW262353   2.702   5.411   1.066
20172SOL     OW62354  10.963   6.584   3.200
20172SOL    HW162355  10.914   6.662   3.225
20172SOL    HW262356  10.954   6.525   3.275
20173SOL     OW62357  11.655   8.844  14.228
20173SOL    HW162358  11.688   8.930  14.255
20173SOL    HW262359  11.564   8.860  14.205
20174SOL     OW62360  11.333   8.455  12.316
20174SOL    HW162361  11.335   8.406  12.398
20174SOL    HW262362  11.387   8.404  12.256
20175SOL     OW62363   4.130   3.201   2.577
20175SOL    HW162364   4.104   3.149   2.653
20175SOL    HW262365   4.158   3.137   2.512
20176SOL     OW62366   6.752   0.270   5.053
20176SOL    HW162367   6.777   0.271   4.960
20176SOL    HW262368   6.690   0.198   5.060
20177SOL     OW62369   6.684  14.856   0.178
20177SOL    HW162370   6.676   0.007   0.268
20177SOL    HW262371   6.634  14.774   0.177
20178SOL     OW62372  13.497  12.361   4.115
20178SOL    HW162373  13.458  12.433   4.067
20178SOL    HW262374  13.431  12.292   4.113
20179SOL     OW62375  11.198   0.850  13.314
20179SOL    HW162376  11.246   0.931  13.295
20179SOL    HW262377  11.177   0.813  13.229
20180SOL     OW62378   6.480  12.479  12.618
20180SOL    HW162379   6.512  12.390  12.605
20180SOL    HW262380   6.543  12.535  12.572
20181SOL     OW62381   5.755   2.339   1.597
20181SOL    HW162382   5.814   2.310   1.527
20181SOL    HW262383   5.764   2.435   1.598
20182SOL     OW62384   6.114   4.701   0.390
20182SOL    HW162385   6.157   4.735   0.313
20182SOL    HW262386   6.057   4.631   0.357
20183SOL     OW62387   6.476   5.143   3.925
20183SOL    HW162388   6.393   5.184   3.902
20183SOL    HW262389   6.454   5.051   3.942
20184SOL     OW62390   8.071  11.423   3.140
20184SOL    HW162391   8.090  11.334   3.109
20184SOL    HW262392   8.088  11.479   3.065
20185SOL     OW62393   8.935   1.498  10.092
20185SOL    HW162394   8.901   1.461  10.173
20185SOL    HW262395   8.958   1.422  10.039
20186SOL     OW62396  10.097   8.818  10.340
20186SOL    HW162397  10.044   8.863  10.275
20186SOL    HW262398  10.051   8.736  10.356
20187SOL     OW62399   0.405   8.086   0.737
20187SOL    HW162400   0.491   8.048   0.718
20187SOL    HW262401   0.425   8.173   0.774
20188SOL     OW62402   0.580   9.060   2.449
20188SOL    HW162403   0.663   9.109   2.446
20188SOL    HW262404   0.553   9.054   2.357
20189SOL     OW62405   6.843   6.598  10.888
20189SOL    HW162406   6.889   6.619  10.969
20189SOL    HW262407   6.911   6.568  10.828
20190SOL     OW62408  12.661   2.498   7.225
20190SOL    HW162409  12.620   2.413   7.211
20190SOL    HW262410  12.676   2.533   7.137
20191SOL     OW62411   3.965  12.825  10.363
20191SOL    HW162412   3.938  12.877  10.438
20191SOL    HW262413   4.061  12.829  10.364
20192SOL     OW62414   1.911   8.963   6.990
20192SOL    HW162415   1.831   8.943   7.039
20192SOL    HW262416   1.967   8.887   7.004
20193SOL     OW62417   0.602   5.450   9.580
20193SOL    HW162418   0.689   5.430   9.544
20193SOL    HW262419   0.546   5.379   9.550
20194SOL     OW62420   8.865   6.459  12.574
20194SOL    HW162421   8.852   6.381  12.521
20194SOL    HW262422   8.806   6.449  12.648
20195SOL     OW62423  13.628   9.770  14.081
20195SOL    HW162424  13.691   9.782  14.009
20195SOL    HW262425  13.589   9.685  14.064
20196SOL     OW62426   3.991  12.497   6.867
20196SOL    HW162427   4.070  12.488   6.813
20196SOL    HW262428   3.978  12.591   6.874
20197SOL     OW62429   7.170  10.753  13.401
20197SOL    HW162430   7.236  10.800  13.350
20197SOL    HW262431   7.145  10.814  13.470
20198SOL     OW62432   8.070   0.313   5.336
20198SOL    HW162433   8.068   0.408   5.345
20198SOL    HW262434   8.015   0.294   5.260
20199SOL     OW62435   7.810   9.601  13.212
20199SOL    HW162436   7.819   9.675  13.151
20199SOL    HW262437   7.843   9.526  13.164
20200SOL     OW62438  12.438   8.539   3.120
20200SOL    HW162439  12.393   8.563   3.039
20200SOL    HW262440  12.480   8.455   3.100
20201SOL     OW62441   3.121  11.842   9.157
20201SOL    HW162442   3.118  11.937   9.171
20201SOL    HW262443   3.158  11.832   9.069
20202SOL     OW62444  13.541  13.101  14.790
20202SOL    HW162445  13.506  13.012  14.784
20202SOL    HW262446  13.630  13.094  14.755
20203SOL     OW62447  12.220  11.245   9.562
20203SOL    HW162448  12.199  11.187   9.636
20203SOL    HW262449  12.266  11.319   9.602
20204SOL     OW62450  10.607  10.316  12.587
20204SOL    HW162451  10.554  10.320  12.508
20204SOL    HW262452  10.594  10.401  12.629
20205SOL     OW62453  13.408  12.522   1.930
20205SOL    HW162454  13.451  12.544   2.013
20205SOL    HW262455  13.480  12.508   1.868
20206SOL     OW62456  10.704  12.261   4.554
20206SOL    HW162457  10.751  12.344   4.558
20206SOL    HW262458  10.643  12.272   4.481
20207SOL     OW62459   0.943  13.314   4.645
20207SOL    HW162460   1.013  13.296   4.708
20207SOL    HW262461   0.865  13.329   4.698
20208SOL     OW62462   6.382   9.845   6.320
20208SOL    HW162463   6.454   9.783   6.311
20208SOL    HW262464   6.418   9.916   6.374
20209SOL     OW62465   8.147   9.626   5.569
20209SOL    HW162466   8.146   9.593   5.479
20209SOL    HW262467   8.132   9.720   5.561
20210SOL     OW62468   9.222   9.627   1.996
20210SOL    HW162469   9.133   9.614   1.962
20210SOL    HW262470   9.233   9.556   2.059
20211SOL     OW62471  12.264  12.034  10.889
20211SOL    HW162472  12.295  12.125  10.888
20211SOL    HW262473  12.338  11.983  10.921
20212SOL     OW62474   2.867  10.016   3.008
20212SOL    HW162475   2.814   9.936   3.018
20212SOL    HW262476   2.805  10.088   3.022
20213SOL     OW62477   7.256  11.207   1.848
20213SOL    HW162478   7.301  11.292   1.853
20213SOL    HW262479   7.171  11.228   1.809
20214SOL     OW62480   7.588   2.842   7.439
20214SOL    HW162481   7.676   2.836   7.402
20214SOL    HW262482   7.600   2.895   7.518
20215SOL     OW62483   9.149   2.001   3.715
20215SOL    HW162484   9.107   1.916   3.704
20215SOL    HW262485   9.152   2.015   3.810
20216SOL     OW62486  14.519  10.765   7.004
20216SOL    HW162487  14.508  10.720   7.088
20216SOL    HW262488  14.432  10.800   6.983
20217SOL     OW62489   7.042  13.426   8.916
20217SOL    HW162490   7.003  13.339   8.925
20217SOL    HW262491   7.104  13.432   8.989
20218SOL     OW62492   9.907   1.183   8.939
20218SOL    HW162493   9.945   1.184   8.851
20218SOL    HW262494   9.836   1.247   8.935
20219SOL     OW62495   0.926  10.178   8.380
20219SOL    HW162496   0.925  10.093   8.425
20219SOL    HW262497   0.877  10.236   8.437
20220SOL     OW62498   6.056  10.649   6.497
20220SOL    HW162499   6.131  10.674   6.550
20220SOL    HW262500   6.087  10.573   6.447
20221SOL     OW62501  11.653  14.549  10.110
20221SOL    HW162502  11.576  14.569  10.058
20221SOL    HW262503  11.620  14.503  10.187
20222SOL     OW62504  11.799  12.623  14.414
20222SOL    HW162505  11.884  12.602  14.375
20222SOL    HW262506  11.800  12.577  14.498
20223SOL     OW62507  10.657   1.158   4.681
20223SOL    HW162508  10.662   1.206   4.599
20223SOL    HW262509  10.581   1.195   4.726
20224SOL     OW62510   6.290   5.469   3.952
20224SOL    HW162511   6.288   5.564   3.964
20224SOL    HW262512   6.348   5.456   3.877
20225SOL     OW62513   8.401   9.956   3.651
20225SOL    HW162514   8.424   9.927   3.563
20225SOL    HW262515   8.477  10.006   3.681
20226SOL     OW62516  14.004   1.506   2.690
20226SOL    HW162517  13.985   1.572   2.757
20226SOL    HW262518  14.004   1.423   2.738
20227SOL     OW62519   3.132   0.039   5.102
20227SOL    HW162520   3.142  14.831   5.069
20227SOL    HW262521   3.138   0.093   5.024
20228SOL     OW62522   7.827   5.866  11.674
20228SOL    HW162523   7.882   5.936  11.709
20228SOL    HW262524   7.749   5.911  11.641
20229SOL     OW62525  13.096   0.159   1.276
20229SOL    HW162526  13.049   0.100   1.335
20229SOL    HW262527  13.179   0.175   1.321
20230SOL     OW62528   9.347   9.599   6.920
20230SOL    HW162529   9.282   9.627   6.984
20230SOL    HW262530   9.390   9.524   6.961
20231SOL     OW62531  11.810   6.102  12.715
20231SOL    HW162532  11.844   6.079  12.801
20231SOL    HW262533  11.724   6.141  12.733
20232SOL     OW62534   0.417  13.139   1.676
20232SOL    HW162535   0.336  13.139   1.625
20232SOL    HW262536   0.421  13.050   1.713
20233SOL     OW62537   9.176   7.540   1.058
20233SOL    HW162538   9.191   7.601   0.985
20233SOL    HW262539   9.089   7.563   1.091
20234SOL     OW62540   9.902   9.197   5.172
20234SOL    HW162541   9.880   9.228   5.084
20234SOL    HW262542   9.826   9.146   5.199
20235SOL     OW62543   7.531   9.303  10.176
20235SOL    HW162544   7.450   9.299  10.227
20235SOL    HW262545   7.567   9.214  10.183
20236SOL     OW62546   0.472   4.605   3.694
20236SOL    HW162547   0.476   4.603   3.599
20236SOL    HW262548   0.563   4.602   3.723
20237SOL     OW62549   4.523  14.681   3.905
20237SOL    HW162550   4.446  14.705   3.855
20237SOL    HW262551   4.490  14.659   3.992
20238SOL     OW62552  11.444   9.870  14.730
20238SOL    HW162553  11.455   9.877  14.825
20238SOL    HW262554  11.508   9.804  14.703
20239SOL     OW62555  12.780  10.645  14.334
20239SOL    HW162556  12.779  10.694  14.252
20239SOL    HW262557  12.697  10.667  14.376
20240SOL     OW62558   7.828  12.828   9.888
20240SOL    HW162559   7.747  12.805   9.842
20240SOL    HW262560   7.848  12.751   9.941
20241SOL     OW62561   6.830  11.124   6.499
20241SOL    HW162562   6.786  11.195   6.453
20241SOL    HW262563   6.758  11.071   6.535
20242SOL     OW62564   6.862   4.948   5.030
20242SOL    HW162565   6.869   5.011   4.958
20242SOL    HW262566   6.800   4.989   5.091
20243SOL     OW62567   8.843   7.112  13.867
20243SOL    HW162568   8.913   7.095  13.929
20243SOL    HW262569   8.776   7.157  13.919
20244SOL     OW62570  10.639   8.184  13.565
20244SOL    HW162571  10.551   8.212  13.542
20244SOL    HW262572  10.643   8.191  13.661
20245SOL     OW62573  13.144   4.207   1.703
20245SOL    HW162574  13.214   4.235   1.762
20245SOL    HW262575  13.095   4.141   1.753
20246SOL     OW62576   3.425   8.839  12.376
20246SOL    HW162577   3.450   8.748  12.393
20246SOL    HW262578   3.507   8.887  12.377
20247SOL     OW62579  13.972   9.945   4.883
20247SOL    HW162580  13.943   9.917   4.796
20247SOL    HW262581  14.054   9.992   4.867
20248SOL     OW62582  13.065   8.456  14.537
20248SOL    HW162583  13.039   8.416  14.453
20248SOL    HW262584  12.997   8.428  14.598
20249SOL     OW62585  14.217   7.604  12.883
20249SOL    HW162586  14.288   7.568  12.935
20249SOL    HW262587  14.146   7.617  12.946
20250SOL     OW62588  12.161  11.799  14.340
20250SOL    HW162589  12.107  11.730  14.380
20250SOL    HW262590  12.206  11.755  14.268
20251SOL     OW62591   9.043  10.408   2.533
20251SOL    HW162592   9.045  10.314   2.515
20251SOL    HW262593   9.043  10.450   2.447
20252SOL     OW62594  14.191   6.985  12.670
20252SOL    HW162595  14.114   6.956  12.621
20252SOL    HW262596  14.168   7.071  12.703
20253SOL     OW62597   9.945   5.423  10.516
20253SOL    HW162598   9.853   5.424  10.491
20253SOL    HW262599   9.964   5.331  10.535
20254SOL     OW62600  10.544   7.518   5.244
20254SOL    HW162601  10.514   7.427   5.234
20254SOL    HW262602  10.621   7.525   5.188
20255SOL     OW62603  10.903   8.894   3.899
20255SOL    HW162604  10.860   8.873   3.982
20255SOL    HW262605  10.984   8.938   3.925
20256SOL     OW62606  13.635   8.303   6.998
20256SOL    HW162607  13.550   8.342   6.981
20256SOL    HW262608  13.630   8.274   7.089
20257SOL     OW62609   3.878   2.198   1.036
20257SOL    HW162610   3.901   2.116   0.992
20257SOL    HW262611   3.784   2.188   1.056
20258SOL     OW62612   1.430  13.166   3.255
20258SOL    HW162613   1.385  13.101   3.310
20258SOL    HW262614   1.521  13.162   3.284
20259SOL     OW62615   5.277   6.552  10.853
20259SOL    HW162616   5.251   6.493  10.923
20259SOL    HW262617   5.332   6.498  10.796
20260SOL     OW62618  10.688   1.811   5.627
20260SOL    HW162619  10.659   1.815   5.718
20260SOL    HW262620  10.651   1.889   5.586
20261SOL     OW62621   4.611   3.600   9.948
20261SOL    HW162622   4.663   3.650  10.012
20261SOL    HW262623   4.520   3.614   9.975
20262SOL     OW62624  12.567   2.432  12.876
20262SOL    HW162625  12.590   2.375  12.949
20262SOL    HW262626  12.477   2.459  12.893
20263SOL     OW62627  11.075   6.148   1.538
20263SOL    HW162628  11.073   6.052   1.543
20263SOL    HW262629  11.117   6.175   1.620
20264SOL     OW62630   7.965   9.782  12.743
20264SOL    HW162631   7.958   9.871  12.777
20264SOL    HW262632   7.986   9.729  12.820
20265SOL     OW62633   4.122   5.462  13.688
20265SOL    HW162634   4.136   5.557  13.689
20265SOL    HW262635   4.129   5.437  13.596
20266SOL     OW62636   7.784  10.558  14.466
20266SOL    HW162637   7.699  10.597  14.446
20266SOL    HW262638   7.769  10.464  14.455
20267SOL     OW62639  13.086   6.775  12.872
20267SOL    HW162640  13.008   6.726  12.897
20267SOL    HW262641  13.119   6.813  12.953
20268SOL     OW62642   4.179   0.168   3.186
20268SOL    HW162643   4.104   0.225   3.170
20268SOL    HW262644   4.140   0.086   3.215
20269SOL     OW62645   9.362   5.029   0.106
20269SOL    HW162646   9.267   5.042   0.099
20269SOL    HW262647   9.386   5.077   0.186
20270SOL     OW62648  10.325  12.237   1.348
20270SOL    HW162649  10.382  12.252   1.272
20270SOL    HW262650  10.279  12.156   1.329
20271SOL     OW62651   9.818  13.992   2.057
20271SOL    HW162652   9.749  14.018   2.118
20271SOL    HW262653   9.819  14.062   1.991
20272SOL     OW62654  12.996  10.547   9.878
20272SOL    HW162655  13.073  10.603   9.869
20272SOL    HW262656  12.977  10.547   9.972
20273SOL     OW62657   9.898   7.251  14.700
20273SOL    HW162658   9.949   7.326  14.670
20273SOL    HW262659   9.898   7.191  14.625
20274SOL     OW62660   1.755   1.691   3.775
20274SOL    HW162661   1.812   1.632   3.825
20274SOL    HW262662   1.673   1.641   3.764
20275SOL     OW62663  11.262   0.428   1.549
20275SOL    HW162664  11.273   0.520   1.574
20275SOL    HW262665  11.179   0.424   1.503
20276SOL     OW62666   6.457  13.535  13.204
20276SOL    HW162667   6.472  13.614  13.256
20276SOL    HW262668   6.450  13.465  13.269
20277SOL     OW62669   0.405  14.648   2.267
20277SOL    HW162670   0.322  14.687   2.240
20277SOL    HW262671   0.380  14.563   2.302
20278SOL     OW62672   4.436  13.715  14.110
20278SOL    HW162673   4.363  13.674  14.064
20278SOL    HW262674   4.395  13.766  14.180
20279SOL     OW62675  10.554   3.529  11.862
20279SOL    HW162676  10.523   3.538  11.953
20279SOL    HW262677  10.647   3.550  11.866
20280SOL     OW62678  13.544  10.185   6.196
20280SOL    HW162679  13.552  10.280   6.191
20280SOL    HW262680  13.612  10.158   6.258
20281SOL     OW62681  14.119   2.464  14.405
20281SOL    HW162682  14.165   2.417  14.336
20281SOL    HW262683  14.040   2.497  14.363
20282SOL     OW62684  11.482   6.790   2.828
20282SOL    HW162685  11.390   6.816   2.828
20282SOL    HW262686  11.483   6.702   2.791
20283SOL     OW62687  10.099   7.777   5.989
20283SOL    HW162688  10.102   7.865   5.951
20283SOL    HW262689  10.009   7.766   6.018
20284SOL     OW62690  12.135   6.995   6.689
20284SOL    HW162691  12.132   6.995   6.593
20284SOL    HW262692  12.070   6.929   6.714
20285SOL     OW62693   3.101  14.078   6.065
20285SOL    HW162694   3.194  14.078   6.087
20285SOL    HW262695   3.075  14.170   6.072
20286SOL     OW62696  10.029   5.561  11.748
20286SOL    HW162697   9.986   5.597  11.826
20286SOL    HW262698   9.993   5.473  11.739
20287SOL     OW62699  10.973   2.733   7.343
20287SOL    HW162700  11.019   2.682   7.276
20287SOL    HW262701  10.966   2.821   7.306
20288SOL     OW62702   5.299   1.574   5.682
20288SOL    HW162703   5.355   1.651   5.689
20288SOL    HW262704   5.249   1.574   5.764
20289SOL     OW62705   3.594  14.068   8.265
20289SOL    HW162706   3.651  14.134   8.304
20289SOL    HW262707   3.566  14.013   8.338
20290SOL     OW62708   6.491  10.296  12.919
20290SOL    HW162709   6.540  10.216  12.938
20290SOL    HW262710   6.465  10.329  13.005
20291SOL     OW62711  12.946   3.339   3.830
20291SOL    HW162712  12.911   3.360   3.744
20291SOL    HW262713  12.907   3.254   3.852
20292SOL     OW62714   3.904  10.866  12.705
20292SOL    HW162715   3.978  10.899  12.757
20292SOL    HW262716   3.944  10.837  12.623
20293SOL     OW62717  10.402  12.730   8.179
20293SOL    HW162718  10.365  12.796   8.238
20293SOL    HW262719  10.326  12.689   8.137
20294SOL     OW62720  13.028   4.507   7.159
20294SOL    HW162721  12.977   4.510   7.241
20294SOL    HW262722  13.047   4.599   7.140
20295SOL     OW62723   7.800   8.032  11.559
20295SOL    HW162724   7.773   7.946  11.591
20295SOL    HW262725   7.731   8.091  11.587
20296SOL     OW62726   2.768   1.241  14.738
20296SOL    HW162727   2.844   1.206  14.786
20296SOL    HW262728   2.806   1.294  14.668
20297SOL     OW62729   1.444   8.213   9.439
20297SOL    HW162730   1.500   8.272   9.490
20297SOL    HW262731   1.403   8.156   9.504
20298SOL     OW62732   8.547   8.515   0.031
20298SOL    HW162733   8.474   8.576   0.031
20298SOL    HW262734   8.624   8.570   0.048
20299SOL     OW62735  13.273   6.340  13.043
20299SOL    HW162736  13.308   6.333  13.132
20299SOL    HW262737  13.288   6.254  13.004
20300SOL     OW62738   0.225  12.725  13.605
20300SOL    HW162739   0.309  12.727  13.650
20300SOL    HW262740   0.174  12.795  13.647
20301SOL     OW62741   0.104  13.488  10.835
20301SOL    HW162742   0.093  13.393  10.847
20301SOL    HW262743   0.186  13.496  10.786
20302SOL     OW62744  12.585  11.486   1.385
20302SOL    HW162745  12.669  11.523   1.412
20302SOL    HW262746  12.522  11.522   1.447
20303SOL     OW62747   0.382   0.768   1.727
20303SOL    HW162748   0.440   0.839   1.698
20303SOL    HW262749   0.307   0.813   1.765
20304SOL     OW62750  13.845  12.923   3.864
20304SOL    HW162751  13.822  12.839   3.903
20304SOL    HW262752  13.859  12.981   3.939
20305SOL     OW62753   7.005  12.807   5.867
20305SOL    HW162754   7.094  12.789   5.838
20305SOL    HW262755   7.002  12.774   5.957
20306SOL     OW62756  12.835   1.252   4.362
20306SOL    HW162757  12.854   1.316   4.431
20306SOL    HW262758  12.836   1.303   4.281
20307SOL     OW62759  12.477   0.376  13.800
20307SOL    HW162760  12.551   0.393  13.742
20307SOL    HW262761  12.496   0.428  13.878
20308SOL     OW62762   5.753  10.245   1.796
20308SOL    HW162763   5.762  10.151   1.779
20308SOL    HW262764   5.842  10.279   1.787
20309SOL     OW62765   8.037   2.254   6.827
20309SOL    HW162766   8.069   2.212   6.907
20309SOL    HW262767   8.087   2.212   6.757
20310SOL     OW62768  10.411   1.421   3.452
20310SOL    HW162769  10.432   1.335   3.489
20310SOL    HW262770  10.339   1.405   3.392
20311SOL     OW62771  11.386   6.424   3.758
20311SOL    HW162772  11.348   6.501   3.716
20311SOL    HW262773  11.440   6.384   3.689
20312SOL     OW62774   1.833   9.645   4.565
20312SOL    HW162775   1.864   9.558   4.591
20312SOL    HW262776   1.850   9.649   4.471
20313SOL     OW62777  11.424   9.872  14.043
20313SOL    HW162778  11.362   9.912  14.103
20313SOL    HW262779  11.508   9.911  14.065
20314SOL     OW62780  13.042  14.744   4.944
20314SOL    HW162781  12.990  14.822   4.966
20314SOL    HW262782  13.071  14.759   4.854
20315SOL     OW62783   4.193  10.600  14.610
20315SOL    HW162784   4.168  10.631  14.522
20315SOL    HW262785   4.266  10.541  14.595
20316SOL     OW62786   6.445   7.185   1.068
20316SOL    HW162787   6.519   7.133   1.037
20316SOL    HW262788   6.394   7.203   0.989
20317SOL     OW62789  13.801   0.807  10.031
20317SOL    HW162790  13.764   0.778  10.114
20317SOL    HW262791  13.887   0.842  10.053
20318SOL     OW62792   6.296   7.309  14.185
20318SOL    HW162793   6.288   7.217  14.208
20318SOL    HW262794   6.223   7.351  14.232
20319SOL     OW62795  12.164   6.806   6.193
20319SOL    HW162796  12.254   6.778   6.208
20319SOL    HW262797  12.154   6.801   6.098
20320SOL     OW62798   6.144   5.293   4.534
20320SOL    HW162799   6.091   5.264   4.608
20320SOL    HW262800   6.095   5.264   4.457
20321SOL     OW62801   3.343   0.649   7.766
20321SOL    HW162802   3.249   0.651   7.754
20321SOL    HW262803   3.377   0.602   7.689
20322SOL     OW62804   7.202   8.530   6.802
20322SOL    HW162805   7.176   8.578   6.724
20322SOL    HW262806   7.253   8.592   6.853
20323SOL     OW62807  12.009   8.155   1.765
20323SOL    HW162808  11.944   8.159   1.695
20323SOL    HW262809  12.093   8.146   1.720
20324SOL     OW62810   4.852  10.866   1.828
20324SOL    HW162811   4.856  10.795   1.764
20324SOL    HW262812   4.788  10.927   1.792
20325SOL     OW62813   2.669   6.517   1.172
20325SOL    HW162814   2.739   6.455   1.153
20325SOL    HW262815   2.590   6.475   1.137
20326SOL     OW62816   6.998   5.664   4.906
20326SOL    HW162817   7.049   5.739   4.938
20326SOL    HW262818   7.064   5.604   4.871
20327SOL     OW62819  10.785   1.883   5.193
20327SOL    HW162820  10.758   1.834   5.115
20327SOL    HW262821  10.810   1.815   5.256
20328SOL     OW62822   6.290   6.845   1.899
20328SOL    HW162823   6.322   6.873   1.814
20328SOL    HW262824   6.198   6.822   1.883
20329SOL     OW62825   9.739  12.627   7.056
20329SOL    HW162826   9.686  12.557   7.019
20329SOL    HW262827   9.803  12.582   7.111
20330SOL     OW62828  14.111  14.548  13.109
20330SOL    HW162829  14.055  14.623  13.089
20330SOL    HW262830  14.071  14.509  13.187
20331SOL     OW62831  14.730  12.764   8.723
20331SOL    HW162832  14.758  12.851   8.751
20331SOL    HW262833  14.799  12.705   8.755
20332SOL     OW62834  13.198   8.148  11.363
20332SOL    HW162835  13.231   8.120  11.449
20332SOL    HW262836  13.113   8.188  11.382
20333SOL     OW62837  13.915   7.879   0.786
20333SOL    HW162838  13.894   7.950   0.847
20333SOL    HW262839  13.904   7.918   0.699
20334SOL     OW62840   0.964   3.601   0.645
20334SOL    HW162841   0.919   3.659   0.584
20334SOL    HW262842   1.019   3.659   0.698
20335SOL     OW62843  11.458   2.731   2.353
20335SOL    HW162844  11.526   2.705   2.414
20335SOL    HW262845  11.435   2.820   2.379
20336SOL     OW62846   5.204   3.542   1.322
20336SOL    HW162847   5.253   3.517   1.400
20336SOL    HW262848   5.227   3.476   1.256
20337SOL     OW62849   7.179   3.474   8.552
20337SOL    HW162850   7.134   3.406   8.602
20337SOL    HW262851   7.221   3.529   8.617
20338SOL     OW62852  11.837   4.466  11.210
20338SOL    HW162853  11.899   4.470  11.283
20338SOL    HW262854  11.868   4.534  11.149
20339SOL     OW62855   6.491   6.176   8.595
20339SOL    HW162856   6.527   6.223   8.670
20339SOL    HW262857   6.434   6.110   8.632
20340SOL     OW62858   8.910   3.233   8.474
20340SOL    HW162859   8.858   3.312   8.488
20340SOL    HW262860   8.854   3.162   8.506
20341SOL     OW62861  11.220  12.406   8.681
20341SOL    HW162862  11.134  12.434   8.649
20341SOL    HW262863  11.265  12.488   8.702
20342SOL     OW62864   8.279   6.775  14.036
20342SOL    HW162865   8.276   6.871  14.029
20342SOL    HW262866   8.209   6.745  13.977
20343SOL     OW62867   5.046   2.947  11.063
20343SOL    HW162868   5.117   2.915  11.009
20343SOL    HW262869   5.072   3.037  11.086
20344SOL     OW62870   7.524  14.799   8.285
20344SOL    HW162871   7.584  14.809   8.211
20344SOL    HW262872   7.437  14.796   8.246
20345SOL     OW62873  11.706   0.403   1.639
20345SOL    HW162874  11.774   0.397   1.572
20345SOL    HW262875  11.713   0.493   1.672
20346SOL     OW62876  10.220   2.819   8.206
20346SOL    HW162877  10.298   2.862   8.239
20346SOL    HW262878  10.184   2.879   8.141
20347SOL     OW62879   0.712   2.094   7.488
20347SOL    HW162880   0.653   2.141   7.547
20347SOL    HW262881   0.783   2.063   7.545
20348SOL     OW62882   0.420  10.012  10.867
20348SOL    HW162883   0.482   9.939  10.866
20348SOL    HW262884   0.417  10.041  10.776
20349SOL     OW62885   7.232  13.102   5.296
20349SOL    HW162886   7.296  13.042   5.335
20349SOL    HW262887   7.285  13.174   5.262
20350SOL     OW62888   8.562   1.296  10.254
20350SOL    HW162889   8.558   1.292  10.159
20350SOL    HW262890   8.595   1.384  10.273
20351SOL     OW62891   6.300   3.660   2.883
20351SOL    HW162892   6.285   3.697   2.970
20351SOL    HW262893   6.301   3.735   2.825
20352SOL     OW62894   7.278  12.893  11.770
20352SOL    HW162895   7.224  12.860  11.842
20352SOL    HW262896   7.278  12.988  11.782
20353SOL     OW62897  12.788   3.947  12.933
20353SOL    HW162898  12.783   4.042  12.928
20353SOL    HW262899  12.715   3.921  12.989
20354SOL     OW62900   0.570   8.793  13.632
20354SOL    HW162901   0.483   8.793  13.592
20354SOL    HW262902   0.573   8.873  13.684
20355SOL     OW62903  12.062  14.038  14.346
20355SOL    HW162904  12.109  13.977  14.403
20355SOL    HW262905  12.093  14.016  14.258
20356SOL     OW62906  13.623   1.420   6.226
20356SOL    HW162907  13.601   1.464   6.145
20356SOL    HW262908  13.638   1.490   6.289
20357SOL     OW62909   5.876   0.285  12.398
20357SOL    HW162910   5.940   0.300  12.467
20357SOL    HW262911   5.827   0.208  12.427
20358SOL     OW62912  14.213   2.758   0.957
20358SOL    HW162913  14.307   2.747   0.965
20358SOL    HW262914  14.202   2.836   0.903
20359SOL     OW62915   4.574   9.412   6.735
20359SOL    HW162916   4.487   9.448   6.755
20359SOL    HW262917   4.616   9.481   6.682
20360SOL     OW62918   6.745   8.078   9.354
20360SOL    HW162919   6.803   8.025   9.410
20360SOL    HW262920   6.735   8.160   9.402
20361SOL     OW62921   9.174  10.916  12.853
20361SOL    HW162922   9.096  10.946  12.900
20361SOL    HW262923   9.238  10.897  12.921
20362SOL     OW62924   8.656  11.717   0.435
20362SOL    HW162925   8.638  11.646   0.497
20362SOL    HW262926   8.728  11.766   0.475
20363SOL     OW62927   6.733   2.823  11.042
20363SOL    HW162928   6.671   2.808  11.114
20363SOL    HW262929   6.685   2.796  10.963
20364SOL     OW62930   4.124   6.364  12.719
20364SOL    HW162931   4.154   6.295  12.660
20364SOL    HW262932   4.162   6.444  12.682
20365SOL     OW62933   5.781   3.648  11.556
20365SOL    HW162934   5.705   3.614  11.509
20365SOL    HW262935   5.751   3.659  11.647
20366SOL     OW62936   0.419   8.642   5.320
20366SOL    HW162937   0.397   8.727   5.281
20366SOL    HW262938   0.502   8.618   5.278
20367SOL     OW62939  10.835   7.566   8.471
20367SOL    HW162940  10.844   7.647   8.421
20367SOL    HW262941  10.745   7.537   8.454
20368SOL     OW62942   7.910   3.221   3.489
20368SOL    HW162943   7.898   3.282   3.562
20368SOL    HW262944   7.836   3.161   3.495
20369SOL     OW62945   0.376  13.477  12.087
20369SOL    HW162946   0.429  13.446  12.014
20369SOL    HW262947   0.400  13.420  12.160
20370SOL     OW62948   6.668   5.072  13.505
20370SOL    HW162949   6.572   5.079  13.507
20370SOL    HW262950   6.695   5.136  13.440
20371SOL     OW62951  10.015   2.132  14.699
20371SOL    HW162952   9.978   2.124  14.611
20371SOL    HW262953   9.980   2.056  14.747
20372SOL     OW62954  12.042   2.780   5.756
20372SOL    HW162955  12.078   2.696   5.727
20372SOL    HW262956  12.046   2.836   5.678
20373SOL     OW62957   7.216  12.484   0.738
20373SOL    HW162958   7.162  12.477   0.659
20373SOL    HW262959   7.280  12.552   0.718
20374SOL     OW62960  14.405   6.029   6.507
20374SOL    HW162961  14.469   6.041   6.577
20374SOL    HW262962  14.323   6.013   6.552
20375SOL     OW62963   9.971  11.666   3.991
20375SOL    HW162964   9.885  11.703   4.013
20375SOL    HW262965   9.968  11.652   3.897
20376SOL     OW62966  11.134   7.959   7.060
20376SOL    HW162967  11.093   7.934   6.977
20376SOL    HW262968  11.080   8.032   7.091
20377SOL     OW62969   5.373   7.189   9.639
20377SOL    HW162970   5.342   7.196   9.729
20377SOL    HW262971   5.452   7.243   9.636
20378SOL     OW62972  11.326   9.958  11.008
20378SOL    HW162973  11.414   9.973  10.973
20378SOL    HW262974  11.283   9.904  10.941
20379SOL     OW62975   3.826   2.103  12.337
20379SOL    HW162976   3.824   2.125  12.431
20379SOL    HW262977   3.856   2.183  12.295
20380SOL     OW62978  12.206   9.900  10.774
20380SOL    HW162979  12.123   9.857  10.753
20380SOL    HW262980  12.240   9.931  10.690
20381SOL     OW62981  13.621   0.101   6.973
20381SOL    HW162982  13.624   0.092   6.877
20381SOL    HW262983  13.580   0.186   6.987
20382SOL     OW62984  11.339   1.822   6.554
20382SOL    HW162985  11.419   1.848   6.509
20382SOL    HW262986  11.354   1.732   6.582
20383SOL     OW62987   5.942   4.133   9.807
20383SOL    HW162988   5.959   4.085   9.726
20383SOL    HW262989   5.967   4.073   9.877
20384SOL     OW62990  11.676   4.967   4.311
20384SOL    HW162991  11.671   5.011   4.226
20384SOL    HW262992  11.585   4.949   4.335
20385SOL     OW62993   6.859  14.286  14.791
20385SOL    HW162994   6.768  14.313  14.801
20385SOL    HW262995   6.891  14.276  14.880
20386SOL     OW62996  10.779   8.693   8.278
20386SOL    HW162997  10.755   8.749   8.205
20386SOL    HW262998  10.799   8.754   8.350
20387SOL     OW62999  14.012   8.393   8.755
20387SOL    HW163000  13.947   8.463   8.760
20387SOL    HW263001  14.007   8.362   8.665
20388SOL     OW63002  14.680   2.920   7.369
20388SOL    HW163003  14.775   2.933   7.372
20388SOL    HW263004  14.644   2.997   7.411
20389SOL     OW63005   9.912   1.240  10.293
20389SOL    HW163006   9.907   1.144  10.290
20389SOL    HW263007   9.996   1.258  10.334
20390SOL     OW63008  11.739  13.608   5.272
20390SOL    HW163009  11.692  13.535   5.312
20390SOL    HW263010  11.798  13.640   5.341
20391SOL     OW63011   0.527   4.476  14.662
20391SOL    HW163012   0.578   4.405  14.701
20391SOL    HW263013   0.583   4.553  14.671
20392SOL     OW63014   2.349   8.972   0.844
20392SOL    HW163015   2.401   8.901   0.882
20392SOL    HW263016   2.264   8.932   0.826
20393SOL     OW63017  14.397   9.159  14.542
20393SOL    HW163018  14.445   9.086  14.504
20393SOL    HW263019  14.436   9.237  14.502
20394SOL     OW63020   2.089   8.594   9.683
20394SOL    HW163021   2.117   8.673   9.637
20394SOL    HW263022   2.052   8.538   9.615
20395SOL     OW63023  12.457   4.478   9.848
20395SOL    HW163024  12.447   4.434   9.932
20395SOL    HW263025  12.378   4.453   9.799
20396SOL     OW63026   9.778  14.855   7.330
20396SOL    HW163027   9.755  14.852   7.423
20396SOL    HW263028   9.752   0.060   7.301
20397SOL     OW63029   1.570   1.984  10.495
20397SOL    HW163030   1.608   2.046  10.557
20397SOL    HW263031   1.477   2.006  10.493
20398SOL     OW63032  13.023   0.117  10.289
20398SOL    HW163033  12.945   0.065  10.310
20398SOL    HW263034  13.096   0.062  10.317
20399SOL     OW63035  11.499   2.029   5.050
20399SOL    HW163036  11.441   1.956   5.030
20399SOL    HW263037  11.443   2.106   5.049
20400SOL     OW63038   8.513   4.847   5.303
20400SOL    HW163039   8.485   4.782   5.238
20400SOL    HW263040   8.509   4.800   5.387
20401SOL     OW63041   9.658  13.373   8.274
20401SOL    HW163042   9.659  13.349   8.181
20401SOL    HW263043   9.660  13.468   8.274
20402SOL     OW63044  14.407   0.986   9.815
20402SOL    HW163045  14.423   1.070   9.773
20402SOL    HW263046  14.494   0.946   9.823
20403SOL     OW63047   6.690   9.286   3.663
20403SOL    HW163048   6.770   9.238   3.643
20403SOL    HW263049   6.636   9.223   3.712
20404SOL     OW63050  12.747   7.479  13.990
20404SOL    HW163051  12.825   7.463  14.044
20404SOL    HW263052  12.690   7.404  14.007
20405SOL     OW63053   9.382   8.461   4.152
20405SOL    HW163054   9.324   8.387   4.170
20405SOL    HW263055   9.363   8.485   4.061
20406SOL     OW63056   4.259   8.301   3.372
20406SOL    HW163057   4.329   8.242   3.344
20406SOL    HW263058   4.184   8.244   3.388
20407SOL     OW63059  14.809  14.514   7.248
20407SOL    HW163060  14.880  14.496   7.186
20407SOL    HW263061  14.848  14.501   7.334
20408SOL     OW63062  14.827   0.169   2.594
20408SOL    HW163063  14.868   0.191   2.510
20408SOL    HW263064  14.736   0.150   2.573
20409SOL     OW63065  11.253   5.388  13.442
20409SOL    HW163066  11.254   5.293  13.442
20409SOL    HW263067  11.193   5.412  13.372
20410SOL     OW63068   4.192   9.786   7.375
20410SOL    HW163069   4.118   9.743   7.417
20410SOL    HW263070   4.256   9.716   7.361
20411SOL     OW63071   0.824  12.540   2.538
20411SOL    HW163072   0.765  12.540   2.613
20411SOL    HW263073   0.780  12.484   2.474
20412SOL     OW63074  11.666  11.444   8.459
20412SOL    HW163075  11.720  11.484   8.391
20412SOL    HW263076  11.678  11.350   8.446
20413SOL     OW63077   4.644   1.942   6.361
20413SOL    HW163078   4.641   2.037   6.346
20413SOL    HW263079   4.555   1.919   6.386
20414SOL     OW63080   6.240   5.569   6.473
20414SOL    HW163081   6.292   5.566   6.393
20414SOL    HW263082   6.181   5.643   6.460
20415SOL     OW63083   5.429  14.732   7.428
20415SOL    HW163084   5.438  14.783   7.347
20415SOL    HW263085   5.352  14.677   7.414
20416SOL     OW63086  13.990   1.873   9.109
20416SOL    HW163087  14.028   1.785   9.106
20416SOL    HW263088  13.896   1.857   9.120
20417SOL     OW63089  10.664   1.930  13.170
20417SOL    HW163090  10.703   1.972  13.247
20417SOL    HW263091  10.694   1.840  13.174
20418SOL     OW63092   0.343  12.025   1.856
20418SOL    HW163093   0.395  11.946   1.868
20418SOL    HW263094   0.286  12.029   1.933
20419SOL     OW63095  11.268   6.762  10.794
20419SOL    HW163096  11.186   6.798  10.825
20419SOL    HW263097  11.320   6.838  10.767
20420SOL     OW63098   1.648   6.953  12.851
20420SOL    HW163099   1.648   6.918  12.940
20420SOL    HW263100   1.701   7.032  12.855
20421SOL     OW63101  11.415   2.149   4.376
20421SOL    HW163102  11.338   2.138   4.321
20421SOL    HW263103  11.482   2.183   4.317
20422SOL     OW63104   4.517  11.278  10.329
20422SOL    HW163105   4.562  11.236  10.256
20422SOL    HW263106   4.490  11.206  10.386
20423SOL     OW63107   8.670   2.838   6.643
20423SOL    HW163108   8.682   2.899   6.571
20423SOL    HW263109   8.722   2.874   6.715
20424SOL     OW63110   2.950   7.166   0.700
20424SOL    HW163111   3.042   7.161   0.725
20424SOL    HW263112   2.946   7.239   0.639
20425SOL     OW63113   7.150  10.510  10.867
20425SOL    HW163114   7.063  10.491  10.831
20425SOL    HW263115   7.181  10.586  10.818
20426SOL     OW63116   1.062   7.630   4.540
20426SOL    HW163117   0.974   7.641   4.576
20426SOL    HW263118   1.119   7.639   4.616
20427SOL     OW63119   4.892  12.827  12.757
20427SOL    HW163120   4.860  12.737  12.757
20427SOL    HW263121   4.825  12.877  12.803
20428SOL     OW63122   2.918  14.311   5.086
20428SOL    HW163123   2.937  14.218   5.098
20428SOL    HW263124   2.921  14.323   4.991
20429SOL     OW63125  13.660  11.067  12.609
20429SOL    HW163126  13.652  11.047  12.703
20429SOL    HW263127  13.637  11.159  12.602
20430SOL     OW63128   1.110  14.473   4.213
20430SOL    HW163129   1.190  14.426   4.188
20430SOL    HW263130   1.050  14.459   4.140
20431SOL     OW63131   1.226   2.094   8.582
20431SOL    HW163132   1.185   2.132   8.504
20431SOL    HW263133   1.315   2.072   8.553
20432SOL     OW63134   3.732  11.405   0.581
20432SOL    HW163135   3.732  11.368   0.493
20432SOL    HW263136   3.663  11.357   0.627
20433SOL     OW63137  12.820  13.363   7.519
20433SOL    HW163138  12.735  13.378   7.560
20433SOL    HW263139  12.829  13.268   7.516
20434SOL     OW63140  12.539   7.432   2.598
20434SOL    HW163141  12.466   7.490   2.577
20434SOL    HW263142  12.544   7.433   2.694
20435SOL     OW63143  13.018   1.908   7.256
20435SOL    HW163144  12.952   1.839   7.263
20435SOL    HW263145  13.018   1.930   7.163
20436SOL     OW63146   1.473  10.440   2.735
20436SOL    HW163147   1.564  10.467   2.718
20436SOL    HW263148   1.434  10.516   2.778
20437SOL     OW63149   9.043   2.445   9.419
20437SOL    HW163150   9.059   2.408   9.506
20437SOL    HW263151   8.954   2.479   9.423
20438SOL     OW63152  14.309   1.050  11.583
20438SOL    HW163153  14.351   1.009  11.507
20438SOL    HW263154  14.224   1.007  11.589
20439SOL     OW63155   5.792  13.192   1.755
20439SOL    HW163156   5.724  13.253   1.782
20439SOL    HW263157   5.745  13.111   1.736
20440SOL     OW63158   3.339  14.381   7.703
20440SOL    HW163159   3.386  14.401   7.622
20440SOL    HW263160   3.390  14.425   7.772
20441SOL     OW63161   0.320  12.524  13.109
20441SOL    HW163162   0.387  12.583  13.144
20441SOL    HW263163   0.288  12.476  13.185
20442SOL     OW63164  11.715   5.389  10.994
20442SOL    HW163165  11.770   5.383  11.073
20442SOL    HW263166  11.650   5.456  11.014
20443SOL     OW63167   5.635   7.084  11.551
20443SOL    HW163168   5.621   7.178  11.558
20443SOL    HW263169   5.729   7.072  11.569
20444SOL     OW63170   0.730  13.046  14.091
20444SOL    HW163171   0.679  12.968  14.068
20444SOL    HW263172   0.695  13.115  14.034
20445SOL     OW63173   9.129  13.950   9.972
20445SOL    HW163174   9.049  13.912  10.009
20445SOL    HW263175   9.198  13.888   9.992
20446SOL     OW63176  12.199   2.846  11.811
20446SOL    HW163177  12.121   2.794  11.832
20446SOL    HW263178  12.271   2.784  11.814
20447SOL     OW63179   2.456   8.297   2.010
20447SOL    HW163180   2.546   8.280   1.982
20447SOL    HW263181   2.407   8.220   1.982
20448SOL     OW63182  11.037   7.522  13.615
20448SOL    HW163183  11.113   7.496  13.563
20448SOL    HW263184  10.977   7.447  13.609
20449SOL     OW63185  14.470  10.088  13.827
20449SOL    HW163186  14.566  10.085  13.833
20449SOL    HW263187  14.442   9.999  13.848
20450SOL     OW63188   5.143   2.012   7.360
20450SOL    HW163189   5.134   2.103   7.385
20450SOL    HW263190   5.061   1.992   7.314
20451SOL     OW63191   1.498   0.291   1.444
20451SOL    HW163192   1.429   0.347   1.409
20451SOL    HW263193   1.477   0.204   1.411
20452SOL     OW63194   1.356  11.523  12.346
20452SOL    HW163195   1.428  11.468  12.315
20452SOL    HW263196   1.381  11.547  12.435
20453SOL     OW63197   0.650  14.417  11.781
20453SOL    HW163198   0.746  14.421  11.788
20453SOL    HW263199   0.634  14.361  11.705
20454SOL     OW63200   9.161   2.445  11.946
20454SOL    HW163201   9.085   2.390  11.924
20454SOL    HW263202   9.233   2.383  11.953
20455SOL     OW63203  12.151  13.665   2.488
20455SOL    HW163204  12.064  13.643   2.455
20455SOL    HW263205  12.159  13.759   2.471
20456SOL     OW63206   5.847   2.484   4.163
20456SOL    HW163207   5.823   2.420   4.230
20456SOL    HW263208   5.894   2.434   4.097
20457SOL     OW63209   2.324   7.027   3.111
20457SOL    HW163210   2.267   7.099   3.138
20457SOL    HW263211   2.384   7.065   3.048
20458SOL     OW63212  14.731  13.409   6.975
20458SOL    HW163213  14.742  13.390   7.068
20458SOL    HW263214  14.684  13.333   6.940
20459SOL     OW63215  10.054  11.778   2.435
20459SOL    HW163216  10.070  11.826   2.516
20459SOL    HW263217   9.972  11.814   2.401
20460SOL     OW63218   6.658  13.969   7.071
20460SOL    HW163219   6.639  14.061   7.086
20460SOL    HW263220   6.685  13.936   7.157
20461SOL     OW63221  12.326   8.549  13.675
20461SOL    HW163222  12.245   8.600  13.669
20461SOL    HW263223  12.396   8.614  13.668
20462SOL     OW63224   8.740   0.148   0.454
20462SOL    HW163225   8.691   0.116   0.530
20462SOL    HW263226   8.727   0.242   0.454
20463SOL     OW63227   1.589   3.456   1.799
20463SOL    HW163228   1.682   3.458   1.822
20463SOL    HW263229   1.588   3.433   1.706
20464SOL     OW63230   9.093  13.996   6.920
20464SOL    HW163231   9.108  13.912   6.876
20464SOL    HW263232   9.100  14.061   6.850
20465SOL     OW63233   2.695   8.423   3.900
20465SOL    HW163234   2.636   8.402   3.972
20465SOL    HW263235   2.695   8.344   3.845
20466SOL     OW63236  12.474  12.395   9.867
20466SOL    HW163237  12.548  12.412   9.808
20466SOL    HW263238  12.478  12.466   9.932
20467SOL     OW63239  12.025   0.487   5.340
20467SOL    HW163240  12.026   0.576   5.304
20467SOL    HW263241  12.042   0.430   5.264
20468SOL     OW63242   4.249   6.064  11.837
20468SOL    HW163243   4.291   6.076  11.752
20468SOL    HW263244   4.158   6.045  11.816
20469SOL     OW63245  14.405   9.343  11.364
20469SOL    HW163246  14.445   9.417  11.318
20469SOL    HW263247  14.334   9.382  11.415
20470SOL     OW63248  11.187  14.041   5.084
20470SOL    HW163249  11.271  14.063   5.043
20470SOL    HW263250  11.122  14.089   5.034
20471SOL     OW63251   5.547  10.321   7.686
20471SOL    HW163252   5.618  10.321   7.750
20471SOL    HW263253   5.470  10.297   7.736
20472SOL     OW63254   2.331   2.522   2.306
20472SOL    HW163255   2.334   2.484   2.394
20472SOL    HW263256   2.358   2.613   2.318
20473SOL     OW63257   3.953  10.218   1.482
20473SOL    HW163258   3.882  10.269   1.441
20473SOL    HW263259   3.932  10.218   1.575
20474SOL     OW63260   1.573  10.332   0.088
20474SOL    HW163261   1.567  10.427   0.097
20474SOL    HW263262   1.639  10.306   0.152
20475SOL     OW63263   2.068   7.711  10.788
20475SOL    HW163264   2.129   7.638  10.797
20475SOL    HW263265   1.983   7.673  10.810
20476SOL     OW63266   6.896   9.632   6.285
20476SOL    HW163267   6.909   9.614   6.192
20476SOL    HW263268   6.842   9.711   6.287
20477SOL     OW63269   4.998   1.954   3.543
20477SOL    HW163270   4.960   1.976   3.628
20477SOL    HW263271   5.022   1.862   3.550
20478SOL     OW63272  11.522   7.667   4.565
20478SOL    HW163273  11.554   7.706   4.646
20478SOL    HW263274  11.545   7.730   4.497
20479SOL     OW63275  13.285  12.264   9.659
20479SOL    HW163276  13.242  12.210   9.593
20479SOL    HW263277  13.345  12.205   9.704
20480SOL     OW63278   8.358   3.268   9.107
20480SOL    HW163279   8.265   3.248   9.106
20480SOL    HW263280   8.387   3.255   9.016
20481SOL     OW63281   8.920   2.740   7.409
20481SOL    HW163282   8.954   2.690   7.484
20481SOL    HW263283   8.993   2.744   7.347
20482SOL     OW63284  10.381   3.734   6.390
20482SOL    HW163285  10.371   3.819   6.432
20482SOL    HW263286  10.319   3.736   6.317
20483SOL     OW63287   7.901   8.080   7.120
20483SOL    HW163288   7.878   8.103   7.030
20483SOL    HW263289   7.889   8.161   7.170
20484SOL     OW63290   1.147   3.580   7.019
20484SOL    HW163291   1.132   3.506   6.961
20484SOL    HW263292   1.200   3.544   7.091
20485SOL     OW63293  13.904   2.719   4.212
20485SOL    HW163294  13.864   2.736   4.297
20485SOL    HW263295  13.973   2.785   4.204
20486SOL     OW63296  10.189   5.852  12.030
20486SOL    HW163297  10.221   5.780  11.976
20486SOL    HW263298  10.220   5.931  11.986
20487SOL     OW63299   1.334  12.352   4.417
20487SOL    HW163300   1.242  12.374   4.433
20487SOL    HW263301   1.348  12.270   4.463
20488SOL     OW63302  12.534  13.550   2.096
20488SOL    HW163303  12.571  13.465   2.117
20488SOL    HW263304  12.497  13.582   2.178
20489SOL     OW63305   4.594   2.900   4.155
20489SOL    HW163306   4.542   2.908   4.235
20489SOL    HW263307   4.537   2.933   4.085
20490SOL     OW63308  11.626  10.771  12.097
20490SOL    HW163309  11.617  10.715  12.174
20490SOL    HW263310  11.705  10.738  12.053
20491SOL     OW63311   3.359   6.689   6.493
20491SOL    HW163312   3.264   6.692   6.490
20491SOL    HW263313   3.388   6.734   6.414
20492SOL     OW63314   2.683   4.206  14.413
20492SOL    HW163315   2.590   4.200  14.389
20492SOL    HW263316   2.714   4.115  14.413
20493SOL     OW63317  13.918   2.510   0.254
20493SOL    HW163318  13.842   2.460   0.223
20493SOL    HW263319  13.895   2.535   0.344
20494SOL     OW63320   4.801   4.492   5.425
20494SOL    HW163321   4.800   4.428   5.354
20494SOL    HW263322   4.800   4.577   5.381
20495SOL     OW63323   8.741   4.051   7.113
20495SOL    HW163324   8.795   4.101   7.175
20495SOL    HW263325   8.689   3.992   7.169
20496SOL     OW63326  14.453   5.607  11.489
20496SOL    HW163327  14.377   5.550  11.477
20496SOL    HW263328  14.484   5.589  11.578
20497SOL     OW63329   8.459   9.991   5.262
20497SOL    HW163330   8.444  10.000   5.168
20497SOL    HW263331   8.447   9.898   5.279
20498SOL     OW63332  12.316   2.800  11.260
20498SOL    HW163333  12.242   2.758  11.216
20498SOL    HW263334  12.386   2.735  11.258
20499SOL     OW63335   0.976  13.607  10.393
20499SOL    HW163336   1.066  13.573  10.389
20499SOL    HW263337   0.922  13.537  10.357
20500SOL     OW63338   5.806  14.380  13.592
20500SOL    HW163339   5.758  14.451  13.549
20500SOL    HW263340   5.768  14.300  13.555
20501SOL     OW63341   6.783  12.299   2.975
20501SOL    HW163342   6.873  12.267   2.975
20501SOL    HW263343   6.788  12.386   3.015
20502SOL     OW63344  12.494  10.788   8.424
20502SOL    HW163345  12.496  10.855   8.357
20502SOL    HW263346  12.459  10.832   8.501
20503SOL     OW63347   0.651  13.064   5.000
20503SOL    HW163348   0.641  13.148   5.045
20503SOL    HW263349   0.658  13.000   5.071
20504SOL     OW63350   6.641   7.386   4.432
20504SOL    HW163351   6.637   7.468   4.482
20504SOL    HW263352   6.584   7.326   4.479
20505SOL     OW63353   4.540  13.431   9.965
20505SOL    HW163354   4.624  13.385   9.972
20505SOL    HW263355   4.503  13.428  10.053
20506SOL     OW63356  12.097   3.832   5.882
20506SOL    HW163357  12.034   3.905   5.876
20506SOL    HW263358  12.100   3.811   5.975
20507SOL     OW63359   5.462  10.518   5.340
20507SOL    HW163360   5.429  10.567   5.264
20507SOL    HW263361   5.497  10.586   5.399
20508SOL     OW63362   5.230   2.139   5.330
20508SOL    HW163363   5.168   2.078   5.370
20508SOL    HW263364   5.220   2.220   5.380
20509SOL     OW63365   4.862   1.356   1.993
20509SOL    HW163366   4.897   1.297   2.059
20509SOL    HW263367   4.860   1.303   1.913
20510SOL     OW63368  12.039  10.608   6.222
20510SOL    HW163369  12.021  10.674   6.289
20510SOL    HW263370  11.968  10.618   6.159
20511SOL     OW63371   3.179  13.342   8.103
20511SOL    HW163372   3.236  13.280   8.058
20511SOL    HW263373   3.232  13.374   8.177
20512SOL     OW63374   6.942  13.700  12.433
20512SOL    HW163375   6.891  13.706  12.513
20512SOL    HW263376   7.033  13.689  12.462
20513SOL     OW63377  14.253   7.652   1.559
20513SOL    HW163378  14.263   7.559   1.537
20513SOL    HW263379  14.279   7.657   1.651
20514SOL     OW63380  10.832   6.043   1.417
20514SOL    HW163381  10.893   5.993   1.364
20514SOL    HW263382  10.883   6.117   1.450
20515SOL     OW63383   0.592   8.426  12.071
20515SOL    HW163384   0.632   8.512  12.070
20515SOL    HW263385   0.502   8.441  12.041
20516SOL     OW63386  11.052   2.598  10.796
20516SOL    HW163387  11.089   2.516  10.829
20516SOL    HW263388  10.974   2.612  10.849
20517SOL     OW63389  13.042   3.706   2.537
20517SOL    HW163390  13.056   3.789   2.492
20517SOL    HW263391  13.110   3.648   2.502
20518SOL     OW63392  12.885   2.825  12.900
20518SOL    HW163393  12.833   2.853  12.976
20518SOL    HW263394  12.895   2.904  12.848
20519SOL     OW63395   7.650   3.554   1.202
20519SOL    HW163396   7.596   3.607   1.261
20519SOL    HW263397   7.608   3.468   1.202
20520SOL     OW63398  13.570  10.661   8.236
20520SOL    HW163399  13.604  10.694   8.319
20520SOL    HW263400  13.643  10.614   8.197
20521SOL     OW63401   4.126   3.857   5.350
20521SOL    HW163402   4.144   3.934   5.404
20521SOL    HW263403   4.195   3.795   5.371
20522SOL     OW63404   7.988  14.402  13.945
20522SOL    HW163405   8.053  14.403  13.875
20522SOL    HW263406   8.033  14.362  14.019
20523SOL     OW63407   5.472   6.705   4.937
20523SOL    HW163408   5.473   6.798   4.957
20523SOL    HW263409   5.501   6.663   5.018
20524SOL     OW63410   4.486  11.246  14.844
20524SOL    HW163411   4.423  11.255   0.033
20524SOL    HW263412   4.441  11.282  14.768
20525SOL     OW63413   6.965  10.610   9.956
20525SOL    HW163414   7.006  10.643  10.036
20525SOL    HW263415   6.871  10.627   9.968
20526SOL     OW63416   8.061   3.017   7.421
20526SOL    HW163417   7.978   2.973   7.405
20526SOL    HW263418   8.105   2.962   7.486
20527SOL     OW63419  11.379   3.309   5.744
20527SOL    HW163420  11.413   3.329   5.657
20527SOL    HW263421  11.359   3.216   5.741
20528SOL     OW63422  13.219   2.607  13.587
20528SOL    HW163423  13.152   2.632  13.650
20528SOL    HW263424  13.174   2.548  13.526
20529SOL     OW63425   8.717   2.359   0.866
20529SOL    HW163426   8.710   2.452   0.889
20529SOL    HW263427   8.671   2.313   0.936
20530SOL     OW63428   8.827  14.318   1.278
20530SOL    HW163429   8.753  14.339   1.221
20530SOL    HW263430   8.790  14.262   1.346
20531SOL     OW63431   8.097  10.750   4.602
20531SOL    HW163432   8.076  10.666   4.643
20531SOL    HW263433   8.066  10.815   4.665
20532SOL     OW63434   7.329   8.540  13.775
20532SOL    HW163435   7.358   8.619  13.820
20532SOL    HW263436   7.302   8.570  13.689
20533SOL     OW63437   9.796  12.999   3.173
20533SOL    HW163438   9.771  12.910   3.196
20533SOL    HW263439   9.892  12.997   3.169
20534SOL     OW63440   6.555   1.968   2.382
20534SOL    HW163441   6.478   1.985   2.327
20534SOL    HW263442   6.531   2.003   2.468
20535SOL     OW63443   7.918  14.724  11.630
20535SOL    HW163444   7.930  14.807  11.585
20535SOL    HW263445   7.953  14.658  11.569
20536SOL     OW63446   1.284   1.568   3.949
20536SOL    HW163447   1.266   1.662   3.949
20536SOL    HW263448   1.240   1.535   3.871
20537SOL     OW63449   2.825   8.939   8.669
20537SOL    HW163450   2.741   8.977   8.696
20537SOL    HW263451   2.878   9.014   8.643
20538SOL     OW63452   1.348   9.299   3.635
20538SOL    HW163453   1.308   9.386   3.629
20538SOL    HW263454   1.281   9.240   3.602
20539SOL     OW63455   4.205   6.385   1.933
20539SOL    HW163456   4.231   6.298   1.903
20539SOL    HW263457   4.143   6.415   1.866
20540SOL     OW63458   1.236  13.787   5.188
20540SOL    HW163459   1.188  13.795   5.271
20540SOL    HW263460   1.255  13.877   5.162
20541SOL     OW63461   9.027   9.814   2.448
20541SOL    HW163462   8.957   9.750   2.440
20541SOL    HW263463   9.017   9.871   2.372
20542SOL     OW63464   1.150   7.404   8.903
20542SOL    HW163465   1.222   7.462   8.927
20542SOL    HW263466   1.151   7.336   8.970
20543SOL     OW63467  14.005  10.311  13.604
20543SOL    HW163468  13.968  10.224  13.622
20543SOL    HW263469  14.081  10.316  13.663
20544SOL     OW63470  13.481   8.327  11.139
20544SOL    HW163471  13.511   8.241  11.168
20544SOL    HW263472  13.514   8.388  11.205
20545SOL     OW63473   7.057  10.165   6.004
20545SOL    HW163474   7.002  10.242   5.988
20545SOL    HW263475   7.147  10.197   5.998
20546SOL     OW63476   0.976   5.542   4.062
20546SOL    HW163477   0.899   5.599   4.062
20546SOL    HW263478   0.962   5.484   3.987
20547SOL     OW63479   8.359   4.543  12.287
20547SOL    HW163480   8.409   4.610  12.240
20547SOL    HW263481   8.423   4.474  12.305
20548SOL     OW63482  11.489   5.201   1.985
20548SOL    HW163483  11.451   5.132   1.931
20548SOL    HW263484  11.441   5.196   2.068
20549SOL     OW63485   2.867  12.090   9.633
20549SOL    HW163486   2.882  11.997   9.615
20549SOL    HW263487   2.904  12.136   9.558
20550SOL     OW63488   6.657  13.123   6.470
20550SOL    HW163489   6.629  13.215   6.478
20550SOL    HW263490   6.706  13.106   6.550
20551SOL     OW63491   9.332  14.360  11.294
20551SOL    HW163492   9.249  14.317  11.273
20551SOL    HW263493   9.375  14.300  11.355
20552SOL     OW63494  13.762   4.677   4.596
20552SOL    HW163495  13.824   4.604   4.592
20552SOL    HW263496  13.814   4.751   4.626
20553SOL     OW63497   0.304   0.060   1.565
20553SOL    HW163498   0.301   0.156   1.566
20553SOL    HW263499   0.370   0.038   1.499
20554SOL     OW63500   2.461  13.553  11.557
20554SOL    HW163501   2.385  13.597  11.595
20554SOL    HW263502   2.440  13.544  11.464
20555SOL     OW63503   6.825   6.829  11.968
20555SOL    HW163504   6.851   6.882  12.044
20555SOL    HW263505   6.840   6.887  11.893
20556SOL     OW63506   1.443   0.719   4.275
20556SOL    HW163507   1.391   0.684   4.347
20556SOL    HW263508   1.381   0.726   4.202
20557SOL     OW63509   1.278  13.112   2.225
20557SOL    HW163510   1.223  13.039   2.197
20557SOL    HW263511   1.305  13.155   2.144
20558SOL     OW63512   5.747   3.110   2.142
20558SOL    HW163513   5.768   3.110   2.236
20558SOL    HW263514   5.766   3.021   2.113
20559SOL     OW63515   7.353   6.802  13.876
20559SOL    HW163516   7.338   6.742  13.803
20559SOL    HW263517   7.359   6.888  13.836
20560SOL     OW63518  13.533   8.556   4.421
20560SOL    HW163519  13.601   8.594   4.366
20560SOL    HW263520  13.580   8.523   4.497
20561SOL     OW63521   9.697  11.563  10.837
20561SOL    HW163522   9.646  11.484  10.856
20561SOL    HW263523   9.745  11.581  10.918
20562SOL     OW63524   5.604  11.040   1.022
20562SOL    HW163525   5.609  10.960   1.075
20562SOL    HW263526   5.523  11.031   0.972
20563SOL     OW63527   8.419   4.543   2.261
20563SOL    HW163528   8.394   4.591   2.340
20563SOL    HW263529   8.343   4.552   2.203
20564SOL     OW63530   0.091   1.474   4.562
20564SOL    HW163531   0.063   1.489   4.653
20564SOL    HW263532   0.165   1.414   4.569
20565SOL     OW63533   3.621   6.259   3.383
20565SOL    HW163534   3.620   6.188   3.446
20565SOL    HW263535   3.712   6.290   3.383
20566SOL     OW63536   3.998  12.450   6.408
20566SOL    HW163537   3.982  12.355   6.403
20566SOL    HW263538   3.918  12.490   6.375
20567SOL     OW63539   2.472  13.347  10.731
20567SOL    HW163540   2.436  13.433  10.752
20567SOL    HW263541   2.397  13.295  10.703
20568SOL     OW63542   3.130  12.960   8.813
20568SOL    HW163543   3.054  12.902   8.817
20568SOL    HW263544   3.200  12.911   8.857
20569SOL     OW63545  13.728   2.292   0.206
20569SOL    HW163546  13.764   2.203   0.197
20569SOL    HW263547  13.672   2.288   0.283
20570SOL     OW63548   5.230  11.594   5.052
20570SOL    HW163549   5.275  11.510   5.039
20570SOL    HW263550   5.273  11.653   4.991
20571SOL     OW63551  10.784   2.415  13.690
20571SOL    HW163552  10.793   2.353  13.762
20571SOL    HW263553  10.744   2.364  13.620
20572SOL     OW63554  10.209  14.099   6.664
20572SOL    HW163555  10.225  14.023   6.608
20572SOL    HW263556  10.122  14.084   6.700
20573SOL     OW63557   4.379   6.119   8.517
20573SOL    HW163558   4.340   6.160   8.440
20573SOL    HW263559   4.348   6.171   8.591
20574SOL     OW63560  13.384   7.292   6.213
20574SOL    HW163561  13.331   7.284   6.292
20574SOL    HW263562  13.454   7.353   6.236
20575SOL     OW63563   6.079  12.073   4.581
20575SOL    HW163564   6.014  12.059   4.512
20575SOL    HW263565   6.150  12.119   4.539
20576SOL     OW63566   6.258   6.538  11.416
20576SOL    HW163567   6.176   6.583  11.398
20576SOL    HW263568   6.324   6.587  11.365
20577SOL     OW63569  13.636  12.289   1.008
20577SOL    HW163570  13.690  12.321   1.080
20577SOL    HW263571  13.676  12.326   0.930
20578SOL     OW63572  11.000  13.834   1.454
20578SOL    HW163573  10.973  13.814   1.365
20578SOL    HW263574  11.036  13.922   1.450
20579SOL     OW63575   2.715  11.577   5.306
20579SOL    HW163576   2.734  11.655   5.358
20579SOL    HW263577   2.799  11.551   5.269
20580SOL     OW63578  10.965   3.140  14.747
20580SOL    HW163579  10.916   3.134  14.829
20580SOL    HW263580  10.909   3.192  14.690
20581SOL     OW63581  14.386   7.418  10.315
20581SOL    HW163582  14.423   7.330  10.310
20581SOL    HW263583  14.461   7.476  10.326
20582SOL     OW63584   3.166  12.584   5.996
20582SOL    HW163585   3.216  12.595   6.077
20582SOL    HW263586   3.123  12.668   5.983
20583SOL     OW63587   6.766   7.655  11.782
20583SOL    HW163588   6.815   7.723  11.735
20583SOL    HW263589   6.687   7.642  11.731
20584SOL     OW63590   3.568  12.725  11.758
20584SOL    HW163591   3.538  12.715  11.667
20584SOL    HW263592   3.642  12.786  11.751
20585SOL     OW63593   1.502   4.095   6.903
20585SOL    HW163594   1.567   4.093   6.973
20585SOL    HW263595   1.428   4.044   6.938
20586SOL     OW63596   4.489  11.052   2.966
20586SOL    HW163597   4.561  10.998   2.998
20586SOL    HW263598   4.525  11.098   2.890
20587SOL     OW63599   3.462   0.908   1.123
20587SOL    HW163600   3.393   0.861   1.077
20587SOL    HW263601   3.460   0.873   1.212
20588SOL     OW63602  14.049   3.190   2.109
20588SOL    HW163603  14.066   3.106   2.067
20588SOL    HW263604  14.132   3.213   2.151
20589SOL     OW63605   1.961   8.003   6.424
20589SOL    HW163606   1.988   8.057   6.499
20589SOL    HW263607   1.868   7.987   6.438
20590SOL     OW63608  10.998   2.003  11.261
20590SOL    HW163609  11.056   1.983  11.334
20590SOL    HW263610  11.054   2.047  11.197
20591SOL     OW63611   8.732  12.483   9.792
20591SOL    HW163612   8.666  12.420   9.766
20591SOL    HW263613   8.810  12.458   9.743
20592SOL     OW63614   7.010   2.609   8.564
20592SOL    HW163615   7.036   2.633   8.475
20592SOL    HW263616   6.948   2.537   8.553
20593SOL     OW63617  14.655   0.223   3.159
20593SOL    HW163618  14.629   0.221   3.067
20593SOL    HW263619  14.740   0.268   3.159
20594SOL     OW63620   7.757   9.045  10.573
20594SOL    HW163621   7.795   9.054  10.486
20594SOL    HW263622   7.675   9.095  10.569
20595SOL     OW63623   9.942   2.719   5.194
20595SOL    HW163624  10.021   2.707   5.247
20595SOL    HW263625   9.911   2.807   5.217
20596SOL     OW63626  13.809   5.912   0.847
20596SOL    HW163627  13.761   5.895   0.766
20596SOL    HW263628  13.763   5.986   0.887
20597SOL     OW63629  12.346   7.736   1.875
20597SOL    HW163630  12.438   7.738   1.901
20597SOL    HW263631  12.340   7.665   1.811
20598SOL     OW63632   5.489   2.415  12.554
20598SOL    HW163633   5.499   2.385  12.645
20598SOL    HW263634   5.577   2.412  12.518
20599SOL     OW63635   7.781   7.809   4.890
20599SOL    HW163636   7.775   7.867   4.814
20599SOL    HW263637   7.766   7.722   4.854
20600SOL     OW63638  11.962   7.161   1.542
20600SOL    HW163639  11.873   7.176   1.512
20600SOL    HW263640  11.955   7.089   1.605
20601SOL     OW63641   9.315  13.944   6.260
20601SOL    HW163642   9.312  13.979   6.171
20601SOL    HW263643   9.405  13.958   6.289
20602SOL     OW63644  14.020   9.726   5.859
20602SOL    HW163645  14.004   9.646   5.910
20602SOL    HW263646  14.029   9.795   5.925
20603SOL     OW63647   9.173  12.962  12.227
20603SOL    HW163648   9.086  12.935  12.199
20603SOL    HW263649   9.158  13.032  12.290
20604SOL     OW63650   9.451   9.786  13.166
20604SOL    HW163651   9.448   9.881  13.176
20604SOL    HW263652   9.410   9.751  13.245
20605SOL     OW63653  10.704   1.267   7.031
20605SOL    HW163654  10.755   1.194   7.064
20605SOL    HW263655  10.661   1.233   6.952
20606SOL     OW63656   5.229  13.159  10.336
20606SOL    HW163657   5.285  13.131  10.263
20606SOL    HW263658   5.165  13.088  10.345
20607SOL     OW63659   3.118  10.870   4.104
20607SOL    HW163660   3.147  10.781   4.083
20607SOL    HW263661   3.048  10.857   4.168
20608SOL     OW63662   4.003   7.191   6.801
20608SOL    HW163663   4.008   7.158   6.711
20608SOL    HW263664   4.045   7.123   6.854
20609SOL     OW63665   1.666  10.841  12.490
20609SOL    HW163666   1.726  10.879  12.427
20609SOL    HW263667   1.676  10.895  12.568
20610SOL     OW63668   1.925  13.011  13.691
20610SOL    HW163669   1.870  13.022  13.768
20610SOL    HW263670   1.888  12.936  13.645
20611SOL     OW63671   4.436   8.076   6.586
20611SOL    HW163672   4.358   8.120   6.553
20611SOL    HW263673   4.500   8.146   6.597
20612SOL     OW63674   8.475   4.796   9.952
20612SOL    HW163675   8.495   4.745  10.031
20612SOL    HW263676   8.423   4.736   9.898
20613SOL     OW63677  10.547  10.786  11.786
20613SOL    HW163678  10.614  10.853  11.770
20613SOL    HW263679  10.514  10.763  11.700
20614SOL     OW63680  11.630   6.539   3.455
20614SOL    HW163681  11.644   6.584   3.538
20614SOL    HW263682  11.623   6.610   3.391
20615SOL     OW63683   2.225  10.009  13.399
20615SOL    HW163684   2.282  10.086  13.394
20615SOL    HW263685   2.148  10.040  13.447
20616SOL     OW63686   9.148  14.624  14.373
20616SOL    HW163687   9.098  14.651  14.451
20616SOL    HW263688   9.197  14.547  14.402
20617SOL     OW63689   0.375   7.261  13.774
20617SOL    HW163690   0.405   7.179  13.734
20617SOL    HW263691   0.286   7.272  13.742
20618SOL     OW63692  11.842   0.853  13.950
20618SOL    HW163693  11.839   0.939  13.909
20618SOL    HW263694  11.750   0.826  13.956
20619SOL     OW63695   0.048  12.358   1.342
20619SOL    HW163696   0.039  12.451   1.367
20619SOL    HW263697   0.087  12.360   1.255
20620SOL     OW63698  13.769   4.739  10.344
20620SOL    HW163699  13.761   4.729  10.249
20620SOL    HW263700  13.761   4.833  10.359
20621SOL     OW63701   6.310  14.616  12.931
20621SOL    HW163702   6.253  14.668  12.987
20621SOL    HW263703   6.350  14.552  12.989
20622SOL     OW63704  14.736  10.754   1.064
20622SOL    HW163705  14.660  10.790   1.111
20622SOL    HW263706  14.812  10.793   1.107
20623SOL     OW63707   0.119  11.637   9.117
20623SOL    HW163708   0.176  11.671   9.186
20623SOL    HW263709   0.160  11.555   9.090
20624SOL     OW63710   2.091   3.657   2.794
20624SOL    HW163711   2.154   3.617   2.734
20624SOL    HW263712   2.027   3.588   2.810
20625SOL     OW63713   3.619   4.256   2.281
20625SOL    HW163714   3.607   4.190   2.350
20625SOL    HW263715   3.654   4.332   2.327
20626SOL     OW63716  12.975   3.727  14.123
20626SOL    HW163717  13.023   3.648  14.098
20626SOL    HW263718  12.910   3.739  14.055
20627SOL     OW63719   7.635   6.060  14.792
20627SOL    HW163720   7.634   6.155  14.776
20627SOL    HW263721   7.557   6.044  14.844
20628SOL     OW63722  14.549   2.371   2.240
20628SOL    HW163723  14.620   2.361   2.303
20628SOL    HW263724  14.501   2.448   2.272
20629SOL     OW63725   5.953   8.061  14.361
20629SOL    HW163726   5.941   8.074  14.267
20629SOL    HW263727   5.925   8.144  14.400
20630SOL     OW63728   0.406   6.166  11.869
20630SOL    HW163729   0.368   6.250  11.892
20630SOL    HW263730   0.448   6.135  11.949
20631SOL     OW63731   6.207  10.855   8.115
20631SOL    HW163732   6.128  10.908   8.109
20631SOL    HW263733   6.208  10.803   8.035
20632SOL     OW63734   8.136   5.465   3.756
20632SOL    HW163735   8.187   5.448   3.677
20632SOL    HW263736   8.197   5.449   3.828
20633SOL     OW63737  11.940   4.434   2.078
20633SOL    HW163738  11.913   4.392   2.160
20633SOL    HW263739  11.922   4.369   2.011
20634SOL     OW63740   5.570  14.733  13.341
20634SOL    HW163741   5.543  14.722  13.249
20634SOL    HW263742   5.487  14.731  13.390
20635SOL     OW63743   9.932  10.585  11.542
20635SOL    HW163744  10.018  10.552  11.518
20635SOL    HW263745   9.896  10.519  11.602
20636SOL     OW63746   5.332   0.111  13.661
20636SOL    HW163747   5.240   0.126  13.640
20636SOL    HW263748   5.363   0.195  13.695
20637SOL     OW63749  14.564   9.389   4.914
20637SOL    HW163750  14.485   9.400   4.861
20637SOL    HW263751  14.636   9.407   4.853
20638SOL     OW63752   4.822  11.312   4.967
20638SOL    HW163753   4.811  11.254   4.892
20638SOL    HW263754   4.742  11.300   5.019
20639SOL     OW63755   9.814  12.898   2.389
20639SOL    HW163756   9.864  12.979   2.394
20639SOL    HW263757   9.723  12.925   2.403
20640SOL     OW63758   2.333   9.963   5.788
20640SOL    HW163759   2.320   9.962   5.693
20640SOL    HW263760   2.342   9.871   5.813
20641SOL     OW63761   4.497   6.268  13.501
20641SOL    HW163762   4.560   6.212  13.457
20641SOL    HW263763   4.440   6.208  13.549
20642SOL     OW63764   3.876   4.398  12.430
20642SOL    HW163765   3.878   4.487  12.466
20642SOL    HW263766   3.961   4.387  12.388
20643SOL     OW63767   7.305  11.117  12.013
20643SOL    HW163768   7.284  11.156  12.097
20643SOL    HW263769   7.234  11.143  11.955
20644SOL     OW63770   1.530   0.793  12.730
20644SOL    HW163771   1.478   0.858  12.778
20644SOL    HW263772   1.471   0.718  12.721
20645SOL     OW63773   3.259  13.257   4.106
20645SOL    HW163774   3.341  13.306   4.097
20645SOL    HW263775   3.221  13.290   4.187
20646SOL     OW63776   6.079   0.255   9.316
20646SOL    HW163777   6.013   0.309   9.272
20646SOL    HW263778   6.160   0.305   9.307
20647SOL     OW63779   9.989   8.469  10.641
20647SOL    HW163780  10.016   8.560  10.650
20647SOL    HW263781   9.916   8.459  10.702
20648SOL     OW63782  10.696  12.333   7.500
20648SOL    HW163783  10.762  12.283   7.454
20648SOL    HW263784  10.685  12.288   7.584
20649SOL     OW63785   6.640   5.947  12.375
20649SOL    HW163786   6.622   6.038  12.397
20649SOL    HW263787   6.734   5.937  12.389
20650SOL     OW63788  11.588   7.666   2.512
20650SOL    HW163789  11.503   7.624   2.498
20650SOL    HW263790  11.598   7.670   2.607
20651SOL     OW63791  10.657  11.585   1.767
20651SOL    HW163792  10.639  11.491   1.762
20651SOL    HW263793  10.695  11.597   1.854
20652SOL     OW63794   7.341   9.579   7.400
20652SOL    HW163795   7.418   9.610   7.447
20652SOL    HW263796   7.318   9.497   7.444
20653SOL     OW63797   4.174  11.528   5.371
20653SOL    HW163798   4.089  11.558   5.339
20653SOL    HW263799   4.227  11.607   5.380
20654SOL     OW63800  13.005  13.989   1.741
20654SOL    HW163801  13.003  13.965   1.834
20654SOL    HW263802  13.096  14.008   1.723
20655SOL     OW63803   2.902   7.798   0.620
20655SOL    HW163804   2.865   7.773   0.536
20655SOL    HW263805   2.972   7.859   0.598
20656SOL     OW63806  10.434   7.836  14.157
20656SOL    HW163807  10.492   7.863  14.085
20656SOL    HW263808  10.459   7.891  14.231
20657SOL     OW63809   1.104   3.505  13.329
20657SOL    HW163810   1.186   3.523  13.282
20657SOL    HW263811   1.132   3.461  13.409
20658SOL     OW63812   0.227  11.321  14.640
20658SOL    HW163813   0.283  11.380  14.690
20658SOL    HW263814   0.236  11.350  14.549
20659SOL     OW63815  13.394   2.040   8.528
20659SOL    HW163816  13.433   1.997   8.452
20659SOL    HW263817  13.469   2.065   8.583
20660SOL     OW63818   8.905   6.066  13.753
20660SOL    HW163819   8.883   6.144  13.805
20660SOL    HW263820   8.960   6.099  13.682
20661SOL     OW63821  12.507  10.555  11.412
20661SOL    HW163822  12.495  10.583  11.503
20661SOL    HW263823  12.570  10.618  11.376
20662SOL     OW63824  14.706  11.123  12.802
20662SOL    HW163825  14.771  11.060  12.769
20662SOL    HW263826  14.719  11.122  12.897
20663SOL     OW63827   6.662   5.069   3.508
20663SOL    HW163828   6.684   5.152   3.465
20663SOL    HW263829   6.713   5.071   3.589
20664SOL     OW63830  13.678  10.636  12.436
20664SOL    HW163831  13.698  10.683  12.518
20664SOL    HW263832  13.725  10.684  12.369
20665SOL     OW63833  10.139  14.810  10.744
20665SOL    HW163834  10.229  14.829  10.717
20665SOL    HW263835  10.096   0.014  10.744
20666SOL     OW63836  12.315   6.435   0.837
20666SOL    HW163837  12.268   6.517   0.848
20666SOL    HW263838  12.330   6.403   0.926
20667SOL     OW63839  11.844   3.867   7.139
20667SOL    HW163840  11.932   3.832   7.155
20667SOL    HW263841  11.801   3.861   7.225
20668SOL     OW63842   7.412   6.283   4.440
20668SOL    HW163843   7.334   6.297   4.493
20668SOL    HW263844   7.482   6.328   4.488
20669SOL     OW63845  14.573   6.824   1.267
20669SOL    HW163846  14.626   6.748   1.291
20669SOL    HW263847  14.483   6.793   1.271
20670SOL     OW63848   8.684   5.570   3.921
20670SOL    HW163849   8.713   5.646   3.972
20670SOL    HW263850   8.596   5.592   3.891
20671SOL     OW63851   8.833   3.151  12.111
20671SOL    HW163852   8.827   3.206  12.033
20671SOL    HW263853   8.925   3.157  12.138
20672SOL     OW63854  10.827   9.941   5.033
20672SOL    HW163855  10.776  10.001   4.978
20672SOL    HW263856  10.814   9.855   4.993
20673SOL     OW63857   2.154   8.395   7.031
20673SOL    HW163858   2.176   8.445   7.109
20673SOL    HW263859   2.071   8.431   7.002
20674SOL     OW63860   0.937  14.400   5.519
20674SOL    HW163861   0.939  14.379   5.613
20674SOL    HW263862   0.853  14.445   5.507
20675SOL     OW63863  10.797  14.797   2.805
20675SOL    HW163864  10.803  14.878   2.855
20675SOL    HW263865  10.766  14.824   2.719
20676SOL     OW63866   8.611  10.437  10.723
20676SOL    HW163867   8.585  10.525  10.749
20676SOL    HW263868   8.530  10.395  10.693
20677SOL     OW63869   0.646   5.961   5.926
20677SOL    HW163870   0.630   5.914   6.008
20677SOL    HW263871   0.559   5.970   5.886
20678SOL     OW63872   6.773  10.795  13.241
20678SOL    HW163873   6.729  10.714  13.217
20678SOL    HW263874   6.853  10.796  13.189
20679SOL     OW63875   5.951   0.494   2.835
20679SOL    HW163876   6.000   0.567   2.875
20679SOL    HW263877   5.882   0.475   2.898
20680SOL     OW63878   2.032   6.389   6.601
20680SOL    HW163879   1.980   6.333   6.542
20680SOL    HW263880   1.975   6.405   6.676
20681SOL     OW63881   6.317  13.649  10.965
20681SOL    HW163882   6.372  13.583  10.922
20681SOL    HW263883   6.227  13.622  10.946
20682SOL     OW63884   8.676  10.780   1.460
20682SOL    HW163885   8.642  10.699   1.422
20682SOL    HW263886   8.598  10.829   1.485
20683SOL     OW63887   3.200  10.514  14.077
20683SOL    HW163888   3.183  10.489  14.168
20683SOL    HW263889   3.163  10.602  14.068
20684SOL     OW63890   1.099   4.181   0.907
20684SOL    HW163891   1.127   4.226   0.987
20684SOL    HW263892   1.003   4.183   0.911
20685SOL     OW63893   1.003   2.001  14.127
20685SOL    HW163894   0.922   2.035  14.090
20685SOL    HW263895   0.996   2.017  14.221
20686SOL     OW63896   1.513  11.349   4.216
20686SOL    HW163897   1.461  11.412   4.166
20686SOL    HW263898   1.555  11.294   4.149
20687SOL     OW63899  12.679   9.109  11.506
20687SOL    HW163900  12.637   9.171  11.447
20687SOL    HW263901  12.773   9.129  11.500
20688SOL     OW63902  12.785  10.020   2.554
20688SOL    HW163903  12.790   9.967   2.474
20688SOL    HW263904  12.784   9.956   2.625
20689SOL     OW63905   6.632   1.649   7.228
20689SOL    HW163906   6.691   1.725   7.228
20689SOL    HW263907   6.628   1.621   7.137
20690SOL     OW63908   4.384   3.391   8.906
20690SOL    HW163909   4.340   3.307   8.888
20690SOL    HW263910   4.453   3.368   8.968
20691SOL     OW63911   7.668   9.453   2.349
20691SOL    HW163912   7.667   9.420   2.439
20691SOL    HW263913   7.588   9.504   2.341
20692SOL     OW63914   7.237  14.796  10.299
20692SOL    HW163915   7.227   0.001  10.263
20692SOL    HW263916   7.150  14.773  10.331
20693SOL     OW63917   2.823   1.505   9.646
20693SOL    HW163918   2.867   1.463   9.720
20693SOL    HW263919   2.849   1.597   9.652
20694SOL     OW63920   4.602   1.757  14.001
20694SOL    HW163921   4.588   1.665  13.981
20694SOL    HW263922   4.514   1.795  14.007
20695SOL     OW63923   3.321   7.764   7.221
20695SOL    HW163924   3.266   7.688   7.241
20695SOL    HW263925   3.340   7.803   7.306
20696SOL     OW63926   3.993   7.076   1.553
20696SOL    HW163927   4.018   7.025   1.476
20696SOL    HW263928   3.952   7.154   1.518
20697SOL     OW63929   4.515   6.984   3.250
20697SOL    HW163930   4.541   7.074   3.229
20697SOL    HW263931   4.594   6.944   3.285
20698SOL     OW63932   6.533   8.220   7.911
20698SOL    HW163933   6.536   8.230   7.816
20698SOL    HW263934   6.611   8.169   7.933
20699SOL     OW63935   3.418   0.171  11.609
20699SOL    HW163936   3.470   0.092  11.598
20699SOL    HW263937   3.472   0.240  11.569
20700SOL     OW63938  11.738   2.872   8.818
20700SOL    HW163939  11.708   2.781   8.811
20700SOL    HW263940  11.813   2.877   8.758
20701SOL     OW63941   8.341   9.221   9.909
20701SOL    HW163942   8.382   9.135   9.906
20701SOL    HW263943   8.247   9.202   9.917
20702SOL     OW63944   4.672  12.142   0.212
20702SOL    HW163945   4.615  12.202   0.260
20702SOL    HW263946   4.613  12.074   0.179
20703SOL     OW63947  10.852   4.189  13.745
20703SOL    HW163948  10.942   4.221  13.736
20703SOL    HW263949  10.838   4.181  13.839
20704SOL     OW63950  14.476   6.775   2.224
20704SOL    HW163951  14.524   6.749   2.145
20704SOL    HW263952  14.487   6.869   2.229
20705SOL     OW63953  10.431   2.439   3.750
20705SOL    HW163954  10.390   2.518   3.714
20705SOL    HW263955  10.422   2.373   3.682
20706SOL     OW63956   7.739  12.931   1.708
20706SOL    HW163957   7.707  12.857   1.759
20706SOL    HW263958   7.808  12.969   1.763
20707SOL     OW63959  10.601   7.410  14.706
20707SOL    HW163960  10.610   7.390  14.612
20707SOL    HW263961  10.578   7.326  14.746
20708SOL     OW63962   9.476   2.280   6.720
20708SOL    HW163963   9.504   2.342   6.653
20708SOL    HW263964   9.381   2.290   6.723
20709SOL     OW63965   7.192   1.058   7.346
20709SOL    HW163966   7.130   1.127   7.370
20709SOL    HW263967   7.176   0.988   7.409
20710SOL     OW63968   3.236   0.027   2.424
20710SOL    HW163969   3.272   0.043   2.337
20710SOL    HW263970   3.144   0.052   2.417
20711SOL     OW63971   1.503   3.868  10.192
20711SOL    HW163972   1.436   3.911  10.246
20711SOL    HW263973   1.570   3.840  10.254
20712SOL     OW63974  10.952   9.782   6.734
20712SOL    HW163975  10.935   9.821   6.820
20712SOL    HW263976  10.881   9.719   6.723
20713SOL     OW63977  11.026   9.659   6.051
20713SOL    HW163978  11.061   9.734   6.099
20713SOL    HW263979  10.994   9.600   6.119
20714SOL     OW63980   8.007  12.439   5.560
20714SOL    HW163981   8.086  12.442   5.614
20714SOL    HW263982   8.024  12.369   5.498
20715SOL     OW63983   7.767   6.829   1.400
20715SOL    HW163984   7.848   6.793   1.362
20715SOL    HW263985   7.705   6.827   1.327
20716SOL     OW63986   6.629  10.977   0.354
20716SOL    HW163987   6.696  10.940   0.296
20716SOL    HW263988   6.674  10.993   0.436
20717SOL     OW63989   5.581   4.382  10.671
20717SOL    HW163990   5.670   4.415  10.680
20717SOL    HW263991   5.526   4.448  10.712
20718SOL     OW63992   0.465  13.113  10.473
20718SOL    HW163993   0.474  13.208  10.467
20718SOL    HW263994   0.555  13.080  10.474
20719SOL     OW63995   9.320   7.137   1.143
20719SOL    HW163996   9.304   7.197   1.215
20719SOL    HW263997   9.351   7.057   1.185
20720SOL     OW63998  13.064   6.739   0.029
20720SOL    HW163999  13.109   6.690  14.842
20720SOL    HW264000  13.099   6.828   0.021
20721SOL     OW64001  10.219  12.244   7.677
20721SOL    HW164002  10.221  12.330   7.635
20721SOL    HW264003  10.294  12.198   7.640
20722SOL     OW64004   2.943  12.109  12.891
20722SOL    HW164005   2.964  12.183  12.948
20722SOL    HW264006   2.985  12.034  12.933
20723SOL     OW64007   4.916   2.676  10.841
20723SOL    HW164008   4.928   2.746  10.776
20723SOL    HW264009   4.840   2.627  10.809
20724SOL     OW64010  11.027   4.639   5.334
20724SOL    HW164011  11.005   4.554   5.295
20724SOL    HW264012  11.119   4.630   5.360
20725SOL     OW64013   9.525   2.608   2.053
20725SOL    HW164014   9.511   2.625   1.960
20725SOL    HW264015   9.442   2.631   2.095
20726SOL     OW64016   0.547   5.840  11.156
20726SOL    HW164017   0.471   5.794  11.193
20726SOL    HW264018   0.510   5.919  11.118
20727SOL     OW64019   4.208   7.677  12.496
20727SOL    HW164020   4.195   7.771  12.482
20727SOL    HW264021   4.147   7.655  12.567
20728SOL     OW64022   3.627   8.582   0.045
20728SOL    HW164023   3.588   8.563   0.131
20728SOL    HW264024   3.706   8.529   0.043
20729SOL     OW64025  10.456  14.493   9.430
20729SOL    HW164026  10.531  14.552   9.438
20729SOL    HW264027  10.396  14.539   9.371
20730SOL     OW64028   6.402  11.130  11.843
20730SOL    HW164029   6.416  11.216  11.806
20730SOL    HW264030   6.307  11.123  11.852
20731SOL     OW64031   0.999   1.729   8.544
20731SOL    HW164032   1.092   1.752   8.536
20731SOL    HW264033   0.959   1.766   8.465
20732SOL     OW64034   2.618  13.881   2.241
20732SOL    HW164035   2.646  13.846   2.157
20732SOL    HW264036   2.568  13.810   2.281
20733SOL     OW64037   6.108   4.168   8.234
20733SOL    HW164038   6.125   4.142   8.324
20733SOL    HW264039   6.136   4.092   8.182
20734SOL     OW64040   4.242   1.651  14.764
20734SOL    HW164041   4.195   1.568  14.768
20734SOL    HW264042   4.197   1.707  14.828
20735SOL     OW64043   8.616  13.353  13.285
20735SOL    HW164044   8.644  13.335  13.375
20735SOL    HW264045   8.689  13.325  13.231
20736SOL     OW64046   4.336   2.559  12.007
20736SOL    HW164047   4.337   2.600  11.920
20736SOL    HW264048   4.277   2.484  11.998
20737SOL     OW64049  12.710  14.208  11.364
20737SOL    HW164050  12.637  14.185  11.422
20737SOL    HW264051  12.774  14.138  11.376
20738SOL     OW64052   4.248   4.578  14.163
20738SOL    HW164053   4.253   4.576  14.259
20738SOL    HW264054   4.288   4.495  14.135
20739SOL     OW64055  12.423  14.010  10.361
20739SOL    HW164056  12.468  13.930  10.388
20739SOL    HW264057  12.478  14.081  10.395
20740SOL     OW64058  10.976   2.699  13.774
20740SOL    HW164059  10.881   2.698  13.787
20740SOL    HW264060  10.989   2.742  13.690
20741SOL     OW64061   2.437   7.968   3.537
20741SOL    HW164062   2.437   8.012   3.452
20741SOL    HW264063   2.356   7.997   3.579
20742SOL     OW64064   2.006   7.463   5.174
20742SOL    HW164065   2.059   7.386   5.198
20742SOL    HW264066   2.008   7.518   5.251
20743SOL     OW64067  13.117   5.570   5.220
20743SOL    HW164068  13.057   5.611   5.281
20743SOL    HW264069  13.110   5.476   5.238
20744SOL     OW64070   3.103   2.922  11.236
20744SOL    HW164071   3.119   2.918  11.142
20744SOL    HW264072   3.180   2.880  11.275
20745SOL     OW64073   3.387   7.625   2.934
20745SOL    HW164074   3.436   7.685   2.990
20745SOL    HW264075   3.389   7.542   2.980
20746SOL     OW64076   2.666   4.651  10.654
20746SOL    HW164077   2.602   4.640  10.584
20746SOL    HW264078   2.724   4.576  10.646
20747SOL     OW64079  10.694   4.319   5.517
20747SOL    HW164080  10.699   4.245   5.457
20747SOL    HW264081  10.620   4.300   5.573
20748SOL     OW64082  11.398   2.584  13.089
20748SOL    HW164083  11.332   2.630  13.036
20748SOL    HW264084  11.482   2.613  13.054
20749SOL     OW64085   8.312   2.694  13.586
20749SOL    HW164086   8.276   2.605  13.591
20749SOL    HW264087   8.345   2.701  13.497
20750SOL     OW64088   2.148   0.038  14.019
20750SOL    HW164089   2.099   0.116  13.996
20750SOL    HW264090   2.084  14.849  14.016
20751SOL     OW64091   0.680   7.223   3.271
20751SOL    HW164092   0.741   7.278   3.320
20751SOL    HW264093   0.735   7.178   3.206
20752SOL     OW64094   1.253   5.635  13.833
20752SOL    HW164095   1.263   5.707  13.770
20752SOL    HW264096   1.159   5.616  13.831
20753SOL     OW64097   0.381   1.868   9.989
20753SOL    HW164098   0.415   1.794  10.039
20753SOL    HW264099   0.402   1.847   9.898
20754SOL     OW64100   6.441   5.307   4.178
20754SOL    HW164101   6.352   5.279   4.156
20754SOL    HW264102   6.492   5.226   4.177
20755SOL     OW64103  10.693   5.928  13.115
20755SOL    HW164104  10.769   5.870  13.115
20755SOL    HW264105  10.633   5.888  13.052
20756SOL     OW64106  12.085   6.421  12.098
20756SOL    HW164107  12.155   6.414  12.033
20756SOL    HW264108  12.010   6.453  12.049
20757SOL     OW64109  14.511   4.672   9.082
20757SOL    HW164110  14.482   4.653   8.993
20757SOL    HW264111  14.448   4.737   9.114
20758SOL     OW64112  13.424   5.034   6.940
20758SOL    HW164113  13.430   4.988   7.024
20758SOL    HW264114  13.385   5.119   6.962
20759SOL     OW64115  11.956   0.627  10.261
20759SOL    HW164116  11.907   0.663  10.335
20759SOL    HW264117  11.936   0.686  10.188
20760SOL     OW64118   7.037   6.476   4.624
20760SOL    HW164119   7.070   6.389   4.603
20760SOL    HW264120   6.963   6.461   4.683
20761SOL     OW64121   1.388   6.800  11.824
20761SOL    HW164122   1.375   6.844  11.740
20761SOL    HW264123   1.336   6.851  11.886
20762SOL     OW64124   7.481   3.631   2.754
20762SOL    HW164125   7.566   3.590   2.740
20762SOL    HW264126   7.501   3.719   2.786
20763SOL     OW64127   9.387   7.354   4.863
20763SOL    HW164128   9.454   7.307   4.912
20763SOL    HW264129   9.316   7.290   4.852
20764SOL     OW64130   8.393  12.240   5.560
20764SOL    HW164131   8.390  12.178   5.487
20764SOL    HW264132   8.438  12.192   5.630
20765SOL     OW64133   7.277   1.061   5.584
20765SOL    HW164134   7.320   0.976   5.595
20765SOL    HW264135   7.321   1.119   5.646
20766SOL     OW64136  13.455   7.111   9.588
20766SOL    HW164137  13.366   7.135   9.612
20766SOL    HW264138  13.497   7.088   9.671
20767SOL     OW64139  12.786  13.668  11.250
20767SOL    HW164140  12.770  13.631  11.337
20767SOL    HW264141  12.804  13.592  11.194
20768SOL     OW64142   9.075   4.551   0.968
20768SOL    HW164143   9.019   4.478   0.996
20768SOL    HW264144   9.163   4.524   0.993
20769SOL     OW64145   1.357   6.529   4.444
20769SOL    HW164146   1.303   6.471   4.390
20769SOL    HW264147   1.382   6.475   4.519
20770SOL     OW64148   5.019   6.792   5.757
20770SOL    HW164149   4.998   6.811   5.666
20770SOL    HW264150   5.095   6.846   5.777
20771SOL     OW64151   3.830   5.135   2.684
20771SOL    HW164152   3.921   5.138   2.655
20771SOL    HW264153   3.828   5.190   2.762
20772SOL     OW64154   2.316   3.003   6.224
20772SOL    HW164155   2.369   2.924   6.206
20772SOL    HW264156   2.345   3.032   6.310
20773SOL     OW64157  12.618   4.095   3.148
20773SOL    HW164158  12.584   4.028   3.089
20773SOL    HW264159  12.556   4.097   3.221
20774SOL     OW64160   7.035  14.154   9.924
20774SOL    HW164161   7.048  14.064   9.955
20774SOL    HW264162   7.010  14.203  10.002
20775SOL     OW64163   7.265  11.958  10.719
20775SOL    HW164164   7.315  12.034  10.751
20775SOL    HW264165   7.233  11.915  10.798
20776SOL     OW64166  11.841   7.988   5.587
20776SOL    HW164167  11.898   8.063   5.602
20776SOL    HW264168  11.779   7.990   5.660
20777SOL     OW64169   9.790   3.856   1.769
20777SOL    HW164170   9.700   3.851   1.736
20777SOL    HW264171   9.820   3.765   1.769
20778SOL     OW64172  14.681   2.041  13.805
20778SOL    HW164173  14.620   2.108  13.836
20778SOL    HW264174  14.711   2.074  13.720
20779SOL     OW64175   2.606   5.178  14.734
20779SOL    HW164176   2.584   5.271  14.740
20779SOL    HW264177   2.532   5.139  14.688
20780SOL     OW64178   9.459   0.846  10.740
20780SOL    HW164179   9.451   0.904  10.663
20780SOL    HW264180   9.383   0.867  10.794
20781SOL     OW64181  14.457  11.681  10.959
20781SOL    HW164182  14.489  11.712  11.044
20781SOL    HW264183  14.508  11.730  10.894
20782SOL     OW64184   6.704   8.611   3.717
20782SOL    HW164185   6.796   8.636   3.725
20782SOL    HW264186   6.656   8.692   3.728
20783SOL     OW64187   4.170   2.278   4.338
20783SOL    HW164188   4.104   2.320   4.392
20783SOL    HW264189   4.218   2.350   4.297
20784SOL     OW64190   0.089   6.921   4.898
20784SOL    HW164191   0.033   6.996   4.916
20784SOL    HW264192   0.176   6.947   4.931
20785SOL     OW64193   8.967   8.170   9.784
20785SOL    HW164194   8.911   8.239   9.748
20785SOL    HW264195   9.010   8.210   9.859
20786SOL     OW64196  14.447   6.699  12.854
20786SOL    HW164197  14.455   6.677  12.761
20786SOL    HW264198  14.413   6.619  12.895
20787SOL     OW64199   9.925   3.601  12.277
20787SOL    HW164200   9.839   3.569  12.303
20787SOL    HW264201   9.984   3.570  12.346
20788SOL     OW64202   7.935  11.777  12.888
20788SOL    HW164203   7.890  11.849  12.932
20788SOL    HW264204   8.028  11.795  12.899
20789SOL     OW64205   4.904   0.346  13.291
20789SOL    HW164206   4.903   0.418  13.354
20789SOL    HW264207   4.812   0.324  13.278
20790SOL     OW64208   4.120  12.823   8.530
20790SOL    HW164209   4.211  12.845   8.507
20790SOL    HW264210   4.128  12.745   8.585
20791SOL     OW64211   4.846   2.932   1.774
20791SOL    HW164212   4.891   3.017   1.778
20791SOL    HW264213   4.832   2.908   1.866
20792SOL     OW64214   6.601   1.524  12.437
20792SOL    HW164215   6.610   1.430  12.426
20792SOL    HW264216   6.687   1.554  12.467
20793SOL     OW64217   8.915   6.512  10.034
20793SOL    HW164218   8.920   6.543   9.943
20793SOL    HW264219   8.822   6.518  10.056
20794SOL     OW64220   4.635   4.620  11.278
20794SOL    HW164221   4.662   4.554  11.214
20794SOL    HW264222   4.652   4.579  11.363
20795SOL     OW64223   3.171   1.258  12.620
20795SOL    HW164224   3.199   1.316  12.691
20795SOL    HW264225   3.249   1.206  12.600
20796SOL     OW64226   5.913   4.891   4.572
20796SOL    HW164227   5.836   4.901   4.517
20796SOL    HW264228   5.885   4.922   4.658
20797SOL     OW64229  14.559   5.695   1.642
20797SOL    HW164230  14.517   5.660   1.721
20797SOL    HW264231  14.653   5.691   1.662
20798SOL     OW64232   1.366  10.967   5.279
20798SOL    HW164233   1.344  10.987   5.188
20798SOL    HW264234   1.455  10.934   5.276
20799SOL     OW64235   5.038   2.901   5.207
20799SOL    HW164236   4.986   2.980   5.221
20799SOL    HW264237   5.068   2.877   5.295
20800SOL     OW64238   5.847   1.314   8.087
20800SOL    HW164239   5.899   1.335   8.165
20800SOL    HW264240   5.829   1.220   8.094
20801SOL     OW64241   6.872  10.601   2.186
20801SOL    HW164242   6.885  10.593   2.281
20801SOL    HW264243   6.956  10.574   2.148
20802SOL     OW64244  13.821   7.409   9.536
20802SOL    HW164245  13.771   7.342   9.489
20802SOL    HW264246  13.883   7.442   9.471
20803SOL     OW64247   9.348   4.429  11.974
20803SOL    HW164248   9.358   4.445  12.068
20803SOL    HW264249   9.437   4.414  11.943
20804SOL     OW64250  10.788  11.906   9.426
20804SOL    HW164251  10.824  11.965   9.359
20804SOL    HW264252  10.819  11.819   9.400
20805SOL     OW64253  13.191  10.165   7.655
20805SOL    HW164254  13.195  10.168   7.750
20805SOL    HW264255  13.232  10.247   7.626
20806SOL     OW64256   9.815   9.097   3.280
20806SOL    HW164257   9.839   9.005   3.269
20806SOL    HW264258   9.892   9.146   3.252
20807SOL     OW64259   2.149   2.024   5.324
20807SOL    HW164260   2.146   1.961   5.252
20807SOL    HW264261   2.164   2.109   5.282
20808SOL     OW64262   2.514   3.513  12.225
20808SOL    HW164263   2.451   3.450  12.191
20808SOL    HW264264   2.507   3.505  12.320
20809SOL     OW64265  14.255   2.311   1.617
20809SOL    HW164266  14.313   2.242   1.649
20809SOL    HW264267  14.173   2.298   1.665
20810SOL     OW64268  13.888   6.694   1.505
20810SOL    HW164269  13.794   6.710   1.501
20810SOL    HW264270  13.910   6.704   1.598
20811SOL     OW64271  13.057   6.194  11.417
20811SOL    HW164272  13.148   6.198  11.391
20811SOL    HW264273  13.060   6.182  11.512
20812SOL     OW64274  12.799  11.548   6.509
20812SOL    HW164275  12.876  11.585   6.551
20812SOL    HW264276  12.733  11.544   6.578
20813SOL     OW64277   1.020   7.195   4.873
20813SOL    HW164278   1.057   7.277   4.839
20813SOL    HW264279   0.999   7.144   4.795
20814SOL     OW64280   8.175   0.610   8.301
20814SOL    HW164281   8.087   0.577   8.321
20814SOL    HW264282   8.230   0.532   8.301
20815SOL     OW64283  12.469   9.560   8.078
20815SOL    HW164284  12.481   9.599   7.991
20815SOL    HW264285  12.417   9.481   8.061
20816SOL     OW64286  10.028   7.990  11.925
20816SOL    HW164287   9.994   8.053  11.862
20816SOL    HW264288  10.055   8.043  12.000
20817SOL     OW64289  13.464   6.917   3.731
20817SOL    HW164290  13.455   6.885   3.641
20817SOL    HW264291  13.375   6.941   3.757
20818SOL     OW64292   6.256   1.687   0.173
20818SOL    HW164293   6.177   1.639   0.198
20818SOL    HW264294   6.276   1.741   0.250
20819SOL     OW64295  14.100   0.731   1.740
20819SOL    HW164296  14.149   0.813   1.728
20819SOL    HW264297  14.168   0.666   1.757
20820SOL     OW64298  14.594  14.159  10.455
20820SOL    HW164299  14.661  14.162  10.523
20820SOL    HW264300  14.632  14.104  10.387
20821SOL     OW64301   2.420  14.262   0.167
20821SOL    HW164302   2.331  14.272   0.134
20821SOL    HW264303   2.442  14.170   0.151
20822SOL     OW64304   2.926   2.078   1.018
20822SOL    HW164305   2.929   2.145   1.086
20822SOL    HW264306   2.938   1.996   1.065
20823SOL     OW64307   8.369   3.169  12.291
20823SOL    HW164308   8.372   3.074  12.275
20823SOL    HW264309   8.287   3.197  12.250
20824SOL     OW64310   9.835   0.763   0.858
20824SOL    HW164311   9.887   0.755   0.938
20824SOL    HW264312   9.874   0.837   0.812
20825SOL     OW64313  11.965  11.103   5.104
20825SOL    HW164314  11.986  11.010   5.108
20825SOL    HW264315  12.021  11.137   5.035
20826SOL     OW64316   5.116   9.301  14.385
20826SOL    HW164317   5.178   9.238  14.348
20826SOL    HW264318   5.148   9.316  14.474
20827SOL     OW64319   0.703   3.806   8.400
20827SOL    HW164320   0.787   3.821   8.355
20827SOL    HW264321   0.683   3.890   8.442
20828SOL     OW64322   5.070   8.205   1.758
20828SOL    HW164323   5.162   8.214   1.733
20828SOL    HW264324   5.035   8.140   1.696
20829SOL     OW64325   7.921   1.449   3.075
20829SOL    HW164326   7.834   1.414   3.094
20829SOL    HW264327   7.940   1.421   2.986
20830SOL     OW64328   2.569   4.601   5.884
20830SOL    HW164329   2.535   4.666   5.946
20830SOL    HW264330   2.616   4.653   5.819
20831SOL     OW64331   7.067   6.373   1.874
20831SOL    HW164332   6.993   6.324   1.908
20831SOL    HW264333   7.142   6.341   1.925
20832SOL     OW64334   4.369  10.937  12.875
20832SOL    HW164335   4.335  10.919  12.787
20832SOL    HW264336   4.461  10.957  12.860
20833SOL     OW64337  13.902   3.764  11.356
20833SOL    HW164338  13.865   3.677  11.374
20833SOL    HW264339  13.995   3.755  11.376
20834SOL     OW64340  12.581  13.621   5.599
20834SOL    HW164341  12.674  13.614   5.622
20834SOL    HW264342  12.548  13.693   5.652
20835SOL     OW64343   1.032  14.762   2.902
20835SOL    HW164344   1.096  14.704   2.861
20835SOL    HW264345   1.010  14.825   2.834
20836SOL     OW64346   8.231   7.387   4.505
20836SOL    HW164347   8.237   7.344   4.590
20836SOL    HW264348   8.150   7.437   4.509
20837SOL     OW64349  12.873   5.062   6.275
20837SOL    HW164350  12.904   5.128   6.213
20837SOL    HW264351  12.909   4.980   6.242
20838SOL     OW64352   2.734  11.471   0.755
20838SOL    HW164353   2.757  11.474   0.848
20838SOL    HW264354   2.817  11.458   0.710
20839SOL     OW64355  13.065   4.111  10.265
20839SOL    HW164356  13.038   4.067  10.184
20839SOL    HW264357  13.028   4.199  10.257
20840SOL     OW64358   5.020  13.599   3.713
20840SOL    HW164359   5.074  13.617   3.790
20840SOL    HW264360   5.017  13.682   3.667
20841SOL     OW64361  14.386   2.919  10.522
20841SOL    HW164362  14.394   2.937  10.429
20841SOL    HW264363  14.473   2.936  10.558
20842SOL     OW64364   7.890   1.172   7.619
20842SOL    HW164365   7.951   1.103   7.643
20842SOL    HW264366   7.912   1.193   7.528
20843SOL     OW64367   0.653   4.724  14.611
20843SOL    HW164368   0.658   4.813  14.643
20843SOL    HW264369   0.614   4.732  14.524
20844SOL     OW64370   4.296  10.673   1.999
20844SOL    HW164371   4.379  10.708   1.967
20844SOL    HW264372   4.307  10.578   1.998
20845SOL     OW64373  12.597  12.753  10.753
20845SOL    HW164374  12.566  12.808  10.825
20845SOL    HW264375  12.622  12.670  10.795
20846SOL     OW64376   0.435   7.116   9.250
20846SOL    HW164377   0.446   7.083   9.339
20846SOL    HW264378   0.461   7.208   9.255
20847SOL     OW64379  14.766   1.416   5.804
20847SOL    HW164380  14.819   1.434   5.727
20847SOL    HW264381  14.828   1.381   5.868
20848SOL     OW64382  14.070  12.149   6.712
20848SOL    HW164383  13.999  12.202   6.747
20848SOL    HW264384  14.105  12.103   6.787
20849SOL     OW64385   0.906   5.654  11.903
20849SOL    HW164386   0.841   5.688  11.841
20849SOL    HW264387   0.870   5.570  11.931
20850SOL     OW64388  10.677   6.175   9.178
20850SOL    HW164389  10.698   6.267   9.164
20850SOL    HW264390  10.699   6.159   9.270
20851SOL     OW64391  10.037   1.277   4.843
20851SOL    HW164392  10.107   1.230   4.798
20851SOL    HW264393   9.971   1.293   4.775
20852SOL     OW64394   5.818  14.046  14.245
20852SOL    HW164395   5.774  14.009  14.322
20852SOL    HW264396   5.753  14.040  14.175
20853SOL     OW64397   2.935   8.372  13.330
20853SOL    HW164398   2.895   8.383  13.244
20853SOL    HW264399   2.862   8.366  13.391
20854SOL     OW64400   9.405   5.419  13.798
20854SOL    HW164401   9.337   5.437  13.733
20854SOL    HW264402   9.393   5.488  13.864
20855SOL     OW64403   2.001   8.171   3.481
20855SOL    HW164404   2.086   8.171   3.525
20855SOL    HW264405   2.011   8.234   3.409
20856SOL     OW64406   4.172   1.548   7.153
20856SOL    HW164407   4.168   1.637   7.119
20856SOL    HW264408   4.104   1.501   7.105
20857SOL     OW64409  10.892   5.643   1.926
20857SOL    HW164410  10.896   5.664   2.019
20857SOL    HW264411  10.891   5.728   1.882
20858SOL     OW64412  11.617   4.410  14.767
20858SOL    HW164413  11.654   4.419  14.855
20858SOL    HW264414  11.678   4.353  14.720
20859SOL     OW64415  11.861   5.114   7.380
20859SOL    HW164416  11.779   5.093   7.336
20859SOL    HW264417  11.903   5.030   7.394
20860SOL     OW64418   5.691   4.223   3.993
20860SOL    HW164419   5.606   4.259   4.020
20860SOL    HW264420   5.747   4.233   4.070
20861SOL     OW64421   8.787  11.321   7.187
20861SOL    HW164422   8.741  11.299   7.268
20861SOL    HW264423   8.725  11.376   7.139
20862SOL     OW64424  10.969   6.823   9.583
20862SOL    HW164425  10.993   6.832   9.675
20862SOL    HW264426  11.052   6.828   9.535
20863SOL     OW64427   7.930  13.333  14.439
20863SOL    HW164428   7.912  13.380  14.357
20863SOL    HW264429   7.927  13.241  14.415
20864SOL     OW64430   9.765  14.498   7.554
20864SOL    HW164431   9.743  14.413   7.515
20864SOL    HW264432   9.693  14.556   7.530
20865SOL     OW64433   7.085  11.623  14.384
20865SOL    HW164434   7.054  11.688  14.321
20865SOL    HW264435   7.058  11.539  14.348
20866SOL     OW64436   3.706   3.160   6.279
20866SOL    HW164437   3.628   3.204   6.245
20866SOL    HW264438   3.676   3.114   6.357
20867SOL     OW64439   8.844  14.086   1.918
20867SOL    HW164440   8.848  14.039   2.001
20867SOL    HW264441   8.902  14.161   1.929
20868SOL     OW64442  14.402   6.521   5.185
20868SOL    HW164443  14.448   6.602   5.206
20868SOL    HW264444  14.351   6.501   5.263
20869SOL     OW64445   4.698   9.850   4.775
20869SOL    HW164446   4.785   9.885   4.758
20869SOL    HW264447   4.690   9.851   4.870
20870SOL     OW64448   5.131  14.316  11.776
20870SOL    HW164449   5.173  14.399  11.797
20870SOL    HW264450   5.128  14.268  11.859
20871SOL     OW64451   3.004   9.357   6.116
20871SOL    HW164452   3.003   9.363   6.211
20871SOL    HW264453   3.095   9.373   6.091
20872SOL     OW64454   7.480   1.987   7.168
20872SOL    HW164455   7.482   2.016   7.077
20872SOL    HW264456   7.391   2.005   7.197
20873SOL     OW64457  11.691   6.387   2.200
20873SOL    HW164458  11.777   6.396   2.158
20873SOL    HW264459  11.630   6.374   2.127
20874SOL     OW64460   9.814   5.178   9.700
20874SOL    HW164461   9.830   5.222   9.617
20874SOL    HW264462   9.750   5.234   9.745
20875SOL     OW64463   7.660   6.048   3.908
20875SOL    HW164464   7.638   6.067   4.000
20875SOL    HW264465   7.718   5.972   3.912
20876SOL     OW64466   0.516   2.845  12.660
20876SOL    HW164467   0.546   2.876  12.745
20876SOL    HW264468   0.581   2.879  12.598
20877SOL     OW64469  12.401   5.704   1.253
20877SOL    HW164470  12.495   5.682   1.247
20877SOL    HW264471  12.369   5.652   1.326
20878SOL     OW64472   8.973   6.851   5.088
20878SOL    HW164473   8.951   6.943   5.074
20878SOL    HW264474   8.912   6.820   5.155
20879SOL     OW64475  13.261   4.004  10.736
20879SOL    HW164476  13.332   3.980  10.796
20879SOL    HW264477  13.212   4.072  10.782
20880SOL     OW64478  10.454  13.604   7.688
20880SOL    HW164479  10.462  13.606   7.783
20880SOL    HW264480  10.531  13.652   7.657
20881SOL     OW64481   9.941   3.786   6.757
20881SOL    HW164482   9.959   3.696   6.731
20881SOL    HW264483   9.993   3.840   6.697
20882SOL     OW64484  11.061  11.490   7.041
20882SOL    HW164485  11.081  11.568   7.093
20882SOL    HW264486  10.989  11.447   7.089
20883SOL     OW64487  10.530   9.186   3.489
20883SOL    HW164488  10.547   9.259   3.549
20883SOL    HW264489  10.616   9.152   3.466
20884SOL     OW64490  14.140  10.472   1.791
20884SOL    HW164491  14.087  10.393   1.794
20884SOL    HW264492  14.182  10.475   1.877
20885SOL     OW64493   5.824   3.010   5.138
20885SOL    HW164494   5.797   2.925   5.103
20885SOL    HW264495   5.839   3.064   5.061
20886SOL     OW64496   0.980  14.278   0.794
20886SOL    HW164497   0.900  14.226   0.784
20886SOL    HW264498   1.021  14.244   0.873
20887SOL     OW64499  13.056   3.040  10.642
20887SOL    HW164500  13.142   3.079  10.625
20887SOL    HW264501  13.009   3.108  10.691
20888SOL     OW64502  12.188   8.800   5.933
20888SOL    HW164503  12.186   8.882   5.983
20888SOL    HW264504  12.202   8.828   5.843
20889SOL     OW64505   4.216   5.419   3.255
20889SOL    HW164506   4.306   5.396   3.232
20889SOL    HW264507   4.163   5.354   3.208
20890SOL     OW64508   1.809   6.553   0.112
20890SOL    HW164509   1.796   6.480   0.051
20890SOL    HW264510   1.773   6.629   0.067
20891SOL     OW64511   3.603   7.003   0.071
20891SOL    HW164512   3.607   6.908   0.077
20891SOL    HW264513   3.664   7.026   0.000
20892SOL     OW64514   0.697  10.050  12.674
20892SOL    HW164515   0.655  10.131  12.648
20892SOL    HW264516   0.788  10.074  12.692
20893SOL     OW64517   0.987   4.297   1.850
20893SOL    HW164518   1.012   4.385   1.821
20893SOL    HW264519   1.064   4.243   1.834
20894SOL     OW64520  11.854   2.360  11.788
20894SOL    HW164521  11.798   2.416  11.735
20894SOL    HW264522  11.930   2.341  11.732
20895SOL     OW64523  11.254  11.453   6.814
20895SOL    HW164524  11.227  11.364   6.792
20895SOL    HW264525  11.187  11.485   6.874
20896SOL     OW64526   2.711   9.731  10.219
20896SOL    HW164527   2.713   9.670  10.145
20896SOL    HW264528   2.634   9.786  10.203
20897SOL     OW64529   6.889   0.486   3.340
20897SOL    HW164530   6.857   0.545   3.409
20897SOL    HW264531   6.984   0.493   3.346
20898SOL     OW64532  13.157   5.079  10.423
20898SOL    HW164533  13.171   5.132  10.502
20898SOL    HW264534  13.245   5.051  10.397
20899SOL     OW64535   0.603   1.235  11.728
20899SOL    HW164536   0.518   1.230  11.685
20899SOL    HW264537   0.619   1.146  11.759
20900SOL     OW64538   6.263   5.743   0.443
20900SOL    HW164539   6.265   5.666   0.387
20900SOL    HW264540   6.331   5.728   0.508
20901SOL     OW64541   5.584   2.984   1.876
20901SOL    HW164542   5.502   2.940   1.898
20901SOL    HW264543   5.643   2.960   1.948
20902SOL     OW64544  12.567   8.141  14.009
20902SOL    HW164545  12.531   8.079  14.073
20902SOL    HW264546  12.597   8.087  13.937
20903SOL     OW64547   7.008   5.803  11.728
20903SOL    HW164548   6.947   5.774  11.661
20903SOL    HW264549   6.968   5.882  11.766
20904SOL     OW64550   8.043   7.145   7.514
20904SOL    HW164551   8.041   7.229   7.559
20904SOL    HW264552   7.969   7.149   7.454
20905SOL     OW64553   5.757   1.761  13.226
20905SOL    HW164554   5.665   1.780  13.246
20905SOL    HW264555   5.753   1.696  13.156
20906SOL     OW64556  13.589  13.410   5.823
20906SOL    HW164557  13.573  13.323   5.860
20906SOL    HW264558  13.586  13.468   5.899
20907SOL     OW64559  11.187   0.048   3.996
20907SOL    HW164560  11.173   0.097   3.915
20907SOL    HW264561  11.113   0.072   4.051
20908SOL     OW64562  13.558   7.412   7.163
20908SOL    HW164563  13.584   7.491   7.115
20908SOL    HW264564  13.507   7.445   7.238
20909SOL     OW64565  13.297  12.007   5.524
20909SOL    HW164566  13.274  12.086   5.574
20909SOL    HW264567  13.349  11.955   5.585
20910SOL     OW64568   0.618   3.193   9.567
20910SOL    HW164569   0.607   3.133   9.493
20910SOL    HW264570   0.713   3.204   9.575
20911SOL     OW64571   1.781  13.736   3.584
20911SOL    HW164572   1.692  13.726   3.617
20911SOL    HW264573   1.836  13.742   3.663
20912SOL     OW64574   3.423  13.829   8.536
20912SOL    HW164575   3.485  13.861   8.602
20912SOL    HW264576   3.353  13.894   8.535
20913SOL     OW64577   2.208   1.482   3.594
20913SOL    HW164578   2.199   1.413   3.528
20913SOL    HW264579   2.181   1.562   3.548
20914SOL     OW64580   3.647   8.639   4.976
20914SOL    HW164581   3.618   8.708   4.917
20914SOL    HW264582   3.566   8.599   5.008
20915SOL     OW64583   8.254   8.166   2.708
20915SOL    HW164584   8.321   8.167   2.640
20915SOL    HW264585   8.197   8.093   2.685
20916SOL     OW64586   5.042  12.570   0.592
20916SOL    HW164587   5.019  12.601   0.680
20916SOL    HW264588   5.003  12.483   0.586
20917SOL     OW64589   9.406  14.273   5.036
20917SOL    HW164590   9.461  14.327   4.979
20917SOL    HW264591   9.418  14.184   5.003
20918SOL     OW64592   5.989   0.635  10.696
20918SOL    HW164593   6.011   0.658  10.786
20918SOL    HW264594   5.894   0.632  10.694
20919SOL     OW64595   7.851  11.152   0.731
20919SOL    HW164596   7.794  11.121   0.801
20919SOL    HW264597   7.856  11.247   0.743
20920SOL     OW64598   6.653   4.325   4.785
20920SOL    HW164599   6.663   4.404   4.732
20920SOL    HW264600   6.693   4.256   4.732
20921SOL     OW64601   8.981   4.174   6.657
20921SOL    HW164602   8.899   4.126   6.651
20921SOL    HW264603   9.026   4.135   6.733
20922SOL     OW64604   6.297  12.818   4.172
20922SOL    HW164605   6.261  12.785   4.255
20922SOL    HW264606   6.301  12.741   4.115
20923SOL     OW64607   6.112   7.648   6.706
20923SOL    HW164608   6.203   7.620   6.698
20923SOL    HW264609   6.086   7.622   6.794
20924SOL     OW64610   9.402   7.864   0.242
20924SOL    HW164611   9.311   7.834   0.232
20924SOL    HW264612   9.401   7.914   0.324
20925SOL     OW64613   2.040  11.577   4.848
20925SOL    HW164614   2.121  11.576   4.898
20925SOL    HW264615   2.022  11.670   4.833
20926SOL     OW64616   8.370   1.806  13.417
20926SOL    HW164617   8.439   1.872  13.418
20926SOL    HW264618   8.407   1.734  13.365
20927SOL     OW64619   8.323   6.782   6.365
20927SOL    HW164620   8.397   6.793   6.425
20927SOL    HW264621   8.343   6.840   6.291
20928SOL     OW64622  13.074  12.990  10.403
20928SOL    HW164623  13.122  12.989  10.321
20928SOL    HW264624  13.009  13.060  10.392
20929SOL     OW64625  10.627   4.908   9.100
20929SOL    HW164626  10.659   4.986   9.146
20929SOL    HW264627  10.544   4.887   9.143
20930SOL     OW64628  12.113  11.872   4.092
20930SOL    HW164629  12.089  11.805   4.029
20930SOL    HW264630  12.196  11.841   4.129
20931SOL     OW64631   9.335   3.238  14.433
20931SOL    HW164632   9.431   3.236  14.428
20931SOL    HW264633   9.310   3.308  14.373
20932SOL     OW64634   8.365  12.234   0.874
20932SOL    HW164635   8.404  12.283   0.802
20932SOL    HW264636   8.401  12.274   0.953
20933SOL     OW64637   6.281   8.690   5.370
20933SOL    HW164638   6.359   8.665   5.419
20933SOL    HW264639   6.208   8.667   5.428
20934SOL     OW64640  12.042  14.504   2.711
20934SOL    HW164641  12.025  14.576   2.651
20934SOL    HW264642  12.138  14.497   2.714
20935SOL     OW64643   1.293   8.478   5.047
20935SOL    HW164644   1.296   8.432   4.963
20935SOL    HW264645   1.366   8.441   5.096
20936SOL     OW64646   6.433  13.684   7.628
20936SOL    HW164647   6.447  13.655   7.538
20936SOL    HW264648   6.403  13.774   7.620
20937SOL     OW64649   1.227   2.443  11.816
20937SOL    HW164650   1.309   2.488  11.797
20937SOL    HW264651   1.251   2.350  11.823
20938SOL     OW64652  13.288   7.438  11.232
20938SOL    HW164653  13.317   7.529  11.241
20938SOL    HW264654  13.324   7.409  11.148
20939SOL     OW64655   7.821  10.430  13.089
20939SOL    HW164656   7.820  10.367  13.161
20939SOL    HW264657   7.822  10.376  13.010
20940SOL     OW64658   5.959   8.920  14.627
20940SOL    HW164659   5.913   8.995  14.665
20940SOL    HW264660   5.950   8.933  14.532
20941SOL     OW64661  14.472  14.311   4.258
20941SOL    HW164662  14.385  14.275   4.238
20941SOL    HW264663  14.531  14.267   4.197
20942SOL     OW64664   1.382   3.661  14.767
20942SOL    HW164665   1.422   3.737  14.725
20942SOL    HW264666   1.456   3.603  14.787
20943SOL     OW64667  13.676   2.434  10.474
20943SOL    HW164668  13.629   2.456  10.554
20943SOL    HW264669  13.720   2.351  10.494
20944SOL     OW64670   0.778  10.420   1.827
20944SOL    HW164671   0.772  10.453   1.917
20944SOL    HW264672   0.822  10.335   1.835
20945SOL     OW64673   5.286   8.105   8.160
20945SOL    HW164674   5.344   8.133   8.230
20945SOL    HW264675   5.344   8.077   8.089
20946SOL     OW64676   1.344   7.238   5.672
20946SOL    HW164677   1.368   7.322   5.711
20946SOL    HW264678   1.260   7.255   5.630
20947SOL     OW64679  12.747   2.232   6.778
20947SOL    HW164680  12.661   2.236   6.735
20947SOL    HW264681  12.748   2.306   6.838
20948SOL     OW64682  13.965  12.235   7.794
20948SOL    HW164683  13.999  12.312   7.750
20948SOL    HW264684  14.015  12.230   7.876
20949SOL     OW64685  10.296   1.958   9.113
20949SOL    HW164686  10.266   2.043   9.080
20949SOL    HW264687  10.337   1.916   9.037
20950SOL     OW64688   8.719   6.545   9.750
20950SOL    HW164689   8.725   6.595   9.669
20950SOL    HW264690   8.782   6.474   9.739
20951SOL     OW64691   4.443   1.711  11.098
20951SOL    HW164692   4.381   1.639  11.108
20951SOL    HW264693   4.433   1.740  11.008
20952SOL     OW64694   1.276   8.286   7.873
20952SOL    HW164695   1.245   8.272   7.963
20952SOL    HW264696   1.264   8.201   7.831
20953SOL     OW64697   4.761   9.065   1.555
20953SOL    HW164698   4.757   9.079   1.461
20953SOL    HW264699   4.674   9.089   1.587
20954SOL     OW64700   0.049   2.940   8.738
20954SOL    HW164701  14.842   2.975   8.735
20954SOL    HW264702   0.042   2.854   8.696
20955SOL     OW64703   1.096   2.938   3.732
20955SOL    HW164704   1.073   2.984   3.813
20955SOL    HW264705   1.052   2.987   3.663
20956SOL     OW64706   7.790  10.499  11.582
20956SOL    HW164707   7.815  10.505  11.674
20956SOL    HW264708   7.807  10.586  11.547
20957SOL     OW64709   9.827   9.664  13.972
20957SOL    HW164710   9.900   9.724  13.955
20957SOL    HW264711   9.758   9.719  14.008
20958SOL     OW64712  10.280   4.824   8.745
20958SOL    HW164713  10.373   4.827   8.765
20958SOL    HW264714  10.270   4.883   8.670
20959SOL     OW64715  12.358   6.719  14.026
20959SOL    HW164716  12.349   6.811  14.051
20959SOL    HW264717  12.448   6.712  13.993
20960SOL     OW64718  13.192   9.386  13.695
20960SOL    HW164719  13.125   9.319  13.711
20960SOL    HW264720  13.244   9.389  13.775
20961SOL     OW64721   7.679   5.620  10.006
20961SOL    HW164722   7.767   5.654  10.021
20961SOL    HW264723   7.621   5.676  10.057
20962SOL     OW64724   4.557   2.474   5.048
20962SOL    HW164725   4.533   2.567   5.047
20962SOL    HW264726   4.630   2.468   4.986
20963SOL     OW64727  13.365   5.361   5.786
20963SOL    HW164728  13.448   5.409   5.781
20963SOL    HW264729  13.343   5.363   5.880
20964SOL     OW64730  12.051   3.678   2.905
20964SOL    HW164731  12.106   3.756   2.897
20964SOL    HW264732  12.113   3.605   2.898
20965SOL     OW64733   4.650   3.945  11.262
20965SOL    HW164734   4.651   3.902  11.347
20965SOL    HW264735   4.557   3.967  11.248
20966SOL     OW64736   4.444   7.378   9.742
20966SOL    HW164737   4.432   7.405   9.651
20966SOL    HW264738   4.392   7.440   9.793
20967SOL     OW64739   9.653  10.037   9.105
20967SOL    HW164740   9.694  10.109   9.057
20967SOL    HW264741   9.561  10.061   9.111
20968SOL     OW64742  11.331   9.027   8.181
20968SOL    HW164743  11.248   8.981   8.195
20968SOL    HW264744  11.309   9.100   8.124
20969SOL     OW64745   5.631   3.547   7.699
20969SOL    HW164746   5.552   3.506   7.663
20969SOL    HW264747   5.685   3.474   7.729
20970SOL     OW64748  12.555   2.217  13.780
20970SOL    HW164749  12.536   2.251  13.868
20970SOL    HW264750  12.470   2.191  13.745
20971SOL     OW64751   9.481   3.817  10.276
20971SOL    HW164752   9.412   3.775  10.226
20971SOL    HW264753   9.516   3.748  10.333
20972SOL     OW64754   4.382  11.335   6.983
20972SOL    HW164755   4.342  11.255   7.016
20972SOL    HW264756   4.438  11.365   7.055
20973SOL     OW64757   1.425   3.909  13.373
20973SOL    HW164758   1.359   3.864  13.426
20973SOL    HW264759   1.434   3.855  13.295
20974SOL     OW64760   7.460   4.996   4.722
20974SOL    HW164761   7.542   5.013   4.676
20974SOL    HW264762   7.392   5.019   4.659
20975SOL     OW64763   7.479  12.338   3.569
20975SOL    HW164764   7.536  12.287   3.512
20975SOL    HW264765   7.524  12.341   3.653
20976SOL     OW64766   6.776   1.843   4.006
20976SOL    HW164767   6.745   1.821   4.094
20976SOL    HW264768   6.747   1.770   3.952
20977SOL     OW64769   7.650   8.563   3.344
20977SOL    HW164770   7.685   8.589   3.259
20977SOL    HW264771   7.587   8.494   3.324
20978SOL     OW64772  10.016   7.039   6.449
20978SOL    HW164773  10.050   7.107   6.390
20978SOL    HW264774   9.942   7.080   6.493
20979SOL     OW64775   7.782   0.884   4.804
20979SOL    HW164776   7.815   0.923   4.885
20979SOL    HW264777   7.860   0.870   4.751
20980SOL     OW64778   7.026   9.779  11.693
20980SOL    HW164779   7.005   9.687  11.709
20980SOL    HW264780   7.010   9.790  11.599
20981SOL     OW64781  12.695  11.180   6.469
20981SOL    HW164782  12.644  11.261   6.471
20981SOL    HW264783  12.699  11.157   6.376
20982SOL     OW64784   1.020   2.846   1.556
20982SOL    HW164785   0.930   2.861   1.526
20982SOL    HW264786   1.023   2.753   1.579
20983SOL     OW64787  13.487  11.524   3.186
20983SOL    HW164788  13.490  11.453   3.122
20983SOL    HW264789  13.395  11.533   3.208
20984SOL     OW64790  10.961  12.489   7.708
20984SOL    HW164791  11.042  12.491   7.760
20984SOL    HW264792  10.991  12.497   7.618
20985SOL     OW64793  10.374   7.071  14.140
20985SOL    HW164794  10.371   7.167  14.139
20985SOL    HW264795  10.466   7.050  14.124
20986SOL     OW64796  10.193  10.780   6.011
20986SOL    HW164797  10.105  10.783   6.048
20986SOL    HW264798  10.204  10.864   5.967
20987SOL     OW64799   9.425   2.167   7.214
20987SOL    HW164800   9.513   2.132   7.223
20987SOL    HW264801   9.397   2.141   7.126
20988SOL     OW64802  12.322   3.469   5.712
20988SOL    HW164803  12.317   3.541   5.649
20988SOL    HW264804  12.291   3.507   5.794
20989SOL     OW64805  13.656  13.046   4.192
20989SOL    HW164806  13.735  13.097   4.173
20989SOL    HW264807  13.620  13.024   4.105
20990SOL     OW64808  11.359  11.187   2.760
20990SOL    HW164809  11.345  11.095   2.738
20990SOL    HW264810  11.300  11.235   2.701
20991SOL     OW64811  12.760   6.773   2.275
20991SOL    HW164812  12.842   6.812   2.305
20991SOL    HW264813  12.693   6.837   2.299
20992SOL     OW64814   0.944   1.256  11.412
20992SOL    HW164815   0.936   1.344  11.450
20992SOL    HW264816   0.863   1.211  11.438
20993SOL     OW64817   5.694   4.665   6.456
20993SOL    HW164818   5.609   4.643   6.495
20993SOL    HW264819   5.688   4.758   6.435
20994SOL     OW64820   3.789   5.118  12.451
20994SOL    HW164821   3.860   5.153  12.397
20994SOL    HW264822   3.795   5.023  12.439
20995SOL     OW64823  13.339   3.371  12.057
20995SOL    HW164824  13.407   3.332  12.002
20995SOL    HW264825  13.379   3.377  12.144
20996SOL     OW64826  12.709  10.896   2.006
20996SOL    HW164827  12.773  10.845   1.957
20996SOL    HW264828  12.727  10.987   1.982
20997SOL     OW64829   3.287  14.390   9.004
20997SOL    HW164830   3.198  14.410   8.977
20997SOL    HW264831   3.285  14.396   9.100
20998SOL     OW64832   0.119   4.428   1.432
20998SOL    HW164833   0.067   4.365   1.483
20998SOL    HW264834   0.177   4.373   1.380
20999SOL     OW64835  10.652   4.039   0.427
20999SOL    HW164836  10.659   4.040   0.523
20999SOL    HW264837  10.627   4.129   0.405
21000SOL     OW64838   1.804   9.304   6.388
21000SOL    HW164839   1.848   9.389   6.394
21000SOL    HW264840   1.711   9.326   6.395
21001SOL     OW64841  11.405   0.204  10.477
21001SOL    HW164842  11.386   0.201  10.571
21001SOL    HW264843  11.414   0.297  10.457
21002SOL     OW64844   5.438   9.362   3.976
21002SOL    HW164845   5.357   9.310   3.971
21002SOL    HW264846   5.409   9.452   3.963
21003SOL     OW64847   4.585   6.595   3.706
21003SOL    HW164848   4.656   6.643   3.663
21003SOL    HW264849   4.533   6.662   3.750
21004SOL     OW64850   2.677   3.580  11.564
21004SOL    HW164851   2.704   3.672  11.564
21004SOL    HW264852   2.636   3.567  11.649
21005SOL     OW64853   4.240  11.611   0.174
21005SOL    HW164854   4.266  11.525   0.140
21005SOL    HW264855   4.237  11.667   0.097
21006SOL     OW64856   1.483   9.529   6.740
21006SOL    HW164857   1.391   9.558   6.739
21006SOL    HW264858   1.520   9.570   6.818
21007SOL     OW64859   8.466   4.062  12.219
21007SOL    HW164860   8.430   4.090  12.135
21007SOL    HW264861   8.489   4.144  12.263
21008SOL     OW64862   9.193   8.140  13.382
21008SOL    HW164863   9.209   8.218  13.328
21008SOL    HW264864   9.109   8.158  13.424
21009SOL     OW64865   3.225   4.933   0.668
21009SOL    HW164866   3.281   4.866   0.629
21009SOL    HW264867   3.284   4.989   0.718
21010SOL     OW64868   0.646   9.066   7.782
21010SOL    HW164869   0.552   9.047   7.775
21010SOL    HW264870   0.669   9.104   7.697
21011SOL     OW64871   6.371   7.750   0.463
21011SOL    HW164872   6.436   7.820   0.464
21011SOL    HW264873   6.298   7.786   0.514
21012SOL     OW64874   2.603   6.556   1.433
21012SOL    HW164875   2.613   6.544   1.338
21012SOL    HW264876   2.649   6.638   1.451
21013SOL     OW64877   7.207  14.791   7.758
21013SOL    HW164878   7.132  14.823   7.808
21013SOL    HW264879   7.191  14.821   7.669
21014SOL     OW64880  13.760  11.163   2.999
21014SOL    HW164881  13.804  11.112   2.931
21014SOL    HW264882  13.750  11.102   3.072
21015SOL     OW64883   7.950  10.362   3.263
21015SOL    HW164884   7.982  10.409   3.186
21015SOL    HW264885   7.941  10.430   3.331
21016SOL     OW64886   6.742  13.206  10.757
21016SOL    HW164887   6.790  13.285  10.781
21016SOL    HW264888   6.794  13.167  10.687
21017SOL     OW64889   5.495  11.206   1.210
21017SOL    HW164890   5.526  11.152   1.138
21017SOL    HW264891   5.569  11.263   1.230
21018SOL     OW64892   9.390   9.562   1.672
21018SOL    HW164893   9.414   9.572   1.764
21018SOL    HW264894   9.359   9.472   1.665
21019SOL     OW64895   8.093  13.574   8.773
21019SOL    HW164896   8.009  13.591   8.730
21019SOL    HW264897   8.126  13.495   8.729
21020SOL     OW64898   9.530  12.150   6.546
21020SOL    HW164899   9.604  12.192   6.502
21020SOL    HW264900   9.453  12.179   6.496
21021SOL     OW64901  14.262  11.383   8.740
21021SOL    HW164902  14.301  11.363   8.654
21021SOL    HW264903  14.264  11.479   8.745
21022SOL     OW64904  12.554   0.908  11.471
21022SOL    HW164905  12.484   0.928  11.408
21022SOL    HW264906  12.542   0.815  11.491
21023SOL     OW64907   5.781   7.065   3.379
21023SOL    HW164908   5.875   7.079   3.389
21023SOL    HW264909   5.760   6.996   3.441
21024SOL     OW64910   8.216  12.878   9.194
21024SOL    HW164911   8.299  12.832   9.188
21024SOL    HW264912   8.188  12.887   9.103
21025SOL     OW64913   3.358   4.201  10.903
21025SOL    HW164914   3.269   4.189  10.936
21025SOL    HW264915   3.346   4.225  10.811
21026SOL     OW64916   4.969  11.863   6.877
21026SOL    HW164917   5.013  11.821   6.950
21026SOL    HW264918   5.004  11.952   6.876
21027SOL     OW64919  10.506  13.768   9.690
21027SOL    HW164920  10.428  13.788   9.640
21027SOL    HW264921  10.541  13.853   9.716
21028SOL     OW64922  10.136   2.672   5.392
21028SOL    HW164923  10.069   2.608   5.417
21028SOL    HW264924  10.135   2.737   5.462
21029SOL     OW64925  10.153   3.835  14.328
21029SOL    HW164926  10.121   3.890  14.400
21029SOL    HW264927  10.243   3.815  14.352
21030SOL     OW64928   0.008  14.086  12.070
21030SOL    HW164929  14.870  14.040  11.989
21030SOL    HW264930   0.056  14.164  12.042
21031SOL     OW64931   3.712  14.031   3.120
21031SOL    HW164932   3.772  13.961   3.146
21031SOL    HW264933   3.741  14.107   3.170
21032SOL     OW64934   1.790   6.370  14.040
21032SOL    HW164935   1.860   6.309  14.016
21032SOL    HW264936   1.776   6.423  13.962
21033SOL     OW64937  12.631  11.191  11.282
21033SOL    HW164938  12.680  11.247  11.341
21033SOL    HW264939  12.560  11.156  11.336
21034SOL     OW64940   6.926  10.345   9.624
21034SOL    HW164941   7.001  10.346   9.565
21034SOL    HW264942   6.915  10.437   9.651
21035SOL     OW64943   7.860  14.071   2.830
21035SOL    HW164944   7.906  13.995   2.866
21035SOL    HW264945   7.875  14.140   2.894
21036SOL     OW64946   1.916   4.975  10.621
21036SOL    HW164947   1.929   4.939  10.533
21036SOL    HW264948   1.932   4.902  10.680
21037SOL     OW64949  13.245  10.266  13.472
21037SOL    HW164950  13.185  10.243  13.401
21037SOL    HW264951  13.307  10.328  13.433
21038SOL     OW64952   9.208   1.485   9.713
21038SOL    HW164953   9.192   1.569   9.670
21038SOL    HW264954   9.223   1.423   9.641
21039SOL     OW64955   5.406   5.311  10.526
21039SOL    HW164956   5.499   5.331  10.524
21039SOL    HW264957   5.387   5.275  10.439
21040SOL     OW64958   8.511   6.847   1.274
21040SOL    HW164959   8.556   6.904   1.211
21040SOL    HW264960   8.524   6.890   1.358
21041SOL     OW64961  10.512   4.969   7.011
21041SOL    HW164962  10.541   5.060   7.008
21041SOL    HW264963  10.489   4.948   6.920
21042SOL     OW64964   5.632   8.850   5.004
21042SOL    HW164965   5.643   8.760   4.975
21042SOL    HW264966   5.554   8.848   5.060
21043SOL     OW64967  14.865  11.345   2.629
21043SOL    HW164968  14.858  11.440   2.630
21043SOL    HW264969  14.855  11.319   2.721
21044SOL     OW64970   1.688   8.836   5.507
21044SOL    HW164971   1.745   8.906   5.477
21044SOL    HW264972   1.638   8.811   5.429
21045SOL     OW64973   3.903  10.028   0.924
21045SOL    HW164974   3.956   9.991   0.854
21045SOL    HW264975   3.867  10.109   0.888
21046SOL     OW64976   3.785  12.297   9.113
21046SOL    HW164977   3.706  12.275   9.162
21046SOL    HW264978   3.753  12.319   9.026
21047SOL     OW64979   8.007  11.234   5.217
21047SOL    HW164980   8.102  11.247   5.211
21047SOL    HW264981   7.979  11.296   5.283
21048SOL     OW64982   1.367  10.651  14.337
21048SOL    HW164983   1.380  10.736  14.296
21048SOL    HW264984   1.453  10.608  14.332
21049SOL     OW64985   1.948   1.803  12.513
21049SOL    HW164986   1.897   1.787  12.433
21049SOL    HW264987   1.994   1.886  12.496
21050SOL     OW64988   6.552   9.885   5.468
21050SOL    HW164989   6.635   9.897   5.421
21050SOL    HW264990   6.574   9.824   5.539
21051SOL     OW64991   0.749  13.456   6.510
21051SOL    HW164992   0.831  13.486   6.550
21051SOL    HW264993   0.765  13.461   6.416
21052SOL     OW64994  10.749   2.816  13.443
21052SOL    HW164995  10.687   2.816  13.515
21052SOL    HW264996  10.834   2.831  13.485
21053SOL     OW64997   3.993   3.634   4.494
21053SOL    HW164998   4.065   3.588   4.536
21053SOL    HW264999   4.032   3.713   4.458
21054SOL     OW65000   8.966   3.670   4.518
21054SOL    HW165001   8.907   3.599   4.491
21054SOL    HW265002   9.047   3.626   4.542
21055SOL     OW65003   2.203   6.030   7.934
21055SOL    HW165004   2.295   6.024   7.960
21055SOL    HW265005   2.174   6.113   7.971
21056SOL     OW65006   8.455   4.231  12.658
21056SOL    HW165007   8.376   4.251  12.609
21056SOL    HW265008   8.480   4.143  12.629
21057SOL     OW65009   7.795  13.043  12.276
21057SOL    HW165010   7.832  12.964  12.236
21057SOL    HW265011   7.706  13.018  12.301
21058SOL     OW65012   2.053   2.415   3.723
21058SOL    HW165013   2.133   2.378   3.685
21058SOL    HW265014   2.085   2.487   3.779
21059SOL     OW65015   8.642   4.613  14.639
21059SOL    HW165016   8.737   4.604  14.631
21059SOL    HW265017   8.619   4.560  14.715
21060SOL     OW65018   4.395   0.060   1.477
21060SOL    HW165019   4.400   0.144   1.431
21060SOL    HW265020   4.350   0.081   1.559
21061SOL     OW65021   9.004  13.964  13.597
21061SOL    HW165022   9.054  13.990  13.519
21061SOL    HW265023   8.913  13.969  13.570
21062SOL     OW65024   8.098  12.205   7.381
21062SOL    HW165025   8.108  12.299   7.367
21062SOL    HW265026   8.085  12.169   7.294
21063SOL     OW65027   3.664   6.290  14.531
21063SOL    HW165028   3.755   6.303  14.555
21063SOL    HW265029   3.655   6.333  14.446
21064SOL     OW65030   2.813   7.907   6.178
21064SOL    HW165031   2.723   7.896   6.150
21064SOL    HW265032   2.823   7.846   6.251
21065SOL     OW65033   6.350   0.966  10.137
21065SOL    HW165034   6.408   0.979  10.063
21065SOL    HW265035   6.352   0.872  10.154
21066SOL     OW65036  11.453   8.093   1.431
21066SOL    HW165037  11.546   8.080   1.448
21066SOL    HW265038  11.446   8.184   1.403
21067SOL     OW65039   5.169   3.170   3.624
21067SOL    HW165040   5.249   3.207   3.662
21067SOL    HW265041   5.100   3.229   3.652
21068SOL     OW65042  13.080   6.651   6.744
21068SOL    HW165043  13.072   6.556   6.737
21068SOL    HW265044  13.109   6.679   6.657
21069SOL     OW65045   8.742  13.432   5.830
21069SOL    HW165046   8.812  13.419   5.765
21069SOL    HW265047   8.781  13.408   5.913
21070SOL     OW65048   0.184  11.237   2.480
21070SOL    HW165049   0.119  11.270   2.542
21070SOL    HW265050   0.265  11.282   2.503
21071SOL     OW65051   2.367  12.127   2.311
21071SOL    HW165052   2.326  12.210   2.286
21071SOL    HW265053   2.458  12.151   2.331
21072SOL     OW65054   5.474   3.027   2.953
21072SOL    HW165055   5.379   3.017   2.966
21072SOL    HW265056   5.512   2.955   3.004
21073SOL     OW65057   3.491   5.905   4.137
21073SOL    HW165058   3.547   5.884   4.063
21073SOL    HW265059   3.403   5.883   4.108
21074SOL     OW65060   4.639  13.487   9.670
21074SOL    HW165061   4.622  13.406   9.622
21074SOL    HW265062   4.553  13.517   9.698
21075SOL     OW65063  14.267   9.764   8.343
21075SOL    HW165064  14.284   9.746   8.250
21075SOL    HW265065  14.207   9.838   8.343
21076SOL     OW65066  11.425   0.101  13.531
21076SOL    HW165067  11.366   0.034  13.564
21076SOL    HW265068  11.502   0.095  13.588
21077SOL     OW65069  14.424   8.992   5.331
21077SOL    HW165070  14.431   8.959   5.242
21077SOL    HW265071  14.499   9.052   5.341
21078SOL     OW65072  10.091  13.196  14.819
21078SOL    HW165073  10.093  13.105  14.792
21078SOL    HW265074  10.013  13.232  14.776
21079SOL     OW65075   7.100  14.414   7.951
21079SOL    HW165076   7.075  14.453   8.035
21079SOL    HW265077   7.117  14.322   7.972
21080SOL     OW65078   3.752   7.606   5.404
21080SOL    HW165079   3.665   7.627   5.438
21080SOL    HW265080   3.773   7.678   5.344
21081SOL     OW65081  10.153  11.030   7.601
21081SOL    HW165082  10.128  10.939   7.616
21081SOL    HW265083  10.196  11.056   7.682
21082SOL     OW65084  14.859  11.765   7.357
21082SOL    HW165085  14.830  11.786   7.269
21082SOL    HW265086  14.855  11.847   7.405
21083SOL     OW65087  10.239  14.597   6.758
21083SOL    HW165088  10.278  14.621   6.675
21083SOL    HW265089  10.257  14.671   6.816
21084SOL     OW65090   9.400   2.993   7.268
21084SOL    HW165091   9.461   3.046   7.320
21084SOL    HW265092   9.456   2.932   7.220
21085SOL     OW65093   9.666   9.978   0.477
21085SOL    HW165094   9.747  10.016   0.443
21085SOL    HW265095   9.614  10.053   0.506
21086SOL     OW65096  10.764   0.936   1.613
21086SOL    HW165097  10.689   0.968   1.563
21086SOL    HW265098  10.808   1.016   1.643
21087SOL     OW65099   8.515  12.150   7.003
21087SOL    HW165100   8.453  12.217   7.031
21087SOL    HW265101   8.590  12.200   6.971
21088SOL     OW65102  10.122   1.076   7.817
21088SOL    HW165103  10.209   1.111   7.837
21088SOL    HW265104  10.070   1.153   7.794
21089SOL     OW65105  11.881  12.265  13.331
21089SOL    HW165106  11.875  12.191  13.391
21089SOL    HW265107  11.937  12.328  13.376
21090SOL     OW65108   9.029   0.197   4.085
21090SOL    HW165109   8.957   0.260   4.077
21090SOL    HW265110   8.996   0.132   4.147
21091SOL     OW65111   5.408   7.889   2.623
21091SOL    HW165112   5.410   7.834   2.701
21091SOL    HW265113   5.474   7.851   2.565
21092SOL     OW65114   7.234  14.192   8.008
21092SOL    HW165115   7.244  14.107   7.965
21092SOL    HW265116   7.173  14.176   8.080
21093SOL     OW65117   7.978   5.127   0.715
21093SOL    HW165118   7.990   5.220   0.694
21093SOL    HW265119   7.943   5.089   0.634
21094SOL     OW65120   2.468   2.518  14.627
21094SOL    HW165121   2.500   2.429  14.646
21094SOL    HW265122   2.547   2.569  14.609
21095SOL     OW65123   3.745   7.700  14.062
21095SOL    HW165124   3.717   7.609  14.066
21095SOL    HW265125   3.757   7.726  14.153
21096SOL     OW65126   2.080  11.814   4.016
21096SOL    HW165127   2.019  11.773   4.078
21096SOL    HW265128   2.064  11.908   4.024
21097SOL     OW65129   7.292   1.930   1.883
21097SOL    HW165130   7.316   1.841   1.860
21097SOL    HW265131   7.228   1.956   1.817
21098SOL     OW65132  12.687  12.668   3.857
21098SOL    HW165133  12.650  12.602   3.798
21098SOL    HW265134  12.613  12.694   3.912
21099SOL     OW65135  13.493  13.651   7.350
21099SOL    HW165136  13.473  13.558   7.358
21099SOL    HW265137  13.409  13.695   7.366
21100SOL     OW65138   0.771   3.836   5.058
21100SOL    HW165139   0.700   3.893   5.029
21100SOL    HW265140   0.828   3.827   4.982
21101SOL     OW65141  11.731   7.603   4.951
21101SOL    HW165142  11.676   7.679   4.973
21101SOL    HW265143  11.799   7.603   5.018
21102SOL     OW65144  12.083  11.534  12.752
21102SOL    HW165145  12.080  11.540  12.656
21102SOL    HW265146  12.087  11.625  12.781
21103SOL     OW65147   8.670   0.181   6.115
21103SOL    HW165148   8.679   0.222   6.201
21103SOL    HW265149   8.654   0.254   6.055
21104SOL     OW65150  12.990  10.511   8.818
21104SOL    HW165151  12.999  10.430   8.768
21104SOL    HW265152  13.079  10.536   8.840
21105SOL     OW65153   1.883   0.512   8.892
21105SOL    HW165154   1.949   0.522   8.824
21105SOL    HW265155   1.807   0.475   8.848
21106SOL     OW65156  13.784   2.091  13.248
21106SOL    HW165157  13.701   2.136  13.233
21106SOL    HW265158  13.798   2.096  13.342
21107SOL     OW65159   3.914  13.198   9.102
21107SOL    HW165160   3.975  13.271   9.119
21107SOL    HW265161   3.893  13.164   9.189
21108SOL     OW65162   4.782  12.761   0.509
21108SOL    HW165163   4.865  12.729   0.473
21108SOL    HW265164   4.767  12.707   0.586
21109SOL     OW65165  13.701  10.252   0.432
21109SOL    HW165166  13.696  10.333   0.381
21109SOL    HW265167  13.622  10.204   0.409
21110SOL     OW65168  13.697   7.622   3.582
21110SOL    HW165169  13.789   7.629   3.560
21110SOL    HW265170  13.655   7.691   3.530
21111SOL     OW65171  13.696   8.764   7.981
21111SOL    HW165172  13.610   8.725   7.993
21111SOL    HW265173  13.733   8.718   7.906
21112SOL     OW65174   4.881  11.594   5.013
21112SOL    HW165175   4.976  11.603   5.012
21112SOL    HW265176   4.866  11.500   5.025
21113SOL     OW65177  10.228   2.272   8.189
21113SOL    HW165178  10.304   2.229   8.229
21113SOL    HW265179  10.203   2.340   8.251
21114SOL     OW65180   1.063   3.582   7.564
21114SOL    HW165181   1.030   3.662   7.606
21114SOL    HW265182   1.146   3.564   7.609
21115SOL     OW65183   3.445  13.699   5.749
21115SOL    HW165184   3.526  13.673   5.705
21115SOL    HW265185   3.454  13.665   5.838
21116SOL     OW65186   0.066   1.749  10.412
21116SOL    HW165187   0.106   1.795  10.486
21116SOL    HW265188   0.007   1.813  10.372
21117SOL     OW65189   9.132   9.706   1.191
21117SOL    HW165190   9.053   9.745   1.229
21117SOL    HW265191   9.197   9.712   1.261
21118SOL     OW65192  11.969   3.199   9.578
21118SOL    HW165193  11.919   3.261   9.525
21118SOL    HW265194  11.994   3.129   9.518
21119SOL     OW65195   2.089   6.321   9.246
21119SOL    HW165196   2.158   6.318   9.180
21119SOL    HW265197   2.132   6.353   9.326
21120SOL     OW65198   5.731   5.002   9.395
21120SOL    HW165199   5.678   4.927   9.422
21120SOL    HW265200   5.668   5.063   9.357
21121SOL     OW65201   5.194   5.016   9.463
21121SOL    HW165202   5.191   4.943   9.524
21121SOL    HW265203   5.104   5.050   9.461
21122SOL     OW65204  13.840  10.828   0.292
21122SOL    HW165205  13.846  10.924   0.293
21122SOL    HW265206  13.923  10.798   0.328
21123SOL     OW65207  12.724  11.493  13.011
21123SOL    HW165208  12.738  11.449  13.094
21123SOL    HW265209  12.645  11.452  12.975
21124SOL     OW65210  12.475   7.302   1.889
21124SOL    HW165211  12.455   7.384   1.846
21124SOL    HW265212  12.443   7.313   1.979
21125SOL     OW65213  14.439   4.643  13.031
21125SOL    HW165214  14.505   4.589  12.987
21125SOL    HW265215  14.490   4.707  13.081
21126SOL     OW65216   1.909   4.862   4.561
21126SOL    HW165217   1.844   4.915   4.515
21126SOL    HW265218   1.987   4.918   4.564
21127SOL     OW65219  10.902   3.347   5.875
21127SOL    HW165220  10.841   3.415   5.847
21127SOL    HW265221  10.958   3.333   5.798
21128SOL     OW65222   5.434   1.359   6.527
21128SOL    HW165223   5.506   1.388   6.471
21128SOL    HW265224   5.442   1.263   6.528
21129SOL     OW65225   2.378   1.005   8.492
21129SOL    HW165226   2.329   1.041   8.417
21129SOL    HW265227   2.377   0.910   8.477
21130SOL     OW65228   7.852   8.768   1.341
21130SOL    HW165229   7.906   8.691   1.358
21130SOL    HW265230   7.816   8.753   1.253
21131SOL     OW65231  10.106   0.538  13.848
21131SOL    HW165232  10.101   0.612  13.787
21131SOL    HW265233  10.107   0.578  13.935
21132SOL     OW65234  11.655   4.164   5.857
21132SOL    HW165235  11.609   4.089   5.819
21132SOL    HW265236  11.595   4.198   5.924
21133SOL     OW65237   6.835   0.157  13.433
21133SOL    HW165238   6.842   0.082  13.493
21133SOL    HW265239   6.749   0.193  13.451
21134SOL     OW65240   7.574   4.723   7.393
21134SOL    HW165241   7.655   4.751   7.351
21134SOL    HW265242   7.581   4.627   7.395
21135SOL     OW65243   3.275   8.353   3.681
21135SOL    HW165244   3.302   8.285   3.743
21135SOL    HW265245   3.266   8.432   3.735
21136SOL     OW65246   2.038  14.809   4.856
21136SOL    HW165247   2.023  14.733   4.800
21136SOL    HW265248   1.962  14.810   4.915
21137SOL     OW65249  13.254   3.722   7.408
21137SOL    HW165250  13.214   3.636   7.394
21137SOL    HW265251  13.212   3.755   7.487
21138SOL     OW65252   1.770   9.517   6.108
21138SOL    HW165253   1.760   9.572   6.186
21138SOL    HW265254   1.724   9.565   6.039
21139SOL     OW65255   0.278   2.112   2.959
21139SOL    HW165256   0.192   2.100   2.919
21139SOL    HW265257   0.260   2.118   3.053
21140SOL     OW65258   8.542   7.136   6.750
21140SOL    HW165259   8.632   7.139   6.783
21140SOL    HW265260   8.521   7.226   6.729
21141SOL     OW65261   1.707  13.282   1.022
21141SOL    HW165262   1.707  13.343   0.948
21141SOL    HW265263   1.691  13.338   1.098
21142SOL     OW65264   8.692  12.826  12.259
21142SOL    HW165265   8.754  12.823  12.331
21142SOL    HW265266   8.612  12.787  12.294
21143SOL     OW65267   8.222   1.360   3.072
21143SOL    HW165268   8.171   1.439   3.055
21143SOL    HW265269   8.311   1.384   3.047
21144SOL     OW65270   3.502   5.680   1.226
21144SOL    HW165271   3.523   5.699   1.318
21144SOL    HW265272   3.563   5.734   1.176
21145SOL     OW65273   0.692   2.410   8.166
21145SOL    HW165274   0.627   2.348   8.132
21145SOL    HW265275   0.694   2.395   8.260
21146SOL     OW65276   3.346   1.911  14.526
21146SOL    HW165277   3.436   1.890  14.501
21146SOL    HW265278   3.300   1.921  14.443
21147SOL     OW65279   2.317   9.595   8.885
21147SOL    HW165280   2.411   9.596   8.901
21147SOL    HW265281   2.288   9.684   8.904
21148SOL     OW65282   6.768   9.831   5.879
21148SOL    HW165283   6.757   9.744   5.840
21148SOL    HW265284   6.777   9.890   5.805
21149SOL     OW65285   6.577   3.944   1.696
21149SOL    HW165286   6.584   3.909   1.785
21149SOL    HW265287   6.504   4.006   1.700
21150SOL     OW65288  11.896  10.988   2.538
21150SOL    HW165289  11.912  11.079   2.515
21150SOL    HW265290  11.803  10.986   2.562
21151SOL     OW65291   6.551   4.747   7.227
21151SOL    HW165292   6.506   4.666   7.202
21151SOL    HW265293   6.509   4.815   7.174
21152SOL     OW65294  14.772   7.347   9.915
21152SOL    HW165295  14.786   7.441   9.915
21152SOL    HW265296  14.738   7.328   9.828
21153SOL     OW65297   0.643   4.303   1.391
21153SOL    HW165298   0.600   4.301   1.476
21153SOL    HW265299   0.583   4.258   1.332
21154SOL     OW65300  10.369   1.023  14.597
21154SOL    HW165301  10.311   1.032  14.521
21154SOL    HW265302  10.453   1.058  14.568
21155SOL     OW65303   4.751   3.820   3.080
21155SOL    HW165304   4.768   3.731   3.049
21155SOL    HW265305   4.737   3.871   3.000
21156SOL     OW65306   0.212   9.335  13.693
21156SOL    HW165307   0.158   9.409  13.668
21156SOL    HW265308   0.192   9.266  13.629
21157SOL     OW65309   5.007   2.160  10.019
21157SOL    HW165310   4.919   2.126  10.036
21157SOL    HW265311   5.038   2.190  10.104
21158SOL     OW65312   6.241   6.626   4.844
21158SOL    HW165313   6.167   6.686   4.834
21158SOL    HW265314   6.306   6.675   4.895
21159SOL     OW65315   7.497   9.108   8.168
21159SOL    HW165316   7.487   9.016   8.141
21159SOL    HW265317   7.412   9.148   8.148
21160SOL     OW65318  13.845  12.370  13.717
21160SOL    HW165319  13.864  12.355  13.809
21160SOL    HW265320  13.820  12.463  13.713
21161SOL     OW65321   3.969   2.996   8.517
21161SOL    HW165322   3.966   3.044   8.434
21161SOL    HW265323   4.020   3.052   8.575
21162SOL     OW65324   4.883  13.596   3.432
21162SOL    HW165325   4.854  13.676   3.476
21162SOL    HW265326   4.843  13.525   3.483
21163SOL     OW65327   7.541  13.945  10.568
21163SOL    HW165328   7.608  13.988  10.619
21163SOL    HW265329   7.546  13.986  10.481
21164SOL     OW65330  14.285   9.176   1.955
21164SOL    HW165331  14.324   9.093   1.986
21164SOL    HW265332  14.324   9.243   2.012
21165SOL     OW65333   5.520  12.517   0.142
21165SOL    HW165334   5.545  12.427   0.162
21165SOL    HW265335   5.443  12.534   0.196
21166SOL     OW65336   0.640   1.770   8.727
21166SOL    HW165337   0.612   1.685   8.760
21166SOL    HW265338   0.565   1.827   8.742
21167SOL     OW65339   4.545   1.152   1.391
21167SOL    HW165340   4.514   1.202   1.467
21167SOL    HW265341   4.512   1.063   1.406
21168SOL     OW65342  12.437  13.142  13.725
21168SOL    HW165343  12.497  13.074  13.694
21168SOL    HW265344  12.471  13.167  13.811
21169SOL     OW65345   2.005   5.047  11.830
21169SOL    HW165346   1.985   4.962  11.867
21169SOL    HW265347   1.957   5.109  11.885
21170SOL     OW65348   3.581   9.162   8.908
21170SOL    HW165349   3.570   9.083   8.855
21170SOL    HW265350   3.521   9.226   8.868
21171SOL     OW65351  13.365  12.884   8.104
21171SOL    HW165352  13.392  12.793   8.112
21171SOL    HW265353  13.275  12.879   8.072
21172SOL     OW65354   8.660   7.748   9.873
21172SOL    HW165355   8.596   7.819   9.873
21172SOL    HW265356   8.745   7.791   9.878
21173SOL     OW65357   6.338   3.045  12.357
21173SOL    HW165358   6.394   2.987  12.305
21173SOL    HW265359   6.347   3.012  12.447
21174SOL     OW65360   8.003   7.509   9.589
21174SOL    HW165361   7.959   7.473   9.512
21174SOL    HW265362   7.964   7.595   9.601
21175SOL     OW65363   0.531  11.371   1.904
21175SOL    HW165364   0.510  11.456   1.865
21175SOL    HW265365   0.622  11.379   1.932
21176SOL     OW65366  11.794   1.088   2.549
21176SOL    HW165367  11.749   1.005   2.562
21176SOL    HW265368  11.853   1.071   2.475
21177SOL     OW65369  12.131   4.239  11.532
21177SOL    HW165370  12.054   4.219  11.478
21177SOL    HW265371  12.198   4.267  11.469
21178SOL     OW65372   1.641   9.156   8.768
21178SOL    HW165373   1.609   9.068   8.783
21178SOL    HW265374   1.732   9.145   8.741
21179SOL     OW65375   0.666   5.508   5.178
21179SOL    HW165376   0.675   5.542   5.089
21179SOL    HW265377   0.672   5.585   5.234
21180SOL     OW65378   6.383   4.331  10.168
21180SOL    HW165379   6.422   4.266  10.227
21180SOL    HW265380   6.317   4.375  10.220
21181SOL     OW65381  14.228  13.540   1.276
21181SOL    HW165382  14.273  13.620   1.302
21181SOL    HW265383  14.181  13.564   1.196
21182SOL     OW65384   2.518   8.450   0.456
21182SOL    HW165385   2.581   8.514   0.422
21182SOL    HW265386   2.468   8.423   0.379
21183SOL     OW65387  10.227  11.438   8.646
21183SOL    HW165388  10.186  11.427   8.560
21183SOL    HW265389  10.320  11.423   8.630
21184SOL     OW65390  10.992   3.455   2.351
21184SOL    HW165391  11.014   3.375   2.399
21184SOL    HW265392  11.068   3.512   2.363
21185SOL     OW65393  12.435   8.221  14.327
21185SOL    HW165394  12.515   8.201  14.277
21185SOL    HW265395  12.378   8.146  14.310
21186SOL     OW65396   0.546   5.279  14.298
21186SOL    HW165397   0.604   5.266  14.223
21186SOL    HW265398   0.603   5.309  14.368
21187SOL     OW65399   2.469   7.528   8.848
21187SOL    HW165400   2.539   7.465   8.832
21187SOL    HW265401   2.507   7.612   8.822
21188SOL     OW65402   3.295  14.319   8.375
21188SOL    HW165403   3.222  14.382   8.378
21188SOL    HW265404   3.316  14.303   8.467
21189SOL     OW65405   4.235   0.425  12.568
21189SOL    HW165406   4.294   0.439  12.494
21189SOL    HW265407   4.167   0.491  12.558
21190SOL     OW65408   2.764   7.707   1.102
21190SOL    HW165409   2.755   7.625   1.055
21190SOL    HW265410   2.750   7.775   1.035
21191SOL     OW65411   8.554   2.198   3.108
21191SOL    HW165412   8.461   2.189   3.128
21191SOL    HW265413   8.558   2.202   3.012
21192SOL     OW65414  12.382   6.631   7.511
21192SOL    HW165415  12.388   6.709   7.455
21192SOL    HW265416  12.302   6.587   7.483
21193SOL     OW65417   3.077  14.444   7.749
21193SOL    HW165418   3.031  14.431   7.666
21193SOL    HW265419   3.170  14.443   7.725
21194SOL     OW65420   7.892   2.231   4.225
21194SOL    HW165421   7.922   2.304   4.171
21194SOL    HW265422   7.829   2.270   4.285
21195SOL     OW65423   2.802  12.570   4.103
21195SOL    HW165424   2.885  12.543   4.065
21195SOL    HW265425   2.808  12.545   4.195
21196SOL     OW65426  10.406   2.201  12.780
21196SOL    HW165427  10.332   2.238  12.731
21196SOL    HW265428  10.483   2.226  12.731
21197SOL     OW65429  13.884   4.181   9.528
21197SOL    HW165430  13.900   4.244   9.458
21197SOL    HW265431  13.970   4.142   9.544
21198SOL     OW65432   4.723   2.819   3.133
21198SOL    HW165433   4.790   2.779   3.188
21198SOL    HW265434   4.677   2.745   3.094
21199SOL     OW65435   6.726   1.407   8.720
21199SOL    HW165436   6.672   1.440   8.791
21199SOL    HW265437   6.678   1.330   8.688
21200SOL     OW65438   4.873   0.795  10.450
21200SOL    HW165439   4.824   0.748  10.517
21200SOL    HW265440   4.852   0.887  10.466
21201SOL     OW65441  11.775   2.407   0.299
21201SOL    HW165442  11.840   2.354   0.345
21201SOL    HW265443  11.721   2.343   0.253
21202SOL     OW65444  13.305   6.013   0.925
21202SOL    HW165445  13.276   6.001   1.016
21202SOL    HW265446  13.378   6.074   0.932
21203SOL     OW65447  13.336   8.870   2.682
21203SOL    HW165448  13.291   8.793   2.646
21203SOL    HW265449  13.373   8.914   2.605
21204SOL     OW65450   8.128   7.501   3.914
21204SOL    HW165451   8.171   7.438   3.972
21204SOL    HW265452   8.074   7.447   3.856
21205SOL     OW65453   7.307   2.345   7.773
21205SOL    HW165454   7.335   2.348   7.865
21205SOL    HW265455   7.272   2.256   7.762
21206SOL     OW65456   7.828  14.542   6.440
21206SOL    HW165457   7.771  14.613   6.410
21206SOL    HW265458   7.916  14.579   6.439
21207SOL     OW65459  12.852   2.622   9.728
21207SOL    HW165460  12.758   2.612   9.715
21207SOL    HW265461  12.870   2.713   9.702
21208SOL     OW65462   1.380   2.094   2.029
21208SOL    HW165463   1.381   2.111   1.935
21208SOL    HW265464   1.472   2.098   2.055
21209SOL     OW65465   9.397   1.605   8.434
21209SOL    HW165466   9.370   1.627   8.523
21209SOL    HW265467   9.399   1.510   8.432
21210SOL     OW65468   1.353   4.248  12.650
21210SOL    HW165469   1.276   4.210  12.691
21210SOL    HW265470   1.389   4.307  12.716
21211SOL     OW65471  14.593  11.365   8.990
21211SOL    HW165472  14.513  11.407   9.023
21211SOL    HW265473  14.661  11.431   9.000
21212SOL     OW65474   0.046   9.070   2.649
21212SOL    HW165475   0.034   8.990   2.700
21212SOL    HW265476   0.052   9.040   2.558
21213SOL     OW65477   0.667   5.292   6.304
21213SOL    HW165478   0.629   5.238   6.235
21213SOL    HW265479   0.734   5.237   6.344
21214SOL     OW65480   1.696   7.548  12.381
21214SOL    HW165481   1.750   7.564  12.458
21214SOL    HW265482   1.704   7.453  12.366
21215SOL     OW65483   6.065  10.680   4.987
21215SOL    HW165484   6.137  10.675   4.924
21215SOL    HW265485   6.108  10.680   5.072
21216SOL     OW65486   2.967  11.326   0.641
21216SOL    HW165487   2.960  11.296   0.551
21216SOL    HW265488   3.030  11.397   0.639
21217SOL     OW65489   7.823   9.651   2.735
21217SOL    HW165490   7.876   9.715   2.783
21217SOL    HW265491   7.841   9.671   2.643
21218SOL     OW65492  12.967   7.474  14.153
21218SOL    HW165493  13.018   7.525  14.090
21218SOL    HW265494  12.997   7.505  14.238
21219SOL     OW65495   1.765   5.025  13.959
21219SOL    HW165496   1.853   5.002  13.989
21219SOL    HW265497   1.725   5.070  14.033
21220SOL     OW65498   4.617  14.296   4.211
21220SOL    HW165499   4.614  14.364   4.278
21220SOL    HW265500   4.693  14.243   4.235
21221SOL     OW65501   3.331  13.038   5.655
21221SOL    HW165502   3.351  12.995   5.738
21221SOL    HW265503   3.389  12.995   5.592
21222SOL     OW65504  12.916   5.246   5.614
21222SOL    HW165505  12.918   5.339   5.637
21222SOL    HW265506  12.937   5.244   5.521
21223SOL     OW65507   9.779   5.251  13.361
21223SOL    HW165508   9.747   5.341  13.356
21223SOL    HW265509   9.729   5.204  13.294
21224SOL     OW65510  14.068   6.083  14.220
21224SOL    HW165511  14.083   6.053  14.130
21224SOL    HW265512  14.122   6.025  14.273
21225SOL     OW65513   9.166   0.418   9.592
21225SOL    HW165514   9.180   0.411   9.686
21225SOL    HW265515   9.232   0.481   9.562
21226SOL     OW65516   9.692   2.855   8.637
21226SOL    HW165517   9.679   2.761   8.624
21226SOL    HW265518   9.631   2.896   8.576
21227SOL     OW65519  12.648   9.878   1.070
21227SOL    HW165520  12.569   9.826   1.086
21227SOL    HW265521  12.616   9.957   1.025
21228SOL     OW65522   2.740  13.303  10.722
21228SOL    HW165523   2.646  13.317  10.732
21228SOL    HW265524   2.748  13.213  10.689
21229SOL     OW65525  13.958  11.283  11.874
21229SOL    HW165526  13.952  11.311  11.783
21229SOL    HW265527  14.051  11.263  11.887
21230SOL     OW65528   0.535  11.722   7.372
21230SOL    HW165529   0.625  11.692   7.359
21230SOL    HW265530   0.495  11.717   7.285
21231SOL     OW65531   9.790   0.782  10.087
21231SOL    HW165532   9.746   0.707  10.127
21231SOL    HW265533   9.825   0.832  10.160
21232SOL     OW65534  12.719  13.776   0.775
21232SOL    HW165535  12.674  13.748   0.855
21232SOL    HW265536  12.714  13.700   0.717
21233SOL     OW65537   7.605   1.825  12.303
21233SOL    HW165538   7.607   1.885  12.377
21233SOL    HW265539   7.678   1.765  12.318
21234SOL     OW65540   5.272  14.825   2.529
21234SOL    HW165541   5.200  14.787   2.479
21234SOL    HW265542   5.249   0.036   2.538
21235SOL     OW65543   2.806  11.081  11.609
21235SOL    HW165544   2.828  11.066  11.701
21235SOL    HW265545   2.779  10.995  11.577
21236SOL     OW65546  13.011  11.697   9.938
21236SOL    HW165547  12.928  11.695   9.985
21236SOL    HW265548  13.068  11.639   9.989
21237SOL     OW65549   3.280   1.839   3.546
21237SOL    HW165550   3.279   1.934   3.532
21237SOL    HW265551   3.190   1.812   3.525
21238SOL     OW65552  12.005  13.240   6.006
21238SOL    HW165553  12.036  13.284   6.085
21238SOL    HW265554  11.920  13.204   6.031
21239SOL     OW65555   1.160  13.496   9.188
21239SOL    HW165556   1.101  13.442   9.241
21239SOL    HW265557   1.165  13.580   9.234
21240SOL     OW65558   4.991   3.838   1.946
21240SOL    HW165559   4.976   3.892   2.023
21240SOL    HW265560   4.947   3.756   1.964
21241SOL     OW65561   6.035  13.005   3.484
21241SOL    HW165562   6.069  12.952   3.557
21241SOL    HW265563   6.070  13.092   3.500
21242SOL     OW65564   0.571   0.460   2.275
21242SOL    HW165565   0.642   0.520   2.252
21242SOL    HW265566   0.526   0.502   2.348
21243SOL     OW65567   4.531   2.760  14.159
21243SOL    HW165568   4.482   2.804  14.228
21243SOL    HW265569   4.591   2.827  14.126
21244SOL     OW65570   0.226   7.292   2.399
21244SOL    HW165571   0.224   7.347   2.321
21244SOL    HW265572   0.186   7.344   2.468
21245SOL     OW65573   9.383   7.716   7.553
21245SOL    HW165574   9.325   7.790   7.533
21245SOL    HW265575   9.451   7.754   7.609
21246SOL     OW65576   4.001   6.811   3.679
21246SOL    HW165577   4.032   6.821   3.769
21246SOL    HW265578   3.933   6.743   3.684
21247SOL     OW65579   3.530   6.483   1.333
21247SOL    HW165580   3.488   6.403   1.366
21247SOL    HW265581   3.599   6.451   1.275
21248SOL     OW65582   5.777  12.191   3.680
21248SOL    HW165583   5.721  12.269   3.682
21248SOL    HW265584   5.855  12.216   3.731
21249SOL     OW65585  10.111  13.823   2.828
21249SOL    HW165586  10.143  13.913   2.821
21249SOL    HW265587  10.016  13.831   2.823
21250SOL     OW65588  12.288  10.688   2.006
21250SOL    HW165589  12.341  10.713   2.082
21250SOL    HW265590  12.203  10.728   2.023
21251SOL     OW65591   0.020   8.282  14.808
21251SOL    HW165592  14.828   8.237  14.850
21251SOL    HW265593  14.864   8.364  14.775
21252SOL     OW65594   1.066   7.317   3.009
21252SOL    HW165595   0.977   7.284   3.022
21252SOL    HW265596   1.123   7.248   3.042
21253SOL     OW65597   8.915  14.791   7.969
21253SOL    HW165598   8.889  14.876   7.933
21253SOL    HW265599   8.934  14.810   8.061
21254SOL     OW65600   9.141   6.965  14.321
21254SOL    HW165601   9.108   7.017  14.248
21254SOL    HW265602   9.234   6.953  14.301
21255SOL     OW65603  12.154   2.910  10.405
21255SOL    HW165604  12.235   2.866  10.433
21255SOL    HW265605  12.116   2.851  10.340
21256SOL     OW65606   7.236   7.244   2.013
21256SOL    HW165607   7.327   7.274   2.017
21256SOL    HW265608   7.226   7.210   1.924
21257SOL     OW65609  14.338  14.023   4.817
21257SOL    HW165610  14.294  13.980   4.890
21257SOL    HW265611  14.337  13.958   4.747
21258SOL     OW65612   9.340   6.947  14.108
21258SOL    HW165613   9.422   6.938  14.157
21258SOL    HW265614   9.367   6.985  14.024
21259SOL     OW65615   3.791   0.253   4.827
21259SOL    HW165616   3.715   0.262   4.769
21259SOL    HW265617   3.867   0.257   4.768
21260SOL     OW65618   3.937   4.664   2.362
21260SOL    HW165619   3.919   4.720   2.438
21260SOL    HW265620   4.033   4.666   2.355
21261SOL     OW65621   2.817   5.695   0.669
21261SOL    HW165622   2.751   5.697   0.738
21261SOL    HW265623   2.892   5.740   0.707
21262SOL     OW65624   3.620   7.252   1.741
21262SOL    HW165625   3.663   7.203   1.812
21262SOL    HW265626   3.686   7.314   1.711
21263SOL     OW65627   2.739   1.723   1.039
21263SOL    HW165628   2.811   1.761   1.088
21263SOL    HW265629   2.773   1.638   1.008
21264SOL     OW65630  10.289   9.905  12.105
21264SOL    HW165631  10.279   9.862  12.191
21264SOL    HW265632  10.321   9.835  12.048
21265SOL     OW65633   8.152   7.264   1.515
21265SOL    HW165634   8.183   7.320   1.444
21265SOL    HW265635   8.136   7.179   1.473
21266SOL     OW65636   6.371  11.178  10.115
21266SOL    HW165637   6.382  11.086  10.092
21266SOL    HW265638   6.283  11.183  10.152
21267SOL     OW65639   7.568  14.764  13.811
21267SOL    HW165640   7.614  14.848  13.818
21267SOL    HW265641   7.613  14.707  13.873
21268SOL     OW65642   0.001   9.801   3.463
21268SOL    HW165643  14.811   9.864   3.465
21268SOL    HW265644   0.059   9.828   3.535
21269SOL     OW65645  10.086  11.779  14.531
21269SOL    HW165646  10.000  11.815  14.510
21269SOL    HW265647  10.124  11.842  14.592
21270SOL     OW65648   2.808  13.809   4.229
21270SOL    HW165649   2.870  13.856   4.284
21270SOL    HW265650   2.850  13.725   4.211
21271SOL     OW65651   5.996   0.835  10.015
21271SOL    HW165652   5.934   0.892  10.062
21271SOL    HW265653   6.062   0.812  10.081
21272SOL     OW65654   3.624   8.724   8.014
21272SOL    HW165655   3.579   8.752   7.934
21272SOL    HW265656   3.554   8.701   8.075
21273SOL     OW65657   7.917   5.329  13.213
21273SOL    HW165658   7.909   5.237  13.238
21273SOL    HW265659   7.973   5.328  13.135
21274SOL     OW65660  14.696  11.917   3.311
21274SOL    HW165661  14.696  11.939   3.404
21274SOL    HW265662  14.603  11.907   3.288
21275SOL     OW65663   8.409   0.523  14.357
21275SOL    HW165664   8.446   0.598  14.404
21275SOL    HW265665   8.331   0.559  14.314
21276SOL     OW65666   8.924  14.567   2.002
21276SOL    HW165667   8.940  14.478   1.968
21276SOL    HW265668   8.927  14.623   1.924
21277SOL     OW65669   9.933   8.869   2.113
21277SOL    HW165670  10.011   8.915   2.081
21277SOL    HW265671   9.926   8.895   2.205
21278SOL     OW65672   9.204   2.045   0.219
21278SOL    HW165673   9.115   2.010   0.218
21278SOL    HW265674   9.224   2.063   0.127
21279SOL     OW65675   1.095  11.274   2.699
21279SOL    HW165676   1.111  11.280   2.605
21279SOL    HW265677   1.167  11.220   2.732
21280SOL     OW65678   5.117  14.865  11.236
21280SOL    HW165679   5.123  14.781  11.280
21280SOL    HW265680   5.180   0.039  11.281
21281SOL     OW65681   9.861  13.573   0.674
21281SOL    HW165682   9.836  13.517   0.600
21281SOL    HW265683   9.842  13.662   0.644
21282SOL     OW65684   8.401  11.660  13.691
21282SOL    HW165685   8.332  11.646  13.625
21282SOL    HW265686   8.474  11.697  13.641
21283SOL     OW65687   0.651  12.471  13.015
21283SOL    HW165688   0.571  12.435  12.978
21283SOL    HW265689   0.674  12.411  13.085
21284SOL     OW65690  11.715  10.149   0.943
21284SOL    HW165691  11.635  10.183   0.981
21284SOL    HW265692  11.783  10.210   0.970
21285SOL     OW65693  13.656   0.049   3.433
21285SOL    HW165694  13.581   0.027   3.378
21285SOL    HW265695  13.731   0.049   3.373
21286SOL     OW65696   1.114  12.528  10.525
21286SOL    HW165697   1.159  12.587  10.586
21286SOL    HW265698   1.154  12.442  10.542
21287SOL     OW65699   0.704   5.015  14.727
21287SOL    HW165700   0.685   5.066  14.648
21287SOL    HW265701   0.799   5.017  14.735
21288SOL     OW65702   2.293   0.796   8.950
21288SOL    HW165703   2.291   0.891   8.933
21288SOL    HW265704   2.202   0.770   8.955
21289SOL     OW65705   2.121   5.901   2.796
21289SOL    HW165706   2.070   5.981   2.783
21289SOL    HW265707   2.174   5.893   2.716
21290SOL     OW65708   9.729  14.146  14.344
21290SOL    HW165709   9.676  14.166  14.267
21290SOL    HW265710   9.667  14.109  14.407
21291SOL     OW65711   5.397   8.700  13.352
21291SOL    HW165712   5.351   8.663  13.428
21291SOL    HW265713   5.404   8.793  13.372
21292SOL     OW65714  13.564   0.661  12.870
21292SOL    HW165715  13.604   0.589  12.918
21292SOL    HW265716  13.470   0.644  12.877
21293SOL     OW65717  11.030   7.389   3.180
21293SOL    HW165718  10.961   7.369   3.116
21293SOL    HW265719  11.090   7.447   3.133
21294SOL     OW65720   4.676   9.544   9.857
21294SOL    HW165721   4.589   9.512   9.882
21294SOL    HW265722   4.711   9.584   9.937
21295SOL     OW65723   6.440   1.041  10.378
21295SOL    HW165724   6.394   1.025  10.296
21295SOL    HW265725   6.436   0.957  10.425
21296SOL     OW65726   9.641  10.888   4.641
21296SOL    HW165727   9.724  10.839   4.636
21296SOL    HW265728   9.600  10.858   4.722
21297SOL     OW65729   8.894  12.218  10.378
21297SOL    HW165730   8.856  12.211  10.291
21297SOL    HW265731   8.823  12.250  10.433
21298SOL     OW65732  10.948  10.614   3.483
21298SOL    HW165733  10.865  10.650   3.515
21298SOL    HW265734  10.994  10.586   3.563
21299SOL     OW65735   2.257   2.487   3.441
21299SOL    HW165736   2.342   2.517   3.407
21299SOL    HW265737   2.278   2.423   3.507
21300SOL     OW65738   3.132  13.710   6.985
21300SOL    HW165739   3.158  13.780   6.925
21300SOL    HW265740   3.043  13.734   7.012
21301SOL     OW65741   3.968  13.983   3.800
21301SOL    HW165742   3.921  13.989   3.716
21301SOL    HW265743   3.899  13.980   3.866
21302SOL     OW65744  14.107   7.577  10.659
21302SOL    HW165745  14.196   7.569  10.694
21302SOL    HW265746  14.073   7.657  10.699
21303SOL     OW65747  12.627  10.388  13.302
21303SOL    HW165748  12.549  10.344  13.336
21303SOL    HW265749  12.693  10.375  13.370
21304SOL     OW65750   7.593   8.691  12.273
21304SOL    HW165751   7.513   8.665  12.227
21304SOL    HW265752   7.661   8.633  12.238
21305SOL     OW65753  11.702   9.465   1.819
21305SOL    HW165754  11.651   9.540   1.790
21305SOL    HW265755  11.702   9.471   1.915
21306SOL     OW65756   1.922  10.692   3.387
21306SOL    HW165757   1.912  10.597   3.391
21306SOL    HW265758   1.872  10.718   3.310
21307SOL     OW65759   3.886   1.140   0.265
21307SOL    HW165760   3.878   1.048   0.241
21307SOL    HW265761   3.867   1.142   0.359
21308SOL     OW65762   6.668  11.735   1.541
21308SOL    HW165763   6.655  11.819   1.585
21308SOL    HW265764   6.744  11.749   1.485
21309SOL     OW65765   8.561   1.025   4.213
21309SOL    HW165766   8.495   1.087   4.182
21309SOL    HW265767   8.615   1.076   4.273
21310SOL     OW65768   5.898  13.748  14.256
21310SOL    HW165769   5.924  13.663  14.292
21310SOL    HW265770   5.980  13.790  14.233
21311SOL     OW65771   7.820  12.503   5.182
21311SOL    HW165772   7.814  12.582   5.129
21311SOL    HW265773   7.911  12.473   5.172
21312SOL     OW65774  12.588   7.194   1.458
21312SOL    HW165775  12.585   7.120   1.397
21312SOL    HW265776  12.532   7.166   1.531
21313SOL     OW65777   7.155   8.772  11.940
21313SOL    HW165778   7.172   8.804  11.851
21313SOL    HW265779   7.176   8.846  11.996
21314SOL     OW65780   9.434  10.795   5.922
21314SOL    HW165781   9.451  10.729   5.989
21314SOL    HW265782   9.347  10.829   5.942
21315SOL     OW65783   9.910  10.126  12.864
21315SOL    HW165784   9.824  10.149  12.828
21315SOL    HW265785   9.957  10.209  12.868
21316SOL     OW65786  13.491  11.336   7.435
21316SOL    HW165787  13.553  11.268   7.408
21316SOL    HW265788  13.546  11.410   7.459
21317SOL     OW65789   4.650   1.344   7.169
21317SOL    HW165790   4.614   1.256   7.153
21317SOL    HW265791   4.720   1.330   7.233
21318SOL     OW65792   0.328  10.065   0.616
21318SOL    HW165793   0.318  10.001   0.545
21318SOL    HW265794   0.258  10.043   0.677
21319SOL     OW65795  11.541   7.239  13.482
21319SOL    HW165796  11.601   7.217  13.410
21319SOL    HW265797  11.516   7.329  13.465
21320SOL     OW65798   0.313   8.099   7.465
21320SOL    HW165799   0.338   8.080   7.555
21320SOL    HW265800   0.236   8.045   7.449
21321SOL     OW65801   8.165   8.340  10.583
21321SOL    HW165802   8.256   8.316  10.599
21321SOL    HW265803   8.121   8.257  10.565
21322SOL     OW65804   9.178   9.158   2.798
21322SOL    HW165805   9.216   9.236   2.757
21322SOL    HW265806   9.098   9.190   2.841
21323SOL     OW65807   4.321  10.114   5.431
21323SOL    HW165808   4.330  10.097   5.525
21323SOL    HW265809   4.325  10.210   5.423
21324SOL     OW65810  13.421   1.410   5.297
21324SOL    HW165811  13.392   1.440   5.211
21324SOL    HW265812  13.400   1.317   5.299
21325SOL     OW65813   4.361   7.650   3.030
21325SOL    HW165814   4.363   7.726   3.089
21325SOL    HW265815   4.314   7.583   3.078
21326SOL     OW65816   6.997  12.885   0.851
21326SOL    HW165817   7.023  12.964   0.803
21326SOL    HW265818   6.915  12.858   0.809
21327SOL     OW65819   1.503  14.042   2.709
21327SOL    HW165820   1.547  13.996   2.638
21327SOL    HW265821   1.463  13.973   2.762
21328SOL     OW65822  13.735  13.691   0.313
21328SOL    HW165823  13.732  13.605   0.355
21328SOL    HW265824  13.643  13.719   0.308
21329SOL     OW65825  13.455  12.744   9.641
21329SOL    HW165826  13.482  12.836   9.646
21329SOL    HW265827  13.360  12.746   9.658
21330SOL     OW65828  13.404  10.072  13.147
21330SOL    HW165829  13.345  10.141  13.116
21330SOL    HW265830  13.346  10.006  13.185
21331SOL     OW65831  10.314   1.223  14.832
21331SOL    HW165832  10.308   1.155  14.764
21331SOL    HW265833  10.374   1.186   0.015
21332SOL     OW65834   5.732   2.551   3.694
21332SOL    HW165835   5.786   2.480   3.727
21332SOL    HW265836   5.733   2.540   3.599
21333SOL     OW65837   3.200   8.740   6.695
21333SOL    HW165838   3.249   8.661   6.719
21333SOL    HW265839   3.255   8.784   6.631
21334SOL     OW65840   6.652   8.570   8.338
21334SOL    HW165841   6.700   8.585   8.419
21334SOL    HW265842   6.613   8.484   8.349
21335SOL     OW65843   3.806   2.128  10.665
21335SOL    HW165844   3.870   2.070  10.624
21335SOL    HW265845   3.860   2.197  10.706
21336SOL     OW65846   6.586   7.815  12.806
21336SOL    HW165847   6.629   7.817  12.721
21336SOL    HW265848   6.587   7.906  12.836
21337SOL     OW65849   5.427   1.225   8.220
21337SOL    HW165850   5.491   1.267   8.162
21337SOL    HW265851   5.348   1.217   8.168
21338SOL     OW65852   1.965   4.039  10.949
21338SOL    HW165853   2.045   4.083  10.978
21338SOL    HW265854   1.894   4.089  10.990
21339SOL     OW65855  12.181   3.992   0.358
21339SOL    HW165856  12.153   4.050   0.429
21339SOL    HW265857  12.145   3.907   0.380
21340SOL     OW65858   7.042  11.708   3.657
21340SOL    HW165859   6.972  11.771   3.636
21340SOL    HW265860   6.996  11.635   3.698
21341SOL     OW65861   2.237  14.727   4.002
21341SOL    HW165862   2.307  14.683   4.051
21341SOL    HW265863   2.277  14.808   3.970
21342SOL     OW65864   0.486   5.464   3.523
21342SOL    HW165865   0.458   5.391   3.578
21342SOL    HW265866   0.457   5.542   3.569
21343SOL     OW65867   5.719  10.299  13.580
21343SOL    HW165868   5.771  10.229  13.539
21343SOL    HW265869   5.732  10.375  13.523
21344SOL     OW65870  14.448  12.605   9.723
21344SOL    HW165871  14.437  12.587   9.816
21344SOL    HW265872  14.523  12.552   9.696
21345SOL     OW65873   9.674  12.130   9.836
21345SOL    HW165874   9.741  12.111   9.901
21345SOL    HW265875   9.600  12.163   9.887
21346SOL     OW65876   3.430  11.574  10.163
21346SOL    HW165877   3.351  11.521  10.170
21346SOL    HW265878   3.456  11.566  10.071
21347SOL     OW65879   7.557   3.756  11.336
21347SOL    HW165880   7.510   3.838  11.326
21347SOL    HW265881   7.636   3.766  11.282
21348SOL     OW65882   0.963  10.780  12.476
21348SOL    HW165883   1.029  10.850  12.472
21348SOL    HW265884   0.919  10.793  12.559
21349SOL     OW65885   2.757   3.682   3.520
21349SOL    HW165886   2.784   3.602   3.564
21349SOL    HW265887   2.797   3.752   3.570
21350SOL     OW65888   1.673  12.535   8.442
21350SOL    HW165889   1.602  12.470   8.451
21350SOL    HW265890   1.748  12.484   8.412
21351SOL     OW65891   8.777   7.882   1.124
21351SOL    HW165892   8.845   7.918   1.180
21351SOL    HW265893   8.787   7.928   1.041
21352SOL     OW65894   9.948   6.004  11.209
21352SOL    HW165895  10.019   5.952  11.248
21352SOL    HW265896   9.978   6.094  11.217
21353SOL     OW65897  14.447   3.668   0.819
21353SOL    HW165898  14.398   3.678   0.901
21353SOL    HW265899  14.388   3.702   0.752
21354SOL     OW65900   0.199   7.854  12.676
21354SOL    HW165901   0.277   7.879  12.627
21354SOL    HW265902   0.230   7.790  12.740
21355SOL     OW65903   0.369  11.023  11.693
21355SOL    HW165904   0.305  10.969  11.647
21355SOL    HW265905   0.324  11.106  11.708
21356SOL     OW65906   5.524  12.889  12.758
21356SOL    HW165907   5.557  12.928  12.677
21356SOL    HW265908   5.518  12.963  12.819
21357SOL     OW65909   4.230   2.307   5.853
21357SOL    HW165910   4.258   2.381   5.799
21357SOL    HW265911   4.265   2.327   5.940
21358SOL     OW65912   2.832  11.970   2.979
21358SOL    HW165913   2.738  11.985   2.994
21358SOL    HW265914   2.846  11.879   3.007
21359SOL     OW65915   0.708   6.402  11.102
21359SOL    HW165916   0.680   6.427  11.014
21359SOL    HW265917   0.653   6.454  11.160
21360SOL     OW65918  11.026  10.831   7.954
21360SOL    HW165919  11.088  10.788   7.895
21360SOL    HW265920  11.016  10.771   8.027
21361SOL     OW65921  13.715   3.958   1.616
21361SOL    HW165922  13.701   4.026   1.549
21361SOL    HW265923  13.629   3.918   1.628
21362SOL     OW65924   5.549   1.688   3.849
21362SOL    HW165925   5.548   1.601   3.890
21362SOL    HW265926   5.510   1.746   3.915
21363SOL     OW65927  13.568   1.831  10.132
21363SOL    HW165928  13.575   1.870  10.044
21363SOL    HW265929  13.474   1.812  10.141
21364SOL     OW65930   0.031  10.592  14.295
21364SOL    HW165931   0.025  10.575  14.389
21364SOL    HW265932  14.845  10.657  14.278
21365SOL     OW65933   1.870  10.712   0.429
21365SOL    HW165934   1.956  10.749   0.410
21365SOL    HW265935   1.868  10.705   0.525
21366SOL     OW65936   4.802   6.360   2.442
21366SOL    HW165937   4.807   6.301   2.517
21366SOL    HW265938   4.833   6.307   2.368
21367SOL     OW65939   8.776   6.372   8.865
21367SOL    HW165940   8.797   6.306   8.932
21367SOL    HW265941   8.717   6.326   8.805
21368SOL     OW65942  12.164   6.867   9.416
21368SOL    HW165943  12.186   6.825   9.333
21368SOL    HW265944  12.209   6.814   9.482
21369SOL     OW65945   9.201  13.302   4.039
21369SOL    HW165946   9.207  13.207   4.052
21369SOL    HW265947   9.112  13.315   4.005
21370SOL     OW65948  12.557   7.331   2.356
21370SOL    HW165949  12.545   7.364   2.446
21370SOL    HW265950  12.609   7.252   2.366
21371SOL     OW65951   6.068   1.387   7.812
21371SOL    HW165952   6.014   1.460   7.842
21371SOL    HW265953   6.154   1.404   7.850
21372SOL     OW65954   3.660   2.677   1.632
21372SOL    HW165955   3.695   2.646   1.715
21372SOL    HW265956   3.734   2.672   1.571
21373SOL     OW65957   3.158   5.998  14.732
21373SOL    HW165958   3.228   5.934  14.715
21373SOL    HW265959   3.190   6.078  14.690
21374SOL     OW65960   5.218  12.014  14.061
21374SOL    HW165961   5.224  11.970  14.145
21374SOL    HW265962   5.174  12.097  14.080
21375SOL     OW65963   8.758  10.928  11.789
21375SOL    HW165964   8.674  10.941  11.833
21375SOL    HW265965   8.770  10.833  11.788
21376SOL     OW65966   2.252  11.820   5.265
21376SOL    HW165967   2.292  11.825   5.179
21376SOL    HW265968   2.211  11.734   5.268
21377SOL     OW65969  12.737   1.843   1.371
21377SOL    HW165970  12.814   1.799   1.406
21377SOL    HW265971  12.672   1.838   1.441
21378SOL     OW65972   8.672   5.307   6.188
21378SOL    HW165973   8.748   5.284   6.133
21378SOL    HW265974   8.613   5.354   6.129
21379SOL     OW65975   6.700   8.033   5.605
21379SOL    HW165976   6.644   8.036   5.527
21379SOL    HW265977   6.755   8.111   5.598
21380SOL     OW65978  13.313   0.693  10.239
21380SOL    HW165979  13.287   0.730  10.323
21380SOL    HW265980  13.256   0.736  10.175
21381SOL     OW65981  12.531   3.848   2.629
21381SOL    HW165982  12.499   3.938   2.638
21381SOL    HW265983  12.617   3.858   2.589
21382SOL     OW65984   9.602  12.885   0.015
21382SOL    HW165985   9.661  12.948   0.057
21382SOL    HW265986   9.519  12.897   0.060
21383SOL     OW65987  12.810   5.749   2.252
21383SOL    HW165988  12.840   5.838   2.268
21383SOL    HW265989  12.806   5.708   2.338
21384SOL     OW65990   0.056   1.085   1.376
21384SOL    HW165991   0.101   1.001   1.383
21384SOL    HW265992   0.124   1.151   1.390
21385SOL     OW65993   6.649   7.967   1.105
21385SOL    HW165994   6.675   8.032   1.170
21385SOL    HW265995   6.621   8.018   1.030
21386SOL     OW65996   7.194   2.827   2.569
21386SOL    HW165997   7.146   2.886   2.626
21386SOL    HW265998   7.157   2.842   2.482
21387SOL     OW65999   7.097   9.708   3.614
21387SOL    HW166000   7.171   9.732   3.669
21387SOL    HW266001   7.025   9.694   3.677
21388SOL     OW66002   6.346  13.145   7.375
21388SOL    HW166003   6.407  13.080   7.409
21388SOL    HW266004   6.278  13.152   7.443
21389SOL     OW66005   8.669   7.333   7.668
21389SOL    HW166006   8.626   7.256   7.632
21389SOL    HW266007   8.610   7.364   7.737
21390SOL     OW66008   4.337  10.369  10.059
21390SOL    HW166009   4.371  10.344  10.145
21390SOL    HW266010   4.257  10.317  10.049
21391SOL     OW66011   8.706  13.627   5.051
21391SOL    HW166012   8.630  13.667   5.094
21391SOL    HW266013   8.768  13.612   5.122
21392SOL     OW66014   1.430  11.897   4.289
21392SOL    HW166015   1.354  11.924   4.340
21392SOL    HW266016   1.505  11.915   4.346
21393SOL     OW66017   8.695   8.235  12.508
21393SOL    HW166018   8.618   8.241  12.451
21393SOL    HW266019   8.723   8.326  12.519
21394SOL     OW66020   8.361  14.286   1.372
21394SOL    HW166021   8.285  14.285   1.314
21394SOL    HW266022   8.354  14.206   1.424
21395SOL     OW66023   6.490   2.508  12.216
21395SOL    HW166024   6.585   2.516  12.204
21395SOL    HW266025   6.474   2.414  12.212
21396SOL     OW66026   2.271  13.506   9.450
21396SOL    HW166027   2.357  13.466   9.435
21396SOL    HW266028   2.253  13.555   9.370
21397SOL     OW66029   8.954   4.231  13.764
21397SOL    HW166030   9.028   4.193  13.811
21397SOL    HW266031   8.993   4.282  13.694
21398SOL     OW66032  12.988   3.227   4.535
21398SOL    HW166033  13.026   3.259   4.454
21398SOL    HW266034  13.057   3.173   4.574
21399SOL     OW66035  11.906  11.057   8.932
21399SOL    HW166036  11.877  10.966   8.925
21399SOL    HW266037  11.849  11.106   8.872
21400SOL     OW66038   2.871   5.082  11.985
21400SOL    HW166039   2.945   5.131  12.022
21400SOL    HW266040   2.853   5.125  11.901
21401SOL     OW66041   7.905   3.240   7.530
21401SOL    HW166042   7.812   3.223   7.548
21401SOL    HW266043   7.943   3.153   7.517
21402SOL     OW66044  10.640  11.767  12.155
21402SOL    HW166045  10.621  11.843  12.101
21402SOL    HW266046  10.593  11.783  12.237
21403SOL     OW66047   5.737   3.188  10.620
21403SOL    HW166048   5.782   3.262  10.579
21403SOL    HW266049   5.790   3.169  10.698
21404SOL     OW66050   7.433   1.017   2.587
21404SOL    HW166051   7.505   1.071   2.557
21404SOL    HW266052   7.469   0.967   2.660
21405SOL     OW66053   8.280  10.643  13.263
21405SOL    HW166054   8.285  10.547  13.259
21405SOL    HW266055   8.267  10.663  13.356
21406SOL     OW66056   8.726  13.794  11.475
21406SOL    HW166057   8.791  13.849  11.517
21406SOL    HW266058   8.757  13.704  11.488
21407SOL     OW66059   5.553   8.418  12.071
21407SOL    HW166060   5.502   8.353  12.119
21407SOL    HW266061   5.605   8.367  12.008
21408SOL     OW66062   6.178   0.067   0.790
21408SOL    HW166063   6.096   0.045   0.835
21408SOL    HW266064   6.244   0.067   0.859
21409SOL     OW66065   5.605  13.054   3.038
21409SOL    HW166066   5.631  13.023   3.124
21409SOL    HW266067   5.610  12.976   2.982
21410SOL     OW66068   3.882  13.593  12.048
21410SOL    HW166069   3.925  13.520  12.003
21410SOL    HW266070   3.943  13.666  12.038
21411SOL     OW66071   8.866   7.166   2.976
21411SOL    HW166072   8.959   7.151   2.991
21411SOL    HW266073   8.863   7.244   2.920
21412SOL     OW66074   9.239  12.769   3.946
21412SOL    HW166075   9.173  12.774   4.015
21412SOL    HW266076   9.190  12.778   3.865
21413SOL     OW66077   4.899   8.842   1.486
21413SOL    HW166078   4.834   8.898   1.529
21413SOL    HW266079   4.921   8.888   1.405
21414SOL     OW66080   6.902   3.575  14.438
21414SOL    HW166081   6.990   3.555  14.405
21414SOL    HW266082   6.855   3.492  14.432
21415SOL     OW66083  14.302  10.675   2.383
21415SOL    HW166084  14.275  10.754   2.335
21415SOL    HW266085  14.397  10.683   2.390
21416SOL     OW66086  14.357   7.226   0.390
21416SOL    HW166087  14.338   7.165   0.461
21416SOL    HW266088  14.279   7.280   0.383
21417SOL     OW66089   3.343   9.970  13.090
21417SOL    HW166090   3.389  10.036  13.143
21417SOL    HW266091   3.411   9.934  13.032
21418SOL     OW66092   8.437  13.011  12.189
21418SOL    HW166093   8.518  12.961  12.178
21418SOL    HW266094   8.417  13.043  12.101
21419SOL     OW66095   3.569  10.851   7.244
21419SOL    HW166096   3.654  10.811   7.222
21419SOL    HW266097   3.587  10.908   7.318
21420SOL     OW66098   5.013  13.137   8.242
21420SOL    HW166099   4.949  13.208   8.252
21420SOL    HW266100   5.039  13.116   8.332
21421SOL     OW66101  14.205  11.305   4.494
21421SOL    HW166102  14.129  11.311   4.552
21421SOL    HW266103  14.171  11.265   4.414
21422SOL     OW66104   2.648   2.249   5.079
21422SOL    HW166105   2.661   2.154   5.087
21422SOL    HW266106   2.594   2.259   5.001
21423SOL     OW66107  11.576   8.718   9.308
21423SOL    HW166108  11.505   8.751   9.253
21423SOL    HW266109  11.554   8.627   9.325
21424SOL     OW66110  11.050   0.123   3.748
21424SOL    HW166111  10.976   0.119   3.808
21424SOL    HW266112  11.060   0.215   3.727
21425SOL     OW66113   3.605   4.752   1.487
21425SOL    HW166114   3.524   4.730   1.533
21425SOL    HW266115   3.585   4.735   1.395
21426SOL     OW66116   8.856   0.985  14.536
21426SOL    HW166117   8.761   0.985  14.549
21426SOL    HW266118   8.878   1.076  14.519
21427SOL     OW66119  13.944   2.284  13.946
21427SOL    HW166120  13.880   2.341  13.988
21427SOL    HW266121  14.010   2.269  14.014
21428SOL     OW66122   4.173   8.714   1.251
21428SOL    HW166123   4.131   8.798   1.230
21428SOL    HW266124   4.230   8.695   1.177
21429SOL     OW66125   1.486   9.657  14.120
21429SOL    HW166126   1.561   9.610  14.156
21429SOL    HW266127   1.424   9.589  14.095
21430SOL     OW66128   8.013   5.005  12.540
21430SOL    HW166129   7.955   4.956  12.598
21430SOL    HW266130   8.059   4.937  12.490
21431SOL     OW66131  13.539   0.568   3.577
21431SOL    HW166132  13.550   0.484   3.532
21431SOL    HW266133  13.570   0.550   3.666
21432SOL     OW66134  12.701   4.437  10.802
21432SOL    HW166135  12.677   4.521  10.764
21432SOL    HW266136  12.667   4.440  10.891
21433SOL     OW66137  13.557   3.627  13.296
21433SOL    HW166138  13.565   3.583  13.381
21433SOL    HW266139  13.465   3.653  13.291
21434SOL     OW66140   0.070   9.190  10.928
21434SOL    HW166141   0.145   9.247  10.942
21434SOL    HW266142   0.067   9.134  11.006
21435SOL     OW66143   5.814   3.496  10.236
21435SOL    HW166144   5.770   3.437  10.174
21435SOL    HW266145   5.749   3.564  10.253
21436SOL     OW66146  10.813   0.225   5.593
21436SOL    HW166147  10.834   0.138   5.558
21436SOL    HW266148  10.731   0.212   5.640
21437SOL     OW66149  11.382  13.900   5.712
21437SOL    HW166150  11.400  13.889   5.805
21437SOL    HW266151  11.423  13.984   5.690
21438SOL     OW66152  12.214  12.791   1.061
21438SOL    HW166153  12.224  12.843   0.981
21438SOL    HW266154  12.302  12.784   1.096
21439SOL     OW66155  14.600  10.857   5.451
21439SOL    HW166156  14.645  10.812   5.523
21439SOL    HW266157  14.628  10.948   5.459
21440SOL     OW66158   7.823   9.655  11.959
21440SOL    HW166159   7.824   9.613  11.873
21440SOL    HW266160   7.730   9.656  11.984
21441SOL     OW66161  14.252   8.766   5.394
21441SOL    HW166162  14.296   8.846   5.423
21441SOL    HW266163  14.323   8.701   5.388
21442SOL     OW66164   7.273   8.984   8.701
21442SOL    HW166165   7.185   8.984   8.740
21442SOL    HW266166   7.257   8.972   8.607
21443SOL     OW66167   7.189   9.277  13.371
21443SOL    HW166168   7.275   9.280  13.412
21443SOL    HW266169   7.167   9.184  13.368
21444SOL     OW66170  12.447  14.632  13.354
21444SOL    HW166171  12.449  14.683  13.273
21444SOL    HW266172  12.357  14.642  13.386
21445SOL     OW66173   5.635  11.959  11.953
21445SOL    HW166174   5.637  11.963  12.048
21445SOL    HW266175   5.592  11.876  11.933
21446SOL     OW66176  13.456   2.166  11.648
21446SOL    HW166177  13.540   2.209  11.634
21446SOL    HW266178  13.459   2.089  11.592
21447SOL     OW66179  13.635   2.750   1.589
21447SOL    HW166180  13.589   2.759   1.673
21447SOL    HW266181  13.599   2.820   1.535
21448SOL     OW66182   4.152   4.619   3.778
21448SOL    HW166183   4.072   4.637   3.827
21448SOL    HW266184   4.130   4.643   3.688
21449SOL     OW66185   2.512   1.553   2.624
21449SOL    HW166186   2.467   1.635   2.607
21449SOL    HW266187   2.551   1.529   2.540
21450SOL     OW66188  12.461   5.019   9.768
21450SOL    HW166189  12.426   5.017   9.679
21450SOL    HW266190  12.502   4.933   9.780
21451SOL     OW66191   6.769  14.135  11.190
21451SOL    HW166192   6.816  14.176  11.118
21451SOL    HW266193   6.677  14.138  11.164
21452SOL     OW66194   7.356  11.783   9.416
21452SOL    HW166195   7.326  11.850   9.355
21452SOL    HW266196   7.451  11.795   9.420
21453SOL     OW66197   9.438   4.582   4.577
21453SOL    HW166198   9.361   4.554   4.627
21453SOL    HW266199   9.417   4.562   4.486
21454SOL     OW66200   9.573  14.427  14.464
21454SOL    HW166201   9.611  14.345  14.496
21454SOL    HW266202   9.645  14.471  14.419
21455SOL     OW66203   9.276   3.172   8.375
21455SOL    HW166204   9.249   3.260   8.398
21455SOL    HW266205   9.372   3.174   8.378
21456SOL     OW66206   9.051   3.777   3.229
21456SOL    HW166207   8.984   3.828   3.182
21456SOL    HW266208   9.134   3.815   3.201
21457SOL     OW66209   2.050   7.326   3.315
21457SOL    HW166210   1.957   7.334   3.293
21457SOL    HW266211   2.061   7.377   3.395
21458SOL     OW66212  13.718  14.616   2.392
21458SOL    HW166213  13.729  14.521   2.382
21458SOL    HW266214  13.747  14.652   2.308
21459SOL     OW66215   1.381   2.243   5.576
21459SOL    HW166216   1.365   2.245   5.481
21459SOL    HW266217   1.476   2.236   5.584
21460SOL     OW66218   8.073   0.549   7.241
21460SOL    HW166219   8.115   0.634   7.224
21460SOL    HW266220   7.986   0.558   7.202
21461SOL     OW66221   5.827   3.418   7.180
21461SOL    HW166222   5.752   3.478   7.178
21461SOL    HW266223   5.793   3.336   7.144
21462SOL     OW66224   3.857   4.766   1.813
21462SOL    HW166225   3.837   4.717   1.893
21462SOL    HW266226   3.893   4.701   1.753
21463SOL     OW66227  10.616   9.820   4.125
21463SOL    HW166228  10.582   9.731   4.116
21463SOL    HW266229  10.647   9.843   4.038
21464SOL     OW66230   0.630   5.784  14.377
21464SOL    HW166231   0.630   5.826  14.291
21464SOL    HW266232   0.571   5.710  14.368
21465SOL     OW66233   2.824   6.413   1.514
21465SOL    HW166234   2.751   6.472   1.532
21465SOL    HW266235   2.901   6.456   1.550
21466SOL     OW66236  12.969  10.121  10.572
21466SOL    HW166237  12.874  10.122  10.580
21466SOL    HW266238  12.986  10.141  10.480
21467SOL     OW66239   0.830  10.428  12.085
21467SOL    HW166240   0.843  10.464  12.172
21467SOL    HW266241   0.758  10.478  12.048
21468SOL     OW66242   3.547   7.435   5.989
21468SOL    HW166243   3.606   7.416   5.916
21468SOL    HW266244   3.534   7.530   5.985
21469SOL     OW66245  11.609   0.374  10.984
21469SOL    HW166246  11.636   0.452  10.935
21469SOL    HW266247  11.686   0.317  10.983
21470SOL     OW66248  13.862   8.967  10.895
21470SOL    HW166249  13.827   8.884  10.927
21470SOL    HW266250  13.789   9.029  10.904
21471SOL     OW66251  11.205  10.302  12.647
21471SOL    HW166252  11.231  10.344  12.729
21471SOL    HW266253  11.117  10.268  12.665
21472SOL     OW66254   4.369   6.868   0.663
21472SOL    HW166255   4.442   6.908   0.616
21472SOL    HW266256   4.348   6.789   0.614
21473SOL     OW66257   2.081   2.004  14.466
21473SOL    HW166258   2.139   1.940  14.508
21473SOL    HW266259   2.101   1.996  14.373
21474SOL     OW66260   1.500   5.896   0.973
21474SOL    HW166261   1.579   5.860   1.013
21474SOL    HW266262   1.431   5.882   1.039
21475SOL     OW66263   1.605   9.254   3.555
21475SOL    HW166264   1.604   9.159   3.544
21475SOL    HW266265   1.519   9.275   3.590
21476SOL     OW66266   3.917   1.588   2.192
21476SOL    HW166267   3.893   1.593   2.100
21476SOL    HW266268   4.010   1.567   2.192
21477SOL     OW66269   0.145  10.093   7.287
21477SOL    HW166270   0.058  10.133   7.287
21477SOL    HW266271   0.201  10.160   7.327
21478SOL     OW66272  10.818   7.073   9.085
21478SOL    HW166273  10.871   7.132   9.032
21478SOL    HW266274  10.877   7.001   9.108
21479SOL     OW66275  13.633   6.406   2.540
21479SOL    HW166276  13.595   6.335   2.488
21479SOL    HW266277  13.598   6.392   2.628
21480SOL     OW66278   6.495   4.063  12.099
21480SOL    HW166279   6.527   4.026  12.017
21480SOL    HW266280   6.402   4.079  12.084
21481SOL     OW66281   4.831   8.632   8.720
21481SOL    HW166282   4.755   8.574   8.720
21481SOL    HW266283   4.874   8.615   8.804
21482SOL     OW66284   2.244   0.422   9.047
21482SOL    HW166285   2.325   0.395   9.004
21482SOL    HW266286   2.194   0.342   9.058
21483SOL     OW66287   8.713  12.278   2.742
21483SOL    HW166288   8.717  12.373   2.751
21483SOL    HW266289   8.645  12.251   2.804
21484SOL     OW66290   9.663  13.273   6.119
21484SOL    HW166291   9.658  13.178   6.127
21484SOL    HW266292   9.642  13.306   6.206
21485SOL     OW66293   0.787  14.880  12.107
21485SOL    HW166294   0.816  14.858  12.019
21485SOL    HW266295   0.824  14.811  12.162
21486SOL     OW66296  12.533   4.011   4.615
21486SOL    HW166297  12.582   4.029   4.695
21486SOL    HW266298  12.441   4.027   4.638
21487SOL     OW66299   6.097   1.441   3.334
21487SOL    HW166300   6.077   1.522   3.288
21487SOL    HW266301   6.018   1.388   3.323
21488SOL     OW66302  11.793  14.284   3.373
21488SOL    HW166303  11.869  14.231   3.399
21488SOL    HW266304  11.777  14.342   3.447
21489SOL     OW66305   5.781   7.980  14.714
21489SOL    HW166306   5.709   7.921  14.736
21489SOL    HW266307   5.739   8.064  14.695
21490SOL     OW66308   9.033  13.838   4.496
21490SOL    HW166309   9.057  13.886   4.576
21490SOL    HW266310   9.115  13.830   4.448
21491SOL     OW66311   1.474   7.940  12.188
21491SOL    HW166312   1.493   7.948  12.282
21491SOL    HW266313   1.551   7.979  12.145
21492SOL     OW66314   3.393  14.282  10.279
21492SOL    HW166315   3.314  14.240  10.245
21492SOL    HW266316   3.427  14.333  10.205
21493SOL     OW66317   7.063   6.279  12.017
21493SOL    HW166318   7.088   6.363  12.054
21493SOL    HW266319   6.967   6.285  12.007
21494SOL     OW66320   1.783   3.233   1.075
21494SOL    HW166321   1.762   3.285   0.998
21494SOL    HW266322   1.833   3.158   1.042
21495SOL     OW66323   3.115  13.156   0.521
21495SOL    HW166324   3.073  13.205   0.451
21495SOL    HW266325   3.209  13.170   0.508
21496SOL     OW66326   3.068   6.152   9.455
21496SOL    HW166327   3.053   6.173   9.363
21496SOL    HW266328   3.058   6.057   9.460
21497SOL     OW66329  10.715  13.023   0.499
21497SOL    HW166330  10.795  12.985   0.535
21497SOL    HW266331  10.733  13.117   0.498
21498SOL     OW66332   3.761   5.091  11.287
21498SOL    HW166333   3.680   5.120  11.245
21498SOL    HW266334   3.793   5.168  11.334
21499SOL     OW66335  10.959  12.798  13.668
21499SOL    HW166336  11.033  12.740  13.649
21499SOL    HW266337  10.928  12.769  13.754
21500SOL     OW66338   9.499  10.806  12.330
21500SOL    HW166339   9.505  10.833  12.238
21500SOL    HW266340   9.421  10.851  12.362
21501SOL     OW66341   2.263   8.449  12.070
21501SOL    HW166342   2.346   8.402  12.059
21501SOL    HW266343   2.274   8.530  12.020
21502SOL     OW66344  13.799   6.068   2.006
21502SOL    HW166345  13.737   6.036   1.940
21502SOL    HW266346  13.864   6.118   1.956
21503SOL     OW66347   4.997  12.657   8.996
21503SOL    HW166348   4.985  12.749   9.021
21503SOL    HW266349   4.990  12.609   9.078
21504SOL     OW66350   9.430   3.921   0.117
21504SOL    HW166351   9.461   3.902   0.206
21504SOL    HW266352   9.508   3.914   0.063
21505SOL     OW66353  12.560  10.452   3.334
21505SOL    HW166354  12.571  10.449   3.429
21505SOL    HW266355  12.604  10.373   3.302
21506SOL     OW66356  10.764   8.342  10.066
21506SOL    HW166357  10.717   8.285  10.127
21506SOL    HW266358  10.700   8.410  10.043
21507SOL     OW66359   2.745   2.641   5.896
21507SOL    HW166360   2.686   2.581   5.851
21507SOL    HW266361   2.831   2.624   5.855
21508SOL     OW66362   7.256  11.533  10.940
21508SOL    HW166363   7.197  11.599  10.978
21508SOL    HW266364   7.222  11.519  10.852
21509SOL     OW66365   0.985   5.510   3.585
21509SOL    HW166366   0.922   5.509   3.513
21509SOL    HW266367   1.010   5.418   3.596
21510SOL     OW66368   5.685   7.089   9.707
21510SOL    HW166369   5.673   7.040   9.625
21510SOL    HW266370   5.771   7.062   9.739
21511SOL     OW66371   8.292   4.298   4.836
21511SOL    HW166372   8.231   4.366   4.867
21511SOL    HW266373   8.238   4.241   4.781
21512SOL     OW66374   9.515   8.002   2.637
21512SOL    HW166375   9.583   8.067   2.618
21512SOL    HW266376   9.443   8.053   2.675
21513SOL     OW66377   4.410   0.147  14.252
21513SOL    HW166378   4.474   0.075  14.248
21513SOL    HW266379   4.437   0.199  14.327
21514SOL     OW66380   0.032   4.100   8.374
21514SOL    HW166381  14.849   4.128   8.439
21514SOL    HW266382   0.076   4.025   8.415
21515SOL     OW66383   5.495  11.385   8.050
21515SOL    HW166384   5.474  11.311   7.993
21515SOL    HW266385   5.488  11.349   8.139
21516SOL     OW66386   1.868   8.730   8.859
21516SOL    HW166387   1.890   8.728   8.766
21516SOL    HW266388   1.936   8.677   8.901
21517SOL     OW66389   3.682   9.189  13.968
21517SOL    HW166390   3.696   9.162  14.059
21517SOL    HW266391   3.769   9.214  13.937
21518SOL     OW66392   8.458  13.849   3.888
21518SOL    HW166393   8.380  13.795   3.875
21518SOL    HW266394   8.527  13.786   3.908
21519SOL     OW66395  12.466  10.250  13.937
21519SOL    HW166396  12.539  10.300  13.973
21519SOL    HW266397  12.472  10.263  13.842
21520SOL     OW66398  12.717   5.554   6.836
21520SOL    HW166399  12.795   5.583   6.789
21520SOL    HW266400  12.702   5.465   6.804
21521SOL     OW66401   8.643   8.061   9.678
21521SOL    HW166402   8.589   8.024   9.748
21521SOL    HW266403   8.733   8.042   9.705
21522SOL     OW66404   4.445   2.902   9.379
21522SOL    HW166405   4.512   2.848   9.339
21522SOL    HW266406   4.481   2.990   9.378
21523SOL     OW66407   5.333   1.918   3.564
21523SOL    HW166408   5.263   1.955   3.510
21523SOL    HW266409   5.295   1.915   3.652
21524SOL     OW66410  14.314   4.330   4.648
21524SOL    HW166411  14.228   4.371   4.661
21524SOL    HW266412  14.350   4.322   4.737
21525SOL     OW66413  12.693   9.246  12.799
21525SOL    HW166414  12.602   9.215  12.808
21525SOL    HW266415  12.696   9.326  12.853
21526SOL     OW66416   2.310   1.473   4.368
21526SOL    HW166417   2.292   1.567   4.367
21526SOL    HW266418   2.310   1.447   4.276
21527SOL     OW66419  12.566   3.110  10.028
21527SOL    HW166420  12.544   3.035   9.973
21527SOL    HW266421  12.658   3.099  10.049
21528SOL     OW66422   9.323   5.082   9.255
21528SOL    HW166423   9.362   5.162   9.290
21528SOL    HW266424   9.397   5.025   9.237
21529SOL     OW66425   8.168  12.415   0.656
21529SOL    HW166426   8.249  12.450   0.693
21529SOL    HW266427   8.152  12.469   0.579
21530SOL     OW66428   4.570   6.105  10.247
21530SOL    HW166429   4.497   6.135  10.301
21530SOL    HW266430   4.606   6.029  10.294
21531SOL     OW66431   0.536   1.805   0.907
21531SOL    HW166432   0.465   1.869   0.903
21531SOL    HW266433   0.496   1.727   0.945
21532SOL     OW66434  11.573   8.584   1.383
21532SOL    HW166435  11.662   8.547   1.389
21532SOL    HW266436  11.567   8.618   1.294
21533SOL     OW66437  12.111  11.558   6.289
21533SOL    HW166438  12.148  11.601   6.212
21533SOL    HW266439  12.099  11.467   6.262
21534SOL     OW66440   0.042   3.112  11.508
21534SOL    HW166441   0.072   3.127  11.418
21534SOL    HW266442   0.040   3.017  11.517
21535SOL     OW66443   9.284  12.650   4.562
21535SOL    HW166444   9.286  12.697   4.478
21535SOL    HW266445   9.205  12.596   4.558
21536SOL     OW66446  10.442  10.025   0.503
21536SOL    HW166447  10.436  10.099   0.443
21536SOL    HW266448  10.485   9.956   0.452
21537SOL     OW66449   9.885   7.923  10.055
21537SOL    HW166450   9.852   7.920   9.966
21537SOL    HW266451   9.821   7.873  10.107
21538SOL     OW66452   5.329   6.726   5.589
21538SOL    HW166453   5.292   6.814   5.596
21538SOL    HW266454   5.279   6.674   5.653
21539SOL     OW66455  12.307  12.914   1.743
21539SOL    HW166456  12.329  13.005   1.722
21539SOL    HW266457  12.341  12.901   1.831
21540SOL     OW66458   5.183  10.151  10.266
21540SOL    HW166459   5.092  10.179  10.258
21540SOL    HW266460   5.205  10.114  10.181
21541SOL     OW66461   2.735   8.884   0.429
21541SOL    HW166462   2.748   8.805   0.377
21541SOL    HW266463   2.730   8.954   0.364
21542SOL     OW66464   8.202  10.822   5.967
21542SOL    HW166465   8.189  10.734   5.932
21542SOL    HW266466   8.271  10.812   6.033
21543SOL     OW66467   6.079   5.140  12.755
21543SOL    HW166468   6.082   5.173  12.845
21543SOL    HW266469   6.037   5.211  12.705
21544SOL     OW66470   5.916  10.645  10.217
21544SOL    HW166471   5.914  10.612  10.127
21544SOL    HW266472   5.897  10.568  10.271
21545SOL     OW66473   8.678  11.432  10.577
21545SOL    HW166474   8.645  11.522  10.574
21545SOL    HW266475   8.647  11.392  10.496
21546SOL     OW66476   1.731   8.651  13.005
21546SOL    HW166477   1.732   8.605  12.921
21546SOL    HW266478   1.824   8.657  13.030
21547SOL     OW66479  11.334   4.193  12.986
21547SOL    HW166480  11.274   4.254  12.942
21547SOL    HW266481  11.340   4.118  12.927
21548SOL     OW66482   0.613   7.684   9.280
21548SOL    HW166483   0.678   7.704   9.212
21548SOL    HW266484   0.562   7.764   9.289
21549SOL     OW66485   7.940  11.747  14.876
21549SOL    HW166486   8.017  11.767   0.047
21549SOL    HW266487   7.867  11.750   0.056
21550SOL     OW66488  14.029  10.644  11.616
21550SOL    HW166489  13.987  10.642  11.702
21550SOL    HW266490  14.105  10.702  11.628
21551SOL     OW66491   6.059  13.077  14.601
21551SOL    HW166492   5.996  13.149  14.601
21551SOL    HW266493   6.121  13.099  14.532
21552SOL     OW66494   0.931  10.268   2.183
21552SOL    HW166495   1.018  10.253   2.218
21552SOL    HW266496   0.876  10.282   2.260
21553SOL     OW66497  13.871  11.840  12.902
21553SOL    HW166498  13.820  11.834  12.983
21553SOL    HW266499  13.807  11.867  12.836
21554SOL     OW66500   4.204  10.673  10.980
21554SOL    HW166501   4.277  10.645  11.036
21554SOL    HW266502   4.227  10.641  10.893
21555SOL     OW66503  10.834   3.071   9.536
21555SOL    HW166504  10.891   3.030   9.471
21555SOL    HW266505  10.894   3.099   9.606
21556SOL     OW66506   9.174   9.199   5.331
21556SOL    HW166507   9.084   9.168   5.327
21556SOL    HW266508   9.168   9.293   5.314
21557SOL     OW66509   6.464   9.976   4.439
21557SOL    HW166510   6.478   9.897   4.387
21557SOL    HW266511   6.410  10.032   4.383
21558SOL     OW66512  13.387  10.734   4.073
21558SOL    HW166513  13.422  10.762   3.988
21558SOL    HW266514  13.465  10.716   4.126
21559SOL     OW66515   7.411   7.587   2.596
21559SOL    HW166516   7.375   7.591   2.507
21559SOL    HW266517   7.356   7.522   2.641
21560SOL     OW66518   9.917  12.665   8.164
21560SOL    HW166519   9.882  12.622   8.242
21560SOL    HW266520   9.851  12.730   8.141
21561SOL     OW66521  10.015   7.103  11.603
21561SOL    HW166522   9.954   7.080  11.534
21561SOL    HW266523   9.960   7.131  11.676
21562SOL     OW66524  13.249  11.760   5.024
21562SOL    HW166525  13.291  11.796   5.101
21562SOL    HW266526  13.265  11.824   4.955
21563SOL     OW66527   8.583  10.243  11.110
21563SOL    HW166528   8.625  10.185  11.174
21563SOL    HW266529   8.651  10.307  11.087
21564SOL     OW66530  13.523   5.321   6.888
21564SOL    HW166531  13.448   5.281   6.932
21564SOL    HW266532  13.585   5.249   6.877
21565SOL     OW66533  14.517   0.292   2.904
21565SOL    HW166534  14.596   0.343   2.886
21565SOL    HW266535  14.532   0.208   2.862
21566SOL     OW66536  12.060   7.176   9.651
21566SOL    HW166537  11.968   7.198   9.635
21566SOL    HW266538  12.107   7.215   9.577
21567SOL     OW66539   7.443   2.622   1.989
21567SOL    HW166540   7.355   2.584   1.985
21567SOL    HW266541   7.465   2.620   2.082
21568SOL     OW66542  11.236  13.374   2.298
21568SOL    HW166543  11.325  13.339   2.307
21568SOL    HW266544  11.199  13.368   2.386
21569SOL     OW66545   4.998   6.906   2.280
21569SOL    HW166546   4.995   7.001   2.264
21569SOL    HW266547   4.907   6.878   2.266
21570SOL     OW66548  12.874   0.048   3.638
21570SOL    HW166549  12.860  14.858   3.700
21570SOL    HW266550  12.811   0.032   3.568
21571SOL     OW66551   9.658  10.296  10.235
21571SOL    HW166552   9.751  10.317  10.248
21571SOL    HW266553   9.656  10.251  10.151
21572SOL     OW66554   8.471   6.618  11.566
21572SOL    HW166555   8.485   6.524  11.574
21572SOL    HW266556   8.417   6.641  11.642
21573SOL     OW66557   5.495   3.301   7.909
21573SOL    HW166558   5.553   3.371   7.878
21573SOL    HW266559   5.536   3.220   7.880
21574SOL     OW66560   1.830   9.340  13.723
21574SOL    HW166561   1.741   9.332  13.756
21574SOL    HW266562   1.870   9.409  13.776
21575SOL     OW66563   6.318  10.566   0.596
21575SOL    HW166564   6.313  10.471   0.585
21575SOL    HW266565   6.261  10.585   0.670
21576SOL     OW66566   0.471   3.990   9.184
21576SOL    HW166567   0.433   3.938   9.254
21576SOL    HW266568   0.407   4.060   9.169
21577SOL     OW66569   5.165   0.292   4.499
21577SOL    HW166570   5.169   0.318   4.591
21577SOL    HW266571   5.087   0.236   4.493
21578SOL     OW66572   5.495   9.347   2.142
21578SOL    HW166573   5.428   9.364   2.209
21578SOL    HW266574   5.449   9.296   2.075
21579SOL     OW66575  11.822  14.273   2.710
21579SOL    HW166576  11.812  14.186   2.672
21579SOL    HW266577  11.916  14.291   2.706
21580SOL     OW66578   8.547   9.277   4.780
21580SOL    HW166579   8.541   9.364   4.819
21580SOL    HW266580   8.456   9.251   4.766
21581SOL     OW66581  12.330   8.393  13.226
21581SOL    HW166582  12.336   8.304  13.259
21581SOL    HW266583  12.349   8.386  13.132
21582SOL     OW66584   0.431   1.614  11.940
21582SOL    HW166585   0.428   1.651  11.852
21582SOL    HW266586   0.508   1.653  11.980
21583SOL     OW66587   0.614   5.923  14.143
21583SOL    HW166588   0.647   6.004  14.183
21583SOL    HW266589   0.660   5.918  14.059
21584SOL     OW66590   7.188  11.622   8.313
21584SOL    HW166591   7.144  11.538   8.303
21584SOL    HW266592   7.257  11.621   8.246
21585SOL     OW66593   8.027   6.784   1.253
21585SOL    HW166594   8.043   6.856   1.193
21585SOL    HW266595   8.098   6.722   1.236
21586SOL     OW66596   9.186   2.762   5.082
21586SOL    HW166597   9.223   2.763   4.994
21586SOL    HW266598   9.218   2.843   5.122
21587SOL     OW66599  11.300  12.090   9.036
21587SOL    HW166600  11.342  12.158   8.983
21587SOL    HW266601  11.275  12.134   9.117
21588SOL     OW66602   9.251  14.095   2.334
21588SOL    HW166603   9.306  14.135   2.267
21588SOL    HW266604   9.292  14.010   2.352
21589SOL     OW66605  13.496   8.372   8.788
21589SOL    HW166606  13.552   8.300   8.817
21589SOL    HW266607  13.444   8.394   8.866
21590SOL     OW66608   7.842   2.072   1.036
21590SOL    HW166609   7.904   2.117   1.093
21590SOL    HW266610   7.870   2.095   0.948
21591SOL     OW66611   0.387  14.336  12.807
21591SOL    HW166612   0.367  14.271  12.740
21591SOL    HW266613   0.424  14.410  12.759
21592SOL     OW66614  13.220   1.746   8.429
21592SOL    HW166615  13.241   1.762   8.336
21592SOL    HW266616  13.175   1.662   8.429
21593SOL     OW66617   4.917   7.311   5.308
21593SOL    HW166618   4.865   7.377   5.353
21593SOL    HW266619   5.007   7.342   5.316
21594SOL     OW66620  12.864  13.684   9.296
21594SOL    HW166621  12.900  13.707   9.210
21594SOL    HW266622  12.908  13.743   9.357
21595SOL     OW66623   8.372   1.905   4.604
21595SOL    HW166624   8.355   1.816   4.571
21595SOL    HW266625   8.296   1.925   4.657
21596SOL     OW66626   5.899   5.336  12.562
21596SOL    HW166627   5.911   5.268  12.496
21596SOL    HW266628   5.846   5.403  12.518
21597SOL     OW66629   0.675   4.342  11.851
21597SOL    HW166630   0.690   4.250  11.871
21597SOL    HW266631   0.755   4.371  11.807
21598SOL     OW66632  14.809  14.657  13.377
21598SOL    HW166633  14.761  14.714  13.437
21598SOL    HW266634  14.830  14.579  13.429
21599SOL     OW66635   2.733   0.618   8.518
21599SOL    HW166636   2.813   0.664   8.490
21599SOL    HW266637   2.728   0.634   8.612
21600SOL     OW66638  11.644  14.673  14.365
21600SOL    HW166639  11.638  14.698  14.272
21600SOL    HW266640  11.729  14.630  14.373
21601SOL     OW66641   5.023   8.632   3.208
21601SOL    HW166642   4.954   8.651   3.272
21601SOL    HW266643   5.097   8.601   3.261
21602SOL     OW66644   4.864   3.672   2.112
21602SOL    HW166645   4.780   3.654   2.069
21602SOL    HW266646   4.841   3.681   2.205
21603SOL     OW66647   9.124   7.013   4.436
21603SOL    HW166648   9.070   6.983   4.508
21603SOL    HW266649   9.147   6.933   4.388
21604SOL     OW66650   2.577  12.665  12.619
21604SOL    HW166651   2.592  12.571  12.617
21604SOL    HW266652   2.483  12.675  12.601
21605SOL     OW66653   1.114  12.215  10.274
21605SOL    HW166654   1.145  12.252  10.357
21605SOL    HW266655   1.067  12.286  10.231
21606SOL     OW66656  13.698   6.133   8.901
21606SOL    HW166657  13.662   6.208   8.853
21606SOL    HW266658  13.761   6.094   8.841
21607SOL     OW66659   7.806   2.565  13.372
21607SOL    HW166660   7.724   2.615  13.369
21607SOL    HW266661   7.852   2.598  13.450
21608SOL     OW66662   5.148   1.156   6.833
21608SOL    HW166663   5.209   1.106   6.778
21608SOL    HW266664   5.135   1.101   6.910
21609SOL     OW66665   6.000  11.494   4.779
21609SOL    HW166666   6.013  11.430   4.849
21609SOL    HW266667   6.024  11.578   4.818
21610SOL     OW66668   0.551   0.962  10.304
21610SOL    HW166669   0.487   0.890  10.295
21610SOL    HW266670   0.636   0.919  10.300
21611SOL     OW66671   6.789   7.783   5.136
21611SOL    HW166672   6.874   7.816   5.165
21611SOL    HW266673   6.730   7.802   5.209
21612SOL     OW66674   3.356  11.446   6.262
21612SOL    HW166675   3.297  11.375   6.238
21612SOL    HW266676   3.418  11.406   6.324
21613SOL     OW66677   1.656   9.612  12.662
21613SOL    HW166678   1.739   9.634  12.703
21613SOL    HW266679   1.596   9.597  12.735
21614SOL     OW66680   4.892   6.317   1.439
21614SOL    HW166681   4.958   6.267   1.487
21614SOL    HW266682   4.850   6.372   1.505
21615SOL     OW66683  13.679   4.899   2.078
21615SOL    HW166684  13.771   4.873   2.085
21615SOL    HW266685  13.656   4.928   2.167
21616SOL     OW66686   7.195  13.692  13.375
21616SOL    HW166687   7.245  13.656  13.302
21616SOL    HW266688   7.105  13.696  13.344
21617SOL     OW66689  14.641  13.228   7.603
21617SOL    HW166690  14.588  13.184   7.537
21617SOL    HW266691  14.580  13.249   7.673
21618SOL     OW66692   3.397   2.865   9.792
21618SOL    HW166693   3.461   2.907   9.735
21618SOL    HW266694   3.443   2.855   9.876
21619SOL     OW66695   9.096   8.363   6.393
21619SOL    HW166696   9.144   8.288   6.358
21619SOL    HW266697   9.019   8.324   6.436
21620SOL     OW66698   3.969   0.563  10.670
21620SOL    HW166699   4.061   0.565  10.643
21620SOL    HW266700   3.965   0.622  10.745
21621SOL     OW66701   3.603  10.723   5.985
21621SOL    HW166702   3.576  10.778   6.058
21621SOL    HW266703   3.695  10.704   6.001
21622SOL     OW66704   5.219   3.231   7.602
21622SOL    HW166705   5.174   3.149   7.622
21622SOL    HW266706   5.232   3.272   7.688
21623SOL     OW66707   6.717  11.325  11.769
21623SOL    HW166708   6.706  11.384  11.844
21623SOL    HW266709   6.710  11.237  11.807
21624SOL     OW66710   2.636  12.595   9.902
21624SOL    HW166711   2.718  12.595   9.951
21624SOL    HW266712   2.655  12.646   9.823
21625SOL     OW66713   6.670   0.839   7.568
21625SOL    HW166714   6.740   0.791   7.524
21625SOL    HW266715   6.596   0.834   7.509
21626SOL     OW66716   9.527  14.367  10.153
21626SOL    HW166717   9.552  14.373  10.245
21626SOL    HW266718   9.485  14.451  10.133
21627SOL     OW66719   4.955  12.263   7.972
21627SOL    HW166720   4.972  12.184   7.920
21627SOL    HW266721   4.947  12.333   7.908
21628SOL     OW66722   0.620   4.518   0.712
21628SOL    HW166723   0.585   4.557   0.632
21628SOL    HW266724   0.628   4.591   0.773
21629SOL     OW66725  12.037  12.849  12.180
21629SOL    HW166726  12.061  12.937  12.151
21629SOL    HW266727  12.014  12.802  12.099
21630SOL     OW66728  13.312   6.297   8.704
21630SOL    HW166729  13.377   6.273   8.639
21630SOL    HW266730  13.296   6.390   8.689
21631SOL     OW66731   0.190   3.689   7.703
21631SOL    HW166732   0.118   3.689   7.640
21631SOL    HW266733   0.266   3.719   7.653
21632SOL     OW66734  12.194  10.900   9.328
21632SOL    HW166735  12.209  10.989   9.296
21632SOL    HW266736  12.240  10.897   9.412
21633SOL     OW66737  10.469  10.764   3.091
21633SOL    HW166738  10.386  10.785   3.133
21633SOL    HW266739  10.478  10.829   3.022
21634SOL     OW66740  10.028   4.141   6.715
21634SOL    HW166741  10.032   4.071   6.650
21634SOL    HW266742  10.041   4.097   6.799
21635SOL     OW66743  10.763  14.089  12.193
21635SOL    HW166744  10.805  14.003  12.191
21635SOL    HW266745  10.836  14.151  12.186
21636SOL     OW66746   7.032   4.758   5.197
21636SOL    HW166747   6.947   4.791   5.167
21636SOL    HW266748   7.064   4.706   5.123
21637SOL     OW66749   6.047  10.733   0.439
21637SOL    HW166750   6.068  10.823   0.415
21637SOL    HW266751   6.046  10.733   0.535
21638SOL     OW66752   6.268   6.859   6.616
21638SOL    HW166753   6.225   6.774   6.601
21638SOL    HW266754   6.313   6.848   6.699
21639SOL     OW66755   9.944  14.210  11.254
21639SOL    HW166756   9.945  14.202  11.349
21639SOL    HW266757  10.031  14.183  11.226
21640SOL     OW66758   1.801   2.454   9.128
21640SOL    HW166759   1.820   2.459   9.034
21640SOL    HW266760   1.709   2.480   9.135
21641SOL     OW66761   9.271  12.992   0.917
21641SOL    HW166762   9.238  12.958   0.834
21641SOL    HW266763   9.352  13.038   0.893
21642SOL     OW66764   2.149   8.612   3.948
21642SOL    HW166765   2.195   8.540   3.905
21642SOL    HW266766   2.083   8.569   4.002
21643SOL     OW66767  11.062   7.098   3.247
21643SOL    HW166768  11.037   7.188   3.227
21643SOL    HW266769  11.002   7.044   3.196
21644SOL     OW66770  11.101   8.143   1.710
21644SOL    HW166771  11.087   8.167   1.618
21644SOL    HW266772  11.186   8.180   1.732
21645SOL     OW66773   7.344   2.401   8.308
21645SOL    HW166774   7.415   2.357   8.263
21645SOL    HW266775   7.333   2.352   8.390
21646SOL     OW66776  12.956   3.134   1.071
21646SOL    HW166777  12.969   3.040   1.059
21646SOL    HW266778  13.044   3.171   1.071
21647SOL     OW66779   4.595  10.778   0.722
21647SOL    HW166780   4.580  10.836   0.647
21647SOL    HW266781   4.659  10.825   0.776
21648SOL     OW66782  13.167   2.928   1.814
21648SOL    HW166783  13.129   2.854   1.766
21648SOL    HW266784  13.192   2.991   1.747
21649SOL     OW66785  13.026  11.388   5.634
21649SOL    HW166786  12.975  11.414   5.710
21649SOL    HW266787  12.996  11.447   5.564
21650SOL     OW66788   9.270   3.339   4.235
21650SOL    HW166789   9.350   3.329   4.287
21650SOL    HW266790   9.285   3.287   4.156
21651SOL     OW66791   0.648   3.906   9.012
21651SOL    HW166792   0.612   3.821   9.038
21651SOL    HW266793   0.597   3.969   9.064
21652SOL     OW66794   9.467  13.635   5.206
21652SOL    HW166795   9.554  13.622   5.168
21652SOL    HW266796   9.452  13.729   5.200
21653SOL     OW66797  12.491   8.344  14.570
21653SOL    HW166798  12.431   8.298  14.511
21653SOL    HW266799  12.464   8.435  14.565
21654SOL     OW66800   3.693   3.284   0.964
21654SOL    HW166801   3.688   3.251   1.054
21654SOL    HW266802   3.698   3.205   0.911
21655SOL     OW66803   6.923   3.774  14.674
21655SOL    HW166804   6.930   3.736  14.586
21655SOL    HW266805   6.835   3.813  14.676
21656SOL     OW66806   2.261   8.165   6.399
21656SOL    HW166807   2.246   8.178   6.493
21656SOL    HW266808   2.323   8.233   6.375
21657SOL     OW66809  13.326   2.922   8.677
21657SOL    HW166810  13.326   2.973   8.596
21657SOL    HW266811  13.408   2.944   8.720
21658SOL     OW66812   3.269  11.251   8.620
21658SOL    HW166813   3.341  11.304   8.585
21658SOL    HW266814   3.202  11.315   8.645
21659SOL     OW66815   6.726   9.550  12.625
21659SOL    HW166816   6.778   9.480  12.585
21659SOL    HW266817   6.693   9.600  12.551
21660SOL     OW66818   4.418   9.026   7.867
21660SOL    HW166819   4.511   9.022   7.888
21660SOL    HW266820   4.375   8.974   7.934
21661SOL     OW66821   0.312   7.145   4.939
21661SOL    HW166822   0.241   7.185   4.889
21661SOL    HW266823   0.391   7.170   4.892
21662SOL     OW66824   1.869  12.433   4.442
21662SOL    HW166825   1.836  12.506   4.493
21662SOL    HW266826   1.944  12.400   4.493
21663SOL     OW66827   6.261   5.494   3.252
21663SOL    HW166828   6.266   5.402   3.279
21663SOL    HW266829   6.174   5.503   3.213
21664SOL     OW66830   7.072   5.865  12.621
21664SOL    HW166831   7.021   5.811  12.681
21664SOL    HW266832   7.128   5.918  12.678
21665SOL     OW66833   9.005  13.268  14.160
21665SOL    HW166834   8.941  13.250  14.092
21665SOL    HW266835   8.969  13.342  14.208
21666SOL     OW66836   9.739   6.635   7.617
21666SOL    HW166837   9.726   6.648   7.523
21666SOL    HW266838   9.803   6.563   7.623
21667SOL     OW66839   5.117   3.227   6.926
21667SOL    HW166840   5.038   3.238   6.980
21667SOL    HW266841   5.188   3.224   6.990
21668SOL     OW66842  10.557   0.515   6.560
21668SOL    HW166843  10.593   0.472   6.638
21668SOL    HW266844  10.631   0.523   6.500
21669SOL     OW66845  10.774   7.049   0.087
21669SOL    HW166846  10.863   7.025   0.113
21669SOL    HW266847  10.787   7.105   0.010
21670SOL     OW66848   3.647   8.708   5.952
21670SOL    HW166849   3.707   8.781   5.970
21670SOL    HW266850   3.587   8.708   6.027
21671SOL     OW66851   0.076  14.823   5.208
21671SOL    HW166852   0.044  14.744   5.165
21671SOL    HW266853   0.028  14.827   5.291
21672SOL     OW66854   2.425  10.261   1.482
21672SOL    HW166855   2.403  10.351   1.502
21672SOL    HW266856   2.456  10.224   1.564
21673SOL     OW66857  10.408  10.451  10.232
21673SOL    HW166858  10.447  10.372  10.196
21673SOL    HW266859  10.447  10.459  10.319
21674SOL     OW66860  10.146   2.598   6.379
21674SOL    HW166861  10.143   2.683   6.424
21674SOL    HW266862  10.193   2.615   6.298
21675SOL     OW66863   1.236   5.436   1.567
21675SOL    HW166864   1.317   5.395   1.598
21675SOL    HW266865   1.195   5.370   1.512
21676SOL     OW66866  14.833   3.504  14.007
21676SOL    HW166867  14.829   3.572  13.940
21676SOL    HW266868   0.031   3.524  14.057
21677SOL     OW66869   1.780   4.472  11.501
21677SOL    HW166870   1.828   4.509  11.575
21677SOL    HW266871   1.751   4.548  11.450
21678SOL     OW66872  11.457   6.293  10.235
21678SOL    HW166873  11.407   6.328  10.162
21678SOL    HW266874  11.405   6.314  10.313
21679SOL     OW66875   3.762   7.038   6.127
21679SOL    HW166876   3.741   7.090   6.050
21679SOL    HW266877   3.684   7.045   6.182
21680SOL     OW66878   8.113   8.884   6.546
21680SOL    HW166879   8.103   8.924   6.633
21680SOL    HW266880   8.026   8.849   6.526
21681SOL     OW66881   2.446   2.534   5.602
21681SOL    HW166882   2.403   2.450   5.584
21681SOL    HW266883   2.526   2.510   5.649
21682SOL     OW66884   7.413   6.229   0.335
21682SOL    HW166885   7.370   6.273   0.408
21682SOL    HW266886   7.380   6.139   0.339
21683SOL     OW66887   1.362  13.164   5.267
21683SOL    HW166888   1.449  13.127   5.250
21683SOL    HW266889   1.367  13.195   5.357
21684SOL     OW66890   3.048   6.247   5.089
21684SOL    HW166891   3.088   6.230   5.174
21684SOL    HW266892   2.999   6.167   5.069
21685SOL     OW66893  13.448  14.446   4.927
21685SOL    HW166894  13.472  14.480   5.013
21685SOL    HW266895  13.439  14.525   4.873
21686SOL     OW66896   1.816   9.672  14.240
21686SOL    HW166897   1.742   9.637  14.289
21686SOL    HW266898   1.884   9.605  14.248
21687SOL     OW66899   4.086   1.165  12.820
21687SOL    HW166900   4.009   1.109  12.814
21687SOL    HW266901   4.160   1.105  12.823
21688SOL     OW66902   0.239   9.154  10.423
21688SOL    HW166903   0.194   9.130  10.504
21688SOL    HW266904   0.267   9.244  10.437
21689SOL     OW66905   1.235  12.502   0.771
21689SOL    HW166906   1.237  12.565   0.699
21689SOL    HW266907   1.327  12.490   0.795
21690SOL     OW66908   7.515  11.092   9.149
21690SOL    HW166909   7.527  11.187   9.146
21690SOL    HW266910   7.481  11.074   9.237
21691SOL     OW66911   2.202   4.677   7.859
21691SOL    HW166912   2.194   4.582   7.868
21691SOL    HW266913   2.137   4.712   7.920
21692SOL     OW66914   3.764  14.124   6.799
21692SOL    HW166915   3.819  14.198   6.774
21692SOL    HW266916   3.705  14.111   6.725
21693SOL     OW66917  13.916   0.033   8.808
21693SOL    HW166918  13.911   0.044   8.903
21693SOL    HW266919  14.010   0.031   8.789
21694SOL     OW66920   9.253   2.852   5.490
21694SOL    HW166921   9.166   2.835   5.453
21694SOL    HW266922   9.312   2.793   5.443
21695SOL     OW66923   8.643   7.013   9.147
21695SOL    HW166924   8.669   7.064   9.071
21695SOL    HW266925   8.563   7.055   9.179
21696SOL     OW66926   4.527  12.566   4.436
21696SOL    HW166927   4.444  12.544   4.479
21696SOL    HW266928   4.526  12.661   4.429
21697SOL     OW66929   5.681   1.902  12.634
21697SOL    HW166930   5.659   1.894  12.542
21697SOL    HW266931   5.767   1.860  12.642
21698SOL     OW66932   3.561  12.670   7.318
21698SOL    HW166933   3.497  12.632   7.378
21698SOL    HW266934   3.513  12.680   7.236
21699SOL     OW66935   2.139  13.333  14.332
21699SOL    HW166936   2.178  13.420  14.330
21699SOL    HW266937   2.047  13.348  14.355
21700SOL     OW66938   4.149  10.403  11.470
21700SOL    HW166939   4.057  10.407  11.498
21700SOL    HW266940   4.198  10.384  11.551
21701SOL     OW66941  11.532   2.596   9.848
21701SOL    HW166942  11.441   2.595   9.878
21701SOL    HW266943  11.542   2.514   9.799
21702SOL     OW66944   3.122   8.388   1.161
21702SOL    HW166945   3.121   8.337   1.242
21702SOL    HW266946   3.205   8.365   1.119
21703SOL     OW66947   6.564   1.285   9.139
21703SOL    HW166948   6.591   1.310   9.227
21703SOL    HW266949   6.537   1.194   9.146
21704SOL     OW66950   3.131   9.301  10.721
21704SOL    HW166951   3.093   9.345  10.645
21704SOL    HW266952   3.121   9.365  10.792
21705SOL     OW66953   1.387   1.091   8.215
21705SOL    HW166954   1.381   1.030   8.141
21705SOL    HW266955   1.402   1.035   8.291
21706SOL     OW66956   4.151   4.429  12.556
21706SOL    HW166957   4.072   4.478  12.579
21706SOL    HW266958   4.159   4.362  12.625
21707SOL     OW66959   3.254  11.081   0.222
21707SOL    HW166960   3.331  11.025   0.212
21707SOL    HW266961   3.186  11.022   0.254
21708SOL     OW66962  11.859   6.548  13.767
21708SOL    HW166963  11.789   6.604  13.801
21708SOL    HW266964  11.813   6.480  13.716
21709SOL     OW66965   8.118   5.336  13.855
21709SOL    HW166966   8.097   5.314  13.765
21709SOL    HW266967   8.175   5.413  13.849
21710SOL     OW66968  13.366  11.672   1.296
21710SOL    HW166969  13.283  11.719   1.301
21710SOL    HW266970  13.425  11.733   1.252
21711SOL     OW66971   8.889   5.834  10.528
21711SOL    HW166972   8.888   5.741  10.552
21711SOL    HW266973   8.903   5.880  10.611
21712SOL     OW66974  12.868   5.742  12.688
21712SOL    HW166975  12.870   5.760  12.594
21712SOL    HW266976  12.925   5.809  12.726
21713SOL     OW66977  12.227  13.823   5.711
21713SOL    HW166978  12.199  13.897   5.658
21713SOL    HW266979  12.318  13.841   5.731
21714SOL     OW66980   2.185  10.443  10.905
21714SOL    HW166981   2.181  10.538  10.895
21714SOL    HW266982   2.259  10.417  10.851
21715SOL     OW66983   5.654   2.778   0.183
21715SOL    HW166984   5.739   2.813   0.211
21715SOL    HW266985   5.670   2.684   0.169
21716SOL     OW66986  14.808  10.140   5.411
21716SOL    HW166987  14.745  10.205   5.440
21716SOL    HW266988  14.791  10.129   5.317
21717SOL     OW66989  13.336   6.633  13.204
21717SOL    HW166990  13.416   6.586  13.228
21717SOL    HW266991  13.343   6.717  13.251
21718SOL     OW66992  10.030  13.502   9.254
21718SOL    HW166993  10.036  13.597   9.267
21718SOL    HW266994   9.937  13.487   9.235
21719SOL     OW66995   0.154   5.287   0.264
21719SOL    HW166996   0.198   5.211   0.225
21719SOL    HW266997   0.188   5.290   0.353
21720SOL     OW66998  10.513   3.816  12.498
21720SOL    HW166999  10.506   3.908  12.475
21720SOL    HW267000  10.509   3.814  12.594
21721SOL     OW67001   5.037   7.713   6.067
21721SOL    HW167002   4.991   7.779   6.117
21721SOL    HW267003   5.056   7.643   6.130
21722SOL     OW67004   1.163   3.453   6.471
21722SOL    HW167005   1.249   3.489   6.494
21722SOL    HW267006   1.158   3.462   6.376
21723SOL     OW67007   2.592  14.452   2.161
21723SOL    HW167008   2.583  14.498   2.244
21723SOL    HW267009   2.583  14.359   2.184
21724SOL     OW67010   0.636  10.255   5.778
21724SOL    HW167011   0.672  10.183   5.830
21724SOL    HW267012   0.562  10.217   5.732
21725SOL     OW67013   8.562   7.403   2.110
21725SOL    HW167014   8.504   7.347   2.162
21725SOL    HW267015   8.603   7.461   2.174
21726SOL     OW67016  11.461  10.254   0.692
21726SOL    HW167017  11.498  10.334   0.728
21726SOL    HW267018  11.437  10.278   0.602
21727SOL     OW67019   1.755  10.921  13.452
21727SOL    HW167020   1.723  10.993  13.506
21727SOL    HW267021   1.850  10.932  13.451
21728SOL     OW67022   3.404  14.356  13.812
21728SOL    HW167023   3.482  14.357  13.866
21728SOL    HW267024   3.332  14.347  13.874
21729SOL     OW67025  13.333   6.414  11.723
21729SOL    HW167026  13.243   6.409  11.756
21729SOL    HW267027  13.387   6.417  11.802
21730SOL     OW67028   9.544  13.596   7.417
21730SOL    HW167029   9.632  13.628   7.433
21730SOL    HW267030   9.525  13.539   7.492
21731SOL     OW67031   3.720   6.024  11.124
21731SOL    HW167032   3.752   6.063  11.042
21731SOL    HW267033   3.743   6.089  11.191
21732SOL     OW67034   3.860   4.755  10.138
21732SOL    HW167035   3.918   4.693  10.094
21732SOL    HW267036   3.773   4.718  10.128
21733SOL     OW67037  13.802   6.802   2.550
21733SOL    HW167038  13.829   6.716   2.517
21733SOL    HW267039  13.817   6.798   2.644
21734SOL     OW67040   6.581  11.659   2.146
21734SOL    HW167041   6.534  11.593   2.196
21734SOL    HW267042   6.585  11.735   2.204
21735SOL     OW67043   1.995   8.788   0.018
21735SOL    HW167044   1.917   8.740  14.871
21735SOL    HW267045   1.970   8.823   0.104
21736SOL     OW67046   0.535   6.035   2.744
21736SOL    HW167047   0.607   6.020   2.683
21736SOL    HW267048   0.475   6.092   2.696
21737SOL     OW67049  12.624   8.327  13.431
21737SOL    HW167050  12.617   8.291  13.342
21737SOL    HW267051  12.672   8.409  13.419
21738SOL     OW67052   8.017   8.239   4.978
21738SOL    HW167053   7.941   8.230   5.036
21738SOL    HW267054   7.995   8.185   4.901
21739SOL     OW67055   2.789   0.662   7.965
21739SOL    HW167056   2.781   0.723   7.892
21739SOL    HW267057   2.882   0.665   7.988
21740SOL     OW67058   1.690  13.776   3.886
21740SOL    HW167059   1.606  13.822   3.888
21740SOL    HW267060   1.755  13.846   3.898
21741SOL     OW67061   8.288   0.330   2.936
21741SOL    HW167062   8.318   0.381   3.012
21741SOL    HW267063   8.197   0.308   2.957
21742SOL     OW67064   4.891  13.000   1.886
21742SOL    HW167065   4.879  12.976   1.978
21742SOL    HW267066   4.836  12.937   1.838
21743SOL     OW67067   8.381  14.650   2.043
21743SOL    HW167068   8.359  14.708   2.116
21743SOL    HW267069   8.475  14.635   2.052
21744SOL     OW67070   3.339   7.301  12.357
21744SOL    HW167071   3.294   7.226  12.317
21744SOL    HW267072   3.429   7.296  12.324
21745SOL     OW67073   9.764  12.955  11.723
21745SOL    HW167074   9.686  12.954  11.778
21745SOL    HW267075   9.764  13.042  11.684
21746SOL     OW67076   5.576   1.089   3.667
21746SOL    HW167077   5.482   1.073   3.655
21746SOL    HW267078   5.615   1.067   3.582
21747SOL     OW67079   3.175  13.927   5.873
21747SOL    HW167080   3.140  13.841   5.895
21747SOL    HW267081   3.145  13.984   5.943
21748SOL     OW67082   2.062  14.506   8.367
21748SOL    HW167083   2.157  14.519   8.371
21748SOL    HW267084   2.036  14.549   8.286
21749SOL     OW67085   0.201  12.086   3.212
21749SOL    HW167086   0.179  12.019   3.276
21749SOL    HW267087   0.116  12.119   3.182
21750SOL     OW67088  14.487  12.557  11.866
21750SOL    HW167089  14.468  12.497  11.939
21750SOL    HW267090  14.505  12.641  11.908
21751SOL     OW67091  14.677   6.611   1.393
21751SOL    HW167092  14.727   6.581   1.469
21751SOL    HW267093  14.612   6.543   1.379
21752SOL     OW67094   7.020  14.010  12.100
21752SOL    HW167095   7.034  14.087  12.045
21752SOL    HW267096   6.940  13.971  12.067
21753SOL     OW67097  13.534  11.791   5.197
21753SOL    HW167098  13.534  11.747   5.112
21753SOL    HW267099  13.546  11.721   5.261
21754SOL     OW67100   6.238  13.496   7.067
21754SOL    HW167101   6.330  13.521   7.062
21754SOL    HW267102   6.193  13.578   7.087
21755SOL     OW67103   7.702   6.246  13.268
21755SOL    HW167104   7.662   6.319  13.316
21755SOL    HW267105   7.640   6.228  13.196
21756SOL     OW67106   7.427  12.655   0.097
21756SOL    HW167107   7.412  12.567   0.062
21756SOL    HW267108   7.384  12.714   0.035
21757SOL     OW67109   0.467  10.593   7.265
21757SOL    HW167110   0.486  10.522   7.326
21757SOL    HW267111   0.553  10.618   7.230
21758SOL     OW67112  10.142   4.987   3.987
21758SOL    HW167113  10.186   4.904   4.004
21758SOL    HW267114  10.058   4.980   4.033
21759SOL     OW67115   2.955   3.043   1.929
21759SOL    HW167116   2.914   3.129   1.933
21759SOL    HW267117   2.939   3.004   2.015
21760SOL     OW67118   4.702  10.648   4.118
21760SOL    HW167119   4.651  10.712   4.067
21760SOL    HW267120   4.644  10.623   4.189
21761SOL     OW67121   9.883  12.571   9.248
21761SOL    HW167122   9.958  12.552   9.304
21761SOL    HW267123   9.807  12.560   9.304
21762SOL     OW67124   5.659  10.203  14.203
21762SOL    HW167125   5.728  10.201  14.138
21762SOL    HW267126   5.623  10.292  14.198
21763SOL     OW67127   8.035   0.040   0.823
21763SOL    HW167128   8.003   0.091   0.898
21763SOL    HW267129   8.015   0.094   0.747
21764SOL     OW67130  11.556   7.735  10.065
21764SOL    HW167131  11.541   7.745  10.159
21764SOL    HW267132  11.564   7.641  10.051
21765SOL     OW67133  11.995   7.056   9.266
21765SOL    HW167134  12.067   7.112   9.237
21765SOL    HW267135  12.033   6.999   9.332
21766SOL     OW67136   6.701   3.850   9.340
21766SOL    HW167137   6.785   3.804   9.340
21766SOL    HW267138   6.719   3.934   9.298
21767SOL     OW67139   0.489   7.765  10.671
21767SOL    HW167140   0.534   7.823  10.608
21767SOL    HW267141   0.465   7.823  10.743
21768SOL     OW67142  10.485   8.116   1.171
21768SOL    HW167143  10.441   8.032   1.158
21768SOL    HW267144  10.557   8.097   1.231
21769SOL     OW67145   2.231  11.819   8.607
21769SOL    HW167146   2.207  11.813   8.700
21769SOL    HW267147   2.248  11.729   8.581
21770SOL     OW67148  12.738   0.673  14.358
21770SOL    HW167149  12.730   0.743  14.293
21770SOL    HW267150  12.667   0.688  14.420
21771SOL     OW67151  10.685  11.648  12.645
21771SOL    HW167152  10.672  11.560  12.682
21771SOL    HW267153  10.767  11.679  12.685
21772SOL     OW67154   6.882   0.705   2.525
21772SOL    HW167155   6.886   0.798   2.506
21772SOL    HW267156   6.925   0.696   2.610
21773SOL     OW67157   1.975  13.794  14.497
21773SOL    HW167158   1.930  13.735  14.436
21773SOL    HW267159   1.975  13.879  14.454
21774SOL     OW67160  11.427   1.122   6.163
21774SOL    HW167161  11.391   1.081   6.242
21774SOL    HW267162  11.487   1.189   6.196
21775SOL     OW67163   6.464   8.505  10.304
21775SOL    HW167164   6.493   8.541  10.220
21775SOL    HW267165   6.384   8.553  10.324
21776SOL     OW67166   3.998  10.963  13.158
21776SOL    HW167167   3.906  10.936  13.154
21776SOL    HW267168   4.019  10.989  13.068
21777SOL     OW67169  13.681   5.793  11.792
21777SOL    HW167170  13.726   5.850  11.855
21777SOL    HW267171  13.683   5.843  11.710
21778SOL     OW67172   2.795  10.244  10.463
21778SOL    HW167173   2.865  10.271  10.522
21778SOL    HW267174   2.835  10.245  10.376
21779SOL     OW67175  13.245   5.895   8.880
21779SOL    HW167176  13.253   5.972   8.936
21779SOL    HW267177  13.317   5.903   8.818
21780SOL     OW67178   6.302  10.651   2.877
21780SOL    HW167179   6.358  10.590   2.924
21780SOL    HW267180   6.214  10.636   2.912
21781SOL     OW67181  14.114   2.898   4.209
21781SOL    HW167182  14.177   2.950   4.159
21781SOL    HW267183  14.096   2.949   4.287
21782SOL     OW67184   3.634  12.080  10.762
21782SOL    HW167185   3.729  12.076  10.761
21782SOL    HW267186   3.607  11.999  10.718
21783SOL     OW67187  14.278   5.403   0.395
21783SOL    HW167188  14.304   5.372   0.309
21783SOL    HW267189  14.336   5.357   0.456
21784SOL     OW67190   9.450   8.093   7.256
21784SOL    HW167191   9.523   8.143   7.293
21784SOL    HW267192   9.379   8.157   7.248
21785SOL     OW67193  10.018   7.898  14.483
21785SOL    HW167194   9.926   7.897  14.510
21785SOL    HW267195  10.027   7.978  14.432
21786SOL     OW67196   7.495   8.464   5.181
21786SOL    HW167197   7.457   8.457   5.269
21786SOL    HW267198   7.579   8.418   5.188
21787SOL     OW67199  12.608  12.533  10.917
21787SOL    HW167200  12.638  12.555  11.006
21787SOL    HW267201  12.650  12.450  10.898
21788SOL     OW67202  12.177  14.806   3.905
21788SOL    HW167203  12.203  14.808   3.997
21788SOL    HW267204  12.160  14.714   3.886
21789SOL     OW67205   5.548   1.216   2.446
21789SOL    HW167206   5.606   1.276   2.398
21789SOL    HW267207   5.607   1.153   2.486
21790SOL     OW67208  11.822   3.183   4.517
21790SOL    HW167209  11.753   3.207   4.579
21790SOL    HW267210  11.888   3.252   4.528
21791SOL     OW67211   8.247   7.565   5.987
21791SOL    HW167212   8.232   7.645   6.037
21791SOL    HW267213   8.161   7.540   5.954
21792SOL     OW67214   7.146   3.768  11.533
21792SOL    HW167215   7.070   3.715  11.557
21792SOL    HW267216   7.211   3.705  11.503
21793SOL     OW67217  14.713  13.028   0.166
21793SOL    HW167218  14.808  13.020   0.160
21793SOL    HW267219  14.681  12.993   0.083
21794SOL     OW67220  13.487   3.878   7.606
21794SOL    HW167221  13.539   3.902   7.529
21794SOL    HW267222  13.401   3.855   7.570
21795SOL     OW67223  12.337   3.283   9.978
21795SOL    HW167224  12.362   3.328   9.898
21795SOL    HW267225  12.418   3.242  10.009
21796SOL     OW67226   5.130   7.510  11.465
21796SOL    HW167227   5.036   7.529  11.462
21796SOL    HW267228   5.159   7.544  11.550
21797SOL     OW67229   6.920   0.508   7.570
21797SOL    HW167230   6.947   0.477   7.657
21797SOL    HW267231   6.959   0.594   7.561
21798SOL     OW67232  14.460  14.044   5.333
21798SOL    HW167233  14.487  14.050   5.242
21798SOL    HW267234  14.414  14.126   5.351
21799SOL     OW67235   1.520   4.321   4.968
21799SOL    HW167236   1.489   4.409   4.987
21799SOL    HW267237   1.613   4.323   4.990
21800SOL     OW67238   6.141  11.972   5.168
21800SOL    HW167239   6.127  12.051   5.220
21800SOL    HW267240   6.221  11.989   5.118
21801SOL     OW67241   4.653   3.879   2.815
21801SOL    HW167242   4.575   3.835   2.782
21801SOL    HW267243   4.689   3.924   2.739
21802SOL     OW67244  11.889  13.794   9.975
21802SOL    HW167245  11.908  13.705  10.006
21802SOL    HW267246  11.946  13.850  10.027
21803SOL     OW67247  13.899  14.206   1.445
21803SOL    HW167248  13.846  14.134   1.410
21803SOL    HW267249  13.835  14.268   1.480
21804SOL     OW67250   1.951   2.180  14.763
21804SOL    HW167251   1.993   2.116  14.820
21804SOL    HW267252   1.998   2.174  14.680
21805SOL     OW67253   7.525   2.005   4.854
21805SOL    HW167254   7.469   2.020   4.930
21805SOL    HW267255   7.466   1.968   4.788
21806SOL     OW67256   4.325   6.743   6.966
21806SOL    HW167257   4.314   6.746   6.871
21806SOL    HW267258   4.391   6.676   6.980
21807SOL     OW67259   8.680   1.306   3.778
21807SOL    HW167260   8.716   1.265   3.699
21807SOL    HW267261   8.644   1.389   3.747
21808SOL     OW67262  13.591   2.866   7.449
21808SOL    HW167263  13.666   2.924   7.465
21808SOL    HW267264  13.570   2.881   7.357
21809SOL     OW67265   4.421   3.486   1.259
21809SOL    HW167266   4.336   3.462   1.221
21809SOL    HW267267   4.483   3.480   1.186
21810SOL     OW67268   1.178   1.817   2.922
21810SOL    HW167269   1.107   1.866   2.964
21810SOL    HW267270   1.208   1.756   2.989
21811SOL     OW67271  13.968   0.063   1.108
21811SOL    HW167272  14.048   0.080   1.058
21811SOL    HW267273  13.998   0.023   1.189
21812SOL     OW67274  10.215  12.381  13.007
21812SOL    HW167275  10.295  12.408  12.962
21812SOL    HW267276  10.156  12.456  12.999
21813SOL     OW67277   7.476   9.807   3.299
21813SOL    HW167278   7.471   9.713   3.281
21813SOL    HW267279   7.520   9.844   3.223
21814SOL     OW67280  14.280   5.145   0.760
21814SOL    HW167281  14.267   5.074   0.824
21814SOL    HW267282  14.192   5.166   0.729
21815SOL     OW67283   2.600   7.469  12.701
21815SOL    HW167284   2.612   7.379  12.671
21815SOL    HW267285   2.685   7.512  12.685
21816SOL     OW67286   7.573   8.111   9.593
21816SOL    HW167287   7.608   8.185   9.643
21816SOL    HW267288   7.620   8.035   9.627
21817SOL     OW67289  13.052   8.652   8.146
21817SOL    HW167290  13.007   8.669   8.228
21817SOL    HW267291  13.086   8.737   8.118
21818SOL     OW67292   1.096  11.116  10.864
21818SOL    HW167293   1.096  11.070  10.780
21818SOL    HW267294   1.114  11.048  10.928
21819SOL     OW67295   1.090   1.488   4.505
21819SOL    HW167296   1.174   1.465   4.466
21819SOL    HW267297   1.102   1.477   4.599
21820SOL     OW67298   4.722   5.297  12.858
21820SOL    HW167299   4.713   5.209  12.894
21820SOL    HW267300   4.633   5.328  12.848
21821SOL     OW67301  14.499   7.393   7.999
21821SOL    HW167302  14.448   7.470   8.021
21821SOL    HW267303  14.435   7.331   7.963
21822SOL     OW67304   0.891   6.338  11.273
21822SOL    HW167305   0.816   6.359  11.217
21822SOL    HW267306   0.896   6.242  11.269
21823SOL     OW67307   2.237   0.993  13.127
21823SOL    HW167308   2.174   1.059  13.100
21823SOL    HW267309   2.320   1.022  13.088
21824SOL     OW67310   1.520  14.563   7.152
21824SOL    HW167311   1.612  14.544   7.171
21824SOL    HW267312   1.471  14.503   7.208
21825SOL     OW67313   6.047  12.844   1.496
21825SOL    HW167314   6.051  12.899   1.574
21825SOL    HW267315   5.963  12.866   1.456
21826SOL     OW67316   7.482   5.541   2.748
21826SOL    HW167317   7.550   5.491   2.794
21826SOL    HW267318   7.492   5.630   2.781
21827SOL     OW67319   8.898   6.674   7.860
21827SOL    HW167320   8.920   6.709   7.946
21827SOL    HW267321   8.961   6.713   7.800
21828SOL     OW67322  12.972   9.477   4.030
21828SOL    HW167323  13.065   9.453   4.023
21828SOL    HW267324  12.925   9.393   4.028
21829SOL     OW67325   9.116  12.407   5.611
21829SOL    HW167326   9.124  12.450   5.525
21829SOL    HW267327   9.024  12.418   5.635
21830SOL     OW67328  11.693   4.775  11.962
21830SOL    HW167329  11.708   4.819  11.879
21830SOL    HW267330  11.735   4.689  11.952
21831SOL     OW67331   8.921   7.993  13.818
21831SOL    HW167332   8.963   7.997  13.904
21831SOL    HW267333   8.836   8.035  13.832
21832SOL     OW67334   7.675  14.284  10.861
21832SOL    HW167335   7.720  14.294  10.945
21832SOL    HW267336   7.657  14.373  10.833
21833SOL     OW67337   7.382  14.122  12.013
21833SOL    HW167338   7.362  14.074  11.933
21833SOL    HW267339   7.477  14.133  12.010
21834SOL     OW67340   1.827   1.180  12.017
21834SOL    HW167341   1.733   1.184  12.034
21834SOL    HW267342   1.858   1.103  12.064
21835SOL     OW67343   3.626   9.832   6.380
21835SOL    HW167344   3.640   9.738   6.394
21835SOL    HW267345   3.669   9.874   6.454
21836SOL     OW67346  14.089   3.348   0.008
21836SOL    HW167347  14.018   3.384  14.837
21836SOL    HW267348  14.078   3.254   0.004
21837SOL     OW67349   6.557   6.160   6.674
21837SOL    HW167350   6.573   6.185   6.765
21837SOL    HW267351   6.471   6.197   6.653
21838SOL     OW67352  14.696   3.534   3.903
21838SOL    HW167353  14.766   3.483   3.862
21838SOL    HW267354  14.618   3.514   3.852
21839SOL     OW67355   5.978  14.717   8.814
21839SOL    HW167356   5.953  14.809   8.826
21839SOL    HW267357   5.910  14.681   8.757
21840SOL     OW67358  12.389   8.421   6.714
21840SOL    HW167359  12.336   8.480   6.659
21840SOL    HW267360  12.338   8.340   6.718
21841SOL     OW67361   0.673   7.567   0.511
21841SOL    HW167362   0.621   7.585   0.433
21841SOL    HW267363   0.720   7.649   0.527
21842SOL     OW67364   2.308   5.791  13.544
21842SOL    HW167365   2.399   5.816  13.533
21842SOL    HW267366   2.292   5.797  13.638
21843SOL     OW67367   1.877   3.795  11.169
21843SOL    HW167368   1.961   3.835  11.144
21843SOL    HW267369   1.902   3.712  11.209
21844SOL     OW67370   1.386  10.284  12.976
21844SOL    HW167371   1.400  10.200  13.019
21844SOL    HW267372   1.457  10.290  12.912
21845SOL     OW67373   7.482  13.114  11.495
21845SOL    HW167374   7.393  13.102  11.462
21845SOL    HW267375   7.479  13.199  11.539
21846SOL     OW67376   9.185  14.582  13.954
21846SOL    HW167377   9.263  14.553  13.906
21846SOL    HW267378   9.174  14.673  13.928
21847SOL     OW67379  12.503   9.349   5.770
21847SOL    HW167380  12.424   9.350   5.822
21847SOL    HW267381  12.504   9.262   5.729
21848SOL     OW67382   3.053   4.305  13.118
21848SOL    HW167383   3.029   4.238  13.182
21848SOL    HW267384   3.123   4.264  13.066
21849SOL     OW67385  13.211   9.610   7.628
21849SOL    HW167386  13.215   9.570   7.541
21849SOL    HW267387  13.147   9.680   7.619
21850SOL     OW67388   3.017   7.801   8.586
21850SOL    HW167389   3.100   7.765   8.556
21850SOL    HW267390   3.031   7.821   8.679
21851SOL     OW67391   7.277   1.086   6.403
21851SOL    HW167392   7.329   1.007   6.418
21851SOL    HW267393   7.325   1.133   6.335
21852SOL     OW67394  13.316  13.394   0.374
21852SOL    HW167395  13.392  13.367   0.426
21852SOL    HW267396  13.354  13.428   0.293
21853SOL     OW67397   3.504  10.086  13.292
21853SOL    HW167398   3.521  10.167  13.339
21853SOL    HW267399   3.586  10.067  13.247
21854SOL     OW67400  12.398   9.222  11.408
21854SOL    HW167401  12.415   9.266  11.491
21854SOL    HW267402  12.457   9.264  11.345
21855SOL     OW67403   6.392   3.552  14.228
21855SOL    HW167404   6.333   3.552  14.153
21855SOL    HW267405   6.414   3.644  14.242
21856SOL     OW67406   3.978  11.878   0.053
21856SOL    HW167407   3.955  11.969   0.075
21856SOL    HW267408   3.921  11.825   0.108
21857SOL     OW67409  10.070   5.614   0.649
21857SOL    HW167410  10.150   5.650   0.687
21857SOL    HW267411  10.014   5.690   0.634
21858SOL     OW67412   4.702  12.641  14.694
21858SOL    HW167413   4.707  12.625  14.789
21858SOL    HW267414   4.736  12.561  14.655
21859SOL     OW67415   7.267  14.814  10.852
21859SOL    HW167416   7.239   0.020  10.829
21859SOL    HW267417   7.221  14.794  10.933
21860SOL     OW67418  14.875   3.301  13.817
21860SOL    HW167419  14.850   3.354  13.893
21860SOL    HW267420   0.076   3.260  13.843
21861SOL     OW67421   5.410  14.326   2.249
21861SOL    HW167422   5.360  14.247   2.226
21861SOL    HW267423   5.492  14.316   2.201
21862SOL     OW67424  13.073   8.408  14.871
21862SOL    HW167425  13.140   8.447   0.045
21862SOL    HW267426  13.018   8.481  14.844
21863SOL     OW67427  11.238   4.362   8.833
21863SOL    HW167428  11.158   4.364   8.886
21863SOL    HW267429  11.251   4.269   8.813
21864SOL     OW67430   7.724  11.261  14.444
21864SOL    HW167431   7.653  11.285  14.503
21864SOL    HW267432   7.761  11.344  14.415
21865SOL     OW67433   2.907   6.248   1.832
21865SOL    HW167434   2.849   6.172   1.829
21865SOL    HW267435   2.861   6.316   1.784
21866SOL     OW67436   6.276   7.862   9.247
21866SOL    HW167437   6.363   7.884   9.212
21866SOL    HW267438   6.215   7.911   9.192
21867SOL     OW67439   5.715   9.525   5.071
21867SOL    HW167440   5.663   9.463   5.020
21867SOL    HW267441   5.759   9.471   5.136
21868SOL     OW67442   5.183  11.779   1.507
21868SOL    HW167443   5.242  11.833   1.454
21868SOL    HW267444   5.187  11.692   1.467
21869SOL     OW67445   7.294   3.318  10.483
21869SOL    HW167446   7.206   3.354  10.493
21869SOL    HW267447   7.339   3.343  10.564
21870SOL     OW67448   8.096  13.725   2.596
21870SOL    HW167449   8.179  13.766   2.573
21870SOL    HW267450   8.115  13.631   2.595
21871SOL     OW67451  11.862   5.883  11.701
21871SOL    HW167452  11.920   5.922  11.635
21871SOL    HW267453  11.920   5.832  11.757
21872SOL     OW67454   1.453   1.833   6.517
21872SOL    HW167455   1.428   1.763   6.457
21872SOL    HW267456   1.382   1.896   6.513
21873SOL     OW67457   9.181   8.438  13.767
21873SOL    HW167458   9.185   8.343  13.772
21873SOL    HW267459   9.201   8.467  13.856
21874SOL     OW67460   7.931   9.914  14.441
21874SOL    HW167461   7.885   9.962  14.372
21874SOL    HW267462   7.990   9.979  14.480
21875SOL     OW67463   6.606   1.206   0.829
21875SOL    HW167464   6.558   1.272   0.878
21875SOL    HW267465   6.551   1.189   0.752
21876SOL     OW67466   9.158   8.846  14.689
21876SOL    HW167467   9.176   8.935  14.720
21876SOL    HW267468   9.139   8.857  14.596
21877SOL     OW67469   1.665   5.308   6.787
21877SOL    HW167470   1.760   5.313   6.802
21877SOL    HW267471   1.633   5.396   6.808
21878SOL     OW67472   5.594  13.827   1.790
21878SOL    HW167473   5.687  13.806   1.787
21878SOL    HW267474   5.557  13.763   1.850
21879SOL     OW67475   9.881  12.682   5.913
21879SOL    HW167476   9.903  12.774   5.927
21879SOL    HW267477   9.957  12.634   5.946
21880SOL     OW67478  12.189   0.207   4.278
21880SOL    HW167479  12.098   0.193   4.252
21880SOL    HW267480  12.223   0.268   4.212
21881SOL     OW67481   8.373   0.089   8.764
21881SOL    HW167482   8.371   0.001   8.726
21881SOL    HW267483   8.432   0.138   8.707
21882SOL     OW67484  13.171   9.661   9.837
21882SOL    HW167485  13.119   9.603   9.781
21882SOL    HW267486  13.138   9.749   9.819
21883SOL     OW67487   1.730   2.445   8.632
21883SOL    HW167488   1.707   2.535   8.652
21883SOL    HW267489   1.708   2.396   8.711
21884SOL     OW67490   7.136   0.266  10.386
21884SOL    HW167491   7.201   0.263  10.457
21884SOL    HW267492   7.174   0.212  10.317
21885SOL     OW67493   0.051   0.296   3.558
21885SOL    HW167494  14.865   0.230   3.545
21885SOL    HW267495   0.085   0.314   3.470
21886SOL     OW67496   0.422   9.403  14.433
21886SOL    HW167497   0.509   9.363  14.431
21886SOL    HW267498   0.436   9.492  14.401
21887SOL     OW67499   4.115   2.177  10.307
21887SOL    HW167500   4.034   2.129  10.287
21887SOL    HW267501   4.175   2.109  10.339
21888SOL     OW67502   1.046   8.769  11.658
21888SOL    HW167503   1.062   8.682  11.693
21888SOL    HW267504   1.107   8.826  11.705
21889SOL     OW67505   5.556   7.084  11.278
21889SOL    HW167506   5.589   7.108  11.365
21889SOL    HW267507   5.502   7.158  11.251
21890SOL     OW67508   6.067   4.688   3.365
21890SOL    HW167509   6.001   4.654   3.425
21890SOL    HW267510   6.023   4.692   3.280
21891SOL     OW67511   0.968  13.872   7.618
21891SOL    HW167512   0.884  13.830   7.636
21891SOL    HW267513   0.962  13.900   7.527
21892SOL     OW67514   8.070   7.384  13.238
21892SOL    HW167515   8.157   7.353  13.263
21892SOL    HW267516   8.010   7.318  13.272
21893SOL     OW67517   5.549   6.980   3.679
21893SOL    HW167518   5.593   6.898   3.699
21893SOL    HW267519   5.507   6.965   3.594
21894SOL     OW67520   4.935  14.079   0.334
21894SOL    HW167521   4.976  14.163   0.315
21894SOL    HW267522   4.933  14.074   0.429
21895SOL     OW67523  10.124   2.347  12.242
21895SOL    HW167524  10.087   2.367  12.156
21895SOL    HW267525  10.092   2.258  12.261
21896SOL     OW67526   2.258   2.306   7.998
21896SOL    HW167527   2.302   2.222   8.004
21896SOL    HW267528   2.265   2.343   8.086
21897SOL     OW67529  10.295  12.187  11.521
21897SOL    HW167530  10.322  12.113  11.576
21897SOL    HW267531  10.277  12.258  11.583
21898SOL     OW67532   2.768   8.684   6.476
21898SOL    HW167533   2.808   8.627   6.411
21898SOL    HW267534   2.819   8.667   6.556
21899SOL     OW67535   0.569   9.809  12.603
21899SOL    HW167536   0.632   9.874  12.636
21899SOL    HW267537   0.619   9.758  12.539
21900SOL     OW67538   6.126   5.185   7.904
21900SOL    HW167539   6.186   5.113   7.922
21900SOL    HW267540   6.120   5.232   7.987
21901SOL     OW67541   5.348   3.197   2.043
21901SOL    HW167542   5.420   3.200   2.106
21901SOL    HW267543   5.345   3.285   2.006
21902SOL     OW67544  10.594  13.453   4.129
21902SOL    HW167545  10.576  13.535   4.173
21902SOL    HW267546  10.577  13.386   4.195
21903SOL     OW67547  10.839   0.795  11.938
21903SOL    HW167548  10.882   0.853  11.874
21903SOL    HW267549  10.762   0.844  11.967
21904SOL     OW67550  11.472  14.781  12.743
21904SOL    HW167551  11.417  14.724  12.796
21904SOL    HW267552  11.411  14.840  12.700
21905SOL     OW67553  10.995   8.937  14.615
21905SOL    HW167554  10.921   8.949  14.555
21905SOL    HW267555  10.962   8.966  14.700
21906SOL     OW67556  12.610   6.895   8.488
21906SOL    HW167557  12.593   6.975   8.538
21906SOL    HW267558  12.649   6.925   8.406
21907SOL     OW67559   8.543  11.562   9.814
21907SOL    HW167560   8.510  11.564   9.724
21907SOL    HW267561   8.608  11.633   9.817
21908SOL     OW67562  11.255   6.543   1.856
21908SOL    HW167563  11.250   6.527   1.950
21908SOL    HW267564  11.346   6.524   1.833
21909SOL     OW67565   3.496   4.295  14.320
21909SOL    HW167566   3.570   4.250  14.359
21909SOL    HW267567   3.494   4.380  14.364
21910SOL     OW67568   3.011   9.282   1.280
21910SOL    HW167569   3.067   9.359   1.275
21910SOL    HW267570   2.942   9.307   1.342
21911SOL     OW67571  11.718   6.176   9.319
21911SOL    HW167572  11.716   6.157   9.225
21911SOL    HW267573  11.767   6.103   9.357
21912SOL     OW67574   6.090   0.848   5.528
21912SOL    HW167575   6.130   0.828   5.444
21912SOL    HW267576   6.107   0.941   5.542
21913SOL     OW67577  11.767  14.459   1.754
21913SOL    HW167578  11.723  14.492   1.676
21913SOL    HW267579  11.776  14.536   1.810
21914SOL     OW67580   4.218   9.805   2.548
21914SOL    HW167581   4.209   9.775   2.638
21914SOL    HW267582   4.273   9.883   2.554
21915SOL     OW67583   9.833   6.455   8.793
21915SOL    HW167584   9.911   6.489   8.747
21915SOL    HW267585   9.760   6.501   8.752
21916SOL     OW67586   5.224   8.073  14.088
21916SOL    HW167587   5.303   8.019  14.094
21916SOL    HW267588   5.161   8.030  14.145
21917SOL     OW67589  11.241  14.547   6.720
21917SOL    HW167590  11.238  14.557   6.815
21917SOL    HW267591  11.334  14.538   6.700
21918SOL     OW67592  14.446   4.495  11.921
21918SOL    HW167593  14.372   4.449  11.963
21918SOL    HW267594  14.443   4.466  11.830
21919SOL     OW67595   7.725   6.130  14.149
21919SOL    HW167596   7.795   6.128  14.214
21919SOL    HW267597   7.740   6.210  14.099
21920SOL     OW67598   0.856  11.642   8.394
21920SOL    HW167599   0.825  11.715   8.448
21920SOL    HW267600   0.911  11.590   8.453
21921SOL     OW67601   4.489  12.403   5.745
21921SOL    HW167602   4.543  12.479   5.765
21921SOL    HW267603   4.517  12.337   5.808
21922SOL     OW67604   9.926  10.084  13.300
21922SOL    HW167605  10.009  10.087  13.254
21922SOL    HW267606   9.876  10.015  13.255
21923SOL     OW67607  14.406  14.228   0.145
21923SOL    HW167608  14.453  14.167   0.088
21923SOL    HW267609  14.405  14.310   0.096
21924SOL     OW67610   3.771  14.379   1.143
21924SOL    HW167611   3.809  14.292   1.151
21924SOL    HW267612   3.829  14.426   1.082
21925SOL     OW67613   4.018   1.366   9.891
21925SOL    HW167614   4.051   1.294   9.945
21925SOL    HW267615   3.985   1.323   9.812
21926SOL     OW67616   3.354  12.629  14.805
21926SOL    HW167617   3.309  12.693  14.750
21926SOL    HW267618   3.344  12.546  14.759
21927SOL     OW67619  12.002   5.849  10.810
21927SOL    HW167620  12.055   5.844  10.890
21927SOL    HW267621  11.944   5.924  10.824
21928SOL     OW67622   5.067   9.903   9.279
21928SOL    HW167623   5.075   9.903   9.375
21928SOL    HW267624   5.008   9.830   9.260
21929SOL     OW67625   6.917  10.245   3.360
21929SOL    HW167626   6.866  10.198   3.293
21929SOL    HW267627   6.977  10.179   3.395
21930SOL     OW67628  14.425   5.445  14.261
21930SOL    HW167629  14.392   5.355  14.261
21930SOL    HW267630  14.458   5.458  14.172
21931SOL     OW67631   4.064   4.200   8.489
21931SOL    HW167632   4.078   4.127   8.429
21931SOL    HW267633   4.057   4.277   8.431
21932SOL     OW67634   7.631   4.229  10.655
21932SOL    HW167635   7.625   4.155  10.594
21932SOL    HW267636   7.559   4.288  10.629
21933SOL     OW67637  14.343  14.827   6.497
21933SOL    HW167638  14.282  14.875   6.441
21933SOL    HW267639  14.421  14.814   6.442
21934SOL     OW67640   4.157   1.989  11.558
21934SOL    HW167641   4.216   1.915  11.570
21934SOL    HW267642   4.108   1.968  11.479
21935SOL     OW67643   3.424  13.466   3.045
21935SOL    HW167644   3.394  13.489   3.133
21935SOL    HW267645   3.370  13.519   2.986
21936SOL     OW67646  14.146   5.721   7.040
21936SOL    HW167647  14.214   5.655   7.051
21936SOL    HW267648  14.142   5.736   6.945
21937SOL     OW67649   6.502   2.690   1.058
21937SOL    HW167650   6.491   2.765   1.000
21937SOL    HW267651   6.558   2.721   1.128
21938SOL     OW67652   8.109   3.572  14.727
21938SOL    HW167653   8.094   3.525  14.645
21938SOL    HW267654   8.022   3.603  14.752
21939SOL     OW67655   7.499   0.838   9.331
21939SOL    HW167656   7.529   0.913   9.281
21939SOL    HW267657   7.573   0.815   9.387
21940SOL     OW67658   4.789   3.151   9.084
21940SOL    HW167659   4.858   3.199   9.039
21940SOL    HW267660   4.835   3.081   9.130
21941SOL     OW67661   6.532   4.386   1.591
21941SOL    HW167662   6.597   4.453   1.612
21941SOL    HW267663   6.479   4.425   1.522
21942SOL     OW67664   7.600   2.547   8.789
21942SOL    HW167665   7.527   2.573   8.845
21942SOL    HW267666   7.638   2.471   8.831
21943SOL     OW67667   3.342   3.926   7.400
21943SOL    HW167668   3.359   4.015   7.431
21943SOL    HW267669   3.333   3.935   7.305
21944SOL     OW67670  13.036   4.939   2.555
21944SOL    HW167671  12.983   5.014   2.582
21944SOL    HW267672  13.027   4.936   2.459
21945SOL     OW67673   9.941   4.470   4.057
21945SOL    HW167674   9.912   4.417   3.983
21945SOL    HW267675  10.008   4.418   4.100
21946SOL     OW67676   2.722   8.719  11.077
21946SOL    HW167677   2.746   8.723  11.170
21946SOL    HW267678   2.802   8.690  11.033
21947SOL     OW67679   7.826   5.914  12.645
21947SOL    HW167680   7.803   5.903  12.553
21947SOL    HW267681   7.917   5.883  12.650
21948SOL     OW67682   2.580   0.796   8.275
21948SOL    HW167683   2.590   0.712   8.230
21948SOL    HW267684   2.516   0.778   8.345
21949SOL     OW67685   9.011   3.268   7.018
21949SOL    HW167686   9.044   3.356   7.000
21949SOL    HW267687   9.087   3.222   7.055
21950SOL     OW67688   6.440   2.949   9.290
21950SOL    HW167689   6.501   2.876   9.285
21950SOL    HW267690   6.389   2.932   9.369
21951SOL     OW67691  10.162   0.321   2.057
21951SOL    HW167692  10.218   0.290   2.129
21951SOL    HW267693  10.073   0.317   2.092
21952SOL     OW67694  13.499   2.249  13.925
21952SOL    HW167695  13.526   2.321  13.983
21952SOL    HW267696  13.422   2.282  13.880
21953SOL     OW67697   1.356   8.670   0.832
21953SOL    HW167698   1.271   8.629   0.845
21953SOL    HW267699   1.344   8.726   0.756
21954SOL     OW67700   2.021   3.242   9.550
21954SOL    HW167701   2.022   3.297   9.628
21954SOL    HW267702   1.988   3.299   9.480
21955SOL     OW67703  14.305  12.029   6.673
21955SOL    HW167704  14.253  12.110   6.674
21955SOL    HW267705  14.297  11.997   6.583
21956SOL     OW67706   1.783  12.334  10.270
21956SOL    HW167707   1.768  12.286  10.352
21956SOL    HW267708   1.695  12.364  10.244
21957SOL     OW67709   4.414   5.378   9.794
21957SOL    HW167710   4.376   5.465   9.805
21957SOL    HW267711   4.380   5.328   9.868
21958SOL     OW67712  14.637  13.663  12.865
21958SOL    HW167713  14.560  13.616  12.895
21958SOL    HW267714  14.628  13.666  12.770
21959SOL     OW67715   3.479   0.157  10.770
21959SOL    HW167716   3.437   0.202  10.843
21959SOL    HW267717   3.573   0.168  10.786
21960SOL     OW67718   0.999   0.887   5.564
21960SOL    HW167719   1.030   0.931   5.643
21960SOL    HW267720   1.056   0.811   5.554
21961SOL     OW67721  13.164  14.431  13.305
21961SOL    HW167722  13.160  14.423  13.400
21961SOL    HW267723  13.228  14.499  13.288
21962SOL     OW67724   7.248  11.379   0.856
21962SOL    HW167725   7.249  11.475   0.847
21962SOL    HW267726   7.169  11.352   0.809
21963SOL     OW67727   1.726  13.639   2.948
21963SOL    HW167728   1.729  13.720   2.999
21963SOL    HW267729   1.816  13.625   2.920
21964SOL     OW67730  13.929   1.081   0.101
21964SOL    HW167731  13.948   1.021   0.174
21964SOL    HW267732  13.957   1.033   0.023
21965SOL     OW67733   5.586  14.067  14.791
21965SOL    HW167734   5.623  14.153  14.808
21965SOL    HW267735   5.507  14.084  14.740
21966SOL     OW67736   0.326   7.078   0.227
21966SOL    HW167737   0.303   7.096   0.136
21966SOL    HW267738   0.271   7.004   0.251
21967SOL     OW67739  12.012   1.602  12.654
21967SOL    HW167740  12.061   1.521  12.668
21967SOL    HW267741  11.957   1.583  12.578
21968SOL     OW67742   7.717   6.511   3.851
21968SOL    HW167743   7.668   6.575   3.800
21968SOL    HW267744   7.651   6.462   3.899
21969SOL     OW67745   5.178   1.434  14.825
21969SOL    HW167746   5.112   1.387  14.775
21969SOL    HW267747   5.177   1.523  14.790
21970SOL     OW67748  14.570  12.022  13.406
21970SOL    HW167749  14.648  12.034  13.351
21970SOL    HW267750  14.605  11.998  13.491
21971SOL     OW67751   0.016   6.249   6.708
21971SOL    HW167752   0.094   6.284   6.665
21971SOL    HW267753   0.050   6.183   6.769
21972SOL     OW67754   2.562   6.001   0.968
21972SOL    HW167755   2.510   6.055   0.909
21972SOL    HW267756   2.501   5.933   0.997
21973SOL     OW67757   9.317   8.012   9.194
21973SOL    HW167758   9.328   8.057   9.278
21973SOL    HW267759   9.342   8.077   9.128
21974SOL     OW67760   8.793   9.813   5.455
21974SOL    HW167761   8.812   9.882   5.391
21974SOL    HW267762   8.879   9.778   5.479
21975SOL     OW67763   3.617   3.001   5.221
21975SOL    HW167764   3.524   2.980   5.230
21975SOL    HW267765   3.660   2.939   5.281
21976SOL     OW67766   6.645  13.335   0.041
21976SOL    HW167767   6.561  13.378   0.057
21976SOL    HW267768   6.641  13.307  14.832
21977SOL     OW67769   4.434  13.051  10.222
21977SOL    HW167770   4.515  13.096  10.248
21977SOL    HW267771   4.408  13.095  10.141
21978SOL     OW67772   6.371  13.596  10.532
21978SOL    HW167773   6.341  13.678  10.571
21978SOL    HW267774   6.460  13.615  10.503
21979SOL     OW67775   6.135   2.303   1.702
21979SOL    HW167776   6.213   2.320   1.754
21979SOL    HW267777   6.163   2.316   1.612
21980SOL     OW67778   5.112   2.235   6.781
21980SOL    HW167779   5.162   2.316   6.792
21980SOL    HW267780   5.123   2.189   6.865
21981SOL     OW67781   9.432  12.782   7.958
21981SOL    HW167782   9.522  12.753   7.971
21981SOL    HW267783   9.401  12.732   7.882
21982SOL     OW67784   2.693   2.445   4.224
21982SOL    HW167785   2.737   2.518   4.180
21982SOL    HW267786   2.615   2.429   4.171
21983SOL     OW67787   8.419   6.349   4.871
21983SOL    HW167788   8.425   6.269   4.923
21983SOL    HW267789   8.353   6.402   4.916
21984SOL     OW67790   1.046   7.896   6.866
21984SOL    HW167791   1.089   7.880   6.783
21984SOL    HW267792   1.108   7.950   6.915
21985SOL     OW67793   1.512   4.216   5.778
21985SOL    HW167794   1.440   4.200   5.716
21985SOL    HW267795   1.510   4.310   5.794
21986SOL     OW67796  13.983  10.755  13.532
21986SOL    HW167797  14.020  10.841  13.556
21986SOL    HW267798  14.000  10.747  13.439
21987SOL     OW67799   6.394  13.686   5.395
21987SOL    HW167800   6.367  13.773   5.423
21987SOL    HW267801   6.330  13.627   5.434
21988SOL     OW67802   7.714  13.690  11.991
21988SOL    HW167803   7.773  13.766  11.999
21988SOL    HW267804   7.773  13.614  11.990
21989SOL     OW67805  10.493   9.080   8.369
21989SOL    HW167806  10.543   9.120   8.440
21989SOL    HW267807  10.512   8.986   8.376
21990SOL     OW67808   9.882   5.651  13.498
21990SOL    HW167809   9.808   5.630  13.555
21990SOL    HW267810   9.843   5.702  13.427
21991SOL     OW67811   6.344   7.352   2.546
21991SOL    HW167812   6.259   7.374   2.508
21991SOL    HW267813   6.325   7.328   2.637
21992SOL     OW67814   6.820   7.382   7.421
21992SOL    HW167815   6.804   7.441   7.495
21992SOL    HW267816   6.746   7.322   7.421
21993SOL     OW67817   6.806   2.010   4.408
21993SOL    HW167818   6.834   2.035   4.496
21993SOL    HW267819   6.759   2.087   4.375
21994SOL     OW67820   9.613   2.947   8.402
21994SOL    HW167821   9.597   3.035   8.368
21994SOL    HW267822   9.708   2.938   8.404
21995SOL     OW67823   9.759  12.903  12.263
21995SOL    HW167824   9.766  12.843  12.336
21995SOL    HW267825   9.702  12.859  12.200
21996SOL     OW67826   0.161   4.514   2.245
21996SOL    HW167827   0.179   4.562   2.164
21996SOL    HW267828   0.196   4.571   2.314
21997SOL     OW67829  11.704   2.042   3.452
21997SOL    HW167830  11.665   1.980   3.513
21997SOL    HW267831  11.657   2.124   3.467
21998SOL     OW67832  11.264  10.368   2.970
21998SOL    HW167833  11.248  10.403   3.058
21998SOL    HW267834  11.181  10.327   2.946
21999SOL     OW67835   2.785   0.202   6.316
21999SOL    HW167836   2.873   0.239   6.307
21999SOL    HW267837   2.751   0.197   6.227
22000SOL     OW67838   0.467  10.413   6.920
22000SOL    HW167839   0.449  10.362   6.999
22000SOL    HW267840   0.383  10.416   6.874
22001SOL     OW67841   4.052   1.537  14.310
22001SOL    HW167842   3.973   1.499  14.271
22001SOL    HW267843   4.087   1.595  14.242
22002SOL     OW67844  10.494   3.318   4.724
22002SOL    HW167845  10.488   3.308   4.629
22002SOL    HW267846  10.459   3.405   4.741
22003SOL     OW67847   1.404   0.438  10.002
22003SOL    HW167848   1.342   0.475  10.065
22003SOL    HW267849   1.421   0.350  10.035
22004SOL     OW67850   3.829   4.110   4.303
22004SOL    HW167851   3.819   4.186   4.361
22004SOL    HW267852   3.740   4.085   4.280
22005SOL     OW67853   9.754   8.169   2.612
22005SOL    HW167854   9.840   8.195   2.646
22005SOL    HW267855   9.744   8.219   2.531
22006SOL     OW67856  14.456   6.575   4.261
22006SOL    HW167857  14.430   6.597   4.172
22006SOL    HW267858  14.547   6.546   4.254
22007SOL     OW67859   4.790   1.334  11.715
22007SOL    HW167860   4.855   1.340  11.786
22007SOL    HW267861   4.808   1.250  11.674
22008SOL     OW67862   2.809  13.785   9.802
22008SOL    HW167863   2.749  13.797   9.876
22008SOL    HW267864   2.863  13.710   9.826
22009SOL     OW67865  12.081   3.242  10.527
22009SOL    HW167866  12.055   3.184  10.455
22009SOL    HW267867  12.177   3.237  10.528
22010SOL     OW67868  10.602   1.604   9.170
22010SOL    HW167869  10.571   1.623   9.259
22010SOL    HW267870  10.628   1.512   9.173
22011SOL     OW67871   7.130   6.835  14.150
22011SOL    HW167872   7.192   6.899  14.116
22011SOL    HW267873   7.179   6.752  14.149
22012SOL     OW67874   8.756   0.927   7.469
22012SOL    HW167875   8.680   0.969   7.509
22012SOL    HW267876   8.740   0.833   7.480
22013SOL     OW67877   2.347  14.379  13.215
22013SOL    HW167878   2.404  14.427  13.155
22013SOL    HW267879   2.270  14.357  13.164
22014SOL     OW67880   3.044  14.047  11.752
22014SOL    HW167881   3.112  14.102  11.791
22014SOL    HW267882   2.962  14.081  11.786
22015SOL     OW67883   8.005   3.467  13.882
22015SOL    HW167884   8.047   3.525  13.819
22015SOL    HW267885   8.054   3.385  13.875
22016SOL     OW67886   3.207   1.876  14.771
22016SOL    HW167887   3.266   1.874  14.847
22016SOL    HW267888   3.265   1.870  14.696
22017SOL     OW67889  11.715  11.943  11.685
22017SOL    HW167890  11.677  12.002  11.620
22017SOL    HW267891  11.645  11.881  11.704
22018SOL     OW67892   4.920   6.550   6.759
22018SOL    HW167893   4.997   6.494   6.764
22018SOL    HW267894   4.895   6.548   6.667
22019SOL     OW67895  13.153   3.884   3.725
22019SOL    HW167896  13.214   3.862   3.795
22019SOL    HW267897  13.134   3.801   3.682
22020SOL     OW67898   0.300   3.727   6.353
22020SOL    HW167899   0.244   3.805   6.362
22020SOL    HW267900   0.271   3.669   6.423
22021SOL     OW67901  12.823  10.713   8.808
22021SOL    HW167902  12.732  10.687   8.791
22021SOL    HW267903  12.872  10.631   8.805
22022SOL     OW67904  12.345   1.139  10.867
22022SOL    HW167905  12.338   1.046  10.845
22022SOL    HW267906  12.258   1.162  10.902
22023SOL     OW67907   9.528   1.700   6.848
22023SOL    HW167908   9.514   1.790   6.876
22023SOL    HW267909   9.583   1.707   6.770
22024SOL     OW67910  14.409   8.042   0.191
22024SOL    HW167911  14.482   7.981   0.193
22024SOL    HW267912  14.391   8.061   0.283
22025SOL     OW67913   9.804   4.838   7.124
22025SOL    HW167914   9.807   4.911   7.062
22025SOL    HW267915   9.820   4.761   7.070
22026SOL     OW67916  12.111   1.733   1.934
22026SOL    HW167917  12.102   1.776   1.849
22026SOL    HW267918  12.193   1.684   1.927
22027SOL     OW67919   7.371   4.577   2.740
22027SOL    HW167920   7.424   4.652   2.714
22027SOL    HW267921   7.434   4.515   2.777
22028SOL     OW67922   1.391  14.371   8.593
22028SOL    HW167923   1.382  14.455   8.637
22028SOL    HW267924   1.377  14.391   8.500
22029SOL     OW67925   1.952   7.703  13.199
22029SOL    HW167926   1.982   7.793  13.215
22029SOL    HW267927   1.937   7.667  13.287
22030SOL     OW67928   4.711  13.495   5.949
22030SOL    HW167929   4.757  13.521   5.869
22030SOL    HW267930   4.742  13.406   5.966
22031SOL     OW67931   2.689   2.052   3.369
22031SOL    HW167932   2.620   2.112   3.396
22031SOL    HW267933   2.694   2.061   3.274
22032SOL     OW67934   7.254  10.117   1.340
22032SOL    HW167935   7.284  10.153   1.257
22032SOL    HW267936   7.275  10.024   1.335
22033SOL     OW67937  13.894  13.769  11.902
22033SOL    HW167938  13.967  13.715  11.873
22033SOL    HW267939  13.884  13.835  11.833
22034SOL     OW67940   2.813   5.768   7.775
22034SOL    HW167941   2.773   5.853   7.756
22034SOL    HW267942   2.789   5.751   7.866
22035SOL     OW67943   1.050   9.920   9.954
22035SOL    HW167944   0.971   9.871   9.929
22035SOL    HW267945   1.081   9.959   9.872
22036SOL     OW67946   9.428   3.531   3.372
22036SOL    HW167947   9.496   3.599   3.365
22036SOL    HW267948   9.371   3.562   3.442
22037SOL     OW67949   7.217   2.459   6.913
22037SOL    HW167950   7.234   2.368   6.937
22037SOL    HW267951   7.271   2.510   6.974
22038SOL     OW67952  10.982  11.398   3.661
22038SOL    HW167953  11.028  11.482   3.663
22038SOL    HW267954  11.014  11.355   3.582
22039SOL     OW67955   9.746  10.997  11.273
22039SOL    HW167956   9.780  11.023  11.359
22039SOL    HW267957   9.773  10.906  11.263
22040SOL     OW67958  13.323   5.284   3.072
22040SOL    HW167959  13.371   5.364   3.094
22040SOL    HW267960  13.374   5.243   3.003
22041SOL     OW67961   3.202   0.644  14.283
22041SOL    HW167962   3.144   0.649  14.207
22041SOL    HW267963   3.183   0.559  14.323
22042SOL     OW67964  13.846   0.043  13.452
22042SOL    HW167965  13.867   0.042  13.358
22042SOL    HW267966  13.799   0.125  13.465
22043SOL     OW67967  11.487   2.622   5.145
22043SOL    HW167968  11.534   2.660   5.219
22043SOL    HW267969  11.504   2.528   5.150
22044SOL     OW67970   8.972  12.633   1.984
22044SOL    HW167971   8.947  12.541   1.998
22044SOL    HW267972   9.067  12.634   1.993
22045SOL     OW67973  11.278  11.995  12.822
22045SOL    HW167974  11.368  12.008  12.852
22045SOL    HW267975  11.231  12.072  12.853
22046SOL     OW67976   1.473   2.399  14.274
22046SOL    HW167977   1.413   2.336  14.315
22046SOL    HW267978   1.552   2.394  14.328
22047SOL     OW67979   7.064   5.990  14.506
22047SOL    HW167980   7.152   5.952  14.513
22047SOL    HW267981   7.005   5.917  14.518
22048SOL     OW67982   4.835   2.917   0.491
22048SOL    HW167983   4.747   2.951   0.476
22048SOL    HW267984   4.892   2.994   0.485
22049SOL     OW67985   6.051   5.557  12.425
22049SOL    HW167986   6.025   5.478  12.378
22049SOL    HW267987   5.971   5.609  12.429
22050SOL     OW67988  13.707   8.837   3.547
22050SOL    HW167989  13.652   8.822   3.470
22050SOL    HW267990  13.685   8.765   3.607
22051SOL     OW67991   2.583   1.061  10.107
22051SOL    HW167992   2.605   1.146  10.146
22051SOL    HW267993   2.617   0.997  10.170
22052SOL     OW67994   5.429  10.528   6.162
22052SOL    HW167995   5.391  10.565   6.083
22052SOL    HW267996   5.378  10.448   6.178
22053SOL     OW67997   7.787   4.865  12.140
22053SOL    HW167998   7.770   4.949  12.183
22053SOL    HW267999   7.773   4.883  12.047
22054SOL     OW68000  11.552   2.173  11.316
22054SOL    HW168001  11.580   2.263  11.296
22054SOL    HW268002  11.544   2.171  11.411
22055SOL     OW68003   9.511   5.299   5.788
22055SOL    HW168004   9.433   5.282   5.735
22055SOL    HW268005   9.519   5.221   5.844
22056SOL     OW68006   3.106   7.684  12.988
22056SOL    HW168007   3.155   7.670  12.907
22056SOL    HW268008   3.014   7.683  12.961
22057SOL     OW68009  14.155  10.412   1.327
22057SOL    HW168010  14.221  10.477   1.305
22057SOL    HW268011  14.103  10.453   1.396
22058SOL     OW68012   8.620   8.408   3.629
22058SOL    HW168013   8.593   8.323   3.664
22058SOL    HW268014   8.563   8.422   3.553
22059SOL     OW68015   1.205  11.712  12.225
22059SOL    HW168016   1.259  11.646  12.269
22059SOL    HW268017   1.261  11.789  12.218
22060SOL     OW68018   5.894  11.992   0.400
22060SOL    HW168019   5.965  11.935   0.427
22060SOL    HW268020   5.926  12.035   0.321
22061SOL     OW68021   2.773   1.145   3.773
22061SOL    HW168022   2.680   1.164   3.780
22061SOL    HW268023   2.779   1.077   3.705
22062SOL     OW68024  14.772   9.121   3.627
22062SOL    HW168025  14.857   9.080   3.610
22062SOL    HW268026  14.774   9.143   3.720
22063SOL     OW68027  11.740  12.547   4.909
22063SOL    HW168028  11.764  12.633   4.945
22063SOL    HW268029  11.818  12.494   4.921
22064SOL     OW68030   1.835   7.008  11.037
22064SOL    HW168031   1.853   6.930  11.089
22064SOL    HW268032   1.763   7.052  11.083
22065SOL     OW68033   3.874   8.404   5.706
22065SOL    HW168034   3.804   8.465   5.684
22065SOL    HW268035   3.847   8.321   5.668
22066SOL     OW68036   4.273  12.094   2.770
22066SOL    HW168037   4.290  12.183   2.801
22066SOL    HW268038   4.277  12.040   2.849
22067SOL     OW68039  14.302  13.994   0.638
22067SOL    HW168040  14.261  14.057   0.698
22067SOL    HW268041  14.318  14.044   0.558
22068SOL     OW68042  13.222   1.178  11.938
22068SOL    HW168043  13.143   1.233  11.937
22068SOL    HW268044  13.264   1.198  12.021
22069SOL     OW68045   6.758   0.058   6.781
22069SOL    HW168046   6.669   0.025   6.769
22069SOL    HW268047   6.761   0.138   6.728
22070SOL     OW68048  13.780   9.422  10.967
22070SOL    HW168049  13.845   9.475  10.921
22070SOL    HW268050  13.698   9.471  10.958
22071SOL     OW68051   3.971   7.201   3.105
22071SOL    HW168052   4.018   7.164   3.030
22071SOL    HW268053   3.928   7.126   3.146
22072SOL     OW68054   8.480   1.964   1.994
22072SOL    HW168055   8.441   2.046   1.964
22072SOL    HW268056   8.574   1.977   1.984
22073SOL     OW68057  12.270  10.076   7.848
22073SOL    HW168058  12.235  10.053   7.935
22073SOL    HW268059  12.281   9.992   7.804
22074SOL     OW68060  13.942   0.322   3.124
22074SOL    HW168061  13.892   0.398   3.094
22074SOL    HW268062  13.923   0.316   3.218
22075SOL     OW68063  11.120   8.438   8.935
22075SOL    HW168064  11.163   8.518   8.967
22075SOL    HW268065  11.107   8.385   9.013
22076SOL     OW68066   5.650   1.363   1.352
22076SOL    HW168067   5.718   1.365   1.284
22076SOL    HW268068   5.680   1.295   1.413
22077SOL     OW68069   0.502   9.052  11.686
22077SOL    HW168070   0.417   9.035  11.644
22077SOL    HW268071   0.522   9.143  11.664
22078SOL     OW68072   7.767  13.125   3.883
22078SOL    HW168073   7.825  13.200   3.872
22078SOL    HW268074   7.679  13.163   3.887
22079SOL     OW68075   6.739   5.526   6.761
22079SOL    HW168076   6.814   5.470   6.739
22079SOL    HW268077   6.777   5.601   6.805
22080SOL     OW68078   0.877   6.294   1.291
22080SOL    HW168079   0.888   6.334   1.377
22080SOL    HW268080   0.965   6.266   1.266
22081SOL     OW68081   7.912  14.205  14.563
22081SOL    HW168082   7.896  14.283  14.616
22081SOL    HW268083   7.913  14.133  14.626
22082SOL     OW68084   0.254  11.229   2.859
22082SOL    HW168085   0.338  11.213   2.901
22082SOL    HW268086   0.277  11.267   2.774
22083SOL     OW68087   2.021   7.159  13.025
22083SOL    HW168088   2.085   7.222  13.057
22083SOL    HW268089   2.058   7.074  13.047
22084SOL     OW68090  13.954   9.276  12.556
22084SOL    HW168091  13.883   9.221  12.524
22084SOL    HW268092  13.972   9.244  12.645
22085SOL     OW68093   0.907   5.802  12.570
22085SOL    HW168094   0.867   5.887  12.585
22085SOL    HW268095   0.843   5.753  12.519
22086SOL     OW68096   1.093  13.102   4.899
22086SOL    HW168097   1.084  13.082   4.992
22086SOL    HW268098   1.163  13.045   4.868
22087SOL     OW68099   8.921   2.477  11.562
22087SOL    HW168100   8.880   2.537  11.500
22087SOL    HW268101   9.005   2.518  11.584
22088SOL     OW68102  11.742   7.303   8.604
22088SOL    HW168103  11.825   7.320   8.559
22088SOL    HW268104  11.702   7.232   8.553
22089SOL     OW68105  10.403   8.373   8.013
22089SOL    HW168106  10.491   8.370   8.050
22089SOL    HW268107  10.416   8.402   7.923
22090SOL     OW68108  11.961   4.220  13.371
22090SOL    HW168109  12.039   4.255  13.412
22090SOL    HW268110  11.965   4.126  13.389
22091SOL     OW68111   8.878  11.863   1.046
22091SOL    HW168112   8.793  11.833   1.012
22091SOL    HW268113   8.870  11.958   1.049
22092SOL     OW68114  11.138  12.048   5.083
22092SOL    HW168115  11.223  12.004   5.076
22092SOL    HW268116  11.156  12.139   5.059
22093SOL     OW68117   9.773  13.192   6.899
22093SOL    HW168118   9.845  13.224   6.846
22093SOL    HW268119   9.777  13.096   6.890
22094SOL     OW68120   0.954   7.398  11.207
22094SOL    HW168121   0.862   7.385  11.228
22094SOL    HW268122   1.001   7.343  11.270
22095SOL     OW68123   9.676  13.520   9.059
22095SOL    HW168124   9.606  13.475   9.011
22095SOL    HW268125   9.631  13.581   9.117
22096SOL     OW68126  14.587  14.686   9.937
22096SOL    HW168127  14.636  14.604   9.949
22096SOL    HW268128  14.495  14.659   9.933
22097SOL     OW68129   8.533   1.016   7.601
22097SOL    HW168130   8.543   1.111   7.595
22097SOL    HW268131   8.487   1.001   7.683
22098SOL     OW68132  12.024   7.505   6.419
22098SOL    HW168133  12.007   7.456   6.499
22098SOL    HW268134  12.074   7.445   6.363
22099SOL     OW68135  11.111   9.299   8.976
22099SOL    HW168136  11.024   9.262   8.958
22099SOL    HW268137  11.136   9.341   8.893
22100SOL     OW68138  11.978   8.263  10.367
22100SOL    HW168139  11.997   8.225  10.452
22100SOL    HW268140  12.051   8.322  10.350
22101SOL     OW68141  10.724  14.140   2.912
22101SOL    HW168142  10.705  14.114   2.821
22101SOL    HW268143  10.647  14.112   2.961
22102SOL     OW68144  14.376   1.105   0.571
22102SOL    HW168145  14.286   1.080   0.549
22102SOL    HW268146  14.413   1.136   0.489
22103SOL     OW68147   9.156   5.704   1.668
22103SOL    HW168148   9.167   5.636   1.602
22103SOL    HW268149   9.064   5.698   1.693
22104SOL     OW68150  13.372   1.986   0.809
22104SOL    HW168151  13.450   1.950   0.768
22104SOL    HW268152  13.400   2.008   0.898
22105SOL     OW68153   4.779   8.322   2.975
22105SOL    HW168154   4.848   8.313   3.042
22105SOL    HW268155   4.820   8.374   2.906
22106SOL     OW68156   5.693   5.882  10.262
22106SOL    HW168157   5.673   5.864  10.171
22106SOL    HW268158   5.684   5.977  10.270
22107SOL     OW68159   0.382   1.116   3.130
22107SOL    HW168160   0.415   1.126   3.220
22107SOL    HW268161   0.460   1.098   3.078
22108SOL     OW68162   4.388  11.920   4.368
22108SOL    HW168163   4.358  11.936   4.278
22108SOL    HW268164   4.398  12.008   4.405
22109SOL     OW68165   9.394  13.781  11.135
22109SOL    HW168166   9.310  13.800  11.094
22109SOL    HW268167   9.380  13.800  11.228
22110SOL     OW68168  10.143  14.542   4.066
22110SOL    HW168169  10.105  14.541   3.978
22110SOL    HW268170  10.184  14.628   4.074
22111SOL     OW68171  12.809   8.602   9.619
22111SOL    HW168172  12.732   8.567   9.574
22111SOL    HW268173  12.863   8.525   9.638
22112SOL     OW68174   3.422   2.304   7.641
22112SOL    HW168175   3.479   2.304   7.718
22112SOL    HW268176   3.476   2.341   7.571
22113SOL     OW68177   2.451   0.413   8.764
22113SOL    HW168178   2.475   0.350   8.832
22113SOL    HW268179   2.379   0.371   8.717
22114SOL     OW68180   0.588   6.170  14.419
22114SOL    HW168181   0.668   6.153  14.369
22114SOL    HW268182   0.584   6.265  14.426
22115SOL     OW68183   3.242  13.859  13.396
22115SOL    HW168184   3.191  13.779  13.395
22115SOL    HW268185   3.223  13.898  13.482
22116SOL     OW68186   5.509  14.696   2.284
22116SOL    HW168187   5.565  14.701   2.361
22116SOL    HW268188   5.478  14.786   2.271
22117SOL     OW68189   7.380   0.772  13.924
22117SOL    HW168190   7.287   0.753  13.934
22117SOL    HW268191   7.425   0.692  13.953
22118SOL     OW68192   2.503   7.039  11.468
22118SOL    HW168193   2.592   7.011  11.490
22118SOL    HW268194   2.462   6.961  11.429
22119SOL     OW68195  14.815   4.861   6.747
22119SOL    HW168196   0.001   4.802   6.778
22119SOL    HW268197  14.835   4.945   6.790
22120SOL     OW68198   5.872  10.032   8.388
22120SOL    HW168199   5.920  10.115   8.383
22120SOL    HW268200   5.938   9.968   8.414
22121SOL     OW68201   2.635   0.817   4.316
22121SOL    HW168202   2.650   0.807   4.222
22121SOL    HW268203   2.686   0.895   4.340
22122SOL     OW68204   4.181  10.022   4.692
22122SOL    HW168205   4.253   9.987   4.745
22122SOL    HW268206   4.103   9.977   4.724
22123SOL     OW68207   7.246   4.992   8.215
22123SOL    HW168208   7.215   5.018   8.129
22123SOL    HW268209   7.305   5.063   8.241
22124SOL     OW68210   0.943  13.069  14.413
22124SOL    HW168211   1.010  13.128  14.447
22124SOL    HW268212   0.993  12.999  14.370
22125SOL     OW68213   0.177  14.385   3.868
22125SOL    HW168214   0.238  14.457   3.853
22125SOL    HW268215   0.128  14.410   3.946
22126SOL     OW68216  12.998  14.050  10.408
22126SOL    HW168217  12.961  14.134  10.436
22126SOL    HW268218  13.031  14.067  10.320
22127SOL     OW68219  10.544   7.072   6.124
22127SOL    HW168220  10.489   7.137   6.081
22127SOL    HW268221  10.497   7.050   6.204
22128SOL     OW68222   9.993   8.419   7.766
22128SOL    HW168223  10.020   8.451   7.680
22128SOL    HW268224  10.034   8.479   7.828
22129SOL     OW68225   2.274  13.930   8.041
22129SOL    HW168226   2.328  13.897   8.113
22129SOL    HW268227   2.195  13.963   8.083
22130SOL     OW68228   8.421  14.712   8.685
22130SOL    HW168229   8.365  14.680   8.756
22130SOL    HW268230   8.506  14.726   8.727
22131SOL     OW68231  10.058   6.824   9.660
22131SOL    HW168232  10.012   6.777   9.730
22131SOL    HW268233  10.116   6.758   9.621
22132SOL     OW68234   4.546   1.497   4.177
22132SOL    HW168235   4.563   1.588   4.153
22132SOL    HW268236   4.621   1.473   4.232
22133SOL     OW68237  10.986   4.957   7.498
22133SOL    HW168238  10.905   5.005   7.482
22133SOL    HW268239  10.969   4.909   7.580
22134SOL     OW68240  11.316  13.153   9.622
22134SOL    HW168241  11.237  13.205   9.612
22134SOL    HW268242  11.387  13.211   9.593
22135SOL     OW68243   6.177  13.698  13.990
22135SOL    HW168244   6.263  13.662  13.967
22135SOL    HW268245   6.189  13.734  14.078
22136SOL     OW68246   8.782   8.953  13.021
22136SOL    HW168247   8.844   8.917  13.085
22136SOL    HW268248   8.702   8.969  13.072
22137SOL     OW68249   8.666   0.850   1.714
22137SOL    HW168250   8.657   0.902   1.794
22137SOL    HW268251   8.580   0.810   1.702
22138SOL     OW68252  14.704   4.383   8.985
22138SOL    HW168253  14.736   4.474   8.987
22138SOL    HW268254  14.663   4.374   8.899
22139SOL     OW68255  14.302   4.566  13.264
22139SOL    HW168256  14.231   4.520  13.218
22139SOL    HW268257  14.374   4.568  13.201
22140SOL     OW68258   9.286   7.684   7.198
22140SOL    HW168259   9.226   7.640   7.137
22140SOL    HW268260   9.360   7.712   7.143
22141SOL     OW68261   4.395  10.533   1.395
22141SOL    HW168262   4.437  10.503   1.314
22141SOL    HW268263   4.468  10.563   1.450
22142SOL     OW68264   7.265  12.942  12.660
22142SOL    HW168265   7.335  12.877  12.666
22142SOL    HW268266   7.242  12.943  12.567
22143SOL     OW68267   0.162  14.430   4.353
22143SOL    HW168268   0.182  14.445   4.445
22143SOL    HW268269   0.102  14.355   4.353
22144SOL     OW68270  11.216   6.489  13.687
22144SOL    HW168271  11.284   6.554  13.667
22144SOL    HW268272  11.154   6.536  13.742
22145SOL     OW68273  13.455  13.113   3.098
22145SOL    HW168274  13.446  13.170   3.175
22145SOL    HW268275  13.387  13.143   3.038
22146SOL     OW68276  14.654   2.888   4.843
22146SOL    HW168277  14.673   2.907   4.751
22146SOL    HW268278  14.688   2.799   4.856
22147SOL     OW68279  11.695  11.618   6.015
22147SOL    HW168280  11.633  11.620   6.088
22147SOL    HW268281  11.764  11.680   6.040
22148SOL     OW68282   9.615   1.543  12.989
22148SOL    HW168283   9.631   1.599  12.913
22148SOL    HW268284   9.616   1.454  12.954
22149SOL     OW68285   9.651   7.296  13.592
22149SOL    HW168286   9.652   7.200  13.588
22149SOL    HW268287   9.662   7.316  13.684
22150SOL     OW68288   5.687   3.946   1.409
22150SOL    HW168289   5.619   3.927   1.344
22150SOL    HW268290   5.755   3.991   1.360
22151SOL     OW68291   7.748  12.788   7.724
22151SOL    HW168292   7.699  12.836   7.790
22151SOL    HW268293   7.714  12.698   7.730
22152SOL     OW68294   2.791   8.071   3.642
22152SOL    HW168295   2.856   8.098   3.707
22152SOL    HW268296   2.788   7.976   3.649
22153SOL     OW68297  11.866   1.290   5.548
22153SOL    HW168298  11.866   1.319   5.457
22153SOL    HW268299  11.849   1.370   5.598
22154SOL     OW68300   2.633   0.063   8.426
22154SOL    HW168301   2.600   0.066   8.336
22154SOL    HW268302   2.651   0.154   8.449
22155SOL     OW68303   0.435   1.669   8.925
22155SOL    HW168304   0.485   1.605   8.875
22155SOL    HW268305   0.488   1.685   9.003
22156SOL     OW68306   5.693   1.035   7.118
22156SOL    HW168307   5.627   0.988   7.067
22156SOL    HW268308   5.661   1.126   7.119
22157SOL     OW68309  13.598  10.791  10.727
22157SOL    HW168310  13.618  10.882  10.706
22157SOL    HW268311  13.592  10.790  10.822
22158SOL     OW68312  13.277   5.713   2.154
22158SOL    HW168313  13.285   5.804   2.125
22158SOL    HW268314  13.364   5.691   2.189
22159SOL     OW68315  10.778  11.605   6.992
22159SOL    HW168316  10.849  11.597   6.929
22159SOL    HW268317  10.803  11.678   7.048
22160SOL     OW68318  14.854   1.984   1.892
22160SOL    HW168319  14.763   1.960   1.909
22160SOL    HW268320  14.853   2.080   1.884
22161SOL     OW68321   4.948   1.532   7.010
22161SOL    HW168322   5.006   1.551   6.935
22161SOL    HW268323   5.008   1.514   7.082
22162SOL     OW68324   6.020  10.522  12.403
22162SOL    HW168325   5.970  10.451  12.442
22162SOL    HW268326   6.084  10.546  12.470
22163SOL     OW68327   4.729   4.135   2.676
22163SOL    HW168328   4.715   4.187   2.755
22163SOL    HW268329   4.820   4.152   2.652
22164SOL     OW68330  14.791  13.484   7.641
22164SOL    HW168331  14.786  13.389   7.639
22164SOL    HW268332  14.840  13.507   7.563
22165SOL     OW68333  13.105  11.883   0.253
22165SOL    HW168334  13.184  11.909   0.301
22165SOL    HW268335  13.041  11.863   0.321
22166SOL     OW68336  14.477  13.831   4.173
22166SOL    HW168337  14.462  13.866   4.261
22166SOL    HW268338  14.570  13.843   4.158
22167SOL     OW68339   1.447  12.257   6.065
22167SOL    HW168340   1.496  12.297   6.137
22167SOL    HW268341   1.499  12.275   5.988
22168SOL     OW68342   7.783   2.322   8.796
22168SOL    HW168343   7.736   2.249   8.756
22168SOL    HW268344   7.872   2.315   8.763
22169SOL     OW68345   6.499   6.822  12.044
22169SOL    HW168346   6.569   6.759  12.027
22169SOL    HW268347   6.451   6.785  12.118
22170SOL     OW68348   7.000   6.978   4.168
22170SOL    HW168349   6.907   6.996   4.162
22170SOL    HW268350   7.033   7.038   4.235
22171SOL     OW68351   4.900  12.271   1.511
22171SOL    HW168352   4.992  12.290   1.493
22171SOL    HW268353   4.859  12.357   1.516
22172SOL     OW68354  14.527   7.602   1.205
22172SOL    HW168355  14.526   7.636   1.115
22172SOL    HW268356  14.579   7.666   1.254
22173SOL     OW68357   8.115  11.542   8.030
22173SOL    HW168358   8.079  11.562   8.116
22173SOL    HW268359   8.044  11.498   7.983
22174SOL     OW68360   0.704   6.379   6.017
22174SOL    HW168361   0.689   6.432   6.095
22174SOL    HW268362   0.617   6.369   5.978
22175SOL     OW68363  11.557  14.521   3.511
22175SOL    HW168364  11.562  14.612   3.541
22175SOL    HW268365  11.549  14.470   3.591
22176SOL     OW68366   2.410   4.833   7.841
22176SOL    HW168367   2.319   4.803   7.834
22176SOL    HW268368   2.442   4.792   7.921
22177SOL     OW68369   5.227   4.466   6.580
22177SOL    HW168370   5.231   4.506   6.667
22177SOL    HW268371   5.139   4.486   6.548
22178SOL     OW68372   1.286   1.762   8.525
22178SOL    HW168373   1.326   1.733   8.606
22178SOL    HW268374   1.335   1.717   8.456
22179SOL     OW68375   6.565   6.044   8.349
22179SOL    HW168376   6.481   6.015   8.314
22179SOL    HW268377   6.543   6.096   8.426
22180SOL     OW68378   9.703   1.926  12.969
22180SOL    HW168379   9.622   1.977  12.970
22180SOL    HW268380   9.729   1.922  12.877
22181SOL     OW68381   0.005   1.963   6.394
22181SOL    HW168382  14.831   1.926   6.325
22181SOL    HW268383  14.827   1.983   6.466
22182SOL     OW68384   3.391  13.200   3.084
22182SOL    HW168385   3.369  13.194   2.991
22182SOL    HW268386   3.421  13.291   3.095
22183SOL     OW68387  10.560   8.153   7.800
22183SOL    HW168388  10.529   8.243   7.800
22183SOL    HW268389  10.516   8.112   7.875
22184SOL     OW68390  10.849   2.811   9.923
22184SOL    HW168391  10.796   2.887   9.899
22184SOL    HW268392  10.871   2.825  10.015
22185SOL     OW68393   9.090  13.206   2.113
22185SOL    HW168394   8.996  13.190   2.126
22185SOL    HW268395   9.106  13.177   2.023
22186SOL     OW68396   3.608   2.627   8.412
22186SOL    HW168397   3.561   2.675   8.344
22186SOL    HW268398   3.547   2.559   8.440
22187SOL     OW68399   5.798  10.676  14.550
22187SOL    HW168400   5.854  10.747  14.518
22187SOL    HW268401   5.844  10.641  14.626
22188SOL     OW68402   7.633  12.259  10.937
22188SOL    HW168403   7.555  12.314  10.935
22188SOL    HW268404   7.660  12.260  11.029
22189SOL     OW68405   5.270   6.140  12.220
22189SOL    HW168406   5.312   6.225  12.207
22189SOL    HW268407   5.314   6.081  12.159
22190SOL     OW68408   7.152  11.852   8.697
22190SOL    HW168409   7.164  11.861   8.602
22190SOL    HW268410   7.241  11.846   8.731
22191SOL     OW68411   3.981   7.908   5.778
22191SOL    HW168412   3.990   7.827   5.828
22191SOL    HW268413   3.898   7.900   5.732
22192SOL     OW68414   8.010   2.537   5.812
22192SOL    HW168415   8.054   2.509   5.892
22192SOL    HW268416   7.937   2.591   5.843
22193SOL     OW68417  14.291   5.483  11.888
22193SOL    HW168418  14.382   5.484  11.919
22193SOL    HW268419  14.270   5.576  11.874
22194SOL     OW68420  14.155   6.351   3.656
22194SOL    HW168421  14.203   6.426   3.619
22194SOL    HW268422  14.161   6.283   3.588
22195SOL     OW68423   7.497  13.786   4.054
22195SOL    HW168424   7.529  13.876   4.059
22195SOL    HW268425   7.557  13.737   4.109
22196SOL     OW68426  13.323   0.100  12.571
22196SOL    HW168427  13.384   0.173  12.565
22196SOL    HW268428  13.297   0.082  12.480
22197SOL     OW68429  14.069   5.484  13.309
22197SOL    HW168430  14.139   5.546  13.333
22197SOL    HW268431  14.116   5.406  13.279
22198SOL     OW68432   8.699  13.860   6.611
22198SOL    HW168433   8.617  13.870   6.661
22198SOL    HW268434   8.758  13.814   6.671
22199SOL     OW68435  13.436   2.918   4.569
22199SOL    HW168436  13.429   2.844   4.510
22199SOL    HW268437  13.414   2.882   4.655
22200SOL     OW68438   8.617  11.004  10.730
22200SOL    HW168439   8.532  11.014  10.774
22200SOL    HW268440   8.668  11.080  10.758
22201SOL     OW68441   5.690  14.580   2.113
22201SOL    HW168442   5.624  14.620   2.170
22201SOL    HW268443   5.756  14.546   2.173
22202SOL     OW68444   8.386   5.746   0.830
22202SOL    HW168445   8.367   5.719   0.741
22202SOL    HW268446   8.343   5.680   0.885
22203SOL     OW68447   4.416   6.597   1.023
22203SOL    HW168448   4.339   6.547   1.051
22203SOL    HW268449   4.489   6.535   1.032
22204SOL     OW68450   2.228   8.343   8.619
22204SOL    HW168451   2.141   8.319   8.651
22204SOL    HW268452   2.289   8.304   8.682
22205SOL     OW68453  14.063   8.898   1.654
22205SOL    HW168454  14.157   8.902   1.641
22205SOL    HW268455  14.052   8.899   1.750
22206SOL     OW68456  10.014  11.903   6.857
22206SOL    HW168457  10.065  11.855   6.791
22206SOL    HW268458  10.048  11.871   6.941
22207SOL     OW68459   7.101   7.456   2.129
22207SOL    HW168460   7.133   7.379   2.081
22207SOL    HW268461   7.006   7.454   2.117
22208SOL     OW68462   7.377  11.423  11.353
22208SOL    HW168463   7.305  11.391  11.407
22208SOL    HW268464   7.381  11.362  11.279
22209SOL     OW68465  11.976   5.446  14.738
22209SOL    HW168466  11.998   5.444  14.831
22209SOL    HW268467  12.055   5.482  14.696
22210SOL     OW68468   9.396  11.496   1.303
22210SOL    HW168469   9.439  11.452   1.229
22210SOL    HW268470   9.462  11.496   1.372
22211SOL     OW68471   4.605   5.208   9.385
22211SOL    HW168472   4.659   5.157   9.445
22211SOL    HW268473   4.527   5.154   9.371
22212SOL     OW68474   1.235   5.346   4.273
22212SOL    HW168475   1.278   5.431   4.269
22212SOL    HW268476   1.249   5.308   4.186
22213SOL     OW68477   2.619   2.691   3.758
22213SOL    HW168478   2.588   2.727   3.841
22213SOL    HW268479   2.550   2.711   3.695
22214SOL     OW68480   3.362  13.946   2.834
22214SOL    HW168481   3.289  14.004   2.856
22214SOL    HW268482   3.340  13.912   2.747
22215SOL     OW68483  13.303   4.344   1.875
22215SOL    HW168484  13.354   4.421   1.849
22215SOL    HW268485  13.297   4.349   1.970
22216SOL     OW68486   0.264   4.662   2.871
22216SOL    HW168487   0.298   4.641   2.784
22216SOL    HW268488   0.296   4.591   2.927
22217SOL     OW68489   7.568   6.981   0.352
22217SOL    HW168490   7.474   6.994   0.352
22217SOL    HW268491   7.605   7.067   0.372
22218SOL     OW68492   7.136   6.453   5.801
22218SOL    HW168493   7.109   6.396   5.729
22218SOL    HW268494   7.067   6.444   5.866
22219SOL     OW68495   2.399   4.523   3.512
22219SOL    HW168496   2.442   4.608   3.524
22219SOL    HW268497   2.425   4.495   3.425
22220SOL     OW68498   8.396  11.460   4.612
22220SOL    HW168499   8.402  11.549   4.578
22220SOL    HW268500   8.451  11.407   4.554
22221SOL     OW68501  13.589   4.973   5.622
22221SOL    HW168502  13.517   4.954   5.681
22221SOL    HW268503  13.557   5.043   5.565
22222SOL     OW68504  13.321  14.757   2.398
22222SOL    HW168505  13.258  14.829   2.402
22222SOL    HW268506  13.274  14.683   2.436
22223SOL     OW68507   8.791  11.025   4.368
22223SOL    HW168508   8.869  11.079   4.378
22223SOL    HW268509   8.767  11.034   4.276
22224SOL     OW68510   0.401  13.280   6.813
22224SOL    HW168511   0.352  13.218   6.757
22224SOL    HW268512   0.477  13.230   6.843
22225SOL     OW68513   6.973   2.669   5.976
22225SOL    HW168514   6.931   2.680   5.891
22225SOL    HW268515   7.012   2.582   5.973
22226SOL     OW68516  11.474  13.129   7.980
22226SOL    HW168517  11.543  13.158   8.040
22226SOL    HW268518  11.452  13.041   8.009
22227SOL     OW68519   0.963   8.517   2.699
22227SOL    HW168520   0.875   8.548   2.719
22227SOL    HW268521   1.010   8.594   2.667
22228SOL     OW68522   6.012   5.078   6.821
22228SOL    HW168523   6.055   5.021   6.885
22228SOL    HW268524   6.083   5.111   6.766
22229SOL     OW68525   0.141   3.726   3.650
22229SOL    HW168526   0.218   3.721   3.706
22229SOL    HW268527   0.105   3.814   3.667
22230SOL     OW68528  11.302   0.097  12.234
22230SOL    HW168529  11.307   0.087  12.139
22230SOL    HW268530  11.238   0.167  12.247
22231SOL     OW68531   6.582   6.585   3.177
22231SOL    HW168532   6.669   6.626   3.186
22231SOL    HW268533   6.582   6.548   3.089
22232SOL     OW68534   2.782  12.647   6.209
22232SOL    HW168535   2.731  12.631   6.130
22232SOL    HW268536   2.847  12.577   6.209
22233SOL     OW68537   2.957   1.113  13.549
22233SOL    HW168538   2.959   1.203  13.582
22233SOL    HW268539   2.873   1.106  13.504
22234SOL     OW68540   7.923   4.013   3.810
22234SOL    HW168541   7.915   3.978   3.899
22234SOL    HW268542   7.994   4.077   3.815
22235SOL     OW68543   3.707   7.888  11.478
22235SOL    HW168544   3.784   7.945  11.485
22235SOL    HW268545   3.731   7.823  11.412
22236SOL     OW68546   7.824   9.232  11.504
22236SOL    HW168547   7.778   9.255  11.585
22236SOL    HW268548   7.916   9.223  11.529
22237SOL     OW68549  12.938  12.833   0.088
22237SOL    HW168550  12.954  12.842   0.182
22237SOL    HW268551  12.844  12.815   0.081
22238SOL     OW68552   9.795   6.313  12.386
22238SOL    HW168553   9.800   6.409  12.386
22238SOL    HW268554   9.702   6.294  12.402
22239SOL     OW68555  13.973   9.109  14.582
22239SOL    HW168556  13.905   9.091  14.646
22239SOL    HW268557  14.026   9.029  14.580
22240SOL     OW68558   2.409   4.714   0.885
22240SOL    HW168559   2.462   4.731   0.808
22240SOL    HW268560   2.365   4.797   0.903
22241SOL     OW68561   9.713   0.226   6.620
22241SOL    HW168562   9.716   0.143   6.571
22241SOL    HW268563   9.735   0.293   6.556
22242SOL     OW68564   3.216   9.553  11.321
22242SOL    HW168565   3.285   9.488  11.333
22242SOL    HW268566   3.263   9.636  11.314
22243SOL     OW68567   6.868  11.137   5.685
22243SOL    HW168568   6.778  11.112   5.669
22243SOL    HW268569   6.866  11.178   5.772
22244SOL     OW68570  13.153  10.671   4.203
22244SOL    HW168571  13.230  10.695   4.151
22244SOL    HW268572  13.183  10.675   4.294
22245SOL     OW68573   4.552   7.963   5.851
22245SOL    HW168574   4.598   8.046   5.833
22245SOL    HW268575   4.464   7.976   5.815
22246SOL     OW68576  12.000   0.192   4.069
22246SOL    HW168577  11.912   0.162   4.046
22246SOL    HW268578  12.000   0.285   4.049
22247SOL     OW68579   2.481  10.134   2.773
22247SOL    HW168580   2.432  10.211   2.802
22247SOL    HW268581   2.518  10.160   2.689
22248SOL     OW68582  13.737   7.093  10.714
22248SOL    HW168583  13.822   7.135  10.724
22248SOL    HW268584  13.699   7.133  10.637
22249SOL     OW68585   6.278   8.965   5.594
22249SOL    HW168586   6.338   8.895   5.618
22249SOL    HW268587   6.191   8.923   5.596
22250SOL     OW68588  10.162   4.204   5.326
22250SOL    HW168589  10.197   4.280   5.372
22250SOL    HW268590  10.231   4.180   5.264
22251SOL     OW68591   2.306   1.450  11.479
22251SOL    HW168592   2.327   1.409  11.395
22251SOL    HW268593   2.227   1.405  11.509
22252SOL     OW68594   5.703   9.180   2.282
22252SOL    HW168595   5.685   9.135   2.199
22252SOL    HW268596   5.661   9.265   2.273
22253SOL     OW68597   1.894   1.601  14.378
22253SOL    HW168598   1.963   1.544  14.412
22253SOL    HW268599   1.929   1.689  14.389
22254SOL     OW68600   1.977   5.475   4.818
22254SOL    HW168601   1.925   5.536   4.870
22254SOL    HW268602   2.068   5.502   4.835
22255SOL     OW68603  13.819   5.916   9.155
22255SOL    HW168604  13.867   5.987   9.112
22255SOL    HW268605  13.774   5.959   9.228
22256SOL     OW68606   8.575   1.782   1.470
22256SOL    HW168607   8.573   1.796   1.375
22256SOL    HW268608   8.531   1.859   1.506
22257SOL     OW68609   1.998  14.657   8.159
22257SOL    HW168610   2.064  14.697   8.101
22257SOL    HW268611   1.947  14.731   8.191
22258SOL     OW68612  11.882   9.916   5.686
22258SOL    HW168613  11.915   9.864   5.759
22258SOL    HW268614  11.919   9.874   5.608
22259SOL     OW68615   7.550   3.208   8.431
22259SOL    HW168616   7.625   3.234   8.378
22259SOL    HW268617   7.587   3.154   8.501
22260SOL     OW68618   6.077   3.997  11.214
22260SOL    HW168619   6.172   3.983  11.210
22260SOL    HW268620   6.048   3.944  11.289
22261SOL     OW68621   9.289   0.229   4.281
22261SOL    HW168622   9.334   0.156   4.323
22261SOL    HW268623   9.228   0.187   4.220
22262SOL     OW68624   8.545   1.688  13.217
22262SOL    HW168625   8.521   1.759  13.157
22262SOL    HW268626   8.640   1.680  13.208
22263SOL     OW68627   9.436   6.059   4.600
22263SOL    HW168628   9.374   6.114   4.648
22263SOL    HW268629   9.395   5.973   4.597
22264SOL     OW68630  11.057  11.229   1.519
22264SOL    HW168631  10.993  11.301   1.515
22264SOL    HW268632  11.007  11.151   1.495
22265SOL     OW68633   6.106  10.833   7.187
22265SOL    HW168634   6.170  10.852   7.255
22265SOL    HW268635   6.044  10.906   7.192
22266SOL     OW68636   6.924  10.223  12.731
22266SOL    HW168637   7.011  10.248  12.702
22266SOL    HW268638   6.899  10.290  12.794
22267SOL     OW68639   4.536   7.685   0.136
22267SOL    HW168640   4.608   7.630   0.105
22267SOL    HW268641   4.491   7.632   0.201
22268SOL     OW68642   1.657  13.308  13.099
22268SOL    HW168643   1.639  13.254  13.176
22268SOL    HW268644   1.736  13.269  13.061
22269SOL     OW68645   7.214  13.936   8.991
22269SOL    HW168646   7.257  13.852   9.010
22269SOL    HW268647   7.123  13.912   8.971
22270SOL     OW68648  13.026   9.895   0.020
22270SOL    HW168649  13.000   9.901   0.112
22270SOL    HW268650  13.121   9.882   0.022
22271SOL     OW68651  13.158   5.917   9.727
22271SOL    HW168652  13.160   6.013   9.724
22271SOL    HW268653  13.199   5.895   9.810
22272SOL     OW68654  10.799   1.252  11.566
22272SOL    HW168655  10.717   1.301  11.566
22272SOL    HW268656  10.784   1.182  11.502
22273SOL     OW68657   1.766  13.683  13.343
22273SOL    HW168658   1.820  13.610  13.312
22273SOL    HW268659   1.703  13.643  13.403
22274SOL     OW68660  10.403   6.627   2.166
22274SOL    HW168661  10.390   6.539   2.200
22274SOL    HW268662  10.469   6.665   2.225
22275SOL     OW68663   5.682   5.499  14.485
22275SOL    HW168664   5.735   5.521  14.561
22275SOL    HW268665   5.711   5.412  14.459
22276SOL     OW68666  13.560   1.692   7.158
22276SOL    HW168667  13.610   1.671   7.237
22276SOL    HW268668  13.534   1.783   7.170
22277SOL     OW68669  13.083   9.985   0.883
22277SOL    HW168670  13.031   9.918   0.839
22277SOL    HW268671  13.027  10.017   0.954
22278SOL     OW68672   3.175   4.101  13.950
22278SOL    HW168673   3.128   4.184  13.937
22278SOL    HW268674   3.256   4.111  13.899
22279SOL     OW68675  13.346  11.939   4.834
22279SOL    HW168676  13.423  11.902   4.792
22279SOL    HW268677  13.378  12.014   4.884
22280SOL     OW68678   9.109  11.926   3.992
22280SOL    HW168679   9.195  11.951   3.956
22280SOL    HW268680   9.092  11.990   4.060
22281SOL     OW68681   6.191   1.903  14.462
22281SOL    HW168682   6.218   1.849  14.387
22281SOL    HW268683   6.110   1.862  14.493
22282SOL     OW68684   6.329  12.199   5.620
22282SOL    HW168685   6.417  12.171   5.644
22282SOL    HW268686   6.342  12.259   5.546
22283SOL     OW68687   4.348  13.680   1.691
22283SOL    HW168688   4.406  13.613   1.727
22283SOL    HW268689   4.281  13.693   1.758
22284SOL     OW68690  14.539   5.414   5.049
22284SOL    HW168691  14.562   5.415   5.142
22284SOL    HW268692  14.567   5.327   5.019
22285SOL     OW68693   1.897  14.842  13.143
22285SOL    HW168694   1.944   0.028  13.095
22285SOL    HW268695   1.966  14.788  13.181
22286SOL     OW68696   4.831   8.301   1.804
22286SOL    HW168697   4.830   8.388   1.844
22286SOL    HW268698   4.924   8.281   1.793
22287SOL     OW68699   5.970   0.854  14.226
22287SOL    HW168700   6.065   0.858  14.215
22287SOL    HW268701   5.937   0.832  14.139
22288SOL     OW68702   5.048   0.147   8.176
22288SOL    HW168703   5.007   0.216   8.229
22288SOL    HW268704   5.053   0.184   8.088
22289SOL     OW68705   2.054   9.563  12.370
22289SOL    HW168706   2.135   9.528  12.405
22289SOL    HW268707   2.009   9.602  12.446
22290SOL     OW68708  14.446   5.391  12.704
22290SOL    HW168709  14.396   5.428  12.631
22290SOL    HW268710  14.527   5.358  12.665
22291SOL     OW68711   8.644   0.530  10.808
22291SOL    HW168712   8.566   0.522  10.754
22291SOL    HW268713   8.614   0.507  10.896
22292SOL     OW68714   1.558  13.856   6.851
22292SOL    HW168715   1.574  13.950   6.839
22292SOL    HW268716   1.469  13.851   6.887
22293SOL     OW68717  10.260  12.914   8.978
22293SOL    HW168718  10.183  12.934   9.031
22293SOL    HW268719  10.243  12.827   8.943
22294SOL     OW68720   9.999  14.296   0.215
22294SOL    HW168721  10.042  14.306   0.130
22294SOL    HW268722  10.034  14.366   0.269
22295SOL     OW68723   4.473   5.182   9.053
22295SOL    HW168724   4.523   5.257   9.085
22295SOL    HW268725   4.413   5.160   9.124
22296SOL     OW68726  12.251   9.617   5.365
22296SOL    HW168727  12.255   9.558   5.290
22296SOL    HW268728  12.249   9.559   5.442
22297SOL     OW68729   8.296  12.807   6.197
22297SOL    HW168730   8.389  12.826   6.200
22297SOL    HW268731   8.290  12.723   6.152
22298SOL     OW68732  14.875   6.200   8.224
22298SOL    HW168733  14.802   6.242   8.179
22298SOL    HW268734   0.062   6.195   8.159
22299SOL     OW68735   2.492   5.505   7.718
22299SOL    HW168736   2.490   5.421   7.672
22299SOL    HW268737   2.570   5.549   7.684
22300SOL     OW68738  13.519  13.938   3.257
22300SOL    HW168739  13.450  13.886   3.299
22300SOL    HW268740  13.473  14.016   3.224
22301SOL     OW68741   7.543   2.033  10.641
22301SOL    HW168742   7.480   1.962  10.626
22301SOL    HW268743   7.488   2.112  10.644
22302SOL     OW68744   8.322  11.177   8.708
22302SOL    HW168745   8.310  11.241   8.779
22302SOL    HW268746   8.247  11.190   8.650
22303SOL     OW68747   8.049   8.187   2.413
22303SOL    HW168748   8.134   8.230   2.413
22303SOL    HW268749   7.999   8.233   2.345
22304SOL     OW68750   2.019   0.503  12.018
22304SOL    HW168751   2.021   0.416  12.058
22304SOL    HW268752   2.033   0.486  11.925
22305SOL     OW68753   8.022   5.953   7.288
22305SOL    HW168754   8.011   5.894   7.364
22305SOL    HW268755   8.071   5.901   7.225
22306SOL     OW68756   5.649   7.627   4.165
22306SOL    HW168757   5.662   7.586   4.250
22306SOL    HW268758   5.682   7.563   4.102
22307SOL     OW68759  10.255   6.067   9.749
22307SOL    HW168760  10.280   6.095   9.837
22307SOL    HW268761  10.234   5.974   9.758
22308SOL     OW68762   9.861  13.010   0.053
22308SOL    HW168763   9.905  12.989  14.853
22308SOL    HW268764   9.880  12.936   0.110
22309SOL     OW68765  11.919   8.601   5.324
22309SOL    HW168766  12.008   8.576   5.347
22309SOL    HW268767  11.917   8.602   5.229
22310SOL     OW68768   1.155  13.918  10.979
22310SOL    HW168769   1.132  13.826  10.967
22310SOL    HW268770   1.070  13.962  10.992
22311SOL     OW68771  10.905  10.450   3.278
22311SOL    HW168772  10.844  10.495   3.219
22311SOL    HW268773  10.899  10.498   3.360
22312SOL     OW68774   1.818   5.466   1.213
22312SOL    HW168775   1.840   5.530   1.281
22312SOL    HW268776   1.725   5.446   1.228
22313SOL     OW68777   0.383   1.836   2.959
22313SOL    HW168778   0.314   1.902   2.960
22313SOL    HW268779   0.423   1.841   3.045
22314SOL     OW68780   9.643   7.693   3.729
22314SOL    HW168781   9.632   7.690   3.824
22314SOL    HW268782   9.557   7.672   3.694
22315SOL     OW68783   6.617   6.049   7.953
22315SOL    HW168784   6.682   6.045   7.884
22315SOL    HW268785   6.539   6.087   7.912
22316SOL     OW68786   1.495   2.942  10.239
22316SOL    HW168787   1.581   2.982  10.225
22316SOL    HW268788   1.433   3.013  10.221
22317SOL     OW68789   6.759   7.831  14.591
22317SOL    HW168790   6.718   7.749  14.561
22317SOL    HW268791   6.720   7.899  14.536
22318SOL     OW68792   7.097  11.024   5.311
22318SOL    HW168793   7.181  11.045   5.270
22318SOL    HW268794   7.120  10.972   5.388
22319SOL     OW68795   9.527  10.396  11.880
22319SOL    HW168796   9.478  10.392  11.798
22319SOL    HW268797   9.578  10.315  11.882
22320SOL     OW68798   1.481   1.913   5.219
22320SOL    HW168799   1.566   1.869   5.225
22320SOL    HW268800   1.501   2.000   5.186
22321SOL     OW68801   6.861  11.922   6.407
22321SOL    HW168802   6.768  11.904   6.399
22321SOL    HW268803   6.871  12.012   6.375
22322SOL     OW68804  10.481   5.665   4.855
22322SOL    HW168805  10.415   5.633   4.916
22322SOL    HW268806  10.440   5.658   4.769
22323SOL     OW68807   6.194   8.038   1.096
22323SOL    HW168808   6.188   8.132   1.078
22323SOL    HW268809   6.270   8.030   1.155
22324SOL     OW68810   2.980   7.166  13.699
22324SOL    HW168811   2.938   7.244  13.735
22324SOL    HW268812   3.067   7.196  13.671
22325SOL     OW68813  14.669   2.881   8.330
22325SOL    HW168814  14.756   2.894   8.368
22325SOL    HW268815  14.609   2.892   8.403
22326SOL     OW68816   6.218   0.469   7.635
22326SOL    HW168817   6.217   0.388   7.685
22326SOL    HW268818   6.186   0.535   7.696
22327SOL     OW68819   6.624   2.465  14.739
22327SOL    HW168820   6.550   2.403  14.734
22327SOL    HW268821   6.584   2.548  14.765
22328SOL     OW68822   6.742   2.052   2.971
22328SOL    HW168823   6.779   1.970   2.938
22328SOL    HW268824   6.781   2.119   2.915
22329SOL     OW68825   6.323   1.702   8.361
22329SOL    HW168826   6.400   1.759   8.366
22329SOL    HW268827   6.249   1.763   8.358
22330SOL     OW68828  12.469  11.341  10.573
22330SOL    HW168829  12.456  11.426  10.617
22330SOL    HW268830  12.556  11.313  10.603
22331SOL     OW68831   5.340   9.302   3.399
22331SOL    HW168832   5.402   9.307   3.326
22331SOL    HW268833   5.388   9.339   3.473
22332SOL     OW68834   9.047   0.342  13.400
22332SOL    HW168835   9.066   0.358  13.492
22332SOL    HW268836   9.072   0.423  13.355
22333SOL     OW68837   8.169   1.893  11.182
22333SOL    HW168838   8.145   1.891  11.275
22333SOL    HW268839   8.087   1.883  11.135
22334SOL     OW68840  14.406  11.735  13.069
22334SOL    HW168841  14.482  11.776  13.109
22334SOL    HW268842  14.374  11.674  13.136
22335SOL     OW68843   9.392   6.580  13.784
22335SOL    HW168844   9.312   6.537  13.814
22335SOL    HW268845   9.456   6.559  13.852
22336SOL     OW68846   5.755   1.719   2.578
22336SOL    HW168847   5.785   1.688   2.492
22336SOL    HW268848   5.664   1.689   2.584
22337SOL     OW68849  12.344   2.231  12.118
22337SOL    HW168850  12.432   2.266  12.133
22337SOL    HW268851  12.288   2.280  12.178
22338SOL     OW68852   2.465   0.938  11.541
22338SOL    HW168853   2.497   1.026  11.519
22338SOL    HW268854   2.498   0.922  11.629
22339SOL     OW68855   9.913   8.297   2.380
22339SOL    HW168856   9.924   8.240   2.305
22339SOL    HW268857   9.998   8.294   2.425
22340SOL     OW68858  13.329   3.301  12.821
22340SOL    HW168859  13.282   3.222  12.846
22340SOL    HW268860  13.314   3.311  12.727
22341SOL     OW68861  11.221  11.335   0.413
22341SOL    HW168862  11.133  11.335   0.375
22341SOL    HW268863  11.265  11.261   0.372
22342SOL     OW68864   0.559   5.304   1.471
22342SOL    HW168865   0.473   5.337   1.498
22342SOL    HW268866   0.546   5.279   1.379
22343SOL     OW68867   4.566   8.541   7.004
22343SOL    HW168868   4.538   8.630   6.983
22343SOL    HW268869   4.577   8.499   6.919
22344SOL     OW68870   4.780   9.832   3.820
22344SOL    HW168871   4.735   9.860   3.900
22344SOL    HW268872   4.713   9.833   3.752
22345SOL     OW68873  12.582   9.191  10.115
22345SOL    HW168874  12.578   9.258  10.047
22345SOL    HW268875  12.536   9.230  10.190
22346SOL     OW68876  14.221   2.465   5.704
22346SOL    HW168877  14.252   2.502   5.621
22346SOL    HW268878  14.126   2.457   5.692
22347SOL     OW68879  11.243   6.183   2.857
22347SOL    HW168880  11.240   6.093   2.891
22347SOL    HW268881  11.152   6.206   2.840
22348SOL     OW68882   1.062  12.191   4.175
22348SOL    HW168883   1.089  12.237   4.255
22348SOL    HW268884   1.125  12.221   4.109
22349SOL     OW68885   0.778   7.504   6.064
22349SOL    HW168886   0.859   7.469   6.027
22349SOL    HW268887   0.738   7.430   6.109
22350SOL     OW68888  12.761   2.133   8.644
22350SOL    HW168889  12.720   2.176   8.719
22350SOL    HW268890  12.823   2.071   8.684
22351SOL     OW68891   4.003   9.890   5.962
22351SOL    HW168892   4.094   9.867   5.983
22351SOL    HW268893   3.952   9.857   6.036
22352SOL     OW68894  14.591  14.110   0.647
22352SOL    HW168895  14.526  14.041   0.634
22352SOL    HW268896  14.618  14.134   0.558
22353SOL     OW68897   4.405  14.288  10.771
22353SOL    HW168898   4.361  14.212  10.731
22353SOL    HW268899   4.478  14.307  10.712
22354SOL     OW68900  11.721  10.284   2.938
22354SOL    HW168901  11.714  10.189   2.942
22354SOL    HW268902  11.809  10.300   2.904
22355SOL     OW68903   0.771   6.170   7.859
22355SOL    HW168904   0.819   6.088   7.874
22355SOL    HW268905   0.679   6.144   7.861
22356SOL     OW68906   9.367   9.806  11.464
22356SOL    HW168907   9.385   9.888  11.511
22356SOL    HW268908   9.331   9.834  11.380
22357SOL     OW68909   4.000   4.605   8.150
22357SOL    HW168910   3.915   4.631   8.114
22357SOL    HW268911   4.049   4.686   8.157
22358SOL     OW68912  13.265   4.994   0.005
22358SOL    HW168913  13.332   4.949  14.837
22358SOL    HW268914  13.198   4.928   0.022
22359SOL     OW68915   8.917  14.676  11.427
22359SOL    HW168916   8.823  14.662  11.421
22359SOL    HW268917   8.942  14.642  11.513
22360SOL     OW68918   7.738   7.743   6.545
22360SOL    HW168919   7.800   7.724   6.616
22360SOL    HW268920   7.719   7.657   6.507
22361SOL     OW68921   1.474  12.138   2.168
22361SOL    HW168922   1.564  12.139   2.199
22361SOL    HW268923   1.447  12.230   2.167
22362SOL     OW68924   0.778   0.388   3.818
22362SOL    HW168925   0.736   0.369   3.734
22362SOL    HW268926   0.708   0.377   3.882
22363SOL     OW68927   3.800   4.363   0.403
22363SOL    HW168928   3.859   4.438   0.396
22363SOL    HW268929   3.807   4.319   0.318
22364SOL     OW68930  11.581  10.639   5.860
22364SOL    HW168931  11.649  10.701   5.833
22364SOL    HW268932  11.506  10.659   5.805
22365SOL     OW68933  12.383  14.745   4.512
22365SOL    HW168934  12.455  14.794   4.473
22365SOL    HW268935  12.426  14.688   4.577
22366SOL     OW68936   1.028   1.728   5.841
22366SOL    HW168937   1.051   1.672   5.767
22366SOL    HW268938   0.933   1.736   5.838
22367SOL     OW68939   9.238   6.366   9.627
22367SOL    HW168940   9.315   6.318   9.595
22367SOL    HW268941   9.263   6.458   9.621
22368SOL     OW68942   1.355  10.125   4.064
22368SOL    HW168943   1.444  10.107   4.092
22368SOL    HW268944   1.309  10.147   4.145
22369SOL     OW68945   4.778  11.012   0.705
22369SOL    HW168946   4.784  11.065   0.625
22369SOL    HW268947   4.856  11.036   0.755
22370SOL     OW68948   1.901   6.263  13.437
22370SOL    HW168949   1.876   6.247  13.528
22370SOL    HW268950   1.989   6.227  13.429
22371SOL     OW68951  10.222  13.290   0.167
22371SOL    HW168952  10.222  13.383   0.144
22371SOL    HW268953  10.194  13.245   0.087
22372SOL     OW68954   3.558   4.532   0.186
22372SOL    HW168955   3.524   4.613   0.149
22372SOL    HW268956   3.557   4.469   0.114
22373SOL     OW68957   4.585   6.939   7.240
22373SOL    HW168958   4.580   6.845   7.255
22373SOL    HW268959   4.613   6.976   7.324
22374SOL     OW68960  10.204  12.397   9.817
22374SOL    HW168961  10.127  12.443   9.783
22374SOL    HW268962  10.227  12.445   9.896
22375SOL     OW68963  13.335  10.690   2.949
22375SOL    HW168964  13.374  10.775   2.973
22375SOL    HW268965  13.398  10.651   2.889
22376SOL     OW68966   4.277   1.617   8.796
22376SOL    HW168967   4.195   1.568   8.790
22376SOL    HW268968   4.284   1.641   8.888
22377SOL     OW68969   8.164   5.352   1.298
22377SOL    HW168970   8.198   5.392   1.218
22377SOL    HW268971   8.240   5.309   1.337
22378SOL     OW68972  13.915   0.731   0.772
22378SOL    HW168973  13.826   0.762   0.760
22378SOL    HW268974  13.912   0.678   0.852
22379SOL     OW68975   8.270   1.290   5.381
22379SOL    HW168976   8.193   1.283   5.325
22379SOL    HW268977   8.288   1.384   5.385
22380SOL     OW68978   9.596   4.930   5.092
22380SOL    HW168979   9.674   4.903   5.043
22380SOL    HW268980   9.577   4.857   5.150
22381SOL     OW68981   0.926   7.174   2.700
22381SOL    HW168982   0.857   7.123   2.657
22381SOL    HW268983   0.887   7.203   2.782
22382SOL     OW68984   5.889  11.858   6.705
22382SOL    HW168985   5.851  11.782   6.660
22382SOL    HW268986   5.916  11.917   6.634
22383SOL     OW68987   0.201   3.341   4.224
22383SOL    HW168988   0.229   3.333   4.133
22383SOL    HW268989   0.110   3.312   4.224
22384SOL     OW68990  12.764   4.321   1.223
22384SOL    HW168991  12.801   4.265   1.155
22384SOL    HW268992  12.828   4.319   1.294
22385SOL     OW68993  14.228  14.498  10.848
22385SOL    HW168994  14.234  14.478  10.941
22385SOL    HW268995  14.159  14.563  10.841
22386SOL     OW68996   4.915  13.949  13.245
22386SOL    HW168997   4.877  14.036  13.261
22386SOL    HW268998   5.003  13.968  13.213
22387SOL     OW68999  11.704  11.356   2.263
22387SOL    HW169000  11.714  11.428   2.200
22387SOL    HW269001  11.705  11.277   2.209
22388SOL     OW69002   3.165   6.497   8.133
22388SOL    HW169003   3.096   6.447   8.089
22388SOL    HW269004   3.206   6.434   8.193
22389SOL     OW69005   8.223  12.116   0.226
22389SOL    HW169006   8.192  12.197   0.184
22389SOL    HW269007   8.195  12.124   0.317
22390SOL     OW69008   0.325   4.171   4.993
22390SOL    HW169009   0.272   4.247   5.018
22390SOL    HW269010   0.415   4.203   4.995
22391SOL     OW69011   8.324  10.990   9.541
22391SOL    HW169012   8.330  10.901   9.505
22391SOL    HW269013   8.262  11.034   9.484
22392SOL     OW69014   7.714   7.120   2.345
22392SOL    HW169015   7.740   7.148   2.433
22392SOL    HW269016   7.619   7.121   2.347
22393SOL     OW69017   5.359   7.108   6.732
22393SOL    HW169018   5.382   7.185   6.680
22393SOL    HW269019   5.298   7.142   6.798
22394SOL     OW69020   3.809   0.861   7.148
22394SOL    HW169021   3.774   0.775   7.168
22394SOL    HW269022   3.833   0.898   7.233
22395SOL     OW69023   7.533   4.850   5.193
22395SOL    HW169024   7.479   4.862   5.271
22395SOL    HW269025   7.574   4.936   5.179
22396SOL     OW69026   6.423  13.295  10.520
22396SOL    HW169027   6.408  13.390  10.524
22396SOL    HW269028   6.421  13.267  10.611
22397SOL     OW69029   0.715   8.563   0.960
22397SOL    HW169030   0.766   8.642   0.943
22397SOL    HW269031   0.640   8.593   1.011
22398SOL     OW69032   1.384   1.801   3.674
22398SOL    HW169033   1.289   1.789   3.677
22398SOL    HW269034   1.406   1.792   3.581
22399SOL     OW69035  12.299  13.491  13.165
22399SOL    HW169036  12.383  13.524  13.134
22399SOL    HW269037  12.238  13.511  13.094
22400SOL     OW69038   1.054  13.481  12.444
22400SOL    HW169039   1.046  13.567  12.484
22400SOL    HW269040   1.093  13.497  12.359
22401SOL     OW69041   9.797   9.667  10.351
22401SOL    HW169042   9.765   9.651  10.440
22401SOL    HW269043   9.721   9.651  10.295
22402SOL     OW69044  13.830  10.134  11.383
22402SOL    HW169045  13.738  10.116  11.368
22402SOL    HW269046  13.839  10.229  11.371
22403SOL     OW69047   4.139   9.871  13.063
22403SOL    HW169048   4.096   9.787  13.076
22403SOL    HW269049   4.068   9.933  13.045
22404SOL     OW69050  10.700   9.880   8.938
22404SOL    HW169051  10.615   9.841   8.956
22404SOL    HW269052  10.683   9.973   8.927
22405SOL     OW69053  14.504   0.325   6.480
22405SOL    HW169054  14.502   0.421   6.476
22405SOL    HW269055  14.525   0.298   6.391
22406SOL     OW69056   7.978  10.974   1.255
22406SOL    HW169057   7.972  10.880   1.270
22406SOL    HW269058   8.064  10.988   1.215
22407SOL     OW69059   1.471   8.260   4.030
22407SOL    HW169060   1.418   8.299   4.099
22407SOL    HW269061   1.538   8.326   4.010
22408SOL     OW69062   4.919   2.071   2.027
22408SOL    HW169063   4.871   2.016   1.966
22408SOL    HW269064   4.964   2.009   2.085
22409SOL     OW69065   3.062   5.154   1.601
22409SOL    HW169066   3.033   5.215   1.533
22409SOL    HW269067   3.143   5.193   1.634
22410SOL     OW69068   6.785   0.292  11.143
22410SOL    HW169069   6.856   0.248  11.190
22410SOL    HW269070   6.764   0.367  11.198
22411SOL     OW69071   5.032   2.769  10.298
22411SOL    HW169072   5.084   2.723  10.232
22411SOL    HW269073   5.059   2.732  10.381
22412SOL     OW69074   4.651   1.843   4.575
22412SOL    HW169075   4.582   1.799   4.526
22412SOL    HW269076   4.608   1.874   4.655
22413SOL     OW69077  14.254   1.567  12.337
22413SOL    HW169078  14.324   1.629  12.316
22413SOL    HW269079  14.205   1.556  12.256
22414SOL     OW69080  13.480   4.187   4.565
22414SOL    HW169081  13.441   4.207   4.480
22414SOL    HW269082  13.574   4.178   4.547
22415SOL     OW69083   1.737  10.872   5.761
22415SOL    HW169084   1.812  10.813   5.760
22415SOL    HW269085   1.661  10.814   5.759
22416SOL     OW69086  10.511   1.683   9.749
22416SOL    HW169087  10.461   1.738   9.688
22416SOL    HW269088  10.473   1.596   9.740
22417SOL     OW69089   4.616   6.435   4.919
22417SOL    HW169090   4.648   6.519   4.952
22417SOL    HW269091   4.690   6.400   4.870
22418SOL     OW69092   1.941   7.460  10.602
22418SOL    HW169093   1.870   7.486  10.543
22418SOL    HW269094   2.019   7.501  10.565
22419SOL     OW69095  10.370   3.123   6.219
22419SOL    HW169096  10.320   3.088   6.146
22419SOL    HW269097  10.336   3.211   6.232
22420SOL     OW69098   0.765   0.478   4.833
22420SOL    HW169099   0.680   0.433   4.840
22420SOL    HW269100   0.827   0.407   4.815
22421SOL     OW69101   7.696   6.106  10.397
22421SOL    HW169102   7.716   6.154  10.477
22421SOL    HW269103   7.601   6.094  10.400
22422SOL     OW69104   8.877   4.766  14.491
22422SOL    HW169105   8.929   4.799  14.565
22422SOL    HW269106   8.923   4.797  14.413
22423SOL     OW69107   5.895  11.134   5.028
22423SOL    HW169108   5.865  11.043   5.035
22423SOL    HW269109   5.968  11.131   4.968
22424SOL     OW69110   5.346   8.433   6.123
22424SOL    HW169111   5.305   8.514   6.091
22424SOL    HW269112   5.363   8.450   6.216
22425SOL     OW69113   1.806  13.120  10.844
22425SOL    HW169114   1.842  13.110  10.933
22425SOL    HW269115   1.884  13.124  10.788
22426SOL     OW69116   7.683  13.776  11.125
22426SOL    HW169117   7.745  13.745  11.190
22426SOL    HW269118   7.708  13.730  11.044
22427SOL     OW69119   3.207  13.771  11.033
22427SOL    HW169120   3.144  13.831  10.994
22427SOL    HW269121   3.274  13.827  11.071
22428SOL     OW69122   8.276  14.301  12.035
22428SOL    HW169123   8.189  14.262  12.039
22428SOL    HW269124   8.302  14.312  12.126
22429SOL     OW69125  10.652   7.937   1.948
22429SOL    HW169126  10.597   7.943   2.026
22429SOL    HW269127  10.693   7.851   1.954
22430SOL     OW69128   9.937   7.873   4.583
22430SOL    HW169129   9.960   7.869   4.490
22430SOL    HW269130   9.994   7.941   4.619
22431SOL     OW69131   6.777  11.568   5.853
22431SOL    HW169132   6.865  11.560   5.815
22431SOL    HW269133   6.781  11.646   5.908
22432SOL     OW69134   8.791   1.606  10.670
22432SOL    HW169135   8.761   1.634  10.757
22432SOL    HW269136   8.713   1.570  10.628
22433SOL     OW69137  13.185   7.297   7.823
22433SOL    HW169138  13.093   7.298   7.849
22433SOL    HW269139  13.184   7.318   7.730
22434SOL     OW69140   7.404   0.276   6.103
22434SOL    HW169141   7.493   0.310   6.093
22434SOL    HW269142   7.374   0.314   6.186
22435SOL     OW69143  13.713  12.991  11.046
22435SOL    HW169144  13.755  13.075  11.066
22435SOL    HW269145  13.695  12.995  10.952
22436SOL     OW69146   0.712  13.393   4.780
22436SOL    HW169147   0.738  13.460   4.843
22436SOL    HW269148   0.667  13.441   4.711
22437SOL     OW69149   4.355   5.902   2.528
22437SOL    HW169150   4.310   5.859   2.456
22437SOL    HW269151   4.328   5.994   2.522
22438SOL     OW69152   2.511   1.035   3.236
22438SOL    HW169153   2.473   1.013   3.151
22438SOL    HW269154   2.477   1.122   3.256
22439SOL     OW69155   7.327   3.623   1.230
22439SOL    HW169156   7.365   3.596   1.313
22439SOL    HW269157   7.362   3.561   1.166
22440SOL     OW69158   3.152  11.830   0.475
22440SOL    HW169159   3.226  11.839   0.536
22440SOL    HW269160   3.116  11.918   0.469
22441SOL     OW69161   4.119   5.683   5.658
22441SOL    HW169162   4.038   5.653   5.618
22441SOL    HW269163   4.140   5.616   5.723
22442SOL     OW69164   8.602   3.884   7.272
22442SOL    HW169165   8.518   3.917   7.241
22442SOL    HW269166   8.582   3.798   7.309
22443SOL     OW69167  10.585  12.958  11.233
22443SOL    HW169168  10.645  12.886  11.249
22443SOL    HW269169  10.518  12.921  11.175
22444SOL     OW69170   8.233   7.886  12.425
22444SOL    HW169171   8.308   7.917  12.373
22444SOL    HW269172   8.261   7.900  12.516
22445SOL     OW69173   6.204  10.259  11.069
22445SOL    HW169174   6.141  10.326  11.099
22445SOL    HW269175   6.160  10.176  11.086
22446SOL     OW69176   4.296  11.749   5.136
22446SOL    HW169177   4.288  11.774   5.228
22446SOL    HW269178   4.388  11.722   5.127
22447SOL     OW69179   7.428   1.014   6.761
22447SOL    HW169180   7.364   0.944   6.773
22447SOL    HW269181   7.492   1.000   6.831
22448SOL     OW69182   1.737   5.604   8.521
22448SOL    HW169183   1.739   5.695   8.547
22448SOL    HW269184   1.794   5.599   8.444
22449SOL     OW69185  14.875   2.007   2.612
22449SOL    HW169186  14.795   1.957   2.596
22449SOL    HW269187   0.012   1.991   2.704
22450SOL     OW69188   1.750   9.557   2.826
22450SOL    HW169189   1.833   9.515   2.803
22450SOL    HW269190   1.774   9.620   2.894
22451SOL     OW69191   1.776   0.765   5.267
22451SOL    HW169192   1.745   0.841   5.317
22451SOL    HW269193   1.861   0.745   5.305
22452SOL     OW69194   5.389   1.634   3.619
22452SOL    HW169195   5.458   1.644   3.685
22452SOL    HW269196   5.383   1.721   3.579
22453SOL     OW69197   3.341   7.908   4.282
22453SOL    HW169198   3.328   7.854   4.205
22453SOL    HW269199   3.253   7.934   4.310
22454SOL     OW69200   0.101  11.563   6.887
22454SOL    HW169201   0.155  11.485   6.870
22454SOL    HW269202   0.092  11.605   6.801
22455SOL     OW69203  11.364  13.128   2.889
22455SOL    HW169204  11.280  13.172   2.903
22455SOL    HW269205  11.339  13.039   2.862
22456SOL     OW69206   0.067   6.210   2.609
22456SOL    HW169207   0.021   6.146   2.663
22456SOL    HW269208   0.144   6.163   2.576
22457SOL     OW69209  11.932   9.611  13.651
22457SOL    HW169210  11.991   9.683  13.630
22457SOL    HW269211  11.853   9.629  13.600
22458SOL     OW69212   4.715   2.467   5.908
22458SOL    HW169213   4.762   2.503   5.833
22458SOL    HW269214   4.739   2.374   5.908
22459SOL     OW69215   1.096   2.138   1.473
22459SOL    HW169216   1.121   2.101   1.388
22459SOL    HW269217   1.088   2.062   1.531
22460SOL     OW69218  13.572   0.676  14.676
22460SOL    HW169219  13.548   0.615  14.746
22460SOL    HW269220  13.592   0.758  14.722
22461SOL     OW69221  14.777   5.483   8.271
22461SOL    HW169222  14.741   5.404   8.231
22461SOL    HW269223  14.830   5.451   8.344
22462SOL     OW69224   4.746  13.983   8.991
22462SOL    HW169225   4.677  14.037   9.031
22462SOL    HW269226   4.819  14.044   8.979
22463SOL     OW69227   6.810   3.959   5.750
22463SOL    HW169228   6.883   3.986   5.695
22463SOL    HW269229   6.785   4.039   5.797
22464SOL     OW69230  12.964   9.916   0.311
22464SOL    HW169231  12.940   9.824   0.327
22464SOL    HW269232  12.899   9.966   0.360
22465SOL     OW69233   6.004   5.309   1.083
22465SOL    HW169234   6.027   5.268   0.999
22465SOL    HW269235   5.971   5.238   1.137
22466SOL     OW69236   1.610   5.622   2.613
22466SOL    HW169237   1.574   5.645   2.527
22466SOL    HW269238   1.571   5.536   2.632
22467SOL     OW69239   3.982   3.609   5.781
22467SOL    HW169240   3.972   3.660   5.701
22467SOL    HW269241   4.068   3.567   5.772
22468SOL     OW69242  11.346   2.402   0.240
22468SOL    HW169243  11.326   2.470   0.176
22468SOL    HW269244  11.380   2.450   0.315
22469SOL     OW69245   4.317  13.208   6.453
22469SOL    HW169246   4.331  13.117   6.424
22469SOL    HW269247   4.297  13.255   6.372
22470SOL     OW69248   4.151   8.756   5.074
22470SOL    HW169249   4.205   8.736   4.997
22470SOL    HW269250   4.063   8.767   5.039
22471SOL     OW69251   7.781  13.842   3.657
22471SOL    HW169252   7.785  13.874   3.567
22471SOL    HW269253   7.698  13.794   3.662
22472SOL     OW69254   8.154  11.598   7.566
22472SOL    HW169255   8.170  11.608   7.473
22472SOL    HW269256   8.059  11.606   7.575
22473SOL     OW69257   7.122  12.121   5.386
22473SOL    HW169258   7.217  12.129   5.395
22473SOL    HW269259   7.086  12.175   5.456
22474SOL     OW69260   2.954   5.874  11.977
22474SOL    HW169261   2.928   5.918  11.896
22474SOL    HW269262   3.012   5.803  11.947
22475SOL     OW69263  12.844   1.720   3.820
22475SOL    HW169264  12.769   1.679   3.776
22475SOL    HW269265  12.862   1.662   3.895
22476SOL     OW69266   5.372  11.363   9.010
22476SOL    HW169267   5.456  11.319   9.018
22476SOL    HW269268   5.308  11.292   9.002
22477SOL     OW69269   5.303   8.753   7.619
22477SOL    HW169270   5.319   8.708   7.702
22477SOL    HW269271   5.333   8.842   7.634
22478SOL     OW69272  12.759   4.855  13.824
22478SOL    HW169273  12.680   4.808  13.799
22478SOL    HW269274  12.821   4.839  13.753
22479SOL     OW69275   1.901  12.992  12.619
22479SOL    HW169276   1.829  13.020  12.676
22479SOL    HW269277   1.858  12.946  12.547
22480SOL     OW69278   5.716   8.897   9.453
22480SOL    HW169279   5.794   8.865   9.497
22480SOL    HW269280   5.749   8.954   9.383
22481SOL     OW69281   6.042   3.481   1.172
22481SOL    HW169282   5.996   3.561   1.198
22481SOL    HW269283   6.134   3.498   1.192
22482SOL     OW69284   2.083   8.347   0.313
22482SOL    HW169285   2.054   8.282   0.249
22482SOL    HW269286   2.030   8.424   0.295
22483SOL     OW69287   1.798  11.578   3.264
22483SOL    HW169288   1.737  11.546   3.330
22483SOL    HW269289   1.766  11.539   3.182
22484SOL     OW69290   2.872  10.649  13.908
22484SOL    HW169291   2.785  10.648  13.946
22484SOL    HW269292   2.857  10.656  13.813
22485SOL     OW69293   1.799  12.267   1.796
22485SOL    HW169294   1.892  12.250   1.779
22485SOL    HW269295   1.778  12.213   1.872
22486SOL     OW69296   5.758   0.821   3.599
22486SOL    HW169297   5.800   0.748   3.552
22486SOL    HW269298   5.711   0.870   3.532
22487SOL     OW69299   9.117   8.429   4.530
22487SOL    HW169300   9.091   8.347   4.488
22487SOL    HW269301   9.037   8.463   4.570
22488SOL     OW69302  14.672   6.377   8.071
22488SOL    HW169303  14.720   6.408   7.994
22488SOL    HW269304  14.687   6.443   8.138
22489SOL     OW69305   4.133  10.895   9.381
22489SOL    HW169306   4.180  10.871   9.461
22489SOL    HW269307   4.048  10.853   9.389
22490SOL     OW69308   2.268  12.225  11.016
22490SOL    HW169309   2.295  12.304  11.062
22490SOL    HW269310   2.350  12.182  10.992
22491SOL     OW69311  13.583  14.383   4.094
22491SOL    HW169312  13.491  14.397   4.117
22491SOL    HW269313  13.616  14.470   4.073
22492SOL     OW69314   2.538   6.098   8.797
22492SOL    HW169315   2.591   6.173   8.823
22492SOL    HW269316   2.554   6.033   8.866
22493SOL     OW69317  10.554   6.393   3.960
22493SOL    HW169318  10.491   6.462   3.940
22493SOL    HW269319  10.502   6.313   3.966
22494SOL     OW69320   1.588  10.897   3.371
22494SOL    HW169321   1.648  10.895   3.445
22494SOL    HW269322   1.504  10.871   3.408
22495SOL     OW69323   8.041  11.083  12.928
22495SOL    HW169324   8.100  11.121  12.993
22495SOL    HW269325   7.968  11.048  12.979
22496SOL     OW69326   5.611   6.904   5.281
22496SOL    HW169327   5.647   6.967   5.218
22496SOL    HW269328   5.536   6.865   5.236
22497SOL     OW69329   6.143   1.427   4.121
22497SOL    HW169330   6.135   1.495   4.053
22497SOL    HW269331   6.100   1.351   4.084
22498SOL     OW69332  14.130  13.775  10.187
22498SOL    HW169333  14.057  13.724  10.222
22498SOL    HW269334  14.203  13.757  10.247
22499SOL     OW69335   9.807   4.470   1.572
22499SOL    HW169336   9.830   4.563   1.576
22499SOL    HW269337   9.789   4.445   1.662
22500SOL     OW69338   6.491   8.593   6.764
22500SOL    HW169339   6.520   8.521   6.708
22500SOL    HW269340   6.439   8.551   6.833
22501SOL     OW69341   2.363  11.187   8.372
22501SOL    HW169342   2.338  11.113   8.428
22501SOL    HW269343   2.387  11.148   8.288
22502SOL     OW69344   6.364  10.922  10.026
22502SOL    HW169345   6.293  10.861  10.046
22502SOL    HW269346   6.395  10.897   9.939
22503SOL     OW69347   3.038  11.517  13.467
22503SOL    HW169348   3.104  11.486  13.405
22503SOL    HW269349   3.078  11.504  13.553
22504SOL     OW69350   1.498  10.905  10.898
22504SOL    HW169351   1.485  10.823  10.851
22504SOL    HW269352   1.447  10.970  10.849
22505SOL     OW69353   2.137  13.977   5.553
22505SOL    HW169354   2.209  13.936   5.504
22505SOL    HW269355   2.167  14.066   5.570
22506SOL     OW69356   1.940   9.922   1.915
22506SOL    HW169357   1.906   9.843   1.871
22506SOL    HW269358   1.968   9.891   2.001
22507SOL     OW69359   2.982  12.065   6.197
22507SOL    HW169360   2.928  11.988   6.211
22507SOL    HW269361   3.022  12.083   6.282
22508SOL     OW69362  14.730   7.579   7.724
22508SOL    HW169363  14.667   7.526   7.676
22508SOL    HW269364  14.700   7.669   7.711
22509SOL     OW69365   8.177  11.147  13.152
22509SOL    HW169366   8.159  11.178  13.241
22509SOL    HW269367   8.245  11.080  13.164
22510SOL     OW69368   7.828   0.906   2.457
22510SOL    HW169369   7.924   0.906   2.455
22510SOL    HW269370   7.802   0.854   2.382
22511SOL     OW69371  10.401  11.005   3.535
22511SOL    HW169372  10.475  11.066   3.535
22511SOL    HW269373  10.326  11.059   3.511
22512SOL     OW69374   5.400   8.243   2.289
22512SOL    HW169375   5.490   8.213   2.277
22512SOL    HW269376   5.400   8.287   2.374
22513SOL     OW69377   4.579  12.829  11.190
22513SOL    HW169378   4.593  12.741  11.155
22513SOL    HW269379   4.508  12.819  11.253
22514SOL     OW69380   4.521   3.507  13.655
22514SOL    HW169381   4.511   3.460  13.738
22514SOL    HW269382   4.570   3.586  13.678
22515SOL     OW69383  13.027  12.696   7.423
22515SOL    HW169384  13.088  12.744   7.367
22515SOL    HW269385  12.942  12.739   7.408
22516SOL     OW69386   6.962  11.225  13.496
22516SOL    HW169387   6.952  11.283  13.420
22516SOL    HW269388   6.886  11.167  13.491
22517SOL     OW69389   8.155  14.603   7.955
22517SOL    HW169390   8.062  14.584   7.970
22517SOL    HW269391   8.183  14.651   8.033
22518SOL     OW69392   4.827   0.654  14.634
22518SOL    HW169393   4.914   0.655  14.674
22518SOL    HW269394   4.822   0.570  14.589
22519SOL     OW69395   2.548   0.241   6.678
22519SOL    HW169396   2.610   0.168   6.685
22519SOL    HW269397   2.464   0.204   6.703
22520SOL     OW69398   1.751  12.612   4.197
22520SOL    HW169399   1.779  12.691   4.149
22520SOL    HW269400   1.691  12.644   4.263
22521SOL     OW69401  12.229   9.016  11.353
22521SOL    HW169402  12.302   9.077  11.366
22521SOL    HW269403  12.180   9.054  11.279
22522SOL     OW69404  12.353   5.220   3.710
22522SOL    HW169405  12.407   5.145   3.682
22522SOL    HW269406  12.339   5.205   3.803
22523SOL     OW69407  13.310  11.138  12.406
22523SOL    HW169408  13.284  11.111  12.494
22523SOL    HW269409  13.235  11.186  12.371
22524SOL     OW69410   9.055   4.973  10.678
22524SOL    HW169411   9.100   4.890  10.667
22524SOL    HW269412   8.995   4.978  10.603
22525SOL     OW69413  13.900   4.912   8.355
22525SOL    HW169414  13.933   4.854   8.423
22525SOL    HW269415  13.977   4.961   8.326
22526SOL     OW69416   4.062   2.052   9.150
22526SOL    HW169417   4.029   2.028   9.237
22526SOL    HW269418   4.005   2.123   9.122
22527SOL     OW69419  14.783   7.217   2.067
22527SOL    HW169420  14.759   7.282   2.000
22527SOL    HW269421  14.775   7.264   2.150
22528SOL     OW69422  14.749  14.156   4.550
22528SOL    HW169423  14.740  14.103   4.629
22528SOL    HW269424  14.659  14.168   4.519
22529SOL     OW69425   3.716   2.961  12.381
22529SOL    HW169426   3.676   3.023  12.442
22529SOL    HW269427   3.703   2.875  12.421
22530SOL     OW69428  11.577   4.348  13.723
22530SOL    HW169429  11.525   4.401  13.662
22530SOL    HW269430  11.580   4.399  13.804
22531SOL     OW69431  14.467   6.991   0.259
22531SOL    HW169432  14.461   7.007   0.165
22531SOL    HW269433  14.441   7.073   0.300
22532SOL     OW69434   0.805  11.655  12.466
22532SOL    HW169435   0.771  11.639  12.555
22532SOL    HW269436   0.830  11.568  12.434
22533SOL     OW69437  11.294   7.309   6.146
22533SOL    HW169438  11.217   7.252   6.140
22533SOL    HW269439  11.261   7.388   6.189
22534SOL     OW69440   7.286   5.887  14.716
22534SOL    HW169441   7.325   5.974  14.714
22534SOL    HW269442   7.293   5.856  14.625
22535SOL     OW69443  11.874  14.472   8.918
22535SOL    HW169444  11.885  14.541   8.983
22535SOL    HW269445  11.811  14.507   8.856
22536SOL     OW69446   6.244  13.062  12.388
22536SOL    HW169447   6.238  13.097  12.299
22536SOL    HW269448   6.298  12.984  12.379
22537SOL     OW69449   0.797  12.474   0.283
22537SOL    HW169450   0.748  12.537   0.230
22537SOL    HW269451   0.861  12.437   0.222
22538SOL     OW69452   1.451   6.962  12.433
22538SOL    HW169453   1.386   6.916  12.380
22538SOL    HW269454   1.422   6.949  12.523
22539SOL     OW69455   6.778  11.494  10.320
22539SOL    HW169456   6.716  11.437  10.274
22539SOL    HW269457   6.816  11.439  10.388
22540SOL     OW69458   0.581   5.093  12.862
22540SOL    HW169459   0.503   5.046  12.890
22540SOL    HW269460   0.552   5.147  12.789
22541SOL     OW69461   5.651  12.100   0.016
22541SOL    HW169462   5.685  12.047   0.088
22541SOL    HW269463   5.596  12.040  14.847
22542SOL     OW69464   8.236   6.159   5.905
22542SOL    HW169465   8.209   6.072   5.933
22542SOL    HW269466   8.212   6.217   5.977
22543SOL     OW69467   1.950   5.301   3.587
22543SOL    HW169468   2.016   5.369   3.594
22543SOL    HW269469   1.970   5.255   3.506
22544SOL     OW69470  13.809  10.903   9.816
22544SOL    HW169471  13.792  10.993   9.789
22544SOL    HW269472  13.829  10.909   9.910
22545SOL     OW69473   1.081   8.248   6.703
22545SOL    HW169474   1.118   8.265   6.790
22545SOL    HW269475   1.017   8.318   6.691
22546SOL     OW69476   6.012   9.445  14.118
22546SOL    HW169477   6.038   9.515  14.058
22546SOL    HW269478   6.016   9.485  14.205
22547SOL     OW69479   8.992   8.218   0.190
22547SOL    HW169480   9.036   8.293   0.150
22547SOL    HW269481   8.903   8.249   0.209
22548SOL     OW69482  10.020  12.990   7.400
22548SOL    HW169483   9.926  13.002   7.418
22548SOL    HW269484  10.022  12.923   7.331
22549SOL     OW69485  10.936   9.958   2.430
22549SOL    HW169486  10.889   9.883   2.393
22549SOL    HW269487  10.946   9.937   2.523
22550SOL     OW69488  13.270  13.348   5.878
22550SOL    HW169489  13.256  13.282   5.809
22550SOL    HW269490  13.303  13.425   5.832
22551SOL     OW69491   3.315   2.910  11.925
22551SOL    HW169492   3.347   2.826  11.958
22551SOL    HW269493   3.344   2.974  11.990
22552SOL     OW69494   7.621   6.828   7.439
22552SOL    HW169495   7.652   6.835   7.529
22552SOL    HW269496   7.666   6.899   7.392
22553SOL     OW69497  14.337  11.406   1.056
22553SOL    HW169498  14.339  11.335   0.992
22553SOL    HW269499  14.328  11.362   1.141
22554SOL     OW69500   5.415  11.141  14.358
22554SOL    HW169501   5.386  11.179  14.275
22554SOL    HW269502   5.442  11.052  14.334
22555SOL     OW69503   0.946   6.483   2.613
22555SOL    HW169504   0.976   6.393   2.604
22555SOL    HW269505   0.907   6.504   2.528
22556SOL     OW69506   3.079   6.349   4.727
22556SOL    HW169507   3.080   6.255   4.712
22556SOL    HW269508   3.000   6.380   4.683
22557SOL     OW69509   5.243   3.023   6.004
22557SOL    HW169510   5.157   3.020   6.046
22557SOL    HW269511   5.290   3.092   6.052
22558SOL     OW69512   3.030   9.409  13.556
22558SOL    HW169513   3.024   9.357  13.636
22558SOL    HW269514   3.002   9.350  13.486
22559SOL     OW69515   6.957   0.381   0.512
22559SOL    HW169516   7.047   0.381   0.481
22559SOL    HW269517   6.943   0.293   0.547
22560SOL     OW69518   4.027   8.923  12.643
22560SOL    HW169519   3.992   8.926  12.554
22560SOL    HW269520   4.122   8.927  12.632
22561SOL     OW69521   4.254   0.430  14.227
22561SOL    HW169522   4.198   0.391  14.294
22561SOL    HW269523   4.314   0.359  14.202
22562SOL     OW69524   5.041   6.097   4.577
22562SOL    HW169525   5.020   6.098   4.670
22562SOL    HW269526   4.958   6.077   4.534
22563SOL     OW69527   6.998   2.272   5.184
22563SOL    HW169528   7.017   2.236   5.097
22563SOL    HW269529   6.921   2.224   5.214
22564SOL     OW69530   2.260   4.205   3.522
22564SOL    HW169531   2.305   4.188   3.440
22564SOL    HW269532   2.250   4.119   3.562
22565SOL     OW69533   5.591   3.401  13.654
22565SOL    HW169534   5.551   3.412  13.568
22565SOL    HW269535   5.518   3.401  13.716
22566SOL     OW69536   2.629   9.326   4.139
22566SOL    HW169537   2.593   9.239   4.161
22566SOL    HW269538   2.722   9.309   4.122
22567SOL     OW69539  14.066   5.932  13.982
22567SOL    HW169540  14.044   5.918  13.890
22567SOL    HW269541  14.002   5.881  14.031
22568SOL     OW69542  11.518   0.756   6.995
22568SOL    HW169543  11.429   0.746   7.029
22568SOL    HW269544  11.573   0.713   7.059
22569SOL     OW69545   6.140   9.358   8.645
22569SOL    HW169546   6.064   9.407   8.677
22569SOL    HW269547   6.191   9.423   8.596
22570SOL     OW69548   0.349   4.356  10.231
22570SOL    HW169549   0.278   4.298  10.202
22570SOL    HW269550   0.422   4.335  10.173
22571SOL     OW69551   7.641  13.458   7.552
22571SOL    HW169552   7.609  13.547   7.537
22571SOL    HW269553   7.620  13.440   7.643
22572SOL     OW69554  10.269   9.992   9.809
22572SOL    HW169555  10.288  10.086   9.816
22572SOL    HW269556  10.260   9.963   9.900
22573SOL     OW69557   8.915   8.707   2.886
22573SOL    HW169558   8.936   8.773   2.820
22573SOL    HW269559   8.959   8.628   2.856
22574SOL     OW69560   1.272   3.087   4.735
22574SOL    HW169561   1.181   3.109   4.714
22574SOL    HW269562   1.317   3.172   4.736
22575SOL     OW69563   4.389   3.275   9.335
22575SOL    HW169564   4.367   3.232   9.418
22575SOL    HW269565   4.313   3.259   9.279
22576SOL     OW69566   1.324  14.140   8.130
22576SOL    HW169567   1.405  14.094   8.105
22576SOL    HW269568   1.257  14.072   8.130
22577SOL     OW69569   2.708  10.623   8.318
22577SOL    HW169570   2.669  10.540   8.347
22577SOL    HW269571   2.659  10.645   8.239
22578SOL     OW69572   5.757  10.713   8.920
22578SOL    HW169573   5.695  10.697   8.991
22578SOL    HW269574   5.747  10.806   8.901
22579SOL     OW69575   8.237   9.412  10.674
22579SOL    HW169576   8.172   9.416  10.604
22579SOL    HW269577   8.319   9.388  10.630
22580SOL     OW69578  11.294  10.250   6.767
22580SOL    HW169579  11.292  10.157   6.786
22580SOL    HW269580  11.265  10.257   6.676
22581SOL     OW69581   9.437   1.601   3.337
22581SOL    HW169582   9.428   1.649   3.255
22581SOL    HW269583   9.408   1.512   3.316
22582SOL     OW69584   7.851  10.044  10.482
22582SOL    HW169585   7.888   9.956  10.479
22582SOL    HW269586   7.882  10.080  10.565
22583SOL     OW69587  12.592   6.838   0.340
22583SOL    HW169588  12.669   6.894   0.348
22583SOL    HW269589  12.560   6.829   0.430
22584SOL     OW69590   7.034  13.224  14.198
22584SOL    HW169591   7.127  13.219  14.223
22584SOL    HW269592   7.026  13.166  14.123
22585SOL     OW69593   3.325   7.737   2.233
22585SOL    HW169594   3.355   7.646   2.234
22585SOL    HW269595   3.275   7.747   2.314
22586SOL     OW69596   7.176   9.026   8.181
22586SOL    HW169597   7.176   8.948   8.126
22586SOL    HW269598   7.138   9.095   8.126
22587SOL     OW69599   1.683   0.918  11.383
22587SOL    HW169600   1.749   0.872  11.434
22587SOL    HW269601   1.726   0.941  11.301
22588SOL     OW69602   3.873  13.376  14.450
22588SOL    HW169603   3.891  13.455  14.501
22588SOL    HW269604   3.784  13.388  14.417
22589SOL     OW69605   6.456   7.320   7.467
22589SOL    HW169606   6.498   7.335   7.552
22589SOL    HW269607   6.408   7.401   7.450
22590SOL     OW69608   8.563   8.140   9.430
22590SOL    HW169609   8.572   8.132   9.525
22590SOL    HW269610   8.622   8.211   9.406
22591SOL     OW69611   4.332  11.848   1.128
22591SOL    HW169612   4.279  11.908   1.181
22591SOL    HW269613   4.409  11.830   1.182
22592SOL     OW69614  11.635  13.967  13.812
22592SOL    HW169615  11.594  13.942  13.730
22592SOL    HW269616  11.600  13.905  13.876
22593SOL     OW69617   9.435   3.471   2.104
22593SOL    HW169618   9.438   3.381   2.072
22593SOL    HW269619   9.508   3.476   2.167
22594SOL     OW69620   7.447  10.121  11.089
22594SOL    HW169621   7.388  10.190  11.057
22594SOL    HW269622   7.415  10.101  11.177
22595SOL     OW69623   6.086   2.454   7.478
22595SOL    HW169624   6.121   2.535   7.514
22595SOL    HW269625   6.032   2.483   7.404
22596SOL     OW69626  10.169   9.483   5.313
22596SOL    HW169627  10.195   9.496   5.221
22596SOL    HW269628  10.165   9.571   5.349
22597SOL     OW69629   6.761   8.807   9.372
22597SOL    HW169630   6.699   8.735   9.371
22597SOL    HW269631   6.791   8.815   9.282
22598SOL     OW69632   2.750   3.983   2.899
22598SOL    HW169633   2.780   4.074   2.905
22598SOL    HW269634   2.798   3.947   2.825
22599SOL     OW69635   5.505  14.503   3.584
22599SOL    HW169636   5.456  14.582   3.607
22599SOL    HW269637   5.596  14.524   3.608
22600SOL     OW69638   4.996   8.441   7.917
22600SOL    HW169639   4.974   8.405   8.004
22600SOL    HW269640   4.931   8.403   7.859
22601SOL     OW69641  10.991   1.632   8.082
22601SOL    HW169642  11.022   1.694   8.016
22601SOL    HW269643  11.040   1.552   8.065
22602SOL     OW69644   0.196   9.011   4.142
22602SOL    HW169645   0.156   8.984   4.059
22602SOL    HW269646   0.172   8.943   4.204
22603SOL     OW69647  14.426   7.173   8.716
22603SOL    HW169648  14.367   7.105   8.685
22603SOL    HW269649  14.405   7.183   8.809
22604SOL     OW69650   6.515  13.490  10.874
22604SOL    HW169651   6.608  13.481  10.854
22604SOL    HW269652   6.501  13.430  10.947
22605SOL     OW69653   8.268   0.318   4.986
22605SOL    HW169654   8.277   0.393   4.926
22605SOL    HW269655   8.174   0.309   4.998
22606SOL     OW69656  14.144   2.327  13.725
22606SOL    HW169657  14.214   2.385  13.757
22606SOL    HW269658  14.068   2.351  13.777
22607SOL     OW69659   2.431   9.431   1.667
22607SOL    HW169660   2.372   9.414   1.594
22607SOL    HW269661   2.374   9.427   1.745
22608SOL     OW69662   8.887   1.433   9.709
22608SOL    HW169663   8.964   1.376   9.701
22608SOL    HW269664   8.820   1.390   9.656
22609SOL     OW69665   6.412   1.165   7.598
22609SOL    HW169666   6.375   1.085   7.634
22609SOL    HW269667   6.505   1.159   7.618
22610SOL     OW69668   8.834   6.279   6.035
22610SOL    HW169669   8.848   6.223   6.111
22610SOL    HW269670   8.846   6.368   6.068
22611SOL     OW69671  12.959  14.349  10.892
22611SOL    HW169672  13.008  14.267  10.887
22611SOL    HW269673  12.889  14.330  10.955
22612SOL     OW69674  13.397   2.708  12.967
22612SOL    HW169675  13.346   2.652  13.025
22612SOL    HW269676  13.474   2.733  13.019
22613SOL     OW69677   2.584  11.895  12.116
22613SOL    HW169678   2.654  11.840  12.081
22613SOL    HW269679   2.628  11.952  12.180
22614SOL     OW69680  10.985   2.202   9.821
22614SOL    HW169681  11.061   2.143   9.820
22614SOL    HW269682  10.933   2.174   9.745
22615SOL     OW69683   9.154   1.793  14.285
22615SOL    HW169684   9.176   1.864  14.345
22615SOL    HW269685   9.089   1.830  14.226
22616SOL     OW69686   9.301  11.466   9.898
22616SOL    HW169687   9.249  11.389   9.877
22616SOL    HW269688   9.367  11.470   9.829
22617SOL     OW69689   7.778   4.347   9.460
22617SOL    HW169690   7.831   4.348   9.381
22617SOL    HW269691   7.832   4.301   9.524
22618SOL     OW69692   3.345   8.531   3.900
22618SOL    HW169693   3.427   8.509   3.944
22618SOL    HW269694   3.278   8.482   3.948
22619SOL     OW69695   8.822  12.455   3.403
22619SOL    HW169696   8.774  12.412   3.473
22619SOL    HW269697   8.758  12.465   3.332
22620SOL     OW69698  13.708   0.483   6.604
22620SOL    HW169699  13.779   0.440   6.652
22620SOL    HW269700  13.745   0.501   6.517
22621SOL     OW69701   4.232  13.500   1.235
22621SOL    HW169702   4.162  13.449   1.277
22621SOL    HW269703   4.300  13.505   1.302
22622SOL     OW69704   3.747  11.883  10.583
22622SOL    HW169705   3.825  11.883  10.526
22622SOL    HW269706   3.783  11.890  10.671
22623SOL     OW69707   0.061   4.069   8.666
22623SOL    HW169708   0.148   4.037   8.644
22623SOL    HW269709   0.028   4.007   8.731
22624SOL     OW69710  11.992   0.393   2.706
22624SOL    HW169711  12.040   0.321   2.746
22624SOL    HW269712  12.059   0.458   2.686
22625SOL     OW69713   6.925   3.337   9.765
22625SOL    HW169714   6.845   3.292   9.735
22625SOL    HW269715   6.989   3.267   9.775
22626SOL     OW69716  11.092   0.405   2.501
22626SOL    HW169717  11.100   0.500   2.505
22626SOL    HW269718  11.182   0.373   2.494
22627SOL     OW69719   5.891  10.522   9.687
22627SOL    HW169720   5.880  10.454   9.620
22627SOL    HW269721   5.892  10.604   9.638
22628SOL     OW69722   1.126   5.031   7.844
22628SOL    HW169723   1.110   5.033   7.938
22628SOL    HW269724   1.182   5.107   7.827
22629SOL     OW69725  11.442  10.160   8.621
22629SOL    HW169726  11.485  10.231   8.573
22629SOL    HW269727  11.380  10.205   8.679
22630SOL     OW69728   8.981  12.092   1.485
22630SOL    HW169729   8.969  12.003   1.518
22630SOL    HW269730   9.054  12.127   1.536
22631SOL     OW69731   0.960  14.041   4.097
22631SOL    HW169732   0.905  13.971   4.133
22631SOL    HW269733   0.899  14.111   4.075
22632SOL     OW69734   8.201   2.206   8.151
22632SOL    HW169735   8.219   2.233   8.241
22632SOL    HW269736   8.286   2.181   8.115
22633SOL     OW69737   9.085   7.388   5.527
22633SOL    HW169738   9.098   7.321   5.594
22633SOL    HW269739   9.021   7.448   5.565
22634SOL     OW69740   3.730   9.667   7.602
22634SOL    HW169741   3.641   9.638   7.621
22634SOL    HW269742   3.738   9.750   7.649
22635SOL     OW69743  13.687   4.174  11.630
22635SOL    HW169744  13.742   4.184  11.708
22635SOL    HW269745  13.680   4.080  11.618
22636SOL     OW69746  10.441   2.233  11.800
22636SOL    HW169747  10.377   2.287  11.845
22636SOL    HW269748  10.439   2.263  11.710
22637SOL     OW69749   8.846   4.137   0.824
22637SOL    HW169750   8.777   4.190   0.863
22637SOL    HW269751   8.858   4.172   0.736
22638SOL     OW69752  14.272   5.518  12.499
22638SOL    HW169753  14.280   5.443  12.439
22638SOL    HW269754  14.232   5.587  12.446
22639SOL     OW69755   2.407   9.514  10.105
22639SOL    HW169756   2.391   9.599  10.144
22639SOL    HW269757   2.365   9.519  10.019
22640SOL     OW69758   0.489   8.805  12.384
22640SOL    HW169759   0.416   8.781  12.442
22640SOL    HW269760   0.451   8.866  12.321
22641SOL     OW69761   3.718   3.277   6.713
22641SOL    HW169762   3.689   3.368   6.717
22641SOL    HW269763   3.805   3.281   6.673
22642SOL     OW69764   7.444   9.547  10.088
22642SOL    HW169765   7.498   9.469  10.090
22642SOL    HW269766   7.364   9.520  10.044
22643SOL     OW69767   1.822  13.410  13.748
22643SOL    HW169768   1.815  13.378  13.838
22643SOL    HW269769   1.916  13.423  13.734
22644SOL     OW69770   4.672   0.036  10.699
22644SOL    HW169771   4.678   0.064  10.607
22644SOL    HW269772   4.583   0.063  10.725
22645SOL     OW69773   8.570  12.736   3.690
22645SOL    HW169774   8.634  12.801   3.716
22645SOL    HW269775   8.507  12.735   3.762
22646SOL     OW69776  14.843   6.333  14.237
22646SOL    HW169777  14.793   6.412  14.216
22646SOL    HW269778   0.030   6.364  14.297
22647SOL     OW69779   3.566   0.426   7.377
22647SOL    HW169780   3.522   0.437   7.461
22647SOL    HW269781   3.501   0.452   7.312
22648SOL     OW69782   6.082   4.289  10.001
22648SOL    HW169783   6.049   4.256   9.918
22648SOL    HW269784   6.148   4.225  10.028
22649SOL     OW69785   4.779  12.503   1.557
22649SOL    HW169786   4.737  12.584   1.531
22649SOL    HW269787   4.762  12.496   1.651
22650SOL     OW69788   0.835   5.289   6.653
22650SOL    HW169789   0.869   5.235   6.724
22650SOL    HW269790   0.906   5.349   6.631
22651SOL     OW69791   5.149   5.522   2.620
22651SOL    HW169792   5.130   5.616   2.620
22651SOL    HW269793   5.076   5.483   2.669
22652SOL     OW69794   3.824   9.226   7.176
22652SOL    HW169795   3.748   9.174   7.200
22652SOL    HW269796   3.798   9.273   7.097
22653SOL     OW69797  12.647  12.478   7.702
22653SOL    HW169798  12.617  12.514   7.785
22653SOL    HW269799  12.732  12.439   7.722
22654SOL     OW69800   1.774   4.940  11.665
22654SOL    HW169801   1.847   4.948  11.726
22654SOL    HW269802   1.711   4.884  11.710
22655SOL     OW69803  13.722  14.143   6.007
22655SOL    HW169804  13.715  14.175   6.097
22655SOL    HW269805  13.727  14.047   6.016
22656SOL     OW69806  13.458   3.948  14.126
22656SOL    HW169807  13.491   3.947  14.215
22656SOL    HW269808  13.363   3.934  14.135
22657SOL     OW69809  13.260   6.674  10.076
22657SOL    HW169810  13.308   6.706  10.000
22657SOL    HW269811  13.232   6.753  10.122
22658SOL     OW69812  12.585  10.399  14.609
22658SOL    HW169813  12.668  10.447  14.615
22658SOL    HW269814  12.596  10.342  14.533
22659SOL     OW69815  14.526  13.184   5.539
22659SOL    HW169816  14.478  13.256   5.582
22659SOL    HW269817  14.471  13.107   5.553
22660SOL     OW69818   2.605   1.533   6.642
22660SOL    HW169819   2.581   1.611   6.592
22660SOL    HW269820   2.589   1.557   6.733
22661SOL     OW69821  11.553   9.824   3.244
22661SOL    HW169822  11.635   9.781   3.268
22661SOL    HW269823  11.543   9.895   3.307
22662SOL     OW69824   4.202   7.425   3.137
22662SOL    HW169825   4.152   7.345   3.149
22662SOL    HW269826   4.150   7.493   3.179
22663SOL     OW69827   6.557   2.039  12.361
22663SOL    HW169828   6.496   2.001  12.298
22663SOL    HW269829   6.623   2.083  12.306
22664SOL     OW69830  12.710   8.600  14.378
22664SOL    HW169831  12.761   8.671  14.417
22664SOL    HW269832  12.620   8.616  14.405
22665SOL     OW69833   4.843  11.472   3.617
22665SOL    HW169834   4.869  11.550   3.568
22665SOL    HW269835   4.785  11.504   3.686
22666SOL     OW69836   4.457   8.608  13.702
22666SOL    HW169837   4.439   8.592  13.795
22666SOL    HW269838   4.494   8.695  13.700
22667SOL     OW69839   4.117   9.461  12.066
22667SOL    HW169840   4.068   9.519  12.007
22667SOL    HW269841   4.049   9.415  12.116
22668SOL     OW69842  13.515   7.662  14.846
22668SOL    HW169843  13.543   7.712  14.769
22668SOL    HW269844  13.596   7.638   0.009
22669SOL     OW69845   5.185   0.591  13.336
22669SOL    HW169846   5.134   0.666  13.366
22669SOL    HW269847   5.275   0.622  13.332
22670SOL     OW69848   9.961   7.084   7.240
22670SOL    HW169849   9.944   7.100   7.333
22670SOL    HW269850  10.051   7.112   7.227
22671SOL     OW69851   3.465  11.902   2.413
22671SOL    HW169852   3.396  11.963   2.385
22671SOL    HW269853   3.528  11.901   2.341
22672SOL     OW69854   8.435  12.449   6.299
22672SOL    HW169855   8.463  12.372   6.349
22672SOL    HW269856   8.342  12.456   6.316
22673SOL     OW69857  10.556   5.408   0.084
22673SOL    HW169858  10.542   5.496   0.119
22673SOL    HW269859  10.470   5.366   0.090
22674SOL     OW69860   7.693   9.143   9.342
22674SOL    HW169861   7.604   9.161   9.311
22674SOL    HW269862   7.690   9.162   9.436
22675SOL     OW69863   7.312   2.221   5.527
22675SOL    HW169864   7.229   2.211   5.573
22675SOL    HW269865   7.378   2.226   5.597
22676SOL     OW69866  13.940  13.065   1.804
22676SOL    HW169867  13.898  13.082   1.720
22676SOL    HW269868  13.948  13.151   1.845
22677SOL     OW69869   1.837   1.175   4.949
22677SOL    HW169870   1.915   1.128   4.921
22677SOL    HW269871   1.769   1.108   4.954
22678SOL     OW69872   2.529   1.400   7.809
22678SOL    HW169873   2.586   1.323   7.814
22678SOL    HW269874   2.571   1.465   7.866
22679SOL     OW69875   8.718   7.745   3.975
22679SOL    HW169876   8.689   7.682   3.909
22679SOL    HW269877   8.645   7.806   3.984
22680SOL     OW69878  12.050  13.763  10.437
22680SOL    HW169879  12.014  13.685  10.479
22680SOL    HW269880  12.112  13.798  10.501
22681SOL     OW69881   3.162   2.663   7.225
22681SOL    HW169882   3.210   2.667   7.308
22681SOL    HW269883   3.095   2.597   7.238
22682SOL     OW69884   2.995   2.594   8.236
22682SOL    HW169885   2.950   2.672   8.268
22682SOL    HW269886   3.012   2.543   8.315
22683SOL     OW69887   5.656  10.249   4.194
22683SOL    HW169888   5.571  10.292   4.193
22683SOL    HW269889   5.713  10.307   4.144
22684SOL     OW69890   8.175   4.434   8.053
22684SOL    HW169891   8.135   4.504   8.002
22684SOL    HW269892   8.126   4.356   8.029
22685SOL     OW69893   1.668  13.893   3.048
22685SOL    HW169894   1.613  13.955   3.095
22685SOL    HW269895   1.752  13.896   3.094
22686SOL     OW69896   2.130   5.976  11.233
22686SOL    HW169897   2.087   5.931  11.160
22686SOL    HW269898   2.081   6.058  11.243
22687SOL     OW69899   1.772   8.920  10.740
22687SOL    HW169900   1.715   8.990  10.771
22687SOL    HW269901   1.765   8.924  10.645
22688SOL     OW69902  12.911   8.958  10.541
22688SOL    HW169903  13.002   8.939  10.521
22688SOL    HW269904  12.867   8.956  10.457
22689SOL     OW69905  10.559   8.230   5.947
22689SOL    HW169906  10.512   8.284   6.011
22689SOL    HW269907  10.494   8.210   5.880
22690SOL     OW69908   3.028  14.763   5.366
22690SOL    HW169909   3.114  14.743   5.403
22690SOL    HW269910   3.021  14.706   5.290
22691SOL     OW69911  12.800   4.473   5.118
22691SOL    HW169912  12.840   4.447   5.035
22691SOL    HW269913  12.814   4.567   5.123
22692SOL     OW69914  10.645   4.555  12.340
22692SOL    HW169915  10.648   4.620  12.411
22692SOL    HW269916  10.555   4.559  12.308
22693SOL     OW69917  14.210   0.152   3.653
22693SOL    HW169918  14.212   0.200   3.736
22693SOL    HW269919  14.130   0.100   3.658
22694SOL     OW69920  13.063   5.253  10.744
22694SOL    HW169921  13.017   5.220  10.667
22694SOL    HW269922  13.141   5.296  10.709
22695SOL     OW69923   0.743   0.069   8.608
22695SOL    HW169924   0.811   0.024   8.659
22695SOL    HW269925   0.789   0.140   8.563
22696SOL     OW69926  13.206   4.349   2.480
22696SOL    HW169927  13.161   4.387   2.556
22696SOL    HW269928  13.190   4.255   2.488
22697SOL     OW69929   2.413   1.643  11.998
22697SOL    HW169930   2.331   1.689  11.979
22697SOL    HW269931   2.447   1.687  12.076
22698SOL     OW69932  13.765   2.151  10.082
22698SOL    HW169933  13.758   2.245  10.098
22698SOL    HW269934  13.744   2.110  10.166
22699SOL     OW69935   7.081   0.997   1.894
22699SOL    HW169936   7.168   1.012   1.930
22699SOL    HW269937   7.022   1.051   1.946
22700SOL     OW69938   2.782   3.540   4.770
22700SOL    HW169939   2.777   3.512   4.861
22700SOL    HW269940   2.801   3.460   4.721
22701SOL     OW69941   2.684   5.668  13.609
22701SOL    HW169942   2.661   5.722  13.533
22701SOL    HW269943   2.727   5.729  13.669
22702SOL     OW69944  10.255   2.030   5.216
22702SOL    HW169945  10.218   2.050   5.130
22702SOL    HW269946  10.333   1.978   5.197
22703SOL     OW69947  10.941   4.067   0.022
22703SOL    HW169948  11.000   4.013  14.851
22703SOL    HW269949  10.885   4.003   0.067
22704SOL     OW69950   7.388  12.934   9.608
22704SOL    HW169951   7.339  12.915   9.528
22704SOL    HW269952   7.332  12.995   9.657
22705SOL     OW69953   1.433   5.701   1.387
22705SOL    HW169954   1.397   5.770   1.442
22705SOL    HW269955   1.403   5.722   1.299
22706SOL     OW69956  10.113   5.372   7.738
22706SOL    HW169957  10.131   5.365   7.644
22706SOL    HW269958  10.057   5.297   7.757
22707SOL     OW69959   2.215   4.796  12.061
22707SOL    HW169960   2.197   4.890  12.067
22707SOL    HW269961   2.129   4.754  12.068
22708SOL     OW69962   5.467   6.418   9.016
22708SOL    HW169963   5.397   6.445   8.956
22708SOL    HW269964   5.426   6.417   9.102
22709SOL     OW69965   5.600   2.898   0.779
22709SOL    HW169966   5.590   2.977   0.831
22709SOL    HW269967   5.652   2.924   0.704
22710SOL     OW69968   6.014  14.222   8.753
22710SOL    HW169969   6.103  14.190   8.763
22710SOL    HW269970   5.983  14.183   8.671
22711SOL     OW69971   5.295   4.708   4.257
22711SOL    HW169972   5.295   4.763   4.179
22711SOL    HW269973   5.206   4.718   4.292
22712SOL     OW69974   3.649   7.381   1.063
22712SOL    HW169975   3.631   7.438   0.988
22712SOL    HW269976   3.595   7.304   1.047
22713SOL     OW69977   2.685   6.667   0.045
22713SOL    HW169978   2.668   6.683   0.137
22713SOL    HW269979   2.608   6.618   0.014
22714SOL     OW69980   1.179   7.614   7.113
22714SOL    HW169981   1.204   7.579   7.199
22714SOL    HW269982   1.085   7.633   7.121
22715SOL     OW69983   4.010   7.522   0.929
22715SOL    HW169984   4.016   7.440   0.979
22715SOL    HW269985   4.090   7.569   0.953
22716SOL     OW69986   8.966   7.331   4.760
22716SOL    HW169987   8.917   7.390   4.702
22716SOL    HW269988   8.985   7.384   4.838
22717SOL     OW69989   1.347  13.160  11.606
22717SOL    HW169990   1.302  13.225  11.553
22717SOL    HW269991   1.438  13.189  11.607
22718SOL     OW69992  11.343   4.387   6.137
22718SOL    HW169993  11.303   4.350   6.216
22718SOL    HW269994  11.381   4.311   6.092
22719SOL     OW69995  11.367   1.122  12.019
22719SOL    HW169996  11.279   1.146  12.048
22719SOL    HW269997  11.414   1.102  12.100
22720SOL     OW69998   6.304   9.410   2.010
22720SOL    HW169999   6.339   9.471   1.945
22720SOL    HW270000   6.216   9.390   1.979
22721SOL     OW70001   6.333   9.305   3.561
22721SOL    HW170002   6.413   9.357   3.569
22721SOL    HW270003   6.275   9.340   3.629
22722SOL     OW70004  11.384  10.058   1.398
22722SOL    HW170005  11.324   9.984   1.413
22722SOL    HW270006  11.327  10.133   1.384
22723SOL     OW70007  13.011  12.473   6.740
22723SOL    HW170008  12.956  12.544   6.773
22723SOL    HW270009  12.953  12.397   6.740
22724SOL     OW70010  12.314   0.300   2.620
22724SOL    HW170011  12.300   0.325   2.529
22724SOL    HW270012  12.245   0.236   2.639
22725SOL     OW70013   5.444   0.031   9.445
22725SOL    HW170014   5.357   0.009   9.481
22725SOL    HW270015   5.505   0.008   9.515
22726SOL     OW70016   5.739   6.866  10.351
22726SOL    HW170017   5.650   6.833  10.366
22726SOL    HW270018   5.796   6.796  10.384
22727SOL     OW70019   3.666  14.290   6.221
22727SOL    HW170020   3.620  14.358   6.172
22727SOL    HW270021   3.652  14.314   6.313
22728SOL     OW70022   4.454   0.143   4.783
22728SOL    HW170023   4.446   0.235   4.758
22728SOL    HW270024   4.543   0.118   4.755
22729SOL     OW70025   0.633   0.610   9.860
22729SOL    HW170026   0.725   0.604   9.888
22729SOL    HW270027   0.583   0.604   9.941
22730SOL     OW70028   1.660   0.451   4.436
22730SOL    HW170029   1.639   0.429   4.345
22730SOL    HW270030   1.673   0.545   4.436
22731SOL     OW70031   7.067  11.021  11.315
22731SOL    HW170032   6.996  11.065  11.361
22731SOL    HW270033   7.037  10.932  11.302
22732SOL     OW70034   2.124  13.341   9.021
22732SOL    HW170035   2.073  13.375   9.095
22732SOL    HW270036   2.184  13.412   8.999
22733SOL     OW70037   2.607  14.361   4.783
22733SOL    HW170038   2.591  14.432   4.844
22733SOL    HW270039   2.699  14.369   4.760
22734SOL     OW70040   6.733   4.843   2.955
22734SOL    HW170041   6.711   4.922   2.907
22734SOL    HW270042   6.654   4.790   2.952
22735SOL     OW70043   8.613   7.552  14.842
22735SOL    HW170044   8.543   7.599  14.795
22735SOL    HW270045   8.665   7.621   0.000
22736SOL     OW70046  12.640   2.911   9.277
22736SOL    HW170047  12.564   2.965   9.256
22736SOL    HW270048  12.607   2.822   9.280
22737SOL     OW70049   4.015   4.076   3.813
22737SOL    HW170050   3.987   4.162   3.783
22737SOL    HW270051   3.983   4.071   3.903
22738SOL     OW70052   9.798   5.276   5.485
22738SOL    HW170053   9.878   5.301   5.438
22738SOL    HW270054   9.826   5.203   5.541
22739SOL     OW70055   7.691   5.029   4.596
22739SOL    HW170056   7.712   5.011   4.504
22739SOL    HW270057   7.746   4.967   4.645
22740SOL     OW70058   7.571   7.262   9.102
22740SOL    HW170059   7.577   7.185   9.158
22740SOL    HW270060   7.598   7.232   9.016
22741SOL     OW70061  13.774  10.700  10.501
22741SOL    HW170062  13.812  10.618  10.534
22741SOL    HW270063  13.709  10.724  10.567
22742SOL     OW70064   2.717  10.335   1.902
22742SOL    HW170065   2.803  10.304   1.872
22742SOL    HW270066   2.681  10.262   1.952
22743SOL     OW70067  11.217   0.791  12.217
22743SOL    HW170068  11.159   0.864  12.241
22743SOL    HW270069  11.180   0.756  12.136
22744SOL     OW70070   7.618   3.986  12.146
22744SOL    HW170071   7.711   4.011  12.140
22744SOL    HW270072   7.571   4.066  12.122
22745SOL     OW70073   3.820  13.202   8.660
22745SOL    HW170074   3.854  13.274   8.607
22745SOL    HW270075   3.877  13.128   8.639
22746SOL     OW70076   5.639   3.498   9.492
22746SOL    HW170077   5.602   3.543   9.568
22746SOL    HW270078   5.733   3.514   9.498
22747SOL     OW70079   6.173  11.973   5.859
22747SOL    HW170080   6.269  11.969   5.857
22747SOL    HW270081   6.145  11.882   5.849
22748SOL     OW70082   3.931   3.886   8.680
22748SOL    HW170083   3.898   3.826   8.747
22748SOL    HW270084   3.950   3.830   8.605
22749SOL     OW70085   6.297   3.596  14.631
22749SOL    HW170086   6.224   3.655  14.608
22749SOL    HW270087   6.262   3.508  14.619
22750SOL     OW70088  14.738   7.299   1.796
22750SOL    HW170089  14.731   7.305   1.700
22750SOL    HW270090  14.810   7.239   1.812
22751SOL     OW70091  12.807   5.312   5.308
22751SOL    HW170092  12.861   5.257   5.251
22751SOL    HW270093  12.728   5.261   5.323
22752SOL     OW70094   7.774   1.896   4.930
22752SOL    HW170095   7.772   1.874   5.023
22752SOL    HW270096   7.691   1.940   4.913
22753SOL     OW70097   3.102  12.688   1.206
22753SOL    HW170098   3.030  12.683   1.143
22753SOL    HW270099   3.178  12.656   1.158
22754SOL     OW70100   9.654  13.835  13.684
22754SOL    HW170101   9.654  13.868  13.774
22754SOL    HW270102   9.628  13.743  13.692
22755SOL     OW70103  10.092  11.677  13.560
22755SOL    HW170104  10.102  11.759  13.608
22755SOL    HW270105  10.152  11.686  13.486
22756SOL     OW70106  10.422  14.627  11.805
22756SOL    HW170107  10.447  14.585  11.888
22756SOL    HW270108  10.500  14.618  11.750
22757SOL     OW70109   5.754  14.156  14.552
22757SOL    HW170110   5.673  14.185  14.509
22757SOL    HW270111   5.739  14.063  14.570
22758SOL     OW70112  11.277   0.600   8.021
22758SOL    HW170113  11.238   0.658   8.086
22758SOL    HW270114  11.222   0.521   8.023
22759SOL     OW70115   0.030   9.321   1.716
22759SOL    HW170116   0.067   9.384   1.777
22759SOL    HW270117   0.055   9.354   1.629
22760SOL     OW70118   9.750   7.158   6.817
22760SOL    HW170119   9.735   7.075   6.863
22760SOL    HW270120   9.791   7.214   6.883
22761SOL     OW70121   3.276   8.252   4.272
22761SOL    HW170122   3.323   8.249   4.355
22761SOL    HW270123   3.206   8.315   4.287
22762SOL     OW70124   7.367   9.244  12.232
22762SOL    HW170125   7.428   9.171  12.244
22762SOL    HW270126   7.310   9.241  12.309
22763SOL     OW70127   6.758  12.567   9.023
22763SOL    HW170128   6.823  12.569   9.093
22763SOL    HW270129   6.679  12.603   9.063
22764SOL     OW70130  14.360   6.549   7.359
22764SOL    HW170131  14.271   6.551   7.323
22764SOL    HW270132  14.379   6.639   7.383
22765SOL     OW70133  13.183   7.175   9.643
22765SOL    HW170134  13.214   7.248   9.589
22765SOL    HW270135  13.140   7.116   9.581
22766SOL     OW70136   2.568   8.849   9.097
22766SOL    HW170137   2.566   8.929   9.044
22766SOL    HW270138   2.480   8.813   9.090
22767SOL     OW70139   5.718   0.252  14.390
22767SOL    HW170140   5.772   0.317  14.346
22767SOL    HW270141   5.744   0.168  14.351
22768SOL     OW70142   5.068   7.689  14.051
22768SOL    HW170143   5.160   7.686  14.079
22768SOL    HW270144   5.068   7.745  13.973
22769SOL     OW70145  13.722   2.312  12.657
22769SOL    HW170146  13.745   2.358  12.738
22769SOL    HW270147  13.787   2.242  12.650
22770SOL     OW70148  11.113  11.296  11.752
22770SOL    HW170149  11.172  11.339  11.691
22770SOL    HW270150  11.037  11.354  11.756
22771SOL     OW70151  11.125   3.907   5.453
22771SOL    HW170152  11.073   3.826   5.455
22771SOL    HW270153  11.157   3.917   5.542
22772SOL     OW70154   8.458  11.355   1.433
22772SOL    HW170155   8.482  11.335   1.342
22772SOL    HW270156   8.541  11.381   1.474
22773SOL     OW70157   1.301   6.098   4.539
22773SOL    HW170158   1.240   6.069   4.471
22773SOL    HW270159   1.325   6.017   4.585
22774SOL     OW70160   6.605  13.985   5.576
22774SOL    HW170161   6.678  13.960   5.519
22774SOL    HW270162   6.589  14.077   5.555
22775SOL     OW70163  13.942  14.275   4.266
22775SOL    HW170164  13.956  14.325   4.185
22775SOL    HW270165  14.031  14.254   4.296
22776SOL     OW70166   5.457   6.406  10.724
22776SOL    HW170167   5.529   6.365  10.772
22776SOL    HW270168   5.450   6.355  10.643
22777SOL     OW70169   4.093   4.078  10.603
22777SOL    HW170170   4.181   4.105  10.628
22777SOL    HW270171   4.106   4.025  10.525
22778SOL     OW70172   3.072   3.481   8.658
22778SOL    HW170173   3.048   3.401   8.611
22778SOL    HW270174   3.157   3.505   8.622
22779SOL     OW70175  12.954   8.764  14.023
22779SOL    HW170176  13.016   8.743  14.093
22779SOL    HW270177  12.871   8.729  14.053
22780SOL     OW70178  12.366   1.961   3.167
22780SOL    HW170179  12.277   1.932   3.188
22780SOL    HW270180  12.423   1.897   3.210
22781SOL     OW70181   8.511  12.491   3.025
22781SOL    HW170182   8.559  12.478   3.107
22781SOL    HW270183   8.476  12.580   3.032
22782SOL     OW70184   4.150   8.117   3.656
22782SOL    HW170185   4.133   8.038   3.707
22782SOL    HW270186   4.063   8.148   3.630
22783SOL     OW70187   4.094   4.683   1.155
22783SOL    HW170188   4.169   4.631   1.125
22783SOL    HW270189   4.053   4.715   1.074
22784SOL     OW70190   7.201   0.894   7.594
22784SOL    HW170191   7.170   0.842   7.668
22784SOL    HW270192   7.265   0.839   7.551
22785SOL     OW70193  12.695   3.119   4.112
22785SOL    HW170194  12.714   3.130   4.019
22785SOL    HW270195  12.779   3.133   4.156
22786SOL     OW70196   5.182  10.645   7.897
22786SOL    HW170197   5.249  10.621   7.833
22786SOL    HW270198   5.229  10.700   7.960
22787SOL     OW70199   4.656   3.607  14.849
22787SOL    HW170200   4.625   3.519  14.867
22787SOL    HW270201   4.584   3.649  14.802
22788SOL     OW70202   6.932   7.922   8.060
22788SOL    HW170203   6.917   7.828   8.053
22788SOL    HW270204   6.953   7.936   8.153
22789SOL     OW70205   2.361   9.226   2.112
22789SOL    HW170206   2.442   9.272   2.090
22789SOL    HW270207   2.296   9.294   2.122
22790SOL     OW70208  13.332   3.873   8.742
22790SOL    HW170209  13.422   3.880   8.773
22790SOL    HW270210  13.289   3.952   8.774
22791SOL     OW70211   3.219  10.706  11.461
22791SOL    HW170212   3.289  10.651  11.425
22791SOL    HW270213   3.193  10.662  11.542
22792SOL     OW70214   3.550   3.295   7.741
22792SOL    HW170215   3.454   3.290   7.739
22792SOL    HW270216   3.577   3.250   7.661
22793SOL     OW70217  10.953  13.719   1.197
22793SOL    HW170218  11.006  13.655   1.246
22793SOL    HW270219  10.910  13.667   1.129
22794SOL     OW70220   8.040   7.701   0.992
22794SOL    HW170221   8.060   7.633   1.057
22794SOL    HW270222   7.964   7.666   0.944
22795SOL     OW70223   4.731  12.871   8.826
22795SOL    HW170224   4.744  12.854   8.732
22795SOL    HW270225   4.692  12.790   8.859
22796SOL     OW70226  11.084   3.057  13.298
22796SOL    HW170227  10.997   3.092  13.318
22796SOL    HW270228  11.143   3.132  13.306
22797SOL     OW70229   8.347  12.718   3.050
22797SOL    HW170230   8.416  12.762   3.001
22797SOL    HW270231   8.266  12.747   3.008
22798SOL     OW70232  14.707   7.133  14.093
22798SOL    HW170233  14.650   7.209  14.101
22798SOL    HW270234  14.692   7.100  14.004
22799SOL     OW70235  14.120  14.794   8.085
22799SOL    HW170236  14.123  14.699   8.092
22799SOL    HW270237  14.106  14.811   7.992
22800SOL     OW70238   6.366   2.631   1.585
22800SOL    HW170239   6.391   2.646   1.493
22800SOL    HW270240   6.392   2.541   1.602
22801SOL     OW70241   6.503   2.399   6.865
22801SOL    HW170242   6.459   2.463   6.809
22801SOL    HW270243   6.468   2.314   6.837
22802SOL     OW70244  14.643  11.263  11.883
22802SOL    HW170245  14.612  11.193  11.941
22802SOL    HW270246  14.653  11.220  11.798
22803SOL     OW70247   7.013   2.149   2.462
22803SOL    HW170248   6.934   2.100   2.439
22803SOL    HW270249   7.082   2.112   2.406
22804SOL     OW70250   4.923   6.244   2.234
22804SOL    HW170251   4.943   6.155   2.204
22804SOL    HW270252   5.004   6.292   2.220
22805SOL     OW70253   3.638   6.618   3.943
22805SOL    HW170254   3.689   6.537   3.946
22805SOL    HW270255   3.703   6.688   3.944
22806SOL     OW70256   5.603   8.943   7.383
22806SOL    HW170257   5.568   8.854   7.378
22806SOL    HW270258   5.607   8.973   7.292
22807SOL     OW70259   7.103   3.393   5.228
22807SOL    HW170260   7.093   3.481   5.264
22807SOL    HW270261   7.120   3.337   5.305
22808SOL     OW70262   2.305  11.543  10.738
22808SOL    HW170263   2.283  11.450  10.728
22808SOL    HW270264   2.234  11.589  10.693
22809SOL     OW70265  14.091   6.179   3.416
22809SOL    HW170266  14.073   6.091   3.380
22809SOL    HW270267  14.094   6.235   3.339
22810SOL     OW70268   8.525  10.530   3.410
22810SOL    HW170269   8.520  10.435   3.402
22810SOL    HW270270   8.453  10.553   3.469
22811SOL     OW70271   1.430   2.554   0.855
22811SOL    HW170272   1.496   2.508   0.906
22811SOL    HW270273   1.466   2.642   0.843
22812SOL     OW70274  14.574   4.183  11.034
22812SOL    HW170275  14.508   4.247  11.007
22812SOL    HW270276  14.572   4.186  11.130
22813SOL     OW70277  10.274   4.560  14.243
22813SOL    HW170278  10.296   4.573  14.335
22813SOL    HW270279  10.350   4.513  14.207
22814SOL     OW70280   9.919  10.009   4.833
22814SOL    HW170281   9.966  10.066   4.771
22814SOL    HW270282   9.987   9.974   4.890
22815SOL     OW70283   8.745  11.300  13.406
22815SOL    HW170284   8.695  11.220  13.421
22815SOL    HW270285   8.691  11.369  13.444
22816SOL     OW70286   4.283   5.016   4.052
22816SOL    HW170287   4.222   5.089   4.064
22816SOL    HW270288   4.233   4.938   4.075
22817SOL     OW70289   3.769  11.827  14.382
22817SOL    HW170290   3.771  11.815  14.477
22817SOL    HW270291   3.777  11.739  14.346
22818SOL     OW70292   0.182   2.107   6.713
22818SOL    HW170293   0.248   2.038   6.722
22818SOL    HW270294   0.161   2.132   6.803
22819SOL     OW70295  12.770   3.514   6.332
22819SOL    HW170296  12.785   3.582   6.266
22819SOL    HW270297  12.849   3.461   6.331
22820SOL     OW70298   3.854  10.491   2.787
22820SOL    HW170299   3.775  10.500   2.840
22820SOL    HW270300   3.822  10.463   2.701
22821SOL     OW70301   3.472   3.156   2.935
22821SOL    HW170302   3.383   3.154   2.899
22821SOL    HW270303   3.529   3.149   2.859
22822SOL     OW70304   1.518   0.200  10.369
22822SOL    HW170305   1.605   0.180  10.335
22822SOL    HW270306   1.513   0.295  10.370
22823SOL     OW70307   7.303  14.459   9.124
22823SOL    HW170308   7.288  14.516   9.049
22823SOL    HW270309   7.381  14.408   9.100
22824SOL     OW70310   5.108  13.641   4.381
22824SOL    HW170311   5.114  13.546   4.393
22824SOL    HW270312   5.125  13.655   4.288
22825SOL     OW70313  13.027  13.830   1.502
22825SOL    HW170314  13.118  13.836   1.530
22825SOL    HW270315  12.979  13.885   1.563
22826SOL     OW70316   5.318   1.823  14.180
22826SOL    HW170317   5.230   1.852  14.157
22826SOL    HW270318   5.353   1.787  14.098
22827SOL     OW70319   3.165  13.024   3.923
22827SOL    HW170320   3.078  13.022   3.962
22827SOL    HW270321   3.216  13.082   3.980
22828SOL     OW70322   9.883   6.292   8.241
22828SOL    HW170323   9.898   6.328   8.329
22828SOL    HW270324   9.908   6.200   8.248
22829SOL     OW70325   9.395   5.765   1.432
22829SOL    HW170326   9.325   5.720   1.385
22829SOL    HW270327   9.390   5.731   1.521
22830SOL     OW70328   7.898   0.020  12.434
22830SOL    HW170329   7.942   0.076  12.369
22830SOL    HW270330   7.954  14.825  12.442
22831SOL     OW70331   1.562   2.085  10.873
22831SOL    HW170332   1.513   2.092  10.955
22831SOL    HW270333   1.583   1.992  10.865
22832SOL     OW70334  14.510   0.115  11.094
22832SOL    HW170335  14.474   0.135  11.181
22832SOL    HW270336  14.544   0.199  11.062
22833SOL     OW70337   7.181  12.365  12.040
22833SOL    HW170338   7.146  12.300  12.102
22833SOL    HW270339   7.276  12.352  12.043
22834SOL     OW70340   7.959   1.845   0.704
22834SOL    HW170341   7.965   1.860   0.798
22834SOL    HW270342   7.889   1.780   0.695
22835SOL     OW70343   9.810   4.967  14.383
22835SOL    HW170344   9.839   4.993  14.471
22835SOL    HW270345   9.730   4.916  14.398
22836SOL     OW70346   9.702   6.842   6.631
22836SOL    HW170347   9.617   6.798   6.638
22836SOL    HW270348   9.748   6.819   6.712
22837SOL     OW70349   0.997   6.706   6.895
22837SOL    HW170350   0.985   6.613   6.911
22837SOL    HW270351   0.910   6.744   6.911
22838SOL     OW70352   8.103   2.688  10.081
22838SOL    HW170353   8.146   2.772  10.067
22838SOL    HW270354   8.165   2.623  10.049
22839SOL     OW70355   0.820   7.795   2.990
22839SOL    HW170356   0.848   7.841   2.911
22839SOL    HW270357   0.890   7.732   3.008
22840SOL     OW70358   3.799   4.921   2.200
22840SOL    HW170359   3.847   4.840   2.185
22840SOL    HW270360   3.802   4.967   2.116
22841SOL     OW70361   0.315  12.607   9.763
22841SOL    HW170362   0.258  12.568   9.697
22841SOL    HW270363   0.402  12.572   9.744
22842SOL     OW70364   4.884  13.176   5.698
22842SOL    HW170365   4.971  13.137   5.703
22842SOL    HW270366   4.842  13.134   5.623
22843SOL     OW70367  10.118   4.448  13.658
22843SOL    HW170368  10.036   4.407  13.686
22843SOL    HW270369  10.121   4.432  13.563
22844SOL     OW70370  13.805   3.586   9.940
22844SOL    HW170371  13.859   3.658   9.908
22844SOL    HW270372  13.856   3.507   9.917
22845SOL     OW70373  14.681   2.375   7.390
22845SOL    HW170374  14.731   2.451   7.421
22845SOL    HW270375  14.734   2.299   7.415
22846SOL     OW70376   4.774  11.259  14.296
22846SOL    HW170377   4.735  11.203  14.363
22846SOL    HW270378   4.757  11.348  14.326
22847SOL     OW70379   3.312  13.994   1.713
22847SOL    HW170380   3.252  14.046   1.658
22847SOL    HW270381   3.326  14.047   1.791
22848SOL     OW70382  10.132   9.050   4.215
22848SOL    HW170383  10.086   9.004   4.285
22848SOL    HW270384  10.171   9.127   4.258
22849SOL     OW70385   8.723  10.605   8.835
22849SOL    HW170386   8.633  10.601   8.804
22849SOL    HW270387   8.762  10.521   8.809
22850SOL     OW70388   6.083   6.726  12.416
22850SOL    HW170389   6.138   6.790  12.462
22850SOL    HW270390   5.994   6.744  12.447
22851SOL     OW70391  12.029   1.024   3.626
22851SOL    HW170392  11.966   1.096   3.624
22851SOL    HW270393  12.102   1.057   3.678
22852SOL     OW70394   3.042  13.309   2.800
22852SOL    HW170395   3.040  13.389   2.852
22852SOL    HW270396   3.117  13.320   2.741
22853SOL     OW70397   1.685  10.852   4.286
22853SOL    HW170398   1.735  10.930   4.309
22853SOL    HW270399   1.736  10.811   4.216
22854SOL     OW70400  13.862   5.446  14.739
22854SOL    HW170401  13.919   5.511  14.780
22854SOL    HW270402  13.922   5.389  14.691
22855SOL     OW70403   2.760   5.658   9.160
22855SOL    HW170404   2.695   5.614   9.105
22855SOL    HW270405   2.758   5.749   9.131
22856SOL     OW70406  10.262   0.626   0.739
22856SOL    HW170407  10.202   0.689   0.779
22856SOL    HW270408  10.349   0.663   0.752
22857SOL     OW70409  10.644   4.541   7.169
22857SOL    HW170410  10.658   4.625   7.125
22857SOL    HW270411  10.552   4.520   7.153
22858SOL     OW70412   0.801  11.136   6.773
22858SOL    HW170413   0.880  11.185   6.749
22858SOL    HW270414   0.816  11.048   6.738
22859SOL     OW70415   4.611  13.054   5.084
22859SOL    HW170416   4.630  13.039   4.992
22859SOL    HW270417   4.682  13.110   5.115
22860SOL     OW70418   3.356   9.119   1.228
22860SOL    HW170419   3.345   9.143   1.136
22860SOL    HW270420   3.404   9.036   1.225
22861SOL     OW70421   4.235   8.820   8.912
22861SOL    HW170422   4.259   8.832   8.820
22861SOL    HW270423   4.228   8.909   8.947
22862SOL     OW70424   8.739   1.168  11.371
22862SOL    HW170425   8.808   1.137  11.429
22862SOL    HW270426   8.663   1.180  11.428
22863SOL     OW70427   6.559   1.680   8.518
22863SOL    HW170428   6.588   1.612   8.578
22863SOL    HW270429   6.513   1.743   8.573
22864SOL     OW70430   8.616   3.538   8.920
22864SOL    HW170431   8.655   3.620   8.891
22864SOL    HW270432   8.522   3.548   8.902
22865SOL     OW70433   5.938   5.648  12.906
22865SOL    HW170434   5.997   5.642  12.981
22865SOL    HW270435   5.991   5.615  12.832
22866SOL     OW70436   2.346   4.522   4.832
22866SOL    HW170437   2.378   4.505   4.921
22866SOL    HW270438   2.355   4.438   4.787
22867SOL     OW70439   1.526   8.573  14.709
22867SOL    HW170440   1.507   8.573  14.616
22867SOL    HW270441   1.441   8.583  14.752
22868SOL     OW70442   2.416  11.152  13.950
22868SOL    HW170443   2.411  11.114  14.038
22868SOL    HW270444   2.404  11.246  13.963
22869SOL     OW70445   6.861   3.184   1.948
22869SOL    HW170446   6.813   3.194   2.030
22869SOL    HW270447   6.872   3.274   1.916
22870SOL     OW70448  11.518   2.094   6.386
22870SOL    HW170449  11.537   2.016   6.437
22870SOL    HW270450  11.587   2.098   6.320
22871SOL     OW70451  10.334   8.805   1.581
22871SOL    HW170452  10.303   8.720   1.612
22871SOL    HW270453  10.285   8.821   1.500
22872SOL     OW70454   8.122  12.708   8.376
22872SOL    HW170455   8.192  12.759   8.418
22872SOL    HW270456   8.107  12.753   8.293
22873SOL     OW70457   5.410   3.643   6.497
22873SOL    HW170458   5.427   3.617   6.587
22873SOL    HW270459   5.384   3.735   6.503
22874SOL     OW70460  12.778  11.119   9.922
22874SOL    HW170461  12.809  11.191   9.977
22874SOL    HW270462  12.751  11.161   9.841
22875SOL     OW70463  13.232   9.084   9.413
22875SOL    HW170464  13.147   9.099   9.455
22875SOL    HW270465  13.260   8.998   9.445
22876SOL     OW70466   5.392   5.953  10.143
22876SOL    HW170467   5.307   5.912  10.126
22876SOL    HW270468   5.452   5.907  10.085
22877SOL     OW70469   1.639  13.914   0.820
22877SOL    HW170470   1.651  14.007   0.799
22877SOL    HW270471   1.591  13.878   0.745
22878SOL     OW70472   7.932   5.193  11.263
22878SOL    HW170473   7.960   5.104  11.239
22878SOL    HW270474   7.843   5.200  11.230
22879SOL     OW70475   1.160   1.111   6.054
22879SOL    HW170476   1.101   1.186   6.046
22879SOL    HW270477   1.240   1.148   6.092
22880SOL     OW70478   2.641   4.651  13.305
22880SOL    HW170479   2.553   4.674  13.276
22880SOL    HW270480   2.681   4.611  13.228
22881SOL     OW70481   6.064   3.986   7.890
22881SOL    HW170482   6.157   4.005   7.903
22881SOL    HW270483   6.018   4.062   7.928
22882SOL     OW70484   2.804   6.067   2.592
22882SOL    HW170485   2.823   5.974   2.583
22882SOL    HW270486   2.739   6.072   2.662
22883SOL     OW70487  11.600   1.363   2.245
22883SOL    HW170488  11.641   1.431   2.298
22883SOL    HW270489  11.524   1.334   2.297
22884SOL     OW70490  13.782  13.942   2.329
22884SOL    HW170491  13.728  13.863   2.331
22884SOL    HW270492  13.746  13.993   2.257
22885SOL     OW70493   2.442  10.781  11.625
22885SOL    HW170494   2.524  10.738  11.650
22885SOL    HW270495   2.397  10.798  11.707
22886SOL     OW70496   0.819   7.988   3.798
22886SOL    HW170497   0.723   7.986   3.802
22886SOL    HW270498   0.841   7.915   3.740
22887SOL     OW70499  11.430   0.343  10.143
22887SOL    HW170500  11.339   0.325  10.168
22887SOL    HW270501  11.467   0.388  10.218
22888SOL     OW70502  11.131   2.737  12.418
22888SOL    HW170503  11.099   2.647  12.426
22888SOL    HW270504  11.227   2.729  12.417
22889SOL     OW70505   6.808   7.021   2.866
22889SOL    HW170506   6.786   7.102   2.820
22889SOL    HW270507   6.771   6.952   2.811
22890SOL     OW70508  12.873  13.276   9.031
22890SOL    HW170509  12.808  13.229   9.082
22890SOL    HW270510  12.842  13.268   8.940
22891SOL     OW70511   3.742   6.381   7.485
22891SOL    HW170512   3.694   6.410   7.408
22891SOL    HW270513   3.718   6.289   7.496
22892SOL     OW70514   8.553  11.113  13.063
22892SOL    HW170515   8.555  11.205  13.089
22892SOL    HW270516   8.535  11.066  13.144
22893SOL     OW70517   1.593  14.052  10.115
22893SOL    HW170518   1.655  14.072  10.045
22893SOL    HW270519   1.510  14.038  10.069
22894SOL     OW70520   8.830  12.277   9.483
22894SOL    HW170521   8.874  12.250   9.564
22894SOL    HW270522   8.752  12.223   9.479
22895SOL     OW70523  13.002   9.007   2.428
22895SOL    HW170524  12.969   8.944   2.364
22895SOL    HW270525  13.046   9.073   2.375
22896SOL     OW70526   4.422   8.957  13.175
22896SOL    HW170527   4.434   8.877  13.226
22896SOL    HW270528   4.494   8.957  13.112
22897SOL     OW70529   0.619   3.983   9.638
22897SOL    HW170530   0.559   4.056   9.621
22897SOL    HW270531   0.701   4.024   9.666
22898SOL     OW70532   1.474   6.941  10.160
22898SOL    HW170533   1.558   6.986  10.165
22898SOL    HW270534   1.429   6.983  10.087
22899SOL     OW70535   3.227   5.017  14.486
22899SOL    HW170536   3.175   4.948  14.444
22899SOL    HW270537   3.163   5.079  14.520
22900SOL     OW70538  12.063  10.124   0.295
22900SOL    HW170539  11.993  10.103   0.357
22900SOL    HW270540  12.061  10.052   0.232
22901SOL     OW70541   0.496  11.114  10.401
22901SOL    HW170542   0.581  11.084  10.369
22901SOL    HW270543   0.511  11.206  10.423
22902SOL     OW70544   8.442   2.433  11.584
22902SOL    HW170545   8.474   2.523  11.576
22902SOL    HW270546   8.411   2.426  11.674
22903SOL     OW70547   3.819   5.628   3.630
22903SOL    HW170548   3.828   5.595   3.720
22903SOL    HW270549   3.874   5.569   3.578
22904SOL     OW70550   3.283  13.522   3.471
22904SOL    HW170551   3.277  13.575   3.391
22904SOL    HW270552   3.374  13.491   3.472
22905SOL     OW70553  12.319   7.654   6.154
22905SOL    HW170554  12.384   7.597   6.196
22905SOL    HW270555  12.363   7.740   6.151
22906SOL     OW70556   4.592  11.396   7.496
22906SOL    HW170557   4.678  11.438   7.498
22906SOL    HW270558   4.550  11.424   7.577
22907SOL     OW70559  13.722  10.876   1.058
22907SOL    HW170560  13.632  10.904   1.044
22907SOL    HW270561  13.738  10.811   0.990
22908SOL     OW70562   7.381   7.753   6.889
22908SOL    HW170563   7.417   7.781   6.804
22908SOL    HW270564   7.290   7.732   6.870
22909SOL     OW70565   7.552  12.924  10.418
22909SOL    HW170566   7.517  12.921  10.507
22909SOL    HW270567   7.615  12.996  10.420
22910SOL     OW70568   5.129   2.122   4.221
22910SOL    HW170569   5.174   2.185   4.277
22910SOL    HW270570   5.037   2.148   4.226
22911SOL     OW70571   2.714  10.815   3.179
22911SOL    HW170572   2.798  10.839   3.217
22911SOL    HW270573   2.716  10.853   3.091
22912SOL     OW70574   7.969   2.431   3.208
22912SOL    HW170575   7.934   2.357   3.159
22912SOL    HW270576   8.009   2.392   3.285
22913SOL     OW70577   2.622  11.565   8.733
22913SOL    HW170578   2.652  11.565   8.642
22913SOL    HW270579   2.680  11.503   8.777
22914SOL     OW70580  11.476   4.032   8.284
22914SOL    HW170581  11.501   4.098   8.220
22914SOL    HW270582  11.532   4.051   8.360
22915SOL     OW70583  13.242  10.728   4.715
22915SOL    HW170584  13.306  10.783   4.670
22915SOL    HW270585  13.280  10.711   4.801
22916SOL     OW70586   9.168   9.898   3.598
22916SOL    HW170587   9.193   9.806   3.599
22916SOL    HW270588   9.086   9.900   3.648
22917SOL     OW70589   7.298   0.928   3.107
22917SOL    HW170590   7.344   0.863   3.160
22917SOL    HW270591   7.213   0.888   3.089
22918SOL     OW70592  12.514  14.553   4.640
22918SOL    HW170593  12.530  14.482   4.702
22918SOL    HW270594  12.601  14.584   4.616
22919SOL     OW70595   1.725  14.278  12.015
22919SOL    HW170596   1.654  14.236  12.063
22919SOL    HW270597   1.684  14.309  11.934
22920SOL     OW70598   3.459   5.428   1.132
22920SOL    HW170599   3.468   5.502   1.192
22920SOL    HW270600   3.543   5.383   1.136
22921SOL     OW70601   0.783  12.011   5.562
22921SOL    HW170602   0.784  12.072   5.636
22921SOL    HW270603   0.853  11.948   5.582
22922SOL     OW70604   8.668   9.973  13.338
22922SOL    HW170605   8.617  10.008  13.411
22922SOL    HW270606   8.627  10.009  13.260
22923SOL     OW70607   3.394  12.512   3.362
22923SOL    HW170608   3.451  12.541   3.433
22923SOL    HW270609   3.307  12.508   3.403
22924SOL     OW70610   6.731  13.454  13.810
22924SOL    HW170611   6.692  13.381  13.858
22924SOL    HW270612   6.802  13.415  13.760
22925SOL     OW70613  10.909  10.008   9.861
22925SOL    HW170614  10.854   9.942   9.903
22925SOL    HW270615  10.897  10.087   9.914
22926SOL     OW70616   6.707  12.326   5.370
22926SOL    HW170617   6.632  12.267   5.369
22926SOL    HW270618   6.669  12.414   5.365
22927SOL     OW70619   0.094  14.401   7.712
22927SOL    HW170620   0.021  14.462   7.699
22927SOL    HW270621   0.113  14.367   7.624
22928SOL     OW70622   6.022   8.296   6.221
22928SOL    HW170623   5.956   8.362   6.244
22928SOL    HW270624   6.014   8.229   6.288
22929SOL     OW70625  14.503   1.652   4.013
22929SOL    HW170626  14.558   1.628   4.087
22929SOL    HW270627  14.524   1.743   3.995
22930SOL     OW70628  13.926   3.127   0.853
22930SOL    HW170629  13.914   3.191   0.782
22930SOL    HW270630  13.983   3.061   0.815
22931SOL     OW70631   0.601   9.674   1.698
22931SOL    HW170632   0.645   9.608   1.645
22931SOL    HW270633   0.672   9.722   1.741
22932SOL     OW70634   3.347  14.180  10.643
22932SOL    HW170635   3.314  14.238  10.711
22932SOL    HW270636   3.274  14.121  10.623
22933SOL     OW70637   5.377   1.583   6.242
22933SOL    HW170638   5.438   1.550   6.308
22933SOL    HW270639   5.412   1.549   6.159
22934SOL     OW70640   4.390   0.775   7.053
22934SOL    HW170641   4.408   0.794   7.145
22934SOL    HW270642   4.451   0.831   7.005
22935SOL     OW70643   7.882   1.847   6.669
22935SOL    HW170644   7.866   1.914   6.603
22935SOL    HW270645   7.936   1.890   6.735
22936SOL     OW70646  12.098   1.862   9.965
22936SOL    HW170647  12.043   1.809  10.022
22936SOL    HW270648  12.080   1.829   9.877
22937SOL     OW70649  12.386  14.317   3.945
22937SOL    HW170650  12.298  14.284   3.931
22937SOL    HW270651  12.421  14.264   4.016
22938SOL     OW70652   3.904   9.427   6.004
22938SOL    HW170653   3.830   9.396   5.953
22938SOL    HW270654   3.975   9.365   5.984
22939SOL     OW70655   0.128   2.574  12.770
22939SOL    HW170656   0.081   2.597  12.850
22939SOL    HW270657   0.062   2.577  12.701
22940SOL     OW70658   6.879   6.009  11.814
22940SOL    HW170659   6.854   6.059  11.891
22940SOL    HW270660   6.800   6.004  11.761
22941SOL     OW70661   6.862  11.404   9.410
22941SOL    HW170662   6.854  11.309   9.410
22941SOL    HW270663   6.875  11.427   9.318
22942SOL     OW70664   4.403  11.706   2.716
22942SOL    HW170665   4.446  11.655   2.786
22942SOL    HW270666   4.446  11.791   2.719
22943SOL     OW70667   4.459   0.299   8.245
22943SOL    HW170668   4.457   0.390   8.216
22943SOL    HW270669   4.395   0.254   8.189
22944SOL     OW70670   3.737  10.655   3.438
22944SOL    HW170671   3.754  10.640   3.345
22944SOL    HW270672   3.813  10.706   3.467
22945SOL     OW70673   3.806  14.469  14.179
22945SOL    HW170674   3.811  14.499  14.088
22945SOL    HW270675   3.714  14.451  14.193
22946SOL     OW70676   2.995  10.080   4.844
22946SOL    HW170677   3.023  10.064   4.934
22946SOL    HW270678   2.900  10.085   4.849
22947SOL     OW70679   8.169   4.305   7.778
22947SOL    HW170680   8.163   4.399   7.793
22947SOL    HW270681   8.262   4.285   7.787
22948SOL     OW70682   9.051   5.385  10.399
22948SOL    HW170683   9.088   5.297  10.385
22948SOL    HW270684   9.005   5.404  10.317
22949SOL     OW70685   9.182  14.212   4.754
22949SOL    HW170686   9.138  14.163   4.823
22949SOL    HW270687   9.218  14.289   4.799
22950SOL     OW70688   8.536   7.410   7.279
22950SOL    HW170689   8.592   7.486   7.261
22950SOL    HW270690   8.534   7.361   7.197
22951SOL     OW70691   4.412  13.368   6.695
22951SOL    HW170692   4.434  13.306   6.765
22951SOL    HW270693   4.398  13.312   6.618
22952SOL     OW70694   2.997  14.552   2.477
22952SOL    HW170695   3.074  14.550   2.420
22952SOL    HW270696   2.995  14.642   2.510
22953SOL     OW70697   1.007   8.670   5.277
22953SOL    HW170698   0.973   8.750   5.317
22953SOL    HW270699   0.992   8.602   5.342
22954SOL     OW70700  13.364   5.617   1.524
22954SOL    HW170701  13.275   5.593   1.547
22954SOL    HW270702  13.366   5.615   1.428
22955SOL     OW70703  12.682   8.298   4.623
22955SOL    HW170704  12.728   8.215   4.635
22955SOL    HW270705  12.635   8.288   4.541
22956SOL     OW70706  11.367   5.957  12.486
22956SOL    HW170707  11.460   5.936  12.493
22956SOL    HW270708  11.323   5.890  12.539
22957SOL     OW70709   2.932   8.170   9.654
22957SOL    HW170710   2.905   8.262   9.653
22957SOL    HW270711   3.005   8.166   9.592
22958SOL     OW70712  14.303  12.257   6.491
22958SOL    HW170713  14.233  12.316   6.519
22958SOL    HW270714  14.292  12.249   6.397
22959SOL     OW70715   0.444   7.553   8.103
22959SOL    HW170716   0.398   7.485   8.151
22959SOL    HW270717   0.460   7.515   8.017
22960SOL     OW70718   7.093   2.083   2.780
22960SOL    HW170719   7.052   1.999   2.800
22960SOL    HW270720   7.068   2.100   2.689
22961SOL     OW70721  13.445   4.590   8.520
22961SOL    HW170722  13.381   4.540   8.469
22961SOL    HW270723  13.438   4.679   8.486
22962SOL     OW70724   1.885   8.534   0.246
22962SOL    HW170725   1.794   8.548   0.271
22962SOL    HW270726   1.881   8.480   0.168
22963SOL     OW70727  13.694   4.744   1.564
22963SOL    HW170728  13.740   4.808   1.510
22963SOL    HW270729  13.625   4.709   1.507
22964SOL     OW70730  10.889  11.479  11.765
22964SOL    HW170731  10.820  11.495  11.700
22964SOL    HW270732  10.864  11.535  11.839
22965SOL     OW70733   7.278   5.499  13.356
22965SOL    HW170734   7.283   5.495  13.261
22965SOL    HW270735   7.345   5.437  13.386
22966SOL     OW70736   1.338  14.373   4.108
22966SOL    HW170737   1.366  14.464   4.108
22966SOL    HW270738   1.399  14.328   4.049
22967SOL     OW70739  11.538   7.664   9.268
22967SOL    HW170740  11.549   7.614   9.187
22967SOL    HW270741  11.446   7.688   9.270
22968SOL     OW70742   6.514  14.595   8.460
22968SOL    HW170743   6.436  14.562   8.506
22968SOL    HW270744   6.482  14.621   8.374
22969SOL     OW70745  10.192   3.767   7.657
22969SOL    HW170746  10.271   3.728   7.619
22969SOL    HW270747  10.221   3.805   7.740
22970SOL     OW70748  13.078   5.465   5.750
22970SOL    HW170749  13.163   5.425   5.769
22970SOL    HW270750  13.098   5.540   5.694
22971SOL     OW70751   3.167   8.128  13.869
22971SOL    HW170752   3.107   8.053  13.868
22971SOL    HW270753   3.161   8.162  13.959
22972SOL     OW70754   8.835   8.406  13.170
22972SOL    HW170755   8.787   8.407  13.252
22972SOL    HW270756   8.805   8.327  13.125
22973SOL     OW70757   4.629   0.421   7.328
22973SOL    HW170758   4.638   0.328   7.348
22973SOL    HW270759   4.685   0.434   7.251
22974SOL     OW70760  10.620  11.448   0.201
22974SOL    HW170761  10.661  11.432   0.287
22974SOL    HW270762  10.536  11.488   0.222
22975SOL     OW70763   8.395  13.008   2.037
22975SOL    HW170764   8.312  12.982   2.076
22975SOL    HW270765   8.430  12.928   1.998
22976SOL     OW70766   6.321  14.715   9.353
22976SOL    HW170767   6.310  14.695   9.260
22976SOL    HW270768   6.411  14.745   9.361
22977SOL     OW70769  13.495  11.626   6.871
22977SOL    HW170770  13.573  11.593   6.917
22977SOL    HW270771  13.521  11.712   6.840
22978SOL     OW70772  11.831  13.996   5.693
22978SOL    HW170773  11.780  13.916   5.685
22978SOL    HW270774  11.893  13.978   5.764
22979SOL     OW70775   8.303   1.955   0.534
22979SOL    HW170776   8.214   1.981   0.558
22979SOL    HW270777   8.292   1.893   0.462
22980SOL     OW70778   2.546   2.116  14.470
22980SOL    HW170779   2.595   2.046  14.513
22980SOL    HW270780   2.601   2.143  14.397
22981SOL     OW70781  12.303   8.160   2.873
22981SOL    HW170782  12.279   8.084   2.925
22981SOL    HW270783  12.280   8.235   2.928
22982SOL     OW70784   7.240  14.445  11.123
22982SOL    HW170785   7.277  14.421  11.208
22982SOL    HW270786   7.316  14.454  11.065
22983SOL     OW70787  14.230  11.283   8.278
22983SOL    HW170788  14.298  11.281   8.210
22983SOL    HW270789  14.148  11.288   8.229
22984SOL     OW70790   6.811   2.955   1.824
22984SOL    HW170791   6.847   3.034   1.865
22984SOL    HW270792   6.745   2.988   1.763
22985SOL     OW70793   1.782   9.935   3.312
22985SOL    HW170794   1.748   9.933   3.223
22985SOL    HW270795   1.725   9.876   3.361
22986SOL     OW70796   5.247   6.716   5.240
22986SOL    HW170797   5.194   6.792   5.216
22986SOL    HW270798   5.207   6.684   5.321
22987SOL     OW70799  10.951   0.586   6.674
22987SOL    HW170800  10.985   0.499   6.653
22987SOL    HW270801  10.983   0.603   6.762
22988SOL     OW70802   6.993   5.533   7.665
22988SOL    HW170803   6.915   5.589   7.669
22988SOL    HW270804   6.971   5.457   7.718
22989SOL     OW70805  13.585  13.524  13.194
22989SOL    HW170806  13.540  13.488  13.117
22989SOL    HW270807  13.570  13.618  13.188
22990SOL     OW70808   4.098   9.509   3.271
22990SOL    HW170809   4.029   9.482   3.332
22990SOL    HW270810   4.085   9.603   3.259
22991SOL     OW70811  13.052   9.080   0.038
22991SOL    HW170812  12.983   9.134  14.880
22991SOL    HW270813  13.132   9.105  14.873
22992SOL     OW70814   0.791   8.889   3.966
22992SOL    HW170815   0.835   8.812   4.000
22992SOL    HW270816   0.838   8.911   3.886
22993SOL     OW70817   8.558   7.323   5.130
22993SOL    HW170818   8.649   7.319   5.160
22993SOL    HW270819   8.512   7.367   5.201
22994SOL     OW70820  14.677   3.169   9.657
22994SOL    HW170821  14.594   3.171   9.608
22994SOL    HW270822  14.722   3.091   9.625
22995SOL     OW70823   2.870   4.077  11.939
22995SOL    HW170824   2.862   4.106  11.848
22995SOL    HW270825   2.855   4.156  11.991
22996SOL     OW70826   0.278   7.325  13.425
22996SOL    HW170827   0.227   7.375  13.361
22996SOL    HW270828   0.243   7.351  13.510
22997SOL     OW70829   0.001  13.037   2.840
22997SOL    HW170830   0.007  12.960   2.784
22997SOL    HW270831   0.090  13.049   2.874
22998SOL     OW70832   5.085   3.695   3.068
22998SOL    HW170833   5.000   3.693   3.024
22998SOL    HW270834   5.077   3.630   3.138
22999SOL     OW70835   8.488   0.432   0.680
22999SOL    HW170836   8.405   0.476   0.698
22999SOL    HW270837   8.484   0.412   0.586
23000SOL     OW70838  12.043   1.305   6.665
23000SOL    HW170839  12.125   1.286   6.712
23000SOL    HW270840  12.029   1.228   6.610
23001SOL     OW70841   1.355   1.299   0.476
23001SOL    HW170842   1.290   1.235   0.447
23001SOL    HW270843   1.405   1.320   0.397
23002SOL     OW70844  10.118   3.931   5.096
23002SOL    HW170845  10.036   3.972   5.123
23002SOL    HW270846  10.137   3.867   5.165
23003SOL     OW70847   4.265   1.669   1.992
23003SOL    HW170848   4.327   1.617   2.043
23003SOL    HW270849   4.231   1.607   1.927
23004SOL     OW70850   0.987   9.211   4.129
23004SOL    HW170851   0.940   9.243   4.052
23004SOL    HW270852   1.024   9.127   4.102
23005SOL     OW70853   2.691   6.403   9.638
23005SOL    HW170854   2.703   6.497   9.655
23005SOL    HW270855   2.779   6.369   9.629
23006SOL     OW70856  10.845   7.391   4.858
23006SOL    HW170857  10.818   7.365   4.770
23006SOL    HW270858  10.880   7.311   4.897
23007SOL     OW70859   4.807   1.098  12.770
23007SOL    HW170860   4.841   1.135  12.851
23007SOL    HW270861   4.742   1.034  12.799
23008SOL     OW70862  11.436  13.556  14.536
23008SOL    HW170863  11.485  13.578  14.456
23008SOL    HW270864  11.348  13.536  14.505
23009SOL     OW70865  13.661   8.897  10.170
23009SOL    HW170866  13.633   8.982  10.204
23009SOL    HW270867  13.636   8.898  10.078
23010SOL     OW70868   7.939   3.128  12.692
23010SOL    HW170869   7.856   3.147  12.736
23010SOL    HW270870   7.916   3.065  12.624
23011SOL     OW70871   3.820  14.549  13.609
23011SOL    HW170872   3.909  14.519  13.590
23011SOL    HW270873   3.764  14.475  13.586
23012SOL     OW70874  10.499   1.655   0.535
23012SOL    HW170875  10.470   1.644   0.625
23012SOL    HW270876  10.541   1.741   0.533
23013SOL     OW70877   7.533  14.467   2.446
23013SOL    HW170878   7.625  14.444   2.455
23013SOL    HW270879   7.499  14.469   2.535
23014SOL     OW70880  14.168   9.995   9.813
23014SOL    HW170881  14.238  10.006   9.749
23014SOL    HW270882  14.092  10.039   9.774
23015SOL     OW70883   8.768  12.256   6.309
23015SOL    HW170884   8.689  12.203   6.308
23015SOL    HW270885   8.817  12.225   6.385
23016SOL     OW70886   2.651   6.160   2.029
23016SOL    HW170887   2.602   6.123   2.102
23016SOL    HW270888   2.613   6.120   1.951
23017SOL     OW70889   0.750   9.286   2.457
23017SOL    HW170890   0.785   9.370   2.426
23017SOL    HW270891   0.827   9.236   2.483
23018SOL     OW70892  14.686  13.350  11.831
23018SOL    HW170893  14.745  13.382  11.763
23018SOL    HW270894  14.645  13.273  11.793
23019SOL     OW70895   2.442   5.718   4.114
23019SOL    HW170896   2.488   5.767   4.183
23019SOL    HW270897   2.490   5.740   4.034
23020SOL     OW70898  14.435  10.422   6.881
23020SOL    HW170899  14.452  10.328   6.882
23020SOL    HW270900  14.521  10.462   6.863
23021SOL     OW70901   5.790   4.119  12.357
23021SOL    HW170902   5.884   4.121  12.373
23021SOL    HW270903   5.764   4.211  12.354
23022SOL     OW70904   7.164   8.683   3.172
23022SOL    HW170905   7.130   8.684   3.082
23022SOL    HW270906   7.193   8.773   3.187
23023SOL     OW70907   4.094  10.065  12.705
23023SOL    HW170908   4.178  10.098  12.739
23023SOL    HW270909   4.117   9.985  12.659
23024SOL     OW70910   6.565   4.472   0.488
23024SOL    HW170911   6.568   4.568   0.493
23024SOL    HW270912   6.598   4.452   0.400
23025SOL     OW70913  13.001  10.360   8.035
23025SOL    HW170914  13.039  10.280   7.998
23025SOL    HW270915  13.076  10.418   8.048
23026SOL     OW70916   8.926  13.715   4.078
23026SOL    HW170917   8.958  13.768   4.005
23026SOL    HW270918   9.005  13.676   4.115
23027SOL     OW70919   6.065  13.763   6.142
23027SOL    HW170920   5.983  13.717   6.126
23027SOL    HW270921   6.129  13.694   6.156
23028SOL     OW70922  13.849  11.869   4.435
23028SOL    HW170923  13.787  11.930   4.396
23028SOL    HW270924  13.919  11.860   4.370
23029SOL     OW70925   8.826   5.453   9.235
23029SOL    HW170926   8.769   5.491   9.302
23029SOL    HW270927   8.777   5.462   9.154
23030SOL     OW70928  14.018   3.694   1.071
23030SOL    HW170929  14.004   3.614   1.021
23030SOL    HW270930  13.966   3.760   1.026
23031SOL     OW70931   2.789   5.884   4.759
23031SOL    HW170932   2.716   5.836   4.799
23031SOL    HW270933   2.777   5.872   4.665
23032SOL     OW70934  12.422  11.583   1.621
23032SOL    HW170935  12.475  11.557   1.696
23032SOL    HW270936  12.332  11.586   1.654
23033SOL     OW70937  12.498  10.368   2.712
23033SOL    HW170938  12.562  10.325   2.656
23033SOL    HW270939  12.530  10.350   2.801
23034SOL     OW70940   0.688   5.661  12.811
23034SOL    HW170941   0.643   5.604  12.749
23034SOL    HW270942   0.780   5.635  12.805
23035SOL     OW70943   7.205  12.450  14.561
23035SOL    HW170944   7.131  12.394  14.585
23035SOL    HW270945   7.165  12.525  14.517
23036SOL     OW70946   5.144  14.839   5.296
23036SOL    HW170947   5.117   0.036   5.342
23036SOL    HW270948   5.233  14.822   5.327
23037SOL     OW70949   3.093   4.325   1.544
23037SOL    HW170950   3.025   4.332   1.477
23037SOL    HW270951   3.102   4.231   1.559
23038SOL     OW70952  12.669   0.746   5.658
23038SOL    HW170953  12.686   0.655   5.681
23038SOL    HW270954  12.733   0.796   5.709
23039SOL     OW70955   9.399   9.541   4.002
23039SOL    HW170956   9.470   9.518   3.942
23039SOL    HW270957   9.437   9.530   4.089
23040SOL     OW70958   6.962   4.172  11.094
23040SOL    HW170959   7.023   4.243  11.113
23040SOL    HW270960   6.889   4.185  11.155
23041SOL     OW70961   4.869   1.862   4.198
23041SOL    HW170962   4.905   1.926   4.136
23041SOL    HW270963   4.786   1.835   4.159
23042SOL     OW70964  14.772  11.533   0.768
23042SOL    HW170965  14.796  11.567   0.682
23042SOL    HW270966  14.855  11.523   0.814
23043SOL     OW70967   5.387   3.169  14.082
23043SOL    HW170968   5.480   3.150  14.068
23043SOL    HW270969   5.341   3.114  14.019
23044SOL     OW70970  14.747   1.822   0.888
23044SOL    HW170971  14.812   1.851   0.823
23044SOL    HW270972  14.756   1.886   0.960
23045SOL     OW70973  11.734   8.003   7.366
23045SOL    HW170974  11.639   7.999   7.354
23045SOL    HW270975  11.747   8.069   7.434
23046SOL     OW70976  14.706   4.575   4.162
23046SOL    HW170977  14.679   4.628   4.237
23046SOL    HW270978  14.687   4.628   4.085
23047SOL     OW70979   2.441   8.660   6.934
23047SOL    HW170980   2.393   8.740   6.956
23047SOL    HW270981   2.523   8.690   6.895
23048SOL     OW70982   3.623  14.657  12.547
23048SOL    HW170983   3.700  14.607  12.572
23048SOL    HW270984   3.582  14.605  12.478
23049SOL     OW70985   0.044   4.773  10.471
23049SOL    HW170986   0.135   4.769  10.498
23049SOL    HW270987   0.032   4.693  10.418
23050SOL     OW70988   2.981   3.108   0.996
23050SOL    HW170989   2.931   3.077   1.071
23050SOL    HW270990   3.020   3.030   0.958
23051SOL     OW70991  10.230   0.608   5.928
23051SOL    HW170992  10.250   0.562   5.847
23051SOL    HW270993  10.238   0.701   5.906
23052SOL     OW70994   7.540   0.867   5.432
23052SOL    HW170995   7.612   0.836   5.378
23052SOL    HW270996   7.462   0.853   5.378
23053SOL     OW70997   4.580   5.994  13.946
23053SOL    HW170998   4.597   5.900  13.948
23053SOL    HW270999   4.664   6.035  13.965
23054SOL     OW71000   2.016   9.946   7.854
23054SOL    HW171001   2.061   9.892   7.789
23054SOL    HW271002   1.964   9.885   7.905
23055SOL     OW71003  13.732   9.303   2.164
23055SOL    HW171004  13.688   9.387   2.154
23055SOL    HW271005  13.804   9.306   2.101
23056SOL     OW71006  10.231  13.810   0.632
23056SOL    HW171007  10.172  13.739   0.605
23056SOL    HW271008  10.257  13.852   0.550
23057SOL     OW71009   2.237   3.427  13.364
23057SOL    HW171010   2.320   3.464  13.332
23057SOL    HW271011   2.172   3.457  13.301
23058SOL     OW71012   5.803   7.538  13.345
23058SOL    HW171013   5.831   7.494  13.425
23058SOL    HW271014   5.883   7.576  13.309
23059SOL     OW71015   9.553  13.010  10.903
23059SOL    HW171016   9.643  13.039  10.919
23059SOL    HW271017   9.550  12.990  10.809
23060SOL     OW71018  10.208   6.293  12.956
23060SOL    HW171019  10.253   6.232  12.897
23060SOL    HW271020  10.235   6.379  12.924
23061SOL     OW71021   9.057   6.780   8.406
23061SOL    HW171022   9.132   6.812   8.355
23061SOL    HW271023   9.053   6.838   8.482
23062SOL     OW71024   3.322  12.809   8.983
23062SOL    HW171025   3.415  12.821   9.002
23062SOL    HW271026   3.283  12.784   9.066
23063SOL     OW71027   3.246   3.309  11.733
23063SOL    HW171028   3.234   3.335  11.824
23063SOL    HW271029   3.158   3.294  11.700
23064SOL     OW71030   7.510   0.085  13.480
23064SOL    HW171031   7.592   0.043  13.507
23064SOL    HW271032   7.466   0.019  13.425
23065SOL     OW71033  10.275   4.478   2.049
23065SOL    HW171034  10.349   4.536   2.032
23065SOL    HW271035  10.306   4.391   2.020
23066SOL     OW71036   8.172   4.767   5.476
23066SOL    HW171037   8.197   4.684   5.518
23066SOL    HW271038   8.192   4.753   5.383
23067SOL     OW71039  10.345   6.098  14.287
23067SOL    HW171040  10.253   6.080  14.268
23067SOL    HW271041  10.389   6.093  14.202
23068SOL     OW71042   9.864   8.339   4.215
23068SOL    HW171043   9.944   8.344   4.266
23068SOL    HW271044   9.820   8.260   4.245
23069SOL     OW71045   6.764  11.573   6.241
23069SOL    HW171046   6.784  11.610   6.326
23069SOL    HW271047   6.839  11.597   6.186
23070SOL     OW71048   8.016   5.857   2.927
23070SOL    HW171049   7.939   5.900   2.963
23070SOL    HW271050   8.077   5.929   2.909
23071SOL     OW71051   0.255   5.868  12.048
23071SOL    HW171052   0.263   5.954  12.008
23071SOL    HW271053   0.306   5.810  11.991
23072SOL     OW71054   9.246  10.356   6.486
23072SOL    HW171055   9.226  10.446   6.459
23072SOL    HW271056   9.341  10.355   6.499
23073SOL     OW71057   8.973   2.941   9.304
23073SOL    HW171058   8.986   3.019   9.250
23073SOL    HW271059   8.895   2.900   9.267
23074SOL     OW71060  12.628   5.465   0.271
23074SOL    HW171061  12.600   5.413   0.346
23074SOL    HW271062  12.661   5.401   0.208
23075SOL     OW71063   2.257   4.665   9.037
23075SOL    HW171064   2.242   4.738   8.976
23075SOL    HW271065   2.223   4.588   8.990
23076SOL     OW71066  13.812   4.318   8.739
23076SOL    HW171067  13.852   4.405   8.743
23076SOL    HW271068  13.808   4.298   8.646
23077SOL     OW71069  11.094  12.172   1.207
23077SOL    HW171070  11.120  12.262   1.186
23077SOL    HW271071  11.063  12.177   1.297
23078SOL     OW71072  11.972   3.800  11.545
23078SOL    HW171073  12.053   3.755  11.519
23078SOL    HW271074  11.908   3.730  11.555
23079SOL     OW71075   0.485   7.134   7.750
23079SOL    HW171076   0.395   7.110   7.730
23079SOL    HW271077   0.532   7.124   7.667
23080SOL     OW71078  12.436  11.823   3.971
23080SOL    HW171079  12.409  11.803   3.882
23080SOL    HW271080  12.456  11.738   4.010
23081SOL     OW71081   7.192   7.033   5.600
23081SOL    HW171082   7.211   7.127   5.599
23081SOL    HW271083   7.114   7.025   5.656
23082SOL     OW71084  10.082   8.064  10.167
23082SOL    HW171085  10.005   8.020  10.131
23082SOL    HW271086  10.099   8.136  10.106
23083SOL     OW71087   8.897   8.435  10.452
23083SOL    HW171088   8.918   8.394  10.368
23083SOL    HW271089   8.948   8.515  10.454
23084SOL     OW71090   6.246   1.928   4.781
23084SOL    HW171091   6.223   1.850   4.729
23084SOL    HW271092   6.221   2.002   4.725
23085SOL     OW71093   0.447   4.360   0.176
23085SOL    HW171094   0.443   4.447   0.136
23085SOL    HW271095   0.522   4.364   0.235
23086SOL     OW71096   5.475   4.562   3.394
23086SOL    HW171097   5.448   4.492   3.335
23086SOL    HW271098   5.535   4.520   3.455
23087SOL     OW71099   6.966   1.412   4.069
23087SOL    HW171100   7.026   1.483   4.092
23087SOL    HW271101   6.879   1.446   4.089
23088SOL     OW71102  11.548   1.589  12.236
23088SOL    HW171103  11.462   1.566  12.269
23088SOL    HW271104  11.555   1.683  12.251
23089SOL     OW71105   0.477   4.428   9.524
23089SOL    HW171106   0.526   4.480   9.461
23089SOL    HW271107   0.386   4.458   9.515
23090SOL     OW71108  13.107   6.840   9.673
23090SOL    HW171109  13.196   6.809   9.690
23090SOL    HW271110  13.072   6.860   9.760
23091SOL     OW71111  12.745   1.029   6.718
23091SOL    HW171112  12.841   1.028   6.708
23091SOL    HW271113  12.712   1.018   6.629
23092SOL     OW71114  10.061   1.708   9.953
23092SOL    HW171115  10.153   1.691   9.936
23092SOL    HW271116  10.015   1.630   9.921
23093SOL     OW71117   8.722   1.935   0.313
23093SOL    HW171118   8.775   2.011   0.288
23093SOL    HW271119   8.633   1.958   0.286
23094SOL     OW71120   3.742  12.553  13.055
23094SOL    HW171121   3.690  12.629  13.029
23094SOL    HW271122   3.812  12.589  13.109
23095SOL     OW71123   4.762  14.219   9.469
23095SOL    HW171124   4.730  14.129   9.476
23095SOL    HW271125   4.694  14.265   9.420
23096SOL     OW71126   8.013   7.743   9.180
23096SOL    HW171127   8.086   7.805   9.176
23096SOL    HW271128   8.035   7.685   9.254
23097SOL     OW71129   3.305   4.846  14.727
23097SOL    HW171130   3.358   4.838  14.648
23097SOL    HW271131   3.240   4.913  14.706
23098SOL     OW71132   8.501   1.561   9.983
23098SOL    HW171133   8.485   1.512   9.902
23098SOL    HW271134   8.578   1.614   9.965
23099SOL     OW71135   5.355   7.100  14.031
23099SOL    HW171136   5.382   7.093  14.123
23099SOL    HW271137   5.376   7.015  13.993
23100SOL     OW71138   7.630   7.901  12.042
23100SOL    HW171139   7.715   7.906  12.086
23100SOL    HW271140   7.570   7.944  12.102
23101SOL     OW71141  13.700  14.181   9.123
23101SOL    HW171142  13.725  14.154   9.211
23101SOL    HW271143  13.708  14.276   9.124
23102SOL     OW71144  14.365   5.126  12.131
23102SOL    HW171145  14.273   5.138  12.105
23102SOL    HW271146  14.414   5.179  12.068
23103SOL     OW71147   8.356   9.557   2.317
23103SOL    HW171148   8.389   9.575   2.229
23103SOL    HW271149   8.277   9.505   2.302
23104SOL     OW71150  10.435   2.976   5.960
23104SOL    HW171151  10.496   3.050   5.957
23104SOL    HW271152  10.491   2.899   5.955
23105SOL     OW71153  11.377  11.201   4.443
23105SOL    HW171154  11.337  11.244   4.368
23105SOL    HW271155  11.440  11.140   4.405
23106SOL     OW71156  13.431   9.040  11.331
23106SOL    HW171157  13.349   9.021  11.377
23106SOL    HW271158  13.408   9.108  11.267
23107SOL     OW71159   8.247   3.231   9.540
23107SOL    HW171160   8.319   3.190   9.589
23107SOL    HW271161   8.246   3.321   9.572
23108SOL     OW71162   0.403   5.410   4.439
23108SOL    HW171163   0.376   5.425   4.530
23108SOL    HW271164   0.413   5.315   4.433
23109SOL     OW71165  13.248   7.384   9.006
23109SOL    HW171166  13.299   7.463   9.020
23109SOL    HW271167  13.222   7.356   9.093
23110SOL     OW71168  10.826   2.507   1.028
23110SOL    HW171169  10.768   2.547   0.964
23110SOL    HW271170  10.897   2.469   0.976
23111SOL     OW71171   4.989   5.162  13.689
23111SOL    HW171172   5.021   5.164  13.779
23111SOL    HW271173   5.039   5.091  13.648
23112SOL     OW71174  11.253   8.344   3.666
23112SOL    HW171175  11.345   8.369   3.663
23112SOL    HW271176  11.246   8.286   3.741
23113SOL     OW71177  10.294   1.935   9.940
23113SOL    HW171178  10.366   1.980   9.982
23113SOL    HW271179  10.330   1.850   9.913
23114SOL     OW71180  11.398  13.024   6.865
23114SOL    HW171181  11.341  12.997   6.937
23114SOL    HW271182  11.452  12.947   6.848
23115SOL     OW71183   9.618   6.077  10.858
23115SOL    HW171184   9.626   6.003  10.798
23115SOL    HW271185   9.634   6.040  10.945
23116SOL     OW71186  14.144   5.667  12.224
23116SOL    HW171187  14.054   5.678  12.192
23116SOL    HW271188  14.168   5.578  12.197
23117SOL     OW71189   2.632   3.946  12.154
23117SOL    HW171190   2.573   3.949  12.229
23117SOL    HW271191   2.595   4.009  12.092
23118SOL     OW71192   4.351   5.057   5.326
23118SOL    HW171193   4.305   5.121   5.380
23118SOL    HW271194   4.283   5.021   5.269
23119SOL     OW71195   0.045   6.097   1.409
23119SOL    HW171196   0.117   6.072   1.466
23119SOL    HW271197   0.052   6.192   1.401
23120SOL     OW71198   1.794   1.441   6.362
23120SOL    HW171199   1.846   1.446   6.282
23120SOL    HW271200   1.822   1.359   6.403
23121SOL     OW71201  11.672   4.020  10.662
23121SOL    HW171202  11.658   3.926  10.660
23121SOL    HW271203  11.587   4.057  10.685
23122SOL     OW71204  14.657  11.010   8.352
23122SOL    HW171205  14.676  10.971   8.267
23122SOL    HW271206  14.639  11.102   8.333
23123SOL     OW71207   7.182   2.696  14.452
23123SOL    HW171208   7.213   2.606  14.441
23123SOL    HW271209   7.259   2.750  14.437
23124SOL     OW71210   8.757   2.616   6.541
23124SOL    HW171211   8.713   2.702   6.538
23124SOL    HW271212   8.809   2.619   6.621
23125SOL     OW71213   7.604   3.304   1.335
23125SOL    HW171214   7.556   3.223   1.320
23125SOL    HW271215   7.584   3.327   1.426
23126SOL     OW71216   4.103  10.417   4.022
23126SOL    HW171217   4.093  10.323   4.030
23126SOL    HW271218   4.198  10.431   4.027
23127SOL     OW71219   5.539   9.724   5.738
23127SOL    HW171220   5.613   9.670   5.711
23127SOL    HW271221   5.462   9.683   5.699
23128SOL     OW71222   4.048  11.136   9.714
23128SOL    HW171223   4.003  11.202   9.662
23128SOL    HW271224   4.057  11.061   9.656
23129SOL     OW71225   0.957  12.656   9.421
23129SOL    HW171226   0.902  12.674   9.497
23129SOL    HW271227   1.031  12.605   9.457
23130SOL     OW71228   7.061   9.790  13.984
23130SOL    HW171229   7.092   9.700  13.977
23130SOL    HW271230   6.983   9.784  14.040
23131SOL     OW71231   6.389   6.501   9.265
23131SOL    HW171232   6.433   6.459   9.339
23131SOL    HW271233   6.364   6.429   9.208
23132SOL     OW71234  14.197   0.032  10.201
23132SOL    HW171235  14.149   0.115  10.195
23132SOL    HW271236  14.225   0.014  10.112
23133SOL     OW71237   1.711   1.994   9.604
23133SOL    HW171238   1.684   2.083   9.578
23133SOL    HW271239   1.681   1.938   9.532
23134SOL     OW71240   1.497  13.021   9.609
23134SOL    HW171241   1.579  13.056   9.574
23134SOL    HW271242   1.435  13.028   9.536
23135SOL     OW71243  11.917  12.098   9.773
23135SOL    HW171244  11.831  12.059   9.790
23135SOL    HW271245  11.979  12.038   9.815
23136SOL     OW71246   2.233   2.997   2.053
23136SOL    HW171247   2.168   2.965   1.990
23136SOL    HW271248   2.279   3.067   2.006
23137SOL     OW71249  10.911   2.920   5.296
23137SOL    HW171250  10.992   2.918   5.245
23137SOL    HW271251  10.845   2.883   5.237
23138SOL     OW71252   4.366   8.103   1.959
23138SOL    HW171253   4.389   8.180   1.907
23138SOL    HW271254   4.430   8.102   2.030
23139SOL     OW71255   2.012  12.739  10.741
23139SOL    HW171256   2.091  12.788  10.716
23139SOL    HW271257   2.027  12.652  10.705
23140SOL     OW71258  13.822   0.277   1.269
23140SOL    HW171259  13.870   0.263   1.187
23140SOL    HW271260  13.730   0.283   1.243
23141SOL     OW71261  10.499   0.478   1.803
23141SOL    HW171262  10.530   0.390   1.825
23141SOL    HW271263  10.413   0.484   1.844
23142SOL     OW71264  13.772   7.627   0.722
23142SOL    HW171265  13.816   7.567   0.784
23142SOL    HW271266  13.826   7.706   0.723
23143SOL     OW71267  13.680   4.161   1.455
23143SOL    HW171268  13.614   4.188   1.392
23143SOL    HW271269  13.756   4.217   1.435
23144SOL     OW71270   0.319   1.632  13.193
23144SOL    HW171271   0.379   1.595  13.127
23144SOL    HW271272   0.363   1.616  13.276
23145SOL     OW71273   0.516  13.285   3.648
23145SOL    HW171274   0.569  13.210   3.619
23145SOL    HW271275   0.491  13.329   3.567
23146SOL     OW71276  13.063  14.050  10.965
23146SOL    HW171277  12.979  14.013  10.993
23146SOL    HW271278  13.113  14.061  11.046
23147SOL     OW71279   4.525   1.044   8.913
23147SOL    HW171280   4.589   0.973   8.905
23147SOL    HW271281   4.577   1.124   8.902
23148SOL     OW71282  12.554  13.851   7.428
23148SOL    HW171283  12.620  13.824   7.492
23148SOL    HW271284  12.598  13.917   7.375
23149SOL     OW71285   8.323   5.889  11.019
23149SOL    HW171286   8.298   5.840  10.941
23149SOL    HW271287   8.388   5.834  11.062
23150SOL     OW71288   1.398   6.483  11.938
23150SOL    HW171289   1.465   6.492  12.005
23150SOL    HW271290   1.391   6.570  11.899
23151SOL     OW71291  12.300   3.406  14.324
23151SOL    HW171292  12.374   3.347  14.311
23151SOL    HW271293  12.244   3.391  14.247
23152SOL     OW71294   2.716  11.442   2.510
23152SOL    HW171295   2.762  11.364   2.542
23152SOL    HW271296   2.786  11.498   2.475
23153SOL     OW71297   6.175   9.007   8.350
23153SOL    HW171298   6.257   9.053   8.331
23153SOL    HW271299   6.198   8.940   8.414
23154SOL     OW71300   0.713  11.920  11.565
23154SOL    HW171301   0.761  11.851  11.519
23154SOL    HW271302   0.749  11.920  11.654
23155SOL     OW71303   4.347   7.396   6.557
23155SOL    HW171304   4.345   7.304   6.533
23155SOL    HW271305   4.439   7.421   6.548
23156SOL     OW71306  10.189   8.762   4.678
23156SOL    HW171307  10.221   8.672   4.665
23156SOL    HW271308  10.094   8.755   4.667
23157SOL     OW71309   8.497   4.133   0.899
23157SOL    HW171310   8.423   4.073   0.896
23157SOL    HW271311   8.464   4.210   0.947
23158SOL     OW71312   9.710   8.742   1.778
23158SOL    HW171313   9.725   8.807   1.847
23158SOL    HW271314   9.650   8.785   1.717
23159SOL     OW71315   9.635   9.927   5.351
23159SOL    HW171316   9.697   9.967   5.411
23159SOL    HW271317   9.558   9.985   5.354
23160SOL     OW71318  10.862   5.247   6.458
23160SOL    HW171319  10.862   5.237   6.363
23160SOL    HW271320  10.908   5.329   6.473
23161SOL     OW71321   5.469   3.655   3.376
23161SOL    HW171322   5.461   3.561   3.360
23161SOL    HW271323   5.416   3.671   3.454
23162SOL     OW71324   9.283   4.785  10.172
23162SOL    HW171325   9.213   4.729  10.207
23162SOL    HW271326   9.238   4.863  10.141
23163SOL     OW71327  14.230   2.344   8.909
23163SOL    HW171328  14.152   2.392   8.884
23163SOL    HW271329  14.203   2.292   8.985
23164SOL     OW71330   7.030  11.359   3.172
23164SOL    HW171331   6.945  11.395   3.197
23164SOL    HW271332   7.059  11.415   3.100
23165SOL     OW71333  10.569   8.382   3.449
23165SOL    HW171334  10.495   8.418   3.497
23165SOL    HW271335  10.614   8.325   3.511
23166SOL     OW71336   8.529   5.726  12.627
23166SOL    HW171337   8.537   5.781  12.705
23166SOL    HW271338   8.580   5.772  12.560
23167SOL     OW71339   7.638   3.529   0.935
23167SOL    HW171340   7.642   3.535   1.030
23167SOL    HW271341   7.560   3.475   0.918
23168SOL     OW71342   9.936   6.287   6.729
23168SOL    HW171343   9.993   6.363   6.737
23168SOL    HW271344   9.898   6.294   6.641
23169SOL     OW71345   1.924  14.832  12.584
23169SOL    HW171346   1.889   0.035  12.610
23169SOL    HW271347   1.864  14.769  12.624
23170SOL     OW71348   4.172   9.007   9.578
23170SOL    HW171349   4.178   8.941   9.508
23170SOL    HW271350   4.228   8.972   9.647
23171SOL     OW71351  10.747   1.031   4.122
23171SOL    HW171352  10.684   1.095   4.156
23171SOL    HW271353  10.818   1.032   4.186
23172SOL     OW71354  12.252  12.366   5.964
23172SOL    HW171355  12.209  12.443   6.000
23172SOL    HW271356  12.180  12.305   5.946
23173SOL     OW71357   8.760   8.955   5.582
23173SOL    HW171358   8.791   8.976   5.494
23173SOL    HW271359   8.691   9.019   5.600
23174SOL     OW71360  14.670  14.428   9.955
23174SOL    HW171361  14.630  14.376  10.024
23174SOL    HW271362  14.758  14.390   9.944
23175SOL     OW71363   2.988   5.856  12.377
23175SOL    HW171364   3.009   5.887  12.289
23175SOL    HW271365   2.899   5.823  12.369
23176SOL     OW71366   7.641   4.174  11.282
23176SOL    HW171367   7.668   4.229  11.209
23176SOL    HW271368   7.547   4.162  11.269
23177SOL     OW71369  12.462   8.730   3.316
23177SOL    HW171370  12.387   8.714   3.373
23177SOL    HW271371  12.463   8.655   3.256
23178SOL     OW71372   9.467   4.040  10.490
23178SOL    HW171373   9.522   4.079  10.422
23178SOL    HW271374   9.447   3.952  10.458
23179SOL     OW71375   1.414   3.422   2.008
23179SOL    HW171376   1.464   3.418   1.927
23179SOL    HW271377   1.416   3.515   2.032
23180SOL     OW71378  11.064  14.053   0.362
23180SOL    HW171379  11.122  14.121   0.396
23180SOL    HW271380  11.068  14.063   0.267
23181SOL     OW71381   5.542   0.087   4.939
23181SOL    HW171382   5.586   0.126   5.015
23181SOL    HW271383   5.578  14.880   4.934
23182SOL     OW71384  12.729   4.452   9.760
23182SOL    HW171385  12.723   4.378   9.699
23182SOL    HW271386  12.639   4.473   9.781
23183SOL     OW71387   2.412  13.748   6.538
23183SOL    HW171388   2.421  13.781   6.449
23183SOL    HW271389   2.322  13.770   6.563
23184SOL     OW71390   0.091  14.089   9.771
23184SOL    HW171391   0.172  14.047   9.743
23184SOL    HW271392   0.028  14.067   9.702
23185SOL     OW71393  12.178   2.266   9.627
23185SOL    HW171394  12.222   2.212   9.692
23185SOL    HW271395  12.090   2.279   9.664
23186SOL     OW71396  11.401   8.010   4.150
23186SOL    HW171397  11.319   8.029   4.195
23186SOL    HW271398  11.407   8.078   4.082
23187SOL     OW71399   7.752   8.620  11.112
23187SOL    HW171400   7.793   8.688  11.059
23187SOL    HW271401   7.815   8.604  11.183
23188SOL     OW71402   8.032  11.597   9.880
23188SOL    HW171403   8.109  11.619   9.932
23188SOL    HW271404   7.959  11.636   9.927
23189SOL     OW71405   7.799   5.962   3.038
23189SOL    HW171406   7.855   5.972   3.115
23189SOL    HW271407   7.740   5.890   3.060
23190SOL     OW71408   0.973  12.206  12.808
23190SOL    HW171409   0.961  12.234  12.899
23190SOL    HW271410   1.065  12.185  12.801
23191SOL     OW71411   9.634   4.735   8.977
23191SOL    HW171412   9.682   4.688   8.909
23191SOL    HW271413   9.548   4.752   8.939
23192SOL     OW71414  14.095   9.087  10.845
23192SOL    HW171415  14.130   9.007  10.806
23192SOL    HW271416  14.002   9.068  10.859
23193SOL     OW71417   7.284   3.634   6.495
23193SOL    HW171418   7.368   3.622   6.452
23193SOL    HW271419   7.235   3.554   6.476
23194SOL     OW71420   8.076  14.706  13.369
23194SOL    HW171421   8.096  14.686  13.277
23194SOL    HW271422   8.125  14.640  13.418
23195SOL     OW71423   1.915  13.019   7.286
23195SOL    HW171424   1.833  13.031   7.335
23195SOL    HW271425   1.913  13.087   7.219
23196SOL     OW71426   1.212  12.987   8.302
23196SOL    HW171427   1.256  12.918   8.352
23196SOL    HW271428   1.126  12.995   8.343
23197SOL     OW71429   6.571   6.586   0.553
23197SOL    HW171430   6.662   6.558   0.565
23197SOL    HW271431   6.554   6.570   0.460
23198SOL     OW71432   5.942   5.945  11.089
23198SOL    HW171433   6.001   5.883  11.047
23198SOL    HW271434   5.970   5.947  11.181
23199SOL     OW71435   5.085  11.904  10.270
23199SOL    HW171436   5.180  11.908  10.274
23199SOL    HW271437   5.059  11.984  10.225
23200SOL     OW71438   1.461   6.415  10.895
23200SOL    HW171439   1.395   6.357  10.856
23200SOL    HW271440   1.535   6.358  10.914
23201SOL     OW71441   1.014  10.672   4.578
23201SOL    HW171442   0.933  10.704   4.620
23201SOL    HW271443   1.043  10.600   4.634
23202SOL     OW71444   3.901   3.471  12.282
23202SOL    HW171445   3.888   3.389  12.328
23202SOL    HW271446   3.901   3.447  12.189
23203SOL     OW71447   5.265   8.363   0.671
23203SOL    HW171448   5.257   8.355   0.576
23203SOL    HW271449   5.203   8.433   0.694
23204SOL     OW71450   4.688   0.083  13.616
23204SOL    HW171451   4.609   0.033  13.639
23204SOL    HW271452   4.654   0.165  13.579
23205SOL     OW71453  10.336   9.046   9.314
23205SOL    HW171454  10.398   9.117   9.300
23205SOL    HW271455  10.389   8.966   9.310
23206SOL     OW71456   6.623   4.934   2.608
23206SOL    HW171457   6.582   4.920   2.523
23206SOL    HW271458   6.570   5.001   2.651
23207SOL     OW71459  13.225  11.483   9.797
23207SOL    HW171460  13.317  11.504   9.780
23207SOL    HW271461  13.211  11.509   9.888
23208SOL     OW71462  14.238   7.466  13.454
23208SOL    HW171463  14.207   7.503  13.537
23208SOL    HW271464  14.314   7.520  13.431
23209SOL     OW71465   9.275   8.135   2.740
23209SOL    HW171466   9.187   8.168   2.756
23209SOL    HW271467   9.281   8.056   2.795
23210SOL     OW71468  14.184   5.746  11.859
23210SOL    HW171469  14.133   5.788  11.790
23210SOL    HW271470  14.224   5.818  11.907
23211SOL     OW71471   2.435   4.718   4.449
23211SOL    HW171472   2.502   4.652   4.432
23211SOL    HW271473   2.473   4.773   4.518
23212SOL     OW71474  14.474   3.269   4.126
23212SOL    HW171475  14.472   3.301   4.036
23212SOL    HW271476  14.514   3.340   4.176
23213SOL     OW71477  13.826   1.005  10.607
23213SOL    HW171478  13.775   1.085  10.592
23213SOL    HW271479  13.906   1.018  10.556
23214SOL     OW71480   2.332   0.460   8.081
23214SOL    HW171481   2.278   0.539   8.088
23214SOL    HW271482   2.422   0.491   8.093
23215SOL     OW71483   2.091   4.386  12.020
23215SOL    HW171484   2.157   4.392  11.950
23215SOL    HW271485   2.126   4.321  12.080
23216SOL     OW71486   6.418  14.367  11.178
23216SOL    HW171487   6.423  14.285  11.128
23216SOL    HW271488   6.449  14.344  11.265
23217SOL     OW71489   4.004   6.134   9.881
23217SOL    HW171490   3.911   6.148   9.860
23217SOL    HW271491   4.050   6.203   9.833
23218SOL     OW71492  13.998  12.147  14.043
23218SOL    HW171493  13.962  12.131  14.130
23218SOL    HW271494  13.969  12.072  13.991
23219SOL     OW71495   4.502   0.752   9.839
23219SOL    HW171496   4.441   0.723   9.771
23219SOL    HW271497   4.570   0.685   9.841
23220SOL     OW71498  12.607  12.528  13.619
23220SOL    HW171499  12.651  12.607  13.589
23220SOL    HW271500  12.617  12.466  13.547
23221SOL     OW71501   3.756   3.774   7.143
23221SOL    HW171502   3.826   3.832   7.173
23221SOL    HW271503   3.711   3.823   7.075
23222SOL     OW71504   7.324   8.748  11.628
23222SOL    HW171505   7.270   8.822  11.601
23222SOL    HW271506   7.291   8.674  11.576
23223SOL     OW71507   9.460   0.240  11.306
23223SOL    HW171508   9.553   0.259  11.297
23223SOL    HW271509   9.453   0.145  11.297
23224SOL     OW71510   5.448  10.775  10.699
23224SOL    HW171511   5.444  10.689  10.658
23224SOL    HW271512   5.449  10.757  10.793
23225SOL     OW71513  14.503   4.566   0.685
23225SOL    HW171514  14.490   4.506   0.612
23225SOL    HW271515  14.591   4.602   0.671
23226SOL     OW71516   1.177   5.110  10.710
23226SOL    HW171517   1.148   5.186  10.659
23226SOL    HW271518   1.174   5.037  10.648
23227SOL     OW71519   6.150  11.832  11.431
23227SOL    HW171520   6.083  11.774  11.394
23227SOL    HW271521   6.195  11.778  11.496
23228SOL     OW71522  11.591   4.828  14.764
23228SOL    HW171523  11.574   4.918  14.735
23228SOL    HW271524  11.504   4.789  14.773
23229SOL     OW71525  12.431   9.058   1.622
23229SOL    HW171526  12.508   9.053   1.678
23229SOL    HW271527  12.426   8.973   1.579
23230SOL     OW71528   3.867   6.235  13.112
23230SOL    HW171529   3.840   6.296  13.043
23230SOL    HW271530   3.790   6.179  13.125
23231SOL     OW71531  12.331   9.873  12.524
23231SOL    HW171532  12.345   9.792  12.476
23231SOL    HW271533  12.256   9.914  12.482
23232SOL     OW71534   3.874   6.525   7.665
23232SOL    HW171535   3.830   6.470   7.600
23232SOL    HW271536   3.960   6.485   7.677
23233SOL     OW71537   3.224   5.928   4.785
23233SOL    HW171538   3.248   5.844   4.746
23233SOL    HW271539   3.247   5.993   4.719
23234SOL     OW71540   3.189  11.555   0.650
23234SOL    HW171541   3.271  11.538   0.697
23234SOL    HW271542   3.138  11.609   0.710
23235SOL     OW71543  12.150  12.136   0.053
23235SOL    HW171544  12.062  12.133   0.017
23235SOL    HW271545  12.147  12.077   0.129
23236SOL     OW71546  14.164  13.508  11.985
23236SOL    HW171547  14.153  13.467  12.071
23236SOL    HW271548  14.164  13.602  12.003
23237SOL     OW71549   5.633   3.462   6.841
23237SOL    HW171550   5.614   3.498   6.928
23237SOL    HW271551   5.610   3.533   6.781
23238SOL     OW71552   5.598   6.828  11.778
23238SOL    HW171553   5.538   6.877  11.834
23238SOL    HW271554   5.672   6.806  11.834
23239SOL     OW71555  14.290   3.162   6.857
23239SOL    HW171556  14.288   3.238   6.916
23239SOL    HW271557  14.365   3.110   6.887
23240SOL     OW71558  10.678   1.523  10.415
23240SOL    HW171559  10.659   1.514  10.321
23240SOL    HW271560  10.628   1.599  10.442
23241SOL     OW71561  12.519   8.104   0.960
23241SOL    HW171562  12.491   8.017   0.932
23241SOL    HW271563  12.602   8.089   1.006
23242SOL     OW71564   0.250  12.964  14.581
23242SOL    HW171565   0.181  12.997  14.638
23242SOL    HW271566   0.249  13.022  14.505
23243SOL     OW71567  13.267   8.211  12.457
23243SOL    HW171568  13.319   8.134  12.481
23243SOL    HW271569  13.278   8.219  12.363
23244SOL     OW71570  11.814   2.592   6.148
23244SOL    HW171571  11.719   2.600   6.152
23244SOL    HW271572  11.839   2.554   6.232
23245SOL     OW71573  13.678   2.131   3.693
23245SOL    HW171574  13.745   2.191   3.725
23245SOL    HW271575  13.702   2.046   3.732
23246SOL     OW71576  10.524   5.765   5.535
23246SOL    HW171577  10.451   5.770   5.597
23246SOL    HW271578  10.481   5.768   5.449
23247SOL     OW71579   5.696   0.549   7.023
23247SOL    HW171580   5.705   0.633   6.977
23247SOL    HW271581   5.743   0.561   7.105
23248SOL     OW71582  14.117  10.568   9.014
23248SOL    HW171583  14.112  10.571   8.918
23248SOL    HW271584  14.139  10.658   9.039
23249SOL     OW71585   2.958   1.823   6.791
23249SOL    HW171586   3.047   1.789   6.786
23249SOL    HW271587   2.914   1.789   6.713
23250SOL     OW71588   6.611  13.314   7.458
23250SOL    HW171589   6.581  13.334   7.547
23250SOL    HW271590   6.540  13.262   7.420
23251SOL     OW71591   8.733  10.821  13.139
23251SOL    HW171592   8.692  10.885  13.196
23251SOL    HW271593   8.663  10.757  13.121
23252SOL     OW71594   9.716   8.742   7.250
23252SOL    HW171595   9.670   8.659   7.261
23252SOL    HW271596   9.676   8.800   7.316
23253SOL     OW71597  10.961  11.754   5.286
23253SOL    HW171598  10.922  11.718   5.366
23253SOL    HW271599  11.040  11.799   5.316
23254SOL     OW71600   1.843  13.843   7.568
23254SOL    HW171601   1.789  13.850   7.489
23254SOL    HW271602   1.932  13.828   7.534
23255SOL     OW71603   7.427   2.147  11.105
23255SOL    HW171604   7.518   2.121  11.109
23255SOL    HW271605   7.408   2.186  11.191
23256SOL     OW71606   8.206   8.632   5.473
23256SOL    HW171607   8.301   8.637   5.466
23256SOL    HW271608   8.178   8.584   5.395
23257SOL     OW71609   9.418   5.398  10.059
23257SOL    HW171610   9.330   5.384  10.023
23257SOL    HW271611   9.406   5.385  10.153
23258SOL     OW71612  13.328  11.553   5.350
23258SOL    HW171613  13.415  11.582   5.376
23258SOL    HW271614  13.277  11.553   5.431
23259SOL     OW71615   1.975   8.000   8.571
23259SOL    HW171616   2.048   7.955   8.611
23259SOL    HW271617   1.948   8.065   8.636
23260SOL     OW71618   8.424   2.247  14.791
23260SOL    HW171619   8.440   2.290  14.707
23260SOL    HW271620   8.329   2.236  14.795
23261SOL     OW71621  13.421   7.844   8.194
23261SOL    HW171622  13.403   7.761   8.150
23261SOL    HW271623  13.424   7.823   8.287
23262SOL     OW71624  13.688   4.541   7.468
23262SOL    HW171625  13.710   4.534   7.376
23262SOL    HW271626  13.695   4.451   7.501
23263SOL     OW71627   9.979   1.292   7.807
23263SOL    HW171628  10.007   1.358   7.870
23263SOL    HW271629   9.988   1.334   7.722
23264SOL     OW71630  14.692   9.551   7.785
23264SOL    HW171631  14.696   9.534   7.691
23264SOL    HW271632  14.753   9.489   7.823
23265SOL     OW71633  13.423   3.835  12.483
23265SOL    HW171634  13.467   3.793  12.557
23265SOL    HW271635  13.440   3.777  12.408
23266SOL     OW71636   6.104   5.753   6.738
23266SOL    HW171637   6.044   5.724   6.806
23266SOL    HW271638   6.048   5.793   6.672
23267SOL     OW71639   1.042  13.223   3.079
23267SOL    HW171640   0.946  13.224   3.089
23267SOL    HW271641   1.074  13.287   3.142
23268SOL     OW71642   9.628   8.189  12.632
23268SOL    HW171643   9.589   8.238  12.559
23268SOL    HW271644   9.575   8.212  12.708
23269SOL     OW71645  11.821   1.583  12.448
23269SOL    HW171646  11.730   1.555  12.461
23269SOL    HW271647  11.813   1.661  12.393
23270SOL     OW71648   0.398   8.673   6.841
23270SOL    HW171649   0.406   8.756   6.889
23270SOL    HW271650   0.304   8.662   6.827
23271SOL     OW71651   0.396  12.582  11.331
23271SOL    HW171652   0.372  12.668  11.366
23271SOL    HW271653   0.476  12.559  11.378
23272SOL     OW71654   9.328  11.188   3.616
23272SOL    HW171655   9.307  11.098   3.642
23272SOL    HW271656   9.299  11.194   3.525
23273SOL     OW71657   2.329   2.896   3.309
23273SOL    HW171658   2.346   2.835   3.237
23273SOL    HW271659   2.259   2.953   3.277
23274SOL     OW71660  12.682   4.859   2.880
23274SOL    HW171661  12.776   4.858   2.896
23274SOL    HW271662  12.673   4.835   2.787
23275SOL     OW71663   0.374   7.449  14.166
23275SOL    HW171664   0.306   7.513  14.142
23275SOL    HW271665   0.435   7.499  14.220
23276SOL     OW71666  11.379   3.941  12.193
23276SOL    HW171667  11.399   3.859  12.240
23276SOL    HW271668  11.460   3.992  12.200
23277SOL     OW71669   7.136   1.957  11.529
23277SOL    HW171670   7.190   1.969  11.607
23277SOL    HW271671   7.048   1.938  11.563
23278SOL     OW71672  11.219  13.484  14.302
23278SOL    HW171673  11.268  13.535  14.238
23278SOL    HW271674  11.127  13.502  14.281
23279SOL     OW71675   5.435   2.424  12.274
23279SOL    HW171676   5.432   2.375  12.357
23279SOL    HW271677   5.428   2.357  12.206
23280SOL     OW71678   3.998   7.618   5.535
23280SOL    HW171679   3.990   7.702   5.580
23280SOL    HW271680   3.907   7.587   5.525
23281SOL     OW71681   4.383  14.537  11.405
23281SOL    HW171682   4.445  14.603  11.375
23281SOL    HW271683   4.414  14.455  11.367
23282SOL     OW71684  12.853  10.149  12.593
23282SOL    HW171685  12.927  10.089  12.588
23282SOL    HW271686  12.828  10.149  12.685
23283SOL     OW71687  10.273   8.352   7.028
23283SOL    HW171688  10.325   8.389   7.099
23283SOL    HW271689  10.296   8.404   6.951
23284SOL     OW71690   3.092  10.980   3.851
23284SOL    HW171691   3.060  11.070   3.860
23284SOL    HW271692   3.118  10.955   3.940
23285SOL     OW71693  10.732   1.857   0.821
23285SOL    HW171694  10.748   1.774   0.865
23285SOL    HW271695  10.810   1.871   0.767
23286SOL     OW71696   2.252   0.081  12.347
23286SOL    HW171697   2.244   0.072  12.442
23286SOL    HW271698   2.174   0.036  12.312
23287SOL     OW71699  10.754  11.250   8.697
23287SOL    HW171700  10.810  11.176   8.670
23287SOL    HW271701  10.816  11.321   8.712
23288SOL     OW71702  10.595   7.330   9.021
23288SOL    HW171703  10.575   7.254   9.077
23288SOL    HW271704  10.673   7.368   9.060
23289SOL     OW71705   7.263   5.352  10.495
23289SOL    HW171706   7.353   5.339  10.524
23289SOL    HW271707   7.270   5.415  10.423
23290SOL     OW71708   7.514  11.937   2.533
23290SOL    HW171709   7.479  11.975   2.613
23290SOL    HW271710   7.557  12.010   2.488
23291SOL     OW71711  13.751   8.713   5.848
23291SOL    HW171712  13.670   8.682   5.809
23291SOL    HW271713  13.793   8.634   5.883
23292SOL     OW71714   4.040  14.308  12.330
23292SOL    HW171715   4.034  14.323  12.425
23292SOL    HW271716   3.970  14.245  12.311
23293SOL     OW71717   9.535  12.171   5.339
23293SOL    HW171718   9.470  12.212   5.396
23293SOL    HW271719   9.496  12.087   5.315
23294SOL     OW71720  13.725   8.448   4.628
23294SOL    HW171721  13.780   8.484   4.697
23294SOL    HW271722  13.784   8.393   4.577
23295SOL     OW71723  11.090  14.691   7.805
23295SOL    HW171724  11.068  14.598   7.808
23295SOL    HW271725  11.161  14.697   7.741
23296SOL     OW71726   2.303   3.390   6.251
23296SOL    HW171727   2.336   3.390   6.341
23296SOL    HW271728   2.222   3.340   6.255
23297SOL     OW71729  10.540   6.179  13.101
23297SOL    HW171730  10.632   6.154  13.109
23297SOL    HW271731  10.519   6.165  13.009
23298SOL     OW71732   1.417   4.755   3.065
23298SOL    HW171733   1.446   4.786   3.151
23298SOL    HW271734   1.440   4.826   3.005
23299SOL     OW71735   1.269   8.909  11.466
23299SOL    HW171736   1.189   8.960  11.478
23299SOL    HW271737   1.315   8.951  11.394
23300SOL     OW71738   3.109  13.310   4.742
23300SOL    HW171739   3.029  13.363   4.749
23300SOL    HW271740   3.140  13.301   4.832
23301SOL     OW71741   4.167  11.152   9.423
23301SOL    HW171742   4.157  11.057   9.415
23301SOL    HW271743   4.130  11.187   9.342
23302SOL     OW71744   0.879   2.371   7.457
23302SOL    HW171745   0.867   2.459   7.423
23302SOL    HW271746   0.913   2.321   7.383
23303SOL     OW71747   8.341   1.605   3.286
23303SOL    HW171748   8.292   1.634   3.363
23303SOL    HW271749   8.273   1.578   3.224
23304SOL     OW71750  13.522  11.307   3.041
23304SOL    HW171751  13.600  11.250   3.037
23304SOL    HW271752  13.462  11.269   2.977
23305SOL     OW71753   5.044   2.477   0.078
23305SOL    HW171754   5.094   2.431   0.011
23305SOL    HW271755   4.953   2.475   0.047
23306SOL     OW71756   8.179   9.562  14.776
23306SOL    HW171757   8.109   9.613  14.736
23306SOL    HW271758   8.171   9.475  14.737
23307SOL     OW71759  13.016   1.093  12.298
23307SOL    HW171760  13.007   0.999  12.287
23307SOL    HW271761  12.929   1.128  12.282
23308SOL     OW71762   8.580  10.144   2.398
23308SOL    HW171763   8.574  10.125   2.304
23308SOL    HW271764   8.671  10.127   2.421
23309SOL     OW71765  11.915   4.057  10.780
23309SOL    HW171766  11.832   4.048  10.733
23309SOL    HW271767  11.897   4.119  10.851
23310SOL     OW71768   4.091   1.234   0.563
23310SOL    HW171769   4.089   1.329   0.578
23310SOL    HW271770   3.999   1.208   0.564
23311SOL     OW71771  14.465  10.942  10.531
23311SOL    HW171772  14.548  10.902  10.555
23311SOL    HW271773  14.464  11.025  10.579
23312SOL     OW71774   5.624   4.822   1.558
23312SOL    HW171775   5.699   4.878   1.578
23312SOL    HW271776   5.656   4.764   1.488
23313SOL     OW71777   1.627   2.671   3.508
23313SOL    HW171778   1.571   2.600   3.477
23313SOL    HW271779   1.665   2.638   3.589
23314SOL     OW71780   3.917  11.779   0.436
23314SOL    HW171781   3.918  11.731   0.354
23314SOL    HW271782   3.828  11.812   0.444
23315SOL     OW71783   9.063   7.925   9.087
23315SOL    HW171784   9.146   7.900   9.047
23315SOL    HW271785   9.018   7.842   9.102
23316SOL     OW71786  14.005   0.974   4.510
23316SOL    HW171787  14.054   1.046   4.550
23316SOL    HW271788  13.945   0.945   4.579
23317SOL     OW71789  12.046   0.126   3.766
23317SOL    HW171790  12.075   0.197   3.823
23317SOL    HW271791  12.088   0.048   3.801
23318SOL     OW71792  13.466  13.064   0.556
23318SOL    HW171793  13.394  13.081   0.496
23318SOL    HW271794  13.535  13.029   0.501
23319SOL     OW71795   1.330  10.943  12.051
23319SOL    HW171796   1.273  10.871  12.079
23319SOL    HW271797   1.395  10.950  12.121
23320SOL     OW71798   0.712   2.214   4.155
23320SOL    HW171799   0.667   2.295   4.130
23320SOL    HW271800   0.721   2.220   4.250
23321SOL     OW71801   8.498  13.602   3.551
23321SOL    HW171802   8.531  13.527   3.503
23321SOL    HW271803   8.403  13.588   3.557
23322SOL     OW71804  11.357   3.876   9.646
23322SOL    HW171805  11.298   3.805   9.623
23322SOL    HW271806  11.340   3.944   9.580
23323SOL     OW71807   2.563   1.866   2.421
23323SOL    HW171808   2.536   1.814   2.497
23323SOL    HW271809   2.606   1.802   2.364
23324SOL     OW71810  13.493  13.508   0.181
23324SOL    HW171811  13.476  13.532   0.089
23324SOL    HW271812  13.517  13.591   0.223
23325SOL     OW71813   9.138   4.642   1.438
23325SOL    HW171814   9.109   4.733   1.447
23325SOL    HW271815   9.107   4.599   1.518
23326SOL     OW71816   8.728   0.854  11.214
23326SOL    HW171817   8.685   0.770  11.204
23326SOL    HW271818   8.809   0.847  11.163
23327SOL     OW71819   1.290   5.419  12.299
23327SOL    HW171820   1.308   5.447  12.209
23327SOL    HW271821   1.317   5.327  12.301
23328SOL     OW71822   3.794  14.755  13.096
23328SOL    HW171823   3.762  14.784  13.011
23328SOL    HW271824   3.758  14.667  13.107
23329SOL     OW71825   1.716   0.577  10.278
23329SOL    HW171826   1.744   0.485  10.272
23329SOL    HW271827   1.778   0.617  10.339
23330SOL     OW71828   0.668  13.320  12.575
23330SOL    HW171829   0.686  13.362  12.659
23330SOL    HW271830   0.615  13.244  12.598
23331SOL     OW71831   1.851   1.523   0.855
23331SOL    HW171832   1.860   1.610   0.817
23331SOL    HW271833   1.934   1.480   0.836
23332SOL     OW71834   9.699  11.548  13.275
23332SOL    HW171835   9.737  11.584  13.354
23332SOL    HW271836   9.646  11.620  13.238
23333SOL     OW71837   2.655   4.226   0.441
23333SOL    HW171838   2.731   4.172   0.421
23333SOL    HW271839   2.625   4.194   0.526
23334SOL     OW71840   3.765   3.630   0.951
23334SOL    HW171841   3.842   3.686   0.962
23334SOL    HW271842   3.796   3.543   0.977
23335SOL     OW71843   2.413  12.307   3.202
23335SOL    HW171844   2.405  12.277   3.111
23335SOL    HW271845   2.508  12.312   3.217
23336SOL     OW71846  14.658  11.494   9.486
23336SOL    HW171847  14.709  11.551   9.543
23336SOL    HW271848  14.723  11.448   9.434
23337SOL     OW71849   1.595  14.581   2.355
23337SOL    HW171850   1.662  14.532   2.402
23337SOL    HW271851   1.538  14.616   2.424
23338SOL     OW71852   6.158   4.415   3.521
23338SOL    HW171853   6.211   4.336   3.534
23338SOL    HW271854   6.068   4.383   3.513
23339SOL     OW71855  13.137   8.082   2.933
23339SOL    HW171856  13.145   8.032   2.852
23339SOL    HW271857  13.073   8.034   2.986
23340SOL     OW71858   2.222  10.578  12.446
23340SOL    HW171859   2.312  10.607  12.458
23340SOL    HW271860   2.191  10.624  12.369
23341SOL     OW71861   7.914   4.677   4.460
23341SOL    HW171862   7.828   4.644   4.437
23341SOL    HW271863   7.915   4.678   4.556
23342SOL     OW71864   0.244  10.067  11.060
23342SOL    HW171865   0.315  10.026  11.012
23342SOL    HW271866   0.273  10.067  11.151
23343SOL     OW71867  13.614  12.891  13.597
23343SOL    HW171868  13.685  12.945  13.631
23343SOL    HW271869  13.591  12.933  13.513
23344SOL     OW71870   4.928   2.782   3.349
23344SOL    HW171871   4.946   2.695   3.385
23344SOL    HW271872   5.007   2.832   3.368
23345SOL     OW71873  12.764  10.998  10.856
23345SOL    HW171874  12.684  10.945  10.862
23345SOL    HW271875  12.835  10.939  10.881
23346SOL     OW71876  10.691  12.614  12.895
23346SOL    HW171877  10.707  12.671  12.970
23346SOL    HW271878  10.725  12.528  12.922
23347SOL     OW71879  12.247   8.356   4.607
23347SOL    HW171880  12.257   8.348   4.512
23347SOL    HW271881  12.181   8.291   4.630
23348SOL     OW71882   1.567   0.859   0.692
23348SOL    HW171883   1.519   0.808   0.757
23348SOL    HW271884   1.565   0.804   0.613
23349SOL     OW71885   2.763  14.840   0.643
23349SOL    HW171886   2.801   0.045   0.632
23349SOL    HW271887   2.777  14.818   0.735
23350SOL     OW71888   6.427  14.553  11.728
23350SOL    HW171889   6.360  14.485  11.727
23350SOL    HW271890   6.498  14.516  11.781
23351SOL     OW71891  12.129   7.605  12.168
23351SOL    HW171892  12.034   7.617  12.171
23351SOL    HW271893  12.163   7.693  12.153
23352SOL     OW71894  13.651   6.792   2.991
23352SOL    HW171895  13.723   6.776   2.931
23352SOL    HW271896  13.578   6.818   2.935
23353SOL     OW71897  10.427   9.706  11.948
23353SOL    HW171898  10.465   9.633  11.899
23353SOL    HW271899  10.461   9.784  11.905
23354SOL     OW71900   7.591   1.910  13.018
23354SOL    HW171901   7.567   1.996  12.984
23354SOL    HW271902   7.547   1.904  13.102
23355SOL     OW71903   3.632   5.632  13.521
23355SOL    HW171904   3.544   5.641  13.483
23355SOL    HW271905   3.625   5.558  13.580
23356SOL     OW71906   7.005   7.968   1.568
23356SOL    HW171907   6.959   8.033   1.514
23356SOL    HW271908   7.051   7.913   1.505
23357SOL     OW71909   2.219  10.232   0.274
23357SOL    HW171910   2.299  10.278   0.247
23357SOL    HW271911   2.250  10.152   0.315
23358SOL     OW71912   8.159   7.611   5.602
23358SOL    HW171913   8.186   7.676   5.537
23358SOL    HW271914   8.201   7.640   5.684
23359SOL     OW71915   1.904  12.744   3.324
23359SOL    HW171916   1.849  12.686   3.271
23359SOL    HW271917   1.879  12.832   3.296
23360SOL     OW71918   7.131   5.320  12.632
23360SOL    HW171919   7.078   5.400  12.628
23360SOL    HW271920   7.155   5.303  12.541
23361SOL     OW71921   6.740  11.167   9.926
23361SOL    HW171922   6.757  11.073   9.925
23361SOL    HW271923   6.826  11.207   9.931
23362SOL     OW71924  12.131   6.393   9.274
23362SOL    HW171925  12.075   6.342   9.214
23362SOL    HW271926  12.090   6.381   9.360
23363SOL     OW71927   9.754   4.464   3.334
23363SOL    HW171928   9.764   4.371   3.315
23363SOL    HW271929   9.709   4.499   3.257
23364SOL     OW71930  11.903  13.559  10.559
23364SOL    HW171931  11.872  13.530  10.473
23364SOL    HW271932  11.844  13.517  10.621
23365SOL     OW71933   0.791   8.375  11.644
23365SOL    HW171934   0.827   8.449  11.596
23365SOL    HW271935   0.696   8.391  11.646
23366SOL     OW71936  13.097   4.843   1.708
23366SOL    HW171937  13.097   4.933   1.740
23366SOL    HW271938  13.004   4.821   1.698
23367SOL     OW71939   9.556   6.607   1.702
23367SOL    HW171940   9.576   6.553   1.779
23367SOL    HW271941   9.640   6.614   1.656
23368SOL     OW71942  14.655   0.102   4.748
23368SOL    HW171943  14.723   0.146   4.698
23368SOL    HW271944  14.596   0.172   4.777
23369SOL     OW71945   4.470   6.737   0.145
23369SOL    HW171946   4.433   6.649   0.137
23369SOL    HW271947   4.401   6.788   0.188
23370SOL     OW71948   8.178  14.554   1.067
23370SOL    HW171949   8.271  14.530   1.072
23370SOL    HW271950   8.142  14.529   1.151
23371SOL     OW71951   2.947  11.078  13.570
23371SOL    HW171952   2.926  11.135  13.644
23371SOL    HW271953   3.034  11.107  13.542
23372SOL     OW71954  13.418   4.538   5.871
23372SOL    HW171955  13.480   4.536   5.944
23372SOL    HW271956  13.332   4.539   5.913
23373SOL     OW71957  13.030   6.359   1.292
23373SOL    HW171958  13.069   6.399   1.370
23373SOL    HW271959  13.105   6.336   1.237
23374SOL     OW71960   8.055   4.238   5.165
23374SOL    HW171961   7.974   4.204   5.128
23374SOL    HW271962   8.080   4.174   5.231
23375SOL     OW71963   0.180   2.772  13.126
23375SOL    HW171964   0.143   2.860  13.134
23375SOL    HW271965   0.260   2.774  13.178
23376SOL     OW71966   7.298   0.596  10.213
23376SOL    HW171967   7.284   0.690  10.215
23376SOL    HW271968   7.313   0.571  10.304
23377SOL     OW71969   2.884  12.952   2.078
23377SOL    HW171970   2.890  12.858   2.063
23377SOL    HW271971   2.828  12.961   2.155
23378SOL     OW71972  11.156   6.965   3.939
23378SOL    HW171973  11.109   7.049   3.946
23378SOL    HW271974  11.117   6.922   3.862
23379SOL     OW71975   9.713   5.878  14.191
23379SOL    HW171976   9.733   5.800  14.241
23379SOL    HW271977   9.740   5.857  14.101
23380SOL     OW71978   4.721   1.832   1.049
23380SOL    HW171979   4.744   1.925   1.053
23380SOL    HW271980   4.625   1.831   1.048
23381SOL     OW71981   2.404   8.190   6.644
23381SOL    HW171982   2.457   8.253   6.595
23381SOL    HW271983   2.384   8.235   6.726
23382SOL     OW71984   0.133   9.776   1.571
23382SOL    HW171985   0.203   9.739   1.516
23382SOL    HW271986   0.156   9.749   1.660
23383SOL     OW71987  14.286   4.766   3.639
23383SOL    HW171988  14.226   4.840   3.634
23383SOL    HW271989  14.373   4.806   3.641
23384SOL     OW71990   4.727  13.463  13.903
23384SOL    HW171991   4.755  13.472  13.812
23384SOL    HW271992   4.690  13.549  13.925
23385SOL     OW71993  13.351  14.764   2.038
23385SOL    HW171994  13.307  14.836   2.083
23385SOL    HW271995  13.291  14.690   2.047
23386SOL     OW71996   0.328   1.974   7.611
23386SOL    HW171997   0.339   1.879   7.598
23386SOL    HW271998   0.268   1.981   7.686
23387SOL     OW71999  10.692   3.372   1.041
23387SOL    HW172000  10.711   3.456   1.082
23387SOL    HW272001  10.684   3.392   0.948
23388SOL     OW72002  12.117  14.347   9.737
23388SOL    HW172003  12.162  14.417   9.689
23388SOL    HW272004  12.081  14.390   9.814
23389SOL     OW72005  10.900   3.857  13.808
23389SOL    HW172006  10.990   3.846  13.837
23389SOL    HW272007  10.902   3.934  13.752
23390SOL     OW72008  11.866   3.394  14.034
23390SOL    HW172009  11.783   3.362  13.997
23390SOL    HW272010  11.839   3.449  14.108
23391SOL     OW72011  11.114  14.125   4.712
23391SOL    HW172012  11.120  14.220   4.723
23391SOL    HW272013  11.108  14.112   4.617
23392SOL     OW72014   6.883   3.945  12.651
23392SOL    HW172015   6.955   4.007  12.654
23392SOL    HW272016   6.873   3.923  12.559
23393SOL     OW72017   4.126   5.117   4.447
23393SOL    HW172018   4.200   5.056   4.448
23393SOL    HW272019   4.055   5.071   4.491
23394SOL     OW72020   4.156  12.367   8.788
23394SOL    HW172021   4.190  12.316   8.861
23394SOL    HW272022   4.163  12.308   8.713
23395SOL     OW72023   1.077   6.531   8.661
23395SOL    HW172024   1.047   6.560   8.747
23395SOL    HW272025   1.142   6.463   8.679
23396SOL     OW72026  13.852   5.826   5.479
23396SOL    HW172027  13.757   5.834   5.489
23396SOL    HW272028  13.889   5.881   5.549
23397SOL     OW72029   4.027  11.730   7.112
23397SOL    HW172030   3.988  11.773   7.037
23397SOL    HW272031   4.112  11.698   7.080
23398SOL     OW72032   0.392   8.620  14.023
23398SOL    HW172033   0.352   8.558  13.962
23398SOL    HW272034   0.341   8.700  14.014
23399SOL     OW72035   2.658   8.227   7.783
23399SOL    HW172036   2.728   8.289   7.805
23399SOL    HW272037   2.702   8.157   7.735
23400SOL     OW72038   4.254  12.431   7.858
23400SOL    HW172039   4.315  12.505   7.854
23400SOL    HW272040   4.174  12.469   7.896
23401SOL     OW72041   4.918   1.841   6.181
23401SOL    HW172042   4.848   1.789   6.221
23401SOL    HW272043   4.998   1.795   6.203
23402SOL     OW72044  11.093   4.847   9.491
23402SOL    HW172045  11.140   4.931   9.499
23402SOL    HW272046  11.027   4.851   9.560
23403SOL     OW72047   5.736   2.769   5.047
23403SOL    HW172048   5.699   2.782   4.960
23403SOL    HW272049   5.767   2.678   5.047
23404SOL     OW72050   2.480   4.659   0.121
23404SOL    HW172051   2.534   4.588   0.155
23404SOL    HW272052   2.402   4.659   0.177
23405SOL     OW72053  13.921   3.286   7.340
23405SOL    HW172054  13.862   3.344   7.292
23405SOL    HW272055  13.966   3.343   7.402
23406SOL     OW72056   1.145   6.033   8.181
23406SOL    HW172057   1.240   6.026   8.176
23406SOL    HW272058   1.128   6.114   8.228
23407SOL     OW72059  12.609  13.690  14.304
23407SOL    HW172060  12.641  13.696  14.394
23407SOL    HW272061  12.514  13.693  14.313
23408SOL     OW72062   4.576  11.686   1.897
23408SOL    HW172063   4.583  11.759   1.959
23408SOL    HW272064   4.620  11.613   1.940
23409SOL     OW72065  14.122  10.578  13.704
23409SOL    HW172066  14.112  10.662  13.658
23409SOL    HW272067  14.203  10.542  13.670
23410SOL     OW72068   2.385   2.626   5.950
23410SOL    HW172069   2.384   2.711   5.905
23410SOL    HW272070   2.331   2.569   5.894
23411SOL     OW72071   5.325   7.048   9.343
23411SOL    HW172072   5.406   7.088   9.375
23411SOL    HW272073   5.350   6.958   9.320
23412SOL     OW72074  10.288   1.634   9.035
23412SOL    HW172075  10.343   1.613   8.960
23412SOL    HW272076  10.200   1.646   8.998
23413SOL     OW72077  11.155  10.911  11.960
23413SOL    HW172078  11.116  10.861  11.888
23413SOL    HW272079  11.194  10.845  12.017
23414SOL     OW72080   5.447  14.587   1.312
23414SOL    HW172081   5.499  14.645   1.257
23414SOL    HW272082   5.503  14.568   1.387
23415SOL     OW72083   4.628   5.643   8.527
23415SOL    HW172084   4.715   5.614   8.552
23415SOL    HW272085   4.607   5.593   8.449
23416SOL     OW72086   7.164   8.874  13.548
23416SOL    HW172087   7.157   8.967  13.568
23416SOL    HW272088   7.083   8.836  13.582
23417SOL     OW72089   7.851   8.417  13.215
23417SOL    HW172090   7.806   8.390  13.295
23417SOL    HW272091   7.943   8.400  13.232
23418SOL     OW72092   1.297   9.871   7.755
23418SOL    HW172093   1.338   9.823   7.827
23418SOL    HW272094   1.299   9.962   7.783
23419SOL     OW72095   7.304  11.280   9.396
23419SOL    HW172096   7.375  11.277   9.460
23419SOL    HW272097   7.317  11.362   9.348
23420SOL     OW72098  11.742   1.761  11.567
23420SOL    HW172099  11.770   1.798  11.483
23420SOL    HW272100  11.652   1.791  11.577
23421SOL     OW72101   7.004   9.279   6.096
23421SOL    HW172102   6.967   9.229   6.024
23421SOL    HW272103   7.008   9.217   6.170
23422SOL     OW72104  11.480  13.618  11.438
23422SOL    HW172105  11.407  13.651  11.386
23422SOL    HW272106  11.466  13.656  11.525
23423SOL     OW72107   4.309  10.880   8.130
23423SOL    HW172108   4.321  10.973   8.112
23423SOL    HW272109   4.359  10.835   8.063
23424SOL     OW72110   2.383  10.155  12.721
23424SOL    HW172111   2.388  10.202  12.804
23424SOL    HW272112   2.411  10.065  12.743
23425SOL     OW72113   6.697   9.813  11.704
23425SOL    HW172114   6.727   9.740  11.650
23425SOL    HW272115   6.660   9.875  11.641
23426SOL     OW72116   4.063   6.347   3.758
23426SOL    HW172117   3.973   6.351   3.724
23426SOL    HW272118   4.068   6.264   3.804
23427SOL     OW72119   0.345   4.734   5.198
23427SOL    HW172120   0.332   4.829   5.199
23427SOL    HW272121   0.266   4.700   5.156
23428SOL     OW72122   0.984   4.066   6.412
23428SOL    HW172123   0.962   3.982   6.372
23428SOL    HW272124   0.966   4.054   6.505
23429SOL     OW72125  10.811  14.347  10.144
23429SOL    HW172126  10.746  14.281  10.165
23429SOL    HW272127  10.890  14.297  10.123
23430SOL     OW72128   5.167   2.272   3.081
23430SOL    HW172129   5.101   2.257   3.149
23430SOL    HW272130   5.237   2.318   3.127
23431SOL     OW72131   7.486   9.839   5.966
23431SOL    HW172132   7.565   9.892   5.977
23431SOL    HW272133   7.505   9.785   5.889
23432SOL     OW72134   4.789   7.930  14.031
23432SOL    HW172135   4.829   7.930  14.118
23432SOL    HW272136   4.778   7.837  14.010
23433SOL     OW72137  14.367  10.945   4.962
23433SOL    HW172138  14.328  11.022   5.003
23433SOL    HW272139  14.357  10.876   5.027
23434SOL     OW72140  13.226   7.325   2.899
23434SOL    HW172141  13.239   7.233   2.920
23434SOL    HW272142  13.171   7.325   2.821
23435SOL     OW72143  11.170   5.846   6.487
23435SOL    HW172144  11.265   5.851   6.484
23435SOL    HW272145  11.142   5.936   6.501
23436SOL     OW72146   6.899   3.937   7.976
23436SOL    HW172147   6.855   3.913   7.894
23436SOL    HW272148   6.960   4.007   7.951
23437SOL     OW72149   7.445   4.732   8.376
23437SOL    HW172150   7.409   4.701   8.460
23437SOL    HW272151   7.377   4.713   8.312
23438SOL     OW72152  10.902  11.970   1.619
23438SOL    HW172153  10.905  11.876   1.637
23438SOL    HW272154  10.834  11.978   1.551
23439SOL     OW72155   7.684  10.242   8.549
23439SOL    HW172156   7.734  10.226   8.468
23439SOL    HW272157   7.751  10.249   8.617
23440SOL     OW72158  10.952  13.215   1.626
23440SOL    HW172159  10.943  13.308   1.647
23440SOL    HW272160  10.969  13.173   1.710
23441SOL     OW72161   7.720  10.862  11.945
23441SOL    HW172162   7.679  10.946  11.923
23441SOL    HW272163   7.663  10.796  11.905
23442SOL     OW72164  11.906   9.656   1.518
23442SOL    HW172165  11.895   9.642   1.423
23442SOL    HW272166  11.880   9.747   1.531
23443SOL     OW72167   8.776   7.937   4.948
23443SOL    HW172168   8.860   7.903   4.981
23443SOL    HW272169   8.762   7.891   4.865
23444SOL     OW72170  10.344   8.571  13.588
23444SOL    HW172171  10.429   8.611  13.573
23444SOL    HW272172  10.304   8.565  13.502
23445SOL     OW72173   1.023   0.217   2.507
23445SOL    HW172174   0.954   0.275   2.476
23445SOL    HW272175   1.094   0.227   2.444
23446SOL     OW72176  10.447  12.510  12.199
23446SOL    HW172177  10.449  12.432  12.144
23446SOL    HW272178  10.448  12.477  12.289
23447SOL     OW72179   8.361  13.860   0.250
23447SOL    HW172180   8.303  13.814   0.189
23447SOL    HW272181   8.439  13.805   0.253
23448SOL     OW72182  12.860   0.826  13.886
23448SOL    HW172183  12.899   0.752  13.933
23448SOL    HW272184  12.767   0.824  13.910
23449SOL     OW72185   6.546   9.220  13.853
23449SOL    HW172186   6.585   9.306  13.843
23449SOL    HW272187   6.511   9.220  13.943
23450SOL     OW72188   0.792   3.536   1.161
23450SOL    HW172189   0.812   3.627   1.142
23450SOL    HW272190   0.761   3.536   1.251
23451SOL     OW72191   6.544  12.193   1.706
23451SOL    HW172192   6.621  12.249   1.704
23451SOL    HW272193   6.576  12.106   1.680
23452SOL     OW72194   7.293   2.737   1.233
23452SOL    HW172195   7.247   2.819   1.250
23452SOL    HW272196   7.360   2.732   1.300
23453SOL     OW72197   2.453   1.915   9.857
23453SOL    HW172198   2.482   1.980   9.922
23453SOL    HW272199   2.527   1.854   9.850
23454SOL     OW72200   0.911  14.839   3.509
23454SOL    HW172201   0.920   0.050   3.532
23454SOL    HW272202   0.999  14.813   3.483
23455SOL     OW72203   4.957  11.959  14.431
23455SOL    HW172204   5.011  12.032  14.461
23455SOL    HW272205   4.867  11.986  14.451
23456SOL     OW72206   7.527   3.748   0.180
23456SOL    HW172207   7.433   3.766   0.185
23456SOL    HW272208   7.554   3.786   0.096
23457SOL     OW72209   0.020   7.161   9.631
23457SOL    HW172210  14.849   7.094   9.673
23457SOL    HW272211  14.839   7.228   9.604
23458SOL     OW72212  11.564   7.214   6.537
23458SOL    HW172213  11.571   7.301   6.576
23458SOL    HW272214  11.531   7.159   6.608
23459SOL     OW72215  10.961  12.869  13.141
23459SOL    HW172216  11.011  12.908  13.212
23459SOL    HW272217  10.981  12.923  13.065
23460SOL     OW72218  14.490  10.373   1.912
23460SOL    HW172219  14.532  10.404   1.992
23460SOL    HW272220  14.414  10.429   1.901
23461SOL     OW72221   5.640   8.246  13.117
23461SOL    HW172222   5.696   8.251  13.195
23461SOL    HW272223   5.629   8.337  13.089
23462SOL     OW72224   3.608   1.328   3.068
23462SOL    HW172225   3.618   1.235   3.047
23462SOL    HW272226   3.650   1.338   3.153
23463SOL     OW72227   5.053   9.133   3.022
23463SOL    HW172228   5.052   9.173   2.935
23463SOL    HW272229   5.143   9.102   3.034
23464SOL     OW72230  14.519   6.759   5.221
23464SOL    HW172231  14.485   6.847   5.203
23464SOL    HW272232  14.612   6.764   5.202
23465SOL     OW72233   8.340  12.058   9.007
23465SOL    HW172234   8.266  12.102   8.965
23465SOL    HW272235   8.416  12.111   8.983
23466SOL     OW72236  12.721   2.566  11.887
23466SOL    HW172237  12.680   2.630  11.829
23466SOL    HW272238  12.695   2.593  11.975
23467SOL     OW72239  11.789   5.902   1.057
23467SOL    HW172240  11.821   5.818   1.025
23467SOL    HW272241  11.867   5.958   1.060
23468SOL     OW72242   2.857   2.716  13.128
23468SOL    HW172243   2.894   2.797  13.163
23468SOL    HW272244   2.872   2.721  13.034
23469SOL     OW72245   7.366   2.811  11.327
23469SOL    HW172246   7.431   2.880  11.340
23469SOL    HW272247   7.417   2.732  11.308
23470SOL     OW72248   6.047   9.208  12.130
23470SOL    HW172249   5.955   9.227  12.110
23470SOL    HW272250   6.070   9.268  12.201
23471SOL     OW72251   0.326   0.840   6.724
23471SOL    HW172252   0.374   0.922   6.735
23471SOL    HW272253   0.239   0.858   6.761
23472SOL     OW72254   1.584   7.070  13.377
23472SOL    HW172255   1.565   7.115  13.460
23472SOL    HW272256   1.511   7.094  13.320
23473SOL     OW72257   1.346  13.567   9.816
23473SOL    HW172258   1.288  13.627   9.769
23473SOL    HW272259   1.290  13.528   9.883
23474SOL     OW72260  12.195  10.044   5.450
23474SOL    HW172261  12.244  10.050   5.367
23474SOL    HW272262  12.214  10.127   5.494
23475SOL     OW72263   2.005   5.591   6.996
23475SOL    HW172264   1.935   5.576   7.060
23475SOL    HW272265   1.977   5.543   6.918
23476SOL     OW72266   8.373  12.216  10.570
23476SOL    HW172267   8.331  12.135  10.541
23476SOL    HW272268   8.300  12.275  10.589
23477SOL     OW72269  13.246  13.544  11.834
23477SOL    HW172270  13.263  13.500  11.917
23477SOL    HW272271  13.295  13.493  11.769
23478SOL     OW72272   7.777   5.140   2.500
23478SOL    HW172273   7.686   5.142   2.528
23478SOL    HW272274   7.825   5.182   2.571
23479SOL     OW72275  13.569  12.095  13.875
23479SOL    HW172276  13.578  12.124  13.966
23479SOL    HW272277  13.476  12.109  13.855
23480SOL     OW72278   9.595   7.094   2.491
23480SOL    HW172279   9.539   7.172   2.490
23480SOL    HW272280   9.671   7.120   2.543
23481SOL     OW72281   3.558   7.425  10.694
23481SOL    HW172282   3.572   7.378  10.777
23481SOL    HW272283   3.591   7.366  10.627
23482SOL     OW72284   8.899  11.245   5.525
23482SOL    HW172285   8.911  11.327   5.572
23482SOL    HW272286   8.987  11.208   5.517
23483SOL     OW72287   9.510   3.537   4.028
23483SOL    HW172288   9.510   3.483   3.949
23483SOL    HW272289   9.424   3.580   4.027
23484SOL     OW72290  10.098   0.369   7.714
23484SOL    HW172291  10.181   0.326   7.693
23484SOL    HW272292  10.122   0.442   7.771
23485SOL     OW72293   6.597   9.141   5.044
23485SOL    HW172294   6.524   9.080   5.057
23485SOL    HW272295   6.667   9.106   5.099
23486SOL     OW72296  14.706   9.132   8.756
23486SOL    HW172297  14.713   9.055   8.700
23486SOL    HW272298  14.772   9.119   8.823
23487SOL     OW72299   0.587   7.700   4.179
23487SOL    HW172300   0.661   7.642   4.160
23487SOL    HW272301   0.528   7.687   4.105
23488SOL     OW72302   6.395   1.941   3.866
23488SOL    HW172303   6.343   1.881   3.813
23488SOL    HW272304   6.469   1.965   3.810
23489SOL     OW72305  14.221   1.624  14.345
23489SOL    HW172306  14.208   1.655  14.434
23489SOL    HW272307  14.141   1.576  14.324
23490SOL     OW72308   2.765  13.764   6.337
23490SOL    HW172309   2.741  13.671   6.341
23490SOL    HW272310   2.687  13.808   6.303
23491SOL     OW72311   3.142   7.447   7.001
23491SOL    HW172312   3.057   7.412   6.977
23491SOL    HW272313   3.163   7.511   6.933
23492SOL     OW72314   0.574   4.720  13.995
23492SOL    HW172315   0.643   4.762  14.047
23492SOL    HW272316   0.572   4.630  14.026
23493SOL     OW72317  14.445   4.206   8.559
23493SOL    HW172318  14.397   4.283   8.528
23493SOL    HW272319  14.377   4.140   8.575
23494SOL     OW72320   9.906   2.932  11.667
23494SOL    HW172321   9.812   2.940  11.650
23494SOL    HW272322   9.913   2.940  11.763
23495SOL     OW72323   1.880   4.049   6.239
23495SOL    HW172324   1.865   4.134   6.196
23495SOL    HW272325   1.902   4.071   6.329
23496SOL     OW72326   8.621   4.281   3.107
23496SOL    HW172327   8.648   4.368   3.136
23496SOL    HW272328   8.649   4.223   3.177
23497SOL     OW72329   0.432   9.192   1.395
23497SOL    HW172330   0.339   9.207   1.407
23497SOL    HW272331   0.451   9.112   1.445
23498SOL     OW72332  12.840  13.905  13.652
23498SOL    HW172333  12.792  13.943  13.725
23498SOL    HW272334  12.789  13.829  13.626
23499SOL     OW72335  14.686   6.870   6.187
23499SOL    HW172336  14.748   6.926   6.232
23499SOL    HW272337  14.604   6.880   6.237
23500SOL     OW72338  14.065   9.393   8.839
23500SOL    HW172339  14.078   9.419   8.930
23500SOL    HW272340  14.153   9.400   8.800
23501SOL     OW72341  13.195   7.854  13.116
23501SOL    HW172342  13.173   7.893  13.031
23501SOL    HW272343  13.124   7.792  13.133
23502SOL     OW72344   2.411   0.622  10.172
23502SOL    HW172345   2.474   0.564  10.215
23502SOL    HW272346   2.431   0.615  10.079
23503SOL     OW72347   1.352  14.874  12.415
23503SOL    HW172348   1.437  14.870  12.373
23503SOL    HW272349   1.367  14.838  12.503
23504SOL     OW72350   9.845   3.584   2.157
23504SOL    HW172351   9.908   3.637   2.205
23504SOL    HW272352   9.898   3.523   2.106
23505SOL     OW72353   0.512   2.073   2.779
23505SOL    HW172354   0.597   2.086   2.822
23505SOL    HW272355   0.448   2.107   2.842
23506SOL     OW72356   4.527   6.559   8.646
23506SOL    HW172357   4.454   6.547   8.707
23506SOL    HW272358   4.485   6.586   8.564
23507SOL     OW72359   1.730   8.764   0.773
23507SOL    HW172360   1.816   8.756   0.732
23507SOL    HW272361   1.707   8.674   0.798
23508SOL     OW72362   5.117  13.451   5.642
23508SOL    HW172363   5.119  13.387   5.570
23508SOL    HW272364   5.209  13.472   5.657
23509SOL     OW72365  13.297   8.676   5.014
23509SOL    HW172366  13.376   8.695   5.064
23509SOL    HW272367  13.327   8.627   4.938
23510SOL     OW72368  10.233   1.450   6.259
23510SOL    HW172369  10.162   1.463   6.323
23510SOL    HW272370  10.296   1.520   6.280
23511SOL     OW72371  11.197   2.545   2.979
23511SOL    HW172372  11.178   2.613   2.914
23511SOL    HW272373  11.204   2.464   2.929
23512SOL     OW72374  10.677   5.117  12.429
23512SOL    HW172375  10.753   5.064  12.455
23512SOL    HW272376  10.621   5.117  12.506
23513SOL     OW72377   3.417  10.197   0.793
23513SOL    HW172378   3.475  10.129   0.760
23513SOL    HW272379   3.431  10.197   0.887
23514SOL     OW72380  13.351   5.270  14.508
23514SOL    HW172381  13.426   5.215  14.486
23514SOL    HW272382  13.389   5.349  14.546
23515SOL     OW72383   0.650   7.081  10.527
23515SOL    HW172384   0.662   7.070  10.621
23515SOL    HW272385   0.660   6.993  10.491
23516SOL     OW72386   4.714   7.408   5.805
23516SOL    HW172387   4.682   7.498   5.806
23516SOL    HW272388   4.664   7.366   5.734
23517SOL     OW72389  13.963   0.374   7.584
23517SOL    HW172390  14.044   0.384   7.634
23517SOL    HW272391  13.983   0.411   7.498
23518SOL     OW72392  13.284   1.175   5.468
23518SOL    HW172393  13.357   1.207   5.521
23518SOL    HW272394  13.206   1.208   5.512
23519SOL     OW72395  14.707  11.514  10.639
23519SOL    HW172396  14.655  11.552  10.710
23519SOL    HW272397  14.723  11.586  10.579
23520SOL     OW72398   6.847   1.337  10.616
23520SOL    HW172399   6.924   1.393  10.609
23520SOL    HW272400   6.859   1.269  10.550
23521SOL     OW72401   6.057  11.838  14.299
23521SOL    HW172402   6.102  11.874  14.223
23521SOL    HW272403   6.002  11.768  14.264
23522SOL     OW72404  10.029   3.475   5.110
23522SOL    HW172405   9.940   3.482   5.075
23522SOL    HW272406  10.072   3.556   5.082
23523SOL     OW72407   5.563   3.502  12.072
23523SOL    HW172408   5.586   3.436  12.007
23523SOL    HW272409   5.517   3.569  12.022
23524SOL     OW72410   0.509  13.506   3.109
23524SOL    HW172411   0.485  13.552   3.029
23524SOL    HW272412   0.603  13.490   3.100
23525SOL     OW72413  10.223   7.166   2.732
23525SOL    HW172414  10.211   7.135   2.822
23525SOL    HW272415  10.178   7.101   2.678
23526SOL     OW72416   9.041   3.714   3.499
23526SOL    HW172417   9.004   3.784   3.552
23526SOL    HW272418   9.029   3.743   3.408
23527SOL     OW72419   2.829   7.055   8.204
23527SOL    HW172420   2.756   6.993   8.204
23527SOL    HW272421   2.821   7.101   8.120
23528SOL     OW72422  13.799  12.477   0.474
23528SOL    HW172423  13.864  12.407   0.472
23528SOL    HW272424  13.753  12.464   0.556
23529SOL     OW72425   3.364   4.807   4.934
23529SOL    HW172426   3.335   4.792   4.844
23529SOL    HW272427   3.319   4.739   4.985
23530SOL     OW72428   5.470   6.765  11.249
23530SOL    HW172429   5.504   6.855  11.245
23530SOL    HW272430   5.454   6.742  11.157
23531SOL     OW72431   1.417   9.604   0.151
23531SOL    HW172432   1.484   9.652   0.102
23531SOL    HW272433   1.431   9.629   0.242
23532SOL     OW72434  14.218   8.820   2.502
23532SOL    HW172435  14.241   8.749   2.442
23532SOL    HW272436  14.122   8.818   2.506
23533SOL     OW72437  12.920   0.246   9.171
23533SOL    HW172438  12.914   0.175   9.235
23533SOL    HW272439  13.003   0.231   9.126
23534SOL     OW72440   3.381   6.420  14.831
23534SOL    HW172441   3.430   6.438  14.751
23534SOL    HW272442   3.416   6.337  14.863
23535SOL     OW72443  10.080  13.644  13.723
23535SOL    HW172444  10.023  13.576  13.689
23535SOL    HW272445  10.024  13.722  13.726
23536SOL     OW72446   4.079  13.218  14.854
23536SOL    HW172447   4.057  13.192  14.764
23536SOL    HW272448   4.072  13.136   0.022
23537SOL     OW72449  11.823   6.883  10.207
23537SOL    HW172450  11.869   6.807  10.243
23537SOL    HW272451  11.891   6.935  10.165
23538SOL     OW72452   4.353  14.241   2.730
23538SOL    HW172453   4.292  14.315   2.735
23538SOL    HW272454   4.306  14.174   2.681
23539SOL     OW72455   8.466   7.046  10.883
23539SOL    HW172456   8.513   7.119  10.925
23539SOL    HW272457   8.416   7.006  10.954
23540SOL     OW72458   3.990  14.180   2.801
23540SOL    HW172459   4.042  14.215   2.873
23540SOL    HW272460   3.899  14.190   2.830
23541SOL     OW72461   7.430   6.911   8.798
23541SOL    HW172462   7.342   6.875   8.811
23541SOL    HW272463   7.416   7.005   8.791
23542SOL     OW72464   7.310   0.450   4.713
23542SOL    HW172465   7.395   0.417   4.686
23542SOL    HW272466   7.282   0.389   4.782
23543SOL     OW72467  14.048   5.951   7.161
23543SOL    HW172468  14.084   5.892   7.095
23543SOL    HW272469  13.962   5.915   7.181
23544SOL     OW72470   6.833   7.734   6.439
23544SOL    HW172471   6.882   7.798   6.387
23544SOL    HW272472   6.744   7.769   6.442
23545SOL     OW72473   8.838  12.189  11.540
23545SOL    HW172474   8.749  12.203  11.508
23545SOL    HW272475   8.835  12.105  11.586
23546SOL     OW72476  13.629   2.807   3.669
23546SOL    HW172477  13.592   2.766   3.591
23546SOL    HW272478  13.672   2.736   3.716
23547SOL     OW72479   5.188   6.439   8.454
23547SOL    HW172480   5.258   6.375   8.468
23547SOL    HW272481   5.150   6.416   8.369
23548SOL     OW72482   2.916  10.109   5.429
23548SOL    HW172483   2.967  10.181   5.394
23548SOL    HW272484   2.975  10.067   5.492
23549SOL     OW72485   9.269  10.837  10.065
23549SOL    HW172486   9.181  10.826  10.100
23549SOL    HW272487   9.319  10.765  10.104
23550SOL     OW72488   3.322   9.305  14.197
23550SOL    HW172489   3.325   9.388  14.245
23550SOL    HW272490   3.404   9.302  14.149
23551SOL     OW72491   2.123   4.584   9.317
23551SOL    HW172492   2.094   4.588   9.408
23551SOL    HW272493   2.159   4.671   9.299
23552SOL     OW72494  11.103   0.436  14.361
23552SOL    HW172495  11.133   0.399  14.444
23552SOL    HW272496  11.030   0.493  14.385
23553SOL     OW72497   9.057   2.399   3.216
23553SOL    HW172498   9.138   2.380   3.167
23553SOL    HW272499   9.065   2.492   3.239
23554SOL     OW72500   8.908   9.741   2.951
23554SOL    HW172501   8.824   9.700   2.973
23554SOL    HW272502   8.885   9.818   2.899
23555SOL     OW72503  10.505  10.263   5.508
23555SOL    HW172504  10.596  10.242   5.530
23555SOL    HW272505  10.457  10.182   5.527
23556SOL     OW72506   6.041   3.071   4.166
23556SOL    HW172507   6.005   3.005   4.107
23556SOL    HW272508   6.011   3.044   4.253
23557SOL     OW72509   9.222   8.419   6.768
23557SOL    HW172510   9.143   8.372   6.741
23557SOL    HW272511   9.256   8.368   6.842
23558SOL     OW72512   2.947   7.066   9.395
23558SOL    HW172513   2.933   7.017   9.314
23558SOL    HW272514   2.974   7.153   9.366
23559SOL     OW72515  11.502   1.063   1.825
23559SOL    HW172516  11.543   1.001   1.765
23559SOL    HW272517  11.409   1.062   1.801
23560SOL     OW72518   0.911  10.155   7.831
23560SOL    HW172519   0.859  10.221   7.786
23560SOL    HW272520   0.881  10.158   7.922
23561SOL     OW72521  13.243   8.360   6.307
23561SOL    HW172522  13.162   8.411   6.299
23561SOL    HW272523  13.313   8.422   6.289
23562SOL     OW72524   4.338  10.844   9.846
23562SOL    HW172525   4.251  10.851   9.887
23562SOL    HW272526   4.369  10.757   9.871
23563SOL     OW72527   5.461   1.130   9.351
23563SOL    HW172528   5.472   1.151   9.258
23563SOL    HW272529   5.367   1.119   9.363
23564SOL     OW72530  10.652   0.791   2.645
23564SOL    HW172531  10.714   0.859   2.620
23564SOL    HW272532  10.567   0.835   2.646
23565SOL     OW72533  13.521   3.777   7.336
23565SOL    HW172534  13.430   3.774   7.366
23565SOL    HW272535  13.517   3.745   7.246
23566SOL     OW72536   1.817   6.404  11.883
23566SOL    HW172537   1.855   6.485  11.846
23566SOL    HW272538   1.890   6.361  11.926
23567SOL     OW72539  12.793   8.316   6.184
23567SOL    HW172540  12.804   8.338   6.276
23567SOL    HW272541  12.853   8.244   6.168
23568SOL     OW72542   4.441   3.651   4.454
23568SOL    HW172543   4.364   3.657   4.511
23568SOL    HW272544   4.462   3.741   4.432
23569SOL     OW72545   2.440  12.758   6.675
23569SOL    HW172546   2.410  12.668   6.687
23569SOL    HW272547   2.363  12.812   6.693
23570SOL     OW72548   0.137   1.690  12.851
23570SOL    HW172549   0.160   1.601  12.824
23570SOL    HW272550   0.087   1.679  12.932
23571SOL     OW72551   6.446   5.883   0.768
23571SOL    HW172552   6.368   5.912   0.721
23571SOL    HW272553   6.415   5.862   0.856
23572SOL     OW72554   4.398   6.428   4.737
23572SOL    HW172555   4.448   6.484   4.678
23572SOL    HW272556   4.464   6.372   4.778
23573SOL     OW72557   8.211   5.251   5.828
23573SOL    HW172558   8.169   5.308   5.893
23573SOL    HW272559   8.154   5.258   5.751
23574SOL     OW72560   9.019   9.377  14.305
23574SOL    HW172561   9.074   9.326  14.363
23574SOL    HW272562   9.063   9.462  14.299
23575SOL     OW72563   8.507  12.438   8.961
23575SOL    HW172564   8.543  12.353   8.938
23575SOL    HW272565   8.487  12.431   9.055
23576SOL     OW72566   9.706   6.667   7.927
23576SOL    HW172567   9.689   6.651   7.835
23576SOL    HW272568   9.727   6.760   7.932
23577SOL     OW72569  11.241   4.266   9.995
23577SOL    HW172570  11.172   4.239  10.056
23577SOL    HW272571  11.233   4.206   9.921
23578SOL     OW72572   6.664   4.800  13.623
23578SOL    HW172573   6.578   4.810  13.582
23578SOL    HW272574   6.715   4.873  13.588
23579SOL     OW72575   2.322   3.430   2.254
23579SOL    HW172576   2.364   3.361   2.306
23579SOL    HW272577   2.382   3.445   2.181
23580SOL     OW72578  11.692   9.992   6.415
23580SOL    HW172579  11.667  10.003   6.507
23580SOL    HW272580  11.719  10.080   6.388
23581SOL     OW72581  13.825  12.713   9.548
23581SOL    HW172582  13.920  12.723   9.550
23581SOL    HW272583  13.800  12.698   9.639
23582SOL     OW72584   7.342   0.004   2.321
23582SOL    HW172585   7.390  14.836   2.254
23582SOL    HW272586   7.310  14.819   2.382
23583SOL     OW72587   0.808   8.605   5.958
23583SOL    HW172588   0.781   8.525   5.912
23583SOL    HW272589   0.898   8.620   5.928
23584SOL     OW72590   5.882   3.332  13.376
23584SOL    HW172591   5.901   3.311  13.284
23584SOL    HW272592   5.862   3.425  13.376
23585SOL     OW72593   3.233  13.542   4.132
23585SOL    HW172594   3.148  13.546   4.177
23585SOL    HW272595   3.242  13.628   4.091
23586SOL     OW72596   3.169   2.994  12.616
23586SOL    HW172597   3.125   3.009  12.532
23586SOL    HW272598   3.260   3.022  12.601
23587SOL     OW72599  13.367  12.251   4.944
23587SOL    HW172600  13.309  12.183   4.978
23587SOL    HW272601  13.376  12.314   5.015
23588SOL     OW72602   7.629   2.985   4.037
23588SOL    HW172603   7.697   2.973   3.972
23588SOL    HW272604   7.636   3.076   4.064
23589SOL     OW72605   7.611  14.009   0.911
23589SOL    HW172606   7.529  13.960   0.901
23589SOL    HW272607   7.650  13.973   0.990
23590SOL     OW72608   7.209   2.713   4.387
23590SOL    HW172609   7.278   2.779   4.381
23590SOL    HW272610   7.129   2.763   4.403
23591SOL     OW72611  13.758   2.609   8.001
23591SOL    HW172612  13.702   2.627   7.926
23591SOL    HW272613  13.712   2.648   8.076
23592SOL     OW72614   8.508  14.400   4.701
23592SOL    HW172615   8.599  14.369   4.706
23592SOL    HW272616   8.458  14.323   4.673
23593SOL     OW72617   5.947   9.998   5.882
23593SOL    HW172618   5.882   9.940   5.842
23593SOL    HW272619   5.994   9.942   5.944
23594SOL     OW72620   8.192   4.276  14.227
23594SOL    HW172621   8.265   4.242  14.279
23594SOL    HW272622   8.213   4.368  14.214
23595SOL     OW72623   5.635   3.176  11.957
23595SOL    HW172624   5.612   3.221  11.876
23595SOL    HW272625   5.550   3.146  11.991
23596SOL     OW72626   7.379   3.405   0.793
23596SOL    HW172627   7.433   3.357   0.731
23596SOL    HW272628   7.341   3.476   0.740
23597SOL     OW72629   9.595  10.484   4.799
23597SOL    HW172630   9.663  10.537   4.755
23597SOL    HW272631   9.514  10.531   4.782
23598SOL     OW72632  11.250   6.494   9.618
23598SOL    HW172633  11.164   6.462   9.646
23598SOL    HW272634  11.286   6.537   9.696
23599SOL     OW72635   8.691  14.262  11.227
23599SOL    HW172636   8.643  14.322  11.284
23599SOL    HW272637   8.652  14.176  11.244
23600SOL     OW72638   9.895   2.365   5.674
23600SOL    HW172639   9.802   2.358   5.697
23600SOL    HW272640   9.939   2.300   5.729
23601SOL     OW72641   8.696  10.646   1.110
23601SOL    HW172642   8.774  10.697   1.130
23601SOL    HW272643   8.680  10.593   1.188
23602SOL     OW72644   8.764   4.942   6.077
23602SOL    HW172645   8.792   4.931   5.986
23602SOL    HW272646   8.726   4.858   6.100
23603SOL     OW72647   5.271  12.264  12.313
23603SOL    HW172648   5.207  12.195  12.327
23603SOL    HW272649   5.233  12.341  12.355
23604SOL     OW72650  10.706   0.473  10.729
23604SOL    HW172651  10.700   0.568  10.722
23604SOL    HW272652  10.689   0.454  10.821
23605SOL     OW72653   1.361  14.417  10.172
23605SOL    HW172654   1.395  14.378  10.091
23605SOL    HW272655   1.277  14.454  10.148
23606SOL     OW72656   2.834   1.167  11.249
23606SOL    HW172657   2.787   1.093  11.212
23606SOL    HW272658   2.804   1.172  11.340
23607SOL     OW72659   7.238   9.668  12.796
23607SOL    HW172660   7.274   9.579  12.789
23607SOL    HW272661   7.152   9.662  12.755
23608SOL     OW72662   1.738   2.034   9.106
23608SOL    HW172663   1.698   2.120   9.118
23608SOL    HW272664   1.672   1.972   9.136
23609SOL     OW72665  14.046   7.970   7.648
23609SOL    HW172666  14.056   7.926   7.563
23609SOL    HW272667  14.087   7.910   7.711
23610SOL     OW72668   0.649   5.543  11.660
23610SOL    HW172669   0.697   5.624  11.678
23610SOL    HW272670   0.715   5.485  11.621
23611SOL     OW72671  12.809   8.111   5.838
23611SOL    HW172672  12.894   8.112   5.881
23611SOL    HW272673  12.796   8.019   5.814
23612SOL     OW72674   5.103   1.626   1.895
23612SOL    HW172675   5.123   1.715   1.867
23612SOL    HW272676   5.119   1.573   1.817
23613SOL     OW72677   2.854  13.610  13.888
23613SOL    HW172678   2.882  13.520  13.874
23613SOL    HW272679   2.903  13.639  13.965
23614SOL     OW72680  14.303  10.208   1.713
23614SOL    HW172681  14.226  10.157   1.740
23614SOL    HW272682  14.361  10.205   1.789
23615SOL     OW72683   3.554   6.333   2.719
23615SOL    HW172684   3.614   6.401   2.688
23615SOL    HW272685   3.469   6.356   2.682
23616SOL     OW72686   9.666  13.090   0.388
23616SOL    HW172687   9.637  13.001   0.406
23616SOL    HW272688   9.695  13.123   0.473
23617SOL     OW72689   5.481   6.906   3.431
23617SOL    HW172690   5.528   6.852   3.367
23617SOL    HW272691   5.416   6.954   3.379
23618SOL     OW72692   8.003  12.030   0.995
23618SOL    HW172693   8.048  12.113   1.009
23618SOL    HW272694   7.988  11.996   1.084
23619SOL     OW72695   5.775   3.999   8.868
23619SOL    HW172696   5.726   3.970   8.791
23619SOL    HW272697   5.839   3.929   8.884
23620SOL     OW72698   2.872  13.831   2.364
23620SOL    HW172699   2.782  13.838   2.333
23620SOL    HW272700   2.911  13.761   2.312
23621SOL     OW72701   5.674  10.088   7.849
23621SOL    HW172702   5.730  10.060   7.777
23621SOL    HW272703   5.693  10.181   7.860
23622SOL     OW72704   1.620   9.295   6.033
23622SOL    HW172705   1.703   9.341   6.048
23622SOL    HW272706   1.642   9.202   6.036
23623SOL     OW72707  10.855  11.846  10.095
23623SOL    HW172708  10.793  11.900  10.046
23623SOL    HW272709  10.890  11.784  10.031
23624SOL     OW72710   3.183  13.785  14.482
23624SOL    HW172711   3.212  13.830  14.561
23624SOL    HW272712   3.088  13.780  14.490
23625SOL     OW72713   3.982   7.699  14.276
23625SOL    HW172714   3.973   7.616  14.322
23625SOL    HW272715   4.030   7.676  14.196
23626SOL     OW72716   0.484   9.771  10.523
23626SOL    HW172717   0.405   9.747  10.474
23626SOL    HW272718   0.494   9.702  10.588
23627SOL     OW72719   1.980  14.580   6.611
23627SOL    HW172720   1.921  14.506   6.613
23627SOL    HW272721   2.064  14.545   6.642
23628SOL     OW72722  11.932   4.050   6.741
23628SOL    HW172723  11.962   4.115   6.677
23628SOL    HW272724  11.855   4.011   6.701
23629SOL     OW72725  12.909   0.401   0.748
23629SOL    HW172726  12.955   0.339   0.693
23629SOL    HW272727  12.941   0.487   0.720
23630SOL     OW72728   2.791  10.374   3.252
23630SOL    HW172729   2.840  10.450   3.222
23630SOL    HW272730   2.763  10.330   3.171
23631SOL     OW72731  13.401  13.139  11.629
23631SOL    HW172732  13.383  13.055  11.672
23631SOL    HW272733  13.342  13.141  11.554
23632SOL     OW72734  12.489   6.659  12.489
23632SOL    HW172735  12.530   6.617  12.565
23632SOL    HW272736  12.545   6.634  12.416
23633SOL     OW72737   8.188  11.917  13.049
23633SOL    HW172738   8.209  11.918  13.142
23633SOL    HW272739   8.212  12.004  13.018
23634SOL     OW72740  13.096   6.336  14.035
23634SOL    HW172741  13.102   6.250  14.077
23634SOL    HW272742  13.015   6.332  13.984
23635SOL     OW72743  13.429   4.156   7.193
23635SOL    HW172744  13.508   4.103   7.178
23635SOL    HW272745  13.403   4.135   7.282
23636SOL     OW72746   6.493   8.901   5.220
23636SOL    HW172747   6.540   8.842   5.279
23636SOL    HW272748   6.443   8.958   5.279
23637SOL     OW72749  10.378  11.929  11.617
23637SOL    HW172750  10.439  11.888  11.555
23637SOL    HW272751  10.295  11.887  11.599
23638SOL     OW72752  11.857  12.572   3.412
23638SOL    HW172753  11.884  12.491   3.456
23638SOL    HW272754  11.870  12.554   3.319
23639SOL     OW72755  12.478   2.447   9.254
23639SOL    HW172756  12.427   2.524   9.228
23639SOL    HW272757  12.433   2.374   9.213
23640SOL     OW72758   4.454   8.573  13.978
23640SOL    HW172759   4.402   8.501  14.014
23640SOL    HW272760   4.544   8.552  14.001
23641SOL     OW72761   1.734   5.602   4.895
23641SOL    HW172762   1.652   5.652   4.900
23641SOL    HW272763   1.737   5.552   4.977
23642SOL     OW72764   1.055  14.182   2.556
23642SOL    HW172765   1.119  14.237   2.602
23642SOL    HW272766   0.989  14.162   2.622
23643SOL     OW72767  12.449   9.995  11.150
23643SOL    HW172768  12.502   9.988  11.071
23643SOL    HW272769  12.375  10.050  11.125
23644SOL     OW72770   0.795  12.703  14.869
23644SOL    HW172771   0.827  12.780   0.034
23644SOL    HW272772   0.744  12.655   0.053
23645SOL     OW72773  12.105  11.656   7.888
23645SOL    HW172774  12.010  11.668   7.881
23645SOL    HW272775  12.126  11.587   7.825
23646SOL     OW72776   3.041   2.505   1.642
23646SOL    HW172777   3.044   2.599   1.662
23646SOL    HW272778   3.099   2.495   1.567
23647SOL     OW72779   7.731  11.068   2.656
23647SOL    HW172780   7.716  11.162   2.667
23647SOL    HW272781   7.670  11.042   2.587
23648SOL     OW72782   0.390  14.411   5.722
23648SOL    HW172783   0.449  14.473   5.764
23648SOL    HW272784   0.441  14.331   5.713
23649SOL     OW72785   1.310   2.077  10.561
23649SOL    HW172786   1.289   2.046  10.473
23649SOL    HW272787   1.246   2.146  10.578
23650SOL     OW72788  11.808   2.309   5.191
23650SOL    HW172789  11.717   2.323   5.165
23650SOL    HW272790  11.847   2.396   5.186
23651SOL     OW72791   0.880   9.519   2.441
23651SOL    HW172792   0.959   9.565   2.470
23651SOL    HW272793   0.809   9.578   2.466
23652SOL     OW72794   9.270   4.897  14.753
23652SOL    HW172795   9.248   4.806  14.774
23652SOL    HW272796   9.310   4.931  14.833
23653SOL     OW72797   4.798   8.421  14.814
23653SOL    HW172798   4.846   8.496  14.847
23653SOL    HW272799   4.745   8.455  14.742
23654SOL     OW72800   3.904   9.448  11.805
23654SOL    HW172801   3.982   9.469  11.753
23654SOL    HW272802   3.832   9.491  11.758
23655SOL     OW72803   4.972   3.377   9.413
23655SOL    HW172804   4.930   3.315   9.472
23655SOL    HW272805   4.961   3.463   9.455
23656SOL     OW72806   0.567   0.699   8.207
23656SOL    HW172807   0.644   0.749   8.233
23656SOL    HW272808   0.501   0.766   8.189
23657SOL     OW72809   7.835   4.817   5.371
23657SOL    HW172810   7.811   4.899   5.413
23657SOL    HW272811   7.776   4.752   5.409
23658SOL     OW72812  14.243   9.170   9.559
23658SOL    HW172813  14.268   9.085   9.595
23658SOL    HW272814  14.175   9.201   9.619
23659SOL     OW72815  10.927   0.866   5.605
23659SOL    HW172816  11.008   0.815   5.612
23659SOL    HW272817  10.864   0.820   5.660
23660SOL     OW72818  13.530  14.196  12.485
23660SOL    HW172819  13.502  14.287  12.500
23660SOL    HW272820  13.457  14.157  12.436
23661SOL     OW72821   5.938   4.450   0.410
23661SOL    HW172822   5.999   4.402   0.354
23661SOL    HW272823   5.945   4.407   0.495
23662SOL     OW72824   9.458   8.615  13.857
23662SOL    HW172825   9.377   8.596  13.903
23662SOL    HW272826   9.473   8.708  13.871
23663SOL     OW72827   8.545   0.203  13.718
23663SOL    HW172828   8.525   0.171  13.806
23663SOL    HW272829   8.484   0.156  13.661
23664SOL     OW72830   9.448  10.826   9.695
23664SOL    HW172831   9.389  10.872   9.636
23664SOL    HW272832   9.455  10.883   9.771
23665SOL     OW72833   4.033  10.072   7.255
23665SOL    HW172834   4.024   9.983   7.221
23665SOL    HW272835   4.111  10.107   7.212
23666SOL     OW72836   1.477  10.991  12.283
23666SOL    HW172837   1.443  11.016  12.369
23666SOL    HW272838   1.556  10.941  12.303
23667SOL     OW72839  11.447   5.723   0.431
23667SOL    HW172840  11.463   5.795   0.369
23667SOL    HW272841  11.354   5.705   0.422
23668SOL     OW72842   4.415   2.161   2.470
23668SOL    HW172843   4.433   2.247   2.509
23668SOL    HW272844   4.489   2.145   2.411
23669SOL     OW72845   9.340   4.088   4.845
23669SOL    HW172846   9.363   4.058   4.757
23669SOL    HW272847   9.244   4.084   4.847
23670SOL     OW72848  12.322   7.945   3.356
23670SOL    HW172849  12.272   7.964   3.277
23670SOL    HW272850  12.264   7.974   3.427
23671SOL     OW72851   8.779   5.990   3.813
23671SOL    HW172852   8.842   6.000   3.885
23671SOL    HW272853   8.706   6.047   3.837
23672SOL     OW72854  10.118  10.792  10.407
23672SOL    HW172855  10.166  10.785  10.324
23672SOL    HW272856  10.029  10.813  10.381
23673SOL     OW72857  14.045   2.980  13.009
23673SOL    HW172858  14.062   2.900  13.058
23673SOL    HW272859  13.952   2.998  13.024
23674SOL     OW72860  10.264   6.271   1.585
23674SOL    HW172861  10.351   6.303   1.610
23674SOL    HW272862  10.249   6.307   1.498
23675SOL     OW72863   8.267  13.930  11.803
23675SOL    HW172864   8.249  14.003  11.862
23675SOL    HW272865   8.244  13.963  11.716
23676SOL     OW72866   1.954   7.553   8.919
23676SOL    HW172867   1.890   7.514   8.859
23676SOL    HW272868   2.019   7.483   8.933
23677SOL     OW72869   0.637  11.132   0.033
23677SOL    HW172870   0.609  11.216  14.879
23677SOL    HW272871   0.577  11.069  14.874
23678SOL     OW72872  13.802   4.788  14.814
23678SOL    HW172873  13.708   4.798  14.797
23678SOL    HW272874  13.810   4.701  14.852
23679SOL     OW72875   1.990  11.919   0.511
23679SOL    HW172876   1.977  11.931   0.605
23679SOL    HW272877   1.917  11.966   0.471
23680SOL     OW72878  13.774  10.018   8.890
23680SOL    HW172879  13.726  10.054   8.965
23680SOL    HW272880  13.746  10.072   8.816
23681SOL     OW72881  10.406  11.864  12.384
23681SOL    HW172882  10.500  11.863  12.401
23681SOL    HW272883  10.365  11.871  12.470
23682SOL     OW72884   7.119   9.338   2.239
23682SOL    HW172885   7.083   9.409   2.292
23682SOL    HW272886   7.111   9.368   2.149
23683SOL     OW72887  13.359  13.784  11.872
23683SOL    HW172888  13.296  13.851  11.846
23683SOL    HW272889  13.313  13.701  11.860
23684SOL     OW72890   3.961  14.495   3.602
23684SOL    HW172891   3.911  14.576   3.612
23684SOL    HW272892   4.053  14.524   3.598
23685SOL     OW72893   4.530   3.037   2.406
23685SOL    HW172894   4.468   2.982   2.453
23685SOL    HW272895   4.582   2.977   2.354
23686SOL     OW72896   6.756   5.780   4.118
23686SOL    HW172897   6.661   5.772   4.115
23686SOL    HW272898   6.782   5.724   4.192
23687SOL     OW72899  11.828   0.994  12.965
23687SOL    HW172900  11.754   1.004  12.905
23687SOL    HW272901  11.807   1.053  13.038
23688SOL     OW72902   8.783   1.146   1.771
23688SOL    HW172903   8.741   1.152   1.857
23688SOL    HW272904   8.807   1.054   1.762
23689SOL     OW72905  12.477   4.177  12.497
23689SOL    HW172906  12.554   4.164  12.553
23689SOL    HW272907  12.513   4.200  12.411
23690SOL     OW72908   2.860   4.779   9.179
23690SOL    HW172909   2.851   4.725   9.257
23690SOL    HW272910   2.839   4.868   9.208
23691SOL     OW72911   2.913  10.557   0.108
23691SOL    HW172912   2.904  10.491   0.040
23691SOL    HW272913   2.887  10.639   0.066
23692SOL     OW72914   4.832   4.268   1.037
23692SOL    HW172915   4.848   4.351   0.992
23692SOL    HW272916   4.901   4.263   1.103
23693SOL     OW72917   3.181  13.360  14.854
23693SOL    HW172918   3.211  13.293   0.034
23693SOL    HW272919   3.086  13.349  14.851
23694SOL     OW72920   2.679   1.277  10.831
23694SOL    HW172921   2.731   1.266  10.910
23694SOL    HW272922   2.629   1.358  10.846
23695SOL     OW72923   6.604  13.732   8.501
23695SOL    HW172924   6.576  13.803   8.559
23695SOL    HW272925   6.564  13.753   8.417
23696SOL     OW72926   1.475   3.235   0.458
23696SOL    HW172927   1.441   3.178   0.527
23696SOL    HW272928   1.400   3.289   0.432
23697SOL     OW72929   3.866   0.337  10.088
23697SOL    HW172930   3.924   0.261  10.080
23697SOL    HW272931   3.865   0.357  10.181
23698SOL     OW72932   2.154   7.348   6.507
23698SOL    HW172933   2.126   7.440   6.507
23698SOL    HW272934   2.113   7.311   6.585
23699SOL     OW72935  11.132   2.250   7.797
23699SOL    HW172936  11.185   2.174   7.821
23699SOL    HW272937  11.191   2.325   7.805
23700SOL     OW72938   0.175  12.060   2.641
23700SOL    HW172939   0.104  12.000   2.621
23700SOL    HW272940   0.165  12.131   2.577
23701SOL     OW72941  11.527  11.174   0.390
23701SOL    HW172942  11.476  11.184   0.310
23701SOL    HW272943  11.616  11.157   0.360
23702SOL     OW72944  11.594   9.380  10.546
23702SOL    HW172945  11.526   9.422  10.493
23702SOL    HW272946  11.573   9.287  10.544
23703SOL     OW72947   1.558   2.156   8.115
23703SOL    HW172948   1.536   2.076   8.067
23703SOL    HW272949   1.650   2.173   8.094
23704SOL     OW72950   5.866  10.443   2.371
23704SOL    HW172951   5.861  10.518   2.312
23704SOL    HW272952   5.777  10.407   2.371
23705SOL     OW72953  11.087   4.307   7.268
23705SOL    HW172954  11.016   4.309   7.204
23705SOL    HW272955  11.135   4.389   7.253
23706SOL     OW72956  14.086   2.071   7.373
23706SOL    HW172957  14.036   2.012   7.316
23706SOL    HW272958  14.123   2.136   7.313
23707SOL     OW72959  11.029   1.157   1.077
23707SOL    HW172960  11.035   1.075   1.028
23707SOL    HW272961  11.064   1.224   1.018
23708SOL     OW72962  13.792  10.541   5.973
23708SOL    HW172963  13.877  10.514   5.939
23708SOL    HW272964  13.729  10.513   5.907
23709SOL     OW72965   6.831  12.743  13.897
23709SOL    HW172966   6.865  12.751  13.808
23709SOL    HW272967   6.806  12.832  13.921
23710SOL     OW72968  11.256   8.964  14.633
23710SOL    HW172969  11.162   8.949  14.639
23710SOL    HW272970  11.283   8.917  14.555
23711SOL     OW72971   9.512   3.960   2.842
23711SOL    HW172972   9.550   4.029   2.896
23711SOL    HW272973   9.503   4.000   2.755
23712SOL     OW72974   6.162  11.153   9.242
23712SOL    HW172975   6.182  11.061   9.221
23712SOL    HW272976   6.112  11.184   9.166
23713SOL     OW72977   0.977  10.132   5.317
23713SOL    HW172978   1.066  10.149   5.284
23713SOL    HW272979   0.970  10.189   5.394
23714SOL     OW72980   8.124   2.080  10.552
23714SOL    HW172981   8.068   2.157  10.558
23714SOL    HW272982   8.067   2.011  10.519
23715SOL     OW72983  14.839  12.131   9.550
23715SOL    HW172984  14.875  12.141   9.462
23715SOL    HW272985  14.755  12.178   9.547
23716SOL     OW72986   0.758   2.606  11.355
23716SOL    HW172987   0.709   2.530  11.385
23716SOL    HW272988   0.755   2.667  11.429
23717SOL     OW72989   9.389   6.129   3.104
23717SOL    HW172990   9.399   6.121   3.010
23717SOL    HW272991   9.460   6.075   3.141
23718SOL     OW72992   3.173  14.848   3.053
23718SOL    HW172993   3.083  14.815   3.055
23718SOL    HW272994   3.165   0.054   3.015
23719SOL     OW72995   1.288  11.767  14.635
23719SOL    HW172996   1.220  11.776  14.569
23719SOL    HW272997   1.357  11.715  14.593
23720SOL     OW72998   9.644  10.417   1.771
23720SOL    HW172999   9.734  10.388   1.787
23720SOL    HW273000   9.623  10.475   1.844
23721SOL     OW73001   6.560  12.247   0.962
23721SOL    HW173002   6.607  12.268   1.043
23721SOL    HW273003   6.519  12.162   0.980
23722SOL     OW73004  11.083  10.684   1.204
23722SOL    HW173005  11.160  10.670   1.148
23722SOL    HW273006  11.040  10.761   1.166
23723SOL     OW73007   8.416   4.188   8.110
23723SOL    HW173008   8.326   4.165   8.130
23723SOL    HW273009   8.413   4.281   8.089
23724SOL     OW73010   1.829   2.911   8.029
23724SOL    HW173011   1.853   2.963   7.953
23724SOL    HW273012   1.872   2.826   8.015
23725SOL     OW73013   5.665   7.768   0.809
23725SOL    HW173014   5.626   7.688   0.773
23725SOL    HW273015   5.592   7.830   0.814
23726SOL     OW73016   3.043  12.132   4.164
23726SOL    HW173017   3.022  12.044   4.134
23726SOL    HW273018   3.080  12.119   4.252
23727SOL     OW73019   7.096   6.110   9.808
23727SOL    HW173020   7.033   6.047   9.775
23727SOL    HW273021   7.174   6.097   9.754
23728SOL     OW73022  12.261  12.954   6.987
23728SOL    HW173023  12.292  13.022   7.046
23728SOL    HW273024  12.340  12.916   6.949
23729SOL     OW73025  10.830  14.494   4.259
23729SOL    HW173026  10.769  14.501   4.333
23729SOL    HW273027  10.792  14.427   4.203
23730SOL     OW73028   0.629   8.502   3.595
23730SOL    HW173029   0.659   8.592   3.606
23730SOL    HW273030   0.578   8.484   3.673
23731SOL     OW73031   1.057   0.437  10.860
23731SOL    HW173032   0.965   0.410  10.868
23731SOL    HW273033   1.085   0.401  10.776
23732SOL     OW73034  11.473   0.729  12.138
23732SOL    HW173035  11.386   0.732  12.179
23732SOL    HW273036  11.458   0.690  12.052
23733SOL     OW73037   1.089   9.812   5.925
23733SOL    HW173038   1.114   9.801   5.833
23733SOL    HW273039   0.999   9.778   5.930
23734SOL     OW73040  11.150   8.546  13.038
23734SOL    HW173041  11.096   8.626  13.036
23734SOL    HW273042  11.213   8.562  13.107
23735SOL     OW73043   8.150   8.778  14.437
23735SOL    HW173044   8.090   8.761  14.364
23735SOL    HW273045   8.187   8.865  14.419
23736SOL     OW73046   7.929   6.170   1.299
23736SOL    HW173047   7.932   6.083   1.260
23736SOL    HW273048   7.921   6.155   1.393
23737SOL     OW73049   7.194   7.509   9.844
23737SOL    HW173050   7.122   7.520   9.906
23737SOL    HW273051   7.233   7.596   9.838
23738SOL     OW73052  11.753   4.962  10.317
23738SOL    HW173053  11.759   5.050  10.281
23738SOL    HW273054  11.774   4.972  10.410
23739SOL     OW73055  14.119  10.687   0.365
23739SOL    HW173056  14.106  10.631   0.442
23739SOL    HW273057  14.206  10.725   0.377
23740SOL     OW73058   6.628   9.449   9.024
23740SOL    HW173059   6.719   9.462   8.994
23740SOL    HW273060   6.621   9.501   9.103
23741SOL     OW73061   0.117  12.678   2.196
23741SOL    HW173062   0.044  12.730   2.162
23741SOL    HW273063   0.084  12.641   2.278
23742SOL     OW73064   9.522   7.627   1.998
23742SOL    HW173065   9.577   7.556   2.031
23742SOL    HW273066   9.443   7.624   2.051
23743SOL     OW73067   7.449  10.523   1.227
23743SOL    HW173068   7.447  10.613   1.194
23743SOL    HW273069   7.361  10.507   1.261
23744SOL     OW73070   0.420  14.321  12.399
23744SOL    HW173071   0.348  14.372  12.436
23744SOL    HW273072   0.485  14.387  12.374
23745SOL     OW73073   0.513   8.044   1.414
23745SOL    HW173074   0.466   7.999   1.484
23745SOL    HW273075   0.483   8.134   1.419
23746SOL     OW73076   3.882   3.696   6.794
23746SOL    HW173077   3.886   3.627   6.859
23746SOL    HW273078   3.913   3.774   6.839
23747SOL     OW73079  12.885   6.893  10.785
23747SOL    HW173080  12.971   6.931  10.804
23747SOL    HW273081  12.862   6.845  10.864
23748SOL     OW73082   9.124   1.365   0.549
23748SOL    HW173083   9.118   1.295   0.484
23748SOL    HW273084   9.131   1.319   0.633
23749SOL     OW73085   5.479  11.241  13.859
23749SOL    HW173086   5.423  11.283  13.793
23749SOL    HW273087   5.565  11.238  13.818
23750SOL     OW73088  13.582  14.044   2.127
23750SOL    HW173089  13.510  14.107   2.135
23750SOL    HW273090  13.553  13.984   2.058
23751SOL     OW73091   3.236   4.940   5.543
23751SOL    HW173092   3.269   4.863   5.590
23751SOL    HW273093   3.280   5.014   5.585
23752SOL     OW73094   2.465   8.137  11.345
23752SOL    HW173095   2.488   8.223  11.310
23752SOL    HW273096   2.471   8.147  11.440
23753SOL     OW73097   5.217  13.032  13.255
23753SOL    HW173098   5.127  13.024  13.224
23753SOL    HW273099   5.264  13.072  13.181
23754SOL     OW73100  12.978  14.415  14.099
23754SOL    HW173101  12.894  14.369  14.092
23754SOL    HW273102  13.038  14.363  14.045
23755SOL     OW73103  13.681   1.659  13.387
23755SOL    HW173104  13.594   1.620  13.392
23755SOL    HW273105  13.721   1.636  13.471
23756SOL     OW73106   5.051  13.495  10.029
23756SOL    HW173107   4.975  13.492   9.972
23756SOL    HW273108   5.103  13.419  10.004
23757SOL     OW73109  12.321   9.124   1.373
23757SOL    HW173110  12.399   9.176   1.354
23757SOL    HW273111  12.327   9.105   1.466
23758SOL     OW73112   2.082   8.249   2.062
23758SOL    HW173113   2.099   8.298   1.981
23758SOL    HW273114   2.154   8.273   2.120
23759SOL     OW73115   3.575   3.664  12.354
23759SOL    HW173116   3.518   3.713  12.414
23759SOL    HW273117   3.660   3.665  12.397
23760SOL     OW73118  12.236  12.191   0.972
23760SOL    HW173119  12.309  12.160   0.919
23760SOL    HW273120  12.277  12.250   1.036
23761SOL     OW73121  14.850  10.331   9.705
23761SOL    HW173122  14.824  10.420   9.730
23761SOL    HW273123   0.046  10.313   9.759
23762SOL     OW73124   1.002  13.421  14.721
23762SOL    HW173125   0.940  13.473  14.773
23762SOL    HW273126   1.083  13.472  14.722
23763SOL     OW73127   9.323   8.188  14.407
23763SOL    HW173128   9.274   8.265  14.435
23763SOL    HW273129   9.393   8.179  14.472
23764SOL     OW73130  13.753  11.294   2.015
23764SOL    HW173131  13.839  11.336   2.027
23764SOL    HW273132  13.690  11.365   2.029
23765SOL     OW73133   7.593   1.572  12.505
23765SOL    HW173134   7.652   1.624  12.450
23765SOL    HW273135   7.526   1.633  12.533
23766SOL     OW73136   3.094   3.952   7.200
23766SOL    HW173137   3.144   4.032   7.183
23766SOL    HW273138   3.106   3.899   7.121
23767SOL     OW73139   9.487   7.017  12.120
23767SOL    HW173140   9.499   6.975  12.206
23767SOL    HW273141   9.396   6.998  12.098
23768SOL     OW73142   6.381   4.490   9.952
23768SOL    HW173143   6.376   4.421  10.019
23768SOL    HW273144   6.474   4.510   9.945
23769SOL     OW73145   6.749   7.408  13.695
23769SOL    HW173146   6.838   7.415  13.660
23769SOL    HW273147   6.717   7.324  13.665
23770SOL     OW73148   6.185  14.523  13.837
23770SOL    HW173149   6.265  14.482  13.870
23770SOL    HW273150   6.131  14.537  13.915
23771SOL     OW73151   4.325  11.485  12.770
23771SOL    HW173152   4.265  11.445  12.833
23771SOL    HW273153   4.411  11.448  12.791
23772SOL     OW73154   8.518  13.243   1.704
23772SOL    HW173155   8.589  13.206   1.757
23772SOL    HW273156   8.563  13.287   1.631
23773SOL     OW73157   9.669   5.056  11.793
23773SOL    HW173158   9.679   4.975  11.743
23773SOL    HW273159   9.696   5.033  11.882
23774SOL     OW73160   5.532   4.387   7.198
23774SOL    HW173161   5.465   4.376   7.131
23774SOL    HW273162   5.549   4.481   7.199
23775SOL     OW73163   7.719   3.998  13.274
23775SOL    HW173164   7.633   3.957  13.280
23775SOL    HW273165   7.780   3.925  13.270
23776SOL     OW73166  11.337   1.892   7.558
23776SOL    HW173167  11.281   1.829   7.602
23776SOL    HW273168  11.337   1.968   7.616
23777SOL     OW73169   2.203  12.764   4.586
23777SOL    HW173170   2.260  12.700   4.544
23777SOL    HW273171   2.243  12.780   4.671
23778SOL     OW73172   2.103   5.219  11.433
23778SOL    HW173173   2.033   5.167  11.393
23778SOL    HW273174   2.145   5.159  11.495
23779SOL     OW73175   7.343   1.988   9.496
23779SOL    HW173176   7.267   1.995   9.438
23779SOL    HW273177   7.320   2.040   9.573
23780SOL     OW73178   8.348   9.868  11.905
23780SOL    HW173179   8.344   9.906  11.817
23780SOL    HW273180   8.429   9.817  11.905
23781SOL     OW73181   9.718  11.188   5.766
23781SOL    HW173182   9.629  11.216   5.786
23781SOL    HW273183   9.725  11.196   5.671
23782SOL     OW73184  13.150   0.895   6.119
23782SOL    HW173185  13.161   0.803   6.145
23782SOL    HW273186  13.194   0.901   6.034
23783SOL     OW73187   5.547  10.827  12.240
23783SOL    HW173188   5.556  10.761  12.309
23783SOL    HW273189   5.554  10.777  12.159
23784SOL     OW73190   7.576   7.460  14.157
23784SOL    HW173191   7.566   7.551  14.128
23784SOL    HW273192   7.590   7.411  14.076
23785SOL     OW73193  13.585  12.396   5.424
23785SOL    HW173194  13.502  12.439   5.403
23785SOL    HW273195  13.572  12.304   5.399
23786SOL     OW73196   2.199  11.270  13.427
23786SOL    HW173197   2.176  11.193  13.375
23786SOL    HW273198   2.251  11.235  13.499
23787SOL     OW73199   3.879   6.721   5.013
23787SOL    HW173200   3.875   6.816   5.024
23787SOL    HW273201   3.893   6.709   4.919
23788SOL     OW73202  10.090   1.173  14.589
23788SOL    HW173203  10.034   1.126  14.527
23788SOL    HW273204  10.029   1.222  14.644
23789SOL     OW73205   6.802   4.744   2.312
23789SOL    HW173206   6.849   4.812   2.361
23789SOL    HW273207   6.831   4.756   2.221
23790SOL     OW73208  14.082   9.316   3.779
23790SOL    HW173209  14.132   9.236   3.765
23790SOL    HW273210  14.044   9.335   3.693
23791SOL     OW73211  10.462   8.044   3.484
23791SOL    HW173212  10.519   8.068   3.411
23791SOL    HW273213  10.521   8.032   3.558
23792SOL     OW73214   6.681   3.290   4.560
23792SOL    HW173215   6.647   3.380   4.558
23792SOL    HW273216   6.616   3.241   4.610
23793SOL     OW73217   3.720   4.099  13.723
23793SOL    HW173218   3.687   4.034  13.786
23793SOL    HW273219   3.695   4.065  13.638
23794SOL     OW73220  10.575  13.575  10.606
23794SOL    HW173221  10.607  13.640  10.544
23794SOL    HW273222  10.503  13.619  10.652
23795SOL     OW73223   2.109  13.947   8.483
23795SOL    HW173224   2.184  13.995   8.448
23795SOL    HW273225   2.146  13.865   8.515
23796SOL     OW73226   3.193   8.333   5.253
23796SOL    HW173227   3.285   8.317   5.270
23796SOL    HW273228   3.174   8.414   5.301
23797SOL     OW73229   2.172   7.058   2.822
23797SOL    HW173230   2.077   7.069   2.828
23797SOL    HW273231   2.189   6.973   2.862
23798SOL     OW73232   2.434   3.781  12.364
23798SOL    HW173233   2.455   3.690  12.342
23798SOL    HW273234   2.465   3.792  12.454
23799SOL     OW73235   5.138   7.333   2.978
23799SOL    HW173236   5.202   7.298   3.039
23799SOL    HW273237   5.143   7.428   2.989
23800SOL     OW73238  10.784   8.948   9.492
23800SOL    HW173239  10.715   8.960   9.558
23800SOL    HW273240  10.798   9.035   9.456
23801SOL     OW73241  12.127   2.366  14.762
23801SOL    HW173242  12.160   2.364  14.852
23801SOL    HW273243  12.089   2.279  14.748
23802SOL     OW73244   4.926   3.189  10.373
23802SOL    HW173245   4.895   3.125  10.308
23802SOL    HW273246   4.903   3.150  10.457
23803SOL     OW73247   4.056  13.474   7.088
23803SOL    HW173248   4.010  13.548   7.050
23803SOL    HW273249   4.067  13.413   7.015
23804SOL     OW73250   7.406  11.420   8.815
23804SOL    HW173251   7.389  11.456   8.729
23804SOL    HW273252   7.327  11.371   8.837
23805SOL     OW73253   0.772  11.060  12.084
23805SOL    HW173254   0.760  11.026  11.996
23805SOL    HW273255   0.827  10.995  12.128
23806SOL     OW73256  10.539   6.423   8.145
23806SOL    HW173257  10.577   6.500   8.187
23806SOL    HW273258  10.460   6.457   8.102
23807SOL     OW73259   7.395   9.697  13.584
23807SOL    HW173260   7.317   9.653  13.619
23807SOL    HW273261   7.433   9.633  13.524
23808SOL     OW73262   7.932  13.639   5.949
23808SOL    HW173263   7.866  13.640   6.019
23808SOL    HW273264   7.950  13.731   5.931
23809SOL     OW73265   1.000   9.680  12.310
23809SOL    HW173266   1.002   9.616  12.239
23809SOL    HW273267   0.908   9.682  12.338
23810SOL     OW73268   4.823   6.136   7.302
23810SOL    HW173269   4.890   6.073   7.274
23810SOL    HW273270   4.829   6.137   7.397
23811SOL     OW73271   7.430   5.047   2.591
23811SOL    HW173272   7.345   5.087   2.571
23811SOL    HW273273   7.447   5.071   2.682
23812SOL     OW73274   8.551  11.391  13.152
23812SOL    HW173275   8.542  11.394  13.057
23812SOL    HW273276   8.551  11.483  13.179
23813SOL     OW73277  12.708  12.149  10.098
23813SOL    HW173278  12.794  12.151  10.140
23813SOL    HW273279  12.655  12.210  10.149
23814SOL     OW73280   1.877   6.043   4.321
23814SOL    HW173281   1.784   6.023   4.317
23814SOL    HW273282   1.902   6.056   4.229
23815SOL     OW73283  11.455   0.262   4.593
23815SOL    HW173284  11.551   0.260   4.590
23815SOL    HW273285  11.433   0.355   4.595
23816SOL     OW73286  10.998   0.216  14.247
23816SOL    HW173287  11.044   0.296  14.272
23816SOL    HW273288  10.944   0.242  14.172
23817SOL     OW73289  13.563   1.332  12.982
23817SOL    HW173290  13.658   1.341  12.993
23817SOL    HW273291  13.529   1.420  13.001
23818SOL     OW73292   0.409  11.904   0.640
23818SOL    HW173293   0.399  11.839   0.710
23818SOL    HW273294   0.429  11.986   0.685
23819SOL     OW73295  10.867  11.563   6.664
23819SOL    HW173296  10.780  11.600   6.675
23819SOL    HW273297  10.856  11.469   6.679
23820SOL     OW73298   6.347  12.638  10.141
23820SOL    HW173299   6.403  12.710  10.170
23820SOL    HW273300   6.282  12.628  10.211
23821SOL     OW73301   1.634  11.228  14.409
23821SOL    HW173302   1.538  11.222  14.417
23821SOL    HW273303   1.662  11.269  14.490
23822SOL     OW73304   9.687   9.125   3.528
23822SOL    HW173305   9.716   9.119   3.437
23822SOL    HW273306   9.592   9.137   3.523
23823SOL     OW73307   7.851   9.546   0.218
23823SOL    HW173308   7.941   9.570   0.195
23823SOL    HW273309   7.852   9.534   0.313
23824SOL     OW73310   6.037   1.064   7.526
23824SOL    HW173311   6.010   1.000   7.460
23824SOL    HW273312   6.063   1.141   7.476
23825SOL     OW73313  10.744   7.294   4.616
23825SOL    HW173314  10.667   7.339   4.581
23825SOL    HW273315  10.728   7.201   4.597
23826SOL     OW73316   4.625  12.522   0.982
23826SOL    HW173317   4.613  12.432   0.952
23826SOL    HW273318   4.561  12.573   0.933
23827SOL     OW73319   8.459   7.107   4.418
23827SOL    HW173320   8.455   7.042   4.488
23827SOL    HW273321   8.552   7.123   4.406
23828SOL     OW73322   6.597   5.167   0.437
23828SOL    HW173323   6.691   5.175   0.421
23828SOL    HW273324   6.587   5.188   0.530
23829SOL     OW73325   6.164   9.364   7.162
23829SOL    HW173326   6.167   9.459   7.147
23829SOL    HW273327   6.090   9.352   7.222
23830SOL     OW73328   4.347   6.450   4.310
23830SOL    HW173329   4.443   6.452   4.314
23830SOL    HW273330   4.327   6.357   4.301
23831SOL     OW73331   1.604  10.447   4.756
23831SOL    HW173332   1.557  10.410   4.681
23831SOL    HW273333   1.535  10.481   4.813
23832SOL     OW73334   1.944   2.198   8.231
23832SOL    HW173335   1.998   2.273   8.205
23832SOL    HW273336   1.882   2.187   8.159
23833SOL     OW73337   4.593   4.499  13.603
23833SOL    HW173338   4.533   4.442  13.555
23833SOL    HW273339   4.541   4.576  13.625
23834SOL     OW73340  10.898  13.021  14.124
23834SOL    HW173341  10.990  13.001  14.140
23834SOL    HW273342  10.855  12.936  14.128
23835SOL     OW73343   1.883  13.820   7.865
23835SOL    HW173344   1.869  13.817   7.771
23835SOL    HW273345   1.975  13.844   7.875
23836SOL     OW73346   4.979   2.807   2.449
23836SOL    HW173347   5.046   2.781   2.386
23836SOL    HW273348   4.928   2.875   2.404
23837SOL     OW73349   9.890   5.380   8.999
23837SOL    HW173350   9.863   5.419   8.916
23837SOL    HW273351   9.981   5.355   8.985
23838SOL     OW73352   5.948   9.541   5.456
23838SOL    HW173353   5.956   9.603   5.528
23838SOL    HW273354   5.996   9.581   5.384
23839SOL     OW73355   1.918  14.624   7.788
23839SOL    HW173356   1.877  14.668   7.713
23839SOL    HW273357   1.919  14.531   7.764
23840SOL     OW73358   3.049  12.494   3.971
23840SOL    HW173359   3.127  12.443   3.992
23840SOL    HW273360   3.018  12.458   3.888
23841SOL     OW73361   9.553   2.893  11.652
23841SOL    HW173362   9.489   2.875  11.583
23841SOL    HW273363   9.582   2.983  11.634
23842SOL     OW73364   1.771   1.419   9.443
23842SOL    HW173365   1.827   1.496   9.439
23842SOL    HW273366   1.823   1.354   9.492
23843SOL     OW73367  10.674   3.398   6.184
23843SOL    HW173368  10.716   3.352   6.256
23843SOL    HW273369  10.618   3.332   6.143
23844SOL     OW73370  10.926   5.229   9.481
23844SOL    HW173371  11.019   5.207   9.486
23844SOL    HW273372  10.900   5.203   9.393
23845SOL     OW73373  13.848   9.738   9.092
23845SOL    HW173374  13.881   9.822   9.125
23845SOL    HW273375  13.867   9.741   8.998
23846SOL     OW73376   5.313   3.897  11.225
23846SOL    HW173377   5.395   3.854  11.200
23846SOL    HW273378   5.271   3.836  11.286
23847SOL     OW73379   5.952  12.747   7.252
23847SOL    HW173380   6.023  12.683   7.261
23847SOL    HW273381   5.996  12.832   7.254
23848SOL     OW73382   0.818   2.229   1.504
23848SOL    HW173383   0.846   2.144   1.538
23848SOL    HW273384   0.783   2.210   1.417
23849SOL     OW73385  13.373   7.940  14.485
23849SOL    HW173386  13.421   7.884  14.546
23849SOL    HW273387  13.363   8.023  14.531
23850SOL     OW73388  13.213  13.076   4.042
23850SOL    HW173389  13.148  13.018   4.081
23850SOL    HW273390  13.235  13.138   4.112
23851SOL     OW73391   9.240   7.739   0.858
23851SOL    HW173392   9.155   7.755   0.815
23851SOL    HW273393   9.304   7.745   0.787
23852SOL     OW73394   0.572   8.091   3.279
23852SOL    HW173395   0.548   8.098   3.372
23852SOL    HW273396   0.496   8.125   3.232
23853SOL     OW73397  14.227   2.240   7.187
23853SOL    HW173398  14.226   2.316   7.128
23853SOL    HW273399  14.291   2.264   7.254
23854SOL     OW73400   2.190  12.503  10.249
23854SOL    HW173401   2.207  12.536  10.337
23854SOL    HW273402   2.262  12.443  10.231
23855SOL     OW73403   9.214   2.625  14.284
23855SOL    HW173404   9.223   2.701  14.227
23855SOL    HW273405   9.303   2.592  14.294
23856SOL     OW73406  11.383   4.334   5.691
23856SOL    HW173407  11.308   4.375   5.647
23856SOL    HW273408  11.411   4.399   5.756
23857SOL     OW73409  10.002   7.475   0.404
23857SOL    HW173410  10.031   7.565   0.388
23857SOL    HW273411   9.989   7.472   0.499
23858SOL     OW73412   4.068  12.282  14.588
23858SOL    HW173413   4.079  12.258  14.680
23858SOL    HW273414   4.054  12.198  14.544
23859SOL     OW73415  14.408  10.297  10.621
23859SOL    HW173416  14.334  10.340  10.666
23859SOL    HW273417  14.485  10.329  10.667
23860SOL     OW73418  12.856  12.505  12.728
23860SOL    HW173419  12.926  12.466  12.781
23860SOL    HW273420  12.826  12.434  12.672
23861SOL     OW73421   3.657   4.470  13.963
23861SOL    HW173422   3.693   4.481  14.051
23861SOL    HW273423   3.683   4.382  13.937
23862SOL     OW73424  13.159   8.473   5.151
23862SOL    HW173425  13.213   8.551   5.137
23862SOL    HW273426  13.075   8.507   5.182
23863SOL     OW73427  12.656   6.733   7.980
23863SOL    HW173428  12.606   6.808   8.011
23863SOL    HW273429  12.591   6.676   7.938
23864SOL     OW73430  13.342   3.428   4.791
23864SOL    HW173431  13.367   3.423   4.699
23864SOL    HW273432  13.380   3.349   4.830
23865SOL     OW73433   0.107   9.902   9.756
23865SOL    HW173434   0.084   9.909   9.664
23865SOL    HW273435   0.044   9.841   9.793
23866SOL     OW73436   9.482   4.301   0.172
23866SOL    HW173437   9.546   4.348   0.226
23866SOL    HW273438   9.507   4.322   0.082
23867SOL     OW73439   5.491   4.337   9.359
23867SOL    HW173440   5.511   4.247   9.332
23867SOL    HW273441   5.437   4.372   9.288
23868SOL     OW73442   6.390   2.893   3.428
23868SOL    HW173443   6.408   2.819   3.370
23868SOL    HW273444   6.352   2.960   3.370
23869SOL     OW73445  13.224  10.759   7.012
23869SOL    HW173446  13.133  10.732   7.002
23869SOL    HW273447  13.230  10.789   7.103
23870SOL     OW73448  11.511   0.201   8.037
23870SOL    HW173449  11.584   0.201   8.100
23870SOL    HW273450  11.452   0.269   8.068
23871SOL     OW73451  10.100  13.175   5.511
23871SOL    HW173452  10.020  13.148   5.557
23871SOL    HW273453  10.154  13.215   5.578
23872SOL     OW73454  13.565   7.284  14.711
23872SOL    HW173455  13.652   7.316  14.687
23872SOL    HW273456  13.505   7.347  14.671
23873SOL     OW73457  13.413   4.662   8.116
23873SOL    HW173458  13.509   4.659   8.119
23873SOL    HW273459  13.391   4.750   8.146
23874SOL     OW73460  11.881   1.695   0.927
23874SOL    HW173461  11.869   1.616   0.875
23874SOL    HW273462  11.829   1.761   0.881
23875SOL     OW73463   6.850   8.786  11.198
23875SOL    HW173464   6.765   8.751  11.225
23875SOL    HW273465   6.830   8.842  11.123
23876SOL     OW73466   4.424  10.690   3.777
23876SOL    HW173467   4.488  10.758   3.758
23876SOL    HW273468   4.348  10.713   3.722
23877SOL     OW73469   8.268  10.714   3.922
23877SOL    HW173470   8.289  10.784   3.860
23877SOL    HW273471   8.337  10.718   3.988
23878SOL     OW73472   4.374   3.562   8.192
23878SOL    HW173473   4.386   3.505   8.268
23878SOL    HW273474   4.285   3.543   8.162
23879SOL     OW73475   8.600   8.251   4.091
23879SOL    HW173476   8.686   8.218   4.066
23879SOL    HW273477   8.548   8.247   4.011
23880SOL     OW73478  14.819   1.440  10.771
23880SOL    HW173479  14.735   1.474  10.740
23880SOL    HW273480  14.803   1.346  10.784
23881SOL     OW73481   6.330  11.828   8.141
23881SOL    HW173482   6.380  11.854   8.218
23881SOL    HW273483   6.308  11.910   8.097
23882SOL     OW73484   9.723   0.712   0.512
23882SOL    HW173485   9.689   0.640   0.565
23882SOL    HW273486   9.818   0.699   0.512
23883SOL     OW73487   4.493  12.374   2.531
23883SOL    HW173488   4.410  12.403   2.568
23883SOL    HW273489   4.559  12.401   2.595
23884SOL     OW73490   7.182   9.615  13.153
23884SOL    HW173491   7.151   9.545  13.096
23884SOL    HW273492   7.183   9.576  13.241
23885SOL     OW73493   3.746   9.267   3.157
23885SOL    HW173494   3.832   9.303   3.133
23885SOL    HW273495   3.692   9.280   3.079
23886SOL     OW73496  13.421   8.871   1.022
23886SOL    HW173497  13.379   8.790   1.050
23886SOL    HW273498  13.350   8.936   1.019
23887SOL     OW73499   8.390  13.116   4.514
23887SOL    HW173500   8.467  13.068   4.543
23887SOL    HW273501   8.403  13.205   4.548
23888SOL     OW73502  12.976   1.666   1.484
23888SOL    HW173503  12.996   1.610   1.409
23888SOL    HW273504  13.033   1.742   1.474
23889SOL     OW73505   2.555  12.935   8.084
23889SOL    HW173506   2.572  13.008   8.143
23889SOL    HW273507   2.552  12.975   7.997
23890SOL     OW73508  14.103   3.379  11.187
23890SOL    HW173509  14.130   3.352  11.100
23890SOL    HW273510  14.041   3.451  11.173
23891SOL     OW73511  12.442   8.291  10.987
23891SOL    HW173512  12.424   8.377  10.947
23891SOL    HW273513  12.358   8.264  11.023
23892SOL     OW73514  12.924   9.485  14.646
23892SOL    HW173515  12.894   9.482  14.555
23892SOL    HW273516  12.968   9.570  14.653
23893SOL     OW73517   0.530   1.275  10.415
23893SOL    HW173518   0.561   1.344  10.356
23893SOL    HW273519   0.559   1.194  10.373
23894SOL     OW73520   5.305   8.398   5.773
23894SOL    HW173521   5.381   8.456   5.779
23894SOL    HW273522   5.231   8.454   5.796
23895SOL     OW73523   1.662  12.871   7.081
23895SOL    HW173524   1.635  12.885   7.171
23895SOL    HW273525   1.735  12.932   7.068
23896SOL     OW73526   4.877  10.696   5.914
23896SOL    HW173527   4.803  10.746   5.880
23896SOL    HW273528   4.907  10.745   5.990
23897SOL     OW73529   4.704   2.801  13.529
23897SOL    HW173530   4.720   2.792  13.435
23897SOL    HW273531   4.749   2.726  13.568
23898SOL     OW73532  13.902   1.417   2.036
23898SOL    HW173533  13.959   1.393   2.109
23898SOL    HW273534  13.942   1.495   1.998
23899SOL     OW73535  14.707  11.143  14.683
23899SOL    HW173536  14.686  11.194  14.605
23899SOL    HW273537  14.626  11.143  14.734
23900SOL     OW73538   0.062  13.223  10.818
23900SOL    HW173539   0.135  13.183  10.771
23900SOL    HW273540  14.874  13.231  10.752
23901SOL     OW73541   8.674   7.171  10.955
23901SOL    HW173542   8.644   7.254  10.990
23901SOL    HW273543   8.732   7.135  11.022
23902SOL     OW73544  10.588  11.170   2.657
23902SOL    HW173545  10.624  11.220   2.731
23902SOL    HW273546  10.515  11.224   2.626
23903SOL     OW73547  12.570   8.447  12.425
23903SOL    HW173548  12.506   8.517  12.413
23903SOL    HW273549  12.590   8.448  12.519
23904SOL     OW73550  14.032   2.524  12.673
23904SOL    HW173551  14.117   2.568  12.675
23904SOL    HW273552  13.976   2.578  12.729
23905SOL     OW73553  14.451   6.527   7.637
23905SOL    HW173554  14.453   6.480   7.553
23905SOL    HW273555  14.491   6.466   7.699
23906SOL     OW73556   4.055   4.861  10.605
23906SOL    HW173557   4.045   4.802  10.530
23906SOL    HW273558   4.046   4.804  10.682
23907SOL     OW73559  12.981   2.352   8.968
23907SOL    HW173560  12.951   2.296   9.040
23907SOL    HW273561  13.075   2.361   8.981
23908SOL     OW73562  14.777   2.211   3.016
23908SOL    HW173563  14.777   2.124   3.054
23908SOL    HW273564  14.700   2.213   2.959
23909SOL     OW73565   2.592  14.393   0.518
23909SOL    HW173566   2.642  14.356   0.591
23909SOL    HW273567   2.613  14.337   0.444
23910SOL     OW73568   8.765   5.274   3.772
23910SOL    HW173569   8.824   5.350   3.765
23910SOL    HW273570   8.817   5.201   3.739
23911SOL     OW73571  12.553   0.365   0.773
23911SOL    HW173572  12.603   0.446   0.779
23911SOL    HW273573  12.587   0.310   0.844
23912SOL     OW73574  11.306   8.110  10.140
23912SOL    HW173575  11.372   8.124  10.208
23912SOL    HW273576  11.243   8.050  10.181
23913SOL     OW73577   4.235   2.767   3.978
23913SOL    HW173578   4.281   2.687   3.955
23913SOL    HW273579   4.251   2.827   3.906
23914SOL     OW73580   8.410   4.274   5.700
23914SOL    HW173581   8.343   4.237   5.759
23914SOL    HW273582   8.390   4.235   5.615
23915SOL     OW73583   9.131   9.222   3.190
23915SOL    HW173584   9.142   9.269   3.272
23915SOL    HW273585   9.185   9.144   3.199
23916SOL     OW73586   7.315   8.178   9.395
23916SOL    HW173587   7.222   8.200   9.402
23916SOL    HW273588   7.361   8.261   9.406
23917SOL     OW73589   3.696  11.326   7.172
23917SOL    HW173590   3.620  11.384   7.174
23917SOL    HW273591   3.759  11.366   7.232
23918SOL     OW73592  13.929   9.175   8.731
23918SOL    HW173593  13.858   9.194   8.670
23918SOL    HW273594  13.974   9.259   8.743
23919SOL     OW73595   2.398   0.308   7.859
23919SOL    HW173596   2.365   0.343   7.942
23919SOL    HW273597   2.432   0.385   7.813
23920SOL     OW73598   2.233   5.762   4.951
23920SOL    HW173599   2.262   5.815   5.025
23920SOL    HW273600   2.181   5.693   4.991
23921SOL     OW73601  10.862   5.501  13.415
23921SOL    HW173602  10.790   5.438  13.418
23921SOL    HW273603  10.931   5.457  13.365
23922SOL     OW73604   4.480   2.093   1.970
23922SOL    HW173605   4.553   2.152   1.988
23922SOL    HW273606   4.453   2.116   1.881
23923SOL     OW73607   9.935  11.729   6.271
23923SOL    HW173608   9.870  11.659   6.266
23923SOL    HW273609   9.937  11.754   6.363
23924SOL     OW73610   2.667   0.104   2.271
23924SOL    HW173611   2.715   0.162   2.330
23924SOL    HW273612   2.716   0.021   2.274
23925SOL     OW73613   4.034   0.129   0.385
23925SOL    HW173614   4.097   0.193   0.352
23925SOL    HW273615   3.988   0.175   0.455
23926SOL     OW73616  11.188   3.068   6.660
23926SOL    HW173617  11.243   3.095   6.733
23926SOL    HW273618  11.248   3.030   6.596
23927SOL     OW73619   5.323   0.675  10.704
23927SOL    HW173620   5.321   0.708  10.614
23927SOL    HW273621   5.235   0.643  10.720
23928SOL     OW73622   2.505  11.753   8.937
23928SOL    HW173623   2.515  11.702   9.018
23928SOL    HW273624   2.559  11.707   8.873
23929SOL     OW73625   4.972   1.069  12.547
23929SOL    HW173626   4.915   1.066  12.624
23929SOL    HW273627   4.919   1.033  12.477
23930SOL     OW73628   8.476  14.669   4.752
23930SOL    HW173629   8.391  14.692   4.716
23930SOL    HW273630   8.509  14.601   4.693
23931SOL     OW73631   5.313  11.032   3.132
23931SOL    HW173632   5.260  10.992   3.063
23931SOL    HW273633   5.314  10.967   3.202
23932SOL     OW73634   0.316   9.513   0.466
23932SOL    HW173635   0.398   9.465   0.460
23932SOL    HW273636   0.318   9.556   0.551
23933SOL     OW73637  10.782   0.382   2.776
23933SOL    HW173638  10.721   0.423   2.715
23933SOL    HW273639  10.757   0.290   2.776
23934SOL     OW73640   0.755   6.705   6.517
23934SOL    HW173641   0.847   6.687   6.540
23934SOL    HW273642   0.719   6.748   6.594
23935SOL     OW73643   8.029   6.240  10.304
23935SOL    HW173644   8.115   6.248  10.344
23935SOL    HW273645   8.042   6.180  10.231
23936SOL     OW73646   3.224   3.575   2.640
23936SOL    HW173647   3.286   3.570   2.567
23936SOL    HW273648   3.257   3.647   2.694
23937SOL     OW73649   6.024   9.271   1.879
23937SOL    HW173650   5.940   9.314   1.864
23937SOL    HW273651   6.053   9.244   1.792
23938SOL     OW73652   5.257  10.245   1.993
23938SOL    HW173653   5.267  10.240   2.088
23938SOL    HW273654   5.192  10.315   1.981
23939SOL     OW73655   4.443   2.967  12.344
23939SOL    HW173656   4.494   2.897  12.303
23939SOL    HW273657   4.430   3.031  12.274
23940SOL     OW73658   5.975   6.956   5.298
23940SOL    HW173659   6.007   6.900   5.228
23940SOL    HW273660   5.915   6.901   5.348
23941SOL     OW73661   2.981  13.722   2.117
23941SOL    HW173662   3.032  13.803   2.119
23941SOL    HW273663   3.008  13.679   2.036
23942SOL     OW73664   0.787  10.027  10.272
23942SOL    HW173665   0.876  10.059  10.290
23942SOL    HW273666   0.800   9.950  10.217
23943SOL     OW73667   0.275  12.384  10.141
23943SOL    HW173668   0.189  12.372  10.102
23943SOL    HW273669   0.321  12.302  10.125
23944SOL     OW73670   8.827   1.552   6.633
23944SOL    HW173671   8.867   1.621   6.581
23944SOL    HW273672   8.868   1.560   6.719
23945SOL     OW73673   1.602  10.135   9.123
23945SOL    HW173674   1.679  10.181   9.089
23945SOL    HW273675   1.595  10.163   9.214
23946SOL     OW73676   8.268   6.677   4.690
23946SOL    HW173677   8.355   6.709   4.713
23946SOL    HW273678   8.239   6.735   4.620
23947SOL     OW73679  10.661  12.157  14.708
23947SOL    HW173680  10.591  12.092  14.716
23947SOL    HW273681  10.618  12.234  14.672
23948SOL     OW73682   7.264   6.381   6.744
23948SOL    HW173683   7.207   6.307   6.724
23948SOL    HW273684   7.353   6.344   6.742
23949SOL     OW73685   9.269   7.049  12.900
23949SOL    HW173686   9.300   7.000  12.825
23949SOL    HW273687   9.295   6.997  12.976
23950SOL     OW73688  10.445   0.444   5.128
23950SOL    HW173689  10.449   0.519   5.068
23950SOL    HW273690  10.534   0.408   5.126
23951SOL     OW73691   5.601   9.212   4.133
23951SOL    HW173692   5.564   9.259   4.058
23951SOL    HW273693   5.553   9.247   4.208
23952SOL     OW73694   1.235  13.326   3.892
23952SOL    HW173695   1.275  13.408   3.920
23952SOL    HW273696   1.264  13.261   3.956
23953SOL     OW73697   7.171   0.624   0.463
23953SOL    HW173698   7.193   0.531   0.460
23953SOL    HW273699   7.122   0.634   0.545
23954SOL     OW73700  10.917   2.098  10.857
23954SOL    HW173701  10.945   2.006  10.855
23954SOL    HW273702  10.872   2.108  10.940
23955SOL     OW73703   4.684   0.802  11.166
23955SOL    HW173704   4.625   0.772  11.235
23955SOL    HW273705   4.750   0.733  11.158
23956SOL     OW73706   8.290   0.491  12.447
23956SOL    HW173707   8.248   0.477  12.362
23956SOL    HW273708   8.370   0.439  12.443
23957SOL     OW73709   1.401   1.298   2.836
23957SOL    HW173710   1.475   1.356   2.851
23957SOL    HW273711   1.391   1.295   2.741
23958SOL     OW73712   8.979   1.653  13.850
23958SOL    HW173713   8.922   1.697  13.913
23958SOL    HW273714   9.032   1.723  13.812
23959SOL     OW73715   4.929   8.121   5.919
23959SOL    HW173716   4.962   8.097   6.005
23959SOL    HW273717   4.900   8.039   5.880
23960SOL     OW73718  13.664   5.779   0.650
23960SOL    HW173719  13.584   5.770   0.701
23960SOL    HW273720  13.701   5.690   0.649
23961SOL     OW73721   6.098  13.469   6.752
23961SOL    HW173722   6.102  13.529   6.826
23961SOL    HW273723   6.174  13.491   6.699
23962SOL     OW73724   5.867   8.301   4.192
23962SOL    HW173725   5.792   8.332   4.142
23962SOL    HW273726   5.832   8.230   4.246
23963SOL     OW73727  12.954  11.821  11.485
23963SOL    HW173728  12.976  11.732  11.456
23963SOL    HW273729  12.917  11.862  11.407
23964SOL     OW73730   1.284   0.359  13.167
23964SOL    HW173731   1.331   0.441  13.180
23964SOL    HW273732   1.227   0.352  13.244
23965SOL     OW73733   4.460   1.421   7.551
23965SOL    HW173734   4.480   1.515   7.550
23965SOL    HW273735   4.531   1.382   7.602
23966SOL     OW73736   3.095   0.364  14.208
23966SOL    HW173737   3.184   0.381  14.177
23966SOL    HW273738   3.104   0.290  14.268
23967SOL     OW73739   1.233   0.581   3.366
23967SOL    HW173740   1.303   0.633   3.325
23967SOL    HW273741   1.232   0.499   3.316
23968SOL     OW73742  11.874   1.964   1.862
23968SOL    HW173743  11.930   1.973   1.939
23968SOL    HW273744  11.928   1.916   1.799
23969SOL     OW73745  14.196  12.513   0.005
23969SOL    HW173746  14.222  12.547   0.091
23969SOL    HW273747  14.241  12.570  14.824
23970SOL     OW73748  14.873  11.875   8.202
23970SOL    HW173749  14.881  11.792   8.154
23970SOL    HW273750   0.074  11.884   8.248
23971SOL     OW73751  14.375   5.845   1.507
23971SOL    HW173752  14.430   5.777   1.546
23971SOL    HW273753  14.436   5.898   1.456
23972SOL     OW73754   4.446  14.264   3.925
23972SOL    HW173755   4.399  14.306   3.997
23972SOL    HW273756   4.426  14.319   3.849
23973SOL     OW73757   2.552  14.817  13.022
23973SOL    HW173758   2.521  14.811  13.113
23973SOL    HW273759   2.632  14.870  13.028
23974SOL     OW73760   9.943   2.670  14.794
23974SOL    HW173761   9.889   2.602  14.834
23974SOL    HW273762   9.897   2.693  14.714
23975SOL     OW73763  12.134   3.694   1.568
23975SOL    HW173764  12.145   3.781   1.530
23975SOL    HW273765  12.083   3.645   1.502
23976SOL     OW73766   0.511   8.074  13.487
23976SOL    HW173767   0.549   7.994  13.524
23976SOL    HW273768   0.583   8.138  13.489
23977SOL     OW73769   2.756   4.764   8.926
23977SOL    HW173770   2.675   4.715   8.945
23977SOL    HW273771   2.800   4.770   9.011
23978SOL     OW73772   3.046  14.552   7.278
23978SOL    HW173773   2.987  14.531   7.205
23978SOL    HW273774   3.102  14.622   7.245
23979SOL     OW73775  11.912  14.590  10.165
23979SOL    HW173776  11.819  14.570  10.155
23979SOL    HW273777  11.927  14.588  10.259
23980SOL     OW73778   2.157   0.793   9.281
23980SOL    HW173779   2.095   0.773   9.350
23980SOL    HW273780   2.203   0.710   9.265
23981SOL     OW73781   4.400  12.702  11.350
23981SOL    HW173782   4.372  12.617  11.316
23981SOL    HW273783   4.377  12.699  11.443
23982SOL     OW73784   7.130  11.205   4.747
23982SOL    HW173785   7.055  11.164   4.705
23982SOL    HW273786   7.151  11.148   4.821
23983SOL     OW73787   1.710   7.377   1.750
23983SOL    HW173788   1.664   7.294   1.761
23983SOL    HW273789   1.779   7.358   1.686
23984SOL     OW73790   1.612   4.170  10.299
23984SOL    HW173791   1.628   4.148  10.208
23984SOL    HW273792   1.533   4.122  10.323
23985SOL     OW73793   0.533  11.156   6.863
23985SOL    HW173794   0.612  11.102   6.867
23985SOL    HW273795   0.561  11.241   6.896
23986SOL     OW73796   7.971  11.039   2.202
23986SOL    HW173797   7.953  10.948   2.224
23986SOL    HW273798   8.066  11.042   2.188
23987SOL     OW73799  12.263   0.643   0.617
23987SOL    HW173800  12.217   0.559   0.616
23987SOL    HW273801  12.200   0.705   0.580
23988SOL     OW73802  10.013   5.757   3.472
23988SOL    HW173803   9.996   5.706   3.551
23988SOL    HW273804  10.025   5.691   3.404
23989SOL     OW73805   2.236  11.779   7.925
23989SOL    HW173806   2.331  11.776   7.925
23989SOL    HW273807   2.209  11.695   7.889
23990SOL     OW73808  14.060  11.084   1.899
23990SOL    HW173809  13.973  11.069   1.864
23990SOL    HW273810  14.089  11.166   1.857
23991SOL     OW73811   7.077   0.391  10.631
23991SOL    HW173812   7.085   0.343  10.549
23991SOL    HW273813   6.986   0.377  10.658
23992SOL     OW73814   1.911   6.320  11.072
23992SOL    HW173815   1.993   6.302  11.027
23992SOL    HW273816   1.843   6.307  11.006
23993SOL     OW73817   8.965   2.400  12.961
23993SOL    HW173818   8.926   2.402  12.873
23993SOL    HW273819   8.891   2.384  13.020
23994SOL     OW73820  11.168   0.601   2.998
23994SOL    HW173821  11.207   0.516   2.978
23994SOL    HW273822  11.081   0.598   2.959
23995SOL     OW73823  13.539  11.433  11.488
23995SOL    HW173824  13.501  11.388  11.413
23995SOL    HW273825  13.464  11.456  11.543
23996SOL     OW73826  12.774   1.727   6.939
23996SOL    HW173827  12.682   1.727   6.967
23996SOL    HW273828  12.807   1.641   6.963
23997SOL     OW73829   0.555  14.507   3.476
23997SOL    HW173830   0.540  14.516   3.570
23997SOL    HW273831   0.617  14.577   3.455
23998SOL     OW73832   3.590  10.299  10.252
23998SOL    HW173833   3.665  10.275  10.306
23998SOL    HW273834   3.515  10.295  10.312
23999SOL     OW73835   6.747  11.115   2.685
23999SOL    HW173836   6.705  11.151   2.763
23999SOL    HW273837   6.691  11.042   2.659
24000SOL     OW73838   3.429   2.827   8.626
24000SOL    HW173839   3.385   2.754   8.583
24000SOL    HW273840   3.487   2.863   8.559
24001SOL     OW73841  12.521   6.042   6.148
24001SOL    HW173842  12.500   6.134   6.131
24001SOL    HW273843  12.436   6.002   6.168
24002SOL     OW73844  10.777   1.332  14.663
24002SOL    HW173845  10.764   1.425  14.645
24002SOL    HW273846  10.701   1.288  14.625
24003SOL     OW73847  12.783   2.154   7.612
24003SOL    HW173848  12.791   2.216   7.684
24003SOL    HW273849  12.697   2.171   7.575
24004SOL     OW73850  14.733   1.411   4.056
24004SOL    HW173851  14.715   1.321   4.028
24004SOL    HW273852  14.756   1.403   4.148
24005SOL     OW73853   4.347  10.015   0.132
24005SOL    HW173854   4.265  10.045   0.092
24005SOL    HW273855   4.404   9.997   0.057
24006SOL     OW73856   6.387   7.082   3.884
24006SOL    HW173857   6.405   7.176   3.879
24006SOL    HW273858   6.300   7.077   3.924
24007SOL     OW73859   4.006  12.951  10.643
24007SOL    HW173860   4.090  12.997  10.647
24007SOL    HW273861   3.951  12.997  10.706
24008SOL     OW73862   2.436   7.764   5.322
24008SOL    HW173863   2.470   7.676   5.342
24008SOL    HW273864   2.513   7.820   5.321
24009SOL     OW73865   1.259   6.086   5.390
24009SOL    HW173866   1.239   6.174   5.358
24009SOL    HW273867   1.355   6.081   5.388
24010SOL     OW73868   5.530   7.071   1.077
24010SOL    HW173869   5.459   7.122   1.037
24010SOL    HW273870   5.549   7.116   1.159
24011SOL     OW73871   9.525   3.098  11.025
24011SOL    HW173872   9.519   3.056  11.110
24011SOL    HW273873   9.600   3.056  10.982
24012SOL     OW73874   1.645   5.616   8.815
24012SOL    HW173875   1.682   5.538   8.774
24012SOL    HW273876   1.721   5.664   8.849
24013SOL     OW73877  14.289   4.240   5.539
24013SOL    HW173878  14.227   4.176   5.575
24013SOL    HW273879  14.375   4.197   5.547
24014SOL     OW73880  13.444  12.263   1.715
24014SOL    HW173881  13.461  12.180   1.760
24014SOL    HW273882  13.350  12.277   1.725
24015SOL     OW73883   2.775   8.772  13.169
24015SOL    HW173884   2.789   8.705  13.237
24015SOL    HW273885   2.703   8.825  13.202
24016SOL     OW73886   7.578  10.697   7.113
24016SOL    HW173887   7.564  10.603   7.101
24016SOL    HW273888   7.651  10.718   7.055
24017SOL     OW73889   9.023   5.939   4.761
24017SOL    HW173890   9.009   6.006   4.695
24017SOL    HW273891   9.018   5.986   4.845
24018SOL     OW73892  11.045   9.768   8.970
24018SOL    HW173893  10.962   9.815   8.963
24018SOL    HW273894  11.112   9.835   8.958
24019SOL     OW73895   0.874   2.040   1.077
24019SOL    HW173896   0.874   2.043   1.172
24019SOL    HW273897   0.887   1.947   1.056
24020SOL     OW73898  11.113  14.723   3.647
24020SOL    HW173899  11.122  14.818   3.651
24020SOL    HW273900  11.148  14.692   3.731
24021SOL     OW73901   6.834  14.282   3.586
24021SOL    HW173902   6.929  14.272   3.597
24021SOL    HW273903   6.797  14.263   3.672
24022SOL     OW73904  13.669   3.462   3.635
24022SOL    HW173905  13.672   3.557   3.642
24022SOL    HW273906  13.728   3.442   3.562
24023SOL     OW73907   8.594   5.732  13.938
24023SOL    HW173908   8.638   5.683  13.868
24023SOL    HW273909   8.501   5.728  13.914
24024SOL     OW73910  12.515   5.472   5.561
24024SOL    HW173911  12.519   5.529   5.484
24024SOL    HW273912  12.462   5.397   5.533
24025SOL     OW73913  11.560   6.616   5.623
24025SOL    HW173914  11.587   6.526   5.605
24025SOL    HW273915  11.603   6.668   5.555
24026SOL     OW73916  11.951   2.874   8.631
24026SOL    HW173917  11.995   2.790   8.643
24026SOL    HW273918  12.017   2.931   8.592
24027SOL     OW73919  13.831   0.502   4.211
24027SOL    HW173920  13.752   0.518   4.263
24027SOL    HW273921  13.873   0.587   4.205
24028SOL     OW73922  13.928   6.644  12.405
24028SOL    HW173923  14.017   6.614  12.386
24028SOL    HW273924  13.939   6.734  12.436
24029SOL     OW73925  13.174   0.081   2.498
24029SOL    HW173926  13.256   0.131   2.501
24029SOL    HW273927  13.127   0.107   2.577
24030SOL     OW73928  12.507   4.914   1.798
24030SOL    HW173929  12.453   4.960   1.861
24030SOL    HW273930  12.532   4.833   1.842
24031SOL     OW73931  13.003   9.679   3.817
24031SOL    HW173932  12.986   9.632   3.898
24031SOL    HW273933  12.934   9.745   3.813
24032SOL     OW73934   6.974   1.865   2.854
24032SOL    HW173935   7.040   1.797   2.842
24032SOL    HW273936   6.891   1.818   2.853
24033SOL     OW73937   5.884   6.217   9.402
24033SOL    HW173938   5.949   6.167   9.451
24033SOL    HW273939   5.827   6.256   9.469
24034SOL     OW73940   3.042   4.772   8.903
24034SOL    HW173941   3.062   4.865   8.909
24034SOL    HW273942   2.946   4.768   8.901
24035SOL     OW73943  12.005   7.889   3.028
24035SOL    HW173944  11.972   7.928   2.948
24035SOL    HW273945  11.951   7.927   3.098
24036SOL     OW73946  12.971   3.557  11.763
24036SOL    HW173947  13.059   3.562  11.799
24036SOL    HW273948  12.983   3.573  11.669
24037SOL     OW73949   9.692  14.371   3.401
24037SOL    HW173950   9.740  14.452   3.418
24037SOL    HW273951   9.657  14.345   3.486
24038SOL     OW73952  10.380  10.366   1.963
24038SOL    HW173953  10.436  10.439   1.988
24038SOL    HW273954  10.348  10.389   1.876
24039SOL     OW73955   4.481   8.939   1.756
24039SOL    HW173956   4.551   8.962   1.818
24039SOL    HW273957   4.425   9.016   1.753
24040SOL     OW73958  12.049  13.383  11.182
24040SOL    HW173959  12.024  13.309  11.127
24040SOL    HW273960  11.989  13.379  11.256
24041SOL     OW73961  14.325   1.473  10.313
24041SOL    HW173962  14.306   1.446  10.403
24041SOL    HW273963  14.242   1.510  10.282
24042SOL     OW73964  13.703   5.989   9.383
24042SOL    HW173965  13.738   5.937   9.456
24042SOL    HW273966  13.609   5.978   9.388
24043SOL     OW73967   7.723  14.082  10.685
24043SOL    HW173968   7.792  14.032  10.729
24043SOL    HW273969   7.727  14.169  10.726
24044SOL     OW73970  10.054  12.257   4.139
24044SOL    HW173971  10.013  12.176   4.108
24044SOL    HW273972  10.114  12.229   4.207
24045SOL     OW73973  13.597   8.499  10.905
24045SOL    HW173974  13.558   8.442  10.972
24045SOL    HW273975  13.526   8.558  10.880
24046SOL     OW73976   5.932  10.472   6.808
24046SOL    HW173977   5.953  10.562   6.835
24046SOL    HW273978   6.008  10.445   6.757
24047SOL     OW73979   0.771   4.655   0.227
24047SOL    HW173980   0.756   4.679   0.136
24047SOL    HW273981   0.750   4.735   0.277
24048SOL     OW73982   0.134   6.216   0.046
24048SOL    HW173983   0.175   6.297   0.015
24048SOL    HW273984   0.041   6.228   0.029
24049SOL     OW73985   7.815  13.655   0.779
24049SOL    HW173986   7.780  13.576   0.820
24049SOL    HW273987   7.910  13.646   0.784
24050SOL     OW73988   0.399   9.084   8.743
24050SOL    HW173989   0.369   9.169   8.776
24050SOL    HW273990   0.490   9.078   8.770
24051SOL     OW73991   5.208  14.828   3.106
24051SOL    HW173992   5.169  14.782   3.032
24051SOL    HW273993   5.177  14.780   3.183
24052SOL     OW73994  10.550   0.452  11.620
24052SOL    HW173995  10.478   0.503  11.657
24052SOL    HW273996  10.526   0.361  11.636
24053SOL     OW73997  14.114  13.979   6.138
24053SOL    HW173998  14.140  13.975   6.047
24053SOL    HW273999  14.108  14.072   6.158
24054SOL     OW74000  11.939   0.489   6.693
24054SOL    HW174001  11.877   0.478   6.621
24054SOL    HW274002  11.892   0.544   6.756
24055SOL     OW74003   7.781   0.495   4.862
24055SOL    HW174004   7.843   0.550   4.814
24055SOL    HW274005   7.750   0.551   4.934
24056SOL     OW74006  12.111   0.725   3.081
24056SOL    HW174007  12.020   0.718   3.052
24056SOL    HW274008  12.117   0.667   3.157
24057SOL     OW74009   7.270   9.827  11.872
24057SOL    HW174010   7.182   9.816  11.836
24057SOL    HW274011   7.261   9.806  11.965
24058SOL     OW74012   9.315   4.284   3.700
24058SOL    HW174013   9.221   4.271   3.701
24058SOL    HW274014   9.351   4.204   3.739
24059SOL     OW74015   9.675   0.988   3.050
24059SOL    HW174016   9.676   0.893   3.063
24059SOL    HW274017   9.690   1.024   3.137
24060SOL     OW74018   2.119   8.291   9.213
24060SOL    HW174019   2.045   8.259   9.265
24060SOL    HW274020   2.192   8.297   9.275
24061SOL     OW74021   6.580  10.524   3.910
24061SOL    HW174022   6.614  10.476   3.835
24061SOL    HW274023   6.610  10.614   3.897
24062SOL     OW74024   0.168   5.478   6.551
24062SOL    HW174025   0.101   5.481   6.483
24062SOL    HW274026   0.199   5.568   6.558
24063SOL     OW74027   0.656  10.026  11.337
24063SOL    HW174028   0.747  10.005  11.318
24063SOL    HW274029   0.632  10.093  11.273
24064SOL     OW74030  13.434   6.322  13.853
24064SOL    HW174031  13.419   6.229  13.872
24064SOL    HW274032  13.355   6.366  13.882
24065SOL     OW74033   3.928  14.558   4.031
24065SOL    HW174034   4.005  14.614   4.024
24065SOL    HW274035   3.926  14.509   3.948
24066SOL     OW74036   5.219   6.478   6.548
24066SOL    HW174037   5.149   6.534   6.515
24066SOL    HW274038   5.187   6.446   6.632
24067SOL     OW74039  12.923   5.998   8.052
24067SOL    HW174040  12.843   6.050   8.057
24067SOL    HW274041  12.902   5.929   7.988
24068SOL     OW74042  12.526  14.103  11.905
24068SOL    HW174043  12.600  14.134  11.853
24068SOL    HW274044  12.503  14.177  11.961
24069SOL     OW74045   7.395   4.775   0.289
24069SOL    HW174046   7.363   4.740   0.206
24069SOL    HW274047   7.350   4.723   0.356
24070SOL     OW74048   5.082  11.519   5.546
24070SOL    HW174049   5.173  11.541   5.569
24070SOL    HW274050   5.049  11.598   5.502
24071SOL     OW74051   2.026   3.665  13.675
24071SOL    HW174052   2.051   3.758  13.675
24071SOL    HW274053   1.941   3.663  13.631
24072SOL     OW74054  13.460   1.441  10.095
24072SOL    HW174055  13.380   1.392  10.108
24072SOL    HW274056  13.521   1.407  10.160
24073SOL     OW74057   2.575  10.868   5.760
24073SOL    HW174058   2.604  10.957   5.739
24073SOL    HW274059   2.556  10.829   5.675
24074SOL     OW74060  11.076   2.391   7.385
24074SOL    HW174061  11.151   2.449   7.399
24074SOL    HW274062  11.006   2.428   7.438
24075SOL     OW74063   1.941  11.156   9.587
24075SOL    HW174064   1.976  11.115   9.507
24075SOL    HW274065   1.978  11.245   9.585
24076SOL     OW74066   5.165   4.603  12.048
24076SOL    HW174067   5.171   4.696  12.025
24076SOL    HW274068   5.078   4.594  12.087
24077SOL     OW74069  13.604   2.585  10.703
24077SOL    HW174070  13.595   2.679  10.716
24077SOL    HW274071  13.631   2.552  10.789
24078SOL     OW74072   1.934   8.493  13.977
24078SOL    HW174073   2.006   8.554  13.961
24078SOL    HW274074   1.861   8.530  13.927
24079SOL     OW74075   3.398   1.255  13.450
24079SOL    HW174076   3.324   1.194  13.451
24079SOL    HW274077   3.453   1.228  13.523
24080SOL     OW74078   8.755   4.973   1.067
24080SOL    HW174079   8.759   4.978   0.971
24080SOL    HW274080   8.719   4.886   1.085
24081SOL     OW74081   7.484  10.317   2.208
24081SOL    HW174082   7.489  10.305   2.303
24081SOL    HW274083   7.526  10.239   2.172
24082SOL     OW74084   9.349   8.779  11.156
24082SOL    HW174085   9.371   8.777  11.249
24082SOL    HW274086   9.395   8.856  11.122
24083SOL     OW74087  14.603   8.467   2.004
24083SOL    HW174088  14.684   8.418   2.020
24083SOL    HW274089  14.553   8.411   1.944
24084SOL     OW74090  13.471   8.492   4.879
24084SOL    HW174091  13.404   8.431   4.847
24084SOL    HW274092  13.532   8.437   4.928
24085SOL     OW74093   7.983   9.691   7.355
24085SOL    HW174094   7.943   9.612   7.318
24085SOL    HW274095   8.047   9.719   7.290
24086SOL     OW74096   6.922   8.460   3.165
24086SOL    HW174097   6.873   8.482   3.086
24086SOL    HW274098   6.990   8.527   3.170
24087SOL     OW74099   8.090   7.061  14.488
24087SOL    HW174100   8.087   6.967  14.503
24087SOL    HW274101   8.181   7.086  14.505
24088SOL     OW74102  11.831   6.266   5.503
24088SOL    HW174103  11.811   6.172   5.503
24088SOL    HW274104  11.782   6.301   5.578
24089SOL     OW74105   3.183   5.404   1.078
24089SOL    HW174106   3.278   5.403   1.088
24089SOL    HW274107   3.163   5.328   1.023
24090SOL     OW74108   9.972   5.753   0.930
24090SOL    HW174109   9.913   5.810   0.882
24090SOL    HW274110   9.935   5.665   0.919
24091SOL     OW74111   9.657   1.740   1.998
24091SOL    HW174112   9.679   1.810   1.937
24091SOL    HW274113   9.568   1.760   2.028
24092SOL     OW74114   5.584   5.532   7.458
24092SOL    HW174115   5.589   5.564   7.548
24092SOL    HW274116   5.496   5.555   7.429
24093SOL     OW74117  14.081   1.061   4.268
24093SOL    HW174118  14.036   1.035   4.348
24093SOL    HW274119  14.134   0.984   4.244
24094SOL     OW74120   7.357  14.161  10.000
24094SOL    HW174121   7.354  14.091   9.935
24094SOL    HW274122   7.293  14.134  10.067
24095SOL     OW74123  10.534   0.284   5.725
24095SOL    HW174124  10.589   0.244   5.793
24095SOL    HW274125  10.554   0.378   5.731
24096SOL     OW74126  10.852  12.714   5.144
24096SOL    HW174127  10.925  12.757   5.189
24096SOL    HW274128  10.774  12.748   5.188
24097SOL     OW74129   6.287  12.783   6.909
24097SOL    HW174130   6.338  12.835   6.846
24097SOL    HW274131   6.230  12.728   6.854
24098SOL     OW74132   3.486   9.963   7.484
24098SOL    HW174133   3.532   9.886   7.451
24098SOL    HW274134   3.488   9.954   7.579
24099SOL     OW74135   6.792   1.958   6.020
24099SOL    HW174136   6.706   1.919   6.026
24099SOL    HW274137   6.816   1.978   6.111
24100SOL     OW74138   2.719  14.741   2.579
24100SOL    HW174139   2.646  14.780   2.531
24100SOL    HW274140   2.684  14.658   2.612
24101SOL     OW74141   2.611   4.517   8.010
24101SOL    HW174142   2.534   4.466   7.985
24101SOL    HW274143   2.580   4.607   8.018
24102SOL     OW74144  14.363  14.291  14.413
24102SOL    HW174145  14.440  14.274  14.358
24102SOL    HW274146  14.296  14.318  14.351
24103SOL     OW74147   6.497   8.133  11.047
24103SOL    HW174148   6.489   8.227  11.057
24103SOL    HW274149   6.588   8.119  11.020
24104SOL     OW74150   9.226   3.482  12.662
24104SOL    HW174151   9.311   3.447  12.634
24104SOL    HW274152   9.192   3.418  12.724
24105SOL     OW74153   8.081  14.295   6.824
24105SOL    HW174154   8.152  14.232   6.829
24105SOL    HW274155   8.100  14.348   6.746
24106SOL     OW74156   3.475   3.367   4.459
24106SOL    HW174157   3.381   3.348   4.462
24106SOL    HW274158   3.489   3.404   4.372
24107SOL     OW74159  14.016   0.757   0.254
24107SOL    HW174160  13.953   0.686   0.267
24107SOL    HW274161  14.056   0.739   0.168
24108SOL     OW74162  13.948   7.806   8.828
24108SOL    HW174163  13.864   7.799   8.783
24108SOL    HW274164  13.994   7.725   8.806
24109SOL     OW74165   8.550   0.123   7.289
24109SOL    HW174166   8.620   0.175   7.330
24109SOL    HW274167   8.529   0.171   7.209
24110SOL     OW74168   9.507  12.733   2.846
24110SOL    HW174169   9.599  12.758   2.840
24110SOL    HW274170   9.509  12.639   2.861
24111SOL     OW74171  12.544   7.685   9.096
24111SOL    HW174172  12.586   7.644   9.020
24111SOL    HW274173  12.480   7.746   9.057
24112SOL     OW74174  13.959  10.167  12.556
24112SOL    HW174175  13.902  10.239  12.531
24112SOL    HW274176  13.900  10.091  12.563
24113SOL     OW74177  14.709   3.351  14.861
24113SOL    HW174178  14.651   3.365   0.054
24113SOL    HW274179  14.797   3.364   0.015
24114SOL     OW74180   8.454   1.432   2.499
24114SOL    HW174181   8.454   1.477   2.415
24114SOL    HW274182   8.479   1.500   2.562
24115SOL     OW74183  11.059   1.648  11.119
24115SOL    HW174184  11.011   1.597  11.184
24115SOL    HW274185  11.127   1.693  11.169
24116SOL     OW74186   9.227   4.746   3.090
24116SOL    HW174187   9.151   4.791   3.054
24116SOL    HW274188   9.199   4.655   3.101
24117SOL     OW74189   3.897  12.076   6.075
24117SOL    HW174190   3.978  12.025   6.084
24117SOL    HW274191   3.915  12.134   6.001
24118SOL     OW74192  11.055  13.544   2.157
24118SOL    HW174193  11.085  13.565   2.069
24118SOL    HW274194  11.115  13.476   2.187
24119SOL     OW74195   9.096   7.100   6.722
24119SOL    HW174196   9.031   7.168   6.735
24119SOL    HW274197   9.061   7.023   6.767
24120SOL     OW74198   1.513   3.320   2.807
24120SOL    HW174199   1.471   3.255   2.863
24120SOL    HW274200   1.442   3.355   2.752
24121SOL     OW74201   0.253   0.192   0.975
24121SOL    HW174202   0.208   0.274   0.993
24121SOL    HW274203   0.261   0.190   0.879
24122SOL     OW74204   4.555   7.354   3.832
24122SOL    HW174205   4.582   7.300   3.906
24122SOL    HW274206   4.628   7.352   3.772
24123SOL     OW74207  13.824   7.281   4.906
24123SOL    HW174208  13.868   7.331   4.837
24123SOL    HW274209  13.769   7.218   4.858
24124SOL     OW74210   3.595   2.041  11.901
24124SOL    HW174211   3.595   2.043  11.805
24124SOL    HW274212   3.613   2.131  11.927
24125SOL     OW74213   1.022  12.397   5.297
24125SOL    HW174214   1.031  12.306   5.269
24125SOL    HW274215   1.106  12.437   5.275
24126SOL     OW74216   8.406   7.397  13.619
24126SOL    HW174217   8.443   7.441  13.696
24126SOL    HW274218   8.424   7.457  13.546
24127SOL     OW74219   0.772  14.647  10.729
24127SOL    HW174220   0.782  14.630  10.635
24127SOL    HW274221   0.713  14.578  10.759
24128SOL     OW74222   9.053   4.223   2.631
24128SOL    HW174223   8.991   4.232   2.559
24128SOL    HW274224   9.128   4.176   2.593
24129SOL     OW74225   1.230   4.932   4.464
24129SOL    HW174226   1.210   4.980   4.544
24129SOL    HW274227   1.326   4.927   4.462
24130SOL     OW74228  14.774  14.487  13.991
24130SOL    HW174229  14.754  14.395  13.976
24130SOL    HW274230  14.789  14.523  13.904
24131SOL     OW74231   7.271   2.478  10.612
24131SOL    HW174232   7.219   2.554  10.637
24131SOL    HW274233   7.287   2.490  10.519
24132SOL     OW74234  12.689   7.629   2.164
24132SOL    HW174235  12.765   7.582   2.131
24132SOL    HW274236  12.629   7.561   2.194
24133SOL     OW74237   0.109   9.498   3.523
24133SOL    HW174238   0.094   9.528   3.613
24133SOL    HW274239   0.145   9.574   3.478
24134SOL     OW74240   7.231  10.450  14.052
24134SOL    HW174241   7.313  10.459  14.003
24134SOL    HW274242   7.246  10.503  14.131
24135SOL     OW74243   1.379  12.587   2.441
24135SOL    HW174244   1.462  12.618   2.479
24135SOL    HW274245   1.329  12.555   2.515
24136SOL     OW74246   6.837   6.638   4.838
24136SOL    HW174247   6.833   6.693   4.759
24136SOL    HW274248   6.854   6.550   4.804
24137SOL     OW74249  13.074   1.847  13.594
24137SOL    HW174250  13.138   1.804  13.650
24137SOL    HW274251  12.989   1.826  13.633
24138SOL     OW74252   2.695  10.859  10.770
24138SOL    HW174253   2.675  10.862  10.677
24138SOL    HW274254   2.750  10.780  10.780
24139SOL     OW74255  10.482  11.071  13.951
24139SOL    HW174256  10.452  11.089  13.862
24139SOL    HW274257  10.506  11.158  13.985
24140SOL     OW74258   9.740  12.739   3.197
24140SOL    HW174259   9.787  12.698   3.269
24140SOL    HW274260   9.687  12.668   3.160
24141SOL     OW74261   0.538   8.014   3.889
24141SOL    HW174262   0.485   7.978   3.818
24141SOL    HW274263   0.483   8.006   3.967
24142SOL     OW74264   1.262  12.173   0.389
24142SOL    HW174265   1.193  12.240   0.387
24142SOL    HW274266   1.337  12.218   0.428
24143SOL     OW74267   7.890   4.358   4.557
24143SOL    HW174268   7.859   4.296   4.491
24143SOL    HW274269   7.984   4.366   4.540
24144SOL     OW74270  14.013   7.927   8.529
24144SOL    HW174271  14.085   7.989   8.545
24144SOL    HW274272  13.934   7.977   8.548
24145SOL     OW74273   4.391  10.816  10.366
24145SOL    HW174274   4.439  10.828  10.284
24145SOL    HW274275   4.414  10.892  10.419
24146SOL     OW74276  14.881  14.137   8.030
24146SOL    HW174277   0.076  14.126   7.974
24146SOL    HW274278   0.016  14.217   8.079
24147SOL     OW74279  14.654   8.170  12.551
24147SOL    HW174280  14.748   8.161  12.539
24147SOL    HW274281  14.617   8.095  12.503
24148SOL     OW74282   1.832  11.567  11.037
24148SOL    HW174283   1.759  11.536  10.985
24148SOL    HW274284   1.910  11.532  10.993
24149SOL     OW74285  10.809   6.546   9.422
24149SOL    HW174286  10.894   6.574   9.454
24149SOL    HW274287  10.768   6.503   9.497
24150SOL     OW74288  13.848   5.030  14.689
24150SOL    HW174289  13.829   4.955  14.746
24150SOL    HW274290  13.765   5.076  14.681
24151SOL     OW74291  12.737   0.296   7.945
24151SOL    HW174292  12.822   0.257   7.926
24151SOL    HW274293  12.675   0.245   7.893
24152SOL     OW74294   9.429  10.893  14.500
24152SOL    HW174295   9.373  10.831  14.452
24152SOL    HW274296   9.490  10.926  14.434
24153SOL     OW74297  13.886   0.654  14.074
24153SOL    HW174298  13.928   0.733  14.040
24153SOL    HW274299  13.958   0.594  14.093
24154SOL     OW74300   5.878   9.065   5.229
24154SOL    HW174301   5.919   9.111   5.302
24154SOL    HW274302   5.864   8.975   5.261
24155SOL     OW74303   6.200   4.335   1.778
24155SOL    HW174304   6.145   4.264   1.811
24155SOL    HW274305   6.137   4.400   1.747
24156SOL     OW74306  11.290  11.922   1.991
24156SOL    HW174307  11.285  11.849   1.929
24156SOL    HW274308  11.373  11.908   2.037
24157SOL     OW74309   8.827   8.001   0.017
24157SOL    HW174310   8.817   8.065   0.087
24157SOL    HW274311   8.851   8.052  14.822
24158SOL     OW74312   3.628   1.243   1.524
24158SOL    HW174313   3.574   1.280   1.455
24158SOL    HW274314   3.569   1.187   1.574
24159SOL     OW74315  14.100   2.067   5.783
24159SOL    HW174316  14.111   2.140   5.845
24159SOL    HW274317  14.026   2.018   5.818
24160SOL     OW74318   8.349   4.089   3.814
24160SOL    HW174319   8.268   4.139   3.807
24160SOL    HW274320   8.354   4.040   3.732
24161SOL     OW74321  10.465  14.203   3.063
24161SOL    HW174322  10.422  14.180   3.146
24161SOL    HW274323  10.413  14.276   3.029
24162SOL     OW74324  12.906   4.445   6.606
24162SOL    HW174325  12.908   4.533   6.642
24162SOL    HW274326  12.968   4.447   6.533
24163SOL     OW74327  12.113  12.657   1.756
24163SOL    HW174328  12.136  12.683   1.668
24163SOL    HW274329  12.036  12.708   1.778
24164SOL     OW74330   9.279  13.117   7.175
24164SOL    HW174331   9.231  13.045   7.135
24164SOL    HW274332   9.263  13.193   7.119
24165SOL     OW74333   2.448   7.987   0.051
24165SOL    HW174334   2.412   7.945   0.129
24165SOL    HW274335   2.468   7.914  14.874
24166SOL     OW74336   9.115   2.780   9.488
24166SOL    HW174337   9.209   2.763   9.483
24166SOL    HW274338   9.093   2.820   9.404
24167SOL     OW74339  10.460   8.417   9.405
24167SOL    HW174340  10.449   8.376   9.319
24167SOL    HW274341  10.554   8.427   9.415
24168SOL     OW74342   9.215  11.203   0.734
24168SOL    HW174343   9.147  11.258   0.771
24168SOL    HW274344   9.208  11.215   0.639
24169SOL     OW74345   9.230  10.281   8.032
24169SOL    HW174346   9.317  10.283   8.073
24169SOL    HW274347   9.234  10.206   7.973
24170SOL     OW74348   4.734   9.464   2.319
24170SOL    HW174349   4.664   9.465   2.255
24170SOL    HW274350   4.697   9.509   2.396
24171SOL     OW74351   9.336   0.165  11.013
24171SOL    HW174352   9.290   0.209  11.083
24171SOL    HW274353   9.267   0.127  10.958
24172SOL     OW74354  14.474   0.729   5.921
24172SOL    HW174355  14.439   0.753   5.835
24172SOL    HW274356  14.537   0.798   5.941
24173SOL     OW74357   2.819  10.854   0.666
24173SOL    HW174358   2.731  10.850   0.627
24173SOL    HW274359   2.804  10.884   0.755
24174SOL     OW74360   3.815  14.578   4.429
24174SOL    HW174361   3.870  14.503   4.409
24174SOL    HW274362   3.756  14.585   4.353
24175SOL     OW74363  14.832   3.739   7.569
24175SOL    HW174364  14.873   3.719   7.485
24175SOL    HW274365  14.753   3.684   7.571
24176SOL     OW74366  14.534  14.203   1.287
24176SOL    HW174367  14.484  14.139   1.337
24176SOL    HW274368  14.541  14.279   1.346
24177SOL     OW74369   0.179   4.901   0.078
24177SOL    HW174370   0.132   4.960   0.136
24177SOL    HW274371   0.112   4.870   0.016
24178SOL     OW74372   4.578   6.365  13.785
24178SOL    HW174373   4.597   6.283  13.738
24178SOL    HW274374   4.622   6.354  13.870
24179SOL     OW74375   5.354  12.178  11.871
24179SOL    HW174376   5.313  12.110  11.818
24179SOL    HW274377   5.447  12.156  11.872
24180SOL     OW74378   6.588  12.388  14.613
24180SOL    HW174379   6.525  12.460  14.621
24180SOL    HW274380   6.568  12.350  14.527
24181SOL     OW74381   2.820   6.334   1.046
24181SOL    HW174382   2.912   6.352   1.066
24181SOL    HW274383   2.816   6.339   0.950
24182SOL     OW74384   3.517   9.475   1.107
24182SOL    HW174385   3.523   9.531   1.184
24182SOL    HW274386   3.424   9.458   1.096
24183SOL     OW74387  14.854   5.096   3.947
24183SOL    HW174388   0.052   5.147   3.929
24183SOL    HW274389   0.000   5.029   4.009
24184SOL     OW74390  10.326  13.829  13.434
24184SOL    HW174391  10.247  13.877  13.457
24184SOL    HW274392  10.371  13.887  13.372
24185SOL     OW74393   1.293   8.503   0.517
24185SOL    HW174394   1.230   8.567   0.550
24185SOL    HW274395   1.347   8.482   0.592
24186SOL     OW74396   0.609   8.251   6.338
24186SOL    HW174397   0.617   8.344   6.361
24186SOL    HW274398   0.619   8.249   6.242
24187SOL     OW74399   1.955   6.604   9.818
24187SOL    HW174400   1.878   6.553   9.841
24187SOL    HW274401   1.923   6.668   9.754
24188SOL     OW74402  11.548   7.791  11.174
24188SOL    HW174403  11.486   7.863  11.163
24188SOL    HW274404  11.627   7.832  11.209
24189SOL     OW74405   9.498   9.086   5.483
24189SOL    HW174406   9.457   9.044   5.407
24189SOL    HW274407   9.541   9.164   5.447
24190SOL     OW74408   8.313  14.766   2.647
24190SOL    HW174409   8.363  14.816   2.712
24190SOL    HW274410   8.270  14.833   2.594
24191SOL     OW74411   0.692  14.788   7.179
24191SOL    HW174412   0.782  14.771   7.208
24191SOL    HW274413   0.638  14.731   7.233
24192SOL     OW74414   2.925   2.958  13.314
24192SOL    HW174415   3.004   3.009  13.294
24192SOL    HW274416   2.943   2.920  13.400
24193SOL     OW74417   6.546   6.258   1.968
24193SOL    HW174418   6.633   6.257   1.929
24193SOL    HW274419   6.550   6.331   2.030
24194SOL     OW74420   0.105   4.786   6.275
24194SOL    HW174421   0.082   4.697   6.302
24194SOL    HW274422   0.117   4.833   6.358
24195SOL     OW74423  12.958  14.244   1.257
24195SOL    HW174424  13.033  14.269   1.311
24195SOL    HW274425  12.947  14.150   1.273
24196SOL     OW74426  14.142   3.203   5.328
24196SOL    HW174427  14.154   3.297   5.346
24196SOL    HW274428  14.204   3.184   5.258
24197SOL     OW74429   7.977   5.556  12.891
24197SOL    HW174430   8.017   5.469  12.885
24197SOL    HW274431   7.882   5.539  12.885
24198SOL     OW74432   5.126   7.977   8.890
24198SOL    HW174433   5.132   8.025   8.807
24198SOL    HW274434   5.128   7.885   8.864
24199SOL     OW74435  13.859  13.038  12.443
24199SOL    HW174436  13.897  12.997  12.364
24199SOL    HW274437  13.804  13.108  12.409
24200SOL     OW74438  11.987   5.964   9.283
24200SOL    HW174439  11.991   5.979   9.188
24200SOL    HW274440  11.991   5.869   9.292
24201SOL     OW74441   2.590   3.802  14.536
24201SOL    HW174442   2.643   3.876  14.507
24201SOL    HW274443   2.596   3.739  14.465
24202SOL     OW74444   5.427   0.407   6.003
24202SOL    HW174445   5.489   0.470   5.968
24202SOL    HW274446   5.467   0.322   5.987
24203SOL     OW74447   8.976  12.816   3.213
24203SOL    HW174448   9.062  12.816   3.171
24203SOL    HW274449   8.913  12.820   3.140
24204SOL     OW74450   1.740  13.109  10.118
24204SOL    HW174451   1.767  13.187  10.071
24204SOL    HW274452   1.668  13.073  10.066
24205SOL     OW74453  14.200  14.879   0.988
24205SOL    HW174454  14.268   0.042   0.938
24205SOL    HW274455  14.241  14.799   1.019
24206SOL     OW74456   1.124   1.114  11.560
24206SOL    HW174457   1.054   1.176  11.540
24206SOL    HW274458   1.192   1.133  11.495
24207SOL     OW74459   5.601   0.671  11.899
24207SOL    HW174460   5.550   0.596  11.929
24207SOL    HW274461   5.548   0.711  11.831
24208SOL     OW74462  13.391  14.552  12.763
24208SOL    HW174463  13.414  14.644  12.777
24208SOL    HW274464  13.429  14.531  12.678
24209SOL     OW74465   6.890   4.709  14.199
24209SOL    HW174466   6.929   4.767  14.133
24209SOL    HW274467   6.862   4.632  14.150
24210SOL     OW74468  11.622   7.942   5.781
24210SOL    HW174469  11.561   8.009   5.748
24210SOL    HW274470  11.569   7.889   5.841
24211SOL     OW74471   1.050  10.844   4.369
24211SOL    HW174472   0.972  10.821   4.319
24211SOL    HW274473   1.041  10.796   4.452
24212SOL     OW74474  11.860  12.068   6.874
24212SOL    HW174475  11.924  12.017   6.924
24212SOL    HW274476  11.848  12.018   6.793
24213SOL     OW74477   0.230   4.494  10.460
24213SOL    HW174478   0.286   4.442  10.402
24213SOL    HW274479   0.173   4.430  10.502
24214SOL     OW74480  12.549   0.156  13.988
24214SOL    HW174481  12.597   0.091  13.937
24214SOL    HW274482  12.512   0.215  13.922
24215SOL     OW74483   4.672   3.211  12.338
24215SOL    HW174484   4.597   3.170  12.295
24215SOL    HW274485   4.743   3.204  12.274
24216SOL     OW74486  10.708   7.458   8.778
24216SOL    HW174487  10.754   7.539   8.755
24216SOL    HW274488  10.726   7.446   8.872
24217SOL     OW74489  12.652   3.951   5.362
24217SOL    HW174490  12.606   3.956   5.278
24217SOL    HW274491  12.737   3.912   5.341
24218SOL     OW74492   2.594  13.872   0.423
24218SOL    HW174493   2.631  13.824   0.350
24218SOL    HW274494   2.556  13.805   0.479
24219SOL     OW74495   1.122   1.461   1.691
24219SOL    HW174496   1.120   1.380   1.639
24219SOL    HW274497   1.148   1.432   1.778
24220SOL     OW74498   7.683   7.883   9.713
24220SOL    HW174499   7.630   7.843   9.782
24220SOL    HW274500   7.754   7.820   9.699
24221SOL     OW74501   1.198  10.178   2.202
24221SOL    HW174502   1.271  10.147   2.148
24221SOL    HW274503   1.222  10.153   2.291
24222SOL     OW74504   8.091  13.197   4.630
24222SOL    HW174505   8.164  13.141   4.657
24222SOL    HW274506   8.092  13.195   4.535
24223SOL     OW74507   7.970   1.790   6.316
24223SOL    HW174508   8.001   1.812   6.404
24223SOL    HW274509   7.888   1.743   6.330
24224SOL     OW74510  11.587   0.514   8.386
24224SOL    HW174511  11.532   0.493   8.311
24224SOL    HW274512  11.675   0.488   8.360
24225SOL     OW74513  13.503  10.211   7.866
24225SOL    HW174514  13.552  10.197   7.947
24225SOL    HW274515  13.538  10.146   7.805
24226SOL     OW74516   4.335  12.735  12.202
24226SOL    HW174517   4.414  12.689  12.231
24226SOL    HW274518   4.263  12.681  12.232
24227SOL     OW74519   3.733  13.446   4.621
24227SOL    HW174520   3.784  13.401   4.554
24227SOL    HW274521   3.798  13.473   4.686
24228SOL     OW74522  10.489   9.413  14.098
24228SOL    HW174523  10.530   9.399  14.013
24228SOL    HW274524  10.406   9.366  14.093
24229SOL     OW74525   3.707   3.800   6.220
24229SOL    HW174526   3.678   3.861   6.152
24229SOL    HW274527   3.784   3.758   6.183
24230SOL     OW74528  12.097   9.948  12.385
24230SOL    HW174529  12.091   9.861  12.347
24230SOL    HW274530  12.011   9.963  12.425
24231SOL     OW74531   1.565  14.837   0.343
24231SOL    HW174532   1.523  14.758   0.377
24231SOL    HW274533   1.621  14.867   0.415
24232SOL     OW74534   2.568   8.497   6.645
24232SOL    HW174535   2.499   8.511   6.710
24232SOL    HW274536   2.563   8.573   6.587
24233SOL     OW74537  11.323   8.606   6.253
24233SOL    HW174538  11.381   8.596   6.177
24233SOL    HW274539  11.382   8.599   6.329
24234SOL     OW74540  12.234   5.072   5.088
24234SOL    HW174541  12.149   5.032   5.105
24234SOL    HW274542  12.220   5.166   5.103
24235SOL     OW74543  11.414   7.557   0.000
24235SOL    HW174544  11.361   7.517  14.814
24235SOL    HW274545  11.377   7.524   0.082
24236SOL     OW74546  14.335   5.472   5.409
24236SOL    HW174547  14.385   5.462   5.328
24236SOL    HW274548  14.253   5.424   5.393
24237SOL     OW74549   4.311   5.858  10.979
24237SOL    HW174550   4.396   5.818  10.997
24237SOL    HW274551   4.276   5.879  11.066
24238SOL     OW74552   8.373  10.631   2.126
24238SOL    HW174553   8.351  10.566   2.193
24238SOL    HW274554   8.455  10.670   2.157
24239SOL     OW74555   0.385  10.737  10.293
24239SOL    HW174556   0.480  10.738  10.294
24239SOL    HW274557   0.359  10.826  10.268
24240SOL     OW74558   4.667   0.362  11.919
24240SOL    HW174559   4.726   0.427  11.880
24240SOL    HW274560   4.691   0.279  11.878
24241SOL     OW74561  12.542   0.595   7.501
24241SOL    HW174562  12.512   0.510   7.533
24241SOL    HW274563  12.490   0.659   7.551
24242SOL     OW74564   2.180  12.919  12.095
24242SOL    HW174565   2.143  12.838  12.059
24242SOL    HW274566   2.273  12.900  12.107
24243SOL     OW74567   6.925   5.122  11.295
24243SOL    HW174568   6.885   5.184  11.357
24243SOL    HW274569   6.918   5.166  11.210
24244SOL     OW74570  12.773  13.458  11.035
24244SOL    HW174571  12.815  13.408  11.105
24244SOL    HW274572  12.683  13.427  11.034
24245SOL     OW74573  14.157  12.657   1.832
24245SOL    HW174574  14.124  12.583   1.882
24245SOL    HW274575  14.080  12.710   1.813
24246SOL     OW74576  11.439  14.048   4.996
24246SOL    HW174577  11.428  13.997   4.916
24246SOL    HW274578  11.521  14.096   4.983
24247SOL     OW74579   3.359   3.877   1.451
24247SOL    HW174580   3.392   3.793   1.483
24247SOL    HW274581   3.268   3.859   1.428
24248SOL     OW74582  12.507  13.719   8.821
24248SOL    HW174583  12.600  13.737   8.814
24248SOL    HW274584  12.502  13.630   8.855
24249SOL     OW74585  10.621  11.138   5.493
24249SOL    HW174586  10.695  11.121   5.435
24249SOL    HW274587  10.638  11.223   5.531
24250SOL     OW74588   3.319   1.050  14.271
24250SOL    HW174589   3.345   1.105  14.197
24250SOL    HW274590   3.352   0.963  14.248
24251SOL     OW74591   2.358   5.066   5.849
24251SOL    HW174592   2.420   4.997   5.827
24251SOL    HW274593   2.355   5.122   5.772
24252SOL     OW74594   0.814   7.469  13.476
24252SOL    HW174595   0.816   7.455  13.571
24252SOL    HW274596   0.811   7.381  13.438
24253SOL     OW74597  13.064   2.859   7.424
24253SOL    HW174598  13.111   2.895   7.499
24253SOL    HW274599  13.132   2.827   7.365
24254SOL     OW74600  10.661   8.215   3.653
24254SOL    HW174601  10.583   8.217   3.709
24254SOL    HW274602  10.708   8.136   3.681
24255SOL     OW74603  10.614   7.299   6.518
24255SOL    HW174604  10.644   7.374   6.569
24255SOL    HW274605  10.615   7.226   6.579
24256SOL     OW74606  11.056  11.296   4.393
24256SOL    HW174607  11.047  11.341   4.477
24256SOL    HW274608  11.133  11.337   4.353
24257SOL     OW74609  12.983   4.975  11.821
24257SOL    HW174610  12.996   5.052  11.766
24257SOL    HW274611  13.057   4.918  11.799
24258SOL     OW74612  10.777   4.194  14.273
24258SOL    HW174613  10.847   4.177  14.336
24258SOL    HW274614  10.719   4.256  14.318
24259SOL     OW74615   4.128   5.410   5.186
24259SOL    HW174616   4.076   5.345   5.140
24259SOL    HW274617   4.104   5.400   5.278
24260SOL     OW74618   7.400   6.959   0.057
24260SOL    HW174619   7.423   6.893   0.121
24260SOL    HW274620   7.345   6.914  14.875
24261SOL     OW74621   6.782  13.413   7.093
24261SOL    HW174622   6.771  13.505   7.071
24261SOL    HW274623   6.698  13.387   7.131
24262SOL     OW74624   9.106   3.160  10.028
24262SOL    HW174625   9.132   3.146   9.936
24262SOL    HW274626   9.158   3.097  10.077
24263SOL     OW74627   1.998   5.735   9.971
24263SOL    HW174628   2.013   5.648   9.934
24263SOL    HW274629   1.903   5.747   9.967
24264SOL     OW74630   5.885   8.271   9.828
24264SOL    HW174631   5.911   8.200   9.887
24264SOL    HW274632   5.814   8.316   9.874
24265SOL     OW74633   5.813  10.730  12.018
24265SOL    HW174634   5.850  10.724  11.930
24265SOL    HW274635   5.875  10.683  12.073
24266SOL     OW74636  10.216   4.473   7.803
24266SOL    HW174637  10.163   4.432   7.871
24266SOL    HW274638  10.301   4.487   7.843
24267SOL     OW74639   1.593  14.044  14.880
24267SOL    HW174640   1.660  14.009  14.821
24267SOL    HW274641   1.572  13.971   0.056
24268SOL     OW74642   4.827   7.583  12.197
24268SOL    HW174643   4.758   7.639  12.161
24268SOL    HW274644   4.903   7.640  12.205
24269SOL     OW74645   5.287   2.990   8.934
24269SOL    HW174646   5.291   3.085   8.920
24269SOL    HW274647   5.362   2.955   8.885
24270SOL     OW74648   8.268   0.156   6.950
24270SOL    HW174649   8.207   0.228   6.935
24270SOL    HW274650   8.320   0.184   7.025
24271SOL     OW74651   3.715   9.011   1.888
24271SOL    HW174652   3.799   8.998   1.844
24271SOL    HW274653   3.666   9.070   1.831
24272SOL     OW74654  10.065   1.179   8.721
24272SOL    HW174655  10.007   1.126   8.666
24272SOL    HW274656  10.097   1.248   8.662
24273SOL     OW74657   9.168  13.668   7.520
24273SOL    HW174658   9.180  13.761   7.503
24273SOL    HW274659   9.155  13.662   7.615
24274SOL     OW74660   1.904  13.359  11.190
24274SOL    HW174661   1.866  13.372  11.277
24274SOL    HW274662   1.863  13.279  11.157
24275SOL     OW74663  11.661  13.259   6.393
24275SOL    HW174664  11.684  13.186   6.451
24275SOL    HW274665  11.646  13.333   6.453
24276SOL     OW74666   2.905   4.209   5.662
24276SOL    HW174667   2.817   4.241   5.682
24276SOL    HW274668   2.961   4.255   5.724
24277SOL     OW74669  11.650  14.582   8.278
24277SOL    HW174670  11.557  14.605   8.275
24277SOL    HW274671  11.673  14.585   8.371
24278SOL     OW74672   3.487   4.045   9.931
24278SOL    HW174673   3.447   4.117   9.882
24278SOL    HW274674   3.552   4.009   9.871
24279SOL     OW74675  10.281   4.416   9.517
24279SOL    HW174676  10.276   4.495   9.570
24279SOL    HW274677  10.330   4.354   9.570
24280SOL     OW74678   2.907  11.546  11.027
24280SOL    HW174679   2.861  11.468  10.996
24280SOL    HW274680   2.968  11.568  10.956
24281SOL     OW74681   4.473   9.425  11.896
24281SOL    HW174682   4.556   9.410  11.850
24281SOL    HW274683   4.500   9.442  11.987
24282SOL     OW74684   6.977  12.193  14.797
24282SOL    HW174685   6.885  12.209  14.818
24282SOL    HW274686   6.979  12.182  14.702
24283SOL     OW74687  14.078   2.378  13.282
24283SOL    HW174688  14.049   2.327  13.207
24283SOL    HW274689  14.026   2.345  13.355
24284SOL     OW74690   2.439   1.281  13.218
24284SOL    HW174691   2.532   1.293  13.201
24284SOL    HW274692   2.408   1.367  13.246
24285SOL     OW74693   4.653   7.924   9.895
24285SOL    HW174694   4.668   7.944   9.802
24285SOL    HW274695   4.578   7.865   9.895
24286SOL     OW74696  14.249   6.263  10.353
24286SOL    HW174697  14.161   6.295  10.335
24286SOL    HW274698  14.259   6.186  10.297
24287SOL     OW74699  13.887   1.200  10.959
24287SOL    HW174700  13.961   1.258  10.939
24287SOL    HW274701  13.869   1.216  11.051
24288SOL     OW74702   3.855  14.131   9.595
24288SOL    HW174703   3.836  14.131   9.689
24288SOL    HW274704   3.810  14.209   9.561
24289SOL     OW74705  10.028  11.543   0.675
24289SOL    HW174706  10.109  11.512   0.634
24289SOL    HW274707   9.962  11.479   0.650
24290SOL     OW74708   1.549  12.664   8.674
24290SOL    HW174709   1.559  12.754   8.642
24290SOL    HW274710   1.567  12.609   8.598
24291SOL     OW74711   4.933  14.013  11.222
24291SOL    HW174712   4.878  13.971  11.288
24291SOL    HW274713   4.893  14.099  11.209
24292SOL     OW74714   3.401   6.104   6.246
24292SOL    HW174715   3.333   6.158   6.287
24292SOL    HW274716   3.479   6.159   6.246
24293SOL     OW74717   5.940  11.543   6.762
24293SOL    HW174718   5.849  11.551   6.789
24293SOL    HW274719   5.974  11.633   6.761
24294SOL     OW74720  11.199  11.510   1.739
24294SOL    HW174721  11.238  11.480   1.657
24294SOL    HW274722  11.105  11.494   1.728
24295SOL     OW74723  14.100  13.034   6.321
24295SOL    HW174724  14.009  13.046   6.348
24295SOL    HW274725  14.142  12.994   6.397
24296SOL     OW74726   1.331  14.752  14.057
24296SOL    HW174727   1.350  14.658  14.052
24296SOL    HW274728   1.279  14.761  14.137
24297SOL     OW74729   3.971  10.854   6.718
24297SOL    HW174730   3.903  10.863   6.785
24297SOL    HW274731   3.943  10.778   6.666
24298SOL     OW74732   5.922   2.722  14.022
24298SOL    HW174733   5.971   2.641  14.006
24298SOL    HW274734   5.984   2.792  14.000
24299SOL     OW74735  12.294  11.326  14.771
24299SOL    HW174736  12.337  11.319  14.856
24299SOL    HW274737  12.366  11.334  14.708
24300SOL     OW74738   2.579   9.995   1.030
24300SOL    HW174739   2.615   9.908   1.047
24300SOL    HW274740   2.489   9.990   1.063
24301SOL     OW74741   4.547   9.868   1.834
24301SOL    HW174742   4.593   9.896   1.755
24301SOL    HW274743   4.594   9.790   1.864
24302SOL     OW74744  11.018  13.785   9.704
24302SOL    HW174745  11.050  13.774   9.794
24302SOL    HW274746  11.049  13.707   9.658
24303SOL     OW74747   4.478   7.104   1.051
24303SOL    HW174748   4.477   7.023   1.102
24303SOL    HW274749   4.388   7.136   1.054
24304SOL     OW74750   4.623   6.633  11.118
24304SOL    HW174751   4.714   6.625  11.146
24304SOL    HW274752   4.579   6.557  11.157
24305SOL     OW74753  13.408   8.278  10.619
24305SOL    HW174754  13.353   8.349  10.585
24305SOL    HW274755  13.363   8.249  10.698
24306SOL     OW74756  12.255   3.779  11.688
24306SOL    HW174757  12.327   3.762  11.628
24306SOL    HW274758  12.247   3.874  11.689
24307SOL     OW74759   9.283   7.317   6.095
24307SOL    HW174760   9.261   7.269   6.175
24307SOL    HW274761   9.279   7.409   6.121
24308SOL     OW74762  13.064   7.532   1.299
24308SOL    HW174763  12.997   7.568   1.356
24308SOL    HW274764  13.040   7.440   1.289
24309SOL     OW74765   1.129  10.680   7.915
24309SOL    HW174766   1.147  10.722   7.999
24309SOL    HW274767   1.215  10.647   7.886
24310SOL     OW74768  11.113   1.578  10.759
24310SOL    HW174769  11.155   1.527  10.689
24310SOL    HW274770  11.162   1.660  10.761
24311SOL     OW74771   4.813  11.576   9.955
24311SOL    HW174772   4.885  11.534   9.908
24311SOL    HW274773   4.855  11.649  10.001
24312SOL     OW74774   2.006   3.499   6.496
24312SOL    HW174775   1.960   3.578   6.468
24312SOL    HW274776   1.968   3.429   6.445
24313SOL     OW74777   1.797   5.167   2.809
24313SOL    HW174778   1.844   5.229   2.865
24313SOL    HW274779   1.707   5.170   2.840
24314SOL     OW74780   8.834  10.058  14.467
24314SOL    HW174781   8.770  10.104  14.413
24314SOL    HW274782   8.786  10.035  14.547
24315SOL     OW74783  13.570   9.822  12.459
24315SOL    HW174784  13.549   9.806  12.551
24315SOL    HW274785  13.485   9.839  12.418
24316SOL     OW74786   3.164   8.576   6.361
24316SOL    HW174787   3.082   8.529   6.377
24316SOL    HW274788   3.230   8.526   6.409
24317SOL     OW74789   7.733  11.334   8.872
24317SOL    HW174790   7.789  11.300   8.941
24317SOL    HW274791   7.677  11.260   8.848
24318SOL     OW74792   4.902   6.964   4.148
24318SOL    HW174793   4.980   6.935   4.100
24318SOL    HW274794   4.927   7.048   4.187
24319SOL     OW74795   3.939   3.298   6.391
24319SOL    HW174796   3.851   3.278   6.359
24319SOL    HW274797   3.995   3.232   6.348
24320SOL     OW74798  13.290   3.659   4.951
24320SOL    HW174799  13.379   3.674   4.981
24320SOL    HW274800  13.297   3.582   4.894
24321SOL     OW74801  10.612   3.382   0.330
24321SOL    HW174802  10.612   3.286   0.333
24321SOL    HW274803  10.529   3.405   0.290
24322SOL     OW74804  10.030   1.793  11.838
24322SOL    HW174805  10.001   1.746  11.760
24322SOL    HW274806   9.956   1.786  11.899
24323SOL     OW74807   0.647   1.291   5.336
24323SOL    HW174808   0.684   1.207   5.359
24323SOL    HW274809   0.645   1.340   5.419
24324SOL     OW74810  11.036  12.613  12.958
24324SOL    HW174811  11.096  12.563  12.902
24324SOL    HW274812  11.059  12.704  12.942
24325SOL     OW74813  12.347  10.472   0.667
24325SOL    HW174814  12.321  10.401   0.609
24325SOL    HW274815  12.309  10.550   0.627
24326SOL     OW74816   0.870  14.718   0.285
24326SOL    HW174817   0.796  14.674   0.243
24326SOL    HW274818   0.911  14.768   0.215
24327SOL     OW74819   0.988   5.405  11.346
24327SOL    HW174820   0.988   5.410  11.250
24327SOL    HW274821   1.076   5.434  11.371
24328SOL     OW74822   8.738   4.245   2.426
24328SOL    HW174823   8.816   4.230   2.373
24328SOL    HW274824   8.734   4.340   2.436
24329SOL     OW74825   4.938   2.088  13.012
24329SOL    HW174826   4.863   2.082  12.954
24329SOL    HW274827   5.013   2.098  12.954
24330SOL     OW74828   4.560  13.624  12.220
24330SOL    HW174829   4.484  13.682  12.218
24330SOL    HW274830   4.535  13.550  12.165
24331SOL     OW74831   8.271   8.470   7.191
24331SOL    HW174832   8.281   8.442   7.282
24331SOL    HW274833   8.182   8.506   7.187
24332SOL     OW74834   9.104   1.735  13.387
24332SOL    HW174835   9.191   1.749  13.352
24332SOL    HW274836   9.083   1.817  13.432
24333SOL     OW74837   6.082   8.138  12.910
24333SOL    HW174838   6.135   8.064  12.879
24333SOL    HW274839   6.077   8.126  13.004
24334SOL     OW74840   0.433   3.686   1.434
24334SOL    HW174841   0.527   3.682   1.450
24334SOL    HW274842   0.405   3.767   1.477
24335SOL     OW74843  14.050  12.316  11.367
24335SOL    HW174844  14.102  12.238  11.345
24335SOL    HW274845  14.113  12.387  11.369
24336SOL     OW74846   5.072   0.160  13.584
24336SOL    HW174847   5.081   0.246  13.543
24336SOL    HW274848   4.981   0.135  13.565
24337SOL     OW74849   3.218   2.110   2.389
24337SOL    HW174850   3.156   2.150   2.450
24337SOL    HW274851   3.199   2.152   2.305
24338SOL     OW74852   1.321   4.364   6.672
24338SOL    HW174853   1.343   4.338   6.582
24338SOL    HW274854   1.336   4.285   6.724
24339SOL     OW74855  10.846   2.104  14.266
24339SOL    HW174856  10.902   2.146  14.332
24339SOL    HW274857  10.890   2.021  14.248
24340SOL     OW74858  11.126  12.172   7.406
24340SOL    HW174859  11.151  12.152   7.497
24340SOL    HW274860  11.203  12.212   7.368
24341SOL     OW74861  11.720  11.077  10.750
24341SOL    HW174862  11.734  11.008  10.814
24341SOL    HW274863  11.631  11.060  10.716
24342SOL     OW74864   8.257   2.088  13.925
24342SOL    HW174865   8.217   2.168  13.890
24342SOL    HW274866   8.224   2.018  13.869
24343SOL     OW74867  11.372   5.282  14.647
24343SOL    HW174868  11.361   5.364  14.694
24343SOL    HW274869  11.309   5.287  14.575
24344SOL     OW74870   6.746   7.010   1.278
24344SOL    HW174871   6.762   7.008   1.373
24344SOL    HW274872   6.740   6.918   1.253
24345SOL     OW74873   3.152  12.503  10.040
24345SOL    HW174874   3.154  12.598  10.030
24345SOL    HW274875   3.151  12.470   9.950
24346SOL     OW74876  13.125   3.986   8.892
24346SOL    HW174877  13.042   3.940   8.884
24346SOL    HW274878  13.120   4.030   8.977
24347SOL     OW74879  13.875   2.205  11.957
24347SOL    HW174880  13.925   2.131  11.924
24347SOL    HW274881  13.847   2.253  11.879
24348SOL     OW74882  11.351   1.683   5.729
24348SOL    HW174883  11.303   1.633   5.796
24348SOL    HW274884  11.297   1.760   5.713
24349SOL     OW74885   4.321  12.277  14.354
24349SOL    HW174886   4.383  12.279  14.426
24349SOL    HW274887   4.273  12.360  14.361
24350SOL     OW74888   1.739  14.116   7.588
24350SOL    HW174889   1.797  14.041   7.596
24350SOL    HW274890   1.723  14.143   7.679
24351SOL     OW74891   0.525   2.172   0.410
24351SOL    HW174892   0.591   2.111   0.442
24351SOL    HW274893   0.570   2.225   0.344
24352SOL     OW74894   1.301  14.094   3.342
24352SOL    HW174895   1.218  14.139   3.357
24352SOL    HW274896   1.345  14.146   3.275
24353SOL     OW74897   3.205  14.329   0.757
24353SOL    HW174898   3.297  14.307   0.743
24353SOL    HW274899   3.160  14.245   0.764
24354SOL     OW74900   1.199   4.479  13.707
24354SOL    HW174901   1.255   4.431  13.646
24354SOL    HW274902   1.142   4.411  13.744
24355SOL     OW74903  12.719   4.694   5.734
24355SOL    HW174904  12.768   4.759   5.784
24355SOL    HW274905  12.687   4.632   5.799
24356SOL     OW74906   2.152   4.886   2.676
24356SOL    HW174907   2.117   4.975   2.678
24356SOL    HW274908   2.112   4.843   2.752
24357SOL     OW74909   1.451  11.907  11.030
24357SOL    HW174910   1.496  11.845  10.972
24357SOL    HW274911   1.521  11.945  11.083
24358SOL     OW74912   8.652   4.593   6.980
24358SOL    HW174913   8.664   4.633   7.066
24358SOL    HW274914   8.571   4.542   6.989
24359SOL     OW74915  12.525   2.189   7.053
24359SOL    HW174916  12.538   2.124   6.983
24359SOL    HW274917  12.599   2.176   7.112
24360SOL     OW74918   3.365   2.542   2.215
24360SOL    HW174919   3.423   2.618   2.223
24360SOL    HW274920   3.316   2.541   2.297
24361SOL     OW74921  10.706  13.219  10.828
24361SOL    HW174922  10.710  13.145  10.768
24361SOL    HW274923  10.715  13.180  10.915
24362SOL     OW74924   4.330  13.361   9.157
24362SOL    HW174925   4.342  13.290   9.094
24362SOL    HW274926   4.247  13.402   9.132
24363SOL     OW74927  11.860   8.993   4.989
24363SOL    HW174928  11.792   9.031   5.044
24363SOL    HW274929  11.936   9.050   5.002
24364SOL     OW74930   0.997   0.719   4.440
24364SOL    HW174931   1.010   0.635   4.396
24364SOL    HW274932   0.913   0.710   4.485
24365SOL     OW74933   2.301   9.465   4.739
24365SOL    HW174934   2.255   9.501   4.815
24365SOL    HW274935   2.234   9.413   4.693
24366SOL     OW74936  12.267  12.254   5.551
24366SOL    HW174937  12.309  12.337   5.529
24366SOL    HW274938  12.179  12.262   5.516
24367SOL     OW74939   4.955   9.546   6.885
24367SOL    HW174940   4.933   9.470   6.939
24367SOL    HW274941   4.937   9.519   6.795
24368SOL     OW74942   9.688   1.140   3.306
24368SOL    HW174943   9.758   1.204   3.296
24368SOL    HW274944   9.608   1.187   3.281
24369SOL     OW74945   9.041  11.947   8.475
24369SOL    HW174946   8.983  11.948   8.399
24369SOL    HW274947   9.113  12.005   8.450
24370SOL     OW74948  14.431  12.189   8.992
24370SOL    HW174949  14.452  12.103   9.029
24370SOL    HW274950  14.510  12.213   8.943
24371SOL     OW74951   8.891   6.387   4.679
24371SOL    HW174952   8.928   6.410   4.764
24371SOL    HW274953   8.796   6.386   4.694
24372SOL     OW74954   4.804   0.717   9.634
24372SOL    HW174955   4.873   0.769   9.674
24372SOL    HW274956   4.740   0.781   9.604
24373SOL     OW74957   1.648   5.691   0.188
24373SOL    HW174958   1.738   5.676   0.218
24373SOL    HW274959   1.636   5.785   0.192
24374SOL     OW74960  13.622   3.588  14.513
24374SOL    HW174961  13.654   3.672  14.479
24374SOL    HW274962  13.669   3.522  14.462
24375SOL     OW74963  12.915  12.253   9.462
24375SOL    HW174964  12.932  12.162   9.435
24375SOL    HW274965  12.837  12.247   9.517
24376SOL     OW74966  12.027  12.977   6.877
24376SOL    HW174967  12.012  12.884   6.862
24376SOL    HW274968  12.113  12.981   6.920
24377SOL     OW74969  13.698   8.072   1.592
24377SOL    HW174970  13.603   8.081   1.588
24377SOL    HW274971  13.713   7.978   1.578
24378SOL     OW74972   3.071   0.693   7.696
24378SOL    HW174973   3.051   0.609   7.739
24378SOL    HW274974   3.007   0.754   7.732
24379SOL     OW74975   4.482   8.068   5.158
24379SOL    HW174976   4.486   8.157   5.124
24379SOL    HW274977   4.481   8.013   5.080
24380SOL     OW74978  14.496  11.595  13.386
24380SOL    HW174979  14.481  11.667  13.447
24380SOL    HW274980  14.554  11.535  13.434
24381SOL     OW74981  14.626   0.166   0.050
24381SOL    HW174982  14.564   0.096   0.031
24381SOL    HW274983  14.710   0.133   0.017
24382SOL     OW74984   1.590   4.035   2.845
24382SOL    HW174985   1.679   4.054   2.817
24382SOL    HW274986   1.585   4.068   2.934
24383SOL     OW74987   5.186  14.759   5.651
24383SOL    HW174988   5.146  14.725   5.571
24383SOL    HW274989   5.178  14.854   5.643
24384SOL     OW74990   4.599   4.283   9.431
24384SOL    HW174991   4.578   4.232   9.510
24384SOL    HW274992   4.686   4.319   9.448
24385SOL     OW74993   5.839   8.525  13.140
24385SOL    HW174994   5.908   8.494  13.198
24385SOL    HW274995   5.776   8.567  13.198
24386SOL     OW74996   0.770  11.023  10.315
24386SOL    HW174997   0.824  11.099  10.338
24386SOL    HW274998   0.804  10.953  10.371
24387SOL     OW74999   2.763   6.053   0.563
24387SOL    HW175000   2.845   6.054   0.613
24387SOL    HW275001   2.722   5.970   0.586
24388SOL     OW75002   0.530   3.982   3.461
24388SOL    HW175003   0.485   3.953   3.382
24388SOL    HW275004   0.622   3.965   3.444
24389SOL     OW75005   0.871   6.678   3.234
24389SOL    HW175006   0.847   6.595   3.195
24389SOL    HW275007   0.871   6.740   3.161
24390SOL     OW75008   6.187   7.399   6.060
24390SOL    HW175009   6.123   7.337   6.095
24390SOL    HW275010   6.150   7.485   6.081
24391SOL     OW75011   9.409   1.162   0.870
24391SOL    HW175012   9.442   1.249   0.847
24391SOL    HW275013   9.479   1.102   0.845
24392SOL     OW75014   4.965   3.703  14.064
24392SOL    HW175015   4.914   3.626  14.086
24392SOL    HW275016   5.033   3.706  14.132
24393SOL     OW75017  12.657   9.469  12.940
24393SOL    HW175018  12.701   9.492  13.021
24393SOL    HW275019  12.566   9.494  12.954
24394SOL     OW75020   5.921  13.199  14.312
24394SOL    HW175021   5.993  13.152  14.271
24394SOL    HW275022   5.923  13.286  14.271
24395SOL     OW75023  13.071   0.164   0.688
24395SOL    HW175024  13.003   0.117   0.737
24395SOL    HW275025  13.126   0.095   0.651
24396SOL     OW75026   2.875  14.285   0.884
24396SOL    HW175027   2.803  14.263   0.824
24396SOL    HW275028   2.894  14.203   0.928
24397SOL     OW75029   4.022  11.690  13.937
24397SOL    HW175030   4.035  11.650  13.851
24397SOL    HW275031   3.930  11.716  13.938
24398SOL     OW75032   8.624  13.329   7.749
24398SOL    HW175033   8.714  13.296   7.743
24398SOL    HW275034   8.598  13.343   7.658
24399SOL     OW75035   1.775   7.335   9.938
24399SOL    HW175036   1.820   7.344   9.854
24399SOL    HW275037   1.735   7.421   9.954
24400SOL     OW75038   0.564   8.585   8.784
24400SOL    HW175039   0.507   8.527   8.834
24400SOL    HW275040   0.555   8.556   8.693
24401SOL     OW75041   0.159  12.883  13.206
24401SOL    HW175042   0.218  12.866  13.133
24401SOL    HW275043   0.105  12.804  13.212
24402SOL     OW75044   2.593   4.502   4.626
24402SOL    HW175045   2.531   4.472   4.559
24402SOL    HW275046   2.666   4.441   4.619
24403SOL     OW75047  10.266   8.121   8.589
24403SOL    HW175048  10.319   8.199   8.602
24403SOL    HW275049  10.326   8.048   8.603
24404SOL     OW75050   1.813   8.977   7.366
24404SOL    HW175051   1.731   9.024   7.383
24404SOL    HW275052   1.860   8.979   7.450
24405SOL     OW75053  10.825   5.929   6.441
24405SOL    HW175054  10.803   5.896   6.528
24405SOL    HW275055  10.920   5.938   6.442
24406SOL     OW75056   1.039  13.331   8.485
24406SOL    HW175057   1.044  13.425   8.470
24406SOL    HW275058   0.996  13.297   8.407
24407SOL     OW75059   8.888   3.885  13.567
24407SOL    HW175060   8.852   3.886  13.656
24407SOL    HW275061   8.967   3.831  13.574
24408SOL     OW75062   3.705   5.718   4.618
24408SOL    HW175063   3.612   5.706   4.635
24408SOL    HW275064   3.737   5.766   4.695
24409SOL     OW75065   6.974   0.072  11.537
24409SOL    HW175066   6.995   0.161  11.509
24409SOL    HW275067   7.042   0.051  11.601
24410SOL     OW75068  11.744   9.504   2.730
24410SOL    HW175069  11.717   9.490   2.639
24410SOL    HW275070  11.667   9.482   2.782
24411SOL     OW75071  14.834   0.247   5.270
24411SOL    HW175072   0.045   0.228   5.284
24411SOL    HW275073  14.789   0.179   5.321
24412SOL     OW75074   8.286   9.780  12.370
24412SOL    HW175075   8.380   9.783  12.385
24412SOL    HW275076   8.250   9.739  12.449
24413SOL     OW75077   8.948   1.589  12.999
24413SOL    HW175078   8.912   1.566  13.084
24413SOL    HW275079   8.874   1.581  12.938
24414SOL     OW75080  13.595  10.004  11.320
24414SOL    HW175081  13.569  10.055  11.243
24414SOL    HW275082  13.596   9.913  11.290
24415SOL     OW75083   9.506   6.381   0.433
24415SOL    HW175084   9.554   6.426   0.502
24415SOL    HW275085   9.472   6.451   0.377
24416SOL     OW75086   7.827  13.231   1.763
24416SOL    HW175087   7.869  13.187   1.690
24416SOL    HW275088   7.827  13.166   1.834
24417SOL     OW75089   3.270   4.396   4.440
24417SOL    HW175090   3.239   4.378   4.529
24417SOL    HW275091   3.288   4.310   4.403
24418SOL     OW75092  11.356   4.037   2.961
24418SOL    HW175093  11.433   4.041   3.018
24418SOL    HW275094  11.384   4.079   2.880
24419SOL     OW75095   0.979   7.461   9.376
24419SOL    HW175096   0.964   7.492   9.465
24419SOL    HW275097   1.005   7.540   9.328
24420SOL     OW75098   1.347   7.474   0.099
24420SOL    HW175099   1.436   7.439   0.098
24420SOL    HW275100   1.333   7.499   0.191
24421SOL     OW75101   5.017   8.047   7.563
24421SOL    HW175102   5.073   7.973   7.540
24421SOL    HW275103   4.946   8.044   7.498
24422SOL     OW75104   8.426   9.247   0.271
24422SOL    HW175105   8.330   9.252   0.275
24422SOL    HW275106   8.455   9.335   0.293
24423SOL     OW75107   7.637   9.494   8.206
24423SOL    HW175108   7.687   9.413   8.195
24423SOL    HW275109   7.687   9.560   8.158
24424SOL     OW75110  14.415   8.990  14.191
24424SOL    HW175111  14.487   8.973  14.253
24424SOL    HW275112  14.458   8.996  14.106
24425SOL     OW75113   2.109   1.825   9.661
24425SOL    HW175114   2.114   1.902   9.717
24425SOL    HW275115   2.198   1.811   9.630
24426SOL     OW75116   6.248   4.574   0.968
24426SOL    HW175117   6.341   4.586   0.951
24426SOL    HW275118   6.204   4.639   0.912
24427SOL     OW75119   4.107   3.642   7.354
24427SOL    HW175120   4.179   3.696   7.322
24427SOL    HW275121   4.080   3.683   7.436
24428SOL     OW75122   4.920   7.829   6.314
24428SOL    HW175123   5.004   7.872   6.329
24428SOL    HW275124   4.855   7.889   6.350
24429SOL     OW75125   9.485   2.718   5.379
24429SOL    HW175126   9.547   2.653   5.415
24429SOL    HW275127   9.468   2.687   5.290
24430SOL     OW75128   2.654   0.871  10.294
24430SOL    HW175129   2.716   0.799  10.286
24430SOL    HW275130   2.598   0.848  10.368
24431SOL     OW75131   6.788  12.857   3.170
24431SOL    HW175132   6.697  12.853   3.140
24431SOL    HW275133   6.791  12.797   3.244
24432SOL     OW75134  12.879   8.271   8.333
24432SOL    HW175135  12.860   8.337   8.265
24432SOL    HW275136  12.886   8.322   8.414
24433SOL     OW75137  13.201   4.556  10.970
24433SOL    HW175138  13.133   4.567  10.904
24433SOL    HW275139  13.157   4.577  11.053
24434SOL     OW75140  10.515  12.901  12.841
24434SOL    HW175141  10.424  12.913  12.869
24434SOL    HW275142  10.561  12.876  12.921
24435SOL     OW75143   5.311  11.403   1.141
24435SOL    HW175144   5.364  11.328   1.169
24435SOL    HW275145   5.320  11.405   1.046
24436SOL     OW75146   9.334   4.598   3.830
24436SOL    HW175147   9.309   4.515   3.789
24436SOL    HW275148   9.286   4.665   3.780
24437SOL     OW75149   8.670   3.966   5.415
24437SOL    HW175150   8.654   3.922   5.499
24437SOL    HW275151   8.739   4.030   5.435
24438SOL     OW75152   6.183   3.425  14.391
24438SOL    HW175153   6.146   3.496  14.338
24438SOL    HW275154   6.271   3.412  14.355
24439SOL     OW75155   1.072  12.114   8.635
24439SOL    HW175156   1.095  12.111   8.542
24439SOL    HW275157   1.055  12.206   8.652
24440SOL     OW75158   5.023   8.863   5.098
24440SOL    HW175159   5.048   8.901   5.183
24440SOL    HW275160   4.959   8.925   5.063
24441SOL     OW75161   5.318   3.862  14.767
24441SOL    HW175162   5.237   3.813  14.777
24441SOL    HW275163   5.361   3.821  14.692
24442SOL     OW75164   1.196   8.678   3.656
24442SOL    HW175165   1.118   8.684   3.601
24442SOL    HW275166   1.224   8.587   3.649
24443SOL     OW75167   9.131   3.951  13.905
24443SOL    HW175168   9.154   3.984  13.818
24443SOL    HW275169   9.171   3.864  13.909
24444SOL     OW75170   5.222  11.731   4.203
24444SOL    HW175171   5.164  11.713   4.277
24444SOL    HW275172   5.307  11.752   4.243
24445SOL     OW75173   2.437  13.367   7.416
24445SOL    HW175174   2.422  13.405   7.329
24445SOL    HW275175   2.395  13.429   7.476
24446SOL     OW75176  12.273   8.702  12.163
24446SOL    HW175177  12.262   8.766  12.233
24446SOL    HW275178  12.188   8.658  12.158
24447SOL     OW75179   9.217   6.182   5.095
24447SOL    HW175180   9.308   6.176   5.067
24447SOL    HW275181   9.218   6.152   5.186
24448SOL     OW75182   8.651   8.351   4.613
24448SOL    HW175183   8.693   8.266   4.622
24448SOL    HW275184   8.569   8.342   4.662
24449SOL     OW75185   4.003   7.559  14.716
24449SOL    HW175186   4.001   7.647  14.679
24449SOL    HW275187   4.076   7.560  14.778
24450SOL     OW75188   0.723   9.889   2.009
24450SOL    HW175189   0.724   9.871   1.916
24450SOL    HW275190   0.672   9.970   2.017
24451SOL     OW75191  11.680   8.667   6.418
24451SOL    HW175192  11.630   8.593   6.383
24451SOL    HW275193  11.767   8.658   6.378
24452SOL     OW75194   3.273  10.682  12.618
24452SOL    HW175195   3.351  10.716  12.575
24452SOL    HW275196   3.200  10.713  12.565
24453SOL     OW75197  11.007  12.536   5.962
24453SOL    HW175198  10.964  12.614   5.996
24453SOL    HW275199  11.099  12.558   5.959
24454SOL     OW75200   8.567   1.848  11.685
24454SOL    HW175201   8.583   1.798  11.765
24454SOL    HW275202   8.600   1.792  11.615
24455SOL     OW75203  14.337  12.992  14.091
24455SOL    HW175204  14.270  12.999  14.023
24455SOL    HW275205  14.293  13.021  14.171
24456SOL     OW75206   2.004   9.036  10.940
24456SOL    HW175207   1.947   8.975  10.894
24456SOL    HW275208   1.962   9.121  10.929
24457SOL     OW75209  12.514  12.130   4.688
24457SOL    HW175210  12.513  12.051   4.743
24457SOL    HW275211  12.525  12.097   4.599
24458SOL     OW75212   9.076   0.819  13.214
24458SOL    HW175213   9.047   0.843  13.302
24458SOL    HW275214   9.150   0.878  13.196
24459SOL     OW75215  11.651   8.880   6.119
24459SOL    HW175216  11.603   8.958   6.148
24459SOL    HW275217  11.732   8.914   6.081
24460SOL     OW75218  13.184  13.230   6.742
24460SOL    HW175219  13.152  13.262   6.657
24460SOL    HW275220  13.208  13.309   6.790
24461SOL     OW75221   0.220   9.155  11.310
24461SOL    HW175222   0.273   9.226  11.273
24461SOL    HW275223   0.177   9.115  11.234
24462SOL     OW75224  11.757   0.280   1.152
24462SOL    HW175225  11.684   0.274   1.213
24462SOL    HW275226  11.763   0.193   1.113
24463SOL     OW75227   2.158   2.133   6.474
24463SOL    HW175228   2.099   2.089   6.413
24463SOL    HW275229   2.246   2.112   6.441
24464SOL     OW75230   6.543  11.224  12.638
24464SOL    HW175231   6.497  11.140  12.637
24464SOL    HW275232   6.491  11.280  12.696
24465SOL     OW75233  12.671   5.902   4.381
24465SOL    HW175234  12.600   5.838   4.377
24465SOL    HW275235  12.750   5.853   4.357
24466SOL     OW75236   7.351  10.235  14.749
24466SOL    HW175237   7.396  10.226  14.665
24466SOL    HW275238   7.345  10.145  14.783
24467SOL     OW75239  14.323   2.743   8.240
24467SOL    HW175240  14.241   2.694   8.231
24467SOL    HW275241  14.305   2.808   8.308
24468SOL     OW75242   0.745  10.725   7.635
24468SOL    HW175243   0.763  10.710   7.542
24468SOL    HW275244   0.804  10.666   7.681
24469SOL     OW75245   1.814   1.129  12.403
24469SOL    HW175246   1.722   1.115  12.380
24469SOL    HW275247   1.862   1.103  12.325
24470SOL     OW75248   7.230   7.044   9.529
24470SOL    HW175249   7.172   7.091   9.468
24470SOL    HW275250   7.172   7.010   9.596
24471SOL     OW75251  10.907  14.520   7.496
24471SOL    HW175252  10.879  14.608   7.521
24471SOL    HW275253  10.869  14.507   7.409
24472SOL     OW75254  11.527  11.662   4.013
24472SOL    HW175255  11.555  11.701   3.930
24472SOL    HW275256  11.534  11.568   3.999
24473SOL     OW75257  13.203  12.756   6.285
24473SOL    HW175258  13.125  12.713   6.251
24473SOL    HW275259  13.224  12.707   6.365
24474SOL     OW75260   2.870  13.695   9.533
24474SOL    HW175261   2.790  13.663   9.492
24474SOL    HW275262   2.845  13.715   9.623
24475SOL     OW75263   8.729  11.674   4.401
24475SOL    HW175264   8.666  11.637   4.339
24475SOL    HW275265   8.678  11.688   4.481
24476SOL     OW75266  14.751   7.865  10.088
24476SOL    HW175267  14.759   7.955  10.121
24476SOL    HW275268  14.693   7.821  10.150
24477SOL     OW75269   0.584   1.519   6.089
24477SOL    HW175270   0.616   1.607   6.068
24477SOL    HW275271   0.512   1.535   6.151
24478SOL     OW75272  10.383  12.717   0.435
24478SOL    HW175273  10.292  12.689   0.431
24478SOL    HW275274  10.430  12.640   0.467
24479SOL     OW75275  10.744   8.387   4.093
24479SOL    HW175276  10.758   8.428   4.179
24479SOL    HW275277  10.770   8.453   4.030
24480SOL     OW75278   8.244   0.493   7.923
24480SOL    HW175279   8.288   0.549   7.986
24480SOL    HW275280   8.311   0.428   7.898
24481SOL     OW75281   0.811  14.359  10.471
24481SOL    HW175282   0.830  14.452  10.458
24481SOL    HW275283   0.715  14.355  10.476
24482SOL     OW75284   6.755   6.691   9.422
24482SOL    HW175285   6.662   6.714   9.423
24482SOL    HW275286   6.783   6.709   9.332
24483SOL     OW75287  11.906  10.330   3.417
24483SOL    HW175288  11.923  10.260   3.479
24483SOL    HW275289  11.829  10.375   3.451
24484SOL     OW75290  13.936  14.573   2.143
24484SOL    HW175291  13.923  14.562   2.049
24484SOL    HW275292  14.024  14.538   2.160
24485SOL     OW75293   9.375   7.667   2.549
24485SOL    HW175294   9.446   7.722   2.515
24485SOL    HW275295   9.417   7.586   2.576
24486SOL     OW75296   4.052  10.862   8.059
24486SOL    HW175297   4.146  10.868   8.076
24486SOL    HW275298   4.030  10.943   8.013
24487SOL     OW75299   2.909   1.926   1.341
24487SOL    HW175300   2.823   1.962   1.362
24487SOL    HW275301   2.972   1.987   1.380
24488SOL     OW75302   4.837   1.672   5.439
24488SOL    HW175303   4.825   1.660   5.344
24488SOL    HW275304   4.931   1.674   5.452
24489SOL     OW75305   9.976   1.615   0.881
24489SOL    HW175306   9.921   1.644   0.954
24489SOL    HW275307  10.012   1.530   0.909
24490SOL     OW75308   4.706   3.179  13.077
24490SOL    HW175309   4.710   3.084  13.067
24490SOL    HW275310   4.745   3.197  13.162
24491SOL     OW75311  14.424   2.223   6.092
24491SOL    HW175312  14.386   2.286   6.030
24491SOL    HW275313  14.503   2.191   6.049
24492SOL     OW75314  12.801  14.053   8.373
24492SOL    HW175315  12.796  14.136   8.326
24492SOL    HW275316  12.768  13.988   8.311
24493SOL     OW75317   9.341   2.258   8.885
24493SOL    HW175318   9.286   2.277   8.809
24493SOL    HW275319   9.396   2.336   8.895
24494SOL     OW75320  10.886   9.772   1.185
24494SOL    HW175321  10.975   9.797   1.160
24494SOL    HW275322  10.893   9.745   1.277
24495SOL     OW75323   5.796  14.266   8.322
24495SOL    HW175324   5.826  14.305   8.239
24495SOL    HW275325   5.729  14.326   8.353
24496SOL     OW75326   5.476   2.218  12.098
24496SOL    HW175327   5.492   2.171  12.180
24496SOL    HW275328   5.457   2.150  12.034
24497SOL     OW75329   1.641  11.647   9.660
24497SOL    HW175330   1.596  11.728   9.637
24497SOL    HW275331   1.570  11.586   9.683
24498SOL     OW75332   1.927   7.117   3.044
24498SOL    HW175333   1.901   7.025   3.040
24498SOL    HW275334   1.893   7.148   3.128
24499SOL     OW75335  11.718   6.356  13.630
24499SOL    HW175336  11.632   6.340  13.669
24499SOL    HW275337  11.700   6.413  13.556
24500SOL     OW75338   6.198   0.493   4.552
24500SOL    HW175339   6.125   0.532   4.599
24500SOL    HW275340   6.230   0.423   4.610
24501SOL     OW75341   7.317   7.217   4.702
24501SOL    HW175342   7.345   7.175   4.621
24501SOL    HW275343   7.235   7.174   4.726
24502SOL     OW75344   4.640  13.626   2.210
24502SOL    HW175345   4.683  13.688   2.269
24502SOL    HW275346   4.548  13.630   2.234
24503SOL     OW75347  10.294   1.250   6.427
24503SOL    HW175348  10.250   1.314   6.483
24503SOL    HW275349  10.312   1.298   6.346
24504SOL     OW75350   2.028  13.824   4.043
24504SOL    HW175351   2.059  13.911   4.020
24504SOL    HW275352   2.100  13.765   4.020
24505SOL     OW75353  12.903   4.110  13.742
24505SOL    HW175354  12.986   4.146  13.712
24505SOL    HW275355  12.897   4.024  13.701
24506SOL     OW75356  14.316   9.800  11.995
24506SOL    HW175357  14.238   9.782  12.048
24506SOL    HW275358  14.351   9.882  12.031
24507SOL     OW75359  14.068  11.595   6.659
24507SOL    HW175360  13.988  11.550   6.687
24507SOL    HW275361  14.039  11.682   6.633
24508SOL     OW75362  14.342   4.918   9.441
24508SOL    HW175363  14.270   4.858   9.460
24508SOL    HW275364  14.313   5.002   9.478
24509SOL     OW75365   8.050   1.806   3.023
24509SOL    HW175366   8.083   1.724   3.059
24509SOL    HW275367   7.957   1.791   3.008
24510SOL     OW75368  10.727   2.371  11.026
24510SOL    HW175369  10.759   2.383  10.937
24510SOL    HW275370  10.746   2.280  11.047
24511SOL     OW75371  14.156   3.628  10.230
24511SOL    HW175372  14.191   3.705  10.185
24511SOL    HW275373  14.061   3.640  10.227
24512SOL     OW75374   0.471   3.295   9.807
24512SOL    HW175375   0.541   3.290   9.872
24512SOL    HW275376   0.511   3.264   9.726
24513SOL     OW75377   2.931  12.963   5.995
24513SOL    HW175378   2.836  12.969   5.999
24513SOL    HW275379   2.948  12.881   5.950
24514SOL     OW75380   2.997   4.228   7.679
24514SOL    HW175381   3.067   4.186   7.729
24514SOL    HW275382   2.990   4.176   7.599
24515SOL     OW75383   9.614   0.021   9.479
24515SOL    HW175384   9.556   0.089   9.514
24515SOL    HW275385   9.567  14.868   9.403
24516SOL     OW75386   7.617   3.800   6.514
24516SOL    HW175387   7.623   3.787   6.420
24516SOL    HW275388   7.657   3.885   6.530
24517SOL     OW75389  11.965   0.128  11.610
24517SOL    HW175390  12.013   0.051  11.581
24517SOL    HW275391  11.977   0.129  11.705
24518SOL     OW75392  10.123  12.415   9.027
24518SOL    HW175393  10.045  12.434   9.079
24518SOL    HW275394  10.095  12.426   8.936
24519SOL     OW75395  12.023  13.119  13.881
24519SOL    HW175396  12.098  13.147  13.828
24519SOL    HW275397  11.947  13.146  13.830
24520SOL     OW75398   0.585   1.861   7.381
24520SOL    HW175399   0.643   1.930   7.412
24520SOL    HW275400   0.584   1.873   7.286
24521SOL     OW75401  14.372   0.323   9.600
24521SOL    HW175402  14.455   0.305   9.644
24521SOL    HW275403  14.331   0.392   9.652
24522SOL     OW75404   9.702  10.316   9.076
24522SOL    HW175405   9.772  10.349   9.019
24522SOL    HW275406   9.640  10.388   9.081
24523SOL     OW75407   5.550   8.872  10.080
24523SOL    HW175408   5.544   8.791  10.029
24523SOL    HW275409   5.472   8.922  10.054
24524SOL     OW75410  11.626   9.548   2.096
24524SOL    HW175411  11.621   9.600   2.177
24524SOL    HW275412  11.535   9.524   2.078
24525SOL     OW75413  14.579  10.361  13.301
24525SOL    HW175414  14.607  10.428  13.238
24525SOL    HW275415  14.650  10.357  13.364
24526SOL     OW75416   0.968   9.529   8.267
24526SOL    HW175417   0.975   9.562   8.177
24526SOL    HW275418   0.876   9.545   8.291
24527SOL     OW75419   8.055   0.271   4.438
24527SOL    HW175420   8.096   0.323   4.507
24527SOL    HW275421   8.052   0.182   4.472
24528SOL     OW75422  14.140   7.704   1.049
24528SOL    HW175423  14.150   7.743   1.136
24528SOL    HW275424  14.160   7.776   0.989
24529SOL     OW75425   0.088   7.420  12.555
24529SOL    HW175426   0.085   7.514  12.574
24529SOL    HW275427   0.134   7.382  12.630
24530SOL     OW75428   3.809   7.092  11.366
24530SOL    HW175429   3.875   7.102  11.435
24530SOL    HW275430   3.730   7.066  11.413
24531SOL     OW75431   9.693   6.990   4.174
24531SOL    HW175432   9.777   7.033   4.159
24531SOL    HW275433   9.634   7.060   4.200
24532SOL     OW75434   1.749   7.681   0.847
24532SOL    HW175435   1.817   7.689   0.914
24532SOL    HW275436   1.758   7.760   0.794
24533SOL     OW75437   5.812   4.696  13.322
24533SOL    HW175438   5.764   4.618  13.295
24533SOL    HW275439   5.813   4.692  13.418
24534SOL     OW75440  11.975  11.101   0.590
24534SOL    HW175441  11.918  11.032   0.557
24534SOL    HW275442  11.932  11.182   0.565
24535SOL     OW75443   1.366   8.887   0.361
24535SOL    HW175444   1.277   8.910   0.335
24535SOL    HW275445   1.359   8.864   0.454
24536SOL     OW75446   9.357   1.418   5.901
24536SOL    HW175447   9.293   1.436   5.833
24536SOL    HW275448   9.368   1.502   5.947
24537SOL     OW75449   8.918  13.342   1.515
24537SOL    HW175450   8.951  13.354   1.426
24537SOL    HW275451   8.831  13.304   1.504
24538SOL     OW75452  14.501   8.399   0.267
24538SOL    HW175453  14.531   8.345   0.340
24538SOL    HW275454  14.580   8.440   0.232
24539SOL     OW75455  13.617  14.669  13.274
24539SOL    HW175456  13.570  14.590  13.247
24539SOL    HW275457  13.632  14.718  13.193
24540SOL     OW75458   5.234   7.936   8.452
24540SOL    HW175459   5.187   7.859   8.420
24540SOL    HW275460   5.164   7.996   8.479
24541SOL     OW75461   7.373  11.329  14.754
24541SOL    HW175462   7.294  11.384  14.761
24541SOL    HW275463   7.344  11.242  14.782
24542SOL     OW75464   4.708  12.650  13.727
24542SOL    HW175465   4.795  12.677  13.699
24542SOL    HW275466   4.718  12.558  13.753
24543SOL     OW75467   8.802   1.221  11.113
24543SOL    HW175468   8.737   1.179  11.056
24543SOL    HW275469   8.779   1.191  11.201
24544SOL     OW75470   4.509  12.240  10.515
24544SOL    HW175471   4.423  12.199  10.515
24544SOL    HW275472   4.538  12.238  10.424
24545SOL     OW75473  11.198   5.781  13.456
24545SOL    HW175474  11.130   5.807  13.395
24545SOL    HW275475  11.261   5.853  13.455
24546SOL     OW75476   4.885   4.936  14.356
24546SOL    HW175477   4.876   4.978  14.270
24546SOL    HW275478   4.837   4.994  14.415
24547SOL     OW75479   7.607   5.290   4.591
24547SOL    HW175480   7.684   5.340   4.621
24547SOL    HW275481   7.634   5.199   4.596
24548SOL     OW75482  13.804   9.829   8.563
24548SOL    HW175483  13.734   9.877   8.607
24548SOL    HW275484  13.758   9.762   8.513
24549SOL     OW75485   7.570   3.556  14.499
24549SOL    HW175486   7.483   3.536  14.535
24549SOL    HW275487   7.559   3.640  14.454
24550SOL     OW75488  11.886  14.382  13.641
24550SOL    HW175489  11.845  14.469  13.646
24550SOL    HW275490  11.829  14.326  13.694
24551SOL     OW75491   4.617  14.100   9.215
24551SOL    HW175492   4.577  14.033   9.270
24551SOL    HW275493   4.570  14.180   9.236
24552SOL     OW75494   9.993  14.447   7.740
24552SOL    HW175495  10.078  14.469   7.703
24552SOL    HW275496   9.930  14.501   7.691
24553SOL     OW75497  13.345   5.901   8.229
24553SOL    HW175498  13.250   5.897   8.232
24553SOL    HW275499  13.371   5.923   8.319
24554SOL     OW75500   0.933   5.830   2.032
24554SOL    HW175501   0.900   5.792   2.113
24554SOL    HW275502   1.020   5.863   2.055
24555SOL     OW75503   2.939  12.244  14.705
24555SOL    HW175504   2.859  12.296  14.692
24555SOL    HW275505   2.948  12.194  14.624
24556SOL     OW75506   8.807  13.954   5.442
24556SOL    HW175507   8.891  13.960   5.397
24556SOL    HW275508   8.806  13.866   5.479
24557SOL     OW75509   4.294   4.619  11.758
24557SOL    HW175510   4.370   4.677  11.753
24557SOL    HW275511   4.222   4.671  11.722
24558SOL     OW75512  14.503  12.129  12.226
24558SOL    HW175513  14.597  12.122  12.215
24558SOL    HW275514  14.490  12.141  12.321
24559SOL     OW75515   5.097  12.251   7.530
24559SOL    HW175516   5.020  12.209   7.568
24559SOL    HW275517   5.170  12.222   7.585
24560SOL     OW75518  10.134  13.199   8.799
24560SOL    HW175519  10.047  13.202   8.760
24560SOL    HW275520  10.127  13.134   8.868
24561SOL     OW75521  11.061   7.456   9.574
24561SOL    HW175522  11.012   7.425   9.499
24561SOL    HW275523  11.016   7.419   9.650
24562SOL     OW75524   4.206   8.518   5.218
24562SOL    HW175525   4.188   8.542   5.127
24562SOL    HW275526   4.189   8.424   5.222
24563SOL     OW75527  12.910   1.404   3.238
24563SOL    HW175528  12.902   1.398   3.143
24563SOL    HW275529  12.975   1.473   3.252
24564SOL     OW75530   1.642   1.895   6.708
24564SOL    HW175531   1.674   1.823   6.762
24564SOL    HW275532   1.588   1.852   6.641
24565SOL     OW75533   9.213  14.591  10.401
24565SOL    HW175534   9.306  14.608  10.416
24565SOL    HW275535   9.211  14.512  10.348
24566SOL     OW75536  11.621   9.832  10.517
24566SOL    HW175537  11.701   9.872  10.550
24566SOL    HW275538  11.627   9.740  10.544
24567SOL     OW75539   3.606   1.778   6.503
24567SOL    HW175540   3.601   1.833   6.425
24567SOL    HW275541   3.597   1.689   6.471
24568SOL     OW75542   0.605   5.687  12.179
24568SOL    HW175543   0.539   5.691  12.110
24568SOL    HW275544   0.678   5.638  12.139
24569SOL     OW75545   6.025  13.764  14.860
24569SOL    HW175546   5.981  13.730  14.782
24569SOL    HW275547   5.959  13.820   0.019
24570SOL     OW75548  10.251   1.906   0.558
24570SOL    HW175549  10.237   1.974   0.492
24570SOL    HW275550  10.250   1.824   0.509
24571SOL     OW75551   6.239   0.713  11.231
24571SOL    HW175552   6.267   0.773  11.162
24571SOL    HW275553   6.200   0.639  11.185
24572SOL     OW75554   2.605   5.304   4.440
24572SOL    HW175555   2.571   5.394   4.445
24572SOL    HW275556   2.633   5.295   4.349
24573SOL     OW75557   7.315   1.420  14.715
24573SOL    HW175558   7.270   1.455  14.792
24573SOL    HW275559   7.274   1.335  14.700
24574SOL     OW75560   2.862   2.107  12.266
24574SOL    HW175561   2.870   2.015  12.241
24574SOL    HW275562   2.941   2.148  12.231
24575SOL     OW75563   5.046   6.593   2.981
24575SOL    HW175564   5.007   6.538   3.050
24575SOL    HW275565   5.023   6.548   2.899
24576SOL     OW75566  12.380  12.031  13.537
24576SOL    HW175567  12.410  11.973  13.466
24576SOL    HW275568  12.400  11.983  13.617
24577SOL     OW75569   2.955  10.418  12.729
24577SOL    HW175570   3.044  10.386  12.719
24577SOL    HW275571   2.957  10.508  12.697
24578SOL     OW75572  11.698  12.261  11.200
24578SOL    HW175573  11.682  12.325  11.130
24578SOL    HW275574  11.747  12.310  11.266
24579SOL     OW75575   8.508  11.372   6.538
24579SOL    HW175576   8.477  11.370   6.447
24579SOL    HW275577   8.448  11.313   6.584
24580SOL     OW75578   9.022   6.707  12.547
24580SOL    HW175579   8.966   6.630  12.536
24580SOL    HW275580   9.015   6.728  12.640
24581SOL     OW75581  11.783   9.988   6.002
24581SOL    HW175582  11.772  10.058   5.937
24581SOL    HW275583  11.717   9.923   5.978
24582SOL     OW75584   2.001   1.951   0.858
24582SOL    HW175585   1.928   2.011   0.871
24582SOL    HW275586   2.064   1.974   0.926
24583SOL     OW75587  11.090   7.696  11.834
24583SOL    HW175588  11.067   7.789  11.828
24583SOL    HW275589  11.064   7.670  11.922
24584SOL     OW75590   4.111  12.938  12.696
24584SOL    HW175591   4.173  12.970  12.762
24584SOL    HW275592   4.083  12.853  12.729
24585SOL     OW75593   4.912   1.245  10.297
24585SOL    HW175594   4.955   1.325  10.327
24585SOL    HW275595   4.875   1.268  10.211
24586SOL     OW75596   0.919  12.652   4.472
24586SOL    HW175597   0.825  12.636   4.468
24586SOL    HW275598   0.928  12.746   4.457
24587SOL     OW75599   0.888   7.058   6.620
24587SOL    HW175600   0.945   7.077   6.694
24587SOL    HW275601   0.948   7.042   6.547
24588SOL     OW75602   9.252  14.133   2.625
24588SOL    HW175603   9.270  14.224   2.648
24588SOL    HW275604   9.330  14.105   2.576
24589SOL     OW75605   9.814   3.205   4.439
24589SOL    HW175606   9.749   3.238   4.501
24589SOL    HW275607   9.898   3.240   4.471
24590SOL     OW75608  13.088   3.807   9.600
24590SOL    HW175609  12.993   3.797   9.610
24590SOL    HW275610  13.120   3.719   9.583
24591SOL     OW75611   1.821   4.050   6.788
24591SOL    HW175612   1.887   3.989   6.819
24591SOL    HW275613   1.742   3.997   6.777
24592SOL     OW75614   9.486  11.956  11.360
24592SOL    HW175615   9.574  11.991  11.371
24592SOL    HW275616   9.443  12.018  11.301
24593SOL     OW75617  10.065   7.271   6.887
24593SOL    HW175618  10.014   7.281   6.967
24593SOL    HW275619  10.049   7.181   6.859
24594SOL     OW75620  13.578  13.772  13.129
24594SOL    HW175621  13.593  13.811  13.043
24594SOL    HW275622  13.501  13.818  13.163
24595SOL     OW75623   0.282   7.705   6.387
24595SOL    HW175624   0.250   7.621   6.353
24595SOL    HW275625   0.260   7.768   6.319
24596SOL     OW75626   7.769   0.869   6.624
24596SOL    HW175627   7.733   0.940   6.572
24596SOL    HW275628   7.860   0.893   6.639
24597SOL     OW75629   6.388   1.333   2.669
24597SOL    HW175630   6.337   1.413   2.658
24597SOL    HW275631   6.476   1.363   2.692
24598SOL     OW75632   2.986   6.946  12.106
24598SOL    HW175633   2.990   6.992  12.190
24598SOL    HW275634   3.076   6.923  12.086
24599SOL     OW75635   0.399   4.115  14.248
24599SOL    HW175636   0.319   4.087  14.291
24599SOL    HW275637   0.465   4.052  14.278
24600SOL     OW75638   0.891   0.709   0.336
24600SOL    HW175639   0.973   0.668   0.362
24600SOL    HW275640   0.871   0.672   0.250
24601SOL     OW75641   2.984   0.558   8.709
24601SOL    HW175642   2.914   0.523   8.763
24601SOL    HW275643   3.056   0.495   8.716
24602SOL     OW75644   0.545   9.715   7.387
24602SOL    HW175645   0.504   9.759   7.313
24602SOL    HW275646   0.485   9.731   7.460
24603SOL     OW75647   8.794   7.381   8.235
24603SOL    HW175648   8.759   7.340   8.156
24603SOL    HW275649   8.732   7.357   8.304
24604SOL     OW75650   6.038   3.794  12.068
24604SOL    HW175651   6.032   3.703  12.037
24604SOL    HW275652   6.130   3.804  12.093
24605SOL     OW75653  11.572   8.293   1.608
24605SOL    HW175654  11.623   8.350   1.666
24605SOL    HW275655  11.636   8.234   1.569
24606SOL     OW75656   8.221  11.204   4.005
24606SOL    HW175657   8.184  11.287   3.976
24606SOL    HW275658   8.196  11.196   4.097
24607SOL     OW75659  14.786  11.881   1.938
24607SOL    HW175660  14.735  11.953   1.975
24607SOL    HW275661  14.798  11.906   1.846
24608SOL     OW75662   3.146  10.140   7.683
24608SOL    HW175663   3.233  10.134   7.722
24608SOL    HW275664   3.159  10.196   7.606
24609SOL     OW75665  12.877   9.681   4.214
24609SOL    HW175666  12.963   9.701   4.251
24609SOL    HW275667  12.896   9.630   4.136
24610SOL     OW75668  14.866   6.919   2.451
24610SOL    HW175669  14.853   6.852   2.518
24610SOL    HW275670  14.790   6.976   2.459
24611SOL     OW75671   5.814   7.537   8.391
24611SOL    HW175672   5.823   7.574   8.479
24611SOL    HW275673   5.723   7.554   8.367
24612SOL     OW75674   8.220  14.573  14.863
24612SOL    HW175675   8.303  14.580  14.817
24612SOL    HW275676   8.228  14.492   0.032
24613SOL     OW75677   7.106   3.223   4.615
24613SOL    HW175678   7.096   3.250   4.706
24613SOL    HW275679   7.079   3.132   4.614
24614SOL     OW75680  12.108   0.383   3.899
24614SOL    HW175681  12.132   0.421   3.814
24614SOL    HW275682  12.037   0.440   3.931
24615SOL     OW75683   3.761   8.406   3.247
24615SOL    HW175684   3.796   8.443   3.166
24615SOL    HW275685   3.667   8.398   3.233
24616SOL     OW75686   5.193  12.505   7.495
24616SOL    HW175687   5.232  12.546   7.572
24616SOL    HW275688   5.182  12.414   7.520
24617SOL     OW75689  12.074  10.505   1.106
24617SOL    HW175690  12.160  10.466   1.090
24617SOL    HW275691  12.079  10.592   1.068
24618SOL     OW75692   1.676   1.824   0.051
24618SOL    HW175693   1.712   1.765   0.117
24618SOL    HW275694   1.711   1.910   0.074
24619SOL     OW75695   4.399  11.435   4.508
24619SOL    HW175696   4.490  11.410   4.496
24619SOL    HW275697   4.385  11.506   4.445
24620SOL     OW75698   7.684  10.378   5.182
24620SOL    HW175699   7.749  10.421   5.237
24620SOL    HW275700   7.645  10.449   5.131
24621SOL     OW75701  11.316  10.036   6.230
24621SOL    HW175702  11.351  10.099   6.167
24621SOL    HW275703  11.337  10.073   6.316
24622SOL     OW75704  12.007   6.925   0.850
24622SOL    HW175705  11.989   6.989   0.781
24622SOL    HW275706  12.042   6.977   0.922
24623SOL     OW75707   6.303   3.113   9.960
24623SOL    HW175708   6.274   3.182   9.900
24623SOL    HW275709   6.396   3.130   9.973
24624SOL     OW75710   7.517   6.469  13.974
24624SOL    HW175711   7.606   6.462  14.007
24624SOL    HW275712   7.525   6.455  13.879
24625SOL     OW75713   8.085   3.997   6.885
24625SOL    HW175714   8.085   3.935   6.813
24625SOL    HW275715   8.177   4.004   6.911
24626SOL     OW75716   6.847   7.994   0.877
24626SOL    HW175717   6.919   8.057   0.869
24626SOL    HW275718   6.771   8.042   0.844
24627SOL     OW75719   1.382   4.207   9.987
24627SOL    HW175720   1.317   4.195   9.918
24627SOL    HW275721   1.431   4.125   9.989
24628SOL     OW75722   0.960   2.467  11.773
24628SOL    HW175723   1.055   2.459  11.781
24628SOL    HW275724   0.926   2.432  11.855
24629SOL     OW75725   4.664   3.823  10.646
24629SOL    HW175726   4.759   3.814  10.651
24629SOL    HW275727   4.643   3.898  10.701
24630SOL     OW75728   3.603  13.750   3.329
24630SOL    HW175729   3.529  13.759   3.269
24630SOL    HW275730   3.665  13.694   3.283
24631SOL     OW75731  10.000   7.142   8.097
24631SOL    HW175732   9.993   7.070   8.035
24631SOL    HW275733  10.081   7.188   8.073
24632SOL     OW75734   5.590   6.570   7.328
24632SOL    HW175735   5.500   6.559   7.297
24632SOL    HW275736   5.618   6.482   7.351
24633SOL     OW75737  12.507   3.703   7.131
24633SOL    HW175738  12.502   3.649   7.052
24633SOL    HW275739  12.456   3.781   7.110
24634SOL     OW75740  10.802   5.089  10.304
24634SOL    HW175741  10.872   5.126  10.358
24634SOL    HW275742  10.722   5.106  10.354
24635SOL     OW75743   6.145   8.122   2.304
24635SOL    HW175744   6.081   8.098   2.371
24635SOL    HW275745   6.132   8.216   2.291
24636SOL     OW75746   9.949   5.121  10.601
24636SOL    HW175747   9.998   5.074  10.534
24636SOL    HW275748   9.944   5.059  10.674
24637SOL     OW75749   6.392   3.670   7.318
24637SOL    HW175750   6.318   3.636   7.368
24637SOL    HW275751   6.352   3.715   7.243
24638SOL     OW75752   3.786  11.534   3.838
24638SOL    HW175753   3.840  11.549   3.915
24638SOL    HW275754   3.784  11.618   3.792
24639SOL     OW75755  10.190   4.604  13.184
24639SOL    HW175756  10.263   4.626  13.241
24639SOL    HW275757  10.140   4.539  13.233
24640SOL     OW75758   2.970   7.929  12.466
24640SOL    HW175759   3.036   7.862  12.485
24640SOL    HW275760   3.020   8.009  12.453
24641SOL     OW75761   5.299   5.702   9.267
24641SOL    HW175762   5.241   5.762   9.313
24641SOL    HW275763   5.268   5.615   9.291
24642SOL     OW75764   1.759   2.179  12.307
24642SOL    HW175765   1.740   2.160  12.399
24642SOL    HW275766   1.754   2.274  12.300
24643SOL     OW75767   2.956  11.922   3.286
24643SOL    HW175768   2.989  11.921   3.196
24643SOL    HW275769   3.014  11.982   3.332
24644SOL     OW75770   3.664  12.250   8.241
24644SOL    HW175771   3.654  12.177   8.180
24644SOL    HW275772   3.687  12.325   8.185
24645SOL     OW75773  11.146   0.917   8.862
24645SOL    HW175774  11.076   0.896   8.923
24645SOL    HW275775  11.152   0.840   8.805
24646SOL     OW75776   8.273   2.845  12.997
24646SOL    HW175777   8.299   2.771  12.942
24646SOL    HW275778   8.338   2.912  12.979
24647SOL     OW75779   2.502  12.813   9.681
24647SOL    HW175780   2.494  12.896   9.728
24647SOL    HW275781   2.415  12.774   9.685
24648SOL     OW75782  11.022   7.957   0.742
24648SOL    HW175783  10.977   8.014   0.681
24648SOL    HW275784  11.008   7.997   0.828
24649SOL     OW75785   9.332  11.447  13.569
24649SOL    HW175786   9.390  11.423  13.497
24649SOL    HW275787   9.298  11.363  13.600
24650SOL     OW75788   6.429   0.253   9.016
24650SOL    HW175789   6.445   0.335   8.969
24650SOL    HW275790   6.482   0.261   9.096
24651SOL     OW75791   5.541  13.335  13.260
24651SOL    HW175792   5.452  13.345  13.227
24651SOL    HW275793   5.545  13.395  13.335
24652SOL     OW75794  14.303   0.211   1.813
24652SOL    HW175795  14.312   0.204   1.718
24652SOL    HW275796  14.393   0.222   1.845
24653SOL     OW75797   7.635   7.304  13.114
24653SOL    HW175798   7.713   7.250  13.126
24653SOL    HW275799   7.598   7.276  13.030
24654SOL     OW75800   1.331   4.580   3.322
24654SOL    HW175801   1.237   4.582   3.343
24654SOL    HW275802   1.364   4.664   3.353
24655SOL     OW75803   3.905  12.035  12.309
24655SOL    HW175804   3.813  12.014  12.327
24655SOL    HW275805   3.903  12.079  12.224
24656SOL     OW75806   1.486  12.988  11.329
24656SOL    HW175807   1.489  13.025  11.240
24656SOL    HW275808   1.576  12.964  11.348
24657SOL     OW75809  11.334   7.661   8.714
24657SOL    HW175810  11.333   7.574   8.674
24657SOL    HW275811  11.314   7.721   8.642
24658SOL     OW75812  12.356  10.889   3.739
24658SOL    HW175813  12.381  10.875   3.830
24658SOL    HW275814  12.421  10.838   3.689
24659SOL     OW75815  11.387   2.413  10.095
24659SOL    HW175816  11.364   2.497  10.056
24659SOL    HW275817  11.327   2.402  10.168
24660SOL     OW75818  10.953  14.533   3.473
24660SOL    HW175819  10.957  14.557   3.566
24660SOL    HW275820  10.860  14.518   3.457
24661SOL     OW75821   3.519   2.688  12.973
24661SOL    HW175822   3.605   2.664  13.008
24661SOL    HW275823   3.458   2.630  13.018
24662SOL     OW75824   2.061   4.343   7.192
24662SOL    HW175825   2.052   4.258   7.150
24662SOL    HW275826   1.983   4.352   7.247
24663SOL     OW75827   3.040   1.884   3.821
24663SOL    HW175828   3.064   1.919   3.907
24663SOL    HW275829   3.100   1.812   3.806
24664SOL     OW75830   7.166   1.710   4.667
24664SOL    HW175831   7.199   1.641   4.610
24664SOL    HW275832   7.093   1.749   4.619
24665SOL     OW75833   7.474   6.455  11.737
24665SOL    HW175834   7.516   6.405  11.666
24665SOL    HW275835   7.386   6.473  11.704
24666SOL     OW75836  12.712   5.903   1.268
24666SOL    HW175837  12.723   5.813   1.238
24666SOL    HW275838  12.708   5.897   1.364
24667SOL     OW75839  13.249   1.656   9.174
24667SOL    HW175840  13.293   1.620   9.251
24667SOL    HW275841  13.279   1.747   9.169
24668SOL     OW75842   1.103   5.455  14.159
24668SOL    HW175843   1.098   5.378  14.102
24668SOL    HW275844   1.094   5.420  14.248
24669SOL     OW75845   6.985   9.772   6.532
24669SOL    HW175846   6.910   9.715   6.515
24669SOL    HW275847   7.012   9.803   6.445
24670SOL     OW75848   9.834   7.268   6.040
24670SOL    HW175849   9.857   7.202   6.106
24670SOL    HW275850   9.847   7.352   6.084
24671SOL     OW75851   9.030  14.346   8.543
24671SOL    HW175852   8.984  14.326   8.461
24671SOL    HW275853   9.048  14.440   8.538
24672SOL     OW75854   3.835   6.662  11.077
24672SOL    HW175855   3.915   6.647  11.127
24672SOL    HW275856   3.766   6.670  11.143
24673SOL     OW75857   7.956  10.558   2.423
24673SOL    HW175858   7.886  10.605   2.469
24673SOL    HW275859   7.910  10.504   2.359
24674SOL     OW75860  12.970   7.645   4.945
24674SOL    HW175861  12.925   7.633   5.029
24674SOL    HW275862  12.900   7.644   4.880
24675SOL     OW75863  13.183   8.094   9.363
24675SOL    HW175864  13.231   8.014   9.342
24675SOL    HW275865  13.156   8.083   9.454
24676SOL     OW75866   1.231   1.312   9.679
24676SOL    HW175867   1.197   1.278   9.762
24676SOL    HW275868   1.296   1.247   9.651
24677SOL     OW75869   9.754   7.337   5.499
24677SOL    HW175870   9.692   7.328   5.571
24677SOL    HW275871   9.716   7.286   5.428
24678SOL     OW75872   4.270  13.192   3.956
24678SOL    HW175873   4.321  13.171   4.035
24678SOL    HW275874   4.205  13.255   3.986
24679SOL     OW75875   0.045  14.371  11.720
24679SOL    HW175876   0.059  14.466  11.721
24679SOL    HW275877   0.091  14.340  11.799
24680SOL     OW75878   9.819   2.774   6.562
24680SOL    HW175879   9.855   2.704   6.618
24680SOL    HW275880   9.873   2.850   6.582
24681SOL     OW75881   4.375   7.753   1.303
24681SOL    HW175882   4.330   7.805   1.237
24681SOL    HW275883   4.463   7.740   1.269
24682SOL     OW75884   7.842  11.401   4.046
24682SOL    HW175885   7.911  11.348   4.007
24682SOL    HW275886   7.844  11.378   4.139
24683SOL     OW75887   1.440   8.057  12.444
24683SOL    HW175888   1.400   8.126  12.391
24683SOL    HW275889   1.431   8.088  12.534
24684SOL     OW75890   1.295  11.186   7.155
24684SOL    HW175891   1.367  11.179   7.218
24684SOL    HW275892   1.245  11.105   7.167
24685SOL     OW75893   2.741   5.446  14.344
24685SOL    HW175894   2.684   5.493  14.405
24685SOL    HW275895   2.824   5.492  14.347
24686SOL     OW75896   8.863   2.365   6.000
24686SOL    HW175897   8.886   2.434   6.063
24686SOL    HW275898   8.809   2.410   5.935
24687SOL     OW75899   6.196   3.685   0.389
24687SOL    HW175900   6.190   3.770   0.347
24687SOL    HW275901   6.289   3.662   0.385
24688SOL     OW75902   2.625   1.851  10.506
24688SOL    HW175903   2.585   1.852  10.419
24688SOL    HW275904   2.717   1.831  10.491
24689SOL     OW75905  12.633  12.315  12.090
24689SOL    HW175906  12.712  12.362  12.117
24689SOL    HW275907  12.571  12.331  12.161
24690SOL     OW75908  10.357   1.869   3.099
24690SOL    HW175909  10.371   1.829   3.014
24690SOL    HW275910  10.438   1.918   3.117
24691SOL     OW75911   2.556  14.039   7.893
24691SOL    HW175912   2.601  14.116   7.928
24691SOL    HW275913   2.479  14.028   7.948
24692SOL     OW75914   3.331   3.000   5.309
24692SOL    HW175915   3.244   3.032   5.288
24692SOL    HW275916   3.369   3.069   5.364
24693SOL     OW75917   0.535  14.786   6.444
24693SOL    HW175918   0.593  14.717   6.413
24693SOL    HW275919   0.593  14.859   6.467
24694SOL     OW75920   6.217   4.436   7.683
24694SOL    HW175921   6.131   4.472   7.703
24694SOL    HW275922   6.201   4.374   7.612
24695SOL     OW75923  12.155   4.189   5.276
24695SOL    HW175924  12.109   4.190   5.360
24695SOL    HW275925  12.160   4.097   5.252
24696SOL     OW75926   6.413   5.658  13.324
24696SOL    HW175927   6.460   5.721  13.270
24696SOL    HW275928   6.334   5.705  13.352
24697SOL     OW75929   0.555   1.120   8.024
24697SOL    HW175930   0.630   1.169   7.991
24697SOL    HW275931   0.480   1.179   8.013
24698SOL     OW75932   1.090   4.464   9.124
24698SOL    HW175933   1.007   4.503   9.155
24698SOL    HW275934   1.156   4.529   9.147
24699SOL     OW75935  11.555   0.020  10.342
24699SOL    HW175936  11.511   0.021  10.257
24699SOL    HW275937  11.515   0.091  10.392
24700SOL     OW75938   4.466   0.636  14.283
24700SOL    HW175939   4.529   0.576  14.243
24700SOL    HW275940   4.380   0.601  14.259
24701SOL     OW75941   0.605   5.959  13.562
24701SOL    HW175942   0.580   6.045  13.596
24701SOL    HW275943   0.691   5.973  13.521
24702SOL     OW75944   3.476   8.293  11.324
24702SOL    HW175945   3.512   8.206  11.341
24702SOL    HW275946   3.465   8.297  11.229
24703SOL     OW75947   5.376   6.892   1.615
24703SOL    HW175948   5.293   6.931   1.641
24703SOL    HW275949   5.432   6.966   1.592
24704SOL     OW75950  11.697   0.723   8.848
24704SOL    HW175951  11.685   0.661   8.919
24704SOL    HW275952  11.759   0.681   8.789
24705SOL     OW75953   8.985  12.212  13.159
24705SOL    HW175954   9.030  12.148  13.104
24705SOL    HW275955   9.047  12.285  13.166
24706SOL     OW75956   4.841  14.116   2.442
24706SOL    HW175957   4.758  14.150   2.476
24706SOL    HW275958   4.882  14.192   2.400
24707SOL     OW75959   4.380   1.884  14.328
24707SOL    HW175960   4.307   1.944  14.344
24707SOL    HW275961   4.417   1.868  14.415
24708SOL     OW75962   4.352   9.563   7.414
24708SOL    HW175963   4.373   9.496   7.479
24708SOL    HW275964   4.368   9.520   7.330
24709SOL     OW75965   0.994   1.628  14.468
24709SOL    HW175966   0.988   1.706  14.523
24709SOL    HW275967   1.082   1.632  14.429
24710SOL     OW75968   8.938   4.181   4.518
24710SOL    HW175969   8.924   4.190   4.424
24710SOL    HW275970   8.921   4.088   4.536
24711SOL     OW75971   9.512  13.211  10.351
24711SOL    HW175972   9.530  13.158  10.274
24711SOL    HW275973   9.476  13.293  10.317
24712SOL     OW75974  14.626   6.218   1.916
24712SOL    HW175975  14.563   6.211   1.844
24712SOL    HW275976  14.596   6.153   1.979
24713SOL     OW75977   5.154   1.328   0.470
24713SOL    HW175978   5.122   1.338   0.380
24713SOL    HW275979   5.137   1.237   0.492
24714SOL     OW75980   1.210  12.081   8.371
24714SOL    HW175981   1.257  11.998   8.359
24714SOL    HW275982   1.120  12.061   8.342
24715SOL     OW75983   0.096   5.630   8.817
24715SOL    HW175984   0.149   5.708   8.804
24715SOL    HW275985   0.014   5.661   8.855
24716SOL     OW75986   4.809   5.731   9.156
24716SOL    HW175987   4.827   5.685   9.074
24716SOL    HW275988   4.814   5.662   9.223
24717SOL     OW75989   2.452   0.037   9.492
24717SOL    HW175990   2.472  14.867   9.414
24717SOL    HW275991   2.357   0.033   9.499
24718SOL     OW75992   3.899   7.247  10.830
24718SOL    HW175993   3.953   7.202  10.765
24718SOL    HW275994   3.921   7.340  10.819
24719SOL     OW75995   4.449  13.294  11.282
24719SOL    HW175996   4.369  13.265  11.326
24719SOL    HW275997   4.422  13.313  11.192
24720SOL     OW75998   7.235  11.972   7.553
24720SOL    HW175999   7.142  11.979   7.574
24720SOL    HW276000   7.252  11.878   7.551
24721SOL     OW76001   2.845   3.223   4.260
24721SOL    HW176002   2.798   3.280   4.200
24721SOL    HW276003   2.903   3.281   4.308
24722SOL     OW76004   5.608   8.573   6.981
24722SOL    HW176005   5.664   8.496   6.982
24722SOL    HW276006   5.631   8.619   6.900
24723SOL     OW76007   3.005   1.838   4.867
24723SOL    HW176008   3.095   1.861   4.845
24723SOL    HW276009   2.952   1.891   4.808
24724SOL     OW76010   7.834  14.242  10.037
24724SOL    HW176011   7.831  14.146  10.040
24724SOL    HW276012   7.865  14.262   9.949
24725SOL     OW76013   9.036   4.550   9.056
24725SOL    HW176014   9.028   4.642   9.028
24725SOL    HW276015   8.996   4.548   9.143
24726SOL     OW76016   1.111   0.860  12.129
24726SOL    HW176017   1.074   0.949  12.128
24726SOL    HW276018   1.174   0.861  12.201
24727SOL     OW76019   7.437   0.062   5.735
24727SOL    HW176020   7.469   0.010   5.808
24727SOL    HW276021   7.371   0.120   5.774
24728SOL     OW76022   1.796   3.258  14.795
24728SOL    HW176023   1.859   3.325  14.821
24728SOL    HW276024   1.747   3.238  14.875
24729SOL     OW76025  10.352  12.579   1.825
24729SOL    HW176026  10.375  12.542   1.910
24729SOL    HW276027  10.345  12.674   1.841
24730SOL     OW76028  13.563   5.138  13.809
24730SOL    HW176029  13.558   5.044  13.791
24730SOL    HW276030  13.540   5.145  13.902
24731SOL     OW76031  11.429  14.284   8.173
24731SOL    HW176032  11.408  14.329   8.255
24731SOL    HW276033  11.524  14.270   8.177
24732SOL     OW76034   4.169   1.816   7.116
24732SOL    HW176035   4.082   1.856   7.125
24732SOL    HW276036   4.230   1.888   7.131
24733SOL     OW76037  14.044  13.350   8.011
24733SOL    HW176038  14.004  13.403   7.942
24733SOL    HW276039  13.979  13.347   8.080
24734SOL     OW76040   3.311   8.913  14.498
24734SOL    HW176041   3.291   8.858  14.574
24734SOL    HW276042   3.260   8.992  14.513
24735SOL     OW76043  12.262  13.500   7.130
24735SOL    HW176044  12.268  13.531   7.221
24735SOL    HW276045  12.181  13.449   7.128
24736SOL     OW76046   3.182  11.476  13.721
24736SOL    HW176047   3.152  11.494  13.810
24736SOL    HW276048   3.226  11.392  13.727
24737SOL     OW76049   1.773  13.894   4.278
24737SOL    HW176050   1.788  13.915   4.370
24737SOL    HW276051   1.860  13.873   4.244
24738SOL     OW76052   0.598   3.640   3.238
24738SOL    HW176053   0.663   3.592   3.187
24738SOL    HW276054   0.591   3.590   3.320
24739SOL     OW76055   7.321   5.185   4.364
24739SOL    HW176056   7.306   5.263   4.418
24739SOL    HW276057   7.415   5.187   4.344
24740SOL     OW76058   7.659   6.484   8.665
24740SOL    HW176059   7.668   6.490   8.570
24740SOL    HW276060   7.565   6.475   8.679
24741SOL     OW76061   6.088  14.778   4.485
24741SOL    HW176062   6.102  14.858   4.536
24741SOL    HW276063   6.097  14.707   4.549
24742SOL     OW76064  12.667   5.830   1.529
24742SOL    HW176065  12.645   5.860   1.617
24742SOL    HW276066  12.729   5.758   1.543
24743SOL     OW76067   8.856  12.065   2.100
24743SOL    HW176068   8.770  12.074   2.142
24743SOL    HW276069   8.885  11.977   2.122
24744SOL     OW76070   3.070  14.206   3.811
24744SOL    HW176071   3.155  14.162   3.805
24744SOL    HW276072   3.053  14.212   3.905
24745SOL     OW76073   1.587   1.211  14.183
24745SOL    HW176074   1.664   1.160  14.158
24745SOL    HW276075   1.512   1.160  14.150
24746SOL     OW76076   5.538  10.824   3.143
24746SOL    HW176077   5.550  10.882   3.067
24746SOL    HW276078   5.456  10.778   3.125
24747SOL     OW76079   6.900   6.525   8.963
24747SOL    HW176080   6.989   6.511   8.996
24747SOL    HW276081   6.910   6.589   8.892
24748SOL     OW76082  12.020  12.281  13.710
24748SOL    HW176083  12.071  12.315  13.636
24748SOL    HW276084  12.041  12.339  13.783
24749SOL     OW76085   4.431   5.336  12.565
24749SOL    HW176086   4.374   5.368  12.495
24749SOL    HW276087   4.516   5.374  12.546
24750SOL     OW76088  13.992  12.596   8.224
24750SOL    HW176089  13.918  12.536   8.235
24750SOL    HW276090  13.964  12.677   8.268
24751SOL     OW76091   7.718   8.808  10.698
24751SOL    HW176092   7.625   8.790  10.688
24751SOL    HW276093   7.735   8.881  10.639
24752SOL     OW76094  13.786   6.772  10.527
24752SOL    HW176095  13.798   6.841  10.591
24752SOL    HW276096  13.874   6.745  10.503
24753SOL     OW76097   3.745   0.870   8.811
24753SOL    HW176098   3.818   0.933   8.810
24753SOL    HW276099   3.737   0.845   8.904
24754SOL     OW76100   3.895   2.472  10.151
24754SOL    HW176101   3.961   2.538  10.130
24754SOL    HW276102   3.919   2.396  10.098
24755SOL     OW76103   8.980  10.187   4.322
24755SOL    HW176104   9.055  10.232   4.283
24755SOL    HW276105   9.002  10.094   4.318
24756SOL     OW76106   0.816   0.830  10.285
24756SOL    HW176107   0.884   0.872  10.339
24756SOL    HW276108   0.863   0.792  10.212
24757SOL     OW76109   7.792   7.592   4.693
24757SOL    HW176110   7.721   7.652   4.667
24757SOL    HW276111   7.755   7.541   4.765
24758SOL     OW76112   2.747   3.586   5.132
24758SOL    HW176113   2.669   3.614   5.085
24758SOL    HW276114   2.715   3.550   5.214
24759SOL     OW76115  11.542   6.794   7.033
24759SOL    HW176116  11.488   6.818   7.108
24759SOL    HW276117  11.593   6.872   7.014
24760SOL     OW76118   8.584   3.287   7.501
24760SOL    HW176119   8.653   3.269   7.565
24760SOL    HW276120   8.575   3.204   7.453
24761SOL     OW76121   7.726   3.800  13.542
24761SOL    HW176122   7.651   3.776  13.596
24761SOL    HW276123   7.709   3.890  13.515
24762SOL     OW76124   8.678  10.970   4.126
24762SOL    HW176125   8.719  11.033   4.067
24762SOL    HW276126   8.619  11.023   4.180
24763SOL     OW76127   1.398   3.660   7.393
24763SOL    HW176128   1.471   3.615   7.436
24763SOL    HW276129   1.362   3.594   7.333
24764SOL     OW76130   5.847   6.294  12.128
24764SOL    HW176131   5.857   6.388  12.109
24764SOL    HW276132   5.872   6.286  12.220
24765SOL     OW76133  12.508   5.018   5.534
24765SOL    HW176134  12.448   5.092   5.522
24765SOL    HW276135  12.455   4.941   5.513
24766SOL     OW76136   5.172   9.467  10.147
24766SOL    HW176137   5.082   9.481  10.178
24766SOL    HW276138   5.161   9.414  10.068
24767SOL     OW76139  12.598   3.948   3.521
24767SOL    HW176140  12.669   3.890   3.551
24767SOL    HW276141  12.615   4.031   3.566
24768SOL     OW76142  12.733   8.216   7.577
24768SOL    HW176143  12.822   8.228   7.608
24768SOL    HW276144  12.682   8.201   7.657
24769SOL     OW76145  12.633   4.752   7.618
24769SOL    HW176146  12.595   4.667   7.640
24769SOL    HW276147  12.650   4.794   7.703
24770SOL     OW76148   9.501  12.061   3.229
24770SOL    HW176149   9.470  12.062   3.320
24770SOL    HW276150   9.528  11.971   3.214
24771SOL     OW76151   2.384  10.616   6.393
24771SOL    HW176152   2.386  10.524   6.367
24771SOL    HW276153   2.309  10.623   6.451
24772SOL     OW76154  11.552   0.606   9.099
24772SOL    HW176155  11.488   0.615   9.028
24772SOL    HW276156  11.532   0.679   9.158
24773SOL     OW76157  10.624  11.535   4.155
24773SOL    HW176158  10.701  11.541   4.211
24773SOL    HW276159  10.647  11.583   4.076
24774SOL     OW76160  12.829   2.249   0.545
24774SOL    HW176161  12.774   2.327   0.547
24774SOL    HW276162  12.792   2.192   0.613
24775SOL     OW76163   3.162  13.846  12.031
24775SOL    HW176164   3.170  13.765  12.081
24775SOL    HW276165   3.153  13.817  11.940
24776SOL     OW76166  13.299   9.271   3.385
24776SOL    HW176167  13.336   9.218   3.455
24776SOL    HW276168  13.367   9.274   3.318
24777SOL     OW76169  14.643   7.268   1.235
24777SOL    HW176170  14.676   7.326   1.166
24777SOL    HW276171  14.643   7.323   1.314
24778SOL     OW76172   9.427  12.455   5.437
24778SOL    HW176173   9.493  12.504   5.388
24778SOL    HW276174   9.352  12.514   5.444
24779SOL     OW76175  13.467   8.757  13.344
24779SOL    HW176176  13.399   8.803  13.294
24779SOL    HW276177  13.422   8.681  13.380
24780SOL     OW76178   5.342   6.922   2.716
24780SOL    HW176179   5.253   6.887   2.715
24780SOL    HW276180   5.381   6.891   2.635
24781SOL     OW76181   0.967   3.950   5.247
24781SOL    HW176182   0.909   3.934   5.173
24781SOL    HW276183   1.055   3.945   5.210
24782SOL     OW76184  13.200   3.474   5.409
24782SOL    HW176185  13.107   3.457   5.426
24782SOL    HW276186  13.245   3.400   5.450
24783SOL     OW76187   2.711   1.726   0.537
24783SOL    HW176188   2.783   1.743   0.598
24783SOL    HW276189   2.726   1.637   0.505
24784SOL     OW76190  14.530   6.206  12.655
24784SOL    HW176191  14.524   6.254  12.738
24784SOL    HW276192  14.598   6.253  12.606
24785SOL     OW76193   4.112   3.813  12.200
24785SOL    HW176194   4.141   3.833  12.289
24785SOL    HW276195   4.022   3.784  12.210
24786SOL     OW76196  12.538  10.792   5.545
24786SOL    HW176197  12.564  10.791   5.453
24786SOL    HW276198  12.505  10.881   5.560
24787SOL     OW76199   1.082  13.546   7.050
24787SOL    HW176200   1.134  13.474   7.015
24787SOL    HW276201   0.997  13.507   7.068
24788SOL     OW76202   8.118   8.217   1.933
24788SOL    HW176203   8.027   8.199   1.957
24788SOL    HW276204   8.113   8.247   1.842
24789SOL     OW76205  12.044  12.487   3.196
24789SOL    HW176206  12.073  12.539   3.121
24789SOL    HW276207  12.125  12.455   3.236
24790SOL     OW76208  13.304  14.780   9.708
24790SOL    HW176209  13.323  14.750   9.619
24790SOL    HW276210  13.212  14.805   9.706
24791SOL     OW76211  10.900   1.607   7.756
24791SOL    HW176212  10.839   1.645   7.693
24791SOL    HW276213  10.868   1.517   7.769
24792SOL     OW76214   8.747   5.274   5.763
24792SOL    HW176215   8.768   5.355   5.810
24792SOL    HW276216   8.827   5.222   5.767
24793SOL     OW76217  10.865   8.017   7.440
24793SOL    HW176218  10.811   7.955   7.489
24793SOL    HW276219  10.955   7.996   7.467
24794SOL     OW76220  11.603  11.884   4.156
24794SOL    HW176221  11.697  11.865   4.151
24794SOL    HW276222  11.561  11.805   4.121
24795SOL     OW76223  13.374   1.280  12.162
24795SOL    HW176224  13.423   1.203  12.191
24795SOL    HW276225  13.309   1.294  12.231
24796SOL     OW76226   0.225   2.505   1.382
24796SOL    HW176227   0.206   2.471   1.470
24796SOL    HW276228   0.282   2.439   1.343
24797SOL     OW76229   9.342   8.910  12.766
24797SOL    HW176230   9.253   8.875  12.774
24797SOL    HW276231   9.343   8.986  12.824
24798SOL     OW76232   0.201  13.860   5.532
24798SOL    HW176233   0.207  13.931   5.596
24798SOL    HW276234   0.281  13.866   5.481
24799SOL     OW76235   5.221   6.667  14.125
24799SOL    HW176236   5.167   6.738  14.091
24799SOL    HW276237   5.167   6.627  14.193
24800SOL     OW76238   7.846  13.780   2.706
24800SOL    HW176239   7.841  13.876   2.710
24800SOL    HW276240   7.924  13.762   2.655
24801SOL     OW76241  13.140  14.306   8.576
24801SOL    HW176242  13.098  14.343   8.498
24801SOL    HW276243  13.071  14.306   8.642
24802SOL     OW76244   8.401   6.067  10.802
24802SOL    HW176245   8.389   6.008  10.876
24802SOL    HW276246   8.358   6.023  10.728
24803SOL     OW76247   4.100  11.079  10.739
24803SOL    HW176248   4.079  11.052  10.828
24803SOL    HW276249   4.153  11.007  10.704
24804SOL     OW76250   7.904  12.964   0.579
24804SOL    HW176251   7.829  13.007   0.540
24804SOL    HW276252   7.906  12.994   0.669
24805SOL     OW76253  14.042  12.453   0.763
24805SOL    HW176254  13.984  12.525   0.789
24805SOL    HW276255  14.128  12.477   0.799
24806SOL     OW76256   1.537   0.541   8.537
24806SOL    HW176257   1.545   0.635   8.521
24806SOL    HW276258   1.543   0.532   8.632
24807SOL     OW76259  13.721  14.138   6.597
24807SOL    HW176260  13.791  14.177   6.649
24807SOL    HW276261  13.642  14.187   6.622
24808SOL     OW76262   1.820  12.920   5.539
24808SOL    HW176263   1.859  12.838   5.508
24808SOL    HW276264   1.889  12.985   5.528
24809SOL     OW76265   5.571   2.916  10.010
24809SOL    HW176266   5.494   2.861  10.025
24809SOL    HW276267   5.535   3.002   9.987
24810SOL     OW76268  11.391   3.331   3.051
24810SOL    HW176269  11.372   3.407   3.107
24810SOL    HW276270  11.419   3.263   3.111
24811SOL     OW76271   5.687   7.877  10.737
24811SOL    HW176272   5.740   7.939  10.686
24811SOL    HW276273   5.647   7.930  10.806
24812SOL     OW76274   5.262   4.926   0.015
24812SOL    HW176275   5.322   4.876  14.841
24812SOL    HW276276   5.290   5.017   0.004
24813SOL     OW76277   9.016   0.973  11.147
24813SOL    HW176278   9.079   0.906  11.173
24813SOL    HW276279   9.027   1.042  11.213
24814SOL     OW76280   2.956  12.823   8.228
24814SOL    HW176281   2.867  12.803   8.258
24814SOL    HW276282   2.948  12.908   8.185
24815SOL     OW76283   0.955   9.017   7.439
24815SOL    HW176284   0.971   9.002   7.346
24815SOL    HW276285   0.890   8.952   7.464
24816SOL     OW76286  14.246  11.763  14.609
24816SOL    HW176287  14.274  11.846  14.570
24816SOL    HW276288  14.263  11.773  14.702
24817SOL     OW76289   7.574   4.124   3.093
24817SOL    HW176290   7.583   4.203   3.146
24817SOL    HW276291   7.637   4.135   3.022
24818SOL     OW76292   8.154  12.035   0.773
24818SOL    HW176293   8.079  12.030   0.832
24818SOL    HW276294   8.197  12.117   0.796
24819SOL     OW76295   8.227   2.597   6.491
24819SOL    HW176296   8.287   2.604   6.565
24819SOL    HW276297   8.146   2.563   6.529
24820SOL     OW76298  12.310  10.793   0.750
24820SOL    HW176299  12.219  10.821   0.743
24820SOL    HW276300  12.356  10.868   0.788
24821SOL     OW76301   6.380   6.036   0.371
24821SOL    HW176302   6.341   5.985   0.442
24821SOL    HW276303   6.444   6.092   0.415
24822SOL     OW76304   8.249   5.445   4.672
24822SOL    HW176305   8.223   5.432   4.763
24822SOL    HW276306   8.285   5.360   4.645
24823SOL     OW76307   3.893  10.195   6.907
24823SOL    HW176308   3.919  10.160   6.993
24823SOL    HW276309   3.938  10.279   6.901
24824SOL     OW76310   3.935   6.938   5.372
24824SOL    HW176311   3.848   6.902   5.357
24824SOL    HW276312   3.991   6.893   5.309
24825SOL     OW76313   7.489   9.316  12.003
24825SOL    HW176314   7.461   9.274  12.085
24825SOL    HW276315   7.417   9.301  11.943
24826SOL     OW76316  12.712   3.086   7.470
24826SOL    HW176317  12.806   3.096   7.459
24826SOL    HW276318  12.703   3.031   7.548
24827SOL     OW76319   9.617  10.375  14.058
24827SOL    HW176320   9.544  10.384  13.996
24827SOL    HW276321   9.631  10.280  14.065
24828SOL     OW76322   2.503  10.827   2.407
24828SOL    HW176323   2.463  10.795   2.488
24828SOL    HW276324   2.569  10.891   2.435
24829SOL     OW76325   6.368  13.009   4.951
24829SOL    HW176326   6.407  13.066   5.017
24829SOL    HW276327   6.440  12.991   4.890
24830SOL     OW76328  13.171   9.520  10.087
24830SOL    HW176329  13.178   9.579  10.012
24830SOL    HW276330  13.241   9.547  10.146
24831SOL     OW76331   3.814   1.424  12.739
24831SOL    HW176332   3.907   1.407  12.722
24831SOL    HW276333   3.784   1.472  12.662
24832SOL     OW76334  13.247  14.849  10.351
24832SOL    HW176335  13.310  14.834  10.421
24832SOL    HW276336  13.285  14.805  10.275
24833SOL     OW76337   9.847  14.309  13.741
24833SOL    HW176338   9.917  14.360  13.701
24833SOL    HW276339   9.890  14.231  13.775
24834SOL     OW76340   5.151  10.269   9.028
24834SOL    HW176341   5.080  10.249   9.088
24834SOL    HW276342   5.170  10.362   9.044
24835SOL     OW76343   3.237   9.052   2.853
24835SOL    HW176344   3.292   9.054   2.932
24835SOL    HW276345   3.300   9.048   2.781
24836SOL     OW76346   2.190   4.086   0.299
24836SOL    HW176347   2.225   4.061   0.213
24836SOL    HW276348   2.267   4.095   0.355
24837SOL     OW76349   7.354  11.465   1.790
24837SOL    HW176350   7.345  11.556   1.818
24837SOL    HW276351   7.308  11.461   1.706
24838SOL     OW76352   0.187  11.426   4.942
24838SOL    HW176353   0.253  11.386   4.999
24838SOL    HW276354   0.115  11.363   4.941
24839SOL     OW76355   7.512  10.387  12.190
24839SOL    HW176356   7.441  10.381  12.126
24839SOL    HW276357   7.575  10.319  12.163
24840SOL     OW76358   4.302   7.379   5.949
24840SOL    HW176359   4.328   7.467   5.922
24840SOL    HW276360   4.214   7.390   5.986
24841SOL     OW76361   2.788   3.458   3.945
24841SOL    HW176362   2.873   3.438   3.983
24841SOL    HW276363   2.804   3.469   3.852
24842SOL     OW76364  13.966  11.264   4.757
24842SOL    HW176365  13.905  11.205   4.713
24842SOL    HW276366  14.049  11.216   4.758
24843SOL     OW76367   3.077   8.735  14.321
24843SOL    HW176368   3.094   8.644  14.344
24843SOL    HW276369   3.113   8.786  14.393
24844SOL     OW76370  11.968  12.546   9.349
24844SOL    HW176371  12.039  12.563   9.287
24844SOL    HW276372  11.998  12.472   9.401
24845SOL     OW76373   8.801   7.096   4.784
24845SOL    HW176374   8.714   7.130   4.802
24845SOL    HW276375   8.857   7.174   4.780
24846SOL     OW76376  14.848   9.629  12.253
24846SOL    HW176377  14.811   9.571  12.319
24846SOL    HW276378  14.809   9.601  12.170
24847SOL     OW76379   6.991  12.652   1.008
24847SOL    HW176380   7.019  12.595   0.937
24847SOL    HW276381   7.019  12.740   0.981
24848SOL     OW76382   9.183  13.911   9.189
24848SOL    HW176383   9.126  13.941   9.118
24848SOL    HW276384   9.157  13.820   9.204
24849SOL     OW76385   5.552  10.034  11.861
24849SOL    HW176386   5.600  10.041  11.778
24849SOL    HW276387   5.469   9.993  11.836
24850SOL     OW76388   5.487   6.688  10.423
24850SOL    HW176389   5.426   6.731  10.483
24850SOL    HW276390   5.431   6.642  10.361
24851SOL     OW76391   2.178  13.134   4.156
24851SOL    HW176392   2.109  13.168   4.100
24851SOL    HW276393   2.136  13.065   4.208
24852SOL     OW76394   2.131   6.703  12.741
24852SOL    HW176395   2.065   6.749  12.793
24852SOL    HW276396   2.174   6.644  12.803
24853SOL     OW76397  12.321   7.142   0.803
24853SOL    HW176398  12.367   7.147   0.887
24853SOL    HW276399  12.367   7.203   0.746
24854SOL     OW76400  13.877   1.468   9.650
24854SOL    HW176401  13.841   1.451   9.737
24854SOL    HW276402  13.801   1.482   9.594
24855SOL     OW76403  13.786   8.273   2.840
24855SOL    HW176404  13.823   8.299   2.924
24855SOL    HW276405  13.696   8.249   2.859
24856SOL     OW76406   3.449  13.801   0.250
24856SOL    HW176407   3.400  13.808   0.332
24856SOL    HW276408   3.534  13.841   0.270
24857SOL     OW76409  13.772   5.975   4.626
24857SOL    HW176410  13.774   6.066   4.596
24857SOL    HW276411  13.835   5.971   4.698
24858SOL     OW76412   0.410   1.608   6.646
24858SOL    HW176413   0.434   1.647   6.730
24858SOL    HW276414   0.403   1.515   6.664
24859SOL     OW76415   3.814   6.381   4.004
24859SOL    HW176416   3.907   6.399   3.995
24859SOL    HW276417   3.799   6.375   4.098
24860SOL     OW76418   9.357   1.129   9.559
24860SOL    HW176419   9.392   1.098   9.475
24860SOL    HW276420   9.318   1.214   9.538
24861SOL     OW76421   5.652   1.429   7.023
24861SOL    HW176422   5.613   1.362   6.967
24861SOL    HW276423   5.577   1.468   7.069
24862SOL     OW76424  13.750  12.683  13.739
24862SOL    HW176425  13.709  12.689  13.653
24862SOL    HW276426  13.718  12.760  13.786
24863SOL     OW76427   2.851   3.916   5.010
24863SOL    HW176428   2.866   3.844   4.949
24863SOL    HW276429   2.939   3.946   5.034
24864SOL     OW76430   3.982   3.065  11.987
24864SOL    HW176431   3.984   3.076  12.082
24864SOL    HW276432   4.074   3.063  11.960
24865SOL     OW76433  12.270  14.720   1.284
24865SOL    HW176434  12.287  14.630   1.257
24865SOL    HW276435  12.196  14.713   1.345
24866SOL     OW76436   6.471  11.089   0.666
24866SOL    HW176437   6.457  11.162   0.606
24866SOL    HW276438   6.424  11.016   0.625
24867SOL     OW76439   0.777  10.516   2.072
24867SOL    HW176440   0.810  10.436   2.113
24867SOL    HW276441   0.768  10.578   2.145
24868SOL     OW76442   5.151  11.507   8.022
24868SOL    HW176443   5.112  11.470   7.943
24868SOL    HW276444   5.230  11.456   8.037
24869SOL     OW76445  11.237  13.549   9.522
24869SOL    HW176446  11.228  13.454   9.530
24869SOL    HW276447  11.173  13.573   9.455
24870SOL     OW76448  11.872   4.856  12.388
24870SOL    HW176449  11.796   4.838  12.332
24870SOL    HW276450  11.897   4.771  12.423
24871SOL     OW76451  14.836  13.057  10.481
24871SOL    HW176452   0.043  13.090  10.476
24871SOL    HW276453  14.808  13.048  10.390
24872SOL     OW76454   1.765  10.949   9.642
24872SOL    HW176455   1.812  11.032   9.634
24872SOL    HW276456   1.834  10.883   9.653
24873SOL     OW76457   8.864  12.497   0.554
24873SOL    HW176458   8.841  12.544   0.634
24873SOL    HW276459   8.868  12.405   0.581
24874SOL     OW76460   9.621   8.567   5.896
24874SOL    HW176461   9.627   8.579   5.801
24874SOL    HW276462   9.542   8.614   5.921
24875SOL     OW76463  14.215   5.752   9.665
24875SOL    HW176464  14.303   5.776   9.634
24875SOL    HW276465  14.157   5.816   9.625
24876SOL     OW76466  10.830  12.184   6.898
24876SOL    HW176467  10.834  12.117   6.966
24876SOL    HW276468  10.816  12.266   6.945
24877SOL     OW76469  13.521  12.774  14.250
24877SOL    HW176470  13.516  12.868  14.268
24877SOL    HW276471  13.456  12.759  14.181
24878SOL     OW76472   4.192  11.088   7.782
24878SOL    HW176473   4.132  11.160   7.761
24878SOL    HW276474   4.217  11.102   7.873
24879SOL     OW76475   1.125  13.935   1.205
24879SOL    HW176476   1.065  13.901   1.271
24879SOL    HW276477   1.069  13.958   1.131
24880SOL     OW76478  12.397   4.987   3.858
24880SOL    HW176479  12.441   4.904   3.877
24880SOL    HW276480  12.307   4.974   3.887
24881SOL     OW76481   4.988  13.922   9.670
24881SOL    HW176482   5.066  13.877   9.637
24881SOL    HW276483   5.022  13.994   9.723
24882SOL     OW76484  10.712  11.802   6.748
24882SOL    HW176485  10.680  11.891   6.761
24882SOL    HW276486  10.807  11.809   6.758
24883SOL     OW76487  10.583   6.345   0.942
24883SOL    HW176488  10.507   6.401   0.924
24883SOL    HW276489  10.607   6.366   1.032
24884SOL     OW76490   1.846   9.728   5.352
24884SOL    HW176491   1.824   9.755   5.263
24884SOL    HW276492   1.869   9.635   5.343
24885SOL     OW76493   6.091   9.003   7.895
24885SOL    HW176494   6.151   9.049   7.836
24885SOL    HW276495   6.008   9.003   7.848
24886SOL     OW76496   0.951   5.037   5.007
24886SOL    HW176497   0.866   4.993   5.009
24886SOL    HW276498   0.930   5.129   5.021
24887SOL     OW76499  13.130  10.573   1.024
24887SOL    HW176500  13.074  10.640   0.986
24887SOL    HW276501  13.214  10.583   0.979
24888SOL     OW76502  10.516   1.923   2.530
24888SOL    HW176503  10.471   1.839   2.533
24888SOL    HW276504  10.595   1.907   2.480
24889SOL     OW76505   7.429  11.487  12.890
24889SOL    HW176506   7.464  11.410  12.844
24889SOL    HW276507   7.502  11.516  12.945
24890SOL     OW76508   0.610  12.247   2.897
24890SOL    HW176509   0.666  12.218   2.825
24890SOL    HW276510   0.564  12.323   2.863
24891SOL     OW76511  12.822   9.285   3.300
24891SOL    HW176512  12.867   9.213   3.255
24891SOL    HW276513  12.893   9.333   3.343
24892SOL     OW76514   5.408   0.785   6.410
24892SOL    HW176515   5.375   0.827   6.331
24892SOL    HW276516   5.336   0.727   6.438
24893SOL     OW76517   3.076   7.953   0.478
24893SOL    HW176518   3.156   7.902   0.462
24893SOL    HW276519   3.043   7.974   0.391
24894SOL     OW76520  10.392  10.869  11.082
24894SOL    HW176521  10.440  10.802  11.131
24894SOL    HW276522  10.364  10.824  11.002
24895SOL     OW76523  14.526   1.492  11.672
24895SOL    HW176524  14.449   1.548  11.682
24895SOL    HW276525  14.571   1.498  11.757
24896SOL     OW76526  14.533   5.498   0.506
24896SOL    HW176527  14.547   5.430   0.572
24896SOL    HW276528  14.536   5.580   0.556
24897SOL     OW76529   2.767   8.720  10.080
24897SOL    HW176530   2.691   8.708  10.136
24897SOL    HW276531   2.736   8.772  10.006
24898SOL     OW76532   2.918   5.369  11.078
24898SOL    HW176533   2.838   5.353  11.028
24898SOL    HW276534   2.902   5.451  11.123
24899SOL     OW76535   5.331   7.168  13.641
24899SOL    HW176536   5.323   7.115  13.562
24899SOL    HW276537   5.248   7.154  13.687
24900SOL     OW76538   0.702   8.687  14.878
24900SOL    HW176539   0.620   8.734  14.865
24900SOL    HW276540   0.680   8.614   0.054
24901SOL     OW76541  11.581  10.613   5.057
24901SOL    HW176542  11.664  10.613   5.105
24901SOL    HW276543  11.591  10.544   4.992
24902SOL     OW76544  14.101  13.785   5.386
24902SOL    HW176545  14.065  13.873   5.384
24902SOL    HW276546  14.030  13.729   5.356
24903SOL     OW76547  13.760  10.188   3.936
24903SOL    HW176548  13.800  10.207   3.851
24903SOL    HW276549  13.713  10.105   3.923
24904SOL     OW76550   9.324   9.671   9.134
24904SOL    HW176551   9.371   9.731   9.075
24904SOL    HW276552   9.268   9.619   9.075
24905SOL     OW76553  11.314  12.412  13.336
24905SOL    HW176554  11.284  12.425  13.246
24905SOL    HW276555  11.391  12.356  13.327
24906SOL     OW76556   5.619   1.745  13.795
24906SOL    HW176557   5.682   1.700  13.738
24906SOL    HW276558   5.600   1.827  13.749
24907SOL     OW76559   7.344  13.971   7.828
24907SOL    HW176560   7.416  13.924   7.787
24907SOL    HW276561   7.303  13.906   7.886
24908SOL     OW76562  10.257   4.046   6.086
24908SOL    HW176563  10.322   3.983   6.118
24908SOL    HW276564  10.305   4.129   6.081
24909SOL     OW76565  11.432  10.240   2.744
24909SOL    HW176566  11.362  10.236   2.809
24909SOL    HW276567  11.496  10.301   2.781
24910SOL     OW76568   4.866   1.252   8.653
24910SOL    HW176569   4.924   1.185   8.615
24910SOL    HW276570   4.843   1.308   8.580
24911SOL     OW76571   0.663   2.977   6.059
24911SOL    HW176572   0.667   2.957   5.966
24911SOL    HW276573   0.636   3.068   6.063
24912SOL     OW76574  14.825   2.231   9.795
24912SOL    HW176575  14.751   2.171   9.782
24912SOL    HW276576   0.020   2.174   9.794
24913SOL     OW76577  10.766   6.905   8.191
24913SOL    HW176578  10.799   6.972   8.132
24913SOL    HW276579  10.839   6.884   8.248
24914SOL     OW76580  14.613  12.663   1.950
24914SOL    HW176581  14.665  12.742   1.932
24914SOL    HW276582  14.678  12.593   1.952
24915SOL     OW76583  13.360   1.885  14.011
24915SOL    HW176584  13.449   1.859  13.985
24915SOL    HW276585  13.373   1.964  14.063
24916SOL     OW76586  12.406   8.701  12.927
24916SOL    HW176587  12.384   8.729  12.839
24916SOL    HW276588  12.496   8.670  12.921
24917SOL     OW76589  11.561   4.653   4.124
24917SOL    HW176590  11.615   4.626   4.198
24917SOL    HW276591  11.605   4.731   4.090
24918SOL     OW76592   1.692   5.011  14.633
24918SOL    HW176593   1.717   4.922  14.660
24918SOL    HW276594   1.732   5.020  14.546
24919SOL     OW76595   3.658  13.796  14.463
24919SOL    HW176596   3.668  13.887  14.490
24919SOL    HW276597   3.612  13.755  14.536
24920SOL     OW76598   7.290  12.547   2.669
24920SOL    HW176599   7.312  12.468   2.619
24920SOL    HW276600   7.346  12.542   2.747
24921SOL     OW76601   2.104  12.722   4.293
24921SOL    HW176602   2.198  12.706   4.289
24921SOL    HW276603   2.079  12.697   4.382
24922SOL     OW76604   5.001   2.174   8.704
24922SOL    HW176605   4.960   2.260   8.705
24922SOL    HW276606   5.073   2.183   8.641
24923SOL     OW76607   7.315   4.599   4.930
24923SOL    HW176608   7.265   4.536   4.878
24923SOL    HW276609   7.314   4.680   4.879
24924SOL     OW76610  13.163   5.055   3.357
24924SOL    HW176611  13.188   5.055   3.264
24924SOL    HW276612  13.076   5.016   3.359
24925SOL     OW76613   9.839   9.076   8.779
24925SOL    HW176614   9.795   9.160   8.764
24925SOL    HW276615   9.827   9.027   8.697
24926SOL     OW76616  14.144   9.800   4.580
24926SOL    HW176617  14.215   9.810   4.517
24926SOL    HW276618  14.177   9.840   4.660
24927SOL     OW76619   7.125  12.355  10.593
24927SOL    HW176620   7.091  12.300  10.522
24927SOL    HW276621   7.056  12.355  10.659
24928SOL     OW76622   8.582  13.638   9.383
24928SOL    HW176623   8.492  13.664   9.362
24928SOL    HW276624   8.616  13.711   9.434
24929SOL     OW76625   2.062   2.521   5.865
24929SOL    HW176626   2.134   2.465   5.833
24929SOL    HW276627   1.996   2.516   5.796
24930SOL     OW76628   6.580  14.643   5.937
24930SOL    HW176629   6.516  14.690   5.883
24930SOL    HW276630   6.532  14.570   5.975
24931SOL     OW76631  10.156  13.847  12.316
24931SOL    HW176632  10.187  13.911  12.380
24931SOL    HW276633  10.138  13.897  12.237
24932SOL     OW76634   5.702   5.718  10.473
24932SOL    HW176635   5.798   5.717  10.480
24932SOL    HW276636   5.685   5.769  10.394
24933SOL     OW76637   3.370   4.587   4.726
24933SOL    HW176638   3.375   4.582   4.821
24933SOL    HW276639   3.305   4.521   4.702
24934SOL     OW76640   6.649   4.813  11.207
24934SOL    HW176641   6.739   4.812  11.239
24934SOL    HW276642   6.595   4.817  11.285
24935SOL     OW76643   5.988  11.932  11.141
24935SOL    HW176644   5.986  11.966  11.051
24935SOL    HW276645   5.944  11.999  11.193
24936SOL     OW76646   3.945  10.405  14.350
24936SOL    HW176647   3.995  10.336  14.393
24936SOL    HW276648   3.854  10.385  14.370
24937SOL     OW76649   2.779   2.847   2.121
24937SOL    HW176650   2.700   2.895   2.096
24937SOL    HW276651   2.768   2.760   2.082
24938SOL     OW76652   1.034  13.450   8.176
24938SOL    HW176653   0.983  13.493   8.108
24938SOL    HW276654   1.122  13.441   8.139
24939SOL     OW76655   0.405   9.966   2.107
24939SOL    HW176656   0.377   9.943   2.019
24939SOL    HW276657   0.454  10.047   2.097
24940SOL     OW76658   6.500   7.356   4.128
24940SOL    HW176659   6.505   7.435   4.182
24940SOL    HW276660   6.579   7.307   4.149
24941SOL     OW76661   6.813   6.458   4.380
24941SOL    HW176662   6.892   6.422   4.421
24941SOL    HW276663   6.776   6.386   4.330
24942SOL     OW76664   5.474   2.175   5.065
24942SOL    HW176665   5.387   2.216   5.072
24942SOL    HW276666   5.494   2.178   4.971
24943SOL     OW76667   3.016   4.824   6.875
24943SOL    HW176668   2.922   4.835   6.887
24943SOL    HW276669   3.039   4.885   6.804
24944SOL     OW76670   3.887   5.908   3.074
24944SOL    HW176671   3.838   5.826   3.061
24944SOL    HW276672   3.819   5.973   3.090
24945SOL     OW76673   5.651  12.720   6.529
24945SOL    HW176674   5.613  12.655   6.589
24945SOL    HW276675   5.591  12.794   6.533
24946SOL     OW76676   8.654  14.748   9.745
24946SOL    HW176677   8.644  14.831   9.697
24946SOL    HW276678   8.575  14.699   9.724
24947SOL     OW76679   5.203   6.966   5.669
24947SOL    HW176680   5.161   6.987   5.586
24947SOL    HW276681   5.234   7.050   5.703
24948SOL     OW76682   7.711   6.146  12.781
24948SOL    HW176683   7.619   6.132  12.757
24948SOL    HW276684   7.759   6.077  12.735
24949SOL     OW76685   6.072   7.200   5.216
24949SOL    HW176686   6.022   7.120   5.231
24949SOL    HW276687   6.044   7.259   5.285
24950SOL     OW76688  12.300   0.030   8.626
24950SOL    HW176689  12.321   0.107   8.574
24950SOL    HW276690  12.385  14.872   8.646
24951SOL     OW76691   8.192   7.415   5.256
24951SOL    HW176692   8.263   7.436   5.318
24951SOL    HW276693   8.114   7.410   5.311
24952SOL     OW76694   1.452  13.484  10.968
24952SOL    HW176695   1.396  13.410  10.993
24952SOL    HW276696   1.467  13.532  11.049
24953SOL     OW76697   1.159   1.597   8.088
24953SOL    HW176698   1.151   1.536   8.015
24953SOL    HW276699   1.081   1.652   8.082
24954SOL     OW76700   3.695  10.828   5.741
24954SOL    HW176701   3.662  10.756   5.687
24954SOL    HW276702   3.661  10.810   5.829
24955SOL     OW76703   4.826  10.685   0.373
24955SOL    HW176704   4.738  10.675   0.336
24955SOL    HW276705   4.852  10.773   0.349
24956SOL     OW76706   2.384  10.217   1.837
24956SOL    HW176707   2.410  10.128   1.811
24956SOL    HW276708   2.290  10.211   1.853
24957SOL     OW76709  12.100  11.113  10.180
24957SOL    HW176710  12.005  11.102  10.181
24957SOL    HW276711  12.119  11.168  10.256
24958SOL     OW76712   3.980  11.362   6.232
24958SOL    HW176713   3.939  11.441   6.196
24958SOL    HW276714   3.964  11.367   6.326
24959SOL     OW76715   3.105   1.607   7.807
24959SOL    HW176716   3.024   1.561   7.827
24959SOL    HW276717   3.143   1.628   7.892
24960SOL     OW76718   0.003   6.759  10.434
24960SOL    HW176719  14.865   6.696  10.365
24960SOL    HW276720  14.854   6.716  10.514
24961SOL     OW76721  14.023   8.255   1.422
24961SOL    HW176722  14.024   8.177   1.367
24961SOL    HW276723  14.068   8.321   1.369
24962SOL     OW76724  10.658   9.855  14.154
24962SOL    HW176725  10.754   9.857  14.149
24962SOL    HW276726  10.631   9.944  14.130
24963SOL     OW76727   6.311  11.688  11.598
24963SOL    HW176728   6.253  11.645  11.661
24963SOL    HW276729   6.324  11.623  11.529
24964SOL     OW76730   7.675   3.643  12.336
24964SOL    HW176731   7.715   3.613  12.418
24964SOL    HW276732   7.748   3.647  12.275
24965SOL     OW76733   0.127  13.906  14.664
24965SOL    HW176734   0.034  13.887  14.681
24965SOL    HW276735   0.151  13.845  14.594
24966SOL     OW76736   4.148  10.196   1.210
24966SOL    HW176737   4.098  10.229   1.135
24966SOL    HW276738   4.083  10.152   1.265
24967SOL     OW76739   8.358   3.787   3.821
24967SOL    HW176740   8.413   3.801   3.744
24967SOL    HW276741   8.286   3.850   3.812
24968SOL     OW76742   8.019   5.173   3.921
24968SOL    HW176743   8.100   5.196   3.875
24968SOL    HW276744   8.048   5.143   4.007
24969SOL     OW76745   6.107   7.288  12.663
24969SOL    HW176746   6.175   7.231  12.698
24969SOL    HW276747   6.059   7.318  12.740
24970SOL     OW76748  12.694  14.587  11.912
24970SOL    HW176749  12.736  14.647  11.974
24970SOL    HW276750  12.729  14.611  11.827
24971SOL     OW76751   0.066   0.550   6.327
24971SOL    HW176752   0.106   0.629   6.363
24971SOL    HW276753   0.043   0.497   6.404
24972SOL     OW76754   8.847   0.335   3.114
24972SOL    HW176755   8.823   0.269   3.179
24972SOL    HW276756   8.924   0.378   3.151
24973SOL     OW76757  10.996   4.513  10.350
24973SOL    HW176758  10.988   4.552  10.263
24973SOL    HW276759  10.946   4.431  10.344
24974SOL     OW76760  11.091   6.761   4.277
24974SOL    HW176761  11.136   6.760   4.361
24974SOL    HW276762  11.162   6.759   4.212
24975SOL     OW76763   2.792  13.102  14.476
24975SOL    HW176764   2.802  13.062  14.562
24975SOL    HW276765   2.879  13.136  14.455
24976SOL     OW76766   3.755   0.378   1.485
24976SOL    HW176767   3.744   0.414   1.573
24976SOL    HW276768   3.724   0.447   1.427
24977SOL     OW76769  11.664   8.428   2.022
24977SOL    HW176770  11.734   8.363   2.013
24977SOL    HW276771  11.584   8.376   2.020
24978SOL     OW76772   7.143   2.119   7.478
24978SOL    HW176773   7.161   2.078   7.563
24978SOL    HW276774   7.228   2.145   7.445
24979SOL     OW76775  12.182   7.571  12.461
24979SOL    HW176776  12.212   7.646  12.512
24979SOL    HW276777  12.151   7.609  12.379
24980SOL     OW76778   0.456  11.858   7.967
24980SOL    HW176779   0.367  11.843   7.936
24980SOL    HW276780   0.457  11.950   7.994
24981SOL     OW76781   6.750   5.660   0.109
24981SOL    HW176782   6.746   5.604   0.187
24981SOL    HW276783   6.826   5.628   0.060
24982SOL     OW76784   4.862   7.361  12.524
24982SOL    HW176785   4.873   7.450  12.558
24982SOL    HW276786   4.770   7.341  12.538
24983SOL     OW76787   9.228   7.831   8.783
24983SOL    HW176788   9.154   7.893   8.783
24983SOL    HW276789   9.188   7.746   8.796
24984SOL     OW76790   2.841  13.983   0.121
24984SOL    HW176791   2.812  13.954   0.207
24984SOL    HW276792   2.837  13.904   0.067
24985SOL     OW76793  11.154   3.942   6.045
24985SOL    HW176794  11.059   3.951   6.057
24985SOL    HW276795  11.164   3.931   5.950
24986SOL     OW76796  14.509   0.855   1.878
24986SOL    HW176797  14.558   0.921   1.829
24986SOL    HW276798  14.443   0.824   1.816
24987SOL     OW76799  14.729  14.876   3.742
24987SOL    HW176800  14.689  14.815   3.679
24987SOL    HW276801  14.748  14.822   3.819
24988SOL     OW76802   8.800   0.218   2.634
24988SOL    HW176803   8.788   0.195   2.727
24988SOL    HW276804   8.734   0.284   2.617
24989SOL     OW76805   9.061   8.231  10.676
24989SOL    HW176806   8.992   8.204  10.616
24989SOL    HW276807   9.124   8.159  10.675
24990SOL     OW76808   8.832   4.526  10.057
24990SOL    HW176809   8.860   4.441  10.091
24990SOL    HW276810   8.737   4.527  10.069
24991SOL     OW76811   0.251   3.134   5.110
24991SOL    HW176812   0.274   3.066   5.046
24991SOL    HW276813   0.277   3.097   5.194
24992SOL     OW76814  13.763  11.495   6.582
24992SOL    HW176815  13.673  11.466   6.566
24992SOL    HW276816  13.799  11.430   6.642
24993SOL     OW76817   5.958   6.324   4.871
24993SOL    HW176818   6.029   6.362   4.922
24993SOL    HW276819   6.002   6.265   4.810
24994SOL     OW76820   2.906  13.536   5.197
24994SOL    HW176821   2.963  13.604   5.231
24994SOL    HW276822   2.961  13.486   5.136
24995SOL     OW76823   9.195  11.949   4.429
24995SOL    HW176824   9.254  11.986   4.495
24995SOL    HW276825   9.190  11.856   4.450
24996SOL     OW76826   8.715   3.027   7.912
24996SOL    HW176827   8.798   2.985   7.937
24996SOL    HW276828   8.650   2.957   7.917
24997SOL     OW76829   6.097   2.958   4.644
24997SOL    HW176830   6.161   3.004   4.698
24997SOL    HW276831   6.061   2.891   4.702
24998SOL     OW76832   0.920   6.614   2.170
24998SOL    HW176833   0.857   6.604   2.098
24998SOL    HW276834   0.945   6.707   2.167
24999SOL     OW76835   9.708   0.248   3.664
24999SOL    HW176836   9.651   0.315   3.700
24999SOL    HW276837   9.766   0.224   3.737
25000SOL     OW76838  12.505   1.986   8.569
25000SOL    HW176839  12.473   1.972   8.480
25000SOL    HW276840  12.577   2.047   8.560
25001SOL     OW76841  14.361  12.276  13.761
25001SOL    HW176842  14.414  12.356  13.771
25001SOL    HW276843  14.413  12.220  13.704
25002SOL     OW76844  10.180   3.056   6.014
25002SOL    HW176845  10.112   3.018   5.958
25002SOL    HW276846  10.255   2.998   6.004
25003SOL     OW76847   3.681  12.799   6.064
25003SOL    HW176848   3.775  12.782   6.060
25003SOL    HW276849   3.653  12.758   6.146
25004SOL     OW76850   9.948  13.985   6.457
25004SOL    HW176851  10.019  13.986   6.392
25004SOL    HW276852   9.915  13.895   6.455
25005SOL     OW76853  11.704  13.179   9.292
25005SOL    HW176854  11.763  13.252   9.310
25005SOL    HW276855  11.664  13.159   9.377
25006SOL     OW76856   0.166   3.991   0.405
25006SOL    HW176857   0.125   4.014   0.489
25006SOL    HW276858   0.139   3.901   0.388
25007SOL     OW76859   0.293   6.754  10.510
25007SOL    HW176860   0.210   6.794  10.483
25007SOL    HW276861   0.335   6.729  10.427
25008SOL     OW76862   8.622   7.859  14.109
25008SOL    HW176863   8.707   7.867  14.065
25008SOL    HW276864   8.579   7.943  14.095
25009SOL     OW76865   4.478  10.828   4.121
25009SOL    HW176866   4.420  10.770   4.071
25009SOL    HW276867   4.420  10.874   4.181
25010SOL     OW76868  14.831  13.111   0.974
25010SOL    HW176869   0.019  13.059   1.013
25010SOL    HW276870  14.783  13.147   1.049
25011SOL     OW76871   4.454  10.250  10.334
25011SOL    HW176872   4.522  10.314  10.352
25011SOL    HW276873   4.491  10.166  10.361
25012SOL     OW76874   4.231   4.072   2.591
25012SOL    HW176875   4.241   4.147   2.651
25012SOL    HW276876   4.212   3.998   2.649
25013SOL     OW76877   5.978   4.914   9.309
25013SOL    HW176878   5.924   4.837   9.291
25013SOL    HW276879   5.925   4.968   9.368
25014SOL     OW76880  10.748   2.581   5.065
25014SOL    HW176881  10.690   2.650   5.097
25014SOL    HW276882  10.825   2.627   5.033
25015SOL     OW76883  10.604   5.952  10.807
25015SOL    HW176884  10.629   6.041  10.830
25015SOL    HW276885  10.632   5.942  10.716
25016SOL     OW76886  11.173   7.736   9.531
25016SOL    HW176887  11.206   7.793   9.601
25016SOL    HW276888  11.193   7.647   9.562
25017SOL     OW76889  14.360   2.642   3.868
25017SOL    HW176890  14.454   2.644   3.848
25017SOL    HW276891  14.341   2.729   3.901
25018SOL     OW76892   8.266  10.723   6.797
25018SOL    HW176893   8.265  10.719   6.893
25018SOL    HW276894   8.298  10.638   6.769
25019SOL     OW76895   7.752  10.150  10.217
25019SOL    HW176896   7.825  10.165  10.156
25019SOL    HW276897   7.789  10.092  10.283
25020SOL     OW76898   6.729  11.312   8.478
25020SOL    HW176899   6.641  11.347   8.463
25020SOL    HW276900   6.778  11.336   8.399
25021SOL     OW76901   1.208  14.674   5.934
25021SOL    HW176902   1.213  14.770   5.932
25021SOL    HW276903   1.266  14.646   5.863
25022SOL     OW76904   4.467   5.261  10.784
25022SOL    HW176905   4.381   5.224  10.766
25022SOL    HW276906   4.502   5.208  10.856
25023SOL     OW76907   0.190   6.564  13.098
25023SOL    HW176908   0.183   6.551  13.004
25023SOL    HW276909   0.284   6.571  13.114
25024SOL     OW76910   9.924   1.007  13.892
25024SOL    HW176911   9.849   0.971  13.940
25024SOL    HW276912   9.884   1.060  13.823
25025SOL     OW76913   7.164   0.415   8.499
25025SOL    HW176914   7.134   0.414   8.408
25025SOL    HW276915   7.161   0.323   8.526
25026SOL     OW76916   6.944  12.857  11.831
25026SOL    HW176917   6.971  12.790  11.768
25026SOL    HW276918   6.970  12.940  11.791
25027SOL     OW76919   6.847  11.310  10.502
25027SOL    HW176920   6.935  11.274  10.496
25027SOL    HW276921   6.794  11.253  10.445
25028SOL     OW76922   6.081   7.601   0.783
25028SOL    HW176923   6.157   7.547   0.762
25028SOL    HW276924   6.063   7.583   0.876
25029SOL     OW76925   7.696   7.704   2.612
25029SOL    HW176926   7.692   7.740   2.523
25029SOL    HW276927   7.605   7.684   2.633
25030SOL     OW76928  11.530   9.140   6.215
25030SOL    HW176929  11.541   9.209   6.149
25030SOL    HW276930  11.436   9.137   6.232
25031SOL     OW76931  14.606  10.545  12.108
25031SOL    HW176932  14.624  10.639  12.097
25031SOL    HW276933  14.644  10.504  12.031
25032SOL     OW76934   8.927   1.505   7.706
25032SOL    HW176935   8.932   1.601   7.710
25032SOL    HW276936   8.998   1.475   7.763
25033SOL     OW76937  14.774  14.009   5.759
25033SOL    HW176938  14.727  14.000   5.675
25033SOL    HW276939  14.802  14.100   5.761
25034SOL     OW76940  12.535  12.984  12.648
25034SOL    HW176941  12.580  12.967  12.730
25034SOL    HW276942  12.450  12.941  12.657
25035SOL     OW76943  12.242  14.151   8.935
25035SOL    HW176944  12.206  14.103   8.860
25035SOL    HW276945  12.165  14.170   8.990
25036SOL     OW76946   0.868   6.399   6.749
25036SOL    HW176947   0.775   6.421   6.745
25036SOL    HW276948   0.885   6.347   6.670
25037SOL     OW76949  12.818  14.764  12.054
25037SOL    HW176950  12.903  14.750  12.013
25037SOL    HW276951  12.830  14.734  12.144
25038SOL     OW76952   5.029   5.633  14.637
25038SOL    HW176953   5.063   5.545  14.622
25038SOL    HW276954   5.107   5.687  14.653
25039SOL     OW76955   9.348   8.161   9.427
25039SOL    HW176956   9.257   8.163   9.456
25039SOL    HW276957   9.373   8.253   9.420
25040SOL     OW76958   7.128   0.991   8.202
25040SOL    HW176959   7.164   0.902   8.206
25040SOL    HW276960   7.163   1.035   8.279
25041SOL     OW76961   1.404   9.297   0.515
25041SOL    HW176962   1.344   9.363   0.480
25041SOL    HW276963   1.362   9.268   0.596
25042SOL     OW76964   1.026   3.480   4.581
25042SOL    HW176965   1.008   3.494   4.674
25042SOL    HW276966   1.043   3.386   4.573
25043SOL     OW76967   5.223   7.868   7.500
25043SOL    HW176968   5.279   7.803   7.543
25043SOL    HW276969   5.279   7.911   7.436
25044SOL     OW76970   0.001   4.232  11.990
25044SOL    HW176971   0.020   4.161  11.928
25044SOL    HW276972  14.803   4.272  11.956
25045SOL     OW76973  11.197   5.152   9.514
25045SOL    HW176974  11.254   5.135   9.439
25045SOL    HW276975  11.253   5.198   9.577
25046SOL     OW76976   3.549   4.511   0.461
25046SOL    HW176977   3.564   4.527   0.368
25046SOL    HW276978   3.632   4.474   0.492
25047SOL     OW76979   6.214   2.041  14.087
25047SOL    HW176980   6.239   1.953  14.116
25047SOL    HW276981   6.168   2.079  14.162
25048SOL     OW76982   1.501   5.240  10.882
25048SOL    HW176983   1.585   5.287  10.887
25048SOL    HW276984   1.437   5.309  10.865
25049SOL     OW76985  11.768   5.722   3.585
25049SOL    HW176986  11.794   5.632   3.568
25049SOL    HW276987  11.851   5.768   3.602
25050SOL     OW76988  12.338   8.398  11.671
25050SOL    HW176989  12.361   8.343  11.596
25050SOL    HW276990  12.422   8.415  11.715
25051SOL     OW76991   5.739  14.764   6.803
25051SOL    HW176992   5.696  14.842   6.770
25051SOL    HW276993   5.825  14.764   6.761
25052SOL     OW76994  12.470   3.300   0.944
25052SOL    HW176995  12.510   3.282   1.029
25052SOL    HW276996  12.377   3.279   0.956
25053SOL     OW76997   9.854   1.797  10.386
25053SOL    HW176998   9.878   1.846  10.308
25053SOL    HW276999   9.761   1.780  10.376
25054SOL     OW77000   2.419   8.479  11.675
25054SOL    HW177001   2.495   8.526  11.710
25054SOL    HW277002   2.440   8.386  11.687
25055SOL     OW77003   6.610   3.969   4.125
25055SOL    HW177004   6.682   4.027   4.103
25055SOL    HW277005   6.644   3.913   4.195
25056SOL     OW77006  12.357   7.555  14.120
25056SOL    HW177007  12.434   7.611  14.110
25056SOL    HW277008  12.296   7.587  14.054
25057SOL     OW77009   8.344  14.583   4.285
25057SOL    HW177010   8.326  14.491   4.308
25057SOL    HW277011   8.332  14.587   4.190
25058SOL     OW77012   5.520   6.334   2.763
25058SOL    HW177013   5.448   6.394   2.778
25058SOL    HW277014   5.481   6.261   2.716
25059SOL     OW77015   8.015   2.331   5.500
25059SOL    HW177016   7.944   2.281   5.541
25059SOL    HW277017   7.985   2.346   5.411
25060SOL     OW77018   8.051  11.002   3.622
25060SOL    HW177019   8.137  10.984   3.661
25060SOL    HW277020   8.026  10.920   3.579
25061SOL     OW77021  12.478  11.678  10.541
25061SOL    HW177022  12.408  11.739  10.567
25061SOL    HW277023  12.558  11.729  10.550
25062SOL     OW77024  10.931   4.481   1.133
25062SOL    HW177025  11.015   4.480   1.180
25062SOL    HW277026  10.874   4.424   1.185
25063SOL     OW77027   2.853   6.887   3.078
25063SOL    HW177028   2.772   6.926   3.112
25063SOL    HW277029   2.902   6.862   3.156
25064SOL     OW77030   2.802   9.885   0.557
25064SOL    HW177031   2.812   9.907   0.465
25064SOL    HW277032   2.883   9.840   0.581
25065SOL     OW77033  14.771  12.067  12.774
25065SOL    HW177034  14.850  12.100  12.817
25065SOL    HW277035  14.709  12.140  12.777
25066SOL     OW77036   0.796   5.692   8.325
25066SOL    HW177037   0.816   5.712   8.417
25066SOL    HW277038   0.705   5.720   8.314
25067SOL     OW77039  13.972   5.855   9.931
25067SOL    HW177040  14.007   5.773   9.896
25067SOL    HW277041  13.886   5.830   9.967
25068SOL     OW77042  13.197   3.750   6.235
25068SOL    HW177043  13.172   3.835   6.199
25068SOL    HW277044  13.248   3.772   6.313
25069SOL     OW77045  10.749   3.642   5.888
25069SOL    HW177046  10.818   3.604   5.943
25069SOL    HW277047  10.759   3.736   5.900
25070SOL     OW77048   4.923   1.669   0.905
25070SOL    HW177049   4.839   1.705   0.935
25070SOL    HW277050   4.909   1.649   0.813
25071SOL     OW77051   1.194   1.416   0.693
25071SOL    HW177052   1.198   1.387   0.602
25071SOL    HW277053   1.194   1.512   0.687
25072SOL     OW77054   4.480  12.331   2.253
25072SOL    HW177055   4.496  12.330   2.348
25072SOL    HW277056   4.411  12.398   2.241
25073SOL     OW77057  13.128   9.180   4.518
25073SOL    HW177058  13.092   9.133   4.593
25073SOL    HW277059  13.190   9.119   4.479
25074SOL     OW77060   2.380  10.268   9.235
25074SOL    HW177061   2.410  10.210   9.305
25074SOL    HW277062   2.439  10.343   9.239
25075SOL     OW77063  14.820   0.220   0.484
25075SOL    HW177064  14.728   0.201   0.505
25075SOL    HW277065  14.850   0.276   0.555
25076SOL     OW77066   5.211   8.137   4.873
25076SOL    HW177067   5.195   8.069   4.807
25076SOL    HW277068   5.239   8.214   4.823
25077SOL     OW77069   4.742   4.052   3.523
25077SOL    HW177070   4.699   4.106   3.457
25077SOL    HW277071   4.835   4.071   3.513
25078SOL     OW77072   8.919  12.252   3.784
25078SOL    HW177073   8.863  12.252   3.863
25078SOL    HW277074   8.993  12.308   3.808
25079SOL     OW77075   5.904   2.688   1.931
25079SOL    HW177076   5.974   2.676   1.866
25079SOL    HW277077   5.942   2.660   2.014
25080SOL     OW77078   7.779  14.804   1.385
25080SOL    HW177079   7.759  14.766   1.471
25080SOL    HW277080   7.875  14.804   1.381
25081SOL     OW77081   4.051   4.770   7.805
25081SOL    HW177082   3.993   4.739   7.736
25081SOL    HW277083   3.993   4.811   7.869
25082SOL     OW77084   2.705   2.613   4.452
25082SOL    HW177085   2.703   2.551   4.379
25082SOL    HW277086   2.751   2.689   4.417
25083SOL     OW77087   0.685   0.629   9.190
25083SOL    HW177088   0.636   0.710   9.177
25083SOL    HW277089   0.775   0.651   9.166
25084SOL     OW77090   6.221  14.057  14.601
25084SOL    HW177091   6.224  14.098  14.514
25084SOL    HW277092   6.172  13.977  14.588
25085SOL     OW77093   7.084   7.784   2.191
25085SOL    HW177094   7.036   7.703   2.180
25085SOL    HW277095   7.172   7.764   2.159
25086SOL     OW77096   0.941   9.000  14.789
25086SOL    HW177097   0.976   9.063  14.852
25086SOL    HW277098   0.952   8.915  14.831
25087SOL     OW77099   8.706   6.582   6.954
25087SOL    HW177100   8.630   6.616   7.000
25087SOL    HW277101   8.712   6.636   6.875
25088SOL     OW77102   6.480   2.108   1.578
25088SOL    HW177103   6.396   2.101   1.624
25088SOL    HW277104   6.534   2.039   1.617
25089SOL     OW77105  14.757  10.269  13.501
25089SOL    HW177106  14.753  10.192  13.445
25089SOL    HW277107  14.850  10.286  13.512
25090SOL     OW77108  14.287  12.448   1.204
25090SOL    HW177109  14.369  12.480   1.242
25090SOL    HW277110  14.247  12.395   1.272
25091SOL     OW77111  13.142  13.555   4.687
25091SOL    HW177112  13.197  13.560   4.609
25091SOL    HW277113  13.131  13.461   4.702
25092SOL     OW77114   0.068  12.293   8.793
25092SOL    HW177115   0.090  12.302   8.700
25092SOL    HW277116   0.134  12.233   8.827
25093SOL     OW77117   0.147   1.087  13.904
25093SOL    HW177118   0.153   1.125  13.991
25093SOL    HW277119   0.083   1.016  13.913
25094SOL     OW77120   7.067   1.305   3.318
25094SOL    HW177121   7.156   1.272   3.306
25094SOL    HW277122   7.014   1.226   3.331
25095SOL     OW77123   2.884  14.802   3.063
25095SOL    HW177124   2.796  14.832   3.085
25095SOL    HW277125   2.886  14.804   2.967
25096SOL     OW77126  14.875   4.752   2.383
25096SOL    HW177127  14.836   4.771   2.468
25096SOL    HW277128   0.075   4.708   2.403
25097SOL     OW77129   3.985  13.167   1.303
25097SOL    HW177130   4.076  13.154   1.275
25097SOL    HW277131   3.952  13.237   1.247
25098SOL     OW77132   1.614  10.664   4.479
25098SOL    HW177133   1.609  10.746   4.430
25098SOL    HW277134   1.580  10.686   4.566
25099SOL     OW77135   9.006   9.740  12.023
25099SOL    HW177136   8.927   9.753  11.971
25099SOL    HW277137   9.070   9.800  11.985
25100SOL     OW77138   2.238   4.007   7.289
25100SOL    HW177139   2.283   3.976   7.211
25100SOL    HW277140   2.164   4.058   7.256
25101SOL     OW77141  12.811   3.326  12.261
25101SOL    HW177142  12.890   3.275  12.246
25101SOL    HW277143  12.823   3.365  12.348
25102SOL     OW77144   1.367   9.567  12.663
25102SOL    HW177145   1.422   9.498  12.624
25102SOL    HW277146   1.328   9.612  12.589
25103SOL     OW77147  10.835   8.191   8.470
25103SOL    HW177148  10.805   8.281   8.470
25103SOL    HW277149  10.885   8.182   8.551
25104SOL     OW77150  14.816  14.178   0.426
25104SOL    HW177151  14.865  14.102   0.395
25104SOL    HW277152  14.732  14.173   0.381
25105SOL     OW77153   9.708   8.898  14.609
25105SOL    HW177154   9.688   8.991  14.600
25105SOL    HW277155   9.663   8.856  14.535
25106SOL     OW77156   0.836   1.404  11.053
25106SOL    HW177157   0.918   1.436  11.092
25106SOL    HW277158   0.856   1.314  11.027
25107SOL     OW77159   4.044   0.660   8.836
25107SOL    HW177160   4.096   0.674   8.915
25107SOL    HW277161   4.013   0.747   8.812
25108SOL     OW77162   3.828  12.098   9.783
25108SOL    HW177163   3.884  12.090   9.860
25108SOL    HW277164   3.876  12.054   9.713
25109SOL     OW77165   1.641  12.643   2.599
25109SOL    HW177166   1.666  12.643   2.692
25109SOL    HW277167   1.679  12.724   2.564
25110SOL     OW77168  12.227   7.231  13.762
25110SOL    HW177169  12.172   7.172  13.711
25110SOL    HW277170  12.316   7.197  13.750
25111SOL     OW77171   0.909   1.627   2.941
25111SOL    HW177172   0.903   1.590   3.029
25111SOL    HW277173   0.821   1.659   2.921
25112SOL     OW77174  10.257  11.414  11.014
25112SOL    HW177175  10.259  11.433  11.108
25112SOL    HW277176  10.222  11.494  10.974
25113SOL     OW77177   9.330  14.647   5.985
25113SOL    HW177178   9.282  14.582   5.934
25113SOL    HW277179   9.273  14.667   6.059
25114SOL     OW77180  11.372  10.717   7.237
25114SOL    HW177181  11.314  10.765   7.296
25114SOL    HW277182  11.342  10.626   7.243
25115SOL     OW77183  14.882   4.876   3.287
25115SOL    HW177184   0.022   4.917   3.204
25115SOL    HW277185  14.865   4.785   3.265
25116SOL     OW77186   2.278   4.059   5.935
25116SOL    HW177187   2.362   4.088   5.899
25116SOL    HW277188   2.289   3.965   5.947
25117SOL     OW77189   1.763  13.227  11.875
25117SOL    HW177190   1.835  13.172  11.846
25117SOL    HW277191   1.686  13.172  11.869
25118SOL     OW77192  14.359  11.982   2.417
25118SOL    HW177193  14.301  12.028   2.356
25118SOL    HW277194  14.300  11.929   2.471
25119SOL     OW77195   0.071  14.850   1.508
25119SOL    HW177196   0.067  14.842   1.412
25119SOL    HW277197   0.165  14.846   1.528
25120SOL     OW77198  11.737   0.668  12.780
25120SOL    HW177199  11.817   0.668  12.727
25120SOL    HW277200  11.695   0.751  12.760
25121SOL     OW77201  10.840   2.738   3.102
25121SOL    HW177202  10.785   2.809   3.069
25121SOL    HW277203  10.889   2.777   3.174
25122SOL     OW77204   2.393  12.216   4.179
25122SOL    HW177205   2.404  12.169   4.096
25122SOL    HW277206   2.414  12.307   4.157
25123SOL     OW77207   1.733   8.174  12.663
25123SOL    HW177208   1.645   8.179  12.700
25123SOL    HW277209   1.750   8.262  12.631
25124SOL     OW77210  14.366  12.693   1.500
25124SOL    HW177211  14.424  12.640   1.444
25124SOL    HW277212  14.413  12.700   1.583
25125SOL     OW77213  10.064   4.262   1.746
25125SOL    HW177214  10.031   4.320   1.813
25125SOL    HW277215   9.986   4.220   1.709
25126SOL     OW77216   7.409  11.250  13.131
25126SOL    HW177217   7.479  11.314  13.142
25126SOL    HW277218   7.429  11.207  13.048
25127SOL     OW77219   3.346   9.309  11.324
25127SOL    HW177220   3.430   9.298  11.368
25127SOL    HW277221   3.349   9.250  11.249
25128SOL     OW77222   1.680  12.141  13.592
25128SOL    HW177223   1.711  12.060  13.632
25128SOL    HW277224   1.611  12.113  13.532
25129SOL     OW77225  12.326  13.037   5.348
25129SOL    HW177226  12.292  13.111   5.398
25129SOL    HW277227  12.281  13.044   5.263
25130SOL     OW77228   7.554  13.378   2.321
25130SOL    HW177229   7.597  13.292   2.322
25130SOL    HW277230   7.610  13.433   2.375
25131SOL     OW77231   4.668   3.524   3.630
25131SOL    HW177232   4.702   3.494   3.546
25131SOL    HW277233   4.573   3.528   3.619
25132SOL     OW77234   6.835  10.060   6.291
25132SOL    HW177235   6.772   9.989   6.282
25132SOL    HW277236   6.920  10.020   6.273
25133SOL     OW77237   3.466   1.187  12.619
25133SOL    HW177238   3.557   1.191  12.646
25133SOL    HW277239   3.455   1.259  12.558
25134SOL     OW77240   7.649  13.510   8.875
25134SOL    HW177241   7.731  13.486   8.918
25134SOL    HW277242   7.673  13.519   8.782
25135SOL     OW77243   5.118   2.478   5.746
25135SOL    HW177244   5.042   2.533   5.766
25135SOL    HW277245   5.193   2.536   5.758
25136SOL     OW77246  11.195   3.174  10.736
25136SOL    HW177247  11.243   3.094  10.712
25136SOL    HW277248  11.166   3.158  10.825
25137SOL     OW77249   9.531  14.511   3.945
25137SOL    HW177250   9.573  14.507   4.031
25137SOL    HW277251   9.504  14.421   3.927
25138SOL     OW77252   8.344   1.370   9.814
25138SOL    HW177253   8.252   1.376   9.837
25138SOL    HW277254   8.348   1.300   9.748
25139SOL     OW77255   5.080   4.873   0.865
25139SOL    HW177256   5.091   4.949   0.923
25139SOL    HW277257   4.997   4.835   0.890
25140SOL     OW77258  14.862   2.728  12.931
25140SOL    HW177259   0.049   2.764  12.987
25140SOL    HW277260  14.810   2.804  12.905
25141SOL     OW77261   3.200  11.535   2.244
25141SOL    HW177262   3.293  11.558   2.243
25141SOL    HW277263   3.155  11.616   2.222
25142SOL     OW77264  11.935  14.353   7.749
25142SOL    HW177265  11.881  14.424   7.785
25142SOL    HW277266  11.947  14.377   7.657
25143SOL     OW77267  12.664   6.116   3.766
25143SOL    HW177268  12.622   6.161   3.840
25143SOL    HW277269  12.646   6.024   3.782
25144SOL     OW77270   7.820  11.609   7.392
25144SOL    HW177271   7.860  11.691   7.363
25144SOL    HW277272   7.826  11.612   7.487
25145SOL     OW77273   7.958  11.786   3.216
25145SOL    HW177274   7.993  11.821   3.133
25145SOL    HW277275   7.887  11.727   3.189
25146SOL     OW77276   8.415   1.215  10.593
25146SOL    HW177277   8.344   1.198  10.655
25146SOL    HW277278   8.373   1.216  10.507
25147SOL     OW77279   4.734   9.309   3.981
25147SOL    HW177280   4.793   9.278   3.913
25147SOL    HW277281   4.678   9.235   4.001
25148SOL     OW77282   9.273   9.649  12.313
25148SOL    HW177283   9.340   9.644  12.245
25148SOL    HW277284   9.312   9.606  12.389
25149SOL     OW77285   9.719   7.425   2.504
25149SOL    HW177286   9.656   7.391   2.568
25149SOL    HW277287   9.802   7.384   2.529
25150SOL     OW77288   4.578  11.921   5.041
25150SOL    HW177289   4.581  12.016   5.038
25150SOL    HW277290   4.549  11.895   4.953
25151SOL     OW77291   3.557  12.198  11.780
25151SOL    HW177292   3.511  12.246  11.849
25151SOL    HW277293   3.493  12.136  11.746
25152SOL     OW77294  12.679   1.501  11.638
25152SOL    HW177295  12.648   1.447  11.566
25152SOL    HW277296  12.674   1.591  11.605
25153SOL     OW77297  11.762  13.157   5.629
25153SOL    HW177298  11.834  13.115   5.675
25153SOL    HW277299  11.790  13.248   5.617
25154SOL     OW77300   6.922   9.585   8.196
25154SOL    HW177301   6.868   9.612   8.271
25154SOL    HW277302   6.875   9.617   8.119
25155SOL     OW77303   2.251   0.650   4.772
25155SOL    HW177304   2.232   0.563   4.736
25155SOL    HW277305   2.167   0.681   4.805
25156SOL     OW77306   6.800   3.308   0.098
25156SOL    HW177307   6.749   3.357   0.033
25156SOL    HW277308   6.743   3.304   0.175
25157SOL     OW77309  10.952   2.503   7.936
25157SOL    HW177310  10.956   2.560   7.859
25157SOL    HW277311  11.029   2.446   7.927
25158SOL     OW77312   8.634  13.218  14.637
25158SOL    HW177313   8.720  13.182  14.615
25158SOL    HW277314   8.598  13.158  14.703
25159SOL     OW77315  12.845   0.585   6.224
25159SOL    HW177316  12.799   0.651   6.276
25159SOL    HW277317  12.823   0.607   6.133
25160SOL     OW77318  14.480   5.886  12.481
25160SOL    HW177319  14.431   5.866  12.400
25160SOL    HW277320  14.546   5.949  12.454
25161SOL     OW77321   2.239  13.950   2.959
25161SOL    HW177322   2.292  13.967   3.037
25161SOL    HW277323   2.275  13.869   2.923
25162SOL     OW77324   9.899   3.186   5.041
25162SOL    HW177325   9.832   3.254   5.029
25162SOL    HW277326   9.939   3.208   5.126
25163SOL     OW77327   6.264   6.666  12.203
25163SOL    HW177328   6.204   6.598  12.172
25163SOL    HW277329   6.223   6.701  12.282
25164SOL     OW77330   8.879   1.002   7.709
25164SOL    HW177331   8.840   0.942   7.773
25164SOL    HW277332   8.854   0.965   7.624
25165SOL     OW77333   7.700   0.208  11.472
25165SOL    HW177334   7.676   0.254  11.391
25165SOL    HW277335   7.688   0.273  11.541
25166SOL     OW77336  11.930   8.110  11.720
25166SOL    HW177337  11.894   8.089  11.807
25166SOL    HW277338  12.023   8.088  11.727
25167SOL     OW77339   6.592   2.319   3.266
25167SOL    HW177340   6.504   2.346   3.240
25167SOL    HW277341   6.642   2.400   3.268
25168SOL     OW77342   3.678  12.865  14.075
25168SOL    HW177343   3.750  12.909  14.119
25168SOL    HW277344   3.643  12.805  14.140
25169SOL     OW77345   7.902   1.070   2.846
25169SOL    HW177346   7.921   1.131   2.775
25169SOL    HW277347   7.935   1.113   2.925
25170SOL     OW77348  13.289   3.431   6.203
25170SOL    HW177349  13.234   3.509   6.190
25170SOL    HW277350  13.351   3.456   6.271
25171SOL     OW77351   6.494   4.678   6.725
25171SOL    HW177352   6.555   4.648   6.793
25171SOL    HW277353   6.488   4.773   6.739
25172SOL     OW77354   8.283   9.194   6.623
25172SOL    HW177355   8.241   9.141   6.691
25172SOL    HW277356   8.362   9.229   6.665
25173SOL     OW77357   6.818   7.882   9.780
25173SOL    HW177358   6.847   7.972   9.767
25173SOL    HW277359   6.737   7.890   9.830
25174SOL     OW77360  13.880   9.823  13.786
25174SOL    HW177361  13.893   9.833  13.880
25174SOL    HW277362  13.961   9.782  13.755
25175SOL     OW77363  14.456   9.040   8.825
25175SOL    HW177364  14.434   8.955   8.787
25175SOL    HW277365  14.502   9.086   8.755
25176SOL     OW77366   4.391  13.266  10.563
25176SOL    HW177367   4.424  13.350  10.530
25176SOL    HW277368   4.297  13.280  10.574
25177SOL     OW77369   6.679  13.491   1.507
25177SOL    HW177370   6.585  13.476   1.514
25177SOL    HW277371   6.713  13.412   1.465
25178SOL     OW77372   0.324   1.925  10.522
25178SOL    HW177373   0.257   1.973  10.570
25178SOL    HW277374   0.400   1.983  10.522
25179SOL     OW77375   6.578   0.210   1.979
25179SOL    HW177376   6.490   0.214   2.017
25179SOL    HW277377   6.592   0.296   1.941
25180SOL     OW77378  13.735  11.174  11.042
25180SOL    HW177379  13.702  11.262  11.056
25180SOL    HW277380  13.741  11.136  11.130
25181SOL     OW77381   6.090   6.224   1.542
25181SOL    HW177382   6.177   6.226   1.503
25181SOL    HW277383   6.052   6.310   1.523
25182SOL     OW77384   4.740   1.893   7.745
25182SOL    HW177385   4.693   1.947   7.682
25182SOL    HW277386   4.766   1.954   7.814
25183SOL     OW77387   5.940   6.190   6.717
25183SOL    HW177388   5.908   6.109   6.677
25183SOL    HW277389   6.000   6.160   6.786
25184SOL     OW77390   2.269  11.517  14.299
25184SOL    HW177391   2.244  11.511  14.207
25184SOL    HW277392   2.265  11.426  14.330
25185SOL     OW77393  13.946   1.661   2.938
25185SOL    HW177394  13.912   1.741   2.978
25185SOL    HW277395  13.868   1.608   2.920
25186SOL     OW77396  12.924   1.438   9.708
25186SOL    HW177397  12.873   1.394   9.639
25186SOL    HW277398  12.858   1.478   9.764
25187SOL     OW77399   3.479  13.047   9.200
25187SOL    HW177400   3.387  13.024   9.186
25187SOL    HW277401   3.485  13.139   9.174
25188SOL     OW77402   6.971   2.217   9.759
25188SOL    HW177403   6.892   2.173   9.729
25188SOL    HW277404   6.954   2.310   9.743
25189SOL     OW77405  14.175   7.244  11.103
25189SOL    HW177406  14.154   7.295  11.025
25189SOL    HW277407  14.110   7.272  11.168
25190SOL     OW77408   6.788   3.562  13.555
25190SOL    HW177409   6.878   3.567  13.585
25190SOL    HW277410   6.745   3.501  13.615
25191SOL     OW77411   5.307   2.579   0.130
25191SOL    HW177412   5.304   2.633   0.209
25191SOL    HW277413   5.222   2.535   0.128
25192SOL     OW77414   7.645  13.297  12.096
25192SOL    HW177415   7.646  13.212  12.052
25192SOL    HW277416   7.625  13.276  12.187
25193SOL     OW77417   0.586  11.523   7.828
25193SOL    HW177418   0.623  11.482   7.750
25193SOL    HW277419   0.656  11.520   7.893
25194SOL     OW77420   5.473  12.651   5.263
25194SOL    HW177421   5.440  12.634   5.175
25194SOL    HW277422   5.422  12.726   5.294
25195SOL     OW77423  11.093  11.658  12.112
25195SOL    HW177424  11.100  11.613  12.028
25195SOL    HW277425  11.058  11.745  12.091
25196SOL     OW77426   9.349  13.887   8.246
25196SOL    HW177427   9.430  13.930   8.218
25196SOL    HW277428   9.280  13.947   8.217
25197SOL     OW77429  10.568  10.148  10.084
25197SOL    HW177430  10.619  10.073  10.053
25197SOL    HW277431  10.551  10.130  10.176
25198SOL     OW77432   4.651   4.194   2.183
25198SOL    HW177433   4.740   4.228   2.182
25198SOL    HW277434   4.643   4.151   2.268
25199SOL     OW77435   9.761   8.639   0.726
25199SOL    HW177436   9.750   8.713   0.666
25199SOL    HW277437   9.680   8.588   0.716
25200SOL     OW77438  10.437   9.436  13.051
25200SOL    HW177439  10.379   9.510  13.035
25200SOL    HW277440  10.381   9.369  13.089
25201SOL     OW77441   5.069   2.518   6.047
25201SOL    HW177442   5.138   2.532   6.112
25201SOL    HW277443   5.116   2.510   5.964
25202SOL     OW77444   3.857  11.071  14.877
25202SOL    HW177445   3.779  11.112   0.032
25202SOL    HW277446   3.839  10.977  14.880
25203SOL     OW77447   9.235   9.102   9.511
25203SOL    HW177448   9.328   9.122   9.517
25203SOL    HW277449   9.231   9.026   9.452
25204SOL     OW77450  11.362   9.554  14.646
25204SOL    HW177451  11.379   9.535  14.554
25204SOL    HW277452  11.427   9.502  14.694
25205SOL     OW77453  12.555   5.739  14.749
25205SOL    HW177454  12.493   5.802  14.785
25205SOL    HW277455  12.637   5.756  14.796
25206SOL     OW77456   2.076  10.511  14.213
25206SOL    HW177457   2.029  10.450  14.270
25206SOL    HW277458   2.120  10.571  14.274
25207SOL     OW77459   2.451   1.699   9.253
25207SOL    HW177460   2.519   1.736   9.309
25207SOL    HW277461   2.373   1.698   9.308
25208SOL     OW77462   5.053   9.476  12.070
25208SOL    HW177463   4.998   9.459  12.147
25208SOL    HW277464   5.026   9.563  12.041
25209SOL     OW77465  11.487   8.611  14.301
25209SOL    HW177466  11.559   8.661  14.262
25209SOL    HW277467  11.408   8.657  14.276
25210SOL     OW77468  12.611  12.769  14.341
25210SOL    HW177469  12.535  12.819  14.310
25210SOL    HW277470  12.627  12.704  14.273
25211SOL     OW77471   0.338   6.913  12.359
25211SOL    HW177472   0.330   6.967  12.438
25211SOL    HW277473   0.318   6.973  12.287
25212SOL     OW77474   8.554   3.531   3.125
25212SOL    HW177475   8.629   3.565   3.174
25212SOL    HW277476   8.570   3.559   3.035
25213SOL     OW77477   2.757   1.217   2.902
25213SOL    HW177478   2.849   1.230   2.879
25213SOL    HW277479   2.749   1.123   2.918
25214SOL     OW77480  13.909  10.869   8.405
25214SOL    HW177481  13.959  10.787   8.414
25214SOL    HW277482  13.973  10.938   8.419
25215SOL     OW77483   9.562  12.188   4.058
25215SOL    HW177484   9.611  12.216   4.135
25215SOL    HW277485   9.493  12.131   4.092
25216SOL     OW77486   9.852   9.196   9.743
25216SOL    HW177487   9.866   9.161   9.654
25216SOL    HW277488   9.809   9.280   9.729
25217SOL     OW77489   5.642   2.614  11.782
25217SOL    HW177490   5.706   2.673  11.823
25217SOL    HW277491   5.581   2.593  11.853
25218SOL     OW77492   6.607   3.089   5.088
25218SOL    HW177493   6.683   3.139   5.117
25218SOL    HW277494   6.542   3.102   5.157
25219SOL     OW77495   9.363   0.476   9.220
25219SOL    HW177496   9.427   0.429   9.166
25219SOL    HW277497   9.413   0.505   9.296
25220SOL     OW77498  13.335   7.328  12.631
25220SOL    HW177499  13.429   7.314  12.641
25220SOL    HW277500  13.295   7.273  12.698
25221SOL     OW77501   1.377  10.003   5.003
25221SOL    HW177502   1.463  10.042   5.019
25221SOL    HW277503   1.365   9.941   5.076
25222SOL     OW77504   2.819   4.789   8.311
25222SOL    HW177505   2.836   4.732   8.236
25222SOL    HW277506   2.749   4.745   8.359
25223SOL     OW77507   0.004  13.092  14.699
25223SOL    HW177508  14.809  13.146  14.718
25223SOL    HW277509   0.072  13.127  14.756
25224SOL     OW77510   2.305   0.304  14.315
25224SOL    HW177511   2.379   0.329  14.260
25224SOL    HW277512   2.240   0.373  14.300
25225SOL     OW77513  14.439  12.147   8.244
25225SOL    HW177514  14.521  12.108   8.273
25225SOL    HW277515  14.442  12.141   8.149
25226SOL     OW77516  13.576   9.969   7.583
25226SOL    HW177517  13.653  10.019   7.610
25226SOL    HW277518  13.609   9.881   7.566
25227SOL     OW77519   0.363   3.675  10.548
25227SOL    HW177520   0.408   3.624  10.616
25227SOL    HW277521   0.277   3.695  10.586
25228SOL     OW77522   3.451   2.702   3.315
25228SOL    HW177523   3.477   2.717   3.224
25228SOL    HW277524   3.374   2.645   3.308
25229SOL     OW77525  12.666  12.845   7.134
25229SOL    HW177526  12.663  12.930   7.178
25229SOL    HW277527  12.597  12.793   7.178
25230SOL     OW77528   6.771  11.532   1.111
25230SOL    HW177529   6.730  11.588   1.176
25230SOL    HW277530   6.777  11.586   1.032
25231SOL     OW77531   7.617   4.885   6.270
25231SOL    HW177532   7.672   4.910   6.195
25231SOL    HW277533   7.556   4.957   6.280
25232SOL     OW77534  12.138   8.023   5.321
25232SOL    HW177535  12.137   8.115   5.297
25232SOL    HW277536  12.219   8.012   5.371
25233SOL     OW77537   4.962  13.980   1.490
25233SOL    HW177538   5.029  13.995   1.422
25233SOL    HW277539   4.980  13.891   1.520
25234SOL     OW77540   3.757   4.209  14.446
25234SOL    HW177541   3.782   4.118  14.430
25234SOL    HW277542   3.827   4.261  14.406
25235SOL     OW77543   4.421  10.305   9.724
25235SOL    HW177544   4.447  10.385   9.769
25235SOL    HW277545   4.343  10.275   9.771
25236SOL     OW77546  12.787   4.325   5.766
25236SOL    HW177547  12.767   4.323   5.673
25236SOL    HW277548  12.773   4.235   5.796
25237SOL     OW77549   8.679   5.344   8.142
25237SOL    HW177550   8.736   5.295   8.201
25237SOL    HW277551   8.592   5.335   8.180
25238SOL     OW77552  12.080   9.498  11.997
25238SOL    HW177553  12.073   9.544  11.913
25238SOL    HW277554  12.002   9.443  12.002
25239SOL     OW77555   9.894  10.671   5.826
25239SOL    HW177556   9.889  10.765   5.806
25239SOL    HW277557   9.829  10.658   5.895
25240SOL     OW77558  11.293  11.393   1.516
25240SOL    HW177559  11.374  11.344   1.524
25240SOL    HW277560  11.224  11.329   1.529
25241SOL     OW77561   6.774  13.357   6.062
25241SOL    HW177562   6.774  13.294   6.134
25241SOL    HW277563   6.682  13.370   6.040
25242SOL     OW77564   1.445   8.948  13.982
25242SOL    HW177565   1.425   8.875  13.923
25242SOL    HW277566   1.360   8.989  13.998
25243SOL     OW77567   7.372   0.971  14.796
25243SOL    HW177568   7.453   1.019  14.778
25243SOL    HW277569   7.330   0.962  14.710
25244SOL     OW77570   0.290   9.722  11.079
25244SOL    HW177571   0.243   9.805  11.084
25244SOL    HW277572   0.230   9.658  11.118
25245SOL     OW77573   8.299   2.201   2.387
25245SOL    HW177574   8.316   2.287   2.350
25245SOL    HW277575   8.236   2.218   2.457
25246SOL     OW77576   1.791   8.396   5.159
25246SOL    HW177577   1.832   8.479   5.135
25246SOL    HW277578   1.864   8.334   5.162
25247SOL     OW77579   3.527   6.439   7.728
25247SOL    HW177580   3.451   6.473   7.682
25247SOL    HW277581   3.595   6.432   7.660
25248SOL     OW77582   8.380   4.713   1.646
25248SOL    HW177583   8.297   4.721   1.599
25248SOL    HW277584   8.364   4.644   1.711
25249SOL     OW77585   2.025   5.575   8.387
25249SOL    HW177586   2.026   5.606   8.296
25249SOL    HW277587   2.118   5.571   8.411
25250SOL     OW77588   5.475  14.645   6.552
25250SOL    HW177589   5.529  14.716   6.517
25250SOL    HW277590   5.462  14.668   6.644
25251SOL     OW77591  14.255  10.292  12.285
25251SOL    HW177592  14.263  10.368  12.342
25251SOL    HW277593  14.190  10.317  12.219
25252SOL     OW77594  11.278   2.343  11.367
25252SOL    HW177595  11.323   2.372  11.288
25252SOL    HW277596  11.185   2.352  11.347
25253SOL     OW77597   5.887   0.744   7.457
25253SOL    HW177598   5.853   0.759   7.545
25253SOL    HW277599   5.861   0.821   7.407
25254SOL     OW77600   3.115   3.658   6.667
25254SOL    HW177601   3.053   3.609   6.720
25254SOL    HW277602   3.064   3.686   6.591
25255SOL     OW77603   3.558   2.146  10.561
25255SOL    HW177604   3.654   2.145  10.561
25255SOL    HW277605   3.533   2.095  10.638
25256SOL     OW77606   7.803   7.897   8.116
25256SOL    HW177607   7.712   7.871   8.128
25256SOL    HW277608   7.799   7.981   8.071
25257SOL     OW77609   9.540   0.522   0.611
25257SOL    HW177610   9.472   0.589   0.601
25257SOL    HW277611   9.512   0.452   0.552
25258SOL     OW77612   9.034   9.744  14.714
25258SOL    HW177613   9.121   9.722  14.680
25258SOL    HW277614   8.981   9.760  14.636
25259SOL     OW77615   2.363   1.737  11.597
25259SOL    HW177616   2.437   1.724  11.657
25259SOL    HW277617   2.339   1.648  11.571
25260SOL     OW77618  13.052   7.894   8.298
25260SOL    HW177619  13.135   7.925   8.261
25260SOL    HW277620  13.028   7.820   8.242
25261SOL     OW77621   6.552   3.028  11.302
25261SOL    HW177622   6.480   3.019  11.364
25261SOL    HW277623   6.525   2.973  11.227
25262SOL     OW77624  13.488   9.418   0.974
25262SOL    HW177625  13.549   9.476   1.020
25262SOL    HW277626  13.404   9.464   0.978
25263SOL     OW77627   6.173   0.915   1.644
25263SOL    HW177628   6.231   0.941   1.714
25263SOL    HW277629   6.225   0.857   1.589
25264SOL     OW77630   8.754   1.368   7.288
25264SOL    HW177631   8.738   1.359   7.382
25264SOL    HW277632   8.808   1.292   7.266
25265SOL     OW77633   4.800   9.165  12.011
25265SOL    HW177634   4.751   9.095  12.055
25265SOL    HW277635   4.786   9.242  12.066
25266SOL     OW77636   7.643   0.977   3.087
25266SOL    HW177637   7.660   0.961   2.994
25266SOL    HW277638   7.633   0.890   3.125
25267SOL     OW77639  11.044   2.929  14.604
25267SOL    HW177640  11.014   2.985  14.676
25267SOL    HW277641  11.093   2.988  14.546
25268SOL     OW77642   0.811  10.816  10.550
25268SOL    HW177643   0.738  10.831  10.610
25268SOL    HW277644   0.796  10.727  10.516
25269SOL     OW77645  10.937   8.275   6.905
25269SOL    HW177646  11.014   8.296   6.958
25269SOL    HW277647  10.883   8.221   6.962
25270SOL     OW77648   0.652   8.021  14.380
25270SOL    HW177649   0.620   7.962  14.448
25270SOL    HW277650   0.649   8.108  14.420
25271SOL     OW77651   4.862   2.480   7.928
25271SOL    HW177652   4.829   2.393   7.905
25271SOL    HW277653   4.865   2.479   8.024
25272SOL     OW77654   1.954  11.063   2.149
25272SOL    HW177655   2.020  11.077   2.081
25272SOL    HW277656   1.934  11.150   2.182
25273SOL     OW77657  12.802  11.090   2.523
25273SOL    HW177658  12.824  11.051   2.438
25273SOL    HW277659  12.714  11.125   2.511
25274SOL     OW77660   6.237   1.275   8.066
25274SOL    HW177661   6.309   1.213   8.081
25274SOL    HW277662   6.194   1.283   8.151
25275SOL     OW77663   9.680  10.257   7.562
25275SOL    HW177664   9.713  10.244   7.651
25275SOL    HW277665   9.730  10.331   7.528
25276SOL     OW77666  14.580  10.915   8.896
25276SOL    HW177667  14.622  10.946   8.976
25276SOL    HW277668  14.575  10.993   8.840
25277SOL     OW77669  12.743   6.801   5.051
25277SOL    HW177670  12.692   6.883   5.053
25277SOL    HW277671  12.806   6.810   5.123
25278SOL     OW77672   1.682   9.684   0.472
25278SOL    HW177673   1.690   9.646   0.385
25278SOL    HW277674   1.758   9.650   0.520
25279SOL     OW77675   5.633   0.300   6.515
25279SOL    HW177676   5.584   0.359   6.572
25279SOL    HW277677   5.651   0.351   6.436
25280SOL     OW77678   2.439   9.871   3.295
25280SOL    HW177679   2.359   9.849   3.249
25280SOL    HW277680   2.417   9.948   3.347
25281SOL     OW77681   5.569  12.749  11.901
25281SOL    HW177682   5.508  12.823  11.890
25281SOL    HW277683   5.589  12.722  11.811
25282SOL     OW77684   7.302   2.613   7.134
25282SOL    HW177685   7.347   2.682   7.085
25282SOL    HW277686   7.235   2.658   7.184
25283SOL     OW77687  10.403   5.110   8.940
25283SOL    HW177688  10.442   5.033   8.898
25283SOL    HW277689  10.317   5.080   8.968
25284SOL     OW77690   6.416   2.415   0.115
25284SOL    HW177691   6.492   2.398   0.171
25284SOL    HW277692   6.365   2.334   0.119
25285SOL     OW77693   9.405   7.348   0.338
25285SOL    HW177694   9.491   7.371   0.372
25285SOL    HW277695   9.345   7.365   0.410
25286SOL     OW77696  13.124  12.730  12.704
25286SOL    HW177697  13.109  12.732  12.609
25286SOL    HW277698  13.040  12.705  12.742
25287SOL     OW77699  12.269   2.427   7.602
25287SOL    HW177700  12.362   2.404   7.593
25287SOL    HW277701  12.229   2.395   7.521
25288SOL     OW77702  13.587  11.276   0.312
25288SOL    HW177703  13.511  11.218   0.312
25288SOL    HW277704  13.621  11.272   0.223
25289SOL     OW77705   2.052  14.536   1.946
25289SOL    HW177706   1.999  14.471   1.900
25289SOL    HW277707   2.116  14.484   1.995
25290SOL     OW77708  12.811   9.741  10.383
25290SOL    HW177709  12.886   9.766  10.437
25290SOL    HW277710  12.849   9.703  10.304
25291SOL     OW77711   5.542   1.782   7.145
25291SOL    HW177712   5.635   1.786   7.121
25291SOL    HW277713   5.533   1.848   7.214
25292SOL     OW77714   1.508   1.095  12.041
25292SOL    HW177715   1.535   1.004  12.026
25292SOL    HW277716   1.414   1.090  12.058
25293SOL     OW77717  14.028   2.023   8.299
25293SOL    HW177718  14.036   2.098   8.240
25293SOL    HW277719  14.020   2.062   8.386
25294SOL     OW77720  10.958   5.945  12.119
25294SOL    HW177721  11.048   5.921  12.142
25294SOL    HW277722  10.925   5.992  12.195
25295SOL     OW77723   5.301  10.156   5.210
25295SOL    HW177724   5.337  10.074   5.175
25295SOL    HW277725   5.376  10.201   5.247
25296SOL     OW77726   3.562  11.897   3.332
25296SOL    HW177727   3.513  11.976   3.309
25296SOL    HW277728   3.636  11.896   3.271
25297SOL     OW77729   4.484  11.707   7.744
25297SOL    HW177730   4.410  11.646   7.752
25297SOL    HW277731   4.548  11.676   7.808
25298SOL     OW77732  10.588  10.598   9.068
25298SOL    HW177733  10.614  10.679   9.023
25298SOL    HW277734  10.580  10.534   8.997
25299SOL     OW77735  13.531   4.369   2.862
25299SOL    HW177736  13.547   4.278   2.889
25299SOL    HW277737  13.448   4.392   2.905
25300SOL     OW77738   0.365   6.677  11.210
25300SOL    HW177739   0.459   6.671  11.229
25300SOL    HW277740   0.323   6.663  11.295
25301SOL     OW77741   0.751   3.450  13.828
25301SOL    HW177742   0.745   3.357  13.805
25301SOL    HW277743   0.668   3.488  13.800
25302SOL     OW77744  13.488  13.640   2.408
25302SOL    HW177745  13.580  13.625   2.391
25302SOL    HW277746  13.442  13.578   2.351
25303SOL     OW77747   5.307   1.922  14.606
25303SOL    HW177748   5.310   1.833  14.573
25303SOL    HW277749   5.275   1.913  14.696
25304SOL     OW77750  10.876   0.832   3.211
25304SOL    HW177751  10.972   0.835   3.211
25304SOL    HW277752  10.849   0.924   3.218
25305SOL     OW77753   2.493   7.175  10.032
25305SOL    HW177754   2.414   7.227  10.015
25305SOL    HW277755   2.486   7.151  10.124
25306SOL     OW77756  13.529   7.731   1.701
25306SOL    HW177757  13.550   7.644   1.737
25306SOL    HW277758  13.550   7.791   1.772
25307SOL     OW77759   8.127   9.540   0.158
25307SOL    HW177760   8.199   9.565   0.217
25307SOL    HW277761   8.168   9.534   0.072
25308SOL     OW77762   6.821  12.185   4.727
25308SOL    HW177763   6.872  12.266   4.723
25308SOL    HW277764   6.864  12.127   4.663
25309SOL     OW77765   8.273   6.668   7.788
25309SOL    HW177766   8.358   6.698   7.755
25309SOL    HW277767   8.227   6.748   7.813
25310SOL     OW77768   3.220   7.963  10.685
25310SOL    HW177769   3.147   7.985  10.627
25310SOL    HW277770   3.218   8.031  10.752
25311SOL     OW77771  12.199   2.952   4.852
25311SOL    HW177772  12.187   2.912   4.766
25311SOL    HW277773  12.211   2.878   4.912
25312SOL     OW77774   1.158   7.604   1.152
25312SOL    HW177775   1.122   7.552   1.224
25312SOL    HW277776   1.117   7.690   1.163
25313SOL     OW77777  11.277  12.367   9.608
25313SOL    HW177778  11.281  12.327   9.521
25313SOL    HW277779  11.186  12.392   9.619
25314SOL     OW77780  12.542  12.053   4.393
25314SOL    HW177781  12.498  12.004   4.323
25314SOL    HW277782  12.629  12.013   4.399
25315SOL     OW77783   0.259   0.534   1.864
25315SOL    HW177784   0.333   0.502   1.914
25315SOL    HW277785   0.289   0.618   1.828
25316SOL     OW77786   3.327   7.413   0.764
25316SOL    HW177787   3.321   7.484   0.699
25316SOL    HW277788   3.315   7.456   0.848
25317SOL     OW77789  13.702   9.579   1.046
25317SOL    HW177790  13.702   9.675   1.052
25317SOL    HW277791  13.757   9.560   0.970
25318SOL     OW77792   5.204   0.197  12.773
25318SOL    HW177793   5.110   0.210  12.783
25318SOL    HW277794   5.233   0.270  12.718
25319SOL     OW77795  14.364   1.718  11.383
25319SOL    HW177796  14.291   1.661  11.407
25319SOL    HW277797  14.436   1.658  11.366
25320SOL     OW77798  11.499   6.511  11.965
25320SOL    HW177799  11.408   6.513  11.995
25320SOL    HW277800  11.546   6.463  12.033
25321SOL     OW77801   9.834   6.140   2.156
25321SOL    HW177802   9.905   6.204   2.152
25321SOL    HW277803   9.872   6.061   2.117
25322SOL     OW77804  13.857   8.507   6.971
25322SOL    HW177805  13.859   8.539   6.881
25322SOL    HW277806  13.808   8.425   6.966
25323SOL     OW77807  14.048  14.120  14.622
25323SOL    HW177808  13.972  14.136  14.676
25323SOL    HW277809  14.120  14.166  14.666
25324SOL     OW77810   7.386   9.068  10.978
25324SOL    HW177811   7.469   9.038  11.015
25324SOL    HW277812   7.353   9.131  11.042
25325SOL     OW77813  10.304   3.797   0.266
25325SOL    HW177814  10.344   3.745   0.196
25325SOL    HW277815  10.216   3.816   0.234
25326SOL     OW77816  10.533  14.338   1.232
25326SOL    HW177817  10.451  14.289   1.227
25326SOL    HW277818  10.519  14.414   1.176
25327SOL     OW77819   1.028   8.239   2.682
25327SOL    HW177820   1.056   8.196   2.602
25327SOL    HW277821   1.001   8.327   2.653
25328SOL     OW77822  12.471   7.904  11.397
25328SOL    HW177823  12.511   7.864  11.319
25328SOL    HW277824  12.436   7.831  11.447
25329SOL     OW77825   6.259   8.276   8.840
25329SOL    HW177826   6.256   8.187   8.874
25329SOL    HW277827   6.334   8.316   8.883
25330SOL     OW77828  11.861   0.004  13.629
25330SOL    HW177829  11.873   0.048  13.545
25330SOL    HW277830  11.885  14.795  13.613
25331SOL     OW77831   4.832   7.721  10.141
25331SOL    HW177832   4.824   7.763  10.227
25331SOL    HW277833   4.746   7.680  10.127
25332SOL     OW77834   0.620   0.097  14.206
25332SOL    HW177835   0.670   0.016  14.193
25332SOL    HW277836   0.566   0.105  14.128
25333SOL     OW77837  12.449   0.515   5.812
25333SOL    HW177838  12.401   0.490   5.891
25333SOL    HW277839  12.405   0.595   5.781
25334SOL     OW77840   8.579   6.070   8.365
25334SOL    HW177841   8.643   6.102   8.302
25334SOL    HW277842   8.630   6.055   8.445
25335SOL     OW77843  12.955  10.266   4.679
25335SOL    HW177844  12.907  10.185   4.690
25335SOL    HW277845  13.027  10.244   4.620
25336SOL     OW77846   5.195   0.726   4.879
25336SOL    HW177847   5.286   0.715   4.851
25336SOL    HW277848   5.179   0.655   4.941
25337SOL     OW77849   7.118   7.574   0.534
25337SOL    HW177850   7.178   7.590   0.607
25337SOL    HW277851   7.165   7.605   0.457
25338SOL     OW77852   5.279   9.979   7.682
25338SOL    HW177853   5.317  10.010   7.600
25338SOL    HW277854   5.297   9.885   7.683
25339SOL     OW77855  12.308   3.393   4.145
25339SOL    HW177856  12.230   3.339   4.155
25339SOL    HW277857  12.355   3.354   4.071
25340SOL     OW77858  13.390   3.055   4.907
25340SOL    HW177859  13.416   2.982   4.963
25340SOL    HW277860  13.467   3.071   4.851
25341SOL     OW77861  12.038  10.835   5.045
25341SOL    HW177862  12.094  10.831   5.122
25341SOL    HW277863  12.034  10.745   5.013
25342SOL     OW77864   1.779   4.586   6.363
25342SOL    HW177865   1.860   4.638   6.363
25342SOL    HW277866   1.710   4.651   6.371
25343SOL     OW77867  10.356   6.193   8.785
25343SOL    HW177868  10.364   6.169   8.877
25343SOL    HW277869  10.446   6.197   8.753
25344SOL     OW77870   7.630   1.312   7.188
25344SOL    HW177871   7.644   1.253   7.262
25344SOL    HW277872   7.704   1.296   7.130
25345SOL     OW77873   9.368   0.263   3.114
25345SOL    HW177874   9.341   0.175   3.139
25345SOL    HW277875   9.464   0.262   3.121
25346SOL     OW77876   9.042   8.716  12.440
25346SOL    HW177877   9.128   8.675  12.444
25346SOL    HW277878   9.020   8.734  12.531
25347SOL     OW77879   7.540   2.010   6.223
25347SOL    HW177880   7.526   2.104   6.226
25347SOL    HW277881   7.634   1.999   6.209
25348SOL     OW77882  11.335   6.278   7.398
25348SOL    HW177883  11.376   6.364   7.404
25348SOL    HW277884  11.377   6.237   7.323
25349SOL     OW77885   1.542  14.813   2.777
25349SOL    HW177886   1.537  14.724   2.809
25349SOL    HW277887   1.459  14.853   2.804
25350SOL     OW77888   9.052   4.672  12.050
25350SOL    HW177889   9.141   4.699  12.028
25350SOL    HW277890   9.021   4.625  11.973
25351SOL     OW77891   6.948  14.378   1.269
25351SOL    HW177892   6.940  14.448   1.204
25351SOL    HW277893   7.009  14.316   1.231
25352SOL     OW77894   9.594  10.813  11.625
25352SOL    HW177895   9.541  10.863  11.562
25352SOL    HW277896   9.617  10.733  11.578
25353SOL     OW77897  14.812  14.152   1.633
25353SOL    HW177898  14.854  14.073   1.666
25353SOL    HW277899  14.863  14.224   1.671
25354SOL     OW77900   9.435  13.595   1.272
25354SOL    HW177901   9.487  13.535   1.326
25354SOL    HW277902   9.500  13.653   1.232
25355SOL     OW77903  12.408   5.445   1.054
25355SOL    HW177904  12.487   5.399   1.027
25355SOL    HW277905  12.375   5.392   1.127
25356SOL     OW77906   4.971   0.868   5.891
25356SOL    HW177907   4.887   0.825   5.907
25356SOL    HW277908   5.003   0.890   5.979
25357SOL     OW77909   3.279   1.387   6.063
25357SOL    HW177910   3.368   1.379   6.098
25357SOL    HW277911   3.287   1.360   5.972
25358SOL     OW77912   5.619  13.388   8.085
25358SOL    HW177913   5.610  13.338   8.166
25358SOL    HW277914   5.617  13.322   8.016
25359SOL     OW77915   7.438   8.896   0.093
25359SOL    HW177916   7.422   8.888   0.187
25359SOL    HW277917   7.531   8.914   0.086
25360SOL     OW77918   5.037   5.881  12.793
25360SOL    HW177919   5.035   5.976  12.790
25360SOL    HW277920   5.127   5.860  12.819
25361SOL     OW77921   1.561   0.463  11.353
25361SOL    HW177922   1.650   0.483  11.324
25361SOL    HW277923   1.522   0.548  11.370
25362SOL     OW77924  12.208  13.136   0.792
25362SOL    HW177925  12.290  13.089   0.807
25362SOL    HW277926  12.147  13.070   0.761
25363SOL     OW77927   8.325   1.688   7.768
25363SOL    HW177928   8.297   1.599   7.747
25363SOL    HW277929   8.421   1.685   7.759
25364SOL     OW77930   0.239   1.297  14.404
25364SOL    HW177931   0.275   1.255  14.482
25364SOL    HW277932   0.314   1.342  14.364
25365SOL     OW77933  14.344  11.500   2.575
25365SOL    HW177934  14.402  11.428   2.549
25365SOL    HW277935  14.284  11.510   2.501
25366SOL     OW77936   4.403  12.491   6.189
25366SOL    HW177937   4.458  12.414   6.198
25366SOL    HW277938   4.314  12.460   6.205
25367SOL     OW77939   3.252  14.349  12.981
25367SOL    HW177940   3.176  14.404  13.000
25367SOL    HW277941   3.298  14.395  12.911
25368SOL     OW77942   3.473  10.745  12.059
25368SOL    HW177943   3.487  10.756  11.965
25368SOL    HW277944   3.553  10.701  12.090
25369SOL     OW77945   9.557  10.430   8.686
25369SOL    HW177946   9.531  10.402   8.598
25369SOL    HW277947   9.561  10.349   8.736
25370SOL     OW77948   0.486   3.423   8.321
25370SOL    HW177949   0.468   3.334   8.352
25370SOL    HW277950   0.578   3.438   8.340
25371SOL     OW77951   1.352  13.272   1.331
25371SOL    HW177952   1.257  13.262   1.338
25371SOL    HW277953   1.366  13.366   1.331
25372SOL     OW77954  12.887   2.682   7.947
25372SOL    HW177955  12.837   2.636   8.015
25372SOL    HW277956  12.885   2.774   7.973
25373SOL     OW77957   1.509   8.725  13.489
25373SOL    HW177958   1.565   8.648  13.480
25373SOL    HW277959   1.457   8.708  13.567
25374SOL     OW77960   6.239   5.387  13.889
25374SOL    HW177961   6.284   5.463  13.925
25374SOL    HW277962   6.146   5.410  13.894
25375SOL     OW77963   9.413   5.305   7.151
25375SOL    HW177964   9.488   5.365   7.147
25375SOL    HW277965   9.404   5.283   7.244
25376SOL     OW77966  12.095  10.210  10.653
25376SOL    HW177967  12.189  10.193  10.663
25376SOL    HW277968  12.056  10.179  10.735
25377SOL     OW77969   2.882   2.105   9.757
25377SOL    HW177970   2.897   2.195   9.786
25377SOL    HW277971   2.911   2.051   9.831
25378SOL     OW77972   8.099   6.403   5.451
25378SOL    HW177973   8.016   6.402   5.499
25378SOL    HW277974   8.098   6.487   5.404
25379SOL     OW77975   4.003  12.822  13.231
25379SOL    HW177976   3.969  12.908  13.207
25379SOL    HW277977   3.927  12.775  13.266
25380SOL     OW77978   6.636  13.981  14.829
25380SOL    HW177979   6.710  13.951  14.777
25380SOL    HW277980   6.570  13.913  14.819
25381SOL     OW77981   1.013   3.084   3.962
25381SOL    HW177982   0.922   3.110   3.978
25381SOL    HW277983   1.058   3.100   4.045
25382SOL     OW77984   2.450  14.431  10.270
25382SOL    HW177985   2.480  14.494  10.336
25382SOL    HW277986   2.354  14.432  10.278
25383SOL     OW77987   7.965   4.079   2.581
25383SOL    HW177988   7.895   4.062   2.519
25383SOL    HW277989   8.033   4.122   2.529
25384SOL     OW77990   4.790  10.253   1.551
25384SOL    HW177991   4.743  10.306   1.616
25384SOL    HW277992   4.882  10.270   1.568
25385SOL     OW77993  14.254  13.589   3.694
25385SOL    HW177994  14.298  13.540   3.623
25385SOL    HW277995  14.313  13.663   3.711
25386SOL     OW77996  12.659  13.638   3.349
25386SOL    HW177997  12.570  13.603   3.353
25386SOL    HW277998  12.659  13.693   3.270
25387SOL     OW77999   5.164   2.606  11.290
25387SOL    HW178000   5.200   2.659  11.219
25387SOL    HW278001   5.107   2.543  11.247
25388SOL     OW78002   3.731   0.867  11.265
25388SOL    HW178003   3.736   0.854  11.359
25388SOL    HW278004   3.702   0.782  11.231
25389SOL     OW78005  14.468   9.940   3.197
25389SOL    HW178006  14.537   9.880   3.225
25389SOL    HW278007  14.452   9.995   3.274
25390SOL     OW78008   9.137  10.311   6.732
25390SOL    HW178009   9.129  10.404   6.753
25390SOL    HW278010   9.177  10.310   6.645
25391SOL     OW78011  14.714   5.480  10.514
25391SOL    HW178012  14.807   5.473  10.532
25391SOL    HW278013  14.692   5.400  10.466
25392SOL     OW78014   9.127   0.745   5.414
25392SOL    HW178015   9.038   0.723   5.442
25392SOL    HW278016   9.182   0.713   5.486
25393SOL     OW78017  14.270   6.854   0.833
25393SOL    HW178018  14.178   6.849   0.806
25393SOL    HW278019  14.294   6.764   0.852
25394SOL     OW78020  13.872  12.336   7.131
25394SOL    HW178021  13.835  12.337   7.219
25394SOL    HW278022  13.958  12.297   7.142
25395SOL     OW78023   7.070  11.721  11.029
25395SOL    HW178024   7.010  11.723  10.954
25395SOL    HW278025   7.027  11.664  11.092
25396SOL     OW78026  11.499   4.435   7.565
25396SOL    HW178027  11.466   4.454   7.653
25396SOL    HW278028  11.490   4.340   7.555
25397SOL     OW78029   6.457  13.385   4.408
25397SOL    HW178030   6.381  13.414   4.357
25397SOL    HW278031   6.421  13.324   4.473
25398SOL     OW78032   7.303   2.664  10.856
25398SOL    HW178033   7.357   2.596  10.897
25398SOL    HW278034   7.344   2.679  10.771
25399SOL     OW78035   3.878   5.613   9.701
25399SOL    HW178036   3.940   5.675   9.663
25399SOL    HW278037   3.932   5.538   9.728
25400SOL     OW78038   0.543   6.315  12.341
25400SOL    HW178039   0.629   6.273  12.340
25400SOL    HW278040   0.481   6.245  12.361
25401SOL     OW78041   7.885   1.336  10.572
25401SOL    HW178042   7.919   1.291  10.650
25401SOL    HW278043   7.807   1.286  10.548
25402SOL     OW78044   7.379   6.975  13.269
25402SOL    HW178045   7.379   7.071  13.270
25402SOL    HW278046   7.471   6.951  13.265
25403SOL     OW78047   9.413   8.889  14.452
25403SOL    HW178048   9.333   8.871  14.402
25403SOL    HW278049   9.473   8.927  14.387
25404SOL     OW78050   1.069   2.409   5.698
25404SOL    HW178051   1.034   2.323   5.676
25404SOL    HW278052   1.161   2.393   5.722
25405SOL     OW78053   1.798   5.104  12.003
25405SOL    HW178054   1.817   5.029  12.059
25405SOL    HW278055   1.862   5.170  12.030
25406SOL     OW78056   0.713   8.673  12.314
25406SOL    HW178057   0.627   8.713  12.325
25406SOL    HW278058   0.736   8.690  12.223
25407SOL     OW78059   4.900   8.392   1.032
25407SOL    HW178060   4.964   8.426   1.095
25407SOL    HW278061   4.818   8.436   1.056
25408SOL     OW78062   6.959  14.863   6.935
25408SOL    HW178063   7.015   0.058   6.939
25408SOL    HW278064   6.876   0.013   6.899
25409SOL     OW78065   6.493   1.833   2.037
25409SOL    HW178066   6.466   1.908   2.089
25409SOL    HW278067   6.584   1.852   2.014
25410SOL     OW78068  10.270   9.326   2.102
25410SOL    HW178069  10.251   9.341   2.195
25410SOL    HW278070  10.204   9.264   2.073
25411SOL     OW78071  12.558   9.201  11.033
25411SOL    HW178072  12.585   9.230  11.120
25411SOL    HW278073  12.465   9.224  11.028
25412SOL     OW78074  14.176   6.463   8.935
25412SOL    HW178075  14.098   6.456   8.991
25412SOL    HW278076  14.217   6.377   8.940
25413SOL     OW78077  14.251   3.686  13.119
25413SOL    HW178078  14.195   3.679  13.196
25413SOL    HW278079  14.271   3.595  13.096
25414SOL     OW78080   0.435   4.499   7.920
25414SOL    HW178081   0.485   4.421   7.945
25414SOL    HW278082   0.355   4.464   7.881
25415SOL     OW78083   8.534  11.585   2.465
25415SOL    HW178084   8.614  11.616   2.507
25415SOL    HW278085   8.499  11.520   2.526
25416SOL     OW78086  13.696   3.905  13.971
25416SOL    HW178087  13.721   3.980  14.024
25416SOL    HW278088  13.601   3.902  13.976
25417SOL     OW78089   8.072   0.581   4.117
25417SOL    HW178090   8.027   0.662   4.094
25417SOL    HW278091   8.151   0.579   4.063
25418SOL     OW78092   4.853   0.011   3.697
25418SOL    HW178093   4.809  14.876   3.613
25418SOL    HW278094   4.934  14.842   3.692
25419SOL     OW78095   3.639   9.433   2.532
25419SOL    HW178096   3.553   9.465   2.507
25419SOL    HW278097   3.676   9.398   2.450
25420SOL     OW78098   5.217  13.048   4.558
25420SOL    HW178099   5.157  13.109   4.515
25420SOL    HW278100   5.175  13.026   4.641
25421SOL     OW78101   8.721   4.847   1.356
25421SOL    HW178102   8.769   4.927   1.335
25421SOL    HW278103   8.671   4.868   1.435
25422SOL     OW78104   2.465   3.972   3.522
25422SOL    HW178105   2.531   4.002   3.584
25422SOL    HW278106   2.412   3.909   3.572
25423SOL     OW78107   9.276   1.574   7.365
25423SOL    HW178108   9.207   1.520   7.402
25423SOL    HW278109   9.293   1.641   7.432
25424SOL     OW78110   2.597   4.969   8.845
25424SOL    HW178111   2.568   5.019   8.921
25424SOL    HW278112   2.661   4.908   8.880
25425SOL     OW78113   9.704  10.361   3.383
25425SOL    HW178114   9.738  10.447   3.409
25425SOL    HW278115   9.634  10.343   3.446
25426SOL     OW78116   5.076   3.887   3.554
25426SOL    HW178117   5.159   3.932   3.566
25426SOL    HW278118   5.087   3.835   3.475
25427SOL     OW78119   3.753   3.776   8.902
25427SOL    HW178120   3.768   3.731   8.984
25427SOL    HW278121   3.755   3.707   8.835
25428SOL     OW78122   6.244  13.178   2.303
25428SOL    HW178123   6.195  13.147   2.227
25428SOL    HW278124   6.214  13.123   2.375
25429SOL     OW78125   2.424   8.229   9.840
25429SOL    HW178126   2.508   8.185   9.832
25429SOL    HW278127   2.443   8.308   9.892
25430SOL     OW78128  11.027  11.231   6.606
25430SOL    HW178129  10.934  11.244   6.625
25430SOL    HW278130  11.068  11.223   6.692
25431SOL     OW78131   3.959  10.701   8.968
25431SOL    HW178132   4.045  10.719   9.007
25431SOL    HW278133   3.897  10.712   9.040
25432SOL     OW78134   3.496   0.135   7.342
25432SOL    HW178135   3.517   0.077   7.416
25432SOL    HW278136   3.502   0.223   7.378
25433SOL     OW78137   9.960   6.593   7.414
25433SOL    HW178138  10.010   6.595   7.332
25433SOL    HW278139  10.027   6.592   7.482
25434SOL     OW78140  11.549  10.323   0.416
25434SOL    HW178141  11.528  10.414   0.434
25434SOL    HW278142  11.609  10.326   0.341
25435SOL     OW78143   2.681  12.064  12.307
25435SOL    HW178144   2.598  12.103  12.333
25435SOL    HW278145   2.714  12.023  12.386
25436SOL     OW78146   1.582  13.295  11.643
25436SOL    HW178147   1.544  13.381  11.626
25436SOL    HW278148   1.652  13.311  11.706
25437SOL     OW78149   8.499   8.636   5.820
25437SOL    HW178150   8.562   8.708   5.832
25437SOL    HW278151   8.548   8.569   5.774
25438SOL     OW78152   8.148  12.501   0.060
25438SOL    HW178153   8.192  12.516  14.858
25438SOL    HW278154   8.060  12.473   0.037
25439SOL     OW78155   8.525   6.765   4.641
25439SOL    HW178156   8.617   6.746   4.657
25439SOL    HW278157   8.515   6.755   4.546
25440SOL     OW78158   8.689   2.847   2.229
25440SOL    HW178159   8.664   2.908   2.160
25440SOL    HW278160   8.680   2.760   2.188
25441SOL     OW78161   4.974  11.792  12.476
25441SOL    HW178162   4.929  11.721  12.431
25441SOL    HW278163   5.041  11.822  12.415
25442SOL     OW78164   1.205  10.232   6.189
25442SOL    HW178165   1.170  10.235   6.278
25442SOL    HW278166   1.148  10.171   6.142
25443SOL     OW78167   9.013   0.647   5.965
25443SOL    HW178168   9.007   0.730   5.917
25443SOL    HW278169   9.104   0.620   5.955
25444SOL     OW78170  13.897   2.511   6.369
25444SOL    HW178171  13.845   2.581   6.409
25444SOL    HW278172  13.987   2.530   6.395
25445SOL     OW78173   8.932   2.424   4.001
25445SOL    HW178174   9.020   2.441   3.967
25445SOL    HW278175   8.911   2.336   3.970
25446SOL     OW78176  14.820  10.955   7.788
25446SOL    HW178177   0.003  11.022   7.766
25446SOL    HW278178  14.827  10.945   7.883
25447SOL     OW78179  10.306   8.173   3.141
25447SOL    HW178180  10.327   8.086   3.173
25447SOL    HW278181  10.390   8.210   3.114
25448SOL     OW78182   6.870  11.315   8.993
25448SOL    HW178183   6.839  11.305   8.903
25448SOL    HW278184   6.858  11.229   9.033
25449SOL     OW78185   9.456  12.744  14.704
25449SOL    HW178186   9.509  12.783  14.773
25449SOL    HW278187   9.375  12.794  14.705
25450SOL     OW78188   4.625   9.270   6.974
25450SOL    HW178189   4.587   9.185   6.954
25450SOL    HW278190   4.600   9.326   6.900
25451SOL     OW78191  13.166   2.360  13.448
25451SOL    HW178192  13.214   2.278  13.458
25451SOL    HW278193  13.074   2.333  13.439
25452SOL     OW78194   9.231   6.631  12.829
25452SOL    HW178195   9.149   6.617  12.877
25452SOL    HW278196   9.229   6.567  12.758
25453SOL     OW78197   3.200  11.710  10.518
25453SOL    HW178198   3.166  11.798  10.501
25453SOL    HW278199   3.151  11.679  10.594
25454SOL     OW78200   0.726   1.643  12.959
25454SOL    HW178201   0.641   1.607  12.983
25454SOL    HW278202   0.708   1.700  12.885
25455SOL     OW78203   2.192   1.690   7.895
25455SOL    HW178204   2.118   1.687   7.834
25455SOL    HW278205   2.152   1.700   7.981
25456SOL     OW78206  12.036  12.745   5.206
25456SOL    HW178207  11.953  12.737   5.253
25456SOL    HW278208  12.100  12.705   5.264
25457SOL     OW78209   6.494  13.737   5.811
25457SOL    HW178210   6.424  13.781   5.763
25457SOL    HW278211   6.572  13.748   5.756
25458SOL     OW78212   9.360   9.409   8.794
25458SOL    HW178213   9.295   9.463   8.839
25458SOL    HW278214   9.428   9.394   8.859
25459SOL     OW78215  12.666   5.343   7.454
25459SOL    HW178216  12.574   5.318   7.463
25459SOL    HW278217  12.709   5.307   7.531
25460SOL     OW78218   2.313  11.956  11.172
25460SOL    HW178219   2.364  12.031  11.140
25460SOL    HW278220   2.356  11.932  11.254
25461SOL     OW78221   2.549  11.373   2.756
25461SOL    HW178222   2.640  11.381   2.728
25461SOL    HW278223   2.518  11.291   2.719
25462SOL     OW78224   1.954   1.435  13.866
25462SOL    HW178225   1.923   1.422  13.776
25462SOL    HW278226   1.961   1.530  13.875
25463SOL     OW78227  13.178  10.076   9.401
25463SOL    HW178228  13.114  10.078   9.330
25463SOL    HW278229  13.260  10.050   9.359
25464SOL     OW78230   3.560  12.627  13.391
25464SOL    HW178231   3.525  12.563  13.329
25464SOL    HW278232   3.483  12.669  13.428
25465SOL     OW78233   9.708   1.556  14.766
25465SOL    HW178234   9.672   1.566  14.855
25465SOL    HW278235   9.732   1.463  14.761
25466SOL     OW78236  10.159  14.764   0.846
25466SOL    HW178237  10.215  14.699   0.803
25466SOL    HW278238  10.203  14.847   0.828
25467SOL     OW78239   7.460   7.206   9.628
25467SOL    HW178240   7.453   7.256   9.710
25467SOL    HW278241   7.382   7.150   9.627
25468SOL     OW78242   0.817  13.266  13.617
25468SOL    HW178243   0.909  13.292  13.621
25468SOL    HW278244   0.769  13.341  13.653
25469SOL     OW78245   5.194   2.620   9.976
25469SOL    HW178246   5.219   2.695  10.030
25469SOL    HW278247   5.252   2.624   9.900
25470SOL     OW78248   6.706   0.039   4.211
25470SOL    HW178249   6.625   0.056   4.163
25470SOL    HW278250   6.685  14.846   4.268
25471SOL     OW78251  14.300  14.434   8.569
25471SOL    HW178252  14.280  14.504   8.507
25471SOL    HW278253  14.321  14.478   8.650
25472SOL     OW78254   1.727  10.276   3.295
25472SOL    HW178255   1.737  10.203   3.233
25472SOL    HW278256   1.635  10.274   3.319
25473SOL     OW78257   0.881  10.199  12.900
25473SOL    HW178258   0.935  10.277  12.903
25473SOL    HW278259   0.796  10.230  12.868
25474SOL     OW78260   2.776   3.516   2.931
25474SOL    HW178261   2.828   3.439   2.955
25474SOL    HW278262   2.807   3.585   2.990
25475SOL     OW78263  12.331   5.424  12.616
25475SOL    HW178264  12.394   5.473  12.668
25475SOL    HW278265  12.254   5.481  12.610
25476SOL     OW78266  12.986   0.272   0.147
25476SOL    HW178267  12.995   0.232   0.233
25476SOL    HW278268  13.048   0.345   0.147
25477SOL     OW78269  11.169   0.638   6.049
25477SOL    HW178270  11.230   0.586   5.996
25477SOL    HW278271  11.211   0.644   6.134
25478SOL     OW78272  10.782  12.252   6.474
25478SOL    HW178273  10.760  12.295   6.557
25478SOL    HW278274  10.806  12.163   6.498
25479SOL     OW78275   9.758   3.530  12.820
25479SOL    HW178276   9.664   3.548  12.830
25479SOL    HW278277   9.776   3.461  12.885
25480SOL     OW78278  12.376   8.852  13.148
25480SOL    HW178279  12.402   8.782  13.088
25480SOL    HW278280  12.445   8.918  13.138
25481SOL     OW78281   1.734   5.253   0.637
25481SOL    HW178282   1.695   5.339   0.623
25481SOL    HW278283   1.766   5.226   0.551
25482SOL     OW78284  14.625   9.138   1.623
25482SOL    HW178285  14.639   9.185   1.540
25482SOL    HW278286  14.534   9.158   1.646
25483SOL     OW78287   8.124   5.653   8.330
25483SOL    HW178288   8.119   5.568   8.286
25483SOL    HW278289   8.035   5.666   8.364
25484SOL     OW78290   0.440   8.887   6.639
25484SOL    HW178291   0.354   8.920   6.614
25484SOL    HW278292   0.425   8.843   6.723
25485SOL     OW78293   4.814   3.873   4.352
25485SOL    HW178294   4.889   3.924   4.383
25485SOL    HW278295   4.806   3.895   4.259
25486SOL     OW78296   1.292   5.372   3.548
25486SOL    HW178297   1.211   5.324   3.569
25486SOL    HW278298   1.266   5.438   3.485
25487SOL     OW78299  11.205   3.652   2.112
25487SOL    HW178300  11.197   3.726   2.051
25487SOL    HW278301  11.273   3.597   2.074
25488SOL     OW78302   5.159  14.596  10.013
25488SOL    HW178303   5.166  14.689  10.034
25488SOL    HW278304   5.076  14.589   9.965
25489SOL     OW78305   1.352   8.281   6.025
25489SOL    HW178306   1.289   8.252   6.091
25489SOL    HW278307   1.433   8.235   6.049
25490SOL     OW78308  12.918   0.084   8.427
25490SOL    HW178309  12.936   0.098   8.334
25490SOL    HW278310  12.948   0.164   8.470
25491SOL     OW78311   4.060   7.102   9.748
25491SOL    HW178312   4.149   7.103   9.783
25491SOL    HW278313   4.005   7.124   9.823
25492SOL     OW78314  13.353   1.130   9.178
25492SOL    HW178315  13.356   1.221   9.145
25492SOL    HW278316  13.403   1.133   9.260
25493SOL     OW78317   1.357   9.660   3.045
25493SOL    HW178318   1.392   9.738   3.002
25493SOL    HW278319   1.428   9.596   3.040
25494SOL     OW78320   6.302   7.672   2.940
25494SOL    HW178321   6.268   7.703   2.856
25494SOL    HW278322   6.227   7.635   2.985
25495SOL     OW78323   6.581  11.998  12.283
25495SOL    HW178324   6.489  12.023  12.273
25495SOL    HW278325   6.592  11.923  12.224
25496SOL     OW78326  10.267   8.957   6.154
25496SOL    HW178327  10.183   8.913   6.139
25496SOL    HW278328  10.281   8.952   6.248
25497SOL     OW78329   6.736   2.431   1.373
25497SOL    HW178330   6.779   2.501   1.324
25497SOL    HW278331   6.713   2.472   1.457
25498SOL     OW78332   1.024   7.263   0.431
25498SOL    HW178333   1.085   7.224   0.493
25498SOL    HW278334   1.065   7.251   0.346
25499SOL     OW78335   2.955   8.917  10.184
25499SOL    HW178336   2.991   8.857  10.249
25499SOL    HW278337   2.887   8.867  10.139
25500SOL     OW78338   4.157   5.590  11.723
25500SOL    HW178339   4.091   5.562  11.786
25500SOL    HW278340   4.233   5.613  11.776
25501SOL     OW78341   2.202  10.248  14.354
25501SOL    HW178342   2.211  10.314  14.422
25501SOL    HW278343   2.134  10.189  14.387
25502SOL     OW78344  14.005   5.471  14.341
25502SOL    HW178345  13.994   5.401  14.406
25502SOL    HW278346  13.949   5.541  14.373
25503SOL     OW78347   1.905   6.654  11.961
25503SOL    HW178348   1.998   6.634  11.977
25503SOL    HW278349   1.893   6.742  11.999
25504SOL     OW78350  10.227  14.743   3.680
25504SOL    HW178351  10.311  14.722   3.720
25504SOL    HW278352  10.250  14.793   3.602
25505SOL     OW78353   9.413  10.872   7.594
25505SOL    HW178354   9.456  10.864   7.508
25505SOL    HW278355   9.478  10.838   7.656
25506SOL     OW78356   6.968   0.954   4.884
25506SOL    HW178357   6.896   1.010   4.854
25506SOL    HW278358   6.980   0.890   4.814
25507SOL     OW78359   3.092   6.683   6.452
25507SOL    HW178360   3.062   6.636   6.374
25507SOL    HW278361   3.019   6.678   6.513
25508SOL     OW78362   9.897   3.382   1.198
25508SOL    HW178363   9.974   3.426   1.234
25508SOL    HW278364   9.858   3.447   1.139
25509SOL     OW78365   5.020  13.737   7.591
25509SOL    HW178366   5.053  13.647   7.594
25509SOL    HW278367   5.046  13.775   7.676
25510SOL     OW78368   7.980   8.550  11.964
25510SOL    HW178369   8.075   8.564  11.969
25510SOL    HW278370   7.954   8.590  11.881
25511SOL     OW78371  13.198  10.248  12.598
25511SOL    HW178372  13.245  10.166  12.615
25511SOL    HW278373  13.160  10.236  12.511
25512SOL     OW78374   1.609   2.809   4.962
25512SOL    HW178375   1.624   2.750   4.888
25512SOL    HW278376   1.514   2.822   4.963
25513SOL     OW78377  14.136  14.369  11.974
25513SOL    HW178378  14.117  14.335  12.062
25513SOL    HW278379  14.162  14.292  11.924
25514SOL     OW78380   5.016   7.135   5.100
25514SOL    HW178381   5.089   7.126   5.161
25514SOL    HW278382   4.948   7.180   5.151
25515SOL     OW78383   8.506  12.800   5.103
25515SOL    HW178384   8.432  12.839   5.150
25515SOL    HW278385   8.503  12.842   5.016
25516SOL     OW78386   2.110   8.253  10.842
25516SOL    HW178387   2.069   8.268  10.757
25516SOL    HW278388   2.115   8.158  10.850
25517SOL     OW78389   2.508   2.464  13.489
25517SOL    HW178390   2.548   2.515  13.560
25517SOL    HW278391   2.565   2.388  13.479
25518SOL     OW78392   5.177   7.636   9.125
25518SOL    HW178393   5.265   7.603   9.141
25518SOL    HW278394   5.141   7.577   9.059
25519SOL     OW78395   7.294  13.122  13.000
25519SOL    HW178396   7.368  13.086  12.951
25519SOL    HW278397   7.332  13.195  13.049
25520SOL     OW78398   6.052   6.083   9.575
25520SOL    HW178399   6.037   6.024   9.650
25520SOL    HW278400   6.105   6.030   9.515
25521SOL     OW78401  10.862  13.461   6.412
25521SOL    HW178402  10.889  13.395   6.348
25521SOL    HW278403  10.804  13.414   6.472
25522SOL     OW78404   2.658   4.275  10.634
25522SOL    HW178405   2.739   4.323  10.652
25522SOL    HW278406   2.687   4.193  10.595
25523SOL     OW78407  11.533   6.226   2.543
25523SOL    HW178408  11.609   6.184   2.583
25523SOL    HW278409  11.566   6.310   2.510
25524SOL     OW78410  13.265  14.116   5.320
25524SOL    HW178411  13.334  14.153   5.265
25524SOL    HW278412  13.288  14.143   5.409
25525SOL     OW78413  11.839   7.126   2.142
25525SOL    HW178414  11.830   7.032   2.132
25525SOL    HW278415  11.888   7.155   2.065
25526SOL     OW78416   1.203  10.535   1.444
25526SOL    HW178417   1.128  10.572   1.398
25526SOL    HW278418   1.276  10.543   1.383
25527SOL     OW78419  12.427   7.548   0.125
25527SOL    HW178420  12.392   7.549   0.214
25527SOL    HW278421  12.396   7.465   0.088
25528SOL     OW78422  11.283   3.152  10.081
25528SOL    HW178423  11.357   3.178  10.026
25528SOL    HW278424  11.305   3.187  10.168
25529SOL     OW78425   8.767   7.274   7.968
25529SOL    HW178426   8.862   7.282   7.960
25529SOL    HW278427   8.749   7.181   7.951
25530SOL     OW78428   6.273   6.330   9.482
25530SOL    HW178429   6.290   6.243   9.519
25530SOL    HW278430   6.329   6.389   9.534
25531SOL     OW78431  11.291   0.874  13.920
25531SOL    HW178432  11.291   0.901  14.012
25531SOL    HW278433  11.382   0.882  13.893
25532SOL     OW78434   7.201   2.868   7.604
25532SOL    HW178435   7.234   2.864   7.514
25532SOL    HW278436   7.224   2.784   7.643
25533SOL     OW78437   9.205   0.518   8.373
25533SOL    HW178438   9.130   0.469   8.339
25533SOL    HW278439   9.267   0.521   8.300
25534SOL     OW78440   6.811   8.310   4.991
25534SOL    HW178441   6.779   8.221   4.999
25534SOL    HW278442   6.902   8.301   4.962
25535SOL     OW78443   4.939   2.363  11.464
25535SOL    HW178444   4.882   2.377  11.540
25535SOL    HW278445   4.885   2.388  11.389
25536SOL     OW78446   1.298   7.455   9.382
25536SOL    HW178447   1.336   7.503   9.456
25536SOL    HW278448   1.215   7.499   9.366
25537SOL     OW78449   4.379   5.521   5.511
25537SOL    HW178450   4.435   5.478   5.577
25537SOL    HW278451   4.339   5.594   5.558
25538SOL     OW78452  13.601   9.070   7.852
25538SOL    HW178453  13.684   9.058   7.898
25538SOL    HW278454  13.535   9.075   7.921
25539SOL     OW78455   1.718  10.771   8.963
25539SOL    HW178456   1.781  10.840   8.940
25539SOL    HW278457   1.704  10.723   8.881
25540SOL     OW78458   6.699   9.243   5.456
25540SOL    HW178459   6.629   9.183   5.429
25540SOL    HW278460   6.773   9.218   5.400
25541SOL     OW78461   3.570   8.850  14.050
25541SOL    HW178462   3.514   8.812  14.118
25541SOL    HW278463   3.590   8.938  14.082
25542SOL     OW78464   9.728  13.106  10.472
25542SOL    HW178465   9.655  13.146  10.424
25542SOL    HW278466   9.780  13.180  10.503
25543SOL     OW78467   4.467   3.846   7.315
25543SOL    HW178468   4.477   3.939   7.294
25543SOL    HW278469   4.475   3.843   7.410
25544SOL     OW78470  14.187  14.209   4.438
25544SOL    HW178471  14.168  14.130   4.489
25544SOL    HW278472  14.217  14.176   4.353
25545SOL     OW78473   2.331   8.270  14.827
25545SOL    HW178474   2.338   8.177  14.847
25545SOL    HW278475   2.245   8.279  14.786
25546SOL     OW78476   2.796   6.503   5.317
25546SOL    HW178477   2.871   6.463   5.360
25546SOL    HW278478   2.724   6.442   5.333
25547SOL     OW78479   8.968   5.861   7.002
25547SOL    HW178480   9.028   5.860   6.928
25547SOL    HW278481   8.886   5.896   6.966
25548SOL     OW78482   6.398   7.361   3.879
25548SOL    HW178483   6.401   7.443   3.830
25548SOL    HW278484   6.452   7.376   3.956
25549SOL     OW78485   8.424  10.835   3.458
25549SOL    HW178486   8.421  10.837   3.362
25549SOL    HW278487   8.479  10.759   3.477
25550SOL     OW78488   5.249   3.408  10.681
25550SOL    HW178489   5.342   3.389  10.696
25550SOL    HW278490   5.203   3.330  10.711
25551SOL     OW78491  11.437   3.326   6.469
25551SOL    HW178492  11.524   3.357   6.445
25551SOL    HW278493  11.408   3.387   6.537
25552SOL     OW78494   8.770   6.701   0.309
25552SOL    HW178495   8.697   6.654   0.269
25552SOL    HW278496   8.832   6.632   0.334
25553SOL     OW78497   1.608   2.683   9.648
25553SOL    HW178498   1.584   2.591   9.653
25553SOL    HW278499   1.659   2.700   9.727
25554SOL     OW78500  12.201   9.532   3.736
25554SOL    HW178501  12.181   9.625   3.743
25554SOL    HW278502  12.277   9.527   3.679
25555SOL     OW78503   4.424   5.464   3.032
25555SOL    HW178504   4.439   5.390   3.091
25555SOL    HW278505   4.440   5.428   2.945
25556SOL     OW78506   9.216   9.850  10.764
25556SOL    HW178507   9.186   9.828  10.676
25556SOL    HW278508   9.311   9.839  10.760
25557SOL     OW78509  12.868   8.421  13.786
25557SOL    HW178510  12.850   8.342  13.737
25557SOL    HW278511  12.824   8.409  13.870
25558SOL     OW78512   2.326   9.368  13.437
25558SOL    HW178513   2.276   9.390  13.359
25558SOL    HW278514   2.260   9.361  13.506
25559SOL     OW78515   5.857  13.304   6.776
25559SOL    HW178516   5.857  13.400   6.781
25559SOL    HW278517   5.940  13.281   6.734
25560SOL     OW78518  12.393   7.453   8.083
25560SOL    HW178519  12.370   7.501   8.004
25560SOL    HW278520  12.317   7.466   8.141
25561SOL     OW78521  11.892   4.900   3.387
25561SOL    HW178522  11.882   4.872   3.295
25561SOL    HW278523  11.940   4.982   3.382
25562SOL     OW78524   0.846   0.506   8.594
25562SOL    HW178525   0.776   0.503   8.659
25562SOL    HW278526   0.825   0.582   8.539
25563SOL     OW78527   3.479   1.687  11.657
25563SOL    HW178528   3.390   1.653  11.645
25563SOL    HW278529   3.535   1.614  11.631
25564SOL     OW78530   6.264   3.240  13.230
25564SOL    HW178531   6.315   3.264  13.307
25564SOL    HW278532   6.314   3.170  13.189
25565SOL     OW78533   1.412   9.916   8.733
25565SOL    HW178534   1.472   9.903   8.807
25565SOL    HW278535   1.341   9.854   8.750
25566SOL     OW78536   6.251   1.933  13.649
25566SOL    HW178537   6.336   1.920  13.692
25566SOL    HW278538   6.207   1.999  13.702
25567SOL     OW78539  12.754   6.658   6.208
25567SOL    HW178540  12.751   6.595   6.281
25567SOL    HW278541  12.828   6.715   6.229
25568SOL     OW78542   6.642   3.059   8.291
25568SOL    HW178543   6.708   3.109   8.243
25568SOL    HW278544   6.558   3.093   8.259
25569SOL     OW78545  10.067   4.224   0.185
25569SOL    HW178546  10.081   4.163   0.112
25569SOL    HW278547  10.155   4.253   0.209
25570SOL     OW78548   8.888   9.745   8.611
25570SOL    HW178549   8.887   9.840   8.629
25570SOL    HW278550   8.828   9.733   8.538
25571SOL     OW78551  13.531   2.231  10.627
25571SOL    HW178552  13.460   2.257  10.567
25571SOL    HW278553  13.492   2.239  10.714
25572SOL     OW78554  10.355  12.708   5.123
25572SOL    HW178555  10.289  12.640   5.107
25572SOL    HW278556  10.304  12.789   5.127
25573SOL     OW78557   8.133   5.053   8.820
25573SOL    HW178558   8.056   5.108   8.812
25573SOL    HW278559   8.125   4.990   8.749
25574SOL     OW78560   0.341   5.601  13.185
25574SOL    HW178561   0.256   5.646  13.184
25574SOL    HW278562   0.394   5.647  13.121
25575SOL     OW78563   3.597   8.042  12.905
25575SOL    HW178564   3.577   8.125  12.862
25575SOL    HW278565   3.616   8.067  12.995
25576SOL     OW78566   7.310   6.407   2.820
25576SOL    HW178567   7.258   6.486   2.829
25576SOL    HW278568   7.246   6.336   2.819
25577SOL     OW78569   3.926   1.196  12.208
25577SOL    HW178570   3.981   1.263  12.167
25577SOL    HW278571   3.952   1.198  12.300
25578SOL     OW78572   3.138   3.547   4.594
25578SOL    HW178573   3.204   3.615   4.575
25578SOL    HW278574   3.055   3.595   4.596
25579SOL     OW78575   6.375  12.886  11.953
25579SOL    HW178576   6.280  12.875  11.952
25579SOL    HW278577   6.392  12.940  12.030
25580SOL     OW78578  13.524  12.904  10.018
25580SOL    HW178579  13.439  12.888   9.975
25580SOL    HW278580  13.571  12.960   9.957
25581SOL     OW78581   3.732   0.878   0.750
25581SOL    HW178582   3.673   0.871   0.675
25581SOL    HW278583   3.795   0.808   0.737
25582SOL     OW78584  14.866   3.903  13.385
25582SOL    HW178585   0.074   3.934  13.395
25582SOL    HW278586  14.840   3.877  13.473
25583SOL     OW78587   7.115   9.888   0.907
25583SOL    HW178588   7.072   9.804   0.890
25583SOL    HW278589   7.192   9.865   0.959
25584SOL     OW78590   9.321   5.675  14.220
25584SOL    HW178591   9.250   5.638  14.168
25584SOL    HW278592   9.276   5.724  14.289
25585SOL     OW78593   5.641  12.719  12.281
25585SOL    HW178594   5.624  12.625  12.292
25585SOL    HW278595   5.733  12.725  12.255
25586SOL     OW78596   0.103   5.571  11.177
25586SOL    HW178597   0.041   5.502  11.199
25586SOL    HW278598   0.048   5.650  11.168
25587SOL     OW78599  12.155   7.352   1.626
25587SOL    HW178600  12.082   7.293   1.609
25587SOL    HW278601  12.114   7.435   1.651
25588SOL     OW78602   3.562  12.131  12.083
25588SOL    HW178603   3.474  12.101  12.061
25588SOL    HW278604   3.549  12.215  12.126
25589SOL     OW78605  14.744  14.509   2.237
25589SOL    HW178606  14.753  14.590   2.286
25589SOL    HW278607  14.756  14.440   2.302
25590SOL     OW78608   8.607   9.270   7.642
25590SOL    HW178609   8.580   9.341   7.585
25590SOL    HW278610   8.548   9.274   7.717
25591SOL     OW78611   4.849   2.131   4.974
25591SOL    HW178612   4.813   2.047   5.005
25591SOL    HW278613   4.940   2.112   4.953
25592SOL     OW78614   8.320   3.204   8.696
25592SOL    HW178615   8.259   3.270   8.730
25592SOL    HW278616   8.381   3.188   8.768
25593SOL     OW78617   9.175   4.103   3.511
25593SOL    HW178618   9.250   4.045   3.519
25593SOL    HW278619   9.101   4.052   3.542
25594SOL     OW78620   6.438   5.231   6.277
25594SOL    HW178621   6.377   5.164   6.308
25594SOL    HW278622   6.439   5.296   6.347
25595SOL     OW78623  12.515   2.674   7.425
25595SOL    HW178624  12.577   2.606   7.401
25595SOL    HW278625  12.513   2.733   7.350
25596SOL     OW78626  14.445   1.273  14.524
25596SOL    HW178627  14.459   1.310  14.611
25596SOL    HW278628  14.367   1.318  14.492
25597SOL     OW78629   6.260  13.590   8.005
25597SOL    HW178630   6.267  13.611   8.098
25597SOL    HW278631   6.181  13.635   7.976
25598SOL     OW78632   0.041   0.837   9.592
25598SOL    HW178633   0.056   0.770   9.659
25598SOL    HW278634   0.128   0.854   9.557
25599SOL     OW78635   8.282   8.784  14.069
25599SOL    HW178636   8.376   8.795  14.052
25599SOL    HW278637   8.275   8.700  14.114
25600SOL     OW78638   5.505  14.370   7.325
25600SOL    HW178639   5.454  14.392   7.403
25600SOL    HW278640   5.445  14.319   7.271
25601SOL     OW78641  12.219  14.730  10.607
25601SOL    HW178642  12.219  14.634  10.613
25601SOL    HW278643  12.126  14.754  10.606
25602SOL     OW78644   6.176   6.934  11.323
25602SOL    HW178645   6.143   6.935  11.233
25602SOL    HW278646   6.108   6.889  11.373
25603SOL     OW78647  12.856   3.370  11.138
25603SOL    HW178648  12.941   3.356  11.095
25603SOL    HW278649  12.826   3.454  11.103
25604SOL     OW78650  12.580   4.411   5.961
25604SOL    HW178651  12.606   4.331   6.005
25604SOL    HW278652  12.551   4.469   6.032
25605SOL     OW78653   4.828  12.558   4.814
25605SOL    HW178654   4.790  12.547   4.727
25605SOL    HW278655   4.895  12.626   4.803
25606SOL     OW78656   1.444   9.450  10.771
25606SOL    HW178657   1.393   9.401  10.835
25606SOL    HW278658   1.489   9.517  10.822
25607SOL     OW78659  12.272   0.643   2.204
25607SOL    HW178660  12.318   0.579   2.150
25607SOL    HW278661  12.250   0.714   2.143
25608SOL     OW78662  11.316   3.719   0.805
25608SOL    HW178663  11.306   3.630   0.772
25608SOL    HW278664  11.236   3.764   0.779
25609SOL     OW78665  14.064   2.523   1.986
25609SOL    HW178666  14.135   2.460   1.977
25609SOL    HW278667  14.089   2.596   1.929
25610SOL     OW78668   5.975   1.466   5.716
25610SOL    HW178669   6.059   1.426   5.694
25610SOL    HW278670   5.935   1.486   5.631
25611SOL     OW78671   4.687   2.616   6.315
25611SOL    HW178672   4.760   2.569   6.354
25611SOL    HW278673   4.632   2.548   6.277
25612SOL     OW78674   7.461   7.288  13.331
25612SOL    HW178675   7.484   7.292  13.424
25612SOL    HW278676   7.541   7.316  13.285
25613SOL     OW78677   0.136   4.074   4.605
25613SOL    HW178678   0.094   4.110   4.526
25613SOL    HW278679   0.228   4.097   4.595
25614SOL     OW78680  11.040   2.902  10.717
25614SOL    HW178681  11.124   2.906  10.672
25614SOL    HW278682  11.023   2.808  10.727
25615SOL     OW78683   8.519   9.485  10.257
25615SOL    HW178684   8.570   9.561  10.227
25615SOL    HW278685   8.545   9.414  10.198
25616SOL     OW78686   1.537   6.414   6.463
25616SOL    HW178687   1.567   6.366   6.386
25616SOL    HW278688   1.573   6.502   6.452
25617SOL     OW78689   9.830   9.587   2.311
25617SOL    HW178690   9.833   9.538   2.229
25617SOL    HW278691   9.746   9.633   2.308
25618SOL     OW78692  13.346  13.655  13.834
25618SOL    HW178693  13.277  13.684  13.893
25618SOL    HW278694  13.388  13.735  13.803
25619SOL     OW78695   5.303   9.261   0.754
25619SOL    HW178696   5.299   9.198   0.826
25619SOL    HW278697   5.326   9.344   0.796
25620SOL     OW78698   8.500   8.403   2.674
25620SOL    HW178699   8.406   8.419   2.673
25620SOL    HW278700   8.525   8.412   2.767
25621SOL     OW78701  14.490  11.761  11.995
25621SOL    HW178702  14.558  11.696  12.014
25621SOL    HW278703  14.482  11.761  11.900
25622SOL     OW78704   2.836   2.179   6.379
25622SOL    HW178705   2.757   2.226   6.353
25622SOL    HW278706   2.901   2.200   6.312
25623SOL     OW78707   0.472  10.925   5.004
25623SOL    HW178708   0.395  10.958   5.051
25623SOL    HW278709   0.533  10.900   5.073
25624SOL     OW78710   1.282   2.234   5.321
25624SOL    HW178711   1.215   2.273   5.264
25624SOL    HW278712   1.258   2.142   5.325
25625SOL     OW78713  13.019  11.508   4.723
25625SOL    HW178714  12.975  11.426   4.743
25625SOL    HW278715  13.086  11.517   4.790
25626SOL     OW78716   8.253   8.883   3.218
25626SOL    HW178717   8.158   8.884   3.235
25626SOL    HW278718   8.268   8.959   3.162
25627SOL     OW78719   0.373  10.599   1.071
25627SOL    HW178720   0.437  10.659   1.033
25627SOL    HW278721   0.299  10.655   1.094
25628SOL     OW78722  11.567   2.595   2.725
25628SOL    HW178723  11.480   2.614   2.760
25628SOL    HW278724  11.578   2.501   2.737
25629SOL     OW78725   3.039   4.728   8.520
25629SOL    HW178726   2.946   4.704   8.520
25629SOL    HW278727   3.070   4.703   8.433
25630SOL     OW78728   6.061   7.034  14.095
25630SOL    HW178729   6.067   6.940  14.077
25630SOL    HW278730   6.074   7.075  14.009
25631SOL     OW78731   1.403  10.136   4.542
25631SOL    HW178732   1.439  10.142   4.454
25631SOL    HW278733   1.473  10.094   4.593
25632SOL     OW78734   4.936  11.454  11.624
25632SOL    HW178735   4.961  11.455  11.531
25632SOL    HW278736   4.895  11.369  11.637
25633SOL     OW78737   0.456   7.561   4.380
25633SOL    HW178738   0.423   7.485   4.332
25633SOL    HW278739   0.534   7.588   4.332
25634SOL     OW78740  12.025  14.680   9.683
25634SOL    HW178741  12.109  14.635   9.670
25634SOL    HW278742  11.991  14.644   9.765
25635SOL     OW78743   5.495  12.613   2.856
25635SOL    HW178744   5.534  12.699   2.845
25635SOL    HW278745   5.544  12.573   2.928
25636SOL     OW78746   8.843  12.325  12.698
25636SOL    HW178747   8.756  12.300  12.668
25636SOL    HW278748   8.831  12.347  12.790
25637SOL     OW78749   4.295   6.142   6.831
25637SOL    HW178750   4.258   6.154   6.918
25637SOL    HW278751   4.221   6.152   6.772
25638SOL     OW78752   5.682   2.698  13.896
25638SOL    HW178753   5.635   2.684  13.979
25638SOL    HW278754   5.774   2.708  13.922
25639SOL     OW78755   2.454   6.764  11.396
25639SOL    HW178756   2.507   6.698  11.441
25639SOL    HW278757   2.365   6.728  11.396
25640SOL     OW78758   5.786  11.057   9.142
25640SOL    HW178759   5.819  11.145   9.157
25640SOL    HW278760   5.823  11.005   9.213
25641SOL     OW78761   3.513   7.712   5.948
25641SOL    HW178762   3.487   7.738   5.860
25641SOL    HW278763   3.463   7.770   6.006
25642SOL     OW78764  10.231   0.872   5.878
25642SOL    HW178765  10.149   0.898   5.919
25642SOL    HW278766  10.216   0.880   5.784
25643SOL     OW78767   9.607  13.563  13.975
25643SOL    HW178768   9.672  13.633  13.980
25643SOL    HW278769   9.526  13.606  13.949
25644SOL     OW78770   8.727   7.972   5.987
25644SOL    HW178771   8.734   7.987   6.082
25644SOL    HW278772   8.725   8.060   5.950
25645SOL     OW78773   4.211  14.079   4.317
25645SOL    HW178774   4.179  14.132   4.243
25645SOL    HW278775   4.303  14.063   4.296
25646SOL     OW78776   6.033  10.331   1.773
25646SOL    HW178777   6.098  10.307   1.707
25646SOL    HW278778   6.061  10.285   1.852
25647SOL     OW78779  12.202   7.931   2.715
25647SOL    HW178780  12.285   7.891   2.741
25647SOL    HW278781  12.216   7.961   2.626
25648SOL     OW78782   2.998   3.743   5.257
25648SOL    HW178783   2.999   3.677   5.326
25648SOL    HW278784   2.909   3.739   5.221
25649SOL     OW78785   7.845   5.986   9.839
25649SOL    HW178786   7.788   5.910   9.831
25649SOL    HW278787   7.835   6.015   9.930
25650SOL     OW78788   6.198  11.102   6.200
25650SOL    HW178789   6.283  11.110   6.244
25650SOL    HW278790   6.200  11.014   6.161
25651SOL     OW78791  12.571  10.799   6.825
25651SOL    HW178792  12.581  10.872   6.763
25651SOL    HW278793  12.588  10.839   6.910
25652SOL     OW78794   1.559   7.439   7.326
25652SOL    HW178795   1.489   7.502   7.338
25652SOL    HW278796   1.518   7.354   7.342
25653SOL     OW78797  11.879   5.242   2.328
25653SOL    HW178798  11.844   5.291   2.402
25653SOL    HW278799  11.928   5.306   2.277
25654SOL     OW78800   8.150   2.116   5.726
25654SOL    HW178801   8.145   2.021   5.736
25654SOL    HW278802   8.066   2.141   5.688
25655SOL     OW78803   8.445   5.564   1.650
25655SOL    HW178804   8.382   5.634   1.661
25655SOL    HW278805   8.529   5.604   1.671
25656SOL     OW78806   9.045   0.638   7.541
25656SOL    HW178807   8.974   0.684   7.585
25656SOL    HW278808   9.042   0.670   7.450
25657SOL     OW78809   1.855   1.734   3.452
25657SOL    HW178810   1.798   1.662   3.479
25657SOL    HW278811   1.837   1.804   3.515
25658SOL     OW78812  11.633   1.013   8.863
25658SOL    HW178813  11.557   1.044   8.912
25658SOL    HW278814  11.639   0.920   8.886
25659SOL     OW78815   8.504   1.535   1.142
25659SOL    HW178816   8.493   1.455   1.193
25659SOL    HW278817   8.492   1.508   1.051
25660SOL     OW78818   2.632  10.467  14.061
25660SOL    HW178819   2.704  10.409  14.034
25660SOL    HW278820   2.592  10.422  14.135
25661SOL     OW78821  12.303   1.609   6.659
25661SOL    HW178822  12.346   1.546   6.602
25661SOL    HW278823  12.321   1.694   6.618
25662SOL     OW78824   0.776   4.747   6.490
25662SOL    HW178825   0.691   4.758   6.448
25662SOL    HW278826   0.788   4.652   6.496
25663SOL     OW78827   2.358   4.997   9.613
25663SOL    HW178828   2.296   5.013   9.541
25663SOL    HW278829   2.320   4.924   9.661
25664SOL     OW78830   0.904  14.593  12.993
25664SOL    HW178831   0.922  14.519  13.051
25664SOL    HW278832   0.952  14.666  13.031
25665SOL     OW78833  12.984   6.218   1.790
25665SOL    HW178834  12.932   6.182   1.861
25665SOL    HW278835  13.045   6.278   1.834
25666SOL     OW78836   2.983   3.577  14.134
25666SOL    HW178837   2.953   3.531  14.213
25666SOL    HW278838   2.983   3.669  14.159
25667SOL     OW78839   3.741  10.091   9.863
25667SOL    HW178840   3.823  10.127   9.896
25667SOL    HW278841   3.676  10.160   9.878
25668SOL     OW78842   1.294   2.563   5.402
25668SOL    HW178843   1.333   2.491   5.452
25668SOL    HW278844   1.224   2.596   5.457
25669SOL     OW78845  13.032   7.969   9.639
25669SOL    HW178846  13.038   8.003   9.728
25669SOL    HW278847  13.015   7.875   9.651
25670SOL     OW78848   2.194   4.774   6.132
25670SOL    HW178849   2.174   4.713   6.203
25670SOL    HW278850   2.284   4.801   6.147
25671SOL     OW78851   9.152  13.623   8.299
25671SOL    HW178852   9.096  13.685   8.347
25671SOL    HW278853   9.103  13.541   8.300
25672SOL     OW78854   8.778  14.263   7.174
25672SOL    HW178855   8.787  14.199   7.103
25672SOL    HW278856   8.868  14.276   7.206
25673SOL     OW78857  12.392   1.425   4.534
25673SOL    HW178858  12.422   1.490   4.471
25673SOL    HW278859  12.470   1.374   4.556
25674SOL     OW78860   1.748   4.752   8.306
25674SOL    HW178861   1.796   4.733   8.225
25674SOL    HW278862   1.780   4.688   8.369
25675SOL     OW78863  14.732   3.626  11.007
25675SOL    HW178864  14.639   3.606  10.997
25675SOL    HW278865  14.775   3.568  10.944
25676SOL     OW78866  11.384   3.980   0.936
25676SOL    HW178867  11.357   3.902   0.888
25676SOL    HW278868  11.302   4.019   0.966
25677SOL     OW78869  14.607   5.696  14.247
25677SOL    HW178870  14.523   5.653  14.229
25677SOL    HW278871  14.626   5.672  14.337
25678SOL     OW78872   8.013  10.910   6.167
25678SOL    HW178873   7.935  10.936   6.118
25678SOL    HW278874   8.075  10.881   6.100
25679SOL     OW78875  10.234   6.358   9.074
25679SOL    HW178876  10.268   6.359   9.163
25679SOL    HW278877  10.140   6.339   9.084
25680SOL     OW78878  12.268  10.329   7.164
25680SOL    HW178879  12.202  10.315   7.097
25680SOL    HW278880  12.351  10.331   7.116
25681SOL     OW78881   2.246  11.986   0.799
25681SOL    HW178882   2.328  12.012   0.841
25681SOL    HW278883   2.182  12.050   0.829
25682SOL     OW78884  11.489   7.745   7.615
25682SOL    HW178885  11.500   7.728   7.522
25682SOL    HW278886  11.506   7.839   7.624
25683SOL     OW78887   6.266  13.932  13.126
25683SOL    HW178888   6.342  13.912  13.179
25683SOL    HW278889   6.203  13.862  13.145
25684SOL     OW78890  10.936   5.761   4.671
25684SOL    HW178891  10.965   5.721   4.589
25684SOL    HW278892  10.890   5.692   4.717
25685SOL     OW78893  11.997  10.410  14.561
25685SOL    HW178894  12.081  10.367  14.543
25685SOL    HW278895  11.999  10.488  14.507
25686SOL     OW78896   1.830   0.015   4.318
25686SOL    HW178897   1.917   0.024   4.281
25686SOL    HW278898   1.840  14.830   4.387
25687SOL     OW78899  13.731  10.712  14.534
25687SOL    HW178900  13.751  10.769  14.609
25687SOL    HW278901  13.643  10.679  14.552
25688SOL     OW78902  13.757   3.488   3.913
25688SOL    HW178903  13.840   3.445   3.893
25688SOL    HW278904  13.737   3.539   3.834
25689SOL     OW78905  12.682   9.332  11.288
25689SOL    HW178906  12.770   9.308  11.261
25689SOL    HW278907  12.694   9.397  11.357
25690SOL     OW78908  12.769   9.299   0.924
25690SOL    HW178909  12.801   9.388   0.909
25690SOL    HW278910  12.789   9.281   1.016
25691SOL     OW78911  13.171  14.095   6.411
25691SOL    HW178912  13.160  14.057   6.498
25691SOL    HW278913  13.150  14.188   6.423
25692SOL     OW78914   8.482   9.261  11.279
25692SOL    HW178915   8.565   9.214  11.288
25692SOL    HW278916   8.508   9.351  11.259
25693SOL     OW78917   3.644  10.006   7.139
25693SOL    HW178918   3.588   9.938   7.178
25693SOL    HW278919   3.646  10.076   7.205
25694SOL     OW78920   7.820  13.282  10.228
25694SOL    HW178921   7.815  13.376  10.214
25694SOL    HW278922   7.829  13.244  10.141
25695SOL     OW78923  11.146   4.966  11.137
25695SOL    HW178924  11.110   4.926  11.215
25695SOL    HW278925  11.122   5.058  11.144
25696SOL     OW78926   9.350  11.875   2.798
25696SOL    HW178927   9.308  11.905   2.878
25696SOL    HW278928   9.278  11.856   2.738
25697SOL     OW78929   4.415   3.880   0.170
25697SOL    HW178930   4.472   3.880   0.246
25697SOL    HW278931   4.459   3.937   0.107
25698SOL     OW78932  10.050   1.884   1.240
25698SOL    HW178933   9.984   1.829   1.197
25698SOL    HW278934  10.123   1.825   1.258
25699SOL     OW78935   2.451  14.309   1.121
25699SOL    HW178936   2.487  14.388   1.161
25699SOL    HW278937   2.502  14.237   1.158
25700SOL     OW78938   1.481   3.614   1.285
25700SOL    HW178939   1.450   3.699   1.252
25700SOL    HW278940   1.452   3.551   1.219
25701SOL     OW78941   1.050   5.830   5.462
25701SOL    HW178942   1.126   5.785   5.499
25701SOL    HW278943   1.064   5.825   5.367
25702SOL     OW78944  10.080   5.637  14.845
25702SOL    HW178945  10.091   5.727  14.874
25702SOL    HW278946  10.145   5.627  14.774
25703SOL     OW78947  13.485  10.842   5.591
25703SOL    HW178948  13.551  10.911   5.600
25703SOL    HW278949  13.529  10.764   5.623
25704SOL     OW78950  10.261  10.850  12.385
25704SOL    HW178951  10.255  10.942  12.360
25704SOL    HW278952  10.194  10.840  12.453
25705SOL     OW78953   7.059   1.867  14.858
25705SOL    HW178954   7.105   1.806  14.800
25705SOL    HW278955   6.967   1.845  14.848
25706SOL     OW78956  11.288  13.860  14.594
25706SOL    HW178957  11.250  13.920  14.530
25706SOL    HW278958  11.378  13.847  14.564
25707SOL     OW78959  11.266   5.283  10.482
25707SOL    HW178960  11.304   5.369  10.466
25707SOL    HW278961  11.341   5.223  10.478
25708SOL     OW78962  14.336  11.511  13.196
25708SOL    HW178963  14.338  11.416  13.198
25708SOL    HW278964  14.393  11.538  13.268
25709SOL     OW78965   2.171   2.530  12.687
25709SOL    HW178966   2.162   2.571  12.773
25709SOL    HW278967   2.143   2.597  12.625
25710SOL     OW78968  13.856  12.927   4.380
25710SOL    HW178969  13.824  12.871   4.451
25710SOL    HW278970  13.785  12.989   4.364
25711SOL     OW78971   2.812  12.384   4.956
25711SOL    HW178972   2.777  12.453   4.899
25711SOL    HW278973   2.739  12.324   4.969
25712SOL     OW78974   0.240   3.657  14.306
25712SOL    HW178975   0.327   3.636  14.339
25712SOL    HW278976   0.234   3.610  14.223
25713SOL     OW78977   1.557   3.206  14.288
25713SOL    HW178978   1.652   3.219  14.284
25713SOL    HW278979   1.546   3.122  14.334
25714SOL     OW78980   9.633  10.432   4.066
25714SOL    HW178981   9.637  10.349   4.113
25714SOL    HW278982   9.624  10.498   4.134
25715SOL     OW78983  11.935  14.773   7.113
25715SOL    HW178984  11.875  14.700   7.130
25715SOL    HW278985  11.969  14.756   7.025
25716SOL     OW78986   8.303  12.670   7.008
25716SOL    HW178987   8.290  12.753   6.961
25716SOL    HW278988   8.386  12.637   6.975
25717SOL     OW78989  12.153   5.838   1.272
25717SOL    HW178990  12.097   5.782   1.327
25717SOL    HW278991  12.219   5.777   1.236
25718SOL     OW78992   5.037  11.699  14.072
25718SOL    HW178993   4.963  11.656  14.115
25718SOL    HW278994   5.007  11.718  13.984
25719SOL     OW78995   1.383  12.597   1.975
25719SOL    HW178996   1.368  12.536   1.903
25719SOL    HW278997   1.403  12.681   1.932
25720SOL     OW78998   3.907   2.997   0.444
25720SOL    HW178999   3.938   3.031   0.359
25720SOL    HW279000   3.894   3.076   0.497
25721SOL     OW79001  11.329   7.565  13.061
25721SOL    HW179002  11.278   7.587  13.139
25721SOL    HW279003  11.421   7.571  13.089
25722SOL     OW79004   9.274   8.900   1.598
25722SOL    HW179005   9.214   8.831   1.569
25722SOL    HW279006   9.255   8.974   1.540
25723SOL     OW79007   7.276   6.293   0.722
25723SOL    HW179008   7.273   6.201   0.749
25723SOL    HW279009   7.369   6.311   0.710
25724SOL     OW79010   0.074   0.116  10.851
25724SOL    HW179011   0.124   0.197  10.847
25724SOL    HW279012   0.076   0.091  10.944
25725SOL     OW79013  11.890   4.821   3.126
25725SOL    HW179014  11.810   4.787   3.086
25725SOL    HW279015  11.960   4.764   3.093
25726SOL     OW79016   5.178   2.701   2.288
25726SOL    HW179017   5.201   2.610   2.273
25726SOL    HW279018   5.248   2.736   2.343
25727SOL     OW79019   9.720  11.661   5.691
25727SOL    HW179020   9.640  11.635   5.737
25727SOL    HW279021   9.791  11.631   5.748
25728SOL     OW79022   1.557   4.709   7.377
25728SOL    HW179023   1.494   4.717   7.449
25728SOL    HW279024   1.618   4.782   7.392
25729SOL     OW79025   0.832   6.215  12.396
25729SOL    HW179026   0.883   6.199  12.316
25729SOL    HW279027   0.875   6.162  12.463
25730SOL     OW79028   0.947   5.599   8.873
25730SOL    HW179029   0.894   5.665   8.918
25730SOL    HW279030   1.028   5.596   8.923
25731SOL     OW79031   6.816  10.524  14.377
25731SOL    HW179032   6.849  10.434  14.375
25731SOL    HW279033   6.794  10.543  14.285
25732SOL     OW79034  12.945  12.013   3.643
25732SOL    HW179035  12.889  11.992   3.568
25732SOL    HW279036  12.900  12.085   3.687
25733SOL     OW79037   8.585   1.923  13.896
25733SOL    HW179038   8.641   1.972  13.957
25733SOL    HW279039   8.546   1.990  13.841
25734SOL     OW79040   8.251   0.111   9.456
25734SOL    HW179041   8.301   0.182   9.497
25734SOL    HW279042   8.251   0.133   9.363
25735SOL     OW79043   7.471   1.522  14.265
25735SOL    HW179044   7.498   1.523  14.357
25735SOL    HW279045   7.438   1.433  14.251
25736SOL     OW79046   3.439   7.688   5.205
25736SOL    HW179047   3.383   7.629   5.154
25736SOL    HW279048   3.528   7.656   5.190
25737SOL     OW79049   5.416  11.666   0.560
25737SOL    HW179050   5.353  11.730   0.525
25737SOL    HW279051   5.430  11.604   0.489
25738SOL     OW79052   6.324   3.082   8.593
25738SOL    HW179053   6.394   3.133   8.552
25738SOL    HW279054   6.359   3.058   8.679
25739SOL     OW79055   1.265   0.637   8.174
25739SOL    HW179056   1.264   0.606   8.265
25739SOL    HW279057   1.173   0.633   8.147
25740SOL     OW79058   6.975   5.912   7.091
25740SOL    HW179059   7.003   5.841   7.149
25740SOL    HW279060   6.974   5.873   7.004
25741SOL     OW79061  14.129  13.639   0.984
25741SOL    HW179062  14.215  13.650   0.943
25741SOL    HW279063  14.080  13.585   0.923
25742SOL     OW79064  13.737   9.509   1.314
25742SOL    HW179065  13.735   9.521   1.219
25742SOL    HW279066  13.673   9.440   1.331
25743SOL     OW79067   9.124   0.884   9.231
25743SOL    HW179068   9.164   0.807   9.189
25743SOL    HW279069   9.197   0.944   9.243
25744SOL     OW79070   1.461  11.366  11.030
25744SOL    HW179071   1.431  11.358  11.121
25744SOL    HW279072   1.419  11.445  10.997
25745SOL     OW79073   3.900   4.404   3.878
25745SOL    HW179074   3.968   4.399   3.945
25745SOL    HW279075   3.817   4.405   3.927
25746SOL     OW79076   3.105  12.754   9.981
25746SOL    HW179077   3.128  12.847   9.980
25746SOL    HW279078   3.099  12.730   9.889
25747SOL     OW79079  13.189   3.263   1.110
25747SOL    HW179080  13.251   3.334   1.095
25747SOL    HW279081  13.221   3.218   1.188
25748SOL     OW79082   6.754  14.591  12.497
25748SOL    HW179083   6.843  14.568  12.525
25748SOL    HW279084   6.747  14.685  12.513
25749SOL     OW79085  12.836  11.407  14.234
25749SOL    HW179086  12.929  11.394  14.219
25749SOL    HW279087  12.831  11.485  14.289
25750SOL     OW79088   7.617  12.576  11.940
25750SOL    HW179089   7.663  12.647  11.896
25750SOL    HW279090   7.675  12.500  11.929
25751SOL     OW79091   9.575   5.310  14.514
25751SOL    HW179092   9.649   5.278  14.566
25751SOL    HW279093   9.614   5.343  14.433
25752SOL     OW79094  11.831  14.158  14.075
25752SOL    HW179095  11.805  14.078  14.120
25752SOL    HW279096  11.919  14.140  14.042
25753SOL     OW79097   0.498  10.150   3.490
25753SOL    HW179098   0.536  10.062   3.491
25753SOL    HW279099   0.571  10.208   3.514
25754SOL     OW79100   6.617  12.908  14.460
25754SOL    HW179101   6.682  12.841  14.485
25754SOL    HW279102   6.665  12.965  14.400
25755SOL     OW79103   0.725   6.199  13.228
25755SOL    HW179104   0.758   6.285  13.201
25755SOL    HW279105   0.794   6.138  13.203
25756SOL     OW79106  14.700  12.775   3.087
25756SOL    HW179107  14.658  12.704   3.135
25756SOL    HW279108  14.794  12.762   3.104
25757SOL     OW79109   1.642   0.432  12.398
25757SOL    HW179110   1.660   0.509  12.344
25757SOL    HW279111   1.648   0.463  12.488
25758SOL     OW79112   7.943   6.712   7.298
25758SOL    HW179113   8.015   6.720   7.361
25758SOL    HW279114   7.880   6.653   7.339
25759SOL     OW79115   6.331   4.800   1.549
25759SOL    HW179116   6.282   4.832   1.473
25759SOL    HW279117   6.280   4.831   1.624
25760SOL     OW79118   6.449   9.298   1.533
25760SOL    HW179119   6.420   9.285   1.443
25760SOL    HW279120   6.537   9.333   1.525
25761SOL     OW79121  13.188   5.438  11.445
25761SOL    HW179122  13.182   5.513  11.386
25761SOL    HW279123  13.223   5.475  11.526
25762SOL     OW79124  11.866   0.514   8.945
25762SOL    HW179125  11.869   0.522   9.040
25762SOL    HW279126  11.919   0.588   8.913
25763SOL     OW79127   6.138   0.924   9.721
25763SOL    HW179128   6.116   0.975   9.799
25763SOL    HW279129   6.212   0.970   9.682
25764SOL     OW79130  10.061  13.839   7.393
25764SOL    HW179131  10.115  13.761   7.381
25764SOL    HW279132  10.095  13.879   7.473
25765SOL     OW79133   4.879  11.311   6.298
25765SOL    HW179134   4.890  11.387   6.355
25765SOL    HW279135   4.788  11.285   6.309
25766SOL     OW79136   4.297   0.301   5.074
25766SOL    HW179137   4.357   0.374   5.061
25766SOL    HW279138   4.211   0.342   5.085
25767SOL     OW79139  10.839   3.947   9.911
25767SOL    HW179140  10.782   3.978   9.840
25767SOL    HW279141  10.922   3.927   9.867
25768SOL     OW79142  10.632   4.764   9.395
25768SOL    HW179143  10.664   4.854   9.397
25768SOL    HW279144  10.641   4.736   9.304
25769SOL     OW79145   4.388  14.059  14.091
25769SOL    HW179146   4.421  14.074  14.002
25769SOL    HW279147   4.305  14.014  14.078
25770SOL     OW79148  11.768   2.921   9.639
25770SOL    HW179149  11.768   2.826   9.628
25770SOL    HW279150  11.696   2.951   9.584
25771SOL     OW79151   4.218  12.381  10.298
25771SOL    HW179152   4.161  12.400  10.224
25771SOL    HW279153   4.170  12.316  10.350
25772SOL     OW79154  14.276  13.381   6.745
25772SOL    HW179155  14.200  13.324   6.755
25772SOL    HW279156  14.308  13.363   6.656
25773SOL     OW79157   7.424   2.800   4.121
25773SOL    HW179158   7.404   2.841   4.205
25773SOL    HW279159   7.474   2.866   4.074
25774SOL     OW79160   1.189   9.612   4.976
25774SOL    HW179161   1.251   9.671   4.933
25774SOL    HW279162   1.140   9.572   4.905
25775SOL     OW79163   3.011  11.906  12.047
25775SOL    HW179164   3.069  11.902  11.970
25775SOL    HW279165   2.925  11.925  12.011
25776SOL     OW79166  11.839   7.208   0.347
25776SOL    HW179167  11.791   7.273   0.398
25776SOL    HW279168  11.846   7.132   0.405
25777SOL     OW79169  11.411   6.844   8.353
25777SOL    HW179170  11.374   6.897   8.424
25777SOL    HW279171  11.347   6.851   8.282
25778SOL     OW79172  13.914  11.382  11.626
25778SOL    HW179173  13.911  11.365  11.531
25778SOL    HW279174  13.913  11.478  11.633
25779SOL     OW79175   3.133  10.811   0.017
25779SOL    HW179176   3.051  10.776  14.866
25779SOL    HW279177   3.111  10.848   0.102
25780SOL     OW79178  12.574  12.533   0.083
25780SOL    HW179179  12.605  12.494   0.165
25780SOL    HW279180  12.625  12.613   0.074
25781SOL     OW79181   4.377   0.329   9.722
25781SOL    HW179182   4.438   0.281   9.665
25781SOL    HW279183   4.309   0.265   9.743
25782SOL     OW79184  13.551   7.984   4.589
25782SOL    HW179185  13.600   8.029   4.658
25782SOL    HW279186  13.482   7.937   4.636
25783SOL     OW79187   0.313  14.249  14.202
25783SOL    HW179188   0.269  14.244  14.117
25783SOL    HW279189   0.404  14.226  14.184
25784SOL     OW79190  12.453  10.293  10.703
25784SOL    HW179191  12.511  10.235  10.654
25784SOL    HW279192  12.482  10.382  10.681
25785SOL     OW79193  13.469   0.935   3.121
25785SOL    HW179194  13.463   0.932   3.216
25785SOL    HW279195  13.416   0.860   3.091
25786SOL     OW79196   7.564   8.155   3.817
25786SOL    HW179197   7.595   8.196   3.737
25786SOL    HW279198   7.470   8.143   3.803
25787SOL     OW79199  14.862  11.040   9.042
25787SOL    HW179200   0.046  11.102   9.013
25787SOL    HW279201  14.791  11.095   9.077
25788SOL     OW79202  10.382   0.128  10.668
25788SOL    HW179203  10.339   0.190  10.609
25788SOL    HW279204  10.466   0.110  10.627
25789SOL     OW79205   6.319   9.428  12.552
25789SOL    HW179206   6.362   9.410  12.636
25789SOL    HW279207   6.227   9.437  12.574
25790SOL     OW79208   4.491   7.303   2.870
25790SOL    HW179209   4.501   7.215   2.906
25790SOL    HW279210   4.536   7.360   2.932
25791SOL     OW79211   1.068   2.441  14.608
25791SOL    HW179212   0.974   2.453  14.620
25791SOL    HW279213   1.077   2.350  14.580
25792SOL     OW79214   9.767   8.402  10.800
25792SOL    HW179215   9.785   8.408  10.893
25792SOL    HW279216   9.674   8.424  10.792
25793SOL     OW79217   4.740   3.730   8.155
25793SOL    HW179218   4.701   3.802   8.205
25793SOL    HW279219   4.797   3.773   8.091
25794SOL     OW79220  13.938   0.503  11.221
25794SOL    HW179221  14.005   0.518  11.155
25794SOL    HW279222  13.919   0.590  11.257
25795SOL     OW79223   4.365   1.638   4.807
25795SOL    HW179224   4.303   1.610   4.739
25795SOL    HW279225   4.312   1.644   4.886
25796SOL     OW79226   0.808   4.856   6.767
25796SOL    HW179227   0.807   4.856   6.671
25796SOL    HW279228   0.775   4.769   6.792
25797SOL     OW79229  11.280  11.964  12.155
25797SOL    HW179230  11.193  11.947  12.118
25797SOL    HW279231  11.272  12.050  12.196
25798SOL     OW79232  13.992   8.123   2.212
25798SOL    HW179233  14.000   8.115   2.117
25798SOL    HW279234  13.964   8.036   2.241
25799SOL     OW79235   9.218   1.817  12.151
25799SOL    HW179236   9.213   1.739  12.095
25799SOL    HW279237   9.253   1.885  12.094
25800SOL     OW79238   0.427  10.377   8.668
25800SOL    HW179239   0.456  10.317   8.737
25800SOL    HW279240   0.381  10.447   8.714
25801SOL     OW79241   6.618   5.656   9.872
25801SOL    HW179242   6.709   5.649   9.844
25801SOL    HW279243   6.610   5.744   9.908
25802SOL     OW79244   4.759  13.208   4.169
25802SOL    HW179245   4.700  13.282   4.154
25802SOL    HW279246   4.770  13.167   4.083
25803SOL     OW79247   7.876   3.539  11.170
25803SOL    HW179248   7.947   3.602  11.184
25803SOL    HW279249   7.873   3.488  11.251
25804SOL     OW79250   3.776  13.540  13.396
25804SOL    HW179251   3.808  13.623  13.360
25804SOL    HW279252   3.686  13.533  13.364
25805SOL     OW79253   8.597   2.517   7.766
25805SOL    HW179254   8.668   2.464   7.802
25805SOL    HW279255   8.552   2.552   7.843
25806SOL     OW79256   2.209  10.666  10.444
25806SOL    HW179257   2.154  10.631  10.514
25806SOL    HW279258   2.198  10.761  10.451
25807SOL     OW79259   0.886   5.052   5.877
25807SOL    HW179260   0.826   5.015   5.813
25807SOL    HW279261   0.923   5.129   5.834
25808SOL     OW79262   0.456   8.823   2.740
25808SOL    HW179263   0.507   8.793   2.815
25808SOL    HW279264   0.467   8.918   2.740
25809SOL     OW79265   5.549  12.770   7.853
25809SOL    HW179266   5.596  12.736   7.929
25809SOL    HW279267   5.592  12.731   7.777
25810SOL     OW79268   0.506   7.160   0.421
25810SOL    HW179269   0.436   7.144   0.357
25810SOL    HW279270   0.583   7.118   0.383
25811SOL     OW79271   1.736   2.745  14.597
25811SOL    HW179272   1.712   2.655  14.577
25811SOL    HW279273   1.710   2.758  14.688
25812SOL     OW79274   2.786   9.097   7.533
25812SOL    HW179275   2.709   9.073   7.482
25812SOL    HW279276   2.755   9.096   7.624
25813SOL     OW79277  14.649   8.664  14.480
25813SOL    HW179278  14.738   8.666  14.516
25813SOL    HW279279  14.599   8.613  14.544
25814SOL     OW79280   8.673   4.639  11.182
25814SOL    HW179281   8.646   4.549  11.163
25814SOL    HW279282   8.726   4.632  11.261
25815SOL     OW79283   0.824   4.048   9.225
25815SOL    HW179284   0.784   3.968   9.192
25815SOL    HW279285   0.911   4.020   9.255
25816SOL     OW79286  11.371   8.582   0.910
25816SOL    HW179287  11.332   8.503   0.949
25816SOL    HW279288  11.421   8.550   0.835
25817SOL     OW79289   3.714   0.332   8.906
25817SOL    HW179290   3.633   0.292   8.876
25817SOL    HW279291   3.689   0.385   8.981
25818SOL     OW79292  14.516   1.072   0.847
25818SOL    HW179293  14.565   1.152   0.868
25818SOL    HW279294  14.490   1.084   0.756
25819SOL     OW79295   0.332   6.226   1.623
25819SOL    HW179296   0.352   6.135   1.645
25819SOL    HW279297   0.291   6.262   1.702
25820SOL     OW79298   6.182  12.487   7.990
25820SOL    HW179299   6.268  12.445   7.980
25820SOL    HW279300   6.194  12.552   8.059
25821SOL     OW79301   2.907   3.372  14.613
25821SOL    HW179302   2.913   3.277  14.614
25821SOL    HW279303   2.872   3.395  14.699
25822SOL     OW79304   0.593   2.071  12.135
25822SOL    HW179305   0.549   2.152  12.162
25822SOL    HW279306   0.532   2.030  12.073
25823SOL     OW79307  13.947   2.251   0.720
25823SOL    HW179308  13.908   2.262   0.807
25823SOL    HW279309  14.027   2.303   0.722
25824SOL     OW79310  11.567  12.611  11.356
25824SOL    HW179311  11.658  12.608  11.326
25824SOL    HW279312  11.542  12.520  11.367
25825SOL     OW79313   9.711   0.246   6.917
25825SOL    HW179314   9.699   0.259   6.823
25825SOL    HW279315   9.696   0.153   6.931
25826SOL     OW79316   5.730  11.481   2.387
25826SOL    HW179317   5.715  11.406   2.445
25826SOL    HW279318   5.765  11.443   2.307
25827SOL     OW79319  12.596  10.243   9.539
25827SOL    HW179320  12.633  10.222   9.625
25827SOL    HW279321  12.672  10.249   9.481
25828SOL     OW79322  10.829  13.994  10.443
25828SOL    HW179323  10.908  13.950  10.413
25828SOL    HW279324  10.853  14.086  10.448
25829SOL     OW79325   2.841   1.949   6.045
25829SOL    HW179326   2.845   1.856   6.023
25829SOL    HW279327   2.902   1.959   6.118
25830SOL     OW79328   1.414   3.809   5.633
25830SOL    HW179329   1.324   3.799   5.602
25830SOL    HW279330   1.455   3.869   5.570
25831SOL     OW79331  14.322   1.306   9.511
25831SOL    HW179332  14.403   1.274   9.549
25831SOL    HW279333  14.264   1.230   9.509
25832SOL     OW79334   0.344  10.280   3.280
25832SOL    HW179335   0.272  10.334   3.312
25832SOL    HW279336   0.411  10.287   3.348
25833SOL     OW79337   6.717  13.099   9.355
25833SOL    HW179338   6.730  13.115   9.448
25833SOL    HW279339   6.794  13.137   9.313
25834SOL     OW79340   2.201  12.828   0.775
25834SOL    HW179341   2.139  12.844   0.704
25834SOL    HW279342   2.203  12.910   0.825
25835SOL     OW79343  13.599   0.881  10.463
25835SOL    HW179344  13.687   0.903  10.492
25835SOL    HW279345  13.546   0.886  10.543
25836SOL     OW79346  10.389  13.987  10.708
25836SOL    HW179347  10.314  13.934  10.733
25836SOL    HW279348  10.388  14.060  10.770
25837SOL     OW79349  14.151  11.001   9.352
25837SOL    HW179350  14.103  10.993   9.435
25837SOL    HW279351  14.236  11.036   9.377
25838SOL     OW79352  10.726  12.939   8.947
25838SOL    HW179353  10.821  12.947   8.956
25838SOL    HW279354  10.713  12.852   8.908
25839SOL     OW79355   0.241   6.764   3.589
25839SOL    HW179356   0.207   6.833   3.533
25839SOL    HW279357   0.291   6.707   3.530
25840SOL     OW79358   4.321  12.548   0.653
25840SOL    HW179359   4.306  12.457   0.678
25840SOL    HW279360   4.331  12.546   0.558
25841SOL     OW79361  11.200   8.311   0.207
25841SOL    HW179362  11.185   8.235   0.263
25841SOL    HW279363  11.112   8.340   0.182
25842SOL     OW79364   7.492  10.005   5.399
25842SOL    HW179365   7.526   9.997   5.488
25842SOL    HW279366   7.431   9.932   5.390
25843SOL     OW79367   9.008  11.625   0.956
25843SOL    HW179368   8.922  11.586   0.942
25843SOL    HW279369   8.990  11.715   0.981
25844SOL     OW79370   9.119  11.203  13.653
25844SOL    HW179371   9.099  11.132  13.714
25844SOL    HW279372   9.116  11.161  13.567
25845SOL     OW79373  11.368   8.116   6.421
25845SOL    HW179374  11.416   8.157   6.348
25845SOL    HW279375  11.300   8.179   6.443
25846SOL     OW79376   1.942   1.948   8.671
25846SOL    HW179377   1.991   1.996   8.738
25846SOL    HW279378   1.870   1.907   8.718
25847SOL     OW79379  10.593  10.670  11.522
25847SOL    HW179380  10.658  10.619  11.474
25847SOL    HW279381  10.635  10.755  11.537
25848SOL     OW79382  10.952   3.933   2.757
25848SOL    HW179383  10.999   3.973   2.684
25848SOL    HW279384  10.996   3.967   2.835
25849SOL     OW79385  13.021  12.414   4.964
25849SOL    HW179386  13.029  12.359   5.042
25849SOL    HW279387  13.008  12.352   4.892
25850SOL     OW79388   0.057   5.913   7.853
25850SOL    HW179389  14.843   5.915   7.854
25850SOL    HW279390   0.081   5.875   7.938
25851SOL     OW79391   2.556  13.653  14.850
25851SOL    HW179392   2.580  13.615  14.766
25851SOL    HW279393   2.537  13.745  14.831
25852SOL     OW79394  13.975   3.646   5.743
25852SOL    HW179395  14.052   3.593   5.761
25852SOL    HW279396  13.975   3.657   5.648
25853SOL     OW79397  13.047   4.670   5.864
25853SOL    HW179398  13.038   4.609   5.791
25853SOL    HW279399  12.986   4.637   5.931
25854SOL     OW79400  14.512  12.950   0.569
25854SOL    HW179401  14.568  13.027   0.586
25854SOL    HW279402  14.476  12.928   0.655
25855SOL     OW79403   7.714   5.844  12.078
25855SOL    HW179404   7.681   5.766  12.033
25855SOL    HW279405   7.654   5.914  12.051
25856SOL     OW79406   4.338   4.694  13.095
25856SOL    HW179407   4.361   4.748  13.019
25856SOL    HW279408   4.251   4.660  13.075
25857SOL     OW79409   2.944   1.167   3.311
25857SOL    HW179410   2.901   1.240   3.267
25857SOL    HW279411   2.993   1.207   3.383
25858SOL     OW79412  11.415   8.352   5.398
25858SOL    HW179413  11.471   8.275   5.392
25858SOL    HW279414  11.336   8.329   5.350
25859SOL     OW79415   4.263   8.718   8.318
25859SOL    HW179416   4.328   8.725   8.389
25859SOL    HW279417   4.184   8.687   8.361
25860SOL     OW79418   4.611   5.476   1.666
25860SOL    HW179419   4.626   5.384   1.689
25860SOL    HW279420   4.654   5.525   1.735
25861SOL     OW79421   0.975   1.360   4.054
25861SOL    HW179422   1.039   1.428   4.031
25861SOL    HW279423   1.017   1.278   4.028
25862SOL     OW79424   4.020  10.536  10.234
25862SOL    HW179425   4.010  10.479  10.158
25862SOL    HW279426   4.114  10.555  10.237
25863SOL     OW79427   8.357   6.075   6.965
25863SOL    HW179428   8.424   6.013   6.995
25863SOL    HW279429   8.358   6.065   6.869
25864SOL     OW79430   1.355   0.317   9.030
25864SOL    HW179431   1.352   0.397   9.083
25864SOL    HW279432   1.431   0.328   8.974
25865SOL     OW79433   4.009  10.498   8.040
25865SOL    HW179434   3.936  10.537   7.991
25865SOL    HW279435   4.076  10.566   8.042
25866SOL     OW79436   9.251   3.131   2.580
25866SOL    HW179437   9.202   3.105   2.658
25866SOL    HW279438   9.299   3.210   2.607
25867SOL     OW79439   0.747   6.689   3.489
25867SOL    HW179440   0.763   6.712   3.398
25867SOL    HW279441   0.766   6.596   3.494
25868SOL     OW79442  14.295   6.583   7.865
25868SOL    HW179443  14.370   6.593   7.923
25868SOL    HW279444  14.333   6.558   7.781
25869SOL     OW79445  11.320   0.502   2.243
25869SOL    HW179446  11.303   0.475   2.153
25869SOL    HW279447  11.393   0.447   2.271
25870SOL     OW79448   3.904   2.371   0.831
25870SOL    HW179449   3.863   2.455   0.850
25870SOL    HW279450   3.883   2.315   0.906
25871SOL     OW79451  13.770   1.861   5.340
25871SOL    HW179452  13.766   1.934   5.401
25871SOL    HW279453  13.717   1.793   5.381
25872SOL     OW79454   3.142   2.317   9.135
25872SOL    HW179455   3.174   2.280   9.053
25872SOL    HW279456   3.111   2.241   9.185
25873SOL     OW79457  11.322  14.274  12.312
25873SOL    HW179458  11.309  14.346  12.374
25873SOL    HW279459  11.270  14.297  12.236
25874SOL     OW79460   5.918  10.058   3.719
25874SOL    HW179461   5.948   9.996   3.785
25874SOL    HW279462   5.982  10.130   3.722
25875SOL     OW79463   7.080  11.532   9.499
25875SOL    HW179464   7.126  11.511   9.419
25875SOL    HW279465   7.010  11.467   9.505
25876SOL     OW79466   3.228   4.259  12.114
25876SOL    HW179467   3.312   4.215  12.127
25876SOL    HW279468   3.240   4.309  12.033
25877SOL     OW79469   6.043   6.795   5.106
25877SOL    HW179470   5.991   6.715   5.117
25877SOL    HW279471   6.133   6.764   5.098
25878SOL     OW79472   2.509  14.554   1.483
25878SOL    HW179473   2.532  14.546   1.390
25878SOL    HW279474   2.444  14.486   1.498
25879SOL     OW79475   7.538   4.832  10.186
25879SOL    HW179476   7.533   4.918  10.228
25879SOL    HW279477   7.597   4.845  10.111
25880SOL     OW79478   3.089  11.850   6.796
25880SOL    HW179479   2.996  11.866   6.778
25880SOL    HW279480   3.114  11.780   6.736
25881SOL     OW79481   8.533  14.269  10.262
25881SOL    HW179482   8.464  14.313  10.212
25881SOL    HW279483   8.509  14.176  10.258
25882SOL     OW79484   5.339   3.753   2.975
25882SOL    HW179485   5.245   3.747   2.960
25882SOL    HW279486   5.361   3.671   3.020
25883SOL     OW79487  14.389   0.699   7.625
25883SOL    HW179488  14.414   0.652   7.705
25883SOL    HW279489  14.307   0.657   7.599
25884SOL     OW79490   6.226   0.701   0.604
25884SOL    HW179491   6.199   0.780   0.558
25884SOL    HW279492   6.229   0.726   0.697
25885SOL     OW79493   0.115   1.260   4.045
25885SOL    HW179494   0.071   1.309   4.115
25885SOL    HW279495   0.128   1.173   4.081
25886SOL     OW79496   5.298   4.623  14.647
25886SOL    HW179497   5.267   4.639  14.558
25886SOL    HW279498   5.219   4.615  14.700
25887SOL     OW79499   2.474   8.820  12.034
25887SOL    HW179500   2.495   8.901  11.989
25887SOL    HW279501   2.499   8.836  12.126
25888SOL     OW79502   8.446  14.465   6.038
25888SOL    HW179503   8.356  14.485   6.012
25888SOL    HW279504   8.448  14.369   6.043
25889SOL     OW79505  11.711   2.390  12.503
25889SOL    HW179506  11.618   2.414  12.508
25889SOL    HW279507  11.755   2.456  12.557
25890SOL     OW79508   0.368  14.327   0.177
25890SOL    HW179509   0.413  14.246   0.198
25890SOL    HW279510   0.439  14.389   0.158
25891SOL     OW79511   7.855   5.387   8.750
25891SOL    HW179512   7.908   5.467   8.738
25891SOL    HW279513   7.765   5.419   8.757
25892SOL     OW79514   8.822   1.578  13.229
25892SOL    HW179515   8.865   1.634  13.294
25892SOL    HW279516   8.789   1.504  13.280
25893SOL     OW79517  13.765  10.067   5.501
25893SOL    HW179518  13.753   9.974   5.484
25893SOL    HW279519  13.794  10.072   5.592
25894SOL     OW79520   7.829   3.615   0.463
25894SOL    HW179521   7.767   3.561   0.512
25894SOL    HW279522   7.780   3.693   0.440
25895SOL     OW79523  13.921   8.629  10.826
25895SOL    HW179524  13.950   8.570  10.895
25895SOL    HW279525  14.003   8.662  10.788
25896SOL     OW79526  11.105  11.154   3.776
25896SOL    HW179527  11.094  11.249   3.776
25896SOL    HW279528  11.018  11.120   3.756
25897SOL     OW79529  12.241  11.644   6.001
25897SOL    HW179530  12.238  11.725   5.951
25897SOL    HW279531  12.318  11.653   6.057
25898SOL     OW79532  10.596   2.086   5.530
25898SOL    HW179533  10.503   2.079   5.508
25898SOL    HW279534  10.630   2.153   5.471
25899SOL     OW79535   0.046   3.362   5.108
25899SOL    HW179536   0.094   3.293   5.062
25899SOL    HW279537   0.030   3.326   5.196
25900SOL     OW79538   5.350   7.832   3.738
25900SOL    HW179539   5.396   7.749   3.733
25900SOL    HW279540   5.330   7.854   3.647
25901SOL     OW79541   5.949   3.575  14.090
25901SOL    HW179542   6.016   3.534  14.037
25901SOL    HW279543   5.992   3.593  14.174
25902SOL     OW79544  12.591   8.387   1.004
25902SOL    HW179545  12.624   8.425   0.922
25902SOL    HW279546  12.590   8.292   0.987
25903SOL     OW79547   6.393   6.241   8.169
25903SOL    HW179548   6.345   6.272   8.092
25903SOL    HW279549   6.477   6.287   8.164
25904SOL     OW79550   7.603   7.502   4.438
25904SOL    HW179551   7.642   7.554   4.509
25904SOL    HW279552   7.652   7.420   4.440
25905SOL     OW79553   0.038   5.732   5.661
25905SOL    HW179554   0.010   5.761   5.575
25905SOL    HW279555  14.845   5.681   5.695
25906SOL     OW79556  13.330  11.361  10.482
25906SOL    HW179557  13.351  11.416  10.407
25906SOL    HW279558  13.235  11.348  10.477
25907SOL     OW79559   1.483   0.346   9.349
25907SOL    HW179560   1.408   0.386   9.392
25907SOL    HW279561   1.558   0.370   9.403
25908SOL     OW79562  10.341   5.860   6.942
25908SOL    HW179563  10.425   5.904   6.931
25908SOL    HW279564  10.276   5.927   6.920
25909SOL     OW79565   4.188  10.639   3.183
25909SOL    HW179566   4.125  10.594   3.126
25909SOL    HW279567   4.145  10.721   3.207
25910SOL     OW79568  13.431   0.955   3.412
25910SOL    HW179569  13.355   0.897   3.419
25910SOL    HW279570  13.506   0.895   3.411
25911SOL     OW79571  12.447   9.764   1.491
25911SOL    HW179572  12.407   9.705   1.555
25911SOL    HW279573  12.505   9.820   1.542
25912SOL     OW79574   5.308   2.041   1.993
25912SOL    HW179575   5.358   2.118   2.020
25912SOL    HW279576   5.302   2.050   1.897
25913SOL     OW79577   7.818   7.144   6.905
25913SOL    HW179578   7.857   7.121   6.821
25913SOL    HW279579   7.876   7.212   6.941
25914SOL     OW79580   4.124   0.595   8.212
25914SOL    HW179581   4.099   0.522   8.155
25914SOL    HW279582   4.041   0.634   8.240
25915SOL     OW79583   6.643   1.594  12.865
25915SOL    HW179584   6.700   1.667  12.841
25915SOL    HW279585   6.669   1.571  12.955
25916SOL     OW79586   8.540   9.296   5.965
25916SOL    HW179587   8.622   9.254   5.939
25916SOL    HW279588   8.474   9.228   5.949
25917SOL     OW79589  14.309   1.470   6.078
25917SOL    HW179590  14.285   1.439   5.991
25917SOL    HW279591  14.243   1.433   6.136
25918SOL     OW79592  14.195  14.383   0.405
25918SOL    HW179593  14.148  14.312   0.448
25918SOL    HW279594  14.168  14.379   0.314
25919SOL     OW79595  10.801  11.453   9.768
25919SOL    HW179596  10.773  11.361   9.769
25919SOL    HW279597  10.872  11.455   9.704
25920SOL     OW79598  10.189   4.162   2.766
25920SOL    HW179599  10.277   4.181   2.734
25920SOL    HW279600  10.202   4.096   2.834
25921SOL     OW79601  13.256   3.214   8.806
25921SOL    HW179602  13.196   3.273   8.851
25921SOL    HW279603  13.200   3.149   8.764
25922SOL     OW79604   8.928   6.887   0.573
25922SOL    HW179605   8.873   6.814   0.602
25922SOL    HW279606   8.995   6.894   0.642
25923SOL     OW79607   6.018   9.278   0.902
25923SOL    HW179608   6.085   9.220   0.937
25923SOL    HW279609   5.974   9.313   0.980
25924SOL     OW79610   9.901   4.387  11.638
25924SOL    HW179611   9.843   4.450  11.594
25924SOL    HW279612   9.907   4.313  11.578
25925SOL     OW79613   2.907   3.783  12.585
25925SOL    HW179614   2.859   3.787  12.502
25925SOL    HW279615   2.913   3.689  12.604
25926SOL     OW79616  11.020  12.512   5.257
25926SOL    HW179617  11.002  12.466   5.339
25926SOL    HW279618  10.934  12.540   5.226
25927SOL     OW79619   6.394   4.860  13.546
25927SOL    HW179620   6.338   4.894  13.617
25927SOL    HW279621   6.357   4.897  13.466
25928SOL     OW79622   4.107   7.305   5.287
25928SOL    HW179623   4.175   7.245   5.258
25928SOL    HW279624   4.025   7.262   5.263
25929SOL     OW79625  14.819   6.866   4.520
25929SOL    HW179626  14.825   6.772   4.503
25929SOL    HW279627  14.788   6.872   4.610
25930SOL     OW79628   4.783  10.749   8.207
25930SOL    HW179629   4.853  10.802   8.169
25930SOL    HW279630   4.734  10.811   8.261
25931SOL     OW79631  11.535  13.390  10.473
25931SOL    HW179632  11.512  13.355  10.387
25931SOL    HW279633  11.587  13.468  10.453
25932SOL     OW79634   1.876   6.659   3.845
25932SOL    HW179635   1.846   6.672   3.935
25932SOL    HW279636   1.918   6.573   3.846
25933SOL     OW79637   7.368  14.479  10.154
25933SOL    HW179638   7.397  14.536  10.082
25933SOL    HW279639   7.363  14.392  10.114
25934SOL     OW79640   7.136   0.105   0.298
25934SOL    HW179641   7.050   0.141   0.278
25934SOL    HW279642   7.154   0.046   0.225
25935SOL     OW79643   1.479   7.028   3.493
25935SOL    HW179644   1.493   6.995   3.404
25935SOL    HW279645   1.395   7.074   3.488
25936SOL     OW79646   6.672   6.111   9.459
25936SOL    HW179647   6.671   6.188   9.402
25936SOL    HW279648   6.757   6.115   9.504
25937SOL     OW79649   6.188   6.538  10.221
25937SOL    HW179650   6.153   6.502  10.139
25937SOL    HW279651   6.111   6.545  10.278
25938SOL     OW79652  12.984  13.300   9.358
25938SOL    HW179653  12.911  13.351   9.393
25938SOL    HW279654  13.017  13.353   9.285
25939SOL     OW79655   9.726   6.917   7.560
25939SOL    HW179656   9.815   6.931   7.529
25939SOL    HW279657   9.735   6.859   7.635
25940SOL     OW79658  12.923   2.572  13.562
25940SOL    HW179659  12.843   2.519  13.562
25940SOL    HW279660  12.972   2.541  13.486
25941SOL     OW79661   4.936   2.130  10.841
25941SOL    HW179662   4.887   2.182  10.777
25941SOL    HW279663   4.958   2.049  10.795
25942SOL     OW79664  12.202  11.577  13.096
25942SOL    HW179665  12.140  11.509  13.120
25942SOL    HW279666  12.261  11.534  13.034
25943SOL     OW79667  14.327   3.411  13.861
25943SOL    HW179668  14.378   3.349  13.914
25943SOL    HW279669  14.390   3.442  13.795
25944SOL     OW79670  10.046  11.742   4.678
25944SOL    HW179671  10.115  11.808   4.675
25944SOL    HW279672   9.967  11.789   4.649
25945SOL     OW79673   3.431  10.260  14.881
25945SOL    HW179674   3.520  10.229   0.010
25945SOL    HW279675   3.430  10.346   0.041
25946SOL     OW79676   1.155   7.636  10.662
25946SOL    HW179677   1.189   7.547  10.662
25946SOL    HW279678   1.097   7.640  10.586
25947SOL     OW79679   9.895  11.058   0.494
25947SOL    HW179680   9.875  10.971   0.531
25947SOL    HW279681   9.816  11.082   0.446
25948SOL     OW79682  11.283  10.653   8.817
25948SOL    HW179683  11.200  10.648   8.769
25948SOL    HW279684  11.350  10.649   8.748
25949SOL     OW79685  13.426  11.295   2.220
25949SOL    HW179686  13.463  11.300   2.131
25949SOL    HW279687  13.447  11.207   2.250
25950SOL     OW79688   1.020  10.717   2.632
25950SOL    HW179689   1.060  10.801   2.609
25950SOL    HW279690   0.936  10.739   2.671
25951SOL     OW79691   4.661  12.714   6.758
25951SOL    HW179692   4.697  12.728   6.670
25951SOL    HW279693   4.669  12.619   6.771
25952SOL     OW79694  14.729   3.438  12.121
25952SOL    HW179695  14.806   3.387  12.096
25952SOL    HW279696  14.693   3.470  12.038
25953SOL     OW79697   5.380  11.318   7.411
25953SOL    HW179698   5.356  11.228   7.388
25953SOL    HW279699   5.309  11.348   7.468
25954SOL     OW79700   4.371   3.430  11.558
25954SOL    HW179701   4.404   3.412  11.470
25954SOL    HW279702   4.278   3.446  11.546
25955SOL     OW79703   8.068   8.447  14.225
25955SOL    HW179704   7.988   8.468  14.274
25955SOL    HW279705   8.139   8.485  14.277
25956SOL     OW79706   8.997  13.037  14.828
25956SOL    HW179707   9.055  13.093  14.879
25956SOL    HW279708   8.920  13.090  14.810
25957SOL     OW79709   5.218   6.676   4.373
25957SOL    HW179710   5.233   6.630   4.456
25957SOL    HW279711   5.183   6.761   4.400
25958SOL     OW79712   6.443   2.703   9.967
25958SOL    HW179713   6.355   2.665   9.961
25958SOL    HW279714   6.441   2.756  10.046
25959SOL     OW79715   3.131  14.607   0.362
25959SOL    HW179716   3.046  14.595   0.405
25959SOL    HW279717   3.151  14.699   0.375
25960SOL     OW79718   2.613  11.010  14.493
25960SOL    HW179719   2.652  11.004  14.406
25960SOL    HW279720   2.566  11.094  14.492
25961SOL     OW79721   9.724  11.297   3.327
25961SOL    HW179722   9.637  11.297   3.287
25961SOL    HW279723   9.760  11.211   3.304
25962SOL     OW79724  12.379  11.913   6.454
25962SOL    HW179725  12.353  11.918   6.547
25962SOL    HW279726  12.333  11.987   6.413
25963SOL     OW79727   5.253   0.049   4.680
25963SOL    HW179728   5.292  14.874   4.747
25963SOL    HW279729   5.174   0.003   4.653
25964SOL     OW79730   5.880  10.449   3.608
25964SOL    HW179731   5.927  10.389   3.666
25964SOL    HW279732   5.865  10.527   3.661
25965SOL     OW79733   0.228  10.375   9.805
25965SOL    HW179734   0.248  10.453   9.753
25965SOL    HW279735   0.247  10.401   9.895
25966SOL     OW79736   5.989   1.099   6.599
25966SOL    HW179737   6.017   1.188   6.577
25966SOL    HW279738   6.048   1.043   6.549
25967SOL     OW79739   7.876   5.385  12.532
25967SOL    HW179740   7.956   5.351  12.571
25967SOL    HW279741   7.826   5.308  12.508
25968SOL     OW79742   4.375   4.554  10.443
25968SOL    HW179743   4.379   4.552  10.539
25968SOL    HW279744   4.303   4.496  10.421
25969SOL     OW79745  12.315  12.248   8.595
25969SOL    HW179746  12.253  12.257   8.668
25969SOL    HW279747  12.300  12.325   8.540
25970SOL     OW79748   5.216   1.176  11.617
25970SOL    HW179749   5.192   1.262  11.582
25970SOL    HW279750   5.162   1.166  11.695
25971SOL     OW79751   9.810  11.346   4.347
25971SOL    HW179752   9.847  11.433   4.361
25971SOL    HW279753   9.872  11.304   4.287
25972SOL     OW79754  12.516   7.782  10.160
25972SOL    HW179755  12.586   7.830  10.205
25972SOL    HW279756  12.439   7.794  10.215
25973SOL     OW79757  14.137   1.302   1.022
25973SOL    HW179758  14.086   1.339   0.950
25973SOL    HW279759  14.208   1.365   1.036
25974SOL     OW79760   7.778  13.637  12.602
25974SOL    HW179761   7.774  13.586  12.521
25974SOL    HW279762   7.856  13.692  12.592
25975SOL     OW79763  12.200   8.000  14.599
25975SOL    HW179764  12.177   7.909  14.617
25975SOL    HW279765  12.234   7.999  14.510
25976SOL     OW79766  13.928  10.211   5.239
25976SOL    HW179767  13.904  10.118   5.242
25976SOL    HW279768  13.967  10.228   5.325
25977SOL     OW79769  11.825   7.305   3.657
25977SOL    HW179770  11.741   7.290   3.700
25977SOL    HW279771  11.826   7.399   3.638
25978SOL     OW79772   7.426   5.143   5.471
25978SOL    HW179773   7.393   5.054   5.477
25978SOL    HW279774   7.486   5.141   5.396
25979SOL     OW79775  12.798   5.602   4.879
25979SOL    HW179776  12.872   5.569   4.828
25979SOL    HW279777  12.755   5.524   4.914
25980SOL     OW79778   7.342  11.358   1.482
25980SOL    HW179779   7.391  11.440   1.491
25980SOL    HW279780   7.287  11.371   1.405
25981SOL     OW79781  10.480   8.919   0.395
25981SOL    HW179782  10.511   8.987   0.336
25981SOL    HW279783  10.385   8.923   0.389
25982SOL     OW79784   5.355  12.415  10.817
25982SOL    HW179785   5.300  12.494  10.822
25982SOL    HW279786   5.330  12.363  10.894
25983SOL     OW79787   9.816   7.073   9.995
25983SOL    HW179788   9.784   7.081   9.905
25983SOL    HW279789   9.738   7.054  10.046
25984SOL     OW79790  12.103   8.242  11.404
25984SOL    HW179791  12.093   8.147  11.402
25984SOL    HW279792  12.197   8.256  11.417
25985SOL     OW79793   8.752  12.970  13.671
25985SOL    HW179794   8.781  12.969  13.579
25985SOL    HW279795   8.834  12.966  13.721
25986SOL     OW79796   6.926  13.630   1.050
25986SOL    HW179797   6.851  13.571   1.055
25986SOL    HW279798   6.992  13.589   1.106
25987SOL     OW79799   8.857   5.880  12.830
25987SOL    HW179800   8.930   5.900  12.889
25987SOL    HW279801   8.788   5.941  12.856
25988SOL     OW79802   7.399   8.570  10.616
25988SOL    HW179803   7.381   8.555  10.709
25988SOL    HW279804   7.327   8.625  10.587
25989SOL     OW79805   6.262   7.611  11.017
25989SOL    HW179806   6.306   7.690  10.987
25989SOL    HW279807   6.212   7.582  10.941
25990SOL     OW79808   8.187  10.607   0.279
25990SOL    HW179809   8.093  10.617   0.269
25990SOL    HW279810   8.205  10.637   0.369
25991SOL     OW79811   6.008  14.231   7.756
25991SOL    HW179812   5.952  14.186   7.819
25991SOL    HW279813   6.065  14.286   7.809
25992SOL     OW79814   1.615  12.659   5.111
25992SOL    HW179815   1.567  12.650   5.193
25992SOL    HW279816   1.547  12.667   5.044
25993SOL     OW79817   1.758   2.942   2.308
25993SOL    HW179818   1.679   2.944   2.254
25993SOL    HW279819   1.740   2.874   2.373
25994SOL     OW79820   5.863   9.272  14.429
25994SOL    HW179821   5.920   9.223  14.369
25994SOL    HW279822   5.794   9.308  14.372
25995SOL     OW79823   3.733   4.188   7.062
25995SOL    HW179824   3.675   4.155   7.130
25995SOL    HW279825   3.708   4.280   7.052
25996SOL     OW79826  12.655   6.670   8.981
25996SOL    HW179827  12.610   6.697   8.901
25996SOL    HW279828  12.584   6.643   9.040
25997SOL     OW79829   6.808   3.451   6.825
25997SOL    HW179830   6.784   3.526   6.772
25997SOL    HW279831   6.734   3.390   6.816
25998SOL     OW79832  11.253   3.754   4.743
25998SOL    HW179833  11.224   3.845   4.736
25998SOL    HW279834  11.340   3.753   4.703
25999SOL     OW79835  11.444  13.963  11.008
25999SOL    HW179836  11.480  13.892  10.955
25999SOL    HW279837  11.349  13.951  11.003
26000SOL     OW79838   7.693   5.403   4.003
26000SOL    HW179839   7.746   5.382   3.926
26000SOL    HW279840   7.756   5.419   4.073
26001SOL     OW79841  12.203   3.806   3.578
26001SOL    HW179842  12.274   3.757   3.620
26001SOL    HW279843  12.176   3.751   3.505
26002SOL     OW79844   3.731  10.024  13.185
26002SOL    HW179845   3.786   9.960  13.231
26002SOL    HW279846   3.772  10.031  13.099
26003SOL     OW79847   1.824   8.253   1.833
26003SOL    HW179848   1.834   8.345   1.809
26003SOL    HW279849   1.883   8.242   1.908
26004SOL     OW79850  13.832   1.799  10.480
26004SOL    HW179851  13.902   1.863  10.470
26004SOL    HW279852  13.753   1.851  10.496
26005SOL     OW79853   5.337  13.194   8.233
26005SOL    HW179854   5.425  13.216   8.265
26005SOL    HW279855   5.322  13.105   8.265
26006SOL     OW79856   5.310  10.269  10.481
26006SOL    HW179857   5.229  10.314  10.508
26006SOL    HW279858   5.284  10.217  10.405
26007SOL     OW79859   8.014   8.166  13.601
26007SOL    HW179860   7.958   8.096  13.568
26007SOL    HW279861   7.954   8.222  13.651
26008SOL     OW79862   7.442  11.120   7.803
26008SOL    HW179863   7.503  11.058   7.843
26008SOL    HW279864   7.397  11.069   7.736
26009SOL     OW79865  13.648   4.270   0.993
26009SOL    HW179866  13.604   4.257   1.077
26009SOL    HW279867  13.741   4.278   1.015
26010SOL     OW79868  14.387   8.270   0.749
26010SOL    HW179869  14.355   8.356   0.722
26010SOL    HW279870  14.317   8.232   0.801
26011SOL     OW79871   1.712   3.412   3.561
26011SOL    HW179872   1.694   3.378   3.473
26011SOL    HW279873   1.804   3.439   3.558
26012SOL     OW79874   5.349   3.000   5.230
26012SOL    HW179875   5.279   3.016   5.165
26012SOL    HW279876   5.405   2.934   5.189
26013SOL     OW79877  13.786   4.641  10.970
26013SOL    HW179878  13.730   4.567  10.949
26013SOL    HW279879  13.735   4.693  11.033
26014SOL     OW79880   2.620  14.818   3.677
26014SOL    HW179881   2.609  14.738   3.729
26014SOL    HW279882   2.696  14.862   3.715
26015SOL     OW79883  13.533   8.256   4.666
26015SOL    HW179884  13.558   8.185   4.607
26015SOL    HW279885  13.599   8.324   4.651
26016SOL     OW79886  13.308  12.880  13.623
26016SOL    HW179887  13.308  12.898  13.717
26016SOL    HW279888  13.388  12.830  13.609
26017SOL     OW79889  14.119   8.626  12.469
26017SOL    HW179890  14.211   8.653  12.469
26017SOL    HW279891  14.074   8.696  12.517
26018SOL     OW79892   5.895   4.727  13.024
26018SOL    HW179893   5.860   4.761  13.106
26018SOL    HW279894   5.860   4.784  12.956
26019SOL     OW79895   5.985   6.022   8.611
26019SOL    HW179896   6.071   6.064   8.618
26019SOL    HW279897   5.923   6.094   8.604
26020SOL     OW79898   0.639  12.296  13.237
26020SOL    HW179899   0.716  12.288  13.293
26020SOL    HW279900   0.565  12.286  13.297
26021SOL     OW79901   0.356   8.681  11.179
26021SOL    HW179902   0.392   8.766  11.154
26021SOL    HW279903   0.432   8.624  11.187
26022SOL     OW79904   1.640  12.973  10.355
26022SOL    HW179905   1.653  12.976  10.260
26022SOL    HW279906   1.566  13.032  10.371
26023SOL     OW79907   3.554   5.362   1.487
26023SOL    HW179908   3.501   5.438   1.464
26023SOL    HW279909   3.601   5.340   1.407
26024SOL     OW79910   5.525   8.858   1.902
26024SOL    HW179911   5.556   8.860   1.993
26024SOL    HW279912   5.430   8.870   1.910
26025SOL     OW79913   7.863   5.864   7.653
26025SOL    HW179914   7.804   5.789   7.647
26025SOL    HW279915   7.950   5.828   7.636
26026SOL     OW79916   0.693  11.788  11.065
26026SOL    HW179917   0.670  11.709  11.114
26026SOL    HW279918   0.787  11.780  11.050
26027SOL     OW79919   1.505   6.663   1.016
26027SOL    HW179920   1.573   6.693   0.956
26027SOL    HW279921   1.552   6.613   1.082
26028SOL     OW79922   1.342  13.854   3.180
26028SOL    HW179923   1.373  13.837   3.091
26028SOL    HW279924   1.373  13.942   3.200
26029SOL     OW79925   0.031   9.938  11.637
26029SOL    HW179926  14.828   9.983  11.628
26029SOL    HW279927   0.026   9.867  11.573
26030SOL     OW79928   7.484   9.874   7.445
26030SOL    HW179929   7.522   9.938   7.504
26030SOL    HW279930   7.396   9.858   7.481
26031SOL     OW79931  11.990   6.005   9.003
26031SOL    HW179932  11.965   5.919   8.970
26031SOL    HW279933  11.912   6.059   8.991
26032SOL     OW79934  11.296   0.287   8.924
26032SOL    HW179935  11.305   0.343   8.846
26032SOL    HW279936  11.203   0.265   8.926
26033SOL     OW79937   6.424   6.331  14.579
26033SOL    HW179938   6.513   6.300  14.561
26033SOL    HW279939   6.374   6.252  14.601
26034SOL     OW79940  10.031   2.794  14.463
26034SOL    HW179941   9.966   2.841  14.411
26034SOL    HW279942  10.007   2.702  14.455
26035SOL     OW79943  12.329  11.627   6.490
26035SOL    HW179944  12.246  11.628   6.443
26035SOL    HW279945  12.383  11.691   6.445
26036SOL     OW79946  11.942   6.303  11.759
26036SOL    HW179947  11.895   6.385  11.770
26036SOL    HW279948  11.895   6.241  11.814
26037SOL     OW79949  13.431   3.354   4.505
26037SOL    HW179950  13.460   3.445   4.509
26037SOL    HW279951  13.445   3.328   4.414
26038SOL     OW79952   0.947  10.690   3.565
26038SOL    HW179953   0.968  10.705   3.473
26038SOL    HW279954   1.028  10.713   3.612
26039SOL     OW79955   2.445  12.172   9.771
26039SOL    HW179956   2.514  12.237   9.780
26039SOL    HW279957   2.492  12.089   9.757
26040SOL     OW79958   4.092   2.166   6.238
26040SOL    HW179959   3.999   2.143   6.239
26040SOL    HW279960   4.110   2.198   6.327
26041SOL     OW79961   7.653   0.639   5.077
26041SOL    HW179962   7.710   0.702   5.122
26041SOL    HW279963   7.610   0.592   5.147
26042SOL     OW79964  12.552   2.170   1.228
26042SOL    HW179965  12.484   2.234   1.206
26042SOL    HW279966  12.554   2.168   1.323
26043SOL     OW79967   8.069   2.364  12.668
26043SOL    HW179968   8.102   2.318  12.592
26043SOL    HW279969   8.096   2.455  12.655
26044SOL     OW79970   3.149  10.314  13.847
26044SOL    HW179971   3.168  10.363  13.926
26044SOL    HW279972   3.228  10.324  13.793
26045SOL     OW79973  13.523   4.875  13.427
26045SOL    HW179974  13.594   4.810  13.426
26045SOL    HW279975  13.563   4.955  13.394
26046SOL     OW79976  13.502   2.338   9.517
26046SOL    HW179977  13.543   2.279   9.579
26046SOL    HW279978  13.408   2.330   9.535
26047SOL     OW79979  13.921  10.480  10.608
26047SOL    HW179980  13.863  10.406  10.588
26047SOL    HW279981  13.968  10.454  10.687
26048SOL     OW79982   4.800   6.938  12.187
26048SOL    HW179983   4.777   7.002  12.120
26048SOL    HW279984   4.844   6.989  12.255
26049SOL     OW79985  11.970   7.620   2.889
26049SOL    HW179986  11.940   7.691   2.834
26049SOL    HW279987  12.066   7.624   2.884
26050SOL     OW79988  10.704   2.362   7.242
26050SOL    HW179989  10.797   2.379   7.255
26050SOL    HW279990  10.693   2.362   7.147
26051SOL     OW79991   5.636   5.280  11.497
26051SOL    HW179992   5.712   5.256  11.550
26051SOL    HW279993   5.618   5.371  11.522
26052SOL     OW79994   3.764   1.009   2.198
26052SOL    HW179995   3.683   0.966   2.227
26052SOL    HW279996   3.811   1.028   2.279
26053SOL     OW79997   2.131   1.567   9.746
26053SOL    HW179998   2.158   1.553   9.655
26053SOL    HW279999   2.112   1.661   9.751
26054SOL     OW80000  10.852   0.084   7.595
26054SOL    HW180001  10.774   0.128   7.628
26054SOL    HW280002  10.923   0.146   7.613
26055SOL     OW80003   9.645   0.242   7.657
26055SOL    HW180004   9.599   0.319   7.623
26055SOL    HW280005   9.737   0.260   7.638
26056SOL     OW80006  10.495  13.322   4.371
26056SOL    HW180007  10.502  13.411   4.406
26056SOL    HW280008  10.501  13.265   4.448
26057SOL     OW80009   4.022   0.777   5.403
26057SOL    HW180010   3.972   0.697   5.421
26057SOL    HW280011   3.964   0.848   5.432
26058SOL     OW80012   9.892   8.958   1.367
26058SOL    HW180013   9.924   9.047   1.385
26058SOL    HW280014   9.851   8.931   1.449
26059SOL     OW80015   8.219  13.164  14.757
26059SOL    HW180016   8.173  13.080  14.768
26059SOL    HW280017   8.256  13.159  14.669
26060SOL     OW80018   8.411  14.618   7.665
26060SOL    HW180019   8.503  14.594   7.652
26060SOL    HW280020   8.364  14.565   7.600
26061SOL     OW80021   0.024  13.807  10.210
26061SOL    HW180022   0.095  13.810  10.275
26061SOL    HW280023  14.849  13.736  10.240
26062SOL     OW80024   3.618  13.470   5.224
26062SOL    HW180025   3.590  13.549   5.178
26062SOL    HW280026   3.682  13.500   5.288
26063SOL     OW80027  12.313   2.710   7.601
26063SOL    HW180028  12.310   2.616   7.617
26063SOL    HW280029  12.380   2.720   7.533
26064SOL     OW80030   8.695  14.528   3.769
26064SOL    HW180031   8.700  14.609   3.717
26064SOL    HW280032   8.732  14.461   3.712
26065SOL     OW80033  10.982   1.877   7.443
26065SOL    HW180034  11.032   1.955   7.418
26065SOL    HW280035  11.016   1.854   7.530
26066SOL     OW80036   7.027   2.017  13.260
26066SOL    HW180037   7.098   2.069  13.223
26066SOL    HW280038   6.950   2.075  13.258
26067SOL     OW80039   2.891  10.183   0.637
26067SOL    HW180040   2.925  10.252   0.580
26067SOL    HW280041   2.837  10.129   0.580
26068SOL     OW80042   0.490   2.080  14.706
26068SOL    HW180043   0.529   2.161  14.739
26068SOL    HW280044   0.564   2.030  14.671
26069SOL     OW80045   4.402  11.647   4.347
26069SOL    HW180046   4.399  11.743   4.349
26069SOL    HW280047   4.421  11.626   4.256
26070SOL     OW80048   2.248   6.764  11.122
26070SOL    HW180049   2.262   6.770  11.216
26070SOL    HW280050   2.225   6.853  11.095
26071SOL     OW80051  13.678  10.348  14.432
26071SOL    HW180052  13.753  10.406  14.417
26071SOL    HW280053  13.631  10.348  14.348
26072SOL     OW80054   3.928  12.755   1.900
26072SOL    HW180055   3.948  12.840   1.861
26072SOL    HW280056   3.833  12.756   1.911
26073SOL     OW80057  13.084  10.757   6.550
26073SOL    HW180058  13.087  10.844   6.590
26073SOL    HW280059  12.995  10.725   6.570
26074SOL     OW80060   8.799   3.218  13.431
26074SOL    HW180061   8.733   3.283  13.410
26074SOL    HW280062   8.874   3.240  13.376
26075SOL     OW80063   5.451  10.112   7.522
26075SOL    HW180064   5.429  10.142   7.434
26075SOL    HW280065   5.476  10.191   7.569
26076SOL     OW80066   9.458   6.191   3.734
26076SOL    HW180067   9.520   6.263   3.741
26076SOL    HW280068   9.506   6.123   3.686
26077SOL     OW80069  11.129   5.096   7.936
26077SOL    HW180070  11.105   5.125   7.848
26077SOL    HW280071  11.186   5.020   7.922
26078SOL     OW80072   3.237   2.059   9.708
26078SOL    HW180073   3.158   2.103   9.741
26078SOL    HW280074   3.285   2.128   9.663
26079SOL     OW80075  11.297  13.695   4.869
26079SOL    HW180076  11.208  13.727   4.860
26079SOL    HW280077  11.297  13.610   4.825
26080SOL     OW80078  12.954   8.840  14.822
26080SOL    HW180079  12.922   8.870  14.737
26080SOL    HW280080  12.999   8.916  14.859
26081SOL     OW80081  12.433   9.411   1.022
26081SOL    HW180082  12.478   9.475   0.967
26081SOL    HW280083  12.397   9.462   1.094
26082SOL     OW80084   2.361   8.907   2.519
26082SOL    HW180085   2.330   8.830   2.569
26082SOL    HW280086   2.281   8.955   2.497
26083SOL     OW80087   6.786   9.812  11.961
26083SOL    HW180088   6.808   9.724  11.988
26083SOL    HW280089   6.768   9.805  11.867
26084SOL     OW80090  10.526   7.354   2.821
26084SOL    HW180091  10.575   7.331   2.743
26084SOL    HW280092  10.440   7.314   2.808
26085SOL     OW80093   6.587  10.165  14.039
26085SOL    HW180094   6.676  10.198  14.034
26085SOL    HW280095   6.536  10.221  13.981
26086SOL     OW80096  10.847   9.793   2.683
26086SOL    HW180097  10.906   9.857   2.721
26086SOL    HW280098  10.761   9.835   2.685
26087SOL     OW80099   3.830  14.564   9.957
26087SOL    HW180100   3.918  14.535   9.932
26087SOL    HW280101   3.817  14.529  10.045
26088SOL     OW80102   2.039  13.524  11.837
26088SOL    HW180103   2.123  13.521  11.883
26088SOL    HW280104   2.020  13.618  11.830
26089SOL     OW80105   6.018   8.643   7.046
26089SOL    HW180106   5.955   8.693   7.098
26089SOL    HW280107   6.040   8.699   6.972
26090SOL     OW80108   2.709  10.399  10.704
26090SOL    HW180109   2.755  10.441  10.631
26090SOL    HW280110   2.774  10.340  10.743
26091SOL     OW80111   6.846  11.822   2.828
26091SOL    HW180112   6.764  11.848   2.785
26091SOL    HW280113   6.822  11.809   2.919
26092SOL     OW80114  10.295  11.091   7.836
26092SOL    HW180115  10.272  11.037   7.911
26092SOL    HW280116  10.370  11.047   7.795
26093SOL     OW80117   5.669   7.280  11.095
26093SOL    HW180118   5.574   7.284  11.107
26093SOL    HW280119   5.705   7.327  11.169
26094SOL     OW80120   4.960   2.432   7.353
26094SOL    HW180121   4.969   2.522   7.324
26094SOL    HW280122   5.050   2.398   7.355
26095SOL     OW80123   3.609  12.502   5.979
26095SOL    HW180124   3.552  12.579   5.977
26095SOL    HW280125   3.612  12.473   5.888
26096SOL     OW80126  14.498   8.802  11.962
26096SOL    HW180127  14.475   8.878  11.908
26096SOL    HW280128  14.422   8.744  11.956
26097SOL     OW80129  11.397   6.489   8.040
26097SOL    HW180130  11.376   6.438   8.118
26097SOL    HW280131  11.317   6.538   8.021
26098SOL     OW80132   6.358   8.662   6.367
26098SOL    HW180133   6.280   8.686   6.416
26098SOL    HW280134   6.379   8.573   6.397
26099SOL     OW80135   5.031  10.592   5.018
26099SOL    HW180136   5.114  10.619   5.056
26099SOL    HW280137   4.965  10.628   5.078
26100SOL     OW80138   9.388   1.079  12.728
26100SOL    HW180139   9.294   1.092  12.726
26100SOL    HW280140   9.405   1.011  12.663
26101SOL     OW80141   1.022   5.973   7.366
26101SOL    HW180142   1.083   6.024   7.313
26101SOL    HW280143   1.004   5.895   7.314
26102SOL     OW80144   2.369  14.427   7.436
26102SOL    HW180145   2.444  14.444   7.492
26102SOL    HW280146   2.293  14.453   7.488
26103SOL     OW80147   0.935  12.393   6.769
26103SOL    HW180148   0.978  12.478   6.760
26103SOL    HW280149   0.958  12.346   6.688
26104SOL     OW80150   8.221   7.487  12.986
26104SOL    HW180151   8.312   7.469  13.008
26104SOL    HW280152   8.179   7.504  13.070
26105SOL     OW80153  13.622   2.123   4.130
26105SOL    HW180154  13.634   2.168   4.214
26105SOL    HW280155  13.705   2.079   4.114
26106SOL     OW80156   6.609  11.809  12.072
26106SOL    HW180157   6.562  11.764  12.002
26106SOL    HW280158   6.626  11.741  12.137
26107SOL     OW80159   1.948   9.735   4.847
26107SOL    HW180160   1.991   9.750   4.763
26107SOL    HW280161   1.990   9.657   4.882
26108SOL     OW80162   1.517  12.816  10.902
26108SOL    HW180163   1.611  12.796  10.904
26108SOL    HW280164   1.494  12.815  10.809
26109SOL     OW80165   9.479   9.855   0.709
26109SOL    HW180166   9.492   9.796   0.634
26109SOL    HW280167   9.565   9.896   0.721
26110SOL     OW80168  13.565   1.959  11.405
26110SOL    HW180169  13.536   1.989  11.318
26110SOL    HW280170  13.509   1.884  11.424
26111SOL     OW80171  11.588  12.002  10.870
26111SOL    HW180172  11.547  11.954  10.942
26111SOL    HW280173  11.576  11.944  10.794
26112SOL     OW80174   2.843   1.243   8.324
26112SOL    HW180175   2.795   1.235   8.406
26112SOL    HW280176   2.790   1.301   8.270
26113SOL     OW80177   6.273   5.077   1.862
26113SOL    HW180178   6.212   5.025   1.809
26113SOL    HW280179   6.345   5.017   1.881
26114SOL     OW80180   4.949   4.535   7.573
26114SOL    HW180181   4.911   4.569   7.654
26114SOL    HW280182   4.961   4.612   7.518
26115SOL     OW80183  13.436   2.271   6.321
26115SOL    HW180184  13.376   2.245   6.251
26115SOL    HW280185  13.515   2.300   6.276
26116SOL     OW80186   1.685   0.194   5.155
26116SOL    HW180187   1.730   0.268   5.196
26116SOL    HW280188   1.598   0.228   5.132
26117SOL     OW80189   2.897   7.209   9.064
26117SOL    HW180190   2.930   7.227   9.151
26117SOL    HW280191   2.885   7.296   9.025
26118SOL     OW80192   0.469  13.293   5.709
26118SOL    HW180193   0.459  13.208   5.666
26118SOL    HW280194   0.379  13.324   5.723
26119SOL     OW80195   2.862  12.617  13.020
26119SOL    HW180196   2.828  12.640  12.933
26119SOL    HW280197   2.806  12.666  13.081
26120SOL     OW80198   7.087  12.641   9.623
26120SOL    HW180199   7.058  12.728   9.594
26120SOL    HW280200   7.104  12.594   9.542
26121SOL     OW80201  14.070  14.598  12.681
26121SOL    HW180202  14.137  14.608  12.749
26121SOL    HW280203  14.067  14.504  12.663
26122SOL     OW80204   4.122   6.568   0.766
26122SOL    HW180205   4.049   6.531   0.817
26122SOL    HW280206   4.086   6.646   0.725
26123SOL     OW80207   6.202  11.633   9.860
26123SOL    HW180208   6.263  11.696   9.898
26123SOL    HW280209   6.258  11.566   9.821
26124SOL     OW80210   1.224  11.665  10.047
26124SOL    HW180211   1.224  11.761  10.048
26124SOL    HW280212   1.311  11.642  10.014
26125SOL     OW80213   5.603  14.679   4.887
26125SOL    HW180214   5.585  14.690   4.794
26125SOL    HW280215   5.602  14.584   4.900
26126SOL     OW80216   2.572   9.730   0.569
26126SOL    HW180217   2.536   9.787   0.636
26126SOL    HW280218   2.645   9.779   0.532
26127SOL     OW80219   3.461   7.341   5.626
26127SOL    HW180220   3.549   7.338   5.663
26127SOL    HW280221   3.474   7.328   5.532
26128SOL     OW80222  14.500   4.967   0.932
26128SOL    HW180223  14.512   4.985   0.838
26128SOL    HW280224  14.437   4.895   0.934
26129SOL     OW80225  11.439   0.197  11.677
26129SOL    HW180226  11.384   0.122  11.653
26129SOL    HW280227  11.379   0.260  11.717
26130SOL     OW80228   8.306  13.655   7.051
26130SOL    HW180229   8.377  13.655   6.986
26130SOL    HW280230   8.230  13.690   7.004
26131SOL     OW80231   5.622   9.992   2.736
26131SOL    HW180232   5.584   9.937   2.805
26131SOL    HW280233   5.709   9.954   2.720
26132SOL     OW80234   3.823   7.408   3.023
26132SOL    HW180235   3.853   7.443   2.939
26132SOL    HW280236   3.872   7.327   3.034
26133SOL     OW80237  12.647  12.940  14.645
26133SOL    HW180238  12.726  12.942  14.591
26133SOL    HW280239  12.587  13.002  14.602
26134SOL     OW80240   5.414   2.201   7.679
26134SOL    HW180241   5.331   2.214   7.725
26134SOL    HW280242   5.426   2.106   7.675
26135SOL     OW80243   2.843   4.252   6.383
26135SOL    HW180244   2.762   4.300   6.369
26135SOL    HW280245   2.913   4.316   6.367
26136SOL     OW80246  10.917  13.515  14.362
26136SOL    HW180247  10.948  13.464  14.436
26136SOL    HW280248  10.828  13.542  14.386
26137SOL     OW80249   3.311  12.102   9.499
26137SOL    HW180250   3.324  12.092   9.594
26137SOL    HW280251   3.294  12.013   9.468
26138SOL     OW80252  13.007   4.852  10.141
26138SOL    HW180253  12.986   4.775  10.089
26138SOL    HW280254  12.938   4.915  10.121
26139SOL     OW80255   2.903   3.912   9.033
26139SOL    HW180256   2.817   3.954   9.031
26139SOL    HW280257   2.936   3.920   8.943
26140SOL     OW80258   3.429   4.419   2.912
26140SOL    HW180259   3.486   4.458   2.845
26140SOL    HW280260   3.422   4.486   2.980
26141SOL     OW80261  13.108   7.112  12.108
26141SOL    HW180262  13.167   7.043  12.138
26141SOL    HW280263  13.027   7.066  12.087
26142SOL     OW80264  12.660  12.004   1.411
26142SOL    HW180265  12.568  12.030   1.413
26142SOL    HW280266  12.659  11.917   1.372
26143SOL     OW80267   2.390   7.612   9.974
26143SOL    HW180268   2.345   7.691  10.005
26143SOL    HW280269   2.398   7.625   9.880
26144SOL     OW80270  13.220  10.499   6.494
26144SOL    HW180271  13.171  10.424   6.528
26144SOL    HW280272  13.181  10.575   6.538
26145SOL     OW80273  12.680   4.551  12.679
26145SOL    HW180274  12.762   4.556  12.729
26145SOL    HW280275  12.692   4.612  12.607
26146SOL     OW80276   5.230   8.565  11.726
26146SOL    HW180277   5.141   8.553  11.759
26146SOL    HW280278   5.218   8.603  11.639
26147SOL     OW80279   1.313   5.044   6.434
26147SOL    HW180280   1.408   5.053   6.428
26147SOL    HW280281   1.279   5.087   6.356
26148SOL     OW80282   3.922   0.200  12.514
26148SOL    HW180283   3.923   0.111  12.549
26148SOL    HW280284   3.980   0.249  12.573
26149SOL     OW80285   9.770   1.966   3.751
26149SOL    HW180286   9.679   1.943   3.771
26149SOL    HW280287   9.785   1.930   3.664
26150SOL     OW80288   0.321   0.806   6.194
26150SOL    HW180289   0.374   0.881   6.218
26150SOL    HW280290   0.379   0.731   6.205
26151SOL     OW80291  10.586  13.320  14.415
26151SOL    HW180292  10.538  13.287  14.339
26151SOL    HW280293  10.676  13.292  14.400
26152SOL     OW80294  13.909   5.745   7.726
26152SOL    HW180295  13.830   5.780   7.767
26152SOL    HW280296  13.876   5.685   7.659
26153SOL     OW80297   9.281   8.627   4.389
26153SOL    HW180298   9.298   8.589   4.303
26153SOL    HW280299   9.248   8.554   4.442
26154SOL     OW80300   2.264   8.964   1.389
26154SOL    HW180301   2.214   8.891   1.354
26154SOL    HW280302   2.310   8.927   1.464
26155SOL     OW80303  12.859   4.293   6.175
26155SOL    HW180304  12.814   4.225   6.124
26155SOL    HW280305  12.918   4.245   6.233
26156SOL     OW80306   7.794   0.356   9.180
26156SOL    HW180307   7.773   0.291   9.113
26156SOL    HW280308   7.709   0.386   9.212
26157SOL     OW80309   2.858  10.039  10.701
26157SOL    HW180310   2.883  10.130  10.721
26157SOL    HW280311   2.933  10.004  10.654
26158SOL     OW80312  13.671  12.209  14.437
26158SOL    HW180313  13.610  12.155  14.488
26158SOL    HW280314  13.638  12.298  14.448
26159SOL     OW80315  14.879  12.365  14.468
26159SOL    HW180316  14.824  12.429  14.423
26159SOL    HW280317  14.819  12.321  14.528
26160SOL     OW80318  11.916   2.141   0.291
26160SOL    HW180319  11.916   2.046   0.298
26160SOL    HW280320  11.915   2.159   0.197
26161SOL     OW80321  11.500   0.165   6.714
26161SOL    HW180322  11.507   0.260   6.722
26161SOL    HW280323  11.560   0.142   6.643
26162SOL     OW80324   9.944  10.812  14.544
26162SOL    HW180325  10.004  10.757  14.493
26162SOL    HW280326   9.870  10.828  14.486
26163SOL     OW80327   0.016   3.714   5.733
26163SOL    HW180328   0.064   3.796   5.746
26163SOL    HW280329   0.055   3.676   5.655
26164SOL     OW80330  14.066  12.376  13.384
26164SOL    HW180331  14.142  12.367  13.326
26164SOL    HW280332  13.992  12.386  13.324
26165SOL     OW80333   5.780   9.099   6.892
26165SOL    HW180334   5.749   9.062   6.975
26165SOL    HW280335   5.701   9.111   6.840
26166SOL     OW80336   8.736  13.474  14.660
26166SOL    HW180337   8.654  13.524  14.653
26166SOL    HW280338   8.713  13.387  14.628
26167SOL     OW80339   2.167  13.167  13.711
26167SOL    HW180340   2.113  13.104  13.664
26167SOL    HW280341   2.255  13.153  13.676
26168SOL     OW80342   8.669   2.415   7.093
26168SOL    HW180343   8.649   2.323   7.075
26168SOL    HW280344   8.659   2.458   7.008
26169SOL     OW80345  12.213   6.022   3.474
26169SOL    HW180346  12.256   5.981   3.549
26169SOL    HW280347  12.210   6.116   3.496
26170SOL     OW80348   7.960   8.783   5.404
26170SOL    HW180349   8.043   8.772   5.449
26170SOL    HW280350   7.969   8.865   5.356
26171SOL     OW80351   4.711   8.464  12.946
26171SOL    HW180352   4.804   8.474  12.926
26171SOL    HW280353   4.693   8.533  13.010
26172SOL     OW80354   2.171   5.585  13.941
26172SOL    HW180355   2.205   5.496  13.943
26172SOL    HW280356   2.149   5.600  13.849
26173SOL     OW80357  13.835  12.076   5.139
26173SOL    HW180358  13.930  12.086   5.143
26173SOL    HW280359  13.810  12.042   5.225
26174SOL     OW80360  11.765  11.620  14.185
26174SOL    HW180361  11.747  11.712  14.206
26174SOL    HW280362  11.832  11.594  14.248
26175SOL     OW80363   0.463   3.261   8.628
26175SOL    HW180364   0.437   3.204   8.700
26175SOL    HW280365   0.475   3.202   8.553
26176SOL     OW80366  12.760   0.262   0.921
26176SOL    HW180367  12.801   0.180   0.894
26176SOL    HW280368  12.792   0.327   0.858
26177SOL     OW80369  12.433   0.326   7.540
26177SOL    HW180370  12.389   0.381   7.475
26177SOL    HW280371  12.436   0.239   7.499
26178SOL     OW80372  12.101  14.277   7.461
26178SOL    HW180373  12.096  14.371   7.440
26178SOL    HW280374  12.019  14.241   7.428
26179SOL     OW80375  14.358   8.914   0.058
26179SOL    HW180376  14.333   8.846  14.878
26179SOL    HW280377  14.275   8.956   0.082
26180SOL     OW80378   2.480  12.025  13.408
26180SOL    HW180379   2.513  11.943  13.446
26180SOL    HW280380   2.438  11.998  13.326
26181SOL     OW80381   0.410   0.654   0.162
26181SOL    HW180382   0.323   0.649   0.201
26181SOL    HW280383   0.436   0.562   0.151
26182SOL     OW80384   1.928  10.865  11.116
26182SOL    HW180385   1.848  10.915  11.102
26182SOL    HW280386   1.899  10.773  11.117
26183SOL     OW80387   4.262  13.581   9.935
26183SOL    HW180388   4.167  13.593   9.933
26183SOL    HW280389   4.297  13.669   9.948
26184SOL     OW80390  13.662  13.124   2.171
26184SOL    HW180391  13.684  13.200   2.118
26184SOL    HW280392  13.699  13.142   2.257
26185SOL     OW80393   5.997   8.332   9.586
26185SOL    HW180394   5.992   8.328   9.682
26185SOL    HW280395   5.927   8.393   9.561
26186SOL     OW80396   4.059   7.764   5.064
26186SOL    HW180397   3.963   7.765   5.069
26186SOL    HW280398   4.087   7.712   5.139
26187SOL     OW80399   1.904   0.431  14.161
26187SOL    HW180400   1.866   0.405  14.245
26187SOL    HW280401   1.829   0.440  14.103
26188SOL     OW80402  12.047   3.880   3.792
26188SOL    HW180403  11.988   3.955   3.788
26188SOL    HW280404  12.072   3.865   3.701
26189SOL     OW80405   9.610   2.351   4.783
26189SOL    HW180406   9.594   2.259   4.760
26189SOL    HW280407   9.636   2.349   4.875
26190SOL     OW80408   9.542   0.053   0.552
26190SOL    HW180409   9.540   0.055   0.456
26190SOL    HW280410   9.614   0.112   0.576
26191SOL     OW80411  14.394   6.832   1.547
26191SOL    HW180412  14.456   6.897   1.514
26191SOL    HW280413  14.318   6.882   1.574
26192SOL     OW80414  10.282   9.408   4.077
26192SOL    HW180415  10.253   9.343   4.013
26192SOL    HW280416  10.242   9.490   4.047
26193SOL     OW80417   8.402   1.147   0.506
26193SOL    HW180418   8.435   1.234   0.529
26193SOL    HW280419   8.340   1.163   0.435
26194SOL     OW80420  10.224   2.316  10.252
26194SOL    HW180421  10.165   2.355  10.187
26194SOL    HW280422  10.190   2.345  10.336
26195SOL     OW80423   5.456   2.869  13.794
26195SOL    HW180424   5.533   2.812  13.789
26195SOL    HW280425   5.452   2.912  13.709
26196SOL     OW80426   5.953  11.243   8.060
26196SOL    HW180427   6.039  11.217   8.028
26196SOL    HW280428   5.946  11.199   8.145
26197SOL     OW80429   6.617  10.168  12.530
26197SOL    HW180430   6.704  10.156  12.493
26197SOL    HW280431   6.608  10.098  12.594
26198SOL     OW80432   9.579   5.742   7.922
26198SOL    HW180433   9.576   5.771   7.831
26198SOL    HW280434   9.643   5.800   7.964
26199SOL     OW80435  13.420  13.243   2.085
26199SOL    HW180436  13.460  13.230   1.999
26199SOL    HW280437  13.470  13.187   2.144
26200SOL     OW80438  14.030  12.034  12.936
26200SOL    HW180439  14.102  12.007  12.994
26200SOL    HW280440  13.977  11.955  12.926
26201SOL     OW80441   8.394   4.927   6.219
26201SOL    HW180442   8.464   4.941   6.283
26201SOL    HW280443   8.358   5.014   6.204
26202SOL     OW80444   8.428   7.950  13.233
26202SOL    HW180445   8.424   8.043  13.214
26202SOL    HW280446   8.521   7.929  13.236
26203SOL     OW80447   5.609   2.266   5.874
26203SOL    HW180448   5.626   2.260   5.967
26203SOL    HW280449   5.687   2.230   5.832
26204SOL     OW80450   4.182   3.993   7.539
26204SOL    HW180451   4.146   4.059   7.481
26204SOL    HW280452   4.277   4.009   7.537
26205SOL     OW80453  11.589   2.081  14.196
26205SOL    HW180454  11.531   2.062  14.123
26205SOL    HW280455  11.535   2.067  14.274
26206SOL     OW80456  10.440   7.241   4.054
26206SOL    HW180457  10.448   7.182   4.129
26206SOL    HW280458  10.398   7.189   3.986
26207SOL     OW80459  12.913   4.301   2.337
26207SOL    HW180460  12.973   4.375   2.343
26207SOL    HW280461  12.835   4.329   2.384
26208SOL     OW80462   3.174   5.904   1.606
26208SOL    HW180463   3.224   5.920   1.526
26208SOL    HW280464   3.104   5.968   1.604
26209SOL     OW80465   1.657  11.574  13.074
26209SOL    HW180466   1.639  11.668  13.061
26209SOL    HW280467   1.674  11.566  13.168
26210SOL     OW80468   2.128   2.105   8.854
26210SOL    HW180469   2.199   2.145   8.804
26210SOL    HW280470   2.174   2.054   8.922
26211SOL     OW80471  10.847  13.916  13.927
26211SOL    HW180472  10.814  13.893  14.014
26211SOL    HW280473  10.774  13.896  13.868
26212SOL     OW80474   3.093   7.605   5.984
26212SOL    HW180475   3.046   7.569   6.059
26212SOL    HW280476   3.177   7.559   5.984
26213SOL     OW80477   9.037   2.879   4.821
26213SOL    HW180478   9.100   2.949   4.804
26213SOL    HW280479   9.037   2.826   4.741
26214SOL     OW80480   3.506   5.048   4.920
26214SOL    HW180481   3.599   5.032   4.905
26214SOL    HW280482   3.465   4.963   4.911
26215SOL     OW80483  10.721   3.086   4.632
26215SOL    HW180484  10.762   3.171   4.620
26215SOL    HW280485  10.637   3.105   4.675
26216SOL     OW80486   2.259   4.952  12.521
26216SOL    HW180487   2.319   4.995  12.583
26216SOL    HW280488   2.295   4.864  12.511
26217SOL     OW80489   2.894  13.447  11.948
26217SOL    HW180490   2.928  13.489  11.869
26217SOL    HW280491   2.858  13.364  11.918
26218SOL     OW80492   0.728   4.796   9.109
26218SOL    HW180493   0.689   4.882   9.127
26218SOL    HW280494   0.659   4.748   9.063
26219SOL     OW80495  14.606   5.601  13.747
26219SOL    HW180496  14.688   5.553  13.742
26219SOL    HW280497  14.538   5.535  13.730
26220SOL     OW80498  12.732  11.348   2.845
26220SOL    HW180499  12.700  11.289   2.914
26220SOL    HW280500  12.703  11.307   2.763
26221SOL     OW80501   0.660   9.609   8.376
26221SOL    HW180502   0.605   9.602   8.454
26221SOL    HW280503   0.724   9.677   8.398
26222SOL     OW80504   1.325   0.054   8.133
26222SOL    HW180505   1.400   0.034   8.077
26222SOL    HW280506   1.262   0.094   8.073
26223SOL     OW80507  11.585   7.125   9.613
26223SOL    HW180508  11.621   7.051   9.663
26223SOL    HW280509  11.553   7.085   9.532
26224SOL     OW80510   1.838   5.501  11.906
26224SOL    HW180511   1.870   5.579  11.861
26224SOL    HW280512   1.768   5.532  11.963
26225SOL     OW80513   3.620  13.529   7.746
26225SOL    HW180514   3.585  13.565   7.828
26225SOL    HW280515   3.710  13.505   7.768
26226SOL     OW80516   7.799   1.128  13.574
26226SOL    HW180517   7.850   1.179  13.637
26226SOL    HW280518   7.711   1.123  13.611
26227SOL     OW80519   9.786   6.477   5.182
26227SOL    HW180520   9.749   6.512   5.263
26227SOL    HW280521   9.766   6.383   5.185
26228SOL     OW80522   1.416   6.326   9.034
26228SOL    HW180523   1.433   6.239   8.996
26228SOL    HW280524   1.455   6.387   8.971
26229SOL     OW80525   6.125  10.430   5.476
26229SOL    HW180526   6.183  10.363   5.440
26229SOL    HW280527   6.036  10.399   5.456
26230SOL     OW80528   0.476   0.392  12.564
26230SOL    HW180529   0.437   0.389  12.477
26230SOL    HW280530   0.411   0.351  12.621
26231SOL     OW80531   8.468   4.180   6.780
26231SOL    HW180532   8.476   4.095   6.737
26231SOL    HW280533   8.459   4.242   6.708
26232SOL     OW80534  14.184   2.311   3.367
26232SOL    HW180535  14.237   2.353   3.434
26232SOL    HW280536  14.096   2.309   3.403
26233SOL     OW80537  10.676   4.913   0.195
26233SOL    HW180538  10.594   4.864   0.196
26233SOL    HW280539  10.678   4.958   0.111
26234SOL     OW80540   9.811   0.147  11.541
26234SOL    HW180541   9.773   0.097  11.468
26234SOL    HW280542   9.886   0.095  11.569
26235SOL     OW80543  13.349  11.341  12.117
26235SOL    HW180544  13.427  11.297  12.150
26235SOL    HW280545  13.349  11.323  12.023
26236SOL     OW80546   8.073   7.943  10.880
26236SOL    HW180547   8.090   8.033  10.907
26236SOL    HW280548   7.978   7.939  10.869
26237SOL     OW80549   6.010  11.792   5.589
26237SOL    HW180550   6.029  11.886   5.589
26237SOL    HW280551   6.095  11.750   5.599
26238SOL     OW80552   4.867   2.164   4.210
26238SOL    HW180553   4.833   2.101   4.273
26238SOL    HW280554   4.844   2.249   4.246
26239SOL     OW80555   2.095  13.233  14.686
26239SOL    HW180556   2.180  13.251  14.645
26239SOL    HW280557   2.099  13.280  14.770
26240SOL     OW80558  14.624  12.332  12.660
26240SOL    HW180559  14.602  12.421  12.634
26240SOL    HW280560  14.719  12.327  12.649
26241SOL     OW80561   2.464   0.868   1.574
26241SOL    HW180562   2.406   0.811   1.625
26241SOL    HW280563   2.405   0.933   1.535
26242SOL     OW80564   5.966   4.572  14.309
26242SOL    HW180565   6.061   4.571  14.320
26242SOL    HW280566   5.942   4.665  14.314
26243SOL     OW80567   6.559   2.366  12.943
26243SOL    HW180568   6.652   2.363  12.919
26243SOL    HW280569   6.538   2.459  12.946
26244SOL     OW80570  13.951   6.204  13.223
26244SOL    HW180571  13.914   6.290  13.201
26244SOL    HW280572  13.971   6.164  13.139
26245SOL     OW80573  11.419  10.333   4.158
26245SOL    HW180574  11.505  10.309   4.192
26245SOL    HW280575  11.437  10.366   4.070
26246SOL     OW80576   3.724   6.669   7.833
26246SOL    HW180577   3.773   6.605   7.781
26246SOL    HW280578   3.777   6.749   7.827
26247SOL     OW80579  13.291   9.515   1.527
26247SOL    HW180580  13.272   9.478   1.441
26247SOL    HW280581  13.299   9.609   1.511
26248SOL     OW80582   5.811  10.972   9.587
26248SOL    HW180583   5.870  11.039   9.553
26248SOL    HW280584   5.820  10.977   9.682
26249SOL     OW80585   4.923   2.886  12.750
26249SOL    HW180586   5.009   2.913  12.718
26249SOL    HW280587   4.936   2.797  12.782
26250SOL     OW80588  14.246  14.056  12.061
26250SOL    HW180589  14.197  14.061  11.979
26250SOL    HW280590  14.218  14.132  12.112
26251SOL     OW80591   8.645   0.131  14.619
26251SOL    HW180592   8.575   0.078  14.658
26251SOL    HW280593   8.607   0.165  14.538
26252SOL     OW80594   9.922  13.529   1.118
26252SOL    HW180595   9.999  13.581   1.095
26252SOL    HW280596   9.916  13.536   1.214
26253SOL     OW80597   3.948   9.328   8.009
26253SOL    HW180598   3.883   9.310   8.078
26253SOL    HW280599   4.022   9.272   8.031
26254SOL     OW80600   0.929  12.415   5.539
26254SOL    HW180601   0.961  12.385   5.454
26254SOL    HW280602   0.947  12.342   5.598
26255SOL     OW80603   5.476   2.520   9.573
26255SOL    HW180604   5.483   2.425   9.582
26255SOL    HW280605   5.562   2.553   9.598
26256SOL     OW80606   2.703   3.708  14.273
26256SOL    HW180607   2.797   3.707  14.293
26256SOL    HW280608   2.684   3.618  14.247
26257SOL     OW80609   5.815   7.362   3.616
26257SOL    HW180610   5.808   7.270   3.641
26257SOL    HW280611   5.826   7.409   3.699
26258SOL     OW80612   1.912   9.807   2.537
26258SOL    HW180613   1.890   9.720   2.503
26258SOL    HW280614   1.925   9.861   2.459
26259SOL     OW80615  11.069   7.492   8.006
26259SOL    HW180616  11.050   7.552   7.934
26259SOL    HW280617  11.139   7.536   8.055
26260SOL     OW80618   4.084  14.709  10.692
26260SOL    HW180619   4.128  14.754  10.764
26260SOL    HW280620   4.017  14.770  10.662
26261SOL     OW80621   8.011   4.565  12.003
26261SOL    HW180622   8.056   4.621  12.066
26261SOL    HW280623   7.980   4.624  11.935
26262SOL     OW80624   4.409  12.676   7.901
26262SOL    HW180625   4.456  12.601   7.937
26262SOL    HW280626   4.454  12.696   7.819
26263SOL     OW80627   7.110  10.006  12.959
26263SOL    HW180628   7.154   9.992  12.876
26263SOL    HW280629   7.017  10.005  12.938
26264SOL     OW80630   9.240  13.081   1.634
26264SOL    HW180631   9.275  13.170   1.641
26264SOL    HW280632   9.316  13.024   1.649
26265SOL     OW80633   7.995  14.435   2.044
26265SOL    HW180634   8.033  14.386   2.118
26265SOL    HW280635   7.912  14.468   2.078
26266SOL     OW80636  14.106   9.231  12.014
26266SOL    HW180637  14.096   9.168  11.943
26266SOL    HW280638  14.197   9.220  12.044
26267SOL     OW80639   2.105   3.252   2.524
26267SOL    HW180640   2.183   3.195   2.527
26267SOL    HW280641   2.034   3.195   2.554
26268SOL     OW80642  11.264   3.425   2.422
26268SOL    HW180643  11.333   3.415   2.487
26268SOL    HW280644  11.201   3.356   2.442
26269SOL     OW80645   1.461  10.889   7.927
26269SOL    HW180646   1.535  10.942   7.954
26269SOL    HW280647   1.384  10.944   7.943
26270SOL     OW80648   5.437   7.766   2.883
26270SOL    HW180649   5.446   7.699   2.815
26270SOL    HW280650   5.522   7.766   2.927
26271SOL     OW80651   1.996  13.740   2.041
26271SOL    HW180652   1.953  13.766   1.960
26271SOL    HW280653   2.001  13.645   2.036
26272SOL     OW80654  10.174  13.934   7.644
26272SOL    HW180655  10.201  13.930   7.735
26272SOL    HW280656  10.129  14.018   7.636
26273SOL     OW80657   1.881   8.132   4.528
26273SOL    HW180658   1.786   8.126   4.533
26273SOL    HW280659   1.907   8.053   4.481
26274SOL     OW80660  12.889   6.667  11.732
26274SOL    HW180661  12.890   6.735  11.665
26274SOL    HW280662  12.921   6.710  11.811
26275SOL     OW80663  12.095  10.739  10.550
26275SOL    HW180664  12.051  10.824  10.559
26275SOL    HW280665  12.111  10.731  10.456
26276SOL     OW80666   1.096  13.688   9.481
26276SOL    HW180667   1.174  13.644   9.445
26276SOL    HW280668   1.128  13.733   9.558
26277SOL     OW80669   9.918   6.770   5.877
26277SOL    HW180670   9.966   6.775   5.794
26277SOL    HW280671   9.961   6.700   5.926
26278SOL     OW80672   3.707   5.481  10.741
26278SOL    HW180673   3.707   5.507  10.834
26278SOL    HW280674   3.789   5.515  10.707
26279SOL     OW80675   4.134  11.948  12.678
26279SOL    HW180676   4.108  11.953  12.770
26279SOL    HW280677   4.207  11.887  12.677
26280SOL     OW80678   5.014   7.268   7.871
26280SOL    HW180679   4.967   7.202   7.921
26280SOL    HW280680   4.949   7.335   7.850
26281SOL     OW80681   8.953   1.805   7.702
26281SOL    HW180682   8.877   1.847   7.662
26281SOL    HW280683   9.016   1.795   7.631
26282SOL     OW80684   0.280   7.932   5.174
26282SOL    HW180685   0.194   7.924   5.132
26282SOL    HW280686   0.315   7.843   5.175
26283SOL     OW80687  13.790  12.413  11.921
26283SOL    HW180688  13.774  12.319  11.917
26283SOL    HW280689  13.876  12.422  11.961
26284SOL     OW80690   8.353   2.133   8.869
26284SOL    HW180691   8.448   2.134   8.884
26284SOL    HW280692   8.340   2.060   8.808
26285SOL     OW80693   2.570  12.707  13.313
26285SOL    HW180694   2.604  12.793  13.336
26285SOL    HW280695   2.517  12.682  13.388
26286SOL     OW80696   0.498  14.878   0.018
26286SOL    HW180697   0.520  14.876  14.807
26286SOL    HW280698   0.442  14.801   0.032
26287SOL     OW80699  11.976  13.219   6.805
26287SOL    HW180700  11.885  13.236   6.829
26287SOL    HW280701  11.993  13.130   6.837
26288SOL     OW80702   0.037   9.514  13.603
26288SOL    HW180703   0.035   9.601  13.564
26288SOL    HW280704  14.837   9.472  13.573
26289SOL     OW80705   7.889   7.972   4.223
26289SOL    HW180706   7.861   7.881   4.235
26289SOL    HW280707   7.867   7.992   4.132
26290SOL     OW80708  14.338   7.977   3.971
26290SOL    HW180709  14.296   8.054   4.008
26290SOL    HW280710  14.399   8.012   3.905
26291SOL     OW80711   2.249  14.837   0.686
26291SOL    HW180712   2.258  14.759   0.742
26291SOL    HW280713   2.319  14.828   0.621
26292SOL     OW80714   6.808  13.698   2.530
26292SOL    HW180715   6.806  13.746   2.612
26292SOL    HW280716   6.831  13.763   2.464
26293SOL     OW80717   0.951  12.571  13.141
26293SOL    HW180718   0.970  12.644  13.081
26293SOL    HW280719   1.012  12.585  13.214
26294SOL     OW80720   7.251   1.497   8.575
26294SOL    HW180721   7.238   1.592   8.579
26294SOL    HW280722   7.285   1.473   8.661
26295SOL     OW80723   5.459   5.392   1.065
26295SOL    HW180724   5.468   5.323   0.999
26295SOL    HW280725   5.391   5.359   1.123
26296SOL     OW80726   7.258   5.867   6.249
26296SOL    HW180727   7.319   5.804   6.211
26296SOL    HW280728   7.199   5.815   6.303
26297SOL     OW80729  13.199   7.365   7.548
26297SOL    HW180730  13.256   7.431   7.509
26297SOL    HW280731  13.111   7.387   7.516
26298SOL     OW80732   5.549  13.622   8.219
26298SOL    HW180733   5.584  13.566   8.150
26298SOL    HW280734   5.594  13.706   8.207
26299SOL     OW80735   2.140   5.953   4.433
26299SOL    HW180736   2.169   5.889   4.368
26299SOL    HW280737   2.057   5.986   4.399
26300SOL     OW80738  14.838  12.467   7.094
26300SOL    HW180739  14.811  12.559   7.094
26300SOL    HW280740  14.817  12.436   7.182
26301SOL     OW80741  10.018   1.647  14.412
26301SOL    HW180742  10.058   1.567  14.447
26301SOL    HW280743   9.928   1.645  14.446
26302SOL     OW80744   4.144  12.943   4.519
26302SOL    HW180745   4.174  12.934   4.429
26302SOL    HW280746   4.168  12.860   4.561
26303SOL     OW80747   3.866   3.461   8.040
26303SOL    HW180748   3.794   3.445   8.101
26303SOL    HW280749   3.823   3.484   7.958
26304SOL     OW80750   5.895   1.625   7.630
26304SOL    HW180751   5.928   1.643   7.718
26304SOL    HW280752   5.953   1.556   7.596
26305SOL     OW80753  10.317   1.454  13.789
26305SOL    HW180754  10.263   1.503  13.850
26305SOL    HW280755  10.392   1.426  13.840
26306SOL     OW80756   9.712  13.547   6.843
26306SOL    HW180757   9.751  13.489   6.778
26306SOL    HW280758   9.625  13.511   6.859
26307SOL     OW80759   1.051  11.232   4.639
26307SOL    HW180760   1.092  11.152   4.606
26307SOL    HW280761   1.016  11.208   4.725
26308SOL     OW80762   9.831   7.240  12.037
26308SOL    HW180763   9.849   7.314  11.980
26308SOL    HW280764   9.745   7.259  12.075
26309SOL     OW80765   1.282  10.681   5.202
26309SOL    HW180766   1.308  10.748   5.140
26309SOL    HW280767   1.186  10.679   5.196
26310SOL     OW80768   7.077   9.138   9.551
26310SOL    HW180769   7.138   9.124   9.623
26310SOL    HW280770   6.991   9.119   9.589
26311SOL     OW80771   4.622  13.769  14.701
26311SOL    HW180772   4.627  13.864  14.712
26311SOL    HW280773   4.710  13.742  14.677
26312SOL     OW80774   1.620   5.289  14.685
26312SOL    HW180775   1.614   5.196  14.709
26312SOL    HW280776   1.643   5.334  14.766
26313SOL     OW80777  12.406   9.344   7.621
26313SOL    HW180778  12.443   9.291   7.691
26313SOL    HW280779  12.420   9.292   7.541
26314SOL     OW80780  10.711   4.840   0.795
26314SOL    HW180781  10.770   4.911   0.821
26314SOL    HW280782  10.732   4.769   0.855
26315SOL     OW80783   2.537   7.821  14.751
26315SOL    HW180784   2.558   7.728  14.757
26315SOL    HW280785   2.602   7.857  14.690
26316SOL     OW80786   0.588  12.303  12.277
26316SOL    HW180787   0.659  12.247  12.310
26316SOL    HW280788   0.563  12.357  12.352
26317SOL     OW80789   3.236   2.601  11.832
26317SOL    HW180790   3.153   2.580  11.788
26317SOL    HW280791   3.298   2.537  11.798
26318SOL     OW80792   1.041   8.751  14.560
26318SOL    HW180793   1.033   8.781  14.650
26318SOL    HW280794   1.100   8.814  14.519
26319SOL     OW80795   3.942  11.357   3.662
26319SOL    HW180796   3.918  11.270   3.694
26319SOL    HW280797   3.897  11.418   3.721
26320SOL     OW80798  13.230   4.849   0.858
26320SOL    HW180799  13.238   4.909   0.784
26320SOL    HW280800  13.299   4.784   0.843
26321SOL     OW80801   7.213   6.646  13.664
26321SOL    HW180802   7.136   6.590  13.668
26321SOL    HW280803   7.217   6.675  13.573
26322SOL     OW80804  14.266   3.211   1.362
26322SOL    HW180805  14.341   3.185   1.308
26322SOL    HW280806  14.191   3.202   1.303
26323SOL     OW80807   6.564  13.706   0.790
26323SOL    HW180808   6.482  13.727   0.835
26323SOL    HW280809   6.630  13.709   0.859
26324SOL     OW80810  12.402   0.184   6.141
26324SOL    HW180811  12.309   0.179   6.163
26324SOL    HW280812  12.435   0.095   6.156
26325SOL     OW80813   8.180   9.193  10.235
26325SOL    HW180814   8.147   9.117  10.283
26325SOL    HW280815   8.157   9.176  10.143
26326SOL     OW80816   3.030   5.154  10.978
26326SOL    HW180817   2.991   5.241  10.987
26326SOL    HW280818   3.018   5.132  10.885
26327SOL     OW80819   0.342   7.063  12.792
26327SOL    HW180820   0.289   7.052  12.871
26327SOL    HW280821   0.432   7.051  12.823
26328SOL     OW80822  11.087   5.679   9.403
26328SOL    HW180823  11.045   5.746   9.457
26328SOL    HW280824  11.176   5.712   9.389
26329SOL     OW80825   1.318   6.509   7.482
26329SOL    HW180826   1.279   6.439   7.534
26329SOL    HW280827   1.330   6.470   7.395
26330SOL     OW80828   6.769   9.958   5.215
26330SOL    HW180829   6.759   9.869   5.181
26330SOL    HW280830   6.864   9.970   5.222
26331SOL     OW80831   5.498  11.529   9.779
26331SOL    HW180832   5.474  11.464   9.845
26331SOL    HW280833   5.553  11.481   9.717
26332SOL     OW80834  14.101   7.852  13.637
26332SOL    HW180835  14.020   7.849  13.688
26332SOL    HW280836  14.133   7.942  13.646
26333SOL     OW80837   0.033   8.405  12.225
26333SOL    HW180838   0.047   8.362  12.310
26333SOL    HW280839   0.017   8.333  12.164
26334SOL     OW80840   5.853   3.183   4.931
26334SOL    HW180841   5.936   3.214   4.894
26334SOL    HW280842   5.787   3.239   4.891
26335SOL     OW80843  14.738  13.738   0.908
26335SOL    HW180844  14.667  13.718   0.846
26335SOL    HW280845  14.812  13.686   0.878
26336SOL     OW80846   1.821  11.554  13.973
26336SOL    HW180847   1.732  11.578  14.000
26336SOL    HW280848   1.812  11.465  13.938
26337SOL     OW80849   1.914  11.809   3.699
26337SOL    HW180850   1.895  11.760   3.779
26337SOL    HW280851   1.838  11.795   3.643
26338SOL     OW80852   6.437  11.908  14.653
26338SOL    HW180853   6.493  11.895  14.729
26338SOL    HW280854   6.477  11.853  14.585
26339SOL     OW80855  13.919  12.767   2.345
26339SOL    HW180856  13.845  12.788   2.287
26339SOL    HW280857  13.970  12.848   2.347
26340SOL     OW80858   1.306   2.396   0.513
26340SOL    HW180859   1.282   2.474   0.563
26340SOL    HW280860   1.267   2.411   0.426
26341SOL     OW80861  13.918  11.025   7.430
26341SOL    HW180862  13.911  10.957   7.363
26341SOL    HW280863  13.891  10.982   7.511
26342SOL     OW80864   8.861   3.225   6.087
26342SOL    HW180865   8.777   3.198   6.051
26342SOL    HW280866   8.881   3.308   6.044
26343SOL     OW80867   7.689  10.149  11.861
26343SOL    HW180868   7.762  10.105  11.819
26343SOL    HW280869   7.721  10.169  11.949
26344SOL     OW80870   5.070   2.776  11.894
26344SOL    HW180871   5.060   2.866  11.924
26344SOL    HW280872   5.004   2.767  11.825
26345SOL     OW80873  12.405   3.828  13.293
26345SOL    HW180874  12.368   3.828  13.381
26345SOL    HW280875  12.331   3.804  13.236
26346SOL     OW80876   7.463   3.142  13.421
26346SOL    HW180877   7.434   3.223  13.463
26346SOL    HW280878   7.381   3.097  13.398
26347SOL     OW80879   2.437   3.791   1.984
26347SOL    HW180880   2.403   3.867   2.032
26347SOL    HW280881   2.484   3.740   2.051
26348SOL     OW80882   8.566   9.575   0.881
26348SOL    HW180883   8.482   9.543   0.911
26348SOL    HW280884   8.547   9.662   0.845
26349SOL     OW80885   0.766  12.912   0.595
26349SOL    HW180886   0.752  12.844   0.528
26349SOL    HW280887   0.834  12.876   0.652
26350SOL     OW80888   0.493   6.051   7.159
26350SOL    HW180889   0.413   6.049   7.107
26350SOL    HW280890   0.559   6.010   7.104
26351SOL     OW80891  12.599   3.163  10.814
26351SOL    HW180892  12.546   3.243  10.809
26351SOL    HW280893  12.607   3.145  10.908
26352SOL     OW80894   0.579   2.386   7.372
26352SOL    HW180895   0.524   2.347   7.440
26352SOL    HW280896   0.660   2.334   7.375
26353SOL     OW80897   4.849   2.857   5.675
26353SOL    HW180898   4.921   2.904   5.632
26353SOL    HW280899   4.825   2.789   5.613
26354SOL     OW80900   1.672   3.086   5.187
26354SOL    HW180901   1.605   3.033   5.144
26354SOL    HW280902   1.733   3.021   5.223
26355SOL     OW80903  10.700  11.039   4.071
26355SOL    HW180904  10.732  11.127   4.049
26355SOL    HW280905  10.659  11.008   3.990
26356SOL     OW80906   2.386   0.388  11.744
26356SOL    HW180907   2.468   0.405  11.697
26356SOL    HW280908   2.367   0.470  11.790
26357SOL     OW80909   6.085   8.487   0.507
26357SOL    HW180910   6.108   8.571   0.468
26357SOL    HW280911   6.022   8.509   0.575
26358SOL     OW80912   5.646   5.184  11.863
26358SOL    HW180913   5.615   5.271  11.836
26358SOL    HW280914   5.691   5.200  11.946
26359SOL     OW80915   6.541   9.653   6.746
26359SOL    HW180916   6.503   9.739   6.730
26359SOL    HW280917   6.494   9.621   6.824
26360SOL     OW80918   0.581   1.855  12.876
26360SOL    HW180919   0.614   1.943  12.857
26360SOL    HW280920   0.506   1.869  12.934
26361SOL     OW80921  13.273   9.888  11.610
26361SOL    HW180922  13.277   9.867  11.517
26361SOL    HW280923  13.339   9.957  11.623
26362SOL     OW80924   0.426   1.678   5.277
26362SOL    HW180925   0.360   1.649   5.340
26362SOL    HW280926   0.444   1.769   5.302
26363SOL     OW80927   1.988  13.286  10.113
26363SOL    HW180928   2.072  13.241  10.109
26363SOL    HW280929   1.945  13.264  10.030
26364SOL     OW80930   2.161   0.880   2.554
26364SOL    HW180931   2.127   0.955   2.604
26364SOL    HW280932   2.118   0.804   2.592
26365SOL     OW80933  13.604   6.247   7.406
26365SOL    HW180934  13.621   6.308   7.478
26365SOL    HW280935  13.597   6.162   7.448
26366SOL     OW80936   7.607  11.021   7.182
26366SOL    HW180937   7.645  10.952   7.127
26366SOL    HW280938   7.681  11.057   7.231
26367SOL     OW80939   6.871   0.112   9.148
26367SOL    HW180940   6.842   0.045   9.087
26367SOL    HW280941   6.907   0.181   9.092
26368SOL     OW80942   5.513   6.663   4.162
26368SOL    HW180943   5.527   6.570   4.175
26368SOL    HW280944   5.451   6.688   4.231
26369SOL     OW80945   5.916   0.324   1.261
26369SOL    HW180946   5.853   0.257   1.235
26369SOL    HW280947   5.980   0.325   1.189
26370SOL     OW80948   0.280  11.430   7.117
26370SOL    HW180949   0.241  11.394   7.038
26370SOL    HW280950   0.205  11.450   7.173
26371SOL     OW80951   5.426   3.486   5.118
26371SOL    HW180952   5.370   3.427   5.169
26371SOL    HW280953   5.405   3.573   5.152
26372SOL     OW80954  10.565   4.036   9.431
26372SOL    HW180955  10.473   4.015   9.445
26372SOL    HW280956  10.568   4.073   9.343
26373SOL     OW80957   8.841   0.378   3.852
26373SOL    HW180958   8.875   0.453   3.901
26373SOL    HW280959   8.871   0.392   3.762
26374SOL     OW80960  14.100  12.966  13.259
26374SOL    HW180961  14.169  13.030  13.276
26374SOL    HW280962  14.041  13.010  13.198
26375SOL     OW80963  13.764   4.985   7.119
26375SOL    HW180964  13.827   4.926   7.078
26375SOL    HW280965  13.750   4.949   7.206
26376SOL     OW80966   3.497  14.768   1.872
26376SOL    HW180967   3.518  14.739   1.960
26376SOL    HW280968   3.515  14.692   1.817
26377SOL     OW80969   4.921   7.194  10.316
26377SOL    HW180970   4.872   7.208  10.397
26377SOL    HW280971   5.013   7.194  10.343
26378SOL     OW80972  12.141   0.216  13.580
26378SOL    HW180973  12.053   0.232  13.547
26378SOL    HW280974  12.154   0.283  13.647
26379SOL     OW80975  14.741   4.891   2.042
26379SOL    HW180976  14.778   4.979   2.043
26379SOL    HW280977  14.714   4.877   1.951
26380SOL     OW80978   1.169   9.251  12.399
26380SOL    HW180979   1.123   9.299  12.468
26380SOL    HW280980   1.185   9.316  12.331
26381SOL     OW80981  13.076  11.661   7.472
26381SOL    HW180982  13.030  11.745   7.470
26381SOL    HW280983  13.007  11.597   7.491
26382SOL     OW80984  14.409   0.578   3.119
26382SOL    HW180985  14.478   0.635   3.084
26382SOL    HW280986  14.456   0.499   3.148
26383SOL     OW80987   9.625   3.649   1.490
26383SOL    HW180988   9.627   3.670   1.396
26383SOL    HW280989   9.608   3.555   1.492
26384SOL     OW80990  14.753   1.122  11.862
26384SOL    HW180991  14.790   1.210  11.869
26384SOL    HW280992  14.804   1.069  11.924
26385SOL     OW80993   0.613   5.686   1.347
26385SOL    HW180994   0.603   5.747   1.274
26385SOL    HW280995   0.692   5.716   1.392
26386SOL     OW80996   8.638  10.788   8.278
26386SOL    HW180997   8.665  10.753   8.363
26386SOL    HW280998   8.719  10.812   8.235
26387SOL     OW80999   5.684   0.071   9.305
26387SOL    HW181000   5.610   0.081   9.364
26387SOL    HW281001   5.662  14.878   9.250
26388SOL     OW81002   1.501  10.104   2.813
26388SOL    HW181003   1.444  10.075   2.884
26388SOL    HW281004   1.554  10.174   2.852
26389SOL     OW81005   8.481   4.909   7.404
26389SOL    HW181006   8.428   4.893   7.326
26389SOL    HW281007   8.491   4.823   7.444
26390SOL     OW81008   4.049  11.098   4.126
26390SOL    HW181009   3.967  11.106   4.077
26390SOL    HW281010   4.059  11.183   4.170
26391SOL     OW81011   3.457   6.437  11.659
26391SOL    HW181012   3.448   6.393  11.743
26391SOL    HW281013   3.405   6.384  11.599
26392SOL     OW81014   6.555   0.802   8.239
26392SOL    HW181015   6.506   0.796   8.321
26392SOL    HW281016   6.524   0.728   8.188
26393SOL     OW81017   1.102   0.427  12.281
26393SOL    HW181018   1.013   0.397  12.298
26393SOL    HW281019   1.156   0.373  12.339
26394SOL     OW81020   3.964   0.290  10.597
26394SOL    HW181021   3.995   0.327  10.514
26394SOL    HW281022   3.948   0.365  10.653
26395SOL     OW81023  14.320   7.683  12.250
26395SOL    HW181024  14.253   7.746  12.223
26395SOL    HW281025  14.331   7.625  12.174
26396SOL     OW81026  14.340  11.986   4.741
26396SOL    HW181027  14.306  11.929   4.672
26396SOL    HW281028  14.318  12.074   4.712
26397SOL     OW81029   1.502   0.180  13.977
26397SOL    HW181030   1.578   0.123  13.992
26397SOL    HW281031   1.434   0.120  13.945
26398SOL     OW81032   1.122   1.748   6.345
26398SOL    HW181033   1.078   1.713   6.267
26398SOL    HW281034   1.203   1.698   6.351
26399SOL     OW81035   8.872   5.232   5.500
26399SOL    HW181036   8.866   5.327   5.487
26399SOL    HW281037   8.798   5.210   5.557
26400SOL     OW81038   7.052   2.195   5.659
26400SOL    HW181039   7.051   2.113   5.710
26400SOL    HW281040   6.966   2.199   5.619
26401SOL     OW81041   4.215   0.787   2.800
26401SOL    HW181042   4.228   0.870   2.754
26401SOL    HW281043   4.210   0.811   2.892
26402SOL     OW81044  11.353  12.390   5.758
26402SOL    HW181045  11.322  12.317   5.812
26402SOL    HW281046  11.441  12.365   5.731
26403SOL     OW81047   7.832   6.555   2.745
26403SOL    HW181048   7.811   6.560   2.839
26403SOL    HW281049   7.907   6.496   2.741
26404SOL     OW81050  10.265   5.894   4.785
26404SOL    HW181051  10.242   5.914   4.876
26404SOL    HW281052  10.251   5.977   4.739
26405SOL     OW81053   6.928   0.942   8.836
26405SOL    HW181054   6.995   0.964   8.901
26405SOL    HW281055   6.968   0.873   8.783
26406SOL     OW81056   2.406   5.960   5.612
26406SOL    HW181057   2.429   6.051   5.633
26406SOL    HW281058   2.343   5.935   5.680
26407SOL     OW81059   7.050   8.166   8.983
26407SOL    HW181060   6.985   8.185   9.051
26407SOL    HW281061   7.113   8.109   9.026
26408SOL     OW81062   4.165   8.380   4.478
26408SOL    HW181063   4.122   8.420   4.403
26408SOL    HW281064   4.161   8.447   4.547
26409SOL     OW81065  13.296  11.280   8.016
26409SOL    HW181066  13.375  11.231   7.994
26409SOL    HW281067  13.240  11.270   7.940
26410SOL     OW81068   2.546  13.964   1.145
26410SOL    HW181069   2.455  13.958   1.175
26410SOL    HW281070   2.592  14.006   1.219
26411SOL     OW81071  12.083  13.950   2.457
26411SOL    HW181072  12.096  13.928   2.364
26411SOL    HW281073  12.045  14.037   2.455
26412SOL     OW81074  12.835   3.937   4.571
26412SOL    HW181075  12.891   3.872   4.529
26412SOL    HW281076  12.775   3.885   4.624
26413SOL     OW81077  11.948   8.434   6.577
26413SOL    HW181078  11.931   8.341   6.561
26413SOL    HW281079  11.963   8.471   6.491
26414SOL     OW81080   4.521  11.756  12.515
26414SOL    HW181081   4.507  11.851  12.510
26414SOL    HW281082   4.451  11.724  12.572
26415SOL     OW81083   0.792   7.648   8.525
26415SOL    HW181084   0.877   7.635   8.484
26415SOL    HW281085   0.730   7.604   8.467
26416SOL     OW81086   4.636   3.982  12.301
26416SOL    HW181087   4.691   4.016  12.230
26416SOL    HW281088   4.554   3.958  12.260
26417SOL     OW81089   6.037  14.057   0.138
26417SOL    HW181090   6.009  14.090   0.053
26417SOL    HW281091   5.958  14.056   0.191
26418SOL     OW81092  11.062   9.494   3.120
26418SOL    HW181093  11.066   9.500   3.216
26418SOL    HW281094  11.121   9.422   3.099
26419SOL     OW81095  10.003   8.920   4.422
26419SOL    HW181096   9.972   8.837   4.386
26419SOL    HW281097   9.961   8.927   4.507
26420SOL     OW81098   4.936   2.092   8.970
26420SOL    HW181099   4.915   2.122   8.882
26420SOL    HW281100   5.007   2.029   8.957
26421SOL     OW81101  13.113   5.091   7.617
26421SOL    HW181102  13.164   5.013   7.595
26421SOL    HW281103  13.088   5.078   7.708
26422SOL     OW81104  13.057  10.604  12.841
26422SOL    HW181105  13.079  10.621  12.749
26422SOL    HW281106  13.093  10.517  12.859
26423SOL     OW81107   6.503  10.333   8.738
26423SOL    HW181108   6.461  10.415   8.764
26423SOL    HW281109   6.538  10.297   8.819
26424SOL     OW81110   4.253   0.158  10.990
26424SOL    HW181111   4.186   0.180  11.055
26424SOL    HW281112   4.299   0.083  11.028
26425SOL     OW81113   6.397  12.813   0.906
26425SOL    HW181114   6.429  12.739   0.856
26425SOL    HW281115   6.353  12.869   0.842
26426SOL     OW81116   0.025  10.571   0.228
26426SOL    HW181117   0.026  10.558   0.323
26426SOL    HW281118   0.034  10.665   0.217
26427SOL     OW81119   5.748  12.308  13.968
26427SOL    HW181120   5.790  12.237  13.921
26427SOL    HW281121   5.666  12.271  14.001
26428SOL     OW81122   4.260  13.504  13.129
26428SOL    HW181123   4.300  13.586  13.157
26428SOL    HW281124   4.168  13.511  13.155
26429SOL     OW81125  11.542   9.797   9.392
26429SOL    HW181126  11.480   9.729   9.367
26429SOL    HW281127  11.581   9.826   9.309
26430SOL     OW81128   1.005   5.815  12.979
26430SOL    HW181129   1.032   5.888  12.923
26430SOL    HW281130   1.056   5.825  13.059
26431SOL     OW81131  11.543  11.352   4.912
26431SOL    HW181132  11.487  11.419   4.951
26431SOL    HW281133  11.559  11.290   4.983
26432SOL     OW81134   8.182   4.541  14.550
26432SOL    HW181135   8.183   4.599  14.474
26432SOL    HW281136   8.114   4.476  14.529
26433SOL     OW81137  13.846  13.163   2.377
26433SOL    HW181138  13.932  13.122   2.385
26433SOL    HW281139  13.829  13.200   2.463
26434SOL     OW81140   2.963  13.914  10.937
26434SOL    HW181141   2.976  14.009  10.941
26434SOL    HW281142   2.875  13.904  10.900
26435SOL     OW81143   6.915  12.817   3.886
26435SOL    HW181144   7.009  12.803   3.873
26435SOL    HW281145   6.889  12.750   3.949
26436SOL     OW81146  13.951   5.978   5.699
26436SOL    HW181147  14.005   5.987   5.778
26436SOL    HW281148  13.994   6.035   5.635
26437SOL     OW81149  11.749   3.035  10.611
26437SOL    HW181150  11.761   2.988  10.528
26437SOL    HW281151  11.654   3.034  10.625
26438SOL     OW81152   1.294  10.022   1.079
26438SOL    HW181153   1.333  10.075   1.010
26438SOL    HW281154   1.218  10.073   1.109
26439SOL     OW81155   2.583   3.292   1.857
26439SOL    HW181156   2.612   3.312   1.946
26439SOL    HW281157   2.663   3.279   1.808
26440SOL     OW81158   8.176  14.022   3.432
26440SOL    HW181159   8.267  13.994   3.424
26440SOL    HW281160   8.126  13.941   3.428
26441SOL     OW81161   4.173   5.422  13.433
26441SOL    HW181162   4.240   5.490  13.429
26441SOL    HW281163   4.095   5.461  13.393
26442SOL     OW81164   8.009  14.516  10.893
26442SOL    HW181165   8.097  14.544  10.869
26442SOL    HW281166   8.006  14.424  10.868
26443SOL     OW81167   5.573   7.150  11.992
26443SOL    HW181168   5.559   7.243  11.972
26443SOL    HW281169   5.486   7.112  11.992
26444SOL     OW81170   7.869   2.963  14.853
26444SOL    HW181171   7.808   2.998  14.788
26444SOL    HW281172   7.848   2.870  14.858
26445SOL     OW81173   6.151   0.359   5.948
26445SOL    HW181174   6.175   0.282   6.000
26445SOL    HW281175   6.180   0.337   5.860
26446SOL     OW81176  12.658  13.654  14.565
26446SOL    HW181177  12.600  13.658  14.640
26446SOL    HW281178  12.746  13.655  14.603
26447SOL     OW81179   9.231  11.392  11.769
26447SOL    HW181180   9.230  11.428  11.681
26447SOL    HW281181   9.273  11.307  11.760
26448SOL     OW81182   1.501   1.301  12.743
26448SOL    HW181183   1.550   1.242  12.800
26448SOL    HW281184   1.469   1.246  12.672
26449SOL     OW81185   6.964  12.573   9.186
26449SOL    HW181186   7.027  12.508   9.153
26449SOL    HW281187   7.008  12.612   9.261
26450SOL     OW81188   4.483   6.895  14.687
26450SOL    HW181189   4.463   6.905  14.780
26450SOL    HW281190   4.464   6.803  14.668
26451SOL     OW81191  13.570   4.429   6.574
26451SOL    HW181192  13.497   4.468   6.622
26451SOL    HW281193  13.590   4.348   6.622
26452SOL     OW81194  13.426  10.716   6.839
26452SOL    HW181195  13.440  10.785   6.775
26452SOL    HW281196  13.338  10.732   6.873
26453SOL     OW81197   7.939   4.939   3.254
26453SOL    HW181198   7.894   5.012   3.213
26453SOL    HW281199   7.932   4.954   3.348
26454SOL     OW81200   6.843  14.857   5.600
26454SOL    HW181201   6.816   0.065   5.619
26454SOL    HW281202   6.870  14.821   5.684
26455SOL     OW81203  10.093   6.028  11.567
26455SOL    HW181204  10.161   6.025  11.500
26455SOL    HW281205  10.014   5.999  11.522
26456SOL     OW81206   2.810   1.525   0.106
26456SOL    HW181207   2.814   1.513   0.011
26456SOL    HW281208   2.720   1.504   0.129
26457SOL     OW81209  12.641   4.096   2.102
26457SOL    HW181210  12.590   4.015   2.102
26457SOL    HW281211  12.593   4.155   2.161
26458SOL     OW81212  11.836   9.768   2.754
26458SOL    HW181213  11.816   9.813   2.672
26458SOL    HW281214  11.815   9.676   2.737
26459SOL     OW81215   6.371   2.429   3.152
26459SOL    HW181216   6.352   2.434   3.059
26459SOL    HW281217   6.289   2.400   3.192
26460SOL     OW81218   4.055  14.292   8.296
26460SOL    HW181219   4.059  14.362   8.232
26460SOL    HW281220   4.120  14.315   8.362
26461SOL     OW81221   7.623   5.567  13.953
26461SOL    HW181222   7.534   5.547  13.924
26461SOL    HW281223   7.614   5.595  14.044
26462SOL     OW81224  10.206   0.436   3.866
26462SOL    HW181225  10.219   0.510   3.807
26462SOL    HW281226  10.193   0.361   3.807
26463SOL     OW81227  14.710  13.046   6.324
26463SOL    HW181228  14.666  13.116   6.372
26463SOL    HW281229  14.673  13.051   6.236
26464SOL     OW81230  13.911   3.984  12.157
26464SOL    HW181231  13.842   3.930  12.196
26464SOL    HW281232  13.992   3.946  12.190
26465SOL     OW81233   0.898  14.338   9.540
26465SOL    HW181234   0.936  14.423   9.563
26465SOL    HW281235   0.940  14.314   9.457
26466SOL     OW81236  12.167   5.267   0.924
26466SOL    HW181237  12.128   5.192   0.969
26466SOL    HW281238  12.222   5.309   0.990
26467SOL     OW81239   0.594  14.280   6.298
26467SOL    HW181240   0.504  14.249   6.307
26467SOL    HW281241   0.612  14.326   6.379
26468SOL     OW81242  13.061   3.727   1.672
26468SOL    HW181243  13.063   3.809   1.721
26468SOL    HW281244  13.022   3.751   1.588
26469SOL     OW81245   6.628   0.339  10.893
26469SOL    HW181246   6.692   0.270  10.875
26469SOL    HW281247   6.674   0.400  10.951
26470SOL     OW81248   7.705  10.585  10.626
26470SOL    HW181249   7.764  10.522  10.585
26470SOL    HW281250   7.629  10.532  10.652
26471SOL     OW81251   0.076  13.555   4.914
26471SOL    HW181252   0.110  13.632   4.868
26471SOL    HW281253   0.154  13.507   4.941
26472SOL     OW81254  14.881   8.890  13.546
26472SOL    HW181255   0.019   8.799  13.522
26472SOL    HW281256   0.002   8.890  13.642
26473SOL     OW81257   0.534  10.941   5.578
26473SOL    HW181258   0.555  10.987   5.497
26473SOL    HW281259   0.581  10.858   5.571
26474SOL     OW81260  10.852   2.338   0.217
26474SOL    HW181261  10.818   2.317   0.303
26474SOL    HW281262  10.817   2.425   0.198
26475SOL     OW81263   0.521  12.183   0.326
26475SOL    HW181264   0.464  12.237   0.272
26475SOL    HW281265   0.554  12.241   0.394
26476SOL     OW81266   3.644   0.099   2.877
26476SOL    HW181267   3.572   0.036   2.871
26476SOL    HW281268   3.654   0.116   2.970
26477SOL     OW81269   9.652   6.102   5.466
26477SOL    HW181270   9.668   6.078   5.375
26477SOL    HW281271   9.597   6.031   5.501
26478SOL     OW81272   3.690  13.607  11.869
26478SOL    HW181273   3.750  13.621  11.942
26478SOL    HW281274   3.727  13.533  11.821
26479SOL     OW81275   7.309   5.383   6.087
26479SOL    HW181276   7.386   5.333   6.060
26479SOL    HW281277   7.235   5.324   6.071
26480SOL     OW81278  11.386   3.123   3.816
26480SOL    HW181279  11.301   3.169   3.820
26480SOL    HW281280  11.432   3.164   3.742
26481SOL     OW81281   3.292   4.379   0.859
26481SOL    HW181282   3.233   4.397   0.933
26481SOL    HW281283   3.234   4.362   0.786
26482SOL     OW81284   4.100   2.229  12.385
26482SOL    HW181285   4.105   2.213  12.291
26482SOL    HW281286   4.154   2.161  12.424
26483SOL     OW81287   2.000  11.706   6.838
26483SOL    HW181288   2.003  11.771   6.768
26483SOL    HW281289   2.059  11.637   6.810
26484SOL     OW81290  13.719  11.771  10.823
26484SOL    HW181291  13.659  11.697  10.812
26484SOL    HW281292  13.800  11.732  10.856
26485SOL     OW81293   8.826   5.318  14.398
26485SOL    HW181294   8.888   5.391  14.402
26485SOL    HW281295   8.816   5.301  14.304
26486SOL     OW81296   4.108   2.063  13.273
26486SOL    HW181297   4.168   2.135  13.249
26486SOL    HW281298   4.076   2.087  13.360
26487SOL     OW81299   7.303   1.802   6.905
26487SOL    HW181300   7.209   1.815   6.916
26487SOL    HW281301   7.341   1.834   6.987
26488SOL     OW81302  13.843   6.731   9.737
26488SOL    HW181303  13.925   6.682   9.734
26488SOL    HW281304  13.850   6.786   9.815
26489SOL     OW81305   7.843   1.811  13.109
26489SOL    HW181306   7.894   1.881  13.068
26489SOL    HW281307   7.756   1.819  13.069
26490SOL     OW81308   3.049   1.510   0.248
26490SOL    HW181309   3.106   1.551   0.182
26490SOL    HW281310   2.962   1.515   0.209
26491SOL     OW81311   9.689   9.449  11.303
26491SOL    HW181312   9.754   9.489  11.360
26491SOL    HW281313   9.624   9.411  11.362
26492SOL     OW81314   8.809   9.677  12.498
26492SOL    HW181315   8.843   9.619  12.430
26492SOL    HW281316   8.809   9.764  12.458
26493SOL     OW81317   6.708  14.091  12.064
26493SOL    HW181318   6.716  14.006  12.021
26493SOL    HW281319   6.614  14.108  12.065
26494SOL     OW81320   8.892   3.042   7.483
26494SOL    HW181321   8.838   2.964   7.474
26494SOL    HW281322   8.881   3.088   7.399
26495SOL     OW81323   5.155   0.824  14.133
26495SOL    HW181324   5.109   0.873  14.201
26495SOL    HW281325   5.098   0.829  14.056
26496SOL     OW81326  13.770   6.832  10.824
26496SOL    HW181327  13.741   6.831  10.915
26496SOL    HW281328  13.782   6.925  10.803
26497SOL     OW81329   6.060  10.931   1.631
26497SOL    HW181330   5.997  10.991   1.671
26497SOL    HW281331   6.051  10.947   1.537
26498SOL     OW81332   8.328   5.663   3.520
26498SOL    HW181333   8.295   5.650   3.431
26498SOL    HW281334   8.423   5.657   3.512
26499SOL     OW81335  13.417  14.203   1.804
26499SOL    HW181336  13.411  14.255   1.724
26499SOL    HW281337  13.345  14.235   1.859
26500SOL     OW81338  12.510   0.537   3.960
26500SOL    HW181339  12.592   0.502   3.924
26500SOL    HW281340  12.478   0.597   3.893
26501SOL     OW81341   5.796   5.848   2.661
26501SOL    HW181342   5.775   5.797   2.739
26501SOL    HW281343   5.868   5.801   2.619
26502SOL     OW81344  12.162  14.165   4.569
26502SOL    HW181345  12.226  14.094   4.575
26502SOL    HW281346  12.216  14.244   4.560
26503SOL     OW81347   1.757  12.603   7.684
26503SOL    HW181348   1.793  12.641   7.764
26503SOL    HW281349   1.696  12.669   7.651
26504SOL     OW81350   2.127  13.302  10.886
26504SOL    HW181351   2.054  13.362  10.899
26504SOL    HW281352   2.114  13.267  10.797
26505SOL     OW81353  10.971   5.515   5.373
26505SOL    HW181354  11.026   5.561   5.310
26505SOL    HW281355  10.906   5.579   5.399
26506SOL     OW81356   7.553   7.762   8.108
26506SOL    HW181357   7.519   7.716   8.185
26506SOL    HW281358   7.498   7.840   8.101
26507SOL     OW81359  11.240   7.165   3.655
26507SOL    HW181360  11.191   7.115   3.590
26507SOL    HW281361  11.313   7.108   3.679
26508SOL     OW81362  14.336   4.535   9.503
26508SOL    HW181363  14.273   4.590   9.458
26508SOL    HW281364  14.420   4.581   9.493
26509SOL     OW81365   5.669  14.034   1.240
26509SOL    HW181366   5.689  13.980   1.164
26509SOL    HW281367   5.753  14.044   1.285
26510SOL     OW81368   4.493   4.915   6.038
26510SOL    HW181369   4.555   4.852   6.076
26510SOL    HW281370   4.538   4.950   5.962
26511SOL     OW81371  11.359   5.212   2.232
26511SOL    HW181372  11.386   5.152   2.302
26511SOL    HW281373  11.335   5.293   2.278
26512SOL     OW81374  13.254   6.270   7.363
26512SOL    HW181375  13.254   6.321   7.444
26512SOL    HW281376  13.344   6.277   7.331
26513SOL     OW81377   8.893  11.346  12.580
26513SOL    HW181378   8.922  11.401  12.652
26513SOL    HW281379   8.920  11.393  12.501
26514SOL     OW81380   3.394   8.305  13.551
26514SOL    HW181381   3.298   8.296  13.555
26514SOL    HW281382   3.414   8.375  13.613
26515SOL     OW81383   2.114   1.758   4.649
26515SOL    HW181384   2.062   1.677   4.644
26515SOL    HW281385   2.048   1.828   4.645
26516SOL     OW81386   1.915   4.249   2.088
26516SOL    HW181387   1.890   4.192   2.160
26516SOL    HW281388   1.972   4.315   2.128
26517SOL     OW81389   9.841   7.722   3.975
26517SOL    HW181390   9.797   7.787   4.030
26517SOL    HW281391   9.796   7.640   3.995
26518SOL     OW81392   3.580   0.796   4.663
26518SOL    HW181393   3.637   0.730   4.622
26518SOL    HW281394   3.495   0.754   4.669
26519SOL     OW81395   9.700  11.554  12.871
26519SOL    HW181396   9.723  11.540  12.779
26519SOL    HW281397   9.616  11.508  12.882
26520SOL     OW81398   4.055  11.558   8.404
26520SOL    HW181399   4.011  11.513   8.476
26520SOL    HW281400   4.103  11.488   8.358
26521SOL     OW81401   7.216   9.920   1.979
26521SOL    HW181402   7.199  10.005   2.019
26521SOL    HW281403   7.264   9.940   1.899
26522SOL     OW81404   6.232   9.838  10.447
26522SOL    HW181405   6.179   9.912  10.478
26522SOL    HW281406   6.209   9.766  10.506
26523SOL     OW81407  11.767   2.649  12.622
26523SOL    HW181408  11.850   2.624  12.663
26523SOL    HW281409  11.733   2.720  12.677
26524SOL     OW81410   9.924   8.830   1.012
26524SOL    HW181411   9.946   8.920   1.036
26524SOL    HW281412   9.846   8.838   0.956
26525SOL     OW81413  12.358  13.496  10.492
26525SOL    HW181414  12.338  13.438  10.420
26525SOL    HW281415  12.363  13.583  10.453
26526SOL     OW81416   2.744   5.587   0.331
26526SOL    HW181417   2.681   5.570   0.402
26526SOL    HW281418   2.829   5.587   0.374
26527SOL     OW81419   3.839   0.725   8.596
26527SOL    HW181420   3.800   0.767   8.673
26527SOL    HW281421   3.773   0.735   8.527
26528SOL     OW81422  14.429   0.070  10.658
26528SOL    HW181423  14.429   0.146  10.600
26528SOL    HW281424  14.431  14.876  10.600
26529SOL     OW81425  10.372  11.011   1.224
26529SOL    HW181426  10.411  11.095   1.201
26529SOL    HW281427  10.435  10.971   1.284
26530SOL     OW81428   4.150  14.788   9.280
26530SOL    HW181429   4.068  14.775   9.233
26530SOL    HW281430   4.212  14.820   9.213
26531SOL     OW81431   4.940   6.171   8.558
26531SOL    HW181432   4.894   6.234   8.503
26531SOL    HW281433   4.980   6.223   8.628
26532SOL     OW81434   5.363   8.020   6.677
26532SOL    HW181435   5.438   8.066   6.717
26532SOL    HW281436   5.375   7.929   6.703
26533SOL     OW81437  12.259   1.431  10.620
26533SOL    HW181438  12.347   1.415  10.655
26533SOL    HW281439  12.243   1.524  10.637
26534SOL     OW81440   9.142   5.203   6.135
26534SOL    HW181441   9.203   5.274   6.155
26534SOL    HW281442   9.151   5.141   6.207
26535SOL     OW81443   9.425   6.217  14.020
26535SOL    HW181444   9.399   6.285  14.082
26535SOL    HW281445   9.400   6.135  14.062
26536SOL     OW81446   5.979  14.852  14.423
26536SOL    HW181447   5.994  14.788  14.493
26536SOL    HW281448   5.888  14.838  14.398
26537SOL     OW81449  14.015   0.395   4.544
26537SOL    HW181450  13.954   0.344   4.597
26537SOL    HW281451  14.092   0.406   4.600
26538SOL     OW81452  14.607   8.134  13.639
26538SOL    HW181453  14.655   8.217  13.645
26538SOL    HW281454  14.533   8.153  13.582
26539SOL     OW81455  13.246   8.106   5.420
26539SOL    HW181456  13.170   8.163   5.433
26539SOL    HW281457  13.253   8.057   5.502
26540SOL     OW81458   6.301   8.279   0.593
26540SOL    HW181459   6.220   8.327   0.573
26540SOL    HW281460   6.303   8.277   0.689
26541SOL     OW81461   7.009  13.765  14.343
26541SOL    HW181462   6.916  13.759  14.320
26541SOL    HW281463   7.028  13.682  14.388
26542SOL     OW81464   0.817   1.761   8.993
26542SOL    HW181465   0.799   1.692   8.929
26542SOL    HW281466   0.736   1.770   9.042
26543SOL     OW81467   2.140   1.421   1.130
26543SOL    HW181468   2.232   1.424   1.155
26543SOL    HW281469   2.093   1.427   1.213
26544SOL     OW81470   0.800   8.244  10.012
26544SOL    HW181471   0.747   8.314   9.974
26544SOL    HW281472   0.779   8.166   9.960
26545SOL     OW81473   8.711  14.588   7.207
26545SOL    HW181474   8.805  14.580   7.223
26545SOL    HW281475   8.674  14.612   7.292
26546SOL     OW81476  12.056  14.703  11.839
26546SOL    HW181477  12.062  14.798  11.848
26546SOL    HW281478  12.147  14.675  11.827
26547SOL     OW81479  11.740   7.232  13.267
26547SOL    HW181480  11.783   7.295  13.326
26547SOL    HW281481  11.801   7.159  13.262
26548SOL     OW81482  13.589   6.311   3.616
26548SOL    HW181483  13.535   6.272   3.685
26548SOL    HW281484  13.674   6.325   3.658
26549SOL     OW81485   7.456   5.248   0.140
26549SOL    HW181486   7.462   5.180   0.207
26549SOL    HW281487   7.363   5.253   0.118
26550SOL     OW81488  11.687   5.853   7.594
26550SOL    HW181489  11.650   5.814   7.674
26550SOL    HW281490  11.677   5.947   7.606
26551SOL     OW81491  11.339   3.362  12.253
26551SOL    HW181492  11.387   3.334  12.174
26551SOL    HW281493  11.399   3.420  12.299
26552SOL     OW81494   9.032   1.659   3.722
26552SOL    HW181495   9.088   1.631   3.650
26552SOL    HW281496   9.009   1.578   3.768
26553SOL     OW81497  12.991   7.018  10.291
26553SOL    HW181498  13.040   7.051  10.367
26553SOL    HW281499  13.010   6.925  10.290
26554SOL     OW81500   5.784  10.304  12.143
26554SOL    HW181501   5.763  10.213  12.125
26554SOL    HW281502   5.865  10.321  12.094
26555SOL     OW81503  13.367   4.190   4.327
26555SOL    HW181504  13.400   4.179   4.237
26555SOL    HW281505  13.317   4.110   4.344
26556SOL     OW81506   7.193   7.410  11.156
26556SOL    HW181507   7.210   7.442  11.068
26556SOL    HW281508   7.220   7.481  11.214
26557SOL     OW81509  11.301  11.343  13.098
26557SOL    HW181510  11.270  11.415  13.153
26557SOL    HW281511  11.269  11.264  13.142
26558SOL     OW81512  13.859   8.089   0.972
26558SOL    HW181513  13.931   8.106   1.032
26558SOL    HW281514  13.818   8.174   0.959
26559SOL     OW81515  11.823   0.956   8.659
26559SOL    HW181516  11.795   1.008   8.585
26559SOL    HW281517  11.774   0.991   8.733
26560SOL     OW81518   9.057   3.904   2.582
26560SOL    HW181519   9.052   3.916   2.487
26560SOL    HW281520   8.968   3.918   2.613
26561SOL     OW81521   1.494  12.435   7.120
26561SOL    HW181522   1.456  12.523   7.109
26561SOL    HW281523   1.421  12.375   7.105
26562SOL     OW81524  10.703  10.928   2.252
26562SOL    HW181525  10.624  10.943   2.201
26562SOL    HW281526  10.672  10.908   2.340
26563SOL     OW81527   7.718  10.973   8.705
26563SOL    HW181528   7.760  10.971   8.790
26563SOL    HW281529   7.686  11.063   8.696
26564SOL     OW81530   6.857  10.532   5.603
26564SOL    HW181531   6.837  10.601   5.540
26564SOL    HW281532   6.885  10.579   5.682
26565SOL     OW81533   7.699   6.320   8.898
26565SOL    HW181534   7.616   6.311   8.945
26565SOL    HW281535   7.682   6.388   8.833
26566SOL     OW81536   6.217  12.215   6.790
26566SOL    HW181537   6.253  12.236   6.703
26566SOL    HW281538   6.190  12.123   6.784
26567SOL     OW81539  13.134  10.634  12.580
26567SOL    HW181540  13.229  10.637  12.570
26567SOL    HW281541  13.105  10.571  12.513
26568SOL     OW81542   7.272   9.237  11.862
26568SOL    HW181543   7.216   9.242  11.939
26568SOL    HW281544   7.326   9.159  11.877
26569SOL     OW81545   3.023   8.441   9.465
26569SOL    HW181546   3.024   8.489   9.383
26569SOL    HW281547   3.106   8.463   9.507
26570SOL     OW81548   4.622  13.179   8.152
26570SOL    HW181549   4.597  13.261   8.194
26570SOL    HW281550   4.644  13.204   8.062
26571SOL     OW81551   0.350   5.916   6.029
26571SOL    HW181552   0.301   5.865   5.965
26571SOL    HW281553   0.420   5.856   6.059
26572SOL     OW81554   1.677   0.185   2.964
26572SOL    HW181555   1.689   0.267   2.917
26572SOL    HW281556   1.627   0.129   2.904
26573SOL     OW81557   1.643  13.934   3.408
26573SOL    HW181558   1.644  13.870   3.479
26573SOL    HW281559   1.735  13.954   3.392
26574SOL     OW81560  11.672   6.132   6.996
26574SOL    HW181561  11.623   6.081   6.931
26574SOL    HW281562  11.743   6.075   7.023
26575SOL     OW81563  14.599   8.380   4.583
26575SOL    HW181564  14.656   8.362   4.658
26575SOL    HW281565  14.649   8.350   4.507
26576SOL     OW81566   3.029  10.487   8.085
26576SOL    HW181567   3.076  10.532   8.155
26576SOL    HW281568   3.086  10.497   8.008
26577SOL     OW81569   5.370  14.744   6.833
26577SOL    HW181570   5.278  14.720   6.820
26577SOL    HW281571   5.407  14.671   6.883
26578SOL     OW81572  13.409   9.556   7.826
26578SOL    HW181573  13.353   9.584   7.753
26578SOL    HW281574  13.495   9.544   7.787
26579SOL     OW81575   9.116   8.707  14.281
26579SOL    HW181576   9.045   8.657  14.241
26579SOL    HW281577   9.188   8.645  14.289
26580SOL     OW81578   3.478  10.006  14.669
26580SOL    HW181579   3.507   9.944  14.736
26580SOL    HW281580   3.540  10.078  14.675
26581SOL     OW81581   2.235   7.032   3.732
26581SOL    HW181582   2.218   7.126   3.737
26581SOL    HW281583   2.318   7.020   3.779
26582SOL     OW81584   3.176   3.272   3.462
26582SOL    HW181585   3.211   3.273   3.373
26582SOL    HW281586   3.249   3.301   3.517
26583SOL     OW81587   1.679  12.889   2.506
26583SOL    HW181588   1.750  12.953   2.508
26583SOL    HW281589   1.605  12.937   2.468
26584SOL     OW81590   9.518   6.851   6.849
26584SOL    HW181591   9.451   6.919   6.851
26584SOL    HW281592   9.594   6.891   6.891
26585SOL     OW81593  14.823  10.871   0.219
26585SOL    HW181594  14.814  10.937   0.288
26585SOL    HW281595   0.014  10.902   0.165
26586SOL     OW81596   1.932   4.299   1.717
26586SOL    HW181597   1.912   4.365   1.783
26586SOL    HW281598   1.855   4.299   1.659
26587SOL     OW81599   3.675  13.323   7.458
26587SOL    HW181600   3.661  13.371   7.540
26587SOL    HW281601   3.770  13.323   7.447
26588SOL     OW81602  12.655   8.879   3.742
26588SOL    HW181603  12.670   8.833   3.825
26588SOL    HW281604  12.568   8.916   3.750
26589SOL     OW81605  10.579   3.633   6.136
26589SOL    HW181606  10.563   3.620   6.042
26589SOL    HW281607  10.607   3.547   6.168
26590SOL     OW81608  11.050  10.772   4.806
26590SOL    HW181609  11.031  10.830   4.880
26590SOL    HW281610  11.002  10.811   4.733
26591SOL     OW81611   4.202   4.649   2.339
26591SOL    HW181612   4.252   4.729   2.323
26591SOL    HW281613   4.230   4.589   2.270
26592SOL     OW81614   4.894   5.459  10.916
26592SOL    HW181615   4.840   5.534  10.892
26592SOL    HW281616   4.967   5.496  10.964
26593SOL     OW81617  10.482   5.058  11.514
26593SOL    HW181618  10.487   5.153  11.499
26593SOL    HW281619  10.421   5.026  11.447
26594SOL     OW81620  12.342  10.341   3.141
26594SOL    HW181621  12.257  10.371   3.173
26594SOL    HW281622  12.406  10.388   3.195
26595SOL     OW81623  10.606  11.063   0.775
26595SOL    HW181624  10.553  11.139   0.795
26595SOL    HW281625  10.543  10.994   0.754
26596SOL     OW81626  11.331  12.588  11.730
26596SOL    HW181627  11.254  12.542  11.697
26596SOL    HW281628  11.301  12.631  11.810
26597SOL     OW81629   7.228  13.957   0.302
26597SOL    HW181630   7.261  13.964   0.212
26597SOL    HW281631   7.246  14.042   0.341
26598SOL     OW81632  10.992   8.394   0.506
26598SOL    HW181633  11.036   8.478   0.511
26598SOL    HW281634  10.899   8.415   0.512
26599SOL     OW81635   2.634   5.672   0.858
26599SOL    HW181636   2.542   5.648   0.866
26599SOL    HW281637   2.678   5.621   0.927
26600SOL     OW81638   2.180   5.816  10.374
26600SOL    HW181639   2.191   5.883  10.442
26600SOL    HW281640   2.265   5.813  10.329
26601SOL     OW81641  12.362  10.224  10.326
26601SOL    HW181642  12.307  10.168  10.380
26601SOL    HW281643  12.306  10.253  10.255
26602SOL     OW81644  13.323   1.152   3.045
26602SOL    HW181645  13.374   1.074   3.066
26602SOL    HW281646  13.375   1.224   3.082
26603SOL     OW81647  13.576  12.095   9.337
26603SOL    HW181648  13.657  12.067   9.379
26603SOL    HW281649  13.602  12.119   9.248
26604SOL     OW81650   5.401  13.789   6.073
26604SOL    HW181651   5.394  13.776   5.978
26604SOL    HW281652   5.310  13.795   6.102
26605SOL     OW81653   4.458   5.006  13.352
26605SOL    HW181654   4.470   4.913  13.373
26605SOL    HW281655   4.366   5.012  13.325
26606SOL     OW81656   4.396  10.588  14.294
26606SOL    HW181657   4.305  10.599  14.324
26606SOL    HW281658   4.388  10.578  14.199
26607SOL     OW81659  13.297  10.080   6.088
26607SOL    HW181660  13.373  10.128   6.122
26607SOL    HW281661  13.297   9.998   6.137
26608SOL     OW81662  10.858   0.137  13.055
26608SOL    HW181663  10.821   0.156  12.969
26608SOL    HW281664  10.786   0.098  13.104
26609SOL     OW81665  14.019   9.240   6.313
26609SOL    HW181666  14.054   9.172   6.257
26609SOL    HW281667  14.041   9.322   6.269
26610SOL     OW81668   2.944   0.950   5.780
26610SOL    HW181669   2.940   0.962   5.875
26610SOL    HW281670   2.894   1.024   5.744
26611SOL     OW81671  11.471   8.282   1.071
26611SOL    HW181672  11.472   8.187   1.061
26611SOL    HW281673  11.378   8.306   1.064
26612SOL     OW81674  10.559   1.831   8.296
26612SOL    HW181675  10.636   1.869   8.254
26612SOL    HW281676  10.586   1.816   8.386
26613SOL     OW81677  11.349  14.368   8.430
26613SOL    HW181678  11.293  14.418   8.490
26613SOL    HW281679  11.403  14.314   8.487
26614SOL     OW81680   3.827   2.899   6.339
26614SOL    HW181681   3.806   2.992   6.330
26614SOL    HW281682   3.864   2.874   6.254
26615SOL     OW81683  14.541   2.701  10.791
26615SOL    HW181684  14.560   2.689  10.884
26615SOL    HW281685  14.626   2.704  10.749
26616SOL     OW81686   9.295   7.939  12.064
26616SOL    HW181687   9.270   7.878  12.133
26616SOL    HW281688   9.218   7.946  12.009
26617SOL     OW81689   4.868   1.424   4.178
26617SOL    HW181690   4.857   1.339   4.220
26617SOL    HW281691   4.953   1.455   4.209
26618SOL     OW81692   5.236   5.832   1.532
26618SOL    HW181693   5.150   5.791   1.543
26618SOL    HW281694   5.233   5.910   1.588
26619SOL     OW81695   6.070  10.649   1.157
26619SOL    HW181696   5.988  10.696   1.169
26619SOL    HW281697   6.117  10.660   1.240
26620SOL     OW81698   7.596   0.390  11.655
26620SOL    HW181699   7.649   0.455  11.701
26620SOL    HW281700   7.510   0.430  11.648
26621SOL     OW81701   4.104   3.575   0.882
26621SOL    HW181702   4.092   3.669   0.891
26621SOL    HW281703   4.066   3.554   0.796
26622SOL     OW81704  12.204   5.939   6.429
26622SOL    HW181705  12.121   5.977   6.459
26622SOL    HW281706  12.209   5.855   6.473
26623SOL     OW81707  10.162   6.601  10.764
26623SOL    HW181708  10.255   6.614  10.743
26623SOL    HW281709  10.144   6.512  10.734
26624SOL     OW81710   6.945  13.915   5.016
26624SOL    HW181711   6.963  13.835   4.966
26624SOL    HW281712   6.926  13.884   5.105
26625SOL     OW81713   6.919   3.780   4.588
26625SOL    HW181714   6.949   3.692   4.566
26625SOL    HW281715   6.869   3.809   4.511
26626SOL     OW81716   6.392  10.223   1.294
26626SOL    HW181717   6.454  10.281   1.250
26626SOL    HW281718   6.311  10.274   1.298
26627SOL     OW81719  13.113   1.329   5.246
26627SOL    HW181720  13.076   1.384   5.177
26627SOL    HW281721  13.126   1.389   5.319
26628SOL     OW81722   0.176   6.720   4.746
26628SOL    HW181723   0.126   6.797   4.773
26628SOL    HW281724   0.195   6.674   4.828
26629SOL     OW81725  13.994   9.371   5.333
26629SOL    HW181726  14.038   9.290   5.309
26629SOL    HW281727  14.046   9.407   5.405
26630SOL     OW81728  14.201  13.832   7.804
26630SOL    HW181729  14.159  13.881   7.733
26630SOL    HW281730  14.188  13.740   7.781
26631SOL     OW81731   4.089   7.024   1.009
26631SOL    HW181732   4.148   7.097   1.027
26631SOL    HW281733   4.141   6.965   0.953
26632SOL     OW81734   7.632   8.531   4.084
26632SOL    HW181735   7.627   8.604   4.022
26632SOL    HW281736   7.635   8.573   4.170
26633SOL     OW81737   8.511   4.124   4.732
26633SOL    HW181738   8.437   4.166   4.774
26633SOL    HW281739   8.512   4.161   4.643
26634SOL     OW81740   2.537  11.285  11.436
26634SOL    HW181741   2.533  11.190  11.442
26634SOL    HW281742   2.528  11.303  11.342
26635SOL     OW81743   6.070   1.715   6.035
26635SOL    HW181744   6.151   1.719   5.984
26635SOL    HW281745   6.028   1.800   6.020
26636SOL     OW81746   0.037   2.998   9.708
26636SOL    HW181747   0.110   2.988   9.769
26636SOL    HW281748   0.031   2.913   9.664
26637SOL     OW81749   6.190   2.367   1.452
26637SOL    HW181750   6.265   2.399   1.401
26637SOL    HW281751   6.144   2.446   1.479
26638SOL     OW81752   5.480  11.738  10.838
26638SOL    HW181753   5.552  11.783  10.882
26638SOL    HW281754   5.425  11.809  10.804
26639SOL     OW81755   2.393   9.542   0.123
26639SOL    HW181756   2.410   9.581   0.037
26639SOL    HW281757   2.454   9.585   0.182
26640SOL     OW81758   1.447   4.078   9.650
26640SOL    HW181759   1.414   4.074   9.740
26640SOL    HW281760   1.532   4.034   9.654
26641SOL     OW81761   7.411   9.231   2.214
26641SOL    HW181762   7.364   9.219   2.296
26641SOL    HW281763   7.371   9.167   2.154
26642SOL     OW81764   4.357   4.556  11.147
26642SOL    HW181765   4.343   4.580  11.238
26642SOL    HW281766   4.443   4.592  11.126
26643SOL     OW81767  11.794  13.941   4.840
26643SOL    HW181768  11.843  13.866   4.873
26643SOL    HW281769  11.756  13.910   4.758
26644SOL     OW81770   3.834   6.465   7.148
26644SOL    HW181771   3.755   6.430   7.189
26644SOL    HW281772   3.842   6.416   7.066
26645SOL     OW81773   7.932   9.895   6.699
26645SOL    HW181774   7.948   9.935   6.613
26645SOL    HW281775   7.839   9.910   6.715
26646SOL     OW81776   7.829   6.757  12.511
26646SOL    HW181777   7.883   6.789  12.438
26646SOL    HW281778   7.836   6.662  12.506
26647SOL     OW81779  10.335  10.232   7.164
26647SOL    HW181780  10.326  10.137   7.160
26647SOL    HW281781  10.256  10.265   7.121
26648SOL     OW81782   2.317   0.225   6.967
26648SOL    HW181783   2.237   0.248   7.014
26648SOL    HW281784   2.382   0.210   7.036
26649SOL     OW81785   6.595   2.092  12.909
26649SOL    HW181786   6.570   2.171  12.860
26649SOL    HW281787   6.577   2.114  13.001
26650SOL     OW81788   9.942  10.641   0.007
26650SOL    HW181789   9.944  10.627  14.794
26650SOL    HW281790   9.916  10.556   0.043
26651SOL     OW81791  13.553  10.216  13.680
26651SOL    HW181792  13.596  10.286  13.631
26651SOL    HW281793  13.562  10.139  13.625
26652SOL     OW81794   9.591   9.402  11.553
26652SOL    HW181795   9.636   9.321  11.578
26652SOL    HW281796   9.591   9.455  11.633
26653SOL     OW81797   4.442   9.822  13.064
26653SOL    HW181798   4.481   9.903  13.031
26653SOL    HW281799   4.348   9.840  13.065
26654SOL     OW81800   9.741  14.152   1.153
26654SOL    HW181801   9.731  14.232   1.101
26654SOL    HW281802   9.676  14.160   1.223
26655SOL     OW81803   3.554   1.784   4.767
26655SOL    HW181804   3.547   1.770   4.862
26655SOL    HW281805   3.488   1.726   4.729
26656SOL     OW81806  10.026   4.130   9.032
26656SOL    HW181807   9.941   4.145   8.990
26656SOL    HW281808  10.062   4.218   9.045
26657SOL     OW81809  14.288   6.450   6.911
26657SOL    HW181810  14.342   6.508   6.857
26657SOL    HW281811  14.217   6.506   6.943
26658SOL     OW81812  10.618   8.568  10.979
26658SOL    HW181813  10.651   8.589  10.892
26658SOL    HW281814  10.691   8.589  11.038
26659SOL     OW81815   6.421   0.628  14.488
26659SOL    HW181816   6.499   0.669  14.450
26659SOL    HW281817   6.407   0.550  14.434
26660SOL     OW81818   0.049   2.887   5.239
26660SOL    HW181819   0.072   2.945   5.311
26660SOL    HW281820  14.842   2.859   5.258
26661SOL     OW81821  13.440   6.187  12.614
26661SOL    HW181822  13.368   6.130  12.587
26661SOL    HW281823  13.400   6.245  12.679
26662SOL     OW81824   7.584  11.127   0.427
26662SOL    HW181825   7.526  11.144   0.502
26662SOL    HW281826   7.533  11.069   0.371
26663SOL     OW81827   0.085  12.827   7.282
26663SOL    HW181828   0.157  12.790   7.231
26663SOL    HW281829   0.006  12.785   7.246
26664SOL     OW81830   6.255  12.238  10.988
26664SOL    HW181831   6.299  12.252  11.072
26664SOL    HW281832   6.320  12.192  10.934
26665SOL     OW81833   4.423   9.043   0.182
26665SOL    HW181834   4.391   9.063   0.093
26665SOL    HW281835   4.495   8.982   0.168
26666SOL     OW81836   4.464   1.830  10.861
26666SOL    HW181837   4.535   1.803  10.803
26666SOL    HW281838   4.503   1.895  10.919
26667SOL     OW81839  12.033   3.977   1.864
26667SOL    HW181840  12.101   3.974   1.932
26667SOL    HW281841  12.025   3.887   1.833
26668SOL     OW81842   6.707  11.977   4.135
26668SOL    HW181843   6.727  12.017   4.220
26668SOL    HW281844   6.679  11.888   4.156
26669SOL     OW81845   2.816   0.556   9.461
26669SOL    HW181846   2.741   0.571   9.403
26669SOL    HW281847   2.841   0.644   9.490
26670SOL     OW81848   0.520  14.690   1.607
26670SOL    HW181849   0.480  14.610   1.641
26670SOL    HW281850   0.491  14.696   1.516
26671SOL     OW81851   9.844  12.133   1.678
26671SOL    HW181852   9.772  12.095   1.628
26671SOL    HW281853   9.894  12.183   1.614
26672SOL     OW81854   9.989   4.133   6.991
26672SOL    HW181855   9.929   4.100   7.058
26672SOL    HW281856   9.933   4.180   6.929
26673SOL     OW81857  10.182   3.869   0.939
26673SOL    HW181858  10.232   3.796   0.903
26673SOL    HW281859  10.236   3.947   0.920
26674SOL     OW81860   8.782  11.999   0.353
26674SOL    HW181861   8.823  12.049   0.282
26674SOL    HW281862   8.688  12.010   0.339
26675SOL     OW81863   9.480   2.842   4.267
26675SOL    HW181864   9.518   2.896   4.197
26675SOL    HW281865   9.555   2.812   4.318
26676SOL     OW81866   2.149   6.869   1.217
26676SOL    HW181867   2.114   6.851   1.304
26676SOL    HW281868   2.071   6.882   1.162
26677SOL     OW81869   7.865  13.933  10.857
26677SOL    HW181870   7.882  13.971  10.943
26677SOL    HW281871   7.821  13.850  10.877
26678SOL     OW81872  10.009  14.634   1.092
26678SOL    HW181873  10.036  14.634   1.184
26678SOL    HW281874  10.074  14.689   1.048
26679SOL     OW81875   2.801   3.178   0.496
26679SOL    HW181876   2.804   3.225   0.579
26679SOL    HW281877   2.878   3.210   0.448
26680SOL     OW81878   6.955   0.131  11.253
26680SOL    HW181879   7.033   0.086  11.288
26680SOL    HW281880   6.882   0.077  11.282
26681SOL     OW81881  10.741  11.333  12.136
26681SOL    HW181882  10.649  11.307  12.136
26681SOL    HW281883  10.773  11.308  12.223
26682SOL     OW81884   0.281   3.039   2.585
26682SOL    HW181885   0.254   2.958   2.626
26682SOL    HW281886   0.222   3.049   2.510
26683SOL     OW81887   5.388  10.651   1.473
26683SOL    HW181888   5.415  10.723   1.415
26683SOL    HW281889   5.409  10.683   1.561
26684SOL     OW81890   9.234  14.329  11.665
26684SOL    HW181891   9.183  14.306  11.743
26684SOL    HW281892   9.302  14.388  11.697
26685SOL     OW81893   4.592  14.405   9.023
26685SOL    HW181894   4.597  14.424   8.930
26685SOL    HW281895   4.671  14.445   9.060
26686SOL     OW81896   9.441   1.474   9.872
26686SOL    HW181897   9.445   1.564   9.842
26686SOL    HW281898   9.362   1.439   9.830
26687SOL     OW81899   1.155   3.061  14.648
26687SOL    HW181900   1.128   2.973  14.674
26687SOL    HW281901   1.250   3.057  14.643
26688SOL     OW81902  14.423   4.745  11.496
26688SOL    HW181903  14.483   4.765  11.568
26688SOL    HW281904  14.337   4.769  11.530
26689SOL     OW81905  14.307  13.328   2.238
26689SOL    HW181906  14.304  13.233   2.239
26689SOL    HW281907  14.218  13.356   2.217
26690SOL     OW81908   4.333  13.777   5.221
26690SOL    HW181909   4.269  13.798   5.153
26690SOL    HW281910   4.345  13.683   5.214
26691SOL     OW81911   7.832   6.548   9.526
26691SOL    HW181912   7.897   6.483   9.497
26691SOL    HW281913   7.838   6.618   9.461
26692SOL     OW81914   1.043  11.489   8.523
26692SOL    HW181915   1.118  11.455   8.571
26692SOL    HW281916   0.975  11.422   8.535
26693SOL     OW81917   2.299   9.662   8.398
26693SOL    HW181918   2.251   9.692   8.321
26693SOL    HW281919   2.324   9.742   8.444
26694SOL     OW81920  12.811   8.519   1.126
26694SOL    HW181921  12.747   8.487   1.063
26694SOL    HW281922  12.850   8.440   1.164
26695SOL     OW81923   4.001   7.395   2.062
26695SOL    HW181924   4.053   7.372   2.139
26695SOL    HW281925   4.051   7.465   2.019
26696SOL     OW81926   5.416   5.120   0.590
26696SOL    HW181927   5.344   5.177   0.563
26696SOL    HW281928   5.374   5.038   0.615
26697SOL     OW81929  13.348   6.728   9.669
26697SOL    HW181930  13.348   6.695   9.579
26697SOL    HW281931  13.439   6.721   9.698
26698SOL     OW81932   9.319   2.524  13.316
26698SOL    HW181933   9.243   2.467  13.321
26698SOL    HW281934   9.309   2.572  13.234
26699SOL     OW81935  12.566   3.237   5.702
26699SOL    HW181936  12.481   3.276   5.684
26699SOL    HW281937  12.594   3.200   5.618
26700SOL     OW81938  12.371  14.417  10.408
26700SOL    HW181939  12.366  14.438  10.315
26700SOL    HW281940  12.292  14.366  10.425
26701SOL     OW81941   7.246   7.374  13.008
26701SOL    HW181942   7.254   7.453  12.954
26701SOL    HW281943   7.272   7.302  12.951
26702SOL     OW81944  13.684   1.050   4.185
26702SOL    HW181945  13.639   0.999   4.253
26702SOL    HW281946  13.732   0.985   4.134
26703SOL     OW81947  12.864  12.760   1.134
26703SOL    HW181948  12.871  12.676   1.179
26703SOL    HW281949  12.953  12.778   1.102
26704SOL     OW81950  10.254   7.161   3.834
26704SOL    HW181951  10.209   7.245   3.842
26704SOL    HW281952  10.184   7.096   3.833
26705SOL     OW81953  14.573  13.115  11.685
26705SOL    HW181954  14.504  13.049  11.677
26705SOL    HW281955  14.536  13.194  11.645
26706SOL     OW81956   6.699   8.101   8.299
26706SOL    HW181957   6.615   8.131   8.263
26706SOL    HW281958   6.732   8.176   8.349
26707SOL     OW81959   8.151   3.584  11.166
26707SOL    HW181960   8.140   3.567  11.259
26707SOL    HW281961   8.176   3.677  11.161
26708SOL     OW81962   3.724  10.307   3.564
26708SOL    HW181963   3.684  10.349   3.640
26708SOL    HW281964   3.813  10.341   3.561
26709SOL     OW81965   7.937   1.079   3.348
26709SOL    HW181966   7.952   0.987   3.369
26709SOL    HW281967   7.968   1.126   3.426
26710SOL     OW81968   5.524   7.751   9.429
26710SOL    HW181969   5.604   7.804   9.441
26710SOL    HW281970   5.501   7.724   9.518
26711SOL     OW81971   3.762   7.234  11.728
26711SOL    HW181972   3.726   7.177  11.796
26711SOL    HW281973   3.816   7.177  11.674
26712SOL     OW81974  10.191   1.530   2.545
26712SOL    HW181975  10.148   1.465   2.601
26712SOL    HW281976  10.121   1.565   2.490
26713SOL     OW81977   7.476   8.718  11.903
26713SOL    HW181978   7.444   8.636  11.939
26713SOL    HW281979   7.417   8.736  11.829
26714SOL     OW81980   0.022   9.377  12.084
26714SOL    HW181981   0.022   9.418  11.997
26714SOL    HW281982   0.083   9.430  12.135
26715SOL     OW81983   6.293  13.242  12.900
26715SOL    HW181984   6.265  13.222  12.810
26715SOL    HW281985   6.229  13.307  12.931
26716SOL     OW81986  14.251   2.427  12.874
26716SOL    HW181987  14.230   2.415  12.781
26716SOL    HW281988  14.344   2.405  12.880
26717SOL     OW81989  12.408  14.568   7.205
26717SOL    HW181990  12.446  14.639   7.154
26717SOL    HW281991  12.317  14.595   7.218
26718SOL     OW81992   0.077   5.564  12.284
26718SOL    HW181993   0.171   5.553  12.265
26718SOL    HW281994   0.034   5.535  12.204
26719SOL     OW81995   1.916   0.640   1.729
26719SOL    HW181996   1.823   0.664   1.735
26719SOL    HW281997   1.927   0.570   1.794
26720SOL     OW81998  12.591   7.212  10.073
26720SOL    HW181999  12.666   7.250  10.027
26720SOL    HW282000  12.629   7.141  10.124
26721SOL     OW82001   4.794   0.009   8.450
26721SOL    HW182002   4.772   0.086   8.397
26721SOL    HW282003   4.756   0.027   8.536
26722SOL     OW82004  10.820  11.226  10.730
26722SOL    HW182005  10.872  11.232  10.810
26722SOL    HW282006  10.738  11.271  10.752
26723SOL     OW82007  10.328   6.959   2.448
26723SOL    HW182008  10.287   6.910   2.377
26723SOL    HW282009  10.354   6.892   2.511
26724SOL     OW82010   4.076  12.517   7.250
26724SOL    HW182011   4.009  12.462   7.211
26724SOL    HW282012   4.110  12.569   7.177
26725SOL     OW82013   7.431   2.554  11.206
26725SOL    HW182014   7.484   2.512  11.273
26725SOL    HW282015   7.494   2.589  11.143
26726SOL     OW82016   8.570   3.239  12.723
26726SOL    HW182017   8.580   3.239  12.628
26726SOL    HW282018   8.644   3.291  12.755
26727SOL     OW82019   3.389  10.669   1.080
26727SOL    HW182020   3.463  10.730   1.087
26727SOL    HW282021   3.369  10.645   1.170
26728SOL     OW82022  10.271   3.779  13.969
26728SOL    HW182023  10.232   3.749  13.886
26728SOL    HW282024  10.197   3.806  14.022
26729SOL     OW82025   0.143   8.415   3.376
26729SOL    HW182026   0.227   8.453   3.350
26729SOL    HW282027   0.087   8.424   3.299
26730SOL     OW82028   5.154  12.783   7.820
26730SOL    HW182029   5.185  12.693   7.826
26730SOL    HW282030   5.059  12.776   7.828
26731SOL     OW82031   8.271   3.687   6.461
26731SOL    HW182032   8.286   3.657   6.550
26731SOL    HW282033   8.351   3.733   6.436
26732SOL     OW82034  12.848  11.507   6.895
26732SOL    HW182035  12.911  11.567   6.854
26732SOL    HW282036  12.902  11.445   6.944
26733SOL     OW82037   4.866   2.194   7.456
26733SOL    HW182038   4.783   2.201   7.502
26733SOL    HW282039   4.888   2.284   7.431
26734SOL     OW82040   8.732  14.588   5.558
26734SOL    HW182041   8.661  14.646   5.584
26734SOL    HW282042   8.812  14.634   5.586
26735SOL     OW82043   5.904   0.039   4.160
26735SOL    HW182044   5.826   0.020   4.108
26735SOL    HW282045   5.872   0.094   4.232
26736SOL     OW82046   0.618   1.529   8.807
26736SOL    HW182047   0.568   1.448   8.817
26736SOL    HW282048   0.696   1.503   8.758
26737SOL     OW82049  11.695  13.093  10.228
26737SOL    HW182050  11.687  13.174  10.176
26737SOL    HW282051  11.605  13.072  10.253
26738SOL     OW82052   9.243  13.078   2.519
26738SOL    HW182053   9.271  13.098   2.608
26738SOL    HW282054   9.252  12.983   2.511
26739SOL     OW82055   8.079  12.717  12.123
26739SOL    HW182056   8.040  12.717  12.211
26739SOL    HW282057   8.158  12.664  12.132
26740SOL     OW82058   3.140   8.924   2.484
26740SOL    HW182059   3.055   8.885   2.503
26740SOL    HW282060   3.203   8.853   2.498
26741SOL     OW82061   5.295   8.040  13.015
26741SOL    HW182062   5.204   8.017  12.992
26741SOL    HW282063   5.335   8.064  12.932
26742SOL     OW82064  10.491  14.833   2.765
26742SOL    HW182065  10.548   0.025   2.745
26742SOL    HW282066  10.538  14.757   2.729
26743SOL     OW82067  12.864   3.995   0.140
26743SOL    HW182068  12.785   4.048   0.134
26743SOL    HW282069  12.914   4.036   0.211
26744SOL     OW82070  13.965   1.954  10.786
26744SOL    HW182071  13.921   1.976  10.868
26744SOL    HW282072  13.962   2.035  10.735
26745SOL     OW82073   6.746  12.383  14.185
26745SOL    HW182074   6.666  12.433  14.204
26745SOL    HW282075   6.748  12.316  14.253
26746SOL     OW82076  13.866   2.993  13.265
26746SOL    HW182077  13.822   2.909  13.250
26746SOL    HW282078  13.869   3.001  13.361
26747SOL     OW82079   6.559   3.756   2.971
26747SOL    HW182080   6.484   3.814   2.980
26747SOL    HW282081   6.526   3.669   2.995
26748SOL     OW82082  10.241   0.071   8.134
26748SOL    HW182083  10.229   0.152   8.184
26748SOL    HW282084  10.254   0.101   8.044
26749SOL     OW82085   0.286   5.818   4.102
26749SOL    HW182086   0.239   5.793   4.023
26749SOL    HW282087   0.287   5.739   4.156
26750SOL     OW82088   8.123   6.446   7.848
26750SOL    HW182089   8.034   6.453   7.881
26750SOL    HW282090   8.155   6.536   7.844
26751SOL     OW82091   7.346  12.763  10.351
26751SOL    HW182092   7.351  12.686  10.409
26751SOL    HW282093   7.426  12.812  10.369
26752SOL     OW82094  14.067   3.154  13.217
26752SOL    HW182095  13.996   3.091  13.235
26752SOL    HW282096  14.121   3.110  13.152
26753SOL     OW82097  11.502   9.938  11.371
26753SOL    HW182098  11.450   9.922  11.450
26753SOL    HW282099  11.448   9.903  11.300
26754SOL     OW82100   0.191  10.631  13.118
26754SOL    HW182101   0.262  10.576  13.083
26754SOL    HW282102   0.150  10.576  13.185
26755SOL     OW82103  11.785  13.452   3.843
26755SOL    HW182104  11.812  13.427   3.754
26755SOL    HW282105  11.850  13.412   3.900
26756SOL     OW82106  13.051   1.741  13.984
26756SOL    HW182107  12.995   1.668  14.010
26756SOL    HW282108  13.079   1.780  14.067
26757SOL     OW82109   6.289  10.391   9.655
26757SOL    HW182110   6.213  10.445   9.678
26757SOL    HW282111   6.268  10.305   9.689
26758SOL     OW82112   3.846  10.795   7.219
26758SOL    HW182113   3.881  10.786   7.308
26758SOL    HW282114   3.869  10.713   7.176
26759SOL     OW82115   9.064  12.513  12.318
26759SOL    HW182116   9.096  12.558  12.239
26759SOL    HW282117   9.087  12.421  12.303
26760SOL     OW82118   7.362   7.643   3.971
26760SOL    HW182119   7.398   7.575   4.028
26760SOL    HW282120   7.364   7.605   3.883
26761SOL     OW82121  10.136  10.065   5.250
26761SOL    HW182122  10.088  10.148   5.245
26761SOL    HW282123  10.177  10.066   5.337
26762SOL     OW82124   0.311   9.372   6.292
26762SOL    HW182125   0.319   9.365   6.197
26762SOL    HW282126   0.237   9.431   6.306
26763SOL     OW82127  14.405  12.486   5.086
26763SOL    HW182128  14.339  12.541   5.044
26763SOL    HW282129  14.474  12.546   5.112
26764SOL     OW82130   9.504   2.869   6.918
26764SOL    HW182131   9.455   2.929   6.861
26764SOL    HW282132   9.446   2.793   6.929
26765SOL     OW82133  10.230   0.691   7.428
26765SOL    HW182134  10.195   0.717   7.343
26765SOL    HW282135  10.208   0.598   7.436
26766SOL     OW82136  12.879   1.974  10.014
26766SOL    HW182137  12.785   1.970   9.995
26766SOL    HW282138  12.918   2.002   9.931
26767SOL     OW82139   2.695   8.681  14.764
26767SOL    HW182140   2.658   8.592  14.769
26767SOL    HW282141   2.631   8.736  14.809
26768SOL     OW82142   8.128   6.577   6.079
26768SOL    HW182143   8.180   6.543   6.151
26768SOL    HW282144   8.123   6.671   6.095
26769SOL     OW82145   3.088   1.101   3.876
26769SOL    HW182146   3.102   1.169   3.810
26769SOL    HW282147   3.141   1.128   3.951
26770SOL     OW82148  13.728   8.841   8.688
26770SOL    HW182149  13.733   8.881   8.774
26770SOL    HW282150  13.733   8.915   8.627
26771SOL     OW82151  11.975   6.051  13.456
26771SOL    HW182152  12.043   6.018  13.397
26771SOL    HW282153  11.892   6.026  13.414
26772SOL     OW82154  14.166   2.416   9.205
26772SOL    HW182155  14.261   2.414   9.211
26772SOL    HW282156  14.136   2.350   9.268
26773SOL     OW82157   6.618  14.244  12.785
26773SOL    HW182158   6.695  14.300  12.787
26773SOL    HW282159   6.650  14.157  12.809
26774SOL     OW82160   6.701   6.771   1.113
26774SOL    HW182161   6.764   6.699   1.110
26774SOL    HW282162   6.616   6.728   1.110
26775SOL     OW82163   8.815   4.429  13.946
26775SOL    HW182164   8.883   4.370  13.912
26775SOL    HW282165   8.828   4.511  13.897
26776SOL     OW82166   5.769  13.578  10.661
26776SOL    HW182167   5.760  13.484  10.674
26776SOL    HW282168   5.685  13.614  10.690
26777SOL     OW82169   8.191  12.853   2.202
26777SOL    HW182170   8.126  12.791   2.235
26777SOL    HW282171   8.276  12.812   2.222
26778SOL     OW82172  14.813  13.462  14.480
26778SOL    HW182173  14.722  13.492  14.487
26778SOL    HW282174  14.821  13.429  14.391
26779SOL     OW82175   0.360  14.238  13.282
26779SOL    HW182176   0.332  14.193  13.203
26779SOL    HW282177   0.447  14.272  13.261
26780SOL     OW82178   6.693  11.015   0.788
26780SOL    HW182179   6.632  11.071   0.739
26780SOL    HW282180   6.656  10.927   0.779
26781SOL     OW82181  10.197   4.593   1.117
26781SOL    HW182182  10.114   4.635   1.097
26781SOL    HW282183  10.263   4.661   1.103
26782SOL     OW82184   0.686  10.421   5.356
26782SOL    HW182185   0.637  10.340   5.351
26782SOL    HW282186   0.668  10.466   5.274
26783SOL     OW82187   8.203   1.786   1.376
26783SOL    HW182188   8.223   1.841   1.451
26783SOL    HW282189   8.114   1.811   1.352
26784SOL     OW82190  13.398  13.655   1.338
26784SOL    HW182191  13.432  13.730   1.290
26784SOL    HW282192  13.470  13.591   1.337
26785SOL     OW82193   0.729  11.795  13.038
26785SOL    HW182194   0.641  11.759  13.053
26785SOL    HW282195   0.716  11.890  13.033
26786SOL     OW82196   4.666   2.346   7.154
26786SOL    HW182197   4.724   2.421   7.143
26786SOL    HW282198   4.646   2.319   7.064
26787SOL     OW82199  11.656   8.580   3.163
26787SOL    HW182200  11.634   8.583   3.070
26787SOL    HW282201  11.720   8.650   3.175
26788SOL     OW82202   4.176   0.765   3.368
26788SOL    HW182203   4.176   0.698   3.437
26788SOL    HW282204   4.118   0.834   3.402
26789SOL     OW82205  12.781   4.799   3.649
26789SOL    HW182206  12.732   4.760   3.576
26789SOL    HW282207  12.765   4.893   3.640
26790SOL     OW82208   6.363   9.488   6.980
26790SOL    HW182209   6.436   9.513   7.036
26790SOL    HW282210   6.300   9.448   7.039
26791SOL     OW82211  10.737   5.123   9.271
26791SOL    HW182212  10.722   5.205   9.224
26791SOL    HW282213  10.683   5.130   9.349
26792SOL     OW82214  10.511   8.553   0.757
26792SOL    HW182215  10.430   8.517   0.793
26792SOL    HW282216  10.564   8.574   0.834
26793SOL     OW82217  11.579  10.001   4.726
26793SOL    HW182218  11.672   9.979   4.734
26793SOL    HW282219  11.577  10.097   4.730
26794SOL     OW82220   5.485   4.728  10.551
26794SOL    HW182221   5.564   4.749  10.602
26794SOL    HW282222   5.499   4.638  10.521
26795SOL     OW82223   3.456   4.107  13.307
26795SOL    HW182224   3.457   4.103  13.211
26795SOL    HW282225   3.381   4.055  13.333
26796SOL     OW82226   3.593   1.783   4.346
26796SOL    HW182227   3.575   1.837   4.269
26796SOL    HW282228   3.529   1.712   4.342
26797SOL     OW82229   6.533  14.187   4.673
26797SOL    HW182230   6.574  14.105   4.700
26797SOL    HW282231   6.576  14.254   4.725
26798SOL     OW82232   7.839  13.357  11.730
26798SOL    HW182233   7.869  13.290  11.792
26798SOL    HW282234   7.771  13.405  11.778
26799SOL     OW82235  11.417   7.824   1.870
26799SOL    HW182236  11.497   7.807   1.920
26799SOL    HW282237  11.444   7.821   1.779
26800SOL     OW82238   5.673  13.916   2.518
26800SOL    HW182239   5.677  13.954   2.606
26800SOL    HW282240   5.579  13.908   2.499
26801SOL     OW82241   5.289  14.554   8.234
26801SOL    HW182242   5.282  14.599   8.318
26801SOL    HW282243   5.201  14.560   8.197
26802SOL     OW82244  12.477   1.079   1.538
26802SOL    HW182245  12.434   1.065   1.454
26802SOL    HW282246  12.407   1.106   1.597
26803SOL     OW82247  11.171  14.573   4.578
26803SOL    HW182248  11.204  14.521   4.504
26803SOL    HW282249  11.215  14.657   4.570
26804SOL     OW82250   4.390  12.326  12.772
26804SOL    HW182251   4.454  12.382  12.815
26804SOL    HW282252   4.316  12.322  12.833
26805SOL     OW82253   2.289  13.874   2.383
26805SOL    HW182254   2.367  13.820   2.373
26805SOL    HW282255   2.287  13.897   2.476
26806SOL     OW82256  14.481   1.413   0.561
26806SOL    HW182257  14.433   1.466   0.626
26806SOL    HW282258  14.436   1.429   0.479
26807SOL     OW82259   6.711   0.051   8.373
26807SOL    HW182260   6.792   0.102   8.364
26807SOL    HW282261   6.720   0.007   8.458
26808SOL     OW82262   2.529  14.624  10.437
26808SOL    HW182263   2.457  14.632  10.499
26808SOL    HW282264   2.603  14.666  10.481
26809SOL     OW82265   6.728   5.100   8.144
26809SOL    HW182266   6.656   5.154   8.110
26809SOL    HW282267   6.687   5.016   8.164
26810SOL     OW82268   5.305   2.663   9.715
26810SOL    HW182269   5.361   2.604   9.666
26810SOL    HW282270   5.222   2.664   9.667
26811SOL     OW82271   9.583   2.006   7.762
26811SOL    HW182272   9.562   1.926   7.715
26811SOL    HW282273   9.544   2.076   7.710
26812SOL     OW82274   3.333  11.072  12.287
26812SOL    HW182275   3.373  11.000  12.336
26812SOL    HW282276   3.359  11.057  12.197
26813SOL     OW82277   1.991   7.567   4.455
26813SOL    HW182278   2.049   7.493   4.475
26813SOL    HW282279   1.929   7.532   4.391
26814SOL     OW82280  13.808   3.236  11.999
26814SOL    HW182281  13.793   3.149  12.037
26814SOL    HW282282  13.899   3.256  12.019
26815SOL     OW82283   9.733   2.478   7.869
26815SOL    HW182284   9.693   2.554   7.827
26815SOL    HW282285   9.660   2.424   7.899
26816SOL     OW82286  13.875   4.990  11.408
26816SOL    HW182287  13.913   5.044  11.338
26816SOL    HW282288  13.872   5.048  11.484
26817SOL     OW82289  12.539  11.317  10.075
26817SOL    HW182290  12.576  11.351  10.157
26817SOL    HW282291  12.604  11.337  10.008
26818SOL     OW82292   8.465  12.104   6.021
26818SOL    HW182293   8.550  12.070   6.049
26818SOL    HW282294   8.405  12.030   6.033
26819SOL     OW82295  13.277  11.011  13.801
26819SOL    HW182296  13.360  10.996  13.756
26819SOL    HW282297  13.253  11.101  13.779
26820SOL     OW82298   1.606  11.387   9.475
26820SOL    HW182299   1.602  11.324   9.547
26820SOL    HW282300   1.699  11.391   9.453
26821SOL     OW82301   2.004   8.318   0.812
26821SOL    HW182302   1.994   8.346   0.721
26821SOL    HW282303   2.006   8.400   0.862
26822SOL     OW82304  12.461   5.587  11.356
26822SOL    HW182305  12.498   5.597  11.443
26822SOL    HW282306  12.521   5.635  11.298
26823SOL     OW82307  13.810   0.514   7.885
26823SOL    HW182308  13.791   0.604   7.861
26823SOL    HW282309  13.897   0.517   7.926
26824SOL     OW82310  10.366   2.639   6.599
26824SOL    HW182311  10.362   2.544   6.586
26824SOL    HW282312  10.404   2.673   6.518
26825SOL     OW82313  13.178  11.725  12.829
26825SOL    HW182314  13.133  11.750  12.749
26825SOL    HW282315  13.108  11.719  12.895
26826SOL     OW82316   4.639  14.269  13.142
26826SOL    HW182317   4.679  14.234  13.062
26826SOL    HW282318   4.574  14.332  13.110
26827SOL     OW82319  11.355   2.474   5.716
26827SOL    HW182320  11.321   2.385   5.722
26827SOL    HW282321  11.298   2.526   5.773
26828SOL     OW82322   9.757   9.922   2.871
26828SOL    HW182323   9.696   9.915   2.945
26828SOL    HW282324   9.772  10.016   2.862
26829SOL     OW82325   4.683  11.175  11.026
26829SOL    HW182326   4.704  11.215  11.110
26829SOL    HW282327   4.717  11.086  11.032
26830SOL     OW82328   9.390   4.802  13.352
26830SOL    HW182329   9.374   4.818  13.259
26830SOL    HW282330   9.485   4.808  13.362
26831SOL     OW82331   5.279   0.367   8.098
26831SOL    HW182332   5.336   0.442   8.115
26831SOL    HW282333   5.207   0.403   8.047
26832SOL     OW82334   2.155   4.258   2.596
26832SOL    HW182335   2.073   4.307   2.591
26832SOL    HW282336   2.180   4.263   2.688
26833SOL     OW82337  14.798   1.674  11.457
26833SOL    HW182338  14.880   1.698  11.500
26833SOL    HW282339  14.824   1.653  11.367
26834SOL     OW82340  13.793   8.281  10.253
26834SOL    HW182341  13.776   8.319  10.340
26834SOL    HW282342  13.764   8.349  10.192
26835SOL     OW82343   8.824   4.969   3.259
26835SOL    HW182344   8.786   5.029   3.323
26835SOL    HW282345   8.761   4.897   3.253
26836SOL     OW82346  10.534   7.895   4.210
26836SOL    HW182347  10.530   7.954   4.286
26836SOL    HW282348  10.491   7.943   4.140
26837SOL     OW82349  12.904  13.574   5.003
26837SOL    HW182350  12.992  13.611   5.000
26837SOL    HW282351  12.869  13.601   5.088
26838SOL     OW82352   1.688   4.209   1.891
26838SOL    HW182353   1.753   4.240   1.953
26838SOL    HW282354   1.699   4.265   1.814
26839SOL     OW82355   5.961  10.029  10.028
26839SOL    HW182356   6.052  10.020  10.057
26839SOL    HW282357   5.916  10.067  10.103
26840SOL     OW82358  12.185  10.433   9.917
26840SOL    HW182359  12.201  10.390   9.833
26840SOL    HW282360  12.143  10.516   9.894
26841SOL     OW82361   6.095   9.317   5.679
26841SOL    HW182362   6.060   9.400   5.647
26841SOL    HW282363   6.189   9.329   5.681
26842SOL     OW82364   6.237   4.303   6.320
26842SOL    HW182365   6.169   4.236   6.325
26842SOL    HW282366   6.319   4.254   6.318
26843SOL     OW82367  14.039   6.639   0.008
26843SOL    HW182368  14.072   6.615  14.803
26843SOL    HW282369  14.118   6.643   0.063
26844SOL     OW82370  13.283   0.570   1.650
26844SOL    HW182371  13.260   0.606   1.564
26844SOL    HW282372  13.378   0.566   1.651
26845SOL     OW82373   3.968   7.699   6.640
26845SOL    HW182374   3.988   7.791   6.625
26845SOL    HW282375   4.023   7.652   6.576
26846SOL     OW82376  13.327  10.563   5.158
26846SOL    HW182377  13.332  10.515   5.241
26846SOL    HW282378  13.278  10.642   5.179
26847SOL     OW82379   8.903   3.127   1.803
26847SOL    HW182380   8.814   3.095   1.819
26847SOL    HW282381   8.943   3.058   1.749
26848SOL     OW82382   5.672  13.333   5.715
26848SOL    HW182383   5.626  13.259   5.754
26848SOL    HW282384   5.605  13.377   5.663
26849SOL     OW82385   7.088   0.295  13.391
26849SOL    HW182386   7.073   0.386  13.367
26849SOL    HW282387   7.002   0.261  13.414
26850SOL     OW82388  14.079   1.756   0.472
26850SOL    HW182389  14.018   1.684   0.487
26850SOL    HW282390  14.078   1.807   0.553
26851SOL     OW82391   0.844  12.003  11.832
26851SOL    HW182392   0.864  11.931  11.892
26851SOL    HW282393   0.772  12.049  11.875
26852SOL     OW82394  10.718   2.723   9.440
26852SOL    HW182395  10.690   2.754   9.526
26852SOL    HW282396  10.696   2.630   9.440
26853SOL     OW82397   4.359   6.495  10.222
26853SOL    HW182398   4.362   6.431  10.151
26853SOL    HW282399   4.269   6.492  10.254
26854SOL     OW82400   1.796   1.338   1.631
26854SOL    HW182401   1.757   1.254   1.605
26854SOL    HW282402   1.824   1.324   1.722
26855SOL     OW82403   2.185  13.171  13.054
26855SOL    HW182404   2.152  13.251  13.094
26855SOL    HW282405   2.122  13.103  13.080
26856SOL     OW82406   5.334  13.895   9.844
26856SOL    HW182407   5.269  13.860   9.782
26856SOL    HW282408   5.415  13.850   9.821
26857SOL     OW82409  10.995   0.316   3.123
26857SOL    HW182410  11.076   0.334   3.171
26857SOL    HW282411  11.012   0.349   3.035
26858SOL     OW82412   2.306   4.654   1.305
26858SOL    HW182413   2.372   4.649   1.374
26858SOL    HW282414   2.228   4.690   1.348
26859SOL     OW82415   8.951  10.736   8.710
26859SOL    HW182416   8.985  10.786   8.784
26859SOL    HW282417   8.864  10.707   8.738
26860SOL     OW82418  14.151  13.593   7.728
26860SOL    HW182419  14.162  13.577   7.635
26860SOL    HW282420  14.222  13.543   7.770
26861SOL     OW82421   0.024  10.668   6.765
26861SOL    HW182422  14.858  10.742   6.727
26861SOL    HW282423  14.878  10.666   6.856
26862SOL     OW82424  12.343   5.291   6.917
26862SOL    HW182425  12.393   5.366   6.949
26862SOL    HW282426  12.363   5.220   6.979
26863SOL     OW82427   1.673   4.392  10.745
26863SOL    HW182428   1.716   4.465  10.699
26863SOL    HW282429   1.595   4.373  10.693
26864SOL     OW82430   5.939  11.141  14.157
26864SOL    HW182431   5.969  11.052  14.137
26864SOL    HW282432   6.019  11.189  14.179
26865SOL     OW82433   6.791  14.638   9.481
26865SOL    HW182434   6.719  14.672   9.533
26865SOL    HW282435   6.855  14.607   9.546
26866SOL     OW82436   3.898  12.468   7.575
26866SOL    HW182437   3.984  12.434   7.601
26866SOL    HW282438   3.887  12.548   7.626
26867SOL     OW82439   5.115  12.319   4.404
26867SOL    HW182440   5.095  12.285   4.491
26867SOL    HW282441   5.052  12.276   4.347
26868SOL     OW82442  13.500   9.590   4.356
26868SOL    HW182443  13.436   9.595   4.285
26868SOL    HW282444  13.571   9.648   4.328
26869SOL     OW82445   7.966   5.600  11.807
26869SOL    HW182446   7.890   5.658  11.814
26869SOL    HW282447   7.943   5.539  11.737
26870SOL     OW82448  14.470  13.791   3.801
26870SOL    HW182449  14.527  13.865   3.822
26870SOL    HW282450  14.499  13.721   3.860
26871SOL     OW82451  12.618   7.803   6.827
26871SOL    HW182452  12.573   7.724   6.798
26871SOL    HW282453  12.567   7.833   6.902
26872SOL     OW82454   9.374   4.572   7.207
26872SOL    HW182455   9.427   4.553   7.284
26872SOL    HW282456   9.385   4.666   7.193
26873SOL     OW82457  10.488   6.573   4.512
26873SOL    HW182458  10.413   6.566   4.572
26873SOL    HW282459  10.565   6.576   4.569
26874SOL     OW82460   1.457   2.403   8.216
26874SOL    HW182461   1.451   2.308   8.224
26874SOL    HW282462   1.535   2.426   8.266
26875SOL     OW82463   9.514   2.303  10.866
26875SOL    HW182464   9.471   2.219  10.849
26875SOL    HW282465   9.463   2.341  10.939
26876SOL     OW82466   8.031   6.951   8.188
26876SOL    HW182467   8.096   7.021   8.202
26876SOL    HW282468   7.949   6.988   8.221
26877SOL     OW82469  13.506  14.782   3.653
26877SOL    HW182470  13.560  14.821   3.584
26877SOL    HW282471  13.447  14.723   3.607
26878SOL     OW82472  10.830   8.878   3.227
26878SOL    HW182473  10.860   8.788   3.223
26878SOL    HW282474  10.769   8.887   3.154
26879SOL     OW82475   0.460   6.170  13.192
26879SOL    HW182476   0.446   6.147  13.101
26879SOL    HW282477   0.555   6.162  13.205
26880SOL     OW82478  10.988   3.836   0.334
26880SOL    HW182479  11.029   3.913   0.374
26880SOL    HW282480  10.967   3.778   0.408
26881SOL     OW82481   6.308   2.479   0.547
26881SOL    HW182482   6.311   2.430   0.629
26881SOL    HW282483   6.393   2.463   0.507
26882SOL     OW82484   5.184   0.429  12.604
26882SOL    HW182485   5.103   0.404  12.561
26882SOL    HW282486   5.238   0.465  12.533
26883SOL     OW82487  13.895  10.546   3.804
26883SOL    HW182488  13.959  10.550   3.875
26883SOL    HW282489  13.816  10.585   3.840
26884SOL     OW82490  14.449   0.799   4.724
26884SOL    HW182491  14.525   0.792   4.667
26884SOL    HW282492  14.462   0.731   4.790
26885SOL     OW82493   5.849   7.758   9.252
26885SOL    HW182494   5.824   7.797   9.168
26885SOL    HW282495   5.818   7.820   9.318
26886SOL     OW82496   0.708   1.925  11.840
26886SOL    HW182497   0.701   1.856  11.774
26886SOL    HW282498   0.708   1.878  11.923
26887SOL     OW82499   9.358  11.670   8.391
26887SOL    HW182500   9.356  11.731   8.317
26887SOL    HW282501   9.279  11.691   8.441
26888SOL     OW82502  13.380   6.016   7.145
26888SOL    HW182503  13.311   5.974   7.195
26888SOL    HW282504  13.407   6.090   7.200
26889SOL     OW82505   2.765   3.413  14.841
26889SOL    HW182506   2.670   3.412  14.834
26889SOL    HW282507   2.783   3.384   0.049
26890SOL     OW82508   8.373   9.150  13.805
26890SOL    HW182509   8.409   9.062  13.787
26890SOL    HW282510   8.446   9.209  13.789
26891SOL     OW82511   3.564   9.414   5.106
26891SOL    HW182512   3.623   9.341   5.089
26891SOL    HW282513   3.601   9.459   5.182
26892SOL     OW82514   3.631  13.170  13.442
26892SOL    HW182515   3.723  13.185  13.417
26892SOL    HW282516   3.635  13.100  13.507
26893SOL     OW82517   7.835  12.716   8.844
26893SOL    HW182518   7.889  12.747   8.916
26893SOL    HW282519   7.857  12.623   8.836
26894SOL     OW82520   3.745  12.277   1.663
26894SOL    HW182521   3.665  12.327   1.648
26894SOL    HW282522   3.749  12.214   1.591
26895SOL     OW82523   6.950   0.241   4.518
26895SOL    HW182524   6.988   0.260   4.604
26895SOL    HW282525   7.023   0.207   4.466
26896SOL     OW82526   5.753   7.780   8.549
26896SOL    HW182527   5.721   7.838   8.480
26896SOL    HW282528   5.680   7.774   8.611
26897SOL     OW82529   7.077  13.408   6.468
26897SOL    HW182530   7.085  13.394   6.373
26897SOL    HW282531   7.040  13.327   6.502
26898SOL     OW82532  12.592   0.183   5.955
26898SOL    HW182533  12.559   0.166   5.867
26898SOL    HW282534  12.514   0.194   6.009
26899SOL     OW82535   7.676   6.466   6.460
26899SOL    HW182536   7.753   6.410   6.461
26899SOL    HW282537   7.636   6.455   6.547
26900SOL     OW82538  13.947  13.351  11.817
26900SOL    HW182539  14.011  13.405  11.864
26900SOL    HW282540  13.988  13.333  11.733
26901SOL     OW82541   7.538   4.203  13.787
26901SOL    HW182542   7.594   4.276  13.816
26901SOL    HW282543   7.564   4.189  13.696
26902SOL     OW82544   2.805   8.636  10.674
26902SOL    HW182545   2.809   8.719  10.625
26902SOL    HW282546   2.877   8.642  10.737
26903SOL     OW82547   5.362   1.460   0.302
26903SOL    HW182548   5.371   1.554   0.318
26903SOL    HW282549   5.273   1.439   0.330
26904SOL     OW82550   5.109   8.163  12.751
26904SOL    HW182551   5.162   8.243  12.761
26904SOL    HW282552   5.105   8.149  12.657
26905SOL     OW82553   8.067  11.063  12.572
26905SOL    HW182554   8.034  10.974  12.565
26905SOL    HW282555   8.014  11.114  12.511
26906SOL     OW82556   1.914  11.694   1.554
26906SOL    HW182557   1.958  11.614   1.526
26906SOL    HW282558   1.937  11.704   1.646
26907SOL     OW82559  12.966  14.652  13.947
26907SOL    HW182560  12.908  14.631  13.874
26907SOL    HW282561  12.951  14.583  14.011
26908SOL     OW82562  13.995  14.219   6.143
26908SOL    HW182563  13.978  14.272   6.065
26908SOL    HW282564  13.909  14.189   6.171
26909SOL     OW82565   2.201   7.727  14.668
26909SOL    HW182566   2.293   7.724  14.693
26909SOL    HW282567   2.201   7.753  14.576
26910SOL     OW82568  14.654   4.047  12.865
26910SOL    HW182569  14.720   4.116  12.852
26910SOL    HW282570  14.575   4.082  12.824
26911SOL     OW82571  10.730   1.959   9.833
26911SOL    HW182572  10.670   1.914   9.773
26911SOL    HW282573  10.778   1.888   9.876
26912SOL     OW82574   0.196   4.497   0.867
26912SOL    HW182575   0.218   4.503   0.960
26912SOL    HW282576   0.147   4.416   0.858
26913SOL     OW82577   6.205  10.323  14.625
26913SOL    HW182578   6.117  10.342  14.591
26913SOL    HW282579   6.206  10.229  14.640
26914SOL     OW82580   8.764   2.019   4.942
26914SOL    HW182581   8.684   2.003   4.991
26914SOL    HW282582   8.835   2.003   5.005
26915SOL     OW82583  14.791   5.633  14.036
26915SOL    HW182584  14.796   5.728  14.027
26915SOL    HW282585  14.740   5.619  14.116
26916SOL     OW82586   0.769  14.278   7.925
26916SOL    HW182587   0.752  14.351   7.985
26916SOL    HW282588   0.770  14.201   7.981
26917SOL     OW82589   0.389   6.079  14.575
26917SOL    HW182590   0.313   6.122  14.536
26917SOL    HW282591   0.464   6.118  14.531
26918SOL     OW82592   0.742   8.756  10.562
26918SOL    HW182593   0.790   8.803  10.631
26918SOL    HW282594   0.650   8.779  10.577
26919SOL     OW82595   9.243   9.141  13.114
26919SOL    HW182596   9.246   9.050  13.144
26919SOL    HW282597   9.238   9.135  13.018
26920SOL     OW82598  14.873  11.216   5.907
26920SOL    HW182599  14.785  11.242   5.879
26920SOL    HW282600  14.872  11.229   6.002
26921SOL     OW82601   9.894   0.496   0.711
26921SOL    HW182602   9.959   0.497   0.640
26921SOL    HW282603   9.904   0.581   0.755
26922SOL     OW82604  12.376   2.230   9.129
26922SOL    HW182605  12.456   2.185   9.100
26922SOL    HW282606  12.348   2.181   9.207
26923SOL     OW82607   4.712  10.523   7.250
26923SOL    HW182608   4.720  10.573   7.331
26923SOL    HW282609   4.771  10.449   7.262
26924SOL     OW82610  11.764  14.751  10.808
26924SOL    HW182611  11.689  14.809  10.821
26924SOL    HW282612  11.821  14.798  10.747
26925SOL     OW82613  11.642  13.987  11.830
26925SOL    HW182614  11.707  13.998  11.900
26925SOL    HW282615  11.694  13.989  11.749
26926SOL     OW82616   9.986   9.725   6.571
26926SOL    HW182617  10.036   9.649   6.539
26926SOL    HW282618   9.919   9.687   6.628
26927SOL     OW82619   6.539   0.128  14.160
26927SOL    HW182620   6.489   0.088  14.090
26927SOL    HW282621   6.506   0.087  14.240
26928SOL     OW82622  14.873   6.754  14.109
26928SOL    HW182623  14.852   6.702  14.031
26928SOL    HW282624  14.789   6.792  14.135
26929SOL     OW82625  13.389   0.313   6.830
26929SOL    HW182626  13.367   0.220   6.832
26929SOL    HW282627  13.324   0.351   6.771
26930SOL     OW82628  11.183  11.235   7.120
26930SOL    HW182629  11.130  11.177   7.174
26930SOL    HW282630  11.131  11.314   7.110
26931SOL     OW82631  11.339   9.283   1.515
26931SOL    HW182632  11.380   9.366   1.537
26931SOL    HW282633  11.320   9.242   1.599
26932SOL     OW82634   3.294   9.149  12.885
26932SOL    HW182635   3.278   9.075  12.944
26932SOL    HW282636   3.243   9.221  12.923
26933SOL     OW82637   3.778  13.409   9.707
26933SOL    HW182638   3.787  13.334   9.766
26933SOL    HW282639   3.718  13.378   9.639
26934SOL     OW82640  10.186  12.406   2.792
26934SOL    HW182641  10.118  12.373   2.852
26934SOL    HW282642  10.148  12.485   2.754
26935SOL     OW82643   8.030  13.660   6.905
26935SOL    HW182644   8.037  13.591   6.839
26935SOL    HW282645   7.953  13.636   6.957
26936SOL     OW82646  11.123   1.322   0.865
26936SOL    HW182647  11.093   1.360   0.782
26936SOL    HW282648  11.212   1.290   0.846
26937SOL     OW82649   5.621  10.994   5.721
26937SOL    HW182650   5.716  10.986   5.713
26937SOL    HW282651   5.599  10.942   5.798
26938SOL     OW82652   0.176   7.391  10.954
26938SOL    HW182653   0.176   7.296  10.947
26938SOL    HW282654   0.215   7.410  11.039
26939SOL     OW82655   0.660  11.205   0.687
26939SOL    HW182656   0.605  11.167   0.756
26939SOL    HW282657   0.671  11.134   0.623
26940SOL     OW82658   1.127  12.996  14.156
26940SOL    HW182659   1.087  12.965  14.237
26940SOL    HW282660   1.155  12.916  14.112
26941SOL     OW82661  10.184   0.378   9.399
26941SOL    HW182662  10.117   0.311   9.388
26941SOL    HW282663  10.137   0.461   9.395
26942SOL     OW82664  12.149  13.957   4.123
26942SOL    HW182665  12.143  13.878   4.176
26942SOL    HW282666  12.243  13.976   4.119
26943SOL     OW82667   9.453   4.849   8.316
26943SOL    HW182668   9.471   4.760   8.285
26943SOL    HW282669   9.441   4.900   8.236
26944SOL     OW82670   3.114   1.368   4.879
26944SOL    HW182671   3.145   1.449   4.839
26944SOL    HW282672   3.187   1.307   4.868
26945SOL     OW82673  14.775   8.791   5.361
26945SOL    HW182674  14.835   8.716   5.359
26945SOL    HW282675  14.804   8.846   5.288
26946SOL     OW82676   4.387   8.765  11.885
26946SOL    HW182677   4.350   8.679  11.864
26946SOL    HW282678   4.481   8.751  11.891
26947SOL     OW82679   0.333   9.587   9.113
26947SOL    HW182680   0.249   9.631   9.103
26947SOL    HW282681   0.392   9.633   9.053
26948SOL     OW82682  10.084   1.726   0.056
26948SOL    HW182683  10.005   1.750   0.007
26948SOL    HW282684  10.154   1.773   0.012
26949SOL     OW82685  14.077   6.369   9.376
26949SOL    HW182686  14.066   6.328   9.289
26949SOL    HW282687  13.993   6.353   9.420
26950SOL     OW82688   3.942   3.033   6.666
26950SOL    HW182689   3.862   3.008   6.620
26950SOL    HW282690   4.012   2.992   6.616
26951SOL     OW82691   4.059  13.444   3.121
26951SOL    HW182692   4.004  13.370   3.148
26951SOL    HW282693   4.059  13.503   3.196
26952SOL     OW82694  13.283  11.094  12.684
26952SOL    HW182695  13.307  11.002  12.671
26952SOL    HW282696  13.198  11.090  12.728
26953SOL     OW82697   6.872  10.911  10.474
26953SOL    HW182698   6.799  10.948  10.424
26953SOL    HW282699   6.940  10.894  10.408
26954SOL     OW82700  13.926  12.060   9.331
26954SOL    HW182701  13.897  12.033   9.245
26954SOL    HW282702  13.973  12.142   9.316
26955SOL     OW82703  11.858   6.475  14.419
26955SOL    HW182704  11.829   6.550  14.368
26955SOL    HW282705  11.942   6.501  14.455
26956SOL     OW82706   1.733   4.744   4.097
26956SOL    HW182707   1.791   4.780   4.164
26956SOL    HW282708   1.740   4.805   4.023
26957SOL     OW82709   4.123   1.883  12.297
26957SOL    HW182710   4.145   1.973  12.274
26957SOL    HW282711   4.170   1.868  12.379
26958SOL     OW82712   4.610  13.652   7.165
26958SOL    HW182713   4.514  13.652   7.164
26958SOL    HW282714   4.635  13.622   7.077
26959SOL     OW82715   5.890   9.762   7.598
26959SOL    HW182716   5.889   9.729   7.688
26959SOL    HW282717   5.804   9.802   7.586
26960SOL     OW82718   5.186   3.314  14.265
26960SOL    HW182719   5.240   3.280  14.335
26960SOL    HW282720   5.210   3.263  14.188
26961SOL     OW82721   7.879   4.383   1.507
26961SOL    HW182722   7.799   4.430   1.482
26961SOL    HW282723   7.877   4.303   1.455
26962SOL     OW82724  10.003   4.973   8.661
26962SOL    HW182725   9.978   4.935   8.746
26962SOL    HW282726  10.045   5.056   8.684
26963SOL     OW82727   7.207   7.981  13.925
26963SOL    HW182728   7.290   8.024  13.903
26963SOL    HW282729   7.143   8.053  13.929
26964SOL     OW82730   6.728   2.117  10.230
26964SOL    HW182731   6.796   2.113  10.163
26964SOL    HW282732   6.665   2.181  10.197
26965SOL     OW82733   3.538  10.021   0.628
26965SOL    HW182734   3.542  10.027   0.532
26965SOL    HW282735   3.621   9.982   0.653
26966SOL     OW82736   2.049   6.070   2.195
26966SOL    HW182737   1.960   6.102   2.206
26966SOL    HW282738   2.082   6.055   2.283
26967SOL     OW82739  11.195   6.039   7.516
26967SOL    HW182740  11.219   6.063   7.606
26967SOL    HW282741  11.230   6.109   7.462
26968SOL     OW82742  12.252   6.157  13.574
26968SOL    HW182743  12.171   6.109  13.558
26968SOL    HW282744  12.225   6.249  13.581
26969SOL     OW82745   0.478   4.987  10.558
26969SOL    HW182746   0.547   4.956  10.617
26969SOL    HW282747   0.426   4.909  10.540
26970SOL     OW82748  14.217   1.140   4.592
26970SOL    HW182749  14.297   1.120   4.642
26970SOL    HW282750  14.214   1.235   4.589
26971SOL     OW82751   6.882  13.612   8.775
26971SOL    HW182752   6.916  13.532   8.816
26971SOL    HW282753   6.830  13.581   8.701
26972SOL     OW82754  14.529  11.685  11.497
26972SOL    HW182755  14.481  11.730  11.567
26972SOL    HW282756  14.603  11.743  11.478
26973SOL     OW82757   3.148   2.310   2.222
26973SOL    HW182758   3.064   2.271   2.197
26973SOL    HW282759   3.175   2.359   2.144
26974SOL     OW82760  10.080  10.177   6.400
26974SOL    HW182761  10.126  10.105   6.444
26974SOL    HW282762  10.102  10.165   6.308
26975SOL     OW82763   5.372  12.975   6.498
26975SOL    HW182764   5.315  13.045   6.532
26975SOL    HW282765   5.427  12.951   6.573
26976SOL     OW82766  10.029   8.291   8.580
26976SOL    HW182767  10.101   8.237   8.547
26976SOL    HW282768  10.026   8.366   8.520
26977SOL     OW82769   1.846  10.176   7.796
26977SOL    HW182770   1.891  10.091   7.789
26977SOL    HW282771   1.870  10.208   7.882
26978SOL     OW82772   7.582   7.342   3.412
26978SOL    HW182773   7.571   7.378   3.324
26978SOL    HW282774   7.495   7.312   3.436
26979SOL     OW82775   5.297  10.272   0.271
26979SOL    HW182776   5.325  10.256   0.181
26979SOL    HW282777   5.216  10.221   0.280
26980SOL     OW82778   7.565   7.447  11.625
26980SOL    HW182779   7.571   7.431  11.720
26980SOL    HW282780   7.472   7.432  11.604
26981SOL     OW82781   3.338   3.425   9.171
26981SOL    HW182782   3.418   3.471   9.144
26981SOL    HW282783   3.361   3.332   9.169
26982SOL     OW82784  12.663   3.039   5.512
26982SOL    HW182785  12.646   3.047   5.418
26982SOL    HW282786  12.755   3.014   5.518
26983SOL     OW82787  12.950  12.162   1.496
26983SOL    HW182788  12.887  12.142   1.565
26983SOL    HW282789  12.930  12.252   1.470
26984SOL     OW82790  12.319   1.112   2.006
26984SOL    HW182791  12.352   1.115   1.916
26984SOL    HW282792  12.391   1.075   2.057
26985SOL     OW82793   6.296   1.649   3.108
26985SOL    HW182794   6.235   1.694   3.166
26985SOL    HW282795   6.254   1.565   3.090
26986SOL     OW82796   4.851   0.636   8.221
26986SOL    HW182797   4.853   0.701   8.291
26986SOL    HW282798   4.787   0.670   8.158
26987SOL     OW82799   7.140   6.361   7.748
26987SOL    HW182800   7.146   6.345   7.842
26987SOL    HW282801   7.209   6.308   7.709
26988SOL     OW82802   2.124   8.860   9.915
26988SOL    HW182803   2.084   8.872  10.002
26988SOL    HW282804   2.051   8.841   9.857
26989SOL     OW82805   9.587   5.061  14.110
26989SOL    HW182806   9.528   5.086  14.039
26989SOL    HW282807   9.548   5.100  14.188
26990SOL     OW82808   2.274  14.855   8.527
26990SOL    HW182809   2.355  14.805   8.534
26990SOL    HW282810   2.290   0.034   8.455
26991SOL     OW82811   1.026   8.045   6.485
26991SOL    HW182812   0.948   8.016   6.437
26991SOL    HW282813   0.993   8.113   6.543
26992SOL     OW82814   3.618   2.903   0.303
26992SOL    HW182815   3.545   2.870   0.250
26992SOL    HW282816   3.696   2.864   0.263
26993SOL     OW82817  11.118   4.818   8.860
26993SOL    HW182818  11.102   4.740   8.806
26993SOL    HW282819  11.213   4.821   8.869
26994SOL     OW82820   5.338   3.113   1.254
26994SOL    HW182821   5.407   3.175   1.277
26994SOL    HW282822   5.384   3.038   1.217
26995SOL     OW82823  11.356  14.552   7.212
26995SOL    HW182824  11.267  14.586   7.218
26995SOL    HW282825  11.362  14.490   7.285
26996SOL     OW82826  12.389  10.802   4.002
26996SOL    HW182827  12.477  10.782   3.971
26996SOL    HW282828  12.391  10.781   4.096
26997SOL     OW82829   5.031   6.113  12.358
26997SOL    HW182830   5.119   6.116  12.319
26997SOL    HW282831   5.003   6.204  12.360
26998SOL     OW82832   1.599  11.130   4.621
26998SOL    HW182833   1.611  11.035   4.611
26998SOL    HW282834   1.581  11.142   4.714
26999SOL     OW82835  12.620   3.649  14.142
26999SOL    HW182836  12.667   3.694  14.212
26999SOL    HW282837  12.528   3.661  14.163
27000SOL     OW82838  14.012   7.414   1.339
27000SOL    HW182839  13.943   7.473   1.309
27000SOL    HW282840  14.082   7.424   1.275
27001SOL     OW82841   7.186  12.428   2.023
27001SOL    HW182842   7.262  12.378   2.053
27001SOL    HW282843   7.213  12.463   1.938
27002SOL     OW82844   3.257  13.896   7.236
27002SOL    HW182845   3.166  13.872   7.218
27002SOL    HW282846   3.277  13.853   7.319
27003SOL     OW82847   7.986   6.936   3.673
27003SOL    HW182848   7.980   6.842   3.688
27003SOL    HW282849   8.077   6.951   3.648
27004SOL     OW82850  13.881   3.259   5.191
27004SOL    HW182851  13.885   3.184   5.132
27004SOL    HW282852  13.971   3.272   5.221
27005SOL     OW82853  13.203   9.343  12.826
27005SOL    HW182854  13.239   9.391  12.901
27005SOL    HW282855  13.235   9.391  12.750
27006SOL     OW82856  13.777   7.279   4.199
27006SOL    HW182857  13.772   7.229   4.280
27006SOL    HW282858  13.741   7.365   4.222
27007SOL     OW82859   2.274  14.630   2.611
27007SOL    HW182860   2.246  14.564   2.547
27007SOL    HW282861   2.255  14.590   2.696
27008SOL     OW82862  13.181   8.593   7.886
27008SOL    HW182863  13.156   8.545   7.965
27008SOL    HW282864  13.276   8.584   7.882
27009SOL     OW82865   2.508   6.648  13.839
27009SOL    HW182866   2.582   6.707  13.856
27009SOL    HW282867   2.500   6.596  13.919
27010SOL     OW82868   6.497  11.976   6.631
27010SOL    HW182869   6.534  11.899   6.587
27010SOL    HW282870   6.573  12.026   6.660
27011SOL     OW82871   4.723  13.893   2.295
27011SOL    HW182872   4.776  13.972   2.286
27011SOL    HW282873   4.634  13.920   2.273
27012SOL     OW82874  10.902   7.265   1.715
27012SOL    HW182875  10.864   7.338   1.666
27012SOL    HW282876  10.986   7.248   1.671
27013SOL     OW82877   5.949   9.479   6.167
27013SOL    HW182878   6.026   9.498   6.114
27013SOL    HW282879   5.916   9.396   6.133
27014SOL     OW82880  10.755  12.372   2.755
27014SOL    HW182881  10.660  12.364   2.768
27014SOL    HW282882  10.793  12.345   2.839
27015SOL     OW82883  13.904  11.504  14.204
27015SOL    HW182884  13.909  11.533  14.295
27015SOL    HW282885  13.844  11.429  14.206
27016SOL     OW82886   9.666  12.706   1.626
27016SOL    HW182887   9.760  12.724   1.628
27016SOL    HW282888   9.660  12.612   1.641
27017SOL     OW82889   5.848  13.608   3.080
27017SOL    HW182890   5.788  13.571   3.145
27017SOL    HW282891   5.810  13.584   2.996
27018SOL     OW82892  13.691   9.827  14.535
27018SOL    HW182893  13.641   9.800  14.611
27018SOL    HW282894  13.699   9.922  14.544
27019SOL     OW82895   2.438   5.793  10.690
27019SOL    HW182896   2.413   5.762  10.777
27019SOL    HW282897   2.372   5.858  10.667
27020SOL     OW82898   6.258   3.435  12.176
27020SOL    HW182899   6.318   3.384  12.231
27020SOL    HW282900   6.201   3.480  12.238
27021SOL     OW82901   2.220   9.622  12.829
27021SOL    HW182902   2.155   9.555  12.850
27021SOL    HW282903   2.304   9.579  12.843
27022SOL     OW82904   8.845   2.443   3.677
27022SOL    HW182905   8.896   2.523   3.664
27022SOL    HW282906   8.755   2.469   3.657
27023SOL     OW82907   2.916   2.517   8.007
27023SOL    HW182908   2.951   2.548   8.091
27023SOL    HW282909   2.822   2.533   8.012
27024SOL     OW82910   3.861   2.781   0.590
27024SOL    HW182911   3.874   2.869   0.555
27024SOL    HW282912   3.949   2.742   0.591
27025SOL     OW82913   6.761  13.570   9.338
27025SOL    HW182914   6.678  13.526   9.323
27025SOL    HW282915   6.752  13.655   9.295
27026SOL     OW82916   3.204  12.640   0.817
27026SOL    HW182917   3.184  12.734   0.824
27026SOL    HW282918   3.282  12.637   0.762
27027SOL     OW82919   2.212   0.812   5.136
27027SOL    HW182920   2.297   0.851   5.116
27027SOL    HW282921   2.170   0.802   5.051
27028SOL     OW82922   8.544  11.721   5.935
27028SOL    HW182923   8.507  11.644   5.893
27028SOL    HW282924   8.638  11.716   5.916
27029SOL     OW82925   4.283  10.581  10.730
27029SOL    HW182926   4.233  10.515  10.681
27029SOL    HW282927   4.364  10.536  10.753
27030SOL     OW82928  13.529   6.943  13.239
27030SOL    HW182929  13.455   7.004  13.236
27030SOL    HW282930  13.530   6.903  13.152
27031SOL     OW82931   9.165   6.308  11.524
27031SOL    HW182932   9.098   6.241  11.510
27031SOL    HW282933   9.121   6.390  11.500
27032SOL     OW82934  14.559   3.711   0.123
27032SOL    HW182935  14.569   3.775   0.052
27032SOL    HW282936  14.470   3.677   0.111
27033SOL     OW82937   3.687   5.335   3.532
27033SOL    HW182938   3.769   5.376   3.501
27033SOL    HW282939   3.696   5.243   3.507
27034SOL     OW82940   0.693   3.295   5.911
27034SOL    HW182941   0.617   3.352   5.927
27034SOL    HW282942   0.727   3.276   5.999
27035SOL     OW82943  12.346  14.445   2.687
27035SOL    HW182944  12.425  14.495   2.708
27035SOL    HW282945  12.358  14.361   2.731
27036SOL     OW82946   3.045   5.088   5.790
27036SOL    HW182947   3.076   5.157   5.730
27036SOL    HW282948   3.076   5.115   5.876
27037SOL     OW82949   6.544   1.800  11.790
27037SOL    HW182950   6.524   1.718  11.745
27037SOL    HW282951   6.582   1.857  11.723
27038SOL     OW82952  13.664   8.052   2.284
27038SOL    HW182953  13.701   8.100   2.358
27038SOL    HW282954  13.606   7.987   2.324
27039SOL     OW82955   2.732   2.644   7.574
27039SOL    HW182956   2.816   2.687   7.593
27039SOL    HW282957   2.712   2.595   7.654
27040SOL     OW82958   0.331   4.956   9.009
27040SOL    HW182959   0.327   4.872   9.053
27040SOL    HW282960   0.362   5.017   9.077
27041SOL     OW82961  12.343   5.326   1.298
27041SOL    HW182962  12.330   5.406   1.349
27041SOL    HW282963  12.301   5.257   1.350
27042SOL     OW82964  10.874  13.710   2.444
27042SOL    HW182965  10.802  13.678   2.389
27042SOL    HW282966  10.945  13.728   2.382
27043SOL     OW82967   0.740   7.671   7.330
27043SOL    HW182968   0.800   7.619   7.276
27043SOL    HW282969   0.798   7.719   7.390
27044SOL     OW82970   4.911  11.857   8.882
27044SOL    HW182971   4.885  11.788   8.943
27044SOL    HW282972   4.851  11.847   8.808
27045SOL     OW82973   4.535  11.198   4.329
27045SOL    HW182974   4.519  11.207   4.235
27045SOL    HW282975   4.457  11.154   4.362
27046SOL     OW82976   2.664  14.856  10.074
27046SOL    HW182977   2.608  14.867  10.151
27046SOL    HW282978   2.641  14.769  10.041
27047SOL     OW82979   1.281   4.919  12.743
27047SOL    HW182980   1.275   4.922  12.839
27047SOL    HW282981   1.235   4.998  12.714
27048SOL     OW82982   2.270  10.948  14.675
27048SOL    HW182983   2.265  11.043  14.687
27048SOL    HW282984   2.184  10.916  14.701
27049SOL     OW82985   0.432  14.020  10.519
27049SOL    HW182986   0.443  14.023  10.614
27049SOL    HW282987   0.432  13.927  10.497
27050SOL     OW82988   1.955   3.157  14.580
27050SOL    HW182989   1.982   3.243  14.548
27050SOL    HW282990   1.908   3.175  14.662
27051SOL     OW82991   8.308  12.005   3.106
27051SOL    HW182992   8.273  12.059   3.177
27051SOL    HW282993   8.232  11.980   3.054
27052SOL     OW82994   4.857   2.564  10.311
27052SOL    HW182995   4.902   2.648  10.319
27052SOL    HW282996   4.833   2.558  10.219
27053SOL     OW82997  14.033   6.427  10.835
27053SOL    HW182998  13.959   6.461  10.885
27053SOL    HW282999  14.105   6.486  10.856
27054SOL     OW83000  13.203   5.763   2.745
27054SOL    HW183001  13.157   5.700   2.690
27054SOL    HW283002  13.162   5.755   2.831
27055SOL     OW83003   7.821   5.870  14.817
27055SOL    HW183004   7.766   5.792  14.812
27055SOL    HW283005   7.765   5.941  14.787
27056SOL     OW83006   7.366   6.485   2.554
27056SOL    HW183007   7.441   6.543   2.565
27056SOL    HW283008   7.341   6.460   2.643
27057SOL     OW83009   4.084   0.127   8.362
27057SOL    HW183010   4.084   0.221   8.347
27057SOL    HW283011   4.040   0.090   8.285
27058SOL     OW83012  11.500   2.048  13.342
27058SOL    HW183013  11.487   2.092  13.426
27058SOL    HW283014  11.453   2.101  13.278
27059SOL     OW83015   3.518   6.969   8.905
27059SOL    HW183016   3.463   6.958   8.828
27059SOL    HW283017   3.575   7.042   8.884
27060SOL     OW83018   9.991   0.494   4.650
27060SOL    HW183019   9.911   0.489   4.596
27060SOL    HW283020   9.963   0.538   4.730
27061SOL     OW83021   3.494  10.759  12.867
27061SOL    HW183022   3.589  10.768  12.876
27061SOL    HW283023   3.480  10.666  12.848
27062SOL     OW83024   0.059   0.053   3.093
27062SOL    HW183025   0.076   0.061   3.187
27062SOL    HW283026   0.015   0.135   3.070
27063SOL     OW83027   0.493   2.449   1.603
27063SOL    HW183028   0.423   2.384   1.598
27063SOL    HW283029   0.461   2.512   1.668
27064SOL     OW83030  12.768  11.815   0.973
27064SOL    HW183031  12.839  11.878   0.986
27064SOL    HW283032  12.810  11.729   0.985
27065SOL     OW83033   8.832  10.914  11.422
27065SOL    HW183034   8.900  10.915  11.355
27065SOL    HW283035   8.864  10.852  11.487
27066SOL     OW83036  10.756   5.789   3.747
27066SOL    HW183037  10.673   5.832   3.768
27066SOL    HW283038  10.733   5.698   3.732
27067SOL     OW83039  11.244   4.954  12.753
27067SOL    HW183040  11.225   4.997  12.836
27067SOL    HW283041  11.327   4.909  12.767
27068SOL     OW83042  13.175   2.098   6.381
27068SOL    HW183043  13.224   2.157   6.438
27068SOL    HW283044  13.110   2.058   6.438
27069SOL     OW83045   6.145   1.599  13.096
27069SOL    HW183046   6.188   1.524  13.136
27069SOL    HW283047   6.167   1.592  13.003
27070SOL     OW83048   3.425   1.530   7.490
27070SOL    HW183049   3.517   1.548   7.473
27070SOL    HW283050   3.388   1.511   7.404
27071SOL     OW83051  12.705   0.305   7.166
27071SOL    HW183052  12.796   0.310   7.196
27071SOL    HW283053  12.670   0.228   7.210
27072SOL     OW83054  10.068   2.408   3.671
27072SOL    HW183055  10.002   2.387   3.605
27072SOL    HW283056  10.134   2.339   3.661
27073SOL     OW83057   6.444  14.249   8.578
27073SOL    HW183058   6.421  14.197   8.501
27073SOL    HW283059   6.413  14.337   8.557
27074SOL     OW83060  11.545  13.968   1.252
27074SOL    HW183061  11.609  13.996   1.187
27074SOL    HW283062  11.593  13.969   1.335
27075SOL     OW83063   5.975   5.453  13.962
27075SOL    HW183064   5.983   5.388  14.032
27075SOL    HW283065   5.997   5.536  14.003
27076SOL     OW83066   6.902   7.966  14.793
27076SOL    HW183067   6.863   7.919  14.719
27076SOL    HW283068   6.834   7.965  14.861
27077SOL     OW83069  14.217   0.022   2.266
27077SOL    HW183070  14.177  14.847   2.200
27077SOL    HW283071  14.171   0.105   2.258
27078SOL     OW83072   1.228  12.818  10.399
27078SOL    HW183073   1.139  12.839  10.428
27078SOL    HW283074   1.216  12.752  10.331
27079SOL     OW83075   8.260  11.529  11.149
27079SOL    HW183076   8.348  11.516  11.185
27079SOL    HW283077   8.269  11.605  11.092
27080SOL     OW83078   8.801  12.498   6.490
27080SOL    HW183079   8.841  12.466   6.409
27080SOL    HW283080   8.754  12.422   6.524
27081SOL     OW83081   8.189   3.850  14.849
27081SOL    HW183082   8.213   3.757  14.853
27081SOL    HW283083   8.247   3.892   0.030
27082SOL     OW83084  12.391   8.901  11.973
27082SOL    HW183085  12.347   8.823  12.006
27082SOL    HW283086  12.352   8.916  11.887
27083SOL     OW83087   3.997   5.412   5.420
27083SOL    HW183088   3.973   5.492   5.467
27083SOL    HW283089   3.914   5.377   5.387
27084SOL     OW83090  13.141   0.279   4.688
27084SOL    HW183091  13.168   0.212   4.751
27084SOL    HW283092  13.130   0.232   4.605
27085SOL     OW83093   0.232   9.666  14.123
27085SOL    HW183094   0.216   9.750  14.080
27085SOL    HW283095   0.189   9.602  14.066
27086SOL     OW83096   6.893   0.216   8.510
27086SOL    HW183097   6.880   0.157   8.584
27086SOL    HW283098   6.887   0.304   8.549
27087SOL     OW83099   4.511  12.414  13.138
27087SOL    HW183100   4.472  12.439  13.221
27087SOL    HW283101   4.453  12.345  13.104
27088SOL     OW83102  13.129  11.119   5.369
27088SOL    HW183103  13.217  11.155   5.379
27088SOL    HW283104  13.127  11.042   5.426
27089SOL     OW83105  13.092   1.473  14.265
27089SOL    HW183106  13.159   1.437  14.207
27089SOL    HW283107  13.047   1.396  14.301
27090SOL     OW83108  10.877   5.190   6.731
27090SOL    HW183109  10.846   5.204   6.641
27090SOL    HW283110  10.954   5.247   6.738
27091SOL     OW83111  11.892  13.421  10.318
27091SOL    HW183112  11.820  13.409  10.255
27091SOL    HW283113  11.922  13.332  10.337
27092SOL     OW83114   7.860   0.253  11.764
27092SOL    HW183115   7.875   0.213  11.849
27092SOL    HW283116   7.765   0.265  11.759
27093SOL     OW83117   4.457   0.420   4.679
27093SOL    HW183118   4.369   0.454   4.695
27093SOL    HW283119   4.492   0.475   4.609
27094SOL     OW83120   7.141  11.124  12.273
27094SOL    HW183121   7.147  11.030  12.286
27094SOL    HW283122   7.049  11.145  12.292
27095SOL     OW83123   9.690   1.780  10.149
27095SOL    HW183124   9.724   1.720  10.082
27095SOL    HW283125   9.596   1.763  10.150
27096SOL     OW83126  10.944   9.631   0.873
27096SOL    HW183127  10.970   9.546   0.908
27096SOL    HW283128  10.896   9.673   0.944
27097SOL     OW83129   7.625   9.360   1.381
27097SOL    HW183130   7.605   9.284   1.327
27097SOL    HW283131   7.711   9.341   1.418
27098SOL     OW83132   1.363   5.314   4.531
27098SOL    HW183133   1.293   5.312   4.465
27098SOL    HW283134   1.372   5.223   4.559
27099SOL     OW83135  10.596   7.719  11.718
27099SOL    HW183136  10.597   7.624  11.717
27099SOL    HW283137  10.661   7.745  11.653
27100SOL     OW83138  11.069   0.121  12.529
27100SOL    HW183139  10.996   0.079  12.574
27100SOL    HW283140  11.045   0.214  12.526
27101SOL     OW83141  11.736   9.591   8.452
27101SOL    HW183142  11.758   9.571   8.543
27101SOL    HW283143  11.820   9.593   8.407
27102SOL     OW83144  10.666   8.033   8.316
27102SOL    HW183145  10.592   7.983   8.351
27102SOL    HW283146  10.702   8.078   8.392
27103SOL     OW83147   5.942  14.590   5.870
27103SOL    HW183148   5.921  14.658   5.935
27103SOL    HW283149   6.026  14.555   5.899
27104SOL     OW83150   7.951   3.840  12.907
27104SOL    HW183151   7.987   3.791  12.833
27104SOL    HW283152   7.998   3.806  12.983
27105SOL     OW83153   3.115   6.088   9.920
27105SOL    HW183154   3.202   6.082   9.882
27105SOL    HW283155   3.111   6.175   9.959
27106SOL     OW83156  14.876   7.523   1.959
27106SOL    HW183157   0.007   7.608   1.916
27106SOL    HW283158  14.787   7.528   1.993
27107SOL     OW83159   6.999  13.229   4.111
27107SOL    HW183160   7.036  13.145   4.139
27107SOL    HW283161   6.913  13.206   4.074
27108SOL     OW83162   7.028   7.349   4.132
27108SOL    HW183163   7.020   7.355   4.227
27108SOL    HW283164   6.941   7.319   4.102
27109SOL     OW83165   6.455  14.747   1.834
27109SOL    HW183166   6.464  14.697   1.915
27109SOL    HW283167   6.521  14.712   1.775
27110SOL     OW83168   3.110  12.921  12.600
27110SOL    HW183169   3.099  12.918  12.695
27110SOL    HW283170   3.037  12.869  12.566
27111SOL     OW83171   6.528   8.675   2.311
27111SOL    HW183172   6.474   8.599   2.289
27111SOL    HW283173   6.489   8.709   2.392
27112SOL     OW83174  11.978  14.216   9.039
27112SOL    HW183175  11.921  14.141   9.055
27112SOL    HW283176  11.921  14.283   9.003
27113SOL     OW83177  12.940   8.176   0.099
27113SOL    HW183178  12.985   8.135   0.173
27113SOL    HW283179  12.996   8.250   0.075
27114SOL     OW83180  11.674   2.901   8.345
27114SOL    HW183181  11.739   2.966   8.372
27114SOL    HW283182  11.688   2.827   8.403
27115SOL     OW83183   5.662  11.848   8.187
27115SOL    HW183184   5.632  11.832   8.277
27115SOL    HW283185   5.629  11.772   8.138
27116SOL     OW83186   0.071   9.153   3.156
27116SOL    HW183187   0.021   9.073   3.169
27116SOL    HW283188   0.032   9.216   3.217
27117SOL     OW83189   3.239   9.177   8.921
27117SOL    HW183190   3.268   9.121   8.849
27117SOL    HW283191   3.278   9.262   8.901
27118SOL     OW83192   6.330  14.662  11.230
27118SOL    HW183193   6.356  14.574  11.200
27118SOL    HW283194   6.375  14.722  11.171
27119SOL     OW83195  13.098  12.753   4.677
27119SOL    HW183196  13.139  12.706   4.604
27119SOL    HW283197  13.123  12.702   4.754
27120SOL     OW83198   5.505   8.825  13.848
27120SOL    HW183199   5.600   8.817  13.846
27120SOL    HW283200   5.489   8.920  13.850
27121SOL     OW83201   0.862   5.149   6.425
27121SOL    HW183202   0.957   5.152   6.440
27121SOL    HW283203   0.824   5.165   6.511
27122SOL     OW83204  11.241   6.284   2.048
27122SOL    HW183205  11.222   6.367   2.092
27122SOL    HW283206  11.237   6.218   2.117
27123SOL     OW83207  11.239   7.853   6.640
27123SOL    HW183208  11.302   7.905   6.590
27123SOL    HW283209  11.157   7.862   6.593
27124SOL     OW83210   9.170  10.029   4.077
27124SOL    HW183211   9.200   9.952   4.030
27124SOL    HW283212   9.146   9.997   4.164
27125SOL     OW83213  12.930   9.497  14.353
27125SOL    HW183214  12.886   9.581  14.340
27125SOL    HW283215  12.859   9.432  14.350
27126SOL     OW83216   5.669   3.929   3.571
27126SOL    HW183217   5.676   4.009   3.624
27126SOL    HW283218   5.661   3.858   3.635
27127SOL     OW83219   4.563  10.054  12.931
27127SOL    HW183220   4.563  10.150  12.938
27127SOL    HW283221   4.649  10.028  12.964
27128SOL     OW83222   4.204   2.243   9.334
27128SOL    HW183223   4.178   2.209   9.419
27128SOL    HW283224   4.167   2.181   9.271
27129SOL     OW83225   2.291   2.894   9.466
27129SOL    HW183226   2.201   2.861   9.470
27129SOL    HW283227   2.289   2.975   9.517
27130SOL     OW83228   1.776   7.169   3.289
27130SOL    HW183229   1.752   7.261   3.304
27130SOL    HW283230   1.774   7.129   3.375
27131SOL     OW83231  12.609   3.455   2.126
27131SOL    HW183232  12.539   3.520   2.136
27131SOL    HW283233  12.624   3.451   2.032
27132SOL     OW83234  11.416  13.934   7.470
27132SOL    HW183235  11.364  13.926   7.390
27132SOL    HW283236  11.499  13.890   7.451
27133SOL     OW83237   9.790   1.304   2.500
27133SOL    HW183238   9.803   1.370   2.432
27133SOL    HW283239   9.745   1.232   2.456
27134SOL     OW83240  10.664   5.398   4.426
27134SOL    HW183241  10.606   5.444   4.487
27134SOL    HW283242  10.640   5.306   4.435
27135SOL     OW83243  14.629   4.845   1.797
27135SOL    HW183244  14.633   4.790   1.719
27135SOL    HW283245  14.590   4.927   1.766
27136SOL     OW83246  13.776  10.011   0.680
27136SOL    HW183247  13.816  10.015   0.594
27136SOL    HW283248  13.685  10.037   0.666
27137SOL     OW83249   8.466   8.089   7.259
27137SOL    HW183250   8.436   8.177   7.234
27137SOL    HW283251   8.393   8.053   7.310
27138SOL     OW83252  14.481   6.611   0.202
27138SOL    HW183253  14.533   6.645   0.274
27138SOL    HW283254  14.484   6.516   0.212
27139SOL     OW83255   1.853   9.199   1.061
27139SOL    HW183256   1.875   9.292   1.050
27139SOL    HW283257   1.931   9.153   1.030
27140SOL     OW83258  13.975   6.611  13.548
27140SOL    HW183259  14.011   6.689  13.592
27140SOL    HW283260  14.040   6.543  13.565
27141SOL     OW83261   3.279   8.161   8.949
27141SOL    HW183262   3.214   8.211   8.998
27141SOL    HW283263   3.363   8.190   8.985
27142SOL     OW83264  14.812   9.358   2.739
27142SOL    HW183265  14.750   9.305   2.788
27142SOL    HW283266   0.005   9.368   2.798
27143SOL     OW83267  11.352  13.107  13.977
27143SOL    HW183268  11.281  13.102  14.041
27143SOL    HW283269  11.363  13.200  13.960
27144SOL     OW83270  13.621   1.711   2.968
27144SOL    HW183271  13.647   1.714   3.060
27144SOL    HW283272  13.550   1.647   2.966
27145SOL     OW83273   9.231   8.979   4.976
27145SOL    HW183274   9.153   8.926   4.964
27145SOL    HW283275   9.201   9.069   4.962
27146SOL     OW83276  12.441  14.490   3.684
27146SOL    HW183277  12.409  14.436   3.756
27146SOL    HW283278  12.497  14.432   3.633
27147SOL     OW83279   2.437   1.169   5.502
27147SOL    HW183280   2.494   1.093   5.490
27147SOL    HW283281   2.357   1.147   5.454
27148SOL     OW83282   5.001   6.480  10.725
27148SOL    HW183283   4.983   6.500  10.633
27148SOL    HW283284   5.089   6.514  10.740
27149SOL     OW83285  10.549  10.745   3.983
27149SOL    HW183286  10.491  10.669   3.987
27149SOL    HW283287  10.627  10.717   4.031
27150SOL     OW83288  13.158  13.014   0.927
27150SOL    HW183289  13.113  12.931   0.912
27150SOL    HW283290  13.110  13.055   0.999
27151SOL     OW83291  11.988   6.362   5.069
27151SOL    HW183292  11.971   6.372   5.162
27151SOL    HW283293  11.981   6.268   5.053
27152SOL     OW83294  13.687   3.888   6.018
27152SOL    HW183295  13.765   3.838   5.993
27152SOL    HW283296  13.625   3.822   6.049
27153SOL     OW83297   0.289   8.314   6.701
27153SOL    HW183298   0.368   8.347   6.659
27153SOL    HW283299   0.222   8.319   6.633
27154SOL     OW83300   3.251  14.026   3.691
27154SOL    HW183301   3.245  14.062   3.602
27154SOL    HW283302   3.281  13.936   3.679
27155SOL     OW83303  11.754  13.995   0.236
27155SOL    HW183304  11.750  14.017   0.143
27155SOL    HW283305  11.737  14.078   0.282
27156SOL     OW83306   9.707   5.680   6.201
27156SOL    HW183307   9.799   5.670   6.227
27156SOL    HW283308   9.711   5.709   6.110
27157SOL     OW83309   1.495   9.059   2.322
27157SOL    HW183310   1.416   9.113   2.329
27157SOL    HW283311   1.552   9.109   2.263
27158SOL     OW83312   5.074   5.336  11.443
27158SOL    HW183313   4.985   5.303  11.431
27158SOL    HW283314   5.064   5.415  11.496
27159SOL     OW83315  13.268  10.364  10.163
27159SOL    HW183316  13.327  10.440  10.166
27159SOL    HW283317  13.200  10.385  10.227
27160SOL     OW83318   7.684  13.458   3.657
27160SOL    HW183319   7.628  13.526   3.621
27160SOL    HW283320   7.647  13.439   3.744
27161SOL     OW83321   0.759  13.832   1.163
27161SOL    HW183322   0.799  13.797   1.243
27161SOL    HW283323   0.682  13.880   1.193
27162SOL     OW83324   2.194   8.590   8.172
27162SOL    HW183325   2.261   8.568   8.107
27162SOL    HW283326   2.207   8.527   8.243
27163SOL     OW83327   4.149   2.009  11.876
27163SOL    HW183328   4.056   1.986  11.877
27163SOL    HW283329   4.169   2.024  11.783
27164SOL     OW83330   5.215  13.365   8.516
27164SOL    HW183331   5.248  13.399   8.433
27164SOL    HW283332   5.293  13.357   8.571
27165SOL     OW83333   7.168   5.386   9.885
27165SOL    HW183334   7.251   5.399   9.839
27165SOL    HW283335   7.126   5.312   9.840
27166SOL     OW83336   1.370  11.784   6.228
27166SOL    HW183337   1.351  11.824   6.143
27166SOL    HW283338   1.331  11.697   6.224
27167SOL     OW83339   7.042   6.008   7.662
27167SOL    HW183340   6.959   6.009   7.710
27167SOL    HW283341   7.016   5.993   7.571
27168SOL     OW83342   5.774   2.367   7.154
27168SOL    HW183343   5.740   2.379   7.243
27168SOL    HW283344   5.758   2.452   7.112
27169SOL     OW83345   9.853   5.773   1.753
27169SOL    HW183346   9.946   5.763   1.771
27169SOL    HW283347   9.846   5.855   1.704
27170SOL     OW83348   7.443  10.149   0.696
27170SOL    HW183349   7.492  10.224   0.730
27170SOL    HW283350   7.491  10.073   0.728
27171SOL     OW83351   9.688   1.037   8.363
27171SOL    HW183352   9.720   0.985   8.290
27171SOL    HW283353   9.598   1.008   8.376
27172SOL     OW83354   8.777   2.415  13.980
27172SOL    HW183355   8.841   2.456  14.039
27172SOL    HW283356   8.717   2.486  13.957
27173SOL     OW83357   0.885   8.692  10.009
27173SOL    HW183358   0.970   8.665   9.975
27173SOL    HW283359   0.871   8.779   9.972
27174SOL     OW83360   9.768   3.962   3.167
27174SOL    HW183361   9.790   3.899   3.098
27174SOL    HW283362   9.704   4.020   3.126
27175SOL     OW83363  13.533   3.208  12.606
27175SOL    HW183364  13.589   3.243  12.675
27175SOL    HW283365  13.587   3.210  12.528
27176SOL     OW83366   7.340   6.261  13.464
27176SOL    HW183367   7.379   6.335  13.418
27176SOL    HW283368   7.327   6.195  13.396
27177SOL     OW83369   3.169  10.251   3.408
27177SOL    HW183370   3.172  10.234   3.314
27177SOL    HW283371   3.182  10.345   3.416
27178SOL     OW83372  10.277  10.327   5.715
27178SOL    HW183373  10.358  10.367   5.683
27178SOL    HW283374  10.236  10.395   5.768
27179SOL     OW83375   0.943   3.726   8.636
27179SOL    HW183376   0.925   3.796   8.699
27179SOL    HW283377   0.862   3.675   8.634
27180SOL     OW83378   7.962  10.090   7.664
27180SOL    HW183379   7.973  10.027   7.592
27180SOL    HW283380   7.904  10.046   7.726
27181SOL     OW83381  12.209   7.598   4.799
27181SOL    HW183382  12.142   7.534   4.774
27181SOL    HW283383  12.292   7.554   4.782
27182SOL     OW83384  10.233   1.262  10.142
27182SOL    HW183385  10.200   1.299  10.224
27182SOL    HW283386  10.202   1.171  10.143
27183SOL     OW83387  13.714  11.736   9.736
27183SOL    HW183388  13.649  11.800   9.705
27183SOL    HW283389  13.753  11.701   9.656
27184SOL     OW83390   2.511   6.562  14.087
27184SOL    HW183391   2.468   6.547  14.171
27184SOL    HW283392   2.597   6.597  14.109
27185SOL     OW83393   0.965  12.226  13.713
27185SOL    HW183394   0.953  12.132  13.700
27185SOL    HW283395   0.890  12.266  13.669
27186SOL     OW83396   1.799   2.444   6.417
27186SOL    HW183397   1.793   2.364   6.470
27186SOL    HW283398   1.867   2.496   6.460
27187SOL     OW83399   5.617   6.480  13.647
27187SOL    HW183400   5.640   6.388  13.657
27187SOL    HW283401   5.701   6.526  13.647
27188SOL     OW83402   8.887   3.064  10.786
27188SOL    HW183403   8.933   3.065  10.702
27188SOL    HW283404   8.802   3.105  10.767
27189SOL     OW83405  13.089   7.866  11.562
27189SOL    HW183406  13.027   7.922  11.609
27189SOL    HW283407  13.174   7.909  11.574
27190SOL     OW83408   1.996  12.236   2.723
27190SOL    HW183409   1.950  12.244   2.807
27190SOL    HW283410   1.960  12.156   2.684
27191SOL     OW83411   9.406   1.585   6.387
27191SOL    HW183412   9.381   1.592   6.479
27191SOL    HW283413   9.423   1.675   6.360
27192SOL     OW83414   7.306   3.601  10.374
27192SOL    HW183415   7.319   3.510  10.346
27192SOL    HW283416   7.321   3.653  10.294
27193SOL     OW83417   0.961   4.417   0.469
27193SOL    HW183418   1.028   4.350   0.457
27193SOL    HW283419   0.989   4.466   0.546
27194SOL     OW83420   8.132  11.329   0.014
27194SOL    HW183421   8.042  11.338   0.045
27194SOL    HW283422   8.174  11.410   0.041
27195SOL     OW83423  13.224  13.914   4.259
27195SOL    HW183424  13.164  13.973   4.212
27195SOL    HW283425  13.177  13.831   4.263
27196SOL     OW83426   6.075   2.495  14.006
27196SOL    HW183427   6.153   2.439  14.001
27196SOL    HW283428   6.007   2.439  14.041
27197SOL     OW83429   6.752  14.652   7.222
27197SOL    HW183430   6.762  14.608   7.138
27197SOL    HW283431   6.737  14.744   7.201
27198SOL     OW83432   6.306   2.246  13.289
27198SOL    HW183433   6.240   2.183  13.259
27198SOL    HW283434   6.279   2.329  13.251
27199SOL     OW83435   3.972   7.941   8.657
27199SOL    HW183436   3.975   7.861   8.709
27199SOL    HW283437   4.063   7.967   8.646
27200SOL     OW83438  13.165   1.937   4.368
27200SOL    HW183439  13.193   1.989   4.293
27200SOL    HW283440  13.227   1.864   4.371
27201SOL     OW83441  12.091   0.360   5.122
27201SOL    HW183442  12.065   0.269   5.109
27201SOL    HW283443  12.079   0.401   5.037
27202SOL     OW83444   4.088   5.179   5.024
27202SOL    HW183445   4.072   5.107   5.085
27202SOL    HW283446   4.004   5.190   4.979
27203SOL     OW83447   7.159   2.402  13.456
27203SOL    HW183448   7.249   2.370  13.468
27203SOL    HW283449   7.117   2.388  13.541
27204SOL     OW83450   4.492  11.834   4.785
27204SOL    HW183451   4.498  11.741   4.809
27204SOL    HW283452   4.567  11.848   4.727
27205SOL     OW83453   1.473  14.472   3.736
27205SOL    HW183454   1.534  14.541   3.762
27205SOL    HW283455   1.476  14.409   3.809
27206SOL     OW83456   6.418   0.159   5.001
27206SOL    HW183457   6.452   0.120   4.921
27206SOL    HW283458   6.371   0.237   4.972
27207SOL     OW83459  11.149   6.218   9.384
27207SOL    HW183460  11.070   6.223   9.437
27207SOL    HW283461  11.213   6.173   9.440
27208SOL     OW83462   4.051  13.882  14.328
27208SOL    HW183463   4.088  13.830  14.400
27208SOL    HW283464   4.051  13.972  14.360
27209SOL     OW83465  10.583   8.829  13.859
27209SOL    HW183466  10.622   8.874  13.934
27209SOL    HW283467  10.606   8.884  13.784
27210SOL     OW83468  10.427  12.247  12.692
27210SOL    HW183469  10.474  12.313  12.742
27210SOL    HW283470  10.359  12.215  12.751
27211SOL     OW83471   5.618   2.066  10.842
27211SOL    HW183472   5.683   2.051  10.773
27211SOL    HW283473   5.663   2.045  10.923
27212SOL     OW83474   5.180  11.351  11.027
27212SOL    HW183475   5.213  11.433  10.991
27212SOL    HW283476   5.191  11.361  11.122
27213SOL     OW83477   2.049  11.939  11.039
27213SOL    HW183478   2.055  11.860  10.984
27213SOL    HW283479   2.138  11.954  11.070
27214SOL     OW83480  11.959   3.336  13.028
27214SOL    HW183481  11.966   3.326  12.933
27214SOL    HW283482  12.049   3.326  13.060
27215SOL     OW83483  10.445   1.459  10.138
27215SOL    HW183484  10.373   1.396  10.134
27215SOL    HW283485  10.505   1.431  10.069
27216SOL     OW83486   0.553  13.459   0.955
27216SOL    HW183487   0.544  13.549   0.986
27216SOL    HW283488   0.481  13.448   0.892
27217SOL     OW83489   2.701  12.811   6.403
27217SOL    HW183490   2.743  12.740   6.355
27217SOL    HW283491   2.721  12.793   6.495
27218SOL     OW83492  12.382   8.629  12.432
27218SOL    HW183493  12.322   8.647  12.360
27218SOL    HW283494  12.330   8.641  12.511
27219SOL     OW83495   9.359   4.578   1.115
27219SOL    HW183496   9.340   4.671   1.122
27219SOL    HW283497   9.351   4.544   1.204
27220SOL     OW83498  14.089   2.488   6.628
27220SOL    HW183499  14.132   2.420   6.576
27220SOL    HW283500  14.160   2.542   6.661
27221SOL     OW83501  13.880   6.604   7.382
27221SOL    HW183502  13.833   6.564   7.455
27221SOL    HW283503  13.839   6.568   7.304
27222SOL     OW83504  13.282   5.958  10.556
27222SOL    HW183505  13.220   5.993  10.620
27222SOL    HW283506  13.278   5.863  10.568
27223SOL     OW83507   6.011  12.588   7.797
27223SOL    HW183508   6.003  12.499   7.761
27223SOL    HW283509   6.054  12.576   7.881
27224SOL     OW83510   7.516   6.650   8.981
27224SOL    HW183511   7.540   6.679   8.893
27224SOL    HW283512   7.466   6.724   9.017
27225SOL     OW83513   6.073   8.831  11.862
27225SOL    HW183514   6.103   8.761  11.803
27225SOL    HW283515   6.150   8.855  11.912
27226SOL     OW83516   2.821  11.024  14.738
27226SOL    HW183517   2.745  11.051  14.687
27226SOL    HW283518   2.896  11.064  14.693
27227SOL     OW83519   6.836   6.871   4.612
27227SOL    HW183520   6.751   6.873   4.655
27227SOL    HW283521   6.827   6.805   4.544
27228SOL     OW83522   6.390  10.582   9.951
27228SOL    HW183523   6.322  10.515   9.958
27228SOL    HW283524   6.397  10.618  10.040
27229SOL     OW83525   4.678  12.111   8.760
27229SOL    HW183526   4.662  12.205   8.757
27229SOL    HW283527   4.751  12.097   8.700
27230SOL     OW83528  12.232   3.465   0.398
27230SOL    HW183529  12.281   3.463   0.316
27230SOL    HW283530  12.295   3.495   0.464
27231SOL     OW83531   6.797   2.326  13.436
27231SOL    HW183532   6.704   2.347  13.427
27231SOL    HW283533   6.814   2.264  13.365
27232SOL     OW83534  12.831  12.356  13.040
27232SOL    HW183535  12.841  12.272  13.084
27232SOL    HW283536  12.826  12.420  13.111
27233SOL     OW83537  11.861   7.637   8.805
27233SOL    HW183538  11.830   7.618   8.894
27233SOL    HW283539  11.790   7.608   8.748
27234SOL     OW83540   7.970   4.571   3.559
27234SOL    HW183541   7.903   4.588   3.493
27234SOL    HW283542   7.979   4.654   3.606
27235SOL     OW83543   8.139  10.240   5.695
27235SOL    HW183544   8.072  10.305   5.715
27235SOL    HW283545   8.186  10.277   5.620
27236SOL     OW83546   6.158  13.426   1.423
27236SOL    HW183547   6.072  13.452   1.392
27236SOL    HW283548   6.180  13.349   1.371
27237SOL     OW83549   6.763   6.609   6.744
27237SOL    HW183550   6.787   6.540   6.806
27237SOL    HW283551   6.790   6.690   6.788
27238SOL     OW83552   6.010   7.471   7.861
27238SOL    HW183553   6.000   7.452   7.954
27238SOL    HW283554   5.946   7.541   7.844
27239SOL     OW83555  14.873  10.214   4.417
27239SOL    HW183556  14.792  10.261   4.436
27239SOL    HW283557  14.848  10.146   4.354
27240SOL     OW83558   6.249  10.473  14.872
27240SOL    HW183559   6.242  10.454  14.778
27240SOL    HW283560   6.260  10.387   0.031
27241SOL     OW83561   2.885   7.644  13.273
27241SOL    HW183562   2.935   7.588  13.332
27241SOL    HW283563   2.928   7.730  13.279
27242SOL     OW83564   2.973   1.929   9.954
27242SOL    HW183565   3.062   1.932   9.989
27242SOL    HW283566   2.944   1.839   9.966
27243SOL     OW83567   6.459  12.541  13.918
27243SOL    HW183568   6.434  12.617  13.866
27243SOL    HW283569   6.484  12.578  14.003
27244SOL     OW83570   3.554   9.228   1.728
27244SOL    HW183571   3.469   9.264   1.750
27244SOL    HW283572   3.535   9.160   1.663
27245SOL     OW83573   4.058  12.289  14.873
27245SOL    HW183574   4.137  12.245   0.021
27245SOL    HW283575   4.079  12.383  14.875
27246SOL     OW83576   4.186  12.680   8.220
27246SOL    HW183577   4.176  12.596   8.265
27246SOL    HW283578   4.281  12.692   8.212
27247SOL     OW83579   4.244   5.781  12.939
27247SOL    HW183580   4.235   5.691  12.972
27247SOL    HW283581   4.180   5.786  12.868
27248SOL     OW83582   4.786   1.938   9.851
27248SOL    HW183583   4.726   1.875   9.809
27248SOL    HW283584   4.745   1.958   9.935
27249SOL     OW83585   6.141  11.586   8.992
27249SOL    HW183586   6.072  11.652   9.003
27249SOL    HW283587   6.219  11.637   8.970
27250SOL     OW83588   5.295   8.730  13.986
27250SOL    HW183589   5.317   8.637  13.982
27250SOL    HW283590   5.358   8.772  13.928
27251SOL     OW83591  10.743   9.924   6.872
27251SOL    HW183592  10.799   9.977   6.929
27251SOL    HW283593  10.654   9.956   6.890
27252SOL     OW83594   9.588  11.820   3.846
27252SOL    HW183595   9.608  11.817   3.753
27252SOL    HW283596   9.515  11.882   3.853
27253SOL     OW83597   8.319   2.082  10.771
27253SOL    HW183598   8.277   2.013  10.822
27253SOL    HW283599   8.261   2.095  10.695
27254SOL     OW83600  12.551   3.477  10.287
27254SOL    HW183601  12.560   3.504  10.378
27254SOL    HW283602  12.495   3.400  10.290
27255SOL     OW83603  10.877   0.074   6.405
27255SOL    HW183604  10.972   0.079   6.392
27255SOL    HW283605  10.860  14.862   6.416
27256SOL     OW83606  11.983   8.704   7.427
27256SOL    HW183607  11.945   8.622   7.459
27256SOL    HW283608  11.988   8.691   7.332
27257SOL     OW83609   4.882   0.309   1.713
27257SOL    HW183610   4.866   0.329   1.805
27257SOL    HW283611   4.814   0.246   1.690
27258SOL     OW83612   0.742   1.074  13.950
27258SOL    HW183613   0.676   1.105  13.887
27258SOL    HW283614   0.733   1.134  14.024
27259SOL     OW83615  12.225   8.002  12.294
27259SOL    HW183616  12.282   7.951  12.352
27259SOL    HW283617  12.275   8.083  12.277
27260SOL     OW83618   3.806   3.962   2.282
27260SOL    HW183619   3.723   4.002   2.306
27260SOL    HW283620   3.784   3.871   2.262
27261SOL     OW83621   3.500   8.500   6.093
27261SOL    HW183622   3.581   8.456   6.069
27261SOL    HW283623   3.519   8.543   6.176
27262SOL     OW83624   9.378  13.848   7.402
27262SOL    HW183625   9.412  13.765   7.435
27262SOL    HW283626   9.389  13.910   7.475
27263SOL     OW83627   9.787   2.691   3.606
27263SOL    HW183628   9.871   2.700   3.562
27263SOL    HW283629   9.805   2.708   3.699
27264SOL     OW83630  13.382  12.966  12.867
27264SOL    HW183631  13.328  12.957  12.788
27264SOL    HW283632  13.353  12.896  12.925
27265SOL     OW83633  11.779  12.459  13.678
27265SOL    HW183634  11.753  12.406  13.754
27265SOL    HW283635  11.723  12.428  13.607
27266SOL     OW83636  10.401   1.250   1.109
27266SOL    HW183637  10.463   1.200   1.162
27266SOL    HW283638  10.327   1.191   1.097
27267SOL     OW83639  11.734  13.350  10.108
27267SOL    HW183640  11.675  13.416  10.070
27267SOL    HW283641  11.741  13.282  10.041
27268SOL     OW83642   4.816   1.972   1.545
27268SOL    HW183643   4.834   1.963   1.452
27268SOL    HW283644   4.724   1.947   1.555
27269SOL     OW83645  11.022   9.596   4.138
27269SOL    HW183646  10.983   9.512   4.163
27269SOL    HW283647  11.032   9.589   4.043
27270SOL     OW83648   3.132  12.384  11.840
27270SOL    HW183649   3.144  12.479  11.840
27270SOL    HW283650   3.149  12.357  11.750
27271SOL     OW83651   4.686   7.060  10.090
27271SOL    HW183652   4.591   7.071  10.087
27271SOL    HW283653   4.700   6.974  10.130
27272SOL     OW83654   0.322   8.456   2.660
27272SOL    HW183655   0.271   8.536   2.676
27272SOL    HW283656   0.360   8.469   2.573
27273SOL     OW83657   3.033  11.062   6.661
27273SOL    HW183658   3.072  11.018   6.735
27273SOL    HW283659   2.944  11.084   6.689
27274SOL     OW83660   8.923   7.807  10.842
27274SOL    HW183661   8.919   7.711  10.837
27274SOL    HW283662   8.971   7.832  10.763
27275SOL     OW83663   6.941  12.726  13.050
27275SOL    HW183664   7.034  12.716  13.067
27275SOL    HW283665   6.908  12.636  13.045
27276SOL     OW83666   7.457   6.196   6.833
27276SOL    HW183667   7.537   6.192   6.886
27276SOL    HW283668   7.388   6.166   6.893
27277SOL     OW83669  12.081   0.916   4.436
27277SOL    HW183670  12.004   0.874   4.398
27277SOL    HW283671  12.145   0.845   4.446
27278SOL     OW83672   8.753  13.730   0.388
27278SOL    HW183673   8.696  13.709   0.461
27278SOL    HW283674   8.738  13.661   0.324
27279SOL     OW83675   0.450   4.719   6.349
27279SOL    HW183676   0.406   4.655   6.294
27279SOL    HW283677   0.461   4.796   6.294
27280SOL     OW83678  14.192   8.480   4.370
27280SOL    HW183679  14.283   8.487   4.397
27280SOL    HW283680  14.146   8.544   4.423
27281SOL     OW83681   0.148   4.362   8.305
27281SOL    HW183682   0.108   4.283   8.341
27281SOL    HW283683   0.153   4.346   8.211
27282SOL     OW83684  10.196  12.880   9.555
27282SOL    HW183685  10.255  12.825   9.503
27282SOL    HW283686  10.208  12.968   9.521
27283SOL     OW83687   7.124   0.178  14.223
27283SOL    HW183688   7.139   0.119  14.297
27283SOL    HW283689   7.034   0.158  14.194
27284SOL     OW83690   0.833  10.760  11.354
27284SOL    HW183691   0.844  10.852  11.378
27284SOL    HW283692   0.739  10.748  11.348
27285SOL     OW83693   3.922   5.892   3.847
27285SOL    HW183694   3.972   5.855   3.774
27285SOL    HW283695   3.980   5.881   3.923
27286SOL     OW83696   5.670   4.534   9.427
27286SOL    HW183697   5.710   4.487   9.500
27286SOL    HW283698   5.619   4.467   9.380
27287SOL     OW83699  14.055  13.436   2.926
27287SOL    HW183700  14.070  13.391   3.009
27287SOL    HW283701  14.112  13.512   2.928
27288SOL     OW83702   0.148  14.500  10.948
27288SOL    HW183703   0.081  14.476  10.883
27288SOL    HW283704   0.207  14.559  10.901
27289SOL     OW83705   0.189  10.931   6.560
27289SOL    HW183706   0.109  10.969   6.596
27289SOL    HW283707   0.260  10.976   6.605
27290SOL     OW83708   5.457   5.991   2.348
27290SOL    HW183709   5.526   5.924   2.354
27290SOL    HW283710   5.415   5.974   2.263
27291SOL     OW83711  11.771  12.681   8.706
27291SOL    HW183712  11.809  12.733   8.777
27291SOL    HW283713  11.810  12.595   8.715
27292SOL     OW83714  11.541   1.313  11.959
27292SOL    HW183715  11.496   1.393  11.934
27292SOL    HW283716  11.472   1.250  11.977
27293SOL     OW83717   6.726  12.119   0.745
27293SOL    HW183718   6.735  12.075   0.829
27293SOL    HW283719   6.734  12.212   0.765
27294SOL     OW83720   5.129   9.715   1.675
27294SOL    HW183721   5.213   9.738   1.635
27294SOL    HW283722   5.072   9.789   1.655
27295SOL     OW83723   6.062   5.539   8.343
27295SOL    HW183724   6.155   5.557   8.329
27295SOL    HW283725   6.026   5.619   8.380
27296SOL     OW83726   8.298   3.338  14.708
27296SOL    HW183727   8.231   3.393  14.669
27296SOL    HW283728   8.250   3.266  14.748
27297SOL     OW83729   4.016  10.975   5.826
27297SOL    HW183730   4.072  11.020   5.890
27297SOL    HW283731   3.951  10.930   5.880
27298SOL     OW83732   1.612  11.445   5.010
27298SOL    HW183733   1.611  11.491   4.926
27298SOL    HW283734   1.698  11.465   5.047
27299SOL     OW83735   9.899   9.278   0.749
27299SOL    HW183736   9.976   9.263   0.694
27299SOL    HW283737   9.921   9.357   0.799
27300SOL     OW83738   0.657   6.142   8.915
27300SOL    HW183739   0.700   6.187   8.987
27300SOL    HW283740   0.641   6.210   8.849
27301SOL     OW83741   5.115   1.173   2.785
27301SOL    HW183742   5.042   1.126   2.824
27301SOL    HW283743   5.078   1.256   2.756
27302SOL     OW83744   0.246   2.537   6.243
27302SOL    HW183745   0.275   2.548   6.152
27302SOL    HW283746   0.165   2.487   6.237
27303SOL     OW83747   7.842   6.450   1.491
27303SOL    HW183748   7.900   6.390   1.538
27303SOL    HW283749   7.893   6.529   1.479
27304SOL     OW83750   5.051   6.503   5.943
27304SOL    HW183751   4.997   6.581   5.936
27304SOL    HW283752   5.131   6.532   5.987
27305SOL     OW83753   9.721  14.483   6.800
27305SOL    HW183754   9.645  14.540   6.811
27305SOL    HW283755   9.778  14.532   6.739
27306SOL     OW83756  14.668  14.113   2.220
27306SOL    HW183757  14.593  14.080   2.270
27306SOL    HW283758  14.704  14.182   2.275
27307SOL     OW83759  10.712   2.958   2.154
27307SOL    HW183760  10.723   2.996   2.067
27307SOL    HW283761  10.698   2.864   2.137
27308SOL     OW83762  10.317   4.233   4.599
27308SOL    HW183763  10.315   4.313   4.546
27308SOL    HW283764  10.396   4.187   4.570
27309SOL     OW83765   3.944   0.412  12.868
27309SOL    HW183766   3.913   0.333  12.912
27309SOL    HW283767   3.877   0.431  12.802
27310SOL     OW83768  11.978  10.935   8.246
27310SOL    HW183769  12.009  11.005   8.189
27310SOL    HW283770  12.039  10.936   8.321
27311SOL     OW83771  14.041   8.374  10.690
27311SOL    HW183772  13.949   8.381  10.716
27311SOL    HW283773  14.079   8.311  10.752
27312SOL     OW83774   4.182   3.723  11.964
27312SOL    HW183775   4.194   3.630  11.947
27312SOL    HW283776   4.162   3.728  12.058
27313SOL     OW83777  13.272  14.863  12.818
27313SOL    HW183778  13.251   0.003  12.727
27313SOL    HW283779  13.367  14.873  12.824
27314SOL     OW83780   2.050   2.206  14.174
27314SOL    HW183781   2.091   2.123  14.198
27314SOL    HW283782   2.111   2.246  14.112
27315SOL     OW83783   8.532   0.762   9.234
27315SOL    HW183784   8.450   0.810   9.245
27315SOL    HW283785   8.532   0.699   9.306
27316SOL     OW83786   6.168   2.901  13.695
27316SOL    HW183787   6.078   2.926  13.672
27316SOL    HW283788   6.165   2.884  13.789
27317SOL     OW83789   1.470   0.003   9.675
27317SOL    HW183790   1.515   0.085   9.694
27317SOL    HW283791   1.495  14.864   9.584
27318SOL     OW83792   3.041  13.148  13.246
27318SOL    HW183793   2.963  13.173  13.196
27318SOL    HW283794   3.008  13.125  13.333
27319SOL     OW83795   3.288   2.384   7.074
27319SOL    HW183796   3.336   2.467   7.075
27319SOL    HW283797   3.214   2.400   7.016
27320SOL     OW83798   4.214   1.534   9.377
27320SOL    HW183799   4.119   1.519   9.379
27320SOL    HW283800   4.225   1.624   9.407
27321SOL     OW83801   6.383  10.424   3.584
27321SOL    HW183802   6.473  10.454   3.570
27321SOL    HW283803   6.390  10.360   3.655
27322SOL     OW83804  11.958  11.630   6.928
27322SOL    HW183805  12.044  11.641   6.887
27322SOL    HW283806  11.923  11.718   6.935
27323SOL     OW83807   7.767   8.478   5.365
27323SOL    HW183808   7.745   8.570   5.346
27323SOL    HW283809   7.860   8.479   5.384
27324SOL     OW83810  12.061   7.356   8.865
27324SOL    HW183811  12.012   7.387   8.941
27324SOL    HW283812  12.125   7.425   8.847
27325SOL     OW83813   9.388   2.000   6.177
27325SOL    HW183814   9.417   2.005   6.087
27325SOL    HW283815   9.353   2.088   6.196
27326SOL     OW83816   0.111  10.650   4.701
27326SOL    HW183817   0.113  10.688   4.789
27326SOL    HW283818   0.203  10.651   4.673
27327SOL     OW83819   9.323  13.629   4.951
27327SOL    HW183820   9.333  13.535   4.938
27327SOL    HW283821   9.346  13.644   5.042
27328SOL     OW83822   1.988  14.380   5.391
27328SOL    HW183823   1.940  14.305   5.357
27328SOL    HW283824   2.019  14.426   5.314
27329SOL     OW83825  10.192   0.886   8.529
27329SOL    HW183826  10.287   0.884   8.525
27329SOL    HW283827  10.172   0.881   8.623
27330SOL     OW83828   4.932  11.400   0.009
27330SOL    HW183829   5.027  11.401   0.017
27330SOL    HW283830   4.900  11.425   0.096
27331SOL     OW83831   6.315   8.236  12.021
27331SOL    HW183832   6.287   8.268  11.936
27331SOL    HW283833   6.284   8.146  12.024
27332SOL     OW83834   5.880  11.685   8.996
27332SOL    HW183835   5.837  11.753   8.944
27332SOL    HW283836   5.856  11.603   8.952
27333SOL     OW83837  11.190  12.886   1.796
27333SOL    HW183838  11.285  12.890   1.808
27333SOL    HW283839  11.172  12.793   1.780
27334SOL     OW83840   6.575   7.757   5.983
27334SOL    HW183841   6.628   7.797   6.053
27334SOL    HW283842   6.561   7.828   5.920
27335SOL     OW83843  14.338   0.280   9.927
27335SOL    HW183844  14.375   0.294  10.014
27335SOL    HW283845  14.244   0.271   9.941
27336SOL     OW83846   1.374   4.304   6.409
27336SOL    HW183847   1.436   4.309   6.336
27336SOL    HW283848   1.340   4.215   6.405
27337SOL     OW83849  12.738   1.206   8.857
27337SOL    HW183850  12.647   1.185   8.838
27337SOL    HW283851  12.788   1.164   8.786
27338SOL     OW83852   1.286  13.119  12.316
27338SOL    HW183853   1.345  13.068  12.370
27338SOL    HW283854   1.325  13.207  12.315
27339SOL     OW83855   7.559   5.530   5.618
27339SOL    HW183856   7.470   5.564   5.629
27339SOL    HW283857   7.593   5.576   5.541
27340SOL     OW83858  12.109  11.869  14.735
27340SOL    HW183859  12.021  11.900  14.713
27340SOL    HW283860  12.098  11.775  14.749
27341SOL     OW83861   5.127   5.883   2.980
27341SOL    HW183862   5.150   5.903   3.070
27341SOL    HW283863   5.199   5.920   2.928
27342SOL     OW83864  11.853   6.157  12.442
27342SOL    HW183865  11.833   6.115  12.525
27342SOL    HW283866  11.913   6.228  12.464
27343SOL     OW83867  13.853   8.363   0.803
27343SOL    HW183868  13.889   8.411   0.879
27343SOL    HW283869  13.865   8.423   0.730
27344SOL     OW83870   9.391   6.431   8.989
27344SOL    HW183871   9.341   6.409   9.068
27344SOL    HW283872   9.364   6.520   8.968
27345SOL     OW83873   6.194   0.329   7.382
27345SOL    HW183874   6.202   0.379   7.301
27345SOL    HW283875   6.179   0.395   7.450
27346SOL     OW83876   7.563  13.348  13.592
27346SOL    HW183877   7.472  13.344  13.563
27346SOL    HW283878   7.614  13.329  13.513
27347SOL     OW83879   6.320   8.217  10.556
27347SOL    HW183880   6.339   8.310  10.548
27347SOL    HW283881   6.292   8.206  10.647
27348SOL     OW83882   9.971  10.024   9.534
27348SOL    HW183883   9.912  10.091   9.499
27348SOL    HW283884   9.914   9.949   9.552
27349SOL     OW83885   9.866   3.656  13.563
27349SOL    HW183886   9.786   3.607  13.546
27349SOL    HW283887   9.937   3.595  13.542
27350SOL     OW83888   5.548  14.184   4.883
27350SOL    HW183889   5.606  14.108   4.879
27350SOL    HW283890   5.603  14.255   4.915
27351SOL     OW83891   7.062   1.345  13.810
27351SOL    HW183892   7.151   1.314  13.793
27351SOL    HW283893   7.005   1.274  13.778
27352SOL     OW83894  11.675   8.393   2.742
27352SOL    HW183895  11.680   8.478   2.785
27352SOL    HW283896  11.760   8.383   2.699
27353SOL     OW83897   2.635  13.907  14.131
27353SOL    HW183898   2.713  13.893  14.184
27353SOL    HW283899   2.595  13.820  14.125
27354SOL     OW83900   6.130  11.170  14.377
27354SOL    HW183901   6.181  11.166  14.458
27354SOL    HW283902   6.177  11.113  14.316
27355SOL     OW83903   5.635   9.470  12.549
27355SOL    HW183904   5.622   9.418  12.628
27355SOL    HW283905   5.566   9.441  12.489
27356SOL     OW83906   1.512   4.623   6.447
27356SOL    HW183907   1.472   4.542   6.478
27356SOL    HW283908   1.503   4.684   6.521
27357SOL     OW83909   0.059  11.053   5.451
27357SOL    HW183910   0.089  10.963   5.459
27357SOL    HW283911   0.064  11.089   5.540
27358SOL     OW83912  10.983  10.243  11.714
27358SOL    HW183913  11.074  10.263  11.694
27358SOL    HW283914  10.987  10.164  11.768
27359SOL     OW83915   6.093   7.663   0.371
27359SOL    HW183916   6.169   7.606   0.368
27359SOL    HW283917   6.046   7.637   0.451
27360SOL     OW83918  11.625  12.878   3.185
27360SOL    HW183919  11.535  12.846   3.192
27360SOL    HW283920  11.641  12.883   3.091
27361SOL     OW83921   2.514  10.891   7.510
27361SOL    HW183922   2.435  10.861   7.555
27361SOL    HW283923   2.510  10.849   7.424
27362SOL     OW83924  10.932   5.980  10.563
27362SOL    HW183925  10.910   5.901  10.513
27362SOL    HW283926  10.867   6.044  10.535
27363SOL     OW83927   3.424  13.039  12.740
27363SOL    HW183928   3.485  12.971  12.770
27363SOL    HW283929   3.369  12.995  12.674
27364SOL     OW83930   1.743  14.433  10.577
27364SOL    HW183931   1.650  14.412  10.587
27364SOL    HW283932   1.782  14.411  10.662
27365SOL     OW83933   9.054  12.609  12.038
27365SOL    HW183934   9.042  12.540  11.973
27365SOL    HW283935   8.965  12.635  12.062
27366SOL     OW83936   6.597  13.138   3.153
27366SOL    HW183937   6.526  13.194   3.184
27366SOL    HW283938   6.662  13.199   3.119
27367SOL     OW83939   2.182   5.402   2.753
27367SOL    HW183940   2.103   5.394   2.807
27367SOL    HW283941   2.251   5.423   2.816
27368SOL     OW83942   8.826   9.021  10.990
27368SOL    HW183943   8.742   9.038  11.033
27368SOL    HW283944   8.881   8.985  11.060
27369SOL     OW83945   8.006  11.160  12.109
27369SOL    HW183946   7.966  11.182  12.025
27369SOL    HW283947   8.098  11.143  12.088
27370SOL     OW83948   7.828  12.752   3.135
27370SOL    HW183949   7.898  12.715   3.189
27370SOL    HW283950   7.834  12.704   3.052
27371SOL     OW83951   2.452  11.865   4.473
27371SOL    HW183952   2.481  11.956   4.469
27371SOL    HW283953   2.412  11.856   4.560
27372SOL     OW83954   8.954   1.117  14.212
27372SOL    HW183955   8.959   1.178  14.139
27372SOL    HW283956   8.867   1.132  14.249
27373SOL     OW83957  14.402   9.509  13.651
27373SOL    HW183958  14.334   9.472  13.595
27373SOL    HW283959  14.409   9.601  13.622
27374SOL     OW83960   3.209   6.165   3.431
27374SOL    HW183961   3.147   6.143   3.501
27374SOL    HW283962   3.265   6.088   3.422
27375SOL     OW83963  10.785   7.729   8.738
27375SOL    HW183964  10.728   7.805   8.730
27375SOL    HW283965  10.869   7.765   8.765
27376SOL     OW83966   1.560   2.408  12.541
27376SOL    HW183967   1.488   2.383  12.483
27376SOL    HW283968   1.540   2.364  12.624
27377SOL     OW83969   7.128   5.735  13.726
27377SOL    HW183970   7.184   5.756  13.801
27377SOL    HW283971   7.184   5.746  13.650
27378SOL     OW83972   6.151   5.063   8.678
27378SOL    HW183973   6.122   4.973   8.667
27378SOL    HW283974   6.107   5.111   8.608
27379SOL     OW83975  12.237  10.407  13.930
27379SOL    HW183976  12.318  10.355  13.938
27379SOL    HW283977  12.167  10.344  13.947
27380SOL     OW83978  12.484   8.937   2.183
27380SOL    HW183979  12.514   8.960   2.271
27380SOL    HW283980  12.557   8.888   2.145
27381SOL     OW83981   5.345   6.573   0.601
27381SOL    HW183982   5.372   6.566   0.509
27381SOL    HW283983   5.416   6.532   0.650
27382SOL     OW83984  11.038  10.574   9.597
27382SOL    HW183985  10.987  10.574   9.678
27382SOL    HW283986  11.129  10.564   9.627
27383SOL     OW83987   9.169   2.018  14.433
27383SOL    HW183988   9.225   2.029  14.510
27383SOL    HW283989   9.178   2.100  14.385
27384SOL     OW83990  14.126   8.762  13.138
27384SOL    HW183991  14.097   8.852  13.124
27384SOL    HW283992  14.127   8.751  13.233
27385SOL     OW83993   3.416   7.067   1.581
27385SOL    HW183994   3.503   7.101   1.604
27385SOL    HW283995   3.360   7.094   1.654
27386SOL     OW83996   5.418   5.837   5.413
27386SOL    HW183997   5.325   5.818   5.412
27386SOL    HW283998   5.451   5.805   5.329
27387SOL     OW83999   8.064   3.771  13.148
27387SOL    HW184000   7.989   3.762  13.207
27387SOL    HW284001   8.108   3.686  13.153
27388SOL     OW84002   9.795   0.526   7.386
27388SOL    HW184003   9.806   0.468   7.311
27388SOL    HW284004   9.836   0.480   7.459
27389SOL     OW84005  14.240  11.547  10.860
27389SOL    HW184006  14.202  11.477  10.913
27389SOL    HW284007  14.306  11.586  10.917
27390SOL     OW84008   1.642   1.739   0.800
27390SOL    HW184009   1.716   1.727   0.742
27390SOL    HW284010   1.678   1.781   0.878
27391SOL     OW84011   8.347  13.199   7.617
27391SOL    HW184012   8.397  13.157   7.548
27391SOL    HW284013   8.405  13.199   7.693
27392SOL     OW84014  13.615   7.512   8.830
27392SOL    HW184015  13.522   7.512   8.805
27392SOL    HW284016  13.651   7.590   8.789
27393SOL     OW84017   2.276  12.901   8.965
27393SOL    HW184018   2.292  12.982   9.011
27393SOL    HW284019   2.277  12.925   8.872
27394SOL     OW84020   2.437   7.947   7.021
27394SOL    HW184021   2.414   7.858   7.046
27394SOL    HW284022   2.354   7.988   6.999
27395SOL     OW84023   6.734  10.030   4.548
27395SOL    HW184024   6.640  10.022   4.530
27395SOL    HW284025   6.740  10.101   4.612
27396SOL     OW84026  14.032   0.936  10.116
27396SOL    HW184027  14.068   1.010  10.165
27396SOL    HW284028  14.072   0.859  10.156
27397SOL     OW84029   9.126   2.019   8.621
27397SOL    HW184030   9.052   2.072   8.652
27397SOL    HW284031   9.089   1.964   8.552
27398SOL     OW84032   1.822   2.162   7.990
27398SOL    HW184033   1.782   2.165   7.903
27398SOL    HW284034   1.889   2.231   7.988
27399SOL     OW84035   9.507  14.639  14.176
27399SOL    HW184036   9.497  14.547  14.198
27399SOL    HW284037   9.546  14.639  14.088
27400SOL     OW84038  11.583   9.759   6.318
27400SOL    HW184039  11.636   9.834   6.346
27400SOL    HW284040  11.619   9.735   6.233
27401SOL     OW84041   6.267   5.710  12.987
27401SOL    HW184042   6.253   5.784  12.929
27401SOL    HW284043   6.349   5.731  13.033
27402SOL     OW84044   7.156  11.320  11.544
27402SOL    HW184045   7.091  11.288  11.481
27402SOL    HW284046   7.104  11.368  11.609
27403SOL     OW84047  11.376   1.250   0.827
27403SOL    HW184048  11.434   1.207   0.890
27403SOL    HW284049  11.389   1.202   0.745
27404SOL     OW84050   7.980  10.053   6.439
27404SOL    HW184051   7.924  10.130   6.432
27404SOL    HW284052   7.976  10.012   6.352
27405SOL     OW84053  14.388   4.858   1.440
27405SOL    HW184054  14.396   4.941   1.394
27405SOL    HW284055  14.325   4.874   1.509
27406SOL     OW84056  12.353   8.006  10.472
27406SOL    HW184057  12.322   8.024  10.383
27406SOL    HW284058  12.415   8.076  10.490
27407SOL     OW84059   6.958  14.489  11.823
27407SOL    HW184060   7.046  14.451  11.823
27407SOL    HW284061   6.903  14.424  11.868
27408SOL     OW84062   8.956   9.064  10.473
27408SOL    HW184063   8.876   9.116  10.469
27408SOL    HW284064   8.965   9.040  10.565
27409SOL     OW84065   8.899   0.726  10.983
27409SOL    HW184066   8.925   0.685  10.901
27409SOL    HW284067   8.978   0.725  11.037
27410SOL     OW84068   7.342  12.575   1.798
27410SOL    HW184069   7.391  12.496   1.777
27410SOL    HW284070   7.356  12.633   1.723
27411SOL     OW84071   5.912  13.853   6.599
27411SOL    HW184072   5.964  13.853   6.519
27411SOL    HW284073   5.822  13.866   6.569
27412SOL     OW84074   7.102  14.251  14.202
27412SOL    HW184075   7.033  14.190  14.228
27412SOL    HW284076   7.180  14.197  14.192
27413SOL     OW84077   3.003   0.526  14.513
27413SOL    HW184078   3.091   0.522  14.550
27413SOL    HW284079   2.971   0.436  14.518
27414SOL     OW84080   0.962   8.427  13.986
27414SOL    HW184081   1.001   8.342  13.965
27414SOL    HW284082   0.886   8.405  14.039
27415SOL     OW84083   7.338   5.687  14.220
27415SOL    HW184084   7.428   5.710  14.200
27415SOL    HW284085   7.330   5.596  14.191
27416SOL     OW84086   6.156   2.472  10.020
27416SOL    HW184087   6.112   2.556  10.018
27416SOL    HW284088   6.183   2.456   9.929
27417SOL     OW84089   2.293  12.454   1.959
27417SOL    HW184090   2.348  12.513   1.907
27417SOL    HW284091   2.334  12.368   1.949
27418SOL     OW84092   9.547   8.112   1.369
27418SOL    HW184093   9.617   8.151   1.421
27418SOL    HW284094   9.546   8.162   1.288
27419SOL     OW84095  14.553   9.064   0.265
27419SOL    HW184096  14.591   9.005   0.329
27419SOL    HW284097  14.470   9.092   0.304
27420SOL     OW84098   4.214   0.784  11.720
27420SOL    HW184099   4.137   0.762  11.772
27420SOL    HW284100   4.271   0.832  11.779
27421SOL     OW84101  13.725  11.139  13.018
27421SOL    HW184102  13.736  11.208  12.952
27421SOL    HW284103  13.667  11.075  12.976
27422SOL     OW84104  11.421   2.970  10.396
27422SOL    HW184105  11.393   2.921  10.319
27422SOL    HW284106  11.398   2.914  10.470
27423SOL     OW84107   9.642   6.911  14.483
27423SOL    HW184108   9.654   6.823  14.520
27423SOL    HW284109   9.642   6.969  14.560
27424SOL     OW84110   9.988  14.652   8.044
27424SOL    HW184111   9.950  14.569   8.013
27424SOL    HW284112   9.917  14.694   8.092
27425SOL     OW84113  11.880  13.355   2.429
27425SOL    HW184114  11.815  13.403   2.479
27425SOL    HW284115  11.830  13.287   2.384
27426SOL     OW84116   3.104   4.083   1.988
27426SOL    HW184117   3.169   4.059   2.054
27426SOL    HW284118   3.152   4.138   1.926
27427SOL     OW84119   5.865  13.500  10.349
27427SOL    HW184120   5.926  13.505  10.423
27427SOL    HW284121   5.878  13.412  10.313
27428SOL     OW84122   2.153   7.108  14.750
27428SOL    HW184123   2.226   7.063  14.793
27428SOL    HW284124   2.091   7.126  14.821
27429SOL     OW84125   5.524  11.228   9.429
27429SOL    HW184126   5.552  11.138   9.448
27429SOL    HW284127   5.544  11.239   9.336
27430SOL     OW84128  14.831   5.788   5.387
27430SOL    HW184129  14.773   5.765   5.314
27430SOL    HW284130  14.842   5.883   5.379
27431SOL     OW84131   8.762   6.701  12.068
27431SOL    HW184132   8.855   6.679  12.067
27431SOL    HW284133   8.723   6.635  12.125
27432SOL     OW84134   2.116   4.635   3.417
27432SOL    HW184135   2.072   4.666   3.338
27432SOL    HW284136   2.199   4.682   3.418
27433SOL     OW84137   7.362   4.331  10.609
27433SOL    HW184138   7.375   4.417  10.650
27433SOL    HW284139   7.267   4.323  10.600
27434SOL     OW84140  11.540  12.780   8.304
27434SOL    HW184141  11.556  12.768   8.398
27434SOL    HW284142  11.488  12.705   8.278
27435SOL     OW84143   5.635  12.278   0.232
27435SOL    HW184144   5.728  12.294   0.221
27435SOL    HW284145   5.618  12.197   0.183
27436SOL     OW84146   1.833   2.358  11.001
27436SOL    HW184147   1.766   2.303  10.959
27436SOL    HW284148   1.849   2.315  11.085
27437SOL     OW84149   6.692   1.910   1.799
27437SOL    HW184150   6.739   1.990   1.775
27437SOL    HW284151   6.707   1.900   1.893
27438SOL     OW84152   6.777  10.679   9.545
27438SOL    HW184153   6.776  10.660   9.451
27438SOL    HW284154   6.691  10.650   9.576
27439SOL     OW84155   5.307   3.379   1.119
27439SOL    HW184156   5.254   3.402   1.042
27439SOL    HW284157   5.307   3.284   1.121
27440SOL     OW84158   2.680   4.066   2.513
27440SOL    HW184159   2.709   4.138   2.568
27440SOL    HW284160   2.630   4.009   2.572
27441SOL     OW84161   9.230   2.402   6.943
27441SOL    HW184162   9.180   2.373   7.019
27441SOL    HW284163   9.207   2.341   6.873
27442SOL     OW84164   9.084  10.531   8.888
27442SOL    HW184165   9.062  10.604   8.830
27442SOL    HW284166   9.178  10.518   8.877
27443SOL     OW84167   1.725  11.567  13.335
27443SOL    HW184168   1.741  11.481  13.374
27443SOL    HW284169   1.803  11.618  13.357
27444SOL     OW84170  11.158  12.440   5.551
27444SOL    HW184171  11.212  12.436   5.630
27444SOL    HW284172  11.072  12.411   5.579
27445SOL     OW84173   8.778   3.238  13.961
27445SOL    HW184174   8.750   3.212  14.049
27445SOL    HW284175   8.767   3.334  13.961
27446SOL     OW84176   5.275   9.999   8.973
27446SOL    HW184177   5.368  10.022   8.971
27446SOL    HW284178   5.232  10.077   9.007
27447SOL     OW84179  12.851  14.581   8.237
27447SOL    HW184180  12.893  14.664   8.258
27447SOL    HW284181  12.822  14.591   8.146
27448SOL     OW84182  13.289  14.841  10.733
27448SOL    HW184183  13.238   0.019  10.788
27448SOL    HW284184  13.371   0.005  10.717
27449SOL     OW84185  12.078   7.823   1.545
27449SOL    HW184186  12.012   7.865   1.490
27449SOL    HW284187  12.159   7.871   1.527
27450SOL     OW84188  13.379   6.440   0.673
27450SOL    HW184189  13.389   6.497   0.597
27450SOL    HW284190  13.384   6.351   0.637
27451SOL     OW84191  13.281   2.234  11.861
27451SOL    HW184192  13.315   2.200  11.779
27451SOL    HW284193  13.222   2.305  11.835
27452SOL     OW84194   9.792   6.242  11.428
27452SOL    HW184195   9.837   6.286  11.500
27452SOL    HW284196   9.804   6.148  11.446
27453SOL     OW84197   2.201   7.750   8.256
27453SOL    HW184198   2.164   7.735   8.169
27453SOL    HW284199   2.294   7.768   8.241
27454SOL     OW84200  11.923  12.152  11.746
27454SOL    HW184201  11.999  12.105  11.711
27454SOL    HW284202  11.863  12.084  11.774
27455SOL     OW84203   9.128  10.765   2.115
27455SOL    HW184204   9.201  10.808   2.070
27455SOL    HW284205   9.092  10.833   2.172
27456SOL     OW84206   4.600   9.786  13.985
27456SOL    HW184207   4.662   9.845  14.027
27456SOL    HW284208   4.626   9.698  14.014
27457SOL     OW84209  12.956   5.296  14.281
27457SOL    HW184210  12.996   5.356  14.219
27457SOL    HW284211  12.863   5.294  14.257
27458SOL     OW84212   7.529  12.557   2.144
27458SOL    HW184213   7.433  12.557   2.140
27458SOL    HW284214   7.549  12.595   2.229
27459SOL     OW84215   2.274  11.157   2.348
27459SOL    HW184216   2.250  11.065   2.336
27459SOL    HW284217   2.240  11.201   2.271
27460SOL     OW84218  12.565   0.956   7.013
27460SOL    HW184219  12.549   0.873   6.968
27460SOL    HW284220  12.660   0.958   7.025
27461SOL     OW84221   8.372  12.602  14.649
27461SOL    HW184222   8.327  12.540  14.591
27461SOL    HW284223   8.432  12.547  14.701
27462SOL     OW84224  14.595   9.529   1.405
27462SOL    HW184225  14.542   9.504   1.481
27462SOL    HW284226  14.666   9.583   1.442
27463SOL     OW84227   2.494   3.967   5.536
27463SOL    HW184228   2.531   3.998   5.453
27463SOL    HW284229   2.414   3.921   5.511
27464SOL     OW84230   1.922   9.965   6.569
27464SOL    HW184231   1.948   9.903   6.501
27464SOL    HW284232   1.982  10.039   6.558
27465SOL     OW84233   1.520  13.499  12.672
27465SOL    HW184234   1.429  13.476  12.652
27465SOL    HW284235   1.514  13.583  12.718
27466SOL     OW84236   9.909   0.663   1.549
27466SOL    HW184237   9.861   0.673   1.631
27466SOL    HW284238   9.935   0.571   1.547
27467SOL     OW84239  14.781   9.079  12.670
27467SOL    HW184240  14.723   9.084  12.594
27467SOL    HW284241  14.862   9.039  12.637
27468SOL     OW84242   0.788  11.753   1.641
27468SOL    HW184243   0.729  11.814   1.685
27468SOL    HW284244   0.737  11.672   1.635
27469SOL     OW84245   3.465  14.389   4.978
27469SOL    HW184246   3.408  14.313   4.968
27469SOL    HW284247   3.441  14.426   5.063
27470SOL     OW84248   0.682   3.949   2.212
27470SOL    HW184249   0.746   3.888   2.176
27470SOL    HW284250   0.605   3.895   2.229
27471SOL     OW84251   9.947   1.770   7.968
27471SOL    HW184252   9.929   1.805   7.881
27471SOL    HW284253   9.876   1.707   7.983
27472SOL     OW84254   1.058  13.471  14.334
27472SOL    HW184255   1.106  13.396  14.299
27472SOL    HW284256   1.084  13.544  14.278
27473SOL     OW84257   0.569   0.740  14.511
27473SOL    HW184258   0.599   0.663  14.463
27473SOL    HW284259   0.568   0.810  14.446
27474SOL     OW84260   5.849   1.435  13.268
27474SOL    HW184261   5.917   1.486  13.313
27474SOL    HW284262   5.862   1.345  13.300
27475SOL     OW84263   5.645  14.336  13.080
27475SOL    HW184264   5.668  14.266  13.140
27475SOL    HW284265   5.576  14.385  13.124
27476SOL     OW84266   8.598  12.490   3.272
27476SOL    HW184267   8.565  12.572   3.309
27476SOL    HW284268   8.534  12.424   3.300
27477SOL     OW84269   6.884   5.757   7.967
27477SOL    HW184270   6.820   5.695   7.933
27477SOL    HW284271   6.861   5.765   8.060
27478SOL     OW84272  11.106   4.192   7.516
27478SOL    HW184273  11.122   4.250   7.442
27478SOL    HW284274  11.168   4.120   7.503
27479SOL     OW84275  10.172  13.421   1.005
27479SOL    HW184276  10.251  13.476   1.008
27479SOL    HW284277  10.157  13.405   0.912
27480SOL     OW84278  10.964   1.327   4.524
27480SOL    HW184279  10.884   1.378   4.535
27480SOL    HW284280  10.988   1.300   4.612
27481SOL     OW84281  12.601   1.346   9.184
27481SOL    HW184282  12.655   1.405   9.130
27481SOL    HW284283  12.653   1.265   9.189
27482SOL     OW84284   1.869   2.662   3.969
27482SOL    HW184285   1.865   2.581   4.021
27482SOL    HW284286   1.844   2.731   4.030
27483SOL     OW84287   7.312   6.908   7.087
27483SOL    HW184288   7.336   6.820   7.115
27483SOL    HW284289   7.260   6.894   7.007
27484SOL     OW84290   3.634   2.002   3.766
27484SOL    HW184291   3.675   1.979   3.683
27484SOL    HW284292   3.636   2.098   3.768
27485SOL     OW84293   4.103   0.401  14.445
27485SOL    HW184294   4.009   0.403  14.465
27485SOL    HW284295   4.143   0.458  14.510
27486SOL     OW84296  12.610   4.133  14.151
27486SOL    HW184297  12.604   4.156  14.244
27486SOL    HW284298  12.521   4.142  14.118
27487SOL     OW84299   7.426   0.432   1.170
27487SOL    HW184300   7.378   0.357   1.206
27487SOL    HW284301   7.425   0.497   1.241
27488SOL     OW84302   1.563  14.734   9.917
27488SOL    HW184303   1.519  14.730   9.832
27488SOL    HW284304   1.599  14.823   9.921
27489SOL     OW84305  13.303   7.244  11.425
27489SOL    HW184306  13.276   7.278  11.510
27489SOL    HW284307  13.292   7.318  11.365
27490SOL     OW84308   9.437   0.244   2.252
27490SOL    HW184309   9.421   0.211   2.163
27490SOL    HW284310   9.516   0.199   2.281
27491SOL     OW84311  14.810   4.647   7.002
27491SOL    HW184312  14.878   4.697   7.047
27491SOL    HW284313  14.729   4.674   7.044
27492SOL     OW84314   8.629   2.500  13.655
27492SOL    HW184315   8.615   2.551  13.734
27492SOL    HW284316   8.572   2.424  13.665
27493SOL     OW84317   9.317   0.937  13.231
27493SOL    HW184318   9.358   0.935  13.144
27493SOL    HW284319   9.372   0.880  13.285
27494SOL     OW84320  10.332   4.295   0.130
27494SOL    HW184321  10.345   4.323   0.039
27494SOL    HW284322  10.356   4.203   0.130
27495SOL     OW84323  12.733   7.434   7.843
27495SOL    HW184324  12.731   7.452   7.937
27495SOL    HW284325  12.663   7.489   7.807
27496SOL     OW84326   5.357   1.389   0.672
27496SOL    HW184327   5.446   1.369   0.644
27496SOL    HW284328   5.302   1.364   0.598
27497SOL     OW84329   4.322   6.439  10.921
27497SOL    HW184330   4.299   6.388  10.999
27497SOL    HW284331   4.369   6.377  10.866
27498SOL     OW84332   9.440   4.289  11.704
27498SOL    HW184333   9.506   4.303  11.772
27498SOL    HW284334   9.441   4.195  11.689
27499SOL     OW84335   8.822  12.552  12.461
27499SOL    HW184336   8.902  12.542  12.409
27499SOL    HW284337   8.777  12.468  12.454
27500SOL     OW84338   0.690   4.966   7.013
27500SOL    HW184339   0.734   4.957   6.929
27500SOL    HW284340   0.616   4.905   7.008
27501SOL     OW84341   6.139   5.067   4.255
27501SOL    HW184342   6.127   5.112   4.171
27501SOL    HW284343   6.185   4.986   4.232
27502SOL     OW84344   4.727  12.059  14.712
27502SOL    HW184345   4.792  12.027  14.774
27502SOL    HW284346   4.683  12.131  14.759
27503SOL     OW84347   1.445   9.577   3.895
27503SOL    HW184348   1.472   9.488   3.916
27503SOL    HW284349   1.391   9.568   3.817
27504SOL     OW84350   6.147  11.751   6.859
27504SOL    HW184351   6.127  11.833   6.812
27504SOL    HW284352   6.209  11.705   6.802
27505SOL     OW84353   8.356   8.547   4.955
27505SOL    HW184354   8.441   8.591   4.958
27505SOL    HW284355   8.293   8.619   4.947
27506SOL     OW84356   0.800   3.644  11.120
27506SOL    HW184357   0.709   3.671  11.110
27506SOL    HW284358   0.833   3.636  11.031
27507SOL     OW84359   9.272   1.477   1.882
27507SOL    HW184360   9.237   1.394   1.849
27507SOL    HW284361   9.308   1.456   1.968
27508SOL     OW84362   2.555   9.069   7.339
27508SOL    HW184363   2.592   8.994   7.292
27508SOL    HW284364   2.611   9.143   7.314
27509SOL     OW84365   6.154   3.210   6.216
27509SOL    HW184366   6.187   3.128   6.254
27509SOL    HW284367   6.061   3.209   6.235
27510SOL     OW84368   8.468   0.323   7.933
27510SOL    HW184369   8.520   0.375   7.993
27510SOL    HW284370   8.464   0.236   7.973
27511SOL     OW84371   9.321   8.486   1.665
27511SOL    HW184372   9.231   8.491   1.634
27511SOL    HW284373   9.321   8.531   1.749
27512SOL     OW84374   1.814   3.574   5.837
27512SOL    HW184375   1.797   3.501   5.778
27512SOL    HW284376   1.789   3.652   5.786
27513SOL     OW84377   1.362  10.462   1.815
27513SOL    HW184378   1.340  10.369   1.819
27513SOL    HW284379   1.283  10.507   1.843
27514SOL     OW84380   1.965   8.403   9.534
27514SOL    HW184381   1.873   8.424   9.523
27514SOL    HW284382   1.973   8.312   9.505
27515SOL     OW84383  12.637   3.596   0.074
27515SOL    HW184384  12.669   3.659   0.139
27515SOL    HW284385  12.716   3.554   0.040
27516SOL     OW84386   9.336  11.633   9.615
27516SOL    HW184387   9.416  11.677   9.585
27516SOL    HW284388   9.307  11.582   9.540
27517SOL     OW84389   9.581   3.058   0.360
27517SOL    HW184390   9.664   3.024   0.394
27517SOL    HW284391   9.516   3.034   0.427
27518SOL     OW84392   5.756   6.218   9.007
27518SOL    HW184393   5.751   6.279   9.080
27518SOL    HW284394   5.696   6.148   9.030
27519SOL     OW84395   2.146   1.457   2.799
27519SOL    HW184396   2.130   1.551   2.800
27519SOL    HW284397   2.138   1.432   2.707
27520SOL     OW84398   7.867   2.335  11.720
27520SOL    HW184399   7.910   2.406  11.672
27520SOL    HW284400   7.937   2.273  11.740
27521SOL     OW84401  11.672   8.429   8.211
27521SOL    HW184402  11.627   8.419   8.127
27521SOL    HW284403  11.740   8.495   8.195
27522SOL     OW84404   5.032  14.339  13.464
27522SOL    HW184405   4.990  14.314  13.382
27522SOL    HW284406   5.115  14.291  13.464
27523SOL     OW84407  11.468   1.290   9.215
27523SOL    HW184408  11.493   1.376   9.180
27523SOL    HW284409  11.445   1.239   9.138
27524SOL     OW84410   1.443   9.371  11.965
27524SOL    HW184411   1.475   9.343  12.050
27524SOL    HW284412   1.347   9.375  11.975
27525SOL     OW84413   1.305   7.974   4.638
27525SOL    HW184414   1.216   7.984   4.604
27525SOL    HW284415   1.293   7.949   4.730
27526SOL     OW84416   3.609  13.315   0.604
27526SOL    HW184417   3.674  13.302   0.535
27526SOL    HW284418   3.660  13.327   0.684
27527SOL     OW84419  14.150   1.984   8.692
27527SOL    HW184420  14.149   1.902   8.642
27527SOL    HW284421  14.161   1.956   8.783
27528SOL     OW84422  12.687   3.571   9.201
27528SOL    HW184423  12.645   3.562   9.287
27528SOL    HW284424  12.620   3.614   9.148
27529SOL     OW84425  12.020   4.451   3.858
27529SOL    HW184426  12.006   4.374   3.912
27529SOL    HW284427  12.001   4.525   3.917
27530SOL     OW84428   1.815  13.232   1.770
27530SOL    HW184429   1.796  13.307   1.713
27530SOL    HW284430   1.891  13.190   1.730
27531SOL     OW84431  10.468   6.984   6.977
27531SOL    HW184432  10.424   6.937   6.906
27531SOL    HW284433  10.535   6.922   7.007
27532SOL     OW84434   0.609  14.882   5.639
27532SOL    HW184435   0.532  14.867   5.692
27532SOL    HW284436   0.586   0.074   5.583
27533SOL     OW84437   7.707  13.308  13.370
27533SOL    HW184438   7.777  13.312  13.435
27533SOL    HW284439   7.746  13.344  13.290
27534SOL     OW84440   5.024   5.520  13.930
27534SOL    HW184441   5.098   5.576  13.954
27534SOL    HW284442   5.043   5.436  13.971
27535SOL     OW84443   6.885   5.028  13.268
27535SOL    HW184444   6.838   5.039  13.185
27535SOL    HW284445   6.838   5.084  13.330
27536SOL     OW84446  11.290   9.788  10.571
27536SOL    HW184447  11.284   9.834  10.487
27536SOL    HW284448  11.239   9.842  10.631
27537SOL     OW84449  10.733   9.934  10.108
27537SOL    HW184450  10.778   9.950  10.191
27537SOL    HW284451  10.770   9.852  10.075
27538SOL     OW84452   6.457  13.763   1.352
27538SOL    HW184453   6.411  13.681   1.336
27538SOL    HW284454   6.545  13.749   1.319
27539SOL     OW84455   1.214   2.765   5.954
27539SOL    HW184456   1.159   2.749   6.030
27539SOL    HW284457   1.303   2.770   5.989
27540SOL     OW84458   4.476   2.194   1.358
27540SOL    HW184459   4.571   2.209   1.364
27540SOL    HW284460   4.438   2.281   1.360
27541SOL     OW84461   2.250   1.190  10.684
27541SOL    HW184462   2.181   1.203  10.749
27541SOL    HW284463   2.332   1.194  10.733
27542SOL     OW84464  10.876   2.645  14.446
27542SOL    HW184465  10.960   2.613  14.479
27542SOL    HW284466  10.870   2.609  14.358
27543SOL     OW84467   4.667   7.826   1.215
27543SOL    HW184468   4.674   7.736   1.183
27543SOL    HW284469   4.710   7.824   1.300
27544SOL     OW84470   2.963   5.619   8.909
27544SOL    HW184471   3.016   5.684   8.957
27544SOL    HW284472   2.907   5.672   8.852
27545SOL     OW84473   9.281   5.884  14.416
27545SOL    HW184474   9.300   5.829  14.492
27545SOL    HW284475   9.222   5.952  14.449
27546SOL     OW84476  13.063   4.266  11.921
27546SOL    HW184477  13.153   4.245  11.943
27546SOL    HW284478  13.065   4.356  11.890
27547SOL     OW84479   3.016   1.170  12.029
27547SOL    HW184480   3.036   1.110  12.101
27547SOL    HW284481   3.101   1.194  11.992
27548SOL     OW84482  11.632   7.542  14.071
27548SOL    HW184483  11.583   7.515  13.994
27548SOL    HW284484  11.680   7.620  14.044
27549SOL     OW84485  11.992  13.616  13.341
27549SOL    HW184486  12.034  13.614  13.427
27549SOL    HW284487  11.973  13.524  13.322
27550SOL     OW84488   4.054  10.593   3.457
27550SOL    HW184489   4.004  10.535   3.401
27550SOL    HW284490   4.140  10.600   3.414
27551SOL     OW84491   8.498   9.162   8.868
27551SOL    HW184492   8.415   9.123   8.896
27551SOL    HW284493   8.518   9.227   8.936
27552SOL     OW84494  11.951   3.966   3.513
27552SOL    HW184495  11.894   4.043   3.517
27552SOL    HW284496  12.013   3.986   3.444
27553SOL     OW84497   4.318  13.152   8.962
27553SOL    HW184498   4.235  13.128   8.921
27553SOL    HW284499   4.370  13.191   8.891
27554SOL     OW84500   7.658   5.179  11.447
27554SOL    HW184501   7.571   5.159  11.482
27554SOL    HW284502   7.693   5.094  11.420
27555SOL     OW84503  14.753   7.358   7.507
27555SOL    HW184504  14.706   7.419   7.450
27555SOL    HW284505  14.755   7.276   7.457
27556SOL     OW84506   6.836   5.264  11.053
27556SOL    HW184507   6.812   5.309  11.135
27556SOL    HW284508   6.753   5.229  11.021
27557SOL     OW84509   4.667   0.106   2.839
27557SOL    HW184510   4.605   0.104   2.765
27557SOL    HW284511   4.615   0.142   2.912
27558SOL     OW84512   7.756  14.185   3.515
27558SOL    HW184513   7.845  14.220   3.528
27558SOL    HW284514   7.709  14.256   3.471
27559SOL     OW84515   7.038   9.116   2.358
27559SOL    HW184516   7.069   9.181   2.294
27559SOL    HW284517   6.961   9.157   2.398
27560SOL     OW84518  11.134   1.913  11.472
27560SOL    HW184519  11.166   1.828  11.445
27560SOL    HW284520  11.177   1.930  11.556
27561SOL     OW84521   7.928  11.757  11.515
27561SOL    HW184522   8.013  11.748  11.471
27561SOL    HW284523   7.865  11.719  11.454
27562SOL     OW84524   4.462   1.967  12.705
27562SOL    HW184525   4.446   1.952  12.798
27562SOL    HW284526   4.547   1.927  12.689
27563SOL     OW84527  13.993  14.564   1.251
27563SOL    HW184528  13.957  14.565   1.162
27563SOL    HW284529  14.086  14.547   1.240
27564SOL     OW84530   7.099  10.082   6.661
27564SOL    HW184531   7.098  10.159   6.603
27564SOL    HW284532   7.114  10.008   6.602
27565SOL     OW84533   7.601   3.274   6.691
27565SOL    HW184534   7.528   3.268   6.753
27565SOL    HW284535   7.582   3.353   6.640
27566SOL     OW84536   5.837   7.708   7.874
27566SOL    HW184537   5.856   7.801   7.891
27566SOL    HW284538   5.797   7.707   7.787
27567SOL     OW84539   8.896  13.933   2.137
27567SOL    HW184540   8.966  13.871   2.157
27567SOL    HW284541   8.868  13.966   2.222
27568SOL     OW84542   9.540   8.146   3.565
27568SOL    HW184543   9.472   8.168   3.629
27568SOL    HW284544   9.585   8.071   3.603
27569SOL     OW84545  11.344  13.420  13.392
27569SOL    HW184546  11.362  13.388  13.481
27569SOL    HW284547  11.348  13.341  13.337
27570SOL     OW84548   2.012   5.085  11.216
27570SOL    HW184549   1.917   5.071  11.222
27570SOL    HW284550   2.047   5.000  11.191
27571SOL     OW84551  10.372   6.336  13.271
27571SOL    HW184552  10.417   6.289  13.200
27571SOL    HW284553  10.280   6.336  13.245
27572SOL     OW84554  10.934   7.149   6.560
27572SOL    HW184555  10.898   7.170   6.473
27572SOL    HW284556  10.881   7.077   6.591
27573SOL     OW84557  12.878  11.298   4.806
27573SOL    HW184558  12.888  11.217   4.755
27573SOL    HW284559  12.900  11.272   4.896
27574SOL     OW84560  13.924  11.924   7.014
27574SOL    HW184561  13.946  11.977   7.090
27574SOL    HW284562  13.997  11.863   7.006
27575SOL     OW84563   1.597   0.033   0.071
27575SOL    HW184564   1.553  14.832   0.050
27575SOL    HW284565   1.602   0.034   0.166
27576SOL     OW84566   7.537  13.273  14.203
27576SOL    HW184567   7.617  13.297  14.249
27576SOL    HW284568   7.566  13.254  14.114
27577SOL     OW84569   1.152   9.823  13.117
27577SOL    HW184570   1.201   9.743  13.099
27577SOL    HW284571   1.159   9.835  13.211
27578SOL     OW84572  11.507   8.021   1.031
27578SOL    HW184573  11.570   7.949   1.038
27578SOL    HW284574  11.467   8.010   0.945
27579SOL     OW84575  11.130  10.314  13.313
27579SOL    HW184576  11.223  10.337  13.311
27579SOL    HW284577  11.085  10.397  13.330
27580SOL     OW84578   3.450   7.698   1.213
27580SOL    HW184579   3.522   7.693   1.275
27580SOL    HW284580   3.398   7.774   1.241
27581SOL     OW84581   8.572   0.112   8.971
27581SOL    HW184582   8.637   0.179   8.954
27581SOL    HW284583   8.511   0.118   8.897
27582SOL     OW84584   5.666   9.142  14.865
27582SOL    HW184585   5.695   9.157   0.073
27582SOL    HW284586   5.605   9.213  14.848
27583SOL     OW84587   3.234  14.215  11.849
27583SOL    HW184588   3.322  14.228  11.882
27583SOL    HW284589   3.206  14.301  11.818
27584SOL     OW84590   7.532  11.152   4.370
27584SOL    HW184591   7.499  11.217   4.432
27584SOL    HW284592   7.461  11.141   4.307
27585SOL     OW84593   9.289   2.823  12.384
27585SOL    HW184594   9.333   2.819  12.299
27585SOL    HW284595   9.252   2.735  12.396
27586SOL     OW84596  11.642   3.025   2.175
27586SOL    HW184597  11.683   2.976   2.246
27586SOL    HW284598  11.550   2.998   2.177
27587SOL     OW84599   6.825   7.601  10.390
27587SOL    HW184600   6.754   7.600  10.454
27587SOL    HW284601   6.896   7.553  10.432
27588SOL     OW84602   7.634   0.232   0.990
27588SOL    HW184603   7.617   0.209   1.081
27588SOL    HW284604   7.547   0.232   0.949
27589SOL     OW84605   1.896  13.725  14.854
27589SOL    HW184606   1.967  13.689  14.800
27589SOL    HW284607   1.819  13.677  14.826
27590SOL     OW84608  10.503  10.804   5.888
27590SOL    HW184609  10.511  10.840   5.976
27590SOL    HW284610  10.409  10.809   5.868
27591SOL     OW84611   7.850   5.709   4.206
27591SOL    HW184612   7.938   5.746   4.212
27591SOL    HW284613   7.811   5.752   4.130
27592SOL     OW84614  12.214  10.245  11.640
27592SOL    HW184615  12.199  10.269  11.731
27592SOL    HW284616  12.282  10.177  11.643
27593SOL     OW84617  14.139   2.681   6.303
27593SOL    HW184618  14.139   2.775   6.324
27593SOL    HW284619  14.066   2.671   6.242
27594SOL     OW84620  12.453   4.307   5.730
27594SOL    HW184621  12.500   4.372   5.782
27594SOL    HW284622  12.511   4.230   5.731
27595SOL     OW84623  13.651   8.913   7.160
27595SOL    HW184624  13.745   8.904   7.142
27595SOL    HW284625  13.613   8.832   7.127
27596SOL     OW84626   5.986   6.103  11.714
27596SOL    HW184627   6.059   6.111  11.653
27596SOL    HW284628   5.972   6.192  11.747
27597SOL     OW84629   5.535  12.973  11.229
27597SOL    HW184630   5.596  12.953  11.158
27597SOL    HW284631   5.579  12.942  11.308
27598SOL     OW84632   7.171   5.853   4.108
27598SOL    HW184633   7.265   5.857   4.088
27598SOL    HW284634   7.167   5.828   4.201
27599SOL     OW84635   9.830   6.795   2.151
27599SOL    HW184636   9.777   6.844   2.088
27599SOL    HW284637   9.806   6.704   2.138
27600SOL     OW84638   7.193  13.378  14.472
27600SOL    HW184639   7.252  13.453  14.480
27600SOL    HW284640   7.122  13.410  14.416
27601SOL     OW84641   3.978  12.477   0.274
27601SOL    HW184642   3.908  12.496   0.211
27601SOL    HW284643   3.997  12.384   0.261
27602SOL     OW84644  13.878   3.966   4.824
27602SOL    HW184645  13.788   3.954   4.795
27602SOL    HW284646  13.872   3.971   4.920
27603SOL     OW84647  14.146   3.135  13.824
27603SOL    HW184648  14.082   3.168  13.761
27603SOL    HW284649  14.194   3.213  13.852
27604SOL     OW84650  10.710   9.898   8.510
27604SOL    HW184651  10.690   9.846   8.432
27604SOL    HW284652  10.631   9.948   8.526
27605SOL     OW84653   0.877   2.547  10.899
27605SOL    HW184654   0.799   2.557  10.954
27605SOL    HW284655   0.902   2.456  10.909
27606SOL     OW84656  14.479   0.265  14.541
27606SOL    HW184657  14.499   0.289  14.632
27606SOL    HW284658  14.440   0.178  14.548
27607SOL     OW84659  12.241   8.186   6.780
27607SOL    HW184660  12.175   8.173   6.712
27607SOL    HW284661  12.303   8.115   6.767
27608SOL     OW84662   8.895   6.853  11.497
27608SOL    HW184663   8.988   6.839  11.514
27608SOL    HW284664   8.886   6.948  11.489
27609SOL     OW84665   1.517   4.693   0.027
27609SOL    HW184666   1.442   4.710  14.851
27609SOL    HW284667   1.479   4.684   0.114
27610SOL     OW84668   1.276   3.924   7.306
27610SOL    HW184669   1.322   3.863   7.363
27610SOL    HW284670   1.212   3.869   7.260
27611SOL     OW84671   4.314  12.645  10.086
27611SOL    HW184672   4.285  12.736  10.093
27611SOL    HW284673   4.343  12.621  10.174
27612SOL     OW84674   0.404   4.391  13.747
27612SOL    HW184675   0.399   4.354  13.659
27612SOL    HW284676   0.422   4.316  13.804
27613SOL     OW84677  12.469   8.165   8.799
27613SOL    HW184678  12.422   8.183   8.880
27613SOL    HW284679  12.402   8.131   8.739
27614SOL     OW84680   8.118   6.564   4.420
27614SOL    HW184681   8.155   6.622   4.487
27614SOL    HW284682   8.131   6.612   4.338
27615SOL     OW84683   2.365  12.205   8.545
27615SOL    HW184684   2.321  12.131   8.503
27615SOL    HW284685   2.349  12.279   8.487
27616SOL     OW84686   8.579  13.526  10.003
27616SOL    HW184687   8.578  13.479   9.920
27616SOL    HW284688   8.650  13.486  10.052
27617SOL     OW84689   4.029   7.149   7.835
27617SOL    HW184690   4.102   7.210   7.848
27617SOL    HW284691   3.952   7.197   7.867
27618SOL     OW84692   4.641   7.220  14.837
27618SOL    HW184693   4.610   7.240  14.749
27618SOL    HW284694   4.581   7.153  14.870
27619SOL     OW84695   9.230   5.070   2.008
27619SOL    HW184696   9.272   4.990   2.040
27619SOL    HW284697   9.184   5.105   2.083
27620SOL     OW84698   6.561   5.872   6.944
27620SOL    HW184699   6.597   5.882   6.857
27620SOL    HW284700   6.469   5.899   6.936
27621SOL     OW84701   7.741   6.487   6.792
27621SOL    HW184702   7.708   6.418   6.735
27621SOL    HW284703   7.835   6.471   6.798
27622SOL     OW84704  13.843   0.792  11.208
27622SOL    HW184705  13.793   0.868  11.179
27622SOL    HW284706  13.791   0.755  11.280
27623SOL     OW84707  11.778  11.586  11.791
27623SOL    HW184708  11.706  11.635  11.830
27623SOL    HW284709  11.746  11.496  11.787
27624SOL     OW84710   6.526   1.625   5.767
27624SOL    HW184711   6.544   1.645   5.859
27624SOL    HW284712   6.611   1.602   5.730
27625SOL     OW84713   7.732  11.600  11.411
27625SOL    HW184714   7.732  11.568  11.321
27625SOL    HW284715   7.716  11.521  11.464
27626SOL     OW84716   3.971   7.280  12.593
27626SOL    HW184717   3.905   7.231  12.642
27626SOL    HW284718   3.929   7.298  12.509
27627SOL     OW84719   9.127   4.589  14.731
27627SOL    HW184720   9.205   4.587  14.787
27627SOL    HW284721   9.096   4.498  14.729
27628SOL     OW84722   3.540  11.619  14.847
27628SOL    HW184723   3.615  11.560  14.852
27628SOL    HW284724   3.528  11.651   0.054
27629SOL     OW84725   6.483  14.435   9.353
27629SOL    HW184726   6.498  14.528   9.371
27629SOL    HW284727   6.393  14.419   9.381
27630SOL     OW84728   7.315   4.100   7.297
27630SOL    HW184729   7.293   4.006   7.300
27630SOL    HW284730   7.328   4.118   7.204
27631SOL     OW84731  12.857  12.669   9.537
27631SOL    HW184732  12.776  12.719   9.545
27631SOL    HW284733  12.884  12.681   9.446
27632SOL     OW84734   5.591   9.996  11.554
27632SOL    HW184735   5.588   9.918  11.499
27632SOL    HW284736   5.638  10.060  11.501
27633SOL     OW84737   1.086   4.536   4.690
27633SOL    HW184738   1.040   4.541   4.606
27633SOL    HW284739   1.089   4.442   4.709
27634SOL     OW84740   1.657   3.156  11.405
27634SOL    HW184741   1.707   3.168  11.486
27634SOL    HW284742   1.628   3.244  11.382
27635SOL     OW84743   4.378   7.835  13.917
27635SOL    HW184744   4.434   7.786  13.857
27635SOL    HW284745   4.437   7.863  13.988
27636SOL     OW84746   9.611   8.576  13.632
27636SOL    HW184747   9.672   8.608  13.699
27636SOL    HW284748   9.525   8.606  13.663
27637SOL     OW84749  12.930  10.862   9.890
27637SOL    HW184750  12.888  10.944   9.914
27637SOL    HW284751  12.858  10.801   9.873
27638SOL     OW84752   9.995  14.368   7.993
27638SOL    HW184753  10.039  14.283   7.996
27638SOL    HW284754  10.000  14.394   7.901
27639SOL     OW84755   9.599   4.806  14.181
27639SOL    HW184756   9.540   4.769  14.115
27639SOL    HW284757   9.598   4.900  14.163
27640SOL     OW84758  10.048  12.903  13.908
27640SOL    HW184759   9.990  12.978  13.918
27640SOL    HW284760  10.089  12.914  13.823
27641SOL     OW84761   1.229   3.915   3.615
27641SOL    HW184762   1.196   3.893   3.703
27641SOL    HW284763   1.311   3.962   3.631
27642SOL     OW84764   8.973  10.670  12.161
27642SOL    HW184765   8.931  10.609  12.101
27642SOL    HW284766   9.067  10.665  12.140
27643SOL     OW84767   5.391  14.453   1.050
27643SOL    HW184768   5.443  14.422   1.123
27643SOL    HW284769   5.310  14.403   1.055
27644SOL     OW84770   2.773   7.402   2.928
27644SOL    HW184771   2.779   7.307   2.920
27644SOL    HW284772   2.786   7.419   3.021
27645SOL     OW84773  11.976   5.660  10.217
27645SOL    HW184774  11.965   5.723  10.145
27645SOL    HW284775  12.071   5.648  10.224
27646SOL     OW84776   4.229  11.478   7.290
27646SOL    HW184777   4.294  11.545   7.268
27646SOL    HW284778   4.194  11.451   7.205
27647SOL     OW84779   6.416  11.115   2.663
27647SOL    HW184780   6.416  11.021   2.680
27647SOL    HW284781   6.441  11.123   2.571
27648SOL     OW84782   1.087   1.183   9.901
27648SOL    HW184783   1.136   1.107   9.933
27648SOL    HW284784   0.997   1.167   9.929
27649SOL     OW84785   5.093  13.177   4.077
27649SOL    HW184786   5.057  13.263   4.093
27649SOL    HW284787   5.029  13.133   4.021
27650SOL     OW84788   0.301  11.105   4.443
27650SOL    HW184789   0.340  11.187   4.411
27650SOL    HW284790   0.243  11.133   4.514
27651SOL     OW84791   9.611   2.624  13.250
27651SOL    HW184792   9.613   2.688  13.321
27651SOL    HW284793   9.542   2.562  13.276
27652SOL     OW84794   1.437   6.337   1.677
27652SOL    HW184795   1.378   6.408   1.654
27652SOL    HW284796   1.455   6.292   1.594
27653SOL     OW84797   3.965   0.910  14.359
27653SOL    HW184798   3.878   0.929  14.325
27653SOL    HW284799   3.985   0.983  14.418
27654SOL     OW84800   9.407   5.021   6.317
27654SOL    HW184801   9.452   4.947   6.357
27654SOL    HW284802   9.476   5.072   6.276
27655SOL     OW84803   7.474  10.700   9.454
27655SOL    HW184804   7.526  10.633   9.499
27655SOL    HW284805   7.386  10.689   9.488
27656SOL     OW84806   2.016   1.441  12.668
27656SOL    HW184807   2.066   1.520  12.689
27656SOL    HW284808   1.931   1.456  12.710
27657SOL     OW84809  11.572   4.346  14.116
27657SOL    HW184810  11.546   4.357  14.207
27657SOL    HW284811  11.497   4.302  14.075
27658SOL     OW84812   3.392  10.724   3.826
27658SOL    HW184813   3.331  10.705   3.898
27658SOL    HW284814   3.359  10.672   3.752
27659SOL     OW84815   5.115   1.528  13.588
27659SOL    HW184816   5.103   1.542  13.682
27659SOL    HW284817   5.027   1.517  13.554
27660SOL     OW84818  10.425   4.426  13.461
27660SOL    HW184819  10.342   4.378  13.458
27660SOL    HW284820  10.489   4.361  13.486
27661SOL     OW84821   6.937   4.338   8.927
27661SOL    HW184822   6.889   4.381   8.857
27661SOL    HW284823   6.878   4.345   9.003
27662SOL     OW84824  14.017   9.250   3.507
27662SOL    HW184825  14.091   9.251   3.446
27662SOL    HW284826  14.004   9.157   3.527
27663SOL     OW84827  14.110   4.604   6.385
27663SOL    HW184828  14.144   4.584   6.472
27663SOL    HW284829  14.167   4.555   6.325
27664SOL     OW84830   1.734   6.588  14.526
27664SOL    HW184831   1.725   6.551  14.438
27664SOL    HW284832   1.681   6.531  14.582
27665SOL     OW84833   6.367   0.785   8.428
27665SOL    HW184834   6.352   0.880   8.428
27665SOL    HW284835   6.419   0.769   8.507
27666SOL     OW84836   1.473   6.322   5.487
27666SOL    HW184837   1.493   6.248   5.430
27666SOL    HW284838   1.558   6.364   5.502
27667SOL     OW84839  13.051  12.636  13.078
27667SOL    HW184840  12.959  12.658  13.093
27667SOL    HW284841  13.049  12.551  13.034
27668SOL     OW84842  13.894   5.307   2.810
27668SOL    HW184843  13.878   5.231   2.865
27668SOL    HW284844  13.853   5.285   2.726
27669SOL     OW84845  10.324   6.402  12.214
27669SOL    HW184846  10.266   6.329  12.195
27669SOL    HW284847  10.269   6.466  12.260
27670SOL     OW84848   2.292   1.670   2.100
27670SOL    HW184849   2.300   1.764   2.118
27670SOL    HW284850   2.299   1.663   2.005
27671SOL     OW84851   8.005  10.079   4.886
27671SOL    HW184852   7.937  10.144   4.872
27671SOL    HW284853   8.018  10.078   4.981
27672SOL     OW84854   0.596   0.332   3.567
27672SOL    HW184855   0.507   0.367   3.574
27672SOL    HW284856   0.585   0.241   3.539
27673SOL     OW84857  10.629  13.556   2.581
27673SOL    HW184858  10.567  13.485   2.567
27673SOL    HW284859  10.691  13.522   2.646
27674SOL     OW84860  14.018   4.401  14.440
27674SOL    HW184861  14.008   4.423  14.532
27674SOL    HW284862  13.940   4.437  14.398
27675SOL     OW84863  12.642  12.169  14.841
27675SOL    HW184864  12.554  12.177  14.878
27675SOL    HW284865  12.692  12.238   0.002
27676SOL     OW84866   6.884   6.751   3.244
27676SOL    HW184867   6.799   6.772   3.283
27676SOL    HW284868   6.906   6.827   3.192
27677SOL     OW84869   8.415   2.566   4.849
27677SOL    HW184870   8.435   2.507   4.776
27677SOL    HW284871   8.383   2.646   4.807
27678SOL     OW84872   2.138   2.885   2.279
27678SOL    HW184873   2.123   2.797   2.246
27678SOL    HW284874   2.174   2.933   2.205
27679SOL     OW84875   9.939   7.469  11.571
27679SOL    HW184876   9.988   7.506  11.497
27679SOL    HW284877   9.855   7.443  11.532
27680SOL     OW84878   4.904  13.902   2.621
27680SOL    HW184879   4.859  13.819   2.610
27680SOL    HW284880   4.865  13.959   2.554
27681SOL     OW84881  14.461  14.789  10.916
27681SOL    HW184882  14.476  14.854  10.985
27681SOL    HW284883  14.445  14.841  10.837
27682SOL     OW84884   2.459  12.780  14.133
27682SOL    HW184885   2.542  12.739  14.108
27682SOL    HW284886   2.429  12.823  14.052
27683SOL     OW84887   1.144  13.070  11.799
27683SOL    HW184888   1.170  13.073  11.891
27683SOL    HW284889   1.222  13.099  11.752
27684SOL     OW84890  10.053  11.862  11.562
27684SOL    HW184891  10.126  11.818  11.517
27684SOL    HW284892  10.013  11.793  11.614
27685SOL     OW84893   7.674   1.314   8.483
27685SOL    HW184894   7.590   1.274   8.459
27685SOL    HW284895   7.680   1.392   8.427
27686SOL     OW84896   8.395  10.020  10.127
27686SOL    HW184897   8.357   9.953  10.070
27686SOL    HW284898   8.397   9.978  10.213
27687SOL     OW84899   9.967   2.498   7.600
27687SOL    HW184900   9.970   2.409   7.564
27687SOL    HW284901   9.990   2.555   7.526
27688SOL     OW84902  13.660   9.482  12.094
27688SOL    HW184903  13.679   9.557  12.038
27688SOL    HW284904  13.712   9.410  12.057
27689SOL     OW84905  14.626  12.363   4.738
27689SOL    HW184906  14.686  12.429   4.771
27689SOL    HW284907  14.557  12.412   4.694
27690SOL     OW84908   8.548   3.284   2.383
27690SOL    HW184909   8.482   3.344   2.348
27690SOL    HW284910   8.618   3.284   2.319
27691SOL     OW84911   5.738   4.575  11.088
27691SOL    HW184912   5.735   4.663  11.049
27691SOL    HW284913   5.809   4.579  11.151
27692SOL     OW84914   9.739  12.483   8.977
27692SOL    HW184915   9.812  12.516   9.029
27692SOL    HW284916   9.674  12.554   8.980
27693SOL     OW84917  12.460   6.160  13.772
27693SOL    HW184918  12.433   6.173  13.864
27693SOL    HW284919  12.378   6.151  13.724
27694SOL     OW84920  14.875  13.612   4.172
27694SOL    HW184921  14.846  13.563   4.095
27694SOL    HW284922  14.796  13.625   4.224
27695SOL     OW84923   5.177  11.617  14.648
27695SOL    HW184924   5.188  11.527  14.616
27695SOL    HW284925   5.245  11.667  14.603
27696SOL     OW84926   6.076   4.144  12.363
27696SOL    HW184927   6.101   4.156  12.454
27696SOL    HW284928   6.125   4.066  12.335
27697SOL     OW84929  10.782   0.569   6.142
27697SOL    HW184930  10.810   0.523   6.063
27697SOL    HW284931  10.687   0.553   6.146
27698SOL     OW84932   8.480  14.001   1.060
27698SOL    HW184933   8.566  13.959   1.059
27698SOL    HW284934   8.424  13.942   1.009
27699SOL     OW84935  11.084   7.241  12.528
27699SOL    HW184936  11.034   7.232  12.609
27699SOL    HW284937  11.170   7.270  12.557
27700SOL     OW84938   0.876   2.445  10.617
27700SOL    HW184939   0.870   2.382  10.688
27700SOL    HW284940   0.910   2.525  10.658
27701SOL     OW84941  13.872   5.581  11.204
27701SOL    HW184942  13.842   5.672  11.210
27701SOL    HW284943  13.953   5.579  11.256
27702SOL     OW84944   7.454  10.866   6.525
27702SOL    HW184945   7.540  10.894   6.556
27702SOL    HW284946   7.454  10.771   6.537
27703SOL     OW84947  12.130   6.996  13.591
27703SOL    HW184948  12.220   6.963  13.585
27703SOL    HW284949  12.082   6.944  13.527
27704SOL     OW84950   1.949  10.339   8.031
27704SOL    HW184951   1.959  10.366   8.122
27704SOL    HW284952   2.037  10.342   7.995
27705SOL     OW84953   7.648  12.704   4.482
27705SOL    HW184954   7.720  12.676   4.538
27705SOL    HW284955   7.672  12.793   4.455
27706SOL     OW84956   1.285  14.573   6.178
27706SOL    HW184957   1.314  14.659   6.209
27706SOL    HW284958   1.216  14.593   6.115
27707SOL     OW84959   3.095   7.005   9.611
27707SOL    HW184960   3.018   7.016   9.556
27707SOL    HW284961   3.070   7.043   9.695
27708SOL     OW84962  11.551   0.899  13.800
27708SOL    HW184963  11.625   0.960  13.810
27708SOL    HW284964  11.553   0.875  13.708
27709SOL     OW84965   3.174   7.110   9.193
27709SOL    HW184966   3.109   7.180   9.202
27709SOL    HW284967   3.161   7.075   9.105
27710SOL     OW84968   0.965  14.654   9.926
27710SOL    HW184969   0.919  14.605   9.994
27710SOL    HW284970   0.935  14.614   9.844
27711SOL     OW84971  12.338   0.720   8.830
27711SOL    HW184972  12.385   0.784   8.883
27711SOL    HW284973  12.375   0.730   8.742
27712SOL     OW84974   4.330   5.103   0.968
27712SOL    HW184975   4.260   5.122   1.031
27712SOL    HW284976   4.365   5.189   0.944
27713SOL     OW84977  12.137  12.951  13.677
27713SOL    HW184978  12.173  13.003  13.605
27713SOL    HW284979  12.195  12.876  13.684
27714SOL     OW84980   3.557   7.399  11.625
27714SOL    HW184981   3.608   7.330  11.667
27714SOL    HW284982   3.505   7.354  11.559
27715SOL     OW84983   7.121   8.274   2.532
27715SOL    HW184984   7.139   8.211   2.463
27715SOL    HW284985   7.026   8.279   2.538
27716SOL     OW84986   1.060   9.513   1.413
27716SOL    HW184987   1.090   9.551   1.330
27716SOL    HW284988   1.046   9.588   1.470
27717SOL     OW84989   0.949   3.713   5.415
27717SOL    HW184990   0.879   3.655   5.386
27717SOL    HW284991   0.948   3.785   5.352
27718SOL     OW84992   8.279  11.341  10.661
27718SOL    HW184993   8.275  11.246  10.646
27718SOL    HW284994   8.324  11.349  10.745
27719SOL     OW84995   7.309   0.370  10.791
27719SOL    HW184996   7.252   0.319  10.734
27719SOL    HW284997   7.319   0.315  10.869
27720SOL     OW84998   9.253   2.127   5.800
27720SOL    HW184999   9.326   2.119   5.861
27720SOL    HW285000   9.221   2.037   5.789
27721SOL     OW85001  11.083   7.125   2.629
27721SOL    HW185002  11.103   7.048   2.575
27721SOL    HW285003  11.168   7.160   2.653
27722SOL     OW85004   1.547  10.100  14.197
27722SOL    HW185005   1.507  10.035  14.139
27722SOL    HW285006   1.562  10.053  14.279
27723SOL     OW85007   3.361   2.165  14.616
27723SOL    HW185008   3.454   2.176  14.593
27723SOL    HW285009   3.338   2.079  14.580
27724SOL     OW85010   9.893   8.601  13.485
27724SOL    HW185011   9.905   8.614  13.579
27724SOL    HW285012   9.798   8.596  13.473
27725SOL     OW85013  13.006   2.500   7.341
27725SOL    HW185014  12.993   2.429   7.279
27725SOL    HW285015  12.959   2.574   7.302
27726SOL     OW85016   8.690   1.491   3.303
27726SOL    HW185017   8.717   1.449   3.222
27726SOL    HW285018   8.643   1.424   3.351
27727SOL     OW85019  14.118   8.761   5.814
27727SOL    HW185020  14.175   8.790   5.885
27727SOL    HW285021  14.041   8.726   5.858
27728SOL     OW85022   1.314  13.095  13.126
27728SOL    HW185023   1.297  13.132  13.039
27728SOL    HW285024   1.407  13.073  13.125
27729SOL     OW85025   3.424   3.743  11.344
27729SOL    HW185026   3.383   3.788  11.418
27729SOL    HW285027   3.402   3.797  11.268
27730SOL     OW85028   1.376   1.596   2.698
27730SOL    HW185029   1.382   1.691   2.712
27730SOL    HW285030   1.317   1.566   2.767
27731SOL     OW85031   2.335   7.489  14.549
27731SOL    HW185032   2.240   7.491  14.562
27731SOL    HW285033   2.351   7.402  14.511
27732SOL     OW85034   9.254   3.806   5.125
27732SOL    HW185035   9.220   3.861   5.196
27732SOL    HW285036   9.178   3.789   5.070
27733SOL     OW85037  11.898   5.579  10.844
27733SOL    HW185038  11.837   5.519  10.886
27733SOL    HW285039  11.865   5.666  10.864
27734SOL     OW85040   2.214  14.262  10.129
27734SOL    HW185041   2.166  14.195  10.082
27734SOL    HW285042   2.284  14.288  10.069
27735SOL     OW85043   9.406   6.886   5.483
27735SOL    HW185044   9.338   6.910   5.546
27735SOL    HW285045   9.374   6.918   5.399
27736SOL     OW85046   3.945   9.734   7.961
27736SOL    HW185047   3.914   9.690   8.040
27736SOL    HW285048   3.941   9.666   7.893
27737SOL     OW85049   6.904   2.167  14.628
27737SOL    HW185050   6.970   2.101  14.645
27737SOL    HW285051   6.851   2.132  14.557
27738SOL     OW85052   4.610   9.213  14.188
27738SOL    HW185053   4.652   9.201  14.103
27738SOL    HW285054   4.682   9.207  14.252
27739SOL     OW85055   0.917   4.459   5.942
27739SOL    HW185056   0.962   4.403   5.879
27739SOL    HW285057   0.928   4.548   5.907
27740SOL     OW85058   2.890   5.530   7.234
27740SOL    HW185059   2.882   5.622   7.261
27740SOL    HW285060   2.863   5.480   7.311
27741SOL     OW85061   7.508   0.466  13.238
27741SOL    HW185062   7.460   0.472  13.321
27741SOL    HW285063   7.600   0.472  13.264
27742SOL     OW85064   2.308  11.063   5.672
27742SOL    HW185065   2.397  11.082   5.642
27742SOL    HW285066   2.302  11.109   5.756
27743SOL     OW85067   0.747   6.776   6.990
27743SOL    HW185068   0.718   6.689   7.019
27743SOL    HW285069   0.692   6.837   7.039
27744SOL     OW85070   3.853   2.022   9.411
27744SOL    HW185071   3.782   2.067   9.456
27744SOL    HW285072   3.811   1.976   9.339
27745SOL     OW85073   6.980  10.543   6.901
27745SOL    HW185074   6.909  10.501   6.950
27745SOL    HW285075   6.953  10.537   6.810
27746SOL     OW85076  10.418   0.257  12.756
27746SOL    HW185077  10.376   0.245  12.671
27746SOL    HW285078  10.347   0.244  12.819
27747SOL     OW85079   3.611   3.255   9.650
27747SOL    HW185080   3.596   3.328   9.711
27747SOL    HW285081   3.616   3.297   9.564
27748SOL     OW85082   0.795   4.024   1.365
27748SOL    HW185083   0.849   4.001   1.441
27748SOL    HW285084   0.786   4.119   1.369
27749SOL     OW85085   9.887   2.260  14.446
27749SOL    HW185086   9.803   2.258  14.493
27749SOL    HW285087   9.864   2.245  14.355
27750SOL     OW85088  12.809   0.576  12.645
27750SOL    HW185089  12.860   0.495  12.639
27750SOL    HW285090  12.800   0.606  12.555
27751SOL     OW85091  11.566  11.052   3.201
27751SOL    HW185092  11.511  10.997   3.256
27751SOL    HW285093  11.571  11.005   3.117
27752SOL     OW85094   2.258   0.304  10.651
27752SOL    HW185095   2.193   0.287  10.719
27752SOL    HW285096   2.296   0.218  10.633
27753SOL     OW85097  10.145   9.511   6.855
27753SOL    HW185098  10.051   9.527   6.851
27753SOL    HW285099  10.158   9.429   6.807
27754SOL     OW85100   9.005   0.090  12.562
27754SOL    HW185101   8.946   0.155  12.600
27754SOL    HW285102   9.045   0.135  12.487
27755SOL     OW85103  12.441  11.381   5.604
27755SOL    HW185104  12.522  11.432   5.599
27755SOL    HW285105  12.405  11.401   5.691
27756SOL     OW85106  10.750  13.013   9.399
27756SOL    HW185107  10.772  13.064   9.477
27756SOL    HW285108  10.771  12.923   9.422
27757SOL     OW85109   9.653  14.045   0.653
27757SOL    HW185110   9.568  14.005   0.670
27757SOL    HW285111   9.702  14.031   0.734
27758SOL     OW85112   1.523  13.940  11.981
27758SOL    HW185113   1.458  13.937  12.051
27758SOL    HW285114   1.595  13.885  12.013
27759SOL     OW85115   6.016  12.157   9.159
27759SOL    HW185116   5.935  12.191   9.122
27759SOL    HW285117   5.997  12.064   9.177
27760SOL     OW85118   2.186   2.749   5.020
27760SOL    HW185119   2.201   2.751   4.926
27760SOL    HW285120   2.121   2.818   5.035
27761SOL     OW85121   1.023   6.954   3.715
27761SOL    HW185122   0.988   7.042   3.726
27761SOL    HW285123   0.945   6.899   3.701
27762SOL     OW85124   7.236   5.063   6.092
27762SOL    HW185125   7.184   5.104   6.023
27762SOL    HW285126   7.326   5.092   6.076
27763SOL     OW85127  13.630   9.655  10.842
27763SOL    HW185128  13.547   9.627  10.881
27763SOL    HW285129  13.640   9.601  10.764
27764SOL     OW85130  10.096   6.540   6.752
27764SOL    HW185131  10.108   6.635   6.753
27764SOL    HW285132  10.170   6.507   6.701
27765SOL     OW85133   9.594   8.922   5.165
27765SOL    HW185134   9.646   8.946   5.241
27765SOL    HW285135   9.517   8.979   5.169
27766SOL     OW85136  10.790   3.825  13.552
27766SOL    HW185137  10.828   3.810  13.638
27766SOL    HW285138  10.810   3.746  13.503
27767SOL     OW85139   2.337   1.025  13.605
27767SOL    HW185140   2.307   0.966  13.536
27767SOL    HW285141   2.397   1.085  13.561
27768SOL     OW85142   4.960  11.449  10.163
27768SOL    HW185143   4.909  11.454  10.083
27768SOL    HW285144   4.914  11.506  10.225
27769SOL     OW85145   0.575   5.910   3.516
27769SOL    HW185146   0.581   5.999   3.553
27769SOL    HW285147   0.500   5.915   3.456
27770SOL     OW85148  12.382   9.934   2.595
27770SOL    HW185149  12.452   9.874   2.570
27770SOL    HW285150  12.394   9.947   2.689
27771SOL     OW85151  14.879   4.107  14.640
27771SOL    HW185152   0.018   4.185  14.589
27771SOL    HW285153  14.785   4.094  14.626
27772SOL     OW85154   0.349   2.263   4.922
27772SOL    HW185155   0.262   2.235   4.894
27772SOL    HW285156   0.356   2.234   5.013
27773SOL     OW85157   5.749   6.425   7.596
27773SOL    HW185158   5.726   6.385   7.512
27773SOL    HW285159   5.810   6.495   7.573
27774SOL     OW85160  14.286  11.942  14.396
27774SOL    HW185161  14.370  11.922  14.356
27774SOL    HW285162  14.273  12.035  14.382
27775SOL     OW85163   8.793  14.554   4.290
27775SOL    HW185164   8.705  14.541   4.326
27775SOL    HW285165   8.798  14.648   4.273
27776SOL     OW85166  10.906   4.899   9.310
27776SOL    HW185167  10.969   4.885   9.381
27776SOL    HW285168  10.875   4.989   9.323
27777SOL     OW85169   2.610   0.219  13.715
27777SOL    HW185170   2.670   0.227  13.642
27777SOL    HW285171   2.531   0.178  13.678
27778SOL     OW85172  13.911   4.052   4.079
27778SOL    HW185173  13.977   3.996   4.038
27778SOL    HW285174  13.918   4.032   4.173
27779SOL     OW85175   9.644   6.452  10.578
27779SOL    HW185176   9.646   6.359  10.557
27779SOL    HW285177   9.679   6.495  10.499
27780SOL     OW85178   1.840  13.255   6.829
27780SOL    HW185179   1.855  13.349   6.840
27780SOL    HW285180   1.753  13.249   6.790
27781SOL     OW85181   3.381  11.724   6.282
27781SOL    HW185182   3.394  11.632   6.260
27781SOL    HW285183   3.312  11.754   6.222
27782SOL     OW85184  13.318   7.504   9.711
27782SOL    HW185185  13.396   7.450   9.697
27782SOL    HW285186  13.346   7.573   9.771
27783SOL     OW85187  11.639   2.449  14.379
27783SOL    HW185188  11.606   2.418  14.464
27783SOL    HW285189  11.704   2.516  14.402
27784SOL     OW85190   2.335   2.432   0.642
27784SOL    HW185191   2.366   2.490   0.573
27784SOL    HW285192   2.241   2.424   0.627
27785SOL     OW85193  10.271   9.401   8.613
27785SOL    HW185194  10.182   9.396   8.577
27785SOL    HW285195  10.264   9.362   8.700
27786SOL     OW85196  10.480  12.529   5.594
27786SOL    HW185197  10.420  12.511   5.521
27786SOL    HW285198  10.424  12.567   5.661
27787SOL     OW85199  12.401  14.635  12.542
27787SOL    HW185200  12.344  14.712  12.545
27787SOL    HW285201  12.369  14.585  12.467
27788SOL     OW85202   1.282   5.648   2.715
27788SOL    HW185203   1.226   5.605   2.780
27788SOL    HW285204   1.322   5.576   2.667
27789SOL     OW85205  12.479   9.804  11.324
27789SOL    HW185206  12.460   9.874  11.261
27789SOL    HW285207  12.571   9.782  11.309
27790SOL     OW85208  10.367   3.486   7.055
27790SOL    HW185209  10.417   3.549   7.003
27790SOL    HW285210  10.303   3.450   6.994
27791SOL     OW85211   4.119  10.006   1.750
27791SOL    HW185212   4.191   9.977   1.806
27791SOL    HW285213   4.111  10.100   1.769
27792SOL     OW85214   7.016  13.535   9.318
27792SOL    HW185215   7.045  13.623   9.294
27792SOL    HW285216   6.921  13.543   9.325
27793SOL     OW85217  11.518   1.656   4.734
27793SOL    HW185218  11.599   1.660   4.683
27793SOL    HW285219  11.547   1.649   4.824
27794SOL     OW85220   1.393   0.986   4.462
27794SOL    HW185221   1.329   0.927   4.500
27794SOL    HW285222   1.457   1.000   4.532
27795SOL     OW85223  10.773   5.933   9.069
27795SOL    HW185224  10.701   5.995   9.085
27795SOL    HW285225  10.852   5.987   9.070
27796SOL     OW85226   4.598  12.740   7.719
27796SOL    HW185227   4.619  12.827   7.754
27796SOL    HW285228   4.683  12.704   7.692
27797SOL     OW85229   1.318   2.085   0.933
27797SOL    HW185230   1.366   2.025   0.875
27797SOL    HW285231   1.312   2.166   0.883
27798SOL     OW85232   1.815   5.017   2.218
27798SOL    HW185233   1.839   4.955   2.287
27798SOL    HW285234   1.835   4.971   2.137
27799SOL     OW85235   1.032  12.878  13.823
27799SOL    HW185236   0.937  12.892  13.825
27799SOL    HW285237   1.064  12.938  13.756
27800SOL     OW85238   1.620   8.272   0.798
27800SOL    HW185239   1.611   8.216   0.720
27800SOL    HW285240   1.693   8.233   0.846
27801SOL     OW85241   7.457   8.960   6.051
27801SOL    HW185242   7.514   9.033   6.074
27801SOL    HW285243   7.448   8.965   5.956
27802SOL     OW85244   0.854   9.685  10.353
27802SOL    HW185245   0.922   9.642  10.302
27802SOL    HW285246   0.802   9.733  10.289
27803SOL     OW85247   4.557  12.105  14.243
27803SOL    HW185248   4.516  12.191  14.244
27803SOL    HW285249   4.558  12.077  14.335
27804SOL     OW85250   6.691  13.649   1.288
27804SOL    HW185251   6.677  13.581   1.354
27804SOL    HW285252   6.716  13.602   1.209
27805SOL     OW85253  11.185  10.244   1.463
27805SOL    HW185254  11.223  10.230   1.550
27805SOL    HW285255  11.105  10.191   1.463
27806SOL     OW85256   9.067  10.086   6.406
27806SOL    HW185257   9.122  10.132   6.470
27806SOL    HW285258   9.118  10.010   6.380
27807SOL     OW85259  10.950   4.439   0.736
27807SOL    HW185260  11.027   4.382   0.731
27807SOL    HW285261  10.939   4.457   0.829
27808SOL     OW85262   3.785   0.907  10.984
27808SOL    HW185263   3.752   0.892  11.072
27808SOL    HW285264   3.719   0.962  10.942
27809SOL     OW85265   7.750   7.895   2.848
27809SOL    HW185266   7.768   7.925   2.759
27809SOL    HW285267   7.678   7.832   2.838
27810SOL     OW85268  10.417   0.425   3.076
27810SOL    HW185269  10.506   0.455   3.094
27810SOL    HW285270  10.408   0.344   3.126
27811SOL     OW85271  13.357   1.333  10.596
27811SOL    HW185272  13.275   1.382  10.591
27811SOL    HW285273  13.338   1.249  10.555
27812SOL     OW85274  13.097   1.720  14.366
27812SOL    HW185275  13.078   1.699  14.457
27812SOL    HW285276  13.092   1.637  14.320
27813SOL     OW85277   5.994   8.944  11.186
27813SOL    HW185278   6.001   9.040  11.193
27813SOL    HW285279   5.978   8.914  11.275
27814SOL     OW85280  11.712   2.721  11.188
27814SOL    HW185281  11.781   2.670  11.230
27814SOL    HW285282  11.748   2.809  11.179
27815SOL     OW85283  10.544   4.389  10.355
27815SOL    HW185284  10.582   4.340  10.282
27815SOL    HW285285  10.511   4.470  10.316
27816SOL     OW85286   1.023   4.369   7.622
27816SOL    HW185287   1.057   4.287   7.585
27816SOL    HW285288   1.098   4.427   7.626
27817SOL     OW85289  12.955   9.183   4.310
27817SOL    HW185290  13.039   9.204   4.351
27817SOL    HW285291  12.891   9.191   4.382
27818SOL     OW85292   0.442  14.181   6.848
27818SOL    HW185293   0.466  14.220   6.932
27818SOL    HW285294   0.358  14.139   6.864
27819SOL     OW85295   7.430   5.983  10.440
27819SOL    HW185296   7.456   5.912  10.499
27819SOL    HW285297   7.369   5.942  10.379
27820SOL     OW85298  14.732  11.684   3.160
27820SOL    HW185299  14.762  11.759   3.210
27820SOL    HW285300  14.665  11.644   3.215
27821SOL     OW85301   4.240   5.505  12.981
27821SOL    HW185302   4.255   5.460  13.064
27821SOL    HW285303   4.315   5.481  12.926
27822SOL     OW85304  13.577   0.497   9.452
27822SOL    HW185305  13.596   0.441   9.377
27822SOL    HW285306  13.652   0.484   9.511
27823SOL     OW85307   6.134  13.115  14.179
27823SOL    HW185308   6.153  13.165  14.100
27823SOL    HW285309   6.133  13.024  14.151
27824SOL     OW85310  13.783   3.323   1.250
27824SOL    HW185311  13.777   3.385   1.177
27824SOL    HW285312  13.852   3.262   1.224
27825SOL     OW85313   1.583  10.365  12.109
27825SOL    HW185314   1.578  10.438  12.170
27825SOL    HW285315   1.676  10.361  12.084
27826SOL     OW85316  11.026   1.063   1.365
27826SOL    HW185317  10.972   1.091   1.291
27826SOL    HW285318  11.083   0.995   1.329
27827SOL     OW85319   8.423   7.759   6.265
27827SOL    HW185320   8.359   7.762   6.194
27827SOL    HW285321   8.376   7.717   6.337
27828SOL     OW85322   7.110   5.794   6.485
27828SOL    HW185323   7.038   5.839   6.528
27828SOL    HW285324   7.173   5.776   6.555
27829SOL     OW85325   0.105   4.559   4.882
27829SOL    HW185326   0.028   4.609   4.856
27829SOL    HW285327   0.176   4.623   4.883
27830SOL     OW85328   3.833   3.606  13.955
27830SOL    HW185329   3.783   3.554  14.017
27830SOL    HW285330   3.923   3.575  13.965
27831SOL     OW85331   8.858   2.686   1.512
27831SOL    HW185332   8.827   2.686   1.422
27831SOL    HW285333   8.778   2.691   1.565
27832SOL     OW85334  14.736   9.557   3.053
27832SOL    HW185335  14.660   9.610   3.028
27832SOL    HW285336  14.809   9.594   3.003
27833SOL     OW85337   0.295  10.593   3.706
27833SOL    HW185338   0.340  10.622   3.627
27833SOL    HW285339   0.236  10.524   3.677
27834SOL     OW85340  12.764   8.633  13.303
27834SOL    HW185341  12.670   8.629  13.283
27834SOL    HW285342  12.787   8.725  13.293
27835SOL     OW85343   9.925   2.627   2.106
27835SOL    HW185344   9.965   2.588   2.184
27835SOL    HW285345   9.975   2.707   2.092
27836SOL     OW85346   7.948  11.071   8.962
27836SOL    HW185347   7.927  11.144   9.020
27836SOL    HW285348   7.890  11.000   8.992
27837SOL     OW85349  12.844   6.578   2.644
27837SOL    HW185350  12.924   6.596   2.596
27837SOL    HW285351  12.828   6.657   2.696
27838SOL     OW85352   3.152   0.844   7.471
27838SOL    HW185353   3.077   0.886   7.428
27838SOL    HW285354   3.114   0.801   7.547
27839SOL     OW85355   4.266   6.429   9.551
27839SOL    HW185356   4.273   6.519   9.583
27839SOL    HW285357   4.201   6.433   9.481
27840SOL     OW85358  10.698   9.222  10.693
27840SOL    HW185359  10.694   9.297  10.752
27840SOL    HW285360  10.731   9.151  10.748
27841SOL     OW85361   7.310   4.268   7.014
27841SOL    HW185362   7.399   4.302   7.005
27841SOL    HW285363   7.303   4.199   6.948
27842SOL     OW85364  13.862   2.646  10.475
27842SOL    HW185365  13.812   2.566  10.458
27842SOL    HW285366  13.946   2.615  10.508
27843SOL     OW85367   7.106   3.008   8.574
27843SOL    HW185368   7.161   3.020   8.496
27843SOL    HW285369   7.140   2.928   8.614
27844SOL     OW85370   7.996   8.051   0.084
27844SOL    HW185371   7.973   8.142   0.102
27844SOL    HW285372   8.076   8.057   0.033
27845SOL     OW85373   4.261   7.680   6.905
27845SOL    HW185374   4.254   7.590   6.875
27845SOL    HW285375   4.251   7.733   6.826
27846SOL     OW85376   0.797   7.802  13.983
27846SOL    HW185377   0.760   7.814  14.071
27846SOL    HW285378   0.780   7.885  13.939
27847SOL     OW85379  12.501   9.952   5.027
27847SOL    HW185380  12.580   9.912   5.063
27847SOL    HW285381  12.532  10.029   4.979
27848SOL     OW85382  13.675   8.761  10.894
27848SOL    HW185383  13.587   8.722  10.899
27848SOL    HW285384  13.733   8.687  10.877
27849SOL     OW85385  13.152   2.237   5.078
27849SOL    HW185386  13.188   2.168   5.022
27849SOL    HW285387  13.068   2.260   5.037
27850SOL     OW85388  12.277  11.205  14.078
27850SOL    HW185389  12.225  11.277  14.115
27850SOL    HW285390  12.276  11.138  14.147
27851SOL     OW85391   6.839   8.839   1.718
27851SOL    HW185392   6.819   8.781   1.792
27851SOL    HW285393   6.827   8.927   1.754
27852SOL     OW85394   7.503   8.560  11.258
27852SOL    HW185395   7.594   8.575  11.233
27852SOL    HW285396   7.487   8.469  11.235
27853SOL     OW85397   2.327   7.716   7.089
27853SOL    HW185398   2.358   7.627   7.068
27853SOL    HW285399   2.236   7.705   7.114
27854SOL     OW85400   1.323   7.176   9.343
27854SOL    HW185401   1.285   7.156   9.429
27854SOL    HW285402   1.361   7.263   9.353
27855SOL     OW85403   4.094   0.776  11.133
27855SOL    HW185404   4.153   0.814  11.199
27855SOL    HW285405   4.014   0.755  11.181
27856SOL     OW85406   2.416   5.501   8.191
27856SOL    HW185407   2.417   5.410   8.222
27856SOL    HW285408   2.496   5.539   8.227
27857SOL     OW85409   4.445  12.491   8.288
27857SOL    HW185410   4.440  12.570   8.234
27857SOL    HW285411   4.529  12.451   8.265
27858SOL     OW85412  11.095  13.302   4.005
27858SOL    HW185413  11.150  13.306   4.083
27858SOL    HW285414  11.028  13.369   4.019
27859SOL     OW85415  10.205   7.669   3.627
27859SOL    HW185416  10.228   7.741   3.685
27859SOL    HW285417  10.128   7.701   3.579
27860SOL     OW85418  12.005   1.053  14.622
27860SOL    HW185419  12.005   0.957  14.616
27860SOL    HW285420  12.095   1.078  14.600
27861SOL     OW85421   6.579   6.385   8.911
27861SOL    HW185422   6.558   6.371   8.818
27861SOL    HW285423   6.674   6.381   8.915
27862SOL     OW85424   9.422   2.905   3.166
27862SOL    HW185425   9.509   2.945   3.167
27862SOL    HW285426   9.438   2.813   3.142
27863SOL     OW85427  13.089  10.558   1.798
27863SOL    HW185428  13.147  10.554   1.873
27863SOL    HW285429  13.007  10.517   1.828
27864SOL     OW85430   6.547  12.286   2.733
27864SOL    HW185431   6.509  12.205   2.767
27864SOL    HW285432   6.594  12.323   2.808
27865SOL     OW85433   4.505  13.597  11.832
27865SOL    HW185434   4.410  13.597  11.847
27865SOL    HW285435   4.518  13.542  11.755
27866SOL     OW85436   6.306  13.887  11.443
27866SOL    HW185437   6.311  13.854  11.353
27866SOL    HW285438   6.231  13.946  11.443
27867SOL     OW85439   1.471  11.608   0.616
27867SOL    HW185440   1.554  11.593   0.663
27867SOL    HW285441   1.464  11.534   0.557
27868SOL     OW85442  10.418  11.886   8.879
27868SOL    HW185443  10.326  11.911   8.892
27868SOL    HW285444  10.468  11.957   8.920
27869SOL     OW85445   4.271   5.935   3.791
27869SOL    HW185446   4.199   5.888   3.748
27869SOL    HW285447   4.298   6.001   3.727
27870SOL     OW85448   8.491  11.090   8.476
27870SOL    HW185449   8.527  11.003   8.496
27870SOL    HW285450   8.494  11.136   8.560
27871SOL     OW85451  13.636   3.917  10.179
27871SOL    HW185452  13.694   3.889  10.108
27871SOL    HW285453  13.567   3.966  10.135
27872SOL     OW85454   9.353   8.238   1.996
27872SOL    HW185455   9.394   8.222   1.911
27872SOL    HW285456   9.420   8.213   2.060
27873SOL     OW85457   2.005  12.222   1.153
27873SOL    HW185458   1.970  12.307   1.178
27873SOL    HW285459   1.987  12.166   1.229
27874SOL     OW85460   7.544   7.302  13.591
27874SOL    HW185461   7.527   7.386  13.632
27874SOL    HW285462   7.586   7.249  13.660
27875SOL     OW85463   9.566  13.877  11.643
27875SOL    HW185464   9.578  13.785  11.665
27875SOL    HW285465   9.574  13.881  11.548
27876SOL     OW85466   1.622   6.235   6.242
27876SOL    HW185467   1.625   6.142   6.219
27876SOL    HW285468   1.538   6.266   6.209
27877SOL     OW85469  14.438   4.982   4.417
27877SOL    HW185470  14.460   4.892   4.393
27877SOL    HW285471  14.408   5.022   4.335
27878SOL     OW85472  13.980  12.622  13.483
27878SOL    HW185473  14.022  12.540  13.455
27878SOL    HW285474  13.898  12.624  13.434
27879SOL     OW85475   4.344  11.362   4.013
27879SOL    HW185476   4.291  11.353   3.933
27879SOL    HW285477   4.395  11.281   4.017
27880SOL     OW85478  13.353  10.619  14.023
27880SOL    HW185479  13.318  10.708  14.022
27880SOL    HW285480  13.297  10.571  14.084
27881SOL     OW85481  12.381  12.748   5.741
27881SOL    HW185482  12.386  12.843   5.731
27881SOL    HW285483  12.394  12.733   5.834
27882SOL     OW85484   1.012  13.178   9.915
27882SOL    HW185485   1.018  13.186   9.820
27882SOL    HW285486   0.933  13.126   9.930
27883SOL     OW85487   5.762  13.013   4.073
27883SOL    HW185488   5.856  12.998   4.061
27883SOL    HW285489   5.757  13.081   4.140
27884SOL     OW85490  10.756  10.470   4.874
27884SOL    HW185491  10.727  10.437   4.959
27884SOL    HW285492  10.852  10.474   4.881
27885SOL     OW85493  10.493   7.534   0.519
27885SOL    HW185494  10.447   7.522   0.602
27885SOL    HW285495  10.424   7.552   0.456
27886SOL     OW85496   2.666   2.195  13.551
27886SOL    HW185497   2.640   2.114  13.508
27886SOL    HW285498   2.703   2.166  13.635
27887SOL     OW85499   5.121   4.560   3.695
27887SOL    HW185500   5.150   4.590   3.608
27887SOL    HW285501   5.095   4.640   3.740
27888SOL     OW85502   0.103   6.655   6.803
27888SOL    HW185503   0.063   6.580   6.759
27888SOL    HW285504   0.064   6.656   6.890
27889SOL     OW85505   8.448   5.532   7.699
27889SOL    HW185506   8.542   5.520   7.714
27889SOL    HW285507   8.443   5.583   7.618
27890SOL     OW85508  13.895   4.455  11.298
27890SOL    HW185509  13.921   4.417  11.214
27890SOL    HW285510  13.966   4.516  11.319
27891SOL     OW85511  12.042   9.863   4.873
27891SOL    HW185512  12.138   9.860   4.867
27891SOL    HW285513  12.018   9.779   4.912
27892SOL     OW85514   8.226   6.648  11.233
27892SOL    HW185515   8.311   6.686  11.256
27892SOL    HW285516   8.163   6.718  11.249
27893SOL     OW85517   0.526   4.696   6.017
27893SOL    HW185518   0.495   4.776   6.058
27893SOL    HW285519   0.451   4.663   5.967
27894SOL     OW85520   0.151  13.390   9.194
27894SOL    HW185521   0.176  13.479   9.216
27894SOL    HW285522   0.061  13.396   9.161
27895SOL     OW85523   9.394   0.233   1.222
27895SOL    HW185524   9.445   0.282   1.157
27895SOL    HW285525   9.411   0.141   1.202
27896SOL     OW85526  11.436   5.996   1.512
27896SOL    HW185527  11.424   6.085   1.544
27896SOL    HW285528  11.412   6.000   1.420
27897SOL     OW85529   6.233   4.903  10.435
27897SOL    HW185530   6.206   4.977  10.380
27897SOL    HW285531   6.280   4.943  10.508
27898SOL     OW85532   1.441   9.473  10.018
27898SOL    HW185533   1.478   9.458  10.105
27898SOL    HW285534   1.453   9.567  10.004
27899SOL     OW85535   6.749  12.017  11.983
27899SOL    HW185536   6.717  11.930  12.009
27899SOL    HW285537   6.790  12.051  12.062
27900SOL     OW85538   8.212   6.063   2.917
27900SOL    HW185539   8.287   6.115   2.946
27900SOL    HW285540   8.209   5.990   2.979
27901SOL     OW85541  12.887   1.294  13.338
27901SOL    HW185542  12.837   1.214  13.356
27901SOL    HW285543  12.972   1.278  13.377
27902SOL     OW85544   0.295   3.847   9.387
27902SOL    HW185545   0.256   3.908   9.451
27902SOL    HW285546   0.373   3.814   9.431
27903SOL     OW85547   3.128   8.967   0.005
27903SOL    HW185548   3.218   8.940  14.868
27903SOL    HW285549   3.083   8.960  14.802
27904SOL     OW85550   5.696   4.247   8.899
27904SOL    HW185551   5.604   4.249   8.926
27904SOL    HW285552   5.721   4.154   8.907
27905SOL     OW85553   9.206   7.535  14.778
27905SOL    HW185554   9.241   7.474  14.842
27905SOL    HW285555   9.279   7.553  14.719
27906SOL     OW85556   7.592  10.514  12.792
27906SOL    HW185557   7.534  10.577  12.750
27906SOL    HW285558   7.669  10.566  12.817
27907SOL     OW85559  13.028   7.512   6.674
27907SOL    HW185560  12.969   7.498   6.600
27907SOL    HW285561  13.020   7.605   6.694
27908SOL     OW85562   4.238  10.027   7.531
27908SOL    HW185563   4.169   9.978   7.487
27908SOL    HW285564   4.315  10.017   7.475
27909SOL     OW85565   8.746   6.869  12.608
27909SOL    HW185566   8.829   6.840  12.645
27909SOL    HW285567   8.689   6.882  12.684
27910SOL     OW85568   8.178   1.980   8.559
27910SOL    HW185569   8.190   1.953   8.468
27910SOL    HW285570   8.260   1.956   8.603
27911SOL     OW85571   0.278  11.379   8.872
27911SOL    HW185572   0.367  11.376   8.909
27911SOL    HW285573   0.292  11.372   8.777
27912SOL     OW85574  13.588   0.475  13.133
27912SOL    HW185575  13.679   0.486  13.104
27912SOL    HW285576  13.564   0.561  13.168
27913SOL     OW85577   0.952   4.642  10.625
27913SOL    HW185578   0.894   4.615  10.696
27913SOL    HW285579   0.980   4.730  10.650
27914SOL     OW85580  12.950   5.414   0.548
27914SOL    HW185581  12.863   5.408   0.589
27914SOL    HW285582  12.941   5.365   0.467
27915SOL     OW85583  10.034   4.461  13.373
27915SOL    HW185584  10.011   4.369  13.367
27915SOL    HW285585   9.953   4.505  13.399
27916SOL     OW85586   8.770   7.609  13.038
27916SOL    HW185587   8.845   7.576  12.990
27916SOL    HW285588   8.796   7.606  13.130
27917SOL     OW85589   3.119  13.673  10.419
27917SOL    HW185590   3.183  13.673  10.347
27917SOL    HW285591   3.150  13.605  10.478
27918SOL     OW85592  10.117   1.172   5.625
27918SOL    HW185593  10.035   1.189   5.579
27918SOL    HW285594  10.122   1.077   5.631
27919SOL     OW85595  14.200  13.215   4.178
27919SOL    HW185596  14.270  13.195   4.115
27919SOL    HW285597  14.129  13.156   4.153
27920SOL     OW85598   8.524   3.245   8.499
27920SOL    HW185599   8.433   3.243   8.528
27920SOL    HW285600   8.529   3.177   8.432
27921SOL     OW85601  13.232  10.987  10.967
27921SOL    HW185602  13.202  10.929  11.037
27921SOL    HW285603  13.182  10.959  10.890
27922SOL     OW85604   0.930  13.167  11.642
27922SOL    HW185605   0.993  13.140  11.709
27922SOL    HW285606   0.958  13.122  11.563
27923SOL     OW85607   8.842   1.914   1.570
27923SOL    HW185608   8.844   1.947   1.480
27923SOL    HW285609   8.837   1.819   1.561
27924SOL     OW85610   4.161   9.303   4.931
27924SOL    HW185611   4.096   9.360   4.889
27924SOL    HW285612   4.139   9.215   4.901
27925SOL     OW85613   1.452   6.381  14.072
27925SOL    HW185614   1.471   6.362  14.164
27925SOL    HW285615   1.536   6.367  14.028
27926SOL     OW85616  14.752   9.953  13.935
27926SOL    HW185617  14.693   9.964  14.010
27926SOL    HW285618  14.760  10.040  13.897
27927SOL     OW85619   2.468   2.431  11.770
27927SOL    HW185620   2.561   2.433  11.748
27927SOL    HW285621   2.457   2.349  11.819
27928SOL     OW85622   3.818  14.853   9.949
27928SOL    HW185623   3.894   0.027   9.966
27928SOL    HW285624   3.850  14.764   9.960
27929SOL     OW85625  11.895   9.385   4.641
27929SOL    HW185626  11.966   9.425   4.591
27929SOL    HW285627  11.832   9.356   4.575
27930SOL     OW85628   3.303  13.314   2.557
27930SOL    HW185629   3.228  13.366   2.530
27930SOL    HW285630   3.306  13.242   2.494
27931SOL     OW85631   8.206  11.560  12.125
27931SOL    HW185632   8.161  11.589  12.204
27931SOL    HW285633   8.144  11.499  12.083
27932SOL     OW85634   4.377   5.056   9.333
27932SOL    HW185635   4.378   5.018   9.421
27932SOL    HW285636   4.355   4.983   9.276
27933SOL     OW85637   1.383   5.798   9.599
27933SOL    HW185638   1.396   5.892   9.594
27933SOL    HW285639   1.309   5.780   9.541
27934SOL     OW85640   8.411   9.294  14.442
27934SOL    HW185641   8.493   9.342  14.431
27934SOL    HW285642   8.342   9.358  14.424
27935SOL     OW85643  12.294   5.187  14.609
27935SOL    HW185644  12.222   5.127  14.590
27935SOL    HW285645  12.253   5.261  14.654
27936SOL     OW85646   0.168  10.428  11.248
27936SOL    HW185647   0.120  10.392  11.323
27936SOL    HW285648   0.260  10.411  11.268
27937SOL     OW85649   8.959   1.681   6.426
27937SOL    HW185650   8.986   1.773   6.426
27937SOL    HW285651   8.932   1.665   6.336
27938SOL     OW85652  10.025   4.668   5.582
27938SOL    HW185653   9.976   4.655   5.500
27938SOL    HW285654  10.032   4.763   5.591
27939SOL     OW85655  10.931  11.550   6.413
27939SOL    HW185656  10.924  11.645   6.407
27939SOL    HW285657  10.897  11.528   6.500
27940SOL     OW85658   8.232  11.068   2.451
27940SOL    HW185659   8.256  11.012   2.525
27940SOL    HW285660   8.218  11.007   2.379
27941SOL     OW85661   0.624  13.914   4.854
27941SOL    HW185662   0.668  13.829   4.842
27941SOL    HW285663   0.602  13.916   4.947
27942SOL     OW85664  10.608  10.729   7.859
27942SOL    HW185665  10.554  10.780   7.800
27942SOL    HW285666  10.671  10.686   7.802
27943SOL     OW85667  10.841   3.928  12.515
27943SOL    HW185668  10.888   3.848  12.540
27943SOL    HW285669  10.892   3.964  12.442
27944SOL     OW85670   6.941  13.543   8.300
27944SOL    HW185671   6.943  13.625   8.350
27944SOL    HW285672   6.885  13.486   8.351
27945SOL     OW85673  13.731  14.686   0.877
27945SOL    HW185674  13.683  14.765   0.855
27945SOL    HW285675  13.667  14.615   0.866
27946SOL     OW85676   2.182   5.368  14.730
27946SOL    HW185677   2.206   5.454  14.697
27946SOL    HW285678   2.088   5.375  14.749
27947SOL     OW85679   4.174  13.144  11.498
27947SOL    HW185680   4.204  13.175  11.583
27947SOL    HW285681   4.097  13.197  11.478
27948SOL     OW85682   5.008   9.842  10.911
27948SOL    HW185683   4.954   9.781  10.861
27948SOL    HW285684   4.985   9.826  11.002
27949SOL     OW85685  13.792   8.317  12.127
27949SOL    HW185686  13.829   8.385  12.183
27949SOL    HW285687  13.698   8.331  12.132
27950SOL     OW85688   9.876  13.281  10.604
27950SOL    HW185689   9.833  13.348  10.657
27950SOL    HW285690   9.907  13.216  10.668
27951SOL     OW85691  12.838  10.092   6.126
27951SOL    HW185692  12.772  10.077   6.058
27951SOL    HW285693  12.888  10.011   6.130
27952SOL     OW85694   1.621  11.732  10.467
27952SOL    HW185695   1.548  11.669  10.466
27952SOL    HW285696   1.691  11.686  10.513
27953SOL     OW85697   4.393  11.720  11.263
27953SOL    HW185698   4.351  11.701  11.346
27953SOL    HW285699   4.363  11.650  11.204
27954SOL     OW85700   4.487  12.868   9.704
27954SOL    HW185701   4.533  12.891   9.623
27954SOL    HW285702   4.410  12.926   9.705
27955SOL     OW85703   7.844   2.963  12.218
27955SOL    HW185704   7.936   2.952  12.195
27955SOL    HW285705   7.844   2.970  12.313
27956SOL     OW85706  12.778  14.729   7.061
27956SOL    HW185707  12.830  14.743   6.982
27956SOL    HW285708  12.825  14.776   7.130
27957SOL     OW85709   2.843   2.514   2.276
27957SOL    HW185710   2.792   2.435   2.261
27957SOL    HW285711   2.829   2.567   2.197
27958SOL     OW85712  10.785  12.013  10.701
27958SOL    HW185713  10.860  11.953  10.711
27958SOL    HW285714  10.725  11.966  10.644
27959SOL     OW85715   1.819   4.364   6.165
27959SOL    HW185716   1.763   4.425   6.118
27959SOL    HW285717   1.823   4.399   6.254
27960SOL     OW85718  11.557   9.386  11.944
27960SOL    HW185719  11.514   9.301  11.959
27960SOL    HW285720  11.521   9.443  12.012
27961SOL     OW85721   1.473   1.345   6.594
27961SOL    HW185722   1.492   1.433   6.629
27961SOL    HW285723   1.391   1.356   6.545
27962SOL     OW85724  11.333   4.530  12.642
27962SOL    HW185725  11.357   4.554  12.553
27962SOL    HW285726  11.276   4.601  12.671
27963SOL     OW85727   8.596  14.088   8.602
27963SOL    HW185728   8.501  14.082   8.591
27963SOL    HW285729   8.618  14.010   8.654
27964SOL     OW85730   3.471   2.102   4.887
27964SOL    HW185731   3.515   2.070   4.808
27964SOL    HW285732   3.515   2.056   4.959
27965SOL     OW85733   1.277   2.090   8.203
27965SOL    HW185734   1.370   2.090   8.184
27965SOL    HW285735   1.258   2.000   8.230
27966SOL     OW85736  11.273   3.092   8.807
27966SOL    HW185737  11.212   3.133   8.747
27966SOL    HW285738  11.233   3.103   8.894
27967SOL     OW85739  11.414  13.119  10.001
27967SOL    HW185740  11.443  13.096  10.090
27967SOL    HW285741  11.395  13.035   9.960
27968SOL     OW85742   0.664  14.687  12.897
27968SOL    HW185743   0.728  14.662  12.963
27968SOL    HW285744   0.677  14.781  12.885
27969SOL     OW85745   9.725  10.628   6.036
27969SOL    HW185746   9.796  10.607   6.096
27969SOL    HW285747   9.654  10.569   6.061
27970SOL     OW85748   8.015   6.904   0.029
27970SOL    HW185749   7.927   6.927   0.061
27970SOL    HW285750   8.048   6.843   0.094
27971SOL     OW85751   2.515  10.314  14.243
27971SOL    HW185752   2.569  10.236  14.230
27971SOL    HW285753   2.439  10.300  14.186
27972SOL     OW85754   6.255  11.109  12.568
27972SOL    HW185755   6.243  11.200  12.593
27972SOL    HW285756   6.190  11.061  12.619
27973SOL     OW85757  13.171  14.299   3.761
27973SOL    HW185758  13.086  14.323   3.723
27973SOL    HW285759  13.222  14.380   3.757
27974SOL     OW85760  13.554  14.657  14.129
27974SOL    HW185761  13.584  14.567  14.142
27974SOL    HW285762  13.616  14.711  14.177
27975SOL     OW85763  13.987   6.983   0.111
27975SOL    HW185764  13.985   7.067   0.157
27975SOL    HW285765  13.987   6.917   0.180
27976SOL     OW85766   3.531  13.317   4.858
27976SOL    HW185767   3.605  13.367   4.823
27976SOL    HW285768   3.458  13.341   4.801
27977SOL     OW85769   2.865   4.448  10.610
27977SOL    HW185770   2.887   4.503  10.535
27977SOL    HW285771   2.896   4.361  10.587
27978SOL     OW85772  14.506   4.506   6.974
27978SOL    HW185773  14.578   4.527   7.034
27978SOL    HW285774  14.427   4.537   7.020
27979SOL     OW85775   8.342  11.610   1.951
27979SOL    HW185776   8.366  11.547   1.882
27979SOL    HW285777   8.389  11.580   2.028
27980SOL     OW85778  11.399   4.761   8.892
27980SOL    HW185779  11.417   4.712   8.812
27980SOL    HW285780  11.400   4.695   8.962
27981SOL     OW85781   1.115  13.224  14.563
27981SOL    HW185782   1.063  13.291  14.608
27981SOL    HW285783   1.139  13.265  14.480
27982SOL     OW85784   8.672   4.246   6.343
27982SOL    HW185785   8.682   4.281   6.432
27982SOL    HW285786   8.742   4.182   6.334
27983SOL     OW85787   6.673  13.745   4.130
27983SOL    HW185788   6.675  13.654   4.157
27983SOL    HW285789   6.581  13.771   4.138
27984SOL     OW85790  12.937  10.598   2.302
27984SOL    HW185791  12.903  10.640   2.381
27984SOL    HW285792  12.922  10.505   2.316
27985SOL     OW85793   7.989  11.359   2.648
27985SOL    HW185794   7.895  11.376   2.652
27985SOL    HW285795   8.004  11.330   2.558
27986SOL     OW85796  10.653  13.527   2.874
27986SOL    HW185797  10.713  13.455   2.889
27986SOL    HW285798  10.566  13.489   2.886
27987SOL     OW85799  14.820   5.494   5.429
27987SOL    HW185800   0.024   5.467   5.460
27987SOL    HW285801  14.831   5.586   5.404
27988SOL     OW85802   3.738   3.583  12.838
27988SOL    HW185803   3.703   3.657  12.788
27988SOL    HW285804   3.812   3.552  12.786
27989SOL     OW85805   2.831  11.419  12.161
27989SOL    HW185806   2.872  11.378  12.237
27989SOL    HW285807   2.746  11.450  12.193
27990SOL     OW85808  11.313   2.238  13.238
27990SOL    HW185809  11.340   2.323  13.270
27990SOL    HW285810  11.237   2.214  13.292
27991SOL     OW85811   9.019   7.115   7.054
27991SOL    HW185812   8.951   7.131   7.120
27991SOL    HW285813   9.090   7.175   7.078
27992SOL     OW85814   4.460   1.401   8.750
27992SOL    HW185815   4.394   1.373   8.687
27992SOL    HW285816   4.435   1.491   8.771
27993SOL     OW85817   0.003   9.492   0.845
27993SOL    HW185818  14.808   9.530   0.802
27993SOL    HW285819  14.856   9.405   0.873
27994SOL     OW85820  11.024   3.931   9.703
27994SOL    HW185821  11.080   3.983   9.646
27994SOL    HW285822  10.943   3.919   9.653
27995SOL     OW85823  12.678  11.747   2.347
27995SOL    HW185824  12.604  11.806   2.338
27995SOL    HW285825  12.644  11.674   2.399
27996SOL     OW85826   4.740  12.606   0.705
27996SOL    HW185827   4.670  12.648   0.756
27996SOL    HW285828   4.790  12.557   0.770
27997SOL     OW85829  11.789   7.694  10.306
27997SOL    HW185830  11.845   7.698  10.384
27997SOL    HW285831  11.821   7.764  10.250
27998SOL     OW85832  14.230   0.495   4.731
27998SOL    HW185833  14.324   0.493   4.750
27998SOL    HW285834  14.189   0.496   4.818
27999SOL     OW85835   0.308   0.562  13.510
27999SOL    HW185836   0.362   0.557  13.431
27999SOL    HW285837   0.358   0.516  13.576
28000SOL     OW85838  10.259   5.065   6.018
28000SOL    HW185839  10.342   5.114   6.014
28000SOL    HW285840  10.264   5.016   6.100
28001SOL     OW85841   4.366   2.752   8.706
28001SOL    HW185842   4.358   2.829   8.651
28001SOL    HW285843   4.276   2.730   8.731
28002SOL     OW85844  10.040  12.419   4.513
28002SOL    HW185845  10.057  12.497   4.565
28002SOL    HW285846  10.063  12.443   4.423
28003SOL     OW85847  12.530   2.225   3.355
28003SOL    HW185848  12.573   2.153   3.308
28003SOL    HW285849  12.439   2.222   3.326
28004SOL     OW85850   3.651   2.930   2.001
28004SOL    HW185851   3.742   2.903   1.987
28004SOL    HW285852   3.648   3.020   1.970
28005SOL     OW85853  13.797  12.745   8.765
28005SOL    HW185854  13.752  12.770   8.846
28005SOL    HW285855  13.731  12.696   8.715
28006SOL     OW85856  13.414   3.948  11.601
28006SOL    HW185857  13.487   3.893  11.574
28006SOL    HW285858  13.415   4.022  11.541
28007SOL     OW85859   4.242  10.808   1.132
28007SOL    HW185860   4.183  10.735   1.114
28007SOL    HW285861   4.297  10.814   1.054
28008SOL     OW85862   2.952   0.298   5.094
28008SOL    HW185863   2.946   0.232   5.025
28008SOL    HW285864   3.031   0.348   5.071
28009SOL     OW85865   1.613   8.175   3.554
28009SOL    HW185866   1.579   8.151   3.467
28009SOL    HW285867   1.569   8.258   3.575
28010SOL     OW85868   6.601  11.817   6.401
28010SOL    HW185869   6.633  11.747   6.457
28010SOL    HW285870   6.538  11.775   6.343
28011SOL     OW85871  14.540  10.158  11.286
28011SOL    HW185872  14.463  10.110  11.315
28011SOL    HW285873  14.531  10.165  11.191
28012SOL     OW85874   8.684   6.347  10.807
28012SOL    HW185875   8.727   6.341  10.722
28012SOL    HW285876   8.595   6.376  10.787
28013SOL     OW85877   3.214   0.312   4.225
28013SOL    HW185878   3.243   0.396   4.261
28013SOL    HW285879   3.294   0.267   4.199
28014SOL     OW85880   3.139   2.326  13.669
28014SOL    HW185881   3.150   2.386  13.742
28014SOL    HW285882   3.096   2.378  13.601
28015SOL     OW85883   6.720   1.006   3.498
28015SOL    HW185884   6.802   1.018   3.450
28015SOL    HW285885   6.651   1.016   3.432
28016SOL     OW85886   9.349  14.780   4.598
28016SOL    HW185887   9.308  14.695   4.579
28016SOL    HW285888   9.415  14.760   4.665
28017SOL     OW85889   3.920   1.771  13.060
28017SOL    HW185890   3.868   1.793  12.982
28017SOL    HW285891   3.857   1.776  13.133
28018SOL     OW85892  13.784   1.829   3.610
28018SOL    HW185893  13.861   1.780   3.581
28018SOL    HW285894  13.723   1.762   3.641
28019SOL     OW85895  14.434   1.546   6.461
28019SOL    HW185896  14.467   1.634   6.447
28019SOL    HW285897  14.423   1.510   6.373
28020SOL     OW85898  14.368   9.415   4.735
28020SOL    HW185899  14.302   9.477   4.704
28020SOL    HW285900  14.405   9.378   4.655
28021SOL     OW85901   3.470   6.655   7.203
28021SOL    HW185902   3.531   6.676   7.133
28021SOL    HW285903   3.397   6.611   7.159
28022SOL     OW85904  14.065   6.508   7.743
28022SOL    HW185905  14.001   6.557   7.794
28022SOL    HW285906  14.147   6.519   7.790
28023SOL     OW85907   4.797   0.918   1.161
28023SOL    HW185908   4.820   0.839   1.210
28023SOL    HW285909   4.702   0.927   1.173
28024SOL     OW85910  12.918  10.756  10.586
28024SOL    HW185911  13.010  10.744  10.562
28024SOL    HW285912  12.870  10.695  10.530
28025SOL     OW85913   0.271  11.788   9.587
28025SOL    HW185914   0.356  11.814   9.622
28025SOL    HW285915   0.207  11.831   9.643
28026SOL     OW85916   1.530   7.162   8.854
28026SOL    HW185917   1.548   7.224   8.924
28026SOL    HW285918   1.516   7.079   8.898
28027SOL     OW85919   5.816   0.613   6.606
28027SOL    HW185920   5.722   0.628   6.600
28027SOL    HW285921   5.851   0.646   6.523
28028SOL     OW85922   4.915   9.124   1.770
28028SOL    HW185923   4.856   9.103   1.698
28028SOL    HW285924   4.949   9.040   1.798
28029SOL     OW85925  14.393   9.849   5.076
28029SOL    HW185926  14.423   9.810   5.158
28029SOL    HW285927  14.300   9.829   5.072
28030SOL     OW85928  11.548   3.898   9.338
28030SOL    HW185929  11.559   3.961   9.410
28030SOL    HW285930  11.479   3.840   9.368
28031SOL     OW85931  10.358   1.883   8.859
28031SOL    HW185932  10.430   1.821   8.850
28031SOL    HW285933  10.353   1.926   8.774
28032SOL     OW85934  14.446   0.859   1.590
28032SOL    HW185935  14.489   0.799   1.528
28032SOL    HW285936  14.453   0.945   1.548
28033SOL     OW85937   1.820   6.819   0.561
28033SOL    HW185938   1.903   6.828   0.608
28033SOL    HW285939   1.809   6.725   0.551
28034SOL     OW85940   6.284  14.464   8.534
28034SOL    HW185941   6.250  14.471   8.623
28034SOL    HW285942   6.208  14.481   8.478
28035SOL     OW85943   8.340  11.320  14.711
28035SOL    HW185944   8.360  11.409  14.684
28035SOL    HW285945   8.269  11.329  14.774
28036SOL     OW85946   3.863  10.504  11.534
28036SOL    HW185947   3.833  10.434  11.476
28036SOL    HW285948   3.910  10.564  11.476
28037SOL     OW85949   7.118   3.764   5.812
28037SOL    HW185950   7.123   3.845   5.863
28037SOL    HW285951   7.050   3.713   5.856
28038SOL     OW85952   1.775   7.548  10.131
28038SOL    HW185953   1.797   7.623  10.186
28038SOL    HW285954   1.721   7.585  10.061
28039SOL     OW85955  13.693   3.977  12.588
28039SOL    HW185956  13.727   4.066  12.587
28039SOL    HW285957  13.770   3.921  12.591
28040SOL     OW85958  10.462  11.661  11.098
28040SOL    HW185959  10.517  11.727  11.055
28040SOL    HW285960  10.375  11.702  11.103
28041SOL     OW85961  10.032  13.362  12.248
28041SOL    HW185962  10.111  13.358  12.193
28041SOL    HW285963  10.022  13.455  12.269
28042SOL     OW85964  10.377   6.694  10.280
28042SOL    HW185965  10.317   6.742  10.337
28042SOL    HW285966  10.375   6.604  10.313
28043SOL     OW85967   7.674   5.088  13.032
28043SOL    HW185968   7.742   5.086  13.099
28043SOL    HW285969   7.596   5.119  13.078
28044SOL     OW85970   9.342   3.978   4.592
28044SOL    HW185971   9.358   4.053   4.535
28044SOL    HW285972   9.295   3.915   4.538
28045SOL     OW85973   8.878   7.040  14.414
28045SOL    HW185974   8.973   7.035  14.426
28045SOL    HW285975   8.841   7.000  14.493
28046SOL     OW85976   9.479   1.519   4.669
28046SOL    HW185977   9.551   1.581   4.657
28046SOL    HW285978   9.514   1.452   4.727
28047SOL     OW85979  10.248  10.817   1.706
28047SOL    HW185980  10.263  10.726   1.733
28047SOL    HW285981  10.335  10.849   1.683
28048SOL     OW85982   1.516   0.710   7.099
28048SOL    HW185983   1.581   0.740   7.035
28048SOL    HW285984   1.482   0.629   7.061
28049SOL     OW85985  12.824   6.763   0.956
28049SOL    HW185986  12.757   6.695   0.952
28049SOL    HW285987  12.907   6.715   0.946
28050SOL     OW85988   7.850   8.726  11.684
28050SOL    HW185989   7.831   8.729  11.778
28050SOL    HW285990   7.764   8.726  11.642
28051SOL     OW85991   2.298   3.043   8.275
28051SOL    HW185992   2.347   3.066   8.196
28051SOL    HW285993   2.207   3.043   8.247
28052SOL     OW85994   6.313  11.375  11.693
28052SOL    HW185995   6.233  11.324  11.680
28052SOL    HW285996   6.284  11.454  11.740
28053SOL     OW85997  13.150   4.435   4.972
28053SOL    HW185998  13.180   4.359   5.021
28053SOL    HW285999  13.072   4.405   4.925
28054SOL     OW86000   2.932   7.873  13.505
28054SOL    HW186001   2.985   7.809  13.552
28054SOL    HW286002   2.961   7.866  13.414
28055SOL     OW86003  12.912   1.295  14.003
28055SOL    HW186004  12.975   1.223  14.011
28055SOL    HW286005  12.827   1.254  14.019
28056SOL     OW86006  12.649   8.671   3.975
28056SOL    HW186007  12.689   8.611   3.912
28056SOL    HW286008  12.688   8.647   4.059
28057SOL     OW86009   1.423  13.352   9.303
28057SOL    HW186010   1.449  13.391   9.220
28057SOL    HW286011   1.390  13.265   9.280
28058SOL     OW86012   0.696   1.230  13.506
28058SOL    HW186013   0.776   1.179  13.519
28058SOL    HW286014   0.647   1.218  13.587
28059SOL     OW86015   7.823   2.777   0.486
28059SOL    HW186016   7.786   2.856   0.446
28059SOL    HW286017   7.747   2.724   0.509
28060SOL     OW86018  10.983  13.504   1.664
28060SOL    HW186019  11.045  13.542   1.726
28060SOL    HW286020  11.021  13.522   1.578
28061SOL     OW86021  14.506   2.343  12.926
28061SOL    HW186022  14.580   2.392  12.962
28061SOL    HW286023  14.524   2.338  12.832
28062SOL     OW86024   7.257   3.576  12.484
28062SOL    HW186025   7.345   3.592  12.518
28062SOL    HW286026   7.216   3.662  12.483
28063SOL     OW86027   5.847  12.607   7.065
28063SOL    HW186028   5.895  12.687   7.085
28063SOL    HW286029   5.762  12.618   7.109
28064SOL     OW86030  11.700  13.606   4.986
28064SOL    HW186031  11.619  13.627   5.033
28064SOL    HW286032  11.768  13.652   5.034
28065SOL     OW86033   7.259   5.859  10.224
28065SOL    HW186034   7.186   5.810  10.262
28065SOL    HW286035   7.218   5.931  10.177
28066SOL     OW86036   8.858  10.369   8.480
28066SOL    HW186037   8.946  10.331   8.483
28066SOL    HW286038   8.871  10.458   8.447
28067SOL     OW86039   4.775   8.197   2.682
28067SOL    HW186040   4.770   8.202   2.587
28067SOL    HW286041   4.863   8.230   2.703
28068SOL     OW86042  13.626   5.951  12.395
28068SOL    HW186043  13.550   5.907  12.356
28068SOL    HW286044  13.621   5.931  12.488
28069SOL     OW86045   0.102   9.779   3.114
28069SOL    HW186046   0.143   9.825   3.187
28069SOL    HW286047   0.014   9.816   3.108
28070SOL     OW86048   5.137   5.226   1.261
28070SOL    HW186049   5.044   5.244   1.274
28070SOL    HW286050   5.182   5.306   1.290
28071SOL     OW86051  11.468  11.167   1.158
28071SOL    HW186052  11.485  11.181   1.065
28071SOL    HW286053  11.389  11.219   1.176
28072SOL     OW86054  10.298   8.045   7.474
28072SOL    HW186055  10.295   7.978   7.542
28072SOL    HW286056  10.234   8.111   7.504
28073SOL     OW86057   2.256  10.844   1.967
28073SOL    HW186058   2.217  10.928   1.943
28073SOL    HW286059   2.251  10.842   2.063
28074SOL     OW86060   9.336  11.201   8.092
28074SOL    HW186061   9.265  11.266   8.094
28074SOL    HW286062   9.412  11.250   8.059
28075SOL     OW86063   2.409   4.172   5.680
28075SOL    HW186064   2.325   4.201   5.644
28075SOL    HW286065   2.429   4.091   5.631
28076SOL     OW86066   6.710   9.577  14.834
28076SOL    HW186067   6.633   9.585   0.008
28076SOL    HW286068   6.756   9.500  14.867
28077SOL     OW86069  11.176  10.131  10.281
28077SOL    HW186070  11.234  10.060  10.308
28077SOL    HW286071  11.096  10.117  10.331
28078SOL     OW86072   3.049  10.580   3.489
28078SOL    HW186073   2.999  10.655   3.521
28078SOL    HW286074   3.071  10.602   3.399
28079SOL     OW86075   0.742  11.332  13.211
28079SOL    HW186076   0.711  11.242  13.202
28079SOL    HW286077   0.688  11.370  13.280
28080SOL     OW86078   5.248   0.600  10.283
28080SOL    HW186079   5.220   0.531  10.223
28080SOL    HW286080   5.342   0.608  10.268
28081SOL     OW86081   3.910   7.129   0.591
28081SOL    HW186082   3.827   7.123   0.544
28081SOL    HW286083   3.976   7.129   0.521
28082SOL     OW86084   6.941   1.188  14.133
28082SOL    HW186085   6.981   1.275  14.126
28082SOL    HW286086   6.971   1.141  14.055
28083SOL     OW86087   0.510  11.585   6.338
28083SOL    HW186088   0.569  11.529   6.389
28083SOL    HW286089   0.439  11.527   6.311
28084SOL     OW86090   1.010   2.125   9.506
28084SOL    HW186091   1.002   2.088   9.417
28084SOL    HW286092   0.941   2.081   9.556
28085SOL     OW86093  10.765   9.507   9.146
28085SOL    HW186094  10.780   9.601   9.161
28085SOL    HW286095  10.771   9.467   9.232
28086SOL     OW86096  12.339   3.967   4.372
28086SOL    HW186097  12.268   3.999   4.427
28086SOL    HW286098  12.395   4.044   4.360
28087SOL     OW86099  13.830  13.588  11.195
28087SOL    HW186100  13.834  13.557  11.105
28087SOL    HW286101  13.808  13.681  11.187
28088SOL     OW86102  14.575  10.006   2.820
28088SOL    HW186103  14.572  10.071   2.890
28088SOL    HW286104  14.500  10.028   2.764
28089SOL     OW86105   2.466   7.493   5.353
28089SOL    HW186106   2.559   7.491   5.377
28089SOL    HW286107   2.462   7.451   5.267
28090SOL     OW86108  10.353   7.485   0.768
28090SOL    HW186109  10.292   7.494   0.841
28090SOL    HW286110  10.363   7.391   0.757
28091SOL     OW86111   8.487   5.547   7.261
28091SOL    HW186112   8.529   5.529   7.177
28091SOL    HW286113   8.551   5.596   7.311
28092SOL     OW86114  11.065   7.534  13.173
28092SOL    HW186115  11.038   7.443  13.156
28092SOL    HW286116  11.050   7.579  13.090
28093SOL     OW86117   3.670   7.083   2.756
28093SOL    HW186118   3.731   7.079   2.829
28093SOL    HW286119   3.685   7.002   2.708
28094SOL     OW86120   5.038   3.095  12.476
28094SOL    HW186121   5.084   3.061  12.553
28094SOL    HW286122   4.955   3.128  12.511
28095SOL     OW86123   9.204  14.443   8.910
28095SOL    HW186124   9.215  14.352   8.939
28095SOL    HW286125   9.280  14.459   8.854
28096SOL     OW86126   3.670  11.993   1.879
28096SOL    HW186127   3.670  11.923   1.814
28096SOL    HW286128   3.757  11.990   1.918
28097SOL     OW86129   9.121  14.480  11.043
28097SOL    HW186130   9.128  14.524  11.128
28097SOL    HW286131   9.155  14.544  10.981
28098SOL     OW86132   9.509   8.022  11.850
28098SOL    HW186133   9.458   7.999  11.927
28098SOL    HW286134   9.533   7.937  11.811
28099SOL     OW86135   8.400   8.964   6.211
28099SOL    HW186136   8.414   9.051   6.247
28099SOL    HW286137   8.388   8.908   6.288
28100SOL     OW86138   9.624   3.294  11.816
28100SOL    HW186139   9.673   3.250  11.886
28100SOL    HW286140   9.691   3.320  11.752
28101SOL     OW86141   2.700   8.209   3.348
28101SOL    HW186142   2.690   8.114   3.337
28101SOL    HW286143   2.650   8.230   3.427
28102SOL     OW86144  13.985   0.073   2.986
28102SOL    HW186145  14.051   0.016   3.024
28102SOL    HW286146  13.988   0.153   3.038
28103SOL     OW86147   1.208   3.496  12.712
28103SOL    HW186148   1.303   3.485  12.717
28103SOL    HW286149   1.185   3.468  12.623
28104SOL     OW86150   0.817  14.827   5.820
28104SOL    HW186151   0.844   0.022   5.871
28104SOL    HW286152   0.762  14.862   5.750
28105SOL     OW86153   8.465  14.127   0.266
28105SOL    HW186154   8.418  14.047   0.243
28105SOL    HW286155   8.399  14.183   0.308
28106SOL     OW86156  12.274  13.745   2.007
28106SOL    HW186157  12.243  13.668   2.054
28106SOL    HW286158  12.323  13.709   1.932
28107SOL     OW86159   1.807   2.735  12.271
28107SOL    HW186160   1.775   2.786  12.346
28107SOL    HW286161   1.879   2.786  12.236
28108SOL     OW86162   8.940   3.836   0.084
28108SOL    HW186163   8.946   3.879  14.881
28108SOL    HW286164   9.011   3.873   0.135
28109SOL     OW86165  12.855   7.099   7.305
28109SOL    HW186166  12.834   7.006   7.294
28109SOL    HW286167  12.870   7.109   7.400
28110SOL     OW86168   8.428   6.765   9.074
28110SOL    HW186169   8.356   6.820   9.042
28110SOL    HW286170   8.503   6.824   9.079
28111SOL     OW86171   8.829   0.263  11.201
28111SOL    HW186172   8.817   0.314  11.281
28111SOL    HW286173   8.846   0.174  11.231
28112SOL     OW86174  10.804   8.255   9.351
28112SOL    HW186175  10.757   8.228   9.272
28112SOL    HW286176  10.771   8.343   9.369
28113SOL     OW86177   8.009   5.668  11.038
28113SOL    HW186178   7.939   5.637  11.096
28113SOL    HW286179   8.043   5.747  11.081
28114SOL     OW86180  11.422  14.289  14.069
28114SOL    HW186181  11.380  14.275  14.154
28114SOL    HW286182  11.516  14.291  14.089
28115SOL     OW86183  12.394  11.214   4.714
28115SOL    HW186184  12.465  11.182   4.659
28115SOL    HW286185  12.389  11.308   4.696
28116SOL     OW86186  11.929   0.655  11.039
28116SOL    HW186187  11.975   0.573  11.059
28116SOL    HW286188  12.000   0.717  11.020
28117SOL     OW86189   0.553   1.871   7.081
28117SOL    HW186190   0.616   1.943   7.073
28117SOL    HW286191   0.468   1.913   7.074
28118SOL     OW86192  13.435   9.469  14.291
28118SOL    HW186193  13.422   9.549  14.240
28118SOL    HW286194  13.527   9.447  14.276
28119SOL     OW86195   6.575   2.196   7.371
28119SOL    HW186196   6.626   2.213   7.292
28119SOL    HW286197   6.529   2.278   7.388
28120SOL     OW86198   8.772   2.287   4.899
28120SOL    HW186199   8.758   2.195   4.919
28120SOL    HW286200   8.782   2.329   4.984
28121SOL     OW86201  11.915   8.641   9.575
28121SOL    HW186202  11.868   8.614   9.653
28121SOL    HW286203  11.939   8.559   9.532
28122SOL     OW86204  10.315  13.433   1.588
28122SOL    HW186205  10.291  13.369   1.521
28122SOL    HW286206  10.254  13.416   1.660
28123SOL     OW86207   5.809   2.194   9.524
28123SOL    HW186208   5.891   2.157   9.490
28123SOL    HW286209   5.786   2.136   9.596
28124SOL     OW86210   4.364   4.357  10.955
28124SOL    HW186211   4.336   4.434  11.005
28124SOL    HW286212   4.310   4.285  10.990
28125SOL     OW86213   4.462  13.091  13.151
28125SOL    HW186214   4.447  13.185  13.143
28125SOL    HW286215   4.460  13.058  13.061
28126SOL     OW86216  11.985   9.457   2.228
28126SOL    HW186217  11.996   9.382   2.170
28126SOL    HW286218  12.031   9.529   2.185
28127SOL     OW86219   5.628   3.912   2.005
28127SOL    HW186220   5.628   3.935   2.098
28127SOL    HW286221   5.561   3.968   1.966
28128SOL     OW86222   3.022   1.287   9.413
28128SOL    HW186223   2.932   1.317   9.410
28128SOL    HW286224   3.071   1.351   9.361
28129SOL     OW86225   2.225   0.276   6.727
28129SOL    HW186226   2.262   0.362   6.706
28129SOL    HW286227   2.266   0.252   6.810
28130SOL     OW86228   0.831   4.500   7.496
28130SOL    HW186229   0.901   4.465   7.551
28130SOL    HW286230   0.875   4.530   7.417
28131SOL     OW86231  10.823   2.329  10.498
28131SOL    HW186232  10.761   2.400  10.512
28131SOL    HW286233  10.906   2.373  10.479
28132SOL     OW86234   9.097   9.363   4.697
28132SOL    HW186235   9.124   9.327   4.613
28132SOL    HW286236   9.004   9.383   4.685
28133SOL     OW86237   2.495  13.385   9.358
28133SOL    HW186238   2.481  13.291   9.362
28133SOL    HW286239   2.586  13.398   9.386
28134SOL     OW86240  11.454   4.565   5.847
28134SOL    HW186241  11.429   4.645   5.801
28134SOL    HW286242  11.460   4.591   5.939
28135SOL     OW86243  12.634   8.575   6.356
28135SOL    HW186244  12.670   8.596   6.270
28135SOL    HW286245  12.575   8.649   6.376
28136SOL     OW86246   2.524   1.393   8.463
28136SOL    HW186247   2.566   1.394   8.377
28136SOL    HW286248   2.470   1.471   8.464
28137SOL     OW86249   3.227   5.547  13.466
28137SOL    HW186250   3.144   5.569  13.508
28137SOL    HW286251   3.241   5.455  13.485
28138SOL     OW86252   6.973  11.540   4.710
28138SOL    HW186253   7.067  11.538   4.729
28138SOL    HW286254   6.943  11.452   4.731
28139SOL     OW86255   5.631  13.863   4.416
28139SOL    HW186256   5.650  13.875   4.324
28139SOL    HW286257   5.564  13.794   4.418
28140SOL     OW86258   7.429  11.841   6.260
28140SOL    HW186259   7.423  11.843   6.164
28140SOL    HW286260   7.503  11.899   6.280
28141SOL     OW86261   7.043   4.052   1.197
28141SOL    HW186262   7.027   4.069   1.290
28141SOL    HW286263   6.958   4.025   1.163
28142SOL     OW86264  11.911  12.857   5.550
28142SOL    HW186265  11.904  12.926   5.484
28142SOL    HW286266  11.925  12.903   5.632
28143SOL     OW86267   2.715  13.717   5.327
28143SOL    HW186268   2.755  13.665   5.258
28143SOL    HW286269   2.749  13.680   5.408
28144SOL     OW86270   0.395   6.675   3.385
28144SOL    HW186271   0.469   6.616   3.370
28144SOL    HW286272   0.424   6.759   3.351
28145SOL     OW86273   8.791   0.379  12.996
28145SOL    HW186274   8.756   0.303  13.042
28145SOL    HW286275   8.727   0.449  13.013
28146SOL     OW86276  10.459   0.730  13.546
28146SOL    HW186277  10.413   0.803  13.587
28146SOL    HW286278  10.400   0.701  13.477
28147SOL     OW86279   2.515  10.817  14.664
28147SOL    HW186280   2.442  10.870  14.694
28147SOL    HW286281   2.567  10.876  14.609
28148SOL     OW86282  11.677   0.697  13.488
28148SOL    HW186283  11.706   0.662  13.404
28148SOL    HW286284  11.629   0.625  13.529
28149SOL     OW86285   2.509   6.186   4.548
28149SOL    HW186286   2.452   6.194   4.472
28149SOL    HW286287   2.502   6.270   4.593
28150SOL     OW86288   2.389  12.662   5.293
28150SOL    HW186289   2.398  12.741   5.240
28150SOL    HW286290   2.403  12.692   5.383
28151SOL     OW86291  12.861  10.870   0.332
28151SOL    HW186292  12.787  10.823   0.294
28151SOL    HW286293  12.875  10.944   0.273
28152SOL     OW86294  12.465   3.073   8.322
28152SOL    HW186295  12.449   3.030   8.238
28152SOL    HW286296  12.555   3.049   8.344
28153SOL     OW86297   8.053  13.107   2.904
28153SOL    HW186298   8.057  13.192   2.947
28153SOL    HW286299   7.984  13.060   2.950
28154SOL     OW86300   2.556   0.201   4.490
28154SOL    HW186301   2.514   0.227   4.572
28154SOL    HW286302   2.650   0.215   4.506
28155SOL     OW86303   4.297   0.220   0.779
28155SOL    HW186304   4.215   0.246   0.819
28155SOL    HW286305   4.355   0.203   0.853
28156SOL     OW86306   0.969   5.334  10.259
28156SOL    HW186307   0.889   5.362  10.214
28156SOL    HW286308   1.038   5.388  10.223
28157SOL     OW86309   1.383   1.622   8.963
28157SOL    HW186310   1.428   1.607   8.880
28157SOL    HW286311   1.428   1.698   9.002
28158SOL     OW86312   4.667   3.810   9.281
28158SOL    HW186313   4.675   3.750   9.207
28158SOL    HW286314   4.602   3.770   9.338
28159SOL     OW86315   6.329  14.801   5.911
28159SOL    HW186316   6.333  14.734   5.843
28159SOL    HW286317   6.334   0.002   5.863
28160SOL     OW86318  14.153   0.161   8.886
28160SOL    HW186319  14.158   0.257   8.880
28160SOL    HW286320  14.145   0.144   8.980
28161SOL     OW86321  12.297   6.736  14.553
28161SOL    HW186322  12.370   6.744  14.615
28161SOL    HW286323  12.252   6.820  14.557
28162SOL     OW86324   6.849   1.267  11.920
28162SOL    HW186325   6.813   1.203  11.982
28162SOL    HW286326   6.884   1.214  11.849
28163SOL     OW86327  11.085   7.271   7.083
28163SOL    HW186328  11.034   7.282   7.003
28163SOL    HW286329  11.166   7.318   7.066
28164SOL     OW86330   6.671   5.738   5.243
28164SOL    HW186331   6.588   5.733   5.195
28164SOL    HW286332   6.729   5.678   5.196
28165SOL     OW86333   0.060  13.857   0.562
28165SOL    HW186334   0.134  13.806   0.594
28165SOL    HW286335   0.062  13.938   0.614
28166SOL     OW86336   0.109   5.301   7.351
28166SOL    HW186337   0.093   5.393   7.368
28166SOL    HW286338   0.175   5.300   7.282
28167SOL     OW86339   3.523   4.388  14.838
28167SOL    HW186340   3.601   4.409  14.786
28167SOL    HW286341   3.450   4.427  14.789
28168SOL     OW86342   8.774  14.294   3.625
28168SOL    HW186343   8.733  14.309   3.540
28168SOL    HW286344   8.786  14.199   3.629
28169SOL     OW86345   2.187  11.620   1.927
28169SOL    HW186346   2.167  11.609   2.020
28169SOL    HW286347   2.109  11.662   1.890
28170SOL     OW86348  13.126   6.205   0.333
28170SOL    HW186349  13.079   6.283   0.306
28170SOL    HW286350  13.216   6.235   0.349
28171SOL     OW86351   7.567   2.186   1.096
28171SOL    HW186352   7.622   2.109   1.082
28171SOL    HW286353   7.628   2.260   1.091
28172SOL     OW86354  11.441  10.098   5.088
28172SOL    HW186355  11.445  10.187   5.055
28172SOL    HW286356  11.389  10.105   5.168
28173SOL     OW86357  14.818  11.875  10.157
28173SOL    HW186358  14.780  11.891  10.071
28173SOL    HW286359  14.818  11.779  10.165
28174SOL     OW86360  11.822   4.814   2.695
28174SOL    HW186361  11.768   4.894   2.695
28174SOL    HW286362  11.780   4.757   2.630
28175SOL     OW86363  13.581   9.693   7.503
28175SOL    HW186364  13.610   9.642   7.579
28175SOL    HW286365  13.494   9.660   7.483
28176SOL     OW86366   1.669   4.060  11.867
28176SOL    HW186367   1.596   4.010  11.831
28176SOL    HW286368   1.703   4.109  11.792
28177SOL     OW86369  13.917   0.230   7.958
28177SOL    HW186370  13.895   0.301   8.019
28177SOL    HW286371  13.843   0.226   7.898
28178SOL     OW86372   1.027   2.372   4.857
28178SOL    HW186373   0.940   2.335   4.843
28178SOL    HW286374   1.016   2.432   4.931
28179SOL     OW86375   3.743   0.489   6.157
28179SOL    HW186376   3.694   0.486   6.074
28179SOL    HW286377   3.714   0.411   6.204
28180SOL     OW86378  13.016   9.623   6.901
28180SOL    HW186379  12.949   9.619   6.970
28180SOL    HW286380  13.095   9.651   6.947
28181SOL     OW86381  14.775   2.187  13.584
28181SOL    HW186382  14.726   2.269  13.593
28181SOL    HW286383  14.716   2.129  13.536
28182SOL     OW86384   1.596  11.679   3.019
28182SOL    HW186385   1.620  11.598   2.975
28182SOL    HW286386   1.658  11.744   2.985
28183SOL     OW86387  13.874   5.590   5.824
28183SOL    HW186388  13.847   5.682   5.830
28183SOL    HW286389  13.927   5.576   5.902
28184SOL     OW86390  10.406  13.957   2.377
28184SOL    HW186391  10.450  13.969   2.292
28184SOL    HW286392  10.442  13.875   2.411
28185SOL     OW86393  14.272   9.825   0.695
28185SOL    HW186394  14.207   9.894   0.684
28185SOL    HW286395  14.240   9.773   0.769
28186SOL     OW86396   6.577   3.729  10.175
28186SOL    HW186397   6.570   3.696  10.085
28186SOL    HW286398   6.601   3.652  10.227
28187SOL     OW86399   1.382   8.642   8.734
28187SOL    HW186400   1.426   8.626   8.651
28187SOL    HW286401   1.451   8.631   8.800
28188SOL     OW86402   1.166  13.592  11.253
28188SOL    HW186403   1.113  13.624  11.180
28188SOL    HW286404   1.176  13.498  11.237
28189SOL     OW86405   6.373  11.729   8.887
28189SOL    HW186406   6.423  11.647   8.890
28189SOL    HW286407   6.426  11.788   8.834
28190SOL     OW86408  13.067  10.940   9.642
28190SOL    HW186409  13.053  10.930   9.736
28190SOL    HW286410  13.073  10.850   9.610
28191SOL     OW86411   9.859   0.047   8.595
28191SOL    HW186412   9.778   0.078   8.554
28191SOL    HW286413   9.914   0.019   8.522
28192SOL     OW86414   0.286  10.231   1.164
28192SOL    HW186415   0.236  10.250   1.084
28192SOL    HW286416   0.339  10.155   1.141
28193SOL     OW86417   6.483   2.304   3.725
28193SOL    HW186418   6.511   2.249   3.652
28193SOL    HW286419   6.468   2.390   3.686
28194SOL     OW86420   6.459  14.232   2.263
28194SOL    HW186421   6.524  14.212   2.196
28194SOL    HW286422   6.394  14.286   2.218
28195SOL     OW86423   1.026   6.587   4.570
28195SOL    HW186424   0.966   6.574   4.643
28195SOL    HW286425   1.040   6.499   4.534
28196SOL     OW86426   4.957   4.514   0.899
28196SOL    HW186427   5.026   4.515   0.833
28196SOL    HW286428   4.938   4.607   0.915
28197SOL     OW86429   9.745  12.998   5.809
28197SOL    HW186430   9.696  12.957   5.881
28197SOL    HW286431   9.809  12.932   5.782
28198SOL     OW86432   0.382  12.365   0.743
28198SOL    HW186433   0.455  12.420   0.714
28198SOL    HW286434   0.379  12.377   0.837
28199SOL     OW86435  11.598   1.859   6.526
28199SOL    HW186436  11.630   1.771   6.544
28199SOL    HW286437  11.661   1.896   6.465
28200SOL     OW86438  10.154  12.044   4.696
28200SOL    HW186439  10.153  12.085   4.782
28200SOL    HW286440  10.247  12.031   4.676
28201SOL     OW86441  13.135   1.047  11.628
28201SOL    HW186442  13.068   1.095  11.677
28201SOL    HW286443  13.087   0.978  11.582
28202SOL     OW86444   2.327   6.270   1.033
28202SOL    HW186445   2.257   6.243   1.092
28202SOL    HW286446   2.408   6.251   1.082
28203SOL     OW86447   8.053  14.256   2.244
28203SOL    HW186448   7.973  14.205   2.243
28203SOL    HW286449   8.091  14.240   2.331
28204SOL     OW86450  13.228   9.865  14.575
28204SOL    HW186451  13.277   9.944  14.553
28204SOL    HW286452  13.239   9.808  14.499
28205SOL     OW86453  11.262  11.051   7.903
28205SOL    HW186454  11.263  11.116   7.833
28205SOL    HW286455  11.250  10.968   7.858
28206SOL     OW86456   6.083  10.323  12.019
28206SOL    HW186457   6.151  10.334  12.086
28206SOL    HW286458   6.074  10.228  12.010
28207SOL     OW86459   7.196  12.163  13.324
28207SOL    HW186460   7.152  12.213  13.256
28207SOL    HW286461   7.125  12.118  13.370
28208SOL     OW86462   6.431   1.026   8.140
28208SOL    HW186463   6.459   1.016   8.049
28208SOL    HW286464   6.442   0.939   8.179
28209SOL     OW86465   6.558  12.310   3.459
28209SOL    HW186466   6.627  12.353   3.409
28209SOL    HW286467   6.605  12.263   3.528
28210SOL     OW86468   0.913   6.864  11.327
28210SOL    HW186469   0.849   6.925  11.290
28210SOL    HW286470   0.920   6.794  11.261
28211SOL     OW86471   3.827   0.390  11.635
28211SOL    HW186472   3.765   0.404  11.564
28211SOL    HW286473   3.772   0.368  11.711
28212SOL     OW86474   4.802  14.782   8.156
28212SOL    HW186475   4.860  14.849   8.194
28212SOL    HW286476   4.778  14.727   8.230
28213SOL     OW86477   9.501   7.473   1.070
28213SOL    HW186478   9.479   7.380   1.067
28213SOL    HW286479   9.418   7.517   1.085
28214SOL     OW86480  10.786  12.546   1.193
28214SOL    HW186481  10.772  12.536   1.099
28214SOL    HW286482  10.814  12.637   1.204
28215SOL     OW86483   2.257  11.279  14.381
28215SOL    HW186484   2.198  11.247  14.449
28215SOL    HW286485   2.280  11.202  14.330
28216SOL     OW86486   9.369   7.999   3.832
28216SOL    HW186487   9.375   8.004   3.928
28216SOL    HW286488   9.325   8.081   3.807
28217SOL     OW86489   4.114   6.567   4.294
28217SOL    HW186490   4.197   6.519   4.289
28217SOL    HW286491   4.125   6.627   4.367
28218SOL     OW86492   3.779  11.598   3.447
28218SOL    HW186493   3.745  11.597   3.357
28218SOL    HW286494   3.840  11.524   3.450
28219SOL     OW86495  13.163  14.115   1.064
28219SOL    HW186496  13.114  14.144   1.140
28219SOL    HW286497  13.143  14.022   1.056
28220SOL     OW86498   9.928   4.284   1.401
28220SOL    HW186499   9.877   4.321   1.328
28220SOL    HW286500   9.902   4.337   1.477
28221SOL     OW86501  12.290   7.151   9.777
28221SOL    HW186502  12.203   7.148   9.736
28221SOL    HW286503  12.304   7.244   9.797
28222SOL     OW86504   7.499   1.909   8.947
28222SOL    HW186505   7.480   1.818   8.922
28222SOL    HW286506   7.489   1.910   9.042
28223SOL     OW86507   2.070  10.789   4.573
28223SOL    HW186508   2.138  10.762   4.634
28223SOL    HW286509   2.034  10.869   4.611
28224SOL     OW86510   9.512   8.502   9.625
28224SOL    HW186511   9.447   8.499   9.555
28224SOL    HW286512   9.569   8.575   9.601
28225SOL     OW86513   0.791   5.096   8.616
28225SOL    HW186514   0.816   5.037   8.544
28225SOL    HW286515   0.736   5.163   8.574
28226SOL     OW86516  12.243   4.177   2.491
28226SOL    HW186517  12.255   4.264   2.452
28226SOL    HW286518  12.328   4.156   2.529
28227SOL     OW86519   9.405  10.210  10.123
28227SOL    HW186520   9.311  10.214  10.107
28227SOL    HW286521   9.413  10.195  10.217
28228SOL     OW86522   5.279   8.384   4.757
28228SOL    HW186523   5.345   8.450   4.738
28228SOL    HW286524   5.198   8.418   4.720
28229SOL     OW86525  13.542   3.579  11.501
28229SOL    HW186526  13.568   3.671  11.502
28229SOL    HW286527  13.543   3.554  11.409
28230SOL     OW86528  13.896  11.629  11.174
28230SOL    HW186529  13.881  11.552  11.119
28230SOL    HW286530  13.981  11.612  11.216
28231SOL     OW86531   0.089  12.083   9.957
28231SOL    HW186532   0.062  12.175   9.951
28231SOL    HW286533   0.043  12.050  10.034
28232SOL     OW86534   9.645   1.317   1.600
28232SOL    HW186535   9.614   1.329   1.690
28232SOL    HW286536   9.634   1.403   1.559
28233SOL     OW86537  14.489   5.669   2.154
28233SOL    HW186538  14.582   5.667   2.133
28233SOL    HW286539  14.469   5.581   2.185
28234SOL     OW86540   5.708   7.689  13.756
28234SOL    HW186541   5.712   7.594  13.747
28234SOL    HW286542   5.615   7.710  13.746
28235SOL     OW86543  13.853   7.478   6.447
28235SOL    HW186544  13.894   7.561   6.421
28235SOL    HW286545  13.760   7.499   6.456
28236SOL     OW86546   8.344   6.988   4.729
28236SOL    HW186547   8.394   6.919   4.684
28236SOL    HW286548   8.254   6.954   4.732
28237SOL     OW86549   7.591   4.355   8.997
28237SOL    HW186550   7.620   4.375   8.907
28237SOL    HW286551   7.563   4.439   9.032
28238SOL     OW86552   1.703   8.580  13.824
28238SOL    HW186553   1.684   8.562  13.732
28238SOL    HW286554   1.679   8.672  13.836
28239SOL     OW86555   3.926  14.021  13.627
28239SOL    HW186556   3.991  13.967  13.672
28239SOL    HW286557   3.918  13.983  13.540
28240SOL     OW86558   0.620  12.564   7.027
28240SOL    HW186559   0.611  12.469   7.023
28240SOL    HW286560   0.670  12.587   6.948
28241SOL     OW86561   6.083   9.853   6.993
28241SOL    HW186562   6.125   9.895   6.918
28241SOL    HW286563   6.057   9.926   7.049
28242SOL     OW86564   6.909   2.258  10.671
28242SOL    HW186565   6.904   2.245  10.766
28242SOL    HW286566   6.822   2.233  10.639
28243SOL     OW86567   1.480   8.001   6.895
28243SOL    HW186568   1.517   8.079   6.935
28243SOL    HW286569   1.385   8.012   6.904
28244SOL     OW86570   6.743   0.747   3.299
28244SOL    HW186571   6.653   0.746   3.330
28244SOL    HW286572   6.795   0.716   3.374
28245SOL     OW86573   0.776   1.417  14.733
28245SOL    HW186574   0.788   1.452  14.821
28245SOL    HW286575   0.861   1.428  14.691
28246SOL     OW86576  14.447  12.794   4.853
28246SOL    HW186577  14.492  12.860   4.906
28246SOL    HW286578  14.514  12.762   4.793
28247SOL     OW86579  13.830   9.470   2.934
28247SOL    HW186580  13.883   9.516   2.999
28247SOL    HW286581  13.886   9.399   2.903
28248SOL     OW86582   1.698   5.903  12.732
28248SOL    HW186583   1.781   5.949  12.747
28248SOL    HW286584   1.631   5.965  12.762
28249SOL     OW86585   4.638   8.791   8.244
28249SOL    HW186586   4.571   8.859   8.256
28249SOL    HW286587   4.714   8.825   8.290
28250SOL     OW86588   3.343  14.679  12.298
28250SOL    HW186589   3.396  14.601  12.314
28250SOL    HW286590   3.277  14.650  12.234
28251SOL     OW86591   6.128   2.479   2.746
28251SOL    HW186592   6.079   2.456   2.667
28251SOL    HW286593   6.069   2.537   2.795
28252SOL     OW86594   5.278   5.282  13.101
28252SOL    HW186595   5.207   5.219  13.091
28252SOL    HW286596   5.235   5.364  13.127
28253SOL     OW86597   3.918   4.691  14.768
28253SOL    HW186598   3.960   4.639  14.699
28253SOL    HW286599   3.989   4.714  14.828
28254SOL     OW86600   1.893  10.275   2.415
28254SOL    HW186601   1.832  10.234   2.354
28254SOL    HW286602   1.870  10.368   2.413
28255SOL     OW86603   4.566   1.093  12.964
28255SOL    HW186604   4.502   1.114  13.031
28255SOL    HW286605   4.648   1.082  13.011
28256SOL     OW86606   0.135   3.349   6.556
28256SOL    HW186607   0.183   3.431   6.545
28256SOL    HW286608   0.056   3.374   6.604
28257SOL     OW86609   8.023   3.837  11.295
28257SOL    HW186610   7.996   3.811  11.383
28257SOL    HW286611   7.941   3.855  11.249
28258SOL     OW86612  12.828   1.618  12.247
28258SOL    HW186613  12.803   1.710  12.256
28258SOL    HW286614  12.858   1.610  12.157
28259SOL     OW86615  13.434  10.732   1.266
28259SOL    HW186616  13.457  10.796   1.199
28259SOL    HW286617  13.440  10.647   1.221
28260SOL     OW86618  10.841   1.344   8.360
28260SOL    HW186619  10.914   1.330   8.300
28260SOL    HW286620  10.812   1.434   8.341
28261SOL     OW86621   8.545  11.742   9.258
28261SOL    HW186622   8.574  11.712   9.172
28261SOL    HW286623   8.623  11.738   9.313
28262SOL     OW86624  11.232   8.891  11.068
28262SOL    HW186625  11.283   8.834  11.126
28262SOL    HW286626  11.288   8.968  11.055
28263SOL     OW86627   3.238   1.532  11.932
28263SOL    HW186628   3.331   1.539  11.957
28263SOL    HW286629   3.204   1.621  11.940
28264SOL     OW86630   6.425   9.838  11.823
28264SOL    HW186631   6.512   9.802  11.807
28264SOL    HW286632   6.421   9.916  11.767
28265SOL     OW86633  10.029  13.822  14.558
28265SOL    HW186634   9.999  13.912  14.567
28265SOL    HW286635   9.956  13.769  14.591
28266SOL     OW86636   8.411   2.592  10.830
28266SOL    HW186637   8.385   2.549  10.748
28266SOL    HW286638   8.502   2.566  10.843
28267SOL     OW86639   9.576   4.373   8.367
28267SOL    HW186640   9.507   4.376   8.434
28267SOL    HW286641   9.580   4.281   8.340
28268SOL     OW86642   7.328   1.377  12.292
28268SOL    HW186643   7.244   1.348  12.329
28268SOL    HW286644   7.329   1.472  12.307
28269SOL     OW86645   0.485   7.105  13.374
28269SOL    HW186646   0.482   7.060  13.458
28269SOL    HW286647   0.416   7.171  13.379
28270SOL     OW86648  11.054   8.959  14.025
28270SOL    HW186649  11.059   8.887  14.088
28270SOL    HW286650  11.057   9.038  14.079
28271SOL     OW86651   1.310   0.862  12.323
28271SOL    HW186652   1.328   0.773  12.294
28271SOL    HW286653   1.292   0.854  12.417
28272SOL     OW86654   5.835   8.958   1.580
28272SOL    HW186655   5.858   8.912   1.660
28272SOL    HW286656   5.777   8.898   1.533
28273SOL     OW86657   4.770   2.463   0.965
28273SOL    HW186658   4.778   2.467   1.061
28273SOL    HW286659   4.854   2.426   0.936
28274SOL     OW86660   7.959   1.840   0.989
28274SOL    HW186661   8.040   1.857   1.037
28274SOL    HW286662   7.900   1.910   1.016
28275SOL     OW86663   4.438   9.454  13.498
28275SOL    HW186664   4.534   9.460  13.499
28275SOL    HW286665   4.409   9.524  13.557
28276SOL     OW86666  11.588   3.014  10.887
28276SOL    HW186667  11.513   3.030  10.945
28276SOL    HW286668  11.661   3.057  10.930
28277SOL     OW86669  13.087   7.081   1.782
28277SOL    HW186670  13.072   6.988   1.801
28277SOL    HW286671  13.053   7.093   1.693
28278SOL     OW86672  11.239   6.759   4.495
28278SOL    HW186673  11.159   6.790   4.538
28278SOL    HW286674  11.293   6.724   4.566
28279SOL     OW86675  10.604   9.179   8.666
28279SOL    HW186676  10.664   9.250   8.686
28279SOL    HW286677  10.517   9.220   8.666
28280SOL     OW86678   5.677   9.024   8.960
28280SOL    HW186679   5.707   9.065   8.879
28280SOL    HW286680   5.602   9.076   8.988
28281SOL     OW86681   2.887   3.450  14.341
28281SOL    HW186682   2.875   3.483  14.430
28281SOL    HW286683   2.840   3.366  14.340
28282SOL     OW86684   5.635  13.474   8.440
28282SOL    HW186685   5.608  13.539   8.375
28282SOL    HW286686   5.669  13.527   8.513
28283SOL     OW86687   0.827   7.121   2.972
28283SOL    HW186688   0.839   7.045   2.916
28283SOL    HW286689   0.733   7.137   2.973
28284SOL     OW86690   7.858   9.241  11.028
28284SOL    HW186691   7.935   9.292  11.055
28284SOL    HW286692   7.878   9.213  10.938
28285SOL     OW86693   8.497   9.566   8.752
28285SOL    HW186694   8.591   9.565   8.733
28285SOL    HW286695   8.460   9.626   8.686
28286SOL     OW86696  13.081   5.184   8.955
28286SOL    HW186697  13.055   5.107   8.904
28286SOL    HW286698  13.045   5.169   9.042
28287SOL     OW86699   3.660  11.710   4.338
28287SOL    HW186700   3.711  11.637   4.373
28287SOL    HW286701   3.713  11.743   4.265
28288SOL     OW86702  14.789   3.279  13.479
28288SOL    HW186703  14.839   3.204  13.513
28288SOL    HW286704  14.767   3.254  13.390
28289SOL     OW86705   8.632   4.047   8.584
28289SOL    HW186706   8.582   4.058   8.665
28289SOL    HW286707   8.619   4.129   8.536
28290SOL     OW86708   2.117   2.657  10.229
28290SOL    HW186709   2.188   2.594  10.243
28290SOL    HW286710   2.041   2.602  10.209
28291SOL     OW86711   9.438  11.819   8.775
28291SOL    HW186712   9.468  11.875   8.847
28291SOL    HW286713   9.386  11.877   8.720
28292SOL     OW86714   6.043  12.928   0.305
28292SOL    HW186715   6.093  13.010   0.311
28292SOL    HW286716   5.964  12.945   0.356
28293SOL     OW86717   2.916   0.616   5.164
28293SOL    HW186718   2.921   0.699   5.210
28293SOL    HW286719   3.002   0.576   5.177
28294SOL     OW86720   9.001   7.616  13.499
28294SOL    HW186721   8.920   7.631  13.548
28294SOL    HW286722   9.038   7.703  13.486
28295SOL     OW86723   6.092   9.540  14.603
28295SOL    HW186724   6.174   9.557  14.557
28295SOL    HW286725   6.066   9.625  14.638
28296SOL     OW86726   2.845   9.161   2.516
28296SOL    HW186727   2.754   9.144   2.540
28296SOL    HW286728   2.888   9.183   2.599
28297SOL     OW86729  14.621   8.236   5.793
28297SOL    HW186730  14.617   8.144   5.820
28297SOL    HW286731  14.676   8.236   5.714
28298SOL     OW86732   2.041   5.621   7.449
28298SOL    HW186733   2.096   5.627   7.371
28298SOL    HW286734   2.101   5.639   7.522
28299SOL     OW86735  12.067   4.020   3.267
28299SOL    HW186736  12.161   4.004   3.261
28299SOL    HW286737  12.051   4.094   3.208
28300SOL     OW86738  11.689   2.173   1.761
28300SOL    HW186739  11.753   2.109   1.791
28300SOL    HW286740  11.629   2.123   1.706
28301SOL     OW86741   0.810   8.503   6.369
28301SOL    HW186742   0.830   8.466   6.454
28301SOL    HW286743   0.875   8.465   6.310
28302SOL     OW86744  10.168  13.714  11.435
28302SOL    HW186745  10.147  13.790  11.381
28302SOL    HW286746  10.098  13.651  11.417
28303SOL     OW86747  14.752  10.159   7.670
28303SOL    HW186748  14.793  10.246   7.672
28303SOL    HW286749  14.816  10.101   7.711
28304SOL     OW86750  10.575  13.895  14.517
28304SOL    HW186751  10.487  13.915  14.547
28304SOL    HW286752  10.591  13.957  14.446
28305SOL     OW86753  13.204  11.639   3.209
28305SOL    HW186754  13.212  11.548   3.182
28305SOL    HW286755  13.177  11.686   3.130
28306SOL     OW86756   9.914   2.526   4.575
28306SOL    HW186757   9.821   2.548   4.577
28306SOL    HW286758   9.951   2.582   4.506
28307SOL     OW86759   4.216  14.453  12.885
28307SOL    HW186760   4.192  14.524  12.944
28307SOL    HW286761   4.259  14.496  12.811
28308SOL     OW86762   0.533   7.090   2.924
28308SOL    HW186763   0.447   7.049   2.930
28308SOL    HW286764   0.564   7.067   2.837
28309SOL     OW86765  11.831   8.180  11.280
28309SOL    HW186766  11.916   8.214  11.308
28309SOL    HW286767  11.777   8.180  11.359
28310SOL     OW86768   7.294   0.893   4.654
28310SOL    HW186769   7.272   0.867   4.743
28310SOL    HW286770   7.282   0.813   4.602
28311SOL     OW86771   4.932   8.493  11.431
28311SOL    HW186772   4.923   8.576  11.478
28311SOL    HW286773   4.997   8.444  11.482
28312SOL     OW86774   7.375   9.722   4.779
28312SOL    HW186775   7.392   9.738   4.686
28312SOL    HW286776   7.402   9.631   4.792
28313SOL     OW86777   8.990   0.894  14.790
28313SOL    HW186778   9.052   0.909  14.719
28313SOL    HW286779   8.976   0.799  14.789
28314SOL     OW86780  12.304  11.113  12.349
28314SOL    HW186781  12.329  11.046  12.286
28314SOL    HW286782  12.375  11.178  12.344
28315SOL     OW86783   5.957  10.594   5.821
28315SOL    HW186784   5.992  10.603   5.910
28315SOL    HW286785   5.901  10.517   5.824
28316SOL     OW86786   0.670  12.448   8.810
28316SOL    HW186787   0.622  12.531   8.807
28316SOL    HW286788   0.762  12.473   8.809
28317SOL     OW86789  11.758  11.357   0.787
28317SOL    HW186790  11.786  11.434   0.738
28317SOL    HW286791  11.663  11.354   0.774
28318SOL     OW86792  13.441   2.657   4.437
28318SOL    HW186793  13.372   2.597   4.467
28318SOL    HW286794  13.514   2.599   4.415
28319SOL     OW86795   2.693  14.774  10.842
28319SOL    HW186796   2.637  14.850  10.826
28319SOL    HW286797   2.712  14.739  10.755
28320SOL     OW86798   2.945  10.113  10.243
28320SOL    HW186799   2.997  10.035  10.262
28320SOL    HW286800   2.911  10.099  10.154
28321SOL     OW86801  10.251   7.148  10.437
28321SOL    HW186802  10.320   7.214  10.427
28321SOL    HW286803  10.170   7.197  10.446
28322SOL     OW86804  13.334   2.293   2.827
28322SOL    HW186805  13.402   2.299   2.760
28322SOL    HW286806  13.300   2.204   2.819
28323SOL     OW86807  10.038   3.999   3.518
28323SOL    HW186808   9.969   4.054   3.554
28323SOL    HW286809  10.051   3.931   3.584
28324SOL     OW86810  12.412  11.050   0.772
28324SOL    HW186811  12.442  11.140   0.778
28324SOL    HW286812  12.341  11.052   0.708
28325SOL     OW86813  13.234  11.137   0.490
28325SOL    HW186814  13.264  11.158   0.578
28325SOL    HW286815  13.288  11.192   0.432
28326SOL     OW86816  11.298  12.880  13.833
28326SOL    HW186817  11.369  12.868  13.769
28326SOL    HW286818  11.316  12.965  13.873
28327SOL     OW86819   3.627  10.501  11.179
28327SOL    HW186820   3.692  10.444  11.220
28327SOL    HW286821   3.600  10.454  11.100
28328SOL     OW86822   1.561  11.362   8.370
28328SOL    HW186823   1.589  11.448   8.401
28328SOL    HW286824   1.593  11.301   8.437
28329SOL     OW86825  14.709   1.140   3.971
28329SOL    HW186826  14.658   1.178   3.899
28329SOL    HW286827  14.799   1.141   3.939
28330SOL     OW86828   4.339   4.976   4.552
28330SOL    HW186829   4.323   4.883   4.535
28330SOL    HW286830   4.320   4.987   4.645
28331SOL     OW86831   2.143   2.201   4.392
28331SOL    HW186832   2.169   2.168   4.478
28331SOL    HW286833   2.109   2.289   4.410
28332SOL     OW86834  13.024   4.074   7.169
28332SOL    HW186835  13.011   3.980   7.162
28332SOL    HW286836  12.944   4.112   7.132
28333SOL     OW86837   8.561  11.079   1.087
28333SOL    HW186838   8.577  11.066   0.993
28333SOL    HW286839   8.589  11.169   1.104
28334SOL     OW86840  12.343  11.822  13.101
28334SOL    HW186841  12.296  11.740  13.114
28334SOL    HW286842  12.431  11.795  13.073
28335SOL     OW86843   4.144   2.349   8.566
28335SOL    HW186844   4.235   2.340   8.592
28335SOL    HW286845   4.094   2.315   8.640
28336SOL     OW86846  14.705   9.659   1.851
28336SOL    HW186847  14.686   9.690   1.939
28336SOL    HW286848  14.649   9.583   1.839
28337SOL     OW86849   0.893   5.629   6.619
28337SOL    HW186850   0.922   5.716   6.649
28337SOL    HW286851   0.935   5.568   6.680
28338SOL     OW86852  14.084  10.032   2.890
28338SOL    HW186853  14.164   9.981   2.895
28338SOL    HW286854  14.021   9.985   2.945
28339SOL     OW86855   5.739   0.709   2.912
28339SOL    HW186856   5.801   0.753   2.970
28339SOL    HW286857   5.661   0.695   2.966
28340SOL     OW86858  10.735   8.735   4.893
28340SOL    HW186859  10.805   8.788   4.854
28340SOL    HW286860  10.685   8.797   4.945
28341SOL     OW86861   3.039   8.875   0.521
28341SOL    HW186862   2.998   8.944   0.573
28341SOL    HW286863   2.973   8.852   0.455
28342SOL     OW86864  13.921  13.521   7.848
28342SOL    HW186865  13.851  13.587   7.853
28342SOL    HW286866  13.997  13.570   7.816
28343SOL     OW86867   5.874   8.089   5.292
28343SOL    HW186868   5.916   8.175   5.288
28343SOL    HW286869   5.945   8.030   5.318
28344SOL     OW86870   8.926  13.735   6.233
28344SOL    HW186871   8.944  13.811   6.289
28344SOL    HW286872   9.012  13.708   6.201
28345SOL     OW86873   2.473   2.573  12.011
28345SOL    HW186874   2.456   2.546  11.921
28345SOL    HW286875   2.510   2.496  12.053
28346SOL     OW86876   6.192  11.268  10.549
28346SOL    HW186877   6.155  11.265  10.638
28346SOL    HW286878   6.120  11.242  10.492
28347SOL     OW86879   6.007   0.395   4.004
28347SOL    HW186880   5.936   0.429   4.058
28347SOL    HW286881   6.049   0.473   3.968
28348SOL     OW86882  14.738  11.872   9.080
28348SOL    HW186883  14.777  11.880   9.167
28348SOL    HW286884  14.809  11.898   9.020
28349SOL     OW86885   8.927   3.027   2.202
28349SOL    HW186886   8.985   3.071   2.264
28349SOL    HW286887   8.871   2.972   2.256
28350SOL     OW86888  11.479   8.501   9.670
28350SOL    HW186889  11.474   8.585   9.623
28350SOL    HW286890  11.433   8.516   9.752
28351SOL     OW86891   1.751   1.411  12.408
28351SOL    HW186892   1.732   1.438  12.498
28351SOL    HW286893   1.773   1.318  12.415
28352SOL     OW86894   3.160   8.851   6.277
28352SOL    HW186895   3.157   8.757   6.294
28352SOL    HW286896   3.080   8.868   6.227
28353SOL     OW86897   8.852  11.730  11.218
28353SOL    HW186898   8.932  11.726  11.167
28353SOL    HW286899   8.881  11.725  11.309
28354SOL     OW86900   0.959  13.957   0.998
28354SOL    HW186901   0.967  13.941   0.904
28354SOL    HW286902   0.870  13.928   1.019
28355SOL     OW86903  11.821   1.726   9.542
28355SOL    HW186904  11.823   1.681   9.626
28355SOL    HW286905  11.739   1.698   9.502
28356SOL     OW86906   4.676   4.077   1.933
28356SOL    HW186907   4.672   4.098   2.026
28356SOL    HW286908   4.585   4.072   1.905
28357SOL     OW86909   0.546   1.126   2.746
28357SOL    HW186910   0.453   1.148   2.741
28357SOL    HW286911   0.580   1.180   2.818
28358SOL     OW86912   4.729   5.546  13.395
28358SOL    HW186913   4.715   5.609  13.324
28358SOL    HW286914   4.825   5.540  13.402
28359SOL     OW86915   5.678   9.485   9.111
28359SOL    HW186916   5.622   9.427   9.164
28359SOL    HW286917   5.631   9.492   9.028
28360SOL     OW86918   6.701   1.796   5.483
28360SOL    HW186919   6.728   1.710   5.514
28360SOL    HW286920   6.674   1.842   5.562
28361SOL     OW86921   9.578  10.713  11.874
28361SOL    HW186922   9.587  10.730  11.780
28361SOL    HW286923   9.555  10.621  11.880
28362SOL     OW86924   0.458   3.391  11.290
28362SOL    HW186925   0.509   3.391  11.209
28362SOL    HW286926   0.392   3.323  11.277
28363SOL     OW86927   2.981   8.351   3.169
28363SOL    HW186928   3.021   8.329   3.253
28363SOL    HW286929   2.896   8.389   3.192
28364SOL     OW86930   8.427  12.697   9.210
28364SOL    HW186931   8.491  12.626   9.202
28364SOL    HW286932   8.430  12.721   9.303
28365SOL     OW86933   7.933   2.276   0.365
28365SOL    HW186934   7.926   2.239   0.277
28365SOL    HW286935   7.959   2.367   0.350
28366SOL     OW86936  13.490   0.551  13.983
28366SOL    HW186937  13.536   0.468  13.967
28366SOL    HW286938  13.398   0.526  13.993
28367SOL     OW86939   9.179  12.894   0.666
28367SOL    HW186940   9.261  12.847   0.650
28367SOL    HW286941   9.115  12.850   0.611
28368SOL     OW86942   1.535   4.745   5.542
28368SOL    HW186943   1.480   4.810   5.587
28368SOL    HW286944   1.625   4.771   5.562
28369SOL     OW86945   7.070   1.976   5.842
28369SOL    HW186946   7.147   2.003   5.893
28369SOL    HW286947   7.006   1.950   5.909
28370SOL     OW86948   7.555  13.287   6.463
28370SOL    HW186949   7.528  13.217   6.403
28370SOL    HW286950   7.474  13.336   6.480
28371SOL     OW86951   1.958   3.003   0.971
28371SOL    HW186952   1.944   2.940   1.041
28371SOL    HW286953   1.984   2.950   0.895
28372SOL     OW86954   6.697   2.900   4.070
28372SOL    HW186955   6.653   2.898   3.985
28372SOL    HW286956   6.648   2.966   4.120
28373SOL     OW86957   1.863  12.266   2.947
28373SOL    HW186958   1.865  12.361   2.963
28373SOL    HW286959   1.829  12.229   3.029
28374SOL     OW86960   0.155  14.882  13.680
28374SOL    HW186961   0.060  14.876  13.689
28374SOL    HW286962   0.187  14.794  13.701
28375SOL     OW86963   5.971   5.259   6.300
28375SOL    HW186964   6.046   5.292   6.250
28375SOL    HW286965   5.990   5.283   6.390
28376SOL     OW86966   8.171  12.120   9.303
28376SOL    HW186967   8.090  12.160   9.272
28376SOL    HW286968   8.182  12.043   9.246
28377SOL     OW86969  14.196  11.558   4.609
28377SOL    HW186970  14.119  11.551   4.665
28377SOL    HW286971  14.197  11.476   4.560
28378SOL     OW86972  10.085   5.234  12.850
28378SOL    HW186973  10.107   5.276  12.767
28378SOL    HW286974  10.072   5.306  12.912
28379SOL     OW86975   8.089  10.293   6.870
28379SOL    HW186976   8.143  10.251   6.804
28379SOL    HW286977   8.060  10.221   6.926
28380SOL     OW86978   6.804  12.341  12.059
28380SOL    HW186979   6.822  12.413  11.999
28380SOL    HW286980   6.709  12.346  12.073
28381SOL     OW86981  10.185   7.098   9.116
28381SOL    HW186982  10.134   7.167   9.073
28381SOL    HW286983  10.227   7.052   9.043
28382SOL     OW86984   0.404   8.876   7.310
28382SOL    HW186985   0.406   8.959   7.359
28382SOL    HW286986   0.493   8.864   7.279
28383SOL     OW86987  13.167   6.951   8.861
28383SOL    HW186988  13.247   6.973   8.908
28383SOL    HW286989  13.111   6.909   8.927
28384SOL     OW86990  11.794   3.597  14.196
28384SOL    HW186991  11.777   3.597  14.290
28384SOL    HW286992  11.759   3.680  14.165
28385SOL     OW86993  12.801   1.313  12.154
28385SOL    HW186994  12.706   1.326  12.153
28385SOL    HW286995  12.833   1.375  12.220
28386SOL     OW86996  14.119  12.561   1.558
28386SOL    HW186997  14.202  12.606   1.541
28386SOL    HW286998  14.105  12.572   1.653
28387SOL     OW86999  13.824   3.011   0.116
28387SOL    HW187000  13.777   2.955   0.055
28387SOL    HW287001  13.887   3.058   0.062
28388SOL     OW87002   6.854   2.363  12.976
28388SOL    HW187003   6.894   2.449  12.991
28388SOL    HW287004   6.907   2.323  12.907
28389SOL     OW87005  12.045   9.380   3.096
28389SOL    HW187006  12.067   9.469   3.124
28389SOL    HW287007  12.126   9.347   3.056
28390SOL     OW87008   8.427  12.702   1.246
28390SOL    HW187009   8.440  12.610   1.223
28390SOL    HW287010   8.379  12.699   1.329
28391SOL     OW87011   9.640   6.804   2.491
28391SOL    HW187012   9.649   6.788   2.585
28391SOL    HW287013   9.573   6.872   2.484
28392SOL     OW87014   3.585  12.543   4.890
28392SOL    HW187015   3.622  12.493   4.963
28392SOL    HW287016   3.640  12.621   4.885
28393SOL     OW87017  14.469   6.361   6.618
28393SOL    HW187018  14.549   6.413   6.608
28393SOL    HW287019  14.496   6.284   6.668
28394SOL     OW87020  10.806   6.040   5.130
28394SOL    HW187021  10.830   5.957   5.172
28394SOL    HW287022  10.784   6.017   5.040
28395SOL     OW87023   6.371  10.336  13.933
28395SOL    HW187024   6.343  10.371  13.848
28395SOL    HW287025   6.325  10.252  13.941
28396SOL     OW87026   3.876   3.411   9.063
28396SOL    HW187027   3.909   3.321   9.055
28396SOL    HW287028   3.902   3.453   8.981
28397SOL     OW87029  12.087   8.611  10.867
28397SOL    HW187030  12.107   8.523  10.897
28397SOL    HW287031  11.997   8.606  10.834
28398SOL     OW87032  10.846   6.382   3.385
28398SOL    HW187033  10.769   6.407   3.436
28398SOL    HW287034  10.812   6.321   3.319
28399SOL     OW87035   6.903   3.757   8.611
28399SOL    HW187036   6.914   3.710   8.695
28399SOL    HW287037   6.971   3.825   8.613
28400SOL     OW87038  13.290   0.500   2.593
28400SOL    HW187039  13.319   0.590   2.575
28400SOL    HW287040  13.361   0.462   2.645
28401SOL     OW87041   4.956   7.039   9.235
28401SOL    HW187042   4.960   7.134   9.224
28401SOL    HW287043   4.992   7.004   9.154
28402SOL     OW87044   0.391   1.891  13.048
28402SOL    HW187045   0.311   1.845  13.024
28402SOL    HW287046   0.403   1.872  13.141
28403SOL     OW87047  12.986   9.887  11.275
28403SOL    HW187048  13.077   9.917  11.273
28403SOL    HW287049  12.936   9.960  11.237
28404SOL     OW87050   6.108   8.629   6.184
28404SOL    HW187051   6.162   8.706   6.198
28404SOL    HW287052   6.054   8.622   6.263
28405SOL     OW87053  11.316   0.687   3.966
28405SOL    HW187054  11.395   0.724   4.005
28405SOL    HW287055  11.339   0.671   3.875
28406SOL     OW87056   0.942   3.667  13.787
28406SOL    HW187057   0.930   3.572  13.786
28406SOL    HW287058   0.949   3.690  13.879
28407SOL     OW87059   3.586  10.350   6.186
28407SOL    HW187060   3.563  10.269   6.230
28407SOL    HW287061   3.538  10.347   6.103
28408SOL     OW87062   5.286  11.086   1.950
28408SOL    HW187063   5.259  11.004   1.990
28408SOL    HW287064   5.367  11.065   1.904
28409SOL     OW87065   9.624   0.033  11.716
28409SOL    HW187066   9.672   0.080  11.647
28409SOL    HW287067   9.639   0.085  11.795
28410SOL     OW87068   6.215   5.986   8.840
28410SOL    HW187069   6.241   5.946   8.922
28410SOL    HW287070   6.124   6.015   8.855
28411SOL     OW87071   1.083   3.080   4.217
28411SOL    HW187072   1.166   3.121   4.240
28411SOL    HW287073   1.064   3.023   4.292
28412SOL     OW87074  12.870   2.042   4.622
28412SOL    HW187075  12.818   2.010   4.696
28412SOL    HW287076  12.960   2.021   4.646
28413SOL     OW87077   2.555  14.042  12.285
28413SOL    HW187078   2.547  14.014  12.376
28413SOL    HW287079   2.597  13.968  12.241
28414SOL     OW87080   6.779   8.044   7.447
28414SOL    HW187081   6.757   7.986   7.520
28414SOL    HW287082   6.732   8.126   7.466
28415SOL     OW87083   9.834   0.893  14.785
28415SOL    HW187084   9.769   0.961  14.765
28415SOL    HW287085   9.814   0.822  14.724
28416SOL     OW87086   2.040  13.679   5.312
28416SOL    HW187087   2.051  13.627   5.391
28416SOL    HW287088   1.959  13.727   5.325
28417SOL     OW87089   1.273  13.986   9.507
28417SOL    HW187090   1.190  14.016   9.544
28417SOL    HW287091   1.274  14.021   9.418
28418SOL     OW87092  10.802   7.319  13.590
28418SOL    HW187093  10.858   7.319  13.512
28418SOL    HW287094  10.717   7.349  13.557
28419SOL     OW87095  14.625   9.362  11.561
28419SOL    HW187096  14.713   9.335  11.533
28419SOL    HW287097  14.569   9.343  11.487
28420SOL     OW87098   9.693  10.316  14.733
28420SOL    HW187099   9.653  10.266  14.804
28420SOL    HW287100   9.619  10.348  14.681
28421SOL     OW87101   2.230   8.582   1.969
28421SOL    HW187102   2.171   8.597   1.895
28421SOL    HW287103   2.261   8.493   1.958
28422SOL     OW87104   0.009   3.683  10.336
28422SOL    HW187105   0.102   3.694  10.355
28422SOL    HW287106  14.851   3.766  10.361
28423SOL     OW87107   4.192  13.382   4.772
28423SOL    HW187108   4.106  13.376   4.814
28423SOL    HW287109   4.178  13.350   4.683
28424SOL     OW87110   2.571  13.492   2.074
28424SOL    HW187111   2.589  13.458   2.161
28424SOL    HW287112   2.479  13.519   2.077
28425SOL     OW87113  10.969   5.995   4.785
28425SOL    HW187114  10.885   5.993   4.830
28425SOL    HW287115  10.959   5.933   4.713
28426SOL     OW87116   0.476   3.766   2.979
28426SOL    HW187117   0.516   3.720   3.053
28426SOL    HW287118   0.549   3.804   2.931
28427SOL     OW87119   3.444   3.946   5.175
28427SOL    HW187120   3.401   3.956   5.260
28427SOL    HW287121   3.469   4.035   5.150
28428SOL     OW87122   7.369  14.008  11.752
28428SOL    HW187123   7.419  13.926  11.760
28428SOL    HW287124   7.425  14.065  11.699
28429SOL     OW87125   5.087  12.287   8.607
28429SOL    HW187126   5.120  12.209   8.652
28429SOL    HW287127   5.145  12.298   8.532
28430SOL     OW87128  13.504  14.436  13.071
28430SOL    HW187129  13.427  14.384  13.091
28430SOL    HW287130  13.517  14.423  12.977
28431SOL     OW87131   3.311  11.061   1.677
28431SOL    HW187132   3.356  11.054   1.760
28431SOL    HW287133   3.381  11.069   1.612
28432SOL     OW87134  10.893  10.196   1.738
28432SOL    HW187135  10.927  10.137   1.670
28432SOL    HW287136  10.828  10.143   1.784
28433SOL     OW87137   0.282   0.390  13.803
28433SOL    HW187138   0.364   0.391  13.754
28433SOL    HW287139   0.219   0.348  13.744
28434SOL     OW87140   9.456   2.356   9.584
28434SOL    HW187141   9.490   2.290   9.644
28434SOL    HW287142   9.512   2.351   9.507
28435SOL     OW87143   2.478   1.483   9.096
28435SOL    HW187144   2.568   1.455   9.107
28435SOL    HW287145   2.467   1.554   9.159
28436SOL     OW87146   9.109   7.972   7.118
28436SOL    HW187147   9.190   7.949   7.072
28436SOL    HW287148   9.128   7.951   7.210
28437SOL     OW87149   9.943  10.700  13.444
28437SOL    HW187150   9.928  10.610  13.417
28437SOL    HW287151  10.009  10.693  13.513
28438SOL     OW87152   0.250   3.688  14.715
28438SOL    HW187153   0.227   3.771  14.674
28438SOL    HW287154   0.167   3.652  14.746
28439SOL     OW87155   1.317   2.910   5.301
28439SOL    HW187156   1.341   3.003   5.297
28439SOL    HW287157   1.368   2.869   5.231
28440SOL     OW87158  12.732  12.249  12.626
28440SOL    HW187159  12.653  12.292  12.593
28440SOL    HW287160  12.705  12.212  12.710
28441SOL     OW87161   0.794   2.402   1.930
28441SOL    HW187162   0.785   2.439   1.842
28441SOL    HW287163   0.715   2.349   1.941
28442SOL     OW87164   7.360  11.120   6.568
28442SOL    HW187165   7.383  11.032   6.537
28442SOL    HW287166   7.424  11.139   6.637
28443SOL     OW87167   6.628   0.069  11.110
28443SOL    HW187168   6.651   0.074  11.203
28443SOL    HW287169   6.706   0.101  11.064
28444SOL     OW87170   9.258   7.881   5.045
28444SOL    HW187171   9.254   7.975   5.063
28444SOL    HW287172   9.333   7.871   4.986
28445SOL     OW87173   8.007   5.916   8.328
28445SOL    HW187174   8.058   5.838   8.307
28445SOL    HW287175   8.010   5.968   8.248
28446SOL     OW87176   1.279   9.793   5.720
28446SOL    HW187177   1.332   9.715   5.735
28446SOL    HW287178   1.314   9.858   5.781
28447SOL     OW87179   9.371   0.518  12.944
28447SOL    HW187180   9.443   0.459  12.969
28447SOL    HW287181   9.297   0.489  12.996
28448SOL     OW87182   2.637   4.124   4.759
28448SOL    HW187183   2.673   4.171   4.684
28448SOL    HW287184   2.627   4.034   4.729
28449SOL     OW87185   9.837   1.123   6.253
28449SOL    HW187186   9.930   1.114   6.275
28449SOL    HW287187   9.837   1.171   6.170
28450SOL     OW87188   4.314   2.925   2.552
28450SOL    HW187189   4.319   2.834   2.581
28450SOL    HW287190   4.226   2.934   2.515
28451SOL     OW87191   3.697   6.830   7.602
28451SOL    HW187192   3.766   6.845   7.537
28451SOL    HW287193   3.742   6.834   7.686
28452SOL     OW87194   2.883  11.743   9.890
28452SOL    HW187195   2.860  11.768   9.980
28452SOL    HW287196   2.978  11.751   9.887
28453SOL     OW87197   0.489  10.078   9.991
28453SOL    HW187198   0.537  10.130   9.927
28453SOL    HW287199   0.401  10.068   9.953
28454SOL     OW87200   6.397   3.135   8.191
28454SOL    HW187201   6.322   3.188   8.219
28454SOL    HW287202   6.391   3.132   8.096
28455SOL     OW87203  14.591   1.898   9.829
28455SOL    HW187204  14.655   1.948   9.778
28455SOL    HW287205  14.534   1.857   9.763
28456SOL     OW87206   7.936   8.093   3.706
28456SOL    HW187207   7.861   8.061   3.655
28456SOL    HW287208   7.965   8.172   3.659
28457SOL     OW87209  14.282  13.489  13.446
28457SOL    HW187210  14.262  13.580  13.470
28457SOL    HW287211  14.199  13.442  13.458
28458SOL     OW87212   4.655  10.400   6.266
28458SOL    HW187213   4.601  10.451   6.205
28458SOL    HW287214   4.628  10.310   6.253
28459SOL     OW87215   6.395   5.911   8.660
28459SOL    HW187216   6.346   5.905   8.578
28459SOL    HW287217   6.331   5.941   8.724
28460SOL     OW87218  11.144   3.632  13.604
28460SOL    HW187219  11.176   3.618  13.694
28460SOL    HW287220  11.195   3.706  13.571
28461SOL     OW87221   1.315   5.536   8.803
28461SOL    HW187222   1.396   5.497   8.836
28461SOL    HW287223   1.259   5.461   8.783
28462SOL     OW87224   7.101   5.650  11.961
28462SOL    HW187225   7.020   5.674  12.006
28462SOL    HW287226   7.100   5.701  11.880
28463SOL     OW87227   0.410   8.005  14.761
28463SOL    HW187228   0.456   8.088  14.770
28463SOL    HW287229   0.320   8.024  14.786
28464SOL     OW87230   8.041   4.733  13.412
28464SOL    HW187231   8.007   4.775  13.332
28464SOL    HW287232   8.099   4.665  13.380
28465SOL     OW87233   2.067   0.936   2.880
28465SOL    HW187234   1.982   0.936   2.924
28465SOL    HW287235   2.051   0.977   2.795
28466SOL     OW87236  12.176  11.361   1.147
28466SOL    HW187237  12.083  11.372   1.131
28466SOL    HW287238  12.219  11.396   1.068
28467SOL     OW87239   6.140   4.343  12.608
28467SOL    HW187240   6.167   4.271  12.665
28467SOL    HW287241   6.217   4.360  12.554
28468SOL     OW87242   3.668   9.804   1.512
28468SOL    HW187243   3.643   9.853   1.590
28468SOL    HW287244   3.737   9.746   1.542
28469SOL     OW87245  14.585   1.294  10.572
28469SOL    HW187246  14.582   1.224  10.506
28469SOL    HW287247  14.586   1.247  10.655
28470SOL     OW87248   5.874  11.198  11.365
28470SOL    HW187249   5.783  11.228  11.369
28470SOL    HW287250   5.880  11.128  11.430
28471SOL     OW87251   6.248  11.843  12.597
28471SOL    HW187252   6.243  11.900  12.520
28471SOL    HW287253   6.255  11.755  12.561
28472SOL     OW87254  11.249   7.495   3.802
28472SOL    HW187255  11.272   7.577   3.845
28472SOL    HW287256  11.291   7.427   3.855
28473SOL     OW87257  14.483  12.372   3.193
28473SOL    HW187258  14.437  12.440   3.144
28473SOL    HW287259  14.475  12.294   3.138
28474SOL     OW87260   5.613   9.855   7.002
28474SOL    HW187261   5.530   9.822   6.968
28474SOL    HW287262   5.679   9.801   6.959
28475SOL     OW87263   4.326  11.774  12.747
28475SOL    HW187264   4.385  11.813  12.811
28475SOL    HW287265   4.330  11.680  12.765
28476SOL     OW87266   3.881   5.980   4.417
28476SOL    HW187267   3.937   5.902   4.421
28476SOL    HW287268   3.915   6.038   4.486
28477SOL     OW87269   3.107  10.369  12.967
28477SOL    HW187270   3.165  10.407  12.901
28477SOL    HW287271   3.053  10.307  12.919
28478SOL     OW87272   7.665   5.281  11.193
28478SOL    HW187273   7.645   5.271  11.286
28478SOL    HW287274   7.623   5.364  11.168
28479SOL     OW87275  13.975   1.706  10.950
28479SOL    HW187276  13.969   1.625  10.900
28479SOL    HW287277  13.929   1.770  10.897
28480SOL     OW87278   5.819   9.116   9.320
28480SOL    HW187279   5.907   9.094   9.352
28480SOL    HW287280   5.824   9.210   9.301
28481SOL     OW87281  13.851  12.740  14.722
28481SOL    HW187282  13.924  12.794  14.691
28481SOL    HW287283  13.785  12.748  14.653
28482SOL     OW87284   9.238   2.119  13.763
28482SOL    HW187285   9.323   2.159  13.780
28482SOL    HW287286   9.179   2.193  13.746
28483SOL     OW87287   8.218   8.951   2.811
28483SOL    HW187288   8.167   8.983   2.736
28483SOL    HW287289   8.194   8.858   2.818
28484SOL     OW87290   7.222  11.146   0.073
28484SOL    HW187291   7.152  11.081   0.081
28484SOL    HW287292   7.195  11.218   0.130
28485SOL     OW87293   6.426   6.774   3.906
28485SOL    HW187294   6.336   6.756   3.934
28485SOL    HW287295   6.439   6.867   3.927
28486SOL     OW87296   0.464   2.895   7.229
28486SOL    HW187297   0.468   2.953   7.305
28486SOL    HW287298   0.479   2.807   7.265
28487SOL     OW87299  11.168   3.558   7.262
28487SOL    HW187300  11.077   3.585   7.258
28487SOL    HW287301  11.165   3.464   7.282
28488SOL     OW87302  12.745   8.196   2.614
28488SOL    HW187303  12.667   8.225   2.566
28488SOL    HW287304  12.710   8.135   2.679
28489SOL     OW87305   7.186   5.646   9.269
28489SOL    HW187306   7.226   5.722   9.225
28489SOL    HW287307   7.105   5.631   9.221
28490SOL     OW87308   4.822   0.672   8.541
28490SOL    HW187309   4.749   0.612   8.552
28490SOL    HW287310   4.781   0.755   8.517
28491SOL     OW87311  11.317  14.535  10.273
28491SOL    HW187312  11.222  14.529  10.267
28491SOL    HW287313  11.344  14.569  10.188
28492SOL     OW87314   6.406  11.856   7.256
28492SOL    HW187315   6.428  11.780   7.202
28492SOL    HW287316   6.407  11.930   7.195
28493SOL     OW87317   5.927   2.845   6.939
28493SOL    HW187318   5.878   2.872   6.861
28493SOL    HW287319   5.987   2.918   6.956
28494SOL     OW87320   7.610   4.576  11.957
28494SOL    HW187321   7.616   4.565  12.052
28494SOL    HW287322   7.526   4.535  11.934
28495SOL     OW87323   6.843   4.900   1.160
28495SOL    HW187324   6.768   4.958   1.166
28495SOL    HW287325   6.838   4.846   1.240
28496SOL     OW87326  14.795  10.321   6.911
28496SOL    HW187327  14.829  10.304   6.823
28496SOL    HW287328  14.748  10.241   6.935
28497SOL     OW87329  10.092   6.298  13.519
28497SOL    HW187330  10.187   6.286  13.520
28497SOL    HW287331  10.061   6.237  13.452
28498SOL     OW87332   5.596   0.434  14.053
28498SOL    HW187333   5.566   0.417  14.142
28498SOL    HW287334   5.569   0.524  14.034
28499SOL     OW87335  11.947   8.125   8.473
28499SOL    HW187336  11.928   8.031   8.478
28499SOL    HW287337  11.999   8.135   8.393
28500SOL     OW87338   8.649   1.617  11.870
28500SOL    HW187339   8.561   1.601  11.905
28500SOL    HW287340   8.663   1.546  11.807
28501SOL     OW87341   7.658  14.315   6.440
28501SOL    HW187342   7.711  14.394   6.444
28501SOL    HW287343   7.568  14.346   6.446
28502SOL     OW87344   1.946   0.627  10.481
28502SOL    HW187345   2.007   0.552  10.475
28502SOL    HW287346   2.003   0.704  10.479
28503SOL     OW87347  10.387   5.869  12.618
28503SOL    HW187348  10.450   5.928  12.577
28503SOL    HW287349  10.407   5.783  12.581
28504SOL     OW87350   7.586   7.106  14.238
28504SOL    HW187351   7.523   7.040  14.268
28504SOL    HW287352   7.531   7.176  14.203
28505SOL     OW87353   5.758   2.566   2.645
28505SOL    HW187354   5.723   2.601   2.727
28505SOL    HW287355   5.695   2.499   2.619
28506SOL     OW87356   7.272   8.411  10.407
28506SOL    HW187357   7.279   8.324  10.368
28506SOL    HW287358   7.315   8.402  10.493
28507SOL     OW87359  10.326   2.735  12.552
28507SOL    HW187360  10.420   2.721  12.564
28507SOL    HW287361  10.299   2.667  12.491
28508SOL     OW87362  14.153   4.924  13.944
28508SOL    HW187363  14.094   4.983  13.898
28508SOL    HW287364  14.219   4.900  13.879
28509SOL     OW87365  11.010   0.313   7.589
28509SOL    HW187366  10.941   0.379   7.601
28509SOL    HW287367  11.037   0.321   7.498
28510SOL     OW87368  14.746   5.286   3.397
28510SOL    HW187369  14.736   5.349   3.469
28510SOL    HW287370  14.790   5.211   3.436
28511SOL     OW87371   0.271   3.531   5.347
28511SOL    HW187372   0.252   3.487   5.264
28511SOL    HW287373   0.366   3.539   5.350
28512SOL     OW87374   6.273   1.092   2.733
28512SOL    HW187375   6.329   1.168   2.717
28512SOL    HW287376   6.276   1.041   2.652
28513SOL     OW87377  11.201   7.366   1.625
28513SOL    HW187378  11.193   7.427   1.552
28513SOL    HW287379  11.288   7.326   1.614
28514SOL     OW87380  10.604   2.529   1.426
28514SOL    HW187381  10.578   2.445   1.388
28514SOL    HW287382  10.676   2.507   1.485
28515SOL     OW87383  14.227   4.244   0.672
28515SOL    HW187384  14.156   4.306   0.655
28515SOL    HW287385  14.256   4.264   0.761
28516SOL     OW87386   9.497  13.492   2.174
28516SOL    HW187387   9.521  13.400   2.166
28516SOL    HW287388   9.402  13.490   2.188
28517SOL     OW87389   9.583  11.805   8.059
28517SOL    HW187390   9.601  11.754   7.980
28517SOL    HW287391   9.625  11.890   8.043
28518SOL     OW87392   9.903   3.579   4.445
28518SOL    HW187393   9.845   3.534   4.507
28518SOL    HW287394   9.874   3.670   4.447
28519SOL     OW87395   2.646  11.671   0.560
28519SOL    HW187396   2.690  11.621   0.491
28519SOL    HW287397   2.653  11.615   0.638
28520SOL     OW87398   6.555  13.351  12.790
28520SOL    HW187399   6.478  13.296  12.793
28520SOL    HW287400   6.627  13.291  12.767
28521SOL     OW87401   1.187  13.455  10.321
28521SOL    HW187402   1.196  13.370  10.364
28521SOL    HW287403   1.276  13.479  10.295
28522SOL     OW87404  11.339   5.068   7.322
28522SOL    HW187405  11.337   5.031   7.410
28522SOL    HW287406  11.293   5.004   7.268
28523SOL     OW87407  13.547   8.924   7.621
28523SOL    HW187408  13.486   8.863   7.662
28523SOL    HW287409  13.592   8.966   7.695
28524SOL     OW87410  13.350   1.457   0.085
28524SOL    HW187411  13.347   1.395   0.158
28524SOL    HW287412  13.264   1.500   0.086
28525SOL     OW87413   1.824  11.913   5.666
28525SOL    HW187414   1.820  11.817   5.666
28525SOL    HW287415   1.807  11.938   5.756
28526SOL     OW87416   3.529  14.361  10.504
28526SOL    HW187417   3.468  14.346  10.431
28526SOL    HW287418   3.492  14.312  10.577
28527SOL     OW87419   0.228   5.431  10.967
28527SOL    HW187420   0.205   5.480  11.046
28527SOL    HW287421   0.169   5.465  10.899
28528SOL     OW87422   2.489   4.649   5.411
28528SOL    HW187423   2.396   4.671   5.410
28528SOL    HW287424   2.533   4.731   5.393
28529SOL     OW87425  12.194  13.877  14.544
28529SOL    HW187426  12.186  13.801  14.601
28529SOL    HW287427  12.244  13.941  14.595
28530SOL     OW87428   7.466   8.662  13.327
28530SOL    HW187429   7.490   8.711  13.248
28530SOL    HW287430   7.467   8.570  13.301
28531SOL     OW87431   6.326  13.977  14.270
28531SOL    HW187432   6.300  14.069  14.280
28531SOL    HW287433   6.252  13.936  14.225
28532SOL     OW87434  12.874   2.402   3.703
28532SOL    HW187435  12.902   2.492   3.717
28532SOL    HW287436  12.934   2.350   3.756
28533SOL     OW87437   1.607  10.554  14.290
28533SOL    HW187438   1.635  10.470  14.326
28533SOL    HW287439   1.634  10.551  14.198
28534SOL     OW87440  10.183   1.246   6.086
28534SOL    HW187441  10.191   1.331   6.130
28534SOL    HW287442  10.207   1.263   5.995
28535SOL     OW87443   0.391   9.798  12.197
28535SOL    HW187444   0.486   9.791  12.188
28535SOL    HW287445   0.375   9.794  12.291
28536SOL     OW87446   4.233   3.799  12.468
28536SOL    HW187447   4.297   3.737  12.503
28536SOL    HW287448   4.280   3.882  12.466
28537SOL     OW87449   7.421  10.510  13.886
28537SOL    HW187450   7.460  10.596  13.868
28537SOL    HW287451   7.453  10.455  13.814
28538SOL     OW87452   2.888   2.540   3.423
28538SOL    HW187453   2.845   2.470   3.471
28538SOL    HW287454   2.836   2.618   3.442
28539SOL     OW87455   4.106   2.686   4.658
28539SOL    HW187456   4.097   2.755   4.592
28539SOL    HW287457   4.046   2.617   4.630
28540SOL     OW87458  11.975   0.693  11.675
28540SOL    HW187459  11.920   0.621  11.705
28540SOL    HW287460  11.914   0.762  11.650
28541SOL     OW87461  10.057  14.441   6.884
28541SOL    HW187462  10.107  14.365   6.916
28541SOL    HW287463  10.124  14.506   6.865
28542SOL     OW87464   9.154  14.290   5.844
28542SOL    HW187465   9.096  14.304   5.919
28542SOL    HW287466   9.201  14.209   5.864
28543SOL     OW87467  11.425   9.024  13.872
28543SOL    HW187468  11.512   8.985  13.875
28543SOL    HW287469  11.434   9.108  13.917
28544SOL     OW87470   6.398   2.035   4.446
28544SOL    HW187471   6.467   2.005   4.506
28544SOL    HW287472   6.317   2.009   4.489
28545SOL     OW87473  10.077   8.536   7.519
28545SOL    HW187474  10.163   8.554   7.481
28545SOL    HW287475  10.037   8.623   7.530
28546SOL     OW87476   8.196   9.972   4.366
28546SOL    HW187477   8.122   9.968   4.426
28546SOL    HW287478   8.200   9.885   4.326
28547SOL     OW87479  12.962  10.089   7.884
28547SOL    HW187480  12.930  10.076   7.974
28547SOL    HW287481  13.055  10.106   7.895
28548SOL     OW87482  14.180  12.780   3.913
28548SOL    HW187483  14.174  12.687   3.937
28548SOL    HW287484  14.224  12.780   3.828
28549SOL     OW87485   9.945   2.580   8.012
28549SOL    HW187486   9.881   2.526   7.965
28549SOL    HW287487  10.029   2.557   7.973
28550SOL     OW87488   8.571   3.662  13.270
28550SOL    HW187489   8.655   3.703  13.289
28550SOL    HW287490   8.574   3.645  13.175
28551SOL     OW87491   2.397   1.750   9.618
28551SOL    HW187492   2.456   1.676   9.609
28551SOL    HW287493   2.450   1.819   9.658
28552SOL     OW87494  14.266   0.551  12.075
28552SOL    HW187495  14.347   0.560  12.025
28552SOL    HW287496  14.212   0.492  12.023
28553SOL     OW87497  12.234  11.848   5.839
28553SOL    HW187498  12.163  11.856   5.776
28553SOL    HW287499  12.275  11.935   5.839
28554SOL     OW87500   9.118   1.275   2.257
28554SOL    HW187501   9.054   1.279   2.328
28554SOL    HW287502   9.194   1.233   2.297
28555SOL     OW87503   2.021   5.140   1.455
28555SOL    HW187504   1.945   5.134   1.514
28555SOL    HW287505   1.982   5.141   1.367
28556SOL     OW87506  14.674   4.244   0.769
28556SOL    HW187507  14.676   4.296   0.849
28556SOL    HW287508  14.710   4.302   0.702
28557SOL     OW87509  13.517   4.303  10.427
28557SOL    HW187510  13.422   4.299  10.416
28557SOL    HW287511  13.531   4.375  10.489
28558SOL     OW87512   1.232  11.188  11.668
28558SOL    HW187513   1.300  11.151  11.725
28558SOL    HW287514   1.172  11.232  11.728
28559SOL     OW87515   4.207  12.304   1.860
28559SOL    HW187516   4.295  12.270   1.878
28559SOL    HW287517   4.149  12.230   1.878
28560SOL     OW87518   5.886   7.162  10.135
28560SOL    HW187519   5.792   7.154  10.121
28560SOL    HW287520   5.920   7.073  10.125
28561SOL     OW87521   9.855   4.437  13.741
28561SOL    HW187522   9.776   4.395  13.707
28561SOL    HW287523   9.848   4.528  13.712
28562SOL     OW87524   1.904   0.833   7.964
28562SOL    HW187525   1.968   0.889   7.920
28562SOL    HW287526   1.956   0.761   8.000
28563SOL     OW87527  14.221   7.918   8.848
28563SOL    HW187528  14.138   7.877   8.874
28563SOL    HW287529  14.199   7.966   8.768
28564SOL     OW87530  11.925   9.509   8.722
28564SOL    HW187531  11.992   9.452   8.759
28564SOL    HW287532  11.844   9.483   8.766
28565SOL     OW87533  13.270  12.413   0.143
28565SOL    HW187534  13.192  12.466   0.126
28565SOL    HW287535  13.343  12.470   0.119
28566SOL     OW87536   0.803   0.932   5.026
28566SOL    HW187537   0.889   0.901   4.996
28566SOL    HW287538   0.808   1.027   5.016
28567SOL     OW87539   3.062  11.923  13.058
28567SOL    HW187540   3.145  11.900  13.017
28567SOL    HW287541   3.077  11.911  13.152
28568SOL     OW87542  14.051  13.880   2.856
28568SOL    HW187543  14.101  13.943   2.804
28568SOL    HW287544  13.995  13.935   2.912
28569SOL     OW87545  12.193   6.295   9.621
28569SOL    HW187546  12.270   6.288   9.566
28569SOL    HW287547  12.188   6.211   9.667
28570SOL     OW87548   9.798   5.954   9.592
28570SOL    HW187549   9.741   5.893   9.640
28570SOL    HW287550   9.842   6.004   9.661
28571SOL     OW87551   5.834   7.559   1.995
28571SOL    HW187552   5.782   7.612   2.056
28571SOL    HW287553   5.894   7.621   1.955
28572SOL     OW87554  10.209   9.864  14.845
28572SOL    HW187555  10.237   9.809  14.771
28572SOL    HW287556  10.120   9.890  14.822
28573SOL     OW87557   4.569   6.450  14.640
28573SOL    HW187558   4.616   6.366  14.648
28573SOL    HW287559   4.638   6.516  14.638
28574SOL     OW87560   5.743  11.652   5.528
28574SOL    HW187561   5.816  11.707   5.499
28574SOL    HW287562   5.669  11.680   5.474
28575SOL     OW87563  10.961   6.740   9.911
28575SOL    HW187564  10.913   6.823   9.911
28575SOL    HW287565  10.894   6.673   9.900
28576SOL     OW87566  13.869   3.963   3.266
28576SOL    HW187567  13.831   3.994   3.348
28576SOL    HW287568  13.910   3.880   3.289
28577SOL     OW87569  14.483   2.040   7.826
28577SOL    HW187570  14.445   2.110   7.880
28577SOL    HW287571  14.425   1.965   7.841
28578SOL     OW87572   3.860  11.937   7.891
28578SOL    HW187573   3.919  11.885   7.945
28578SOL    HW287574   3.915  11.971   7.821
28579SOL     OW87575   9.464   3.776   0.968
28579SOL    HW187576   9.381   3.753   1.010
28579SOL    HW287577   9.492   3.696   0.924
28580SOL     OW87578  14.727   0.870   5.186
28580SOL    HW187579  14.728   0.966   5.187
28580SOL    HW287580  14.809   0.844   5.227
28581SOL     OW87581   7.561   4.432   9.567
28581SOL    HW187582   7.650   4.422   9.534
28581SOL    HW287583   7.507   4.386   9.504
28582SOL     OW87584   7.728  12.262   4.912
28582SOL    HW187585   7.720  12.346   4.867
28582SOL    HW287586   7.646  12.253   4.962
28583SOL     OW87587   4.622   0.691  13.044
28583SOL    HW187588   4.645   0.718  13.133
28583SOL    HW287589   4.542   0.640  13.054
28584SOL     OW87590  11.491   3.214   8.609
28584SOL    HW187591  11.584   3.207   8.630
28584SOL    HW287592  11.446   3.184   8.689
28585SOL     OW87593  12.874   2.380   0.859
28585SOL    HW187594  12.801   2.391   0.799
28585SOL    HW287595  12.918   2.465   0.861
28586SOL     OW87596  13.009   1.931   6.542
28586SOL    HW187597  13.015   1.847   6.497
28586SOL    HW287598  12.917   1.954   6.538
28587SOL     OW87599   6.051  10.958   0.153
28587SOL    HW187600   6.009  11.041   0.133
28587SOL    HW287601   6.017  10.897   0.088
28588SOL     OW87602   3.164   1.325   6.738
28588SOL    HW187603   3.098   1.357   6.800
28588SOL    HW287604   3.243   1.374   6.760
28589SOL     OW87605  13.347   3.699  13.945
28589SOL    HW187606  13.383   3.679  14.032
28589SOL    HW287607  13.381   3.787  13.925
28590SOL     OW87608   7.027   3.148   6.935
28590SOL    HW187609   6.969   3.093   6.882
28590SOL    HW287610   7.115   3.121   6.910
28591SOL     OW87611   2.895  10.420  14.292
28591SOL    HW187612   2.897  10.346  14.352
28591SOL    HW287613   2.830  10.396  14.226
28592SOL     OW87614   6.824  10.932   4.704
28592SOL    HW187615   6.833  11.000   4.637
28592SOL    HW287616   6.807  10.852   4.654
28593SOL     OW87617   0.851  12.803   4.856
28593SOL    HW187618   0.775  12.807   4.798
28593SOL    HW287619   0.913  12.866   4.819
28594SOL     OW87620   3.742   6.531   5.685
28594SOL    HW187621   3.706   6.481   5.611
28594SOL    HW287622   3.747   6.621   5.654
28595SOL     OW87623   2.730  11.605  13.069
28595SOL    HW187624   2.636  11.624  13.069
28595SOL    HW287625   2.754  11.600  12.977
28596SOL     OW87626   5.964  10.635   8.772
28596SOL    HW187627   5.898  10.676   8.828
28596SOL    HW287628   5.999  10.707   8.720
28597SOL     OW87629   6.921  13.547   3.946
28597SOL    HW187630   6.903  13.539   3.852
28597SOL    HW287631   6.851  13.496   3.988
28598SOL     OW87632  11.085  10.569  14.543
28598SOL    HW187633  11.015  10.610  14.594
28598SOL    HW287634  11.161  10.626  14.557
28599SOL     OW87635  10.223  12.588  14.210
28599SOL    HW187636  10.287  12.622  14.147
28599SOL    HW287637  10.141  12.632  14.189
28600SOL     OW87638   1.893   3.008   9.590
28600SOL    HW187639   1.916   2.962   9.670
28600SOL    HW287640   1.947   3.087   9.591
28601SOL     OW87641  12.851  13.939  12.042
28601SOL    HW187642  12.833  13.926  11.949
28601SOL    HW287643  12.912  13.869  12.065
28602SOL     OW87644   8.272   1.746   4.915
28602SOL    HW187645   8.240   1.817   4.860
28602SOL    HW287646   8.233   1.764   5.001
28603SOL     OW87647   2.221   3.467   5.328
28603SOL    HW187648   2.290   3.459   5.262
28603SOL    HW287649   2.152   3.518   5.286
28604SOL     OW87650  11.170  12.023  14.105
28604SOL    HW187651  11.112  12.095  14.128
28604SOL    HW287652  11.220  12.006  14.185
28605SOL     OW87653  12.161   5.777  14.817
28605SOL    HW187654  12.192   5.771  14.727
28605SOL    HW287655  12.156   5.686  14.846
28606SOL     OW87656  14.825   9.855   4.960
28606SOL    HW187657  14.802   9.776   4.912
28606SOL    HW287658  14.860   9.915   4.894
28607SOL     OW87659   1.651   3.322   0.821
28607SOL    HW187660   1.557   3.302   0.822
28607SOL    HW287661   1.654   3.418   0.821
28608SOL     OW87662   4.488   4.930   8.528
28608SOL    HW187663   4.402   4.888   8.518
28608SOL    HW287664   4.468   5.016   8.566
28609SOL     OW87665   6.894   3.684  11.519
28609SOL    HW187666   6.843   3.763  11.502
28609SOL    HW287667   6.834   3.625  11.564
28610SOL     OW87668  11.173   8.799  12.575
28610SOL    HW187669  11.208   8.796  12.664
28610SOL    HW287670  11.096   8.856  12.581
28611SOL     OW87671  11.009   1.189  14.713
28611SOL    HW187672  10.918   1.217  14.712
28611SOL    HW287673  11.012   1.117  14.650
28612SOL     OW87674   5.104   2.805   1.624
28612SOL    HW187675   5.118   2.790   1.531
28612SOL    HW287676   5.037   2.874   1.628
28613SOL     OW87677   0.354   1.544   6.218
28613SOL    HW187678   0.321   1.538   6.308
28613SOL    HW287679   0.276   1.561   6.165
28614SOL     OW87680  12.596  13.149   5.197
28614SOL    HW187681  12.528  13.207   5.231
28614SOL    HW287682  12.551  13.090   5.137
28615SOL     OW87683   1.572  11.088   1.487
28615SOL    HW187684   1.564  11.105   1.393
28615SOL    HW287685   1.662  11.060   1.499
28616SOL     OW87686  10.696  13.902   5.804
28616SOL    HW187687  10.767  13.956   5.838
28616SOL    HW287688  10.738  13.848   5.737
28617SOL     OW87689   6.359   8.445   2.345
28617SOL    HW187690   6.408   8.372   2.381
28617SOL    HW287691   6.271   8.436   2.382
28618SOL     OW87692   0.509   9.815  11.353
28618SOL    HW187693   0.422   9.845  11.330
28618SOL    HW287694   0.567   9.888  11.331
28619SOL     OW87695  11.739   4.277  12.671
28619SOL    HW187696  11.713   4.369  12.674
28619SOL    HW287697  11.814   4.276  12.612
28620SOL     OW87698   4.618   9.921   7.747
28620SOL    HW187699   4.630   9.827   7.737
28620SOL    HW287700   4.580   9.950   7.664
28621SOL     OW87701   6.159   1.131   5.474
28621SOL    HW187702   6.123   1.160   5.391
28621SOL    HW287703   6.170   1.211   5.525
28622SOL     OW87704  10.645  13.867  11.170
28622SOL    HW187705  10.608  13.889  11.084
28622SOL    HW287706  10.719  13.809  11.150
28623SOL     OW87707   6.230  12.110   8.225
28623SOL    HW187708   6.285  12.108   8.147
28623SOL    HW287709   6.280  12.162   8.288
28624SOL     OW87710   0.631  10.124   2.501
28624SOL    HW187711   0.704  10.175   2.465
28624SOL    HW287712   0.552  10.165   2.466
28625SOL     OW87713  10.712   1.355  10.732
28625SOL    HW187714  10.631   1.306  10.722
28625SOL    HW287715  10.768   1.323  10.661
28626SOL     OW87716   7.468   4.069  13.009
28626SOL    HW187717   7.552   4.109  12.986
28626SOL    HW287718   7.421   4.136  13.058
28627SOL     OW87719   5.335  12.828   5.635
28627SOL    HW187720   5.400  12.823   5.565
28627SOL    HW287721   5.352  12.750   5.688
28628SOL     OW87722   1.178  11.753   0.406
28628SOL    HW187723   1.257  11.779   0.357
28628SOL    HW287724   1.162  11.826   0.465
28629SOL     OW87725   7.845   8.258   0.524
28629SOL    HW187726   7.849   8.174   0.570
28629SOL    HW287727   7.849   8.323   0.594
28630SOL     OW87728   1.495   5.687  12.272
28630SOL    HW187729   1.442   5.627  12.220
28630SOL    HW287730   1.486   5.655  12.362
28631SOL     OW87731   4.831  14.138   6.536
28631SOL    HW187732   4.762  14.195   6.501
28631SOL    HW287733   4.891  14.124   6.463
28632SOL     OW87734   8.707  14.800   0.133
28632SOL    HW187735   8.710  14.734   0.203
28632SOL    HW287736   8.617  14.834   0.136
28633SOL     OW87737   9.979  10.394   8.597
28633SOL    HW187738   9.985  10.487   8.577
28633SOL    HW287739   9.964  10.390   8.692
28634SOL     OW87740   3.550   9.925   4.198
28634SOL    HW187741   3.509  10.006   4.169
28634SOL    HW287742   3.569   9.878   4.117
28635SOL     OW87743   8.470   2.878  13.944
28635SOL    HW187744   8.521   2.892  14.024
28635SOL    HW287745   8.405   2.948  13.944
28636SOL     OW87746   8.139  13.483   4.229
28636SOL    HW187747   8.070  13.436   4.184
28636SOL    HW287748   8.099  13.515   4.310
28637SOL     OW87749  13.672   7.533   4.240
28637SOL    HW187750  13.651   7.625   4.222
28637SOL    HW287751  13.687   7.530   4.334
28638SOL     OW87752  14.580   7.498   3.400
28638SOL    HW187753  14.488   7.504   3.426
28638SOL    HW287754  14.601   7.585   3.367
28639SOL     OW87755   9.195   1.993  13.513
28639SOL    HW187756   9.217   2.010  13.605
28639SOL    HW287757   9.267   1.939  13.481
28640SOL     OW87758  10.839   0.275  10.201
28640SOL    HW187759  10.862   0.359  10.160
28640SOL    HW287760  10.758   0.292  10.247
28641SOL     OW87761  11.539  14.513   0.301
28641SOL    HW187762  11.522  14.607   0.308
28641SOL    HW287763  11.582  14.490   0.383
28642SOL     OW87764   5.189   1.687  12.733
28642SOL    HW187765   5.172   1.645  12.649
28642SOL    HW287766   5.267   1.740  12.719
28643SOL     OW87767   6.790  13.678   5.153
28643SOL    HW187768   6.719  13.629   5.194
28643SOL    HW287769   6.780  13.660   5.059
28644SOL     OW87770  11.195   7.324  10.941
28644SOL    HW187771  11.187   7.253  10.877
28644SOL    HW287772  11.213   7.280  11.024
28645SOL     OW87773   5.526   7.518  13.944
28645SOL    HW187774   5.478   7.532  14.026
28645SOL    HW287775   5.482   7.444  13.903
28646SOL     OW87776  11.553   9.212   1.850
28646SOL    HW187777  11.590   9.134   1.808
28646SOL    HW287778  11.616   9.281   1.831
28647SOL     OW87779  12.109   5.243   5.716
28647SOL    HW187780  12.156   5.280   5.791
28647SOL    HW287781  12.056   5.173   5.753
28648SOL     OW87782  13.431   6.934   4.312
28648SOL    HW187783  13.396   6.846   4.325
28648SOL    HW287784  13.481   6.952   4.392
28649SOL     OW87785  11.925   9.419   1.636
28649SOL    HW187786  11.929   9.500   1.586
28649SOL    HW287787  11.866   9.438   1.709
28650SOL     OW87788   8.659  10.101   5.538
28650SOL    HW187789   8.635  10.089   5.630
28650SOL    HW287790   8.635  10.018   5.496
28651SOL     OW87791   1.344  12.488   5.695
28651SOL    HW187792   1.267  12.436   5.717
28651SOL    HW287793   1.369  12.530   5.777
28652SOL     OW87794   3.507   8.068  13.443
28652SOL    HW187795   3.468   8.149  13.473
28652SOL    HW287796   3.469   8.000  13.499
28653SOL     OW87797  12.423   9.650  10.552
28653SOL    HW187798  12.499   9.613  10.596
28653SOL    HW287799  12.354   9.585  10.566
28654SOL     OW87800  13.130   9.830  13.520
28654SOL    HW187801  13.196   9.897  13.536
28654SOL    HW287802  13.142   9.766  13.590
28655SOL     OW87803  10.571  12.761   2.371
28655SOL    HW187804  10.594  12.843   2.415
28655SOL    HW287805  10.638  12.751   2.304
28656SOL     OW87806   8.094  13.885   0.052
28656SOL    HW187807   8.151  13.808   0.040
28656SOL    HW287808   8.015  13.850   0.093
28657SOL     OW87809   4.478   9.560   2.501
28657SOL    HW187810   4.439   9.562   2.413
28657SOL    HW287811   4.405   9.540   2.559
28658SOL     OW87812   9.970   5.680   8.292
28658SOL    HW187813  10.042   5.740   8.273
28658SOL    HW287814   9.967   5.620   8.218
28659SOL     OW87815  10.253   2.985  11.427
28659SOL    HW187816  10.241   3.075  11.460
28659SOL    HW287817  10.257   2.931  11.506
28660SOL     OW87818  14.476   0.513   4.861
28660SOL    HW187819  14.532   0.436   4.853
28660SOL    HW287820  14.531   0.579   4.902
28661SOL     OW87821   7.107   6.893  11.109
28661SOL    HW187822   7.022   6.870  11.072
28661SOL    HW287823   7.148   6.951  11.044
28662SOL     OW87824  10.165   0.254  13.904
28662SOL    HW187825  10.171   0.347  13.883
28662SOL    HW287826  10.255   0.228  13.925
28663SOL     OW87827  13.121  13.737   3.672
28663SOL    HW187828  13.047  13.793   3.694
28663SOL    HW287829  13.083  13.668   3.617
28664SOL     OW87830   4.546   5.660  12.442
28664SOL    HW187831   4.508   5.744  12.416
28664SOL    HW287832   4.590   5.678  12.525
28665SOL     OW87833  13.490   9.496   5.162
28665SOL    HW187834  13.429   9.442   5.212
28665SOL    HW287835  13.541   9.433   5.110
28666SOL     OW87836   8.493   6.634   7.090
28666SOL    HW187837   8.421   6.697   7.086
28666SOL    HW287838   8.461   6.564   7.147
28667SOL     OW87839  14.020  14.241   1.035
28667SOL    HW187840  14.041  14.334   1.038
28667SOL    HW287841  14.060  14.205   1.114
28668SOL     OW87842  10.176  11.167   9.815
28668SOL    HW187843  10.138  11.253   9.831
28668SOL    HW287844  10.167  11.120   9.898
28669SOL     OW87845   9.902  13.884   6.933
28669SOL    HW187846   9.842  13.952   6.964
28669SOL    HW287847   9.988  13.912   6.965
28670SOL     OW87848   1.750   5.179   4.878
28670SOL    HW187849   1.787   5.260   4.843
28670SOL    HW287850   1.815   5.148   4.941
28671SOL     OW87851   6.949  10.311   8.068
28671SOL    HW187852   6.898  10.309   7.987
28671SOL    HW287853   7.032  10.269   8.046
28672SOL     OW87854  10.492   9.030  11.549
28672SOL    HW187855  10.409   8.989  11.524
28672SOL    HW287856  10.535   8.964  11.604
28673SOL     OW87857   0.272   2.471   7.159
28673SOL    HW187858   0.177   2.462   7.147
28673SOL    HW287859   0.308   2.462   7.071
28674SOL     OW87860   7.727   8.365   0.899
28674SOL    HW187861   7.632   8.377   0.907
28674SOL    HW287862   7.754   8.336   0.986
28675SOL     OW87863   9.088  14.360  12.436
28675SOL    HW187864   9.150  14.421  12.477
28675SOL    HW287865   9.052  14.408  12.362
28676SOL     OW87866   1.825   5.175   9.758
28676SOL    HW187867   1.829   5.256   9.707
28676SOL    HW287868   1.808   5.107   9.694
28677SOL     OW87869   2.725   4.401  12.586
28677SOL    HW187870   2.798   4.374  12.530
28677SOL    HW287871   2.681   4.470  12.538
28678SOL     OW87872  14.435   6.682  14.794
28678SOL    HW187873  14.342   6.701  14.777
28678SOL    HW287874  14.435   6.641  14.881
28679SOL     OW87875   1.554   0.961   3.715
28679SOL    HW187876   1.509   0.939   3.797
28679SOL    HW287877   1.630   1.012   3.743
28680SOL     OW87878   3.434   0.458   1.533
28680SOL    HW187879   3.499   0.498   1.475
28680SOL    HW287880   3.355   0.453   1.480
28681SOL     OW87881   7.950   4.933   5.894
28681SOL    HW187882   8.034   4.902   5.926
28681SOL    HW287883   7.950   4.913   5.801
28682SOL     OW87884  11.143  11.513  12.575
28682SOL    HW187885  11.214  11.483  12.518
28682SOL    HW287886  11.183  11.514  12.663
28683SOL     OW87887   1.258   1.237  10.306
28683SOL    HW187888   1.207   1.294  10.250
28683SOL    HW287889   1.218   1.245  10.392
28684SOL     OW87890   4.438  10.097  14.060
28684SOL    HW187891   4.404  10.036  13.995
28684SOL    HW287892   4.360  10.127  14.107
28685SOL     OW87893   6.448   3.614   4.941
28685SOL    HW187894   6.385   3.681   4.968
28685SOL    HW287895   6.463   3.563   5.020
28686SOL     OW87896   3.950   0.458   6.886
28686SOL    HW187897   3.948   0.377   6.936
28686SOL    HW287898   3.972   0.526   6.950
28687SOL     OW87899  13.851  12.580   6.106
28687SOL    HW187900  13.875  12.620   6.022
28687SOL    HW287901  13.769  12.535   6.089
28688SOL     OW87902   4.612   3.901  11.829
28688SOL    HW187903   4.695   3.947  11.821
28688SOL    HW287904   4.552   3.966  11.866
28689SOL     OW87905   9.485   2.064  10.765
28689SOL    HW187906   9.393   2.039  10.763
28689SOL    HW287907   9.524   2.019  10.690
28690SOL     OW87908   1.643   1.830   4.674
28690SOL    HW187909   1.596   1.869   4.600
28690SOL    HW287910   1.585   1.845   4.749
28691SOL     OW87911   9.526   0.102  10.478
28691SOL    HW187912   9.439   0.141  10.474
28691SOL    HW287913   9.545   0.076  10.388
28692SOL     OW87914  11.718   7.757   5.520
28692SOL    HW187915  11.771   7.687   5.558
28692SOL    HW287916  11.770   7.836   5.530
28693SOL     OW87917   3.401   0.871   6.646
28693SOL    HW187918   3.384   0.812   6.573
28693SOL    HW287919   3.383   0.819   6.724
28694SOL     OW87920   4.261   8.275   2.472
28694SOL    HW187921   4.197   8.222   2.425
28694SOL    HW287922   4.292   8.219   2.543
28695SOL     OW87923  12.084   6.199  10.452
28695SOL    HW187924  12.132   6.200  10.370
28695SOL    HW287925  12.123   6.127  10.502
28696SOL     OW87926   7.869   8.309  14.577
28696SOL    HW187927   7.862   8.219  14.545
28696SOL    HW287928   7.805   8.314  14.648
28697SOL     OW87929   4.495  10.747  10.907
28697SOL    HW187930   4.446  10.829  10.918
28697SOL    HW287931   4.491  10.706  10.993
28698SOL     OW87932   3.126   1.424   3.104
28698SOL    HW187933   3.145   1.444   3.195
28698SOL    HW287934   3.043   1.376   3.107
28699SOL     OW87935   8.661   4.879  13.387
28699SOL    HW187936   8.642   4.841  13.302
28699SOL    HW287937   8.711   4.811  13.434
28700SOL     OW87938   9.309   6.048  12.530
28700SOL    HW187939   9.319   5.973  12.471
28700SOL    HW287940   9.265   6.013  12.607
28701SOL     OW87941   7.529   3.126  10.800
28701SOL    HW187942   7.617   3.127  10.837
28701SOL    HW287943   7.504   3.218  10.795
28702SOL     OW87944   6.584   0.776  10.818
28702SOL    HW187945   6.528   0.703  10.845
28702SOL    HW287946   6.524   0.849  10.802
28703SOL     OW87947   4.345  11.140   8.051
28703SOL    HW187948   4.430  11.179   8.032
28703SOL    HW287949   4.323  11.170   8.139
28704SOL     OW87950   6.979  12.409   6.187
28704SOL    HW187951   7.023  12.470   6.246
28704SOL    HW287952   6.897  12.453   6.165
28705SOL     OW87953   4.442   0.265   3.313
28705SOL    HW187954   4.354   0.242   3.285
28705SOL    HW287955   4.431   0.344   3.366
28706SOL     OW87956   9.077  10.998   2.299
28706SOL    HW187957   9.167  10.991   2.331
28706SOL    HW287958   9.079  11.068   2.235
28707SOL     OW87959  14.514   8.564  10.221
28707SOL    HW187960  14.450   8.627  10.255
28707SOL    HW287961  14.577   8.618  10.172
28708SOL     OW87962  14.460  12.416  12.096
28708SOL    HW187963  14.452  12.334  12.145
28708SOL    HW287964  14.412  12.480  12.148
28709SOL     OW87965   2.713   2.813  11.781
28709SOL    HW187966   2.801   2.806  11.743
28709SOL    HW287967   2.655   2.782  11.712
28710SOL     OW87968  14.121   4.800   0.329
28710SOL    HW187969  14.174   4.762   0.398
28710SOL    HW287970  14.095   4.886   0.362
28711SOL     OW87971   5.929   7.177   8.974
28711SOL    HW187972   5.963   7.138   8.894
28711SOL    HW287973   5.909   7.267   8.951
28712SOL     OW87974   2.395   5.774  13.834
28712SOL    HW187975   2.490   5.786  13.830
28712SOL    HW287976   2.381   5.715  13.908
28713SOL     OW87977   4.981   9.945   1.847
28713SOL    HW187978   4.894   9.953   1.809
28713SOL    HW287979   5.033  10.013   1.804
28714SOL     OW87980   1.530  13.340   1.740
28714SOL    HW187981   1.556  13.283   1.812
28714SOL    HW287982   1.535  13.284   1.662
28715SOL     OW87983  11.720  14.123   5.031
28715SOL    HW187984  11.737  14.053   4.968
28715SOL    HW287985  11.806  14.158   5.052
28716SOL     OW87986   3.659  14.237  13.436
28716SOL    HW187987   3.572  14.210  13.407
28716SOL    HW287988   3.666  14.203  13.525
28717SOL     OW87989   1.993  11.884  13.104
28717SOL    HW187990   2.008  11.978  13.103
28717SOL    HW287991   1.998  11.859  13.196
28718SOL     OW87992  12.441   0.112   1.474
28718SOL    HW187993  12.451   0.116   1.379
28718SOL    HW287994  12.452   0.202   1.503
28719SOL     OW87995   0.205   5.402   2.579
28719SOL    HW187996   0.184   5.445   2.662
28719SOL    HW287997   0.173   5.462   2.512
28720SOL     OW87998  12.768  13.471   9.701
28720SOL    HW187999  12.764  13.462   9.606
28720SOL    HW288000  12.769  13.566   9.716
28721SOL     OW88001   0.562   1.463  12.562
28721SOL    HW188002   0.499   1.400  12.598
28721SOL    HW288003   0.542   1.545  12.608
28722SOL     OW88004   3.776   1.059  13.783
28722SOL    HW188005   3.819   1.051  13.868
28722SOL    HW288006   3.846   1.088  13.724
28723SOL     OW88007  14.189   9.459   8.098
28723SOL    HW188008  14.252   9.443   8.168
28723SOL    HW288009  14.192   9.554   8.085
28724SOL     OW88010   1.120  11.368   2.458
28724SOL    HW188011   1.176  11.442   2.479
28724SOL    HW288012   1.035  11.406   2.438
28725SOL     OW88013  12.940  14.505   2.839
28725SOL    HW188014  13.024  14.535   2.804
28725SOL    HW288015  12.955  14.413   2.860
28726SOL     OW88016  12.135   2.764  12.180
28726SOL    HW188017  12.067   2.720  12.129
28726SOL    HW288018  12.213   2.761  12.124
28727SOL     OW88019  13.037   6.515   5.283
28727SOL    HW188020  13.047   6.522   5.188
28727SOL    HW288021  12.955   6.468   5.295
28728SOL     OW88022   7.009  12.536   3.251
28728SOL    HW188023   7.025  12.546   3.345
28728SOL    HW288024   6.959  12.614   3.227
28729SOL     OW88025  13.702   3.138   5.815
28729SOL    HW188026  13.653   3.178   5.887
28729SOL    HW288027  13.636   3.091   5.765
28730SOL     OW88028   2.336   0.052   2.742
28730SOL    HW188029   2.406   0.071   2.805
28730SOL    HW288030   2.274  14.880   2.791
28731SOL     OW88031   9.336   8.169  10.723
28731SOL    HW188032   9.418   8.122  10.734
28731SOL    HW288033   9.362   8.257  10.697
28732SOL     OW88034   5.120   2.511   8.500
28732SOL    HW188035   5.215   2.502   8.509
28732SOL    HW288036   5.089   2.523   8.589
28733SOL     OW88037  10.654  11.167   6.420
28733SOL    HW188038  10.698  11.224   6.357
28733SOL    HW288039  10.574  11.139   6.375
28734SOL     OW88040   1.902  10.052   7.077
28734SOL    HW188041   1.842  10.007   7.138
28734SOL    HW288042   1.857  10.049   6.993
28735SOL     OW88043   3.522  12.361   0.849
28735SOL    HW188044   3.585  12.289   0.835
28735SOL    HW288045   3.466  12.359   0.771
28736SOL     OW88046   4.257  12.426   5.073
28736SOL    HW188047   4.227  12.340   5.101
28736SOL    HW288048   4.350  12.427   5.096
28737SOL     OW88049  11.816   0.024   4.398
28737SOL    HW188050  11.854   0.002   4.483
28737SOL    HW288051  11.880  14.875   4.334
28738SOL     OW88052  11.104   7.653  12.913
28738SOL    HW188053  11.177   7.601  12.947
28738SOL    HW288054  11.145   7.733  12.881
28739SOL     OW88055   0.142   2.534   3.413
28739SOL    HW188056   0.077   2.602   3.431
28739SOL    HW288057   0.207   2.576   3.357
28740SOL     OW88058  11.318  13.036   6.127
28740SOL    HW188059  11.377  13.090   6.179
28740SOL    HW288060  11.362  12.952   6.118
28741SOL     OW88061  14.355  13.455  10.451
28741SOL    HW188062  14.370  13.508  10.529
28741SOL    HW288063  14.442  13.426  10.424
28742SOL     OW88064   9.076  10.046  11.134
28742SOL    HW188065   9.001   9.988  11.139
28742SOL    HW288066   9.068  10.089  11.048
28743SOL     OW88067   8.373   0.853  10.743
28743SOL    HW188068   8.326   0.934  10.722
28743SOL    HW288069   8.463   0.870  10.713
28744SOL     OW88070  11.018   4.703   2.581
28744SOL    HW188071  10.998   4.623   2.532
28744SOL    HW288072  10.936   4.727   2.623
28745SOL     OW88073  12.058   4.753   6.617
28745SOL    HW188074  12.085   4.774   6.528
28745SOL    HW288075  12.098   4.668   6.635
28746SOL     OW88076  11.715   5.190   8.904
28746SOL    HW188077  11.765   5.149   8.833
28746SOL    HW288078  11.626   5.158   8.892
28747SOL     OW88079   0.390   0.190   9.129
28747SOL    HW188080   0.392   0.269   9.183
28747SOL    HW288081   0.297   0.167   9.124
28748SOL     OW88082  12.132   7.627  11.413
28748SOL    HW188083  12.072   7.630  11.488
28748SOL    HW288084  12.089   7.569  11.350
28749SOL     OW88085   5.213   3.899  13.979
28749SOL    HW188086   5.268   3.959  13.929
28749SOL    HW288087   5.135   3.949  13.999
28750SOL     OW88088  11.504  11.873   6.363
28750SOL    HW188089  11.577  11.812   6.355
28750SOL    HW288090  11.515  11.911   6.451
28751SOL     OW88091   8.465   0.637   2.621
28751SOL    HW188092   8.492   0.651   2.530
28751SOL    HW288093   8.454   0.725   2.656
28752SOL     OW88094  13.640  10.994   2.637
28752SOL    HW188095  13.611  10.903   2.630
28752SOL    HW288096  13.561  11.046   2.619
28753SOL     OW88097  11.227   7.287   0.870
28753SOL    HW188098  11.154   7.332   0.914
28753SOL    HW288099  11.233   7.330   0.785
28754SOL     OW88100  13.927   9.041   2.822
28754SOL    HW188101  14.010   9.081   2.847
28754SOL    HW288102  13.927   9.041   2.727
28755SOL     OW88103  11.689   0.507   7.829
28755SOL    HW188104  11.753   0.538   7.764
28755SOL    HW288105  11.742   0.475   7.902
28756SOL     OW88106   4.879  13.381   1.538
28756SOL    HW188107   4.806  13.395   1.478
28756SOL    HW288108   4.838  13.353   1.620
28757SOL     OW88109  12.769  10.065   5.299
28757SOL    HW188110  12.735  10.059   5.388
28757SOL    HW288111  12.735   9.987   5.255
28758SOL     OW88112   7.715   4.658   8.357
28758SOL    HW188113   7.620   4.665   8.361
28758SOL    HW288114   7.732   4.607   8.277
28759SOL     OW88115  12.316  10.903   6.740
28759SOL    HW188116  12.396  10.850   6.749
28759SOL    HW288117  12.301  10.940   6.827
28760SOL     OW88118  14.834   6.946  14.833
28760SOL    HW188119  14.746   6.983  14.824
28760SOL    HW288120   0.010   7.021  14.837
28761SOL     OW88121  11.303   1.511  12.355
28761SOL    HW188122  11.208   1.519  12.343
28761SOL    HW288123  11.325   1.582  12.416
28762SOL     OW88124   6.072  13.516   0.921
28762SOL    HW188125   6.133  13.553   0.984
28762SOL    HW288126   6.065  13.424   0.946
28763SOL     OW88127   1.937   3.677   2.454
28763SOL    HW188128   1.992   3.607   2.487
28763SOL    HW288129   1.991   3.756   2.462
28764SOL     OW88130  10.965   5.917  11.743
28764SOL    HW188131  10.886   5.871  11.713
28764SOL    HW288132  10.935   6.006  11.761
28765SOL     OW88133  12.064   4.911  11.454
28765SOL    HW188134  12.031   4.903  11.364
28765SOL    HW288135  12.145   4.960  11.445
28766SOL     OW88136   1.828   3.292  10.698
28766SOL    HW188137   1.875   3.353  10.754
28766SOL    HW288138   1.748   3.339  10.673
28767SOL     OW88139   7.665   6.171   9.296
28767SOL    HW188140   7.681   6.096   9.354
28767SOL    HW288141   7.602   6.225   9.344
28768SOL     OW88142   1.173   0.372   5.340
28768SOL    HW188143   1.248   0.346   5.394
28768SOL    HW288144   1.107   0.305   5.356
28769SOL     OW88145   0.779   1.328   6.329
28769SOL    HW188146   0.751   1.304   6.418
28769SOL    HW288147   0.804   1.420   6.336
28770SOL     OW88148  14.245   3.617   6.498
28770SOL    HW188149  14.218   3.531   6.529
28770SOL    HW288150  14.235   3.674   6.573
28771SOL     OW88151  12.447  10.067   8.747
28771SOL    HW188152  12.384  10.011   8.702
28771SOL    HW288153  12.419  10.067   8.838
28772SOL     OW88154   1.796   6.353   2.462
28772SOL    HW188155   1.786   6.447   2.475
28772SOL    HW288156   1.720   6.313   2.505
28773SOL     OW88157   4.371   4.698   8.223
28773SOL    HW188158   4.363   4.676   8.131
28773SOL    HW288159   4.282   4.722   8.249
28774SOL     OW88160   9.204  11.997  12.265
28774SOL    HW188161   9.240  11.923  12.313
28774SOL    HW288162   9.134  12.031  12.321
28775SOL     OW88163  13.693   0.684  11.659
28775SOL    HW188164  13.649   0.627  11.722
28775SOL    HW288165  13.747   0.743  11.713
28776SOL     OW88166  12.901   0.039  14.396
28776SOL    HW188167  12.944   0.109  14.445
28776SOL    HW288168  12.807   0.052  14.412
28777SOL     OW88169   7.943   5.017  14.168
28777SOL    HW188170   7.998   4.987  14.241
28777SOL    HW288171   7.857   4.978  14.185
28778SOL     OW88172   0.730   6.195  10.023
28778SOL    HW188173   0.754   6.113   9.979
28778SOL    HW288174   0.744   6.262   9.957
28779SOL     OW88175   3.531   8.339   5.769
28779SOL    HW188176   3.450   8.305   5.807
28779SOL    HW288177   3.507   8.361   5.679
28780SOL     OW88178   1.495   8.173  12.763
28780SOL    HW188179   1.493   8.125  12.846
28780SOL    HW288180   1.435   8.246  12.776
28781SOL     OW88181   1.400  12.346   5.458
28781SOL    HW188182   1.431  12.414   5.399
28781SOL    HW288183   1.382  12.392   5.540
28782SOL     OW88184  14.745   1.219   8.343
28782SOL    HW188185  14.752   1.175   8.428
28782SOL    HW288186  14.815   1.285   8.344
28783SOL     OW88187  11.318   1.277   4.514
28783SOL    HW188188  11.283   1.364   4.529
28783SOL    HW288189  11.298   1.229   4.595
28784SOL     OW88190   3.118  10.058   0.367
28784SOL    HW188191   3.161  10.045   0.451
28784SOL    HW288192   3.189  10.053   0.302
28785SOL     OW88193   6.272   3.046   2.719
28785SOL    HW188194   6.286   3.072   2.628
28785SOL    HW288195   6.182   3.012   2.721
28786SOL     OW88196   3.027   6.472   7.446
28786SOL    HW188197   2.980   6.427   7.516
28786SOL    HW288198   3.017   6.415   7.370
28787SOL     OW88199   8.315   1.665   6.477
28787SOL    HW188200   8.310   1.652   6.382
28787SOL    HW288201   8.380   1.600   6.507
28788SOL     OW88202   8.768   9.677  13.056
28788SOL    HW188203   8.827   9.726  13.114
28788SOL    HW288204   8.783   9.715  12.970
28789SOL     OW88205  14.455   0.668  12.420
28789SOL    HW188206  14.484   0.720  12.345
28789SOL    HW288207  14.535   0.647  12.467
28790SOL     OW88208   1.121   4.996   6.018
28790SOL    HW188209   1.093   4.904   6.019
28790SOL    HW288210   1.040   5.045   6.003
28791SOL     OW88211   6.833   9.862   3.578
28791SOL    HW188212   6.879   9.945   3.568
28791SOL    HW288213   6.743   9.886   3.597
28792SOL     OW88214   1.513   4.711  14.079
28792SOL    HW188215   1.429   4.692  14.038
28792SOL    HW288216   1.555   4.775  14.021
28793SOL     OW88217   5.564   8.469   0.423
28793SOL    HW188218   5.531   8.448   0.336
28793SOL    HW288219   5.582   8.384   0.463
28794SOL     OW88220  12.689  10.334   6.179
28794SOL    HW188221  12.740  10.255   6.199
28794SOL    HW288222  12.598  10.302   6.174
28795SOL     OW88223   3.798   5.361   3.183
28795SOL    HW188224   3.790   5.286   3.243
28795SOL    HW288225   3.885   5.397   3.201
28796SOL     OW88226   6.190   8.715  13.662
28796SOL    HW188227   6.133   8.645  13.695
28796SOL    HW288228   6.232   8.750  13.740
28797SOL     OW88229   1.376   8.438  10.005
28797SOL    HW188230   1.334   8.357   9.978
28797SOL    HW288231   1.318   8.474  10.073
28798SOL     OW88232  12.183  14.554   0.789
28798SOL    HW188233  12.162  14.581   0.878
28798SOL    HW288234  12.161  14.461   0.786
28799SOL     OW88235  10.779  13.576  13.524
28799SOL    HW188236  10.846  13.571  13.455
28799SOL    HW288237  10.697  13.553  13.480
28800SOL     OW88238  12.733  13.081   4.518
28800SOL    HW188239  12.804  13.066   4.456
28800SOL    HW288240  12.765  13.045   4.600
28801SOL     OW88241   4.051   5.230  12.245
28801SOL    HW188242   4.029   5.139  12.224
28801SOL    HW288243   4.147   5.232  12.244
28802SOL     OW88244  12.553   9.956   3.224
28802SOL    HW188245  12.557   9.911   3.308
28802SOL    HW288246  12.462   9.985   3.217
28803SOL     OW88247   6.378   5.759  11.790
28803SOL    HW188248   6.408   5.689  11.733
28803SOL    HW288249   6.310   5.804  11.739
28804SOL     OW88250   0.338  11.516  14.802
28804SOL    HW188251   0.405  11.486  14.863
28804SOL    HW288252   0.367  11.604  14.776
28805SOL     OW88253   7.373   0.389   0.160
28805SOL    HW188254   7.296   0.359   0.111
28805SOL    HW288255   7.402   0.467   0.114
28806SOL     OW88256  11.089  13.018   6.811
28806SOL    HW188257  11.153  12.969   6.863
28806SOL    HW288258  11.066  13.092   6.867
28807SOL     OW88259   5.627  12.716  13.742
28807SOL    HW188260   5.573  12.704  13.663
28807SOL    HW288261   5.717  12.708  13.711
28808SOL     OW88262  11.170   8.560   3.387
28808SOL    HW188263  11.264   8.574   3.384
28808SOL    HW288264  11.159   8.465   3.388
28809SOL     OW88265  11.531  12.830   7.311
28809SOL    HW188266  11.626  12.830   7.296
28809SOL    HW288267  11.503  12.920   7.297
28810SOL     OW88268   3.287   0.351   1.754
28810SOL    HW188269   3.330   0.270   1.778
28810SOL    HW288270   3.337   0.384   1.679
28811SOL     OW88271  13.635   1.023  10.233
28811SOL    HW188272  13.548   1.014  10.194
28811SOL    HW288273  13.634   0.965  10.308
28812SOL     OW88274   7.511   7.311  10.537
28812SOL    HW188275   7.499   7.401  10.567
28812SOL    HW288276   7.432   7.266  10.566
28813SOL     OW88277   3.520   4.563  14.555
28813SOL    HW188278   3.510   4.658  14.544
28813SOL    HW288279   3.443   4.536  14.603
28814SOL     OW88280   6.232   7.505  13.016
28814SOL    HW188281   6.273   7.556  12.946
28814SOL    HW288282   6.301   7.446  13.047
28815SOL     OW88283  12.376   6.603   9.088
28815SOL    HW188284  12.323   6.673   9.051
28815SOL    HW288285  12.408   6.637   9.171
28816SOL     OW88286   6.104   3.279  12.418
28816SOL    HW188287   6.129   3.216  12.351
28816SOL    HW288288   6.022   3.317  12.386
28817SOL     OW88289   7.215   7.229   7.780
28817SOL    HW188290   7.309   7.216   7.772
28817SOL    HW288291   7.199   7.315   7.741
28818SOL     OW88292   1.688  10.694  14.784
28818SOL    HW188293   1.654  10.681  14.872
28818SOL    HW288294   1.612  10.724  14.733
28819SOL     OW88295   9.425   1.159   1.925
28819SOL    HW188296   9.394   1.134   2.012
28819SOL    HW288297   9.355   1.132   1.866
28820SOL     OW88298   1.030   3.187  11.783
28820SOL    HW188299   1.058   3.237  11.706
28820SOL    HW288300   0.943   3.222  11.804
28821SOL     OW88301  10.510   8.747  11.166
28821SOL    HW188302  10.549   8.813  11.109
28821SOL    HW288303  10.523   8.665  11.118
28822SOL     OW88304   7.184   8.799   5.363
28822SOL    HW188305   7.090   8.793   5.348
28822SOL    HW288306   7.194   8.783   5.457
28823SOL     OW88307   2.476   1.306   3.276
28823SOL    HW188308   2.539   1.332   3.208
28823SOL    HW288309   2.412   1.376   3.278
28824SOL     OW88310  11.599   3.954   5.711
28824SOL    HW188311  11.672   3.893   5.698
28824SOL    HW288312  11.527   3.917   5.659
28825SOL     OW88313   8.759   4.119   9.257
28825SOL    HW188314   8.839   4.157   9.293
28825SOL    HW288315   8.737   4.176   9.183
28826SOL     OW88316  11.553   2.368   9.676
28826SOL    HW188317  11.459   2.354   9.661
28826SOL    HW288318  11.579   2.296   9.734
28827SOL     OW88319   6.712   0.402  12.029
28827SOL    HW188320   6.753   0.317  12.013
28827SOL    HW288321   6.667   0.423  11.948
28828SOL     OW88322   0.217   7.470   2.628
28828SOL    HW188323   0.124   7.483   2.646
28828SOL    HW288324   0.253   7.559   2.623
28829SOL     OW88325   8.230   5.328   3.280
28829SOL    HW188326   8.184   5.319   3.363
28829SOL    HW288327   8.313   5.281   3.293
28830SOL     OW88328  14.460   6.146  14.789
28830SOL    HW188329  14.470   6.070  14.732
28830SOL    HW288330  14.511   6.215  14.746
28831SOL     OW88331   9.218   1.532  12.295
28831SOL    HW188332   9.236   1.597  12.362
28831SOL    HW288333   9.247   1.573  12.213
28832SOL     OW88334  10.119   9.899   7.165
28832SOL    HW188335  10.214   9.914   7.160
28832SOL    HW288336  10.109   9.805   7.150
28833SOL     OW88337  12.758   1.450   6.545
28833SOL    HW188338  12.839   1.402   6.559
28833SOL    HW288339  12.774   1.537   6.581
28834SOL     OW88340   7.887   5.530  13.878
28834SOL    HW188341   7.903   5.438  13.897
28834SOL    HW288342   7.795   5.544  13.899
28835SOL     OW88343   9.251   0.696   9.106
28835SOL    HW188344   9.242   0.678   9.013
28835SOL    HW288345   9.276   0.612   9.145
28836SOL     OW88346  14.233   8.097  13.911
28836SOL    HW188347  14.320   8.063  13.929
28836SOL    HW288348  14.235   8.188  13.939
28837SOL     OW88349   0.705  13.031   5.367
28837SOL    HW188350   0.665  13.101   5.315
28837SOL    HW288351   0.774  13.075   5.418
28838SOL     OW88352  11.038   9.535  11.544
28838SOL    HW188353  11.111   9.486  11.583
28838SOL    HW288354  10.964   9.473  11.546
28839SOL     OW88355   8.114  12.428   2.422
28839SOL    HW188356   8.096  12.516   2.389
28839SOL    HW288357   8.209  12.427   2.436
28840SOL     OW88358  13.104   8.767  14.576
28840SOL    HW188359  13.094   8.726  14.662
28840SOL    HW288360  13.192   8.803  14.576
28841SOL     OW88361  11.874   1.651   8.597
28841SOL    HW188362  11.904   1.631   8.685
28841SOL    HW288363  11.779   1.644   8.602
28842SOL     OW88364  10.059   3.981   7.546
28842SOL    HW188365  10.106   3.916   7.598
28842SOL    HW288366  10.048   3.940   7.460
28843SOL     OW88367   9.586   3.481   4.293
28843SOL    HW188368   9.676   3.452   4.277
28843SOL    HW288369   9.551   3.498   4.206
28844SOL     OW88370   0.517   9.150   4.801
28844SOL    HW188371   0.546   9.132   4.712
28844SOL    HW288372   0.597   9.176   4.847
28845SOL     OW88373   9.035  12.084   3.450
28845SOL    HW188374   8.953  12.084   3.500
28845SOL    HW288375   9.080  12.005   3.478
28846SOL     OW88376   8.672   5.100   3.007
28846SOL    HW188377   8.681   5.107   3.102
28846SOL    HW288378   8.665   5.190   2.977
28847SOL     OW88379   8.231  12.342  10.315
28847SOL    HW188380   8.230  12.404  10.387
28847SOL    HW288381   8.144  12.303  10.314
28848SOL     OW88382  10.961   9.848  14.742
28848SOL    HW188383  10.875   9.883  14.765
28848SOL    HW288384  11.017   9.925  14.731
28849SOL     OW88385   3.412   2.045   4.332
28849SOL    HW188386   3.437   1.981   4.265
28849SOL    HW288387   3.342   2.002   4.382
28850SOL     OW88388   6.234   1.313   7.379
28850SOL    HW188389   6.215   1.322   7.285
28850SOL    HW288390   6.311   1.256   7.383
28851SOL     OW88391  12.865   3.904  12.468
28851SOL    HW188392  12.958   3.885  12.462
28851SOL    HW288393  12.827   3.826  12.509
28852SOL     OW88394   4.975   3.250  12.260
28852SOL    HW188395   4.994   3.162  12.293
28852SOL    HW288396   5.024   3.308  12.318
28853SOL     OW88397   5.668   2.742   0.990
28853SOL    HW188398   5.639   2.810   0.930
28853SOL    HW288399   5.657   2.661   0.942
28854SOL     OW88400  13.802  10.704  12.930
28854SOL    HW188401  13.874  10.759  12.961
28854SOL    HW288402  13.767  10.664  13.009
28855SOL     OW88403   1.052  10.506   6.004
28855SOL    HW188404   1.061  10.596   6.034
28855SOL    HW288405   0.999  10.512   5.924
28856SOL     OW88406   0.838   6.768   9.179
28856SOL    HW188407   0.805   6.774   9.269
28856SOL    HW288408   0.802   6.685   9.147
28857SOL     OW88409   2.715   3.500  13.960
28857SOL    HW188410   2.743   3.437  13.894
28857SOL    HW288411   2.792   3.512  14.016
28858SOL     OW88412   8.070   8.315  13.312
28858SOL    HW188413   8.100   8.348  13.397
28858SOL    HW288414   8.019   8.237  13.334
28859SOL     OW88415  11.330  14.313  11.029
28859SOL    HW188416  11.260  14.251  11.009
28859SOL    HW288417  11.348  14.299  11.122
28860SOL     OW88418   2.896   5.394   0.664
28860SOL    HW188419   2.982   5.436   0.656
28860SOL    HW288420   2.833   5.465   0.657
28861SOL     OW88421   1.013  12.354  14.666
28861SOL    HW188422   1.083  12.402  14.711
28861SOL    HW288423   0.981  12.414  14.600
28862SOL     OW88424   6.924   6.625   4.062
28862SOL    HW188425   6.853   6.679   4.096
28862SOL    HW288426   7.000   6.649   4.114
28863SOL     OW88427   0.381  11.145   1.890
28863SOL    HW188428   0.433  11.225   1.899
28863SOL    HW288429   0.424  11.082   1.948
28864SOL     OW88430   4.958   2.897  10.699
28864SOL    HW188431   5.032   2.906  10.639
28864SOL    HW288432   4.899   2.969  10.677
28865SOL     OW88433   1.907   7.765  10.533
28865SOL    HW188434   1.920   7.857  10.510
28865SOL    HW288435   1.993   7.735  10.562
28866SOL     OW88436   9.565   0.026   5.466
28866SOL    HW188437   9.567  14.867   5.552
28866SOL    HW288438   9.479   0.067   5.460
28867SOL     OW88439  11.428   5.654   1.109
28867SOL    HW188440  11.392   5.689   1.028
28867SOL    HW288441  11.358   5.668   1.173
28868SOL     OW88442   9.448   4.397   2.674
28868SOL    HW188443   9.538   4.416   2.649
28868SOL    HW288444   9.399   4.475   2.647
28869SOL     OW88445   2.398   6.747   0.161
28869SOL    HW188446   2.328   6.736   0.226
28869SOL    HW288447   2.479   6.743   0.212
28870SOL     OW88448   4.324  10.390   5.457
28870SOL    HW188449   4.284  10.451   5.520
28870SOL    HW288450   4.385  10.444   5.408
28871SOL     OW88451   1.425  11.181  10.076
28871SOL    HW188452   1.422  11.121  10.152
28871SOL    HW288453   1.510  11.163  10.035
28872SOL     OW88454  10.759  14.796   3.703
28872SOL    HW188455  10.825  14.865   3.694
28872SOL    HW288456  10.716  14.793   3.618
28873SOL     OW88457   4.868   0.468  10.065
28873SOL    HW188458   4.956   0.432  10.064
28873SOL    HW288459   4.857   0.503  10.153
28874SOL     OW88460  10.568   1.398   8.271
28874SOL    HW188461  10.607   1.485   8.276
28874SOL    HW288462  10.639   1.339   8.297
28875SOL     OW88463   3.152   9.479   7.234
28875SOL    HW188464   3.078   9.498   7.176
28875SOL    HW288465   3.153   9.383   7.241
28876SOL     OW88466  14.766   6.010   5.671
28876SOL    HW188467  14.706   5.936   5.686
28876SOL    HW288468  14.711   6.087   5.676
28877SOL     OW88469  10.835   2.684  10.926
28877SOL    HW188470  10.801   2.773  10.934
28877SOL    HW288471  10.780   2.643  10.859
28878SOL     OW88472   0.066  10.282   0.928
28878SOL    HW188473   0.096  10.317   0.844
28878SOL    HW288474   0.017  10.354   0.967
28879SOL     OW88475   9.395   4.001  11.649
28879SOL    HW188476   9.440   3.946  11.713
28879SOL    HW288477   9.305   3.970  11.650
28880SOL     OW88478   9.191   2.417   4.502
28880SOL    HW188479   9.217   2.463   4.422
28880SOL    HW288480   9.263   2.357   4.520
28881SOL     OW88481   6.392   6.757  13.148
28881SOL    HW188482   6.405   6.753  13.243
28881SOL    HW288483   6.299   6.776  13.137
28882SOL     OW88484   8.997  11.301   9.520
28882SOL    HW188485   9.030  11.212   9.536
28882SOL    HW288486   8.931  11.289   9.451
28883SOL     OW88487   5.469   9.605   5.426
28883SOL    HW188488   5.402   9.610   5.494
28883SOL    HW288489   5.551   9.594   5.474
28884SOL     OW88490   7.042  10.604   6.142
28884SOL    HW188491   6.974  10.657   6.184
28884SOL    HW288492   6.995  10.557   6.072
28885SOL     OW88493   3.182  11.200  13.481
28885SOL    HW188494   3.221  11.287  13.484
28885SOL    HW288495   3.201  11.168  13.392
28886SOL     OW88496  11.682   7.438  12.313
28886SOL    HW188497  11.748   7.440  12.382
28886SOL    HW288498  11.682   7.348  12.281
28887SOL     OW88499  10.510   9.638  12.791
28887SOL    HW188500  10.577   9.689  12.836
28887SOL    HW288501  10.557   9.592  12.722
28888SOL     OW88502   4.188   2.138  12.912
28888SOL    HW188503   4.192   2.056  12.961
28888SOL    HW288504   4.278   2.170  12.911
28889SOL     OW88505  14.760   2.445   2.664
28889SOL    HW188506  14.714   2.382   2.719
28889SOL    HW288507  14.734   2.530   2.698
28890SOL     OW88508   2.986   2.880  11.665
28890SOL    HW188509   3.073   2.920  11.672
28890SOL    HW288510   2.971   2.873  11.571
28891SOL     OW88511   3.111   5.580   0.892
28891SOL    HW188512   3.058   5.643   0.940
28891SOL    HW288513   3.129   5.510   0.955
28892SOL     OW88514   8.326   7.494   1.426
28892SOL    HW188515   8.389   7.421   1.431
28892SOL    HW288516   8.361   7.559   1.487
28893SOL     OW88517  11.070   1.747   0.430
28893SOL    HW188518  11.123   1.804   0.375
28893SOL    HW288519  11.115   1.662   0.427
28894SOL     OW88520   4.566   9.608   0.997
28894SOL    HW188521   4.642   9.557   0.968
28894SOL    HW288522   4.531   9.648   0.917
28895SOL     OW88523   9.971  11.751   5.416
28895SOL    HW188524  10.024  11.825   5.386
28895SOL    HW288525   9.884  11.788   5.430
28896SOL     OW88526  12.449   3.898   6.720
28896SOL    HW188527  12.358   3.871   6.705
28896SOL    HW288528  12.451   3.923   6.813
28897SOL     OW88529   6.007   5.327  14.484
28897SOL    HW188530   6.081   5.269  14.467
28897SOL    HW288531   5.967   5.292  14.564
28898SOL     OW88532   6.112   5.158   3.231
28898SOL    HW188533   6.203   5.131   3.230
28898SOL    HW288534   6.097   5.190   3.321
28899SOL     OW88535   2.914  10.230   0.297
28899SOL    HW188536   2.960  10.311   0.277
28899SOL    HW288537   2.984  10.168   0.320
28900SOL     OW88538  11.392  10.167   2.507
28900SOL    HW188539  11.413  10.215   2.587
28900SOL    HW288540  11.310  10.206   2.476
28901SOL     OW88541   4.816  10.007  13.365
28901SOL    HW188542   4.849  10.006  13.455
28901SOL    HW288543   4.794  10.099  13.349
28902SOL     OW88544   7.740   9.015   8.537
28902SOL    HW188545   7.782   8.994   8.621
28902SOL    HW288546   7.717   8.930   8.500
28903SOL     OW88547   7.255   9.700  14.204
28903SOL    HW188548   7.312   9.716  14.129
28903SOL    HW288549   7.231   9.787  14.234
28904SOL     OW88550   0.389   5.419   7.059
28904SOL    HW188551   0.402   5.394   6.967
28904SOL    HW288552   0.331   5.352   7.093
28905SOL     OW88553  10.239  12.779  14.416
28905SOL    HW188554  10.249  12.711  14.348
28905SOL    HW288555  10.145  12.788  14.427
28906SOL     OW88556   6.268   6.123  11.640
28906SOL    HW188557   6.333   6.157  11.703
28906SOL    HW288558   6.307   6.140  11.555
28907SOL     OW88559   9.054  13.321   9.429
28907SOL    HW188560   9.003  13.286   9.355
28907SOL    HW288561   9.081  13.243   9.478
28908SOL     OW88562   7.181  12.402   7.728
28908SOL    HW188563   7.131  12.472   7.771
28908SOL    HW288564   7.114  12.338   7.701
28909SOL     OW88565  14.516  11.868   2.102
28909SOL    HW188566  14.468  11.917   2.169
28909SOL    HW288567  14.597  11.919   2.089
28910SOL     OW88568   7.584   4.906  13.653
28910SOL    HW188569   7.508   4.935  13.703
28910SOL    HW288570   7.547   4.867  13.573
28911SOL     OW88571   5.745   5.073  13.415
28911SOL    HW188572   5.731   5.015  13.340
28911SOL    HW288573   5.703   5.155  13.391
28912SOL     OW88574   8.006   5.826  14.207
28912SOL    HW188575   7.914   5.843  14.192
28912SOL    HW288576   8.039   5.906  14.249
28913SOL     OW88577   7.644  12.511   4.853
28913SOL    HW188578   7.590  12.526   4.931
28913SOL    HW288579   7.676  12.598   4.829
28914SOL     OW88580   3.241  14.845   0.524
28914SOL    HW188581   3.208   0.041   0.478
28914SOL    HW288582   3.222  14.862   0.616
28915SOL     OW88583   7.449   7.599  10.590
28915SOL    HW188584   7.465   7.679  10.540
28915SOL    HW288585   7.355   7.583  10.580
28916SOL     OW88586  13.338   1.896   6.924
28916SOL    HW188587  13.313   1.828   6.987
28916SOL    HW288588  13.259   1.911   6.872
28917SOL     OW88589  13.076   5.890   8.255
28917SOL    HW188590  13.048   5.935   8.335
28917SOL    HW288591  13.023   5.929   8.186
28918SOL     OW88592  10.515   9.350   7.706
28918SOL    HW188593  10.467   9.362   7.624
28918SOL    HW288594  10.450   9.365   7.774
28919SOL     OW88595   6.378  10.119  11.640
28919SOL    HW188596   6.430  10.074  11.573
28919SOL    HW288597   6.412  10.208  11.641
28920SOL     OW88598   2.838  13.565  11.276
28920SOL    HW188599   2.925  13.598  11.252
28920SOL    HW288600   2.778  13.608  11.215
28921SOL     OW88601   3.719  13.330   0.855
28921SOL    HW188602   3.717  13.298   0.946
28921SOL    HW288603   3.811  13.344   0.837
28922SOL     OW88604  11.466  13.921   4.774
28922SOL    HW188605  11.437  13.831   4.791
28922SOL    HW288606  11.509  13.916   4.688
28923SOL     OW88607  11.616  12.232  14.464
28923SOL    HW188608  11.711  12.226  14.451
28923SOL    HW288609  11.579  12.213  14.378
28924SOL     OW88610  11.728   5.565  10.250
28924SOL    HW188611  11.727   5.561  10.346
28924SOL    HW288612  11.814   5.603  10.229
28925SOL     OW88613   7.056   7.175   0.127
28925SOL    HW188614   7.143   7.183   0.089
28925SOL    HW288615   7.071   7.174   0.221
28926SOL     OW88616   3.128   4.106   5.531
28926SOL    HW188617   3.111   4.135   5.441
28926SOL    HW288618   3.046   4.122   5.577
28927SOL     OW88619  12.043   4.528   7.641
28927SOL    HW188620  12.038   4.580   7.721
28927SOL    HW288621  11.952   4.507   7.619
28928SOL     OW88622  12.495   1.227   8.093
28928SOL    HW188623  12.452   1.142   8.098
28928SOL    HW288624  12.530   1.231   8.004
28929SOL     OW88625   9.389   8.749   3.315
28929SOL    HW188626   9.353   8.825   3.271
28929SOL    HW288627   9.376   8.767   3.409
28930SOL     OW88628   4.447  12.752   8.174
28930SOL    HW188629   4.432  12.737   8.081
28930SOL    HW288630   4.542  12.759   8.183
28931SOL     OW88631  12.157  12.526   6.729
28931SOL    HW188632  12.180  12.459   6.664
28931SOL    HW288633  12.065  12.511   6.747
28932SOL     OW88634  10.495   4.287   0.389
28932SOL    HW188635  10.447   4.282   0.306
28932SOL    HW288636  10.427   4.305   0.454
28933SOL     OW88637   7.763  11.984   9.269
28933SOL    HW188638   7.820  12.051   9.231
28933SOL    HW288639   7.723  11.940   9.194
28934SOL     OW88640   9.990   3.027   6.887
28934SOL    HW188641  10.027   2.955   6.938
28934SOL    HW288642   9.926   2.986   6.830
28935SOL     OW88643   8.559  14.323  10.677
28935SOL    HW188644   8.489  14.271  10.638
28935SOL    HW288645   8.572  14.396  10.617
28936SOL     OW88646   1.858   1.119  11.757
28936SOL    HW188647   1.767   1.133  11.730
28936SOL    HW288648   1.860   1.149  11.848
28937SOL     OW88649   7.863   1.988  12.405
28937SOL    HW188650   7.902   2.063  12.451
28937SOL    HW288651   7.772   1.987  12.435
28938SOL     OW88652  13.613   7.653   0.372
28938SOL    HW188653  13.597   7.720   0.438
28938SOL    HW288654  13.621   7.702   0.290
28939SOL     OW88655  12.641   6.295  10.490
28939SOL    HW188656  12.554   6.271  10.523
28939SOL    HW288657  12.623   6.339  10.407
28940SOL     OW88658  11.580   7.518   9.591
28940SOL    HW188659  11.598   7.588   9.528
28940SOL    HW288660  11.497   7.480   9.561
28941SOL     OW88661   5.958   1.373  10.275
28941SOL    HW188662   5.883   1.317  10.256
28941SOL    HW288663   6.029   1.313  10.297
28942SOL     OW88664   4.207  10.241   0.342
28942SOL    HW188665   4.179  10.329   0.318
28942SOL    HW288666   4.239  10.203   0.260
28943SOL     OW88667   7.294   9.503   8.951
28943SOL    HW188668   7.292   9.415   8.915
28943SOL    HW288669   7.238   9.554   8.893
28944SOL     OW88670  14.228  11.200   2.650
28944SOL    HW188671  14.302  11.167   2.700
28944SOL    HW288672  14.183  11.261   2.710
28945SOL     OW88673   3.332   2.704  14.245
28945SOL    HW188674   3.424   2.720  14.266
28945SOL    HW288675   3.321   2.740  14.157
28946SOL     OW88676   5.803  10.235   9.195
28946SOL    HW188677   5.790  10.179   9.271
28946SOL    HW288678   5.722  10.229   9.145
28947SOL     OW88679   9.579   5.906  10.228
28947SOL    HW188680   9.529   5.834  10.189
28947SOL    HW288681   9.639   5.933  10.160
28948SOL     OW88682   6.512   0.987   9.936
28948SOL    HW188683   6.496   1.064   9.881
28948SOL    HW288684   6.607   0.981   9.943
28949SOL     OW88685   9.852   5.444   2.697
28949SOL    HW188686   9.945   5.431   2.679
28949SOL    HW288687   9.807   5.411   2.619
28950SOL     OW88688   1.446   4.949   0.778
28950SOL    HW188689   1.530   4.979   0.811
28950SOL    HW288690   1.452   4.963   0.683
28951SOL     OW88691  14.679  13.919  13.084
28951SOL    HW188692  14.732  13.860  13.138
28951SOL    HW288693  14.720  13.915  12.997
28952SOL     OW88694  11.842   5.074  14.867
28952SOL    HW188695  11.820   5.140   0.052
28952SOL    HW288696  11.779   5.088  14.797
28953SOL     OW88697  12.875  11.460   1.953
28953SOL    HW188698  12.825  11.404   2.013
28953SOL    HW288699  12.818  11.471   1.877
28954SOL     OW88700  12.320  12.096   5.795
28954SOL    HW188701  12.283  12.125   5.878
28954SOL    HW288702  12.314  12.173   5.738
28955SOL     OW88703   6.116   6.490  12.014
28955SOL    HW188704   6.172   6.417  12.040
28955SOL    HW288705   6.146   6.512  11.926
28956SOL     OW88706  10.388  13.129   3.020
28956SOL    HW188707  10.399  13.212   2.974
28956SOL    HW288708  10.401  13.151   3.113
28957SOL     OW88709   6.527   8.385   3.651
28957SOL    HW188710   6.491   8.421   3.570
28957SOL    HW288711   6.569   8.460   3.693
28958SOL     OW88712  13.801   4.618  12.251
28958SOL    HW188713  13.817   4.624  12.345
28958SOL    HW288714  13.713   4.583  12.244
28959SOL     OW88715  13.988  10.802   6.486
28959SOL    HW188716  14.009  10.894   6.473
28959SOL    HW288717  14.041  10.776   6.561
28960SOL     OW88718   2.522   3.776  12.629
28960SOL    HW188719   2.587   3.735  12.687
28960SOL    HW288720   2.499   3.858  12.672
28961SOL     OW88721   2.302   2.148  13.603
28961SOL    HW188722   2.258   2.221  13.558
28961SOL    HW288723   2.348   2.189  13.676
28962SOL     OW88724  14.648  10.116   2.061
28962SOL    HW188725  14.680  10.103   2.151
28962SOL    HW288726  14.622  10.208   2.058
28963SOL     OW88727   5.619  12.182  11.760
28963SOL    HW188728   5.691  12.163  11.700
28963SOL    HW288729   5.611  12.103  11.813
28964SOL     OW88730  13.476  11.921   1.510
28964SOL    HW188731  13.393  11.915   1.558
28964SOL    HW288732  13.516  11.835   1.521
28965SOL     OW88733   1.217  13.881  12.501
28965SOL    HW188734   1.195  13.946  12.434
28965SOL    HW288735   1.309  13.899  12.523
28966SOL     OW88736  10.388  12.855   1.927
28966SOL    HW188737  10.380  12.904   2.009
28966SOL    HW288738  10.441  12.912   1.870
28967SOL     OW88739   0.627   6.796   1.044
28967SOL    HW188740   0.565   6.777   1.114
28967SOL    HW288741   0.598   6.879   1.007
28968SOL     OW88742  10.659   9.987   2.716
28968SOL    HW188743  10.572   9.947   2.723
28968SOL    HW288744  10.683  10.008   2.806
28969SOL     OW88745  10.525   3.612   1.288
28969SOL    HW188746  10.474   3.651   1.358
28969SOL    HW288747  10.515   3.672   1.214
28970SOL     OW88748  11.402   9.590   0.933
28970SOL    HW188749  11.417   9.498   0.912
28970SOL    HW288750  11.403   9.634   0.848
28971SOL     OW88751  13.882   5.416   1.380
28971SOL    HW188752  13.910   5.347   1.439
28971SOL    HW288753  13.796   5.443   1.414
28972SOL     OW88754  11.230  13.746   0.658
28972SOL    HW188755  11.314  13.793   0.655
28972SOL    HW288756  11.181  13.778   0.582
28973SOL     OW88757   4.252   1.950   8.137
28973SOL    HW188758   4.225   1.925   8.225
28973SOL    HW288759   4.175   1.992   8.098
28974SOL     OW88760  12.605   0.859   5.145
28974SOL    HW188761  12.664   0.918   5.097
28974SOL    HW288762  12.651   0.842   5.228
28975SOL     OW88763   4.725  13.647   5.589
28975SOL    HW188764   4.646  13.700   5.581
28975SOL    HW288765   4.695  13.564   5.624
28976SOL     OW88766   6.496   8.509   7.482
28976SOL    HW188767   6.529   8.589   7.524
28976SOL    HW288768   6.412   8.492   7.525
28977SOL     OW88769   9.876   2.961   8.335
28977SOL    HW188770   9.913   3.048   8.349
28977SOL    HW288771   9.863   2.955   8.241
28978SOL     OW88772   0.157  11.611   0.460
28978SOL    HW188773   0.139  11.659   0.540
28978SOL    HW288774   0.252  11.597   0.461
28979SOL     OW88775  11.744   7.253  12.046
28979SOL    HW188776  11.651   7.243  12.024
28979SOL    HW288777  11.764   7.179  12.102
28980SOL     OW88778   6.727   2.046   9.238
28980SOL    HW188779   6.771   2.091   9.166
28980SOL    HW288780   6.796   1.993   9.279
28981SOL     OW88781   3.506   0.520   5.454
28981SOL    HW188782   3.506   0.548   5.362
28981SOL    HW288783   3.454   0.439   5.454
28982SOL     OW88784   6.877  14.198   1.768
28982SOL    HW188785   6.828  14.118   1.751
28982SOL    HW288786   6.810  14.267   1.769
28983SOL     OW88787  11.457   6.876   7.287
28983SOL    HW188788  11.520   6.843   7.352
28983SOL    HW288789  11.389   6.918   7.340
28984SOL     OW88790  14.386  13.480   0.407
28984SOL    HW188791  14.336  13.481   0.326
28984SOL    HW288792  14.407  13.572   0.423
28985SOL     OW88793   2.338  14.437  11.917
28985SOL    HW188794   2.248  14.417  11.944
28985SOL    HW288795   2.392  14.403  11.988
28986SOL     OW88796  13.550  14.528   2.586
28986SOL    HW188797  13.579  14.576   2.509
28986SOL    HW288798  13.630  14.489   2.622
28987SOL     OW88799  12.518   5.423  10.099
28987SOL    HW188800  12.441   5.398  10.150
28987SOL    HW288801  12.515   5.366  10.022
28988SOL     OW88802  10.942   2.076  14.687
28988SOL    HW188803  10.847   2.081  14.693
28988SOL    HW288804  10.971   2.167  14.679
28989SOL     OW88805   3.592   1.074   4.008
28989SOL    HW188806   3.646   1.002   4.042
28989SOL    HW288807   3.502   1.047   4.025
28990SOL     OW88808   5.035  12.155   6.829
28990SOL    HW188809   5.104  12.216   6.803
28990SOL    HW288810   4.995  12.196   6.905
28991SOL     OW88811   7.635  11.108   0.924
28991SOL    HW188812   7.666  11.087   1.012
28991SOL    HW288813   7.548  11.146   0.937
28992SOL     OW88814   4.886   6.996  10.965
28992SOL    HW188815   4.896   7.091  10.962
28992SOL    HW288816   4.839   6.980  11.047
28993SOL     OW88817  12.967   0.377  12.889
28993SOL    HW188818  12.945   0.322  12.814
28993SOL    HW288819  13.034   0.327  12.936
28994SOL     OW88820   7.513   8.074  11.715
28994SOL    HW188821   7.525   8.155  11.667
28994SOL    HW288822   7.448   8.096  11.782
28995SOL     OW88823   5.184  14.589   8.504
28995SOL    HW188824   5.148  14.629   8.583
28995SOL    HW288825   5.115  14.531   8.472
28996SOL     OW88826   6.739  14.513  13.571
28996SOL    HW188827   6.685  14.521  13.492
28996SOL    HW288828   6.808  14.579  13.559
28997SOL     OW88829   1.653  13.736  10.323
28997SOL    HW188830   1.576  13.740  10.379
28997SOL    HW288831   1.619  13.736  10.234
28998SOL     OW88832  11.633   2.537   9.246
28998SOL    HW188833  11.580   2.614   9.267
28998SOL    HW288834  11.574   2.463   9.255
28999SOL     OW88835   7.098   4.633   5.575
28999SOL    HW188836   7.141   4.593   5.500
28999SOL    HW288837   7.144   4.716   5.588
29000SOL     OW88838   6.547  10.676   4.825
29000SOL    HW188839   6.595  10.666   4.907
29000SOL    HW288840   6.589  10.614   4.765
29001SOL     OW88841   4.997   6.775  12.579
29001SOL    HW188842   5.019   6.810  12.665
29001SOL    HW288843   4.901   6.779  12.576
29002SOL     OW88844   7.264  11.610   5.771
29002SOL    HW188845   7.322  11.597   5.696
29002SOL    HW288846   7.321  11.642   5.840
29003SOL     OW88847   1.774   0.408   1.125
29003SOL    HW188848   1.860   0.448   1.134
29003SOL    HW288849   1.776   0.363   1.041
29004SOL     OW88850   8.260   7.555  13.992
29004SOL    HW188851   8.254   7.464  14.020
29004SOL    HW288852   8.335   7.557  13.932
29005SOL     OW88853   0.020  13.538   9.730
29005SOL    HW188854   0.006  13.443   9.730
29005SOL    HW288855   0.027  13.561   9.637
29006SOL     OW88856  14.750   9.266   7.274
29006SOL    HW188857  14.713   9.179   7.282
29006SOL    HW288858  14.679   9.325   7.299
29007SOL     OW88859   0.435   8.028  11.942
29007SOL    HW188860   0.409   8.106  11.894
29007SOL    HW288861   0.486   7.977  11.878
29008SOL     OW88862   5.962  10.802   4.637
29008SOL    HW188863   5.897  10.866   4.607
29008SOL    HW288864   5.925  10.765   4.717
29009SOL     OW88865   3.089  10.465   5.948
29009SOL    HW188866   3.094  10.544   6.001
29009SOL    HW288867   3.120  10.395   6.006
29010SOL     OW88868   4.936  10.373   2.620
29010SOL    HW188869   4.941  10.469   2.626
29010SOL    HW288870   4.947  10.343   2.710
29011SOL     OW88871  10.170   2.860  13.575
29011SOL    HW188872  10.141   2.896  13.491
29011SOL    HW288873  10.240   2.799  13.552
29012SOL     OW88874  12.020  11.467   4.746
29012SOL    HW188875  12.061  11.550   4.719
29012SOL    HW288876  12.055  11.402   4.687
29013SOL     OW88877   7.508   2.882   2.438
29013SOL    HW188878   7.560   2.918   2.510
29013SOL    HW288879   7.421   2.869   2.476
29014SOL     OW88880   2.676  13.132   9.952
29014SOL    HW188881   2.664  13.202  10.016
29014SOL    HW288882   2.689  13.054  10.006
29015SOL     OW88883   8.769   4.079   0.167
29015SOL    HW188884   8.805   3.990   0.168
29015SOL    HW288885   8.840   4.133   0.202
29016SOL     OW88886   0.791   2.062   8.289
29016SOL    HW188887   0.846   2.108   8.226
29016SOL    HW288888   0.764   2.130   8.352
29017SOL     OW88889  14.598  13.635  14.160
29017SOL    HW188890  14.556  13.678  14.085
29017SOL    HW288891  14.691  13.647  14.145
29018SOL     OW88892   4.446  11.069  10.477
29018SOL    HW188893   4.541  11.068  10.492
29018SOL    HW288894   4.408  11.070  10.565
29019SOL     OW88895   2.315  14.651  13.706
29019SOL    HW188896   2.227  14.612  13.706
29019SOL    HW288897   2.374  14.576  13.717
29020SOL     OW88898   4.232   8.009  14.239
29020SOL    HW188899   4.260   8.092  14.201
29020SOL    HW288900   4.145   7.994  14.202
29021SOL     OW88901   9.495  13.630   8.271
29021SOL    HW188902   9.436  13.704   8.283
29021SOL    HW288903   9.520  13.633   8.179
29022SOL     OW88904   0.683   3.261   3.131
29022SOL    HW188905   0.732   3.343   3.122
29022SOL    HW288906   0.599   3.280   3.090
29023SOL     OW88907   6.903   3.684   5.973
29023SOL    HW188908   6.825   3.659   5.923
29023SOL    HW288909   6.878   3.765   6.017
29024SOL     OW88910   6.302  12.127  14.491
29024SOL    HW188911   6.273  12.189  14.558
29024SOL    HW288912   6.341  12.055  14.540
29025SOL     OW88913  13.229  11.764   3.793
29025SOL    HW188914  13.291  11.820   3.840
29025SOL    HW288915  13.229  11.796   3.703
29026SOL     OW88916   8.039   5.593   6.726
29026SOL    HW188917   8.017   5.514   6.775
29026SOL    HW288918   8.063   5.656   6.794
29027SOL     OW88919  12.074   1.878   7.231
29027SOL    HW188920  11.989   1.888   7.273
29027SOL    HW288921  12.072   1.939   7.157
29028SOL     OW88922   4.297  11.316   5.234
29028SOL    HW188923   4.268  11.233   5.270
29028SOL    HW288924   4.244  11.382   5.279
29029SOL     OW88925  10.494  14.628   3.581
29029SOL    HW188926  10.576  14.660   3.543
29029SOL    HW288927  10.426  14.676   3.534
29030SOL     OW88928   0.823   3.982  11.030
29030SOL    HW188929   0.886   4.053  11.021
29030SOL    HW288930   0.848   3.919  10.962
29031SOL     OW88931   7.745   4.860  14.325
29031SOL    HW188932   7.747   4.942  14.375
29031SOL    HW288933   7.659   4.860  14.283
29032SOL     OW88934   7.675   4.303   2.701
29032SOL    HW188935   7.736   4.356   2.651
29032SOL    HW288936   7.603   4.363   2.723
29033SOL     OW88937   5.977   6.603   2.633
29033SOL    HW188938   6.029   6.676   2.602
29033SOL    HW288939   5.908   6.643   2.686
29034SOL     OW88940  10.946   9.190   8.076
29034SOL    HW188941  11.028   9.216   8.034
29034SOL    HW288942  10.880   9.198   8.007
29035SOL     OW88943   0.776   8.130   0.079
29035SOL    HW188944   0.766   8.036   0.089
29035SOL    HW288945   0.842   8.154   0.144
29036SOL     OW88946  11.941  12.364   7.184
29036SOL    HW188947  12.036  12.355   7.193
29036SOL    HW288948  11.905  12.295   7.240
29037SOL     OW88949   5.229  11.056   1.458
29037SOL    HW188950   5.319  11.022   1.462
29037SOL    HW288951   5.231  11.134   1.513
29038SOL     OW88952   0.081  12.537   6.398
29038SOL    HW188953   0.084  12.496   6.312
29038SOL    HW288954   0.143  12.610   6.392
29039SOL     OW88955  10.151   5.324   8.959
29039SOL    HW188956  10.206   5.347   9.035
29039SOL    HW288957  10.117   5.237   8.981
29040SOL     OW88958  12.258  14.459  14.242
29040SOL    HW188959  12.272  14.432  14.151
29040SOL    HW288960  12.298  14.546  14.248
29041SOL     OW88961   4.606  13.263   5.345
29041SOL    HW188962   4.664  13.191   5.368
29041SOL    HW288963   4.660  13.322   5.293
29042SOL     OW88964   9.172  10.066   0.693
29042SOL    HW188965   9.214  10.151   0.703
29042SOL    HW288966   9.172  10.049   0.599
29043SOL     OW88967   8.261  13.215   3.910
29043SOL    HW188968   8.170  13.198   3.932
29043SOL    HW288969   8.274  13.307   3.932
29044SOL     OW88970  12.863   1.149   7.660
29044SOL    HW188971  12.929   1.155   7.591
29044SOL    HW288972  12.782   1.127   7.615
29045SOL     OW88973  11.576  11.002  10.294
29045SOL    HW188974  11.596  11.005  10.200
29045SOL    HW288975  11.549  11.091  10.315
29046SOL     OW88976   2.267   3.685   3.961
29046SOL    HW188977   2.308   3.753   3.907
29046SOL    HW288978   2.247   3.615   3.899
29047SOL     OW88979   8.145  13.152   5.895
29047SOL    HW188980   8.144  13.242   5.927
29047SOL    HW288981   8.232  13.119   5.916
29048SOL     OW88982  10.842  10.741   1.336
29048SOL    HW188983  10.791  10.712   1.412
29048SOL    HW288984  10.917  10.681   1.334
29049SOL     OW88985  10.302   4.549   1.400
29049SOL    HW188986  10.378   4.606   1.411
29049SOL    HW288987  10.232   4.608   1.372
29050SOL     OW88988  10.439   3.004  10.108
29050SOL    HW188989  10.360   3.014  10.162
29050SOL    HW288990  10.434   3.076  10.045
29051SOL     OW88991   8.540   1.466  10.651
29051SOL    HW188992   8.481   1.405  10.607
29051SOL    HW288993   8.522   1.551  10.610
29052SOL     OW88994  12.925   9.060   2.857
29052SOL    HW188995  12.982   9.126   2.819
29052SOL    HW288996  12.951   8.978   2.814
29053SOL     OW88997   6.748   1.637  14.365
29053SOL    HW188998   6.653   1.641  14.366
29053SOL    HW288999   6.773   1.674  14.280
29054SOL     OW89000  14.685   2.951  12.120
29054SOL    HW189001  14.716   2.960  12.030
29054SOL    HW289002  14.745   3.004  12.172
29055SOL     OW89003   8.074   2.405   4.020
29055SOL    HW189004   8.118   2.447   3.947
29055SOL    HW289005   8.098   2.457   4.097
29056SOL     OW89006   0.705   0.543  14.291
29056SOL    HW189007   0.772   0.574  14.351
29056SOL    HW289008   0.733   0.454  14.268
29057SOL     OW89009   9.188  10.998  12.284
29057SOL    HW189010   9.106  11.045  12.300
29057SOL    HW289011   9.187  10.927  12.349
29058SOL     OW89012   4.713   0.575   6.784
29058SOL    HW189013   4.626   0.586   6.822
29058SOL    HW289014   4.699   0.577   6.689
29059SOL     OW89015  12.535   4.248   1.405
29059SOL    HW189016  12.515   4.334   1.440
29059SOL    HW289017  12.613   4.220   1.452
29060SOL     OW89018   0.142   6.927   4.160
29060SOL    HW189019   0.163   6.950   4.250
29060SOL    HW289020   0.113   6.836   4.164
29061SOL     OW89021   8.994   5.513   4.208
29061SOL    HW189022   8.972   5.524   4.301
29061SOL    HW289023   9.016   5.602   4.179
29062SOL     OW89024   1.461  13.941   5.473
29062SOL    HW189025   1.497  13.899   5.552
29062SOL    HW289026   1.366  13.943   5.488
29063SOL     OW89027   6.171   2.466   4.941
29063SOL    HW189028   6.162   2.456   4.846
29063SOL    HW289029   6.084   2.446   4.976
29064SOL     OW89030   6.199  10.215   5.312
29064SOL    HW189031   6.284  10.235   5.273
29064SOL    HW289032   6.151  10.170   5.243
29065SOL     OW89033   2.206   6.308   8.326
29065SOL    HW189034   2.122   6.324   8.369
29065SOL    HW289035   2.272   6.330   8.392
29066SOL     OW89036   6.119  13.395  14.789
29066SOL    HW189037   6.146  13.455  14.859
29066SOL    HW289038   6.084  13.319  14.836
29067SOL     OW89039   5.821  13.504   3.370
29067SOL    HW189040   5.758  13.576   3.369
29067SOL    HW289041   5.846  13.495   3.462
29068SOL     OW89042  13.443   5.161  10.934
29068SOL    HW189043  13.516   5.199  10.982
29068SOL    HW289044  13.477   5.145  10.846
29069SOL     OW89045   0.551   9.350   1.779
29069SOL    HW189046   0.585   9.399   1.704
29069SOL    HW289047   0.487   9.289   1.741
29070SOL     OW89048   7.730   9.631   6.943
29070SOL    HW189049   7.637   9.644   6.959
29070SOL    HW289050   7.738   9.631   6.847
29071SOL     OW89051   0.259   6.611   4.253
29071SOL    HW189052   0.172   6.621   4.292
29071SOL    HW289053   0.304   6.550   4.312
29072SOL     OW89054  10.457  12.975   0.559
29072SOL    HW189055  10.440  12.894   0.510
29072SOL    HW289056  10.539  13.008   0.523
29073SOL     OW89057  13.572   2.297  13.253
29073SOL    HW189058  13.640   2.362  13.273
29073SOL    HW289059  13.533   2.276  13.338
29074SOL     OW89060   5.675   5.159  11.244
29074SOL    HW189061   5.679   5.234  11.184
29074SOL    HW289062   5.655   5.197  11.329
29075SOL     OW89063  11.924   9.962   6.236
29075SOL    HW189064  11.839   9.973   6.279
29075SOL    HW289065  11.902   9.949   6.144
29076SOL     OW89066  10.794  11.190  12.736
29076SOL    HW189067  10.768  11.103  12.708
29076SOL    HW289068  10.867  11.213  12.679
29077SOL     OW89069  13.232  12.281   0.481
29077SOL    HW189070  13.295  12.353   0.490
29077SOL    HW289071  13.195  12.271   0.568
29078SOL     OW89072   4.315   9.092  13.486
29078SOL    HW189073   4.268   9.037  13.422
29078SOL    HW289074   4.331   9.034  13.560
29079SOL     OW89075  10.372   8.525   2.810
29079SOL    HW189076  10.319   8.471   2.869
29079SOL    HW289077  10.440   8.562   2.867
29080SOL     OW89078   7.309   1.079  13.837
29080SOL    HW189079   7.336   1.120  13.919
29080SOL    HW289080   7.384   1.092  13.778
29081SOL     OW89081  13.594  11.727   8.889
29081SOL    HW189082  13.533  11.792   8.924
29081SOL    HW289083  13.612  11.668   8.963
29082SOL     OW89084   1.277   2.506  10.523
29082SOL    HW189085   1.345   2.466  10.577
29082SOL    HW289086   1.253   2.438  10.460
29083SOL     OW89087   7.992   1.211   2.251
29083SOL    HW189088   7.979   1.116   2.252
29083SOL    HW289089   7.910   1.246   2.215
29084SOL     OW89090  14.023   0.243  13.134
29084SOL    HW189091  13.994   0.310  13.196
29084SOL    HW289092  13.977   0.164  13.161
29085SOL     OW89093   9.154   8.315   2.341
29085SOL    HW189094   9.198   8.340   2.423
29085SOL    HW289095   9.224   8.286   2.284
29086SOL     OW89096   6.529  12.077  11.829
29086SOL    HW189097   6.614  12.071  11.873
29086SOL    HW289098   6.505  11.986  11.811
29087SOL     OW89099   2.760   6.515   0.431
29087SOL    HW189100   2.768   6.504   0.525
29087SOL    HW289101   2.751   6.426   0.397
29088SOL     OW89102  13.619   4.182   9.516
29088SOL    HW189103  13.713   4.187   9.499
29088SOL    HW289104  13.580   4.243   9.454
29089SOL     OW89105   2.427   1.910  10.887
29089SOL    HW189106   2.436   1.975  10.819
29089SOL    HW289107   2.389   1.833  10.843
29090SOL     OW89108   6.435   0.024  13.094
29090SOL    HW189109   6.407  14.832  13.148
29090SOL    HW289110   6.482  14.866  13.020
29091SOL     OW89111   3.536   2.457   0.870
29091SOL    HW189112   3.484   2.419   0.800
29091SOL    HW289113   3.515   2.405   0.948
29092SOL     OW89114   4.399   4.061   5.247
29092SOL    HW189115   4.353   4.020   5.173
29092SOL    HW289116   4.335   4.061   5.318
29093SOL     OW89117  12.841  10.731   2.507
29093SOL    HW189118  12.859  10.819   2.540
29093SOL    HW289119  12.871  10.673   2.578
29094SOL     OW89120   5.878  13.740   1.781
29094SOL    HW189121   5.840  13.697   1.857
29094SOL    HW289122   5.968  13.760   1.806
29095SOL     OW89123   9.530   6.179  11.694
29095SOL    HW189124   9.493   6.180  11.606
29095SOL    HW289125   9.593   6.107  11.692
29096SOL     OW89126   7.141   8.202   8.114
29096SOL    HW189127   7.209   8.218   8.180
29096SOL    HW289128   7.144   8.278   8.056
29097SOL     OW89129  12.193   0.813   4.952
29097SOL    HW189130  12.158   0.734   4.911
29097SOL    HW289131  12.227   0.864   4.878
29098SOL     OW89132  13.641   4.798   8.984
29098SOL    HW189133  13.724   4.775   9.025
29098SOL    HW289134  13.591   4.717   8.985
29099SOL     OW89135   1.521   5.149   2.346
29099SOL    HW189136   1.590   5.144   2.412
29099SOL    HW289137   1.552   5.213   2.282
29100SOL     OW89138   2.920   2.235   0.091
29100SOL    HW189139   2.895   2.327   0.094
29100SOL    HW289140   3.009   2.235   0.057
29101SOL     OW89141   3.759  14.110   8.516
29101SOL    HW189142   3.753  14.192   8.564
29101SOL    HW289143   3.729  14.044   8.578
29102SOL     OW89144   6.641   4.963  10.679
29102SOL    HW189145   6.679   5.005  10.602
29102SOL    HW289146   6.699   4.890  10.699
29103SOL     OW89147   1.189   4.149   1.754
29103SOL    HW189148   1.147   4.063   1.751
29103SOL    HW289149   1.282   4.130   1.770
29104SOL     OW89150   9.481   6.437  11.492
29104SOL    HW189151   9.498   6.343  11.483
29104SOL    HW289152   9.545   6.466  11.557
29105SOL     OW89153  11.908  14.030   7.531
29105SOL    HW189154  11.924  14.104   7.590
29105SOL    HW289155  11.889  14.071   7.446
29106SOL     OW89156   1.431  12.365  14.074
29106SOL    HW189157   1.526  12.379  14.072
29106SOL    HW289158   1.394  12.453  14.081
29107SOL     OW89159  11.634   3.202   2.515
29107SOL    HW189160  11.539   3.188   2.523
29107SOL    HW289161  11.663   3.132   2.456
29108SOL     OW89162   9.698   0.560   3.506
29108SOL    HW189163   9.781   0.599   3.534
29108SOL    HW289164   9.694   0.476   3.552
29109SOL     OW89165   6.879   3.919   4.015
29109SOL    HW189166   6.850   3.933   3.924
29109SOL    HW289167   6.857   3.827   4.032
29110SOL     OW89168   5.877   2.449  14.386
29110SOL    HW189169   5.900   2.394  14.311
29110SOL    HW289170   5.782   2.446  14.391
29111SOL     OW89171   8.027   8.802   8.384
29111SOL    HW189172   8.014   8.757   8.301
29111SOL    HW289173   8.122   8.813   8.391
29112SOL     OW89174   4.941  12.608  13.420
29112SOL    HW189175   4.975  12.601  13.509
29112SOL    HW289176   4.879  12.680  13.423
29113SOL     OW89177   1.937   4.851   6.265
29113SOL    HW189178   2.015   4.834   6.212
29113SOL    HW289179   1.965   4.916   6.329
29114SOL     OW89180   5.266   0.063   4.328
29114SOL    HW189181   5.257   0.095   4.238
29114SOL    HW289182   5.259   0.141   4.382
29115SOL     OW89183   6.030   8.907  11.484
29115SOL    HW189184   6.090   8.972  11.520
29115SOL    HW289185   5.947   8.924  11.529
29116SOL     OW89186   8.168   1.433   7.768
29116SOL    HW189187   8.106   1.473   7.707
29116SOL    HW289188   8.149   1.474   7.852
29117SOL     OW89189   0.706   5.865   0.084
29117SOL    HW189190   0.723   5.806   0.157
29117SOL    HW289191   0.793   5.896   0.057
29118SOL     OW89192  13.898   6.691   9.195
29118SOL    HW189193  13.871   6.783   9.201
29118SOL    HW289194  13.880   6.655   9.281
29119SOL     OW89195   1.372   4.920  13.298
29119SOL    HW189196   1.282   4.909  13.331
29119SOL    HW289197   1.390   4.839  13.250
29120SOL     OW89198  12.947   5.668  10.951
29120SOL    HW189199  12.914   5.753  10.982
29120SOL    HW289200  13.042   5.673  10.964
29121SOL     OW89201  13.031  13.099  14.114
29121SOL    HW189202  12.939  13.112  14.093
29121SOL    HW289203  13.033  13.023  14.171
29122SOL     OW89204   8.989   8.022  11.256
29122SOL    HW189205   8.942   8.077  11.194
29122SOL    HW289206   9.031   7.955  11.201
29123SOL     OW89207   1.731   9.347   8.172
29123SOL    HW189208   1.709   9.289   8.100
29123SOL    HW289209   1.812   9.309   8.208
29124SOL     OW89210  10.401  10.795   7.663
29124SOL    HW189211  10.455  10.717   7.650
29124SOL    HW289212  10.462  10.868   7.657
29125SOL     OW89213  11.974   7.103   2.923
29125SOL    HW189214  11.883   7.133   2.921
29125SOL    HW289215  12.015   7.155   2.993
29126SOL     OW89216  11.256  11.590  14.256
29126SOL    HW189217  11.285  11.576  14.166
29126SOL    HW289218  11.199  11.667  14.252
29127SOL     OW89219  10.745  13.666   2.125
29127SOL    HW189220  10.811  13.598   2.135
29127SOL    HW289221  10.793  13.748   2.131
29128SOL     OW89222   9.611   4.801   6.453
29128SOL    HW189223   9.662   4.850   6.518
29128SOL    HW289224   9.627   4.709   6.475
29129SOL     OW89225   9.442   9.587  10.391
29129SOL    HW189226   9.402   9.537  10.320
29129SOL    HW289227   9.434   9.678  10.363
29130SOL     OW89228   7.551   6.033   2.786
29130SOL    HW189229   7.608   5.962   2.814
29130SOL    HW289230   7.485   5.992   2.731
29131SOL     OW89231   2.192   4.647   8.604
29131SOL    HW189232   2.132   4.627   8.532
29131SOL    HW289233   2.141   4.703   8.663
29132SOL     OW89234   8.002  12.799   9.029
29132SOL    HW189235   7.959  12.806   9.115
29132SOL    HW289236   8.091  12.772   9.049
29133SOL     OW89237   5.374  12.934   0.039
29133SOL    HW189238   5.444  12.884   0.081
29133SOL    HW289239   5.297  12.916   0.092
29134SOL     OW89240   8.402  11.476   7.945
29134SOL    HW189241   8.472  11.475   8.011
29134SOL    HW289242   8.322  11.488   7.996
29135SOL     OW89243   0.754   7.202  13.959
29135SOL    HW189244   0.822   7.228  14.021
29135SOL    HW289245   0.681   7.261  13.977
29136SOL     OW89246  12.817  13.772   8.784
29136SOL    HW189247  12.863  13.842   8.831
29136SOL    HW289248  12.862  13.692   8.810
29137SOL     OW89249   6.537   3.113  12.046
29137SOL    HW189250   6.531   3.114  12.142
29137SOL    HW289251   6.596   3.041  12.027
29138SOL     OW89252   8.386   6.975  12.557
29138SOL    HW189253   8.419   6.897  12.513
29138SOL    HW289254   8.325   7.015  12.495
29139SOL     OW89255   1.633   5.262   2.116
29139SOL    HW189256   1.649   5.311   2.035
29139SOL    HW289257   1.705   5.199   2.120
29140SOL     OW89258   3.016  11.729   7.065
29140SOL    HW189259   2.936  11.704   7.112
29140SOL    HW289260   3.087  11.706   7.125
29141SOL     OW89261   2.054   6.856  13.297
29141SOL    HW189262   2.053   6.951  13.311
29141SOL    HW289263   2.147   6.834  13.290
29142SOL     OW89264   6.413   2.505   3.972
29142SOL    HW189265   6.477   2.506   4.043
29142SOL    HW289266   6.441   2.434   3.915
29143SOL     OW89267   2.603   8.796   8.145
29143SOL    HW189268   2.522   8.827   8.103
29143SOL    HW289269   2.578   8.713   8.186
29144SOL     OW89270  10.555   8.367   3.149
29144SOL    HW189271  10.621   8.301   3.173
29144SOL    HW289272  10.490   8.361   3.219
29145SOL     OW89273  12.735   9.073   0.750
29145SOL    HW189274  12.827   9.079   0.725
29145SOL    HW289275  12.726   9.134   0.823
29146SOL     OW89276   7.048  14.531   5.532
29146SOL    HW189277   7.051  14.522   5.436
29146SOL    HW289278   7.138  14.553   5.556
29147SOL     OW89279   2.865   5.492   9.773
29147SOL    HW189280   2.782   5.479   9.727
29147SOL    HW289281   2.930   5.450   9.716
29148SOL     OW89282  10.669  12.217  12.326
29148SOL    HW189283  10.683  12.296  12.378
29148SOL    HW289284  10.590  12.234  12.276
29149SOL     OW89285  14.723  10.426  11.629
29149SOL    HW189286  14.673  10.410  11.709
29149SOL    HW289287  14.722  10.521  11.619
29150SOL     OW89288   7.840   2.663  11.272
29150SOL    HW189289   7.849   2.658  11.176
29150SOL    HW289290   7.930   2.653  11.304
29151SOL     OW89291   1.413   1.319   3.381
29151SOL    HW189292   1.436   1.228   3.401
29151SOL    HW289293   1.403   1.321   3.286
29152SOL     OW89294   1.239  13.870   9.015
29152SOL    HW189295   1.190  13.850   9.094
29152SOL    HW289296   1.313  13.809   9.016
29153SOL     OW89297   3.320  11.800  14.345
29153SOL    HW189298   3.387  11.861  14.375
29153SOL    HW289299   3.341  11.785  14.253
29154SOL     OW89300   8.508   4.197   6.070
29154SOL    HW189301   8.572   4.145   6.119
29154SOL    HW289302   8.459   4.133   6.018
29155SOL     OW89303   8.929   3.309   7.954
29155SOL    HW189304   8.965   3.275   7.872
29155SOL    HW289305   8.957   3.246   8.020
29156SOL     OW89306   8.325  10.419   2.294
29156SOL    HW189307   8.408  10.426   2.341
29156SOL    HW289308   8.259  10.418   2.363
29157SOL     OW89309   8.030   6.574  14.623
29157SOL    HW189310   8.103   6.558  14.682
29157SOL    HW289311   7.976   6.495  14.630
29158SOL     OW89312   7.558   1.506   3.875
29158SOL    HW189313   7.531   1.582   3.926
29158SOL    HW289314   7.571   1.539   3.786
29159SOL     OW89315  12.499   0.184   4.631
29159SOL    HW189316  12.412   0.167   4.668
29159SOL    HW289317  12.522   0.270   4.664
29160SOL     OW89318  12.088   9.206   3.744
29160SOL    HW189319  12.160   9.247   3.793
29160SOL    HW289320  12.110   9.221   3.652
29161SOL     OW89321   4.261   6.324  14.843
29161SOL    HW189322   4.256   6.332  14.748
29161SOL    HW289323   4.247   6.231  14.860
29162SOL     OW89324   7.391   6.542  14.632
29162SOL    HW189325   7.374   6.616  14.690
29162SOL    HW289326   7.306   6.499  14.623
29163SOL     OW89327  12.102  11.282   2.576
29163SOL    HW189328  12.072  11.298   2.665
29163SOL    HW289329  12.023  11.258   2.528
29164SOL     OW89330   0.557   9.656   5.426
29164SOL    HW189331   0.648   9.641   5.398
29164SOL    HW289332   0.507   9.661   5.345
29165SOL     OW89333   5.804   0.105  13.387
29165SOL    HW189334   5.836   0.015  13.387
29165SOL    HW289335   5.882   0.159  13.384
29166SOL     OW89336   3.115   2.730   8.808
29166SOL    HW189337   3.067   2.811   8.826
29166SOL    HW289338   3.176   2.722   8.882
29167SOL     OW89339   3.911  14.293   9.172
29167SOL    HW189340   3.842  14.266   9.111
29167SOL    HW289341   3.983  14.232   9.155
29168SOL     OW89342  14.852  13.601  12.557
29168SOL    HW189343  14.850  13.506  12.572
29168SOL    HW289344   0.052  13.630  12.596
29169SOL     OW89345  12.269   8.454  14.319
29169SOL    HW189346  12.288   8.361  14.305
29169SOL    HW289347  12.319   8.499  14.250
29170SOL     OW89348   8.812   2.498   4.462
29170SOL    HW189349   8.828   2.539   4.376
29170SOL    HW289350   8.801   2.405   4.442
29171SOL     OW89351   6.862  13.845  13.503
29171SOL    HW189352   6.850  13.784  13.576
29171SOL    HW289353   6.775  13.855  13.466
29172SOL     OW89354   7.014  10.635   9.693
29172SOL    HW189355   6.935  10.678   9.659
29172SOL    HW289356   7.002  10.632   9.787
29173SOL     OW89357   7.354   5.993   8.002
29173SOL    HW189358   7.432   5.972   7.951
29173SOL    HW289359   7.334   5.912   8.048
29174SOL     OW89360   4.313  11.788   9.335
29174SOL    HW189361   4.227  11.798   9.295
29174SOL    HW289362   4.371  11.843   9.281
29175SOL     OW89363   7.986  14.053   0.826
29175SOL    HW189364   7.914  14.068   0.888
29175SOL    HW289365   8.026  14.139   0.816
29176SOL     OW89366   1.022   9.233   5.135
29176SOL    HW189367   1.071   9.151   5.133
29176SOL    HW289368   1.089   9.300   5.119
29177SOL     OW89369   9.054  11.320   8.645
29177SOL    HW189370   8.967  11.361   8.634
29177SOL    HW289371   9.035  11.229   8.669
29178SOL     OW89372  11.671   2.340   7.508
29178SOL    HW189373  11.600   2.325   7.570
29178SOL    HW289374  11.640   2.413   7.453
29179SOL     OW89375  14.023   6.732  12.774
29179SOL    HW189376  14.077   6.652  12.771
29179SOL    HW289377  14.067   6.789  12.837
29180SOL     OW89378   5.198  11.691  10.643
29180SOL    HW189379   5.265  11.624  10.649
29180SOL    HW289380   5.152  11.673  10.561
29181SOL     OW89381   0.642   5.172   3.847
29181SOL    HW189382   0.641   5.249   3.903
29181SOL    HW289383   0.556   5.131   3.860
29182SOL     OW89384   1.817  10.159   2.677
29182SOL    HW189385   1.816  10.191   2.586
29182SOL    HW289386   1.895  10.103   2.681
29183SOL     OW89387   6.979  12.832   9.374
29183SOL    HW189388   6.931  12.913   9.391
29183SOL    HW289389   6.911  12.766   9.359
29184SOL     OW89390   0.367  13.455  13.079
29184SOL    HW189391   0.352  13.361  13.070
29184SOL    HW289392   0.282  13.491  13.105
29185SOL     OW89393  14.706  11.269   7.042
29185SOL    HW189394  14.642  11.339   7.056
29185SOL    HW289395  14.755  11.297   6.965
29186SOL     OW89396   5.207  11.040   9.299
29186SOL    HW189397   5.210  11.127   9.337
29186SOL    HW289398   5.289  10.999   9.327
29187SOL     OW89399   3.342  12.531   5.053
29187SOL    HW189400   3.293  12.612   5.037
29187SOL    HW289401   3.426  12.546   5.010
29188SOL     OW89402   9.413   2.904   4.693
29188SOL    HW189403   9.496   2.948   4.679
29188SOL    HW289404   9.348   2.975   4.694
29189SOL     OW89405   3.921  10.182   2.012
29189SOL    HW189406   3.860  10.197   2.085
29189SOL    HW289407   3.932  10.087   2.009
29190SOL     OW89408   4.889   2.017   5.352
29190SOL    HW189409   4.868   1.952   5.285
29190SOL    HW289410   4.804   2.049   5.381
29191SOL     OW89411  12.362   8.162   5.042
29191SOL    HW189412  12.410   8.211   4.975
29191SOL    HW289413  12.270   8.173   5.019
29192SOL     OW89414   4.793   8.406   6.153
29192SOL    HW189415   4.790   8.310   6.149
29192SOL    HW289416   4.882   8.428   6.124
29193SOL     OW89417   6.055   9.526  11.438
29193SOL    HW189418   6.086   9.477  11.514
29193SOL    HW289419   6.082   9.616  11.455
29194SOL     OW89420   3.137   2.453   0.211
29194SOL    HW189421   3.156   2.478   0.120
29194SOL    HW289422   3.091   2.528   0.248
29195SOL     OW89423  13.782   5.099   0.403
29195SOL    HW189424  13.846   5.162   0.438
29195SOL    HW289425  13.748   5.054   0.480
29196SOL     OW89426   7.010   7.911  12.488
29196SOL    HW189427   6.931   7.911  12.434
29196SOL    HW289428   6.979   7.895  12.577
29197SOL     OW89429   8.279   1.079   2.077
29197SOL    HW189430   8.190   1.046   2.087
29197SOL    HW289431   8.297   1.124   2.160
29198SOL     OW89432   4.141   0.827   4.291
29198SOL    HW189433   4.159   0.907   4.340
29198SOL    HW289434   4.053   0.840   4.255
29199SOL     OW89435  10.836   6.442   8.754
29199SOL    HW189436  10.806   6.421   8.665
29199SOL    HW289437  10.764   6.493   8.791
29200SOL     OW89438  12.714  13.687   6.849
29200SOL    HW189439  12.780  13.643   6.795
29200SOL    HW289440  12.693  13.623   6.917
29201SOL     OW89441   8.431   5.633  13.650
29201SOL    HW189442   8.518   5.647  13.687
29201SOL    HW289443   8.441   5.656  13.557
29202SOL     OW89444   7.354   7.397   9.439
29202SOL    HW189445   7.365   7.480   9.485
29202SOL    HW289446   7.409   7.335   9.488
29203SOL     OW89447  11.034   8.044   6.317
29203SOL    HW189448  11.100   8.099   6.276
29203SOL    HW289449  10.954   8.096   6.315
29204SOL     OW89450   2.713   2.597   2.032
29204SOL    HW189451   2.632   2.570   1.988
29204SOL    HW289452   2.783   2.561   1.978
29205SOL     OW89453   0.690  14.313   8.628
29205SOL    HW189454   0.743  14.330   8.706
29205SOL    HW289455   0.649  14.228   8.646
29206SOL     OW89456   0.816   1.658   7.061
29206SOL    HW189457   0.902   1.699   7.075
29206SOL    HW289458   0.753   1.728   7.075
29207SOL     OW89459   8.565   1.951  12.032
29207SOL    HW189460   8.497   2.010  12.065
29207SOL    HW289461   8.535   1.863  12.057
29208SOL     OW89462   5.692  13.915   0.426
29208SOL    HW189463   5.638  13.941   0.501
29208SOL    HW289464   5.629  13.900   0.356
29209SOL     OW89465   0.512  13.863  13.708
29209SOL    HW189466   0.455  13.924  13.661
29209SOL    HW289467   0.505  13.889  13.800
29210SOL     OW89468   5.426  14.724  14.750
29210SOL    HW189469   5.421  14.632  14.774
29210SOL    HW289470   5.408  14.771  14.831
29211SOL     OW89471  13.723   1.479   4.286
29211SOL    HW189472  13.711   1.422   4.210
29211SOL    HW289473  13.654   1.544   4.277
29212SOL     OW89474  14.759   6.435   0.043
29212SOL    HW189475  14.782   6.526   0.023
29212SOL    HW289476  14.745   6.435   0.138
29213SOL     OW89477   9.645   9.553  11.037
29213SOL    HW189478   9.600   9.474  11.005
29213SOL    HW289479   9.700   9.521  11.108
29214SOL     OW89480  11.901   0.746   5.218
29214SOL    HW189481  11.972   0.772   5.276
29214SOL    HW289482  11.916   0.797   5.138
29215SOL     OW89483  14.440   2.951  13.840
29215SOL    HW189484  14.485   2.867  13.829
29215SOL    HW289485  14.348   2.927  13.849
29216SOL     OW89486  10.578  14.546  14.356
29216SOL    HW189487  10.578  14.639  14.377
29216SOL    HW289488  10.652  14.534  14.297
29217SOL     OW89489  14.548  13.276   8.974
29217SOL    HW189490  14.521  13.365   8.952
29217SOL    HW289491  14.558  13.233   8.889
29218SOL     OW89492   5.872  11.195   0.399
29218SOL    HW189493   5.815  11.224   0.470
29218SOL    HW289494   5.855  11.102   0.390
29219SOL     OW89495   2.248   1.273   0.642
29219SOL    HW189496   2.343   1.265   0.654
29219SOL    HW289497   2.223   1.347   0.697
29220SOL     OW89498   0.386   4.323   2.228
29220SOL    HW189499   0.404   4.390   2.162
29220SOL    HW289500   0.311   4.357   2.277
29221SOL     OW89501   2.014  11.803   3.096
29221SOL    HW189502   2.037  11.864   3.165
29221SOL    HW289503   1.957  11.853   3.037
29222SOL     OW89504   9.323   7.717   4.625
29222SOL    HW189505   9.384   7.677   4.563
29222SOL    HW289506   9.236   7.698   4.589
29223SOL     OW89507   3.462  10.004  10.732
29223SOL    HW189508   3.469   9.929  10.791
29223SOL    HW289509   3.545  10.051  10.743
29224SOL     OW89510   7.534  14.652  14.277
29224SOL    HW189511   7.470  14.681  14.212
29224SOL    HW289512   7.509  14.562  14.297
29225SOL     OW89513   7.916   0.053   2.411
29225SOL    HW189514   7.865   0.088   2.338
29225SOL    HW289515   7.928  14.843   2.390
29226SOL     OW89516  12.839   2.234  12.799
29226SOL    HW189517  12.819   2.140  12.806
29226SOL    HW289518  12.760   2.273  12.762
29227SOL     OW89519   2.390   1.870   1.687
29227SOL    HW189520   2.369   1.841   1.598
29227SOL    HW289521   2.482   1.896   1.682
29228SOL     OW89522   9.122  10.286  12.494
29228SOL    HW189523   9.215  10.309  12.484
29228SOL    HW289524   9.100  10.313  12.582
29229SOL     OW89525   2.917   6.319   6.378
29229SOL    HW189526   2.837   6.306   6.428
29229SOL    HW289527   2.986   6.281   6.433
29230SOL     OW89528  11.491  11.630   0.750
29230SOL    HW189529  11.462  11.654   0.662
29230SOL    HW289530  11.519  11.712   0.790
29231SOL     OW89531  11.183   3.984   2.205
29231SOL    HW189532  11.178   3.927   2.282
29231SOL    HW289533  11.132   3.938   2.138
29232SOL     OW89534   8.990   0.904  11.471
29232SOL    HW189535   8.913   0.894  11.416
29232SOL    HW289536   8.997   0.820  11.517
29233SOL     OW89537   1.653   3.932  10.781
29233SOL    HW189538   1.694   3.943  10.695
29233SOL    HW289539   1.703   3.861  10.822
29234SOL     OW89540   1.000  12.947   7.516
29234SOL    HW189541   1.029  12.883   7.452
29234SOL    HW289542   0.985  13.027   7.466
29235SOL     OW89543  14.461  13.808   9.067
29235SOL    HW189544  14.417  13.725   9.088
29235SOL    HW289545  14.400  13.876   9.096
29236SOL     OW89546   5.978  14.837   1.196
29236SOL    HW189547   5.957  14.823   1.104
29236SOL    HW289548   5.898  14.875   1.233
29237SOL     OW89549   5.301   3.338   6.689
29237SOL    HW189550   5.291   3.338   6.593
29237SOL    HW289551   5.212   3.325   6.722
29238SOL     OW89552   4.557   4.883   5.695
29238SOL    HW189553   4.535   4.818   5.628
29238SOL    HW289554   4.510   4.962   5.668
29239SOL     OW89555   8.655  13.875   8.810
29239SOL    HW189556   8.638  13.904   8.900
29239SOL    HW289557   8.748  13.856   8.808
29240SOL     OW89558   3.048   0.511   1.162
29240SOL    HW189559   3.114   0.442   1.165
29240SOL    HW289560   3.069   0.561   1.083
29241SOL     OW89561   5.863   6.565  12.611
29241SOL    HW189562   5.856   6.652  12.651
29241SOL    HW289563   5.860   6.580  12.517
29242SOL     OW89564   7.536   5.545  14.604
29242SOL    HW189565   7.574   5.585  14.683
29242SOL    HW289566   7.606   5.550  14.539
29243SOL     OW89567   3.623  11.576  14.155
29243SOL    HW189568   3.709  11.582  14.197
29243SOL    HW289569   3.610  11.663  14.117
29244SOL     OW89570   0.345  14.691   9.769
29244SOL    HW189571   0.312  14.710   9.681
29244SOL    HW289572   0.297  14.750   9.826
29245SOL     OW89573  12.601   6.647   6.631
29245SOL    HW189574  12.631   6.662   6.720
29245SOL    HW289575  12.601   6.734   6.590
29246SOL     OW89576   0.086  11.743  10.501
29246SOL    HW189577  14.879  11.711  10.483
29246SOL    HW289578   0.072  11.818  10.559
29247SOL     OW89579   6.443   5.091   2.769
29247SOL    HW189580   6.395   5.072   2.850
29247SOL    HW289581   6.394   5.163   2.728
29248SOL     OW89582  13.177  14.494  11.645
29248SOL    HW189583  13.196  14.536  11.561
29248SOL    HW289584  13.200  14.560  11.711
29249SOL     OW89585   3.663  13.826   8.097
29249SOL    HW189586   3.684  13.765   8.168
29249SOL    HW289587   3.616  13.897   8.139
29250SOL     OW89588  13.694   9.411   4.159
29250SOL    HW189589  13.646   9.479   4.113
29250SOL    HW289590  13.632   9.339   4.169
29251SOL     OW89591   8.107   3.759   3.486
29251SOL    HW189592   8.181   3.701   3.471
29251SOL    HW289593   8.030   3.702   3.479
29252SOL     OW89594   4.873   3.103   5.286
29252SOL    HW189595   4.866   3.188   5.243
29252SOL    HW289596   4.783   3.069   5.285
29253SOL     OW89597  13.867   2.330   4.644
29253SOL    HW189598  13.924   2.265   4.685
29253SOL    HW289599  13.900   2.338   4.555
29254SOL     OW89600  13.383   3.452   1.073
29254SOL    HW189601  13.468   3.455   1.028
29254SOL    HW289602  13.401   3.491   1.159
29255SOL     OW89603   3.878   0.950   4.133
29255SOL    HW189604   3.854   0.857   4.130
29255SOL    HW289605   3.906   0.970   4.044
29256SOL     OW89606   0.449   3.370  13.997
29256SOL    HW189607   0.502   3.299  14.032
29256SOL    HW289608   0.476   3.378  13.905
29257SOL     OW89609  11.951   5.418   9.037
29257SOL    HW189610  11.856   5.409   9.049
29257SOL    HW289611  11.985   5.438   9.124
29258SOL     OW89612   1.543   0.601   8.126
29258SOL    HW189613   1.555   0.695   8.114
29258SOL    HW289614   1.464   0.593   8.178
29259SOL     OW89615   4.672   2.789   1.080
29259SOL    HW189616   4.645   2.707   1.121
29259SOL    HW289617   4.664   2.773   0.986
29260SOL     OW89618  13.063   2.885   1.071
29260SOL    HW189619  13.157   2.873   1.087
29260SOL    HW289620  13.020   2.841   1.144
29261SOL     OW89621  13.812   4.711   9.324
29261SOL    HW189622  13.851   4.683   9.241
29261SOL    HW289623  13.793   4.804   9.311
29262SOL     OW89624   0.848  14.423  12.513
29262SOL    HW189625   0.929  14.393  12.471
29262SOL    HW289626   0.878  14.479  12.585
29263SOL     OW89627  10.389   3.659   9.524
29263SOL    HW189628  10.423   3.748   9.528
29263SOL    HW289629  10.302   3.669   9.484
29264SOL     OW89630  13.443   3.424   8.218
29264SOL    HW189631  13.458   3.457   8.307
29264SOL    HW289632  13.359   3.461   8.192
29265SOL     OW89633   1.085   4.165  11.996
29265SOL    HW189634   1.099   4.212  11.913
29265SOL    HW289635   1.162   4.187  12.048
29266SOL     OW89636  14.746   7.295  12.390
29266SOL    HW189637  14.674   7.358  12.395
29266SOL    HW289638  14.825   7.349  12.390
29267SOL     OW89639  12.560   3.701   1.309
29267SOL    HW189640  12.573   3.673   1.399
29267SOL    HW289641  12.520   3.788   1.316
29268SOL     OW89642   8.774  10.031   8.653
29268SOL    HW189643   8.734  10.062   8.734
29268SOL    HW289644   8.704  10.039   8.588
29269SOL     OW89645   7.538  12.842  11.453
29269SOL    HW189646   7.463  12.790  11.424
29269SOL    HW289647   7.501  12.928  11.475
29270SOL     OW89648   0.001  10.576  14.564
29270SOL    HW189649  14.874  10.514  14.636
29270SOL    HW289650  14.806  10.633  14.572
29271SOL     OW89651   2.392   2.746   1.066
29271SOL    HW189652   2.344   2.679   1.017
29271SOL    HW289653   2.442   2.793   0.999
29272SOL     OW89654  13.551  12.307   8.336
29272SOL    HW189655  13.514  12.224   8.366
29272SOL    HW289656  13.500  12.374   8.381
29273SOL     OW89657  11.612   9.746   7.924
29273SOL    HW189658  11.675   9.816   7.938
29273SOL    HW289659  11.526   9.789   7.932
29274SOL     OW89660   8.374   4.810  11.305
29274SOL    HW189661   8.346   4.898  11.330
29274SOL    HW289662   8.375   4.761  11.387
29275SOL     OW89663   0.739   0.396  10.139
29275SOL    HW189664   0.674   0.462  10.163
29275SOL    HW289665   0.700   0.351  10.064
29276SOL     OW89666   8.332   9.097   3.013
29276SOL    HW189667   8.290   9.035   2.954
29276SOL    HW289668   8.383   9.154   2.956
29277SOL     OW89669   8.771  10.413   9.970
29277SOL    HW189670   8.718  10.340  10.002
29277SOL    HW289671   8.752  10.416   9.876
29278SOL     OW89672   7.763   7.468  14.864
29278SOL    HW189673   7.725   7.393   0.028
29278SOL    HW289674   7.721   7.469  14.778
29279SOL     OW89675  10.626   2.972  14.389
29279SOL    HW189676  10.577   3.052  14.370
29279SOL    HW289677  10.605   2.912  14.317
29280SOL     OW89678  13.155  11.789  12.561
29280SOL    HW189679  13.166  11.764  12.470
29280SOL    HW289680  13.116  11.876  12.558
29281SOL     OW89681   7.023   5.233  12.259
29281SOL    HW189682   7.105   5.266  12.297
29281SOL    HW289683   7.045   5.210  12.169
29282SOL     OW89684  10.196  13.899  11.863
29282SOL    HW189685  10.175  13.840  11.791
29282SOL    HW289686  10.200  13.986  11.823
29283SOL     OW89687   4.082   1.506   6.359
29283SOL    HW189688   4.102   1.590   6.400
29283SOL    HW289689   4.108   1.441   6.424
29284SOL     OW89690  12.337  13.537   5.238
29284SOL    HW189691  12.390  13.612   5.266
29284SOL    HW289692  12.246  13.566   5.250
29285SOL     OW89693   9.653   8.844   3.865
29285SOL    HW189694   9.725   8.906   3.852
29285SOL    HW289695   9.687   8.760   3.834
29286SOL     OW89696   9.941  12.824   9.465
29286SOL    HW189697   9.938  12.728   9.472
29286SOL    HW289698  10.031  12.846   9.489
29287SOL     OW89699   3.974   0.345   0.908
29287SOL    HW189700   4.040   0.411   0.927
29287SOL    HW289701   3.901   0.366   0.966
29288SOL     OW89702  10.857   2.483   8.890
29288SOL    HW189703  10.907   2.467   8.971
29288SOL    HW289704  10.767   2.494   8.920
29289SOL     OW89705  10.140   7.672   6.841
29289SOL    HW189706  10.155   7.734   6.913
29289SOL    HW289707  10.118   7.728   6.766
29290SOL     OW89708   1.760   8.442  14.684
29290SOL    HW189709   1.689   8.499  14.713
29290SOL    HW289710   1.718   8.358  14.665
29291SOL     OW89711  11.779   0.722   7.164
29291SOL    HW189712  11.754   0.631   7.176
29291SOL    HW289713  11.875   0.722   7.168
29292SOL     OW89714   7.082   8.961   5.866
29292SOL    HW189715   7.005   9.005   5.900
29292SOL    HW289716   7.139   8.948   5.942
29293SOL     OW89717   0.206  13.480  13.933
29293SOL    HW189718   0.270  13.424  13.976
29293SOL    HW289719   0.244  13.568  13.938
29294SOL     OW89720   2.122   5.120   5.235
29294SOL    HW189721   2.163   5.157   5.313
29294SOL    HW289722   2.148   5.028   5.236
29295SOL     OW89723   8.482  14.013   9.948
29295SOL    HW189724   8.457  13.935   9.997
29295SOL    HW289725   8.420  14.080   9.978
29296SOL     OW89726   2.585   4.080   0.686
29296SOL    HW189727   2.659   4.020   0.694
29296SOL    HW289728   2.562   4.102   0.776
29297SOL     OW89729   3.066   7.958   4.356
29297SOL    HW189730   2.980   7.921   4.374
29297SOL    HW289731   3.048   8.044   4.319
29298SOL     OW89732   4.209  14.731  12.110
29298SOL    HW189733   4.142  14.663  12.122
29298SOL    HW289734   4.173  14.787  12.041
29299SOL     OW89735   8.664   4.694   7.538
29299SOL    HW189736   8.759   4.707   7.547
29299SOL    HW289737   8.634   4.672   7.626
29300SOL     OW89738  10.635   6.522  10.190
29300SOL    HW189739  10.675   6.592  10.242
29300SOL    HW289740  10.550   6.508  10.230
29301SOL     OW89741   7.463  12.235   9.393
29301SOL    HW189742   7.544  12.189   9.417
29301SOL    HW289743   7.395  12.168   9.397
29302SOL     OW89744   1.412  10.027   0.396
29302SOL    HW189745   1.425   9.932   0.392
29302SOL    HW289746   1.341  10.045   0.335
29303SOL     OW89747  11.520  10.262   8.932
29303SOL    HW189748  11.462  10.332   8.964
29303SOL    HW289749  11.476  10.181   8.956
29304SOL     OW89750   5.007   0.661  12.096
29304SOL    HW189751   5.061   0.591  12.061
29304SOL    HW289752   4.926   0.618  12.124
29305SOL     OW89753  14.560   8.023   9.011
29305SOL    HW189754  14.501   7.948   9.013
29305SOL    HW289755  14.608   8.018   9.094
29306SOL     OW89756  13.563  14.064   7.448
29306SOL    HW189757  13.617  13.991   7.419
29306SOL    HW289758  13.622  14.139   7.449
29307SOL     OW89759   0.583   0.187   6.926
29307SOL    HW189760   0.662   0.172   6.978
29307SOL    HW289761   0.529   0.243   6.981
29308SOL     OW89762   5.128  14.434   2.001
29308SOL    HW189763   5.040  14.434   2.040
29308SOL    HW289764   5.133  14.352   1.953
29309SOL     OW89765   4.719   9.977   1.654
29309SOL    HW189766   4.781   9.923   1.604
29309SOL    HW289767   4.744  10.067   1.633
29310SOL     OW89768   1.296   2.887  11.867
29310SOL    HW189769   1.384   2.872  11.901
29310SOL    HW289770   1.269   2.970  11.906
29311SOL     OW89771  12.881  10.352   1.659
29311SOL    HW189772  12.800  10.303   1.673
29311SOL    HW289773  12.947  10.284   1.645
29312SOL     OW89774  13.723   2.515   2.517
29312SOL    HW189775  13.798   2.573   2.501
29312SOL    HW289776  13.759   2.444   2.571
29313SOL     OW89777   5.357  11.336   5.852
29313SOL    HW189778   5.275  11.303   5.815
29313SOL    HW289779   5.422  11.269   5.832
29314SOL     OW89780  14.025   5.147  11.671
29314SOL    HW189781  14.015   5.229  11.624
29314SOL    HW289782  13.947   5.143  11.727
29315SOL     OW89783   8.193  13.469   0.411
29315SOL    HW189784   8.197  13.412   0.334
29315SOL    HW289785   8.247  13.424   0.477
29316SOL     OW89786   9.961   6.171   9.088
29316SOL    HW189787   9.913   6.226   9.149
29316SOL    HW289788   9.904   6.165   9.011
29317SOL     OW89789   0.740   9.898   7.463
29317SOL    HW189790   0.706   9.822   7.417
29317SOL    HW289791   0.821   9.920   7.417
29318SOL     OW89792   3.191   3.128  14.318
29318SOL    HW189793   3.282   3.107  14.296
29318SOL    HW289794   3.163   3.056  14.374
29319SOL     OW89795   1.048  10.806   5.628
29319SOL    HW189796   1.062  10.842   5.541
29319SOL    HW289797   1.122  10.748   5.643
29320SOL     OW89798  12.508   3.206  14.371
29320SOL    HW189799  12.552   3.143  14.428
29320SOL    HW289800  12.570   3.219  14.298
29321SOL     OW89801  13.744  14.727   4.900
29321SOL    HW189802  13.732  14.784   4.824
29321SOL    HW289803  13.662  14.734   4.949
29322SOL     OW89804   2.748  12.137   6.946
29322SOL    HW189805   2.828  12.087   6.958
29322SOL    HW289806   2.702  12.092   6.874
29323SOL     OW89807   5.464  14.609  14.255
29323SOL    HW189808   5.499  14.650  14.176
29323SOL    HW289809   5.464  14.678  14.321
29324SOL     OW89810  11.946  13.745   9.370
29324SOL    HW189811  11.961  13.819   9.312
29324SOL    HW289812  11.858  13.758   9.405
29325SOL     OW89813  14.521  14.464   2.614
29325SOL    HW189814  14.437  14.421   2.602
29325SOL    HW289815  14.576  14.397   2.656
29326SOL     OW89816   8.670   2.537  13.358
29326SOL    HW189817   8.585   2.559  13.320
29326SOL    HW289818   8.651   2.516  13.449
29327SOL     OW89819  14.818  10.600   5.377
29327SOL    HW189820  14.812  10.517   5.424
29327SOL    HW289821  14.746  10.598   5.314
29328SOL     OW89822   5.063   5.759   0.417
29328SOL    HW189823   5.038   5.800   0.500
29328SOL    HW289824   5.152   5.792   0.400
29329SOL     OW89825  14.366   1.231   1.850
29329SOL    HW189826  14.334   1.235   1.760
29329SOL    HW289827  14.330   1.149   1.885
29330SOL     OW89828  10.110   9.403  11.945
29330SOL    HW189829  10.092   9.350  11.868
29330SOL    HW289830  10.078   9.490  11.923
29331SOL     OW89831   8.538   4.542  14.397
29331SOL    HW189832   8.573   4.571  14.481
29331SOL    HW289833   8.611   4.551  14.336
29332SOL     OW89834   6.426   9.510  13.129
29332SOL    HW189835   6.349   9.550  13.088
29332SOL    HW289836   6.392   9.471  13.210
29333SOL     OW89837  13.578  12.266   2.105
29333SOL    HW189838  13.624  12.265   2.188
29333SOL    HW289839  13.490  12.297   2.127
29334SOL     OW89840  10.306   6.778   2.991
29334SOL    HW189841  10.240   6.798   3.058
29334SOL    HW289842  10.256   6.772   2.909
29335SOL     OW89843   8.622   9.621   2.778
29335SOL    HW189844   8.603   9.564   2.852
29335SOL    HW289845   8.605   9.709   2.810
29336SOL     OW89846   5.110  10.958   2.417
29336SOL    HW189847   5.075  10.906   2.345
29336SOL    HW289848   5.033  10.982   2.469
29337SOL     OW89849   0.081  14.064   8.354
29337SOL    HW189850   0.074  14.141   8.411
29337SOL    HW289851   0.036  13.995   8.402
29338SOL     OW89852   1.916  10.929   3.984
29338SOL    HW189853   1.866  10.858   4.025
29338SOL    HW289854   1.994  10.938   4.039
29339SOL     OW89855  13.495   7.100  11.011
29339SOL    HW189856  13.505   7.047  10.932
29339SOL    HW289857  13.438   7.173  10.984
29340SOL     OW89858   5.541  10.615   2.497
29340SOL    HW189859   5.615  10.639   2.441
29340SOL    HW289860   5.567  10.644   2.585
29341SOL     OW89861   8.046  13.878   6.221
29341SOL    HW189862   8.085  13.823   6.288
29341SOL    HW289863   7.976  13.925   6.266
29342SOL     OW89864  14.346  11.681   6.240
29342SOL    HW189865  14.282  11.609   6.246
29342SOL    HW289866  14.429  11.640   6.266
29343SOL     OW89867  14.007  13.456  12.785
29343SOL    HW189868  13.934  13.518  12.779
29343SOL    HW289869  14.084  13.507  12.760
29344SOL     OW89870  11.841   1.580   8.317
29344SOL    HW189871  11.782   1.642   8.275
29344SOL    HW289872  11.846   1.609   8.408
29345SOL     OW89873   2.246   6.033   9.216
29345SOL    HW189874   2.167   5.982   9.197
29345SOL    HW289875   2.239   6.054   9.309
29346SOL     OW89876   3.554   6.133   0.226
29346SOL    HW189877   3.513   6.197   0.168
29346SOL    HW289878   3.639   6.115   0.185
29347SOL     OW89879   9.857   9.797  11.925
29347SOL    HW189880   9.943   9.762  11.902
29347SOL    HW289881   9.803   9.782  11.847
29348SOL     OW89882   7.150   7.199   5.269
29348SOL    HW189883   7.177   7.239   5.186
29348SOL    HW289884   7.229   7.200   5.322
29349SOL     OW89885   0.452   6.174   0.690
29349SOL    HW189886   0.422   6.261   0.667
29349SOL    HW289887   0.471   6.180   0.784
29350SOL     OW89888   5.339   8.498   4.237
29350SOL    HW189889   5.394   8.474   4.312
29350SOL    HW289890   5.391   8.476   4.160
29351SOL     OW89891   5.812  13.034   6.499
29351SOL    HW189892   5.823  13.063   6.409
29351SOL    HW289893   5.894  13.058   6.542
29352SOL     OW89894  12.911   6.165   6.112
29352SOL    HW189895  12.847   6.225   6.149
29352SOL    HW289896  12.959   6.217   6.048
29353SOL     OW89897   9.904   2.805   5.593
29353SOL    HW189898   9.897   2.723   5.544
29353SOL    HW289899   9.997   2.827   5.592
29354SOL     OW89900  13.392   1.325   8.401
29354SOL    HW189901  13.456   1.334   8.471
29354SOL    HW289902  13.308   1.316   8.446
29355SOL     OW89903   6.092   6.909   6.337
29355SOL    HW189904   6.093   6.939   6.428
29355SOL    HW289905   6.158   6.840   6.333
29356SOL     OW89906   7.728   7.218   0.342
29356SOL    HW189907   7.744   7.311   0.357
29356SOL    HW289908   7.772   7.199   0.258
29357SOL     OW89909  10.080  12.258   5.759
29357SOL    HW189910   9.994  12.244   5.719
29357SOL    HW289911  10.142  12.243   5.688
29358SOL     OW89912   4.005  14.383  12.581
29358SOL    HW189913   3.911  14.368  12.565
29358SOL    HW289914   4.024  14.332  12.659
29359SOL     OW89915   1.094   4.355  11.796
29359SOL    HW189916   1.009   4.376  11.757
29359SOL    HW289917   1.154   4.420  11.761
29360SOL     OW89918  12.177   1.394   0.637
29360SOL    HW189919  12.142   1.483   0.642
29360SOL    HW289920  12.271   1.405   0.645
29361SOL     OW89921   6.716  10.337   9.442
29361SOL    HW189922   6.767  10.365   9.518
29361SOL    HW289923   6.777  10.347   9.368
29362SOL     OW89924   1.714  13.981  10.624
29362SOL    HW189925   1.656  14.031  10.567
29362SOL    HW289926   1.795  14.032  10.627
29363SOL     OW89927  14.111   9.773  13.570
29363SOL    HW189928  14.197   9.734  13.588
29363SOL    HW289929  14.129   9.867  13.560
29364SOL     OW89930  13.089   3.145   8.207
29364SOL    HW189931  12.998   3.148   8.178
29364SOL    HW289932  13.140   3.167   8.129
29365SOL     OW89933   0.472   5.112   4.474
29365SOL    HW189934   0.534   5.158   4.530
29365SOL    HW289935   0.514   5.111   4.388
29366SOL     OW89936  13.418   6.281   6.106
29366SOL    HW189937  13.329   6.251   6.088
29366SOL    HW289938  13.428   6.360   6.054
29367SOL     OW89939  14.368   9.326  13.858
29367SOL    HW189940  14.387   9.383  13.784
29367SOL    HW289941  14.425   9.358  13.928
29368SOL     OW89942   3.798  12.612  10.356
29368SOL    HW189943   3.867  12.677  10.364
29368SOL    HW289944   3.721  12.662  10.329
29369SOL     OW89945   5.769   6.047   3.971
29369SOL    HW189946   5.776   5.995   4.051
29369SOL    HW289947   5.839   6.014   3.915
29370SOL     OW89948  11.706   7.157   7.313
29370SOL    HW189949  11.626   7.184   7.359
29370SOL    HW289950  11.735   7.078   7.359
29371SOL     OW89951  13.838  14.602   1.877
29371SOL    HW189952  13.893  14.662   1.827
29371SOL    HW289953  13.764  14.655   1.906
29372SOL     OW89954  14.068   3.496   2.535
29372SOL    HW189955  13.998   3.482   2.471
29372SOL    HW289956  14.028   3.550   2.603
29373SOL     OW89957   6.715  12.514   4.948
29373SOL    HW189958   6.779  12.563   4.896
29373SOL    HW289959   6.755  12.509   5.035
29374SOL     OW89960   7.572  12.432   4.547
29374SOL    HW189961   7.603  12.371   4.480
29374SOL    HW289962   7.616  12.514   4.526
29375SOL     OW89963  11.661   5.695  11.776
29375SOL    HW189964  11.715   5.760  11.731
29375SOL    HW289965  11.715   5.616  11.780
29376SOL     OW89966   4.779  13.137  12.826
29376SOL    HW189967   4.730  13.061  12.857
29376SOL    HW289968   4.770  13.134  12.730
29377SOL     OW89969  11.075  14.615   2.561
29377SOL    HW189970  11.004  14.589   2.619
29377SOL    HW289971  11.103  14.533   2.520
29378SOL     OW89972  12.779  14.282  13.411
29378SOL    HW189973  12.710  14.333  13.454
29378SOL    HW289974  12.734  14.204  13.379
29379SOL     OW89975   6.467  14.219   5.171
29379SOL    HW189976   6.536  14.283   5.186
29379SOL    HW289977   6.499  14.165   5.099
29380SOL     OW89978  14.305   8.494  12.854
29380SOL    HW189979  14.324   8.585  12.831
29380SOL    HW289980  14.366   8.442  12.801
29381SOL     OW89981   6.798   0.209   2.613
29381SOL    HW189982   6.736   0.228   2.543
29381SOL    HW289983   6.803   0.290   2.663
29382SOL     OW89984  10.712   8.262  11.449
29382SOL    HW189985  10.639   8.242  11.508
29382SOL    HW289986  10.776   8.306  11.504
29383SOL     OW89987   9.406   6.604  10.236
29383SOL    HW189988   9.408   6.553  10.316
29383SOL    HW289989   9.320   6.588  10.198
29384SOL     OW89990  14.630   4.977  13.476
29384SOL    HW189991  14.665   5.065  13.459
29384SOL    HW289992  14.690   4.940  13.540
29385SOL     OW89993   1.520  14.817   4.287
29385SOL    HW189994   1.476   0.017   4.263
29385SOL    HW289995   1.612  14.841   4.297
29386SOL     OW89996   5.189   0.255   9.209
29386SOL    HW189997   5.140   0.247   9.291
29386SOL    HW289998   5.271   0.298   9.234
29387SOL     OW89999   6.552   4.234   5.737
29387SOL    HW190000   6.545   4.140   5.718
29387SOL    HW290001   6.632   4.241   5.789
29388SOL     OW90002  11.620  12.949  12.189
29388SOL    HW190003  11.651  12.863  12.215
29388SOL    HW290004  11.669  12.969  12.109
29389SOL     OW90005   3.421  10.889   5.562
29389SOL    HW190006   3.480  10.906   5.489
29389SOL    HW290007   3.415  10.793   5.567
29390SOL     OW90008  11.636   2.120  13.671
29390SOL    HW190009  11.591   2.198  13.638
29390SOL    HW290010  11.704   2.154  13.729
29391SOL     OW90011  11.852  11.530   1.980
29391SOL    HW190012  11.774  11.479   1.958
29391SOL    HW290013  11.925  11.475   1.954
29392SOL     OW90014   0.678   6.765   8.824
29392SOL    HW190015   0.743   6.811   8.878
29392SOL    HW290016   0.600   6.760   8.880
29393SOL     OW90017  13.211   0.660   8.194
29393SOL    HW190018  13.288   0.695   8.240
29393SOL    HW290019  13.242   0.579   8.154
29394SOL     OW90020  11.008   1.271  14.389
29394SOL    HW190021  11.002   1.360  14.355
29394SOL    HW290022  10.918   1.246  14.409
29395SOL     OW90023   7.127  13.456   9.555
29395SOL    HW190024   7.209  13.505   9.549
29395SOL    HW290025   7.075  13.487   9.480
29396SOL     OW90026  10.255  13.282   1.370
29396SOL    HW190027  10.187  13.329   1.321
29396SOL    HW290028  10.258  13.195   1.331
29397SOL     OW90029   4.298   8.007  11.639
29397SOL    HW190030   4.283   8.068  11.712
29397SOL    HW290031   4.351   8.056  11.576
29398SOL     OW90032   4.555   6.107  12.063
29398SOL    HW190033   4.538   6.022  12.023
29398SOL    HW290034   4.622   6.089  12.130
29399SOL     OW90035  10.960   0.165   6.056
29399SOL    HW190036  11.011   0.236   6.094
29399SOL    HW290037  10.882   0.157   6.111
29400SOL     OW90038   6.783   4.615   6.383
29400SOL    HW190039   6.858   4.635   6.327
29400SOL    HW290040   6.822   4.592   6.468
29401SOL     OW90041  14.159   0.573   1.400
29401SOL    HW190042  14.197   0.583   1.487
29401SOL    HW290043  14.206   0.499   1.361
29402SOL     OW90044   9.705   3.282   6.329
29402SOL    HW190045   9.765   3.351   6.358
29402SOL    HW290046   9.758   3.229   6.269
29403SOL     OW90047   5.345  12.662  10.486
29403SOL    HW190048   5.322  12.643  10.395
29403SOL    HW290049   5.261  12.657  10.533
29404SOL     OW90050   9.786   2.234   1.380
29404SOL    HW190051   9.865   2.184   1.401
29404SOL    HW290052   9.818   2.322   1.362
29405SOL     OW90053   7.464   8.091   3.291
29405SOL    HW190054   7.389   8.085   3.232
29405SOL    HW290055   7.490   8.183   3.287
29406SOL     OW90056   2.023   6.038  14.433
29406SOL    HW190057   1.988   6.123  14.407
29406SOL    HW290058   2.118   6.051  14.434
29407SOL     OW90059  13.087  10.644   0.719
29407SOL    HW190060  13.061  10.554   0.699
29407SOL    HW290061  13.021  10.699   0.678
29408SOL     OW90062   9.277   2.794   2.575
29408SOL    HW190063   9.230   2.848   2.511
29408SOL    HW290064   9.362   2.838   2.586
29409SOL     OW90065   2.398   9.533   9.815
29409SOL    HW190066   2.379   9.615   9.769
29409SOL    HW290067   2.465   9.490   9.761
29410SOL     OW90068   7.973   4.102  12.911
29410SOL    HW190069   7.973   4.148  12.827
29410SOL    HW290070   7.977   4.009  12.888
29411SOL     OW90071   1.059   7.373   0.017
29411SOL    HW190072   1.125   7.380   0.086
29411SOL    HW290073   1.108   7.346  14.821
29412SOL     OW90074   5.184   6.064   3.739
29412SOL    HW190075   5.251   6.125   3.772
29412SOL    HW290076   5.112   6.072   3.801
29413SOL     OW90077   7.460  11.663   1.573
29413SOL    HW190078   7.450  11.716   1.494
29413SOL    HW290079   7.508  11.719   1.634
29414SOL     OW90080   3.067  10.770  14.044
29414SOL    HW190081   2.990  10.726  14.009
29414SOL    HW290082   3.113  10.803  13.967
29415SOL     OW90083  13.677   4.936   1.332
29415SOL    HW190084  13.665   5.026   1.302
29415SOL    HW290085  13.743   4.900   1.272
29416SOL     OW90086   4.922   9.246  12.860
29416SOL    HW190087   4.998   9.264  12.805
29416SOL    HW290088   4.858   9.312  12.835
29417SOL     OW90089   0.174   2.931   1.144
29417SOL    HW190090   0.217   2.846   1.142
29417SOL    HW290091   0.211   2.974   1.222
29418SOL     OW90092   1.819   2.287   9.331
29418SOL    HW190093   1.813   2.334   9.248
29418SOL    HW290094   1.910   2.260   9.338
29419SOL     OW90095   1.270   9.581   3.663
29419SOL    HW190096   1.318   9.572   3.580
29419SOL    HW290097   1.232   9.668   3.659
29420SOL     OW90098  12.256   9.212   1.901
29420SOL    HW190099  12.235   9.255   1.984
29420SOL    HW290100  12.294   9.128   1.927
29421SOL     OW90101  12.924   8.254  14.688
29421SOL    HW190102  12.949   8.290  14.773
29421SOL    HW290103  12.841   8.209  14.704
29422SOL     OW90104  12.661   9.651  14.075
29422SOL    HW190105  12.569   9.667  14.052
29422SOL    HW290106  12.658   9.608  14.160
29423SOL     OW90107  13.776   4.765   2.592
29423SOL    HW190108  13.744   4.718   2.514
29423SOL    HW290109  13.696   4.788   2.640
29424SOL     OW90110  14.857   4.487   7.659
29424SOL    HW190111   0.045   4.546   7.630
29424SOL    HW290112  14.852   4.499   7.754
29425SOL     OW90113  13.774   5.083   2.921
29425SOL    HW190114  13.719   5.133   2.980
29425SOL    HW290115  13.774   4.994   2.957
29426SOL     OW90116   4.012  13.821   7.444
29426SOL    HW190117   4.065  13.777   7.510
29426SOL    HW290118   4.063  13.815   7.364
29427SOL     OW90119  11.628   2.769   3.188
29427SOL    HW190120  11.630   2.717   3.108
29427SOL    HW290121  11.537   2.799   3.195
29428SOL     OW90122  11.462   3.607  11.006
29428SOL    HW190123  11.539   3.656  11.033
29428SOL    HW290124  11.416   3.588  11.088
29429SOL     OW90125   5.230   9.738   8.955
29429SOL    HW190126   5.319   9.702   8.954
29429SOL    HW290127   5.241   9.830   8.978
29430SOL     OW90128   6.288   6.755   0.568
29430SOL    HW190129   6.213   6.814   0.563
29430SOL    HW290130   6.363   6.808   0.541
29431SOL     OW90131   6.822   9.027  12.536
29431SOL    HW190132   6.806   8.939  12.503
29431SOL    HW290133   6.747   9.046  12.591
29432SOL     OW90134  14.251   9.559   2.035
29432SOL    HW190135  14.326   9.532   1.981
29432SOL    HW290136  14.272   9.527   2.123
29433SOL     OW90137  10.219   9.827   8.938
29433SOL    HW190138  10.161   9.812   8.863
29433SOL    HW290139  10.197   9.914   8.969
29434SOL     OW90140   4.858   4.736   2.910
29434SOL    HW190141   4.782   4.731   2.853
29434SOL    HW290142   4.824   4.713   2.997
29435SOL     OW90143   5.485   6.571   9.449
29435SOL    HW190144   5.455   6.646   9.398
29435SOL    HW290145   5.580   6.585   9.459
29436SOL     OW90146  12.733  13.824   5.220
29436SOL    HW190147  12.779  13.908   5.227
29436SOL    HW290148  12.692  13.827   5.133
29437SOL     OW90149   1.576   0.799   1.996
29437SOL    HW190150   1.608   0.749   2.071
29437SOL    HW290151   1.482   0.809   2.013
29438SOL     OW90152  10.956   9.052   0.669
29438SOL    HW190153  10.931   9.044   0.762
29438SOL    HW290154  10.888   9.107   0.630
29439SOL     OW90155   9.622  11.175   7.728
29439SOL    HW190156   9.597  11.201   7.817
29439SOL    HW290157   9.544  11.130   7.694
29440SOL     OW90158   8.534   4.548   8.261
29440SOL    HW190159   8.533   4.506   8.175
29440SOL    HW290160   8.444   4.579   8.273
29441SOL     OW90161   2.939  10.722   8.354
29441SOL    HW190162   2.943  10.730   8.259
29441SOL    HW290163   2.851  10.689   8.372
29442SOL     OW90164   1.893  13.304  12.933
29442SOL    HW190165   1.842  13.321  12.854
29442SOL    HW290166   1.905  13.209  12.933
29443SOL     OW90167   1.576   3.202   8.766
29443SOL    HW190168   1.663   3.180   8.734
29443SOL    HW290169   1.517   3.148   8.713
29444SOL     OW90170   9.480   1.196  10.217
29444SOL    HW190171   9.554   1.254  10.237
29444SOL    HW290172   9.419   1.251  10.168
29445SOL     OW90173  13.917   8.936  14.366
29445SOL    HW190174  14.008   8.935  14.337
29445SOL    HW290175  13.871   8.881  14.303
29446SOL     OW90176   1.894   0.504   7.168
29446SOL    HW190177   1.854   0.576   7.119
29446SOL    HW290178   1.988   0.522   7.163
29447SOL     OW90179   4.701   3.599   6.050
29447SOL    HW190180   4.768   3.652   6.005
29447SOL    HW290181   4.640   3.663   6.086
29448SOL     OW90182   0.307   4.750   0.948
29448SOL    HW190183   0.393   4.771   0.913
29448SOL    HW290184   0.285   4.665   0.911
29449SOL     OW90185   3.671  14.303   7.039
29449SOL    HW190186   3.719  14.234   6.994
29449SOL    HW290187   3.739  14.365   7.067
29450SOL     OW90188   0.924   0.030  11.512
29450SOL    HW190189   1.007   0.035  11.559
29450SOL    HW290190   0.897   0.121  11.502
29451SOL     OW90191  11.041  12.013   3.757
29451SOL    HW190192  10.992  11.941   3.718
29451SOL    HW290193  10.984  12.048   3.826
29452SOL     OW90194  13.909  10.954  12.667
29452SOL    HW190195  13.928  10.868  12.706
29452SOL    HW290196  13.829  10.939  12.616
29453SOL     OW90197   9.958   8.872  14.468
29453SOL    HW190198  10.017   8.903  14.537
29453SOL    HW290199   9.873   8.910  14.490
29454SOL     OW90200   0.415   6.193   2.557
29454SOL    HW190201   0.335   6.149   2.527
29454SOL    HW290202   0.407   6.283   2.525
29455SOL     OW90203  14.002  10.056   4.444
29455SOL    HW190204  13.990  10.048   4.350
29455SOL    HW290205  14.046   9.975   4.470
29456SOL     OW90206   0.891   5.556   0.874
29456SOL    HW190207   0.845   5.630   0.833
29456SOL    HW290208   0.968   5.542   0.819
29457SOL     OW90209  13.724   2.785  11.409
29457SOL    HW190210  13.811   2.814  11.435
29457SOL    HW290211  13.695   2.729  11.481
29458SOL     OW90212   7.067   2.971   5.813
29458SOL    HW190213   7.022   2.986   5.896
29458SOL    HW290214   7.149   3.019   5.821
29459SOL     OW90215   7.091  11.520  13.663
29459SOL    HW190216   7.014  11.528  13.606
29459SOL    HW290217   7.054  11.511  13.751
29460SOL     OW90218   1.084  14.342   8.426
29460SOL    HW190219   1.159  14.326   8.369
29460SOL    HW290220   1.109  14.304   8.510
29461SOL     OW90221  10.396  12.525   3.907
29461SOL    HW190222  10.416  12.543   3.815
29461SOL    HW290223  10.390  12.430   3.912
29462SOL     OW90224   3.306  11.458  13.439
29462SOL    HW190225   3.315  11.513  13.361
29462SOL    HW290226   3.385  11.475  13.490
29463SOL     OW90227   0.747   2.828   2.185
29463SOL    HW190228   0.729   2.888   2.258
29463SOL    HW290229   0.817   2.771   2.216
29464SOL     OW90230   0.980   2.341   6.986
29464SOL    HW190231   0.896   2.331   6.942
29464SOL    HW290232   1.024   2.411   6.938
29465SOL     OW90233   6.334   1.861   5.241
29465SOL    HW190234   6.247   1.847   5.279
29465SOL    HW290235   6.336   1.953   5.216
29466SOL     OW90236  11.941   7.036  13.250
29466SOL    HW190237  12.032   7.067  13.257
29466SOL    HW290238  11.947   6.942  13.270
29467SOL     OW90239   5.349  10.308   6.608
29467SOL    HW190240   5.370  10.259   6.528
29467SOL    HW290241   5.267  10.352   6.588
29468SOL     OW90242  12.193  12.154  12.306
29468SOL    HW190243  12.222  12.185  12.220
29468SOL    HW290244  12.133  12.082  12.287
29469SOL     OW90245  14.553   5.618   8.862
29469SOL    HW190246  14.601   5.544   8.824
29469SOL    HW290247  14.501   5.653   8.789
29470SOL     OW90248  12.791  13.644   2.006
29470SOL    HW190249  12.823  13.568   2.056
29470SOL    HW290250  12.696  13.635   2.007
29471SOL     OW90251   5.222  11.659   3.303
29471SOL    HW190252   5.308  11.618   3.294
29471SOL    HW290253   5.169  11.620   3.233
29472SOL     OW90254   7.112   9.082   5.533
29472SOL    HW190255   7.180   9.141   5.499
29472SOL    HW290256   7.158   9.000   5.549
29473SOL     OW90257   6.385   6.182  12.504
29473SOL    HW190258   6.455   6.138  12.553
29473SOL    HW290259   6.426   6.210  12.422
29474SOL     OW90260  10.701   4.144   7.591
29474SOL    HW190261  10.769   4.168   7.654
29474SOL    HW290262  10.648   4.078   7.635
29475SOL     OW90263   9.875  14.646   3.494
29475SOL    HW190264   9.914  14.728   3.464
29475SOL    HW290265   9.810  14.672   3.558
29476SOL     OW90266   4.176  12.653   8.740
29476SOL    HW190267   4.172  12.686   8.830
29476SOL    HW290268   4.171  12.557   8.750
29477SOL     OW90269   7.388  10.346   5.854
29477SOL    HW190270   7.396  10.372   5.763
29477SOL    HW290271   7.415  10.255   5.856
29478SOL     OW90272  10.114   1.081   1.484
29478SOL    HW190273  10.087   0.989   1.478
29478SOL    HW290274  10.188   1.088   1.424
29479SOL     OW90275   3.856  10.865  11.887
29479SOL    HW190276   3.871  10.774  11.910
29479SOL    HW290277   3.838  10.864  11.793
29480SOL     OW90278   8.170  14.328   7.677
29480SOL    HW190279   8.239  14.364   7.620
29480SOL    HW290280   8.209  14.327   7.764
29481SOL     OW90281   3.304   3.892   5.999
29481SOL    HW190282   3.359   3.888   6.076
29481SOL    HW290283   3.277   3.802   5.984
29482SOL     OW90284   7.001  13.037   8.741
29482SOL    HW190285   6.931  13.048   8.806
29482SOL    HW290286   7.058  13.113   8.755
29483SOL     OW90287  13.584  14.543  11.526
29483SOL    HW190288  13.563  14.620  11.579
29483SOL    HW290289  13.513  14.537  11.463
29484SOL     OW90290   1.879   0.821   9.813
29484SOL    HW190291   1.821   0.894   9.837
29484SOL    HW290292   1.956   0.833   9.869
29485SOL     OW90293   8.964  10.666   1.911
29485SOL    HW190294   8.996  10.694   1.996
29485SOL    HW290295   9.022  10.708   1.848
29486SOL     OW90296   9.683   0.670  12.406
29486SOL    HW190297   9.614   0.731  12.381
29486SOL    HW290298   9.744   0.722  12.458
29487SOL     OW90299  12.001  12.222   2.624
29487SOL    HW190300  12.020  12.268   2.543
29487SOL    HW290301  11.984  12.132   2.597
29488SOL     OW90302  10.145   8.287   5.966
29488SOL    HW190303  10.181   8.373   5.944
29488SOL    HW290304  10.185   8.264   6.049
29489SOL     OW90305  13.553   5.119   3.496
29489SOL    HW190306  13.468   5.082   3.519
29489SOL    HW290307  13.570   5.086   3.407
29490SOL     OW90308  14.829   8.519  14.692
29490SOL    HW190309   0.008   8.573  14.741
29490SOL    HW290310  14.857   8.527  14.601
29491SOL     OW90311   4.475   3.501   3.325
29491SOL    HW190312   4.384   3.496   3.352
29491SOL    HW290313   4.483   3.586   3.282
29492SOL     OW90314   1.864  13.352  12.357
29492SOL    HW190315   1.921  13.275  12.360
29492SOL    HW290316   1.911  13.413  12.300
29493SOL     OW90317   9.942   6.726   0.554
29493SOL    HW190318   9.989   6.654   0.595
29493SOL    HW290319  10.010   6.792   0.537
29494SOL     OW90320   9.830   8.092   6.928
29494SOL    HW190321   9.786   8.163   6.974
29494SOL    HW290322   9.886   8.052   6.995
29495SOL     OW90323   0.108   0.638  13.208
29495SOL    HW190324   0.176   0.575  13.187
29495SOL    HW290325   0.041   0.587  13.254
29496SOL     OW90326   2.357   8.056   1.971
29496SOL    HW190327   2.382   7.970   1.937
29496SOL    HW290328   2.392   8.059   2.060
29497SOL     OW90329   4.520   0.527  11.494
29497SOL    HW190330   4.580   0.601  11.483
29497SOL    HW290331   4.476   0.519  11.409
29498SOL     OW90332  10.419   3.633  12.097
29498SOL    HW190333  10.421   3.628  12.192
29498SOL    HW290334  10.425   3.727  12.077
29499SOL     OW90335  10.885   4.754   7.660
29499SOL    HW190336  10.805   4.732   7.612
29499SOL    HW290337  10.945   4.683   7.639
29500SOL     OW90338   5.929   2.772   4.797
29500SOL    HW190339   5.912   2.712   4.725
29500SOL    HW290340   5.842   2.790   4.834
29501SOL     OW90341   8.877  13.276  12.666
29501SOL    HW190342   8.842  13.316  12.746
29501SOL    HW290343   8.943  13.215  12.698
29502SOL     OW90344  11.581   1.565  14.254
29502SOL    HW190345  11.569   1.479  14.294
29502SOL    HW290346  11.672   1.587  14.269
29503SOL     OW90347   5.553   1.040   0.378
29503SOL    HW190348   5.531   1.079   0.463
29503SOL    HW290349   5.487   0.971   0.366
29504SOL     OW90350   7.787  11.992  13.021
29504SOL    HW190351   7.699  11.956  13.007
29504SOL    HW290352   7.778  12.048  13.098
29505SOL     OW90353  10.446  10.262   0.289
29505SOL    HW190354  10.388  10.321   0.335
29505SOL    HW290355  10.535  10.290   0.313
29506SOL     OW90356   4.557   4.526   0.379
29506SOL    HW190357   4.624   4.577   0.335
29506SOL    HW290358   4.605   4.473   0.443
29507SOL     OW90359  13.261   3.241   7.195
29507SOL    HW190360  13.214   3.185   7.134
29507SOL    HW290361  13.319   3.294   7.140
29508SOL     OW90362   6.185  14.508   0.172
29508SOL    HW190363   6.201  14.439   0.236
29508SOL    HW290364   6.137  14.575   0.221
29509SOL     OW90365  11.530   4.989  10.855
29509SOL    HW190366  11.619   5.020  10.841
29509SOL    HW290367  11.539   4.917  10.918
29510SOL     OW90368   9.229   3.582   4.878
29510SOL    HW190369   9.280   3.583   4.959
29510SOL    HW290370   9.144   3.618   4.902
29511SOL     OW90371   4.099   3.181   3.992
29511SOL    HW190372   4.041   3.126   4.045
29511SOL    HW290373   4.148   3.232   4.056
29512SOL     OW90374   1.321   9.210  13.525
29512SOL    HW190375   1.377   9.266  13.579
29512SOL    HW290376   1.376   9.135  13.503
29513SOL     OW90377  13.069  13.287  11.634
29513SOL    HW190378  13.117  13.229  11.575
29513SOL    HW290379  12.977  13.269  11.617
29514SOL     OW90380  12.232   3.595  12.443
29514SOL    HW190381  12.156   3.630  12.489
29514SOL    HW290382  12.307   3.615  12.500
29515SOL     OW90383   9.768   9.501   6.579
29515SOL    HW190384   9.793   9.471   6.492
29515SOL    HW290385   9.679   9.535   6.568
29516SOL     OW90386   3.029   3.563   0.543
29516SOL    HW190387   3.063   3.530   0.626
29516SOL    HW290388   2.951   3.509   0.526
29517SOL     OW90389  12.383  10.064  11.640
29517SOL    HW190390  12.411  10.089  11.728
29517SOL    HW290391  12.334   9.983  11.652
29518SOL     OW90392  13.503   8.234   4.359
29518SOL    HW190393  13.423   8.200   4.397
29518SOL    HW290394  13.480   8.322   4.329
29519SOL     OW90395   4.640  10.954  12.768
29519SOL    HW190396   4.631  10.869  12.725
29519SOL    HW290397   4.703  10.939  12.838
29520SOL     OW90398   9.689   7.951   2.262
29520SOL    HW190399   9.766   7.959   2.317
29520SOL    HW290400   9.724   7.934   2.174
29521SOL     OW90401  12.485   0.591   4.666
29521SOL    HW190402  12.424   0.556   4.601
29521SOL    HW290403  12.540   0.653   4.617
29522SOL     OW90404   9.866   8.468  11.039
29522SOL    HW190405   9.944   8.438  11.086
29522SOL    HW290406   9.871   8.563  11.042
29523SOL     OW90407   0.290   3.192  13.198
29523SOL    HW190408   0.381   3.182  13.229
29523SOL    HW290409   0.271   3.285  13.209
29524SOL     OW90410   9.586   6.304  14.459
29524SOL    HW190411   9.581   6.245  14.534
29524SOL    HW290412   9.679   6.310  14.439
29525SOL     OW90413   7.669  13.803   4.575
29525SOL    HW190414   7.757  13.794   4.538
29525SOL    HW290415   7.630  13.716   4.565
29526SOL     OW90416  12.467   9.951  10.596
29526SOL    HW190417  12.374   9.963  10.577
29526SOL    HW290418  12.488   9.863  10.564
29527SOL     OW90419  14.400   0.342   8.423
29527SOL    HW190420  14.351   0.275   8.471
29527SOL    HW290421  14.359   0.424   8.448
29528SOL     OW90422   3.444   2.528  12.501
29528SOL    HW190423   3.473   2.475  12.427
29528SOL    HW290424   3.484   2.486  12.577
29529SOL     OW90425   2.174   3.140   4.792
29529SOL    HW190426   2.244   3.124   4.728
29529SOL    HW290427   2.098   3.163   4.739
29530SOL     OW90428   3.713  12.353  10.251
29530SOL    HW190429   3.758  12.418  10.305
29530SOL    HW290430   3.733  12.269  10.293
29531SOL     OW90431   3.095   2.513  10.740
29531SOL    HW190432   3.084   2.550  10.827
29531SOL    HW290433   3.091   2.419  10.753
29532SOL     OW90434  14.856   3.023   4.995
29532SOL    HW190435   0.024   2.998   5.073
29532SOL    HW290436  14.839   2.940   4.951
29533SOL     OW90437   9.336   0.396  14.004
29533SOL    HW190438   9.248   0.362  13.987
29533SOL    HW290439   9.384   0.379  13.923
29534SOL     OW90440   0.910   5.636   1.127
29534SOL    HW190441   0.921   5.572   1.198
29534SOL    HW290442   0.939   5.590   1.048
29535SOL     OW90443   7.854  12.592   2.893
29535SOL    HW190444   7.929  12.555   2.939
29535SOL    HW290445   7.881  12.595   2.801
29536SOL     OW90446  10.644  11.782   2.265
29536SOL    HW190447  10.624  11.742   2.350
29536SOL    HW290448  10.577  11.747   2.206
29537SOL     OW90449   4.517   4.069   2.977
29537SOL    HW190450   4.581   4.029   2.918
29537SOL    HW290451   4.432   4.043   2.941
29538SOL     OW90452   3.898   0.300   0.137
29538SOL    HW190453   3.930   0.269   0.052
29538SOL    HW290454   3.975   0.341   0.178
29539SOL     OW90455   3.462  11.193   0.419
29539SOL    HW190456   3.481  11.248   0.343
29539SOL    HW290457   3.372  11.163   0.405
29540SOL     OW90458   2.157   0.516  14.246
29540SOL    HW190459   2.195   0.519  14.159
29540SOL    HW290460   2.063   0.512  14.232
29541SOL     OW90461  12.595  10.282   8.783
29541SOL    HW190462  12.612  10.248   8.871
29541SOL    HW290463  12.552  10.210   8.737
29542SOL     OW90464   2.595   4.093  12.469
29542SOL    HW190465   2.664   4.091  12.535
29542SOL    HW290466   2.629   4.152  12.401
29543SOL     OW90467   4.620   0.626   0.996
29543SOL    HW190468   4.705   0.581   0.989
29543SOL    HW290469   4.568   0.569   1.053
29544SOL     OW90470   8.241   6.900   8.923
29544SOL    HW190471   8.148   6.875   8.924
29544SOL    HW290472   8.257   6.930   8.833
29545SOL     OW90473  10.519  12.131   0.970
29545SOL    HW190474  10.495  12.223   0.981
29545SOL    HW290475  10.551  12.104   1.056
29546SOL     OW90476  13.831  11.425   9.888
29546SOL    HW190477  13.744  11.439   9.850
29546SOL    HW290478  13.815  11.369   9.965
29547SOL     OW90479   3.028   1.949   3.149
29547SOL    HW190480   2.966   1.969   3.079
29547SOL    HW290481   3.099   1.901   3.106
29548SOL     OW90482   0.929  12.416   9.065
29548SOL    HW190483   0.918  12.485   8.999
29548SOL    HW290484   0.934  12.335   9.014
29549SOL     OW90485   0.141   5.182   9.399
29549SOL    HW190486   0.203   5.113   9.375
29549SOL    HW290487   0.065   5.166   9.343
29550SOL     OW90488  14.377   7.145   8.208
29550SOL    HW190489  14.313   7.075   8.221
29550SOL    HW290490  14.402   7.139   8.116
29551SOL     OW90491   4.593  13.799   3.666
29551SOL    HW190492   4.521  13.832   3.720
29551SOL    HW290493   4.649  13.752   3.727
29552SOL     OW90494  13.071   9.872   7.683
29552SOL    HW190495  13.044   9.960   7.708
29552SOL    HW290496  13.159   9.862   7.720
29553SOL     OW90497  13.480   6.447   9.668
29553SOL    HW190498  13.501   6.503   9.593
29553SOL    HW290499  13.555   6.387   9.674
29554SOL     OW90500   2.312  14.402  12.269
29554SOL    HW190501   2.273  14.348  12.201
29554SOL    HW290502   2.254  14.391  12.345
29555SOL     OW90503   3.514  14.614  11.077
29555SOL    HW190504   3.569  14.565  11.137
29555SOL    HW290505   3.534  14.578  10.991
29556SOL     OW90506   3.622  12.760   2.945
29556SOL    HW190507   3.653  12.702   3.015
29556SOL    HW290508   3.544  12.716   2.911
29557SOL     OW90509   6.688   0.882   7.173
29557SOL    HW190510   6.648   0.798   7.150
29557SOL    HW290511   6.614   0.942   7.182
29558SOL     OW90512  14.780   3.279  12.957
29558SOL    HW190513  14.729   3.297  13.036
29558SOL    HW290514  14.768   3.185  12.942
29559SOL     OW90515   0.032  11.083   1.964
29559SOL    HW190516   0.059  11.168   1.928
29559SOL    HW290517  14.833  11.101   2.011
29560SOL     OW90518   3.156   7.649   6.817
29560SOL    HW190519   3.172   7.743   6.808
29560SOL    HW290520   3.130   7.621   6.729
29561SOL     OW90521   0.714  11.189   6.058
29561SOL    HW190522   0.680  11.245   5.988
29561SOL    HW290523   0.666  11.218   6.136
29562SOL     OW90524   5.033   9.122   9.263
29562SOL    HW190525   4.967   9.058   9.238
29562SOL    HW290526   5.079   9.142   9.182
29563SOL     OW90527   6.578  12.305   2.459
29563SOL    HW190528   6.552  12.300   2.551
29563SOL    HW290529   6.646  12.238   2.450
29564SOL     OW90530   4.792  13.160  10.971
29564SOL    HW190531   4.803  13.098  10.899
29564SOL    HW290532   4.789  13.106  11.050
29565SOL     OW90533  14.275  11.837   6.465
29565SOL    HW190534  14.180  11.849   6.463
29565SOL    HW290535  14.294  11.776   6.395
29566SOL     OW90536  13.236   0.652   7.079
29566SOL    HW190537  13.290   0.588   7.125
29566SOL    HW290538  13.298   0.714   7.041
29567SOL     OW90539   2.979   6.741  10.793
29567SOL    HW190540   2.946   6.653  10.807
29567SOL    HW290541   2.925   6.796  10.850
29568SOL     OW90542   4.262   4.852   5.049
29568SOL    HW190543   4.202   4.777   5.051
29568SOL    HW290544   4.213   4.924   5.087
29569SOL     OW90545  12.347   9.802   4.626
29569SOL    HW190546  12.312   9.714   4.615
29569SOL    HW290547  12.336   9.843   4.540
29570SOL     OW90548  14.567   3.425  10.306
29570SOL    HW190549  14.605   3.351  10.258
29570SOL    HW290550  14.623   3.500  10.282
29571SOL     OW90551   5.253   0.838   3.233
29571SOL    HW190552   5.218   0.884   3.309
29571SOL    HW290553   5.262   0.747   3.261
29572SOL     OW90554   3.534   3.298  10.075
29572SOL    HW190555   3.458   3.315  10.130
29572SOL    HW290556   3.564   3.212  10.102
29573SOL     OW90557   5.436   4.309   0.518
29573SOL    HW190558   5.410   4.374   0.453
29573SOL    HW290559   5.354   4.278   0.556
29574SOL     OW90560  13.082  10.712   3.022
29574SOL    HW190561  13.177  10.707   3.012
29574SOL    HW290562  13.066  10.688   3.113
29575SOL     OW90563   7.003   6.296   9.214
29575SOL    HW190564   7.055   6.362   9.167
29575SOL    HW290565   7.062   6.262   9.281
29576SOL     OW90566  13.036   8.972   3.721
29576SOL    HW190567  12.972   9.044   3.720
29576SOL    HW290568  13.120   9.015   3.705
29577SOL     OW90569   8.685   7.673   1.982
29577SOL    HW190570   8.757   7.700   1.925
29577SOL    HW290571   8.703   7.582   2.002
29578SOL     OW90572   8.400   8.451   8.989
29578SOL    HW190573   8.393   8.409   9.074
29578SOL    HW290574   8.377   8.382   8.926
29579SOL     OW90575   4.812   5.982  14.412
29579SOL    HW190576   4.907   5.976  14.398
29579SOL    HW290577   4.797   5.931  14.492
29580SOL     OW90578   6.340   7.768   5.450
29580SOL    HW190579   6.311   7.856   5.474
29580SOL    HW290580   6.420   7.754   5.501
29581SOL     OW90581   8.587   5.531   5.474
29581SOL    HW190582   8.558   5.458   5.419
29581SOL    HW290583   8.678   5.510   5.494
29582SOL     OW90584   6.793  11.595   1.824
29582SOL    HW190585   6.713  11.642   1.847
29582SOL    HW290586   6.764  11.505   1.806
29583SOL     OW90587   0.631  10.288   8.097
29583SOL    HW190588   0.708  10.232   8.088
29583SOL    HW290589   0.558  10.227   8.105
29584SOL     OW90590   0.447   0.092  10.391
29584SOL    HW190591   0.540   0.087  10.415
29584SOL    HW290592   0.401   0.054  10.466
29585SOL     OW90593   0.397   9.547   6.679
29585SOL    HW190594   0.327   9.591   6.728
29585SOL    HW290595   0.407   9.598   6.599
29586SOL     OW90596   1.930  12.368   8.608
29586SOL    HW190597   1.951  12.390   8.518
29586SOL    HW290598   1.893  12.280   8.604
29587SOL     OW90599  14.396   7.103   0.708
29587SOL    HW190600  14.331   7.161   0.668
29587SOL    HW290601  14.347   7.053   0.773
29588SOL     OW90602  13.264   5.629  14.036
29588SOL    HW190603  13.302   5.569  13.972
29588SOL    HW290604  13.339   5.679  14.070
29589SOL     OW90605   1.799   5.925   6.044
29589SOL    HW190606   1.789   5.832   6.063
29589SOL    HW290607   1.717   5.965   6.073
29590SOL     OW90608   4.223   4.304   0.433
29590SOL    HW190609   4.219   4.308   0.338
29590SOL    HW290610   4.163   4.373   0.463
29591SOL     OW90611  12.872   5.413   8.243
29591SOL    HW190612  12.817   5.482   8.279
29591SOL    HW290613  12.844   5.334   8.289
29592SOL     OW90614   3.054   0.873   1.150
29592SOL    HW190615   3.083   0.839   1.066
29592SOL    HW290616   3.119   0.840   1.213
29593SOL     OW90617  11.338  13.696   8.146
29593SOL    HW190618  11.420  13.655   8.173
29593SOL    HW290619  11.364  13.762   8.082
29594SOL     OW90620   0.848  13.559   1.638
29594SOL    HW190621   0.923  13.507   1.609
29594SOL    HW290622   0.772  13.515   1.600
29595SOL     OW90623   9.090  14.316   3.026
29595SOL    HW190624   9.060  14.225   3.028
29595SOL    HW290625   9.013  14.367   2.999
29596SOL     OW90626   9.038   5.490  12.254
29596SOL    HW190627   8.956   5.498  12.204
29596SOL    HW290628   9.107   5.501  12.188
29597SOL     OW90629   8.011   0.516   5.626
29597SOL    HW190630   7.937   0.482   5.676
29597SOL    HW290631   8.032   0.600   5.666
29598SOL     OW90632   0.305  10.895  12.634
29598SOL    HW190633   0.287  10.841  12.711
29598SOL    HW290634   0.244  10.969  12.642
29599SOL     OW90635   8.719   4.006  12.466
29599SOL    HW190636   8.702   4.083  12.413
29599SOL    HW290637   8.651   4.006  12.533
29600SOL     OW90638  14.519   1.389   6.746
29600SOL    HW190639  14.607   1.371   6.781
29600SOL    HW290640  14.536   1.428   6.660
29601SOL     OW90641   2.494  14.171   5.668
29601SOL    HW190642   2.466  14.256   5.633
29601SOL    HW290643   2.546  14.132   5.597
29602SOL     OW90644  10.459  14.583   1.038
29602SOL    HW190645  10.548  14.568   1.006
29602SOL    HW290646  10.406  14.594   0.959
29603SOL     OW90647   0.045   4.277   0.579
29603SOL    HW190648   0.005   4.363   0.592
29603SOL    HW290649   0.009   4.246   0.496
29604SOL     OW90650  11.610  12.937  14.584
29604SOL    HW190651  11.588  12.997  14.513
29604SOL    HW290652  11.699  12.907  14.562
29605SOL     OW90653  11.555   3.443  13.613
29605SOL    HW190654  11.464   3.419  13.632
29605SOL    HW290655  11.567   3.418  13.521
29606SOL     OW90656   2.305  10.232   2.282
29606SOL    HW190657   2.375  10.294   2.261
29606SOL    HW290658   2.230  10.288   2.305
29607SOL     OW90659  12.852   8.975  10.039
29607SOL    HW190660  12.821   8.884  10.043
29607SOL    HW290661  12.947   8.969  10.039
29608SOL     OW90662  13.327  12.385   7.557
29608SOL    HW190663  13.283  12.433   7.486
29608SOL    HW290664  13.313  12.293   7.536
29609SOL     OW90665   0.980   6.421  12.914
29609SOL    HW190666   0.980   6.424  12.818
29609SOL    HW290667   0.902   6.370  12.936
29610SOL     OW90668   6.889  11.973   1.895
29610SOL    HW190669   6.843  11.895   1.926
29610SOL    HW290670   6.878  12.037   1.965
29611SOL     OW90671   2.169  12.715   7.784
29611SOL    HW190672   2.196  12.624   7.775
29611SOL    HW290673   2.172  12.750   7.695
29612SOL     OW90674   0.117   2.621  13.552
29612SOL    HW190675   0.102   2.539  13.504
29612SOL    HW290676   0.209   2.641  13.535
29613SOL     OW90677   7.762   5.208   7.215
29613SOL    HW190678   7.748   5.262   7.137
29613SOL    HW290679   7.843   5.160   7.196
29614SOL     OW90680   0.569   5.659   7.008
29614SOL    HW190681   0.658   5.666   7.041
29614SOL    HW290682   0.544   5.569   7.026
29615SOL     OW90683   8.174   6.780  14.508
29615SOL    HW190684   8.214   6.743  14.429
29615SOL    HW290685   8.123   6.708  14.546
29616SOL     OW90686   8.687   8.031  12.129
29616SOL    HW190687   8.761   8.076  12.089
29616SOL    HW290688   8.683   7.947  12.083
29617SOL     OW90689  11.612  12.302  12.881
29617SOL    HW190690  11.577  12.317  12.969
29617SOL    HW290691  11.700  12.340  12.884
29618SOL     OW90692  14.297   9.831   2.986
29618SOL    HW190693  14.245   9.769   3.036
29618SOL    HW290694  14.339   9.887   3.051
29619SOL     OW90695   6.555   8.976   8.546
29619SOL    HW190696   6.515   8.896   8.512
29619SOL    HW290697   6.627   8.994   8.485
29620SOL     OW90698  13.379   5.715   0.112
29620SOL    HW190699  13.445   5.784   0.108
29620SOL    HW290700  13.421   5.646   0.165
29621SOL     OW90701   4.383   0.054  10.584
29621SOL    HW190702   4.341   0.138  10.600
29621SOL    HW290703   4.364   0.003  10.663
29622SOL     OW90704   4.921   8.981  13.109
29622SOL    HW190705   4.975   8.911  13.146
29622SOL    HW290706   4.902   9.039  13.183
29623SOL     OW90707  11.722  11.899   2.549
29623SOL    HW190708  11.712  11.815   2.505
29623SOL    HW290709  11.761  11.877   2.634
29624SOL     OW90710  11.990  10.991   3.842
29624SOL    HW190711  12.017  10.907   3.879
29624SOL    HW290712  12.047  11.003   3.766
29625SOL     OW90713   9.039   4.252   1.583
29625SOL    HW190714   8.966   4.274   1.640
29625SOL    HW290715   9.011   4.281   1.496
29626SOL     OW90716   7.773   2.098   6.562
29626SOL    HW190717   7.721   2.143   6.629
29626SOL    HW290718   7.709   2.047   6.513
29627SOL     OW90719  13.603   6.892  14.492
29627SOL    HW190720  13.569   6.832  14.558
29627SOL    HW290721  13.570   6.978  14.519
29628SOL     OW90722   7.636  14.663   0.394
29628SOL    HW190723   7.617  14.755   0.376
29628SOL    HW290724   7.551  14.623   0.410
29629SOL     OW90725   4.543   0.364   9.934
29629SOL    HW190726   4.589   0.445   9.914
29629SOL    HW290727   4.476   0.357   9.866
29630SOL     OW90728  11.010  12.540  13.246
29630SOL    HW190729  11.021  12.594  13.167
29630SOL    HW290730  10.946  12.589  13.299
29631SOL     OW90731   2.842   7.219  14.458
29631SOL    HW190732   2.921   7.166  14.446
29631SOL    HW290733   2.848   7.287  14.391
29632SOL     OW90734   8.394   3.685  12.957
29632SOL    HW190735   8.487   3.663  12.956
29632SOL    HW290736   8.365   3.668  12.867
29633SOL     OW90737   1.815   5.721   3.644
29633SOL    HW190738   1.730   5.766   3.637
29633SOL    HW290739   1.797   5.631   3.616
29634SOL     OW90740   1.168   3.815   3.866
29634SOL    HW190741   1.246   3.825   3.920
29634SOL    HW290742   1.141   3.724   3.879
29635SOL     OW90743   3.207  10.390   5.707
29635SOL    HW190744   3.176  10.438   5.784
29635SOL    HW290745   3.195  10.450   5.634
29636SOL     OW90746   2.367  11.994  11.949
29636SOL    HW190747   2.402  11.989  11.860
29636SOL    HW290748   2.437  11.956  12.004
29637SOL     OW90749   1.280   8.691   6.026
29637SOL    HW190750   1.374   8.677   6.041
29637SOL    HW290751   1.269   8.786   6.029
29638SOL     OW90752   5.949  10.474  10.779
29638SOL    HW190753   5.892  10.543  10.813
29638SOL    HW290754   5.942  10.404  10.845
29639SOL     OW90755  14.180   4.412   8.086
29639SOL    HW190756  14.247   4.358   8.129
29639SOL    HW290757  14.222   4.498   8.076
29640SOL     OW90758  11.285   5.168  12.324
29640SOL    HW190759  11.277   5.182  12.229
29640SOL    HW290760  11.197   5.188  12.358
29641SOL     OW90761   0.954  11.592   3.689
29641SOL    HW190762   0.954  11.568   3.781
29641SOL    HW290763   1.046  11.608   3.668
29642SOL     OW90764  10.970  14.144   4.195
29642SOL    HW190765  11.029  14.162   4.121
29642SOL    HW290766  10.901  14.090   4.159
29643SOL     OW90767   5.762   7.242   0.020
29643SOL    HW190768   5.809   7.243  14.819
29643SOL    HW290769   5.800   7.169   0.069
29644SOL     OW90770  13.144   0.643   6.238
29644SOL    HW190771  13.059   0.606   6.212
29644SOL    HW290772  13.205   0.569   6.230
29645SOL     OW90773  10.328   4.188   3.202
29645SOL    HW190774  10.253   4.148   3.246
29645SOL    HW290775  10.292   4.263   3.155
29646SOL     OW90776  14.140   7.446   6.281
29646SOL    HW190777  14.235   7.446   6.291
29646SOL    HW290778  14.111   7.363   6.321
29647SOL     OW90779  14.249   0.476   3.486
29647SOL    HW190780  14.236   0.432   3.570
29647SOL    HW290781  14.193   0.428   3.425
29648SOL     OW90782   4.319   8.658   4.881
29648SOL    HW190783   4.395   8.632   4.933
29648SOL    HW290784   4.356   8.682   4.795
29649SOL     OW90785   4.115   7.770   7.392
29649SOL    HW190786   4.157   7.696   7.435
29649SOL    HW290787   4.028   7.738   7.368
29650SOL     OW90788  12.315  14.749   2.464
29650SOL    HW190789  12.337  14.842   2.455
29650SOL    HW290790  12.348  14.709   2.383
29651SOL     OW90791   0.100   1.015   4.134
29651SOL    HW190792   0.013   1.028   4.173
29651SOL    HW290793   0.102   0.922   4.112
29652SOL     OW90794   3.435  13.289  11.773
29652SOL    HW190795   3.370  13.276  11.704
29652SOL    HW290796   3.491  13.212  11.768
29653SOL     OW90797   9.736  11.015  10.890
29653SOL    HW190798   9.772  10.936  10.851
29653SOL    HW290799   9.663  11.039  10.832
29654SOL     OW90800  10.587   4.129   1.996
29654SOL    HW190801  10.652   4.102   1.930
29654SOL    HW290802  10.636   4.129   2.078
29655SOL     OW90803   1.458   5.954  11.617
29655SOL    HW190804   1.424   5.919  11.534
29655SOL    HW290805   1.515   6.026  11.592
29656SOL     OW90806   8.054   8.812   2.458
29656SOL    HW190807   8.148   8.797   2.445
29656SOL    HW290808   8.048   8.857   2.542
29657SOL     OW90809   1.066   2.080  13.474
29657SOL    HW190810   1.019   2.158  13.505
29657SOL    HW290811   1.154   2.112  13.452
29658SOL     OW90812   3.167  11.717   9.955
29658SOL    HW190813   3.185  11.768  10.034
29658SOL    HW290814   3.126  11.637   9.987
29659SOL     OW90815   3.058  12.659  14.261
29659SOL    HW190816   2.985  12.691  14.207
29659SOL    HW290817   3.122  12.627  14.197
29660SOL     OW90818   6.876   6.012   7.872
29660SOL    HW190819   6.956   6.039   7.917
29660SOL    HW290820   6.872   5.918   7.884
29661SOL     OW90821   5.575   5.225   2.387
29661SOL    HW190822   5.582   5.320   2.386
29661SOL    HW290823   5.489   5.207   2.426
29662SOL     OW90824   2.348   0.357   2.310
29662SOL    HW190825   2.343   0.433   2.252
29662SOL    HW290826   2.257   0.335   2.329
29663SOL     OW90827  14.391  10.945   6.702
29663SOL    HW190828  14.301  10.955   6.732
29663SOL    HW290829  14.443  10.993   6.767
29664SOL     OW90830   0.641   2.715   5.491
29664SOL    HW190831   0.698   2.668   5.552
29664SOL    HW290832   0.692   2.720   5.410
29665SOL     OW90833  13.683   5.594   1.409
29665SOL    HW190834  13.608   5.565   1.356
29665SOL    HW290835  13.661   5.683   1.435
29666SOL     OW90836   1.153   7.587  12.769
29666SOL    HW190837   1.102   7.506  12.778
29666SOL    HW290838   1.128   7.639  12.845
29667SOL     OW90839   2.342   3.033   7.552
29667SOL    HW190840   2.264   3.088   7.542
29667SOL    HW290841   2.319   2.951   7.510
29668SOL     OW90842   3.249   7.079   3.528
29668SOL    HW190843   3.234   7.114   3.441
29668SOL    HW290844   3.296   6.997   3.514
29669SOL     OW90845  13.648   3.891  12.011
29669SOL    HW190846  13.678   3.856  12.095
29669SOL    HW290847  13.577   3.951  12.034
29670SOL     OW90848   1.717  14.564   8.765
29670SOL    HW190849   1.659  14.592   8.836
29670SOL    HW290850   1.732  14.471   8.782
29671SOL     OW90851   5.063  14.661   8.730
29671SOL    HW190852   4.969  14.674   8.747
29671SOL    HW290853   5.087  14.584   8.782
29672SOL     OW90854  14.017  13.670   0.397
29672SOL    HW190855  13.946  13.718   0.354
29672SOL    HW290856  14.028  13.715   0.481
29673SOL     OW90857  13.801   7.925   5.476
29673SOL    HW190858  13.830   8.014   5.496
29673SOL    HW290859  13.882   7.877   5.459
29674SOL     OW90860   1.588  12.325   5.845
29674SOL    HW190861   1.679  12.341   5.872
29674SOL    HW290862   1.588  12.343   5.751
29675SOL     OW90863   0.849  10.130   5.575
29675SOL    HW190864   0.838  10.071   5.649
29675SOL    HW290865   0.818  10.079   5.499
29676SOL     OW90866  10.935  11.192   9.869
29676SOL    HW190867  11.013  11.183   9.922
29676SOL    HW290868  10.863  11.200   9.932
29677SOL     OW90869  12.882   5.091   1.091
29677SOL    HW190870  12.946   5.134   1.035
29677SOL    HW290871  12.919   5.095   1.179
29678SOL     OW90872   9.713   1.097   6.952
29678SOL    HW190873   9.678   1.067   7.036
29678SOL    HW290874   9.773   1.027   6.926
29679SOL     OW90875  12.178   3.826  13.133
29679SOL    HW190876  12.092   3.802  13.099
29679SOL    HW290877  12.168   3.917  13.162
29680SOL     OW90878   1.661   5.270   6.054
29680SOL    HW190879   1.748   5.238   6.077
29680SOL    HW290880   1.640   5.332   6.124
29681SOL     OW90881   8.204  13.751   3.784
29681SOL    HW190882   8.120  13.762   3.829
29681SOL    HW290883   8.192  13.795   3.699
29682SOL     OW90884   1.304   4.580  11.860
29682SOL    HW190885   1.308   4.666  11.819
29682SOL    HW290886   1.364   4.526  11.808
29683SOL     OW90887   3.760   4.586   8.812
29683SOL    HW190888   3.741   4.670   8.854
29683SOL    HW290889   3.697   4.525   8.852
29684SOL     OW90890   9.749   5.715   8.445
29684SOL    HW190891   9.699   5.793   8.421
29684SOL    HW290892   9.825   5.717   8.387
29685SOL     OW90893   8.366   8.237  13.309
29685SOL    HW190894   8.271   8.233  13.299
29685SOL    HW290895   8.380   8.218  13.402
29686SOL     OW90896  10.197   8.098  11.546
29686SOL    HW190897  10.224   8.185  11.575
29686SOL    HW290898  10.262   8.039  11.584
29687SOL     OW90899   5.366   1.822  12.594
29687SOL    HW190900   5.376   1.904  12.546
29687SOL    HW290901   5.353   1.756  12.526
29688SOL     OW90902  14.605   0.828   9.096
29688SOL    HW190903  14.626   0.736   9.110
29688SOL    HW290904  14.680   0.863   9.047
29689SOL     OW90905   7.054   8.749   8.661
29689SOL    HW190906   7.052   8.657   8.636
29689SOL    HW290907   7.073   8.795   8.580
29690SOL     OW90908   0.454  14.288  11.929
29690SOL    HW190909   0.527  14.340  11.895
29690SOL    HW290910   0.482  14.197  11.916
29691SOL     OW90911   6.339   5.449   2.897
29691SOL    HW190912   6.332   5.532   2.851
29691SOL    HW290913   6.343   5.383   2.828
29692SOL     OW90914  12.134   6.567  12.961
29692SOL    HW190915  12.084   6.486  12.949
29692SOL    HW290916  12.220   6.538  12.991
29693SOL     OW90917   9.246  10.097  13.154
29693SOL    HW190918   9.181  10.068  13.218
29693SOL    HW290919   9.213  10.066  13.070
29694SOL     OW90920   2.871  12.082   5.003
29694SOL    HW190921   2.952  12.133   5.004
29694SOL    HW290922   2.817  12.121   5.072
29695SOL     OW90923  13.337  11.071   4.027
29695SOL    HW190924  13.308  11.162   4.037
29695SOL    HW290925  13.283  11.022   4.089
29696SOL     OW90926   3.869  13.102   0.626
29696SOL    HW190927   3.812  13.030   0.653
29696SOL    HW290928   3.958  13.068   0.640
29697SOL     OW90929  13.578  12.077   1.317
29697SOL    HW190930  13.503  12.134   1.306
29697SOL    HW290931  13.553  12.016   1.386
29698SOL     OW90932  13.516  13.643   8.859
29698SOL    HW190933  13.498  13.596   8.941
29698SOL    HW290934  13.583  13.590   8.816
29699SOL     OW90935   9.173  13.927  10.379
29699SOL    HW190936   9.155  13.922  10.285
29699SOL    HW290937   9.267  13.942  10.385
29700SOL     OW90938   1.097   5.205   2.870
29700SOL    HW190939   1.030   5.145   2.901
29700SOL    HW290940   1.116   5.177   2.781
29701SOL     OW90941  10.833  14.205   2.351
29701SOL    HW190942  10.798  14.235   2.435
29701SOL    HW290943  10.758  14.167   2.305
29702SOL     OW90944  11.232  11.395   3.106
29702SOL    HW190945  11.202  11.470   3.158
29702SOL    HW290946  11.287  11.345   3.166
29703SOL     OW90947   6.085   4.879  11.266
29703SOL    HW190948   6.031   4.802  11.282
29703SOL    HW290949   6.022   4.951  11.262
29704SOL     OW90950  11.552  14.032   1.848
29704SOL    HW190951  11.574  14.052   1.939
29704SOL    HW290952  11.464  14.068   1.836
29705SOL     OW90953   6.729  14.600  12.911
29705SOL    HW190954   6.772  14.560  12.835
29705SOL    HW290955   6.758  14.548  12.986
29706SOL     OW90956   3.005  11.141   3.062
29706SOL    HW190957   3.100  11.138   3.072
29706SOL    HW290958   2.972  11.080   3.128
29707SOL     OW90959   7.059  14.878   5.185
29707SOL    HW190960   7.080  14.806   5.126
29707SOL    HW290961   7.048   0.072   5.127
29708SOL     OW90962   6.325   4.472   7.931
29708SOL    HW190963   6.256   4.500   7.991
29708SOL    HW290964   6.279   4.443   7.853
29709SOL     OW90965   2.615   3.392   2.186
29709SOL    HW190966   2.701   3.410   2.225
29709SOL    HW290967   2.582   3.316   2.236
29710SOL     OW90968   0.936  14.827  11.190
29710SOL    HW190969   0.997  14.770  11.143
29710SOL    HW290970   0.993   0.001  11.243
29711SOL     OW90971  12.884   6.559   2.200
29711SOL    HW190972  12.858   6.499   2.269
29711SOL    HW290973  12.856   6.645   2.230
29712SOL     OW90974   4.796   5.884   3.180
29712SOL    HW190975   4.885   5.917   3.195
29712SOL    HW290976   4.742   5.963   3.177
29713SOL     OW90977   6.131   5.452   7.505
29713SOL    HW190978   6.220   5.422   7.523
29713SOL    HW290979   6.075   5.388   7.550
29714SOL     OW90980   4.477   5.833   2.196
29714SOL    HW190981   4.517   5.749   2.220
29714SOL    HW290982   4.448   5.869   2.279
29715SOL     OW90983  12.648  12.905   9.420
29715SOL    HW190984  12.701  12.983   9.405
29715SOL    HW290985  12.626  12.874   9.332
29716SOL     OW90986   4.541  10.946   3.704
29716SOL    HW190987   4.489  11.010   3.754
29716SOL    HW290988   4.592  11.000   3.643
29717SOL     OW90989   6.038  11.693   7.810
29717SOL    HW190990   6.088  11.731   7.738
29717SOL    HW290991   5.959  11.659   7.769
29718SOL     OW90992   1.214   5.602   5.118
29718SOL    HW190993   1.163   5.639   5.046
29718SOL    HW290994   1.236   5.678   5.173
29719SOL     OW90995   8.462   7.244  10.675
29719SOL    HW190996   8.455   7.200  10.590
29719SOL    HW290997   8.476   7.173  10.737
29720SOL     OW90998   6.062   2.336  10.368
29720SOL    HW190999   6.115   2.381  10.434
29720SOL    HW291000   6.099   2.364  10.284
29721SOL     OW91001  10.292   4.453   3.989
29721SOL    HW191002  10.329   4.405   4.064
29721SOL    HW291003  10.243   4.386   3.940
29722SOL     OW91004   5.085   1.888   8.033
29722SOL    HW191005   5.134   1.955   7.984
29722SOL    HW291006   5.003   1.931   8.055
29723SOL     OW91007   0.975   8.268  11.822
29723SOL    HW191008   0.923   8.287  11.743
29723SOL    HW291009   0.947   8.181  11.848
29724SOL     OW91010   5.767  11.082  14.363
29724SOL    HW191011   5.723  11.002  14.335
29724SOL    HW291012   5.812  11.114  14.285
29725SOL     OW91013   2.137  14.675   5.323
29725SOL    HW191014   2.081  14.639   5.255
29725SOL    HW291015   2.085  14.746   5.362
29726SOL     OW91016   2.587   9.718  12.697
29726SOL    HW191017   2.681   9.700  12.701
29726SOL    HW291018   2.571   9.744  12.607
29727SOL     OW91019   6.634   9.216   6.801
29727SOL    HW191020   6.652   9.231   6.894
29727SOL    HW291021   6.546   9.252   6.787
29728SOL     OW91022   5.179   4.287   5.450
29728SOL    HW191023   5.122   4.226   5.497
29728SOL    HW291024   5.127   4.367   5.441
29729SOL     OW91025   3.934  11.714   6.625
29729SOL    HW191026   3.902  11.688   6.538
29729SOL    HW291027   3.943  11.631   6.673
29730SOL     OW91028   2.455  13.991   0.217
29730SOL    HW191029   2.376  13.945   0.189
29730SOL    HW291030   2.479  13.950   0.300
29731SOL     OW91031  10.339   8.969  10.188
29731SOL    HW191032  10.408   8.972  10.121
29731SOL    HW291033  10.365   8.896  10.245
29732SOL     OW91034   5.345   5.537   7.330
29732SOL    HW191035   5.261   5.510   7.368
29732SOL    HW291036   5.322   5.597   7.259
29733SOL     OW91037   1.225  14.170   9.013
29733SOL    HW191038   1.203  14.077   9.020
29733SOL    HW291039   1.173  14.202   8.939
29734SOL     OW91040  11.222  13.485   0.635
29734SOL    HW191041  11.127  13.482   0.624
29734SOL    HW291042  11.242  13.577   0.649
29735SOL     OW91043   6.424   3.475   7.714
29735SOL    HW191044   6.330   3.494   7.718
29735SOL    HW291045   6.442   3.425   7.793
29736SOL     OW91046  11.530   1.937   1.018
29736SOL    HW191047  11.472   2.000   0.976
29736SOL    HW291048  11.602   1.925   0.956
29737SOL     OW91049   7.265  13.006   3.696
29737SOL    HW191050   7.251  12.915   3.670
29737SOL    HW291051   7.291  13.001   3.788
29738SOL     OW91052  12.528   2.941   8.979
29738SOL    HW191053  12.621   2.957   8.995
29738SOL    HW291054  12.483   2.977   9.056
29739SOL     OW91055  14.658  12.936   7.094
29739SOL    HW191056  14.698  13.018   7.122
29739SOL    HW291057  14.587  12.921   7.157
29740SOL     OW91058  11.238   0.038  10.359
29740SOL    HW191059  11.295  14.862  10.309
29740SOL    HW291060  11.294   0.113  10.382
29741SOL     OW91061  14.000   2.953  12.114
29741SOL    HW191062  13.905   2.944  12.104
29741SOL    HW291063  14.023   2.888  12.181
29742SOL     OW91064  14.308  12.569   6.286
29742SOL    HW191065  14.285  12.484   6.249
29742SOL    HW291066  14.224  12.607   6.313
29743SOL     OW91067   8.862   9.992   0.671
29743SOL    HW191068   8.943  10.038   0.692
29743SOL    HW291069   8.867   9.978   0.576
29744SOL     OW91070   6.431   0.624   3.047
29744SOL    HW191071   6.366   0.674   2.998
29744SOL    HW291072   6.483   0.690   3.093
29745SOL     OW91073   3.499   9.047   1.538
29745SOL    HW191074   3.500   8.971   1.596
29745SOL    HW291075   3.562   9.025   1.469
29746SOL     OW91076   8.578   4.452   2.613
29746SOL    HW191077   8.643   4.444   2.683
29746SOL    HW291078   8.624   4.495   2.541
29747SOL     OW91079   4.107   8.939   1.116
29747SOL    HW191080   4.027   8.949   1.065
29747SOL    HW291081   4.166   9.008   1.082
29748SOL     OW91082   7.410   2.829   5.494
29748SOL    HW191083   7.440   2.746   5.456
29748SOL    HW291084   7.331   2.805   5.543
29749SOL     OW91085   1.607  13.079   3.609
29749SOL    HW191086   1.566  13.001   3.646
29749SOL    HW291087   1.684  13.094   3.664
29750SOL     OW91088  14.411   3.928   1.580
29750SOL    HW191089  14.457   4.003   1.543
29750SOL    HW291090  14.468   3.853   1.560
29751SOL     OW91091   2.101  11.477  11.228
29751SOL    HW191092   2.069  11.390  11.202
29751SOL    HW291093   2.158  11.503  11.156
29752SOL     OW91094   2.296  14.051   0.902
29752SOL    HW191095   2.321  14.043   0.810
29752SOL    HW291096   2.270  13.962   0.928
29753SOL     OW91097  12.926  10.814   5.027
29753SOL    HW191098  12.858  10.751   5.003
29753SOL    HW291099  12.951  10.790   5.116
29754SOL     OW91100   1.412   5.466   9.533
29754SOL    HW191101   1.445   5.547   9.494
29754SOL    HW291102   1.465   5.454   9.612
29755SOL     OW91103   0.216  11.114  10.969
29755SOL    HW191104   0.311  11.112  10.974
29755SOL    HW291105   0.187  11.105  11.060
29756SOL     OW91106  12.681  13.997  12.819
29756SOL    HW191107  12.657  13.905  12.803
29756SOL    HW291108  12.601  14.037  12.853
29757SOL     OW91109   0.088  11.278   3.857
29757SOL    HW191110   0.056  11.305   3.771
29757SOL    HW291111   0.034  11.326   3.920
29758SOL     OW91112  14.070   7.341  14.027
29758SOL    HW191113  14.034   7.290  13.955
29758SOL    HW291114  13.998   7.350  14.089
29759SOL     OW91115  14.260   0.673  12.607
29759SOL    HW191116  14.240   0.756  12.564
29759SOL    HW291117  14.335   0.638  12.558
29760SOL     OW91118   5.865   4.783   9.557
29760SOL    HW191119   5.859   4.692   9.584
29760SOL    HW291120   5.845   4.833   9.636
29761SOL     OW91121  13.352  12.560  13.643
29761SOL    HW191122  13.259  12.572  13.663
29761SOL    HW291123  13.364  12.465  13.643
29762SOL     OW91124   8.007  11.299  11.606
29762SOL    HW191125   7.998  11.280  11.513
29762SOL    HW291126   7.944  11.369  11.623
29763SOL     OW91127   5.385  14.497   2.455
29763SOL    HW191128   5.438  14.566   2.416
29763SOL    HW291129   5.368  14.436   2.383
29764SOL     OW91130  12.338   2.553  14.743
29764SOL    HW191131  12.270   2.488  14.729
29764SOL    HW291132  12.325   2.583  14.833
29765SOL     OW91133   5.879   2.002   7.953
29765SOL    HW191134   5.827   2.079   7.974
29765SOL    HW291135   5.900   2.012   7.860
29766SOL     OW91136   2.199   8.034   0.359
29766SOL    HW191137   2.179   8.086   0.281
29766SOL    HW291138   2.287   8.064   0.384
29767SOL     OW91139   3.652   9.204   6.365
29767SOL    HW191140   3.743   9.231   6.354
29767SOL    HW291141   3.629   9.163   6.282
29768SOL     OW91142  11.314   6.097  11.351
29768SOL    HW191143  11.261   6.175  11.369
29768SOL    HW291144  11.305   6.043  11.430
29769SOL     OW91145   0.284   2.966   4.920
29769SOL    HW191146   0.374   2.936   4.905
29769SOL    HW291147   0.230   2.904   4.871
29770SOL     OW91148  13.144   8.421  14.130
29770SOL    HW191149  13.143   8.386  14.041
29770SOL    HW291150  13.090   8.360  14.181
29771SOL     OW91151   9.527   2.277   5.215
29771SOL    HW191152   9.596   2.308   5.155
29771SOL    HW291153   9.491   2.200   5.172
29772SOL     OW91154   7.280  13.288   4.054
29772SOL    HW191155   7.260  13.369   4.008
29772SOL    HW291156   7.197  13.263   4.095
29773SOL     OW91157   7.416   1.332   8.834
29773SOL    HW191158   7.348   1.378   8.884
29773SOL    HW291159   7.372   1.253   8.802
29774SOL     OW91160   7.116   5.596   1.820
29774SOL    HW191161   7.112   5.620   1.727
29774SOL    HW291162   7.025   5.581   1.845
29775SOL     OW91163   6.652   9.877   9.472
29775SOL    HW191164   6.728   9.887   9.416
29775SOL    HW291165   6.577   9.885   9.413
29776SOL     OW91166  14.171   1.889   6.401
29776SOL    HW191167  14.100   1.953   6.409
29776SOL    HW291168  14.147   1.837   6.324
29777SOL     OW91169   7.860   6.707  12.774
29777SOL    HW191170   7.869   6.741  12.685
29777SOL    HW291171   7.894   6.617  12.768
29778SOL     OW91172   4.343   2.064   4.340
29778SOL    HW191173   4.276   2.133   4.338
29778SOL    HW291174   4.414   2.101   4.393
29779SOL     OW91175   8.305   4.421   6.880
29779SOL    HW191176   8.352   4.369   6.815
29779SOL    HW291177   8.299   4.364   6.957
29780SOL     OW91178   7.693   1.947  10.136
29780SOL    HW191179   7.651   1.861  10.129
29780SOL    HW291180   7.654   1.986  10.215
29781SOL     OW91181  11.166   4.796  12.227
29781SOL    HW191182  11.204   4.811  12.314
29781SOL    HW291183  11.111   4.719  12.237
29782SOL     OW91184   3.636  13.705  12.177
29782SOL    HW191185   3.585  13.633  12.214
29782SOL    HW291186   3.721  13.666  12.157
29783SOL     OW91187  12.390   7.914  13.884
29783SOL    HW191188  12.485   7.920  13.892
29783SOL    HW291189  12.358   7.928  13.973
29784SOL     OW91190   6.778   5.448   5.695
29784SOL    HW191191   6.854   5.496   5.726
29784SOL    HW291192   6.812   5.361   5.673
29785SOL     OW91193   0.932   6.389   9.569
29785SOL    HW191194   0.994   6.416   9.501
29785SOL    HW291195   0.987   6.374   9.646
29786SOL     OW91196  12.506  12.946   8.859
29786SOL    HW191197  12.510  12.896   8.941
29786SOL    HW291198  12.591  12.931   8.818
29787SOL     OW91199   2.190   6.121   5.063
29787SOL    HW191200   2.254   6.055   5.090
29787SOL    HW291201   2.147   6.147   5.144
29788SOL     OW91202   6.744   0.659   5.782
29788SOL    HW191203   6.827   0.671   5.736
29788SOL    HW291204   6.762   0.594   5.850
29789SOL     OW91205   0.495  10.750   0.213
29789SOL    HW191206   0.428  10.765   0.279
29789SOL    HW291207   0.484  10.659   0.186
29790SOL     OW91208  12.102   9.385  14.357
29790SOL    HW191209  12.043   9.457  14.337
29790SOL    HW291210  12.064   9.343  14.435
29791SOL     OW91211  12.019   1.167   0.519
29791SOL    HW191212  12.006   1.196   0.428
29791SOL    HW291213  12.070   1.237   0.559
29792SOL     OW91214   0.586  12.408   3.371
29792SOL    HW191215   0.656  12.345   3.388
29792SOL    HW291216   0.533  12.365   3.303
29793SOL     OW91217   4.616   8.398   6.346
29793SOL    HW191218   4.669   8.414   6.268
29793SOL    HW291219   4.554   8.330   6.319
29794SOL     OW91220   3.213   6.222   2.996
29794SOL    HW191221   3.296   6.207   3.040
29794SOL    HW291222   3.182   6.134   2.973
29795SOL     OW91223   9.862   0.321  12.605
29795SOL    HW191224   9.817   0.257  12.550
29795SOL    HW291225   9.796   0.348  12.668
29796SOL     OW91226  12.767   8.905   5.454
29796SOL    HW191227  12.764   9.000   5.452
29796SOL    HW291228  12.854   8.884   5.486
29797SOL     OW91229  14.412   5.609   8.614
29797SOL    HW191230  14.322   5.577   8.615
29797SOL    HW291231  14.465   5.531   8.604
29798SOL     OW91232   5.817   0.838   2.685
29798SOL    HW191233   5.803   0.776   2.614
29798SOL    HW291234   5.787   0.791   2.764
29799SOL     OW91235   9.864  12.545   3.690
29799SOL    HW191236   9.921  12.520   3.618
29799SOL    HW291237   9.904  12.507   3.768
29800SOL     OW91238  13.971  14.067   3.057
29800SOL    HW191239  14.059  14.045   3.087
29800SOL    HW291240  13.913  14.018   3.114
29801SOL     OW91241  12.942   8.556  11.250
29801SOL    HW191242  13.030   8.592  11.244
29801SOL    HW291243  12.886   8.632  11.268
29802SOL     OW91244   6.760   0.953  14.298
29802SOL    HW191245   6.821   0.996  14.237
29802SOL    HW291246   6.779   0.993  14.383
29803SOL     OW91247   8.178  14.037  12.640
29803SOL    HW191248   8.264  14.046  12.600
29803SOL    HW291249   8.184  13.958  12.694
29804SOL     OW91250  13.913  13.118   5.035
29804SOL    HW191251  13.892  13.113   4.941
29804SOL    HW291252  13.913  13.211   5.055
29805SOL     OW91253   1.137  10.060   7.950
29805SOL    HW191254   1.088  10.142   7.953
29805SOL    HW291255   1.076   9.996   7.912
29806SOL     OW91256   4.878   6.233  10.728
29806SOL    HW191257   4.910   6.323  10.735
29806SOL    HW291258   4.802   6.239  10.669
29807SOL     OW91259   4.905  11.172  11.927
29807SOL    HW191260   4.815  11.170  11.958
29807SOL    HW291261   4.952  11.227  11.990
29808SOL     OW91262   6.657   1.156   1.194
29808SOL    HW191263   6.595   1.209   1.144
29808SOL    HW291264   6.655   1.070   1.151
29809SOL     OW91265   1.787  13.516   3.914
29809SOL    HW191266   1.722  13.489   3.979
29809SOL    HW291267   1.760  13.604   3.888
29810SOL     OW91268   0.126   0.089   5.747
29810SOL    HW191269   0.058   0.059   5.808
29810SOL    HW291270   0.203   0.038   5.770
29811SOL     OW91271   7.933  12.639  13.918
29811SOL    HW191272   8.000  12.570  13.919
29811SOL    HW291273   7.953  12.692  13.995
29812SOL     OW91274  14.479   7.333  13.352
29812SOL    HW191275  14.490   7.327  13.257
29812SOL    HW291276  14.389   7.363  13.363
29813SOL     OW91277   7.668   6.517  14.679
29813SOL    HW191278   7.573   6.518  14.669
29813SOL    HW291279   7.701   6.565  14.602
29814SOL     OW91280   4.846  14.753   6.985
29814SOL    HW191281   4.864  14.660   6.992
29814SOL    HW291282   4.789  14.773   7.058
29815SOL     OW91283  13.608   5.834   4.477
29815SOL    HW191284  13.690   5.878   4.501
29815SOL    HW291285  13.541   5.878   4.529
29816SOL     OW91286   7.389  10.472   4.930
29816SOL    HW191287   7.302  10.433   4.939
29816SOL    HW291288   7.442  10.405   4.886
29817SOL     OW91289  14.711   0.876   6.672
29817SOL    HW191290  14.744   0.879   6.582
29817SOL    HW291291  14.658   0.955   6.680
29818SOL     OW91292  11.553   0.480   7.140
29818SOL    HW191293  11.566   0.387   7.158
29818SOL    HW291294  11.490   0.509   7.206
29819SOL     OW91295  10.283  12.262   6.490
29819SOL    HW191296  10.230  12.251   6.410
29819SOL    HW291297  10.236  12.328   6.541
29820SOL     OW91298  12.867   3.733   8.684
29820SOL    HW191299  12.869   3.782   8.766
29820SOL    HW291300  12.795   3.671   8.696
29821SOL     OW91301   0.908   9.984   0.298
29821SOL    HW191302   0.846  10.038   0.347
29821SOL    HW291303   0.854   9.924   0.247
29822SOL     OW91304   8.737   9.974  14.686
29822SOL    HW191305   8.795   9.979  14.762
29822SOL    HW291306   8.649   9.967  14.723
29823SOL     OW91307   9.345   1.650  14.435
29823SOL    HW191308   9.274   1.650  14.371
29823SOL    HW291309   9.393   1.569  14.418
29824SOL     OW91310   2.610   2.390   5.768
29824SOL    HW191311   2.675   2.337   5.722
29824SOL    HW291312   2.584   2.337   5.843
29825SOL     OW91313   2.227   3.239  11.894
29825SOL    HW191314   2.253   3.188  11.971
29825SOL    HW291315   2.258   3.327  11.912
29826SOL     OW91316   4.363   2.223  11.664
29826SOL    HW191317   4.397   2.283  11.598
29826SOL    HW291318   4.319   2.154  11.614
29827SOL     OW91319   9.705   3.813   7.686
29827SOL    HW191320   9.719   3.843   7.776
29827SOL    HW291321   9.786   3.768   7.663
29828SOL     OW91322  12.585   2.548   2.068
29828SOL    HW191323  12.576   2.555   2.163
29828SOL    HW291324  12.586   2.639   2.038
29829SOL     OW91325   6.714  14.849  14.769
29829SOL    HW191326   6.621  14.847  14.748
29829SOL    HW291327   6.717  14.852  14.865
29830SOL     OW91328   5.668   5.729   0.714
29830SOL    HW191329   5.641   5.774   0.795
29830SOL    HW291330   5.756   5.763   0.697
29831SOL     OW91331   1.731   0.666   9.977
29831SOL    HW191332   1.821   0.680   9.945
29831SOL    HW291333   1.741   0.656  10.071
29832SOL     OW91334   9.838  13.478  11.502
29832SOL    HW191335   9.790  13.455  11.422
29832SOL    HW291336   9.930  13.475  11.476
29833SOL     OW91337  11.998   0.489   7.438
29833SOL    HW191338  12.093   0.491   7.436
29833SOL    HW291339  11.971   0.495   7.346
29834SOL     OW91340   3.368   4.346   6.209
29834SOL    HW191341   3.342   4.373   6.297
29834SOL    HW291342   3.388   4.428   6.164
29835SOL     OW91343   4.809   7.133   8.034
29835SOL    HW191344   4.786   7.042   8.018
29835SOL    HW291345   4.745   7.163   8.099
29836SOL     OW91346   6.422   4.192  10.718
29836SOL    HW191347   6.431   4.287  10.708
29836SOL    HW291348   6.362   4.166  10.648
29837SOL     OW91349   6.732   8.337   9.541
29837SOL    HW191350   6.739   8.305   9.631
29837SOL    HW291351   6.667   8.407   9.545
29838SOL     OW91352   5.650  13.222   5.257
29838SOL    HW191353   5.715  13.284   5.223
29838SOL    HW291354   5.661  13.224   5.352
29839SOL     OW91355   9.479   6.597   3.477
29839SOL    HW191356   9.386   6.606   3.497
29839SOL    HW291357   9.507   6.686   3.455
29840SOL     OW91358   0.076   0.147   6.328
29840SOL    HW191359   0.161   0.110   6.353
29840SOL    HW291360   0.035   0.173   6.410
29841SOL     OW91361  12.785   4.165   7.084
29841SOL    HW191362  12.811   4.250   7.047
29841SOL    HW291363  12.717   4.187   7.148
29842SOL     OW91364   6.860   8.738   4.514
29842SOL    HW191365   6.930   8.737   4.579
29842SOL    HW291366   6.823   8.826   4.520
29843SOL     OW91367   0.969   0.332   0.026
29843SOL    HW191368   0.980   0.309   0.118
29843SOL    HW291369   0.930   0.255  14.868
29844SOL     OW91370   8.990   2.533   2.867
29844SOL    HW191371   9.008   2.608   2.810
29844SOL    HW291372   8.914   2.560   2.919
29845SOL     OW91373   0.327   3.200  10.757
29845SOL    HW191374   0.270   3.153  10.696
29845SOL    HW291375   0.395   3.137  10.781
29846SOL     OW91376  10.940   9.167   3.220
29846SOL    HW191377  11.019   9.190   3.172
29846SOL    HW291378  10.932   9.072   3.209
29847SOL     OW91379   2.705   6.304   4.287
29847SOL    HW191380   2.787   6.257   4.271
29847SOL    HW291381   2.642   6.263   4.228
29848SOL     OW91382   2.143  13.705   8.224
29848SOL    HW191383   2.100  13.654   8.156
29848SOL    HW291384   2.100  13.791   8.220
29849SOL     OW91385  14.266   0.780  10.913
29849SOL    HW191386  14.190   0.838  10.921
29849SOL    HW291387  14.267   0.732  10.995
29850SOL     OW91388   7.050   9.147   7.917
29850SOL    HW191389   6.960   9.159   7.949
29850SOL    HW291390   7.043   9.073   7.856
29851SOL     OW91391   3.876  11.346   6.939
29851SOL    HW191392   3.960  11.339   6.984
29851SOL    HW291393   3.811  11.343   7.010
29852SOL     OW91394   7.902   6.682  13.309
29852SOL    HW191395   7.875   6.708  13.221
29852SOL    HW291396   7.864   6.748  13.367
29853SOL     OW91397   9.216   7.122  11.473
29853SOL    HW191398   9.235   7.039  11.517
29853SOL    HW291399   9.161   7.099  11.399
29854SOL     OW91400   5.197   0.958   0.139
29854SOL    HW191401   5.200   0.916   0.053
29854SOL    HW291402   5.109   0.995   0.145
29855SOL     OW91403   6.167  13.147  10.411
29855SOL    HW191404   6.260  13.162  10.427
29855SOL    HW291405   6.150  13.059  10.446
29856SOL     OW91406   5.344   1.620  12.425
29856SOL    HW191407   5.369   1.567  12.350
29856SOL    HW291408   5.267   1.577  12.461
29857SOL     OW91409   2.935   5.089  12.508
29857SOL    HW191410   2.913   5.175  12.471
29857SOL    HW291411   2.903   5.093  12.598
29858SOL     OW91412   3.712   7.069   3.209
29858SOL    HW191413   3.752   7.039   3.127
29858SOL    HW291414   3.623   7.035   3.205
29859SOL     OW91415   2.508   0.476   8.482
29859SOL    HW191416   2.486   0.457   8.573
29859SOL    HW291417   2.584   0.534   8.488
29860SOL     OW91418  10.144   5.250  11.438
29860SOL    HW191419  10.049   5.258  11.443
29860SOL    HW291420  10.160   5.209  11.353
29861SOL     OW91421   4.044   5.624   3.146
29861SOL    HW191422   4.098   5.696   3.178
29861SOL    HW291423   4.083   5.546   3.186
29862SOL     OW91424  14.053   1.237   4.887
29862SOL    HW191425  14.123   1.256   4.825
29862SOL    HW291426  13.972   1.248   4.837
29863SOL     OW91427   8.124   1.826  11.804
29863SOL    HW191428   8.038   1.844  11.765
29863SOL    HW291429   8.135   1.732  11.794
29864SOL     OW91430  13.937   6.367   0.062
29864SOL    HW191431  13.991   6.305   0.014
29864SOL    HW291432  13.967   6.453   0.032
29865SOL     OW91433  10.924   2.877   9.378
29865SOL    HW191434  10.924   2.813   9.306
29865SOL    HW291435  10.857   2.845   9.438
29866SOL     OW91436   6.038   5.237   9.874
29866SOL    HW191437   6.000   5.230   9.962
29866SOL    HW291438   6.118   5.288   9.886
29867SOL     OW91439   0.338   3.776   7.479
29867SOL    HW191440   0.293   3.826   7.410
29867SOL    HW291441   0.363   3.842   7.544
29868SOL     OW91442   6.960  12.492   1.520
29868SOL    HW191443   6.957  12.511   1.426
29868SOL    HW291444   6.946  12.578   1.561
29869SOL     OW91445   5.375   9.364   1.667
29869SOL    HW191446   5.326   9.409   1.736
29869SOL    HW291447   5.330   9.281   1.656
29870SOL     OW91448   7.412   9.452   7.169
29870SOL    HW191449   7.366   9.500   7.238
29870SOL    HW291450   7.375   9.364   7.172
29871SOL     OW91451   4.904   1.344  12.392
29871SOL    HW191452   4.874   1.284  12.324
29871SOL    HW291453   4.848   1.324  12.467
29872SOL     OW91454  10.518  13.637   7.946
29872SOL    HW191455  10.581  13.566   7.960
29872SOL    HW291456  10.510  13.679   8.031
29873SOL     OW91457   0.426   0.023  11.056
29873SOL    HW191458   0.507   0.016  11.106
29873SOL    HW291459   0.450   0.003  10.966
29874SOL     OW91460   9.789  14.385  11.832
29874SOL    HW191461   9.799  14.294  11.860
29874SOL    HW291462   9.745  14.428  11.906
29875SOL     OW91463   3.233   6.822  14.247
29875SOL    HW191464   3.214   6.775  14.165
29875SOL    HW291465   3.172   6.895  14.247
29876SOL     OW91466   7.103   7.869   2.995
29876SOL    HW191467   7.025   7.835   2.951
29876SOL    HW291468   7.103   7.827   3.081
29877SOL     OW91469  14.164  13.824   0.085
29877SOL    HW191470  14.172  13.919   0.079
29877SOL    HW291471  14.082  13.810   0.132
29878SOL     OW91472   8.040  11.365   4.817
29878SOL    HW191473   8.081  11.451   4.808
29878SOL    HW291474   8.095  11.306   4.766
29879SOL     OW91475   7.146   2.251   1.278
29879SOL    HW191476   7.223   2.290   1.237
29879SOL    HW291477   7.097   2.214   1.204
29880SOL     OW91478  13.442   1.134   4.409
29880SOL    HW191479  13.494   1.161   4.485
29880SOL    HW291480  13.464   1.042   4.397
29881SOL     OW91481   3.164  10.989   7.690
29881SOL    HW191482   3.209  10.915   7.650
29881SOL    HW291483   3.076  10.956   7.709
29882SOL     OW91484   8.904   0.390  14.186
29882SOL    HW191485   8.810   0.402  14.191
29882SOL    HW291486   8.929   0.358  14.273
29883SOL     OW91487  13.183   6.187   5.374
29883SOL    HW191488  13.230   6.260   5.333
29883SOL    HW291489  13.104   6.177   5.322
29884SOL     OW91490   6.137   0.273  12.534
29884SOL    HW191491   6.146   0.341  12.600
29884SOL    HW291492   6.210   0.213  12.551
29885SOL     OW91493   7.385   8.687   9.859
29885SOL    HW191494   7.300   8.727   9.841
29885SOL    HW291495   7.444   8.761   9.871
29886SOL     OW91496   1.340  10.800   2.160
29886SOL    HW191497   1.261  10.762   2.122
29886SOL    HW291498   1.396  10.820   2.084
29887SOL     OW91499  13.185   6.952  10.976
29887SOL    HW191500  13.140   6.918  11.053
29887SOL    HW291501  13.259   6.893  10.963
29888SOL     OW91502   0.718  14.197   0.501
29888SOL    HW191503   0.623  14.199   0.502
29888SOL    HW291504   0.745  14.280   0.540
29889SOL     OW91505   8.321  13.080   5.299
29889SOL    HW191506   8.289  13.169   5.283
29889SOL    HW291507   8.263  13.025   5.246
29890SOL     OW91508   9.501   6.478  12.900
29890SOL    HW191509   9.576   6.418  12.911
29890SOL    HW291510   9.443   6.432  12.840
29891SOL     OW91511   4.867   3.080   3.055
29891SOL    HW191512   4.838   2.990   3.071
29891SOL    HW291513   4.905   3.078   2.968
29892SOL     OW91514  11.670   9.164   7.389
29892SOL    HW191515  11.665   9.152   7.294
29892SOL    HW291516  11.681   9.258   7.401
29893SOL     OW91517   5.813  10.708   9.486
29893SOL    HW191518   5.853  10.752   9.411
29893SOL    HW291519   5.796  10.778   9.549
29894SOL     OW91520   0.559   7.935   8.001
29894SOL    HW191521   0.539   7.949   8.094
29894SOL    HW291522   0.623   7.863   8.001
29895SOL     OW91523  10.766  14.617  10.311
29895SOL    HW191524  10.801  14.694  10.356
29895SOL    HW291525  10.730  14.563  10.381
29896SOL     OW91526  14.012  13.887   8.328
29896SOL    HW191527  14.014  13.923   8.240
29896SOL    HW291528  13.971  13.956   8.381
29897SOL     OW91529   9.314  13.952  14.407
29897SOL    HW191530   9.293  13.864  14.378
29897SOL    HW291531   9.251  13.970  14.477
29898SOL     OW91532   8.315   7.023   1.333
29898SOL    HW191533   8.300   6.987   1.421
29898SOL    HW291534   8.334   6.946   1.279
29899SOL     OW91535   3.561   1.172  13.635
29899SOL    HW191536   3.626   1.153  13.702
29899SOL    HW291537   3.607   1.161  13.552
29900SOL     OW91538   8.323  13.743  13.825
29900SOL    HW191539   8.240  13.718  13.867
29900SOL    HW291540   8.362  13.805  13.887
29901SOL     OW91541  14.089   9.458   7.572
29901SOL    HW191542  14.100   9.513   7.649
29901SOL    HW291543  14.176   9.455   7.532
29902SOL     OW91544   2.624   3.319   0.880
29902SOL    HW191545   2.573   3.385   0.833
29902SOL    HW291546   2.576   3.237   0.865
29903SOL     OW91547   7.180   1.746   7.927
29903SOL    HW191548   7.142   1.662   7.950
29903SOL    HW291549   7.216   1.734   7.839
29904SOL     OW91550   5.629   6.686   0.361
29904SOL    HW191551   5.542   6.651   0.345
29904SOL    HW291552   5.616   6.756   0.425
29905SOL     OW91553   1.275   7.649  13.871
29905SOL    HW191554   1.198   7.696  13.903
29905SOL    HW291555   1.318   7.615  13.950
29906SOL     OW91556   4.412  14.672   6.468
29906SOL    HW191557   4.338  14.682   6.528
29906SOL    HW291558   4.469  14.745   6.487
29907SOL     OW91559  13.713   5.421  13.083
29907SOL    HW191560  13.736   5.461  13.168
29907SOL    HW291561  13.796   5.388  13.049
29908SOL     OW91562   4.785   8.196   7.185
29908SOL    HW191563   4.819   8.285   7.190
29908SOL    HW291564   4.690   8.206   7.189
29909SOL     OW91565  13.531  12.499  14.547
29909SOL    HW191566  13.494  12.419  14.584
29909SOL    HW291567  13.456  12.545  14.509
29910SOL     OW91568   2.040   5.147   2.665
29910SOL    HW191569   1.949   5.138   2.694
29910SOL    HW291570   2.046   5.238   2.635
29911SOL     OW91571  11.053   2.092   1.777
29911SOL    HW191572  11.076   2.029   1.709
29911SOL    HW291573  11.137   2.132   1.802
29912SOL     OW91574   5.174   7.768   4.991
29912SOL    HW191575   5.216   7.723   5.064
29912SOL    HW291576   5.125   7.840   5.032
29913SOL     OW91577   6.100   2.125   3.560
29913SOL    HW191578   6.190   2.132   3.528
29913SOL    HW291579   6.089   2.033   3.581
29914SOL     OW91580   7.514   1.653   5.139
29914SOL    HW191581   7.508   1.640   5.044
29914SOL    HW291582   7.440   1.708   5.161
29915SOL     OW91583  14.511   4.256   9.528
29915SOL    HW191584  14.484   4.335   9.481
29915SOL    HW291585  14.546   4.199   9.460
29916SOL     OW91586  14.163  14.519   8.155
29916SOL    HW191587  14.100  14.450   8.132
29916SOL    HW291588  14.248  14.475   8.150
29917SOL     OW91589   8.856   0.149   6.603
29917SOL    HW191590   8.889   0.206   6.673
29917SOL    HW291591   8.913   0.072   6.606
29918SOL     OW91592   6.876  10.897   6.823
29918SOL    HW191593   6.943  10.899   6.892
29918SOL    HW291594   6.850  10.805   6.816
29919SOL     OW91595   5.378   2.699   3.827
29919SOL    HW191596   5.380   2.776   3.883
29919SOL    HW291597   5.312   2.642   3.866
29920SOL     OW91598   4.686   3.838   2.447
29920SOL    HW191599   4.752   3.770   2.465
29920SOL    HW291600   4.663   3.825   2.355
29921SOL     OW91601  11.544  10.328  12.595
29921SOL    HW191602  11.500  10.407  12.566
29921SOL    HW291603  11.636  10.352  12.602
29922SOL     OW91604  13.428   4.582  14.690
29922SOL    HW191605  13.458   4.497  14.722
29922SOL    HW291606  13.344   4.563  14.647
29923SOL     OW91607   8.584  12.774   4.546
29923SOL    HW191608   8.594  12.679   4.547
29923SOL    HW291609   8.553  12.797   4.633
29924SOL     OW91610  13.792   0.676   5.301
29924SOL    HW191611  13.757   0.656   5.388
29924SOL    HW291612  13.795   0.591   5.257
29925SOL     OW91613  13.122  10.403   4.171
29925SOL    HW191614  13.188  10.371   4.233
29925SOL    HW291615  13.108  10.494   4.196
29926SOL     OW91616  14.532   6.160  12.097
29926SOL    HW191617  14.599   6.209  12.145
29926SOL    HW291618  14.571   6.073  12.084
29927SOL     OW91619  14.036  11.325   1.183
29927SOL    HW191620  13.946  11.319   1.215
29927SOL    HW291621  14.085  11.365   1.254
29928SOL     OW91622  14.044   2.857   0.690
29928SOL    HW191623  14.126   2.809   0.673
29928SOL    HW291624  13.985   2.790   0.725
29929SOL     OW91625  11.712  12.836   3.537
29929SOL    HW191626  11.746  12.883   3.613
29929SOL    HW291627  11.783  12.777   3.511
29930SOL     OW91628  10.861   4.062  12.742
29930SOL    HW191629  10.955   4.047  12.757
29930SOL    HW291630  10.842   4.014  12.661
29931SOL     OW91631  10.911   0.854   2.607
29931SOL    HW191632  10.878   0.803   2.533
29931SOL    HW291633  10.990   0.895   2.574
29932SOL     OW91634  10.730  12.685   4.197
29932SOL    HW191635  10.718  12.608   4.141
29932SOL    HW291636  10.678  12.664   4.276
29933SOL     OW91637  13.128  11.375   0.812
29933SOL    HW191638  13.043  11.334   0.795
29933SOL    HW291639  13.111  11.437   0.883
29934SOL     OW91640  11.693  10.341  13.777
29934SOL    HW191641  11.634  10.402  13.733
29934SOL    HW291642  11.725  10.390  13.853
29935SOL     OW91643   0.704   5.761   0.782
29935SOL    HW191644   0.720   5.853   0.759
29935SOL    HW291645   0.680   5.719   0.699
29936SOL     OW91646   2.771  12.497  10.299
29936SOL    HW191647   2.815  12.423  10.341
29936SOL    HW291648   2.798  12.574  10.349
29937SOL     OW91649   1.535   6.944   9.799
29937SOL    HW191650   1.491   6.862   9.825
29937SOL    HW291651   1.493   6.968   9.716
29938SOL     OW91652   8.968  13.527   9.593
29938SOL    HW191653   8.877  13.496   9.597
29938SOL    HW291654   9.013  13.462   9.540
29939SOL     OW91655  12.351   4.762   3.586
29939SOL    HW191656  12.257   4.759   3.603
29939SOL    HW291657  12.390   4.716   3.660
29940SOL     OW91658   3.767  12.267   5.501
29940SOL    HW191659   3.823  12.345   5.501
29940SOL    HW291660   3.821  12.199   5.460
29941SOL     OW91661  11.498   2.138   2.036
29941SOL    HW191662  11.481   2.163   1.945
29941SOL    HW291663  11.472   2.046   2.041
29942SOL     OW91664   1.438  11.490   9.743
29942SOL    HW191665   1.447  11.468   9.835
29942SOL    HW291666   1.375  11.428   9.709
29943SOL     OW91667  14.594   3.872   5.136
29943SOL    HW191668  14.523   3.898   5.194
29943SOL    HW291669  14.673   3.879   5.189
29944SOL     OW91670  10.587   8.895   8.970
29944SOL    HW191671  10.628   8.877   9.055
29944SOL    HW291672  10.530   8.820   8.955
29945SOL     OW91673   0.330   9.084  13.851
29945SOL    HW191674   0.422   9.099  13.830
29945SOL    HW291675   0.330   8.999  13.896
29946SOL     OW91676  12.271   4.084   0.799
29946SOL    HW191677  12.197   4.095   0.860
29946SOL    HW291678  12.265   3.993   0.770
29947SOL     OW91679  11.362  10.934  14.101
29947SOL    HW191680  11.280  10.893  14.072
29947SOL    HW291681  11.336  11.020  14.133
29948SOL     OW91682  12.826  12.100  13.178
29948SOL    HW191683  12.902  12.118  13.234
29948SOL    HW291684  12.862  12.052  13.104
29949SOL     OW91685   0.189  14.089   2.124
29949SOL    HW191686   0.284  14.081   2.118
29949SOL    HW291687   0.160  14.000   2.147
29950SOL     OW91688   9.298  12.501  10.074
29950SOL    HW191689   9.281  12.595  10.080
29950SOL    HW291690   9.212  12.460  10.082
29951SOL     OW91691  10.186  13.680   1.484
29951SOL    HW191692  10.266  13.633   1.511
29951SOL    HW291693  10.193  13.765   1.529
29952SOL     OW91694  14.252   1.320   0.749
29952SOL    HW191695  14.280   1.263   0.820
29952SOL    HW291696  14.275   1.273   0.669
29953SOL     OW91697   8.926   4.489  11.826
29953SOL    HW191698   9.002   4.434  11.805
29953SOL    HW291699   8.911   4.540  11.746
29954SOL     OW91700   8.592   1.596   6.151
29954SOL    HW191701   8.685   1.574   6.151
29954SOL    HW291702   8.548   1.513   6.172
29955SOL     OW91703   1.842   7.399   4.109
29955SOL    HW191704   1.915   7.348   4.073
29955SOL    HW291705   1.837   7.372   4.200
29956SOL     OW91706   2.110  12.600   4.786
29956SOL    HW191707   2.095  12.655   4.709
29956SOL    HW291708   2.024  12.592   4.827
29957SOL     OW91709  11.788   5.890   2.920
29957SOL    HW191710  11.766   5.939   2.841
29957SOL    HW291711  11.706   5.850   2.948
29958SOL     OW91712   7.824  11.987   7.981
29958SOL    HW191713   7.739  11.968   7.942
29958SOL    HW291714   7.879  11.912   7.958
29959SOL     OW91715  13.129   3.695  10.255
29959SOL    HW191716  13.161   3.738  10.176
29959SOL    HW291717  13.204   3.647  10.288
29960SOL     OW91718   8.448   2.233  11.251
29960SOL    HW191719   8.424   2.325  11.265
29960SOL    HW291720   8.518   2.237  11.186
29961SOL     OW91721   9.671   6.008   9.003
29961SOL    HW191722   9.669   5.920   9.041
29961SOL    HW291723   9.657   6.066   9.078
29962SOL     OW91724  12.280   3.436   7.902
29962SOL    HW191725  12.194   3.397   7.886
29962SOL    HW291726  12.261   3.526   7.928
29963SOL     OW91727  14.224   6.359   0.955
29963SOL    HW191728  14.204   6.311   0.875
29963SOL    HW291729  14.264   6.440   0.925
29964SOL     OW91730  14.233   3.138  10.931
29964SOL    HW191731  14.257   3.046  10.946
29964SOL    HW291732  14.316   3.183  10.918
29965SOL     OW91733   3.882   3.471   4.849
29965SOL    HW191734   3.919   3.436   4.930
29965SOL    HW291735   3.944   3.539   4.822
29966SOL     OW91736   8.855  12.831   2.969
29966SOL    HW191737   8.895  12.851   2.885
29966SOL    HW291738   8.763  12.855   2.959
29967SOL     OW91739   7.890   6.572   3.581
29967SOL    HW191740   7.818   6.635   3.580
29967SOL    HW291741   7.935   6.589   3.664
29968SOL     OW91742  10.673   4.401  14.451
29968SOL    HW191743  10.676   4.400  14.547
29968SOL    HW291744  10.735   4.470  14.426
29969SOL     OW91745  13.349   8.615  13.898
29969SOL    HW191746  13.354   8.711  13.894
29969SOL    HW291747  13.256   8.595  13.890
29970SOL     OW91748   0.807  10.964  11.801
29970SOL    HW191749   0.743  10.967  11.729
29970SOL    HW291750   0.888  10.994  11.761
29971SOL     OW91751  10.936   6.094   3.139
29971SOL    HW191752  10.845   6.118   3.155
29971SOL    HW291753  10.965   6.156   3.072
29972SOL     OW91754   6.338  14.471  10.939
29972SOL    HW191755   6.349  14.387  10.895
29972SOL    HW291756   6.341  14.450  11.032
29973SOL     OW91757   3.913  12.013  10.801
29973SOL    HW191758   4.008  12.023  10.792
29973SOL    HW291759   3.899  11.997  10.894
29974SOL     OW91760   6.850   8.785  12.406
29974SOL    HW191761   6.904   8.777  12.327
29974SOL    HW291762   6.822   8.696  12.425
29975SOL     OW91763   8.890  13.221   7.678
29975SOL    HW191764   8.941  13.240   7.599
29975SOL    HW291765   8.918  13.133   7.703
29976SOL     OW91766   2.274   7.826   6.441
29976SOL    HW191767   2.249   7.891   6.376
29976SOL    HW291768   2.285   7.875   6.522
29977SOL     OW91769   9.411   4.976   2.739
29977SOL    HW191770   9.495   5.023   2.734
29977SOL    HW291771   9.414   4.914   2.666
29978SOL     OW91772   9.326   6.743   1.674
29978SOL    HW191773   9.266   6.682   1.632
29978SOL    HW291774   9.409   6.696   1.678
29979SOL     OW91775   5.540  12.471   8.315
29979SOL    HW191776   5.534  12.467   8.220
29979SOL    HW291777   5.634  12.465   8.333
29980SOL     OW91778  12.896   3.951   5.668
29980SOL    HW191779  12.916   3.860   5.646
29980SOL    HW291780  12.956   4.003   5.614
29981SOL     OW91781   3.820   6.692   3.094
29981SOL    HW191782   3.801   6.684   3.188
29981SOL    HW291783   3.805   6.784   3.073
29982SOL     OW91784   4.135  11.052   0.032
29982SOL    HW191785   4.148  10.971   0.082
29982SOL    HW291786   4.041  11.056   0.015
29983SOL     OW91787   3.575   9.824  14.851
29983SOL    HW191788   3.539   9.839   0.057
29983SOL    HW291789   3.635   9.750  14.862
29984SOL     OW91790   5.803  14.683  10.275
29984SOL    HW191791   5.834  14.773  10.280
29984SOL    HW291792   5.847  14.639  10.348
29985SOL     OW91793  12.320   1.581   9.566
29985SOL    HW191794  12.340   1.627   9.485
29985SOL    HW291795  12.247   1.524   9.544
29986SOL     OW91796  13.816   6.632   8.121
29986SOL    HW191797  13.865   6.551   8.109
29986SOL    HW291798  13.876   6.701   8.094
29987SOL     OW91799  11.743  10.852   6.654
29987SOL    HW191800  11.656  10.892   6.644
29987SOL    HW291801  11.726  10.765   6.691
29988SOL     OW91802  12.681   9.256  13.498
29988SOL    HW191803  12.701   9.207  13.578
29988SOL    HW291804  12.587   9.247  13.486
29989SOL     OW91805   9.467   6.329   8.726
29989SOL    HW191806   9.375   6.344   8.707
29989SOL    HW291807   9.474   6.342   8.820
29990SOL     OW91808   6.075  12.410   6.218
29990SOL    HW191809   5.992  12.437   6.256
29990SOL    HW291810   6.052  12.369   6.134
29991SOL     OW91811  11.264  13.894   7.256
29991SOL    HW191812  11.173  13.909   7.279
29991SOL    HW291813  11.268  13.910   7.162
29992SOL     OW91814  13.753   1.488   2.288
29992SOL    HW191815  13.723   1.579   2.280
29992SOL    HW291816  13.751   1.455   2.198
29993SOL     OW91817  14.212  11.310  11.378
29993SOL    HW191818  14.274  11.351  11.439
29993SOL    HW291819  14.235  11.217  11.380
29994SOL     OW91820   0.532   7.279   6.837
29994SOL    HW191821   0.471   7.253   6.767
29994SOL    HW291822   0.523   7.374   6.842
29995SOL     OW91823   8.996   6.308   5.385
29995SOL    HW191824   9.032   6.337   5.469
29995SOL    HW291825   9.009   6.383   5.326
29996SOL     OW91826   5.198   5.467   1.865
29996SOL    HW191827   5.106   5.443   1.852
29996SOL    HW291828   5.205   5.485   1.958
29997SOL     OW91829   5.710   0.467   0.949
29997SOL    HW191830   5.748   0.527   0.884
29997SOL    HW291831   5.621   0.498   0.961
29998SOL     OW91832   3.443  10.536   6.351
29998SOL    HW191833   3.423  10.474   6.421
29998SOL    HW291834   3.512  10.492   6.300
29999SOL     OW91835   4.594   0.180   9.621
29999SOL    HW191836   4.614   0.242   9.550
29999SOL    HW291837   4.672   0.125   9.628
30000SOL     OW91838   0.930   4.771  14.504
30000SOL    HW191839   0.938   4.699  14.567
30000SOL    HW291840   0.841   4.803  14.516
30001SOL     OW91841  13.375   4.464   7.673
30001SOL    HW191842  13.304   4.473   7.736
30001SOL    HW291843  13.447   4.516   7.710
30002SOL     OW91844   7.199   9.516   3.851
30002SOL    HW191845   7.178   9.497   3.759
30002SOL    HW291846   7.140   9.588   3.874
30003SOL     OW91847   0.480   1.110   3.387
30003SOL    HW191848   0.412   1.079   3.447
30003SOL    HW291849   0.541   1.158   3.442
30004SOL     OW91850  12.062   2.853  13.821
30004SOL    HW191851  12.018   2.770  13.839
30004SOL    HW291852  11.997   2.920  13.844
30005SOL     OW91853   5.217   2.498  13.357
30005SOL    HW191854   5.158   2.512  13.431
30005SOL    HW291855   5.304   2.520  13.391
30006SOL     OW91856   1.779   8.385   7.586
30006SOL    HW191857   1.771   8.466   7.637
30006SOL    HW291858   1.833   8.410   7.511
30007SOL     OW91859   8.532   2.116   0.679
30007SOL    HW191860   8.495   2.054   0.616
30007SOL    HW291861   8.611   2.148   0.636
30008SOL     OW91862   5.807  11.665   0.171
30008SOL    HW191863   5.808  11.733   0.104
30008SOL    HW291864   5.873  11.602   0.143
30009SOL     OW91865   8.040  10.909   6.758
30009SOL    HW191866   8.123  10.863   6.770
30009SOL    HW291867   7.992  10.856   6.694
30010SOL     OW91868   5.952   8.402   7.413
30010SOL    HW191869   6.019   8.339   7.436
30010SOL    HW291870   5.890   8.353   7.359
30011SOL     OW91871   9.510  12.949   9.260
30011SOL    HW191872   9.504  12.855   9.240
30011SOL    HW291873   9.586  12.956   9.318
30012SOL     OW91874   9.282   5.517  12.111
30012SOL    HW191875   9.269   5.605  12.075
30012SOL    HW291876   9.277   5.459  12.035
30013SOL     OW91877   0.534   1.214  14.148
30013SOL    HW191878   0.450   1.174  14.167
30013SOL    HW291879   0.515   1.280  14.081
30014SOL     OW91880   0.500   4.563   7.285
30014SOL    HW191881   0.495   4.501   7.358
30014SOL    HW291882   0.564   4.525   7.225
30015SOL     OW91883   8.866   9.384   6.851
30015SOL    HW191884   8.901   9.381   6.940
30015SOL    HW291885   8.935   9.426   6.800
30016SOL     OW91886   2.227  11.733  11.441
30016SOL    HW191887   2.220  11.700  11.531
30016SOL    HW291888   2.178  11.670  11.388
30017SOL     OW91889   4.990  11.090   7.514
30017SOL    HW191890   4.925  11.135   7.460
30017SOL    HW291891   4.993  11.001   7.479
30018SOL     OW91892   6.092   9.167   0.444
30018SOL    HW191893   6.051   9.128   0.366
30018SOL    HW291894   6.023   9.166   0.510
30019SOL     OW91895  12.501   0.151   2.403
30019SOL    HW191896  12.548   0.087   2.349
30019SOL    HW291897  12.448   0.200   2.340
30020SOL     OW91898   4.359  10.359   8.156
30020SOL    HW191899   4.363  10.286   8.095
30020SOL    HW291900   4.426  10.420   8.125
30021SOL     OW91901   8.592  10.211   0.489
30021SOL    HW191902   8.648  10.232   0.563
30021SOL    HW291903   8.527  10.282   0.487
30022SOL     OW91904   0.380  13.158   7.297
30022SOL    HW191905   0.392  13.253   7.292
30022SOL    HW291906   0.435  13.130   7.370
30023SOL     OW91907  10.999   7.893   1.465
30023SOL    HW191908  11.033   7.982   1.470
30023SOL    HW291909  11.006   7.859   1.554
30024SOL     OW91910   0.519  12.351   4.454
30024SOL    HW191911   0.576  12.327   4.527
30024SOL    HW291912   0.521  12.275   4.396
30025SOL     OW91913  10.488   8.733   6.163
30025SOL    HW191914  10.535   8.789   6.224
30025SOL    HW291915  10.395   8.749   6.183
30026SOL     OW91916   0.848   4.959   4.217
30026SOL    HW191917   0.787   4.920   4.154
30026SOL    HW291918   0.890   5.030   4.167
30027SOL     OW91919  13.196   2.753  12.398
30027SOL    HW191920  13.178   2.729  12.307
30027SOL    HW291921  13.263   2.821  12.393
30028SOL     OW91922   7.666   7.768   2.081
30028SOL    HW191923   7.700   7.842   2.032
30028SOL    HW291924   7.693   7.691   2.031
30029SOL     OW91925  13.145  11.483   0.194
30029SOL    HW191926  13.101  11.418   0.249
30029SOL    HW291927  13.176  11.549   0.255
30030SOL     OW91928   6.926   8.167   2.152
30030SOL    HW191929   6.947   8.245   2.101
30030SOL    HW291930   6.944   8.094   2.092
30031SOL     OW91931   3.315   9.759   4.323
30031SOL    HW191932   3.370   9.830   4.289
30031SOL    HW291933   3.370   9.681   4.315
30032SOL     OW91934   2.232   5.062  12.058
30032SOL    HW191935   2.198   5.078  12.146
30032SOL    HW291936   2.202   5.136  12.006
30033SOL     OW91937  14.160  10.417  13.396
30033SOL    HW191938  14.232  10.480  13.387
30033SOL    HW291939  14.122  10.436  13.481
30034SOL     OW91940   6.781   8.592   8.571
30034SOL    HW191941   6.721   8.606   8.644
30034SOL    HW291942   6.859   8.553   8.611
30035SOL     OW91943   6.815   2.077   5.296
30035SOL    HW191944   6.891   2.023   5.317
30035SOL    HW291945   6.789   2.115   5.381
30036SOL     OW91946   4.303  12.919   0.939
30036SOL    HW191947   4.356  12.968   0.876
30036SOL    HW291948   4.268  12.845   0.889
30037SOL     OW91949  10.792   5.863   2.302
30037SOL    HW191950  10.788   5.841   2.395
30037SOL    HW291951  10.794   5.959   2.300
30038SOL     OW91952   0.168   0.646   0.305
30038SOL    HW191953   0.100   0.581   0.321
30038SOL    HW291954   0.140   0.723   0.355
30039SOL     OW91955   5.273  13.762   9.139
30039SOL    HW191956   5.242  13.827   9.076
30039SOL    HW291957   5.207  13.762   9.209
30040SOL     OW91958  14.683   6.606  14.283
30040SOL    HW191959  14.666   6.700  14.279
30040SOL    HW291960  14.706   6.590  14.375
30041SOL     OW91961   5.771  13.491   2.821
30041SOL    HW191962   5.837  13.422   2.810
30041SOL    HW291963   5.687  13.446   2.813
30042SOL     OW91964  10.341   6.879  10.502
30042SOL    HW191965  10.427   6.888  10.542
30042SOL    HW291966  10.311   6.969  10.488
30043SOL     OW91967   0.412   1.275   3.849
30043SOL    HW191968   0.444   1.194   3.808
30043SOL    HW291969   0.389   1.331   3.775
30044SOL     OW91970  12.869   5.822   2.825
30044SOL    HW191971  12.866   5.917   2.814
30044SOL    HW291972  12.950   5.807   2.874
30045SOL     OW91973   7.153   9.874   9.562
30045SOL    HW191974   7.172   9.788   9.524
30045SOL    HW291975   7.143   9.857   9.656
30046SOL     OW91976   9.208  11.470   7.921
30046SOL    HW191977   9.175  11.454   8.009
30046SOL    HW291978   9.171  11.554   7.896
30047SOL     OW91979  10.470  11.957   4.930
30047SOL    HW191980  10.421  11.961   4.847
30047SOL    HW291981  10.556  11.923   4.906
30048SOL     OW91982   3.448   4.153   4.763
30048SOL    HW191983   3.456   4.126   4.672
30048SOL    HW291984   3.392   4.087   4.803
30049SOL     OW91985   1.529   8.744  10.815
30049SOL    HW191986   1.602   8.688  10.843
30049SOL    HW291987   1.571   8.826  10.788
30050SOL     OW91988   9.725   6.954   6.992
30050SOL    HW191989   9.792   6.940   7.059
30050SOL    HW291990   9.652   6.995   7.039
30051SOL     OW91991   3.198   8.666   8.687
30051SOL    HW191992   3.120   8.651   8.632
30051SOL    HW291993   3.222   8.757   8.668
30052SOL     OW91994  13.245  10.192   2.068
30052SOL    HW191995  13.306  10.120   2.053
30052SOL    HW291996  13.167  10.169   2.019
30053SOL     OW91997   3.062   3.825  13.400
30053SOL    HW191998   3.059   3.872  13.483
30053SOL    HW291999   2.972   3.793  13.387
30054SOL     OW92000   3.216  12.628   5.389
30054SOL    HW192001   3.166  12.554   5.354
30054SOL    HW292002   3.218  12.692   5.318
30055SOL     OW92003   6.160   8.209  12.333
30055SOL    HW192004   6.248   8.222  12.369
30055SOL    HW292005   6.166   8.129  12.281
30056SOL     OW92006   8.155   9.918   9.250
30056SOL    HW192007   8.226   9.894   9.190
30056SOL    HW292008   8.099   9.977   9.199
30057SOL     OW92009   2.058   8.602   1.749
30057SOL    HW192010   1.973   8.623   1.787
30057SOL    HW292011   2.086   8.683   1.706
30058SOL     OW92012   5.176   0.397   3.783
30058SOL    HW192013   5.136   0.454   3.849
30058SOL    HW292014   5.258   0.441   3.760
30059SOL     OW92015   0.845   1.566   3.225
30059SOL    HW192016   0.838   1.605   3.312
30059SOL    HW292017   0.776   1.500   3.223
30060SOL     OW92018   9.969   5.042   4.792
30060SOL    HW192019  10.031   5.075   4.857
30060SOL    HW292020   9.925   4.969   4.835
30061SOL     OW92021   3.985   8.248   2.807
30061SOL    HW192022   3.959   8.248   2.714
30061SOL    HW292023   4.010   8.338   2.825
30062SOL     OW92024  10.434  12.921   4.010
30062SOL    HW192025  10.354  12.943   3.961
30062SOL    HW292026  10.499  12.983   3.977
30063SOL     OW92027   7.961   3.815   9.881
30063SOL    HW192028   8.007   3.859   9.952
30063SOL    HW292029   7.872   3.848   9.885
30064SOL     OW92030  13.840  11.353   7.480
30064SOL    HW192031  13.827  11.305   7.562
30064SOL    HW292032  13.934  11.347   7.463
30065SOL     OW92033   7.030   9.146   3.152
30065SOL    HW192034   6.994   9.231   3.173
30065SOL    HW292035   6.979   9.115   3.077
30066SOL     OW92036  12.262   7.764   2.293
30066SOL    HW192037  12.282   7.857   2.307
30066SOL    HW292038  12.166   7.760   2.296
30067SOL     OW92039   4.674   0.979   9.621
30067SOL    HW192040   4.580   0.983   9.600
30067SOL    HW292041   4.717   1.020   9.546
30068SOL     OW92042   6.726  14.650  10.260
30068SOL    HW192043   6.741  14.568  10.213
30068SOL    HW292044   6.753  14.719  10.199
30069SOL     OW92045   6.169  14.011  12.395
30069SOL    HW192046   6.199  13.985  12.308
30069SOL    HW292047   6.082  13.971  12.404
30070SOL     OW92048  10.199   7.273   7.982
30070SOL    HW192049  10.123   7.325   7.957
30070SOL    HW292050  10.274   7.325   7.953
30071SOL     OW92051  11.433  10.809   8.993
30071SOL    HW192052  11.369  10.878   9.007
30071SOL    HW292053  11.382  10.732   8.970
30072SOL     OW92054  14.189  12.937  10.734
30072SOL    HW192055  14.162  12.847  10.752
30072SOL    HW292056  14.283  12.938  10.755
30073SOL     OW92057   4.624   2.885   6.755
30073SOL    HW192058   4.620   2.973   6.793
30073SOL    HW292059   4.611   2.898   6.662
30074SOL     OW92060   0.336   4.716  10.519
30074SOL    HW192061   0.385   4.734  10.439
30074SOL    HW292062   0.298   4.629  10.505
30075SOL     OW92063   5.327   1.386   8.823
30075SOL    HW192064   5.373   1.416   8.901
30075SOL    HW292065   5.259   1.451   8.808
30076SOL     OW92066   4.263   5.852  10.472
30076SOL    HW192067   4.261   5.788  10.401
30076SOL    HW292068   4.207   5.814  10.540
30077SOL     OW92069  12.993   6.613  14.134
30077SOL    HW192070  12.977   6.602  14.228
30077SOL    HW292071  13.036   6.532  14.107
30078SOL     OW92072   2.615   9.411   9.360
30078SOL    HW192073   2.679   9.340   9.370
30078SOL    HW292074   2.531   9.369   9.378
30079SOL     OW92075   4.888   4.636  13.117
30079SOL    HW192076   4.956   4.662  13.179
30079SOL    HW292077   4.839   4.568  13.163
30080SOL     OW92078   6.228   7.111   0.519
30080SOL    HW192079   6.299   7.135   0.578
30080SOL    HW292080   6.188   7.194   0.494
30081SOL     OW92081   3.424   6.985   4.561
30081SOL    HW192082   3.412   6.978   4.467
30081SOL    HW292083   3.519   6.993   4.572
30082SOL     OW92084   3.682   7.468   0.738
30082SOL    HW192085   3.686   7.410   0.662
30082SOL    HW292086   3.596   7.510   0.731
30083SOL     OW92087  11.713   0.648   3.600
30083SOL    HW192088  11.792   0.594   3.598
30083SOL    HW292089  11.741   0.734   3.569
30084SOL     OW92090   2.467   1.957  11.145
30084SOL    HW192091   2.445   1.948  11.052
30084SOL    HW292092   2.562   1.941  11.149
30085SOL     OW92093  12.560   9.441   2.717
30085SOL    HW192094  12.468   9.450   2.742
30085SOL    HW292095  12.571   9.502   2.644
30086SOL     OW92096  13.076   5.783  10.241
30086SOL    HW192097  13.056   5.857  10.299
30086SOL    HW292098  13.076   5.821  10.153
30087SOL     OW92099   3.684  11.189   9.222
30087SOL    HW192100   3.700  11.181   9.316
30087SOL    HW292101   3.648  11.277   9.211
30088SOL     OW92102   0.049   7.367  14.186
30088SOL    HW192103   0.095   7.422  14.250
30088SOL    HW292104   0.025   7.289  14.236
30089SOL     OW92105  11.839  12.288   3.199
30089SOL    HW192106  11.882  12.371   3.183
30089SOL    HW292107  11.903  12.237   3.249
30090SOL     OW92108   7.747   1.675   0.065
30090SOL    HW192109   7.754   1.711   0.153
30090SOL    HW292110   7.709   1.745   0.012
30091SOL     OW92111   6.377  12.418   2.334
30091SOL    HW192112   6.333  12.338   2.365
30091SOL    HW292113   6.453  12.426   2.392
30092SOL     OW92114   8.357   6.906   9.784
30092SOL    HW192115   8.447   6.917   9.753
30092SOL    HW292116   8.331   6.819   9.753
30093SOL     OW92117   4.883  11.997   9.165
30093SOL    HW192118   4.906  11.967   9.077
30093SOL    HW292119   4.873  12.092   9.156
30094SOL     OW92120   1.942   8.546   6.901
30094SOL    HW192121   1.940   8.592   6.818
30094SOL    HW292122   1.860   8.571   6.944
30095SOL     OW92123   5.470  11.270   2.396
30095SOL    HW192124   5.536  11.215   2.438
30095SOL    HW292125   5.505  11.286   2.308
30096SOL     OW92126  13.447   0.892  14.223
30096SOL    HW192127  13.416   0.907  14.313
30096SOL    HW292128  13.502   0.814  14.230
30097SOL     OW92129  14.782  13.389   8.833
30097SOL    HW192130  14.738  13.454   8.888
30097SOL    HW292131  14.766  13.418   8.744
30098SOL     OW92132  13.014   7.562   3.546
30098SOL    HW192133  12.981   7.644   3.583
30098SOL    HW292134  12.937   7.505   3.544
30099SOL     OW92135  12.242   0.616  14.881
30099SOL    HW192136  12.149   0.636   0.004
30099SOL    HW292137  12.286   0.700   0.014
30100SOL     OW92138  12.278  12.333   8.297
30100SOL    HW192139  12.206  12.277   8.268
30100SOL    HW292140  12.235  12.407   8.340
30101SOL     OW92141   5.868   0.775  14.818
30101SOL    HW192142   5.880   0.766   0.031
30101SOL    HW292143   5.892   0.689  14.783
30102SOL     OW92144   1.266   4.471  14.644
30102SOL    HW192145   1.208   4.481  14.569
30102SOL    HW292146   1.260   4.554  14.691
30103SOL     OW92147   6.057   7.348  14.335
30103SOL    HW192148   5.993   7.285  14.368
30103SOL    HW292149   6.069   7.410  14.407
30104SOL     OW92150  10.979  13.615   4.707
30104SOL    HW192151  11.011  13.678   4.643
30104SOL    HW292152  11.008  13.530   4.674
30105SOL     OW92153  14.066  12.993   2.371
30105SOL    HW192154  14.065  12.991   2.467
30105SOL    HW292155  14.157  12.978   2.348
30106SOL     OW92156   6.385   5.463  12.998
30106SOL    HW192157   6.297   5.481  13.030
30106SOL    HW292158   6.403   5.533  12.936
30107SOL     OW92159   5.108   2.175  10.263
30107SOL    HW192160   5.074   2.226  10.337
30107SOL    HW292161   5.203   2.184  10.269
30108SOL     OW92162   8.421  10.261   3.596
30108SOL    HW192163   8.352  10.197   3.578
30108SOL    HW292164   8.425  10.266   3.691
30109SOL     OW92165   8.078   3.515  12.042
30109SOL    HW192166   8.040   3.541  11.958
30109SOL    HW292167   8.164   3.558  12.043
30110SOL     OW92168  11.102   9.141   9.494
30110SOL    HW192169  11.029   9.172   9.441
30110SOL    HW292170  11.071   9.060   9.534
30111SOL     OW92171   9.953  14.083   2.547
30111SOL    HW192172  10.016  14.011   2.546
30111SOL    HW292173   9.870  14.042   2.570
30112SOL     OW92174   1.614  12.001   6.259
30112SOL    HW192175   1.670  11.926   6.280
30112SOL    HW292176   1.548  11.966   6.199
30113SOL     OW92177  11.203   7.659  11.303
30113SOL    HW192178  11.274   7.600  11.329
30113SOL    HW292179  11.225   7.685  11.213
30114SOL     OW92180  11.403   5.592   9.082
30114SOL    HW192181  11.330   5.647   9.112
30114SOL    HW292182  11.389   5.508   9.125
30115SOL     OW92183  10.499   1.836  12.124
30115SOL    HW192184  10.565   1.860  12.188
30115SOL    HW292185  10.452   1.918  12.107
30116SOL     OW92186   4.354   5.226   7.686
30116SOL    HW192187   4.422   5.247   7.750
30116SOL    HW292188   4.329   5.136   7.706
30117SOL     OW92189  13.522   8.969  13.098
30117SOL    HW192190  13.524   8.918  13.017
30117SOL    HW292191  13.614   8.989  13.116
30118SOL     OW92192  11.868   2.049  14.162
30118SOL    HW192193  11.924   2.125  14.150
30118SOL    HW292194  11.779   2.085  14.168
30119SOL     OW92195   1.302   7.015   0.044
30119SOL    HW192196   1.341   6.928   0.035
30119SOL    HW292197   1.308   7.053  14.839
30120SOL     OW92198  10.935  11.398  13.768
30120SOL    HW192199  10.869  11.467  13.774
30120SOL    HW292200  10.934  11.372  13.675
30121SOL     OW92201   8.512  12.087   3.303
30121SOL    HW192202   8.454  12.162   3.311
30121SOL    HW292203   8.495  12.053   3.215
30122SOL     OW92204  11.373   7.273   7.024
30122SOL    HW192205  11.394   7.353   7.072
30122SOL    HW292206  11.453   7.221   7.029
30123SOL     OW92207   0.403   6.919   3.950
30123SOL    HW192208   0.321   6.870   3.948
30123SOL    HW292209   0.391   6.989   3.886
30124SOL     OW92210  11.614  13.674   2.145
30124SOL    HW192211  11.699  13.701   2.182
30124SOL    HW292212  11.561  13.653   2.222
30125SOL     OW92213   0.873   5.237   7.242
30125SOL    HW192214   0.903   5.151   7.271
30125SOL    HW292215   0.779   5.225   7.224
30126SOL     OW92216  12.489   4.952  14.118
30126SOL    HW192217  12.431   4.884  14.085
30126SOL    HW292218  12.452   4.975  14.204
30127SOL     OW92219   7.724  11.644   5.830
30127SOL    HW192220   7.722  11.594   5.911
30127SOL    HW292221   7.738  11.735   5.858
30128SOL     OW92222   9.459   0.060   2.739
30128SOL    HW192223   9.529   0.021   2.687
30128SOL    HW292224   9.502   0.091   2.818
30129SOL     OW92225   3.589   8.934   8.772
30129SOL    HW192226   3.661   8.905   8.828
30129SOL    HW292227   3.511   8.895   8.811
30130SOL     OW92228   0.185   2.880  10.157
30130SOL    HW192229   0.274   2.859  10.183
30130SOL    HW292230   0.182   2.976  10.156
30131SOL     OW92231  10.939  12.278  13.344
30131SOL    HW192232  10.995  12.349  13.314
30131SOL    HW292233  10.965  12.203  13.291
30132SOL     OW92234  12.245  11.085   0.568
30132SOL    HW192235  12.281  11.154   0.512
30132SOL    HW292236  12.151  11.102   0.571
30133SOL     OW92237   4.581  13.885  13.742
30133SOL    HW192238   4.541  13.967  13.714
30133SOL    HW292239   4.547  13.820  13.679
30134SOL     OW92240  11.230  11.628   4.516
30134SOL    HW192241  11.299  11.652   4.578
30134SOL    HW292242  11.258  11.663   4.432
30135SOL     OW92243   7.641   0.747   9.765
30135SOL    HW192244   7.577   0.751   9.837
30135SOL    HW292245   7.707   0.686   9.796
30136SOL     OW92246   2.381  13.116   9.411
30136SOL    HW192247   2.433  13.039   9.388
30136SOL    HW292248   2.325  13.131   9.335
30137SOL     OW92249   8.418  10.424  10.068
30137SOL    HW192250   8.349  10.440  10.003
30137SOL    HW292251   8.445  10.512  10.096
30138SOL     OW92252   3.487   8.807  13.030
30138SOL    HW192253   3.470   8.737  12.967
30138SOL    HW292254   3.520   8.880  12.977
30139SOL     OW92255   8.354  14.804   5.023
30139SOL    HW192256   8.416  14.780   5.092
30139SOL    HW292257   8.293  14.730   5.019
30140SOL     OW92258   2.227  12.829   9.925
30140SOL    HW192259   2.216  12.778   9.845
30140SOL    HW292260   2.184  12.776   9.993
30141SOL     OW92261  13.450  10.058  13.428
30141SOL    HW192262  13.392  10.128  13.395
30141SOL    HW292263  13.523  10.058  13.366
30142SOL     OW92264  12.218   1.813   3.888
30142SOL    HW192265  12.284   1.829   3.955
30142SOL    HW292266  12.224   1.719   3.870
30143SOL     OW92267   5.149   4.918   9.078
30143SOL    HW192268   5.084   4.848   9.091
30143SOL    HW292269   5.150   4.966   9.161
30144SOL     OW92270   4.918   7.774  10.476
30144SOL    HW192271   4.934   7.797  10.568
30144SOL    HW292272   4.890   7.682  10.479
30145SOL     OW92273   6.070   6.141   2.353
30145SOL    HW192274   6.076   6.235   2.336
30145SOL    HW292275   5.976   6.122   2.358
30146SOL     OW92276  10.517   0.194   0.117
30146SOL    HW192277  10.465   0.268   0.150
30146SOL    HW292278  10.557   0.157   0.195
30147SOL     OW92279   6.120   8.571   7.965
30147SOL    HW192280   6.214   8.589   7.962
30147SOL    HW292281   6.098   8.571   8.058
30148SOL     OW92282  10.699   7.326   2.524
30148SOL    HW192283  10.746   7.382   2.461
30148SOL    HW292284  10.621   7.298   2.477
30149SOL     OW92285   9.415  11.236   2.943
30149SOL    HW192286   9.327  11.271   2.925
30149SOL    HW292287   9.443  11.200   2.859
30150SOL     OW92288   0.584  13.290   0.231
30150SOL    HW192289   0.537  13.291   0.314
30150SOL    HW292290   0.543  13.219   0.181
30151SOL     OW92291   2.820   6.173  11.688
30151SOL    HW192292   2.801   6.225  11.765
30151SOL    HW292293   2.736   6.134  11.663
30152SOL     OW92294   9.977   5.253   1.040
30152SOL    HW192295  10.051   5.203   1.005
30152SOL    HW292296   9.917   5.186   1.073
30153SOL     OW92297   4.275   3.826  11.034
30153SOL    HW192298   4.318   3.787  11.109
30153SOL    HW292299   4.347   3.852  10.976
30154SOL     OW92300   8.971   9.469   1.361
30154SOL    HW192301   8.929   9.393   1.400
30154SOL    HW292302   9.015   9.435   1.283
30155SOL     OW92303  10.956  12.032   5.611
30155SOL    HW192304  10.939  12.082   5.531
30155SOL    HW292305  10.902  11.953   5.601
30156SOL     OW92306   0.302   9.678   3.426
30156SOL    HW192307   0.325   9.734   3.501
30156SOL    HW292308   0.384   9.639   3.399
30157SOL     OW92309   9.620   4.368  13.061
30157SOL    HW192310   9.606   4.445  13.115
30157SOL    HW292311   9.668   4.400  12.985
30158SOL     OW92312  13.671  10.994   3.180
30158SOL    HW192313  13.736  11.031   3.240
30158SOL    HW292314  13.707  10.909   3.155
30159SOL     OW92315   9.206  12.957   2.113
30159SOL    HW192316   9.243  12.947   2.200
30159SOL    HW292317   9.180  13.049   2.109
30160SOL     OW92318  11.960   6.479   2.134
30160SOL    HW192319  11.963   6.519   2.221
30160SOL    HW292320  12.050   6.484   2.102
30161SOL     OW92321   1.001   0.063   4.422
30161SOL    HW192322   1.056  14.867   4.409
30161SOL    HW292323   1.036   0.104   4.501
30162SOL     OW92324  13.802   4.679   1.823
30162SOL    HW192325  13.830   4.766   1.854
30162SOL    HW292326  13.761   4.697   1.738
30163SOL     OW92327  13.465   3.977  13.417
30163SOL    HW192328  13.391   3.948  13.363
30163SOL    HW292329  13.543   3.954  13.366
30164SOL     OW92330  10.940   1.818  12.532
30164SOL    HW192331  10.971   1.790  12.618
30164SOL    HW292332  10.856   1.861  12.549
30165SOL     OW92333  14.544   8.523   4.913
30165SOL    HW192334  14.542   8.434   4.948
30165SOL    HW292335  14.636   8.548   4.916
30166SOL     OW92336  12.724   3.089   6.897
30166SOL    HW192337  12.748   3.120   6.984
30166SOL    HW292338  12.807   3.080   6.850
30167SOL     OW92339  14.168   0.393   6.154
30167SOL    HW192340  14.256   0.395   6.193
30167SOL    HW292341  14.110   0.421   6.224
30168SOL     OW92342  12.190  12.282   8.856
30168SOL    HW192343  12.113  12.332   8.884
30168SOL    HW292344  12.179  12.197   8.899
30169SOL     OW92345   6.372   1.626  12.870
30169SOL    HW192346   6.390   1.719  12.857
30169SOL    HW292347   6.455   1.583  12.852
30170SOL     OW92348   8.294  14.231   6.348
30170SOL    HW192349   8.237  14.281   6.289
30170SOL    HW292350   8.238  14.160   6.380
30171SOL     OW92351   8.767   1.627   9.886
30171SOL    HW192352   8.815   1.624   9.969
30171SOL    HW292353   8.810   1.561   9.831
30172SOL     OW92354   8.920   9.802   1.379
30172SOL    HW192355   8.906   9.854   1.458
30172SOL    HW292356   8.922   9.711   1.409
30173SOL     OW92357   5.401   4.366  14.795
30173SOL    HW192358   5.412   4.368  14.700
30173SOL    HW292359   5.488   4.386  14.830
30174SOL     OW92360  10.393  14.273   1.947
30174SOL    HW192361  10.463  14.261   1.883
30174SOL    HW292362  10.437  14.287   2.030
30175SOL     OW92363   6.334  13.760   4.596
30175SOL    HW192364   6.397  13.815   4.548
30175SOL    HW292365   6.263  13.820   4.618
30176SOL     OW92366   3.174   2.333  11.539
30176SOL    HW192367   3.085   2.318  11.506
30176SOL    HW292368   3.198   2.251  11.582
30177SOL     OW92369   8.301   8.546   1.123
30177SOL    HW192370   8.369   8.485   1.151
30177SOL    HW292371   8.348   8.612   1.073
30178SOL     OW92372   2.511   9.617  11.900
30178SOL    HW192373   2.546   9.702  11.924
30178SOL    HW292374   2.424   9.636  11.866
30179SOL     OW92375   5.287   0.718  11.112
30179SOL    HW192376   5.348   0.662  11.064
30179SOL    HW292377   5.252   0.777  11.046
30180SOL     OW92378   4.066   4.348  14.802
30180SOL    HW192379   4.046   4.412  14.734
30180SOL    HW292380   4.074   4.265  14.755
30181SOL     OW92381   7.219   6.753   3.505
30181SOL    HW192382   7.310   6.724   3.492
30181SOL    HW292383   7.215   6.839   3.463
30182SOL     OW92384   6.032   5.949   9.815
30182SOL    HW192385   6.028   5.999   9.896
30182SOL    HW292386   6.010   5.859   9.841
30183SOL     OW92387  14.290   9.161   7.777
30183SOL    HW192388  14.366   9.218   7.761
30183SOL    HW292389  14.278   9.114   7.694
30184SOL     OW92390   4.049  10.934  10.963
30184SOL    HW192391   3.962  10.893  10.962
30184SOL    HW292392   4.109  10.862  10.946
30185SOL     OW92393  13.771   7.080  11.838
30185SOL    HW192394  13.761   7.029  11.919
30185SOL    HW292395  13.843   7.037  11.792
30186SOL     OW92396   1.039   8.369   0.647
30186SOL    HW192397   1.072   8.281   0.628
30186SOL    HW292398   1.014   8.365   0.740
30187SOL     OW92399   6.228   7.171   1.796
30187SOL    HW192400   6.275   7.126   1.726
30187SOL    HW292401   6.236   7.112   1.871
30188SOL     OW92402   9.316   3.056   0.814
30188SOL    HW192403   9.303   3.064   0.908
30188SOL    HW292404   9.228   3.070   0.776
30189SOL     OW92405   1.145   9.656  12.789
30189SOL    HW192406   1.199   9.734  12.777
30189SOL    HW292407   1.206   9.583  12.784
30190SOL     OW92408   2.798   4.426  13.147
30190SOL    HW192409   2.772   4.466  13.064
30190SOL    HW292410   2.887   4.395  13.132
30191SOL     OW92411   5.633  13.464   3.607
30191SOL    HW192412   5.650  13.370   3.621
30191SOL    HW292413   5.557  13.466   3.549
30192SOL     OW92414  12.806   7.611   4.673
30192SOL    HW192415  12.763   7.692   4.701
30192SOL    HW292416  12.757   7.541   4.717
30193SOL     OW92417   8.775   5.210   1.782
30193SOL    HW192418   8.685   5.182   1.800
30193SOL    HW292419   8.774   5.240   1.692
30194SOL     OW92420  13.637  11.943  14.739
30194SOL    HW192421  13.672  11.932  14.827
30194SOL    HW292422  13.543  11.955  14.752
30195SOL     OW92423   9.503  13.282   8.749
30195SOL    HW192424   9.546  13.330   8.679
30195SOL    HW292425   9.502  13.191   8.719
30196SOL     OW92426  14.567   9.320   0.698
30196SOL    HW192427  14.520   9.237   0.705
30196SOL    HW292428  14.630   9.306   0.628
30197SOL     OW92429   1.908   2.187  11.217
30197SOL    HW192430   1.894   2.168  11.310
30197SOL    HW292431   1.906   2.102  11.175
30198SOL     OW92432   6.410   9.527   8.808
30198SOL    HW192433   6.367   9.508   8.892
30198SOL    HW292434   6.499   9.496   8.819
30199SOL     OW92435   2.722   4.032   7.571
30199SOL    HW192436   2.792   4.009   7.510
30199SOL    HW292437   2.644   4.042   7.516
30200SOL     OW92438   4.017  11.236   5.234
30200SOL    HW192439   4.052  11.149   5.252
30200SOL    HW292440   3.984  11.230   5.144
30201SOL     OW92441   7.149   3.457   7.987
30201SOL    HW192442   7.103   3.457   7.904
30201SOL    HW292443   7.112   3.532   8.035
30202SOL     OW92444   5.716   2.532   0.648
30202SOL    HW192445   5.780   2.514   0.717
30202SOL    HW292446   5.642   2.475   0.669
30203SOL     OW92447   4.588   3.669   5.686
30203SOL    HW192448   4.674   3.660   5.645
30203SOL    HW292449   4.576   3.588   5.736
30204SOL     OW92450   1.731   1.429   4.864
30204SOL    HW192451   1.770   1.345   4.889
30204SOL    HW292452   1.724   1.477   4.947
30205SOL     OW92453   8.727  13.689   3.736
30205SOL    HW192454   8.697  13.672   3.647
30205SOL    HW292455   8.677  13.627   3.790
30206SOL     OW92456  10.262   6.618   7.825
30206SOL    HW192457  10.343   6.669   7.820
30206SOL    HW292458  10.275   6.559   7.899
30207SOL     OW92459  11.255  11.783  11.835
30207SOL    HW192460  11.259  11.861  11.891
30207SOL    HW292461  11.171  11.792  11.790
30208SOL     OW92462  12.943   2.911   4.616
30208SOL    HW192463  12.864   2.919   4.563
30208SOL    HW292464  13.012   2.950   4.563
30209SOL     OW92465  12.757  10.194   9.824
30209SOL    HW192466  12.753  10.155   9.912
30209SOL    HW292467  12.817  10.267   9.833
30210SOL     OW92468   0.190   3.287   6.249
30210SOL    HW192469   0.102   3.275   6.214
30210SOL    HW292470   0.176   3.304   6.343
30211SOL     OW92471   1.475  12.571   1.320
30211SOL    HW192472   1.549  12.560   1.380
30211SOL    HW292473   1.403  12.599   1.377
30212SOL     OW92474  13.377   3.221  10.011
30212SOL    HW192475  13.468   3.219  10.041
30212SOL    HW292476  13.364   3.311   9.981
30213SOL     OW92477  11.079   3.269  12.527
30213SOL    HW192478  11.053   3.280  12.618
30213SOL    HW292479  11.130   3.347  12.507
30214SOL     OW92480   3.583  11.786   1.736
30214SOL    HW192481   3.500  11.754   1.700
30214SOL    HW292482   3.613  11.714   1.792
30215SOL     OW92483   9.614   7.642  12.451
30215SOL    HW192484   9.525   7.651  12.485
30215SOL    HW292485   9.649   7.731  12.450
30216SOL     OW92486  14.061  13.706  14.291
30216SOL    HW192487  14.015  13.787  14.313
30216SOL    HW292488  14.140  13.708  14.345
30217SOL     OW92489  13.269   4.335  13.527
30217SOL    HW192490  13.197   4.398  13.526
30217SOL    HW292491  13.233   4.257  13.486
30218SOL     OW92492  11.256  11.010  12.970
30218SOL    HW192493  11.205  11.040  13.045
30218SOL    HW292494  11.345  11.000  13.004
30219SOL     OW92495   6.957   7.007  12.160
30219SOL    HW192496   6.988   7.066  12.091
30219SOL    HW292497   7.036   6.966  12.193
30220SOL     OW92498   7.540   7.097   8.099
30220SOL    HW192499   7.445   7.106   8.096
30220SOL    HW292500   7.573   7.174   8.053
30221SOL     OW92501   0.430   7.321   3.067
30221SOL    HW192502   0.505   7.264   3.049
30221SOL    HW292503   0.377   7.317   2.987
30222SOL     OW92504  11.087  14.039  13.342
30222SOL    HW192505  11.127  14.125  13.328
30222SOL    HW292506  11.126  14.007  13.424
30223SOL     OW92507   6.636   6.767   4.130
30223SOL    HW192508   6.606   6.846   4.175
30223SOL    HW292509   6.567   6.748   4.067
30224SOL     OW92510   1.142  13.121  14.818
30224SOL    HW192511   1.083  13.048  14.833
30224SOL    HW292512   1.127  13.146  14.726
30225SOL     OW92513  11.962  14.236  12.852
30225SOL    HW192514  11.925  14.273  12.772
30225SOL    HW292515  11.945  14.142  12.845
30226SOL     OW92516   6.580  14.863   9.248
30226SOL    HW192517   6.561   0.073   9.228
30226SOL    HW292518   6.615  14.864   9.337
30227SOL     OW92519   6.434   6.696   1.037
30227SOL    HW192520   6.450   6.759   0.967
30227SOL    HW292521   6.364   6.641   1.004
30228SOL     OW92522   0.194   0.139  13.177
30228SOL    HW192523   0.205   0.148  13.272
30228SOL    HW292524   0.101   0.120  13.166
30229SOL     OW92525  13.593  10.144  12.710
30229SOL    HW192526  13.520  10.084  12.695
30229SOL    HW292527  13.669  10.099  12.674
30230SOL     OW92528   7.721  10.663   2.479
30230SOL    HW192529   7.679  10.749   2.477
30230SOL    HW292530   7.649  10.601   2.490
30231SOL     OW92531   1.452   2.124   9.300
30231SOL    HW192532   1.476   2.150   9.212
30231SOL    HW292533   1.356   2.127   9.301
30232SOL     OW92534  12.620   0.310  13.523
30232SOL    HW192535  12.553   0.336  13.460
30232SOL    HW292536  12.590   0.226  13.557
30233SOL     OW92537   9.942   2.800   6.193
30233SOL    HW192538  10.035   2.812   6.209
30233SOL    HW292539   9.918   2.722   6.244
30234SOL     OW92540   6.497   1.458  13.647
30234SOL    HW192541   6.536   1.412  13.721
30234SOL    HW292542   6.476   1.389  13.583
30235SOL     OW92543   0.469   3.431   8.965
30235SOL    HW192544   0.476   3.500   8.899
30235SOL    HW292545   0.397   3.376   8.935
30236SOL     OW92546   2.069   3.926  14.799
30236SOL    HW192547   2.043   4.015  14.778
30236SOL    HW292548   2.001   3.893  14.858
30237SOL     OW92549   2.063  12.359   9.056
30237SOL    HW192550   2.078  12.272   9.018
30237SOL    HW292551   1.968  12.371   9.052
30238SOL     OW92552   0.613  13.113   8.322
30238SOL    HW192553   0.654  13.123   8.408
30238SOL    HW292554   0.647  13.030   8.289
30239SOL     OW92555   5.348   9.027   8.658
30239SOL    HW192556   5.298   8.995   8.733
30239SOL    HW292557   5.284   9.037   8.588
30240SOL     OW92558  10.387   6.472   0.272
30240SOL    HW192559  10.330   6.411   0.226
30240SOL    HW292560  10.328   6.521   0.329
30241SOL     OW92561   0.577  10.686   0.643
30241SOL    HW192562   0.604  10.595   0.650
30241SOL    HW292563   0.495  10.683   0.593
30242SOL     OW92564   1.122   5.340  14.404
30242SOL    HW192565   1.159   5.317  14.490
30242SOL    HW292566   1.086   5.257  14.371
30243SOL     OW92567   4.485  14.748  13.382
30243SOL    HW192568   4.444  14.820  13.430
30243SOL    HW292569   4.551  14.790  13.326
30244SOL     OW92570   8.751   5.600  14.265
30244SOL    HW192571   8.747   5.607  14.360
30244SOL    HW292572   8.666   5.567  14.239
30245SOL     OW92573  12.457  12.610  12.505
30245SOL    HW192574  12.422  12.699  12.502
30245SOL    HW292575  12.511  12.602  12.426
30246SOL     OW92576   5.424   7.545   6.887
30246SOL    HW192577   5.357   7.520   6.949
30246SOL    HW292578   5.482   7.469   6.882
30247SOL     OW92579  12.012   3.511  10.948
30247SOL    HW192580  11.947   3.546  10.887
30247SOL    HW292581  12.051   3.437  10.900
30248SOL     OW92582   1.089  13.953   1.845
30248SOL    HW192583   1.054  13.866   1.826
30248SOL    HW292584   1.090  13.957   1.941
30249SOL     OW92585   3.283   2.175   8.321
30249SOL    HW192586   3.374   2.168   8.294
30249SOL    HW292587   3.233   2.174   8.239
30250SOL     OW92588   2.977   0.887  14.647
30250SOL    HW192589   3.046   0.848  14.593
30250SOL    HW292590   3.018   0.898  14.733
30251SOL     OW92591   5.622   8.842   2.181
30251SOL    HW192592   5.698   8.789   2.208
30251SOL    HW292593   5.564   8.841   2.257
30252SOL     OW92594   9.828   8.763   6.765
30252SOL    HW192595   9.777   8.707   6.824
30252SOL    HW292596   9.801   8.737   6.678
30253SOL     OW92597  12.278  14.443   0.395
30253SOL    HW192598  12.227  14.410   0.321
30253SOL    HW292599  12.212  14.477   0.456
30254SOL     OW92600   4.619   5.827   7.333
30254SOL    HW192601   4.684   5.769   7.373
30254SOL    HW292602   4.539   5.775   7.331
30255SOL     OW92603  10.030  10.946   6.959
30255SOL    HW192604  10.007  10.960   7.051
30255SOL    HW292605   9.958  10.986   6.910
30256SOL     OW92606  12.844   5.787   5.063
30256SOL    HW192607  12.926   5.817   5.025
30256SOL    HW292608  12.815   5.717   5.004
30257SOL     OW92609   4.868   5.024   3.658
30257SOL    HW192610   4.795   4.992   3.605
30257SOL    HW292611   4.898   5.103   3.614
30258SOL     OW92612  14.426   4.718  11.211
30258SOL    HW192613  14.427   4.737  11.305
30258SOL    HW292614  14.383   4.794  11.172
30259SOL     OW92615   7.349   7.491  10.932
30259SOL    HW192616   7.287   7.533  10.872
30259SOL    HW292617   7.433   7.532  10.911
30260SOL     OW92618   7.786   6.728   6.393
30260SOL    HW192619   7.881   6.732   6.405
30260SOL    HW292620   7.759   6.649   6.439
30261SOL     OW92621  14.482  13.562   3.482
30261SOL    HW192622  14.571  13.529   3.496
30261SOL    HW292623  14.461  13.536   3.392
30262SOL     OW92624   1.411  12.525   9.530
30262SOL    HW192625   1.429  12.608   9.485
30262SOL    HW292626   1.451  12.458   9.474
30263SOL     OW92627  13.427   0.035  11.110
30263SOL    HW192628  13.427  14.833  11.156
30263SOL    HW292629  13.508   0.077  11.137
30264SOL     OW92630   8.037  13.423   5.367
30264SOL    HW192631   8.122  13.418   5.410
30264SOL    HW292632   7.975  13.390   5.432
30265SOL     OW92633  10.986   9.014  12.486
30265SOL    HW192634  10.984   9.055  12.400
30265SOL    HW292635  10.897   8.980  12.499
30266SOL     OW92636  11.919  10.410  10.563
30266SOL    HW192637  11.982  10.338  10.564
30266SOL    HW292638  11.940  10.461  10.641
30267SOL     OW92639   3.063   1.471   3.836
30267SOL    HW192640   2.993   1.441   3.894
30267SOL    HW292641   3.025   1.466   3.748
30268SOL     OW92642  10.589  11.973  13.450
30268SOL    HW192643  10.597  12.055  13.401
30268SOL    HW292644  10.656  11.916  13.413
30269SOL     OW92645   8.105   6.601   6.988
30269SOL    HW192646   8.159   6.658   7.042
30269SOL    HW292647   8.015   6.630   7.006
30270SOL     OW92648   7.333   5.621   7.276
30270SOL    HW192649   7.333   5.651   7.367
30270SOL    HW292650   7.305   5.529   7.281
30271SOL     OW92651   7.155   1.052  12.189
30271SOL    HW192652   7.116   1.100  12.263
30271SOL    HW292653   7.099   0.976  12.178
30272SOL     OW92654   0.635   4.166   0.444
30272SOL    HW192655   0.647   4.248   0.396
30272SOL    HW292656   0.549   4.135   0.417
30273SOL     OW92657  11.626   2.755  13.325
30273SOL    HW192658  11.677   2.786  13.250
30273SOL    HW292659  11.679   2.685  13.363
30274SOL     OW92660  12.240  13.681   8.026
30274SOL    HW192661  12.240  13.589   8.050
30274SOL    HW292662  12.190  13.724   8.095
30275SOL     OW92663   4.803   6.736   0.705
30275SOL    HW192664   4.829   6.659   0.756
30275SOL    HW292665   4.726   6.770   0.751
30276SOL     OW92666   1.448   9.450  14.813
30276SOL    HW192667   1.402   9.479   0.010
30276SOL    HW292668   1.508   9.382  14.844
30277SOL     OW92669  12.671   6.295   1.063
30277SOL    HW192670  12.618   6.252   0.995
30277SOL    HW292671  12.707   6.222   1.114
30278SOL     OW92672   9.735  11.484   5.472
30278SOL    HW192673   9.743  11.564   5.523
30278SOL    HW292674   9.822  11.446   5.473
30279SOL     OW92675   8.165   7.746   1.967
30279SOL    HW192676   8.085   7.741   2.019
30279SOL    HW292677   8.224   7.682   2.008
30280SOL     OW92678   1.592  11.829   9.004
30280SOL    HW192679   1.672  11.776   9.004
30280SOL    HW292680   1.602  11.887   8.928
30281SOL     OW92681  12.327   7.510  10.489
30281SOL    HW192682  12.314   7.417  10.475
30281SOL    HW292683  12.404   7.515  10.545
30282SOL     OW92684  10.595  14.736   8.777
30282SOL    HW192685  10.588  14.648   8.813
30282SOL    HW292686  10.571  14.726   8.684
30283SOL     OW92687   5.705  12.510  10.912
30283SOL    HW192688   5.689  12.471  10.827
30283SOL    HW292689   5.798  12.533  10.911
30284SOL     OW92690   4.456   2.962   0.136
30284SOL    HW192691   4.400   2.960   0.059
30284SOL    HW292692   4.538   3.001   0.106
30285SOL     OW92693   9.290   7.891   3.588
30285SOL    HW192694   9.331   7.807   3.569
30285SOL    HW292695   9.314   7.909   3.679
30286SOL     OW92696   3.361   9.011   5.064
30286SOL    HW192697   3.292   9.043   5.123
30286SOL    HW292698   3.377   9.084   5.004
30287SOL     OW92699   5.414   2.319   4.202
30287SOL    HW192700   5.461   2.347   4.124
30287SOL    HW292701   5.353   2.391   4.221
30288SOL     OW92702   2.708   4.987   1.306
30288SOL    HW192703   2.763   5.040   1.248
30288SOL    HW292704   2.696   4.905   1.259
30289SOL     OW92705   1.173   7.953   2.106
30289SOL    HW192706   1.195   8.044   2.088
30289SOL    HW292707   1.084   7.956   2.141
30290SOL     OW92708   7.882  10.053  13.589
30290SOL    HW192709   7.864  10.003  13.509
30290SOL    HW292710   7.928   9.991  13.646
30291SOL     OW92711  10.989   1.511  14.295
30291SOL    HW192712  10.960   1.582  14.353
30291SOL    HW292713  10.951   1.532  14.210
30292SOL     OW92714   3.518   2.946  12.170
30292SOL    HW192715   3.598   2.959  12.119
30292SOL    HW292716   3.545   2.964  12.260
30293SOL     OW92717   9.467   9.109   0.918
30293SOL    HW192718   9.381   9.095   0.879
30293SOL    HW292719   9.519   9.149   0.848
30294SOL     OW92720  13.053  11.644   6.177
30294SOL    HW192721  13.014  11.731   6.185
30294SOL    HW292722  12.984  11.584   6.203
30295SOL     OW92723  12.147   9.057   7.252
30295SOL    HW192724  12.234   9.033   7.221
30295SOL    HW292725  12.142   9.152   7.240
30296SOL     OW92726   0.185   3.640   1.872
30296SOL    HW192727   0.266   3.606   1.833
30296SOL    HW292728   0.211   3.723   1.912
30297SOL     OW92729   5.556  11.142  11.376
30297SOL    HW192730   5.595  11.112  11.294
30297SOL    HW292731   5.520  11.063  11.416
30298SOL     OW92732  10.262   4.073  10.359
30298SOL    HW192733  10.328   4.049  10.424
30298SOL    HW292734  10.310   4.076  10.276
30299SOL     OW92735   6.905  11.547  13.454
30299SOL    HW192736   6.866  11.515  13.373
30299SOL    HW292737   6.833  11.549  13.517
30300SOL     OW92738   6.914   0.289   9.842
30300SOL    HW192739   6.838   0.233   9.859
30300SOL    HW292740   6.960   0.245   9.771
30301SOL     OW92741   9.481   6.507   2.613
30301SOL    HW192742   9.420   6.435   2.628
30301SOL    HW292743   9.539   6.476   2.544
30302SOL     OW92744   1.049   0.881   9.507
30302SOL    HW192745   1.059   0.840   9.593
30302SOL    HW292746   1.013   0.968   9.526
30303SOL     OW92747   9.997   7.522   1.525
30303SOL    HW192748   9.966   7.512   1.615
30303SOL    HW292749   9.917   7.521   1.472
30304SOL     OW92750   4.799   6.377   6.420
30304SOL    HW192751   4.740   6.302   6.417
30304SOL    HW292752   4.835   6.384   6.332
30305SOL     OW92753  11.234   8.271   9.357
30305SOL    HW192754  11.250   8.363   9.379
30305SOL    HW292755  11.320   8.237   9.333
30306SOL     OW92756   2.969  14.233   0.423
30306SOL    HW192757   2.971  14.289   0.501
30306SOL    HW292758   2.946  14.292   0.352
30307SOL     OW92759   0.051   8.580  13.002
30307SOL    HW192760  14.845   8.547  12.982
30307SOL    HW292761   0.090   8.512  13.057
30308SOL     OW92762   3.298  11.682   5.144
30308SOL    HW192763   3.317  11.765   5.188
30308SOL    HW292764   3.358  11.619   5.184
30309SOL     OW92765   8.039   4.508   2.430
30309SOL    HW192766   8.080   4.488   2.514
30309SOL    HW292767   7.958   4.457   2.430
30310SOL     OW92768  11.243   8.502   9.522
30310SOL    HW192769  11.184   8.509   9.598
30310SOL    HW292770  11.322   8.460   9.557
30311SOL     OW92771   5.228   7.526  11.750
30311SOL    HW192772   5.282   7.579  11.808
30311SOL    HW292773   5.143   7.521  11.794
30312SOL     OW92774  11.484   3.112   3.202
30312SOL    HW192775  11.529   3.162   3.270
30312SOL    HW292776  11.457   3.031   3.245
30313SOL     OW92777  12.483   1.386   2.139
30313SOL    HW192778  12.490   1.475   2.105
30313SOL    HW292779  12.429   1.339   2.075
30314SOL     OW92780   9.672  13.322  13.850
30314SOL    HW192781   9.578  13.309  13.862
30314SOL    HW292782   9.691  13.402  13.898
30315SOL     OW92783  13.640  10.380   2.784
30315SOL    HW192784  13.731  10.407   2.795
30315SOL    HW292785  13.589  10.458   2.806
30316SOL     OW92786   0.944   9.319   1.873
30316SOL    HW192787   0.912   9.362   1.794
30316SOL    HW292788   0.880   9.342   1.941
30317SOL     OW92789   1.190  13.481  13.502
30317SOL    HW192790   1.246  13.438  13.437
30317SOL    HW292791   1.215  13.573  13.498
30318SOL     OW92792  13.274   1.429   4.778
30318SOL    HW192793  13.337   1.500   4.773
30318SOL    HW292794  13.208   1.459   4.842
30319SOL     OW92795   3.216  13.396   4.989
30319SOL    HW192796   3.262  13.426   5.068
30319SOL    HW292797   3.188  13.307   5.011
30320SOL     OW92798   7.780  13.277   4.318
30320SOL    HW192799   7.688  13.257   4.302
30320SOL    HW292800   7.789  13.278   4.413
30321SOL     OW92801  11.188  12.287   5.334
30321SOL    HW192802  11.249  12.215   5.354
30321SOL    HW292803  11.184  12.337   5.416
30322SOL     OW92804  13.422  13.551   8.559
30322SOL    HW192805  13.482  13.477   8.552
30322SOL    HW292806  13.334  13.513   8.554
30323SOL     OW92807   9.608  12.597   4.908
30323SOL    HW192808   9.525  12.550   4.905
30323SOL    HW292809   9.591  12.673   4.963
30324SOL     OW92810  14.678  10.415  11.358
30324SOL    HW192811  14.692  10.389  11.449
30324SOL    HW292812  14.638  10.338  11.317
30325SOL     OW92813   9.537  14.394  12.942
30325SOL    HW192814   9.516  14.427  13.030
30325SOL    HW292815   9.566  14.472  12.894
30326SOL     OW92816   7.828   4.534   8.133
30326SOL    HW192817   7.832   4.604   8.068
30326SOL    HW292818   7.877   4.462   8.093
30327SOL     OW92819   3.981  12.768   6.909
30327SOL    HW192820   3.942  12.778   6.996
30327SOL    HW292821   3.971  12.854   6.868
30328SOL     OW92822   6.335   1.187   6.808
30328SOL    HW192823   6.396   1.253   6.776
30328SOL    HW292824   6.251   1.232   6.813
30329SOL     OW92825   2.716   6.965  10.045
30329SOL    HW192826   2.790   6.950   9.986
30329SOL    HW292827   2.666   7.035  10.004
30330SOL     OW92828   7.257   4.113   1.575
30330SOL    HW192829   7.201   4.187   1.553
30330SOL    HW292830   7.345   4.143   1.555
30331SOL     OW92831   9.202  13.009   6.547
30331SOL    HW192832   9.251  13.060   6.483
30331SOL    HW292833   9.260  12.935   6.568
30332SOL     OW92834  13.226   3.183   0.849
30332SOL    HW192835  13.171   3.220   0.780
30332SOL    HW292836  13.188   3.218   0.930
30333SOL     OW92837   3.341   5.195   8.973
30333SOL    HW192838   3.370   5.280   8.939
30333SOL    HW292839   3.288   5.217   9.050
30334SOL     OW92840   6.719  13.752   8.966
30334SOL    HW192841   6.633  13.711   8.982
30334SOL    HW292842   6.750  13.710   8.887
30335SOL     OW92843   0.594  14.639  11.926
30335SOL    HW192844   0.676  14.661  11.971
30335SOL    HW292845   0.599  14.544  11.912
30336SOL     OW92846   8.976  10.423   2.935
30336SOL    HW192847   8.955  10.338   2.896
30336SOL    HW292848   9.006  10.402   3.024
30337SOL     OW92849   8.733   8.594   3.067
30337SOL    HW192850   8.773   8.607   3.153
30337SOL    HW292851   8.796   8.630   3.005
30338SOL     OW92852   3.259   6.460   3.136
30338SOL    HW192853   3.262   6.387   3.075
30338SOL    HW292854   3.198   6.433   3.204
30339SOL     OW92855   6.277  11.919  11.146
30339SOL    HW192856   6.294  11.963  11.229
30339SOL    HW292857   6.181  11.915  11.140
30340SOL     OW92858   9.299   7.781  13.975
30340SOL    HW192859   9.235   7.716  14.002
30340SOL    HW292860   9.357   7.790  14.050
30341SOL     OW92861   3.592   3.899   8.079
30341SOL    HW192862   3.683   3.925   8.094
30341SOL    HW292863   3.598   3.820   8.026
30342SOL     OW92864   4.218  13.318   4.476
30342SOL    HW192865   4.260  13.396   4.440
30342SOL    HW292866   4.125  13.341   4.481
30343SOL     OW92867  10.334   9.656   5.711
30343SOL    HW192868  10.389   9.735   5.715
30343SOL    HW292869  10.348   9.623   5.622
30344SOL     OW92870  12.703   5.500   8.827
30344SOL    HW192871  12.792   5.465   8.834
30344SOL    HW292872  12.687   5.542   8.912
30345SOL     OW92873  10.864  13.254  13.488
30345SOL    HW192874  10.779  13.259  13.445
30345SOL    HW292875  10.923  13.304  13.431
30346SOL     OW92876   0.565   5.491  13.870
30346SOL    HW192877   0.570   5.587  13.871
30346SOL    HW292878   0.479   5.472  13.830
30347SOL     OW92879   3.676   5.771   3.929
30347SOL    HW192880   3.755   5.818   3.901
30347SOL    HW292881   3.630   5.750   3.848
30348SOL     OW92882   2.280  11.420   5.759
30348SOL    HW192883   2.265  11.332   5.793
30348SOL    HW292884   2.204  11.470   5.787
30349SOL     OW92885   2.082  12.212   0.892
30349SOL    HW192886   2.050  12.220   0.981
30349SOL    HW292887   2.004  12.194   0.839
30350SOL     OW92888   0.566  10.170   7.795
30350SOL    HW192889   0.579  10.113   7.719
30350SOL    HW292890   0.630  10.139   7.859
30351SOL     OW92891   5.304  13.793  10.688
30351SOL    HW192892   5.299  13.720  10.750
30351SOL    HW292893   5.225  13.844  10.705
30352SOL     OW92894  13.702   9.441  14.235
30352SOL    HW192895  13.769   9.508  14.250
30352SOL    HW292896  13.751   9.365  14.205
30353SOL     OW92897   6.218  14.828   5.455
30353SOL    HW192898   6.262  14.865   5.531
30353SOL    HW292899   6.234   0.009   5.385
30354SOL     OW92900  11.464  12.779  13.288
30354SOL    HW192901  11.387  12.747  13.335
30354SOL    HW292902  11.534  12.718  13.311
30355SOL     OW92903   4.604  12.973   5.685
30355SOL    HW192904   4.552  13.041   5.727
30355SOL    HW292905   4.540  12.922   5.635
30356SOL     OW92906   1.436   8.934  14.513
30356SOL    HW192907   1.467   8.948  14.424
30356SOL    HW292908   1.342   8.951  14.509
30357SOL     OW92909  13.591  12.340   7.614
30357SOL    HW192910  13.590  12.267   7.676
30357SOL    HW292911  13.501  12.346   7.583
30358SOL     OW92912   9.221  12.186   7.455
30358SOL    HW192913   9.218  12.277   7.426
30358SOL    HW292914   9.132  12.168   7.485
30359SOL     OW92915  12.888   5.918   9.326
30359SOL    HW192916  12.881   5.990   9.389
30359SOL    HW292917  12.910   5.841   9.378
30360SOL     OW92918   8.657   7.209   0.938
30360SOL    HW192919   8.613   7.294   0.926
30360SOL    HW292920   8.749   7.226   0.918
30361SOL     OW92921   8.465  12.215   4.797
30361SOL    HW192922   8.382  12.167   4.795
30361SOL    HW292923   8.513  12.177   4.871
30362SOL     OW92924  14.533  10.534   4.756
30362SOL    HW192925  14.463  10.586   4.794
30362SOL    HW292926  14.530  10.554   4.663
30363SOL     OW92927   4.141   1.607   2.904
30363SOL    HW192928   4.084   1.676   2.872
30363SOL    HW292929   4.140   1.616   2.999
30364SOL     OW92930   7.431   2.491   6.680
30364SOL    HW192931   7.398   2.448   6.759
30364SOL    HW292932   7.514   2.446   6.662
30365SOL     OW92933   2.378   5.392   5.906
30365SOL    HW192934   2.364   5.439   5.824
30365SOL    HW292935   2.391   5.461   5.971
30366SOL     OW92936  14.072  12.203  10.913
30366SOL    HW192937  13.997  12.262  10.918
30366SOL    HW292938  14.069  12.154  10.995
30367SOL     OW92939   6.727  14.835  13.910
30367SOL    HW192940   6.659  14.768  13.920
30367SOL    HW292941   6.782  14.825  13.988
30368SOL     OW92942   7.209   6.726   1.521
30368SOL    HW192943   7.282   6.667   1.504
30368SOL    HW292944   7.248   6.801   1.566
30369SOL     OW92945  11.101   9.465   5.774
30369SOL    HW192946  11.147   9.545   5.802
30369SOL    HW292947  11.066   9.487   5.688
30370SOL     OW92948   2.624  14.809   6.966
30370SOL    HW192949   2.699  14.815   6.907
30370SOL    HW292950   2.663  14.818   7.054
30371SOL     OW92951  14.108  13.260   2.070
30371SOL    HW192952  14.120  13.338   2.017
30371SOL    HW292953  14.013  13.254   2.083
30372SOL     OW92954  14.813  10.218  13.847
30372SOL    HW192955   0.001  10.283  13.839
30372SOL    HW292956  14.734  10.269  13.865
30373SOL     OW92957   1.494   9.752   7.192
30373SOL    HW192958   1.540   9.670   7.213
30373SOL    HW292959   1.401   9.731   7.202
30374SOL     OW92960  11.557  13.758   1.035
30374SOL    HW192961  11.537  13.827   1.098
30374SOL    HW292962  11.650  13.768   1.016
30375SOL     OW92963   5.081   9.854   3.805
30375SOL    HW192964   5.091   9.896   3.720
30375SOL    HW292965   4.989   9.869   3.829
30376SOL     OW92966   0.324   3.549   7.916
30376SOL    HW192967   0.399   3.603   7.942
30376SOL    HW292968   0.257   3.612   7.891
30377SOL     OW92969  11.292   1.119  10.922
30377SOL    HW192970  11.354   1.124  10.849
30377SOL    HW292971  11.233   1.193  10.909
30378SOL     OW92972   9.139   3.120   1.453
30378SOL    HW192973   9.051   3.095   1.478
30378SOL    HW292974   9.168   3.179   1.523
30379SOL     OW92975   7.103  11.579  11.884
30379SOL    HW192976   7.151  11.659  11.860
30379SOL    HW292977   7.054  11.555  11.805
30380SOL     OW92978  11.946  11.763   0.144
30380SOL    HW192979  11.991  11.704   0.084
30380SOL    HW292980  12.009  11.834   0.159
30381SOL     OW92981   5.854   8.264   0.940
30381SOL    HW192982   5.831   8.201   1.008
30381SOL    HW292983   5.842   8.216   0.858
30382SOL     OW92984   1.396  13.215   7.797
30382SOL    HW192985   1.449  13.291   7.769
30382SOL    HW292986   1.362  13.179   7.716
30383SOL     OW92987   4.433   3.599  12.555
30383SOL    HW192988   4.513   3.546  12.559
30383SOL    HW292989   4.363   3.537  12.577
30384SOL     OW92990   8.073   5.996   6.056
30384SOL    HW192991   7.982   5.993   6.086
30384SOL    HW292992   8.082   5.919   5.999
30385SOL     OW92993  14.811   0.272   9.607
30385SOL    HW192994  14.739   0.281   9.670
30385SOL    HW292995  14.767   0.263   9.523
30386SOL     OW92996  13.747   9.964   0.256
30386SOL    HW192997  13.785  10.047   0.227
30386SOL    HW292998  13.660   9.987   0.287
30387SOL     OW92999  11.465   2.335  13.606
30387SOL    HW193000  11.507   2.376  13.530
30387SOL    HW293001  11.420   2.407  13.650
30388SOL     OW93002  10.781   3.568  10.111
30388SOL    HW193003  10.859   3.549  10.060
30388SOL    HW293004  10.813   3.587  10.199
30389SOL     OW93005  14.391   3.693   8.885
30389SOL    HW193006  14.458   3.628   8.863
30389SOL    HW293007  14.332   3.692   8.810
30390SOL     OW93008   0.392   6.851   3.033
30390SOL    HW193009   0.436   6.779   2.987
30390SOL    HW293010   0.436   6.855   3.118
30391SOL     OW93011   7.601   6.355   1.360
30391SOL    HW193012   7.538   6.416   1.398
30391SOL    HW293013   7.685   6.380   1.399
30392SOL     OW93014   0.993   2.115  12.036
30392SOL    HW193015   1.066   2.127  12.097
30392SOL    HW293016   0.929   2.065  12.086
30393SOL     OW93017   3.233  10.959   3.069
30393SOL    HW193018   3.279  10.877   3.084
30393SOL    HW293019   3.238  10.972   2.974
30394SOL     OW93020   0.865   8.761   6.161
30394SOL    HW193021   0.876   8.846   6.119
30394SOL    HW293022   0.832   8.704   6.092
30395SOL     OW93023  11.672   8.776   8.512
30395SOL    HW193024  11.582   8.756   8.540
30395SOL    HW293025  11.698   8.851   8.565
30396SOL     OW93026  14.128   9.472   3.010
30396SOL    HW193027  14.076   9.438   3.084
30396SOL    HW293028  14.213   9.494   3.049
30397SOL     OW93029   7.840  14.329   0.210
30397SOL    HW193030   7.859  14.297   0.299
30397SOL    HW293031   7.926  14.330   0.167
30398SOL     OW93032   8.334  11.234   5.793
30398SOL    HW193033   8.392  11.159   5.801
30398SOL    HW293034   8.297  11.227   5.705
30399SOL     OW93035   5.831   3.717   5.937
30399SOL    HW193036   5.873   3.692   5.855
30399SOL    HW293037   5.740   3.735   5.914
30400SOL     OW93038   5.327   7.016   7.194
30400SOL    HW193039   5.353   7.009   7.286
30400SOL    HW293040   5.364   6.939   7.152
30401SOL     OW93041  10.912  14.733   3.248
30401SOL    HW193042  10.940  14.657   3.299
30401SOL    HW293043  10.956  14.723   3.164
30402SOL     OW93044   8.950   6.658   1.042
30402SOL    HW193045   8.882   6.671   1.108
30402SOL    HW293046   8.903   6.638   0.962
30403SOL     OW93047   0.825   5.208  13.733
30403SOL    HW193048   0.734   5.179  13.728
30403SOL    HW293049   0.821   5.290  13.782
30404SOL     OW93050   6.851   6.610   0.230
30404SOL    HW193051   6.916   6.676   0.202
30404SOL    HW293052   6.871   6.596   0.323
30405SOL     OW93053  14.746   0.158   4.052
30405SOL    HW193054  14.742   0.063   4.044
30405SOL    HW293055  14.689   0.190   3.982
30406SOL     OW93056  14.368  14.232   7.812
30406SOL    HW193057  14.339  14.219   7.902
30406SOL    HW293058  14.399  14.145   7.784
30407SOL     OW93059   9.380   4.227   7.318
30407SOL    HW193060   9.288   4.254   7.321
30407SOL    HW293061   9.429   4.304   7.346
30408SOL     OW93062  10.908   0.186  14.573
30408SOL    HW193063  10.897   0.259  14.513
30408SOL    HW293064  10.861   0.212  14.652
30409SOL     OW93065   6.146  13.084   4.344
30409SOL    HW193066   6.224  13.139   4.348
30409SOL    HW293067   6.073  13.145   4.351
30410SOL     OW93068  11.367  13.428   8.679
30410SOL    HW193069  11.381  13.518   8.706
30410SOL    HW293070  11.276  13.426   8.647
30411SOL     OW93071   1.022   2.360  13.956
30411SOL    HW193072   0.989   2.329  13.872
30411SOL    HW293073   1.112   2.328  13.960
30412SOL     OW93074  13.700   6.829  11.073
30412SOL    HW193075  13.727   6.771  11.144
30412SOL    HW293076  13.696   6.916  11.113
30413SOL     OW93077   7.120  10.863  11.965
30413SOL    HW193078   7.103  10.957  11.978
30413SOL    HW293079   7.215  10.856  11.961
30414SOL     OW93080  10.722   0.919   9.014
30414SOL    HW193081  10.811   0.939   9.046
30414SOL    HW293082  10.714   0.824   9.023
30415SOL     OW93083   4.590   0.426  14.127
30415SOL    HW193084   4.651   0.424  14.054
30415SOL    HW293085   4.504   0.413  14.087
30416SOL     OW93086  14.024   1.442   8.568
30416SOL    HW193087  14.090   1.385   8.529
30416SOL    HW293088  13.958   1.452   8.499
30417SOL     OW93089   8.704  12.819   9.511
30417SOL    HW193090   8.728  12.864   9.430
30417SOL    HW293091   8.759  12.740   9.511
30418SOL     OW93092   8.079  13.389   2.984
30418SOL    HW193093   8.003  13.432   2.946
30418SOL    HW293094   8.111  13.450   3.050
30419SOL     OW93095  12.883   4.036   1.154
30419SOL    HW193096  12.797   4.037   1.112
30419SOL    HW293097  12.864   4.027   1.247
30420SOL     OW93098  14.277  10.846   2.146
30420SOL    HW193099  14.278  10.942   2.150
30420SOL    HW293100  14.357  10.824   2.098
30421SOL     OW93101   4.841  12.713   7.000
30421SOL    HW193102   4.766  12.734   7.056
30421SOL    HW293103   4.804  12.708   6.911
30422SOL     OW93104   9.598   4.154   6.089
30422SOL    HW193105   9.630   4.216   6.023
30422SOL    HW293106   9.650   4.075   6.075
30423SOL     OW93107   8.187  14.877  11.337
30423SOL    HW193108   8.174  14.828  11.256
30423SOL    HW293109   8.099   0.014  11.368
30424SOL     OW93110   2.510  13.401   4.457
30424SOL    HW193111   2.441  13.376   4.395
30424SOL    HW293112   2.529  13.492   4.436
30425SOL     OW93113   7.992  11.036   5.446
30425SOL    HW193114   8.050  11.085   5.387
30425SOL    HW293115   8.044  11.022   5.525
30426SOL     OW93116   2.481   4.277  14.142
30426SOL    HW193117   2.455   4.194  14.180
30426SOL    HW293118   2.519   4.253  14.057
30427SOL     OW93119   1.867  12.614   5.044
30427SOL    HW193120   1.783  12.656   5.065
30427SOL    HW293121   1.854  12.576   4.957
30428SOL     OW93122   3.547   4.728   9.244
30428SOL    HW193123   3.546   4.641   9.205
30428SOL    HW293124   3.581   4.785   9.176
30429SOL     OW93125   5.509  11.910   9.352
30429SOL    HW193126   5.431  11.950   9.315
30429SOL    HW293127   5.505  11.932   9.445
30430SOL     OW93128   6.621  11.006   6.124
30430SOL    HW193129   6.623  10.957   6.042
30430SOL    HW293130   6.646  10.942   6.190
30431SOL     OW93131   5.759   3.726   5.316
30431SOL    HW193132   5.730   3.748   5.405
30431SOL    HW293133   5.761   3.630   5.316
30432SOL     OW93134  10.510   9.158  12.738
30432SOL    HW193135  10.565   9.214  12.793
30432SOL    HW293136  10.427   9.154  12.784
30433SOL     OW93137   0.168   5.544  13.772
30433SOL    HW193138   0.101   5.485  13.808
30433SOL    HW293139   0.169   5.618  13.833
30434SOL     OW93140   2.816  11.831   5.150
30434SOL    HW193141   2.729  11.867   5.167
30434SOL    HW293142   2.874  11.907   5.153
30435SOL     OW93143   0.130   8.394   5.140
30435SOL    HW193144   0.157   8.357   5.225
30435SOL    HW293145   0.211   8.397   5.089
30436SOL     OW93146   5.740   0.631  10.801
30436SOL    HW193147   5.688   0.707  10.826
30436SOL    HW293148   5.691   0.556  10.836
30437SOL     OW93149  10.738  11.779  13.326
30437SOL    HW193150  10.831  11.779  13.300
30437SOL    HW293151  10.715  11.687  13.332
30438SOL     OW93152   4.937  14.822  12.461
30438SOL    HW193153   4.965  14.758  12.395
30438SOL    HW293154   4.911  14.769  12.536
30439SOL     OW93155  11.927  14.367   2.185
30439SOL    HW193156  11.937  14.430   2.257
30439SOL    HW293157  11.833  14.367   2.167
30440SOL     OW93158   4.547  10.489   2.061
30440SOL    HW193159   4.570  10.577   2.031
30440SOL    HW293160   4.586  10.483   2.148
30441SOL     OW93161   3.826   7.683   3.181
30441SOL    HW193162   3.792   7.597   3.154
30441SOL    HW293163   3.838   7.675   3.276
30442SOL     OW93164   3.453  12.297   3.525
30442SOL    HW193165   3.468  12.252   3.442
30442SOL    HW293166   3.476  12.388   3.508
30443SOL     OW93167   6.681  12.721   9.775
30443SOL    HW193168   6.639  12.805   9.754
30443SOL    HW293169   6.608  12.664   9.799
30444SOL     OW93170  11.845   2.182   0.985
30444SOL    HW193171  11.863   2.158   0.894
30444SOL    HW293172  11.792   2.262   0.979
30445SOL     OW93173  10.258   6.834  12.186
30445SOL    HW193174  10.315   6.883  12.128
30445SOL    HW293175  10.193   6.897  12.217
30446SOL     OW93176   7.083   2.433   5.831
30446SOL    HW193177   7.173   2.465   5.835
30446SOL    HW293178   7.090   2.348   5.789
30447SOL     OW93179   8.683   8.021   7.997
30447SOL    HW193180   8.664   7.964   8.072
30447SOL    HW293181   8.679   8.109   8.032
30448SOL     OW93182   7.827   9.900  13.357
30448SOL    HW193183   7.803   9.915  13.265
30448SOL    HW293184   7.870   9.814  13.357
30449SOL     OW93185   1.193   9.458  12.247
30449SOL    HW193186   1.227   9.544  12.273
30449SOL    HW293187   1.124   9.478  12.184
30450SOL     OW93188  12.741   9.999   5.878
30450SOL    HW193189  12.830   9.965   5.868
30450SOL    HW293190  12.686   9.937   5.831
30451SOL     OW93191   3.341  13.232   2.820
30451SOL    HW193192   3.312  13.141   2.808
30451SOL    HW293193   3.334  13.271   2.733
30452SOL     OW93194   3.758   5.464  10.077
30452SOL    HW193195   3.683   5.521  10.064
30452SOL    HW293196   3.814   5.512  10.138
30453SOL     OW93197   5.899   1.263   3.331
30453SOL    HW193198   5.879   1.183   3.282
30453SOL    HW293199   5.814   1.305   3.344
30454SOL     OW93200   4.580  10.382  10.666
30454SOL    HW193201   4.616  10.303  10.707
30454SOL    HW293202   4.534  10.350  10.589
30455SOL     OW93203   6.102   8.289   1.095
30455SOL    HW193204   6.066   8.318   1.179
30455SOL    HW293205   6.034   8.309   1.032
30456SOL     OW93206   3.079   7.051   5.206
30456SOL    HW193207   3.111   7.072   5.294
30456SOL    HW293208   3.145   6.990   5.171
30457SOL     OW93209  10.103   0.087   8.749
30457SOL    HW193210  10.107   0.148   8.823
30457SOL    HW293211  10.015   0.099   8.714
30458SOL     OW93212   2.544  11.935   8.193
30458SOL    HW193213   2.484  12.003   8.225
30458SOL    HW293214   2.554  11.955   8.100
30459SOL     OW93215  10.353   2.444   0.249
30459SOL    HW193216  10.300   2.510   0.206
30459SOL    HW293217  10.290   2.375   0.272
30460SOL     OW93218  14.282   8.547   1.106
30460SOL    HW193219  14.248   8.499   1.182
30460SOL    HW293220  14.285   8.638   1.135
30461SOL     OW93221   8.137   8.881  10.959
30461SOL    HW193222   8.151   8.976  10.961
30461SOL    HW293223   8.159   8.855  10.870
30462SOL     OW93224   6.262  10.061   2.818
30462SOL    HW193225   6.296  10.109   2.742
30462SOL    HW293226   6.167  10.067   2.810
30463SOL     OW93227  12.152   0.356   5.573
30463SOL    HW193228  12.121   0.399   5.493
30463SOL    HW293229  12.225   0.301   5.545
30464SOL     OW93230   0.941   9.616   7.281
30464SOL    HW193231   0.853   9.607   7.243
30464SOL    HW293232   0.961   9.709   7.272
30465SOL     OW93233   6.809  11.043  12.412
30465SOL    HW193234   6.838  10.960  12.374
30465SOL    HW293235   6.764  11.088  12.341
30466SOL     OW93236  12.908  13.469  12.229
30466SOL    HW193237  12.842  13.405  12.201
30466SOL    HW293238  12.857  13.547  12.251
30467SOL     OW93239   3.442  12.751  10.210
30467SOL    HW193240   3.527  12.778  10.176
30467SOL    HW293241   3.396  12.715  10.134
30468SOL     OW93242   7.690   0.746   1.767
30468SOL    HW193243   7.743   0.822   1.742
30468SOL    HW293244   7.707   0.735   1.861
30469SOL     OW93245  13.458   6.256   1.245
30469SOL    HW193246  13.510   6.336   1.256
30469SOL    HW293247  13.441   6.226   1.334
30470SOL     OW93248  12.127  14.823   4.564
30470SOL    HW193249  12.212  14.790   4.534
30470SOL    HW293250  12.067  14.749   4.553
30471SOL     OW93251  12.770   0.026  14.771
30471SOL    HW193252  12.764  14.813  14.786
30471SOL    HW293253  12.712   0.042  14.696
30472SOL     OW93254   8.943  13.367  13.849
30472SOL    HW193255   8.883  13.300  13.883
30472SOL    HW293256   8.895  13.449  13.859
30473SOL     OW93257   7.833  12.051   2.991
30473SOL    HW193258   7.763  11.998   3.031
30473SOL    HW293259   7.793  12.088   2.912
30474SOL     OW93260  10.919   2.307  12.681
30474SOL    HW193261  11.012   2.324  12.667
30474SOL    HW293262  10.905   2.320  12.774
30475SOL     OW93263  13.664   9.605  10.148
30475SOL    HW193264  13.570   9.593  10.164
30475SOL    HW293265  13.693   9.661  10.220
30476SOL     OW93266   5.500  14.344   9.764
30476SOL    HW193267   5.420  14.352   9.817
30476SOL    HW293268   5.527  14.434   9.748
30477SOL     OW93269  13.644  13.945   0.443
30477SOL    HW193270  13.711  13.876   0.442
30477SOL    HW293271  13.573  13.911   0.389
30478SOL     OW93272   8.527   0.944   0.631
30478SOL    HW193273   8.558   0.884   0.564
30478SOL    HW293274   8.495   1.020   0.583
30479SOL     OW93275   1.412  11.539  11.882
30479SOL    HW193276   1.498  11.582  11.881
30479SOL    HW293277   1.362  11.584  11.813
30480SOL     OW93278   2.397   4.423   0.870
30480SOL    HW193279   2.323   4.421   0.810
30480SOL    HW293280   2.404   4.515   0.896
30481SOL     OW93281   8.029   9.048   6.315
30481SOL    HW193282   8.034   8.967   6.265
30481SOL    HW293283   8.053   9.022   6.404
30482SOL     OW93284   3.856  13.242   6.242
30482SOL    HW193285   3.790  13.260   6.176
30482SOL    HW293286   3.905  13.167   6.207
30483SOL     OW93287   8.952   4.791   9.500
30483SOL    HW193288   9.035   4.824   9.465
30483SOL    HW293289   8.952   4.819   9.591
30484SOL     OW93290   7.717   3.034   3.532
30484SOL    HW193291   7.650   3.102   3.537
30484SOL    HW293292   7.670   2.953   3.555
30485SOL     OW93293   7.623   0.919  10.192
30485SOL    HW193294   7.700   0.863  10.181
30485SOL    HW293295   7.614   0.928  10.287
30486SOL     OW93296  12.089  13.505   9.254
30486SOL    HW193297  12.178  13.492   9.285
30486SOL    HW293298  12.068  13.595   9.279
30487SOL     OW93299   2.192  12.116  10.365
30487SOL    HW193300   2.130  12.164  10.311
30487SOL    HW293301   2.235  12.055  10.305
30488SOL     OW93302   0.023  11.309   5.541
30488SOL    HW193303   0.047  11.401   5.532
30488SOL    HW293304  14.880  11.281   5.453
30489SOL     OW93305   5.966  12.352   1.088
30489SOL    HW193306   5.977  12.339   1.182
30489SOL    HW293307   6.007  12.436   1.070
30490SOL     OW93308   1.212   1.933  12.093
30490SOL    HW193309   1.157   1.949  12.016
30490SOL    HW293310   1.292   1.983  12.076
30491SOL     OW93311   9.209   2.292   4.042
30491SOL    HW193312   9.149   2.218   4.032
30491SOL    HW293313   9.288   2.265   3.994
30492SOL     OW93314   3.565  14.666   8.450
30492SOL    HW193315   3.639  14.687   8.394
30492SOL    HW293316   3.601  14.663   8.538
30493SOL     OW93317  13.787   1.840   7.380
30493SOL    HW193318  13.853   1.838   7.311
30493SOL    HW293319  13.771   1.748   7.400
30494SOL     OW93320   4.835  12.754   9.731
30494SOL    HW193321   4.857  12.835   9.778
30494SOL    HW293322   4.803  12.784   9.646
30495SOL     OW93323   8.590   3.251   9.278
30495SOL    HW193324   8.524   3.258   9.208
30495SOL    HW293325   8.627   3.339   9.285
30496SOL     OW93326   5.858   4.586   7.408
30496SOL    HW193327   5.763   4.598   7.401
30496SOL    HW293328   5.882   4.631   7.489
30497SOL     OW93329  10.402   3.682   7.477
30497SOL    HW193330  10.454   3.618   7.429
30497SOL    HW293331  10.317   3.682   7.432
30498SOL     OW93332  14.120   9.512   9.870
30498SOL    HW193333  14.082   9.454   9.804
30498SOL    HW293334  14.189   9.560   9.822
30499SOL     OW93335   6.647   2.098  11.650
30499SOL    HW193336   6.705   2.026  11.622
30499SOL    HW293337   6.620   2.139  11.568
30500SOL     OW93338  13.437   7.178   5.959
30500SOL    HW193339  13.426   7.193   6.053
30500SOL    HW293340  13.355   7.138   5.932
30501SOL     OW93341  10.259  10.001   5.940
30501SOL    HW193342  10.211   9.967   5.864
30501SOL    HW293343  10.325  10.060   5.902
30502SOL     OW93344   0.997  11.746   3.429
30502SOL    HW193345   0.952  11.674   3.473
30502SOL    HW293346   0.982  11.730   3.336
30503SOL     OW93347   1.696   9.785   2.082
30503SOL    HW193348   1.609   9.819   2.061
30503SOL    HW293349   1.726   9.839   2.155
30504SOL     OW93350  10.116   4.012  14.549
30504SOL    HW193351  10.137   4.104  14.532
30504SOL    HW293352  10.142   3.998  14.640
30505SOL     OW93353  12.552   4.611   5.444
30505SOL    HW193354  12.592   4.637   5.527
30505SOL    HW293355  12.604   4.658   5.378
30506SOL     OW93356   9.807  11.042   1.195
30506SOL    HW193357   9.821  11.044   1.100
30506SOL    HW293358   9.858  10.966   1.225
30507SOL     OW93359  10.059   4.300   4.261
30507SOL    HW193360  10.038   4.208   4.276
30507SOL    HW293361   9.991   4.348   4.309
30508SOL     OW93362   8.297   1.359   5.758
30508SOL    HW193363   8.283   1.270   5.792
30508SOL    HW293364   8.368   1.350   5.694
30509SOL     OW93365   1.990   2.088   6.271
30509SOL    HW193366   1.952   2.176   6.271
30509SOL    HW293367   2.047   2.087   6.194
30510SOL     OW93368   6.870   8.348   6.028
30510SOL    HW193369   6.797   8.292   6.000
30510SOL    HW293370   6.908   8.380   5.946
30511SOL     OW93371  10.521  10.526   8.355
30511SOL    HW193372  10.484  10.439   8.372
30511SOL    HW293373  10.545  10.524   8.263
30512SOL     OW93374   4.609   6.936   9.744
30512SOL    HW193375   4.595   6.913   9.836
30512SOL    HW293376   4.521   6.942   9.707
30513SOL     OW93377   9.436  13.096  12.452
30513SOL    HW193378   9.396  13.138  12.377
30513SOL    HW293379   9.437  13.003  12.430
30514SOL     OW93380   9.448  11.745   9.159
30514SOL    HW193381   9.463  11.825   9.108
30514SOL    HW293382   9.510  11.682   9.122
30515SOL     OW93383   8.228   6.686  12.970
30515SOL    HW193384   8.199   6.775  12.991
30515SOL    HW293385   8.251   6.690  12.877
30516SOL     OW93386   0.020   7.315  13.928
30516SOL    HW193387   0.023   7.355  14.015
30516SOL    HW293388  14.869   7.226  13.944
30517SOL     OW93389   9.214   8.103   0.922
30517SOL    HW193390   9.300   8.103   0.965
30517SOL    HW293391   9.220   8.036   0.855
30518SOL     OW93392  14.290  10.383   2.406
30518SOL    HW193393  14.318  10.343   2.324
30518SOL    HW293394  14.277  10.475   2.385
30519SOL     OW93395  14.088  12.134   5.194
30519SOL    HW193396  14.070  12.221   5.229
30519SOL    HW293397  14.177  12.139   5.161
30520SOL     OW93398   3.110  14.111  11.322
30520SOL    HW193399   3.154  14.064  11.393
30520SOL    HW293400   3.018  14.113  11.349
30521SOL     OW93401   7.540   4.738  13.447
30521SOL    HW193402   7.607   4.689  13.400
30521SOL    HW293403   7.458   4.715  13.403
30522SOL     OW93404  14.121  11.503   6.312
30522SOL    HW193405  14.133  11.419   6.356
30522SOL    HW293406  14.039  11.537   6.349
30523SOL     OW93407  14.068   3.279  12.351
30523SOL    HW193408  14.002   3.329  12.399
30523SOL    HW293409  14.148   3.332  12.357
30524SOL     OW93410  10.650   4.162   3.024
30524SOL    HW193411  10.691   4.226   2.965
30524SOL    HW293412  10.703   4.164   3.103
30525SOL     OW93413  14.685   9.466   7.535
30525SOL    HW193414  14.780   9.456   7.539
30525SOL    HW293415  14.651   9.377   7.530
30526SOL     OW93416  10.906   8.957   0.314
30526SOL    HW193417  10.982   8.949   0.371
30526SOL    HW293418  10.855   8.877   0.331
30527SOL     OW93419  13.650   9.019   5.113
30527SOL    HW193420  13.680   8.964   5.041
30527SOL    HW293421  13.708   8.998   5.186
30528SOL     OW93422  10.876  14.317   4.589
30528SOL    HW193423  10.865  14.412   4.587
30528SOL    HW293424  10.793  14.282   4.558
30529SOL     OW93425   4.493   5.006  10.904
30529SOL    HW193426   4.481   4.935  10.841
30529SOL    HW293427   4.433   4.985  10.975
30530SOL     OW93428  13.945   5.130   5.172
30530SOL    HW193429  13.946   5.118   5.267
30530SOL    HW293430  13.993   5.211   5.158
30531SOL     OW93431   2.333  13.641  13.428
30531SOL    HW193432   2.343  13.602  13.341
30531SOL    HW293433   2.353  13.570  13.489
30532SOL     OW93434   0.155   1.522   9.079
30532SOL    HW193435   0.133   1.602   9.127
30532SOL    HW293436   0.231   1.486   9.125
30533SOL     OW93437   4.165   6.114   4.936
30533SOL    HW193438   4.198   6.199   4.905
30533SOL    HW293439   4.162   6.123   5.031
30534SOL     OW93440   0.001  12.965   3.630
30534SOL    HW193441   0.039  12.879   3.647
30534SOL    HW293442  14.821  12.950   3.558
30535SOL     OW93443   5.792   6.520   2.994
30535SOL    HW193444   5.775   6.567   2.912
30535SOL    HW293445   5.869   6.563   3.031
30536SOL     OW93446   7.129   0.434   1.720
30536SOL    HW193447   7.076   0.434   1.799
30536SOL    HW293448   7.185   0.511   1.730
30537SOL     OW93449   5.574   3.984   4.620
30537SOL    HW193450   5.640   4.042   4.581
30537SOL    HW293451   5.588   3.992   4.714
30538SOL     OW93452   0.209  14.389   2.600
30538SOL    HW193453   0.119  14.380   2.568
30538SOL    HW293454   0.202  14.445   2.678
30539SOL     OW93455   9.747  10.959   0.937
30539SOL    HW193456   9.662  10.925   0.965
30539SOL    HW293457   9.785  10.888   0.885
30540SOL     OW93458  14.037   4.123  11.209
30540SOL    HW193459  14.023   4.063  11.136
30540SOL    HW293460  14.104   4.079  11.262
30541SOL     OW93461  10.548  14.132   2.609
30541SOL    HW193462  10.514  14.069   2.545
30541SOL    HW293463  10.477  14.142   2.673
30542SOL     OW93464   9.179   6.480  14.752
30542SOL    HW193465   9.087   6.470  14.725
30542SOL    HW293466   9.203   6.569  14.724
30543SOL     OW93467   4.725  11.797   5.610
30543SOL    HW193468   4.742  11.799   5.516
30543SOL    HW293469   4.752  11.884   5.640
30544SOL     OW93470   6.614  14.160  11.729
30544SOL    HW193471   6.705  14.129  11.735
30544SOL    HW293472   6.584  14.128  11.644
30545SOL     OW93473   2.000  10.959  13.566
30545SOL    HW193474   2.088  10.992  13.548
30545SOL    HW293475   2.010  10.864  13.569
30546SOL     OW93476   9.665  13.538  12.350
30546SOL    HW193477   9.658  13.448  12.382
30546SOL    HW293478   9.746  13.571  12.388
30547SOL     OW93479  11.429  11.044   5.761
30547SOL    HW193480  11.506  10.988   5.755
30547SOL    HW293481  11.441  11.108   5.690
30548SOL     OW93482   5.508   6.412   4.300
30548SOL    HW193483   5.473   6.342   4.356
30548SOL    HW293484   5.585   6.443   4.347
30549SOL     OW93485   0.107  10.324   9.482
30549SOL    HW193486   0.079  10.327   9.573
30549SOL    HW293487   0.043  10.378   9.435
30550SOL     OW93488  13.771   3.270  13.495
30550SOL    HW193489  13.783   3.359  13.530
30550SOL    HW293490  13.779   3.280  13.401
30551SOL     OW93491   1.257   9.696  12.436
30551SOL    HW193492   1.301   9.709  12.351
30551SOL    HW293493   1.166   9.718  12.419
30552SOL     OW93494   3.251   4.958   2.793
30552SOL    HW193495   3.219   5.002   2.872
30552SOL    HW293496   3.323   5.013   2.763
30553SOL     OW93497   3.881   1.696   0.361
30553SOL    HW193498   3.897   1.653   0.445
30553SOL    HW293499   3.861   1.625   0.301
30554SOL     OW93500   8.304   9.688   1.220
30554SOL    HW193501   8.243   9.750   1.181
30554SOL    HW293502   8.263   9.662   1.303
30555SOL     OW93503   0.365   6.397   1.884
30555SOL    HW193504   0.440   6.372   1.830
30555SOL    HW293505   0.393   6.377   1.974
30556SOL     OW93506  11.061   1.645   4.708
30556SOL    HW193507  11.084   1.682   4.793
30556SOL    HW293508  11.023   1.559   4.729
30557SOL     OW93509  14.623   7.246   6.913
30557SOL    HW193510  14.616   7.341   6.926
30557SOL    HW293511  14.701   7.220   6.961
30558SOL     OW93512   1.763  10.058  10.890
30558SOL    HW193513   1.828  10.029  10.954
30558SOL    HW293514   1.686  10.079  10.943
30559SOL     OW93515   9.021  11.013   3.258
30559SOL    HW193516   8.941  10.988   3.213
30559SOL    HW293517   9.001  11.001   3.351
30560SOL     OW93518  11.455   1.137   2.852
30560SOL    HW193519  11.515   1.071   2.819
30560SOL    HW293520  11.414   1.096   2.928
30561SOL     OW93521  13.587  12.617  11.204
30561SOL    HW193522  13.669  12.575  11.230
30561SOL    HW293523  13.550  12.559  11.138
30562SOL     OW93524  10.566   3.268  13.682
30562SOL    HW193525  10.535   3.333  13.745
30562SOL    HW293526  10.488   3.215  13.662
30563SOL     OW93527   1.775   4.790   5.655
30563SOL    HW193528   1.856   4.771   5.702
30563SOL    HW293529   1.720   4.834   5.720
30564SOL     OW93530   0.847   8.688   8.764
30564SOL    HW193531   0.913   8.756   8.750
30564SOL    HW293532   0.764   8.732   8.744
30565SOL     OW93533   3.974  12.170   3.198
30565SOL    HW193534   4.030  12.093   3.203
30565SOL    HW293535   4.005  12.217   3.120
30566SOL     OW93536  10.599   5.857  10.527
30566SOL    HW193537  10.643   5.789  10.578
30566SOL    HW293538  10.592   5.820  10.439
30567SOL     OW93539   5.262   7.033   3.283
30567SOL    HW193540   5.168   7.049   3.278
30567SOL    HW293541   5.300   7.096   3.223
30568SOL     OW93542   9.520   6.801  10.679
30568SOL    HW193543   9.489   6.841  10.597
30568SOL    HW293544   9.469   6.720  10.687
30569SOL     OW93545  13.494  14.738   7.042
30569SOL    HW193546  13.533  14.725   7.128
30569SOL    HW293547  13.523  14.826   7.016
30570SOL     OW93548  10.912   1.314  11.818
30570SOL    HW193549  10.873   1.363  11.746
30570SOL    HW293550  10.949   1.382  11.875
30571SOL     OW93551  13.196  14.475   9.550
30571SOL    HW193552  13.180  14.406   9.485
30571SOL    HW293553  13.289  14.497   9.539
30572SOL     OW93554   5.359   5.673   5.901
30572SOL    HW193555   5.438   5.627   5.871
30572SOL    HW293556   5.388   5.721   5.979
30573SOL     OW93557   7.900  10.192   8.727
30573SOL    HW193558   7.946  10.217   8.807
30573SOL    HW293559   7.934  10.105   8.706
30574SOL     OW93560   8.324   1.641  12.348
30574SOL    HW193561   8.354   1.674  12.433
30574SOL    HW293562   8.352   1.550  12.346
30575SOL     OW93563   7.122   9.624   0.409
30575SOL    HW193564   7.132   9.604   0.316
30575SOL    HW293565   7.186   9.569   0.453
30576SOL     OW93566   2.110   2.013   9.850
30576SOL    HW193567   2.153   2.084   9.897
30576SOL    HW293568   2.021   2.045   9.834
30577SOL     OW93569  14.621   4.870   2.257
30577SOL    HW193570  14.677   4.869   2.179
30577SOL    HW293571  14.625   4.781   2.290
30578SOL     OW93572   2.212  14.576   3.693
30578SOL    HW193573   2.168  14.629   3.759
30578SOL    HW293574   2.154  14.501   3.680
30579SOL     OW93575   8.861   9.180   1.985
30579SOL    HW193576   8.952   9.211   1.978
30579SOL    HW293577   8.813   9.233   1.922
30580SOL     OW93578  13.591   3.183  12.885
30580SOL    HW193579  13.625   3.190  12.975
30580SOL    HW293580  13.521   3.119  12.891
30581SOL     OW93581   3.763   4.096  12.653
30581SOL    HW193582   3.832   4.075  12.590
30581SOL    HW293583   3.808   4.141  12.724
30582SOL     OW93584  12.962   0.559  12.320
30582SOL    HW193585  12.933   0.468  12.323
30582SOL    HW293586  13.044   0.557  12.271
30583SOL     OW93587  12.743   8.459  10.777
30583SOL    HW193588  12.738   8.519  10.852
30583SOL    HW293589  12.778   8.378  10.814
30584SOL     OW93590   0.226   1.794   1.474
30584SOL    HW193591   0.299   1.856   1.480
30584SOL    HW293592   0.181   1.802   1.558
30585SOL     OW93593   7.648   0.481   8.039
30585SOL    HW193594   7.669   0.419   7.969
30585SOL    HW293595   7.640   0.427   8.117
30586SOL     OW93596   4.223   2.715   6.013
30586SOL    HW193597   4.207   2.751   5.926
30586SOL    HW293598   4.288   2.646   5.999
30587SOL     OW93599  12.876   9.294  10.960
30587SOL    HW193600  12.915   9.207  10.948
30587SOL    HW293601  12.792   9.289  10.914
30588SOL     OW93602   1.290   6.514   5.921
30588SOL    HW193603   1.286   6.489   5.829
30588SOL    HW293604   1.306   6.609   5.920
30589SOL     OW93605   7.757   0.614  11.775
30589SOL    HW193606   7.671   0.647  11.802
30589SOL    HW293607   7.814   0.633  11.850
30590SOL     OW93608   9.978   5.842   3.068
30590SOL    HW193609   9.888   5.872   3.057
30590SOL    HW293610  10.028   5.920   3.090
30591SOL     OW93611  10.682   3.971  11.910
30591SOL    HW193612  10.691   3.914  11.833
30591SOL    HW293613  10.768   3.969  11.951
30592SOL     OW93614   6.740  10.178   0.435
30592SOL    HW193615   6.788  10.209   0.358
30592SOL    HW293616   6.806  10.132   0.487
30593SOL     OW93617   6.076   7.716   6.426
30593SOL    HW193618   6.033   7.636   6.394
30593SOL    HW293619   6.046   7.723   6.517
30594SOL     OW93620   9.919   2.681   5.910
30594SOL    HW193621   9.914   2.733   5.991
30594SOL    HW293622   9.828   2.658   5.891
30595SOL     OW93623   0.727   3.011   2.418
30595SOL    HW193624   0.638   3.044   2.410
30595SOL    HW293625   0.782   3.078   2.378
30596SOL     OW93626   0.966   9.024   3.066
30596SOL    HW193627   0.911   9.085   3.114
30596SOL    HW293628   1.014   8.976   3.133
30597SOL     OW93629   4.184  10.991   6.876
30597SOL    HW193630   4.117  10.924   6.877
30597SOL    HW293631   4.255  10.954   6.823
30598SOL     OW93632   7.607   8.768  11.554
30598SOL    HW193633   7.594   8.801  11.465
30598SOL    HW293634   7.522   8.734  11.580
30599SOL     OW93635   2.104   3.922  13.604
30599SOL    HW193636   2.049   3.930  13.526
30599SOL    HW293637   2.157   4.002  13.603
30600SOL     OW93638   1.713  11.414   1.177
30600SOL    HW193639   1.753  11.494   1.144
30600SOL    HW293640   1.774  11.344   1.154
30601SOL     OW93641   6.524   8.764   3.088
30601SOL    HW193642   6.437   8.726   3.094
30601SOL    HW293643   6.509   8.859   3.085
30602SOL     OW93644   9.972  12.098   8.984
30602SOL    HW193645   9.918  12.167   8.946
30602SOL    HW293646   9.917  12.019   8.978
30603SOL     OW93647   1.332  10.277  12.177
30603SOL    HW193648   1.349  10.183  12.172
30603SOL    HW293649   1.407  10.318  12.135
30604SOL     OW93650   2.260   9.273   3.847
30604SOL    HW193651   2.188   9.234   3.896
30604SOL    HW293652   2.217   9.325   3.779
30605SOL     OW93653  12.154   0.816   6.398
30605SOL    HW193654  12.211   0.739   6.389
30605SOL    HW293655  12.133   0.841   6.308
30606SOL     OW93656   8.256   6.014   0.522
30606SOL    HW193657   8.170   6.025   0.563
30606SOL    HW293658   8.303   6.094   0.544
30607SOL     OW93659   1.861   1.897   5.359
30607SOL    HW193660   1.840   1.877   5.268
30607SOL    HW293661   1.848   1.991   5.367
30608SOL     OW93662  14.071  11.940  10.372
30608SOL    HW193663  14.096  12.024  10.410
30608SOL    HW293664  14.071  11.880  10.446
30609SOL     OW93665   8.132   8.214   5.302
30609SOL    HW193666   8.127   8.121   5.279
30609SOL    HW293667   8.226   8.231   5.308
30610SOL     OW93668   3.300   4.335   2.294
30610SOL    HW193669   3.350   4.306   2.218
30610SOL    HW293670   3.361   4.390   2.343
30611SOL     OW93671   0.167   4.107   7.058
30611SOL    HW193672   0.120   4.078   7.136
30611SOL    HW293673   0.098   4.136   6.998
30612SOL     OW93674   5.982   1.407  14.554
30612SOL    HW193675   5.924   1.463  14.503
30612SOL    HW293676   6.021   1.348  14.490
30613SOL     OW93677   3.053   0.300   9.743
30613SOL    HW193678   3.123   0.318   9.679
30613SOL    HW293679   3.068   0.364   9.813
30614SOL     OW93680  13.408   5.716   1.784
30614SOL    HW193681  13.502   5.717   1.796
30614SOL    HW293682  13.395   5.671   1.700
30615SOL     OW93683   9.308   0.375   2.818
30615SOL    HW193684   9.220   0.354   2.786
30615SOL    HW293685   9.309   0.341   2.907
30616SOL     OW93686   0.135   1.021  10.910
30616SOL    HW193687   0.223   1.022  10.874
30616SOL    HW293688   0.138   1.081  10.985
30617SOL     OW93689   3.700  14.198   3.783
30617SOL    HW193690   3.666  14.206   3.694
30617SOL    HW293691   3.628  14.226   3.839
30618SOL     OW93692   3.081  13.874   9.942
30618SOL    HW193693   3.005  13.836   9.898
30618SOL    HW293694   3.153  13.862   9.881
30619SOL     OW93695   8.845  10.073   4.975
30619SOL    HW193696   8.922  10.116   5.013
30619SOL    HW293697   8.880  10.016   4.907
30620SOL     OW93698  10.302  14.105  14.049
30620SOL    HW193699  10.288  14.078  13.958
30620SOL    HW293700  10.219  14.146  14.075
30621SOL     OW93701   3.711   2.737  13.509
30621SOL    HW193702   3.673   2.684  13.579
30621SOL    HW293703   3.636   2.761  13.454
30622SOL     OW93704   2.217   4.310   7.632
30622SOL    HW193705   2.286   4.254   7.667
30622SOL    HW293706   2.254   4.347   7.552
30623SOL     OW93707   5.500  14.448  13.552
30623SOL    HW193708   5.519  14.417  13.641
30623SOL    HW293709   5.415  14.491  13.559
30624SOL     OW93710   6.686  12.761  11.913
30624SOL    HW193711   6.781  12.777  11.906
30624SOL    HW293712   6.657  12.750  11.823
30625SOL     OW93713   2.158  10.779   0.226
30625SOL    HW193714   2.252  10.797   0.231
30625SOL    HW293715   2.124  10.842   0.163
30626SOL     OW93716   6.318   2.670   5.080
30626SOL    HW193717   6.274   2.585   5.083
30626SOL    HW293718   6.396   2.659   5.135
30627SOL     OW93719   1.857   4.906   0.839
30627SOL    HW193720   1.805   4.840   0.791
30627SOL    HW293721   1.793   4.972   0.865
30628SOL     OW93722  11.883   2.997   3.301
30628SOL    HW193723  11.853   2.993   3.392
30628SOL    HW293724  11.933   2.917   3.289
30629SOL     OW93725   1.935  14.374  10.362
30629SOL    HW193726   1.940  14.296  10.417
30629SOL    HW293727   1.883  14.436  10.413
30630SOL     OW93728   7.816   3.649   1.401
30630SOL    HW193729   7.781   3.588   1.336
30630SOL    HW293730   7.859   3.717   1.350
30631SOL     OW93731   1.114  14.218  14.780
30631SOL    HW193732   1.076  14.300  14.812
30631SOL    HW293733   1.156  14.179  14.856
30632SOL     OW93734   7.742   8.642   0.153
30632SOL    HW193735   7.770   8.649   0.245
30632SOL    HW293736   7.652   8.610   0.159
30633SOL     OW93737   6.098   4.873   1.688
30633SOL    HW193738   6.029   4.853   1.751
30633SOL    HW293739   6.054   4.873   1.603
30634SOL     OW93740  12.444  12.359  12.291
30634SOL    HW193741  12.488  12.295  12.346
30634SOL    HW293742  12.361  12.377  12.335
30635SOL     OW93743   0.774  14.749  14.131
30635SOL    HW193744   0.709  14.679  14.133
30635SOL    HW293745   0.817  14.740  14.046
30636SOL     OW93746   5.722   7.265  12.752
30636SOL    HW193747   5.733   7.347  12.703
30636SOL    HW293748   5.792   7.267  12.818
30637SOL     OW93749  14.854   5.055   7.373
30637SOL    HW193750   0.010   5.143   7.361
30637SOL    HW293751  14.835   5.051   7.467
30638SOL     OW93752  11.685   2.201   6.941
30638SOL    HW193753  11.669   2.114   6.978
30638SOL    HW293754  11.649   2.196   6.853
30639SOL     OW93755  13.392  14.719  11.617
30639SOL    HW193756  13.459  14.738  11.682
30639SOL    HW293757  13.349  14.804  11.602
30640SOL     OW93758   9.077   1.527  14.270
30640SOL    HW193759   9.114   1.466  14.207
30640SOL    HW293760   9.109   1.613  14.241
30641SOL     OW93761   5.124  11.536  13.160
30641SOL    HW193762   5.077  11.605  13.207
30641SOL    HW293763   5.207  11.575  13.134
30642SOL     OW93764   6.259   5.666  13.764
30642SOL    HW193765   6.313   5.691  13.839
30642SOL    HW293766   6.306   5.700  13.688
30643SOL     OW93767   8.083   2.447   6.097
30643SOL    HW193768   8.140   2.479   6.167
30643SOL    HW293769   8.113   2.357   6.081
30644SOL     OW93770   8.058   7.830   7.966
30644SOL    HW193771   7.983   7.833   8.025
30644SOL    HW293772   8.020   7.811   7.880
30645SOL     OW93773   3.991   8.800  13.236
30645SOL    HW193774   4.051   8.875  13.237
30645SOL    HW293775   3.954   8.799  13.324
30646SOL     OW93776   9.076  14.195   5.572
30646SOL    HW193777   9.104  14.234   5.655
30646SOL    HW293778   9.067  14.101   5.591
30647SOL     OW93779  11.661   4.802  13.184
30647SOL    HW193780  11.716   4.730  13.213
30647SOL    HW293781  11.722   4.868  13.153
30648SOL     OW93782   0.653   3.190   8.144
30648SOL    HW193783   0.704   3.118   8.107
30648SOL    HW293784   0.595   3.148   8.208
30649SOL     OW93785  12.462   3.216   5.976
30649SOL    HW193786  12.476   3.303   6.015
30649SOL    HW293787  12.490   3.226   5.885
30650SOL     OW93788   5.554   0.011   8.277
30650SOL    HW193789   5.556   0.103   8.250
30650SOL    HW293790   5.529  14.845   8.198
30651SOL     OW93791   4.855   9.044   5.602
30651SOL    HW193792   4.875   9.137   5.594
30651SOL    HW293793   4.807   9.022   5.522
30652SOL     OW93794   0.053  10.153   9.981
30652SOL    HW193795  14.866  10.097   9.947
30652SOL    HW293796   0.133  10.101   9.970
30653SOL     OW93797   2.815   7.718   3.336
30653SOL    HW193798   2.753   7.691   3.404
30653SOL    HW293799   2.902   7.704   3.375
30654SOL     OW93800   7.282   9.790   6.131
30654SOL    HW193801   7.361   9.809   6.079
30654SOL    HW293802   7.311   9.726   6.195
30655SOL     OW93803   5.176  11.841  14.287
30655SOL    HW193804   5.145  11.774  14.226
30655SOL    HW293805   5.099  11.865  14.337
30656SOL     OW93806   1.213   3.287  13.843
30656SOL    HW193807   1.234   3.203  13.803
30656SOL    HW293808   1.212   3.270  13.937
30657SOL     OW93809  14.613   6.341  14.680
30657SOL    HW193810  14.604   6.408  14.612
30657SOL    HW293811  14.650   6.388  14.755
30658SOL     OW93812  14.634  12.844  10.088
30658SOL    HW193813  14.549  12.866  10.049
30658SOL    HW293814  14.677  12.790  10.021
30659SOL     OW93815  14.539   6.089  11.372
30659SOL    HW193816  14.505   6.081  11.283
30659SOL    HW293817  14.461   6.081  11.428
30660SOL     OW93818   9.360   4.487   1.370
30660SOL    HW193819   9.288   4.536   1.410
30660SOL    HW293820   9.338   4.395   1.387
30661SOL     OW93821   6.959   8.445   5.729
30661SOL    HW193822   6.916   8.530   5.722
30661SOL    HW293823   7.050   8.467   5.754
30662SOL     OW93824   6.600  11.114   4.293
30662SOL    HW193825   6.608  11.201   4.332
30662SOL    HW293826   6.527  11.122   4.232
30663SOL     OW93827   7.213   3.956   8.903
30663SOL    HW193828   7.262   3.963   8.985
30663SOL    HW293829   7.273   3.990   8.836
30664SOL     OW93830   5.812   6.611   3.688
30664SOL    HW193831   5.885   6.549   3.688
30664SOL    HW293832   5.752   6.576   3.754
30665SOL     OW93833   1.987  12.860   6.482
30665SOL    HW193834   2.082  12.873   6.480
30665SOL    HW293835   1.974  12.776   6.437
30666SOL     OW93836  11.323   5.172   5.386
30666SOL    HW193837  11.324   5.077   5.375
30666SOL    HW293838  11.231   5.197   5.375
30667SOL     OW93839   0.573   8.914   4.151
30667SOL    HW193840   0.623   8.889   4.073
30667SOL    HW293841   0.626   8.982   4.193
30668SOL     OW93842  11.093   6.289  11.374
30668SOL    HW193843  11.139   6.273  11.456
30668SOL    HW293844  11.001   6.271  11.394
30669SOL     OW93845   1.337   1.440  14.125
30669SOL    HW193846   1.265   1.493  14.092
30669SOL    HW293847   1.296   1.359  14.155
30670SOL     OW93848   4.239   8.816   7.124
30670SOL    HW193849   4.255   8.726   7.096
30670SOL    HW293850   4.156   8.840   7.083
30671SOL     OW93851   3.248   1.258  11.919
30671SOL    HW193852   3.334   1.225  11.945
30671SOL    HW293853   3.257   1.353  11.920
30672SOL     OW93854  13.050   2.047   6.120
30672SOL    HW193855  13.040   1.992   6.198
30672SOL    HW293856  12.989   2.010   6.056
30673SOL     OW93857   3.002   4.753   5.230
30673SOL    HW193858   2.941   4.700   5.180
30673SOL    HW293859   3.085   4.705   5.226
30674SOL     OW93860   4.403   9.875   2.289
30674SOL    HW193861   4.447   9.841   2.366
30674SOL    HW293862   4.463   9.941   2.254
30675SOL     OW93863  12.852  10.725  13.434
30675SOL    HW193864  12.940  10.695  13.455
30675SOL    HW293865  12.805  10.723  13.517
30676SOL     OW93866  11.540   3.105  12.587
30676SOL    HW193867  11.449   3.076  12.597
30676SOL    HW293868  11.559   3.093  12.494
30677SOL     OW93869   1.353  14.137   3.764
30677SOL    HW193870   1.391  14.170   3.682
30677SOL    HW293871   1.360  14.042   3.756
30678SOL     OW93872  12.909  11.760  11.885
30678SOL    HW193873  12.900  11.690  11.950
30678SOL    HW293874  12.847  11.737  11.816
30679SOL     OW93875   1.494  13.650   1.095
30679SOL    HW193876   1.423  13.596   1.130
30679SOL    HW293877   1.513  13.713   1.166
30680SOL     OW93878   6.009   2.309   2.246
30680SOL    HW193879   6.091   2.345   2.281
30680SOL    HW293880   6.005   2.342   2.157
30681SOL     OW93881   2.593  13.381   2.310
30681SOL    HW193882   2.516  13.326   2.297
30681SOL    HW293883   2.623  13.360   2.399
30682SOL     OW93884   1.846  11.388   5.368
30682SOL    HW193885   1.886  11.458   5.420
30682SOL    HW293886   1.846  11.422   5.279
30683SOL     OW93887   7.284   0.833   9.501
30683SOL    HW193888   7.345   0.790   9.441
30683SOL    HW293889   7.265   0.766   9.567
30684SOL     OW93890   8.554  12.088   5.763
30684SOL    HW193891   8.564  11.995   5.741
30684SOL    HW293892   8.518  12.088   5.852
30685SOL     OW93893   1.887  10.617   8.052
30685SOL    HW193894   1.981  10.610   8.069
30685SOL    HW293895   1.871  10.552   7.983
30686SOL     OW93896   8.893   1.308   4.777
30686SOL    HW193897   8.970   1.347   4.818
30686SOL    HW293898   8.911   1.214   4.774
30687SOL     OW93899   9.917   6.460   1.789
30687SOL    HW193900   9.869   6.445   1.870
30687SOL    HW293901   9.980   6.529   1.811
30688SOL     OW93902   4.560   6.521   2.480
30688SOL    HW193903   4.625   6.452   2.468
30688SOL    HW293904   4.529   6.541   2.391
30689SOL     OW93905   2.209   8.911   8.530
30689SOL    HW193906   2.252   8.869   8.456
30689SOL    HW293907   2.274   8.905   8.601
30690SOL     OW93908   3.952   6.099   0.878
30690SOL    HW193909   4.014   6.136   0.815
30690SOL    HW293910   4.005   6.039   0.931
30691SOL     OW93911   6.511   8.023   1.809
30691SOL    HW193912   6.471   8.110   1.815
30691SOL    HW293913   6.572   8.020   1.883
30692SOL     OW93914  12.580  10.168  12.854
30692SOL    HW193915  12.622  10.128  12.930
30692SOL    HW293916  12.516  10.103  12.825
30693SOL     OW93917   1.815   7.392   2.576
30693SOL    HW193918   1.766   7.427   2.501
30693SOL    HW293919   1.887   7.453   2.588
30694SOL     OW93920   4.685  12.486   5.939
30694SOL    HW193921   4.625  12.415   5.964
30694SOL    HW293922   4.772  12.449   5.951
30695SOL     OW93923   5.997   6.214   2.027
30695SOL    HW193924   5.960   6.265   2.100
30695SOL    HW293925   6.085   6.251   2.014
30696SOL     OW93926   6.900  12.162   6.267
30696SOL    HW193927   6.965  12.114   6.215
30696SOL    HW293928   6.928  12.253   6.261
30697SOL     OW93929   7.222   9.072  10.462
30697SOL    HW193930   7.287   9.121  10.512
30697SOL    HW293931   7.215   8.988  10.508
30698SOL     OW93932  12.543   5.406  13.142
30698SOL    HW193933  12.469   5.364  13.099
30698SOL    HW293934  12.615   5.398  13.080
30699SOL     OW93935   5.342   4.871   0.747
30699SOL    HW193936   5.258   4.839   0.781
30699SOL    HW293937   5.399   4.876   0.824
30700SOL     OW93938  10.409   4.772   1.090
30700SOL    HW193939  10.440   4.818   1.012
30700SOL    HW293940  10.374   4.842   1.146
30701SOL     OW93941   5.284   3.646   7.366
30701SOL    HW193942   5.304   3.680   7.278
30701SOL    HW293943   5.233   3.716   7.407
30702SOL     OW93944   0.031   9.061   1.708
30702SOL    HW193945   0.018   9.033   1.798
30702SOL    HW293946   0.028   9.157   1.712
30703SOL     OW93947   4.376   8.579   0.620
30703SOL    HW193948   4.441   8.547   0.682
30703SOL    HW293949   4.375   8.674   0.631
30704SOL     OW93950   9.431   3.785  12.274
30704SOL    HW193951   9.416   3.745  12.359
30704SOL    HW293952   9.466   3.872  12.294
30705SOL     OW93953  13.320   2.202   4.400
30705SOL    HW193954  13.261   2.185   4.473
30705SOL    HW293955  13.394   2.143   4.415
30706SOL     OW93956   0.208   3.344   8.555
30706SOL    HW193957   0.194   3.438   8.570
30706SOL    HW293958   0.296   3.327   8.589
30707SOL     OW93959   6.962   5.409  14.250
30707SOL    HW193960   6.901   5.411  14.177
30707SOL    HW293961   7.010   5.491  14.245
30708SOL     OW93962  12.268   3.923  12.362
30708SOL    HW193963  12.254   3.999  12.306
30708SOL    HW293964  12.267   3.958  12.451
30709SOL     OW93965  11.713   7.035   5.085
30709SOL    HW193966  11.633   7.064   5.039
30709SOL    HW293967  11.754   6.973   5.024
30710SOL     OW93968   8.168   0.241  12.485
30710SOL    HW193969   8.229   0.307  12.517
30710SOL    HW293970   8.087   0.288  12.468
30711SOL     OW93971  10.239  12.446   5.902
30711SOL    HW193972  10.180  12.393   5.848
30711SOL    HW293973  10.225  12.415   5.991
30712SOL     OW93974  14.089   0.166   9.369
30712SOL    HW193975  14.029   0.095   9.390
30712SOL    HW293976  14.082   0.227   9.443
30713SOL     OW93977  10.984  13.826   7.943
30713SOL    HW193978  11.027  13.832   8.029
30713SOL    HW293979  11.010  13.740   7.909
30714SOL     OW93980   6.381  14.638   5.004
30714SOL    HW193981   6.463  14.590   4.992
30714SOL    HW293982   6.377  14.655   5.098
30715SOL     OW93983   4.253   1.375  10.535
30715SOL    HW193984   4.223   1.406  10.620
30715SOL    HW293985   4.259   1.280  10.544
30716SOL     OW93986   5.772   1.473  11.688
30716SOL    HW193987   5.796   1.513  11.604
30716SOL    HW293988   5.678   1.489  11.697
30717SOL     OW93989  10.966  12.703   4.482
30717SOL    HW193990  11.057  12.731   4.493
30717SOL    HW293991  10.915  12.784   4.490
30718SOL     OW93992   2.960  11.778  11.419
30718SOL    HW193993   2.893  11.764  11.486
30718SOL    HW293994   2.926  11.734  11.341
30719SOL     OW93995   0.812   6.413   8.661
30719SOL    HW193996   0.873   6.479   8.628
30719SOL    HW293997   0.863   6.361   8.723
30720SOL     OW93998   5.888   5.144   7.359
30720SOL    HW193999   5.943   5.078   7.402
30720SOL    HW294000   5.949   5.193   7.302
30721SOL     OW94001   6.399   7.385   5.866
30721SOL    HW194002   6.364   7.322   5.803
30721SOL    HW294003   6.347   7.371   5.945
30722SOL     OW94004   8.929  10.148   4.634
30722SOL    HW194005   8.931  10.192   4.549
30722SOL    HW294006   8.962  10.214   4.695
30723SOL     OW94007  12.650  14.049  13.362
30723SOL    HW194008  12.682  13.959  13.367
30723SOL    HW294009  12.556  14.040  13.347
30724SOL     OW94010  10.535   4.650  10.282
30724SOL    HW194011  10.578   4.668  10.366
30724SOL    HW294012  10.544   4.731  10.232
30725SOL     OW94013   0.445   3.106   1.680
30725SOL    HW194014   0.455   3.189   1.727
30725SOL    HW294015   0.468   3.128   1.589
30726SOL     OW94016  10.630   3.107   0.356
30726SOL    HW194017  10.723   3.090   0.374
30726SOL    HW294018  10.586   3.091   0.439
30727SOL     OW94019  14.875   1.003   7.299
30727SOL    HW194020   0.065   1.062   7.276
30727SOL    HW294021  14.800   1.037   7.250
30728SOL     OW94022  12.268   3.951   3.961
30728SOL    HW194023  12.222   3.911   3.887
30728SOL    HW294024  12.290   3.878   4.019
30729SOL     OW94025   4.891   9.691   9.269
30729SOL    HW194026   4.855   9.663   9.353
30729SOL    HW294027   4.926   9.611   9.230
30730SOL     OW94028  13.735   5.154   6.868
30730SOL    HW194029  13.732   5.097   6.945
30730SOL    HW294030  13.817   5.131   6.824
30731SOL     OW94031   7.184   2.842   3.354
30731SOL    HW194032   7.256   2.823   3.294
30731SOL    HW294033   7.106   2.837   3.299
30732SOL     OW94034  10.050  13.907   0.818
30732SOL    HW194035  10.121  13.849   0.791
30732SOL    HW294036  10.078  13.994   0.788
30733SOL     OW94037   3.412   8.719   5.349
30733SOL    HW194038   3.438   8.753   5.434
30733SOL    HW294039   3.475   8.756   5.288
30734SOL     OW94040   7.230   7.626  13.502
30734SOL    HW194041   7.236   7.562  13.431
30734SOL    HW294042   7.207   7.708  13.458
30735SOL     OW94043   9.602   1.344   8.346
30735SOL    HW194044   9.625   1.253   8.329
30735SOL    HW294045   9.592   1.349   8.441
30736SOL     OW94046   7.613   8.508   1.596
30736SOL    HW194047   7.703   8.477   1.587
30736SOL    HW294048   7.586   8.478   1.683
30737SOL     OW94049   5.001   3.056   4.827
30737SOL    HW194050   5.006   2.980   4.884
30737SOL    HW294051   4.953   3.025   4.750
30738SOL     OW94052   4.027   4.080   4.118
30738SOL    HW194053   4.066   3.995   4.100
30738SOL    HW294054   3.948   4.060   4.169
30739SOL     OW94055  11.750   0.395   8.072
30739SOL    HW194056  11.751   0.322   8.135
30739SOL    HW294057  11.759   0.473   8.127
30740SOL     OW94058   5.587  14.732   1.929
30740SOL    HW194059   5.557  14.652   1.885
30740SOL    HW294060   5.647  14.701   1.997
30741SOL     OW94061  13.096  13.577  10.658
30741SOL    HW194062  13.104  13.652  10.599
30741SOL    HW294063  13.112  13.614  10.745
30742SOL     OW94064  11.620   7.594   3.567
30742SOL    HW194065  11.689   7.539   3.529
30742SOL    HW294066  11.540   7.566   3.522
30743SOL     OW94067  10.635  10.065   1.746
30743SOL    HW194068  10.584  10.030   1.819
30743SOL    HW294069  10.665   9.988   1.699
30744SOL     OW94070   3.755   2.331   4.575
30744SOL    HW194071   3.677   2.318   4.521
30744SOL    HW294072   3.744   2.271   4.648
30745SOL     OW94073   1.474   2.834   6.740
30745SOL    HW194074   1.520   2.763   6.694
30745SOL    HW294075   1.458   2.900   6.673
30746SOL     OW94076   2.863   0.857  12.204
30746SOL    HW194077   2.808   0.933  12.224
30746SOL    HW294078   2.951   0.883  12.231
30747SOL     OW94079   4.198   5.011   5.956
30747SOL    HW194080   4.217   5.034   5.865
30747SOL    HW294081   4.149   4.928   5.951
30748SOL     OW94082  13.716  14.087  10.484
30748SOL    HW194083  13.755  14.136  10.556
30748SOL    HW294084  13.767  14.112  10.407
30749SOL     OW94085   8.304   0.227   4.170
30749SOL    HW194086   8.375   0.239   4.233
30749SOL    HW294087   8.225   0.255   4.217
30750SOL     OW94088   7.208   7.174  12.816
30750SOL    HW194089   7.225   7.092  12.863
30750SOL    HW294090   7.224   7.153  12.724
30751SOL     OW94091   9.004   9.283  14.014
30751SOL    HW194092   8.914   9.298  13.985
30751SOL    HW294093   9.007   9.323  14.101
30752SOL     OW94094   9.713   3.699   4.121
30752SOL    HW194095   9.733   3.762   4.053
30752SOL    HW294096   9.635   3.653   4.089
30753SOL     OW94097   4.453   4.825   3.200
30753SOL    HW194098   4.398   4.824   3.122
30753SOL    HW294099   4.483   4.734   3.208
30754SOL     OW94100   4.866  13.687   8.690
30754SOL    HW194101   4.892  13.740   8.615
30754SOL    HW294102   4.778  13.717   8.712
30755SOL     OW94103  14.354  12.105   4.093
30755SOL    HW194104  14.331  12.054   4.170
30755SOL    HW294105  14.436  12.149   4.117
30756SOL     OW94106  12.009  12.383   2.408
30756SOL    HW194107  11.979  12.474   2.409
30756SOL    HW294108  12.018  12.361   2.315
30757SOL     OW94109  13.562   2.445  14.076
30757SOL    HW194110  13.600   2.533  14.068
30757SOL    HW294111  13.564   2.426  14.170
30758SOL     OW94112  14.451  12.129  12.488
30758SOL    HW194113  14.433  12.074  12.563
30758SOL    HW294114  14.479  12.213  12.525
30759SOL     OW94115  11.107   2.354   5.567
30759SOL    HW194116  11.146   2.386   5.486
30759SOL    HW294117  11.026   2.404   5.575
30760SOL     OW94118  12.251  13.043   0.147
30760SOL    HW194119  12.240  13.110   0.080
30760SOL    HW294120  12.280  12.966   0.099
30761SOL     OW94121   0.719   6.320   4.808
30761SOL    HW194122   0.772   6.281   4.738
30761SOL    HW294123   0.641   6.352   4.763
30762SOL     OW94124   7.796  11.881   5.434
30762SOL    HW194125   7.780  11.818   5.504
30762SOL    HW294126   7.848  11.950   5.476
30763SOL     OW94127   9.783   5.886  12.253
30763SOL    HW194128   9.769   5.803  12.208
30763SOL    HW294129   9.721   5.885  12.327
30764SOL     OW94130   2.886   8.809   3.500
30764SOL    HW194131   2.980   8.809   3.522
30764SOL    HW294132   2.844   8.771   3.576
30765SOL     OW94133   6.584  11.218   9.191
30765SOL    HW194134   6.538  11.209   9.274
30765SOL    HW294135   6.582  11.312   9.173
30766SOL     OW94136   0.198   0.055   3.306
30766SOL    HW194137   0.272   0.052   3.367
30766SOL    HW294138   0.237   0.082   3.223
30767SOL     OW94139   9.326   1.903   8.809
30767SOL    HW194140   9.364   1.894   8.896
30767SOL    HW294141   9.371   1.979   8.770
30768SOL     OW94142   1.262  10.647   2.776
30768SOL    HW194143   1.309  10.707   2.719
30768SOL    HW294144   1.171  10.676   2.774
30769SOL     OW94145  12.556  12.567  13.287
30769SOL    HW194146  12.468  12.567  13.249
30769SOL    HW294147  12.575  12.475  13.302
30770SOL     OW94148  11.320   7.781   3.885
30770SOL    HW194149  11.366   7.741   3.959
30770SOL    HW294150  11.247   7.829   3.925
30771SOL     OW94151   9.460   7.913   2.372
30771SOL    HW194152   9.459   7.921   2.468
30771SOL    HW294153   9.545   7.948   2.346
30772SOL     OW94154   2.849  13.663   0.591
30772SOL    HW194155   2.943  13.649   0.603
30772SOL    HW294156   2.841  13.689   0.499
30773SOL     OW94157   5.255  10.757   9.532
30773SOL    HW194158   5.233  10.686   9.592
30773SOL    HW294159   5.292  10.826   9.587
30774SOL     OW94160  12.991   7.636   9.558
30774SOL    HW194161  13.084   7.620   9.540
30774SOL    HW294162  12.948   7.626   9.472
30775SOL     OW94163   7.438   3.807   7.623
30775SOL    HW194164   7.390   3.727   7.604
30775SOL    HW294165   7.496   3.783   7.696
30776SOL     OW94166   8.932   4.199  11.402
30776SOL    HW194167   8.956   4.194  11.494
30776SOL    HW294168   8.900   4.289  11.390
30777SOL     OW94169   5.630  13.044   0.554
30777SOL    HW194170   5.545  13.057   0.595
30777SOL    HW294171   5.624  13.093   0.472
30778SOL     OW94172   1.260   0.857   6.161
30778SOL    HW194173   1.260   0.865   6.257
30778SOL    HW294174   1.212   0.934   6.130
30779SOL     OW94175   3.471   4.031   4.022
30779SOL    HW194176   3.482   4.038   4.117
30779SOL    HW294177   3.503   4.114   3.987
30780SOL     OW94178  11.351  12.141   1.478
30780SOL    HW194179  11.318  12.074   1.418
30780SOL    HW294180  11.309  12.121   1.562
30781SOL     OW94181   0.471  11.292  14.038
30781SOL    HW194182   0.524  11.215  14.017
30781SOL    HW294183   0.453  11.332  13.953
30782SOL     OW94184   4.068   9.132  10.345
30782SOL    HW194185   4.083   9.227  10.346
30782SOL    HW294186   4.064   9.110  10.252
30783SOL     OW94187   2.670   9.124   1.745
30783SOL    HW194188   2.598   9.088   1.797
30783SOL    HW294189   2.698   9.051   1.689
30784SOL     OW94190   4.298  14.057   3.697
30784SOL    HW194191   4.238  13.983   3.696
30784SOL    HW294192   4.273  14.108   3.774
30785SOL     OW94193   7.136   7.788   1.146
30785SOL    HW194194   7.122   7.707   1.095
30785SOL    HW294195   7.209   7.831   1.102
30786SOL     OW94196   4.409  14.763   7.797
30786SOL    HW194197   4.329  14.711   7.797
30786SOL    HW294198   4.456  14.735   7.875
30787SOL     OW94199   2.360   5.540   9.202
30787SOL    HW194200   2.284   5.596   9.220
30787SOL    HW294201   2.323   5.451   9.197
30788SOL     OW94202   4.366  10.512   3.993
30788SOL    HW194203   4.441  10.457   4.014
30788SOL    HW294204   4.390  10.556   3.912
30789SOL     OW94205   8.936   3.632   8.430
30789SOL    HW194206   8.889   3.710   8.400
30789SOL    HW294207   8.892   3.559   8.386
30790SOL     OW94208  14.171  14.732   5.989
30790SOL    HW194209  14.214  14.746   6.074
30790SOL    HW294210  14.100  14.796   5.988
30791SOL     OW94211   3.366   0.601   1.191
30791SOL    HW194212   3.300   0.610   1.259
30791SOL    HW294213   3.371   0.507   1.175
30792SOL     OW94214  14.807   3.055   1.207
30792SOL    HW194215  14.821   2.962   1.189
30792SOL    HW294216   0.000   3.099   1.167
30793SOL     OW94217   7.845   8.024   7.613
30793SOL    HW194218   7.897   8.104   7.606
30793SOL    HW294219   7.784   8.029   7.539
30794SOL     OW94220  14.825   5.346  14.291
30794SOL    HW194221  14.791   5.419  14.342
30794SOL    HW294222  14.753   5.322  14.232
30795SOL     OW94223  11.874   1.976  11.135
30795SOL    HW194224  11.888   1.909  11.068
30795SOL    HW294225  11.783   2.001  11.124
30796SOL     OW94226  10.397   8.346   0.574
30796SOL    HW194227  10.346   8.426   0.587
30796SOL    HW294228  10.406   8.338   0.479
30797SOL     OW94229   4.482  13.215   8.771
30797SOL    HW194230   4.454  13.188   8.683
30797SOL    HW294231   4.559  13.270   8.756
30798SOL     OW94232   7.682   7.619   7.533
30798SOL    HW194233   7.724   7.548   7.581
30798SOL    HW294234   7.755   7.669   7.495
30799SOL     OW94235   5.559   6.669   2.262
30799SOL    HW194236   5.558   6.653   2.356
30799SOL    HW294237   5.651   6.654   2.236
30800SOL     OW94238   9.293  10.367   4.551
30800SOL    HW194239   9.376  10.326   4.527
30800SOL    HW294240   9.318  10.449   4.592
30801SOL     OW94241  11.962   2.960   9.449
30801SOL    HW194242  11.888   2.967   9.510
30801SOL    HW294243  11.983   2.867   9.447
30802SOL     OW94244  11.564  11.602   1.064
30802SOL    HW194245  11.478  11.566   1.042
30802SOL    HW294246  11.572  11.589   1.158
30803SOL     OW94247  12.735   5.696  13.831
30803SOL    HW194248  12.683   5.776  13.831
30803SOL    HW294249  12.762   5.684  13.740
30804SOL     OW94250   4.132   3.483   8.094
30804SOL    HW194251   4.170   3.410   8.044
30804SOL    HW294252   4.043   3.455   8.112
30805SOL     OW94253  13.926   3.979   5.418
30805SOL    HW194254  13.920   3.884   5.413
30805SOL    HW294255  13.916   3.999   5.511
30806SOL     OW94256   5.404   3.989   7.280
30806SOL    HW194257   5.442   4.050   7.343
30806SOL    HW294258   5.475   3.927   7.261
30807SOL     OW94259   9.298  13.681   4.681
30807SOL    HW194260   9.282  13.665   4.774
30807SOL    HW294261   9.242  13.619   4.636
30808SOL     OW94262  10.450   9.215  14.333
30808SOL    HW194263  10.428   9.251  14.246
30808SOL    HW294264  10.368   9.177  14.364
30809SOL     OW94265  11.137   5.135   7.635
30809SOL    HW194266  11.093   5.220   7.625
30809SOL    HW294267  11.086   5.075   7.580
30810SOL     OW94268   5.875   5.432   4.739
30810SOL    HW194269   5.933   5.359   4.721
30810SOL    HW294270   5.840   5.415   4.826
30811SOL     OW94271  14.344  12.666   6.723
30811SOL    HW194272  14.419  12.627   6.767
30811SOL    HW294273  14.369  12.669   6.630
30812SOL     OW94274   5.677   8.157  13.995
30812SOL    HW194275   5.672   8.178  13.902
30812SOL    HW294276   5.770   8.158  14.015
30813SOL     OW94277   5.158   4.790  13.225
30813SOL    HW194278   5.164   4.731  13.300
30813SOL    HW294279   5.097   4.858  13.252
30814SOL     OW94280  13.854   4.506  13.600
30814SOL    HW194281  13.924   4.440  13.596
30814SOL    HW294282  13.889   4.574  13.658
30815SOL     OW94283   6.023  14.359  10.180
30815SOL    HW194284   5.958  14.374  10.249
30815SOL    HW294285   6.105  14.393  10.216
30816SOL     OW94286  12.379   1.887   1.011
30816SOL    HW194287  12.404   1.853   1.097
30816SOL    HW294288  12.288   1.860   1.000
30817SOL     OW94289   8.838   2.383  11.293
30817SOL    HW194290   8.915   2.365  11.348
30817SOL    HW294291   8.764   2.361  11.349
30818SOL     OW94292   8.649   8.885  12.582
30818SOL    HW194293   8.669   8.972  12.617
30818SOL    HW294294   8.695   8.882  12.498
30819SOL     OW94295  13.550   4.309   9.286
30819SOL    HW194296  13.623   4.264   9.242
30819SOL    HW294297  13.472   4.283   9.236
30820SOL     OW94298  10.659   8.755   7.688
30820SOL    HW194299  10.587   8.805   7.726
30820SOL    HW294300  10.707   8.818   7.635
30821SOL     OW94301   3.840   3.482   5.388
30821SOL    HW194302   3.921   3.456   5.343
30821SOL    HW294303   3.869   3.542   5.456
30822SOL     OW94304   7.142   9.397   4.662
30822SOL    HW194305   7.092   9.336   4.608
30822SOL    HW294306   7.082   9.422   4.732
30823SOL     OW94307   9.137  11.677   9.208
30823SOL    HW194308   9.110  11.750   9.263
30823SOL    HW294309   9.222  11.704   9.172
30824SOL     OW94310  11.666   6.560   6.891
30824SOL    HW194311  11.643   6.508   6.968
30824SOL    HW294312  11.627   6.646   6.908
30825SOL     OW94313   4.109  10.226   3.461
30825SOL    HW194314   4.069  10.297   3.510
30825SOL    HW294315   4.087  10.245   3.369
30826SOL     OW94316   2.785   8.311   9.352
30826SOL    HW194317   2.856   8.375   9.363
30826SOL    HW294318   2.831   8.227   9.346
30827SOL     OW94319  11.280  14.044  10.754
30827SOL    HW194320  11.188  14.046  10.780
30827SOL    HW294321  11.328  14.051  10.837
30828SOL     OW94322   7.986   5.963   3.245
30828SOL    HW194323   7.909   5.974   3.301
30828SOL    HW294324   8.060   5.965   3.305
30829SOL     OW94325   9.126  12.413   8.586
30829SOL    HW194326   9.188  12.452   8.525
30829SOL    HW294327   9.141  12.459   8.668
30830SOL     OW94328   9.213   6.169   9.276
30830SOL    HW194329   9.268   6.246   9.288
30830SOL    HW294330   9.256   6.118   9.208
30831SOL     OW94331   9.440   0.342   1.468
30831SOL    HW194332   9.401   0.300   1.391
30831SOL    HW294333   9.500   0.407   1.432
30832SOL     OW94334   9.169   8.066  14.630
30832SOL    HW194335   9.236   8.047  14.564
30832SOL    HW294336   9.188   8.006  14.702
30833SOL     OW94337   7.399   7.831   1.026
30833SOL    HW194338   7.412   7.918   1.063
30833SOL    HW294339   7.465   7.777   1.068
30834SOL     OW94340   8.513  12.757   3.429
30834SOL    HW194341   8.591  12.808   3.409
30834SOL    HW294342   8.518  12.741   3.524
30835SOL     OW94343   5.790   1.681  13.572
30835SOL    HW194344   5.852   1.754  13.575
30835SOL    HW294345   5.734   1.699  13.497
30836SOL     OW94346   8.913   6.828   1.655
30836SOL    HW194347   8.918   6.781   1.738
30836SOL    HW294348   8.819   6.846   1.644
30837SOL     OW94349  11.421   8.919   5.009
30837SOL    HW194350  11.425   9.001   4.959
30837SOL    HW294351  11.447   8.944   5.098
30838SOL     OW94352  12.498   6.488   6.956
30838SOL    HW194353  12.440   6.509   6.883
30838SOL    HW294354  12.551   6.567   6.968
30839SOL     OW94355   6.065  10.017  13.609
30839SOL    HW194356   6.078  10.011  13.514
30839SOL    HW294357   5.999   9.950  13.628
30840SOL     OW94358   6.576   6.378  10.252
30840SOL    HW194359   6.662   6.367  10.293
30840SOL    HW294360   6.568   6.305  10.192
30841SOL     OW94361   2.936   8.128  10.550
30841SOL    HW194362   2.911   8.210  10.509
30841SOL    HW294363   2.862   8.069  10.534
30842SOL     OW94364   3.907   9.232   0.593
30842SOL    HW194365   3.985   9.177   0.605
30842SOL    HW294366   3.941   9.319   0.577
30843SOL     OW94367   9.932  12.337  10.029
30843SOL    HW194368   9.955  12.382  10.110
30843SOL    HW294369   9.839  12.356  10.016
30844SOL     OW94370  10.208   9.374   5.560
30844SOL    HW194371  10.129   9.382   5.612
30844SOL    HW294372  10.184   9.408   5.474
30845SOL     OW94373   4.874   3.911   4.954
30845SOL    HW194374   4.927   3.880   5.028
30845SOL    HW294375   4.923   3.886   4.876
30846SOL     OW94376  12.280   9.254   3.017
30846SOL    HW194377  12.374   9.238   3.017
30846SOL    HW294378  12.249   9.221   2.932
30847SOL     OW94379   5.872  11.718  12.172
30847SOL    HW194380   5.924  11.688  12.246
30847SOL    HW294381   5.809  11.780  12.210
30848SOL     OW94382   1.494  12.698   9.718
30848SOL    HW194383   1.525  12.777   9.674
30848SOL    HW294384   1.472  12.638   9.646
30849SOL     OW94385   9.651  14.540   8.365
30849SOL    HW194386   9.617  14.451   8.372
30849SOL    HW294387   9.744  14.528   8.345
30850SOL     OW94388   4.459   0.973  11.657
30850SOL    HW194389   4.481   1.046  11.715
30850SOL    HW294390   4.459   0.897  11.715
30851SOL     OW94391   9.433   0.363  10.276
30851SOL    HW194392   9.407   0.455  10.271
30851SOL    HW294393   9.379   0.326  10.346
30852SOL     OW94394  14.164  10.269  10.470
30852SOL    HW194395  14.189  10.344  10.525
30852SOL    HW294396  14.210  10.195  10.508
30853SOL     OW94397   9.936   9.695  12.665
30853SOL    HW194398   9.959   9.730  12.580
30853SOL    HW294399   9.956   9.601  12.658
30854SOL     OW94400   2.320   0.243   3.998
30854SOL    HW194401   2.358   0.331   4.001
30854SOL    HW294402   2.254   0.248   3.930
30855SOL     OW94403  14.352   5.832   8.969
30855SOL    HW194404  14.312   5.854   9.053
30855SOL    HW294405  14.414   5.762   8.989
30856SOL     OW94406  11.256   3.419  10.656
30856SOL    HW194407  11.228   3.424  10.565
30856SOL    HW294408  11.238   3.328  10.682
30857SOL     OW94409  11.147  12.330  10.404
30857SOL    HW194410  11.091  12.346  10.328
30857SOL    HW294411  11.181  12.417  10.427
30858SOL     OW94412   1.258  14.046   6.806
30858SOL    HW194413   1.189  13.997   6.761
30858SOL    HW294414   1.262  14.130   6.760
30859SOL     OW94415   9.012  12.337   8.243
30859SOL    HW194416   9.027  12.289   8.161
30859SOL    HW294417   8.966  12.274   8.299
30860SOL     OW94418   6.066   2.105   6.270
30860SOL    HW194419   5.991   2.126   6.327
30860SOL    HW294420   6.133   2.074   6.331
30861SOL     OW94421   4.960   7.491   8.973
30861SOL    HW194422   4.909   7.538   8.906
30861SOL    HW294423   5.009   7.425   8.924
30862SOL     OW94424   6.173   9.615   1.614
30862SOL    HW194425   6.147   9.599   1.523
30862SOL    HW294426   6.153   9.708   1.629
30863SOL     OW94427   8.220   1.581   5.376
30863SOL    HW194428   8.221   1.675   5.389
30863SOL    HW294429   8.127   1.557   5.376
30864SOL     OW94430   9.084   5.679  10.761
30864SOL    HW194431   9.037   5.685  10.845
30864SOL    HW294432   9.020   5.642  10.701
30865SOL     OW94433  14.485   1.161   3.095
30865SOL    HW194434  14.400   1.199   3.074
30865SOL    HW294435  14.548   1.215   3.047
30866SOL     OW94436  10.754   7.629   4.033
30866SOL    HW194437  10.720   7.559   4.089
30866SOL    HW294438  10.676   7.667   3.992
30867SOL     OW94439  10.933   6.590   5.687
30867SOL    HW194440  10.846   6.593   5.725
30867SOL    HW294441  10.926   6.642   5.606
30868SOL     OW94442   4.819   0.329   6.952
30868SOL    HW194443   4.821   0.351   6.859
30868SOL    HW294444   4.897   0.274   6.965
30869SOL     OW94445   6.532   1.324   5.949
30869SOL    HW194446   6.579   1.241   5.945
30869SOL    HW294447   6.542   1.352   6.040
30870SOL     OW94448   2.886   1.833  10.790
30870SOL    HW194449   2.956   1.897  10.775
30870SOL    HW294450   2.915   1.783  10.867
30871SOL     OW94451   3.634   5.864   5.675
30871SOL    HW194452   3.639   5.808   5.598
30871SOL    HW294453   3.540   5.877   5.689
30872SOL     OW94454  11.435   8.239  14.298
30872SOL    HW194455  11.458   8.171  14.235
30872SOL    HW294456  11.519   8.266  14.335
30873SOL     OW94457   3.034  11.452   1.758
30873SOL    HW194458   2.973  11.386   1.790
30873SOL    HW294459   3.068  11.415   1.676
30874SOL     OW94460   3.305   1.823   3.237
30874SOL    HW194461   3.341   1.879   3.305
30874SOL    HW294462   3.235   1.774   3.280
30875SOL     OW94463   9.568  10.036  13.271
30875SOL    HW194464   9.603  10.124  13.284
30875SOL    HW294465   9.642   9.985  13.238
30876SOL     OW94466   8.458  13.290   5.036
30876SOL    HW194467   8.446  13.341   5.116
30876SOL    HW294468   8.369  13.271   5.005
30877SOL     OW94469   0.711  12.295   5.916
30877SOL    HW194470   0.753  12.347   5.985
30877SOL    HW294471   0.675  12.360   5.856
30878SOL     OW94472   2.526  13.706   4.219
30878SOL    HW194473   2.529  13.693   4.314
30878SOL    HW294474   2.612  13.742   4.197
30879SOL     OW94475   6.378  14.722  13.270
30879SOL    HW194476   6.296  14.684  13.300
30879SOL    HW294477   6.444  14.657  13.292
30880SOL     OW94478   1.369   2.247  12.380
30880SOL    HW194479   1.441   2.192  12.410
30880SOL    HW294480   1.291   2.211  12.423
30881SOL     OW94481  13.023   3.651  11.170
30881SOL    HW194482  13.070   3.694  11.098
30881SOL    HW294483  12.941   3.621  11.131
30882SOL     OW94484   0.484   7.674   1.756
30882SOL    HW194485   0.481   7.590   1.801
30882SOL    HW294486   0.560   7.718   1.794
30883SOL     OW94487   6.773   2.306   6.945
30883SOL    HW194488   6.789   2.370   7.015
30883SOL    HW294489   6.698   2.340   6.897
30884SOL     OW94490   9.440   3.737  13.597
30884SOL    HW194491   9.463   3.793  13.523
30884SOL    HW294492   9.502   3.762  13.666
30885SOL     OW94493  11.219  13.042   8.783
30885SOL    HW194494  11.258  12.971   8.835
30885SOL    HW294495  11.212  13.006   8.695
30886SOL     OW94496  11.155   8.926  14.328
30886SOL    HW194497  11.132   8.876  14.407
30886SOL    HW294498  11.088   8.993  14.321
30887SOL     OW94499   2.059   5.749  14.132
30887SOL    HW194500   2.106   5.828  14.107
30887SOL    HW294501   2.100   5.679  14.081
30888SOL     OW94502   9.340   1.619   7.900
30888SOL    HW194503   9.425   1.649   7.933
30888SOL    HW294504   9.277   1.679   7.938
30889SOL     OW94505   9.556   9.609   9.671
30889SOL    HW194506   9.541   9.686   9.617
30889SOL    HW294507   9.521   9.633   9.757
30890SOL     OW94508   8.418  14.584   0.277
30890SOL    HW194509   8.503  14.571   0.235
30890SOL    HW294510   8.438  14.627   0.360
30891SOL     OW94511  10.712   3.578  12.677
30891SOL    HW194512  10.775   3.639  12.715
30891SOL    HW294513  10.630   3.627  12.673
30892SOL     OW94514   0.612   8.263   6.015
30892SOL    HW194515   0.697   8.295   5.987
30892SOL    HW294516   0.561   8.258   5.933
30893SOL     OW94517   9.824   0.675  14.251
30893SOL    HW194518   9.826   0.645  14.341
30893SOL    HW294519   9.765   0.614  14.206
30894SOL     OW94520   6.115   6.371  12.918
30894SOL    HW194521   6.122   6.452  12.867
30894SOL    HW294522   6.040   6.325  12.879
30895SOL     OW94523   9.533   9.057   8.656
30895SOL    HW194524   9.532   8.973   8.701
30895SOL    HW294525   9.447   9.095   8.672
30896SOL     OW94526   4.332   8.459   8.565
30896SOL    HW194527   4.284   8.461   8.648
30896SOL    HW294528   4.377   8.544   8.561
30897SOL     OW94529   6.970   8.935  12.758
30897SOL    HW194530   6.917   8.972  12.688
30897SOL    HW294531   7.060   8.937  12.724
30898SOL     OW94532  12.090   4.647   9.926
30898SOL    HW194533  12.108   4.704   9.851
30898SOL    HW294534  12.145   4.682   9.997
30899SOL     OW94535   3.351   3.326   4.917
30899SOL    HW194536   3.412   3.367   4.856
30899SOL    HW294537   3.377   3.359   5.003
30900SOL     OW94538  13.387   2.617  14.515
30900SOL    HW194539  13.358   2.621  14.606
30900SOL    HW294540  13.446   2.692  14.505
30901SOL     OW94541   6.994  14.505   1.496
30901SOL    HW194542   6.999  14.452   1.417
30901SOL    HW294543   7.007  14.443   1.568
30902SOL     OW94544   0.812  13.608  10.912
30902SOL    HW194545   0.824  13.517  10.941
30902SOL    HW294546   0.745  13.643  10.971
30903SOL     OW94547  13.065   6.325   9.105
30903SOL    HW194548  13.047   6.418   9.119
30903SOL    HW294549  12.995   6.295   9.046
30904SOL     OW94550   6.019  12.383   8.494
30904SOL    HW194551   6.042  12.462   8.543
30904SOL    HW294552   6.091  12.322   8.511
30905SOL     OW94553   5.921   5.426  13.704
30905SOL    HW194554   5.969   5.484  13.645
30905SOL    HW294555   5.924   5.469  13.789
30906SOL     OW94556  14.329   8.835  13.526
30906SOL    HW194557  14.364   8.892  13.595
30906SOL    HW294558  14.396   8.768  13.515
30907SOL     OW94559  11.655   1.355  12.933
30907SOL    HW194560  11.708   1.397  13.002
30907SOL    HW294561  11.717   1.342  12.861
30908SOL     OW94562   1.843   0.090   0.846
30908SOL    HW194563   1.883   0.020   0.897
30908SOL    HW294564   1.769   0.120   0.899
30909SOL     OW94565   1.257   6.284   2.405
30909SOL    HW194566   1.235   6.276   2.312
30909SOL    HW294567   1.216   6.208   2.446
30910SOL     OW94568   3.481  14.487   7.908
30910SOL    HW194569   3.555  14.501   7.967
30910SOL    HW294570   3.417  14.553   7.934
30911SOL     OW94571  13.585  13.083   6.749
30911SOL    HW194572  13.662  13.036   6.718
30911SOL    HW294573  13.516  13.058   6.688
30912SOL     OW94574   8.937  11.186   0.647
30912SOL    HW194575   8.845  11.193   0.620
30912SOL    HW294576   8.938  11.114   0.711
30913SOL     OW94577   8.262   5.144   3.790
30913SOL    HW194578   8.324   5.214   3.770
30913SOL    HW294579   8.275   5.080   3.721
30914SOL     OW94580  11.988  12.156  12.701
30914SOL    HW194581  12.024  12.084  12.753
30914SOL    HW294582  12.063  12.211  12.681
30915SOL     OW94583  12.163   3.628  12.097
30915SOL    HW194584  12.241   3.644  12.043
30915SOL    HW294585  12.136   3.714  12.127
30916SOL     OW94586   0.286  11.160   3.190
30916SOL    HW194587   0.299  11.069   3.163
30916SOL    HW294588   0.356  11.208   3.146
30917SOL     OW94589  13.168  13.995   3.422
30917SOL    HW194590  13.238  14.060   3.418
30917SOL    HW294591  13.208  13.916   3.385
30918SOL     OW94592   2.093   5.681   1.808
30918SOL    HW194593   2.013   5.628   1.803
30918SOL    HW294594   2.079   5.736   1.886
30919SOL     OW94595   1.135  12.458  13.318
30919SOL    HW194596   1.200  12.505  13.266
30919SOL    HW294597   1.185  12.390  13.363
30920SOL     OW94598   9.824  12.179  12.200
30920SOL    HW194599   9.757  12.238  12.165
30920SOL    HW294600   9.842  12.213  12.288
30921SOL     OW94601  10.818   5.970  13.689
30921SOL    HW194602  10.901   6.008  13.718
30921SOL    HW294603  10.843   5.893  13.638
30922SOL     OW94604   9.272  14.501  13.640
30922SOL    HW194605   9.332  14.520  13.713
30922SOL    HW294606   9.233  14.585  13.618
30923SOL     OW94607   3.166  14.096   2.950
30923SOL    HW194608   3.103  14.025   2.941
30923SOL    HW294609   3.121  14.162   3.003
30924SOL     OW94610  13.859   1.961   2.815
30924SOL    HW194611  13.771   1.924   2.815
30924SOL    HW294612  13.865   2.008   2.731
30925SOL     OW94613   0.267   5.814  13.848
30925SOL    HW194614   0.260   5.909  13.837
30925SOL    HW294615   0.328   5.787  13.780
30926SOL     OW94616  13.916  11.201   0.754
30926SOL    HW194617  13.951  11.290   0.759
30926SOL    HW294618  13.988  11.146   0.786
30927SOL     OW94619  11.789   0.146   7.881
30927SOL    HW194620  11.709   0.122   7.834
30927SOL    HW294621  11.761   0.214   7.943
30928SOL     OW94622   1.326  14.047   4.599
30928SOL    HW194623   1.334  13.995   4.519
30928SOL    HW294624   1.294  13.985   4.664
30929SOL     OW94625  10.889  12.553   9.154
30929SOL    HW194626  10.934  12.636   9.174
30929SOL    HW294627  10.799  12.579   9.132
30930SOL     OW94628  14.833  11.385  10.308
30930SOL    HW194629  14.834  11.330  10.386
30930SOL    HW294630  14.759  11.444  10.322
30931SOL     OW94631   3.142   3.437   0.779
30931SOL    HW194632   3.059   3.390   0.791
30931SOL    HW294633   3.209   3.376   0.811
30932SOL     OW94634  11.786   5.870  13.290
30932SOL    HW194635  11.702   5.913  13.273
30932SOL    HW294636  11.765   5.799  13.350
30933SOL     OW94637   4.211  13.739   7.676
30933SOL    HW194638   4.199  13.683   7.752
30933SOL    HW294639   4.287  13.702   7.631
30934SOL     OW94640   3.176   1.295   2.537
30934SOL    HW194641   3.260   1.251   2.530
30934SOL    HW294642   3.115   1.240   2.490
30935SOL     OW94643  13.955  12.587  10.985
30935SOL    HW194644  13.909  12.513  10.945
30935SOL    HW294645  13.967  12.649  10.913
30936SOL     OW94646  14.168  11.863  10.932
30936SOL    HW194647  14.090  11.913  10.910
30936SOL    HW294648  14.221  11.865  10.852
30937SOL     OW94649  12.383   1.827   7.995
30937SOL    HW194650  12.453   1.883   7.961
30937SOL    HW294651  12.331   1.805   7.917
30938SOL     OW94652   4.318  13.019   2.069
30938SOL    HW194653   4.257  12.973   2.127
30938SOL    HW294654   4.404  12.991   2.098
30939SOL     OW94655   5.540   0.271   8.153
30939SOL    HW194656   5.595   0.272   8.075
30939SOL    HW294657   5.457   0.307   8.124
30940SOL     OW94658   5.263   8.036   4.532
30940SOL    HW194659   5.272   7.976   4.606
30940SOL    HW294660   5.174   8.071   4.541
30941SOL     OW94661  10.322   7.672   5.126
30941SOL    HW194662  10.303   7.607   5.058
30941SOL    HW294663  10.387   7.630   5.182
30942SOL     OW94664   1.388   0.319  13.762
30942SOL    HW194665   1.418   0.258  13.695
30942SOL    HW294666   1.418   0.280  13.844
30943SOL     OW94667   3.420   0.955   8.639
30943SOL    HW194668   3.448   1.047   8.642
30943SOL    HW294669   3.358   0.952   8.566
30944SOL     OW94670   3.333   2.288   1.611
30944SOL    HW194671   3.341   2.352   1.682
30944SOL    HW294672   3.327   2.204   1.656
30945SOL     OW94673  14.351  11.439  12.919
30945SOL    HW194674  14.437  11.469  12.948
30945SOL    HW294675  14.291  11.466  12.989
30946SOL     OW94676   5.857   0.058   7.014
30946SOL    HW194677   5.805   0.009   7.078
30946SOL    HW294678   5.914  14.875   6.974
30947SOL     OW94679   3.202   6.250   1.632
30947SOL    HW194680   3.201   6.241   1.727
30947SOL    HW294681   3.128   6.308   1.612
30948SOL     OW94682  11.013   3.659   5.472
30948SOL    HW194683  11.051   3.574   5.449
30948SOL    HW294684  11.007   3.658   5.567
30949SOL     OW94685   4.783   6.588  14.534
30949SOL    HW194686   4.834   6.551  14.463
30949SOL    HW294687   4.763   6.678  14.506
30950SOL     OW94688   4.155  12.595  12.372
30950SOL    HW194689   4.220  12.562  12.435
30950SOL    HW294690   4.085  12.629  12.427
30951SOL     OW94691   1.277  13.361   6.996
30951SOL    HW194692   1.328  13.284   6.972
30951SOL    HW294693   1.341  13.431   7.003
30952SOL     OW94694  11.086   7.130   9.680
30952SOL    HW194695  11.124   7.096   9.761
30952SOL    HW294696  11.161   7.142   9.622
30953SOL     OW94697   6.760   4.659   3.165
30953SOL    HW194698   6.840   4.644   3.216
30953SOL    HW294699   6.786   4.721   3.097
30954SOL     OW94700   5.258   5.565   1.613
30954SOL    HW194701   5.220   5.522   1.689
30954SOL    HW294702   5.294   5.647   1.647
30955SOL     OW94703   9.717   3.437   0.575
30955SOL    HW194704   9.715   3.517   0.627
30955SOL    HW294705   9.689   3.369   0.636
30956SOL     OW94706  11.915  10.373  14.804
30956SOL    HW194707  11.925  10.286  14.842
30956SOL    HW294708  11.925  10.360  14.710
30957SOL     OW94709   0.048  12.431   2.826
30957SOL    HW194710  14.866  12.401   2.891
30957SOL    HW294711   0.103  12.354   2.810
30958SOL     OW94712   5.879   9.781   9.935
30958SOL    HW194713   5.877   9.876   9.945
30958SOL    HW294714   5.898   9.748  10.023
30959SOL     OW94715   4.846   5.720  11.633
30959SOL    HW194716   4.889   5.791  11.680
30959SOL    HW294717   4.889   5.641  11.665
30960SOL     OW94718   5.559   7.672   6.466
30960SOL    HW194719   5.533   7.652   6.376
30960SOL    HW294720   5.598   7.759   6.462
30961SOL     OW94721  14.374   5.379  14.792
30961SOL    HW194722  14.347   5.404  14.703
30961SOL    HW294723  14.447   5.319  14.779
30962SOL     OW94724   7.587   1.043  14.539
30962SOL    HW194725   7.502   1.087  14.546
30962SOL    HW294726   7.639   1.078  14.612
30963SOL     OW94727   9.615   3.750   2.519
30963SOL    HW194728   9.621   3.840   2.486
30963SOL    HW294729   9.521   3.731   2.520
30964SOL     OW94730  11.299   4.681   7.728
30964SOL    HW194731  11.231   4.633   7.774
30964SOL    HW294732  11.252   4.729   7.659
30965SOL     OW94733   0.523  10.127  13.027
30965SOL    HW194734   0.515  10.032  13.022
30965SOL    HW294735   0.510  10.157  12.937
30966SOL     OW94736   5.351   2.824   3.553
30966SOL    HW194737   5.324   2.796   3.640
30966SOL    HW294738   5.270   2.849   3.509
30967SOL     OW94739   2.830   1.959   2.968
30967SOL    HW194740   2.801   1.971   2.878
30967SOL    HW294741   2.762   1.999   3.022
30968SOL     OW94742  10.432  10.054   2.980
30968SOL    HW194743  10.427  10.135   3.031
30968SOL    HW294744  10.369   9.995   3.023
30969SOL     OW94745   9.195   6.254   4.822
30969SOL    HW194746   9.140   6.176   4.823
30969SOL    HW294747   9.230   6.261   4.911
30970SOL     OW94748   4.625   8.651   0.134
30970SOL    HW194749   4.542   8.674   0.092
30970SOL    HW294750   4.612   8.671   0.226
30971SOL     OW94751  13.786   7.705   8.313
30971SOL    HW194752  13.845   7.693   8.387
30971SOL    HW294753  13.736   7.624   8.309
30972SOL     OW94754  11.263  14.819   4.811
30972SOL    HW194755  11.276   0.025   4.846
30972SOL    HW294756  11.338  14.804   4.754
30973SOL     OW94757   8.631   2.494  10.288
30973SOL    HW194758   8.668   2.464  10.205
30973SOL    HW294759   8.705   2.489  10.350
30974SOL     OW94760  14.337   4.548   5.646
30974SOL    HW194761  14.387   4.477   5.685
30974SOL    HW294762  14.375   4.627   5.684
30975SOL     OW94763   9.737   7.885  11.089
30975SOL    HW194764   9.775   7.944  11.024
30975SOL    HW294765   9.680   7.941  11.141
30976SOL     OW94766   1.584  10.077  10.218
30976SOL    HW194767   1.577  10.085  10.123
30976SOL    HW294768   1.635   9.998  10.231
30977SOL     OW94769   4.220   9.319   0.055
30977SOL    HW194770   4.136   9.341   0.095
30977SOL    HW294771   4.276   9.394   0.075
30978SOL     OW94772   6.813   3.106   9.358
30978SOL    HW194773   6.725   3.110   9.320
30978SOL    HW294774   6.863   3.171   9.310
30979SOL     OW94775  12.292  13.470  11.234
30979SOL    HW194776  12.297  13.438  11.325
30979SOL    HW294777  12.203  13.449  11.207
30980SOL     OW94778   8.847  12.639  13.151
30980SOL    HW194779   8.928  12.688  13.153
30980SOL    HW294780   8.864  12.566  13.091
30981SOL     OW94781  11.592  14.678   4.116
30981SOL    HW194782  11.643  14.722   4.048
30981SOL    HW294783  11.510  14.727   4.120
30982SOL     OW94784   4.052   2.485   6.591
30982SOL    HW194785   3.987   2.526   6.535
30982SOL    HW294786   4.002   2.450   6.665
30983SOL     OW94787   4.690   1.175  14.711
30983SOL    HW194788   4.681   1.109  14.779
30983SOL    HW294789   4.633   1.247  14.740
30984SOL     OW94790   5.797  14.303   3.711
30984SOL    HW194791   5.879  14.327   3.667
30984SOL    HW294792   5.823  14.282   3.800
30985SOL     OW94793  11.654  10.213   4.308
30985SOL    HW194794  11.668  10.119   4.304
30985SOL    HW294795  11.742  10.251   4.314
30986SOL     OW94796   9.903   8.956   1.668
30986SOL    HW194797   9.826   8.982   1.719
30986SOL    HW294798   9.964   9.029   1.676
30987SOL     OW94799   8.191  12.069  12.716
30987SOL    HW194800   8.147  12.003  12.662
30987SOL    HW294801   8.276  12.030  12.737
30988SOL     OW94802   8.224   1.202   5.037
30988SOL    HW194803   8.150   1.252   5.073
30988SOL    HW294804   8.298   1.223   5.094
30989SOL     OW94805   5.773   5.506  10.839
30989SOL    HW194806   5.776   5.472  10.750
30989SOL    HW294807   5.834   5.580  10.838
30990SOL     OW94808   0.252   5.777   2.634
30990SOL    HW194809   0.236   5.857   2.583
30990SOL    HW294810   0.165   5.739   2.644
30991SOL     OW94811   1.358   7.346  13.413
30991SOL    HW194812   1.338   7.406  13.484
30991SOL    HW294813   1.404   7.400  13.348
30992SOL     OW94814   8.340  10.642   7.058
30992SOL    HW194815   8.418  10.587   7.067
30992SOL    HW294816   8.293  10.631   7.141
30993SOL     OW94817  10.132   3.895   2.932
30993SOL    HW194818  10.157   3.830   2.865
30993SOL    HW294819  10.183   3.871   3.009
30994SOL     OW94820   3.371   4.248   3.156
30994SOL    HW194821   3.352   4.292   3.073
30994SOL    HW294822   3.464   4.229   3.152
30995SOL     OW94823   0.822  12.464  12.783
30995SOL    HW194824   0.870  12.382  12.790
30995SOL    HW294825   0.815  12.496  12.873
30996SOL     OW94826   0.403  12.273   3.188
30996SOL    HW194827   0.334  12.206   3.190
30996SOL    HW294828   0.440  12.266   3.100
30997SOL     OW94829  14.866   5.161  13.317
30997SOL    HW194830  14.870   5.100  13.243
30997SOL    HW294831   0.012   5.245  13.279
30998SOL     OW94832  14.322  12.810   9.143
30998SOL    HW194833  14.359  12.725   9.121
30998SOL    HW294834  14.335  12.863   9.064
30999SOL     OW94835  14.827   8.193   0.698
30999SOL    HW194836   0.019   8.213   0.640
30999SOL    HW294837  14.862   8.207   0.786
31000SOL     OW94838   1.280   8.884   4.334
31000SOL    HW194839   1.318   8.827   4.401
31000SOL    HW294840   1.211   8.932   4.381
31001SOL     OW94841   6.848  14.586   0.145
31001SOL    HW194842   6.756  14.614   0.147
31001SOL    HW294843   6.853  14.515   0.210
31002SOL     OW94844   4.707  13.035  11.693
31002SOL    HW194845   4.738  12.945  11.685
31002SOL    HW294846   4.702  13.067  11.603
31003SOL     OW94847   0.807   5.344   9.424
31003SOL    HW194848   0.902   5.330   9.414
31003SOL    HW294849   0.783   5.398   9.349
31004SOL     OW94850   3.375   8.788  11.312
31004SOL    HW194851   3.469   8.802  11.301
31004SOL    HW294852   3.359   8.703  11.271
31005SOL     OW94853   7.606   6.525   9.683
31005SOL    HW194854   7.521   6.512   9.641
31005SOL    HW294855   7.667   6.541   9.610
31006SOL     OW94856   9.018   0.618   2.078
31006SOL    HW194857   9.057   0.705   2.091
31006SOL    HW294858   9.032   0.600   1.985
31007SOL     OW94859   7.518  10.611   8.109
31007SOL    HW194860   7.554  10.608   8.021
31007SOL    HW294861   7.504  10.704   8.126
31008SOL     OW94862  10.055   1.149  12.762
31008SOL    HW194863  10.050   1.196  12.846
31008SOL    HW294864   9.971   1.166  12.720
31009SOL     OW94865  10.853   8.107   2.137
31009SOL    HW194866  10.928   8.143   2.089
31009SOL    HW294867  10.817   8.040   2.079
31010SOL     OW94868   9.115   0.957   5.235
31010SOL    HW194869   9.095   0.916   5.151
31010SOL    HW294870   9.122   0.884   5.297
31011SOL     OW94871   4.669   1.763  14.311
31011SOL    HW194872   4.578   1.761  14.282
31011SOL    HW294873   4.709   1.833  14.259
31012SOL     OW94874   2.833  11.677  14.419
31012SOL    HW194875   2.878  11.696  14.502
31012SOL    HW294876   2.894  11.619  14.372
31013SOL     OW94877  13.203  11.986   6.115
31013SOL    HW194878  13.188  12.080   6.124
31013SOL    HW294879  13.239  11.959   6.199
31014SOL     OW94880   3.352   9.704   4.934
31014SOL    HW194881   3.353   9.636   5.002
31014SOL    HW294882   3.267   9.694   4.891
31015SOL     OW94883   9.328  14.465   5.742
31015SOL    HW194884   9.274  14.407   5.797
31015SOL    HW294885   9.298  14.449   5.653
31016SOL     OW94886  14.047  10.798   8.685
31016SOL    HW194887  14.065  10.836   8.771
31016SOL    HW294888  14.125  10.818   8.632
31017SOL     OW94889   5.693  11.506   0.923
31017SOL    HW194890   5.689  11.591   0.880
31017SOL    HW294891   5.682  11.525   1.016
31018SOL     OW94892   3.570  12.846  11.188
31018SOL    HW194893   3.570  12.881  11.277
31018SOL    HW294894   3.478  12.849  11.162
31019SOL     OW94895   0.537  11.390  11.090
31019SOL    HW194896   0.589  11.416  11.014
31019SOL    HW294897   0.544  11.295  11.093
31020SOL     OW94898   0.575  10.142   1.335
31020SOL    HW194899   0.483  10.122   1.317
31020SOL    HW294900   0.572  10.206   1.406
31021SOL     OW94901  10.636   1.095  10.863
31021SOL    HW194902  10.558   1.050  10.894
31021SOL    HW294903  10.621   1.108  10.769
31022SOL     OW94904  14.074   0.397   2.524
31022SOL    HW194905  14.164   0.428   2.537
31022SOL    HW294906  14.042   0.377   2.611
31023SOL     OW94907   6.428   5.906   7.380
31023SOL    HW194908   6.403   5.972   7.445
31023SOL    HW294909   6.373   5.830   7.401
31024SOL     OW94910   9.649   6.783   3.667
31024SOL    HW194911   9.699   6.752   3.743
31024SOL    HW294912   9.627   6.703   3.618
31025SOL     OW94913  13.029   3.148   7.412
31025SOL    HW194914  13.052   3.186   7.327
31025SOL    HW294915  13.113   3.117   7.448
31026SOL     OW94916   5.508   2.694   7.277
31026SOL    HW194917   5.434   2.647   7.239
31026SOL    HW294918   5.505   2.672   7.370
31027SOL     OW94919   9.263   5.624  10.241
31027SOL    HW194920   9.326   5.638  10.171
31027SOL    HW294921   9.185   5.672  10.213
31028SOL     OW94922  12.957  13.761   3.265
31028SOL    HW194923  13.028  13.720   3.314
31028SOL    HW294924  12.917  13.689   3.215
31029SOL     OW94925  11.004   3.179   1.506
31029SOL    HW194926  10.949   3.242   1.459
31029SOL    HW294927  10.954   3.097   1.505
31030SOL     OW94928   3.548   6.957  10.019
31030SOL    HW194929   3.464   6.969  10.063
31030SOL    HW294930   3.533   6.991   9.930
31031SOL     OW94931  14.405   4.940  10.534
31031SOL    HW194932  14.313   4.918  10.544
31031SOL    HW294933  14.421   5.010  10.597
31032SOL     OW94934   0.350   5.579  10.384
31032SOL    HW194935   0.424   5.604  10.327
31032SOL    HW294936   0.310   5.663  10.408
31033SOL     OW94937  13.399   3.444  13.045
31033SOL    HW194938  13.369   3.388  12.974
31033SOL    HW294939  13.395   3.388  13.123
31034SOL     OW94940  12.302   9.519  14.243
31034SOL    HW194941  12.224   9.481  14.283
31034SOL    HW294942  12.297   9.494  14.151
31035SOL     OW94943   0.531   3.695  14.111
31035SOL    HW194944   0.508   3.631  14.179
31035SOL    HW294945   0.619   3.669  14.082
31036SOL     OW94946   4.408   2.829  13.593
31036SOL    HW194947   4.410   2.867  13.681
31036SOL    HW294948   4.500   2.816  13.571
31037SOL     OW94949  11.275   4.215  11.055
31037SOL    HW194950  11.277   4.120  11.052
31037SOL    HW294951  11.224   4.241  10.978
31038SOL     OW94952   9.887   5.331  13.750
31038SOL    HW194953   9.862   5.393  13.681
31038SOL    HW294954   9.889   5.246  13.708
31039SOL     OW94955   1.019   1.567  10.759
31039SOL    HW194956   1.107   1.563  10.722
31039SOL    HW294957   0.962   1.546  10.685
31040SOL     OW94958   4.559   2.133   4.827
31040SOL    HW194959   4.646   2.155   4.860
31040SOL    HW294960   4.561   2.038   4.817
31041SOL     OW94961   3.395   3.189   5.501
31041SOL    HW194962   3.441   3.265   5.536
31041SOL    HW294963   3.302   3.210   5.510
31042SOL     OW94964   3.829   5.350  10.439
31042SOL    HW194965   3.877   5.269  10.452
31042SOL    HW294966   3.832   5.394  10.524
31043SOL     OW94967   0.891   7.313   3.457
31043SOL    HW194968   0.919   7.371   3.528
31043SOL    HW294969   0.965   7.254   3.444
31044SOL     OW94970   0.757  14.823  11.771
31044SOL    HW194971   0.775  14.814  11.677
31044SOL    HW294972   0.663  14.839  11.776
31045SOL     OW94973   9.626   3.748   9.363
31045SOL    HW194974   9.627   3.810   9.289
31045SOL    HW294975   9.639   3.803   9.440
31046SOL     OW94976  10.006  10.496  13.301
31046SOL    HW194977  10.016  10.427  13.235
31046SOL    HW294978  10.037  10.576  13.258
31047SOL     OW94979  14.616  12.132   4.391
31047SOL    HW194980  14.620  12.205   4.452
31047SOL    HW294981  14.606  12.173   4.305
31048SOL     OW94982   6.523  13.364   1.986
31048SOL    HW194983   6.471  13.319   1.920
31048SOL    HW294984   6.475  13.445   2.003
31049SOL     OW94985   7.311  10.316  12.025
31049SOL    HW194986   7.338  10.285  11.938
31049SOL    HW294987   7.267  10.399  12.008
31050SOL     OW94988   1.983  13.713   8.905
31050SOL    HW194989   2.036  13.793   8.900
31050SOL    HW294990   2.027  13.652   8.845
31051SOL     OW94991   9.825  10.131  10.606
31051SOL    HW194992   9.897  10.194  10.609
31051SOL    HW294993   9.748  10.184  10.585
31052SOL     OW94994   6.714   1.082   4.875
31052SOL    HW194995   6.682   1.081   4.785
31052SOL    HW294996   6.635   1.091   4.929
31053SOL     OW94997  12.995  14.556   1.981
31053SOL    HW194998  12.996  14.639   2.029
31053SOL    HW294999  13.015  14.490   2.047
31054SOL     OW95000   5.234  10.424   5.645
31054SOL    HW195001   5.275  10.342   5.619
31054SOL    HW295002   5.148  10.398   5.678
31055SOL     OW95003   1.102  10.739  11.241
31055SOL    HW195004   1.037  10.778  11.300
31055SOL    HW295005   1.052  10.713  11.164
31056SOL     OW95006   0.018   8.172  12.110
31056SOL    HW195007   0.063   8.096  12.146
31056SOL    HW295008  14.815   8.138  12.081
31057SOL     OW95009   7.757  13.262   7.744
31057SOL    HW195010   7.814  13.188   7.763
31057SOL    HW295011   7.713  13.238   7.662
31058SOL     OW95012  10.864   7.244  10.298
31058SOL    HW195013  10.901   7.168  10.342
31058SOL    HW295014  10.938   7.283  10.252
31059SOL     OW95015   9.594   6.846   9.831
31059SOL    HW195016   9.516   6.859   9.776
31059SOL    HW295017   9.653   6.917   9.806
31060SOL     OW95018   3.241   1.149  14.529
31060SOL    HW195019   3.332   1.176  14.520
31060SOL    HW295020   3.213   1.124  14.441
31061SOL     OW95021  11.806   3.177  10.955
31061SOL    HW195022  11.888   3.188  10.906
31061SOL    HW295023  11.749   3.246  10.921
31062SOL     OW95024  12.376  14.593  13.650
31062SOL    HW195025  12.352  14.685  13.649
31062SOL    HW295026  12.299  14.549  13.688
31063SOL     OW95027  10.167  12.681   8.878
31063SOL    HW195028  10.174  12.642   8.965
31063SOL    HW295029  10.073  12.694   8.866
31064SOL     OW95030   4.546  11.874   0.550
31064SOL    HW195031   4.499  11.954   0.528
31064SOL    HW295032   4.587  11.894   0.634
31065SOL     OW95033   2.633   0.613   2.851
31065SOL    HW195034   2.725   0.636   2.843
31065SOL    HW295035   2.600   0.617   2.761
31066SOL     OW95036  13.530   8.432   4.080
31066SOL    HW195037  13.450   8.450   4.129
31066SOL    HW295038  13.595   8.491   4.119
31067SOL     OW95039  11.596   5.322   3.373
31067SOL    HW195040  11.599   5.337   3.279
31067SOL    HW295041  11.671   5.264   3.390
31068SOL     OW95042  10.230   8.168  13.397
31068SOL    HW195043  10.147   8.210  13.373
31068SOL    HW295044  10.204   8.088  13.443
31069SOL     OW95045   5.393   2.032   6.712
31069SOL    HW195046   5.424   1.967   6.775
31069SOL    HW295047   5.372   1.982   6.634
31070SOL     OW95048   0.957   4.015   7.482
31070SOL    HW195049   1.048   4.036   7.459
31070SOL    HW295050   0.963   3.964   7.563
31071SOL     OW95051   9.305  13.755  10.070
31071SOL    HW195052   9.351  13.789  10.147
31071SOL    HW295053   9.246  13.688  10.105
31072SOL     OW95054   4.287   8.837  12.164
31072SOL    HW195055   4.197   8.812  12.142
31072SOL    HW295056   4.329   8.852  12.079
31073SOL     OW95057   5.154   8.432  12.480
31073SOL    HW195058   5.249   8.437  12.479
31073SOL    HW295059   5.134   8.341  12.458
31074SOL     OW95060   8.432   5.132   3.243
31074SOL    HW195061   8.480   5.052   3.262
31074SOL    HW295062   8.394   5.118   3.156
31075SOL     OW95063  12.129  12.294  14.416
31075SOL    HW195064  12.200  12.258  14.362
31075SOL    HW295065  12.160  12.284  14.506
31076SOL     OW95066  14.119   2.561   8.262
31076SOL    HW195067  14.057   2.549   8.334
31076SOL    HW295068  14.067   2.545   8.183
31077SOL     OW95069   1.162   9.192   7.209
31077SOL    HW195070   1.173   9.163   7.119
31077SOL    HW295071   1.085   9.248   7.208
31078SOL     OW95072  10.513   9.153   4.490
31078SOL    HW195073  10.555   9.109   4.416
31078SOL    HW295074  10.459   9.085   4.530
31079SOL     OW95075  12.109   2.256  11.367
31079SOL    HW195076  12.131   2.200  11.292
31079SOL    HW295077  12.174   2.326  11.364
31080SOL     OW95078   6.376   6.777   1.290
31080SOL    HW195079   6.316   6.846   1.264
31080SOL    HW295080   6.432   6.764   1.213
31081SOL     OW95081   4.567  13.196   1.110
31081SOL    HW195082   4.551  13.279   1.066
31081SOL    HW295083   4.552  13.216   1.203
31082SOL     OW95084   2.544   8.188  13.064
31082SOL    HW195085   2.511   8.125  13.000
31082SOL    HW295086   2.478   8.190  13.133
31083SOL     OW95087   1.737  14.398  13.445
31083SOL    HW195088   1.654  14.354  13.465
31083SOL    HW295089   1.802  14.351  13.497
31084SOL     OW95090   0.927   4.833   3.097
31084SOL    HW195091   0.871   4.782   3.155
31084SOL    HW295092   0.991   4.770   3.064
31085SOL     OW95093   3.555   5.173   2.920
31085SOL    HW195094   3.574   5.089   2.961
31085SOL    HW295095   3.519   5.150   2.835
31086SOL     OW95096   8.813  12.094   3.605
31086SOL    HW195097   8.743  12.060   3.660
31086SOL    HW295098   8.861  12.154   3.662
31087SOL     OW95099  11.581   8.098  10.870
31087SOL    HW195100  11.553   8.134  10.786
31087SOL    HW295101  11.506   8.046  10.900
31088SOL     OW95102   4.324   3.513   6.834
31088SOL    HW195103   4.272   3.440   6.866
31088SOL    HW295104   4.308   3.514   6.739
31089SOL     OW95105   8.371   4.535   7.383
31089SOL    HW195106   8.365   4.555   7.289
31089SOL    HW295107   8.281   4.544   7.415
31090SOL     OW95108   6.487  13.277  12.137
31090SOL    HW195109   6.520  13.231  12.060
31090SOL    HW295110   6.478  13.368  12.109
31091SOL     OW95111  13.208   2.535   5.063
31091SOL    HW195112  13.303   2.530   5.061
31091SOL    HW295113  13.180   2.447   5.091
31092SOL     OW95114  11.443   9.657  11.596
31092SOL    HW195115  11.495   9.591  11.642
31092SOL    HW295116  11.367   9.608  11.563
31093SOL     OW95117  12.779  11.983   6.515
31093SOL    HW195118  12.767  11.965   6.608
31093SOL    HW295119  12.872  12.006   6.507
31094SOL     OW95120  10.696   4.670   4.416
31094SOL    HW195121  10.707   4.756   4.374
31094SOL    HW295122  10.627   4.627   4.365
31095SOL     OW95123   2.353   6.722   3.908
31095SOL    HW195124   2.410   6.654   3.945
31095SOL    HW295125   2.382   6.802   3.951
31096SOL     OW95126   5.310   5.636   8.937
31096SOL    HW195127   5.288   5.667   9.025
31096SOL    HW295128   5.320   5.541   8.947
31097SOL     OW95129   9.224   1.493   3.000
31097SOL    HW195130   9.146   1.472   2.949
31097SOL    HW295131   9.291   1.434   2.966
31098SOL     OW95132   9.489   7.382   4.615
31098SOL    HW195133   9.438   7.322   4.560
31098SOL    HW295134   9.454   7.369   4.703
31099SOL     OW95135   5.006  13.868   3.631
31099SOL    HW195136   5.032  13.945   3.682
31099SOL    HW295137   4.917  13.887   3.603
31100SOL     OW95138  11.729  13.523  11.410
31100SOL    HW195139  11.636  13.543  11.421
31100SOL    HW295140  11.769  13.608  11.390
31101SOL     OW95141  13.714   2.816   3.274
31101SOL    HW195142  13.671   2.759   3.338
31101SOL    HW295143  13.654   2.890   3.265
31102SOL     OW95144  11.397  14.458  11.945
31102SOL    HW195145  11.437  14.527  11.997
31102SOL    HW295146  11.313  14.442  11.989
31103SOL     OW95147  12.665   5.952  13.813
31103SOL    HW195148  12.572   5.968  13.832
31103SOL    HW295149  12.711   6.016  13.867
31104SOL     OW95150  11.303   4.961   0.099
31104SOL    HW195151  11.226   4.964   0.042
31104SOL    HW295152  11.343   5.047   0.089
31105SOL     OW95153  13.498  14.422   9.888
31105SOL    HW195154  13.520  14.513   9.906
31105SOL    HW295155  13.505  14.413   9.793
31106SOL     OW95156   3.072   3.082   1.345
31106SOL    HW195157   3.159   3.056   1.315
31106SOL    HW295158   3.012   3.026   1.296
31107SOL     OW95159   5.638  11.181   6.284
31107SOL    HW195160   5.628  11.249   6.218
31107SOL    HW295161   5.729  11.189   6.313
31108SOL     OW95162   5.704   6.243  11.557
31108SOL    HW195163   5.800   6.236  11.552
31108SOL    HW295164   5.680   6.296  11.482
31109SOL     OW95165   9.553   4.208  14.767
31109SOL    HW195166   9.515   4.197  14.680
31109SOL    HW295167   9.552   4.120  14.805
31110SOL     OW95168   2.357   5.642   9.832
31110SOL    HW195169   2.450   5.663   9.831
31110SOL    HW295170   2.338   5.619   9.923
31111SOL     OW95171   7.620   2.894  12.077
31111SOL    HW195172   7.585   2.983  12.083
31111SOL    HW295173   7.677   2.886  12.154
31112SOL     OW95174   4.010   9.867   0.722
31112SOL    HW195175   4.054   9.782   0.731
31112SOL    HW295176   4.081   9.928   0.701
31113SOL     OW95177   1.967  11.155   6.508
31113SOL    HW195178   1.877  11.138   6.478
31113SOL    HW295179   2.019  11.087   6.465
31114SOL     OW95180  12.602   7.095   6.111
31114SOL    HW195181  12.628   7.134   6.194
31114SOL    HW295182  12.506   7.101   6.111
31115SOL     OW95183  12.679   9.561  10.624
31115SOL    HW195184  12.660   9.473  10.592
31115SOL    HW295185  12.732   9.601  10.554
31116SOL     OW95186   0.629   4.265   8.613
31116SOL    HW195187   0.647   4.357   8.594
31116SOL    HW295188   0.640   4.258   8.708
31117SOL     OW95189  10.426  10.389   5.277
31117SOL    HW195190  10.435  10.317   5.214
31117SOL    HW295191  10.448  10.350   5.362
31118SOL     OW95192   6.630  10.805   9.917
31118SOL    HW195193   6.715  10.840   9.889
31118SOL    HW295194   6.580  10.795   9.836
31119SOL     OW95195   2.896   1.887  10.385
31119SOL    HW195196   2.986   1.889  10.418
31119SOL    HW295197   2.884   1.973  10.344
31120SOL     OW95198   3.475  12.869   8.085
31120SOL    HW195199   3.449  12.794   8.032
31120SOL    HW295200   3.394  12.899   8.126
31121SOL     OW95201   9.152   5.199  11.148
31121SOL    HW195202   9.097   5.252  11.206
31121SOL    HW295203   9.102   5.193  11.067
31122SOL     OW95204   9.537  11.481  11.512
31122SOL    HW195205   9.444  11.499  11.523
31122SOL    HW295206   9.567  11.549  11.451
31123SOL     OW95207   1.971   8.923   2.003
31123SOL    HW195208   2.033   8.893   1.937
31123SOL    HW295209   2.025   8.951   2.076
31124SOL     OW95210   9.453   6.452   1.149
31124SOL    HW195211   9.478   6.479   1.061
31124SOL    HW295212   9.436   6.533   1.196
31125SOL     OW95213   7.295  11.792   2.432
31125SOL    HW195214   7.377  11.841   2.424
31125SOL    HW295215   7.311  11.729   2.501
31126SOL     OW95216  13.382  14.242   2.127
31126SOL    HW195217  13.317  14.196   2.179
31126SOL    HW295218  13.342  14.326   2.107
31127SOL     OW95219   8.094   6.276   1.016
31127SOL    HW195220   8.091   6.283   0.921
31127SOL    HW295221   8.103   6.182   1.033
31128SOL     OW95222   5.480  10.203  12.296
31128SOL    HW195223   5.567  10.214  12.332
31128SOL    HW295224   5.446  10.293  12.288
31129SOL     OW95225  14.787   8.882   9.158
31129SOL    HW195226  14.777   8.794   9.121
31129SOL    HW295227  14.881   8.889   9.177
31130SOL     OW95228  12.369   8.456   1.847
31130SOL    HW195229  12.427   8.447   1.772
31130SOL    HW295230  12.282   8.435   1.813
31131SOL     OW95231  13.610  14.662  11.064
31131SOL    HW195232  13.673  14.605  11.108
31131SOL    HW295233  13.533  14.608  11.051
31132SOL     OW95234   2.157   2.870  10.012
31132SOL    HW195235   2.133   2.794  10.065
31132SOL    HW295236   2.251   2.862   9.999
31133SOL     OW95237   5.479   1.712  10.326
31133SOL    HW195238   5.554   1.728  10.383
31133SOL    HW295239   5.442   1.799  10.311
31134SOL     OW95240   0.764  10.660  14.179
31134SOL    HW195241   0.754  10.606  14.258
31134SOL    HW295242   0.689  10.721  14.183
31135SOL     OW95243   7.500   9.240  13.636
31135SOL    HW195244   7.410   9.238  13.670
31135SOL    HW295245   7.547   9.296  13.698
31136SOL     OW95246  13.030   1.232   4.056
31136SOL    HW195247  13.058   1.164   3.995
31136SOL    HW295248  12.935   1.220   4.063
31137SOL     OW95249   4.061   1.284  14.041
31137SOL    HW195250   4.022   1.197  14.046
31137SOL    HW295251   4.013   1.336  14.104
31138SOL     OW95252   9.195  12.888   5.348
31138SOL    HW195253   9.150  12.901   5.264
31138SOL    HW295254   9.132  12.839   5.402
31139SOL     OW95255   8.764   3.344   4.763
31139SOL    HW195256   8.728   3.430   4.743
31139SOL    HW295257   8.694   3.298   4.810
31140SOL     OW95258   9.048   4.328   8.598
31140SOL    HW195259   8.958   4.355   8.615
31140SOL    HW295260   9.050   4.306   8.505
31141SOL     OW95261   5.329   6.078  14.468
31141SOL    HW195262   5.357   6.103  14.380
31141SOL    HW295263   5.381   6.133  14.527
31142SOL     OW95264   3.352   8.930  13.792
31142SOL    HW195265   3.305   9.000  13.837
31142SOL    HW295266   3.444   8.959  13.793
31143SOL     OW95267  12.324   7.109   6.045
31143SOL    HW195268  12.258   7.090   6.112
31143SOL    HW295269  12.292   7.066   5.966
31144SOL     OW95270   3.852   4.695   7.628
31144SOL    HW195271   3.765   4.696   7.668
31144SOL    HW295272   3.834   4.696   7.533
31145SOL     OW95273   6.519   9.338   3.941
31145SOL    HW195274   6.573   9.373   3.870
31145SOL    HW295275   6.481   9.416   3.983
31146SOL     OW95276  10.797   5.732  13.539
31146SOL    HW195277  10.816   5.643  13.510
31146SOL    HW295278  10.749   5.771  13.466
31147SOL     OW95279  10.075   2.844  12.827
31147SOL    HW195280  10.043   2.774  12.770
31147SOL    HW295281  10.167   2.854  12.802
31148SOL     OW95282   5.735   8.871  13.001
31148SOL    HW195283   5.815   8.824  12.975
31148SOL    HW295284   5.691   8.811  13.062
31149SOL     OW95285   3.167  12.103   9.173
31149SOL    HW195286   3.131  12.125   9.088
31149SOL    HW295287   3.186  12.188   9.214
31150SOL     OW95288   8.088  14.867  13.596
31150SOL    HW195289   8.086   0.066  13.546
31150SOL    HW295290   8.073  14.798  13.531
31151SOL     OW95291  10.969   6.645  10.724
31151SOL    HW195292  11.037   6.661  10.790
31151SOL    HW295293  10.974   6.720  10.666
31152SOL     OW95294   9.629  14.753   0.156
31152SOL    HW195295   9.619  14.725   0.065
31152SOL    HW295296   9.671  14.679   0.199
31153SOL     OW95297  14.468   3.118   1.948
31153SOL    HW195298  14.467   3.107   1.853
31153SOL    HW295299  14.476   3.213   1.961
31154SOL     OW95300   3.213  10.632   2.988
31154SOL    HW195301   3.141  10.606   2.931
31154SOL    HW295302   3.284  10.656   2.928
31155SOL     OW95303   0.080   7.285   4.814
31155SOL    HW195304   0.071   7.347   4.886
31155SOL    HW295305  14.875   7.282   4.774
31156SOL     OW95306   3.836   9.662   5.165
31156SOL    HW195307   3.814   9.577   5.202
31156SOL    HW295308   3.784   9.667   5.085
31157SOL     OW95309   3.059  12.015   5.523
31157SOL    HW195310   2.988  12.042   5.582
31157SOL    HW295311   3.094  12.098   5.489
31158SOL     OW95312   2.285   9.957   9.590
31158SOL    HW195313   2.203   9.935   9.545
31158SOL    HW295314   2.294  10.051   9.580
31159SOL     OW95315   3.936  13.672  11.455
31159SOL    HW195316   3.864  13.726  11.488
31159SOL    HW295317   3.992  13.657  11.530
31160SOL     OW95318  13.976   6.171   9.113
31160SOL    HW195319  13.949   6.262   9.107
31160SOL    HW295320  14.011   6.150   9.026
31161SOL     OW95321   1.435  13.458  13.062
31161SOL    HW195322   1.458  13.550  13.054
31161SOL    HW295323   1.519  13.413  13.069
31162SOL     OW95324   9.984   5.353   3.214
31162SOL    HW195325   9.898   5.331   3.177
31162SOL    HW295326  10.016   5.270   3.250
31163SOL     OW95327   0.528   6.913   4.428
31163SOL    HW195328   0.570   6.839   4.386
31163SOL    HW295329   0.483   6.875   4.504
31164SOL     OW95330   4.201   1.801   4.578
31164SOL    HW195331   4.191   1.855   4.656
31164SOL    HW295332   4.182   1.712   4.607
31165SOL     OW95333   9.657   1.404   4.304
31165SOL    HW195334   9.562   1.398   4.301
31165SOL    HW295335   9.676   1.495   4.282
31166SOL     OW95336   9.553   3.344   7.214
31166SOL    HW195337   9.469   3.383   7.191
31166SOL    HW295338   9.608   3.356   7.137
31167SOL     OW95339   4.562   0.902   6.073
31167SOL    HW195340   4.489   0.957   6.045
31167SOL    HW295341   4.632   0.964   6.092
31168SOL     OW95342   8.900   7.607   8.594
31168SOL    HW195343   8.870   7.657   8.671
31168SOL    HW295344   8.860   7.521   8.605
31169SOL     OW95345   9.427   1.210   0.464
31169SOL    HW195346   9.439   1.115   0.466
31169SOL    HW295347   9.334   1.222   0.449
31170SOL     OW95348   2.349   1.503  14.374
31170SOL    HW195349   2.396   1.550  14.442
31170SOL    HW295350   2.407   1.431  14.350
31171SOL     OW95351   5.524   3.502   8.368
31171SOL    HW195352   5.445   3.463   8.329
31171SOL    HW295353   5.594   3.442   8.345
31172SOL     OW95354   3.002  11.010   2.824
31172SOL    HW195355   3.003  11.051   2.911
31172SOL    HW295356   2.919  10.963   2.821
31173SOL     OW95357   9.901   4.009   5.946
31173SOL    HW195358   9.862   3.954   6.014
31173SOL    HW295359   9.937   4.084   5.993
31174SOL     OW95360   6.827   3.239   5.141
31174SOL    HW195361   6.824   3.322   5.094
31174SOL    HW295362   6.917   3.209   5.130
31175SOL     OW95363  11.644   9.936   9.601
31175SOL    HW195364  11.603   9.905   9.520
31175SOL    HW295365  11.711   9.870   9.619
31176SOL     OW95366  11.696  12.392   7.594
31176SOL    HW195367  11.644  12.454   7.645
31176SOL    HW295368  11.753  12.447   7.540
31177SOL     OW95369  12.049   8.852   9.763
31177SOL    HW195370  11.970   8.866   9.815
31177SOL    HW295371  12.048   8.758   9.744
31178SOL     OW95372   7.860  11.547  10.145
31178SOL    HW195373   7.797  11.615  10.169
31178SOL    HW295374   7.933  11.560  10.206
31179SOL     OW95375   3.594   3.098  14.490
31179SOL    HW195376   3.660   3.109  14.559
31179SOL    HW295377   3.533   3.034  14.527
31180SOL     OW95378  10.881   8.275   9.822
31180SOL    HW195379  10.925   8.197   9.854
31180SOL    HW295380  10.852   8.320   9.901
31181SOL     OW95381  10.661  14.200   4.398
31181SOL    HW195382  10.733  14.140   4.421
31181SOL    HW295383  10.683  14.231   4.311
31182SOL     OW95384   1.724   6.271  10.895
31182SOL    HW195385   1.728   6.284  10.800
31182SOL    HW295386   1.700   6.179  10.906
31183SOL     OW95387  13.210   0.089   2.204
31183SOL    HW195388  13.155   0.167   2.218
31183SOL    HW295389  13.290   0.107   2.254
31184SOL     OW95390   3.292   4.379   6.473
31184SOL    HW195391   3.253   4.403   6.557
31184SOL    HW295392   3.378   4.342   6.497
31185SOL     OW95393  12.819   3.876   2.634
31185SOL    HW195394  12.801   3.864   2.541
31185SOL    HW295395  12.887   3.943   2.638
31186SOL     OW95396   8.824  14.395  11.604
31186SOL    HW195397   8.878  14.326  11.566
31186SOL    HW295398   8.830  14.381  11.699
31187SOL     OW95399   9.457   3.469   4.549
31187SOL    HW195400   9.504   3.485   4.467
31187SOL    HW295401   9.526   3.448   4.612
31188SOL     OW95402  11.532  10.992   1.370
31188SOL    HW195403  11.519  10.904   1.335
31188SOL    HW295404  11.507  11.050   1.297
31189SOL     OW95405   6.167  11.593  11.806
31189SOL    HW195406   6.074  11.586  11.826
31189SOL    HW295407   6.201  11.652  11.873
31190SOL     OW95408  10.793   4.884   3.276
31190SOL    HW195409  10.714   4.936   3.264
31190SOL    HW295410  10.805   4.880   3.371
31191SOL     OW95411  11.520   7.743  12.780
31191SOL    HW195412  11.585   7.732  12.850
31191SOL    HW295413  11.564   7.712  12.701
31192SOL     OW95414   0.680  11.529  10.051
31192SOL    HW195415   0.774  11.524  10.034
31192SOL    HW295416   0.673  11.526  10.146
31193SOL     OW95417  11.309   2.146   1.049
31193SOL    HW195418  11.282   2.235   1.074
31193SOL    HW295419  11.227   2.098   1.037
31194SOL     OW95420   7.873  11.616   7.664
31194SOL    HW195421   7.892  11.643   7.754
31194SOL    HW295422   7.808  11.546   7.673
31195SOL     OW95423   0.103   8.245   7.150
31195SOL    HW195424   0.014   8.213   7.167
31195SOL    HW295425   0.102   8.269   7.057
31196SOL     OW95426   9.306   4.932  11.750
31196SOL    HW195427   9.227   4.973  11.785
31196SOL    HW295428   9.342   4.998  11.691
31197SOL     OW95429  11.667   5.983  14.683
31197SOL    HW195430  11.751   5.957  14.722
31197SOL    HW295431  11.690   6.050  14.619
31198SOL     OW95432   9.294   6.428   1.821
31198SOL    HW195433   9.294   6.356   1.758
31198SOL    HW295434   9.343   6.498   1.778
31199SOL     OW95435  12.105   5.502  13.475
31199SOL    HW195436  12.170   5.468  13.537
31199SOL    HW295437  12.142   5.485  13.389
31200SOL     OW95438   6.824   4.506  14.022
31200SOL    HW195439   6.823   4.569  13.950
31200SOL    HW295440   6.734   4.505  14.055
31201SOL     OW95441   8.026   7.284   1.217
31201SOL    HW195442   7.968   7.314   1.287
31201SOL    HW295443   8.044   7.192   1.239
31202SOL     OW95444   2.258  12.151  12.969
31202SOL    HW195445   2.283  12.114  13.053
31202SOL    HW295446   2.340  12.156  12.919
31203SOL     OW95447   7.725  14.070  13.939
31203SOL    HW195448   7.646  14.104  13.979
31203SOL    HW295449   7.703  14.060  13.847
31204SOL     OW95450   0.144  10.349   6.315
31204SOL    HW195451   0.200  10.402   6.372
31204SOL    HW295452   0.086  10.412   6.274
31205SOL     OW95453   9.737  11.334  14.081
31205SOL    HW195454   9.669  11.377  14.029
31205SOL    HW295455   9.693  11.311  14.162
31206SOL     OW95456  13.691  13.901  11.028
31206SOL    HW195457  13.708  13.858  11.112
31206SOL    HW295458  13.777  13.931  10.999
31207SOL     OW95459   6.885   5.039   2.741
31207SOL    HW195460   6.839   5.071   2.819
31207SOL    HW295461   6.815   5.013   2.681
31208SOL     OW95462   7.493   4.599  11.436
31208SOL    HW195463   7.407   4.560  11.421
31208SOL    HW295464   7.547   4.527  11.469
31209SOL     OW95465  13.015   4.788   1.351
31209SOL    HW195466  13.104   4.795   1.386
31209SOL    HW295467  13.023   4.813   1.259
31210SOL     OW95468   0.195  13.226   0.008
31210SOL    HW195469   0.263  13.294   0.009
31210SOL    HW295470   0.113  13.274   0.022
31211SOL     OW95471  11.868  11.924   9.249
31211SOL    HW195472  11.839  11.982   9.179
31211SOL    HW295473  11.964  11.928   9.246
31212SOL     OW95474   9.984   8.345   2.881
31212SOL    HW195475   9.908   8.403   2.883
31212SOL    HW295476   9.987   8.313   2.791
31213SOL     OW95477  12.618  14.398   1.614
31213SOL    HW195478  12.668  14.324   1.580
31213SOL    HW295479  12.538  14.399   1.561
31214SOL     OW95480   6.074   6.044   6.016
31214SOL    HW195481   6.153   5.999   6.047
31214SOL    HW295482   6.013   5.974   5.995
31215SOL     OW95483   1.074   4.175   1.494
31215SOL    HW195484   1.096   4.204   1.582
31215SOL    HW295485   1.078   4.254   1.440
31216SOL     OW95486   4.620   8.048   4.387
31216SOL    HW195487   4.569   8.121   4.353
31216SOL    HW295488   4.711   8.074   4.372
31217SOL     OW95489  12.100   9.068   9.622
31217SOL    HW195490  12.068   8.987   9.663
31217SOL    HW295491  12.193   9.053   9.607
31218SOL     OW95492  14.245  10.489  12.481
31218SOL    HW195493  14.188  10.513  12.553
31218SOL    HW295494  14.334  10.494  12.517
31219SOL     OW95495   7.955  10.512   9.782
31219SOL    HW195496   7.949  10.584   9.719
31219SOL    HW295497   7.864  10.490   9.802
31220SOL     OW95498  12.345   2.517   8.685
31220SOL    HW195499  12.338   2.482   8.774
31220SOL    HW295500  12.338   2.612   8.696
31221SOL     OW95501   8.668   9.422   6.177
31221SOL    HW195502   8.632   9.505   6.209
31221SOL    HW295503   8.593   9.377   6.138
31222SOL     OW95504  14.193  13.317   3.585
31222SOL    HW195505  14.165  13.264   3.660
31222SOL    HW295506  14.132  13.391   3.584
31223SOL     OW95507  13.267   0.071   7.893
31223SOL    HW195508  13.307   0.079   7.980
31223SOL    HW295509  13.324   0.122   7.836
31224SOL     OW95510  12.130   1.474   5.388
31224SOL    HW195511  12.168   1.390   5.362
31224SOL    HW295512  12.062   1.450   5.452
31225SOL     OW95513   9.476   2.066  11.100
31225SOL    HW195514   9.491   2.080  11.006
31225SOL    HW295515   9.394   2.017  11.104
31226SOL     OW95516   7.225   3.837   2.649
31226SOL    HW195517   7.166   3.833   2.725
31226SOL    HW295518   7.300   3.889   2.679
31227SOL     OW95519   0.319  12.463   8.482
31227SOL    HW195520   0.325  12.459   8.387
31227SOL    HW295521   0.231  12.496   8.499
31228SOL     OW95522   0.745   8.236   1.173
31228SOL    HW195523   0.760   8.173   1.244
31228SOL    HW295524   0.832   8.272   1.154
31229SOL     OW95525   9.250   8.701   1.219
31229SOL    HW195526   9.173   8.737   1.264
31229SOL    HW295527   9.232   8.607   1.213
31230SOL     OW95528   6.993   3.329  11.848
31230SOL    HW195529   6.991   3.414  11.893
31230SOL    HW295530   6.977   3.351  11.756
31231SOL     OW95531  12.115   4.745   7.808
31231SOL    HW195532  12.199   4.736   7.762
31231SOL    HW295533  12.088   4.835   7.789
31232SOL     OW95534   7.858   6.076  13.035
31232SOL    HW195535   7.812   6.114  12.960
31232SOL    HW295536   7.800   6.005  13.064
31233SOL     OW95537   1.187   1.791  10.152
31233SOL    HW195538   1.183   1.724  10.084
31233SOL    HW295539   1.242   1.752  10.220
31234SOL     OW95540   6.157   0.036  12.161
31234SOL    HW195541   6.192   0.049  12.073
31234SOL    HW295542   6.219   0.079  12.219
31235SOL     OW95543  11.492  13.066  11.646
31235SOL    HW195544  11.524  12.998  11.587
31235SOL    HW295545  11.561  13.132  11.646
31236SOL     OW95546  12.136   2.593  11.567
31236SOL    HW195547  12.080   2.606  11.643
31236SOL    HW295548  12.086   2.535  11.509
31237SOL     OW95549  10.355   8.514   1.534
31237SOL    HW195550  10.377   8.500   1.626
31237SOL    HW295551  10.260   8.501   1.530
31238SOL     OW95552   1.482  14.214   5.148
31238SOL    HW195553   1.559  14.249   5.191
31238SOL    HW295554   1.439  14.290   5.109
31239SOL     OW95555   0.458   7.323   0.623
31239SOL    HW195556   0.485   7.258   0.558
31239SOL    HW295557   0.538   7.368   0.648
31240SOL     OW95558   2.523  11.321   0.645
31240SOL    HW195559   2.469  11.400   0.643
31240SOL    HW295560   2.605  11.350   0.685
31241SOL     OW95561   8.202   8.495   4.669
31241SOL    HW195562   8.108   8.499   4.687
31241SOL    HW295563   8.238   8.571   4.715
31242SOL     OW95564   3.795  11.935  11.333
31242SOL    HW195565   3.710  11.892  11.324
31242SOL    HW295566   3.786  11.990  11.411
31243SOL     OW95567  10.470  10.500   6.055
31243SOL    HW195568  10.555  10.544   6.058
31243SOL    HW295569  10.459  10.475   5.963
31244SOL     OW95570   3.200   1.666   9.603
31244SOL    HW195571   3.192   1.572   9.589
31244SOL    HW295572   3.244   1.674   9.688
31245SOL     OW95573  10.233  11.486  12.591
31245SOL    HW195574  10.176  11.561  12.612
31245SOL    HW295575  10.265  11.457  12.677
31246SOL     OW95576   8.508   0.803   7.158
31246SOL    HW195577   8.461   0.882   7.184
31246SOL    HW295578   8.455   0.765   7.088
31247SOL     OW95579   1.402   3.157   3.083
31247SOL    HW195580   1.441   3.107   3.154
31247SOL    HW295581   1.436   3.116   3.003
31248SOL     OW95582   2.103  12.270   2.470
31248SOL    HW195583   2.069  12.348   2.426
31248SOL    HW295584   2.072  12.277   2.560
31249SOL     OW95585   1.438  10.575   6.549
31249SOL    HW195586   1.430  10.570   6.644
31249SOL    HW295587   1.349  10.589   6.518
31250SOL     OW95588   5.571  13.760   5.553
31250SOL    HW195589   5.659  13.746   5.518
31250SOL    HW295590   5.542  13.841   5.512
31251SOL     OW95591   7.539   0.883  10.430
31251SOL    HW195592   7.587   0.822  10.486
31251SOL    HW295593   7.482   0.931  10.490
31252SOL     OW95594   2.902  12.452   9.743
31252SOL    HW195595   2.965  12.389   9.778
31252SOL    HW295596   2.949  12.536   9.746
31253SOL     OW95597   8.874   3.855   4.680
31253SOL    HW195598   8.789   3.879   4.644
31253SOL    HW295599   8.911   3.793   4.617
31254SOL     OW95600  12.779   7.467   6.993
31254SOL    HW195601  12.875   7.475   6.992
31254SOL    HW295602  12.762   7.393   7.051
31255SOL     OW95603   3.656   5.569   5.672
31255SOL    HW195604   3.592   5.576   5.742
31255SOL    HW295605   3.619   5.505   5.611
31256SOL     OW95606  13.623   1.282   8.144
31256SOL    HW195607  13.666   1.368   8.142
31256SOL    HW295608  13.541   1.295   8.097
31257SOL     OW95609   2.943  11.278   8.611
31257SOL    HW195610   2.989  11.263   8.529
31257SOL    HW295611   2.860  11.231   8.600
31258SOL     OW95612  11.476   8.290  13.249
31258SOL    HW195613  11.448   8.307  13.339
31258SOL    HW295614  11.554   8.345  13.238
31259SOL     OW95615  12.367  14.413   7.660
31259SOL    HW195616  12.352  14.346   7.594
31259SOL    HW295617  12.307  14.390   7.731
31260SOL     OW95618   2.192   8.827   6.417
31260SOL    HW195619   2.161   8.745   6.378
31260SOL    HW295620   2.113   8.865   6.457
31261SOL     OW95621  13.254   3.815  10.062
31261SOL    HW195622  13.318   3.885  10.053
31261SOL    HW295623  13.176   3.848  10.017
31262SOL     OW95624   3.081   5.478   3.638
31262SOL    HW195625   3.172   5.450   3.647
31262SOL    HW295626   3.034   5.399   3.612
31263SOL     OW95627   9.078  10.520  10.615
31263SOL    HW195628   8.994  10.474  10.611
31263SOL    HW295629   9.055  10.612  10.608
31264SOL     OW95630   0.090   5.257  12.189
31264SOL    HW195631   0.105   5.295  12.102
31264SOL    HW295632   0.121   5.167  12.181
31265SOL     OW95633   2.880  11.744   9.080
31265SOL    HW195634   2.872  11.838   9.100
31265SOL    HW295635   2.954  11.714   9.132
31266SOL     OW95636  11.222  13.086   4.669
31266SOL    HW195637  11.206  13.053   4.758
31266SOL    HW295638  11.317  13.091   4.662
31267SOL     OW95639  14.205  12.521  13.150
31267SOL    HW195640  14.273  12.555  13.092
31267SOL    HW295641  14.126  12.519  13.095
31268SOL     OW95642  10.114  13.748   8.254
31268SOL    HW195643  10.129  13.742   8.348
31268SOL    HW295644  10.076  13.835   8.241
31269SOL     OW95645  12.842   9.372   4.800
31269SOL    HW195646  12.865   9.402   4.888
31269SOL    HW295647  12.926   9.346   4.762
31270SOL     OW95648   7.987   6.750   0.888
31270SOL    HW195649   7.899   6.721   0.914
31270SOL    HW295650   7.981   6.757   0.792
31271SOL     OW95651   5.565   4.758   0.346
31271SOL    HW195652   5.556   4.753   0.441
31271SOL    HW295653   5.481   4.794   0.316
31272SOL     OW95654  10.300  14.500   0.778
31272SOL    HW195655  10.229  14.446   0.814
31272SOL    HW295656  10.372  14.439   0.766
31273SOL     OW95657   2.266  12.114   0.049
31273SOL    HW195658   2.213  12.036   0.065
31273SOL    HW295659   2.275  12.155   0.135
31274SOL     OW95660   3.443   2.604   6.950
31274SOL    HW195661   3.390   2.625   6.873
31274SOL    HW295662   3.489   2.685   6.971
31275SOL     OW95663   2.775   5.069  13.716
31275SOL    HW195664   2.811   5.060  13.628
31275SOL    HW295665   2.848   5.101  13.769
31276SOL     OW95666   1.748   6.078  14.574
31276SOL    HW195667   1.685   6.035  14.516
31276SOL    HW295668   1.822   6.018  14.577
31277SOL     OW95669   2.716   3.807  13.030
31277SOL    HW195670   2.746   3.896  13.008
31277SOL    HW295671   2.707   3.808  13.125
31278SOL     OW95672   8.833   4.811  12.166
31278SOL    HW195673   8.803   4.778  12.081
31278SOL    HW295674   8.919   4.770  12.178
31279SOL     OW95675  13.211  12.669   9.060
31279SOL    HW195676  13.303  12.670   9.086
31279SOL    HW295677  13.192  12.758   9.031
31280SOL     OW95678   4.602   1.474  12.449
31280SOL    HW195679   4.529   1.491  12.508
31280SOL    HW295680   4.637   1.389  12.478
31281SOL     OW95681   5.645  11.714   0.690
31281SOL    HW195682   5.566  11.702   0.638
31281SOL    HW295683   5.639  11.804   0.722
31282SOL     OW95684   7.035   2.800   5.125
31282SOL    HW195685   7.043   2.858   5.201
31282SOL    HW295686   6.962   2.837   5.075
31283SOL     OW95687   8.865  10.314   5.915
31283SOL    HW195688   8.894  10.224   5.931
31283SOL    HW295689   8.789  10.304   5.857
31284SOL     OW95690  12.019  11.320  14.834
31284SOL    HW195691  12.074  11.306   0.029
31284SOL    HW295692  12.077  11.305  14.759
31285SOL     OW95693  10.772   4.780  14.036
31285SOL    HW195694  10.739   4.855  13.986
31285SOL    HW295695  10.703   4.760  14.098
31286SOL     OW95696  13.554  13.238   0.211
31286SOL    HW195697  13.503  13.186   0.149
31286SOL    HW295698  13.562  13.324   0.170
31287SOL     OW95699   1.615   1.628  12.314
31287SOL    HW195700   1.658   1.548  12.341
31287SOL    HW295701   1.678   1.698  12.332
31288SOL     OW95702   3.929   5.529  11.900
31288SOL    HW195703   3.887   5.570  11.976
31288SOL    HW295704   3.855   5.501  11.845
31289SOL     OW95705   3.757  13.936   1.659
31289SOL    HW195706   3.720  13.924   1.571
31289SOL    HW295707   3.839  13.984   1.644
31290SOL     OW95708   6.929  10.976   1.152
31290SOL    HW195709   6.843  11.011   1.130
31290SOL    HW295710   6.975  11.049   1.194
31291SOL     OW95711   1.775  10.019  13.997
31291SOL    HW195712   1.686  10.032  14.031
31291SOL    HW295713   1.829  10.077  14.051
31292SOL     OW95714   1.746  10.366   9.984
31292SOL    HW195715   1.782  10.284   9.950
31292SOL    HW295716   1.771  10.366  10.076
31293SOL     OW95717  11.009  10.171   1.153
31293SOL    HW195718  11.104  10.159   1.147
31293SOL    HW295719  10.997  10.247   1.209
31294SOL     OW95720  13.686   4.352  10.926
31294SOL    HW195721  13.677   4.261  10.955
31294SOL    HW295722  13.605   4.369  10.877
31295SOL     OW95723   5.768  14.551   6.956
31295SOL    HW195724   5.850  14.584   6.993
31295SOL    HW295725   5.744  14.616   6.890
31296SOL     OW95726   7.849   1.711   9.510
31296SOL    HW195727   7.821   1.754   9.430
31296SOL    HW295728   7.771   1.709   9.565
31297SOL     OW95729   1.408   9.722  12.185
31297SOL    HW195730   1.429   9.691  12.097
31297SOL    HW295731   1.493   9.726  12.229
31298SOL     OW95732   8.342   9.491   3.434
31298SOL    HW195733   8.416   9.498   3.495
31298SOL    HW295734   8.281   9.559   3.462
31299SOL     OW95735  14.341   4.012   0.654
31299SOL    HW195736  14.312   4.103   0.669
31299SOL    HW295737  14.264   3.959   0.674
31300SOL     OW95738   7.534   9.019  10.192
31300SOL    HW195739   7.599   8.949  10.190
31300SOL    HW295740   7.449   8.974  10.193
31301SOL     OW95741   3.493   8.388   4.810
31301SOL    HW195742   3.574   8.340   4.831
31301SOL    HW295743   3.524   8.471   4.773
31302SOL     OW95744   8.851   4.922   0.120
31302SOL    HW195745   8.813   4.909   0.033
31302SOL    HW295746   8.778   4.907   0.180
31303SOL     OW95747   3.170   2.400   5.795
31303SOL    HW195748   3.242   2.349   5.759
31303SOL    HW295749   3.114   2.335   5.838
31304SOL     OW95750  14.554  11.030   6.008
31304SOL    HW195751  14.593  11.019   6.095
31304SOL    HW295752  14.460  11.029   6.023
31305SOL     OW95753   4.479   4.404   2.731
31305SOL    HW195754   4.504   4.382   2.642
31305SOL    HW295755   4.511   4.493   2.744
31306SOL     OW95756  14.158   1.751   9.434
31306SOL    HW195757  14.158   1.661   9.466
31306SOL    HW295758  14.127   1.744   9.343
31307SOL     OW95759   7.082   4.537   8.458
31307SOL    HW195760   7.031   4.455   8.461
31307SOL    HW295761   7.058   4.576   8.373
31308SOL     OW95762   1.278  12.839   9.167
31308SOL    HW195763   1.331  12.769   9.204
31308SOL    HW295764   1.239  12.801   9.089
31309SOL     OW95765   7.200   2.800   0.142
31309SOL    HW195766   7.129   2.864   0.148
31309SOL    HW295767   7.162   2.728   0.092
31310SOL     OW95768  10.898   9.847  13.111
31310SOL    HW195769  10.957   9.810  13.176
31310SOL    HW295770  10.927   9.938  13.101
31311SOL     OW95771   8.371  12.761   1.538
31311SOL    HW195772   8.390  12.709   1.615
31311SOL    HW295773   8.398  12.850   1.561
31312SOL     OW95774   6.375  12.331   0.598
31312SOL    HW195775   6.281  12.328   0.581
31312SOL    HW295776   6.402  12.239   0.601
31313SOL     OW95777  12.211  12.263   5.118
31313SOL    HW195778  12.200  12.237   5.026
31313SOL    HW295779  12.305  12.256   5.133
31314SOL     OW95780   5.569   7.172   9.392
31314SOL    HW195781   5.585   7.211   9.306
31314SOL    HW295782   5.654   7.137   9.419
31315SOL     OW95783   8.818   4.002   7.563
31315SOL    HW195784   8.830   4.069   7.630
31315SOL    HW295785   8.771   3.931   7.608
31316SOL     OW95786   4.911   2.864   0.967
31316SOL    HW195787   5.000   2.895   0.987
31316SOL    HW295788   4.873   2.842   1.052
31317SOL     OW95789   7.812   8.630   0.413
31317SOL    HW195790   7.724   8.614   0.447
31317SOL    HW295791   7.863   8.554   0.441
31318SOL     OW95792   7.642   5.701   8.892
31318SOL    HW195793   7.625   5.627   8.833
31318SOL    HW295794   7.726   5.735   8.863
31319SOL     OW95795   0.114  10.293   8.005
31319SOL    HW195796   0.158  10.248   7.933
31319SOL    HW295797   0.179  10.354   8.038
31320SOL     OW95798   8.747  11.030   6.616
31320SOL    HW195799   8.727  11.035   6.709
31320SOL    HW295800   8.680  10.972   6.580
31321SOL     OW95801  10.099   8.201   7.574
31321SOL    HW195802  10.017   8.161   7.602
31321SOL    HW295803  10.107   8.280   7.629
31322SOL     OW95804   4.885   4.187  13.455
31322SOL    HW195805   4.827   4.208  13.529
31322SOL    HW295806   4.854   4.243  13.384
31323SOL     OW95807   9.196   6.923  12.099
31323SOL    HW195808   9.189   6.882  12.186
31323SOL    HW295809   9.106   6.936  12.071
31324SOL     OW95810   5.262  12.414  14.555
31324SOL    HW195811   5.344  12.365  14.552
31324SOL    HW295812   5.286  12.496  14.600
31325SOL     OW95813  10.142   3.115   5.700
31325SOL    HW195814  10.071   3.065   5.741
31325SOL    HW295815  10.130   3.204   5.732
31326SOL     OW95816   4.913  13.968   3.967
31326SOL    HW195817   4.998  14.012   3.973
31326SOL    HW295818   4.874  14.000   3.886
31327SOL     OW95819   9.332   2.092  12.638
31327SOL    HW195820   9.420   2.057  12.655
31327SOL    HW295821   9.274   2.038  12.692
31328SOL     OW95822  11.297   7.832  13.973
31328SOL    HW195823  11.292   7.917  13.929
31328SOL    HW295824  11.347   7.777  13.913
31329SOL     OW95825   2.512   6.973   7.895
31329SOL    HW195826   2.542   6.969   7.985
31329SOL    HW295827   2.444   7.041   7.895
31330SOL     OW95828   5.018   6.856   5.167
31330SOL    HW195829   4.965   6.903   5.231
31330SOL    HW295830   5.035   6.920   5.098
31331SOL     OW95831   0.507   0.920   8.546
31331SOL    HW195832   0.441   0.970   8.497
31331SOL    HW295833   0.590   0.964   8.526
31332SOL     OW95834  10.705  13.241   0.190
31332SOL    HW195835  10.744  13.275   0.110
31332SOL    HW295836  10.715  13.146   0.184
31333SOL     OW95837   6.750   2.750   6.143
31333SOL    HW195838   6.674   2.707   6.104
31333SOL    HW295839   6.755   2.835   6.099
31334SOL     OW95840   9.618   3.604   6.217
31334SOL    HW195841   9.523   3.602   6.232
31334SOL    HW295842   9.655   3.630   6.302
31335SOL     OW95843   8.120   9.014  13.590
31335SOL    HW195844   8.026   8.999  13.595
31335SOL    HW295845   8.156   8.970  13.667
31336SOL     OW95846  10.321  13.138   6.474
31336SOL    HW195847  10.386  13.194   6.517
31336SOL    HW295848  10.335  13.153   6.381
31337SOL     OW95849   8.564   3.423   7.832
31337SOL    HW195850   8.615   3.389   7.759
31337SOL    HW295851   8.599   3.378   7.909
31338SOL     OW95852   6.913  10.479   4.286
31338SOL    HW195853   6.904  10.390   4.253
31338SOL    HW295854   6.988  10.475   4.346
31339SOL     OW95855   1.572   2.809   4.140
31339SOL    HW195856   1.662   2.780   4.155
31339SOL    HW295857   1.518   2.745   4.187
31340SOL     OW95858  11.202   9.573   9.846
31340SOL    HW195859  11.205   9.562   9.941
31340SOL    HW295860  11.244   9.658   9.830
31341SOL     OW95861   6.125   0.534  14.389
31341SOL    HW195862   6.113   0.440  14.396
31341SOL    HW295863   6.085   0.570  14.468
31342SOL     OW95864  10.433   4.181  13.766
31342SOL    HW195865  10.343   4.203  13.740
31342SOL    HW295866  10.423   4.103  13.822
31343SOL     OW95867  13.412   6.753   8.391
31343SOL    HW195868  13.494   6.771   8.346
31343SOL    HW295869  13.344   6.770   8.326
31344SOL     OW95870   6.543   6.176   0.517
31344SOL    HW195871   6.606   6.227   0.466
31344SOL    HW295872   6.586   6.092   0.531
31345SOL     OW95873   9.497   6.846  11.611
31345SOL    HW195874   9.468   6.763  11.573
31345SOL    HW295875   9.421   6.877  11.661
31346SOL     OW95876   4.433   6.442  11.872
31346SOL    HW195877   4.483   6.523  11.863
31346SOL    HW295878   4.499   6.373  11.862
31347SOL     OW95879   2.409  10.001   7.684
31347SOL    HW195880   2.496  10.018   7.721
31347SOL    HW295881   2.402  10.061   7.610
31348SOL     OW95882  12.346  12.194  11.795
31348SOL    HW195883  12.314  12.259  11.732
31348SOL    HW295884  12.441  12.193  11.781
31349SOL     OW95885   0.511   1.499  14.005
31349SOL    HW195886   0.518   1.595  14.010
31349SOL    HW295887   0.468   1.483  13.921
31350SOL     OW95888   6.392   9.354   6.739
31350SOL    HW195889   6.375   9.384   6.829
31350SOL    HW295890   6.308   9.318   6.710
31351SOL     OW95891  10.091  11.827   7.100
31351SOL    HW195892  10.160  11.883   7.136
31351SOL    HW295893  10.033  11.809   7.174
31352SOL     OW95894  12.672   3.137  12.510
31352SOL    HW195895  12.705   3.051  12.482
31352SOL    HW295896  12.584   3.119  12.544
31353SOL     OW95897   4.246  11.234   0.200
31353SOL    HW195898   4.205  11.162   0.151
31353SOL    HW295899   4.184  11.306   0.192
31354SOL     OW95900  13.563   8.668  12.085
31354SOL    HW195901  13.502   8.702  12.151
31354SOL    HW295902  13.589   8.745  12.034
31355SOL     OW95903   9.413   7.616   3.347
31355SOL    HW195904   9.455   7.702   3.358
31355SOL    HW295905   9.355   7.627   3.273
31356SOL     OW95906   1.075   8.041  11.392
31356SOL    HW195907   1.104   8.044  11.483
31356SOL    HW295908   0.984   8.071  11.395
31357SOL     OW95909   6.767   1.405   0.625
31357SOL    HW195910   6.814   1.327   0.594
31357SOL    HW295911   6.675   1.381   0.619
31358SOL     OW95912   2.234   2.339   8.278
31358SOL    HW195913   2.308   2.400   8.281
31358SOL    HW295914   2.186   2.355   8.359
31359SOL     OW95915   9.773   9.925   4.496
31359SOL    HW195916   9.805   9.972   4.419
31359SOL    HW295917   9.817   9.840   4.491
31360SOL     OW95918   4.244   7.968   6.278
31360SOL    HW195919   4.185   7.896   6.259
31360SOL    HW295920   4.316   7.958   6.216
31361SOL     OW95921   8.352   7.275   2.194
31361SOL    HW195922   8.303   7.333   2.252
31361SOL    HW295923   8.289   7.250   2.127
31362SOL     OW95924   9.242   2.527   2.965
31362SOL    HW195925   9.276   2.481   2.888
31362SOL    HW295926   9.150   2.542   2.945
31363SOL     OW95927   0.479   8.673   1.102
31363SOL    HW195928   0.494   8.767   1.105
31363SOL    HW295929   0.386   8.664   1.080
31364SOL     OW95930   8.669   8.561  10.377
31364SOL    HW195931   8.657   8.541  10.284
31364SOL    HW295932   8.697   8.478  10.416
31365SOL     OW95933  12.588   5.060   4.884
31365SOL    HW195934  12.594   4.973   4.844
31365SOL    HW295935  12.673   5.073   4.926
31366SOL     OW95936   1.444  14.425   6.348
31366SOL    HW195937   1.374  14.483   6.316
31366SOL    HW295938   1.514  14.485   6.374
31367SOL     OW95939  12.628  11.786   3.031
31367SOL    HW195940  12.634  11.810   2.939
31367SOL    HW295941  12.536  11.762   3.044
31368SOL     OW95942   2.087  13.971   8.924
31368SOL    HW195943   2.084  14.059   8.887
31368SOL    HW295944   2.178  13.959   8.951
31369SOL     OW95945   2.011   5.780  14.732
31369SOL    HW195946   1.915   5.779  14.733
31369SOL    HW295947   2.034   5.837  14.806
31370SOL     OW95948   6.308   3.892   4.470
31370SOL    HW195949   6.338   3.983   4.471
31370SOL    HW295950   6.305   3.867   4.562
31371SOL     OW95951  10.712   4.526   0.600
31371SOL    HW195952  10.761   4.542   0.520
31371SOL    HW295953  10.772   4.476   0.655
31372SOL     OW95954   6.116  12.393   4.819
31372SOL    HW195955   6.139  12.300   4.830
31372SOL    HW295956   6.080  12.419   4.904
31373SOL     OW95957  10.789  12.535  10.432
31373SOL    HW195958  10.708  12.573  10.399
31373SOL    HW295959  10.779  12.441  10.420
31374SOL     OW95960  10.028   9.808  12.450
31374SOL    HW195961   9.977   9.888  12.463
31374SOL    HW295962  10.052   9.810  12.357
31375SOL     OW95963   7.122   7.765   2.732
31375SOL    HW195964   7.213   7.749   2.709
31375SOL    HW295965   7.113   7.731   2.821
31376SOL     OW95966   2.663  10.669  11.756
31376SOL    HW195967   2.752  10.704  11.766
31376SOL    HW295968   2.676  10.575  11.741
31377SOL     OW95969  13.129  14.094   9.317
31377SOL    HW195970  13.196  14.039   9.277
31377SOL    HW295971  13.125  14.064   9.408
31378SOL     OW95972  14.033   3.717   5.479
31378SOL    HW195973  14.116   3.739   5.438
31378SOL    HW295974  13.980   3.680   5.409
31379SOL     OW95975  10.130   6.682   9.274
31379SOL    HW195976  10.131   6.776   9.295
31379SOL    HW295977  10.118   6.679   9.179
31380SOL     OW95978   7.401   9.549   9.200
31380SOL    HW195979   7.489   9.550   9.162
31380SOL    HW295980   7.343   9.528   9.126
31381SOL     OW95981  12.775  12.344   8.015
31381SOL    HW195982  12.816  12.329   7.930
31381SOL    HW295983  12.827  12.292   8.076
31382SOL     OW95984   3.024   6.543   2.122
31382SOL    HW195985   3.034   6.509   2.211
31382SOL    HW295986   2.949   6.495   2.086
31383SOL     OW95987  10.927   6.950  12.744
31383SOL    HW195988  10.850   6.989  12.703
31383SOL    HW295989  10.913   6.964  12.838
31384SOL     OW95990   7.113   7.593  13.219
31384SOL    HW195991   7.203   7.604  13.189
31384SOL    HW295992   7.091   7.502  13.196
31385SOL     OW95993  13.933   0.578   5.956
31385SOL    HW195994  14.010   0.630   5.979
31385SOL    HW295995  13.967   0.510   5.898
31386SOL     OW95996   4.139  12.860   7.686
31386SOL    HW195997   4.077  12.803   7.640
31386SOL    HW295998   4.128  12.837   7.778
31387SOL     OW95999   3.654   6.423  14.310
31387SOL    HW196000   3.660   6.517  14.321
31387SOL    HW296001   3.648   6.410  14.215
31388SOL     OW96002   7.557   9.548   3.763
31388SOL    HW196003   7.599   9.619   3.714
31388SOL    HW296004   7.519   9.591   3.839
31389SOL     OW96005   7.130   8.841   8.922
31389SOL    HW196006   7.083   8.919   8.893
31389SOL    HW296007   7.132   8.784   8.845
31390SOL     OW96008  10.536  14.484  10.155
31390SOL    HW196009  10.533  14.550  10.087
31390SOL    HW296010  10.629  14.474  10.175
31391SOL     OW96011  13.639   0.991   5.329
31391SOL    HW196012  13.669   0.901   5.318
31391SOL    HW296013  13.577   0.987   5.402
31392SOL     OW96014  10.508  12.495   4.653
31392SOL    HW196015  10.584  12.471   4.705
31392SOL    HW296016  10.542  12.556   4.587
31393SOL     OW96017   7.245   2.970  13.454
31393SOL    HW196018   7.158   2.964  13.414
31393SOL    HW296019   7.228   2.976  13.548
31394SOL     OW96020   0.154   2.487  12.407
31394SOL    HW196021   0.162   2.580  12.382
31394SOL    HW296022   0.224   2.474  12.471
31395SOL     OW96023   1.104   2.524   2.495
31395SOL    HW196024   1.056   2.517   2.577
31395SOL    HW296025   1.146   2.610   2.499
31396SOL     OW96026  10.378  13.185  13.244
31396SOL    HW196027  10.372  13.135  13.326
31396SOL    HW296028  10.342  13.127  13.177
31397SOL     OW96029   0.375   3.496   6.218
31397SOL    HW196030   0.318   3.420   6.209
31397SOL    HW296031   0.323   3.560   6.267
31398SOL     OW96032   6.606   7.390   6.079
31398SOL    HW196033   6.613   7.482   6.055
31398SOL    HW296034   6.601   7.344   5.995
31399SOL     OW96035  10.236  11.483   3.283
31399SOL    HW196036  10.152  11.453   3.318
31399SOL    HW296037  10.253  11.566   3.327
31400SOL     OW96038   9.627   7.947  13.339
31400SOL    HW196039   9.590   7.859  13.328
31400SOL    HW296040   9.555   7.998  13.375
31401SOL     OW96041   1.197   1.473   6.735
31401SOL    HW196042   1.287   1.506   6.734
31401SOL    HW296043   1.171   1.471   6.643
31402SOL     OW96044   6.534   9.492  13.860
31402SOL    HW196045   6.468   9.500  13.791
31402SOL    HW296046   6.492   9.531  13.937
31403SOL     OW96047   9.960   5.681  12.033
31403SOL    HW196048  10.033   5.631  12.070
31403SOL    HW296049   9.977   5.771  12.059
31404SOL     OW96050   1.822   6.208   2.241
31404SOL    HW196051   1.831   6.249   2.327
31404SOL    HW296052   1.727   6.205   2.225
31405SOL     OW96053   8.084   7.266   2.552
31405SOL    HW196054   8.038   7.216   2.619
31405SOL    HW296055   8.019   7.329   2.521
31406SOL     OW96056   7.441   2.197  12.616
31406SOL    HW196057   7.470   2.144  12.541
31406SOL    HW296058   7.401   2.274  12.576
31407SOL     OW96059   5.728  12.642   9.780
31407SOL    HW196060   5.671  12.663   9.853
31407SOL    HW296061   5.815  12.673   9.808
31408SOL     OW96062   1.140   2.174   3.038
31408SOL    HW196063   1.177   2.148   3.122
31408SOL    HW296064   1.098   2.095   3.004
31409SOL     OW96065  10.246   1.632   7.522
31409SOL    HW196066  10.313   1.699   7.539
31409SOL    HW296067  10.233   1.635   7.427
31410SOL     OW96068  10.581   4.931  11.075
31410SOL    HW196069  10.647   4.892  11.018
31410SOL    HW296070  10.631   4.965  11.149
31411SOL     OW96071  13.241   2.566   1.565
31411SOL    HW196072  13.328   2.562   1.525
31411SOL    HW296073  13.181   2.548   1.492
31412SOL     OW96074  11.625   2.914   4.632
31412SOL    HW196075  11.701   2.887   4.682
31412SOL    HW296076  11.658   2.927   4.543
31413SOL     OW96077   8.982  10.409   9.292
31413SOL    HW196078   8.926  10.455   9.229
31413SOL    HW296079   9.061  10.463   9.296
31414SOL     OW96080  14.452  14.027   2.374
31414SOL    HW196081  14.444  14.057   2.464
31414SOL    HW296082  14.513  13.953   2.378
31415SOL     OW96083  13.042  11.992   3.939
31415SOL    HW196084  13.078  12.080   3.924
31415SOL    HW296085  13.016  11.962   3.852
31416SOL     OW96086   7.197   9.771   5.010
31416SOL    HW196087   7.230   9.749   4.923
31416SOL    HW296088   7.118   9.822   4.994
31417SOL     OW96089   4.504  10.320   9.255
31417SOL    HW196090   4.567  10.392   9.257
31417SOL    HW296091   4.470  10.315   9.344
31418SOL     OW96092  13.669   7.350   0.849
31418SOL    HW196093  13.612   7.274   0.838
31418SOL    HW296094  13.612   7.418   0.884
31419SOL     OW96095   1.966  10.796   7.019
31419SOL    HW196096   1.983  10.865   7.082
31419SOL    HW296097   1.872  10.803   7.001
31420SOL     OW96098  14.264   4.210   6.571
31420SOL    HW196099  14.288   4.131   6.620
31420SOL    HW296100  14.211   4.177   6.498
31421SOL     OW96101   1.662   5.528   0.621
31421SOL    HW196102   1.604   5.590   0.665
31421SOL    HW296103   1.717   5.582   0.564
31422SOL     OW96104  12.748   2.333   1.176
31422SOL    HW196105  12.678   2.268   1.181
31422SOL    HW296106  12.756   2.367   1.265
31423SOL     OW96107  11.188   3.565  11.962
31423SOL    HW196108  11.143   3.524  11.888
31423SOL    HW296109  11.176   3.659  11.948
31424SOL     OW96110   4.199   8.518   2.004
31424SOL    HW196111   4.119   8.480   1.967
31424SOL    HW296112   4.223   8.459   2.076
31425SOL     OW96113   4.540   5.576   7.563
31425SOL    HW196114   4.618   5.575   7.507
31425SOL    HW296115   4.560   5.638   7.633
31426SOL     OW96116  14.735   1.195  14.877
31426SOL    HW196117  14.759   1.255  14.806
31426SOL    HW296118  14.640   1.194  14.876
31427SOL     OW96119  12.718   0.871   0.466
31427SOL    HW196120  12.744   0.903   0.552
31427SOL    HW296121  12.668   0.791   0.484
31428SOL     OW96122   6.169   8.920   7.102
31428SOL    HW196123   6.086   8.905   7.057
31428SOL    HW296124   6.162   8.869   7.182
31429SOL     OW96125  10.119   7.979  13.953
31429SOL    HW196126  10.090   8.056  13.903
31429SOL    HW296127  10.201   7.953  13.911
31430SOL     OW96128   5.965   5.057  10.972
31430SOL    HW196129   5.985   4.975  10.928
31430SOL    HW296130   5.901   5.100  10.914
31431SOL     OW96131  13.329   6.816   7.825
31431SOL    HW196132  13.373   6.808   7.741
31431SOL    HW296133  13.396   6.850   7.884
31432SOL     OW96134   2.309   5.109  13.375
31432SOL    HW196135   2.230   5.084  13.328
31432SOL    HW296136   2.281   5.176  13.436
31433SOL     OW96137   9.400  12.419   3.464
31433SOL    HW196138   9.352  12.348   3.507
31433SOL    HW296139   9.480  12.429   3.516
31434SOL     OW96140   5.900  13.376   6.349
31434SOL    HW196141   5.982  13.326   6.343
31434SOL    HW296142   5.877  13.395   6.258
31435SOL     OW96143   4.829  10.456   0.948
31435SOL    HW196144   4.805  10.547   0.931
31435SOL    HW296145   4.905  10.441   0.893
31436SOL     OW96146  11.746  13.000  10.486
31436SOL    HW196147  11.720  13.010  10.394
31436SOL    HW296148  11.822  13.057  10.496
31437SOL     OW96149   3.876   3.390   1.166
31437SOL    HW196150   3.879   3.343   1.083
31437SOL    HW296151   3.963   3.427   1.176
31438SOL     OW96152  14.261   1.640  13.496
31438SOL    HW196153  14.285   1.562  13.545
31438SOL    HW296154  14.304   1.712  13.543
31439SOL     OW96155   8.294   9.483   0.619
31439SOL    HW196156   8.237   9.559   0.609
31439SOL    HW296157   8.271   9.446   0.704
31440SOL     OW96158   0.380   1.501   7.046
31440SOL    HW196159   0.346   1.572   7.100
31440SOL    HW296160   0.469   1.487   7.078
31441SOL     OW96161  13.770   0.843   8.921
31441SOL    HW196162  13.841   0.821   8.861
31441SOL    HW296163  13.814   0.870   9.002
31442SOL     OW96164   7.968   0.165  13.772
31442SOL    HW196165   8.027   0.236  13.796
31442SOL    HW296166   8.023   0.102  13.725
31443SOL     OW96167   7.196   7.431  14.114
31443SOL    HW196168   7.139   7.409  14.188
31443SOL    HW296169   7.156   7.509  14.076
31444SOL     OW96170   0.044   3.013   5.487
31444SOL    HW196171   0.068   2.947   5.552
31444SOL    HW296172   0.096   3.090   5.510
31445SOL     OW96173   8.868   3.229  14.605
31445SOL    HW196174   8.874   3.279  14.687
31445SOL    HW296175   8.953   3.187  14.596
31446SOL     OW96176   1.971   8.992   3.430
31446SOL    HW196177   2.007   8.997   3.519
31446SOL    HW296178   1.977   8.899   3.408
31447SOL     OW96179   6.131  12.764  13.756
31447SOL    HW196180   6.120  12.671  13.736
31447SOL    HW296181   6.081  12.777  13.837
31448SOL     OW96182   3.921  11.737   9.838
31448SOL    HW196183   3.883  11.650   9.827
31448SOL    HW296184   3.936  11.769   9.749
31449SOL     OW96185  14.720   8.061   1.691
31449SOL    HW196186  14.761   7.979   1.663
31449SOL    HW296187  14.659   8.035   1.760
31450SOL     OW96188  13.699   9.794   4.293
31450SOL    HW196189  13.760   9.773   4.364
31450SOL    HW296190  13.748   9.779   4.213
31451SOL     OW96191  12.019   0.154  10.203
31451SOL    HW196192  12.103   0.199  10.196
31451SOL    HW296193  11.996   0.162  10.296
31452SOL     OW96194   3.671   6.454  11.524
31452SOL    HW196195   3.642   6.490  11.441
31452SOL    HW296196   3.592   6.446  11.577
31453SOL     OW96197  14.652   8.621   3.603
31453SOL    HW196198  14.557   8.625   3.590
31453SOL    HW296199  14.672   8.528   3.604
31454SOL     OW96200   8.079   8.220   6.778
31454SOL    HW196201   8.124   8.257   6.854
31454SOL    HW296202   7.988   8.248   6.789
31455SOL     OW96203  12.852  13.933  14.228
31455SOL    HW196204  12.793  13.860  14.247
31455SOL    HW296205  12.875  13.967  14.314
31456SOL     OW96206   3.719   0.101  14.249
31456SOL    HW196207   3.690   0.192  14.256
31456SOL    HW296208   3.811   0.108  14.223
31457SOL     OW96209   5.584  10.356   0.725
31457SOL    HW196210   5.612  10.274   0.685
31457SOL    HW296211   5.488  10.350   0.729
31458SOL     OW96212  13.215   3.072  13.204
31458SOL    HW196213  13.253   3.154  13.237
31458SOL    HW296214  13.253   3.005  13.260
31459SOL     OW96215   8.466   2.058   0.266
31459SOL    HW196216   8.493   2.135   0.317
31459SOL    HW296217   8.412   2.007   0.326
31460SOL     OW96218  12.812   5.916   3.124
31460SOL    HW196219  12.804   5.988   3.061
31460SOL    HW296220  12.787   5.838   3.075
31461SOL     OW96221  10.470  10.312  10.671
31461SOL    HW196222  10.421  10.234  10.645
31461SOL    HW296223  10.466  10.312  10.767
31462SOL     OW96224   4.542   3.619   7.995
31462SOL    HW196225   4.481   3.609   8.067
31462SOL    HW296226   4.626   3.638   8.037
31463SOL     OW96227   1.070  10.836   1.595
31463SOL    HW196228   1.123  10.832   1.516
31463SOL    HW296229   1.091  10.756   1.643
31464SOL     OW96230  14.107   4.208   9.062
31464SOL    HW196231  14.167   4.245   9.127
31464SOL    HW296232  14.029   4.264   9.068
31465SOL     OW96233   7.429   1.160  11.507
31465SOL    HW196234   7.509   1.166  11.560
31465SOL    HW296235   7.366   1.217  11.552
31466SOL     OW96236   4.672   4.435   0.021
31466SOL    HW196237   4.660   4.522  14.864
31466SOL    HW296238   4.764   4.415   0.005
31467SOL     OW96239  13.372   9.880   5.578
31467SOL    HW196240  13.322   9.928   5.511
31467SOL    HW296241  13.354   9.926   5.659
31468SOL     OW96242   6.951   6.919  12.812
31468SOL    HW196243   6.891   6.937  12.884
31468SOL    HW296244   6.942   6.995  12.754
31469SOL     OW96245   9.360   0.293  11.559
31469SOL    HW196246   9.438   0.345  11.578
31469SOL    HW296247   9.366   0.273  11.465
31470SOL     OW96248   2.609  11.584   4.497
31470SOL    HW196249   2.587  11.676   4.484
31470SOL    HW296250   2.704  11.585   4.512
31471SOL     OW96251  11.792  11.766  10.772
31471SOL    HW196252  11.726  11.701  10.796
31471SOL    HW296253  11.742  11.837  10.732
31472SOL     OW96254  13.588   9.104  12.758
31472SOL    HW196255  13.584   9.181  12.815
31472SOL    HW296256  13.515   9.049  12.788
31473SOL     OW96257   2.484   3.054   6.450
31473SOL    HW196258   2.518   3.065   6.539
31473SOL    HW296259   2.562   3.046   6.395
31474SOL     OW96260   2.526   0.271   8.984
31474SOL    HW196261   2.588   0.296   9.053
31474SOL    HW296262   2.565   0.193   8.944
31475SOL     OW96263   0.196  13.587  13.374
31475SOL    HW196264   0.271  13.530  13.393
31475SOL    HW296265   0.218  13.669  13.417
31476SOL     OW96266   8.609   7.368  12.792
31476SOL    HW196267   8.532   7.416  12.761
31476SOL    HW296268   8.676   7.384  12.726
31477SOL     OW96269   3.090   1.590  12.663
31477SOL    HW196270   3.132   1.549  12.739
31477SOL    HW296271   3.160   1.640  12.621
31478SOL     OW96272  13.485   8.281   8.361
31478SOL    HW196273  13.398   8.264   8.325
31478SOL    HW296274  13.469   8.336   8.437
31479SOL     OW96275   5.258   4.939   5.051
31479SOL    HW196276   5.268   4.844   5.043
31479SOL    HW296277   5.292   4.959   5.139
31480SOL     OW96278   5.836  11.586   7.636
31480SOL    HW196279   5.797  11.575   7.549
31480SOL    HW296280   5.783  11.532   7.694
31481SOL     OW96281  11.520   2.980  14.338
31481SOL    HW196282  11.516   2.990  14.433
31481SOL    HW296283  11.578   3.051  14.308
31482SOL     OW96284   8.972   2.573   2.315
31482SOL    HW196285   9.036   2.554   2.383
31482SOL    HW296286   8.949   2.488   2.278
31483SOL     OW96287   7.861   5.870   7.061
31483SOL    HW196288   7.841   5.938   7.126
31483SOL    HW296289   7.934   5.905   7.011
31484SOL     OW96290   8.740  12.293  10.635
31484SOL    HW196291   8.710  12.324  10.721
31484SOL    HW296292   8.705  12.203  10.629
31485SOL     OW96293   2.804   7.233   7.957
31485SOL    HW196294   2.869   7.303   7.965
31485SOL    HW296295   2.807   7.207   7.865
31486SOL     OW96296  10.242   0.345   1.547
31486SOL    HW196297  10.150   0.338   1.573
31486SOL    HW296298  10.288   0.365   1.628
31487SOL     OW96299  12.831   3.962   6.892
31487SOL    HW196300  12.817   4.049   6.930
31487SOL    HW296301  12.745   3.920   6.895
31488SOL     OW96302   8.725   5.568   2.755
31488SOL    HW196303   8.748   5.576   2.662
31488SOL    HW296304   8.665   5.640   2.771
31489SOL     OW96305   2.735   8.129  13.248
31489SOL    HW196306   2.823   8.127  13.213
31489SOL    HW296307   2.680   8.155  13.174
31490SOL     OW96308   2.448  11.650   0.944
31490SOL    HW196309   2.440  11.562   0.980
31490SOL    HW296310   2.449  11.638   0.850
31491SOL     OW96311   5.038  12.611  13.685
31491SOL    HW196312   5.121  12.655  13.666
31491SOL    HW296313   5.062  12.519  13.698
31492SOL     OW96314   9.873  13.968  11.141
31492SOL    HW196315   9.796  13.939  11.094
31492SOL    HW296316   9.927  14.010  11.075
31493SOL     OW96317  12.141  11.437   1.416
31493SOL    HW196318  12.157  11.397   1.330
31493SOL    HW296319  12.167  11.528   1.405
31494SOL     OW96320   1.424   3.478   6.590
31494SOL    HW196321   1.520   3.473   6.587
31494SOL    HW296322   1.405   3.556   6.642
31495SOL     OW96323  11.390  14.453   2.071
31495SOL    HW196324  11.326  14.524   2.079
31495SOL    HW296325  11.349  14.390   2.012
31496SOL     OW96326  11.176  14.308  12.062
31496SOL    HW196327  11.152  14.259  11.983
31496SOL    HW296328  11.096  14.307  12.115
31497SOL     OW96329   2.296  11.563   1.498
31497SOL    HW196330   2.259  11.652   1.499
31497SOL    HW296331   2.231  11.510   1.543
31498SOL     OW96332   4.413   5.754  11.357
31498SOL    HW196333   4.352   5.712  11.417
31498SOL    HW296334   4.448   5.682  11.305
31499SOL     OW96335   1.138   9.304   6.785
31499SOL    HW196336   1.084   9.314   6.863
31499SOL    HW296337   1.094   9.237   6.733
31500SOL     OW96338   4.491   2.968  11.422
31500SOL    HW196339   4.568   3.018  11.395
31500SOL    HW296340   4.417   3.019  11.390
31501SOL     OW96341   9.163  10.669   1.373
31501SOL    HW196342   9.123  10.718   1.445
31501SOL    HW296343   9.097  10.669   1.304
31502SOL     OW96344   2.786   3.100   5.845
31502SOL    HW196345   2.708   3.072   5.894
31502SOL    HW296346   2.759   3.180   5.800
31503SOL     OW96347   3.063  11.502  10.059
31503SOL    HW196348   3.089  11.418  10.098
31503SOL    HW296349   2.968  11.502  10.065
31504SOL     OW96350  12.306  14.252   5.064
31504SOL    HW196351  12.278  14.255   5.155
31504SOL    HW296352  12.240  14.303   5.017
31505SOL     OW96353   5.193  13.772   3.444
31505SOL    HW196354   5.190  13.821   3.362
31505SOL    HW296355   5.134  13.819   3.503
31506SOL     OW96356   8.229   4.988  10.654
31506SOL    HW196357   8.303   4.994  10.715
31506SOL    HW296358   8.166   5.052  10.688
31507SOL     OW96359   2.805  12.100  13.807
31507SOL    HW196360   2.762  12.117  13.723
31507SOL    HW296361   2.858  12.179  13.822
31508SOL     OW96362   9.669   2.981   1.793
31508SOL    HW196363   9.712   2.910   1.746
31508SOL    HW296364   9.697   2.970   1.884
31509SOL     OW96365   7.898   1.255   7.106
31509SOL    HW196366   7.973   1.199   7.085
31509SOL    HW296367   7.878   1.300   7.024
31510SOL     OW96368   5.599   8.760   9.855
31510SOL    HW196369   5.513   8.769   9.814
31510SOL    HW296370   5.655   8.823   9.809
31511SOL     OW96371  14.663  13.579   8.583
31511SOL    HW196372  14.603  13.635   8.633
31511SOL    HW296373  14.723  13.639   8.540
31512SOL     OW96374   5.917  10.463   6.244
31512SOL    HW196375   5.907  10.368   6.230
31512SOL    HW296376   5.861  10.482   6.320
31513SOL     OW96377   8.003   4.079   6.123
31513SOL    HW196378   7.973   4.036   6.043
31513SOL    HW296379   8.014   4.171   6.098
31514SOL     OW96380   0.297   1.253   8.061
31514SOL    HW196381   0.244   1.177   8.088
31514SOL    HW296382   0.319   1.297   8.144
31515SOL     OW96383   2.742  14.236   5.874
31515SOL    HW196384   2.710  14.147   5.890
31515SOL    HW296385   2.738  14.246   5.778
31516SOL     OW96386   9.702   0.093  12.517
31516SOL    HW196387   9.633   0.136  12.465
31516SOL    HW296388   9.654   0.039  12.579
31517SOL     OW96389   4.044  13.612   3.348
31517SOL    HW196390   4.045  13.694   3.397
31517SOL    HW296391   4.134  13.578   3.356
31518SOL     OW96392   2.104   0.613   3.914
31518SOL    HW196393   2.172   0.557   3.876
31518SOL    HW296394   2.069   0.663   3.841
31519SOL     OW96395   8.031   0.819   2.939
31519SOL    HW196396   7.989   0.894   2.897
31519SOL    HW296397   7.958   0.761   2.962
31520SOL     OW96398   8.816   2.120  12.751
31520SOL    HW196399   8.901   2.084  12.779
31520SOL    HW296400   8.757   2.045  12.750
31521SOL     OW96401   9.106  13.525  10.134
31521SOL    HW196402   9.041  13.520  10.204
31521SOL    HW296403   9.055  13.540  10.055
31522SOL     OW96404  10.066  14.530  11.666
31522SOL    HW196405   9.973  14.508  11.662
31522SOL    HW296406  10.070  14.610  11.719
31523SOL     OW96407   3.214   3.285   4.481
31523SOL    HW196408   3.197   3.363   4.533
31523SOL    HW296409   3.220   3.214   4.545
31524SOL     OW96410   4.051   3.262   0.946
31524SOL    HW196411   4.052   3.177   0.990
31524SOL    HW296412   4.135   3.302   0.968
31525SOL     OW96413   3.580   7.355   4.918
31525SOL    HW196414   3.486   7.366   4.931
31525SOL    HW296415   3.593   7.371   4.824
31526SOL     OW96416   4.029   2.902  11.601
31526SOL    HW196417   4.005   2.888  11.693
31526SOL    HW296418   4.102   2.842  11.586
31527SOL     OW96419   4.971   2.342   6.223
31527SOL    HW196420   5.019   2.261   6.210
31527SOL    HW296421   4.994   2.397   6.148
31528SOL     OW96422   4.068  10.982   8.771
31528SOL    HW196423   4.038  10.940   8.691
31528SOL    HW296424   4.001  10.961   8.836
31529SOL     OW96425  10.082   8.401  14.404
31529SOL    HW196426  10.148   8.451  14.355
31529SOL    HW296427  10.101   8.419  14.496
31530SOL     OW96428   4.910   8.044   1.236
31530SOL    HW196429   4.879   8.045   1.145
31530SOL    HW296430   4.893   7.955   1.267
31531SOL     OW96431   0.389  10.318   6.595
31531SOL    HW196432   0.474  10.297   6.635
31531SOL    HW296433   0.386  10.264   6.516
31532SOL     OW96434   5.144   0.698   9.974
31532SOL    HW196435   5.236   0.711   9.997
31532SOL    HW296436   5.135   0.741   9.888
31533SOL     OW96437   7.041   4.528   7.384
31533SOL    HW196438   7.035   4.446   7.335
31533SOL    HW296439   6.971   4.521   7.450
31534SOL     OW96440   5.615  11.638   4.154
31534SOL    HW196441   5.576  11.651   4.068
31534SOL    HW296442   5.551  11.675   4.215
31535SOL     OW96443  14.392   7.741  10.449
31535SOL    HW196444  14.349   7.670  10.401
31535SOL    HW296445  14.327   7.811  10.452
31536SOL     OW96446   4.326  12.003  10.524
31536SOL    HW196447   4.384  11.928  10.515
31536SOL    HW296448   4.279  12.009  10.441
31537SOL     OW96449  14.345   8.764   8.988
31537SOL    HW196450  14.422   8.813   9.018
31537SOL    HW296451  14.321   8.710   9.064
31538SOL     OW96452   5.909   3.860   3.922
31538SOL    HW196453   5.948   3.931   3.972
31538SOL    HW296454   5.932   3.781   3.972
31539SOL     OW96455  14.346   0.775   9.621
31539SOL    HW196456  14.379   0.834   9.553
31539SOL    HW296457  14.346   0.829   9.700
31540SOL     OW96458  10.067   0.824   4.183
31540SOL    HW196459  10.062   0.894   4.118
31540SOL    HW296460  10.100   0.749   4.134
31541SOL     OW96461   5.886   0.330  10.670
31541SOL    HW196462   5.864   0.414  10.710
31541SOL    HW296463   5.934   0.283  10.738
31542SOL     OW96464  14.147   8.663   4.769
31542SOL    HW196465  14.211   8.592   4.773
31542SOL    HW296466  14.066   8.624   4.804
31543SOL     OW96467   1.862   3.496   4.020
31543SOL    HW196468   1.848   3.556   3.947
31543SOL    HW296469   1.816   3.416   3.994
31544SOL     OW96470  14.715   5.796   2.661
31544SOL    HW196471  14.748   5.877   2.700
31544SOL    HW296472  14.637   5.775   2.712
31545SOL     OW96473   2.765  14.714   5.153
31545SOL    HW196474   2.731  14.688   5.239
31545SOL    HW296475   2.792  14.805   5.165
31546SOL     OW96476   7.214   3.946  11.996
31546SOL    HW196477   7.232   3.920  11.906
31546SOL    HW296478   7.231   3.868  12.048
31547SOL     OW96479   9.446   0.751   2.319
31547SOL    HW196480   9.402   0.752   2.404
31547SOL    HW296481   9.464   0.659   2.302
31548SOL     OW96482  11.035   9.465  13.093
31548SOL    HW196483  10.969   9.399  13.069
31548SOL    HW296484  11.054   9.446  13.185
31549SOL     OW96485   4.677   4.799   9.005
31549SOL    HW196486   4.632   4.874   8.966
31549SOL    HW296487   4.616   4.767   9.071
31550SOL     OW96488  13.997  12.391  12.298
31550SOL    HW196489  13.945  12.441  12.361
31550SOL    HW296490  14.010  12.306  12.340
31551SOL     OW96491  13.223  14.526   8.740
31551SOL    HW196492  13.211  14.447   8.687
31551SOL    HW296493  13.196  14.598   8.682
31552SOL     OW96494   8.985  12.867   4.163
31552SOL    HW196495   8.912  12.821   4.123
31552SOL    HW296496   8.984  12.838   4.255
31553SOL     OW96497  12.975   6.797   6.313
31553SOL    HW196498  12.977   6.867   6.378
31553SOL    HW296499  13.032   6.827   6.242
31554SOL     OW96500   0.759  14.390   7.482
31554SOL    HW196501   0.831  14.438   7.522
31554SOL    HW296502   0.772  14.401   7.388
31555SOL     OW96503   7.069   8.144  10.568
31555SOL    HW196504   6.996   8.195  10.533
31555SOL    HW296505   7.143   8.164  10.511
31556SOL     OW96506  11.630   4.411   1.056
31556SOL    HW196507  11.636   4.349   0.983
31556SOL    HW296508  11.582   4.364   1.124
31557SOL     OW96509   1.531   9.603  12.991
31557SOL    HW196510   1.600   9.605  13.057
31557SOL    HW296511   1.499   9.512  12.993
31558SOL     OW96512   5.956   2.564  12.170
31558SOL    HW196513   5.964   2.481  12.123
31558SOL    HW296514   5.937   2.539  12.260
31559SOL     OW96515  13.830   5.825  13.248
31559SOL    HW196516  13.821   5.857  13.158
31559SOL    HW296517  13.800   5.898  13.302
31560SOL     OW96518   1.430   3.322  11.662
31560SOL    HW196519   1.396   3.233  11.665
31560SOL    HW296520   1.475   3.334  11.745
31561SOL     OW96521  10.005  14.084   8.247
31561SOL    HW196522  10.021  14.015   8.182
31561SOL    HW296523   9.915  14.067   8.277
31562SOL     OW96524   6.555  14.255   4.391
31562SOL    HW196525   6.511  14.241   4.476
31562SOL    HW296526   6.639  14.210   4.400
31563SOL     OW96527   7.062  14.210   3.726
31563SOL    HW196528   6.985  14.154   3.740
31563SOL    HW296529   7.056  14.275   3.796
31564SOL     OW96530   4.881   6.241   9.053
31564SOL    HW196531   4.875   6.302   9.126
31564SOL    HW296532   4.803   6.260   9.000
31565SOL     OW96533   2.841   2.319  10.584
31565SOL    HW196534   2.748   2.333  10.564
31565SOL    HW296535   2.844   2.232  10.624
31566SOL     OW96536  11.687   8.642  11.723
31566SOL    HW196537  11.760   8.585  11.746
31566SOL    HW296538  11.716   8.730  11.748
31567SOL     OW96539   8.938   1.435   8.918
31567SOL    HW196540   8.843   1.439   8.910
31567SOL    HW296541   8.970   1.499   8.855
31568SOL     OW96542  11.652   9.669  12.321
31568SOL    HW196543  11.591   9.742  12.337
31568SOL    HW296544  11.727   9.688  12.377
31569SOL     OW96545   3.737   3.217   5.123
31569SOL    HW196546   3.692   3.140   5.158
31569SOL    HW296547   3.706   3.289   5.178
31570SOL     OW96548  13.777  10.504  13.140
31570SOL    HW196549  13.827  10.428  13.113
31570SOL    HW296550  13.685  10.478  13.130
31571SOL     OW96551   2.046   7.805   0.314
31571SOL    HW196552   2.123   7.855   0.341
31571SOL    HW296553   2.000   7.861   0.252
31572SOL     OW96554   9.350   5.699   4.843
31572SOL    HW196555   9.410   5.636   4.804
31572SOL    HW296556   9.401   5.741   4.912
31573SOL     OW96557   8.630   5.825   5.070
31573SOL    HW196558   8.650   5.892   5.136
31573SOL    HW296559   8.644   5.869   4.986
31574SOL     OW96560   2.338   3.450   2.877
31574SOL    HW196561   2.307   3.423   2.790
31574SOL    HW296562   2.262   3.439   2.934
31575SOL     OW96563   6.013   2.418   5.310
31575SOL    HW196564   5.984   2.382   5.226
31575SOL    HW296565   5.952   2.489   5.329
31576SOL     OW96566   3.820   4.817  12.750
31576SOL    HW196567   3.788   4.759  12.819
31576SOL    HW296568   3.745   4.828  12.691
31577SOL     OW96569  11.148   7.188   9.244
31577SOL    HW196570  11.066   7.158   9.284
31577SOL    HW296571  11.215   7.132   9.282
31578SOL     OW96572   6.315   5.355  12.764
31578SOL    HW196573   6.379   5.286  12.747
31578SOL    HW296574   6.271   5.329  12.845
31579SOL     OW96575  14.325   5.797   3.293
31579SOL    HW196576  14.407   5.748   3.290
31579SOL    HW296577  14.352   5.889   3.290
31580SOL     OW96578   1.037   6.119   9.134
31580SOL    HW196579   1.036   6.068   9.053
31580SOL    HW296580   0.955   6.169   9.132
31581SOL     OW96581   6.927   7.690   3.616
31581SOL    HW196582   6.926   7.763   3.677
31581SOL    HW296583   6.953   7.615   3.669
31582SOL     OW96584  11.876   5.527  13.622
31582SOL    HW196585  11.824   5.583  13.565
31582SOL    HW296586  11.957   5.513  13.574
31583SOL     OW96587   3.415   0.320   0.546
31583SOL    HW196588   3.452   0.235   0.522
31583SOL    HW296589   3.490   0.380   0.544
31584SOL     OW96590   6.900   5.521   3.918
31584SOL    HW196591   6.834   5.519   3.988
31584SOL    HW296592   6.976   5.477   3.956
31585SOL     OW96593  13.411   9.608  10.500
31585SOL    HW196594  13.501   9.583  10.523
31585SOL    HW296595  13.379   9.654  10.577
31586SOL     OW96596   1.239   2.106   7.505
31586SOL    HW196597   1.318   2.132   7.552
31586SOL    HW296598   1.172   2.167   7.535
31587SOL     OW96599  14.546   9.971  14.799
31587SOL    HW196600  14.483   9.958  14.729
31587SOL    HW296601  14.579   9.883  14.818
31588SOL     OW96602  13.970  12.776  12.616
31588SOL    HW196603  14.002  12.807  12.701
31588SOL    HW296604  13.962  12.856  12.563
31589SOL     OW96605   5.698   7.953   0.556
31589SOL    HW196606   5.628   7.898   0.521
31589SOL    HW296607   5.747   7.895   0.614
31590SOL     OW96608   4.233   1.592   3.919
31590SOL    HW196609   4.193   1.676   3.941
31590SOL    HW296610   4.165   1.527   3.938
31591SOL     OW96611   4.565   5.099   8.286
31591SOL    HW196612   4.538   5.059   8.369
31591SOL    HW296613   4.568   5.193   8.305
31592SOL     OW96614   1.342   2.491   1.858
31592SOL    HW196615   1.395   2.516   1.933
31592SOL    HW296616   1.338   2.395   1.862
31593SOL     OW96617   3.540   4.939   0.457
31593SOL    HW196618   3.488   5.001   0.406
31593SOL    HW296619   3.610   4.992   0.495
31594SOL     OW96620  12.823   6.805  12.667
31594SOL    HW196621  12.783   6.852  12.594
31594SOL    HW296622  12.913   6.788  12.639
31595SOL     OW96623  10.391   8.727  14.683
31595SOL    HW196624  10.321   8.705  14.745
31595SOL    HW296625  10.456   8.657  14.694
31596SOL     OW96626   4.712   6.079  11.584
31596SOL    HW196627   4.639   6.057  11.641
31596SOL    HW296628   4.784   6.098  11.644
31597SOL     OW96629   5.845   2.138  11.160
31597SOL    HW196630   5.842   2.143  11.256
31597SOL    HW296631   5.761   2.097  11.137
31598SOL     OW96632   8.726  14.392  10.872
31598SOL    HW196633   8.811  14.375  10.831
31598SOL    HW296634   8.662  14.362  10.808
31599SOL     OW96635  13.124  12.006   2.637
31599SOL    HW196636  13.072  11.931   2.610
31599SOL    HW296637  13.079  12.040   2.714
31600SOL     OW96638  12.220   8.027  14.324
31600SOL    HW196639  12.196   8.010  14.233
31600SOL    HW296640  12.148   8.079  14.359
31601SOL     OW96641  14.073   6.100   0.540
31601SOL    HW196642  14.135   6.029   0.522
31601SOL    HW296643  13.990   6.069   0.505
31602SOL     OW96644  13.109  13.808   2.550
31602SOL    HW196645  13.172  13.800   2.622
31602SOL    HW296646  13.103  13.721   2.512
31603SOL     OW96647   8.861   0.246   8.297
31603SOL    HW196648   8.848   0.218   8.388
31603SOL    HW296649   8.872   0.340   8.303
31604SOL     OW96650   0.185   4.102   7.710
31604SOL    HW196651   0.110   4.057   7.749
31604SOL    HW296652   0.163   4.108   7.617
31605SOL     OW96653   8.811  13.452   7.337
31605SOL    HW196654   8.823  13.496   7.422
31605SOL    HW296655   8.744  13.504   7.292
31606SOL     OW96656   1.625   9.602  13.545
31606SOL    HW196657   1.581   9.674  13.500
31606SOL    HW296658   1.717   9.628  13.546
31607SOL     OW96659   3.207  14.823   4.517
31607SOL    HW196660   3.250  14.797   4.598
31607SOL    HW296661   3.275  14.867   4.467
31608SOL     OW96662   9.401   0.274   4.663
31608SOL    HW196663   9.427   0.363   4.689
31608SOL    HW296664   9.460   0.217   4.711
31609SOL     OW96665  12.481   7.443  13.724
31609SOL    HW196666  12.532   7.492  13.659
31609SOL    HW296667  12.421   7.508  13.760
31610SOL     OW96668   2.856   1.678   5.891
31610SOL    HW196669   2.946   1.712   5.898
31610SOL    HW296670   2.862   1.588   5.923
31611SOL     OW96671   6.125  11.855  10.754
31611SOL    HW196672   6.029  11.857  10.759
31611SOL    HW296673   6.144  11.795  10.683
31612SOL     OW96674  11.753   6.055  10.262
31612SOL    HW196675  11.703   5.982  10.226
31612SOL    HW296676  11.794   6.019  10.341
31613SOL     OW96677   2.441  12.640  10.917
31613SOL    HW196678   2.510  12.579  10.891
31613SOL    HW296679   2.380  12.587  10.968
31614SOL     OW96680   7.420  14.663   7.855
31614SOL    HW196681   7.491  14.702   7.804
31614SOL    HW296682   7.340  14.701   7.818
31615SOL     OW96683   7.562  13.541   1.565
31615SOL    HW196684   7.605  13.532   1.650
31615SOL    HW296685   7.631  13.521   1.502
31616SOL     OW96686  11.880   7.849   5.069
31616SOL    HW196687  11.969   7.819   5.055
31616SOL    HW296688  11.881   7.887   5.156
31617SOL     OW96689   5.593   2.375   8.258
31617SOL    HW196690   5.504   2.341   8.259
31617SOL    HW296691   5.645   2.307   8.299
31618SOL     OW96692   2.087   4.405  14.428
31618SOL    HW196693   2.092   4.320  14.383
31618SOL    HW296694   2.178   4.425  14.449
31619SOL     OW96695   8.568   4.790  13.142
31619SOL    HW196696   8.504   4.735  13.188
31619SOL    HW296697   8.557   4.767  13.049
31620SOL     OW96698   7.097   3.697  14.178
31620SOL    HW196699   7.017   3.737  14.211
31620SOL    HW296700   7.101   3.611  14.221
31621SOL     OW96701  10.850   5.955   0.493
31621SOL    HW196702  10.864   5.902   0.415
31621SOL    HW296703  10.761   5.989   0.484
31622SOL     OW96704  13.492   5.215   9.507
31622SOL    HW196705  13.585   5.237   9.505
31622SOL    HW296706  13.458   5.248   9.425
31623SOL     OW96707   9.935   4.449   2.984
31623SOL    HW196708   9.862   4.488   2.935
31623SOL    HW296709   9.952   4.511   3.055
31624SOL     OW96710   3.406   8.219   9.241
31624SOL    HW196711   3.456   8.184   9.167
31624SOL    HW296712   3.421   8.156   9.312
31625SOL     OW96713   8.595  14.461   4.964
31625SOL    HW196714   8.542  14.489   4.889
31625SOL    HW296715   8.589  14.532   5.026
31626SOL     OW96716   8.579   2.228   9.913
31626SOL    HW196717   8.611   2.138   9.905
31626SOL    HW296718   8.512   2.224   9.981
31627SOL     OW96719  10.632   0.091  13.186
31627SOL    HW196720  10.583   0.010  13.196
31627SOL    HW296721  10.587   0.154  13.242
31628SOL     OW96722   4.357   7.530   3.865
31628SOL    HW196723   4.415   7.579   3.923
31628SOL    HW296724   4.407   7.453   3.839
31629SOL     OW96725  12.912  13.781   3.982
31629SOL    HW196726  12.896  13.799   4.075
31629SOL    HW296727  12.849  13.712   3.959
31630SOL     OW96728   7.909   4.336   3.973
31630SOL    HW196729   7.866   4.342   3.888
31630SOL    HW296730   7.926   4.427   3.997
31631SOL     OW96731   9.341   7.319   0.058
31631SOL    HW196732   9.433   7.326   0.032
31631SOL    HW296733   9.336   7.364   0.142
31632SOL     OW96734  13.980   7.923  14.258
31632SOL    HW196735  13.949   8.013  14.245
31632SOL    HW296736  14.075   7.932  14.263
31633SOL     OW96737  13.503  10.769   9.660
31633SOL    HW196738  13.565  10.723   9.717
31633SOL    HW296739  13.418  10.759   9.704
31634SOL     OW96740   4.709   8.750  13.341
31634SOL    HW196741   4.729   8.677  13.399
31634SOL    HW296742   4.616   8.741  13.321
31635SOL     OW96743   3.938   1.302  11.162
31635SOL    HW196744   4.016   1.245  11.159
31635SOL    HW296745   3.899   1.294  11.075
31636SOL     OW96746  11.787   0.715  11.271
31636SOL    HW196747  11.773   0.627  11.305
31636SOL    HW296748  11.839   0.702  11.191
31637SOL     OW96749  10.355   3.172  13.220
31637SOL    HW196750  10.426   3.208  13.167
31637SOL    HW296751  10.400   3.125  13.291
31638SOL     OW96752  12.055   0.683   5.632
31638SOL    HW196753  12.094   0.644   5.554
31638SOL    HW296754  12.034   0.608   5.688
31639SOL     OW96755   8.220   0.723  10.451
31639SOL    HW196756   8.295   0.781  10.440
31639SOL    HW296757   8.228   0.659  10.380
31640SOL     OW96758   4.010  10.323   1.005
31640SOL    HW196759   4.004  10.415   1.030
31640SOL    HW296760   3.939  10.310   0.942
31641SOL     OW96761   7.112   4.914   5.703
31641SOL    HW196762   7.037   4.924   5.762
31641SOL    HW296763   7.074   4.922   5.615
31642SOL     OW96764   6.848   4.715   1.432
31642SOL    HW196765   6.927   4.755   1.469
31642SOL    HW296766   6.818   4.654   1.501
31643SOL     OW96767   0.762  12.998  12.002
31643SOL    HW196768   0.778  12.989  11.908
31643SOL    HW296769   0.672  12.967  12.014
31644SOL     OW96770   6.370   2.282  12.146
31644SOL    HW196771   6.316   2.305  12.070
31644SOL    HW296772   6.307   2.251  12.211
31645SOL     OW96773  12.271   2.215   8.260
31645SOL    HW196774  12.310   2.302   8.269
31645SOL    HW296775  12.228   2.216   8.175
31646SOL     OW96776   6.478  14.619   8.146
31646SOL    HW196777   6.446  14.709   8.135
31646SOL    HW296778   6.572  14.625   8.127
31647SOL     OW96779  14.702   2.994   6.613
31647SOL    HW196780  14.683   2.918   6.668
31647SOL    HW296781  14.627   3.052   6.625
31648SOL     OW96782  14.574   1.018  11.148
31648SOL    HW196783  14.615   1.075  11.214
31648SOL    HW296784  14.648   0.984  11.098
31649SOL     OW96785   1.265  14.155   9.939
31649SOL    HW196786   1.210  14.148   9.861
31649SOL    HW296787   1.329  14.222   9.917
31650SOL     OW96788   1.813   8.008  13.624
31650SOL    HW196789   1.787   8.100  13.633
31650SOL    HW296790   1.753   7.961  13.682
31651SOL     OW96791  14.077   9.548  14.793
31651SOL    HW196792  14.137   9.591  14.732
31651SOL    HW296793  14.102   9.456  14.792
31652SOL     OW96794   3.958   1.638   8.741
31652SOL    HW196795   3.911   1.558   8.765
31652SOL    HW296796   3.924   1.704   8.802
31653SOL     OW96797  14.004   9.849  10.865
31653SOL    HW196798  14.040   9.815  10.783
31653SOL    HW296799  13.996   9.943  10.850
31654SOL     OW96800   5.287  13.239  14.849
31654SOL    HW196801   5.363  13.182  14.862
31654SOL    HW296802   5.215  13.179  14.827
31655SOL     OW96803   8.143  10.371   8.426
31655SOL    HW196804   8.131  10.445   8.367
31655SOL    HW296805   8.211  10.399   8.487
31656SOL     OW96806   8.513   2.029   6.460
31656SOL    HW196807   8.437   2.044   6.404
31656SOL    HW296808   8.559   1.955   6.419
31657SOL     OW96809   1.781   1.259  10.734
31657SOL    HW196810   1.708   1.305  10.777
31657SOL    HW296811   1.739   1.200  10.672
31658SOL     OW96812   0.980   2.407  11.506
31658SOL    HW196813   0.910   2.449  11.456
31658SOL    HW296814   0.975   2.448  11.592
31659SOL     OW96815   0.756   1.486   9.570
31659SOL    HW196816   0.849   1.488   9.592
31659SOL    HW296817   0.713   1.528   9.645
31660SOL     OW96818   6.415  13.921   8.573
31660SOL    HW196819   6.336  13.906   8.626
31660SOL    HW296820   6.387  13.898   8.484
31661SOL     OW96821  10.070   1.875   4.168
31661SOL    HW196822   9.999   1.897   4.108
31661SOL    HW296823  10.108   1.959   4.192
31662SOL     OW96824   3.918   9.311  13.834
31662SOL    HW196825   3.962   9.379  13.783
31662SOL    HW296826   3.962   9.312  13.919
31663SOL     OW96827  14.085   3.778   6.094
31663SOL    HW196828  14.117   3.797   6.182
31663SOL    HW296829  14.156   3.729   6.053
31664SOL     OW96830   7.403  13.982   8.378
31664SOL    HW196831   7.396  13.999   8.472
31664SOL    HW296832   7.456  13.902   8.373
31665SOL     OW96833   0.946   4.800   1.265
31665SOL    HW196834   0.855   4.780   1.287
31665SOL    HW296835   0.993   4.787   1.347
31666SOL     OW96836  11.819   7.290   3.980
31666SOL    HW196837  11.863   7.303   4.063
31666SOL    HW296838  11.755   7.361   3.974
31667SOL     OW96839   9.649  11.178   4.761
31667SOL    HW196840   9.681  11.088   4.755
31667SOL    HW296841   9.659  11.213   4.673
31668SOL     OW96842   1.723   1.820   8.762
31668SOL    HW196843   1.765   1.763   8.827
31668SOL    HW296844   1.717   1.905   8.806
31669SOL     OW96845   8.675   0.726  12.017
31669SOL    HW196846   8.697   0.633  12.029
31669SOL    HW296847   8.672   0.737  11.922
31670SOL     OW96848   1.220  11.762   6.799
31670SOL    HW196849   1.308  11.791   6.778
31670SOL    HW296850   1.228  11.719   6.884
31671SOL     OW96851   8.611   1.171  13.600
31671SOL    HW196852   8.684   1.215  13.645
31671SOL    HW296853   8.547   1.239  13.585
31672SOL     OW96854   4.579  12.936   9.306
31672SOL    HW196855   4.527  12.961   9.229
31672SOL    HW296856   4.607  12.846   9.287
31673SOL     OW96857   5.569  13.583  12.562
31673SOL    HW196858   5.583  13.667  12.520
31673SOL    HW296859   5.551  13.522  12.490
31674SOL     OW96860   9.701  12.187   5.839
31674SOL    HW196861   9.640  12.130   5.791
31674SOL    HW296862   9.713  12.263   5.783
31675SOL     OW96863   7.920   0.660   9.492
31675SOL    HW196864   7.965   0.697   9.568
31675SOL    HW296865   7.967   0.696   9.416
31676SOL     OW96866  11.086   7.608   6.121
31676SOL    HW196867  11.013   7.606   6.183
31676SOL    HW296868  11.163   7.627   6.175
31677SOL     OW96869   2.047   3.251   5.805
31677SOL    HW196870   2.138   3.242   5.832
31677SOL    HW296871   1.997   3.222   5.881
31678SOL     OW96872   0.505   8.854   4.415
31678SOL    HW196873   0.530   8.864   4.323
31678SOL    HW296874   0.543   8.931   4.459
31679SOL     OW96875   6.830   8.767   1.052
31679SOL    HW196876   6.831   8.853   1.095
31679SOL    HW296877   6.889   8.713   1.106
31680SOL     OW96878   2.280   9.613   3.590
31680SOL    HW196879   2.310   9.701   3.613
31680SOL    HW296880   2.358   9.569   3.556
31681SOL     OW96881   6.391   6.883  12.836
31681SOL    HW196882   6.478   6.862  12.801
31681SOL    HW296883   6.386   6.834  12.918
31682SOL     OW96884  11.278   2.029   7.835
31682SOL    HW196885  11.358   2.072   7.806
31682SOL    HW296886  11.306   1.977   7.911
31683SOL     OW96887   0.645   8.467   1.980
31683SOL    HW196888   0.726   8.517   1.973
31683SOL    HW296889   0.608   8.492   2.064
31684SOL     OW96890  14.515   5.904   5.143
31684SOL    HW196891  14.543   5.828   5.193
31684SOL    HW296892  14.564   5.977   5.180
31685SOL     OW96893   0.785   8.589   5.601
31685SOL    HW196894   0.847   8.647   5.644
31685SOL    HW296895   0.836   8.546   5.532
31686SOL     OW96896  12.565  12.129   3.059
31686SOL    HW196897  12.492  12.097   3.006
31686SOL    HW296898  12.643  12.088   3.021
31687SOL     OW96899   9.339  12.010   9.791
31687SOL    HW196900   9.409  12.005   9.725
31687SOL    HW296901   9.373  11.963   9.866
31688SOL     OW96902  12.458   3.952  10.172
31688SOL    HW196903  12.432   3.995  10.254
31688SOL    HW296904  12.530   4.005  10.139
31689SOL     OW96905  13.272   6.614  14.453
31689SOL    HW196906  13.274   6.709  14.448
31689SOL    HW296907  13.310   6.584  14.371
31690SOL     OW96908  13.720   1.694  12.633
31690SOL    HW196909  13.813   1.672  12.625
31690SOL    HW296910  13.708   1.771  12.578
31691SOL     OW96911  10.486  14.702  12.195
31691SOL    HW196912  10.518  14.644  12.126
31691SOL    HW296913  10.396  14.674  12.211
31692SOL     OW96914   8.153  11.471   6.434
31692SOL    HW196915   8.140  11.383   6.469
31692SOL    HW296916   8.226  11.462   6.373
31693SOL     OW96917   4.300  11.198   4.988
31693SOL    HW196918   4.322  11.255   4.914
31693SOL    HW296919   4.298  11.257   5.064
31694SOL     OW96920   7.884   4.154  14.677
31694SOL    HW196921   7.958   4.099  14.652
31694SOL    HW296922   7.919   4.243  14.673
31695SOL     OW96923  10.052   6.939   4.397
31695SOL    HW196924  10.025   7.014   4.450
31695SOL    HW296925  10.110   6.977   4.330
31696SOL     OW96926  10.852   9.376   2.442
31696SOL    HW196927  10.798   9.428   2.502
31696SOL    HW296928  10.791   9.315   2.402
31697SOL     OW96929   6.251   5.215   0.252
31697SOL    HW196930   6.184   5.163   0.206
31697SOL    HW296931   6.324   5.155   0.262
31698SOL     OW96932  12.900   8.068   7.344
31698SOL    HW196933  12.806   8.069   7.326
31698SOL    HW296934  12.912   8.002   7.412
31699SOL     OW96935   8.765   9.022  10.076
31699SOL    HW196936   8.716   8.969  10.139
31699SOL    HW296937   8.773   9.108  10.117
31700SOL     OW96938   8.558   5.835  12.881
31700SOL    HW196939   8.583   5.913  12.930
31700SOL    HW296940   8.521   5.777  12.948
31701SOL     OW96941   3.171   8.170   6.052
31701SOL    HW196942   3.204   8.259   6.070
31701SOL    HW296943   3.100   8.158   6.114
31702SOL     OW96944  13.569   2.287   2.629
31702SOL    HW196945  13.555   2.342   2.552
31702SOL    HW296946  13.648   2.321   2.670
31703SOL     OW96947   8.766  14.525  12.029
31703SOL    HW196948   8.808  14.448  12.067
31703SOL    HW296949   8.687  14.492  11.987
31704SOL     OW96950   1.167  10.151   6.984
31704SOL    HW196951   1.201  10.240   6.986
31704SOL    HW296952   1.245  10.096   6.993
31705SOL     OW96953  12.689   7.984   3.924
31705SOL    HW196954  12.688   8.078   3.905
31705SOL    HW296955  12.614   7.949   3.876
31706SOL     OW96956  11.380   4.118  13.728
31706SOL    HW196957  11.433   4.039  13.717
31706SOL    HW296958  11.439   4.190  13.704
31707SOL     OW96959   4.531   8.108   9.527
31707SOL    HW196960   4.544   8.197   9.492
31707SOL    HW296961   4.457   8.074   9.477
31708SOL     OW96962  13.343   4.369  14.071
31708SOL    HW196963  13.427   4.406  14.044
31708SOL    HW296964  13.283   4.444  14.069
31709SOL     OW96965   1.048  13.096   3.604
31709SOL    HW196966   1.001  13.179   3.607
31709SOL    HW296967   1.138  13.121   3.581
31710SOL     OW96968  10.318  14.690   3.185
31710SOL    HW196969  10.253  14.620   3.193
31710SOL    HW296970  10.319  14.710   3.092
31711SOL     OW96971   3.842  10.645  12.442
31711SOL    HW196972   3.830  10.551  12.458
31711SOL    HW296973   3.937  10.657  12.441
31712SOL     OW96974  14.319   0.613   8.520
31712SOL    HW196975  14.412   0.622   8.538
31712SOL    HW296976  14.277   0.629   8.605
31713SOL     OW96977   4.170  11.957   9.063
31713SOL    HW196978   4.236  11.965   9.132
31713SOL    HW296979   4.097  12.012   9.092
31714SOL     OW96980   2.349   5.529   2.575
31714SOL    HW196981   2.274   5.500   2.627
31714SOL    HW296982   2.376   5.451   2.527
31715SOL     OW96983   9.958   3.486   3.757
31715SOL    HW196984   9.873   3.510   3.794
31715SOL    HW296985   9.984   3.408   3.805
31716SOL     OW96986   9.822   8.381   7.059
31716SOL    HW196987   9.892   8.421   7.008
31716SOL    HW296988   9.842   8.404   7.150
31717SOL     OW96989   7.155   8.963   4.308
31717SOL    HW196990   7.168   8.960   4.213
31717SOL    HW296991   7.060   8.953   4.319
31718SOL     OW96992   5.558   6.147   6.712
31718SOL    HW196993   5.600   6.112   6.633
31718SOL    HW296994   5.475   6.098   6.718
31719SOL     OW96995  10.760   2.765  12.686
31719SOL    HW196996  10.777   2.765  12.592
31719SOL    HW296997  10.721   2.851  12.703
31720SOL     OW96998   9.998   9.984   2.518
31720SOL    HW196999  10.004   9.918   2.449
31720SOL    HW297000   9.986  10.067   2.471
31721SOL     OW97001   5.669   4.804  13.761
31721SOL    HW197002   5.624   4.797  13.677
31721SOL    HW297003   5.760   4.825  13.737
31722SOL     OW97004  12.939   8.183   3.525
31722SOL    HW197005  12.949   8.244   3.451
31722SOL    HW297006  12.966   8.233   3.602
31723SOL     OW97007   7.040   5.536  10.067
31723SOL    HW197008   7.075   5.492   9.989
31723SOL    HW297009   7.014   5.622  10.036
31724SOL     OW97010   4.532  11.297   4.854
31724SOL    HW197011   4.581  11.235   4.799
31724SOL    HW297012   4.549  11.269   4.944
31725SOL     OW97013   3.915   1.476  13.442
31725SOL    HW197014   3.938   1.414  13.373
31725SOL    HW297015   3.820   1.473  13.445
31726SOL     OW97016  12.008  10.821  12.531
31726SOL    HW197017  12.041  10.846  12.445
31726SOL    HW297018  12.054  10.740  12.552
31727SOL     OW97019   2.327  13.730  10.280
31727SOL    HW197020   2.233  13.717  10.292
31727SOL    HW297021   2.353  13.662  10.218
31728SOL     OW97022   3.860  13.967   5.723
31728SOL    HW197023   3.926  13.909   5.761
31728SOL    HW297024   3.833  14.023   5.796
31729SOL     OW97025   7.041   5.194  14.385
31729SOL    HW197026   7.018   5.279  14.348
31729SOL    HW297027   7.052   5.211  14.478
31730SOL     OW97028  12.765  11.670  10.078
31730SOL    HW197029  12.710  11.747  10.094
31730SOL    HW297030  12.705  11.603  10.046
31731SOL     OW97031   5.109  12.593  14.864
31731SOL    HW197032   5.103  12.673  14.811
31731SOL    HW297033   5.192  12.553  14.838
31732SOL     OW97034  14.657   9.468   8.469
31732SOL    HW197035  14.676   9.451   8.376
31732SOL    HW297036  14.598   9.543   8.467
31733SOL     OW97037  13.045  13.360   0.078
31733SOL    HW197038  13.114  13.300   0.106
31733SOL    HW297039  12.997  13.312   0.011
31734SOL     OW97040  12.161  10.461   4.696
31734SOL    HW197041  12.228  10.448   4.763
31734SOL    HW297042  12.087  10.408   4.726
31735SOL     OW97043   9.012   1.887  10.387
31735SOL    HW197044   8.931   1.934  10.367
31735SOL    HW297045   9.028   1.833  10.309
31736SOL     OW97046   8.674   2.218   8.280
31736SOL    HW197047   8.622   2.138   8.284
31736SOL    HW297048   8.754   2.193   8.233
31737SOL     OW97049   4.786  10.495   8.914
31737SOL    HW197050   4.854  10.449   8.865
31737SOL    HW297051   4.704  10.469   8.871
31738SOL     OW97052  10.768  10.265   8.396
31738SOL    HW197053  10.701  10.306   8.341
31738SOL    HW297054  10.801  10.193   8.343
31739SOL     OW97055   6.378   7.701  13.462
31739SOL    HW197056   6.395   7.735  13.374
31739SOL    HW297057   6.285   7.679  13.461
31740SOL     OW97058  11.886   0.909   4.621
31740SOL    HW197059  11.822   0.962   4.668
31740SOL    HW297060  11.935   0.972   4.567
31741SOL     OW97061  11.863  10.562   7.597
31741SOL    HW197062  11.893  10.527   7.681
31741SOL    HW297063  11.913  10.513   7.532
31742SOL     OW97064  10.076  12.809  12.796
31742SOL    HW197065  10.020  12.873  12.840
31742SOL    HW297066  10.076  12.837  12.704
31743SOL     OW97067  12.152   1.553   4.639
31743SOL    HW197068  12.226   1.511   4.593
31743SOL    HW297069  12.179   1.556   4.730
31744SOL     OW97070   1.177  11.354   9.720
31744SOL    HW197071   1.130  11.286   9.769
31744SOL    HW297072   1.175  11.324   9.629
31745SOL     OW97073   1.971  13.525   2.904
31745SOL    HW197074   2.039  13.555   2.964
31745SOL    HW297075   2.002  13.439   2.875
31746SOL     OW97076  12.109   5.429   2.914
31746SOL    HW197077  12.140   5.418   3.004
31746SOL    HW297078  12.167   5.374   2.862
31747SOL     OW97079   5.267   2.553   5.401
31747SOL    HW197080   5.236   2.528   5.314
31747SOL    HW297081   5.227   2.639   5.417
31748SOL     OW97082   7.614   6.994   9.610
31748SOL    HW197083   7.581   7.080   9.636
31748SOL    HW297084   7.703   6.992   9.645
31749SOL     OW97085   2.310   3.711   9.096
31749SOL    HW197086   2.233   3.756   9.130
31749SOL    HW297087   2.343   3.660   9.170
31750SOL     OW97088   0.788   7.621   1.381
31750SOL    HW197089   0.796   7.607   1.287
31750SOL    HW297090   0.695   7.639   1.395
31751SOL     OW97091  12.592   7.690  14.152
31751SOL    HW197092  12.665   7.669  14.094
31751SOL    HW297093  12.622   7.661  14.239
31752SOL     OW97094   6.103   0.236   4.396
31752SOL    HW197095   6.139   0.199   4.477
31752SOL    HW297096   6.019   0.192   4.384
31753SOL     OW97097   2.905  14.622   3.475
31753SOL    HW197098   2.943  14.694   3.425
31753SOL    HW297099   2.917  14.647   3.567
31754SOL     OW97100  13.644   5.841   2.682
31754SOL    HW197101  13.697   5.763   2.695
31754SOL    HW297102  13.588   5.821   2.608
31755SOL     OW97103   1.483   0.453   2.925
31755SOL    HW197104   1.406   0.509   2.928
31755SOL    HW297105   1.486   0.421   2.834
31756SOL     OW97106   7.026   5.976  10.435
31756SOL    HW197107   7.028   5.888  10.396
31756SOL    HW297108   6.948   5.976  10.490
31757SOL     OW97109  10.476   6.897   9.366
31757SOL    HW197110  10.553   6.851   9.399
31757SOL    HW297111  10.427   6.830   9.318
31758SOL     OW97112  14.401   4.790   5.792
31758SOL    HW197113  14.450   4.842   5.856
31758SOL    HW297114  14.309   4.811   5.810
31759SOL     OW97115   0.405  12.064   9.084
31759SOL    HW197116   0.484  12.011   9.082
31759SOL    HW297117   0.388  12.078   9.178
31760SOL     OW97118  14.212   0.758   3.433
31760SOL    HW197119  14.120   0.758   3.459
31760SOL    HW297120  14.242   0.669   3.454
31761SOL     OW97121   0.068   6.380   2.340
31761SOL    HW197122  14.866   6.415   2.308
31761SOL    HW297123   0.048   6.350   2.428
31762SOL     OW97124   2.711   7.471   5.452
31762SOL    HW197125   2.767   7.545   5.477
31762SOL    HW297126   2.771   7.397   5.446
31763SOL     OW97127   8.768  11.295   6.496
31763SOL    HW197128   8.757  11.207   6.530
31763SOL    HW297129   8.684  11.338   6.514
31764SOL     OW97130  13.911   8.535   4.847
31764SOL    HW197131  13.917   8.560   4.939
31764SOL    HW297132  13.885   8.443   4.849
31765SOL     OW97133  10.416  13.954  10.174
31765SOL    HW197134  10.420  13.898  10.251
31765SOL    HW297135  10.352  13.912  10.117
31766SOL     OW97136  14.260   2.430   7.717
31766SOL    HW197137  14.283   2.478   7.638
31766SOL    HW297138  14.257   2.497   7.786
31767SOL     OW97139   6.229  11.106   1.862
31767SOL    HW197140   6.206  11.014   1.877
31767SOL    HW297141   6.147  11.154   1.873
31768SOL     OW97142   9.489   9.361   4.884
31768SOL    HW197143   9.535   9.393   4.961
31768SOL    HW297144   9.500   9.431   4.819
31769SOL     OW97145  14.171  10.459  14.657
31769SOL    HW197146  14.117  10.517  14.602
31769SOL    HW297147  14.112  10.433  14.728
31770SOL     OW97148   3.523   7.880  14.291
31770SOL    HW197149   3.602   7.861  14.342
31770SOL    HW297150   3.550   7.871  14.200
31771SOL     OW97151   3.142  10.622  14.329
31771SOL    HW197152   3.188  10.606  14.411
31771SOL    HW297153   3.077  10.552  14.323
31772SOL     OW97154  10.559   4.819   2.896
31772SOL    HW197155  10.614   4.746   2.924
31772SOL    HW297156  10.614   4.896   2.911
31773SOL     OW97157   0.758   1.008   4.003
31773SOL    HW197158   0.803   0.960   4.072
31773SOL    HW297159   0.731   1.091   4.044
31774SOL     OW97160   3.529   5.713  12.821
31774SOL    HW197161   3.561   5.639  12.769
31774SOL    HW297162   3.442   5.686  12.850
31775SOL     OW97163   7.721   4.120   7.917
31775SOL    HW197164   7.629   4.100   7.931
31775SOL    HW297165   7.750   4.058   7.850
31776SOL     OW97166   2.663  13.671   3.598
31776SOL    HW197167   2.708  13.744   3.641
31776SOL    HW297168   2.695  13.594   3.644
31777SOL     OW97169   7.503   9.007   8.854
31777SOL    HW197170   7.428   8.996   8.795
31777SOL    HW297171   7.561   9.067   8.808
31778SOL     OW97172   1.712   1.459  12.672
31778SOL    HW197173   1.715   1.523  12.744
31778SOL    HW297174   1.649   1.394  12.701
31779SOL     OW97175   6.220  13.428   9.861
31779SOL    HW197176   6.167  13.448   9.938
31779SOL    HW297177   6.193  13.491   9.795
31780SOL     OW97178   0.166   8.936   8.774
31780SOL    HW197179   0.250   8.974   8.746
31780SOL    HW297180   0.191   8.855   8.818
31781SOL     OW97181   8.745   0.634   0.200
31781SOL    HW197182   8.675   0.699   0.197
31781SOL    HW297183   8.720   0.569   0.134
31782SOL     OW97184   6.643   6.998   1.765
31782SOL    HW197185   6.722   7.048   1.742
31782SOL    HW297186   6.599   7.052   1.830
31783SOL     OW97187  10.214   2.912   2.489
31783SOL    HW197188  10.231   2.862   2.409
31783SOL    HW297189  10.128   2.882   2.519
31784SOL     OW97190   9.041  14.289   0.194
31784SOL    HW197191   8.960  14.332   0.221
31784SOL    HW297192   9.013  14.224   0.129
31785SOL     OW97193  13.735   1.935  12.500
31785SOL    HW197194  13.800   1.977  12.443
31785SOL    HW297195  13.656   1.989  12.489
31786SOL     OW97196   1.876   7.253  10.205
31786SOL    HW197197   1.957   7.303  10.205
31786SOL    HW297198   1.807   7.319  10.196
31787SOL     OW97199  10.765   3.778  14.382
31787SOL    HW197200  10.820   3.794  14.459
31787SOL    HW297201  10.825   3.787  14.308
31788SOL     OW97202   7.121   7.951   6.935
31788SOL    HW197203   7.198   7.972   6.883
31788SOL    HW297204   7.108   7.857   6.922
31789SOL     OW97205   2.646  11.352  12.857
31789SOL    HW197206   2.699  11.432  12.867
31789SOL    HW297207   2.708  11.286  12.826
31790SOL     OW97208  10.799   6.281   9.570
31790SOL    HW197209  10.730   6.293   9.635
31790SOL    HW297210  10.776   6.200   9.525
31791SOL     OW97211   0.908   1.556  12.386
31791SOL    HW197212   0.988   1.545  12.437
31791SOL    HW297213   0.849   1.487  12.417
31792SOL     OW97214  13.853   7.305  13.139
31792SOL    HW197215  13.864   7.368  13.210
31792SOL    HW297216  13.812   7.229  13.181
31793SOL     OW97217   5.724  10.046  12.136
31793SOL    HW197218   5.670  10.023  12.211
31793SOL    HW297219   5.667  10.030  12.060
31794SOL     OW97220  13.701   3.596   3.326
31794SOL    HW197221  13.766   3.558   3.385
31794SOL    HW297222  13.749   3.664   3.278
31795SOL     OW97223  10.121  12.861  14.164
31795SOL    HW197224  10.084  12.888  14.080
31795SOL    HW297225  10.206  12.904  14.168
31796SOL     OW97226  10.776  13.223   2.923
31796SOL    HW197227  10.829  13.155   2.965
31796SOL    HW297228  10.721  13.257   2.993
31797SOL     OW97229   0.860  11.612  13.170
31797SOL    HW197230   0.794  11.542  13.165
31797SOL    HW297231   0.816  11.689  13.135
31798SOL     OW97232  13.669   7.697  11.514
31798SOL    HW197233  13.718   7.667  11.438
31798SOL    HW297234  13.595   7.744  11.478
31799SOL     OW97235   7.703   2.639  13.840
31799SOL    HW197236   7.723   2.575  13.909
31799SOL    HW297237   7.760   2.714  13.859
31800SOL     OW97238   6.018   9.320   7.846
31800SOL    HW197239   6.032   9.413   7.831
31800SOL    HW297240   6.088   9.277   7.797
31801SOL     OW97241   4.730   0.857   8.345
31801SOL    HW197242   4.721   0.925   8.279
31801SOL    HW297243   4.644   0.854   8.388
31802SOL     OW97244   9.676  11.019   6.550
31802SOL    HW197245   9.732  11.071   6.492
31802SOL    HW297246   9.690  10.928   6.522
31803SOL     OW97247   9.861  13.814  11.507
31803SOL    HW197248   9.933  13.826  11.446
31803SOL    HW297249   9.783  13.805  11.452
31804SOL     OW97250   3.435  13.664   2.211
31804SOL    HW197251   3.421  13.585   2.263
31804SOL    HW297252   3.415  13.638   2.121
31805SOL     OW97253   0.552  13.954  11.112
31805SOL    HW197254   0.631  13.993  11.075
31805SOL    HW297255   0.520  14.019  11.175
31806SOL     OW97256  13.533  14.455  12.559
31806SOL    HW197257  13.518  14.529  12.501
31806SOL    HW297258  13.627  14.458  12.577
31807SOL     OW97259   8.572  11.483  13.513
31807SOL    HW197260   8.531  11.418  13.570
31807SOL    HW297261   8.499  11.529  13.473
31808SOL     OW97262   5.502   9.448  11.450
31808SOL    HW197263   5.471   9.358  11.437
31808SOL    HW297264   5.597   9.441  11.446
31809SOL     OW97265  10.166   4.844   7.310
31809SOL    HW197266  10.198   4.922   7.357
31809SOL    HW297267  10.188   4.860   7.219
31810SOL     OW97268   3.355   0.366   2.278
31810SOL    HW197269   3.332   0.370   2.185
31810SOL    HW297270   3.275   0.339   2.322
31811SOL     OW97271   3.636   6.927   4.113
31811SOL    HW197272   3.638   6.886   4.027
31811SOL    HW297273   3.621   6.854   4.174
31812SOL     OW97274  13.302  10.259   3.863
31812SOL    HW197275  13.220  10.308   3.858
31812SOL    HW297276  13.312  10.238   3.956
31813SOL     OW97277   1.509   6.140   8.876
31813SOL    HW197278   1.489   6.047   8.862
31813SOL    HW297279   1.587   6.155   8.823
31814SOL     OW97280   0.745   6.626   1.662
31814SOL    HW197281   0.695   6.676   1.597
31814SOL    HW297282   0.723   6.667   1.745
31815SOL     OW97283  11.537   7.267   3.713
31815SOL    HW197284  11.545   7.190   3.656
31815SOL    HW297285  11.486   7.236   3.788
31816SOL     OW97286   2.798   4.595   1.524
31816SOL    HW197287   2.787   4.579   1.618
31816SOL    HW297288   2.886   4.630   1.516
31817SOL     OW97289   7.238  12.964  14.480
31817SOL    HW197290   7.171  12.994  14.419
31817SOL    HW297291   7.307  13.029  14.475
31818SOL     OW97292   9.471   8.658   5.157
31818SOL    HW197293   9.506   8.743   5.184
31818SOL    HW297294   9.484   8.656   5.062
31819SOL     OW97295   4.686   8.775   4.671
31819SOL    HW197296   4.597   8.760   4.642
31819SOL    HW297297   4.726   8.687   4.674
31820SOL     OW97298   9.736  11.413  12.619
31820SOL    HW197299   9.785  11.432  12.540
31820SOL    HW297300   9.803  11.403  12.687
31821SOL     OW97301   3.062   5.832   9.025
31821SOL    HW197302   3.114   5.910   9.007
31821SOL    HW297303   3.086   5.806   9.114
31822SOL     OW97304  13.135   1.812   0.604
31822SOL    HW197305  13.076   1.865   0.657
31822SOL    HW297306  13.208   1.871   0.583
31823SOL     OW97307  13.985  10.342  10.300
31823SOL    HW197308  13.995  10.286  10.223
31823SOL    HW297309  14.059  10.318  10.356
31824SOL     OW97310  11.367   9.551   5.200
31824SOL    HW197311  11.337   9.635   5.165
31824SOL    HW297312  11.436   9.574   5.262
31825SOL     OW97313   6.956   5.396   8.741
31825SOL    HW197314   6.907   5.331   8.690
31825SOL    HW297315   7.048   5.368   8.733
31826SOL     OW97316   7.748  12.129  10.494
31826SOL    HW197317   7.705  12.044  10.487
31826SOL    HW297318   7.682  12.186  10.533
31827SOL     OW97319  12.296   3.497   1.608
31827SOL    HW197320  12.261   3.450   1.684
31827SOL    HW297321  12.231   3.564   1.590
31828SOL     OW97322   9.153   6.863   3.866
31828SOL    HW197323   9.196   6.924   3.925
31828SOL    HW297324   9.090   6.816   3.921
31829SOL     OW97325   4.667   6.991   1.815
31829SOL    HW197326   4.605   6.923   1.841
31829SOL    HW297327   4.714   7.013   1.896
31830SOL     OW97328   6.959  13.907   8.879
31830SOL    HW197329   6.896  13.916   8.951
31830SOL    HW297330   6.940  13.822   8.840
31831SOL     OW97331   1.903   2.179   3.460
31831SOL    HW197332   1.998   2.183   3.444
31831SOL    HW297333   1.876   2.270   3.469
31832SOL     OW97334   4.052   0.155   2.700
31832SOL    HW197335   3.990   0.103   2.649
31832SOL    HW297336   4.033   0.245   2.677
31833SOL     OW97337  12.495   0.110   8.204
31833SOL    HW197338  12.544   0.035   8.171
31833SOL    HW297339  12.422   0.120   8.142
31834SOL     OW97340   7.501   4.150  10.000
31834SOL    HW197341   7.552   4.204   9.939
31834SOL    HW297342   7.542   4.166  10.085
31835SOL     OW97343   8.531  10.704   9.698
31835SOL    HW197344   8.524  10.643   9.625
31835SOL    HW297345   8.590  10.662   9.760
31836SOL     OW97346   7.575   5.588   7.052
31836SOL    HW197347   7.523   5.597   7.132
31836SOL    HW297348   7.522   5.533   6.995
31837SOL     OW97349   2.848   6.050   8.886
31837SOL    HW197350   2.912   6.108   8.926
31837SOL    HW297351   2.806   6.005   8.959
31838SOL     OW97352   3.775   8.127  13.498
31838SOL    HW197353   3.681   8.110  13.504
31838SOL    HW297354   3.782   8.205  13.443
31839SOL     OW97355   8.502   0.945   8.767
31839SOL    HW197356   8.466   0.867   8.809
31839SOL    HW297357   8.594   0.922   8.750
31840SOL     OW97358  10.881   8.226  12.252
31840SOL    HW197359  10.801   8.176  12.264
31840SOL    HW297360  10.919   8.232  12.340
31841SOL     OW97361   9.376  13.712  13.872
31841SOL    HW197362   9.311  13.655  13.831
31841SOL    HW297363   9.370  13.794  13.824
31842SOL     OW97364   2.939  10.845   7.797
31842SOL    HW197365   2.965  10.753   7.783
31842SOL    HW297366   2.844  10.843   7.800
31843SOL     OW97367   3.897   0.618  13.141
31843SOL    HW197368   3.831   0.591  13.204
31843SOL    HW297369   3.959   0.545  13.138
31844SOL     OW97370   3.972  14.243   2.510
31844SOL    HW197371   3.914  14.167   2.508
31844SOL    HW297372   3.996  14.253   2.603
31845SOL     OW97373  10.388   6.278   2.720
31845SOL    HW197374  10.381   6.211   2.653
31845SOL    HW297375  10.344   6.354   2.682
31846SOL     OW97376   6.449   8.981   1.336
31846SOL    HW197377   6.424   9.056   1.391
31846SOL    HW297378   6.454   8.907   1.397
31847SOL     OW97379   6.646  10.740   2.585
31847SOL    HW197380   6.707  10.740   2.659
31847SOL    HW297381   6.677  10.668   2.530
31848SOL     OW97382   6.260   1.112   3.841
31848SOL    HW197383   6.267   1.206   3.825
31848SOL    HW297384   6.332   1.074   3.791
31849SOL     OW97385   0.662  11.384   0.999
31849SOL    HW197386   0.696  11.382   1.088
31849SOL    HW297387   0.573  11.417   1.007
31850SOL     OW97388  11.392   8.508   5.842
31850SOL    HW197389  11.430   8.560   5.913
31850SOL    HW297390  11.298   8.511   5.857
31851SOL     OW97391  12.098  13.424   4.207
31851SOL    HW197392  12.047  13.357   4.253
31851SOL    HW297393  12.161  13.455   4.271
31852SOL     OW97394   8.346  10.500   4.515
31852SOL    HW197395   8.386  10.520   4.600
31852SOL    HW297396   8.341  10.405   4.513
31853SOL     OW97397  12.868  10.496   9.646
31853SOL    HW197398  12.910  10.502   9.731
31853SOL    HW297399  12.780  10.461   9.665
31854SOL     OW97400   6.015  13.084   5.643
31854SOL    HW197401   5.996  13.070   5.736
31854SOL    HW297402   5.956  13.154   5.617
31855SOL     OW97403   1.281   8.973   6.016
31855SOL    HW197404   1.299   9.020   6.097
31855SOL    HW297405   1.328   9.022   5.948
31856SOL     OW97406   0.199   1.631   4.223
31856SOL    HW197407   0.229   1.589   4.142
31856SOL    HW297408   0.279   1.650   4.272
31857SOL     OW97409   2.373   7.246   0.673
31857SOL    HW197410   2.397   7.179   0.737
31857SOL    HW297411   2.402   7.328   0.713
31858SOL     OW97412   8.913   3.111   2.504
31858SOL    HW197413   8.884   3.022   2.486
31858SOL    HW297414   8.928   3.112   2.599
31859SOL     OW97415   4.147   6.522   4.799
31859SOL    HW197416   4.127   6.458   4.867
31859SOL    HW297417   4.243   6.520   4.792
31860SOL     OW97418   3.339   9.713   6.104
31860SOL    HW197419   3.261   9.752   6.065
31860SOL    HW297420   3.306   9.659   6.175
31861SOL     OW97421   4.730   0.343  12.536
31861SOL    HW197422   4.806   0.318  12.483
31861SOL    HW297423   4.754   0.427  12.574
31862SOL     OW97424  11.354  10.463   9.033
31862SOL    HW197425  11.297  10.448   9.108
31862SOL    HW297426  11.309  10.530   8.981
31863SOL     OW97427   0.064   8.476   5.983
31863SOL    HW197428   0.116   8.556   5.982
31863SOL    HW297429  14.855   8.507   5.983
31864SOL     OW97430   0.073   0.322  12.527
31864SOL    HW197431   0.017   0.385  12.481
31864SOL    HW297432   0.018   0.290  12.599
31865SOL     OW97433   3.442  10.054   5.273
31865SOL    HW197434   3.453   9.964   5.302
31865SOL    HW297435   3.398  10.098   5.346
31866SOL     OW97436  13.664  13.074   7.144
31866SOL    HW197437  13.627  13.148   7.193
31866SOL    HW297438  13.757  13.076   7.165
31867SOL     OW97439   0.799   8.462  13.715
31867SOL    HW197440   0.732   8.480  13.650
31867SOL    HW297441   0.750   8.444  13.796
31868SOL     OW97442   2.716  14.718   8.510
31868SOL    HW197443   2.693  14.804   8.475
31868SOL    HW297444   2.709  14.659   8.435
31869SOL     OW97445  12.605   4.685   3.462
31869SOL    HW197446  12.604   4.688   3.366
31869SOL    HW297447  12.516   4.708   3.488
31870SOL     OW97448   2.221   8.711   2.664
31870SOL    HW197449   2.152   8.651   2.637
31870SOL    HW297450   2.251   8.676   2.748
31871SOL     OW97451  14.650   3.924   1.868
31871SOL    HW197452  14.588   3.878   1.926
31871SOL    HW297453  14.725   3.943   1.925
31872SOL     OW97454   1.333   2.657   7.083
31872SOL    HW197455   1.403   2.627   7.140
31872SOL    HW297456   1.253   2.620   7.121
31873SOL     OW97457   6.689   1.770   8.268
31873SOL    HW197458   6.716   1.832   8.336
31873SOL    HW297459   6.615   1.724   8.306
31874SOL     OW97460   2.774   3.287   6.458
31874SOL    HW197461   2.765   3.197   6.427
31874SOL    HW297462   2.745   3.341   6.384
31875SOL     OW97463   0.771  13.134  12.845
31875SOL    HW197464   0.833  13.135  12.772
31875SOL    HW297465   0.767  13.042  12.871
31876SOL     OW97466   0.570   3.618   6.657
31876SOL    HW197467   0.643   3.676   6.680
31876SOL    HW297468   0.579   3.543   6.717
31877SOL     OW97469   4.913  11.853   4.419
31877SOL    HW197470   4.856  11.782   4.449
31877SOL    HW297471   4.967  11.814   4.351
31878SOL     OW97472  13.004   7.558   2.638
31878SOL    HW197473  13.070   7.489   2.633
31878SOL    HW297474  12.955   7.540   2.718
31879SOL     OW97475   0.467   8.527  10.882
31879SOL    HW197476   0.514   8.602  10.918
31879SOL    HW297477   0.534   8.459  10.874
31880SOL     OW97478   3.344  10.803   3.397
31880SOL    HW197479   3.307  10.839   3.477
31880SOL    HW297480   3.390  10.724   3.425
31881SOL     OW97481  13.047   6.881   7.590
31881SOL    HW197482  12.966   6.839   7.620
31881SOL    HW297483  13.085   6.818   7.529
31882SOL     OW97484   4.937   5.879  13.609
31882SOL    HW197485   4.853   5.915  13.583
31882SOL    HW297486   4.927   5.859  13.702
31883SOL     OW97487   4.139   7.568   1.338
31883SOL    HW197488   4.138   7.474   1.318
31883SOL    HW297489   4.205   7.604   1.280
31884SOL     OW97490  11.338   4.201  13.992
31884SOL    HW197491  11.270   4.262  14.019
31884SOL    HW297492  11.321   4.185  13.899
31885SOL     OW97493  13.287   8.953  12.471
31885SOL    HW197494  13.233   8.971  12.548
31885SOL    HW297495  13.226   8.922  12.405
31886SOL     OW97496  10.437   6.568   0.970
31886SOL    HW197497  10.368   6.535   1.028
31886SOL    HW297498  10.512   6.582   1.028
31887SOL     OW97499   1.270   3.423   7.991
31887SOL    HW197500   1.260   3.464   7.905
31887SOL    HW297501   1.183   3.390   8.012
31888SOL     OW97502   9.268   8.877  13.216
31888SOL    HW197503   9.282   8.826  13.137
31888SOL    HW297504   9.306   8.824  13.286
31889SOL     OW97505   0.347  14.388  11.648
31889SOL    HW197506   0.418  14.332  11.617
31889SOL    HW297507   0.324  14.353  11.734
31890SOL     OW97508   5.772   6.052   5.969
31890SOL    HW197509   5.736   5.990   5.905
31890SOL    HW297510   5.766   6.137   5.926
31891SOL     OW97511   0.938  12.790  12.640
31891SOL    HW197512   1.005  12.830  12.585
31891SOL    HW297513   0.947  12.696  12.625
31892SOL     OW97514   9.501   6.067   0.176
31892SOL    HW197515   9.406   6.068   0.173
31892SOL    HW297516   9.522   6.057   0.269
31893SOL     OW97517   8.281  13.160  13.998
31893SOL    HW197518   8.212  13.139  13.935
31893SOL    HW297519   8.336  13.224  13.952
31894SOL     OW97520   2.544  11.181   0.387
31894SOL    HW197521   2.528  11.255   0.329
31894SOL    HW297522   2.534  11.217   0.476
31895SOL     OW97523   1.754   6.431   5.057
31895SOL    HW197524   1.809   6.353   5.053
31895SOL    HW297525   1.814   6.501   5.084
31896SOL     OW97526  13.126   3.576   7.848
31896SOL    HW197527  13.039   3.591   7.886
31896SOL    HW297528  13.116   3.600   7.756
31897SOL     OW97529   4.783   2.978   9.666
31897SOL    HW197530   4.705   3.033   9.661
31897SOL    HW297531   4.849   3.026   9.616
31898SOL     OW97532  10.962   0.089   0.102
31898SOL    HW197533  10.894   0.023   0.092
31898SOL    HW297534  11.041   0.040   0.124
31899SOL     OW97535  10.805  12.358   1.430
31899SOL    HW197536  10.713  12.351   1.456
31899SOL    HW297537  10.803  12.396   1.342
31900SOL     OW97538   3.250  14.031   0.860
31900SOL    HW197539   3.305  14.000   0.931
31900SOL    HW297540   3.297  14.008   0.780
31901SOL     OW97541   6.224   0.850  11.485
31901SOL    HW197542   6.209   0.936  11.445
31901SOL    HW297543   6.231   0.790  11.410
31902SOL     OW97544   0.622   5.918  13.132
31902SOL    HW197545   0.533   5.911  13.165
31902SOL    HW297546   0.674   5.864  13.192
31903SOL     OW97547   4.799  14.681   8.819
31903SOL    HW197548   4.776  14.773   8.824
31903SOL    HW297549   4.794  14.650   8.910
31904SOL     OW97550   2.219   3.093   3.695
31904SOL    HW197551   2.187   3.129   3.612
31904SOL    HW297552   2.167   3.138   3.762
31905SOL     OW97553  13.666  12.555  11.581
31905SOL    HW197554  13.741  12.614  11.586
31905SOL    HW297555  13.694  12.486  11.521
31906SOL     OW97556   6.362  12.084   7.992
31906SOL    HW197557   6.397  12.169   7.965
31906SOL    HW297558   6.323  12.048   7.913
31907SOL     OW97559   5.845  11.216   8.371
31907SOL    HW197560   5.751  11.202   8.384
31907SOL    HW297561   5.854  11.309   8.351
31908SOL     OW97562   6.663  13.250   2.644
31908SOL    HW197563   6.633  13.231   2.556
31908SOL    HW297564   6.723  13.324   2.633
31909SOL     OW97565   6.742   4.595   4.723
31909SOL    HW197566   6.824   4.612   4.769
31909SOL    HW297567   6.704   4.682   4.709
31910SOL     OW97568   2.476   0.794   0.383
31910SOL    HW197569   2.435   0.879   0.369
31910SOL    HW297570   2.561   0.800   0.339
31911SOL     OW97571  14.547  13.494  14.381
31911SOL    HW197572  14.561  13.540  14.298
31911SOL    HW297573  14.452  13.491  14.391
31912SOL     OW97574  11.072  10.838   0.908
31912SOL    HW197575  11.092  10.930   0.927
31912SOL    HW297576  11.154  10.792   0.925
31913SOL     OW97577   1.734  10.450   2.677
31913SOL    HW197578   1.757  10.357   2.680
31913SOL    HW297579   1.755  10.482   2.765
31914SOL     OW97580   5.354   8.606  10.338
31914SOL    HW197581   5.325   8.571  10.423
31914SOL    HW297582   5.333   8.699  10.342
31915SOL     OW97583   4.063   9.948  13.600
31915SOL    HW197584   4.142   9.898  13.580
31915SOL    HW297585   4.089  10.040  13.591
31916SOL     OW97586   1.048   0.480  12.667
31916SOL    HW197587   1.104   0.549  12.704
31916SOL    HW297588   1.079   0.400  12.710
31917SOL     OW97589  10.384  13.755   9.965
31917SOL    HW197590  10.452  13.722  10.022
31917SOL    HW297591  10.415  13.736   9.876
31918SOL     OW97592  14.195   5.278  13.744
31918SOL    HW197593  14.258   5.211  13.771
31918SOL    HW297594  14.226   5.308  13.658
31919SOL     OW97595  12.607   2.241   6.006
31919SOL    HW197596  12.657   2.229   6.087
31919SOL    HW297597  12.662   2.298   5.952
31920SOL     OW97598   8.597   5.951  14.387
31920SOL    HW197599   8.622   5.983  14.301
31920SOL    HW297600   8.527   6.010  14.415
31921SOL     OW97601  14.059   3.608  12.172
31921SOL    HW197602  14.044   3.519  12.139
31921SOL    HW297603  14.130   3.598  12.235
31922SOL     OW97604  12.735   0.314  14.144
31922SOL    HW197605  12.820   0.321  14.101
31922SOL    HW297606  12.689   0.246  14.094
31923SOL     OW97607  13.498  13.060   3.962
31923SOL    HW197608  13.405  13.043   3.949
31923SOL    HW297609  13.507  13.154   3.949
31924SOL     OW97610   2.886   4.258  12.803
31924SOL    HW197611   2.917   4.185  12.749
31924SOL    HW297612   2.821   4.302  12.749
31925SOL     OW97613  11.625  13.412   6.638
31925SOL    HW197614  11.560  13.469   6.597
31925SOL    HW297615  11.581  13.375   6.714
31926SOL     OW97616  12.510   3.030  11.437
31926SOL    HW197617  12.472   3.112  11.404
31926SOL    HW297618  12.436   2.971  11.446
31927SOL     OW97619   7.009  14.561   0.613
31927SOL    HW197620   7.104  14.552   0.618
31927SOL    HW297621   6.981  14.493   0.552
31928SOL     OW97622   2.444   2.258   4.764
31928SOL    HW197623   2.407   2.339   4.799
31928SOL    HW297624   2.419   2.257   4.672
31929SOL     OW97625  13.974   7.191   5.397
31929SOL    HW197626  13.962   7.101   5.425
31929SOL    HW297627  14.061   7.215   5.428
31930SOL     OW97628   6.242  12.594   3.837
31930SOL    HW197629   6.269  12.502   3.833
31930SOL    HW297630   6.211  12.614   3.749
31931SOL     OW97631   9.029  13.343   8.480
31931SOL    HW197632   8.989  13.429   8.494
31931SOL    HW297633   9.019  13.327   8.386
31932SOL     OW97634   3.257  13.565   7.169
31932SOL    HW197635   3.223  13.476   7.158
31932SOL    HW297636   3.223  13.614   7.094
31933SOL     OW97637  14.834   8.432   7.784
31933SOL    HW197638  14.850   8.404   7.875
31933SOL    HW297639  14.845   8.353   7.732
31934SOL     OW97640  13.693   1.762   5.804
31934SOL    HW197641  13.610   1.806   5.823
31934SOL    HW297642  13.759   1.829   5.815
31935SOL     OW97643  14.125  12.465   6.530
31935SOL    HW197644  14.141  12.555   6.502
31935SOL    HW297645  14.048  12.471   6.586
31936SOL     OW97646   2.290   4.068  10.715
31936SOL    HW197647   2.359   4.007  10.687
31936SOL    HW297648   2.256   4.105  10.634
31937SOL     OW97649   6.745   7.559  12.954
31937SOL    HW197650   6.759   7.478  12.906
31937SOL    HW297651   6.656   7.552  12.988
31938SOL     OW97652   3.318   6.458   5.107
31938SOL    HW197653   3.347   6.378   5.063
31938SOL    HW297654   3.326   6.526   5.040
31939SOL     OW97655   9.298  13.129   1.249
31939SOL    HW197656   9.215  13.111   1.205
31939SOL    HW297657   9.278  13.201   1.309
31940SOL     OW97658  10.525  14.619   1.905
31940SOL    HW197659  10.447  14.575   1.873
31940SOL    HW297660  10.530  14.596   1.998
31941SOL     OW97661   8.799   9.225   8.430
31941SOL    HW197662   8.766   9.203   8.517
31941SOL    HW297663   8.882   9.178   8.423
31942SOL     OW97664  11.700   8.898   2.836
31942SOL    HW197665  11.667   8.855   2.757
31942SOL    HW297666  11.795   8.900   2.825
31943SOL     OW97667   4.268   8.452   8.820
31943SOL    HW197668   4.242   8.454   8.912
31943SOL    HW297669   4.336   8.384   8.816
31944SOL     OW97670   8.066   3.851   1.656
31944SOL    HW197671   8.016   3.912   1.601
31944SOL    HW297672   8.016   3.770   1.651
31945SOL     OW97673   4.691   7.635  14.663
31945SOL    HW197674   4.731   7.720  14.644
31945SOL    HW297675   4.762   7.582  14.697
31946SOL     OW97676  10.965   2.805   3.360
31946SOL    HW197677  10.908   2.740   3.402
31946SOL    HW297678  10.930   2.889   3.388
31947SOL     OW97679   1.024   8.821   1.416
31947SOL    HW197680   1.045   8.805   1.508
31947SOL    HW297681   1.092   8.773   1.367
31948SOL     OW97682   8.717  12.279   7.764
31948SOL    HW197683   8.680  12.330   7.692
31948SOL    HW297684   8.656  12.292   7.837
31949SOL     OW97685  12.972   5.719   1.020
31949SOL    HW197686  12.944   5.648   1.078
31949SOL    HW297687  13.061   5.740   1.049
31950SOL     OW97688   3.257   1.482   7.250
31950SOL    HW197689   3.241   1.411   7.189
31950SOL    HW297690   3.177   1.534   7.249
31951SOL     OW97691   8.244   2.541   3.827
31951SOL    HW197692   8.338   2.528   3.814
31951SOL    HW297693   8.237   2.621   3.878
31952SOL     OW97694  11.881   7.318  13.034
31952SOL    HW197695  11.974   7.338  13.025
31952SOL    HW297696  11.876   7.223  13.026
31953SOL     OW97697  10.661   9.831  14.520
31953SOL    HW197698  10.685   9.917  14.556
31953SOL    HW297699  10.653   9.847  14.426
31954SOL     OW97700   6.839   3.614   2.617
31954SOL    HW197701   6.821   3.554   2.544
31954SOL    HW297702   6.897   3.564   2.675
31955SOL     OW97703  11.848   0.734   6.795
31955SOL    HW197704  11.801   0.683   6.861
31955SOL    HW297705  11.780   0.779   6.746
31956SOL     OW97706   1.576  13.358  14.003
31956SOL    HW197707   1.595  13.444  14.038
31956SOL    HW297708   1.639  13.300  14.046
31957SOL     OW97709   4.406   2.313   8.629
31957SOL    HW197710   4.461   2.379   8.671
31957SOL    HW297711   4.407   2.239   8.689
31958SOL     OW97712  10.064  13.917  13.429
31958SOL    HW197713   9.992  13.859  13.453
31958SOL    HW297714  10.044  13.946  13.340
31959SOL     OW97715  10.035   0.362   2.359
31959SOL    HW197716  10.070   0.279   2.392
31959SOL    HW297717   9.978   0.336   2.286
31960SOL     OW97718  14.806   1.924  14.776
31960SOL    HW197719  14.862   1.939  14.852
31960SOL    HW297720  14.723   1.894  14.812
31961SOL     OW97721  10.537   1.395  13.927
31961SOL    HW197722  10.524   1.302  13.944
31961SOL    HW297723  10.537   1.436  14.013
31962SOL     OW97724  13.016   7.313  14.493
31962SOL    HW197725  13.058   7.368  14.428
31962SOL    HW297726  13.089   7.276  14.544
31963SOL     OW97727  10.319   1.962  12.698
31963SOL    HW197728  10.367   2.041  12.724
31963SOL    HW297729  10.365   1.891  12.742
31964SOL     OW97730   4.801   9.984  10.685
31964SOL    HW197731   4.786   9.897  10.720
31964SOL    HW297732   4.896   9.989  10.674
31965SOL     OW97733   5.144   9.742   6.663
31965SOL    HW197734   5.063   9.742   6.714
31965SOL    HW297735   5.129   9.679   6.593
31966SOL     OW97736  12.588   7.349   0.521
31966SOL    HW197737  12.494   7.351   0.536
31966SOL    HW297738  12.622   7.293   0.591
31967SOL     OW97739   0.058  13.635   8.463
31967SOL    HW197740   0.081  13.615   8.554
31967SOL    HW297741   0.100  13.566   8.412
31968SOL     OW97742   7.662  10.883  12.961
31968SOL    HW197743   7.662  10.797  13.004
31968SOL    HW297744   7.726  10.935  13.010
31969SOL     OW97745   0.668   6.293  12.066
31969SOL    HW197746   0.593   6.234  12.053
31969SOL    HW297747   0.709   6.298  11.979
31970SOL     OW97748  13.850  11.648   7.441
31970SOL    HW197749  13.940  11.629   7.414
31970SOL    HW297750  13.802  11.567   7.423
31971SOL     OW97751   0.229  10.330   1.593
31971SOL    HW197752   0.153  10.274   1.578
31971SOL    HW297753   0.270  10.339   1.506
31972SOL     OW97754   8.931   5.560  10.595
31972SOL    HW197755   8.878   5.490  10.632
31972SOL    HW297756   8.978   5.518  10.522
31973SOL     OW97757   2.376  11.026   8.800
31973SOL    HW197758   2.412  11.112   8.779
31973SOL    HW297759   2.295  11.044   8.847
31974SOL     OW97760   1.136  11.007   0.904
31974SOL    HW197761   1.049  11.037   0.878
31974SOL    HW297762   1.178  10.982   0.822
31975SOL     OW97763  11.897   4.348  10.545
31975SOL    HW197764  11.874   4.351  10.452
31975SOL    HW297765  11.992   4.336  10.546
31976SOL     OW97766  10.073  11.117   9.310
31976SOL    HW197767  10.079  11.208   9.337
31976SOL    HW297768  10.001  11.082   9.362
31977SOL     OW97769  10.293   3.712  12.366
31977SOL    HW197770  10.226   3.780  12.364
31977SOL    HW297771  10.364   3.749  12.419
31978SOL     OW97772   4.834   6.872   9.376
31978SOL    HW197773   4.895   6.917   9.317
31978SOL    HW297774   4.883   6.861   9.457
31979SOL     OW97775   3.229   2.719   3.999
31979SOL    HW197776   3.202   2.639   3.954
31979SOL    HW297777   3.223   2.697   4.092
31980SOL     OW97778  11.037   2.875   3.690
31980SOL    HW197779  10.974   2.806   3.711
31980SOL    HW297780  10.987   2.956   3.699
31981SOL     OW97781   5.537   5.152   8.242
31981SOL    HW197782   5.582   5.077   8.202
31981SOL    HW297783   5.539   5.134   8.336
31982SOL     OW97784   5.291  10.970   4.813
31982SOL    HW197785   5.220  11.011   4.861
31982SOL    HW297786   5.356  10.947   4.879
31983SOL     OW97787  10.067   0.961  12.035
31983SOL    HW197788  10.071   0.878  11.987
31983SOL    HW297789  10.090   0.937  12.125
31984SOL     OW97790   2.957  12.023  11.537
31984SOL    HW197791   2.869  12.011  11.573
31984SOL    HW297792   2.974  11.943  11.487
31985SOL     OW97793   6.821   0.790   8.488
31985SOL    HW197794   6.759   0.862   8.497
31985SOL    HW297795   6.838   0.784   8.394
31986SOL     OW97796  11.214  13.017   2.357
31986SOL    HW197797  11.177  12.949   2.413
31986SOL    HW297798  11.307  13.020   2.382
31987SOL     OW97799   7.410   4.994  12.204
31987SOL    HW197800   7.374   5.067  12.153
31987SOL    HW297801   7.402   4.919  12.145
31988SOL     OW97802  10.195   3.927   2.426
31988SOL    HW197803  10.234   3.906   2.341
31988SOL    HW297804  10.163   4.016   2.416
31989SOL     OW97805  11.714   5.901   1.545
31989SOL    HW197806  11.690   5.818   1.504
31989SOL    HW297807  11.633   5.951   1.546
31990SOL     OW97808   7.501   9.018   7.798
31990SOL    HW197809   7.477   8.979   7.883
31990SOL    HW297810   7.554   8.950   7.755
31991SOL     OW97811   7.596   8.087   4.224
31991SOL    HW197812   7.682   8.051   4.248
31991SOL    HW297813   7.554   8.017   4.173
31992SOL     OW97814   0.013   1.917   7.928
31992SOL    HW197815   0.048   1.980   7.865
31992SOL    HW297816   0.080   1.912   7.996
31993SOL     OW97817   0.510   2.922  11.265
31993SOL    HW197818   0.580   2.879  11.216
31993SOL    HW297819   0.452   2.851  11.292
31994SOL     OW97820  13.987   0.373   5.784
31994SOL    HW197821  13.996   0.285   5.748
31994SOL    HW297822  14.076   0.397   5.811
31995SOL     OW97823   6.489   7.124   6.203
31995SOL    HW197824   6.528   7.208   6.178
31995SOL    HW297825   6.514   7.113   6.295
31996SOL     OW97826   5.814   5.072   1.741
31996SOL    HW197827   5.775   5.105   1.822
31996SOL    HW297828   5.863   4.995   1.768
31997SOL     OW97829  11.991   6.494   8.225
31997SOL    HW197830  11.996   6.440   8.146
31997SOL    HW297831  12.083   6.512   8.247
31998SOL     OW97832  12.409   5.836   7.829
31998SOL    HW197833  12.366   5.812   7.747
31998SOL    HW297834  12.498   5.862   7.803
31999SOL     OW97835   4.700   9.914   7.437
31999SOL    HW197836   4.793   9.933   7.447
31999SOL    HW297837   4.695   9.818   7.444
32000SOL     OW97838   1.587  12.810   0.457
32000SOL    HW197839   1.640  12.877   0.500
32000SOL    HW297840   1.617  12.809   0.367
32001SOL     OW97841   1.334   0.891  11.947
32001SOL    HW197842   1.254   0.872  11.997
32001SOL    HW297843   1.305   0.890  11.856
32002SOL     OW97844  11.710   9.740  10.904
32002SOL    HW197845  11.617   9.755  10.884
32002SOL    HW297846  11.757   9.773  10.828
32003SOL     OW97847   8.606   4.589  11.574
32003SOL    HW197848   8.691   4.630  11.585
32003SOL    HW297849   8.615   4.503  11.615
32004SOL     OW97850   5.232  11.440   6.872
32004SOL    HW197851   5.198  11.456   6.784
32004SOL    HW297852   5.189  11.359   6.899
32005SOL     OW97853   5.850   3.938   9.358
32005SOL    HW197854   5.800   3.969   9.433
32005SOL    HW297855   5.783   3.907   9.296
32006SOL     OW97856   8.205   8.606   0.395
32006SOL    HW197857   8.298   8.607   0.372
32006SOL    HW297858   8.163   8.659   0.328
32007SOL     OW97859   8.685   5.660   3.342
32007SOL    HW197860   8.691   5.653   3.438
32007SOL    HW297861   8.603   5.706   3.326
32008SOL     OW97862   4.133  12.613   3.233
32008SOL    HW197863   4.061  12.607   3.296
32008SOL    HW297864   4.169  12.525   3.230
32009SOL     OW97865  13.117  10.233   4.455
32009SOL    HW197866  13.095  10.223   4.363
32009SOL    HW297867  13.177  10.160   4.473
32010SOL     OW97868  12.047   2.742  10.220
32010SOL    HW197869  11.990   2.665  10.212
32010SOL    HW297870  12.088   2.750  10.134
32011SOL     OW97871  12.130   4.638   5.844
32011SOL    HW197872  12.047   4.592   5.828
32011SOL    HW297873  12.124   4.716   5.788
32012SOL     OW97874   4.137  11.725   2.689
32012SOL    HW197875   4.125  11.645   2.639
32012SOL    HW297876   4.232  11.733   2.698
32013SOL     OW97877   8.878   1.665   9.246
32013SOL    HW197878   8.783   1.663   9.256
32013SOL    HW297879   8.903   1.754   9.271
32014SOL     OW97880   1.234  10.348   3.945
32014SOL    HW197881   1.172  10.348   4.018
32014SOL    HW297882   1.298  10.281   3.968
32015SOL     OW97883   3.926   6.046   0.534
32015SOL    HW197884   3.997   6.105   0.557
32015SOL    HW297885   3.856   6.104   0.503
32016SOL     OW97886   3.089  14.516   0.080
32016SOL    HW197887   3.102  14.568   0.160
32016SOL    HW297888   3.048  14.435   0.110
32017SOL     OW97889   1.868   1.209   4.260
32017SOL    HW197890   1.921   1.285   4.238
32017SOL    HW297891   1.877   1.199   4.355
32018SOL     OW97892   6.869  11.546   2.814
32018SOL    HW197893   6.896  11.637   2.802
32018SOL    HW297894   6.776  11.552   2.839
32019SOL     OW97895  11.430  13.690   9.242
32019SOL    HW197896  11.365  13.759   9.226
32019SOL    HW297897  11.489  13.728   9.307
32020SOL     OW97898   0.987   9.767   0.507
32020SOL    HW197899   1.009   9.846   0.458
32020SOL    HW297900   1.049   9.766   0.580
32021SOL     OW97901   3.012   7.951   6.464
32021SOL    HW197902   2.935   8.008   6.473
32021SOL    HW297903   3.051   7.977   6.380
32022SOL     OW97904   4.809  11.429   0.461
32022SOL    HW197905   4.821  11.388   0.547
32022SOL    HW297906   4.734  11.487   0.473
32023SOL     OW97907  11.990   6.081  12.230
32023SOL    HW197908  12.064   6.132  12.262
32023SOL    HW297909  11.920   6.098  12.292
32024SOL     OW97910  14.598   1.075   7.230
32024SOL    HW197911  14.504   1.061   7.224
32024SOL    HW297912  14.615   1.084   7.324
32025SOL     OW97913   5.223   5.063  12.370
32025SOL    HW197914   5.172   4.982  12.374
32025SOL    HW297915   5.171   5.127  12.418
32026SOL     OW97916  10.965  11.417   5.040
32026SOL    HW197917  10.892  11.467   5.004
32026SOL    HW297918  11.029  11.483   5.066
32027SOL     OW97919   9.261   5.798  14.863
32027SOL    HW197920   9.257   5.712   0.023
32027SOL    HW297921   9.300   5.782  14.777
32028SOL     OW97922  10.987   2.509   3.169
32028SOL    HW197923  10.942   2.593   3.162
32028SOL    HW297924  11.073   2.525   3.130
32029SOL     OW97925   9.743  14.097   8.359
32029SOL    HW197926   9.677  14.113   8.427
32029SOL    HW297927   9.718  14.013   8.321
32030SOL     OW97928  14.633  14.732   5.348
32030SOL    HW197929  14.632  14.820   5.311
32030SOL    HW297930  14.575  14.681   5.292
32031SOL     OW97931  14.318  11.184   6.280
32031SOL    HW197932  14.336  11.264   6.230
32031SOL    HW297933  14.268  11.129   6.221
32032SOL     OW97934   9.271  14.687  10.880
32032SOL    HW197935   9.360  14.716  10.857
32032SOL    HW297936   9.219  14.768  10.880
32033SOL     OW97937   2.241   9.844  12.411
32033SOL    HW197938   2.300   9.889  12.350
32033SOL    HW297939   2.187   9.914  12.447
32034SOL     OW97940   8.001   6.674  11.024
32034SOL    HW197941   7.973   6.735  11.092
32034SOL    HW297942   8.076   6.716  10.982
32035SOL     OW97943   6.565   6.864   5.409
32035SOL    HW197944   6.559   6.919   5.331
32035SOL    HW297945   6.541   6.776   5.378
32036SOL     OW97946  12.478  12.904   8.568
32036SOL    HW197947  12.501  12.818   8.603
32036SOL    HW297948  12.448  12.954   8.644
32037SOL     OW97949  14.658   0.644  14.623
32037SOL    HW197950  14.597   0.576  14.595
32037SOL    HW297951  14.709   0.603  14.693
32038SOL     OW97952   9.884   2.125  10.159
32038SOL    HW197953   9.943   2.050  10.173
32038SOL    HW297954   9.821   2.118  10.230
32039SOL     OW97955  12.927   3.855   4.302
32039SOL    HW197956  12.913   3.770   4.344
32039SOL    HW297957  12.901   3.841   4.211
32040SOL     OW97958   7.101  11.924  11.211
32040SOL    HW197959   7.104  11.841  11.163
32040SOL    HW297960   7.023  11.918  11.266
32041SOL     OW97961  13.764   2.397  10.113
32041SOL    HW197962  13.690   2.413  10.171
32041SOL    HW297963  13.821   2.473  10.125
32042SOL     OW97964   6.783   0.388   2.124
32042SOL    HW197965   6.708   0.400   2.066
32042SOL    HW297966   6.844   0.333   2.073
32043SOL     OW97967   8.412  14.721  14.599
32043SOL    HW197968   8.448  14.682  14.679
32043SOL    HW297969   8.392  14.646  14.543
32044SOL     OW97970  13.748   3.037   2.281
32044SOL    HW197971  13.704   3.088   2.213
32044SOL    HW297972  13.754   3.097   2.356
32045SOL     OW97973   1.370   0.572   6.331
32045SOL    HW197974   1.276   0.569   6.319
32045SOL    HW297975   1.405   0.507   6.269
32046SOL     OW97976   3.757  11.113   2.218
32046SOL    HW197977   3.847  11.078   2.222
32046SOL    HW297978   3.765  11.195   2.170
32047SOL     OW97979   2.389  11.991   6.983
32047SOL    HW197980   2.352  12.007   6.896
32047SOL    HW297981   2.316  12.005   7.043
32048SOL     OW97982   3.164  11.895  10.210
32048SOL    HW197983   3.258  11.879  10.223
32048SOL    HW297984   3.133  11.921  10.297
32049SOL     OW97985   2.400  14.664  14.845
32049SOL    HW197986   2.353  14.744  14.868
32049SOL    HW297987   2.492  14.685  14.861
32050SOL     OW97988   9.251   4.769   8.735
32050SOL    HW197989   9.273   4.852   8.692
32050SOL    HW297990   9.198   4.722   8.670
32051SOL     OW97991   8.805   8.958  14.027
32051SOL    HW197992   8.894   8.953  14.061
32051SOL    HW297993   8.751   8.971  14.105
32052SOL     OW97994  12.164  11.301  11.828
32052SOL    HW197995  12.147  11.386  11.786
32052SOL    HW297996  12.151  11.237  11.759
32053SOL     OW97997   8.598   6.275   8.695
32053SOL    HW197998   8.667   6.216   8.665
32053SOL    HW297999   8.525   6.260   8.635
32054SOL     OW98000   2.772  10.155   2.261
32054SOL    HW198001   2.732  10.149   2.175
32054SOL    HW298002   2.702  10.134   2.322
32055SOL     OW98003  11.642  13.373   8.063
32055SOL    HW198004  11.708  13.322   8.111
32055SOL    HW298005  11.586  13.410   8.131
32056SOL     OW98006  12.174  14.726  12.841
32056SOL    HW198007  12.137  14.792  12.900
32056SOL    HW298008  12.159  14.760  12.753
32057SOL     OW98009  13.757   2.768   6.462
32057SOL    HW198010  13.799   2.854   6.466
32057SOL    HW298011  13.671   2.781   6.504
32058SOL     OW98012  14.486  13.816   6.232
32058SOL    HW198013  14.396  13.799   6.261
32058SOL    HW298014  14.532  13.843   6.311
32059SOL     OW98015   8.801   6.554   1.438
32059SOL    HW198016   8.752   6.587   1.513
32059SOL    HW298017   8.777   6.462   1.431
32060SOL     OW98018   1.372  14.419  11.361
32060SOL    HW198019   1.409  14.345  11.410
32060SOL    HW298020   1.438  14.439  11.295
32061SOL     OW98021   7.131   7.059   9.035
32061SOL    HW198022   7.167   7.121   9.098
32061SOL    HW298023   7.046   7.034   9.072
32062SOL     OW98024  13.834  11.115  11.310
32062SOL    HW198025  13.826  11.210  11.304
32062SOL    HW298026  13.780  11.092  11.387
32063SOL     OW98027  12.656   4.347   9.359
32063SOL    HW198028  12.686   4.426   9.403
32063SOL    HW298029  12.632   4.376   9.271
32064SOL     OW98030   7.225  12.547  10.069
32064SOL    HW198031   7.163  12.606  10.026
32064SOL    HW298032   7.295  12.605  10.102
32065SOL     OW98033  10.180   9.873   1.581
32065SOL    HW198034  10.158   9.823   1.659
32065SOL    HW298035  10.174   9.810   1.509
32066SOL     OW98036   3.583  12.382   5.730
32066SOL    HW198037   3.608  12.468   5.697
32066SOL    HW298038   3.523  12.348   5.664
32067SOL     OW98039  10.271   4.338   1.216
32067SOL    HW198040  10.255   4.417   1.164
32067SOL    HW298041  10.305   4.371   1.299
32068SOL     OW98042   7.790   3.461   4.404
32068SOL    HW198043   7.847   3.462   4.327
32068SOL    HW298044   7.795   3.550   4.439
32069SOL     OW98045   2.447   0.265   1.974
32069SOL    HW198046   2.529   0.215   1.970
32069SOL    HW298047   2.408   0.238   2.058
32070SOL     OW98048   1.964   2.146  13.575
32070SOL    HW198049   1.985   2.237  13.596
32070SOL    HW298050   1.932   2.109  13.657
32071SOL     OW98051  11.814   2.372   4.050
32071SOL    HW198052  11.747   2.440   4.044
32071SOL    HW298053  11.822   2.337   3.961
32072SOL     OW98054  14.800   8.574   4.973
32072SOL    HW198055  14.877   8.630   4.968
32072SOL    HW298056  14.784   8.562   5.067
32073SOL     OW98057  14.738   7.834   6.629
32073SOL    HW198058  14.830   7.806   6.632
32073SOL    HW298059  14.713   7.844   6.721
32074SOL     OW98060   7.691   1.155  12.434
32074SOL    HW198061   7.646   1.077  12.469
32074SOL    HW298062   7.783   1.132  12.436
32075SOL     OW98063   8.981   7.836   6.855
32075SOL    HW198064   8.979   7.901   6.925
32075SOL    HW298065   9.025   7.881   6.782
32076SOL     OW98066   5.296   2.258  13.654
32076SOL    HW198067   5.294   2.354  13.644
32076SOL    HW298068   5.204   2.235  13.670
32077SOL     OW98069   5.410   7.368  12.917
32077SOL    HW198070   5.485   7.340  12.970
32077SOL    HW298071   5.428   7.333  12.830
32078SOL     OW98072   8.339  11.380   9.902
32078SOL    HW198073   8.378  11.462   9.874
32078SOL    HW298074   8.244  11.397   9.900
32079SOL     OW98075   1.507   5.296  11.608
32079SOL    HW198076   1.593   5.337  11.613
32079SOL    HW298077   1.504   5.256  11.522
32080SOL     OW98078   4.570   2.154  14.713
32080SOL    HW198079   4.548   2.079  14.768
32080SOL    HW298080   4.658   2.180  14.741
32081SOL     OW98081  13.608  13.890   9.280
32081SOL    HW198082  13.657  13.811   9.303
32081SOL    HW298083  13.571  13.921   9.363
32082SOL     OW98084  14.684   7.861   4.988
32082SOL    HW198085  14.624   7.792   5.017
32082SOL    HW298086  14.746   7.816   4.931
32083SOL     OW98087   8.383   7.817  14.273
32083SOL    HW198088   8.322   7.809  14.200
32083SOL    HW298089   8.470   7.809  14.232
32084SOL     OW98090   7.271   7.567   3.188
32084SOL    HW198091   7.322   7.631   3.238
32084SOL    HW298092   7.180   7.587   3.210
32085SOL     OW98093   9.275  11.556  11.558
32085SOL    HW198094   9.234  11.642  11.552
32085SOL    HW298095   9.224  11.501  11.498
32086SOL     OW98096   9.042  10.870  13.447
32086SOL    HW198097   9.063  10.818  13.369
32086SOL    HW298098   9.059  10.960  13.420
32087SOL     OW98099   0.776   0.052   2.678
32087SOL    HW198100   0.712  14.870   2.710
32087SOL    HW298101   0.836   0.000   2.624
32088SOL     OW98102   1.206   0.067   7.087
32088SOL    HW198103   1.284   0.027   7.126
32088SOL    HW298104   1.220   0.059   6.993
32089SOL     OW98105  13.406   8.324  10.141
32089SOL    HW198106  13.501   8.337  10.143
32089SOL    HW298107  13.392   8.268  10.065
32090SOL     OW98108  14.249   4.473   5.398
32090SOL    HW198109  14.287   4.557   5.423
32090SOL    HW298110  14.267   4.415   5.472
32091SOL     OW98111   2.552   7.966   8.249
32091SOL    HW198112   2.521   8.042   8.199
32091SOL    HW298113   2.559   7.896   8.184
32092SOL     OW98114   6.508   9.095   3.809
32092SOL    HW198115   6.423   9.100   3.766
32092SOL    HW298116   6.510   9.171   3.868
32093SOL     OW98117  14.742  13.246   5.901
32093SOL    HW198118  14.833  13.214   5.896
32093SOL    HW298119  14.744  13.332   5.859
32094SOL     OW98120   3.014   4.444   2.916
32094SOL    HW198121   3.045   4.532   2.893
32094SOL    HW298122   2.967   4.414   2.838
32095SOL     OW98123  13.499  13.910   1.899
32095SOL    HW198124  13.409  13.881   1.916
32095SOL    HW298125  13.489  13.981   1.836
32096SOL     OW98126   8.884  14.002  11.595
32096SOL    HW198127   8.906  13.985  11.687
32096SOL    HW298128   8.939  14.076  11.570
32097SOL     OW98129   5.043   1.873  14.107
32097SOL    HW198130   4.980   1.809  14.072
32097SOL    HW298131   4.998   1.911  14.182
32098SOL     OW98132   2.365   0.148  11.454
32098SOL    HW198133   2.350   0.123  11.545
32098SOL    HW298134   2.459   0.141  11.442
32099SOL     OW98135   6.993   4.832   4.208
32099SOL    HW198136   7.058   4.762   4.202
32099SOL    HW298137   7.044   4.912   4.214
32100SOL     OW98138  10.246   5.024   7.810
32100SOL    HW198139  10.278   5.022   7.719
32100SOL    HW298140  10.298   5.093   7.851
32101SOL     OW98141   1.756   7.150   6.151
32101SOL    HW198142   1.787   7.229   6.196
32101SOL    HW298143   1.695   7.183   6.085
32102SOL     OW98144   3.981   2.676  11.270
32102SOL    HW198145   3.997   2.754  11.323
32102SOL    HW298146   3.888   2.659  11.279
32103SOL     OW98147  14.193   7.750   2.722
32103SOL    HW198148  14.252   7.824   2.737
32103SOL    HW298149  14.128   7.783   2.660
32104SOL     OW98150   0.873   0.638   6.884
32104SOL    HW198151   0.888   0.679   6.799
32104SOL    HW298152   0.939   0.678   6.942
32105SOL     OW98153  10.311  11.416   6.914
32105SOL    HW198154  10.404  11.416   6.894
32105SOL    HW298155  10.295  11.329   6.952
32106SOL     OW98156   6.634   7.848   8.208
32106SOL    HW198157   6.674   7.932   8.230
32106SOL    HW298158   6.545   7.855   8.240
32107SOL     OW98159   4.187  13.808   4.519
32107SOL    HW198160   4.146  13.846   4.441
32107SOL    HW298161   4.281  13.805   4.498
32108SOL     OW98162  13.931  14.435   9.778
32108SOL    HW198163  13.907  14.420   9.870
32108SOL    HW298164  14.009  14.490   9.782
32109SOL     OW98165  12.079  12.661   2.969
32109SOL    HW198166  12.062  12.755   2.974
32109SOL    HW298167  12.156  12.654   2.912
32110SOL     OW98168   2.439   3.768  13.290
32110SOL    HW198169   2.419   3.720  13.370
32110SOL    HW298170   2.355   3.807  13.264
32111SOL     OW98171   6.975   8.239  14.804
32111SOL    HW198172   7.023   8.255  14.723
32111SOL    HW298173   6.921   8.162  14.784
32112SOL     OW98174  12.686  10.542   7.557
32112SOL    HW198175  12.638  10.486   7.618
32112SOL    HW298176  12.618  10.595   7.516
32113SOL     OW98177   2.894   5.194   1.171
32113SOL    HW198178   2.890   5.206   1.076
32113SOL    HW298179   2.967   5.133   1.185
32114SOL     OW98180   3.011   2.480   4.725
32114SOL    HW198181   3.000   2.386   4.709
32114SOL    HW298182   3.103   2.490   4.749
32115SOL     OW98183   9.865   4.399   4.409
32115SOL    HW198184   9.818   4.461   4.354
32115SOL    HW298185   9.858   4.434   4.498
32116SOL     OW98186   1.452   0.744  11.385
32116SOL    HW198187   1.519   0.810  11.370
32116SOL    HW298188   1.374   0.777  11.341
32117SOL     OW98189  10.749  10.617  10.580
32117SOL    HW198190  10.823  10.602  10.521
32117SOL    HW298191  10.754  10.710  10.601
32118SOL     OW98192   6.085   8.204   3.194
32118SOL    HW198193   6.120   8.123   3.158
32118SOL    HW298194   6.116   8.205   3.285
32119SOL     OW98195   6.091   3.281   9.584
32119SOL    HW198196   6.086   3.207   9.523
32119SOL    HW298197   6.030   3.259   9.654
32120SOL     OW98198  10.004   4.954   6.238
32120SOL    HW198199  10.092   4.916   6.240
32120SOL    HW298200   9.979   4.954   6.146
32121SOL     OW98201   2.062   7.398   0.675
32121SOL    HW198202   2.056   7.348   0.756
32121SOL    HW298203   2.105   7.480   0.700
32122SOL     OW98204  14.404   1.953  11.232
32122SOL    HW198205  14.355   2.030  11.261
32122SOL    HW298206  14.382   1.885  11.296
32123SOL     OW98207  12.672   2.035   0.683
32123SOL    HW198208  12.655   1.981   0.761
32123SOL    HW298209  12.650   1.979   0.609
32124SOL     OW98210   2.223   7.932  13.093
32124SOL    HW198211   2.152   7.983  13.054
32124SOL    HW298212   2.203   7.932  13.187
32125SOL     OW98213   5.260   9.798  10.826
32125SOL    HW198214   5.173   9.827  10.854
32125SOL    HW298215   5.308   9.783  10.908
32126SOL     OW98216  11.040   6.815   6.416
32126SOL    HW198217  11.100   6.853   6.352
32126SOL    HW298218  11.086   6.824   6.500
32127SOL     OW98219   7.998   3.911  12.513
32127SOL    HW198220   7.952   3.927  12.430
32127SOL    HW298221   7.965   3.978  12.572
32128SOL     OW98222   9.064   1.431   6.953
32128SOL    HW198223   9.105   1.389   6.877
32128SOL    HW298224   9.121   1.506   6.972
32129SOL     OW98225   4.454   6.718  10.648
32129SOL    HW198226   4.466   6.738  10.555
32129SOL    HW298227   4.443   6.803  10.690
32130SOL     OW98228  14.240   3.381   3.708
32130SOL    HW198229  14.145   3.367   3.719
32130SOL    HW298230  14.251   3.395   3.614
32131SOL     OW98231  10.055  11.016   2.829
32131SOL    HW198232  10.012  11.066   2.899
32131SOL    HW298233  10.019  11.052   2.748
32132SOL     OW98234   8.051  10.083   9.079
32132SOL    HW198235   8.061  10.169   9.037
32132SOL    HW298236   8.019  10.026   9.009
32133SOL     OW98237  14.263  12.020   0.424
32133SOL    HW198238  14.216  12.046   0.503
32133SOL    HW298239  14.251  11.925   0.419
32134SOL     OW98240   0.766   8.678   1.345
32134SOL    HW198241   0.766   8.595   1.392
32134SOL    HW298242   0.855   8.712   1.354
32135SOL     OW98243  11.793  13.319   8.482
32135SOL    HW198244  11.756  13.395   8.527
32135SOL    HW298245  11.761  13.244   8.532
32136SOL     OW98246   2.786   4.638  14.859
32136SOL    HW198247   2.703   4.669  14.822
32136SOL    HW298248   2.852   4.698  14.823
32137SOL     OW98249   3.080  14.707   6.958
32137SOL    HW198250   3.154  14.671   6.908
32137SOL    HW298251   3.030  14.630   6.985
32138SOL     OW98252   1.883   4.787   6.765
32138SOL    HW198253   1.862   4.880   6.774
32138SOL    HW298254   1.958   4.785   6.705
32139SOL     OW98255  14.474  11.095   0.023
32139SOL    HW198256  14.387  11.131   0.038
32139SOL    HW298257  14.463  11.001   0.032
32140SOL     OW98258  14.389  11.172   3.649
32140SOL    HW198259  14.354  11.244   3.702
32140SOL    HW298260  14.482  11.169   3.672
32141SOL     OW98261   4.138   5.227   1.937
32141SOL    HW198262   4.082   5.206   2.012
32141SOL    HW298263   4.082   5.277   1.878
32142SOL     OW98264  10.196   8.502  10.395
32142SOL    HW198265  10.182   8.495  10.490
32142SOL    HW298266  10.288   8.481  10.383
32143SOL     OW98267   3.092   0.819  10.059
32143SOL    HW198268   2.997   0.826  10.046
32143SOL    HW298269   3.130   0.866   9.985
32144SOL     OW98270   8.260   4.535   5.602
32144SOL    HW198271   8.336   4.476   5.607
32144SOL    HW298272   8.190   4.489   5.648
32145SOL     OW98273   3.925   6.410  14.529
32145SOL    HW198274   3.950   6.319  14.515
32145SOL    HW298275   3.919   6.447  14.440
32146SOL     OW98276   8.813   8.700   0.404
32146SOL    HW198277   8.755   8.631   0.436
32146SOL    HW298278   8.821   8.761   0.477
32147SOL     OW98279   6.603   6.812   8.613
32147SOL    HW198280   6.631   6.900   8.588
32147SOL    HW298281   6.658   6.754   8.561
32148SOL     OW98282  14.688   3.394   9.028
32148SOL    HW198283  14.600   3.363   9.007
32148SOL    HW298284  14.744   3.351   8.963
32149SOL     OW98285   5.749   4.213   9.971
32149SOL    HW198286   5.801   4.179   9.899
32149SOL    HW298287   5.768   4.155  10.045
32150SOL     OW98288   9.115   1.030   7.151
32150SOL    HW198289   9.180   0.972   7.191
32150SOL    HW298290   9.133   1.026   7.057
32151SOL     OW98291  10.600   6.188   7.349
32151SOL    HW198292  10.623   6.279   7.330
32151SOL    HW298293  10.683   6.140   7.341
32152SOL     OW98294   4.289   7.092   5.222
32152SOL    HW198295   4.356   7.031   5.191
32152SOL    HW298296   4.248   7.048   5.297
32153SOL     OW98297   8.596   6.466   3.231
32153SOL    HW198298   8.526   6.472   3.166
32153SOL    HW298299   8.634   6.554   3.234
32154SOL     OW98300  12.642  10.421   4.110
32154SOL    HW198301  12.571  10.383   4.162
32154SOL    HW298302  12.641  10.371   4.028
32155SOL     OW98303   2.046  14.349   2.498
32155SOL    HW198304   2.017  14.303   2.419
32155SOL    HW298305   2.044  14.281   2.566
32156SOL     OW98306   7.857  11.174   6.979
32156SOL    HW198307   7.888  11.138   6.896
32156SOL    HW298308   7.886  11.265   6.977
32157SOL     OW98309   6.114   0.821  10.530
32157SOL    HW198310   6.141   0.889  10.592
32157SOL    HW298311   6.100   0.744  10.585
32158SOL     OW98312  13.697   5.123   1.674
32158SOL    HW198313  13.640   5.070   1.619
32158SOL    HW298314  13.644   5.145   1.751
32159SOL     OW98315   7.135   4.768   2.023
32159SOL    HW198316   7.195   4.706   2.063
32159SOL    HW298317   7.138   4.748   1.930
32160SOL     OW98318  14.760   2.332  12.695
32160SOL    HW198319  14.810   2.260  12.656
32160SOL    HW298320  14.807   2.411  12.669
32161SOL     OW98321   1.276  12.234   2.437
32161SOL    HW198322   1.279  12.236   2.341
32161SOL    HW298323   1.214  12.164   2.458
32162SOL     OW98324  13.701   2.080   7.271
32162SOL    HW198325  13.618   2.054   7.231
32162SOL    HW298326  13.736   1.999   7.309
32163SOL     OW98327   6.959   2.398   3.482
32163SOL    HW198328   6.970   2.353   3.566
32163SOL    HW298329   6.928   2.331   3.422
32164SOL     OW98330   9.844  14.720   2.185
32164SOL    HW198331   9.858  14.646   2.126
32164SOL    HW298332   9.906  14.786   2.157
32165SOL     OW98333   5.795   4.785  11.879
32165SOL    HW198334   5.734   4.719  11.845
32165SOL    HW298335   5.771   4.865  11.833
32166SOL     OW98336  13.350   3.584  10.420
32166SOL    HW198337  13.382   3.498  10.392
32166SOL    HW298338  13.423   3.644  10.406
32167SOL     OW98339   4.326   3.933   4.036
32167SOL    HW198340   4.397   3.870   4.028
32167SOL    HW298341   4.247   3.880   4.040
32168SOL     OW98342  11.702  12.144  13.130
32168SOL    HW198343  11.736  12.156  13.219
32168SOL    HW298344  11.705  12.050  13.116
32169SOL     OW98345  11.675  14.214   1.635
32169SOL    HW198346  11.716  14.263   1.706
32169SOL    HW298347  11.590  14.188   1.670
32170SOL     OW98348   7.146  10.978   7.722
32170SOL    HW198349   7.144  11.034   7.644
32170SOL    HW298350   7.237  10.950   7.730
32171SOL     OW98351   5.422  12.705   8.510
32171SOL    HW198352   5.413  12.782   8.565
32171SOL    HW298353   5.394  12.632   8.566
32172SOL     OW98354  11.204   9.006   4.678
32172SOL    HW198355  11.282   8.954   4.700
32172SOL    HW298356  11.233   9.097   4.686
32173SOL     OW98357   6.811   0.762   3.873
32173SOL    HW198358   6.721   0.794   3.868
32173SOL    HW298359   6.863   0.831   3.830
32174SOL     OW98360   1.578   9.262  13.794
32174SOL    HW198361   1.588   9.289  13.885
32174SOL    HW298362   1.552   9.170  13.799
32175SOL     OW98363  12.166   4.790   5.251
32175SOL    HW198364  12.247   4.788   5.199
32175SOL    HW298365  12.169   4.710   5.303
32176SOL     OW98366   5.738   9.352  13.212
32176SOL    HW198367   5.748   9.392  13.125
32176SOL    HW298368   5.761   9.260  13.198
32177SOL     OW98369  14.877  14.460   9.549
32177SOL    HW198370  14.860  14.367   9.562
32177SOL    HW298371   0.035  14.466   9.463
32178SOL     OW98372   4.252  12.383  13.998
32178SOL    HW198373   4.305  12.336  13.932
32178SOL    HW298374   4.168  12.398  13.955
32179SOL     OW98375   4.905  10.327  14.445
32179SOL    HW198376   4.913  10.389  14.518
32179SOL    HW298377   4.816  10.341  14.412
32180SOL     OW98378  13.182   0.159   9.100
32180SOL    HW198379  13.271   0.151   9.067
32180SOL    HW298380  13.160   0.072   9.132
32181SOL     OW98381   6.544   4.801   8.482
32181SOL    HW198382   6.517   4.728   8.538
32181SOL    HW298383   6.494   4.876   8.514
32182SOL     OW98384   7.762   2.096   6.022
32182SOL    HW198385   7.840   2.041   6.035
32182SOL    HW298386   7.690   2.033   6.014
32183SOL     OW98387   4.081   6.388   7.315
32183SOL    HW198388   4.162   6.394   7.365
32183SOL    HW298389   4.075   6.296   7.290
32184SOL     OW98390  10.397   9.873   2.609
32184SOL    HW198391  10.315   9.872   2.659
32184SOL    HW298392  10.372   9.904   2.522
32185SOL     OW98393   8.077   9.674   1.496
32185SOL    HW198394   8.159   9.627   1.510
32185SOL    HW298395   8.023   9.651   1.572
32186SOL     OW98396   8.738   1.234  14.344
32186SOL    HW198397   8.764   1.326  14.349
32186SOL    HW298398   8.719   1.210  14.434
32187SOL     OW98399  10.229  13.439   9.460
32187SOL    HW198400  10.161  13.466   9.399
32187SOL    HW298401  10.310  13.476   9.424
32188SOL     OW98402   7.523  10.168  12.856
32188SOL    HW198403   7.483  10.250  12.884
32188SOL    HW298404   7.584  10.193  12.787
32189SOL     OW98405   2.567   7.290   1.705
32189SOL    HW198406   2.639   7.314   1.647
32189SOL    HW298407   2.566   7.194   1.702
32190SOL     OW98408  14.347   4.059   7.149
32190SOL    HW198409  14.320   4.020   7.233
32190SOL    HW298410  14.412   4.126   7.174
32191SOL     OW98411   7.222   4.862   9.733
32191SOL    HW198412   7.159   4.791   9.743
32191SOL    HW298413   7.297   4.821   9.689
32192SOL     OW98414   8.373   3.182   0.691
32192SOL    HW198415   8.320   3.217   0.620
32192SOL    HW298416   8.413   3.103   0.654
32193SOL     OW98417   8.821   2.897   5.415
32193SOL    HW198418   8.801   2.869   5.326
32193SOL    HW298419   8.742   2.876   5.465
32194SOL     OW98420   7.266  14.639   2.465
32194SOL    HW198421   7.302  14.551   2.474
32194SOL    HW298422   7.205  14.633   2.392
32195SOL     OW98423   8.929   0.066   1.352
32195SOL    HW198424   8.990   0.056   1.279
32195SOL    HW298425   8.944  14.871   1.407
32196SOL     OW98426   9.084   6.719  10.813
32196SOL    HW198427   9.088   6.693  10.906
32196SOL    HW298428   9.088   6.636  10.765
32197SOL     OW98429   8.207   4.397   9.165
32197SOL    HW198430   8.236   4.474   9.116
32197SOL    HW298431   8.286   4.369   9.213
32198SOL     OW98432   5.155   1.138   8.693
32198SOL    HW198433   5.133   1.188   8.614
32198SOL    HW298434   5.204   1.199   8.748
32199SOL     OW98435   4.034  12.468  11.367
32199SOL    HW198436   3.942  12.444  11.357
32199SOL    HW298437   4.072  12.396  11.418
32200SOL     OW98438   8.648  14.456  12.802
32200SOL    HW198439   8.664  14.363  12.793
32200SOL    HW298440   8.553  14.463  12.813
32201SOL     OW98441   9.399   2.416  11.657
32201SOL    HW198442   9.323   2.467  11.627
32201SOL    HW298443   9.462   2.482  11.686
32202SOL     OW98444  14.176   2.893   0.051
32202SOL    HW198445  14.263   2.878   0.088
32202SOL    HW298446  14.146   2.806   0.025
32203SOL     OW98447   6.795   0.823   9.736
32203SOL    HW198448   6.858   0.870   9.682
32203SOL    HW298449   6.821   0.841   9.826
32204SOL     OW98450   7.967  14.267   8.594
32204SOL    HW198451   8.059  14.244   8.604
32204SOL    HW298452   7.920  14.185   8.611
32205SOL     OW98453   4.120  14.222   4.113
32205SOL    HW198454   4.179  14.297   4.107
32205SOL    HW298455   4.033  14.260   4.123
32206SOL     OW98456  14.367   7.820   9.032
32206SOL    HW198457  14.291   7.816   9.090
32206SOL    HW298458  14.332   7.859   8.951
32207SOL     OW98459   6.562   6.217   6.142
32207SOL    HW198460   6.613   6.221   6.223
32207SOL    HW298461   6.552   6.123   6.126
32208SOL     OW98462  14.471  11.788  12.437
32208SOL    HW198463  14.497  11.775  12.529
32208SOL    HW298464  14.379  11.763  12.435
32209SOL     OW98465  10.394   8.787   3.566
32209SOL    HW198466  10.455   8.790   3.492
32209SOL    HW298467  10.321   8.733   3.536
32210SOL     OW98468   4.804   9.379   5.207
32210SOL    HW198469   4.862   9.377   5.131
32210SOL    HW298470   4.761   9.293   5.206
32211SOL     OW98471   8.432   7.150  12.778
32211SOL    HW198472   8.413   7.112  12.692
32211SOL    HW298473   8.507   7.207  12.763
32212SOL     OW98474   0.323  12.512   0.976
32212SOL    HW198475   0.338  12.560   0.895
32212SOL    HW298476   0.398  12.532   1.031
32213SOL     OW98477  11.645   1.123   6.629
32213SOL    HW198478  11.658   1.055   6.695
32213SOL    HW298479  11.671   1.204   6.673
32214SOL     OW98480  10.508   5.199   7.604
32214SOL    HW198481  10.461   5.233   7.679
32214SOL    HW298482  10.535   5.276   7.555
32215SOL     OW98483   6.480   6.309   9.732
32215SOL    HW198484   6.533   6.240   9.773
32215SOL    HW298485   6.537   6.386   9.731
32216SOL     OW98486   0.492   4.264  10.012
32216SOL    HW198487   0.541   4.317   9.948
32216SOL    HW298488   0.502   4.174   9.981
32217SOL     OW98489  14.032   5.101   5.770
32217SOL    HW198490  13.961   5.105   5.834
32217SOL    HW298491  13.988   5.110   5.685
32218SOL     OW98492  11.269   2.395   3.368
32218SOL    HW198493  11.345   2.429   3.320
32218SOL    HW298494  11.266   2.302   3.345
32219SOL     OW98495   9.593   6.722   6.206
32219SOL    HW198496   9.630   6.705   6.293
32219SOL    HW298497   9.655   6.782   6.165
32220SOL     OW98498  13.503  14.818  10.535
32220SOL    HW198499  13.569  14.875  10.494
32220SOL    HW298500  13.539  14.730  10.525
32221SOL     OW98501  10.687   2.116   7.506
32221SOL    HW198502  10.736   2.122   7.588
32221SOL    HW298503  10.647   2.202   7.496
32222SOL     OW98504   3.060   3.842  12.212
32222SOL    HW198505   2.974   3.839  12.171
32222SOL    HW298506   3.119   3.801  12.148
32223SOL     OW98507   0.700  11.326   7.227
32223SOL    HW198508   0.729  11.391   7.291
32223SOL    HW298509   0.775  11.316   7.167
32224SOL     OW98510   7.140   0.412  12.742
32224SOL    HW198511   7.081   0.484  12.722
32224SOL    HW298512   7.087   0.350  12.791
32225SOL     OW98513   2.835   3.672   5.998
32225SOL    HW198514   2.758   3.725   5.978
32225SOL    HW298515   2.801   3.583   6.010
32226SOL     OW98516   1.480  13.304  14.364
32226SOL    HW198517   1.510  13.273  14.449
32226SOL    HW298518   1.511  13.394  14.359
32227SOL     OW98519   5.365  13.557   7.958
32227SOL    HW198520   5.424  13.548   7.883
32227SOL    HW298521   5.311  13.478   7.956
32228SOL     OW98522   5.085   3.617  10.841
32228SOL    HW198523   5.121   3.606  10.753
32228SOL    HW298524   5.047   3.705  10.841
32229SOL     OW98525   1.292  10.933   5.016
32229SOL    HW198526   1.266  11.024   5.001
32229SOL    HW298527   1.246  10.883   4.949
32230SOL     OW98528  13.855   2.383   9.857
32230SOL    HW198529  13.918   2.310   9.851
32230SOL    HW298530  13.832   2.387   9.949
32231SOL     OW98531   2.448   8.178   5.104
32231SOL    HW198532   2.535   8.154   5.135
32231SOL    HW298533   2.430   8.262   5.146
32232SOL     OW98534   0.680  13.621  13.442
32232SOL    HW198535   0.768  13.640  13.475
32232SOL    HW298536   0.654  13.542  13.488
32233SOL     OW98537   1.674   6.914   8.033
32233SOL    HW198538   1.622   6.861   7.973
32233SOL    HW298539   1.610   6.959   8.087
32234SOL     OW98540   0.782   3.106   2.928
32234SOL    HW198541   0.756   3.177   2.987
32234SOL    HW298542   0.708   3.096   2.869
32235SOL     OW98543  12.232   8.120  13.812
32235SOL    HW198544  12.252   8.197  13.864
32235SOL    HW298545  12.307   8.062  13.824
32236SOL     OW98546  11.995   6.527   3.159
32236SOL    HW198547  11.940   6.533   3.238
32236SOL    HW298548  12.084   6.544   3.190
32237SOL     OW98549   3.939  12.479   1.684
32237SOL    HW198550   3.871  12.412   1.682
32237SOL    HW298551   3.895  12.558   1.652
32238SOL     OW98552   0.582   2.691  12.351
32238SOL    HW198553   0.578   2.695  12.256
32238SOL    HW298554   0.568   2.598  12.372
32239SOL     OW98555   8.102   0.858  11.221
32239SOL    HW198556   8.067   0.781  11.266
32239SOL    HW298557   8.164   0.896  11.284
32240SOL     OW98558  13.732   2.831   4.039
32240SOL    HW198559  13.796   2.786   4.093
32240SOL    HW298560  13.663   2.766   4.023
32241SOL     OW98561  10.095   5.963   9.185
32241SOL    HW198562  10.043   6.041   9.168
32241SOL    HW298563  10.033   5.902   9.227
32242SOL     OW98564  12.361   2.273   5.219
32242SOL    HW198565  12.415   2.290   5.142
32242SOL    HW298566  12.298   2.346   5.220
32243SOL     OW98567  10.508  11.139   5.982
32243SOL    HW198568  10.508  11.235   5.982
32243SOL    HW298569  10.577  11.116   6.044
32244SOL     OW98570  10.946   3.292  13.160
32244SOL    HW198571  10.855   3.271  13.136
32244SOL    HW298572  10.998   3.228  13.112
32245SOL     OW98573  13.299   2.306  10.522
32245SOL    HW198574  13.228   2.245  10.542
32245SOL    HW298575  13.265   2.359  10.449
32246SOL     OW98576   0.221   5.136   0.864
32246SOL    HW198577   0.157   5.068   0.841
32246SOL    HW298578   0.299   5.113   0.814
32247SOL     OW98579   2.184   3.563   7.802
32247SOL    HW198580   2.255   3.501   7.821
32247SOL    HW298581   2.223   3.626   7.741
32248SOL     OW98582   0.393   6.904  11.912
32248SOL    HW198583   0.435   6.960  11.847
32248SOL    HW298584   0.465   6.871  11.966
32249SOL     OW98585   3.159  10.605   5.523
32249SOL    HW198586   3.206  10.659   5.460
32249SOL    HW298587   3.120  10.668   5.584
32250SOL     OW98588  11.269   6.588  14.578
32250SOL    HW198589  11.176   6.569  14.569
32250SOL    HW298590  11.303   6.518  14.634
32251SOL     OW98591   1.253   4.742   5.477
32251SOL    HW198592   1.321   4.689   5.435
32251SOL    HW298593   1.230   4.693   5.556
32252SOL     OW98594   9.174   1.480  13.849
32252SOL    HW198595   9.088   1.522  13.842
32252SOL    HW298596   9.154   1.386  13.845
32253SOL     OW98597  12.288  11.803   8.968
32253SOL    HW198598  12.211  11.791   9.024
32253SOL    HW298599  12.267  11.753   8.889
32254SOL     OW98600  13.744   2.673   4.986
32254SOL    HW198601  13.815   2.627   5.030
32254SOL    HW298602  13.688   2.603   4.952
32255SOL     OW98603   7.791   4.203   4.366
32255SOL    HW198604   7.710   4.246   4.339
32255SOL    HW298605   7.762   4.122   4.408
32256SOL     OW98606   0.360   0.425  10.340
32256SOL    HW198607   0.405   0.509  10.352
32256SOL    HW298608   0.340   0.396  10.429
32257SOL     OW98609   1.901  13.357   1.994
32257SOL    HW198610   1.878  13.312   1.913
32257SOL    HW298611   1.817  13.385   2.031
32258SOL     OW98612   9.756   5.135   8.972
32258SOL    HW198613   9.781   5.158   9.061
32258SOL    HW298614   9.708   5.211   8.939
32259SOL     OW98615   8.413  14.321   2.760
32259SOL    HW198616   8.320  14.337   2.775
32259SOL    HW298617   8.420  14.307   2.666
32260SOL     OW98618  11.651   7.961   8.105
32260SOL    HW198619  11.625   7.886   8.051
32260SOL    HW298620  11.602   7.950   8.187
32261SOL     OW98621   9.253  10.335   1.261
32261SOL    HW198622   9.240  10.377   1.176
32261SOL    HW298623   9.330  10.377   1.298
32262SOL     OW98624  11.426   2.713  14.264
32262SOL    HW198625  11.418   2.742  14.355
32262SOL    HW298626  11.497   2.766  14.228
32263SOL     OW98627   8.630   7.061  14.622
32263SOL    HW198628   8.578   7.062  14.542
32263SOL    HW298629   8.579   7.113  14.684
32264SOL     OW98630   5.144   1.297  12.274
32264SOL    HW198631   5.211   1.365  12.264
32264SOL    HW298632   5.073   1.340  12.321
32265SOL     OW98633   6.874  12.384  13.754
32265SOL    HW198634   6.833  12.301  13.780
32265SOL    HW298635   6.804  12.433  13.711
32266SOL     OW98636  10.809   5.675  12.102
32266SOL    HW198637  10.744   5.704  12.039
32266SOL    HW298638  10.856   5.755  12.126
32267SOL     OW98639   3.530   3.565   7.321
32267SOL    HW198640   3.589   3.632   7.285
32267SOL    HW298641   3.533   3.494   7.256
32268SOL     OW98642  13.426   5.491   0.284
32268SOL    HW198643  13.445   5.399   0.302
32268SOL    HW298644  13.345   5.508   0.331
32269SOL     OW98645   1.868   9.651  11.345
32269SOL    HW198646   1.837   9.732  11.386
32269SOL    HW298647   1.925   9.611  11.410
32270SOL     OW98648   5.567   2.960   5.946
32270SOL    HW198649   5.581   2.865   5.945
32270SOL    HW298650   5.577   2.987   5.855
32271SOL     OW98651  10.441  11.805   5.317
32271SOL    HW198652  10.397  11.882   5.282
32271SOL    HW298653  10.490  11.837   5.393
32272SOL     OW98654   2.783  11.756  13.287
32272SOL    HW198655   2.768  11.716  13.201
32272SOL    HW298656   2.798  11.849  13.267
32273SOL     OW98657   9.776   3.919  11.726
32273SOL    HW198658   9.729   3.993  11.765
32273SOL    HW298659   9.807   3.869  11.801
32274SOL     OW98660   6.929  14.055  14.286
32274SOL    HW198661   6.892  14.110  14.354
32274SOL    HW298662   6.956  13.975  14.332
32275SOL     OW98663   4.191   4.468   3.323
32275SOL    HW198664   4.122   4.437   3.382
32275SOL    HW298665   4.226   4.546   3.366
32276SOL     OW98666   0.498   0.539   5.200
32276SOL    HW198667   0.568   0.592   5.239
32276SOL    HW298668   0.445   0.602   5.151
32277SOL     OW98669  11.401   8.663   6.792
32277SOL    HW198670  11.425   8.636   6.703
32277SOL    HW298671  11.385   8.757   6.786
32278SOL     OW98672   3.701  11.090  11.203
32278SOL    HW198673   3.743  11.023  11.258
32278SOL    HW298674   3.632  11.126  11.258
32279SOL     OW98675  14.524  11.270  13.879
32279SOL    HW198676  14.481  11.324  13.813
32279SOL    HW298677  14.613  11.306  13.885
32280SOL     OW98678   4.568  12.150   3.796
32280SOL    HW198679   4.628  12.076   3.790
32280SOL    HW298680   4.587  12.190   3.881
32281SOL     OW98681   6.002   5.667   9.788
32281SOL    HW198682   5.942   5.613   9.737
32281SOL    HW298683   6.000   5.629   9.876
32282SOL     OW98684  12.270   4.832   8.022
32282SOL    HW198685  12.213   4.768   7.978
32282SOL    HW298686  12.270   4.806   8.114
32283SOL     OW98687   5.280  11.612  10.982
32283SOL    HW198688   5.336  11.630  11.058
32283SOL    HW298689   5.322  11.659  10.910
32284SOL     OW98690  11.480   5.202  10.080
32284SOL    HW198691  11.573   5.184  10.096
32284SOL    HW298692  11.434   5.129  10.121
32285SOL     OW98693  10.709   7.753   1.649
32285SOL    HW198694  10.743   7.815   1.585
32285SOL    HW298695  10.617   7.776   1.659
32286SOL     OW98696  12.819   2.463   5.153
32286SOL    HW198697  12.827   2.396   5.085
32286SOL    HW298698  12.879   2.532   5.127
32287SOL     OW98699   4.273  12.989  13.319
32287SOL    HW198700   4.248  12.897  13.308
32287SOL    HW298701   4.328  13.008  13.244
32288SOL     OW98702  11.839  10.573   5.179
32288SOL    HW198703  11.863  10.568   5.272
32288SOL    HW298704  11.919  10.549   5.132
32289SOL     OW98705   0.013   0.154   1.879
32289SOL    HW198706   0.003   0.143   1.974
32289SOL    HW298707  14.818   0.204   1.853
32290SOL     OW98708  11.204   6.512   2.603
32290SOL    HW198709  11.287   6.521   2.650
32290SOL    HW298710  11.148   6.581   2.638
32291SOL     OW98711   6.634  14.682   6.562
32291SOL    HW198712   6.639  14.738   6.484
32291SOL    HW298713   6.722  14.645   6.570
32292SOL     OW98714   3.113   2.833   3.497
32292SOL    HW198715   3.033   2.810   3.449
32292SOL    HW298716   3.167   2.877   3.432
32293SOL     OW98717  12.098   8.249   2.322
32293SOL    HW198718  12.003   8.247   2.337
32293SOL    HW298719  12.106   8.261   2.227
32294SOL     OW98720  12.739   0.274   5.511
32294SOL    HW198721  12.652   0.256   5.545
32294SOL    HW298722  12.751   0.368   5.520
32295SOL     OW98723  12.767   7.404   1.040
32295SOL    HW198724  12.758   7.357   1.122
32295SOL    HW298725  12.840   7.360   0.996
32296SOL     OW98726   9.531   8.505   7.248
32296SOL    HW198727   9.525   8.449   7.171
32296SOL    HW298728   9.462   8.473   7.307
32297SOL     OW98729   9.442   9.521  13.042
32297SOL    HW198730   9.348   9.506  13.034
32297SOL    HW298731   9.451   9.617  13.041
32298SOL     OW98732  13.795   5.649   6.307
32298SOL    HW198733  13.800   5.738   6.273
32298SOL    HW298734  13.751   5.599   6.238
32299SOL     OW98735  10.708  13.663  13.940
32299SOL    HW198736  10.699  13.593  13.875
32299SOL    HW298737  10.770  13.628  14.004
32300SOL     OW98738  14.439  11.040  14.029
32300SOL    HW198739  14.416  10.989  13.952
32300SOL    HW298740  14.444  11.130  13.998
32301SOL     OW98741   4.857   3.458  10.867
32301SOL    HW198742   4.934   3.511  10.885
32301SOL    HW298743   4.812   3.503  10.796
32302SOL     OW98744   6.208   2.950   8.978
32302SOL    HW198745   6.284   3.007   8.961
32302SOL    HW298746   6.247   2.868   9.009
32303SOL     OW98747   2.850   0.353   7.098
32303SOL    HW198748   2.798   0.293   7.044
32303SOL    HW298749   2.941   0.331   7.077
32304SOL     OW98750   3.454   3.218  12.429
32304SOL    HW198751   3.464   3.137  12.477
32304SOL    HW298752   3.499   3.284  12.482
32305SOL     OW98753  11.275  12.404   1.506
32305SOL    HW198754  11.277  12.308   1.512
32305SOL    HW298755  11.184  12.428   1.524
32306SOL     OW98756  14.460   2.768   0.624
32306SOL    HW198757  14.540   2.716   0.623
32306SOL    HW298758  14.490   2.858   0.621
32307SOL     OW98759   4.257   1.077   1.964
32307SOL    HW198760   4.221   1.143   2.022
32307SOL    HW298761   4.349   1.102   1.953
32308SOL     OW98762   8.282   0.839   5.797
32308SOL    HW198763   8.188   0.824   5.788
32308SOL    HW298764   8.321   0.779   5.733
32309SOL     OW98765   5.518   5.319   7.782
32309SOL    HW198766   5.611   5.340   7.792
32309SOL    HW298767   5.472   5.401   7.799
32310SOL     OW98768  12.919  13.639  14.632
32310SOL    HW198769  12.964  13.723  14.636
32310SOL    HW298770  12.975  13.579  14.681
32311SOL     OW98771   3.187   1.177   1.319
32311SOL    HW198772   3.212   1.086   1.334
32311SOL    HW298773   3.129   1.198   1.393
32312SOL     OW98774  11.286   5.637   5.360
32312SOL    HW198775  11.293   5.636   5.265
32312SOL    HW298776  11.209   5.691   5.378
32313SOL     OW98777   8.270   2.214   3.136
32313SOL    HW198778   8.199   2.156   3.107
32313SOL    HW298779   8.268   2.286   3.073
32314SOL     OW98780   7.830  11.156   3.399
32314SOL    HW198781   7.756  11.111   3.442
32314SOL    HW298782   7.907  11.122   3.444
32315SOL     OW98783   8.716   6.756  10.366
32315SOL    HW198784   8.714   6.833  10.423
32315SOL    HW298785   8.788   6.772  10.306
32316SOL     OW98786   7.339   8.639   7.283
32316SOL    HW198787   7.294   8.698   7.343
32316SOL    HW298788   7.287   8.641   7.203
32317SOL     OW98789   8.934   1.070  10.425
32317SOL    HW198790   8.951   1.078  10.519
32317SOL    HW298791   9.010   1.110  10.384
32318SOL     OW98792  12.918   8.660   2.452
32318SOL    HW198793  12.834   8.690   2.487
32318SOL    HW298794  12.927   8.706   2.368
32319SOL     OW98795  11.654   5.539  11.234
32319SOL    HW198796  11.723   5.491  11.279
32319SOL    HW298797  11.700   5.607  11.185
32320SOL     OW98798   3.337   5.420  10.493
32320SOL    HW198799   3.320   5.493  10.433
32320SOL    HW298800   3.265   5.424  10.556
32321SOL     OW98801  11.855   8.615  12.575
32321SOL    HW198802  11.925   8.589  12.515
32321SOL    HW298803  11.787   8.652  12.519
32322SOL     OW98804   2.223   0.633  12.353
32322SOL    HW198805   2.231   0.539  12.339
32322SOL    HW298806   2.129   0.648  12.364
32323SOL     OW98807   8.315   1.665   4.480
32323SOL    HW198808   8.261   1.591   4.507
32323SOL    HW298809   8.345   1.643   4.392
32324SOL     OW98810  10.691   3.916   4.241
32324SOL    HW198811  10.653   3.888   4.324
32324SOL    HW298812  10.778   3.877   4.239
32325SOL     OW98813   7.039   6.896  13.224
32325SOL    HW198814   7.038   6.803  13.249
32325SOL    HW298815   7.086   6.939  13.295
32326SOL     OW98816   2.441   1.131   6.972
32326SOL    HW198817   2.373   1.068   6.997
32326SOL    HW298818   2.523   1.088   6.995
32327SOL     OW98819   7.345   7.193  14.156
32327SOL    HW198820   7.300   7.122  14.110
32327SOL    HW298821   7.322   7.271  14.106
32328SOL     OW98822   7.659   3.198   7.599
32328SOL    HW198823   7.600   3.273   7.595
32328SOL    HW298824   7.607   3.129   7.641
32329SOL     OW98825  11.792  12.702   4.168
32329SOL    HW198826  11.877  12.660   4.178
32329SOL    HW298827  11.732  12.630   4.148
32330SOL     OW98828  11.128  10.513   1.621
32330SOL    HW198829  11.158  10.462   1.546
32330SOL    HW298830  11.208  10.543   1.664
32331SOL     OW98831   9.153   0.678   4.599
32331SOL    HW198832   9.213   0.753   4.601
32331SOL    HW298833   9.201   0.610   4.552
32332SOL     OW98834   8.675   2.277   6.811
32332SOL    HW198835   8.661   2.368   6.834
32332SOL    HW298836   8.619   2.263   6.735
32333SOL     OW98837  12.729  13.937   6.550
32333SOL    HW198838  12.686  13.972   6.628
32333SOL    HW298839  12.658  13.917   6.490
32334SOL     OW98840   0.713  14.704   3.386
32334SOL    HW198841   0.763  14.764   3.441
32334SOL    HW298842   0.755  14.711   3.300
32335SOL     OW98843  14.798  11.222   1.752
32335SOL    HW198844  14.817  11.252   1.663
32335SOL    HW298845  14.708  11.189   1.748
32336SOL     OW98846  14.273   9.000  10.476
32336SOL    HW198847  14.252   9.005  10.382
32336SOL    HW298848  14.189   9.005  10.520
32337SOL     OW98849   7.414   7.430  14.396
32337SOL    HW198850   7.441   7.367  14.463
32337SOL    HW298851   7.457   7.401  14.316
32338SOL     OW98852   3.219  14.745  13.406
32338SOL    HW198853   3.197  14.786  13.489
32338SOL    HW298854   3.278  14.807  13.363
32339SOL     OW98855  11.964  11.254  12.689
32339SOL    HW198856  12.037  11.199  12.662
32339SOL    HW298857  11.919  11.276  12.607
32340SOL     OW98858   4.417   8.278   4.993
32340SOL    HW198859   4.322   8.267   4.993
32340SOL    HW298860   4.431   8.372   5.004
32341SOL     OW98861  12.354  11.062   2.014
32341SOL    HW198862  12.322  11.137   1.963
32341SOL    HW298863  12.450  11.072   2.012
32342SOL     OW98864   2.626   8.426   4.437
32342SOL    HW198865   2.594   8.417   4.527
32342SOL    HW298866   2.707   8.477   4.445
32343SOL     OW98867   5.168   7.813   2.940
32343SOL    HW198868   5.254   7.828   2.901
32343SOL    HW298869   5.129   7.900   2.949
32344SOL     OW98870   4.563  12.750   6.262
32344SOL    HW198871   4.608  12.723   6.182
32344SOL    HW298872   4.499  12.680   6.278
32345SOL     OW98873   5.766   5.384   8.215
32345SOL    HW198874   5.810   5.375   8.299
32345SOL    HW298875   5.709   5.308   8.209
32346SOL     OW98876   8.424   5.636  13.108
32346SOL    HW198877   8.349   5.611  13.161
32346SOL    HW298878   8.483   5.681  13.169
32347SOL     OW98879  11.631  12.529  11.078
32347SOL    HW198880  11.685  12.587  11.133
32347SOL    HW298881  11.682  12.516  10.999
32348SOL     OW98882   3.929   2.660   9.396
32348SOL    HW198883   3.865   2.665   9.325
32348SOL    HW298884   3.976   2.578   9.381
32349SOL     OW98885   2.404   1.064   3.533
32349SOL    HW198886   2.447   1.095   3.613
32349SOL    HW298887   2.465   1.087   3.462
32350SOL     OW98888   3.177   5.713   4.347
32350SOL    HW198889   3.097   5.667   4.321
32350SOL    HW298890   3.232   5.646   4.387
32351SOL     OW98891   3.637   2.065   1.436
32351SOL    HW198892   3.666   2.008   1.365
32351SOL    HW298893   3.583   2.008   1.492
32352SOL     OW98894   7.887   7.752   7.407
32352SOL    HW198895   7.971   7.797   7.415
32352SOL    HW298896   7.828   7.819   7.373
32353SOL     OW98897  10.432   8.199   2.382
32353SOL    HW198898  10.443   8.240   2.468
32353SOL    HW298899  10.521   8.192   2.347
32354SOL     OW98900   8.809   2.625  12.136
32354SOL    HW198901   8.798   2.608  12.043
32354SOL    HW298902   8.737   2.579  12.178
32355SOL     OW98903   2.829   6.311  13.449
32355SOL    HW198904   2.877   6.388  13.479
32355SOL    HW298905   2.744   6.344  13.422
32356SOL     OW98906   7.179   8.748   0.076
32356SOL    HW198907   7.254   8.803   0.051
32356SOL    HW298908   7.107   8.780   0.022
32357SOL     OW98909   7.556  11.925  10.132
32357SOL    HW198910   7.535  11.954  10.044
32357SOL    HW298911   7.497  11.851  10.148
32358SOL     OW98912  13.168   9.683  12.922
32358SOL    HW198913  13.080   9.718  12.907
32358SOL    HW298914  13.187   9.631  12.844
32359SOL     OW98915   4.085  13.030   3.511
32359SOL    HW198916   4.011  12.975   3.487
32359SOL    HW298917   4.048  13.094   3.572
32360SOL     OW98918   5.640  10.668  13.808
32360SOL    HW198919   5.602  10.738  13.755
32360SOL    HW298920   5.569  10.605  13.820
32361SOL     OW98921   0.492   1.989   9.154
32361SOL    HW198922   0.461   1.962   9.067
32361SOL    HW298923   0.581   1.955   9.160
32362SOL     OW98924   7.266  13.496  12.257
32362SOL    HW198925   7.244  13.561  12.324
32362SOL    HW298926   7.310  13.546  12.189
32363SOL     OW98927   1.855  11.402  14.873
32363SOL    HW198928   1.798  11.375   0.063
32363SOL    HW298929   1.879  11.493   0.011
32364SOL     OW98930  11.900  13.397   0.537
32364SOL    HW198931  11.949  13.403   0.455
32364SOL    HW298932  11.938  13.323   0.583
32365SOL     OW98933   0.552   4.336   4.757
32365SOL    HW198934   0.536   4.419   4.711
32365SOL    HW298935   0.548   4.359   4.849
32366SOL     OW98936  13.783   2.720  12.704
32366SOL    HW198937  13.759   2.657  12.771
32366SOL    HW298938  13.743   2.803  12.732
32367SOL     OW98939   5.590  11.831   8.907
32367SOL    HW198940   5.571  11.805   8.997
32367SOL    HW298941   5.672  11.880   8.914
32368SOL     OW98942  10.957  14.241   7.302
32368SOL    HW198943  11.010  14.307   7.346
32368SOL    HW298944  10.912  14.289   7.232
32369SOL     OW98945   2.583  10.383   8.161
32369SOL    HW198946   2.652  10.335   8.115
32369SOL    HW298947   2.575  10.465   8.112
32370SOL     OW98948   7.501   1.724  12.842
32370SOL    HW198949   7.537   1.766  12.920
32370SOL    HW298950   7.578   1.702  12.789
32371SOL     OW98951   3.812  11.469   2.935
32371SOL    HW198952   3.897  11.500   2.903
32371SOL    HW298953   3.784  11.405   2.870
32372SOL     OW98954   3.108  11.522   9.567
32372SOL    HW198955   3.069  11.498   9.483
32372SOL    HW298956   3.053  11.478   9.632
32373SOL     OW98957   5.079   8.484   1.241
32373SOL    HW198958   5.046   8.573   1.246
32373SOL    HW298959   5.173   8.493   1.257
32374SOL     OW98960   2.841   7.304   9.679
32374SOL    HW198961   2.808   7.314   9.590
32374SOL    HW298962   2.879   7.389   9.701
32375SOL     OW98963   4.244   0.561  11.565
32375SOL    HW198964   4.251   0.631  11.631
32375SOL    HW298965   4.334   0.540  11.543
32376SOL     OW98966  12.320   8.256  12.938
32376SOL    HW198967  12.404   8.221  12.967
32376SOL    HW298968  12.332   8.276  12.845
32377SOL     OW98969   6.253   8.716  13.305
32377SOL    HW198970   6.339   8.729  13.344
32377SOL    HW298971   6.251   8.778  13.231
32378SOL     OW98972   6.035   6.940   0.612
32378SOL    HW198973   6.087   7.010   0.572
32378SOL    HW298974   5.946   6.974   0.613
32379SOL     OW98975   2.141   5.629   8.755
32379SOL    HW198976   2.210   5.687   8.787
32379SOL    HW298977   2.187   5.569   8.695
32380SOL     OW98978  10.738   4.836   6.471
32380SOL    HW198979  10.805   4.775   6.440
32380SOL    HW298980  10.738   4.907   6.407
32381SOL     OW98981   2.584   8.524   6.219
32381SOL    HW198982   2.519   8.590   6.196
32381SOL    HW298983   2.659   8.574   6.251
32382SOL     OW98984  13.377  12.983   1.171
32382SOL    HW198985  13.304  12.923   1.154
32382SOL    HW298986  13.442  12.961   1.103
32383SOL     OW98987  11.510   4.298  10.122
32383SOL    HW198988  11.556   4.352  10.057
32383SOL    HW298989  11.422   4.289  10.088
32384SOL     OW98990   5.101   8.262   9.442
32384SOL    HW198991   5.188   8.256   9.480
32384SOL    HW298992   5.099   8.194   9.374
32385SOL     OW98993  12.741   1.419   6.243
32385SOL    HW198994  12.648   1.414   6.221
32385SOL    HW298995  12.742   1.433   6.338
32386SOL     OW98996   3.755   6.125   5.274
32386SOL    HW198997   3.718   6.040   5.299
32386SOL    HW298998   3.850   6.113   5.284
32387SOL     OW98999   1.989   4.879   4.207
32387SOL    HW199000   2.053   4.843   4.269
32387SOL    HW299001   2.025   4.859   4.121
32388SOL     OW99002   5.817  12.024   3.168
32388SOL    HW199003   5.858  12.028   3.082
32388SOL    HW299004   5.723  12.014   3.150
32389SOL     OW99005   5.320   3.112  11.824
32389SOL    HW199006   5.376   3.072  11.891
32389SOL    HW299007   5.335   3.059  11.745
32390SOL     OW99008  12.471   1.375   5.205
32390SOL    HW199009  12.484   1.459   5.159
32390SOL    HW299010  12.377   1.359   5.199
32391SOL     OW99011  12.556  14.491  10.574
32391SOL    HW199012  12.621  14.551  10.539
32391SOL    HW299013  12.500  14.469  10.499
32392SOL     OW99014   0.700   5.139   2.143
32392SOL    HW199015   0.628   5.137   2.080
32392SOL    HW299016   0.658   5.123   2.228
32393SOL     OW99017   6.270   0.670   1.223
32393SOL    HW199018   6.306   0.592   1.264
32393SOL    HW299019   6.335   0.695   1.157
32394SOL     OW99020   1.564   3.147   5.555
32394SOL    HW199021   1.535   3.076   5.497
32394SOL    HW299022   1.656   3.127   5.572
32395SOL     OW99023   8.229   9.321  12.776
32395SOL    HW199024   8.265   9.408  12.790
32395SOL    HW299025   8.305   9.265  12.764
32396SOL     OW99026   8.261  10.440  12.966
32396SOL    HW199027   8.274  10.434  13.061
32396SOL    HW299028   8.264  10.350  12.935
32397SOL     OW99029   5.899   8.948   9.079
32397SOL    HW199030   5.885   8.963   9.173
32397SOL    HW299031   5.819   8.982   9.038
32398SOL     OW99032   0.507   6.455  11.669
32398SOL    HW199033   0.569   6.495  11.607
32398SOL    HW299034   0.476   6.377  11.623
32399SOL     OW99035  13.673   2.511   9.731
32399SOL    HW199036  13.595   2.466   9.765
32399SOL    HW299037  13.747   2.463   9.768
32400SOL     OW99038  10.567   7.821  13.372
32400SOL    HW199039  10.569   7.846  13.464
32400SOL    HW299040  10.655   7.789  13.353
32401SOL     OW99041   9.436   8.233   5.387
32401SOL    HW199042   9.451   8.240   5.482
32401SOL    HW299043   9.447   8.322   5.355
32402SOL     OW99044   6.646   2.466   9.043
32402SOL    HW199045   6.587   2.485   9.116
32402SOL    HW299046   6.689   2.549   9.025
32403SOL     OW99047   9.291  10.993   1.286
32403SOL    HW199048   9.338  10.976   1.367
32403SOL    HW299049   9.198  10.991   1.310
32404SOL     OW99050   0.800   9.722  11.083
32404SOL    HW199051   0.810   9.674  11.001
32404SOL    HW299052   0.705   9.723  11.099
32405SOL     OW99053   5.355   9.484  10.355
32405SOL    HW199054   5.295   9.464  10.284
32405SOL    HW299055   5.300   9.525  10.422
32406SOL     OW99056  13.160  11.907   2.972
32406SOL    HW199057  13.226  11.973   2.950
32406SOL    HW299058  13.193  11.827   2.932
32407SOL     OW99059  10.116  13.908  10.562
32407SOL    HW199060  10.073  13.977  10.612
32407SOL    HW299061  10.188  13.952  10.517
32408SOL     OW99062   0.667   6.069   4.543
32408SOL    HW199063   0.742   6.118   4.574
32408SOL    HW299064   0.684   5.979   4.568
32409SOL     OW99065   7.548   3.363   4.923
32409SOL    HW199066   7.464   3.359   4.968
32409SOL    HW299067   7.598   3.429   4.970
32410SOL     OW99068   5.897   4.131  11.040
32410SOL    HW199069   5.979   4.113  11.085
32410SOL    HW299070   5.924   4.171  10.957
32411SOL     OW99071  12.386   4.930  10.299
32411SOL    HW199072  12.298   4.946  10.332
32411SOL    HW299073  12.434   5.011  10.317
32412SOL     OW99074  14.357   1.649   3.665
32412SOL    HW199075  14.422   1.718   3.666
32412SOL    HW299076  14.295   1.673   3.734
32413SOL     OW99077  14.470  11.437   6.191
32413SOL    HW199078  14.511  11.506   6.139
32413SOL    HW299079  14.400  11.403   6.135
32414SOL     OW99080   4.226  11.268  10.948
32414SOL    HW199081   4.305  11.277  10.894
32414SOL    HW299082   4.244  11.193  11.005
32415SOL     OW99083  14.464   6.421   2.201
32415SOL    HW199084  14.409   6.421   2.122
32415SOL    HW299085  14.553   6.410   2.168
32416SOL     OW99086   2.562   6.252   3.835
32416SOL    HW199087   2.562   6.162   3.802
32416SOL    HW299088   2.577   6.306   3.758
32417SOL     OW99089   6.027   2.896  10.172
32417SOL    HW199090   6.042   2.832  10.242
32417SOL    HW299091   5.985   2.970  10.216
32418SOL     OW99092   7.828  13.711   7.496
32418SOL    HW199093   7.854  13.680   7.582
32418SOL    HW299094   7.732  13.707   7.497
32419SOL     OW99095   2.744   7.324   8.498
32419SOL    HW199096   2.820   7.360   8.544
32419SOL    HW299097   2.704   7.400   8.456
32420SOL     OW99098   8.508   2.294   8.623
32420SOL    HW199099   8.535   2.297   8.715
32420SOL    HW299100   8.498   2.385   8.598
32421SOL     OW99101   6.190   3.439   3.847
32421SOL    HW199102   6.209   3.510   3.908
32421SOL    HW299103   6.116   3.393   3.887
32422SOL     OW99104   4.546  14.072  10.571
32422SOL    HW199105   4.556  14.011  10.644
32422SOL    HW299106   4.612  14.045  10.507
32423SOL     OW99107  11.924  10.269   7.148
32423SOL    HW199108  11.897  10.192   7.198
32423SOL    HW299109  11.842  10.312   7.123
32424SOL     OW99110   1.357   2.674   9.441
32424SOL    HW199111   1.426   2.727   9.482
32424SOL    HW299112   1.294   2.659   9.512
32425SOL     OW99113   5.543   1.226  11.440
32425SOL    HW199114   5.477   1.246  11.374
32425SOL    HW299115   5.624   1.260  11.403
32426SOL     OW99116  10.296   0.269   5.278
32426SOL    HW199117  10.344   0.191   5.249
32426SOL    HW299118  10.351   0.343   5.253
32427SOL     OW99119   3.491   2.438  14.275
32427SOL    HW199120   3.405   2.480  14.276
32427SOL    HW299121   3.472   2.345  14.284
32428SOL     OW99122   3.848   5.868  14.256
32428SOL    HW199123   3.787   5.837  14.188
32428SOL    HW299124   3.792   5.897  14.327
32429SOL     OW99125   0.272   2.612  14.476
32429SOL    HW199126   0.234   2.695  14.448
32429SOL    HW299127   0.293   2.567  14.395
32430SOL     OW99128  13.642  11.596  11.742
32430SOL    HW199129  13.738  11.596  11.754
32430SOL    HW299130  13.625  11.522  11.684
32431SOL     OW99131  11.003  13.185   7.004
32431SOL    HW199132  10.918  13.225   7.024
32431SOL    HW299133  11.067  13.244   7.043
32432SOL     OW99134  14.767   6.032   7.495
32432SOL    HW199135  14.696   6.013   7.434
32432SOL    HW299136  14.846   6.007   7.448
32433SOL     OW99137  13.341  11.412   4.656
32433SOL    HW199138  13.285  11.456   4.719
32433SOL    HW299139  13.416  11.382   4.707
32434SOL     OW99140   1.483   4.121   4.503
32434SOL    HW199141   1.537   4.042   4.503
32434SOL    HW299142   1.478   4.145   4.410
32435SOL     OW99143   8.036   8.585  13.529
32435SOL    HW199144   8.088   8.636  13.591
32435SOL    HW299145   7.974   8.536  13.584
32436SOL     OW99146  11.094   3.867   0.731
32436SOL    HW199147  11.123   3.913   0.653
32436SOL    HW299148  11.032   3.802   0.700
32437SOL     OW99149   8.813   1.663  12.755
32437SOL    HW199150   8.764   1.738  12.790
32437SOL    HW299151   8.867   1.700  12.685
32438SOL     OW99152   5.456  11.988   2.120
32438SOL    HW199153   5.491  12.076   2.133
32438SOL    HW299154   5.381  12.001   2.061
32439SOL     OW99155  14.735  12.321   0.305
32439SOL    HW199156  14.705  12.297   0.393
32439SOL    HW299157  14.830  12.309   0.309
32440SOL     OW99158   1.884  10.312   2.971
32440SOL    HW199159   1.847  10.229   3.001
32440SOL    HW299160   1.954  10.287   2.910
32441SOL     OW99161   8.299  12.695   2.648
32441SOL    HW199162   8.346  12.638   2.586
32441SOL    HW299163   8.307  12.783   2.610
32442SOL     OW99164  14.145   5.737   8.347
32442SOL    HW199165  14.220   5.738   8.287
32442SOL    HW299166  14.148   5.822   8.390
32443SOL     OW99167  11.907   3.444  10.268
32443SOL    HW199168  11.885   3.456  10.175
32443SOL    HW299169  11.826   3.413  10.308
32444SOL     OW99170   5.217  14.502  13.692
32444SOL    HW199171   5.138  14.515  13.745
32444SOL    HW299172   5.197  14.429  13.634
32445SOL     OW99173   8.989   9.792   0.089
32445SOL    HW199174   8.973   9.885   0.104
32445SOL    HW299175   9.002   9.785  14.876
32446SOL     OW99176   1.917   1.190   3.857
32446SOL    HW199177   1.881   1.181   3.768
32446SOL    HW299178   1.850   1.152   3.913
32447SOL     OW99179  11.257  10.277   7.023
32447SOL    HW199180  11.257  10.298   6.929
32447SOL    HW299181  11.345  10.243   7.040
32448SOL     OW99182   0.151   1.576   2.114
32448SOL    HW199183   0.136   1.501   2.172
32448SOL    HW299184   0.246   1.578   2.102
32449SOL     OW99185   2.619   3.222   3.125
32449SOL    HW199186   2.526   3.240   3.141
32449SOL    HW299187   2.665   3.270   3.193
32450SOL     OW99188   1.637  13.536  13.563
32450SOL    HW199189   1.563  13.519  13.621
32450SOL    HW299190   1.714  13.511  13.613
32451SOL     OW99191   1.248  11.568   1.096
32451SOL    HW199192   1.292  11.511   1.033
32451SOL    HW299193   1.285  11.544   1.181
32452SOL     OW99194   2.510  13.372   3.781
32452SOL    HW199195   2.565  13.433   3.828
32452SOL    HW299196   2.447  13.341   3.846
32453SOL     OW99197   3.132   6.599   3.548
32453SOL    HW199198   3.091   6.632   3.628
32453SOL    HW299199   3.214   6.648   3.542
32454SOL     OW99200   7.023   9.214   7.328
32454SOL    HW199201   7.095   9.231   7.389
32454SOL    HW299202   7.065   9.167   7.255
32455SOL     OW99203   6.020   2.868  11.645
32455SOL    HW199204   5.935   2.874  11.602
32455SOL    HW299205   6.022   2.943  11.704
32456SOL     OW99206   7.634   4.355  11.029
32456SOL    HW199207   7.561   4.415  11.015
32456SOL    HW299208   7.712   4.406  11.007
32457SOL     OW99209   7.422  12.277   6.769
32457SOL    HW199210   7.414  12.292   6.675
32457SOL    HW299211   7.506  12.233   6.779
32458SOL     OW99212   6.771  14.368   0.307
32458SOL    HW199213   6.832  14.295   0.318
32458SOL    HW299214   6.700  14.332   0.254
32459SOL     OW99215   1.625   1.496  11.875
32459SOL    HW199216   1.709   1.467  11.912
32459SOL    HW299217   1.642   1.584  11.844
32460SOL     OW99218  12.492  13.334   7.146
32460SOL    HW199219  12.420  13.396   7.151
32460SOL    HW299220  12.557  13.367   7.208
32461SOL     OW99221  10.117   3.529   0.212
32461SOL    HW199222  10.203   3.490   0.199
32461SOL    HW299223  10.057   3.455   0.208
32462SOL     OW99224   8.176   3.099   5.095
32462SOL    HW199225   8.192   3.186   5.132
32462SOL    HW299226   8.084   3.082   5.113
32463SOL     OW99227  14.017   0.916   8.789
32463SOL    HW199228  13.961   0.969   8.732
32463SOL    HW299229  14.102   0.960   8.786
32464SOL     OW99230  12.179   4.920   2.707
32464SOL    HW199231  12.244   4.863   2.748
32464SOL    HW299232  12.140   4.968   2.779
32465SOL     OW99233   3.576  12.453  11.192
32465SOL    HW199234   3.665  12.432  11.221
32465SOL    HW299235   3.533  12.368  11.181
32466SOL     OW99236  11.971   3.038  12.171
32466SOL    HW199237  12.004   2.995  12.250
32466SOL    HW299238  12.041   3.029  12.107
32467SOL     OW99239   7.280  12.861   3.996
32467SOL    HW199240   7.279  12.798   4.068
32467SOL    HW299241   7.327  12.816   3.925
32468SOL     OW99242  12.830   5.239   0.380
32468SOL    HW199243  12.797   5.159   0.420
32468SOL    HW299244  12.813   5.227   0.286
32469SOL     OW99245   6.306   1.934  12.194
32469SOL    HW199246   6.253   1.857  12.218
32469SOL    HW299247   6.315   1.927  12.099
32470SOL     OW99248  13.201   0.767   5.675
32470SOL    HW199249  13.225   0.782   5.583
32470SOL    HW299250  13.278   0.794   5.725
32471SOL     OW99251   6.774  14.113   5.027
32471SOL    HW199252   6.806  14.137   5.114
32471SOL    HW299253   6.832  14.043   4.998
32472SOL     OW99254   5.221   9.053   7.261
32472SOL    HW199255   5.275   9.090   7.191
32472SOL    HW299256   5.237   9.110   7.336
32473SOL     OW99257   0.107   7.590   6.071
32473SOL    HW199258   0.067   7.603   5.985
32473SOL    HW299259   0.089   7.671   6.119
32474SOL     OW99260  13.004  13.696  13.270
32474SOL    HW199261  13.085  13.646  13.279
32474SOL    HW299262  12.935  13.635  13.298
32475SOL     OW99263  12.704   0.490  14.838
32475SOL    HW199264  12.623   0.448  14.808
32475SOL    HW299265  12.769   0.469  14.771
32476SOL     OW99266   0.703  13.652   4.942
32476SOL    HW199267   0.788  13.696   4.951
32476SOL    HW299268   0.687  13.614   5.029
32477SOL     OW99269   0.904   1.860  13.853
32477SOL    HW199270   0.964   1.934  13.853
32477SOL    HW299271   0.955   1.787  13.819
32478SOL     OW99272   7.678   0.257   4.348
32478SOL    HW199273   7.600   0.201   4.339
32478SOL    HW299274   7.734   0.211   4.410
32479SOL     OW99275  13.864  11.204   0.405
32479SOL    HW199276  13.884  11.270   0.471
32479SOL    HW299277  13.776  11.227   0.374
32480SOL     OW99278   6.934   8.755   3.341
32480SOL    HW199279   6.903   8.841   3.314
32480SOL    HW299280   7.013   8.741   3.288
32481SOL     OW99281   4.385  12.620   5.920
32481SOL    HW199282   4.432  12.564   5.859
32481SOL    HW299283   4.374  12.566   5.999
32482SOL     OW99284   6.751   9.100  14.067
32482SOL    HW199285   6.681   9.153  14.103
32482SOL    HW299286   6.779   9.147  13.988
32483SOL     OW99287  13.875   4.969   0.957
32483SOL    HW199288  13.865   4.889   1.009
32483SOL    HW299289  13.943   5.019   1.002
32484SOL     OW99290   0.875   9.590  11.312
32484SOL    HW199291   0.965   9.600  11.281
32484SOL    HW299292   0.822   9.624  11.240
32485SOL     OW99293   9.298  12.202   3.626
32485SOL    HW199294   9.361  12.197   3.698
32485SOL    HW299295   9.213  12.186   3.668
32486SOL     OW99296   7.132  14.206  10.788
32486SOL    HW199297   7.191  14.134  10.810
32486SOL    HW299298   7.188  14.284  10.786
32487SOL     OW99299  12.330   4.330   0.715
32487SOL    HW199300  12.288   4.245   0.724
32487SOL    HW299301  12.284   4.387   0.777
32488SOL     OW99302  13.009  11.833  13.416
32488SOL    HW199303  13.041  11.753  13.373
32488SOL    HW299304  13.044  11.904  13.363
32489SOL     OW99305   3.762   6.475  13.010
32489SOL    HW199306   3.748   6.560  12.968
32489SOL    HW299307   3.744   6.491  13.102
32490SOL     OW99308   3.989  10.373   9.432
32490SOL    HW199309   4.043  10.312   9.482
32490SOL    HW299310   3.931  10.317   9.380
32491SOL     OW99311   1.825   9.638  14.777
32491SOL    HW199312   1.894   9.610  14.717
32491SOL    HW299313   1.819   9.568  14.841
32492SOL     OW99314   2.187  13.461   8.692
32492SOL    HW199315   2.098  13.475   8.725
32492SOL    HW299316   2.177  13.461   8.597
32493SOL     OW99317   2.328   7.915  10.098
32493SOL    HW199318   2.415   7.937  10.132
32493SOL    HW299319   2.303   7.991  10.046
32494SOL     OW99320   0.872   6.414   0.819
32494SOL    HW199321   0.911   6.481   0.875
32494SOL    HW299322   0.946   6.357   0.796
32495SOL     OW99323   2.265   7.592   9.518
32495SOL    HW199324   2.286   7.513   9.568
32495SOL    HW299325   2.319   7.661   9.557
32496SOL     OW99326   5.199   2.441   2.098
32496SOL    HW199327   5.159   2.501   2.034
32496SOL    HW299328   5.130   2.426   2.163
32497SOL     OW99329  10.057  14.361   8.922
32497SOL    HW199330  10.079  14.334   9.011
32497SOL    HW299331   9.973  14.405   8.930
32498SOL     OW99332   9.606  11.138   8.619
32498SOL    HW199333   9.672  11.069   8.606
32498SOL    HW299334   9.526  11.102   8.582
32499SOL     OW99335   9.923   5.370   1.452
32499SOL    HW199336   9.998   5.328   1.410
32499SOL    HW299337   9.956   5.454   1.484
32500SOL     OW99338   8.505   4.445   9.732
32500SOL    HW199339   8.584   4.480   9.772
32500SOL    HW299340   8.537   4.391   9.660
32501SOL     OW99341   6.442   8.099   7.493
32501SOL    HW199342   6.450   8.027   7.555
32501SOL    HW299343   6.405   8.059   7.414
32502SOL     OW99344  12.586   1.468   1.157
32502SOL    HW199345  12.571   1.375   1.175
32502SOL    HW299346  12.499   1.503   1.141
32503SOL     OW99347  10.155  10.189  11.690
32503SOL    HW199348  10.083  10.155  11.742
32503SOL    HW299349  10.161  10.281  11.714
32504SOL     OW99350   9.639   1.364   6.116
32504SOL    HW199351   9.727   1.362   6.078
32504SOL    HW299352   9.580   1.367   6.040
32505SOL     OW99353   2.659   5.568   5.095
32505SOL    HW199354   2.684   5.477   5.082
32505SOL    HW299355   2.720   5.601   5.160
32506SOL     OW99356  11.445  12.533  13.743
32506SOL    HW199357  11.462  12.466  13.676
32506SOL    HW299358  11.419  12.482  13.820
32507SOL     OW99359  10.629   2.158   3.506
32507SOL    HW199360  10.711   2.121   3.538
32507SOL    HW299361  10.565   2.140   3.575
32508SOL     OW99362   1.798   5.141   1.095
32508SOL    HW199363   1.711   5.143   1.056
32508SOL    HW299364   1.847   5.211   1.051
32509SOL     OW99365   0.233  13.505   0.260
32509SOL    HW199366   0.153  13.522   0.209
32509SOL    HW299367   0.250  13.412   0.248
32510SOL     OW99368   1.105   6.818   5.299
32510SOL    HW199369   1.021   6.799   5.257
32510SOL    HW299370   1.161   6.849   5.228
32511SOL     OW99371   2.055   0.754   4.897
32511SOL    HW199372   1.995   0.685   4.926
32511SOL    HW299373   2.040   0.761   4.803
32512SOL     OW99374  14.084  14.686   8.973
32512SOL    HW199375  14.156  14.638   8.932
32512SOL    HW299376  14.006  14.660   8.924
32513SOL     OW99377  14.616   7.882   6.226
32513SOL    HW199378  14.669   7.807   6.253
32513SOL    HW299379  14.525   7.852   6.235
32514SOL     OW99380   7.303   8.719   4.409
32514SOL    HW199381   7.291   8.652   4.341
32514SOL    HW299382   7.239   8.787   4.387
32515SOL     OW99383  14.795   1.052  14.603
32515SOL    HW199384  14.845   0.977  14.635
32515SOL    HW299385  14.843   1.128  14.636
32516SOL     OW99386   5.289  11.856   3.877
32516SOL    HW199387   5.330  11.939   3.903
32516SOL    HW299388   5.250  11.875   3.791
32517SOL     OW99389  11.972   6.519   0.642
32517SOL    HW199390  12.039   6.587   0.629
32517SOL    HW299391  12.018   6.449   0.688
32518SOL     OW99392   2.041  10.343   5.939
32518SOL    HW199393   2.106  10.385   5.995
32518SOL    HW299394   2.090  10.279   5.887
32519SOL     OW99395   4.592   4.957   0.948
32519SOL    HW199396   4.628   4.972   1.035
32519SOL    HW299397   4.504   4.992   0.952
32520SOL     OW99398   7.745  10.357   6.723
32520SOL    HW199399   7.798  10.412   6.780
32520SOL    HW299400   7.709  10.290   6.781
32521SOL     OW99401   6.454   2.940   7.265
32521SOL    HW199402   6.517   2.910   7.199
32521SOL    HW299403   6.488   2.907   7.348
32522SOL     OW99404   2.389  13.031   3.746
32522SOL    HW199405   2.390  12.936   3.732
32522SOL    HW299406   2.328  13.064   3.680
32523SOL     OW99407   8.228   0.406   8.965
32523SOL    HW199408   8.207   0.475   8.903
32523SOL    HW299409   8.184   0.328   8.931
32524SOL     OW99410   6.691  12.990  10.141
32524SOL    HW199411   6.731  13.077  10.139
32524SOL    HW299412   6.764  12.929  10.131
32525SOL     OW99413   9.533   0.367   8.188
32525SOL    HW199414   9.580   0.450   8.174
32525SOL    HW299415   9.542   0.320   8.105
32526SOL     OW99416   7.419   0.583   5.903
32526SOL    HW199417   7.477   0.572   5.978
32526SOL    HW299418   7.389   0.674   5.909
32527SOL     OW99419   3.082   1.044   2.189
32527SOL    HW199420   2.995   1.047   2.150
32527SOL    HW299421   3.119   1.131   2.173
32528SOL     OW99422   4.497   7.124  11.440
32528SOL    HW199423   4.429   7.064  11.410
32528SOL    HW299424   4.495   7.196  11.376
32529SOL     OW99425  13.910   6.223  10.008
32529SOL    HW199426  13.904   6.318   9.995
32529SOL    HW299427  13.825   6.190   9.978
32530SOL     OW99428  14.684   1.260   1.401
32530SOL    HW199429  14.737   1.333   1.434
32530SOL    HW299430  14.744   1.213   1.342
32531SOL     OW99431   9.523   7.984   1.027
32531SOL    HW199432   9.599   7.932   1.051
32531SOL    HW299433   9.527   8.062   1.082
32532SOL     OW99434  10.203   0.465  11.870
32532SOL    HW199435  10.165   0.377  11.861
32532SOL    HW299436  10.287   0.450  11.913
32533SOL     OW99437  13.227   0.115  10.966
32533SOL    HW199438  13.308   0.098  11.013
32533SOL    HW299439  13.213   0.209  10.974
32534SOL     OW99440  12.932   2.901  14.480
32534SOL    HW199441  12.844   2.899  14.443
32534SOL    HW299442  12.966   2.987  14.456
32535SOL     OW99443   9.059   6.870   9.307
32535SOL    HW199444   9.140   6.881   9.256
32535SOL    HW299445   9.084   6.815   9.381
32536SOL     OW99446   2.113  10.382   6.244
32536SOL    HW199447   2.120  10.459   6.188
32536SOL    HW299448   2.061  10.411   6.319
32537SOL     OW99449   0.694   8.020  11.682
32537SOL    HW199450   0.715   7.929  11.701
32537SOL    HW299451   0.698   8.064  11.767
32538SOL     OW99452  10.173  11.550   7.157
32538SOL    HW199453  10.228  11.523   7.084
32538SOL    HW299454  10.099  11.595   7.115
32539SOL     OW99455   0.451   6.617   5.932
32539SOL    HW199456   0.528   6.614   5.876
32539SOL    HW299457   0.399   6.690   5.897
32540SOL     OW99458  14.620   1.856   5.832
32540SOL    HW199459  14.543   1.809   5.799
32540SOL    HW299460  14.628   1.828   5.923
32541SOL     OW99461   4.589   9.978   6.767
32541SOL    HW199462   4.594   9.966   6.861
32541SOL    HW299463   4.519  10.043   6.754
32542SOL     OW99464   0.055   8.639  13.988
32542SOL    HW199465   0.125   8.597  13.939
32542SOL    HW299466   0.094   8.659  14.074
32543SOL     OW99467   8.100   3.337   4.517
32543SOL    HW199468   8.102   3.367   4.607
32543SOL    HW299469   8.033   3.268   4.515
32544SOL     OW99470   3.255  10.901  14.277
32544SOL    HW199471   3.331  10.845  14.261
32544SOL    HW299472   3.180  10.843  14.269
32545SOL     OW99473   6.599   1.708   1.214
32545SOL    HW199474   6.525   1.726   1.271
32545SOL    HW299475   6.569   1.731   1.126
32546SOL     OW99476  13.287   1.777  10.129
32546SOL    HW199477  13.268   1.750  10.039
32546SOL    HW299478  13.290   1.694  10.178
32547SOL     OW99479   8.293   0.803  10.109
32547SOL    HW199480   8.272   0.746  10.183
32547SOL    HW299481   8.360   0.755  10.060
32548SOL     OW99482   6.534  14.471  10.003
32548SOL    HW199483   6.620  14.509  10.023
32548SOL    HW299484   6.502  14.438  10.087
32549SOL     OW99485  11.929   5.889  14.406
32549SOL    HW199486  11.866   5.854  14.344
32549SOL    HW299487  11.983   5.814  14.431
32550SOL     OW99488   0.763   6.335  14.674
32550SOL    HW199489   0.717   6.277  14.735
32550SOL    HW299490   0.720   6.420  14.684
32551SOL     OW99491   1.625   9.616   8.097
32551SOL    HW199492   1.640   9.524   8.076
32551SOL    HW299493   1.652   9.625   8.188
32552SOL     OW99494   1.019   2.895   8.877
32552SOL    HW199495   1.021   2.960   8.807
32552SOL    HW299496   1.021   2.946   8.957
32553SOL     OW99497   5.921   2.138   1.796
32553SOL    HW199498   5.836   2.181   1.788
32553SOL    HW299499   5.982   2.194   1.748
32554SOL     OW99500   7.478   3.801  12.973
32554SOL    HW199501   7.542   3.794  12.902
32554SOL    HW299502   7.472   3.895  12.990
32555SOL     OW99503   9.510   2.168   0.145
32555SOL    HW199504   9.568   2.127   0.081
32555SOL    HW299505   9.478   2.095   0.198
32556SOL     OW99506  12.639   7.623   7.439
32556SOL    HW199507  12.647   7.534   7.404
32556SOL    HW299508  12.643   7.679   7.361
32557SOL     OW99509   2.860   1.804  12.946
32557SOL    HW199510   2.878   1.722  12.902
32557SOL    HW299511   2.902   1.795  13.032
32558SOL     OW99512  11.483  13.006   2.467
32558SOL    HW199513  11.434  12.924   2.457
32558SOL    HW299514  11.560  12.981   2.518
32559SOL     OW99515   5.458   9.559   5.987
32559SOL    HW199516   5.518   9.621   5.945
32559SOL    HW299517   5.516   9.489   6.019
32560SOL     OW99518   9.040   0.288  13.970
32560SOL    HW199519   8.998   0.317  14.052
32560SOL    HW299520   9.027   0.194  13.968
32561SOL     OW99521   5.703  10.578   6.071
32561SOL    HW199522   5.615  10.592   6.106
32561SOL    HW299523   5.756  10.557   6.148
32562SOL     OW99524  14.377   6.599   5.501
32562SOL    HW199525  14.469   6.623   5.518
32562SOL    HW299526  14.350   6.551   5.578
32563SOL     OW99527  11.461  11.490   7.933
32563SOL    HW199528  11.451  11.526   7.845
32563SOL    HW299529  11.456  11.396   7.921
32564SOL     OW99530  14.019  14.017  13.062
32564SOL    HW199531  13.960  14.091  13.075
32564SOL    HW299532  13.974  13.943  13.103
32565SOL     OW99533   8.264   7.423   2.408
32565SOL    HW199534   8.204   7.498   2.409
32565SOL    HW299535   8.227   7.362   2.473
32566SOL     OW99536   9.569   5.746   3.713
32566SOL    HW199537   9.663   5.728   3.714
32566SOL    HW299538   9.562   5.832   3.670
32567SOL     OW99539   0.290   9.655   0.219
32567SOL    HW199540   0.285   9.563   0.244
32567SOL    HW299541   0.228   9.699   0.277
32568SOL     OW99542  10.191  12.097   5.982
32568SOL    HW199543  10.128  12.028   6.005
32568SOL    HW299544  10.145  12.152   5.920
32569SOL     OW99545   7.747   0.109  12.045
32569SOL    HW199546   7.693   0.179  12.083
32569SOL    HW299547   7.685   0.038  12.028
32570SOL     OW99548   5.008   3.507   6.510
32570SOL    HW199549   5.036   3.594   6.539
32570SOL    HW299550   4.972   3.466   6.588
32571SOL     OW99551   7.211   9.427   3.575
32571SOL    HW199552   7.289   9.455   3.527
32571SOL    HW299553   7.142   9.421   3.509
32572SOL     OW99554   6.698   6.543  14.211
32572SOL    HW199555   6.672   6.615  14.268
32572SOL    HW299556   6.793   6.540  14.219
32573SOL     OW99557   4.474   3.599  10.663
32573SOL    HW199558   4.546   3.658  10.686
32573SOL    HW299559   4.451   3.557  10.746
32574SOL     OW99560   0.028  11.356   3.608
32574SOL    HW199561   0.011  11.450   3.602
32574SOL    HW299562   0.047  11.330   3.518
32575SOL     OW99563  14.307   5.886  12.262
32575SOL    HW199564  14.254   5.807  12.254
32575SOL    HW299565  14.377   5.874  12.199
32576SOL     OW99566  11.340   9.199   9.258
32576SOL    HW199567  11.349   9.272   9.196
32576SOL    HW299568  11.260   9.220   9.307
32577SOL     OW99569  11.024   8.219   1.956
32577SOL    HW199570  11.041   8.183   1.869
32577SOL    HW299571  10.971   8.297   1.939
32578SOL     OW99572   9.742   1.994   5.152
32578SOL    HW199573   9.647   2.000   5.163
32578SOL    HW299574   9.778   2.035   5.230
32579SOL     OW99575   1.532   4.655  10.321
32579SOL    HW199576   1.457   4.598  10.305
32579SOL    HW299577   1.592   4.636  10.249
32580SOL     OW99578   8.864   7.746  13.697
32580SOL    HW199579   8.863   7.825  13.751
32580SOL    HW299580   8.832   7.676  13.754
32581SOL     OW99581   1.767   1.430   6.957
32581SOL    HW199582   1.789   1.382   7.037
32581SOL    HW299583   1.704   1.373   6.913
32582SOL     OW99584   1.932   5.274   8.039
32582SOL    HW199585   1.872   5.336   7.997
32582SOL    HW299586   2.019   5.305   8.016
32583SOL     OW99587   9.075   5.617   3.640
32583SOL    HW199588   9.054   5.581   3.727
32583SOL    HW299589   9.062   5.712   3.650
32584SOL     OW99590  11.295   5.468  14.222
32584SOL    HW199591  11.243   5.430  14.151
32584SOL    HW299592  11.347   5.536  14.180
32585SOL     OW99593   4.222   2.315  11.885
32585SOL    HW199594   4.293   2.296  11.823
32585SOL    HW299595   4.189   2.229  11.911
32586SOL     OW99596   4.147   1.755   9.023
32586SOL    HW199597   4.078   1.689   9.014
32586SOL    HW299598   4.196   1.727   9.100
32587SOL     OW99599   2.433   7.389   1.907
32587SOL    HW199600   2.513   7.365   1.860
32587SOL    HW299601   2.453   7.368   1.999
32588SOL     OW99602   9.176   4.730   0.588
32588SOL    HW199603   9.203   4.800   0.527
32588SOL    HW299604   9.258   4.702   0.629
32589SOL     OW99605   0.052   2.143  11.069
32589SOL    HW199606  14.866   2.164  11.004
32589SOL    HW299607   0.109   2.081  11.023
32590SOL     OW99608  10.230   6.437   4.298
32590SOL    HW199609  10.187   6.523   4.293
32590SOL    HW299610  10.321   6.455   4.276
32591SOL     OW99611   2.834   9.477  12.859
32591SOL    HW199612   2.907   9.419  12.838
32591SOL    HW299613   2.814   9.521  12.776
32592SOL     OW99614   9.901  14.220   3.678
32592SOL    HW199615   9.879  14.215   3.585
32592SOL    HW299616   9.970  14.155   3.690
32593SOL     OW99617   3.447   1.631   6.093
32593SOL    HW199618   3.469   1.549   6.050
32593SOL    HW299619   3.531   1.668   6.119
32594SOL     OW99620  11.884   7.548   3.566
32594SOL    HW199621  11.971   7.515   3.541
32594SOL    HW299622  11.881   7.637   3.531
32595SOL     OW99623   4.773   0.051   8.778
32595SOL    HW199624   4.853   0.090   8.743
32595SOL    HW299625   4.725   0.124   8.816
32596SOL     OW99626   1.112   5.491   2.880
32596SOL    HW199627   1.063   5.529   2.953
32596SOL    HW299628   1.093   5.397   2.885
32597SOL     OW99629  11.102  14.123  12.595
32597SOL    HW199630  11.160  14.179  12.646
32597SOL    HW299631  11.117  14.035  12.629
32598SOL     OW99632  14.404   6.675   1.780
32598SOL    HW199633  14.468   6.717   1.837
32598SOL    HW299634  14.428   6.702   1.692
32599SOL     OW99635  13.714   3.391   8.783
32599SOL    HW199636  13.671   3.441   8.852
32599SOL    HW299637  13.683   3.301   8.796
32600SOL     OW99638  13.383   5.683   9.548
32600SOL    HW199639  13.448   5.752   9.554
32600SOL    HW299640  13.367   5.657   9.639
32601SOL     OW99641  11.213   7.118   9.931
32601SOL    HW199642  11.241   7.095  10.020
32601SOL    HW299643  11.285   7.170   9.896
32602SOL     OW99644  14.542   3.311   5.406
32602SOL    HW199645  14.515   3.298   5.315
32602SOL    HW299646  14.567   3.223   5.436
32603SOL     OW99647   9.196   1.853   2.556
32603SOL    HW199648   9.106   1.884   2.562
32603SOL    HW299649   9.235   1.907   2.487
32604SOL     OW99650   5.393  10.347   3.322
32604SOL    HW199651   5.351  10.362   3.407
32604SOL    HW299652   5.387  10.253   3.308
32605SOL     OW99653  13.860  10.601  14.236
32605SOL    HW199654  13.945  10.643  14.224
32605SOL    HW299655  13.881  10.518  14.279
32606SOL     OW99656  11.593   1.487  10.547
32606SOL    HW199657  11.654   1.438  10.491
32606SOL    HW299658  11.563   1.560  10.493
32607SOL     OW99659   7.607   8.818   7.670
32607SOL    HW199660   7.693   8.784   7.697
32607SOL    HW299661   7.614   8.827   7.575
32608SOL     OW99662   5.356   4.505   8.865
32608SOL    HW199663   5.351   4.567   8.793
32608SOL    HW299664   5.447   4.508   8.894
32609SOL     OW99665   4.061   3.016   5.495
32609SOL    HW199666   4.144   3.050   5.460
32609SOL    HW299667   3.994   3.074   5.459
32610SOL     OW99668  11.992   2.014   5.891
32610SOL    HW199669  11.949   2.092   5.855
32610SOL    HW299670  11.940   1.991   5.968
32611SOL     OW99671   8.554   5.463  11.176
32611SOL    HW199672   8.597   5.396  11.122
32611SOL    HW299673   8.495   5.414  11.233
32612SOL     OW99674   8.304  10.901  13.217
32612SOL    HW199675   8.379  10.929  13.269
32612SOL    HW299676   8.306  10.805  13.222
32613SOL     OW99677  12.454  12.922  11.857
32613SOL    HW199678  12.517  12.991  11.880
32613SOL    HW299679  12.391  12.966  11.801
32614SOL     OW99680   7.633  11.979   7.748
32614SOL    HW199681   7.610  12.066   7.715
32614SOL    HW299682   7.605  11.919   7.678
32615SOL     OW99683  11.993   0.973   5.050
32615SOL    HW199684  11.944   0.984   4.968
32615SOL    HW299685  12.065   0.915   5.027
32616SOL     OW99686  13.610   4.769   4.386
32616SOL    HW199687  13.642   4.860   4.387
32616SOL    HW299688  13.641   4.732   4.469
32617SOL     OW99689  11.861   7.601   0.417
32617SOL    HW199690  11.868   7.617   0.323
32617SOL    HW299691  11.950   7.604   0.449
32618SOL     OW99692   1.437  11.537  12.851
32618SOL    HW199693   1.388  11.615  12.877
32618SOL    HW299694   1.491  11.517  12.927
32619SOL     OW99695  11.878  12.108   1.641
32619SOL    HW199696  11.806  12.142   1.588
32619SOL    HW299697  11.894  12.177   1.706
32620SOL     OW99698   2.092   1.062   1.788
32620SOL    HW199699   2.169   1.095   1.836
32620SOL    HW299700   2.128   1.031   1.705
32621SOL     OW99701  12.460   8.792   6.566
32621SOL    HW199702  12.538   8.773   6.618
32621SOL    HW299703  12.492   8.846   6.493
32622SOL     OW99704   0.964  12.383   0.702
32622SOL    HW199705   0.908  12.442   0.752
32622SOL    HW299706   1.052  12.401   0.735
32623SOL     OW99707   0.051   3.607  12.839
32623SOL    HW199708  14.847   3.622  12.877
32623SOL    HW299709   0.055   3.512  12.824
32624SOL     OW99710   3.627  12.574   7.869
32624SOL    HW199711   3.583  12.492   7.844
32624SOL    HW299712   3.556  12.632   7.897
32625SOL     OW99713   2.150  13.792   6.336
32625SOL    HW199714   2.096  13.713   6.335
32625SOL    HW299715   2.179  13.803   6.245
32626SOL     OW99716   7.002   6.321   7.401
32626SOL    HW199717   7.092   6.295   7.423
32626SOL    HW299718   7.011   6.407   7.360
32627SOL     OW99719   9.747   7.391   8.172
32627SOL    HW199720   9.711   7.396   8.260
32627SOL    HW299721   9.705   7.463   8.125
32628SOL     OW99722  13.930   3.852   5.900
32628SOL    HW199723  13.952   3.792   5.829
32628SOL    HW299724  13.991   3.829   5.970
32629SOL     OW99725  10.641  10.365  14.271
32629SOL    HW199726  10.696  10.396  14.343
32629SOL    HW299727  10.623  10.443  14.218
32630SOL     OW99728   7.295   7.122  10.991
32630SOL    HW199729   7.306   7.125  11.086
32630SOL    HW299730   7.335   7.203  10.960
32631SOL     OW99731  13.728   0.229   7.684
32631SOL    HW199732  13.806   0.279   7.661
32631SOL    HW299733  13.656   0.278   7.644
32632SOL     OW99734   6.508   4.129   4.363
32632SOL    HW199735   6.551   4.064   4.419
32632SOL    HW299736   6.578   4.160   4.304
32633SOL     OW99737  10.937  11.686   0.630
32633SOL    HW199738  10.998  11.665   0.700
32633SOL    HW299739  10.990  11.681   0.550
32634SOL     OW99740   6.584   6.977   4.309
32634SOL    HW199741   6.533   6.907   4.349
32634SOL    HW299742   6.644   7.005   4.378
32635SOL     OW99743   9.595  11.157   7.433
32635SOL    HW199744   9.536  11.132   7.505
32635SOL    HW299745   9.554  11.121   7.355
32636SOL     OW99746   2.251   4.440  12.470
32636SOL    HW199747   2.243   4.382  12.546
32636SOL    HW299748   2.279   4.384  12.398
32637SOL     OW99749  12.764   4.689  12.465
32637SOL    HW199750  12.852   4.656  12.451
32637SOL    HW299751  12.774   4.784  12.470
32638SOL     OW99752   8.080  12.457   5.201
32638SOL    HW199753   8.133  12.381   5.180
32638SOL    HW299754   8.141  12.520   5.239
32639SOL     OW99755   7.710   6.387   8.412
32639SOL    HW199756   7.804   6.371   8.423
32639SOL    HW299757   7.691   6.359   8.322
32640SOL     OW99758  11.767  11.688   2.171
32640SOL    HW199759  11.814  11.635   2.107
32640SOL    HW299760  11.820  11.681   2.251
32641SOL     OW99761  10.285   5.621  11.885
32641SOL    HW199762  10.317   5.531  11.882
32641SOL    HW299763  10.211   5.622  11.823
32642SOL     OW99764   1.200   2.313   6.716
32642SOL    HW199765   1.270   2.268   6.764
32642SOL    HW299766   1.239   2.395   6.687
32643SOL     OW99767  10.416   0.714   7.083
32643SOL    HW199768  10.407   0.787   7.023
32643SOL    HW299769  10.333   0.711   7.131
32644SOL     OW99770   1.139   1.228   1.556
32644SOL    HW199771   1.087   1.156   1.591
32644SOL    HW299772   1.124   1.225   1.461
32645SOL     OW99773   7.921   7.698   8.916
32645SOL    HW199774   7.955   7.609   8.909
32645SOL    HW299775   7.947   7.727   9.003
32646SOL     OW99776   1.050   8.332  14.509
32646SOL    HW199777   1.101   8.275  14.452
32646SOL    HW299778   1.040   8.413  14.460
32647SOL     OW99779  12.260   6.639   5.736
32647SOL    HW199780  12.242   6.661   5.644
32647SOL    HW299781  12.197   6.691   5.785
32648SOL     OW99782  11.695   9.930  14.045
32648SOL    HW199783  11.741   9.913  14.127
32648SOL    HW299784  11.739   9.875  13.981
32649SOL     OW99785   2.066   2.271   0.874
32649SOL    HW199786   2.090   2.184   0.905
32649SOL    HW299787   2.081   2.267   0.780
32650SOL     OW99788   8.519   8.428  13.964
32650SOL    HW199789   8.483   8.514  13.987
32650SOL    HW299790   8.519   8.427  13.868
32651SOL     OW99791   1.687   7.207  13.971
32651SOL    HW199792   1.598   7.175  13.950
32651SOL    HW299793   1.712   7.259  13.895
32652SOL     OW99794  14.659   5.759  14.832
32652SOL    HW199795  14.709   5.678  14.820
32652SOL    HW299796  14.625   5.754   0.039
32653SOL     OW99797   6.507  13.905   4.442
32653SOL    HW199798   6.546  13.926   4.527
32653SOL    HW299799   6.576  13.925   4.379
32654SOL     OW99800  12.406   9.173  12.850
32654SOL    HW199801  12.354   9.222  12.913
32654SOL    HW299802  12.354   9.173  12.770
32655SOL     OW99803   3.507  10.368   4.628
32655SOL    HW199804   3.447  10.386   4.556
32655SOL    HW299805   3.520  10.453   4.671
32656SOL     OW99806   7.399   5.426  10.970
32656SOL    HW199807   7.369   5.406  11.059
32656SOL    HW299808   7.402   5.341  10.926
32657SOL     OW99809   8.056  12.938  14.706
32657SOL    HW199810   8.072  12.953  14.613
32657SOL    HW299811   7.970  12.977  14.722
32658SOL     OW99812  12.150  14.445   1.769
32658SOL    HW199813  12.072  14.448   1.716
32658SOL    HW299814  12.120  14.417   1.856
32659SOL     OW99815   0.351   7.354   8.294
32659SOL    HW199816   0.343   7.292   8.366
32659SOL    HW299817   0.265   7.352   8.251
32660SOL     OW99818   7.154   8.579   7.579
32660SOL    HW199819   7.175   8.512   7.644
32660SOL    HW299820   7.084   8.540   7.527
32661SOL     OW99821   9.579  12.737  12.070
32661SOL    HW199822   9.550  12.780  11.989
32661SOL    HW299823   9.502  12.689  12.100
32662SOL     OW99824  12.687  10.115   3.691
32662SOL    HW199825  12.610  10.100   3.636
32662SOL    HW299826  12.746  10.167   3.637
32663SOL     OW99827   1.123   0.044  13.885
32663SOL    HW199828   1.135  14.851  13.944
32663SOL    HW299829   1.148   0.011  13.799
32664SOL     OW99830  14.642   3.911  11.833
32664SOL    HW199831  14.711   3.848  11.853
32664SOL    HW299832  14.610   3.941  11.918
32665SOL     OW99833   8.211   3.657   5.688
32665SOL    HW199834   8.273   3.718   5.647
32665SOL    HW299835   8.185   3.599   5.617
32666SOL     OW99836  13.483  11.512  13.047
32666SOL    HW199837  13.410  11.452  13.041
32666SOL    HW299838  13.482  11.559  12.963
32667SOL     OW99839   6.384   0.127   0.148
32667SOL    HW199840   6.419   0.216   0.146
32667SOL    HW299841   6.289   0.138   0.148
32668SOL     OW99842   1.122   7.668   6.603
32668SOL    HW199843   1.127   7.593   6.663
32668SOL    HW299844   1.028   7.683   6.593
32669SOL     OW99845  11.085   4.091   8.051
32669SOL    HW199846  11.159   4.097   7.990
32669SOL    HW299847  11.121   4.120   8.135
32670SOL     OW99848  14.635  12.235   4.125
32670SOL    HW199849  14.638  12.309   4.065
32670SOL    HW299850  14.720  12.193   4.117
32671SOL     OW99851  14.052   6.142   1.374
32671SOL    HW199852  14.029   6.226   1.413
32671SOL    HW299853  14.052   6.159   1.279
32672SOL     OW99854   0.096   1.696   0.215
32672SOL    HW199855   0.148   1.625   0.176
32672SOL    HW299856   0.145   1.721   0.293
32673SOL     OW99857  11.972  13.450   4.693
32673SOL    HW199858  12.015  13.418   4.613
32673SOL    HW299859  12.042  13.458   4.757
32674SOL     OW99860  13.614   6.900  10.063
32674SOL    HW199861  13.603   6.959  10.138
32674SOL    HW299862  13.669   6.829  10.096
32675SOL     OW99863  12.452   6.136   1.437
32675SOL    HW199864  12.397   6.128   1.360
32675SOL    HW299865  12.537   6.167   1.403
32676SOL     OW99866   5.023  13.638   7.277
32676SOL    HW199867   5.098  13.696   7.288
32676SOL    HW299868   4.967  13.656   7.353
32677SOL     OW99869  13.757   3.584   2.793
32677SOL    HW199870  13.743   3.579   2.887
32677SOL    HW299871  13.843   3.625   2.784
32678SOL     OW99872   1.545  14.658   8.962
32678SOL    HW199873   1.486  14.616   9.025
32678SOL    HW299874   1.527  14.752   8.972
32679SOL     OW99875   2.824   6.698   7.029
32679SOL    HW199876   2.750   6.719   7.086
32679SOL    HW299877   2.868   6.625   7.072
32680SOL     OW99878  11.660   1.811   1.935
32680SOL    HW199879  11.702   1.733   1.972
32680SOL    HW299880  11.733   1.872   1.920
32681SOL     OW99881  11.107   7.031  12.053
32681SOL    HW199882  11.011   7.034  12.046
32681SOL    HW299883  11.131   6.944  12.020
32682SOL     OW99884   8.277  11.078  12.169
32682SOL    HW199885   8.319  11.030  12.241
32682SOL    HW299886   8.336  11.152  12.153
32683SOL     OW99887   6.625  14.324   4.881
32683SOL    HW199888   6.694  14.267   4.914
32683SOL    HW299889   6.630  14.402   4.936
32684SOL     OW99890   0.580  10.802  13.767
32684SOL    HW199891   0.548  10.837  13.684
32684SOL    HW299892   0.650  10.742  13.741
32685SOL     OW99893   0.735  12.205   8.180
32685SOL    HW199894   0.797  12.251   8.238
32685SOL    HW299895   0.746  12.113   8.203
32686SOL     OW99896   7.335  12.452   4.369
32686SOL    HW199897   7.403  12.414   4.425
32686SOL    HW299898   7.341  12.403   4.287
32687SOL     OW99899   7.115   0.074   8.127
32687SOL    HW199900   7.146   0.018   8.056
32687SOL    HW299901   7.190   0.129   8.149
32688SOL     OW99902   1.528   1.046  13.465
32688SOL    HW199903   1.613   1.002  13.473
32688SOL    HW299904   1.520   1.068  13.372
32689SOL     OW99905   4.835   6.377   7.062
32689SOL    HW199906   4.814   6.471   7.061
32689SOL    HW299907   4.800   6.344   6.979
32690SOL     OW99908   5.450  10.660  11.565
32690SOL    HW199909   5.468  10.599  11.493
32690SOL    HW299910   5.435  10.603  11.640
32691SOL     OW99911   3.598   3.748   7.539
32691SOL    HW199912   3.570   3.731   7.449
32691SOL    HW299913   3.681   3.795   7.530
32692SOL     OW99914   0.284   8.892   1.341
32692SOL    HW199915   0.230   8.905   1.419
32692SOL    HW299916   0.362   8.848   1.372
32693SOL     OW99917   5.306   1.608   6.654
32693SOL    HW199918   5.383   1.635   6.703
32693SOL    HW299919   5.320   1.515   6.636
32694SOL     OW99920   4.298   3.567   9.911
32694SOL    HW199921   4.247   3.550   9.991
32694SOL    HW299922   4.238   3.617   9.855
32695SOL     OW99923   7.152   9.797  14.877
32695SOL    HW199924   7.153   9.709   0.033
32695SOL    HW299925   7.112   9.785  14.791
32696SOL     OW99926   6.624   6.946   4.795
32696SOL    HW199927   6.563   7.020   4.797
32696SOL    HW299928   6.597   6.890   4.867
32697SOL     OW99929  11.829   5.035   0.299
32697SOL    HW199930  11.784   4.964   0.252
32697SOL    HW299931  11.922   5.011   0.294
32698SOL     OW99932   8.465   3.401   6.334
32698SOL    HW199933   8.430   3.361   6.413
32698SOL    HW299934   8.524   3.336   6.297
32699SOL     OW99935  12.599   8.037   5.117
32699SOL    HW199936  12.586   7.946   5.090
32699SOL    HW299937  12.518   8.082   5.091
32700SOL     OW99938  14.433  11.300  12.225
32700SOL    HW199939  14.435  11.372  12.288
32700SOL    HW299940  14.407  11.224  12.277
32701SOL     OW99941   0.133   7.761   6.642
32701SOL    HW199942   0.207   7.810   6.676
32701SOL    HW299943   0.146   7.760   6.547
32702SOL     OW99944   5.767   9.485   6.353
32702SOL    HW199945   5.688   9.445   6.318
32702SOL    HW299946   5.832   9.475   6.283
32703SOL     OW99947  13.973  12.306  14.533
32703SOL    HW199948  13.954  12.220  14.572
32703SOL    HW299949  14.043  12.341  14.587
32704SOL     OW99950  10.454   2.514   2.660
32704SOL    HW199951  10.393   2.454   2.704
32704SOL    HW299952  10.444   2.597   2.707
32705SOL     OW99953  10.662   3.750   1.630
32705SOL    HW199954  10.607   3.704   1.693
32705SOL    HW299955  10.648   3.705   1.547
32706SOL     OW99956   8.287  13.702   6.656
32706SOL    HW199957   8.340  13.700   6.577
32706SOL    HW299958   8.243  13.616   6.657
32707SOL     OW99959   7.625   7.744   0.061
32707SOL    HW199960   7.529   7.741   0.061
32707SOL    HW299961   7.650   7.724   0.151
32708SOL     OW99962   3.079  12.583  13.779
32708SOL    HW199963   3.022  12.654  13.752
32708SOL    HW299964   3.041  12.505  13.739
32709SOL     OW99965   3.010   4.714  14.047
32709SOL    HW199966   2.916   4.731  14.036
32709SOL    HW299967   3.014   4.631  14.093
32710SOL     OW99968   9.537   9.273  10.943
32710SOL    HW199969   9.469   9.248  10.881
32710SOL    HW299970   9.616   9.228  10.913
32711SOL     OW99971   8.231   7.349  11.130
32711SOL    HW199972   8.281   7.406  11.073
32711SOL    HW299973   8.295   7.288  11.166
32712SOL     OW99974  11.357  14.370   1.461
32712SOL    HW199975  11.272  14.414   1.464
32712SOL    HW299976  11.371  14.352   1.368
32713SOL     OW99977   7.032   8.258   6.529
32713SOL    HW199978   7.016   8.244   6.436
32713SOL    HW299979   7.092   8.188   6.554
32714SOL     OW99980  13.886   0.071  10.279
32714SOL    HW199981  13.968   0.023  10.263
32714SOL    HW299982  13.859   0.101  10.193
32715SOL     OW99983  10.565   3.942   7.714
32715SOL    HW199984  10.477   3.973   7.734
32715SOL    HW299985  10.601   3.913   7.798
32716SOL     OW99986   6.999  13.974  14.867
32716SOL    HW199987   6.996  14.065   0.014
32716SOL    HW299988   7.092  13.956  14.853
32717SOL     OW99989   3.048   2.156   5.934
32717SOL    HW199990   2.952   2.153   5.928
32717SOL    HW299991   3.069   2.092   6.002
32718SOL     OW99992   7.476   4.812  13.148
32718SOL    HW199993   7.568   4.808  13.174
32718SOL    HW299994   7.461   4.904  13.126
32719SOL     OW99995   9.306  10.255   8.682
32719SOL    HW199996   9.243  10.197   8.639
32719SOL    HW299997   9.276  10.344   8.661
32720SOL     OW99998  14.166   7.405   0.429
32720SOL    HW199999  14.133   7.456   0.503
32720SOL    HW2    0  14.189   7.470   0.363
32721SOL     OW    1  12.346  12.488   5.428
32721SOL    HW1    2  12.353  12.584   5.423
32721SOL    HW2    3  12.392  12.456   5.350
32722SOL     OW    4  14.595   8.954  11.628
32722SOL    HW1    5  14.634   8.991  11.549
32722SOL    HW2    6  14.548   8.877  11.597
32723SOL     OW    7   1.977   8.234   6.608
32723SOL    HW1    8   1.910   8.300   6.591
32723SOL    HW2    9   2.060   8.278   6.587
32724SOL     OW   10   9.107   0.102   1.111
32724SOL    HW1   11   9.081   0.185   1.073
32724SOL    HW2   12   9.182   0.124   1.168
32725SOL     OW   13   8.543  11.854   7.672
32725SOL    HW1   14   8.598  11.881   7.599
32725SOL    HW2   15   8.454  11.852   7.636
32726SOL     OW   16   3.897   2.808   7.117
32726SOL    HW1   17   3.871   2.876   7.179
32726SOL    HW2   18   3.930   2.855   7.041
32727SOL     OW   19   4.253   8.628  10.122
32727SOL    HW1   20   4.247   8.572  10.045
32727SOL    HW2   21   4.180   8.600  10.178
32728SOL     OW   22   8.162   7.909  10.625
32728SOL    HW1   23   8.109   7.983  10.596
32728SOL    HW2   24   8.149   7.906  10.720
32729SOL     OW   25  12.702  14.811   8.068
32729SOL    HW1   26  12.794  14.834   8.059
32729SOL    HW2   27  12.667  14.818   7.979
32730SOL     OW   28   3.099  14.482  11.423
32730SOL    HW1   29   3.158  14.455  11.493
32730SOL    HW2   30   3.014  14.444  11.447
32731SOL     OW   31   5.074   1.087   3.795
32731SOL    HW1   32   5.152   1.085   3.739
32731SOL    HW2   33   5.025   1.163   3.765
32732SOL     OW   34   0.944  10.122   0.020
32732SOL    HW1   35   0.952  10.062   0.094
32732SOL    HW2   36   1.003  10.086  14.835
32733SOL     OW   37   6.960   9.714   3.856
32733SOL    HW1   38   6.868   9.725   3.881
32733SOL    HW2   39   6.997   9.802   3.861
32734SOL     OW   40   5.138   6.443  14.871
32734SOL    HW1   41   5.108   6.411   0.074
32734SOL    HW2   42   5.097   6.529  14.862
32735SOL     OW   43   8.449   4.474   8.025
32735SOL    HW1   44   8.467   4.514   7.940
32735SOL    HW2   45   8.356   4.492   8.041
32736SOL     OW   46   1.621  12.213   1.550
32736SOL    HW1   47   1.550  12.150   1.535
32736SOL    HW2   48   1.634  12.213   1.645
32737SOL     OW   49  11.966  14.515  11.388
32737SOL    HW1   50  11.968  14.528  11.293
32737SOL    HW2   51  11.895  14.453  11.403
32738SOL     OW   52  12.269  12.113   6.317
32738SOL    HW1   53  12.227  12.157   6.243
32738SOL    HW2   54  12.257  12.173   6.390
32739SOL     OW   55   9.967   1.693   1.823
32739SOL    HW1   56  10.061   1.678   1.812
32739SOL    HW2   57   9.927   1.609   1.804
32740SOL     OW   58   8.860   1.993   1.302
32740SOL    HW1   59   8.800   2.062   1.330
32740SOL    HW2   60   8.834   1.974   1.211
32741SOL     OW   61   9.637   1.072   2.532
32741SOL    HW1   62   9.545   1.094   2.546
32741SOL    HW2   63   9.674   1.065   2.620
32742SOL     OW   64  14.495   6.678  11.413
32742SOL    HW1   65  14.583   6.709  11.389
32742SOL    HW2   66  14.503   6.652  11.504
32743SOL     OW   67   7.069  10.037  13.585
32743SOL    HW1   68   7.066   9.954  13.539
32743SOL    HW2   69   7.070  10.103  13.516
32744SOL     OW   70   7.319   2.394   9.795
32744SOL    HW1   71   7.283   2.482   9.807
32744SOL    HW2   72   7.391   2.406   9.732
32745SOL     OW   73   9.513  13.607   0.800
32745SOL    HW1   74   9.608  13.604   0.799
32745SOL    HW2   75   9.488  13.610   0.708
32746SOL     OW   76   3.007   9.373  11.159
32746SOL    HW1   77   3.047   9.423  11.230
32746SOL    HW2   78   3.081   9.339  11.109
32747SOL     OW   79   9.505  14.119   3.265
32747SOL    HW1   80   9.562  14.060   3.314
32747SOL    HW2   81   9.467  14.064   3.196
32748SOL     OW   82   1.348  14.839  10.801
32748SOL    HW1   83   1.322  14.750  10.777
32748SOL    HW2   84   1.393  14.829  10.885
32749SOL     OW   85   7.089  13.399  13.147
32749SOL    HW1   86   7.104  13.467  13.082
32749SOL    HW2   87   7.047  13.328  13.099
32750SOL     OW   88  12.969   2.662   2.030
32750SOL    HW1   89  13.063   2.673   2.013
32750SOL    HW2   90  12.963   2.576   2.072
32751SOL     OW   91  10.793  10.925   6.441
32751SOL    HW1   92  10.767  10.892   6.355
32751SOL    HW2   93  10.731  10.996   6.459
32752SOL     OW   94   1.406   7.521   3.186
32752SOL    HW1   95   1.445   7.442   3.149
32752SOL    HW2   96   1.477   7.562   3.235
32753SOL     OW   97   3.598   1.913   0.576
32753SOL    HW1   98   3.545   1.847   0.532
32753SOL    HW2   99   3.544   1.992   0.574
32754SOL     OW  100   1.547  14.820   0.770
32754SOL    HW1  101   1.599  14.751   0.810
32754SOL    HW2  102   1.560  14.809   0.675
32755SOL     OW  103  10.514   6.446   9.326
32755SOL    HW1  104  10.491   6.487   9.409
32755SOL    HW2  105  10.569   6.511   9.281
32756SOL     OW  106   9.699  11.362   2.341
32756SOL    HW1  107   9.685  11.453   2.317
32756SOL    HW2  108   9.633  11.344   2.408
32757SOL     OW  109   4.326   2.706   0.485
32757SOL    HW1  110   4.329   2.622   0.531
32757SOL    HW2  111   4.353   2.771   0.550
32758SOL     OW  112   6.766  10.226   4.741
32758SOL    HW1  113   6.804  10.187   4.820
32758SOL    HW2  114   6.675  10.198   4.742
32759SOL     OW  115  12.559   3.394   1.829
32759SOL    HW1  116  12.638   3.367   1.783
32759SOL    HW2  117  12.560   3.490   1.823
32760SOL     OW  118   5.444   7.596   0.229
32760SOL    HW1  119   5.411   7.513   0.263
32760SOL    HW2  120   5.518   7.571   0.174
32761SOL     OW  121  10.267   3.040   5.324
32761SOL    HW1  122  10.344   3.047   5.381
32761SOL    HW2  123  10.304   3.032   5.236
32762SOL     OW  124   3.822  12.066  13.459
32762SOL    HW1  125   3.745  12.042  13.511
32762SOL    HW2  126   3.797  12.149  13.417
32763SOL     OW  127   6.597   4.132   7.934
32763SOL    HW1  128   6.691   4.143   7.919
32763SOL    HW2  129   6.571   4.213   7.977
32764SOL     OW  130  14.262  14.221  10.791
32764SOL    HW1  131  14.234  14.187  10.706
32764SOL    HW2  132  14.242  14.315  10.787
32765SOL     OW  133  11.693  10.529   8.338
32765SOL    HW1  134  11.726  10.595   8.278
32765SOL    HW2  135  11.772  10.484   8.369
32766SOL     OW  136  10.909   1.107   2.711
32766SOL    HW1  137  10.987   1.061   2.744
32766SOL    HW2  138  10.851   1.038   2.682
32767SOL     OW  139   8.281  13.373   3.607
32767SOL    HW1  140   8.314  13.283   3.599
32767SOL    HW2  141   8.186  13.364   3.599
32768SOL     OW  142  14.358  11.717   1.386
32768SOL    HW1  143  14.316  11.723   1.472
32768SOL    HW2  144  14.445  11.753   1.399
32769SOL     OW  145  11.319   8.143  12.758
32769SOL    HW1  146  11.288   8.176  12.673
32769SOL    HW2  147  11.345   8.221  12.806
32770SOL     OW  148   1.670  13.384   2.620
32770SOL    HW1  149   1.752  13.411   2.659
32770SOL    HW2  150   1.659  13.293   2.647
32771SOL     OW  151   5.690  10.379   7.038
32771SOL    HW1  152   5.714  10.434   7.112
32771SOL    HW2  153   5.714  10.430   6.961
32772SOL     OW  154  12.994   5.962  10.463
32772SOL    HW1  155  12.962   6.022  10.396
32772SOL    HW2  156  12.929   5.893  10.467
32773SOL     OW  157   7.322   3.803   0.861
32773SOL    HW1  158   7.252   3.797   0.926
32773SOL    HW2  159   7.280   3.780   0.779
32774SOL     OW  160   8.869  12.128  13.783
32774SOL    HW1  161   8.902  12.201  13.836
32774SOL    HW2  162   8.777  12.120  13.807
32775SOL     OW  163  13.628   3.197   0.719
32775SOL    HW1  164  13.579   3.118   0.693
32775SOL    HW2  165  13.687   3.214   0.646
32776SOL     OW  166  13.300  11.620  14.356
32776SOL    HW1  167  13.335  11.633  14.445
32776SOL    HW2  168  13.315  11.527  14.339
32777SOL     OW  169   5.647   9.851  13.491
32777SOL    HW1  170   5.641   9.915  13.563
32777SOL    HW2  171   5.586   9.782  13.516
32778SOL     OW  172  12.197   7.187   0.300
32778SOL    HW1  173  12.120   7.223   0.255
32778SOL    HW2  174  12.267   7.192   0.234
32779SOL     OW  175   5.977  12.716   9.866
32779SOL    HW1  176   6.059  12.666   9.868
32779SOL    HW2  177   5.983  12.774   9.942
32780SOL     OW  178   0.474   8.784  10.138
32780SOL    HW1  179   0.466   8.692  10.111
32780SOL    HW2  180   0.419   8.791  10.215
32781SOL     OW  181   1.355  12.086   4.545
32781SOL    HW1  182   1.290  12.063   4.612
32781SOL    HW2  183   1.403  12.160   4.583
32782SOL     OW  184   4.047   6.623   2.928
32782SOL    HW1  185   3.968   6.656   2.970
32782SOL    HW2  186   4.062   6.538   2.968
32783SOL     OW  187  12.468   0.532  14.720
32783SOL    HW1  188  12.528   0.593  14.763
32783SOL    HW2  189  12.385   0.545  14.766
32784SOL     OW  190   3.057   1.077   4.341
32784SOL    HW1  191   3.092   1.140   4.279
32784SOL    HW2  192   3.032   1.129   4.417
32785SOL     OW  193   5.823   8.690   8.215
32785SOL    HW1  194   5.880   8.765   8.199
32785SOL    HW2  195   5.882   8.615   8.218
32786SOL     OW  196   9.703   4.852  13.389
32786SOL    HW1  197   9.682   4.941  13.416
32786SOL    HW2  198   9.791   4.836  13.422
32787SOL     OW  199   7.653   7.849  11.757
32787SOL    HW1  200   7.646   7.834  11.852
32787SOL    HW2  201   7.593   7.922  11.741
32788SOL     OW  202   9.055   6.240   9.490
32788SOL    HW1  203   9.115   6.291   9.544
32788SOL    HW2  204   9.110   6.205   9.420
32789SOL     OW  205   4.611   5.271  14.066
32789SOL    HW1  206   4.580   5.219  14.141
32789SOL    HW2  207   4.598   5.214  13.991
32790SOL     OW  208   3.922  11.085   7.288
32790SOL    HW1  209   3.921  10.996   7.253
32790SOL    HW2  210   3.842  11.092   7.340
32791SOL     OW  211   3.782  12.389  14.541
32791SOL    HW1  212   3.875  12.368  14.544
32791SOL    HW2  213   3.779  12.485  14.544
32792SOL     OW  214  13.808   8.871   7.504
32792SOL    HW1  215  13.731   8.870   7.560
32792SOL    HW2  216  13.775   8.850   7.416
32793SOL     OW  217   2.785   7.677  12.196
32793SOL    HW1  218   2.872   7.640  12.214
32793SOL    HW2  219   2.795   7.771  12.213
32794SOL     OW  220   6.240  14.060  11.032
32794SOL    HW1  221   6.190  13.983  11.004
32794SOL    HW2  222   6.215  14.071  11.124
32795SOL     OW  223   6.433  12.400   9.554
32795SOL    HW1  224   6.506  12.346   9.585
32795SOL    HW2  225   6.451  12.414   9.461
32796SOL     OW  226   3.011   7.034  14.809
32796SOL    HW1  227   2.978   6.948  14.781
32796SOL    HW2  228   3.034   7.022   0.019
32797SOL     OW  229  11.752  13.357  12.163
32797SOL    HW1  230  11.742  13.281  12.221
32797SOL    HW2  231  11.747  13.320  12.075
32798SOL     OW  232  11.038   8.048  11.259
32798SOL    HW1  233  11.078   8.101  11.328
32798SOL    HW2  234  10.953   8.088  11.244
32799SOL     OW  235   0.120   8.913  12.577
32799SOL    HW1  236   0.047   8.877  12.526
32799SOL    HW2  237   0.181   8.841  12.586
32800SOL     OW  238  11.359   9.910   4.883
32800SOL    HW1  239  11.441   9.890   4.838
32800SOL    HW2  240  11.382   9.976   4.949
32801SOL     OW  241   1.727  13.843   7.325
32801SOL    HW1  242   1.736  13.922   7.271
32801SOL    HW2  243   1.632  13.828   7.328
32802SOL     OW  244  10.803   2.406   2.983
32802SOL    HW1  245  10.836   2.425   2.895
32802SOL    HW2  246  10.880   2.414   3.039
32803SOL     OW  247   0.928   0.797   1.552
32803SOL    HW1  248   0.833   0.804   1.540
32803SOL    HW2  249   0.965   0.848   1.480
32804SOL     OW  250   2.594  11.927   9.414
32804SOL    HW1  251   2.671  11.869   9.420
32804SOL    HW2  252   2.581  11.959   9.503
32805SOL     OW  253  12.069  10.968  14.677
32805SOL    HW1  254  12.063  11.047  14.624
32805SOL    HW2  255  11.981  10.956  14.713
32806SOL     OW  256  10.137   2.077   2.914
32806SOL    HW1  257  10.060   2.133   2.906
32806SOL    HW2  258  10.177   2.103   2.996
32807SOL     OW  259  13.995  13.874   0.947
32807SOL    HW1  260  14.042  13.795   0.974
32807SOL    HW2  261  14.047  13.946   0.982
32808SOL     OW  262  14.040   5.997   6.338
32808SOL    HW1  263  14.061   5.964   6.425
32808SOL    HW2  264  14.029   6.091   6.350
32809SOL     OW  265   3.025  14.426   5.501
32809SOL    HW1  266   3.061  14.495   5.557
32809SOL    HW2  267   2.941  14.404   5.540
32810SOL     OW  268  12.329  11.124  10.519
32810SOL    HW1  269  12.256  11.133  10.580
32810SOL    HW2  270  12.378  11.206  10.528
32811SOL     OW  271   3.006  12.956   5.560
32811SOL    HW1  272   2.986  12.863   5.557
32811SOL    HW2  273   3.098  12.963   5.534
32812SOL     OW  274  11.786  13.717   5.939
32812SOL    HW1  275  11.749  13.731   5.852
32812SOL    HW2  276  11.880  13.723   5.926
32813SOL     OW  277  13.631   8.051   9.609
32813SOL    HW1  278  13.682   7.976   9.641
32813SOL    HW2  279  13.690   8.126   9.618
32814SOL     OW  280   3.144  11.912   8.562
32814SOL    HW1  281   3.065  11.959   8.535
32814SOL    HW2  282   3.215  11.952   8.512
32815SOL     OW  283   5.681  11.135  14.863
32815SOL    HW1  284   5.677  11.087  14.781
32815SOL    HW2  285   5.672  11.227  14.838
32816SOL     OW  286   3.014  13.114  13.780
32816SOL    HW1  287   3.073  13.101  13.854
32816SOL    HW2  288   3.002  13.209  13.775
32817SOL     OW  289   4.837   0.829  10.034
32817SOL    HW1  290   4.870   0.872  10.113
32817SOL    HW2  291   4.915   0.792   9.993
32818SOL     OW  292  11.807  10.355   0.314
32818SOL    HW1  293  11.819  10.440   0.272
32818SOL    HW2  294  11.837  10.368   0.404
32819SOL     OW  295   9.610  11.093  12.271
32819SOL    HW1  296   9.608  11.111  12.365
32819SOL    HW2  297   9.701  11.071  12.252
32820SOL     OW  298   0.260   7.749   4.130
32820SOL    HW1  299   0.300   7.662   4.130
32820SOL    HW2  300   0.207   7.751   4.050
32821SOL     OW  301   7.770   9.527   2.964
32821SOL    HW1  302   7.792   9.538   2.872
32821SOL    HW2  303   7.837   9.577   3.011
32822SOL     OW  304   5.468   6.665   6.815
32822SOL    HW1  305   5.456   6.688   6.723
32822SOL    HW2  306   5.499   6.575   6.814
32823SOL     OW  307  11.170   7.026   1.240
32823SOL    HW1  308  11.122   6.946   1.263
32823SOL    HW2  309  11.251   6.993   1.200
32824SOL     OW  310   6.273  14.619  14.353
32824SOL    HW1  311   6.264  14.569  14.272
32824SOL    HW2  312   6.367  14.618  14.371
32825SOL     OW  313   6.284   4.860   3.494
32825SOL    HW1  314   6.225   4.805   3.441
32825SOL    HW2  315   6.321   4.800   3.558
32826SOL     OW  316   8.263   0.785   6.770
32826SOL    HW1  317   8.249   0.714   6.707
32826SOL    HW2  318   8.200   0.852   6.744
32827SOL     OW  319   9.711   8.434   1.228
32827SOL    HW1  320   9.791   8.484   1.245
32827SOL    HW2  321   9.665   8.433   1.312
32828SOL     OW  322   8.857  11.905   9.622
32828SOL    HW1  323   8.823  11.939   9.539
32828SOL    HW2  324   8.944  11.871   9.600
32829SOL     OW  325  14.520   2.949   5.699
32829SOL    HW1  326  14.521   2.959   5.795
32829SOL    HW2  327  14.437   2.905   5.681
32830SOL     OW  328   3.508   6.353  13.346
32830SOL    HW1  329   3.428   6.381  13.300
32830SOL    HW2  330   3.538   6.278  13.296
32831SOL     OW  331   1.535   0.732   1.161
32831SOL    HW1  332   1.539   0.793   1.235
32831SOL    HW2  333   1.557   0.647   1.198
32832SOL     OW  334  11.642  10.610   6.685
32832SOL    HW1  335  11.606  10.631   6.771
32832SOL    HW2  336  11.582  10.544   6.650
32833SOL     OW  337   7.680  14.293  11.477
32833SOL    HW1  338   7.655  14.368  11.424
32833SOL    HW2  339   7.632  14.305  11.559
32834SOL     OW  340   2.098   9.943  13.978
32834SOL    HW1  341   2.089   9.914  14.069
32834SOL    HW2  342   2.033   9.892  13.930
32835SOL     OW  343   6.917  14.796   8.593
32835SOL    HW1  344   6.944  14.720   8.645
32835SOL    HW2  345   6.977  14.797   8.519
32836SOL     OW  346   9.526  10.330   3.194
32836SOL    HW1  347   9.583  10.341   3.271
32836SOL    HW2  348   9.453  10.277   3.225
32837SOL     OW  349   4.469   2.183   9.261
32837SOL    HW1  350   4.527   2.247   9.302
32837SOL    HW2  351   4.381   2.211   9.286
32838SOL     OW  352  10.654   0.155  11.575
32838SOL    HW1  353  10.738   0.111  11.587
32838SOL    HW2  354  10.659   0.192  11.487
32839SOL     OW  355   0.266   2.756   5.126
32839SOL    HW1  356   0.206   2.811   5.176
32839SOL    HW2  357   0.219   2.674   5.114
32840SOL     OW  358   6.367   8.534   6.038
32840SOL    HW1  359   6.275   8.538   6.064
32840SOL    HW2  360   6.410   8.487   6.109
32841SOL     OW  361   6.457   6.389   7.747
32841SOL    HW1  362   6.496   6.450   7.684
32841SOL    HW2  363   6.509   6.310   7.739
32842SOL     OW  364   5.025   0.675   2.441
32842SOL    HW1  365   5.008   0.757   2.488
32842SOL    HW2  366   5.070   0.702   2.361
32843SOL     OW  367   3.689   7.626  11.710
32843SOL    HW1  368   3.622   7.694  11.717
32843SOL    HW2  369   3.646   7.556  11.659
32844SOL     OW  370  10.289   1.868  13.484
32844SOL    HW1  371  10.343   1.834  13.555
32844SOL    HW2  372  10.345   1.933  13.441
32845SOL     OW  373   3.954  10.492  12.203
32845SOL    HW1  374   3.903  10.456  12.131
32845SOL    HW2  375   3.914  10.456  12.282
32846SOL     OW  376   6.025  10.640   1.580
32846SOL    HW1  377   6.031  10.734   1.598
32846SOL    HW2  378   6.115  10.613   1.561
32847SOL     OW  379   7.357  13.016   0.712
32847SOL    HW1  380   7.269  13.046   0.690
32847SOL    HW2  381   7.356  12.923   0.693
32848SOL     OW  382   8.459  11.151   3.875
32848SOL    HW1  383   8.372  11.168   3.911
32848SOL    HW2  384   8.489  11.072   3.920
32849SOL     OW  385  11.025  13.276   6.196
32849SOL    HW1  386  10.973  13.295   6.118
32849SOL    HW2  387  11.043  13.182   6.190
32850SOL     OW  388   2.166   2.300  12.108
32850SOL    HW1  389   2.123   2.225  12.067
32850SOL    HW2  390   2.110   2.375  12.086
32851SOL     OW  391   7.155   1.289   0.950
32851SOL    HW1  392   7.233   1.236   0.943
32851SOL    HW2  393   7.151   1.337   0.867
32852SOL     OW  394   7.396  11.475   9.782
32852SOL    HW1  395   7.353  11.542   9.730
32852SOL    HW2  396   7.338  11.460   9.857
32853SOL     OW  397  10.930   4.171   9.278
32853SOL    HW1  398  10.870   4.246   9.282
32853SOL    HW2  399  10.891   4.113   9.212
32854SOL     OW  400   9.599   3.113  14.616
32854SOL    HW1  401   9.531   3.053  14.648
32854SOL    HW2  402   9.640   3.147  14.695
32855SOL     OW  403  11.715   0.257   8.804
32855SOL    HW1  404  11.662   0.321   8.756
32855SOL    HW2  405  11.805   0.280   8.784
32856SOL     OW  406   9.510  13.432  10.680
32856SOL    HW1  407   9.459  13.351  10.686
32856SOL    HW2  408   9.595  13.410  10.718
32857SOL     OW  409   7.797   7.660  11.238
32857SOL    HW1  410   7.809   7.753  11.220
32857SOL    HW2  411   7.763   7.657  11.327
32858SOL     OW  412   6.916   2.096   0.223
32858SOL    HW1  413   6.928   2.013   0.269
32858SOL    HW2  414   6.988   2.099   0.160
32859SOL     OW  415  14.560   1.971   1.889
32859SOL    HW1  416  14.502   1.958   1.964
32859SOL    HW2  417  14.521   1.919   1.819
32860SOL     OW  418   2.251   5.591  13.080
32860SOL    HW1  419   2.220   5.590  12.990
32860SOL    HW2  420   2.314   5.519  13.084
32861SOL     OW  421   4.176  13.256   5.223
32861SOL    HW1  422   4.224  13.260   5.141
32861SOL    HW2  423   4.241  13.277   5.290
32862SOL     OW  424   4.888   0.555  12.960
32862SOL    HW1  425   4.820   0.549  13.027
32862SOL    HW2  426   4.965   0.585  13.008
32863SOL     OW  427   3.447   9.161   9.779
32863SOL    HW1  428   3.534   9.181   9.814
32863SOL    HW2  429   3.465   9.120   9.694
32864SOL     OW  430   3.732  12.534  12.630
32864SOL    HW1  431   3.705  12.443  12.639
32864SOL    HW2  432   3.651  12.581  12.612
32865SOL     OW  433  11.499   6.782   1.339
32865SOL    HW1  434  11.415   6.787   1.294
32865SOL    HW2  435  11.547   6.859   1.308
32866SOL     OW  436  14.880  12.278   4.637
32866SOL    HW1  437  14.879  12.245   4.547
32866SOL    HW2  438  14.788  12.296   4.657
32867SOL     OW  439   5.963   4.827   1.465
32867SOL    HW1  440   6.018   4.846   1.389
32867SOL    HW2  441   5.897   4.767   1.432
32868SOL     OW  442  12.944   7.380   7.440
32868SOL    HW1  443  12.955   7.335   7.356
32868SOL    HW2  444  12.901   7.317   7.497
32869SOL     OW  445  13.690   0.255  13.427
32869SOL    HW1  446  13.681   0.303  13.344
32869SOL    HW2  447  13.600   0.241  13.456
32870SOL     OW  448   7.955  11.264   2.396
32870SOL    HW1  449   7.940  11.307   2.312
32870SOL    HW2  450   7.958  11.171   2.375
32871SOL     OW  451   6.128  12.108   3.604
32871SOL    HW1  452   6.059  12.046   3.631
32871SOL    HW2  453   6.201  12.052   3.579
32872SOL     OW  454   2.586   5.624   8.445
32872SOL    HW1  455   2.583   5.666   8.531
32872SOL    HW2  456   2.668   5.653   8.406
32873SOL     OW  457   7.867   9.499   6.410
32873SOL    HW1  458   7.822   9.416   6.422
32873SOL    HW2  459   7.960   9.478   6.416
32874SOL     OW  460  12.010  11.139  13.347
32874SOL    HW1  461  12.009  11.056  13.300
32874SOL    HW2  462  11.938  11.189  13.309
32875SOL     OW  463  13.415   1.328   9.849
32875SOL    HW1  464  13.387   1.247   9.892
32875SOL    HW2  465  13.407   1.395   9.916
32876SOL     OW  466   1.139   6.666  14.829
32876SOL    HW1  467   1.120   6.590   0.001
32876SOL    HW2  468   1.227   6.650  14.795
32877SOL     OW  469  14.734  12.508  13.599
32877SOL    HW1  470  14.722  12.544  13.687
32877SOL    HW2  471  14.647  12.475  13.575
32878SOL     OW  472  10.470   3.768  14.417
32878SOL    HW1  473  10.459   3.702  14.485
32878SOL    HW2  474  10.558   3.753  14.382
32879SOL     OW  475   5.953   4.346   1.039
32879SOL    HW1  476   5.958   4.258   1.076
32879SOL    HW2  477   5.860   4.367   1.037
32880SOL     OW  478  10.479  10.428  13.213
32880SOL    HW1  479  10.534  10.455  13.286
32880SOL    HW2  480  10.456  10.509  13.168
32881SOL     OW  481   1.983   4.806  14.413
32881SOL    HW1  482   1.945   4.786  14.328
32881SOL    HW2  483   1.917   4.858  14.458
32882SOL     OW  484   7.949  13.920   8.917
32882SOL    HW1  485   7.965  13.890   8.827
32882SOL    HW2  486   7.866  13.966   8.912
32883SOL     OW  487   6.550   3.787   0.246
32883SOL    HW1  488   6.628   3.758   0.200
32883SOL    HW2  489   6.515   3.708   0.287
32884SOL     OW  490   1.970   8.299  10.386
32884SOL    HW1  491   2.010   8.346  10.313
32884SOL    HW2  492   1.991   8.207  10.370
32885SOL     OW  493   6.431   3.756   8.769
32885SOL    HW1  494   6.356   3.701   8.746
32885SOL    HW2  495   6.478   3.706   8.836
32886SOL     OW  496   2.152  13.355   0.021
32886SOL    HW1  497   2.188  13.442   0.036
32886SOL    HW2  498   2.150  13.314   0.107
32887SOL     OW  499   9.440   0.665   7.803
32887SOL    HW1  500   9.478   0.735   7.857
32887SOL    HW2  501   9.372   0.707   7.752
32888SOL     OW  502   6.540   1.299   7.277
32888SOL    HW1  503   6.492   1.380   7.260
32888SOL    HW2  504   6.615   1.326   7.330
32889SOL     OW  505   8.254   1.070   2.865
32889SOL    HW1  506   8.225   0.979   2.861
32889SOL    HW2  507   8.195   1.111   2.929
32890SOL     OW  508   8.223  12.887  12.360
32890SOL    HW1  509   8.222  12.980  12.380
32890SOL    HW2  510   8.133  12.858  12.374
32891SOL     OW  511   2.023   7.097  14.181
32891SOL    HW1  512   2.108   7.107  14.223
32891SOL    HW2  513   1.963   7.072  14.251
32892SOL     OW  514   4.990   5.016   0.097
32892SOL    HW1  515   5.078   4.982   0.111
32892SOL    HW2  516   4.940   4.986   0.173
32893SOL     OW  517  12.929   0.386  10.928
32893SOL    HW1  518  13.017   0.389  10.968
32893SOL    HW2  519  12.887   0.467  10.958
32894SOL     OW  520   8.012   7.547   6.817
32894SOL    HW1  521   8.037   7.472   6.871
32894SOL    HW2  522   7.917   7.545   6.815
32895SOL     OW  523   8.707  12.841   5.476
32895SOL    HW1  524   8.724  12.839   5.381
32895SOL    HW2  525   8.612  12.850   5.482
32896SOL     OW  526   3.925   2.112   7.561
32896SOL    HW1  527   3.986   2.041   7.582
32896SOL    HW2  528   3.844   2.067   7.537
32897SOL     OW  529  12.077   4.098   4.448
32897SOL    HW1  530  12.122   4.151   4.382
32897SOL    HW2  531  12.019   4.159   4.492
32898SOL     OW  532  14.654   2.605  14.657
32898SOL    HW1  533  14.601   2.529  14.681
32898SOL    HW2  534  14.653   2.606  14.562
32899SOL     OW  535  12.487  11.870  14.345
32899SOL    HW1  536  12.462  11.946  14.397
32899SOL    HW2  537  12.440  11.882  14.262
32900SOL     OW  538   1.274   6.177  12.981
32900SOL    HW1  539   1.281   6.272  12.965
32900SOL    HW2  540   1.275   6.170  13.076
32901SOL     OW  541   8.905   5.517   0.051
32901SOL    HW1  542   8.856   5.439   0.076
32901SOL    HW2  543   8.838   5.579   0.021
32902SOL     OW  544  14.768   9.235   9.766
32902SOL    HW1  545  14.808   9.150   9.784
32902SOL    HW2  546  14.745   9.232   9.673
32903SOL     OW  547  11.609   2.741  14.725
32903SOL    HW1  548  11.613   2.665  14.782
32903SOL    HW2  549  11.583   2.813  14.782
32904SOL     OW  550   2.180   5.375   0.673
32904SOL    HW1  551   2.160   5.373   0.580
32904SOL    HW2  552   2.144   5.459   0.703
32905SOL     OW  553   5.773   7.724  11.417
32905SOL    HW1  554   5.859   7.683  11.410
32905SOL    HW2  555   5.782   7.786  11.490
32906SOL     OW  556  10.862   6.563   8.056
32906SOL    HW1  557  10.865   6.592   8.147
32906SOL    HW2  558  10.870   6.644   8.005
32907SOL     OW  559  11.254   7.566   4.202
32907SOL    HW1  560  11.161   7.578   4.186
32907SOL    HW2  561  11.266   7.593   4.293
32908SOL     OW  562  13.594   7.982  12.947
32908SOL    HW1  563  13.520   7.967  13.006
32908SOL    HW2  564  13.660   8.024  13.002
32909SOL     OW  565  11.216   6.351   5.277
32909SOL    HW1  566  11.235   6.340   5.370
32909SOL    HW2  567  11.172   6.270   5.251
32910SOL     OW  568   7.868   8.105  12.140
32910SOL    HW1  569   7.905   8.173  12.084
32910SOL    HW2  570   7.942   8.049  12.163
32911SOL     OW  571  10.816   9.492   2.110
32911SOL    HW1  572  10.790   9.542   2.187
32911SOL    HW2  573  10.736   9.447   2.083
32912SOL     OW  574  10.716   5.361  13.683
32912SOL    HW1  575  10.808   5.341  13.698
32912SOL    HW2  576  10.699   5.329  13.594
32913SOL     OW  577   1.452   4.910  10.288
32913SOL    HW1  578   1.523   4.943  10.343
32913SOL    HW2  579   1.454   4.815  10.300
32914SOL     OW  580   6.464   8.763   8.347
32914SOL    HW1  581   6.544   8.710   8.345
32914SOL    HW2  582   6.397   8.704   8.381
32915SOL     OW  583  12.644   3.424   0.551
32915SOL    HW1  584  12.657   3.329   0.542
32915SOL    HW2  585  12.687   3.447   0.634
32916SOL     OW  586   2.802   6.435  12.623
32916SOL    HW1  587   2.807   6.343  12.597
32916SOL    HW2  588   2.860   6.442  12.698
32917SOL     OW  589  12.521   6.992   6.934
32917SOL    HW1  590  12.598   7.019   6.884
32917SOL    HW2  591  12.465   6.949   6.870
32918SOL     OW  592   3.888  13.638   6.959
32918SOL    HW1  593   3.891  13.580   6.882
32918SOL    HW2  594   3.851  13.720   6.925
32919SOL     OW  595  14.777   7.579   0.843
32919SOL    HW1  596  14.737   7.512   0.899
32919SOL    HW2  597  14.710   7.647   0.836
32920SOL     OW  598  11.566   4.152   0.046
32920SOL    HW1  599  11.574   4.235   0.093
32920SOL    HW2  600  11.588   4.173  14.837
32921SOL     OW  601   6.873   0.483   8.453
32921SOL    HW1  602   6.904   0.501   8.365
32921SOL    HW2  603   6.895   0.562   8.503
32922SOL     OW  604   6.176   2.781  13.944
32922SOL    HW1  605   6.156   2.691  13.970
32922SOL    HW2  606   6.272   2.784  13.941
32923SOL     OW  607   8.005   5.026   8.379
32923SOL    HW1  608   7.997   4.978   8.461
32923SOL    HW2  609   8.037   5.113   8.405
32924SOL     OW  610   7.173  10.425   3.575
32924SOL    HW1  611   7.193  10.382   3.491
32924SOL    HW2  612   7.243  10.489   3.587
32925SOL     OW  613  12.692   0.565   2.650
32925SOL    HW1  614  12.694   0.655   2.683
32925SOL    HW2  615  12.696   0.575   2.555
32926SOL     OW  616   4.124  12.425   8.347
32926SOL    HW1  617   4.036  12.387   8.355
32926SOL    HW2  618   4.180  12.366   8.396
32927SOL     OW  619   1.622   5.140   8.063
32927SOL    HW1  620   1.673   5.153   7.983
32927SOL    HW2  621   1.566   5.217   8.069
32928SOL     OW  622   0.047   0.336   4.877
32928SOL    HW1  623   0.044   0.276   4.952
32928SOL    HW2  624   0.044   0.279   4.800
32929SOL     OW  625   5.696  14.076  10.046
32929SOL    HW1  626   5.645  14.157  10.047
32929SOL    HW2  627   5.687  14.040  10.134
32930SOL     OW  628  12.868   9.926  12.113
32930SOL    HW1  629  12.941   9.969  12.069
32930SOL    HW2  630  12.808   9.901  12.043
32931SOL     OW  631   9.168   9.594   8.918
32931SOL    HW1  632   9.177   9.673   8.865
32931SOL    HW2  633   9.091   9.609   8.972
32932SOL     OW  634   6.584  10.778   3.021
32932SOL    HW1  635   6.607  10.778   3.113
32932SOL    HW2  636   6.662  10.813   2.977
32933SOL     OW  637   4.070   5.504   3.730
32933SOL    HW1  638   4.097   5.527   3.641
32933SOL    HW2  639   4.132   5.551   3.786
32934SOL     OW  640   3.539  13.263  14.508
32934SOL    HW1  641   3.572  13.333  14.452
32934SOL    HW2  642   3.552  13.296  14.598
32935SOL     OW  643   8.062   3.146   7.922
32935SOL    HW1  644   8.110   3.195   7.856
32935SOL    HW2  645   7.999   3.093   7.873
32936SOL     OW  646   3.456   9.037   7.977
32936SOL    HW1  647   3.390   9.075   8.036
32936SOL    HW2  648   3.410   8.963   7.936
32937SOL     OW  649  14.048   6.798   7.489
32937SOL    HW1  650  13.992   6.729   7.455
32937SOL    HW2  651  14.137   6.774   7.460
32938SOL     OW  652  12.596  14.812   0.610
32938SOL    HW1  653  12.523  14.839   0.666
32938SOL    HW2  654  12.576  14.721   0.586
32939SOL     OW  655   3.674   9.862  14.362
32939SOL    HW1  656   3.617   9.935  14.336
32939SOL    HW2  657   3.613   9.790  14.381
32940SOL     OW  658   4.624  14.592  13.957
32940SOL    HW1  659   4.563  14.520  13.976
32940SOL    HW2  660   4.568  14.668  13.946
32941SOL     OW  661   3.341   0.739   4.814
32941SOL    HW1  662   3.268   0.765   4.758
32941SOL    HW2  663   3.319   0.776   4.900
32942SOL     OW  664  12.564  14.385   5.985
32942SOL    HW1  665  12.602  14.306   6.025
32942SOL    HW2  666  12.638  14.445   5.977
32943SOL     OW  667   4.373   9.673   7.691
32943SOL    HW1  668   4.458   9.692   7.651
32943SOL    HW2  669   4.314   9.659   7.616
32944SOL     OW  670   7.296   5.808   3.124
32944SOL    HW1  671   7.281   5.901   3.140
32944SOL    HW2  672   7.232   5.763   3.181
32945SOL     OW  673   3.265   8.989   7.397
32945SOL    HW1  674   3.252   8.895   7.381
32945SOL    HW2  675   3.177   9.025   7.398
32946SOL     OW  676   6.638   1.162  13.297
32946SOL    HW1  677   6.643   1.100  13.371
32946SOL    HW2  678   6.598   1.240  13.334
32947SOL     OW  679   5.992   9.284  13.318
32947SOL    HW1  680   5.899   9.274  13.298
32947SOL    HW2  681   6.004   9.239  13.401
32948SOL     OW  682   0.643  13.060   3.558
32948SOL    HW1  683   0.690  12.987   3.516
32948SOL    HW2  684   0.598  13.019   3.632
32949SOL     OW  685   3.135   3.494   7.828
32949SOL    HW1  686   3.166   3.404   7.826
32949SOL    HW2  687   3.074   3.496   7.902
32950SOL     OW  688   2.892   8.688   5.477
32950SOL    HW1  689   2.856   8.727   5.397
32950SOL    HW2  690   2.840   8.727   5.547
32951SOL     OW  691  13.473   0.160   2.351
32951SOL    HW1  692  13.524   0.208   2.287
32951SOL    HW2  693  13.500   0.068   2.340
32952SOL     OW  694  10.618   0.894   4.972
32952SOL    HW1  695  10.659   0.877   5.057
32952SOL    HW2  696  10.689   0.928   4.918
32953SOL     OW  697   3.500   8.562   3.224
32953SOL    HW1  698   3.487   8.583   3.316
32953SOL    HW2  699   3.414   8.577   3.183
32954SOL     OW  700   6.331  12.188   6.116
32954SOL    HW1  701   6.237  12.191   6.098
32954SOL    HW2  702   6.348  12.097   6.141
32955SOL     OW  703  10.034  13.188  11.359
32955SOL    HW1  704  10.030  13.284  11.355
32955SOL    HW2  705   9.949  13.162  11.394
32956SOL     OW  706   4.771   2.093   1.065
32956SOL    HW1  707   4.829   2.107   0.990
32956SOL    HW2  708   4.683   2.109   1.032
32957SOL     OW  709   9.942   0.649   6.023
32957SOL    HW1  710  10.029   0.687   6.018
32957SOL    HW2  711   9.955   0.556   6.005
32958SOL     OW  712   9.180  12.463   4.173
32958SOL    HW1  713   9.102  12.515   4.191
32958SOL    HW2  714   9.191  12.409   4.252
32959SOL     OW  715  10.718   0.189   5.888
32959SOL    HW1  716  10.795   0.168   5.941
32959SOL    HW2  717  10.664   0.110   5.891
32960SOL     OW  718   1.630   0.253   7.884
32960SOL    HW1  719   1.598   0.338   7.853
32960SOL    HW2  720   1.683   0.273   7.961
32961SOL     OW  721  10.407  14.053   6.859
32961SOL    HW1  722  10.382  14.124   6.918
32961SOL    HW2  723  10.357  14.070   6.779
32962SOL     OW  724  10.389   8.255  13.210
32962SOL    HW1  725  10.453   8.189  13.186
32962SOL    HW2  726  10.326   8.209  13.266
32963SOL     OW  727   5.306   6.213   4.770
32963SOL    HW1  728   5.213   6.208   4.789
32963SOL    HW2  729   5.326   6.306   4.768
32964SOL     OW  730   0.123  11.730   7.113
32964SOL    HW1  731   0.105  11.669   7.041
32964SOL    HW2  732   0.088  11.687   7.191
32965SOL     OW  733  14.616   8.953   2.573
32965SOL    HW1  734  14.576   8.996   2.649
32965SOL    HW2  735  14.710   8.961   2.587
32966SOL     OW  736   0.016   1.044   9.059
32966SOL    HW1  737   0.040   1.100   9.132
32966SOL    HW2  738   0.008   0.957   9.098
32967SOL     OW  739   3.941   0.469   3.957
32967SOL    HW1  740   3.974   0.453   3.869
32967SOL    HW2  741   4.009   0.522   4.000
32968SOL     OW  742   3.425  11.588  14.458
32968SOL    HW1  743   3.371  11.667  14.453
32968SOL    HW2  744   3.394  11.534  14.385
32969SOL     OW  745   0.939   1.012   8.805
32969SOL    HW1  746   0.942   1.047   8.894
32969SOL    HW2  747   0.874   0.941   8.809
32970SOL     OW  748   0.733  13.660  10.077
32970SOL    HW1  749   0.804  13.697  10.024
32970SOL    HW2  750   0.654  13.678  10.026
32971SOL     OW  751   8.254  10.636   8.540
32971SOL    HW1  752   8.215  10.719   8.513
32971SOL    HW2  753   8.213  10.616   8.625
32972SOL     OW  754   8.019   4.459   8.616
32972SOL    HW1  755   8.086   4.471   8.683
32972SOL    HW2  756   7.945   4.511   8.646
32973SOL     OW  757  13.135   6.760   3.313
32973SOL    HW1  758  13.155   6.734   3.403
32973SOL    HW2  759  13.050   6.803   3.318
32974SOL     OW  760   7.894   0.360   5.148
32974SOL    HW1  761   7.817   0.323   5.192
32974SOL    HW2  762   7.858   0.397   5.067
32975SOL     OW  763   3.288   5.305   1.646
32975SOL    HW1  764   3.353   5.375   1.637
32975SOL    HW2  765   3.340   5.226   1.664
32976SOL     OW  766  14.104  11.150  12.634
32976SOL    HW1  767  14.137  11.148  12.724
32976SOL    HW2  768  14.014  11.118  12.641
32977SOL     OW  769   8.692  13.527   9.656
32977SOL    HW1  770   8.718  13.458   9.717
32977SOL    HW2  771   8.635  13.482   9.593
32978SOL     OW  772   0.031  10.079   4.760
32978SOL    HW1  773   0.096  10.105   4.825
32978SOL    HW2  774   0.001  10.162   4.722
32979SOL     OW  775  12.546  12.439   4.000
32979SOL    HW1  776  12.576  12.469   4.086
32979SOL    HW2  777  12.450  12.439   4.007
32980SOL     OW  778   3.378   1.777   7.875
32980SOL    HW1  779   3.324   1.732   7.940
32980SOL    HW2  780   3.331   1.860   7.860
32981SOL     OW  781   6.406   1.318   8.579
32981SOL    HW1  782   6.396   1.382   8.650
32981SOL    HW2  783   6.422   1.372   8.501
32982SOL     OW  784  10.640  11.230   8.070
32982SOL    HW1  785  10.634  11.136   8.050
32982SOL    HW2  786  10.594  11.239   8.153
32983SOL     OW  787  10.983   1.141  13.763
32983SOL    HW1  788  11.065   1.093  13.756
32983SOL    HW2  789  10.996   1.202  13.836
32984SOL     OW  790   2.077   0.846  10.270
32984SOL    HW1  791   2.163   0.875  10.300
32984SOL    HW2  792   2.085   0.751  10.263
32985SOL     OW  793   9.154   4.983   3.840
32985SOL    HW1  794   9.165   5.075   3.815
32985SOL    HW2  795   9.086   4.950   3.782
32986SOL     OW  796   8.281   4.117   4.164
32986SOL    HW1  797   8.188   4.097   4.149
32986SOL    HW2  798   8.324   4.089   4.083
32987SOL     OW  799   4.335  11.951   4.099
32987SOL    HW1  800   4.322  12.039   4.133
32987SOL    HW2  801   4.251  11.907   4.113
32988SOL     OW  802   2.999   2.448   6.833
32988SOL    HW1  803   2.975   2.533   6.869
32988SOL    HW2  804   3.006   2.462   6.739
32989SOL     OW  805  14.330   6.051   2.525
32989SOL    HW1  806  14.375   6.006   2.454
32989SOL    HW2  807  14.328   6.143   2.499
32990SOL     OW  808  10.278   3.798  11.074
32990SOL    HW1  809  10.334   3.742  11.021
32990SOL    HW2  810  10.310   3.887  11.058
32991SOL     OW  811   5.202  13.398   2.052
32991SOL    HW1  812   5.225  13.445   2.133
32991SOL    HW2  813   5.109  13.417   2.039
32992SOL     OW  814   6.807   1.909  11.289
32992SOL    HW1  815   6.852   1.987  11.320
32992SOL    HW2  816   6.781   1.930  11.200
32993SOL     OW  817   4.172   7.179   0.717
32993SOL    HW1  818   4.086   7.156   0.682
32993SOL    HW2  819   4.153   7.237   0.791
32994SOL     OW  820  14.869   0.367   7.845
32994SOL    HW1  821  14.805   0.428   7.811
32994SOL    HW2  822  14.864   0.291   7.787
32995SOL     OW  823  11.714   9.358  13.022
32995SOL    HW1  824  11.758   9.355  12.936
32995SOL    HW2  825  11.625   9.329  13.004
32996SOL     OW  826   1.444   9.676   9.476
32996SOL    HW1  827   1.373   9.636   9.526
32996SOL    HW2  828   1.506   9.605   9.461
32997SOL     OW  829   4.226  14.594   3.606
32997SOL    HW1  830   4.280  14.583   3.528
32997SOL    HW2  831   4.250  14.520   3.662
32998SOL     OW  832   8.918   0.509   1.193
32998SOL    HW1  833   9.009   0.527   1.215
32998SOL    HW2  834   8.871   0.589   1.215
32999SOL     OW  835   2.613  10.102   9.920
32999SOL    HW1  836   2.580  10.151   9.844
32999SOL    HW2  837   2.572  10.143   9.995
33000SOL     OW  838   6.875   9.082   1.835
33000SOL    HW1  839   6.854   9.175   1.838
33000SOL    HW2  840   6.883   9.056   1.926
33001SOL     OW  841   0.673  13.616   5.791
33001SOL    HW1  842   0.585  13.615   5.754
33001SOL    HW2  843   0.660  13.608   5.885
33002SOL     OW  844  10.527   8.447   4.978
33002SOL    HW1  845  10.511   8.360   5.016
33002SOL    HW2  846  10.487   8.442   4.891
33003SOL     OW  847  10.587   3.487   3.546
33003SOL    HW1  848  10.513   3.429   3.563
33003SOL    HW2  849  10.659   3.450   3.597
33004SOL     OW  850   8.948  10.013  11.418
33004SOL    HW1  851   8.941   9.918  11.411
33004SOL    HW2  852   8.948  10.030  11.512
33005SOL     OW  853  14.612   9.254  12.447
33005SOL    HW1  854  14.639   9.304  12.370
33005SOL    HW2  855  14.552   9.313  12.494
33006SOL     OW  856  13.402   8.072   1.269
33006SOL    HW1  857  13.370   8.130   1.338
33006SOL    HW2  858  13.423   8.131   1.196
33007SOL     OW  859  11.168   9.060   3.486
33007SOL    HW1  860  11.132   8.988   3.538
33007SOL    HW2  861  11.110   9.066   3.410
33008SOL     OW  862   5.133   5.716   3.251
33008SOL    HW1  863   5.082   5.797   3.260
33008SOL    HW2  864   5.093   5.656   3.313
33009SOL     OW  865   7.924   6.287   3.320
33009SOL    HW1  866   7.974   6.300   3.239
33009SOL    HW2  867   7.867   6.364   3.326
33010SOL     OW  868   6.431   9.209   6.411
33010SOL    HW1  869   6.382   9.164   6.479
33010SOL    HW2  870   6.519   9.170   6.415
33011SOL     OW  871   4.176   9.173   6.834
33011SOL    HW1  872   4.262   9.131   6.844
33011SOL    HW2  873   4.150   9.196   6.923
33012SOL     OW  874   6.351  10.735  12.947
33012SOL    HW1  875   6.367  10.728  12.853
33012SOL    HW2  876   6.256  10.747  12.955
33013SOL     OW  877   7.422   3.263   9.166
33013SOL    HW1  878   7.406   3.207   9.090
33013SOL    HW2  879   7.508   3.236   9.198
33014SOL     OW  880  14.836   8.749  13.199
33014SOL    HW1  881   0.007   8.828  13.209
33014SOL    HW2  882  14.871   8.705  13.121
33015SOL     OW  883  12.038   8.605  12.111
33015SOL    HW1  884  12.035   8.587  12.017
33015SOL    HW2  885  11.961   8.661  12.128
33016SOL     OW  886   9.898   4.628  10.850
33016SOL    HW1  887   9.862   4.614  10.762
33016SOL    HW2  888   9.987   4.591  10.845
33017SOL     OW  889   0.703   1.172   6.523
33017SOL    HW1  890   0.749   1.218   6.593
33017SOL    HW2  891   0.713   1.079   6.545
33018SOL     OW  892   0.787   7.877  12.250
33018SOL    HW1  893   0.864   7.840  12.294
33018SOL    HW2  894   0.778   7.826  12.169
33019SOL     OW  895   0.707   9.643  14.605
33019SOL    HW1  896   0.619   9.656  14.638
33019SOL    HW2  897   0.764   9.679  14.672
33020SOL     OW  898   5.945  11.743  11.624
33020SOL    HW1  899   5.857  11.759  11.591
33020SOL    HW2  900   5.932  11.690  11.702
33021SOL     OW  901  12.464  11.382   6.451
33021SOL    HW1  902  12.385  11.340   6.418
33021SOL    HW2  903  12.454  11.474   6.427
33022SOL     OW  904  13.841   6.041   3.478
33022SOL    HW1  905  13.918   6.097   3.474
33022SOL    HW2  906  13.779   6.081   3.416
33023SOL     OW  907   2.642   8.957   2.578
33023SOL    HW1  908   2.555   8.953   2.540
33023SOL    HW2  909   2.632   8.918   2.665
33024SOL     OW  910   3.688  10.066   1.144
33024SOL    HW1  911   3.723  10.062   1.055
33024SOL    HW2  912   3.708   9.981   1.183
33025SOL     OW  913   3.388   6.859   0.612
33025SOL    HW1  914   3.309   6.805   0.612
33025SOL    HW2  915   3.379   6.914   0.690
33026SOL     OW  916   4.794   4.624  14.103
33026SOL    HW1  917   4.857   4.558  14.073
33026SOL    HW2  918   4.823   4.647  14.191
33027SOL     OW  919  13.477  12.629   0.074
33027SOL    HW1  920  13.517  12.647  14.871
33027SOL    HW2  921  13.541  12.662   0.137
33028SOL     OW  922   7.685   4.286   1.196
33028SOL    HW1  923   7.773   4.274   1.159
33028SOL    HW2  924   7.680   4.220   1.266
33029SOL     OW  925   8.737  12.914   1.419
33029SOL    HW1  926   8.672  12.925   1.488
33029SOL    HW2  927   8.815  12.880   1.464
33030SOL     OW  928   4.357   1.203  14.711
33030SOL    HW1  929   4.429   1.265  14.725
33030SOL    HW2  930   4.341   1.165  14.797
33031SOL     OW  931   2.902   5.516   6.944
33031SOL    HW1  932   2.900   5.528   7.039
33031SOL    HW2  933   2.883   5.423   6.931
33032SOL     OW  934  14.164  10.879   5.459
33032SOL    HW1  935  14.210  10.863   5.376
33032SOL    HW2  936  14.225  10.931   5.511
33033SOL     OW  937   6.569   4.776   1.735
33033SOL    HW1  938   6.526   4.810   1.813
33033SOL    HW2  939   6.540   4.832   1.664
33034SOL     OW  940   9.069   2.281  14.754
33034SOL    HW1  941   9.158   2.257  14.730
33034SOL    HW2  942   9.039   2.336  14.681
33035SOL     OW  943   8.682  12.264   6.667
33035SOL    HW1  944   8.740  12.319   6.720
33035SOL    HW2  945   8.742  12.207   6.618
33036SOL     OW  946   6.597  11.460   9.550
33036SOL    HW1  947   6.652  11.444   9.473
33036SOL    HW2  948   6.599  11.555   9.561
33037SOL     OW  949   7.991   9.662   4.584
33037SOL    HW1  950   7.967   9.678   4.676
33037SOL    HW2  951   8.081   9.628   4.588
33038SOL     OW  952   1.597   8.055   1.530
33038SOL    HW1  953   1.653   8.105   1.589
33038SOL    HW2  954   1.644   8.054   1.447
33039SOL     OW  955   7.888   7.029   9.678
33039SOL    HW1  956   7.975   7.049   9.642
33039SOL    HW2  957   7.905   6.975   9.755
33040SOL     OW  958  12.034  13.353   7.668
33040SOL    HW1  959  12.007  13.371   7.578
33040SOL    HW2  960  11.954  13.364   7.720
33041SOL     OW  961   2.258  10.032   4.054
33041SOL    HW1  962   2.305   9.949   4.054
33041SOL    HW2  963   2.197  10.026   3.981
33042SOL     OW  964  11.039  11.449   4.609
33042SOL    HW1  965  11.079  11.421   4.692
33042SOL    HW2  966  11.101  11.512   4.573
33043SOL     OW  967   0.861   6.049  10.631
33043SOL    HW1  968   0.868   5.976  10.569
33043SOL    HW2  969   0.769   6.048  10.658
33044SOL     OW  970   2.758   7.654  10.169
33044SOL    HW1  971   2.831   7.716  10.170
33044SOL    HW2  972   2.799   7.568  10.182
33045SOL     OW  973  14.235   2.790   6.888
33045SOL    HW1  974  14.297   2.753   6.952
33045SOL    HW2  975  14.234   2.884   6.908
33046SOL     OW  976   4.578   3.240   1.596
33046SOL    HW1  977   4.648   3.292   1.558
33046SOL    HW2  978   4.542   3.190   1.523
33047SOL     OW  979   2.872  12.595  10.048
33047SOL    HW1  980   2.962  12.625  10.045
33047SOL    HW2  981   2.858  12.572  10.140
33048SOL     OW  982  14.527  12.589   5.448
33048SOL    HW1  983  14.526  12.567   5.541
33048SOL    HW2  984  14.600  12.538   5.412
33049SOL     OW  985   4.330   5.163  12.265
33049SOL    HW1  986   4.390   5.173  12.340
33049SOL    HW2  987   4.387   5.137  12.193
33050SOL     OW  988   9.850   2.945   5.276
33050SOL    HW1  989   9.897   3.021   5.309
33050SOL    HW2  990   9.758   2.972   5.276
33051SOL     OW  991   1.531   5.272   8.752
33051SOL    HW1  992   1.469   5.252   8.823
33051SOL    HW2  993   1.494   5.229   8.676
33052SOL     OW  994  12.379   7.660  11.528
33052SOL    HW1  995  12.294   7.660  11.483
33052SOL    HW2  996  12.358   7.636  11.618
33053SOL     OW  997   0.699   6.107   2.446
33053SOL    HW1  998   0.622   6.153   2.480
33053SOL    HW2  999   0.696   6.021   2.489
33054SOL     OW 1000   6.159  12.577   2.256
33054SOL    HW1 1001   6.225  12.516   2.290
33054SOL    HW2 1002   6.202  12.662   2.257
33055SOL     OW 1003  13.557   4.910   1.080
33055SOL    HW1 1004  13.538   4.996   1.116
33055SOL    HW2 1005  13.557   4.923   0.985
33056SOL     OW 1006   0.478   2.506   0.461
33056SOL    HW1 1007   0.541   2.443   0.428
33056SOL    HW2 1008   0.518   2.591   0.444
33057SOL     OW 1009   1.201   9.597   2.498
33057SOL    HW1 1010   1.222   9.505   2.513
33057SOL    HW2 1011   1.212   9.639   2.583
33058SOL     OW 1012   7.200  12.092   0.562
33058SOL    HW1 1013   7.179  12.008   0.522
33058SOL    HW2 1014   7.263  12.132   0.502
33059SOL     OW 1015  14.217   8.234  12.348
33059SOL    HW1 1016  14.237   8.222  12.441
33059SOL    HW2 1017  14.156   8.162  12.328
33060SOL     OW 1018  11.780   2.842   6.546
33060SOL    HW1 1019  11.783   2.747   6.529
33060SOL    HW2 1020  11.697   2.855   6.592
33061SOL     OW 1021   6.063  14.357  12.124
33061SOL    HW1 1022   6.014  14.305  12.059
33061SOL    HW2 1023   6.155  14.346  12.099
33062SOL     OW 1024   1.905  11.976   2.644
33062SOL    HW1 1025   1.818  11.997   2.611
33062SOL    HW2 1026   1.948  11.930   2.571
33063SOL     OW 1027   5.704  13.649   1.282
33063SOL    HW1 1028   5.678  13.693   1.363
33063SOL    HW2 1029   5.624  13.611   1.248
33064SOL     OW 1030   4.605  12.330   7.785
33064SOL    HW1 1031   4.614  12.236   7.769
33064SOL    HW2 1032   4.625  12.371   7.701
33065SOL     OW 1033   7.330   0.043  13.731
33065SOL    HW1 1034   7.320   0.098  13.809
33065SOL    HW2 1035   7.409  14.874  13.748
33066SOL     OW 1036   4.707   2.879   6.332
33066SOL    HW1 1037   4.726   2.786   6.325
33066SOL    HW2 1038   4.768   2.911   6.399
33067SOL     OW 1039   2.486  12.618  10.500
33067SOL    HW1 1040   2.391  12.616  10.486
33067SOL    HW2 1041   2.515  12.529  10.481
33068SOL     OW 1042   5.139   5.272  10.096
33068SOL    HW1 1043   5.090   5.353  10.088
33068SOL    HW2 1044   5.079   5.212  10.141
33069SOL     OW 1045   5.111   9.428   5.760
33069SOL    HW1 1046   5.046   9.457   5.824
33069SOL    HW2 1047   5.059   9.388   5.690
33070SOL     OW 1048   0.444   7.929  14.059
33070SOL    HW1 1049   0.439   8.021  14.083
33070SOL    HW2 1050   0.434   7.928  13.964
33071SOL     OW 1051   0.443   7.656   8.539
33071SOL    HW1 1052   0.493   7.699   8.608
33071SOL    HW2 1053   0.389   7.726   8.502
33072SOL     OW 1054   4.794   3.543   8.516
33072SOL    HW1 1055   4.810   3.459   8.559
33072SOL    HW2 1056   4.840   3.536   8.433
33073SOL     OW 1057   4.449  11.151   8.730
33073SOL    HW1 1058   4.378  11.132   8.669
33073SOL    HW2 1059   4.450  11.077   8.790
33074SOL     OW 1060   4.588  14.651   5.188
33074SOL    HW1 1061   4.615  14.560   5.178
33074SOL    HW2 1062   4.507  14.658   5.136
33075SOL     OW 1063   3.407  11.536   5.679
33075SOL    HW1 1064   3.439  11.495   5.760
33075SOL    HW2 1065   3.472  11.603   5.659
33076SOL     OW 1066  14.629   0.402   1.161
33076SOL    HW1 1067  14.626   0.457   1.083
33076SOL    HW2 1068  14.605   0.314   1.130
33077SOL     OW 1069   3.385   1.492   6.896
33077SOL    HW1 1070   3.361   1.570   6.946
33077SOL    HW2 1071   3.442   1.525   6.827
33078SOL     OW 1072   8.215   0.749   2.711
33078SOL    HW1 1073   8.296   0.708   2.742
33078SOL    HW2 1074   8.148   0.723   2.775
33079SOL     OW 1075  12.046   2.908   5.520
33079SOL    HW1 1076  12.111   2.978   5.511
33079SOL    HW2 1077  11.997   2.910   5.438
33080SOL     OW 1078   3.319  10.760   5.852
33080SOL    HW1 1079   3.415  10.763   5.842
33080SOL    HW2 1080   3.306  10.710   5.933
33081SOL     OW 1081  14.039   4.812  10.347
33081SOL    HW1 1082  14.019   4.882  10.286
33081SOL    HW2 1083  13.954   4.776  10.372
33082SOL     OW 1084   2.416  14.450   9.676
33082SOL    HW1 1085   2.499  14.482   9.642
33082SOL    HW2 1086   2.364  14.529   9.689
33083SOL     OW 1087   8.229   0.908  11.484
33083SOL    HW1 1088   8.233   0.823  11.529
33083SOL    HW2 1089   8.284   0.966  11.537
33084SOL     OW 1090   8.964   4.856   3.036
33084SOL    HW1 1091   8.915   4.903   3.103
33084SOL    HW2 1092   8.998   4.924   2.978
33085SOL     OW 1093   9.196  14.693   9.327
33085SOL    HW1 1094   9.234  14.623   9.380
33085SOL    HW2 1095   9.129  14.650   9.274
33086SOL     OW 1096   5.015   8.971  13.640
33086SOL    HW1 1097   4.966   8.993  13.561
33086SOL    HW2 1098   4.995   8.879  13.656
33087SOL     OW 1099  12.846  13.794  12.591
33087SOL    HW1 1100  12.920  13.814  12.649
33087SOL    HW2 1101  12.792  13.733  12.641
33088SOL     OW 1102   2.880   8.138   8.682
33088SOL    HW1 1103   2.852   8.137   8.590
33088SOL    HW2 1104   2.967   8.098   8.682
33089SOL     OW 1105  14.171  14.165   7.263
33089SOL    HW1 1106  14.153  14.258   7.249
33089SOL    HW2 1107  14.239  14.164   7.330
33090SOL     OW 1108   1.065   3.241   5.527
33090SOL    HW1 1109   1.035   3.152   5.541
33090SOL    HW2 1110   1.051   3.285   5.611
33091SOL     OW 1111  14.541  12.233  10.421
33091SOL    HW1 1112  14.579  12.299  10.363
33091SOL    HW2 1113  14.580  12.150  10.391
33092SOL     OW 1114   4.072   6.015  10.129
33092SOL    HW1 1115   4.023   5.935  10.107
33092SOL    HW2 1116   4.077   6.063  10.047
33093SOL     OW 1117  10.751  11.554  10.900
33093SOL    HW1 1118  10.715  11.642  10.911
33093SOL    HW2 1119  10.758  11.543  10.805
33094SOL     OW 1120   9.785   3.658  14.819
33094SOL    HW1 1121   9.881   3.658  14.813
33094SOL    HW2 1122   9.765   3.728  14.881
33095SOL     OW 1123   1.820   6.935   1.619
33095SOL    HW1 1124   1.741   6.974   1.656
33095SOL    HW2 1125   1.857   6.883   1.691
33096SOL     OW 1126   1.707   3.021   2.966
33096SOL    HW1 1127   1.665   3.060   2.889
33096SOL    HW2 1128   1.662   2.938   2.979
33097SOL     OW 1129   7.601   1.781   7.270
33097SOL    HW1 1130   7.634   1.710   7.215
33097SOL    HW2 1131   7.571   1.847   7.208
33098SOL     OW 1132   5.363   8.143   9.519
33098SOL    HW1 1133   5.422   8.101   9.457
33098SOL    HW2 1134   5.318   8.071   9.563
33099SOL     OW 1135   8.734   0.333   0.137
33099SOL    HW1 1136   8.652   0.291   0.162
33099SOL    HW2 1137   8.727   0.346   0.043
33100SOL     OW 1138  14.582   3.096   4.299
33100SOL    HW1 1139  14.579   3.178   4.349
33100SOL    HW2 1140  14.562   3.123   4.209
33101SOL     OW 1141  13.313   9.785  13.185
33101SOL    HW1 1142  13.232   9.766  13.138
33101SOL    HW2 1143  13.308   9.732  13.264
33102SOL     OW 1144  11.427   1.328   8.401
33102SOL    HW1 1145  11.411   1.271   8.325
33102SOL    HW2 1146  11.459   1.410   8.363
33103SOL     OW 1147   4.223   1.396   1.350
33103SOL    HW1 1148   4.188   1.363   1.432
33103SOL    HW2 1149   4.286   1.464   1.376
33104SOL     OW 1150  14.371   3.297   0.175
33104SOL    HW1 1151  14.324   3.236   0.232
33104SOL    HW2 1152  14.381   3.250   0.092
33105SOL     OW 1153  13.353   6.139   8.038
33105SOL    HW1 1154  13.263   6.160   8.011
33105SOL    HW2 1155  13.343   6.096   8.123
33106SOL     OW 1156  11.658   7.905   4.003
33106SOL    HW1 1157  11.731   7.846   3.982
33106SOL    HW2 1158  11.586   7.846   4.027
33107SOL     OW 1159  11.231   8.301   2.806
33107SOL    HW1 1160  11.186   8.264   2.882
33107SOL    HW2 1161  11.324   8.294   2.828
33108SOL     OW 1162   3.524   1.999   4.607
33108SOL    HW1 1163   3.540   1.987   4.513
33108SOL    HW2 1164   3.551   1.916   4.647
33109SOL     OW 1165  10.010  14.089  14.184
33109SOL    HW1 1166   9.964  14.173  14.191
33109SOL    HW2 1167  10.090  14.101  14.236
33110SOL     OW 1168  13.736  12.661  13.363
33110SOL    HW1 1169  13.648  12.624  13.372
33110SOL    HW2 1170  13.727  12.728  13.294
33111SOL     OW 1171   0.089   7.789   8.966
33111SOL    HW1 1172   0.087   7.718   8.903
33111SOL    HW2 1173   0.175   7.781   9.008
33112SOL     OW 1174   3.467  10.548   3.381
33112SOL    HW1 1175   3.556  10.569   3.412
33112SOL    HW2 1176   3.466  10.452   3.375
33113SOL     OW 1177   3.992   9.740   3.250
33113SOL    HW1 1178   3.985   9.832   3.228
33113SOL    HW2 1179   3.943   9.730   3.331
33114SOL     OW 1180  13.173  13.696   3.969
33114SOL    HW1 1181  13.202  13.716   3.880
33114SOL    HW2 1182  13.089  13.743   3.978
33115SOL     OW 1183   5.138  10.583   7.436
33115SOL    HW1 1184   5.052  10.545   7.455
33115SOL    HW2 1185   5.197  10.542   7.499
33116SOL     OW 1186   0.450  10.840   1.743
33116SOL    HW1 1187   0.392  10.907   1.780
33116SOL    HW2 1188   0.487  10.796   1.819
33117SOL     OW 1189  14.234  11.109   2.133
33117SOL    HW1 1190  14.239  11.204   2.142
33117SOL    HW2 1191  14.174  11.095   2.059
33118SOL     OW 1192   8.083   4.905  10.436
33118SOL    HW1 1193   8.138   4.952  10.499
33118SOL    HW2 1194   8.088   4.957  10.356
33119SOL     OW 1195  10.042   0.510   6.986
33119SOL    HW1 1196  10.134   0.527   6.966
33119SOL    HW2 1197   9.995   0.534   6.906
33120SOL     OW 1198   6.214  10.016   9.400
33120SOL    HW1 1199   6.166   9.979   9.474
33120SOL    HW2 1200   6.161   9.992   9.323
33121SOL     OW 1201  12.646   2.739   6.404
33121SOL    HW1 1202  12.582   2.725   6.334
33121SOL    HW2 1203  12.652   2.834   6.413
33122SOL     OW 1204   7.391   9.673   3.945
33122SOL    HW1 1205   7.321   9.613   3.920
33122SOL    HW2 1206   7.375   9.694   4.037
33123SOL     OW 1207   8.656  14.118   4.808
33123SOL    HW1 1208   8.600  14.157   4.875
33123SOL    HW2 1209   8.719  14.187   4.787
33124SOL     OW 1210   6.002   8.924   8.164
33124SOL    HW1 1211   6.049   8.956   8.242
33124SOL    HW2 1212   6.045   8.969   8.091
33125SOL     OW 1213  12.208   2.117  12.823
33125SOL    HW1 1214  12.164   2.163  12.894
33125SOL    HW2 1215  12.137   2.092  12.763
33126SOL     OW 1216  13.256   0.707   0.605
33126SOL    HW1 1217  13.235   0.616   0.582
33126SOL    HW2 1218  13.350   0.706   0.620
33127SOL     OW 1219   0.134  12.736   2.887
33127SOL    HW1 1220   0.101  12.646   2.881
33127SOL    HW2 1221   0.128  12.757   2.980
33128SOL     OW 1222   7.882   6.810  14.683
33128SOL    HW1 1223   7.922   6.724  14.672
33128SOL    HW2 1224   7.929   6.849  14.757
33129SOL     OW 1225  13.732   0.177  11.597
33129SOL    HW1 1226  13.764   0.092  11.629
33129SOL    HW2 1227  13.774   0.187  11.511
33130SOL     OW 1228   1.340   6.949   7.163
33130SOL    HW1 1229   1.371   6.947   7.254
33130SOL    HW2 1230   1.272   7.016   7.162
33131SOL     OW 1231   2.749   9.113  12.710
33131SOL    HW1 1232   2.819   9.119  12.774
33131SOL    HW2 1233   2.783   9.156  12.632
33132SOL     OW 1234   4.779   9.549   0.651
33132SOL    HW1 1235   4.795   9.630   0.699
33132SOL    HW2 1236   4.845   9.549   0.582
33133SOL     OW 1237  11.762  11.151   8.684
33133SOL    HW1 1238  11.678  11.106   8.688
33133SOL    HW2 1239  11.811  11.104   8.616
33134SOL     OW 1240  13.024   4.633  12.696
33134SOL    HW1 1241  13.053   4.718  12.661
33134SOL    HW2 1242  13.089   4.571  12.664
33135SOL     OW 1243   7.111   8.060   7.884
33135SOL    HW1 1244   7.136   8.116   7.957
33135SOL    HW2 1245   7.048   7.997   7.920
33136SOL     OW 1246  12.039   4.263   4.943
33136SOL    HW1 1247  12.012   4.338   4.889
33136SOL    HW2 1248  12.133   4.258   4.931
33137SOL     OW 1249  10.685   9.381  12.879
33137SOL    HW1 1250  10.711   9.425  12.799
33137SOL    HW2 1251  10.654   9.451  12.936
33138SOL     OW 1252  11.857   7.676   4.537
33138SOL    HW1 1253  11.939   7.630   4.553
33138SOL    HW2 1254  11.789   7.616   4.568
33139SOL     OW 1255   2.946  13.134  12.532
33139SOL    HW1 1256   3.002  13.210  12.552
33139SOL    HW2 1257   2.997  13.059  12.561
33140SOL     OW 1258  14.609   2.965   0.340
33140SOL    HW1 1259  14.641   3.035   0.284
33140SOL    HW2 1260  14.529   2.935   0.297
33141SOL     OW 1261   1.739   6.207   0.709
33141SOL    HW1 1262   1.655   6.192   0.752
33141SOL    HW2 1263   1.758   6.300   0.725
33142SOL     OW 1264   4.382   9.174  13.969
33142SOL    HW1 1265   4.441   9.100  13.983
33142SOL    HW2 1266   4.296   9.135  13.959
33143SOL     OW 1267   3.048  10.888  10.360
33143SOL    HW1 1268   2.982  10.956  10.373
33143SOL    HW2 1269   3.114  10.905  10.428
33144SOL     OW 1270   3.065  13.129   9.327
33144SOL    HW1 1271   3.058  13.194   9.397
33144SOL    HW2 1272   3.135  13.070   9.356
33145SOL     OW 1273   2.420  10.786  13.899
33145SOL    HW1 1274   2.492  10.793  13.962
33145SOL    HW2 1275   2.427  10.697  13.863
33146SOL     OW 1276   7.234   8.832   3.517
33146SOL    HW1 1277   7.233   8.859   3.425
33146SOL    HW2 1278   7.205   8.741   3.516
33147SOL     OW 1279   2.733  12.875  13.481
33147SOL    HW1 1280   2.740  12.790  13.525
33147SOL    HW2 1281   2.800  12.873  13.414
33148SOL     OW 1282   4.387   0.537  13.640
33148SOL    HW1 1283   4.309   0.490  13.669
33148SOL    HW2 1284   4.395   0.609  13.703
33149SOL     OW 1285  10.142  12.702  13.736
33149SOL    HW1 1286  10.144  12.710  13.831
33149SOL    HW2 1287  10.205  12.633  13.717
33150SOL     OW 1288   2.617   0.038  11.985
33150SOL    HW1 1289   2.672  14.852  12.024
33150SOL    HW2 1290   2.594   0.095  12.058
33151SOL     OW 1291   8.727  10.440   7.337
33151SOL    HW1 1292   8.805  10.386   7.351
33151SOL    HW2 1293   8.685  10.445   7.423
33152SOL     OW 1294   6.718   6.717  12.277
33152SOL    HW1 1295   6.733   6.806  12.244
33152SOL    HW2 1296   6.637   6.724  12.327
33153SOL     OW 1297  10.027   5.387   9.248
33153SOL    HW1 1298  10.115   5.400   9.215
33153SOL    HW2 1299   9.972   5.380   9.170
33154SOL     OW 1300   0.127   0.370   3.295
33154SOL    HW1 1301   0.047   0.381   3.245
33154SOL    HW2 1302   0.197   0.380   3.231
33155SOL     OW 1303  14.550   4.228   7.163
33155SOL    HW1 1304  14.645   4.218   7.163
33155SOL    HW2 1305  14.530   4.272   7.245
33156SOL     OW 1306   6.822  10.717   3.830
33156SOL    HW1 1307   6.830  10.800   3.877
33156SOL    HW2 1308   6.891  10.662   3.868
33157SOL     OW 1309   3.994  11.303   6.518
33157SOL    HW1 1310   3.928  11.233   6.525
33157SOL    HW2 1311   4.066  11.273   6.573
33158SOL     OW 1312  14.499   8.266  14.289
33158SOL    HW1 1313  14.494   8.234  14.199
33158SOL    HW2 1314  14.592   8.283  14.303
33159SOL     OW 1315   9.040  10.989   8.600
33159SOL    HW1 1316   8.957  11.015   8.559
33159SOL    HW2 1317   9.021  10.904   8.641
33160SOL     OW 1318   1.902  14.032   9.291
33160SOL    HW1 1319   1.989  13.995   9.275
33160SOL    HW2 1320   1.849  14.005   9.216
33161SOL     OW 1321   3.116   5.863   9.451
33161SOL    HW1 1322   3.031   5.831   9.419
33161SOL    HW2 1323   3.136   5.807   9.526
33162SOL     OW 1324   5.543  13.699   0.656
33162SOL    HW1 1325   5.537  13.779   0.708
33162SOL    HW2 1326   5.585  13.636   0.714
33163SOL     OW 1327  11.542  11.028   4.344
33163SOL    HW1 1328  11.477  10.957   4.349
33163SOL    HW2 1329  11.623  10.988   4.376
33164SOL     OW 1330   2.225   8.972   6.840
33164SOL    HW1 1331   2.271   8.992   6.758
33164SOL    HW2 1332   2.146   9.026   6.837
33165SOL     OW 1333   6.570   9.443   2.367
33165SOL    HW1 1334   6.620   9.457   2.447
33165SOL    HW2 1335   6.568   9.529   2.325
33166SOL     OW 1336  12.615   9.108   5.245
33166SOL    HW1 1337  12.578   9.020   5.255
33166SOL    HW2 1338  12.604   9.128   5.152
33167SOL     OW 1339   2.641   0.522   1.948
33167SOL    HW1 1340   2.683   0.437   1.938
33167SOL    HW2 1341   2.572   0.523   1.882
33168SOL     OW 1342   4.543   9.182   3.510
33168SOL    HW1 1343   4.610   9.114   3.525
33168SOL    HW2 1344   4.571   9.226   3.429
33169SOL     OW 1345  14.404   2.781   0.112
33169SOL    HW1 1346  14.492   2.782   0.075
33169SOL    HW2 1347  14.381   2.688   0.118
33170SOL     OW 1348   2.767   6.805   9.734
33170SOL    HW1 1349   2.814   6.727   9.706
33170SOL    HW2 1350   2.835   6.863   9.768
33171SOL     OW 1351   1.587   2.063  12.159
33171SOL    HW1 1352   1.655   2.111  12.205
33171SOL    HW2 1353   1.524   2.040  12.227
33172SOL     OW 1354   4.628   8.705  11.981
33172SOL    HW1 1355   4.583   8.624  12.003
33172SOL    HW2 1356   4.704   8.677  11.930
33173SOL     OW 1357  11.528  11.002  13.014
33173SOL    HW1 1358  11.571  10.921  13.043
33173SOL    HW2 1359  11.575  11.071  13.060
33174SOL     OW 1360   1.517   7.045   5.601
33174SOL    HW1 1361   1.592   7.050   5.661
33174SOL    HW2 1362   1.448   7.096   5.644
33175SOL     OW 1363  13.637   8.291   3.341
33175SOL    HW1 1364  13.561   8.234   3.352
33175SOL    HW2 1365  13.713   8.234   3.350
33176SOL     OW 1366   7.890   1.502   2.372
33176SOL    HW1 1367   7.868   1.595   2.378
33176SOL    HW2 1368   7.952   1.488   2.444
33177SOL     OW 1369   4.711  12.993  13.244
33177SOL    HW1 1370   4.628  13.041  13.244
33177SOL    HW2 1371   4.690  12.909  13.203
33178SOL     OW 1372  12.777   8.931   6.471
33178SOL    HW1 1373  12.760   8.921   6.565
33178SOL    HW2 1374  12.691   8.924   6.430
33179SOL     OW 1375   8.988   2.168   3.371
33179SOL    HW1 1376   9.010   2.256   3.339
33179SOL    HW2 1377   9.070   2.119   3.367
33180SOL     OW 1378   3.355   7.386  14.029
33180SOL    HW1 1379   3.328   7.296  14.051
33180SOL    HW2 1380   3.294   7.441  14.078
33181SOL     OW 1381   4.716   2.190  14.463
33181SOL    HW1 1382   4.655   2.150  14.525
33181SOL    HW2 1383   4.770   2.249  14.516
33182SOL     OW 1384   3.267  10.979  10.588
33182SOL    HW1 1385   3.342  11.022  10.628
33182SOL    HW2 1386   3.294  10.960  10.499
33183SOL     OW 1387   3.377  14.548   4.376
33183SOL    HW1 1388   3.362  14.528   4.469
33183SOL    HW2 1389   3.299  14.596   4.349
33184SOL     OW 1390   6.052   5.741   6.386
33184SOL    HW1 1391   6.074   5.826   6.424
33184SOL    HW2 1392   5.958   5.732   6.400
33185SOL     OW 1393   3.242  11.777   9.506
33185SOL    HW1 1394   3.152  11.810   9.503
33185SOL    HW2 1395   3.239  11.696   9.454
33186SOL     OW 1396  10.188   2.313   1.365
33186SOL    HW1 1397  10.146   2.395   1.339
33186SOL    HW2 1398  10.121   2.246   1.352
33187SOL     OW 1399  12.968  11.826   9.063
33187SOL    HW1 1400  12.974  11.874   8.980
33187SOL    HW2 1401  13.058  11.815   9.091
33188SOL     OW 1402   2.807   4.339  14.639
33188SOL    HW1 1403   2.782   4.431  14.640
33188SOL    HW2 1404   2.759   4.302  14.565
33189SOL     OW 1405   2.432   2.095   6.510
33189SOL    HW1 1406   2.493   2.044   6.458
33189SOL    HW2 1407   2.449   2.186   6.486
33190SOL     OW 1408   1.387   2.676   4.330
33190SOL    HW1 1409   1.448   2.703   4.398
33190SOL    HW2 1410   1.302   2.672   4.374
33191SOL     OW 1411  11.246  13.289  10.619
33191SOL    HW1 1412  11.161  13.282  10.664
33191SOL    HW2 1413  11.304  13.230  10.667
33192SOL     OW 1414   6.987   8.248   9.515
33192SOL    HW1 1415   7.047   8.321   9.530
33192SOL    HW2 1416   6.900   8.288   9.510
33193SOL     OW 1417  10.346   1.439   0.530
33193SOL    HW1 1418  10.421   1.497   0.543
33193SOL    HW2 1419  10.275   1.496   0.500
33194SOL     OW 1420   3.060  10.682   1.467
33194SOL    HW1 1421   2.971  10.718   1.467
33194SOL    HW2 1422   3.056  10.607   1.408
33195SOL     OW 1423   9.227   5.926  11.006
33195SOL    HW1 1424   9.268   5.856  11.056
33195SOL    HW2 1425   9.245   6.006  11.057
33196SOL     OW 1426  11.717   3.273   1.294
33196SOL    HW1 1427  11.715   3.185   1.257
33196SOL    HW2 1428  11.767   3.265   1.375
33197SOL     OW 1429  11.877  12.220   0.452
33197SOL    HW1 1430  11.844  12.310   0.460
33197SOL    HW2 1431  11.971  12.231   0.438
33198SOL     OW 1432   9.180   3.027   3.297
33198SOL    HW1 1433   9.109   2.973   3.333
33198SOL    HW2 1434   9.257   2.970   3.300
33199SOL     OW 1435  11.478  10.917   6.579
33199SOL    HW1 1436  11.444  10.842   6.629
33199SOL    HW2 1437  11.440  10.907   6.492
33200SOL     OW 1438  13.813   1.287  11.210
33200SOL    HW1 1439  13.867   1.362  11.236
33200SOL    HW2 1440  13.736   1.292  11.267
33201SOL     OW 1441   8.607   0.561   1.124
33201SOL    HW1 1442   8.658   0.490   1.085
33201SOL    HW2 1443   8.516   0.540   1.105
33202SOL     OW 1444  14.143  12.033   1.630
33202SOL    HW1 1445  14.131  12.092   1.705
33202SOL    HW2 1446  14.067  12.049   1.574
33203SOL     OW 1447  12.264  12.075   2.619
33203SOL    HW1 1448  12.300  12.121   2.543
33203SOL    HW2 1449  12.176  12.051   2.592
33204SOL     OW 1450  11.433   9.331   0.967
33204SOL    HW1 1451  11.432   9.242   0.933
33204SOL    HW2 1452  11.504   9.331   1.031
33205SOL     OW 1453  11.632   4.465   6.469
33205SOL    HW1 1454  11.560   4.405   6.448
33205SOL    HW2 1455  11.660   4.500   6.385
33206SOL     OW 1456  13.423  11.300  12.829
33206SOL    HW1 1457  13.382  11.256  12.754
33206SOL    HW2 1458  13.445  11.387  12.796
33207SOL     OW 1459   2.788   7.680  14.736
33207SOL    HW1 1460   2.714   7.627  14.707
33207SOL    HW2 1461   2.837   7.698  14.656
33208SOL     OW 1462  13.049   4.145   5.505
33208SOL    HW1 1463  13.096   4.227   5.490
33208SOL    HW2 1464  13.108   4.078   5.469
33209SOL     OW 1465   5.500   4.413  13.798
33209SOL    HW1 1466   5.569   4.357  13.763
33209SOL    HW2 1467   5.530   4.436  13.886
33210SOL     OW 1468   8.927  12.165   4.923
33210SOL    HW1 1469   8.844  12.118   4.920
33210SOL    HW2 1470   8.993  12.097   4.932
33211SOL     OW 1471   8.470   1.402  12.350
33211SOL    HW1 1472   8.551   1.418  12.398
33211SOL    HW2 1473   8.485   1.319  12.305
33212SOL     OW 1474  10.870  12.309   3.464
33212SOL    HW1 1475  10.864  12.382   3.526
33212SOL    HW2 1476  10.782  12.272   3.461
33213SOL     OW 1477   5.525  12.153   3.366
33213SOL    HW1 1478   5.596  12.214   3.385
33213SOL    HW2 1479   5.501  12.117   3.452
33214SOL     OW 1480   9.353  11.839   8.181
33214SOL    HW1 1481   9.372  11.933   8.187
33214SOL    HW2 1482   9.431  11.802   8.141
33215SOL     OW 1483  11.791   4.889   1.013
33215SOL    HW1 1484  11.746   4.973   1.016
33215SOL    HW2 1485  11.742   4.837   0.950
33216SOL     OW 1486   0.514   0.251   1.801
33216SOL    HW1 1487   0.425   0.270   1.773
33216SOL    HW2 1488   0.550   0.196   1.732
33217SOL     OW 1489   3.202   7.510  10.176
33217SOL    HW1 1490   3.135   7.478  10.116
33217SOL    HW2 1491   3.251   7.574  10.125
33218SOL     OW 1492   0.655   5.129  12.537
33218SOL    HW1 1493   0.725   5.071  12.567
33218SOL    HW2 1494   0.586   5.069  12.509
33219SOL     OW 1495   3.096   6.130  12.233
33219SOL    HW1 1496   3.156   6.072  12.186
33219SOL    HW2 1497   3.146   6.161  12.308
33220SOL     OW 1498   0.068   7.054   6.141
33220SOL    HW1 1499   0.157   7.078   6.115
33220SOL    HW2 1500   0.073   7.039   6.235
33221SOL     OW 1501   7.036  12.538  11.169
33221SOL    HW1 1502   7.059  12.447  11.190
33221SOL    HW2 1503   7.023  12.580  11.253
33222SOL     OW 1504   2.482   4.279  13.546
33222SOL    HW1 1505   2.482   4.205  13.486
33222SOL    HW2 1506   2.542   4.342  13.507
33223SOL     OW 1507   4.906   8.972   3.767
33223SOL    HW1 1508   4.857   8.945   3.845
33223SOL    HW2 1509   4.985   8.919   3.768
33224SOL     OW 1510   0.806   3.968   1.078
33224SOL    HW1 1511   0.901   3.962   1.085
33224SOL    HW2 1512   0.775   3.955   1.167
33225SOL     OW 1513  14.304   5.519   2.593
33225SOL    HW1 1514  14.330   5.608   2.615
33225SOL    HW2 1515  14.241   5.494   2.660
33226SOL     OW 1516   1.200   9.853   3.636
33226SOL    HW1 1517   1.246   9.929   3.598
33226SOL    HW2 1518   1.162   9.886   3.717
33227SOL     OW 1519   2.269   6.805   9.055
33227SOL    HW1 1520   2.280   6.764   9.141
33227SOL    HW2 1521   2.329   6.757   8.998
33228SOL     OW 1522   6.428  11.118   2.377
33228SOL    HW1 1523   6.414  11.024   2.391
33228SOL    HW2 1524   6.461  11.124   2.287
33229SOL     OW 1525  12.187  10.595  14.159
33229SOL    HW1 1526  12.251  10.666  14.149
33229SOL    HW2 1527  12.204  10.537  14.085
33230SOL     OW 1528  10.694   0.079   2.636
33230SOL    HW1 1529  10.781   0.116   2.620
33230SOL    HW2 1530  10.633   0.145   2.603
33231SOL     OW 1531   8.645   9.738   3.249
33231SOL    HW1 1532   8.634   9.819   3.200
33231SOL    HW2 1533   8.684   9.677   3.187
33232SOL     OW 1534   8.155   9.540  14.011
33232SOL    HW1 1535   8.085   9.577  14.064
33232SOL    HW2 1536   8.119   9.458  13.977
33233SOL     OW 1537   1.258   0.526  10.229
33233SOL    HW1 1538   1.208   0.445  10.236
33233SOL    HW2 1539   1.196   0.589  10.191
33234SOL     OW 1540   7.534   4.283   8.424
33234SOL    HW1 1541   7.615   4.284   8.372
33234SOL    HW2 1542   7.487   4.205   8.394
33235SOL     OW 1543  13.954   0.055   6.004
33235SOL    HW1 1544  13.899   0.071   6.081
33235SOL    HW2 1545  13.963   0.140   5.963
33236SOL     OW 1546  13.864   3.524  13.567
33236SOL    HW1 1547  13.951   3.541  13.604
33236SOL    HW2 1548  13.813   3.602  13.590
33237SOL     OW 1549   9.981  14.259   2.340
33237SOL    HW1 1550   9.898  14.257   2.292
33237SOL    HW2 1551   9.969  14.197   2.412
33238SOL     OW 1552   7.023  12.916  14.293
33238SOL    HW1 1553   7.023  12.833  14.340
33238SOL    HW2 1554   7.052  12.893  14.204
33239SOL     OW 1555   7.766  14.517   9.493
33239SOL    HW1 1556   7.838  14.533   9.432
33239SOL    HW2 1557   7.759  14.597   9.545
33240SOL     OW 1558  11.198   7.067  13.073
33240SOL    HW1 1559  11.172   7.132  13.138
33240SOL    HW2 1560  11.163   7.100  12.990
33241SOL     OW 1561  10.942   4.029  12.023
33241SOL    HW1 1562  10.937   4.097  12.090
33241SOL    HW2 1563  10.925   3.948  12.071
33242SOL     OW 1564  10.773   7.115   8.475
33242SOL    HW1 1565  10.681   7.109   8.446
33242SOL    HW2 1566  10.769   7.099   8.569
33243SOL     OW 1567   5.507  11.537  10.140
33243SOL    HW1 1568   5.417  11.543  10.172
33243SOL    HW2 1569   5.528  11.444  10.146
33244SOL     OW 1570  10.621   6.232  10.766
33244SOL    HW1 1571  10.689   6.293  10.794
33244SOL    HW2 1572  10.540   6.283  10.766
33245SOL     OW 1573   2.179   9.743  13.420
33245SOL    HW1 1574   2.199   9.836  13.410
33245SOL    HW2 1575   2.222   9.700  13.346
33246SOL     OW 1576   0.139   6.410  12.377
33246SOL    HW1 1577   0.126   6.500  12.346
33246SOL    HW2 1578   0.233   6.402  12.389
33247SOL     OW 1579   6.738   9.440  12.195
33247SOL    HW1 1580   6.674   9.449  12.266
33247SOL    HW2 1581   6.692   9.389  12.128
33248SOL     OW 1582   8.285   4.765   7.870
33248SOL    HW1 1583   8.322   4.696   7.816
33248SOL    HW2 1584   8.361   4.813   7.904
33249SOL     OW 1585   6.298  13.184   5.697
33249SOL    HW1 1586   6.294  13.278   5.710
33249SOL    HW2 1587   6.211  13.160   5.663
33250SOL     OW 1588  13.768   4.536   0.016
33250SOL    HW1 1589  13.799   4.558   0.104
33250SOL    HW2 1590  13.712   4.460   0.030
33251SOL     OW 1591   2.876   9.689   3.618
33251SOL    HW1 1592   2.891   9.739   3.698
33251SOL    HW2 1593   2.904   9.748   3.547
33252SOL     OW 1594   7.572  10.129  13.572
33252SOL    HW1 1595   7.606  10.039  13.568
33252SOL    HW2 1596   7.493  10.122  13.625
33253SOL     OW 1597   3.917  12.923   9.949
33253SOL    HW1 1598   3.914  12.837   9.906
33253SOL    HW2 1599   3.988  12.915  10.012
33254SOL     OW 1600   0.020  13.943   9.299
33254SOL    HW1 1601   0.085  13.994   9.252
33254SOL    HW2 1602  14.826  13.941   9.241
33255SOL     OW 1603   3.869   5.927  14.709
33255SOL    HW1 1604   3.805   5.925  14.638
33255SOL    HW2 1605   3.834   5.865  14.774
33256SOL     OW 1606  14.646   7.298  13.103
33256SOL    HW1 1607  14.614   7.215  13.069
33256SOL    HW2 1608  14.712   7.326  13.039
33257SOL     OW 1609   6.273   4.709   2.742
33257SOL    HW1 1610   6.243   4.624   2.774
33257SOL    HW2 1611   6.298   4.693   2.651
33258SOL     OW 1612  10.574   1.138   8.965
33258SOL    HW1 1613  10.627   1.063   8.990
33258SOL    HW2 1614  10.485   1.116   8.994
33259SOL     OW 1615   6.096  12.062   5.609
33259SOL    HW1 1616   6.135  12.031   5.691
33259SOL    HW2 1617   6.169  12.096   5.558
33260SOL     OW 1618   0.738   9.952   6.717
33260SOL    HW1 1619   0.823   9.951   6.760
33260SOL    HW2 1620   0.745   9.883   6.650
33261SOL     OW 1621   1.836   4.094  12.316
33261SOL    HW1 1622   1.851   4.001  12.330
33261SOL    HW2 1623   1.818   4.101  12.222
33262SOL     OW 1624   8.278   5.316   9.225
33262SOL    HW1 1625   8.200   5.308   9.279
33262SOL    HW2 1626   8.289   5.411   9.213
33263SOL     OW 1627  14.877  13.044   1.915
33263SOL    HW1 1628   0.055  13.029   1.842
33263SOL    HW2 1629  14.791  13.017   1.882
33264SOL     OW 1630  13.514   6.112   9.095
33264SOL    HW1 1631  13.585   6.121   9.031
33264SOL    HW2 1632  13.435   6.135   9.047
33265SOL     OW 1633  14.432   4.134   9.137
33265SOL    HW1 1634  14.489   4.098   9.206
33265SOL    HW2 1635  14.461   4.090   9.057
33266SOL     OW 1636   9.112   7.949   8.471
33266SOL    HW1 1637   9.086   7.976   8.559
33266SOL    HW2 1638   9.055   8.000   8.413
33267SOL     OW 1639   0.704  10.599   3.677
33267SOL    HW1 1640   0.789  10.608   3.634
33267SOL    HW2 1641   0.661  10.684   3.663
33268SOL     OW 1642   4.109  11.039   1.292
33268SOL    HW1 1643   4.132  10.961   1.240
33268SOL    HW2 1644   4.158  11.110   1.251
33269SOL     OW 1645  14.628  11.276   3.695
33269SOL    HW1 1646  14.695  11.319   3.642
33269SOL    HW2 1647  14.674  11.205   3.740
33270SOL     OW 1648   2.036   0.240  10.814
33270SOL    HW1 1649   1.988   0.159  10.833
33270SOL    HW2 1650   1.978   0.310  10.841
33271SOL     OW 1651  12.029  10.210   2.103
33271SOL    HW1 1652  11.958  10.238   2.161
33271SOL    HW2 1653  12.109  10.224   2.153
33272SOL     OW 1654  10.250   5.833  10.608
33272SOL    HW1 1655  10.302   5.909  10.581
33272SOL    HW2 1656  10.200   5.809  10.530
33273SOL     OW 1657   0.101   5.142  11.861
33273SOL    HW1 1658   0.167   5.210  11.847
33273SOL    HW2 1659   0.043   5.148  11.785
33274SOL     OW 1660  11.731  14.654   8.526
33274SOL    HW1 1661  11.707  14.612   8.609
33274SOL    HW2 1662  11.757  14.742   8.551
33275SOL     OW 1663   5.464   9.457   8.558
33275SOL    HW1 1664   5.461   9.422   8.469
33275SOL    HW2 1665   5.472   9.380   8.614
33276SOL     OW 1666   0.640   8.039  10.829
33276SOL    HW1 1667   0.675   7.977  10.765
33276SOL    HW2 1668   0.561   8.074  10.788
33277SOL     OW 1669   0.051   2.017   9.399
33277SOL    HW1 1670   0.144   2.029   9.418
33277SOL    HW2 1671   0.042   2.043   9.307
33278SOL     OW 1672   7.197   0.536   6.878
33278SOL    HW1 1673   7.221   0.484   6.801
33278SOL    HW2 1674   7.104   0.556   6.866
33279SOL     OW 1675   6.305   3.691   9.485
33279SOL    HW1 1676   6.317   3.598   9.469
33279SOL    HW2 1677   6.360   3.735   9.420
33280SOL     OW 1678  11.092   1.299  11.532
33280SOL    HW1 1679  11.004   1.265  11.519
33280SOL    HW2 1680  11.112   1.280  11.624
33281SOL     OW 1681  13.216   0.421   5.371
33281SOL    HW1 1682  13.155   0.472   5.318
33281SOL    HW2 1683  13.162   0.352   5.410
33282SOL     OW 1684  11.646  14.800   2.334
33282SOL    HW1 1685  11.693  14.725   2.296
33282SOL    HW2 1686  11.682  14.809   2.422
33283SOL     OW 1687  11.953   8.930   7.929
33283SOL    HW1 1688  11.862   8.960   7.919
33283SOL    HW2 1689  11.970   8.937   8.023
33284SOL     OW 1690   7.839   9.848   1.689
33284SOL    HW1 1691   7.838   9.899   1.608
33284SOL    HW2 1692   7.927   9.860   1.724
33285SOL     OW 1693   3.393   9.366   0.610
33285SOL    HW1 1694   3.483   9.337   0.626
33285SOL    HW2 1695   3.383   9.361   0.515
33286SOL     OW 1696   7.736  13.815   1.544
33286SOL    HW1 1697   7.761  13.836   1.634
33286SOL    HW2 1698   7.817  13.783   1.504
33287SOL     OW 1699   1.433  10.042   7.032
33287SOL    HW1 1700   1.523  10.013   7.043
33287SOL    HW2 1701   1.388   9.967   6.992
33288SOL     OW 1702  10.756   9.881   1.592
33288SOL    HW1 1703  10.733   9.788   1.600
33288SOL    HW2 1704  10.695   9.914   1.525
33289SOL     OW 1705   2.960   2.963   4.107
33289SOL    HW1 1706   2.931   3.041   4.154
33289SOL    HW2 1707   3.019   2.919   4.167
33290SOL     OW 1708   6.144   6.976   0.291
33290SOL    HW1 1709   6.232   6.939   0.299
33290SOL    HW2 1710   6.135   7.033   0.368
33291SOL     OW 1711  10.505   7.645   4.878
33291SOL    HW1 1712  10.551   7.716   4.834
33291SOL    HW2 1713  10.569   7.608   4.939
33292SOL     OW 1714   8.883   6.397  13.238
33292SOL    HW1 1715   8.799   6.433  13.264
33292SOL    HW2 1716   8.879   6.304  13.263
33293SOL     OW 1717  10.245   0.433   6.171
33293SOL    HW1 1718  10.247   0.357   6.112
33293SOL    HW2 1719  10.214   0.505   6.116
33294SOL     OW 1720  10.963  13.804  14.312
33294SOL    HW1 1721  10.954  13.716  14.349
33294SOL    HW2 1722  10.875  13.825  14.281
33295SOL     OW 1723  10.998  10.043   9.085
33295SOL    HW1 1724  11.047  10.124   9.096
33295SOL    HW2 1725  10.980  10.013   9.174
33296SOL     OW 1726   6.497   1.993   8.153
33296SOL    HW1 1727   6.472   2.002   8.245
33296SOL    HW2 1728   6.423   1.948   8.112
33297SOL     OW 1729   0.729  13.758   4.110
33297SOL    HW1 1730   0.695  13.751   4.021
33297SOL    HW2 1731   0.711  13.849   4.136
33298SOL     OW 1732   8.106   3.985   9.680
33298SOL    HW1 1733   8.109   3.978   9.584
33298SOL    HW2 1734   8.108   3.894   9.710
33299SOL     OW 1735   9.339   9.154   7.097
33299SOL    HW1 1736   9.353   9.065   7.130
33299SOL    HW2 1737   9.273   9.192   7.155
33300SOL     OW 1738  13.395  14.210   8.452
33300SOL    HW1 1739  13.454  14.281   8.479
33300SOL    HW2 1740  13.312  14.230   8.496
33301SOL     OW 1741  13.474   4.726  13.181
33301SOL    HW1 1742  13.403   4.712  13.118
33301SOL    HW2 1743  13.545   4.670  13.151
33302SOL     OW 1744   6.261   0.770   4.152
33302SOL    HW1 1745   6.261   0.744   4.245
33302SOL    HW2 1746   6.285   0.690   4.106
33303SOL     OW 1747   2.096   9.852   6.063
33303SOL    HW1 1748   2.106   9.927   6.122
33303SOL    HW2 1749   2.101   9.775   6.121
33304SOL     OW 1750  13.455   7.923  13.187
33304SOL    HW1 1751  13.452   7.973  13.268
33304SOL    HW2 1752  13.365   7.891  13.175
33305SOL     OW 1753  12.584   1.427  10.568
33305SOL    HW1 1754  12.566   1.369  10.642
33305SOL    HW2 1755  12.679   1.439  10.569
33306SOL     OW 1756  13.013   9.000   4.680
33306SOL    HW1 1757  12.970   8.978   4.763
33306SOL    HW2 1758  13.052   8.917   4.651
33307SOL     OW 1759   7.110   3.490   5.648
33307SOL    HW1 1760   7.069   3.447   5.722
33307SOL    HW2 1761   7.204   3.486   5.666
33308SOL     OW 1762   7.941   0.315   6.201
33308SOL    HW1 1763   7.970   0.387   6.145
33308SOL    HW2 1764   8.021   0.288   6.248
33309SOL     OW 1765   5.634  13.251   7.477
33309SOL    HW1 1766   5.642  13.277   7.386
33309SOL    HW2 1767   5.724  13.239   7.508
33310SOL     OW 1768   6.575   3.532   2.011
33310SOL    HW1 1769   6.537   3.574   2.088
33310SOL    HW2 1770   6.501   3.487   1.969
33311SOL     OW 1771  13.008   7.086   2.066
33311SOL    HW1 1772  12.917   7.060   2.080
33311SOL    HW2 1773  13.013   7.108   1.973
33312SOL     OW 1774  10.302  12.922   7.120
33312SOL    HW1 1775  10.322  13.008   7.083
33312SOL    HW2 1776  10.358  12.915   7.197
33313SOL     OW 1777   3.275   4.555   4.975
33313SOL    HW1 1778   3.282   4.557   5.070
33313SOL    HW2 1779   3.257   4.464   4.954
33314SOL     OW 1780   6.293  11.518   5.952
33314SOL    HW1 1781   6.289  11.423   5.953
33314SOL    HW2 1782   6.227  11.545   6.016
33315SOL     OW 1783   0.566  14.131   0.243
33315SOL    HW1 1784   0.571  14.038   0.222
33315SOL    HW2 1785   0.510  14.136   0.320
33316SOL     OW 1786   2.313   2.727   6.938
33316SOL    HW1 1787   2.263   2.660   6.984
33316SOL    HW2 1788   2.295   2.712   6.845
33317SOL     OW 1789   8.023   2.927   8.189
33317SOL    HW1 1790   7.933   2.897   8.174
33317SOL    HW2 1791   8.017   3.022   8.191
33318SOL     OW 1792   8.837   9.393   8.983
33318SOL    HW1 1793   8.929   9.376   9.001
33318SOL    HW2 1794   8.803   9.429   9.065
33319SOL     OW 1795   6.204   7.662  11.761
33319SOL    HW1 1796   6.218   7.567  11.766
33319SOL    HW2 1797   6.148   7.682  11.836
33320SOL     OW 1798   5.347   5.957   7.481
33320SOL    HW1 1799   5.268   5.993   7.440
33320SOL    HW2 1800   5.315   5.910   7.557
33321SOL     OW 1801  13.476   1.231   1.797
33321SOL    HW1 1802  13.433   1.224   1.712
33321SOL    HW2 1803  13.548   1.167   1.793
33322SOL     OW 1804  12.710   4.226   4.537
33322SOL    HW1 1805  12.618   4.251   4.540
33322SOL    HW2 1806  12.709   4.130   4.534
33323SOL     OW 1807  13.491  14.650   6.768
33323SOL    HW1 1808  13.461  14.673   6.856
33323SOL    HW2 1809  13.523  14.561   6.776
33324SOL     OW 1810   0.794   8.732   6.766
33324SOL    HW1 1811   0.783   8.689   6.851
33324SOL    HW2 1812   0.737   8.682   6.707
33325SOL     OW 1813  14.550  12.855  13.589
33325SOL    HW1 1814  14.560  12.936  13.639
33325SOL    HW2 1815  14.470  12.869  13.537
33326SOL     OW 1816  10.082   3.867   8.533
33326SOL    HW1 1817  10.102   3.944   8.586
33326SOL    HW2 1818  10.015   3.897   8.471
33327SOL     OW 1819   4.878   0.516   9.450
33327SOL    HW1 1820   4.906   0.562   9.371
33327SOL    HW2 1821   4.842   0.585   9.506
33328SOL     OW 1822   4.717   9.005   5.373
33328SOL    HW1 1823   4.673   9.063   5.311
33328SOL    HW2 1824   4.715   8.919   5.331
33329SOL     OW 1825  11.852   9.820  12.423
33329SOL    HW1 1826  11.814   9.908  12.415
33329SOL    HW2 1827  11.842   9.797  12.515
33330SOL     OW 1828   4.560  12.635   7.396
33330SOL    HW1 1829   4.576  12.722   7.433
33330SOL    HW2 1830   4.468  12.618   7.414
33331SOL     OW 1831  11.962  12.880   1.837
33331SOL    HW1 1832  11.996  12.944   1.774
33331SOL    HW2 1833  12.026  12.881   1.909
33332SOL     OW 1834   5.069  11.657  10.403
33332SOL    HW1 1835   5.098  11.600  10.331
33332SOL    HW2 1836   5.078  11.745  10.368
33333SOL     OW 1837   5.191   4.765   2.648
33333SOL    HW1 1838   5.124   4.712   2.604
33333SOL    HW2 1839   5.143   4.810   2.718
33334SOL     OW 1840   1.912  11.667   0.053
33334SOL    HW1 1841   1.873  11.669   0.140
33334SOL    HW2 1842   1.979  11.735   0.055
33335SOL     OW 1843   9.345   5.043  13.947
33335SOL    HW1 1844   9.274   4.988  13.914
33335SOL    HW2 1845   9.305   5.093  14.019
33336SOL     OW 1846  13.010   7.036   6.979
33336SOL    HW1 1847  13.001   7.123   6.941
33336SOL    HW2 1848  13.071   7.048   7.052
33337SOL     OW 1849   6.218  11.949   6.670
33337SOL    HW1 1850   6.307  11.977   6.646
33337SOL    HW2 1851   6.191  11.890   6.599
33338SOL     OW 1852   1.103  12.731   6.300
33338SOL    HW1 1853   1.129  12.819   6.274
33338SOL    HW2 1854   1.064  12.741   6.387
33339SOL     OW 1855  14.023  10.189   3.151
33339SOL    HW1 1856  14.043  10.204   3.059
33339SOL    HW2 1857  13.934  10.224   3.162
33340SOL     OW 1858   4.985   4.333   6.247
33340SOL    HW1 1859   5.055   4.394   6.223
33340SOL    HW2 1860   4.966   4.352   6.339
33341SOL     OW 1861  11.887  11.979  12.500
33341SOL    HW1 1862  11.853  11.908  12.554
33341SOL    HW2 1863  11.890  12.055  12.558
33342SOL     OW 1864   9.791   8.681   8.819
33342SOL    HW1 1865   9.766   8.615   8.884
33342SOL    HW2 1866   9.886   8.668   8.808
33343SOL     OW 1867   1.951   7.561  13.466
33343SOL    HW1 1868   1.911   7.491  13.415
33343SOL    HW2 1869   2.044   7.540  13.466
33344SOL     OW 1870  14.415  13.706   0.920
33344SOL    HW1 1871  14.475  13.656   0.865
33344SOL    HW2 1872  14.346  13.735   0.861
33345SOL     OW 1873  11.949   6.264   9.852
33345SOL    HW1 1874  12.028   6.318   9.841
33345SOL    HW2 1875  11.880   6.328   9.873
33346SOL     OW 1876  11.368  13.013  12.169
33346SOL    HW1 1877  11.350  13.045  12.081
33346SOL    HW2 1878  11.456  12.976  12.164
33347SOL     OW 1879   1.390  14.648   4.066
33347SOL    HW1 1880   1.468  14.652   4.121
33347SOL    HW2 1881   1.414  14.698   3.988
33348SOL     OW 1882  10.850   5.899   9.742
33348SOL    HW1 1883  10.867   5.845   9.819
33348SOL    HW2 1884  10.793   5.846   9.687
33349SOL     OW 1885   9.352   8.892  13.760
33349SOL    HW1 1886   9.317   8.980  13.771
33349SOL    HW2 1887   9.283   8.844  13.715
33350SOL     OW 1888   0.231   1.732   6.498
33350SOL    HW1 1889   0.250   1.816   6.540
33350SOL    HW2 1890   0.303   1.676   6.525
33351SOL     OW 1891   1.419  14.784  13.541
33351SOL    HW1 1892   1.424  14.730  13.620
33351SOL    HW2 1893   1.492  14.753  13.486
33352SOL     OW 1894   1.002   9.770  11.899
33352SOL    HW1 1895   0.907   9.786  11.903
33352SOL    HW2 1896   1.041   9.857  11.908
33353SOL     OW 1897   7.841   2.659   2.990
33353SOL    HW1 1898   7.799   2.623   3.069
33353SOL    HW2 1899   7.832   2.589   2.925
33354SOL     OW 1900   9.598   4.462   5.132
33354SOL    HW1 1901   9.693   4.450   5.122
33354SOL    HW2 1902   9.565   4.375   5.154
33355SOL     OW 1903  11.900   5.117  13.443
33355SOL    HW1 1904  11.921   5.030  13.408
33355SOL    HW2 1905  11.826   5.103  13.502
33356SOL     OW 1906   3.210   3.112   4.275
33356SOL    HW1 1907   3.290   3.075   4.238
33356SOL    HW2 1908   3.241   3.168   4.347
33357SOL     OW 1909   4.487   4.891   4.257
33357SOL    HW1 1910   4.459   4.968   4.308
33357SOL    HW2 1911   4.514   4.928   4.173
33358SOL     OW 1912  11.147   1.539   3.731
33358SOL    HW1 1913  11.088   1.486   3.784
33358SOL    HW2 1914  11.154   1.492   3.648
33359SOL     OW 1915  10.978   1.972   2.013
33359SOL    HW1 1916  10.961   2.011   1.928
33359SOL    HW2 1917  10.986   2.046   2.073
33360SOL     OW 1918  10.590  13.757   4.578
33360SOL    HW1 1919  10.617  13.679   4.626
33360SOL    HW2 1920  10.569  13.821   4.647
33361SOL     OW 1921   5.737   9.962   0.271
33361SOL    HW1 1922   5.668   9.985   0.334
33361SOL    HW2 1923   5.809   9.931   0.326
33362SOL     OW 1924  14.500   5.869   6.950
33362SOL    HW1 1925  14.486   5.774   6.956
33362SOL    HW2 1926  14.595   5.879   6.958
33363SOL     OW 1927   2.069   5.164   6.300
33363SOL    HW1 1928   2.085   5.118   6.382
33363SOL    HW2 1929   2.146   5.144   6.246
33364SOL     OW 1930   2.298   0.375   7.581
33364SOL    HW1 1931   2.358   0.433   7.534
33364SOL    HW2 1932   2.214   0.384   7.535
33365SOL     OW 1933  12.870   6.795  13.145
33365SOL    HW1 1934  12.953   6.829  13.179
33365SOL    HW2 1935  12.851   6.850  13.069
33366SOL     OW 1936  12.345  11.170   6.882
33366SOL    HW1 1937  12.440  11.159   6.882
33366SOL    HW2 1938  12.322  11.175   6.975
33367SOL     OW 1939   4.202  14.014   3.945
33367SOL    HW1 1940   4.120  14.015   3.896
33367SOL    HW2 1941   4.180  14.053   4.029
33368SOL     OW 1942  12.601   9.076   1.855
33368SOL    HW1 1943  12.647   9.030   1.925
33368SOL    HW2 1944  12.517   9.101   1.894
33369SOL     OW 1945   4.310  13.841   8.038
33369SOL    HW1 1946   4.405  13.849   8.041
33369SOL    HW2 1947   4.278  13.919   8.084
33370SOL     OW 1948   0.680   9.627   6.069
33370SOL    HW1 1949   0.640   9.655   6.152
33370SOL    HW2 1950   0.617   9.566   6.032
33371SOL     OW 1951   6.230   7.062   5.022
33371SOL    HW1 1952   6.192   7.131   5.076
33371SOL    HW2 1953   6.157   7.002   5.006
33372SOL     OW 1954  13.950   3.181  10.664
33372SOL    HW1 1955  13.963   3.233  10.584
33372SOL    HW2 1956  13.963   3.090  10.636
33373SOL     OW 1957   8.033   0.128  11.979
33373SOL    HW1 1958   7.971   0.056  11.970
33373SOL    HW2 1959   8.113   0.087  12.013
33374SOL     OW 1960   6.895   3.113  11.486
33374SOL    HW1 1961   6.879   3.101  11.392
33374SOL    HW2 1962   6.880   3.026  11.524
33375SOL     OW 1963  10.685   8.155   7.008
33375SOL    HW1 1964  10.594   8.162   6.980
33375SOL    HW2 1965  10.682   8.094   7.082
33376SOL     OW 1966   9.500  10.664   2.582
33376SOL    HW1 1967   9.460  10.598   2.526
33376SOL    HW2 1968   9.572  10.700   2.530
33377SOL     OW 1969   2.909  14.070  11.509
33377SOL    HW1 1970   2.839  14.004  11.512
33377SOL    HW2 1971   2.966  14.049  11.583
33378SOL     OW 1972   2.453  13.925  11.655
33378SOL    HW1 1973   2.406  13.981  11.592
33378SOL    HW2 1974   2.407  13.841  11.651
33379SOL     OW 1975   2.476  12.313   7.763
33379SOL    HW1 1976   2.486  12.293   7.670
33379SOL    HW2 1977   2.397  12.367   7.767
33380SOL     OW 1978   1.626   1.598   1.142
33380SOL    HW1 1979   1.657   1.544   1.215
33380SOL    HW2 1980   1.631   1.540   1.066
33381SOL     OW 1981   4.433  13.134   6.905
33381SOL    HW1 1982   4.387  13.145   6.988
33381SOL    HW2 1983   4.417  13.042   6.881
33382SOL     OW 1984   5.836   7.177  13.808
33382SOL    HW1 1985   5.762   7.181  13.868
33382SOL    HW2 1986   5.860   7.268  13.793
33383SOL     OW 1987   8.425  13.284   0.120
33383SOL    HW1 1988   8.344  13.274   0.170
33383SOL    HW2 1989   8.399  13.330   0.040
33384SOL     OW 1990  10.445   0.526   0.422
33384SOL    HW1 1991  10.427   0.614   0.455
33384SOL    HW2 1992  10.485   0.540   0.336
33385SOL     OW 1993   7.706  12.857   2.430
33385SOL    HW1 1994   7.704  12.804   2.350
33385SOL    HW2 1995   7.656  12.805   2.493
33386SOL     OW 1996   9.777  13.795   3.659
33386SOL    HW1 1997   9.822  13.719   3.695
33386SOL    HW2 1998   9.776  13.858   3.731
33387SOL     OW 1999  11.674   3.048  13.562
33387SOL    HW1 2000  11.581   3.066  13.550
33387SOL    HW2 2001  11.716   3.133  13.553
33388SOL     OW 2002   2.784   2.307  14.487
33388SOL    HW1 2003   2.798   2.247  14.559
33388SOL    HW2 2004   2.802   2.394  14.523
33389SOL     OW 2005   8.025  12.618   2.674
33389SOL    HW1 2006   8.007  12.704   2.635
33389SOL    HW2 2007   8.118  12.604   2.660
33390SOL     OW 2008   1.393   7.039  14.668
33390SOL    HW1 2009   1.482   7.072  14.675
33390SOL    HW2 2010   1.398   6.970  14.601
33391SOL     OW 2011  11.816  11.631   2.879
33391SOL    HW1 2012  11.859  11.547   2.893
33391SOL    HW2 2013  11.728  11.620   2.916
33392SOL     OW 2014   7.611   0.028  12.440
33392SOL    HW1 2015   7.575  14.829  12.476
33392SOL    HW2 2016   7.706   0.019  12.453
33393SOL     OW 2017  10.099   5.278   6.086
33393SOL    HW1 2018  10.153   5.201   6.072
33393SOL    HW2 2019  10.128   5.341   6.020
33394SOL     OW 2020   5.510   7.817  10.527
33394SOL    HW1 2021   5.572   7.849  10.593
33394SOL    HW2 2022   5.539   7.857  10.445
33395SOL     OW 2023   6.657  14.280   0.777
33395SOL    HW1 2024   6.566  14.258   0.758
33395SOL    HW2 2025   6.689  14.322   0.696
33396SOL     OW 2026   2.369  12.906  13.916
33396SOL    HW1 2027   2.346  12.885  13.826
33396SOL    HW2 2028   2.304  12.970  13.944
33397SOL     OW 2029   0.719   2.449   0.141
33397SOL    HW1 2030   0.636   2.496   0.139
33397SOL    HW2 2031   0.785   2.515   0.120
33398SOL     OW 2032   0.540   0.648  12.667
33398SOL    HW1 2033   0.633   0.626  12.661
33398SOL    HW2 2034   0.496   0.575  12.624
33399SOL     OW 2035   6.656   0.786  11.717
33399SOL    HW1 2036   6.617   0.699  11.719
33399SOL    HW2 2037   6.657   0.810  11.624
33400SOL     OW 2038   5.971   2.182  14.692
33400SOL    HW1 2039   5.914   2.121  14.645
33400SOL    HW2 2040   5.968   2.152  14.783
33401SOL     OW 2041  13.601   2.319  12.981
33401SOL    HW1 2042  13.606   2.229  12.950
33401SOL    HW2 2043  13.581   2.311  13.074
33402SOL     OW 2044  12.126   0.208  14.088
33402SOL    HW1 2045  12.126   0.303  14.078
33402SOL    HW2 2046  12.034   0.184  14.089
33403SOL     OW 2047   2.232   3.088   5.089
33403SOL    HW1 2048   2.324   3.113   5.093
33403SOL    HW2 2049   2.205   3.106   4.999
33404SOL     OW 2050   4.802  12.302  10.525
33404SOL    HW1 2051   4.790  12.332  10.435
33404SOL    HW2 2052   4.713  12.292  10.559
33405SOL     OW 2053   8.417   9.864  10.368
33405SOL    HW1 2054   8.324   9.869  10.390
33405SOL    HW2 2055   8.459   9.829  10.447
33406SOL     OW 2056   9.110   1.838   1.396
33406SOL    HW1 2057   9.028   1.852   1.349
33406SOL    HW2 2058   9.163   1.915   1.375
33407SOL     OW 2059   8.674   1.939   9.936
33407SOL    HW1 2060   8.665   1.851   9.972
33407SOL    HW2 2061   8.636   1.934   9.848
33408SOL     OW 2062  10.331  12.481   3.217
33408SOL    HW1 2063  10.414  12.493   3.264
33408SOL    HW2 2064  10.333  12.547   3.148
33409SOL     OW 2065  11.471   3.537   4.860
33409SOL    HW1 2066  11.532   3.610   4.866
33409SOL    HW2 2067  11.401   3.570   4.803
33410SOL     OW 2068  13.904  11.399  12.285
33410SOL    HW1 2069  13.862  11.317  12.308
33410SOL    HW2 2070  13.887  11.457  12.359
33411SOL     OW 2071  13.741   6.562   1.009
33411SOL    HW1 2072  13.684   6.570   0.932
33411SOL    HW2 2073  13.722   6.640   1.061
33412SOL     OW 2074  11.060  11.425  14.012
33412SOL    HW1 2075  11.113  11.503  13.998
33412SOL    HW2 2076  11.026  11.403  13.926
33413SOL     OW 2077  12.433  10.101   0.009
33413SOL    HW1 2078  12.495  10.093   0.081
33413SOL    HW2 2079  12.424  10.012  14.856
33414SOL     OW 2080  13.918  13.032  11.439
33414SOL    HW1 2081  13.866  12.981  11.376
33414SOL    HW2 2082  13.865  13.111  11.455
33415SOL     OW 2083  10.676   5.673   5.148
33415SOL    HW1 2084  10.768   5.699   5.144
33415SOL    HW2 2085  10.644   5.683   5.058
33416SOL     OW 2086   0.625  12.771   9.180
33416SOL    HW1 2087   0.532  12.794   9.174
33416SOL    HW2 2088   0.629  12.678   9.157
33417SOL     OW 2089   6.441  13.483   4.008
33417SOL    HW1 2090   6.439  13.565   3.959
33417SOL    HW2 2091   6.530  13.449   3.995
33418SOL     OW 2092   2.606   3.108  13.683
33418SOL    HW1 2093   2.581   3.108  13.591
33418SOL    HW2 2094   2.524   3.102  13.731
33419SOL     OW 2095   5.146   2.085  12.818
33419SOL    HW1 2096   5.142   2.168  12.771
33419SOL    HW2 2097   5.240   2.064  12.822
33420SOL     OW 2098   7.098   7.695   6.868
33420SOL    HW1 2099   7.017   7.685   6.919
33420SOL    HW2 2100   7.097   7.621   6.807
33421SOL     OW 2101  11.071   7.164   7.869
33421SOL    HW1 2102  11.161   7.197   7.862
33421SOL    HW2 2103  11.018   7.229   7.823
33422SOL     OW 2104  11.513   8.460   0.723
33422SOL    HW1 2105  11.533   8.366   0.719
33422SOL    HW2 2106  11.581   8.501   0.669
33423SOL     OW 2107   1.976   6.157  14.020
33423SOL    HW1 2108   2.071   6.144  14.026
33423SOL    HW2 2109   1.950   6.109  13.941
33424SOL     OW 2110   3.053   2.957   7.903
33424SOL    HW1 2111   3.050   2.952   7.998
33424SOL    HW2 2112   3.025   3.047   7.882
33425SOL     OW 2113  13.540  11.618   7.336
33425SOL    HW1 2114  13.587  11.622   7.419
33425SOL    HW2 2115  13.580  11.687   7.282
33426SOL     OW 2116   8.342   2.167   1.883
33426SOL    HW1 2117   8.308   2.245   1.841
33426SOL    HW2 2118   8.271   2.138   1.941
33427SOL     OW 2119   3.107   8.011   8.757
33427SOL    HW1 2120   3.143   8.013   8.846
33427SOL    HW2 2121   3.170   7.958   8.708
33428SOL     OW 2122   8.870   0.779  13.033
33428SOL    HW1 2123   8.934   0.788  12.961
33428SOL    HW2 2124   8.917   0.810  13.110
33429SOL     OW 2125   4.809  11.297  13.427
33429SOL    HW1 2126   4.904  11.284  13.430
33429SOL    HW2 2127   4.778  11.265  13.511
33430SOL     OW 2128  13.195   6.287   9.965
33430SOL    HW1 2129  13.280   6.318   9.995
33430SOL    HW2 2130  13.180   6.334   9.883
33431SOL     OW 2131   2.654   4.319   5.669
33431SOL    HW1 2132   2.651   4.406   5.627
33431SOL    HW2 2133   2.565   4.285   5.658
33432SOL     OW 2134  10.459   3.493   0.705
33432SOL    HW1 2135  10.386   3.485   0.643
33432SOL    HW2 2136  10.417   3.512   0.788
33433SOL     OW 2137   9.451   6.664   8.093
33433SOL    HW1 2138   9.543   6.690   8.098
33433SOL    HW2 2139   9.426   6.679   8.002
33434SOL     OW 2140   3.188   9.219   0.133
33434SOL    HW1 2141   3.156   9.139   0.091
33434SOL    HW2 2142   3.198   9.281   0.061
33435SOL     OW 2143   0.514   8.759  14.491
33435SOL    HW1 2144   0.598   8.805  14.493
33435SOL    HW2 2145   0.460   8.803  14.556
33436SOL     OW 2146  11.984  11.636  11.130
33436SOL    HW1 2147  11.890  11.657  11.134
33436SOL    HW2 2148  12.024  11.715  11.094
33437SOL     OW 2149   2.833  14.831   6.790
33437SOL    HW1 2150   2.914  14.780   6.784
33437SOL    HW2 2151   2.814  14.858   6.701
33438SOL     OW 2152   9.400   1.359   3.251
33438SOL    HW1 2153   9.368   1.289   3.308
33438SOL    HW2 2154   9.376   1.331   3.163
33439SOL     OW 2155  10.680   3.324   8.542
33439SOL    HW1 2156  10.753   3.303   8.483
33439SOL    HW2 2157  10.647   3.239   8.571
33440SOL     OW 2158  11.815   5.677   8.332
33440SOL    HW1 2159  11.860   5.722   8.404
33440SOL    HW2 2160  11.876   5.683   8.258
33441SOL     OW 2161   5.165  12.517  11.484
33441SOL    HW1 2162   5.131  12.428  11.489
33441SOL    HW2 2163   5.260  12.507  11.492
33442SOL     OW 2164   6.325  12.929   5.849
33442SOL    HW1 2165   6.342  13.012   5.805
33442SOL    HW2 2166   6.230  12.924   5.857
33443SOL     OW 2167  14.692   2.652   2.894
33443SOL    HW1 2168  14.623   2.593   2.862
33443SOL    HW2 2169  14.744   2.599   2.954
33444SOL     OW 2170  11.802   9.425   7.239
33444SOL    HW1 2171  11.721   9.473   7.219
33444SOL    HW2 2172  11.832   9.391   7.154
33445SOL     OW 2173  10.135   0.207   7.212
33445SOL    HW1 2174  10.131   0.141   7.143
33445SOL    HW2 2175  10.047   0.245   7.212
33446SOL     OW 2176   9.736   2.963  10.920
33446SOL    HW1 2177   9.800   3.035  10.911
33446SOL    HW2 2178   9.778   2.889  10.877
33447SOL     OW 2179  13.727  10.641   1.997
33447SOL    HW1 2180  13.782  10.716   2.019
33447SOL    HW2 2181  13.637  10.675   2.002
33448SOL     OW 2182  11.115   3.362   3.385
33448SOL    HW1 2183  11.127   3.348   3.291
33448SOL    HW2 2184  11.146   3.451   3.400
33449SOL     OW 2185   7.033  11.121  10.915
33449SOL    HW1 2186   7.009  11.210  10.892
33449SOL    HW2 2187   6.951  11.072  10.913
33450SOL     OW 2188   9.757   3.864   0.585
33450SOL    HW1 2189   9.833   3.864   0.528
33450SOL    HW2 2190   9.771   3.937   0.645
33451SOL     OW 2191  14.767   5.107   3.024
33451SOL    HW1 2192  14.784   5.021   2.986
33451SOL    HW2 2193  14.679   5.100   3.061
33452SOL     OW 2194   7.314   3.224   8.824
33452SOL    HW1 2195   7.398   3.189   8.793
33452SOL    HW2 2196   7.337   3.309   8.863
33453SOL     OW 2197   4.567   2.088  11.789
33453SOL    HW1 2198   4.494   2.137  11.751
33453SOL    HW2 2199   4.530   2.003  11.812
33454SOL     OW 2200  10.416   5.448   2.493
33454SOL    HW1 2201  10.481   5.496   2.442
33454SOL    HW2 2202  10.419   5.489   2.580
33455SOL     OW 2203  12.950  11.034   3.156
33455SOL    HW1 2204  12.999  10.980   3.218
33455SOL    HW2 2205  12.877  10.979   3.128
33456SOL     OW 2206   5.072   0.258   0.306
33456SOL    HW1 2207   5.048   0.186   0.364
33456SOL    HW2 2208   5.140   0.306   0.353
33457SOL     OW 2209   5.632   6.492  13.942
33457SOL    HW1 2210   5.540   6.471  13.954
33457SOL    HW2 2211   5.642   6.506  13.848
33458SOL     OW 2212   2.851  14.183   3.613
33458SOL    HW1 2213   2.931  14.201   3.664
33458SOL    HW2 2214   2.837  14.263   3.562
33459SOL     OW 2215  12.375   8.468  12.083
33459SOL    HW1 2216  12.336   8.547  12.120
33459SOL    HW2 2217  12.457   8.498  12.043
33460SOL     OW 2218   2.415   1.122  10.470
33460SOL    HW1 2219   2.499   1.165  10.483
33460SOL    HW2 2220   2.358   1.160  10.536
33461SOL     OW 2221   3.421   2.291   8.740
33461SOL    HW1 2222   3.455   2.279   8.828
33461SOL    HW2 2223   3.328   2.309   8.752
33462SOL     OW 2224  11.246   2.448   3.697
33462SOL    HW1 2225  11.209   2.462   3.610
33462SOL    HW2 2226  11.336   2.482   3.691
33463SOL     OW 2227   8.427  13.511   2.552
33463SOL    HW1 2228   8.371  13.514   2.629
33463SOL    HW2 2229   8.369  13.483   2.481
33464SOL     OW 2230   2.889   3.154  10.194
33464SOL    HW1 2231   2.959   3.172  10.132
33464SOL    HW2 2232   2.879   3.059  10.192
33465SOL     OW 2233   2.465   8.856  11.093
33465SOL    HW1 2234   2.539   8.795  11.091
33465SOL    HW2 2235   2.446   8.868  11.186
33466SOL     OW 2236   9.686  13.989   8.902
33466SOL    HW1 2237   9.777  13.965   8.917
33466SOL    HW2 2238   9.649  13.914   8.856
33467SOL     OW 2239   6.219  13.808   3.074
33467SOL    HW1 2240   6.312  13.829   3.076
33467SOL    HW2 2241   6.211  13.729   3.126
33468SOL     OW 2242   5.450   0.830   8.899
33468SOL    HW1 2243   5.436   0.846   8.992
33468SOL    HW2 2244   5.469   0.916   8.863
33469SOL     OW 2245   9.412   9.528   5.285
33469SOL    HW1 2246   9.443   9.611   5.250
33469SOL    HW2 2247   9.388   9.548   5.376
33470SOL     OW 2248   8.906   1.853  14.131
33470SOL    HW1 2249   8.911   1.926  14.070
33470SOL    HW2 2250   8.844   1.883  14.199
33471SOL     OW 2251   6.749  10.509   1.811
33471SOL    HW1 2252   6.775  10.485   1.722
33471SOL    HW2 2253   6.716  10.427   1.849
33472SOL     OW 2254   4.861   1.297  13.632
33472SOL    HW1 2255   4.923   1.226  13.617
33472SOL    HW2 2256   4.794   1.259  13.689
33473SOL     OW 2257   2.777   9.845  11.729
33473SOL    HW1 2258   2.757   9.752  11.738
33473SOL    HW2 2259   2.869   9.853  11.752
33474SOL     OW 2260   3.593  11.605   7.443
33474SOL    HW1 2261   3.524  11.588   7.379
33474SOL    HW2 2262   3.666  11.638   7.391
33475SOL     OW 2263  11.839   9.256   7.637
33475SOL    HW1 2264  11.929   9.249   7.608
33475SOL    HW2 2265  11.798   9.174   7.609
33476SOL     OW 2266   7.574   6.894  13.623
33476SOL    HW1 2267   7.513   6.936  13.684
33476SOL    HW2 2268   7.552   6.933  13.538
33477SOL     OW 2269   6.491   9.234   9.226
33477SOL    HW1 2270   6.576   9.259   9.188
33477SOL    HW2 2271   6.498   9.260   9.318
33478SOL     OW 2272   8.860   9.464   4.621
33478SOL    HW1 2273   8.875   9.550   4.582
33478SOL    HW2 2274   8.782   9.476   4.675
33479SOL     OW 2275   2.807  14.379   3.418
33479SOL    HW1 2276   2.845  14.464   3.441
33479SOL    HW2 2277   2.778  14.389   3.327
33480SOL     OW 2278   3.237   8.532   1.802
33480SOL    HW1 2279   3.193   8.508   1.721
33480SOL    HW2 2280   3.234   8.628   1.805
33481SOL     OW 2281  10.999   3.093  10.509
33481SOL    HW1 2282  10.988   3.047  10.592
33481SOL    HW2 2283  10.917   3.078  10.462
33482SOL     OW 2284   3.107   4.089  10.966
33482SOL    HW1 2285   3.100   4.016  10.904
33482SOL    HW2 2286   3.111   4.048  11.052
33483SOL     OW 2287   5.150   9.603  14.822
33483SOL    HW1 2288   5.132   9.670  14.755
33483SOL    HW2 2289   5.232   9.631  14.861
33484SOL     OW 2290   8.087   8.864   4.255
33484SOL    HW1 2291   8.097   8.804   4.329
33484SOL    HW2 2292   8.016   8.922   4.281
33485SOL     OW 2293  11.463   1.584  10.315
33485SOL    HW1 2294  11.405   1.644  10.363
33485SOL    HW2 2295  11.423   1.577  10.229
33486SOL     OW 2296  10.734   1.924   7.320
33486SOL    HW1 2297  10.821   1.902   7.353
33486SOL    HW2 2298  10.710   2.004   7.367
33487SOL     OW 2299   3.383   6.181   2.360
33487SOL    HW1 2300   3.454   6.223   2.408
33487SOL    HW2 2301   3.361   6.104   2.413
33488SOL     OW 2302   5.551   2.759  12.415
33488SOL    HW1 2303   5.620   2.824  12.427
33488SOL    HW2 2304   5.535   2.759  12.320
33489SOL     OW 2305   8.031  13.978  12.379
33489SOL    HW1 2306   8.100  13.943  12.323
33489SOL    HW2 2307   7.951  13.935  12.349
33490SOL     OW 2308  11.867  12.924  13.257
33490SOL    HW1 2309  11.945  12.873  13.278
33490SOL    HW2 2310  11.894  12.983  13.187
33491SOL     OW 2311   9.992  12.904   5.712
33491SOL    HW1 2312  10.077  12.945   5.728
33491SOL    HW2 2313   9.982  12.907   5.617
33492SOL     OW 2314   1.692  11.924   7.483
33492SOL    HW1 2315   1.669  11.832   7.471
33492SOL    HW2 2316   1.665  11.966   7.401
33493SOL     OW 2317  12.401  10.984  13.176
33493SOL    HW1 2318  12.449  10.964  13.257
33493SOL    HW2 2319  12.312  10.952  13.193
33494SOL     OW 2320   2.793  13.593   5.547
33494SOL    HW1 2321   2.801  13.636   5.632
33494SOL    HW2 2322   2.874  13.544   5.537
33495SOL     OW 2323   3.506   6.947   7.433
33495SOL    HW1 2324   3.531   6.933   7.341
33495SOL    HW2 2325   3.574   6.902   7.483
33496SOL     OW 2326  10.236   2.837   4.319
33496SOL    HW1 2327  10.301   2.789   4.268
33496SOL    HW2 2328  10.278   2.851   4.404
33497SOL     OW 2329  11.831   8.449   4.170
33497SOL    HW1 2330  11.748   8.497   4.178
33497SOL    HW2 2331  11.830   8.387   4.243
33498SOL     OW 2332   2.467   0.202   7.200
33498SOL    HW1 2333   2.423   0.131   7.247
33498SOL    HW2 2334   2.527   0.239   7.265
33499SOL     OW 2335   4.696   3.556   0.326
33499SOL    HW1 2336   4.727   3.640   0.360
33499SOL    HW2 2337   4.773   3.518   0.283
33500SOL     OW 2338  14.389   6.989  14.239
33500SOL    HW1 2339  14.309   6.959  14.198
33500SOL    HW2 2340  14.406   7.075  14.200
33501SOL     OW 2341   1.541   7.886  14.666
33501SOL    HW1 2342   1.468   7.844  14.711
33501SOL    HW2 2343   1.502   7.930  14.591
33502SOL     OW 2344   2.859  13.548   1.174
33502SOL    HW1 2345   2.823  13.473   1.127
33502SOL    HW2 2346   2.882  13.611   1.106
33503SOL     OW 2347   4.669   4.728   9.517
33503SOL    HW1 2348   4.630   4.677   9.588
33503SOL    HW2 2349   4.604   4.727   9.448
33504SOL     OW 2350  13.943  12.698   1.105
33504SOL    HW1 2351  14.030  12.737   1.106
33504SOL    HW2 2352  13.959  12.603   1.106
33505SOL     OW 2353  11.862   6.235   6.684
33505SOL    HW1 2354  11.780   6.283   6.698
33505SOL    HW2 2355  11.930   6.298   6.706
33506SOL     OW 2356   7.436  13.784  11.004
33506SOL    HW1 2357   7.367  13.831  11.050
33506SOL    HW2 2358   7.518  13.824  11.034
33507SOL     OW 2359  10.603   7.805  14.867
33507SOL    HW1 2360  10.602   7.896  14.838
33507SOL    HW2 2361  10.545   7.759  14.807
33508SOL     OW 2362  12.602   8.193   9.588
33508SOL    HW1 2363  12.686   8.148   9.576
33508SOL    HW2 2364  12.566   8.155   9.668
33509SOL     OW 2365   8.029   8.935  12.832
33509SOL    HW1 2366   7.980   8.904  12.908
33509SOL    HW2 2367   8.120   8.913  12.851
33510SOL     OW 2368   9.904   6.001   7.665
33510SOL    HW1 2369   9.813   5.973   7.677
33510SOL    HW2 2370   9.938   5.943   7.597
33511SOL     OW 2371   6.062   8.579   3.887
33511SOL    HW1 2372   6.089   8.615   3.971
33511SOL    HW2 2373   6.090   8.487   3.890
33512SOL     OW 2374   0.664  13.554   9.776
33512SOL    HW1 2375   0.651  13.649   9.786
33512SOL    HW2 2376   0.636  13.536   9.686
33513SOL     OW 2377   8.631   7.371   6.447
33513SOL    HW1 2378   8.719   7.404   6.461
33513SOL    HW2 2379   8.575   7.430   6.497
33514SOL     OW 2380   3.150   1.558   5.573
33514SOL    HW1 2381   3.166   1.490   5.507
33514SOL    HW2 2382   3.101   1.625   5.526
33515SOL     OW 2383   0.055  13.217   2.136
33515SOL    HW1 2384   0.031  13.153   2.069
33515SOL    HW2 2385  14.853  13.247   2.172
33516SOL     OW 2386  11.320  11.628   3.264
33516SOL    HW1 2387  11.246  11.687   3.250
33516SOL    HW2 2388  11.397  11.684   3.254
33517SOL     OW 2389  14.728  13.685  14.873
33517SOL    HW1 2390  14.748  13.729  14.791
33517SOL    HW2 2391  14.642  13.718   0.016
33518SOL     OW 2392   0.601   8.203  14.735
33518SOL    HW1 2393   0.673   8.160  14.782
33518SOL    HW2 2394   0.644   8.254  14.667
33519SOL     OW 2395  14.117   3.106   5.632
33519SOL    HW1 2396  14.036   3.156   5.627
33519SOL    HW2 2397  14.164   3.130   5.552
33520SOL     OW 2398   8.545  14.252   5.806
33520SOL    HW1 2399   8.633  14.268   5.840
33520SOL    HW2 2400   8.552  14.169   5.759
33521SOL     OW 2401  13.163  10.574  11.505
33521SOL    HW1 2402  13.174  10.564  11.410
33521SOL    HW2 2403  13.070  10.590  11.517
33522SOL     OW 2404   9.679   6.541   5.774
33522SOL    HW1 2405   9.712   6.574   5.691
33522SOL    HW2 2406   9.753   6.494   5.813
33523SOL     OW 2407   9.918   4.210   8.189
33523SOL    HW1 2408   9.957   4.138   8.238
33523SOL    HW2 2409   9.871   4.261   8.255
33524SOL     OW 2410   3.518  11.138   5.172
33524SOL    HW1 2411   3.465  11.059   5.164
33524SOL    HW2 2412   3.531  11.149   5.267
33525SOL     OW 2413   9.388   7.041   5.920
33525SOL    HW1 2414   9.399   7.132   5.894
33525SOL    HW2 2415   9.460   7.023   5.979
33526SOL     OW 2416   8.584   7.972   6.318
33526SOL    HW1 2417   8.565   7.975   6.412
33526SOL    HW2 2418   8.523   7.907   6.283
33527SOL     OW 2419   1.442  12.419  11.482
33527SOL    HW1 2420   1.473  12.507  11.504
33527SOL    HW2 2421   1.521  12.364  11.489
33528SOL     OW 2422   9.139   5.666   0.684
33528SOL    HW1 2423   9.049   5.697   0.695
33528SOL    HW2 2424   9.130   5.571   0.677
33529SOL     OW 2425   5.153  14.710   8.062
33529SOL    HW1 2426   5.247  14.692   8.055
33529SOL    HW2 2427   5.148  14.806   8.064
33530SOL     OW 2428   6.385   4.616  11.342
33530SOL    HW1 2429   6.440   4.669  11.399
33530SOL    HW2 2430   6.366   4.674  11.267
33531SOL     OW 2431   1.277  14.658  14.780
33531SOL    HW1 2432   1.363  14.630  14.813
33531SOL    HW2 2433   1.231  14.689  14.858
33532SOL     OW 2434  12.263   1.725   2.193
33532SOL    HW1 2435  12.237   1.648   2.244
33532SOL    HW2 2436  12.201   1.727   2.120
33533SOL     OW 2437   7.529   8.757  13.059
33533SOL    HW1 2438   7.523   8.680  13.004
33533SOL    HW2 2439   7.549   8.829  12.999
33534SOL     OW 2440   2.906  10.389   9.904
33534SOL    HW1 2441   2.813  10.380   9.926
33534SOL    HW2 2442   2.907  10.404   9.810
33535SOL     OW 2443   2.485   8.654   4.108
33535SOL    HW1 2444   2.435   8.727   4.072
33535SOL    HW2 2445   2.554   8.695   4.161
33536SOL     OW 2446   6.018   3.597  12.706
33536SOL    HW1 2447   5.997   3.545  12.628
33536SOL    HW2 2448   6.084   3.545  12.751
33537SOL     OW 2449   4.318  13.492   9.397
33537SOL    HW1 2450   4.337  13.420   9.457
33537SOL    HW2 2451   4.312  13.451   9.311
33538SOL     OW 2452   0.533   5.093  10.863
33538SOL    HW1 2453   0.532   5.143  10.944
33538SOL    HW2 2454   0.488   5.011  10.884
33539SOL     OW 2455   9.455   7.789  13.201
33539SOL    HW1 2456   9.423   7.866  13.153
33539SOL    HW2 2457   9.440   7.716  13.141
33540SOL     OW 2458  10.336   4.501   5.172
33540SOL    HW1 2459  10.406   4.567   5.166
33540SOL    HW2 2460  10.316   4.495   5.265
33541SOL     OW 2461   0.913   3.824  13.549
33541SOL    HW1 2462   0.904   3.743  13.599
33541SOL    HW2 2463   1.004   3.824  13.519
33542SOL     OW 2464   8.509   6.999   1.008
33542SOL    HW1 2465   8.450   6.974   0.937
33542SOL    HW2 2466   8.560   7.071   0.972
33543SOL     OW 2467   1.363   3.000  13.565
33543SOL    HW1 2468   1.366   3.066  13.494
33543SOL    HW2 2469   1.445   2.952  13.556
33544SOL     OW 2470  12.272   9.619   8.408
33544SOL    HW1 2471  12.259   9.546   8.469
33544SOL    HW2 2472  12.365   9.616   8.386
33545SOL     OW 2473   1.849   1.706   9.630
33545SOL    HW1 2474   1.809   1.776   9.683
33545SOL    HW2 2475   1.934   1.741   9.604
33546SOL     OW 2476   5.219   9.890   4.673
33546SOL    HW1 2477   5.205   9.984   4.684
33546SOL    HW2 2478   5.267   9.882   4.591
33547SOL     OW 2479  13.883   2.518  14.286
33547SOL    HW1 2480  13.909   2.538  14.196
33547SOL    HW2 2481  13.867   2.423  14.286
33548SOL     OW 2482   3.573   3.577   0.273
33548SOL    HW1 2483   3.494   3.630   0.284
33548SOL    HW2 2484   3.645   3.639   0.282
33549SOL     OW 2485  12.153   1.861   3.317
33549SOL    HW1 2486  12.062   1.886   3.333
33549SOL    HW2 2487  12.167   1.785   3.373
33550SOL     OW 2488   3.752   6.489   0.204
33550SOL    HW1 2489   3.826   6.472   0.262
33550SOL    HW2 2490   3.784   6.465   0.117
33551SOL     OW 2491  12.530  10.363   7.039
33551SOL    HW1 2492  12.604  10.302   7.042
33551SOL    HW2 2493  12.570  10.449   7.047
33552SOL     OW 2494  12.464  11.457   5.076
33552SOL    HW1 2495  12.458  11.364   5.099
33552SOL    HW2 2496  12.550  11.465   5.034
33553SOL     OW 2497   3.837  14.443  11.469
33553SOL    HW1 2498   3.930  14.420  11.468
33553SOL    HW2 2499   3.830  14.511  11.536
33554SOL     OW 2500  11.178  10.747  14.053
33554SOL    HW1 2501  11.173  10.703  13.969
33554SOL    HW2 2502  11.122  10.694  14.111
33555SOL     OW 2503   7.751  10.771   1.776
33555SOL    HW1 2504   7.683  10.823   1.734
33555SOL    HW2 2505   7.768  10.699   1.715
33556SOL     OW 2506   6.486   7.651   6.502
33556SOL    HW1 2507   6.473   7.607   6.586
33556SOL    HW2 2508   6.495   7.581   6.439
33557SOL     OW 2509  11.976  11.926   3.535
33557SOL    HW1 2510  11.977  11.844   3.485
33557SOL    HW2 2511  11.891  11.927   3.579
33558SOL     OW 2512   6.651   3.682   5.248
33558SOL    HW1 2513   6.681   3.743   5.315
33558SOL    HW2 2514   6.710   3.607   5.257
33559SOL     OW 2515   0.593  10.908  12.710
33559SOL    HW1 2516   0.526  10.886  12.645
33559SOL    HW2 2517   0.547  10.957  12.778
33560SOL     OW 2518  11.252  14.240   7.897
33560SOL    HW1 2519  11.225  14.224   7.987
33560SOL    HW2 2520  11.183  14.198   7.844
33561SOL     OW 2521  13.325  14.185  13.166
33561SOL    HW1 2522  13.229  14.175  13.167
33561SOL    HW2 2523  13.346  14.215  13.254
33562SOL     OW 2524   9.116   3.925  10.290
33562SOL    HW1 2525   9.184   3.893  10.350
33562SOL    HW2 2526   9.129   3.873  10.211
33563SOL     OW 2527  13.543   0.811   4.693
33563SOL    HW1 2528  13.591   0.794   4.774
33563SOL    HW2 2529  13.472   0.869   4.719
33564SOL     OW 2530   9.624   6.680  14.766
33564SOL    HW1 2531   9.614   6.653  14.858
33564SOL    HW2 2532   9.549   6.736  14.749
33565SOL     OW 2533   9.634   6.601   8.684
33565SOL    HW1 2534   9.573   6.673   8.698
33565SOL    HW2 2535   9.583   6.533   8.641
33566SOL     OW 2536   5.924  11.518   8.101
33566SOL    HW1 2537   5.994  11.555   8.047
33566SOL    HW2 2538   5.940  11.424   8.102
33567SOL     OW 2539   9.453   8.705  10.504
33567SOL    HW1 2540   9.445   8.702  10.600
33567SOL    HW2 2541   9.526   8.646  10.485
33568SOL     OW 2542   4.222   5.010   7.775
33568SOL    HW1 2543   4.222   4.987   7.868
33568SOL    HW2 2544   4.197   4.929   7.730
33569SOL     OW 2545  10.783   6.794   1.431
33569SOL    HW1 2546  10.774   6.884   1.462
33569SOL    HW2 2547  10.697   6.756   1.443
33570SOL     OW 2548  13.753  13.157  14.613
33570SOL    HW1 2549  13.799  13.241  14.611
33570SOL    HW2 2550  13.820  13.092  14.634
33571SOL     OW 2551   4.330  10.638   8.258
33571SOL    HW1 2552   4.319  10.730   8.285
33571SOL    HW2 2553   4.413  10.637   8.211
33572SOL     OW 2554   6.456   2.000   5.734
33572SOL    HW1 2555   6.423   2.072   5.681
33572SOL    HW2 2556   6.426   1.921   5.689
33573SOL     OW 2557  11.756  11.370  11.173
33573SOL    HW1 2558  11.740  11.346  11.082
33573SOL    HW2 2559  11.739  11.464  11.176
33574SOL     OW 2560  13.343   4.609  11.485
33574SOL    HW1 2561  13.430   4.637  11.456
33574SOL    HW2 2562  13.352   4.516  11.502
33575SOL     OW 2563   1.943  10.323   3.698
33575SOL    HW1 2564   2.027  10.365   3.715
33575SOL    HW2 2565   1.965  10.243   3.651
33576SOL     OW 2566   2.721   0.071   8.112
33576SOL    HW1 2567   2.772  14.878   8.080
33576SOL    HW2 2568   2.636   0.063   8.068
33577SOL     OW 2569   8.286   9.506   4.958
33577SOL    HW1 2570   8.265   9.599   4.968
33577SOL    HW2 2571   8.378   9.500   4.985
33578SOL     OW 2572   3.959   4.226  14.109
33578SOL    HW1 2573   4.032   4.218  14.047
33578SOL    HW2 2574   3.948   4.320  14.123
33579SOL     OW 2575   2.687  14.193  14.118
33579SOL    HW1 2576   2.666  14.102  14.093
33579SOL    HW2 2577   2.688  14.240  14.035
33580SOL     OW 2578   5.334   0.989  12.187
33580SOL    HW1 2579   5.321   1.046  12.111
33580SOL    HW2 2580   5.249   0.945  12.198
33581SOL     OW 2581   2.508   1.945   5.032
33581SOL    HW1 2582   2.489   1.854   5.051
33581SOL    HW2 2583   2.579   1.968   5.092
33582SOL     OW 2584   7.059   4.008   6.821
33582SOL    HW1 2585   7.069   4.090   6.773
33582SOL    HW2 2586   7.067   3.940   6.755
33583SOL     OW 2587   4.945   9.436   9.918
33583SOL    HW1 2588   4.889   9.401   9.987
33583SOL    HW2 2589   4.910   9.523   9.901
33584SOL     OW 2590   7.318   8.860  14.102
33584SOL    HW1 2591   7.228   8.862  14.136
33584SOL    HW2 2592   7.309   8.883  14.010
33585SOL     OW 2593  11.701  10.578  11.626
33585SOL    HW1 2594  11.735  10.503  11.675
33585SOL    HW2 2595  11.779  10.622  11.592
33586SOL     OW 2596   2.850   8.740   7.529
33586SOL    HW1 2597   2.848   8.663   7.472
33586SOL    HW2 2598   2.787   8.719   7.599
33587SOL     OW 2599  11.692   5.714   5.244
33587SOL    HW1 2600  11.713   5.621   5.252
33587SOL    HW2 2601  11.642   5.734   5.323
33588SOL     OW 2602   6.349  12.568   5.793
33588SOL    HW1 2603   6.389  12.558   5.707
33588SOL    HW2 2604   6.323  12.479   5.818
33589SOL     OW 2605   0.035   6.632   9.452
33589SOL    HW1 2606  14.850   6.663   9.392
33589SOL    HW2 2607   0.112   6.685   9.431
33590SOL     OW 2608  13.483   9.240   5.684
33590SOL    HW1 2609  13.508   9.154   5.652
33590SOL    HW2 2610  13.547   9.300   5.646
33591SOL     OW 2611  11.498   1.194   7.048
33591SOL    HW1 2612  11.444   1.147   6.984
33591SOL    HW2 2613  11.587   1.182   7.017
33592SOL     OW 2614   8.270   3.294   0.191
33592SOL    HW1 2615   8.187   3.262   0.157
33592SOL    HW2 2616   8.259   3.389   0.197
33593SOL     OW 2617   6.394   5.651  12.659
33593SOL    HW1 2618   6.355   5.648  12.571
33593SOL    HW2 2619   6.397   5.743  12.682
33594SOL     OW 2620   9.033   0.345  11.939
33594SOL    HW1 2621   9.060   0.398  12.014
33594SOL    HW2 2622   9.083   0.381  11.866
33595SOL     OW 2623  12.292   8.139   1.663
33595SOL    HW1 2624  12.290   8.235   1.667
33595SOL    HW2 2625  12.311   8.111   1.752
33596SOL     OW 2626  11.153  13.598  13.479
33596SOL    HW1 2627  11.208  13.521  13.462
33596SOL    HW2 2628  11.152  13.645  13.397
33597SOL     OW 2629   7.305   2.579   8.850
33597SOL    HW1 2630   7.267   2.640   8.913
33597SOL    HW2 2631   7.271   2.493   8.876
33598SOL     OW 2632   7.979   3.806  10.936
33598SOL    HW1 2633   7.959   3.745  10.866
33598SOL    HW2 2634   8.068   3.785  10.963
33599SOL     OW 2635  10.717  14.786   0.687
33599SOL    HW1 2636  10.801  14.790   0.640
33599SOL    HW2 2637  10.741  14.799   0.779
33600SOL     OW 2638   6.171   1.102   4.537
33600SOL    HW1 2639   6.257   1.142   4.546
33600SOL    HW2 2640   6.111   1.175   4.527
33601SOL     OW 2641   2.551  11.790   2.439
33601SOL    HW1 2642   2.563  11.837   2.521
33601SOL    HW2 2643   2.608  11.837   2.377
33602SOL     OW 2644  13.588  13.702   4.694
33602SOL    HW1 2645  13.535  13.762   4.641
33602SOL    HW2 2646  13.601  13.627   4.637
33603SOL     OW 2647  12.216   8.167   8.993
33603SOL    HW1 2648  12.159   8.121   8.931
33603SOL    HW2 2649  12.198   8.260   8.976
33604SOL     OW 2650   8.716  14.203  14.785
33604SOL    HW1 2651   8.644  14.146  14.812
33604SOL    HW2 2652   8.711  14.202  14.689
33605SOL     OW 2653   2.331   8.722   8.952
33605SOL    HW1 2654   2.264   8.692   9.014
33605SOL    HW2 2655   2.368   8.642   8.917
33606SOL     OW 2656   3.993  13.092  13.642
33606SOL    HW1 2657   4.022  13.125  13.727
33606SOL    HW2 2658   4.071  13.052  13.603
33607SOL     OW 2659   4.193   3.487  12.299
33607SOL    HW1 2660   4.270   3.534  12.331
33607SOL    HW2 2661   4.127   3.555  12.286
33608SOL     OW 2662   7.710   9.795   4.577
33608SOL    HW1 2663   7.762   9.875   4.581
33608SOL    HW2 2664   7.678   9.792   4.486
33609SOL     OW 2665   6.850   3.919   6.158
33609SOL    HW1 2666   6.852   3.881   6.246
33609SOL    HW2 2667   6.798   3.999   6.167
33610SOL     OW 2668   5.427   4.075  10.448
33610SOL    HW1 2669   5.338   4.067  10.415
33610SOL    HW2 2670   5.419   4.061  10.542
33611SOL     OW 2671   7.893  10.639   7.131
33611SOL    HW1 2672   7.817  10.650   7.189
33611SOL    HW2 2673   7.893  10.718   7.077
33612SOL     OW 2674   9.170  11.602  13.725
33612SOL    HW1 2675   9.112  11.588  13.650
33612SOL    HW2 2676   9.254  11.566  13.696
33613SOL     OW 2677   7.487  13.213   2.633
33613SOL    HW1 2678   7.459  13.160   2.707
33613SOL    HW2 2679   7.583  13.205   2.633
33614SOL     OW 2680   1.079   8.051  13.885
33614SOL    HW1 2681   1.083   7.955  13.887
33614SOL    HW2 2682   1.149   8.078  13.945
33615SOL     OW 2683   4.476   3.437   2.118
33615SOL    HW1 2684   4.384   3.445   2.143
33615SOL    HW2 2685   4.474   3.401   2.029
33616SOL     OW 2686   6.035   3.731   7.637
33616SOL    HW1 2687   6.039   3.654   7.695
33616SOL    HW2 2688   5.956   3.777   7.665
33617SOL     OW 2689  13.289   5.043   1.167
33617SOL    HW1 2690  13.252   4.961   1.135
33617SOL    HW2 2691  13.288   5.035   1.262
33618SOL     OW 2692  10.858  11.048   1.273
33618SOL    HW1 2693  10.953  11.058   1.263
33618SOL    HW2 2694  10.822  11.068   1.187
33619SOL     OW 2695  14.005   2.994  10.436
33619SOL    HW1 2696  14.059   2.947  10.373
33619SOL    HW2 2697  14.066   3.018  10.506
33620SOL     OW 2698   8.168  12.115   0.515
33620SOL    HW1 2699   8.150  12.070   0.597
33620SOL    HW2 2700   8.121  12.198   0.522
33621SOL     OW 2701  10.144  11.261   6.604
33621SOL    HW1 2702  10.172  11.177   6.640
33621SOL    HW2 2703  10.086  11.298   6.670
33622SOL     OW 2704  14.115   5.440   8.880
33622SOL    HW1 2705  14.064   5.456   8.800
33622SOL    HW2 2706  14.053   5.458   8.951
33623SOL     OW 2707   1.524  11.653  14.520
33623SOL    HW1 2708   1.521  11.747  14.506
33623SOL    HW2 2709   1.581  11.620  14.450
33624SOL     OW 2710  10.253   5.653  13.996
33624SOL    HW1 2711  10.207   5.582  13.952
33624SOL    HW2 2712  10.202   5.669  14.075
33625SOL     OW 2713   7.758   7.845   6.859
33625SOL    HW1 2714   7.829   7.814   6.915
33625SOL    HW2 2715   7.802   7.896   6.791
33626SOL     OW 2716   5.487   7.605   5.838
33626SOL    HW1 2717   5.419   7.665   5.869
33626SOL    HW2 2718   5.526   7.570   5.918
33627SOL     OW 2719   6.551  10.868   4.362
33627SOL    HW1 2720   6.459  10.870   4.390
33627SOL    HW2 2721   6.570  10.959   4.336
33628SOL     OW 2722   1.252   0.483   1.295
33628SOL    HW1 2723   1.165   0.483   1.255
33628SOL    HW2 2724   1.312   0.463   1.223
33629SOL     OW 2725   5.722  11.505  12.198
33629SOL    HW1 2726   5.630  11.531  12.188
33629SOL    HW2 2727   5.770  11.587  12.202
33630SOL     OW 2728  12.561  11.891   2.080
33630SOL    HW1 2729  12.535  11.902   2.171
33630SOL    HW2 2730  12.570  11.796   2.069
33631SOL     OW 2731   7.691   3.469  14.159
33631SOL    HW1 2732   7.739   3.482  14.241
33631SOL    HW2 2733   7.604   3.507  14.177
33632SOL     OW 2734   6.647   1.212   3.684
33632SOL    HW1 2735   6.679   1.136   3.635
33632SOL    HW2 2736   6.654   1.186   3.776
33633SOL     OW 2737   5.007   9.386   3.545
33633SOL    HW1 2738   5.056   9.340   3.477
33633SOL    HW2 2739   5.044   9.474   3.546
33634SOL     OW 2740  10.351   3.875   9.875
33634SOL    HW1 2741  10.278   3.857   9.817
33634SOL    HW2 2742  10.397   3.791   9.883
33635SOL     OW 2743   0.171   3.926   1.409
33635SOL    HW1 2744   0.231   3.930   1.484
33635SOL    HW2 2745   0.226   3.893   1.337
33636SOL     OW 2746   8.323   7.518  12.029
33636SOL    HW1 2747   8.352   7.487  11.943
33636SOL    HW2 2748   8.319   7.440  12.083
33637SOL     OW 2749   5.429   0.110   3.161
33637SOL    HW1 2750   5.479   0.049   3.215
33637SOL    HW2 2751   5.361   0.056   3.121
33638SOL     OW 2752  10.782  13.132  11.096
33638SOL    HW1 2753  10.875  13.125  11.119
33638SOL    HW2 2754  10.739  13.072  11.157
33639SOL     OW 2755   2.305   0.067   8.936
33639SOL    HW1 2756   2.374   0.134   8.933
33639SOL    HW2 2757   2.251   0.085   8.859
33640SOL     OW 2758   1.287  10.786   1.004
33640SOL    HW1 2759   1.297  10.800   1.098
33640SOL    HW2 2760   1.258  10.870   0.970
33641SOL     OW 2761  11.326   1.821   7.299
33641SOL    HW1 2762  11.344   1.860   7.384
33641SOL    HW2 2763  11.358   1.886   7.235
33642SOL     OW 2764   0.526   6.051  10.980
33642SOL    HW1 2765   0.591   6.115  10.951
33642SOL    HW2 2766   0.444   6.100  10.982
33643SOL     OW 2767  12.211   4.097   0.086
33643SOL    HW1 2768  12.252   4.021   0.046
33643SOL    HW2 2769  12.210   4.078   0.179
33644SOL     OW 2770   5.781   8.580   0.541
33644SOL    HW1 2771   5.712   8.537   0.490
33644SOL    HW2 2772   5.760   8.560   0.632
33645SOL     OW 2773   8.943   8.979   4.513
33645SOL    HW1 2774   8.878   8.920   4.475
33645SOL    HW2 2775   8.900   9.065   4.515
33646SOL     OW 2776  14.177   0.392   6.957
33646SOL    HW1 2777  14.192   0.439   7.039
33646SOL    HW2 2778  14.201   0.454   6.888
33647SOL     OW 2779   7.948   2.240   9.346
33647SOL    HW1 2780   8.005   2.259   9.271
33647SOL    HW2 2781   7.990   2.285   9.420
33648SOL     OW 2782   0.322  11.262   6.015
33648SOL    HW1 2783   0.245  11.232   5.968
33648SOL    HW2 2784   0.392  11.204   5.988
33649SOL     OW 2785  11.857  13.627   1.711
33649SOL    HW1 2786  11.863  13.708   1.661
33649SOL    HW2 2787  11.765  13.601   1.705
33650SOL     OW 2788   9.864   2.343  13.715
33650SOL    HW1 2789   9.865   2.277  13.645
33650SOL    HW2 2790   9.831   2.422  13.673
33651SOL     OW 2791  12.295  11.901   4.963
33651SOL    HW1 2792  12.379  11.878   5.002
33651SOL    HW2 2793  12.317  11.965   4.895
33652SOL     OW 2794   2.597  14.809   1.534
33652SOL    HW1 2795   2.546  14.728   1.522
33652SOL    HW2 2796   2.531  14.879   1.529
33653SOL     OW 2797  10.995   7.895  11.046
33653SOL    HW1 2798  11.019   7.952  11.119
33653SOL    HW2 2799  10.997   7.807  11.082
33654SOL     OW 2800  11.498  10.888  14.342
33654SOL    HW1 2801  11.455  10.873  14.258
33654SOL    HW2 2802  11.508  10.800  14.379
33655SOL     OW 2803   3.097   4.010   0.837
33655SOL    HW1 2804   3.110   4.063   0.915
33655SOL    HW2 2805   3.165   3.942   0.842
33656SOL     OW 2806   2.393   4.078  14.369
33656SOL    HW1 2807   2.421   4.006  14.312
33656SOL    HW2 2808   2.367   4.035  14.451
33657SOL     OW 2809   7.962  11.429   6.881
33657SOL    HW1 2810   8.003  11.449   6.965
33657SOL    HW2 2811   8.013  11.355   6.847
33658SOL     OW 2812   1.170   5.170   6.866
33658SOL    HW1 2813   1.244   5.230   6.859
33658SOL    HW2 2814   1.210   5.084   6.884
33659SOL     OW 2815  10.118  14.448   3.198
33659SOL    HW1 2816  10.129  14.368   3.250
33659SOL    HW2 2817  10.023  14.456   3.186
33660SOL     OW 2818  13.891   0.141  14.614
33660SOL    HW1 2819  13.805   0.159  14.576
33660SOL    HW2 2820  13.876   0.068  14.674
33661SOL     OW 2821  14.288   2.210  11.510
33661SOL    HW1 2822  14.381   2.203  11.533
33661SOL    HW2 2823  14.252   2.123  11.527
33662SOL     OW 2824  11.117   1.169   1.933
33662SOL    HW1 2825  11.195   1.178   1.987
33662SOL    HW2 2826  11.054   1.229   1.972
33663SOL     OW 2827   3.269   0.536   3.395
33663SOL    HW1 2828   3.315   0.553   3.313
33663SOL    HW2 2829   3.229   0.620   3.418
33664SOL     OW 2830   8.037   7.316   6.423
33664SOL    HW1 2831   8.043   7.224   6.396
33664SOL    HW2 2832   8.118   7.331   6.472
33665SOL     OW 2833   7.697   7.243  12.220
33665SOL    HW1 2834   7.788   7.257  12.192
33665SOL    HW2 2835   7.704   7.199  12.304
33666SOL     OW 2836  14.336   9.813   7.368
33666SOL    HW1 2837  14.290   9.879   7.420
33666SOL    HW2 2838  14.395   9.771   7.431
33667SOL     OW 2839   6.708   1.913   7.785
33667SOL    HW1 2840   6.616   1.912   7.810
33667SOL    HW2 2841   6.730   2.005   7.774
33668SOL     OW 2842   2.258  11.344   3.004
33668SOL    HW1 2843   2.181  11.396   3.027
33668SOL    HW2 2844   2.303  11.396   2.937
33669SOL     OW 2845   4.451   9.830   9.946
33669SOL    HW1 2846   4.416   9.878  10.021
33669SOL    HW2 2847   4.524   9.883   9.915
33670SOL     OW 2848   6.805   7.388  14.684
33670SOL    HW1 2849   6.817   7.456  14.617
33670SOL    HW2 2850   6.769   7.435  14.759
33671SOL     OW 2851  10.057  10.998  11.410
33671SOL    HW1 2852  10.031  11.039  11.328
33671SOL    HW2 2853   9.989  11.023  11.473
33672SOL     OW 2854  13.974   5.083   8.837
33672SOL    HW1 2855  14.055   5.120   8.803
33672SOL    HW2 2856  13.983   4.989   8.821
33673SOL     OW 2857   5.273  11.668   6.653
33673SOL    HW1 2858   5.252  11.653   6.745
33673SOL    HW2 2859   5.363  11.701   6.654
33674SOL     OW 2860   8.598  14.276   8.799
33674SOL    HW1 2861   8.591  14.213   8.726
33674SOL    HW2 2862   8.685  14.315   8.789
33675SOL     OW 2863  13.856   8.772  14.579
33675SOL    HW1 2864  13.895   8.852  14.543
33675SOL    HW2 2865  13.846   8.791  14.672
33676SOL     OW 2866  13.623  13.609  13.939
33676SOL    HW1 2867  13.641  13.627  14.031
33676SOL    HW2 2868  13.527  13.607  13.933
33677SOL     OW 2869  12.299   3.123  14.515
33677SOL    HW1 2870  12.363   3.183  14.476
33677SOL    HW2 2871  12.240   3.102  14.443
33678SOL     OW 2872   7.240   7.144  11.647
33678SOL    HW1 2873   7.250   7.235  11.620
33678SOL    HW2 2874   7.147   7.126  11.639
33679SOL     OW 2875   6.955   8.589   9.901
33679SOL    HW1 2876   6.946   8.616   9.992
33679SOL    HW2 2877   7.037   8.540   9.898
33680SOL     OW 2878   3.163   2.282  11.861
33680SOL    HW1 2879   3.125   2.327  11.786
33680SOL    HW2 2880   3.258   2.289  11.847
33681SOL     OW 2881   2.328   5.946  10.093
33681SOL    HW1 2882   2.377   5.866  10.108
33681SOL    HW2 2883   2.391   6.017  10.103
33682SOL     OW 2884  13.266   6.924  12.202
33682SOL    HW1 2885  13.315   6.936  12.284
33682SOL    HW2 2886  13.312   6.853  12.157
33683SOL     OW 2887   2.765   0.612   1.137
33683SOL    HW1 2888   2.786   0.682   1.199
33683SOL    HW2 2889   2.785   0.531   1.185
33684SOL     OW 2890   8.451   7.271  14.499
33684SOL    HW1 2891   8.410   7.354  14.522
33684SOL    HW2 2892   8.482   7.283  14.409
33685SOL     OW 2893   1.866   0.061   9.551
33685SOL    HW1 2894   1.813   0.124   9.601
33685SOL    HW2 2895   1.814   0.044   9.472
33686SOL     OW 2896  13.032   0.890  10.948
33686SOL    HW1 2897  13.030   0.826  11.019
33686SOL    HW2 2898  13.013   0.974  10.990
33687SOL     OW 2899  11.072   0.890  11.743
33687SOL    HW1 2900  11.142   0.935  11.696
33687SOL    HW2 2901  11.012   0.960  11.769
33688SOL     OW 2902  13.913   6.755   5.238
33688SOL    HW1 2903  13.904   6.778   5.146
33688SOL    HW2 2904  13.951   6.667   5.237
33689SOL     OW 2905  10.081   1.855   4.612
33689SOL    HW1 2906  10.157   1.910   4.595
33689SOL    HW2 2907  10.019   1.878   4.543
33690SOL     OW 2908  11.157  10.382  12.020
33690SOL    HW1 2909  11.186  10.347  12.105
33690SOL    HW2 2910  11.234  10.428  11.986
33691SOL     OW 2911   8.941  11.611   0.026
33691SOL    HW1 2912   8.965  11.541  14.847
33691SOL    HW2 2913   8.922  11.686  14.852
33692SOL     OW 2914   1.923  12.490   1.219
33692SOL    HW1 2915   1.966  12.521   1.299
33692SOL    HW2 2916   1.864  12.420   1.249
33693SOL     OW 2917   4.159   8.529   6.432
33693SOL    HW1 2918   4.192   8.486   6.353
33693SOL    HW2 2919   4.124   8.612   6.401
33694SOL     OW 2920   0.813   3.782   0.489
33694SOL    HW1 2921   0.801   3.811   0.399
33694SOL    HW2 2922   0.724   3.776   0.525
33695SOL     OW 2923   1.677   6.839   6.766
33695SOL    HW1 2924   1.623   6.876   6.836
33695SOL    HW2 2925   1.690   6.748   6.792
33696SOL     OW 2926   8.683   3.148   6.667
33696SOL    HW1 2927   8.660   3.199   6.744
33696SOL    HW2 2928   8.778   3.136   6.674
33697SOL     OW 2929   3.794  12.499  11.614
33697SOL    HW1 2930   3.800  12.411  11.652
33697SOL    HW2 2931   3.861  12.549  11.660
33698SOL     OW 2932   2.839  14.387   0.220
33698SOL    HW1 2933   2.795  14.463   0.183
33698SOL    HW2 2934   2.768  14.327   0.243
33699SOL     OW 2935   8.342  11.056   5.377
33699SOL    HW1 2936   8.361  11.073   5.285
33699SOL    HW2 2937   8.312  10.966   5.380
33700SOL     OW 2938   3.450   6.812   3.237
33700SOL    HW1 2939   3.477   6.726   3.205
33700SOL    HW2 2940   3.370   6.832   3.188
33701SOL     OW 2941   0.567  13.952   2.768
33701SOL    HW1 2942   0.623  13.958   2.690
33701SOL    HW2 2943   0.620  13.904   2.832
33702SOL     OW 2944  14.800   7.617   0.573
33702SOL    HW1 2945  14.772   7.588   0.660
33702SOL    HW2 2946  14.849   7.697   0.589
33703SOL     OW 2947  12.874   4.536   8.034
33703SOL    HW1 2948  12.814   4.586   8.089
33703SOL    HW2 2949  12.914   4.602   7.977
33704SOL     OW 2950  10.639   0.486   9.433
33704SOL    HW1 2951  10.607   0.454   9.348
33704SOL    HW2 2952  10.638   0.582   9.423
33705SOL     OW 2953   2.372  13.352   5.709
33705SOL    HW1 2954   2.356  13.435   5.663
33705SOL    HW2 2955   2.460  13.362   5.746
33706SOL     OW 2956   1.921  10.414   6.435
33706SOL    HW1 2957   1.834  10.377   6.450
33706SOL    HW2 2958   1.960  10.420   6.522
33707SOL     OW 2959   2.437   2.876  10.064
33707SOL    HW1 2960   2.492   2.936  10.114
33707SOL    HW2 2961   2.417   2.805  10.124
33708SOL     OW 2962   1.218   2.867   8.654
33708SOL    HW1 2963   1.224   2.812   8.732
33708SOL    HW2 2964   1.178   2.810   8.588
33709SOL     OW 2965   2.261   0.716   4.130
33709SOL    HW1 2966   2.218   0.682   4.209
33709SOL    HW2 2967   2.196   0.704   4.061
33710SOL     OW 2968   0.441  11.560   0.496
33710SOL    HW1 2969   0.458  11.473   0.458
33710SOL    HW2 2970   0.446  11.546   0.591
33711SOL     OW 2971  11.687  12.415   8.270
33711SOL    HW1 2972  11.601  12.452   8.254
33711SOL    HW2 2973  11.686  12.330   8.226
33712SOL     OW 2974  10.207  11.923  10.943
33712SOL    HW1 2975  10.125  11.893  10.904
33712SOL    HW2 2976  10.218  12.012  10.910
33713SOL     OW 2977   5.967  12.751   4.868
33713SOL    HW1 2978   5.982  12.790   4.782
33713SOL    HW2 2979   5.871  12.746   4.875
33714SOL     OW 2980  14.139   7.019   1.985
33714SOL    HW1 2981  14.078   7.053   1.920
33714SOL    HW2 2982  14.182   6.946   1.941
33715SOL     OW 2983  12.067  13.465  12.933
33715SOL    HW1 2984  12.101  13.377  12.952
33715SOL    HW2 2985  11.972  13.456  12.943
33716SOL     OW 2986   4.827   3.593   2.416
33716SOL    HW1 2987   4.774   3.536   2.472
33716SOL    HW2 2988   4.904   3.540   2.394
33717SOL     OW 2989  11.956   9.050  12.932
33717SOL    HW1 2990  11.996   9.079  12.850
33717SOL    HW2 2991  11.868   9.023  12.908
33718SOL     OW 2992   1.533   2.250   9.070
33718SOL    HW1 2993   1.520   2.344   9.083
33718SOL    HW2 2994   1.530   2.238   8.976
33719SOL     OW 2995   0.073   3.872   6.423
33719SOL    HW1 2996  14.862   3.882   6.407
33719SOL    HW2 2997   0.087   3.906   6.511
33720SOL     OW 2998  11.276   9.502   4.857
33720SOL    HW1 2999  11.227   9.578   4.824
33720SOL    HW2 3000  11.231   9.478   4.938
33721SOL     OW 3001   1.411   0.643   5.755
33721SOL    HW1 3002   1.440   0.653   5.845
33721SOL    HW2 3003   1.446   0.558   5.727
33722SOL     OW 3004  13.219   6.316   3.374
33722SOL    HW1 3005  13.195   6.233   3.416
33722SOL    HW2 3006  13.221   6.380   3.445
33723SOL     OW 3007   4.758   8.992   0.880
33723SOL    HW1 3008   4.758   9.026   0.790
33723SOL    HW2 3009   4.679   9.029   0.919
33724SOL     OW 3010   4.097   2.832   4.186
33724SOL    HW1 3011   4.043   2.909   4.170
33724SOL    HW2 3012   4.146   2.820   4.105
33725SOL     OW 3013   2.737  13.208  14.211
33725SOL    HW1 3014   2.826  13.206  14.175
33725SOL    HW2 3015   2.749  13.185  14.303
33726SOL     OW 3016   1.036   7.024   5.502
33726SOL    HW1 3017   0.943   7.003   5.506
33726SOL    HW2 3018   1.071   6.967   5.434
33727SOL     OW 3019   5.913  12.749  12.215
33727SOL    HW1 3020   5.891  12.711  12.129
33727SOL    HW2 3021   5.986  12.696  12.246
33728SOL     OW 3022   4.277  10.513   0.847
33728SOL    HW1 3023   4.229  10.476   0.922
33728SOL    HW2 3024   4.364  10.532   0.882
33729SOL     OW 3025   0.169  14.771   4.792
33729SOL    HW1 3026   0.075  14.754   4.790
33729SOL    HW2 3027   0.190  14.800   4.703
33730SOL     OW 3028  14.712   3.435   1.240
33730SOL    HW1 3029  14.797   3.394   1.253
33730SOL    HW2 3030  14.729   3.529   1.251
33731SOL     OW 3031   7.244   0.287   7.713
33731SOL    HW1 3032   7.298   0.351   7.667
33731SOL    HW2 3033   7.193   0.245   7.644
33732SOL     OW 3034  14.240   4.050  14.455
33732SOL    HW1 3035  14.222   4.000  14.535
33732SOL    HW2 3036  14.272   4.134  14.487
33733SOL     OW 3037   6.827  13.593  10.125
33733SOL    HW1 3038   6.816  13.607  10.031
33733SOL    HW2 3039   6.869  13.507  10.132
33734SOL     OW 3040   1.267  10.326   5.922
33734SOL    HW1 3041   1.261  10.267   5.997
33734SOL    HW2 3042   1.199  10.392   5.938
33735SOL     OW 3043   3.593  11.850  12.026
33735SOL    HW1 3044   3.571  11.939  12.055
33735SOL    HW2 3045   3.630  11.808  12.104
33736SOL     OW 3046   5.936  14.445  13.367
33736SOL    HW1 3047   6.009  14.436  13.428
33736SOL    HW2 3048   5.953  14.379  13.300
33737SOL     OW 3049   3.236   5.191   4.816
33737SOL    HW1 3050   3.201   5.253   4.880
33737SOL    HW2 3051   3.298   5.138   4.866
33738SOL     OW 3052  11.047   0.978  11.348
33738SOL    HW1 3053  11.015   0.892  11.375
33738SOL    HW2 3054  11.002   0.995  11.265
33739SOL     OW 3055  13.501  10.999  10.943
33739SOL    HW1 3056  13.405  10.994  10.943
33739SOL    HW2 3057  13.520  11.089  10.917
33740SOL     OW 3058  13.489   3.157   0.946
33740SOL    HW1 3059  13.401   3.163   0.909
33740SOL    HW2 3060  13.544   3.204   0.884
33741SOL     OW 3061   7.737   3.014  13.407
33741SOL    HW1 3062   7.642   3.020  13.400
33741SOL    HW2 3063   7.762   3.085  13.465
33742SOL     OW 3064   5.863  13.364   4.734
33742SOL    HW1 3065   5.877  13.289   4.677
33742SOL    HW2 3066   5.933  13.425   4.712
33743SOL     OW 3067  14.740   4.834   4.260
33743SOL    HW1 3068  14.672   4.867   4.202
33743SOL    HW2 3069  14.692   4.788   4.329
33744SOL     OW 3070   7.087   4.165   3.390
33744SOL    HW1 3071   7.051   4.252   3.373
33744SOL    HW2 3072   7.169   4.163   3.342
33745SOL     OW 3073   8.297   7.748   9.823
33745SOL    HW1 3074   8.359   7.677   9.834
33745SOL    HW2 3075   8.227   7.729   9.886
33746SOL     OW 3076   7.135  13.073   0.434
33746SOL    HW1 3077   7.099  13.139   0.374
33746SOL    HW2 3078   7.091  12.992   0.408
33747SOL     OW 3079  12.953   7.223  12.732
33747SOL    HW1 3080  12.891   7.155  12.760
33747SOL    HW2 3081  12.903   7.276  12.669
33748SOL     OW 3082   9.649   9.102   4.821
33748SOL    HW1 3083   9.612   9.184   4.856
33748SOL    HW2 3084   9.583   9.070   4.760
33749SOL     OW 3085   8.803   4.183   5.920
33749SOL    HW1 3086   8.817   4.225   5.835
33749SOL    HW2 3087   8.720   4.136   5.911
33750SOL     OW 3088   5.902   3.360   5.941
33750SOL    HW1 3089   5.870   3.435   5.992
33750SOL    HW2 3090   5.982   3.391   5.899
33751SOL     OW 3091   6.919   0.233   1.286
33751SOL    HW1 3092   6.862   0.227   1.210
33751SOL    HW2 3093   6.967   0.151   1.288
33752SOL     OW 3094   8.808   2.452   6.296
33752SOL    HW1 3095   8.875   2.500   6.247
33752SOL    HW2 3096   8.793   2.505   6.375
33753SOL     OW 3097  11.927   4.582  10.753
33753SOL    HW1 3098  12.013   4.541  10.763
33753SOL    HW2 3099  11.867   4.509  10.738
33754SOL     OW 3100  10.016   8.689   1.704
33754SOL    HW1 3101   9.996   8.643   1.785
33754SOL    HW2 3102   9.973   8.775   1.715
33755SOL     OW 3103  14.486  14.221  13.897
33755SOL    HW1 3104  14.390  14.220  13.889
33755SOL    HW2 3105  14.517  14.267  13.819
33756SOL     OW 3106  12.073   9.246   3.453
33756SOL    HW1 3107  12.135   9.316   3.430
33756SOL    HW2 3108  12.001   9.257   3.391
33757SOL     OW 3109  10.488   8.384   8.794
33757SOL    HW1 3110  10.576   8.378   8.830
33757SOL    HW2 3111  10.435   8.419   8.866
33758SOL     OW 3112   7.532   5.947   8.984
33758SOL    HW1 3113   7.533   5.887   8.909
33758SOL    HW2 3114   7.623   5.972   8.995
33759SOL     OW 3115  10.871   4.411  11.850
33759SOL    HW1 3116  10.944   4.356  11.822
33759SOL    HW2 3117  10.902   4.455  11.929
33760SOL     OW 3118   9.853   1.296  14.752
33760SOL    HW1 3119   9.899   1.348  14.819
33760SOL    HW2 3120   9.842   1.210  14.792
33761SOL     OW 3121   3.767  12.756   7.483
33761SOL    HW1 3122   3.704  12.707   7.430
33761SOL    HW2 3123   3.714  12.795   7.553
33762SOL     OW 3124   0.088  13.628   0.803
33762SOL    HW1 3125   0.184  13.636   0.801
33762SOL    HW2 3126   0.065  13.589   0.719
33763SOL     OW 3127  14.687   2.519  13.077
33763SOL    HW1 3128  14.744   2.445  13.099
33763SOL    HW2 3129  14.745   2.581  13.033
33764SOL     OW 3130  13.399   3.478   7.725
33764SOL    HW1 3131  13.415   3.399   7.777
33764SOL    HW2 3132  13.379   3.546   7.790
33765SOL     OW 3133   3.066   6.300   8.834
33765SOL    HW1 3134   3.040   6.314   8.743
33765SOL    HW2 3135   3.120   6.376   8.855
33766SOL     OW 3136   2.174  14.041  11.041
33766SOL    HW1 3137   2.124  13.961  11.057
33766SOL    HW2 3138   2.140  14.104  11.105
33767SOL     OW 3139   4.935   4.343  14.189
33767SOL    HW1 3140   4.911   4.331  14.097
33767SOL    HW2 3141   4.872   4.290  14.237
33768SOL     OW 3142  11.117  10.016   7.284
33768SOL    HW1 3143  11.097  10.085   7.221
33768SOL    HW2 3144  11.037  10.005   7.334
33769SOL     OW 3145   0.634  14.753   5.333
33769SOL    HW1 3146   0.542  14.755   5.310
33769SOL    HW2 3147   0.677  14.806   5.266
33770SOL     OW 3148  13.152  10.693  11.817
33770SOL    HW1 3149  13.095  10.757  11.773
33770SOL    HW2 3150  13.241  10.721  11.795
33771SOL     OW 3151   2.212  11.943   1.988
33771SOL    HW1 3152   2.147  11.898   1.934
33771SOL    HW2 3153   2.200  12.036   1.968
33772SOL     OW 3154   8.089   5.052  11.933
33772SOL    HW1 3155   8.020   5.056  11.867
33772SOL    HW2 3156   8.050   5.089  12.012
33773SOL     OW 3157   2.852  13.279   9.745
33773SOL    HW1 3158   2.809  13.199   9.776
33773SOL    HW2 3159   2.796  13.350   9.776
33774SOL     OW 3160  10.677  14.078   2.078
33774SOL    HW1 3161  10.695  14.125   1.997
33774SOL    HW2 3162  10.757  14.027   2.094
33775SOL     OW 3163  11.983   3.533  13.839
33775SOL    HW1 3164  11.954   3.484  13.917
33775SOL    HW2 3165  12.073   3.504  13.825
33776SOL     OW 3166  12.826   1.472  13.819
33776SOL    HW1 3167  12.787   1.419  13.750
33776SOL    HW2 3168  12.868   1.409  13.878
33777SOL     OW 3169  10.711   7.161  11.259
33777SOL    HW1 3170  10.804   7.158  11.238
33777SOL    HW2 3171  10.708   7.162  11.355
33778SOL     OW 3172   0.754   9.352   0.265
33778SOL    HW1 3173   0.843   9.368   0.232
33778SOL    HW2 3174   0.711   9.303   0.194
33779SOL     OW 3175   3.633   3.982   6.037
33779SOL    HW1 3176   3.628   3.921   5.964
33779SOL    HW2 3177   3.561   4.043   6.024
33780SOL     OW 3178   4.244   2.749  14.135
33780SOL    HW1 3179   4.329   2.748  14.090
33780SOL    HW2 3180   4.259   2.700  14.216
33781SOL     OW 3181   3.292  13.509  13.839
33781SOL    HW1 3182   3.312  13.602  13.830
33781SOL    HW2 3183   3.377  13.465  13.826
33782SOL     OW 3184  12.088   2.333  13.467
33782SOL    HW1 3185  12.143   2.362  13.540
33782SOL    HW2 3186  12.102   2.238  13.463
33783SOL     OW 3187   0.855   7.081  13.726
33783SOL    HW1 3188   0.823   7.131  13.801
33783SOL    HW2 3189   0.834   7.135  13.650
33784SOL     OW 3190   7.580   2.372   3.620
33784SOL    HW1 3191   7.665   2.386   3.660
33784SOL    HW2 3192   7.524   2.439   3.659
33785SOL     OW 3193   2.134   6.481   3.323
33785SOL    HW1 3194   2.210   6.532   3.351
33785SOL    HW2 3195   2.071   6.546   3.292
33786SOL     OW 3196   3.969   1.091   4.973
33786SOL    HW1 3197   3.978   1.056   5.061
33786SOL    HW2 3198   3.990   1.017   4.916
33787SOL     OW 3199   7.038   4.985  12.998
33787SOL    HW1 3200   6.985   4.908  13.016
33787SOL    HW2 3201   6.984   5.039  12.941
33788SOL     OW 3202  12.894  12.267   7.790
33788SOL    HW1 3203  12.978  12.313   7.784
33788SOL    HW2 3204  12.900  12.196   7.726
33789SOL     OW 3205   7.404   4.578   1.829
33789SOL    HW1 3206   7.472   4.616   1.885
33789SOL    HW2 3207   7.429   4.486   1.819
33790SOL     OW 3208   0.842   1.909   3.322
33790SOL    HW1 3209   0.776   1.971   3.293
33790SOL    HW2 3210   0.798   1.856   3.387
33791SOL     OW 3211  11.753   3.517   1.124
33791SOL    HW1 3212  11.670   3.551   1.092
33791SOL    HW2 3213  11.730   3.464   1.200
33792SOL     OW 3214   1.269   5.648   9.164
33792SOL    HW1 3215   1.204   5.691   9.109
33792SOL    HW2 3216   1.328   5.719   9.191
33793SOL     OW 3217  10.019  13.355   2.766
33793SOL    HW1 3218  10.012  13.307   2.849
33793SOL    HW2 3219  10.094  13.413   2.779
33794SOL     OW 3220  12.999   4.635   0.827
33794SOL    HW1 3221  12.934   4.699   0.802
33794SOL    HW2 3222  13.080   4.664   0.785
33795SOL     OW 3223   7.395   1.782  12.140
33795SOL    HW1 3224   7.485   1.776  12.173
33795SOL    HW2 3225   7.344   1.727  12.198
33796SOL     OW 3226   8.692   7.497  10.015
33796SOL    HW1 3227   8.621   7.538   9.966
33796SOL    HW2 3228   8.687   7.535  10.102
33797SOL     OW 3229   2.443   5.311   3.291
33797SOL    HW1 3230   2.363   5.357   3.263
33797SOL    HW2 3231   2.514   5.372   3.272
33798SOL     OW 3232  12.137   7.269   4.339
33798SOL    HW1 3233  12.188   7.248   4.418
33798SOL    HW2 3234  12.199   7.258   4.267
33799SOL     OW 3235   7.819   9.599  13.984
33799SOL    HW1 3236   7.831   9.554  13.900
33799SOL    HW2 3237   7.781   9.683  13.960
33800SOL     OW 3238   8.591   8.634  12.672
33800SOL    HW1 3239   8.657   8.582  12.719
33800SOL    HW2 3240   8.634   8.717  12.655
33801SOL     OW 3241   3.393  12.803   4.178
33801SOL    HW1 3242   3.449  12.726   4.165
33801SOL    HW2 3243   3.394  12.817   4.272
33802SOL     OW 3244   8.907  14.012   9.318
33802SOL    HW1 3245   8.913  13.926   9.360
33802SOL    HW2 3246   8.928  13.996   9.226
33803SOL     OW 3247   2.512   4.715  13.684
33803SOL    HW1 3248   2.542   4.633  13.646
33803SOL    HW2 3249   2.495   4.694  13.776
33804SOL     OW 3250   5.562   1.800   1.514
33804SOL    HW1 3251   5.626   1.747   1.467
33804SOL    HW2 3252   5.583   1.890   1.490
33805SOL     OW 3253  12.222  10.900  13.377
33805SOL    HW1 3254  12.131  10.875  13.394
33805SOL    HW2 3255  12.228  10.990  13.409
33806SOL     OW 3256   1.065  13.632  10.999
33806SOL    HW1 3257   0.981  13.642  10.955
33806SOL    HW2 3258   1.095  13.545  10.974
33807SOL     OW 3259   1.104  12.297  13.048
33807SOL    HW1 3260   1.090  12.336  13.135
33807SOL    HW2 3261   1.199  12.287  13.041
33808SOL     OW 3262   2.352   5.443   7.198
33808SOL    HW1 3263   2.301   5.525   7.193
33808SOL    HW2 3264   2.434   5.468   7.240
33809SOL     OW 3265  11.730   4.755   7.448
33809SOL    HW1 3266  11.725   4.775   7.542
33809SOL    HW2 3267  11.639   4.759   7.418
33810SOL     OW 3268   8.070   2.173   0.100
33810SOL    HW1 3269   8.103   2.163   0.011
33810SOL    HW2 3270   8.111   2.254   0.132
33811SOL     OW 3271  14.204  11.126   3.430
33811SOL    HW1 3272  14.140  11.056   3.440
33811SOL    HW2 3273  14.249  11.130   3.514
33812SOL     OW 3274  11.345   9.224   4.644
33812SOL    HW1 3275  11.298   9.267   4.572
33812SOL    HW2 3276  11.368   9.295   4.704
33813SOL     OW 3277   5.636   9.421   6.938
33813SOL    HW1 3278   5.635   9.328   6.914
33813SOL    HW2 3279   5.565   9.460   6.886
33814SOL     OW 3280   0.421  11.408  12.692
33814SOL    HW1 3281   0.450  11.432  12.604
33814SOL    HW2 3282   0.496  11.363  12.731
33815SOL     OW 3283   6.027   8.836  12.543
33815SOL    HW1 3284   6.067   8.762  12.498
33815SOL    HW2 3285   6.029   8.907  12.479
33816SOL     OW 3286   4.364   4.049   9.419
33816SOL    HW1 3287   4.277   4.088   9.424
33816SOL    HW2 3288   4.360   3.991   9.343
33817SOL     OW 3289   8.522   2.237   5.927
33817SOL    HW1 3290   8.542   2.145   5.940
33817SOL    HW2 3291   8.546   2.279   6.009
33818SOL     OW 3292   1.871  10.265   8.645
33818SOL    HW1 3293   1.786  10.235   8.612
33818SOL    HW2 3294   1.916  10.185   8.672
33819SOL     OW 3295   3.770   8.147  13.152
33819SOL    HW1 3296   3.825   8.078  13.190
33819SOL    HW2 3297   3.810   8.166  13.068
33820SOL     OW 3298   7.506   9.640   0.754
33820SOL    HW1 3299   7.413   9.629   0.734
33820SOL    HW2 3300   7.529   9.561   0.803
33821SOL     OW 3301  12.293   8.548   9.345
33821SOL    HW1 3302  12.322   8.467   9.386
33821SOL    HW2 3303  12.307   8.533   9.251
33822SOL     OW 3304   8.695   6.288   2.502
33822SOL    HW1 3305   8.754   6.222   2.467
33822SOL    HW2 3306   8.735   6.372   2.478
33823SOL     OW 3307   8.145   5.880   9.479
33823SOL    HW1 3308   8.147   5.885   9.383
33823SOL    HW2 3309   8.108   5.794   9.498
33824SOL     OW 3310   8.891  10.205  12.357
33824SOL    HW1 3311   8.971  10.228  12.404
33824SOL    HW2 3312   8.822  10.258  12.398
33825SOL     OW 3313  12.880   6.784   3.408
33825SOL    HW1 3314  12.802   6.785   3.463
33825SOL    HW2 3315  12.863   6.716   3.343
33826SOL     OW 3316   4.155   3.454  11.124
33826SOL    HW1 3317   4.162   3.449  11.028
33826SOL    HW2 3318   4.061   3.455  11.140
33827SOL     OW 3319   8.654   5.348   2.865
33827SOL    HW1 3320   8.561   5.364   2.849
33827SOL    HW2 3321   8.699   5.422   2.824
33828SOL     OW 3322   0.986   4.814   7.713
33828SOL    HW1 3323   1.064   4.759   7.725
33828SOL    HW2 3324   1.005   4.894   7.762
33829SOL     OW 3325  12.350  14.618  14.562
33829SOL    HW1 3326  12.383  14.642  14.649
33829SOL    HW2 3327  12.264  14.579  14.578
33830SOL     OW 3328   9.580   0.876   4.904
33830SOL    HW1 3329   9.592   0.800   4.961
33830SOL    HW2 3330   9.553   0.839   4.820
33831SOL     OW 3331   4.366   1.132  11.431
33831SOL    HW1 3332   4.395   1.074  11.501
33831SOL    HW2 3333   4.423   1.110  11.357
33832SOL     OW 3334   3.541   3.753  10.833
33832SOL    HW1 3335   3.604   3.766  10.762
33832SOL    HW2 3336   3.474   3.820  10.818
33833SOL     OW 3337   9.699  13.545   4.341
33833SOL    HW1 3338   9.735  13.534   4.429
33833SOL    HW2 3339   9.656  13.461   4.323
33834SOL     OW 3340   5.634   8.191   2.388
33834SOL    HW1 3341   5.663   8.122   2.448
33834SOL    HW2 3342   5.569   8.240   2.438
33835SOL     OW 3343   4.863  13.088   9.520
33835SOL    HW1 3344   4.924  13.086   9.593
33835SOL    HW2 3345   4.832  12.998   9.512
33836SOL     OW 3346   1.643   2.104  12.540
33836SOL    HW1 3347   1.617   2.174  12.601
33836SOL    HW2 3348   1.674   2.033  12.597
33837SOL     OW 3349   3.002   2.694   6.952
33837SOL    HW1 3350   3.035   2.685   7.041
33837SOL    HW2 3351   3.015   2.786   6.930
33838SOL     OW 3352  13.821   8.595   8.740
33838SOL    HW1 3353  13.835   8.615   8.832
33838SOL    HW2 3354  13.793   8.678   8.701
33839SOL     OW 3355   2.079   8.911  14.172
33839SOL    HW1 3356   2.029   8.930  14.092
33839SOL    HW2 3357   2.117   8.994  14.197
33840SOL     OW 3358   0.205   7.414  11.653
33840SOL    HW1 3359   0.240   7.489  11.605
33840SOL    HW2 3360   0.280   7.380  11.703
33841SOL     OW 3361  12.084   4.543   7.228
33841SOL    HW1 3362  11.991   4.562   7.214
33841SOL    HW2 3363  12.130   4.610   7.178
33842SOL     OW 3364   3.903   7.993   0.392
33842SOL    HW1 3365   3.925   7.922   0.331
33842SOL    HW2 3366   3.979   7.999   0.450
33843SOL     OW 3367   5.838   7.402   4.234
33843SOL    HW1 3368   5.810   7.353   4.157
33843SOL    HW2 3369   5.894   7.340   4.283
33844SOL     OW 3370  13.607   2.055  10.273
33844SOL    HW1 3371  13.678   2.058  10.337
33844SOL    HW2 3372  13.605   1.964  10.244
33845SOL     OW 3373   3.714   3.492  10.718
33845SOL    HW1 3374   3.620   3.504  10.727
33845SOL    HW2 3375   3.727   3.397  10.722
33846SOL     OW 3376  13.995  11.280   2.823
33846SOL    HW1 3377  13.917  11.335   2.830
33846SOL    HW2 3378  13.965  11.201   2.778
33847SOL     OW 3379  14.006   5.359  10.439
33847SOL    HW1 3380  14.016   5.300  10.513
33847SOL    HW2 3381  14.067   5.431  10.457
33848SOL     OW 3382  10.296   0.636   9.275
33848SOL    HW1 3383  10.351   0.559   9.265
33848SOL    HW2 3384  10.215   0.603   9.315
33849SOL     OW 3385   4.886   3.802   1.448
33849SOL    HW1 3386   4.924   3.716   1.467
33849SOL    HW2 3387   4.901   3.853   1.528
33850SOL     OW 3388   4.101  11.463   0.815
33850SOL    HW1 3389   4.038  11.420   0.871
33850SOL    HW2 3390   4.049  11.496   0.741
33851SOL     OW 3391   6.243  11.578   0.718
33851SOL    HW1 3392   6.228  11.615   0.805
33851SOL    HW2 3393   6.222  11.485   0.728
33852SOL     OW 3394   8.758   8.996   8.915
33852SOL    HW1 3395   8.670   9.032   8.927
33852SOL    HW2 3396   8.778   8.954   8.999
33853SOL     OW 3397  13.643   0.131   0.577
33853SOL    HW1 3398  13.629   0.102   0.487
33853SOL    HW2 3399  13.709   0.072   0.612
33854SOL     OW 3400   4.543  13.281   0.076
33854SOL    HW1 3401   4.620  13.289   0.133
33854SOL    HW2 3402   4.578  13.243  14.878
33855SOL     OW 3403  12.719   7.524   5.920
33855SOL    HW1 3404  12.731   7.431   5.900
33855SOL    HW2 3405  12.655   7.554   5.856
33856SOL     OW 3406   3.825   9.753   4.003
33856SOL    HW1 3407   3.892   9.812   3.968
33856SOL    HW2 3408   3.743   9.786   3.965
33857SOL     OW 3409  13.558  11.779  11.538
33857SOL    HW1 3410  13.603  11.850  11.492
33857SOL    HW2 3411  13.625  11.740  11.595
33858SOL     OW 3412  11.707   7.916   0.538
33858SOL    HW1 3413  11.615   7.902   0.516
33858SOL    HW2 3414  11.716   7.880   0.627
33859SOL     OW 3415   3.205  10.607   4.021
33859SOL    HW1 3416   3.126  10.557   4.001
33859SOL    HW2 3417   3.263  10.543   4.063
33860SOL     OW 3418  11.009   2.508   8.364
33860SOL    HW1 3419  11.070   2.441   8.333
33860SOL    HW2 3420  10.928   2.460   8.380
33861SOL     OW 3421  11.533   5.116   5.798
33861SOL    HW1 3422  11.449   5.146   5.763
33861SOL    HW2 3423  11.598   5.149   5.736
33862SOL     OW 3424  13.756  10.854  13.850
33862SOL    HW1 3425  13.849  10.867  13.866
33862SOL    HW2 3426  13.719  10.834  13.936
33863SOL     OW 3427   2.854   7.927  12.227
33863SOL    HW1 3428   2.893   7.911  12.313
33863SOL    HW2 3429   2.787   7.993  12.242
33864SOL     OW 3430   3.875   4.638  11.123
33864SOL    HW1 3431   3.830   4.715  11.159
33864SOL    HW2 3432   3.932   4.609  11.194
33865SOL     OW 3433   9.257   0.159  10.476
33865SOL    HW1 3434   9.195   0.194  10.540
33865SOL    HW2 3435   9.205   0.100  10.422
33866SOL     OW 3436   5.474   7.723   3.362
33866SOL    HW1 3437   5.405   7.787   3.377
33866SOL    HW2 3438   5.550   7.775   3.334
33867SOL     OW 3439   4.720   6.412   1.936
33867SOL    HW1 3440   4.733   6.488   1.993
33867SOL    HW2 3441   4.721   6.447   1.847
33868SOL     OW 3442   4.524  14.166  13.603
33868SOL    HW1 3443   4.554  14.257  13.609
33868SOL    HW2 3444   4.506  14.152  13.510
33869SOL     OW 3445   8.976   1.410   3.852
33869SOL    HW1 3446   9.017   1.387   3.936
33869SOL    HW2 3447   8.907   1.345   3.840
33870SOL     OW 3448   3.096   0.813  11.135
33870SOL    HW1 3449   3.008   0.777  11.136
33870SOL    HW2 3450   3.148   0.753  11.188
33871SOL     OW 3451   1.894   2.157   5.376
33871SOL    HW1 3452   1.984   2.124   5.372
33871SOL    HW2 3453   1.895   2.235   5.321
33872SOL     OW 3454   0.452  14.346   2.120
33872SOL    HW1 3455   0.391  14.327   2.049
33872SOL    HW2 3456   0.396  14.360   2.196
33873SOL     OW 3457   9.426   5.002  11.998
33873SOL    HW1 3458   9.381   4.966  11.921
33873SOL    HW2 3459   9.401   4.944  12.070
33874SOL     OW 3460  10.894   5.759  13.051
33874SOL    HW1 3461  10.964   5.782  12.990
33874SOL    HW2 3462  10.936   5.754  13.136
33875SOL     OW 3463  10.284  11.695   0.955
33875SOL    HW1 3464  10.248  11.753   0.888
33875SOL    HW2 3465  10.347  11.750   1.002
33876SOL     OW 3466   5.926  14.274  11.840
33876SOL    HW1 3467   5.906  14.215  11.768
33876SOL    HW2 3468   5.883  14.357  11.817
33877SOL     OW 3469  12.594  10.011   5.512
33877SOL    HW1 3470  12.563   9.947   5.447
33877SOL    HW2 3471  12.531  10.083   5.507
33878SOL     OW 3472   0.929   9.907   1.008
33878SOL    HW1 3473   0.991   9.908   0.935
33878SOL    HW2 3474   0.956   9.980   1.063
33879SOL     OW 3475   3.148   9.532   1.404
33879SOL    HW1 3476   3.112   9.478   1.474
33879SOL    HW2 3477   3.193   9.603   1.449
33880SOL     OW 3478  11.671  10.733   0.585
33880SOL    HW1 3479  11.669  10.822   0.620
33880SOL    HW2 3480  11.763  10.707   0.592
33881SOL     OW 3481  13.702   4.411   3.177
33881SOL    HW1 3482  13.636   4.466   3.135
33881SOL    HW2 3483  13.659   4.326   3.188
33882SOL     OW 3484   7.266  11.246  13.908
33882SOL    HW1 3485   7.239  11.208  13.825
33882SOL    HW2 3486   7.360  11.230  13.913
33883SOL     OW 3487  11.139  10.356   3.220
33883SOL    HW1 3488  11.044  10.367   3.210
33883SOL    HW2 3489  11.164  10.422   3.284
33884SOL     OW 3490   0.952   6.091   2.782
33884SOL    HW1 3491   1.008   6.162   2.751
33884SOL    HW2 3492   0.998   6.011   2.757
33885SOL     OW 3493  12.418  11.637   1.167
33885SOL    HW1 3494  12.366  11.678   1.236
33885SOL    HW2 3495  12.477  11.578   1.214
33886SOL     OW 3496  13.634  14.358  13.941
33886SOL    HW1 3497  13.646  14.368  14.035
33886SOL    HW2 3498  13.688  14.282  13.918
33887SOL     OW 3499   4.802   5.646   6.153
33887SOL    HW1 3500   4.721   5.682   6.117
33887SOL    HW2 3501   4.779   5.620   6.242
33888SOL     OW 3502   1.181  14.633  12.006
33888SOL    HW1 3503   1.184  14.728  11.995
33888SOL    HW2 3504   1.096  14.608  11.969
33889SOL     OW 3505  11.644   3.421  13.347
33889SOL    HW1 3506  11.596   3.503  13.330
33889SOL    HW2 3507  11.727   3.432  13.300
33890SOL     OW 3508   7.892  10.503  13.573
33890SOL    HW1 3509   7.800  10.481  13.557
33890SOL    HW2 3510   7.939  10.422  13.553
33891SOL     OW 3511   0.395   0.160   5.588
33891SOL    HW1 3512   0.438   0.244   5.573
33891SOL    HW2 3513   0.309   0.182   5.623
33892SOL     OW 3514  13.822   5.646  11.582
33892SOL    HW1 3515  13.743   5.629  11.633
33892SOL    HW2 3516  13.792   5.650  11.492
33893SOL     OW 3517   3.258  11.246   3.304
33893SOL    HW1 3518   3.253  11.261   3.210
33893SOL    HW2 3519   3.339  11.289   3.331
33894SOL     OW 3520   8.376  13.614   1.575
33894SOL    HW1 3521   8.357  13.650   1.661
33894SOL    HW2 3522   8.430  13.680   1.532
33895SOL     OW 3523   6.085   6.900  12.714
33895SOL    HW1 3524   6.002   6.875  12.754
33895SOL    HW2 3525   6.142   6.924  12.787
33896SOL     OW 3526  14.090   7.454  12.660
33896SOL    HW1 3527  14.112   7.517  12.729
33896SOL    HW2 3528  14.019   7.496  12.611
33897SOL     OW 3529  14.248   2.794  11.555
33897SOL    HW1 3530  14.232   2.865  11.617
33897SOL    HW2 3531  14.186   2.811  11.484
33898SOL     OW 3532  12.190   7.323   5.046
33898SOL    HW1 3533  12.094   7.324   5.051
33898SOL    HW2 3534  12.218   7.383   5.115
33899SOL     OW 3535  13.207  10.189   7.933
33899SOL    HW1 3536  13.269  10.259   7.950
33899SOL    HW2 3537  13.262  10.113   7.913
33900SOL     OW 3538   1.587   6.838   9.493
33900SOL    HW1 3539   1.574   6.787   9.413
33900SOL    HW2 3540   1.498   6.865   9.519
33901SOL     OW 3541   3.992   3.668   0.632
33901SOL    HW1 3542   3.959   3.728   0.565
33901SOL    HW2 3543   3.926   3.598   0.636
33902SOL     OW 3544   4.314  11.602   3.611
33902SOL    HW1 3545   4.262  11.643   3.680
33902SOL    HW2 3546   4.263  11.612   3.531
33903SOL     OW 3547   0.077   4.986   2.264
33903SOL    HW1 3548   0.063   5.028   2.349
33903SOL    HW2 3549   0.063   4.893   2.279
33904SOL     OW 3550   9.325   6.723  14.320
33904SOL    HW1 3551   9.317   6.687  14.232
33904SOL    HW2 3552   9.417   6.709  14.344
33905SOL     OW 3553   8.770  14.491  14.014
33905SOL    HW1 3554   8.803  14.562  13.958
33905SOL    HW2 3555   8.809  14.509  14.100
33906SOL     OW 3556  13.994   4.667  13.756
33906SOL    HW1 3557  13.939   4.726  13.808
33906SOL    HW2 3558  14.066   4.644  13.815
33907SOL     OW 3559   2.076   4.961   9.570
33907SOL    HW1 3560   2.034   4.922   9.647
33907SOL    HW2 3561   2.038   5.049   9.564
33908SOL     OW 3562  10.677  13.009   4.524
33908SOL    HW1 3563  10.771  13.013   4.542
33908SOL    HW2 3564  10.671  12.977   4.434
33909SOL     OW 3565   7.463  11.488   1.247
33909SOL    HW1 3566   7.543  11.437   1.263
33909SOL    HW2 3567   7.493  11.564   1.197
33910SOL     OW 3568  12.961   1.245  14.433
33910SOL    HW1 3569  12.968   1.240  14.528
33910SOL    HW2 3570  12.870   1.270  14.416
33911SOL     OW 3571   5.414  14.740   8.013
33911SOL    HW1 3572   5.387  14.831   8.006
33911SOL    HW2 3573   5.460  14.723   7.931
33912SOL     OW 3574   9.215   5.338   1.761
33912SOL    HW1 3575   9.282   5.403   1.739
33912SOL    HW2 3576   9.198   5.291   1.680
33913SOL     OW 3577   1.443   5.639  10.048
33913SOL    HW1 3578   1.443   5.653  10.143
33913SOL    HW2 3579   1.521   5.587  10.031
33914SOL     OW 3580   1.442  13.176  10.248
33914SOL    HW1 3581   1.480  13.117  10.183
33914SOL    HW2 3582   1.466  13.264  10.218
33915SOL     OW 3583  12.666  14.155   3.520
33915SOL    HW1 3584  12.587  14.181   3.474
33915SOL    HW2 3585  12.677  14.062   3.501
33916SOL     OW 3586  14.143   7.965   6.956
33916SOL    HW1 3587  14.072   8.020   6.924
33916SOL    HW2 3588  14.192   8.021   7.016
33917SOL     OW 3589   4.929   4.510  14.609
33917SOL    HW1 3590   4.884   4.492  14.691
33917SOL    HW2 3591   4.968   4.426  14.585
33918SOL     OW 3592  13.550   2.428   7.005
33918SOL    HW1 3593  13.588   2.404   6.921
33918SOL    HW2 3594  13.477   2.366   7.017
33919SOL     OW 3595   4.004  14.531   7.582
33919SOL    HW1 3596   3.916  14.565   7.595
33919SOL    HW2 3597   3.992  14.436   7.576
33920SOL     OW 3598   1.162  13.572  13.094
33920SOL    HW1 3599   1.195  13.483  13.095
33920SOL    HW2 3600   1.082  13.569  13.147
33921SOL     OW 3601  14.675   4.745  13.269
33921SOL    HW1 3602  14.727   4.671  13.300
33921SOL    HW2 3603  14.738   4.816  13.258
33922SOL     OW 3604   8.166   7.561   8.028
33922SOL    HW1 3605   8.202   7.612   8.100
33922SOL    HW2 3606   8.193   7.608   7.949
33923SOL     OW 3607   2.809   5.341   5.663
33923SOL    HW1 3608   2.798   5.339   5.759
33923SOL    HW2 3609   2.766   5.421   5.636
33924SOL     OW 3610   1.893   3.307  13.491
33924SOL    HW1 3611   1.862   3.363  13.562
33924SOL    HW2 3612   1.858   3.221  13.510
33925SOL     OW 3613  13.524   1.710   8.906
33925SOL    HW1 3614  13.598   1.763   8.879
33925SOL    HW2 3615  13.461   1.718   8.835
33926SOL     OW 3616   4.683   1.403  14.128
33926SOL    HW1 3617   4.603   1.440  14.165
33926SOL    HW2 3618   4.657   1.371  14.041
33927SOL     OW 3619   3.100   0.013   2.724
33927SOL    HW1 3620   3.168   0.069   2.686
33927SOL    HW2 3621   3.147  14.818   2.755
33928SOL     OW 3622   3.823   0.555  14.840
33928SOL    HW1 3623   3.728   0.559  14.828
33928SOL    HW2 3624   3.837   0.477   0.010
33929SOL     OW 3625  14.349   3.035   4.765
33929SOL    HW1 3626  14.315   3.110   4.717
33929SOL    HW2 3627  14.404   3.073   4.834
33930SOL     OW 3628   8.030  11.048   6.397
33930SOL    HW1 3629   8.037  10.991   6.321
33930SOL    HW2 3630   7.938  11.074   6.399
33931SOL     OW 3631   2.287   9.465   0.995
33931SOL    HW1 3632   2.326   9.379   0.981
33931SOL    HW2 3633   2.340   9.504   1.064
33932SOL     OW 3634   7.908   2.138   7.740
33932SOL    HW1 3635   7.936   2.047   7.741
33932SOL    HW2 3636   7.918   2.166   7.649
33933SOL     OW 3637  10.535  14.121   4.631
33933SOL    HW1 3638  10.522  14.117   4.536
33933SOL    HW2 3639  10.485  14.047   4.665
33934SOL     OW 3640  11.760   9.942   4.406
33934SOL    HW1 3641  11.820  10.011   4.435
33934SOL    HW2 3642  11.776   9.870   4.467
33935SOL     OW 3643  14.068  14.336   2.315
33935SOL    HW1 3644  14.137  14.376   2.262
33935SOL    HW2 3645  14.049  14.253   2.271
33936SOL     OW 3646   3.208  11.583  12.376
33936SOL    HW1 3647   3.211  11.490  12.353
33936SOL    HW2 3648   3.144  11.620  12.315
33937SOL     OW 3649   6.388   9.219  10.097
33937SOL    HW1 3650   6.383   9.172  10.014
33937SOL    HW2 3651   6.446   9.293  10.080
33938SOL     OW 3652  14.146   1.773  10.012
33938SOL    HW1 3653  14.223   1.747   9.961
33938SOL    HW2 3654  14.081   1.797   9.945
33939SOL     OW 3655   6.595   2.861   5.482
33939SOL    HW1 3656   6.508   2.821   5.483
33939SOL    HW2 3657   6.640   2.820   5.408
33940SOL     OW 3658   0.822  14.094   8.118
33940SOL    HW1 3659   0.740  14.047   8.136
33940SOL    HW2 3660   0.836  14.148   8.195
33941SOL     OW 3661   3.565  13.262   6.730
33941SOL    HW1 3662   3.490  13.203   6.742
33941SOL    HW2 3663   3.606  13.233   6.649
33942SOL     OW 3664   2.345  11.805  10.947
33942SOL    HW1 3665   2.411  11.738  10.964
33942SOL    HW2 3666   2.340  11.856  11.028
33943SOL     OW 3667  12.925  13.961  14.509
33943SOL    HW1 3668  13.012  13.922  14.495
33943SOL    HW2 3669  12.943  14.044  14.553
33944SOL     OW 3670   8.610   6.829  14.753
33944SOL    HW1 3671   8.665   6.904  14.730
33944SOL    HW2 3672   8.537   6.832  14.691
33945SOL     OW 3673   6.549   3.390   2.885
33945SOL    HW1 3674   6.641   3.396   2.910
33945SOL    HW2 3675   6.505   3.452   2.942
33946SOL     OW 3676  14.267   5.948   0.754
33946SOL    HW1 3677  14.224   5.919   0.674
33946SOL    HW2 3678  14.200   5.939   0.822
33947SOL     OW 3679  13.283   0.657   4.092
33947SOL    HW1 3680  13.231   0.577   4.103
33947SOL    HW2 3681  13.220   0.728   4.106
33948SOL     OW 3682   3.119   0.276   6.610
33948SOL    HW1 3683   3.078   0.328   6.680
33948SOL    HW2 3684   3.211   0.272   6.634
33949SOL     OW 3685  10.116  11.931  10.086
33949SOL    HW1 3686  10.174  11.869  10.041
33949SOL    HW2 3687  10.145  12.017  10.056
33950SOL     OW 3688   8.989  14.021   8.366
33950SOL    HW1 3689   9.034  14.029   8.451
33950SOL    HW2 3690   8.918  14.084   8.372
33951SOL     OW 3691   7.543  13.722   7.549
33951SOL    HW1 3692   7.514  13.806   7.513
33951SOL    HW2 3693   7.462  13.680   7.578
33952SOL     OW 3694   3.799   7.616   2.332
33952SOL    HW1 3695   3.704   7.620   2.339
33952SOL    HW2 3696   3.817   7.620   2.238
33953SOL     OW 3697   7.383   0.229   0.918
33953SOL    HW1 3698   7.341   0.222   1.004
33953SOL    HW2 3699   7.341   0.305   0.878
33954SOL     OW 3700  13.853   6.416   0.614
33954SOL    HW1 3701  13.859   6.505   0.580
33954SOL    HW2 3702  13.884   6.361   0.541
33955SOL     OW 3703   6.717   5.032   7.785
33955SOL    HW1 3704   6.792   5.068   7.832
33955SOL    HW2 3705   6.741   5.037   7.693
33956SOL     OW 3706   5.558   8.733   7.212
33956SOL    HW1 3707   5.470   8.768   7.222
33956SOL    HW2 3708   5.556   8.685   7.129
33957SOL     OW 3709   9.054  10.665  12.793
33957SOL    HW1 3710   9.092  10.752  12.805
33957SOL    HW2 3711   9.091  10.613  12.865
33958SOL     OW 3712   5.060   2.977   9.797
33958SOL    HW1 3713   5.035   2.911   9.862
33958SOL    HW2 3714   4.988   2.978   9.735
33959SOL     OW 3715   1.869  11.453  14.586
33959SOL    HW1 3716   1.904  11.367  14.609
33959SOL    HW2 3717   1.888  11.463  14.493
33960SOL     OW 3718   7.591  12.644  13.508
33960SOL    HW1 3719   7.544  12.624  13.427
33960SOL    HW2 3720   7.523  12.646  13.576
33961SOL     OW 3721  14.248   1.887   5.927
33961SOL    HW1 3722  14.259   1.937   6.008
33961SOL    HW2 3723  14.211   1.949   5.865
33962SOL     OW 3724   9.410   5.933   2.636
33962SOL    HW1 3725   9.346   5.930   2.566
33962SOL    HW2 3726   9.358   5.938   2.716
33963SOL     OW 3727  11.758  13.915   0.754
33963SOL    HW1 3728  11.789  13.861   0.681
33963SOL    HW2 3729  11.749  13.854   0.827
33964SOL     OW 3730   2.383  12.838   4.192
33964SOL    HW1 3731   2.416  12.927   4.175
33964SOL    HW2 3732   2.460  12.788   4.216
33965SOL     OW 3733   4.562   9.531   3.236
33965SOL    HW1 3734   4.646   9.520   3.282
33965SOL    HW2 3735   4.500   9.481   3.288
33966SOL     OW 3736   2.768  13.213  11.905
33966SOL    HW1 3737   2.808  13.136  11.947
33966SOL    HW2 3738   2.675  13.193  11.901
33967SOL     OW 3739  14.178  10.757   6.977
33967SOL    HW1 3740  14.195  10.662   6.975
33967SOL    HW2 3741  14.163  10.777   7.069
33968SOL     OW 3742  14.750  12.156   2.809
33968SOL    HW1 3743  14.655  12.148   2.811
33968SOL    HW2 3744  14.770  12.182   2.718
33969SOL     OW 3745  10.911   6.200  12.954
33969SOL    HW1 3746  10.942   6.194  12.863
33969SOL    HW2 3747  10.839   6.137  12.959
33970SOL     OW 3748   9.298   8.629  12.424
33970SOL    HW1 3749   9.296   8.544  12.381
33970SOL    HW2 3750   9.371   8.675  12.383
33971SOL     OW 3751   9.021   8.456   0.407
33971SOL    HW1 3752   9.014   8.549   0.386
33971SOL    HW2 3753   8.988   8.411   0.328
33972SOL     OW 3754  10.938   9.635   7.977
33972SOL    HW1 3755  10.982   9.586   7.908
33972SOL    HW2 3756  10.846   9.637   7.951
33973SOL     OW 3757   3.524   9.096   7.375
33973SOL    HW1 3758   3.435   9.061   7.384
33973SOL    HW2 3759   3.549   9.073   7.286
33974SOL     OW 3760  12.734   9.487   9.327
33974SOL    HW1 3761  12.678   9.522   9.258
33974SOL    HW2 3762  12.823   9.507   9.298
33975SOL     OW 3763   6.461   0.842   7.421
33975SOL    HW1 3764   6.371   0.830   7.453
33975SOL    HW2 3765   6.453   0.909   7.353
33976SOL     OW 3766   4.711   6.790   5.289
33976SOL    HW1 3767   4.716   6.841   5.369
33976SOL    HW2 3768   4.622   6.755   5.288
33977SOL     OW 3769   4.511   2.915   3.888
33977SOL    HW1 3770   4.556   2.875   3.813
33977SOL    HW2 3771   4.440   2.966   3.848
33978SOL     OW 3772   4.630  11.941  13.161
33978SOL    HW1 3773   4.643  11.851  13.191
33978SOL    HW2 3774   4.707  11.988  13.195
33979SOL     OW 3775  10.130   0.973   6.625
33979SOL    HW1 3776  10.075   1.050   6.640
33979SOL    HW2 3777  10.069   0.903   6.603
33980SOL     OW 3778  12.533   3.884   2.947
33980SOL    HW1 3779  12.605   3.833   2.985
33980SOL    HW2 3780  12.534   3.861   2.855
33981SOL     OW 3781   3.022   9.762   3.123
33981SOL    HW1 3782   3.028   9.821   3.198
33981SOL    HW2 3783   2.938   9.717   3.133
33982SOL     OW 3784  14.737   5.924   3.799
33982SOL    HW1 3785  14.665   5.894   3.744
33982SOL    HW2 3786  14.783   5.989   3.745
33983SOL     OW 3787   5.601   6.537   9.816
33983SOL    HW1 3788   5.644   6.527   9.731
33983SOL    HW2 3789   5.558   6.622   9.812
33984SOL     OW 3790   5.996   7.517   1.667
33984SOL    HW1 3791   5.978   7.598   1.714
33984SOL    HW2 3792   6.064   7.474   1.719
33985SOL     OW 3793  10.069  10.824   5.385
33985SOL    HW1 3794  10.146  10.786   5.428
33985SOL    HW2 3795  10.073  10.793   5.295
33986SOL     OW 3796   7.514   3.686  10.207
33986SOL    HW1 3797   7.505   3.645  10.121
33986SOL    HW2 3798   7.547   3.617  10.264
33987SOL     OW 3799   6.280   9.006   0.727
33987SOL    HW1 3800   6.261   9.038   0.639
33987SOL    HW2 3801   6.290   8.911   0.717
33988SOL     OW 3802   5.317   9.538  12.714
33988SOL    HW1 3803   5.374   9.595  12.663
33988SOL    HW2 3804   5.351   9.544  12.803
33989SOL     OW 3805  11.380   1.485  14.882
33989SOL    HW1 3806  11.285   1.474  14.876
33989SOL    HW2 3807  11.401   1.548  14.812
33990SOL     OW 3808   0.678  14.152  12.273
33990SOL    HW1 3809   0.601  14.120  12.318
33990SOL    HW2 3810   0.672  14.248  12.281
33991SOL     OW 3811   2.749   9.121  14.586
33991SOL    HW1 3812   2.700   9.105  14.667
33991SOL    HW2 3813   2.717   9.053  14.526
33992SOL     OW 3814   8.559   3.385   1.208
33992SOL    HW1 3815   8.587   3.424   1.125
33992SOL    HW2 3816   8.526   3.299   1.184
33993SOL     OW 3817   7.021   4.882   6.126
33993SOL    HW1 3818   7.088   4.945   6.099
33993SOL    HW2 3819   7.050   4.851   6.212
33994SOL     OW 3820   7.032   2.631   3.136
33994SOL    HW1 3821   7.026   2.594   3.047
33994SOL    HW2 3822   6.943   2.659   3.156
33995SOL     OW 3823   2.946  12.353   3.714
33995SOL    HW1 3824   2.963  12.300   3.792
33995SOL    HW2 3825   3.033  12.371   3.678
33996SOL     OW 3826  10.890   0.746   1.443
33996SOL    HW1 3827  10.856   0.815   1.499
33996SOL    HW2 3828  10.847   0.759   1.359
33997SOL     OW 3829  13.045  14.553   4.655
33997SOL    HW1 3830  13.085  14.640   4.658
33997SOL    HW2 3831  13.107  14.500   4.605
33998SOL     OW 3832   6.644   9.758   7.940
33998SOL    HW1 3833   6.615   9.816   8.011
33998SOL    HW2 3834   6.640   9.670   7.977
33999SOL     OW 3835   3.678   8.863   9.935
33999SOL    HW1 3836   3.587   8.888   9.950
33999SOL    HW2 3837   3.674   8.806   9.858
34000SOL     OW 3838  10.681   2.904   5.698
34000SOL    HW1 3839  10.606   2.958   5.725
34000SOL    HW2 3840  10.757   2.948   5.735
34001SOL     OW 3841  13.901  10.522   6.389
34001SOL    HW1 3842  13.824  10.505   6.443
34001SOL    HW2 3843  13.957  10.577   6.445
34002SOL     OW 3844   8.707  13.177  11.166
34002SOL    HW1 3845   8.797  13.197  11.192
34002SOL    HW2 3846   8.716  13.105  11.104
34003SOL     OW 3847  10.534   7.010   0.679
34003SOL    HW1 3848  10.474   7.084   0.682
34003SOL    HW2 3849  10.550   6.988   0.771
34004SOL     OW 3850   7.754   7.361   2.231
34004SOL    HW1 3851   7.720   7.411   2.305
34004SOL    HW2 3852   7.744   7.269   2.257
34005SOL     OW 3853   0.415   5.917   2.953
34005SOL    HW1 3854   0.463   5.969   2.888
34005SOL    HW2 3855   0.406   5.831   2.913
34006SOL     OW 3856   0.493   4.641   0.114
34006SOL    HW1 3857   0.468   4.652   0.022
34006SOL    HW2 3858   0.548   4.717   0.133
34007SOL     OW 3859   2.057  13.048   9.507
34007SOL    HW1 3860   2.144  13.086   9.493
34007SOL    HW2 3861   2.055  12.972   9.448
34008SOL     OW 3862  12.612   3.372   3.240
34008SOL    HW1 3863  12.552   3.300   3.258
34008SOL    HW2 3864  12.689   3.330   3.201
34009SOL     OW 3865  14.558   8.442  10.481
34009SOL    HW1 3866  14.539   8.486  10.399
34009SOL    HW2 3867  14.648   8.467  10.502
34010SOL     OW 3868   1.722  11.131  10.783
34010SOL    HW1 3869   1.628  11.118  10.768
34010SOL    HW2 3870   1.741  11.080  10.861
34011SOL     OW 3871   9.739   9.075  13.467
34011SOL    HW1 3872   9.759   9.081  13.373
34011SOL    HW2 3873   9.721   9.165  13.493
34012SOL     OW 3874   8.607   1.616  11.037
34012SOL    HW1 3875   8.540   1.652  11.095
34012SOL    HW2 3876   8.573   1.531  11.009
34013SOL     OW 3877   0.703  10.340   3.524
34013SOL    HW1 3878   0.760  10.377   3.456
34013SOL    HW2 3879   0.698  10.408   3.591
34014SOL     OW 3880   0.383   2.786   2.747
34014SOL    HW1 3881   0.290   2.807   2.733
34014SOL    HW2 3882   0.407   2.734   2.671
34015SOL     OW 3883   5.955   8.922   3.033
34015SOL    HW1 3884   5.985   8.910   2.942
34015SOL    HW2 3885   5.869   8.880   3.035
34016SOL     OW 3886   8.687   0.269   1.263
34016SOL    HW1 3887   8.737   0.326   1.204
34016SOL    HW2 3888   8.752   0.209   1.299
34017SOL     OW 3889  10.092  10.656   8.679
34017SOL    HW1 3890  10.135  10.654   8.765
34017SOL    HW2 3891   9.999  10.646   8.699
34018SOL     OW 3892   5.637   4.373   0.007
34018SOL    HW1 3893   5.675   4.421   0.081
34018SOL    HW2 3894   5.657   4.282   0.025
34019SOL     OW 3895   4.057   2.233  11.602
34019SOL    HW1 3896   4.080   2.141  11.588
34019SOL    HW2 3897   4.076   2.248  11.695
34020SOL     OW 3898   7.356   6.150  14.652
34020SOL    HW1 3899   7.355   6.172  14.559
34020SOL    HW2 3900   7.339   6.234  14.696
34021SOL     OW 3901   6.223  14.732   6.485
34021SOL    HW1 3902   6.200  14.665   6.421
34021SOL    HW2 3903   6.260  14.683   6.559
34022SOL     OW 3904   4.057   2.517   5.420
34022SOL    HW1 3905   3.978   2.490   5.467
34022SOL    HW2 3906   4.068   2.453   5.350
34023SOL     OW 3907   1.395  11.994   7.364
34023SOL    HW1 3908   1.483  11.982   7.328
34023SOL    HW2 3909   1.409  12.040   7.447
34024SOL     OW 3910  14.417  13.873  10.782
34024SOL    HW1 3911  14.491  13.932  10.767
34024SOL    HW2 3912  14.441  13.825  10.861
34025SOL     OW 3913  13.872   9.325   7.710
34025SOL    HW1 3914  13.876   9.244   7.658
34025SOL    HW2 3915  13.941   9.380   7.672
34026SOL     OW 3916   1.151   3.499  14.847
34026SOL    HW1 3917   1.081   3.560  14.872
34026SOL    HW2 3918   1.230   3.553  14.845
34027SOL     OW 3919   3.360  11.481   6.612
34027SOL    HW1 3920   3.303  11.537   6.559
34027SOL    HW2 3921   3.310  11.400   6.623
34028SOL     OW 3922   0.735   1.841   0.684
34028SOL    HW1 3923   0.814   1.793   0.709
34028SOL    HW2 3924   0.680   1.839   0.762
34029SOL     OW 3925   9.147   1.090   5.456
34029SOL    HW1 3926   9.232   1.134   5.451
34029SOL    HW2 3927   9.131   1.060   5.366
34030SOL     OW 3928   0.122  11.985   9.717
34030SOL    HW1 3929   0.047  12.015   9.665
34030SOL    HW2 3930   0.121  12.042   9.794
34031SOL     OW 3931   3.954   9.675   7.479
34031SOL    HW1 3932   4.001   9.599   7.515
34031SOL    HW2 3933   3.874   9.681   7.532
34032SOL     OW 3934   3.896   8.715   6.758
34032SOL    HW1 3935   3.805   8.684   6.758
34032SOL    HW2 3936   3.898   8.784   6.691
34033SOL     OW 3937  12.344   2.216  12.445
34033SOL    HW1 3938  12.303   2.296  12.412
34033SOL    HW2 3939  12.271   2.160  12.470
34034SOL     OW 3940   0.616   0.751  13.349
34034SOL    HW1 3941   0.589   0.739  13.258
34034SOL    HW2 3942   0.580   0.836  13.373
34035SOL     OW 3943   2.153   9.878  12.758
34035SOL    HW1 3944   2.203   9.921  12.827
34035SOL    HW2 3945   2.161   9.784  12.778
34036SOL     OW 3946  13.674  13.920   3.769
34036SOL    HW1 3947  13.698  13.841   3.818
34036SOL    HW2 3948  13.624  13.889   3.694
34037SOL     OW 3949   2.020   1.221  14.290
34037SOL    HW1 3950   1.942   1.187  14.335
34037SOL    HW2 3951   2.053   1.289  14.348
34038SOL     OW 3952   7.259   8.585   2.698
34038SOL    HW1 3953   7.205   8.621   2.769
34038SOL    HW2 3954   7.262   8.491   2.715
34039SOL     OW 3955   7.907   4.951   9.584
34039SOL    HW1 3956   7.918   4.931   9.676
34039SOL    HW2 3957   7.936   4.872   9.538
34040SOL     OW 3958  12.968   0.227   7.333
34040SOL    HW1 3959  12.918   0.223   7.415
34040SOL    HW2 3960  13.017   0.309   7.339
34041SOL     OW 3961   5.407  11.688   3.004
34041SOL    HW1 3962   5.336  11.625   3.019
34041SOL    HW2 3963   5.365  11.773   3.008
34042SOL     OW 3964  14.602   3.762   5.665
34042SOL    HW1 3965  14.670   3.730   5.724
34042SOL    HW2 3966  14.578   3.686   5.612
34043SOL     OW 3967   4.040  11.513  10.123
34043SOL    HW1 3968   3.962  11.532  10.176
34043SOL    HW2 3969   4.111  11.558  10.169
34044SOL     OW 3970   4.247   1.348   0.888
34044SOL    HW1 3971   4.293   1.421   0.929
34044SOL    HW2 3972   4.316   1.295   0.848
34045SOL     OW 3973  12.502   9.758   7.349
34045SOL    HW1 3974  12.583   9.745   7.399
34045SOL    HW2 3975  12.459   9.831   7.392
34046SOL     OW 3976   9.383   4.867   0.885
34046SOL    HW1 3977   9.366   4.841   0.975
34046SOL    HW2 3978   9.375   4.786   0.835
34047SOL     OW 3979   5.385  13.244   1.527
34047SOL    HW1 3980   5.294  13.252   1.498
34047SOL    HW2 3981   5.422  13.332   1.514
34048SOL     OW 3982  13.131  14.488   6.930
34048SOL    HW1 3983  13.219  14.468   6.899
34048SOL    HW2 3984  13.136  14.579   6.959
34049SOL     OW 3985  11.982   6.093   1.344
34049SOL    HW1 3986  12.041   6.083   1.270
34049SOL    HW2 3987  12.039   6.088   1.421
34050SOL     OW 3988   4.241   7.329   1.889
34050SOL    HW1 3989   4.167   7.327   1.949
34050SOL    HW2 3990   4.205   7.359   1.806
34051SOL     OW 3991  11.194   0.128   7.865
34051SOL    HW1 3992  11.255   0.078   7.920
34051SOL    HW2 3993  11.118   0.072   7.855
34052SOL     OW 3994   9.350  13.797  12.178
34052SOL    HW1 3995   9.300  13.798  12.096
34052SOL    HW2 3996   9.288  13.830  12.243
34053SOL     OW 3997  14.589   1.694  13.786
34053SOL    HW1 3998  14.534   1.763  13.748
34053SOL    HW2 3999  14.632   1.653  13.711
34054SOL     OW 4000   2.704   6.791  10.520
34054SOL    HW1 4001   2.691   6.704  10.558
34054SOL    HW2 4002   2.799   6.795  10.503
34055SOL     OW 4003   4.310  10.375   4.851
34055SOL    HW1 4004   4.401  10.403   4.850
34055SOL    HW2 4005   4.294  10.341   4.763
34056SOL     OW 4006   0.978  14.255   6.753
34056SOL    HW1 4007   0.971  14.344   6.788
34056SOL    HW2 4008   1.067  14.250   6.719
34057SOL     OW 4009   2.938   4.865  14.831
34057SOL    HW1 4010   3.024   4.905  14.834
34057SOL    HW2 4011   2.898   4.901  14.751
34058SOL     OW 4012   2.128   7.507   4.116
34058SOL    HW1 4013   2.054   7.539   4.064
34058SOL    HW2 4014   2.157   7.583   4.166
34059SOL     OW 4015   1.261   7.966   3.826
34059SOL    HW1 4016   1.281   7.874   3.843
34059SOL    HW2 4017   1.343   8.003   3.794
34060SOL     OW 4018   2.862  13.872   8.004
34060SOL    HW1 4019   2.852  13.782   8.037
34060SOL    HW2 4020   2.904  13.862   7.919
34061SOL     OW 4021  10.091   7.906   8.614
34061SOL    HW1 4022  10.107   7.993   8.578
34061SOL    HW2 4023  10.057   7.855   8.541
34062SOL     OW 4024   3.434   9.354   5.552
34062SOL    HW1 4025   3.339   9.360   5.550
34062SOL    HW2 4026   3.454   9.275   5.502
34063SOL     OW 4027   3.133  12.308  13.262
34063SOL    HW1 4028   3.204  12.268  13.211
34063SOL    HW2 4029   3.070  12.337  13.197
34064SOL     OW 4030   1.171   6.074  11.202
34064SOL    HW1 4031   1.120   6.132  11.146
34064SOL    HW2 4032   1.230   6.132  11.250
34065SOL     OW 4033  11.124  12.270   4.013
34065SOL    HW1 4034  11.179  12.211   3.962
34065SOL    HW2 4035  11.042  12.276   3.964
34066SOL     OW 4036   7.823   8.357   3.959
34066SOL    HW1 4037   7.771   8.394   4.030
34066SOL    HW2 4038   7.785   8.394   3.879
34067SOL     OW 4039   3.283   2.126   3.557
34067SOL    HW1 4040   3.239   2.162   3.634
34067SOL    HW2 4041   3.291   2.199   3.496
34068SOL     OW 4042   5.966   1.173   3.892
34068SOL    HW1 4043   6.044   1.124   3.865
34068SOL    HW2 4044   5.976   1.184   3.987
34069SOL     OW 4045   3.268   4.451   3.300
34069SOL    HW1 4046   3.254   4.432   3.393
34069SOL    HW2 4047   3.290   4.366   3.262
34070SOL     OW 4048   7.984   4.615   1.798
34070SOL    HW1 4049   7.927   4.623   1.722
34070SOL    HW2 4050   7.998   4.705   1.828
34071SOL     OW 4051   0.173   7.844   5.713
34071SOL    HW1 4052   0.087   7.866   5.676
34071SOL    HW2 4053   0.227   7.820   5.638
34072SOL     OW 4054  10.926   1.224   9.596
34072SOL    HW1 4055  10.988   1.175   9.650
34072SOL    HW2 4056  10.929   1.313   9.629
34073SOL     OW 4057   0.691   6.069   0.742
34073SOL    HW1 4058   0.606   6.075   0.697
34073SOL    HW2 4059   0.744   6.138   0.702
34074SOL     OW 4060   9.258   2.208   2.164
34074SOL    HW1 4061   9.288   2.146   2.098
34074SOL    HW2 4062   9.259   2.293   2.121
34075SOL     OW 4063   6.683   4.105   0.826
34075SOL    HW1 4064   6.775   4.120   0.847
34075SOL    HW2 4065   6.658   4.182   0.775
34076SOL     OW 4066   7.028   9.314   6.658
34076SOL    HW1 4067   7.064   9.328   6.570
34076SOL    HW2 4068   7.043   9.397   6.703
34077SOL     OW 4069   9.102  13.223  13.305
34077SOL    HW1 4070   9.067  13.268  13.228
34077SOL    HW2 4071   9.066  13.271  13.380
34078SOL     OW 4072  13.592  12.538   5.955
34078SOL    HW1 4073  13.561  12.454   5.921
34078SOL    HW2 4074  13.570  12.601   5.887
34079SOL     OW 4075  14.701   6.300   5.347
34079SOL    HW1 4076  14.701   6.395   5.355
34079SOL    HW2 4077  14.689   6.268   5.437
34080SOL     OW 4078   1.883  12.523   9.353
34080SOL    HW1 4079   1.800  12.507   9.398
34080SOL    HW2 4080   1.891  12.618   9.351
34081SOL     OW 4081   1.952  11.930   0.783
34081SOL    HW1 4082   1.926  11.839   0.794
34081SOL    HW2 4083   1.928  11.972   0.865
34082SOL     OW 4084   1.828   8.238   3.695
34082SOL    HW1 4085   1.754   8.192   3.656
34082SOL    HW2 4086   1.895   8.239   3.626
34083SOL     OW 4087   1.040  13.097   8.623
34083SOL    HW1 4088   1.054  13.190   8.608
34083SOL    HW2 4089   1.015  13.062   8.537
34084SOL     OW 4090   5.062   7.583   5.803
34084SOL    HW1 4091   5.103   7.497   5.799
34084SOL    HW2 4092   5.036   7.594   5.895
34085SOL     OW 4093  12.024   6.140   4.214
34085SOL    HW1 4094  12.087   6.193   4.263
34085SOL    HW2 4095  12.037   6.166   4.123
34086SOL     OW 4096  10.476   3.328   8.330
34086SOL    HW1 4097  10.558   3.324   8.380
34086SOL    HW2 4098  10.408   3.331   8.397
34087SOL     OW 4099   9.961   9.717   4.471
34087SOL    HW1 4100  10.039   9.689   4.424
34087SOL    HW2 4101   9.982   9.703   4.563
34088SOL     OW 4102   6.824   3.265   3.479
34088SOL    HW1 4103   6.812   3.293   3.570
34088SOL    HW2 4104   6.737   3.268   3.441
34089SOL     OW 4105  13.127   5.308   5.363
34089SOL    HW1 4106  13.219   5.335   5.361
34089SOL    HW2 4107  13.128   5.217   5.335
34090SOL     OW 4108  10.525  10.055  13.797
34090SOL    HW1 4109  10.456   9.991  13.780
34090SOL    HW2 4110  10.583  10.050  13.721
34091SOL     OW 4111   7.259  13.687   5.167
34091SOL    HW1 4112   7.193  13.647   5.224
34091SOL    HW2 4113   7.341  13.644   5.193
34092SOL     OW 4114   9.102   9.158  11.278
34092SOL    HW1 4115   9.055   9.241  11.274
34092SOL    HW2 4116   9.119   9.136  11.186
34093SOL     OW 4117   9.048   8.795   2.128
34093SOL    HW1 4118   8.968   8.750   2.098
34093SOL    HW2 4119   9.018   8.851   2.199
34094SOL     OW 4120   3.979   6.995  13.307
34094SOL    HW1 4121   3.884   7.010  13.314
34094SOL    HW2 4122   4.004   6.964  13.394
34095SOL     OW 4123   2.516   6.036   6.809
34095SOL    HW1 4124   2.483   5.950   6.836
34095SOL    HW2 4125   2.524   6.030   6.714
34096SOL     OW 4126  14.640   0.429  12.526
34096SOL    HW1 4127  14.666   0.412  12.616
34096SOL    HW2 4128  14.578   0.358  12.505
34097SOL     OW 4129   2.059   0.373  11.508
34097SOL    HW1 4130   2.132   0.392  11.449
34097SOL    HW2 4131   2.092   0.304  11.566
34098SOL     OW 4132   8.049   4.859   1.298
34098SOL    HW1 4133   8.119   4.923   1.289
34098SOL    HW2 4134   8.040   4.846   1.392
34099SOL     OW 4135   8.549  13.322  12.045
34099SOL    HW1 4136   8.517  13.334  12.135
34099SOL    HW2 4137   8.470  13.303  11.994
34100SOL     OW 4138   1.165   8.584  10.777
34100SOL    HW1 4139   1.229   8.583  10.706
34100SOL    HW2 4140   1.186   8.506  10.829
34101SOL     OW 4141   7.214   3.145   3.433
34101SOL    HW1 4142   7.279   3.110   3.493
34101SOL    HW2 4143   7.165   3.068   3.404
34102SOL     OW 4144   3.859   6.705   4.134
34102SOL    HW1 4145   3.786   6.708   4.197
34102SOL    HW2 4146   3.925   6.651   4.176
34103SOL     OW 4147   3.944  12.663   3.661
34103SOL    HW1 4148   3.946  12.628   3.750
34103SOL    HW2 4149   3.916  12.754   3.672
34104SOL     OW 4150  11.487   4.530  10.286
34104SOL    HW1 4151  11.511   4.456  10.231
34104SOL    HW2 4152  11.391   4.534  10.281
34105SOL     OW 4153   1.697  10.352  13.759
34105SOL    HW1 4154   1.625  10.300  13.723
34105SOL    HW2 4155   1.770  10.337  13.699
34106SOL     OW 4156   8.747   0.127  11.564
34106SOL    HW1 4157   8.836   0.154  11.542
34106SOL    HW2 4158   8.718   0.191  11.630
34107SOL     OW 4159  10.030  10.398   0.814
34107SOL    HW1 4160  10.031  10.340   0.890
34107SOL    HW2 4161  10.121  10.400   0.784
34108SOL     OW 4162   8.236   6.403   8.361
34108SOL    HW1 4163   8.309   6.371   8.414
34108SOL    HW2 4164   8.273   6.475   8.310
34109SOL     OW 4165   6.442   7.745  13.941
34109SOL    HW1 4166   6.503   7.725  13.871
34109SOL    HW2 4167   6.477   7.698  14.017
34110SOL     OW 4168   7.649  12.623  12.403
34110SOL    HW1 4169   7.741  12.606  12.420
34110SOL    HW2 4170   7.607  12.538  12.415
34111SOL     OW 4171   7.383   2.876   0.727
34111SOL    HW1 4172   7.295   2.876   0.690
34111SOL    HW2 4173   7.374   2.920   0.811
34112SOL     OW 4174   8.353  13.801   2.482
34112SOL    HW1 4175   8.417  13.735   2.511
34112SOL    HW2 4176   8.336  13.779   2.391
34113SOL     OW 4177   6.051   5.804   4.696
34113SOL    HW1 4178   6.042   5.839   4.785
34113SOL    HW2 4179   6.087   5.877   4.645
34114SOL     OW 4180   5.717  14.324  14.798
34114SOL    HW1 4181   5.802  14.341  14.840
34114SOL    HW2 4182   5.736  14.324  14.705
34115SOL     OW 4183   0.235   9.673   7.862
34115SOL    HW1 4184   0.322   9.651   7.893
34115SOL    HW2 4185   0.178   9.660   7.937
34116SOL     OW 4186  13.198  14.093   5.803
34116SOL    HW1 4187  13.183  13.998   5.807
34116SOL    HW2 4188  13.282  14.106   5.846
34117SOL     OW 4189  11.057   7.700   5.854
34117SOL    HW1 4190  11.040   7.670   5.943
34117SOL    HW2 4191  11.081   7.621   5.806
34118SOL     OW 4192  12.774   2.097   5.655
34118SOL    HW1 4193  12.784   2.187   5.625
34118SOL    HW2 4194  12.753   2.047   5.576
34119SOL     OW 4195  13.120  12.571  11.521
34119SOL    HW1 4196  13.071  12.627  11.581
34119SOL    HW2 4197  13.211  12.595  11.534
34120SOL     OW 4198   8.245   9.286  14.699
34120SOL    HW1 4199   8.171   9.231  14.675
34120SOL    HW2 4200   8.307   9.277  14.626
34121SOL     OW 4201   8.564   6.149   1.355
34121SOL    HW1 4202   8.643   6.200   1.376
34121SOL    HW2 4203   8.531   6.188   1.274
34122SOL     OW 4204   4.612  10.499   7.893
34122SOL    HW1 4205   4.565  10.421   7.864
34122SOL    HW2 4206   4.703  10.471   7.902
34123SOL     OW 4207   8.943  13.700   5.926
34123SOL    HW1 4208   8.999  13.771   5.896
34123SOL    HW2 4209   8.997  13.650   5.987
34124SOL     OW 4210   5.174   6.580  12.673
34124SOL    HW1 4211   5.183   6.505  12.614
34124SOL    HW2 4212   5.128   6.646  12.621
34125SOL     OW 4213   3.077   5.341   5.633
34125SOL    HW1 4214   2.984   5.318   5.642
34125SOL    HW2 4215   3.095   5.331   5.540
34126SOL     OW 4216  10.598  12.918   4.288
34126SOL    HW1 4217  10.562  12.974   4.219
34126SOL    HW2 4218  10.634  12.843   4.241
34127SOL     OW 4219   7.583   1.138  14.798
34127SOL    HW1 4220   7.631   1.094  14.868
34127SOL    HW2 4221   7.565   1.226  14.832
34128SOL     OW 4222   5.892   5.099   1.238
34128SOL    HW1 4223   5.879   5.159   1.311
34128SOL    HW2 4224   5.828   5.029   1.252
34129SOL     OW 4225   1.104  14.594   8.837
34129SOL    HW1 4226   1.188  14.627   8.868
34129SOL    HW2 4227   1.116  14.500   8.830
34130SOL     OW 4228   2.908  11.719   0.413
34130SOL    HW1 4229   2.907  11.624   0.426
34130SOL    HW2 4230   2.986  11.748   0.461
34131SOL     OW 4231  10.948   1.318   5.236
34131SOL    HW1 4232  10.884   1.379   5.274
34131SOL    HW2 4233  10.964   1.255   5.307
34132SOL     OW 4234   2.633   6.212  10.832
34132SOL    HW1 4235   2.678   6.292  10.858
34132SOL    HW2 4236   2.654   6.202  10.739
34133SOL     OW 4237   4.107   7.026   2.942
34133SOL    HW1 4238   4.200   7.005   2.959
34133SOL    HW2 4239   4.105   7.052   2.850
34134SOL     OW 4240   6.028   7.111  10.399
34134SOL    HW1 4241   6.060   7.021  10.406
34134SOL    HW2 4242   5.936   7.107  10.426
34135SOL     OW 4243   3.068  14.651  12.830
34135SOL    HW1 4244   3.026  14.737  12.837
34135SOL    HW2 4245   3.143  14.665  12.772
34136SOL     OW 4246   4.840  14.167  10.749
34136SOL    HW1 4247   4.783  14.232  10.791
34136SOL    HW2 4248   4.858  14.103  10.818
34137SOL     OW 4249  10.827  11.146  13.916
34137SOL    HW1 4250  10.743  11.180  13.884
34137SOL    HW2 4251  10.893  11.201  13.874
34138SOL     OW 4252   0.407   8.524  10.057
34138SOL    HW1 4253   0.368   8.457  10.112
34138SOL    HW2 4254   0.344   8.535   9.985
34139SOL     OW 4255   9.133   9.243   7.732
34139SOL    HW1 4256   9.091   9.322   7.766
34139SOL    HW2 4257   9.061   9.191   7.697
34140SOL     OW 4258   8.991   9.731   9.088
34140SOL    HW1 4259   8.913   9.759   9.040
34140SOL    HW2 4260   8.959   9.712   9.176
34141SOL     OW 4261   9.435  10.372  14.653
34141SOL    HW1 4262   9.442  10.313  14.578
34141SOL    HW2 4263   9.344  10.402  14.652
34142SOL     OW 4264   3.427   2.947  12.504
34142SOL    HW1 4265   3.432   2.906  12.590
34142SOL    HW2 4266   3.387   2.880  12.448
34143SOL     OW 4267   7.727   1.882   3.062
34143SOL    HW1 4268   7.673   1.803   3.068
34143SOL    HW2 4269   7.686   1.943   3.123
34144SOL     OW 4270   1.664   6.909   4.379
34144SOL    HW1 4271   1.578   6.868   4.370
34144SOL    HW2 4272   1.655   6.993   4.333
34145SOL     OW 4273   4.904  11.878   9.840
34145SOL    HW1 4274   4.838  11.813   9.817
34145SOL    HW2 4275   4.869  11.920   9.918
34146SOL     OW 4276   0.826   2.241   2.630
34146SOL    HW1 4277   0.755   2.302   2.654
34146SOL    HW2 4278   0.904   2.296   2.625
34147SOL     OW 4279  14.175   0.679   4.522
34147SOL    HW1 4280  14.122   0.749   4.559
34147SOL    HW2 4281  14.210   0.632   4.597
34148SOL     OW 4282  14.114   7.801   0.500
34148SOL    HW1 4283  14.060   7.755   0.437
34148SOL    HW2 4284  14.087   7.893   0.493
34149SOL     OW 4285   4.838  10.528   3.195
34149SOL    HW1 4286   4.754  10.519   3.240
34149SOL    HW2 4287   4.903  10.502   3.261
34150SOL     OW 4288  13.792   7.809  10.963
34150SOL    HW1 4289  13.720   7.749  10.981
34150SOL    HW2 4290  13.870   7.766  10.998
34151SOL     OW 4291   9.665   1.908  14.701
34151SOL    HW1 4292   9.591   1.875  14.650
34151SOL    HW2 4293   9.639   1.898  14.792
34152SOL     OW 4294   4.427   8.902   9.707
34152SOL    HW1 4295   4.427   8.953   9.788
34152SOL    HW2 4296   4.498   8.838   9.718
34153SOL     OW 4297   6.963  14.506   8.212
34153SOL    HW1 4298   6.908  14.572   8.253
34153SOL    HW2 4299   7.019  14.474   8.284
34154SOL     OW 4300   7.701   8.587   6.705
34154SOL    HW1 4301   7.695   8.681   6.686
34154SOL    HW2 4302   7.683   8.545   6.621
34155SOL     OW 4303  14.671  12.202   7.017
34155SOL    HW1 4304  14.757  12.238   6.995
34155SOL    HW2 4305  14.623  12.202   6.935
34156SOL     OW 4306   1.947   3.877  12.563
34156SOL    HW1 4307   1.872   3.830  12.527
34156SOL    HW2 4308   1.925   3.890  12.655
34157SOL     OW 4309  11.085   1.863   8.232
34157SOL    HW1 4310  11.053   1.797   8.171
34157SOL    HW2 4311  11.130   1.814   8.301
34158SOL     OW 4312   8.651   1.918  12.650
34158SOL    HW1 4313   8.573   1.928  12.596
34158SOL    HW2 4314   8.708   1.860  12.599
34159SOL     OW 4315   9.864  12.213  13.584
34159SOL    HW1 4316   9.770  12.215  13.566
34159SOL    HW2 4317   9.900  12.156  13.517
34160SOL     OW 4318  13.383  13.587   3.111
34160SOL    HW1 4319  13.456  13.525   3.107
34160SOL    HW2 4320  13.305  13.532   3.122
34161SOL     OW 4321  11.787  14.115  10.140
34161SOL    HW1 4322  11.737  14.064  10.076
34161SOL    HW2 4323  11.876  14.079  10.135
34162SOL     OW 4324  10.116   5.543   8.745
34162SOL    HW1 4325  10.167   5.467   8.776
34162SOL    HW2 4326  10.057   5.563   8.818
34163SOL     OW 4327  13.565   5.237   8.885
34163SOL    HW1 4328  13.494   5.217   8.946
34163SOL    HW2 4329  13.546   5.184   8.808
34164SOL     OW 4330  10.609  13.990   8.935
34164SOL    HW1 4331  10.585  13.897   8.933
34164SOL    HW2 4332  10.652  14.002   9.020
34165SOL     OW 4333  13.029   0.315  10.112
34165SOL    HW1 4334  13.034   0.391  10.170
34165SOL    HW2 4335  13.025   0.240  10.171
34166SOL     OW 4336  13.748   3.052   3.578
34166SOL    HW1 4337  13.812   3.001   3.528
34166SOL    HW2 4338  13.691   2.987   3.619
34167SOL     OW 4339  13.137   0.918  10.126
34167SOL    HW1 4340  13.088   0.945  10.049
34167SOL    HW2 4341  13.099   0.968  10.198
34168SOL     OW 4342   9.174  12.744  12.458
34168SOL    HW1 4343   9.194  12.775  12.369
34168SOL    HW2 4344   9.150  12.652  12.446
34169SOL     OW 4345  11.321   0.799   2.934
34169SOL    HW1 4346  11.248   0.740   2.953
34169SOL    HW2 4347  11.398   0.742   2.936
34170SOL     OW 4348   2.654   7.865   0.297
34170SOL    HW1 4349   2.674   7.772   0.301
34170SOL    HW2 4350   2.726   7.904   0.248
34171SOL     OW 4351   2.513  13.846  14.488
34171SOL    HW1 4352   2.422  13.847  14.459
34171SOL    HW2 4353   2.533  13.753  14.501
34172SOL     OW 4354  13.862   1.851  11.733
34172SOL    HW1 4355  13.774   1.857  11.771
34172SOL    HW2 4356  13.848   1.850  11.639
34173SOL     OW 4357   5.833  12.894  11.887
34173SOL    HW1 4358   5.794  12.946  11.957
34173SOL    HW2 4359   5.787  12.811  11.891
34174SOL     OW 4360   0.470   1.290   5.124
34174SOL    HW1 4361   0.520   1.276   5.205
34174SOL    HW2 4362   0.518   1.360   5.079
34175SOL     OW 4363  11.393   2.553   1.946
34175SOL    HW1 4364  11.467   2.524   1.894
34175SOL    HW2 4365  11.430   2.575   2.032
34176SOL     OW 4366   5.882   2.207   3.141
34176SOL    HW1 4367   5.876   2.207   3.237
34176SOL    HW2 4368   5.791   2.201   3.111
34177SOL     OW 4369  14.441  14.019   6.677
34177SOL    HW1 4370  14.435  14.050   6.767
34177SOL    HW2 4371  14.468  14.097   6.627
34178SOL     OW 4372   9.429   7.348  12.655
34178SOL    HW1 4373   9.361   7.309  12.600
34178SOL    HW2 4374   9.389   7.427  12.691
34179SOL     OW 4375  12.611   5.584   6.057
34179SOL    HW1 4376  12.606   5.668   6.102
34179SOL    HW2 4377  12.598   5.518   6.125
34180SOL     OW 4378   2.969   9.174  10.274
34180SOL    HW1 4379   3.038   9.170  10.340
34180SOL    HW2 4380   2.952   9.083  10.252
34181SOL     OW 4381   2.033   3.612   4.528
34181SOL    HW1 4382   2.120   3.572   4.524
34181SOL    HW2 4383   2.042   3.692   4.476
34182SOL     OW 4384  10.727  13.995   6.258
34182SOL    HW1 4385  10.751  13.913   6.214
34182SOL    HW2 4386  10.795  14.007   6.324
34183SOL     OW 4387   4.941   0.858   4.810
34183SOL    HW1 4388   5.030   0.821   4.801
34183SOL    HW2 4389   4.951   0.950   4.788
34184SOL     OW 4390   6.121   0.719   8.351
34184SOL    HW1 4391   6.082   0.666   8.420
34184SOL    HW2 4392   6.208   0.741   8.384
34185SOL     OW 4393   6.615   8.268  10.327
34185SOL    HW1 4394   6.668   8.263  10.407
34185SOL    HW2 4395   6.554   8.339  10.343
34186SOL     OW 4396   3.394  10.403   8.183
34186SOL    HW1 4397   3.378  10.313   8.154
34186SOL    HW2 4398   3.438  10.394   8.268
34187SOL     OW 4399  13.030   2.969   3.597
34187SOL    HW1 4400  13.086   3.037   3.636
34187SOL    HW2 4401  13.085   2.931   3.528
34188SOL     OW 4402   9.866  11.041  10.552
34188SOL    HW1 4403   9.876  10.966  10.610
34188SOL    HW2 4404   9.792  11.019  10.496
34189SOL     OW 4405  14.376  11.446   1.746
34189SOL    HW1 4406  14.387  11.504   1.821
34189SOL    HW2 4407  14.448  11.468   1.687
34190SOL     OW 4408   1.321  11.211   1.013
34190SOL    HW1 4409   1.240  11.164   0.997
34190SOL    HW2 4410   1.321  11.281   0.947
34191SOL     OW 4411   0.947   1.740  10.290
34191SOL    HW1 4412   1.028   1.779  10.257
34191SOL    HW2 4413   0.879   1.803  10.268
34192SOL     OW 4414  13.206  11.638   2.861
34192SOL    HW1 4415  13.117  11.605   2.847
34192SOL    HW2 4416  13.254  11.565   2.900
34193SOL     OW 4417  13.513   0.782  10.106
34193SOL    HW1 4418  13.446   0.729  10.148
34193SOL    HW2 4419  13.484   0.873  10.118
34194SOL     OW 4420   0.558   7.001   9.040
34194SOL    HW1 4421   0.525   6.912   9.025
34194SOL    HW2 4422   0.502   7.037   9.109
34195SOL     OW 4423  12.631   7.311   5.157
34195SOL    HW1 4424  12.578   7.272   5.087
34195SOL    HW2 4425  12.577   7.300   5.236
34196SOL     OW 4426   2.816   9.260   0.046
34196SOL    HW1 4427   2.871   9.251  14.851
34196SOL    HW2 4428   2.755   9.330   0.025
34197SOL     OW 4429  10.506   4.758  14.695
34197SOL    HW1 4430  10.432   4.818  14.685
34197SOL    HW2 4431  10.564   4.779  14.622
34198SOL     OW 4432   3.043  13.426   8.545
34198SOL    HW1 4433   3.116  13.367   8.524
34198SOL    HW2 4434   3.060  13.505   8.494
34199SOL     OW 4435  11.342   3.521   3.235
34199SOL    HW1 4436  11.422   3.538   3.285
34199SOL    HW2 4437  11.295   3.604   3.236
34200SOL     OW 4438   4.095  12.982   0.123
34200SOL    HW1 4439   4.109  12.911   0.061
34200SOL    HW2 4440   4.119  12.945   0.208
34201SOL     OW 4441  13.417  12.567   3.970
34201SOL    HW1 4442  13.361  12.634   4.009
34201SOL    HW2 4443  13.454  12.609   3.892
34202SOL     OW 4444   5.694   7.421  11.368
34202SOL    HW1 4445   5.701   7.516  11.355
34202SOL    HW2 4446   5.631   7.411  11.439
34203SOL     OW 4447  10.688  10.263   4.281
34203SOL    HW1 4448  10.764  10.316   4.305
34203SOL    HW2 4449  10.616  10.299   4.334
34204SOL     OW 4450   7.566   2.606  12.093
34204SOL    HW1 4451   7.475   2.578  12.108
34204SOL    HW2 4452   7.559   2.700  12.076
34205SOL     OW 4453  12.613   3.347   6.981
34205SOL    HW1 4454  12.632   3.289   6.907
34205SOL    HW2 4455  12.642   3.298   7.058
34206SOL     OW 4456   6.111   4.123   3.657
34206SOL    HW1 4457   6.083   4.156   3.572
34206SOL    HW2 4458   6.053   4.048   3.674
34207SOL     OW 4459   2.719   5.875  13.838
34207SOL    HW1 4460   2.688   5.871  13.929
34207SOL    HW2 4461   2.771   5.956  13.834
34208SOL     OW 4462   2.051  11.828   2.476
34208SOL    HW1 4463   2.072  11.839   2.383
34208SOL    HW2 4464   2.092  11.745   2.500
34209SOL     OW 4465  12.311   0.745   5.725
34209SOL    HW1 4466  12.394   0.753   5.678
34209SOL    HW2 4467  12.244   0.764   5.659
34210SOL     OW 4468  12.661   7.459   1.356
34210SOL    HW1 4469  12.572   7.485   1.335
34210SOL    HW2 4470  12.652   7.383   1.413
34211SOL     OW 4471  12.655   8.302   0.252
34211SOL    HW1 4472  12.685   8.215   0.227
34211SOL    HW2 4473  12.693   8.317   0.339
34212SOL     OW 4474  14.095  11.846  14.203
34212SOL    HW1 4475  14.162  11.853  14.271
34212SOL    HW2 4476  14.112  11.761  14.161
34213SOL     OW 4477   7.777  11.596   3.162
34213SOL    HW1 4478   7.769  11.504   3.186
34213SOL    HW2 4479   7.728  11.604   3.081
34214SOL     OW 4480  13.287   4.623   0.156
34214SOL    HW1 4481  13.264   4.541   0.113
34214SOL    HW2 4482  13.382   4.631   0.143
34215SOL     OW 4483   5.436  12.978   9.444
34215SOL    HW1 4484   5.450  12.904   9.503
34215SOL    HW2 4485   5.515  13.030   9.451
34216SOL     OW 4486  12.282   2.464  11.066
34216SOL    HW1 4487  12.286   2.555  11.037
34216SOL    HW2 4488  12.285   2.468  11.161
34217SOL     OW 4489   6.025   1.559   6.448
34217SOL    HW1 4490   6.051   1.650   6.466
34217SOL    HW2 4491   6.106   1.509   6.462
34218SOL     OW 4492   7.012   2.287   9.457
34218SOL    HW1 4493   7.103   2.273   9.481
34218SOL    HW2 4494   7.015   2.354   9.388
34219SOL     OW 4495  11.727   8.989   8.678
34219SOL    HW1 4496  11.725   9.078   8.644
34219SOL    HW2 4497  11.766   8.997   8.764
34220SOL     OW 4498   9.492   3.607   7.658
34220SOL    HW1 4499   9.508   3.588   7.565
34220SOL    HW2 4500   9.578   3.627   7.693
34221SOL     OW 4501   0.984   1.283   7.156
34221SOL    HW1 4502   1.039   1.352   7.120
34221SOL    HW2 4503   1.020   1.202   7.120
34222SOL     OW 4504   9.666   4.416  11.192
34222SOL    HW1 4505   9.723   4.380  11.260
34222SOL    HW2 4506   9.581   4.426  11.235
34223SOL     OW 4507  14.251   6.516   9.553
34223SOL    HW1 4508  14.206   6.478   9.478
34223SOL    HW2 4509  14.219   6.465   9.628
34224SOL     OW 4510   4.280   5.772   8.848
34224SOL    HW1 4511   4.341   5.842   8.826
34224SOL    HW2 4512   4.257   5.787   8.940
34225SOL     OW 4513   3.313   0.729  12.204
34225SOL    HW1 4514   3.382   0.783  12.242
34225SOL    HW2 4515   3.319   0.646  12.251
34226SOL     OW 4516  14.195   4.638   4.052
34226SOL    HW1 4517  14.277   4.680   4.024
34226SOL    HW2 4518  14.212   4.544   4.044
34227SOL     OW 4519  14.138   4.274  13.477
34227SOL    HW1 4520  14.176   4.355  13.510
34227SOL    HW2 4521  14.209   4.233  13.428
34228SOL     OW 4522   2.996   8.961   2.877
34228SOL    HW1 4523   3.084   8.996   2.866
34228SOL    HW2 4524   2.999   8.875   2.836
34229SOL     OW 4525   4.927   2.575  14.245
34229SOL    HW1 4526   4.991   2.510  14.215
34229SOL    HW2 4527   4.980   2.650  14.269
34230SOL     OW 4528   9.311   9.008   3.181
34230SOL    HW1 4529   9.291   8.970   3.096
34230SOL    HW2 4530   9.401   9.040   3.172
34231SOL     OW 4531   1.360   2.302   7.299
34231SOL    HW1 4532   1.351   2.214   7.335
34231SOL    HW2 4533   1.453   2.309   7.275
34232SOL     OW 4534   2.919  12.546   6.928
34232SOL    HW1 4535   2.850  12.480   6.917
34232SOL    HW2 4536   2.951  12.533   7.017
34233SOL     OW 4537   9.276   3.731   6.577
34233SOL    HW1 4538   9.305   3.813   6.536
34233SOL    HW2 4539   9.197   3.755   6.625
34234SOL     OW 4540   4.548   7.554  12.831
34234SOL    HW1 4541   4.536   7.633  12.884
34234SOL    HW2 4542   4.536   7.584  12.740
34235SOL     OW 4543  12.625   0.867   9.756
34235SOL    HW1 4544  12.617   0.928   9.829
34235SOL    HW2 4545  12.640   0.782   9.797
34236SOL     OW 4546   7.631   2.930   0.364
34236SOL    HW1 4547   7.571   2.858   0.345
34236SOL    HW2 4548   7.595   3.004   0.315
34237SOL     OW 4549   1.982   6.399   0.862
34237SOL    HW1 4550   2.010   6.383   0.952
34237SOL    HW2 4551   2.012   6.321   0.814
34238SOL     OW 4552  11.451   5.210  12.654
34238SOL    HW1 4553  11.477   5.204  12.746
34238SOL    HW2 4554  11.524   5.170  12.606
34239SOL     OW 4555   5.644  11.938   8.491
34239SOL    HW1 4556   5.673  11.991   8.417
34239SOL    HW2 4557   5.564  11.981   8.522
34240SOL     OW 4558   8.048   5.473  10.864
34240SOL    HW1 4559   8.109   5.440  10.930
34240SOL    HW2 4560   8.005   5.547  10.907
34241SOL     OW 4561  14.467  11.927   1.798
34241SOL    HW1 4562  14.549  11.885   1.773
34241SOL    HW2 4563  14.448  11.988   1.727
34242SOL     OW 4564  14.244   7.317   7.931
34242SOL    HW1 4565  14.149   7.326   7.932
34242SOL    HW2 4566  14.260   7.226   7.954
34243SOL     OW 4567  13.456  13.628   3.793
34243SOL    HW1 4568  13.439  13.706   3.740
34243SOL    HW2 4569  13.528  13.583   3.748
34244SOL     OW 4570   6.608   6.472   3.607
34244SOL    HW1 4571   6.558   6.434   3.679
34244SOL    HW2 4572   6.699   6.453   3.629
34245SOL     OW 4573  14.098   5.507   3.229
34245SOL    HW1 4574  14.121   5.458   3.150
34245SOL    HW2 4575  14.174   5.495   3.287
34246SOL     OW 4576  11.311   7.082   8.454
34246SOL    HW1 4577  11.314   7.153   8.391
34246SOL    HW2 4578  11.221   7.081   8.485
34247SOL     OW 4579  13.384  10.990  11.474
34247SOL    HW1 4580  13.440  10.998  11.396
34247SOL    HW2 4581  13.300  10.961  11.440
34248SOL     OW 4582   1.624   7.320   8.032
34248SOL    HW1 4583   1.619   7.278   8.118
34248SOL    HW2 4584   1.715   7.305   8.003
34249SOL     OW 4585   2.487  10.189  13.332
34249SOL    HW1 4586   2.558  10.161  13.273
34249SOL    HW2 4587   2.494  10.284  13.334
34250SOL     OW 4588  13.115   5.949   4.980
34250SOL    HW1 4589  13.117   5.987   4.892
34250SOL    HW2 4590  13.151   5.861   4.968
34251SOL     OW 4591   4.979  13.780   5.524
34251SOL    HW1 4592   4.999  13.833   5.601
34251SOL    HW2 4593   4.893  13.743   5.543
34252SOL     OW 4594   2.513  11.269  14.471
34252SOL    HW1 4595   2.437  11.277  14.413
34252SOL    HW2 4596   2.549  11.358  14.476
34253SOL     OW 4597  10.860  13.478   8.006
34253SOL    HW1 4598  10.801  13.506   8.076
34253SOL    HW2 4599  10.945  13.470   8.048
34254SOL     OW 4600   0.156   9.183   9.272
34254SOL    HW1 4601   0.085   9.244   9.255
34254SOL    HW2 4602   0.236   9.236   9.266
34255SOL     OW 4603   4.836   1.688   8.185
34255SOL    HW1 4604   4.840   1.771   8.234
34255SOL    HW2 4605   4.755   1.694   8.134
34256SOL     OW 4606   6.812   1.553   0.059
34256SOL    HW1 4607   6.741   1.594   0.108
34256SOL    HW2 4608   6.805   1.589  14.853
34257SOL     OW 4609   2.459   5.052   3.025
34257SOL    HW1 4610   2.405   4.975   3.006
34257SOL    HW2 4611   2.423   5.121   2.969
34258SOL     OW 4612   9.344   2.991   2.916
34258SOL    HW1 4613   9.333   3.086   2.927
34258SOL    HW2 4614   9.351   2.957   3.005
34259SOL     OW 4615   2.407  12.998  13.624
34259SOL    HW1 4616   2.422  13.072  13.683
34259SOL    HW2 4617   2.410  13.036  13.537
34260SOL     OW 4618   8.041  13.496   1.257
34260SOL    HW1 4619   8.095  13.477   1.181
34260SOL    HW2 4620   8.058  13.423   1.317
34261SOL     OW 4621  12.636   7.029   4.997
34261SOL    HW1 4622  12.635   6.982   4.914
34261SOL    HW2 4623  12.576   7.102   4.985
34262SOL     OW 4624  11.557   8.899   9.008
34262SOL    HW1 4625  11.510   8.948   9.076
34262SOL    HW2 4626  11.504   8.910   8.929
34263SOL     OW 4627   7.978  12.391  14.716
34263SOL    HW1 4628   7.982  12.487  14.706
34263SOL    HW2 4629   7.890  12.368  14.688
34264SOL     OW 4630   0.883   0.568  12.122
34264SOL    HW1 4631   0.953   0.542  12.181
34264SOL    HW2 4632   0.895   0.512  12.045
34265SOL     OW 4633  14.774   0.626  10.952
34265SOL    HW1 4634  14.714   0.552  10.939
34265SOL    HW2 4635  14.842   0.592  11.010
34266SOL     OW 4636   1.107   3.998   4.275
34266SOL    HW1 4637   1.098   4.039   4.189
34266SOL    HW2 4638   1.032   3.938   4.280
34267SOL     OW 4639   1.890   9.663  11.934
34267SOL    HW1 4640   1.830   9.737  11.943
34267SOL    HW2 4641   1.977   9.701  11.951
34268SOL     OW 4642   0.667   8.796   3.733
34268SOL    HW1 4643   0.699   8.822   3.820
34268SOL    HW2 4644   0.581   8.838   3.727
34269SOL     OW 4645   9.896   9.019   9.063
34269SOL    HW1 4646   9.878   9.040   8.971
34269SOL    HW2 4647   9.852   8.935   9.077
34270SOL     OW 4648  10.066   7.567   2.239
34270SOL    HW1 4649  10.040   7.558   2.331
34270SOL    HW2 4650  10.161   7.576   2.242
34271SOL     OW 4651   2.688   2.525   7.849
34271SOL    HW1 4652   2.699   2.429   7.853
34271SOL    HW2 4653   2.609   2.542   7.900
34272SOL     OW 4654   1.271   6.557   9.549
34272SOL    HW1 4655   1.213   6.633   9.546
34272SOL    HW2 4656   1.286   6.535   9.457
34273SOL     OW 4657   4.436  11.287  14.395
34273SOL    HW1 4658   4.392  11.315  14.315
34273SOL    HW2 4659   4.372  11.230  14.438
34274SOL     OW 4660   4.282   5.538   4.170
34274SOL    HW1 4661   4.239   5.574   4.248
34274SOL    HW2 4662   4.283   5.443   4.185
34275SOL     OW 4663  12.841  13.064  11.947
34275SOL    HW1 4664  12.901  13.138  11.941
34275SOL    HW2 4665  12.889  12.991  11.909
34276SOL     OW 4666   5.859  11.993   4.391
34276SOL    HW1 4667   5.766  12.013   4.383
34276SOL    HW2 4668   5.904  12.068   4.353
34277SOL     OW 4669   5.373   3.876   9.187
34277SOL    HW1 4670   5.306   3.807   9.189
34277SOL    HW2 4671   5.407   3.874   9.098
34278SOL     OW 4672  11.416  12.110   4.917
34278SOL    HW1 4673  11.448  12.035   4.867
34278SOL    HW2 4674  11.484  12.177   4.908
34279SOL     OW 4675  13.469   1.924   7.188
34279SOL    HW1 4676  13.478   1.982   7.113
34279SOL    HW2 4677  13.385   1.948   7.227
34280SOL     OW 4678   0.797  10.063  11.755
34280SOL    HW1 4679   0.881  10.063  11.709
34280SOL    HW2 4680   0.734  10.096  11.691
34281SOL     OW 4681   3.369   8.638  13.232
34281SOL    HW1 4682   3.419   8.557  13.225
34281SOL    HW2 4683   3.424   8.704  13.190
34282SOL     OW 4684   0.340  13.671   0.884
34282SOL    HW1 4685   0.314  13.672   0.976
34282SOL    HW2 4686   0.418  13.726   0.880
34283SOL     OW 4687   7.735   0.626  14.850
34283SOL    HW1 4688   7.780   0.578   0.037
34283SOL    HW2 4689   7.644   0.595  14.853
34284SOL     OW 4690   2.350   1.943  13.976
34284SOL    HW1 4691   2.365   2.029  14.015
34284SOL    HW2 4692   2.349   1.882  14.050
34285SOL     OW 4693  10.758   0.277   6.248
34285SOL    HW1 4694  10.777   0.356   6.298
34285SOL    HW2 4695  10.762   0.207   6.313
34286SOL     OW 4696   4.783  12.731   6.448
34286SOL    HW1 4697   4.714  12.734   6.381
34286SOL    HW2 4698   4.864  12.725   6.398
34287SOL     OW 4699   5.054   6.419   7.250
34287SOL    HW1 4700   4.990   6.473   7.295
34287SOL    HW2 4701   5.004   6.371   7.184
34288SOL     OW 4702  11.916   3.363   4.152
34288SOL    HW1 4703  11.933   3.297   4.084
34288SOL    HW2 4704  11.841   3.412   4.119
34289SOL     OW 4705   0.757   5.459   6.073
34289SOL    HW1 4706   0.745   5.427   6.163
34289SOL    HW2 4707   0.675   5.503   6.052
34290SOL     OW 4708   7.718   8.695   2.331
34290SOL    HW1 4709   7.795   8.739   2.294
34290SOL    HW2 4710   7.652   8.702   2.263
34291SOL     OW 4711   5.035  10.625   2.724
34291SOL    HW1 4712   5.008  10.691   2.788
34291SOL    HW2 4713   5.072  10.676   2.651
34292SOL     OW 4714   6.674   7.632  13.362
34292SOL    HW1 4715   6.587   7.668  13.381
34292SOL    HW2 4716   6.657   7.552  13.313
34293SOL     OW 4717  13.486   0.448   1.963
34293SOL    HW1 4718  13.494   0.507   2.038
34293SOL    HW2 4719  13.395   0.419   1.965
34294SOL     OW 4720   7.783   6.578  11.576
34294SOL    HW1 4721   7.711   6.641  11.569
34294SOL    HW2 4722   7.739   6.492  11.576
34295SOL     OW 4723   5.069   9.594   3.049
34295SOL    HW1 4724   5.020   9.512   3.040
34295SOL    HW2 4725   5.114   9.586   3.133
34296SOL     OW 4726  13.288   9.018   5.518
34296SOL    HW1 4727  13.330   9.020   5.433
34296SOL    HW2 4728  13.360   9.012   5.581
34297SOL     OW 4729   9.380   5.347   2.182
34297SOL    HW1 4730   9.326   5.386   2.114
34297SOL    HW2 4731   9.449   5.411   2.199
34298SOL     OW 4732  11.807   7.412  10.257
34298SOL    HW1 4733  11.803   7.508  10.256
34298SOL    HW2 4734  11.901   7.392  10.250
34299SOL     OW 4735   7.073   3.306   4.878
34299SOL    HW1 4736   7.056   3.245   4.950
34299SOL    HW2 4737   6.987   3.337   4.851
34300SOL     OW 4738   6.646   3.637   8.920
34300SOL    HW1 4739   6.621   3.554   8.959
34300SOL    HW2 4740   6.742   3.633   8.914
34301SOL     OW 4741   0.090  11.619  14.711
34301SOL    HW1 4742   0.005  11.615  14.755
34301SOL    HW2 4743   0.139  11.545  14.746
34302SOL     OW 4744   7.011   8.393  13.648
34302SOL    HW1 4745   6.982   8.305  13.669
34302SOL    HW2 4746   6.978   8.447  13.720
34303SOL     OW 4747   5.639   8.735  11.635
34303SOL    HW1 4748   5.611   8.747  11.545
34303SOL    HW2 4749   5.706   8.802  11.649
34304SOL     OW 4750   1.182   3.859   8.541
34304SOL    HW1 4751   1.100   3.909   8.536
34304SOL    HW2 4752   1.155   3.773   8.574
34305SOL     OW 4753   8.663   6.365  11.976
34305SOL    HW1 4754   8.689   6.282  11.937
34305SOL    HW2 4755   8.567   6.362  11.978
34306SOL     OW 4756   5.047   5.584   5.181
34306SOL    HW1 4757   5.060   5.585   5.086
34306SOL    HW2 4758   4.965   5.537   5.194
34307SOL     OW 4759   5.867  11.064   2.746
34307SOL    HW1 4760   5.850  10.980   2.704
34307SOL    HW2 4761   5.957  11.056   2.778
34308SOL     OW 4762   1.814   5.708   1.695
34308SOL    HW1 4763   1.720   5.697   1.679
34308SOL    HW2 4764   1.821   5.793   1.737
34309SOL     OW 4765  13.661  13.626   3.443
34309SOL    HW1 4766  13.678  13.532   3.434
34309SOL    HW2 4767  13.706  13.651   3.524
34310SOL     OW 4768   3.425   6.999   1.088
34310SOL    HW1 4769   3.409   7.061   1.159
34310SOL    HW2 4770   3.487   6.936   1.124
34311SOL     OW 4771   2.314   9.055  12.771
34311SOL    HW1 4772   2.282   9.044  12.681
34311SOL    HW2 4773   2.389   9.114  12.763
34312SOL     OW 4774   5.044   7.590   7.722
34312SOL    HW1 4775   5.047   7.597   7.817
34312SOL    HW2 4776   4.955   7.614   7.698
34313SOL     OW 4777   8.852   7.129   5.100
34313SOL    HW1 4778   8.863   7.202   5.039
34313SOL    HW2 4779   8.903   7.156   5.177
34314SOL     OW 4780  14.404   7.426   4.679
34314SOL    HW1 4781  14.335   7.424   4.613
34314SOL    HW2 4782  14.486   7.424   4.629
34315SOL     OW 4783   8.010  12.359   9.749
34315SOL    HW1 4784   8.077  12.316   9.697
34315SOL    HW2 4785   8.018  12.320   9.836
34316SOL     OW 4786   8.019   2.471   3.588
34316SOL    HW1 4787   8.106   2.505   3.611
34316SOL    HW2 4788   8.037   2.384   3.553
34317SOL     OW 4789   2.182   7.736   5.501
34317SOL    HW1 4790   2.139   7.819   5.520
34317SOL    HW2 4791   2.252   7.759   5.439
34318SOL     OW 4792   8.302   9.157   2.537
34318SOL    HW1 4793   8.262   9.192   2.457
34318SOL    HW2 4794   8.392   9.136   2.511
34319SOL     OW 4795   0.038  14.684  13.091
34319SOL    HW1 4796   0.020  14.614  13.154
34319SOL    HW2 4797   0.127  14.712  13.111
34320SOL     OW 4798   2.940  10.824   2.341
34320SOL    HW1 4799   2.939  10.910   2.384
34320SOL    HW2 4800   3.033  10.807   2.325
34321SOL     OW 4801  13.886   1.617   0.086
34321SOL    HW1 4802  13.960   1.675   0.099
34321SOL    HW2 4803  13.813   1.675   0.064
34322SOL     OW 4804   2.622   1.491  14.207
34322SOL    HW1 4805   2.534   1.460  14.187
34322SOL    HW2 4806   2.669   1.414  14.240
34323SOL     OW 4807   4.985   5.689  10.613
34323SOL    HW1 4808   4.972   5.783  10.607
34323SOL    HW2 4809   5.075   5.678  10.644
34324SOL     OW 4810  11.973   3.665   5.254
34324SOL    HW1 4811  12.009   3.577   5.258
34324SOL    HW2 4812  11.889   3.659   5.300
34325SOL     OW 4813  13.963   4.679   3.473
34325SOL    HW1 4814  14.055   4.659   3.456
34325SOL    HW2 4815  13.914   4.618   3.417
34326SOL     OW 4816  12.618  13.919   8.173
34326SOL    HW1 4817  12.550  13.901   8.238
34326SOL    HW2 4818  12.574  13.909   8.088
34327SOL     OW 4819   5.087   6.295  13.400
34327SOL    HW1 4820   5.038   6.256  13.328
34327SOL    HW2 4821   5.172   6.317  13.363
34328SOL     OW 4822  10.736   9.442   6.915
34328SOL    HW1 4823  10.740   9.369   6.855
34328SOL    HW2 4824  10.723   9.519   6.859
34329SOL     OW 4825   5.955   7.207   4.383
34329SOL    HW1 4826   5.952   7.120   4.343
34329SOL    HW2 4827   5.879   7.209   4.442
34330SOL     OW 4828   1.493   7.377   0.396
34330SOL    HW1 4829   1.414   7.424   0.369
34330SOL    HW2 4830   1.468   7.330   0.475
34331SOL     OW 4831   0.438   3.645   8.157
34331SOL    HW1 4832   0.392   3.726   8.181
34331SOL    HW2 4833   0.432   3.590   8.234
34332SOL     OW 4834   2.104   2.399   7.423
34332SOL    HW1 4835   2.158   2.325   7.396
34332SOL    HW2 4836   2.110   2.461   7.350
34333SOL     OW 4837   8.516   6.792   2.374
34333SOL    HW1 4838   8.551   6.867   2.326
34333SOL    HW2 4839   8.421   6.803   2.372
34334SOL     OW 4840  10.244   7.376  11.903
34334SOL    HW1 4841  10.286   7.290  11.899
34334SOL    HW2 4842  10.198   7.384  11.819
34335SOL     OW 4843   4.510   2.199   1.719
34335SOL    HW1 4844   4.504   2.146   1.639
34335SOL    HW2 4845   4.604   2.211   1.732
34336SOL     OW 4846  10.161  12.704   5.944
34336SOL    HW1 4847  10.181  12.611   5.940
34336SOL    HW2 4848  10.191  12.739   5.859
34337SOL     OW 4849  11.233   9.869   4.529
34337SOL    HW1 4850  11.191   9.869   4.615
34337SOL    HW2 4851  11.306   9.808   4.538
34338SOL     OW 4852   8.193  12.072  11.720
34338SOL    HW1 4853   8.137  12.090  11.645
34338SOL    HW2 4854   8.148  12.111  11.795
34339SOL     OW 4855   4.201   4.455   7.188
34339SOL    HW1 4856   4.278   4.426   7.237
34339SOL    HW2 4857   4.231   4.464   7.098
34340SOL     OW 4858  11.184  10.566   8.239
34340SOL    HW1 4859  11.260  10.619   8.260
34340SOL    HW2 4860  11.111  10.627   8.238
34341SOL     OW 4861   8.992   3.303  13.283
34341SOL    HW1 4862   9.010   3.305  13.189
34341SOL    HW2 4863   8.997   3.395  13.310
34342SOL     OW 4864   3.243  12.655   4.666
34342SOL    HW1 4865   3.316  12.593   4.669
34342SOL    HW2 4866   3.187  12.623   4.595
34343SOL     OW 4867   0.799   7.434   6.613
34343SOL    HW1 4868   0.777   7.524   6.590
34343SOL    HW2 4869   0.847   7.441   6.696
34344SOL     OW 4870   0.711  14.784   4.489
34344SOL    HW1 4871   0.765  14.803   4.412
34344SOL    HW2 4872   0.688  14.870   4.523
34345SOL     OW 4873   0.165   4.133   3.299
34345SOL    HW1 4874   0.142   4.224   3.319
34345SOL    HW2 4875   0.172   4.091   3.385
34346SOL     OW 4876  10.465   4.895   0.852
34346SOL    HW1 4877  10.555   4.881   0.824
34346SOL    HW2 4878  10.438   4.974   0.805
34347SOL     OW 4879  10.422  10.622  10.691
34347SOL    HW1 4880  10.495  10.681  10.671
34347SOL    HW2 4881  10.452  10.536  10.663
34348SOL     OW 4882   9.942   2.617   1.830
34348SOL    HW1 4883   9.944   2.599   1.924
34348SOL    HW2 4884  10.024   2.580   1.797
34349SOL     OW 4885   3.500  13.325   9.638
34349SOL    HW1 4886   3.407  13.330   9.661
34349SOL    HW2 4887   3.512  13.236   9.606
34350SOL     OW 4888  13.600  12.637   7.460
34350SOL    HW1 4889  13.626  12.708   7.402
34350SOL    HW2 4890  13.552  12.576   7.404
34351SOL     OW 4891  11.451   0.148   0.615
34351SOL    HW1 4892  11.403   0.120   0.537
34351SOL    HW2 4893  11.458   0.069   0.669
34352SOL     OW 4894   5.372  14.417   6.705
34352SOL    HW1 4895   5.351  14.463   6.623
34352SOL    HW2 4896   5.310  14.344   6.708
34353SOL     OW 4897   8.541   2.425   7.513
34353SOL    HW1 4898   8.544   2.450   7.605
34353SOL    HW2 4899   8.557   2.506   7.465
34354SOL     OW 4900   9.511   2.737   7.203
34354SOL    HW1 4901   9.447   2.695   7.261
34354SOL    HW2 4902   9.501   2.690   7.120
34355SOL     OW 4903  13.921  12.578   5.292
34355SOL    HW1 4904  13.876  12.524   5.228
34355SOL    HW2 4905  14.012  12.582   5.261
34356SOL     OW 4906   0.776   2.145  14.041
34356SOL    HW1 4907   0.796   2.158  13.949
34356SOL    HW2 4908   0.775   2.233  14.078
34357SOL     OW 4909   6.214   0.023  13.614
34357SOL    HW1 4910   6.274  14.848  13.662
34357SOL    HW2 4911   6.135  14.853  13.601
34358SOL     OW 4912   3.237   3.608  13.278
34358SOL    HW1 4913   3.289   3.643  13.206
34358SOL    HW2 4914   3.193   3.684  13.316
34359SOL     OW 4915   8.712  14.491   6.031
34359SOL    HW1 4916   8.727  14.398   6.019
34359SOL    HW2 4917   8.619  14.504   6.012
34360SOL     OW 4918   1.371   8.215   7.401
34360SOL    HW1 4919   1.412   8.169   7.475
34360SOL    HW2 4920   1.326   8.289   7.441
34361SOL     OW 4921   5.154   1.044   0.682
34361SOL    HW1 4922   5.107   0.969   0.643
34361SOL    HW2 4923   5.210   1.005   0.749
34362SOL     OW 4924   5.041   1.779   8.685
34362SOL    HW1 4925   5.000   1.694   8.699
34362SOL    HW2 4926   4.969   1.835   8.654
34363SOL     OW 4927  10.921   9.812   3.619
34363SOL    HW1 4928  10.879   9.837   3.537
34363SOL    HW2 4929  10.952   9.894   3.656
34364SOL     OW 4930  11.157   7.816   0.914
34364SOL    HW1 4931  11.102   7.874   0.966
34364SOL    HW2 4932  11.135   7.837   0.823
34365SOL     OW 4933  10.398   6.546   6.989
34365SOL    HW1 4934  10.480   6.547   7.039
34365SOL    HW2 4935  10.338   6.496   7.044
34366SOL     OW 4936   7.108   1.208   7.749
34366SOL    HW1 4937   7.032   1.254   7.714
34366SOL    HW2 4938   7.079   1.175   7.834
34367SOL     OW 4939  12.756  13.740   2.941
34367SOL    HW1 4940  12.755  13.683   2.864
34367SOL    HW2 4941  12.758  13.829   2.906
34368SOL     OW 4942  14.231  13.580   0.219
34368SOL    HW1 4943  14.166  13.598   0.286
34368SOL    HW2 4944  14.214  13.645   0.150
34369SOL     OW 4945   4.722   2.924   3.607
34369SOL    HW1 4946   4.771   2.845   3.632
34369SOL    HW2 4947   4.728   2.981   3.684
34370SOL     OW 4948   9.911   9.209  10.303
34370SOL    HW1 4949   9.913   9.208  10.399
34370SOL    HW2 4950  10.001   9.187  10.278
34371SOL     OW 4951   3.127   3.649  11.080
34371SOL    HW1 4952   3.121   3.637  11.175
34371SOL    HW2 4953   3.038   3.674  11.054
34372SOL     OW 4954   5.062   4.302  11.191
34372SOL    HW1 4955   5.149   4.273  11.219
34372SOL    HW2 4956   5.036   4.366  11.257
34373SOL     OW 4957  12.136   5.109   8.888
34373SOL    HW1 4958  12.228   5.133   8.900
34373SOL    HW2 4959  12.139   5.017   8.864
34374SOL     OW 4960   6.882   9.034   2.938
34374SOL    HW1 4961   6.860   8.962   2.879
34374SOL    HW2 4962   6.839   9.111   2.899
34375SOL     OW 4963   5.295   3.270   3.034
34375SOL    HW1 4964   5.213   3.303   2.998
34375SOL    HW2 4965   5.333   3.219   2.963
34376SOL     OW 4966   7.610  11.074   8.311
34376SOL    HW1 4967   7.631  11.142   8.247
34376SOL    HW2 4968   7.549  11.116   8.371
34377SOL     OW 4969   4.858   7.006  12.917
34377SOL    HW1 4970   4.863   7.087  12.968
34377SOL    HW2 4971   4.846   6.938  12.982
34378SOL     OW 4972   7.793   9.179  14.749
34378SOL    HW1 4973   7.746   9.189  14.666
34378SOL    HW2 4974   7.881   9.152  14.723
34379SOL     OW 4975  12.286   7.663   4.440
34379SOL    HW1 4976  12.221   7.697   4.379
34379SOL    HW2 4977  12.238   7.601   4.495
34380SOL     OW 4978   8.705  10.948   9.750
34380SOL    HW1 4979   8.632  10.889   9.731
34380SOL    HW2 4980   8.773  10.923   9.688
34381SOL     OW 4981   1.582  13.768   9.418
34381SOL    HW1 4982   1.606  13.824   9.492
34381SOL    HW2 4983   1.601  13.822   9.341
34382SOL     OW 4984  11.969   4.183  12.493
34382SOL    HW1 4985  12.031   4.160  12.424
34382SOL    HW2 4986  12.023   4.195  12.571
34383SOL     OW 4987  13.771   6.183  14.720
34383SOL    HW1 4988  13.856   6.226  14.727
34383SOL    HW2 4989  13.731   6.221  14.641
34384SOL     OW 4990   1.620  10.954   0.579
34384SOL    HW1 4991   1.548  11.003   0.619
34384SOL    HW2 4992   1.608  10.865   0.610
34385SOL     OW 4993   4.507  11.229  13.481
34385SOL    HW1 4994   4.486  11.280  13.559
34385SOL    HW2 4995   4.567  11.161  13.512
34386SOL     OW 4996  12.757  11.327  10.579
34386SOL    HW1 4997  12.726  11.236  10.585
34386SOL    HW2 4998  12.749  11.360  10.669
34387SOL     OW 4999   3.142   8.451   1.554
34387SOL    HW1 5000   3.196   8.514   1.507
34387SOL    HW2 5001   3.133   8.377   1.494
34388SOL     OW 5002   9.358   5.164   1.551
34388SOL    HW1 5003   9.445   5.161   1.589
34388SOL    HW2 5004   9.305   5.108   1.608
34389SOL     OW 5005   9.267   5.292  12.518
34389SOL    HW1 5006   9.187   5.343  12.509
34389SOL    HW2 5007   9.332   5.339  12.465
34390SOL     OW 5008   1.924   2.910   0.191
34390SOL    HW1 5009   1.880   2.994   0.206
34390SOL    HW2 5010   1.962   2.917   0.104
34391SOL     OW 5011   7.153   4.589   2.919
34391SOL    HW1 5012   7.095   4.666   2.913
34391SOL    HW2 5013   7.232   4.616   2.871
34392SOL     OW 5014  13.073  14.419  11.992
34392SOL    HW1 5015  13.008  14.356  12.025
34392SOL    HW2 5016  13.151  14.366  11.975
34393SOL     OW 5017   7.431  12.309  11.983
34393SOL    HW1 5018   7.458  12.218  11.979
34393SOL    HW2 5019   7.499  12.357  11.936
34394SOL     OW 5020  12.574  12.572  12.857
34394SOL    HW1 5021  12.529  12.494  12.826
34394SOL    HW2 5022  12.666  12.557  12.836
34395SOL     OW 5023  13.221  14.813  12.365
34395SOL    HW1 5024  13.229  14.773  12.452
34395SOL    HW2 5025  13.206  14.740  12.306
34396SOL     OW 5026   1.274  14.853  12.873
34396SOL    HW1 5027   1.334  14.830  12.944
34396SOL    HW2 5028   1.190  14.870  12.918
34397SOL     OW 5029  10.992  12.242  14.049
34397SOL    HW1 5030  11.013  12.301  13.976
34397SOL    HW2 5031  10.913  12.196  14.022
34398SOL     OW 5032  14.568   2.122   3.757
34398SOL    HW1 5033  14.548   2.161   3.843
34398SOL    HW2 5034  14.639   2.176   3.722
34399SOL     OW 5035   6.602   5.126   4.746
34399SOL    HW1 5036   6.571   5.188   4.680
34399SOL    HW2 5037   6.695   5.144   4.755
34400SOL     OW 5038   1.201   8.643   9.948
34400SOL    HW1 5039   1.282   8.623   9.900
34400SOL    HW2 5040   1.189   8.737   9.938
34401SOL     OW 5041  11.150   0.935   6.864
34401SOL    HW1 5042  11.134   1.003   6.929
34401SOL    HW2 5043  11.245   0.923   6.865
34402SOL     OW 5044   0.586   7.803   5.493
34402SOL    HW1 5045   0.506   7.853   5.476
34402SOL    HW2 5046   0.557   7.728   5.545
34403SOL     OW 5047  10.927  12.286  12.513
34403SOL    HW1 5048  10.971  12.223  12.455
34403SOL    HW2 5049  10.997  12.344  12.542
34404SOL     OW 5050  10.161   4.961   4.641
34404SOL    HW1 5051  10.083   4.997   4.683
34404SOL    HW2 5052  10.193   4.894   4.702
34405SOL     OW 5053   7.109  12.097   4.963
34405SOL    HW1 5054   7.060  12.096   4.880
34405SOL    HW2 5055   7.043  12.118   5.029
34406SOL     OW 5056   1.994   3.428   3.501
34406SOL    HW1 5057   1.987   3.386   3.415
34406SOL    HW2 5058   2.069   3.385   3.542
34407SOL     OW 5059  14.874   9.046   5.957
34407SOL    HW1 5060   0.012   9.134   5.989
34407SOL    HW2 5061  14.803   9.015   6.013
34408SOL     OW 5062   0.697   7.912   8.841
34408SOL    HW1 5063   0.603   7.910   8.861
34408SOL    HW2 5064   0.709   7.990   8.788
34409SOL     OW 5065   6.639  14.199   9.510
34409SOL    HW1 5066   6.659  14.210   9.604
34409SOL    HW2 5067   6.587  14.275   9.488
34410SOL     OW 5068   4.981   8.776   8.364
34410SOL    HW1 5069   5.058   8.833   8.360
34410SOL    HW2 5070   4.971   8.741   8.276
34411SOL     OW 5071   1.678   1.478   5.958
34411SOL    HW1 5072   1.657   1.552   5.901
34411SOL    HW2 5073   1.625   1.493   6.036
34412SOL     OW 5074   3.849   8.761   3.516
34412SOL    HW1 5075   3.769   8.708   3.523
34412SOL    HW2 5076   3.817   8.851   3.504
34413SOL     OW 5077  10.269   1.775   5.972
34413SOL    HW1 5078  10.329   1.706   6.001
34413SOL    HW2 5079  10.309   1.810   5.893
34414SOL     OW 5080   3.899  12.559   5.082
34414SOL    HW1 5081   3.816  12.513   5.094
34414SOL    HW2 5082   3.940  12.515   5.007
34415SOL     OW 5083   4.113   0.316   5.467
34415SOL    HW1 5084   4.087   0.246   5.406
34415SOL    HW2 5085   4.148   0.271   5.543
34416SOL     OW 5086  12.122  12.371  10.992
34416SOL    HW1 5087  12.037  12.333  10.969
34416SOL    HW2 5088  12.181  12.341  10.924
34417SOL     OW 5089  12.829   2.453  10.978
34417SOL    HW1 5090  12.854   2.522  11.039
34417SOL    HW2 5091  12.746   2.420  11.012
34418SOL     OW 5092  14.610  13.666   6.982
34418SOL    HW1 5093  14.528  13.653   6.935
34418SOL    HW2 5094  14.649  13.579   6.988
34419SOL     OW 5095   3.989   0.707   2.393
34419SOL    HW1 5096   4.059   0.717   2.458
34419SOL    HW2 5097   4.001   0.618   2.358
34420SOL     OW 5098   7.326   1.525  11.205
34420SOL    HW1 5099   7.277   1.503  11.284
34420SOL    HW2 5100   7.267   1.503  11.132
34421SOL     OW 5101  11.024   6.532   0.046
34421SOL    HW1 5102  11.037   6.540   0.140
34421SOL    HW2 5103  10.988   6.616   0.019
34422SOL     OW 5104   2.694   1.729   2.721
34422SOL    HW1 5105   2.633   1.656   2.716
34422SOL    HW2 5106   2.774   1.696   2.681
34423SOL     OW 5107   7.468   0.500  14.027
34423SOL    HW1 5108   7.516   0.419  14.046
34423SOL    HW2 5109   7.406   0.509  14.100
34424SOL     OW 5110   2.489   2.615  12.504
34424SOL    HW1 5111   2.558   2.662  12.458
34424SOL    HW2 5112   2.426   2.592  12.436
34425SOL     OW 5113  12.482  12.204   0.664
34425SOL    HW1 5114  12.404  12.253   0.691
34425SOL    HW2 5115  12.523  12.177   0.746
34426SOL     OW 5116  11.738   4.537   8.965
34426SOL    HW1 5117  11.750   4.623   8.926
34426SOL    HW2 5118  11.787   4.477   8.908
34427SOL     OW 5119   7.272   0.628   2.076
34427SOL    HW1 5120   7.245   0.717   2.098
34427SOL    HW2 5121   7.192   0.586   2.044
34428SOL     OW 5122   5.359   5.048  12.609
34428SOL    HW1 5123   5.361   5.132  12.656
34428SOL    HW2 5124   5.270   5.043  12.573
34429SOL     OW 5125   0.582   4.249   7.981
34429SOL    HW1 5126   0.634   4.224   7.904
34429SOL    HW2 5127   0.529   4.171   7.999
34430SOL     OW 5128   5.404   9.879  14.322
34430SOL    HW1 5129   5.391   9.973  14.335
34430SOL    HW2 5130   5.498   9.870  14.305
34431SOL     OW 5131  12.573   7.917   8.448
34431SOL    HW1 5132  12.622   7.838   8.426
34431SOL    HW2 5133  12.640   7.982   8.469
34432SOL     OW 5134  12.474   6.808  11.125
34432SOL    HW1 5135  12.410   6.737  11.126
34432SOL    HW2 5136  12.447   6.865  11.053
34433SOL     OW 5137  11.418  10.762   2.486
34433SOL    HW1 5138  11.350  10.697   2.503
34433SOL    HW2 5139  11.479  10.717   2.427
34434SOL     OW 5140  10.384   0.186  14.044
34434SOL    HW1 5141  10.413   0.270  14.081
34434SOL    HW2 5142  10.400   0.123  14.114
34435SOL     OW 5143   6.637   4.610  12.910
34435SOL    HW1 5144   6.705   4.543  12.919
34435SOL    HW2 5145   6.557   4.560  12.896
34436SOL     OW 5146   1.945   5.572   0.125
34436SOL    HW1 5147   1.966   5.540   0.038
34436SOL    HW2 5148   1.992   5.655   0.132
34437SOL     OW 5149   7.665   2.822  14.171
34437SOL    HW1 5150   7.697   2.828  14.261
34437SOL    HW2 5151   7.741   2.847  14.117
34438SOL     OW 5152   2.053   4.693  12.574
34438SOL    HW1 5153   2.031   4.627  12.508
34438SOL    HW2 5154   2.148   4.702  12.568
34439SOL     OW 5155  12.612   7.173  11.218
34439SOL    HW1 5156  12.614   7.250  11.275
34439SOL    HW2 5157  12.531   7.127  11.243
34440SOL     OW 5158   4.782  10.195   3.131
34440SOL    HW1 5159   4.711  10.136   3.156
34440SOL    HW2 5160   4.738  10.271   3.093
34441SOL     OW 5161  14.454   0.531   1.313
34441SOL    HW1 5162  14.484   0.620   1.295
34441SOL    HW2 5163  14.513   0.475   1.262
34442SOL     OW 5164   0.105   4.944   5.851
34442SOL    HW1 5165   0.060   5.026   5.867
34442SOL    HW2 5166   0.090   4.893   5.931
34443SOL     OW 5167   7.570   6.133   4.719
34443SOL    HW1 5168   7.507   6.149   4.789
34443SOL    HW2 5169   7.567   6.038   4.705
34444SOL     OW 5170   6.917   4.668   6.885
34444SOL    HW1 5171   6.904   4.589   6.832
34444SOL    HW2 5172   7.007   4.661   6.917
34445SOL     OW 5173  11.901   5.530  11.450
34445SOL    HW1 5174  11.832   5.466  11.469
34445SOL    HW2 5175  11.982   5.483  11.467
34446SOL     OW 5176   1.037   2.541  11.217
34446SOL    HW1 5177   0.960   2.578  11.259
34446SOL    HW2 5178   1.019   2.447  11.214
34447SOL     OW 5179   5.228   6.072   7.190
34447SOL    HW1 5180   5.160   6.108   7.133
34447SOL    HW2 5181   5.181   6.050   7.271
34448SOL     OW 5182  14.104   1.573  10.702
34448SOL    HW1 5183  14.017   1.540  10.725
34448SOL    HW2 5184  14.137   1.511  10.637
34449SOL     OW 5185  12.139   5.949  10.591
34449SOL    HW1 5186  12.226   5.988  10.598
34449SOL    HW2 5187  12.121   5.916  10.679
34450SOL     OW 5188  10.639   5.417   8.350
34450SOL    HW1 5189  10.663   5.509   8.353
34450SOL    HW2 5190  10.712   5.374   8.304
34451SOL     OW 5191   1.338   4.382  11.158
34451SOL    HW1 5192   1.369   4.421  11.077
34451SOL    HW2 5193   1.243   4.389  11.154
34452SOL     OW 5194  13.184  13.129   9.026
34452SOL    HW1 5195  13.158  13.196   8.964
34452SOL    HW2 5196  13.168  13.046   8.981
34453SOL     OW 5197   6.282  10.271   0.617
34453SOL    HW1 5198   6.309  10.270   0.709
34453SOL    HW2 5199   6.334  10.202   0.576
34454SOL     OW 5200  12.023   8.191   5.617
34454SOL    HW1 5201  11.967   8.245   5.561
34454SOL    HW2 5202  12.099   8.247   5.635
34455SOL     OW 5203  13.312   4.454   6.672
34455SOL    HW1 5204  13.279   4.364   6.679
34455SOL    HW2 5205  13.318   4.484   6.762
34456SOL     OW 5206  11.856   6.694   1.603
34456SOL    HW1 5207  11.774   6.647   1.588
34456SOL    HW2 5208  11.874   6.739   1.521
34457SOL     OW 5209  13.374   8.701  10.520
34457SOL    HW1 5210  13.325   8.620  10.533
34457SOL    HW2 5211  13.347   8.757  10.593
34458SOL     OW 5212   3.923   7.702   7.182
34458SOL    HW1 5213   3.846   7.701   7.239
34458SOL    HW2 5214   3.892   7.742   7.101
34459SOL     OW 5215  13.442   4.542   5.587
34459SOL    HW1 5216  13.436   4.549   5.683
34459SOL    HW2 5217  13.532   4.569   5.567
34460SOL     OW 5218   8.822  14.663  12.823
34460SOL    HW1 5219   8.905  14.631  12.859
34460SOL    HW2 5220   8.762  14.590  12.832
34461SOL     OW 5221   6.427   5.206  14.045
34461SOL    HW1 5222   6.351   5.242  14.089
34461SOL    HW2 5223   6.394   5.176  13.960
34462SOL     OW 5224   8.413   3.835   3.147
34462SOL    HW1 5225   8.482   3.848   3.082
34462SOL    HW2 5226   8.365   3.759   3.115
34463SOL     OW 5227  10.817  13.171   7.679
34463SOL    HW1 5228  10.814  13.266   7.690
34463SOL    HW2 5229  10.750  13.138   7.738
34464SOL     OW 5230  10.819   8.619   1.930
34464SOL    HW1 5231  10.860   8.584   2.009
34464SOL    HW2 5232  10.830   8.714   1.937
34465SOL     OW 5233   1.943   7.664  14.386
34465SOL    HW1 5234   1.898   7.708  14.314
34465SOL    HW2 5235   2.022   7.716  14.401
34466SOL     OW 5236   3.293   3.754   4.509
34466SOL    HW1 5237   3.372   3.754   4.455
34466SOL    HW2 5238   3.324   3.776   4.597
34467SOL     OW 5239  13.234   4.606   1.615
34467SOL    HW1 5240  13.178   4.663   1.669
34467SOL    HW2 5241  13.307   4.583   1.673
34468SOL     OW 5242   3.528   8.372  12.359
34468SOL    HW1 5243   3.546   8.302  12.421
34468SOL    HW2 5244   3.494   8.443  12.414
34469SOL     OW 5245  14.004   3.730   3.329
34469SOL    HW1 5246  14.084   3.700   3.286
34469SOL    HW2 5247  14.022   3.721   3.422
34470SOL     OW 5248  12.256  12.757  12.363
34470SOL    HW1 5249  12.236  12.664  12.363
34470SOL    HW2 5250  12.189  12.797  12.307
34471SOL     OW 5251   7.044   5.851   2.075
34471SOL    HW1 5252   7.105   5.860   2.002
34471SOL    HW2 5253   7.098   5.868   2.153
34472SOL     OW 5254   8.080  11.927   7.688
34472SOL    HW1 5255   7.987  11.910   7.677
34472SOL    HW2 5256   8.109  11.862   7.753
34473SOL     OW 5257   0.537  14.401   0.795
34473SOL    HW1 5258   0.460  14.455   0.815
34473SOL    HW2 5259   0.561  14.425   0.706
34474SOL     OW 5260   6.888   3.445   1.859
34474SOL    HW1 5261   6.961   3.507   1.855
34474SOL    HW2 5262   6.838   3.462   1.778
34475SOL     OW 5263   3.297   2.829   8.019
34475SOL    HW1 5264   3.203   2.849   8.025
34475SOL    HW2 5265   3.306   2.780   7.938
34476SOL     OW 5266   1.386   6.274   1.052
34476SOL    HW1 5267   1.345   6.360   1.046
34476SOL    HW2 5268   1.477   6.292   1.075
34477SOL     OW 5269  13.373  13.036   9.595
34477SOL    HW1 5270  13.335  13.120   9.571
34477SOL    HW2 5271  13.457  13.058   9.635
34478SOL     OW 5272  12.046   9.625  10.326
34478SOL    HW1 5273  11.997   9.706  10.341
34478SOL    HW2 5274  12.015   9.592  10.242
34479SOL     OW 5275  14.381   8.220   6.073
34479SOL    HW1 5276  14.465   8.187   6.105
34479SOL    HW2 5277  14.334   8.248   6.151
34480SOL     OW 5278  13.242   3.188   1.711
34480SOL    HW1 5279  13.226   3.275   1.749
34480SOL    HW2 5280  13.335   3.189   1.688
34481SOL     OW 5281   7.899   8.655   8.209
34481SOL    HW1 5282   7.906   8.560   8.226
34481SOL    HW2 5283   7.831   8.662   8.142
34482SOL     OW 5284   1.088   5.614  12.467
34482SOL    HW1 5285   1.167   5.668  12.479
34482SOL    HW2 5286   1.019   5.663  12.511
34483SOL     OW 5287   1.312   5.761  14.068
34483SOL    HW1 5288   1.394   5.808  14.058
34483SOL    HW2 5289   1.316   5.691  14.002
34484SOL     OW 5290   7.129   9.659   8.794
34484SOL    HW1 5291   7.101   9.624   8.710
34484SOL    HW2 5292   7.053   9.706   8.828
34485SOL     OW 5293   9.403  13.466  14.725
34485SOL    HW1 5294   9.323  13.453  14.775
34485SOL    HW2 5295   9.443  13.544  14.765
34486SOL     OW 5296   2.349   2.030  13.176
34486SOL    HW1 5297   2.378   2.090  13.106
34486SOL    HW2 5298   2.254   2.039  13.177
34487SOL     OW 5299   8.570  12.043   8.492
34487SOL    HW1 5300   8.564  12.138   8.503
34487SOL    HW2 5301   8.525  12.007   8.569
34488SOL     OW 5302  14.453   3.178   8.035
34488SOL    HW1 5303  14.496   3.235   7.971
34488SOL    HW2 5304  14.364   3.213   8.042
34489SOL     OW 5305   8.060  12.206   5.409
34489SOL    HW1 5306   8.137  12.196   5.353
34489SOL    HW2 5307   7.992  12.240   5.352
34490SOL     OW 5308  14.356   9.160   1.673
34490SOL    HW1 5309  14.339   9.183   1.764
34490SOL    HW2 5310  14.283   9.197   1.624
34491SOL     OW 5311  13.938   1.427   7.355
34491SOL    HW1 5312  13.987   1.413   7.274
34491SOL    HW2 5313  13.966   1.355   7.412
34492SOL     OW 5314   0.205  11.289   9.855
34492SOL    HW1 5315   0.240  11.222   9.796
34492SOL    HW2 5316   0.280  11.344   9.876
34493SOL     OW 5317   8.088   1.938   6.843
34493SOL    HW1 5318   8.133   1.996   6.906
34493SOL    HW2 5319   8.159   1.903   6.789
34494SOL     OW 5320   5.742   8.711   0.224
34494SOL    HW1 5321   5.801   8.641   0.252
34494SOL    HW2 5322   5.661   8.666   0.200
34495SOL     OW 5323   7.609   4.398  11.565
34495SOL    HW1 5324   7.672   4.410  11.637
34495SOL    HW2 5325   7.553   4.326  11.594
34496SOL     OW 5326  12.298   2.049   1.724
34496SOL    HW1 5327  12.243   2.097   1.786
34496SOL    HW2 5328  12.377   2.027   1.775
34497SOL     OW 5329  11.971  14.820  13.219
34497SOL    HW1 5330  11.971  14.755  13.289
34497SOL    HW2 5331  11.881  14.822  13.187
34498SOL     OW 5332   9.523  10.194  14.455
34498SOL    HW1 5333   9.462  10.131  14.417
34498SOL    HW2 5334   9.610  10.161  14.434
34499SOL     OW 5335   9.548  12.366  10.743
34499SOL    HW1 5336   9.516  12.332  10.827
34499SOL    HW2 5337   9.552  12.290  10.685
34500SOL     OW 5338   9.216  12.799   3.130
34500SOL    HW1 5339   9.253  12.732   3.187
34500SOL    HW2 5340   9.259  12.785   3.045
34501SOL     OW 5341   9.532  14.054   8.133
34501SOL    HW1 5342   9.547  14.016   8.046
34501SOL    HW2 5343   9.591  14.128   8.137
34502SOL     OW 5344   6.278  14.332   4.880
34502SOL    HW1 5345   6.316  14.348   4.794
34502SOL    HW2 5346   6.349  14.353   4.941
34503SOL     OW 5347   8.137  10.097   4.118
34503SOL    HW1 5348   8.143  10.069   4.209
34503SOL    HW2 5349   8.089  10.027   4.075
34504SOL     OW 5350   3.686   1.703   6.182
34504SOL    HW1 5351   3.741   1.704   6.104
34504SOL    HW2 5352   3.727   1.638   6.239
34505SOL     OW 5353  13.727   0.697  10.271
34505SOL    HW1 5354  13.651   0.685  10.214
34505SOL    HW2 5355  13.693   0.745  10.346
34506SOL     OW 5356   0.301  14.829   1.901
34506SOL    HW1 5357   0.349  14.750   1.926
34506SOL    HW2 5358   0.330  14.846   1.811
34507SOL     OW 5359   7.224   8.262  12.353
34507SOL    HW1 5360   7.172   8.272  12.433
34507SOL    HW2 5361   7.266   8.347  12.341
34508SOL     OW 5362   3.717   8.428   5.943
34508SOL    HW1 5363   3.698   8.521   5.939
34508SOL    HW2 5364   3.661   8.388   5.877
34509SOL     OW 5365   2.324   9.251   1.377
34509SOL    HW1 5366   2.241   9.293   1.354
34509SOL    HW2 5367   2.306   9.157   1.377
34510SOL     OW 5368   5.851  11.370  12.527
34510SOL    HW1 5369   5.846  11.346  12.434
34510SOL    HW2 5370   5.769  11.338  12.564
34511SOL     OW 5371  14.414   8.398   4.091
34511SOL    HW1 5372  14.387   8.390   4.182
34511SOL    HW2 5373  14.508   8.416   4.096
34512SOL     OW 5374   4.581  10.719   6.273
34512SOL    HW1 5375   4.627  10.780   6.331
34512SOL    HW2 5376   4.554  10.647   6.331
34513SOL     OW 5377   6.349  11.975   0.817
34513SOL    HW1 5378   6.361  11.996   0.909
34513SOL    HW2 5379   6.345  11.879   0.814
34514SOL     OW 5380  11.405   8.008   3.770
34514SOL    HW1 5381  11.394   7.923   3.811
34514SOL    HW2 5382  11.319   8.050   3.776
34515SOL     OW 5383   9.663   9.184  12.145
34515SOL    HW1 5384   9.608   9.128  12.091
34515SOL    HW2 5385   9.672   9.265  12.095
34516SOL     OW 5386   3.780  13.141   1.079
34516SOL    HW1 5387   3.766  13.098   1.163
34516SOL    HW2 5388   3.865  13.184   1.089
34517SOL     OW 5389   5.735  10.802  11.634
34517SOL    HW1 5390   5.661  10.861  11.619
34517SOL    HW2 5391   5.694  10.719  11.661
34518SOL     OW 5392  11.795   6.933   4.833
34518SOL    HW1 5393  11.850   6.904   4.761
34518SOL    HW2 5394  11.706   6.928   4.798
34519SOL     OW 5395  13.793  14.369   2.549
34519SOL    HW1 5396  13.881  14.358   2.511
34519SOL    HW2 5397  13.799  14.329   2.635
34520SOL     OW 5398   0.445   1.286   1.716
34520SOL    HW1 5399   0.540   1.279   1.705
34520SOL    HW2 5400   0.424   1.375   1.688
34521SOL     OW 5401   1.589   9.726   6.557
34521SOL    HW1 5402   1.505   9.770   6.540
34521SOL    HW2 5403   1.566   9.650   6.611
34522SOL     OW 5404   1.120  10.576   1.710
34522SOL    HW1 5405   1.031  10.542   1.702
34522SOL    HW2 5406   1.167  10.536   1.637
34523SOL     OW 5407   8.288   7.252   8.748
34523SOL    HW1 5408   8.326   7.247   8.835
34523SOL    HW2 5409   8.335   7.185   8.697
34524SOL     OW 5410   9.735  11.564   0.587
34524SOL    HW1 5411   9.709  11.542   0.497
34524SOL    HW2 5412   9.777  11.484   0.620
34525SOL     OW 5413   8.237   6.434   9.501
34525SOL    HW1 5414   8.280   6.350   9.512
34525SOL    HW2 5415   8.198   6.430   9.414
34526SOL     OW 5416   7.297   2.310   2.203
34526SOL    HW1 5417   7.281   2.336   2.113
34526SOL    HW2 5418   7.388   2.279   2.203
34527SOL     OW 5419   9.705  12.475  13.141
34527SOL    HW1 5420   9.624  12.526  13.148
34527SOL    HW2 5421   9.766  12.518  13.201
34528SOL     OW 5422  14.135  10.137  14.267
34528SOL    HW1 5423  14.115  10.071  14.334
34528SOL    HW2 5424  14.105  10.219  14.305
34529SOL     OW 5425   8.104  10.669   2.968
34529SOL    HW1 5426   8.173  10.617   2.926
34529SOL    HW2 5427   8.137  10.759   2.967
34530SOL     OW 5428  10.360   8.875   7.517
34530SOL    HW1 5429  10.397   8.891   7.604
34530SOL    HW2 5430  10.429   8.905   7.457
34531SOL     OW 5431   3.050   0.993  10.284
34531SOL    HW1 5432   3.066   1.058  10.215
34531SOL    HW2 5433   3.063   0.909  10.241
34532SOL     OW 5434   0.832   7.377   8.619
34532SOL    HW1 5435   0.927   7.387   8.623
34532SOL    HW2 5436   0.816   7.324   8.541
34533SOL     OW 5437   8.787  13.303  10.703
34533SOL    HW1 5438   8.693  13.288  10.690
34533SOL    HW2 5439   8.794  13.334  10.794
34534SOL     OW 5440   1.021   7.581   8.382
34534SOL    HW1 5441   1.080   7.654   8.401
34534SOL    HW2 5442   1.070   7.503   8.410
34535SOL     OW 5443   4.998  14.684   3.960
34535SOL    HW1 5444   4.928  14.748   3.976
34535SOL    HW2 5445   4.952  14.602   3.941
34536SOL     OW 5446   7.039   7.772   8.930
34536SOL    HW1 5447   7.114   7.809   8.884
34536SOL    HW2 5448   6.963   7.816   8.890
34537SOL     OW 5449  11.962  12.991   5.795
34537SOL    HW1 5450  11.930  12.930   5.861
34537SOL    HW2 5451  12.047  13.020   5.830
34538SOL     OW 5452   7.414   3.532  12.972
34538SOL    HW1 5453   7.329   3.505  13.007
34538SOL    HW2 5454   7.423   3.623  13.000
34539SOL     OW 5455  13.212   3.981  13.614
34539SOL    HW1 5456  13.179   3.892  13.621
34539SOL    HW2 5457  13.277   3.978  13.544
34540SOL     OW 5458   2.661   4.877   7.193
34540SOL    HW1 5459   2.592   4.872   7.259
34540SOL    HW2 5460   2.740   4.844   7.238
34541SOL     OW 5461   6.644   7.176   7.337
34541SOL    HW1 5462   6.637   7.199   7.244
34541SOL    HW2 5463   6.562   7.208   7.376
34542SOL     OW 5464  12.556   0.622  11.544
34542SOL    HW1 5465  12.555   0.547  11.485
34542SOL    HW2 5466  12.588   0.587  11.627
34543SOL     OW 5467   8.005  13.676  14.246
34543SOL    HW1 5468   8.101  13.675  14.251
34543SOL    HW2 5469   7.981  13.767  14.265
34544SOL     OW 5470   1.587   7.963   3.328
34544SOL    HW1 5471   1.572   7.875   3.361
34544SOL    HW2 5472   1.617   7.951   3.238
34545SOL     OW 5473  12.734  14.329   4.538
34545SOL    HW1 5474  12.808  14.305   4.483
34545SOL    HW2 5475  12.773  14.345   4.624
34546SOL     OW 5476   6.202   3.004   7.259
34546SOL    HW1 5477   6.295   2.983   7.245
34546SOL    HW2 5478   6.203   3.065   7.332
34547SOL     OW 5479  12.336  10.351   6.103
34547SOL    HW1 5480  12.256  10.364   6.052
34547SOL    HW2 5481  12.401  10.407   6.061
34548SOL     OW 5482  11.922   2.601  13.111
34548SOL    HW1 5483  11.954   2.584  13.200
34548SOL    HW2 5484  11.933   2.695  13.098
34549SOL     OW 5485   6.547   0.565  13.082
34549SOL    HW1 5486   6.492   0.542  13.007
34549SOL    HW2 5487   6.497   0.537  13.159
34550SOL     OW 5488   6.542   7.158   9.027
34550SOL    HW1 5489   6.524   7.244   9.066
34550SOL    HW2 5490   6.541   7.175   8.933
34551SOL     OW 5491   0.759   0.381   6.472
34551SOL    HW1 5492   0.709   0.407   6.549
34551SOL    HW2 5493   0.694   0.375   6.402
34552SOL     OW 5494   0.514  10.531   3.859
34552SOL    HW1 5495   0.427  10.556   3.827
34552SOL    HW2 5496   0.573  10.562   3.791
34553SOL     OW 5497   8.881   6.214   2.859
34553SOL    HW1 5498   8.895   6.302   2.894
34553SOL    HW2 5499   8.935   6.158   2.914
34554SOL     OW 5500   5.687   7.633  10.856
34554SOL    HW1 5501   5.594   7.620  10.874
34554SOL    HW2 5502   5.694   7.725  10.831
34555SOL     OW 5503  12.491   7.835  10.678
34555SOL    HW1 5504  12.476   7.893  10.752
34555SOL    HW2 5505  12.420   7.856  10.616
34556SOL     OW 5506   8.930  11.100   7.122
34556SOL    HW1 5507   8.884  11.183   7.136
34556SOL    HW2 5508   9.017  11.126   7.093
34557SOL     OW 5509  13.257  12.886   0.038
34557SOL    HW1 5510  13.168  12.868   0.067
34557SOL    HW2 5511  13.312  12.843   0.103
34558SOL     OW 5512  14.794   2.797  10.510
34558SOL    HW1 5513  14.750   2.883  10.515
34558SOL    HW2 5514   0.003   2.815  10.533
34559SOL     OW 5515   1.723  11.850  13.106
34559SOL    HW1 5516   1.813  11.830  13.080
34559SOL    HW2 5517   1.707  11.938  13.073
34560SOL     OW 5518   3.176  12.977   7.945
34560SOL    HW1 5519   3.232  13.024   7.883
34560SOL    HW2 5520   3.176  12.887   7.915
34561SOL     OW 5521   0.605   7.762  11.720
34561SOL    HW1 5522   0.564   7.753  11.807
34561SOL    HW2 5523   0.636   7.674  11.699
34562SOL     OW 5524   3.570  11.195   4.483
34562SOL    HW1 5525   3.505  11.217   4.550
34562SOL    HW2 5526   3.644  11.159   4.531
34563SOL     OW 5527  10.189  13.388   1.974
34563SOL    HW1 5528  10.125  13.392   2.045
34563SOL    HW2 5529  10.149  13.438   1.903
34564SOL     OW 5530   3.937  12.746  12.098
34564SOL    HW1 5531   3.886  12.703  12.166
34564SOL    HW2 5532   3.943  12.682  12.028
34565SOL     OW 5533   5.361   8.302   8.662
34565SOL    HW1 5534   5.309   8.357   8.720
34565SOL    HW2 5535   5.431   8.267   8.717
34566SOL     OW 5536   3.577  11.876   3.600
34566SOL    HW1 5537   3.496  11.836   3.632
34566SOL    HW2 5538   3.572  11.867   3.505
34567SOL     OW 5539   9.775   5.372   0.691
34567SOL    HW1 5540   9.820   5.429   0.753
34567SOL    HW2 5541   9.701   5.336   0.740
34568SOL     OW 5542   0.492  12.050  13.874
34568SOL    HW1 5543   0.400  12.060  13.850
34568SOL    HW2 5544   0.495  12.066  13.968
34569SOL     OW 5545  11.781  10.932  14.434
34569SOL    HW1 5546  11.791  10.888  14.519
34569SOL    HW2 5547  11.687  10.948  14.427
34570SOL     OW 5548   9.291   0.352   1.926
34570SOL    HW1 5549   9.339   0.420   1.973
34570SOL    HW2 5550   9.283   0.385   1.836
34571SOL     OW 5551   0.464   6.620   4.058
34571SOL    HW1 5552   0.459   6.709   4.021
34571SOL    HW2 5553   0.387   6.613   4.114
34572SOL     OW 5554  13.203   5.455  10.374
34572SOL    HW1 5555  13.215   5.408  10.292
34572SOL    HW2 5556  13.109   5.455  10.389
34573SOL     OW 5557  13.168   1.134  13.304
34573SOL    HW1 5558  13.114   1.059  13.330
34573SOL    HW2 5559  13.159   1.138  13.209
34574SOL     OW 5560   4.173  11.563   6.544
34574SOL    HW1 5561   4.199  11.498   6.478
34574SOL    HW2 5562   4.132  11.513   6.613
34575SOL     OW 5563   4.251   2.473   7.678
34575SOL    HW1 5564   4.305   2.467   7.599
34575SOL    HW2 5565   4.211   2.386   7.686
34576SOL     OW 5566  10.473   5.244  10.683
34576SOL    HW1 5567  10.510   5.308  10.744
34576SOL    HW2 5568  10.384   5.231  10.714
34577SOL     OW 5569   5.229  10.761  12.754
34577SOL    HW1 5570   5.214  10.739  12.662
34577SOL    HW2 5571   5.309  10.713  12.776
34578SOL     OW 5572   2.521   2.777   9.031
34578SOL    HW1 5573   2.475   2.858   9.008
34578SOL    HW2 5574   2.550   2.790   9.121
34579SOL     OW 5575   5.796   3.311  13.999
34579SOL    HW1 5576   5.773   3.403  14.009
34579SOL    HW2 5577   5.888   3.311  13.973
34580SOL     OW 5578  10.170   8.827  13.616
34580SOL    HW1 5579  10.239   8.762  13.623
34580SOL    HW2 5580  10.094   8.778  13.584
34581SOL     OW 5581   1.642  11.164  11.908
34581SOL    HW1 5582   1.620  11.257  11.918
34581SOL    HW2 5583   1.713  11.149  11.971
34582SOL     OW 5584   4.460   2.488  14.118
34582SOL    HW1 5585   4.525   2.429  14.082
34582SOL    HW2 5586   4.511   2.560  14.157
34583SOL     OW 5587   8.148   8.451  14.745
34583SOL    HW1 5588   8.158   8.415  14.833
34583SOL    HW2 5589   8.057   8.479  14.740
34584SOL     OW 5590   8.622   0.943   3.876
34584SOL    HW1 5591   8.637   0.977   3.964
34584SOL    HW2 5592   8.527   0.954   3.863
34585SOL     OW 5593   2.030   1.882   5.595
34585SOL    HW1 5594   2.112   1.838   5.570
34585SOL    HW2 5595   1.973   1.871   5.519
34586SOL     OW 5596   6.751   0.432   5.419
34586SOL    HW1 5597   6.718   0.505   5.471
34586SOL    HW2 5598   6.805   0.473   5.351
34587SOL     OW 5599  14.790  11.847   4.708
34587SOL    HW1 5600  14.742  11.907   4.765
34587SOL    HW2 5601   0.000  11.863   4.728
34588SOL     OW 5602   2.249  11.623   3.904
34588SOL    HW1 5603   2.246  11.544   3.958
34588SOL    HW2 5604   2.195  11.686   3.951
34589SOL     OW 5605   3.038   1.192   3.601
34589SOL    HW1 5606   2.960   1.183   3.657
34589SOL    HW2 5607   3.065   1.102   3.583
34590SOL     OW 5608   8.567   3.799  10.142
34590SOL    HW1 5609   8.654   3.828  10.114
34590SOL    HW2 5610   8.513   3.808  10.064
34591SOL     OW 5611  14.036  10.578   3.321
34591SOL    HW1 5612  13.977  10.586   3.396
34591SOL    HW2 5613  14.115  10.537   3.357
34592SOL     OW 5614   4.303  14.418   4.071
34592SOL    HW1 5615   4.259  14.500   4.046
34592SOL    HW2 5616   4.319  14.427   4.165
34593SOL     OW 5617   3.284  10.391   4.437
34593SOL    HW1 5618   3.240  10.316   4.397
34593SOL    HW2 5619   3.223  10.424   4.502
34594SOL     OW 5620   1.474   8.050   4.950
34594SOL    HW1 5621   1.521   7.967   4.940
34594SOL    HW2 5622   1.533   8.106   5.001
34595SOL     OW 5623   2.886   4.709   2.704
34595SOL    HW1 5624   2.877   4.785   2.646
34595SOL    HW2 5625   2.976   4.712   2.734
34596SOL     OW 5626   7.188   5.892   5.508
34596SOL    HW1 5627   7.247   5.816   5.517
34596SOL    HW2 5628   7.101   5.853   5.502
34597SOL     OW 5629   6.737  12.970   3.797
34597SOL    HW1 5630   6.823  12.934   3.821
34597SOL    HW2 5631   6.709  12.917   3.722
34598SOL     OW 5632  14.391   3.981   8.107
34598SOL    HW1 5633  14.371   4.070   8.137
34598SOL    HW2 5634  14.309   3.934   8.114
34599SOL     OW 5635  11.592   9.911   2.578
34599SOL    HW1 5636  11.574   9.999   2.545
34599SOL    HW2 5637  11.685   9.898   2.560
34600SOL     OW 5638   6.707  10.784   9.103
34600SOL    HW1 5639   6.772  10.744   9.161
34600SOL    HW2 5640   6.730  10.752   9.016
34601SOL     OW 5641  12.004  10.208   1.457
34601SOL    HW1 5642  11.938  10.151   1.417
34601SOL    HW2 5643  12.007  10.180   1.549
34602SOL     OW 5644   4.808   4.461  12.346
34602SOL    HW1 5645   4.861   4.474  12.425
34602SOL    HW2 5646   4.764   4.546  12.333
34603SOL     OW 5647  14.081   5.177   9.111
34603SOL    HW1 5648  14.089   5.238   9.185
34603SOL    HW2 5649  14.000   5.202   9.068
34604SOL     OW 5650   3.018   7.553  12.255
34604SOL    HW1 5651   3.054   7.478  12.207
34604SOL    HW2 5652   3.095   7.598  12.289
34605SOL     OW 5653   9.846   5.768   9.811
34605SOL    HW1 5654   9.870   5.798   9.899
34605SOL    HW2 5655   9.875   5.677   9.808
34606SOL     OW 5656  14.279   8.771   2.787
34606SOL    HW1 5657  14.267   8.824   2.865
34606SOL    HW2 5658  14.292   8.835   2.716
34607SOL     OW 5659  14.819   1.458   9.383
34607SOL    HW1 5660  14.735   1.426   9.350
34607SOL    HW2 5661  14.799   1.542   9.424
34608SOL     OW 5662  11.502   5.452   1.780
34608SOL    HW1 5663  11.475   5.489   1.696
34608SOL    HW2 5664  11.472   5.361   1.777
34609SOL     OW 5665   0.377   4.024   5.727
34609SOL    HW1 5666   0.436   4.011   5.802
34609SOL    HW2 5667   0.339   3.937   5.711
34610SOL     OW 5668  10.548  14.316  14.129
34610SOL    HW1 5669  10.485  14.349  14.193
34610SOL    HW2 5670  10.499  14.250  14.079
34611SOL     OW 5671   5.675   9.234  10.610
34611SOL    HW1 5672   5.735   9.175  10.564
34611SOL    HW2 5673   5.683   9.211  10.702
34612SOL     OW 5674   2.930   2.906   6.193
34612SOL    HW1 5675   3.012   2.883   6.236
34612SOL    HW2 5676   2.955   2.928   6.103
34613SOL     OW 5677   5.244  14.751   1.232
34613SOL    HW1 5678   5.308  14.688   1.267
34613SOL    HW2 5679   5.188  14.699   1.175
34614SOL     OW 5680  14.394   6.311   8.743
34614SOL    HW1 5681  14.430   6.382   8.796
34614SOL    HW2 5682  14.435   6.232   8.780
34615SOL     OW 5683   0.546   6.409  10.269
34615SOL    HW1 5684   0.491   6.487  10.265
34615SOL    HW2 5685   0.616   6.425  10.207
34616SOL     OW 5686  12.932   1.474   6.807
34616SOL    HW1 5687  12.948   1.401   6.747
34616SOL    HW2 5688  13.018   1.514   6.820
34617SOL     OW 5689  11.091   5.280  14.870
34617SOL    HW1 5690  11.006   5.313  14.839
34617SOL    HW2 5691  11.078   5.186  14.882
34618SOL     OW 5692   3.444  12.260  12.598
34618SOL    HW1 5693   3.432  12.165  12.602
34618SOL    HW2 5694   3.533  12.274  12.632
34619SOL     OW 5695   4.276   7.822   3.502
34619SOL    HW1 5696   4.313   7.734   3.492
34619SOL    HW2 5697   4.201   7.809   3.562
34620SOL     OW 5698   3.603   6.568  14.037
34620SOL    HW1 5699   3.665   6.495  14.044
34620SOL    HW2 5700   3.520   6.526  14.013
34621SOL     OW 5701   6.931   0.774  14.735
34621SOL    HW1 5702   6.995   0.711  14.768
34621SOL    HW2 5703   6.853   0.722  14.715
34622SOL     OW 5704   7.202  11.852   5.249
34622SOL    HW1 5705   7.154  11.771   5.264
34622SOL    HW2 5706   7.173  11.911   5.319
34623SOL     OW 5707  10.070   3.617  13.349
34623SOL    HW1 5708  10.016   3.684  13.308
34623SOL    HW2 5709  10.107   3.567  13.276
34624SOL     OW 5710   8.580   9.394   6.958
34624SOL    HW1 5711   8.605   9.356   7.042
34624SOL    HW2 5712   8.638   9.469   6.947
34625SOL     OW 5713   8.537   2.341   2.230
34625SOL    HW1 5714   8.442   2.344   2.232
34625SOL    HW2 5715   8.560   2.279   2.300
34626SOL     OW 5716   1.702   0.829  13.524
34626SOL    HW1 5717   1.779   0.787  13.486
34626SOL    HW2 5718   1.697   0.794  13.613
34627SOL     OW 5719   7.791  10.748   2.874
34627SOL    HW1 5720   7.772  10.736   2.780
34627SOL    HW2 5721   7.863  10.687   2.891
34628SOL     OW 5722   6.835   4.039  13.385
34628SOL    HW1 5723   6.835   3.944  13.394
34628SOL    HW2 5724   6.889   4.056  13.308
34629SOL     OW 5725  10.716   4.123   9.729
34629SOL    HW1 5726  10.757   4.208   9.715
34629SOL    HW2 5727  10.733   4.075   9.648
34630SOL     OW 5728  12.191  10.636   9.211
34630SOL    HW1 5729  12.282  10.612   9.194
34630SOL    HW2 5730  12.196  10.727   9.240
34631SOL     OW 5731   9.095   4.902  13.334
34631SOL    HW1 5732   9.170   4.956  13.310
34631SOL    HW2 5733   9.076   4.852  13.255
34632SOL     OW 5734   9.435   3.938   6.198
34632SOL    HW1 5735   9.457   4.021   6.156
34632SOL    HW2 5736   9.351   3.955   6.242
34633SOL     OW 5737   5.614  11.042   7.041
34633SOL    HW1 5738   5.671  11.113   7.012
34633SOL    HW2 5739   5.643  11.023   7.130
34634SOL     OW 5740   3.743   7.210   2.199
34634SOL    HW1 5741   3.820   7.244   2.246
34634SOL    HW2 5742   3.774   7.196   2.109
34635SOL     OW 5743   6.094   6.900   1.406
34635SOL    HW1 5744   6.156   6.946   1.349
34635SOL    HW2 5745   6.010   6.909   1.361
34636SOL     OW 5746   6.584   9.971  11.501
34636SOL    HW1 5747   6.613  10.011  11.419
34636SOL    HW2 5748   6.528   9.899  11.474
34637SOL     OW 5749   5.605   4.835  10.938
34637SOL    HW1 5750   5.526   4.812  10.987
34637SOL    HW2 5751   5.578   4.907  10.881
34638SOL     OW 5752   4.699   4.928   6.781
34638SOL    HW1 5753   4.705   4.999   6.716
34638SOL    HW2 5754   4.716   4.972   6.864
34639SOL     OW 5755   0.248   2.807  12.652
34639SOL    HW1 5756   0.339   2.815  12.679
34639SOL    HW2 5757   0.205   2.765  12.727
34640SOL     OW 5758   8.351   5.292   1.717
34640SOL    HW1 5759   8.384   5.379   1.693
34640SOL    HW2 5760   8.289   5.308   1.788
34641SOL     OW 5761   2.810  14.025  13.674
34641SOL    HW1 5762   2.763  14.049  13.594
34641SOL    HW2 5763   2.860  14.103  13.697
34642SOL     OW 5764   1.784   8.273   8.082
34642SOL    HW1 5765   1.833   8.331   8.024
34642SOL    HW2 5766   1.813   8.297   8.170
34643SOL     OW 5767  12.763  13.651   8.518
34643SOL    HW1 5768  12.765  13.685   8.608
34643SOL    HW2 5769  12.710  13.571   8.524
34644SOL     OW 5770   4.332   3.338  11.281
34644SOL    HW1 5771   4.264   3.379  11.228
34644SOL    HW2 5772   4.411   3.343  11.227
34645SOL     OW 5773   9.336  14.627  13.348
34645SOL    HW1 5774   9.296  14.654  13.431
34645SOL    HW2 5775   9.302  14.540  13.332
34646SOL     OW 5776   1.914   3.295   5.409
34646SOL    HW1 5777   1.892   3.284   5.316
34646SOL    HW2 5778   1.964   3.376   5.412
34647SOL     OW 5779   0.529   0.694   4.245
34647SOL    HW1 5780   0.488   0.780   4.241
34647SOL    HW2 5781   0.464   0.638   4.289
34648SOL     OW 5782   5.945  12.967   6.977
34648SOL    HW1 5783   5.937  13.055   6.940
34648SOL    HW2 5784   6.027  12.933   6.940
34649SOL     OW 5785  13.366  12.266   0.959
34649SOL    HW1 5786  13.337  12.334   1.019
34649SOL    HW2 5787  13.456  12.247   0.985
34650SOL     OW 5788   3.503   4.835  14.226
34650SOL    HW1 5789   3.559   4.855  14.151
34650SOL    HW2 5790   3.450   4.761  14.197
34651SOL     OW 5791   5.594  12.061   9.628
34651SOL    HW1 5792   5.564  12.126   9.690
34651SOL    HW2 5793   5.690  12.066   9.632
34652SOL     OW 5794  13.726   5.494   6.828
34652SOL    HW1 5795  13.719   5.575   6.777
34652SOL    HW2 5796  13.636   5.462   6.834
34653SOL     OW 5797   2.238   0.113   4.919
34653SOL    HW1 5798   2.167   0.050   4.908
34653SOL    HW2 5799   2.213   0.188   4.866
34654SOL     OW 5800   4.889   2.173  14.754
34654SOL    HW1 5801   4.899   2.078  14.755
34654SOL    HW2 5802   4.973   2.207  14.785
34655SOL     OW 5803   1.290   6.148  14.252
34655SOL    HW1 5804   1.334   6.214  14.304
34655SOL    HW2 5805   1.210   6.128  14.300
34656SOL     OW 5806   0.537   8.693   4.795
34656SOL    HW1 5807   0.511   8.659   4.709
34656SOL    HW2 5808   0.626   8.659   4.809
34657SOL     OW 5809   0.415   5.073   0.695
34657SOL    HW1 5810   0.392   5.097   0.605
34657SOL    HW2 5811   0.511   5.071   0.695
34658SOL     OW 5812   4.550  10.994  11.361
34658SOL    HW1 5813   4.526  11.021  11.450
34658SOL    HW2 5814   4.467  10.977  11.318
34659SOL     OW 5815   3.233  10.459  12.751
34659SOL    HW1 5816   3.312  10.434  12.703
34659SOL    HW2 5817   3.226  10.554  12.738
34660SOL     OW 5818   4.849  13.028   2.421
34660SOL    HW1 5819   4.757  13.042   2.443
34660SOL    HW2 5820   4.892  13.018   2.506
34661SOL     OW 5821   2.033   6.599   3.051
34661SOL    HW1 5822   2.033   6.503   3.048
34661SOL    HW2 5823   2.124   6.622   3.072
34662SOL     OW 5824   6.082   2.753   7.607
34662SOL    HW1 5825   6.079   2.844   7.636
34662SOL    HW2 5826   6.165   2.745   7.560
34663SOL     OW 5827   3.400   8.786  13.547
34663SOL    HW1 5828   3.352   8.831  13.479
34663SOL    HW2 5829   3.388   8.840  13.625
34664SOL     OW 5830   4.153  11.283  13.797
34664SOL    HW1 5831   4.121  11.267  13.708
34664SOL    HW2 5832   4.136  11.202  13.844
34665SOL     OW 5833   4.242   8.767   1.719
34665SOL    HW1 5834   4.308   8.825   1.757
34665SOL    HW2 5835   4.192   8.734   1.794
34666SOL     OW 5836  14.350   9.168   6.283
34666SOL    HW1 5837  14.290   9.119   6.228
34666SOL    HW2 5838  14.384   9.237   6.226
34667SOL     OW 5839  10.997   2.343  10.162
34667SOL    HW1 5840  10.903   2.359  10.164
34667SOL    HW2 5841  11.015   2.297  10.244
34668SOL     OW 5842   7.183   4.148   4.270
34668SOL    HW1 5843   7.173   4.059   4.235
34668SOL    HW2 5844   7.173   4.136   4.365
34669SOL     OW 5845   8.829   1.778  14.463
34669SOL    HW1 5846   8.902   1.822  14.420
34669SOL    HW2 5847   8.775   1.849  14.498
34670SOL     OW 5848   1.705  12.428   3.507
34670SOL    HW1 5849   1.797  12.431   3.480
34670SOL    HW2 5850   1.677  12.338   3.489
34671SOL     OW 5851   3.939   7.963   8.372
34671SOL    HW1 5852   3.912   7.945   8.462
34671SOL    HW2 5853   3.906   7.888   8.322
34672SOL     OW 5854  10.020   7.108   8.892
34672SOL    HW1 5855  10.085   7.047   8.858
34672SOL    HW2 5856   9.959   7.053   8.941
34673SOL     OW 5857   1.274  12.222  13.366
34673SOL    HW1 5858   1.317  12.180  13.292
34673SOL    HW2 5859   1.317  12.186  13.444
34674SOL     OW 5860  12.341   9.760  10.996
34674SOL    HW1 5861  12.339   9.826  11.065
34674SOL    HW2 5862  12.328   9.810  10.915
34675SOL     OW 5863   1.098   7.168   8.363
34675SOL    HW1 5864   1.089   7.195   8.454
34675SOL    HW2 5865   1.189   7.186   8.340
34676SOL     OW 5866  12.323  11.079   8.448
34676SOL    HW1 5867  12.273  11.150   8.489
34676SOL    HW2 5868  12.261  11.005   8.445
34677SOL     OW 5869   4.437  12.301   1.158
34677SOL    HW1 5870   4.494  12.270   1.228
34677SOL    HW2 5871   4.379  12.364   1.201
34678SOL     OW 5872   1.475   2.336   3.299
34678SOL    HW1 5873   1.399   2.330   3.357
34678SOL    HW2 5874   1.538   2.274   3.335
34679SOL     OW 5875  11.335   5.186  13.895
34679SOL    HW1 5876  11.419   5.232  13.891
34679SOL    HW2 5877  11.283   5.224  13.824
34680SOL     OW 5878   2.694  12.691   0.258
34680SOL    HW1 5879   2.679  12.597   0.243
34680SOL    HW2 5880   2.611  12.732   0.233
34681SOL     OW 5881  12.965   0.618   7.838
34681SOL    HW1 5882  13.052   0.655   7.822
34681SOL    HW2 5883  12.911   0.651   7.766
34682SOL     OW 5884   3.911   1.320   1.249
34682SOL    HW1 5885   3.977   1.382   1.218
34682SOL    HW2 5886   3.886   1.352   1.336
34683SOL     OW 5887   9.392   0.598  11.154
34683SOL    HW1 5888   9.472   0.644  11.177
34683SOL    HW2 5889   9.406   0.569  11.063
34684SOL     OW 5890   9.160   4.061   5.579
34684SOL    HW1 5891   9.168   4.151   5.610
34684SOL    HW2 5892   9.106   4.018   5.645
34685SOL     OW 5893  10.591  13.462   5.303
34685SOL    HW1 5894  10.673  13.466   5.253
34685SOL    HW2 5895  10.531  13.520   5.255
34686SOL     OW 5896  11.397   5.825   5.078
34686SOL    HW1 5897  11.426   5.896   5.134
34686SOL    HW2 5898  11.326   5.862   5.026
34687SOL     OW 5899   9.624  14.769   3.291
34687SOL    HW1 5900   9.535  14.738   3.310
34687SOL    HW2 5901   9.647  14.822   3.367
34688SOL     OW 5902   3.923   9.672   2.679
34688SOL    HW1 5903   4.014   9.670   2.708
34688SOL    HW2 5904   3.927   9.647   2.586
34689SOL     OW 5905  12.291   0.214   7.774
34689SOL    HW1 5906  12.202   0.229   7.744
34689SOL    HW2 5907  12.282   0.177   7.862
34690SOL     OW 5908   9.277   6.821   4.284
34690SOL    HW1 5909   9.331   6.793   4.211
34690SOL    HW2 5910   9.217   6.747   4.299
34691SOL     OW 5911  12.665   2.238   4.801
34691SOL    HW1 5912  12.712   2.237   4.717
34691SOL    HW2 5913  12.574   2.217   4.777
34692SOL     OW 5914   0.878   1.844   2.084
34692SOL    HW1 5915   0.919   1.924   2.117
34692SOL    HW2 5916   0.785   1.865   2.077
34693SOL     OW 5917   1.890   9.020   0.229
34693SOL    HW1 5918   1.822   8.980   0.283
34693SOL    HW2 5919   1.845   9.051   0.151
34694SOL     OW 5920  10.090  13.930   9.497
34694SOL    HW1 5921  10.013  13.896   9.542
34694SOL    HW2 5922  10.080  14.025   9.504
34695SOL     OW 5923  10.090   9.033  13.447
34695SOL    HW1 5924  10.129   8.973  13.510
34695SOL    HW2 5925   9.999   9.041  13.474
34696SOL     OW 5926   5.421   0.801  10.451
34696SOL    HW1 5927   5.438   0.873  10.391
34696SOL    HW2 5928   5.506   0.760  10.466
34697SOL     OW 5929   3.153   4.251   9.030
34697SOL    HW1 5930   3.195   4.289   8.953
34697SOL    HW2 5931   3.076   4.207   8.997
34698SOL     OW 5932   1.658  12.426   0.804
34698SOL    HW1 5933   1.595  12.358   0.781
34698SOL    HW2 5934   1.613  12.508   0.784
34699SOL     OW 5935   0.694  10.693   7.140
34699SOL    HW1 5936   0.662  10.783   7.143
34699SOL    HW2 5937   0.744  10.689   7.058
34700SOL     OW 5938  13.350   2.437   0.254
34700SOL    HW1 5939  13.285   2.482   0.308
34700SOL    HW2 5940  13.424   2.422   0.313
34701SOL     OW 5941   3.904   2.568   5.001
34701SOL    HW1 5942   3.882   2.659   4.981
34701SOL    HW2 5943   3.991   2.555   4.963
34702SOL     OW 5944  12.690   9.218   2.890
34702SOL    HW1 5945  12.654   9.263   2.813
34702SOL    HW2 5946  12.751   9.153   2.855
34703SOL     OW 5947   7.720   0.716   2.698
34703SOL    HW1 5948   7.769   0.791   2.663
34703SOL    HW2 5949   7.733   0.647   2.633
34704SOL     OW 5950  13.105  10.167  13.254
34704SOL    HW1 5951  13.091  10.253  13.214
34704SOL    HW2 5952  13.109  10.106  13.180
34705SOL     OW 5953  10.257   5.228  10.085
34705SOL    HW1 5954  10.228   5.301  10.139
34705SOL    HW2 5955  10.306   5.171  10.145
34706SOL     OW 5956   4.726   7.447  11.096
34706SOL    HW1 5957   4.742   7.537  11.068
34706SOL    HW2 5958   4.748   7.394  11.020
34707SOL     OW 5959  11.414   2.817  12.021
34707SOL    HW1 5960  11.452   2.856  12.100
34707SOL    HW2 5961  11.444   2.874  11.950
34708SOL     OW 5962   5.008   2.784  13.573
34708SOL    HW1 5963   5.069   2.710  13.576
34708SOL    HW2 5964   4.955   2.768  13.495
34709SOL     OW 5965   3.068  10.784  14.580
34709SOL    HW1 5966   3.001  10.720  14.553
34709SOL    HW2 5967   3.027  10.869  14.563
34710SOL     OW 5968  11.020   6.769  13.096
34710SOL    HW1 5969  10.996   6.859  13.075
34710SOL    HW2 5970  10.939   6.730  13.129
34711SOL     OW 5971   1.507   1.902  14.489
34711SOL    HW1 5972   1.420   1.863  14.494
34711SOL    HW2 5973   1.517   1.949  14.572
34712SOL     OW 5974   0.792   1.159  10.252
34712SOL    HW1 5975   0.788   1.253  10.269
34712SOL    HW2 5976   0.797   1.119  10.339
34713SOL     OW 5977  13.682   2.386   1.665
34713SOL    HW1 5978  13.642   2.400   1.751
34713SOL    HW2 5979  13.743   2.459   1.654
34714SOL     OW 5980   3.362  11.498  14.703
34714SOL    HW1 5981   3.416  11.547  14.765
34714SOL    HW2 5982   3.395  11.523  14.617
34715SOL     OW 5983   0.464   4.321  12.038
34715SOL    HW1 5984   0.499   4.365  12.116
34715SOL    HW2 5985   0.512   4.360  11.965
34716SOL     OW 5986  11.414  12.792  11.242
34716SOL    HW1 5987  11.364  12.814  11.321
34716SOL    HW2 5988  11.455  12.708  11.262
34717SOL     OW 5989   1.974   4.609   4.578
34717SOL    HW1 5990   1.901   4.553   4.604
34717SOL    HW2 5991   1.945   4.698   4.600
34718SOL     OW 5992   0.614   9.957   8.507
34718SOL    HW1 5993   0.564  10.033   8.478
34718SOL    HW2 5994   0.693   9.957   8.452
34719SOL     OW 5995  11.504   3.639  11.890
34719SOL    HW1 5996  11.591   3.652  11.929
34719SOL    HW2 5997  11.523   3.603  11.803
34720SOL     OW 5998   2.952   9.798  10.373
34720SOL    HW1 5999   2.886   9.760  10.316
34720SOL    HW2 6000   2.930   9.766  10.461
34721SOL     OW 6001   2.343   6.881   5.682
34721SOL    HW1 6002   2.407   6.934   5.635
34721SOL    HW2 6003   2.387   6.857   5.764
34722SOL     OW 6004   2.006   1.137  12.929
34722SOL    HW1 6005   1.951   1.201  12.975
34722SOL    HW2 6006   2.069   1.190  12.880
34723SOL     OW 6007   9.933  13.996   5.020
34723SOL    HW1 6008   9.910  13.961   4.933
34723SOL    HW2 6009  10.025  13.973   5.031
34724SOL     OW 6010   7.868   2.943   4.658
34724SOL    HW1 6011   7.819   3.024   4.648
34724SOL    HW2 6012   7.832   2.902   4.737
34725SOL     OW 6013  11.653  11.454   7.654
34725SOL    HW1 6014  11.587  11.520   7.632
34725SOL    HW2 6015  11.697  11.436   7.571
34726SOL     OW 6016  13.959   2.265  13.507
34726SOL    HW1 6017  14.028   2.273  13.572
34726SOL    HW2 6018  13.915   2.183  13.529
34727SOL     OW 6019   4.225  11.541  10.825
34727SOL    HW1 6020   4.165  11.474  10.792
34727SOL    HW2 6021   4.252  11.589  10.746
34728SOL     OW 6022  11.612   7.143   7.747
34728SOL    HW1 6023  11.602   7.048   7.751
34728SOL    HW2 6024  11.703   7.158   7.774
34729SOL     OW 6025   2.238   3.897   1.062
34729SOL    HW1 6026   2.169   3.884   1.127
34729SOL    HW2 6027   2.206   3.968   1.006
34730SOL     OW 6028  12.599  10.401   5.728
34730SOL    HW1 6029  12.609  10.311   5.758
34730SOL    HW2 6030  12.609  10.454   5.807
34731SOL     OW 6031   0.660   1.435  10.210
34731SOL    HW1 6032   0.746   1.421  10.171
34731SOL    HW2 6033   0.621   1.505  10.157
34732SOL     OW 6034  12.507  14.762   7.044
34732SOL    HW1 6035  12.601  14.749   7.028
34732SOL    HW2 6036  12.474  14.797   6.961
34733SOL     OW 6037   8.791   2.984   0.203
34733SOL    HW1 6038   8.860   2.917   0.209
34733SOL    HW2 6039   8.714   2.935   0.174
34734SOL     OW 6040   0.539   6.266   0.250
34734SOL    HW1 6041   0.584   6.346   0.223
34734SOL    HW2 6042   0.447   6.285   0.235
34735SOL     OW 6043  10.386  14.588   1.573
34735SOL    HW1 6044  10.412  14.642   1.499
34735SOL    HW2 6045  10.405  14.498   1.545
34736SOL     OW 6046   0.308   4.625  12.166
34736SOL    HW1 6047   0.276   4.537  12.150
34736SOL    HW2 6048   0.403   4.616  12.168
34737SOL     OW 6049   6.178   2.673   2.472
34737SOL    HW1 6050   6.103   2.615   2.489
34737SOL    HW2 6051   6.184   2.677   2.377
34738SOL     OW 6052  11.815   2.278  11.390
34738SOL    HW1 6053  11.911   2.285  11.385
34738SOL    HW2 6054  11.799   2.195  11.435
34739SOL     OW 6055   0.532  12.219   1.747
34739SOL    HW1 6056   0.457  12.180   1.793
34739SOL    HW2 6057   0.599  12.230   1.815
34740SOL     OW 6058   7.527  13.209   4.177
34740SOL    HW1 6059   7.450  13.216   4.120
34740SOL    HW2 6060   7.511  13.131   4.230
34741SOL     OW 6061   1.475  12.638   0.868
34741SOL    HW1 6062   1.423  12.702   0.820
34741SOL    HW2 6063   1.556  12.684   0.890
34742SOL     OW 6064   5.492   5.253  10.996
34742SOL    HW1 6065   5.450   5.339  10.994
34742SOL    HW2 6066   5.475   5.216  10.910
34743SOL     OW 6067   0.590  10.436  10.806
34743SOL    HW1 6068   0.656  10.504  10.824
34743SOL    HW2 6069   0.640  10.360  10.779
34744SOL     OW 6070   3.876  12.809   1.086
34744SOL    HW1 6071   3.882  12.824   0.991
34744SOL    HW2 6072   3.784  12.821   1.107
34745SOL     OW 6073  11.052  11.458   1.035
34745SOL    HW1 6074  11.124  11.519   1.021
34745SOL    HW2 6075  11.048  11.448   1.131
34746SOL     OW 6076  13.565   4.133   3.018
34746SOL    HW1 6077  13.621   4.056   3.016
34746SOL    HW2 6078  13.560   4.156   3.111
34747SOL     OW 6079   0.436  11.946   0.100
34747SOL    HW1 6080   0.532  11.955   0.096
34747SOL    HW2 6081   0.408  12.022   0.151
34748SOL     OW 6082   3.114   1.216  13.204
34748SOL    HW1 6083   3.055   1.262  13.264
34748SOL    HW2 6084   3.168   1.286  13.165
34749SOL     OW 6085  14.345   1.371   0.305
34749SOL    HW1 6086  14.384   1.294   0.346
34749SOL    HW2 6087  14.261   1.340   0.271
34750SOL     OW 6088   0.903   0.615  11.675
34750SOL    HW1 6089   0.943   0.651  11.755
34750SOL    HW2 6090   0.960   0.644  11.604
34751SOL     OW 6091  14.107   1.006   1.976
34751SOL    HW1 6092  14.075   1.097   1.975
34751SOL    HW2 6093  14.108   0.981   1.884
34752SOL     OW 6094   7.194  13.591   0.716
34752SOL    HW1 6095   7.226  13.585   0.806
34752SOL    HW2 6096   7.224  13.676   0.685
34753SOL     OW 6097  11.452  13.069   7.350
34753SOL    HW1 6098  11.469  13.087   7.442
34753SOL    HW2 6099  11.370  13.115   7.332
34754SOL     OW 6100  10.625   1.146  14.546
34754SOL    HW1 6101  10.618   1.176  14.456
34754SOL    HW2 6102  10.674   1.064  14.541
34755SOL     OW 6103   8.715   8.053   0.588
34755SOL    HW1 6104   8.775   8.026   0.518
34755SOL    HW2 6105   8.671   8.131   0.554
34756SOL     OW 6106   1.821   7.889  12.297
34756SOL    HW1 6107   1.879   7.889  12.220
34756SOL    HW2 6108   1.858   7.955  12.355
34757SOL     OW 6109   6.835   0.874  10.815
34757SOL    HW1 6110   6.821   0.969  10.818
34757SOL    HW2 6111   6.756   0.837  10.853
34758SOL     OW 6112  12.078  12.858   3.689
34758SOL    HW1 6113  12.065  12.843   3.596
34758SOL    HW2 6114  12.147  12.797   3.715
34759SOL     OW 6115   0.424  13.380   8.991
34759SOL    HW1 6116   0.473  13.352   8.914
34759SOL    HW2 6117   0.448  13.471   9.004
34760SOL     OW 6118   2.461   2.255   1.261
34760SOL    HW1 6119   2.443   2.242   1.167
34760SOL    HW2 6120   2.378   2.289   1.296
34761SOL     OW 6121   6.252  10.680   0.913
34761SOL    HW1 6122   6.322  10.638   0.963
34761SOL    HW2 6123   6.188  10.706   0.979
34762SOL     OW 6124  11.055  11.251   0.645
34762SOL    HW1 6125  11.147  11.252   0.618
34762SOL    HW2 6126  11.008  11.289   0.571
34763SOL     OW 6127   4.348   0.676   7.918
34763SOL    HW1 6128   4.258   0.687   7.950
34763SOL    HW2 6129   4.364   0.751   7.862
34764SOL     OW 6130  11.983  11.771  13.708
34764SOL    HW1 6131  11.974  11.747  13.800
34764SOL    HW2 6132  11.979  11.867  13.708
34765SOL     OW 6133   1.532   9.428   4.920
34765SOL    HW1 6134   1.512   9.485   4.846
34765SOL    HW2 6135   1.470   9.355   4.911
34766SOL     OW 6136   4.933  12.103   5.337
34766SOL    HW1 6137   5.001  12.076   5.399
34766SOL    HW2 6138   4.954  12.194   5.317
34767SOL     OW 6139   4.881  11.552   0.235
34767SOL    HW1 6140   4.825  11.629   0.233
34767SOL    HW2 6141   4.872  11.518   0.325
34768SOL     OW 6142  11.501   0.909   2.227
34768SOL    HW1 6143  11.408   0.903   2.206
34768SOL    HW2 6144  11.538   0.826   2.195
34769SOL     OW 6145   2.212   0.417   1.597
34769SOL    HW1 6146   2.178   0.499   1.562
34769SOL    HW2 6147   2.144   0.353   1.579
34770SOL     OW 6148   3.606   2.546   4.673
34770SOL    HW1 6149   3.579   2.468   4.723
34770SOL    HW2 6150   3.678   2.516   4.618
34771SOL     OW 6151   9.017  10.542   3.866
34771SOL    HW1 6152   9.056  10.492   3.938
34771SOL    HW2 6153   9.042  10.494   3.787
34772SOL     OW 6154   3.114  14.013  10.626
34772SOL    HW1 6155   3.025  13.981  10.611
34772SOL    HW2 6156   3.153  13.948  10.686
34773SOL     OW 6157   2.155   2.674   3.821
34773SOL    HW1 6158   2.067   2.681   3.858
34773SOL    HW2 6159   2.152   2.724   3.739
34774SOL     OW 6160   5.150  14.011   2.529
34774SOL    HW1 6161   5.076  13.952   2.546
34774SOL    HW2 6162   5.126  14.092   2.575
34775SOL     OW 6163   8.721  13.352   4.898
34775SOL    HW1 6164   8.639  13.352   4.947
34775SOL    HW2 6165   8.763  13.434   4.922
34776SOL     OW 6166   9.041  12.990   3.419
34776SOL    HW1 6167   9.021  13.069   3.368
34776SOL    HW2 6168   9.023  12.918   3.358
34777SOL     OW 6169   6.017  11.385   3.207
34777SOL    HW1 6170   6.008  11.476   3.179
34777SOL    HW2 6171   5.995  11.334   3.129
34778SOL     OW 6172   3.317   8.822   8.929
34778SOL    HW1 6173   3.225   8.794   8.919
34778SOL    HW2 6174   3.359   8.747   8.972
34779SOL     OW 6175  11.272   3.248   6.021
34779SOL    HW1 6176  11.270   3.303   5.943
34779SOL    HW2 6177  11.277   3.310   6.094
34780SOL     OW 6178   1.589   0.118   4.519
34780SOL    HW1 6179   1.633   0.197   4.489
34780SOL    HW2 6180   1.655   0.071   4.571
34781SOL     OW 6181   0.579   9.819   2.875
34781SOL    HW1 6182   0.514   9.889   2.888
34781SOL    HW2 6183   0.663   9.863   2.885
34782SOL     OW 6184   7.160   2.124   8.129
34782SOL    HW1 6185   7.221   2.186   8.088
34782SOL    HW2 6186   7.105   2.093   8.057
34783SOL     OW 6187   8.417   0.140  13.332
34783SOL    HW1 6188   8.396   0.102  13.417
34783SOL    HW2 6189   8.417   0.066  13.272
34784SOL     OW 6190   1.171   2.594  13.508
34784SOL    HW1 6191   1.223   2.618  13.585
34784SOL    HW2 6192   1.229   2.611  13.434
34785SOL     OW 6193   2.902   2.251   4.595
34785SOL    HW1 6194   2.879   2.251   4.502
34785SOL    HW2 6195   2.838   2.310   4.636
34786SOL     OW 6196   1.404   3.870   4.001
34786SOL    HW1 6197   1.444   3.791   3.965
34786SOL    HW2 6198   1.457   3.891   4.078
34787SOL     OW 6199   4.276   4.052  12.353
34787SOL    HW1 6200   4.278   4.129  12.297
34787SOL    HW2 6201   4.330   4.075  12.429
34788SOL     OW 6202  10.851   5.282  12.265
34788SOL    HW1 6203  10.811   5.205  12.303
34788SOL    HW2 6204  10.893   5.327  12.338
34789SOL     OW 6205  11.922  13.938   8.581
34789SOL    HW1 6206  11.836  13.917   8.618
34789SOL    HW2 6207  11.909  14.021   8.536
34790SOL     OW 6208  10.338   3.189   2.634
34790SOL    HW1 6209  10.270   3.185   2.568
34790SOL    HW2 6210  10.369   3.099   2.642
34791SOL     OW 6211   2.571  13.316   0.368
34791SOL    HW1 6212   2.598  13.326   0.459
34791SOL    HW2 6213   2.529  13.399   0.345
34792SOL     OW 6214  13.039   0.106  13.004
34792SOL    HW1 6215  12.981   0.032  13.019
34792SOL    HW2 6216  13.120   0.083  13.050
34793SOL     OW 6217  13.180  13.203  12.413
34793SOL    HW1 6218  13.150  13.127  12.463
34793SOL    HW2 6219  13.190  13.272  12.478
34794SOL     OW 6220   0.716   5.420   0.435
34794SOL    HW1 6221   0.744   5.331   0.412
34794SOL    HW2 6222   0.629   5.429   0.397
34795SOL     OW 6223   8.350  10.065   5.923
34795SOL    HW1 6224   8.409  10.028   5.990
34795SOL    HW2 6225   8.315   9.988   5.878
34796SOL     OW 6226   6.599  11.752   0.754
34796SOL    HW1 6227   6.585  11.715   0.842
34796SOL    HW2 6228   6.671  11.814   0.765
34797SOL     OW 6229  13.138   1.041   5.816
34797SOL    HW1 6230  13.066   1.080   5.766
34797SOL    HW2 6231  13.207   1.027   5.752
34798SOL     OW 6232  12.441   5.012   1.112
34798SOL    HW1 6233  12.514   4.955   1.090
34798SOL    HW2 6234  12.363   4.957   1.101
34799SOL     OW 6235   9.377  12.727  10.792
34799SOL    HW1 6236   9.304  12.789  10.789
34799SOL    HW2 6237   9.409  12.724  10.702
34800SOL     OW 6238   3.122   4.698   2.877
34800SOL    HW1 6239   3.172   4.769   2.836
34800SOL    HW2 6240   3.154   4.695   2.967
34801SOL     OW 6241   4.718  13.157   6.906
34801SOL    HW1 6242   4.722  13.188   6.816
34801SOL    HW2 6243   4.625  13.141   6.923
34802SOL     OW 6244   5.224   0.084   1.799
34802SOL    HW1 6245   5.243   0.007   1.745
34802SOL    HW2 6246   5.308   0.105   1.841
34803SOL     OW 6247  11.064   5.497   6.974
34803SOL    HW1 6248  11.110   5.413   6.983
34803SOL    HW2 6249  10.990   5.489   7.034
34804SOL     OW 6250   8.587   8.390   6.651
34804SOL    HW1 6251   8.571   8.484   6.654
34804SOL    HW2 6252   8.512   8.353   6.605
34805SOL     OW 6253   3.789   5.130   3.325
34805SOL    HW1 6254   3.850   5.058   3.314
34805SOL    HW2 6255   3.702   5.089   3.318
34806SOL     OW 6256  12.101   0.630  10.512
34806SOL    HW1 6257  12.049   0.640  10.432
34806SOL    HW2 6258  12.092   0.714  10.557
34807SOL     OW 6259   2.577   1.342   0.042
34807SOL    HW1 6260   2.493   1.337  14.880
34807SOL    HW2 6261   2.641   1.321  14.856
34808SOL     OW 6262  14.476  11.958   0.533
34808SOL    HW1 6263  14.459  11.864   0.533
34808SOL    HW2 6264  14.399  11.996   0.492
34809SOL     OW 6265  12.317  14.200   8.456
34809SOL    HW1 6266  12.394  14.243   8.418
34809SOL    HW2 6267  12.345  14.173   8.543
34810SOL     OW 6268   9.916   4.563   5.354
34810SOL    HW1 6269   9.845   4.524   5.405
34810SOL    HW2 6270   9.948   4.492   5.298
34811SOL     OW 6271   0.390  11.070   6.660
34811SOL    HW1 6272   0.436  11.112   6.733
34811SOL    HW2 6273   0.460  11.044   6.600
34812SOL     OW 6274   7.699  11.542   8.217
34812SOL    HW1 6275   7.684  11.465   8.163
34812SOL    HW2 6276   7.646  11.528   8.295
34813SOL     OW 6277  12.750  11.943   6.786
34813SOL    HW1 6278  12.755  11.953   6.881
34813SOL    HW2 6279  12.696  11.865   6.774
34814SOL     OW 6280  14.392  11.982  12.716
34814SOL    HW1 6281  14.404  12.011  12.806
34814SOL    HW2 6282  14.419  11.890  12.716
34815SOL     OW 6283   6.657   4.640   2.621
34815SOL    HW1 6284   6.591   4.637   2.551
34815SOL    HW2 6285   6.673   4.733   2.635
34816SOL     OW 6286   3.545   4.439   9.195
34816SOL    HW1 6287   3.461   4.393   9.199
34816SOL    HW2 6288   3.591   4.413   9.274
34817SOL     OW 6289   8.259   9.612  10.215
34817SOL    HW1 6290   8.181   9.591  10.267
34817SOL    HW2 6291   8.332   9.583  10.268
34818SOL     OW 6292   0.295   1.024   0.540
34818SOL    HW1 6293   0.299   0.964   0.615
34818SOL    HW2 6294   0.234   0.982   0.479
34819SOL     OW 6295   7.220  10.971   2.146
34819SOL    HW1 6296   7.270  11.046   2.114
34819SOL    HW2 6297   7.168  10.943   2.070
34820SOL     OW 6298  14.405   3.313   8.971
34820SOL    HW1 6299  14.377   3.231   9.012
34820SOL    HW2 6300  14.331   3.372   8.983
34821SOL     OW 6301  12.120   7.416   5.538
34821SOL    HW1 6302  12.210   7.425   5.570
34821SOL    HW2 6303  12.113   7.324   5.512
34822SOL     OW 6304   5.423   9.631  14.811
34822SOL    HW1 6305   5.512   9.642  14.846
34822SOL    HW2 6306   5.437   9.597  14.722
34823SOL     OW 6307   6.965  11.395  10.902
34823SOL    HW1 6308   6.986  11.416  10.993
34823SOL    HW2 6309   7.029  11.444  10.851
34824SOL     OW 6310  11.415   9.040   4.123
34824SOL    HW1 6311  11.441   9.064   4.034
34824SOL    HW2 6312  11.479   8.976   4.151
34825SOL     OW 6313   7.649  11.014  10.239
34825SOL    HW1 6314   7.689  10.967  10.166
34825SOL    HW2 6315   7.670  10.961  10.316
34826SOL     OW 6316   2.512   7.573  10.221
34826SOL    HW1 6317   2.466   7.564  10.138
34826SOL    HW2 6318   2.605   7.579  10.197
34827SOL     OW 6319  12.173   7.332  14.009
34827SOL    HW1 6320  12.252   7.383  14.026
34827SOL    HW2 6321  12.182   7.304  13.918
34828SOL     OW 6322  14.836   6.424   6.318
34828SOL    HW1 6323  14.839   6.366   6.242
34828SOL    HW2 6324  14.833   6.513   6.281
34829SOL     OW 6325   5.938   6.312   0.444
34829SOL    HW1 6326   5.911   6.237   0.496
34829SOL    HW2 6327   6.032   6.319   0.457
34830SOL     OW 6328   0.594   6.391  13.797
34830SOL    HW1 6329   0.618   6.474  13.754
34830SOL    HW2 6330   0.677   6.356  13.827
34831SOL     OW 6331   2.650   2.021  11.798
34831SOL    HW1 6332   2.686   1.941  11.760
34831SOL    HW2 6333   2.577   2.045  11.741
34832SOL     OW 6334   2.917   2.323   1.145
34832SOL    HW1 6335   2.880   2.363   1.066
34832SOL    HW2 6336   2.852   2.342   1.213
34833SOL     OW 6337   6.593   3.876   1.956
34833SOL    HW1 6338   6.545   3.834   2.027
34833SOL    HW2 6339   6.685   3.860   1.977
34834SOL     OW 6340  10.708   8.381  12.884
34834SOL    HW1 6341  10.666   8.421  12.959
34834SOL    HW2 6342  10.756   8.306  12.920
34835SOL     OW 6343   0.834  12.163   2.282
34835SOL    HW1 6344   0.817  12.189   2.373
34835SOL    HW2 6345   0.924  12.190   2.266
34836SOL     OW 6346   6.291   2.078   7.566
34836SOL    HW1 6347   6.316   1.992   7.533
34836SOL    HW2 6348   6.288   2.134   7.489
34837SOL     OW 6349   5.665   1.962  11.092
34837SOL    HW1 6350   5.725   1.887  11.093
34837SOL    HW2 6351   5.594   1.937  11.152
34838SOL     OW 6352   1.267   3.527   5.937
34838SOL    HW1 6353   1.285   3.434   5.923
34838SOL    HW2 6354   1.351   3.571   5.926
34839SOL     OW 6355   3.942  12.202   0.305
34839SOL    HW1 6356   3.907  12.187   0.218
34839SOL    HW2 6357   3.867  12.232   0.357
34840SOL     OW 6358  14.012   8.311   4.719
34840SOL    HW1 6359  14.093   8.355   4.746
34840SOL    HW2 6360  14.004   8.333   4.626
34841SOL     OW 6361   3.137  13.942  13.695
34841SOL    HW1 6362   3.230  13.956  13.677
34841SOL    HW2 6363   3.124  13.981  13.781
34842SOL     OW 6364  12.188   8.396   1.659
34842SOL    HW1 6365  12.228   8.405   1.572
34842SOL    HW2 6366  12.094   8.408   1.643
34843SOL     OW 6367  12.600  10.330   1.734
34843SOL    HW1 6368  12.552  10.406   1.767
34843SOL    HW2 6369  12.533  10.262   1.724
34844SOL     OW 6370   3.373   3.541   3.897
34844SOL    HW1 6371   3.448   3.485   3.915
34844SOL    HW2 6372   3.409   3.630   3.895
34845SOL     OW 6373   6.956   6.943   3.069
34845SOL    HW1 6374   6.906   7.005   3.015
34845SOL    HW2 6375   7.000   6.887   3.005
34846SOL     OW 6376   1.592   6.241   8.116
34846SOL    HW1 6377   1.673   6.271   8.156
34846SOL    HW2 6378   1.601   6.263   8.023
34847SOL     OW 6379   0.903   0.737   5.947
34847SOL    HW1 6380   0.865   0.727   6.034
34847SOL    HW2 6381   0.852   0.807   5.907
34848SOL     OW 6382   5.009   5.164   3.461
34848SOL    HW1 6383   5.048   5.079   3.440
34848SOL    HW2 6384   5.013   5.213   3.378
34849SOL     OW 6385   6.691   0.701   0.549
34849SOL    HW1 6386   6.635   0.775   0.571
34849SOL    HW2 6387   6.741   0.730   0.472
34850SOL     OW 6388   6.246   7.119   7.564
34850SOL    HW1 6389   6.292   7.203   7.562
34850SOL    HW2 6390   6.175   7.133   7.626
34851SOL     OW 6391  14.372   4.452   8.420
34851SOL    HW1 6392  14.323   4.531   8.442
34851SOL    HW2 6393  14.458   4.483   8.391
34852SOL     OW 6394   7.180  10.428  10.082
34852SOL    HW1 6395   7.095  10.448  10.043
34852SOL    HW2 6396   7.167  10.345  10.128
34853SOL     OW 6397   8.556   3.955  12.687
34853SOL    HW1 6398   8.477   3.927  12.732
34853SOL    HW2 6399   8.602   3.874  12.666
34854SOL     OW 6400  14.127  13.346  11.060
34854SOL    HW1 6401  14.040  13.348  11.099
34854SOL    HW2 6402  14.113  13.362  10.967
34855SOL     OW 6403  11.157   3.602   9.559
34855SOL    HW1 6404  11.191   3.568   9.641
34855SOL    HW2 6405  11.071   3.561   9.549
34856SOL     OW 6406  10.391   9.749  10.075
34856SOL    HW1 6407  10.338   9.696  10.015
34856SOL    HW2 6408  10.458   9.789  10.019
34857SOL     OW 6409   2.393   4.780  11.847
34857SOL    HW1 6410   2.341   4.761  11.925
34857SOL    HW2 6411   2.379   4.873  11.830
34858SOL     OW 6412   0.526   6.542  12.151
34858SOL    HW1 6413   0.598   6.480  12.158
34858SOL    HW2 6414   0.482   6.537  12.236
34859SOL     OW 6415   1.630  13.178  12.478
34859SOL    HW1 6416   1.684  13.174  12.399
34859SOL    HW2 6417   1.609  13.271  12.489
34860SOL     OW 6418   0.872   6.869  12.234
34860SOL    HW1 6419   0.933   6.920  12.181
34860SOL    HW2 6420   0.870   6.783  12.192
34861SOL     OW 6421   1.303  14.578  12.237
34861SOL    HW1 6422   1.325  14.662  12.277
34861SOL    HW2 6423   1.263  14.601  12.153
34862SOL     OW 6424   6.527  11.374  13.984
34862SOL    HW1 6425   6.598  11.310  13.973
34862SOL    HW2 6426   6.447  11.325  13.962
34863SOL     OW 6427  11.308  12.215  14.372
34863SOL    HW1 6428  11.296  12.249  14.283
34863SOL    HW2 6429  11.323  12.293  14.426
34864SOL     OW 6430   2.903   0.640   2.298
34864SOL    HW1 6431   2.965   0.591   2.244
34864SOL    HW2 6432   2.817   0.606   2.273
34865SOL     OW 6433   0.419   9.325   1.140
34865SOL    HW1 6434   0.413   9.285   1.227
34865SOL    HW2 6435   0.459   9.410   1.155
34866SOL     OW 6436  11.774   3.235   7.723
34866SOL    HW1 6437  11.701   3.247   7.783
34866SOL    HW2 6438  11.772   3.142   7.701
34867SOL     OW 6439   3.608   4.470   6.631
34867SOL    HW1 6440   3.566   4.503   6.552
34867SOL    HW2 6441   3.685   4.422   6.599
34868SOL     OW 6442   2.015   8.909   7.755
34868SOL    HW1 6443   2.050   8.863   7.831
34868SOL    HW2 6444   2.062   8.993   7.753
34869SOL     OW 6445   6.891  13.859   9.831
34869SOL    HW1 6446   6.847  13.944   9.834
34869SOL    HW2 6447   6.864  13.821   9.748
34870SOL     OW 6448   7.700  11.919  11.327
34870SOL    HW1 6449   7.692  11.861  11.252
34870SOL    HW2 6450   7.677  11.864  11.402
34871SOL     OW 6451   5.179   2.674  10.529
34871SOL    HW1 6452   5.238   2.600  10.515
34871SOL    HW2 6453   5.233   2.751  10.509
34872SOL     OW 6454  12.164   0.176  12.883
34872SOL    HW1 6455  12.176   0.255  12.831
34872SOL    HW2 6456  12.101   0.124  12.834
34873SOL     OW 6457   8.090   2.581   0.120
34873SOL    HW1 6458   8.044   2.589   0.203
34873SOL    HW2 6459   8.180   2.556   0.145
34874SOL     OW 6460   7.742   5.090   7.713
34874SOL    HW1 6461   7.704   5.044   7.788
34874SOL    HW2 6462   7.709   5.043   7.636
34875SOL     OW 6463  10.104  13.827  10.232
34875SOL    HW1 6464  10.125  13.848  10.141
34875SOL    HW2 6465  10.188  13.831  10.277
34876SOL     OW 6466   4.153  10.755   2.214
34876SOL    HW1 6467   4.213  10.739   2.141
34876SOL    HW2 6468   4.204  10.734   2.292
34877SOL     OW 6469   2.465   0.757   3.473
34877SOL    HW1 6470   2.438   0.836   3.427
34877SOL    HW2 6471   2.416   0.686   3.431
34878SOL     OW 6472   5.818   0.814  11.494
34878SOL    HW1 6473   5.764   0.856  11.561
34878SOL    HW2 6474   5.881   0.762  11.543
34879SOL     OW 6475  12.381   7.463  13.437
34879SOL    HW1 6476  12.456   7.497  13.387
34879SOL    HW2 6477  12.417   7.392  13.490
34880SOL     OW 6478   1.445   2.494  10.850
34880SOL    HW1 6479   1.470   2.586  10.858
34880SOL    HW2 6480   1.349   2.495  10.849
34881SOL     OW 6481   7.926  10.353   2.769
34881SOL    HW1 6482   7.961  10.324   2.853
34881SOL    HW2 6483   7.999  10.401   2.728
34882SOL     OW 6484  12.270   2.034   2.574
34882SOL    HW1 6485  12.323   2.108   2.603
34882SOL    HW2 6486  12.303   1.960   2.625
34883SOL     OW 6487   6.586   2.850  13.710
34883SOL    HW1 6488   6.525   2.850  13.637
34883SOL    HW2 6489   6.671   2.830  13.671
34884SOL     OW 6490  14.392   6.251   4.536
34884SOL    HW1 6491  14.349   6.206   4.608
34884SOL    HW2 6492  14.321   6.297   4.491
34885SOL     OW 6493   9.702   5.983  11.091
34885SOL    HW1 6494   9.791   5.994  11.125
34885SOL    HW2 6495   9.665   5.912  11.143
34886SOL     OW 6496   7.460   7.013  12.180
34886SOL    HW1 6497   7.513   6.939  12.210
34886SOL    HW2 6498   7.523   7.072  12.140
34887SOL     OW 6499   7.840  12.009   1.427
34887SOL    HW1 6500   7.778  11.975   1.492
34887SOL    HW2 6501   7.878  12.086   1.467
34888SOL     OW 6502  11.383  11.684   1.534
34888SOL    HW1 6503  11.400  11.704   1.442
34888SOL    HW2 6504  11.314  11.618   1.532
34889SOL     OW 6505  12.807  13.241   8.321
34889SOL    HW1 6506  12.735  13.183   8.347
34889SOL    HW2 6507  12.767  13.305   8.263
34890SOL     OW 6508   5.092  13.485   7.536
34890SOL    HW1 6509   5.111  13.418   7.602
34890SOL    HW2 6510   5.176  13.498   7.491
34891SOL     OW 6511   9.043   9.031   7.130
34891SOL    HW1 6512   9.093   9.037   7.212
34891SOL    HW2 6513   9.108   9.001   7.065
34892SOL     OW 6514   5.358  12.248  10.198
34892SOL    HW1 6515   5.303  12.190  10.252
34892SOL    HW2 6516   5.364  12.202  10.114
34893SOL     OW 6517   4.477   4.570   2.941
34893SOL    HW1 6518   4.388   4.594   2.966
34893SOL    HW2 6519   4.492   4.484   2.981
34894SOL     OW 6520   3.761  12.275   9.468
34894SOL    HW1 6521   3.817  12.197   9.468
34894SOL    HW2 6522   3.685  12.250   9.416
34895SOL     OW 6523  14.798   1.013  12.845
34895SOL    HW1 6524  14.705   1.013  12.825
34895SOL    HW2 6525  14.810   1.088  12.904
34896SOL     OW 6526  13.374  11.774   6.215
34896SOL    HW1 6527  13.441  11.842   6.216
34896SOL    HW2 6528  13.364  11.751   6.123
34897SOL     OW 6529   8.210   7.833  11.749
34897SOL    HW1 6530   8.144   7.871  11.691
34897SOL    HW2 6531   8.269   7.906  11.769
34898SOL     OW 6532  14.872  10.815   3.705
34898SOL    HW1 6533  14.860  10.738   3.760
34898SOL    HW2 6534   0.064  10.861   3.743
34899SOL     OW 6535   6.760   3.141  13.614
34899SOL    HW1 6536   6.779   3.048  13.622
34899SOL    HW2 6537   6.670   3.151  13.644
34900SOL     OW 6538   9.097   2.992  11.299
34900SOL    HW1 6539   9.128   2.919  11.245
34900SOL    HW2 6540   9.153   3.065  11.274
34901SOL     OW 6541   0.109   5.342   8.828
34901SOL    HW1 6542   0.106   5.437   8.840
34901SOL    HW2 6543   0.201   5.323   8.808
34902SOL     OW 6544   7.244  11.960  12.602
34902SOL    HW1 6545   7.214  12.050  12.587
34902SOL    HW2 6546   7.242  11.950  12.697
34903SOL     OW 6547   4.795  11.138   4.752
34903SOL    HW1 6548   4.849  11.158   4.675
34903SOL    HW2 6549   4.798  11.042   4.759
34904SOL     OW 6550   3.494   9.449  10.131
34904SOL    HW1 6551   3.484   9.459  10.036
34904SOL    HW2 6552   3.576   9.493  10.152
34905SOL     OW 6553   6.521  10.367   7.511
34905SOL    HW1 6554   6.538  10.281   7.549
34905SOL    HW2 6555   6.454  10.352   7.445
34906SOL     OW 6556   9.528  11.374  13.398
34906SOL    HW1 6557   9.575  11.291  13.387
34906SOL    HW2 6558   9.577  11.436  13.344
34907SOL     OW 6559   2.130   6.680   4.411
34907SOL    HW1 6560   2.150   6.679   4.504
34907SOL    HW2 6561   2.097   6.768   4.395
34908SOL     OW 6562   3.815  10.147   2.342
34908SOL    HW1 6563   3.786  10.224   2.294
34908SOL    HW2 6564   3.736  10.113   2.384
34909SOL     OW 6565   5.951  14.465   8.163
34909SOL    HW1 6566   5.887  14.449   8.093
34909SOL    HW2 6567   5.970  14.559   8.157
34910SOL     OW 6568   7.936  14.313  12.286
34910SOL    HW1 6569   7.915  14.365  12.209
34910SOL    HW2 6570   7.903  14.363  12.359
34911SOL     OW 6571   1.937   0.240   1.613
34911SOL    HW1 6572   1.910   0.271   1.700
34911SOL    HW2 6573   1.894   0.300   1.552
34912SOL     OW 6574   7.255  12.516   7.217
34912SOL    HW1 6575   7.288  12.446   7.160
34912SOL    HW2 6576   7.319  12.587   7.206
34913SOL     OW 6577   7.591   8.165   0.186
34913SOL    HW1 6578   7.508   8.183   0.143
34913SOL    HW2 6579   7.657   8.169   0.116
34914SOL     OW 6580   4.508  11.663   5.515
34914SOL    HW1 6581   4.570  11.694   5.580
34914SOL    HW2 6582   4.563  11.623   5.447
34915SOL     OW 6583   3.877   3.614  10.525
34915SOL    HW1 6584   3.809   3.577  10.581
34915SOL    HW2 6585   3.908   3.691  10.573
34916SOL     OW 6586   7.224  13.830  12.842
34916SOL    HW1 6587   7.145  13.815  12.790
34916SOL    HW2 6588   7.289  13.860  12.778
34917SOL     OW 6589  14.115  12.852   8.112
34917SOL    HW1 6590  14.084  12.778   8.164
34917SOL    HW2 6591  14.056  12.924   8.136
34918SOL     OW 6592  14.185   1.306   1.365
34918SOL    HW1 6593  14.097   1.343   1.353
34918SOL    HW2 6594  14.226   1.313   1.279
34919SOL     OW 6595   0.885   8.291   1.777
34919SOL    HW1 6596   0.946   8.218   1.764
34919SOL    HW2 6597   0.803   8.249   1.800
34920SOL     OW 6598   1.272  11.710  10.334
34920SOL    HW1 6599   1.235  11.622  10.342
34920SOL    HW2 6600   1.262  11.731  10.242
34921SOL     OW 6601  12.578  13.760  14.004
34921SOL    HW1 6602  12.523  13.684  13.985
34921SOL    HW2 6603  12.600  13.752  14.097
34922SOL     OW 6604   0.518   9.421  12.133
34922SOL    HW1 6605   0.440   9.476  12.133
34922SOL    HW2 6606   0.504   9.360  12.206
34923SOL     OW 6607  10.410   1.367   2.609
34923SOL    HW1 6608  10.481   1.413   2.654
34923SOL    HW2 6609  10.349   1.437   2.584
34924SOL     OW 6610  13.413   8.774   3.810
34924SOL    HW1 6611  13.491   8.724   3.784
34924SOL    HW2 6612  13.446   8.863   3.826
34925SOL     OW 6613   6.406  14.401  13.910
34925SOL    HW1 6614   6.488  14.375  13.866
34925SOL    HW2 6615   6.373  14.321  13.949
34926SOL     OW 6616  12.337   4.298   3.077
34926SOL    HW1 6617  12.316   4.307   2.984
34926SOL    HW2 6618  12.286   4.367   3.120
34927SOL     OW 6619  14.279   0.381  10.825
34927SOL    HW1 6620  14.220   0.446  10.863
34927SOL    HW2 6621  14.274   0.396  10.731
34928SOL     OW 6622   7.268  12.819  12.219
34928SOL    HW1 6623   7.358  12.785  12.213
34928SOL    HW2 6624   7.225  12.787  12.140
34929SOL     OW 6625   3.975   2.838   9.603
34929SOL    HW1 6626   3.939   2.926   9.606
34929SOL    HW2 6627   3.951   2.806   9.516
34930SOL     OW 6628   2.195   7.001   2.196
34930SOL    HW1 6629   2.146   6.920   2.202
34930SOL    HW2 6630   2.199   7.020   2.102
34931SOL     OW 6631   9.896  11.707   4.922
34931SOL    HW1 6632   9.903  11.744   4.834
34931SOL    HW2 6633   9.864  11.618   4.908
34932SOL     OW 6634   6.038   7.583  13.194
34932SOL    HW1 6635   6.101   7.555  13.127
34932SOL    HW2 6636   6.008   7.669  13.165
34933SOL     OW 6637   1.006  13.854   2.936
34933SOL    HW1 6638   1.014  13.764   2.968
34933SOL    HW2 6639   1.049  13.907   3.002
34934SOL     OW 6640   4.099   6.659  12.599
34934SOL    HW1 6641   4.071   6.669  12.690
34934SOL    HW2 6642   4.180   6.710  12.593
34935SOL     OW 6643   6.900  14.588   3.762
34935SOL    HW1 6644   6.936  14.584   3.673
34935SOL    HW2 6645   6.953  14.526   3.812
34936SOL     OW 6646   6.015  10.920   3.803
34936SOL    HW1 6647   6.035  10.931   3.895
34936SOL    HW2 6648   5.954  10.991   3.782
34937SOL     OW 6649   6.506   6.268  13.554
34937SOL    HW1 6650   6.514   6.283  13.648
34937SOL    HW2 6651   6.417   6.295  13.533
34938SOL     OW 6652   8.058  10.395   8.103
34938SOL    HW1 6653   8.069  10.449   8.181
34938SOL    HW2 6654   8.015  10.452   8.040
34939SOL     OW 6655   8.476   4.318   9.289
34939SOL    HW1 6656   8.511   4.391   9.340
34939SOL    HW2 6657   8.430   4.264   9.353
34940SOL     OW 6658  12.427   4.596  13.357
34940SOL    HW1 6659  12.442   4.617  13.449
34940SOL    HW2 6660  12.392   4.677  13.319
34941SOL     OW 6661   1.019  14.677   0.550
34941SOL    HW1 6662   0.979  14.725   0.478
34941SOL    HW2 6663   1.008  14.734   0.626
34942SOL     OW 6664   9.603   6.428  12.609
34942SOL    HW1 6665   9.635   6.352  12.657
34942SOL    HW2 6666   9.526   6.396  12.562
34943SOL     OW 6667   2.982   6.788   2.850
34943SOL    HW1 6668   2.941   6.806   2.935
34943SOL    HW2 6669   2.926   6.833   2.787
34944SOL     OW 6670  12.607  10.332  13.699
34944SOL    HW1 6671  12.558  10.413  13.686
34944SOL    HW2 6672  12.693  10.350  13.660
34945SOL     OW 6673  14.514   3.803   8.586
34945SOL    HW1 6674  14.439   3.858   8.608
34945SOL    HW2 6675  14.576   3.817   8.658
34946SOL     OW 6676   9.372   7.630   6.430
34946SOL    HW1 6677   9.396   7.604   6.519
34946SOL    HW2 6678   9.452   7.616   6.379
34947SOL     OW 6679   9.708  13.679   0.386
34947SOL    HW1 6680   9.742  13.754   0.434
34947SOL    HW2 6681   9.772  13.609   0.401
34948SOL     OW 6682   4.672  11.645   9.223
34948SOL    HW1 6683   4.656  11.583   9.152
34948SOL    HW2 6684   4.613  11.617   9.293
34949SOL     OW 6685   4.404   0.537  13.357
34949SOL    HW1 6686   4.352   0.615  13.336
34949SOL    HW2 6687   4.437   0.554  13.445
34950SOL     OW 6688   4.819   0.062  14.395
34950SOL    HW1 6689   4.904   0.050  14.436
34950SOL    HW2 6690   4.765  14.872  14.430
34951SOL     OW 6691  11.200   9.197   4.950
34951SOL    HW1 6692  11.291   9.214   4.923
34951SOL    HW2 6693  11.208   9.129   5.017
34952SOL     OW 6694  14.858   0.865   3.382
34952SOL    HW1 6695  14.812   0.905   3.456
34952SOL    HW2 6696  14.816   0.901   3.305
34953SOL     OW 6697  14.604  11.178   5.186
34953SOL    HW1 6698  14.554  11.141   5.259
34953SOL    HW2 6699  14.555  11.256   5.160
34954SOL     OW 6700  12.162   9.965   2.046
34954SOL    HW1 6701  12.220   9.979   2.120
34954SOL    HW2 6702  12.102  10.039   2.048
34955SOL     OW 6703   0.133   8.582   4.305
34955SOL    HW1 6704   0.222   8.549   4.291
34955SOL    HW2 6705   0.078   8.504   4.301
34956SOL     OW 6706   3.058   9.458  10.449
34956SOL    HW1 6707   3.064   9.464  10.353
34956SOL    HW2 6708   3.136   9.503  10.481
34957SOL     OW 6709   2.761   7.074   8.571
34957SOL    HW1 6710   2.752   7.166   8.546
34957SOL    HW2 6711   2.841   7.071   8.623
34958SOL     OW 6712  11.069   7.427   5.442
34958SOL    HW1 6713  11.002   7.490   5.414
34958SOL    HW2 6714  11.020   7.347   5.459
34959SOL     OW 6715  10.298   2.660   7.360
34959SOL    HW1 6716  10.341   2.745   7.349
34959SOL    HW2 6717  10.350   2.616   7.428
34960SOL     OW 6718   6.334   9.569  10.197
34960SOL    HW1 6719   6.284   9.651  10.195
34960SOL    HW2 6720   6.306   9.522  10.119
34961SOL     OW 6721   7.332   2.328   9.012
34961SOL    HW1 6722   7.252   2.280   9.033
34961SOL    HW2 6723   7.395   2.260   8.989
34962SOL     OW 6724   4.760   0.960   8.634
34962SOL    HW1 6725   4.738   1.053   8.627
34962SOL    HW2 6726   4.827   0.956   8.703
34963SOL     OW 6727   8.584  13.387  14.157
34963SOL    HW1 6728   8.538  13.411  14.237
34963SOL    HW2 6729   8.567  13.293  14.146
34964SOL     OW 6730  13.175   2.951  13.571
34964SOL    HW1 6731  13.177   2.962  13.666
34964SOL    HW2 6732  13.101   3.004  13.542
34965SOL     OW 6733   2.658   2.773   0.844
34965SOL    HW1 6734   2.565   2.782   0.823
34965SOL    HW2 6735   2.702   2.773   0.760
34966SOL     OW 6736   4.761   5.711   0.785
34966SOL    HW1 6737   4.743   5.752   0.700
34966SOL    HW2 6738   4.856   5.696   0.785
34967SOL     OW 6739  11.689   6.903   4.294
34967SOL    HW1 6740  11.767   6.955   4.311
34967SOL    HW2 6741  11.697   6.827   4.351
34968SOL     OW 6742   0.734   2.752   6.656
34968SOL    HW1 6743   0.779   2.727   6.575
34968SOL    HW2 6744   0.686   2.831   6.633
34969SOL     OW 6745  10.175   6.006  12.588
34969SOL    HW1 6746  10.253   5.967  12.626
34969SOL    HW2 6747  10.183   5.987  12.494
34970SOL     OW 6748   8.292   7.896   6.991
34970SOL    HW1 6749   8.323   7.968   6.935
34970SOL    HW2 6750   8.357   7.827   6.978
34971SOL     OW 6751  13.709   7.346  13.513
34971SOL    HW1 6752  13.769   7.351  13.588
34971SOL    HW2 6753  13.764   7.318  13.440
34972SOL     OW 6754   3.138   1.160   5.891
34972SOL    HW1 6755   3.064   1.112   5.854
34972SOL    HW2 6756   3.169   1.215   5.819
34973SOL     OW 6757   4.095   0.768   7.965
34973SOL    HW1 6758   4.058   0.852   7.936
34973SOL    HW2 6759   4.094   0.773   8.060
34974SOL     OW 6760  14.702   9.489   6.813
34974SOL    HW1 6761  14.713   9.518   6.903
34974SOL    HW2 6762  14.699   9.570   6.762
34975SOL     OW 6763   2.494  14.367   4.456
34975SOL    HW1 6764   2.498  14.457   4.491
34975SOL    HW2 6765   2.458  14.315   4.528
34976SOL     OW 6766   3.835  12.666   1.530
34976SOL    HW1 6767   3.780  12.740   1.503
34976SOL    HW2 6768   3.892  12.651   1.454
34977SOL     OW 6769  13.718   8.114   8.582
34977SOL    HW1 6770  13.745   8.201   8.553
34977SOL    HW2 6771  13.696   8.068   8.502
34978SOL     OW 6772  13.329   5.695  10.425
34978SOL    HW1 6773  13.250   5.643  10.440
34978SOL    HW2 6774  13.302   5.762  10.363
34979SOL     OW 6775   7.040   1.675  10.586
34979SOL    HW1 6776   6.973   1.724  10.634
34979SOL    HW2 6777   7.109   1.659  10.650
34980SOL     OW 6778   5.490   9.808   2.250
34980SOL    HW1 6779   5.575   9.819   2.293
34980SOL    HW2 6780   5.439   9.755   2.312
34981SOL     OW 6781   9.459  10.292  12.740
34981SOL    HW1 6782   9.502  10.333  12.815
34981SOL    HW2 6783   9.374  10.264  12.774
34982SOL     OW 6784   1.591  13.702   7.636
34982SOL    HW1 6785   1.539  13.737   7.563
34982SOL    HW2 6786   1.680  13.730   7.617
34983SOL     OW 6787  12.960  13.453   3.826
34983SOL    HW1 6788  12.896  13.391   3.860
34983SOL    HW2 6789  13.011  13.479   3.903
34984SOL     OW 6790   3.016  11.469   9.265
34984SOL    HW1 6791   3.102  11.502   9.238
34984SOL    HW2 6792   3.009  11.384   9.221
34985SOL     OW 6793   6.700   2.900  13.019
34985SOL    HW1 6794   6.759   2.876  12.947
34985SOL    HW2 6795   6.660   2.982  12.991
34986SOL     OW 6796   5.457   9.016   5.440
34986SOL    HW1 6797   5.510   9.095   5.446
34986SOL    HW2 6798   5.519   8.944   5.454
34987SOL     OW 6799   4.740   4.288  13.073
34987SOL    HW1 6800   4.733   4.241  12.991
34987SOL    HW2 6801   4.827   4.265  13.106
34988SOL     OW 6802   7.979  14.653   6.785
34988SOL    HW1 6803   8.045  14.713   6.818
34988SOL    HW2 6804   7.947  14.608   6.864
34989SOL     OW 6805   5.541  13.139   2.452
34989SOL    HW1 6806   5.527  13.098   2.367
34989SOL    HW2 6807   5.511  13.229   2.441
34990SOL     OW 6808   8.698  11.153   3.709
34990SOL    HW1 6809   8.632  11.127   3.774
34990SOL    HW2 6810   8.782  11.135   3.751
34991SOL     OW 6811   6.616   6.310   2.332
34991SOL    HW1 6812   6.661   6.326   2.416
34991SOL    HW2 6813   6.532   6.272   2.357
34992SOL     OW 6814  11.760   6.926   2.484
34992SOL    HW1 6815  11.791   6.858   2.544
34992SOL    HW2 6816  11.771   6.889   2.397
34993SOL     OW 6817   9.879  13.613   4.149
34993SOL    HW1 6818   9.809  13.607   4.214
34993SOL    HW2 6819   9.932  13.687   4.178
34994SOL     OW 6820   7.043   9.432   9.782
34994SOL    HW1 6821   6.986   9.356   9.797
34994SOL    HW2 6822   6.993   9.505   9.818
34995SOL     OW 6823   6.885   9.081   6.744
34995SOL    HW1 6824   6.951   9.150   6.739
34995SOL    HW2 6825   6.804   9.127   6.763
34996SOL     OW 6826  11.494  14.482   6.615
34996SOL    HW1 6827  11.469  14.428   6.541
34996SOL    HW2 6828  11.540  14.422   6.674
34997SOL     OW 6829  10.829  13.775   7.230
34997SOL    HW1 6830  10.774  13.790   7.153
34997SOL    HW2 6831  10.779  13.712   7.283
34998SOL     OW 6832   0.687   9.651  13.574
34998SOL    HW1 6833   0.730   9.574  13.538
34998SOL    HW2 6834   0.716   9.654  13.665
34999SOL     OW 6835   2.223   8.036   3.663
34999SOL    HW1 6836   2.158   7.989   3.716
34999SOL    HW2 6837   2.268   8.094   3.725
35000SOL     OW 6838   2.595   3.871   4.640
35000SOL    HW1 6839   2.647   3.807   4.689
35000SOL    HW2 6840   2.630   3.867   4.551
35001SOL     OW 6841   9.958   6.544   5.003
35001SOL    HW1 6842   9.888   6.506   5.056
35001SOL    HW2 6843   9.931   6.530   4.913
35002SOL     OW 6844   4.525   4.700   9.259
35002SOL    HW1 6845   4.457   4.747   9.211
35002SOL    HW2 6846   4.481   4.622   9.292
35003SOL     OW 6847   4.708   5.960   6.968
35003SOL    HW1 6848   4.657   5.967   6.888
35003SOL    HW2 6849   4.648   5.991   7.037
35004SOL     OW 6850   3.148  10.585  11.723
35004SOL    HW1 6851   3.224  10.544  11.764
35004SOL    HW2 6852   3.089  10.512  11.704
35005SOL     OW 6853   4.336   6.236   2.787
35005SOL    HW1 6854   4.347   6.279   2.872
35005SOL    HW2 6855   4.282   6.160   2.805
35006SOL     OW 6856   6.339   1.526   7.155
35006SOL    HW1 6857   6.304   1.614   7.169
35006SOL    HW2 6858   6.264   1.473   7.131
35007SOL     OW 6859   9.008   8.697   5.946
35007SOL    HW1 6860   9.026   8.761   5.877
35007SOL    HW2 6861   9.050   8.732   6.024
35008SOL     OW 6862   3.448   7.274  11.384
35008SOL    HW1 6863   3.435   7.192  11.432
35008SOL    HW2 6864   3.368   7.284  11.333
35009SOL     OW 6865   9.413   8.799  11.716
35009SOL    HW1 6866   9.420   8.708  11.744
35009SOL    HW2 6867   9.354   8.839  11.780
35010SOL     OW 6868   9.129   0.036   5.752
35010SOL    HW1 6869   9.201   0.062   5.809
35010SOL    HW2 6870   9.063   0.104   5.764
35011SOL     OW 6871  11.476   3.426  11.456
35011SOL    HW1 6872  11.567   3.453  11.446
35011SOL    HW2 6873  11.440   3.487  11.520
35012SOL     OW 6874   9.704  12.892   6.262
35012SOL    HW1 6875   9.637  12.932   6.317
35012SOL    HW2 6876   9.766  12.854   6.324
35013SOL     OW 6877   6.286   5.589  10.637
35013SOL    HW1 6878   6.329   5.529  10.699
35013SOL    HW2 6879   6.355   5.651  10.613
35014SOL     OW 6880  11.303   3.374   8.478
35014SOL    HW1 6881  11.366   3.320   8.525
35014SOL    HW2 6882  11.307   3.459   8.521
35015SOL     OW 6883   4.998  10.308  14.797
35015SOL    HW1 6884   5.021  10.374  14.732
35015SOL    HW2 6885   4.998  10.355  14.881
35016SOL     OW 6886   0.416  13.138  12.040
35016SOL    HW1 6887   0.471  13.205  11.999
35016SOL    HW2 6888   0.327  13.160  12.014
35017SOL     OW 6889   5.794   1.655   0.464
35017SOL    HW1 6890   5.879   1.628   0.498
35017SOL    HW2 6891   5.772   1.588   0.399
35018SOL     OW 6892  10.081   1.014  14.844
35018SOL    HW1 6893  10.121   1.047  14.763
35018SOL    HW2 6894  10.028   0.940  14.815
35019SOL     OW 6895  10.506  10.628   0.571
35019SOL    HW1 6896  10.462  10.694   0.624
35019SOL    HW2 6897  10.588  10.611   0.617
35020SOL     OW 6898  13.923   3.523  11.485
35020SOL    HW1 6899  13.906   3.430  11.498
35020SOL    HW2 6900  14.014   3.535  11.514
35021SOL     OW 6901   1.929   7.623   4.723
35021SOL    HW1 6902   1.951   7.628   4.630
35021SOL    HW2 6903   2.012   7.602   4.766
35022SOL     OW 6904  11.968  14.379   5.384
35022SOL    HW1 6905  12.002  14.462   5.351
35022SOL    HW2 6906  12.046  14.331   5.413
35023SOL     OW 6907   7.219  14.179  10.275
35023SOL    HW1 6908   7.225  14.251  10.337
35023SOL    HW2 6909   7.190  14.104  10.327
35024SOL     OW 6910  10.267   2.462  11.164
35024SOL    HW1 6911  10.217   2.397  11.214
35024SOL    HW2 6912  10.351   2.420  11.148
35025SOL     OW 6913  12.325   1.567   7.771
35025SOL    HW1 6914  12.414   1.598   7.760
35025SOL    HW2 6915  12.325   1.524   7.856
35026SOL     OW 6916  12.347  12.567  10.716
35026SOL    HW1 6917  12.330  12.656  10.748
35026SOL    HW2 6918  12.441  12.554  10.730
35027SOL     OW 6919   0.416  11.097   7.213
35027SOL    HW1 6920   0.435  11.052   7.295
35027SOL    HW2 6921   0.405  11.189   7.238
35028SOL     OW 6922   5.962  13.319   3.635
35028SOL    HW1 6923   5.922  13.355   3.714
35028SOL    HW2 6924   5.899  13.254   3.604
35029SOL     OW 6925   3.008   2.503   3.158
35029SOL    HW1 6926   3.032   2.410   3.158
35029SOL    HW2 6927   2.933   2.508   3.218
35030SOL     OW 6928   0.855   9.732   1.805
35030SOL    HW1 6929   0.900   9.703   1.884
35030SOL    HW2 6930   0.922   9.734   1.738
35031SOL     OW 6931  13.685  14.413   9.345
35031SOL    HW1 6932  13.768  14.437   9.385
35031SOL    HW2 6933  13.675  14.474   9.272
35032SOL     OW 6934   4.189   1.997   2.962
35032SOL    HW1 6935   4.135   2.032   2.891
35032SOL    HW2 6936   4.162   2.045   3.039
35033SOL     OW 6937   3.322   4.078  11.775
35033SOL    HW1 6938   3.333   3.989  11.810
35033SOL    HW2 6939   3.282   4.064  11.689
35034SOL     OW 6940   8.707  10.863  10.520
35034SOL    HW1 6941   8.644  10.876  10.449
35034SOL    HW2 6942   8.681  10.928  10.586
35035SOL     OW 6943   2.763   6.436   8.121
35035SOL    HW1 6944   2.847   6.415   8.081
35035SOL    HW2 6945   2.752   6.530   8.107
35036SOL     OW 6946  11.752   7.770  13.982
35036SOL    HW1 6947  11.835   7.745  13.941
35036SOL    HW2 6948  11.710   7.827  13.917
35037SOL     OW 6949   5.092  14.548   0.173
35037SOL    HW1 6950   5.058  14.458   0.173
35037SOL    HW2 6951   5.171  14.544   0.227
35038SOL     OW 6952   5.828   3.887   0.819
35038SOL    HW1 6953   5.910   3.839   0.820
35038SOL    HW2 6954   5.854   3.979   0.815
35039SOL     OW 6955   9.667   9.036   1.819
35039SOL    HW1 6956   9.660   8.993   1.905
35039SOL    HW2 6957   9.719   9.115   1.837
35040SOL     OW 6958   1.504   7.777   8.785
35040SOL    HW1 6959   1.581   7.787   8.729
35040SOL    HW2 6960   1.469   7.865   8.794
35041SOL     OW 6961  12.214   7.873  12.066
35041SOL    HW1 6962  12.229   7.919  12.149
35041SOL    HW2 6963  12.299   7.871  12.024
35042SOL     OW 6964   6.732   1.973   5.716
35042SOL    HW1 6965   6.637   1.989   5.710
35042SOL    HW2 6966   6.751   1.982   5.809
35043SOL     OW 6967  10.338   8.564   0.368
35043SOL    HW1 6968  10.267   8.621   0.400
35043SOL    HW2 6969  10.377   8.612   0.295
35044SOL     OW 6970   7.798   6.063   3.384
35044SOL    HW1 6971   7.853   6.138   3.362
35044SOL    HW2 6972   7.783   6.071   3.478
35045SOL     OW 6973  10.957  13.578   0.664
35045SOL    HW1 6974  10.947  13.539   0.577
35045SOL    HW2 6975  10.902  13.656   0.662
35046SOL     OW 6976  10.409  11.905   4.633
35046SOL    HW1 6977  10.369  11.846   4.568
35046SOL    HW2 6978  10.501  11.910   4.606
35047SOL     OW 6979  13.298   6.042   6.304
35047SOL    HW1 6980  13.265   6.012   6.219
35047SOL    HW2 6981  13.285   5.968   6.362
35048SOL     OW 6982   0.261  14.085   1.689
35048SOL    HW1 6983   0.259  14.170   1.732
35048SOL    HW2 6984   0.223  14.025   1.753
35049SOL     OW 6985  13.729   8.572   7.785
35049SOL    HW1 6986  13.820   8.543   7.774
35049SOL    HW2 6987  13.687   8.548   7.703
35050SOL     OW 6988   9.152   8.556   9.803
35050SOL    HW1 6989   9.188   8.485   9.857
35050SOL    HW2 6990   9.181   8.636   9.846
35051SOL     OW 6991  10.468   6.801  11.351
35051SOL    HW1 6992  10.489   6.850  11.272
35051SOL    HW2 6993  10.390   6.844  11.386
35052SOL     OW 6994   6.657   7.178  14.570
35052SOL    HW1 6995   6.565   7.178  14.598
35052SOL    HW2 6996   6.698   7.246  14.623
35053SOL     OW 6997   4.002   3.381   6.627
35053SOL    HW1 6998   3.955   3.461   6.605
35053SOL    HW2 6999   3.985   3.323   6.553
35054SOL     OW 7000   2.796   0.640  10.268
35054SOL    HW1 7001   2.738   0.565  10.275
35054SOL    HW2 7002   2.884   0.605  10.283
35055SOL     OW 7003   9.538  11.685   2.517
35055SOL    HW1 7004   9.535  11.677   2.422
35055SOL    HW2 7005   9.475  11.620   2.548
35056SOL     OW 7006   6.424   9.786   0.931
35056SOL    HW1 7007   6.442   9.823   0.845
35056SOL    HW2 7008   6.332   9.807   0.948
35057SOL     OW 7009   8.274   2.775  11.615
35057SOL    HW1 7010   8.193   2.815  11.584
35057SOL    HW2 7011   8.338   2.794  11.547
35058SOL     OW 7012   5.594   0.113   5.377
35058SOL    HW1 7013   5.576   0.185   5.438
35058SOL    HW2 7014   5.625   0.156   5.298
35059SOL     OW 7015  13.195  10.052   9.811
35059SOL    HW1 7016  13.139  10.063   9.734
35059SOL    HW2 7017  13.202  10.139   9.849
35060SOL     OW 7018   0.893  13.166   2.151
35060SOL    HW1 7019   0.926  13.105   2.217
35060SOL    HW2 7020   0.798  13.158   2.156
35061SOL     OW 7021  14.530  13.908   1.891
35061SOL    HW1 7022  14.505  13.997   1.865
35061SOL    HW2 7023  14.623  13.915   1.914
35062SOL     OW 7024  13.870  11.986   1.398
35062SOL    HW1 7025  13.857  12.029   1.482
35062SOL    HW2 7026  13.783  11.983   1.358
35063SOL     OW 7027  14.394   4.635   2.995
35063SOL    HW1 7028  14.315   4.666   3.039
35063SOL    HW2 7029  14.465   4.652   3.057
35064SOL     OW 7030   3.836  12.246   5.778
35064SOL    HW1 7031   3.831  12.168   5.723
35064SOL    HW2 7032   3.751  12.289   5.767
35065SOL     OW 7033   1.759  11.058   5.950
35065SOL    HW1 7034   1.731  11.016   5.868
35065SOL    HW2 7035   1.753  10.989   6.015
35066SOL     OW 7036  12.010   4.258  12.969
35066SOL    HW1 7037  11.930   4.247  13.021
35066SOL    HW2 7038  12.041   4.346  12.991
35067SOL     OW 7039   9.245   3.161  11.164
35067SOL    HW1 7040   9.184   3.195  11.099
35067SOL    HW2 7041   9.244   3.225  11.235
35068SOL     OW 7042   2.489   6.683  10.974
35068SOL    HW1 7043   2.408   6.716  11.014
35068SOL    HW2 7044   2.477   6.698  10.880
35069SOL     OW 7045   5.505   0.399  14.575
35069SOL    HW1 7046   5.598   0.379  14.572
35069SOL    HW2 7047   5.501   0.492  14.598
35070SOL     OW 7048   7.116   1.207  14.466
35070SOL    HW1 7049   7.065   1.152  14.525
35070SOL    HW2 7050   7.051   1.259  14.418
35071SOL     OW 7051   1.325  11.137   2.856
35071SOL    HW1 7052   1.325  11.155   2.950
35071SOL    HW2 7053   1.408  11.092   2.841
35072SOL     OW 7054   2.330   8.023  12.583
35072SOL    HW1 7055   2.383   7.964  12.636
35072SOL    HW2 7056   2.376   8.107  12.587
35073SOL     OW 7057   5.870   9.566   3.435
35073SOL    HW1 7058   5.940   9.524   3.484
35073SOL    HW2 7059   5.867   9.656   3.468
35074SOL     OW 7060   1.657  10.103  12.733
35074SOL    HW1 7061   1.734  10.102  12.790
35074SOL    HW2 7062   1.627  10.193  12.734
35075SOL     OW 7063  12.167   0.829   9.597
35075SOL    HW1 7064  12.142   0.738   9.609
35075SOL    HW2 7065  12.260   0.826   9.574
35076SOL     OW 7066  12.675   3.160   3.573
35076SOL    HW1 7067  12.594   3.210   3.584
35076SOL    HW2 7068  12.650   3.088   3.515
35077SOL     OW 7069   1.972   3.025   8.620
35077SOL    HW1 7070   1.919   3.063   8.690
35077SOL    HW2 7071   2.012   3.101   8.577
35078SOL     OW 7072   4.068   5.852   4.076
35078SOL    HW1 7073   4.052   5.770   4.122
35078SOL    HW2 7074   4.151   5.884   4.112
35079SOL     OW 7075  11.869   4.942  13.088
35079SOL    HW1 7076  11.911   5.027  13.103
35079SOL    HW2 7077  11.939   4.887  13.053
35080SOL     OW 7078  10.771   5.064   7.307
35080SOL    HW1 7079  10.795   5.085   7.217
35080SOL    HW2 7080  10.684   5.024   7.299
35081SOL     OW 7081   3.604   5.026   9.419
35081SOL    HW1 7082   3.604   5.063   9.331
35081SOL    HW2 7083   3.526   5.063   9.460
35082SOL     OW 7084   7.025   1.769   5.628
35082SOL    HW1 7085   7.093   1.708   5.600
35082SOL    HW2 7086   7.065   1.818   5.699
35083SOL     OW 7087   2.444   2.210   3.424
35083SOL    HW1 7088   2.434   2.251   3.510
35083SOL    HW2 7089   2.355   2.191   3.396
35084SOL     OW 7090  14.084   7.791   3.124
35084SOL    HW1 7091  14.102   7.838   3.206
35084SOL    HW2 7092  14.002   7.829   3.093
35085SOL     OW 7093   6.111   7.894  10.383
35085SOL    HW1 7094   6.190   7.914  10.332
35085SOL    HW2 7095   6.140   7.900  10.474
35086SOL     OW 7096   9.153   0.634   0.392
35086SOL    HW1 7097   9.109   0.577   0.456
35086SOL    HW2 7098   9.087   0.699   0.369
35087SOL     OW 7099   1.078   8.869   3.306
35087SOL    HW1 7100   1.100   8.815   3.229
35087SOL    HW2 7101   1.053   8.806   3.373
35088SOL     OW 7102  11.310  12.341   6.988
35088SOL    HW1 7103  11.268  12.262   6.954
35088SOL    HW2 7104  11.353  12.312   7.068
35089SOL     OW 7105   3.167   9.613  11.593
35089SOL    HW1 7106   3.087   9.571  11.625
35089SOL    HW2 7107   3.166   9.596  11.498
35090SOL     OW 7108   8.164  13.201  10.729
35090SOL    HW1 7109   8.244  13.164  10.767
35090SOL    HW2 7110   8.104  13.211  10.804
35091SOL     OW 7111  11.363  11.237   3.273
35091SOL    HW1 7112  11.419  11.176   3.226
35091SOL    HW2 7113  11.378  11.218   3.366
35092SOL     OW 7114   9.875   2.317   0.966
35092SOL    HW1 7115   9.933   2.385   0.999
35092SOL    HW2 7116   9.917   2.235   0.992
35093SOL     OW 7117   7.369  12.700   4.457
35093SOL    HW1 7118   7.464  12.707   4.464
35093SOL    HW2 7119   7.355  12.619   4.408
35094SOL     OW 7120   1.760   8.424  12.567
35094SOL    HW1 7121   1.847   8.463  12.573
35094SOL    HW2 7122   1.719   8.465  12.491
35095SOL     OW 7123  12.600   9.267   6.536
35095SOL    HW1 7124  12.616   9.352   6.496
35095SOL    HW2 7125  12.513   9.241   6.505
35096SOL     OW 7126   7.849  12.092   9.621
35096SOL    HW1 7127   7.820  12.175   9.660
35096SOL    HW2 7128   7.899  12.118   9.544
35097SOL     OW 7129   4.882   0.826   3.015
35097SOL    HW1 7130   4.837   0.743   3.004
35097SOL    HW2 7131   4.843   0.885   2.950
35098SOL     OW 7132   3.628   6.951  11.511
35098SOL    HW1 7133   3.646   6.904  11.592
35098SOL    HW2 7134   3.540   6.986  11.523
35099SOL     OW 7135   7.304   5.760  13.510
35099SOL    HW1 7136   7.379   5.729  13.459
35099SOL    HW2 7137   7.228   5.739  13.455
35100SOL     OW 7138   6.122   0.765   5.261
35100SOL    HW1 7139   6.212   0.770   5.230
35100SOL    HW2 7140   6.069   0.774   5.181
35101SOL     OW 7141  14.442   3.443   0.484
35101SOL    HW1 7142  14.493   3.430   0.404
35101SOL    HW2 7143  14.496   3.405   0.553
35102SOL     OW 7144   9.643  14.624   1.414
35102SOL    HW1 7145   9.627  14.572   1.334
35102SOL    HW2 7146   9.736  14.609   1.433
35103SOL     OW 7147   5.687   0.764   2.101
35103SOL    HW1 7148   5.668   0.844   2.151
35103SOL    HW2 7149   5.691   0.695   2.168
35104SOL     OW 7150   8.291  14.033  10.703
35104SOL    HW1 7151   8.358  13.975  10.738
35104SOL    HW2 7152   8.214  13.976  10.690
35105SOL     OW 7153   1.963  10.926  10.766
35105SOL    HW1 7154   1.880  10.894  10.730
35105SOL    HW2 7155   2.027  10.907  10.697
35106SOL     OW 7156   0.917  14.607  11.445
35106SOL    HW1 7157   0.904  14.570  11.358
35106SOL    HW2 7158   0.955  14.693  11.429
35107SOL     OW 7159   3.114   9.024   7.959
35107SOL    HW1 7160   3.058   8.957   7.920
35107SOL    HW2 7161   3.173   9.050   7.888
35108SOL     OW 7162   6.483  10.335   2.761
35108SOL    HW1 7163   6.497  10.415   2.709
35108SOL    HW2 7164   6.500  10.363   2.851
35109SOL     OW 7165  10.179   9.248   6.769
35109SOL    HW1 7166  10.175   9.167   6.718
35109SOL    HW2 7167  10.272   9.259   6.789
35110SOL     OW 7168   6.867   6.539  14.528
35110SOL    HW1 7169   6.849   6.584  14.446
35110SOL    HW2 7170   6.878   6.609  14.592
35111SOL     OW 7171   6.657   9.921   8.497
35111SOL    HW1 7172   6.689  10.009   8.518
35111SOL    HW2 7173   6.575   9.913   8.546
35112SOL     OW 7174   3.403   7.841   5.718
35112SOL    HW1 7175   3.416   7.898   5.642
35112SOL    HW2 7176   3.352   7.767   5.684
35113SOL     OW 7177  10.071  10.302   4.995
35113SOL    HW1 7178  10.080  10.327   5.087
35113SOL    HW2 7179   9.993  10.247   4.992
35114SOL     OW 7180  10.138   3.006  13.324
35114SOL    HW1 7181  10.075   2.978  13.258
35114SOL    HW2 7182  10.211   3.042  13.273
35115SOL     OW 7183   8.320  14.238   3.039
35115SOL    HW1 7184   8.345  14.270   2.952
35115SOL    HW2 7185   8.226  14.258   3.045
35116SOL     OW 7186  10.893  12.654   9.860
35116SOL    HW1 7187  10.928  12.584   9.804
35116SOL    HW2 7188  10.857  12.608   9.936
35117SOL     OW 7189  12.965  10.324  14.561
35117SOL    HW1 7190  12.911  10.336  14.638
35117SOL    HW2 7191  13.023  10.251  14.583
35118SOL     OW 7192   6.234  13.952  13.625
35118SOL    HW1 7193   6.301  13.951  13.693
35118SOL    HW2 7194   6.259  14.025  13.568
35119SOL     OW 7195   7.882   7.033   8.904
35119SOL    HW1 7196   7.884   7.028   8.999
35119SOL    HW2 7197   7.940   6.962   8.875
35120SOL     OW 7198   9.459   1.570  11.593
35120SOL    HW1 7199   9.370   1.602  11.580
35120SOL    HW2 7200   9.510   1.612  11.522
35121SOL     OW 7201  13.080   2.459  11.542
35121SOL    HW1 7202  13.115   2.532  11.490
35121SOL    HW2 7203  13.122   2.382  11.504
35122SOL     OW 7204  14.745   1.988   9.609
35122SOL    HW1 7205  14.821   2.028   9.569
35122SOL    HW2 7206  14.714   1.925   9.544
35123SOL     OW 7207  11.626  13.897  10.009
35123SOL    HW1 7208  11.715  13.863   9.999
35123SOL    HW2 7209  11.575  13.820  10.036
35124SOL     OW 7210   5.583   8.148  12.859
35124SOL    HW1 7211   5.639   8.196  12.799
35124SOL    HW2 7212   5.614   8.173  12.946
35125SOL     OW 7213  10.879   2.902  14.297
35125SOL    HW1 7214  10.968   2.867  14.302
35125SOL    HW2 7215  10.839   2.877  14.380
35126SOL     OW 7216  13.082   8.987   6.246
35126SOL    HW1 7217  13.104   8.962   6.336
35126SOL    HW2 7218  13.024   9.063   6.256
35127SOL     OW 7219   4.768   9.241  10.793
35127SOL    HW1 7220   4.676   9.261  10.777
35127SOL    HW2 7221   4.799   9.204  10.710
35128SOL     OW 7222   5.025   0.170   8.825
35128SOL    HW1 7223   4.959   0.213   8.879
35128SOL    HW2 7224   5.092   0.142   8.888
35129SOL     OW 7225   6.143  11.335   6.722
35129SOL    HW1 7226   6.069  11.391   6.747
35129SOL    HW2 7227   6.102  11.255   6.688
35130SOL     OW 7228   9.829  13.998   7.342
35130SOL    HW1 7229   9.781  13.950   7.274
35130SOL    HW2 7230   9.911  13.951   7.351
35131SOL     OW 7231  13.331   3.766   6.534
35131SOL    HW1 7232  13.424   3.785   6.542
35131SOL    HW2 7233  13.314   3.699   6.600
35132SOL     OW 7234   8.373   0.978   3.170
35132SOL    HW1 7235   8.416   0.923   3.236
35132SOL    HW2 7236   8.320   1.039   3.220
35133SOL     OW 7237  12.104   5.114  13.624
35133SOL    HW1 7238  12.043   5.139  13.554
35133SOL    HW2 7239  12.166   5.187  13.628
35134SOL     OW 7240  11.494   8.041   4.464
35134SOL    HW1 7241  11.503   8.122   4.412
35134SOL    HW2 7242  11.487   8.072   4.554
35135SOL     OW 7243  13.072   4.740   8.966
35135SOL    HW1 7244  13.165   4.723   8.979
35135SOL    HW2 7245  13.038   4.660   8.927
35136SOL     OW 7246  11.230   6.315   7.660
35136SOL    HW1 7247  11.260   6.311   7.569
35136SOL    HW2 7248  11.140   6.346   7.654
35137SOL     OW 7249   0.651  13.150   2.323
35137SOL    HW1 7250   0.719  13.197   2.371
35137SOL    HW2 7251   0.643  13.067   2.369
35138SOL     OW 7252   3.219   9.961   2.559
35138SOL    HW1 7253   3.253  10.049   2.543
35138SOL    HW2 7254   3.124   9.972   2.557
35139SOL     OW 7255   7.317   6.595   9.549
35139SOL    HW1 7256   7.266   6.597   9.630
35139SOL    HW2 7257   7.374   6.671   9.554
35140SOL     OW 7258   1.328   8.972   7.858
35140SOL    HW1 7259   1.406   8.938   7.814
35140SOL    HW2 7260   1.262   8.976   7.789
35141SOL     OW 7261  11.618   6.687   3.939
35141SOL    HW1 7262  11.615   6.773   3.980
35141SOL    HW2 7263  11.594   6.626   4.008
35142SOL     OW 7264   4.673  14.407   7.286
35142SOL    HW1 7265   4.606  14.475   7.283
35142SOL    HW2 7266   4.628  14.328   7.258
35143SOL     OW 7267  13.227   3.617   6.742
35143SOL    HW1 7268  13.134   3.640   6.742
35143SOL    HW2 7269  13.242   3.576   6.827
35144SOL     OW 7270   4.646   6.583   2.950
35144SOL    HW1 7271   4.610   6.606   2.865
35144SOL    HW2 7272   4.715   6.647   2.966
35145SOL     OW 7273  10.570   7.038  10.188
35145SOL    HW1 7274  10.599   7.128  10.171
35145SOL    HW2 7275  10.475   7.043  10.183
35146SOL     OW 7276  14.832   4.611   3.218
35146SOL    HW1 7277  14.752   4.562   3.202
35146SOL    HW2 7278   0.002   4.599   3.139
35147SOL     OW 7279  10.682  10.830   6.195
35147SOL    HW1 7280  10.589  10.836   6.214
35147SOL    HW2 7281  10.706  10.740   6.218
35148SOL     OW 7282  10.875  10.979  14.118
35148SOL    HW1 7283  10.842  11.057  14.071
35148SOL    HW2 7284  10.906  10.921  14.049
35149SOL     OW 7285   8.891  11.638   8.467
35149SOL    HW1 7286   8.833  11.635   8.543
35149SOL    HW2 7287   8.841  11.688   8.402
35150SOL     OW 7288  10.504   9.353  10.455
35150SOL    HW1 7289  10.578   9.315  10.503
35150SOL    HW2 7290  10.427   9.309  10.491
35151SOL     OW 7291   2.665   1.889   2.064
35151SOL    HW1 7292   2.725   1.831   2.017
35151SOL    HW2 7293   2.690   1.977   2.036
35152SOL     OW 7294  10.903   5.036   0.288
35152SOL    HW1 7295  10.967   4.984   0.337
35152SOL    HW2 7296  10.829   4.977   0.276
35153SOL     OW 7297  13.032  14.420   4.244
35153SOL    HW1 7298  13.079  14.394   4.324
35153SOL    HW2 7299  13.066  14.507   4.224
35154SOL     OW 7300   1.826   3.773  10.913
35154SOL    HW1 7301   1.820   3.782  11.008
35154SOL    HW2 7302   1.899   3.830  10.888
35155SOL     OW 7303  11.214  14.603  11.089
35155SOL    HW1 7304  11.269  14.549  11.031
35155SOL    HW2 7305  11.269  14.680  11.107
35156SOL     OW 7306   0.399  13.839   7.064
35156SOL    HW1 7307   0.457  13.913   7.082
35156SOL    HW2 7308   0.454  13.775   7.019
35157SOL     OW 7309   1.290   8.377   3.300
35157SOL    HW1 7310   1.230   8.374   3.375
35157SOL    HW2 7311   1.308   8.285   3.281
35158SOL     OW 7312   7.047  12.343  10.163
35158SOL    HW1 7313   6.998  12.405  10.217
35158SOL    HW2 7314   7.123  12.393  10.131
35159SOL     OW 7315   4.906   6.908   9.636
35159SOL    HW1 7316   4.819   6.897   9.675
35159SOL    HW2 7317   4.958   6.837   9.675
35160SOL     OW 7318   6.961   0.461   3.868
35160SOL    HW1 7319   6.944   0.540   3.919
35160SOL    HW2 7320   6.949   0.389   3.930
35161SOL     OW 7321   9.518  11.986  10.884
35161SOL    HW1 7322   9.473  11.925  10.942
35161SOL    HW2 7323   9.604  11.999  10.925
35162SOL     OW 7324   2.126   0.119   9.498
35162SOL    HW1 7325   2.031   0.113   9.503
35162SOL    HW2 7326   2.153   0.036   9.458
35163SOL     OW 7327  11.150  12.979   3.772
35163SOL    HW1 7328  11.213  12.966   3.701
35163SOL    HW2 7329  11.191  12.936   3.848
35164SOL     OW 7330   4.659   2.868  11.633
35164SOL    HW1 7331   4.613   2.916  11.565
35164SOL    HW2 7332   4.697   2.935  11.690
35165SOL     OW 7333   6.832   5.400   7.885
35165SOL    HW1 7334   6.741   5.427   7.875
35165SOL    HW2 7335   6.829   5.304   7.891
35166SOL     OW 7336   9.479   8.275   8.154
35166SOL    HW1 7337   9.537   8.233   8.217
35166SOL    HW2 7338   9.404   8.217   8.147
35167SOL     OW 7339   5.277  13.240   5.180
35167SOL    HW1 7340   5.312  13.164   5.227
35167SOL    HW2 7341   5.341  13.309   5.196
35168SOL     OW 7342   8.466  14.319   4.390
35168SOL    HW1 7343   8.397  14.253   4.393
35168SOL    HW2 7344   8.474  14.341   4.297
35169SOL     OW 7345   1.252   0.335   2.375
35169SOL    HW1 7346   1.294   0.418   2.352
35169SOL    HW2 7347   1.325   0.272   2.380
35170SOL     OW 7348   9.828  13.062   1.436
35170SOL    HW1 7349   9.774  13.079   1.359
35170SOL    HW2 7350   9.784  13.108   1.508
35171SOL     OW 7351   7.010  10.635  12.931
35171SOL    HW1 7352   7.058  10.717  12.938
35171SOL    HW2 7353   7.032  10.587  13.010
35172SOL     OW 7354   5.712  12.991   5.822
35172SOL    HW1 7355   5.725  12.929   5.750
35172SOL    HW2 7356   5.621  12.980   5.847
35173SOL     OW 7357   7.116   5.167   0.253
35173SOL    HW1 7358   7.139   5.194   0.164
35173SOL    HW2 7359   7.091   5.075   0.244
35174SOL     OW 7360  11.090   1.038   2.455
35174SOL    HW1 7361  11.184   1.024   2.465
35174SOL    HW2 7362  11.082   1.105   2.387
35175SOL     OW 7363  11.942   5.062   5.222
35175SOL    HW1 7364  11.881   5.128   5.255
35175SOL    HW2 7365  11.894   5.017   5.152
35176SOL     OW 7366  13.656  10.883   5.213
35176SOL    HW1 7367  13.619  10.898   5.300
35176SOL    HW2 7368  13.750  10.895   5.225
35177SOL     OW 7369   5.096   4.341  12.863
35177SOL    HW1 7370   5.184   4.361  12.834
35177SOL    HW2 7371   5.054   4.427  12.874
35178SOL     OW 7372   8.256   5.640   3.243
35178SOL    HW1 7373   8.308   5.560   3.239
35178SOL    HW2 7374   8.166   5.612   3.222
35179SOL     OW 7375   4.778   9.604   2.947
35179SOL    HW1 7376   4.784   9.606   3.043
35179SOL    HW2 7377   4.776   9.511   2.926
35180SOL     OW 7378   5.081   6.014   7.426
35180SOL    HW1 7379   5.031   5.953   7.372
35180SOL    HW2 7380   5.031   6.019   7.508
35181SOL     OW 7381   5.806  13.273  11.055
35181SOL    HW1 7382   5.798  13.281  10.960
35181SOL    HW2 7383   5.804  13.179  11.072
35182SOL     OW 7384   5.226   1.596  10.892
35182SOL    HW1 7385   5.234   1.590  10.988
35182SOL    HW2 7386   5.144   1.551  10.872
35183SOL     OW 7387  10.697   0.377   1.058
35183SOL    HW1 7388  10.644   0.380   1.138
35183SOL    HW2 7389  10.637   0.345   0.990
35184SOL     OW 7390  11.198   8.839   4.216
35184SOL    HW1 7391  11.154   8.882   4.143
35184SOL    HW2 7392  11.153   8.871   4.294
35185SOL     OW 7393  12.283   5.242   8.168
35185SOL    HW1 7394  12.337   5.318   8.189
35185SOL    HW2 7395  12.282   5.191   8.248
35186SOL     OW 7396  13.158   2.843   9.385
35186SOL    HW1 7397  13.087   2.876   9.330
35186SOL    HW2 7398  13.141   2.881   9.471
35187SOL     OW 7399   9.238  10.131   3.483
35187SOL    HW1 7400   9.198  10.196   3.541
35187SOL    HW2 7401   9.217  10.047   3.524
35188SOL     OW 7402   9.056  14.349  14.045
35188SOL    HW1 7403   9.022  14.329  13.958
35188SOL    HW2 7404   9.124  14.415  14.029
35189SOL     OW 7405   8.391   5.428  12.284
35189SOL    HW1 7406   8.306   5.414  12.243
35189SOL    HW2 7407   8.441   5.350  12.262
35190SOL     OW 7408   8.139   0.616  11.080
35190SOL    HW1 7409   8.097   0.560  11.013
35190SOL    HW2 7410   8.140   0.703  11.040
35191SOL     OW 7411  12.067  10.569   4.411
35191SOL    HW1 7412  12.037  10.654   4.381
35191SOL    HW2 7413  12.067  10.575   4.507
35192SOL     OW 7414   2.883   6.745   3.999
35192SOL    HW1 7415   2.899   6.831   3.959
35192SOL    HW2 7416   2.923   6.752   4.086
35193SOL     OW 7417   9.307  10.515   1.829
35193SOL    HW1 7418   9.229  10.489   1.781
35193SOL    HW2 7419   9.330  10.601   1.794
35194SOL     OW 7420   9.144   8.275   7.952
35194SOL    HW1 7421   9.136   8.322   8.035
35194SOL    HW2 7422   9.123   8.341   7.886
35195SOL     OW 7423   7.818   9.235  13.539
35195SOL    HW1 7424   7.816   9.146  13.575
35195SOL    HW2 7425   7.847   9.290  13.611
35196SOL     OW 7426  12.266   3.613   9.243
35196SOL    HW1 7427  12.303   3.644   9.326
35196SOL    HW2 7428  12.212   3.685   9.213
35197SOL     OW 7429   4.386  14.720   2.284
35197SOL    HW1 7430   4.472  14.686   2.260
35197SOL    HW2 7431   4.378  14.704   2.378
35198SOL     OW 7432   5.003   7.377  12.285
35198SOL    HW1 7433   4.960   7.334  12.359
35198SOL    HW2 7434   4.934   7.426  12.241
35199SOL     OW 7435  12.209  12.451  11.993
35199SOL    HW1 7436  12.298  12.421  12.007
35199SOL    HW2 7437  12.154  12.374  12.007
35200SOL     OW 7438  13.338  13.438   7.403
35200SOL    HW1 7439  13.347  13.420   7.497
35200SOL    HW2 7440  13.249  13.410   7.381
35201SOL     OW 7441   9.894  11.342   5.889
35201SOL    HW1 7442   9.833  11.281   5.846
35201SOL    HW2 7443   9.972  11.341   5.833
35202SOL     OW 7444   0.130   3.178  12.275
35202SOL    HW1 7445   0.039   3.207  12.278
35202SOL    HW2 7446   0.158   3.179  12.366
35203SOL     OW 7447   9.855   7.505   4.683
35203SOL    HW1 7448   9.899   7.545   4.608
35203SOL    HW2 7449   9.802   7.435   4.645
35204SOL     OW 7450   1.463   3.898   4.270
35204SOL    HW1 7451   1.534   3.834   4.267
35204SOL    HW2 7452   1.404   3.865   4.337
35205SOL     OW 7453   9.899   7.542   2.018
35205SOL    HW1 7454   9.887   7.447   2.008
35205SOL    HW2 7455   9.954   7.551   2.096
35206SOL     OW 7456  12.452   5.402   0.464
35206SOL    HW1 7457  12.401   5.363   0.536
35206SOL    HW2 7458  12.425   5.493   0.462
35207SOL     OW 7459   8.170   9.799  11.545
35207SOL    HW1 7460   8.202   9.877  11.590
35207SOL    HW2 7461   8.096   9.829  11.493
35208SOL     OW 7462  13.646   2.173   9.727
35208SOL    HW1 7463  13.646   2.243   9.791
35208SOL    HW2 7464  13.555   2.147   9.719
35209SOL     OW 7465   3.396   5.102   9.598
35209SOL    HW1 7466   3.416   5.195   9.608
35209SOL    HW2 7467   3.301   5.096   9.609
35210SOL     OW 7468   7.291   7.183   1.744
35210SOL    HW1 7469   7.238   7.156   1.669
35210SOL    HW2 7470   7.378   7.148   1.725
35211SOL     OW 7471   8.977   6.139   4.602
35211SOL    HW1 7472   8.976   6.234   4.596
35211SOL    HW2 7473   8.890   6.111   4.575
35212SOL     OW 7474  13.248  13.256   8.156
35212SOL    HW1 7475  13.234  13.350   8.143
35212SOL    HW2 7476  13.296  13.228   8.078
35213SOL     OW 7477   9.174   6.853   0.701
35213SOL    HW1 7478   9.241   6.922   0.701
35213SOL    HW2 7479   9.165   6.828   0.792
35214SOL     OW 7480   2.091   1.306  11.171
35214SOL    HW1 7481   2.079   1.385  11.118
35214SOL    HW2 7482   2.036   1.240  11.129
35215SOL     OW 7483  14.755   3.871   0.350
35215SOL    HW1 7484  14.700   3.925   0.407
35215SOL    HW2 7485  14.697   3.846   0.278
35216SOL     OW 7486   8.295  13.368  11.957
35216SOL    HW1 7487   8.244  13.297  11.995
35216SOL    HW2 7488   8.270  13.368  11.864
35217SOL     OW 7489   2.339   0.460   4.414
35217SOL    HW1 7490   2.373   0.509   4.339
35217SOL    HW2 7491   2.290   0.388   4.374
35218SOL     OW 7492  11.363   4.441  13.547
35218SOL    HW1 7493  11.353   4.402  13.460
35218SOL    HW2 7494  11.336   4.532  13.535
35219SOL     OW 7495  10.808  12.198   1.834
35219SOL    HW1 7496  10.854  12.122   1.799
35219SOL    HW2 7497  10.877  12.256   1.867
35220SOL     OW 7498   1.964  12.070   6.929
35220SOL    HW1 7499   1.997  12.031   6.848
35220SOL    HW2 7500   1.991  12.162   6.924
35221SOL     OW 7501  10.916   0.182   2.535
35221SOL    HW1 7502  10.941   0.274   2.522
35221SOL    HW2 7503  10.996   0.140   2.568
35222SOL     OW 7504  14.703  11.862   7.157
35222SOL    HW1 7505  14.738  11.951   7.153
35222SOL    HW2 7506  14.634  11.860   7.091
35223SOL     OW 7507   0.768   7.604  10.304
35223SOL    HW1 7508   0.722   7.521  10.293
35223SOL    HW2 7509   0.824   7.591  10.381
35224SOL     OW 7510   0.342   8.417  13.523
35224SOL    HW1 7511   0.253   8.427  13.557
35224SOL    HW2 7512   0.331   8.398  13.430
35225SOL     OW 7513   0.334  13.726   6.367
35225SOL    HW1 7514   0.289  13.804   6.337
35225SOL    HW2 7515   0.268  13.679   6.419
35226SOL     OW 7516   8.368   1.075  11.180
35226SOL    HW1 7517   8.400   1.031  11.259
35226SOL    HW2 7518   8.330   1.157  11.213
35227SOL     OW 7519   3.940   6.260   3.350
35227SOL    HW1 7520   4.026   6.263   3.390
35227SOL    HW2 7521   3.952   6.298   3.263
35228SOL     OW 7522   0.269  11.745   9.325
35228SOL    HW1 7523   0.265  11.778   9.415
35228SOL    HW2 7524   0.359  11.712   9.315
35229SOL     OW 7525  13.238   6.817  13.395
35229SOL    HW1 7526  13.210   6.894  13.445
35229SOL    HW2 7527  13.324   6.796  13.432
35230SOL     OW 7528  10.862   8.203  13.045
35230SOL    HW1 7529  10.941   8.255  13.057
35230SOL    HW2 7530  10.828   8.191  13.134
35231SOL     OW 7531  12.868   1.631   7.717
35231SOL    HW1 7532  12.928   1.575   7.766
35231SOL    HW2 7533  12.895   1.622   7.626
35232SOL     OW 7534   8.966   2.691  13.868
35232SOL    HW1 7535   9.057   2.711  13.846
35232SOL    HW2 7536   8.948   2.745  13.945
35233SOL     OW 7537   0.073   3.431  14.327
35233SOL    HW1 7538   0.142   3.496  14.336
35233SOL    HW2 7539   0.047   3.412  14.418
35234SOL     OW 7540   0.785  13.654   7.908
35234SOL    HW1 7541   0.696  13.681   7.886
35234SOL    HW2 7542   0.814  13.601   7.834
35235SOL     OW 7543  14.115  10.511   7.990
35235SOL    HW1 7544  14.105  10.503   8.084
35235SOL    HW2 7545  14.161  10.594   7.977
35236SOL     OW 7546  12.812   2.464  10.048
35236SOL    HW1 7547  12.820   2.397  10.115
35236SOL    HW2 7548  12.728   2.448  10.007
35237SOL     OW 7549  13.181   9.310   0.403
35237SOL    HW1 7550  13.135   9.227   0.395
35237SOL    HW2 7551  13.192   9.341   0.313
35238SOL     OW 7552   7.188  10.040   3.794
35238SOL    HW1 7553   7.250   9.969   3.778
35238SOL    HW2 7554   7.239  10.120   3.782
35239SOL     OW 7555   9.452   7.371  10.573
35239SOL    HW1 7556   9.465   7.397  10.665
35239SOL    HW2 7557   9.498   7.288  10.565
35240SOL     OW 7558  12.480   6.963  10.887
35240SOL    HW1 7559  12.499   6.914  10.808
35240SOL    HW2 7560  12.530   7.044  10.878
35241SOL     OW 7561  11.398   3.688  11.298
35241SOL    HW1 7562  11.329   3.693  11.364
35241SOL    HW2 7563  11.417   3.594  11.291
35242SOL     OW 7564   8.257  14.680   3.340
35242SOL    HW1 7565   8.165  14.703   3.328
35242SOL    HW2 7566   8.271  14.683   3.435
35243SOL     OW 7567  12.168   7.999   2.404
35243SOL    HW1 7568  12.164   8.094   2.398
35243SOL    HW2 7569  12.087   7.974   2.448
35244SOL     OW 7570   1.891   9.217  10.298
35244SOL    HW1 7571   1.819   9.264  10.257
35244SOL    HW2 7572   1.866   9.210  10.391
35245SOL     OW 7573   3.545   1.083   5.119
35245SOL    HW1 7574   3.490   1.149   5.077
35245SOL    HW2 7575   3.489   1.006   5.126
35246SOL     OW 7576   9.148   6.307  10.363
35246SOL    HW1 7577   9.171   6.231  10.310
35246SOL    HW2 7578   9.081   6.275  10.424
35247SOL     OW 7579  11.331  10.151   5.350
35247SOL    HW1 7580  11.238  10.164   5.369
35247SOL    HW2 7581  11.377  10.193   5.423
35248SOL     OW 7582   9.669   3.935   5.703
35248SOL    HW1 7583   9.576   3.955   5.711
35248SOL    HW2 7584   9.701   3.930   5.793
35249SOL     OW 7585   1.742   4.859   3.199
35249SOL    HW1 7586   1.687   4.905   3.262
35249SOL    HW2 7587   1.682   4.836   3.128
35250SOL     OW 7588  11.712  12.749   2.359
35250SOL    HW1 7589  11.806  12.734   2.346
35250SOL    HW2 7590  11.701  12.749   2.454
35251SOL     OW 7591   9.392   2.669   4.023
35251SOL    HW1 7592   9.377   2.750   4.071
35251SOL    HW2 7593   9.448   2.696   3.949
35252SOL     OW 7594   3.595   9.952   5.835
35252SOL    HW1 7595   3.645   9.893   5.892
35252SOL    HW2 7596   3.525   9.985   5.891
35253SOL     OW 7597  11.069   7.510  14.240
35253SOL    HW1 7598  11.085   7.600  14.213
35253SOL    HW2 7599  11.025   7.517  14.325
35254SOL     OW 7600   5.342  14.620   0.851
35254SOL    HW1 7601   5.415  14.681   0.858
35254SOL    HW2 7602   5.364  14.550   0.913
35255SOL     OW 7603   7.694   9.671   0.021
35255SOL    HW1 7604   7.711   9.762   0.045
35255SOL    HW2 7605   7.734   9.620   0.092
35256SOL     OW 7606   3.724  11.627   8.882
35256SOL    HW1 7607   3.731  11.647   8.789
35256SOL    HW2 7608   3.807  11.586   8.904
35257SOL     OW 7609  11.152  10.309   4.218
35257SOL    HW1 7610  11.238  10.349   4.207
35257SOL    HW2 7611  11.159  10.224   4.176
35258SOL     OW 7612   2.211   4.300  13.969
35258SOL    HW1 7613   2.229   4.378  14.022
35258SOL    HW2 7614   2.117   4.305  13.951
35259SOL     OW 7615   6.053   3.020   2.054
35259SOL    HW1 7616   5.961   3.000   2.038
35259SOL    HW2 7617   6.076   3.085   1.988
35260SOL     OW 7618   3.808   1.170   8.176
35260SOL    HW1 7619   3.855   1.226   8.237
35260SOL    HW2 7620   3.716   1.193   8.189
35261SOL     OW 7621  14.300  13.965   9.764
35261SOL    HW1 7622  14.312  14.056   9.789
35261SOL    HW2 7623  14.383  13.922   9.789
35262SOL     OW 7624  11.067   4.506   3.028
35262SOL    HW1 7625  11.067   4.601   3.039
35262SOL    HW2 7626  11.158   4.482   3.014
35263SOL     OW 7627  11.983   3.127   3.068
35263SOL    HW1 7628  11.923   3.200   3.053
35263SOL    HW2 7629  11.948   3.084   3.146
35264SOL     OW 7630  12.952   1.542  13.553
35264SOL    HW1 7631  12.956   1.598  13.630
35264SOL    HW2 7632  13.013   1.470  13.573
35265SOL     OW 7633  13.696   2.757   9.010
35265SOL    HW1 7634  13.701   2.756   9.106
35265SOL    HW2 7635  13.606   2.734   8.990
35266SOL     OW 7636  10.742  13.958   6.703
35266SOL    HW1 7637  10.675  13.890   6.704
35266SOL    HW2 7638  10.697  14.036   6.672
35267SOL     OW 7639  14.598   0.455   4.079
35267SOL    HW1 7640  14.682   0.470   4.035
35267SOL    HW2 7641  14.621   0.437   4.170
35268SOL     OW 7642   8.926  12.666   9.231
35268SOL    HW1 7643   8.881  12.734   9.180
35268SOL    HW2 7644   9.010  12.656   9.188
35269SOL     OW 7645  12.309   0.959   6.654
35269SOL    HW1 7646  12.369   0.888   6.632
35269SOL    HW2 7647  12.227   0.915   6.677
35270SOL     OW 7648  11.292  10.909  13.511
35270SOL    HW1 7649  11.198  10.916  13.530
35270SOL    HW2 7650  11.329  10.867  13.588
35271SOL     OW 7651   9.721  14.267   8.148
35271SOL    HW1 7652   9.807  14.304   8.131
35271SOL    HW2 7653   9.732  14.218   8.230
35272SOL     OW 7654   7.035  14.203   8.204
35272SOL    HW1 7655   6.947  14.242   8.209
35272SOL    HW2 7656   7.083  14.243   8.276
35273SOL     OW 7657   1.735   7.466   5.116
35273SOL    HW1 7658   1.707   7.451   5.206
35273SOL    HW2 7659   1.829   7.449   5.116
35274SOL     OW 7660   4.010  10.718   4.278
35274SOL    HW1 7661   3.929  10.749   4.238
35274SOL    HW2 7662   4.001  10.622   4.279
35275SOL     OW 7663  12.240   4.946   4.151
35275SOL    HW1 7664  12.310   4.969   4.212
35275SOL    HW2 7665  12.232   5.021   4.093
35276SOL     OW 7666   6.963   3.144   0.478
35276SOL    HW1 7667   6.952   3.072   0.539
35276SOL    HW2 7668   6.876   3.155   0.438
35277SOL     OW 7669  10.470   3.946  11.543
35277SOL    HW1 7670  10.514   3.957  11.459
35277SOL    HW2 7671  10.495   4.024  11.593
35278SOL     OW 7672   7.449   5.112   9.280
35278SOL    HW1 7673   7.431   5.027   9.320
35278SOL    HW2 7674   7.385   5.119   9.209
35279SOL     OW 7675   3.088  14.047   0.576
35279SOL    HW1 7676   3.022  13.999   0.626
35279SOL    HW2 7677   3.038  14.106   0.520
35280SOL     OW 7678   2.023  12.021  12.111
35280SOL    HW1 7679   2.097  11.992  12.056
35280SOL    HW2 7680   1.963  11.946  12.111
35281SOL     OW 7681   0.277   4.434   3.081
35281SOL    HW1 7682   0.318   4.348   3.073
35281SOL    HW2 7683   0.299   4.463   3.169
35282SOL     OW 7684   2.943  10.334   8.795
35282SOL    HW1 7685   2.932  10.419   8.751
35282SOL    HW2 7686   2.998  10.283   8.735
35283SOL     OW 7687   7.372   9.257   7.914
35283SOL    HW1 7688   7.284   9.266   7.877
35283SOL    HW2 7689   7.412   9.185   7.866
35284SOL     OW 7690  13.091   0.682   7.538
35284SOL    HW1 7691  13.135   0.714   7.616
35284SOL    HW2 7692  12.998   0.681   7.561
35285SOL     OW 7693   0.935   5.422   8.340
35285SOL    HW1 7694   0.862   5.484   8.338
35285SOL    HW2 7695   0.934   5.386   8.429
35286SOL     OW 7696   3.243   1.683   8.094
35286SOL    HW1 7697   3.294   1.676   8.175
35286SOL    HW2 7698   3.158   1.718   8.122
35287SOL     OW 7699   5.657   9.598   3.931
35287SOL    HW1 7700   5.673   9.650   4.010
35287SOL    HW2 7701   5.566   9.618   3.907
35288SOL     OW 7702  12.971   0.630  12.993
35288SOL    HW1 7703  12.963   0.545  12.951
35288SOL    HW2 7704  12.900   0.682  12.956
35289SOL     OW 7705   0.622  14.696   4.899
35289SOL    HW1 7706   0.534  14.717   4.931
35289SOL    HW2 7707   0.608  14.671   4.807
35290SOL     OW 7708  14.732   7.373  14.429
35290SOL    HW1 7709  14.807   7.433  14.428
35290SOL    HW2 7710  14.676   7.403  14.357
35291SOL     OW 7711  10.592   7.420  13.235
35291SOL    HW1 7712  10.567   7.500  13.188
35291SOL    HW2 7713  10.572   7.439  13.326
35292SOL     OW 7714  10.770  10.514  12.423
35292SOL    HW1 7715  10.790  10.579  12.355
35292SOL    HW2 7716  10.676  10.498  12.414
35293SOL     OW 7717  11.143   9.854   1.369
35293SOL    HW1 7718  11.200   9.835   1.295
35293SOL    HW2 7719  11.112   9.768   1.399
35294SOL     OW 7720  10.236   4.502   1.658
35294SOL    HW1 7721  10.175   4.430   1.675
35294SOL    HW2 7722  10.254   4.497   1.564
35295SOL     OW 7723   5.377   8.887   5.764
35295SOL    HW1 7724   5.342   8.970   5.731
35295SOL    HW2 7725   5.339   8.878   5.851
35296SOL     OW 7726   2.473  11.462   9.643
35296SOL    HW1 7727   2.480  11.384   9.699
35296SOL    HW2 7728   2.518  11.531   9.693
35297SOL     OW 7729  12.102   1.268  10.790
35297SOL    HW1 7730  12.183   1.305  10.756
35297SOL    HW2 7731  12.038   1.283  10.720
35298SOL     OW 7732   3.572   2.539  14.830
35298SOL    HW1 7733   3.518   2.507   0.020
35298SOL    HW2 7734   3.519   2.522  14.751
35299SOL     OW 7735   6.482  10.254   4.748
35299SOL    HW1 7736   6.455  10.281   4.660
35299SOL    HW2 7737   6.436  10.314   4.806
35300SOL     OW 7738  13.290   5.580   8.086
35300SOL    HW1 7739  13.242   5.517   8.140
35300SOL    HW2 7740  13.222   5.637   8.050
35301SOL     OW 7741   3.260  12.026   2.009
35301SOL    HW1 7742   3.337  11.970   2.020
35301SOL    HW2 7743   3.286  12.088   1.941
35302SOL     OW 7744   5.025   6.167   4.878
35302SOL    HW1 7745   4.995   6.222   4.950
35302SOL    HW2 7746   5.066   6.092   4.921
35303SOL     OW 7747  11.050   9.377   0.650
35303SOL    HW1 7748  11.072   9.303   0.593
35303SOL    HW2 7749  11.020   9.336   0.731
35304SOL     OW 7750   4.370  13.612   2.243
35304SOL    HW1 7751   4.335  13.523   2.250
35304SOL    HW2 7752   4.298  13.667   2.273
35305SOL     OW 7753   8.092   9.404   3.305
35305SOL    HW1 7754   8.184   9.423   3.322
35305SOL    HW2 7755   8.048   9.420   3.388
35306SOL     OW 7756  11.860   9.942  14.348
35306SOL    HW1 7757  11.807  10.022  14.351
35306SOL    HW2 7758  11.941   9.965  14.395
35307SOL     OW 7759   5.418   6.171   1.106
35307SOL    HW1 7760   5.401   6.113   1.180
35307SOL    HW2 7761   5.402   6.117   1.028
35308SOL     OW 7762   0.022   8.057   9.016
35308SOL    HW1 7763   0.059   8.041   9.103
35308SOL    HW2 7764   0.034   7.974   8.969
35309SOL     OW 7765   7.576   3.950   5.400
35309SOL    HW1 7766   7.491   3.911   5.378
35309SOL    HW2 7767   7.626   3.878   5.439
35310SOL     OW 7768   0.804   8.403   5.402
35310SOL    HW1 7769   0.769   8.450   5.327
35310SOL    HW2 7770   0.726   8.376   5.452
35311SOL     OW 7771   3.595   2.155   8.291
35311SOL    HW1 7772   3.624   2.165   8.200
35311SOL    HW2 7773   3.659   2.206   8.342
35312SOL     OW 7774   6.702   3.387  14.483
35312SOL    HW1 7775   6.692   3.331  14.559
35312SOL    HW2 7776   6.616   3.426  14.470
35313SOL     OW 7777   0.722   8.336   4.409
35313SOL    HW1 7778   0.676   8.327   4.492
35313SOL    HW2 7779   0.656   8.315   4.342
35314SOL     OW 7780   2.190   7.262   5.479
35314SOL    HW1 7781   2.201   7.221   5.565
35314SOL    HW2 7782   2.198   7.356   5.496
35315SOL     OW 7783  12.771   0.957  12.241
35315SOL    HW1 7784  12.709   0.887  12.220
35315SOL    HW2 7785  12.793   0.943  12.333
35316SOL     OW 7786   0.093  14.302   0.199
35316SOL    HW1 7787   0.081  14.302   0.294
35316SOL    HW2 7788   0.188  14.302   0.186
35317SOL     OW 7789  14.829  10.170  10.235
35317SOL    HW1 7790  14.866  10.182  10.148
35317SOL    HW2 7791  14.734  10.173  10.222
35318SOL     OW 7792  11.327  11.803   5.322
35318SOL    HW1 7793  11.387  11.730   5.338
35318SOL    HW2 7794  11.369  11.853   5.251
35319SOL     OW 7795  10.749   8.409   8.880
35319SOL    HW1 7796  10.773   8.412   8.972
35319SOL    HW2 7797  10.766   8.498   8.848
35320SOL     OW 7798  10.969  13.990   6.392
35320SOL    HW1 7799  10.972  14.012   6.485
35320SOL    HW2 7800  11.024  13.912   6.384
35321SOL     OW 7801   5.783   4.232   5.833
35321SOL    HW1 7802   5.743   4.176   5.899
35321SOL    HW2 7803   5.710   4.286   5.801
35322SOL     OW 7804   8.876   3.047   1.472
35322SOL    HW1 7805   8.830   2.992   1.408
35322SOL    HW2 7806   8.883   2.994   1.550
35323SOL     OW 7807  13.964  13.007   0.608
35323SOL    HW1 7808  14.010  12.956   0.542
35323SOL    HW2 7809  13.886  12.955   0.628
35324SOL     OW 7810   1.633   7.849  10.814
35324SOL    HW1 7811   1.620   7.943  10.797
35324SOL    HW2 7812   1.553   7.823  10.861
35325SOL     OW 7813  14.793   8.432   6.986
35325SOL    HW1 7814  14.787   8.353   6.933
35325SOL    HW2 7815   0.002   8.461   6.976
35326SOL     OW 7816   7.248  14.245   7.188
35326SOL    HW1 7817   7.209  14.298   7.119
35326SOL    HW2 7818   7.326  14.295   7.215
35327SOL     OW 7819   4.647   4.503   2.421
35327SOL    HW1 7820   4.589   4.567   2.382
35327SOL    HW2 7821   4.594   4.424   2.431
35328SOL     OW 7822   4.562  12.092   1.051
35328SOL    HW1 7823   4.513  12.169   1.079
35328SOL    HW2 7824   4.496  12.032   1.018
35329SOL     OW 7825   7.998  13.578   4.434
35329SOL    HW1 7826   7.924  13.637   4.419
35329SOL    HW2 7827   8.060  13.630   4.485
35330SOL     OW 7828   6.842  10.410  11.613
35330SOL    HW1 7829   6.900  10.336  11.599
35330SOL    HW2 7830   6.891  10.468  11.672
35331SOL     OW 7831   9.183   8.432   5.481
35331SOL    HW1 7832   9.271   8.467   5.495
35331SOL    HW2 7833   9.198   8.342   5.452
35332SOL     OW 7834   7.108   2.565  11.636
35332SOL    HW1 7835   7.057   2.484  11.635
35332SOL    HW2 7836   7.112   2.593  11.545
35333SOL     OW 7837   0.815   7.409  13.097
35333SOL    HW1 7838   0.790   7.335  13.041
35333SOL    HW2 7839   0.905   7.391  13.122
35334SOL     OW 7840  12.242   0.362  10.913
35334SOL    HW1 7841  12.189   0.369  10.993
35334SOL    HW2 7842  12.302   0.437  10.917
35335SOL     OW 7843   9.222  13.479  13.420
35335SOL    HW1 7844   9.297  13.420  13.420
35335SOL    HW2 7845   9.212  13.506  13.511
35336SOL     OW 7846   4.484  14.528  13.538
35336SOL    HW1 7847   4.570  14.490  13.521
35336SOL    HW2 7848   4.475  14.597  13.473
35337SOL     OW 7849   4.788   8.324   3.817
35337SOL    HW1 7850   4.724   8.262   3.851
35337SOL    HW2 7851   4.783   8.313   3.722
35338SOL     OW 7852   8.400  10.640   4.121
35338SOL    HW1 7853   8.445  10.660   4.204
35338SOL    HW2 7854   8.374  10.549   4.129
35339SOL     OW 7855   5.996  11.008   8.248
35339SOL    HW1 7856   5.938  11.057   8.307
35339SOL    HW2 7857   6.059  10.965   8.307
35340SOL     OW 7858   0.924   5.488   3.261
35340SOL    HW1 7859   0.955   5.554   3.200
35340SOL    HW2 7860   0.852   5.530   3.308
35341SOL     OW 7861  12.729   5.367  10.652
35341SOL    HW1 7862  12.713   5.443  10.708
35341SOL    HW2 7863  12.642   5.340  10.623
35342SOL     OW 7864  14.876   9.388   6.498
35342SOL    HW1 7865  14.786   9.412   6.518
35342SOL    HW2 7866   0.004   9.299   6.532
35343SOL     OW 7867  11.295   8.194   8.945
35343SOL    HW1 7868  11.342   8.237   8.874
35343SOL    HW2 7869  11.203   8.205   8.924
35344SOL     OW 7870   3.300   9.074   6.844
35344SOL    HW1 7871   3.359   9.012   6.887
35344SOL    HW2 7872   3.351   9.153   6.832
35345SOL     OW 7873   7.056   2.551  12.060
35345SOL    HW1 7874   7.039   2.628  12.005
35345SOL    HW2 7875   6.983   2.492  12.043
35346SOL     OW 7876   0.839  11.936  10.386
35346SOL    HW1 7877   0.880  11.884  10.455
35346SOL    HW2 7878   0.762  11.975  10.428
35347SOL     OW 7879   4.154   2.248   5.011
35347SOL    HW1 7880   4.214   2.297   4.955
35347SOL    HW2 7881   4.076   2.236   4.957
35348SOL     OW 7882   7.099   1.491   1.752
35348SOL    HW1 7883   7.153   1.423   1.793
35348SOL    HW2 7884   7.089   1.461   1.662
35349SOL     OW 7885   6.402   3.633   0.674
35349SOL    HW1 7886   6.421   3.592   0.758
35349SOL    HW2 7887   6.461   3.708   0.670
35350SOL     OW 7888   7.214   2.968  13.723
35350SOL    HW1 7889   7.266   2.976  13.803
35350SOL    HW2 7890   7.123   2.966  13.754
35351SOL     OW 7891  11.915   2.029  13.624
35351SOL    HW1 7892  11.913   2.105  13.682
35351SOL    HW2 7893  11.827   2.023  13.588
35352SOL     OW 7894   5.550   6.788   1.052
35352SOL    HW1 7895   5.545   6.882   1.065
35352SOL    HW2 7896   5.589   6.778   0.965
35353SOL     OW 7897   7.107   8.054  12.107
35353SOL    HW1 7898   7.012   8.048  12.098
35353SOL    HW2 7899   7.121   8.079  12.198
35354SOL     OW 7900   8.226   7.842  13.589
35354SOL    HW1 7901   8.198   7.826  13.499
35354SOL    HW2 7902   8.149   7.821  13.642
35355SOL     OW 7903  14.346  12.863  12.214
35355SOL    HW1 7904  14.279  12.807  12.253
35355SOL    HW2 7905  14.385  12.909  12.289
35356SOL     OW 7906   9.591   7.915   0.057
35356SOL    HW1 7907   9.646   7.843   0.089
35356SOL    HW2 7908   9.525   7.927   0.125
35357SOL     OW 7909  13.002  10.219   7.449
35357SOL    HW1 7910  13.073  10.184   7.502
35357SOL    HW2 7911  12.940  10.146   7.440
35358SOL     OW 7912   4.864   5.577   6.563
35358SOL    HW1 7913   4.812   5.646   6.523
35358SOL    HW2 7914   4.885   5.518   6.491
35359SOL     OW 7915   8.916  13.477   1.274
35359SOL    HW1 7916   8.998  13.491   1.227
35359SOL    HW2 7917   8.882  13.566   1.290
35360SOL     OW 7918   6.665  10.197   6.119
35360SOL    HW1 7919   6.723  10.156   6.183
35360SOL    HW2 7920   6.719  10.263   6.076
35361SOL     OW 7921  10.334  11.873  13.130
35361SOL    HW1 7922  10.284  11.861  13.049
35361SOL    HW2 7923  10.425  11.855  13.105
35362SOL     OW 7924   0.649   1.876  10.378
35362SOL    HW1 7925   0.585   1.813  10.342
35362SOL    HW2 7926   0.641   1.866  10.473
35363SOL     OW 7927   0.883   8.960  11.258
35363SOL    HW1 7928   0.815   8.961  11.325
35363SOL    HW2 7929   0.958   8.919  11.299
35364SOL     OW 7930   9.872  10.951   1.926
35364SOL    HW1 7931   9.897  10.864   1.956
35364SOL    HW2 7932   9.778  10.942   1.906
35365SOL     OW 7933   3.844   5.560   2.190
35365SOL    HW1 7934   3.759   5.573   2.232
35365SOL    HW2 7935   3.854   5.464   2.184
35366SOL     OW 7936   4.382   5.143   8.696
35366SOL    HW1 7937   4.305   5.148   8.640
35366SOL    HW2 7938   4.423   5.229   8.688
35367SOL     OW 7939  11.865  11.331   0.473
35367SOL    HW1 7940  11.832  11.413   0.437
35367SOL    HW2 7941  11.930  11.301   0.410
35368SOL     OW 7942   6.959   7.686  11.130
35368SOL    HW1 7943   6.934   7.769  11.172
35368SOL    HW2 7944   6.991   7.632  11.202
35369SOL     OW 7945   9.947   2.239   7.524
35369SOL    HW1 7946   9.895   2.211   7.599
35369SOL    HW2 7947  10.001   2.163   7.502
35370SOL     OW 7948  14.004   7.244   3.593
35370SOL    HW1 7949  13.973   7.306   3.527
35370SOL    HW2 7950  13.949   7.261   3.669
35371SOL     OW 7951   5.373  13.648  13.178
35371SOL    HW1 7952   5.353  13.632  13.270
35371SOL    HW2 7953   5.294  13.622  13.131
35372SOL     OW 7954  13.515   0.045  10.124
35372SOL    HW1 7955  13.512   0.061  10.219
35372SOL    HW2 7956  13.424   0.047  10.096
35373SOL     OW 7957   8.140   2.983  12.561
35373SOL    HW1 7958   8.087   3.049  12.603
35373SOL    HW2 7959   8.185   2.938  12.633
35374SOL     OW 7960  13.544   8.707   1.587
35374SOL    HW1 7961  13.637   8.696   1.603
35374SOL    HW2 7962  13.519   8.632   1.534
35375SOL     OW 7963   3.145  12.466   2.948
35375SOL    HW1 7964   3.139  12.372   2.933
35375SOL    HW2 7965   3.060  12.500   2.921
35376SOL     OW 7966   0.130  12.146   3.558
35376SOL    HW1 7967   0.125  12.057   3.524
35376SOL    HW2 7968   0.050  12.157   3.609
35377SOL     OW 7969  12.682  11.021   6.246
35377SOL    HW1 7970  12.641  10.938   6.270
35377SOL    HW2 7971  12.762  10.997   6.199
35378SOL     OW 7972   8.572   3.186   5.978
35378SOL    HW1 7973   8.518   3.118   5.939
35378SOL    HW2 7974   8.522   3.215   6.055
35379SOL     OW 7975   7.355   2.561   1.519
35379SOL    HW1 7976   7.299   2.639   1.514
35379SOL    HW2 7977   7.441   2.595   1.543
35380SOL     OW 7978  11.054   0.995  12.271
35380SOL    HW1 7979  11.058   1.069  12.333
35380SOL    HW2 7980  10.967   0.957  12.286
35381SOL     OW 7981   7.061  13.777  10.685
35381SOL    HW1 7982   7.136  13.836  10.684
35381SOL    HW2 7983   7.100  13.689  10.682
35382SOL     OW 7984   1.625   1.231   6.832
35382SOL    HW1 7985   1.662   1.145   6.813
35382SOL    HW2 7986   1.587   1.260   6.749
35383SOL     OW 7987   0.977   8.550   5.029
35383SOL    HW1 7988   0.896   8.499   5.022
35383SOL    HW2 7989   0.984   8.572   5.122
35384SOL     OW 7990   5.713   8.919   4.423
35384SOL    HW1 7991   5.706   8.974   4.345
35384SOL    HW2 7992   5.720   8.830   4.389
35385SOL     OW 7993   6.610   9.155  12.354
35385SOL    HW1 7994   6.557   9.108  12.418
35385SOL    HW2 7995   6.700   9.129  12.374
35386SOL     OW 7996   9.458  10.710  12.676
35386SOL    HW1 7997   9.471  10.652  12.750
35386SOL    HW2 7998   9.474  10.656  12.599
35387SOL     OW 7999  10.827   1.621   0.499
35387SOL    HW1 8000  10.771   1.697   0.513
35387SOL    HW2 8001  10.906   1.656   0.457
35388SOL     OW 8002  12.761   4.989   1.501
35388SOL    HW1 8003  12.692   5.021   1.442
35388SOL    HW2 8004  12.801   4.917   1.452
35389SOL     OW 8005  13.759   4.244  12.092
35389SOL    HW1 8006  13.835   4.186  12.101
35389SOL    HW2 8007  13.723   4.250  12.181
35390SOL     OW 8008   6.930  10.668   5.195
35390SOL    HW1 8009   6.959  10.583   5.226
35390SOL    HW2 8010   7.010  10.719   5.184
35391SOL     OW 8011  10.532   7.021  10.630
35391SOL    HW1 8012  10.472   7.096  10.638
35391SOL    HW2 8013  10.570   7.011  10.717
35392SOL     OW 8014  12.592   4.077   4.926
35392SOL    HW1 8015  12.597   3.986   4.955
35392SOL    HW2 8016  12.589   4.128   5.007
35393SOL     OW 8017   8.851  10.400  13.261
35393SOL    HW1 8018   8.890  10.349  13.190
35393SOL    HW2 8019   8.756  10.386  13.250
35394SOL     OW 8020   1.438   0.297  12.299
35394SOL    HW1 8021   1.516   0.325  12.348
35394SOL    HW2 8022   1.376   0.270  12.367
35395SOL     OW 8023   3.172  11.655   1.076
35395SOL    HW1 8024   3.246  11.595   1.063
35395SOL    HW2 8025   3.116  11.641   1.000
35396SOL     OW 8026   0.098  10.913  14.365
35396SOL    HW1 8027   0.076  11.000  14.332
35396SOL    HW2 8028   0.016  10.863  14.359
35397SOL     OW 8029   9.859   4.186   3.336
35397SOL    HW1 8030   9.843   4.102   3.293
35397SOL    HW2 8031   9.948   4.210   3.311
35398SOL     OW 8032  12.849   6.653   7.381
35398SOL    HW1 8033  12.848   6.558   7.389
35398SOL    HW2 8034  12.942   6.676   7.374
35399SOL     OW 8035  11.361   7.601  12.552
35399SOL    HW1 8036  11.302   7.676  12.548
35399SOL    HW2 8037  11.443   7.637  12.585
35400SOL     OW 8038  11.645   1.845   8.677
35400SOL    HW1 8039  11.716   1.897   8.715
35400SOL    HW2 8040  11.649   1.762   8.723
35401SOL     OW 8041   0.211   3.711  12.037
35401SOL    HW1 8042   0.116   3.700  12.031
35401SOL    HW2 8043   0.245   3.622  12.047
35402SOL     OW 8044   9.302   3.510   3.103
35402SOL    HW1 8045   9.354   3.493   3.182
35402SOL    HW2 8046   9.354   3.574   3.054
35403SOL     OW 8047   1.286   2.752   3.710
35403SOL    HW1 8048   1.362   2.781   3.760
35403SOL    HW2 8049   1.218   2.816   3.730
35404SOL     OW 8050  12.528  14.158  13.659
35404SOL    HW1 8051  12.568  14.244  13.671
35404SOL    HW2 8052  12.594  14.096  13.687
35405SOL     OW 8053  10.483   9.512  12.158
35405SOL    HW1 8054  10.467   9.569  12.084
35405SOL    HW2 8055  10.416   9.443  12.152
35406SOL     OW 8056  14.720   1.457   3.407
35406SOL    HW1 8057  14.674   1.438   3.489
35406SOL    HW2 8058  14.764   1.540   3.424
35407SOL     OW 8059   0.623   2.934   6.500
35407SOL    HW1 8060   0.610   2.905   6.409
35407SOL    HW2 8061   0.545   2.985   6.520
35408SOL     OW 8062   3.876   0.693   8.264
35408SOL    HW1 8063   3.787   0.657   8.261
35408SOL    HW2 8064   3.869   0.778   8.220
35409SOL     OW 8065   6.774   8.825  11.946
35409SOL    HW1 8066   6.700   8.805  12.004
35409SOL    HW2 8067   6.733   8.853  11.864
35410SOL     OW 8068  11.061  10.804   8.271
35410SOL    HW1 8069  10.966  10.820   8.270
35410SOL    HW2 8070  11.089  10.829   8.359
35411SOL     OW 8071  11.416  13.908   6.930
35411SOL    HW1 8072  11.396  13.817   6.951
35411SOL    HW2 8073  11.427  13.908   6.835
35412SOL     OW 8074   8.500   0.931  14.286
35412SOL    HW1 8075   8.474   1.022  14.297
35412SOL    HW2 8076   8.583   0.924  14.333
35413SOL     OW 8077  10.948   6.430   1.221
35413SOL    HW1 8078  10.975   6.339   1.207
35413SOL    HW2 8079  10.968   6.474   1.139
35414SOL     OW 8080   5.309  14.698   4.068
35414SOL    HW1 8081   5.229  14.646   4.074
35414SOL    HW2 8082   5.279  14.789   4.076
35415SOL     OW 8083   3.637   6.748   0.134
35415SOL    HW1 8084   3.665   6.701   0.212
35415SOL    HW2 8085   3.680   6.703   0.061
35416SOL     OW 8086   2.221  13.202  11.701
35416SOL    HW1 8087   2.154  13.266  11.674
35416SOL    HW2 8088   2.228  13.214  11.796
35417SOL     OW 8089   5.153   6.397   6.200
35417SOL    HW1 8090   5.228   6.443   6.164
35417SOL    HW2 8091   5.147   6.429   6.291
35418SOL     OW 8092   8.774   8.235  10.070
35418SOL    HW1 8093   8.737   8.175  10.005
35418SOL    HW2 8094   8.751   8.195  10.154
35419SOL     OW 8095   6.576   9.077  14.711
35419SOL    HW1 8096   6.617   9.007  14.762
35419SOL    HW2 8097   6.643   9.103  14.648
35420SOL     OW 8098   9.272   2.099   6.971
35420SOL    HW1 8099   9.235   2.044   7.040
35420SOL    HW2 8100   9.358   2.060   6.952
35421SOL     OW 8101   2.245  12.426   1.510
35421SOL    HW1 8102   2.250  12.502   1.567
35421SOL    HW2 8103   2.336  12.405   1.490
35422SOL     OW 8104   1.768  12.138   4.286
35422SOL    HW1 8105   1.736  12.112   4.372
35422SOL    HW2 8106   1.760  12.059   4.233
35423SOL     OW 8107   1.728   9.052  12.124
35423SOL    HW1 8108   1.757   9.107  12.051
35423SOL    HW2 8109   1.808   9.028  12.170
35424SOL     OW 8110   4.761   4.614   3.135
35424SOL    HW1 8111   4.782   4.652   3.221
35424SOL    HW2 8112   4.672   4.581   3.145
35425SOL     OW 8113  10.147   0.543  11.101
35425SOL    HW1 8114  10.165   0.597  11.178
35425SOL    HW2 8115  10.116   0.460  11.137
35426SOL     OW 8116  12.726   1.005   9.528
35426SOL    HW1 8117  12.816   0.974   9.542
35426SOL    HW2 8118  12.672   0.946   9.582
35427SOL     OW 8119   3.382   8.999   9.208
35427SOL    HW1 8120   3.416   8.916   9.240
35427SOL    HW2 8121   3.379   8.989   9.113
35428SOL     OW 8122  14.682  11.706  10.446
35428SOL    HW1 8123  14.632  11.750  10.515
35428SOL    HW2 8124  14.616  11.664  10.391
35429SOL     OW 8125   5.339  10.792   8.851
35429SOL    HW1 8126   5.298  10.711   8.821
35429SOL    HW2 8127   5.425  10.792   8.809
35430SOL     OW 8128  14.678   0.355  14.394
35430SOL    HW1 8129  14.602   0.321  14.441
35430SOL    HW2 8130  14.753   0.316  14.438
35431SOL     OW 8131   1.523   5.649   7.421
35431SOL    HW1 8132   1.546   5.741   7.433
35431SOL    HW2 8133   1.607   5.603   7.427
35432SOL     OW 8134   3.520   4.485  11.856
35432SOL    HW1 8135   3.436   4.447  11.882
35432SOL    HW2 8136   3.504   4.522  11.770
35433SOL     OW 8137  14.287   8.872   5.982
35433SOL    HW1 8138  14.335   8.948   5.949
35433SOL    HW2 8139  14.344   8.835   6.050
35434SOL     OW 8140  12.648  14.133   7.211
35434SOL    HW1 8141  12.611  14.069   7.150
35434SOL    HW2 8142  12.729  14.162   7.169
35435SOL     OW 8143  13.063   6.961   4.739
35435SOL    HW1 8144  13.066   7.037   4.797
35435SOL    HW2 8145  13.099   6.993   4.656
35436SOL     OW 8146  10.259   4.598   9.165
35436SOL    HW1 8147  10.339   4.614   9.215
35436SOL    HW2 8148  10.189   4.628   9.223
35437SOL     OW 8149   9.560   7.777  12.700
35437SOL    HW1 8150   9.631   7.841  12.698
35437SOL    HW2 8151   9.484   7.827  12.731
35438SOL     OW 8152   0.430   7.036   8.783
35438SOL    HW1 8153   0.461   6.969   8.723
35438SOL    HW2 8154   0.475   7.017   8.866
35439SOL     OW 8155   2.411   0.062   5.134
35439SOL    HW1 8156   2.445   0.139   5.180
35439SOL    HW2 8157   2.366   0.099   5.057
35440SOL     OW 8158   5.608  10.528   8.048
35440SOL    HW1 8159   5.654  10.482   8.119
35440SOL    HW2 8160   5.558  10.596   8.092
35441SOL     OW 8161   8.324   6.741   5.945
35441SOL    HW1 8162   8.235   6.772   5.961
35441SOL    HW2 8163   8.318   6.646   5.947
35442SOL     OW 8164   9.377   5.897   3.371
35442SOL    HW1 8165   9.349   5.806   3.377
35442SOL    HW2 8166   9.455   5.895   3.316
35443SOL     OW 8167   8.612  10.959   7.521
35443SOL    HW1 8168   8.550  10.930   7.587
35443SOL    HW2 8169   8.578  10.923   7.439
35444SOL     OW 8170   4.012  14.276  12.869
35444SOL    HW1 8171   3.933  14.328  12.885
35444SOL    HW2 8172   4.083  14.340  12.871
35445SOL     OW 8173   6.383   0.364   0.515
35445SOL    HW1 8174   6.457   0.353   0.455
35445SOL    HW2 8175   6.316   0.408   0.463
35446SOL     OW 8176   8.717  11.441   3.696
35446SOL    HW1 8177   8.791  11.451   3.755
35446SOL    HW2 8178   8.754  11.399   3.618
35447SOL     OW 8179  12.519  14.638   1.021
35447SOL    HW1 8180  12.559  14.582   0.955
35447SOL    HW2 8181  12.490  14.577   1.090
35448SOL     OW 8182   8.516  11.652  14.470
35448SOL    HW1 8183   8.475  11.700  14.398
35448SOL    HW2 8184   8.603  11.691  14.479
35449SOL     OW 8185   0.781  10.210   3.930
35449SOL    HW1 8186   0.807  10.204   3.838
35449SOL    HW2 8187   0.822  10.134   3.971
35450SOL     OW 8188   5.420  11.612  12.916
35450SOL    HW1 8189   5.501  11.616  12.966
35450SOL    HW2 8190   5.414  11.522  12.886
35451SOL     OW 8191  13.288   5.052   0.628
35451SOL    HW1 8192  13.326   5.123   0.576
35451SOL    HW2 8193  13.213   5.022   0.577
35452SOL     OW 8194   5.347   6.919   8.354
35452SOL    HW1 8195   5.349   6.849   8.288
35452SOL    HW2 8196   5.382   6.878   8.433
35453SOL     OW 8197   6.498  12.378   8.756
35453SOL    HW1 8198   6.429  12.431   8.716
35453SOL    HW2 8199   6.573  12.437   8.760
35454SOL     OW 8200   0.165  13.266   2.511
35454SOL    HW1 8201   0.082  13.249   2.557
35454SOL    HW2 8202   0.210  13.182   2.511
35455SOL     OW 8203   5.223   9.300  13.957
35455SOL    HW1 8204   5.156   9.255  13.906
35455SOL    HW2 8205   5.185   9.311  14.044
35456SOL     OW 8206  13.221   5.684  12.457
35456SOL    HW1 8207  13.152   5.632  12.415
35456SOL    HW2 8208  13.264   5.624  12.517
35457SOL     OW 8209   5.799  11.294  10.216
35457SOL    HW1 8210   5.880  11.253  10.247
35457SOL    HW2 8211   5.731  11.231  10.239
35458SOL     OW 8212  10.797   2.756   6.570
35458SOL    HW1 8213  10.830   2.666   6.571
35458SOL    HW2 8214  10.733   2.760   6.641
35459SOL     OW 8215  14.269  11.510  12.629
35459SOL    HW1 8216  14.215  11.449  12.580
35459SOL    HW2 8217  14.273  11.474  12.718
35460SOL     OW 8218  11.607  13.960   3.749
35460SOL    HW1 8219  11.628  13.943   3.841
35460SOL    HW2 8220  11.662  14.035   3.725
35461SOL     OW 8221   0.202   7.741  13.247
35461SOL    HW1 8222   0.239   7.813  13.298
35461SOL    HW2 8223   0.109   7.762  13.239
35462SOL     OW 8224   8.322   8.190  14.431
35462SOL    HW1 8225   8.378   8.265  14.449
35462SOL    HW2 8226   8.261   8.188  14.505
35463SOL     OW 8227  13.750   7.505  12.163
35463SOL    HW1 8228  13.738   7.413  12.139
35463SOL    HW2 8229  13.843   7.522  12.150
35464SOL     OW 8230   1.300  13.341   8.576
35464SOL    HW1 8231   1.348  13.366   8.496
35464SOL    HW2 8232   1.216  13.308   8.544
35465SOL     OW 8233   3.518   4.495   8.033
35465SOL    HW1 8234   3.570   4.451   7.965
35465SOL    HW2 8235   3.485   4.574   7.991
35466SOL     OW 8236   9.528  14.519  10.641
35466SOL    HW1 8237   9.504  14.609  10.662
35466SOL    HW2 8238   9.562  14.483  10.724
35467SOL     OW 8239   8.439   3.291   1.501
35467SOL    HW1 8240   8.349   3.324   1.499
35467SOL    HW2 8241   8.491   3.363   1.464
35468SOL     OW 8242  11.639  12.230   5.447
35468SOL    HW1 8243  11.698  12.160   5.473
35468SOL    HW2 8244  11.551  12.192   5.453
35469SOL     OW 8245  14.309   3.763   5.645
35469SOL    HW1 8246  14.397   3.789   5.671
35469SOL    HW2 8247  14.322   3.682   5.595
35470SOL     OW 8248  13.817   9.184  14.284
35470SOL    HW1 8249  13.805   9.100  14.329
35470SOL    HW2 8250  13.899   9.218  14.318
35471SOL     OW 8251   4.917   3.778   8.533
35471SOL    HW1 8252   4.975   3.764   8.458
35471SOL    HW2 8253   4.877   3.693   8.549
35472SOL     OW 8254   8.744  10.528   1.828
35472SOL    HW1 8255   8.809  10.584   1.870
35472SOL    HW2 8256   8.681  10.508   1.896
35473SOL     OW 8257  14.548   3.998   2.331
35473SOL    HW1 8258  14.540   4.034   2.243
35473SOL    HW2 8259  14.578   4.072   2.384
35474SOL     OW 8260   1.223   3.639   9.156
35474SOL    HW1 8261   1.132   3.664   9.172
35474SOL    HW2 8262   1.269   3.666   9.236
35475SOL     OW 8263   7.044   2.629   9.459
35475SOL    HW1 8264   7.064   2.601   9.369
35475SOL    HW2 8265   7.046   2.725   9.455
35476SOL     OW 8266   8.268  10.268  12.747
35476SOL    HW1 8267   8.294  10.351  12.707
35476SOL    HW2 8268   8.194  10.238  12.695
35477SOL     OW 8269  13.826   9.551   9.436
35477SOL    HW1 8270  13.748   9.578   9.485
35477SOL    HW2 8271  13.875   9.632   9.423
35478SOL     OW 8272   3.796   3.911   4.902
35478SOL    HW1 8273   3.781   3.990   4.851
35478SOL    HW2 8274   3.823   3.846   4.838
35479SOL     OW 8275  12.040  10.818   2.035
35479SOL    HW1 8276  11.952  10.802   2.002
35479SOL    HW2 8277  12.071  10.894   1.985
35480SOL     OW 8278   1.991   3.279  11.399
35480SOL    HW1 8279   2.028   3.366  11.413
35480SOL    HW2 8280   2.031   3.225  11.466
35481SOL     OW 8281   8.288  11.686  12.483
35481SOL    HW1 8282   8.205  11.665  12.439
35481SOL    HW2 8283   8.316  11.603  12.523
35482SOL     OW 8284   2.519  11.567   5.081
35482SOL    HW1 8285   2.599  11.563   5.133
35482SOL    HW2 8286   2.550  11.586   4.992
35483SOL     OW 8287  12.078  13.107   2.510
35483SOL    HW1 8288  11.998  13.135   2.464
35483SOL    HW2 8289  12.102  13.025   2.468
35484SOL     OW 8290   4.235   5.643   4.962
35484SOL    HW1 8291   4.304   5.579   4.949
35484SOL    HW2 8292   4.278   5.717   5.005
35485SOL     OW 8293  11.610  14.272   7.222
35485SOL    HW1 8294  11.650  14.269   7.135
35485SOL    HW2 8295  11.549  14.198   7.222
35486SOL     OW 8296   3.288  12.340   3.957
35486SOL    HW1 8297   3.369  12.335   4.008
35486SOL    HW2 8298   3.298  12.273   3.890
35487SOL     OW 8299   7.637   0.140   1.286
35487SOL    HW1 8300   7.552   0.143   1.331
35487SOL    HW2 8301   7.675   0.057   1.313
35488SOL     OW 8302   9.279   0.641   3.263
35488SOL    HW1 8303   9.356   0.587   3.280
35488SOL    HW2 8304   9.283   0.660   3.169
35489SOL     OW 8305   3.797  10.886   0.623
35489SOL    HW1 8306   3.743  10.927   0.556
35489SOL    HW2 8307   3.883  10.927   0.613
35490SOL     OW 8308   1.657   5.124   0.160
35490SOL    HW1 8309   1.644   5.029   0.162
35490SOL    HW2 8310   1.613   5.155   0.239
35491SOL     OW 8311   1.696   7.055  10.406
35491SOL    HW1 8312   1.665   7.031  10.494
35491SOL    HW2 8313   1.646   7.133  10.384
35492SOL     OW 8314  14.628  14.397   9.236
35492SOL    HW1 8315  14.596  14.441   9.314
35492SOL    HW2 8316  14.703  14.449   9.208
35493SOL     OW 8317  14.803  11.700  12.669
35493SOL    HW1 8318  14.766  11.737  12.749
35493SOL    HW2 8319  14.761  11.614  12.661
35494SOL     OW 8320  14.359   3.992   5.294
35494SOL    HW1 8321  14.334   4.082   5.274
35494SOL    HW2 8322  14.417   3.999   5.370
35495SOL     OW 8323   8.320   9.661  14.193
35495SOL    HW1 8324   8.277   9.622  14.117
35495SOL    HW2 8325   8.365   9.738  14.159
35496SOL     OW 8326   2.710   1.881   6.912
35496SOL    HW1 8327   2.643   1.854   6.849
35496SOL    HW2 8328   2.790   1.888   6.861
35497SOL     OW 8329  14.793   2.091   0.324
35497SOL    HW1 8330  14.818   2.078   0.232
35497SOL    HW2 8331  14.792   2.002   0.360
35498SOL     OW 8332  12.585   2.932   0.452
35498SOL    HW1 8333  12.495   2.961   0.466
35498SOL    HW2 8334  12.588   2.908   0.359
35499SOL     OW 8335  13.405  11.504  12.507
35499SOL    HW1 8336  13.425  11.575  12.446
35499SOL    HW2 8337  13.319  11.472  12.479
35500SOL     OW 8338  10.604   8.548   2.258
35500SOL    HW1 8339  10.635   8.482   2.319
35500SOL    HW2 8340  10.649   8.628   2.285
35501SOL     OW 8341   7.794   0.787   0.516
35501SOL    HW1 8342   7.889   0.798   0.513
35501SOL    HW2 8343   7.780   0.700   0.552
35502SOL     OW 8344  10.095  11.651   9.569
35502SOL    HW1 8345  10.092  11.745   9.549
35502SOL    HW2 8346  10.009  11.632   9.606
35503SOL     OW 8347   0.584   9.299   5.691
35503SOL    HW1 8348   0.508   9.355   5.676
35503SOL    HW2 8349   0.644   9.320   5.620
35504SOL     OW 8350   8.320  14.541  12.217
35504SOL    HW1 8351   8.397  14.587  12.184
35504SOL    HW2 8352   8.333  14.539  12.312
35505SOL     OW 8353   6.866  12.477   7.908
35505SOL    HW1 8354   6.892  12.465   7.999
35505SOL    HW2 8355   6.828  12.393   7.882
35506SOL     OW 8356   6.091  10.674   9.095
35506SOL    HW1 8357   6.004  10.637   9.107
35506SOL    HW2 8358   6.147  10.599   9.076
35507SOL     OW 8359   6.918   9.883   9.342
35507SOL    HW1 8360   6.954   9.916   9.260
35507SOL    HW2 8361   6.978   9.814   9.369
35508SOL     OW 8362   5.966   0.974   8.749
35508SOL    HW1 8363   6.061   0.971   8.742
35508SOL    HW2 8364   5.939   0.882   8.749
35509SOL     OW 8365   6.282   0.375   0.773
35509SOL    HW1 8366   6.276   0.281   0.791
35509SOL    HW2 8367   6.297   0.381   0.679
35510SOL     OW 8368   5.802   0.147   0.437
35510SOL    HW1 8369   5.809   0.053   0.422
35510SOL    HW2 8370   5.892   0.176   0.455
35511SOL     OW 8371  14.234  11.021   6.069
35511SOL    HW1 8372  14.186  10.946   6.102
35511SOL    HW2 8373  14.194  11.040   5.984
35512SOL     OW 8374   4.179  14.059   7.080
35512SOL    HW1 8375   4.100  14.069   7.027
35512SOL    HW2 8376   4.239  14.124   7.046
35513SOL     OW 8377  12.745  10.106   7.697
35513SOL    HW1 8378  12.814  10.101   7.763
35513SOL    HW2 8379  12.693  10.182   7.723
35514SOL     OW 8380   8.352  12.282  11.043
35514SOL    HW1 8381   8.329  12.239  11.125
35514SOL    HW2 8382   8.427  12.338  11.065
35515SOL     OW 8383  10.612   5.491   8.657
35515SOL    HW1 8384  10.620   5.582   8.629
35515SOL    HW2 8385  10.699   5.454   8.646
35516SOL     OW 8386   8.386   1.492  12.710
35516SOL    HW1 8387   8.402   1.398  12.722
35516SOL    HW2 8388   8.299   1.496  12.671
35517SOL     OW 8389  12.263   5.026  11.942
35517SOL    HW1 8390  12.315   5.070  12.010
35517SOL    HW2 8391  12.271   5.083  11.865
35518SOL     OW 8392  12.476  14.819  13.005
35518SOL    HW1 8393  12.393  14.807  13.051
35518SOL    HW2 8394  12.476   0.030  12.979
35519SOL     OW 8395  14.700  10.134  10.877
35519SOL    HW1 8396  14.761  10.080  10.927
35519SOL    HW2 8397  14.687  10.086  10.795
35520SOL     OW 8398   1.488   8.624  14.435
35520SOL    HW1 8399   1.565   8.663  14.393
35520SOL    HW2 8400   1.414   8.659  14.385
35521SOL     OW 8401  11.187  12.281   0.893
35521SOL    HW1 8402  11.215  12.353   0.950
35521SOL    HW2 8403  11.097  12.301   0.870
35522SOL     OW 8404   0.638   6.032   1.071
35522SOL    HW1 8405   0.607   6.077   0.992
35522SOL    HW2 8406   0.717   5.986   1.042
35523SOL     OW 8407   5.704  12.816   2.022
35523SOL    HW1 8408   5.622  12.822   1.973
35523SOL    HW2 8409   5.695  12.736   2.074
35524SOL     OW 8410   0.366   7.932   6.728
35524SOL    HW1 8411   0.412   7.948   6.645
35524SOL    HW2 8412   0.436   7.928   6.793
35525SOL     OW 8413  14.367   3.922   6.310
35525SOL    HW1 8414  14.392   3.957   6.224
35525SOL    HW2 8415  14.389   3.993   6.371
35526SOL     OW 8416   4.225  11.330   5.577
35526SOL    HW1 8417   4.198  11.386   5.504
35526SOL    HW2 8418   4.283  11.385   5.629
35527SOL     OW 8419  13.177   6.593  12.026
35527SOL    HW1 8420  13.142   6.549  11.948
35527SOL    HW2 8421  13.257   6.545  12.046
35528SOL     OW 8422  14.394  10.479   1.654
35528SOL    HW1 8423  14.389  10.387   1.678
35528SOL    HW2 8424  14.310  10.516   1.682
35529SOL     OW 8425   1.004  13.766  14.655
35529SOL    HW1 8426   1.003  13.857  14.686
35529SOL    HW2 8427   1.071  13.764  14.587
35530SOL     OW 8428   2.287   6.305   6.961
35530SOL    HW1 8429   2.379   6.325   6.979
35530SOL    HW2 8430   2.245   6.391   6.952
35531SOL     OW 8431   1.596   2.656   1.207
35531SOL    HW1 8432   1.592   2.716   1.133
35531SOL    HW2 8433   1.622   2.711   1.281
35532SOL     OW 8434   6.539  10.282  10.103
35532SOL    HW1 8435   6.492  10.279  10.186
35532SOL    HW2 8436   6.484  10.232  10.042
35533SOL     OW 8437   1.182   2.070   6.079
35533SOL    HW1 8438   1.210   1.983   6.050
35533SOL    HW2 8439   1.258   2.104   6.128
35534SOL     OW 8440   3.747   0.576   2.838
35534SOL    HW1 8441   3.676   0.627   2.876
35534SOL    HW2 8442   3.760   0.614   2.752
35535SOL     OW 8443  14.092   2.826   2.255
35535SOL    HW1 8444  14.150   2.764   2.210
35535SOL    HW2 8445  14.151   2.885   2.302
35536SOL     OW 8446   6.928   3.734   9.424
35536SOL    HW1 8447   6.956   3.812   9.471
35536SOL    HW2 8448   6.983   3.664   9.460
35537SOL     OW 8449   6.573   4.493  14.099
35537SOL    HW1 8450   6.512   4.565  14.082
35537SOL    HW2 8451   6.522   4.414  14.082
35538SOL     OW 8452   1.316  13.438   3.643
35538SOL    HW1 8453   1.349  13.376   3.578
35538SOL    HW2 8454   1.299  13.385   3.721
35539SOL     OW 8455   8.810   2.465   0.029
35539SOL    HW1 8456   8.822   2.370   0.039
35539SOL    HW2 8457   8.899   2.498   0.013
35540SOL     OW 8458   0.903  12.538   6.515
35540SOL    HW1 8459   0.919  12.472   6.448
35540SOL    HW2 8460   0.809  12.532   6.533
35541SOL     OW 8461   9.426   2.317  12.560
35541SOL    HW1 8462   9.445   2.346  12.649
35541SOL    HW2 8463   9.390   2.228  12.571
35542SOL     OW 8464   5.718   5.402  10.586
35542SOL    HW1 8465   5.757   5.331  10.536
35542SOL    HW2 8466   5.717   5.476  10.525
35543SOL     OW 8467  13.290   2.060  13.250
35543SOL    HW1 8468  13.271   1.988  13.190
35543SOL    HW2 8469  13.384   2.053  13.266
35544SOL     OW 8470   3.148   9.218   3.431
35544SOL    HW1 8471   3.054   9.203   3.440
35544SOL    HW2 8472   3.162   9.306   3.464
35545SOL     OW 8473   1.111  14.623   7.052
35545SOL    HW1 8474   1.131  14.598   7.142
35545SOL    HW2 8475   1.130  14.717   7.049
35546SOL     OW 8476   7.202   9.116   6.459
35546SOL    HW1 8477   7.119   9.110   6.413
35546SOL    HW2 8478   7.188   9.072   6.542
35547SOL     OW 8479   8.599   7.687   8.257
35547SOL    HW1 8480   8.689   7.700   8.227
35547SOL    HW2 8481   8.609   7.640   8.340
35548SOL     OW 8482   5.319   6.564   7.338
35548SOL    HW1 8483   5.264   6.622   7.391
35548SOL    HW2 8484   5.287   6.476   7.356
35549SOL     OW 8485  14.254  14.440  14.180
35549SOL    HW1 8486  14.310  14.511  14.149
35549SOL    HW2 8487  14.184  14.434  14.115
35550SOL     OW 8488   9.762   2.167  14.213
35550SOL    HW1 8489   9.783   2.106  14.142
35550SOL    HW2 8490   9.669   2.152  14.230
35551SOL     OW 8491   0.119   6.460   5.556
35551SOL    HW1 8492   0.099   6.397   5.626
35551SOL    HW2 8493   0.162   6.533   5.601
35552SOL     OW 8494   6.374  10.573   8.768
35552SOL    HW1 8495   6.353  10.643   8.831
35552SOL    HW2 8496   6.294  10.561   8.718
35553SOL     OW 8497   0.166   2.766  13.804
35553SOL    HW1 8498   0.086   2.816  13.821
35553SOL    HW2 8499   0.141   2.706  13.733
35554SOL     OW 8500   0.354   5.311  13.135
35554SOL    HW1 8501   0.373   5.405  13.139
35554SOL    HW2 8502   0.288   5.302  13.066
35555SOL     OW 8503   9.078   8.656  10.496
35555SOL    HW1 8504   9.074   8.718  10.424
35555SOL    HW2 8505   9.053   8.708  10.573
35556SOL     OW 8506   7.909   0.554  10.665
35556SOL    HW1 8507   7.941   0.491  10.729
35556SOL    HW2 8508   7.976   0.623  10.665
35557SOL     OW 8509   8.638   3.594   4.729
35557SOL    HW1 8510   8.545   3.577   4.743
35557SOL    HW2 8511   8.650   3.685   4.758
35558SOL     OW 8512  10.806  14.691   6.432
35558SOL    HW1 8513  10.719  14.674   6.395
35558SOL    HW2 8514  10.864  14.632   6.385
35559SOL     OW 8515   6.069   1.467  11.908
35559SOL    HW1 8516   6.112   1.468  11.993
35559SOL    HW2 8517   6.014   1.389  11.909
35560SOL     OW 8518  13.967   3.110   5.918
35560SOL    HW1 8519  14.020   3.055   5.860
35560SOL    HW2 8520  13.883   3.118   5.873
35561SOL     OW 8521   7.430   8.393  13.298
35561SOL    HW1 8522   7.484   8.379  13.221
35561SOL    HW2 8523   7.349   8.344  13.279
35562SOL     OW 8524   3.012   4.470  14.185
35562SOL    HW1 8525   2.930   4.427  14.209
35562SOL    HW2 8526   3.080   4.406  14.208
35563SOL     OW 8527  10.128  13.946   7.093
35563SOL    HW1 8528  10.112  13.923   7.185
35563SOL    HW2 8529  10.223  13.941   7.083
35564SOL     OW 8530   5.767   5.076  12.809
35564SOL    HW1 8531   5.681   5.066  12.849
35564SOL    HW2 8532   5.777   4.998  12.753
35565SOL     OW 8533  14.104   3.344   8.980
35565SOL    HW1 8534  14.081   3.298   9.061
35565SOL    HW2 8535  14.039   3.314   8.917
35566SOL     OW 8536   8.943   9.947   3.767
35566SOL    HW1 8537   8.981  10.017   3.819
35566SOL    HW2 8538   8.891   9.896   3.829
35567SOL     OW 8539   4.660   5.586  10.206
35567SOL    HW1 8540   4.729   5.591  10.272
35567SOL    HW2 8541   4.600   5.519  10.239
35568SOL     OW 8542  11.693   7.574   3.077
35568SOL    HW1 8543  11.668   7.556   2.986
35568SOL    HW2 8544  11.691   7.488   3.119
35569SOL     OW 8545   6.363   3.503   4.716
35569SOL    HW1 8546   6.372   3.537   4.805
35569SOL    HW2 8547   6.373   3.408   4.726
35570SOL     OW 8548   0.072   1.828   4.961
35570SOL    HW1 8549  14.880   1.790   5.009
35570SOL    HW2 8550   0.135   1.852   5.028
35571SOL     OW 8551   1.626   8.336  12.171
35571SOL    HW1 8552   1.600   8.298  12.086
35571SOL    HW2 8553   1.712   8.373  12.155
35572SOL     OW 8554   1.043   3.271   6.250
35572SOL    HW1 8555   1.087   3.214   6.187
35572SOL    HW2 8556   1.093   3.353   6.247
35573SOL     OW 8557  14.854   9.827   6.749
35573SOL    HW1 8558  14.800   9.781   6.684
35573SOL    HW2 8559   0.018   9.757   6.795
35574SOL     OW 8560   1.301   1.793   4.215
35574SOL    HW1 8561   1.238   1.845   4.166
35574SOL    HW2 8562   1.249   1.756   4.287
35575SOL     OW 8563   2.532  10.759   8.647
35575SOL    HW1 8564   2.493  10.791   8.566
35575SOL    HW2 8565   2.507  10.824   8.713
35576SOL     OW 8566   6.943  11.642  14.095
35576SOL    HW1 8567   6.935  11.729  14.056
35576SOL    HW2 8568   6.858  11.627  14.138
35577SOL     OW 8569   3.927   8.425   0.111
35577SOL    HW1 8570   3.934   8.331   0.125
35577SOL    HW2 8571   3.948   8.464   0.195
35578SOL     OW 8572   3.963   4.222  13.739
35578SOL    HW1 8573   3.999   4.142  13.700
35578SOL    HW2 8574   3.875   4.198  13.767
35579SOL     OW 8575   6.045  12.398  10.720
35579SOL    HW1 8576   6.031  12.313  10.679
35579SOL    HW2 8577   6.140  12.410  10.720
35580SOL     OW 8578   2.975  10.375  11.744
35580SOL    HW1 8579   2.887  10.394  11.778
35580SOL    HW2 8580   2.967  10.288  11.705
35581SOL     OW 8581  11.123   2.483  13.643
35581SOL    HW1 8582  11.186   2.530  13.697
35581SOL    HW2 8583  11.038   2.520  13.668
35582SOL     OW 8584  11.499   5.841   9.608
35582SOL    HW1 8585  11.502   5.830   9.703
35582SOL    HW2 8586  11.588   5.866   9.584
35583SOL     OW 8587  10.058  12.348   8.760
35583SOL    HW1 8588   9.976  12.312   8.792
35583SOL    HW2 8589  10.047  12.353   8.665
35584SOL     OW 8590   9.299   0.749  11.969
35584SOL    HW1 8591   9.282   0.839  11.996
35584SOL    HW2 8592   9.222   0.700  11.999
35585SOL     OW 8593  11.312   0.411  11.317
35585SOL    HW1 8594  11.259   0.332  11.329
35585SOL    HW2 8595  11.319   0.421  11.222
35586SOL     OW 8596  11.746   6.414   4.035
35586SOL    HW1 8597  11.729   6.365   4.115
35586SOL    HW2 8598  11.778   6.499   4.064
35587SOL     OW 8599   2.456   6.644   8.917
35587SOL    HW1 8600   2.426   6.587   8.845
35587SOL    HW2 8601   2.523   6.592   8.961
35588SOL     OW 8602  10.160   1.655  12.140
35588SOL    HW1 8603  10.192   1.690  12.223
35588SOL    HW2 8604  10.080   1.704  12.123
35589SOL     OW 8605   9.951  12.748  14.483
35589SOL    HW1 8606   9.956  12.752  14.387
35589SOL    HW2 8607   9.858  12.738  14.502
35590SOL     OW 8608   2.270   9.505  11.075
35590SOL    HW1 8609   2.298   9.496  10.984
35590SOL    HW2 8610   2.252   9.415  11.104
35591SOL     OW 8611  10.168   5.537   0.958
35591SOL    HW1 8612  10.112   5.595   0.906
35591SOL    HW2 8613  10.173   5.580   1.044
35592SOL     OW 8614   0.388  12.881   9.111
35592SOL    HW1 8615   0.369  12.826   9.034
35592SOL    HW2 8616   0.360  12.969   9.086
35593SOL     OW 8617   4.723   4.056   0.498
35593SOL    HW1 8618   4.782   4.092   0.565
35593SOL    HW2 8619   4.636   4.081   0.527
35594SOL     OW 8620   1.816  11.970   8.011
35594SOL    HW1 8621   1.770  11.973   8.095
35594SOL    HW2 8622   1.907  11.993   8.033
35595SOL     OW 8623   3.998   5.245  13.016
35595SOL    HW1 8624   3.960   5.329  12.988
35595SOL    HW2 8625   3.960   5.180  12.957
35596SOL     OW 8626   5.762   5.443  11.143
35596SOL    HW1 8627   5.778   5.536  11.125
35596SOL    HW2 8628   5.746   5.405  11.057
35597SOL     OW 8629   5.383   7.960   9.013
35597SOL    HW1 8630   5.350   7.959   8.923
35597SOL    HW2 8631   5.313   7.920   9.064
35598SOL     OW 8632  13.943   3.276  13.721
35598SOL    HW1 8633  13.938   3.315  13.634
35598SOL    HW2 8634  13.946   3.350  13.781
35599SOL     OW 8635  12.623  11.161   7.801
35599SOL    HW1 8636  12.655  11.092   7.744
35599SOL    HW2 8637  12.544  11.194   7.757
35600SOL     OW 8638   5.214  12.043   7.366
35600SOL    HW1 8639   5.243  12.079   7.282
35600SOL    HW2 8640   5.150  12.107   7.398
35601SOL     OW 8641   5.588   2.031  13.684
35601SOL    HW1 8642   5.535   2.042  13.605
35601SOL    HW2 8643   5.677   2.017  13.652
35602SOL     OW 8644   1.116   2.114   2.573
35602SOL    HW1 8645   1.205   2.084   2.556
35602SOL    HW2 8646   1.066   2.033   2.584
35603SOL     OW 8647   4.716  14.294  12.887
35603SOL    HW1 8648   4.743  14.226  12.825
35603SOL    HW2 8649   4.646  14.342  12.843
35604SOL     OW 8650   8.921   4.505   6.204
35604SOL    HW1 8651   8.886   4.421   6.234
35604SOL    HW2 8652   8.844   4.559   6.188
35605SOL     OW 8653  10.914   5.768  14.047
35605SOL    HW1 8654  10.901   5.837  14.112
35605SOL    HW2 8655  10.845   5.782  13.983
35606SOL     OW 8656  12.507  14.716  14.223
35606SOL    HW1 8657  12.563  14.679  14.291
35606SOL    HW2 8658  12.514  14.811  14.234
35607SOL     OW 8659   4.596   6.483  14.311
35607SOL    HW1 8660   4.535   6.425  14.356
35607SOL    HW2 8661   4.620   6.548  14.377
35608SOL     OW 8662   7.036   4.128   5.642
35608SOL    HW1 8663   7.090   4.161   5.714
35608SOL    HW2 8664   6.992   4.206   5.608
35609SOL     OW 8665  11.494  13.426   1.535
35609SOL    HW1 8666  11.523  13.364   1.602
35609SOL    HW2 8667  11.574  13.465   1.501
35610SOL     OW 8668   5.405   2.983   4.406
35610SOL    HW1 8669   5.495   2.968   4.377
35610SOL    HW2 8670   5.405   3.074   4.436
35611SOL     OW 8671   8.257   9.981   3.249
35611SOL    HW1 8672   8.236  10.067   3.286
35611SOL    HW2 8673   8.180   9.957   3.199
35612SOL     OW 8674  12.895   4.339   4.897
35612SOL    HW1 8675  12.820   4.385   4.860
35612SOL    HW2 8676  12.886   4.249   4.865
35613SOL     OW 8677  11.175   9.433  12.494
35613SOL    HW1 8678  11.091   9.415  12.452
35613SOL    HW2 8679  11.153   9.450  12.585
35614SOL     OW 8680   0.479   5.981  10.002
35614SOL    HW1 8681   0.416   6.038   9.957
35614SOL    HW2 8682   0.542   6.042  10.042
35615SOL     OW 8683  12.588  13.020   8.126
35615SOL    HW1 8684  12.514  13.017   8.064
35615SOL    HW2 8685  12.659  13.060   8.076
35616SOL     OW 8686   5.650   4.757   8.630
35616SOL    HW1 8687   5.689   4.844   8.625
35616SOL    HW2 8688   5.713   4.700   8.587
35617SOL     OW 8689   5.288   4.248  14.093
35617SOL    HW1 8690   5.375   4.210  14.090
35617SOL    HW2 8691   5.235   4.184  14.141
35618SOL     OW 8692  13.157  11.284   2.271
35618SOL    HW1 8693  13.252  11.288   2.267
35618SOL    HW2 8694  13.129  11.375   2.256
35619SOL     OW 8695   6.871   6.817   9.201
35619SOL    HW1 8696   6.791   6.801   9.151
35619SOL    HW2 8697   6.893   6.908   9.181
35620SOL     OW 8698  13.293   8.902   0.269
35620SOL    HW1 8699  13.202   8.911   0.244
35620SOL    HW2 8700  13.342   8.918   0.189
35621SOL     OW 8701   4.818   5.337  14.722
35621SOL    HW1 8702   4.881   5.379  14.781
35621SOL    HW2 8703   4.739   5.327  14.774
35622SOL     OW 8704   7.045  12.388   0.529
35622SOL    HW1 8705   6.976  12.425   0.584
35622SOL    HW2 8706   7.047  12.295   0.553
35623SOL     OW 8707   5.606  12.088   8.031
35623SOL    HW1 8708   5.511  12.091   8.034
35623SOL    HW2 8709   5.629  12.008   8.078
35624SOL     OW 8710   1.656   9.696   8.755
35624SOL    HW1 8711   1.632   9.737   8.838
35624SOL    HW2 8712   1.751   9.682   8.761
35625SOL     OW 8713  13.743  12.653  10.517
35625SOL    HW1 8714  13.677  12.628  10.582
35625SOL    HW2 8715  13.692  12.688  10.444
35626SOL     OW 8716   8.861  12.099  13.365
35626SOL    HW1 8717   8.892  12.143  13.286
35626SOL    HW2 8718   8.893  12.010  13.358
35627SOL     OW 8719   1.165   6.029   2.467
35627SOL    HW1 8720   1.190   5.966   2.400
35627SOL    HW2 8721   1.178   5.982   2.550
35628SOL     OW 8722   5.631  10.347   2.493
35628SOL    HW1 8723   5.639  10.327   2.586
35628SOL    HW2 8724   5.579  10.428   2.490
35629SOL     OW 8725  13.779   0.555   1.253
35629SOL    HW1 8726  13.793   0.461   1.267
35629SOL    HW2 8727  13.775   0.566   1.158
35630SOL     OW 8728  11.354   4.972   0.576
35630SOL    HW1 8729  11.374   4.882   0.551
35630SOL    HW2 8730  11.397   5.026   0.509
35631SOL     OW 8731  13.541   1.251   1.265
35631SOL    HW1 8732  13.619   1.272   1.317
35631SOL    HW2 8733  13.575   1.196   1.194
35632SOL     OW 8734   0.126   5.239   4.885
35632SOL    HW1 8735   0.195   5.284   4.835
35632SOL    HW2 8736   0.168   5.159   4.916
35633SOL     OW 8737   0.268   6.056   4.927
35633SOL    HW1 8738   0.305   6.085   4.844
35633SOL    HW2 8739   0.179   6.091   4.927
35634SOL     OW 8740   0.158  14.785   2.208
35634SOL    HW1 8741   0.084  14.825   2.254
35634SOL    HW2 8742   0.150  14.818   2.118
35635SOL     OW 8743   8.895   4.147   7.316
35635SOL    HW1 8744   8.882   4.092   7.394
35635SOL    HW2 8745   8.877   4.236   7.346
35636SOL     OW 8746   1.291   5.567  12.847
35636SOL    HW1 8747   1.341   5.486  12.839
35636SOL    HW2 8748   1.206   5.547  12.809
35637SOL     OW 8749  12.263   6.746   5.118
35637SOL    HW1 8750  12.215   6.789   5.047
35637SOL    HW2 8751  12.222   6.659   5.125
35638SOL     OW 8752   6.852   6.173   3.459
35638SOL    HW1 8753   6.919   6.140   3.519
35638SOL    HW2 8754   6.773   6.124   3.481
35639SOL     OW 8755  12.332  11.874   9.431
35639SOL    HW1 8756  12.381  11.955   9.418
35639SOL    HW2 8757  12.400  11.808   9.446
35640SOL     OW 8758  12.104   2.776  13.467
35640SOL    HW1 8759  12.095   2.694  13.419
35640SOL    HW2 8760  12.014   2.801  13.489
35641SOL     OW 8761   5.486   5.007  14.633
35641SOL    HW1 8762   5.496   5.093  14.674
35641SOL    HW2 8763   5.546   5.009  14.557
35642SOL     OW 8764   7.258   0.413  14.525
35642SOL    HW1 8765   7.247   0.336  14.580
35642SOL    HW2 8766   7.348   0.408  14.493
35643SOL     OW 8767   1.079  13.274   1.372
35643SOL    HW1 8768   1.031  13.255   1.292
35643SOL    HW2 8769   1.052  13.205   1.433
35644SOL     OW 8770   1.079   3.540  11.160
35644SOL    HW1 8771   0.983   3.542  11.157
35644SOL    HW2 8772   1.106   3.555  11.070
35645SOL     OW 8773  11.902   6.067   5.927
35645SOL    HW1 8774  11.972   6.071   5.863
35645SOL    HW2 8775  11.823   6.052   5.876
35646SOL     OW 8776   4.754   1.273  11.198
35646SOL    HW1 8777   4.791   1.318  11.274
35646SOL    HW2 8778   4.825   1.270  11.134
35647SOL     OW 8779   9.296   9.647   7.869
35647SOL    HW1 8780   9.357   9.673   7.799
35647SOL    HW2 8781   9.255   9.567   7.836
35648SOL     OW 8782   2.538   6.675   4.827
35648SOL    HW1 8783   2.493   6.645   4.906
35648SOL    HW2 8784   2.630   6.680   4.852
35649SOL     OW 8785  14.355  13.720  10.324
35649SOL    HW1 8786  14.446  13.747  10.337
35649SOL    HW2 8787  14.353  13.628  10.349
35650SOL     OW 8788   8.629   4.308   0.421
35650SOL    HW1 8789   8.643   4.264   0.337
35650SOL    HW2 8790   8.714   4.307   0.464
35651SOL     OW 8791  13.160   3.865   2.064
35651SOL    HW1 8792  13.112   3.784   2.043
35651SOL    HW2 8793  13.181   3.856   2.157
35652SOL     OW 8794   2.135   0.633   9.670
35652SOL    HW1 8795   2.154   0.554   9.619
35652SOL    HW2 8796   2.187   0.622   9.750
35653SOL     OW 8797   8.163  10.384   5.056
35653SOL    HW1 8798   8.140  10.382   4.963
35653SOL    HW2 8799   8.257  10.363   5.057
35654SOL     OW 8800   6.734   5.105   3.996
35654SOL    HW1 8801   6.645   5.125   3.967
35654SOL    HW2 8802   6.787   5.116   3.917
35655SOL     OW 8803   6.073   6.044  12.880
35655SOL    HW1 8804   6.078   5.970  12.819
35655SOL    HW2 8805   6.065   6.121  12.824
35656SOL     OW 8806  10.871   3.076  13.842
35656SOL    HW1 8807  10.860   3.145  13.908
35656SOL    HW2 8808  10.887   2.996  13.893
35657SOL     OW 8809   5.268  13.957  14.692
35657SOL    HW1 8810   5.309  13.873  14.673
35657SOL    HW2 8811   5.194  13.962  14.632
35658SOL     OW 8812   5.949  13.047   7.791
35658SOL    HW1 8813   5.984  12.964   7.758
35658SOL    HW2 8814   5.985  13.054   7.880
35659SOL     OW 8815  10.649  12.436   2.380
35659SOL    HW1 8816  10.602  12.518   2.396
35659SOL    HW2 8817  10.607  12.398   2.303
35660SOL     OW 8818  10.455   2.461   5.638
35660SOL    HW1 8819  10.451   2.406   5.716
35660SOL    HW2 8820  10.427   2.403   5.567
35661SOL     OW 8821   9.812   2.338   6.554
35661SOL    HW1 8822   9.884   2.371   6.500
35661SOL    HW2 8823   9.844   2.344   6.644
35662SOL     OW 8824   8.160   4.896   3.073
35662SOL    HW1 8825   8.222   4.961   3.039
35662SOL    HW2 8826   8.105   4.945   3.134
35663SOL     OW 8827   9.863   2.629   7.162
35663SOL    HW1 8828   9.807   2.693   7.206
35663SOL    HW2 8829   9.817   2.609   7.080
35664SOL     OW 8830   9.343  12.348   6.415
35664SOL    HW1 8831   9.257  12.358   6.375
35664SOL    HW2 8832   9.398  12.411   6.369
35665SOL     OW 8833   3.880  14.481  13.908
35665SOL    HW1 8834   3.972  14.490  13.931
35665SOL    HW2 8835   3.870  14.528  13.826
35666SOL     OW 8836   8.130   8.712   9.729
35666SOL    HW1 8837   8.110   8.683   9.640
35666SOL    HW2 8838   8.061   8.673   9.783
35667SOL     OW 8839   7.284   2.709  13.688
35667SOL    HW1 8840   7.319   2.797  13.701
35667SOL    HW2 8841   7.253   2.709  13.597
35668SOL     OW 8842  13.835  10.162   4.631
35668SOL    HW1 8843  13.849  10.140   4.539
35668SOL    HW2 8844  13.764  10.104   4.659
35669SOL     OW 8845   7.390  12.072  11.157
35669SOL    HW1 8846   7.461  12.136  11.166
35669SOL    HW2 8847   7.324  12.100  11.221
35670SOL     OW 8848   8.609   0.395   5.962
35670SOL    HW1 8849   8.684   0.414   5.905
35670SOL    HW2 8850   8.537   0.376   5.902
35671SOL     OW 8851  10.938   0.571   3.285
35671SOL    HW1 8852  11.019   0.568   3.235
35671SOL    HW2 8853  10.912   0.663   3.285
35672SOL     OW 8854   9.184  14.528   0.154
35672SOL    HW1 8855   9.109  14.581   0.182
35672SOL    HW2 8856   9.151  14.438   0.155
35673SOL     OW 8857   2.617  11.025   4.244
35673SOL    HW1 8858   2.662  10.981   4.172
35673SOL    HW2 8859   2.582  10.954   4.298
35674SOL     OW 8860  13.862   0.073   9.078
35674SOL    HW1 8861  13.806   0.138   9.119
35674SOL    HW2 8862  13.891   0.017   9.149
35675SOL     OW 8863   5.579   1.872   2.818
35675SOL    HW1 8864   5.550   1.915   2.738
35675SOL    HW2 8865   5.638   1.802   2.787
35676SOL     OW 8866   4.830  12.269   8.548
35676SOL    HW1 8867   4.798  12.278   8.458
35676SOL    HW2 8868   4.925  12.266   8.539
35677SOL     OW 8869   5.692   1.121   6.369
35677SOL    HW1 8870   5.734   1.206   6.356
35677SOL    HW2 8871   5.727   1.065   6.300
35678SOL     OW 8872   7.337  13.393   1.522
35678SOL    HW1 8873   7.368  13.310   1.558
35678SOL    HW2 8874   7.407  13.455   1.539
35679SOL     OW 8875  12.044  10.742  13.558
35679SOL    HW1 8876  12.053  10.829  13.596
35679SOL    HW2 8877  12.095  10.685  13.616
35680SOL     OW 8878   3.747   6.807  10.144
35680SOL    HW1 8879   3.760   6.838  10.234
35680SOL    HW2 8880   3.663   6.844  10.118
35681SOL     OW 8881  10.856  14.216  12.580
35681SOL    HW1 8882  10.889  14.275  12.648
35681SOL    HW2 8883  10.932  14.166  12.552
35682SOL     OW 8884   5.336   0.470   6.244
35682SOL    HW1 8885   5.432   0.473   6.243
35682SOL    HW2 8886   5.312   0.440   6.156
35683SOL     OW 8887  14.225   1.684  13.017
35683SOL    HW1 8888  14.310   1.720  13.043
35683SOL    HW2 8889  14.176   1.760  12.984
35684SOL     OW 8890   3.629  14.836   6.071
35684SOL    HW1 8891   3.642   0.027   6.010
35684SOL    HW2 8892   3.608  14.878   6.154
35685SOL     OW 8893  13.978  12.309   2.208
35685SOL    HW1 8894  13.901  12.279   2.256
35685SOL    HW2 8895  14.014  12.379   2.262
35686SOL     OW 8896   1.291  12.788   5.933
35686SOL    HW1 8897   1.340  12.706   5.930
35686SOL    HW2 8898   1.317  12.829   6.015
35687SOL     OW 8899  13.644   0.979  12.090
35687SOL    HW1 8900  13.672   1.061  12.049
35687SOL    HW2 8901  13.723   0.945  12.132
35688SOL     OW 8902  14.859   1.387   0.128
35688SOL    HW1 8903   0.015   1.342   0.204
35688SOL    HW2 8904  14.804   1.321   0.086
35689SOL     OW 8905  12.794  13.131   7.989
35689SOL    HW1 8906  12.866  13.089   7.942
35689SOL    HW2 8907  12.764  13.200   7.930
35690SOL     OW 8908  11.520   3.260   7.816
35690SOL    HW1 8909  11.512   3.322   7.744
35690SOL    HW2 8910  11.430   3.245   7.845
35691SOL     OW 8911   1.474   2.853  10.491
35691SOL    HW1 8912   1.564   2.833  10.518
35691SOL    HW2 8913   1.482   2.885  10.401
35692SOL     OW 8914   7.776   0.239   6.906
35692SOL    HW1 8915   7.733   0.302   6.847
35692SOL    HW2 8916   7.707   0.178   6.931
35693SOL     OW 8917   3.916   1.823   2.382
35693SOL    HW1 8918   4.006   1.854   2.376
35693SOL    HW2 8919   3.913   1.745   2.327
35694SOL     OW 8920  12.349   4.502   0.183
35694SOL    HW1 8921  12.378   4.442   0.115
35694SOL    HW2 8922  12.379   4.588   0.155
35695SOL     OW 8923   2.660   7.641   7.238
35695SOL    HW1 8924   2.570   7.613   7.218
35695SOL    HW2 8925   2.711   7.609   7.164
35696SOL     OW 8926   9.643  10.986  10.327
35696SOL    HW1 8927   9.616  11.056  10.267
35696SOL    HW2 8928   9.566  10.930  10.335
35697SOL     OW 8929   4.508   5.377   8.583
35697SOL    HW1 8930   4.565   5.423   8.645
35697SOL    HW2 8931   4.559   5.374   8.502
35698SOL     OW 8932   7.639   1.606   3.609
35698SOL    HW1 8933   7.598   1.539   3.555
35698SOL    HW2 8934   7.584   1.683   3.599
35699SOL     OW 8935   9.014   6.329   1.637
35699SOL    HW1 8936   9.032   6.422   1.623
35699SOL    HW2 8937   9.101   6.288   1.643
35700SOL     OW 8938   7.436   9.273   6.453
35700SOL    HW1 8939   7.346   9.241   6.456
35700SOL    HW2 8940   7.429   9.365   6.477
35701SOL     OW 8941  11.883   5.863   8.529
35701SOL    HW1 8942  11.915   5.951   8.550
35701SOL    HW2 8943  11.799   5.857   8.574
35702SOL     OW 8944  11.085   2.669   5.456
35702SOL    HW1 8945  11.080   2.712   5.542
35702SOL    HW2 8946  11.162   2.708   5.415
35703SOL     OW 8947   4.217   3.626   3.418
35703SOL    HW1 8948   4.191   3.677   3.341
35703SOL    HW2 8949   4.147   3.640   3.481
35704SOL     OW 8950  10.861  11.798   7.175
35704SOL    HW1 8951  10.784  11.846   7.206
35704SOL    HW2 8952  10.935  11.854   7.197
35705SOL     OW 8953   3.255   8.429  13.946
35705SOL    HW1 8954   3.301   8.416  13.863
35705SOL    HW2 8955   3.240   8.523  13.951
35706SOL     OW 8956  10.018  13.014  11.152
35706SOL    HW1 8957  10.036  13.084  11.214
35706SOL    HW2 8958  10.105  12.990  11.118
35707SOL     OW 8959  12.741   4.435   3.603
35707SOL    HW1 8960  12.721   4.528   3.595
35707SOL    HW2 8961  12.765   4.424   3.695
35708SOL     OW 8962   8.168  12.509   8.016
35708SOL    HW1 8963   8.242  12.481   8.070
35708SOL    HW2 8964   8.137  12.429   7.974
35709SOL     OW 8965  14.748   4.257   7.552
35709SOL    HW1 8966  14.656   4.279   7.537
35709SOL    HW2 8967  14.786   4.337   7.587
35710SOL     OW 8968   1.463   7.837   1.641
35710SOL    HW1 8969   1.533   7.897   1.619
35710SOL    HW2 8970   1.507   7.753   1.658
35711SOL     OW 8971  10.057   7.103   0.316
35711SOL    HW1 8972  10.014   7.162   0.377
35711SOL    HW2 8973  10.027   7.132   0.230
35712SOL     OW 8974   8.368  14.460   5.704
35712SOL    HW1 8975   8.423  14.447   5.627
35712SOL    HW2 8976   8.344  14.372   5.733
35713SOL     OW 8977  12.175   5.287   9.674
35713SOL    HW1 8978  12.137   5.277   9.762
35713SOL    HW2 8979  12.114   5.240   9.616
35714SOL     OW 8980  11.044   2.763   2.459
35714SOL    HW1 8981  11.136   2.777   2.436
35714SOL    HW2 8982  11.019   2.842   2.506
35715SOL     OW 8983   9.612   3.701  10.509
35715SOL    HW1 8984   9.654   3.628  10.553
35715SOL    HW2 8985   9.681   3.741  10.456
35716SOL     OW 8986  11.818  14.690   0.249
35716SOL    HW1 8987  11.725  14.670   0.260
35716SOL    HW2 8988  11.826  14.719   0.159
35717SOL     OW 8989   1.235  10.879  14.587
35717SOL    HW1 8990   1.152  10.840  14.618
35717SOL    HW2 8991   1.211  10.925  14.507
35718SOL     OW 8992   9.470  10.566   9.604
35718SOL    HW1 8993   9.540  10.585   9.541
35718SOL    HW2 8994   9.448  10.652   9.641
35719SOL     OW 8995   3.016   8.251  10.970
35719SOL    HW1 8996   3.052   8.284  10.888
35719SOL    HW2 8997   2.967   8.173  10.945
35720SOL     OW 8998   5.900  10.979   7.750
35720SOL    HW1 8999   5.981  10.992   7.800
35720SOL    HW2 9000   5.830  10.988   7.815
35721SOL     OW 9001  12.469   6.796   5.560
35721SOL    HW1 9002  12.527   6.721   5.566
35721SOL    HW2 9003  12.487   6.848   5.638
35722SOL     OW 9004   8.513   0.284   4.354
35722SOL    HW1 9005   8.570   0.318   4.284
35722SOL    HW2 9006   8.564   0.214   4.394
35723SOL     OW 9007   7.315   2.326   2.622
35723SOL    HW1 9008   7.284   2.237   2.607
35723SOL    HW2 9009   7.245   2.382   2.590
35724SOL     OW 9010   2.370   8.206   8.169
35724SOL    HW1 9011   2.306   8.169   8.108
35724SOL    HW2 9012   2.318   8.242   8.240
35725SOL     OW 9013   4.593  10.134   3.786
35725SOL    HW1 9014   4.606  10.084   3.705
35725SOL    HW2 9015   4.598  10.225   3.759
35726SOL     OW 9016  12.345   2.810  13.150
35726SOL    HW1 9017  12.380   2.762  13.225
35726SOL    HW2 9018  12.406   2.791  13.078
35727SOL     OW 9019   1.915   2.938   5.015
35727SOL    HW1 9020   1.824   2.911   5.018
35727SOL    HW2 9021   1.926   2.993   5.093
35728SOL     OW 9022  10.853   9.212  13.529
35728SOL    HW1 9023  10.863   9.307  13.524
35728SOL    HW2 9024  10.791   9.191  13.459
35729SOL     OW 9025   3.756   8.414   1.517
35729SOL    HW1 9026   3.841   8.411   1.562
35729SOL    HW2 9027   3.772   8.367   1.435
35730SOL     OW 9028  14.085   0.764  11.327
35730SOL    HW1 9029  14.072   0.796  11.416
35730SOL    HW2 9030  14.012   0.800  11.278
35731SOL     OW 9031   3.062   0.022   7.807
35731SOL    HW1 9032   3.059   0.034   7.902
35731SOL    HW2 9033   2.975   0.047   7.777
35732SOL     OW 9034  10.754   4.813   3.781
35732SOL    HW1 9035  10.725   4.721   3.776
35732SOL    HW2 9036  10.688   4.861   3.732
35733SOL     OW 9037  11.472   7.663  14.587
35733SOL    HW1 9038  11.474   7.591  14.523
35733SOL    HW2 9039  11.485   7.742  14.534
35734SOL     OW 9040  10.108   9.753  13.369
35734SOL    HW1 9041  10.196   9.790  13.356
35734SOL    HW2 9042  10.049   9.819  13.333
35735SOL     OW 9043   6.109   9.074   2.555
35735SOL    HW1 9044   6.083   9.158   2.517
35735SOL    HW2 9045   6.099   9.011   2.484
35736SOL     OW 9046  10.668  11.465   3.584
35736SOL    HW1 9047  10.669  11.506   3.498
35736SOL    HW2 9048  10.753  11.487   3.622
35737SOL     OW 9049  13.880   5.317   7.366
35737SOL    HW1 9050  13.946   5.327   7.298
35737SOL    HW2 9051  13.803   5.282   7.320
35738SOL     OW 9052  12.559   3.250  13.608
35738SOL    HW1 9053  12.567   3.345  13.614
35738SOL    HW2 9054  12.548   3.232  13.515
35739SOL     OW 9055  11.094  10.289  10.974
35739SOL    HW1 9056  11.011  10.337  10.967
35739SOL    HW2 9057  11.115  10.265  10.884
35740SOL     OW 9058   9.418   0.827  14.719
35740SOL    HW1 9059   9.470   0.787  14.649
35740SOL    HW2 9060   9.328   0.797  14.702
35741SOL     OW 9061   7.416  13.776  14.227
35741SOL    HW1 9062   7.511  13.791  14.234
35741SOL    HW2 9063   7.392  13.816  14.143
35742SOL     OW 9064   1.356  13.901   9.999
35742SOL    HW1 9065   1.324  13.987   9.970
35742SOL    HW2 9066   1.278  13.847  10.004
35743SOL     OW 9067  14.734  13.960  12.772
35743SOL    HW1 9068  14.825  13.947  12.745
35743SOL    HW2 9069  14.685  13.895  12.722
35744SOL     OW 9070  13.683  13.831   7.410
35744SOL    HW1 9071  13.601  13.783   7.412
35744SOL    HW2 9072  13.725  13.803   7.328
35745SOL     OW 9073  11.564   6.292   8.230
35745SOL    HW1 9074  11.613   6.316   8.309
35745SOL    HW2 9075  11.628   6.250   8.173
35746SOL     OW 9076  12.704  14.185   1.459
35746SOL    HW1 9077  12.646  14.200   1.384
35746SOL    HW2 9078  12.791  14.179   1.422
35747SOL     OW 9079   9.971   6.836   7.097
35747SOL    HW1 9080  10.061   6.811   7.076
35747SOL    HW2 9081   9.978   6.891   7.175
35748SOL     OW 9082  13.361   1.112   0.929
35748SOL    HW1 9083  13.307   1.105   0.849
35748SOL    HW2 9084  13.297   1.112   1.000
35749SOL     OW 9085  13.871   2.561  14.826
35749SOL    HW1 9086  13.789   2.579  14.871
35749SOL    HW2 9087  13.934   2.547   0.015
35750SOL     OW 9088   4.201   1.270  10.143
35750SOL    HW1 9089   4.202   1.249  10.050
35750SOL    HW2 9090   4.248   1.197  10.185
35751SOL     OW 9091  13.416  13.997  11.645
35751SOL    HW1 9092  13.399  14.018  11.737
35751SOL    HW2 9093  13.331  14.006  11.602
35752SOL     OW 9094   1.977  12.269  11.969
35752SOL    HW1 9095   1.969  12.192  12.026
35752SOL    HW2 9096   2.041  12.243  11.903
35753SOL     OW 9097   1.547   0.774   9.819
35753SOL    HW1 9098   1.622   0.723   9.849
35753SOL    HW2 9099   1.579   0.864   9.816
35754SOL     OW 9100  12.754   2.390   5.833
35754SOL    HW1 9101  12.748   2.379   5.738
35754SOL    HW2 9102  12.839   2.431   5.847
35755SOL     OW 9103   2.903   8.054   5.369
35755SOL    HW1 9104   2.962   8.026   5.439
35755SOL    HW2 9105   2.959   8.060   5.291
35756SOL     OW 9106   9.424   4.259  10.931
35756SOL    HW1 9107   9.370   4.258  11.009
35756SOL    HW2 9108   9.398   4.181  10.882
35757SOL     OW 9109   4.194   1.367   5.828
35757SOL    HW1 9110   4.179   1.449   5.780
35757SOL    HW2 9111   4.220   1.395   5.916
35758SOL     OW 9112   4.438  11.482   3.029
35758SOL    HW1 9113   4.458  11.576   3.033
35758SOL    HW2 9114   4.503  11.441   3.085
35759SOL     OW 9115   2.223   8.126   6.939
35759SOL    HW1 9116   2.194   8.216   6.926
35759SOL    HW2 9117   2.160   8.073   6.890
35760SOL     OW 9118  10.245  13.135   7.962
35760SOL    HW1 9119  10.242  13.185   8.044
35760SOL    HW2 9120  10.247  13.201   7.894
35761SOL     OW 9121   3.176   1.612   0.018
35761SOL    HW1 9122   3.194   1.599  14.807
35761SOL    HW2 9123   3.238   1.555   0.063
35762SOL     OW 9124   5.490  12.417   6.998
35762SOL    HW1 9125   5.549  12.452   7.065
35762SOL    HW2 9126   5.434  12.491   6.974
35763SOL     OW 9127   9.659  14.529   5.996
35763SOL    HW1 9128   9.641  14.515   5.903
35763SOL    HW2 9129   9.649  14.442   6.035
35764SOL     OW 9130   5.009   0.328   3.036
35764SOL    HW1 9131   5.023   0.248   2.985
35764SOL    HW2 9132   4.969   0.299   3.117
35765SOL     OW 9133   9.193   0.587   5.626
35765SOL    HW1 9134   9.198   0.493   5.614
35765SOL    HW2 9135   9.213   0.601   5.719
35766SOL     OW 9136  11.531   0.879   5.767
35766SOL    HW1 9137  11.603   0.823   5.795
35766SOL    HW2 9138  11.458   0.819   5.752
35767SOL     OW 9139  14.202   9.969   6.419
35767SOL    HW1 9140  14.164  10.057   6.413
35767SOL    HW2 9141  14.295   9.983   6.433
35768SOL     OW 9142   1.635   1.715  14.041
35768SOL    HW1 9143   1.720   1.755  14.024
35768SOL    HW2 9144   1.655   1.632  14.084
35769SOL     OW 9145   6.585  11.916   2.300
35769SOL    HW1 9146   6.490  11.914   2.308
35769SOL    HW2 9147   6.613  11.983   2.362
35770SOL     OW 9148  10.844   8.784  10.065
35770SOL    HW1 9149  10.928   8.772  10.109
35770SOL    HW2 9150  10.782   8.732  10.117
35771SOL     OW 9151   2.460   6.610  13.568
35771SOL    HW1 9152   2.476   6.672  13.639
35771SOL    HW2 9153   2.546   6.574  13.548
35772SOL     OW 9154   7.447  12.107   1.564
35772SOL    HW1 9155   7.510  12.088   1.495
35772SOL    HW2 9156   7.390  12.030   1.567
35773SOL     OW 9157  13.836   9.117  13.523
35773SOL    HW1 9158  13.745   9.103  13.495
35773SOL    HW2 9159  13.873   9.175  13.457
35774SOL     OW 9160  10.805  12.676  13.431
35774SOL    HW1 9161  10.865  12.693  13.505
35774SOL    HW2 9162  10.718  12.685  13.469
35775SOL     OW 9163   6.435   5.684   5.109
35775SOL    HW1 9164   6.375   5.747   5.069
35775SOL    HW2 9165   6.380   5.608   5.130
35776SOL     OW 9166  12.909   6.308   3.834
35776SOL    HW1 9167  12.916   6.289   3.740
35776SOL    HW2 9168  12.822   6.275   3.859
35777SOL     OW 9169   9.029  14.048  14.252
35777SOL    HW1 9170   9.053  13.962  14.218
35777SOL    HW2 9171   8.942  14.065  14.216
35778SOL     OW 9172   3.211   6.671   9.488
35778SOL    HW1 9173   3.141   6.642   9.430
35778SOL    HW2 9174   3.220   6.765   9.471
35779SOL     OW 9175   2.758   1.790  12.214
35779SOL    HW1 9176   2.770   1.697  12.192
35779SOL    HW2 9177   2.737   1.831  12.130
35780SOL     OW 9178   7.816   1.354  14.687
35780SOL    HW1 9179   7.735   1.366  14.636
35780SOL    HW2 9180   7.882   1.402  14.638
35781SOL     OW 9181   5.376   0.586   1.335
35781SOL    HW1 9182   5.469   0.572   1.353
35781SOL    HW2 9183   5.333   0.577   1.419
35782SOL     OW 9184   6.479   7.879   7.691
35782SOL    HW1 9185   6.387   7.855   7.706
35782SOL    HW2 9186   6.523   7.856   7.773
35783SOL     OW 9187  14.727   8.717   4.352
35783SOL    HW1 9188  14.804   8.674   4.316
35783SOL    HW2 9189  14.755   8.748   4.438
35784SOL     OW 9190   4.972   1.391  11.914
35784SOL    HW1 9191   5.032   1.464  11.934
35784SOL    HW2 9192   5.025   1.313  11.927
35785SOL     OW 9193  10.692  11.535   9.393
35785SOL    HW1 9194  10.671  11.629   9.394
35785SOL    HW2 9195  10.787  11.532   9.380
35786SOL     OW 9196   7.669   4.546   4.478
35786SOL    HW1 9197   7.729   4.472   4.484
35786SOL    HW2 9198   7.671   4.587   4.564
35787SOL     OW 9199   4.231   1.718   2.515
35787SOL    HW1 9200   4.254   1.785   2.451
35787SOL    HW2 9201   4.251   1.757   2.600
35788SOL     OW 9202   8.515  14.575  14.046
35788SOL    HW1 9203   8.477  14.495  14.082
35788SOL    HW2 9204   8.468  14.646  14.090
35789SOL     OW 9205   2.925   1.136   6.792
35789SOL    HW1 9206   2.893   1.054   6.828
35789SOL    HW2 9207   2.940   1.118   6.699
35790SOL     OW 9208   0.657  12.190  10.149
35790SOL    HW1 9209   0.698  12.110  10.181
35790SOL    HW2 9210   0.569  12.164  10.123
35791SOL     OW 9211  12.324  12.668   2.787
35791SOL    HW1 9212  12.320  12.599   2.721
35791SOL    HW2 9213  12.383  12.634   2.854
35792SOL     OW 9214   7.131  13.002   7.328
35792SOL    HW1 9215   7.120  13.085   7.374
35792SOL    HW2 9216   7.170  12.944   7.393
35793SOL     OW 9217  12.875   6.136   4.803
35793SOL    HW1 9218  12.782   6.139   4.779
35793SOL    HW2 9219  12.879   6.178   4.888
35794SOL     OW 9220   3.768   7.166  12.075
35794SOL    HW1 9221   3.856   7.203  12.086
35794SOL    HW2 9222   3.783   7.077  12.044
35795SOL     OW 9223  12.453   1.567   7.273
35795SOL    HW1 9224  12.430   1.496   7.333
35795SOL    HW2 9225  12.491   1.522   7.197
35796SOL     OW 9226   8.049   9.307  14.228
35796SOL    HW1 9227   8.110   9.316  14.155
35796SOL    HW2 9228   8.056   9.390  14.275
35797SOL     OW 9229   4.704   4.836   3.458
35797SOL    HW1 9230   4.760   4.856   3.383
35797SOL    HW2 9231   4.716   4.742   3.473
35798SOL     OW 9232   6.901  11.129   6.216
35798SOL    HW1 9233   6.823  11.179   6.239
35798SOL    HW2 9234   6.918  11.074   6.292
35799SOL     OW 9235  12.863   0.238   7.579
35799SOL    HW1 9236  12.911   0.277   7.652
35799SOL    HW2 9237  12.889   0.146   7.580
35800SOL     OW 9238   0.398  13.398  13.373
35800SOL    HW1 9239   0.403  13.366  13.283
35800SOL    HW2 9240   0.486  13.383  13.409
35801SOL     OW 9241  12.235   0.983   4.721
35801SOL    HW1 9242  12.205   0.982   4.630
35801SOL    HW2 9243  12.329   0.963   4.715
35802SOL     OW 9244   9.691  14.008   4.796
35802SOL    HW1 9245   9.772  13.962   4.774
35802SOL    HW2 9246   9.628  13.939   4.814
35803SOL     OW 9247   1.398   3.217   0.810
35803SOL    HW1 9248   1.343   3.165   0.751
35803SOL    HW2 9249   1.392   3.172   0.894
35804SOL     OW 9250   2.789   6.742   0.938
35804SOL    HW1 9251   2.733   6.761   1.014
35804SOL    HW2 9252   2.734   6.686   0.883
35805SOL     OW 9253  12.300   6.252  14.035
35805SOL    HW1 9254  12.257   6.337  14.026
35805SOL    HW2 9255  12.269   6.218  14.119
35806SOL     OW 9256   8.696   8.489   5.656
35806SOL    HW1 9257   8.776   8.476   5.604
35806SOL    HW2 9258   8.631   8.518   5.592
35807SOL     OW 9259   6.944  10.003  12.092
35807SOL    HW1 9260   6.969   9.954  12.170
35807SOL    HW2 9261   6.881   9.947  12.047
35808SOL     OW 9262  10.698  10.640  11.115
35808SOL    HW1 9263  10.729  10.729  11.132
35808SOL    HW2 9264  10.603  10.648  11.109
35809SOL     OW 9265  13.256  11.935  10.027
35809SOL    HW1 9266  13.217  11.908  10.110
35809SOL    HW2 9267  13.335  11.883  10.019
35810SOL     OW 9268   5.284   6.439  11.592
35810SOL    HW1 9269   5.279   6.472  11.503
35810SOL    HW2 9270   5.209   6.480  11.637
35811SOL     OW 9271   1.884   1.847  14.127
35811SOL    HW1 9272   1.861   1.936  14.100
35811SOL    HW2 9273   1.848   1.839  14.216
35812SOL     OW 9274   5.093  10.335   7.034
35812SOL    HW1 9275   5.158  10.361   7.100
35812SOL    HW2 9276   5.145  10.306   6.959
35813SOL     OW 9277  10.808   3.543   8.218
35813SOL    HW1 9278  10.854   3.614   8.171
35813SOL    HW2 9279  10.816   3.468   8.159
35814SOL     OW 9280  12.798   8.130   5.491
35814SOL    HW1 9281  12.744   8.203   5.462
35814SOL    HW2 9282  12.888   8.160   5.477
35815SOL     OW 9283   9.106  12.510   4.820
35815SOL    HW1 9284   9.149  12.481   4.901
35815SOL    HW2 9285   9.067  12.595   4.843
35816SOL     OW 9286  10.907   9.438   0.209
35816SOL    HW1 9287  10.956   9.433   0.127
35816SOL    HW2 9288  10.946   9.512   0.255
35817SOL     OW 9289   5.868  12.884   2.223
35817SOL    HW1 9290   5.836  12.934   2.298
35817SOL    HW2 9291   5.797  12.887   2.160
35818SOL     OW 9292  14.252   9.097   4.645
35818SOL    HW1 9293  14.178   9.143   4.605
35818SOL    HW2 9294  14.212   9.043   4.714
35819SOL     OW 9295  14.534   0.348   2.028
35819SOL    HW1 9296  14.503   0.439   2.026
35819SOL    HW2 9297  14.557   0.333   2.119
35820SOL     OW 9298   7.265   6.057   5.284
35820SOL    HW1 9299   7.303   5.972   5.305
35820SOL    HW2 9300   7.300   6.116   5.351
35821SOL     OW 9301   6.566   3.259   6.505
35821SOL    HW1 9302   6.530   3.345   6.484
35821SOL    HW2 9303   6.576   3.260   6.601
35822SOL     OW 9304   6.751  13.921  11.360
35822SOL    HW1 9305   6.740  13.848  11.300
35822SOL    HW2 9306   6.748  13.999  11.304
35823SOL     OW 9307   8.840   5.539   9.958
35823SOL    HW1 9308   8.809   5.475   9.895
35823SOL    HW2 9309   8.790   5.618   9.940
35824SOL     OW 9310   2.510  10.061  11.954
35824SOL    HW1 9311   2.518  10.075  12.048
35824SOL    HW2 9312   2.451  10.131  11.924
35825SOL     OW 9313  13.878  13.342  10.933
35825SOL    HW1 9314  13.832  13.289  10.998
35825SOL    HW2 9315  13.820  13.342  10.856
35826SOL     OW 9316   6.699   1.257   1.476
35826SOL    HW1 9317   6.624   1.313   1.491
35826SOL    HW2 9318   6.671   1.198   1.406
35827SOL     OW 9319   9.325  12.245  14.544
35827SOL    HW1 9320   9.294  12.219  14.630
35827SOL    HW2 9321   9.418  12.262  14.555
35828SOL     OW 9322   7.966   6.313   2.720
35828SOL    HW1 9323   7.947   6.274   2.805
35828SOL    HW2 9324   7.891   6.289   2.665
35829SOL     OW 9325   7.839   5.866   8.758
35829SOL    HW1 9326   7.794   5.904   8.683
35829SOL    HW2 9327   7.836   5.933   8.826
35830SOL     OW 9328   8.108   0.187   2.022
35830SOL    HW1 9329   8.157   0.150   2.095
35830SOL    HW2 9330   8.087   0.112   1.966
35831SOL     OW 9331   5.254  12.386   7.979
35831SOL    HW1 9332   5.267  12.458   7.917
35831SOL    HW2 9333   5.161  12.393   8.004
35832SOL     OW 9334  11.639   7.981   7.742
35832SOL    HW1 9335  11.729   7.951   7.755
35832SOL    HW2 9336  11.621   8.036   7.818
35833SOL     OW 9337   0.537   8.925   6.366
35833SOL    HW1 9338   0.504   8.903   6.453
35833SOL    HW2 9339   0.624   8.886   6.363
35834SOL     OW 9340  12.593  11.544   3.180
35834SOL    HW1 9341  12.506  11.580   3.161
35834SOL    HW2 9342  12.653  11.600   3.131
35835SOL     OW 9343   1.389  10.231  14.812
35835SOL    HW1 9344   1.431  10.290  14.875
35835SOL    HW2 9345   1.349  10.290  14.748
35836SOL     OW 9346   3.983   6.492   2.682
35836SOL    HW1 9347   4.010   6.549   2.754
35836SOL    HW2 9348   4.025   6.528   2.605
35837SOL     OW 9349   9.167  12.961  13.460
35837SOL    HW1 9350   9.212  12.907  13.525
35837SOL    HW2 9351   9.210  13.046  13.464
35838SOL     OW 9352   7.269  11.905   1.608
35838SOL    HW1 9353   7.224  11.949   1.680
35838SOL    HW2 9354   7.213  11.831   1.586
35839SOL     OW 9355  12.358  14.136   2.675
35839SOL    HW1 9356  12.407  14.159   2.754
35839SOL    HW2 9357  12.406  14.061   2.639
35840SOL     OW 9358   3.260  12.818  11.179
35840SOL    HW1 9359   3.294  12.764  11.251
35840SOL    HW2 9360   3.165  12.816  11.191
35841SOL     OW 9361  13.693   3.261   2.439
35841SOL    HW1 9362  13.630   3.286   2.371
35841SOL    HW2 9363  13.701   3.338   2.495
35842SOL     OW 9364  12.297   3.436   0.754
35842SOL    HW1 9365  12.348   3.403   0.827
35842SOL    HW2 9366  12.356   3.495   0.707
35843SOL     OW 9367   0.945   1.791   3.779
35843SOL    HW1 9368   1.001   1.832   3.845
35843SOL    HW2 9369   1.006   1.758   3.713
35844SOL     OW 9370  11.064   2.558   9.612
35844SOL    HW1 9371  10.999   2.541   9.681
35844SOL    HW2 9372  11.035   2.504   9.538
35845SOL     OW 9373   2.706   3.527   0.262
35845SOL    HW1 9374   2.687   3.595   0.327
35845SOL    HW2 9375   2.762   3.570   0.198
35846SOL     OW 9376   4.227   0.838   4.553
35846SOL    HW1 9377   4.195   0.917   4.509
35846SOL    HW2 9378   4.315   0.861   4.582
35847SOL     OW 9379  14.637   9.868   7.246
35847SOL    HW1 9380  14.726   9.845   7.274
35847SOL    HW2 9381  14.605   9.791   7.200
35848SOL     OW 9382  10.765   8.110  10.737
35848SOL    HW1 9383  10.757   8.034  10.795
35848SOL    HW2 9384  10.676   8.127  10.707
35849SOL     OW 9385  11.550   5.900   4.268
35849SOL    HW1 9386  11.618   5.961   4.239
35849SOL    HW2 9387  11.473   5.922   4.216
35850SOL     OW 9388   6.372  11.407  13.297
35850SOL    HW1 9389   6.353  11.313  13.300
35850SOL    HW2 9390   6.380  11.426  13.204
35851SOL     OW 9391  13.364  14.544   3.839
35851SOL    HW1 9392  13.393  14.628   3.803
35851SOL    HW2 9393  13.432  14.519   3.901
35852SOL     OW 9394  14.753  12.142   5.424
35852SOL    HW1 9395  14.697  12.102   5.491
35852SOL    HW2 9396  14.734  12.091   5.345
35853SOL     OW 9397   6.015   2.580   1.499
35853SOL    HW1 9398   5.926   2.548   1.481
35853SOL    HW2 9399   6.029   2.649   1.436
35854SOL     OW 9400  12.137   2.549   2.230
35854SOL    HW1 9401  12.202   2.618   2.245
35854SOL    HW2 9402  12.188   2.468   2.229
35855SOL     OW 9403   0.296  12.024   0.426
35855SOL    HW1 9404   0.372  12.053   0.375
35855SOL    HW2 9405   0.327  11.948   0.475
35856SOL     OW 9406   7.483  10.432   4.495
35856SOL    HW1 9407   7.539  10.470   4.427
35856SOL    HW2 9408   7.449  10.508   4.543
35857SOL     OW 9409  13.266   5.943   5.655
35857SOL    HW1 9410  13.339   5.983   5.703
35857SOL    HW2 9411  13.248   5.862   5.702
35858SOL     OW 9412   7.846  10.817   3.264
35858SOL    HW1 9413   7.875  10.881   3.199
35858SOL    HW2 9414   7.751  10.827   3.268
35859SOL     OW 9415  12.903   3.592   0.909
35859SOL    HW1 9416  12.991   3.574   0.877
35859SOL    HW2 9417  12.845   3.563   0.838
35860SOL     OW 9418  14.854   1.039   2.875
35860SOL    HW1 9419  14.856   1.103   2.805
35860SOL    HW2 9420  14.764   1.007   2.877
35861SOL     OW 9421   5.232   8.728   2.551
35861SOL    HW1 9422   5.289   8.730   2.627
35861SOL    HW2 9423   5.154   8.680   2.580
35862SOL     OW 9424   0.229   6.121   8.425
35862SOL    HW1 9425   0.161   6.140   8.361
35862SOL    HW2 9426   0.276   6.046   8.389
35863SOL     OW 9427  12.905   5.650   1.463
35863SOL    HW1 9428  12.968   5.708   1.421
35863SOL    HW2 9429  12.919   5.663   1.557
35864SOL     OW 9430   0.787   1.383  13.297
35864SOL    HW1 9431   0.778   1.320  13.369
35864SOL    HW2 9432   0.710   1.366  13.242
35865SOL     OW 9433   9.261   1.630  11.222
35865SOL    HW1 9434   9.352   1.629  11.250
35865SOL    HW2 9435   9.257   1.567  11.150
35866SOL     OW 9436   4.888   7.803  11.735
35866SOL    HW1 9437   4.898   7.897  11.751
35866SOL    HW2 9438   4.867   7.797  11.642
35867SOL     OW 9439   6.022   1.250  12.495
35867SOL    HW1 9440   5.928   1.270  12.494
35867SOL    HW2 9441   6.055   1.295  12.573
35868SOL     OW 9442   5.488   9.475  13.811
35868SOL    HW1 9443   5.482   9.390  13.768
35868SOL    HW2 9444   5.493   9.538  13.738
35869SOL     OW 9445  13.853   9.215   7.305
35869SOL    HW1 9446  13.883   9.203   7.394
35869SOL    HW2 9447  13.914   9.164   7.251
35870SOL     OW 9448   5.891  10.201   6.074
35870SOL    HW1 9449   5.890  10.173   6.166
35870SOL    HW2 9450   5.938  10.131   6.028
35871SOL     OW 9451   8.397   8.268   5.784
35871SOL    HW1 9452   8.449   8.294   5.709
35871SOL    HW2 9453   8.306   8.276   5.755
35872SOL     OW 9454   1.878   5.715   2.462
35872SOL    HW1 9455   1.838   5.783   2.516
35872SOL    HW2 9456   1.849   5.734   2.373
35873SOL     OW 9457   4.763   3.757  13.304
35873SOL    HW1 9458   4.718   3.800  13.377
35873SOL    HW2 9459   4.856   3.769  13.324
35874SOL     OW 9460   0.004   9.194   0.854
35874SOL    HW1 9461  14.855   9.108   0.884
35874SOL    HW2 9462   0.001   9.188   0.759
35875SOL     OW 9463  12.372  13.084   1.170
35875SOL    HW1 9464  12.395  12.997   1.203
35875SOL    HW2 9465  12.453  13.135   1.176
35876SOL     OW 9466   9.506   9.117  13.092
35876SOL    HW1 9467   9.526   9.037  13.043
35876SOL    HW2 9468   9.411   9.121  13.094
35877SOL     OW 9469   8.029  12.943   6.191
35877SOL    HW1 9470   7.996  12.919   6.104
35877SOL    HW2 9471   8.119  12.910   6.192
35878SOL     OW 9472   3.987  12.424   4.178
35878SOL    HW1 9473   3.916  12.407   4.241
35878SOL    HW2 9474   4.003  12.339   4.138
35879SOL     OW 9475  13.132   4.141  12.391
35879SOL    HW1 9476  13.114   4.065  12.336
35879SOL    HW2 9477  13.222   4.129  12.421
35880SOL     OW 9478   1.024   3.527  13.038
35880SOL    HW1 9479   1.079   3.474  12.980
35880SOL    HW2 9480   1.031   3.484  13.123
35881SOL     OW 9481   7.403  13.499  13.912
35881SOL    HW1 9482   7.327  13.553  13.930
35881SOL    HW2 9483   7.367  13.410  13.902
35882SOL     OW 9484  11.107  14.218   9.628
35882SOL    HW1 9485  11.145  14.302   9.602
35882SOL    HW2 9486  11.182  14.165   9.655
35883SOL     OW 9487  14.479   4.356   0.046
35883SOL    HW1 9488  14.422   4.382   0.119
35883SOL    HW2 9489  14.567   4.365   0.082
35884SOL     OW 9490  13.259  11.672   2.147
35884SOL    HW1 9491  13.297  11.636   2.228
35884SOL    HW2 9492  13.237  11.595   2.095
35885SOL     OW 9493   7.574   6.730  14.060
35885SOL    HW1 9494   7.506   6.781  14.016
35885SOL    HW2 9495   7.565   6.642  14.022
35886SOL     OW 9496  11.965   1.311  13.690
35886SOL    HW1 9497  11.976   1.354  13.775
35886SOL    HW2 9498  11.970   1.383  13.627
35887SOL     OW 9499  10.745   0.116   1.327
35887SOL    HW1 9500  10.654   0.145   1.330
35887SOL    HW2 9501  10.773   0.136   1.238
35888SOL     OW 9502   3.097   6.463   1.162
35888SOL    HW1 9503   3.077   6.541   1.213
35888SOL    HW2 9504   3.087   6.390   1.224
35889SOL     OW 9505   2.605  11.415  10.767
35889SOL    HW1 9506   2.542  11.403  10.839
35889SOL    HW2 9507   2.597  11.336  10.714
35890SOL     OW 9508   0.236   7.128  11.032
35890SOL    HW1 9509   0.297   7.103  11.102
35890SOL    HW2 9510   0.175   7.055  11.025
35891SOL     OW 9511   8.018   5.365   7.911
35891SOL    HW1 9512   8.086   5.429   7.889
35891SOL    HW2 9513   8.039   5.288   7.859
35892SOL     OW 9514   6.607   2.226   9.696
35892SOL    HW1 9515   6.631   2.144   9.653
35892SOL    HW2 9516   6.601   2.203   9.789
35893SOL     OW 9517   4.636   4.099   1.181
35893SOL    HW1 9518   4.609   4.180   1.224
35893SOL    HW2 9519   4.705   4.125   1.121
35894SOL     OW 9520   6.230   4.482   6.084
35894SOL    HW1 9521   6.209   4.423   6.157
35894SOL    HW2 9522   6.237   4.424   6.009
35895SOL     OW 9523   3.934   4.176   2.129
35895SOL    HW1 9524   3.857   4.120   2.128
35895SOL    HW2 9525   3.973   4.161   2.215
35896SOL     OW 9526   7.802   5.632   6.926
35896SOL    HW1 9527   7.825   5.718   6.962
35896SOL    HW2 9528   7.718   5.610   6.968
35897SOL     OW 9529   3.172   7.171   6.874
35897SOL    HW1 9530   3.183   7.259   6.909
35897SOL    HW2 9531   3.078   7.161   6.861
35898SOL     OW 9532   2.983   3.900   2.564
35898SOL    HW1 9533   2.949   3.916   2.476
35898SOL    HW2 9534   2.991   3.987   2.603
35899SOL     OW 9535   3.508   2.277   0.440
35899SOL    HW1 9536   3.544   2.210   0.381
35899SOL    HW2 9537   3.569   2.280   0.513
35900SOL     OW 9538   8.497   7.012   2.195
35900SOL    HW1 9539   8.428   7.073   2.219
35900SOL    HW2 9540   8.578   7.062   2.207
35901SOL     OW 9541  14.044   5.735  10.829
35901SOL    HW1 9542  13.965   5.733  10.775
35901SOL    HW2 9543  14.069   5.643  10.838
35902SOL     OW 9544   4.766   4.522   5.695
35902SOL    HW1 9545   4.763   4.519   5.599
35902SOL    HW2 9546   4.817   4.445   5.720
35903SOL     OW 9547   6.265  12.361  12.353
35903SOL    HW1 9548   6.203  12.416  12.400
35903SOL    HW2 9549   6.277  12.284  12.409
35904SOL     OW 9550   9.630   7.381  13.841
35904SOL    HW1 9551   9.562   7.449  13.845
35904SOL    HW2 9552   9.596   7.310  13.895
35905SOL     OW 9553  10.393  13.167   2.655
35905SOL    HW1 9554  10.306  13.138   2.682
35905SOL    HW2 9555  10.437  13.087   2.627
35906SOL     OW 9556   0.619  11.537   1.310
35906SOL    HW1 9557   0.650  11.585   1.388
35906SOL    HW2 9558   0.529  11.568   1.298
35907SOL     OW 9559   5.847   6.870   6.174
35907SOL    HW1 9560   5.934   6.895   6.204
35907SOL    HW2 9561   5.853   6.870   6.079
35908SOL     OW 9562   9.186   0.672   8.841
35908SOL    HW1 9563   9.240   0.593   8.847
35908SOL    HW2 9564   9.096   0.639   8.849
35909SOL     OW 9565  11.536   1.905   0.574
35909SOL    HW1 9566  11.568   1.839   0.513
35909SOL    HW2 9567  11.451   1.873   0.602
35910SOL     OW 9568   6.092   5.792   8.509
35910SOL    HW1 9569   6.050   5.874   8.535
35910SOL    HW2 9570   6.096   5.740   8.589
35911SOL     OW 9571   2.122   2.285  12.930
35911SOL    HW1 9572   2.087   2.201  12.898
35911SOL    HW2 9573   2.207   2.263  12.967
35912SOL     OW 9574   1.252   0.060   5.234
35912SOL    HW1 9575   1.277   0.064   5.326
35912SOL    HW2 9576   1.183  14.876   5.231
35913SOL     OW 9577  13.570   5.900   3.790
35913SOL    HW1 9578  13.593   5.842   3.717
35913SOL    HW2 9579  13.480   5.877   3.811
35914SOL     OW 9580   6.476   6.464   2.951
35914SOL    HW1 9581   6.384   6.478   2.971
35914SOL    HW2 9582   6.479   6.456   2.855
35915SOL     OW 9583  14.570   8.960   5.818
35915SOL    HW1 9584  14.603   8.887   5.871
35915SOL    HW2 9585  14.506   8.920   5.760
35916SOL     OW 9586  10.866   8.802   4.400
35916SOL    HW1 9587  10.932   8.871   4.388
35916SOL    HW2 9588  10.849   8.802   4.495
35917SOL     OW 9589   0.766  10.583  10.447
35917SOL    HW1 9590   0.825  10.518  10.409
35917SOL    HW2 9591   0.679  10.542  10.443
35918SOL     OW 9592   6.857   6.501   3.043
35918SOL    HW1 9593   6.880   6.589   3.072
35918SOL    HW2 9594   6.850   6.450   3.123
35919SOL     OW 9595  11.595  11.697  11.991
35919SOL    HW1 9596  11.687  11.680  12.010
35919SOL    HW2 9597  11.548  11.661  12.066
35920SOL     OW 9598   1.975   6.982   6.311
35920SOL    HW1 9599   2.059   7.026   6.326
35920SOL    HW2 9600   1.935   7.031   6.239
35921SOL     OW 9601  13.144   5.082   3.077
35921SOL    HW1 9602  13.203   5.152   3.048
35921SOL    HW2 9603  13.072   5.083   3.014
35922SOL     OW 9604  14.839  12.123   5.841
35922SOL    HW1 9605  14.823  12.161   5.928
35922SOL    HW2 9606   0.014  12.048   5.858
35923SOL     OW 9607   0.990  11.843   7.203
35923SOL    HW1 9608   1.017  11.785   7.274
35923SOL    HW2 9609   0.900  11.868   7.225
35924SOL     OW 9610  10.175   2.632   9.134
35924SOL    HW1 9611  10.158   2.602   9.044
35924SOL    HW2 9612  10.188   2.551   9.184
35925SOL     OW 9613   3.600  10.768   8.293
35925SOL    HW1 9614   3.679  10.714   8.283
35925SOL    HW2 9615   3.592  10.780   8.388
35926SOL     OW 9616   8.821  11.655  14.371
35926SOL    HW1 9617   8.785  11.576  14.411
35926SOL    HW2 9618   8.754  11.682  14.307
35927SOL     OW 9619  14.238   1.634   1.623
35927SOL    HW1 9620  14.237   1.690   1.701
35927SOL    HW2 9621  14.149   1.639   1.588
35928SOL     OW 9622   6.289   4.548   9.024
35928SOL    HW1 9623   6.316   4.637   9.046
35928SOL    HW2 9624   6.194   4.548   9.038
35929SOL     OW 9625   2.962   0.050   7.055
35929SOL    HW1 9626   3.021   0.107   7.006
35929SOL    HW2 9627   2.967  14.848   7.010
35930SOL     OW 9628   4.110  13.366   7.950
35930SOL    HW1 9629   4.140  13.457   7.950
35930SOL    HW2 9630   4.134  13.333   7.864
35931SOL     OW 9631  11.044   0.402   9.358
35931SOL    HW1 9632  10.976   0.370   9.416
35931SOL    HW2 9633  11.022   0.364   9.272
35932SOL     OW 9634   6.243   0.962   7.709
35932SOL    HW1 9635   6.162   1.009   7.691
35932SOL    HW2 9636   6.215   0.874   7.735
35933SOL     OW 9637   9.470  13.476   9.593
35933SOL    HW1 9638   9.420  13.496   9.514
35933SOL    HW2 9639   9.450  13.384   9.611
35934SOL     OW 9640  14.185  13.037  11.453
35934SOL    HW1 9641  14.189  13.129  11.430
35934SOL    HW2 9642  14.092  13.019  11.467
35935SOL     OW 9643   9.191   4.629  11.775
35935SOL    HW1 9644   9.257   4.585  11.827
35935SOL    HW2 9645   9.181   4.716  11.815
35936SOL     OW 9646  13.168   3.916   5.996
35936SOL    HW1 9647  13.227   3.977   6.039
35936SOL    HW2 9648  13.217   3.885   5.920
35937SOL     OW 9649  11.939   8.890  12.447
35937SOL    HW1 9650  11.881   8.966  12.450
35937SOL    HW2 9651  11.882   8.816  12.468
35938SOL     OW 9652   3.371  12.658   7.919
35938SOL    HW1 9653   3.297  12.667   7.858
35938SOL    HW2 9654   3.330  12.644   8.004
35939SOL     OW 9655   6.590   7.972   4.499
35939SOL    HW1 9656   6.498   7.958   4.523
35939SOL    HW2 9657   6.622   7.886   4.475
35940SOL     OW 9658  12.909   9.776   1.789
35940SOL    HW1 9659  12.855   9.759   1.712
35940SOL    HW2 9660  12.934   9.868   1.782
35941SOL     OW 9661   4.158   9.070  13.215
35941SOL    HW1 9662   4.143   9.162  13.195
35941SOL    HW2 9663   4.253   9.058  13.205
35942SOL     OW 9664   4.712   9.469   7.981
35942SOL    HW1 9665   4.741   9.383   7.952
35942SOL    HW2 9666   4.626   9.481   7.940
35943SOL     OW 9667   4.418  10.840   8.568
35943SOL    HW1 9668   4.426  10.761   8.622
35943SOL    HW2 9669   4.494  10.836   8.509
35944SOL     OW 9670  13.258   9.907   7.897
35944SOL    HW1 9671  13.220   9.823   7.925
35944SOL    HW2 9672  13.342   9.912   7.942
35945SOL     OW 9673   8.065  12.435   9.028
35945SOL    HW1 9674   8.124  12.506   9.049
35945SOL    HW2 9675   8.048  12.444   8.934
35946SOL     OW 9676   9.807   5.981   5.241
35946SOL    HW1 9677   9.817   5.896   5.198
35946SOL    HW2 9678   9.877   5.983   5.307
35947SOL     OW 9679   4.616   6.136   6.259
35947SOL    HW1 9680   4.640   6.158   6.169
35947SOL    HW2 9681   4.604   6.041   6.258
35948SOL     OW 9682   4.558   4.406  10.215
35948SOL    HW1 9683   4.652   4.394  10.198
35948SOL    HW2 9684   4.521   4.318  10.210
35949SOL     OW 9685  11.279  11.115   0.248
35949SOL    HW1 9686  11.331  11.151   0.176
35949SOL    HW2 9687  11.188  11.126   0.219
35950SOL     OW 9688   0.682   6.269  13.491
35950SOL    HW1 9689   0.756   6.326  13.514
35950SOL    HW2 9690   0.697   6.247  13.399
35951SOL     OW 9691  12.222   4.409   2.308
35951SOL    HW1 9692  12.211   4.478   2.374
35951SOL    HW2 9693  12.137   4.365   2.305
35952SOL     OW 9694  14.360   3.560  12.247
35952SOL    HW1 9695  14.348   3.470  12.216
35952SOL    HW2 9696  14.441   3.558  12.297
35953SOL     OW 9697  12.951  13.987   3.627
35953SOL    HW1 9698  12.879  13.936   3.592
35953SOL    HW2 9699  13.023  13.974   3.565
35954SOL     OW 9700   9.394  11.769   0.462
35954SOL    HW1 9701   9.364  11.735   0.378
35954SOL    HW2 9702   9.313  11.795   0.507
35955SOL     OW 9703  10.028   0.778   3.334
35955SOL    HW1 9704  10.071   0.759   3.250
35955SOL    HW2 9705   9.936   0.757   3.319
35956SOL     OW 9706  13.195   8.854  13.502
35956SOL    HW1 9707  13.196   8.860  13.407
35956SOL    HW2 9708  13.113   8.897  13.528
35957SOL     OW 9709  10.861   7.294  13.908
35957SOL    HW1 9710  10.842   7.201  13.899
35957SOL    HW2 9711  10.845   7.331  13.821
35958SOL     OW 9712   1.485   8.754   5.660
35958SOL    HW1 9713   1.452   8.811   5.590
35958SOL    HW2 9714   1.569   8.722   5.627
35959SOL     OW 9715  13.548   4.488   3.511
35959SOL    HW1 9716  13.562   4.581   3.496
35959SOL    HW2 9717  13.499   4.458   3.434
35960SOL     OW 9718   0.634  14.064   7.115
35960SOL    HW1 9719   0.695  14.076   7.042
35960SOL    HW2 9720   0.556  14.112   7.090
35961SOL     OW 9721   8.634   2.955  13.419
35961SOL    HW1 9722   8.701   3.020  13.439
35961SOL    HW2 9723   8.591   2.938  13.503
35962SOL     OW 9724   1.304  11.354  10.724
35962SOL    HW1 9725   1.225  11.406  10.708
35962SOL    HW2 9726   1.376  11.414  10.708
35963SOL     OW 9727  11.162   8.294   5.804
35963SOL    HW1 9728  11.205   8.241   5.872
35963SOL    HW2 9729  11.156   8.235   5.729
35964SOL     OW 9730   2.529   6.011   3.699
35964SOL    HW1 9731   2.624   6.001   3.699
35964SOL    HW2 9732   2.498   5.948   3.634
35965SOL     OW 9733  10.056   1.433   3.650
35965SOL    HW1 9734  10.081   1.343   3.629
35965SOL    HW2 9735   9.971   1.424   3.693
35966SOL     OW 9736   8.572   5.888   9.046
35966SOL    HW1 9737   8.541   5.974   9.071
35966SOL    HW2 9738   8.525   5.868   8.965
35967SOL     OW 9739  11.620   7.166   4.581
35967SOL    HW1 9740  11.696   7.207   4.622
35967SOL    HW2 9741  11.625   7.191   4.489
35968SOL     OW 9742  13.438  11.790   8.143
35968SOL    HW1 9743  13.440  11.700   8.110
35968SOL    HW2 9744  13.347  11.817   8.135
35969SOL     OW 9745   8.001  10.871   2.571
35969SOL    HW1 9746   7.945  10.822   2.511
35969SOL    HW2 9747   7.946  10.944   2.601
35970SOL     OW 9748  14.316   7.405  12.524
35970SOL    HW1 9749  14.398   7.407  12.572
35970SOL    HW2 9750  14.248   7.407  12.591
35971SOL     OW 9751  12.812  13.849   0.165
35971SOL    HW1 9752  12.744  13.912   0.188
35971SOL    HW2 9753  12.765  13.768   0.148
35972SOL     OW 9754   2.891  12.715   4.538
35972SOL    HW1 9755   2.981  12.683   4.528
35972SOL    HW2 9756   2.884  12.788   4.477
35973SOL     OW 9757   7.322   3.016   8.387
35973SOL    HW1 9758   7.326   2.946   8.452
35973SOL    HW2 9759   7.409   3.056   8.390
35974SOL     OW 9760   9.318   9.286  11.460
35974SOL    HW1 9761   9.371   9.355  11.419
35974SOL    HW2 9762   9.261   9.256  11.390
35975SOL     OW 9763   2.057   6.110   3.650
35975SOL    HW1 9764   2.135   6.130   3.599
35975SOL    HW2 9765   2.081   6.131   3.740
35976SOL     OW 9766  11.838   9.762   0.872
35976SOL    HW1 9767  11.889   9.769   0.953
35976SOL    HW2 9768  11.841   9.669   0.851
35977SOL     OW 9769   0.231   0.285   1.762
35977SOL    HW1 9770   0.166   0.233   1.808
35977SOL    HW2 9771   0.214   0.376   1.788
35978SOL     OW 9772   9.918   4.548   3.556
35978SOL    HW1 9773   9.964   4.476   3.599
35978SOL    HW2 9774   9.887   4.511   3.473
35979SOL     OW 9775   3.672   6.440   6.826
35979SOL    HW1 9776   3.636   6.460   6.739
35979SOL    HW2 9777   3.754   6.394   6.808
35980SOL     OW 9778  10.034  14.788  14.288
35980SOL    HW1 9779  10.125  14.761  14.280
35980SOL    HW2 9780  10.028  14.824  14.377
35981SOL     OW 9781   2.380   6.475   7.458
35981SOL    HW1 9782   2.409   6.384   7.464
35981SOL    HW2 9783   2.450   6.526   7.500
35982SOL     OW 9784   9.989   9.294   7.606
35982SOL    HW1 9785   9.969   9.350   7.531
35982SOL    HW2 9786  10.059   9.237   7.574
35983SOL     OW 9787  11.504   2.523   3.671
35983SOL    HW1 9788  11.571   2.518   3.740
35983SOL    HW2 9789  11.540   2.585   3.608
35984SOL     OW 9790  10.971   3.182   6.541
35984SOL    HW1 9791  11.050   3.143   6.578
35984SOL    HW2 9792  10.900   3.148   6.596
35985SOL     OW 9793   8.827   4.172   5.460
35985SOL    HW1 9794   8.887   4.225   5.407
35985SOL    HW2 9795   8.835   4.207   5.548
35986SOL     OW 9796  10.420   0.217  11.685
35986SOL    HW1 9797  10.359   0.236  11.614
35986SOL    HW2 9798  10.502   0.195  11.642
35987SOL     OW 9799  14.081   8.431   0.999
35987SOL    HW1 9800  14.098   8.415   0.906
35987SOL    HW2 9801  14.147   8.495   1.025
35988SOL     OW 9802  12.011   6.498   1.362
35988SOL    HW1 9803  12.088   6.469   1.314
35988SOL    HW2 9804  11.947   6.519   1.293
35989SOL     OW 9805   3.517   2.379   4.889
35989SOL    HW1 9806   3.490   2.287   4.891
35989SOL    HW2 9807   3.499   2.411   4.977
35990SOL     OW 9808  14.463  13.148  11.350
35990SOL    HW1 9809  14.423  13.088  11.413
35990SOL    HW2 9810  14.500  13.218  11.404
35991SOL     OW 9811  10.968  12.161  11.671
35991SOL    HW1 9812  10.954  12.093  11.605
35991SOL    HW2 9813  10.942  12.242  11.627
35992SOL     OW 9814   9.354   1.632   1.264
35992SOL    HW1 9815   9.353   1.724   1.291
35992SOL    HW2 9816   9.289   1.590   1.321
35993SOL     OW 9817   3.607   9.200   7.797
35993SOL    HW1 9818   3.590   9.115   7.757
35993SOL    HW2 9819   3.637   9.179   7.886
35994SOL     OW 9820   0.353  13.506   4.911
35994SOL    HW1 9821   0.379  13.555   4.832
35994SOL    HW2 9822   0.361  13.414   4.886
35995SOL     OW 9823   1.452   2.573   0.080
35995SOL    HW1 9824   1.421   2.498   0.029
35995SOL    HW2 9825   1.467   2.538   0.168
35996SOL     OW 9826   7.202   4.680   3.612
35996SOL    HW1 9827   7.118   4.691   3.657
35996SOL    HW2 9828   7.196   4.738   3.537
35997SOL     OW 9829  10.675   6.992   1.129
35997SOL    HW1 9830  10.754   7.044   1.142
35997SOL    HW2 9831  10.691   6.944   1.048
35998SOL     OW 9832  10.248  10.171   2.525
35998SOL    HW1 9833  10.212  10.084   2.539
35998SOL    HW2 9834  10.302  10.162   2.446
35999SOL     OW 9835  10.723   4.857  14.545
35999SOL    HW1 9836  10.724   4.926  14.612
35999SOL    HW2 9837  10.701   4.904  14.464
36000SOL     OW 9838   7.585   3.307   9.549
36000SOL    HW1 9839   7.494   3.331   9.536
36000SOL    HW2 9840   7.582   3.215   9.576
36001SOL     OW 9841   8.473   2.244   6.612
36001SOL    HW1 9842   8.491   2.169   6.556
36001SOL    HW2 9843   8.505   2.319   6.562
36002SOL     OW 9844  12.614   5.999  10.414
36002SOL    HW1 9845  12.561   6.034  10.342
36002SOL    HW2 9846  12.693   6.054  10.413
36003SOL     OW 9847  14.035   3.313   6.900
36003SOL    HW1 9848  14.049   3.332   6.992
36003SOL    HW2 9849  14.105   3.360   6.855
36004SOL     OW 9850  14.378  11.597   3.036
36004SOL    HW1 9851  14.439  11.547   3.090
36004SOL    HW2 9852  14.335  11.532   2.981
36005SOL     OW 9853   4.169   4.621   8.674
36005SOL    HW1 9854   4.146   4.646   8.584
36005SOL    HW2 9855   4.244   4.676   8.696
36006SOL     OW 9856   2.646   4.673  10.930
36006SOL    HW1 9857   2.648   4.671  10.834
36006SOL    HW2 9858   2.712   4.738  10.954
36007SOL     OW 9859  13.287   0.633  12.893
36007SOL    HW1 9860  13.218   0.567  12.891
36007SOL    HW2 9861  13.265   0.694  12.823
36008SOL     OW 9862  11.780  14.334  11.492
36008SOL    HW1 9863  11.807  14.393  11.563
36008SOL    HW2 9864  11.807  14.247  11.521
36009SOL     OW 9865  12.342  13.847   7.607
36009SOL    HW1 9866  12.417  13.842   7.549
36009SOL    HW2 9867  12.318  13.940   7.608
36010SOL     OW 9868   2.064   9.402   6.063
36010SOL    HW1 9869   1.976   9.422   6.094
36010SOL    HW2 9870   2.064   9.429   5.971
36011SOL     OW 9871   8.123   0.875   4.003
36011SOL    HW1 9872   8.200   0.844   4.051
36011SOL    HW2 9873   8.131   0.970   4.003
36012SOL     OW 9874   7.046   5.408   3.711
36012SOL    HW1 9875   7.007   5.456   3.784
36012SOL    HW2 9876   7.097   5.474   3.664
36013SOL     OW 9877  12.304  14.293   5.889
36013SOL    HW1 9878  12.254  14.371   5.866
36013SOL    HW2 9879  12.395  14.322   5.888
36014SOL     OW 9880  11.379   1.862   1.892
36014SOL    HW1 9881  11.464   1.853   1.936
36014SOL    HW2 9882  11.396   1.835   1.802
36015SOL     OW 9883  12.617  11.127   6.804
36015SOL    HW1 9884  12.699  11.161   6.838
36015SOL    HW2 9885  12.640  11.090   6.719
36016SOL     OW 9886   0.553  10.873   1.338
36016SOL    HW1 9887   0.507  10.948   1.301
36016SOL    HW2 9888   0.487  10.826   1.389
36017SOL     OW 9889   7.120  12.752   3.040
36017SOL    HW1 9890   7.085  12.808   3.109
36017SOL    HW2 9891   7.210  12.734   3.067
36018SOL     OW 9892   3.295  14.682  14.014
36018SOL    HW1 9893   3.305  14.774  14.039
36018SOL    HW2 9894   3.267  14.685  13.923
36019SOL     OW 9895   2.518   7.830  12.700
36019SOL    HW1 9896   2.597   7.849  12.649
36019SOL    HW2 9897   2.482   7.751  12.659
36020SOL     OW 9898   8.960   3.682  12.847
36020SOL    HW1 9899   9.041   3.661  12.894
36020SOL    HW2 9900   8.957   3.777  12.846
36021SOL     OW 9901   2.273   7.944   5.801
36021SOL    HW1 9902   2.203   8.006   5.820
36021SOL    HW2 9903   2.234   7.858   5.813
36022SOL     OW 9904  14.490   2.823  13.179
36022SOL    HW1 9905  14.419   2.820  13.115
36022SOL    HW2 9906  14.479   2.743  13.230
36023SOL     OW 9907  10.334   4.704   6.101
36023SOL    HW1 9908  10.362   4.774   6.161
36023SOL    HW2 9909  10.391   4.715   6.024
36024SOL     OW 9910   2.616  12.185   3.756
36024SOL    HW1 9911   2.536  12.161   3.802
36024SOL    HW2 9912   2.677  12.210   3.824
36025SOL     OW 9913   7.038  11.267   5.515
36025SOL    HW1 9914   6.968  11.229   5.568
36025SOL    HW2 9915   7.089  11.192   5.485
36026SOL     OW 9916   3.905   2.597  14.314
36026SOL    HW1 9917   3.892   2.671  14.373
36026SOL    HW2 9918   3.932   2.636  14.231
36027SOL     OW 9919   7.571   7.746   9.906
36027SOL    HW1 9920   7.562   7.759  10.000
36027SOL    HW2 9921   7.623   7.666   9.898
36028SOL     OW 9922  14.505   6.590   0.557
36028SOL    HW1 9923  14.523   6.682   0.575
36028SOL    HW2 9924  14.583   6.559   0.512
36029SOL     OW 9925  12.274   8.700   9.873
36029SOL    HW1 9926  12.296   8.793   9.862
36029SOL    HW2 9927  12.179   8.696   9.861
36030SOL     OW 9928  11.349   8.520   6.523
36030SOL    HW1 9929  11.417   8.454   6.513
36030SOL    HW2 9930  11.268   8.470   6.531
36031SOL     OW 9931   0.171   9.115   6.309
36031SOL    HW1 9932   0.219   9.196   6.324
36031SOL    HW2 9933   0.129   9.096   6.394
36032SOL     OW 9934  12.768   4.348  11.892
36032SOL    HW1 9935  12.785   4.345  11.986
36032SOL    HW2 9936  12.836   4.292  11.853
36033SOL     OW 9937   0.935  13.588  13.228
36033SOL    HW1 9938   0.901  13.558  13.312
36033SOL    HW2 9939   0.872  13.555  13.164
36034SOL     OW 9940  11.395   9.951  10.377
36034SOL    HW1 9941  11.464   9.932  10.440
36034SOL    HW2 9942  11.402   9.881  10.311
36035SOL     OW 9943   5.232   0.083  11.759
36035SOL    HW1 9944   5.302   0.132  11.803
36035SOL    HW2 9945   5.220   0.005  11.813
36036SOL     OW 9946   5.067   5.106   6.095
36036SOL    HW1 9947   5.108   5.119   6.009
36036SOL    HW2 9948   5.138   5.116   6.158
36037SOL     OW 9949   8.531  13.131   4.836
36037SOL    HW1 9950   8.497  13.183   4.908
36037SOL    HW2 9951   8.624  13.154   4.832
36038SOL     OW 9952   9.289   3.727  12.057
36038SOL    HW1 9953   9.208   3.772  12.082
36038SOL    HW2 9954   9.353   3.754  12.123
36039SOL     OW 9955  10.319   4.019   6.842
36039SOL    HW1 9956  10.274   4.024   6.926
36039SOL    HW2 9957  10.398   4.072   6.854
36040SOL     OW 9958   1.524  11.584   0.972
36040SOL    HW1 9959   1.596  11.599   0.912
36040SOL    HW2 9960   1.523  11.661   1.029
36041SOL     OW 9961  11.767   4.484   3.746
36041SOL    HW1 9962  11.794   4.562   3.696
36041SOL    HW2 9963  11.832   4.477   3.816
36042SOL     OW 9964   2.073   7.196  10.618
36042SOL    HW1 9965   2.055   7.287  10.595
36042SOL    HW2 9966   2.153   7.200  10.671
36043SOL     OW 9967   9.144  14.473   2.176
36043SOL    HW1 9968   9.075  14.523   2.132
36043SOL    HW2 9969   9.187  14.536   2.233
36044SOL     OW 9970   6.427  14.407   7.225
36044SOL    HW1 9971   6.426  14.502   7.226
36044SOL    HW2 9972   6.477  14.384   7.146
36045SOL     OW 9973   9.977   2.579  12.639
36045SOL    HW1 9974   9.968   2.485  12.650
36045SOL    HW2 9975  10.052   2.589  12.580
36046SOL     OW 9976   6.536  10.104  12.104
36046SOL    HW1 9977   6.451  10.083  12.067
36046SOL    HW2 9978   6.518  10.175  12.166
36047SOL     OW 9979  10.522   9.606  14.696
36047SOL    HW1 9980  10.576   9.636  14.623
36047SOL    HW2 9981  10.433   9.628  14.670
36048SOL     OW 9982   2.100   0.663   1.515
36048SOL    HW1 9983   2.008   0.638   1.504
36048SOL    HW2 9984   2.103   0.755   1.490
36049SOL     OW 9985   6.571   7.595  10.976
36049SOL    HW1 9986   6.569   7.658  10.903
36049SOL    HW2 9987   6.480   7.569  10.988
36050SOL     OW 9988   6.304   3.132  13.811
36050SOL    HW1 9989   6.259   3.137  13.726
36050SOL    HW2 9990   6.238   3.096  13.871
36051SOL     OW 9991  10.343   4.545   3.729
36051SOL    HW1 9992  10.297   4.502   3.657
36051SOL    HW2 9993  10.308   4.505   3.808
36052SOL     OW 9994   8.494  13.263  11.331
36052SOL    HW1 9995   8.509  13.262  11.426
36052SOL    HW2 9996   8.555  13.199  11.296
36053SOL     OW 9997   2.096   2.130   9.500
36053SOL    HW1 9998   2.168   2.122   9.561
36053SOL    HW2 9999   2.125   2.196   9.437
36054SOL     OW10000   2.411   2.741   3.559
36054SOL    HW110001   2.412   2.822   3.509
36054SOL    HW210002   2.318   2.717   3.564
36055SOL     OW10003   4.246   3.218   2.182
36055SOL    HW110004   4.319   3.184   2.234
36055SOL    HW210005   4.266   3.191   2.092
36056SOL     OW10006   6.329  10.408   4.931
36056SOL    HW110007   6.321  10.496   4.895
36056SOL    HW210008   6.362  10.420   5.020
36057SOL     OW10009   6.115   3.655   6.597
36057SOL    HW110010   6.068   3.575   6.618
36057SOL    HW210011   6.207   3.630   6.597
36058SOL     OW10012   4.838   4.554  13.512
36058SOL    HW110013   4.803   4.545  13.424
36058SOL    HW210014   4.769   4.520  13.569
36059SOL     OW10015   0.599  11.608   4.707
36059SOL    HW110016   0.653  11.668   4.656
36059SOL    HW210017   0.653  11.586   4.783
36060SOL     OW10018   3.076  13.537   9.524
36060SOL    HW110019   3.141  13.598   9.558
36060SOL    HW210020   2.996  13.588   9.515
36061SOL     OW10021  13.764   9.340   3.785
36061SOL    HW110022  13.737   9.358   3.695
36061SOL    HW210023  13.713   9.402   3.838
36062SOL     OW10024   5.196   8.266   7.624
36062SOL    HW110025   5.149   8.183   7.630
36062SOL    HW210026   5.127   8.332   7.619
36063SOL     OW10027  12.564  11.998   1.839
36063SOL    HW110028  12.533  12.088   1.843
36063SOL    HW210029  12.569  11.969   1.930
36064SOL     OW10030   1.022  14.298   2.309
36064SOL    HW110031   1.026  14.391   2.331
36064SOL    HW210032   1.019  14.253   2.394
36065SOL     OW10033  14.666   1.485   5.405
36065SOL    HW110034  14.652   1.576   5.380
36065SOL    HW210035  14.736   1.487   5.469
36066SOL     OW10036   7.923   8.669  11.321
36066SOL    HW110037   8.006   8.650  11.364
36066SOL    HW210038   7.901   8.758  11.348
36067SOL     OW10039   4.198   9.093   0.901
36067SOL    HW110040   4.233   9.013   0.861
36067SOL    HW210041   4.224   9.163   0.842
36068SOL     OW10042   9.002   6.413   7.219
36068SOL    HW110043   8.936   6.344   7.228
36068SOL    HW210044   8.954   6.494   7.239
36069SOL     OW10045   2.809  13.460   7.599
36069SOL    HW110046   2.895  13.469   7.640
36069SOL    HW210047   2.781  13.371   7.622
36070SOL     OW10048   5.576  12.474   5.483
36070SOL    HW110049   5.669  12.468   5.460
36070SOL    HW210050   5.539  12.533   5.418
36071SOL     OW10051   5.517   9.322   6.388
36071SOL    HW110052   5.469   9.337   6.306
36071SOL    HW210053   5.450   9.319   6.455
36072SOL     OW10054   5.257  12.020   9.245
36072SOL    HW110055   5.199  12.095   9.257
36072SOL    HW210056   5.253  12.001   9.151
36073SOL     OW10057  10.141   7.170  14.460
36073SOL    HW110058  10.164   7.216  14.380
36073SOL    HW210059  10.179   7.083  14.450
36074SOL     OW10060  13.526   8.875  12.589
36074SOL    HW110061  13.444   8.908  12.552
36074SOL    HW210062  13.566   8.952  12.629
36075SOL     OW10063   8.194   2.807   9.522
36075SOL    HW110064   8.262   2.826   9.458
36075SOL    HW210065   8.154   2.893   9.540
36076SOL     OW10066  11.762   6.448   9.903
36076SOL    HW110067  11.700   6.383   9.937
36076SOL    HW210068  11.712   6.529   9.897
36077SOL     OW10069   7.426   1.923  10.339
36077SOL    HW110070   7.409   1.979  10.415
36077SOL    HW210071   7.365   1.850  10.349
36078SOL     OW10072   3.651  10.758   3.893
36078SOL    HW110073   3.567  10.734   3.855
36078SOL    HW210074   3.701  10.677   3.895
36079SOL     OW10075   0.915  13.621   9.852
36079SOL    HW110076   0.961  13.555   9.799
36079SOL    HW210077   0.826  13.621   9.817
36080SOL     OW10078   0.478   4.675  13.728
36080SOL    HW110079   0.481   4.581  13.713
36080SOL    HW210080   0.504   4.686  13.820
36081SOL     OW10081   7.785   4.926   8.892
36081SOL    HW110082   7.744   4.971   8.966
36081SOL    HW210083   7.773   4.984   8.818
36082SOL     OW10084  14.772   8.269   0.335
36082SOL    HW110085  14.755   8.244   0.425
36082SOL    HW210086  14.831   8.344   0.341
36083SOL     OW10087   1.384   2.536   1.351
36083SOL    HW110088   1.449   2.599   1.320
36083SOL    HW210089   1.326   2.524   1.276
36084SOL     OW10090   5.886  14.249  12.705
36084SOL    HW110091   5.980  14.237  12.691
36084SOL    HW210092   5.878  14.340  12.736
36085SOL     OW10093   1.089   9.565   9.462
36085SOL    HW110094   1.133   9.565   9.377
36085SOL    HW210095   1.027   9.492   9.456
36086SOL     OW10096  11.395   5.342   7.398
36086SOL    HW110097  11.410   5.389   7.480
36086SOL    HW210098  11.365   5.255   7.426
36087SOL     OW10099   7.802   4.004   7.707
36087SOL    HW110100   7.802   3.925   7.762
36087SOL    HW210101   7.893   4.015   7.682
36088SOL     OW10102   2.997   9.556   4.414
36088SOL    HW110103   3.058   9.483   4.400
36088SOL    HW210104   3.005   9.609   4.335
36089SOL     OW10105   8.245   2.425  11.368
36089SOL    HW110106   8.301   2.449  11.441
36089SOL    HW210107   8.224   2.333  11.384
36090SOL     OW10108  14.119   2.613  11.711
36090SOL    HW110109  14.144   2.695  11.669
36090SOL    HW210110  14.160   2.616  11.797
36091SOL     OW10111   8.430  10.083  10.901
36091SOL    HW110112   8.478  10.149  10.952
36091SOL    HW210113   8.499  10.034  10.855
36092SOL     OW10114  12.304   0.050   1.116
36092SOL    HW110115  12.286  14.858   1.174
36092SOL    HW210116  12.253   0.031   1.037
36093SOL     OW10117   1.727   9.183   3.054
36093SOL    HW110118   1.789   9.154   2.987
36093SOL    HW210119   1.743   9.126   3.129
36094SOL     OW10120  14.826  11.577  13.286
36094SOL    HW110121   0.004  11.543  13.220
36094SOL    HW210122  14.777  11.500  13.316
36095SOL     OW10123   6.394   1.792   4.091
36095SOL    HW110124   6.371   1.856   4.024
36095SOL    HW210125   6.434   1.719   4.043
36096SOL     OW10126   1.936  14.180   0.419
36096SOL    HW110127   1.994  14.205   0.490
36096SOL    HW210128   1.903  14.263   0.384
36097SOL     OW10129   3.677   9.571  10.855
36097SOL    HW110130   3.591   9.585  10.817
36097SOL    HW210131   3.718   9.658  10.856
36098SOL     OW10132   5.472   1.273   5.052
36098SOL    HW110133   5.426   1.343   5.098
36098SOL    HW210134   5.404   1.224   5.006
36099SOL     OW10135  13.751   2.179  11.382
36099SOL    HW110136  13.829   2.141  11.342
36099SOL    HW210137  13.698   2.103  11.407
36100SOL     OW10138   0.191   4.545   9.468
36100SOL    HW110139   0.127   4.563   9.399
36100SOL    HW210140   0.144   4.490   9.531
36101SOL     OW10141   1.417   3.440  14.391
36101SOL    HW110142   1.476   3.397  14.453
36101SOL    HW210143   1.466   3.441  14.309
36102SOL     OW10144   2.387  12.954  11.430
36102SOL    HW110145   2.385  13.048  11.447
36102SOL    HW210146   2.307  12.936  11.382
36103SOL     OW10147   9.922   8.159   3.436
36103SOL    HW110148   9.925   8.212   3.516
36103SOL    HW210149   9.864   8.086   3.458
36104SOL     OW10150   3.229   7.265  14.312
36104SOL    HW110151   3.302   7.206  14.329
36104SOL    HW210152   3.163   7.210  14.269
36105SOL     OW10153  10.217   6.817   6.445
36105SOL    HW110154  10.273   6.824   6.368
36105SOL    HW210155  10.144   6.876   6.426
36106SOL     OW10156  12.061   3.986   2.618
36106SOL    HW110157  12.112   4.051   2.571
36106SOL    HW210158  12.105   3.903   2.600
36107SOL     OW10159   8.601   5.098   6.357
36107SOL    HW110160   8.620   5.172   6.300
36107SOL    HW210161   8.682   5.047   6.360
36108SOL     OW10162   6.976   9.499  11.684
36108SOL    HW110163   6.966   9.421  11.739
36108SOL    HW210164   7.070   9.505  11.667
36109SOL     OW10165   4.057   6.397  13.189
36109SOL    HW110166   3.984   6.348  13.151
36109SOL    HW210167   4.114   6.415  13.115
36110SOL     OW10168   1.654   7.563  11.479
36110SOL    HW110169   1.602   7.491  11.443
36110SOL    HW210170   1.617   7.641  11.438
36111SOL     OW10171  10.468   8.975   0.811
36111SOL    HW110172  10.557   9.000   0.834
36111SOL    HW210173  10.423   8.965   0.895
36112SOL     OW10174  12.361   5.848  14.291
36112SOL    HW110175  12.301   5.890  14.230
36112SOL    HW210176  12.439   5.905  14.293
36113SOL     OW10177   4.917  11.956   3.650
36113SOL    HW110178   4.877  12.043   3.644
36113SOL    HW210179   4.862  11.909   3.713
36114SOL     OW10180   0.353   4.718   9.741
36114SOL    HW110181   0.283   4.767   9.699
36114SOL    HW210182   0.311   4.638   9.773
36115SOL     OW10183   5.130  14.102   5.560
36115SOL    HW110184   5.151  14.036   5.494
36115SOL    HW210185   5.141  14.058   5.644
36116SOL     OW10186   0.706   0.075   3.143
36116SOL    HW110187   0.709  14.862   3.127
36116SOL    HW210188   0.747   0.113   3.065
36117SOL     OW10189   6.302  14.388   7.738
36117SOL    HW110190   6.334  14.389   7.648
36117SOL    HW210191   6.249  14.467   7.746
36118SOL     OW10192  11.821   8.896   9.916
36118SOL    HW110193  11.800   8.987   9.939
36118SOL    HW210194  11.756   8.844   9.962
36119SOL     OW10195   8.179   7.307  14.847
36119SOL    HW110196   8.211   7.397  14.855
36119SOL    HW210197   8.106   7.313  14.786
36120SOL     OW10198   9.848  10.372  11.695
36120SOL    HW110199   9.868  10.310  11.625
36120SOL    HW210200   9.873  10.327  11.776
36121SOL     OW10201   5.500   2.191   4.594
36121SOL    HW110202   5.447   2.219   4.668
36121SOL    HW210203   5.509   2.096   4.606
36122SOL     OW10204   1.694  13.350   9.945
36122SOL    HW110205   1.678  13.439   9.915
36122SOL    HW210206   1.613  13.303   9.924
36123SOL     OW10207  13.981   1.910   1.602
36123SOL    HW110208  14.071   1.900   1.634
36123SOL    HW210209  13.961   1.826   1.561
36124SOL     OW10210   9.311   0.942   8.776
36124SOL    HW110211   9.352   0.862   8.745
36124SOL    HW210212   9.373   1.011   8.753
36125SOL     OW10213   2.722  12.763  14.308
36125SOL    HW110214   2.785  12.803  14.250
36125SOL    HW210215   2.731  12.811  14.391
36126SOL     OW10216   5.454  13.791   6.387
36126SOL    HW110217   5.385  13.855   6.405
36126SOL    HW210218   5.450  13.777   6.293
36127SOL     OW10219   8.826  13.715   7.936
36127SOL    HW110220   8.743  13.743   7.895
36127SOL    HW210221   8.809  13.626   7.964
36128SOL     OW10222   7.412  10.553   0.773
36128SOL    HW110223   7.347  10.495   0.735
36128SOL    HW210224   7.416  10.528   0.865
36129SOL     OW10225   1.643   0.883   5.897
36129SOL    HW110226   1.666   0.836   5.817
36129SOL    HW210227   1.628   0.973   5.870
36130SOL     OW10228   1.626  11.181   4.007
36130SOL    HW110229   1.654  11.121   3.938
36130SOL    HW210230   1.703  11.192   4.063
36131SOL     OW10231  10.578   6.302   4.804
36131SOL    HW110232  10.621   6.357   4.739
36131SOL    HW210233  10.504   6.263   4.758
36132SOL     OW10234  13.765   7.113  13.286
36132SOL    HW110235  13.675   7.080  13.287
36132SOL    HW210236  13.816   7.045  13.330
36133SOL     OW10237   7.074   6.900  12.538
36133SOL    HW110238   7.058   6.863  12.624
36133SOL    HW210239   6.995   6.951  12.519
36134SOL     OW10240   8.164  14.628  12.664
36134SOL    HW110241   8.169  14.722  12.680
36134SOL    HW210242   8.127  14.592  12.745
36135SOL     OW10243   2.845   5.687  12.152
36135SOL    HW110244   2.886   5.754  12.097
36135SOL    HW210245   2.754   5.685  12.123
36136SOL     OW10246   4.315  14.583  12.673
36136SOL    HW110247   4.375  14.657  12.668
36136SOL    HW210248   4.245  14.604  12.612
36137SOL     OW10249   8.960  13.266  13.532
36137SOL    HW110250   8.876  13.308  13.550
36137SOL    HW210251   8.938  13.174  13.518
36138SOL     OW10252  11.551   2.537   0.024
36138SOL    HW110253  11.456   2.549   0.027
36138SOL    HW210254  11.572   2.491   0.105
36139SOL     OW10255   6.897   1.281   5.016
36139SOL    HW110256   6.985   1.283   4.979
36139SOL    HW210257   6.845   1.233   4.952
36140SOL     OW10258   8.347  10.377   1.240
36140SOL    HW110259   8.340  10.472   1.239
36140SOL    HW210260   8.256  10.346   1.250
36141SOL     OW10261  14.186   7.688   7.394
36141SOL    HW110262  14.156   7.598   7.382
36141SOL    HW210263  14.108   7.742   7.381
36142SOL     OW10264   3.840   3.227   5.772
36142SOL    HW110265   3.824   3.216   5.866
36142SOL    HW210266   3.935   3.228   5.763
36143SOL     OW10267   9.461   3.840  11.875
36143SOL    HW110268   9.400   3.779  11.916
36143SOL    HW210269   9.515   3.872  11.947
36144SOL     OW10270   8.142   2.496   8.986
36144SOL    HW110271   8.115   2.515   8.896
36144SOL    HW210272   8.145   2.581   9.029
36145SOL     OW10273   6.686   3.938   7.488
36145SOL    HW110274   6.706   3.872   7.555
36145SOL    HW210275   6.769   3.952   7.442
36146SOL     OW10276   1.658  11.006  12.729
36146SOL    HW110277   1.751  11.021  12.744
36146SOL    HW210278   1.619  11.009  12.816
36147SOL     OW10279   7.299   3.723   4.014
36147SOL    HW110280   7.342   3.743   3.930
36147SOL    HW210281   7.354   3.655   4.053
36148SOL     OW10282  11.914  14.073   5.423
36148SOL    HW110283  11.884  14.164   5.421
36148SOL    HW210284  11.892  14.044   5.512
36149SOL     OW10285   1.121   8.400  11.375
36149SOL    HW110286   1.140   8.354  11.456
36149SOL    HW210287   1.090   8.486  11.403
36150SOL     OW10288  11.715   7.693   2.248
36150SOL    HW110289  11.670   7.706   2.331
36150SOL    HW210290  11.691   7.604   2.222
36151SOL     OW10291  11.671   6.898   1.948
36151SOL    HW110292  11.584   6.887   1.986
36151SOL    HW210293  11.662   6.973   1.889
36152SOL     OW10294   6.456   1.020   7.237
36152SOL    HW110295   6.392   1.023   7.166
36152SOL    HW210296   6.474   1.111   7.257
36153SOL     OW10297   8.682   5.017   7.535
36153SOL    HW110298   8.633   4.968   7.470
36153SOL    HW210299   8.659   5.109   7.518
36154SOL     OW10300   9.234   3.543  11.100
36154SOL    HW110301   9.263   3.622  11.054
36154SOL    HW210302   9.284   3.472  11.060
36155SOL     OW10303   3.310   5.648  12.166
36155SOL    HW110304   3.298   5.555  12.181
36155SOL    HW210305   3.284   5.690  12.248
36156SOL     OW10306   0.701  10.703   2.272
36156SOL    HW110307   0.676  10.716   2.363
36156SOL    HW210308   0.778  10.759   2.260
36157SOL     OW10309  12.003   4.795  10.412
36157SOL    HW110310  11.929   4.801  10.471
36157SOL    HW210311  12.013   4.701  10.395
36158SOL     OW10312   7.942   5.008   5.215
36158SOL    HW110313   7.862   5.057   5.200
36158SOL    HW210314   7.915   4.936   5.272
36159SOL     OW10315   6.285  12.170  11.960
36159SOL    HW110316   6.365  12.132  11.924
36159SOL    HW210317   6.249  12.103  12.017
36160SOL     OW10318   7.263   5.676   6.712
36160SOL    HW110319   7.275   5.665   6.807
36160SOL    HW210320   7.334   5.624   6.673
36161SOL     OW10321   6.472   5.384  13.338
36161SOL    HW110322   6.465   5.479  13.339
36161SOL    HW210323   6.457   5.360  13.246
36162SOL     OW10324   6.061  10.977  10.669
36162SOL    HW110325   5.992  11.019  10.721
36162SOL    HW210326   6.043  11.004  10.579
36163SOL     OW10327   0.638  13.075   6.044
36163SOL    HW110328   0.642  13.032   5.958
36163SOL    HW210329   0.598  13.160   6.026
36164SOL     OW10330   8.819   6.134  10.976
36164SOL    HW110331   8.757   6.198  10.942
36164SOL    HW210332   8.792   6.051  10.936
36165SOL     OW10333  11.541   3.350  14.449
36165SOL    HW110334  11.570   3.303  14.371
36165SOL    HW210335  11.511   3.435  14.416
36166SOL     OW10336   4.463   9.969  14.350
36166SOL    HW110337   4.396  10.025  14.311
36166SOL    HW210338   4.491   9.912  14.279
36167SOL     OW10339  10.004   0.235   6.813
36167SOL    HW110340  10.038   0.269   6.731
36167SOL    HW210341   9.909   0.236   6.803
36168SOL     OW10342  11.826   3.854   2.315
36168SOL    HW110343  11.774   3.876   2.391
36168SOL    HW210344  11.762   3.826   2.249
36169SOL     OW10345   1.770  14.484   7.200
36169SOL    HW110346   1.791  14.413   7.261
36169SOL    HW210347   1.805  14.563   7.243
36170SOL     OW10348  11.845   0.828  10.397
36170SOL    HW110349  11.815   0.919  10.407
36170SOL    HW210350  11.827   0.788  10.482
36171SOL     OW10351  14.624  11.617  12.257
36171SOL    HW110352  14.579  11.600  12.174
36171SOL    HW210353  14.562  11.670  12.308
36172SOL     OW10354   1.475   0.280   6.003
36172SOL    HW110355   1.498   0.247   5.917
36172SOL    HW210356   1.390   0.323   5.991
36173SOL     OW10357  13.966   7.954  13.413
36173SOL    HW110358  14.015   7.971  13.332
36173SOL    HW210359  14.034   7.944  13.480
36174SOL     OW10360  13.435   9.144  12.335
36174SOL    HW110361  13.521   9.166  12.369
36174SOL    HW210362  13.393   9.093  12.404
36175SOL     OW10363  10.655   1.453   0.103
36175SOL    HW110364  10.661   1.533   0.155
36175SOL    HW210365  10.601   1.477   0.028
36176SOL     OW10366   5.196  11.593  13.510
36176SOL    HW110367   5.101  11.600  13.505
36176SOL    HW210368   5.228  11.673  13.469
36177SOL     OW10369   3.695   6.859   5.287
36177SOL    HW110370   3.655   6.944   5.307
36177SOL    HW210371   3.643   6.825   5.214
36178SOL     OW10372   9.646   9.187   7.207
36178SOL    HW110373   9.641   9.149   7.294
36178SOL    HW210374   9.637   9.281   7.221
36179SOL     OW10375   7.567   1.221   1.145
36179SOL    HW110376   7.628   1.285   1.109
36179SOL    HW210377   7.560   1.244   1.237
36180SOL     OW10378   0.751   7.533   0.860
36180SOL    HW110379   0.810   7.459   0.844
36180SOL    HW210380   0.777   7.599   0.796
36181SOL     OW10381   5.469   9.187   9.028
36181SOL    HW110382   5.421   9.130   9.088
36181SOL    HW210383   5.428   9.273   9.038
36182SOL     OW10384   2.451   0.675   5.881
36182SOL    HW110385   2.437   0.612   5.811
36182SOL    HW210386   2.405   0.638   5.956
36183SOL     OW10387  13.699   3.656   9.480
36183SOL    HW110388  13.775   3.692   9.527
36183SOL    HW210389  13.661   3.594   9.541
36184SOL     OW10390   5.000  12.596   0.251
36184SOL    HW110391   4.988  12.517   0.304
36184SOL    HW210392   5.033  12.564   0.167
36185SOL     OW10393   6.517   0.802   9.694
36185SOL    HW110394   6.478   0.857   9.761
36185SOL    HW210395   6.607   0.788   9.723
36186SOL     OW10396  10.599  11.480  14.505
36186SOL    HW110397  10.541  11.531  14.561
36186SOL    HW210398  10.554  11.474  14.421
36187SOL     OW10399  13.847   6.701  13.216
36187SOL    HW110400  13.842   6.782  13.266
36187SOL    HW210401  13.939   6.693  13.191
36188SOL     OW10402  12.819   7.144   3.424
36188SOL    HW110403  12.786   7.080   3.488
36188SOL    HW210404  12.882   7.196   3.473
36189SOL     OW10405   7.809   9.868  12.170
36189SOL    HW110406   7.718   9.871  12.201
36189SOL    HW210407   7.812   9.794  12.110
36190SOL     OW10408   8.878   5.737   7.598
36190SOL    HW110409   8.913   5.773   7.680
36190SOL    HW210410   8.943   5.760   7.532
36191SOL     OW10411  13.838   3.620   5.353
36191SOL    HW110412  13.780   3.644   5.425
36191SOL    HW210413  13.808   3.533   5.326
36192SOL     OW10414   1.614   5.841   7.618
36192SOL    HW110415   1.548   5.793   7.668
36192SOL    HW210416   1.588   5.933   7.624
36193SOL     OW10417  14.580   8.149   6.244
36193SOL    HW110418  14.500   8.148   6.298
36193SOL    HW210419  14.599   8.056   6.230
36194SOL     OW10420   5.028  14.413   5.908
36194SOL    HW110421   5.088  14.390   5.979
36194SOL    HW210422   4.970  14.479   5.946
36195SOL     OW10423   0.974  13.408   9.350
36195SOL    HW110424   0.922  13.449   9.419
36195SOL    HW210425   0.967  13.314   9.367
36196SOL     OW10426   8.386   7.964   6.525
36196SOL    HW110427   8.409   8.018   6.600
36196SOL    HW210428   8.302   8.000   6.494
36197SOL     OW10429   4.213  13.679   1.042
36197SOL    HW110430   4.167  13.750   1.086
36197SOL    HW210431   4.231  13.615   1.112
36198SOL     OW10432  12.368  10.950  13.817
36198SOL    HW110433  12.304  10.886  13.847
36198SOL    HW210434  12.449  10.926  13.860
36199SOL     OW10435  11.853   5.305  12.629
36199SOL    HW110436  11.842   5.210  12.621
36199SOL    HW210437  11.883   5.334  12.543
36200SOL     OW10438  12.984   1.045   6.621
36200SOL    HW110439  13.008   1.037   6.529
36200SOL    HW210440  13.049   0.993   6.668
36201SOL     OW10441   5.875   2.527   0.420
36201SOL    HW110442   5.884   2.592   0.351
36201SOL    HW210443   5.814   2.566   0.483
36202SOL     OW10444   8.786  12.449  10.207
36202SOL    HW110445   8.837  12.394  10.147
36202SOL    HW210446   8.710  12.396  10.230
36203SOL     OW10447   0.211  10.925   2.128
36203SOL    HW110448   0.147  10.977   2.080
36203SOL    HW210449   0.267  10.887   2.061
36204SOL     OW10450   1.087  12.021  10.486
36204SOL    HW110451   1.098  12.066  10.402
36204SOL    HW210452   0.997  11.989  10.485
36205SOL     OW10453  13.581   5.828   5.538
36205SOL    HW110454  13.592   5.904   5.595
36205SOL    HW210455  13.553   5.758   5.597
36206SOL     OW10456   6.067  12.373   9.577
36206SOL    HW110457   6.119  12.454   9.574
36206SOL    HW210458   6.019  12.372   9.494
36207SOL     OW10459   4.714   8.005   8.700
36207SOL    HW110460   4.653   8.005   8.626
36207SOL    HW210461   4.729   7.912   8.719
36208SOL     OW10462   0.231   7.443   3.915
36208SOL    HW110463   0.281   7.384   3.859
36208SOL    HW210464   0.236   7.404   4.002
36209SOL     OW10465   4.103   0.436   9.641
36209SOL    HW110466   4.190   0.397   9.638
36209SOL    HW210467   4.043   0.361   9.634
36210SOL     OW10468   9.472  14.477  11.746
36210SOL    HW110469   9.559  14.470  11.785
36210SOL    HW210470   9.434  14.555  11.786
36211SOL     OW10471  10.716   1.457   4.232
36211SOL    HW110472  10.766   1.487   4.156
36211SOL    HW210473  10.625   1.471   4.207
36212SOL     OW10474  12.757  11.140  14.307
36212SOL    HW110475  12.772  11.233  14.288
36212SOL    HW210476  12.780  11.094  14.227
36213SOL     OW10477   3.221   2.748  10.135
36213SOL    HW110478   3.151   2.774  10.076
36213SOL    HW210479   3.212   2.653  10.142
36214SOL     OW10480  13.699   1.718   6.876
36214SOL    HW110481  13.659   1.700   6.961
36214SOL    HW210482  13.774   1.774   6.896
36215SOL     OW10483  13.213   3.866   0.913
36215SOL    HW110484  13.200   3.951   0.954
36215SOL    HW210485  13.302   3.841   0.937
36216SOL     OW10486   9.467   7.197  13.974
36216SOL    HW110487   9.451   7.264  14.040
36216SOL    HW210488   9.550   7.157  14.000
36217SOL     OW10489   3.848   1.668   1.100
36217SOL    HW110490   3.791   1.603   1.058
36217SOL    HW210491   3.915   1.617   1.144
36218SOL     OW10492   4.406  11.269   9.541
36218SOL    HW110493   4.365  11.280   9.627
36218SOL    HW210494   4.336  11.235   9.486
36219SOL     OW10495   7.270   1.285   9.854
36219SOL    HW110496   7.232   1.282   9.767
36219SOL    HW210497   7.273   1.194   9.883
36220SOL     OW10498   1.490   5.078   5.993
36220SOL    HW110499   1.478   5.004   6.052
36220SOL    HW210500   1.543   5.140   6.042
36221SOL     OW10501   9.534  11.059   3.090
36221SOL    HW110502   9.521  11.137   3.036
36221SOL    HW210503   9.446  11.023   3.101
36222SOL     OW10504   5.692  11.474   7.412
36222SOL    HW110505   5.623  11.408   7.415
36222SOL    HW210506   5.722  11.474   7.321
36223SOL     OW10507  12.762  11.534  12.481
36223SOL    HW110508  12.758  11.593  12.406
36223SOL    HW210509  12.792  11.451  12.445
36224SOL     OW10510   1.833   7.816  14.194
36224SOL    HW110511   1.902   7.866  14.149
36224SOL    HW210512   1.751   7.848  14.155
36225SOL     OW10513   9.509  14.707   9.067
36225SOL    HW110514   9.453  14.724   9.143
36225SOL    HW210515   9.580  14.772   9.074
36226SOL     OW10516   3.651  14.075   0.630
36226SOL    HW110517   3.712  14.135   0.673
36226SOL    HW210518   3.565  14.115   0.644
36227SOL     OW10519   0.401   8.945   9.456
36227SOL    HW110520   0.359   8.860   9.471
36227SOL    HW210521   0.442   8.936   9.370
36228SOL     OW10522   8.871  14.607  13.229
36228SOL    HW110523   8.907  14.618  13.317
36228SOL    HW210524   8.796  14.549  13.240
36229SOL     OW10525  14.276   6.000   1.155
36229SOL    HW110526  14.234   5.954   1.083
36229SOL    HW210527  14.341   5.937   1.189
36230SOL     OW10528   6.957   4.549  11.968
36230SOL    HW110529   6.873   4.503  11.960
36230SOL    HW210530   7.003   4.504  12.039
36231SOL     OW10531  14.666   9.279   3.038
36231SOL    HW110532  14.605   9.308   2.971
36231SOL    HW210533  14.693   9.360   3.082
36232SOL     OW10534  10.674  12.675   8.841
36232SOL    HW110535  10.752  12.624   8.818
36232SOL    HW210536  10.625  12.681   8.760
36233SOL     OW10537   6.126  12.193  13.200
36233SOL    HW110538   6.046  12.204  13.148
36233SOL    HW210539   6.109  12.117  13.255
36234SOL     OW10540  13.558   5.347   5.130
36234SOL    HW110541  13.558   5.326   5.223
36234SOL    HW210542  13.551   5.262   5.086
36235SOL     OW10543   6.963  13.854   7.136
36235SOL    HW110544   7.019  13.886   7.206
36235SOL    HW210545   7.021  13.848   7.060
36236SOL     OW10546   5.399   6.478   0.083
36236SOL    HW110547   5.409   6.568   0.052
36236SOL    HW210548   5.315   6.449   0.048
36237SOL     OW10549   1.759   7.835  11.137
36237SOL    HW110550   1.719   7.802  11.057
36237SOL    HW210551   1.840   7.878  11.109
36238SOL     OW10552   8.986   9.066   4.258
36238SOL    HW110553   9.067   9.087   4.304
36238SOL    HW210554   8.918   9.072   4.325
36239SOL     OW10555   8.493  11.336  10.861
36239SOL    HW110556   8.520  11.427  10.873
36239SOL    HW210557   8.561  11.298  10.805
36240SOL     OW10558   5.745   7.533   3.901
36240SOL    HW110559   5.837   7.506   3.908
36240SOL    HW210560   5.749   7.628   3.890
36241SOL     OW10561   4.251  12.456  11.904
36241SOL    HW110562   4.264  12.368  11.871
36241SOL    HW210563   4.212  12.444  11.991
36242SOL     OW10564  11.465  14.489  14.502
36242SOL    HW110565  11.527  14.474  14.573
36242SOL    HW210566  11.514  14.538  14.436
36243SOL     OW10567  12.174   9.434   0.419
36243SOL    HW110568  12.183   9.444   0.514
36243SOL    HW210569  12.242   9.372   0.394
36244SOL     OW10570   1.341   2.904   1.682
36244SOL    HW110571   1.262   2.864   1.645
36244SOL    HW210572   1.407   2.835   1.678
36245SOL     OW10573   0.340   9.294  14.102
36245SOL    HW110574   0.273   9.245  14.054
36245SOL    HW210575   0.360   9.369  14.047
36246SOL     OW10576  10.556  13.229  13.959
36246SOL    HW110577  10.513  13.292  14.018
36246SOL    HW210578  10.649  13.238  13.979
36247SOL     OW10579   0.593   9.043   0.832
36247SOL    HW110580   0.525   9.110   0.840
36247SOL    HW210581   0.546   8.960   0.832
36248SOL     OW10582   2.416  11.248  13.605
36248SOL    HW110583   2.481  11.317  13.594
36248SOL    HW210584   2.464  11.174  13.641
36249SOL     OW10585   4.901   1.755  12.453
36249SOL    HW110586   4.953   1.803  12.518
36249SOL    HW210587   4.813   1.753  12.489
36250SOL     OW10588  14.569   6.245   9.356
36250SOL    HW110589  14.559   6.242   9.451
36250SOL    HW210590  14.483   6.272   9.324
36251SOL     OW10591   1.248   4.539   2.493
36251SOL    HW110592   1.213   4.606   2.434
36251SOL    HW210593   1.341   4.533   2.471
36252SOL     OW10594  10.502   0.159  14.307
36252SOL    HW110595  10.438   0.175  14.377
36252SOL    HW210596  10.570   0.224  14.322
36253SOL     OW10597   7.224   2.665   9.852
36253SOL    HW110598   7.172   2.691   9.775
36253SOL    HW210599   7.180   2.707   9.926
36254SOL     OW10600   1.638   4.313   1.104
36254SOL    HW110601   1.586   4.324   1.025
36254SOL    HW210602   1.575   4.288   1.172
36255SOL     OW10603   6.560  11.553   5.514
36255SOL    HW110604   6.640  11.601   5.535
36255SOL    HW210605   6.513  11.609   5.453
36256SOL     OW10606   2.426   7.087  12.208
36256SOL    HW110607   2.411   7.085  12.113
36256SOL    HW210608   2.344   7.119  12.245
36257SOL     OW10609   5.752   7.506   3.149
36257SOL    HW110610   5.842   7.536   3.165
36257SOL    HW210611   5.736   7.443   3.219
36258SOL     OW10612   9.317   6.542   9.931
36258SOL    HW110613   9.398   6.592   9.924
36258SOL    HW210614   9.269   6.584  10.002
36259SOL     OW10615   1.789   2.460  12.274
36259SOL    HW110616   1.851   2.462  12.201
36259SOL    HW210617   1.770   2.552  12.291
36260SOL     OW10618   8.214   6.791   8.089
36260SOL    HW110619   8.219   6.821   7.998
36260SOL    HW210620   8.132   6.827   8.122
36261SOL     OW10621   4.194   2.045  14.698
36261SOL    HW110622   4.168   2.129  14.662
36261SOL    HW210623   4.230   2.065  14.784
36262SOL     OW10624   7.168   4.886  13.226
36262SOL    HW110625   7.112   4.849  13.158
36262SOL    HW210626   7.150   4.980  13.224
36263SOL     OW10627  12.089  12.573   0.453
36263SOL    HW110628  12.030  12.591   0.380
36263SOL    HW210629  12.096  12.478   0.456
36264SOL     OW10630   4.430   1.329   6.055
36264SOL    HW110631   4.496   1.396   6.039
36264SOL    HW210632   4.357   1.376   6.096
36265SOL     OW10633   2.274  11.349   8.172
36265SOL    HW110634   2.332  11.359   8.097
36265SOL    HW210635   2.328  11.304   8.238
36266SOL     OW10636  10.560  14.294   6.925
36266SOL    HW110637  10.508  14.327   6.851
36266SOL    HW210638  10.551  14.362   6.992
36267SOL     OW10639  11.349  13.718   0.168
36267SOL    HW110640  11.320  13.710   0.077
36267SOL    HW210641  11.394  13.635   0.186
36268SOL     OW10642   6.363  10.973   5.896
36268SOL    HW110643   6.354  11.062   5.931
36268SOL    HW210644   6.326  10.917   5.965
36269SOL     OW10645  11.471  13.934  13.102
36269SOL    HW110646  11.422  13.888  13.034
36269SOL    HW210647  11.480  13.870  13.173
36270SOL     OW10648   5.459  14.516   8.597
36270SOL    HW110649   5.498  14.602   8.617
36270SOL    HW210650   5.367  14.534   8.582
36271SOL     OW10651   9.941  13.858   4.365
36271SOL    HW110652   9.980  13.943   4.384
36271SOL    HW210653   9.958  13.805   4.443
36272SOL     OW10654   5.985  11.467   1.136
36272SOL    HW110655   5.890  11.464   1.142
36272SOL    HW210656   6.015  11.484   1.226
36273SOL     OW10657  14.501  11.837   8.554
36273SOL    HW110658  14.421  11.865   8.509
36273SOL    HW210659  14.472  11.813   8.642
36274SOL     OW10660   0.577   4.664   5.082
36274SOL    HW110661   0.547   4.618   5.004
36274SOL    HW210662   0.497   4.702   5.119
36275SOL     OW10663   7.601   8.177   2.559
36275SOL    HW110664   7.684   8.164   2.512
36275SOL    HW210665   7.628   8.201   2.647
36276SOL     OW10666   3.358  11.651  13.216
36276SOL    HW110667   3.367  11.745  13.202
36276SOL    HW210668   3.447  11.622  13.235
36277SOL     OW10669  13.384   0.892  13.350
36277SOL    HW110670  13.367   0.820  13.290
36277SOL    HW210671  13.325   0.962  13.322
36278SOL     OW10672  10.540   1.782   8.578
36278SOL    HW110673  10.534   1.864   8.627
36278SOL    HW210674  10.606   1.731   8.626
36279SOL     OW10675   6.425   5.378   6.499
36279SOL    HW110676   6.357   5.442   6.519
36279SOL    HW210677   6.504   5.430   6.484
36280SOL     OW10678   1.523   7.715   3.435
36280SOL    HW110679   1.560   7.723   3.523
36280SOL    HW210680   1.428   7.722   3.447
36281SOL     OW10681   4.357  12.581  10.413
36281SOL    HW110682   4.429  12.551  10.468
36281SOL    HW210683   4.310  12.502  10.389
36282SOL     OW10684  12.776   5.328  12.186
36282SOL    HW110685  12.708   5.262  12.199
36282SOL    HW210686  12.857   5.277  12.175
36283SOL     OW10687  10.071   9.591   8.371
36283SOL    HW110688  10.062   9.668   8.427
36283SOL    HW210689  10.000   9.600   8.307
36284SOL     OW10690   7.699  14.596   8.339
36284SOL    HW110691   7.634  14.650   8.385
36284SOL    HW210692   7.658  14.579   8.254
36285SOL     OW10693   0.695   3.905   2.832
36285SOL    HW110694   0.779   3.865   2.807
36285SOL    HW210695   0.681   3.973   2.766
36286SOL     OW10696  11.586   5.730   8.199
36286SOL    HW110697  11.553   5.811   8.238
36286SOL    HW210698  11.642   5.692   8.267
36287SOL     OW10699   0.047   9.876  12.270
36287SOL    HW110700   0.031   9.782  12.259
36287SOL    HW210701   0.113   9.897  12.203
36288SOL     OW10702  11.995  10.457   6.825
36288SOL    HW110703  12.042  10.500   6.897
36288SOL    HW210704  12.009  10.363   6.841
36289SOL     OW10705   0.271   8.429  13.863
36289SOL    HW110706   0.248   8.357  13.921
36289SOL    HW210707   0.340   8.394  13.807
36290SOL     OW10708  11.970  12.409  11.786
36290SOL    HW110709  11.938  12.319  11.782
36290SOL    HW210710  12.037  12.414  11.719
36291SOL     OW10711  12.127   0.151   2.714
36291SOL    HW110712  12.145   0.082   2.650
36291SOL    HW210713  12.119   0.105   2.798
36292SOL     OW10714   3.026   6.471   5.932
36292SOL    HW110715   2.976   6.486   5.851
36292SOL    HW210716   3.114   6.449   5.901
36293SOL     OW10717  10.777  10.809   3.027
36293SOL    HW110718  10.697  10.846   2.989
36293SOL    HW210719  10.830  10.784   2.951
36294SOL     OW10720  12.869   2.957   9.025
36294SOL    HW110721  12.921   2.942   8.946
36294SOL    HW210722  12.912   3.031   9.068
36295SOL     OW10723  13.682  14.371   1.072
36295SOL    HW110724  13.712  14.431   1.140
36295SOL    HW210725  13.757  14.361   1.014
36296SOL     OW10726  13.698   4.009   0.490
36296SOL    HW110727  13.619   4.027   0.439
36296SOL    HW210728  13.724   3.920   0.463
36297SOL     OW10729   2.894   3.102   4.505
36297SOL    HW110730   2.977   3.053   4.505
36297SOL    HW210731   2.880   3.124   4.412
36298SOL     OW10732   9.157   3.681  12.511
36298SOL    HW110733   9.141   3.630  12.432
36298SOL    HW210734   9.199   3.620  12.571
36299SOL     OW10735  11.797   5.268  12.211
36299SOL    HW110736  11.891   5.271  12.198
36299SOL    HW210737  11.770   5.183  12.174
36300SOL     OW10738  12.880   8.690   8.363
36300SOL    HW110739  12.871   8.708   8.457
36300SOL    HW210740  12.822   8.615   8.348
36301SOL     OW10741   6.979   1.623   3.634
36301SOL    HW110742   6.907   1.573   3.672
36301SOL    HW210743   6.983   1.593   3.543
36302SOL     OW10744   9.476   3.798  14.343
36302SOL    HW110745   9.385   3.797  14.373
36302SOL    HW210746   9.518   3.866  14.396
36303SOL     OW10747   6.657   6.209   7.725
36303SOL    HW110748   6.721   6.250   7.667
36303SOL    HW210749   6.699   6.211   7.811
36304SOL     OW10750   2.549   9.607   6.905
36304SOL    HW110751   2.510   9.589   6.819
36304SOL    HW210752   2.614   9.676   6.888
36305SOL     OW10753  14.151   2.350   0.176
36305SOL    HW110754  14.116   2.292   0.108
36305SOL    HW210755  14.081   2.414   0.192
36306SOL     OW10756   2.121   4.898   7.041
36306SOL    HW110757   2.114   4.805   7.018
36306SOL    HW210758   2.201   4.903   7.095
36307SOL     OW10759   4.816   1.732   2.860
36307SOL    HW110760   4.790   1.692   2.943
36307SOL    HW210761   4.773   1.818   2.861
36308SOL     OW10762   9.765  12.292   5.388
36308SOL    HW110763   9.682  12.250   5.369
36308SOL    HW210764   9.817  12.223   5.430
36309SOL     OW10765   5.523   0.435   9.195
36309SOL    HW110766   5.595   0.486   9.233
36309SOL    HW210767   5.522   0.460   9.103
36310SOL     OW10768  14.587   0.612   0.992
36310SOL    HW110769  14.597   0.637   0.900
36310SOL    HW210770  14.515   0.667   1.024
36311SOL     OW10771   6.056   5.646   8.790
36311SOL    HW110772   6.052   5.635   8.884
36311SOL    HW210773   5.985   5.707   8.770
36312SOL     OW10774  12.480   7.554  11.124
36312SOL    HW110775  12.438   7.490  11.067
36312SOL    HW210776  12.554   7.586  11.073
36313SOL     OW10777  11.451  10.684   3.205
36313SOL    HW110778  11.457  10.697   3.300
36313SOL    HW210779  11.534  10.642   3.182
36314SOL     OW10780  11.583  11.013   1.805
36314SOL    HW110781  11.508  10.973   1.850
36314SOL    HW210782  11.549  11.096   1.772
36315SOL     OW10783   2.781   8.931   1.582
36315SOL    HW110784   2.817   8.873   1.649
36315SOL    HW210785   2.816   8.896   1.500
36316SOL     OW10786   6.867   1.215   5.324
36316SOL    HW110787   6.871   1.237   5.230
36316SOL    HW210788   6.959   1.214   5.352
36317SOL     OW10789  10.725  10.908  11.527
36317SOL    HW110790  10.813  10.914  11.491
36317SOL    HW210791  10.719  10.982  11.588
36318SOL     OW10792   5.212   1.379   8.477
36318SOL    HW110793   5.201   1.371   8.382
36318SOL    HW210794   5.306   1.389   8.489
36319SOL     OW10795   6.838   7.318   7.867
36319SOL    HW110796   6.777   7.259   7.823
36319SOL    HW210797   6.922   7.304   7.822
36320SOL     OW10798   1.625   5.912  11.075
36320SOL    HW110799   1.605   5.951  10.990
36320SOL    HW210800   1.595   5.977  11.139
36321SOL     OW10801   9.515   9.848   9.481
36321SOL    HW110802   9.580   9.843   9.411
36321SOL    HW210803   9.458   9.920   9.454
36322SOL     OW10804  10.612  12.288  11.360
36322SOL    HW110805  10.707  12.284  11.348
36322SOL    HW210806  10.600  12.298  11.455
36323SOL     OW10807   5.317   3.604   9.039
36323SOL    HW110808   5.390   3.618   8.980
36323SOL    HW210809   5.248   3.661   9.006
36324SOL     OW10810   8.998  10.628   8.440
36324SOL    HW110811   9.012  10.671   8.524
36324SOL    HW210812   9.029  10.690   8.375
36325SOL     OW10813   4.862  11.808   7.901
36325SOL    HW110814   4.791  11.840   7.956
36325SOL    HW210815   4.936  11.799   7.960
36326SOL     OW10816   6.024   5.320   9.243
36326SOL    HW110817   6.079   5.244   9.222
36326SOL    HW210818   6.065   5.393   9.196
36327SOL     OW10819   1.585   2.027  11.193
36327SOL    HW110820   1.579   2.108  11.244
36327SOL    HW210821   1.678   2.005  11.193
36328SOL     OW10822   7.735  11.114   7.903
36328SOL    HW110823   7.771  11.043   7.955
36328SOL    HW210824   7.760  11.094   7.813
36329SOL     OW10825  14.775   7.414  10.854
36329SOL    HW110826  14.867   7.419  10.878
36329SOL    HW210827  14.728   7.452  10.928
36330SOL     OW10828  10.635  11.561   5.339
36330SOL    HW110829  10.596  11.636   5.293
36330SOL    HW210830  10.687  11.517   5.272
36331SOL     OW10831  11.689   7.963  13.810
36331SOL    HW110832  11.625   7.951  13.740
36331SOL    HW210833  11.665   8.047  13.850
36332SOL     OW10834   8.921   0.246   1.608
36332SOL    HW110835   8.853   0.291   1.657
36332SOL    HW210836   8.874   0.200   1.539
36333SOL     OW10837   2.613  11.147   5.249
36333SOL    HW110838   2.675  11.148   5.176
36333SOL    HW210839   2.666  11.121   5.325
36334SOL     OW10840   2.603   2.758   0.183
36334SOL    HW110841   2.585   2.747   0.089
36334SOL    HW210842   2.525   2.803   0.216
36335SOL     OW10843   6.551   9.513  10.821
36335SOL    HW110844   6.524   9.485  10.908
36335SOL    HW210845   6.532   9.607  10.819
36336SOL     OW10846   5.590   3.952  14.843
36336SOL    HW110847   5.536   3.915   0.031
36336SOL    HW210848   5.535   3.942  14.764
36337SOL     OW10849   9.903   9.889  12.955
36337SOL    HW110850   9.952   9.840  12.889
36337SOL    HW210851   9.901   9.979  12.922
36338SOL     OW10852   1.675   9.364   4.463
36338SOL    HW110853   1.674   9.270   4.445
36338SOL    HW210854   1.652   9.405   4.380
36339SOL     OW10855   3.944   1.529   4.489
36339SOL    HW110856   3.914   1.566   4.406
36339SOL    HW210857   3.900   1.582   4.556
36340SOL     OW10858   1.730   0.997   1.557
36340SOL    HW110859   1.782   0.958   1.628
36340SOL    HW210860   1.641   0.999   1.591
36341SOL     OW10861  12.680   8.947  10.694
36341SOL    HW110862  12.763   8.931  10.647
36341SOL    HW210863  12.614   8.904  10.639
36342SOL     OW10864   6.488  13.175  10.792
36342SOL    HW110865   6.581  13.186  10.773
36342SOL    HW210866   6.481  13.184  10.887
36343SOL     OW10867   8.982   7.436  11.648
36343SOL    HW110868   9.021   7.407  11.730
36343SOL    HW210869   9.038   7.399  11.580
36344SOL     OW10870   6.581   0.484  11.811
36344SOL    HW110871   6.539   0.475  11.725
36344SOL    HW210872   6.532   0.553  11.856
36345SOL     OW10873   1.995   6.744   1.799
36345SOL    HW110874   2.089   6.746   1.787
36345SOL    HW210875   1.981   6.688   1.876
36346SOL     OW10876  10.330  10.683   2.349
36346SOL    HW110877  10.362  10.640   2.428
36346SOL    HW210878  10.235  10.686   2.359
36347SOL     OW10879  14.254   5.336   7.587
36347SOL    HW110880  14.320   5.279   7.627
36347SOL    HW210881  14.173   5.284   7.590
36348SOL     OW10882   1.548   5.462   2.299
36348SOL    HW110883   1.614   5.531   2.296
36348SOL    HW210884   1.582   5.394   2.240
36349SOL     OW10885   0.585  10.598  13.266
36349SOL    HW110886   0.607  10.505  13.263
36349SOL    HW210887   0.667  10.642  13.241
36350SOL     OW10888   0.806  14.071   1.808
36350SOL    HW110889   0.832  14.147   1.755
36350SOL    HW210890   0.888  14.031   1.835
36351SOL     OW10891   3.904  11.877  11.660
36351SOL    HW110892   3.979  11.841  11.612
36351SOL    HW210893   3.884  11.811  11.726
36352SOL     OW10894   2.610  11.982   8.756
36352SOL    HW110895   2.532  12.023   8.794
36352SOL    HW210896   2.597  11.888   8.770
36353SOL     OW10897   5.206  14.571  11.795
36353SOL    HW110898   5.288  14.620  11.803
36353SOL    HW210899   5.173  14.594  11.709
36354SOL     OW10900  13.725   6.804   5.019
36354SOL    HW110901  13.632   6.785   5.034
36354SOL    HW210902  13.765   6.718   5.005
36355SOL     OW10903  12.603  13.209   1.215
36355SOL    HW110904  12.641  13.268   1.281
36355SOL    HW210905  12.658  13.131   1.218
36356SOL     OW10906   0.615   4.016   9.969
36356SOL    HW110907   0.658   4.007  10.054
36356SOL    HW210908   0.553   3.944   9.965
36357SOL     OW10909  13.367  14.607   8.943
36357SOL    HW110910  13.311  14.585   8.869
36357SOL    HW210911  13.419  14.682   8.912
36358SOL     OW10912  13.098  13.364   2.411
36358SOL    HW110913  13.078  13.420   2.486
36358SOL    HW210914  13.172  13.409   2.368
36359SOL     OW10915   6.902  12.059   9.423
36359SOL    HW110916   6.856  12.098   9.497
36359SOL    HW210917   6.930  11.973   9.455
36360SOL     OW10918   8.040  11.087   2.830
36360SOL    HW110919   8.109  11.147   2.801
36360SOL    HW210920   7.959  11.125   2.796
36361SOL     OW10921  11.554   0.645   8.033
36361SOL    HW110922  11.461   0.623   8.042
36361SOL    HW210923  11.586   0.589   7.963
36362SOL     OW10924  10.136   3.888  14.857
36362SOL    HW110925  10.105   3.855   0.059
36362SOL    HW210926  10.077   3.961  14.837
36363SOL     OW10927   4.726   3.197   1.127
36363SOL    HW110928   4.721   3.126   1.191
36363SOL    HW210929   4.787   3.260   1.167
36364SOL     OW10930  11.591   2.536   7.330
36364SOL    HW110931  11.635   2.610   7.288
36364SOL    HW210932  11.503   2.569   7.350
36365SOL     OW10933   6.615  10.062   0.941
36365SOL    HW110934   6.706  10.056   0.970
36365SOL    HW210935   6.565  10.022   1.012
36366SOL     OW10936  12.299   3.423   4.805
36366SOL    HW110937  12.279   3.479   4.880
36366SOL    HW210938  12.310   3.335   4.843
36367SOL     OW10939  11.300   7.055   2.245
36367SOL    HW110940  11.371   7.109   2.279
36367SOL    HW210941  11.249   7.115   2.190
36368SOL     OW10942  14.878  10.900  13.670
36368SOL    HW110943   0.080  10.930  13.706
36368SOL    HW210944  14.850  10.830  13.728
36369SOL     OW10945   3.216   9.369   1.055
36369SOL    HW110946   3.168   9.452   1.060
36369SOL    HW210947   3.174   9.313   1.120
36370SOL     OW10948   9.602   5.131  13.178
36370SOL    HW110949   9.618   5.172  13.092
36370SOL    HW210950   9.510   5.150  13.196
36371SOL     OW10951   9.928   5.949  12.759
36371SOL    HW110952   9.907   6.042  12.750
36371SOL    HW210953  10.002   5.935  12.700
36372SOL     OW10954  10.450   6.206   5.427
36372SOL    HW110955  10.541   6.187   5.403
36372SOL    HW210956  10.457   6.262   5.504
36373SOL     OW10957   9.892   6.046   8.830
36373SOL    HW110958   9.838   6.081   8.759
36373SOL    HW210959   9.829   6.007   8.891
36374SOL     OW10960   0.773  10.785  13.595
36374SOL    HW110961   0.796  10.694  13.579
36374SOL    HW210962   0.850  10.822  13.639
36375SOL     OW10963   9.455  10.762   8.350
36375SOL    HW110964   9.447  10.698   8.280
36375SOL    HW210965   9.542  10.800   8.338
36376SOL     OW10966   3.338   0.047  14.099
36376SOL    HW110967   3.341   0.126  14.045
36376SOL    HW210968   3.303   0.078  14.183
36377SOL     OW10969  13.693   8.584   2.486
36377SOL    HW110970  13.623   8.538   2.532
36377SOL    HW210971  13.772   8.561   2.534
36378SOL     OW10972  13.356  14.671  10.194
36378SOL    HW110973  13.379  14.585  10.228
36378SOL    HW210974  13.265  14.663  10.165
36379SOL     OW10975   0.311   6.876  11.483
36379SOL    HW110976   0.352   6.789  11.484
36379SOL    HW210977   0.371   6.931  11.534
36380SOL     OW10978  14.606   1.761   3.062
36380SOL    HW110979  14.567   1.716   3.137
36380SOL    HW210980  14.533   1.804   3.018
36381SOL     OW10981   3.788  12.499   2.813
36381SOL    HW110982   3.807  12.529   2.724
36381SOL    HW210983   3.847  12.550   2.868
36382SOL     OW10984  12.176   7.037  14.328
36382SOL    HW110985  12.139   7.093  14.259
36382SOL    HW210986  12.102   7.016  14.383
36383SOL     OW10987  14.455  12.283   5.959
36383SOL    HW110988  14.527  12.346   5.958
36383SOL    HW210989  14.424  12.282   5.868
36384SOL     OW10990   3.792  11.580  10.229
36384SOL    HW110991   3.726  11.520  10.192
36384SOL    HW210992   3.761  11.597  10.318
36385SOL     OW10993   4.976   6.805  14.110
36385SOL    HW110994   4.966   6.846  14.024
36385SOL    HW210995   4.988   6.878  14.171
36386SOL     OW10996   9.484   4.735  12.791
36386SOL    HW110997   9.511   4.790  12.717
36386SOL    HW210998   9.414   4.680  12.755
36387SOL     OW10999  14.396  13.495   7.806
36387SOL    HW111000  14.483  13.454   7.810
36387SOL    HW211001  14.356  13.473   7.890
36388SOL     OW11002   8.428  12.075   8.234
36388SOL    HW111003   8.352  12.128   8.257
36388SOL    HW211004   8.483  12.078   8.312
36389SOL     OW11005   2.749  13.888  12.127
36389SOL    HW111006   2.783  13.824  12.190
36389SOL    HW211007   2.689  13.838  12.072
36390SOL     OW11008   5.637  12.169   8.699
36390SOL    HW111009   5.674  12.254   8.675
36390SOL    HW211010   5.711  12.109   8.697
36391SOL     OW11011  12.231   5.384   4.616
36391SOL    HW111012  12.259   5.438   4.690
36391SOL    HW211013  12.291   5.310   4.616
36392SOL     OW11014   4.834   7.040   1.605
36392SOL    HW111015   4.765   7.060   1.668
36392SOL    HW211016   4.794   7.052   1.520
36393SOL     OW11017   8.055  14.561  14.508
36393SOL    HW111018   7.982  14.512  14.545
36393SOL    HW211019   8.050  14.545  14.414
36394SOL     OW11020  10.907  13.933   2.101
36394SOL    HW111021  10.893  13.907   2.010
36394SOL    HW211022  10.971  14.004   2.096
36395SOL     OW11023   2.741  13.654  10.871
36395SOL    HW111024   2.692  13.612  10.800
36395SOL    HW211025   2.826  13.674  10.832
36396SOL     OW11026   2.021   4.857   3.777
36396SOL    HW111027   2.054   4.862   3.687
36396SOL    HW211028   1.955   4.787   3.775
36397SOL     OW11029   5.307   9.771   0.626
36397SOL    HW111030   5.373   9.728   0.680
36397SOL    HW211031   5.332   9.863   0.627
36398SOL     OW11032  11.167   6.892   5.479
36398SOL    HW111033  11.186   6.977   5.440
36398SOL    HW211034  11.183   6.829   5.408
36399SOL     OW11035   7.202   8.766   2.492
36399SOL    HW111036   7.279   8.777   2.435
36399SOL    HW211037   7.226   8.695   2.551
36400SOL     OW11038   9.974   4.008   1.459
36400SOL    HW111039   9.965   4.052   1.544
36400SOL    HW211040   9.963   4.077   1.395
36401SOL     OW11041  13.610   4.424   2.506
36401SOL    HW111042  13.624   4.456   2.417
36401SOL    HW211043  13.544   4.483   2.542
36402SOL     OW11044   7.842   9.499   7.182
36402SOL    HW111045   7.899   9.463   7.114
36402SOL    HW211046   7.771   9.541   7.134
36403SOL     OW11047   5.609  14.756  12.329
36403SOL    HW111048   5.521  14.743  12.364
36403SOL    HW211049   5.623  14.851  12.333
36404SOL     OW11050  13.270   7.824   3.858
36404SOL    HW111051  13.219   7.882   3.802
36404SOL    HW211052  13.205   7.782   3.914
36405SOL     OW11053   4.315   6.080  12.302
36405SOL    HW111054   4.227   6.081  12.340
36405SOL    HW211055   4.313   6.149  12.236
36406SOL     OW11056  11.825   0.315   2.491
36406SOL    HW111057  11.738   0.352   2.510
36406SOL    HW211058  11.880   0.347   2.563
36407SOL     OW11059  13.874  12.725   3.613
36407SOL    HW111060  13.945  12.774   3.654
36407SOL    HW211061  13.795  12.775   3.634
36408SOL     OW11062   0.770  12.007   5.287
36408SOL    HW111063   0.678  12.019   5.266
36408SOL    HW211064   0.774  12.016   5.382
36409SOL     OW11065   0.750  13.532   9.506
36409SOL    HW111066   0.743  13.624   9.482
36409SOL    HW211067   0.682  13.488   9.456
36410SOL     OW11068   7.001  10.865   8.100
36410SOL    HW111069   6.991  10.774   8.074
36410SOL    HW211070   7.093  10.886   8.083
36411SOL     OW11071  11.958   8.175   3.822
36411SOL    HW111072  11.954   8.130   3.738
36411SOL    HW211073  11.869   8.169   3.857
36412SOL     OW11074   9.085   0.785   8.343
36412SOL    HW111075   8.989   0.779   8.339
36412SOL    HW211076   9.116   0.715   8.287
36413SOL     OW11077   0.340   3.185   0.646
36413SOL    HW111078   0.254   3.225   0.664
36413SOL    HW211079   0.375   3.236   0.573
36414SOL     OW11080   4.653   5.335  10.054
36414SOL    HW111081   4.583   5.381  10.005
36414SOL    HW211082   4.698   5.283   9.987
36415SOL     OW11083  12.779   7.580   0.668
36415SOL    HW111084  12.865   7.619   0.651
36415SOL    HW211085  12.768   7.516   0.597
36416SOL     OW11086   6.493  14.149   7.850
36416SOL    HW111087   6.529  14.235   7.868
36416SOL    HW211088   6.486  14.107   7.936
36417SOL     OW11089   2.690  12.624   0.791
36417SOL    HW111090   2.694  12.598   0.698
36417SOL    HW211091   2.604  12.663   0.802
36418SOL     OW11092   6.339  10.889   1.633
36418SOL    HW111093   6.344  10.798   1.661
36418SOL    HW211094   6.247  10.913   1.644
36419SOL     OW11095  10.564   2.009   8.727
36419SOL    HW111096  10.576   2.074   8.658
36419SOL    HW211097  10.551   2.061   8.807
36420SOL     OW11098  13.737   4.017   6.265
36420SOL    HW111099  13.705   4.000   6.177
36420SOL    HW211100  13.685   4.091   6.297
36421SOL     OW11101   2.271   4.424   8.873
36421SOL    HW111102   2.286   4.401   8.781
36421SOL    HW211103   2.329   4.365   8.922
36422SOL     OW11104  13.716   1.842   9.138
36422SOL    HW111105  13.636   1.878   9.099
36422SOL    HW211106  13.712   1.748   9.118
36423SOL     OW11107  12.829   1.044   8.662
36423SOL    HW111108  12.749   1.048   8.609
36423SOL    HW211109  12.873   0.964   8.634
36424SOL     OW11110   7.462  10.677   0.147
36424SOL    HW111111   7.382  10.712   0.186
36424SOL    HW211112   7.434  10.596   0.104
36425SOL     OW11113   4.769   5.551  13.821
36425SOL    HW111114   4.847   5.528  13.871
36425SOL    HW211115   4.729   5.623  13.870
36426SOL     OW11116   2.736   9.365   3.163
36426SOL    HW111117   2.724   9.446   3.114
36426SOL    HW211118   2.669   9.368   3.231
36427SOL     OW11119   3.024   4.770   0.481
36427SOL    HW111120   3.098   4.827   0.461
36427SOL    HW211121   2.998   4.734   0.397
36428SOL     OW11122  13.744   5.203  13.634
36428SOL    HW111123  13.664   5.191  13.685
36428SOL    HW211124  13.807   5.241  13.696
36429SOL     OW11125   7.934  11.560  11.738
36429SOL    HW111126   7.958  11.627  11.673
36429SOL    HW211127   7.954  11.600  11.822
36430SOL     OW11128  11.306   4.111   3.725
36430SOL    HW111129  11.240   4.055   3.765
36430SOL    HW211130  11.263   4.149   3.649
36431SOL     OW11131   2.348   8.613  11.118
36431SOL    HW111132   2.259   8.589  11.092
36431SOL    HW211133   2.356   8.705  11.094
36432SOL     OW11134  13.966  10.331   1.127
36432SOL    HW111135  14.014  10.352   1.207
36432SOL    HW211136  14.024  10.273   1.079
36433SOL     OW11137   4.132  11.890   1.341
36433SOL    HW111138   4.172  11.824   1.397
36433SOL    HW211139   4.119  11.966   1.399
36434SOL     OW11140   9.923   7.617   1.019
36434SOL    HW111141   9.947   7.540   1.071
36434SOL    HW211142   9.843   7.648   1.060
36435SOL     OW11143   6.290   3.836   3.502
36435SOL    HW111144   6.225   3.766   3.492
36435SOL    HW211145   6.238   3.915   3.515
36436SOL     OW11146   3.269   9.555   3.767
36436SOL    HW111147   3.284   9.463   3.747
36436SOL    HW211148   3.285   9.600   3.684
36437SOL     OW11149   3.250  11.875   4.685
36437SOL    HW111150   3.276  11.883   4.593
36437SOL    HW211151   3.301  11.802   4.719
36438SOL     OW11152   8.386  12.883  11.099
36438SOL    HW111153   8.358  12.828  11.026
36438SOL    HW211154   8.476  12.907  11.077
36439SOL     OW11155  14.863   1.392  12.333
36439SOL    HW111156  14.852   1.454  12.405
36439SOL    HW211157   0.062   1.345  12.354
36440SOL     OW11158   1.521   2.237  12.748
36440SOL    HW111159   1.428   2.217  12.759
36440SOL    HW211160   1.562   2.208  12.829
36441SOL     OW11161   2.684  13.108   9.553
36441SOL    HW111162   2.707  13.168   9.482
36441SOL    HW211163   2.598  13.075   9.529
36442SOL     OW11164  11.749   9.553  14.082
36442SOL    HW111165  11.733   9.480  14.022
36442SOL    HW211166  11.799   9.616  14.030
36443SOL     OW11167  14.840   9.495  10.525
36443SOL    HW111168  14.846   9.590  10.512
36443SOL    HW211169  14.822   9.460  10.438
36444SOL     OW11170   5.225   4.851  11.978
36444SOL    HW111171   5.223   4.946  11.986
36444SOL    HW211172   5.310   4.832  11.939
36445SOL     OW11173   9.958  13.825  14.127
36445SOL    HW111174  10.028  13.836  14.063
36445SOL    HW211175   9.946  13.912  14.165
36446SOL     OW11176  14.090   1.411   7.111
36446SOL    HW111177  14.177   1.379   7.087
36446SOL    HW211178  14.037   1.399   7.033
36447SOL     OW11179   2.284   2.795  10.974
36447SOL    HW111180   2.350   2.757  11.031
36447SOL    HW211181   2.221   2.724  10.960
36448SOL     OW11182   4.712   5.438   7.178
36448SOL    HW111183   4.689   5.394   7.096
36448SOL    HW211184   4.673   5.525   7.169
36449SOL     OW11185  13.768  13.402   9.174
36449SOL    HW111186  13.837  13.343   9.144
36449SOL    HW211187  13.687  13.365   9.138
36450SOL     OW11188   3.571  13.435   1.139
36450SOL    HW111189   3.623  13.368   1.096
36450SOL    HW211190   3.608  13.443   1.227
36451SOL     OW11191   7.985   5.546   3.977
36451SOL    HW111192   7.997   5.539   3.882
36451SOL    HW211193   7.913   5.609   3.988
36452SOL     OW11194  14.166  14.240   9.272
36452SOL    HW111195  14.093  14.299   9.293
36452SOL    HW211196  14.205  14.220   9.357
36453SOL     OW11197  12.418   1.965   1.485
36453SOL    HW111198  12.492   2.026   1.492
36453SOL    HW211199  12.361   1.989   1.557
36454SOL     OW11200   0.132   1.205   0.791
36454SOL    HW111201   0.143   1.218   0.696
36454SOL    HW211202   0.181   1.277   0.831
36455SOL     OW11203   6.637  13.553   6.734
36455SOL    HW111204   6.617  13.646   6.723
36455SOL    HW211205   6.716  13.551   6.787
36456SOL     OW11206   6.768   9.553   4.080
36456SOL    HW111207   6.822   9.490   4.033
36456SOL    HW211208   6.813   9.564   4.164
36457SOL     OW11209  14.265   8.449   8.904
36457SOL    HW111210  14.271   8.536   8.945
36457SOL    HW211211  14.183   8.451   8.857
36458SOL     OW11212   2.814  12.890  11.537
36458SOL    HW111213   2.770  12.963  11.580
36458SOL    HW211214   2.907  12.912  11.541
36459SOL     OW11215   3.511   3.671  10.398
36459SOL    HW111216   3.507   3.599  10.461
36459SOL    HW211217   3.420   3.693  10.380
36460SOL     OW11218  12.533  13.674   2.657
36460SOL    HW111219  12.445  13.638   2.667
36460SOL    HW211220  12.591  13.603   2.686
36461SOL     OW11221   0.454   0.982   1.364
36461SOL    HW111222   0.360   0.987   1.381
36461SOL    HW211223   0.465   0.899   1.318
36462SOL     OW11224   4.572  12.834  14.360
36462SOL    HW111225   4.616  12.800  14.282
36462SOL    HW211226   4.506  12.768  14.380
36463SOL     OW11227  12.189   5.558  13.034
36463SOL    HW111228  12.148   5.542  12.948
36463SOL    HW211229  12.119   5.598  13.086
36464SOL     OW11230   1.586   9.608   2.560
36464SOL    HW111231   1.584   9.699   2.530
36464SOL    HW211232   1.665   9.572   2.521
36465SOL     OW11233  12.357  14.212  10.948
36465SOL    HW111234  12.350  14.269  11.024
36465SOL    HW211235  12.393  14.130  10.982
36466SOL     OW11236   3.855   2.814   0.861
36466SOL    HW111237   3.819   2.732   0.894
36466SOL    HW211238   3.873   2.797   0.769
36467SOL     OW11239   5.531   9.745   9.229
36467SOL    HW111240   5.613   9.763   9.273
36467SOL    HW211241   5.545   9.773   9.139
36468SOL     OW11242  14.193  10.505  11.266
36468SOL    HW111243  14.114  10.459  11.240
36468SOL    HW211244  14.249  10.437  11.304
36469SOL     OW11245   0.512  12.674   1.167
36469SOL    HW111246   0.571  12.615   1.214
36469SOL    HW211247   0.438  12.685   1.226
36470SOL     OW11248  12.153  13.353  11.939
36470SOL    HW111249  12.096  13.430  11.940
36470SOL    HW211250  12.235  13.383  11.976
36471SOL     OW11251   1.760   1.090   0.023
36471SOL    HW111252   1.737   1.018  14.846
36471SOL    HW211253   1.823   1.052   0.084
36472SOL     OW11254   5.758   1.370   7.822
36472SOL    HW111255   5.851   1.352   7.838
36472SOL    HW211256   5.722   1.389   7.909
36473SOL     OW11257   2.544  12.941   2.428
36473SOL    HW111258   2.555  12.847   2.413
36473SOL    HW211259   2.633  12.977   2.425
36474SOL     OW11260   2.203   7.658   3.321
36474SOL    HW111261   2.296   7.655   3.343
36474SOL    HW211262   2.199   7.629   3.230
36475SOL     OW11263   7.519   8.119   2.987
36475SOL    HW111264   7.426   8.131   3.002
36475SOL    HW211265   7.524   8.075   2.902
36476SOL     OW11266   7.964   2.056   8.121
36476SOL    HW111267   8.053   2.090   8.111
36476SOL    HW211268   7.977   1.962   8.138
36477SOL     OW11269   3.055   5.320  12.887
36477SOL    HW111270   2.975   5.290  12.845
36477SOL    HW211271   3.029   5.400  12.934
36478SOL     OW11272  11.347  12.265  12.245
36478SOL    HW111273  11.365  12.359  12.249
36478SOL    HW211274  11.255  12.257  12.273
36479SOL     OW11275   7.367   8.414   8.115
36479SOL    HW111276   7.380   8.426   8.021
36479SOL    HW211277   7.398   8.326   8.132
36480SOL     OW11278  13.276   9.305   7.970
36480SOL    HW111279  13.328   9.228   7.993
36480SOL    HW211280  13.325   9.347   7.899
36481SOL     OW11281  10.957   8.614  11.929
36481SOL    HW111282  10.993   8.570  12.005
36481SOL    HW211283  11.031   8.662  11.892
36482SOL     OW11284   9.974   3.647   7.964
36482SOL    HW111285  10.036   3.694   8.020
36482SOL    HW211286  10.015   3.561   7.951
36483SOL     OW11287   6.154   1.635   1.799
36483SOL    HW111288   6.119   1.686   1.872
36483SOL    HW211289   6.232   1.683   1.772
36484SOL     OW11290   5.022   4.078   6.624
36484SOL    HW111291   5.104   4.102   6.580
36484SOL    HW211292   5.011   4.143   6.693
36485SOL     OW11293  12.782  12.971   1.788
36485SOL    HW111294  12.871  13.005   1.787
36485SOL    HW211295  12.755  12.970   1.696
36486SOL     OW11296   6.030   5.122  13.347
36486SOL    HW111297   6.022   5.144  13.440
36486SOL    HW211298   5.941   5.101  13.320
36487SOL     OW11299   6.334   6.242  12.067
36487SOL    HW111300   6.315   6.159  12.110
36487SOL    HW211301   6.366   6.218  11.980
36488SOL     OW11302   7.237   9.345   0.391
36488SOL    HW111303   7.142   9.353   0.379
36488SOL    HW211304   7.257   9.256   0.365
36489SOL     OW11305   5.018   6.075  12.042
36489SOL    HW111306   5.089   6.138  12.054
36489SOL    HW211307   5.055   5.992  12.072
36490SOL     OW11308   4.242   0.924  12.826
36490SOL    HW111309   4.204   0.836  12.826
36490SOL    HW211310   4.332   0.911  12.797
36491SOL     OW11311   9.390   4.102   2.189
36491SOL    HW111312   9.357   4.020   2.224
36491SOL    HW211313   9.406   4.157   2.266
36492SOL     OW11314  10.825   1.369  13.888
36492SOL    HW111315  10.831   1.277  13.916
36492SOL    HW211316  10.736   1.378  13.856
36493SOL     OW11317   9.496   7.058  13.740
36493SOL    HW111318   9.476   7.115  13.814
36493SOL    HW211319   9.431   7.080  13.674
36494SOL     OW11320   7.241   5.231  14.855
36494SOL    HW111321   7.301   5.249  14.782
36494SOL    HW211322   7.161   5.279  14.833
36495SOL     OW11323   0.532   0.695  11.162
36495SOL    HW111324   0.563   0.667  11.248
36495SOL    HW211325   0.441   0.721  11.176
36496SOL     OW11326   2.678   6.621   4.502
36496SOL    HW111327   2.592   6.630   4.544
36496SOL    HW211328   2.673   6.678   4.425
36497SOL     OW11329   4.094  12.188   4.021
36497SOL    HW111330   4.174  12.240   4.019
36497SOL    HW211331   4.094  12.141   3.937
36498SOL     OW11332  13.787   4.510   6.710
36498SOL    HW111333  13.710   4.470   6.670
36498SOL    HW211334  13.838   4.437   6.744
36499SOL     OW11335  12.338   0.861  14.588
36499SOL    HW111336  12.316   0.954  14.581
36499SOL    HW211337  12.334   0.842  14.681
36500SOL     OW11338  12.640   9.521   6.400
36500SOL    HW111339  12.565   9.581   6.401
36500SOL    HW211340  12.662   9.510   6.308
36501SOL     OW11341  12.995   9.163  12.901
36501SOL    HW111342  12.924   9.162  12.838
36501SOL    HW211343  13.054   9.232  12.870
36502SOL     OW11344   7.424   8.046   6.829
36502SOL    HW111345   7.347   8.060   6.775
36502SOL    HW211346   7.487   8.003   6.771
36503SOL     OW11347   2.909   2.414   9.831
36503SOL    HW111348   2.829   2.463   9.847
36503SOL    HW211349   2.973   2.479   9.801
36504SOL     OW11350   5.157   8.173  14.410
36504SOL    HW111351   5.168   8.229  14.333
36504SOL    HW211352   5.163   8.084  14.375
36505SOL     OW11353   3.523   3.439   9.849
36505SOL    HW111354   3.526   3.401   9.936
36505SOL    HW211355   3.439   3.485   9.845
36506SOL     OW11356   4.884   2.724   3.724
36506SOL    HW111357   4.947   2.796   3.730
36506SOL    HW211358   4.938   2.647   3.708
36507SOL     OW11359   4.944   3.057   5.530
36507SOL    HW111360   4.919   3.075   5.439
36507SOL    HW211361   5.025   3.106   5.543
36508SOL     OW11362   9.394   4.658   2.882
36508SOL    HW111363   9.319   4.703   2.920
36508SOL    HW211364   9.372   4.647   2.790
36509SOL     OW11365   7.476  13.449   4.310
36509SOL    HW111366   7.499  13.375   4.254
36509SOL    HW211367   7.547  13.512   4.296
36510SOL     OW11368   4.872  11.233   6.660
36510SOL    HW111369   4.958  11.230   6.620
36510SOL    HW211370   4.852  11.327   6.667
36511SOL     OW11371   3.311  13.286   8.608
36511SOL    HW111372   3.291  13.202   8.567
36511SOL    HW211373   3.280  13.277   8.698
36512SOL     OW11374  10.559   1.367   5.478
36512SOL    HW111375  10.486   1.307   5.460
36512SOL    HW211376  10.598   1.384   5.393
36513SOL     OW11377  14.568   6.650   7.187
36513SOL    HW111378  14.506   6.578   7.183
36513SOL    HW211379  14.547   6.704   7.110
36514SOL     OW11380  12.896   7.493  13.293
36514SOL    HW111381  12.829   7.515  13.357
36514SOL    HW211382  12.916   7.401  13.310
36515SOL     OW11383   2.513   9.258  12.726
36515SOL    HW111384   2.507   9.233  12.634
36515SOL    HW211385   2.584   9.204  12.760
36516SOL     OW11386  12.705   1.695   6.232
36516SOL    HW111387  12.742   1.608   6.215
36516SOL    HW211388  12.645   1.710   6.159
36517SOL     OW11389   5.872   5.876   6.595
36517SOL    HW111390   5.815   5.892   6.670
36517SOL    HW211391   5.830   5.804   6.548
36518SOL     OW11392   8.974  12.704   2.477
36518SOL    HW111393   9.009  12.665   2.556
36518SOL    HW211394   9.015  12.655   2.406
36519SOL     OW11395  11.156   5.998  14.468
36519SOL    HW111396  11.229   6.058  14.453
36519SOL    HW211397  11.197   5.912  14.473
36520SOL     OW11398  14.379   8.818   3.872
36520SOL    HW111399  14.414   8.907   3.879
36520SOL    HW211400  14.307   8.816   3.935
36521SOL     OW11401   1.521  13.136   1.511
36521SOL    HW111402   1.461  13.065   1.534
36521SOL    HW211403   1.483  13.176   1.433
36522SOL     OW11404  11.497  11.090  11.899
36522SOL    HW111405  11.545  11.083  11.982
36522SOL    HW211406  11.410  11.120  11.924
36523SOL     OW11407   5.420  13.192   7.665
36523SOL    HW111408   5.393  13.104   7.636
36523SOL    HW211409   5.468  13.227   7.590
36524SOL     OW11410  11.209   6.095  12.931
36524SOL    HW111411  11.252   6.170  12.889
36524SOL    HW211412  11.165   6.132  13.007
36525SOL     OW11413   3.867  11.986   3.841
36525SOL    HW111414   3.821  11.923   3.786
36525SOL    HW211415   3.818  12.068   3.831
36526SOL     OW11416   8.376   5.182  12.724
36526SOL    HW111417   8.336   5.118  12.782
36526SOL    HW211418   8.343   5.267  12.755
36527SOL     OW11419   0.899   5.668   8.094
36527SOL    HW111420   0.860   5.583   8.075
36527SOL    HW211421   0.858   5.695   8.176
36528SOL     OW11422   4.370  14.140  13.817
36528SOL    HW111423   4.418  14.153  13.736
36528SOL    HW211424   4.279  14.158  13.795
36529SOL     OW11425  11.304   8.640   9.003
36529SOL    HW111426  11.387   8.595   8.986
36529SOL    HW211427  11.304   8.654   9.098
36530SOL     OW11428   4.496   6.253  12.798
36530SOL    HW111429   4.478   6.318  12.730
36530SOL    HW211430   4.591   6.239  12.793
36531SOL     OW11431   8.915   6.637   8.770
36531SOL    HW111432   8.993   6.582   8.759
36531SOL    HW211433   8.850   6.578   8.809
36532SOL     OW11434  12.304   8.938   0.984
36532SOL    HW111435  12.351   8.884   0.920
36532SOL    HW211436  12.325   9.028   0.959
36533SOL     OW11437   3.981  10.811  10.241
36533SOL    HW111438   3.968  10.804  10.146
36533SOL    HW211439   3.992  10.721  10.270
36534SOL     OW11440   4.704   7.564   1.157
36534SOL    HW111441   4.658   7.494   1.110
36534SOL    HW211442   4.787   7.573   1.111
36535SOL     OW11443  13.645   7.876  13.624
36535SOL    HW111444  13.649   7.821  13.702
36535SOL    HW211445  13.726   7.927  13.626
36536SOL     OW11446   6.130  12.144   7.048
36536SOL    HW111447   6.188  12.187   6.986
36536SOL    HW211448   6.093  12.215   7.100
36537SOL     OW11449   0.435   7.360   6.391
36537SOL    HW111450   0.505   7.371   6.326
36537SOL    HW211451   0.354   7.370   6.341
36538SOL     OW11452   5.470   8.057   0.011
36538SOL    HW111453   5.412   8.062  14.817
36538SOL    HW211454   5.435   7.984   0.063
36539SOL     OW11455   9.326   2.552   8.443
36539SOL    HW111456   9.239   2.586   8.421
36539SOL    HW211457   9.312   2.499   8.521
36540SOL     OW11458  14.235  13.120   9.980
36540SOL    HW111459  14.177  13.094   9.908
36540SOL    HW211460  14.283  13.040  10.002
36541SOL     OW11461  11.120  11.429  14.661
36541SOL    HW111462  11.036  11.474  14.670
36541SOL    HW211463  11.117  11.389  14.574
36542SOL     OW11464  10.786   3.153   7.246
36542SOL    HW111465  10.816   3.215   7.179
36542SOL    HW211466  10.736   3.206   7.307
36543SOL     OW11467   8.368  13.026   8.706
36543SOL    HW111468   8.380  13.104   8.651
36543SOL    HW211469   8.430  13.038   8.778
36544SOL     OW11470  10.833   1.090   3.283
36544SOL    HW111471  10.796   1.176   3.265
36544SOL    HW211472  10.906   1.107   3.343
36545SOL     OW11473  11.999  12.275   9.572
36545SOL    HW111474  11.995  12.193   9.622
36545SOL    HW211475  11.984  12.248   9.481
36546SOL     OW11476   5.439   1.387   3.532
36546SOL    HW111477   5.406   1.321   3.593
36546SOL    HW211478   5.434   1.469   3.580
36547SOL     OW11479   9.215   2.729   7.057
36547SOL    HW111480   9.205   2.767   6.970
36547SOL    HW211481   9.283   2.663   7.046
36548SOL     OW11482  12.214   9.147   5.076
36548SOL    HW111483  12.180   9.094   5.148
36548SOL    HW211484  12.214   9.237   5.110
36549SOL     OW11485  10.424  12.676  11.006
36549SOL    HW111486  10.458  12.621  10.936
36549SOL    HW211487  10.461  12.640  11.086
36550SOL     OW11488  12.794   1.933  12.819
36550SOL    HW111489  12.830   1.901  12.736
36550SOL    HW211490  12.708   1.892  12.826
36551SOL     OW11491  14.425   1.715   2.155
36551SOL    HW111492  14.419   1.778   2.227
36551SOL    HW211493  14.348   1.659   2.166
36552SOL     OW11494   8.543   2.860  13.674
36552SOL    HW111495   8.492   2.787  13.637
36552SOL    HW211496   8.519   2.861  13.766
36553SOL     OW11497   4.658  13.747  13.947
36553SOL    HW111498   4.575  13.744  13.996
36553SOL    HW211499   4.634  13.790  13.864
36554SOL     OW11500   3.737   5.383  13.981
36554SOL    HW111501   3.683   5.336  14.045
36554SOL    HW211502   3.790   5.442  14.035
36555SOL     OW11503   3.608   1.209   0.401
36555SOL    HW111504   3.588   1.274   0.333
36555SOL    HW211505   3.620   1.127   0.354
36556SOL     OW11506   2.894   8.506   8.654
36556SOL    HW111507   2.896   8.420   8.612
36556SOL    HW211508   2.915   8.487   8.746
36557SOL     OW11509  13.228   3.074   3.198
36557SOL    HW111510  13.249   3.064   3.106
36557SOL    HW211511  13.178   3.156   3.203
36558SOL     OW11512   0.820  14.527   0.910
36558SOL    HW111513   0.773  14.445   0.896
36558SOL    HW211514   0.826  14.535   1.005
36559SOL     OW11515  12.270   9.427  10.630
36559SOL    HW111516  12.321   9.351  10.657
36559SOL    HW211517  12.253   9.413  10.537
36560SOL     OW11518  11.094  11.859   7.574
36560SOL    HW111519  11.085  11.765   7.590
36560SOL    HW211520  11.186  11.877   7.591
36561SOL     OW11521  13.807   7.728   8.052
36561SOL    HW111522  13.754   7.806   8.034
36561SOL    HW211523  13.804   7.719   8.147
36562SOL     OW11524   1.912  11.024  12.823
36562SOL    HW111525   1.946  11.096  12.876
36562SOL    HW211526   1.986  10.997  12.770
36563SOL     OW11527   6.295  14.179   4.503
36563SOL    HW111528   6.302  14.153   4.411
36563SOL    HW211529   6.361  14.126   4.548
36564SOL     OW11530   2.338   9.149  10.084
36564SOL    HW111531   2.403   9.197  10.135
36564SOL    HW211532   2.362   9.057  10.095
36565SOL     OW11533   5.345   2.259   8.349
36565SOL    HW111534   5.339   2.227   8.439
36565SOL    HW211535   5.376   2.183   8.299
36566SOL     OW11536   2.866   1.932  11.595
36566SOL    HW111537   2.911   1.951  11.677
36566SOL    HW211538   2.857   2.017  11.552
36567SOL     OW11539  13.576   8.371   0.161
36567SOL    HW111540  13.606   8.321   0.236
36567SOL    HW211541  13.556   8.305   0.095
36568SOL     OW11542  11.296  10.661   0.753
36568SOL    HW111543  11.271  10.656   0.845
36568SOL    HW211544  11.247  10.589   0.711
36569SOL     OW11545   8.250   2.802   5.892
36569SOL    HW111546   8.271   2.732   5.829
36569SOL    HW211547   8.154   2.801   5.897
36570SOL     OW11548  14.327   0.875  13.005
36570SOL    HW111549  14.255   0.933  13.029
36570SOL    HW211550  14.317   0.800  13.064
36571SOL     OW11551   9.829  10.939   5.713
36571SOL    HW111552   9.787  11.009   5.763
36571SOL    HW211553   9.891  10.984   5.655
36572SOL     OW11554   8.389   6.196   8.526
36572SOL    HW111555   8.418   6.145   8.450
36572SOL    HW211556   8.383   6.132   8.597
36573SOL     OW11557  13.319   3.085  13.972
36573SOL    HW111558  13.255   3.047  13.912
36573SOL    HW211559  13.288   3.175  13.986
36574SOL     OW11560   5.892   4.648   5.179
36574SOL    HW111561   5.921   4.568   5.223
36574SOL    HW211562   5.798   4.634   5.164
36575SOL     OW11563   4.038   5.581  13.269
36575SOL    HW111564   4.027   5.549  13.180
36575SOL    HW211565   3.952   5.571  13.309
36576SOL     OW11566   5.277   0.480   8.695
36576SOL    HW111567   5.224   0.432   8.759
36576SOL    HW211568   5.213   0.534   8.647
36577SOL     OW11569   8.454   3.688  14.036
36577SOL    HW111570   8.482   3.691  13.945
36577SOL    HW211571   8.388   3.757  14.044
36578SOL     OW11572   7.715  13.137   8.160
36578SOL    HW111573   7.770  13.070   8.118
36578SOL    HW211574   7.632  13.092   8.175
36579SOL     OW11575   0.446   9.659   6.196
36579SOL    HW111576   0.409   9.613   6.121
36579SOL    HW211577   0.487   9.591   6.249
36580SOL     OW11578  11.493   5.583  10.955
36580SOL    HW111579  11.465   5.671  10.981
36580SOL    HW211580  11.418   5.527  10.974
36581SOL     OW11581   4.458   1.988   7.939
36581SOL    HW111582   4.389   1.975   8.004
36581SOL    HW211583   4.537   1.952   7.980
36582SOL     OW11584   9.027  10.790   2.928
36582SOL    HW111585   9.041  10.741   2.847
36582SOL    HW211586   9.083  10.747   2.993
36583SOL     OW11587   8.732  10.572   5.391
36583SOL    HW111588   8.721  10.651   5.338
36583SOL    HW211589   8.824  10.548   5.380
36584SOL     OW11590   7.462   2.262  11.393
36584SOL    HW111591   7.486   2.339  11.444
36584SOL    HW211592   7.528   2.197  11.415
36585SOL     OW11593  12.218  12.511   1.976
36585SOL    HW111594  12.196  12.546   1.890
36585SOL    HW211595  12.246  12.588   2.027
36586SOL     OW11596  10.194  14.053   4.988
36586SOL    HW111597  10.280  14.069   5.028
36586SOL    HW211598  10.190  14.115   4.916
36587SOL     OW11599  11.280   2.066   2.333
36587SOL    HW111600  11.343   2.036   2.399
36587SOL    HW211601  11.297   2.159   2.324
36588SOL     OW11602   2.589   3.516  11.212
36588SOL    HW111603   2.623   3.455  11.147
36588SOL    HW211604   2.651   3.510  11.285
36589SOL     OW11605  11.450   8.004  13.381
36589SOL    HW111606  11.406   8.003  13.296
36589SOL    HW211607  11.449   8.096  13.407
36590SOL     OW11608   4.166   5.447   9.577
36590SOL    HW111609   4.133   5.414   9.493
36590SOL    HW211610   4.213   5.527   9.555
36591SOL     OW11611  12.574   4.720  12.047
36591SOL    HW111612  12.518   4.705  12.123
36591SOL    HW211613  12.645   4.658  12.057
36592SOL     OW11614  10.331  10.413   2.662
36592SOL    HW111615  10.418  10.402   2.624
36592SOL    HW211616  10.284  10.332   2.639
36593SOL     OW11617   8.245  10.133   7.684
36593SOL    HW111618   8.158  10.094   7.688
36593SOL    HW211619   8.230  10.227   7.672
36594SOL     OW11620   8.364   0.541  13.953
36594SOL    HW111621   8.458   0.542  13.967
36594SOL    HW211622   8.347   0.616  13.897
36595SOL     OW11623   9.291   4.298  10.227
36595SOL    HW111624   9.354   4.226  10.226
36595SOL    HW211625   9.310   4.349  10.149
36596SOL     OW11626   7.070  10.490   2.012
36596SOL    HW111627   7.118  10.566   1.980
36596SOL    HW211628   7.108  10.416   1.964
36597SOL     OW11629   0.049   4.403   9.674
36597SOL    HW111630   0.124   4.409   9.734
36597SOL    HW211631  14.868   4.467   9.708
36598SOL     OW11632   7.639   8.101   5.615
36598SOL    HW111633   7.694   8.040   5.567
36598SOL    HW211634   7.684   8.185   5.610
36599SOL     OW11635   1.790   6.612   3.286
36599SOL    HW111636   1.732   6.599   3.361
36599SOL    HW211637   1.822   6.525   3.263
36600SOL     OW11638  14.381   9.773   0.332
36600SOL    HW111639  14.329   9.726   0.267
36600SOL    HW211640  14.393   9.861   0.295
36601SOL     OW11641   4.395  12.192   4.607
36601SOL    HW111642   4.484  12.161   4.595
36601SOL    HW211643   4.351  12.123   4.656
36602SOL     OW11644  13.053   2.704  14.763
36602SOL    HW111645  13.021   2.765  14.829
36602SOL    HW211646  13.060   2.758  14.683
36603SOL     OW11647   5.105   7.360  11.200
36603SOL    HW111648   5.019   7.318  11.205
36603SOL    HW211649   5.138   7.358  11.290
36604SOL     OW11650   4.272   6.181   7.099
36604SOL    HW111651   4.341   6.225   7.148
36604SOL    HW211652   4.227   6.127   7.164
36605SOL     OW11653  14.754   4.825   8.265
36605SOL    HW111654  14.728   4.895   8.204
36605SOL    HW211655  14.833   4.859   8.308
36606SOL     OW11656   8.646   6.522   0.176
36606SOL    HW111657   8.632   6.439   0.221
36606SOL    HW211658   8.728   6.510   0.128
36607SOL     OW11659  10.327   3.007   4.029
36607SOL    HW111660  10.267   2.941   4.064
36607SOL    HW211661  10.350   2.974   3.942
36608SOL     OW11662   3.783   1.757  10.390
36608SOL    HW111663   3.760   1.752  10.298
36608SOL    HW211664   3.785   1.665  10.419
36609SOL     OW11665  14.214   6.422  11.493
36609SOL    HW111666  14.125   6.387  11.501
36609SOL    HW211667  14.238   6.446  11.583
36610SOL     OW11668   7.176   0.768  12.496
36610SOL    HW111669   7.123   0.736  12.423
36610SOL    HW211670   7.202   0.688  12.543
36611SOL     OW11671   1.561   5.937   6.218
36611SOL    HW111672   1.516   5.934   6.303
36611SOL    HW211673   1.507   5.883   6.160
36612SOL     OW11674  13.833  13.340  14.216
36612SOL    HW111675  13.833  13.349  14.121
36612SOL    HW211676  13.770  13.405  14.246
36613SOL     OW11677   9.583   6.473   6.062
36613SOL    HW111678   9.601   6.539   6.128
36613SOL    HW211679   9.628   6.504   5.983
36614SOL     OW11680   5.196   2.309  11.356
36614SOL    HW111681   5.107   2.310  11.390
36614SOL    HW211682   5.225   2.400  11.360
36615SOL     OW11683   0.989  11.918   8.351
36615SOL    HW111684   1.020  11.828   8.353
36615SOL    HW211685   0.899  11.913   8.318
36616SOL     OW11686   1.367   9.961   6.267
36616SOL    HW111687   1.358   9.874   6.306
36616SOL    HW211688   1.311  10.017   6.320
36617SOL     OW11689   0.075   7.942   9.679
36617SOL    HW111690   0.062   8.027   9.722
36617SOL    HW211691  14.868   7.908   9.667
36618SOL     OW11692  11.609  14.738   6.260
36618SOL    HW111693  11.614  14.719   6.354
36618SOL    HW211694  11.603  14.833   6.255
36619SOL     OW11695   4.767   8.192   2.406
36619SOL    HW111696   4.743   8.116   2.352
36619SOL    HW211697   4.759   8.267   2.347
36620SOL     OW11698  13.854  11.043   9.445
36620SOL    HW111699  13.813  10.956   9.439
36620SOL    HW211700  13.856  11.062   9.538
36621SOL     OW11701   0.095  10.369   3.642
36621SOL    HW111702   0.013  10.366   3.691
36621SOL    HW211703   0.137  10.285   3.658
36622SOL     OW11704   4.001   2.274   8.026
36622SOL    HW111705   4.070   2.270   7.959
36622SOL    HW211706   4.022   2.352   8.077
36623SOL     OW11707  11.948  11.498  13.100
36623SOL    HW111708  11.868  11.512  13.151
36623SOL    HW211709  11.925  11.429  13.037
36624SOL     OW11710  12.888   9.152   0.301
36624SOL    HW111711  12.891   9.057   0.298
36624SOL    HW211712  12.862   9.178   0.212
36625SOL     OW11713   9.133   1.404   5.262
36625SOL    HW111714   9.159   1.313   5.248
36625SOL    HW211715   9.190   1.435   5.333
36626SOL     OW11716   4.754   0.471   3.902
36626SOL    HW111717   4.658   0.466   3.899
36626SOL    HW211718   4.773   0.565   3.906
36627SOL     OW11719   1.952  14.592  13.607
36627SOL    HW111720   1.869  14.545  13.600
36627SOL    HW211721   2.013  14.527  13.643
36628SOL     OW11722   9.005  12.078  12.424
36628SOL    HW111723   9.044  12.123  12.499
36628SOL    HW211724   8.959  12.004  12.462
36629SOL     OW11725   1.411   8.142  10.635
36629SOL    HW111726   1.317   8.135  10.655
36629SOL    HW211727   1.445   8.202  10.702
36630SOL     OW11728   2.751  13.588  11.534
36630SOL    HW111729   2.657  13.570  11.534
36630SOL    HW211730   2.776  13.581  11.442
36631SOL     OW11731   8.527   7.444   3.824
36631SOL    HW111732   8.493   7.359   3.794
36631SOL    HW211733   8.476   7.508   3.774
36632SOL     OW11734   2.085  10.132  11.792
36632SOL    HW111735   2.100  10.225  11.772
36632SOL    HW211736   2.059  10.094  11.709
36633SOL     OW11737   1.513   2.938   9.848
36633SOL    HW111738   1.505   2.960   9.755
36633SOL    HW211739   1.596   2.976   9.875
36634SOL     OW11740  11.700   5.508   8.056
36634SOL    HW111741  11.792   5.501   8.030
36634SOL    HW211742  11.689   5.599   8.083
36635SOL     OW11743   0.990   2.077  10.456
36635SOL    HW111744   0.935   2.100  10.531
36635SOL    HW211745   1.032   1.995  10.482
36636SOL     OW11746  13.203   7.310   1.850
36636SOL    HW111747  13.159   7.354   1.923
36636SOL    HW211748  13.148   7.234   1.831
36637SOL     OW11749  10.077   2.663  11.188
36637SOL    HW111750  10.159   2.613  11.180
36637SOL    HW211751  10.063   2.672  11.282
36638SOL     OW11752   7.711   2.151  13.204
36638SOL    HW111753   7.798   2.187  13.223
36638SOL    HW211754   7.727   2.081  13.141
36639SOL     OW11755  11.597  13.949   8.060
36639SOL    HW111756  11.648  13.986   7.988
36639SOL    HW211757  11.662  13.909   8.118
36640SOL     OW11758   1.865   2.773  13.556
36640SOL    HW111759   1.904   2.694  13.593
36640SOL    HW211760   1.798   2.741  13.496
36641SOL     OW11761  12.124   0.248  12.489
36641SOL    HW111762  12.031   0.231  12.502
36641SOL    HW211763  12.131   0.344  12.489
36642SOL     OW11764   9.115  14.622   8.619
36642SOL    HW111765   9.154  14.632   8.706
36642SOL    HW211766   9.190  14.623   8.560
36643SOL     OW11767   0.911  12.945   6.104
36643SOL    HW111768   0.864  13.018   6.064
36643SOL    HW211769   0.918  12.968   6.196
36644SOL     OW11770   6.177   8.082   5.924
36644SOL    HW111771   6.249   8.069   5.986
36644SOL    HW211772   6.132   7.997   5.922
36645SOL     OW11773   9.571   7.252   6.371
36645SOL    HW111774   9.630   7.326   6.358
36645SOL    HW211775   9.625   7.182   6.407
36646SOL     OW11776   9.460   1.332  12.655
36646SOL    HW111777   9.444   1.343  12.561
36646SOL    HW211778   9.446   1.239  12.671
36647SOL     OW11779   8.497  11.047   2.907
36647SOL    HW111780   8.531  10.996   2.833
36647SOL    HW211781   8.541  11.132   2.899
36648SOL     OW11782   1.707   5.836  12.468
36648SOL    HW111783   1.698   5.746  12.437
36648SOL    HW211784   1.690   5.830  12.562
36649SOL     OW11785   2.796   6.079  12.171
36649SOL    HW111786   2.888   6.105  12.165
36649SOL    HW211787   2.754   6.123  12.097
36650SOL     OW11788  10.290   1.842  14.779
36650SOL    HW111789  10.358   1.798  14.830
36650SOL    HW211790  10.331   1.859  14.694
36651SOL     OW11791   0.204  11.484   1.667
36651SOL    HW111792   0.292  11.494   1.701
36651SOL    HW211793   0.146  11.501   1.741
36652SOL     OW11794   3.055   4.005   4.556
36652SOL    HW111795   3.013   4.048   4.630
36652SOL    HW211796   3.020   3.915   4.558
36653SOL     OW11797   8.428  10.004   7.533
36653SOL    HW111798   8.363  10.046   7.590
36653SOL    HW211799   8.422  10.051   7.450
36654SOL     OW11800  11.868   2.891  10.415
36654SOL    HW111801  11.830   2.942  10.343
36654SOL    HW211802  11.962   2.896  10.401
36655SOL     OW11803  14.269  10.846  12.791
36655SOL    HW111804  14.326  10.923  12.784
36655SOL    HW211805  14.330  10.772  12.791
36656SOL     OW11806   3.232  11.469   4.723
36656SOL    HW111807   3.281  11.387   4.714
36656SOL    HW211808   3.186  11.478   4.640
36657SOL     OW11809  10.032   5.117   7.140
36657SOL    HW111810  10.098   5.186   7.149
36657SOL    HW211811  10.083   5.040   7.113
36658SOL     OW11812   7.233  10.510   6.324
36658SOL    HW111813   7.172  10.540   6.256
36658SOL    HW211814   7.301  10.463   6.276
36659SOL     OW11815   4.238   1.162   9.884
36659SOL    HW111816   4.285   1.081   9.904
36659SOL    HW211817   4.195   1.145   9.800
36660SOL     OW11818   1.746  12.735  12.688
36660SOL    HW111819   1.689  12.781  12.626
36660SOL    HW211820   1.697  12.737  12.770
36661SOL     OW11821   8.226   4.790   2.615
36661SOL    HW111822   8.207   4.820   2.527
36661SOL    HW211823   8.147   4.811   2.665
36662SOL     OW11824  14.821   3.372  10.859
36662SOL    HW111825   0.009   3.311  10.883
36662SOL    HW211826  14.777   3.330  10.785
36663SOL     OW11827   1.093   7.844   6.086
36663SOL    HW111828   1.024   7.895   6.042
36663SOL    HW211829   1.061   7.754   6.084
36664SOL     OW11830  14.673   9.105   4.916
36664SOL    HW111831  14.733   9.042   4.954
36664SOL    HW211832  14.688   9.186   4.964
36665SOL     OW11833   2.554   4.756   6.130
36665SOL    HW111834   2.643   4.719   6.123
36665SOL    HW211835   2.565   4.833   6.186
36666SOL     OW11836   5.814   2.145   9.183
36666SOL    HW111837   5.906   2.137   9.159
36666SOL    HW211838   5.807   2.233   9.221
36667SOL     OW11839   3.740  11.016  10.702
36667SOL    HW111840   3.708  11.007  10.792
36667SOL    HW211841   3.788  10.935  10.686
36668SOL     OW11842   7.917  10.128  11.700
36668SOL    HW111843   7.906  10.035  11.719
36668SOL    HW211844   7.896  10.137  11.607
36669SOL     OW11845   8.862   1.578   6.193
36669SOL    HW111846   8.885   1.623   6.112
36669SOL    HW211847   8.904   1.492   6.186
36670SOL     OW11848   8.336   8.967  10.707
36670SOL    HW111849   8.371   8.989  10.620
36670SOL    HW211850   8.272   8.898  10.690
36671SOL     OW11851   3.889   8.196   5.940
36671SOL    HW111852   3.847   8.277   5.912
36671SOL    HW211853   3.836   8.126   5.902
36672SOL     OW11854   2.830  11.158  10.073
36672SOL    HW111855   2.788  11.235  10.037
36672SOL    HW211856   2.787  11.143  10.157
36673SOL     OW11857   4.077   3.434   5.222
36673SOL    HW111858   4.045   3.344   5.229
36673SOL    HW211859   4.142   3.431   5.153
36674SOL     OW11860  14.513   7.293  11.820
36674SOL    HW111861  14.493   7.286  11.726
36674SOL    HW211862  14.518   7.387  11.836
36675SOL     OW11863  11.378   6.889   1.123
36675SOL    HW111864  11.370   6.813   1.065
36675SOL    HW211865  11.419   6.957   1.070
36676SOL     OW11866  12.595   1.116   3.569
36676SOL    HW111867  12.593   1.169   3.489
36676SOL    HW211868  12.683   1.079   3.571
36677SOL     OW11869   0.581   8.644   0.586
36677SOL    HW111870   0.624   8.694   0.516
36677SOL    HW211871   0.653   8.598   0.629
36678SOL     OW11872  13.043  12.859   0.345
36678SOL    HW111873  13.074  12.768   0.347
36678SOL    HW211874  13.021  12.878   0.436
36679SOL     OW11875   6.433   1.416   3.327
36679SOL    HW111876   6.507   1.455   3.282
36679SOL    HW211877   6.356   1.450   3.281
36680SOL     OW11878  11.590  11.908   8.481
36680SOL    HW111879  11.503  11.943   8.498
36680SOL    HW211880  11.590  11.885   8.388
36681SOL     OW11881  13.617   0.322   3.412
36681SOL    HW111882  13.531   0.296   3.379
36681SOL    HW211883  13.655   0.240   3.445
36682SOL     OW11884   4.122   2.056   9.554
36682SOL    HW111885   4.038   2.019   9.529
36682SOL    HW211886   4.119   2.061   9.650
36683SOL     OW11887   9.363   1.764   5.349
36683SOL    HW111888   9.328   1.696   5.406
36683SOL    HW211889   9.372   1.841   5.405
36684SOL     OW11890   9.688   3.746  13.250
36684SOL    HW111891   9.601   3.779  13.273
36684SOL    HW211892   9.700   3.669  13.306
36685SOL     OW11893   6.521   0.376  14.397
36685SOL    HW111894   6.611   0.379  14.366
36685SOL    HW211895   6.507   0.285  14.423
36686SOL     OW11896   0.635   4.245  14.808
36686SOL    HW111897   0.687   4.207  14.879
36686SOL    HW211898   0.641   4.182  14.736
36687SOL     OW11899  10.625   8.570  13.057
36687SOL    HW111900  10.586   8.658  13.062
36687SOL    HW211901  10.704   8.576  13.110
36688SOL     OW11902  13.257   2.078  13.516
36688SOL    HW111903  13.282   1.992  13.548
36688SOL    HW211904  13.244   2.066  13.422
36689SOL     OW11905   1.868  13.867  13.173
36689SOL    HW111906   1.862  13.781  13.215
36689SOL    HW211907   1.962  13.887  13.171
36690SOL     OW11908   9.271   5.858   8.319
36690SOL    HW111909   9.309   5.797   8.381
36690SOL    HW211910   9.263   5.808   8.238
36691SOL     OW11911  14.480  13.437   2.085
36691SOL    HW111912  14.409  13.392   2.130
36691SOL    HW211913  14.460  13.530   2.095
36692SOL     OW11914   7.202   2.004   7.104
36692SOL    HW111915   7.139   2.075   7.091
36692SOL    HW211916   7.154   1.925   7.079
36693SOL     OW11917   6.064  11.120   9.948
36693SOL    HW111918   6.099  11.050   9.892
36693SOL    HW211919   6.050  11.194   9.889
36694SOL     OW11920   8.399   7.605   1.673
36694SOL    HW111921   8.495   7.599   1.669
36694SOL    HW211922   8.382   7.687   1.719
36695SOL     OW11923   8.742   8.683   0.137
36695SOL    HW111924   8.754   8.695   0.231
36695SOL    HW211925   8.748   8.771   0.101
36696SOL     OW11926   3.775   0.810  14.077
36696SOL    HW111927   3.833   0.762  14.018
36696SOL    HW211928   3.733   0.743  14.130
36697SOL     OW11929   4.312   1.289  12.343
36697SOL    HW111930   4.296   1.332  12.259
36697SOL    HW211931   4.308   1.360  12.408
36698SOL     OW11932   9.820  13.789   8.697
36698SOL    HW111933   9.852  13.717   8.751
36698SOL    HW211934   9.728  13.797   8.720
36699SOL     OW11935  11.085  14.559   6.481
36699SOL    HW111936  11.140  14.507   6.423
36699SOL    HW211937  11.134  14.565   6.562
36700SOL     OW11938   3.331  14.372  11.110
36700SOL    HW111939   3.399  14.309  11.133
36700SOL    HW211940   3.377  14.456  11.104
36701SOL     OW11941   4.866   5.339  11.794
36701SOL    HW111942   4.775   5.367  11.785
36701SOL    HW211943   4.918   5.413  11.762
36702SOL     OW11944   6.537   6.100  13.161
36702SOL    HW111945   6.577   6.129  13.079
36702SOL    HW211946   6.443   6.108  13.146
36703SOL     OW11947  14.426   6.709  10.546
36703SOL    HW111948  14.507   6.722  10.596
36703SOL    HW211949  14.434   6.620  10.512
36704SOL     OW11950   1.725   5.044   8.644
36704SOL    HW111951   1.784   5.089   8.585
36704SOL    HW211952   1.643   5.037   8.595
36705SOL     OW11953   8.575   3.782  11.068
36705SOL    HW111954   8.594   3.697  11.027
36705SOL    HW211955   8.606   3.846  11.004
36706SOL     OW11956   5.921   7.058   4.665
36706SOL    HW111957   5.859   7.130   4.654
36706SOL    HW211958   5.893   6.992   4.601
36707SOL     OW11959  10.286   8.742   9.147
36707SOL    HW111960  10.214   8.681   9.160
36707SOL    HW211961  10.327   8.712   9.065
36708SOL     OW11962   5.660   9.855   6.138
36708SOL    HW111963   5.595   9.854   6.208
36708SOL    HW211964   5.743   9.874   6.183
36709SOL     OW11965   7.950   5.029  13.915
36709SOL    HW111966   7.882   5.096  13.909
36709SOL    HW211967   7.966   5.019  14.008
36710SOL     OW11968   6.659   7.794   9.405
36710SOL    HW111969   6.577   7.793   9.455
36710SOL    HW211970   6.634   7.830   9.320
36711SOL     OW11971   3.422   7.354  14.770
36711SOL    HW111972   3.395   7.439  14.736
36711SOL    HW211973   3.347   7.323  14.821
36712SOL     OW11974   6.675   2.966   7.923
36712SOL    HW111975   6.656   2.934   7.835
36712SOL    HW211976   6.725   2.896   7.965
36713SOL     OW11977   0.505  12.202   9.685
36713SOL    HW111978   0.443  12.136   9.717
36713SOL    HW211979   0.591  12.166   9.707
36714SOL     OW11980   9.769  12.481   4.497
36714SOL    HW111981   9.798  12.520   4.415
36714SOL    HW211982   9.850  12.454   4.541
36715SOL     OW11983   7.862   1.754   9.824
36715SOL    HW111984   7.872   1.779   9.732
36715SOL    HW211985   7.867   1.837   9.872
36716SOL     OW11986  12.650   1.080  14.469
36716SOL    HW111987  12.693   1.015  14.525
36716SOL    HW211988  12.625   1.150  14.529
36717SOL     OW11989   8.999   9.323   0.169
36717SOL    HW111990   8.918   9.327   0.220
36717SOL    HW211991   8.984   9.383   0.096
36718SOL     OW11992   2.552   3.847   2.660
36718SOL    HW111993   2.515   3.865   2.746
36718SOL    HW211994   2.637   3.806   2.679
36719SOL     OW11995   9.675  13.207   2.267
36719SOL    HW111996   9.732  13.281   2.288
36719SOL    HW211997   9.600  13.217   2.325
36720SOL     OW11998  13.518  13.420  11.759
36720SOL    HW111999  13.483  13.339  11.721
36720SOL    HW212000  13.596  13.439  11.707
36721SOL     OW12001   6.401   4.044   3.731
36721SOL    HW112002   6.392   4.099   3.808
36721SOL    HW212003   6.315   4.045   3.689
36722SOL     OW12004  13.681  14.805   4.302
36722SOL    HW112005  13.689  14.713   4.329
36722SOL    HW212006  13.768  14.842   4.317
36723SOL     OW12007   6.788   8.887   6.230
36723SOL    HW112008   6.838   8.812   6.198
36723SOL    HW212009   6.700   8.853   6.244
36724SOL     OW12010  14.797   1.807  10.730
36724SOL    HW112011  14.728   1.872  10.714
36724SOL    HW212012  14.771   1.731  10.677
36725SOL     OW12013   6.619   4.167  13.885
36725SOL    HW112014   6.570   4.245  13.859
36725SOL    HW212015   6.706   4.200  13.907
36726SOL     OW12016  10.468   8.442   2.048
36726SOL    HW112017  10.525   8.379   2.003
36726SOL    HW212018  10.521   8.476   2.119
36727SOL     OW12019   2.441   3.508  10.717
36727SOL    HW112020   2.436   3.579  10.781
36727SOL    HW212021   2.362   3.456  10.732
36728SOL     OW12022   2.038   8.015   6.769
36728SOL    HW112023   2.003   8.083   6.712
36728SOL    HW212024   1.976   7.942   6.762
36729SOL     OW12025  12.423  14.335   0.979
36729SOL    HW112026  12.449  14.250   0.944
36729SOL    HW212027  12.448  14.398   0.911
36730SOL     OW12028  12.737  13.289   3.634
36730SOL    HW112029  12.826  13.259   3.615
36730SOL    HW212030  12.724  13.271   3.727
36731SOL     OW12031   7.108   6.735   1.261
36731SOL    HW112032   7.044   6.664   1.269
36731SOL    HW212033   7.149   6.741   1.347
36732SOL     OW12034  14.467   1.729  10.046
36732SOL    HW112035  14.511   1.779   9.977
36732SOL    HW212036  14.406   1.672   9.999
36733SOL     OW12037   2.025   5.846   2.011
36733SOL    HW112038   1.974   5.903   2.068
36733SOL    HW212039   2.111   5.840   2.054
36734SOL     OW12040   8.784   7.350  12.163
36734SOL    HW112041   8.788   7.400  12.082
36734SOL    HW212042   8.695   7.315  12.165
36735SOL     OW12043   2.786  13.176   8.294
36735SOL    HW112044   2.794  13.271   8.291
36735SOL    HW212045   2.852  13.143   8.233
36736SOL     OW12046   3.384  10.130   4.126
36736SOL    HW112047   3.351  10.219   4.115
36736SOL    HW212048   3.307  10.074   4.117
36737SOL     OW12049  12.779   5.133   2.661
36737SOL    HW112050  12.730   5.183   2.727
36737SOL    HW212051  12.746   5.166   2.578
36738SOL     OW12052   6.083   8.501  12.537
36738SOL    HW112053   5.994   8.506  12.573
36738SOL    HW212054   6.079   8.432  12.471
36739SOL     OW12055  11.413   1.282  12.935
36739SOL    HW112056  11.409   1.188  12.950
36739SOL    HW212057  11.506   1.302  12.928
36740SOL     OW12058  11.976   1.717   4.500
36740SOL    HW112059  12.030   1.690   4.574
36740SOL    HW212060  11.987   1.812   4.495
36741SOL     OW12061   7.868  13.825   4.280
36741SOL    HW112062   7.953  13.869   4.277
36741SOL    HW212063   7.804  13.895   4.283
36742SOL     OW12064   0.258   1.638   8.542
36742SOL    HW112065   0.326   1.571   8.530
36742SOL    HW212066   0.234   1.631   8.634
36743SOL     OW12067   7.288  10.811   2.663
36743SOL    HW112068   7.203  10.782   2.630
36743SOL    HW212069   7.289  10.906   2.648
36744SOL     OW12070   1.701  12.313   5.584
36744SOL    HW112071   1.681  12.278   5.497
36744SOL    HW212072   1.783  12.269   5.609
36745SOL     OW12073   6.481  13.647   6.975
36745SOL    HW112074   6.525  13.620   6.894
36745SOL    HW212075   6.434  13.728   6.951
36746SOL     OW12076   3.838   5.671  12.185
36746SOL    HW112077   3.874   5.730  12.250
36746SOL    HW212078   3.858   5.713  12.101
36747SOL     OW12079   7.232   0.969   5.064
36747SOL    HW112080   7.300   1.003   5.006
36747SOL    HW212081   7.150   0.984   5.017
36748SOL     OW12082   4.416  14.668   8.404
36748SOL    HW112083   4.445  14.734   8.466
36748SOL    HW212084   4.488  14.606   8.398
36749SOL     OW12085   0.736   9.112  12.441
36749SOL    HW112086   0.787   9.045  12.485
36749SOL    HW212087   0.800   9.181  12.420
36750SOL     OW12088  12.022   3.926   8.350
36750SOL    HW112089  12.076   3.868   8.404
36750SOL    HW212090  11.939   3.932   8.397
36751SOL     OW12091  12.885   0.390  13.582
36751SOL    HW112092  12.948   0.377  13.511
36751SOL    HW212093  12.808   0.341  13.555
36752SOL     OW12094   7.190   7.312   3.296
36752SOL    HW112095   7.190   7.251   3.222
36752SOL    HW212096   7.191   7.399   3.255
36753SOL     OW12097   7.999  13.920  13.081
36753SOL    HW112098   7.944  13.846  13.056
36753SOL    HW212099   7.946  13.997  13.060
36754SOL     OW12100   8.752   6.608  14.155
36754SOL    HW112101   8.668   6.634  14.117
36754SOL    HW212102   8.791   6.690  14.186
36755SOL     OW12103   3.767   2.235   6.080
36755SOL    HW112104   3.756   2.330   6.086
36755SOL    HW212105   3.860   2.223   6.058
36756SOL     OW12106   0.199  13.891  12.923
36756SOL    HW112107   0.195  13.942  13.004
36756SOL    HW212108   0.134  13.822  12.935
36757SOL     OW12109   2.874  10.199   3.459
36757SOL    HW112110   2.970  10.193   3.462
36757SOL    HW212111   2.856  10.252   3.381
36758SOL     OW12112   4.477  13.278  13.957
36758SOL    HW112113   4.557  13.329  13.940
36758SOL    HW212114   4.481  13.259  14.050
36759SOL     OW12115   1.616   4.896   1.781
36759SOL    HW112116   1.605   4.990   1.791
36759SOL    HW212117   1.691   4.875   1.838
36760SOL     OW12118   7.366   5.425   9.348
36760SOL    HW112119   7.306   5.476   9.292
36760SOL    HW212120   7.316   5.347   9.373
36761SOL     OW12121  13.229  10.317   2.558
36761SOL    HW112122  13.257  10.260   2.630
36761SOL    HW212123  13.267  10.277   2.480
36762SOL     OW12124  11.742   9.064  12.539
36762SOL    HW112125  11.651   9.036  12.544
36762SOL    HW212126  11.740   9.157  12.560
36763SOL     OW12127   1.272  11.394   8.870
36763SOL    HW112128   1.286  11.372   8.962
36763SOL    HW212129   1.351  11.442   8.844
36764SOL     OW12130   4.859   0.143  14.148
36764SOL    HW112131   4.846   0.236  14.164
36764SOL    HW212132   4.835   0.101  14.230
36765SOL     OW12133  14.519  14.353  12.825
36765SOL    HW112134  14.429  14.331  12.851
36765SOL    HW212135  14.524  14.448  12.836
36766SOL     OW12136   4.673   8.451  14.307
36766SOL    HW112137   4.737   8.403  14.359
36766SOL    HW212138   4.657   8.395  14.231
36767SOL     OW12139   8.529  13.897   7.031
36767SOL    HW112140   8.577  13.851   7.101
36767SOL    HW212141   8.479  13.965   7.076
36768SOL     OW12142   9.358  14.093  11.148
36768SOL    HW112143   9.290  14.075  11.214
36768SOL    HW212144   9.440  14.089  11.196
36769SOL     OW12145   1.376   7.556   8.913
36769SOL    HW112146   1.428   7.626   8.872
36769SOL    HW212147   1.418   7.542   8.998
36770SOL     OW12148   8.621  11.124  13.933
36770SOL    HW112149   8.580  11.039  13.951
36770SOL    HW212150   8.556  11.188  13.964
36771SOL     OW12151   8.552   1.659  11.405
36771SOL    HW112152   8.603   1.738  11.390
36771SOL    HW212153   8.604   1.589  11.366
36772SOL     OW12154   1.456   1.900   7.597
36772SOL    HW112155   1.434   1.927   7.507
36772SOL    HW212156   1.429   1.808   7.601
36773SOL     OW12157   5.727   6.058   7.042
36773SOL    HW112158   5.721   6.114   6.965
36773SOL    HW212159   5.640   6.063   7.082
36774SOL     OW12160   3.554  11.893  11.108
36774SOL    HW112161   3.470  11.909  11.150
36774SOL    HW212162   3.545  11.807  11.067
36775SOL     OW12163  12.588   0.442  11.741
36775SOL    HW112164  12.611   0.437  11.834
36775SOL    HW212165  12.495   0.418  11.738
36776SOL     OW12166   0.620   3.440  11.067
36776SOL    HW112167   0.692   3.459  11.127
36776SOL    HW212168   0.653   3.371  11.011
36777SOL     OW12169  13.903  10.463   2.760
36777SOL    HW112170  13.955  10.456   2.840
36777SOL    HW212171  13.967  10.456   2.689
36778SOL     OW12172   0.422   4.435  10.962
36778SOL    HW112173   0.375   4.506  11.007
36778SOL    HW212174   0.407   4.358  11.018
36779SOL     OW12175   9.058  11.184   2.090
36779SOL    HW112176   9.115  11.204   2.016
36779SOL    HW212177   8.993  11.124   2.055
36780SOL     OW12178   5.297   1.212   4.735
36780SOL    HW112179   5.297   1.175   4.824
36780SOL    HW212180   5.382   1.188   4.699
36781SOL     OW12181  11.816   2.932   5.699
36781SOL    HW112182  11.848   3.018   5.727
36781SOL    HW212183  11.875   2.907   5.628
36782SOL     OW12184   7.241   2.091  13.908
36782SOL    HW112185   7.287   2.157  13.857
36782SOL    HW212186   7.288   2.010  13.891
36783SOL     OW12187   6.892  10.948   2.329
36783SOL    HW112188   6.893  10.953   2.233
36783SOL    HW212189   6.969  10.896   2.351
36784SOL     OW12190  12.560   2.090   0.001
36784SOL    HW112191  12.573   2.159   0.067
36784SOL    HW212192  12.648   2.074  14.848
36785SOL     OW12193   8.925   0.573   4.515
36785SOL    HW112194   8.878   0.561   4.597
36785SOL    HW212195   9.011   0.606   4.540
36786SOL     OW12196   0.363   7.401  14.514
36786SOL    HW112197   0.409   7.318  14.522
36786SOL    HW212198   0.425   7.459  14.470
36787SOL     OW12199  11.103  13.293   8.811
36787SOL    HW112200  11.103  13.205   8.773
36787SOL    HW212201  11.021  13.299   8.860
36788SOL     OW12202  13.619  13.078   7.477
36788SOL    HW112203  13.698  13.076   7.530
36788SOL    HW212204  13.603  12.986   7.453
36789SOL     OW12205  11.799   1.344   6.766
36789SOL    HW112206  11.886   1.336   6.727
36789SOL    HW212207  11.810   1.313   6.856
36790SOL     OW12208   7.288   8.137  13.213
36790SOL    HW112209   7.254   8.053  13.244
36790SOL    HW212210   7.210   8.193  13.206
36791SOL     OW12211   8.164   4.283  12.600
36791SOL    HW112212   8.175   4.308  12.691
36791SOL    HW212213   8.083   4.233  12.598
36792SOL     OW12214   5.173   2.743   6.637
36792SOL    HW112215   5.085   2.722   6.606
36792SOL    HW212216   5.173   2.838   6.647
36793SOL     OW12217   1.934  12.954   5.964
36793SOL    HW112218   2.005  12.982   6.022
36793SOL    HW212219   1.962  12.982   5.877
36794SOL     OW12220   2.411   3.960  13.607
36794SOL    HW112221   2.506   3.974  13.607
36794SOL    HW212222   2.380   4.009  13.531
36795SOL     OW12223   6.922   5.012   5.871
36795SOL    HW112224   6.854   5.080   5.867
36795SOL    HW212225   6.900   4.962   5.950
36796SOL     OW12226  11.431   3.781   5.580
36796SOL    HW112227  11.411   3.736   5.498
36796SOL    HW212228  11.389   3.728   5.648
36797SOL     OW12229   7.331   1.748  14.016
36797SOL    HW112230   7.402   1.798  13.977
36797SOL    HW212231   7.359   1.733  14.106
36798SOL     OW12232  14.304   9.442   2.278
36798SOL    HW112233  14.316   9.514   2.340
36798SOL    HW212234  14.392   9.407   2.265
36799SOL     OW12235   9.048   7.992  11.924
36799SOL    HW112236   8.973   7.934  11.942
36799SOL    HW212237   9.012   8.059  11.866
36800SOL     OW12238  13.512   7.042   8.672
36800SOL    HW112239  13.576   7.105   8.705
36800SOL    HW212240  13.446   7.096   8.629
36801SOL     OW12241   6.052   4.233  11.374
36801SOL    HW112242   6.115   4.293  11.333
36801SOL    HW212243   6.064   4.150  11.328
36802SOL     OW12244  12.758   4.254   5.469
36802SOL    HW112245  12.738   4.174   5.420
36802SOL    HW212246  12.841   4.284   5.433
36803SOL     OW12247   4.603   6.577  10.831
36803SOL    HW112248   4.536   6.620  10.778
36803SOL    HW212249   4.568   6.578  10.920
36804SOL     OW12250   7.523   7.950  14.334
36804SOL    HW112251   7.618   7.954  14.329
36804SOL    HW212252   7.502   7.857  14.325
36805SOL     OW12253   5.525   5.352  12.110
36805SOL    HW112254   5.621   5.351  12.114
36805SOL    HW212255   5.499   5.415  12.176
36806SOL     OW12256   3.910  13.402   1.119
36806SOL    HW112257   3.943  13.463   1.054
36806SOL    HW212258   3.963  13.417   1.197
36807SOL     OW12259   5.792   4.596  12.750
36807SOL    HW112260   5.828   4.552  12.827
36807SOL    HW212261   5.727   4.534  12.716
36808SOL     OW12262   2.079   6.468  10.665
36808SOL    HW112263   2.063   6.561  10.681
36808SOL    HW212264   2.098   6.464  10.571
36809SOL     OW12265   3.078   8.984   5.502
36809SOL    HW112266   3.044   8.980   5.592
36809SOL    HW212267   3.004   8.960   5.447
36810SOL     OW12268   1.233   8.270  11.573
36810SOL    HW112269   1.192   8.193  11.614
36810SOL    HW212270   1.325   8.244  11.562
36811SOL     OW12271   8.320   2.896  14.341
36811SOL    HW112272   8.409   2.876  14.312
36811SOL    HW212273   8.322   2.880  14.435
36812SOL     OW12274   6.558   0.264  13.567
36812SOL    HW112275   6.517   0.220  13.493
36812SOL    HW212276   6.493   0.328  13.596
36813SOL     OW12277  13.988   5.127   5.448
36813SOL    HW112278  13.906   5.155   5.489
36813SOL    HW212279  14.022   5.207   5.408
36814SOL     OW12280   2.573   5.700   8.720
36814SOL    HW112281   2.651   5.754   8.736
36814SOL    HW212282   2.513   5.724   8.791
36815SOL     OW12283   8.415   8.937   5.419
36815SOL    HW112284   8.417   8.899   5.331
36815SOL    HW212285   8.501   8.977   5.430
36816SOL     OW12286   6.818   3.908   1.121
36816SOL    HW112287   6.801   3.933   1.212
36816SOL    HW212288   6.731   3.892   1.084
36817SOL     OW12289   2.115  14.063  11.561
36817SOL    HW112290   2.078  14.137  11.609
36817SOL    HW212291   2.073  13.986  11.599
36818SOL     OW12292   9.648   7.211   4.955
36818SOL    HW112293   9.675   7.303   4.953
36818SOL    HW212294   9.687   7.176   5.035
36819SOL     OW12295   9.750  12.373   6.472
36819SOL    HW112296   9.800  12.437   6.422
36819SOL    HW212297   9.811  12.301   6.488
36820SOL     OW12298   5.448  10.845   2.208
36820SOL    HW112299   5.469  10.844   2.301
36820SOL    HW212300   5.421  10.755   2.189
36821SOL     OW12301   8.065   4.223  10.676
36821SOL    HW112302   8.067   4.191  10.586
36821SOL    HW212303   7.982   4.192  10.711
36822SOL     OW12304   9.823   6.948   8.561
36822SOL    HW112305   9.796   6.904   8.481
36822SOL    HW212306   9.888   7.012   8.532
36823SOL     OW12307   7.412  13.047   0.342
36823SOL    HW112308   7.383  13.105   0.271
36823SOL    HW212309   7.332  13.002   0.370
36824SOL     OW12310   5.016   3.297   8.913
36824SOL    HW112311   4.981   3.350   8.984
36824SOL    HW212312   5.066   3.358   8.859
36825SOL     OW12313   2.114   3.071   5.559
36825SOL    HW112314   2.132   3.122   5.637
36825SOL    HW212315   2.157   3.120   5.488
36826SOL     OW12316  11.316  14.040   2.469
36826SOL    HW112317  11.317  14.037   2.565
36826SOL    HW212318  11.224  14.042   2.446
36827SOL     OW12319   4.962   6.564   5.167
36827SOL    HW112320   4.993   6.654   5.175
36827SOL    HW212321   4.877   6.565   5.210
36828SOL     OW12322   6.734   7.257   5.210
36828SOL    HW112323   6.794   7.288   5.143
36828SOL    HW212324   6.747   7.317   5.283
36829SOL     OW12325  12.960   9.050  13.978
36829SOL    HW112326  12.972   8.957  13.997
36829SOL    HW212327  12.895   9.079  14.042
36830SOL     OW12328  12.504  10.100   0.983
36830SOL    HW112329  12.441  10.159   0.942
36830SOL    HW212330  12.554  10.155   1.042
36831SOL     OW12331  12.559   8.618   8.551
36831SOL    HW112332  12.583   8.612   8.459
36831SOL    HW212333  12.560   8.527   8.581
36832SOL     OW12334  14.601  12.257   2.249
36832SOL    HW112335  14.576  12.244   2.340
36832SOL    HW212336  14.530  12.310   2.212
36833SOL     OW12337   6.150  14.564   7.954
36833SOL    HW112338   6.082  14.598   8.012
36833SOL    HW212339   6.137  14.610   7.871
36834SOL     OW12340   1.769  11.218   4.234
36834SOL    HW112341   1.748  11.262   4.317
36834SOL    HW212342   1.849  11.261   4.205
36835SOL     OW12343  12.913   4.969   2.012
36835SOL    HW112344  12.979   5.038   1.999
36835SOL    HW212345  12.871   4.961   1.926
36836SOL     OW12346  12.433  10.882  13.559
36836SOL    HW112347  12.392  10.886  13.645
36836SOL    HW212348  12.360  10.877  13.498
36837SOL     OW12349   2.339   7.461   5.811
36837SOL    HW112350   2.344   7.467   5.716
36837SOL    HW212351   2.425   7.430   5.838
36838SOL     OW12352   5.027   5.096  13.942
36838SOL    HW112353   5.087   5.022  13.933
36838SOL    HW212354   4.948   5.059  13.980
36839SOL     OW12355   5.935   8.154  12.499
36839SOL    HW112356   5.954   8.061  12.512
36839SOL    HW212357   6.004   8.185  12.440
36840SOL     OW12358  11.127   0.416  12.636
36840SOL    HW112359  11.150   0.484  12.573
36840SOL    HW212360  11.203   0.412  12.695
36841SOL     OW12361  10.630   8.978   4.295
36841SOL    HW112362  10.716   8.936   4.288
36841SOL    HW212363  10.571   8.908   4.322
36842SOL     OW12364   1.375  11.186   7.729
36842SOL    HW112365   1.418  11.259   7.773
36842SOL    HW212366   1.356  11.218   7.641
36843SOL     OW12367  13.056   6.764  12.547
36843SOL    HW112368  13.066   6.859  12.535
36843SOL    HW212369  13.090   6.727  12.466
36844SOL     OW12370  10.198  10.494   3.715
36844SOL    HW112371  10.117  10.448   3.694
36844SOL    HW212372  10.189  10.579   3.671
36845SOL     OW12373   8.464  12.008   9.271
36845SOL    HW112374   8.405  12.010   9.196
36845SOL    HW212375   8.502  11.920   9.270
36846SOL     OW12376  10.081   4.248  14.079
36846SOL    HW112377  10.044   4.308  14.144
36846SOL    HW212378  10.172   4.236  14.107
36847SOL     OW12379   6.424   5.426  10.809
36847SOL    HW112380   6.445   5.374  10.887
36847SOL    HW212381   6.497   5.486  10.799
36848SOL     OW12382  11.369   9.033   2.536
36848SOL    HW112383  11.372   8.939   2.557
36848SOL    HW212384  11.452   9.049   2.490
36849SOL     OW12385   1.016  11.396  13.506
36849SOL    HW112386   1.060  11.311  13.507
36849SOL    HW212387   0.923  11.375  13.511
36850SOL     OW12388   6.975   4.145   2.399
36850SOL    HW112389   6.921   4.224   2.385
36850SOL    HW212390   6.974   4.132   2.494
36851SOL     OW12391   6.410  14.094   3.792
36851SOL    HW112392   6.374  14.029   3.851
36851SOL    HW212393   6.484  14.131   3.839
36852SOL     OW12394  13.183   2.532   7.021
36852SOL    HW112395  13.213   2.534   7.113
36852SOL    HW212396  13.217   2.449   6.987
36853SOL     OW12397   2.281   3.534   8.856
36853SOL    HW112398   2.368   3.496   8.869
36853SOL    HW212399   2.275   3.604   8.921
36854SOL     OW12400   1.613  11.937   2.563
36854SOL    HW112401   1.611  12.033   2.564
36854SOL    HW212402   1.523  11.911   2.580
36855SOL     OW12403   7.361   8.779  11.197
36855SOL    HW112404   7.285   8.761  11.142
36855SOL    HW212405   7.398   8.693  11.216
36856SOL     OW12406   5.135   1.026   8.954
36856SOL    HW112407   5.081   0.958   8.914
36856SOL    HW212408   5.116   1.105   8.902
36857SOL     OW12409   9.309   5.662  13.902
36857SOL    HW112410   9.309   5.751  13.867
36857SOL    HW212411   9.233   5.659  13.960
36858SOL     OW12412   7.254   8.428   3.204
36858SOL    HW112413   7.230   8.518   3.184
36858SOL    HW212414   7.232   8.417   3.296
36859SOL     OW12415   8.750   2.654   0.806
36859SOL    HW112416   8.787   2.580   0.758
36859SOL    HW212417   8.826   2.704   0.835
36860SOL     OW12418   1.278  13.906   1.661
36860SOL    HW112419   1.327  13.979   1.625
36860SOL    HW212420   1.233  13.943   1.737
36861SOL     OW12421   1.771  14.127   2.433
36861SOL    HW112422   1.745  14.185   2.505
36861SOL    HW212423   1.764  14.039   2.470
36862SOL     OW12424  11.607  10.159  11.527
36862SOL    HW112425  11.567  10.079  11.493
36862SOL    HW212426  11.539  10.226  11.517
36863SOL     OW12427   4.669   9.755   6.334
36863SOL    HW112428   4.632   9.697   6.267
36863SOL    HW212429   4.687   9.837   6.288
36864SOL     OW12430   0.544   8.923   4.948
36864SOL    HW112431   0.535   8.994   4.884
36864SOL    HW212432   0.528   8.843   4.898
36865SOL     OW12433  10.022  10.551   4.881
36865SOL    HW112434  10.054  10.488   4.945
36865SOL    HW212435   9.996  10.498   4.805
36866SOL     OW12436   7.249   6.816   5.762
36866SOL    HW112437   7.260   6.897   5.712
36866SOL    HW212438   7.157   6.815   5.788
36867SOL     OW12439  12.937  11.575   5.475
36867SOL    HW112440  12.924  11.557   5.381
36867SOL    HW212441  12.976  11.662   5.477
36868SOL     OW12442  11.902   8.982   7.082
36868SOL    HW112443  11.926   9.015   6.996
36868SOL    HW212444  11.968   9.017   7.141
36869SOL     OW12445   5.226  14.097   6.960
36869SOL    HW112446   5.172  14.170   6.989
36869SOL    HW212447   5.316  14.127   6.971
36870SOL     OW12448  10.931  10.124  10.446
36870SOL    HW112449  10.891  10.044  10.413
36870SOL    HW212450  10.942  10.109  10.539
36871SOL     OW12451   0.709   5.728  12.419
36871SOL    HW112452   0.686   5.820  12.431
36871SOL    HW212453   0.667   5.704  12.336
36872SOL     OW12454   9.086   5.070   5.892
36872SOL    HW112455   9.096   5.165   5.885
36872SOL    HW212456   9.081   5.054   5.986
36873SOL     OW12457   8.781  11.618   6.392
36873SOL    HW112458   8.787  11.544   6.453
36873SOL    HW212459   8.862  11.667   6.406
36874SOL     OW12460   9.714   5.646   3.107
36874SOL    HW112461   9.702   5.552   3.096
36874SOL    HW212462   9.808   5.660   3.093
36875SOL     OW12463  12.371  10.386   8.045
36875SOL    HW112464  12.452  10.368   8.092
36875SOL    HW212465  12.365  10.481   8.042
36876SOL     OW12466   4.680  12.389   2.792
36876SOL    HW112467   4.659  12.448   2.865
36876SOL    HW212468   4.639  12.306   2.817
36877SOL     OW12469  13.267  14.404  14.819
36877SOL    HW112470  13.227  14.488  14.795
36877SOL    HW212471  13.361  14.421  14.812
36878SOL     OW12472   6.136  12.575   6.729
36878SOL    HW112473   6.223  12.558   6.693
36878SOL    HW212474   6.083  12.502   6.698
36879SOL     OW12475   4.651  11.383   2.116
36879SOL    HW112476   4.555  11.378   2.112
36879SOL    HW212477   4.673  11.345   2.202
36880SOL     OW12478   8.501  11.445   0.204
36880SOL    HW112479   8.568  11.465   0.269
36880SOL    HW212480   8.468  11.358   0.228
36881SOL     OW12481   0.526  11.570  12.477
36881SOL    HW112482   0.587  11.554  12.405
36881SOL    HW212483   0.455  11.620  12.438
36882SOL     OW12484   2.748   2.832  12.566
36882SOL    HW112485   2.718   2.815  12.476
36882SOL    HW212486   2.838   2.863  12.556
36883SOL     OW12487   1.352   6.409   7.759
36883SOL    HW112488   1.317   6.343   7.819
36883SOL    HW212489   1.426   6.448   7.805
36884SOL     OW12490  10.317   3.318   7.456
36884SOL    HW112491  10.230   3.327   7.418
36884SOL    HW212492  10.300   3.286   7.545
36885SOL     OW12493  14.766   8.860  12.463
36885SOL    HW112494  14.689   8.897  12.421
36885SOL    HW212495  14.790   8.786  12.407
36886SOL     OW12496  13.633   9.419   8.107
36886SOL    HW112497  13.664   9.453   8.023
36886SOL    HW212498  13.698   9.353   8.131
36887SOL     OW12499   8.514   7.165   7.380
36887SOL    HW112500   8.499   7.257   7.358
36887SOL    HW212501   8.516   7.163   7.475
36888SOL     OW12502  14.153  11.836   4.605
36888SOL    HW112503  14.165  11.751   4.563
36888SOL    HW212504  14.074  11.872   4.566
36889SOL     OW12505   3.783   7.032   4.565
36889SOL    HW112506   3.831   6.954   4.536
36889SOL    HW212507   3.852   7.095   4.587
36890SOL     OW12508  12.729   5.599  10.806
36890SOL    HW112509  12.674   5.628  10.879
36890SOL    HW212510  12.819   5.604  10.840
36891SOL     OW12511  14.595   4.651   1.578
36891SOL    HW112512  14.525   4.628   1.517
36891SOL    HW212513  14.611   4.571   1.627
36892SOL     OW12514  14.616   1.319   9.266
36892SOL    HW112515  14.582   1.236   9.233
36892SOL    HW212516  14.628   1.373   9.187
36893SOL     OW12517  13.759  14.016  14.719
36893SOL    HW112518  13.840  13.967  14.703
36893SOL    HW212519  13.741  14.003  14.812
36894SOL     OW12520   5.318  11.219   3.676
36894SOL    HW112521   5.235  11.262   3.698
36894SOL    HW212522   5.299  11.166   3.599
36895SOL     OW12523  10.293  12.332   4.902
36895SOL    HW112524  10.286  12.375   4.817
36895SOL    HW212525  10.386  12.310   4.910
36896SOL     OW12526   5.731   1.839   2.189
36896SOL    HW112527   5.646   1.838   2.145
36896SOL    HW212528   5.787   1.891   2.132
36897SOL     OW12529  13.319  13.217  10.054
36897SOL    HW112530  13.274  13.221  10.139
36897SOL    HW212531  13.279  13.143  10.008
36898SOL     OW12532   4.092  11.125   1.582
36898SOL    HW112533   4.136  11.057   1.532
36898SOL    HW212534   4.124  11.208   1.545
36899SOL     OW12535   5.774   7.500  11.819
36899SOL    HW112536   5.724   7.533  11.894
36899SOL    HW212537   5.799   7.579  11.771
36900SOL     OW12538   4.041   1.733   4.066
36900SOL    HW112539   3.957   1.747   4.110
36900SOL    HW212540   4.107   1.742   4.135
36901SOL     OW12541   4.818   6.253  13.616
36901SOL    HW112542   4.813   6.339  13.573
36901SOL    HW212543   4.767   6.195  13.560
36902SOL     OW12544   8.430  11.591   8.415
36902SOL    HW112545   8.435  11.657   8.346
36902SOL    HW212546   8.338  11.589   8.441
36903SOL     OW12547  12.220  12.815   7.407
36903SOL    HW112548  12.198  12.907   7.426
36903SOL    HW212549  12.217  12.772   7.492
36904SOL     OW12550  13.812   1.187   4.460
36904SOL    HW112551  13.764   1.263   4.428
36904SOL    HW212552  13.853   1.150   4.382
36905SOL     OW12553  13.542   6.762   4.734
36905SOL    HW112554  13.448   6.779   4.732
36905SOL    HW212555  13.582   6.846   4.714
36906SOL     OW12556   1.017  10.101   6.368
36906SOL    HW112557   0.959  10.124   6.296
36906SOL    HW212558   0.981  10.146   6.444
36907SOL     OW12559  10.500   8.564  13.853
36907SOL    HW112560  10.528   8.653  13.875
36907SOL    HW212561  10.437   8.576  13.782
36908SOL     OW12562   8.540   6.138  13.912
36908SOL    HW112563   8.600   6.213  13.910
36908SOL    HW212564   8.462   6.168  13.866
36909SOL     OW12565   6.117   1.874   8.386
36909SOL    HW112566   6.107   1.966   8.409
36909SOL    HW212567   6.056   1.827   8.442
36910SOL     OW12568  13.253   8.284  11.721
36910SOL    HW112569  13.241   8.349  11.791
36910SOL    HW212570  13.286   8.334  11.647
36911SOL     OW12571   1.140  12.122   3.756
36911SOL    HW112572   1.157  12.193   3.695
36911SOL    HW212573   1.197  12.050   3.725
36912SOL     OW12574   0.313  12.027   1.094
36912SOL    HW112575   0.396  12.070   1.115
36912SOL    HW212576   0.270  12.017   1.179
36913SOL     OW12577   4.716   6.705   0.018
36913SOL    HW112578   4.636   6.752   0.041
36913SOL    HW212579   4.711   6.622   0.065
36914SOL     OW12580   9.720   9.762  11.676
36914SOL    HW112581   9.798   9.755  11.621
36914SOL    HW212582   9.649   9.779  11.615
36915SOL     OW12583  10.130   4.371   3.590
36915SOL    HW112584  10.157   4.332   3.674
36915SOL    HW212585  10.125   4.297   3.530
36916SOL     OW12586  12.358  12.464  14.490
36916SOL    HW112587  12.451  12.465  14.513
36916SOL    HW212588  12.356  12.496  14.399
36917SOL     OW12589   7.892   8.486   2.060
36917SOL    HW112590   7.905   8.400   2.100
36917SOL    HW212591   7.817   8.522   2.106
36918SOL     OW12592   9.222  10.600   6.351
36918SOL    HW112593   9.147  10.647   6.388
36918SOL    HW212594   9.298  10.646   6.384
36919SOL     OW12595   0.271   2.708   9.782
36919SOL    HW112596   0.208   2.746   9.843
36919SOL    HW212597   0.237   2.621   9.763
36920SOL     OW12598   6.089   5.772   3.199
36920SOL    HW112599   6.109   5.682   3.171
36920SOL    HW212600   6.141   5.784   3.279
36921SOL     OW12601   3.080   9.008   6.656
36921SOL    HW112602   3.104   8.917   6.637
36921SOL    HW212603   3.135   9.033   6.730
36922SOL     OW12604   2.635   3.322   5.273
36922SOL    HW112605   2.644   3.240   5.321
36922SOL    HW212606   2.625   3.389   5.341
36923SOL     OW12607   1.940  14.001   3.520
36923SOL    HW112608   1.973  13.925   3.472
36923SOL    HW212609   2.010  14.022   3.583
36924SOL     OW12610   0.562   6.535  12.811
36924SOL    HW112611   0.564   6.562  12.719
36924SOL    HW212612   0.527   6.611  12.858
36925SOL     OW12613   2.041  12.484   2.295
36925SOL    HW112614   2.027  12.574   2.325
36925SOL    HW212615   1.979  12.473   2.223
36926SOL     OW12616   2.224   9.169   6.621
36926SOL    HW112617   2.226   9.124   6.536
36926SOL    HW212618   2.136   9.204   6.627
36927SOL     OW12619   9.602   3.320  10.220
36927SOL    HW112620   9.623   3.317  10.313
36927SOL    HW212621   9.583   3.228  10.197
36928SOL     OW12622  14.633   4.031   4.903
36928SOL    HW112623  14.663   3.965   4.842
36928SOL    HW212624  14.616   3.983   4.984
36929SOL     OW12625  13.079   0.394   2.736
36929SOL    HW112626  13.098   0.305   2.767
36929SOL    HW212627  13.160   0.422   2.694
36930SOL     OW12628   5.913  11.161   1.695
36930SOL    HW112629   5.942  11.234   1.641
36930SOL    HW212630   5.876  11.202   1.773
36931SOL     OW12631  10.395   5.379  14.716
36931SOL    HW112632  10.462   5.397  14.782
36931SOL    HW212633  10.436   5.315  14.657
36932SOL     OW12634   9.870  11.843   7.274
36932SOL    HW112635   9.801  11.909   7.282
36932SOL    HW212636   9.923  11.853   7.354
36933SOL     OW12637  11.989   1.751  13.680
36933SOL    HW112638  11.897   1.771  13.664
36933SOL    HW212639  12.017   1.816  13.745
36934SOL     OW12640  11.460  14.430   7.946
36934SOL    HW112641  11.448  14.381   8.027
36934SOL    HW212642  11.403  14.385   7.883
36935SOL     OW12643   6.440  12.696   3.455
36935SOL    HW112644   6.407  12.784   3.471
36935SOL    HW212645   6.455  12.692   3.361
36936SOL     OW12646   8.508   5.432   6.380
36936SOL    HW112647   8.429   5.446   6.329
36936SOL    HW212648   8.572   5.400   6.317
36937SOL     OW12649  10.187   0.125   0.062
36937SOL    HW112650  10.262   0.097   0.011
36937SOL    HW212651  10.221   0.193   0.119
36938SOL     OW12652  12.554  10.466   0.093
36938SOL    HW112653  12.553  10.399   0.161
36938SOL    HW212654  12.497  10.430   0.024
36939SOL     OW12655   6.972  14.814  12.496
36939SOL    HW112656   7.022  14.864  12.432
36939SOL    HW212657   6.995  14.852  12.581
36940SOL     OW12658   9.148   7.927   4.683
36940SOL    HW112659   9.183   8.009   4.717
36940SOL    HW212660   9.225   7.876   4.659
36941SOL     OW12661   4.195   9.241   0.624
36941SOL    HW112662   4.205   9.276   0.535
36941SOL    HW212663   4.252   9.296   0.678
36942SOL     OW12664  12.544   1.197  12.155
36942SOL    HW112665  12.627   1.153  12.176
36942SOL    HW212666  12.544   1.203  12.059
36943SOL     OW12667  11.662   7.858   3.118
36943SOL    HW112668  11.679   7.766   3.139
36943SOL    HW212669  11.732   7.905   3.162
36944SOL     OW12670   5.518   3.367   3.328
36944SOL    HW112671   5.565   3.342   3.407
36944SOL    HW212672   5.488   3.285   3.290
36945SOL     OW12673   0.875   4.161  11.722
36945SOL    HW112674   0.843   4.122  11.804
36945SOL    HW212675   0.804   4.149  11.660
36946SOL     OW12676   4.876   1.051   7.774
36946SOL    HW112677   4.971   1.065   7.781
36946SOL    HW212678   4.838   1.138   7.774
36947SOL     OW12679  10.903   9.718   9.690
36947SOL    HW112680  10.980   9.772   9.708
36947SOL    HW212681  10.848   9.773   9.634
36948SOL     OW12682  11.169   1.011   2.856
36948SOL    HW112683  11.232   1.032   2.787
36948SOL    HW212684  11.211   0.941   2.906
36949SOL     OW12685  11.323   6.393   8.319
36949SOL    HW112686  11.355   6.464   8.375
36949SOL    HW212687  11.402   6.355   8.281
36950SOL     OW12688  11.763   4.816   8.510
36950SOL    HW112689  11.689   4.876   8.518
36950SOL    HW212690  11.725   4.733   8.481
36951SOL     OW12691   0.689  13.762   5.379
36951SOL    HW112692   0.730  13.847   5.359
36951SOL    HW212693   0.662  13.771   5.470
36952SOL     OW12694   8.559  13.770  12.281
36952SOL    HW112695   8.557  13.795  12.189
36952SOL    HW212696   8.650  13.747  12.297
36953SOL     OW12697   4.611   0.984   4.464
36953SOL    HW112698   4.683   0.920   4.471
36953SOL    HW212699   4.581   0.975   4.373
36954SOL     OW12700   6.238   0.492   8.594
36954SOL    HW112701   6.210   0.431   8.662
36954SOL    HW212702   6.158   0.514   8.546
36955SOL     OW12703   1.958  10.338   7.267
36955SOL    HW112704   1.916  10.393   7.333
36955SOL    HW212705   1.886  10.304   7.214
36956SOL     OW12706  12.122   7.239  10.223
36956SOL    HW112707  12.170   7.161  10.250
36956SOL    HW212708  12.190   7.303  10.202
36957SOL     OW12709   1.863   3.745  13.084
36957SOL    HW112710   1.945   3.761  13.038
36957SOL    HW212711   1.833   3.832  13.111
36958SOL     OW12712   0.148   4.934   5.175
36958SOL    HW112713   0.174   4.990   5.247
36958SOL    HW212714   0.096   4.865   5.216
36959SOL     OW12715   1.259  11.097  14.763
36959SOL    HW112716   1.230  11.024  14.708
36959SOL    HW212717   1.211  11.172  14.729
36960SOL     OW12718   0.045   3.839   2.237
36960SOL    HW112719   0.092   3.922   2.231
36960SOL    HW212720   0.110   3.777   2.272
36961SOL     OW12721  11.667  10.867   4.124
36961SOL    HW112722  11.601  10.918   4.172
36961SOL    HW212723  11.684  10.917   4.044
36962SOL     OW12724   9.871   4.570   9.616
36962SOL    HW112725   9.919   4.567   9.699
36962SOL    HW212726   9.834   4.482   9.606
36963SOL     OW12727   7.261  11.299   8.035
36963SOL    HW112728   7.196  11.319   8.102
36963SOL    HW212729   7.214  11.252   7.967
36964SOL     OW12730   2.623   3.306   5.749
36964SOL    HW112731   2.652   3.389   5.711
36964SOL    HW212732   2.571   3.332   5.825
36965SOL     OW12733   6.866  14.875  14.558
36965SOL    HW112734   6.818  14.849  14.637
36965SOL    HW212735   6.809  14.848  14.486
36966SOL     OW12736   7.247  12.819   4.689
36966SOL    HW112737   7.294  12.776   4.618
36966SOL    HW212738   7.173  12.862   4.646
36967SOL     OW12739   7.720  11.694   4.752
36967SOL    HW112740   7.783  11.744   4.803
36967SOL    HW212741   7.737  11.603   4.776
36968SOL     OW12742  14.706   1.911   9.245
36968SOL    HW112743  14.684   1.893   9.154
36968SOL    HW212744  14.644   1.979   9.272
36969SOL     OW12745  13.270   4.871   9.698
36969SOL    HW112746  13.211   4.858   9.624
36969SOL    HW212747  13.357   4.876   9.660
36970SOL     OW12748   2.533  11.743   6.055
36970SOL    HW112749   2.512  11.809   5.989
36970SOL    HW212750   2.539  11.661   6.006
36971SOL     OW12751   1.989   8.023   9.751
36971SOL    HW112752   2.029   7.962   9.813
36971SOL    HW212753   1.984   7.974   9.669
36972SOL     OW12754   6.747   4.660   3.919
36972SOL    HW112755   6.728   4.706   4.000
36972SOL    HW212756   6.670   4.676   3.864
36973SOL     OW12757   9.358   8.678   6.671
36973SOL    HW112758   9.360   8.714   6.759
36973SOL    HW212759   9.316   8.593   6.680
36974SOL     OW12760   9.121  12.814   5.839
36974SOL    HW112761   9.216  12.809   5.850
36974SOL    HW212762   9.107  12.806   5.745
36975SOL     OW12763  13.485   6.598   0.873
36975SOL    HW112764  13.439   6.554   0.801
36975SOL    HW212765  13.433   6.579   0.951
36976SOL     OW12766   8.221   9.367   3.679
36976SOL    HW112767   8.223   9.326   3.766
36976SOL    HW212768   8.272   9.308   3.623
36977SOL     OW12769   7.150  14.094  11.535
36977SOL    HW112770   7.236  14.135  11.527
36977SOL    HW212771   7.089  14.159  11.500
36978SOL     OW12772  12.036   2.429   8.397
36978SOL    HW112773  12.077   2.506   8.357
36978SOL    HW212774  12.003   2.378   8.324
36979SOL     OW12775   0.920   0.209   3.255
36979SOL    HW112776   0.882   0.276   3.313
36979SOL    HW212777   0.845   0.172   3.208
36980SOL     OW12778   4.058   9.729   4.981
36980SOL    HW112779   3.988   9.711   5.043
36980SOL    HW212780   4.138   9.705   5.028
36981SOL     OW12781  10.467   0.604   9.685
36981SOL    HW112782  10.377   0.572   9.685
36981SOL    HW212783  10.520   0.529   9.713
36982SOL     OW12784   2.723   6.757   2.408
36982SOL    HW112785   2.644   6.703   2.408
36982SOL    HW212786   2.756   6.752   2.318
36983SOL     OW12787   2.025  10.343   5.017
36983SOL    HW112788   1.981  10.402   4.956
36983SOL    HW212789   2.024  10.258   4.973
36984SOL     OW12790   0.660  12.669   2.188
36984SOL    HW112791   0.649  12.597   2.250
36984SOL    HW212792   0.754  12.687   2.188
36985SOL     OW12793  11.854   5.039  10.654
36985SOL    HW112794  11.837   4.946  10.669
36985SOL    HW212795  11.852   5.078  10.742
36986SOL     OW12796   5.711  13.824   1.057
36986SOL    HW112797   5.777  13.777   1.005
36986SOL    HW212798   5.689  13.764   1.128
36987SOL     OW12799   8.642  10.490   4.771
36987SOL    HW112800   8.573  10.533   4.822
36987SOL    HW212801   8.689  10.437   4.835
36988SOL     OW12802   7.119   7.714   7.174
36988SOL    HW112803   7.030   7.739   7.151
36988SOL    HW212804   7.158   7.685   7.092
36989SOL     OW12805  12.925   4.754   2.770
36989SOL    HW112806  12.967   4.786   2.849
36989SOL    HW212807  12.992   4.762   2.702
36990SOL     OW12808  11.035   1.393   4.798
36990SOL    HW112809  10.998   1.383   4.885
36990SOL    HW212810  11.105   1.328   4.794
36991SOL     OW12811  13.317   6.229   4.707
36991SOL    HW112812  13.381   6.300   4.707
36991SOL    HW212813  13.316   6.198   4.798
36992SOL     OW12814   2.586   8.247   3.622
36992SOL    HW112815   2.667   8.197   3.634
36992SOL    HW212816   2.527   8.213   3.689
36993SOL     OW12817   7.453   1.061   4.924
36993SOL    HW112818   7.538   1.106   4.917
36993SOL    HW212819   7.477   0.969   4.941
36994SOL     OW12820  11.748   2.803   0.778
36994SOL    HW112821  11.659   2.768   0.776
36994SOL    HW212822  11.776   2.800   0.686
36995SOL     OW12823  13.064   2.676   4.646
36995SOL    HW112824  13.157   2.683   4.666
36995SOL    HW212825  13.029   2.764   4.661
36996SOL     OW12826   5.537  12.180   6.416
36996SOL    HW112827   5.583  12.243   6.471
36996SOL    HW212828   5.600  12.157   6.348
36997SOL     OW12829   8.218   5.365  11.029
36997SOL    HW112830   8.175   5.366  11.114
36997SOL    HW212831   8.308   5.337  11.048
36998SOL     OW12832   3.352   4.271  12.980
36998SOL    HW112833   3.312   4.286  12.894
36998SOL    HW212834   3.384   4.181  12.975
36999SOL     OW12835  10.530  12.625   4.386
36999SOL    HW112836  10.516  12.709   4.429
36999SOL    HW212837  10.499  12.638   4.297
37000SOL     OW12838  13.326   9.161  14.871
37000SOL    HW112839  13.403   9.135   0.039
37000SOL    HW212840  13.357   9.168  14.781
37001SOL     OW12841  11.107  13.818   8.185
37001SOL    HW112842  11.132  13.908   8.203
37001SOL    HW212843  11.187  13.768   8.199
37002SOL     OW12844   3.614   6.049   9.304
37002SOL    HW112845   3.530   6.053   9.349
37002SOL    HW212846   3.593   6.019   9.216
37003SOL     OW12847   9.727   4.868  10.319
37003SOL    HW112848   9.633   4.878  10.303
37003SOL    HW212849   9.750   4.784  10.277
37004SOL     OW12850   6.618   8.297   0.220
37004SOL    HW112851   6.587   8.337   0.302
37004SOL    HW212852   6.705   8.335   0.207
37005SOL     OW12853  12.618   3.577   8.698
37005SOL    HW112854  12.629   3.551   8.607
37005SOL    HW212855  12.533   3.541   8.724
37006SOL     OW12856  12.137   4.666  11.591
37006SOL    HW112857  12.151   4.754  11.556
37006SOL    HW212858  12.206   4.656  11.657
37007SOL     OW12859   8.075  14.605   7.646
37007SOL    HW112860   8.047  14.520   7.612
37007SOL    HW212861   8.105  14.586   7.735
37008SOL     OW12862   7.350  11.297   4.901
37008SOL    HW112863   7.355  11.387   4.933
37008SOL    HW212864   7.279  11.298   4.837
37009SOL     OW12865  10.328   9.418   9.688
37009SOL    HW112866  10.299   9.470   9.763
37009SOL    HW212867  10.253   9.417   9.629
37010SOL     OW12868   3.285   8.918  11.822
37010SOL    HW112869   3.308   8.852  11.757
37010SOL    HW212870   3.268   8.997  11.770
37011SOL     OW12871   0.481   5.474   6.241
37011SOL    HW112872   0.513   5.552   6.285
37011SOL    HW212873   0.531   5.402   6.280
37012SOL     OW12874   5.783  10.844   0.686
37012SOL    HW112875   5.822  10.817   0.769
37012SOL    HW212876   5.740  10.765   0.653
37013SOL     OW12877   7.584   6.479   3.050
37013SOL    HW112878   7.538   6.402   3.084
37013SOL    HW212879   7.526   6.512   2.982
37014SOL     OW12880   7.071   9.822  13.452
37014SOL    HW112881   7.082   9.830  13.357
37014SOL    HW212882   7.029   9.737  13.465
37015SOL     OW12883   8.993   7.831   0.732
37015SOL    HW112884   8.940   7.754   0.714
37015SOL    HW212885   8.931   7.896   0.766
37016SOL     OW12886   6.225  10.199  12.902
37016SOL    HW112887   6.299  10.260  12.907
37016SOL    HW212888   6.258  10.118  12.942
37017SOL     OW12889   7.488  11.487   8.396
37017SOL    HW112890   7.425  11.511   8.464
37017SOL    HW212891   7.469  11.395   8.377
37018SOL     OW12892  12.586   5.491   1.359
37018SOL    HW112893  12.598   5.414   1.303
37018SOL    HW212894  12.649   5.554   1.326
37019SOL     OW12895  10.955   9.657   1.417
37019SOL    HW112896  10.910   9.614   1.490
37019SOL    HW212897  11.017   9.591   1.385
37020SOL     OW12898  13.701   5.674   9.128
37020SOL    HW112899  13.727   5.767   9.128
37020SOL    HW212900  13.637   5.668   9.199
37021SOL     OW12901   4.764  14.022  12.780
37021SOL    HW112902   4.762  13.962  12.706
37021SOL    HW212903   4.800  13.969  12.852
37022SOL     OW12904   9.734  12.094   0.627
37022SOL    HW112905   9.648  12.108   0.667
37022SOL    HW212906   9.750  12.000   0.635
37023SOL     OW12907   8.118   0.001   1.129
37023SOL    HW112908   8.024   0.015   1.118
37023SOL    HW212909   8.126  14.842   1.215
37024SOL     OW12910   3.477   1.770   9.079
37024SOL    HW112911   3.508   1.740   8.993
37024SOL    HW212912   3.408   1.833   9.059
37025SOL     OW12913   7.512  14.573   8.103
37025SOL    HW112914   7.479  14.603   8.019
37025SOL    HW212915   7.566  14.497   8.082
37026SOL     OW12916  13.840   1.701  13.172
37026SOL    HW112917  13.912   1.726  13.231
37026SOL    HW212918  13.768   1.678  13.231
37027SOL     OW12919   0.010   1.995  13.025
37027SOL    HW112920   0.029   1.959  13.111
37027SOL    HW212921  14.817   1.944  12.993
37028SOL     OW12922  12.929  13.964   9.199
37028SOL    HW112923  12.850  14.009   9.228
37028SOL    HW212924  13.001  14.017   9.233
37029SOL     OW12925   5.940  14.529   9.883
37029SOL    HW112926   5.867  14.510   9.941
37029SOL    HW212927   6.016  14.535   9.941
37030SOL     OW12928   4.944  14.301   9.298
37030SOL    HW112929   4.887  14.277   9.370
37030SOL    HW212930   4.913  14.387   9.269
37031SOL     OW12931   9.197  12.667   8.757
37031SOL    HW112932   9.126  12.698   8.701
37031SOL    HW212933   9.182  12.710   8.841
37032SOL     OW12934   3.284  13.698  12.683
37032SOL    HW112935   3.235  13.616  12.690
37032SOL    HW212936   3.376  13.673  12.695
37033SOL     OW12937  13.336   3.033   9.027
37033SOL    HW112938  13.284   2.957   8.998
37033SOL    HW212939  13.313   3.102   8.965
37034SOL     OW12940  12.126   0.953  10.186
37034SOL    HW112941  12.208   0.907  10.166
37034SOL    HW212942  12.060   0.910  10.131
37035SOL     OW12943   9.658  10.107  14.017
37035SOL    HW112944   9.632  10.057  14.094
37035SOL    HW212945   9.671  10.042  13.949
37036SOL     OW12946  12.104  10.519   8.748
37036SOL    HW112947  12.125  10.560   8.832
37036SOL    HW212948  12.021  10.474   8.764
37037SOL     OW12949   1.504   9.043   5.362
37037SOL    HW112950   1.539   9.103   5.428
37037SOL    HW212951   1.434   8.996   5.406
37038SOL     OW12952   8.147   0.922   8.779
37038SOL    HW112953   8.062   0.953   8.811
37038SOL    HW212954   8.170   0.851   8.838
37039SOL     OW12955  12.563   2.570   4.765
37039SOL    HW112956  12.550   2.616   4.682
37039SOL    HW212957  12.657   2.551   4.767
37040SOL     OW12958   4.740  12.969   4.311
37040SOL    HW112959   4.736  13.012   4.397
37040SOL    HW212960   4.750  13.040   4.249
37041SOL     OW12961  12.606   5.973   2.458
37041SOL    HW112962  12.574   5.985   2.548
37041SOL    HW212963  12.602   5.879   2.443
37042SOL     OW12964   9.941   9.306   3.904
37042SOL    HW112965  10.004   9.244   3.869
37042SOL    HW212966   9.880   9.252   3.955
37043SOL     OW12967   1.104   6.824   4.451
37043SOL    HW112968   1.077   6.742   4.492
37043SOL    HW212969   1.036   6.842   4.386
37044SOL     OW12970  12.956   1.037   1.275
37044SOL    HW112971  12.863   1.017   1.266
37044SOL    HW212972  12.961   1.089   1.356
37045SOL     OW12973   1.959   0.046  14.443
37045SOL    HW112974   1.936   0.125  14.490
37045SOL    HW212975   2.049   0.062  14.412
37046SOL     OW12976   9.756   9.218  12.950
37046SOL    HW112977   9.683   9.272  12.920
37046SOL    HW212978   9.831   9.248  12.899
37047SOL     OW12979  10.896  14.814   7.083
37047SOL    HW112980  10.914  14.857   7.166
37047SOL    HW212981  10.895   0.003   7.019
37048SOL     OW12982  12.108  14.113   9.881
37048SOL    HW112983  12.193  14.083   9.914
37048SOL    HW212984  12.125  14.200   9.845
37049SOL     OW12985  13.788   3.807  13.221
37049SOL    HW112986  13.761   3.899  13.217
37049SOL    HW212987  13.713   3.761  13.259
37050SOL     OW12988   8.446  14.745  12.956
37050SOL    HW112989   8.511  14.801  12.998
37050SOL    HW212990   8.366  14.798  12.953
37051SOL     OW12991   6.464  12.531   9.798
37051SOL    HW112992   6.443  12.530   9.705
37051SOL    HW212993   6.514  12.451   9.813
37052SOL     OW12994  14.872   1.342  14.671
37052SOL    HW112995   0.065   1.304  14.717
37052SOL    HW212996   0.014   1.433  14.655
37053SOL     OW12997   7.869   2.696   1.616
37053SOL    HW112998   7.862   2.686   1.711
37053SOL    HW212999   7.909   2.782   1.604
37054SOL     OW13000  13.958  14.102  12.524
37054SOL    HW113001  14.047  14.085  12.556
37054SOL    HW213002  13.954  14.058  12.439
37055SOL     OW13003   5.459   7.103   0.673
37055SOL    HW113004   5.543   7.147   0.683
37055SOL    HW213005   5.418   7.110   0.759
37056SOL     OW13006  11.705  14.320   8.254
37056SOL    HW113007  11.691  14.413   8.270
37056SOL    HW213008  11.784  14.316   8.199
37057SOL     OW13009   9.039   9.684   5.543
37057SOL    HW113010   9.041   9.643   5.629
37057SOL    HW213011   9.089   9.764   5.553
37058SOL     OW13012   8.785   9.421   5.658
37058SOL    HW113013   8.860   9.465   5.697
37058SOL    HW213014   8.774   9.341   5.710
37059SOL     OW13015   2.992   1.016   9.686
37059SOL    HW113016   3.062   1.052   9.631
37059SOL    HW213017   2.928   1.086   9.692
37060SOL     OW13018   3.352   2.809   4.281
37060SOL    HW113019   3.371   2.818   4.375
37060SOL    HW213020   3.277   2.749   4.278
37061SOL     OW13021   1.134  11.824   7.649
37061SOL    HW113022   1.057  11.784   7.689
37061SOL    HW213023   1.105  11.911   7.620
37062SOL     OW13024  13.435   8.767  11.148
37062SOL    HW113025  13.426   8.847  11.200
37062SOL    HW213026  13.521   8.732  11.172
37063SOL     OW13027   5.281   5.700  11.789
37063SOL    HW113028   5.299   5.629  11.727
37063SOL    HW213029   5.330   5.675  11.867
37064SOL     OW13030   8.577  14.050   4.342
37064SOL    HW113031   8.623  14.058   4.259
37064SOL    HW213032   8.591  14.134   4.385
37065SOL     OW13033   7.174   2.441   4.269
37065SOL    HW113034   7.176   2.536   4.258
37065SOL    HW213035   7.167   2.407   4.179
37066SOL     OW13036  14.722  10.721  12.527
37066SOL    HW113037  14.782  10.650  12.504
37066SOL    HW213038  14.694  10.756  12.442
37067SOL     OW13039  11.771  10.095   3.999
37067SOL    HW113040  11.776  10.190   4.008
37067SOL    HW213041  11.834  10.061   4.062
37068SOL     OW13042   4.937   8.423   0.566
37068SOL    HW113043   4.925   8.358   0.496
37068SOL    HW213044   5.023   8.462   0.549
37069SOL     OW13045  10.454  14.690   1.311
37069SOL    HW113046  10.411  14.721   1.231
37069SOL    HW213047  10.546  14.683   1.287
37070SOL     OW13048  10.207  10.287  11.259
37070SOL    HW113049  10.298  10.261  11.272
37070SOL    HW213050  10.168  10.215  11.209
37071SOL     OW13051   1.266  11.427  14.347
37071SOL    HW113052   1.219  11.419  14.430
37071SOL    HW213053   1.302  11.515  14.349
37072SOL     OW13054  10.291   3.634   2.229
37072SOL    HW113055  10.236   3.688   2.286
37072SOL    HW213056  10.263   3.656   2.141
37073SOL     OW13057   7.876   7.600   8.653
37073SOL    HW113058   7.938   7.627   8.720
37073SOL    HW213059   7.868   7.505   8.663
37074SOL     OW13060   0.818   8.745   1.726
37074SOL    HW113061   0.812   8.796   1.645
37074SOL    HW213062   0.846   8.807   1.792
37075SOL     OW13063  11.141  12.327   4.527
37075SOL    HW113064  11.165  12.336   4.619
37075SOL    HW213065  11.166  12.237   4.505
37076SOL     OW13066   9.542   4.621   3.181
37076SOL    HW113067   9.541   4.646   3.274
37076SOL    HW213068   9.463   4.662   3.144
37077SOL     OW13069  14.589  14.804  14.297
37077SOL    HW113070  14.594  14.864  14.223
37077SOL    HW213071  14.566  14.859  14.372
37078SOL     OW13072   4.742   2.314   0.033
37078SOL    HW113073   4.808   2.262  14.870
37078SOL    HW213074   4.747   2.400  14.875
37079SOL     OW13075   0.858  11.896   3.981
37079SOL    HW113076   0.846  11.803   3.995
37079SOL    HW213077   0.942  11.903   3.935
37080SOL     OW13078   5.019   2.368   9.626
37080SOL    HW113079   4.983   2.289   9.667
37080SOL    HW213080   4.965   2.382   9.549
37081SOL     OW13081   6.120   2.400   0.374
37081SOL    HW113082   6.032   2.435   0.383
37081SOL    HW213083   6.175   2.459   0.426
37082SOL     OW13084   9.390  11.961   4.164
37082SOL    HW113085   9.334  11.965   4.241
37082SOL    HW213086   9.376  11.873   4.129
37083SOL     OW13087  10.164  11.000   1.033
37083SOL    HW113088  10.104  10.926   1.047
37083SOL    HW213089  10.239  10.981   1.089
37084SOL     OW13090   6.302   6.514  12.617
37084SOL    HW113091   6.375   6.453  12.627
37084SOL    HW213092   6.240   6.469  12.560
37085SOL     OW13093   8.377   6.429   5.266
37085SOL    HW113094   8.454   6.478   5.238
37085SOL    HW213095   8.317   6.433   5.191
37086SOL     OW13096   0.093   7.490   9.148
37086SOL    HW113097   0.052   7.504   9.063
37086SOL    HW213098   0.116   7.397   9.148
37087SOL     OW13099  10.404   2.963   5.072
37087SOL    HW113100  10.324   2.991   5.028
37087SOL    HW213101  10.473   3.015   5.031
37088SOL     OW13102  10.961   9.490  11.878
37088SOL    HW113103  10.954   9.542  11.798
37088SOL    HW213104  11.052   9.499  11.904
37089SOL     OW13105   9.836  10.004  12.105
37089SOL    HW113106   9.831   9.919  12.061
37089SOL    HW213107   9.930  10.022  12.110
37090SOL     OW13108   9.930   5.828   0.564
37090SOL    HW113109   9.923   5.890   0.636
37090SOL    HW213110   9.841   5.821   0.529
37091SOL     OW13111   0.890  11.652  14.291
37091SOL    HW113112   0.880  11.736  14.246
37091SOL    HW213113   0.937  11.597  14.228
37092SOL     OW13114   3.654   4.769  10.482
37092SOL    HW113115   3.561   4.747  10.476
37092SOL    HW213116   3.680   4.739  10.569
37093SOL     OW13117   7.008  13.244   2.471
37093SOL    HW113118   7.103  13.233   2.461
37093SOL    HW213119   6.981  13.168   2.523
37094SOL     OW13120  11.322   4.119   4.450
37094SOL    HW113121  11.396   4.128   4.510
37094SOL    HW213122  11.337   4.035   4.406
37095SOL     OW13123  11.933  13.190  10.489
37095SOL    HW113124  11.869  13.246  10.535
37095SOL    HW213125  12.018  13.220  10.522
37096SOL     OW13126   0.669  12.702   9.932
37096SOL    HW113127   0.663  12.672  10.023
37096SOL    HW213128   0.675  12.622   9.881
37097SOL     OW13129   8.592   2.313   6.176
37097SOL    HW113130   8.661   2.376   6.194
37097SOL    HW213131   8.550   2.299   6.262
37098SOL     OW13132   6.095   4.242   0.294
37098SOL    HW113133   6.176   4.276   0.332
37098SOL    HW213134   6.089   4.153   0.329
37099SOL     OW13135   9.929   7.394   0.650
37099SOL    HW113136   9.840   7.422   0.632
37099SOL    HW213137   9.923   7.299   0.658
37100SOL     OW13138   5.134  10.608   9.761
37100SOL    HW113139   5.180  10.592   9.843
37100SOL    HW213140   5.045  10.577   9.778
37101SOL     OW13141   3.995   5.428   0.260
37101SOL    HW113142   4.008   5.420   0.354
37101SOL    HW213143   4.059   5.493   0.232
37102SOL     OW13144   2.357  10.389   6.738
37102SOL    HW113145   2.410  10.405   6.816
37102SOL    HW213146   2.334  10.297   6.744
37103SOL     OW13147   7.323   5.205   3.498
37103SOL    HW113148   7.410   5.237   3.522
37103SOL    HW213149   7.300   5.145   3.569
37104SOL     OW13150   1.336   6.214   8.519
37104SOL    HW113151   1.246   6.207   8.485
37104SOL    HW213152   1.378   6.278   8.463
37105SOL     OW13153   6.669  12.232   7.503
37105SOL    HW113154   6.751  12.261   7.463
37105SOL    HW213155   6.686  12.142   7.531
37106SOL     OW13156   8.853  14.157   0.445
37106SOL    HW113157   8.938  14.201   0.458
37106SOL    HW213158   8.813  14.156   0.531
37107SOL     OW13159   8.065   1.384   1.136
37107SOL    HW113160   8.134   1.324   1.163
37107SOL    HW213161   8.095   1.470   1.164
37108SOL     OW13162   2.325   1.556   7.681
37108SOL    HW113163   2.388   1.494   7.716
37108SOL    HW213164   2.296   1.607   7.757
37109SOL     OW13165   6.426  13.425  13.653
37109SOL    HW113166   6.445  13.385  13.568
37109SOL    HW213167   6.474  13.371  13.716
37110SOL     OW13168  13.423   6.023  14.732
37110SOL    HW113169  13.369   5.984  14.801
37110SOL    HW213170  13.428   6.116  14.755
37111SOL     OW13171   2.725   7.865   5.471
37111SOL    HW113172   2.672   7.892   5.546
37111SOL    HW213173   2.747   7.947   5.427
37112SOL     OW13174   5.149   7.670   2.120
37112SOL    HW113175   5.095   7.625   2.055
37112SOL    HW213176   5.089   7.691   2.191
37113SOL     OW13177   5.804  10.892   8.098
37113SOL    HW113178   5.849  10.821   8.052
37113SOL    HW213179   5.869  10.924   8.161
37114SOL     OW13180   5.894  12.074   3.969
37114SOL    HW113181   5.982  12.040   3.953
37114SOL    HW213182   5.840  11.996   3.980
37115SOL     OW13183   9.317   0.713   8.567
37115SOL    HW113184   9.267   0.694   8.646
37115SOL    HW213185   9.277   0.658   8.499
37116SOL     OW13186   2.581  12.189   2.896
37116SOL    HW113187   2.603  12.260   2.957
37116SOL    HW213188   2.573  12.112   2.952
37117SOL     OW13189   8.851   3.258  14.342
37117SOL    HW113190   8.941   3.290  14.331
37117SOL    HW213191   8.832   3.273  14.435
37118SOL     OW13192   6.554   6.922   9.655
37118SOL    HW113193   6.626   6.956   9.601
37118SOL    HW213194   6.475   6.952   9.611
37119SOL     OW13195   3.762  11.705  13.565
37119SOL    HW113196   3.844  11.663  13.593
37119SOL    HW213197   3.777  11.726  13.473
37120SOL     OW13198   3.957   1.898  10.581
37120SOL    HW113199   4.038   1.874  10.536
37120SOL    HW213200   3.888   1.871  10.520
37121SOL     OW13201  11.625   3.813  13.593
37121SOL    HW113202  11.683   3.780  13.663
37121SOL    HW213203  11.684   3.830  13.519
37122SOL     OW13204   4.497   4.251   0.073
37122SOL    HW113205   4.547   4.202   0.138
37122SOL    HW213206   4.551   4.328   0.054
37123SOL     OW13207   0.083  13.733  11.900
37123SOL    HW113208   0.088  13.647  11.859
37123SOL    HW213209   0.146  13.786  11.851
37124SOL     OW13210  12.141   1.332   6.046
37124SOL    HW113211  12.229   1.356   6.015
37124SOL    HW213212  12.100   1.289   5.971
37125SOL     OW13213   7.749   4.484   2.105
37125SOL    HW113214   7.699   4.501   2.025
37125SOL    HW213215   7.831   4.445   2.073
37126SOL     OW13216   5.053   9.263  10.936
37126SOL    HW113217   5.107   9.339  10.957
37126SOL    HW213218   5.112   9.203  10.892
37127SOL     OW13219  12.794   4.954   1.762
37127SOL    HW113220  12.708   4.943   1.802
37127SOL    HW213221  12.777   4.960   1.668
37128SOL     OW13222   5.336  13.613  11.141
37128SOL    HW113223   5.257  13.645  11.185
37128SOL    HW213224   5.334  13.519  11.155
37129SOL     OW13225   8.381   2.528  10.275
37129SOL    HW113226   8.473   2.517  10.298
37129SOL    HW213227   8.374   2.494  10.185
37130SOL     OW13228   8.321   3.126  13.925
37130SOL    HW113229   8.354   3.191  13.986
37130SOL    HW213230   8.244   3.167  13.886
37131SOL     OW13231  13.888  12.486   3.497
37131SOL    HW113232  13.883  12.561   3.556
37131SOL    HW213233  13.855  12.413   3.549
37132SOL     OW13234  11.877   5.273   7.833
37132SOL    HW113235  11.804   5.258   7.892
37132SOL    HW213236  11.908   5.185   7.811
37133SOL     OW13237  11.533   5.062   2.401
37133SOL    HW113238  11.570   5.137   2.448
37133SOL    HW213239  11.608   5.011   2.371
37134SOL     OW13240  14.323  14.061  10.993
37134SOL    HW113241  14.269  14.124  10.946
37134SOL    HW213242  14.345  13.994  10.927
37135SOL     OW13243   5.045   1.051   4.449
37135SOL    HW113244   5.052   0.998   4.370
37135SOL    HW213245   5.118   1.112   4.445
37136SOL     OW13246   3.629   0.798   1.568
37136SOL    HW113247   3.625   0.799   1.663
37136SOL    HW213248   3.719   0.824   1.547
37137SOL     OW13249   4.167   0.961   1.324
37137SOL    HW113250   4.141   1.006   1.243
37137SOL    HW213251   4.144   1.023   1.394
37138SOL     OW13252   9.121   0.437   6.160
37138SOL    HW113253   9.032   0.414   6.188
37138SOL    HW213254   9.111   0.521   6.115
37139SOL     OW13255   2.897   0.491  13.027
37139SOL    HW113256   2.899   0.457  13.116
37139SOL    HW213257   2.881   0.584  13.037
37140SOL     OW13258  13.238   8.257   2.051
37140SOL    HW113259  13.233   8.197   2.126
37140SOL    HW213260  13.273   8.338   2.088
37141SOL     OW13261  14.002   8.546  14.568
37141SOL    HW113262  13.948   8.622  14.588
37141SOL    HW213263  14.026   8.558  14.476
37142SOL     OW13264   6.689   4.250  10.453
37142SOL    HW113265   6.710   4.172  10.504
37142SOL    HW213266   6.773   4.280  10.418
37143SOL     OW13267  14.554  14.195   1.848
37143SOL    HW113268  14.551  14.272   1.791
37143SOL    HW213269  14.647  14.179   1.862
37144SOL     OW13270   3.587  13.217  13.847
37144SOL    HW113271   3.553  13.161  13.917
37144SOL    HW213272   3.659  13.167  13.809
37145SOL     OW13273  12.010   8.069  14.039
37145SOL    HW113274  12.050   7.987  14.067
37145SOL    HW213275  12.027   8.074  13.945
37146SOL     OW13276   0.142   2.123   5.334
37146SOL    HW113277   0.086   2.195   5.364
37146SOL    HW213278   0.228   2.162   5.323
37147SOL     OW13279   0.602   7.664   3.478
37147SOL    HW113280   0.697   7.673   3.468
37147SOL    HW213281   0.574   7.747   3.517
37148SOL     OW13282   2.068   1.746   8.515
37148SOL    HW113283   2.009   1.795   8.572
37148SOL    HW213284   2.098   1.673   8.570
37149SOL     OW13285   4.553   1.841   4.824
37149SOL    HW113286   4.638   1.799   4.812
37149SOL    HW213287   4.491   1.768   4.825
37150SOL     OW13288  12.084  12.245  11.410
37150SOL    HW113289  11.993  12.268  11.428
37150SOL    HW213290  12.090  12.246  11.314
37151SOL     OW13291   5.075  14.668  14.363
37151SOL    HW113292   5.055  14.739  14.424
37151SOL    HW213293   5.050  14.702  14.277
37152SOL     OW13294  14.142   1.847   0.716
37152SOL    HW113295  14.181   1.764   0.742
37152SOL    HW213296  14.213   1.911   0.726
37153SOL     OW13297   2.807   9.037  11.176
37153SOL    HW113298   2.719   9.025  11.141
37153SOL    HW213299   2.837   9.119  11.137
37154SOL     OW13300   5.466   1.807   2.059
37154SOL    HW113301   5.511   1.809   1.974
37154SOL    HW213302   5.393   1.868   2.049
37155SOL     OW13303  13.369   3.905   2.511
37155SOL    HW113304  13.406   3.860   2.586
37155SOL    HW213305  13.362   3.997   2.538
37156SOL     OW13306   0.767   7.455   0.179
37156SOL    HW113307   0.799   7.413   0.259
37156SOL    HW213308   0.750   7.382   0.119
37157SOL     OW13309   5.548   6.774   3.928
37157SOL    HW113310   5.478   6.752   3.867
37157SOL    HW213311   5.508   6.762   4.015
37158SOL     OW13312  11.894   2.293   9.771
37158SOL    HW113313  11.905   2.384   9.798
37158SOL    HW213314  11.892   2.244   9.853
37159SOL     OW13315   3.133   0.491  13.735
37159SOL    HW113316   3.175   0.530  13.658
37159SOL    HW213317   3.199   0.495  13.803
37160SOL     OW13318   0.577  13.607  13.150
37160SOL    HW113319   0.590  13.589  13.243
37160SOL    HW213320   0.490  13.571  13.131
37161SOL     OW13321  10.759   2.095  11.734
37161SOL    HW113322  10.770   2.075  11.641
37161SOL    HW213323  10.690   2.037  11.763
37162SOL     OW13324   8.144   9.326   1.830
37162SOL    HW113325   8.144   9.298   1.738
37162SOL    HW213326   8.124   9.419   1.827
37163SOL     OW13327  13.429   5.770   5.263
37163SOL    HW113328  13.357   5.808   5.213
37163SOL    HW213329  13.438   5.826   5.339
37164SOL     OW13330   2.837  10.295  14.563
37164SOL    HW113331   2.758  10.320  14.610
37164SOL    HW213332   2.836  10.199  14.563
37165SOL     OW13333   1.264   0.267  12.768
37165SOL    HW113334   1.356   0.253  12.788
37165SOL    HW213335   1.216   0.215  12.833
37166SOL     OW13336   4.362   7.015  11.218
37166SOL    HW113337   4.407   7.098  11.204
37166SOL    HW213338   4.377   6.966  11.137
37167SOL     OW13339   1.504   6.094  14.697
37167SOL    HW113340   1.591   6.059  14.674
37167SOL    HW213341   1.514   6.189  14.688
37168SOL     OW13342   0.353   0.715   3.863
37168SOL    HW113343   0.419   0.779   3.836
37168SOL    HW213344   0.270   0.749   3.830
37169SOL     OW13345   2.779   9.494   7.482
37169SOL    HW113346   2.745   9.489   7.572
37169SOL    HW213347   2.868   9.458   7.489
37170SOL     OW13348   3.804   5.617   4.365
37170SOL    HW113349   3.737   5.623   4.297
37170SOL    HW213350   3.773   5.674   4.435
37171SOL     OW13351   7.112  12.816   0.043
37171SOL    HW113352   7.103  12.721   0.055
37171SOL    HW213353   7.029  12.842   0.003
37172SOL     OW13354   4.771   8.251   5.373
37172SOL    HW113355   4.855   8.286   5.401
37172SOL    HW213356   4.791   8.164   5.338
37173SOL     OW13357   5.064   1.486  10.248
37173SOL    HW113358   5.095   1.555  10.191
37173SOL    HW213359   5.143   1.438  10.273
37174SOL     OW13360  13.535   6.006   5.015
37174SOL    HW113361  13.570   5.940   5.074
37174SOL    HW213362  13.553   5.972   4.928
37175SOL     OW13363  12.331  14.506  12.328
37175SOL    HW113364  12.253  14.548  12.292
37175SOL    HW213365  12.400  14.524  12.264
37176SOL     OW13366  14.232   9.729   8.064
37176SOL    HW113367  14.163   9.795   8.054
37176SOL    HW213368  14.288   9.742   7.987
37177SOL     OW13369  14.711  11.994  13.975
37177SOL    HW113370  14.751  12.079  13.959
37177SOL    HW213371  14.704  11.988  14.071
37178SOL     OW13372  13.092   3.532  14.822
37178SOL    HW113373  13.163   3.480  14.861
37178SOL    HW213374  13.102   3.519  14.728
37179SOL     OW13375   8.978  10.718  14.762
37179SOL    HW113376   8.983  10.646  14.700
37179SOL    HW213377   8.884  10.735  14.771
37180SOL     OW13378   1.009   2.684  12.944
37180SOL    HW113379   0.924   2.710  12.908
37180SOL    HW213380   1.054   2.767  12.961
37181SOL     OW13381  10.406  12.409   3.532
37181SOL    HW113382  10.353  12.342   3.489
37181SOL    HW213383  10.349  12.486   3.536
37182SOL     OW13384  10.909  11.069   7.894
37182SOL    HW113385  10.911  11.071   7.798
37182SOL    HW213386  10.951  10.986   7.917
37183SOL     OW13387   8.165   5.396   4.137
37183SOL    HW113388   8.133   5.329   4.197
37183SOL    HW213389   8.088   5.421   4.086
37184SOL     OW13390  12.914   0.842   5.706
37184SOL    HW113391  13.001   0.809   5.682
37184SOL    HW213392  12.917   0.935   5.684
37185SOL     OW13393  11.156   8.978   1.052
37185SOL    HW113394  11.061   8.989   1.053
37185SOL    HW213395  11.187   9.029   1.127
37186SOL     OW13396  13.827   5.517   2.076
37186SOL    HW113397  13.847   5.479   2.162
37186SOL    HW213398  13.732   5.516   2.071
37187SOL     OW13399  12.010   3.654   9.124
37187SOL    HW113400  11.983   3.631   9.213
37187SOL    HW213401  12.038   3.745   9.131
37188SOL     OW13402  14.877  12.039   7.436
37188SOL    HW113403   0.078  12.051   7.482
37188SOL    HW213404   0.017  12.051   7.344
37189SOL     OW13405   1.015   7.104   0.855
37189SOL    HW113406   1.077   7.145   0.916
37189SOL    HW213407   1.034   7.145   0.771
37190SOL     OW13408   1.180   3.528  12.455
37190SOL    HW113409   1.241   3.508  12.384
37190SOL    HW213410   1.147   3.615  12.434
37191SOL     OW13411   9.597   6.974  10.876
37191SOL    HW113412   9.564   6.918  10.806
37191SOL    HW213413   9.692   6.959  10.877
37192SOL     OW13414   2.612   4.994   6.289
37192SOL    HW113415   2.606   4.985   6.385
37192SOL    HW213416   2.656   5.078   6.275
37193SOL     OW13417   8.814  10.298   1.309
37193SOL    HW113418   8.744  10.233   1.319
37193SOL    HW213419   8.849  10.309   1.397
37194SOL     OW13420   3.857   0.929   0.071
37194SOL    HW113421   3.884   0.854   0.125
37194SOL    HW213422   3.934   0.949   0.018
37195SOL     OW13423   7.277   8.099   3.545
37195SOL    HW113424   7.311   8.055   3.467
37195SOL    HW213425   7.313   8.187   3.541
37196SOL     OW13426  13.780   1.055   3.825
37196SOL    HW113427  13.858   1.001   3.810
37196SOL    HW213428  13.789   1.086   3.915
37197SOL     OW13429  10.397  12.567   6.554
37197SOL    HW113430  10.304  12.550   6.574
37197SOL    HW213431  10.441  12.484   6.575
37198SOL     OW13432  14.135   8.542   2.802
37198SOL    HW113433  14.188   8.621   2.791
37198SOL    HW213434  14.072   8.565   2.869
37199SOL     OW13435   9.905  11.277  11.415
37199SOL    HW113436   9.824  11.309  11.455
37199SOL    HW213437   9.959  11.249  11.489
37200SOL     OW13438   6.723   9.172   1.523
37200SOL    HW113439   6.738   9.265   1.544
37200SOL    HW213440   6.694   9.173   1.432
37201SOL     OW13441  14.322   8.702  14.052
37201SOL    HW113442  14.395   8.728  13.996
37201SOL    HW213443  14.361   8.691  14.139
37202SOL     OW13444   8.271  12.902   4.015
37202SOL    HW113445   8.362  12.877   4.001
37202SOL    HW213446   8.270  12.942   4.102
37203SOL     OW13447  10.148  14.165   0.698
37203SOL    HW113448  10.238  14.135   0.687
37203SOL    HW213449  10.113  14.171   0.610
37204SOL     OW13450   8.049   5.733   0.860
37204SOL    HW113451   8.080   5.733   0.769
37204SOL    HW213452   7.973   5.791   0.859
37205SOL     OW13453   6.734   6.410   7.218
37205SOL    HW113454   6.748   6.331   7.271
37205SOL    HW213455   6.754   6.382   7.129
37206SOL     OW13456  13.480  10.922   2.993
37206SOL    HW113457  13.541  10.884   2.930
37206SOL    HW213458  13.531  10.930   3.074
37207SOL     OW13459   6.206   8.193  10.790
37207SOL    HW113460   6.118   8.225  10.768
37207SOL    HW213461   6.200   8.170  10.883
37208SOL     OW13462   7.902   5.303   9.261
37208SOL    HW113463   7.814   5.340   9.259
37208SOL    HW213464   7.924   5.289   9.169
37209SOL     OW13465   9.257   5.594  13.429
37209SOL    HW113466   9.317   5.598  13.355
37209SOL    HW213467   9.242   5.685  13.454
37210SOL     OW13468  14.416  13.812  13.250
37210SOL    HW113469  14.411  13.731  13.200
37210SOL    HW213470  14.448  13.877  13.187
37211SOL     OW13471  13.424   4.279  13.795
37211SOL    HW113472  13.519   4.281  13.783
37211SOL    HW213473  13.389   4.285  13.706
37212SOL     OW13474   3.486  13.194  10.083
37212SOL    HW113475   3.465  13.128  10.017
37212SOL    HW213476   3.403  13.209  10.129
37213SOL     OW13477   9.877   2.059  10.606
37213SOL    HW113478   9.862   1.970  10.574
37213SOL    HW213479   9.868   2.051  10.701
37214SOL     OW13480  11.943  13.570   6.364
37214SOL    HW113481  11.938  13.521   6.446
37214SOL    HW213482  11.852  13.575   6.334
37215SOL     OW13483   8.349   6.316   1.760
37215SOL    HW113484   8.323   6.403   1.791
37215SOL    HW213485   8.361   6.327   1.666
37216SOL     OW13486  12.264   6.329   7.285
37216SOL    HW113487  12.340   6.376   7.250
37216SOL    HW213488  12.202   6.399   7.306
37217SOL     OW13489  11.179  14.517   8.566
37217SOL    HW113490  11.108  14.516   8.630
37217SOL    HW213491  11.179  14.606   8.531
37218SOL     OW13492   1.063  10.219   3.230
37218SOL    HW113493   1.099  10.186   3.313
37218SOL    HW213494   1.013  10.146   3.194
37219SOL     OW13495  11.854   0.230  12.537
37219SOL    HW113496  11.889   0.235  12.626
37219SOL    HW213497  11.776   0.174  12.545
37220SOL     OW13498   6.405   0.078  13.419
37220SOL    HW113499   6.342   0.074  13.491
37220SOL    HW213500   6.367   0.023  13.350
37221SOL     OW13501   6.819   5.375  14.012
37221SOL    HW113502   6.805   5.364  13.918
37221SOL    HW213503   6.818   5.469  14.026
37222SOL     OW13504   8.617   9.782   2.312
37222SOL    HW113505   8.639   9.819   2.226
37222SOL    HW213506   8.561   9.707   2.292
37223SOL     OW13507   2.737   3.114  11.167
37223SOL    HW113508   2.796   3.143  11.236
37223SOL    HW213509   2.794   3.085  11.096
37224SOL     OW13510   8.794   5.613   6.015
37224SOL    HW113511   8.830   5.589   6.100
37224SOL    HW213512   8.734   5.542   5.993
37225SOL     OW13513   4.825   1.896   6.858
37225SOL    HW113514   4.800   1.817   6.906
37225SOL    HW213515   4.782   1.887   6.773
37226SOL     OW13516  14.764   0.602  12.787
37226SOL    HW113517  14.817   0.533  12.828
37226SOL    HW213518  14.742   0.662  12.858
37227SOL     OW13519   6.607  10.181   4.268
37227SOL    HW113520   6.577  10.251   4.327
37227SOL    HW213521   6.651  10.119   4.325
37228SOL     OW13522   5.799   5.456  12.007
37228SOL    HW113523   5.740   5.468  11.933
37228SOL    HW213524   5.878   5.504  11.983
37229SOL     OW13525   4.053  14.762   4.895
37229SOL    HW113526   4.116  14.690   4.892
37229SOL    HW213527   4.099  14.833   4.939
37230SOL     OW13528  10.114   4.316  11.040
37230SOL    HW113529  10.142   4.389  10.985
37230SOL    HW213530  10.021   4.304  11.018
37231SOL     OW13531  11.292   2.281  10.373
37231SOL    HW113532  11.293   2.185  10.375
37231SOL    HW213533  11.376   2.306  10.411
37232SOL     OW13534   1.729   0.754  10.604
37232SOL    HW113535   1.795   0.713  10.549
37232SOL    HW213536   1.778   0.803  10.670
37233SOL     OW13537   9.749   8.203   8.521
37233SOL    HW113538   9.838   8.234   8.541
37233SOL    HW213539   9.749   8.112   8.550
37234SOL     OW13540  12.659   7.375   6.514
37234SOL    HW113541  12.616   7.456   6.542
37234SOL    HW213542  12.732   7.405   6.459
37235SOL     OW13543   3.928   9.847   9.160
37235SOL    HW113544   3.945   9.798   9.241
37235SOL    HW213545   4.012   9.850   9.115
37236SOL     OW13546  12.921   3.848   7.606
37236SOL    HW113547  12.927   3.861   7.701
37236SOL    HW213548  12.960   3.763   7.590
37237SOL     OW13549   6.206   1.381   3.032
37237SOL    HW113550   6.186   1.342   2.947
37237SOL    HW213551   6.201   1.307   3.094
37238SOL     OW13552   4.294   6.569  12.259
37238SOL    HW113553   4.288   6.526  12.174
37238SOL    HW213554   4.337   6.652  12.241
37239SOL     OW13555  14.244   7.031   8.581
37239SOL    HW113556  14.225   6.938   8.564
37239SOL    HW213557  14.217   7.075   8.500
37240SOL     OW13558   5.956   9.086  11.842
37240SOL    HW113559   5.947   9.144  11.918
37240SOL    HW213560   6.003   9.010  11.876
37241SOL     OW13561  12.082   8.185  13.084
37241SOL    HW113562  12.162   8.184  13.031
37241SOL    HW213563  12.104   8.132  13.161
37242SOL     OW13564   7.969   0.812  14.782
37242SOL    HW113565   7.989   0.766  14.701
37242SOL    HW213566   7.886   0.774  14.812
37243SOL     OW13567   3.779   9.234   8.519
37243SOL    HW113568   3.836   9.231   8.596
37243SOL    HW213569   3.723   9.157   8.529
37244SOL     OW13570  10.573  10.548   4.440
37244SOL    HW113571  10.514  10.499   4.383
37244SOL    HW213572  10.516  10.583   4.509
37245SOL     OW13573   5.435   7.411   0.452
37245SOL    HW113574   5.415   7.318   0.444
37245SOL    HW213575   5.528   7.417   0.431
37246SOL     OW13576   8.599   5.116  13.500
37246SOL    HW113577   8.639   5.106  13.587
37246SOL    HW213578   8.616   5.032  13.456
37247SOL     OW13579   2.218  10.548  12.937
37247SOL    HW113580   2.169  10.531  12.857
37247SOL    HW213581   2.267  10.468  12.953
37248SOL     OW13582   4.725  11.460   0.770
37248SOL    HW113583   4.662  11.478   0.701
37248SOL    HW213584   4.672  11.431   0.844
37249SOL     OW13585   2.772  12.036   4.027
37249SOL    HW113586   2.749  12.126   4.051
37249SOL    HW213587   2.856  12.044   3.982
37250SOL     OW13588   7.611   3.890   4.021
37250SOL    HW113589   7.583   3.846   3.941
37250SOL    HW213590   7.642   3.976   3.992
37251SOL     OW13591  11.043   9.230   6.201
37251SOL    HW113592  10.990   9.231   6.281
37251SOL    HW213593  10.988   9.275   6.137
37252SOL     OW13594  11.571   8.286   2.367
37252SOL    HW113595  11.523   8.254   2.444
37252SOL    HW213596  11.534   8.238   2.294
37253SOL     OW13597   3.239  14.800   1.029
37253SOL    HW113598   3.267  14.711   1.005
37253SOL    HW213599   3.157  14.787   1.077
37254SOL     OW13600   4.413  10.606  11.652
37254SOL    HW113601   4.445  10.565  11.732
37254SOL    HW213602   4.483  10.594  11.588
37255SOL     OW13603  13.172   5.857   6.115
37255SOL    HW113604  13.229   5.802   6.168
37255SOL    HW213605  13.090   5.808   6.108
37256SOL     OW13606   4.704   4.962   3.887
37256SOL    HW113607   4.731   5.036   3.942
37256SOL    HW213608   4.765   4.965   3.813
37257SOL     OW13609   0.100   3.320   8.300
37257SOL    HW113610   0.169   3.329   8.233
37257SOL    HW213611   0.148   3.308   8.382
37258SOL     OW13612  12.875   9.698   6.687
37258SOL    HW113613  12.951   9.689   6.745
37258SOL    HW213614  12.912   9.726   6.603
37259SOL     OW13615   2.157   1.153   9.621
37259SOL    HW113616   2.185   1.063   9.602
37259SOL    HW213617   2.134   1.152   9.714
37260SOL     OW13618  10.780   8.106   6.584
37260SOL    HW113619  10.688   8.080   6.585
37260SOL    HW213620  10.787   8.165   6.509
37261SOL     OW13621   3.055  10.210   8.232
37261SOL    HW113622   2.980  10.160   8.263
37261SOL    HW213623   3.029  10.242   8.146
37262SOL     OW13624  13.025  10.132   5.226
37262SOL    HW113625  12.929  10.136   5.230
37262SOL    HW213626  13.044  10.068   5.157
37263SOL     OW13627   8.643   7.082   8.353
37263SOL    HW113628   8.612   7.004   8.307
37263SOL    HW213629   8.696   7.048   8.425
37264SOL     OW13630  10.821   8.761  11.413
37264SOL    HW113631  10.798   8.673  11.383
37264SOL    HW213632  10.883   8.746  11.484
37265SOL     OW13633   2.215  11.550   6.704
37265SOL    HW113634   2.186  11.496   6.630
37265SOL    HW213635   2.261  11.489   6.761
37266SOL     OW13636   4.940  10.386   8.089
37266SOL    HW113637   4.932  10.462   8.032
37266SOL    HW213638   4.855  10.343   8.083
37267SOL     OW13639   3.421   1.906   6.654
37267SOL    HW113640   3.473   1.879   6.729
37267SOL    HW213641   3.467   1.869   6.578
37268SOL     OW13642   6.038  13.990   1.076
37268SOL    HW113643   6.096  14.065   1.071
37268SOL    HW213644   6.059  13.937   1.000
37269SOL     OW13645  12.538   9.861   5.760
37269SOL    HW113646  12.574   9.889   5.675
37269SOL    HW213647  12.448   9.836   5.740
37270SOL     OW13648  12.276  13.099  11.744
37270SOL    HW113649  12.229  13.097  11.828
37270SOL    HW213650  12.211  13.068  11.680
37271SOL     OW13651   8.970   0.056   0.307
37271SOL    HW113652   8.912   0.099   0.370
37271SOL    HW213653   8.930   0.074   0.222
37272SOL     OW13654   7.513  11.569   5.628
37272SOL    HW113655   7.486  11.488   5.671
37272SOL    HW213656   7.593  11.595   5.674
37273SOL     OW13657   5.507  10.017  13.708
37273SOL    HW113658   5.484  10.105  13.681
37273SOL    HW213659   5.425   9.968  13.705
37274SOL     OW13660   7.026  13.339   0.966
37274SOL    HW113661   7.033  13.421   1.015
37274SOL    HW213662   7.095  13.345   0.900
37275SOL     OW13663  11.690   1.268   7.305
37275SOL    HW113664  11.655   1.356   7.291
37275SOL    HW213665  11.616   1.219   7.342
37276SOL     OW13666   3.109  10.323   7.469
37276SOL    HW113667   3.067  10.410   7.467
37276SOL    HW213668   3.069  10.276   7.396
37277SOL     OW13669  14.623   7.943   2.643
37277SOL    HW113670  14.688   7.911   2.706
37277SOL    HW213671  14.661   7.922   2.557
37278SOL     OW13672   0.932   2.830   3.431
37278SOL    HW113673   0.987   2.767   3.478
37278SOL    HW213674   0.984   2.910   3.428
37279SOL     OW13675   2.505   4.653   7.663
37279SOL    HW113676   2.593   4.640   7.699
37279SOL    HW213677   2.470   4.727   7.713
37280SOL     OW13678   4.413   3.966   6.790
37280SOL    HW113679   4.347   3.918   6.840
37280SOL    HW213680   4.390   3.951   6.699
37281SOL     OW13681   8.834  13.676   9.220
37281SOL    HW113682   8.742  13.699   9.225
37281SOL    HW213683   8.859  13.693   9.129
37282SOL     OW13684   9.900  10.611  12.764
37282SOL    HW113685   9.808  10.614  12.738
37282SOL    HW213686   9.913  10.690  12.815
37283SOL     OW13687   4.055   1.973   3.242
37283SOL    HW113688   4.101   1.914   3.183
37283SOL    HW213689   3.995   1.916   3.290
37284SOL     OW13690   7.522   9.204  10.531
37284SOL    HW113691   7.460   9.169  10.594
37284SOL    HW213692   7.517   9.299  10.542
37285SOL     OW13693  14.590   0.336  10.906
37285SOL    HW113694  14.641   0.298  10.835
37285SOL    HW213695  14.501   0.342  10.872
37286SOL     OW13696   1.895   1.884   2.681
37286SOL    HW113697   1.886   1.857   2.590
37286SOL    HW213698   1.911   1.978   2.678
37287SOL     OW13699  12.353  12.526  14.213
37287SOL    HW113700  12.448  12.541  14.219
37287SOL    HW213701  12.345  12.431  14.207
37288SOL     OW13702  11.625   7.558   8.661
37288SOL    HW113703  11.546   7.531   8.709
37288SOL    HW213704  11.652   7.480   8.613
37289SOL     OW13705   1.241   6.266   7.958
37289SOL    HW113706   1.150   6.291   7.972
37289SOL    HW213707   1.279   6.263   8.046
37290SOL     OW13708   1.116  14.163  11.274
37290SOL    HW113709   1.053  14.235  11.271
37290SOL    HW213710   1.088  14.109  11.347
37291SOL     OW13711   5.384   5.177   9.341
37291SOL    HW113712   5.334   5.126   9.404
37291SOL    HW213713   5.325   5.190   9.267
37292SOL     OW13714  13.968   3.342  10.446
37292SOL    HW113715  13.896   3.402  10.427
37292SOL    HW213716  13.973   3.285  10.369
37293SOL     OW13717   0.747   7.603   9.788
37293SOL    HW113718   0.671   7.549   9.765
37293SOL    HW213719   0.721   7.647   9.869
37294SOL     OW13720   4.482  11.238   6.739
37294SOL    HW113721   4.512  11.311   6.685
37294SOL    HW213722   4.435  11.280   6.811
37295SOL     OW13723   0.764   3.533   8.719
37295SOL    HW113724   0.678   3.555   8.756
37295SOL    HW213725   0.752   3.445   8.683
37296SOL     OW13726   3.222   7.924   6.619
37296SOL    HW113727   3.162   7.923   6.544
37296SOL    HW213728   3.166   7.947   6.693
37297SOL     OW13729   4.804  12.807   9.475
37297SOL    HW113730   4.757  12.786   9.394
37297SOL    HW213731   4.894  12.779   9.460
37298SOL     OW13732   6.656   5.751  11.783
37298SOL    HW113733   6.730   5.694  11.801
37298SOL    HW213734   6.583   5.713  11.831
37299SOL     OW13735   1.484   9.318   3.897
37299SOL    HW113736   1.462   9.306   3.805
37299SOL    HW213737   1.543   9.244   3.917
37300SOL     OW13738   2.640   2.783  12.064
37300SOL    HW113739   2.584   2.707  12.045
37300SOL    HW213740   2.665   2.817  11.978
37301SOL     OW13741   6.320  14.198   7.379
37301SOL    HW113742   6.234  14.236   7.395
37301SOL    HW213743   6.360  14.255   7.313
37302SOL     OW13744  13.597   7.908   2.883
37302SOL    HW113745  13.512   7.866   2.897
37302SOL    HW213746  13.604   7.916   2.788
37303SOL     OW13747  12.837   1.530   4.246
37303SOL    HW113748  12.832   1.514   4.152
37303SOL    HW213749  12.909   1.593   4.256
37304SOL     OW13750  10.300  11.361   4.631
37304SOL    HW113751  10.239  11.410   4.686
37304SOL    HW213752  10.382  11.363   4.680
37305SOL     OW13753   9.925   0.613   3.658
37305SOL    HW113754  10.019   0.629   3.662
37305SOL    HW213755   9.901   0.588   3.748
37306SOL     OW13756  14.198   8.955   1.011
37306SOL    HW113757  14.123   9.015   1.001
37306SOL    HW213758  14.270   9.002   0.969
37307SOL     OW13759   9.698  12.858  11.322
37307SOL    HW113760   9.648  12.809  11.386
37307SOL    HW213761   9.644  12.859  11.244
37308SOL     OW13762  11.675   9.137   6.855
37308SOL    HW113763  11.635   9.125   6.769
37308SOL    HW213764  11.613   9.099   6.916
37309SOL     OW13765   7.180   6.435   0.526
37309SOL    HW113766   7.257   6.476   0.487
37309SOL    HW213767   7.210   6.405   0.612
37310SOL     OW13768  12.349   2.620   6.999
37310SOL    HW113769  12.390   2.701   7.028
37310SOL    HW213770  12.259   2.625   7.033
37311SOL     OW13771  14.484   5.594   9.198
37311SOL    HW113772  14.476   5.565   9.289
37311SOL    HW213773  14.451   5.521   9.146
37312SOL     OW13774   2.795   0.560  13.531
37312SOL    HW113775   2.742   0.631  13.567
37312SOL    HW213776   2.863   0.545  13.596
37313SOL     OW13777   6.488   7.192   6.669
37313SOL    HW113778   6.509   7.260   6.733
37313SOL    HW213779   6.399   7.164   6.691
37314SOL     OW13780  10.706   0.042   9.089
37314SOL    HW113781  10.696   0.085   9.004
37314SOL    HW213782  10.639  14.856   9.090
37315SOL     OW13783  11.047   5.201   3.013
37315SOL    HW113784  11.069   5.251   3.091
37315SOL    HW213785  11.086   5.115   3.028
37316SOL     OW13786   0.726   2.528   4.403
37316SOL    HW113787   0.640   2.510   4.365
37316SOL    HW213788   0.782   2.548   4.328
37317SOL     OW13789   5.513   0.059  11.409
37317SOL    HW113790   5.493  14.849  11.391
37317SOL    HW213791   5.601   0.071  11.373
37318SOL     OW13792   2.090   5.349  14.458
37318SOL    HW113793   2.158   5.323  14.520
37318SOL    HW213794   2.009   5.314  14.495
37319SOL     OW13795   0.702   5.337  12.387
37319SOL    HW113796   0.692   5.266  12.451
37319SOL    HW213797   0.652   5.410  12.424
37320SOL     OW13798   8.271  12.394  11.684
37320SOL    HW113799   8.349  12.361  11.729
37320SOL    HW213800   8.298  12.480  11.651
37321SOL     OW13801  10.990   5.120   4.169
37321SOL    HW113802  10.978   5.137   4.262
37321SOL    HW213803  11.004   5.206   4.130
37322SOL     OW13804  14.740   1.666   1.753
37322SOL    HW113805  14.714   1.587   1.705
37322SOL    HW213806  14.716   1.648   1.843
37323SOL     OW13807  10.590  12.652  10.282
37323SOL    HW113808  10.526  12.663  10.212
37323SOL    HW213809  10.673  12.680  10.244
37324SOL     OW13810  14.178   9.699   3.196
37324SOL    HW113811  14.255   9.643   3.194
37324SOL    HW213812  14.187   9.751   3.276
37325SOL     OW13813   6.046  12.871  10.098
37325SOL    HW113814   5.975  12.850  10.160
37325SOL    HW213815   6.033  12.964  10.078
37326SOL     OW13816   2.053   8.203  13.716
37326SOL    HW113817   2.052   8.135  13.649
37326SOL    HW213818   2.091   8.160  13.793
37327SOL     OW13819   7.626   8.266  11.552
37327SOL    HW113820   7.572   8.263  11.472
37327SOL    HW213821   7.577   8.323  11.611
37328SOL     OW13822   5.317   1.347  10.288
37328SOL    HW113823   5.348   1.413  10.226
37328SOL    HW213824   5.294   1.272  10.233
37329SOL     OW13825  10.144   4.711  11.140
37329SOL    HW113826  10.238   4.722  11.125
37329SOL    HW213827  10.127   4.756  11.223
37330SOL     OW13828  10.394  14.149  10.929
37330SOL    HW113829  10.325  14.183  10.986
37330SOL    HW213830  10.469  14.137  10.986
37331SOL     OW13831  13.096   1.529  12.651
37331SOL    HW113832  13.148   1.456  12.683
37331SOL    HW213833  13.099   1.521  12.555
37332SOL     OW13834   0.464   5.164  14.773
37332SOL    HW113835   0.393   5.155  14.710
37332SOL    HW213836   0.542   5.137  14.725
37333SOL     OW13837   6.263  11.602   4.631
37333SOL    HW113838   6.354  11.628   4.645
37333SOL    HW213839   6.266  11.507   4.624
37334SOL     OW13840   5.675  13.895  10.273
37334SOL    HW113841   5.720  13.884  10.357
37334SOL    HW213842   5.585  13.919  10.296
37335SOL     OW13843  13.654  10.837   8.974
37335SOL    HW113844  13.725  10.781   8.942
37335SOL    HW213845  13.690  10.925   8.972
37336SOL     OW13846   5.809  14.192   3.439
37336SOL    HW113847   5.740  14.187   3.506
37336SOL    HW213848   5.886  14.224   3.486
37337SOL     OW13849   0.428   4.409   9.189
37337SOL    HW113850   0.416   4.465   9.266
37337SOL    HW213851   0.508   4.361   9.208
37338SOL     OW13852   7.228   8.945  12.167
37338SOL    HW113853   7.320   8.922  12.184
37338SOL    HW213854   7.231   9.038  12.142
37339SOL     OW13855  11.622   2.446   1.820
37339SOL    HW113856  11.711   2.480   1.830
37339SOL    HW213857  11.634   2.352   1.808
37340SOL     OW13858  13.922  11.482  10.371
37340SOL    HW113859  13.929  11.390  10.347
37340SOL    HW213860  13.876  11.482  10.454
37341SOL     OW13861   6.253   5.928  13.481
37341SOL    HW113862   6.298   5.920  13.564
37341SOL    HW213863   6.308   5.987  13.429
37342SOL     OW13864   6.201   1.553   2.133
37342SOL    HW113865   6.170   1.492   2.065
37342SOL    HW213866   6.201   1.501   2.213
37343SOL     OW13867   5.065  13.866  13.920
37343SOL    HW113868   5.129  13.806  13.958
37343SOL    HW213869   5.113  13.948  13.911
37344SOL     OW13870   8.561  11.649  10.328
37344SOL    HW113871   8.645  11.656  10.283
37344SOL    HW213872   8.580  11.677  10.418
37345SOL     OW13873   7.479   3.578   4.283
37345SOL    HW113874   7.438   3.665   4.275
37345SOL    HW213875   7.570   3.592   4.260
37346SOL     OW13876   0.124   7.478   7.595
37346SOL    HW113877   0.037   7.451   7.564
37346SOL    HW213878   0.125   7.451   7.687
37347SOL     OW13879   5.938   3.090   9.986
37347SOL    HW113880   5.923   3.138  10.067
37347SOL    HW213881   5.943   2.998  10.012
37348SOL     OW13882   4.163  12.041  10.726
37348SOL    HW113883   4.217  12.027  10.649
37348SOL    HW213884   4.216  12.010  10.799
37349SOL     OW13885   9.017   8.495   8.485
37349SOL    HW113886   8.984   8.470   8.571
37349SOL    HW213887   8.940   8.491   8.428
37350SOL     OW13888  13.093   7.465   3.247
37350SOL    HW113889  13.128   7.378   3.227
37350SOL    HW213890  13.115   7.480   3.339
37351SOL     OW13891   8.939   4.928   9.731
37351SOL    HW113892   8.855   4.971   9.739
37351SOL    HW213893   8.995   4.991   9.687
37352SOL     OW13894  13.411   0.839  12.065
37352SOL    HW113895  13.447   0.802  12.146
37352SOL    HW213896  13.477   0.903  12.038
37353SOL     OW13897   9.879   6.310   0.748
37353SOL    HW113898   9.858   6.236   0.691
37353SOL    HW213899   9.804   6.369   0.739
37354SOL     OW13900   9.757   0.578   1.788
37354SOL    HW113901   9.710   0.557   1.869
37354SOL    HW213902   9.746   0.500   1.733
37355SOL     OW13903   3.271   4.717  13.993
37355SOL    HW113904   3.316   4.664  14.059
37355SOL    HW213905   3.178   4.702  14.009
37356SOL     OW13906  14.597   2.491   0.896
37356SOL    HW113907  14.642   2.524   0.818
37356SOL    HW213908  14.642   2.409   0.917
37357SOL     OW13909  12.826   7.056   9.246
37357SOL    HW113910  12.920   7.074   9.245
37357SOL    HW213911  12.811   7.014   9.331
37358SOL     OW13912   0.294   5.148   2.197
37358SOL    HW113913   0.389   5.158   2.199
37358SOL    HW213914   0.276   5.069   2.248
37359SOL     OW13915   8.322   1.162  14.527
37359SOL    HW113916   8.359   1.074  14.537
37359SOL    HW213917   8.229   1.152  14.548
37360SOL     OW13918   8.503   6.027  12.427
37360SOL    HW113919   8.467   5.959  12.368
37360SOL    HW213920   8.595   6.004  12.436
37361SOL     OW13921   3.269   6.941   9.380
37361SOL    HW113922   3.226   6.995   9.314
37361SOL    HW213923   3.235   6.973   9.463
37362SOL     OW13924  14.082   0.438   2.066
37362SOL    HW113925  14.019   0.448   1.994
37362SOL    HW213926  14.041   0.375   2.125
37363SOL     OW13927   0.518   8.493   9.559
37363SOL    HW113928   0.574   8.566   9.584
37363SOL    HW213929   0.532   8.483   9.464
37364SOL     OW13930   6.749   9.599   6.584
37364SOL    HW113931   6.690   9.613   6.658
37364SOL    HW213932   6.721   9.516   6.546
37365SOL     OW13933   4.248   0.244  10.735
37365SOL    HW113934   4.232   0.226  10.828
37365SOL    HW213935   4.161   0.258  10.699
37366SOL     OW13936   7.851  12.201  13.897
37366SOL    HW113937   7.876  12.205  13.805
37366SOL    HW213938   7.832  12.109  13.914
37367SOL     OW13939   2.705  12.831   4.074
37367SOL    HW113940   2.738  12.751   4.114
37367SOL    HW213941   2.629  12.803   4.024
37368SOL     OW13942   0.642   2.141   6.530
37368SOL    HW113943   0.590   2.221   6.536
37368SOL    HW213944   0.730   2.167   6.556
37369SOL     OW13945   3.747   5.667   6.284
37369SOL    HW113946   3.748   5.575   6.259
37369SOL    HW213947   3.760   5.667   6.379
37370SOL     OW13948  13.342  12.669  14.444
37370SOL    HW113949  13.297  12.753  14.459
37370SOL    HW213950  13.389  12.681  14.361
37371SOL     OW13951   2.584  12.533   8.589
37371SOL    HW113952   2.596  12.450   8.635
37371SOL    HW213953   2.507  12.519   8.534
37372SOL     OW13954   5.634   2.137   0.321
37372SOL    HW113955   5.556   2.103   0.277
37372SOL    HW213956   5.664   2.065   0.376
37373SOL     OW13957  13.867   7.455  14.181
37373SOL    HW113958  13.920   7.483  14.256
37373SOL    HW213959  13.787   7.507  14.188
37374SOL     OW13960  13.282   1.724   3.659
37374SOL    HW113961  13.208   1.778   3.628
37374SOL    HW213962  13.244   1.638   3.676
37375SOL     OW13963  13.633  14.713   2.023
37375SOL    HW113964  13.655  14.806   2.021
37375SOL    HW213965  13.537  14.711   2.018
37376SOL     OW13966  11.863   1.012   0.644
37376SOL    HW113967  11.853   0.942   0.580
37376SOL    HW213968  11.932   1.068   0.609
37377SOL     OW13969   1.122  11.317  14.615
37377SOL    HW113970   1.057  11.247  14.604
37377SOL    HW213971   1.078  11.396  14.585
37378SOL     OW13972  10.144  14.605   4.873
37378SOL    HW113973  10.180  14.593   4.785
37378SOL    HW213974  10.157  14.521   4.916
37379SOL     OW13975   2.255   3.469   4.492
37379SOL    HW113976   2.339   3.424   4.498
37379SOL    HW213977   2.194   3.401   4.465
37380SOL     OW13978  13.131  12.214   7.295
37380SOL    HW113979  13.176  12.299   7.298
37380SOL    HW213980  13.173  12.167   7.223
37381SOL     OW13981  14.632   8.662  12.959
37381SOL    HW113982  14.678   8.743  12.937
37381SOL    HW213983  14.568   8.687  13.024
37382SOL     OW13984  11.516   0.086   7.789
37382SOL    HW113985  11.496  14.880   7.822
37382SOL    HW213986  11.500   0.144   7.863
37383SOL     OW13987  11.567   6.777   7.512
37383SOL    HW113988  11.566   6.791   7.607
37383SOL    HW213989  11.660   6.772   7.490
37384SOL     OW13990   0.442   8.711   3.486
37384SOL    HW113991   0.458   8.664   3.404
37384SOL    HW213992   0.475   8.800   3.470
37385SOL     OW13993   1.134   1.363   5.820
37385SOL    HW113994   1.079   1.344   5.744
37385SOL    HW213995   1.071   1.378   5.892
37386SOL     OW13996  13.199  11.632   1.507
37386SOL    HW113997  13.237  11.584   1.581
37386SOL    HW213998  13.265  11.625   1.438
37387SOL     OW13999   7.536   3.146  11.828
37387SOL    HW114000   7.481   3.082  11.782
37387SOL    HW214001   7.526   3.226  11.777
37388SOL     OW14002  14.310  12.005   7.796
37388SOL    HW114003  14.226  11.968   7.824
37388SOL    HW214004  14.288  12.061   7.721
37389SOL     OW14005   9.599  11.477  12.122
37389SOL    HW114006   9.691  11.471  12.144
37389SOL    HW214007   9.596  11.473  12.027
37390SOL     OW14008   6.943  10.043   9.799
37390SOL    HW114009   6.923  10.028   9.707
37390SOL    HW214010   7.039  10.052   9.802
37391SOL     OW14011  10.444  13.426  14.128
37391SOL    HW114012  10.408  13.456  14.211
37391SOL    HW214013  10.395  13.475  14.062
37392SOL     OW14014   9.350  12.716  14.388
37392SOL    HW114015   9.338  12.802  14.428
37392SOL    HW214016   9.376  12.734  14.298
37393SOL     OW14017   5.374   2.705   0.786
37393SOL    HW114018   5.432   2.747   0.722
37393SOL    HW214019   5.386   2.611   0.771
37394SOL     OW14020   8.171   9.227   9.264
37394SOL    HW114021   8.082   9.216   9.232
37394SOL    HW214022   8.213   9.284   9.199
37395SOL     OW14023  12.229   6.235   4.422
37395SOL    HW114024  12.324   6.219   4.422
37395SOL    HW214025  12.198   6.198   4.504
37396SOL     OW14026   1.610   8.593   0.532
37396SOL    HW114027   1.605   8.615   0.625
37396SOL    HW214028   1.642   8.503   0.530
37397SOL     OW14029   5.870  10.349  12.570
37397SOL    HW114030   5.875  10.254  12.556
37397SOL    HW214031   5.937  10.366  12.637
37398SOL     OW14032   4.216  14.375   6.671
37398SOL    HW114033   4.241  14.356   6.581
37398SOL    HW214034   4.225  14.291   6.717
37399SOL     OW14035  12.839  14.702   3.055
37399SOL    HW114036  12.889  14.663   2.983
37399SOL    HW214037  12.755  14.725   3.015
37400SOL     OW14038   2.310   1.765   1.432
37400SOL    HW114039   2.231   1.714   1.448
37400SOL    HW214040   2.363   1.710   1.374
37401SOL     OW14041   2.117   3.184  10.162
37401SOL    HW114042   2.105   3.164  10.255
37401SOL    HW214043   2.148   3.102  10.124
37402SOL     OW14044   9.160   7.578   9.020
37402SOL    HW114045   9.099   7.504   9.012
37402SOL    HW214046   9.108   7.647   9.061
37403SOL     OW14047   7.243   8.230   8.497
37403SOL    HW114048   7.158   8.186   8.493
37403SOL    HW214049   7.288   8.188   8.571
37404SOL     OW14050  13.884   3.820   0.881
37404SOL    HW114051  13.879   3.904   0.836
37404SOL    HW214052  13.861   3.755   0.815
37405SOL     OW14053   3.249   1.332   5.714
37405SOL    HW114054   3.328   1.295   5.676
37405SOL    HW214055   3.234   1.413   5.665
37406SOL     OW14056   4.300   7.407   7.279
37406SOL    HW114057   4.220   7.431   7.233
37406SOL    HW214058   4.287   7.441   7.368
37407SOL     OW14059  14.486   6.334  10.142
37407SOL    HW114060  14.467   6.241  10.130
37407SOL    HW214061  14.460   6.374  10.059
37408SOL     OW14062  11.153   8.623   7.204
37408SOL    HW114063  11.226   8.657   7.151
37408SOL    HW214064  11.194   8.595   7.286
37409SOL     OW14065   9.859   7.170   3.757
37409SOL    HW114066   9.812   7.237   3.708
37409SOL    HW214067   9.791   7.119   3.801
37410SOL     OW14068   3.972  14.268   2.081
37410SOL    HW114069   3.984  14.177   2.055
37410SOL    HW214070   4.046  14.315   2.042
37411SOL     OW14071   0.916   0.914  13.826
37411SOL    HW114072   0.856   0.855  13.781
37411SOL    HW214073   0.863   0.993  13.842
37412SOL     OW14074   2.610   0.421  10.251
37412SOL    HW114075   2.566   0.345  10.289
37412SOL    HW214076   2.621   0.400  10.159
37413SOL     OW14077  10.225   5.618   6.768
37413SOL    HW114078  10.233   5.650   6.678
37413SOL    HW214079  10.265   5.687   6.821
37414SOL     OW14080   4.642   5.962   0.917
37414SOL    HW114081   4.720   5.931   0.872
37414SOL    HW214082   4.570   5.939   0.858
37415SOL     OW14083   4.507   8.151  11.521
37415SOL    HW114084   4.568   8.185  11.455
37415SOL    HW214085   4.463   8.228  11.556
37416SOL     OW14086  11.216   9.746   3.607
37416SOL    HW114087  11.198   9.788   3.523
37416SOL    HW214088  11.129   9.731   3.645
37417SOL     OW14089  12.254   1.086   2.583
37417SOL    HW114090  12.288   1.175   2.583
37417SOL    HW214091  12.224   1.072   2.493
37418SOL     OW14092   3.725   4.726   2.906
37418SOL    HW114093   3.743   4.653   2.847
37418SOL    HW214094   3.690   4.795   2.850
37419SOL     OW14095   1.372  11.271   0.177
37419SOL    HW114096   1.351  11.353   0.221
37419SOL    HW214097   1.366  11.292   0.083
37420SOL     OW14098   9.520   6.170  12.285
37420SOL    HW114099   9.522   6.152  12.379
37420SOL    HW214100   9.456   6.241  12.276
37421SOL     OW14101  12.126   8.720  11.827
37421SOL    HW114102  12.148   8.756  11.741
37421SOL    HW214103  12.091   8.795  11.876
37422SOL     OW14104  11.903  12.590   4.620
37422SOL    HW114105  11.811  12.607   4.641
37422SOL    HW214106  11.900  12.526   4.550
37423SOL     OW14107   8.371  12.466  14.199
37423SOL    HW114108   8.285  12.485  14.237
37423SOL    HW214109   8.431  12.463  14.273
37424SOL     OW14110  11.929  14.422   0.894
37424SOL    HW114111  11.964  14.443   0.980
37424SOL    HW214112  11.993  14.362   0.856
37425SOL     OW14113   5.631   5.243   0.458
37425SOL    HW114114   5.669   5.272   0.541
37425SOL    HW214115   5.555   5.190   0.484
37426SOL     OW14116   1.808   0.906  12.929
37426SOL    HW114117   1.796   0.881  12.838
37426SOL    HW214118   1.901   0.930  12.936
37427SOL     OW14119   5.423  12.521   1.050
37427SOL    HW114120   5.492  12.458   1.070
37427SOL    HW214121   5.345  12.467   1.036
37428SOL     OW14122   5.462  11.996  13.022
37428SOL    HW114123   5.384  11.963  13.067
37428SOL    HW214124   5.427  12.047  12.949
37429SOL     OW14125   3.856   7.556   7.903
37429SOL    HW114126   3.944   7.570   7.938
37429SOL    HW214127   3.800   7.551   7.981
37430SOL     OW14128   6.064   5.093   5.913
37430SOL    HW114129   6.082   5.042   5.834
37430SOL    HW214130   6.150   5.104   5.955
37431SOL     OW14131   4.854   1.968   8.594
37431SOL    HW114132   4.932   2.016   8.622
37431SOL    HW214133   4.814   1.938   8.676
37432SOL     OW14134  12.404   6.480   4.936
37432SOL    HW114135  12.313   6.485   4.965
37432SOL    HW214136  12.400   6.434   4.852
37433SOL     OW14137   9.360   5.473   8.384
37433SOL    HW114138   9.428   5.469   8.451
37433SOL    HW214139   9.407   5.464   8.301
37434SOL     OW14140  10.057   8.720  10.675
37434SOL    HW114141  10.114   8.729  10.752
37434SOL    HW214142  10.066   8.802  10.628
37435SOL     OW14143   2.271   5.083   0.558
37435SOL    HW114144   2.359   5.115   0.541
37435SOL    HW214145   2.257   5.097   0.652
37436SOL     OW14146  10.959  11.225  13.414
37436SOL    HW114147  10.866  11.210  13.399
37436SOL    HW214148  10.965  11.318  13.435
37437SOL     OW14149   8.358   3.760  11.273
37437SOL    HW114150   8.349   3.855  11.276
37437SOL    HW214151   8.439   3.745  11.223
37438SOL     OW14152  13.781   7.323   0.208
37438SOL    HW114153  13.703   7.280   0.172
37438SOL    HW214154  13.752   7.363   0.289
37439SOL     OW14155   9.285   3.451   2.710
37439SOL    HW114156   9.297   3.544   2.695
37439SOL    HW214157   9.373   3.414   2.709
37440SOL     OW14158   8.951   0.197   9.302
37440SOL    HW114159   8.905   0.113   9.300
37440SOL    HW214160   9.043   0.173   9.318
37441SOL     OW14161  11.722  13.224   6.890
37441SOL    HW114162  11.713  13.202   6.982
37441SOL    HW214163  11.633  13.244   6.861
37442SOL     OW14164   8.474   8.114   1.268
37442SOL    HW114165   8.441   8.026   1.247
37442SOL    HW214166   8.426   8.139   1.347
37443SOL     OW14167   0.668  10.228   9.803
37443SOL    HW114168   0.750  10.256   9.845
37443SOL    HW214169   0.611  10.304   9.808
37444SOL     OW14170  11.626   1.530   3.295
37444SOL    HW114171  11.531   1.536   3.300
37444SOL    HW214172  11.649   1.465   3.361
37445SOL     OW14173  13.291   0.123  13.735
37445SOL    HW114174  13.362   0.182  13.760
37445SOL    HW214175  13.265   0.081  13.817
37446SOL     OW14176  11.148  12.531  12.294
37446SOL    HW114177  11.103  12.531  12.378
37446SOL    HW214178  11.209  12.604  12.299
37447SOL     OW14179  11.631   1.384   4.849
37447SOL    HW114180  11.597   1.331   4.777
37447SOL    HW214181  11.675   1.457   4.807
37448SOL     OW14182   3.193   6.745   7.184
37448SOL    HW114183   3.107   6.789   7.186
37448SOL    HW214184   3.253   6.812   7.152
37449SOL     OW14185   0.144  10.372   5.333
37449SOL    HW114186   0.089  10.387   5.256
37449SOL    HW214187   0.163  10.278   5.331
37450SOL     OW14188   1.105   6.470   5.087
37450SOL    HW114189   1.082   6.533   5.019
37450SOL    HW214190   1.187   6.503   5.124
37451SOL     OW14191   6.640   4.268   2.392
37451SOL    HW114192   6.696   4.318   2.451
37451SOL    HW214193   6.661   4.300   2.305
37452SOL     OW14194   0.125  11.241  12.373
37452SOL    HW114195   0.214  11.267  12.348
37452SOL    HW214196   0.078  11.324  12.380
37453SOL     OW14197   2.796  14.064   3.257
37453SOL    HW114198   2.840  14.040   3.339
37453SOL    HW214199   2.789  13.982   3.208
37454SOL     OW14200  13.491   3.290   2.820
37454SOL    HW114201  13.465   3.322   2.906
37454SOL    HW214202  13.415   3.307   2.764
37455SOL     OW14203   5.188  11.545  13.806
37455SOL    HW114204   5.195  11.555  13.711
37455SOL    HW214205   5.217  11.629  13.842
37456SOL     OW14206  12.393  14.199   4.383
37456SOL    HW114207  12.462  14.206   4.449
37456SOL    HW214208  12.387  14.287   4.346
37457SOL     OW14209   3.222   8.867  12.955
37457SOL    HW114210   3.305   8.847  12.998
37457SOL    HW214211   3.171   8.912  13.022
37458SOL     OW14212   4.606  14.648  12.804
37458SOL    HW114213   4.546  14.696  12.862
37458SOL    HW214214   4.565  14.561  12.794
37459SOL     OW14215   5.230   2.465  11.974
37459SOL    HW114216   5.225   2.558  11.953
37459SOL    HW214217   5.296   2.430  11.914
37460SOL     OW14218   6.608   9.319   8.394
37460SOL    HW114219   6.661   9.295   8.319
37460SOL    HW214220   6.663   9.378   8.445
37461SOL     OW14221   2.389   2.782   3.913
37461SOL    HW114222   2.360   2.832   3.990
37461SOL    HW214223   2.309   2.743   3.879
37462SOL     OW14224  13.618   4.991   5.250
37462SOL    HW114225  13.704   4.986   5.210
37462SOL    HW214226  13.571   4.915   5.215
37463SOL     OW14227   0.081   5.969  12.704
37463SOL    HW114228   0.001   6.003  12.744
37463SOL    HW214229   0.117   6.045  12.658
37464SOL     OW14230  13.119   5.215   3.706
37464SOL    HW114231  13.029   5.187   3.691
37464SOL    HW214232  13.127   5.223   3.801
37465SOL     OW14233   0.234  14.465  11.398
37465SOL    HW114234   0.300  14.529  11.374
37465SOL    HW214235   0.256  14.441  11.488
37466SOL     OW14236  12.213   1.790   8.206
37466SOL    HW114237  12.273   1.803   8.133
37466SOL    HW214238  12.160   1.715   8.181
37467SOL     OW14239   9.540   9.008   9.008
37467SOL    HW114240   9.616   9.058   8.980
37467SOL    HW214241   9.469   9.072   9.012
37468SOL     OW14242  13.373   3.475   8.787
37468SOL    HW114243  13.329   3.394   8.762
37468SOL    HW214244  13.333   3.543   8.733
37469SOL     OW14245  12.331   9.625   1.704
37469SOL    HW114246  12.354   9.553   1.762
37469SOL    HW214247  12.262   9.672   1.750
37470SOL     OW14248   7.947  14.185  13.328
37470SOL    HW114249   7.942  14.280  13.333
37470SOL    HW214250   7.918  14.164  13.239
37471SOL     OW14251   7.619   6.826   4.009
37471SOL    HW114252   7.707   6.863   4.019
37471SOL    HW214253   7.562   6.887   4.056
37472SOL     OW14254   0.873   4.407   9.450
37472SOL    HW114255   0.845   4.462   9.524
37472SOL    HW214256   0.891   4.469   9.379
37473SOL     OW14257   7.514   0.789   7.564
37473SOL    HW114258   7.566   0.860   7.604
37473SOL    HW214259   7.521   0.717   7.627
37474SOL     OW14260  10.511  10.351  11.221
37474SOL    HW114261  10.582  10.402  11.261
37474SOL    HW214262  10.520  10.264  11.259
37475SOL     OW14263  11.808   1.156  13.183
37475SOL    HW114264  11.802   1.236  13.234
37475SOL    HW214265  11.819   1.086  13.248
37476SOL     OW14266   8.514   0.146   9.234
37476SOL    HW114267   8.554   0.132   9.148
37476SOL    HW214268   8.511   0.058   9.273
37477SOL     OW14269  11.439   8.931   6.801
37477SOL    HW114270  11.442   8.965   6.891
37477SOL    HW214271  11.429   9.010   6.747
37478SOL     OW14272   4.354   1.309  14.348
37478SOL    HW114273   4.313   1.351  14.424
37478SOL    HW214274   4.398   1.381  14.302
37479SOL     OW14275   1.484   5.680  11.029
37479SOL    HW114276   1.433   5.691  10.949
37479SOL    HW214277   1.534   5.761  11.037
37480SOL     OW14278   2.578   6.893   2.125
37480SOL    HW114279   2.498   6.857   2.086
37480SOL    HW214280   2.626   6.817   2.155
37481SOL     OW14281   0.154  11.962  11.154
37481SOL    HW114282   0.129  12.045  11.115
37481SOL    HW214283   0.223  11.983  11.216
37482SOL     OW14284  11.527   4.297   8.403
37482SOL    HW114285  11.564   4.326   8.487
37482SOL    HW214286  11.440   4.264   8.425
37483SOL     OW14287   3.007   7.529   3.731
37483SOL    HW114288   3.093   7.508   3.695
37483SOL    HW214289   3.022   7.540   3.824
37484SOL     OW14290  12.182  12.164  12.033
37484SOL    HW114291  12.119  12.093  12.024
37484SOL    HW214292  12.251  12.143  11.969
37485SOL     OW14293  10.658   8.615   5.391
37485SOL    HW114294  10.679   8.703   5.361
37485SOL    HW214295  10.580   8.590   5.342
37486SOL     OW14296   2.895   9.941   6.752
37486SOL    HW114297   2.940  10.010   6.703
37486SOL    HW214298   2.962   9.903   6.809
37487SOL     OW14299   6.168   4.565  12.868
37487SOL    HW114300   6.150   4.530  12.956
37487SOL    HW214301   6.237   4.508  12.834
37488SOL     OW14302   1.155  13.229   6.146
37488SOL    HW114303   1.215  13.272   6.085
37488SOL    HW214304   1.091  13.185   6.090
37489SOL     OW14305  13.814  11.152  12.350
37489SOL    HW114306  13.858  11.086  12.405
37489SOL    HW214307  13.816  11.114  12.262
37490SOL     OW14308   4.471  11.480   0.634
37490SOL    HW114309   4.431  11.553   0.586
37490SOL    HW214310   4.464  11.405   0.575
37491SOL     OW14311   3.137  12.330   4.709
37491SOL    HW114312   3.127  12.315   4.803
37491SOL    HW214313   3.231  12.342   4.695
37492SOL     OW14314   5.421   6.505   0.363
37492SOL    HW114315   5.395   6.499   0.271
37492SOL    HW214316   5.433   6.414   0.390
37493SOL     OW14317   6.116   2.833   8.144
37493SOL    HW114318   6.161   2.873   8.219
37493SOL    HW214319   6.023   2.836   8.168
37494SOL     OW14320  13.800   8.576   9.552
37494SOL    HW114321  13.880   8.597   9.505
37494SOL    HW214322  13.730   8.601   9.492
37495SOL     OW14323   3.334   7.637   0.604
37495SOL    HW114324   3.316   7.706   0.668
37495SOL    HW214325   3.404   7.672   0.549
37496SOL     OW14326  10.372   6.409  10.251
37496SOL    HW114327  10.278   6.420  10.266
37496SOL    HW214328  10.385   6.315  10.253
37497SOL     OW14329   3.854   0.342  12.011
37497SOL    HW114330   3.773   0.313  11.970
37497SOL    HW214331   3.879   0.270  12.068
37498SOL     OW14332  13.969   3.138   6.702
37498SOL    HW114333  13.989   3.210   6.761
37498SOL    HW214334  14.036   3.072   6.722
37499SOL     OW14335   9.595   6.000   7.073
37499SOL    HW114336   9.680   6.021   7.034
37499SOL    HW214337   9.615   5.933   7.139
37500SOL     OW14338   7.226  13.833   3.309
37500SOL    HW114339   7.154  13.892   3.285
37500SOL    HW214340   7.267  13.811   3.225
37501SOL     OW14341   4.933  12.995   1.506
37501SOL    HW114342   4.944  12.941   1.584
37501SOL    HW214343   4.841  12.982   1.481
37502SOL     OW14344  14.444   3.471   1.140
37502SOL    HW114345  14.421   3.412   1.212
37502SOL    HW214346  14.533   3.447   1.117
37503SOL     OW14347   2.462   4.508   2.515
37503SOL    HW114348   2.555   4.498   2.534
37503SOL    HW214349   2.429   4.565   2.585
37504SOL     OW14350  14.506   7.178  10.959
37504SOL    HW114351  14.453   7.098  10.957
37504SOL    HW214352  14.498   7.214  10.871
37505SOL     OW14353   8.828   2.065  11.977
37505SOL    HW114354   8.853   1.985  11.931
37505SOL    HW214355   8.739   2.049  12.008
37506SOL     OW14356   6.834   2.714   9.248
37506SOL    HW114357   6.906   2.776   9.234
37506SOL    HW214358   6.876   2.632   9.271
37507SOL     OW14359   5.607  12.629   7.154
37507SOL    HW114360   5.551  12.600   7.226
37507SOL    HW214361   5.579  12.719   7.137
37508SOL     OW14362  14.442  12.403   3.473
37508SOL    HW114363  14.411  12.331   3.528
37508SOL    HW214364  14.427  12.373   3.383
37509SOL     OW14365   5.725   2.929  11.605
37509SOL    HW114366   5.687   2.879  11.677
37509SOL    HW214367   5.695   2.884  11.526
37510SOL     OW14368   4.614  13.738   8.024
37510SOL    HW114369   4.706  13.760   8.038
37510SOL    HW214370   4.615  13.671   7.955
37511SOL     OW14371   2.312   8.434   6.812
37511SOL    HW114372   2.326   8.528   6.821
37511SOL    HW214373   2.266   8.408   6.891
37512SOL     OW14374  12.924  12.184   4.355
37512SOL    HW114375  12.899  12.165   4.446
37512SOL    HW214376  12.875  12.120   4.303
37513SOL     OW14377   5.571   3.708   6.745
37513SOL    HW114378   5.651   3.738   6.702
37513SOL    HW214379   5.568   3.757   6.827
37514SOL     OW14380  14.031   2.216  14.816
37514SOL    HW114381  14.087   2.220  14.739
37514SOL    HW214382  13.944   2.240  14.784
37515SOL     OW14383   3.511  13.638  11.171
37515SOL    HW114384   3.458  13.576  11.222
37515SOL    HW214385   3.601  13.609  11.185
37516SOL     OW14386   3.095   2.606  10.396
37516SOL    HW114387   3.043   2.528  10.411
37516SOL    HW214388   3.150   2.585  10.320
37517SOL     OW14389   8.953   9.258  13.439
37517SOL    HW114390   8.956   9.279  13.532
37517SOL    HW214391   9.020   9.314  13.399
37518SOL     OW14392  13.793  13.211  11.164
37518SOL    HW114393  13.810  13.250  11.250
37518SOL    HW214394  13.711  13.252  11.135
37519SOL     OW14395   0.400   0.769   4.700
37519SOL    HW114396   0.453   0.772   4.780
37519SOL    HW214397   0.451   0.716   4.639
37520SOL     OW14398   5.783   8.156   2.843
37520SOL    HW114399   5.701   8.206   2.849
37520SOL    HW214400   5.831   8.179   2.922
37521SOL     OW14401   5.732   0.259  14.655
37521SOL    HW114402   5.734   0.169  14.688
37521SOL    HW214403   5.728   0.250  14.560
37522SOL     OW14404   3.378  12.316  14.244
37522SOL    HW114405   3.343  12.334  14.156
37522SOL    HW214406   3.301  12.314  14.300
37523SOL     OW14407   5.510   1.711   4.982
37523SOL    HW114408   5.489   1.785   5.039
37523SOL    HW214409   5.432   1.656   4.986
37524SOL     OW14410   2.144  13.074  14.239
37524SOL    HW114411   2.143  13.080  14.144
37524SOL    HW214412   2.112  13.159  14.269
37525SOL     OW14413   3.196   4.469  10.564
37525SOL    HW114414   3.290   4.471  10.581
37525SOL    HW214415   3.176   4.557  10.532
37526SOL     OW14416  13.608   4.218   6.736
37526SOL    HW114417  13.582   4.148   6.677
37526SOL    HW214418  13.554   4.204   6.814
37527SOL     OW14419   4.704  10.063   5.287
37527SOL    HW114420   4.610  10.059   5.267
37527SOL    HW214421   4.724  10.156   5.293
37528SOL     OW14422  10.951   7.042   0.821
37528SOL    HW114423  10.971   7.049   0.727
37528SOL    HW214424  10.972   7.128   0.857
37529SOL     OW14425   9.278   1.319   8.697
37529SOL    HW114426   9.234   1.241   8.733
37529SOL    HW214427   9.265   1.387   8.763
37530SOL     OW14428   7.962   7.883   3.905
37530SOL    HW114429   7.873   7.918   3.903
37530SOL    HW214430   8.008   7.930   3.835
37531SOL     OW14431   9.632   1.301   8.934
37531SOL    HW114432   9.586   1.237   8.880
37531SOL    HW214433   9.590   1.296   9.020
37532SOL     OW14434   8.552   8.885  11.546
37532SOL    HW114435   8.559   8.791  11.561
37532SOL    HW214436   8.459   8.900  11.527
37533SOL     OW14437   5.285   7.755  11.932
37533SOL    HW114438   5.335   7.830  11.962
37533SOL    HW214439   5.261   7.776  11.842
37534SOL     OW14440   2.120  12.089  12.700
37534SOL    HW114441   2.118  12.087  12.796
37534SOL    HW214442   2.027  12.088  12.675
37535SOL     OW14443   3.083   6.200  14.213
37535SOL    HW114444   3.006   6.191  14.156
37535SOL    HW214445   3.105   6.111  14.238
37536SOL     OW14446  13.959   5.677   1.713
37536SOL    HW114447  14.030   5.676   1.649
37536SOL    HW214448  13.963   5.592   1.756
37537SOL     OW14449  12.959   7.848   0.169
37537SOL    HW114450  12.915   7.837   0.253
37537SOL    HW214451  13.039   7.897   0.190
37538SOL     OW14452  13.339   2.531   7.486
37538SOL    HW114453  13.293   2.517   7.403
37538SOL    HW214454  13.432   2.524   7.463
37539SOL     OW14455   7.109   5.149   6.476
37539SOL    HW114456   7.019   5.140   6.508
37539SOL    HW214457   7.162   5.109   6.545
37540SOL     OW14458   4.210   4.976   8.472
37540SOL    HW114459   4.143   5.025   8.520
37540SOL    HW214460   4.179   4.974   8.382
37541SOL     OW14461   7.329   8.528  12.287
37541SOL    HW114462   7.239   8.554  12.303
37541SOL    HW214463   7.326   8.478  12.205
37542SOL     OW14464   0.381   2.650   1.762
37542SOL    HW114465   0.460   2.678   1.809
37542SOL    HW214466   0.327   2.729   1.758
37543SOL     OW14467   8.156   9.282   5.676
37543SOL    HW114468   8.153   9.222   5.750
37543SOL    HW214469   8.190   9.364   5.713
37544SOL     OW14470  14.166  10.909  14.765
37544SOL    HW114471  14.161  10.991  14.715
37544SOL    HW214472  14.232  10.857  14.719
37545SOL     OW14473  10.870   5.907   1.817
37545SOL    HW114474  10.846   5.906   1.724
37545SOL    HW214475  10.813   5.974   1.855
37546SOL     OW14476   3.465   4.990   3.698
37546SOL    HW114477   3.506   4.933   3.763
37546SOL    HW214478   3.479   5.079   3.732
37547SOL     OW14479  10.288   1.504   4.689
37547SOL    HW114480  10.233   1.447   4.635
37547SOL    HW214481  10.329   1.445   4.752
37548SOL     OW14482  14.663   4.977   5.833
37548SOL    HW114483  14.581   5.027   5.839
37548SOL    HW214484  14.729   5.036   5.869
37549SOL     OW14485   0.578   3.627   6.360
37549SOL    HW114486   0.502   3.589   6.316
37549SOL    HW214487   0.564   3.605   6.453
37550SOL     OW14488  12.941  14.448   3.726
37550SOL    HW114489  12.932  14.507   3.802
37550SOL    HW214490  12.923  14.504   3.650
37551SOL     OW14491  11.070  13.388  11.657
37551SOL    HW114492  11.064  13.304  11.704
37551SOL    HW214493  11.144  13.377  11.598
37552SOL     OW14494   6.441   7.866   8.609
37552SOL    HW114495   6.378   7.852   8.680
37552SOL    HW214496   6.387   7.890   8.534
37553SOL     OW14497   4.665   1.521  13.832
37553SOL    HW114498   4.580   1.488  13.801
37553SOL    HW214499   4.707   1.555  13.752
37554SOL     OW14500   9.230  11.454  12.055
37554SOL    HW114501   9.243  11.372  12.102
37554SOL    HW214502   9.265  11.438  11.968
37555SOL     OW14503   6.639  14.715   1.314
37555SOL    HW114504   6.644  14.765   1.233
37555SOL    HW214505   6.720  14.735   1.360
37556SOL     OW14506   6.019   2.320   4.012
37556SOL    HW114507   6.072   2.244   3.988
37556SOL    HW214508   6.081   2.393   4.014
37557SOL     OW14509   0.990   8.452  12.014
37557SOL    HW114510   0.935   8.425  12.087
37557SOL    HW214511   0.972   8.388  11.945
37558SOL     OW14512   9.639   0.948  13.504
37558SOL    HW114513   9.661   0.940  13.411
37558SOL    HW214514   9.664   1.038  13.527
37559SOL     OW14515   9.547  12.090  10.605
37559SOL    HW114516   9.524  12.060  10.693
37559SOL    HW214517   9.642  12.082  10.600
37560SOL     OW14518   2.000   8.044  12.986
37560SOL    HW114519   1.995   8.125  12.936
37560SOL    HW214520   1.912   8.032  13.022
37561SOL     OW14521  14.512  10.739   6.139
37561SOL    HW114522  14.561  10.808   6.184
37561SOL    HW214523  14.439  10.719   6.197
37562SOL     OW14524  11.861   4.619  13.226
37562SOL    HW114525  11.923   4.663  13.168
37562SOL    HW214526  11.845   4.534  13.185
37563SOL     OW14527   5.432   7.531   7.409
37563SOL    HW114528   5.465   7.442   7.423
37563SOL    HW214529   5.398   7.558   7.494
37564SOL     OW14530   1.084   6.310   9.787
37564SOL    HW114531   1.099   6.224   9.827
37564SOL    HW214532   1.090   6.372   9.860
37565SOL     OW14533   5.311   8.193   2.015
37565SOL    HW114534   5.256   8.114   2.019
37565SOL    HW214535   5.325   8.216   2.107
37566SOL     OW14536   9.579   3.291  13.616
37566SOL    HW114537   9.528   3.372  13.623
37566SOL    HW214538   9.540   3.233  13.681
37567SOL     OW14539  12.716   4.530   0.788
37567SOL    HW114540  12.713   4.532   0.884
37567SOL    HW214541  12.800   4.571   0.766
37568SOL     OW14542   4.493  13.930   9.384
37568SOL    HW114543   4.425  13.870   9.414
37568SOL    HW214544   4.568  13.910   9.440
37569SOL     OW14545   5.331   9.571  14.038
37569SOL    HW114546   5.278   9.492  14.044
37569SOL    HW214547   5.373   9.566  13.953
37570SOL     OW14548   4.046  10.010   3.147
37570SOL    HW114549   4.110  10.081   3.145
37570SOL    HW214550   4.031   9.989   3.055
37571SOL     OW14551   6.209   8.833   1.938
37571SOL    HW114552   6.213   8.773   2.013
37571SOL    HW214553   6.282   8.807   1.883
37572SOL     OW14554   0.369  11.476  11.901
37572SOL    HW114555   0.289  11.435  11.868
37572SOL    HW214556   0.419  11.405  11.941
37573SOL     OW14557  13.871   2.045   1.817
37573SOL    HW114558  13.860   1.957   1.854
37573SOL    HW214559  13.897   2.029   1.726
37574SOL     OW14560  10.262  13.409  14.600
37574SOL    HW114561  10.245  13.326  14.646
37574SOL    HW214562  10.344  13.441  14.638
37575SOL     OW14563   2.611   8.605   5.373
37575SOL    HW114564   2.675   8.539   5.345
37575SOL    HW214565   2.529   8.579   5.332
37576SOL     OW14566  12.464  11.820  12.177
37576SOL    HW114567  12.443  11.764  12.102
37576SOL    HW214568  12.513  11.893  12.139
37577SOL     OW14569  14.062   5.297  14.582
37577SOL    HW114570  14.082   5.225  14.642
37577SOL    HW214571  14.148   5.334  14.560
37578SOL     OW14572   5.828  12.040   2.633
37578SOL    HW114573   5.872  12.051   2.548
37578SOL    HW214574   5.763  11.972   2.618
37579SOL     OW14575  14.198  11.084   9.628
37579SOL    HW114576  14.185  10.996   9.665
37579SOL    HW214577  14.287  11.107   9.652
37580SOL     OW14578   8.910  12.221  11.966
37580SOL    HW114579   8.927  12.258  12.052
37580SOL    HW214580   8.969  12.146  11.959
37581SOL     OW14581  10.115   6.441  10.371
37581SOL    HW114582  10.056   6.371  10.398
37581SOL    HW214583  10.058   6.517  10.358
37582SOL     OW14584  11.114   6.552   1.612
37582SOL    HW114585  11.168   6.558   1.692
37582SOL    HW214586  11.033   6.598   1.635
37583SOL     OW14587   4.299   4.316   0.794
37583SOL    HW114588   4.353   4.295   0.870
37583SOL    HW214589   4.251   4.235   0.775
37584SOL     OW14590   7.518   6.106   1.753
37584SOL    HW114591   7.552   6.081   1.667
37584SOL    HW214592   7.577   6.175   1.783
37585SOL     OW14593   2.288  10.567  11.503
37585SOL    HW114594   2.330  10.648  11.531
37585SOL    HW214595   2.269  10.581  11.410
37586SOL     OW14596  14.668  11.946   9.936
37586SOL    HW114597  14.687  11.935   9.842
37586SOL    HW214598  14.594  11.888   9.952
37587SOL     OW14599  10.022  13.760   9.293
37587SOL    HW114600  10.073  13.821   9.346
37587SOL    HW214601   9.935  13.761   9.332
37588SOL     OW14602   0.620   5.774   2.048
37588SOL    HW114603   0.548   5.713   2.032
37588SOL    HW214604   0.626   5.781   2.143
37589SOL     OW14605   1.300   4.224  14.366
37589SOL    HW114606   1.317   4.189  14.279
37589SOL    HW214607   1.216   4.270  14.358
37590SOL     OW14608   8.801   6.796  11.021
37590SOL    HW114609   8.775   6.881  11.055
37590SOL    HW214610   8.766   6.794  10.931
37591SOL     OW14611   4.754   1.244   5.612
37591SOL    HW114612   4.816   1.193   5.665
37591SOL    HW214613   4.715   1.305   5.675
37592SOL     OW14614   8.524   7.526   5.948
37592SOL    HW114615   8.430   7.536   5.959
37592SOL    HW214616   8.562   7.564   6.027
37593SOL     OW14617   0.957   6.771  12.943
37593SOL    HW114618   1.041   6.792  12.984
37593SOL    HW214619   0.914   6.711  13.005
37594SOL     OW14620   5.180   8.731   6.520
37594SOL    HW114621   5.141   8.706   6.603
37594SOL    HW214622   5.105   8.737   6.459
37595SOL     OW14623  10.547   6.668  14.103
37595SOL    HW114624  10.499   6.609  14.160
37595SOL    HW214625  10.607   6.612  14.055
37596SOL     OW14626   0.305   4.605  14.319
37596SOL    HW114627   0.279   4.541  14.384
37596SOL    HW214628   0.336   4.553  14.245
37597SOL     OW14629  12.492  13.578   7.974
37597SOL    HW114630  12.557  13.639   7.939
37597SOL    HW214631  12.415  13.632   7.990
37598SOL     OW14632   3.491  14.533  14.441
37598SOL    HW114633   3.434  14.535  14.364
37598SOL    HW214634   3.553  14.605  14.426
37599SOL     OW14635   8.621  10.818   8.572
37599SOL    HW114636   8.573  10.859   8.644
37599SOL    HW214637   8.594  10.727   8.573
37600SOL     OW14638   2.835   0.206   7.741
37600SOL    HW114639   2.761   0.159   7.703
37600SOL    HW214640   2.802   0.294   7.758
37601SOL     OW14641  14.652   9.181   7.626
37601SOL    HW114642  14.720   9.148   7.685
37601SOL    HW214643  14.655   9.122   7.550
37602SOL     OW14644  11.261   5.873   8.836
37602SOL    HW114645  11.267   5.838   8.925
37602SOL    HW214646  11.170   5.900   8.828
37603SOL     OW14647  13.182   1.463   3.747
37603SOL    HW114648  13.117   1.394   3.761
37603SOL    HW214649  13.262   1.416   3.724
37604SOL     OW14650   9.978  10.983  11.733
37604SOL    HW114651   9.900  11.016  11.688
37604SOL    HW214652   9.964  11.007  11.825
37605SOL     OW14653   0.619   7.934   0.384
37605SOL    HW114654   0.687   7.978   0.333
37605SOL    HW214655   0.616   7.845   0.348
37606SOL     OW14656   7.546   8.736   1.762
37606SOL    HW114657   7.632   8.777   1.755
37606SOL    HW214658   7.553   8.657   1.708
37607SOL     OW14659  14.766   4.662  10.673
37607SOL    HW114660  14.821   4.694  10.602
37607SOL    HW214661  14.687   4.629  10.630
37608SOL     OW14662   7.637   8.266   4.577
37608SOL    HW114663   7.648   8.360   4.593
37608SOL    HW214664   7.694   8.247   4.502
37609SOL     OW14665  10.503   2.397   4.530
37609SOL    HW114666  10.491   2.306   4.505
37609SOL    HW214667  10.462   2.447   4.460
37610SOL     OW14668   7.869  12.579  13.530
37610SOL    HW114669   7.777  12.606  13.528
37610SOL    HW214670   7.865  12.484  13.545
37611SOL     OW14671   4.611   0.287  11.052
37611SOL    HW114672   4.652   0.202  11.034
37611SOL    HW214673   4.565   0.309  10.971
37612SOL     OW14674   6.612   8.351   1.629
37612SOL    HW114675   6.578   8.337   1.541
37612SOL    HW214676   6.539   8.329   1.687
37613SOL     OW14677   7.477  13.297   4.842
37613SOL    HW114678   7.439  13.375   4.882
37613SOL    HW214679   7.440  13.294   4.754
37614SOL     OW14680   2.228   5.939  11.509
37614SOL    HW114681   2.257   6.026  11.537
37614SOL    HW214682   2.206   5.950  11.417
37615SOL     OW14683   7.029   6.724  10.589
37615SOL    HW114684   7.105   6.733  10.646
37615SOL    HW214685   7.061   6.749  10.503
37616SOL     OW14686   0.311  11.790   2.769
37616SOL    HW114687   0.365  11.842   2.828
37616SOL    HW214688   0.225  11.833   2.771
37617SOL     OW14689   3.854   1.544   5.691
37617SOL    HW114690   3.896   1.506   5.768
37617SOL    HW214691   3.807   1.621   5.724
37618SOL     OW14692   9.553   1.542   8.832
37618SOL    HW114693   9.587   1.606   8.894
37618SOL    HW214694   9.589   1.458   8.862
37619SOL     OW14695  11.620   4.886   6.593
37619SOL    HW114696  11.524   4.882   6.593
37619SOL    HW214697  11.648   4.802   6.629
37620SOL     OW14698   3.559  12.840   8.389
37620SOL    HW114699   3.481  12.794   8.357
37620SOL    HW214700   3.605  12.775   8.443
37621SOL     OW14701   8.563  13.767   7.843
37621SOL    HW114702   8.577  13.845   7.897
37621SOL    HW214703   8.545  13.697   7.906
37622SOL     OW14704   2.925  12.043   7.849
37622SOL    HW114705   2.988  12.043   7.776
37622SOL    HW214706   2.860  12.109   7.824
37623SOL     OW14707  14.149   5.061   2.912
37623SOL    HW114708  14.204   5.062   2.834
37623SOL    HW214709  14.085   4.991   2.895
37624SOL     OW14710  12.474  10.048  14.574
37624SOL    HW114711  12.448   9.990  14.645
37624SOL    HW214712  12.409  10.032  14.505
37625SOL     OW14713  12.036   5.413   4.963
37625SOL    HW114714  12.003   5.502   4.959
37625SOL    HW214715  11.969   5.360   4.919
37626SOL     OW14716  12.498  11.449   1.880
37626SOL    HW114717  12.463  11.526   1.925
37626SOL    HW214718  12.502  11.381   1.948
37627SOL     OW14719  14.867   4.141   1.317
37627SOL    HW114720  14.780   4.103   1.319
37627SOL    HW214721   0.044   4.069   1.341
37628SOL     OW14722   2.253   2.758   5.540
37628SOL    HW114723   2.310   2.681   5.543
37628SOL    HW214724   2.205   2.755   5.623
37629SOL     OW14725   9.939   1.659   9.022
37629SOL    HW114726   9.970   1.691   8.937
37629SOL    HW214727   9.845   1.644   9.009
37630SOL     OW14728   9.172   8.017   0.646
37630SOL    HW114729   9.128   7.934   0.661
37630SOL    HW214730   9.141   8.046   0.561
37631SOL     OW14731   9.819   8.604   4.323
37631SOL    HW114732   9.772   8.526   4.291
37631SOL    HW214733   9.903   8.600   4.278
37632SOL     OW14734   7.119   4.441   0.808
37632SOL    HW114735   7.124   4.346   0.799
37632SOL    HW214736   7.191   4.464   0.866
37633SOL     OW14737  12.040   3.405  11.585
37633SOL    HW114738  12.065   3.488  11.626
37633SOL    HW214739  12.124   3.361  11.568
37634SOL     OW14740  10.019  10.878   1.551
37634SOL    HW114741  10.099  10.861   1.600
37634SOL    HW214742   9.963  10.926   1.611
37635SOL     OW14743   7.440  10.285   6.589
37635SOL    HW114744   7.536  10.285   6.589
37635SOL    HW214745   7.417  10.206   6.540
37636SOL     OW14746   2.876   1.472  12.492
37636SOL    HW114747   2.950   1.495  12.548
37636SOL    HW214748   2.916   1.433  12.415
37637SOL     OW14749   3.854   2.850   5.371
37637SOL    HW114750   3.860   2.845   5.466
37637SOL    HW214751   3.937   2.890   5.343
37638SOL     OW14752   9.402   6.309   0.836
37638SOL    HW114753   9.479   6.364   0.820
37638SOL    HW214754   9.329   6.360   0.802
37639SOL     OW14755   4.040   8.576   0.613
37639SOL    HW114756   4.038   8.610   0.702
37639SOL    HW214757   4.133   8.562   0.595
37640SOL     OW14758  14.403   8.374  13.110
37640SOL    HW114759  14.378   8.356  13.019
37640SOL    HW214760  14.489   8.332  13.119
37641SOL     OW14761   9.579  12.312   3.274
37641SOL    HW114762   9.518  12.335   3.343
37641SOL    HW214763   9.555  12.223   3.248
37642SOL     OW14764   4.852  11.994   5.807
37642SOL    HW114765   4.883  12.051   5.737
37642SOL    HW214766   4.919  11.926   5.815
37643SOL     OW14767   7.663   8.759   8.448
37643SOL    HW114768   7.742   8.716   8.414
37643SOL    HW214769   7.649   8.716   8.533
37644SOL     OW14770   2.587  10.185   2.494
37644SOL    HW114771   2.536  10.259   2.461
37644SOL    HW214772   2.545  10.108   2.457
37645SOL     OW14773   3.770  11.835  12.968
37645SOL    HW114774   3.700  11.899  12.955
37645SOL    HW214775   3.765  11.813  13.061
37646SOL     OW14776   6.884   7.709   7.034
37646SOL    HW114777   6.827   7.786   7.044
37646SOL    HW214778   6.832   7.636   7.068
37647SOL     OW14779  14.467   2.568   2.789
37647SOL    HW114780  14.449   2.565   2.695
37647SOL    HW214781  14.396   2.517   2.828
37648SOL     OW14782   9.377   4.348   4.934
37648SOL    HW114783   9.366   4.289   4.859
37648SOL    HW214784   9.338   4.431   4.905
37649SOL     OW14785   7.991   6.299   0.713
37649SOL    HW114786   8.044   6.270   0.638
37649SOL    HW214787   7.901   6.298   0.679
37650SOL     OW14788   4.336   2.554  13.512
37650SOL    HW114789   4.365   2.644  13.525
37650SOL    HW214790   4.386   2.503  13.576
37651SOL     OW14791  11.789   8.889   9.472
37651SOL    HW114792  11.724   8.842   9.420
37651SOL    HW214793  11.826   8.822   9.531
37652SOL     OW14794  11.534   4.952   8.557
37652SOL    HW114795  11.439   4.945   8.563
37652SOL    HW214796  11.550   5.046   8.548
37653SOL     OW14797   6.310   2.095   0.944
37653SOL    HW114798   6.385   2.056   0.990
37653SOL    HW214799   6.249   2.118   1.014
37654SOL     OW14800   7.708   3.930   9.878
37654SOL    HW114801   7.687   3.973   9.795
37654SOL    HW214802   7.700   3.998   9.944
37655SOL     OW14803  10.966   2.204  11.891
37655SOL    HW114804  11.010   2.284  11.861
37655SOL    HW214805  10.886   2.199  11.839
37656SOL     OW14806   4.428   4.558  12.726
37656SOL    HW114807   4.372   4.636  12.728
37656SOL    HW214808   4.495   4.575  12.792
37657SOL     OW14809  13.942   9.485   7.342
37657SOL    HW114810  14.015   9.478   7.404
37657SOL    HW214811  13.902   9.398   7.342
37658SOL     OW14812   6.057  10.643   5.274
37658SOL    HW114813   5.962  10.649   5.284
37658SOL    HW214814   6.086  10.593   5.351
37659SOL     OW14815  11.999   0.457   6.267
37659SOL    HW114816  12.049   0.526   6.224
37659SOL    HW214817  12.006   0.382   6.207
37660SOL     OW14818   7.779   5.909   4.716
37660SOL    HW114819   7.832   5.833   4.739
37660SOL    HW214820   7.763   5.953   4.799
37661SOL     OW14821   6.167  12.860   6.617
37661SOL    HW114822   6.197  12.816   6.538
37661SOL    HW214823   6.088  12.811   6.643
37662SOL     OW14824  10.923   6.817   7.501
37662SOL    HW114825  10.927   6.840   7.408
37662SOL    HW214826  10.900   6.725   7.502
37663SOL     OW14827  11.818   9.370   6.968
37663SOL    HW114828  11.840   9.424   6.892
37663SOL    HW214829  11.762   9.301   6.934
37664SOL     OW14830  11.792   5.310   0.152
37664SOL    HW114831  11.872   5.357   0.129
37664SOL    HW214832  11.811   5.273   0.238
37665SOL     OW14833   0.618  14.395   0.295
37665SOL    HW114834   0.701  14.442   0.284
37665SOL    HW214835   0.633  14.311   0.253
37666SOL     OW14836  12.411   2.748  12.132
37666SOL    HW114837  12.425   2.684  12.063
37666SOL    HW214838  12.464   2.823  12.107
37667SOL     OW14839   1.739   6.287   9.983
37667SOL    HW114840   1.686   6.208   9.969
37667SOL    HW214841   1.829   6.258   9.967
37668SOL     OW14842   2.021  11.339   0.286
37668SOL    HW114843   1.938  11.379   0.260
37668SOL    HW214844   2.006  11.245   0.277
37669SOL     OW14845   9.226   3.197   9.717
37669SOL    HW114846   9.300   3.146   9.685
37669SOL    HW214847   9.222   3.274   9.660
37670SOL     OW14848   9.432   8.671   6.133
37670SOL    HW114849   9.523   8.656   6.158
37670SOL    HW214850   9.385   8.679   6.216
37671SOL     OW14851   3.504   7.700   5.461
37671SOL    HW114852   3.483   7.715   5.369
37671SOL    HW214853   3.419   7.691   5.503
37672SOL     OW14854  13.957  10.387   7.357
37672SOL    HW114855  13.865  10.394   7.331
37672SOL    HW214856  13.955  10.338   7.439
37673SOL     OW14857  14.048   2.716   8.639
37673SOL    HW114858  14.140   2.712   8.664
37673SOL    HW214859  14.047   2.769   8.559
37674SOL     OW14860  13.088   1.603   3.236
37674SOL    HW114861  13.143   1.657   3.178
37674SOL    HW214862  13.146   1.577   3.307
37675SOL     OW14863   3.942  14.790   7.208
37675SOL    HW114864   3.870  14.778   7.269
37675SOL    HW214865   4.021  14.773   7.261
37676SOL     OW14866  10.905   8.718   9.794
37676SOL    HW114867  10.889   8.730   9.888
37676SOL    HW214868  10.961   8.640   9.789
37677SOL     OW14869   7.162   3.262  11.127
37677SOL    HW114870   7.208   3.188  11.167
37677SOL    HW214871   7.090   3.222  11.078
37678SOL     OW14872   3.373   5.695   5.439
37678SOL    HW114873   3.441   5.629   5.421
37678SOL    HW214874   3.403   5.773   5.392
37679SOL     OW14875   7.993   8.595  10.189
37679SOL    HW114876   8.025   8.560  10.105
37679SOL    HW214877   7.991   8.690  10.176
37680SOL     OW14878  14.098  11.678   6.029
37680SOL    HW114879  14.128  11.656   6.117
37680SOL    HW214880  14.105  11.774   6.024
37681SOL     OW14881   5.262   2.345   3.564
37681SOL    HW114882   5.286   2.255   3.584
37681SOL    HW214883   5.332   2.398   3.603
37682SOL     OW14884  11.336   1.051   5.674
37682SOL    HW114885  11.421   1.032   5.714
37682SOL    HW214886  11.282   1.081   5.747
37683SOL     OW14887  10.794  13.852   3.244
37683SOL    HW114888  10.801  13.788   3.173
37683SOL    HW214889  10.885  13.874   3.265
37684SOL     OW14890  13.783  10.235   9.616
37684SOL    HW114891  13.768  10.301   9.548
37684SOL    HW214892  13.816  10.285   9.691
37685SOL     OW14893  13.943   6.589   5.559
37685SOL    HW114894  13.998   6.517   5.527
37685SOL    HW214895  13.978   6.667   5.517
37686SOL     OW14896   5.425   6.990  10.834
37686SOL    HW114897   5.490   7.058  10.818
37686SOL    HW214898   5.349   7.037  10.868
37687SOL     OW14899  10.251  10.931   2.220
37687SOL    HW114900  10.289  10.862   2.275
37687SOL    HW214901  10.191  10.885   2.162
37688SOL     OW14902   1.309   5.704   1.137
37688SOL    HW114903   1.288   5.631   1.079
37688SOL    HW214904   1.225   5.746   1.154
37689SOL     OW14905   1.242  10.088  13.869
37689SOL    HW114906   1.174  10.031  13.905
37689SOL    HW214907   1.305  10.098  13.939
37690SOL     OW14908   3.961   6.802   7.150
37690SOL    HW114909   3.945   6.865   7.079
37690SOL    HW214910   3.999   6.855   7.220
37691SOL     OW14911  13.056   0.107   2.728
37691SOL    HW114912  12.964   0.090   2.748
37691SOL    HW214913  13.103   0.079   2.806
37692SOL     OW14914   5.750   3.516   3.864
37692SOL    HW114915   5.760   3.423   3.844
37692SOL    HW214916   5.768   3.522   3.958
37693SOL     OW14917  14.536  10.996   2.914
37693SOL    HW114918  14.522  10.965   3.003
37693SOL    HW214919  14.457  11.045   2.893
37694SOL     OW14920   1.203   3.089   2.646
37694SOL    HW114921   1.222   3.147   2.573
37694SOL    HW214922   1.117   3.117   2.678
37695SOL     OW14923  12.113  13.533   4.925
37695SOL    HW114924  12.154  13.514   5.009
37695SOL    HW214925  12.160  13.609   4.892
37696SOL     OW14926   1.773   7.123   1.188
37696SOL    HW114927   1.793   7.204   1.236
37696SOL    HW214928   1.687   7.140   1.148
37697SOL     OW14929   4.687  10.008   7.073
37697SOL    HW114930   4.710   9.933   7.128
37697SOL    HW214931   4.769  10.035   7.032
37698SOL     OW14932  11.078   4.049   3.301
37698SOL    HW114933  11.173   4.058   3.310
37698SOL    HW214934  11.059   4.083   3.213
37699SOL     OW14935  14.143   0.392   0.761
37699SOL    HW114936  14.079   0.449   0.719
37699SOL    HW214937  14.138   0.310   0.712
37700SOL     OW14938   3.108  13.752   1.285
37700SOL    HW114939   3.045  13.714   1.346
37700SOL    HW214940   3.184  13.693   1.289
37701SOL     OW14941  10.188  13.905   9.999
37701SOL    HW114942  10.264  13.848   9.991
37701SOL    HW214943  10.216  13.988   9.961
37702SOL     OW14944  11.700   1.289   5.941
37702SOL    HW114945  11.678   1.207   5.986
37702SOL    HW214946  11.793   1.280   5.921
37703SOL     OW14947   0.496   1.652  12.714
37703SOL    HW114948   0.545   1.732  12.732
37703SOL    HW214949   0.458   1.628  12.799
37704SOL     OW14950   2.392   4.512   9.947
37704SOL    HW114951   2.355   4.497  10.034
37704SOL    HW214952   2.477   4.468   9.949
37705SOL     OW14953  11.028   7.278   4.560
37705SOL    HW114954  10.932   7.281   4.567
37705SOL    HW214955  11.056   7.368   4.569
37706SOL     OW14956   5.944   0.001   0.908
37706SOL    HW114957   5.915  14.820   0.842
37706SOL    HW214958   5.880   0.072   0.904
37707SOL     OW14959   2.162   7.945  13.622
37707SOL    HW114960   2.086   7.897  13.657
37707SOL    HW214961   2.206   7.979  13.700
37708SOL     OW14962  14.056  12.195   5.714
37708SOL    HW114963  14.115  12.172   5.641
37708SOL    HW214964  14.098  12.269   5.757
37709SOL     OW14965  10.379  14.258  13.451
37709SOL    HW114966  10.391  14.349  13.423
37709SOL    HW214967  10.432  14.250  13.530
37710SOL     OW14968   9.406   0.738   6.881
37710SOL    HW114969   9.486   0.750   6.828
37710SOL    HW214970   9.396   0.643   6.888
37711SOL     OW14971   2.569   0.180  11.224
37711SOL    HW114972   2.495   0.120  11.214
37711SOL    HW214973   2.613   0.149  11.303
37712SOL     OW14974  11.346  12.193  10.825
37712SOL    HW114975  11.332  12.245  10.904
37712SOL    HW214976  11.301  12.111  10.842
37713SOL     OW14977   0.200  13.110  10.385
37713SOL    HW114978   0.178  13.082  10.296
37713SOL    HW214979   0.296  13.104  10.389
37714SOL     OW14980   1.766  13.929  11.687
37714SOL    HW114981   1.741  13.919  11.595
37714SOL    HW214982   1.776  13.840  11.719
37715SOL     OW14983   4.363   3.297   1.436
37715SOL    HW114984   4.340   3.349   1.513
37715SOL    HW214985   4.387   3.361   1.370
37716SOL     OW14986   5.624  13.636  14.881
37716SOL    HW114987   5.555  13.669   0.057
37716SOL    HW214988   5.697  13.616   0.057
37717SOL     OW14989   8.692   9.928   1.595
37717SOL    HW114990   8.683   9.926   1.690
37717SOL    HW214991   8.604   9.944   1.562
37718SOL     OW14992   3.968   4.423   6.623
37718SOL    HW114993   4.046   4.370   6.606
37718SOL    HW214994   3.927   4.432   6.537
37719SOL     OW14995  10.040   6.019   2.426
37719SOL    HW114996  10.025   6.026   2.331
37719SOL    HW214997   9.953   6.028   2.464
37720SOL     OW14998  13.341   2.946   6.069
37720SOL    HW114999  13.427   2.945   6.112
37720SOL    HW215000  13.321   3.039   6.059
37721SOL     OW15001   5.858  11.613   0.578
37721SOL    HW115002   5.780  11.660   0.608
37721SOL    HW215003   5.870  11.542   0.641
37722SOL     OW15004  10.449  13.077   8.843
37722SOL    HW115005  10.462  13.147   8.907
37722SOL    HW215006  10.406  13.007   8.893
37723SOL     OW15007  13.022   4.410   1.997
37723SOL    HW115008  12.986   4.341   2.052
37723SOL    HW215009  13.098   4.370   1.955
37724SOL     OW15010   5.735  12.358  10.095
37724SOL    HW115011   5.716  12.435  10.149
37724SOL    HW215012   5.829  12.361  10.082
37725SOL     OW15013  12.131  11.779   8.349
37725SOL    HW115014  12.199  11.838   8.383
37725SOL    HW215015  12.145  11.780   8.254
37726SOL     OW15016  12.719   2.994   0.143
37726SOL    HW115017  12.709   3.085   0.169
37726SOL    HW215018  12.793   2.962   0.195
37727SOL     OW15019   7.627   8.255   3.585
37727SOL    HW115020   7.687   8.200   3.535
37727SOL    HW215021   7.684   8.312   3.636
37728SOL     OW15022   1.551  14.326  12.350
37728SOL    HW115023   1.547  14.417  12.378
37728SOL    HW215024   1.537  14.276  12.430
37729SOL     OW15025  10.192   7.970   3.578
37729SOL    HW115026  10.177   8.059   3.608
37729SOL    HW215027  10.271   7.976   3.525
37730SOL     OW15028   7.441   9.412   6.720
37730SOL    HW115029   7.437   9.500   6.758
37730SOL    HW215030   7.392   9.357   6.783
37731SOL     OW15031   4.806   6.585   4.677
37731SOL    HW115032   4.848   6.586   4.763
37731SOL    HW215033   4.860   6.642   4.622
37732SOL     OW15034   9.124   6.376   0.160
37732SOL    HW115035   9.207   6.344   0.124
37732SOL    HW215036   9.124   6.470   0.142
37733SOL     OW15037  13.798   3.673   0.145
37733SOL    HW115038  13.822   3.636   0.060
37733SOL    HW215039  13.715   3.717   0.129
37734SOL     OW15040   1.274   1.291  10.580
37734SOL    HW115041   1.235   1.262  10.663
37734SOL    HW215042   1.329   1.218  10.552
37735SOL     OW15043   4.966   2.686   1.219
37735SOL    HW115044   4.889   2.629   1.218
37735SOL    HW215045   5.021   2.650   1.289
37736SOL     OW15046   3.566   9.085   4.549
37736SOL    HW115047   3.480   9.108   4.582
37736SOL    HW215048   3.576   8.992   4.572
37737SOL     OW15049   5.043   6.613  11.625
37737SOL    HW115050   4.955   6.629  11.591
37737SOL    HW215051   5.091   6.694  11.607
37738SOL     OW15052  14.422   5.152   5.901
37738SOL    HW115053  14.367   5.118   5.971
37738SOL    HW215054  14.465   5.229   5.939
37739SOL     OW15055   0.135  12.985   8.195
37739SOL    HW115056   0.071  12.915   8.209
37739SOL    HW215057   0.082  13.064   8.183
37740SOL     OW15058   5.417  10.427   4.750
37740SOL    HW115059   5.397  10.341   4.787
37740SOL    HW215060   5.500  10.452   4.789
37741SOL     OW15061   0.345   4.252   7.227
37741SOL    HW115062   0.288   4.205   7.166
37741SOL    HW215063   0.286   4.296   7.287
37742SOL     OW15064   5.530  14.662  10.313
37742SOL    HW115065   5.621  14.680  10.290
37742SOL    HW215066   5.514  14.713  10.392
37743SOL     OW15067   0.882   3.849   2.601
37743SOL    HW115068   0.930   3.862   2.519
37743SOL    HW215069   0.940   3.794   2.654
37744SOL     OW15070   2.512   6.094   4.093
37744SOL    HW115071   2.519   6.154   4.019
37744SOL    HW215072   2.600   6.057   4.102
37745SOL     OW15073  12.372   8.165  11.433
37745SOL    HW115074  12.459   8.197  11.410
37745SOL    HW215075  12.376   8.071  11.414
37746SOL     OW15076   6.839  10.532   3.071
37746SOL    HW115077   6.886  10.615   3.081
37746SOL    HW215078   6.764  10.539   3.130
37747SOL     OW15079   6.620  11.319   1.504
37747SOL    HW115080   6.636  11.329   1.410
37747SOL    HW215081   6.582  11.231   1.512
37748SOL     OW15082   1.391  13.739  13.152
37748SOL    HW115083   1.325  13.672  13.132
37748SOL    HW215084   1.342  13.806  13.199
37749SOL     OW15085   8.886   1.843   7.033
37749SOL    HW115086   8.929   1.866   6.951
37749SOL    HW215087   8.864   1.751   7.024
37750SOL     OW15088  10.437   5.770   9.542
37750SOL    HW115089  10.400   5.817   9.468
37750SOL    HW215090  10.451   5.837   9.609
37751SOL     OW15091  11.427   2.633   3.051
37751SOL    HW115092  11.333   2.616   3.049
37751SOL    HW215093  11.466   2.547   3.068
37752SOL     OW15094   0.166   9.843   5.518
37752SOL    HW115095   0.124   9.784   5.455
37752SOL    HW215096   0.155   9.799   5.602
37753SOL     OW15097  12.136  10.887   8.463
37753SOL    HW115098  12.083  10.909   8.540
37753SOL    HW215099  12.124  10.793   8.451
37754SOL     OW15100   0.626   3.917  12.294
37754SOL    HW115101   0.584   3.999  12.320
37754SOL    HW215102   0.702   3.944  12.242
37755SOL     OW15103   9.236   2.984   5.239
37755SOL    HW115104   9.253   2.957   5.329
37755SOL    HW215105   9.298   3.055   5.224
37756SOL     OW15106   8.399   2.596   0.261
37756SOL    HW115107   8.365   2.673   0.307
37756SOL    HW215108   8.486   2.582   0.299
37757SOL     OW15109   6.465   4.910   5.936
37757SOL    HW115110   6.425   4.982   5.985
37757SOL    HW215111   6.392   4.849   5.921
37758SOL     OW15112   3.903   1.017   2.437
37758SOL    HW115113   3.920   0.931   2.474
37758SOL    HW215114   3.953   1.078   2.492
37759SOL     OW15115   0.582  14.606   5.762
37759SOL    HW115116   0.557  14.680   5.707
37759SOL    HW215117   0.677  14.614   5.772
37760SOL     OW15118   3.440   3.321  14.433
37760SOL    HW115119   3.491   3.253  14.477
37760SOL    HW215120   3.375   3.348  14.498
37761SOL     OW15121   0.055  11.667   6.639
37761SOL    HW115122   0.025  11.743   6.590
37761SOL    HW215123   0.080  11.604   6.571
37762SOL     OW15124   8.973   6.810  14.588
37762SOL    HW115125   8.957   6.767  14.672
37762SOL    HW215126   8.908   6.771  14.529
37763SOL     OW15127   8.795  11.262  10.774
37763SOL    HW115128   8.785  11.332  10.709
37763SOL    HW215129   8.847  11.301  10.844
37764SOL     OW15130   7.846   7.544  10.029
37764SOL    HW115131   7.801   7.527   9.947
37764SOL    HW215132   7.845   7.460  10.075
37765SOL     OW15133   5.888   0.079   4.899
37765SOL    HW115134   5.849   0.063   4.985
37765SOL    HW215135   5.982   0.068   4.912
37766SOL     OW15136   0.480  13.664   1.724
37766SOL    HW115137   0.388  13.638   1.736
37766SOL    HW215138   0.476  13.740   1.666
37767SOL     OW15139   3.878   7.204  14.323
37767SOL    HW115140   3.797   7.253  14.340
37767SOL    HW215141   3.853   7.112  14.327
37768SOL     OW15142   5.551   9.780   8.516
37768SOL    HW115143   5.468   9.732   8.514
37768SOL    HW215144   5.525   9.871   8.525
37769SOL     OW15145  13.124   5.143   1.930
37769SOL    HW115146  13.202   5.131   1.984
37769SOL    HW215147  13.147   5.215   1.871
37770SOL     OW15148   1.047   9.846   5.342
37770SOL    HW115149   1.134   9.870   5.374
37770SOL    HW215150   0.990   9.918   5.369
37771SOL     OW15151   8.019  14.657   8.356
37771SOL    HW115152   7.993  14.689   8.443
37771SOL    HW215153   7.942  14.669   8.302
37772SOL     OW15154   2.480  13.655  12.129
37772SOL    HW115155   2.525  13.576  12.159
37772SOL    HW215156   2.498  13.659  12.035
37773SOL     OW15157  10.912  10.799   0.684
37773SOL    HW115158  10.972  10.805   0.758
37773SOL    HW215159  10.844  10.864   0.702
37774SOL     OW15160   6.274   9.912   3.247
37774SOL    HW115161   6.313   9.988   3.204
37774SOL    HW215162   6.290   9.926   3.340
37775SOL     OW15163   7.590   9.441  12.421
37775SOL    HW115164   7.530   9.488  12.479
37775SOL    HW215165   7.677   9.471  12.446
37776SOL     OW15166   2.287   3.539  14.544
37776SOL    HW115167   2.222   3.584  14.490
37776SOL    HW215168   2.275   3.576  14.632
37777SOL     OW15169  11.291  14.773   6.252
37777SOL    HW115170  11.337  14.790   6.334
37777SOL    HW215171  11.316  14.846   6.195
37778SOL     OW15172  13.348   9.003   6.751
37778SOL    HW115173  13.363   9.065   6.822
37778SOL    HW215174  13.384   8.920   6.783
37779SOL     OW15175   0.350  11.896   6.067
37779SOL    HW115176   0.363  11.805   6.040
37779SOL    HW215177   0.346  11.946   5.985
37780SOL     OW15178   2.514   5.110   7.054
37780SOL    HW115179   2.566   5.080   7.128
37780SOL    HW215180   2.523   5.205   7.055
37781SOL     OW15181  10.698   6.464   7.372
37781SOL    HW115182  10.684   6.457   7.466
37781SOL    HW215183  10.780   6.417   7.356
37782SOL     OW15184  13.752   6.731  12.738
37782SOL    HW115185  13.847   6.732  12.751
37782SOL    HW215186  13.740   6.720  12.643
37783SOL     OW15187   6.424   6.580  10.346
37783SOL    HW115188   6.491   6.522  10.311
37783SOL    HW215189   6.350   6.570  10.287
37784SOL     OW15190   3.831   4.539  13.575
37784SOL    HW115191   3.829   4.611  13.638
37784SOL    HW215192   3.760   4.481  13.604
37785SOL     OW15193  10.105   6.404   5.534
37785SOL    HW115194  10.167   6.411   5.461
37785SOL    HW215195  10.026   6.368   5.494
37786SOL     OW15196  13.624   7.973   6.484
37786SOL    HW115197  13.604   8.066   6.473
37786SOL    HW215198  13.596   7.953   6.573
37787SOL     OW15199   7.883   6.255   6.468
37787SOL    HW115200   7.841   6.176   6.500
37787SOL    HW215201   7.974   6.247   6.497
37788SOL     OW15202   1.590   1.518   3.454
37788SOL    HW115203   1.595   1.501   3.548
37788SOL    HW215204   1.536   1.447   3.419
37789SOL     OW15205   9.046  12.118   4.192
37789SOL    HW115206   9.013  12.101   4.280
37789SOL    HW215207   8.999  12.198   4.164
37790SOL     OW15208   8.657   9.297   8.199
37790SOL    HW115209   8.676   9.220   8.145
37790SOL    HW215210   8.722   9.294   8.269
37791SOL     OW15211   0.397   7.632   5.643
37791SOL    HW115212   0.326   7.576   5.613
37791SOL    HW215213   0.395   7.625   5.739
37792SOL     OW15214   1.277  11.581   7.022
37792SOL    HW115215   1.324  11.641   7.079
37792SOL    HW215216   1.263  11.503   7.075
37793SOL     OW15217   3.104   2.262   3.213
37793SOL    HW115218   3.178   2.259   3.273
37793SOL    HW215219   3.056   2.181   3.229
37794SOL     OW15220   1.122  13.891   8.723
37794SOL    HW115221   1.041  13.927   8.686
37794SOL    HW215222   1.103  13.880   8.816
37795SOL     OW15223   1.334  12.077   3.420
37795SOL    HW115224   1.398  12.032   3.365
37795SOL    HW215225   1.299  12.009   3.477
37796SOL     OW15226   4.181   3.012   5.911
37796SOL    HW115227   4.266   3.045   5.881
37796SOL    HW215228   4.145   3.082   5.965
37797SOL     OW15229   7.235   3.067   1.774
37797SOL    HW115230   7.252   3.135   1.840
37797SOL    HW215231   7.291   3.091   1.700
37798SOL     OW15232   9.769   8.849   4.897
37798SOL    HW115233   9.804   8.892   4.974
37798SOL    HW215234   9.706   8.912   4.860
37799SOL     OW15235   0.377  11.680   1.311
37799SOL    HW115236   0.285  11.688   1.337
37799SOL    HW215237   0.381  11.719   1.224
37800SOL     OW15238  10.335   4.961  11.282
37800SOL    HW115239  10.332   4.987  11.189
37800SOL    HW215240  10.246   4.933  11.302
37801SOL     OW15241   9.685   3.170  12.303
37801SOL    HW115242   9.610   3.168  12.363
37801SOL    HW215243   9.737   3.093  12.327
37802SOL     OW15244   7.797   6.427  10.809
37802SOL    HW115245   7.863   6.413  10.876
37802SOL    HW215246   7.847   6.436  10.727
37803SOL     OW15247   9.887   4.856   2.550
37803SOL    HW115248   9.854   4.845   2.639
37803SOL    HW215249   9.932   4.774   2.530
37804SOL     OW15250   7.817   2.367  10.114
37804SOL    HW115251   7.733   2.339  10.078
37804SOL    HW215252   7.799   2.387  10.205
37805SOL     OW15253   5.386   3.408   5.815
37805SOL    HW115254   5.471   3.451   5.824
37805SOL    HW215255   5.354   3.400   5.905
37806SOL     OW15256  11.627   3.998   4.355
37806SOL    HW115257  11.593   4.012   4.267
37806SOL    HW215258  11.690   3.926   4.346
37807SOL     OW15259   9.674   3.636   5.526
37807SOL    HW115260   9.662   3.591   5.610
37807SOL    HW215261   9.642   3.574   5.460
37808SOL     OW15262   9.782   7.442   3.970
37808SOL    HW115263   9.789   7.432   3.875
37808SOL    HW215264   9.826   7.365   4.006
37809SOL     OW15265   5.208   5.839   2.187
37809SOL    HW115266   5.285   5.791   2.158
37809SOL    HW215267   5.138   5.774   2.188
37810SOL     OW15268   9.981   1.582   4.482
37810SOL    HW115269   9.959   1.589   4.389
37810SOL    HW215270  10.011   1.670   4.505
37811SOL     OW15271   9.315   7.920  12.459
37811SOL    HW115272   9.273   7.843  12.422
37811SOL    HW215273   9.315   7.984  12.387
37812SOL     OW15274   6.867  11.718   7.325
37812SOL    HW115275   6.824  11.786   7.378
37812SOL    HW215276   6.840  11.738   7.236
37813SOL     OW15277  13.449   1.533   6.938
37813SOL    HW115278  13.488   1.572   7.016
37813SOL    HW215279  13.460   1.600   6.870
37814SOL     OW15280   0.580   6.373   7.405
37814SOL    HW115281   0.485   6.364   7.410
37814SOL    HW215282   0.612   6.334   7.486
37815SOL     OW15283   8.083   3.450  14.482
37815SOL    HW115284   8.136   3.399  14.421
37815SOL    HW215285   7.993   3.436  14.453
37816SOL     OW15286   1.972   6.501   4.682
37816SOL    HW115287   1.891   6.517   4.730
37816SOL    HW215288   1.954   6.425   4.628
37817SOL     OW15289  14.790   5.384   4.815
37817SOL    HW115290  14.824   5.433   4.740
37817SOL    HW215291  14.862   5.324   4.838
37818SOL     OW15292   0.306   2.285   2.320
37818SOL    HW115293   0.309   2.228   2.243
37818SOL    HW215294   0.362   2.241   2.384
37819SOL     OW15295   3.032  14.803  13.203
37819SOL    HW115296   3.080  14.797  13.286
37819SOL    HW215297   3.095  14.840  13.142
37820SOL     OW15298   7.111  10.415   0.314
37820SOL    HW115299   7.040  10.437   0.375
37820SOL    HW215300   7.167  10.354   0.362
37821SOL     OW15301   9.910  12.128  11.568
37821SOL    HW115302   9.959  12.046  11.572
37821SOL    HW215303   9.975  12.196  11.586
37822SOL     OW15304   5.380  14.159   9.588
37822SOL    HW115305   5.419  14.217   9.653
37822SOL    HW215306   5.306  14.208   9.552
37823SOL     OW15307   0.973  14.485   7.825
37823SOL    HW115308   0.932  14.400   7.843
37823SOL    HW215309   1.028  14.502   7.901
37824SOL     OW15310   5.712   4.028  11.233
37824SOL    HW115311   5.797   4.044  11.192
37824SOL    HW215312   5.684   4.114  11.264
37825SOL     OW15313   4.954  12.470   9.284
37825SOL    HW115314   5.040  12.428   9.282
37825SOL    HW215315   4.973  12.563   9.293
37826SOL     OW15316  13.883  10.140   1.932
37826SOL    HW115317  13.945  10.096   1.874
37826SOL    HW215318  13.816  10.175   1.873
37827SOL     OW15319   5.435   1.715   4.636
37827SOL    HW115320   5.499   1.754   4.577
37827SOL    HW215321   5.444   1.621   4.621
37828SOL     OW15322   5.809  12.280   7.354
37828SOL    HW115323   5.829  12.193   7.320
37828SOL    HW215324   5.863  12.339   7.301
37829SOL     OW15325   5.628  12.492  10.332
37829SOL    HW115326   5.568  12.468  10.402
37829SOL    HW215327   5.585  12.567  10.289
37830SOL     OW15328   2.251  12.211  11.400
37830SOL    HW115329   2.179  12.207  11.337
37830SOL    HW215330   2.249  12.301  11.433
37831SOL     OW15331  11.597  11.592  10.838
37831SOL    HW115332  11.534  11.554  10.776
37831SOL    HW215333  11.649  11.517  10.868
37832SOL     OW15334  13.027  13.507  11.410
37832SOL    HW115335  13.032  13.576  11.476
37832SOL    HW215336  13.025  13.425  11.460
37833SOL     OW15337   1.865   8.041   5.284
37833SOL    HW115338   1.936   8.099   5.258
37833SOL    HW215339   1.799   8.099   5.322
37834SOL     OW15340  12.528   6.894  14.777
37834SOL    HW115341  12.609   6.850  14.751
37834SOL    HW215342  12.554   6.984  14.796
37835SOL     OW15343   4.617   0.080  11.589
37835SOL    HW115344   4.587   0.108  11.503
37835SOL    HW215345   4.567   0.000  11.607
37836SOL     OW15346   9.895   9.799   0.364
37836SOL    HW115347   9.901   9.731   0.431
37836SOL    HW215348   9.802   9.801   0.341
37837SOL     OW15349   2.138   1.011   3.893
37837SOL    HW115350   2.082   0.940   3.923
37837SOL    HW215351   2.077   1.078   3.861
37838SOL     OW15352  12.791   8.774  11.306
37838SOL    HW115353  12.697   8.780  11.324
37838SOL    HW215354  12.812   8.856  11.261
37839SOL     OW15355   1.090   8.170   1.336
37839SOL    HW115356   1.155   8.130   1.394
37839SOL    HW215357   1.015   8.186   1.393
37840SOL     OW15358   6.364   9.570   7.710
37840SOL    HW115359   6.413   9.651   7.697
37840SOL    HW215360   6.364   9.528   7.624
37841SOL     OW15361   3.776  12.355  12.384
37841SOL    HW115362   3.771  12.362  12.289
37841SOL    HW215363   3.782  12.261  12.401
37842SOL     OW15364   1.288   6.860   6.530
37842SOL    HW115365   1.299   6.782   6.476
37842SOL    HW215366   1.377   6.891   6.546
37843SOL     OW15367   0.183   4.339  12.955
37843SOL    HW115368   0.273   4.313  12.934
37843SOL    HW215369   0.136   4.257  12.963
37844SOL     OW15370   4.095  14.223  13.729
37844SOL    HW115371   4.020  14.190  13.680
37844SOL    HW215372   4.061  14.242  13.816
37845SOL     OW15373  11.283   8.585   8.157
37845SOL    HW115374  11.302   8.540   8.239
37845SOL    HW215375  11.191   8.610   8.164
37846SOL     OW15376   0.949  12.546   4.772
37846SOL    HW115377   0.907  12.570   4.689
37846SOL    HW215378   0.935  12.621   4.829
37847SOL     OW15379  12.166   7.344  12.662
37847SOL    HW115380  12.208   7.265  12.696
37847SOL    HW215381  12.234   7.387  12.610
37848SOL     OW15382   9.089   7.640   4.548
37848SOL    HW115383   9.003   7.663   4.511
37848SOL    HW215384   9.109   7.555   4.510
37849SOL     OW15385   3.751   6.957   4.914
37849SOL    HW115386   3.778   7.043   4.947
37849SOL    HW215387   3.753   6.966   4.818
37850SOL     OW15388  11.707  11.669   0.543
37850SOL    HW115389  11.769  11.729   0.584
37850SOL    HW215390  11.621  11.703   0.566
37851SOL     OW15391  11.117  10.846   0.152
37851SOL    HW115392  11.167  10.764   0.150
37851SOL    HW215393  11.088  10.855   0.242
37852SOL     OW15394   0.423  10.050   3.969
37852SOL    HW115395   0.409  10.143   3.990
37852SOL    HW215396   0.424  10.047   3.873
37853SOL     OW15397  12.866   3.633   1.166
37853SOL    HW115398  12.807   3.703   1.139
37853SOL    HW215399  12.891   3.589   1.084
37854SOL     OW15400   4.576   1.194   0.344
37854SOL    HW115401   4.629   1.229   0.416
37854SOL    HW215402   4.486   1.209   0.372
37855SOL     OW15403   4.893   1.754   8.999
37855SOL    HW115404   4.888   1.787   9.088
37855SOL    HW215405   4.825   1.686   8.994
37856SOL     OW15406  14.478  13.783  13.518
37856SOL    HW115407  14.439  13.700  13.490
37856SOL    HW215408  14.457  13.844  13.448
37857SOL     OW15409   3.327   4.071   9.695
37857SOL    HW115410   3.395   4.012   9.664
37857SOL    HW215411   3.246   4.037   9.656
37858SOL     OW15412   2.475  11.246  14.746
37858SOL    HW115413   2.463  11.340  14.750
37858SOL    HW215414   2.491  11.228  14.653
37859SOL     OW15415  13.797  14.387   7.667
37859SOL    HW115416  13.821  14.454   7.731
37859SOL    HW215417  13.757  14.318   7.718
37860SOL     OW15418   4.909  12.598  12.536
37860SOL    HW115419   5.001  12.625  12.539
37860SOL    HW215420   4.873  12.645  12.460
37861SOL     OW15421   4.897   3.660   6.982
37861SOL    HW115422   4.934   3.745   6.957
37861SOL    HW215423   4.803   3.676   6.988
37862SOL     OW15424   5.211  11.954   8.273
37862SOL    HW115425   5.215  11.888   8.341
37862SOL    HW215426   5.286  12.012   8.291
37863SOL     OW15427   4.273   5.016   4.818
37863SOL    HW115428   4.297   5.089   4.874
37863SOL    HW215429   4.248   4.945   4.878
37864SOL     OW15430   9.119  14.024   9.708
37864SOL    HW115431   9.118  14.002   9.801
37864SOL    HW215432   9.169  14.106   9.704
37865SOL     OW15433  11.051   4.513   6.875
37865SOL    HW115434  11.068   4.503   6.968
37865SOL    HW215435  11.119   4.459   6.833
37866SOL     OW15436   2.129  14.295   0.599
37866SOL    HW115437   2.150  14.388   0.598
37866SOL    HW215438   2.206  14.252   0.561
37867SOL     OW15439   2.122   1.864   5.092
37867SOL    HW115440   2.071   1.792   5.056
37867SOL    HW215441   2.212   1.846   5.065
37868SOL     OW15442   7.803  11.429   0.888
37868SOL    HW115443   7.795  11.487   0.812
37868SOL    HW215444   7.714  11.399   0.905
37869SOL     OW15445   8.776  11.782   6.639
37869SOL    HW115446   8.803  11.766   6.729
37869SOL    HW215447   8.697  11.730   6.627
37870SOL     OW15448  11.569   1.944   5.321
37870SOL    HW115449  11.541   1.965   5.232
37870SOL    HW215450  11.508   1.877   5.350
37871SOL     OW15451  11.612  12.875   9.685
37871SOL    HW115452  11.635  12.796   9.636
37871SOL    HW215453  11.654  12.863   9.770
37872SOL     OW15454   4.538   2.466   6.543
37872SOL    HW115455   4.462   2.484   6.598
37872SOL    HW215456   4.508   2.398   6.482
37873SOL     OW15457   2.669  14.672   8.874
37873SOL    HW115458   2.742  14.679   8.813
37873SOL    HW215459   2.705  14.624   8.949
37874SOL     OW15460  10.001  12.433   0.935
37874SOL    HW115461  10.074  12.373   0.919
37874SOL    HW215462  10.041  12.507   0.981
37875SOL     OW15463   9.662   9.685  12.728
37875SOL    HW115464   9.620   9.770  12.742
37875SOL    HW215465   9.755   9.707  12.716
37876SOL     OW15466   2.330   3.017   0.599
37876SOL    HW115467   2.313   3.062   0.517
37876SOL    HW215468   2.290   2.931   0.588
37877SOL     OW15469  10.475   7.050   9.610
37877SOL    HW115470  10.411   7.019   9.673
37877SOL    HW215471  10.458   6.999   9.531
37878SOL     OW15472   5.415   3.483   3.681
37878SOL    HW115473   5.498   3.490   3.635
37878SOL    HW215474   5.349   3.474   3.611
37879SOL     OW15475  12.140   7.361  10.998
37879SOL    HW115476  12.116   7.276  10.962
37879SOL    HW215477  12.234   7.370  10.979
37880SOL     OW15478  11.315  14.301   2.276
37880SOL    HW115479  11.388  14.272   2.331
37880SOL    HW215480  11.356  14.349   2.204
37881SOL     OW15481   6.554   5.093  10.936
37881SOL    HW115482   6.597   5.078  10.852
37881SOL    HW215483   6.461   5.080  10.918
37882SOL     OW15484   1.300   4.801   8.954
37882SOL    HW115485   1.284   4.713   8.919
37882SOL    HW215486   1.340   4.849   8.881
37883SOL     OW15487   4.752  10.182   7.428
37883SOL    HW115488   4.792  10.219   7.349
37883SOL    HW215489   4.767  10.088   7.421
37884SOL     OW15490  13.659   9.255  13.974
37884SOL    HW115491  13.626   9.231  13.887
37884SOL    HW215492  13.711   9.179  14.001
37885SOL     OW15493   3.532  13.427   8.524
37885SOL    HW115494   3.463  13.386   8.575
37885SOL    HW215495   3.585  13.354   8.492
37886SOL     OW15496  14.343   9.068  13.384
37886SOL    HW115497  14.300   9.113  13.457
37886SOL    HW215498  14.357   8.979  13.416
37887SOL     OW15499  12.808  14.594  13.233
37887SOL    HW115500  12.878  14.659  13.236
37887SOL    HW215501  12.795  14.568  13.324
37888SOL     OW15502   0.145  13.662  13.678
37888SOL    HW115503   0.085  13.626  13.614
37888SOL    HW215504   0.093  13.673  13.758
37889SOL     OW15505   8.485   8.288  13.049
37889SOL    HW115506   8.443   8.357  12.997
37889SOL    HW215507   8.416   8.255  13.106
37890SOL     OW15508  12.223   6.615   1.107
37890SOL    HW115509  12.176   6.533   1.123
37890SOL    HW215510  12.315   6.591   1.108
37891SOL     OW15511  13.469   6.618   5.238
37891SOL    HW115512  13.529   6.684   5.274
37891SOL    HW215513  13.459   6.642   5.146
37892SOL     OW15514   9.717  12.339   9.648
37892SOL    HW115515   9.651  12.400   9.681
37892SOL    HW215516   9.704  12.259   9.699
37893SOL     OW15517   8.354   0.651   4.578
37893SOL    HW115518   8.290   0.688   4.516
37893SOL    HW215519   8.437   0.690   4.553
37894SOL     OW15520   6.437   0.537  11.313
37894SOL    HW115521   6.371   0.597  11.277
37894SOL    HW215522   6.423   0.456  11.265
37895SOL     OW15523   2.920   1.170   4.570
37895SOL    HW115524   2.909   1.263   4.588
37895SOL    HW215525   2.916   1.127   4.656
37896SOL     OW15526   9.371  13.395   9.081
37896SOL    HW115527   9.376  13.308   9.120
37896SOL    HW215528   9.311  13.444   9.138
37897SOL     OW15529  13.431   9.542  10.961
37897SOL    HW115530  13.389   9.500  11.036
37897SOL    HW215531  13.368   9.532  10.890
37898SOL     OW15532  13.431   8.987   2.396
37898SOL    HW115533  13.368   8.918   2.375
37898SOL    HW215534  13.438   9.038   2.315
37899SOL     OW15535   0.869  11.965   4.439
37899SOL    HW115536   0.943  11.954   4.379
37899SOL    HW215537   0.908  11.956   4.526
37900SOL     OW15538  10.971   4.798   3.971
37900SOL    HW115539  10.905   4.835   3.912
37900SOL    HW215540  10.925   4.728   4.018
37901SOL     OW15541   8.355   6.172   7.429
37901SOL    HW115542   8.391   6.222   7.356
37901SOL    HW215543   8.301   6.235   7.477
37902SOL     OW15544   3.166   2.339  11.123
37902SOL    HW115545   3.157   2.324  11.029
37902SOL    HW215546   3.258   2.319  11.141
37903SOL     OW15547  12.425   9.503   8.727
37903SOL    HW115548  12.366   9.453   8.671
37903SOL    HW215549  12.392   9.486   8.816
37904SOL     OW15550  11.835  14.234  14.582
37904SOL    HW115551  11.859  14.210  14.492
37904SOL    HW215552  11.918  14.243  14.628
37905SOL     OW15553   8.591   6.936  13.453
37905SOL    HW115554   8.616   6.935  13.546
37905SOL    HW215555   8.539   7.016  13.444
37906SOL     OW15556   2.207   9.816   7.716
37906SOL    HW115557   2.248   9.739   7.756
37906SOL    HW215558   2.281   9.874   7.696
37907SOL     OW15559   2.665   3.920   8.058
37907SOL    HW115560   2.760   3.937   8.056
37907SOL    HW215561   2.642   3.908   7.966
37908SOL     OW15562   7.759   9.567   3.391
37908SOL    HW115563   7.798   9.495   3.440
37908SOL    HW215564   7.747   9.636   3.456
37909SOL     OW15565   0.974   4.948  13.943
37909SOL    HW115566   1.026   4.875  13.907
37909SOL    HW215567   0.894   4.948  13.892
37910SOL     OW15568  14.811   5.353   8.532
37910SOL    HW115569  14.848   5.267   8.514
37910SOL    HW215570   0.005   5.407   8.555
37911SOL     OW15571   9.949   1.503   6.954
37911SOL    HW115572   9.903   1.468   7.030
37911SOL    HW215573  10.035   1.460   6.956
37912SOL     OW15574  11.440   9.820   2.039
37912SOL    HW115575  11.351   9.853   2.030
37912SOL    HW215576  11.456   9.818   2.133
37913SOL     OW15577   8.448  12.866  10.097
37913SOL    HW115578   8.497  12.821  10.029
37913SOL    HW215579   8.365  12.888  10.056
37914SOL     OW15580  10.130   6.892   4.688
37914SOL    HW115581  10.072   6.891   4.763
37914SOL    HW215582  10.082   6.846   4.619
37915SOL     OW15583   3.718   4.531  14.224
37915SOL    HW115584   3.769   4.606  14.254
37915SOL    HW215585   3.671   4.501  14.302
37916SOL     OW15586   1.947   9.101  12.761
37916SOL    HW115587   2.021   9.075  12.706
37916SOL    HW215588   1.943   9.034  12.829
37917SOL     OW15589   8.606   1.629   9.665
37917SOL    HW115590   8.682   1.660   9.715
37917SOL    HW215591   8.626   1.538   9.645
37918SOL     OW15592   8.078   3.050  11.119
37918SOL    HW115593   8.128   3.132  11.115
37918SOL    HW215594   8.067   3.034  11.213
37919SOL     OW15595   0.132  11.716  11.696
37919SOL    HW115596   0.214  11.685  11.658
37919SOL    HW215597   0.117  11.801  11.655
37920SOL     OW15598  12.994  11.625   6.669
37920SOL    HW115599  13.000  11.698   6.730
37920SOL    HW215600  13.075  11.630   6.617
37921SOL     OW15601   0.928   0.657   5.168
37921SOL    HW115602   0.950   0.679   5.077
37921SOL    HW215603   1.010   0.672   5.216
37922SOL     OW15604   1.165   4.285   3.311
37922SOL    HW115605   1.257   4.271   3.291
37922SOL    HW215606   1.127   4.317   3.229
37923SOL     OW15607  13.360   8.751   1.856
37923SOL    HW115608  13.273   8.722   1.886
37923SOL    HW215609  13.369   8.713   1.769
37924SOL     OW15610   6.387   9.568   9.869
37924SOL    HW115611   6.349   9.647   9.909
37924SOL    HW215612   6.312   9.511   9.855
37925SOL     OW15613  11.730  10.730  12.824
37925SOL    HW115614  11.736  10.668  12.752
37925SOL    HW215615  11.747  10.677  12.902
37926SOL     OW15616  11.324   8.170   6.773
37926SOL    HW115617  11.306   8.241   6.712
37926SOL    HW215618  11.241   8.122   6.779
37927SOL     OW15619   1.764   6.221   8.991
37927SOL    HW115620   1.778   6.315   8.986
37927SOL    HW215621   1.674   6.211   9.022
37928SOL     OW15622   6.887   3.172   6.104
37928SOL    HW115623   6.902   3.088   6.060
37928SOL    HW215624   6.811   3.157   6.160
37929SOL     OW15625   4.033   7.539  12.706
37929SOL    HW115626   4.032   7.452  12.666
37929SOL    HW215627   4.041   7.522  12.800
37930SOL     OW15628  10.975   0.038   7.346
37930SOL    HW115629  10.949   0.073   7.431
37930SOL    HW215630  11.049  14.862   7.365
37931SOL     OW15631  10.969   9.983   9.595
37931SOL    HW115632  10.954   9.983   9.690
37931SOL    HW215633  11.009  10.068   9.577
37932SOL     OW15634   8.131   1.118   9.008
37932SOL    HW115635   8.174   1.197   8.977
37932SOL    HW215636   8.045   1.119   8.967
37933SOL     OW15637  12.775   5.642  13.579
37933SOL    HW115638  12.772   5.561  13.529
37933SOL    HW215639  12.755   5.711  13.516
37934SOL     OW15640   6.027   1.059   2.203
37934SOL    HW115641   6.115   1.030   2.227
37934SOL    HW215642   6.037   1.153   2.186
37935SOL     OW15643   1.931   1.496   3.910
37935SOL    HW115644   1.952   1.410   3.873
37935SOL    HW215645   2.015   1.542   3.914
37936SOL     OW15646  12.512   0.382  14.358
37936SOL    HW115647  12.599   0.391  14.397
37936SOL    HW215648  12.505   0.457  14.299
37937SOL     OW15649   4.193  10.381   9.208
37937SOL    HW115650   4.151  10.305   9.248
37937SOL    HW215651   4.250  10.416   9.277
37938SOL     OW15652   3.330   3.631   6.047
37938SOL    HW115653   3.301   3.544   6.021
37938SOL    HW215654   3.419   3.639   6.013
37939SOL     OW15655   4.819   5.030  12.368
37939SOL    HW115656   4.818   5.056  12.460
37939SOL    HW215657   4.875   5.095  12.325
37940SOL     OW15658  11.926  10.390   0.568
37940SOL    HW115659  11.936  10.485   0.580
37940SOL    HW215660  11.856  10.366   0.629
37941SOL     OW15661   8.384   2.550   5.343
37941SOL    HW115662   8.399   2.500   5.423
37941SOL    HW215663   8.445   2.512   5.279
37942SOL     OW15664   8.231   9.510  14.387
37942SOL    HW115665   8.276   9.568  14.325
37942SOL    HW215666   8.167   9.567  14.431
37943SOL     OW15667   4.518  12.695   4.784
37943SOL    HW115668   4.493  12.726   4.871
37943SOL    HW215669   4.559  12.770   4.742
37944SOL     OW15670   2.942  12.812   7.181
37944SOL    HW115671   2.859  12.825   7.227
37944SOL    HW215672   2.989  12.748   7.233
37945SOL     OW15673  11.392  14.094   5.418
37945SOL    HW115674  11.471  14.098   5.472
37945SOL    HW215675  11.424  14.097   5.328
37946SOL     OW15676   8.804   6.476   2.929
37946SOL    HW115677   8.809   6.572   2.929
37946SOL    HW215678   8.863   6.449   3.000
37947SOL     OW15679   8.504   1.596   5.407
37947SOL    HW115680   8.506   1.684   5.446
37947SOL    HW215681   8.412   1.581   5.386
37948SOL     OW15682   5.781  13.732  11.823
37948SOL    HW115683   5.851  13.672  11.795
37948SOL    HW215684   5.759  13.703  11.911
37949SOL     OW15685   3.526   5.696   3.647
37949SOL    HW115686   3.618   5.695   3.621
37949SOL    HW215687   3.485   5.629   3.591
37950SOL     OW15688  13.125   7.214   6.013
37950SOL    HW115689  13.163   7.285   6.065
37950SOL    HW215690  13.127   7.247   5.923
37951SOL     OW15691   0.923   0.815  12.357
37951SOL    HW115692   0.857   0.748  12.339
37951SOL    HW215693   0.987   0.803  12.287
37952SOL     OW15694   2.477   2.881   1.304
37952SOL    HW115695   2.400   2.935   1.324
37952SOL    HW215696   2.491   2.892   1.210
37953SOL     OW15697  13.174  14.230  11.562
37953SOL    HW115698  13.118  14.172  11.614
37953SOL    HW215699  13.203  14.297  11.624
37954SOL     OW15700   7.637   6.883  12.833
37954SOL    HW115701   7.717   6.887  12.780
37954SOL    HW215702   7.579   6.826  12.783
37955SOL     OW15703  14.214   2.050  13.436
37955SOL    HW115704  14.282   2.073  13.499
37955SOL    HW215705  14.154   1.993  13.485
37956SOL     OW15706   2.726   1.722   7.153
37956SOL    HW115707   2.752   1.763   7.070
37956SOL    HW215708   2.631   1.713   7.145
37957SOL     OW15709   9.845   4.735   1.648
37957SOL    HW115710   9.895   4.716   1.727
37957SOL    HW215711   9.850   4.830   1.639
37958SOL     OW15712  14.552  10.747  13.510
37958SOL    HW115713  14.596  10.696  13.578
37958SOL    HW215714  14.621  10.770  13.448
37959SOL     OW15715  11.755  11.976   5.468
37959SOL    HW115716  11.782  11.906   5.409
37959SOL    HW215717  11.741  11.932   5.552
37960SOL     OW15718   9.440  14.340   7.459
37960SOL    HW115719   9.401  14.297   7.383
37960SOL    HW215720   9.527  14.367   7.430
37961SOL     OW15721   5.090   3.351   2.888
37961SOL    HW115722   4.998   3.376   2.886
37961SOL    HW215723   5.096   3.278   2.826
37962SOL     OW15724  10.008   7.613   9.469
37962SOL    HW115725  10.080   7.556   9.441
37962SOL    HW215726  10.045   7.665   9.541
37963SOL     OW15727   8.289   7.075  13.047
37963SOL    HW115728   8.364   7.065  12.988
37963SOL    HW215729   8.327   7.097  13.132
37964SOL     OW15730   0.074   9.473   1.501
37964SOL    HW115731  14.876   9.527   1.504
37964SOL    HW215732   0.140   9.530   1.461
37965SOL     OW15733  13.041   3.556  11.459
37965SOL    HW115734  13.108   3.606  11.505
37965SOL    HW215735  13.042   3.590  11.370
37966SOL     OW15736  14.310   6.741   6.782
37966SOL    HW115737  14.264   6.734   6.866
37966SOL    HW215738  14.335   6.833   6.776
37967SOL     OW15739   9.475   4.441   8.048
37967SOL    HW115740   9.495   4.510   8.111
37967SOL    HW215741   9.555   4.432   7.997
37968SOL     OW15742  14.735   2.862   9.031
37968SOL    HW115743  14.648   2.836   9.060
37968SOL    HW215744  14.782   2.882   9.112
37969SOL     OW15745   3.649  12.376   8.487
37969SOL    HW115746   3.646  12.328   8.404
37969SOL    HW215747   3.729  12.346   8.529
37970SOL     OW15748   0.009   8.032  12.510
37970SOL    HW115749   0.099   8.034  12.543
37970SOL    HW215750   0.008   7.959  12.448
37971SOL     OW15751   1.263  14.099  10.835
37971SOL    HW115752   1.291  14.154  10.908
37971SOL    HW215753   1.230  14.019  10.877
37972SOL     OW15754   5.362   7.945   5.706
37972SOL    HW115755   5.357   7.893   5.786
37972SOL    HW215756   5.445   7.993   5.714
37973SOL     OW15757   5.210   1.144  13.089
37973SOL    HW115758   5.134   1.173  13.140
37973SOL    HW215759   5.273   1.215  13.097
37974SOL     OW15760   7.393   3.415   1.073
37974SOL    HW115761   7.350   3.425   0.989
37974SOL    HW215762   7.466   3.355   1.056
37975SOL     OW15763   9.792  13.842   9.386
37975SOL    HW115764   9.766  13.934   9.378
37975SOL    HW215765   9.736  13.807   9.455
37976SOL     OW15766  11.896   7.890   2.485
37976SOL    HW115767  11.803   7.891   2.462
37976SOL    HW215768  11.932   7.818   2.434
37977SOL     OW15769   2.860  10.729   6.166
37977SOL    HW115770   2.842  10.823   6.156
37977SOL    HW215771   2.784  10.685   6.129
37978SOL     OW15772   5.459  12.052   0.272
37978SOL    HW115773   5.385  12.027   0.216
37978SOL    HW215774   5.533  12.001   0.237
37979SOL     OW15775  11.692   8.358   0.121
37979SOL    HW115776  11.697   8.269   0.156
37979SOL    HW215777  11.599   8.380   0.124
37980SOL     OW15778  10.578   0.385   4.437
37980SOL    HW115779  10.618   0.390   4.350
37980SOL    HW215780  10.484   0.380   4.419
37981SOL     OW15781   8.590   3.576   2.812
37981SOL    HW115782   8.660   3.521   2.776
37981SOL    HW215783   8.520   3.571   2.748
37982SOL     OW15784  12.813   9.614   2.086
37982SOL    HW115785  12.856   9.698   2.104
37982SOL    HW215786  12.884   9.550   2.084
37983SOL     OW15787  12.929   6.712  10.548
37983SOL    HW115788  12.931   6.789  10.604
37983SOL    HW215789  12.836   6.691  10.538
37984SOL     OW15790  12.403   5.902  12.557
37984SOL    HW115791  12.378   5.905  12.650
37984SOL    HW215792  12.324   5.930  12.511
37985SOL     OW15793   9.801   5.689   5.817
37985SOL    HW115794   9.828   5.598   5.821
37985SOL    HW215795   9.705   5.685   5.816
37986SOL     OW15796   4.619   5.201  13.205
37986SOL    HW115797   4.590   5.125  13.256
37986SOL    HW215798   4.611   5.173  13.114
37987SOL     OW15799  10.797   4.585   2.058
37987SOL    HW115800  10.749   4.583   1.976
37987SOL    HW215801  10.863   4.516   2.049
37988SOL     OW15802   8.623  10.018   3.146
37988SOL    HW115803   8.697  10.065   3.184
37988SOL    HW215804   8.553  10.083   3.140
37989SOL     OW15805  14.538   7.767  10.217
37989SOL    HW115806  14.500   7.771  10.305
37989SOL    HW215807  14.582   7.682  10.214
37990SOL     OW15808  10.871  11.503  13.524
37990SOL    HW115809  10.785  11.545  13.516
37990SOL    HW215810  10.926  11.569  13.566
37991SOL     OW15811   9.632  11.925   1.318
37991SOL    HW115812   9.640  12.020   1.331
37991SOL    HW215813   9.601  11.916   1.228
37992SOL     OW15814   8.842  14.420   1.746
37992SOL    HW115815   8.850  14.487   1.678
37992SOL    HW215816   8.931  14.384   1.755
37993SOL     OW15817   4.264  10.458   7.758
37993SOL    HW115818   4.359  10.451   7.772
37993SOL    HW215819   4.243  10.547   7.785
37994SOL     OW15820   5.468   1.413   8.516
37994SOL    HW115821   5.472   1.436   8.608
37994SOL    HW215822   5.498   1.492   8.470
37995SOL     OW15823   1.313   4.135  13.176
37995SOL    HW115824   1.373   4.076  13.131
37995SOL    HW215825   1.324   4.115  13.269
37996SOL     OW15826   8.837   6.202   0.127
37996SOL    HW115827   8.757   6.242   0.161
37996SOL    HW215828   8.834   6.111   0.158
37997SOL     OW15829  14.165  11.223   6.790
37997SOL    HW115830  14.161  11.130   6.813
37997SOL    HW215831  14.256  11.249   6.810
37998SOL     OW15832   6.806   9.490   5.382
37998SOL    HW115833   6.799   9.557   5.450
37998SOL    HW215834   6.746   9.421   5.410
37999SOL     OW15835   0.312  12.151  10.588
37999SOL    HW115836   0.312  12.179  10.680
37999SOL    HW215837   0.223  12.164  10.558
38000SOL     OW15838   2.986  13.611   9.869
38000SOL    HW115839   2.968  13.605   9.962
38000SOL    HW215840   3.070  13.567   9.857
38001SOL     OW15841   5.463   8.358   2.526
38001SOL    HW115842   5.493   8.449   2.518
38001SOL    HW215843   5.480   8.335   2.617
38002SOL     OW15844  11.997   4.203   5.507
38002SOL    HW115845  12.039   4.276   5.551
38002SOL    HW215846  11.906   4.205   5.537
38003SOL     OW15847  10.318   7.625   7.757
38003SOL    HW115848  10.309   7.534   7.727
38003SOL    HW215849  10.409   7.647   7.739
38004SOL     OW15850  11.962   3.630  10.644
38004SOL    HW115851  11.930   3.671  10.563
38004SOL    HW215852  11.906   3.666  10.713
38005SOL     OW15853  11.000   2.713   5.853
38005SOL    HW115854  10.957   2.704   5.939
38005SOL    HW215855  10.968   2.797   5.820
38006SOL     OW15856   4.920   3.545  13.111
38006SOL    HW115857   4.980   3.605  13.066
38006SOL    HW215858   4.838   3.552  13.063
38007SOL     OW15859  10.114  13.238   4.745
38007SOL    HW115860  10.027  13.264   4.717
38007SOL    HW215861  10.099  13.191   4.828
38008SOL     OW15862   9.112  11.980   3.711
38008SOL    HW115863   9.075  11.903   3.668
38008SOL    HW215864   9.045  12.008   3.773
38009SOL     OW15865   1.959   8.258  12.830
38009SOL    HW115866   1.871   8.234  12.799
38009SOL    HW215867   2.014   8.251  12.753
38010SOL     OW15868   6.360   3.230  11.869
38010SOL    HW115869   6.419   3.193  11.935
38010SOL    HW215870   6.296   3.160  11.853
38011SOL     OW15871   7.850   4.918   0.577
38011SOL    HW115872   7.926   4.862   0.565
38011SOL    HW215873   7.782   4.878   0.524
38012SOL     OW15874  12.229   9.854   6.463
38012SOL    HW115875  12.203   9.804   6.386
38012SOL    HW215876  12.161   9.921   6.473
38013SOL     OW15877  10.328   1.049   9.553
38013SOL    HW115878  10.279   1.068   9.633
38013SOL    HW215879  10.403   0.998   9.583
38014SOL     OW15880   5.607  12.228   2.170
38014SOL    HW115881   5.556  12.243   2.250
38014SOL    HW215882   5.698  12.245   2.197
38015SOL     OW15883   5.467   9.968  10.263
38015SOL    HW115884   5.482   9.874  10.247
38015SOL    HW215885   5.463   9.976  10.358
38016SOL     OW15886   4.814  11.568   1.991
38016SOL    HW115887   4.763  11.501   2.036
38016SOL    HW215888   4.900  11.528   1.976
38017SOL     OW15889   1.368   9.054   8.580
38017SOL    HW115890   1.345   9.145   8.562
38017SOL    HW215891   1.395   9.019   8.495
38018SOL     OW15892  11.552   9.470  10.853
38018SOL    HW115893  11.535   9.462  10.759
38018SOL    HW215894  11.482   9.527  10.886
38019SOL     OW15895   7.145   2.851  12.790
38019SOL    HW115896   7.179   2.797  12.861
38019SOL    HW215897   7.051   2.856  12.805
38020SOL     OW15898  12.093   6.332   0.023
38020SOL    HW115899  12.023   6.266   0.017
38020SOL    HW215900  12.174   6.283   0.009
38021SOL     OW15901  10.327   0.452   9.978
38021SOL    HW115902  10.315   0.462   9.883
38021SOL    HW215903  10.403   0.395   9.986
38022SOL     OW15904   7.613  12.460  13.272
38022SOL    HW115905   7.691  12.513  13.256
38022SOL    HW215906   7.637  12.402  13.344
38023SOL     OW15907   7.019   2.471   9.231
38023SOL    HW115908   7.096   2.516   9.196
38023SOL    HW215909   7.014   2.390   9.179
38024SOL     OW15910   2.249   9.420   8.561
38024SOL    HW115911   2.175   9.438   8.619
38024SOL    HW215912   2.262   9.502   8.513
38025SOL     OW15913   4.537  14.353  14.750
38025SOL    HW115914   4.452  14.346  14.795
38025SOL    HW215915   4.601  14.362  14.821
38026SOL     OW15916   7.971   8.974   7.900
38026SOL    HW115917   7.910   8.998   7.969
38026SOL    HW215918   7.935   9.014   7.821
38027SOL     OW15919   1.025   6.439  11.705
38027SOL    HW115920   1.054   6.521  11.663
38027SOL    HW215921   1.044   6.371  11.640
38028SOL     OW15922  13.503   8.675  10.265
38028SOL    HW115923  13.436   8.693  10.331
38028SOL    HW215924  13.554   8.756  10.261
38029SOL     OW15925   7.578  13.415   9.562
38029SOL    HW115926   7.578  13.428   9.467
38029SOL    HW215927   7.570  13.503   9.598
38030SOL     OW15928   8.170   1.537   0.217
38030SOL    HW115929   8.120   1.589   0.154
38030SOL    HW215930   8.115   1.461   0.236
38031SOL     OW15931  10.161  10.547   5.839
38031SOL    HW115932  10.199  10.604   5.906
38031SOL    HW215933  10.069  10.572   5.834
38032SOL     OW15934   4.850   1.213   3.355
38032SOL    HW115935   4.831   1.264   3.434
38032SOL    HW215936   4.930   1.254   3.320
38033SOL     OW15937   1.650  12.973   5.977
38033SOL    HW115938   1.745  12.981   5.969
38033SOL    HW215939   1.623  12.927   5.898
38034SOL     OW15940   1.325   5.068   8.861
38034SOL    HW115941   1.232   5.071   8.840
38034SOL    HW215942   1.369   5.066   8.776
38035SOL     OW15943  13.705   9.301   2.430
38035SOL    HW115944  13.658   9.380   2.401
38035SOL    HW215945  13.754   9.273   2.353
38036SOL     OW15946   5.655  12.585  12.534
38036SOL    HW115947   5.659  12.678  12.512
38036SOL    HW215948   5.740  12.550  12.505
38037SOL     OW15949  10.683   0.813   2.314
38037SOL    HW115950  10.590   0.836   2.308
38037SOL    HW215951  10.726   0.895   2.339
38038SOL     OW15952  14.852  10.569   7.036
38038SOL    HW115953  14.811  10.488   7.004
38038SOL    HW215954   0.053  10.541   7.073
38039SOL     OW15955   7.360  10.582   2.189
38039SOL    HW115956   7.411  10.501   2.191
38039SOL    HW215957   7.366  10.612   2.098
38040SOL     OW15958   4.354  12.920  14.176
38040SOL    HW115959   4.360  12.832  14.139
38040SOL    HW215960   4.445  12.947  14.187
38041SOL     OW15961  10.163   2.851  10.677
38041SOL    HW115962  10.250   2.891  10.668
38041SOL    HW215963  10.172   2.791  10.751
38042SOL     OW15964   9.139  13.694   6.956
38042SOL    HW115965   9.150  13.604   6.983
38042SOL    HW215966   9.226  13.733   6.964
38043SOL     OW15967  12.955  11.125   8.267
38043SOL    HW115968  13.020  11.055   8.275
38043SOL    HW215969  12.872  11.079   8.260
38044SOL     OW15970   5.988   8.321   8.623
38044SOL    HW115971   5.958   8.326   8.714
38044SOL    HW215972   5.964   8.405   8.584
38045SOL     OW15973  10.892   4.415   5.278
38045SOL    HW115974  10.814   4.447   5.233
38045SOL    HW215975  10.872   4.323   5.298
38046SOL     OW15976   0.151   4.472   7.344
38046SOL    HW115977   0.191   4.524   7.275
38046SOL    HW215978   0.144   4.532   7.418
38047SOL     OW15979   6.709  13.053  12.716
38047SOL    HW115980   6.747  13.035  12.802
38047SOL    HW215981   6.782  13.083  12.662
38048SOL     OW15982   1.847   5.876   4.927
38048SOL    HW115983   1.920   5.936   4.910
38048SOL    HW215984   1.827   5.838   4.842
38049SOL     OW15985   4.700  14.502   5.667
38049SOL    HW115986   4.708  14.568   5.735
38049SOL    HW215987   4.621  14.526   5.619
38050SOL     OW15988   9.959   2.402   0.722
38050SOL    HW115989   9.920   2.376   0.806
38050SOL    HW215990  10.053   2.393   0.736
38051SOL     OW15991  14.046   3.927   2.530
38051SOL    HW115992  14.140   3.918   2.518
38051SOL    HW215993  14.022   4.004   2.479
38052SOL     OW15994  11.286   0.099   0.379
38052SOL    HW115995  11.231   0.044   0.323
38052SOL    HW215996  11.259   0.188   0.358
38053SOL     OW15997   9.674   1.710   8.552
38053SOL    HW115998   9.579   1.707   8.536
38053SOL    HW215999   9.713   1.715   8.465
38054SOL     OW16000  13.920  10.188  13.950
38054SOL    HW116001  13.874  10.174  14.033
38054SOL    HW216002  13.851  10.182  13.883
38055SOL     OW16003  10.074   6.524   4.616
38055SOL    HW116004  10.127   6.531   4.536
38055SOL    HW216005  10.053   6.431   4.623
38056SOL     OW16006   2.209  12.495   2.961
38056SOL    HW116007   2.215  12.412   2.914
38056SOL    HW216008   2.115  12.510   2.970
38057SOL     OW16009  12.573  10.382  10.398
38057SOL    HW116010  12.501  10.323  10.377
38057SOL    HW216011  12.532  10.454  10.445
38058SOL     OW16012  13.479   1.564   4.116
38058SOL    HW116013  13.395   1.552   4.072
38058SOL    HW216014  13.477   1.500   4.188
38059SOL     OW16015   1.310   3.022  10.626
38059SOL    HW116016   1.344   3.022  10.716
38059SOL    HW216017   1.381   2.984  10.574
38060SOL     OW16018   4.791  11.292   5.329
38060SOL    HW116019   4.887  11.292   5.329
38060SOL    HW216020   4.767  11.238   5.404
38061SOL     OW16021   6.301  12.202   1.588
38061SOL    HW116022   6.244  12.260   1.639
38061SOL    HW216023   6.386  12.208   1.631
38062SOL     OW16024  11.621   6.046   6.246
38062SOL    HW116025  11.603   6.127   6.198
38062SOL    HW216026  11.712   6.054   6.274
38063SOL     OW16027   3.131   5.308   3.037
38063SOL    HW116028   3.126   5.218   3.004
38063SOL    HW216029   3.128   5.363   2.959
38064SOL     OW16030   1.936   8.168  14.292
38064SOL    HW116031   1.916   8.170  14.198
38064SOL    HW216032   2.018   8.216  14.301
38065SOL     OW16033   2.004   7.223   8.119
38065SOL    HW116034   2.031   7.311   8.145
38065SOL    HW216035   2.059   7.165   8.171
38066SOL     OW16036   7.315  12.698  11.393
38066SOL    HW116037   7.261  12.749  11.333
38066SOL    HW216038   7.280  12.609  11.388
38067SOL     OW16039   4.470  13.651  14.491
38067SOL    HW116040   4.471  13.746  14.496
38067SOL    HW216041   4.515  13.622  14.570
38068SOL     OW16042   4.123  14.605  12.474
38068SOL    HW116043   4.104  14.514  12.495
38068SOL    HW216044   4.073  14.622  12.394
38069SOL     OW16045  12.975   2.578  12.975
38069SOL    HW116046  13.057   2.582  12.926
38069SOL    HW216047  12.941   2.667  12.973
38070SOL     OW16048   5.228  13.383   6.542
38070SOL    HW116049   5.292  13.414   6.606
38070SOL    HW216050   5.151  13.361   6.595
38071SOL     OW16051  12.258   8.531   7.162
38071SOL    HW116052  12.177   8.574   7.189
38071SOL    HW216053  12.316   8.541   7.237
38072SOL     OW16054   7.986   2.256   2.227
38072SOL    HW116055   7.904   2.271   2.181
38072SOL    HW216056   7.960   2.231   2.316
38073SOL     OW16057   9.614   2.345  13.101
38073SOL    HW116058   9.651   2.388  13.178
38073SOL    HW216059   9.677   2.361  13.031
38074SOL     OW16060  10.482  13.348   3.891
38074SOL    HW116061  10.417  13.296   3.938
38074SOL    HW216062  10.549  13.368   3.957
38075SOL     OW16063  13.728  11.556   7.020
38075SOL    HW116064  13.738  11.634   7.076
38075SOL    HW216065  13.734  11.482   7.080
38076SOL     OW16066  14.480   4.483  12.361
38076SOL    HW116067  14.501   4.402  12.406
38076SOL    HW216068  14.394   4.508  12.396
38077SOL     OW16069   7.587   7.680  12.771
38077SOL    HW116070   7.565   7.718  12.856
38077SOL    HW216071   7.682   7.688  12.765
38078SOL     OW16072   1.016   1.089   0.937
38078SOL    HW116073   0.985   1.084   0.847
38078SOL    HW216074   0.952   1.144   0.982
38079SOL     OW16075  14.218   2.991   7.836
38079SOL    HW116076  14.297   2.945   7.866
38079SOL    HW216077  14.148   2.927   7.848
38080SOL     OW16078   6.109   2.679   4.505
38080SOL    HW116079   6.201   2.702   4.491
38080SOL    HW216080   6.068   2.692   4.419
38081SOL     OW16081  13.503   0.833   0.996
38081SOL    HW116082  13.515   0.846   1.090
38081SOL    HW216083  13.480   0.919   0.963
38082SOL     OW16084  11.340   8.600   0.536
38082SOL    HW116085  11.411   8.653   0.499
38082SOL    HW216086  11.365   8.588   0.628
38083SOL     OW16087   2.560   4.243   7.349
38083SOL    HW116088   2.573   4.194   7.268
38083SOL    HW216089   2.526   4.179   7.411
38084SOL     OW16090  14.301   2.882  11.033
38084SOL    HW116091  14.354   2.813  11.071
38084SOL    HW216092  14.246   2.838  10.969
38085SOL     OW16093  13.214  11.540   4.889
38085SOL    HW116094  13.248  11.494   4.966
38085SOL    HW216095  13.219  11.633   4.913
38086SOL     OW16096   3.737   9.875  13.699
38086SOL    HW116097   3.772   9.807  13.641
38086SOL    HW216098   3.655   9.901  13.658
38087SOL     OW16099   9.921   6.396   9.513
38087SOL    HW116100  10.014   6.380   9.529
38087SOL    HW216101   9.877   6.364   9.592
38088SOL     OW16102  12.451   1.405  12.524
38088SOL    HW116103  12.428   1.481  12.469
38088SOL    HW216104  12.544   1.418  12.544
38089SOL     OW16105   6.696  12.774   8.507
38089SOL    HW116106   6.780  12.817   8.524
38089SOL    HW216107   6.679  12.722   8.585
38090SOL     OW16108   9.015   0.089   5.448
38090SOL    HW116109   8.987   0.116   5.536
38090SOL    HW216110   9.021  14.875   5.454
38091SOL     OW16111   6.670   1.041  11.412
38091SOL    HW116112   6.697   0.950  11.425
38091SOL    HW216113   6.652   1.048  11.318
38092SOL     OW16114   5.425  10.691   5.111
38092SOL    HW116115   5.334  10.705   5.136
38092SOL    HW216116   5.431  10.726   5.022
38093SOL     OW16117  12.980   4.368  13.983
38093SOL    HW116118  13.010   4.359  14.074
38093SOL    HW216119  13.039   4.311  13.933
38094SOL     OW16120  13.855  10.894   5.858
38094SOL    HW116121  13.858  10.891   5.954
38094SOL    HW216122  13.940  10.860   5.830
38095SOL     OW16123   2.045   6.467  11.257
38095SOL    HW116124   2.139   6.458  11.241
38095SOL    HW216125   2.004   6.410  11.191
38096SOL     OW16126   4.194   4.349  12.909
38096SOL    HW116127   4.259   4.333  12.840
38096SOL    HW216128   4.144   4.268  12.913
38097SOL     OW16129  12.004  14.078   4.327
38097SOL    HW116130  12.055  14.099   4.405
38097SOL    HW216131  12.058  14.015   4.280
38098SOL     OW16132  14.755   0.866   1.490
38098SOL    HW116133  14.830   0.862   1.430
38098SOL    HW216134  14.741   0.960   1.503
38099SOL     OW16135   9.924   1.799   2.652
38099SOL    HW116136  10.008   1.827   2.688
38099SOL    HW216137   9.943   1.778   2.560
38100SOL     OW16138  12.428  11.217  11.021
38100SOL    HW116139  12.431  11.128  10.987
38100SOL    HW216140  12.430  11.207  11.116
38101SOL     OW16141   5.425  11.263   6.503
38101SOL    HW116142   5.493  11.287   6.441
38101SOL    HW216143   5.473  11.228   6.579
38102SOL     OW16144  13.744  13.721   0.990
38102SOL    HW116145  13.812  13.778   0.956
38102SOL    HW216146  13.789  13.640   1.012
38103SOL     OW16147   2.858  12.254  10.443
38103SOL    HW116148   2.923  12.234  10.376
38103SOL    HW216149   2.908  12.292  10.515
38104SOL     OW16150   3.061   4.065   8.824
38104SOL    HW116151   3.135   4.082   8.765
38104SOL    HW216152   2.984   4.082   8.770
38105SOL     OW16153  12.910   8.448   6.627
38105SOL    HW116154  12.915   8.413   6.538
38105SOL    HW216155  12.828   8.498   6.629
38106SOL     OW16156  11.459   8.224   2.936
38106SOL    HW116157  11.475   8.183   3.020
38106SOL    HW216158  11.546   8.230   2.895
38107SOL     OW16159   4.435   0.894   4.211
38107SOL    HW116160   4.459   0.840   4.135
38107SOL    HW216161   4.346   0.866   4.232
38108SOL     OW16162  12.933   1.221   8.482
38108SOL    HW116163  12.940   1.192   8.392
38108SOL    HW216164  12.888   1.150   8.527
38109SOL     OW16165   6.595  11.300   8.739
38109SOL    HW116166   6.663  11.243   8.775
38109SOL    HW216167   6.598  11.284   8.644
38110SOL     OW16168   4.133   6.713   9.716
38110SOL    HW116169   4.221   6.739   9.744
38110SOL    HW216170   4.092   6.679   9.796
38111SOL     OW16171   2.315   0.409   1.206
38111SOL    HW116172   2.324   0.472   1.134
38111SOL    HW216173   2.221   0.408   1.224
38112SOL     OW16174   6.282   2.721   9.109
38112SOL    HW116175   6.277   2.632   9.075
38112SOL    HW216176   6.351   2.718   9.176
38113SOL     OW16177   0.936   4.400   5.269
38113SOL    HW116178   0.939   4.391   5.364
38113SOL    HW216179   0.912   4.491   5.254
38114SOL     OW16180   7.171   2.753   9.022
38114SOL    HW116181   7.155   2.792   9.107
38114SOL    HW216182   7.111   2.799   8.963
38115SOL     OW16183   7.087   6.308   3.141
38115SOL    HW116184   7.114   6.396   3.166
38115SOL    HW216185   6.991   6.313   3.137
38116SOL     OW16186   1.689  10.702   1.584
38116SOL    HW116187   1.708  10.609   1.573
38116SOL    HW216188   1.596  10.710   1.563
38117SOL     OW16189  11.782   8.636   5.567
38117SOL    HW116190  11.812   8.587   5.491
38117SOL    HW216191  11.690   8.611   5.577
38118SOL     OW16192  13.235   4.768   6.862
38118SOL    HW116193  13.284   4.687   6.848
38118SOL    HW216194  13.268   4.828   6.795
38119SOL     OW16195   1.714   5.794   7.143
38119SOL    HW116196   1.736   5.701   7.144
38119SOL    HW216197   1.748   5.828   7.226
38120SOL     OW16198  14.441  13.722   0.480
38120SOL    HW116199  14.485  13.707   0.563
38120SOL    HW216200  14.379  13.792   0.497
38121SOL     OW16201   7.560   4.085   0.215
38121SOL    HW116202   7.514   4.076   0.299
38121SOL    HW216203   7.494   4.062   0.149
38122SOL     OW16204   1.533   1.260   4.310
38122SOL    HW116205   1.516   1.333   4.250
38122SOL    HW216206   1.628   1.262   4.324
38123SOL     OW16207   4.848  13.875  12.987
38123SOL    HW116208   4.907  13.851  13.058
38123SOL    HW216209   4.767  13.828  13.006
38124SOL     OW16210   9.838  12.070   4.870
38124SOL    HW116211   9.862  12.007   4.802
38124SOL    HW216212   9.922  12.109   4.896
38125SOL     OW16213  13.558   2.351  11.312
38125SOL    HW116214  13.641   2.315  11.342
38125SOL    HW216215  13.521   2.394  11.389
38126SOL     OW16216  12.500  14.198   4.640
38126SOL    HW116217  12.480  14.247   4.720
38126SOL    HW216218  12.577  14.242   4.605
38127SOL     OW16219  13.126   9.797  12.553
38127SOL    HW116220  13.203   9.809  12.497
38127SOL    HW216221  13.053   9.785  12.493
38128SOL     OW16222   7.301  13.325   0.450
38128SOL    HW116223   7.321  13.232   0.460
38128SOL    HW216224   7.218  13.337   0.495
38129SOL     OW16225   6.397  12.466   5.504
38129SOL    HW116226   6.478  12.491   5.458
38129SOL    HW216227   6.327  12.495   5.447
38130SOL     OW16228   5.056   4.064   8.958
38130SOL    HW116229   5.095   4.152   8.959
38130SOL    HW216230   4.998   4.064   9.034
38131SOL     OW16231  12.185  13.332   2.435
38131SOL    HW116232  12.174  13.241   2.463
38131SOL    HW216233  12.099  13.372   2.450
38132SOL     OW16234   0.648   3.129  14.601
38132SOL    HW116235   0.728   3.078  14.588
38132SOL    HW216236   0.678   3.213  14.636
38133SOL     OW16237  12.315  10.195   1.356
38133SOL    HW116238  12.277  10.210   1.270
38133SOL    HW216239  12.239  10.186   1.415
38134SOL     OW16240   6.784  14.815   8.152
38134SOL    HW116241   6.878  14.813   8.168
38134SOL    HW216242   6.747  14.855   8.230
38135SOL     OW16243   4.069   9.598   1.664
38135SOL    HW116244   4.164   9.581   1.669
38135SOL    HW216245   4.062   9.684   1.625
38136SOL     OW16246   0.748   5.439   7.996
38136SOL    HW116247   0.813   5.372   7.978
38136SOL    HW216248   0.665   5.392   7.999
38137SOL     OW16249   6.781  12.395   9.947
38137SOL    HW116250   6.806  12.333  10.015
38137SOL    HW216251   6.700  12.436   9.980
38138SOL     OW16252  13.904   8.093   0.547
38138SOL    HW116253  13.880   8.127   0.461
38138SOL    HW216254  13.998   8.079   0.542
38139SOL     OW16255   3.065  11.726  14.123
38139SOL    HW116256   3.081  11.655  14.185
38139SOL    HW216257   2.998  11.780  14.165
38140SOL     OW16258   7.829   9.549  11.258
38140SOL    HW116259   7.830   9.613  11.330
38140SOL    HW216260   7.751   9.496  11.275
38141SOL     OW16261   7.260   8.396   0.455
38141SOL    HW116262   7.257   8.301   0.445
38141SOL    HW216263   7.332   8.412   0.516
38142SOL     OW16264  12.730   9.024   4.891
38142SOL    HW116265  12.813   8.984   4.915
38142SOL    HW216266  12.664   8.972   4.937
38143SOL     OW16267   0.760   5.679   4.066
38143SOL    HW116268   0.770   5.664   3.972
38143SOL    HW216269   0.671   5.652   4.086
38144SOL     OW16270   7.192  13.081  11.399
38144SOL    HW116271   7.104  13.093  11.364
38144SOL    HW216272   7.207  12.986  11.396
38145SOL     OW16273   9.161   1.262   0.792
38145SOL    HW116274   9.106   1.184   0.789
38145SOL    HW216275   9.247   1.231   0.819
38146SOL     OW16276   9.804  11.281  13.365
38146SOL    HW116277   9.836  11.310  13.450
38146SOL    HW216278   9.790  11.361  13.316
38147SOL     OW16279  14.059  14.410   2.798
38147SOL    HW116280  13.994  14.377   2.859
38147SOL    HW216281  14.024  14.494   2.769
38148SOL     OW16282   8.343  12.366   8.670
38148SOL    HW116283   8.376  12.454   8.689
38148SOL    HW216284   8.401  12.333   8.601
38149SOL     OW16285  12.303  12.628   2.381
38149SOL    HW116286  12.279  12.718   2.359
38149SOL    HW216287  12.395  12.633   2.407
38150SOL     OW16288   4.429  12.999   5.322
38150SOL    HW116289   4.503  13.002   5.261
38150SOL    HW216290   4.409  13.091   5.340
38151SOL     OW16291  13.524   8.616   2.101
38151SOL    HW116292  13.474   8.590   2.023
38151SOL    HW216293  13.545   8.533   2.145
38152SOL     OW16294  13.203   7.977   0.250
38152SOL    HW116295  13.250   7.913   0.196
38152SOL    HW216296  13.261   7.992   0.325
38153SOL     OW16297   6.344   7.698   2.267
38153SOL    HW116298   6.391   7.704   2.183
38153SOL    HW216299   6.413   7.706   2.333
38154SOL     OW16300   2.779   6.666  14.112
38154SOL    HW116301   2.868   6.666  14.147
38154SOL    HW216302   2.771   6.750  14.067
38155SOL     OW16303   4.716   7.140   5.861
38155SOL    HW116304   4.765   7.219   5.839
38155SOL    HW216305   4.624   7.167   5.854
38156SOL     OW16306   0.340  12.117  12.561
38156SOL    HW116307   0.299  12.154  12.483
38156SOL    HW216308   0.294  12.034  12.574
38157SOL     OW16309   7.574   9.429   0.923
38157SOL    HW116310   7.647   9.454   0.979
38157SOL    HW216311   7.540   9.348   0.962
38158SOL     OW16312   4.246   1.952   2.387
38158SOL    HW116313   4.220   1.953   2.295
38158SOL    HW216314   4.260   2.045   2.408
38159SOL     OW16315   9.120   7.341  13.164
38159SOL    HW116316   9.113   7.246  13.175
38159SOL    HW216317   9.127   7.375  13.253
38160SOL     OW16318   7.865   9.937   7.434
38160SOL    HW116319   7.899   9.848   7.420
38160SOL    HW216320   7.873   9.979   7.349
38161SOL     OW16321   1.345   8.600   1.159
38161SOL    HW116322   1.401   8.526   1.180
38161SOL    HW216323   1.407   8.672   1.141
38162SOL     OW16324  11.386   9.885   7.908
38162SOL    HW116325  11.347   9.895   7.821
38162SOL    HW216326  11.320   9.839   7.959
38163SOL     OW16327   8.717   2.255  14.540
38163SOL    HW116328   8.785   2.320  14.559
38163SOL    HW216329   8.635   2.299  14.563
38164SOL     OW16330  10.214  13.301  12.896
38164SOL    HW116331  10.124  13.278  12.920
38164SOL    HW216332  10.216  13.294  12.801
38165SOL     OW16333  10.109   1.445   7.988
38165SOL    HW116334  10.158   1.490   7.920
38165SOL    HW216335  10.171   1.434   8.060
38166SOL     OW16336   9.013  14.855   4.258
38166SOL    HW116337   9.079  14.786   4.248
38166SOL    HW216338   9.022   0.001   4.349
38167SOL     OW16339   0.170   3.686  13.767
38167SOL    HW116340   0.083   3.666  13.733
38167SOL    HW216341   0.163   3.670  13.861
38168SOL     OW16342  10.079   0.886  12.296
38168SOL    HW116343  10.093   0.792  12.290
38168SOL    HW216344  10.073   0.903  12.390
38169SOL     OW16345   7.218   5.081   9.079
38169SOL    HW116346   7.143   5.140   9.076
38169SOL    HW216347   7.187   5.001   9.037
38170SOL     OW16348   4.817   8.678   3.030
38170SOL    HW116349   4.882   8.651   3.095
38170SOL    HW216350   4.733   8.672   3.076
38171SOL     OW16351  12.873   1.487  12.857
38171SOL    HW116352  12.935   1.507  12.787
38171SOL    HW216353  12.885   1.558  12.921
38172SOL     OW16354  13.538  12.621  13.140
38172SOL    HW116355  13.622  12.656  13.111
38172SOL    HW216356  13.473  12.667  13.087
38173SOL     OW16357  13.766  10.962  14.338
38173SOL    HW116358  13.753  10.896  14.270
38173SOL    HW216359  13.724  10.924  14.415
38174SOL     OW16360  12.957   1.872   2.530
38174SOL    HW116361  12.922   1.953   2.493
38174SOL    HW216362  12.911   1.862   2.614
38175SOL     OW16363  10.563  10.092  14.089
38175SOL    HW116364  10.549  10.122  13.999
38175SOL    HW216365  10.479  10.109  14.133
38176SOL     OW16366   8.453   5.160   0.298
38176SOL    HW116367   8.427   5.193   0.212
38176SOL    HW216368   8.371   5.146   0.344
38177SOL     OW16369  12.349  11.403   4.292
38177SOL    HW116370  12.291  11.399   4.216
38177SOL    HW216371  12.403  11.481   4.277
38178SOL     OW16372   7.227   2.173  13.149
38178SOL    HW116373   7.194   2.213  13.069
38178SOL    HW216374   7.308   2.221  13.168
38179SOL     OW16375  10.695   2.445   4.730
38179SOL    HW116376  10.692   2.538   4.751
38179SOL    HW216377  10.624   2.433   4.666
38180SOL     OW16378   8.846  13.195   4.499
38180SOL    HW116379   8.914  13.167   4.438
38180SOL    HW216380   8.798  13.264   4.453
38181SOL     OW16381   8.876  10.908   1.290
38181SOL    HW116382   8.828  10.851   1.350
38181SOL    HW216383   8.923  10.969   1.347
38182SOL     OW16384   8.749   1.269   7.864
38182SOL    HW116385   8.675   1.282   7.803
38182SOL    HW216386   8.820   1.238   7.808
38183SOL     OW16387   9.902   2.570   9.683
38183SOL    HW116388   9.832   2.636   9.683
38183SOL    HW216389   9.980   2.618   9.710
38184SOL     OW16390   9.375   5.629   5.571
38184SOL    HW116391   9.461   5.585   5.567
38184SOL    HW216392   9.318   5.574   5.517
38185SOL     OW16393   3.323   7.015  14.560
38185SOL    HW116394   3.399   7.029  14.503
38185SOL    HW216395   3.356   6.959  14.630
38186SOL     OW16396  14.359   2.550   1.580
38186SOL    HW116397  14.307   2.472   1.597
38186SOL    HW216398  14.330   2.580   1.494
38187SOL     OW16399   1.672   7.754  12.965
38187SOL    HW116400   1.632   7.725  13.047
38187SOL    HW216401   1.765   7.762  12.986
38188SOL     OW16402  14.638  10.143   9.646
38188SOL    HW116403  14.670  10.143   9.556
38188SOL    HW216404  14.706  10.188   9.696
38189SOL     OW16405  11.494   3.628   9.731
38189SOL    HW116406  11.526   3.694   9.793
38189SOL    HW216407  11.478   3.676   9.650
38190SOL     OW16408   8.431   1.417   8.471
38190SOL    HW116409   8.494   1.345   8.472
38190SOL    HW216410   8.464   1.479   8.536
38191SOL     OW16411   4.474   8.721  14.485
38191SOL    HW116412   4.396   8.674  14.455
38191SOL    HW216413   4.534   8.718  14.410
38192SOL     OW16414  11.365  11.727  11.482
38192SOL    HW116415  11.320  11.788  11.424
38192SOL    HW216416  11.298  11.703  11.547
38193SOL     OW16417   4.785   6.735  10.589
38193SOL    HW116418   4.858   6.778  10.633
38193SOL    HW216419   4.725   6.712  10.660
38194SOL     OW16420  14.868   9.014   1.411
38194SOL    HW116421   0.027   9.096   1.440
38194SOL    HW216422  14.795   9.001   1.473
38195SOL     OW16423  10.189  12.148  12.860
38195SOL    HW116424  10.128  12.098  12.914
38195SOL    HW216425  10.188  12.236  12.898
38196SOL     OW16426  13.257   5.720   1.078
38196SOL    HW116427  13.263   5.652   1.010
38196SOL    HW216428  13.346   5.729   1.111
38197SOL     OW16429   4.153   6.903   2.526
38197SOL    HW116430   4.081   6.932   2.470
38197SOL    HW216431   4.195   6.983   2.556
38198SOL     OW16432  12.514  10.391   6.560
38198SOL    HW116433  12.503  10.296   6.569
38198SOL    HW216434  12.591  10.411   6.612
38199SOL     OW16435   6.809  10.799   2.815
38199SOL    HW116436   6.866  10.738   2.863
38199SOL    HW216437   6.869  10.860   2.773
38200SOL     OW16438  14.559   0.309   8.187
38200SOL    HW116439  14.512   0.387   8.157
38200SOL    HW216440  14.516   0.285   8.268
38201SOL     OW16441  10.650   6.252  12.718
38201SOL    HW116442  10.739   6.220  12.731
38201SOL    HW216443  10.650   6.285  12.628
38202SOL     OW16444  12.910   3.457  14.408
38202SOL    HW116445  12.983   3.481  14.465
38202SOL    HW216446  12.861   3.392  14.458
38203SOL     OW16447   1.598  11.934  12.789
38203SOL    HW116448   1.621  11.863  12.728
38203SOL    HW216449   1.680  11.980  12.804
38204SOL     OW16450   4.510  11.619  12.219
38204SOL    HW116451   4.506  11.589  12.310
38204SOL    HW216452   4.448  11.562  12.173
38205SOL     OW16453   6.595  11.768   1.903
38205SOL    HW116454   6.613  11.752   1.996
38205SOL    HW216455   6.500  11.783   1.899
38206SOL     OW16456   2.642  14.725   6.334
38206SOL    HW116457   2.632  14.666   6.409
38206SOL    HW216458   2.615  14.672   6.258
38207SOL     OW16459  13.856   5.538   7.516
38207SOL    HW116460  13.765   5.548   7.545
38207SOL    HW216461  13.854   5.460   7.460
38208SOL     OW16462  12.893   0.020   0.845
38208SOL    HW116463  12.881  14.855   0.762
38208SOL    HW216464  12.937  14.840   0.902
38209SOL     OW16465  11.251  10.737  12.153
38209SOL    HW116466  11.189  10.710  12.221
38209SOL    HW216467  11.333  10.750  12.200
38210SOL     OW16468   6.550   1.236   3.044
38210SOL    HW116469   6.611   1.270   3.109
38210SOL    HW216470   6.553   1.300   2.973
38211SOL     OW16471   4.324  13.669  12.502
38211SOL    HW116472   4.257  13.652  12.436
38211SOL    HW216473   4.347  13.761  12.490
38212SOL     OW16474   4.177  12.753   0.757
38212SOL    HW116475   4.224  12.676   0.726
38212SOL    HW216476   4.084  12.731   0.744
38213SOL     OW16477   5.065   3.363   4.873
38213SOL    HW116478   5.036   3.295   4.811
38213SOL    HW216479   5.056   3.445   4.824
38214SOL     OW16480  12.578  12.868  12.892
38214SOL    HW116481  12.616  12.783  12.870
38214SOL    HW216482  12.535  12.854  12.977
38215SOL     OW16483   5.792   0.227  11.933
38215SOL    HW116484   5.875   0.253  11.972
38215SOL    HW216485   5.769   0.146  11.978
38216SOL     OW16486   3.886  11.610   4.164
38216SOL    HW116487   3.928  11.525   4.149
38216SOL    HW216488   3.921  11.639   4.249
38217SOL     OW16489   4.253  14.602  13.575
38217SOL    HW116490   4.337  14.557  13.567
38217SOL    HW216491   4.192  14.547  13.526
38218SOL     OW16492   2.408   5.221   6.720
38218SOL    HW116493   2.461   5.224   6.641
38218SOL    HW216494   2.352   5.298   6.715
38219SOL     OW16495   8.621   0.711  10.200
38219SOL    HW116496   8.594   0.744  10.114
38219SOL    HW216497   8.676   0.635  10.181
38220SOL     OW16498   3.647   4.026   8.806
38220SOL    HW116499   3.733   4.056   8.773
38220SOL    HW216500   3.668   3.959   8.870
38221SOL     OW16501   0.242  13.432   6.980
38221SOL    HW116502   0.174  13.439   6.913
38221SOL    HW216503   0.295  13.357   6.953
38222SOL     OW16504   6.480  13.218  13.824
38222SOL    HW116505   6.543  13.246  13.891
38222SOL    HW216506   6.408  13.178  13.873
38223SOL     OW16507  12.181   9.449   4.878
38223SOL    HW116508  12.161   9.398   4.957
38223SOL    HW216509  12.152   9.393   4.806
38224SOL     OW16510   2.518   9.925   2.415
38224SOL    HW116511   2.509   9.847   2.359
38224SOL    HW216512   2.582   9.899   2.481
38225SOL     OW16513   1.957   6.215   6.945
38225SOL    HW116514   1.901   6.137   6.943
38225SOL    HW216515   1.972   6.232   7.037
38226SOL     OW16516   1.711   3.254   4.969
38226SOL    HW116517   1.806   3.254   4.960
38226SOL    HW216518   1.695   3.208   5.051
38227SOL     OW16519  14.433  10.471  14.729
38227SOL    HW116520  14.339  10.480  14.712
38227SOL    HW216521  14.468  10.429  14.651
38228SOL     OW16522   8.832   7.986  11.675
38228SOL    HW116523   8.923   7.963  11.654
38228SOL    HW216524   8.828   7.984  11.771
38229SOL     OW16525   1.414   1.999   4.745
38229SOL    HW116526   1.365   2.071   4.784
38229SOL    HW216527   1.424   2.024   4.653
38230SOL     OW16528  10.030   1.353   1.014
38230SOL    HW116529  10.072   1.303   0.944
38230SOL    HW216530   9.974   1.289   1.059
38231SOL     OW16531   4.938   8.251  13.061
38231SOL    HW116532   4.938   8.304  12.981
38231SOL    HW216533   4.892   8.306  13.125
38232SOL     OW16534   6.053   0.529   5.401
38232SOL    HW116535   6.116   0.601   5.397
38232SOL    HW216536   6.023   0.518   5.311
38233SOL     OW16537   4.904   2.111   7.012
38233SOL    HW116538   4.860   2.192   6.986
38233SOL    HW216539   4.877   2.047   6.947
38234SOL     OW16540   8.238  11.541   0.163
38234SOL    HW116541   8.265  11.613   0.219
38234SOL    HW216542   8.310  11.478   0.167
38235SOL     OW16543   2.350   5.547   2.119
38235SOL    HW116544   2.343   5.635   2.156
38235SOL    HW216545   2.280   5.497   2.162
38236SOL     OW16546   6.289   4.066  12.652
38236SOL    HW116547   6.302   4.078  12.746
38236SOL    HW216548   6.289   3.971  12.639
38237SOL     OW16549  12.704   8.365   2.073
38237SOL    HW116550  12.618   8.348   2.110
38237SOL    HW216551  12.758   8.389   2.148
38238SOL     OW16552   7.956   0.249   9.782
38238SOL    HW116553   8.042   0.282   9.805
38238SOL    HW216554   7.934   0.293   9.699
38239SOL     OW16555  10.028  10.415   8.280
38239SOL    HW116556  10.030  10.369   8.364
38239SOL    HW216557   9.980  10.355   8.221
38240SOL     OW16558  14.746   0.482  12.275
38240SOL    HW116559  14.691   0.466  12.352
38240SOL    HW216560  14.766   0.576  12.279
38241SOL     OW16561   1.437  14.367   9.908
38241SOL    HW116562   1.435  14.351   9.814
38241SOL    HW216563   1.519  14.413   9.923
38242SOL     OW16564   1.345  12.963   3.016
38242SOL    HW116565   1.386  13.049   3.012
38242SOL    HW216566   1.274  12.973   3.079
38243SOL     OW16567   2.913   0.163   1.024
38243SOL    HW116568   2.865   0.091   0.982
38243SOL    HW216569   2.961   0.121   1.095
38244SOL     OW16570   6.111   9.750  12.518
38244SOL    HW116571   6.202   9.740  12.489
38244SOL    HW216572   6.106   9.840  12.551
38245SOL     OW16573  13.223  11.137   6.814
38245SOL    HW116574  13.255  11.062   6.862
38245SOL    HW216575  13.250  11.213   6.865
38246SOL     OW16576   0.942   7.519   9.637
38246SOL    HW116577   1.028   7.517   9.680
38246SOL    HW216578   0.879   7.514   9.709
38247SOL     OW16579  10.281  11.005   7.359
38247SOL    HW116580  10.222  11.071   7.322
38247SOL    HW216581  10.251  10.994   7.449
38248SOL     OW16582   9.825   5.412   5.880
38248SOL    HW116583   9.870   5.330   5.861
38248SOL    HW216584   9.734   5.387   5.896
38249SOL     OW16585   1.950   6.948  14.653
38249SOL    HW116586   2.039   6.982  14.660
38249SOL    HW216587   1.897   7.023  14.628
38250SOL     OW16588  13.205   9.011   7.471
38250SOL    HW116589  13.166   8.964   7.544
38250SOL    HW216590  13.276   9.062   7.510
38251SOL     OW16591  11.366   7.309   5.674
38251SOL    HW116592  11.400   7.256   5.602
38251SOL    HW216593  11.349   7.247   5.744
38252SOL     OW16594  13.793   9.640   2.654
38252SOL    HW116595  13.757   9.712   2.706
38252SOL    HW216596  13.827   9.578   2.718
38253SOL     OW16597  10.589   8.798   3.383
38253SOL    HW116598  10.546   8.848   3.313
38253SOL    HW216599  10.653   8.859   3.420
38254SOL     OW16600   1.984  11.918   8.318
38254SOL    HW116601   2.021  11.899   8.232
38254SOL    HW216602   1.976  11.833   8.361
38255SOL     OW16603  11.210  10.592  13.139
38255SOL    HW116604  11.292  10.622  13.179
38255SOL    HW216605  11.154  10.569  13.213
38256SOL     OW16606   7.016   3.275   7.456
38256SOL    HW116607   6.961   3.198   7.468
38256SOL    HW216608   6.968   3.330   7.394
38257SOL     OW16609   0.911   3.775   7.661
38257SOL    HW116610   0.815   3.780   7.660
38257SOL    HW216611   0.933   3.768   7.754
38258SOL     OW16612  10.933  13.113  10.338
38258SOL    HW116613  10.870  13.041  10.341
38258SOL    HW216614  10.885  13.188  10.375
38259SOL     OW16615   9.602   1.996   2.642
38259SOL    HW116616   9.656   1.918   2.657
38259SOL    HW216617   9.665   2.064   2.616
38260SOL     OW16618   9.728   7.650  10.635
38260SOL    HW116619   9.738   7.582  10.702
38260SOL    HW216620   9.793   7.717  10.658
38261SOL     OW16621   7.514   7.392  11.266
38261SOL    HW116622   7.604   7.386  11.235
38261SOL    HW216623   7.490   7.483  11.252
38262SOL     OW16624  14.734  10.052   7.010
38262SOL    HW116625  14.714   9.974   6.958
38262SOL    HW216626  14.781  10.018   7.087
38263SOL     OW16627   2.907  14.364   4.820
38263SOL    HW116628   2.884  14.276   4.792
38263SOL    HW216629   2.949  14.403   4.743
38264SOL     OW16630  13.603  12.882  11.873
38264SOL    HW116631  13.648  12.865  11.791
38264SOL    HW216632  13.625  12.808  11.929
38265SOL     OW16633   3.625   1.428  13.450
38265SOL    HW116634   3.610   1.521  13.434
38265SOL    HW216635   3.537   1.390  13.451
38266SOL     OW16636  13.926   4.347   7.047
38266SOL    HW116637  13.998   4.309   7.098
38266SOL    HW216638  13.927   4.300   6.964
38267SOL     OW16639  13.078   9.192   1.993
38267SOL    HW116640  13.048   9.283   1.984
38267SOL    HW216641  13.118   9.172   1.908
38268SOL     OW16642   2.825   1.694   8.731
38268SOL    HW116643   2.775   1.641   8.794
38268SOL    HW216644   2.916   1.678   8.756
38269SOL     OW16645  12.493   2.109   2.086
38269SOL    HW116646  12.497   2.064   2.170
38269SOL    HW216647  12.569   2.167   2.086
38270SOL     OW16648   1.117   4.404   1.370
38270SOL    HW116649   1.178   4.471   1.401
38270SOL    HW216650   1.033   4.448   1.366
38271SOL     OW16651  11.703   3.267   9.421
38271SOL    HW116652  11.693   3.268   9.325
38271SOL    HW216653  11.660   3.186   9.448
38272SOL     OW16654  13.862  13.650  11.457
38272SOL    HW116655  13.835  13.641  11.366
38272SOL    HW216656  13.913  13.731  11.459
38273SOL     OW16657  13.558   5.655   7.621
38273SOL    HW116658  13.485   5.717   7.627
38273SOL    HW216659  13.529   5.590   7.557
38274SOL     OW16660   5.152   6.985   3.702
38274SOL    HW116661   5.218   6.919   3.684
38274SOL    HW216662   5.169   7.012   3.792
38275SOL     OW16663  14.556  11.582  10.234
38275SOL    HW116664  14.625  11.616  10.178
38275SOL    HW216665  14.476  11.588  10.181
38276SOL     OW16666   9.084  10.987   4.367
38276SOL    HW116667   9.068  10.981   4.273
38276SOL    HW216668   9.086  11.081   4.386
38277SOL     OW16669  13.145   5.219   3.987
38277SOL    HW116670  13.110   5.142   4.032
38277SOL    HW216671  13.227   5.238   4.032
38278SOL     OW16672   1.274  10.180   5.463
38278SOL    HW116673   1.227  10.263   5.464
38278SOL    HW216674   1.290  10.160   5.556
38279SOL     OW16675  11.654   0.588   9.820
38279SOL    HW116676  11.702   0.508   9.843
38279SOL    HW216677  11.700   0.622   9.743
38280SOL     OW16678   3.317  11.613   8.405
38280SOL    HW116679   3.222  11.628   8.406
38280SOL    HW216680   3.327  11.524   8.372
38281SOL     OW16681   8.101   8.660   4.442
38281SOL    HW116682   8.065   8.596   4.380
38281SOL    HW216683   8.154   8.608   4.502
38282SOL     OW16684   0.259  14.340  13.926
38282SOL    HW116685   0.196  14.304  13.864
38282SOL    HW216686   0.344  14.308  13.897
38283SOL     OW16687   7.481  14.410  12.571
38283SOL    HW116688   7.515  14.399  12.659
38283SOL    HW216689   7.435  14.328  12.552
38284SOL     OW16690  14.654  10.624  13.729
38284SOL    HW116691  14.636  10.549  13.786
38284SOL    HW216692  14.686  10.692  13.788
38285SOL     OW16693  11.812  11.086   7.441
38285SOL    HW116694  11.843  11.015   7.497
38285SOL    HW216695  11.721  11.099   7.467
38286SOL     OW16696   6.917   2.021   7.331
38286SOL    HW116697   7.004   2.038   7.368
38286SOL    HW216698   6.857   2.040   7.403
38287SOL     OW16699  14.156  10.823   1.436
38287SOL    HW116700  14.189  10.873   1.511
38287SOL    HW216701  14.109  10.750   1.475
38288SOL     OW16702  13.538  11.244   3.701
38288SOL    HW116703  13.605  11.310   3.684
38288SOL    HW216704  13.458  11.295   3.714
38289SOL     OW16705  14.342   8.039  10.772
38289SOL    HW116706  14.414   7.990  10.734
38289SOL    HW216707  14.381   8.084  10.847
38290SOL     OW16708   3.456  13.917  11.231
38290SOL    HW116709   3.427  13.920  11.322
38290SOL    HW216710   3.509  13.837  11.225
38291SOL     OW16711   8.327  12.936   9.533
38291SOL    HW116712   8.316  12.841   9.537
38291SOL    HW216713   8.238  12.970   9.539
38292SOL     OW16714  14.186  11.556  10.402
38292SOL    HW116715  14.101  11.523  10.374
38292SOL    HW216716  14.244  11.539  10.327
38293SOL     OW16717  12.590   4.861  11.381
38293SOL    HW116718  12.653   4.920  11.422
38293SOL    HW216719  12.573   4.900  11.295
38294SOL     OW16720   6.793   2.585   2.743
38294SOL    HW116721   6.833   2.594   2.656
38294SOL    HW216722   6.705   2.552   2.726
38295SOL     OW16723  11.072  13.370  11.204
38295SOL    HW116724  11.044  13.279  11.211
38295SOL    HW216725  11.072  13.388  11.111
38296SOL     OW16726  14.335   9.470  10.772
38296SOL    HW116727  14.419   9.453  10.815
38296SOL    HW216728  14.285   9.520  10.836
38297SOL     OW16729  10.756  12.943   0.055
38297SOL    HW116730  10.676  12.918   0.103
38297SOL    HW216731  10.748  12.898  14.853
38298SOL     OW16732  10.066   3.446  14.149
38298SOL    HW116733  10.077   3.376  14.084
38298SOL    HW216734   9.988   3.420  14.199
38299SOL     OW16735   5.040   6.863   4.796
38299SOL    HW116736   5.026   6.776   4.833
38299SOL    HW216737   5.135   6.872   4.793
38300SOL     OW16738   4.818  14.372   1.205
38300SOL    HW116739   4.768  14.439   1.159
38300SOL    HW216740   4.867  14.420   1.272
38301SOL     OW16741  14.551   7.053   1.107
38301SOL    HW116742  14.588   7.137   1.136
38301SOL    HW216743  14.547   7.000   1.186
38302SOL     OW16744   5.300   9.298   1.257
38302SOL    HW116745   5.311   9.239   1.182
38302SOL    HW216746   5.376   9.281   1.312
38303SOL     OW16747   8.777   2.077  11.577
38303SOL    HW116748   8.765   2.055  11.669
38303SOL    HW216749   8.861   2.122  11.573
38304SOL     OW16750   5.057   5.898   1.167
38304SOL    HW116751   5.150   5.905   1.190
38304SOL    HW216752   5.021   5.838   1.232
38305SOL     OW16753   5.822   3.204   2.656
38305SOL    HW116754   5.855   3.162   2.736
38305SOL    HW216755   5.729   3.218   2.674
38306SOL     OW16756   9.702   2.673   0.091
38306SOL    HW116757   9.743   2.755   0.118
38306SOL    HW216758   9.609   2.695   0.082
38307SOL     OW16759   1.215   8.908  10.558
38307SOL    HW116760   1.289   8.906  10.498
38307SOL    HW216761   1.138   8.915  10.501
38308SOL     OW16762   3.844   1.434   1.489
38308SOL    HW116763   3.764   1.386   1.509
38308SOL    HW216764   3.852   1.499   1.559
38309SOL     OW16765   4.204  14.283   5.142
38309SOL    HW116766   4.187  14.373   5.115
38309SOL    HW216767   4.298  14.280   5.161
38310SOL     OW16768  10.755   7.798   2.242
38310SOL    HW116769  10.808   7.802   2.162
38310SOL    HW216770  10.817   7.819   2.312
38311SOL     OW16771   9.677   9.462   7.288
38311SOL    HW116772   9.685   9.542   7.237
38311SOL    HW216773   9.606   9.479   7.350
38312SOL     OW16774  11.266   7.183  11.174
38312SOL    HW116775  11.244   7.142  11.258
38312SOL    HW216776  11.335   7.245  11.195
38313SOL     OW16777   5.975   2.401   1.932
38313SOL    HW116778   6.012   2.386   1.845
38313SOL    HW216779   5.884   2.427   1.915
38314SOL     OW16780  11.282   7.179   9.506
38314SOL    HW116781  11.368   7.141   9.487
38314SOL    HW216782  11.293   7.273   9.492
38315SOL     OW16783  11.805  12.610   5.362
38315SOL    HW116784  11.849  12.615   5.447
38315SOL    HW216785  11.714  12.590   5.383
38316SOL     OW16786  12.689   3.324   2.350
38316SOL    HW116787  12.713   3.399   2.404
38316SOL    HW216788  12.647   3.362   2.273
38317SOL     OW16789   2.657  12.934  13.799
38317SOL    HW116790   2.599  12.977  13.862
38317SOL    HW216791   2.646  12.983  13.718
38318SOL     OW16792   5.240   8.329   1.555
38318SOL    HW116793   5.195   8.404   1.517
38318SOL    HW216794   5.241   8.263   1.486
38319SOL     OW16795  12.557  13.421   3.171
38319SOL    HW116796  12.585  13.398   3.259
38319SOL    HW216797  12.466  13.449   3.181
38320SOL     OW16798   5.127  11.297   4.672
38320SOL    HW116799   5.214  11.259   4.658
38320SOL    HW216800   5.067  11.222   4.666
38321SOL     OW16801   7.400   0.820   0.942
38321SOL    HW116802   7.460   0.843   0.871
38321SOL    HW216803   7.452   0.765   1.001
38322SOL     OW16804   7.131   5.894  12.223
38322SOL    HW116805   7.123   5.906  12.128
38322SOL    HW216806   7.219   5.859  12.235
38323SOL     OW16807   5.298  14.607   3.368
38323SOL    HW116808   5.238  14.677   3.394
38323SOL    HW216809   5.291  14.543   3.439
38324SOL     OW16810   1.432  11.091   5.862
38324SOL    HW116811   1.339  11.067   5.863
38324SOL    HW216812   1.456  11.089   5.770
38325SOL     OW16813   7.267  10.656  12.225
38325SOL    HW116814   7.292  10.692  12.140
38325SOL    HW216815   7.328  10.584  12.240
38326SOL     OW16816  10.375   8.682   2.298
38326SOL    HW116817  10.288   8.642   2.295
38326SOL    HW216818  10.428   8.629   2.238
38327SOL     OW16819   8.219   3.014   4.762
38327SOL    HW116820   8.183   2.927   4.743
38327SOL    HW216821   8.240   3.011   4.855
38328SOL     OW16822  12.478   5.605  11.878
38328SOL    HW116823  12.546   5.568  11.935
38328SOL    HW216824  12.452   5.686  11.922
38329SOL     OW16825   0.959   8.336   0.894
38329SOL    HW116826   1.034   8.378   0.935
38329SOL    HW216827   0.885   8.393   0.915
38330SOL     OW16828  12.413  13.060   2.345
38330SOL    HW116829  12.374  13.133   2.296
38330SOL    HW216830  12.492  13.038   2.296
38331SOL     OW16831  14.874   2.396   6.193
38331SOL    HW116832  14.819   2.434   6.261
38331SOL    HW216833   0.014   2.308   6.225
38332SOL     OW16834  14.016  11.255   5.313
38332SOL    HW116835  14.018  11.294   5.225
38332SOL    HW216836  14.107  11.232   5.330
38333SOL     OW16837  13.813   1.874   8.574
38333SOL    HW116838  13.777   1.819   8.504
38333SOL    HW216839  13.901   1.840   8.588
38334SOL     OW16840  12.271   4.248   0.461
38334SOL    HW116841  12.282   4.305   0.537
38334SOL    HW216842  12.233   4.304   0.394
38335SOL     OW16843   8.344   5.765   2.590
38335SOL    HW116844   8.253   5.796   2.591
38335SOL    HW216845   8.382   5.806   2.513
38336SOL     OW16846   9.308   9.327  14.072
38336SOL    HW116847   9.385   9.336  14.017
38336SOL    HW216848   9.256   9.259  14.029
38337SOL     OW16849  11.816   2.463  14.823
38337SOL    HW116850  11.725   2.474  14.851
38337SOL    HW216851  11.856   2.549  14.835
38338SOL     OW16852   7.487  11.548   6.637
38338SOL    HW116853   7.432  11.483   6.682
38338SOL    HW216854   7.487  11.519   6.545
38339SOL     OW16855   1.030   3.395   2.144
38339SOL    HW116856   0.948   3.408   2.097
38339SOL    HW216857   1.015   3.436   2.230
38340SOL     OW16858   6.712   6.391   2.566
38340SOL    HW116859   6.754   6.477   2.564
38340SOL    HW216860   6.629   6.406   2.611
38341SOL     OW16861   2.863   4.093  13.273
38341SOL    HW116862   2.826   4.151  13.339
38341SOL    HW216863   2.850   4.005  13.307
38342SOL     OW16864   8.172   3.273   4.802
38342SOL    HW116865   8.084   3.272   4.842
38342SOL    HW216866   8.187   3.183   4.775
38343SOL     OW16867   8.930   7.399   5.041
38343SOL    HW116868   8.877   7.440   5.109
38343SOL    HW216869   9.011   7.450   5.040
38344SOL     OW16870  13.448   0.396  13.362
38344SOL    HW116871  13.361   0.425  13.388
38344SOL    HW216872  13.447   0.397  13.267
38345SOL     OW16873  10.751  10.289  10.275
38345SOL    HW116874  10.663  10.260  10.298
38345SOL    HW216875  10.809  10.222  10.312
38346SOL     OW16876   8.616   5.769   4.686
38346SOL    HW116877   8.552   5.734   4.624
38346SOL    HW216878   8.567   5.782   4.767
38347SOL     OW16879   9.723  14.875   1.935
38347SOL    HW116880   9.759  14.844   1.852
38347SOL    HW216881   9.796  14.868   1.997
38348SOL     OW16882  13.058   5.638   4.080
38348SOL    HW116883  13.002   5.586   4.023
38348SOL    HW216884  13.146   5.625   4.044
38349SOL     OW16885   8.965  13.145  10.565
38349SOL    HW116886   8.892  13.183  10.613
38349SOL    HW216887   8.962  13.187  10.479
38350SOL     OW16888   9.469   1.863   6.414
38350SOL    HW116889   9.445   1.927   6.481
38350SOL    HW216890   9.463   1.912   6.331
38351SOL     OW16891   5.786   5.239   2.211
38351SOL    HW116892   5.712   5.240   2.271
38351SOL    HW216893   5.839   5.164   2.239
38352SOL     OW16894   9.550   4.619   1.881
38352SOL    HW116895   9.561   4.664   1.797
38352SOL    HW216896   9.455   4.624   1.897
38353SOL     OW16897   8.889   1.037  10.895
38353SOL    HW116898   8.811   0.982  10.885
38353SOL    HW216899   8.924   1.012  10.981
38354SOL     OW16900   3.173   3.423  13.444
38354SOL    HW116901   3.190   3.492  13.381
38354SOL    HW216902   3.255   3.416  13.494
38355SOL     OW16903   2.732  11.908   6.298
38355SOL    HW116904   2.740  11.866   6.213
38355SOL    HW216905   2.638  11.925   6.308
38356SOL     OW16906   2.465   6.296   1.787
38356SOL    HW116907   2.431   6.334   1.705
38356SOL    HW216908   2.544   6.347   1.805
38357SOL     OW16909  14.168   2.758   4.724
38357SOL    HW116910  14.166   2.730   4.816
38357SOL    HW216911  14.242   2.818   4.719
38358SOL     OW16912  14.133   4.690   9.403
38358SOL    HW116913  14.104   4.758   9.343
38358SOL    HW216914  14.062   4.683   9.467
38359SOL     OW16915   0.517  14.475   0.532
38359SOL    HW116916   0.542  14.441   0.446
38359SOL    HW216917   0.548  14.565   0.532
38360SOL     OW16918  13.652   7.246   8.805
38360SOL    HW116919  13.736   7.229   8.763
38360SOL    HW216920  13.642   7.341   8.800
38361SOL     OW16921  11.141   5.396   8.797
38361SOL    HW116922  11.144   5.300   8.805
38361SOL    HW216923  11.143   5.411   8.702
38362SOL     OW16924   0.181   5.779  13.323
38362SOL    HW116925   0.167   5.736  13.407
38362SOL    HW216926   0.247   5.846  13.341
38363SOL     OW16927   6.143   1.683   4.661
38363SOL    HW116928   6.194   1.631   4.723
38363SOL    HW216929   6.161   1.643   4.576
38364SOL     OW16930  14.095  11.512   2.407
38364SOL    HW116931  14.022  11.573   2.399
38364SOL    HW216932  14.069  11.437   2.353
38365SOL     OW16933   9.038  14.127   4.529
38365SOL    HW116934   9.100  14.122   4.457
38365SOL    HW216935   9.084  14.175   4.598
38366SOL     OW16936   1.573  14.019   4.109
38366SOL    HW116937   1.638  13.988   4.172
38366SOL    HW216938   1.497  14.042   4.163
38367SOL     OW16939  14.705  14.382   5.833
38367SOL    HW116940  14.792  14.353   5.805
38367SOL    HW216941  14.683  14.454   5.774
38368SOL     OW16942   8.549   4.269   4.478
38368SOL    HW116943   8.598   4.336   4.524
38368SOL    HW216944   8.577   4.276   4.387
38369SOL     OW16945   2.698   5.975   5.549
38369SOL    HW116946   2.604   5.956   5.558
38369SOL    HW216947   2.713   5.977   5.454
38370SOL     OW16948  14.485  14.316   7.154
38370SOL    HW116949  14.476  14.290   7.246
38370SOL    HW216950  14.512  14.407   7.157
38371SOL     OW16951   2.193   9.816  10.795
38371SOL    HW116952   2.235   9.758  10.731
38371SOL    HW216953   2.232   9.792  10.879
38372SOL     OW16954   0.732   2.881  12.475
38372SOL    HW116955   0.806   2.908  12.421
38372SOL    HW216956   0.689   2.812  12.425
38373SOL     OW16957   0.378   8.567   3.702
38373SOL    HW116958   0.352   8.638   3.760
38373SOL    HW216959   0.411   8.610   3.624
38374SOL     OW16960   6.130   7.988   5.318
38374SOL    HW116961   6.218   8.014   5.293
38374SOL    HW216962   6.130   7.992   5.413
38375SOL     OW16963   4.413  10.060   8.633
38375SOL    HW116964   4.365  10.097   8.707
38375SOL    HW216965   4.423   9.968   8.656
38376SOL     OW16966  12.750   3.942   1.855
38376SOL    HW116967  12.704   4.025   1.844
38376SOL    HW216968  12.694   3.891   1.913
38377SOL     OW16969   1.566   9.071   6.818
38377SOL    HW116970   1.568   9.063   6.723
38377SOL    HW216971   1.552   9.165   6.834
38378SOL     OW16972  13.170   1.548  10.424
38378SOL    HW116973  13.161   1.644  10.422
38378SOL    HW216974  13.128   1.522  10.506
38379SOL     OW16975  13.586   6.719   6.802
38379SOL    HW116976  13.590   6.801   6.752
38379SOL    HW216977  13.670   6.714   6.847
38380SOL     OW16978  14.104  12.155   4.588
38380SOL    HW116979  14.055  12.114   4.659
38380SOL    HW216980  14.158  12.222   4.632
38381SOL     OW16981   3.707   0.011  10.369
38381SOL    HW116982   3.665  14.875  10.284
38381SOL    HW216983   3.635   0.044  10.424
38382SOL     OW16984  14.113   8.777   8.084
38382SOL    HW116985  14.161   8.741   8.159
38382SOL    HW216986  14.166   8.851   8.056
38383SOL     OW16987   0.124  12.321   2.175
38383SOL    HW116988   0.211  12.355   2.197
38383SOL    HW216989   0.075  12.397   2.145
38384SOL     OW16990   5.047   9.396   9.637
38384SOL    HW116991   5.043   9.427   9.728
38384SOL    HW216992   5.116   9.449   9.597
38385SOL     OW16993   1.872   3.688   6.354
38385SOL    HW116994   1.930   3.716   6.283
38385SOL    HW216995   1.806   3.758   6.359
38386SOL     OW16996   3.614   2.009   1.978
38386SOL    HW116997   3.656   2.087   1.942
38386SOL    HW216998   3.574   2.038   2.059
38387SOL     OW16999  14.326   7.507   2.669
38387SOL    HW117000  14.271   7.586   2.674
38387SOL    HW217001  14.263   7.435   2.668
38388SOL     OW17002   7.392   9.510   1.874
38388SOL    HW117003   7.472   9.460   1.862
38388SOL    HW217004   7.420   9.596   1.906
38389SOL     OW17005   5.391  14.731   7.740
38389SOL    HW117006   5.407  14.718   7.647
38389SOL    HW217007   5.333  14.806   7.745
38390SOL     OW17008   2.960   9.276   7.837
38390SOL    HW117009   3.014   9.350   7.865
38390SOL    HW217010   2.979   9.207   7.901
38391SOL     OW17011   4.812   7.593   3.166
38391SOL    HW117012   4.838   7.506   3.194
38391SOL    HW217013   4.780   7.636   3.246
38392SOL     OW17014   1.468   8.123  13.367
38392SOL    HW117015   1.408   8.171  13.309
38392SOL    HW217016   1.440   8.032  13.360
38393SOL     OW17017   5.016   2.637   6.983
38393SOL    HW117018   5.059   2.568   6.933
38393SOL    HW217019   4.926   2.605   6.995
38394SOL     OW17020   8.699   3.521  14.334
38394SOL    HW117021   8.677   3.428  14.330
38394SOL    HW217022   8.619   3.563  14.367
38395SOL     OW17023   0.434  14.459  13.056
38395SOL    HW117024   0.410  14.432  12.968
38395SOL    HW217025   0.525  14.431  13.066
38396SOL     OW17026   9.541   0.195   1.955
38396SOL    HW117027   9.591   0.113   1.947
38396SOL    HW217028   9.508   0.212   1.867
38397SOL     OW17029   4.809   2.392   8.672
38397SOL    HW117030   4.724   2.424   8.701
38397SOL    HW217031   4.872   2.439   8.727
38398SOL     OW17032  14.324   2.406  11.980
38398SOL    HW117033  14.245   2.361  12.009
38398SOL    HW217034  14.350   2.359  11.900
38399SOL     OW17035   9.256   0.797   7.610
38399SOL    HW117036   9.189   0.734   7.583
38399SOL    HW217037   9.317   0.800   7.536
38400SOL     OW17038   8.651   4.102  13.116
38400SOL    HW117039   8.577   4.155  13.088
38400SOL    HW217040   8.688   4.148  13.192
38401SOL     OW17041  13.653   5.741  12.754
38401SOL    HW117042  13.722   5.747  12.820
38401SOL    HW217043  13.628   5.832  12.738
38402SOL     OW17044   6.996   2.224   3.686
38402SOL    HW117045   6.957   2.174   3.758
38402SOL    HW217046   7.089   2.203   3.690
38403SOL     OW17047   9.077   1.459   4.892
38403SOL    HW117048   9.157   1.444   4.842
38403SOL    HW217049   9.106   1.460   4.984
38404SOL     OW17050   9.327   8.917  10.365
38404SOL    HW117051   9.241   8.875  10.355
38404SOL    HW217052   9.383   8.849  10.403
38405SOL     OW17053  11.674  14.071   9.780
38405SOL    HW117054  11.766  14.049   9.764
38405SOL    HW217055  11.646  14.010   9.848
38406SOL     OW17056  13.176   6.840   0.822
38406SOL    HW117057  13.203   6.750   0.841
38406SOL    HW217058  13.115   6.831   0.749
38407SOL     OW17059   0.221   1.663  11.309
38407SOL    HW117060   0.265   1.631  11.230
38407SOL    HW217061   0.214   1.585  11.365
38408SOL     OW17062  10.891  12.471   2.129
38408SOL    HW117063  10.912  12.453   2.037
38408SOL    HW217064  10.820  12.534   2.125
38409SOL     OW17065   3.890   8.805   4.993
38409SOL    HW117066   3.814   8.749   4.982
38409SOL    HW217067   3.869   8.885   4.945
38410SOL     OW17068  14.211  11.060  11.014
38410SOL    HW117069  14.157  10.997  11.062
38410SOL    HW217070  14.293  11.014  10.998
38411SOL     OW17071   0.237   5.662   7.171
38411SOL    HW117072   0.236   5.723   7.097
38411SOL    HW217073   0.294   5.591   7.143
38412SOL     OW17074  12.692   6.467  12.484
38412SOL    HW117075  12.766   6.410  12.504
38412SOL    HW217076  12.668   6.506  12.568
38413SOL     OW17077  14.491   4.996  10.178
38413SOL    HW117078  14.418   5.051  10.204
38413SOL    HW217079  14.540   5.050  10.116
38414SOL     OW17080   7.004   1.479  11.823
38414SOL    HW117081   6.960   1.400  11.856
38414SOL    HW217082   7.097   1.462  11.838
38415SOL     OW17083   0.096  13.027   0.166
38415SOL    HW117084   0.148  12.962   0.117
38415SOL    HW217085   0.117  13.110   0.123
38416SOL     OW17086   8.235  12.398   2.802
38416SOL    HW117087   8.300  12.328   2.799
38416SOL    HW217088   8.287  12.478   2.792
38417SOL     OW17089   1.215   0.608   8.855
38417SOL    HW117090   1.299   0.635   8.894
38417SOL    HW217091   1.167   0.690   8.842
38418SOL     OW17092   0.137   6.375   8.608
38418SOL    HW117093   0.126   6.283   8.584
38418SOL    HW217094   0.195   6.410   8.541
38419SOL     OW17095  13.173   3.124   6.634
38419SOL    HW117096  13.199   3.107   6.724
38419SOL    HW217097  13.178   3.220   6.624
38420SOL     OW17098   8.765   2.816   9.136
38420SOL    HW117099   8.808   2.842   9.055
38420SOL    HW217100   8.752   2.722   9.128
38421SOL     OW17101   8.244   6.164  11.096
38421SOL    HW117102   8.248   6.079  11.051
38421SOL    HW217103   8.299   6.222  11.042
38422SOL     OW17104   6.060   3.173   5.387
38422SOL    HW117105   6.059   3.077   5.392
38422SOL    HW217106   5.970   3.197   5.365
38423SOL     OW17107  11.024   2.388   9.094
38423SOL    HW117108  11.102   2.381   9.149
38423SOL    HW217109  10.990   2.298   9.090
38424SOL     OW17110   0.173   7.021   7.435
38424SOL    HW117111   0.134   7.052   7.518
38424SOL    HW217112   0.267   7.035   7.447
38425SOL     OW17113   6.521  11.368  11.109
38425SOL    HW117114   6.431  11.340  11.095
38425SOL    HW217115   6.529  11.450  11.061
38426SOL     OW17116   8.160  12.395  12.133
38426SOL    HW117117   8.133  12.343  12.209
38426SOL    HW217118   8.239  12.351  12.101
38427SOL     OW17119   9.257   7.905   7.351
38427SOL    HW117120   9.338   7.956   7.341
38427SOL    HW217121   9.266   7.835   7.286
38428SOL     OW17122   0.383   0.006  12.937
38428SOL    HW117123   0.456   0.031  12.880
38428SOL    HW217124   0.409   0.034  13.024
38429SOL     OW17125  11.485  11.269   2.984
38429SOL    HW117126  11.460  11.209   2.914
38429SOL    HW217127  11.414  11.262   3.048
38430SOL     OW17128   8.637  11.188   1.999
38430SOL    HW117129   8.554  11.202   2.044
38430SOL    HW217130   8.695  11.255   2.034
38431SOL     OW17131  12.514   4.770   4.859
38431SOL    HW117132  12.573   4.711   4.812
38431SOL    HW217133  12.493   4.723   4.940
38432SOL     OW17134  12.545  11.186  13.981
38432SOL    HW117135  12.467  11.172  14.035
38432SOL    HW217136  12.581  11.098  13.970
38433SOL     OW17137   7.409  13.275   5.176
38433SOL    HW117138   7.502  13.257   5.185
38433SOL    HW217139   7.402  13.370   5.182
38434SOL     OW17140  13.428  11.388  14.154
38434SOL    HW117141  13.439  11.318  14.090
38434SOL    HW217142  13.355  11.359  14.209
38435SOL     OW17143  10.553   0.660  12.179
38435SOL    HW117144  10.550   0.631  12.087
38435SOL    HW217145  10.640   0.633  12.209
38436SOL     OW17146   7.628   0.510   3.746
38436SOL    HW117147   7.628   0.436   3.807
38436SOL    HW217148   7.560   0.489   3.682
38437SOL     OW17149   2.628  14.617   5.397
38437SOL    HW117150   2.534  14.623   5.413
38437SOL    HW217151   2.649  14.524   5.410
38438SOL     OW17152   5.266   2.642  14.417
38438SOL    HW117153   5.351   2.683  14.429
38438SOL    HW217154   5.228   2.687  14.341
38439SOL     OW17155  12.184   3.055  14.241
38439SOL    HW117156  12.226   2.970  14.253
38439SOL    HW217157  12.219   3.088  14.158
38440SOL     OW17158  13.742   8.817   4.968
38440SOL    HW117159  13.799   8.745   4.996
38440SOL    HW217160  13.740   8.810   4.873
38441SOL     OW17161   3.374  10.304   7.544
38441SOL    HW117162   3.403  10.362   7.614
38441SOL    HW217163   3.283  10.328   7.530
38442SOL     OW17164   7.208   9.702   2.815
38442SOL    HW117165   7.299   9.678   2.831
38442SOL    HW217166   7.157   9.633   2.857
38443SOL     OW17167   8.909   3.864   2.177
38443SOL    HW117168   8.851   3.918   2.231
38443SOL    HW217169   8.869   3.864   2.091
38444SOL     OW17170  12.552  14.213   7.698
38444SOL    HW117171  12.476  14.162   7.670
38444SOL    HW217172  12.520  14.303   7.706
38445SOL     OW17173  12.935   8.669   9.027
38445SOL    HW117174  12.990   8.602   8.988
38445SOL    HW217175  12.884   8.704   8.954
38446SOL     OW17176   1.867   2.549   1.466
38446SOL    HW117177   1.780   2.590   1.464
38446SOL    HW217178   1.914   2.594   1.536
38447SOL     OW17179   4.896   2.373   0.338
38447SOL    HW117180   4.912   2.344   0.249
38447SOL    HW217181   4.925   2.464   0.340
38448SOL     OW17182   6.964  13.777   8.427
38448SOL    HW117183   7.051  13.787   8.464
38448SOL    HW217184   6.907  13.829   8.484
38449SOL     OW17185   4.470   8.449   2.964
38449SOL    HW117186   4.530   8.381   2.997
38449SOL    HW217187   4.425   8.481   3.042
38450SOL     OW17188   8.963   7.894   3.064
38450SOL    HW117189   9.018   7.968   3.091
38450SOL    HW217190   8.954   7.903   2.969
38451SOL     OW17191   9.617   6.856   1.026
38451SOL    HW117192   9.586   6.932   0.978
38451SOL    HW217193   9.537   6.808   1.050
38452SOL     OW17194   1.818  12.413   3.209
38452SOL    HW117195   1.861  12.432   3.292
38452SOL    HW217196   1.753  12.483   3.199
38453SOL     OW17197   9.176   0.137   2.380
38453SOL    HW117198   9.220   0.221   2.366
38453SOL    HW217199   9.212   0.080   2.312
38454SOL     OW17200   1.189   4.341   0.189
38454SOL    HW117201   1.151   4.323   0.275
38454SOL    HW217202   1.253   4.270   0.177
38455SOL     OW17203  12.742   3.276   1.645
38455SOL    HW117204  12.787   3.301   1.564
38455SOL    HW217205  12.664   3.229   1.615
38456SOL     OW17206   8.719   6.256   0.898
38456SOL    HW117207   8.719   6.175   0.948
38456SOL    HW217208   8.720   6.325   0.963
38457SOL     OW17209   6.000   3.491   0.355
38457SOL    HW117210   6.080   3.531   0.323
38457SOL    HW217211   6.029   3.426   0.419
38458SOL     OW17212   3.887   9.865   2.267
38458SOL    HW117213   3.805   9.909   2.245
38458SOL    HW217214   3.955   9.924   2.235
38459SOL     OW17215   9.429  12.347  13.304
38459SOL    HW117216   9.472  12.431  13.289
38459SOL    HW217217   9.355  12.347  13.243
38460SOL     OW17218   7.804   0.260   7.393
38460SOL    HW117219   7.888   0.214   7.389
38460SOL    HW217220   7.807   0.321   7.319
38461SOL     OW17221  11.423   7.511   7.174
38461SOL    HW117222  11.501   7.530   7.227
38461SOL    HW217223  11.413   7.589   7.118
38462SOL     OW17224   3.510   2.780   8.888
38462SOL    HW117225   3.572   2.848   8.917
38462SOL    HW217226   3.465   2.819   8.813
38463SOL     OW17227  10.204   4.044   1.752
38463SOL    HW117228  10.282   4.082   1.711
38463SOL    HW217229  10.140   4.115   1.754
38464SOL     OW17230   2.748   1.122   9.705
38464SOL    HW117231   2.723   1.176   9.780
38464SOL    HW217232   2.692   1.045   9.712
38465SOL     OW17233   7.409  12.268   2.106
38465SOL    HW117234   7.504  12.252   2.101
38465SOL    HW217235   7.385  12.243   2.195
38466SOL     OW17236   3.181  11.745   6.460
38466SOL    HW117237   3.260  11.743   6.406
38466SOL    HW217238   3.136  11.825   6.432
38467SOL     OW17239  10.989  11.651  12.392
38467SOL    HW117240  11.027  11.621  12.310
38467SOL    HW217241  11.028  11.594  12.459
38468SOL     OW17242  10.270   0.800   1.099
38468SOL    HW117243  10.223   0.720   1.123
38468SOL    HW217244  10.241   0.818   1.009
38469SOL     OW17245  11.899   5.781   8.938
38469SOL    HW117246  11.814   5.787   8.894
38469SOL    HW217247  11.878   5.743   9.023
38470SOL     OW17248   7.515   2.567   2.262
38470SOL    HW117249   7.588   2.610   2.307
38470SOL    HW217250   7.438   2.591   2.313
38471SOL     OW17251   1.173   8.834  10.198
38471SOL    HW117252   1.104   8.863  10.258
38471SOL    HW217253   1.144   8.748  10.168
38472SOL     OW17254   9.645   2.554   4.601
38472SOL    HW117255   9.616   2.504   4.678
38472SOL    HW217256   9.613   2.503   4.526
38473SOL     OW17257  10.832   3.434   0.169
38473SOL    HW117258  10.764   3.429   0.236
38473SOL    HW217259  10.832   3.348   0.128
38474SOL     OW17260  14.331   2.323  10.600
38474SOL    HW117261  14.414   2.333  10.553
38474SOL    HW217262  14.267   2.306  10.531
38475SOL     OW17263   6.393   9.178   7.262
38475SOL    HW117264   6.405   9.084   7.275
38475SOL    HW217265   6.302   9.187   7.232
38476SOL     OW17266   3.897   4.092  10.791
38476SOL    HW117267   3.973   4.088  10.734
38476SOL    HW217268   3.933   4.117  10.876
38477SOL     OW17269   2.936   3.238   6.853
38477SOL    HW117270   2.944   3.298   6.928
38477SOL    HW217271   2.863   3.273   6.802
38478SOL     OW17272   1.905   7.078   9.591
38478SOL    HW117273   1.952   7.161   9.599
38478SOL    HW217274   1.921   7.050   9.501
38479SOL     OW17275  13.957   6.874   2.825
38479SOL    HW117276  14.008   6.878   2.906
38479SOL    HW217277  14.015   6.912   2.759
38480SOL     OW17278   7.746   3.493  12.880
38480SOL    HW117279   7.732   3.536  12.964
38480SOL    HW217280   7.699   3.410  12.888
38481SOL     OW17281   5.158   6.345  14.585
38481SOL    HW117282   5.150   6.372  14.677
38481SOL    HW217283   5.124   6.256  14.583
38482SOL     OW17284  14.479   7.134  10.320
38482SOL    HW117285  14.569   7.102  10.320
38482SOL    HW217286  14.446   7.114  10.233
38483SOL     OW17287   0.014  12.322   9.077
38483SOL    HW117288   0.027  12.313   8.982
38483SOL    HW217289   0.066  12.398   9.101
38484SOL     OW17290  14.643   9.052   6.448
38484SOL    HW117291  14.561   9.002   6.443
38484SOL    HW217292  14.618   9.136   6.485
38485SOL     OW17293   6.166  14.092  11.674
38485SOL    HW117294   6.218  14.019  11.707
38485SOL    HW217295   6.077  14.073  11.702
38486SOL     OW17296   9.880   7.144   7.767
38486SOL    HW117297   9.960   7.093   7.755
38486SOL    HW217298   9.902   7.209   7.834
38487SOL     OW17299   4.746  13.222  12.243
38487SOL    HW117300   4.688  13.257  12.311
38487SOL    HW217301   4.708  13.138  12.219
38488SOL     OW17302   7.231  14.317   2.580
38488SOL    HW117303   7.255  14.274   2.498
38488SOL    HW217304   7.287  14.276   2.646
38489SOL     OW17305   5.089   1.125  13.571
38489SOL    HW117306   5.161   1.180  13.539
38489SOL    HW217307   5.095   1.132  13.666
38490SOL     OW17308   2.226   3.446   6.863
38490SOL    HW117309   2.260   3.484   6.945
38490SOL    HW217310   2.194   3.360   6.889
38491SOL     OW17311  12.663  14.361   1.205
38491SOL    HW117312  12.624  14.443   1.234
38491SOL    HW217313  12.700  14.380   1.119
38492SOL     OW17314   7.573   8.400  10.472
38492SOL    HW117315   7.650   8.416  10.526
38492SOL    HW217316   7.508   8.462  10.504
38493SOL     OW17317   0.139  12.056  11.880
38493SOL    HW117318   0.153  12.068  11.786
38493SOL    HW217319   0.064  11.998  11.886
38494SOL     OW17320  13.144  12.425  12.149
38494SOL    HW117321  13.165  12.372  12.072
38494SOL    HW217322  13.149  12.364  12.222
38495SOL     OW17323   2.916   5.162  10.370
38495SOL    HW117324   2.899   5.228  10.437
38495SOL    HW217325   2.854   5.092  10.388
38496SOL     OW17326   8.200   5.851   9.202
38496SOL    HW117327   8.253   5.925   9.231
38496SOL    HW217328   8.143   5.887   9.134
38497SOL     OW17329   0.853   3.312   8.429
38497SOL    HW117330   0.794   3.377   8.390
38497SOL    HW217331   0.925   3.364   8.467
38498SOL     OW17332   9.437   2.475  13.961
38498SOL    HW117333   9.467   2.414  13.893
38498SOL    HW217334   9.445   2.425  14.043
38499SOL     OW17335   8.665   1.060  11.805
38499SOL    HW117336   8.714   1.098  11.878
38499SOL    HW217337   8.700   1.104  11.727
38500SOL     OW17338   8.415  10.899   7.331
38500SOL    HW117339   8.418  10.910   7.236
38500SOL    HW217340   8.325  10.872   7.349
38501SOL     OW17341   1.533  13.965   9.215
38501SOL    HW117342   1.473  14.031   9.252
38501SOL    HW217343   1.574  14.009   9.140
38502SOL     OW17344   8.019  10.585   8.303
38502SOL    HW117345   7.944  10.538   8.268
38502SOL    HW217346   7.998  10.677   8.289
38503SOL     OW17347   7.704   6.503   7.651
38503SOL    HW117348   7.721   6.500   7.556
38503SOL    HW217349   7.715   6.412   7.680
38504SOL     OW17350  12.705   6.459   9.727
38504SOL    HW117351  12.782   6.513   9.714
38504SOL    HW217352  12.711   6.392   9.659
38505SOL     OW17353   7.146   7.385  14.383
38505SOL    HW117354   7.136   7.398  14.477
38505SOL    HW217355   7.238   7.406  14.366
38506SOL     OW17356   0.887   9.642   1.020
38506SOL    HW117357   0.869   9.630   1.114
38506SOL    HW217358   0.901   9.736   1.011
38507SOL     OW17359   7.946   6.835   2.408
38507SOL    HW117360   7.914   6.798   2.491
38507SOL    HW217361   8.028   6.788   2.392
38508SOL     OW17362   3.622  11.848   1.444
38508SOL    HW117363   3.641  11.755   1.441
38508SOL    HW217364   3.588  11.863   1.533
38509SOL     OW17365   4.049   9.260   9.218
38509SOL    HW117366   4.100   9.244   9.298
38509SOL    HW217367   3.959   9.239   9.243
38510SOL     OW17368  14.396  12.648  11.597
38510SOL    HW117369  14.419  12.583  11.530
38510SOL    HW217370  14.411  12.603  11.680
38511SOL     OW17371   6.882  12.864   7.335
38511SOL    HW117372   6.973  12.891   7.350
38511SOL    HW217373   6.830  12.939   7.364
38512SOL     OW17374   0.445   3.156  11.032
38512SOL    HW117375   0.515   3.176  10.970
38512SOL    HW217376   0.483   3.091  11.091
38513SOL     OW17377   0.666   7.598   2.895
38513SOL    HW117378   0.584   7.590   2.943
38513SOL    HW217379   0.709   7.675   2.933
38514SOL     OW17380  13.981   6.879  14.528
38514SOL    HW117381  13.907   6.936  14.548
38514SOL    HW217382  13.970   6.856  14.436
38515SOL     OW17383   2.023   8.824   4.389
38515SOL    HW117384   2.101   8.781   4.353
38515SOL    HW217385   2.029   8.810   4.483
38516SOL     OW17386   0.825  12.393   1.560
38516SOL    HW117387   0.861  12.403   1.648
38516SOL    HW217388   0.739  12.434   1.565
38517SOL     OW17389  13.726   9.206  12.333
38517SOL    HW117390  13.703   9.285  12.382
38517SOL    HW217391  13.757   9.238  12.248
38518SOL     OW17392   0.139  13.524  12.236
38518SOL    HW117393   0.223  13.507  12.194
38518SOL    HW217394   0.156  13.599  12.293
38519SOL     OW17395   0.250   0.498   2.453
38519SOL    HW117396   0.320   0.447   2.494
38519SOL    HW217397   0.184   0.508   2.521
38520SOL     OW17398   3.120   5.510  10.934
38520SOL    HW117399   3.091   5.444  10.998
38520SOL    HW217400   3.210   5.529  10.960
38521SOL     OW17401  13.393  10.456   4.291
38521SOL    HW117402  13.429  10.413   4.368
38521SOL    HW217403  13.363  10.541   4.323
38522SOL     OW17404   6.761   1.039   6.277
38522SOL    HW117405   6.701   1.002   6.341
38522SOL    HW217406   6.839   1.063   6.327
38523SOL     OW17407  11.894  10.135  11.609
38523SOL    HW117408  11.940  10.150  11.527
38523SOL    HW217409  11.802  10.144  11.587
38524SOL     OW17410  10.489  12.325  13.506
38524SOL    HW117411  10.528  12.285  13.428
38524SOL    HW217412  10.542  12.293  13.579
38525SOL     OW17413  10.369  14.366  10.542
38525SOL    HW117414  10.458  14.345  10.513
38525SOL    HW217415  10.382  14.417  10.622
38526SOL     OW17416   2.800   9.533  13.431
38526SOL    HW117417   2.766   9.562  13.515
38526SOL    HW217418   2.864   9.466  13.452
38527SOL     OW17419  13.584  10.598  10.970
38527SOL    HW117420  13.587  10.560  10.882
38527SOL    HW217421  13.666  10.646  10.979
38528SOL     OW17422   8.930  14.337   8.151
38528SOL    HW117423   8.998  14.388   8.195
38528SOL    HW217424   8.854  14.343   8.209
38529SOL     OW17425  13.490   2.122   6.895
38529SOL    HW117426  13.436   2.043   6.890
38529SOL    HW217427  13.551   2.114   6.822
38530SOL     OW17428   6.617   8.707   0.742
38530SOL    HW117429   6.684   8.763   0.704
38530SOL    HW217430   6.598   8.746   0.827
38531SOL     OW17431   5.474   5.439  12.978
38531SOL    HW117432   5.553   5.444  13.031
38531SOL    HW217433   5.411   5.393  13.034
38532SOL     OW17434   9.298  10.950   2.454
38532SOL    HW117435   9.282  10.889   2.525
38532SOL    HW217436   9.394  10.955   2.447
38533SOL     OW17437   5.714   5.678   3.947
38533SOL    HW117438   5.803   5.645   3.958
38533SOL    HW217439   5.658   5.608   3.982
38534SOL     OW17440   7.891   3.803  14.759
38534SOL    HW117441   7.921   3.822  14.670
38534SOL    HW217442   7.964   3.832  14.814
38535SOL     OW17443  11.353   6.332   5.822
38535SOL    HW117444  11.285   6.344   5.756
38535SOL    HW217445  11.328   6.391   5.893
38536SOL     OW17446   7.138   0.667   3.091
38536SOL    HW117447   7.130   0.716   3.173
38536SOL    HW217448   7.074   0.597   3.099
38537SOL     OW17449   6.359   7.449   0.078
38537SOL    HW117450   6.377   7.355   0.075
38537SOL    HW217451   6.378   7.474   0.169
38538SOL     OW17452   4.254   2.435   9.964
38538SOL    HW117453   4.309   2.421   9.887
38538SOL    HW217454   4.294   2.381  10.032
38539SOL     OW17455   3.359   1.192   7.114
38539SOL    HW117456   3.276   1.192   7.067
38539SOL    HW217457   3.421   1.232   7.053
38540SOL     OW17458   4.334  13.736   0.472
38540SOL    HW117459   4.324  13.654   0.424
38540SOL    HW217460   4.336  13.804   0.404
38541SOL     OW17461  14.804   0.992   3.150
38541SOL    HW117462  14.800   0.939   3.071
38541SOL    HW217463  14.820   1.081   3.119
38542SOL     OW17464   7.981  11.734  10.654
38542SOL    HW117465   8.000  11.697  10.568
38542SOL    HW217466   7.892  11.705  10.673
38543SOL     OW17467   8.544   2.157   2.817
38543SOL    HW117468   8.493   2.238   2.804
38543SOL    HW217469   8.525   2.104   2.740
38544SOL     OW17470   6.534   8.355   4.903
38544SOL    HW117471   6.480   8.385   4.976
38544SOL    HW217472   6.621   8.344   4.942
38545SOL     OW17473   2.885  11.517   5.924
38545SOL    HW117474   2.812  11.458   5.904
38545SOL    HW217475   2.930  11.527   5.840
38546SOL     OW17476   1.492  12.056   3.012
38546SOL    HW117477   1.480  12.122   2.943
38546SOL    HW217478   1.563  12.000   2.978
38547SOL     OW17479   1.765   5.295  14.173
38547SOL    HW117480   1.835   5.359  14.179
38547SOL    HW217481   1.772   5.259  14.084
38548SOL     OW17482  12.568   4.502   0.374
38548SOL    HW117483  12.503   4.477   0.308
38548SOL    HW217484  12.592   4.419   0.416
38549SOL     OW17485   2.388   0.639  11.545
38549SOL    HW117486   2.440   0.719  11.555
38549SOL    HW217487   2.450   0.569  11.566
38550SOL     OW17488  10.577   2.947   1.585
38550SOL    HW117489  10.638   2.916   1.651
38550SOL    HW217490  10.566   3.040   1.605
38551SOL     OW17491   3.104   8.795   1.027
38551SOL    HW117492   3.071   8.857   1.092
38551SOL    HW217493   3.045   8.720   1.033
38552SOL     OW17494   0.353   0.479  10.624
38552SOL    HW117495   0.422   0.540  10.652
38552SOL    HW217496   0.383   0.394  10.655
38553SOL     OW17497  14.496   7.649   2.226
38553SOL    HW117498  14.508   7.604   2.309
38553SOL    HW217499  14.514   7.582   2.160
38554SOL     OW17500  12.584   6.974  12.232
38554SOL    HW117501  12.638   6.911  12.280
38554SOL    HW217502  12.543   7.027  12.300
38555SOL     OW17503  10.057   7.692   2.872
38555SOL    HW117504  10.137   7.665   2.826
38555SOL    HW217505  10.080   7.688   2.965
38556SOL     OW17506   4.976  14.362   7.749
38556SOL    HW117507   4.926  14.380   7.669
38556SOL    HW217508   5.055  14.416   7.741
38557SOL     OW17509  13.340  13.511   4.433
38557SOL    HW117510  13.353  13.426   4.476
38557SOL    HW217511  13.417  13.521   4.377
38558SOL     OW17512  11.228  14.404  14.571
38558SOL    HW117513  11.311  14.415  14.524
38558SOL    HW217514  11.178  14.482  14.551
38559SOL     OW17515  11.472   8.231   9.738
38559SOL    HW117516  11.492   8.222   9.831
38559SOL    HW217517  11.486   8.324   9.719
38560SOL     OW17518   3.678   9.028   2.605
38560SOL    HW117519   3.703   9.023   2.513
38560SOL    HW217520   3.726   9.104   2.638
38561SOL     OW17521   4.059   6.848   4.544
38561SOL    HW117522   4.094   6.862   4.456
38561SOL    HW217523   4.072   6.932   4.589
38562SOL     OW17524  11.574   5.496   6.163
38562SOL    HW117525  11.539   5.547   6.091
38562SOL    HW217526  11.497   5.471   6.215
38563SOL     OW17527   5.239   1.913  12.111
38563SOL    HW117528   5.159   1.910  12.058
38563SOL    HW217529   5.273   1.824  12.108
38564SOL     OW17530   4.134   3.230   1.284
38564SOL    HW117531   4.213   3.251   1.335
38564SOL    HW217532   4.111   3.313   1.242
38565SOL     OW17533  11.448   2.148   5.476
38565SOL    HW117534  11.415   2.216   5.417
38565SOL    HW217535  11.423   2.066   5.433
38566SOL     OW17536   7.894   9.240  11.992
38566SOL    HW117537   7.926   9.203  12.075
38566SOL    HW217538   7.973   9.265  11.945
38567SOL     OW17539  14.218   6.199   6.983
38567SOL    HW117540  14.252   6.288   6.970
38567SOL    HW217541  14.146   6.211   7.046
38568SOL     OW17542  13.880   3.673  10.189
38568SOL    HW117543  13.843   3.629  10.112
38568SOL    HW217544  13.847   3.622  10.263
38569SOL     OW17545   6.496  14.566   6.918
38569SOL    HW117546   6.415  14.552   6.968
38569SOL    HW217547   6.466  14.597   6.833
38570SOL     OW17548  10.834   2.149   5.690
38570SOL    HW117549  10.742   2.130   5.673
38570SOL    HW217550  10.882   2.090   5.633
38571SOL     OW17551  14.685   2.277   7.777
38571SOL    HW117552  14.659   2.328   7.854
38571SOL    HW217553  14.620   2.207   7.772
38572SOL     OW17554   3.472   4.937   1.827
38572SOL    HW117555   3.461   4.873   1.756
38572SOL    HW217556   3.483   5.021   1.782
38573SOL     OW17557  13.545   4.364  10.038
38573SOL    HW117558  13.620   4.321  10.079
38573SOL    HW217559  13.568   4.370   9.945
38574SOL     OW17560   5.593   5.509  10.324
38574SOL    HW117561   5.582   5.593  10.368
38574SOL    HW217562   5.688   5.494  10.325
38575SOL     OW17563   1.982   9.473  14.309
38575SOL    HW117564   1.968   9.381  14.332
38575SOL    HW217565   2.070   9.474  14.269
38576SOL     OW17566   0.096   7.365  10.478
38576SOL    HW117567   0.169   7.424  10.460
38576SOL    HW217568   0.028   7.422  10.515
38577SOL     OW17569  10.541   2.541  13.089
38577SOL    HW117570  10.515   2.560  13.180
38577SOL    HW217571  10.529   2.447  13.080
38578SOL     OW17572   8.977   6.510   0.373
38578SOL    HW117573   9.030   6.586   0.399
38578SOL    HW217574   9.040   6.449   0.335
38579SOL     OW17575  10.081  12.543   1.400
38579SOL    HW117576  10.139  12.597   1.454
38579SOL    HW217577  10.033  12.606   1.346
38580SOL     OW17578   4.156  10.787   3.631
38580SOL    HW117579   4.139  10.841   3.553
38580SOL    HW217580   4.120  10.701   3.608
38581SOL     OW17581  13.738   5.830   6.900
38581SOL    HW117582  13.777   5.779   6.971
38581SOL    HW217583  13.753   5.778   6.821
38582SOL     OW17584  10.111   0.101   2.403
38582SOL    HW117585  10.204   0.108   2.423
38582SOL    HW217586  10.106   0.041   2.329
38583SOL     OW17587   6.574   8.767   4.354
38583SOL    HW117588   6.613   8.704   4.293
38583SOL    HW217589   6.646   8.794   4.410
38584SOL     OW17590   9.243  12.350  14.299
38584SOL    HW117591   9.252  12.305  14.383
38584SOL    HW217592   9.317  12.317  14.247
38585SOL     OW17593   3.247   6.883   5.071
38585SOL    HW117594   3.330   6.872   5.117
38585SOL    HW217595   3.271   6.917   4.985
38586SOL     OW17596   6.673   7.570   1.201
38586SOL    HW117597   6.589   7.613   1.213
38586SOL    HW217598   6.725   7.633   1.151
38587SOL     OW17599   2.254   9.090   1.830
38587SOL    HW117600   2.281   9.179   1.848
38587SOL    HW217601   2.315   9.035   1.880
38588SOL     OW17602   4.588   0.276  13.157
38588SOL    HW117603   4.611   0.292  13.065
38588SOL    HW217604   4.548   0.358  13.186
38589SOL     OW17605  11.084  14.134   8.951
38589SOL    HW117606  11.099  14.171   8.864
38589SOL    HW217607  11.073  14.040   8.936
38590SOL     OW17608   0.966   5.422  14.857
38590SOL    HW117609   0.968   5.379   0.060
38590SOL    HW217610   0.882   5.396  14.819
38591SOL     OW17611  11.777   8.488   6.011
38591SOL    HW117612  11.758   8.439   6.092
38591SOL    HW217613  11.726   8.443   5.944
38592SOL     OW17614  11.222  14.087   8.186
38592SOL    HW117615  11.279  14.159   8.160
38592SOL    HW217616  11.156  14.127   8.243
38593SOL     OW17617   9.670   2.225  12.171
38593SOL    HW117618   9.609   2.297  12.159
38593SOL    HW217619   9.730   2.255  12.239
38594SOL     OW17620  13.745  10.516   9.015
38594SOL    HW117621  13.804  10.571   9.067
38594SOL    HW217622  13.731  10.566   8.934
38595SOL     OW17623  12.483   6.210   9.831
38595SOL    HW117624  12.463   6.249   9.746
38595SOL    HW217625  12.515   6.283   9.884
38596SOL     OW17626   1.594   1.262   1.385
38596SOL    HW117627   1.546   1.287   1.464
38596SOL    HW217628   1.644   1.340   1.361
38597SOL     OW17629   9.076  14.306   0.586
38597SOL    HW117630   9.149  14.356   0.623
38597SOL    HW217631   9.011  14.305   0.656
38598SOL     OW17632   3.034  11.423   7.767
38598SOL    HW117633   3.005  11.366   7.839
38598SOL    HW217634   2.955  11.438   7.715
38599SOL     OW17635  12.459   5.597   9.220
38599SOL    HW117636  12.450   5.664   9.288
38599SOL    HW217637  12.375   5.599   9.174
38600SOL     OW17638   6.368   2.283  10.861
38600SOL    HW117639   6.301   2.227  10.822
38600SOL    HW217640   6.451   2.247  10.828
38601SOL     OW17641  11.188   0.252   9.707
38601SOL    HW117642  11.274   0.267   9.668
38601SOL    HW217643  11.126   0.258   9.634
38602SOL     OW17644   6.197   0.045  10.236
38602SOL    HW117645   6.236  14.840  10.252
38602SOL    HW217646   6.273   0.101  10.218
38603SOL     OW17647   7.904   6.697   9.753
38603SOL    HW117648   7.857   6.630   9.702
38603SOL    HW217649   7.990   6.704   9.710
38604SOL     OW17650  12.951   9.432   1.480
38604SOL    HW117651  12.933   9.411   1.572
38604SOL    HW217652  13.045   9.416   1.470
38605SOL     OW17653   5.413   8.776   0.744
38605SOL    HW117654   5.332   8.724   0.747
38605SOL    HW217655   5.474   8.722   0.694
38606SOL     OW17656   5.614   4.725   7.504
38606SOL    HW117657   5.527   4.685   7.495
38606SOL    HW217658   5.597   4.819   7.511
38607SOL     OW17659  13.945   8.863   2.478
38607SOL    HW117660  13.892   8.807   2.534
38607SOL    HW217661  13.882   8.908   2.422
38608SOL     OW17662  14.262  14.466  11.113
38608SOL    HW117663  14.350  14.459  11.150
38608SOL    HW217664  14.242  14.560  11.117
38609SOL     OW17665  10.666  10.481   2.716
38609SOL    HW117666  10.621  10.427   2.650
38609SOL    HW217667  10.639  10.443   2.800
38610SOL     OW17668   5.637  10.779   5.257
38610SOL    HW117669   5.600  10.766   5.344
38610SOL    HW217670   5.565  10.764   5.197
38611SOL     OW17671   0.848   7.320   9.108
38611SOL    HW117672   0.830   7.378   9.182
38611SOL    HW217673   0.862   7.379   9.034
38612SOL     OW17674  13.133   9.909  10.394
38612SOL    HW117675  13.080   9.855  10.452
38612SOL    HW217676  13.221   9.906  10.430
38613SOL     OW17677   8.140   3.753   4.931
38613SOL    HW117678   8.113   3.842   4.912
38613SOL    HW217679   8.235   3.758   4.944
38614SOL     OW17680   7.619   3.883   1.266
38614SOL    HW117681   7.672   3.878   1.186
38614SOL    HW217682   7.531   3.901   1.235
38615SOL     OW17683   1.794   0.142  12.766
38615SOL    HW117684   1.853   0.119  12.838
38615SOL    HW217685   1.795   0.237  12.764
38616SOL     OW17686  11.882   3.163   8.881
38616SOL    HW117687  11.963   3.112   8.885
38616SOL    HW217688  11.840   3.147   8.966
38617SOL     OW17689  14.457   7.395  14.332
38617SOL    HW117690  14.392   7.438  14.277
38617SOL    HW217691  14.419   7.396  14.420
38618SOL     OW17692  11.809   5.045   4.538
38618SOL    HW117693  11.905   5.044   4.530
38618SOL    HW217694  11.778   5.022   4.451
38619SOL     OW17695   4.172  11.946   2.017
38619SOL    HW117696   4.100  11.987   1.969
38619SOL    HW217697   4.232  12.018   2.037
38620SOL     OW17698   3.318   1.960   5.822
38620SOL    HW117699   3.287   2.049   5.804
38620SOL    HW217700   3.413   1.968   5.822
38621SOL     OW17701  14.272   9.822  13.882
38621SOL    HW117702  14.244   9.732  13.899
38621SOL    HW217703  14.209   9.876  13.929
38622SOL     OW17704  11.625  14.765   4.575
38622SOL    HW117705  11.679  14.789   4.500
38622SOL    HW217706  11.602  14.673   4.560
38623SOL     OW17707   9.247   3.659  13.892
38623SOL    HW117708   9.210   3.591  13.948
38623SOL    HW217709   9.341   3.641  13.891
38624SOL     OW17710   5.173   3.071   4.240
38624SOL    HW117711   5.132   3.157   4.253
38624SOL    HW217712   5.232   3.062   4.315
38625SOL     OW17713   9.785   4.157   9.924
38625SOL    HW117714   9.751   4.146  10.013
38625SOL    HW217715   9.795   4.068   9.891
38626SOL     OW17716   5.387  10.989   2.465
38626SOL    HW117717   5.304  10.945   2.449
38626SOL    HW217718   5.376  11.076   2.426
38627SOL     OW17719  10.424   4.811   9.892
38627SOL    HW117720  10.332   4.838   9.897
38627SOL    HW217721  10.473   4.888   9.920
38628SOL     OW17722   1.861   2.874  14.138
38628SOL    HW117723   1.782   2.886  14.190
38628SOL    HW217724   1.830   2.846  14.052
38629SOL     OW17725   6.729   2.052   8.335
38629SOL    HW117726   6.668   2.014   8.271
38629SOL    HW217727   6.774   2.122   8.286
38630SOL     OW17728   0.221   5.484   2.865
38630SOL    HW117729   0.231   5.490   2.960
38630SOL    HW217730   0.133   5.449   2.852
38631SOL     OW17731   5.745   7.321   5.460
38631SOL    HW117732   5.723   7.389   5.524
38631SOL    HW217733   5.697   7.243   5.491
38632SOL     OW17734  14.834   1.417   1.998
38632SOL    HW117735  14.754   1.467   2.017
38632SOL    HW217736   0.023   1.475   2.023
38633SOL     OW17737  13.769   5.931  11.040
38633SOL    HW117738  13.686   5.974  11.057
38633SOL    HW217739  13.746   5.853  10.989
38634SOL     OW17740  11.977  12.445   0.050
38634SOL    HW117741  11.900  12.399   0.015
38634SOL    HW217742  12.043  12.437  14.863
38635SOL     OW17743   5.558  13.975   7.171
38635SOL    HW117744   5.629  13.928   7.216
38635SOL    HW217745   5.494  13.994   7.240
38636SOL     OW17746   3.995   3.062   3.183
38636SOL    HW117747   3.942   3.089   3.108
38636SOL    HW217748   3.934   3.013   3.239
38637SOL     OW17749  10.068   3.557   3.521
38637SOL    HW117750  10.036   3.521   3.604
38637SOL    HW217751   9.996   3.613   3.490
38638SOL     OW17752   6.621   4.246   3.364
38638SOL    HW117753   6.613   4.206   3.277
38638SOL    HW217754   6.568   4.325   3.359
38639SOL     OW17755   1.069   3.999   1.160
38639SOL    HW117756   1.053   4.004   1.255
38639SOL    HW217757   1.116   4.080   1.140
38640SOL     OW17758   9.028   5.895   3.710
38640SOL    HW117759   9.071   5.969   3.667
38640SOL    HW217760   8.940   5.927   3.731
38641SOL     OW17761   2.487   6.175   0.249
38641SOL    HW117762   2.435   6.111   0.200
38641SOL    HW217763   2.448   6.259   0.227
38642SOL     OW17764  11.009   0.478   1.509
38642SOL    HW117765  10.974   0.565   1.488
38642SOL    HW217766  11.002   0.472   1.604
38643SOL     OW17767   7.589   1.654   1.058
38643SOL    HW117768   7.569   1.688   1.146
38643SOL    HW217769   7.680   1.625   1.064
38644SOL     OW17770   5.967   6.385  11.725
38644SOL    HW117771   5.970   6.402  11.631
38644SOL    HW217772   5.969   6.472  11.765
38645SOL     OW17773   3.022   1.339   1.490
38645SOL    HW117774   2.942   1.288   1.483
38645SOL    HW217775   3.013   1.406   1.422
38646SOL     OW17776   6.604   1.434  14.663
38646SOL    HW117777   6.555   1.505  14.621
38646SOL    HW217778   6.543   1.397  14.727
38647SOL     OW17779  14.165   1.527   2.923
38647SOL    HW117780  14.088   1.582   2.941
38647SOL    HW217781  14.202   1.563   2.843
38648SOL     OW17782   3.310  10.556   1.846
38648SOL    HW117783   3.245  10.626   1.844
38648SOL    HW217784   3.389  10.598   1.882
38649SOL     OW17785  10.722   8.187   2.393
38649SOL    HW117786  10.757   8.149   2.312
38649SOL    HW217787  10.771   8.268   2.405
38650SOL     OW17788   5.546   0.251  11.644
38650SOL    HW117789   5.552   0.174  11.588
38650SOL    HW217790   5.615   0.310  11.612
38651SOL     OW17791   2.134   4.424   4.447
38651SOL    HW117792   2.070   4.486   4.481
38651SOL    HW217793   2.174   4.468   4.372
38652SOL     OW17794  13.054   5.280   2.689
38652SOL    HW117795  12.976   5.239   2.725
38652SOL    HW217796  13.122   5.213   2.696
38653SOL     OW17797  11.492   7.954   8.357
38653SOL    HW117798  11.562   7.923   8.414
38653SOL    HW217799  11.412   7.930   8.402
38654SOL     OW17800   5.118   9.742  13.880
38654SOL    HW117801   5.049   9.798  13.914
38654SOL    HW217802   5.175   9.726  13.956
38655SOL     OW17803   5.824   5.384   8.458
38655SOL    HW117804   5.907   5.429   8.444
38655SOL    HW217805   5.836   5.334   8.539
38656SOL     OW17806  10.514   0.127   9.997
38656SOL    HW117807  10.529   0.043  10.041
38656SOL    HW217808  10.471   0.103   9.915
38657SOL     OW17809   3.111   0.256   6.958
38657SOL    HW117810   3.193   0.267   7.006
38657SOL    HW217811   3.098   0.341   6.915
38658SOL     OW17812  13.843   8.617  11.384
38658SOL    HW117813  13.828   8.567  11.464
38658SOL    HW217814  13.887   8.697  11.414
38659SOL     OW17815   9.654  11.265  14.556
38659SOL    HW117816   9.622  11.197  14.615
38659SOL    HW217817   9.749  11.261  14.565
38660SOL     OW17818   1.907  10.319  14.385
38660SOL    HW117819   1.896  10.248  14.449
38660SOL    HW217820   1.820  10.356  14.376
38661SOL     OW17821   2.057   7.674   1.262
38661SOL    HW117822   2.146   7.649   1.287
38661SOL    HW217823   2.055   7.769   1.271
38662SOL     OW17824   8.254   9.192   2.256
38662SOL    HW117825   8.198   9.264   2.229
38662SOL    HW217826   8.281   9.150   2.174
38663SOL     OW17827   4.809   1.611   9.784
38663SOL    HW117828   4.747   1.683   9.801
38663SOL    HW217829   4.803   1.596   9.690
38664SOL     OW17830  13.140   0.331   8.806
38664SOL    HW117831  13.116   0.252   8.855
38664SOL    HW217832  13.156   0.397   8.872
38665SOL     OW17833   8.730  14.226  14.499
38665SOL    HW117834   8.799  14.241  14.434
38665SOL    HW217835   8.698  14.314  14.521
38666SOL     OW17836   1.732   7.735   9.642
38666SOL    HW117837   1.721   7.830   9.642
38666SOL    HW217838   1.818   7.721   9.602
38667SOL     OW17839  11.935  12.189   7.386
38667SOL    HW117840  11.991  12.111   7.384
38667SOL    HW217841  11.958  12.232   7.469
38668SOL     OW17842  13.954   3.190  11.682
38668SOL    HW117843  13.936   3.256  11.748
38668SOL    HW217844  14.011   3.234  11.619
38669SOL     OW17845   2.357   9.068  13.859
38669SOL    HW117846   2.375   9.100  13.771
38669SOL    HW217847   2.301   8.992  13.846
38670SOL     OW17848  14.611  14.647  13.673
38670SOL    HW117849  14.612  14.725  13.617
38670SOL    HW217850  14.532  14.600  13.647
38671SOL     OW17851   5.434   4.959   2.988
38671SOL    HW117852   5.506   5.022   2.992
38671SOL    HW217853   5.471   4.884   2.940
38672SOL     OW17854   1.174   4.238   9.279
38672SOL    HW117855   1.146   4.303   9.214
38672SOL    HW217856   1.117   4.254   9.354
38673SOL     OW17857  14.639   4.424   1.768
38673SOL    HW117858  14.652   4.331   1.751
38673SOL    HW217859  14.624   4.429   1.862
38674SOL     OW17860   1.198   2.641  14.524
38674SOL    HW117861   1.164   2.708  14.582
38674SOL    HW217862   1.143   2.564  14.540
38675SOL     OW17863  13.904  13.666   9.067
38675SOL    HW117864  13.864  13.588   9.030
38675SOL    HW217865  13.852  13.739   9.033
38676SOL     OW17866  12.081   2.929   7.212
38676SOL    HW117867  12.087   2.845   7.166
38676SOL    HW217868  12.172   2.959   7.219
38677SOL     OW17869   6.590   4.874   3.260
38677SOL    HW117870   6.671   4.918   3.288
38677SOL    HW217871   6.617   4.815   3.190
38678SOL     OW17872   9.666   4.619   2.867
38678SOL    HW117873   9.677   4.692   2.928
38678SOL    HW217874   9.573   4.618   2.846
38679SOL     OW17875   2.671   1.443  13.942
38679SOL    HW117876   2.609   1.373  13.922
38679SOL    HW217877   2.642   1.477  14.027
38680SOL     OW17878   9.461   3.290   1.214
38680SOL    HW117879   9.459   3.377   1.175
38680SOL    HW217880   9.369   3.269   1.232
38681SOL     OW17881  13.136   6.708   8.126
38681SOL    HW117882  13.216   6.709   8.072
38681SOL    HW217883  13.065   6.696   8.063
38682SOL     OW17884   9.692   7.834   6.958
38682SOL    HW117885   9.758   7.903   6.947
38682SOL    HW217886   9.741   7.752   6.951
38683SOL     OW17887   7.223   9.363   3.116
38683SOL    HW117888   7.260   9.285   3.075
38683SOL    HW217889   7.143   9.332   3.158
38684SOL     OW17890   3.521   1.207   2.007
38684SOL    HW117891   3.565   1.273   1.954
38684SOL    HW217892   3.538   1.125   1.962
38685SOL     OW17893  11.756   2.409   8.458
38685SOL    HW117894  11.841   2.381   8.423
38685SOL    HW217895  11.712   2.327   8.480
38686SOL     OW17896   4.786   7.906   7.948
38686SOL    HW117897   4.840   7.893   8.027
38686SOL    HW217898   4.849   7.927   7.879
38687SOL     OW17899  10.640  14.084  10.110
38687SOL    HW117900  10.578  14.015  10.132
38687SOL    HW217901  10.726  14.043  10.120
38688SOL     OW17902   1.575  11.026   2.896
38688SOL    HW117903   1.606  10.942   2.862
38688SOL    HW217904   1.604  11.027   2.987
38689SOL     OW17905  11.740  11.517   4.848
38689SOL    HW117906  11.680  11.447   4.872
38689SOL    HW217907  11.821  11.473   4.822
38690SOL     OW17908  12.608  12.183  11.663
38690SOL    HW117909  12.647  12.208  11.747
38690SOL    HW217910  12.628  12.090  11.654
38691SOL     OW17911   5.823  13.251   5.518
38691SOL    HW117912   5.782  13.287   5.597
38691SOL    HW217913   5.829  13.326   5.458
38692SOL     OW17914  13.294   7.781  12.203
38692SOL    HW117915  13.282   7.712  12.139
38692SOL    HW217916  13.307   7.860  12.151
38693SOL     OW17917   2.764   6.940   7.743
38693SOL    HW117918   2.684   6.944   7.796
38693SOL    HW217919   2.825   6.888   7.796
38694SOL     OW17920   2.072   5.973  11.922
38694SOL    HW117921   2.054   6.058  11.961
38694SOL    HW217922   2.163   5.978  11.893
38695SOL     OW17923  12.614  13.622   4.704
38695SOL    HW117924  12.700  13.599   4.671
38695SOL    HW217925  12.620  13.715   4.726
38696SOL     OW17926   8.440  13.435  12.321
38696SOL    HW117927   8.395  13.518  12.302
38696SOL    HW217928   8.439  13.428  12.416
38697SOL     OW17929  12.012   4.743  12.971
38697SOL    HW117930  12.107   4.746  12.961
38697SOL    HW217931  11.982   4.686  12.901
38698SOL     OW17932   8.971   6.260   8.025
38698SOL    HW117933   9.014   6.278   8.108
38698SOL    HW217934   9.014   6.319   7.963
38699SOL     OW17935  13.912  13.937   0.618
38699SOL    HW117936  13.927  13.969   0.707
38699SOL    HW217937  13.840  13.874   0.627
38700SOL     OW17938   0.922   4.373   8.531
38700SOL    HW117939   0.866   4.437   8.575
38700SOL    HW217940   0.867   4.338   8.461
38701SOL     OW17941  13.927   9.803   8.829
38701SOL    HW117942  13.898   9.889   8.861
38701SOL    HW217943  13.874   9.788   8.751
38702SOL     OW17944   4.271   9.791   8.275
38702SOL    HW117945   4.349   9.767   8.225
38702SOL    HW217946   4.233   9.865   8.228
38703SOL     OW17947   5.002   1.490   7.489
38703SOL    HW117948   5.080   1.470   7.541
38703SOL    HW217949   4.972   1.575   7.522
38704SOL     OW17950   4.717  12.223   7.363
38704SOL    HW117951   4.745  12.160   7.429
38704SOL    HW217952   4.739  12.308   7.400
38705SOL     OW17953  11.731  12.159  12.030
38705SOL    HW117954  11.792  12.104  11.982
38705SOL    HW217955  11.773  12.174  12.114
38706SOL     OW17956  10.678   2.406   3.843
38706SOL    HW117957  10.598   2.435   3.800
38706SOL    HW217958  10.658   2.408   3.936
38707SOL     OW17959  13.904  13.136   4.776
38707SOL    HW117960  13.990  13.103   4.752
38707SOL    HW217961  13.861  13.154   4.692
38708SOL     OW17962   9.606   9.557  14.878
38708SOL    HW117963   9.589   9.464  14.866
38708SOL    HW217964   9.702   9.564  14.874
38709SOL     OW17965   5.530   8.347   6.482
38709SOL    HW117966   5.463   8.381   6.540
38709SOL    HW217967   5.610   8.392   6.508
38710SOL     OW17968  10.087  14.315  10.673
38710SOL    HW117969  10.174  14.280  10.653
38710SOL    HW217970  10.093  14.408  10.651
38711SOL     OW17971   6.120   8.252   8.127
38711SOL    HW117972   6.123   8.213   8.039
38711SOL    HW217973   6.176   8.196   8.180
38712SOL     OW17974   7.407   4.361  12.323
38712SOL    HW117975   7.328   4.360  12.377
38712SOL    HW217976   7.475   4.326  12.381
38713SOL     OW17977   8.579   7.444   9.555
38713SOL    HW117978   8.635   7.522   9.548
38713SOL    HW217979   8.598   7.394   9.475
38714SOL     OW17980   8.116   8.486   5.274
38714SOL    HW117981   8.065   8.489   5.193
38714SOL    HW217982   8.124   8.393   5.294
38715SOL     OW17983   8.672   4.832   0.783
38715SOL    HW117984   8.746   4.820   0.723
38715SOL    HW217985   8.685   4.764   0.850
38716SOL     OW17986   6.543   7.916   9.195
38716SOL    HW117987   6.523   8.006   9.220
38716SOL    HW217988   6.614   7.923   9.132
38717SOL     OW17989   4.895   6.546  11.143
38717SOL    HW117990   4.931   6.623  11.186
38717SOL    HW217991   4.878   6.575  11.053
38718SOL     OW17992   4.658   2.066   7.566
38718SOL    HW117993   4.573   2.095   7.601
38718SOL    HW217994   4.641   2.051   7.473
38719SOL     OW17995   5.437  13.694  12.195
38719SOL    HW117996   5.421  13.788  12.201
38719SOL    HW217997   5.371  13.663  12.134
38720SOL     OW17998   1.818   0.873   3.019
38720SOL    HW117999   1.845   0.790   3.057
38720SOL    HW218000   1.757   0.850   2.949
38721SOL     OW18001   3.599  14.610   2.893
38721SOL    HW118002   3.597  14.551   2.968
38721SOL    HW218003   3.692  14.615   2.869
38722SOL     OW18004  11.606   2.042   2.719
38722SOL    HW118005  11.687   2.057   2.670
38722SOL    HW218006  11.636   2.017   2.807
38723SOL     OW18007   9.512  13.210  14.816
38723SOL    HW118008   9.466  13.289  14.785
38723SOL    HW218009   9.595  13.211  14.768
38724SOL     OW18010   9.673   5.914   6.036
38724SOL    HW118011   9.637   5.954   5.957
38724SOL    HW218012   9.603   5.924   6.101
38725SOL     OW18013  14.785  14.401  10.287
38725SOL    HW118014  14.803  14.336  10.355
38725SOL    HW218015  14.749  14.476  10.334
38726SOL     OW18016   3.333  11.574   8.013
38726SOL    HW118017   3.394  11.640   8.047
38726SOL    HW218018   3.312  11.605   7.925
38727SOL     OW18019   7.372  10.317   3.768
38727SOL    HW118020   7.413  10.338   3.852
38727SOL    HW218021   7.338  10.400   3.736
38728SOL     OW18022  10.201   5.173   0.916
38728SOL    HW118023  10.257   5.217   0.979
38728SOL    HW218024  10.182   5.088   0.955
38729SOL     OW18025   5.551  11.133   9.032
38729SOL    HW118026   5.631  11.088   9.058
38729SOL    HW218027   5.480  11.076   9.063
38730SOL     OW18028  14.324   0.111   6.040
38730SOL    HW118029  14.323   0.066   5.955
38730SOL    HW218030  14.384   0.185   6.027
38731SOL     OW18031   0.167   3.580   0.475
38731SOL    HW118032   0.149   3.607   0.384
38731SOL    HW218033   0.229   3.508   0.467
38732SOL     OW18034   7.453  10.754  12.416
38732SOL    HW118035   7.386  10.750  12.347
38732SOL    HW218036   7.406  10.732  12.496
38733SOL     OW18037   7.336   6.198   7.160
38733SOL    HW118038   7.256   6.165   7.202
38733SOL    HW218039   7.318   6.291   7.146
38734SOL     OW18040   7.432   7.105   3.234
38734SOL    HW118041   7.402   7.037   3.173
38734SOL    HW218042   7.462   7.176   3.178
38735SOL     OW18043   3.872   5.089   1.408
38735SOL    HW118044   3.826   5.033   1.472
38735SOL    HW218045   3.932   5.029   1.364
38736SOL     OW18046  11.471   9.138  10.008
38736SOL    HW118047  11.423   9.203   9.957
38736SOL    HW218048  11.492   9.069   9.945
38737SOL     OW18049  10.075  14.686  13.289
38737SOL    HW118050  10.042  14.738  13.362
38737SOL    HW218051  10.035  14.600  13.301
38738SOL     OW18052   0.736  11.155   9.859
38738SOL    HW118053   0.766  11.066   9.880
38738SOL    HW218054   0.691  11.185   9.938
38739SOL     OW18055  10.408   8.077  12.116
38739SOL    HW118056  10.474   8.051  12.181
38739SOL    HW218057  10.337   8.013  12.127
38740SOL     OW18058   5.208   7.211  13.015
38740SOL    HW118059   5.196   7.225  12.921
38740SOL    HW218060   5.287   7.260  13.037
38741SOL     OW18061  11.275  11.232  12.619
38741SOL    HW118062  11.310  11.276  12.696
38741SOL    HW218063  11.333  11.259  12.547
38742SOL     OW18064   4.230   3.505  13.770
38742SOL    HW118065   4.322   3.488  13.790
38742SOL    HW218066   4.229   3.524  13.676
38743SOL     OW18067  10.265  10.639  13.437
38743SOL    HW118068  10.238  10.722  13.396
38743SOL    HW218069  10.334  10.664  13.498
38744SOL     OW18070   1.738   2.566   3.719
38744SOL    HW118071   1.787   2.591   3.797
38744SOL    HW218072   1.686   2.491   3.747
38745SOL     OW18073  11.496  11.204   2.411
38745SOL    HW118074  11.553  11.186   2.337
38745SOL    HW218075  11.487  11.299   2.412
38746SOL     OW18076   8.917   9.422   9.824
38746SOL    HW118077   8.972   9.491   9.789
38746SOL    HW218078   8.963   9.392   9.903
38747SOL     OW18079   1.475   1.624   6.711
38747SOL    HW118080   1.438   1.691   6.654
38747SOL    HW218081   1.513   1.673   6.784
38748SOL     OW18082  13.156   4.850   9.436
38748SOL    HW118083  13.085   4.890   9.387
38748SOL    HW218084  13.235   4.876   9.389
38749SOL     OW18085  11.421   7.483   6.525
38749SOL    HW118086  11.448   7.462   6.436
38749SOL    HW218087  11.326   7.493   6.520
38750SOL     OW18088   9.692  11.193   5.047
38750SOL    HW118089   9.684  11.189   4.951
38750SOL    HW218090   9.760  11.259   5.062
38751SOL     OW18091   2.497   8.559   1.377
38751SOL    HW118092   2.577   8.585   1.333
38751SOL    HW218093   2.520   8.554   1.470
38752SOL     OW18094   1.582   5.106  14.200
38752SOL    HW118095   1.508   5.121  14.142
38752SOL    HW218096   1.639   5.182  14.188
38753SOL     OW18097   4.932  10.186   8.561
38753SOL    HW118098   5.013  10.135   8.558
38753SOL    HW218099   4.867  10.131   8.518
38754SOL     OW18100  11.565   1.876   6.836
38754SOL    HW118101  11.587   1.793   6.879
38754SOL    HW218102  11.573   1.857   6.742
38755SOL     OW18103   8.192  13.953   8.100
38755SOL    HW118104   8.217  13.938   8.009
38755SOL    HW218105   8.108  13.998   8.095
38756SOL     OW18106  11.193   9.761   8.055
38756SOL    HW118107  11.180   9.751   8.149
38756SOL    HW218108  11.114   9.724   8.015
38757SOL     OW18109   0.641  10.802  14.864
38757SOL    HW118110   0.592  10.826   0.061
38757SOL    HW218111   0.627  10.707  14.855
38758SOL     OW18112  13.993   9.841  14.334
38758SOL    HW118113  13.988   9.746  14.335
38758SOL    HW218114  13.949   9.867  14.254
38759SOL     OW18115   8.207  11.132  13.717
38759SOL    HW118116   8.274  11.068  13.694
38759SOL    HW218117   8.227  11.158  13.806
38760SOL     OW18118   2.603   0.416  11.590
38760SOL    HW118119   2.642   0.408  11.503
38760SOL    HW218120   2.670   0.382  11.649
38761SOL     OW18121   9.362  10.710   0.497
38761SOL    HW118122   9.397  10.739   0.412
38761SOL    HW218123   9.429  10.738   0.560
38762SOL     OW18124  13.663   4.052   2.432
38762SOL    HW118125  13.737   4.103   2.464
38762SOL    HW218126  13.703   3.980   2.383
38763SOL     OW18127  11.681  12.446   4.123
38763SOL    HW118128  11.639  12.461   4.038
38763SOL    HW218129  11.743  12.375   4.107
38764SOL     OW18130  10.186   9.940  14.123
38764SOL    HW118131  10.192   9.918  14.216
38764SOL    HW218132  10.234   9.870  14.079
38765SOL     OW18133  14.561  12.889   8.955
38765SOL    HW118134  14.605  12.961   8.911
38765SOL    HW218135  14.550  12.822   8.887
38766SOL     OW18136   2.638  14.191   0.347
38766SOL    HW118137   2.569  14.136   0.311
38766SOL    HW218138   2.696  14.130   0.392
38767SOL     OW18139   1.006   7.200   7.689
38767SOL    HW118140   1.059   7.138   7.738
38767SOL    HW218141   1.029   7.185   7.598
38768SOL     OW18142  12.286  12.085   1.717
38768SOL    HW118143  12.289  12.142   1.793
38768SOL    HW218144  12.232  12.011   1.744
38769SOL     OW18145   9.878   2.905   7.715
38769SOL    HW118146   9.836   2.937   7.635
38769SOL    HW218147   9.810   2.856   7.760
38770SOL     OW18148   4.484  11.727   6.593
38770SOL    HW118149   4.393  11.744   6.570
38770SOL    HW218150   4.530  11.807   6.570
38771SOL     OW18151   7.599   0.891   0.743
38771SOL    HW118152   7.633   0.853   0.662
38771SOL    HW218153   7.582   0.983   0.722
38772SOL     OW18154   8.186  11.180   3.067
38772SOL    HW118155   8.232  11.223   2.995
38772SOL    HW218156   8.134  11.111   3.025
38773SOL     OW18157   3.175   1.461  14.003
38773SOL    HW118158   3.080   1.474  14.003
38773SOL    HW218159   3.189   1.391  13.939
38774SOL     OW18160  10.335   6.144   1.324
38774SOL    HW118161  10.409   6.094   1.357
38774SOL    HW218162  10.309   6.099   1.244
38775SOL     OW18163   6.712   9.442  11.879
38775SOL    HW118164   6.794   9.490  11.892
38775SOL    HW218165   6.651   9.482  11.940
38776SOL     OW18166   7.353  11.771   1.837
38776SOL    HW118167   7.375  11.841   1.897
38776SOL    HW218168   7.352  11.812   1.750
38777SOL     OW18169   7.493  10.230  10.162
38777SOL    HW118170   7.580  10.191  10.170
38777SOL    HW218171   7.440  10.186  10.228
38778SOL     OW18172   2.364   8.250   2.268
38778SOL    HW118173   2.319   8.325   2.306
38778SOL    HW218174   2.421   8.288   2.201
38779SOL     OW18175   8.255   6.634   1.698
38779SOL    HW118176   8.337   6.663   1.737
38779SOL    HW218177   8.214   6.581   1.767
38780SOL     OW18178   3.989   0.380   8.854
38780SOL    HW118179   3.895   0.361   8.845
38780SOL    HW218180   3.999   0.469   8.822
38781SOL     OW18181   6.785  11.547   0.698
38781SOL    HW118182   6.705  11.598   0.707
38781SOL    HW218183   6.850  11.595   0.751
38782SOL     OW18184   9.101  14.103   3.519
38782SOL    HW118185   9.010  14.101   3.550
38782SOL    HW218186   9.099  14.157   3.440
38783SOL     OW18187   4.630   5.042  12.945
38783SOL    HW118188   4.575   5.010  12.873
38783SOL    HW218189   4.700   4.978  12.952
38784SOL     OW18190  12.198   1.889  14.488
38784SOL    HW118191  12.114   1.919  14.523
38784SOL    HW218192  12.188   1.892  14.393
38785SOL     OW18193  10.948   9.280   1.459
38785SOL    HW118194  10.999   9.204   1.432
38785SOL    HW218195  11.011   9.352   1.461
38786SOL     OW18196  13.958  12.563   3.912
38786SOL    HW118197  13.863  12.574   3.906
38786SOL    HW218198  13.975  12.477   3.873
38787SOL     OW18199  12.880  12.524  11.381
38787SOL    HW118200  12.853  12.450  11.435
38787SOL    HW218201  12.960  12.556  11.421
38788SOL     OW18202   2.748   7.549  13.070
38788SOL    HW118203   2.718   7.465  13.104
38788SOL    HW218204   2.806   7.584  13.138
38789SOL     OW18205   9.880   0.926   6.840
38789SOL    HW118206   9.871   0.934   6.745
38789SOL    HW218207   9.964   0.967   6.860
38790SOL     OW18208   6.449  12.721   7.755
38790SOL    HW118209   6.525  12.681   7.712
38790SOL    HW218210   6.463  12.815   7.746
38791SOL     OW18211   5.888   4.150   2.105
38791SOL    HW118212   5.890   4.070   2.158
38791SOL    HW218213   5.795   4.163   2.085
38792SOL     OW18214   9.025   4.611   6.428
38792SOL    HW118215   8.964   4.590   6.358
38792SOL    HW218216   9.103   4.643   6.382
38793SOL     OW18217  10.902   6.331   7.274
38793SOL    HW118218  10.987   6.345   7.232
38793SOL    HW218219  10.924   6.288   7.358
38794SOL     OW18220   5.587   6.617  11.557
38794SOL    HW118221   5.553   6.706  11.547
38794SOL    HW218222   5.509   6.563  11.574
38795SOL     OW18223   6.677   8.847  14.828
38795SOL    HW118224   6.721   8.806   0.020
38795SOL    HW218225   6.690   8.785  14.756
38796SOL     OW18226  10.211   8.139  10.403
38796SOL    HW118227  10.130   8.167  10.446
38796SOL    HW218228  10.182   8.106  10.318
38797SOL     OW18229   9.809  11.042   8.246
38797SOL    HW118230   9.838  11.097   8.172
38797SOL    HW218231   9.821  11.098   8.323
38798SOL     OW18232   4.241   9.617   5.146
38798SOL    HW118233   4.286   9.556   5.088
38798SOL    HW218234   4.310   9.671   5.184
38799SOL     OW18235   3.110  13.040   4.673
38799SOL    HW118236   3.109  13.019   4.580
38799SOL    HW218237   3.104  13.136   4.676
38800SOL     OW18238  13.875   8.593   2.925
38800SOL    HW118239  13.810   8.573   2.857
38800SOL    HW218240  13.825   8.592   3.007
38801SOL     OW18241  13.163   7.631  13.334
38801SOL    HW118242  13.073   7.601  13.333
38801SOL    HW218243  13.159   7.719  13.373
38802SOL     OW18244   8.848  13.710   5.575
38802SOL    HW118245   8.903  13.640   5.610
38802SOL    HW218246   8.776  13.717   5.638
38803SOL     OW18247   7.843   2.428   9.035
38803SOL    HW118248   7.938   2.437   9.020
38803SOL    HW218249   7.809   2.400   8.950
38804SOL     OW18250   9.801  11.408  13.058
38804SOL    HW118251   9.770  11.460  13.132
38804SOL    HW218252   9.779  11.460  12.981
38805SOL     OW18253   5.205   7.586  11.119
38805SOL    HW118254   5.291   7.574  11.159
38805SOL    HW218255   5.157   7.506  11.141
38806SOL     OW18256  14.680  10.778   4.645
38806SOL    HW118257  14.720  10.829   4.715
38806SOL    HW218258  14.746  10.714   4.621
38807SOL     OW18259   9.403   2.814   0.989
38807SOL    HW118260   9.378   2.881   0.925
38807SOL    HW218261   9.378   2.851   1.073
38808SOL     OW18262  13.873   5.937  11.933
38808SOL    HW118263  13.922   6.005  11.980
38808SOL    HW218264  13.937   5.899  11.873
38809SOL     OW18265  14.278   0.598   6.742
38809SOL    HW118266  14.272   0.511   6.702
38809SOL    HW218267  14.263   0.659   6.670
38810SOL     OW18268   4.765   4.691   0.267
38810SOL    HW118269   4.832   4.683   0.200
38810SOL    HW218270   4.684   4.707   0.219
38811SOL     OW18271  10.219  11.665   6.247
38811SOL    HW118272  10.213  11.593   6.310
38811SOL    HW218273  10.135  11.709   6.253
38812SOL     OW18274  12.084   3.038   7.497
38812SOL    HW118275  12.130   3.122   7.508
38812SOL    HW218276  12.118   3.003   7.414
38813SOL     OW18277   5.067   4.422   4.240
38813SOL    HW118278   4.999   4.384   4.185
38813SOL    HW218279   5.125   4.467   4.178
38814SOL     OW18280   4.360   7.528  11.151
38814SOL    HW118281   4.339   7.529  11.057
38814SOL    HW218282   4.362   7.620  11.176
38815SOL     OW18283   9.587   6.956   9.541
38815SOL    HW118284   9.552   6.986   9.457
38815SOL    HW218285   9.649   6.887   9.519
38816SOL     OW18286   7.127   3.687  13.049
38816SOL    HW118287   7.182   3.761  13.025
38816SOL    HW218288   7.083   3.663  12.967
38817SOL     OW18289   1.581  12.698  11.461
38817SOL    HW118290   1.513  12.758  11.493
38817SOL    HW218291   1.588  12.720  11.368
38818SOL     OW18292   5.274   1.585   4.900
38818SOL    HW118293   5.189   1.629   4.890
38818SOL    HW218294   5.285   1.536   4.819
38819SOL     OW18295   0.596   2.860   9.831
38819SOL    HW118296   0.594   2.779   9.882
38819SOL    HW218297   0.573   2.928   9.894
38820SOL     OW18298  12.905   0.538  10.665
38820SOL    HW118299  12.872   0.482  10.735
38820SOL    HW218300  12.971   0.485  10.621
38821SOL     OW18301   6.559   4.193  14.268
38821SOL    HW118302   6.593   4.136  14.337
38821SOL    HW218303   6.636   4.240  14.236
38822SOL     OW18304  13.574  13.305  13.373
38822SOL    HW118305  13.488  13.266  13.359
38822SOL    HW218306  13.591  13.355  13.294
38823SOL     OW18307  11.903   3.976   6.451
38823SOL    HW118308  11.961   4.034   6.401
38823SOL    HW218309  11.904   3.894   6.402
38824SOL     OW18310   1.432  12.054   1.001
38824SOL    HW118311   1.373  12.127   1.017
38824SOL    HW218312   1.374  11.979   0.984
38825SOL     OW18313   4.399   4.123  14.107
38825SOL    HW118314   4.336   4.100  14.038
38825SOL    HW218315   4.410   4.217  14.099
38826SOL     OW18316  13.671   6.040  13.902
38826SOL    HW118317  13.679   5.945  13.895
38826SOL    HW218318  13.634   6.068  13.819
38827SOL     OW18319   5.839  12.833  14.143
38827SOL    HW118320   5.806  12.745  14.127
38827SOL    HW218321   5.895  12.853  14.067
38828SOL     OW18322   3.664   9.459   6.155
38828SOL    HW118323   3.753   9.452   6.188
38828SOL    HW218324   3.612   9.403   6.213
38829SOL     OW18325   0.648   2.510   1.357
38829SOL    HW118326   0.663   2.482   1.447
38829SOL    HW218327   0.572   2.568   1.362
38830SOL     OW18328   6.316  14.057   2.593
38830SOL    HW118329   6.323  13.964   2.616
38830SOL    HW218330   6.223  14.072   2.581
38831SOL     OW18331   0.895   7.261  14.473
38831SOL    HW118332   0.839   7.192  14.509
38831SOL    HW218333   0.984   7.225  14.479
38832SOL     OW18334  11.705   0.770   5.498
38832SOL    HW118335  11.744   0.857   5.495
38832SOL    HW218336  11.611   0.785   5.485
38833SOL     OW18337   0.006  11.369   4.377
38833SOL    HW118338  14.807  11.318   4.366
38833SOL    HW218339   0.038  11.383   4.288
38834SOL     OW18340   6.607   6.286   0.760
38834SOL    HW118341   6.656   6.365   0.736
38834SOL    HW218342   6.567   6.258   0.678
38835SOL     OW18343  10.495  10.602  13.887
38835SOL    HW118344  10.524  10.606  13.979
38835SOL    HW218345  10.456  10.515  13.878
38836SOL     OW18346   0.570   3.262   4.860
38836SOL    HW118347   0.487   3.282   4.817
38836SOL    HW218348   0.619   3.212   4.794
38837SOL     OW18349  10.890  14.103  14.665
38837SOL    HW118350  10.893  14.110  14.569
38837SOL    HW218351  10.964  14.155  14.695
38838SOL     OW18352   8.024   5.452   7.353
38838SOL    HW118353   8.053   5.488   7.437
38838SOL    HW218354   7.959   5.514   7.321
38839SOL     OW18355   6.685   3.399   0.324
38839SOL    HW118356   6.688   3.430   0.414
38839SOL    HW218357   6.604   3.436   0.288
38840SOL     OW18358  13.920   5.525   3.544
38840SOL    HW118359  13.999   5.472   3.556
38840SOL    HW218360  13.940   5.608   3.586
38841SOL     OW18361  13.979  13.924   1.752
38841SOL    HW118362  13.968  13.942   1.845
38841SOL    HW218363  13.894  13.892   1.723
38842SOL     OW18364   8.489   2.905   5.278
38842SOL    HW118365   8.568   2.864   5.242
38842SOL    HW218366   8.467   2.851   5.353
38843SOL     OW18367   3.142  11.578   3.470
38843SOL    HW118368   3.205  11.605   3.402
38843SOL    HW218369   3.087  11.656   3.484
38844SOL     OW18370  13.298  14.559  10.626
38844SOL    HW118371  13.340  14.542  10.710
38844SOL    HW218372  13.256  14.644  10.637
38845SOL     OW18373   8.057  12.629   9.748
38845SOL    HW118374   7.994  12.650   9.817
38845SOL    HW218375   8.051  12.534   9.737
38846SOL     OW18376   2.060   6.220   5.285
38846SOL    HW118377   2.006   6.291   5.318
38846SOL    HW218378   2.025   6.141   5.328
38847SOL     OW18379   3.337   3.887  11.986
38847SOL    HW118380   3.397   3.834  12.039
38847SOL    HW218381   3.297   3.948  12.048
38848SOL     OW18382  12.301   1.580  14.403
38848SOL    HW118383  12.360   1.655  14.399
38848SOL    HW218384  12.217   1.616  14.431
38849SOL     OW18385   1.576  11.948   8.750
38849SOL    HW118386   1.578  11.880   8.683
38849SOL    HW218387   1.621  12.022   8.709
38850SOL     OW18388   6.085   8.511   8.234
38850SOL    HW118389   6.158   8.499   8.295
38850SOL    HW218390   6.083   8.430   8.182
38851SOL     OW18391  10.620   6.394   5.036
38851SOL    HW118392  10.691   6.447   4.999
38851SOL    HW218393  10.599   6.331   4.967
38852SOL     OW18394   2.647   6.171   1.172
38852SOL    HW118395   2.723   6.208   1.127
38852SOL    HW218396   2.615   6.103   1.113
38853SOL     OW18397  11.480   7.006   9.359
38853SOL    HW118398  11.499   6.913   9.374
38853SOL    HW218399  11.537   7.030   9.286
38854SOL     OW18400   7.061   1.886  12.413
38854SOL    HW118401   6.978   1.915  12.451
38854SOL    HW218402   7.091   1.960  12.361
38855SOL     OW18403   4.369  10.722   9.300
38855SOL    HW118404   4.344  10.809   9.333
38855SOL    HW218405   4.462  10.715   9.319
38856SOL     OW18406   2.626   2.850   9.547
38856SOL    HW118407   2.560   2.822   9.610
38856SOL    HW218408   2.708   2.813   9.580
38857SOL     OW18409  14.308   2.547  13.758
38857SOL    HW118410  14.285   2.621  13.815
38857SOL    HW218411  14.358   2.586  13.686
38858SOL     OW18412   3.032   6.618   8.343
38858SOL    HW118413   3.005   6.709   8.342
38858SOL    HW218414   3.090   6.609   8.268
38859SOL     OW18415  11.095  11.590  10.193
38859SOL    HW118416  11.022  11.605  10.253
38859SOL    HW218417  11.090  11.663  10.131
38860SOL     OW18418   6.292   2.789   9.494
38860SOL    HW118419   6.355   2.729   9.533
38860SOL    HW218420   6.250   2.831   9.569
38861SOL     OW18421   6.273   3.306   5.496
38861SOL    HW118422   6.199   3.255   5.464
38861SOL    HW218423   6.343   3.290   5.433
38862SOL     OW18424  11.178  10.735  12.891
38862SOL    HW118425  11.177  10.685  12.973
38862SOL    HW218426  11.240  10.806  12.908
38863SOL     OW18427   9.990  11.854   7.509
38863SOL    HW118428  10.083  11.879   7.511
38863SOL    HW218429   9.989  11.765   7.545
38864SOL     OW18430   4.526  13.718   9.995
38864SOL    HW118431   4.603  13.732   9.941
38864SOL    HW218432   4.505  13.625   9.983
38865SOL     OW18433   2.150  11.714  12.349
38865SOL    HW118434   2.232  11.749  12.316
38865SOL    HW218435   2.083  11.774  12.319
38866SOL     OW18436   2.669   6.035   7.725
38866SOL    HW118437   2.659   6.052   7.632
38866SOL    HW218438   2.749   6.081   7.750
38867SOL     OW18439   9.229   6.920  10.206
38867SOL    HW118440   9.144   6.938  10.247
38867SOL    HW218441   9.206   6.876  10.124
38868SOL     OW18442   5.975   0.808   1.202
38868SOL    HW118443   5.914   0.736   1.187
38868SOL    HW218444   6.055   0.766   1.231
38869SOL     OW18445   2.538  11.210   4.686
38869SOL    HW118446   2.536  11.304   4.705
38869SOL    HW218447   2.574  11.205   4.598
38870SOL     OW18448   6.350  14.527   1.634
38870SOL    HW118449   6.267  14.566   1.658
38870SOL    HW218450   6.416  14.586   1.670
38871SOL     OW18451   5.800   8.102   5.040
38871SOL    HW118452   5.880   8.149   5.018
38871SOL    HW218453   5.792   8.110   5.135
38872SOL     OW18454   7.173   6.922  11.380
38872SOL    HW118455   7.153   7.014  11.395
38872SOL    HW218456   7.172   6.911  11.285
38873SOL     OW18457   3.369  14.387   9.566
38873SOL    HW118458   3.427  14.462   9.555
38873SOL    HW218459   3.326  14.376   9.482
38874SOL     OW18460   7.799  13.545   2.452
38874SOL    HW118461   7.732  13.569   2.516
38874SOL    HW218462   7.872  13.512   2.504
38875SOL     OW18463  11.460   6.457   0.681
38875SOL    HW118464  11.552   6.483   0.682
38875SOL    HW218465  11.454   6.387   0.746
38876SOL     OW18466  12.320  12.514   7.121
38876SOL    HW118467  12.257  12.571   7.165
38876SOL    HW218468  12.300  12.427   7.154
38877SOL     OW18469   6.853   9.132   5.925
38877SOL    HW118470   6.767   9.090   5.932
38877SOL    HW218471   6.849   9.181   5.843
38878SOL     OW18472   9.471  11.286   6.402
38878SOL    HW118473   9.558  11.318   6.425
38878SOL    HW218474   9.486  11.225   6.331
38879SOL     OW18475  14.876   3.086   2.219
38879SOL    HW118476  14.833   3.087   2.133
38879SOL    HW218477   0.002   2.993   2.240
38880SOL     OW18478  14.800   3.691  11.672
38880SOL    HW118479  14.713   3.655  11.685
38880SOL    HW218480  14.842   3.632  11.609
38881SOL     OW18481   8.561   6.758   2.644
38881SOL    HW118482   8.489   6.701   2.672
38881SOL    HW218483   8.543   6.776   2.552
38882SOL     OW18484   8.077   3.400   2.463
38882SOL    HW118485   8.010   3.351   2.416
38882SOL    HW218486   8.028   3.461   2.519
38883SOL     OW18487  14.733  11.854  11.488
38883SOL    HW118488  14.820  11.853  11.528
38883SOL    HW218489  14.706  11.945  11.492
38884SOL     OW18490   7.989   4.929   9.204
38884SOL    HW118491   8.021   4.931   9.114
38884SOL    HW218492   7.894   4.934   9.195
38885SOL     OW18493   4.113  13.860  10.063
38885SOL    HW118494   4.031  13.819  10.034
38885SOL    HW218495   4.141  13.806  10.137
38886SOL     OW18496  13.042   1.929   2.937
38886SOL    HW118497  12.980   2.002   2.931
38886SOL    HW218498  13.115   1.954   2.880
38887SOL     OW18499  14.798   6.602   5.425
38887SOL    HW118500  14.823   6.623   5.335
38887SOL    HW218501  14.870   6.550   5.459
38888SOL     OW18502   5.464   2.076   4.335
38888SOL    HW118503   5.484   2.119   4.419
38888SOL    HW218504   5.425   2.145   4.282
38889SOL     OW18505  11.744  14.127   3.154
38889SOL    HW118506  11.680  14.059   3.174
38889SOL    HW218507  11.750  14.178   3.235
38890SOL     OW18508   6.552  11.610   7.921
38890SOL    HW118509   6.541  11.614   7.826
38890SOL    HW218510   6.525  11.521   7.945
38891SOL     OW18511   1.242  12.914   2.725
38891SOL    HW118512   1.255  12.888   2.817
38891SOL    HW218513   1.255  12.833   2.675
38892SOL     OW18514  14.626  13.164   2.433
38892SOL    HW118515  14.595  13.203   2.515
38892SOL    HW218516  14.699  13.220   2.407
38893SOL     OW18517   4.441   8.385  12.553
38893SOL    HW118518   4.455   8.338  12.471
38893SOL    HW218519   4.353   8.421  12.546
38894SOL     OW18520   3.602  10.043  11.023
38894SOL    HW118521   3.573  10.130  10.993
38894SOL    HW218522   3.661  10.062  11.096
38895SOL     OW18523   5.389   8.690   0.478
38895SOL    HW118524   5.423   8.606   0.445
38895SOL    HW218525   5.431   8.756   0.421
38896SOL     OW18526   5.273  13.785   0.607
38896SOL    HW118527   5.349  13.741   0.643
38896SOL    HW218528   5.309  13.847   0.543
38897SOL     OW18529   7.603   3.245   8.916
38897SOL    HW118530   7.690   3.235   8.954
38897SOL    HW218531   7.617   3.294   8.836
38898SOL     OW18532   4.580   6.629   6.588
38898SOL    HW118533   4.602   6.540   6.616
38898SOL    HW218534   4.562   6.622   6.494
38899SOL     OW18535   1.802   7.023   9.833
38899SOL    HW118536   1.842   7.046   9.749
38899SOL    HW218537   1.711   7.005   9.812
38900SOL     OW18538   8.104   2.604   1.496
38900SOL    HW118539   8.079   2.635   1.583
38900SOL    HW218540   8.049   2.656   1.436
38901SOL     OW18541   9.638   2.002   8.631
38901SOL    HW118542   9.689   1.931   8.670
38901SOL    HW218543   9.567   1.957   8.584
38902SOL     OW18544   5.352  11.356   7.143
38902SOL    HW118545   5.274  11.322   7.100
38902SOL    HW218546   5.331  11.355   7.236
38903SOL     OW18547   1.267  11.844   1.042
38903SOL    HW118548   1.257  11.751   1.059
38903SOL    HW218549   1.203  11.864   0.974
38904SOL     OW18550   1.064  12.729   3.759
38904SOL    HW118551   0.981  12.722   3.712
38904SOL    HW218552   1.131  12.720   3.691
38905SOL     OW18553   2.559   4.788  14.771
38905SOL    HW118554   2.489   4.843  14.735
38905SOL    HW218555   2.532   4.770  14.861
38906SOL     OW18556   6.036  13.146   6.612
38906SOL    HW118557   6.082  13.228   6.597
38906SOL    HW218558   6.098  13.078   6.585
38907SOL     OW18559   1.094  11.124   9.887
38907SOL    HW118560   1.054  11.087   9.808
38907SOL    HW218561   1.080  11.057   9.954
38908SOL     OW18562  10.835   3.057   6.741
38908SOL    HW118563  10.863   3.076   6.831
38908SOL    HW218564  10.740   3.069   6.742
38909SOL     OW18565   0.963  13.622   6.649
38909SOL    HW118566   0.930  13.663   6.569
38909SOL    HW218567   1.041  13.673   6.671
38910SOL     OW18568   0.120   9.869   3.710
38910SOL    HW118569   0.105   9.930   3.782
38910SOL    HW218570   0.215   9.862   3.703
38911SOL     OW18571   6.716  11.314   8.186
38911SOL    HW118572   6.801  11.289   8.151
38911SOL    HW218573   6.656  11.305   8.112
38912SOL     OW18574  12.005   8.442  13.944
38912SOL    HW118575  11.948   8.414  13.872
38912SOL    HW218576  12.092   8.412  13.919
38913SOL     OW18577  12.604   5.094   6.293
38913SOL    HW118578  12.560   5.011   6.314
38913SOL    HW218579  12.694   5.070   6.274
38914SOL     OW18580   8.748   2.977   7.113
38914SOL    HW118581   8.715   2.921   7.184
38914SOL    HW218582   8.789   3.051   7.158
38915SOL     OW18583   2.759   6.205   9.954
38915SOL    HW118584   2.725   6.283   9.999
38915SOL    HW218585   2.718   6.132   9.999
38916SOL     OW18586   2.510  12.103   6.146
38916SOL    HW118587   2.433  12.047   6.155
38916SOL    HW218588   2.475  12.191   6.138
38917SOL     OW18589   5.867   3.482   6.295
38917SOL    HW118590   5.774   3.477   6.317
38917SOL    HW218591   5.896   3.391   6.290
38918SOL     OW18592   6.972   1.037   7.526
38918SOL    HW118593   7.024   0.982   7.585
38918SOL    HW218594   6.931   0.975   7.465
38919SOL     OW18595   4.251   8.362   1.194
38919SOL    HW118596   4.277   8.378   1.285
38919SOL    HW218597   4.329   8.326   1.153
38920SOL     OW18598  13.948  12.321   6.312
38920SOL    HW118599  13.999  12.353   6.386
38920SOL    HW218600  13.963  12.385   6.243
38921SOL     OW18601   1.303   4.168  10.807
38921SOL    HW118602   1.395   4.162  10.832
38921SOL    HW218603   1.280   4.260  10.822
38922SOL     OW18604   1.161   8.700   4.150
38922SOL    HW118605   1.180   8.786   4.187
38922SOL    HW218606   1.116   8.719   4.068
38923SOL     OW18607   4.972   1.551  10.934
38923SOL    HW118608   4.964   1.465  10.893
38923SOL    HW218609   4.907   1.551  11.005
38924SOL     OW18610  12.860  10.066  13.356
38924SOL    HW118611  12.949  10.101  13.347
38924SOL    HW218612  12.846  10.060  13.450
38925SOL     OW18613   1.339   1.625   7.662
38925SOL    HW118614   1.410   1.561   7.655
38925SOL    HW218615   1.317   1.644   7.571
38926SOL     OW18616  10.177  14.800  12.367
38926SOL    HW118617  10.237  14.810  12.441
38926SOL    HW218618  10.099  14.849  12.392
38927SOL     OW18619   1.811   8.981  13.435
38927SOL    HW118620   1.863   9.053  13.400
38927SOL    HW218621   1.830   8.981  13.529
38928SOL     OW18622   3.696  10.472   1.889
38928SOL    HW118623   3.784  10.460   1.923
38928SOL    HW218624   3.708  10.518   1.806
38929SOL     OW18625   3.541   9.559  11.158
38929SOL    HW118626   3.585   9.569  11.242
38929SOL    HW218627   3.609   9.525  11.100
38930SOL     OW18628   0.341   6.192   8.956
38930SOL    HW118629   0.419   6.154   8.915
38930SOL    HW218630   0.284   6.214   8.883
38931SOL     OW18631  14.503  10.100   4.521
38931SOL    HW118632  14.443  10.171   4.543
38931SOL    HW218633  14.580  10.144   4.485
38932SOL     OW18634   3.932   4.310   5.114
38932SOL    HW118635   4.027   4.315   5.101
38932SOL    HW218636   3.919   4.224   5.153
38933SOL     OW18637  10.792  10.753   8.282
38933SOL    HW118638  10.742  10.827   8.317
38933SOL    HW218639  10.733  10.712   8.219
38934SOL     OW18640   6.679   4.358   6.348
38934SOL    HW118641   6.644   4.391   6.431
38934SOL    HW218642   6.728   4.432   6.311
38935SOL     OW18643   2.177   2.837   1.218
38935SOL    HW118644   2.247   2.800   1.164
38935SOL    HW218645   2.111   2.768   1.222
38936SOL     OW18646   0.907   9.713   3.690
38936SOL    HW118647   0.899   9.796   3.643
38936SOL    HW218648   0.853   9.724   3.768
38937SOL     OW18649  10.409   4.134   1.062
38937SOL    HW118650  10.361   4.198   1.114
38937SOL    HW218651  10.434   4.181   0.982
38938SOL     OW18652   9.681   8.887   0.871
38938SOL    HW118653   9.679   8.876   0.776
38938SOL    HW218654   9.626   8.964   0.888
38939SOL     OW18655   5.629   6.524   3.255
38939SOL    HW118656   5.696   6.486   3.199
38939SOL    HW218657   5.678   6.577   3.318
38940SOL     OW18658   3.619  11.182  14.478
38940SOL    HW118659   3.621  11.225  14.393
38940SOL    HW218660   3.619  11.088  14.458
38941SOL     OW18661  10.736   7.795   5.884
38941SOL    HW118662  10.649   7.806   5.921
38941SOL    HW218663  10.747   7.869   5.824
38942SOL     OW18664   8.264   3.465   0.940
38942SOL    HW118665   8.325   3.398   0.971
38942SOL    HW218666   8.214   3.421   0.871
38943SOL     OW18667  12.610  12.308   6.725
38943SOL    HW118668  12.608  12.238   6.790
38943SOL    HW218669  12.549  12.374   6.759
38944SOL     OW18670  13.068   5.557  14.415
38944SOL    HW118671  13.083   5.486  14.352
38944SOL    HW218672  13.034   5.629  14.362
38945SOL     OW18673   2.285   4.035   8.727
38945SOL    HW118674   2.366   4.046   8.678
38945SOL    HW218675   2.310   4.047   8.819
38946SOL     OW18676   6.354  13.966  12.578
38946SOL    HW118677   6.434  14.011  12.552
38946SOL    HW218678   6.295  13.975  12.503
38947SOL     OW18679   5.861   0.215   3.202
38947SOL    HW118680   5.858   0.175   3.289
38947SOL    HW218681   5.950   0.198   3.171
38948SOL     OW18682   5.107  10.795   5.797
38948SOL    HW118683   5.058  10.802   5.715
38948SOL    HW218684   5.106  10.702   5.817
38949SOL     OW18685   3.829  11.281   8.891
38949SOL    HW118686   3.839  11.187   8.904
38949SOL    HW218687   3.735  11.294   8.879
38950SOL     OW18688  14.510   8.003   4.361
38950SOL    HW118689  14.596   8.020   4.321
38950SOL    HW218690  14.482   7.919   4.323
38951SOL     OW18691  13.389   4.225   5.701
38951SOL    HW118692  13.381   4.259   5.612
38951SOL    HW218693  13.460   4.160   5.696
38952SOL     OW18694   5.054   0.798   1.496
38952SOL    HW118695   5.067   0.798   1.591
38952SOL    HW218696   5.120   0.859   1.463
38953SOL     OW18697   9.352  10.744   8.623
38953SOL    HW118698   9.383  10.737   8.533
38953SOL    HW218699   9.347  10.839   8.638
38954SOL     OW18700   7.801   6.603   3.018
38954SOL    HW118701   7.795   6.659   3.095
38954SOL    HW218702   7.741   6.531   3.037
38955SOL     OW18703  14.621   0.958  11.667
38955SOL    HW118704  14.692   0.990  11.723
38955SOL    HW218705  14.579   1.037  11.635
38956SOL     OW18706   5.639  13.259   3.338
38956SOL    HW118707   5.710  13.278   3.400
38956SOL    HW218708   5.566  13.231   3.393
38957SOL     OW18709   8.780  10.123   6.939
38957SOL    HW118710   8.836  10.058   6.981
38957SOL    HW218711   8.782  10.198   6.998
38958SOL     OW18712   4.752   1.871  11.172
38958SOL    HW118713   4.771   1.878  11.078
38958SOL    HW218714   4.734   1.778  11.186
38959SOL     OW18715  10.219  14.833   1.133
38959SOL    HW118716  10.277  14.792   1.069
38959SOL    HW218717  10.195   0.035   1.094
38960SOL     OW18718   6.133   3.048  14.022
38960SOL    HW118719   6.159   2.956  14.018
38960SOL    HW218720   6.051   3.048  14.071
38961SOL     OW18721  13.658   5.375   0.907
38961SOL    HW118722  13.691   5.292   0.874
38961SOL    HW218723  13.719   5.398   0.978
38962SOL     OW18724  14.813   0.498   5.913
38962SOL    HW118725   0.022   0.507   5.943
38962SOL    HW218726  14.819   0.451   5.830
38963SOL     OW18727   1.547   9.821   4.198
38963SOL    HW118728   1.600   9.885   4.150
38963SOL    HW218729   1.597   9.740   4.192
38964SOL     OW18730   6.310  11.683   3.751
38964SOL    HW118731   6.315  11.643   3.838
38964SOL    HW218732   6.219  11.670   3.724
38965SOL     OW18733   7.626   5.446   5.097
38965SOL    HW118734   7.532   5.445   5.114
38965SOL    HW218735   7.638   5.519   5.037
38966SOL     OW18736   0.341  13.735   8.392
38966SOL    HW118737   0.297  13.719   8.475
38966SOL    HW218738   0.270  13.755   8.331
38967SOL     OW18739   6.559   6.576  10.593
38967SOL    HW118740   6.505   6.599  10.518
38967SOL    HW218741   6.649   6.595  10.564
38968SOL     OW18742   9.868   3.776   7.019
38968SOL    HW118743   9.913   3.796   6.937
38968SOL    HW218744   9.832   3.861   7.048
38969SOL     OW18745   6.471   9.244   7.582
38969SOL    HW118746   6.549   9.299   7.594
38969SOL    HW218747   6.478   9.212   7.492
38970SOL     OW18748  12.707  12.609   9.886
38970SOL    HW118749  12.782  12.665   9.905
38970SOL    HW218750  12.650  12.618   9.963
38971SOL     OW18751   4.337   1.300  11.937
38971SOL    HW118752   4.421   1.279  11.895
38971SOL    HW218753   4.284   1.221  11.927
38972SOL     OW18754   5.746  13.190   4.275
38972SOL    HW118755   5.822  13.247   4.284
38972SOL    HW218756   5.762  13.119   4.338
38973SOL     OW18757   0.607   5.544  12.575
38973SOL    HW118758   0.511   5.544  12.574
38973SOL    HW218759   0.632   5.613  12.514
38974SOL     OW18760   3.310  11.927   7.606
38974SOL    HW118761   3.391  11.961   7.568
38974SOL    HW218762   3.320  11.832   7.603
38975SOL     OW18763   5.817   3.556   8.901
38975SOL    HW118764   5.841   3.593   8.986
38975SOL    HW218765   5.851   3.619   8.838
38976SOL     OW18766   1.928  12.596  10.370
38976SOL    HW118767   2.019  12.601  10.341
38976SOL    HW218768   1.877  12.624  10.295
38977SOL     OW18769   0.660  10.166  11.058
38977SOL    HW118770   0.571  10.164  11.023
38977SOL    HW218771   0.716  10.148  10.982
38978SOL     OW18772   4.950  13.908   4.345
38978SOL    HW118773   4.982  13.844   4.281
38978SOL    HW218774   4.934  13.857   4.425
38979SOL     OW18775   5.966   4.111  14.724
38979SOL    HW118776   6.061   4.114  14.717
38979SOL    HW218777   5.946   4.163  14.802
38980SOL     OW18778  12.294   4.502   2.575
38980SOL    HW118779  12.318   4.582   2.622
38980SOL    HW218780  12.205   4.520   2.543
38981SOL     OW18781  12.294  12.819   3.094
38981SOL    HW118782  12.208  12.832   3.055
38981SOL    HW218783  12.276  12.800   3.186
38982SOL     OW18784  12.023   9.528  10.730
38982SOL    HW118785  12.028   9.568  10.816
38982SOL    HW218786  12.113   9.498  10.712
38983SOL     OW18787   1.489   4.766   8.241
38983SOL    HW118788   1.583   4.755   8.256
38983SOL    HW218789   1.480   4.771   8.146
38984SOL     OW18790  10.127   4.563   6.247
38984SOL    HW118791  10.151   4.489   6.304
38984SOL    HW218792  10.211   4.602   6.222
38985SOL     OW18793   0.396   8.695   4.146
38985SOL    HW118794   0.471   8.753   4.156
38985SOL    HW218795   0.375   8.698   4.052
38986SOL     OW18796   1.677  12.718  13.941
38986SOL    HW118797   1.606  12.654  13.944
38986SOL    HW218798   1.747  12.679  13.993
38987SOL     OW18799  13.914   0.911  12.220
38987SOL    HW118800  13.997   0.958  12.219
38987SOL    HW218801  13.924   0.847  12.290
38988SOL     OW18802   2.833   3.250   2.588
38988SOL    HW118803   2.910   3.305   2.597
38988SOL    HW218804   2.867   3.160   2.587
38989SOL     OW18805   4.169   1.927   2.052
38989SOL    HW118806   4.189   1.934   1.958
38989SOL    HW218807   4.173   1.834   2.071
38990SOL     OW18808   3.469   1.692   5.453
38990SOL    HW118809   3.490   1.618   5.396
38990SOL    HW218810   3.547   1.747   5.451
38991SOL     OW18811   0.659   2.529   7.047
38991SOL    HW118812   0.649   2.545   7.140
38991SOL    HW218813   0.704   2.607   7.014
38992SOL     OW18814  13.243  13.813   8.916
38992SOL    HW118815  13.211  13.879   8.855
38992SOL    HW218816  13.246  13.732   8.864
38993SOL     OW18817  11.273  13.487   5.855
38993SOL    HW118818  11.310  13.407   5.892
38993SOL    HW218819  11.210  13.456   5.790
38994SOL     OW18820   0.449   2.287  12.213
38994SOL    HW118821   0.355   2.282  12.234
38994SOL    HW218822   0.488   2.334  12.286
38995SOL     OW18823   9.044  14.022   4.027
38995SOL    HW118824   8.979  14.011   4.096
38995SOL    HW218825   9.002  13.987   3.949
38996SOL     OW18826   9.220  11.154  14.148
38996SOL    HW118827   9.207  11.196  14.233
38996SOL    HW218828   9.203  11.223  14.084
38997SOL     OW18829   7.949   7.050  11.865
38997SOL    HW118830   7.894   7.011  11.797
38997SOL    HW218831   7.902   7.033  11.947
38998SOL     OW18832   5.138   8.956   8.834
38998SOL    HW118833   5.046   8.933   8.822
38998SOL    HW218834   5.158   8.928   8.924
38999SOL     OW18835   9.039  10.586  14.419
38999SOL    HW118836   9.109  10.521  14.432
38999SOL    HW218837   9.050  10.615  14.329
39000SOL     OW18838   0.462  13.567   2.467
39000SOL    HW118839   0.484  13.639   2.408
39000SOL    HW218840   0.541  13.553   2.518
39001SOL     OW18841  14.718   8.068   3.835
39001SOL    HW118842  14.769   7.988   3.849
39001SOL    HW218843  14.782   8.138   3.836
39002SOL     OW18844  11.475  10.427   6.610
39002SOL    HW118845  11.426  10.445   6.530
39002SOL    HW218846  11.439  10.346   6.643
39003SOL     OW18847   7.212   8.618   6.147
39003SOL    HW118848   7.166   8.584   6.223
39003SOL    HW218849   7.301   8.636   6.179
39004SOL     OW18850   9.410  14.842  11.563
39004SOL    HW118851   9.492  14.861  11.609
39004SOL    HW218852   9.343  14.854  11.629
39005SOL     OW18853   0.143   4.810   5.597
39005SOL    HW118854   0.055   4.808   5.559
39005SOL    HW218855   0.129   4.834   5.689
39006SOL     OW18856  10.182  10.703   8.941
39006SOL    HW118857  10.202  10.650   9.018
39006SOL    HW218858  10.195  10.793   8.969
39007SOL     OW18859   6.470   8.065   0.659
39007SOL    HW118860   6.520   8.058   0.578
39007SOL    HW218861   6.395   8.120   0.636
39008SOL     OW18862   1.466   1.988   3.046
39008SOL    HW118863   1.505   1.932   2.980
39008SOL    HW218864   1.516   2.069   3.042
39009SOL     OW18865   3.289   6.894   1.340
39009SOL    HW118866   3.281   6.842   1.420
39009SOL    HW218867   3.335   6.973   1.366
39010SOL     OW18868  12.992   9.262  10.491
39010SOL    HW118869  12.927   9.324  10.460
39010SOL    HW218870  12.941   9.186  10.520
39011SOL     OW18871  10.550  13.992  13.909
39011SOL    HW118872  10.474  13.957  13.956
39011SOL    HW218873  10.540  13.960  13.820
39012SOL     OW18874   7.626   2.752  13.608
39012SOL    HW118875   7.712   2.740  13.568
39012SOL    HW218876   7.635   2.714  13.696
39013SOL     OW18877   3.681  12.070   1.124
39013SOL    HW118878   3.753  12.037   1.070
39013SOL    HW218879   3.723  12.120   1.193
39014SOL     OW18880   9.065  13.121  12.792
39014SOL    HW118881   9.039  13.103  12.883
39014SOL    HW218882   9.099  13.037  12.759
39015SOL     OW18883   0.549  13.466  10.791
39015SOL    HW118884   0.572  13.403  10.859
39015SOL    HW218885   0.555  13.551  10.834
39016SOL     OW18886   0.161   4.037   2.482
39016SOL    HW118887   0.105   4.109   2.453
39016SOL    HW218888   0.099   3.966   2.503
39017SOL     OW18889  10.851   5.154  14.156
39017SOL    HW118890  10.901   5.235  14.155
39017SOL    HW218891  10.809   5.150  14.070
39018SOL     OW18892  10.288  10.874   6.965
39018SOL    HW118893  10.202  10.915   6.970
39018SOL    HW218894  10.316  10.865   7.056
39019SOL     OW18895   8.692   2.616  14.683
39019SOL    HW118896   8.752   2.559  14.731
39019SOL    HW218897   8.623   2.637  14.747
39020SOL     OW18898   0.668   9.756  12.166
39020SOL    HW118899   0.713   9.828  12.211
39020SOL    HW218900   0.692   9.767  12.074
39021SOL     OW18901   3.958   1.094  14.577
39021SOL    HW118902   3.877   1.098  14.627
39021SOL    HW218903   3.991   1.184  14.578
39022SOL     OW18904   9.955   8.183  11.713
39022SOL    HW118905   9.860   8.173  11.717
39022SOL    HW218906   9.977   8.158  11.623
39023SOL     OW18907   9.729  11.852   3.361
39023SOL    HW118908   9.642  11.812   3.371
39023SOL    HW218909   9.776  11.791   3.303
39024SOL     OW18910  12.466  12.313   4.328
39024SOL    HW118911  12.481  12.225   4.361
39024SOL    HW218912  12.446  12.301   4.235
39025SOL     OW18913   7.941  11.055  13.978
39025SOL    HW118914   7.991  11.029  14.056
39025SOL    HW218915   7.922  10.972  13.934
39026SOL     OW18916   7.224   7.912   8.797
39026SOL    HW118917   7.311   7.913   8.837
39026SOL    HW218918   7.204   8.004   8.781
39027SOL     OW18919   7.616   7.284  11.952
39027SOL    HW118920   7.630   7.274  12.046
39027SOL    HW218921   7.637   7.198  11.915
39028SOL     OW18922   9.098   7.482   0.514
39028SOL    HW118923   9.059   7.488   0.601
39028SOL    HW218924   9.087   7.390   0.489
39029SOL     OW18925   4.195  13.054   2.422
39029SOL    HW118926   4.253  13.058   2.498
39029SOL    HW218927   4.224  12.976   2.374
39030SOL     OW18928   9.902   9.808   5.763
39030SOL    HW118929   9.842   9.878   5.790
39030SOL    HW218930   9.913   9.754   5.841
39031SOL     OW18931  11.362  11.609   2.960
39031SOL    HW118932  11.453  11.599   2.987
39031SOL    HW218933  11.321  11.527   2.986
39032SOL     OW18934   5.368   3.317  13.327
39032SOL    HW118935   5.320   3.307  13.409
39032SOL    HW218936   5.399   3.229  13.306
39033SOL     OW18937   9.987   6.455   1.272
39033SOL    HW118938   9.924   6.521   1.244
39033SOL    HW218939   9.958   6.429   1.359
39034SOL     OW18940   0.422   9.235  12.578
39034SOL    HW118941   0.408   9.301  12.645
39034SOL    HW218942   0.477   9.169  12.620
39035SOL     OW18943  12.551   5.938  11.764
39035SOL    HW118944  12.521   6.029  11.763
39035SOL    HW218945  12.508   5.899  11.840
39036SOL     OW18946   8.116   5.093   6.764
39036SOL    HW118947   8.211   5.091   6.776
39036SOL    HW218948   8.088   5.003   6.777
39037SOL     OW18949   5.017   0.862  13.903
39037SOL    HW118950   4.931   0.901  13.923
39037SOL    HW218951   5.006   0.823  13.817
39038SOL     OW18952   4.731   7.751   7.311
39038SOL    HW118953   4.789   7.750   7.235
39038SOL    HW218954   4.652   7.707   7.281
39039SOL     OW18955  13.839  14.365  12.621
39039SOL    HW118956  13.836  14.292  12.559
39039SOL    HW218957  13.922  14.354  12.667
39040SOL     OW18958   1.869   8.135   2.793
39040SOL    HW118959   1.923   8.084   2.732
39040SOL    HW218960   1.784   8.141   2.749
39041SOL     OW18961   6.922   5.989   4.098
39041SOL    HW118962   7.004   5.942   4.088
39041SOL    HW218963   6.856   5.920   4.112
39042SOL     OW18964  14.678  10.826  10.600
39042SOL    HW118965  14.754  10.885  10.606
39042SOL    HW218966  14.680  10.777  10.682
39043SOL     OW18967   1.625   8.444   2.532
39043SOL    HW118968   1.661   8.532   2.523
39043SOL    HW218969   1.572   8.448   2.612
39044SOL     OW18970  11.434  13.977   0.255
39044SOL    HW118971  11.446  13.882   0.263
39044SOL    HW218972  11.368  13.988   0.187
39045SOL     OW18973   2.400  12.915   5.190
39045SOL    HW118974   2.467  12.972   5.152
39045SOL    HW218975   2.318  12.963   5.176
39046SOL     OW18976   3.067   8.606   4.814
39046SOL    HW118977   3.014   8.673   4.771
39046SOL    HW218978   3.004   8.541   4.844
39047SOL     OW18979   9.926   2.737  13.973
39047SOL    HW118980   9.886   2.666  13.922
39047SOL    HW218981   9.948   2.803  13.907
39048SOL     OW18982   3.154   9.160  10.453
39048SOL    HW118983   3.182   9.153  10.544
39048SOL    HW218984   3.230   9.194  10.407
39049SOL     OW18985  13.486   1.358  14.746
39049SOL    HW118986  13.451   1.276  14.711
39049SOL    HW218987  13.433   1.375  14.824
39050SOL     OW18988  11.488   9.660   3.608
39050SOL    HW118989  11.483   9.632   3.517
39050SOL    HW218990  11.401   9.693   3.628
39051SOL     OW18991   9.778   8.104   6.529
39051SOL    HW118992   9.866   8.133   6.505
39051SOL    HW218993   9.724   8.126   6.453
39052SOL     OW18994   4.669   4.654  12.153
39052SOL    HW118995   4.697   4.732  12.104
39052SOL    HW218996   4.590   4.682  12.199
39053SOL     OW18997  10.489   6.905   0.402
39053SOL    HW118998  10.535   6.929   0.482
39053SOL    HW218999  10.423   6.974   0.390
39054SOL     OW19000   0.045   2.749   9.954
39054SOL    HW119001  14.852   2.702   9.992
39054SOL    HW219002   0.084   2.796  10.027
39055SOL     OW19003   7.275   5.012  13.730
39055SOL    HW119004   7.218   5.087  13.711
39055SOL    HW219005   7.215   4.938  13.740
39056SOL     OW19006  13.034   8.813   7.286
39056SOL    HW119007  13.016   8.747   7.353
39056SOL    HW219008  13.114   8.856   7.316
39057SOL     OW19009  13.090  13.476   5.339
39057SOL    HW119010  12.999  13.498   5.318
39057SOL    HW219011  13.139  13.555   5.319
39058SOL     OW19012  10.473   4.045  12.118
39058SOL    HW119013  10.409   4.051  12.047
39058SOL    HW219014  10.545   3.995  12.079
39059SOL     OW19015   9.650   3.422   3.721
39059SOL    HW119016   9.696   3.355   3.771
39059SOL    HW219017   9.565   3.382   3.699
39060SOL     OW19018   5.525   4.650   8.339
39060SOL    HW119019   5.542   4.694   8.256
39060SOL    HW219020   5.501   4.720   8.399
39061SOL     OW19021   0.608   5.425   3.971
39061SOL    HW119022   0.570   5.464   4.050
39061SOL    HW219023   0.556   5.461   3.899
39062SOL     OW19024  11.252   9.671  12.311
39062SOL    HW119025  11.164   9.706  12.297
39062SOL    HW219026  11.240   9.599  12.373
39063SOL     OW19027   8.532  13.142   2.887
39063SOL    HW119028   8.447  13.157   2.845
39063SOL    HW219029   8.515  13.153   2.980
39064SOL     OW19030   7.969   7.029  12.608
39064SOL    HW119031   8.026   6.976  12.663
39064SOL    HW219032   7.962   7.113  12.654
39065SOL     OW19033   4.546   4.651   2.179
39065SOL    HW119034   4.475   4.587   2.188
39065SOL    HW219035   4.597   4.620   2.104
39066SOL     OW19036   7.104   4.983  11.784
39066SOL    HW119037   7.066   4.899  11.809
39066SOL    HW219038   7.098   4.985  11.689
39067SOL     OW19039  11.658   9.979   2.882
39067SOL    HW119040  11.588   9.948   2.824
39067SOL    HW219041  11.703   9.899   2.909
39068SOL     OW19042   5.471   2.903   3.995
39068SOL    HW119043   5.409   2.969   3.964
39068SOL    HW219044   5.535   2.953   4.046
39069SOL     OW19045   0.212   0.219  11.489
39069SOL    HW119046   0.275   0.196  11.421
39069SOL    HW219047   0.166   0.138  11.508
39070SOL     OW19048   3.375   4.189   0.112
39070SOL    HW119049   3.428   4.254   0.066
39070SOL    HW219050   3.419   4.176   0.195
39071SOL     OW19051   8.812  11.206   3.976
39071SOL    HW119052   8.908  11.199   3.977
39071SOL    HW219053   8.795  11.300   3.969
39072SOL     OW19054   3.172  12.769   2.244
39072SOL    HW119055   3.212  12.766   2.157
39072SOL    HW219056   3.229  12.716   2.299
39073SOL     OW19057  11.219   6.239  11.594
39073SOL    HW119058  11.306   6.274  11.613
39073SOL    HW219059  11.173   6.242  11.678
39074SOL     OW19060  12.504   4.574   6.170
39074SOL    HW119061  12.542   4.540   6.250
39074SOL    HW219062  12.522   4.668   6.173
39075SOL     OW19063   8.053   6.051   2.522
39075SOL    HW119064   8.120   6.115   2.548
39075SOL    HW219065   8.091   5.966   2.545
39076SOL     OW19066   0.998   0.145   7.274
39076SOL    HW119067   1.017   0.052   7.288
39076SOL    HW219068   1.063   0.172   7.209
39077SOL     OW19069  12.613   1.810  11.133
39077SOL    HW119070  12.611   1.807  11.228
39077SOL    HW219071  12.579   1.897  11.111
39078SOL     OW19072  11.472   3.816   8.888
39078SOL    HW119073  11.530   3.765   8.944
39078SOL    HW219074  11.480   3.775   8.802
39079SOL     OW19075  13.023  13.068   8.247
39079SOL    HW119076  12.942  13.118   8.256
39079SOL    HW219077  13.060  13.096   8.163
39080SOL     OW19078  10.736  11.468   0.455
39080SOL    HW119079  10.761  11.520   0.531
39080SOL    HW219080  10.710  11.384   0.492
39081SOL     OW19081   6.409   9.024   2.326
39081SOL    HW119082   6.373   9.112   2.314
39081SOL    HW219083   6.499   9.030   2.294
39082SOL     OW19084  11.509  12.546   6.656
39082SOL    HW119085  11.435  12.529   6.597
39082SOL    HW219086  11.550  12.460   6.669
39083SOL     OW19087   3.191   3.328  14.571
39083SOL    HW119088   3.096   3.329  14.583
39083SOL    HW219089   3.206   3.269  14.497
39084SOL     OW19090   9.467  12.897   4.067
39084SOL    HW119091   9.414  12.849   4.003
39084SOL    HW219092   9.555  12.897   4.030
39085SOL     OW19093  14.632   5.680   5.239
39085SOL    HW119094  14.612   5.595   5.278
39085SOL    HW219095  14.688   5.660   5.164
39086SOL     OW19096  14.735  10.336   3.809
39086SOL    HW119097  14.680  10.393   3.755
39086SOL    HW219098  14.675  10.267   3.839
39087SOL     OW19099   8.690   2.291   4.354
39087SOL    HW119100   8.663   2.234   4.426
39087SOL    HW219101   8.626   2.274   4.284
39088SOL     OW19102   2.059   9.064  14.617
39088SOL    HW119103   2.041   8.972  14.597
39088SOL    HW219104   2.138   9.061  14.671
39089SOL     OW19105  13.576   3.024   8.002
39089SOL    HW119106  13.532   2.939   7.997
39089SOL    HW219107  13.658   3.011   7.953
39090SOL     OW19108   0.630  10.507   4.563
39090SOL    HW119109   0.558  10.565   4.587
39090SOL    HW219110   0.704  10.537   4.615
39091SOL     OW19111   6.623   4.618   9.955
39091SOL    HW119112   6.608   4.659  10.041
39091SOL    HW219113   6.569   4.670   9.895
39092SOL     OW19114   5.151   8.254  13.250
39092SOL    HW119115   5.091   8.193  13.205
39092SOL    HW219116   5.144   8.335  13.200
39093SOL     OW19117   1.238   7.290  12.714
39093SOL    HW119118   1.148   7.282  12.746
39093SOL    HW219119   1.292   7.258  12.786
39094SOL     OW19120  12.969   9.507  10.779
39094SOL    HW119121  12.897   9.558  10.816
39094SOL    HW219122  12.961   9.421  10.821
39095SOL     OW19123   6.486   1.693  12.230
39095SOL    HW119124   6.533   1.635  12.290
39095SOL    HW219125   6.400   1.705  12.272
39096SOL     OW19126   7.954  14.233   6.494
39096SOL    HW119127   7.976  14.313   6.445
39096SOL    HW219128   7.872  14.255   6.539
39097SOL     OW19129   6.596   0.903   2.445
39097SOL    HW119130   6.675   0.863   2.410
39097SOL    HW219131   6.623   0.992   2.467
39098SOL     OW19132  12.269   3.733   8.544
39098SOL    HW119133  12.278   3.643   8.514
39098SOL    HW219134  12.222   3.726   8.627
39099SOL     OW19135   2.972  12.682   2.413
39099SOL    HW119136   3.019  12.607   2.449
39099SOL    HW219137   3.031  12.717   2.345
39100SOL     OW19138  11.944   8.649   6.323
39100SOL    HW119139  11.961   8.701   6.244
39100SOL    HW219140  11.946   8.558   6.293
39101SOL     OW19141   2.983  11.952   4.746
39101SOL    HW119142   3.055  11.896   4.718
39101SOL    HW219143   3.006  11.978   4.835
39102SOL     OW19144   2.480   1.494   0.999
39102SOL    HW119145   2.554   1.548   0.971
39102SOL    HW219146   2.406   1.555   1.003
39103SOL     OW19147  12.939  12.142   6.233
39103SOL    HW119148  13.001  12.209   6.206
39103SOL    HW219149  12.962  12.124   6.324
39104SOL     OW19150   7.028   9.854  13.156
39104SOL    HW119151   7.070   9.773  13.129
39104SOL    HW219152   7.041   9.914  13.083
39105SOL     OW19153   1.473  11.870   0.531
39105SOL    HW119154   1.568  11.877   0.523
39105SOL    HW219155   1.458  11.782   0.564
39106SOL     OW19156   4.397  12.718  12.926
39106SOL    HW119157   4.455  12.647  12.901
39106SOL    HW219158   4.422  12.791  12.870
39107SOL     OW19159   4.679  11.326   1.286
39107SOL    HW119160   4.773  11.319   1.271
39107SOL    HW219161   4.667  11.411   1.328
39108SOL     OW19162   1.671   9.054  11.136
39108SOL    HW119163   1.707   9.115  11.200
39108SOL    HW219164   1.670   9.103  11.053
39109SOL     OW19165   7.474  13.616  11.519
39109SOL    HW119166   7.483  13.694  11.575
39109SOL    HW219167   7.557  13.569  11.530
39110SOL     OW19168   1.476  11.506   7.241
39110SOL    HW119169   1.423  11.433   7.272
39110SOL    HW219170   1.566  11.478   7.254
39111SOL     OW19171   9.087  10.469  13.011
39111SOL    HW119172   9.137  10.421  13.077
39111SOL    HW219173   9.004  10.422  13.004
39112SOL     OW19174   0.780  10.399  11.158
39112SOL    HW119175   0.724  10.332  11.120
39112SOL    HW219176   0.761  10.478  11.108
39113SOL     OW19177   5.375   0.067   6.287
39113SOL    HW119178   5.407   0.032   6.370
39113SOL    HW219179   5.352  14.871   6.236
39114SOL     OW19180   1.556   1.618  14.795
39114SOL    HW119181   1.577   1.543  14.849
39114SOL    HW219182   1.578   1.694  14.849
39115SOL     OW19183   2.609   1.533  12.481
39115SOL    HW119184   2.578   1.517  12.570
39115SOL    HW219185   2.693   1.488  12.477
39116SOL     OW19186   9.070   0.202  12.332
39116SOL    HW119187   9.057   0.154  12.250
39116SOL    HW219188   9.147   0.257  12.315
39117SOL     OW19189  11.253  10.486   7.293
39117SOL    HW119190  11.252  10.415   7.228
39117SOL    HW219191  11.184  10.463   7.355
39118SOL     OW19192  13.429   0.016   6.515
39118SOL    HW119193  13.419   0.099   6.561
39118SOL    HW219194  13.524   0.003   6.509
39119SOL     OW19195  10.214   1.135  11.840
39119SOL    HW119196  10.144   1.149  11.776
39119SOL    HW219197  10.180   1.065  11.896
39120SOL     OW19198   1.456   2.518   2.128
39120SOL    HW119199   1.400   2.472   2.190
39120SOL    HW219200   1.541   2.476   2.136
39121SOL     OW19201  12.619  14.049   3.940
39121SOL    HW119202  12.692  14.033   3.999
39121SOL    HW219203  12.652  14.112   3.876
39122SOL     OW19204   9.896   6.087   0.925
39122SOL    HW119205   9.918   6.168   0.880
39122SOL    HW219206   9.875   6.025   0.855
39123SOL     OW19207  10.993   8.276  14.761
39123SOL    HW119208  10.965   8.240  14.845
39123SOL    HW219209  11.070   8.224  14.737
39124SOL     OW19210  11.662  14.497   7.411
39124SOL    HW119211  11.622  14.430   7.356
39124SOL    HW219212  11.700  14.448   7.485
39125SOL     OW19213   0.619  12.507  11.448
39125SOL    HW119214   0.670  12.475  11.523
39125SOL    HW219215   0.684  12.515  11.378
39126SOL     OW19216  11.812  12.030   2.320
39126SOL    HW119217  11.723  12.055   2.297
39126SOL    HW219218  11.807  12.007   2.413
39127SOL     OW19219  11.332   9.515  11.306
39127SOL    HW119220  11.327   9.607  11.283
39127SOL    HW219221  11.420   9.488  11.281
39128SOL     OW19222  11.637   4.798   0.807
39128SOL    HW119223  11.626   4.892   0.794
39128SOL    HW219224  11.677   4.768   0.725
39129SOL     OW19225  10.781  14.574   5.849
39129SOL    HW119226  10.859  14.530   5.813
39129SOL    HW219227  10.720  14.578   5.775
39130SOL     OW19228   4.597   9.735   2.796
39130SOL    HW119229   4.665   9.685   2.840
39130SOL    HW219230   4.516   9.709   2.841
39131SOL     OW19231   9.776   2.009  10.859
39131SOL    HW119232   9.684   2.034  10.866
39131SOL    HW219233   9.817   2.048  10.937
39132SOL     OW19234   5.137  13.113   1.841
39132SOL    HW119235   5.172  13.111   1.930
39132SOL    HW219236   5.043  13.101   1.852
39133SOL     OW19237  10.220   1.194  13.166
39133SOL    HW119238  10.253   1.265  13.111
39133SOL    HW219239  10.298   1.158  13.208
39134SOL     OW19240   3.134   1.479  11.276
39134SOL    HW119241   3.154   1.388  11.299
39134SOL    HW219242   3.097   1.516  11.356
39135SOL     OW19243   8.740   8.512   8.957
39135SOL    HW119244   8.690   8.539   9.033
39135SOL    HW219245   8.719   8.419   8.945
39136SOL     OW19246   1.158  11.362  11.870
39136SOL    HW119247   1.237  11.415  11.857
39136SOL    HW219248   1.104  11.416  11.928
39137SOL     OW19249   2.289   0.888  12.244
39137SOL    HW119250   2.270   0.963  12.300
39137SOL    HW219251   2.238   0.816  12.282
39138SOL     OW19252   1.681   6.590   4.846
39138SOL    HW119253   1.687   6.519   4.782
39138SOL    HW219254   1.693   6.547   4.931
39139SOL     OW19255   5.355   1.331  12.820
39139SOL    HW119256   5.315   1.324  12.733
39139SOL    HW219257   5.286   1.368  12.875
39140SOL     OW19258   0.203   2.774  12.383
39140SOL    HW119259   0.216   2.773  12.478
39140SOL    HW219260   0.112   2.800  12.371
39141SOL     OW19261   5.829   2.852   5.678
39141SOL    HW119262   5.760   2.829   5.615
39141SOL    HW219263   5.911   2.834   5.632
39142SOL     OW19264  13.823  12.944   6.115
39142SOL    HW119265  13.779  12.932   6.031
39142SOL    HW219266  13.873  13.025   6.104
39143SOL     OW19267   8.442   8.551   3.846
39143SOL    HW119268   8.465   8.529   3.937
39143SOL    HW219269   8.478   8.479   3.795
39144SOL     OW19270  11.850   0.224   9.259
39144SOL    HW119271  11.794   0.294   9.225
39144SOL    HW219272  11.799   0.184   9.330
39145SOL     OW19273  10.231   2.399   9.288
39145SOL    HW119274  10.172   2.365   9.354
39145SOL    HW219275  10.275   2.322   9.252
39146SOL     OW19276  13.766   5.969   2.877
39146SOL    HW119277  13.724   5.925   2.803
39146SOL    HW219278  13.737   5.921   2.954
39147SOL     OW19279  10.364  13.888   7.450
39147SOL    HW119280  10.321  13.924   7.528
39147SOL    HW219281  10.336  13.796   7.448
39148SOL     OW19282  10.315   7.339  12.944
39148SOL    HW119283  10.258   7.309  13.015
39148SOL    HW219284  10.287   7.429  12.927
39149SOL     OW19285   3.603  11.103   2.534
39149SOL    HW119286   3.693  11.136   2.526
39149SOL    HW219287   3.594  11.040   2.463
39150SOL     OW19288  10.782   7.560  11.094
39150SOL    HW119289  10.878   7.553  11.098
39150SOL    HW219290  10.765   7.654  11.104
39151SOL     OW19291   7.795   9.059   9.984
39151SOL    HW119292   7.759   8.974   9.959
39151SOL    HW219293   7.735   9.123   9.943
39152SOL     OW19294   9.860   6.140  12.164
39152SOL    HW119295   9.834   6.197  12.237
39152SOL    HW219296   9.860   6.052  12.200
39153SOL     OW19297   5.392   5.977   9.283
39153SOL    HW119298   5.369   5.885   9.274
39153SOL    HW219299   5.422   5.987   9.373
39154SOL     OW19300   6.433  12.204   9.902
39154SOL    HW119301   6.410  12.118   9.937
39154SOL    HW219302   6.351  12.238   9.867
39155SOL     OW19303  13.518  11.548   8.065
39155SOL    HW119304  13.505  11.474   8.125
39155SOL    HW219305  13.597  11.526   8.017
39156SOL     OW19306  14.651  10.607  12.817
39156SOL    HW119307  14.656  10.679  12.754
39156SOL    HW219308  14.742  10.581  12.830
39157SOL     OW19309   7.788   6.541   2.203
39157SOL    HW119310   7.785   6.551   2.108
39157SOL    HW219311   7.725   6.472   2.222
39158SOL     OW19312   8.443   5.939  13.627
39158SOL    HW119313   8.538   5.926  13.624
39158SOL    HW219314   8.426   6.003  13.558
39159SOL     OW19315  14.153   4.938   5.533
39159SOL    HW119316  14.228   4.971   5.581
39159SOL    HW219317  14.098   5.015   5.519
39160SOL     OW19318   3.931   9.274   3.859
39160SOL    HW119319   3.947   9.288   3.952
39160SOL    HW219320   3.899   9.184   3.854
39161SOL     OW19321   5.790  10.090   1.244
39161SOL    HW119322   5.762  10.163   1.189
39161SOL    HW219323   5.738  10.016   1.214
39162SOL     OW19324   3.285   8.091   3.825
39162SOL    HW119325   3.329   8.062   3.745
39162SOL    HW219326   3.207   8.036   3.830
39163SOL     OW19327   0.820   3.535   4.439
39163SOL    HW119328   0.745   3.549   4.497
39163SOL    HW219329   0.889   3.502   4.496
39164SOL     OW19330   8.015   9.442   6.064
39164SOL    HW119331   7.985   9.387   5.991
39164SOL    HW219332   8.048   9.380   6.128
39165SOL     OW19333  13.078  12.952  10.675
39165SOL    HW119334  13.077  12.938  10.580
39165SOL    HW219335  13.085  13.047  10.686
39166SOL     OW19336  11.122   2.744  14.291
39166SOL    HW119337  11.114   2.782  14.204
39166SOL    HW219338  11.216   2.733  14.304
39167SOL     OW19339   1.305  11.693   4.657
39167SOL    HW119340   1.253  11.728   4.585
39167SOL    HW219341   1.280  11.745   4.733
39168SOL     OW19342  11.550  14.400  10.316
39168SOL    HW119343  11.527  14.445  10.397
39168SOL    HW219344  11.485  14.331  10.308
39169SOL     OW19345   8.805   8.544   1.644
39169SOL    HW119346   8.884   8.530   1.696
39169SOL    HW219347   8.789   8.638   1.649
39170SOL     OW19348   8.736   6.028   7.589
39170SOL    HW119349   8.829   6.007   7.581
39170SOL    HW219350   8.732   6.090   7.661
39171SOL     OW19351   6.627   2.168  10.804
39171SOL    HW119352   6.703   2.207  10.848
39171SOL    HW219353   6.661   2.088  10.764
39172SOL     OW19354  13.358   4.924   3.912
39172SOL    HW119355  13.433   4.881   3.953
39172SOL    HW219356  13.317   4.974   3.982
39173SOL     OW19357   1.957   9.418   5.266
39173SOL    HW119358   1.877   9.409   5.214
39173SOL    HW219359   2.028   9.421   5.202
39174SOL     OW19360   7.638   9.403   3.159
39174SOL    HW119361   7.674   9.452   3.233
39174SOL    HW219362   7.680   9.442   3.082
39175SOL     OW19363  12.600   4.233   3.926
39175SOL    HW119364  12.515   4.269   3.954
39175SOL    HW219365  12.664   4.276   3.982
39176SOL     OW19366   9.989   8.548   5.149
39176SOL    HW119367  10.056   8.598   5.102
39176SOL    HW219368   9.954   8.609   5.214
39177SOL     OW19369   0.185   1.554  10.774
39177SOL    HW119370   0.110   1.496  10.760
39177SOL    HW219371   0.155   1.615  10.841
39178SOL     OW19372   2.439   3.456   7.775
39178SOL    HW119373   2.483   3.540   7.762
39178SOL    HW219374   2.415   3.426   7.688
39179SOL     OW19375   2.699   0.775   4.898
39179SOL    HW119376   2.687   0.787   4.803
39179SOL    HW219377   2.788   0.739   4.905
39180SOL     OW19378   9.940   2.540  14.420
39180SOL    HW119379   9.947   2.528  14.325
39180SOL    HW219380   9.925   2.452  14.454
39181SOL     OW19381  12.595   8.341   8.606
39181SOL    HW119382  12.575   8.286   8.682
39181SOL    HW219383  12.691   8.349   8.607
39182SOL     OW19384  10.707   6.290   7.009
39182SOL    HW119385  10.633   6.246   7.050
39182SOL    HW219386  10.779   6.227   7.016
39183SOL     OW19387   2.632   6.155  14.364
39183SOL    HW119388   2.692   6.087  14.334
39183SOL    HW219389   2.637   6.222  14.295
39184SOL     OW19390   3.565   8.057   4.213
39184SOL    HW119391   3.483   8.012   4.232
39184SOL    HW219392   3.616   8.048   4.293
39185SOL     OW19393   0.620   2.812   3.958
39185SOL    HW119394   0.657   2.751   3.894
39185SOL    HW219395   0.594   2.888   3.907
39186SOL     OW19396  14.765  13.467  11.580
39186SOL    HW119397  14.857  13.448  11.561
39186SOL    HW219398  14.716  13.413  11.519
39187SOL     OW19399   9.460   5.197  11.662
39187SOL    HW119400   9.516   5.143  11.717
39187SOL    HW219401   9.519   5.263  11.625
39188SOL     OW19402  12.131   1.499   2.748
39188SOL    HW119403  12.072   1.446   2.695
39188SOL    HW219404  12.118   1.589   2.716
39189SOL     OW19405   9.846   9.354   4.537
39189SOL    HW119406   9.821   9.370   4.628
39189SOL    HW219407   9.805   9.270   4.516
39190SOL     OW19408   7.525   8.095  13.069
39190SOL    HW119409   7.451   8.123  13.122
39190SOL    HW219410   7.488   8.030  13.009
39191SOL     OW19411   5.014   6.448   8.855
39191SOL    HW119412   5.099   6.475   8.822
39191SOL    HW219413   5.008   6.487   8.942
39192SOL     OW19414  12.064  10.063   4.467
39192SOL    HW119415  12.139  10.120   4.482
39192SOL    HW219416  12.098   9.974   4.480
39193SOL     OW19417  12.362   5.263  11.789
39193SOL    HW119418  12.435   5.252  11.728
39193SOL    HW219419  12.304   5.326  11.746
39194SOL     OW19420   8.201   8.067   0.682
39194SOL    HW119421   8.273   8.005   0.676
39194SOL    HW219422   8.228   8.140   0.626
39195SOL     OW19423   6.978   9.051   9.978
39195SOL    HW119424   6.920   9.124   9.956
39195SOL    HW219425   7.062   9.092   9.997
39196SOL     OW19426   5.615  13.960  12.834
39196SOL    HW119427   5.675  13.988  12.904
39196SOL    HW219428   5.536  13.931  12.880
39197SOL     OW19429  12.349   0.892  10.749
39197SOL    HW119430  12.264   0.869  10.712
39197SOL    HW219431  12.412   0.843  10.696
39198SOL     OW19432  10.483   7.868   2.985
39198SOL    HW119433  10.545   7.841   2.917
39198SOL    HW219434  10.432   7.938   2.945
39199SOL     OW19435   2.789  12.180   2.552
39199SOL    HW119436   2.798  12.089   2.581
39199SOL    HW219437   2.786  12.230   2.633
39200SOL     OW19438   4.488  13.215   5.804
39200SOL    HW119439   4.393  13.204   5.800
39200SOL    HW219440   4.508  13.215   5.897
39201SOL     OW19441  10.266   2.015  12.371
39201SOL    HW119442  10.181   2.024  12.327
39201SOL    HW219443  10.244   1.982  12.459
39202SOL     OW19444   6.736  10.450   8.520
39202SOL    HW119445   6.815  10.471   8.469
39202SOL    HW219446   6.733  10.355   8.522
39203SOL     OW19447   5.803  14.427   2.964
39203SOL    HW119448   5.847  14.423   2.879
39203SOL    HW219449   5.780  14.336   2.983
39204SOL     OW19450  13.909   3.322   1.534
39204SOL    HW119451  13.969   3.354   1.466
39204SOL    HW219452  13.829   3.373   1.522
39205SOL     OW19453  11.589  14.607  12.123
39205SOL    HW119454  11.607  14.567  12.208
39205SOL    HW219455  11.676  14.616  12.083
39206SOL     OW19456   5.335   3.904   2.261
39206SOL    HW119457   5.270   3.856   2.313
39206SOL    HW219458   5.323   3.870   2.172
39207SOL     OW19459   5.630   1.927   8.710
39207SOL    HW119460   5.581   1.846   8.690
39207SOL    HW219461   5.610   1.945   8.802
39208SOL     OW19462   9.825  11.905   1.525
39208SOL    HW119463   9.755  11.928   1.464
39208SOL    HW219464   9.855  11.819   1.495
39209SOL     OW19465   7.384   9.315   1.515
39209SOL    HW119466   7.468   9.343   1.477
39209SOL    HW219467   7.384   9.220   1.506
39210SOL     OW19468  13.625   3.512   8.036
39210SOL    HW119469  13.567   3.453   8.084
39210SOL    HW219470  13.641   3.469   7.952
39211SOL     OW19471   9.681   3.611  11.174
39211SOL    HW119472   9.714   3.607  11.264
39211SOL    HW219473   9.638   3.696  11.168
39212SOL     OW19474   7.850   3.212   0.675
39212SOL    HW119475   7.787   3.140   0.681
39212SOL    HW219476   7.908   3.187   0.603
39213SOL     OW19477   4.872   4.272   4.068
39213SOL    HW119478   4.836   4.354   4.035
39213SOL    HW219479   4.859   4.209   3.996
39214SOL     OW19480   4.016   6.632   3.385
39214SOL    HW119481   3.936   6.584   3.366
39214SOL    HW219482   4.009   6.655   3.478
39215SOL     OW19483   7.055  11.797   9.385
39215SOL    HW119484   7.066  11.714   9.430
39215SOL    HW219485   7.083  11.780   9.296
39216SOL     OW19486   5.472  10.794  11.242
39216SOL    HW119487   5.406  10.859  11.266
39216SOL    HW219488   5.427  10.710  11.252
39217SOL     OW19489  13.340   3.393   5.701
39217SOL    HW119490  13.256   3.433   5.723
39217SOL    HW219491  13.405   3.460   5.720
39218SOL     OW19492  10.924  12.877  11.865
39218SOL    HW119493  10.854  12.917  11.917
39218SOL    HW219494  10.903  12.901  11.775
39219SOL     OW19495   0.262   5.070   8.781
39219SOL    HW119496   0.340   5.035   8.738
39219SOL    HW219497   0.260   5.026   8.867
39220SOL     OW19498  13.359  14.176   9.612
39220SOL    HW119499  13.393  14.252   9.565
39220SOL    HW219500  13.288  14.144   9.556
39221SOL     OW19501  11.938   1.353   1.518
39221SOL    HW119502  11.865   1.301   1.484
39221SOL    HW219503  11.923   1.357   1.612
39222SOL     OW19504  11.381   6.827   2.083
39222SOL    HW119505  11.432   6.773   2.143
39222SOL    HW219506  11.343   6.895   2.138
39223SOL     OW19507   1.174   2.663   9.613
39223SOL    HW119508   1.141   2.710   9.689
39223SOL    HW219509   1.174   2.571   9.638
39224SOL     OW19510   5.535  14.231  11.643
39224SOL    HW119511   5.630  14.239  11.638
39224SOL    HW219512   5.510  14.294  11.711
39225SOL     OW19513   9.164   0.583  14.329
39225SOL    HW119514   9.204   0.586  14.242
39225SOL    HW219515   9.195   0.501  14.367
39226SOL     OW19516  13.418   6.795  11.017
39226SOL    HW119517  13.445   6.738  10.945
39226SOL    HW219518  13.500   6.830  11.051
39227SOL     OW19519  10.926   4.212   9.937
39227SOL    HW119520  10.871   4.150   9.986
39227SOL    HW219521  10.946   4.166   9.856
39228SOL     OW19522  10.920   6.925   5.945
39228SOL    HW119523  10.951   6.847   5.900
39228SOL    HW219524  10.831   6.903   5.973
39229SOL     OW19525   1.810  11.939   1.573
39229SOL    HW119526   1.725  11.946   1.615
39229SOL    HW219527   1.827  11.845   1.568
39230SOL     OW19528   4.545   7.732   4.949
39230SOL    HW119529   4.615   7.754   4.886
39230SOL    HW219530   4.588   7.733   5.034
39231SOL     OW19531   4.747  14.031   0.910
39231SOL    HW119532   4.760  13.955   0.853
39231SOL    HW219533   4.684  14.085   0.863
39232SOL     OW19534  13.392   7.707  14.324
39232SOL    HW119535  13.391   7.789  14.372
39232SOL    HW219536  13.355   7.643  14.384
39233SOL     OW19537   0.384   8.205   9.801
39233SOL    HW119538   0.327   8.191   9.876
39233SOL    HW219539   0.333   8.259   9.741
39234SOL     OW19540   6.277   0.302   1.850
39234SOL    HW119541   6.271   0.392   1.819
39234SOL    HW219542   6.293   0.310   1.944
39235SOL     OW19543   9.863   6.633  14.027
39235SOL    HW119544   9.888   6.707  13.971
39235SOL    HW219545   9.829   6.673  14.107
39236SOL     OW19546   7.201   5.193   8.460
39236SOL    HW119547   7.208   5.275   8.412
39236SOL    HW219548   7.140   5.140   8.409
39237SOL     OW19549   5.975  13.250   8.592
39237SOL    HW119550   5.905  13.296   8.640
39237SOL    HW219551   5.981  13.164   8.634
39238SOL     OW19552   2.458  12.725   0.102
39238SOL    HW119553   2.423  12.641   0.133
39238SOL    HW219554   2.381  12.782   0.100
39239SOL     OW19555   1.146   7.425   8.064
39239SOL    HW119556   1.199   7.346   8.063
39239SOL    HW219557   1.200   7.490   8.109
39240SOL     OW19558   7.405   5.427   4.898
39240SOL    HW119559   7.371   5.454   4.984
39240SOL    HW219560   7.497   5.405   4.914
39241SOL     OW19561   5.888  12.921  13.886
39241SOL    HW119562   5.871  12.932  13.792
39241SOL    HW219563   5.846  12.997  13.926
39242SOL     OW19564   7.830  11.560   0.648
39242SOL    HW119565   7.798  11.591   0.563
39242SOL    HW219566   7.907  11.507   0.627
39243SOL     OW19567  11.050   4.019  11.725
39243SOL    HW119568  10.980   4.026  11.790
39243SOL    HW219569  11.080   4.109  11.711
39244SOL     OW19570   1.778   0.563   7.535
39244SOL    HW119571   1.716   0.585   7.466
39244SOL    HW219572   1.775   0.638   7.594
39245SOL     OW19573   8.889   7.446   6.518
39245SOL    HW119574   8.903   7.540   6.532
39245SOL    HW219575   8.977   7.410   6.506
39246SOL     OW19576  10.177   2.878   6.321
39246SOL    HW119577  10.247   2.920   6.371
39246SOL    HW219578  10.223   2.815   6.265
39247SOL     OW19579   9.351   8.454   5.988
39247SOL    HW119580   9.295   8.478   5.914
39247SOL    HW219581   9.360   8.535   6.038
39248SOL     OW19582  12.756   3.298  10.510
39248SOL    HW119583  12.699   3.376  10.512
39248SOL    HW219584  12.703   3.231  10.468
39249SOL     OW19585   4.857   1.694  13.329
39249SOL    HW119586   4.796   1.631  13.292
39249SOL    HW219587   4.827   1.779  13.296
39250SOL     OW19588  13.894   8.166  14.209
39250SOL    HW119589  13.800   8.161  14.224
39250SOL    HW219590  13.910   8.256  14.182
39251SOL     OW19591   9.134   1.695  14.776
39251SOL    HW119592   9.161   1.609  14.745
39251SOL    HW219593   9.042   1.685  14.800
39252SOL     OW19594   1.744   1.565   3.196
39252SOL    HW119595   1.697   1.577   3.278
39252SOL    HW219596   1.788   1.648   3.180
39253SOL     OW19597   0.380   2.003   5.934
39253SOL    HW119598   0.401   2.081   5.986
39253SOL    HW219599   0.388   1.930   5.996
39254SOL     OW19600  10.582  14.137  11.199
39254SOL    HW119601  10.621  14.062  11.155
39254SOL    HW219602  10.513  14.099  11.255
39255SOL     OW19603   4.165  14.805   5.391
39255SOL    HW119604   4.114  14.871   5.345
39255SOL    HW219605   4.234  14.854   5.436
39256SOL     OW19606   0.572   4.469   7.583
39256SOL    HW119607   0.655   4.502   7.548
39256SOL    HW219608   0.513   4.545   7.581
39257SOL     OW19609   9.387   7.782   9.077
39257SOL    HW119610   9.352   7.720   9.141
39257SOL    HW219611   9.362   7.868   9.110
39258SOL     OW19612  11.554   2.368   3.078
39258SOL    HW119613  11.527   2.328   2.995
39258SOL    HW219614  11.534   2.302   3.144
39259SOL     OW19615   8.830   1.655   5.056
39259SOL    HW119616   8.840   1.667   4.961
39259SOL    HW219617   8.840   1.744   5.092
39260SOL     OW19618  14.799   6.919  11.356
39260SOL    HW119619  14.863   6.924  11.285
39260SOL    HW219620  14.716   6.944  11.316
39261SOL     OW19621   2.640   8.590   2.627
39261SOL    HW119622   2.570   8.547   2.578
39261SOL    HW219623   2.712   8.598   2.564
39262SOL     OW19624   9.898   0.311  13.950
39262SOL    HW119625   9.987   0.280  13.936
39262SOL    HW219626   9.905   0.406  13.952
39263SOL     OW19627   1.903   9.597   4.080
39263SOL    HW119628   1.914   9.565   3.990
39263SOL    HW219629   1.897   9.519   4.134
39264SOL     OW19630   1.158   2.501   0.304
39264SOL    HW119631   1.150   2.505   0.209
39264SOL    HW219632   1.092   2.437   0.331
39265SOL     OW19633   9.964   2.083   9.342
39265SOL    HW119634   9.870   2.067   9.348
39265SOL    HW219635   9.994   2.025   9.272
39266SOL     OW19636   3.495   7.076   8.087
39266SOL    HW119637   3.487   7.092   8.181
39266SOL    HW219638   3.406   7.057   8.058
39267SOL     OW19639  10.970   9.542   7.059
39267SOL    HW119640  10.885   9.527   7.017
39267SOL    HW219641  10.999   9.455   7.086
39268SOL     OW19642   7.719  13.865   2.047
39268SOL    HW119643   7.770  13.811   2.107
39268SOL    HW219644   7.641  13.890   2.098
39269SOL     OW19645   2.838  11.278   2.926
39269SOL    HW119646   2.911  11.247   2.979
39269SOL    HW219647   2.761  11.240   2.966
39270SOL     OW19648   2.421   4.790  11.227
39270SOL    HW119649   2.464   4.872  11.206
39270SOL    HW219650   2.485   4.743  11.282
39271SOL     OW19651  10.300  12.987  11.116
39271SOL    HW119652  10.361  12.962  11.047
39271SOL    HW219653  10.354  13.032  11.181
39272SOL     OW19654   8.320  11.407   7.695
39272SOL    HW119655   8.333  11.439   7.785
39272SOL    HW219656   8.270  11.476   7.652
39273SOL     OW19657  14.179   5.426   8.061
39273SOL    HW119658  14.185   5.473   7.978
39273SOL    HW219659  14.089   5.443   8.091
39274SOL     OW19660   7.877  13.738  11.349
39274SOL    HW119661   7.955  13.792  11.365
39274SOL    HW219662   7.910  13.648  11.348
39275SOL     OW19663   0.076   1.882  11.639
39275SOL    HW119664   0.002   1.915  11.691
39275SOL    HW219665   0.154   1.918  11.682
39276SOL     OW19666   1.231   7.352   3.560
39276SOL    HW119667   1.322   7.376   3.539
39276SOL    HW219668   1.201   7.301   3.485
39277SOL     OW19669  13.216   4.587  13.351
39277SOL    HW119670  13.193   4.673  13.316
39277SOL    HW219671  13.176   4.585  13.438
39278SOL     OW19672  10.664   4.631  13.723
39278SOL    HW119673  10.615   4.555  13.756
39278SOL    HW219674  10.756   4.608  13.734
39279SOL     OW19675   7.681  11.840   8.457
39279SOL    HW119676   7.702  11.884   8.375
39279SOL    HW219677   7.600  11.880   8.487
39280SOL     OW19678  12.363  12.770   7.956
39280SOL    HW119679  12.397  12.859   7.945
39280SOL    HW219680  12.420  12.731   8.022
39281SOL     OW19681   0.954   6.228   8.824
39281SOL    HW119682   0.947   6.135   8.844
39281SOL    HW219683   1.047   6.242   8.806
39282SOL     OW19684   2.792   8.185   2.697
39282SOL    HW119685   2.846   8.264   2.690
39282SOL    HW219686   2.831   8.124   2.635
39283SOL     OW19687   2.481  14.010   4.466
39283SOL    HW119688   2.480  14.065   4.544
39283SOL    HW219689   2.412  13.946   4.480
39284SOL     OW19690   8.771   3.902   5.044
39284SOL    HW119691   8.853   3.851   5.046
39284SOL    HW219692   8.739   3.899   5.134
39285SOL     OW19693   3.628  10.857   5.049
39285SOL    HW119694   3.723  10.848   5.037
39285SOL    HW219695   3.616  10.864   5.143
39286SOL     OW19696   9.591  14.248  13.713
39286SOL    HW119697   9.569  14.305  13.639
39286SOL    HW219698   9.681  14.271  13.735
39287SOL     OW19699   8.916   2.920  14.106
39287SOL    HW119700   8.869   2.939  14.025
39287SOL    HW219701   9.008   2.912  14.078
39288SOL     OW19702   9.915   9.144  10.574
39288SOL    HW119703   9.831   9.098  10.576
39288SOL    HW219704   9.979   9.080  10.606
39289SOL     OW19705   2.537   0.054   0.059
39289SOL    HW119706   2.586  14.855   0.077
39289SOL    HW219707   2.581   0.093  14.866
39290SOL     OW19708   9.234   1.999  10.775
39290SOL    HW119709   9.217   1.936  10.705
39290SOL    HW219710   9.172   2.070  10.759
39291SOL     OW19711   9.754  12.084   7.376
39291SOL    HW119712   9.762  12.170   7.335
39291SOL    HW219713   9.763  12.101   7.470
39292SOL     OW19714   6.074  10.803  12.653
39292SOL    HW119715   6.021  10.774  12.727
39292SOL    HW219716   6.029  10.882  12.621
39293SOL     OW19717   4.573   3.580   0.835
39293SOL    HW119718   4.482   3.573   0.805
39293SOL    HW219719   4.607   3.657   0.790
39294SOL     OW19720   4.927   8.556  12.183
39294SOL    HW119721   4.880   8.502  12.119
39294SOL    HW219722   4.886   8.535  12.267
39295SOL     OW19723   6.495   5.784   4.175
39295SOL    HW119724   6.508   5.857   4.236
39295SOL    HW219725   6.445   5.720   4.226
39296SOL     OW19726  14.641  14.802  12.978
39296SOL    HW119727  14.636   0.012  12.953
39296SOL    HW219728  14.621  14.754  12.898
39297SOL     OW19729   8.094   7.162  11.371
39297SOL    HW119730   8.074   7.244  11.326
39297SOL    HW219731   8.012   7.111  11.366
39298SOL     OW19732  11.182   8.771  11.885
39298SOL    HW119733  11.152   8.845  11.938
39298SOL    HW219734  11.272   8.756  11.915
39299SOL     OW19735  13.241   9.683   7.008
39299SOL    HW119736  13.255   9.739   7.084
39299SOL    HW219737  13.327   9.677   6.966
39300SOL     OW19738  14.348  13.426   7.292
39300SOL    HW119739  14.427  13.434   7.345
39300SOL    HW219740  14.376  13.443   7.203
39301SOL     OW19741   8.667  12.150  10.165
39301SOL    HW119742   8.602  12.165  10.234
39301SOL    HW219743   8.628  12.084  10.108
39302SOL     OW19744  12.682  12.967   1.526
39302SOL    HW119745  12.599  12.921   1.540
39302SOL    HW219746  12.685  12.981   1.431
39303SOL     OW19747   3.315   0.768   9.094
39303SOL    HW119748   3.340   0.855   9.063
39303SOL    HW219749   3.272   0.727   9.019
39304SOL     OW19750   7.391   7.523  13.715
39304SOL    HW119751   7.357   7.567  13.637
39304SOL    HW219752   7.481   7.553  13.723
39305SOL     OW19753   6.764   9.104   8.947
39305SOL    HW119754   6.779   9.087   9.040
39305SOL    HW219755   6.758   9.199   8.940
39306SOL     OW19756   5.472   7.036   9.904
39306SOL    HW119757   5.475   6.942   9.921
39306SOL    HW219758   5.520   7.047   9.821
39307SOL     OW19759   5.574   8.331   7.382
39307SOL    HW119760   5.622   8.414   7.377
39307SOL    HW219761   5.629   8.269   7.336
39308SOL     OW19762  12.820  11.522   7.537
39308SOL    HW119763  12.830  11.431   7.509
39308SOL    HW219764  12.808  11.516   7.632
39309SOL     OW19765   1.626   1.280   9.794
39309SOL    HW119766   1.707   1.330   9.782
39309SOL    HW219767   1.654   1.188   9.798
39310SOL     OW19768   3.087  10.491  12.438
39310SOL    HW119769   3.089  10.587  12.433
39310SOL    HW219770   3.013  10.466  12.383
39311SOL     OW19771   2.008   2.076  12.370
39311SOL    HW119772   2.039   2.164  12.392
39311SOL    HW219773   1.921   2.090  12.333
39312SOL     OW19774  13.749  10.894  11.009
39312SOL    HW119775  13.813  10.957  11.043
39312SOL    HW219776  13.674  10.948  10.983
39313SOL     OW19777   2.296  11.674   9.189
39313SOL    HW119778   2.373  11.620   9.210
39313SOL    HW219779   2.246  11.620   9.127
39314SOL     OW19780   2.811  14.070  12.648
39314SOL    HW119781   2.881  14.079  12.583
39314SOL    HW219782   2.856  14.074  12.732
39315SOL     OW19783   8.385  11.209   6.726
39315SOL    HW119784   8.299  11.232   6.690
39315SOL    HW219785   8.366  11.150   6.799
39316SOL     OW19786   0.564   1.076   7.147
39316SOL    HW119787   0.656   1.066   7.173
39316SOL    HW219788   0.564   1.150   7.086
39317SOL     OW19789   3.073   5.940  13.547
39317SOL    HW119790   2.995   5.976  13.504
39317SOL    HW219791   3.122   5.898  13.476
39318SOL     OW19792  14.682   5.732   6.144
39318SOL    HW119793  14.603   5.678   6.142
39318SOL    HW219794  14.664   5.800   6.208
39319SOL     OW19795  13.768  13.111   3.397
39319SOL    HW119796  13.707  13.086   3.467
39319SOL    HW219797  13.846  13.058   3.413
39320SOL     OW19798   4.941   2.765   0.714
39320SOL    HW119799   4.919   2.798   0.801
39320SOL    HW219800   4.908   2.833   0.654
39321SOL     OW19801   8.543  14.652   5.162
39321SOL    HW119802   8.479  14.668   5.231
39321SOL    HW219803   8.628  14.654   5.206
39322SOL     OW19804   8.295  10.498   0.932
39322SOL    HW119805   8.229  10.433   0.957
39322SOL    HW219806   8.255  10.582   0.955
39323SOL     OW19807   8.368   4.616  13.581
39323SOL    HW119808   8.306   4.597  13.652
39323SOL    HW219809   8.454   4.607  13.622
39324SOL     OW19810   7.605   1.134   3.304
39324SOL    HW119811   7.656   1.147   3.383
39324SOL    HW219812   7.655   1.072   3.252
39325SOL     OW19813   3.322  12.529   9.383
39325SOL    HW119814   3.275  12.462   9.433
39325SOL    HW219815   3.415  12.505   9.392
39326SOL     OW19816  10.504   0.335   8.637
39326SOL    HW119817  10.463   0.421   8.624
39326SOL    HW219818  10.533   0.309   8.550
39327SOL     OW19819  12.231   1.938  10.904
39327SOL    HW119820  12.146   1.968  10.872
39327SOL    HW219821  12.283   2.018  10.911
39328SOL     OW19822   6.408  14.631   2.886
39328SOL    HW119823   6.476  14.691   2.855
39328SOL    HW219824   6.370  14.675   2.962
39329SOL     OW19825  10.941   9.049   7.775
39329SOL    HW119826  11.026   9.089   7.756
39329SOL    HW219827  10.888   9.121   7.809
39330SOL     OW19828   6.070   8.166   4.567
39330SOL    HW119829   6.108   8.170   4.479
39330SOL    HW219830   6.076   8.255   4.600
39331SOL     OW19831   3.171  14.052  13.930
39331SOL    HW119832   3.179  14.146  13.950
39331SOL    HW219833   3.116  14.017  14.000
39332SOL     OW19834   8.403   6.887   3.376
39332SOL    HW119835   8.439   6.896   3.287
39332SOL    HW219836   8.368   6.798   3.378
39333SOL     OW19837   6.286   8.000   9.750
39333SOL    HW119838   6.262   7.931   9.812
39333SOL    HW219839   6.230   7.984   9.674
39334SOL     OW19840  10.641   2.907   9.251
39334SOL    HW119841  10.649   2.846   9.324
39334SOL    HW219842  10.652   2.852   9.173
39335SOL     OW19843   5.250  11.401  11.310
39335SOL    HW119844   5.342  11.412  11.287
39335SOL    HW219845   5.250  11.338  11.383
39336SOL     OW19846   3.397   2.910   2.568
39336SOL    HW119847   3.459   2.940   2.503
39336SOL    HW219848   3.409   2.815   2.571
39337SOL     OW19849  11.967  11.337  11.479
39337SOL    HW119850  11.884  11.379  11.500
39337SOL    HW219851  11.963  11.253  11.525
39338SOL     OW19852  14.525  14.625   0.193
39338SOL    HW119853  14.526  14.659   0.283
39338SOL    HW219854  14.608  14.578   0.184
39339SOL     OW19855  12.216   3.987   2.053
39339SOL    HW119856  12.214   3.892   2.048
39339SOL    HW219857  12.185   4.008   2.141
39340SOL     OW19858   2.758   3.871   4.398
39340SOL    HW119859   2.723   3.817   4.328
39340SOL    HW219860   2.809   3.939   4.353
39341SOL     OW19861  11.579   0.358   0.748
39341SOL    HW119862  11.611   0.412   0.676
39341SOL    HW219863  11.572   0.270   0.711
39342SOL     OW19864   3.960   7.369   7.424
39342SOL    HW119865   3.961   7.454   7.380
39342SOL    HW219866   4.013   7.382   7.503
39343SOL     OW19867   9.748  13.770   4.590
39343SOL    HW119868   9.739  13.676   4.575
39343SOL    HW219869   9.665  13.796   4.631
39344SOL     OW19870   6.616   8.647  10.037
39344SOL    HW119871   6.627   8.633   9.943
39344SOL    HW219872   6.665   8.727  10.056
39345SOL     OW19873   5.762   0.290  12.685
39345SOL    HW119874   5.757   0.304  12.590
39345SOL    HW219875   5.680   0.326  12.719
39346SOL     OW19876   7.342   6.828   9.849
39346SOL    HW119877   7.394   6.907   9.839
39346SOL    HW219878   7.304   6.835   9.936
39347SOL     OW19879  13.072   9.835   9.093
39347SOL    HW119880  13.037   9.798   9.012
39347SOL    HW219881  13.144   9.891   9.064
39348SOL     OW19882   8.111   1.161  13.871
39348SOL    HW119883   8.023   1.128  13.853
39348SOL    HW219884   8.170   1.091  13.843
39349SOL     OW19885   7.601   6.106   6.206
39349SOL    HW119886   7.555   6.178   6.164
39349SOL    HW219887   7.537   6.068   6.266
39350SOL     OW19888   5.963   7.019  13.036
39350SOL    HW119889   5.901   6.958  13.078
39350SOL    HW219890   5.917   7.103  13.036
39351SOL     OW19891   7.328   9.700  10.770
39351SOL    HW119892   7.367   9.614  10.789
39351SOL    HW219893   7.279   9.721  10.849
39352SOL     OW19894   1.903   4.216  13.924
39352SOL    HW119895   1.897   4.151  13.994
39352SOL    HW219896   1.899   4.165  13.843
39353SOL     OW19897  11.008  12.856   0.168
39353SOL    HW119898  10.944  12.918   0.133
39353SOL    HW219899  11.086  12.870   0.115
39354SOL     OW19900   6.931   7.906   3.788
39354SOL    HW119901   6.953   7.997   3.768
39354SOL    HW219902   6.845   7.911   3.829
39355SOL     OW19903   7.091  13.092  13.642
39355SOL    HW119904   7.016  13.055  13.688
39355SOL    HW219905   7.055  13.165  13.592
39356SOL     OW19906   8.794   9.048   5.999
39356SOL    HW119907   8.746   9.069   6.079
39356SOL    HW219908   8.881   9.022   6.030
39357SOL     OW19909   5.508  11.909  14.799
39357SOL    HW119910   5.572  11.862  14.745
39357SOL    HW219911   5.479  11.843  14.863
39358SOL     OW19912  10.784   0.081   1.045
39358SOL    HW119913  10.757   0.116   0.960
39358SOL    HW219914  10.860   0.133   1.070
39359SOL     OW19915   0.579   9.861  12.996
39359SOL    HW119916   0.540   9.775  13.011
39359SOL    HW219917   0.670   9.851  13.022
39360SOL     OW19918   4.578   5.525   4.102
39360SOL    HW119919   4.641   5.485   4.162
39360SOL    HW219920   4.495   5.522   4.149
39361SOL     OW19921  13.579   1.901   4.911
39361SOL    HW119922  13.586   1.895   5.006
39361SOL    HW219923  13.520   1.829   4.887
39362SOL     OW19924  14.642   6.422   2.909
39362SOL    HW119925  14.562   6.469   2.933
39362SOL    HW219926  14.612   6.349   2.855
39363SOL     OW19927   7.386  13.817  13.060
39363SOL    HW119928   7.360  13.878  13.129
39363SOL    HW219929   7.335  13.844  12.983
39364SOL     OW19930   0.427  11.335   7.324
39364SOL    HW119931   0.366  11.389   7.273
39364SOL    HW219932   0.512  11.348   7.282
39365SOL     OW19933   6.454   4.623  14.372
39365SOL    HW119934   6.494   4.537  14.358
39365SOL    HW219935   6.469   4.642  14.465
39366SOL     OW19936   9.115   0.025  10.922
39366SOL    HW119937   9.031   0.032  10.876
39366SOL    HW219938   9.092   0.006  11.012
39367SOL     OW19939   8.099  10.831  12.240
39367SOL    HW119940   8.062  10.919  12.245
39367SOL    HW219941   8.182  10.843  12.195
39368SOL     OW19942   5.357   2.812  11.825
39368SOL    HW119943   5.261   2.806  11.825
39368SOL    HW219944   5.384   2.778  11.740
39369SOL     OW19945   6.988   0.564  13.347
39369SOL    HW119946   7.054   0.589  13.411
39369SOL    HW219947   6.987   0.635  13.283
39370SOL     OW19948  11.448   1.725   8.081
39370SOL    HW119949  11.470   1.762   7.995
39370SOL    HW219950  11.396   1.792   8.124
39371SOL     OW19951   3.977   5.209  14.841
39371SOL    HW119952   3.882   5.214  14.830
39371SOL    HW219953   3.989   5.159   0.040
39372SOL     OW19954   5.041  14.777  11.965
39372SOL    HW119955   5.051  14.682  11.961
39372SOL    HW219956   5.124  14.809  12.002
39373SOL     OW19957   0.608  12.364   4.926
39373SOL    HW119958   0.534  12.403   4.880
39373SOL    HW219959   0.637  12.432   4.986
39374SOL     OW19960   0.963   1.521  11.531
39374SOL    HW119961   0.981   1.545  11.441
39374SOL    HW219962   0.871   1.545  11.545
39375SOL     OW19963  14.318   0.585   1.756
39375SOL    HW119964  14.336   0.523   1.827
39375SOL    HW219965  14.346   0.539   1.677
39376SOL     OW19966   4.343  13.638   7.185
39376SOL    HW119967   4.300  13.711   7.139
39376SOL    HW219968   4.323  13.561   7.132
39377SOL     OW19969   0.165   6.751   7.756
39377SOL    HW119970   0.178   6.720   7.666
39377SOL    HW219971   0.100   6.821   7.748
39378SOL     OW19972  10.870  14.490   4.939
39378SOL    HW119973  10.800  14.530   4.887
39378SOL    HW219974  10.920  14.438   4.876
39379SOL     OW19975   5.249   7.480   8.295
39379SOL    HW119976   5.193   7.523   8.230
39379SOL    HW219977   5.218   7.390   8.298
39380SOL     OW19978   8.327   6.823  14.743
39380SOL    HW119979   8.286   6.817  14.657
39380SOL    HW219980   8.328   6.916  14.763
39381SOL     OW19981  13.066  12.514  10.496
39381SOL    HW119982  13.066  12.422  10.470
39381SOL    HW219983  13.067  12.512  10.591
39382SOL     OW19984   0.237   9.534   3.069
39382SOL    HW119985   0.306   9.575   3.018
39382SOL    HW219986   0.189   9.607   3.108
39383SOL     OW19987   5.186   4.475  14.226
39383SOL    HW119988   5.235   4.406  14.181
39383SOL    HW219989   5.097   4.440  14.233
39384SOL     OW19990   4.683   0.559   4.746
39384SOL    HW119991   4.610   0.502   4.722
39384SOL    HW219992   4.753   0.536   4.684
39385SOL     OW19993  10.175  12.205   0.887
39385SOL    HW119994  10.207  12.115   0.881
39385SOL    HW219995  10.252  12.259   0.872
39386SOL     OW19996   7.423   9.893  11.551
39386SOL    HW119997   7.493   9.955  11.574
39386SOL    HW219998   7.426   9.827  11.620
39387SOL     OW19999   7.937   3.796   5.522
39387SOL    HW120000   7.870   3.749   5.472
39387SOL    HW220001   7.897   3.810   5.608
39388SOL     OW20002   0.066  12.522   8.503
39388SOL    HW120003  14.866  12.487   8.467
39388SOL    HW220004   0.052  12.617   8.503
39389SOL     OW20005   7.401   9.711   9.664
39389SOL    HW120006   7.491   9.692   9.637
39389SOL    HW220007   7.347   9.682   9.590
39390SOL     OW20008  14.119   9.516   3.972
39390SOL    HW120009  14.065   9.576   3.920
39390SOL    HW220010  14.129   9.439   3.916
39391SOL     OW20011   0.295  11.454   6.234
39391SOL    HW120012   0.336  11.389   6.177
39391SOL    HW220013   0.227  11.405   6.280
39392SOL     OW20014   3.315   0.191  14.559
39392SOL    HW120015   3.299   0.232  14.644
39392SOL    HW220016   3.380   0.123  14.577
39393SOL     OW20017   0.958   0.647   3.501
39393SOL    HW120018   0.949   0.723   3.558
39393SOL    HW220019   1.050   0.647   3.474
39394SOL     OW20020   4.736   4.988   7.072
39394SOL    HW120021   4.755   5.081   7.056
39394SOL    HW220022   4.823   4.948   7.082
39395SOL     OW20023   9.450  10.860   2.810
39395SOL    HW120024   9.474  10.811   2.731
39395SOL    HW220025   9.375  10.913   2.784
39396SOL     OW20026  10.960   0.348  12.202
39396SOL    HW120027  10.925   0.263  12.177
39396SOL    HW220028  10.916   0.411  12.144
39397SOL     OW20029   2.409   1.848   0.860
39397SOL    HW120030   2.349   1.812   0.926
39397SOL    HW220031   2.482   1.785   0.858
39398SOL     OW20032   0.357   5.562   1.720
39398SOL    HW120033   0.348   5.570   1.815
39398SOL    HW220034   0.300   5.629   1.684
39399SOL     OW20035  10.423   7.462   7.193
39399SOL    HW120036  10.374   7.540   7.220
39399SOL    HW220037  10.382   7.434   7.111
39400SOL     OW20038   4.830   5.307  12.253
39400SOL    HW120039   4.825   5.368  12.180
39400SOL    HW220040   4.792   5.354  12.327
39401SOL     OW20041  10.875  12.234  11.244
39401SOL    HW120042  10.954  12.192  11.212
39401SOL    HW220043  10.898  12.327  11.254
39402SOL     OW20044  10.501   3.157  11.380
39402SOL    HW120045  10.564   3.227  11.398
39402SOL    HW220046  10.418   3.202  11.365
39403SOL     OW20047   3.367   5.486   8.931
39403SOL    HW120048   3.415   5.565   8.956
39403SOL    HW220049   3.275   5.513   8.931
39404SOL     OW20050   3.448   9.028   2.324
39404SOL    HW120051   3.412   9.113   2.299
39404SOL    HW220052   3.494   8.997   2.246
39405SOL     OW20053   3.132  10.745  12.913
39405SOL    HW120054   3.073  10.690  12.964
39405SOL    HW220055   3.205  10.764  12.973
39406SOL     OW20056   3.388  10.570   5.022
39406SOL    HW120057   3.481  10.553   5.033
39406SOL    HW220058   3.352  10.487   4.991
39407SOL     OW20059   3.620   3.137  14.232
39407SOL    HW120060   3.589   3.120  14.321
39407SOL    HW220061   3.557   3.200  14.196
39408SOL     OW20062  10.459   1.953  13.738
39408SOL    HW120063  10.379   1.904  13.755
39408SOL    HW220064  10.435   2.044  13.754
39409SOL     OW20065   4.903   4.142   1.778
39409SOL    HW120066   4.876   4.114   1.866
39409SOL    HW220067   4.967   4.211   1.793
39410SOL     OW20068   1.528   4.601  11.226
39410SOL    HW120069   1.462   4.531  11.228
39410SOL    HW220070   1.498   4.663  11.293
39411SOL     OW20071  14.860   6.697  12.548
39411SOL    HW120072   0.062   6.732  12.579
39411SOL    HW220073  14.797   6.767  12.565
39412SOL     OW20074   1.520   1.198  10.260
39412SOL    HW120075   1.599   1.247  10.282
39412SOL    HW220076   1.457   1.265  10.233
39413SOL     OW20077  13.484   7.246   6.667
39413SOL    HW120078  13.552   7.313   6.674
39413SOL    HW220079  13.429   7.275   6.594
39414SOL     OW20080  11.042   6.810  10.977
39414SOL    HW120081  11.060   6.759  11.056
39414SOL    HW220082  10.959   6.854  10.996
39415SOL     OW20083   3.297  14.504   1.852
39415SOL    HW120084   3.391  14.491   1.854
39415SOL    HW220085   3.271  14.503   1.944
39416SOL     OW20086  10.857  11.658  10.313
39416SOL    HW120087  10.849  11.727  10.247
39416SOL    HW220088  10.768  11.647  10.347
39417SOL     OW20089   4.945   6.855  11.888
39417SOL    HW120090   4.873   6.915  11.907
39417SOL    HW220091   4.942   6.842  11.793
39418SOL     OW20092   3.093   5.283   3.425
39418SOL    HW120093   3.170   5.285   3.368
39418SOL    HW220094   3.037   5.215   3.388
39419SOL     OW20095   1.860  12.984   3.216
39419SOL    HW120096   1.935  13.043   3.223
39419SOL    HW220097   1.868  12.945   3.130
39420SOL     OW20098   0.214  10.017   1.922
39420SOL    HW120099   0.137   9.962   1.931
39420SOL    HW220100   0.200  10.088   1.985
39421SOL     OW20101   8.667   8.908  12.061
39421SOL    HW120102   8.700   8.894  12.149
39421SOL    HW220103   8.744   8.903  12.005
39422SOL     OW20104  13.250  10.792   7.307
39422SOL    HW120105  13.212  10.779   7.394
39422SOL    HW220106  13.344  10.776   7.319
39423SOL     OW20107   6.204   9.316   8.244
39423SOL    HW120108   6.205   9.408   8.269
39423SOL    HW220109   6.257   9.272   8.311
39424SOL     OW20110   1.168  10.472  12.300
39424SOL    HW120111   1.211  10.418  12.234
39424SOL    HW220112   1.167  10.418  12.379
39425SOL     OW20113   7.247   8.363  10.948
39425SOL    HW120114   7.247   8.330  11.038
39425SOL    HW220115   7.216   8.289  10.895
39426SOL     OW20116  13.886   0.859   4.074
39426SOL    HW120117  13.928   0.942   4.050
39426SOL    HW220118  13.934   0.831   4.152
39427SOL     OW20119   9.299   0.757   9.560
39427SOL    HW120120   9.278   0.848   9.539
39427SOL    HW220121   9.333   0.760   9.649
39428SOL     OW20122   3.641   4.080   5.542
39428SOL    HW120123   3.555   4.104   5.578
39428SOL    HW220124   3.640   4.115   5.453
39429SOL     OW20125   0.553  13.329  14.269
39429SOL    HW120126   0.593  13.404  14.225
39429SOL    HW220127   0.609  13.313  14.345
39430SOL     OW20128  11.622   3.421  12.231
39430SOL    HW120129  11.635   3.327  12.225
39430SOL    HW220130  11.711   3.457  12.237
39431SOL     OW20131   3.719   8.117   3.203
39431SOL    HW120132   3.659   8.140   3.131
39431SOL    HW220133   3.776   8.193   3.211
39432SOL     OW20134  12.590   8.454   9.589
39432SOL    HW120135  12.533   8.472   9.664
39432SOL    HW220136  12.592   8.358   9.583
39433SOL     OW20137   2.014   3.854   5.325
39433SOL    HW120138   1.970   3.789   5.380
39433SOL    HW220139   1.953   3.929   5.324
39434SOL     OW20140   8.846  12.239   4.059
39434SOL    HW120141   8.762  12.280   4.077
39434SOL    HW220142   8.838  12.151   4.095
39435SOL     OW20143  11.361   5.020  10.260
39435SOL    HW120144  11.323   5.074  10.329
39435SOL    HW220145  11.395   4.943  10.306
39436SOL     OW20146  11.717   9.596  10.649
39436SOL    HW120147  11.673   9.515  10.625
39436SOL    HW220148  11.715   9.597  10.745
39437SOL     OW20149   9.046   2.747   9.059
39437SOL    HW120150   9.119   2.808   9.050
39437SOL    HW220151   9.010   2.765   9.146
39438SOL     OW20152  13.008   1.704   0.377
39438SOL    HW120153  13.033   1.695   0.469
39438SOL    HW220154  13.027   1.796   0.357
39439SOL     OW20155  10.158  10.953  10.644
39439SOL    HW120156  10.144  10.898  10.721
39439SOL    HW220157  10.155  10.892  10.570
39440SOL     OW20158  10.153   5.273  14.805
39440SOL    HW120159  10.224   5.306  14.749
39440SOL    HW220160  10.088   5.344  14.805
39441SOL     OW20161   6.189   5.702  14.261
39441SOL    HW120162   6.243   5.778  14.284
39441SOL    HW220163   6.138   5.684  14.339
39442SOL     OW20164  11.749  13.702  10.771
39442SOL    HW120165  11.756  13.796  10.788
39442SOL    HW220166  11.752  13.661  10.858
39443SOL     OW20167  10.582   6.074   1.476
39443SOL    HW120168  10.657   6.036   1.431
39443SOL    HW220169  10.591   6.168   1.462
39444SOL     OW20170   3.452   2.774   0.520
39444SOL    HW120171   3.504   2.828   0.460
39444SOL    HW220172   3.362   2.785   0.490
39445SOL     OW20173   0.811   5.135   3.608
39445SOL    HW120174   0.757   5.116   3.684
39445SOL    HW220175   0.751   5.170   3.543
39446SOL     OW20176   8.858   5.123   8.272
39446SOL    HW120177   8.836   5.077   8.352
39446SOL    HW220178   8.934   5.177   8.294
39447SOL     OW20179  14.859   1.274  11.588
39447SOL    HW120180  14.773   1.290  11.626
39447SOL    HW220181   0.027   1.233  11.659
39448SOL     OW20182   3.013   6.845  12.430
39448SOL    HW120183   2.962   6.766  12.414
39448SOL    HW220184   3.091   6.835  12.375
39449SOL     OW20185   2.394   6.680   7.145
39449SOL    HW120186   2.453   6.684   7.221
39449SOL    HW220187   2.322   6.624   7.172
39450SOL     OW20188   3.486  14.213  11.967
39450SOL    HW120189   3.524  14.269  12.035
39450SOL    HW220190   3.428  14.153  12.015
39451SOL     OW20191  14.212   6.476   4.448
39451SOL    HW120192  14.239   6.497   4.358
39451SOL    HW220193  14.232   6.556   4.498
39452SOL     OW20194  11.987   3.824  13.665
39452SOL    HW120195  12.069   3.774  13.662
39452SOL    HW220196  11.940   3.786  13.740
39453SOL     OW20197  12.051   6.316   6.008
39453SOL    HW120198  12.045   6.299   6.102
39453SOL    HW220199  12.013   6.238   5.968
39454SOL     OW20200   7.358  12.241   6.446
39454SOL    HW120201   7.354  12.304   6.374
39454SOL    HW220202   7.451  12.221   6.455
39455SOL     OW20203   0.395   1.206   7.656
39455SOL    HW120204   0.305   1.197   7.626
39455SOL    HW220205   0.444   1.229   7.577
39456SOL     OW20206   7.228  10.711  10.696
39456SOL    HW120207   7.213  10.676  10.608
39456SOL    HW220208   7.200  10.803  10.689
39457SOL     OW20209  14.795  12.385   3.054
39457SOL    HW120210  14.759  12.439   3.124
39457SOL    HW220211  14.821  12.304   3.096
39458SOL     OW20212   7.014   5.827   9.084
39458SOL    HW120213   6.984   5.873   9.162
39458SOL    HW220214   6.936   5.820   9.029
39459SOL     OW20215   6.437  14.617   2.334
39459SOL    HW120216   6.398  14.529   2.331
39459SOL    HW220217   6.416  14.649   2.422
39460SOL     OW20218   7.360  12.498   9.328
39460SOL    HW120219   7.407  12.545   9.259
39460SOL    HW220220   7.410  12.417   9.339
39461SOL     OW20221  12.347   8.837   4.878
39461SOL    HW120222  12.266   8.845   4.829
39461SOL    HW220223  12.383   8.752   4.853
39462SOL     OW20224   8.309   4.163   4.429
39462SOL    HW120225   8.384   4.221   4.440
39462SOL    HW220226   8.305   4.147   4.335
39463SOL     OW20227   6.779  11.218  12.947
39463SOL    HW120228   6.873  11.220  12.965
39463SOL    HW220229   6.770  11.156  12.874
39464SOL     OW20230   7.573  11.889   3.605
39464SOL    HW120231   7.604  11.853   3.688
39464SOL    HW220232   7.568  11.813   3.546
39465SOL     OW20233   3.252   2.240   6.360
39465SOL    HW120234   3.288   2.183   6.292
39465SOL    HW220235   3.290   2.208   6.442
39466SOL     OW20236   1.066  13.812   9.248
39466SOL    HW120237   1.065  13.764   9.331
39466SOL    HW220238   0.996  13.876   9.257
39467SOL     OW20239  11.011  12.490   9.684
39467SOL    HW120240  10.940  12.432   9.658
39467SOL    HW220241  11.034  12.537   9.604
39468SOL     OW20242  10.089   8.712   6.746
39468SOL    HW120243  10.088   8.666   6.662
39468SOL    HW220244  10.013   8.769   6.744
39469SOL     OW20245   9.037  11.660   6.503
39469SOL    HW120246   9.122  11.674   6.545
39469SOL    HW220247   9.002  11.581   6.546
39470SOL     OW20248   7.191   2.249   1.707
39470SOL    HW120249   7.256   2.270   1.639
39470SOL    HW220250   7.163   2.160   1.686
39471SOL     OW20251   3.402   3.239   6.334
39471SOL    HW120252   3.433   3.307   6.274
39471SOL    HW220253   3.386   3.285   6.416
39472SOL     OW20254  11.385   1.890   8.594
39472SOL    HW120255  11.443   1.855   8.661
39472SOL    HW220256  11.416   1.980   8.579
39473SOL     OW20257   4.673   6.116   3.230
39473SOL    HW120258   4.604   6.167   3.187
39473SOL    HW220259   4.750   6.172   3.226
39474SOL     OW20260   7.840  10.865  14.195
39474SOL    HW120261   7.918  10.883  14.247
39474SOL    HW220262   7.856  10.780  14.156
39475SOL     OW20263   2.008  13.063   8.115
39475SOL    HW120264   2.089  13.104   8.085
39475SOL    HW220265   1.999  13.091   8.206
39476SOL     OW20266  12.719  12.195   2.821
39476SOL    HW120267  12.684  12.260   2.881
39476SOL    HW220268  12.810  12.221   2.808
39477SOL     OW20269   8.404   8.351   0.318
39477SOL    HW120270   8.453   8.271   0.336
39477SOL    HW220271   8.338   8.355   0.388
39478SOL     OW20272   6.313   8.406   2.796
39478SOL    HW120273   6.384   8.470   2.784
39478SOL    HW220274   6.325   8.373   2.885
39479SOL     OW20275   6.625  10.508   2.125
39479SOL    HW120276   6.720  10.512   2.139
39479SOL    HW220277   6.594  10.449   2.194
39480SOL     OW20278  12.646   0.139   2.067
39480SOL    HW120279  12.734   0.127   2.102
39480SOL    HW220280  12.595   0.066   2.103
39481SOL     OW20281  11.090  11.062   2.007
39481SOL    HW120282  11.095  11.120   1.931
39481SOL    HW220283  11.026  10.995   1.981
39482SOL     OW20284  14.445  11.743   8.104
39482SOL    HW120285  14.369  11.732   8.161
39482SOL    HW220286  14.491  11.820   8.137
39483SOL     OW20287   8.780   0.803  10.597
39483SOL    HW120288   8.711   0.742  10.573
39483SOL    HW220289   8.735   0.882  10.626
39484SOL     OW20290  13.251   3.394   0.105
39484SOL    HW120291  13.246   3.436   0.191
39484SOL    HW220292  13.274   3.303   0.124
39485SOL     OW20293   1.121  11.960   9.100
39485SOL    HW120294   1.193  11.960   9.038
39485SOL    HW220295   1.059  11.896   9.066
39486SOL     OW20296   4.501   1.208   2.163
39486SOL    HW120297   4.574   1.238   2.218
39486SOL    HW220298   4.537   1.135   2.113
39487SOL     OW20299   5.443   7.274  13.852
39487SOL    HW120300   5.389   7.212  13.900
39487SOL    HW220301   5.406   7.275  13.763
39488SOL     OW20302  14.724   3.762   4.033
39488SOL    HW120303  14.697   3.834   3.975
39488SOL    HW220304  14.701   3.682   3.985
39489SOL     OW20305   9.588   9.318  13.481
39489SOL    HW120306   9.517   9.260  13.509
39489SOL    HW220307   9.580   9.321  13.385
39490SOL     OW20308   8.457  11.789   8.202
39490SOL    HW120309   8.374  11.835   8.211
39490SOL    HW220310   8.499  11.829   8.126
39491SOL     OW20311   1.741  11.711   6.258
39491SOL    HW120312   1.724  11.617   6.269
39491SOL    HW220313   1.699  11.733   6.175
39492SOL     OW20314  12.109   7.116   1.041
39492SOL    HW120315  12.197   7.145   1.065
39492SOL    HW220316  12.066   7.100   1.125
39493SOL     OW20317   5.946   7.197  10.741
39493SOL    HW120318   5.896   7.201  10.659
39493SOL    HW220319   5.942   7.104  10.766
39494SOL     OW20320   2.183   3.474   3.748
39494SOL    HW120321   2.239   3.450   3.675
39494SOL    HW220322   2.167   3.392   3.795
39495SOL     OW20323   5.648   6.326   6.348
39495SOL    HW120324   5.710   6.349   6.417
39495SOL    HW220325   5.689   6.253   6.301
39496SOL     OW20326   6.234   2.391   5.741
39496SOL    HW120327   6.195   2.476   5.724
39496SOL    HW220328   6.163   2.339   5.778
39497SOL     OW20329  10.493   4.064  12.399
39497SOL    HW120330  10.484   4.061  12.304
39497SOL    HW220331  10.560   4.130  12.415
39498SOL     OW20332   3.745   2.662   8.085
39498SOL    HW120333   3.682   2.590   8.080
39498SOL    HW220334   3.690   2.740   8.092
39499SOL     OW20335   2.423   2.510  12.890
39499SOL    HW120336   2.344   2.563  12.900
39499SOL    HW220337   2.413   2.468  12.805
39500SOL     OW20338  13.917  14.030   3.876
39500SOL    HW120339  13.959  13.981   3.947
39500SOL    HW220340  13.844  13.974   3.848
39501SOL     OW20341  11.602  10.770   4.540
39501SOL    HW120342  11.537  10.803   4.602
39501SOL    HW220343  11.675  10.742   4.595
39502SOL     OW20344   2.057   2.908   4.441
39502SOL    HW120345   2.151   2.928   4.440
39502SOL    HW220346   2.053   2.813   4.440
39503SOL     OW20347  10.744   4.970   1.557
39503SOL    HW120348  10.690   5.048   1.572
39503SOL    HW220349  10.834   4.999   1.574
39504SOL     OW20350   0.310   8.661   5.677
39504SOL    HW120351   0.403   8.685   5.680
39504SOL    HW220352   0.278   8.678   5.766
39505SOL     OW20353  10.550   0.475  12.614
39505SOL    HW120354  10.597   0.426  12.546
39505SOL    HW220355  10.519   0.407  12.674
39506SOL     OW20356  11.273   6.108   2.268
39506SOL    HW120357  11.357   6.063   2.253
39506SOL    HW220358  11.274   6.131   2.361
39507SOL     OW20359   9.058   2.316  12.451
39507SOL    HW120360   9.024   2.355  12.371
39507SOL    HW220361   9.098   2.234  12.423
39508SOL     OW20362   6.390  14.047   3.211
39508SOL    HW120363   6.357  14.099   3.138
39508SOL    HW220364   6.481  14.028   3.189
39509SOL     OW20365   6.698   7.038   6.912
39509SOL    HW120366   6.765   7.101   6.940
39509SOL    HW220367   6.745   6.977   6.856
39510SOL     OW20368  10.730   2.632   2.644
39510SOL    HW120369  10.747   2.702   2.581
39510SOL    HW220370  10.650   2.590   2.613
39511SOL     OW20371   6.109   0.130   0.534
39511SOL    HW120372   6.165   0.071   0.483
39511SOL    HW220373   6.124   0.105   0.625
39512SOL     OW20374   4.036   3.107   9.021
39512SOL    HW120375   4.084   3.027   9.002
39512SOL    HW220376   4.086   3.148   9.092
39513SOL     OW20377  11.575   7.215   3.270
39513SOL    HW120378  11.611   7.175   3.191
39513SOL    HW220379  11.492   7.253   3.243
39514SOL     OW20380   0.746  13.232  13.101
39514SOL    HW120381   0.760  13.326  13.096
39514SOL    HW220382   0.745  13.202  13.010
39515SOL     OW20383   0.762   5.436  10.080
39515SOL    HW120384   0.826   5.480  10.023
39515SOL    HW220385   0.697   5.401  10.019
39516SOL     OW20386   3.936   9.071   9.389
39516SOL    HW120387   3.986   9.017   9.328
39516SOL    HW220388   3.960   9.037   9.475
39517SOL     OW20389   7.662   4.942   9.480
39517SOL    HW120390   7.619   5.024   9.501
39517SOL    HW220391   7.750   4.951   9.516
39518SOL     OW20392   2.503   7.763   0.851
39518SOL    HW120393   2.546   7.756   0.766
39518SOL    HW220394   2.479   7.856   0.858
39519SOL     OW20395   4.927   5.971  10.619
39519SOL    HW120396   4.933   6.061  10.652
39519SOL    HW220397   4.883   5.923  10.689
39520SOL     OW20398   0.504   1.424   7.780
39520SOL    HW120399   0.580   1.374   7.811
39520SOL    HW220400   0.452   1.360   7.732
39521SOL     OW20401  12.331   6.173   0.016
39521SOL    HW120402  12.346   6.137  14.811
39521SOL    HW220403  12.407   6.146   0.067
39522SOL     OW20404   6.389   3.464   0.110
39522SOL    HW120405   6.357   3.548   0.078
39522SOL    HW220406   6.332   3.399   0.069
39523SOL     OW20407  12.360   7.249   2.790
39523SOL    HW120408  12.320   7.250   2.703
39523SOL    HW220409  12.324   7.170   2.831
39524SOL     OW20410   5.071  12.849   6.069
39524SOL    HW120411   4.984  12.884   6.083
39524SOL    HW220412   5.119  12.872   6.149
39525SOL     OW20413   9.014   5.242   6.568
39525SOL    HW120414   8.992   5.312   6.507
39525SOL    HW220415   9.036   5.167   6.513
39526SOL     OW20416   0.193   5.792   1.678
39526SOL    HW120417   0.150   5.830   1.601
39526SOL    HW220418   0.233   5.867   1.721
39527SOL     OW20419  13.536   0.726  12.294
39527SOL    HW120420  13.451   0.763  12.319
39527SOL    HW220421  13.586   0.723  12.376
39528SOL     OW20422   4.839  12.040  13.298
39528SOL    HW120423   4.840  12.107  13.230
39528SOL    HW220424   4.826  12.089  13.379
39529SOL     OW20425   9.841   3.882   7.916
39529SOL    HW120426   9.894   3.947   7.868
39529SOL    HW220427   9.899   3.806   7.925
39530SOL     OW20428   4.623  10.105   2.652
39530SOL    HW120429   4.672  10.086   2.732
39530SOL    HW220430   4.679  10.165   2.602
39531SOL     OW20431   6.028   4.516   1.667
39531SOL    HW120432   6.035   4.511   1.572
39531SOL    HW220433   6.071   4.599   1.689
39532SOL     OW20434   1.877   7.858   8.374
39532SOL    HW120435   1.842   7.909   8.301
39532SOL    HW220436   1.913   7.924   8.433
39533SOL     OW20437   7.654   8.776  13.470
39533SOL    HW120438   7.590   8.726  13.418
39533SOL    HW220439   7.600   8.837  13.521
39534SOL     OW20440   1.074   3.904  11.931
39534SOL    HW120441   1.025   3.899  11.849
39534SOL    HW220442   1.094   3.997  11.942
39535SOL     OW20443   6.097   0.923  12.891
39535SOL    HW120444   6.139   0.908  12.976
39535SOL    HW220445   6.018   0.870  12.894
39536SOL     OW20446  13.976   4.794   2.068
39536SOL    HW120447  13.960   4.735   1.995
39536SOL    HW220448  14.038   4.859   2.034
39537SOL     OW20449   8.953  14.620   4.507
39537SOL    HW120450   8.917  14.708   4.518
39537SOL    HW220451   8.916  14.588   4.425
39538SOL     OW20452   9.938   3.978  11.984
39538SOL    HW120453   9.919   3.945  12.072
39538SOL    HW220454   9.977   3.904  11.938
39539SOL     OW20455   3.113   4.322   7.366
39539SOL    HW120456   3.093   4.413   7.387
39539SOL    HW220457   3.029   4.283   7.340
39540SOL     OW20458   0.928   4.580  13.578
39540SOL    HW120459   1.019   4.549  13.585
39540SOL    HW220460   0.912   4.625  13.661
39541SOL     OW20461   2.996   1.836   8.282
39541SOL    HW120462   3.053   1.881   8.220
39541SOL    HW220463   3.001   1.887   8.362
39542SOL     OW20464   4.654  10.670   9.837
39542SOL    HW120465   4.569  10.650   9.875
39542SOL    HW220466   4.639  10.674   9.743
39543SOL     OW20467   3.923   9.493  10.011
39543SOL    HW120468   3.893   9.408  10.042
39543SOL    HW220469   4.018   9.488  10.015
39544SOL     OW20470   4.370  13.460   7.684
39544SOL    HW120471   4.414  13.525   7.630
39544SOL    HW220472   4.424  13.453   7.763
39545SOL     OW20473   6.495   3.976   5.603
39545SOL    HW120474   6.434   3.903   5.587
39545SOL    HW220475   6.484   4.033   5.527
39546SOL     OW20476   0.167   8.852   7.161
39546SOL    HW120477   0.144   8.759   7.170
39546SOL    HW220478   0.236   8.866   7.226
39547SOL     OW20479  13.687   2.987   1.889
39547SOL    HW120480  13.668   3.061   1.947
39547SOL    HW220481  13.714   3.027   1.807
39548SOL     OW20482   1.335   6.960   1.496
39548SOL    HW120483   1.398   7.031   1.512
39548SOL    HW220484   1.250   6.996   1.521
39549SOL     OW20485   0.666  11.706   0.449
39549SOL    HW120486   0.577  11.693   0.481
39549SOL    HW220487   0.669  11.799   0.426
39550SOL     OW20488   0.337  11.203   5.435
39550SOL    HW120489   0.259  11.159   5.470
39550SOL    HW220490   0.306  11.289   5.407
39551SOL     OW20491   2.712   3.934   4.003
39551SOL    HW120492   2.725   3.840   3.990
39551SOL    HW220493   2.618   3.944   4.014
39552SOL     OW20494   2.177  13.516   1.726
39552SOL    HW120495   2.161  13.427   1.757
39552SOL    HW220496   2.150  13.515   1.634
39553SOL     OW20497   5.124  13.910  12.992
39553SOL    HW120498   5.207  13.957  12.995
39553SOL    HW220499   5.090  13.925  12.904
39554SOL     OW20500   1.203   3.643  13.719
39554SOL    HW120501   1.117   3.669  13.751
39554SOL    HW220502   1.185   3.568  13.661
39555SOL     OW20503  13.322  13.892  13.145
39555SOL    HW120504  13.295  13.878  13.054
39555SOL    HW220505  13.311  13.986  13.159
39556SOL     OW20506  11.316   9.185  10.449
39556SOL    HW120507  11.234   9.145  10.422
39556SOL    HW220508  11.380   9.157  10.383
39557SOL     OW20509   7.628  13.532   4.560
39557SOL    HW120510   7.684  13.455   4.574
39557SOL    HW220511   7.581  13.513   4.479
39558SOL     OW20512   1.619   7.728   1.151
39558SOL    HW120513   1.534   7.685   1.149
39558SOL    HW220514   1.679   7.665   1.110
39559SOL     OW20515   4.961   0.325   5.902
39559SOL    HW120516   4.866   0.312   5.911
39559SOL    HW220517   4.999   0.242   5.931
39560SOL     OW20518  11.306   1.788   3.130
39560SOL    HW120519  11.371   1.732   3.087
39560SOL    HW220520  11.351   1.821   3.208
39561SOL     OW20521  11.833  12.944  11.239
39561SOL    HW120522  11.881  12.870  11.278
39561SOL    HW220523  11.896  12.984  11.179
39562SOL     OW20524   2.722  13.978   8.252
39562SOL    HW120525   2.758  14.064   8.273
39562SOL    HW220526   2.765  13.953   8.171
39563SOL     OW20527   1.452   0.253  14.598
39563SOL    HW120528   1.497   0.331  14.631
39563SOL    HW220529   1.501   0.179  14.634
39564SOL     OW20530   1.103   9.311  14.788
39564SOL    HW120531   1.161   9.289  14.861
39564SOL    HW220532   1.015   9.309  14.825
39565SOL     OW20533   2.649  12.942   4.492
39565SOL    HW120534   2.556  12.962   4.495
39565SOL    HW220535   2.689  13.006   4.552
39566SOL     OW20536   3.527  11.477   3.664
39566SOL    HW120537   3.591  11.531   3.710
39566SOL    HW220538   3.551  11.387   3.686
39567SOL     OW20539   8.728   4.898  14.757
39567SOL    HW120540   8.724   4.985  14.719
39567SOL    HW220541   8.720   4.839  14.682
39568SOL     OW20542   4.632  10.869  14.018
39568SOL    HW120543   4.601  10.870  13.927
39568SOL    HW220544   4.573  10.928  14.064
39569SOL     OW20545   3.320  13.325   6.322
39569SOL    HW120546   3.250  13.305   6.385
39569SOL    HW220547   3.275  13.362   6.247
39570SOL     OW20548  14.539   2.290  11.643
39570SOL    HW120549  14.552   2.230  11.716
39570SOL    HW220550  14.576   2.373  11.673
39571SOL     OW20551   0.385  11.553   2.099
39571SOL    HW120552   0.289  11.542   2.097
39571SOL    HW220553   0.409  11.565   2.007
39572SOL     OW20554   7.925   8.855  14.291
39572SOL    HW120555   7.916   8.835  14.198
39572SOL    HW220556   7.922   8.951  14.295
39573SOL     OW20557  11.577   6.082   1.059
39573SOL    HW120558  11.644   6.020   1.030
39573SOL    HW220559  11.604   6.105   1.149
39574SOL     OW20560   0.281   7.750   1.313
39574SOL    HW120561   0.200   7.705   1.289
39574SOL    HW220562   0.327   7.763   1.230
39575SOL     OW20563   2.869   5.664   8.331
39575SOL    HW120564   2.929   5.615   8.387
39575SOL    HW220565   2.876   5.621   8.245
39576SOL     OW20566   4.659   5.095   0.147
39576SOL    HW120567   4.681   5.037   0.219
39576SOL    HW220568   4.695   5.053   0.069
39577SOL     OW20569   6.970  12.900   9.050
39577SOL    HW120570   7.024  12.821   9.061
39577SOL    HW220571   6.885  12.877   9.089
39578SOL     OW20572   6.211   2.713   0.721
39578SOL    HW120573   6.218   2.789   0.778
39578SOL    HW220574   6.256   2.740   0.641
39579SOL     OW20575   6.841   8.794   2.760
39579SOL    HW120576   6.839   8.866   2.697
39579SOL    HW220577   6.826   8.715   2.706
39580SOL     OW20578   8.869  11.461   9.943
39580SOL    HW120579   8.843  11.416  10.023
39580SOL    HW220580   8.799  11.442   9.881
39581SOL     OW20581   0.157   6.018   9.384
39581SOL    HW120582   0.111   5.937   9.362
39581SOL    HW220583   0.244   5.988   9.412
39582SOL     OW20584  13.459  10.257   0.150
39582SOL    HW120585  13.496  10.345   0.162
39582SOL    HW220586  13.366  10.267   0.170
39583SOL     OW20587   9.484   4.006   4.202
39583SOL    HW120588   9.413   4.037   4.257
39583SOL    HW220589   9.518   3.930   4.248
39584SOL     OW20590  10.127   8.364  11.805
39584SOL    HW120591  10.067   8.297  11.772
39584SOL    HW220592  10.169   8.323  11.880
39585SOL     OW20593   9.601  11.727  10.616
39585SOL    HW120594   9.623  11.638  10.588
39585SOL    HW220595   9.653  11.740  10.696
39586SOL     OW20596  13.128   7.762  14.829
39586SOL    HW120597  13.058   7.818  14.860
39586SOL    HW220598  13.203   7.782   0.004
39587SOL     OW20599   6.667  12.512   5.852
39587SOL    HW120600   6.690  12.429   5.810
39587SOL    HW220601   6.732  12.574   5.818
39588SOL     OW20602   3.291   6.257  11.467
39588SOL    HW120603   3.203   6.291  11.449
39588SOL    HW220604   3.320   6.219  11.384
39589SOL     OW20605  11.236  10.378  11.372
39589SOL    HW120606  11.318  10.393  11.419
39589SOL    HW220607  11.261  10.322  11.298
39590SOL     OW20608  10.372  13.165   7.019
39590SOL    HW120609  10.461  13.129   7.027
39590SOL    HW220610  10.381  13.256   7.045
39591SOL     OW20611   7.492   0.508  10.032
39591SOL    HW120612   7.451   0.509  10.118
39591SOL    HW220613   7.508   0.415  10.013
39592SOL     OW20614  11.620   0.100   7.533
39592SOL    HW120615  11.583   0.091   7.621
39592SOL    HW220616  11.703   0.144   7.547
39593SOL     OW20617   7.640   0.675   6.486
39593SOL    HW120618   7.703   0.725   6.538
39593SOL    HW220619   7.695   0.624   6.426
39594SOL     OW20620  14.530   9.974   1.446
39594SOL    HW120621  14.453  10.031   1.437
39594SOL    HW220622  14.508   9.916   1.519
39595SOL     OW20623   8.728   4.466   4.533
39595SOL    HW120624   8.799   4.413   4.568
39595SOL    HW220625   8.677   4.492   4.609
39596SOL     OW20626   5.409  11.038  10.724
39596SOL    HW120627   5.344  11.024  10.792
39596SOL    HW220628   5.436  10.950  10.697
39597SOL     OW20629  10.113   2.079  13.522
39597SOL    HW120630  10.146   1.989  13.517
39597SOL    HW220631  10.186   2.130  13.558
39598SOL     OW20632  13.729   6.181  12.254
39598SOL    HW120633  13.811   6.175  12.204
39598SOL    HW220634  13.710   6.091  12.279
39599SOL     OW20635   4.076   9.975   1.486
39599SOL    HW120636   4.104   9.993   1.576
39599SOL    HW220637   4.003  10.035   1.472
39600SOL     OW20638  11.542   9.405   2.890
39600SOL    HW120639  11.558   9.419   2.984
39600SOL    HW220640  11.585   9.322   2.870
39601SOL     OW20641   9.676   5.408   9.960
39601SOL    HW120642   9.595   5.416  10.011
39601SOL    HW220643   9.728   5.343  10.008
39602SOL     OW20644   3.198   4.875  10.503
39602SOL    HW120645   3.243   4.906  10.581
39602SOL    HW220646   3.238   4.923  10.431
39603SOL     OW20647  13.617   1.278   8.691
39603SOL    HW120648  13.700   1.232   8.677
39603SOL    HW220649  13.633   1.368   8.662
39604SOL     OW20650   2.299   8.825   8.281
39604SOL    HW120651   2.290   8.743   8.233
39604SOL    HW220652   2.304   8.892   8.213
39605SOL     OW20653   6.382   8.473  11.168
39605SOL    HW120654   6.333   8.555  11.173
39605SOL    HW220655   6.403   8.462  11.076
39606SOL     OW20656   6.753  11.547  11.960
39606SOL    HW120657   6.793  11.520  12.043
39606SOL    HW220658   6.772  11.640  11.953
39607SOL     OW20659   6.844   3.879   1.646
39607SOL    HW120660   6.893   3.912   1.721
39607SOL    HW220661   6.760   3.925   1.650
39608SOL     OW20662   7.463   8.538   6.928
39608SOL    HW120663   7.500   8.518   6.842
39608SOL    HW220664   7.520   8.493   6.990
39609SOL     OW20665   6.761  12.570   4.518
39609SOL    HW120666   6.840  12.535   4.477
39609SOL    HW220667   6.791  12.607   4.601
39610SOL     OW20668   8.481  12.864  13.438
39610SOL    HW120669   8.568  12.835  13.412
39610SOL    HW220670   8.477  12.957  13.412
39611SOL     OW20671  11.939  12.174  14.788
39611SOL    HW120672  11.871  12.205  14.847
39611SOL    HW220673  11.890  12.134  14.715
39612SOL     OW20674   8.286   3.152   3.107
39612SOL    HW120675   8.307   3.239   3.075
39612SOL    HW220676   8.317   3.152   3.198
39613SOL     OW20677   2.088   5.352   8.868
39613SOL    HW120678   2.101   5.447   8.866
39613SOL    HW220679   2.025   5.335   8.797
39614SOL     OW20680  14.095   7.933  10.152
39614SOL    HW120681  14.004   7.936  10.181
39614SOL    HW220682  14.146   7.923  10.233
39615SOL     OW20683   8.082   1.595   3.229
39615SOL    HW120684   8.019   1.534   3.190
39615SOL    HW220685   8.042   1.620   3.313
39616SOL     OW20686  12.331  14.068   3.613
39616SOL    HW120687  12.369  14.063   3.525
39616SOL    HW220688  12.337  13.979   3.647
39617SOL     OW20689  12.797   4.749   8.194
39617SOL    HW120690  12.715   4.769   8.238
39617SOL    HW220691  12.860   4.736   8.265
39618SOL     OW20692   8.746  10.463   9.701
39618SOL    HW120693   8.833  10.487   9.668
39618SOL    HW220694   8.694  10.449   9.622
39619SOL     OW20695   2.650   2.679  10.749
39619SOL    HW120696   2.736   2.662  10.710
39619SOL    HW220697   2.655   2.769  10.782
39620SOL     OW20698   6.510   7.312   7.801
39620SOL    HW120699   6.548   7.376   7.861
39620SOL    HW220700   6.416   7.326   7.809
39621SOL     OW20701   4.657   6.285   3.528
39621SOL    HW120702   4.714   6.208   3.523
39621SOL    HW220703   4.706   6.353   3.482
39622SOL     OW20704  12.357   2.575   1.344
39622SOL    HW120705  12.355   2.486   1.378
39622SOL    HW220706  12.445   2.606   1.362
39623SOL     OW20707   2.175   7.651   3.710
39623SOL    HW120708   2.252   7.683   3.756
39623SOL    HW220709   2.124   7.729   3.689
39624SOL     OW20710   1.350   5.353   5.454
39624SOL    HW120711   1.340   5.376   5.361
39624SOL    HW220712   1.374   5.260   5.452
39625SOL     OW20713   7.818   7.199   0.097
39625SOL    HW120714   7.786   7.109   0.093
39625SOL    HW220715   7.866   7.211   0.016
39626SOL     OW20716   7.513   6.715   3.779
39626SOL    HW120717   7.425   6.687   3.802
39626SOL    HW220718   7.539   6.774   3.850
39627SOL     OW20719   9.195  10.696   7.655
39627SOL    HW120720   9.111  10.720   7.616
39627SOL    HW220721   9.257  10.759   7.619
39628SOL     OW20722   3.503  10.024   2.904
39628SOL    HW120723   3.548   9.948   2.942
39628SOL    HW220724   3.438   9.986   2.844
39629SOL     OW20725   9.841   8.516   4.891
39629SOL    HW120726   9.853   8.511   4.985
39629SOL    HW220727   9.881   8.599   4.865
39630SOL     OW20728   1.765   1.315   2.776
39630SOL    HW120729   1.768   1.237   2.721
39630SOL    HW220730   1.695   1.368   2.737
39631SOL     OW20731  12.741   0.591   2.059
39631SOL    HW120732  12.742   0.660   1.992
39631SOL    HW220733  12.648   0.572   2.072
39632SOL     OW20734   4.668  12.688   9.254
39632SOL    HW120735   4.616  12.617   9.292
39632SOL    HW220736   4.687  12.659   9.165
39633SOL     OW20737   7.544  14.516   4.440
39633SOL    HW120738   7.551  14.457   4.366
39633SOL    HW220739   7.630  14.515   4.481
39634SOL     OW20740  13.208  13.703   5.209
39634SOL    HW120741  13.209  13.630   5.148
39634SOL    HW220742  13.233  13.779   5.157
39635SOL     OW20743   1.974   5.214   4.270
39635SOL    HW120744   1.937   5.139   4.316
39635SOL    HW220745   2.051   5.238   4.321
39636SOL     OW20746  10.419   4.975   3.874
39636SOL    HW120747  10.328   5.003   3.861
39636SOL    HW220748  10.412   4.884   3.905
39637SOL     OW20749   1.781   7.399   8.777
39637SOL    HW120750   1.840   7.350   8.721
39637SOL    HW220751   1.720   7.334   8.812
39638SOL     OW20752   7.825   7.926   1.822
39638SOL    HW120753   7.751   7.983   1.801
39638SOL    HW220754   7.852   7.954   1.910
39639SOL     OW20755   9.117   5.138   5.097
39639SOL    HW120756   9.184   5.081   5.059
39639SOL    HW220757   9.112   5.111   5.188
39640SOL     OW20758  14.452  12.855   0.838
39640SOL    HW120759  14.529  12.836   0.891
39640SOL    HW220760  14.432  12.771   0.795
39641SOL     OW20761   8.068   5.798  12.796
39641SOL    HW120762   8.043   5.721  12.848
39641SOL    HW220763   8.134   5.766  12.735
39642SOL     OW20764  13.123   4.817   3.832
39642SOL    HW120765  13.072   4.893   3.859
39642SOL    HW220766  13.213   4.840   3.853
39643SOL     OW20767   5.988   2.872   3.985
39643SOL    HW120768   5.907   2.874   3.933
39643SOL    HW220769   6.054   2.837   3.925
39644SOL     OW20770   6.474   6.526   5.618
39644SOL    HW120771   6.525   6.525   5.537
39644SOL    HW220772   6.458   6.619   5.635
39645SOL     OW20773  12.602  14.522   8.593
39645SOL    HW120774  12.550  14.585   8.543
39645SOL    HW220775  12.540  14.453   8.616
39646SOL     OW20776   1.342  14.313   7.899
39646SOL    HW120777   1.294  14.389   7.933
39646SOL    HW220778   1.330  14.246   7.966
39647SOL     OW20779   6.910   1.305   6.615
39647SOL    HW120780   6.910   1.401   6.613
39647SOL    HW220781   6.888   1.283   6.705
39648SOL     OW20782  13.244   0.541  14.735
39648SOL    HW120783  13.214   0.554  14.644
39648SOL    HW220784  13.272   0.627  14.764
39649SOL     OW20785  10.354   5.035  12.778
39649SOL    HW120786  10.411   5.102  12.815
39649SOL    HW220787  10.271   5.079  12.764
39650SOL     OW20788  11.876   5.456   7.145
39650SOL    HW120789  11.787   5.469   7.178
39650SOL    HW220790  11.931   5.508   7.203
39651SOL     OW20791   7.855   6.210   2.958
39651SOL    HW120792   7.847   6.115   2.971
39651SOL    HW220793   7.769   6.244   2.982
39652SOL     OW20794   2.729   5.051   2.876
39652SOL    HW120795   2.723   5.122   2.940
39652SOL    HW220796   2.773   5.090   2.800
39653SOL     OW20797   0.292  11.760   3.951
39653SOL    HW120798   0.365  11.740   4.009
39653SOL    HW220799   0.326  11.742   3.863
39654SOL     OW20800  12.985   6.433   0.084
39654SOL    HW120801  13.022   6.434   0.172
39654SOL    HW220802  12.999   6.521   0.051
39655SOL     OW20803   4.009  12.195  13.171
39655SOL    HW120804   3.979  12.191  13.262
39655SOL    HW220805   4.036  12.105  13.151
39656SOL     OW20806   7.067   6.142   0.132
39656SOL    HW120807   7.038   6.211   0.192
39656SOL    HW220808   7.089   6.068   0.189
39657SOL     OW20809   1.244  14.254   4.768
39657SOL    HW120810   1.262  14.169   4.727
39657SOL    HW220811   1.322  14.306   4.751
39658SOL     OW20812   1.377  11.162  14.404
39658SOL    HW120813   1.340  11.243  14.371
39658SOL    HW220814   1.303  11.101  14.406
39659SOL     OW20815   0.172  10.422   6.821
39659SOL    HW120816   0.111  10.399   6.891
39659SOL    HW220817   0.159  10.515   6.807
39660SOL     OW20818   9.820  10.349   5.817
39660SOL    HW120819   9.827  10.365   5.912
39660SOL    HW220820   9.727  10.362   5.798
39661SOL     OW20821   7.859   4.513   2.869
39661SOL    HW120822   7.885   4.573   2.939
39661SOL    HW220823   7.939   4.500   2.818
39662SOL     OW20824   2.391  14.584  14.208
39662SOL    HW120825   2.360  14.643  14.140
39662SOL    HW220826   2.408  14.501  14.163
39663SOL     OW20827  11.242   4.586   6.538
39663SOL    HW120828  11.198   4.663   6.574
39663SOL    HW220829  11.283   4.618   6.457
39664SOL     OW20830   4.394   3.361  14.421
39664SOL    HW120831   4.299   3.369  14.416
39664SOL    HW220832   4.411   3.312  14.501
39665SOL     OW20833   0.764   7.638  11.324
39665SOL    HW120834   0.850   7.621  11.363
39665SOL    HW220835   0.784   7.678  11.239
39666SOL     OW20836   9.928   0.211   5.601
39666SOL    HW120837  10.014   0.171   5.617
39666SOL    HW220838   9.904   0.181   5.513
39667SOL     OW20839   1.805   4.936   3.901
39667SOL    HW120840   1.897   4.925   3.878
39667SOL    HW220841   1.757   4.884   3.837
39668SOL     OW20842   3.602   8.271   0.231
39668SOL    HW120843   3.622   8.358   0.265
39668SOL    HW220844   3.568   8.223   0.307
39669SOL     OW20845   2.485  11.024   0.066
39669SOL    HW120846   2.404  11.064   0.098
39669SOL    HW220847   2.509  11.076  14.872
39670SOL     OW20848   0.029  13.192   8.943
39670SOL    HW120849   0.020  13.124   8.876
39670SOL    HW220850  14.843  13.256   8.922
39671SOL     OW20851   8.315   7.596  11.669
39671SOL    HW120852   8.304   7.684  11.704
39671SOL    HW220853   8.243   7.586  11.607
39672SOL     OW20854   9.508   2.600  12.800
39672SOL    HW120855   9.437   2.538  12.820
39672SOL    HW220856   9.528   2.641  12.884
39673SOL     OW20857  10.340   1.180   7.948
39673SOL    HW120858  10.341   1.275   7.961
39673SOL    HW220859  10.433   1.157   7.938
39674SOL     OW20860  13.880   7.130   0.446
39674SOL    HW120861  13.853   7.182   0.371
39674SOL    HW220862  13.871   7.039   0.417
39675SOL     OW20863   9.292   3.258   2.976
39675SOL    HW120864   9.211   3.293   2.939
39675SOL    HW220865   9.324   3.327   3.033
39676SOL     OW20866   8.401   0.348   5.786
39676SOL    HW120867   8.413   0.334   5.692
39676SOL    HW220868   8.313   0.385   5.794
39677SOL     OW20869   5.405   2.125   7.317
39677SOL    HW120870   5.455   2.077   7.383
39677SOL    HW220871   5.315   2.094   7.327
39678SOL     OW20872  12.095   8.695  12.872
39678SOL    HW120873  12.083   8.614  12.921
39678SOL    HW220874  12.139   8.754  12.933
39679SOL     OW20875   2.529   0.267  14.497
39679SOL    HW120876   2.450   0.307  14.460
39679SOL    HW220877   2.594   0.274  14.427
39680SOL     OW20878   7.204   0.143  10.703
39680SOL    HW120879   7.258   0.118  10.628
39680SOL    HW220880   7.115   0.122  10.677
39681SOL     OW20881   6.800  13.350   5.442
39681SOL    HW120882   6.742  13.333   5.516
39681SOL    HW220883   6.869  13.284   5.450
39682SOL     OW20884   9.997   9.890   3.791
39682SOL    HW120885   9.926   9.907   3.728
39682SOL    HW220886  10.054   9.828   3.745
39683SOL     OW20887  14.150   9.182   2.903
39683SOL    HW120888  14.167   9.190   2.809
39683SOL    HW220889  14.165   9.270   2.938
39684SOL     OW20890   2.370  13.288   2.715
39684SOL    HW120891   2.452  13.317   2.756
39684SOL    HW220892   2.371  13.193   2.725
39685SOL     OW20893   7.252   2.760   2.980
39685SOL    HW120894   7.173   2.714   3.008
39685SOL    HW220895   7.260   2.741   2.887
39686SOL     OW20896   0.263   1.981  11.804
39686SOL    HW120897   0.230   2.044  11.868
39686SOL    HW220898   0.331   2.028  11.756
39687SOL     OW20899  10.987   3.115   2.272
39687SOL    HW120900  10.895   3.141   2.277
39687SOL    HW220901  10.988   3.039   2.213
39688SOL     OW20902  10.106   4.029   9.912
39688SOL    HW120903  10.187   3.977   9.911
39688SOL    HW220904  10.132   4.114   9.878
39689SOL     OW20905   7.087   5.040  11.502
39689SOL    HW120906   7.045   5.076  11.424
39689SOL    HW220907   7.160   4.988  11.468
39690SOL     OW20908   3.054   8.725   2.735
39690SOL    HW120909   2.988   8.726   2.666
39690SOL    HW220910   3.135   8.698   2.691
39691SOL     OW20911   9.769  13.425   3.563
39691SOL    HW120912   9.853  13.393   3.597
39691SOL    HW220913   9.703  13.385   3.620
39692SOL     OW20914   0.855   9.217   4.471
39692SOL    HW120915   0.870   9.306   4.501
39692SOL    HW220916   0.943   9.178   4.466
39693SOL     OW20917   9.241   1.705  12.512
39693SOL    HW120918   9.272   1.788  12.548
39693SOL    HW220919   9.212   1.655  12.589
39694SOL     OW20920   6.419  11.593  10.201
39694SOL    HW120921   6.390  11.671  10.248
39694SOL    HW220922   6.398  11.520  10.260
39695SOL     OW20923   6.046   2.263   5.879
39695SOL    HW120924   5.961   2.219   5.871
39695SOL    HW220925   6.098   2.202   5.932
39696SOL     OW20926   3.081  13.566  14.088
39696SOL    HW120927   3.083  13.528  14.176
39696SOL    HW220928   3.168  13.605  14.078
39697SOL     OW20929  10.938  13.591   5.396
39697SOL    HW120930  10.915  13.535   5.322
39697SOL    HW220931  11.033  13.599   5.392
39698SOL     OW20932   1.459  13.571   7.044
39698SOL    HW120933   1.408  13.648   7.017
39698SOL    HW220934   1.543  13.581   6.998
39699SOL     OW20935   5.595   2.332   2.640
39699SOL    HW120936   5.631   2.303   2.556
39699SOL    HW220937   5.651   2.290   2.705
39700SOL     OW20938   6.063   6.769   4.218
39700SOL    HW120939   6.080   6.798   4.308
39700SOL    HW220940   5.981   6.721   4.223
39701SOL     OW20941   4.861   4.808   9.949
39701SOL    HW120942   4.787   4.860   9.979
39701SOL    HW220943   4.897   4.856   9.875
39702SOL     OW20944   9.341   0.663   6.479
39702SOL    HW120945   9.419   0.709   6.511
39702SOL    HW220946   9.362   0.570   6.489
39703SOL     OW20947   2.989   6.536  13.295
39703SOL    HW120948   3.056   6.467  13.294
39703SOL    HW220949   2.982   6.560  13.388
39704SOL     OW20950   0.231  10.957   8.847
39704SOL    HW120951   0.274  10.954   8.762
39704SOL    HW220952   0.143  10.989   8.829
39705SOL     OW20953   4.527   6.040   6.784
39705SOL    HW120954   4.440   6.074   6.806
39705SOL    HW220955   4.552   6.087   6.704
39706SOL     OW20956   9.058   2.200  10.714
39706SOL    HW120957   9.108   2.247  10.647
39706SOL    HW220958   8.967   2.225  10.697
39707SOL     OW20959   5.487   5.422   1.798
39707SOL    HW120960   5.495   5.381   1.885
39707SOL    HW220961   5.393   5.431   1.785
39708SOL     OW20962   6.759  12.563   6.106
39708SOL    HW120963   6.725  12.548   6.018
39708SOL    HW220964   6.682  12.588   6.157
39709SOL     OW20965  12.955   7.284  13.503
39709SOL    HW120966  13.027   7.232  13.538
39709SOL    HW220967  12.879   7.226  13.506
39710SOL     OW20968   9.044  11.226   4.490
39710SOL    HW120969   8.997  11.293   4.541
39710SOL    HW220970   9.136  11.249   4.500
39711SOL     OW20971  12.069  13.686   3.723
39711SOL    HW120972  11.988  13.722   3.760
39711SOL    HW220973  12.103  13.628   3.791
39712SOL     OW20974  14.691   6.764   9.175
39712SOL    HW120975  14.683   6.686   9.231
39712SOL    HW220976  14.622   6.754   9.110
39713SOL     OW20977  13.266   9.495  11.174
39713SOL    HW120978  13.183   9.498  11.127
39713SOL    HW220979  13.256   9.558  11.246
39714SOL     OW20980   4.268   2.170  14.367
39714SOL    HW120981   4.328   2.212  14.429
39714SOL    HW220982   4.235   2.241  14.312
39715SOL     OW20983   4.493  11.127   8.358
39715SOL    HW120984   4.405  11.141   8.392
39715SOL    HW220985   4.537  11.211   8.371
39716SOL     OW20986   1.901  13.019   4.979
39716SOL    HW120987   1.947  13.070   5.045
39716SOL    HW220988   1.953  12.940   4.969
39717SOL     OW20989   5.932  14.651   3.877
39717SOL    HW120990   6.009  14.674   3.928
39717SOL    HW220991   5.884  14.734   3.867
39718SOL     OW20992   7.392   5.989   0.714
39718SOL    HW120993   7.472   5.946   0.743
39718SOL    HW220994   7.393   5.980   0.619
39719SOL     OW20995  12.111   3.593   0.014
39719SOL    HW120996  12.187   3.632  14.853
39719SOL    HW220997  12.099   3.647   0.093
39720SOL     OW20998   4.910  12.258   6.411
39720SOL    HW120999   4.833  12.273   6.356
39720SOL    HW221000   4.912  12.333   6.470
39721SOL     OW21001   4.489  11.736  10.465
39721SOL    HW121002   4.520  11.659  10.417
39721SOL    HW221003   4.562  11.760  10.522
39722SOL     OW21004   9.681   8.801  12.019
39722SOL    HW121005   9.594   8.840  12.014
39722SOL    HW221006   9.683   8.757  12.105
39723SOL     OW21007   3.891   4.079  11.325
39723SOL    HW121008   3.909   3.985  11.326
39723SOL    HW221009   3.963   4.117  11.375
39724SOL     OW21010   3.007   8.273   4.639
39724SOL    HW121011   2.958   8.199   4.675
39724SOL    HW221012   3.073   8.292   4.706
39725SOL     OW21013   1.330   1.296   8.543
39725SOL    HW121014   1.358   1.374   8.496
39725SOL    HW221015   1.407   1.239   8.544
39726SOL     OW21016   8.827   4.232   9.791
39726SOL    HW121017   8.793   4.214   9.704
39726SOL    HW221018   8.801   4.323   9.809
39727SOL     OW21019  13.387  11.204  13.073
39727SOL    HW121020  13.305  11.166  13.043
39727SOL    HW221021  13.426  11.242  12.994
39728SOL     OW21022   7.305   3.844   9.604
39728SOL    HW121023   7.375   3.790   9.640
39728SOL    HW221024   7.260   3.786   9.543
39729SOL     OW21025   4.872   1.580   0.140
39729SOL    HW121026   4.867   1.593   0.045
39729SOL    HW221027   4.793   1.530   0.161
39730SOL     OW21028   9.937  13.078  10.296
39730SOL    HW121029  10.011  13.029  10.331
39730SOL    HW221030   9.865  13.058  10.355
39731SOL     OW21031  12.027   4.503   8.161
39731SOL    HW121032  12.026   4.484   8.067
39731SOL    HW221033  11.936   4.493   8.188
39732SOL     OW21034   2.746   8.814   2.154
39732SOL    HW121035   2.738   8.904   2.186
39732SOL    HW221036   2.672   8.768   2.194
39733SOL     OW21037   8.415   3.431  10.833
39733SOL    HW121038   8.364   3.358  10.797
39733SOL    HW221039   8.368   3.509  10.807
39734SOL     OW21040   6.305   7.699   4.458
39734SOL    HW121041   6.211   7.681   4.456
39734SOL    HW221042   6.339   7.661   4.377
39735SOL     OW21043  10.113  10.432   3.099
39735SOL    HW121044  10.129  10.459   3.009
39735SOL    HW221045  10.045  10.365   3.093
39736SOL     OW21046   2.288   4.153  11.492
39736SOL    HW121047   2.319   4.191  11.410
39736SOL    HW221048   2.300   4.059  11.481
39737SOL     OW21049  12.356   7.881   0.914
39737SOL    HW121050  12.342   7.816   0.846
39737SOL    HW221051  12.394   7.832   0.987
39738SOL     OW21052  14.591   5.065   7.933
39738SOL    HW121053  14.600   5.160   7.920
39738SOL    HW221054  14.680   5.034   7.947
39739SOL     OW21055   1.984   3.892  11.503
39739SOL    HW121056   1.976   3.797  11.494
39739SOL    HW221057   2.038   3.919  11.429
39740SOL     OW21058  14.485   9.627  14.730
39740SOL    HW121059  14.463   9.589  14.815
39740SOL    HW221060  14.400   9.654  14.694
39741SOL     OW21061  12.864   6.355   0.519
39741SOL    HW121062  12.856   6.451   0.526
39741SOL    HW221063  12.953   6.337   0.550
39742SOL     OW21064   4.437   4.383  14.105
39742SOL    HW121065   4.479   4.441  14.042
39742SOL    HW221066   4.480   4.402  14.188
39743SOL     OW21067  12.836   3.161  13.196
39743SOL    HW121068  12.783   3.108  13.256
39743SOL    HW221069  12.775   3.184  13.126
39744SOL     OW21070  10.316   4.029   3.598
39744SOL    HW121071  10.357   3.947   3.625
39744SOL    HW221072  10.247   4.002   3.537
39745SOL     OW21073   6.472  11.529   1.629
39745SOL    HW121074   6.521  11.603   1.593
39745SOL    HW221075   6.516  11.452   1.594
39746SOL     OW21076  13.418  12.671   2.472
39746SOL    HW121077  13.357  12.744   2.463
39746SOL    HW221078  13.362  12.594   2.481
39747SOL     OW21079   3.311   3.810  13.729
39747SOL    HW121080   3.388   3.760  13.700
39747SOL    HW221081   3.315   3.808  13.825
39748SOL     OW21082   0.599   0.663   5.617
39748SOL    HW121083   0.522   0.690   5.667
39748SOL    HW221084   0.645   0.745   5.599
39749SOL     OW21085  11.435   2.361   4.580
39749SOL    HW121086  11.342   2.382   4.581
39749SOL    HW221087  11.441   2.281   4.528
39750SOL     OW21088  10.417   7.445   1.768
39750SOL    HW121089  10.460   7.367   1.804
39750SOL    HW221090  10.448   7.517   1.822
39751SOL     OW21091  11.787   7.169   6.369
39751SOL    HW121092  11.846   7.240   6.395
39751SOL    HW221093  11.711   7.179   6.426
39752SOL     OW21094  13.953   2.402  11.628
39752SOL    HW121095  13.998   2.474  11.672
39752SOL    HW221096  13.965   2.420  11.535
39753SOL     OW21097   3.180  13.246   7.570
39753SOL    HW121098   3.237  13.290   7.507
39753SOL    HW221099   3.183  13.301   7.648
39754SOL     OW21100   4.497  11.966  11.171
39754SOL    HW121101   4.526  12.028  11.238
39754SOL    HW221102   4.461  11.893  11.220
39755SOL     OW21103   4.398   3.202   5.961
39755SOL    HW121104   4.360   3.282   5.997
39755SOL    HW221105   4.487   3.226   5.935
39756SOL     OW21106  11.564   8.635  12.817
39756SOL    HW121107  11.647   8.681  12.814
39756SOL    HW221108  11.587   8.545  12.843
39757SOL     OW21109   3.920   5.836   1.323
39757SOL    HW121110   3.856   5.897   1.360
39757SOL    HW221111   3.948   5.783   1.398
39758SOL     OW21112   9.122   4.805   7.956
39758SOL    HW121113   9.122   4.860   7.878
39758SOL    HW221114   9.068   4.852   8.019
39759SOL     OW21115   4.380   3.218  10.700
39759SOL    HW121116   4.470   3.190  10.714
39759SOL    HW221117   4.331   3.137  10.686
39760SOL     OW21118  14.579   5.821  11.200
39760SOL    HW121119  14.525   5.900  11.196
39760SOL    HW221120  14.516   5.749  11.191
39761SOL     OW21121  14.127   5.971   2.806
39761SOL    HW121122  14.106   6.003   2.718
39761SOL    HW221123  14.044   5.976   2.854
39762SOL     OW21124   2.211  13.595  12.470
39762SOL    HW121125   2.257  13.528  12.521
39762SOL    HW221126   2.140  13.625  12.527
39763SOL     OW21127   2.687   9.023   5.944
39763SOL    HW121128   2.719   9.113   5.948
39763SOL    HW221129   2.754   8.972   5.990
39764SOL     OW21130  10.332   1.635  11.386
39764SOL    HW121131  10.414   1.685  11.388
39764SOL    HW221132  10.334   1.588  11.302
39765SOL     OW21133   4.155   9.525   4.034
39765SOL    HW121134   4.187   9.582   4.104
39765SOL    HW221135   4.064   9.505   4.060
39766SOL     OW21136  14.781   6.721   7.339
39766SOL    HW121137  14.692   6.704   7.308
39766SOL    HW221138  14.790   6.664   7.416
39767SOL     OW21139  11.760   6.291  12.965
39767SOL    HW121140  11.685   6.337  12.928
39767SOL    HW221141  11.727   6.204  12.985
39768SOL     OW21142   3.832   3.570   8.670
39768SOL    HW121143   3.869   3.561   8.582
39768SOL    HW221144   3.755   3.514   8.669
39769SOL     OW21145   9.763  13.308  14.211
39769SOL    HW121146   9.807  13.278  14.132
39769SOL    HW221147   9.833  13.317  14.276
39770SOL     OW21148   6.972  12.665  12.518
39770SOL    HW121149   6.893  12.706  12.553
39770SOL    HW221150   6.981  12.701  12.429
39771SOL     OW21151   1.202  10.229   7.647
39771SOL    HW121152   1.215  10.266   7.734
39771SOL    HW221153   1.271  10.163   7.639
39772SOL     OW21154  12.124  11.108   9.790
39772SOL    HW121155  12.168  11.135   9.870
39772SOL    HW221156  12.039  11.153   9.792
39773SOL     OW21157   0.712   4.773   8.720
39773SOL    HW121158   0.776   4.809   8.782
39773SOL    HW221159   0.762   4.756   8.641
39774SOL     OW21160   7.613   1.623   3.130
39774SOL    HW121161   7.623   1.529   3.122
39774SOL    HW221162   7.656   1.645   3.213
39775SOL     OW21163   4.849  10.647  14.817
39775SOL    HW121164   4.760  10.670  14.792
39775SOL    HW221165   4.860  10.687   0.022
39776SOL     OW21166   1.859  12.688   5.880
39776SOL    HW121167   1.909  12.764   5.910
39776SOL    HW221168   1.877  12.683   5.786
39777SOL     OW21169  14.506  11.473   0.174
39777SOL    HW121170  14.468  11.441   0.256
39777SOL    HW221171  14.562  11.402   0.144
39778SOL     OW21172   4.364  14.351   7.649
39778SOL    HW121173   4.282  14.337   7.697
39778SOL    HW221174   4.428  14.370   7.717
39779SOL     OW21175   2.271   5.492  11.120
39779SOL    HW121176   2.213   5.530  11.187
39779SOL    HW221177   2.272   5.399  11.140
39780SOL     OW21178   4.490   4.972   7.383
39780SOL    HW121179   4.495   4.933   7.471
39780SOL    HW221180   4.531   5.058   7.393
39781SOL     OW21181   3.038   8.722  10.359
39781SOL    HW121182   3.078   8.739  10.444
39781SOL    HW221183   3.074   8.637  10.332
39782SOL     OW21184   0.363   9.220   0.078
39782SOL    HW121185   0.333   9.303   0.041
39782SOL    HW221186   0.296   9.195   0.141
39783SOL     OW21187   2.998   9.347  14.115
39783SOL    HW121188   3.076   9.297  14.140
39783SOL    HW221189   3.032   9.433  14.090
39784SOL     OW21190   1.372   1.872   2.761
39784SOL    HW121191   1.367   1.963   2.731
39784SOL    HW221192   1.292   1.859   2.811
39785SOL     OW21193   7.328  10.300  13.728
39785SOL    HW121194   7.266  10.306  13.800
39785SOL    HW221195   7.340  10.206  13.715
39786SOL     OW21196  14.519   4.906   3.592
39786SOL    HW121197  14.472   4.984   3.564
39786SOL    HW221198  14.593   4.940   3.642
39787SOL     OW21199  12.339   7.421   1.122
39787SOL    HW121200  12.249   7.446   1.100
39787SOL    HW221201  12.337   7.402   1.215
39788SOL     OW21202   8.900  14.218   6.303
39788SOL    HW121203   8.825  14.277   6.312
39788SOL    HW221204   8.940  14.217   6.391
39789SOL     OW21205   3.640   3.156   2.693
39789SOL    HW121206   3.567   3.155   2.631
39789SOL    HW221207   3.704   3.095   2.657
39790SOL     OW21208   0.178   5.556  10.039
39790SOL    HW121209   0.102   5.550  10.097
39790SOL    HW221210   0.222   5.637  10.065
39791SOL     OW21211   0.243   2.499  13.146
39791SOL    HW121212   0.209   2.589  13.146
39791SOL    HW221213   0.212   2.461  13.228
39792SOL     OW21214   9.520   3.238   8.664
39792SOL    HW121215   9.504   3.270   8.576
39792SOL    HW221216   9.546   3.316   8.713
39793SOL     OW21217   4.633   0.987   7.900
39793SOL    HW121218   4.547   1.000   7.859
39793SOL    HW221219   4.696   1.007   7.831
39794SOL     OW21220  13.406   6.229   1.981
39794SOL    HW121221  13.501   6.214   1.974
39794SOL    HW221222  13.395   6.323   1.967
39795SOL     OW21223   8.792   2.347   8.487
39795SOL    HW121224   8.758   2.401   8.557
39795SOL    HW221225   8.716   2.302   8.451
39796SOL     OW21226  13.416   5.817  12.254
39796SOL    HW121227  13.419   5.721  12.256
39796SOL    HW221228  13.325   5.839  12.274
39797SOL     OW21229   1.295   4.993   7.632
39797SOL    HW121230   1.215   4.997   7.684
39797SOL    HW221231   1.280   5.055   7.560
39798SOL     OW21232   8.081  10.037   4.639
39798SOL    HW121233   8.064  10.081   4.722
39798SOL    HW221234   8.125   9.956   4.663
39799SOL     OW21235   2.350   3.441  14.243
39799SOL    HW121236   2.344   3.466  14.335
39799SOL    HW221237   2.264   3.406  14.222
39800SOL     OW21238   2.456   1.023  12.972
39800SOL    HW121239   2.492   0.940  12.941
39800SOL    HW221240   2.412   1.059  12.895
39801SOL     OW21241   2.648  11.970   5.459
39801SOL    HW121242   2.602  11.915   5.395
39801SOL    HW221243   2.714  11.911   5.497
39802SOL     OW21244   3.985  12.101   9.189
39802SOL    HW121245   3.924  12.027   9.182
39802SOL    HW221246   3.929  12.178   9.185
39803SOL     OW21247   1.801  11.919   2.915
39803SOL    HW121248   1.818  11.913   2.821
39803SOL    HW221249   1.831  12.006   2.939
39804SOL     OW21250   7.843   5.270   5.949
39804SOL    HW121251   7.796   5.323   5.885
39804SOL    HW221252   7.911   5.225   5.898
39805SOL     OW21253   0.522   6.513   9.807
39805SOL    HW121254   0.460   6.531   9.878
39805SOL    HW221255   0.468   6.478   9.736
39806SOL     OW21256   0.060   4.758   4.524
39806SOL    HW121257  14.880   4.736   4.594
39806SOL    HW221258   0.005   4.771   4.447
39807SOL     OW21259   0.106   0.297   8.781
39807SOL    HW121260   0.201   0.296   8.797
39807SOL    HW221261   0.078   0.208   8.802
39808SOL     OW21262  10.705   6.161   2.773
39808SOL    HW121263  10.670   6.110   2.700
39808SOL    HW221264  10.628   6.193   2.819
39809SOL     OW21265   6.066   9.487  12.573
39809SOL    HW121266   6.004   9.496  12.645
39809SOL    HW221267   6.077   9.577  12.540
39810SOL     OW21268   4.969  12.816  14.626
39810SOL    HW121269   4.880  12.808  14.659
39810SOL    HW221270   4.969  12.767  14.544
39811SOL     OW21271   1.677  13.193   9.093
39811SOL    HW121272   1.611  13.262   9.104
39811SOL    HW221273   1.756  13.229   9.132
39812SOL     OW21274   4.420  10.326  14.485
39812SOL    HW121275   4.473  10.351  14.410
39812SOL    HW221276   4.479  10.333  14.560
39813SOL     OW21277   0.608  14.300   1.175
39813SOL    HW121278   0.614  14.236   1.245
39813SOL    HW221279   0.653  14.259   1.101
39814SOL     OW21280  12.354   7.147   4.707
39814SOL    HW121281  12.412   7.076   4.737
39814SOL    HW221282  12.380   7.163   4.617
39815SOL     OW21283   5.621   9.736   6.391
39815SOL    HW121284   5.664   9.651   6.384
39815SOL    HW221285   5.650   9.770   6.476
39816SOL     OW21286   2.874   7.411  10.357
39816SOL    HW121287   2.855   7.437  10.448
39816SOL    HW221288   2.836   7.324  10.349
39817SOL     OW21289  11.778   9.951   1.168
39817SOL    HW121290  11.781   9.999   1.085
39817SOL    HW221291  11.685   9.931   1.181
39818SOL     OW21292  13.243   1.778   3.041
39818SOL    HW121293  13.283   1.847   3.095
39818SOL    HW221294  13.174   1.823   2.993
39819SOL     OW21295   3.581   2.365  13.522
39819SOL    HW121296   3.548   2.348  13.433
39819SOL    HW221297   3.623   2.283  13.548
39820SOL     OW21298   6.894   3.611   5.524
39820SOL    HW121299   6.946   3.633   5.447
39820SOL    HW221300   6.956   3.574   5.586
39821SOL     OW21301   7.871  11.271  11.135
39821SOL    HW121302   7.873  11.237  11.224
39821SOL    HW221303   7.962  11.272  11.107
39822SOL     OW21304  10.390   4.536  12.112
39822SOL    HW121305  10.356   4.586  12.038
39822SOL    HW221306  10.458   4.480  12.073
39823SOL     OW21307  13.892   3.332  14.251
39823SOL    HW121308  13.797   3.337  14.241
39823SOL    HW221309  13.911   3.239  14.252
39824SOL     OW21310   1.136  10.975   6.759
39824SOL    HW121311   1.087  11.028   6.822
39824SOL    HW221312   1.221  10.962   6.801
39825SOL     OW21313  11.144   0.587   6.322
39825SOL    HW121314  11.160   0.681   6.327
39825SOL    HW221315  11.186   0.551   6.400
39826SOL     OW21316   9.464  11.865  14.323
39826SOL    HW121317   9.532  11.929  14.302
39826SOL    HW221318   9.391  11.887  14.264
39827SOL     OW21319   5.414   9.463   7.893
39827SOL    HW121320   5.408   9.516   7.813
39827SOL    HW221321   5.402   9.525   7.964
39828SOL     OW21322  13.679   0.118  10.423
39828SOL    HW121323  13.659   0.212  10.418
39828SOL    HW221324  13.758   0.108  10.369
39829SOL     OW21325   4.599   7.102   7.465
39829SOL    HW121326   4.691   7.076   7.473
39829SOL    HW221327   4.596   7.190   7.505
39830SOL     OW21328   8.177   8.486   1.482
39830SOL    HW121329   8.265   8.521   1.473
39830SOL    HW221330   8.169   8.422   1.411
39831SOL     OW21331   3.933   0.671  11.325
39831SOL    HW121332   3.967   0.731  11.391
39831SOL    HW221333   3.999   0.602  11.320
39832SOL     OW21334  12.689   0.912   6.001
39832SOL    HW121335  12.623   0.977   6.026
39832SOL    HW221336  12.747   0.906   6.076
39833SOL     OW21337   7.888  12.641   6.304
39833SOL    HW121338   7.878  12.720   6.251
39833SOL    HW221339   7.802  12.599   6.302
39834SOL     OW21340  12.467  13.777  13.451
39834SOL    HW121341  12.523  13.746  13.522
39834SOL    HW221342  12.390  13.719  13.455
39835SOL     OW21343   4.430  14.160   8.474
39835SOL    HW121344   4.439  14.073   8.514
39835SOL    HW221345   4.340  14.186   8.492
39836SOL     OW21346   3.421  11.894   0.587
39836SOL    HW121347   3.446  11.983   0.611
39836SOL    HW221348   3.415  11.847   0.670
39837SOL     OW21349   3.339   6.310   0.456
39837SOL    HW121350   3.400   6.317   0.383
39837SOL    HW221351   3.278   6.241   0.430
39838SOL     OW21352  13.700   4.311   0.362
39838SOL    HW121353  13.630   4.247   0.348
39838SOL    HW221354  13.730   4.332   0.273
39839SOL     OW21355   7.854  11.863   6.833
39839SOL    HW121356   7.930  11.858   6.891
39839SOL    HW221357   7.779  11.869   6.891
39840SOL     OW21358   4.441   2.230  12.849
39840SOL    HW121359   4.524   2.199  12.814
39840SOL    HW221360   4.404   2.284  12.779
39841SOL     OW21361   4.825  11.212  11.677
39841SOL    HW121362   4.836  11.200  11.772
39841SOL    HW221363   4.874  11.140  11.638
39842SOL     OW21364   6.870  13.605   6.440
39842SOL    HW121365   6.941  13.542   6.455
39842SOL    HW221366   6.793  13.565   6.481
39843SOL     OW21367   3.999  14.819  13.658
39843SOL    HW121368   3.951  14.779  13.730
39843SOL    HW221369   4.078  14.855  13.699
39844SOL     OW21370   8.262   7.175  13.328
39844SOL    HW121371   8.312   7.244  13.285
39844SOL    HW221372   8.306   7.163  13.412
39845SOL     OW21373  10.125   4.435   4.987
39845SOL    HW121374  10.199   4.460   5.042
39845SOL    HW221375  10.149   4.349   4.952
39846SOL     OW21376   6.887   1.324   5.979
39846SOL    HW121377   6.919   1.296   6.065
39846SOL    HW221378   6.827   1.254   5.952
39847SOL     OW21379  12.396   6.014  10.595
39847SOL    HW121380  12.480   5.998  10.552
39847SOL    HW221381  12.414   5.999  10.688
39848SOL     OW21382  12.569   3.054   4.948
39848SOL    HW121383  12.610   3.073   4.863
39848SOL    HW221384  12.579   2.960   4.959
39849SOL     OW21385   4.305  12.854   3.330
39849SOL    HW121386   4.243  12.926   3.341
39849SOL    HW221387   4.251  12.780   3.302
39850SOL     OW21388   9.941   9.445   2.694
39850SOL    HW121389   9.900   9.532   2.694
39850SOL    HW221390   9.945   9.420   2.787
39851SOL     OW21391   8.025   2.543   2.417
39851SOL    HW121392   8.018   2.627   2.372
39851SOL    HW221393   8.101   2.501   2.376
39852SOL     OW21394  14.190   4.930   1.186
39852SOL    HW121395  14.240   4.853   1.161
39852SOL    HW221396  14.245   4.975   1.250
39853SOL     OW21397   6.376  13.348   3.731
39853SOL    HW121398   6.445  13.406   3.699
39853SOL    HW221399   6.389  13.346   3.826
39854SOL     OW21400   5.607  10.784   6.320
39854SOL    HW121401   5.589  10.695   6.352
39854SOL    HW221402   5.701  10.784   6.301
39855SOL     OW21403   6.590   3.640   8.227
39855SOL    HW121404   6.609   3.727   8.194
39855SOL    HW221405   6.668   3.588   8.207
39856SOL     OW21406  12.134   2.661  10.722
39856SOL    HW121407  12.121   2.569  10.699
39856SOL    HW221408  12.057   2.705  10.687
39857SOL     OW21409   0.045   8.196   4.967
39857SOL    HW121410   0.098   8.272   4.991
39857SOL    HW221411  14.878   8.175   5.047
39858SOL     OW21412  11.593  10.065   0.485
39858SOL    HW121413  11.585  10.153   0.450
39858SOL    HW221414  11.537  10.065   0.563
39859SOL     OW21415   9.518   4.424   0.950
39859SOL    HW121416   9.450   4.457   1.008
39859SOL    HW221417   9.599   4.433   1.000
39860SOL     OW21418   7.660   1.363   8.114
39860SOL    HW121419   7.713   1.318   8.047
39860SOL    HW221420   7.570   1.340   8.091
39861SOL     OW21421   7.651   4.111   3.853
39861SOL    HW121422   7.731   4.065   3.827
39861SOL    HW221423   7.620   4.150   3.772
39862SOL     OW21424   5.880   3.504   9.813
39862SOL    HW121425   5.787   3.521   9.798
39862SOL    HW221426   5.890   3.410   9.798
39863SOL     OW21427   4.868  11.068   9.597
39863SOL    HW121428   4.935  11.120   9.553
39863SOL    HW221429   4.890  10.977   9.576
39864SOL     OW21430  12.549  14.510  14.031
39864SOL    HW121431  12.590  14.448  14.091
39864SOL    HW221432  12.530  14.587  14.085
39865SOL     OW21433   6.888  10.288   3.766
39865SOL    HW121434   6.935  10.208   3.789
39865SOL    HW221435   6.933  10.322   3.688
39866SOL     OW21436   2.441   7.301   4.816
39866SOL    HW121437   2.514   7.245   4.842
39866SOL    HW221438   2.365   7.264   4.861
39867SOL     OW21439   3.641   3.432  14.651
39867SOL    HW121440   3.588   3.460  14.576
39867SOL    HW221441   3.592   3.359  14.689
39868SOL     OW21442   7.192   5.041   1.341
39868SOL    HW121443   7.234   5.063   1.258
39868SOL    HW221444   7.140   5.118   1.363
39869SOL     OW21445   9.802   2.348   0.517
39869SOL    HW121446   9.848   2.348   0.601
39869SOL    HW221447   9.797   2.441   0.492
39870SOL     OW21448  12.977   0.026  14.103
39870SOL    HW121449  12.958  14.822  14.068
39870SOL    HW221450  12.965   0.017  14.197
39871SOL     OW21451   6.563   7.724  11.204
39871SOL    HW121452   6.620   7.801  11.201
39871SOL    HW221453   6.567   7.687  11.116
39872SOL     OW21454   4.222  12.707   5.057
39872SOL    HW121455   4.142  12.733   5.103
39872SOL    HW221456   4.224  12.612   5.062
39873SOL     OW21457   0.256  13.596   7.191
39873SOL    HW121458   0.260  13.681   7.146
39873SOL    HW221459   0.273  13.532   7.122
39874SOL     OW21460   9.193   6.270   0.468
39874SOL    HW121461   9.273   6.315   0.440
39874SOL    HW221462   9.173   6.210   0.397
39875SOL     OW21463  11.720   7.845   0.287
39875SOL    HW121464  11.737   7.857   0.380
39875SOL    HW221465  11.806   7.826   0.249
39876SOL     OW21466   5.936  13.520   7.106
39876SOL    HW121467   5.983  13.583   7.160
39876SOL    HW221468   5.928  13.563   7.020
39877SOL     OW21469   1.841  12.062  11.458
39877SOL    HW121470   1.927  12.041  11.494
39877SOL    HW221471   1.853  12.062  11.363
39878SOL     OW21472   5.254  13.367   0.259
39878SOL    HW121473   5.279  13.437   0.319
39878SOL    HW221474   5.328  13.360   0.198
39879SOL     OW21475   1.288  11.709   7.995
39879SOL    HW121476   1.282  11.804   8.005
39879SOL    HW221477   1.198  11.678   8.003
39880SOL     OW21478  11.886  14.342  11.961
39880SOL    HW121479  11.873  14.395  11.883
39880SOL    HW221480  11.802  14.298  11.974
39881SOL     OW21481  11.523   4.817   5.711
39881SOL    HW121482  11.608   4.781   5.737
39881SOL    HW221483  11.513   4.896   5.764
39882SOL     OW21484  10.000   3.067   2.294
39882SOL    HW121485   9.910   3.089   2.269
39882SOL    HW221486  10.052   3.143   2.267
39883SOL     OW21487  14.397   4.007   6.722
39883SOL    HW121488  14.409   4.068   6.795
39883SOL    HW221489  14.476   3.953   6.722
39884SOL     OW21490   0.993   5.359  13.127
39884SOL    HW121491   0.921   5.410  13.090
39884SOL    HW221492   1.046   5.334  13.051
39885SOL     OW21493   3.235  14.678   1.650
39885SOL    HW121494   3.271  14.619   1.716
39885SOL    HW221495   3.278  14.652   1.568
39886SOL     OW21496  14.095   7.653  10.390
39886SOL    HW121497  14.086   7.632  10.483
39886SOL    HW221498  14.091   7.748  10.386
39887SOL     OW21499  10.351  10.205   3.388
39887SOL    HW121500  10.393  10.248   3.463
39887SOL    HW221501  10.258  10.227   3.397
39888SOL     OW21502  10.363  11.945  14.472
39888SOL    HW121503  10.411  11.864  14.489
39888SOL    HW221504  10.324  11.968  14.557
39889SOL     OW21505   9.795   8.695  13.034
39889SOL    HW121506   9.713   8.692  12.986
39889SOL    HW221507   9.836   8.777  13.007
39890SOL     OW21508  12.553   1.281  14.613
39890SOL    HW121509  12.505   1.302  14.533
39890SOL    HW221510  12.558   1.364  14.660
39891SOL     OW21511   5.909  10.876  14.756
39891SOL    HW121512   5.994  10.868  14.714
39891SOL    HW221513   5.871  10.955  14.719
39892SOL     OW21514  11.317  11.510   8.347
39892SOL    HW121515  11.400  11.465   8.330
39892SOL    HW221516  11.250  11.453   8.308
39893SOL     OW21517   0.374  10.214  14.788
39893SOL    HW121518   0.305  10.182  14.730
39893SOL    HW221519   0.440  10.250  14.729
39894SOL     OW21520   5.359   6.784   9.306
39894SOL    HW121521   5.437   6.805   9.254
39894SOL    HW221522   5.288   6.777   9.243
39895SOL     OW21523   4.528   6.513  11.506
39895SOL    HW121524   4.463   6.481  11.569
39895SOL    HW221525   4.499   6.602  11.484
39896SOL     OW21526  14.043   9.312  14.419
39896SOL    HW121527  14.031   9.239  14.479
39896SOL    HW221528  14.111   9.283  14.358
39897SOL     OW21529  10.896  13.839   1.851
39897SOL    HW121530  10.855  13.801   1.772
39897SOL    HW221531  10.987  13.811   1.846
39898SOL     OW21532   1.243  14.145   8.566
39898SOL    HW121533   1.274  14.092   8.639
39898SOL    HW221534   1.310  14.213   8.555
39899SOL     OW21535   9.390  14.323   0.245
39899SOL    HW121536   9.406  14.281   0.160
39899SOL    HW221537   9.305  14.366   0.235
39900SOL     OW21538  11.946   8.445  11.486
39900SOL    HW121539  11.998   8.375  11.446
39900SOL    HW221540  11.972   8.444  11.578
39901SOL     OW21541   6.369  11.879  10.892
39901SOL    HW121542   6.328  11.911  10.973
39901SOL    HW221543   6.296  11.866  10.832
39902SOL     OW21544   8.638  13.086   2.124
39902SOL    HW121545   8.556  13.078   2.075
39902SOL    HW221546   8.639  13.010   2.182
39903SOL     OW21547  10.217   5.116   6.722
39903SOL    HW121548  10.201   5.030   6.682
39903SOL    HW221549  10.312   5.121   6.729
39904SOL     OW21550   0.794  11.093  13.751
39904SOL    HW121551   0.822  11.003  13.769
39904SOL    HW221552   0.784  11.095  13.655
39905SOL     OW21553   2.182   4.007  13.958
39905SOL    HW121554   2.256   3.981  13.903
39905SOL    HW221555   2.211   4.088  14.001
39906SOL     OW21556  13.390   7.772   8.451
39906SOL    HW121557  13.311   7.799   8.498
39906SOL    HW221558  13.407   7.683   8.481
39907SOL     OW21559   5.760   5.688   4.426
39907SOL    HW121560   5.688   5.637   4.465
39907SOL    HW221561   5.839   5.650   4.463
39908SOL     OW21562   1.971   4.035  14.171
39908SOL    HW121563   1.992   3.974  14.100
39908SOL    HW221564   2.054   4.077  14.192
39909SOL     OW21565   3.988  14.101   7.385
39909SOL    HW121566   3.977  14.007   7.376
39909SOL    HW221567   4.082  14.114   7.395
39910SOL     OW21568   7.386  13.723   6.886
39910SOL    HW121569   7.381  13.793   6.820
39910SOL    HW221570   7.419  13.767   6.964
39911SOL     OW21571   1.718  13.194   5.275
39911SOL    HW121572   1.721  13.275   5.327
39911SOL    HW221573   1.676  13.130   5.333
39912SOL     OW21574   1.004   8.596  12.631
39912SOL    HW121575   0.975   8.669  12.577
39912SOL    HW221576   1.004   8.521  12.571
39913SOL     OW21577   6.888   9.370   8.874
39913SOL    HW121578   6.940   9.309   8.928
39913SOL    HW221579   6.927   9.363   8.787
39914SOL     OW21580   1.069   6.465  10.020
39914SOL    HW121581   1.138   6.516  10.063
39914SOL    HW221582   1.043   6.400  10.085
39915SOL     OW21583   5.345   7.260   3.168
39915SOL    HW121584   5.423   7.229   3.123
39915SOL    HW221585   5.370   7.344   3.205
39916SOL     OW21586   1.565   4.705   2.123
39916SOL    HW121587   1.535   4.681   2.035
39916SOL    HW221588   1.612   4.788   2.111
39917SOL     OW21589   0.697   5.450  14.479
39917SOL    HW121590   0.731   5.495  14.401
39917SOL    HW221591   0.678   5.520  14.541
39918SOL     OW21592  13.738  13.698   0.615
39918SOL    HW121593  13.685  13.642   0.558
39918SOL    HW221594  13.692  13.696   0.699
39919SOL     OW21595   8.779   8.252   5.811
39919SOL    HW121596   8.835   8.209   5.746
39919SOL    HW221597   8.759   8.337   5.772
39920SOL     OW21598   9.510   9.883   7.506
39920SOL    HW121599   9.486   9.975   7.494
39920SOL    HW221600   9.582   9.868   7.445
39921SOL     OW21601   5.813  12.911   1.000
39921SOL    HW121602   5.904  12.884   0.995
39921SOL    HW221603   5.786  12.887   1.089
39922SOL     OW21604   1.888   6.487   0.350
39922SOL    HW121605   1.981   6.488   0.330
39922SOL    HW221606   1.845   6.512   0.268
39923SOL     OW21607   3.478   4.931  12.148
39923SOL    HW121608   3.459   4.861  12.086
39923SOL    HW221609   3.463   4.891  12.234
39924SOL     OW21610   3.712   9.964  10.428
39924SOL    HW121611   3.649   9.953  10.356
39924SOL    HW221612   3.712  10.059  10.445
39925SOL     OW21613  11.846  12.583  11.261
39925SOL    HW121614  11.930  12.584  11.216
39925SOL    HW221615  11.857  12.645  11.333
39926SOL     OW21616   8.933   0.577   8.905
39926SOL    HW121617   8.881   0.654   8.930
39926SOL    HW221618   8.956   0.537   8.989
39927SOL     OW21619   8.051   3.462   1.271
39927SOL    HW121620   8.079   3.372   1.253
39927SOL    HW221621   8.033   3.499   1.185
39928SOL     OW21622  11.688   4.341  10.745
39928SOL    HW121623  11.623   4.271  10.753
39928SOL    HW221624  11.745   4.312  10.674
39929SOL     OW21625   2.692  14.756   9.206
39929SOL    HW121626   2.715  14.688   9.270
39929SOL    HW221627   2.733  14.836   9.238
39930SOL     OW21628  14.260   0.589  12.883
39930SOL    HW121629  14.257   0.669  12.831
39930SOL    HW221630  14.336   0.542  12.850
39931SOL     OW21631   9.748  14.581   0.603
39931SOL    HW121632   9.820  14.644   0.598
39931SOL    HW221633   9.708  14.583   0.516
39932SOL     OW21634  11.525  10.532   1.409
39932SOL    HW121635  11.611  10.491   1.395
39932SOL    HW221636  11.537  10.586   1.487
39933SOL     OW21637  13.603  10.083   5.939
39933SOL    HW121638  13.573  10.111   6.026
39933SOL    HW221639  13.656  10.005   5.956
39934SOL     OW21640  14.173   5.831  10.291
39934SOL    HW121641  14.194   5.862  10.379
39934SOL    HW221642  14.087   5.866  10.272
39935SOL     OW21643   7.492   4.334   1.557
39935SOL    HW121644   7.527   4.400   1.497
39935SOL    HW221645   7.566   4.310   1.613
39936SOL     OW21646  13.040   0.709   4.444
39936SOL    HW121647  13.126   0.740   4.470
39936SOL    HW221648  12.986   0.788   4.439
39937SOL     OW21649   0.565   9.206  14.219
39937SOL    HW121650   0.474   9.226  14.197
39937SOL    HW221651   0.615   9.231  14.141
39938SOL     OW21652   3.044   9.271   1.600
39938SOL    HW121653   3.125   9.222   1.582
39938SOL    HW221654   3.018   9.242   1.687
39939SOL     OW21655   7.689  14.133   0.100
39939SOL    HW121656   7.627  14.111   0.169
39939SOL    HW221657   7.740  14.206   0.135
39940SOL     OW21658   8.029   6.608   5.243
39940SOL    HW121659   8.003   6.686   5.194
39940SOL    HW221660   7.958   6.546   5.228
39941SOL     OW21661   8.350   1.499  13.277
39941SOL    HW121662   8.270   1.522  13.230
39941SOL    HW221663   8.415   1.561  13.245
39942SOL     OW21664   3.380  13.846   7.747
39942SOL    HW121665   3.415  13.912   7.686
39942SOL    HW221666   3.457  13.804   7.785
39943SOL     OW21667   0.975  14.785  10.188
39943SOL    HW121668   1.033  14.720  10.149
39943SOL    HW221669   0.937  14.831  10.113
39944SOL     OW21670   1.166   1.659   9.121
39944SOL    HW121671   1.228   1.623   9.058
39944SOL    HW221672   1.083   1.618   9.099
39945SOL     OW21673  12.879  14.731   3.809
39945SOL    HW121674  12.968  14.699   3.821
39945SOL    HW221675  12.850  14.755   3.897
39946SOL     OW21676   5.255   8.284  11.858
39946SOL    HW121677   5.202   8.363  11.848
39946SOL    HW221678   5.328   8.295  11.797
39947SOL     OW21679   6.004  11.155   9.465
39947SOL    HW121680   6.043  11.168   9.378
39947SOL    HW221681   6.076  11.121   9.519
39948SOL     OW21682   8.749   4.593   1.431
39948SOL    HW121683   8.694   4.547   1.367
39948SOL    HW221684   8.758   4.681   1.396
39949SOL     OW21685  10.205   2.521   1.787
39949SOL    HW121686  10.238   2.515   1.877
39949SOL    HW221687  10.217   2.433   1.751
39950SOL     OW21688   0.761   5.382   4.711
39950SOL    HW121689   0.843   5.366   4.664
39950SOL    HW221690   0.729   5.295   4.734
39951SOL     OW21691   5.244   1.018   9.651
39951SOL    HW121692   5.221   1.095   9.598
39951SOL    HW221693   5.238   1.050   9.741
39952SOL     OW21694   4.591   1.274   8.353
39952SOL    HW121695   4.516   1.298   8.297
39952SOL    HW221696   4.626   1.195   8.313
39953SOL     OW21697   9.273  14.353   7.979
39953SOL    HW121698   9.298  14.261   7.969
39953SOL    HW221699   9.308  14.396   7.901
39954SOL     OW21700  12.071  11.521   2.926
39954SOL    HW121701  12.130  11.566   2.866
39954SOL    HW221702  12.055  11.436   2.886
39955SOL     OW21703   4.282  12.469  11.244
39955SOL    HW121704   4.261  12.464  11.151
39955SOL    HW221705   4.198  12.478  11.288
39956SOL     OW21706   5.332   1.753   2.884
39956SOL    HW121707   5.276   1.790   2.815
39956SOL    HW221708   5.421   1.777   2.858
39957SOL     OW21709   8.635   2.667   8.375
39957SOL    HW121710   8.680   2.694   8.454
39957SOL    HW221711   8.699   2.680   8.305
39958SOL     OW21712  10.851   2.783   0.013
39958SOL    HW121713  10.837   2.760  14.803
39958SOL    HW221714  10.814   2.871   0.021
39959SOL     OW21715   3.440   3.160   8.648
39959SOL    HW121716   3.452   3.254   8.639
39959SOL    HW221717   3.529   3.124   8.647
39960SOL     OW21718   0.115  12.783   0.340
39960SOL    HW121719   0.066  12.747   0.266
39960SOL    HW221720   0.084  12.873   0.347
39961SOL     OW21721   1.983  14.324   7.782
39961SOL    HW121722   1.915  14.258   7.794
39961SOL    HW221723   1.991  14.366   7.868
39962SOL     OW21724   1.427  14.420   9.350
39962SOL    HW121725   1.508  14.426   9.300
39962SOL    HW221726   1.393  14.509   9.353
39963SOL     OW21727   2.965  14.185  10.928
39963SOL    HW121728   2.959  14.252  10.995
39963SOL    HW221729   2.878  14.184  10.886
39964SOL     OW21730   9.471   8.447  14.159
39964SOL    HW121731   9.503   8.376  14.103
39964SOL    HW221732   9.547   8.503  14.174
39965SOL     OW21733  13.890   0.884   1.012
39965SOL    HW121734  13.831   0.918   0.945
39965SOL    HW221735  13.926   0.961   1.055
39966SOL     OW21736  10.686   0.744   8.213
39966SOL    HW121737  10.734   0.825   8.193
39966SOL    HW221738  10.629   0.767   8.286
39967SOL     OW21739  12.735  11.512   9.452
39967SOL    HW121740  12.694  11.581   9.399
39967SOL    HW221741  12.764  11.557   9.532
39968SOL     OW21742   6.954   6.686  12.689
39968SOL    HW121743   6.886   6.637  12.643
39968SOL    HW221744   6.908   6.757  12.732
39969SOL     OW21745  12.887  14.534   8.533
39969SOL    HW121746  12.809  14.490   8.567
39969SOL    HW221747  12.919  14.477   8.463
39970SOL     OW21748   7.347  11.671  13.739
39970SOL    HW121749   7.279  11.630  13.687
39970SOL    HW221750   7.414  11.697  13.676
39971SOL     OW21751   7.842   0.855   8.315
39971SOL    HW121752   7.816   0.810   8.235
39971SOL    HW221753   7.813   0.945   8.302
39972SOL     OW21754   2.218  14.393   2.092
39972SOL    HW121755   2.191  14.304   2.116
39972SOL    HW221756   2.276  14.381   2.017
39973SOL     OW21757  14.044  13.919   4.825
39973SOL    HW121758  14.081  13.997   4.784
39973SOL    HW221759  13.949  13.933   4.822
39974SOL     OW21760   3.437  10.698  14.309
39974SOL    HW121761   3.511  10.648  14.344
39974SOL    HW221762   3.397  10.640  14.245
39975SOL     OW21763  14.587   8.482  12.144
39975SOL    HW121764  14.498   8.457  12.167
39975SOL    HW221765  14.640   8.447  12.216
39976SOL     OW21766   0.664   4.096  11.579
39976SOL    HW121767   0.572   4.125  11.578
39976SOL    HW221768   0.667   4.027  11.512
39977SOL     OW21769   3.700  14.362   9.592
39977SOL    HW121770   3.655  14.445   9.574
39977SOL    HW221771   3.702  14.356   9.687
39978SOL     OW21772  12.928  10.742   8.260
39978SOL    HW121773  12.893  10.740   8.171
39978SOL    HW221774  12.854  10.721   8.316
39979SOL     OW21775   2.981   3.975   5.807
39979SOL    HW121776   3.041   4.037   5.849
39979SOL    HW221777   2.909   4.029   5.775
39980SOL     OW21778  13.126   0.670   3.384
39980SOL    HW121779  13.099   0.754   3.348
39980SOL    HW221780  13.190   0.693   3.452
39981SOL     OW21781   5.510   1.891   3.083
39981SOL    HW121782   5.424   1.860   3.053
39981SOL    HW221783   5.554   1.918   3.002
39982SOL     OW21784  11.007   5.379   4.104
39982SOL    HW121785  11.075   5.402   4.167
39982SOL    HW221786  10.927   5.417   4.141
39983SOL     OW21787   7.694  10.078  13.894
39983SOL    HW121788   7.621  10.122  13.938
39983SOL    HW221789   7.736  10.148  13.843
39984SOL     OW21790   9.757  10.557  10.607
39984SOL    HW121791   9.806  10.532  10.529
39984SOL    HW221792   9.665  10.543  10.584
39985SOL     OW21793   5.517  11.705  11.907
39985SOL    HW121794   5.440  11.696  11.964
39985SOL    HW221795   5.578  11.638  11.937
39986SOL     OW21796   8.539   1.646   4.698
39986SOL    HW121797   8.494   1.729   4.682
39986SOL    HW221798   8.476   1.594   4.748
39987SOL     OW21799   9.457  10.533   6.078
39987SOL    HW121800   9.408  10.460   6.116
39987SOL    HW221801   9.456  10.600   6.146
39988SOL     OW21802   6.335  13.339   2.853
39988SOL    HW121803   6.287  13.416   2.821
39988SOL    HW221804   6.334  13.278   2.779
39989SOL     OW21805  10.719   3.650   7.024
39989SOL    HW121806  10.680   3.612   6.946
39989SOL    HW221807  10.659   3.721   7.049
39990SOL     OW21808   9.229   6.528  14.073
39990SOL    HW121809   9.156   6.478  14.038
39990SOL    HW221810   9.273   6.468  14.133
39991SOL     OW21811   0.268   2.484   5.669
39991SOL    HW121812   0.283   2.519   5.581
39991SOL    HW221813   0.186   2.435   5.662
39992SOL     OW21814   6.514   4.676   3.810
39992SOL    HW121815   6.441   4.616   3.792
39992SOL    HW221816   6.532   4.718   3.726
39993SOL     OW21817   9.296  14.401  14.442
39993SOL    HW121818   9.289  14.326  14.383
39993SOL    HW221819   9.390  14.410  14.458
39994SOL     OW21820   0.317   3.048  10.436
39994SOL    HW121821   0.230   3.031  10.400
39994SOL    HW221822   0.357   2.961  10.444
39995SOL     OW21823   7.056   1.267   2.419
39995SOL    HW121824   7.062   1.280   2.324
39995SOL    HW221825   7.142   1.293   2.452
39996SOL     OW21826  12.342   0.433   4.427
39996SOL    HW121827  12.334   0.341   4.401
39996SOL    HW221828  12.429   0.458   4.397
39997SOL     OW21829  10.089  12.911   8.067
39997SOL    HW121830  10.065  13.003   8.058
39997SOL    HW221831  10.052  12.884   8.151
39998SOL     OW21832  13.956   1.349   0.725
39998SOL    HW121833  14.048   1.352   0.698
39998SOL    HW221834  13.917   1.280   0.671
39999SOL     OW21835   2.176   5.008  14.404
39999SOL    HW121836   2.134   4.926  14.380
39999SOL    HW221837   2.116   5.049  14.467
40000SOL     OW21838   4.696   9.028   7.892
40000SOL    HW121839   4.725   8.937   7.900
40000SOL    HW221840   4.753   9.077   7.951
40001SOL     OW21841   1.953   0.239   6.885
40001SOL    HW121842   2.027   0.228   6.826
40001SOL    HW221843   1.993   0.245   6.972
40002SOL     OW21844  13.479  12.772   4.575
40002SOL    HW121845  13.570  12.749   4.593
40002SOL    HW221846  13.427  12.710   4.626
40003SOL     OW21847   5.180   8.458   8.178
40003SOL    HW121848   5.193   8.396   8.106
40003SOL    HW221849   5.267   8.476   8.212
40004SOL     OW21850   5.085   5.861   0.657
40004SOL    HW121851   5.057   5.952   0.664
40004SOL    HW221852   5.169   5.858   0.704
40005SOL     OW21853   2.278   2.042  11.363
40005SOL    HW121854   2.195   1.997  11.351
40005SOL    HW221855   2.337   2.004  11.297
40006SOL     OW21856   2.782   2.510   6.498
40006SOL    HW121857   2.774   2.536   6.406
40006SOL    HW221858   2.868   2.469   6.504
40007SOL     OW21859  13.763  11.684   5.716
40007SOL    HW121860  13.723  11.673   5.802
40007SOL    HW221861  13.770  11.779   5.704
40008SOL     OW21862   8.032   9.986   6.167
40008SOL    HW121863   8.087   9.914   6.134
40008SOL    HW221864   7.999  10.029   6.088
40009SOL     OW21865  12.478  11.463   2.755
40009SOL    HW121866  12.538  11.495   2.823
40009SOL    HW221867  12.488  11.368   2.756
40010SOL     OW21868   2.959   7.773   7.066
40010SOL    HW121869   2.996   7.783   7.154
40010SOL    HW221870   2.924   7.684   7.066
40011SOL     OW21871   2.935   3.771   4.790
40011SOL    HW121872   3.009   3.735   4.839
40011SOL    HW221873   2.873   3.699   4.783
40012SOL     OW21874   4.568  13.979   7.071
40012SOL    HW121875   4.596  14.022   6.990
40012SOL    HW221876   4.646  13.934   7.103
40013SOL     OW21877  12.417  14.168  12.620
40013SOL    HW121878  12.474  14.243  12.604
40013SOL    HW221879  12.365  14.194  12.697
40014SOL     OW21880   7.454   6.736   1.908
40014SOL    HW121881   7.480   6.775   1.992
40014SOL    HW221882   7.369   6.697   1.926
40015SOL     OW21883   5.659  13.787   3.281
40015SOL    HW121884   5.666  13.761   3.373
40015SOL    HW221885   5.596  13.726   3.244
40016SOL     OW21886   4.324   3.109   3.794
40016SOL    HW121887   4.290   3.155   3.717
40016SOL    HW221888   4.273   3.144   3.867
40017SOL     OW21889  11.389  14.300  11.304
40017SOL    HW121890  11.332  14.249  11.361
40017SOL    HW221891  11.452  14.236  11.269
40018SOL     OW21892  14.302   2.311  10.069
40018SOL    HW121893  14.238   2.373  10.036
40018SOL    HW221894  14.347   2.278   9.991
40019SOL     OW21895   1.217  12.853   0.172
40019SOL    HW121896   1.242  12.762   0.187
40019SOL    HW221897   1.130  12.860   0.211
40020SOL     OW21898  10.266  11.730  11.456
40020SOL    HW121899  10.240  11.711  11.366
40020SOL    HW221900  10.304  11.649  11.488
40021SOL     OW21901   7.396   1.038   9.885
40021SOL    HW121902   7.480   1.079   9.867
40021SOL    HW221903   7.419   0.953   9.923
40022SOL     OW21904   6.229   0.170  11.922
40022SOL    HW121905   6.204   0.228  11.850
40022SOL    HW221906   6.305   0.122  11.890
40023SOL     OW21907   2.019  12.638   8.288
40023SOL    HW121908   1.947  12.689   8.325
40023SOL    HW221909   2.065  12.700   8.231
40024SOL     OW21910   0.888  11.583   5.612
40024SOL    HW121911   0.896  11.579   5.708
40024SOL    HW221912   0.801  11.546   5.595
40025SOL     OW21913  12.008  13.858  11.724
40025SOL    HW121914  11.924  13.838  11.684
40025SOL    HW221915  12.064  13.885  11.651
40026SOL     OW21916  11.370   8.608  13.943
40026SOL    HW121917  11.402   8.676  14.002
40026SOL    HW221918  11.365   8.529  13.997
40027SOL     OW21919   1.912   8.495   9.168
40027SOL    HW121920   1.989   8.438   9.174
40027SOL    HW221921   1.946   8.583   9.184
40028SOL     OW21922   1.063   8.564  14.363
40028SOL    HW121923   1.099   8.592  14.279
40028SOL    HW221924   1.092   8.631  14.424
40029SOL     OW21925   7.164   7.577   2.919
40029SOL    HW121926   7.218   7.577   2.998
40029SOL    HW221927   7.089   7.523   2.942
40030SOL     OW21928   4.663   0.337   9.398
40030SOL    HW121929   4.633   0.371   9.314
40030SOL    HW221930   4.741   0.389   9.418
40031SOL     OW21931  11.949   9.287   2.864
40031SOL    HW121932  11.940   9.373   2.822
40031SOL    HW221933  11.974   9.307   2.954
40032SOL     OW21934   3.428  13.967  11.503
40032SOL    HW121935   3.472  14.049  11.522
40032SOL    HW221936   3.422  13.922  11.587
40033SOL     OW21937   2.240   1.630   9.434
40033SOL    HW121938   2.240   1.538   9.458
40033SOL    HW221939   2.279   1.675   9.510
40034SOL     OW21940   1.122  11.819  13.382
40034SOL    HW121941   1.131  11.792  13.290
40034SOL    HW221942   1.202  11.867  13.401
40035SOL     OW21943  11.536  11.438   5.508
40035SOL    HW121944  11.492  11.488   5.577
40035SOL    HW221945  11.627  11.431   5.538
40036SOL     OW21946  11.969  10.175   5.319
40036SOL    HW121947  11.933  10.135   5.239
40036SOL    HW221948  12.032  10.110   5.350
40037SOL     OW21949   3.477  11.196   1.887
40037SOL    HW121950   3.546  11.221   1.949
40037SOL    HW221951   3.397  11.229   1.927
40038SOL     OW21952  12.247   1.031  12.581
40038SOL    HW121953  12.267   1.078  12.662
40038SOL    HW221954  12.292   1.081  12.513
40039SOL     OW21955   9.191  12.368  14.802
40039SOL    HW121956   9.286  12.373  14.802
40039SOL    HW221957   9.172  12.278  14.826
40040SOL     OW21958   9.241  10.276   5.352
40040SOL    HW121959   9.226  10.344   5.418
40040SOL    HW221960   9.247  10.195   5.402
40041SOL     OW21961   5.230   7.569  13.667
40041SOL    HW121962   5.165   7.508  13.702
40041SOL    HW221963   5.269   7.522  13.593
40042SOL     OW21964  12.785   9.915   3.040
40042SOL    HW121965  12.712   9.908   3.101
40042SOL    HW221966  12.850   9.968   3.086
40043SOL     OW21967   8.695   9.097   3.288
40043SOL    HW121968   8.626   9.164   3.280
40043SOL    HW221969   8.686   9.044   3.210
40044SOL     OW21970   9.414  12.383   4.888
40044SOL    HW121971   9.493  12.337   4.917
40044SOL    HW221972   9.347  12.359   4.953
40045SOL     OW21973   6.889   4.290   8.549
40045SOL    HW121974   6.920   4.227   8.614
40045SOL    HW221975   6.812   4.331   8.589
40046SOL     OW21976   9.603  11.557   4.662
40046SOL    HW121977   9.685  11.507   4.666
40046SOL    HW221978   9.598  11.588   4.572
40047SOL     OW21979  12.949   3.205   7.954
40047SOL    HW121980  13.028   3.259   7.951
40047SOL    HW221981  12.880   3.263   7.922
40048SOL     OW21982  10.661   5.724   3.370
40048SOL    HW121983  10.581   5.731   3.424
40048SOL    HW221984  10.673   5.630   3.358
40049SOL     OW21985   7.053   8.091   8.352
40049SOL    HW121986   7.102   8.109   8.272
40049SOL    HW221987   6.962   8.112   8.329
40050SOL     OW21988   9.234   0.501  10.673
40050SOL    HW121989   9.148   0.542  10.684
40050SOL    HW221990   9.216   0.407  10.666
40051SOL     OW21991   9.834   3.138  13.632
40051SOL    HW121992   9.858   3.166  13.544
40051SOL    HW221993   9.780   3.210  13.667
40052SOL     OW21994   5.568  13.328   2.713
40052SOL    HW121995   5.475  13.310   2.696
40052SOL    HW221996   5.598  13.375   2.636
40053SOL     OW21997   7.160   6.136   8.669
40053SOL    HW121998   7.164   6.062   8.730
40053SOL    HW221999   7.081   6.184   8.693
40054SOL     OW22000   2.913   4.178   0.652
40054SOL    HW122001   2.849   4.211   0.715
40054SOL    HW222002   2.922   4.085   0.674
40055SOL     OW22003  10.458   9.451   5.527
40055SOL    HW122004  10.485   9.394   5.455
40055SOL    HW222005  10.366   9.428   5.543
40056SOL     OW22006   1.699  14.540   4.109
40056SOL    HW122007   1.703  14.480   4.034
40056SOL    HW222008   1.679  14.483   4.184
40057SOL     OW22009   9.608  14.449   4.985
40057SOL    HW122010   9.691  14.412   4.952
40057SOL    HW222011   9.617  14.447   5.080
40058SOL     OW22012   2.446  11.734   0.103
40058SOL    HW122013   2.367  11.785   0.086
40058SOL    HW222014   2.485  11.775   0.180
40059SOL     OW22015   9.349  11.327  10.121
40059SOL    HW122016   9.323  11.407  10.075
40059SOL    HW222017   9.267  11.286  10.147
40060SOL     OW22018   8.510  12.996   9.342
40060SOL    HW122019   8.445  12.985   9.412
40060SOL    HW222020   8.458  13.011   9.263
40061SOL     OW22021   9.584  12.951  10.624
40061SOL    HW122022   9.643  13.004  10.570
40061SOL    HW222023   9.581  12.866  10.578
40062SOL     OW22024   7.353  11.138   4.177
40062SOL    HW122025   7.339  11.047   4.148
40062SOL    HW222026   7.331  11.191   4.100
40063SOL     OW22027   2.275  11.993  13.704
40063SOL    HW122028   2.263  11.923  13.640
40063SOL    HW222029   2.187  12.006  13.741
40064SOL     OW22030   9.102   8.287  14.761
40064SOL    HW122031   9.141   8.212  14.716
40064SOL    HW222032   9.176   8.343  14.783
40065SOL     OW22033  13.365  10.035  12.588
40065SOL    HW122034  13.370   9.992  12.503
40065SOL    HW222035  13.350   9.963  12.650
40066SOL     OW22036   7.164   8.525  11.849
40066SOL    HW122037   7.165   8.611  11.891
40066SOL    HW222038   7.172   8.463  11.922
40067SOL     OW22039  14.263  13.397  14.417
40067SOL    HW122040  14.190  13.361  14.368
40067SOL    HW222041  14.223  13.438  14.494
40068SOL     OW22042  14.693   7.368  11.283
40068SOL    HW122043  14.774   7.317  11.284
40068SOL    HW222044  14.705   7.431  11.212
40069SOL     OW22045   9.468   5.251   1.893
40069SOL    HW122046   9.484   5.310   1.966
40069SOL    HW222047   9.379   5.219   1.908
40070SOL     OW22048  12.977  14.691  10.491
40070SOL    HW122049  12.939  14.651  10.570
40070SOL    HW222050  13.064  14.719  10.518
40071SOL     OW22051   9.905   0.288   3.876
40071SOL    HW122052   9.877   0.234   3.949
40071SOL    HW222053   9.936   0.369   3.916
40072SOL     OW22054   5.053   0.399  11.143
40072SOL    HW122055   4.962   0.371  11.158
40072SOL    HW222056   5.095   0.387  11.228
40073SOL     OW22057   6.403   5.907   8.085
40073SOL    HW122058   6.446   5.828   8.052
40073SOL    HW222059   6.474   5.971   8.091
40074SOL     OW22060   1.628  13.301   2.169
40074SOL    HW122061   1.672  13.354   2.235
40074SOL    HW222062   1.553  13.354   2.141
40075SOL     OW22063   5.093   2.903   7.029
40075SOL    HW122064   5.057   2.815   7.027
40075SOL    HW222065   5.128   2.917   6.941
40076SOL     OW22066  12.515   2.081   8.151
40076SOL    HW122067  12.430   2.101   8.191
40076SOL    HW222068  12.538   1.995   8.185
40077SOL     OW22069   1.033   6.362   9.299
40077SOL    HW122070   1.063   6.282   9.255
40077SOL    HW222071   1.015   6.423   9.227
40078SOL     OW22072   3.061   5.393  10.241
40078SOL    HW122073   3.152   5.404  10.267
40078SOL    HW222074   3.042   5.300  10.254
40079SOL     OW22075   6.629   1.310  13.934
40079SOL    HW122076   6.718   1.277  13.944
40079SOL    HW222077   6.614   1.364  14.012
40080SOL     OW22078   6.642  12.497   8.274
40080SOL    HW122079   6.618  12.562   8.340
40080SOL    HW222080   6.583  12.515   8.201
40081SOL     OW22081  12.956  11.768   1.961
40081SOL    HW122082  12.951  11.675   1.981
40081SOL    HW222083  13.009  11.773   1.881
40082SOL     OW22084   7.749   8.784  11.935
40082SOL    HW122085   7.782   8.726  12.003
40082SOL    HW222086   7.656   8.760  11.926
40083SOL     OW22087  11.507   3.352   2.781
40083SOL    HW122088  11.601   3.345   2.798
40083SOL    HW222089  11.466   3.318   2.860
40084SOL     OW22090  13.165   7.883  13.461
40084SOL    HW122091  13.260   7.878  13.449
40084SOL    HW222092  13.153   7.942  13.535
40085SOL     OW22093   3.892   6.592  11.661
40085SOL    HW122094   3.834   6.536  11.609
40085SOL    HW222095   3.838   6.620  11.735
40086SOL     OW22096  13.934   2.645  10.186
40086SOL    HW122097  13.911   2.652  10.278
40086SOL    HW222098  13.906   2.728  10.148
40087SOL     OW22099   5.944   1.746   7.293
40087SOL    HW122100   5.871   1.685   7.296
40087SOL    HW222101   6.016   1.695   7.256
40088SOL     OW22102   0.552   6.337   8.683
40088SOL    HW122103   0.644   6.364   8.692
40088SOL    HW222104   0.523   6.378   8.602
40089SOL     OW22105  12.567   9.423   2.128
40089SOL    HW122106  12.656   9.440   2.095
40089SOL    HW222107  12.581   9.392   2.217
40090SOL     OW22108   9.342   0.658  10.474
40090SOL    HW122109   9.312   0.606  10.549
40090SOL    HW222110   9.274   0.724  10.462
40091SOL     OW22111   4.936   8.957  12.826
40091SOL    HW122112   4.927   8.963  12.921
40091SOL    HW222113   4.958   9.046  12.799
40092SOL     OW22114   9.342   0.089   9.065
40092SOL    HW122115   9.338   0.055   8.976
40092SOL    HW222116   9.271   0.153   9.070
40093SOL     OW22117  11.773  10.753   8.192
40093SOL    HW122118  11.856  10.800   8.202
40093SOL    HW222119  11.709  10.811   8.233
40094SOL     OW22120   9.891  12.163   2.697
40094SOL    HW122121   9.909  12.256   2.703
40094SOL    HW222122   9.973  12.120   2.721
40095SOL     OW22123   6.685   9.792  11.209
40095SOL    HW122124   6.665   9.882  11.235
40095SOL    HW222125   6.606   9.762  11.164
40096SOL     OW22126   3.066   7.150   3.290
40096SOL    HW122127   3.038   7.228   3.337
40096SOL    HW222128   3.003   7.082   3.316
40097SOL     OW22129   2.921   4.047   3.641
40097SOL    HW122130   3.014   4.067   3.640
40097SOL    HW222131   2.901   4.023   3.550
40098SOL     OW22132   2.761   3.113  12.096
40098SOL    HW122133   2.832   3.168  12.129
40098SOL    HW222134   2.776   3.110  12.001
40099SOL     OW22135   0.164  12.031   1.301
40099SOL    HW122136   0.206  12.037   1.387
40099SOL    HW222137   0.077  12.068   1.314
40100SOL     OW22138   5.356   3.316   9.667
40100SOL    HW122139   5.353   3.325   9.572
40100SOL    HW222140   5.322   3.399   9.700
40101SOL     OW22141   2.334   3.250   0.403
40101SOL    HW122142   2.303   3.325   0.454
40101SOL    HW222143   2.428   3.263   0.396
40102SOL     OW22144   4.435   1.456  13.250
40102SOL    HW122145   4.341   1.465  13.235
40102SOL    HW222146   4.446   1.470  13.344
40103SOL     OW22147  10.386   4.534   7.097
40103SOL    HW122148  10.338   4.600   7.047
40103SOL    HW222149  10.323   4.463   7.110
40104SOL     OW22150   2.821   2.201  11.453
40104SOL    HW122151   2.887   2.230  11.389
40104SOL    HW222152   2.738   2.234  11.419
40105SOL     OW22153   4.907   8.629   0.078
40105SOL    HW122154   4.961   8.689   0.027
40105SOL    HW222155   4.819   8.667   0.076
40106SOL     OW22156  12.134   9.102   9.924
40106SOL    HW122157  12.138   9.051   9.844
40106SOL    HW222158  12.040   9.108   9.944
40107SOL     OW22159   3.257   7.522   3.607
40107SOL    HW122160   3.312   7.590   3.568
40107SOL    HW222161   3.318   7.450   3.623
40108SOL     OW22162  13.556  11.817   3.149
40108SOL    HW122163  13.545  11.722   3.160
40108SOL    HW222164  13.640  11.836   3.189
40109SOL     OW22165   9.481  11.719  11.805
40109SOL    HW122166   9.481  11.624  11.803
40109SOL    HW222167   9.539  11.745  11.734
40110SOL     OW22168   2.091   8.896   0.775
40110SOL    HW122169   2.059   8.918   0.688
40110SOL    HW222170   2.070   8.803   0.786
40111SOL     OW22171   9.912   2.250   5.218
40111SOL    HW122172   9.946   2.172   5.175
40111SOL    HW222173   9.962   2.322   5.180
40112SOL     OW22174   9.686   5.613  13.671
40112SOL    HW122175   9.734   5.620  13.753
40112SOL    HW222176   9.603   5.656  13.687
40113SOL     OW22177   3.384  10.154   7.806
40113SOL    HW122178   3.440  10.215   7.855
40113SOL    HW222179   3.444  10.091   7.768
40114SOL     OW22180   1.005   6.633   6.596
40114SOL    HW122181   1.027   6.681   6.675
40114SOL    HW222182   1.035   6.544   6.613
40115SOL     OW22183  11.422  10.172   6.016
40115SOL    HW122184  11.470  10.181   5.933
40115SOL    HW222185  11.386  10.259   6.033
40116SOL     OW22186   9.271   4.288   2.856
40116SOL    HW122187   9.326   4.332   2.790
40116SOL    HW222188   9.332   4.233   2.905
40117SOL     OW22189   3.766  12.318   9.980
40117SOL    HW122190   3.760  12.225   9.960
40117SOL    HW222191   3.731  12.326  10.069
40118SOL     OW22192   2.465  11.915  11.380
40118SOL    HW122193   2.479  11.981  11.448
40118SOL    HW222194   2.406  11.851  11.421
40119SOL     OW22195   4.041  14.838   6.163
40119SOL    HW122196   4.104  14.774   6.129
40119SOL    HW222197   3.972  14.841   6.097
40120SOL     OW22198   8.078  13.748   7.371
40120SOL    HW122199   7.993  13.728   7.411
40120SOL    HW222200   8.140  13.693   7.419
40121SOL     OW22201   7.569  14.092  10.316
40121SOL    HW122202   7.522  14.083  10.233
40121SOL    HW222203   7.562  14.185  10.337
40122SOL     OW22204  11.853   1.309  10.661
40122SOL    HW122205  11.775   1.262  10.632
40122SOL    HW222206  11.874   1.368  10.588
40123SOL     OW22207   7.333   3.903  14.146
40123SOL    HW122208   7.267   3.972  14.143
40123SOL    HW222209   7.415   3.947  14.124
40124SOL     OW22210   7.074   3.306   3.648
40124SOL    HW122211   7.073   3.259   3.565
40124SOL    HW222212   7.062   3.237   3.714
40125SOL     OW22213   1.146   4.227   4.444
40125SOL    HW122214   1.170   4.136   4.426
40125SOL    HW222215   1.151   4.236   4.539
40126SOL     OW22216   7.686   9.336   2.589
40126SOL    HW122217   7.605   9.294   2.559
40126SOL    HW222218   7.700   9.301   2.676
40127SOL     OW22219   2.548   3.086   0.038
40127SOL    HW122220   2.538   3.175   0.003
40127SOL    HW222221   2.575   3.099   0.129
40128SOL     OW22222   6.510  14.706  12.777
40128SOL    HW122223   6.442  14.648  12.811
40128SOL    HW222224   6.587  14.685  12.829
40129SOL     OW22225  13.548   5.184  12.030
40129SOL    HW122226  13.476   5.199  12.091
40129SOL    HW222227  13.505   5.161  11.947
40130SOL     OW22228   6.580  10.981  11.713
40130SOL    HW122229   6.524  11.044  11.759
40130SOL    HW222230   6.556  10.896  11.752
40131SOL     OW22231  11.985  12.185   3.795
40131SOL    HW122232  12.058  12.126   3.773
40131SOL    HW222233  11.930  12.134   3.855
40132SOL     OW22234  11.195  11.706   7.149
40132SOL    HW122235  11.155  11.790   7.171
40132SOL    HW222236  11.261  11.692   7.217
40133SOL     OW22237  12.123   9.820   3.861
40133SOL    HW122238  12.171   9.883   3.914
40133SOL    HW222239  12.076   9.765   3.924
40134SOL     OW22240   2.736   7.354  10.066
40134SOL    HW122241   2.800   7.310  10.122
40134SOL    HW222242   2.651   7.324  10.099
40135SOL     OW22243   8.907   6.634   9.203
40135SOL    HW122244   8.895   6.718   9.160
40135SOL    HW222245   8.999   6.612   9.188
40136SOL     OW22246  10.379   3.980  13.563
40136SOL    HW122247  10.426   4.052  13.605
40136SOL    HW222248  10.308   3.959  13.624
40137SOL     OW22249   0.955   5.970   5.934
40137SOL    HW122250   0.860   5.963   5.943
40137SOL    HW222251   0.970   5.982   5.840
40138SOL     OW22252   0.895   7.937   2.091
40138SOL    HW122253   0.826   8.003   2.088
40138SOL    HW222254   0.860   7.868   2.147
40139SOL     OW22255  14.231  11.234  11.744
40139SOL    HW122256  14.252  11.322  11.775
40139SOL    HW222257  14.170  11.248  11.672
40140SOL     OW22258  12.262   3.318  12.469
40140SOL    HW122259  12.191   3.276  12.420
40140SOL    HW222260  12.232   3.408  12.483
40141SOL     OW22261   9.931   0.082   1.603
40141SOL    HW122262   9.993   0.069   1.531
40141SOL    HW222263   9.846   0.092   1.560
40142SOL     OW22264  10.636  11.992  11.698
40142SOL    HW122265  10.636  11.922  11.632
40142SOL    HW222266  10.543  12.011  11.712
40143SOL     OW22267  12.287  10.182   8.994
40143SOL    HW122268  12.228  10.153   9.063
40143SOL    HW222269  12.230  10.196   8.918
40144SOL     OW22270  12.232   5.932   2.959
40144SOL    HW122271  12.160   5.916   3.020
40144SOL    HW222272  12.291   5.991   3.006
40145SOL     OW22273  10.492   5.574  12.917
40145SOL    HW122274  10.482   5.663  12.950
40145SOL    HW222275  10.402   5.547  12.896
40146SOL     OW22276  13.258   5.173  13.120
40146SOL    HW122277  13.328   5.109  13.108
40146SOL    HW222278  13.222   5.154  13.207
40147SOL     OW22279   1.525   7.848   1.985
40147SOL    HW122280   1.532   7.925   2.042
40147SOL    HW222281   1.615   7.831   1.956
40148SOL     OW22282   7.291   3.649  11.916
40148SOL    HW122283   7.322   3.574  11.865
40148SOL    HW222284   7.368   3.676  11.966
40149SOL     OW22285  13.223  14.281  14.322
40149SOL    HW122286  13.200  14.311  14.235
40149SOL    HW222287  13.227  14.185  14.315
40150SOL     OW22288  12.401   6.500  14.390
40150SOL    HW122289  12.314   6.477  14.360
40150SOL    HW222290  12.392   6.589  14.424
40151SOL     OW22291   1.456   4.880   2.463
40151SOL    HW122292   1.488   4.964   2.431
40151SOL    HW222293   1.424   4.899   2.552
40152SOL     OW22294   1.491   0.974   1.659
40152SOL    HW122295   1.442   0.895   1.633
40152SOL    HW222296   1.442   1.008   1.734
40153SOL     OW22297  13.654  14.441   6.827
40153SOL    HW122298  13.696  14.520   6.860
40153SOL    HW222299  13.726  14.386   6.797
40154SOL     OW22300   2.297   9.028  14.780
40154SOL    HW122301   2.299   9.121  14.801
40154SOL    HW222302   2.378   9.012  14.732
40155SOL     OW22303   4.207   2.414  14.204
40155SOL    HW122304   4.156   2.437  14.126
40155SOL    HW222305   4.297   2.438  14.182
40156SOL     OW22306  11.220  13.700   8.594
40156SOL    HW122307  11.169  13.619   8.591
40156SOL    HW222308  11.236  13.716   8.687
40157SOL     OW22309   2.345   7.017   9.212
40157SOL    HW122310   2.315   6.953   9.148
40157SOL    HW222311   2.285   7.091   9.201
40158SOL     OW22312   8.373   5.113   2.299
40158SOL    HW122313   8.352   5.191   2.247
40158SOL    HW222314   8.412   5.052   2.237
40159SOL     OW22315   6.039   0.991   8.313
40159SOL    HW122316   6.105   1.014   8.379
40159SOL    HW222317   6.029   0.896   8.321
40160SOL     OW22318   1.707  14.700  12.989
40160SOL    HW122319   1.716  14.609  13.018
40160SOL    HW222320   1.767  14.749  13.046
40161SOL     OW22321  13.332   6.608   9.119
40161SOL    HW122322  13.397   6.544   9.148
40161SOL    HW222323  13.367   6.642   9.037
40162SOL     OW22324   6.386  12.568   7.064
40162SOL    HW122325   6.341  12.633   7.010
40162SOL    HW222326   6.475  12.601   7.072
40163SOL     OW22327  12.086   8.576   6.070
40163SOL    HW122328  12.104   8.649   6.011
40163SOL    HW222329  12.002   8.541   6.040
40164SOL     OW22330   7.534   5.690   3.664
40164SOL    HW122331   7.515   5.639   3.743
40164SOL    HW222332   7.627   5.674   3.648
40165SOL     OW22333  10.953  10.424   1.266
40165SOL    HW122334  10.992  10.507   1.240
40165SOL    HW222335  10.858  10.437   1.255
40166SOL     OW22336   7.848   7.137  13.118
40166SOL    HW122337   7.908   7.115  13.189
40166SOL    HW222338   7.876   7.083  13.044
40167SOL     OW22339   2.158  11.387   6.474
40167SOL    HW122340   2.075  11.351   6.504
40167SOL    HW222341   2.167  11.355   6.384
40168SOL     OW22342  13.454   6.735  14.677
40168SOL    HW122343  13.429   6.663  14.619
40168SOL    HW222344  13.488   6.692  14.756
40169SOL     OW22345   3.693   0.617   2.280
40169SOL    HW122346   3.643   0.698   2.278
40169SOL    HW222347   3.629   0.549   2.302
40170SOL     OW22348   6.688  14.536  12.228
40170SOL    HW122349   6.609  14.482  12.231
40170SOL    HW222350   6.709  14.553  12.320
40171SOL     OW22351   8.265  12.688   5.582
40171SOL    HW122352   8.301  12.635   5.653
40171SOL    HW222353   8.297  12.777   5.601
40172SOL     OW22354   9.107   0.957   6.412
40172SOL    HW122355   9.025   1.005   6.418
40172SOL    HW222356   9.088   0.884   6.353
40173SOL     OW22357   4.807   5.875   8.607
40173SOL    HW122358   4.894   5.838   8.594
40173SOL    HW222359   4.749   5.818   8.557
40174SOL     OW22360   4.508   8.313   9.347
40174SOL    HW122361   4.548   8.399   9.362
40174SOL    HW222362   4.482   8.315   9.255
40175SOL     OW22363   0.326   4.986  11.038
40175SOL    HW122364   0.283   4.903  11.061
40175SOL    HW222365   0.259   5.052  11.054
40176SOL     OW22366   3.289   9.300   1.877
40176SOL    HW122367   3.209   9.348   1.854
40176SOL    HW222368   3.351   9.368   1.904
40177SOL     OW22369   0.152   1.699   7.505
40177SOL    HW122370   0.118   1.660   7.586
40177SOL    HW222371   0.209   1.631   7.468
40178SOL     OW22372   6.783   0.116   3.574
40178SOL    HW122373   6.779   0.177   3.648
40178SOL    HW222374   6.727   0.155   3.508
40179SOL     OW22375   7.294   3.166   1.515
40179SOL    HW122376   7.279   3.190   1.424
40179SOL    HW222377   7.372   3.111   1.514
40180SOL     OW22378   0.483  11.309   3.051
40180SOL    HW122379   0.577  11.327   3.052
40180SOL    HW222380   0.446  11.380   3.000
40181SOL     OW22381   9.890  13.442   9.905
40181SOL    HW122382   9.975  13.457   9.945
40181SOL    HW222383   9.899  13.478   9.816
40182SOL     OW22384   3.491   5.127   1.611
40182SOL    HW122385   3.512   5.214   1.579
40182SOL    HW222386   3.576   5.087   1.631
40183SOL     OW22387  11.214   9.168   5.824
40183SOL    HW122388  11.163   9.248   5.833
40183SOL    HW222389  11.153   9.098   5.845
40184SOL     OW22390  13.362  13.256  11.245
40184SOL    HW122391  13.378  13.238  11.152
40184SOL    HW222392  13.344  13.350  11.248
40185SOL     OW22393   6.556   2.229  14.262
40185SOL    HW122394   6.636   2.205  14.216
40185SOL    HW222395   6.504   2.276  14.197
40186SOL     OW22396   4.227   8.201   0.802
40186SOL    HW122397   4.266   8.260   0.737
40186SOL    HW222398   4.190   8.259   0.868
40187SOL     OW22399  11.149   5.645   9.663
40187SOL    HW122400  11.108   5.560   9.674
40187SOL    HW222401  11.186   5.644   9.574
40188SOL     OW22402  10.375   4.340  11.379
40188SOL    HW122403  10.436   4.297  11.439
40188SOL    HW222404  10.431   4.392  11.322
40189SOL     OW22405   7.499   0.229   5.468
40189SOL    HW122406   7.514   0.290   5.540
40189SOL    HW222407   7.520   0.143   5.504
40190SOL     OW22408   9.645   3.629  12.160
40190SOL    HW122409   9.652   3.572  12.237
40190SOL    HW222410   9.584   3.697  12.187
40191SOL     OW22411   9.247   1.177   6.073
40191SOL    HW122412   9.268   1.164   6.165
40191SOL    HW222413   9.256   1.272   6.060
40192SOL     OW22414   2.791   5.058   7.539
40192SOL    HW122415   2.801   5.043   7.633
40192SOL    HW222416   2.841   4.987   7.499
40193SOL     OW22417   4.778  12.458  14.053
40193SOL    HW122418   4.825  12.531  14.095
40193SOL    HW222419   4.704  12.441  14.111
40194SOL     OW22420   7.188   4.397  11.150
40194SOL    HW122421   7.109   4.421  11.103
40194SOL    HW222422   7.259   4.436  11.099
40195SOL     OW22423   8.521  12.385  11.817
40195SOL    HW122424   8.580  12.457  11.840
40195SOL    HW222425   8.550  12.312  11.871
40196SOL     OW22426   0.264   2.564   5.966
40196SOL    HW122427   0.286   2.483   5.920
40196SOL    HW222428   0.346   2.614   5.968
40197SOL     OW22429  14.042  13.709   4.538
40197SOL    HW122430  14.086  13.673   4.615
40197SOL    HW222431  13.987  13.637   4.506
40198SOL     OW22432   6.473   9.797  10.315
40198SOL    HW122433   6.437   9.711  10.297
40198SOL    HW222434   6.408   9.839  10.372
40199SOL     OW22435  12.190   4.648  12.284
40199SOL    HW122436  12.194   4.575  12.345
40199SOL    HW222437  12.223   4.612  12.202
40200SOL     OW22438   1.185   7.634   4.775
40200SOL    HW122439   1.196   7.696   4.848
40200SOL    HW222440   1.133   7.563   4.812
40201SOL     OW22441   9.329   1.777   7.562
40201SOL    HW122442   9.273   1.793   7.638
40201SOL    HW222443   9.351   1.865   7.529
40202SOL     OW22444   8.704  13.126   6.968
40202SOL    HW122445   8.621  13.163   6.938
40202SOL    HW222446   8.682  13.078   7.047
40203SOL     OW22447   1.333   3.828   4.540
40203SOL    HW122448   1.339   3.837   4.635
40203SOL    HW222449   1.239   3.823   4.522
40204SOL     OW22450   7.472   7.370  12.310
40204SOL    HW122451   7.503   7.457  12.335
40204SOL    HW222452   7.551   7.324  12.280
40205SOL     OW22453   7.324   1.699  11.889
40205SOL    HW122454   7.365   1.734  11.969
40205SOL    HW222455   7.294   1.777  11.842
40206SOL     OW22456  10.003  10.775  14.127
40206SOL    HW122457  10.028  10.716  14.197
40206SOL    HW222458  10.085  10.815  14.097
40207SOL     OW22459   7.345   1.133  13.535
40207SOL    HW122460   7.266   1.143  13.482
40207SOL    HW222461   7.356   1.217  13.579
40208SOL     OW22462   1.353   6.167   6.510
40208SOL    HW122463   1.281   6.136   6.455
40208SOL    HW222464   1.366   6.258   6.483
40209SOL     OW22465   6.840  11.845  11.203
40209SOL    HW122466   6.758  11.801  11.226
40209SOL    HW222467   6.852  11.827  11.110
40210SOL     OW22468   8.487   4.881   9.214
40210SOL    HW122469   8.429   4.885   9.138
40210SOL    HW222470   8.431   4.904   9.288
40211SOL     OW22471   0.597   2.966   8.467
40211SOL    HW122472   0.648   3.009   8.536
40211SOL    HW222473   0.621   2.874   8.474
40212SOL     OW22474   8.789   5.122   1.270
40212SOL    HW122475   8.784   5.068   1.191
40212SOL    HW222476   8.801   5.211   1.238
40213SOL     OW22477  11.566   6.348  13.191
40213SOL    HW122478  11.661   6.356  13.202
40213SOL    HW222479  11.531   6.374  13.276
40214SOL     OW22480  10.496   0.068   7.547
40214SOL    HW122481  10.542   0.097   7.627
40214SOL    HW222482  10.566   0.060   7.482
40215SOL     OW22483   6.621  12.576  13.147
40215SOL    HW122484   6.678  12.596  13.221
40215SOL    HW222485   6.590  12.662  13.116
40216SOL     OW22486   8.658   3.587  12.423
40216SOL    HW122487   8.711   3.530  12.367
40216SOL    HW222488   8.651   3.669  12.375
40217SOL     OW22489   9.665   9.575  10.574
40217SOL    HW122490   9.661   9.483  10.601
40217SOL    HW222491   9.583   9.590  10.526
40218SOL     OW22492   5.782   2.545  13.375
40218SOL    HW122493   5.786   2.635  13.344
40218SOL    HW222494   5.789   2.551  13.470
40219SOL     OW22495  14.189  11.300  12.067
40219SOL    HW122496  14.275  11.270  12.096
40219SOL    HW222497  14.180  11.388  12.103
40220SOL     OW22498   7.364   9.380   9.729
40220SOL    HW122499   7.304   9.397   9.801
40220SOL    HW222500   7.373   9.464   9.684
40221SOL     OW22501  14.602   6.698   6.464
40221SOL    HW122502  14.510   6.692   6.488
40221SOL    HW222503  14.639   6.614   6.491
40222SOL     OW22504   6.557   3.694   4.306
40222SOL    HW122505   6.478   3.736   4.340
40222SOL    HW222506   6.587   3.639   4.378
40223SOL     OW22507  11.740   1.898   0.792
40223SOL    HW122508  11.692   1.845   0.728
40223SOL    HW222509  11.765   1.977   0.744
40224SOL     OW22510   7.103   6.116   7.988
40224SOL    HW122511   7.112   6.160   8.072
40224SOL    HW222512   7.188   6.077   7.972
40225SOL     OW22513   5.979  10.191   2.357
40225SOL    HW122514   5.934  10.275   2.361
40225SOL    HW222515   5.988  10.173   2.263
40226SOL     OW22516   1.126   5.929   6.164
40226SOL    HW122517   1.081   5.915   6.248
40226SOL    HW222518   1.055   5.939   6.101
40227SOL     OW22519   9.923   3.114  11.348
40227SOL    HW122520   9.974   3.034  11.336
40227SOL    HW222521   9.835   3.084  11.370
40228SOL     OW22522   9.837  11.016  13.450
40228SOL    HW122523   9.802  11.087  13.396
40228SOL    HW222524   9.925  11.044  13.473
40229SOL     OW22525   6.439   2.063   4.168
40229SOL    HW122526   6.423   2.054   4.262
40229SOL    HW222527   6.479   1.980   4.142
40230SOL     OW22528   1.507  14.741  10.504
40230SOL    HW122529   1.588  14.786  10.529
40230SOL    HW222530   1.493  14.766  10.413
40231SOL     OW22531   7.745   7.298   4.480
40231SOL    HW122532   7.726   7.205   4.471
40231SOL    HW222533   7.823   7.302   4.535
40232SOL     OW22534   1.542   9.323   2.170
40232SOL    HW122535   1.486   9.360   2.238
40232SOL    HW222536   1.561   9.398   2.112
40233SOL     OW22537  11.659   3.210   5.039
40233SOL    HW122538  11.618   3.187   4.956
40233SOL    HW222539  11.736   3.261   5.015
40234SOL     OW22540  12.951   5.500   6.595
40234SOL    HW122541  12.940   5.570   6.531
40234SOL    HW222542  12.941   5.419   6.544
40235SOL     OW22543   6.410  12.788  13.613
40235SOL    HW122544   6.362  12.802  13.695
40235SOL    HW222545   6.455  12.871  13.598
40236SOL     OW22546  12.200   4.423   5.631
40236SOL    HW122547  12.178   4.483   5.702
40236SOL    HW222548  12.277   4.375   5.662
40237SOL     OW22549  12.757  14.181   5.745
40237SOL    HW122550  12.695  14.251   5.763
40237SOL    HW222551  12.740  14.115   5.811
40238SOL     OW22552   9.453   6.695   1.336
40238SOL    HW122553   9.401   6.649   1.402
40238SOL    HW222554   9.405   6.776   1.319
40239SOL     OW22555  13.482   4.988  10.372
40239SOL    HW122556  13.463   4.962  10.462
40239SOL    HW222557  13.426   4.931  10.319
40240SOL     OW22558   9.657   2.697  13.838
40240SOL    HW122559   9.579   2.663  13.882
40240SOL    HW222560   9.638   2.790  13.826
40241SOL     OW22561   5.738  14.484   6.135
40241SOL    HW122562   5.812  14.541   6.113
40241SOL    HW222563   5.704  14.520   6.218
40242SOL     OW22564   5.665   8.121   8.317
40242SOL    HW122565   5.606   8.046   8.308
40242SOL    HW222566   5.608   8.197   8.319
40243SOL     OW22567  11.558  13.971  14.619
40243SOL    HW122568  11.615  14.012  14.554
40243SOL    HW222569  11.587  14.007  14.703
40244SOL     OW22570   7.178  12.527   6.782
40244SOL    HW122571   7.259  12.579   6.789
40244SOL    HW222572   7.202  12.442   6.818
40245SOL     OW22573   5.848  11.347   9.137
40245SOL    HW122574   5.936  11.353   9.100
40245SOL    HW222575   5.791  11.385   9.070
40246SOL     OW22576  10.227   0.185  12.928
40246SOL    HW122577  10.199   0.112  12.983
40246SOL    HW222578  10.148   0.238  12.917
40247SOL     OW22579  12.635   0.062   7.313
40247SOL    HW122580  12.653   0.043   7.405
40247SOL    HW222581  12.614  14.859   7.275
40248SOL     OW22582  10.116   4.140   0.600
40248SOL    HW122583  10.093   4.052   0.568
40248SOL    HW222584  10.058   4.199   0.551
40249SOL     OW22585   0.307   5.620   4.899
40249SOL    HW122586   0.370   5.664   4.956
40249SOL    HW222587   0.255   5.566   4.958
40250SOL     OW22588   9.958   8.656   7.167
40250SOL    HW122589  10.007   8.728   7.127
40250SOL    HW222590   9.882   8.698   7.206
40251SOL     OW22591  13.914   5.081   6.021
40251SOL    HW122592  13.830   5.096   6.066
40251SOL    HW222593  13.922   4.985   6.019
40252SOL     OW22594   4.169   9.182   8.077
40252SOL    HW122595   4.175   9.206   8.169
40252SOL    HW222596   4.197   9.090   8.074
40253SOL     OW22597  12.863   1.448   2.974
40253SOL    HW122598  12.946   1.421   2.935
40253SOL    HW222599  12.856   1.541   2.952
40254SOL     OW22600  12.850   2.202  10.177
40254SOL    HW122601  12.851   2.119  10.129
40254SOL    HW222602  12.918   2.192  10.244
40255SOL     OW22603   2.930  14.330  14.432
40255SOL    HW122604   2.957  14.369  14.515
40255SOL    HW222605   2.921  14.405  14.373
40256SOL     OW22606   8.484  11.852   2.272
40256SOL    HW122607   8.472  11.843   2.177
40256SOL    HW222608   8.465  11.765   2.307
40257SOL     OW22609   6.722  13.116  13.425
40257SOL    HW122610   6.677  13.040  13.386
40257SOL    HW222611   6.808  13.116  13.383
40258SOL     OW22612  12.591  10.456   9.271
40258SOL    HW122613  12.663  10.494   9.220
40258SOL    HW222614  12.560  10.527   9.327
40259SOL     OW22615   4.335  13.640  10.997
40259SOL    HW122616   4.250  13.682  10.981
40259SOL    HW222617   4.365  13.677  11.080
40260SOL     OW22618   5.992   3.616   4.680
40260SOL    HW122619   6.085   3.599   4.665
40260SOL    HW222620   5.989   3.707   4.709
40261SOL     OW22621   3.801   0.255   4.097
40261SOL    HW122622   3.844   0.317   4.037
40261SOL    HW222623   3.855   0.257   4.176
40262SOL     OW22624  13.475   1.477  11.504
40262SOL    HW122625  13.520   1.517  11.429
40262SOL    HW222626  13.498   1.384  11.499
40263SOL     OW22627  12.412  14.053   6.815
40263SOL    HW122628  12.507  14.043   6.815
40263SOL    HW222629  12.381  13.995   6.885
40264SOL     OW22630   9.171  12.452   7.401
40264SOL    HW122631   9.101  12.408   7.352
40264SOL    HW222632   9.127  12.492   7.475
40265SOL     OW22633   5.573   2.463  14.397
40265SOL    HW122634   5.506   2.412  14.351
40265SOL    HW222635   5.555   2.450  14.490
40266SOL     OW22636   4.053  14.795   8.183
40266SOL    HW122637   4.072  14.705   8.156
40266SOL    HW222638   3.994  14.828   8.115
40267SOL     OW22639  10.600  11.642  12.982
40267SOL    HW122640  10.537  11.693  12.930
40267SOL    HW222641  10.636  11.578  12.920
40268SOL     OW22642  10.169  12.522   7.704
40268SOL    HW122643  10.141  12.470   7.780
40268SOL    HW222644  10.102  12.590   7.695
40269SOL     OW22645   3.741   9.031  14.196
40269SOL    HW122646   3.680   9.053  14.266
40269SOL    HW222647   3.824   9.070  14.223
40270SOL     OW22648  14.128   7.031  14.739
40270SOL    HW122649  14.094   7.008  14.826
40270SOL    HW222650  14.080   6.974  14.678
40271SOL     OW22651  13.627  13.623  13.515
40271SOL    HW122652  13.593  13.708  13.543
40271SOL    HW222653  13.578  13.602  13.436
40272SOL     OW22654   1.934   7.801   1.021
40272SOL    HW122655   2.022   7.839   1.016
40272SOL    HW222656   1.918   7.789   1.115
40273SOL     OW22657  13.535   4.511  10.601
40273SOL    HW122658  13.535   4.559  10.684
40273SOL    HW222659  13.458   4.544  10.554
40274SOL     OW22660   0.477   1.735   4.279
40274SOL    HW122661   0.498   1.792   4.353
40274SOL    HW222662   0.558   1.730   4.229
40275SOL     OW22663  10.628  13.039   9.936
40275SOL    HW122664  10.657  12.982   9.865
40275SOL    HW222665  10.708  13.057   9.987
40276SOL     OW22666  11.279   4.108   1.580
40276SOL    HW122667  11.317   4.020   1.575
40276SOL    HW222668  11.294   4.146   1.493
40277SOL     OW22669   2.337  10.215   3.839
40277SOL    HW122670   2.286  10.180   3.766
40277SOL    HW222671   2.319  10.155   3.911
40278SOL     OW22672   4.543  12.023   6.512
40278SOL    HW122673   4.632  12.047   6.540
40278SOL    HW222674   4.489  12.036   6.590
40279SOL     OW22675  10.159  13.896   2.225
40279SOL    HW122676  10.111  13.966   2.180
40279SOL    HW222677  10.216  13.942   2.287
40280SOL     OW22678   4.600   4.420   8.620
40280SOL    HW122679   4.633   4.499   8.578
40280SOL    HW222680   4.577   4.447   8.709
40281SOL     OW22681  14.306  14.548   4.890
40281SOL    HW122682  14.235  14.567   4.829
40281SOL    HW222683  14.264  14.538   4.975
40282SOL     OW22684   9.224   3.999   8.123
40282SOL    HW122685   9.223   4.090   8.149
40282SOL    HW222686   9.158   3.993   8.053
40283SOL     OW22687   5.504   1.417   3.932
40283SOL    HW122688   5.493   1.370   4.014
40283SOL    HW222689   5.592   1.395   3.903
40284SOL     OW22690   2.404   8.251  12.699
40284SOL    HW122691   2.483   8.304  12.715
40284SOL    HW222692   2.407   8.184  12.767
40285SOL     OW22693   8.107  14.665   4.660
40285SOL    HW122694   8.064  14.668   4.745
40285SOL    HW222695   8.062  14.595   4.613
40286SOL     OW22696  10.040   9.720  10.174
40286SOL    HW122697  10.013   9.696  10.263
40286SOL    HW222698   9.994   9.658  10.118
40287SOL     OW22699   8.922   6.620   5.678
40287SOL    HW122700   8.924   6.651   5.769
40287SOL    HW222701   8.844   6.565   5.673
40288SOL     OW22702   1.410   0.262   5.125
40288SOL    HW122703   1.358   0.201   5.178
40288SOL    HW222704   1.370   0.348   5.141
40289SOL     OW22705   7.254  10.700  13.680
40289SOL    HW122706   7.342  10.729  13.704
40289SOL    HW222707   7.230  10.755  13.606
40290SOL     OW22708   4.270   5.002   1.361
40290SOL    HW122709   4.338   5.068   1.371
40290SOL    HW222710   4.318   4.918   1.359
40291SOL     OW22711   7.191   1.709  13.779
40291SOL    HW122712   7.232   1.761  13.848
40291SOL    HW222713   7.124   1.657  13.825
40292SOL     OW22714   5.731   8.253  12.653
40292SOL    HW122715   5.745   8.347  12.649
40292SOL    HW222716   5.811   8.216  12.614
40293SOL     OW22717  11.112   9.523  12.744
40293SOL    HW122718  11.112   9.459  12.815
40293SOL    HW222719  11.185   9.581  12.763
40294SOL     OW22720   7.566  13.168   0.798
40294SOL    HW122721   7.481  13.131   0.774
40294SOL    HW222722   7.589  13.123   0.879
40295SOL     OW22723   4.189   3.284   6.809
40295SOL    HW122724   4.234   3.208   6.771
40295SOL    HW222725   4.124   3.309   6.743
40296SOL     OW22726   3.034   3.697  14.550
40296SOL    HW122727   2.946   3.679  14.583
40296SOL    HW222728   3.087   3.624  14.582
40297SOL     OW22729   9.022   9.627  13.603
40297SOL    HW122730   9.024   9.710  13.650
40297SOL    HW222731   9.112   9.594  13.609
40298SOL     OW22732   6.980  12.850  13.356
40298SOL    HW122733   7.024  12.909  13.295
40298SOL    HW222734   6.979  12.765  13.312
40299SOL     OW22735   0.419   3.867   4.149
40299SOL    HW122736   0.381   3.949   4.115
40299SOL    HW222737   0.395   3.866   4.241
40300SOL     OW22738   6.294   5.151  14.446
40300SOL    HW122739   6.260   5.076  14.397
40300SOL    HW222740   6.385   5.127  14.466
40301SOL     OW22741  10.328   6.636   7.430
40301SOL    HW122742  10.302   6.545   7.417
40301SOL    HW222743  10.253   6.676   7.473
40302SOL     OW22744   4.104  12.958   3.943
40302SOL    HW122745   4.164  13.031   3.926
40302SOL    HW222746   4.128  12.892   3.877
40303SOL     OW22747   3.673   3.931  11.933
40303SOL    HW122748   3.652   4.023  11.918
40303SOL    HW222749   3.618   3.883  11.870
40304SOL     OW22750  11.014   8.029  14.148
40304SOL    HW122751  11.075   8.030  14.074
40304SOL    HW222752  11.015   8.119  14.181
40305SOL     OW22753  11.864   1.895  11.997
40305SOL    HW122754  11.821   1.828  12.051
40305SOL    HW222755  11.919   1.943  12.059
40306SOL     OW22756   3.088  10.776  12.389
40306SOL    HW122757   3.003  10.808  12.361
40306SOL    HW222758   3.150  10.813  12.326
40307SOL     OW22759   5.614   8.806   3.036
40307SOL    HW122760   5.533   8.857   3.027
40307SOL    HW222761   5.609   8.741   2.966
40308SOL     OW22762   7.452   5.749   6.089
40308SOL    HW122763   7.415   5.721   6.005
40308SOL    HW222764   7.504   5.826   6.068
40309SOL     OW22765   3.482   5.709  11.415
40309SOL    HW122766   3.529   5.654  11.478
40309SOL    HW222767   3.444   5.778  11.469
40310SOL     OW22768   6.711   3.398   7.957
40310SOL    HW122769   6.728   3.441   7.873
40310SOL    HW222770   6.746   3.459   8.022
40311SOL     OW22771   3.937   0.537   5.526
40311SOL    HW122772   3.973   0.451   5.504
40311SOL    HW222773   3.997   0.571   5.592
40312SOL     OW22774   9.390   5.441   8.705
40312SOL    HW122775   9.470   5.483   8.674
40312SOL    HW222776   9.397   5.351   8.674
40313SOL     OW22777   8.388   2.545   0.822
40313SOL    HW122778   8.370   2.634   0.794
40313SOL    HW222779   8.319   2.524   0.884
40314SOL     OW22780  10.061   8.590  12.729
40314SOL    HW122781  10.002   8.653  12.771
40314SOL    HW222782  10.062   8.515  12.789
40315SOL     OW22783   9.213   5.140  13.516
40315SOL    HW122784   9.236   5.059  13.562
40315SOL    HW222785   9.119   5.131  13.497
40316SOL     OW22786   6.544  13.851   7.392
40316SOL    HW122787   6.581  13.764   7.379
40316SOL    HW222788   6.618  13.911   7.380
40317SOL     OW22789  10.352   4.175  14.160
40317SOL    HW122790  10.373   4.123  14.238
40317SOL    HW222791  10.352   4.111  14.089
40318SOL     OW22792  14.331   2.038   5.105
40318SOL    HW122793  14.392   2.108   5.082
40318SOL    HW222794  14.296   2.009   5.021
40319SOL     OW22795   1.388  12.781   6.490
40319SOL    HW122796   1.372  12.849   6.555
40319SOL    HW222797   1.307  12.778   6.439
40320SOL     OW22798   4.415   9.230   5.910
40320SOL    HW122799   4.440   9.174   5.983
40320SOL    HW222800   4.417   9.173   5.833
40321SOL     OW22801   0.489   7.224   2.512
40321SOL    HW122802   0.508   7.312   2.543
40321SOL    HW222803   0.419   7.236   2.448
40322SOL     OW22804  10.055   3.843   1.890
40322SOL    HW122805   9.967   3.851   1.854
40322SOL    HW222806  10.111   3.890   1.828
40323SOL     OW22807   5.362   2.222   6.115
40323SOL    HW122808   5.457   2.211   6.120
40323SOL    HW222809   5.347   2.314   6.139
40324SOL     OW22810   1.252   3.950   0.822
40324SOL    HW122811   1.213   4.023   0.870
40324SOL    HW222812   1.342   3.945   0.855
40325SOL     OW22813  14.261   6.852   5.451
40325SOL    HW122814  14.245   6.866   5.358
40325SOL    HW222815  14.278   6.758   5.458
40326SOL     OW22816   0.719   0.366   5.095
40326SOL    HW122817   0.659   0.425   5.141
40326SOL    HW222818   0.742   0.412   5.015
40327SOL     OW22819  14.646  12.865   1.041
40327SOL    HW122820  14.553  12.869   1.063
40327SOL    HW222821  14.671  12.957   1.030
40328SOL     OW22822   0.995   3.737   1.086
40328SOL    HW122823   1.039   3.820   1.105
40328SOL    HW222824   1.020   3.716   0.996
40329SOL     OW22825   5.520   4.957   2.266
40329SOL    HW122826   5.458   4.953   2.339
40329SOL    HW222827   5.536   5.050   2.253
40330SOL     OW22828  11.979  11.050   2.206
40330SOL    HW122829  12.066  11.051   2.168
40330SOL    HW222830  11.977  10.971   2.260
40331SOL     OW22831   2.600   8.512  12.190
40331SOL    HW122832   2.626   8.555  12.109
40331SOL    HW222833   2.529   8.567  12.224
40332SOL     OW22834   6.889   7.140  12.547
40332SOL    HW122835   6.815   7.186  12.508
40332SOL    HW222836   6.947   7.210  12.579
40333SOL     OW22837   8.579   0.629   1.382
40333SOL    HW122838   8.599   0.594   1.295
40333SOL    HW222839   8.633   0.708   1.389
40334SOL     OW22840  12.355   7.648   0.739
40334SOL    HW122841  12.384   7.581   0.801
40334SOL    HW222842  12.272   7.614   0.705
40335SOL     OW22843  12.828   7.543   4.174
40335SOL    HW122844  12.900   7.522   4.114
40335SOL    HW222845  12.871   7.556   4.259
40336SOL     OW22846  10.143  12.892   5.194
40336SOL    HW122847  10.142  12.987   5.208
40336SOL    HW222848  10.052  12.865   5.204
40337SOL     OW22849   5.750   1.404   9.715
40337SOL    HW122850   5.673   1.450   9.682
40337SOL    HW222851   5.820   1.470   9.711
40338SOL     OW22852   8.708  14.043   9.772
40338SOL    HW122853   8.639  14.036   9.839
40338SOL    HW222854   8.773  14.102   9.811
40339SOL     OW22855   4.186   1.996   8.869
40339SOL    HW122856   4.155   2.055   8.939
40339SOL    HW222857   4.182   1.909   8.908
40340SOL     OW22858   7.687   1.178   6.856
40340SOL    HW122859   7.624   1.251   6.856
40340SOL    HW222860   7.724   1.178   6.768
40341SOL     OW22861  12.436  13.383   4.678
40341SOL    HW122862  12.399  13.429   4.754
40341SOL    HW222863  12.513  13.435   4.655
40342SOL     OW22864   3.145  13.570   1.945
40342SOL    HW122865   3.231  13.582   1.985
40342SOL    HW222866   3.139  13.641   1.880
40343SOL     OW22867   4.945  11.593   7.762
40343SOL    HW122868   4.900  11.670   7.798
40343SOL    HW222869   5.015  11.630   7.708
40344SOL     OW22870   0.890   9.864  12.981
40344SOL    HW122871   0.957   9.826  13.038
40344SOL    HW222872   0.935   9.884  12.899
40345SOL     OW22873   0.829   3.440   1.993
40345SOL    HW122874   0.753   3.382   2.002
40345SOL    HW222875   0.823   3.473   1.903
40346SOL     OW22876  12.361  11.939  11.877
40346SOL    HW122877  12.342  12.006  11.811
40346SOL    HW222878  12.432  11.977  11.930
40347SOL     OW22879   2.954   3.287  13.899
40347SOL    HW122880   2.911   3.232  13.834
40347SOL    HW222881   2.996   3.356  13.849
40348SOL     OW22882  11.564   8.437   7.083
40348SOL    HW122883  11.641   8.469   7.129
40348SOL    HW222884  11.491   8.461   7.141
40349SOL     OW22885  13.137  13.475   3.188
40349SOL    HW122886  13.147  13.493   3.282
40349SOL    HW222887  13.042  13.481   3.173
40350SOL     OW22888  14.452   9.522   9.811
40350SOL    HW122889  14.445   9.515   9.716
40350SOL    HW222890  14.468   9.433   9.841
40351SOL     OW22891   4.169   6.852  10.140
40351SOL    HW122892   4.094   6.905  10.113
40351SOL    HW222893   4.164   6.774  10.084
40352SOL     OW22894   6.178   6.804  10.141
40352SOL    HW122895   6.177   6.710  10.157
40352SOL    HW222896   6.096   6.836  10.177
40353SOL     OW22897  13.151  12.887   8.882
40353SOL    HW122898  13.136  12.954   8.816
40353SOL    HW222899  13.194  12.815   8.836
40354SOL     OW22900   2.708  11.059  13.381
40354SOL    HW122901   2.726  11.153  13.388
40354SOL    HW222902   2.774  11.018  13.437
40355SOL     OW22903  12.300   7.863  10.938
40355SOL    HW122904  12.270   7.861  11.029
40355SOL    HW222905  12.300   7.771  10.911
40356SOL     OW22906  10.332   0.678  11.642
40356SOL    HW122907  10.403   0.716  11.694
40356SOL    HW222908  10.302   0.603  11.694
40357SOL     OW22909   1.417  11.712   9.197
40357SOL    HW122910   1.425  11.783   9.260
40357SOL    HW222911   1.483  11.731   9.130
40358SOL     OW22912   2.563   5.451  13.390
40358SOL    HW122913   2.555   5.476  13.482
40358SOL    HW222914   2.482   5.482  13.350
40359SOL     OW22915   7.269   0.090   9.192
40359SOL    HW122916   7.333   0.129   9.252
40359SOL    HW222917   7.244   0.007   9.233
40360SOL     OW22918   7.977   8.270   7.637
40360SOL    HW122919   8.022   8.309   7.563
40360SOL    HW222920   8.014   8.313   7.714
40361SOL     OW22921   6.999   7.604   4.023
40361SOL    HW122922   7.023   7.544   4.094
40361SOL    HW222923   6.999   7.550   3.944
40362SOL     OW22924   9.037   7.954   1.553
40362SOL    HW122925   8.966   8.014   1.577
40362SOL    HW222926   9.043   7.961   1.458
40363SOL     OW22927   0.206   9.199   3.942
40363SOL    HW122928   0.235   9.154   4.022
40363SOL    HW222929   0.132   9.252   3.970
40364SOL     OW22930   2.661   8.090   9.791
40364SOL    HW122931   2.700   8.149   9.727
40364SOL    HW222932   2.705   8.006   9.776
40365SOL     OW22933   8.978   6.426   3.139
40365SOL    HW122934   9.073   6.410   3.143
40365SOL    HW222935   8.942   6.367   3.205
40366SOL     OW22936   4.212  14.682   2.544
40366SOL    HW122937   4.169  14.634   2.473
40366SOL    HW222938   4.141  14.731   2.585
40367SOL     OW22939  10.932   5.329   1.248
40367SOL    HW122940  10.929   5.236   1.227
40367SOL    HW222941  10.957   5.332   1.340
40368SOL     OW22942  11.404   7.108   6.321
40368SOL    HW122943  11.462   7.151   6.384
40368SOL    HW222944  11.355   7.180   6.281
40369SOL     OW22945   7.247   9.095  10.037
40369SOL    HW122946   7.257   9.009  10.076
40369SOL    HW222947   7.270   9.156  10.108
40370SOL     OW22948   7.467   6.224   2.968
40370SOL    HW122949   7.441   6.298   2.913
40370SOL    HW222950   7.493   6.156   2.907
40371SOL     OW22951  14.006   7.628   4.920
40371SOL    HW122952  14.043   7.610   4.833
40371SOL    HW222953  14.059   7.700   4.954
40372SOL     OW22954  13.485   9.106   8.279
40372SOL    HW122955  13.438   9.102   8.195
40372SOL    HW222956  13.578   9.109   8.254
40373SOL     OW22957   3.175   4.072   4.150
40373SOL    HW122958   3.213   4.159   4.163
40373SOL    HW222959   3.093   4.089   4.103
40374SOL     OW22960  13.183   0.781   7.769
40374SOL    HW122961  13.136   0.864   7.777
40374SOL    HW222962  13.273   0.802   7.797
40375SOL     OW22963   4.083   4.664   8.436
40375SOL    HW122964   4.052   4.598   8.374
40375SOL    HW222965   4.062   4.747   8.394
40376SOL     OW22966   0.179   8.030   1.420
40376SOL    HW122967   0.247   8.042   1.487
40376SOL    HW222968   0.185   7.938   1.395
40377SOL     OW22969   3.089  13.528  14.359
40377SOL    HW122970   3.092  13.479  14.441
40377SOL    HW222971   3.112  13.618  14.384
40378SOL     OW22972   5.929  13.586   7.686
40378SOL    HW122973   5.861  13.643   7.649
40378SOL    HW222974   5.881  13.512   7.723
40379SOL     OW22975   4.058   9.330   1.107
40379SOL    HW122976   3.985   9.369   1.058
40379SOL    HW222977   4.045   9.360   1.197
40380SOL     OW22978   3.319   2.259   4.669
40380SOL    HW122979   3.405   2.221   4.655
40380SOL    HW222980   3.298   2.301   4.585
40381SOL     OW22981   8.951   7.097   1.894
40381SOL    HW122982   8.959   7.146   1.976
40381SOL    HW222983   9.041   7.073   1.872
40382SOL     OW22984  13.082   9.380   3.249
40382SOL    HW122985  13.147   9.447   3.225
40382SOL    HW222986  13.133   9.305   3.277
40383SOL     OW22987  11.099   8.694  10.169
40383SOL    HW122988  11.192   8.719  10.169
40383SOL    HW222989  11.099   8.604  10.137
40384SOL     OW22990  10.169   5.954   0.969
40384SOL    HW122991  10.092   5.898   0.960
40384SOL    HW222992  10.136   6.032   1.014
40385SOL     OW22993   2.582   6.071   5.884
40385SOL    HW122994   2.542   6.119   5.811
40385SOL    HW222995   2.569   6.127   5.960
40386SOL     OW22996  14.808   9.374   4.578
40386SOL    HW122997  14.735   9.318   4.603
40386SOL    HW222998  14.874   9.360   4.646
40387SOL     OW22999  12.956   3.227   2.314
40387SOL    HW123000  12.872   3.269   2.332
40387SOL    HW223001  12.932   3.145   2.271
40388SOL     OW23002  12.855  11.452  12.745
40388SOL    HW123003  12.809  11.492  12.818
40388SOL    HW223004  12.845  11.514  12.673
40389SOL     OW23005   7.073  10.614   2.762
40389SOL    HW123006   7.121  10.624   2.844
40389SOL    HW223007   7.028  10.529   2.771
40390SOL     OW23008  11.344  11.146   9.539
40390SOL    HW123009  11.303  11.204   9.475
40390SOL    HW223010  11.294  11.161   9.620
40391SOL     OW23011   0.603  11.485   3.947
40391SOL    HW123012   0.575  11.564   3.994
40391SOL    HW223013   0.574  11.413   4.003
40392SOL     OW23014  11.702   2.605   8.287
40392SOL    HW123015  11.735   2.553   8.360
40392SOL    HW223016  11.618   2.565   8.265
40393SOL     OW23017   8.157   8.843  13.820
40393SOL    HW123018   8.209   8.848  13.899
40393SOL    HW223019   8.195   8.771  13.770
40394SOL     OW23020  11.573   5.535  12.168
40394SOL    HW123021  11.515   5.489  12.228
40394SOL    HW223022  11.645   5.473  12.153
40395SOL     OW23023  14.573  11.665   6.394
40395SOL    HW123024  14.536  11.744   6.433
40395SOL    HW223025  14.667  11.681   6.391
40396SOL     OW23026   5.926   5.713   7.039
40396SOL    HW123027   5.915   5.634   6.987
40396SOL    HW223028   5.890   5.691   7.125
40397SOL     OW23029   6.547   2.124  13.625
40397SOL    HW123030   6.614   2.152  13.687
40397SOL    HW223031   6.530   2.202  13.572
40398SOL     OW23032  14.038  11.965   6.433
40398SOL    HW123033  13.960  11.944   6.382
40398SOL    HW223034  14.108  11.976   6.369
40399SOL     OW23035  10.856   2.377  11.598
40399SOL    HW123036  10.921   2.308  11.585
40399SOL    HW223037  10.803   2.346  11.671
40400SOL     OW23038   0.255   5.598   2.036
40400SOL    HW123039   0.245   5.649   2.116
40400SOL    HW223040   0.241   5.507   2.063
40401SOL     OW23041  14.545   2.225   4.006
40401SOL    HW123042  14.589   2.272   4.077
40401SOL    HW223043  14.458   2.264   4.002
40402SOL     OW23044  14.746   5.127   8.770
40402SOL    HW123045  14.732   5.145   8.863
40402SOL    HW223046  14.724   5.034   8.760
40403SOL     OW23047  11.062   4.900  14.190
40403SOL    HW123048  10.985   4.919  14.136
40403SOL    HW223049  11.102   4.985  14.205
40404SOL     OW23050   0.482  10.844   5.313
40404SOL    HW123051   0.545  10.779   5.345
40404SOL    HW223052   0.412  10.844   5.378
40405SOL     OW23053   6.151  13.790  12.663
40405SOL    HW123054   6.225  13.851  12.661
40405SOL    HW223055   6.091  13.823  12.596
40406SOL     OW23056  10.079  10.773   2.085
40406SOL    HW123057  10.069  10.742   1.995
40406SOL    HW223058  10.021  10.717   2.136
40407SOL     OW23059   5.860   6.805  12.793
40407SOL    HW123060   5.793   6.861  12.752
40407SOL    HW223061   5.832   6.799  12.884
40408SOL     OW23062   6.343   8.870  10.957
40408SOL    HW123063   6.252   8.900  10.951
40408SOL    HW223064   6.344   8.808  11.029
40409SOL     OW23065   7.504   5.372  11.652
40409SOL    HW123066   7.506   5.434  11.579
40409SOL    HW223067   7.450   5.299  11.621
40410SOL     OW23068   9.750   6.047   0.018
40410SOL    HW123069   9.718   5.982  14.837
40410SOL    HW223070   9.675   6.103   0.035
40411SOL     OW23071  10.847   1.110  12.515
40411SOL    HW123072  10.762   1.125  12.472
40411SOL    HW223073  10.846   1.017  12.537
40412SOL     OW23074  11.458   4.379   3.182
40412SOL    HW123075  11.520   4.426   3.126
40412SOL    HW223076  11.511   4.350   3.257
40413SOL     OW23077  10.069   2.502  13.863
40413SOL    HW123078   9.993   2.452  13.833
40413SOL    HW223079  10.118   2.520  13.783
40414SOL     OW23080  14.185   7.537  10.168
40414SOL    HW123081  14.153   7.587  10.243
40414SOL    HW223082  14.279   7.529  10.184
40415SOL     OW23083  14.420  14.416   8.091
40415SOL    HW123084  14.414  14.428   7.996
40415SOL    HW223085  14.460  14.330   8.102
40416SOL     OW23086  14.768   5.601   2.092
40416SOL    HW123087  14.747   5.508   2.078
40416SOL    HW223088  14.808   5.630   2.010
40417SOL     OW23089   8.170  11.695   7.306
40417SOL    HW123090   8.182  11.703   7.212
40417SOL    HW223091   8.088  11.741   7.324
40418SOL     OW23092   1.522  10.206  13.629
40418SOL    HW123093   1.500  10.121  13.667
40418SOL    HW223094   1.513  10.194  13.535
40419SOL     OW23095   3.776   6.874   3.822
40419SOL    HW123096   3.872   6.872   3.821
40419SOL    HW223097   3.754   6.968   3.828
40420SOL     OW23098  10.966   4.843   4.462
40420SOL    HW123099  11.021   4.772   4.430
40420SOL    HW223100  10.912   4.867   4.387
40421SOL     OW23101   7.296  14.215  13.364
40421SOL    HW123102   7.209  14.195  13.398
40421SOL    HW223103   7.306  14.156  13.289
40422SOL     OW23104   9.280  11.653   6.634
40422SOL    HW123105   9.364  11.648   6.588
40422SOL    HW223106   9.282  11.739   6.677
40423SOL     OW23107   7.106   7.172   2.258
40423SOL    HW123108   7.031   7.224   2.285
40423SOL    HW223109   7.129   7.205   2.172
40424SOL     OW23110  10.361   8.748   3.955
40424SOL    HW123111  10.395   8.748   4.044
40424SOL    HW223112  10.429   8.791   3.903
40425SOL     OW23113   1.073   4.774   6.712
40425SOL    HW123114   0.983   4.796   6.736
40425SOL    HW223115   1.095   4.837   6.642
40426SOL     OW23116   1.233   6.348   3.536
40426SOL    HW123117   1.270   6.431   3.506
40426SOL    HW223118   1.142   6.369   3.559
40427SOL     OW23119   5.002  14.370  10.622
40427SOL    HW123120   5.071  14.329  10.569
40427SOL    HW223121   4.970  14.299  10.678
40428SOL     OW23122  13.092  10.648   9.606
40428SOL    HW123123  13.162  10.602   9.561
40428SOL    HW223124  13.013  10.597   9.586
40429SOL     OW23125  11.413  11.173  13.454
40429SOL    HW123126  11.368  11.118  13.518
40429SOL    HW223127  11.490  11.206  13.500
40430SOL     OW23128   9.745  14.746   8.187
40430SOL    HW123129   9.679  14.815   8.179
40430SOL    HW223130   9.705  14.680   8.244
40431SOL     OW23131   5.566   0.852  11.649
40431SOL    HW123132   5.543   0.768  11.610
40431SOL    HW223133   5.500   0.913  11.615
40432SOL     OW23134  13.957   6.169   0.998
40432SOL    HW123135  14.044   6.186   0.961
40432SOL    HW223136  13.950   6.074   1.000
40433SOL     OW23137   8.195   3.321  11.099
40433SOL    HW123138   8.216   3.334  11.006
40433SOL    HW223139   8.162   3.406  11.128
40434SOL     OW23140   7.023   2.518   1.675
40434SOL    HW123141   7.090   2.450   1.672
40434SOL    HW223142   7.055   2.587   1.617
40435SOL     OW23143   5.837   5.521   5.388
40435SOL    HW123144   5.763   5.574   5.416
40435SOL    HW223145   5.847   5.454   5.456
40436SOL     OW23146   9.962   3.005   1.343
40436SOL    HW123147   9.894   3.070   1.325
40436SOL    HW223148  10.043   3.056   1.345
40437SOL     OW23149   8.313   0.557  11.277
40437SOL    HW123150   8.246   0.574  11.210
40437SOL    HW223151   8.272   0.585  11.359
40438SOL     OW23152   2.587   9.792   6.351
40438SOL    HW123153   2.519   9.739   6.309
40438SOL    HW223154   2.539   9.852   6.408
40439SOL     OW23155  11.778   8.634   2.155
40439SOL    HW123156  11.869   8.650   2.130
40439SOL    HW223157  11.750   8.561   2.101
40440SOL     OW23158   1.389   9.254   6.710
40440SOL    HW123159   1.411   9.347   6.705
40440SOL    HW223160   1.304   9.252   6.754
40441SOL     OW23161  11.810  13.728   0.962
40441SOL    HW123162  11.889  13.747   1.014
40441SOL    HW223163  11.816  13.635   0.943
40442SOL     OW23164   1.897   1.380   9.157
40442SOL    HW123165   1.985   1.364   9.192
40442SOL    HW223166   1.882   1.473   9.169
40443SOL     OW23167   1.286   6.745   8.759
40443SOL    HW123168   1.219   6.692   8.716
40443SOL    HW223169   1.364   6.731   8.705
40444SOL     OW23170   7.567   5.932   5.452
40444SOL    HW123171   7.545   5.847   5.413
40444SOL    HW223172   7.593   5.987   5.378
40445SOL     OW23173   9.598   2.260  11.606
40445SOL    HW123174   9.625   2.263  11.514
40445SOL    HW223175   9.517   2.310  11.609
40446SOL     OW23176  11.241   5.788   1.335
40446SOL    HW123177  11.298   5.855   1.296
40446SOL    HW223178  11.192   5.835   1.402
40447SOL     OW23179   4.257  14.185  13.041
40447SOL    HW123180   4.313  14.152  12.971
40447SOL    HW223181   4.246  14.278  13.021
40448SOL     OW23182   5.381  13.402   4.804
40448SOL    HW123183   5.452  13.361   4.754
40448SOL    HW223184   5.420  13.480   4.842
40449SOL     OW23185  13.568   0.738   9.588
40449SOL    HW123186  13.550   0.660   9.536
40449SOL    HW223187  13.661   0.756   9.574
40450SOL     OW23188   2.764   8.326  11.084
40450SOL    HW123189   2.693   8.306  11.023
40450SOL    HW223190   2.844   8.301  11.036
40451SOL     OW23191   6.249   1.374  14.073
40451SOL    HW123192   6.332   1.370  14.120
40451SOL    HW223193   6.249   1.461  14.033
40452SOL     OW23194   3.823   4.133   0.644
40452SOL    HW123195   3.827   4.193   0.569
40452SOL    HW223196   3.790   4.051   0.607
40453SOL     OW23197   1.571   2.481   2.455
40453SOL    HW123198   1.494   2.509   2.505
40453SOL    HW223199   1.539   2.410   2.399
40454SOL     OW23200   6.769  10.088  11.015
40454SOL    HW123201   6.809  10.171  11.041
40454SOL    HW223202   6.842  10.028  11.002
40455SOL     OW23203   5.963   0.513   9.662
40455SOL    HW123204   5.956   0.419   9.650
40455SOL    HW223205   5.876   0.547   9.638
40456SOL     OW23206  13.674   7.264  11.654
40456SOL    HW123207  13.734   7.198  11.688
40456SOL    HW223208  13.633   7.223  11.578
40457SOL     OW23209   5.915   3.503  12.058
40457SOL    HW123210   6.003   3.466  12.057
40457SOL    HW223211   5.877   3.480  11.973
40458SOL     OW23212  10.234   4.198   4.882
40458SOL    HW123213  10.273   4.211   4.795
40458SOL    HW223214  10.179   4.120   4.872
40459SOL     OW23215   8.324   8.562   7.884
40459SOL    HW123216   8.375   8.503   7.940
40459SOL    HW223217   8.267   8.609   7.945
40460SOL     OW23218   5.372   8.450  14.039
40460SOL    HW123219   5.393   8.483  14.126
40460SOL    HW223220   5.432   8.376  14.027
40461SOL     OW23221   8.477   9.411  14.174
40461SOL    HW123222   8.403   9.471  14.181
40461SOL    HW223223   8.553   9.469  14.161
40462SOL     OW23224   7.600   7.679   8.998
40462SOL    HW123225   7.572   7.695   9.088
40462SOL    HW223226   7.694   7.700   8.997
40463SOL     OW23227  10.915   7.124   7.526
40463SOL    HW123228  10.864   7.044   7.514
40463SOL    HW223229  10.953   7.142   7.440
40464SOL     OW23230   6.851  14.758  10.982
40464SOL    HW123231   6.842  14.850  10.958
40464SOL    HW223232   6.939  14.752  11.019
40465SOL     OW23233   8.913  14.568   4.785
40465SOL    HW123234   8.980  14.599   4.846
40465SOL    HW223235   8.947  14.588   4.698
40466SOL     OW23236  12.995   8.867   2.708
40466SOL    HW123237  12.972   8.911   2.626
40466SOL    HW223238  13.027   8.781   2.682
40467SOL     OW23239   1.997   1.700   9.992
40467SOL    HW123240   2.075   1.744   9.960
40467SOL    HW223241   2.028   1.612  10.015
40468SOL     OW23242  14.347   7.821   6.851
40468SOL    HW123243  14.290   7.889   6.887
40468SOL    HW223244  14.394   7.787   6.927
40469SOL     OW23245   4.268  13.014   6.068
40469SOL    HW123246   4.356  13.048   6.050
40469SOL    HW223247   4.256  12.945   6.001
40470SOL     OW23248   9.285  13.221   9.862
40470SOL    HW123249   9.238  13.235   9.944
40470SOL    HW223250   9.345  13.296   9.856
40471SOL     OW23251  11.206   5.370  13.733
40471SOL    HW123252  11.256   5.358  13.652
40471SOL    HW223253  11.198   5.465  13.742
40472SOL     OW23254   0.596   9.131   3.714
40472SOL    HW123255   0.597   9.214   3.762
40472SOL    HW223256   0.687   9.103   3.712
40473SOL     OW23257  14.805   0.663   2.700
40473SOL    HW123258  14.860   0.691   2.774
40473SOL    HW223259  14.726   0.716   2.707
40474SOL     OW23260   5.239  13.983  13.314
40474SOL    HW123261   5.175  14.012  13.379
40474SOL    HW223262   5.221  13.889  13.303
40475SOL     OW23263   9.722  14.854   7.599
40475SOL    HW123264   9.674   0.051   7.625
40475SOL    HW223265   9.751  14.815   7.682
40476SOL     OW23266   8.126   9.684   8.953
40476SOL    HW123267   8.088   9.772   8.951
40476SOL    HW223268   8.170   9.675   8.868
40477SOL     OW23269   3.094   2.113  13.818
40477SOL    HW123270   3.060   2.041  13.764
40477SOL    HW223271   3.110   2.184  13.756
40478SOL     OW23272  13.095  12.066  14.337
40478SOL    HW123273  13.162  12.030  14.279
40478SOL    HW223274  13.012  12.035  14.299
40479SOL     OW23275   1.661  12.930  13.311
40479SOL    HW123276   1.755  12.945  13.316
40479SOL    HW223277   1.650  12.836  13.326
40480SOL     OW23278   2.089   7.173  13.359
40480SOL    HW123279   2.156   7.211  13.303
40480SOL    HW223280   2.127   7.173  13.447
40481SOL     OW23281   7.736  12.735   6.939
40481SOL    HW123282   7.654  12.783   6.935
40481SOL    HW223283   7.753  12.708   6.848
40482SOL     OW23284   0.355   6.883   0.648
40482SOL    HW123285   0.370   6.789   0.635
40482SOL    HW223286   0.260   6.893   0.640
40483SOL     OW23287   3.077  14.410  10.430
40483SOL    HW123288   3.018  14.427  10.356
40483SOL    HW223289   3.108  14.320  10.415
40484SOL     OW23290   3.477   7.902   9.916
40484SOL    HW123291   3.510   7.821   9.879
40484SOL    HW223292   3.538   7.970   9.886
40485SOL     OW23293   1.664   8.817  14.329
40485SOL    HW123294   1.721   8.802  14.254
40485SOL    HW223295   1.607   8.890  14.302
40486SOL     OW23296   6.425   2.007   9.223
40486SOL    HW123297   6.519   2.020   9.237
40486SOL    HW223298   6.385   2.087   9.258
40487SOL     OW23299  12.183  11.435   9.769
40487SOL    HW123300  12.150  11.480   9.847
40487SOL    HW223301  12.200  11.345   9.798
40488SOL     OW23302   4.772  11.905  14.195
40488SOL    HW123303   4.852  11.911  14.247
40488SOL    HW223304   4.713  11.970  14.234
40489SOL     OW23305  13.440  10.048   6.776
40489SOL    HW123306  13.527  10.076   6.802
40489SOL    HW223307  13.397  10.127   6.743
40490SOL     OW23308   3.614  10.593  14.702
40490SOL    HW123309   3.690  10.588  14.645
40490SOL    HW223310   3.550  10.535  14.661
40491SOL     OW23311   3.937  14.547  14.466
40491SOL    HW123312   4.011  14.551  14.405
40491SOL    HW223313   3.860  14.554  14.410
40492SOL     OW23314   6.072   1.944  11.898
40492SOL    HW123315   6.067   1.904  11.811
40492SOL    HW223316   6.164   1.940  11.921
40493SOL     OW23317  14.315  11.249   9.327
40493SOL    HW123318  14.386  11.198   9.367
40493SOL    HW223319  14.333  11.339   9.353
40494SOL     OW23320   5.551  13.653  11.323
40494SOL    HW123321   5.475  13.656  11.266
40494SOL    HW223322   5.552  13.739  11.366
40495SOL     OW23323   0.827   0.303   7.454
40495SOL    HW123324   0.889   0.255   7.399
40495SOL    HW223325   0.754   0.243   7.465
40496SOL     OW23326  11.912   7.494   1.440
40496SOL    HW123327  11.992   7.485   1.389
40496SOL    HW223328  11.936   7.552   1.512
40497SOL     OW23329  10.146   7.298   6.268
40497SOL    HW123330  10.216   7.291   6.332
40497SOL    HW223331  10.180   7.255   6.189
40498SOL     OW23332  13.626  14.785  13.040
40498SOL    HW123333  13.626  14.879  13.025
40498SOL    HW223334  13.624  14.746  12.952
40499SOL     OW23335   5.903   4.344   5.181
40499SOL    HW123336   5.919   4.273   5.243
40499SOL    HW223337   5.809   4.342   5.166
40500SOL     OW23338   3.847  12.988   5.767
40500SOL    HW123339   3.937  13.016   5.749
40500SOL    HW223340   3.803  13.066   5.800
40501SOL     OW23341   1.039  11.421   0.739
40501SOL    HW123342   0.951  11.451   0.719
40501SOL    HW223343   1.043  11.416   0.834
40502SOL     OW23344   4.688  11.922   5.306
40502SOL    HW123345   4.771  11.901   5.264
40502SOL    HW223346   4.623  11.916   5.235
40503SOL     OW23347  13.359   0.270  14.157
40503SOL    HW123348  13.304   0.228  14.090
40503SOL    HW223349  13.448   0.255  14.126
40504SOL     OW23350   4.846  14.529   4.216
40504SOL    HW123351   4.752  14.543   4.204
40504SOL    HW223352   4.870  14.465   4.149
40505SOL     OW23353   4.388  13.272   3.071
40505SOL    HW123354   4.303  13.269   3.027
40505SOL    HW223355   4.411  13.180   3.084
40506SOL     OW23356   9.552  13.684  12.928
40506SOL    HW123357   9.566  13.642  12.843
40506SOL    HW223358   9.635  13.727  12.947
40507SOL     OW23359   8.047  13.218   4.366
40507SOL    HW123360   7.975  13.275   4.338
40507SOL    HW223361   8.049  13.148   4.301
40508SOL     OW23362   9.296  12.363  13.766
40508SOL    HW123363   9.277  12.336  13.676
40508SOL    HW223364   9.390  12.378  13.768
40509SOL     OW23365   8.445   9.136  11.948
40509SOL    HW123366   8.427   9.121  12.041
40509SOL    HW223367   8.409   9.059  11.904
40510SOL     OW23368  12.542  14.537   5.703
40510SOL    HW123369  12.637  14.531   5.714
40510SOL    HW223370  12.514  14.602   5.769
40511SOL     OW23371   1.069   7.720  10.319
40511SOL    HW123372   0.997   7.656  10.323
40511SOL    HW223373   1.146   7.667  10.300
40512SOL     OW23374  11.435   4.516   8.703
40512SOL    HW123375  11.372   4.471   8.759
40512SOL    HW223376  11.520   4.493   8.740
40513SOL     OW23377   2.763   0.050   4.077
40513SOL    HW123378   2.824   0.103   4.128
40513SOL    HW223379   2.819  14.869   4.031
40514SOL     OW23380  10.983   0.620  14.080
40514SOL    HW123381  10.892   0.610  14.050
40514SOL    HW223382  11.036   0.594  14.005
40515SOL     OW23383   2.237   3.677   6.476
40515SOL    HW123384   2.149   3.639   6.480
40515SOL    HW223385   2.291   3.617   6.529
40516SOL     OW23386  10.187   1.740  13.213
40516SOL    HW123387  10.219   1.766  13.299
40516SOL    HW223388  10.188   1.821  13.162
40517SOL     OW23389   9.439   0.542   4.774
40517SOL    HW123390   9.449   0.620   4.720
40517SOL    HW223391   9.362   0.559   4.828
40518SOL     OW23392   9.996  12.926  12.087
40518SOL    HW123393   9.909  12.917  12.126
40518SOL    HW223394  10.049  12.966  12.155
40519SOL     OW23395   2.746   6.868  12.012
40519SOL    HW123396   2.832   6.897  12.041
40519SOL    HW223397   2.729   6.789  12.063
40520SOL     OW23398   8.670   9.796   0.181
40520SOL    HW123399   8.754   9.826   0.214
40520SOL    HW223400   8.691   9.728   0.117
40521SOL     OW23401  10.930   5.225  10.766
40521SOL    HW123402  10.993   5.171  10.815
40521SOL    HW223403  10.852   5.226  10.821
40522SOL     OW23404   6.904  11.198   0.871
40522SOL    HW123405   6.821  11.203   0.824
40522SOL    HW223406   6.970  11.221   0.805
40523SOL     OW23407   5.020   3.901  11.127
40523SOL    HW123408   5.108   3.919  11.163
40523SOL    HW223409   4.961   3.954  11.182
40524SOL     OW23410  13.403   0.817   3.888
40524SOL    HW123411  13.366   0.775   3.966
40524SOL    HW223412  13.497   0.814   3.902
40525SOL     OW23413   4.671  13.396  14.534
40525SOL    HW123414   4.714  13.475  14.501
40525SOL    HW223415   4.735  13.326  14.519
40526SOL     OW23416  14.508   0.632   0.183
40526SOL    HW123417  14.547   0.552   0.219
40526SOL    HW223418  14.521   0.626   0.089
40527SOL     OW23419   8.720   9.394   0.331
40527SOL    HW123420   8.631   9.427   0.320
40527SOL    HW223421   8.749   9.432   0.414
40528SOL     OW23422   7.226   5.433   8.987
40528SOL    HW123423   7.194   5.372   8.920
40528SOL    HW223424   7.152   5.443   9.047
40529SOL     OW23425  13.082  11.189  13.253
40529SOL    HW123426  13.138  11.158  13.324
40529SOL    HW223427  13.041  11.110  13.217
40530SOL     OW23428  10.703   2.820   5.448
40530SOL    HW123429  10.791   2.848   5.421
40530SOL    HW223430  10.700   2.841   5.542
40531SOL     OW23431   1.200   3.383   0.367
40531SOL    HW123432   1.151   3.330   0.305
40531SOL    HW223433   1.182   3.474   0.341
40532SOL     OW23434  10.756   4.615  10.120
40532SOL    HW123435  10.676   4.592  10.167
40532SOL    HW223436  10.729   4.626  10.029
40533SOL     OW23437   8.915  10.184   5.279
40533SOL    HW123438   8.863  10.108   5.255
40533SOL    HW223439   8.963  10.206   5.200
40534SOL     OW23440   0.688   7.662   5.806
40534SOL    HW123441   0.725   7.606   5.738
40534SOL    HW223442   0.608   7.618   5.833
40535SOL     OW23443   3.913   0.551   9.791
40535SOL    HW123444   3.839   0.507   9.750
40535SOL    HW223445   3.990   0.508   9.756
40536SOL     OW23446   1.709  13.559   6.270
40536SOL    HW123447   1.745  13.581   6.184
40536SOL    HW223448   1.631  13.508   6.251
40537SOL     OW23449   3.611  11.858   4.989
40537SOL    HW123450   3.650  11.773   4.969
40537SOL    HW223451   3.517  11.842   4.996
40538SOL     OW23452  13.079   9.815   6.255
40538SOL    HW123453  13.172   9.834   6.251
40538SOL    HW223454  13.052   9.845   6.342
40539SOL     OW23455   2.864   2.717  10.347
40539SOL    HW123456   2.955   2.687  10.355
40539SOL    HW223457   2.848   2.765  10.428
40540SOL     OW23458   2.800   5.309  12.757
40540SOL    HW123459   2.761   5.392  12.786
40540SOL    HW223460   2.778   5.304  12.664
40541SOL     OW23461  12.435   8.776   4.123
40541SOL    HW123462  12.495   8.768   4.049
40541SOL    HW223463  12.355   8.732   4.095
40542SOL     OW23464   5.226  12.856  10.251
40542SOL    HW123465   5.192  12.862  10.340
40542SOL    HW223466   5.236  12.762  10.235
40543SOL     OW23467   3.798   3.830   4.090
40543SOL    HW123468   3.719   3.881   4.110
40543SOL    HW223469   3.805   3.769   4.164
40544SOL     OW23470   2.768   9.402  12.145
40544SOL    HW123471   2.814   9.401  12.061
40544SOL    HW223472   2.834   9.434  12.207
40545SOL     OW23473  14.339  11.043   5.573
40545SOL    HW123474  14.428  11.022   5.603
40545SOL    HW223475  14.317  11.124   5.620
40546SOL     OW23476   0.776   9.541  10.572
40546SOL    HW123477   0.767   9.605  10.502
40546SOL    HW223478   0.848   9.484  10.543
40547SOL     OW23479   1.004   2.993   7.492
40547SOL    HW123480   1.001   2.937   7.414
40547SOL    HW223481   0.941   3.063   7.473
40548SOL     OW23482  13.250   2.391  14.063
40548SOL    HW123483  13.275   2.483  14.059
40548SOL    HW223484  13.220   2.370  13.975
40549SOL     OW23485   1.786  11.338   3.047
40549SOL    HW123486   1.759  11.304   3.133
40549SOL    HW223487   1.868  11.292   3.028
40550SOL     OW23488   3.486   5.451   7.885
40550SOL    HW123489   3.561   5.426   7.830
40550SOL    HW223490   3.465   5.373   7.935
40551SOL     OW23491   9.236   8.077   0.362
40551SOL    HW123492   9.238   8.172   0.359
40551SOL    HW223493   9.246   8.050   0.271
40552SOL     OW23494  10.373   8.971   4.635
40552SOL    HW123495  10.400   9.013   4.717
40552SOL    HW223496  10.307   8.907   4.662
40553SOL     OW23497   9.171   9.509  10.310
40553SOL    HW123498   9.078   9.525  10.327
40553SOL    HW223499   9.188   9.425  10.352
40554SOL     OW23500  11.631   2.423  11.243
40554SOL    HW123501  11.649   2.512  11.214
40554SOL    HW223502  11.717   2.389  11.269
40555SOL     OW23503  12.083   6.574  14.520
40555SOL    HW123504  12.070   6.554  14.613
40555SOL    HW223505  12.159   6.632  14.517
40556SOL     OW23506   7.790  13.662  10.905
40556SOL    HW123507   7.857  13.605  10.944
40556SOL    HW223508   7.769  13.619  10.822
40557SOL     OW23509  10.059  10.683   5.144
40557SOL    HW123510  10.121  10.611   5.154
40557SOL    HW223511  10.079  10.721   5.058
40558SOL     OW23512   8.577   2.931  11.697
40558SOL    HW123513   8.564   2.847  11.651
40558SOL    HW223514   8.620   2.987  11.632
40559SOL     OW23515   5.191   0.989  10.506
40559SOL    HW123516   5.164   1.053  10.439
40559SOL    HW223517   5.243   0.925  10.458
40560SOL     OW23518  12.252   5.230   3.315
40560SOL    HW123519  12.161   5.203   3.300
40560SOL    HW223520  12.288   5.161   3.372
40561SOL     OW23521   7.616  14.369   1.245
40561SOL    HW123522   7.672  14.395   1.318
40561SOL    HW223523   7.528  14.368   1.282
40562SOL     OW23524   1.829  10.879  13.128
40562SOL    HW123525   1.911  10.865  13.176
40562SOL    HW223526   1.814  10.973  13.132
40563SOL     OW23527  10.613   1.952   3.002
40563SOL    HW123528  10.650   2.040   3.010
40563SOL    HW223529  10.674   1.895   3.048
40564SOL     OW23530  14.867   4.213   6.602
40564SOL    HW123531   0.024   4.213   6.514
40564SOL    HW223532   0.007   4.298   6.638
40565SOL     OW23533  13.434  13.847   5.587
40565SOL    HW123534  13.463  13.812   5.672
40565SOL    HW223535  13.477  13.932   5.580
40566SOL     OW23536   0.921  13.451   7.783
40566SOL    HW123537   0.888  13.378   7.730
40566SOL    HW223538   1.003  13.419   7.820
40567SOL     OW23539  11.532   2.663   5.512
40567SOL    HW123540  11.618   2.633   5.541
40567SOL    HW223541  11.484   2.582   5.491
40568SOL     OW23542   1.810   5.035   6.844
40568SOL    HW123543   1.862   5.115   6.838
40568SOL    HW223544   1.771   5.038   6.932
40569SOL     OW23545   4.888  11.740  10.167
40569SOL    HW123546   4.957  11.801  10.193
40569SOL    HW223547   4.822  11.747  10.236
40570SOL     OW23548  12.149  13.508  14.288
40570SOL    HW123549  12.194  13.436  14.244
40570SOL    HW223550  12.058  13.481  14.292
40571SOL     OW23551   3.867   1.740  13.599
40571SOL    HW123552   3.935   1.779  13.654
40571SOL    HW223553   3.915   1.683  13.539
40572SOL     OW23554   7.397   9.032   1.586
40572SOL    HW123555   7.489   9.039   1.611
40572SOL    HW223556   7.381   8.938   1.581
40573SOL     OW23557  14.849   6.874  11.627
40573SOL    HW123558   0.010   6.789  11.626
40573SOL    HW223559  14.828   6.892  11.535
40574SOL     OW23560   7.087  12.145   1.740
40574SOL    HW123561   7.023  12.183   1.801
40574SOL    HW223562   7.158  12.114   1.796
40575SOL     OW23563   1.138   8.357   8.172
40575SOL    HW123564   1.225   8.381   8.203
40575SOL    HW223565   1.103   8.299   8.240
40576SOL     OW23566   5.418  12.538   4.628
40576SOL    HW123567   5.466  12.488   4.563
40576SOL    HW223568   5.486  12.574   4.686
40577SOL     OW23569   4.945   9.281   7.436
40577SOL    HW123570   4.944   9.206   7.494
40577SOL    HW223571   4.902   9.250   7.356
40578SOL     OW23572   1.083  13.853   6.328
40578SOL    HW123573   1.054  13.864   6.237
40578SOL    HW223574   1.059  13.935   6.371
40579SOL     OW23575   0.770  10.974   4.081
40579SOL    HW123576   0.700  10.976   4.017
40579SOL    HW223577   0.849  10.956   4.030
40580SOL     OW23578   3.166   5.968   2.886
40580SOL    HW123579   3.185   5.893   2.829
40580SOL    HW223580   3.145   5.929   2.971
40581SOL     OW23581   6.134  12.349   1.382
40581SOL    HW123582   6.116  12.404   1.459
40581SOL    HW223583   6.216  12.304   1.403
40582SOL     OW23584  13.916   7.107   6.126
40582SOL    HW123585  13.879   7.195   6.122
40582SOL    HW223586  13.924   7.080   6.034
40583SOL     OW23587  13.051   4.421   8.198
40583SOL    HW123588  13.034   4.327   8.200
40583SOL    HW223589  12.973   4.459   8.158
40584SOL     OW23590   5.194   2.680  13.089
40584SOL    HW123591   5.166   2.646  13.174
40584SOL    HW223592   5.122   2.736  13.061
40585SOL     OW23593   0.159  11.623   8.591
40585SOL    HW123594   0.101  11.699   8.599
40585SOL    HW223595   0.229  11.640   8.654
40586SOL     OW23596   2.207   9.306   9.036
40586SOL    HW123597   2.236   9.299   8.945
40586SOL    HW223598   2.285   9.284   9.088
40587SOL     OW23599  11.483   9.023   3.849
40587SOL    HW123600  11.557   8.965   3.870
40587SOL    HW223601  11.476   9.019   3.754
40588SOL     OW23602   2.487   7.280  11.327
40588SOL    HW123603   2.467   7.223  11.402
40588SOL    HW223604   2.401   7.314  11.301
40589SOL     OW23605  13.564   9.505   2.945
40589SOL    HW123606  13.657   9.509   2.924
40589SOL    HW223607  13.522   9.567   2.885
40590SOL     OW23608   1.245  11.565   5.625
40590SOL    HW123609   1.235  11.503   5.698
40590SOL    HW223610   1.340  11.576   5.616
40591SOL     OW23611   7.880   8.309   7.282
40591SOL    HW123612   7.814   8.324   7.349
40591SOL    HW223613   7.960   8.346   7.319
40592SOL     OW23614  14.739  12.786  11.791
40592SOL    HW123615  14.645  12.776  11.804
40592SOL    HW223616  14.777  12.703  11.818
40593SOL     OW23617   4.582   5.531  11.204
40593SOL    HW123618   4.581   5.452  11.258
40593SOL    HW223619   4.651   5.585  11.241
40594SOL     OW23620   2.969   4.039   3.982
40594SOL    HW123621   2.898   3.999   4.032
40594SOL    HW223622   2.927   4.106   3.929
40595SOL     OW23623  11.579  10.166  14.120
40595SOL    HW123624  11.538  10.182  14.035
40595SOL    HW223625  11.645  10.098  14.102
40596SOL     OW23626  13.777   6.336   3.070
40596SOL    HW123627  13.735   6.416   3.102
40596SOL    HW223628  13.746   6.268   3.131
40597SOL     OW23629  13.453  14.791   8.536
40597SOL    HW123630  13.455  14.818   8.444
40597SOL    HW223631  13.368  14.746   8.545
40598SOL     OW23632   4.793   8.276   5.090
40598SOL    HW123633   4.870   8.223   5.070
40598SOL    HW223634   4.753   8.232   5.166
40599SOL     OW23635   1.954  12.085   1.415
40599SOL    HW123636   1.898  12.015   1.449
40599SOL    HW223637   1.896  12.161   1.410
40600SOL     OW23638  11.279   4.885   7.960
40600SOL    HW123639  11.278   4.811   7.900
40600SOL    HW223640  11.279   4.846   8.047
40601SOL     OW23641   4.048   2.320   0.055
40601SOL    HW123642   4.010   2.232   0.057
40601SOL    HW223643   4.137   2.307   0.087
40602SOL     OW23644   4.350   8.071  14.466
40602SOL    HW123645   4.354   8.160  14.431
40602SOL    HW223646   4.307   8.020  14.397
40603SOL     OW23647   9.682   2.914   7.544
40603SOL    HW123648   9.704   2.877   7.458
40603SOL    HW223649   9.607   2.970   7.527
40604SOL     OW23650   2.596  10.798   0.192
40604SOL    HW123651   2.545  10.811   0.112
40604SOL    HW223652   2.533  10.814   0.263
40605SOL     OW23653  13.466   8.992  11.865
40605SOL    HW123654  13.394   8.929  11.861
40605SOL    HW223655  13.542   8.940  11.892
40606SOL     OW23656   3.576   5.531   2.327
40606SOL    HW123657   3.581   5.608   2.384
40606SOL    HW223658   3.589   5.457   2.387
40607SOL     OW23659  11.988   0.392   1.945
40607SOL    HW123660  11.927   0.387   1.872
40607SOL    HW223661  11.935   0.372   2.022
40608SOL     OW23662  13.619   5.493   0.639
40608SOL    HW123663  13.557   5.425   0.612
40608SOL    HW223664  13.643   5.469   0.728
40609SOL     OW23665  13.176  14.825   4.714
40609SOL    HW123666  13.237   0.014   4.731
40609SOL    HW223667  13.134  14.848   4.632
40610SOL     OW23668   5.410   3.966  12.414
40610SOL    HW123669   5.493   3.920  12.405
40610SOL    HW223670   5.412   4.033  12.345
40611SOL     OW23671   3.582   9.407  14.084
40611SOL    HW123672   3.614   9.341  14.023
40611SOL    HW223673   3.660   9.441  14.127
40612SOL     OW23674   1.238   6.084  12.449
40612SOL    HW123675   1.227   6.002  12.400
40612SOL    HW223676   1.332   6.100  12.449
40613SOL     OW23677  11.221   3.691   0.322
40613SOL    HW123678  11.135   3.731   0.310
40613SOL    HW223679  11.262   3.744   0.390
40614SOL     OW23680  14.837  13.784   7.540
40614SOL    HW123681   0.008  13.716   7.498
40614SOL    HW223682  14.807  13.838   7.467
40615SOL     OW23683   6.310  12.242   8.902
40615SOL    HW123684   6.342  12.281   8.984
40615SOL    HW223685   6.352  12.293   8.833
40616SOL     OW23686  10.615  11.078   8.835
40616SOL    HW123687  10.573  11.136   8.900
40616SOL    HW223688  10.658  11.137   8.774
40617SOL     OW23689   2.151  12.175  14.087
40617SOL    HW123690   2.101  12.188  14.006
40617SOL    HW223691   2.240  12.159  14.057
40618SOL     OW23692   8.973  14.004   2.620
40618SOL    HW123693   9.037  13.962   2.678
40618SOL    HW223694   9.027  14.054   2.558
40619SOL     OW23695  14.827  14.691   2.632
40619SOL    HW123696   0.001  14.710   2.707
40619SOL    HW223697  14.779  14.612   2.658
40620SOL     OW23698   9.215   1.671   9.923
40620SOL    HW123699   9.152   1.735   9.889
40620SOL    HW223700   9.221   1.605   9.854
40621SOL     OW23701  10.213  14.811  13.067
40621SOL    HW123702  10.153  14.761  13.123
40621SOL    HW223703  10.300  14.786  13.097
40622SOL     OW23704   4.136   0.200  11.364
40622SOL    HW123705   4.078   0.127  11.340
40622SOL    HW223706   4.167   0.178  11.452
40623SOL     OW23707   0.477   3.540   8.717
40623SOL    HW123708   0.417   3.589   8.661
40623SOL    HW223709   0.479   3.452   8.679
40624SOL     OW23710  11.622   6.713   0.512
40624SOL    HW123711  11.618   6.658   0.590
40624SOL    HW223712  11.679   6.785   0.537
40625SOL     OW23713   8.304   4.417   0.278
40625SOL    HW123714   8.365   4.491   0.276
40625SOL    HW223715   8.267   4.414   0.190
40626SOL     OW23716   6.334  11.965  13.191
40626SOL    HW123717   6.410  11.969  13.134
40626SOL    HW223718   6.263  12.004  13.140
40627SOL     OW23719   0.006  13.729   8.996
40627SOL    HW123720   0.013  13.812   8.949
40627SOL    HW223721   0.095  13.693   8.995
40628SOL     OW23722  12.561  10.822  12.959
40628SOL    HW123723  12.619  10.810  13.035
40628SOL    HW223724  12.621  10.831  12.885
40629SOL     OW23725   7.601   9.266   7.726
40629SOL    HW123726   7.528   9.325   7.744
40629SOL    HW223727   7.581   9.186   7.775
40630SOL     OW23728   6.996   6.932   1.064
40630SOL    HW123729   6.912   6.912   1.106
40630SOL    HW223730   7.062   6.900   1.125
40631SOL     OW23731   7.812  10.305   6.463
40631SOL    HW123732   7.752  10.365   6.418
40631SOL    HW223733   7.803  10.329   6.556
40632SOL     OW23734  14.392   8.844  10.911
40632SOL    HW123735  14.390   8.936  10.885
40632SOL    HW223736  14.317   8.805  10.865
40633SOL     OW23737  13.990   6.301   4.900
40633SOL    HW123738  14.036   6.232   4.947
40633SOL    HW223739  14.055   6.335   4.838
40634SOL     OW23740   3.570  10.771   6.313
40634SOL    HW123741   3.606  10.747   6.398
40634SOL    HW223742   3.508  10.701   6.292
40635SOL     OW23743   9.935  13.708   0.053
40635SOL    HW123744   9.985  13.681  14.858
40635SOL    HW223745   9.935  13.804   0.049
40636SOL     OW23746  11.865  12.806   1.505
40636SOL    HW123747  11.960  12.817   1.512
40636SOL    HW223748  11.829  12.888   1.538
40637SOL     OW23749   4.399   1.114   2.824
40637SOL    HW123750   4.413   1.180   2.756
40637SOL    HW223751   4.332   1.056   2.788
40638SOL     OW23752   1.135   9.438  11.486
40638SOL    HW123753   1.082   9.403  11.414
40638SOL    HW223754   1.197   9.368  11.506
40639SOL     OW23755  10.295   0.735   9.015
40639SOL    HW123756  10.298   0.831   9.009
40639SOL    HW223757  10.273   0.718   9.107
40640SOL     OW23758   1.758  12.411  12.043
40640SOL    HW123759   1.715  12.462  11.974
40640SOL    HW223760   1.836  12.375  12.001
40641SOL     OW23761   1.709   7.689  13.462
40641SOL    HW123762   1.802   7.666  13.469
40641SOL    HW223763   1.663   7.615  13.501
40642SOL     OW23764   2.844   1.934  11.136
40642SOL    HW123765   2.859   1.976  11.221
40642SOL    HW223766   2.793   1.997  11.086
40643SOL     OW23767   0.872  10.393   9.952
40643SOL    HW123768   0.944  10.418   9.894
40643SOL    HW223769   0.909  10.324  10.007
40644SOL     OW23770   2.642   8.894   8.415
40644SOL    HW123771   2.623   8.935   8.331
40644SOL    HW223772   2.643   8.966   8.477
40645SOL     OW23773  14.022   2.831   8.398
40645SOL    HW123774  14.085   2.891   8.360
40645SOL    HW223775  13.958   2.815   8.329
40646SOL     OW23776  14.854  14.000   8.897
40646SOL    HW123777  14.835  14.062   8.827
40646SOL    HW223778  14.830  14.048   8.977
40647SOL     OW23779   0.771  14.584   6.414
40647SOL    HW123780   0.782  14.645   6.486
40647SOL    HW223781   0.839  14.518   6.426
40648SOL     OW23782  10.090  10.664   9.474
40648SOL    HW123783  10.026  10.593   9.462
40648SOL    HW223784  10.146  10.635   9.545
40649SOL     OW23785   0.856   7.826   4.987
40649SOL    HW123786   0.766   7.833   5.019
40649SOL    HW223787   0.896   7.760   5.044
40650SOL     OW23788  11.554   1.292   0.093
40650SOL    HW123789  11.510   1.366   0.050
40650SOL    HW223790  11.584   1.236   0.021
40651SOL     OW23791  12.653   4.245  12.732
40651SOL    HW123792  12.651   4.332  12.772
40651SOL    HW223793  12.723   4.250  12.667
40652SOL     OW23794   0.574   7.210   4.878
40652SOL    HW123795   0.552   7.303   4.881
40652SOL    HW223796   0.606   7.196   4.788
40653SOL     OW23797   1.084  10.207  12.122
40653SOL    HW123798   1.178  10.227  12.122
40653SOL    HW223799   1.075  10.133  12.183
40654SOL     OW23800  12.369   4.098   3.533
40654SOL    HW123801  12.450   4.050   3.551
40654SOL    HW223802  12.300   4.045   3.572
40655SOL     OW23803  10.537  11.212  14.827
40655SOL    HW123804  10.575  11.172  14.749
40655SOL    HW223805  10.487  11.141  14.868
40656SOL     OW23806   4.494   5.161   4.143
40656SOL    HW123807   4.433   5.221   4.185
40656SOL    HW223808   4.438   5.100   4.094
40657SOL     OW23809   8.310   4.343  10.628
40657SOL    HW123810   8.276   4.368  10.542
40657SOL    HW223811   8.238   4.295  10.669
40658SOL     OW23812   4.820   0.143   5.684
40658SOL    HW123813   4.815   0.170   5.775
40658SOL    HW223814   4.906   0.101   5.676
40659SOL     OW23815   9.382  13.500   3.452
40659SOL    HW123816   9.412  13.560   3.521
40659SOL    HW223817   9.441  13.425   3.457
40660SOL     OW23818  13.330  10.054   4.478
40660SOL    HW123819  13.391  10.126   4.490
40660SOL    HW223820  13.341  10.001   4.557
40661SOL     OW23821  10.003   0.072  12.000
40661SOL    HW123822  10.006   0.134  12.073
40661SOL    HW223823  10.047   0.116  11.928
40662SOL     OW23824   8.523   6.981  13.973
40662SOL    HW123825   8.561   7.060  14.011
40662SOL    HW223826   8.428   6.994  13.981
40663SOL     OW23827  11.809   9.413   6.537
40663SOL    HW123828  11.824   9.318   6.538
40663SOL    HW223829  11.853   9.445   6.616
40664SOL     OW23830   1.388  10.923   6.857
40664SOL    HW123831   1.447  10.892   6.788
40664SOL    HW223832   1.439  10.989   6.904
40665SOL     OW23833   5.194   1.356  10.004
40665SOL    HW123834   5.235   1.443  10.004
40665SOL    HW223835   5.107   1.371   9.967
40666SOL     OW23836   8.280   3.838  12.432
40666SOL    HW123837   8.262   3.762  12.377
40666SOL    HW223838   8.193   3.865  12.464
40667SOL     OW23839   3.766   5.429   0.133
40667SOL    HW123840   3.720   5.442   0.216
40667SOL    HW223841   3.855   5.406   0.157
40668SOL     OW23842  12.899   7.611   9.296
40668SOL    HW123843  12.855   7.697   9.298
40668SOL    HW223844  12.931   7.603   9.207
40669SOL     OW23845   5.386  10.971  12.878
40669SOL    HW123846   5.323  10.899  12.880
40669SOL    HW223847   5.446  10.949  12.807
40670SOL     OW23848   6.514   2.579  13.604
40670SOL    HW123849   6.581   2.571  13.672
40670SOL    HW223850   6.438   2.532  13.639
40671SOL     OW23851  14.025   1.817   5.597
40671SOL    HW123852  14.088   1.771   5.541
40671SOL    HW223853  14.003   1.755   5.666
40672SOL     OW23854  10.553  11.616   4.737
40672SOL    HW123855  10.620  11.599   4.672
40672SOL    HW223856  10.498  11.684   4.698
40673SOL     OW23857   7.242  11.180  12.776
40673SOL    HW123858   7.334  11.155  12.787
40673SOL    HW223859   7.223  11.162  12.684
40674SOL     OW23860  14.624   2.609  11.019
40674SOL    HW123861  14.678   2.547  11.068
40674SOL    HW223862  14.547   2.623  11.075
40675SOL     OW23863   0.284  14.763   9.512
40675SOL    HW123864   0.349  14.833   9.519
40675SOL    HW223865   0.227  14.789   9.440
40676SOL     OW23866   8.522   9.083   3.904
40676SOL    HW123867   8.486   9.025   3.836
40676SOL    HW223868   8.586   9.028   3.950
40677SOL     OW23869   1.944   2.407   9.850
40677SOL    HW123870   1.861   2.455   9.851
40677SOL    HW223871   1.928   2.332   9.792
40678SOL     OW23872  10.219   1.514   7.222
40678SOL    HW123873  10.131   1.540   7.247
40678SOL    HW223874  10.221   1.420   7.239
40679SOL     OW23875  13.925   9.785   0.375
40679SOL    HW123876  14.008   9.832   0.380
40679SOL    HW223877  13.864   9.847   0.335
40680SOL     OW23878   0.356   0.298   1.413
40680SOL    HW123879   0.369   0.391   1.428
40680SOL    HW223880   0.261   0.287   1.414
40681SOL     OW23881  14.587  14.118   8.616
40681SOL    HW123882  14.577  14.172   8.537
40681SOL    HW223883  14.511  14.138   8.669
40682SOL     OW23884  10.912  10.207   7.519
40682SOL    HW123885  10.857  10.145   7.568
40682SOL    HW223886  10.953  10.261   7.587
40683SOL     OW23887   6.786   2.570   4.542
40683SOL    HW123888   6.842   2.519   4.483
40683SOL    HW223889   6.811   2.540   4.630
40684SOL     OW23890   5.869  11.451  13.687
40684SOL    HW123891   5.879  11.374  13.630
40684SOL    HW223892   5.936  11.512  13.657
40685SOL     OW23893   7.847   6.738   9.286
40685SOL    HW123894   7.757   6.740   9.319
40685SOL    HW223895   7.846   6.671   9.218
40686SOL     OW23896   7.037   8.859  14.336
40686SOL    HW123897   6.963   8.891  14.284
40686SOL    HW223898   7.060   8.775  14.295
40687SOL     OW23899   3.413   1.582   3.477
40687SOL    HW123900   3.482   1.529   3.517
40687SOL    HW223901   3.412   1.663   3.529
40688SOL     OW23902   5.704  11.949   6.895
40688SOL    HW123903   5.772  11.933   6.829
40688SOL    HW223904   5.635  11.886   6.874
40689SOL     OW23905   3.601   7.656  11.337
40689SOL    HW123906   3.545   7.714  11.285
40689SOL    HW223907   3.543   7.621  11.405
40690SOL     OW23908  10.933   6.546   2.925
40690SOL    HW123909  10.872   6.616   2.900
40690SOL    HW223910  10.944   6.556   3.019
40691SOL     OW23911  13.242  11.611   8.915
40691SOL    HW123912  13.243  11.639   8.823
40691SOL    HW223913  13.179  11.539   8.917
40692SOL     OW23914   2.186   6.783  13.761
40692SOL    HW123915   2.097   6.813  13.741
40692SOL    HW223916   2.243   6.841  13.711
40693SOL     OW23917   1.439  10.516  12.589
40693SOL    HW123918   1.382  10.585  12.623
40693SOL    HW223919   1.379  10.457  12.543
40694SOL     OW23920  14.467   9.214  10.402
40694SOL    HW123921  14.405   9.278  10.436
40694SOL    HW223922  14.474   9.148  10.471
40695SOL     OW23923   4.820   1.200   4.326
40695SOL    HW123924   4.766   1.205   4.405
40695SOL    HW223925   4.906   1.171   4.357
40696SOL     OW23926   2.156  10.865   0.800
40696SOL    HW123927   2.246  10.867   0.835
40696SOL    HW223928   2.149  10.945   0.749
40697SOL     OW23929  11.299   0.303  13.733
40697SOL    HW123930  11.294   0.223  13.680
40697SOL    HW223931  11.300   0.374  13.670
40698SOL     OW23932  12.451   2.557   2.553
40698SOL    HW123933  12.482   2.560   2.643
40698SOL    HW223934  12.446   2.649   2.527
40699SOL     OW23935  11.110   1.040  12.896
40699SOL    HW123936  11.047   0.980  12.935
40699SOL    HW223937  11.134   1.000  12.813
40700SOL     OW23938  13.189   4.858  13.264
40700SOL    HW123939  13.284   4.869  13.270
40700SOL    HW223940  13.172   4.853  13.170
40701SOL     OW23941  12.820   3.067   8.128
40701SOL    HW123942  12.789   2.982   8.097
40701SOL    HW223943  12.861   3.108   8.051
40702SOL     OW23944   3.775  13.207  10.456
40702SOL    HW123945   3.701  13.164  10.498
40702SOL    HW223946   3.785  13.161  10.372
40703SOL     OW23947   6.734   8.943  10.053
40703SOL    HW123948   6.820   8.981  10.036
40703SOL    HW223949   6.717   8.965  10.145
40704SOL     OW23950  10.137   0.698   4.845
40704SOL    HW123951  10.087   0.776   4.822
40704SOL    HW223952  10.072   0.633   4.871
40705SOL     OW23953  11.388  11.901  13.284
40705SOL    HW123954  11.384  11.984  13.237
40705SOL    HW223955  11.390  11.926  13.377
40706SOL     OW23956   7.261  13.328   0.159
40706SOL    HW123957   7.168  13.315   0.176
40706SOL    HW223958   7.300  13.336   0.246
40707SOL     OW23959   6.000   4.757  13.557
40707SOL    HW123960   5.975   4.803  13.477
40707SOL    HW223961   5.990   4.822  13.626
40708SOL     OW23962   8.702   6.272   6.900
40708SOL    HW123963   8.657   6.274   6.984
40708SOL    HW223964   8.691   6.360   6.864
40709SOL     OW23965   6.046  14.132   9.474
40709SOL    HW123966   6.039  14.211   9.528
40709SOL    HW223967   6.132  14.096   9.494
40710SOL     OW23968  11.348   2.742  14.561
40710SOL    HW123969  11.331   2.821  14.612
40710SOL    HW223970  11.435   2.713  14.590
40711SOL     OW23971   8.680   3.206  11.148
40711SOL    HW123972   8.772   3.179  11.144
40711SOL    HW223973   8.679   3.276  11.214
40712SOL     OW23974   4.084  10.421   0.150
40712SOL    HW123975   4.162  10.375   0.118
40712SOL    HW223976   4.041  10.453   0.071
40713SOL     OW23977  12.344  12.908   0.562
40713SOL    HW123978  12.333  12.813   0.568
40713SOL    HW223979  12.387  12.932   0.644
40714SOL     OW23980   4.487   1.586   7.866
40714SOL    HW123981   4.487   1.499   7.906
40714SOL    HW223982   4.521   1.572   7.778
40715SOL     OW23983   3.008  12.657   5.572
40715SOL    HW123984   2.960  12.575   5.560
40715SOL    HW223985   3.081  12.651   5.512
40716SOL     OW23986  12.415  10.288   5.232
40716SOL    HW123987  12.423  10.368   5.180
40716SOL    HW223988  12.428  10.316   5.322
40717SOL     OW23989   9.670   6.892   2.777
40717SOL    HW123990   9.712   6.971   2.742
40717SOL    HW223991   9.720   6.871   2.856
40718SOL     OW23992  12.797   9.795   8.136
40718SOL    HW123993  12.841   9.878   8.117
40718SOL    HW223994  12.868   9.736   8.161
40719SOL     OW23995   7.057   7.884   7.472
40719SOL    HW123996   7.056   7.792   7.448
40719SOL    HW223997   7.063   7.931   7.388
40720SOL     OW23998  11.555   3.192   7.046
40720SOL    HW123999  11.626   3.223   6.991
40720SOL    HW224000  11.570   3.232   7.132
40721SOL     OW24001   7.139  10.656   1.812
40721SOL    HW124002   7.108  10.733   1.764
40721SOL    HW224003   7.165  10.594   1.744
40722SOL     OW24004   0.055   7.728  10.292
40722SOL    HW124005   0.151   7.718  10.289
40722SOL    HW224006   0.030   7.747  10.202
40723SOL     OW24007  12.868   7.152   0.638
40723SOL    HW124008  12.819   7.138   0.557
40723SOL    HW224009  12.804   7.186   0.700
40724SOL     OW24010  14.878  12.780   8.459
40724SOL    HW124011  14.824  12.796   8.536
40724SOL    HW224012  14.817  12.787   8.385
40725SOL     OW24013   8.396   5.184   1.305
40725SOL    HW124014   8.462   5.246   1.336
40725SOL    HW224015   8.419   5.169   1.214
40726SOL     OW24016  11.265  12.846   0.624
40726SOL    HW124017  11.233  12.883   0.706
40726SOL    HW224018  11.263  12.919   0.562
40727SOL     OW24019  11.982  10.462   7.822
40727SOL    HW124020  12.062  10.411   7.809
40727SOL    HW224021  12.012  10.553   7.829
40728SOL     OW24022   7.092  10.170  10.141
40728SOL    HW124023   7.134  10.125  10.068
40728SOL    HW224024   6.998  10.152  10.129
40729SOL     OW24025   0.371  11.063   5.774
40729SOL    HW124026   0.434  11.016   5.719
40729SOL    HW224027   0.288  11.058   5.726
40730SOL     OW24028   6.377   0.804   6.958
40730SOL    HW124029   6.332   0.867   7.013
40730SOL    HW224030   6.437   0.857   6.905
40731SOL     OW24031   8.659   8.058   1.762
40731SOL    HW124032   8.742   8.041   1.806
40731SOL    HW224033   8.677   8.041   1.669
40732SOL     OW24034  10.648   9.283   6.046
40732SOL    HW124035  10.555   9.264   6.035
40732SOL    HW224036  10.662   9.363   5.995
40733SOL     OW24037  11.722   0.019  13.162
40733SOL    HW124038  11.685   0.087  13.218
40733SOL    HW224039  11.704   0.049  13.073
40734SOL     OW24040   2.006   8.051   5.757
40734SOL    HW124041   1.965   8.128   5.719
40734SOL    HW224042   1.998   8.063   5.851
40735SOL     OW24043   9.384  13.812   5.937
40735SOL    HW124044   9.371  13.726   5.897
40735SOL    HW224045   9.444  13.795   6.011
40736SOL     OW24046   6.125  10.149   6.511
40736SOL    HW124047   6.071  10.075   6.540
40736SOL    HW224048   6.138  10.134   6.418
40737SOL     OW24049  13.215   4.390   6.078
40737SOL    HW124050  13.204   4.318   6.016
40737SOL    HW224051  13.231   4.348   6.162
40738SOL     OW24052  11.962   5.218   3.682
40738SOL    HW124053  12.011   5.146   3.723
40738SOL    HW224054  12.005   5.297   3.713
40739SOL     OW24055  11.754  10.189   9.373
40739SOL    HW124056  11.773  10.255   9.439
40739SOL    HW224057  11.658  10.182   9.373
40740SOL     OW24058   5.558  12.450  11.904
40740SOL    HW124059   5.608  12.501  11.841
40740SOL    HW224060   5.592  12.360  11.895
40741SOL     OW24061   0.619  13.447   1.542
40741SOL    HW124062   0.596  13.428   1.451
40741SOL    HW224063   0.580  13.533   1.559
40742SOL     OW24064   6.075   5.650   8.053
40742SOL    HW124065   6.152   5.703   8.072
40742SOL    HW224066   6.050   5.612   8.137
40743SOL     OW24067   3.728   2.333  11.353
40743SOL    HW124068   3.785   2.384  11.412
40743SOL    HW224069   3.666   2.289  11.412
40744SOL     OW24070   9.730  10.041   5.800
40744SOL    HW124071   9.650  10.089   5.821
40744SOL    HW224072   9.800  10.106   5.805
40745SOL     OW24073   0.017   3.787  11.149
40745SOL    HW124074  14.842   3.718  11.114
40745SOL    HW224075  14.872   3.797  11.240
40746SOL     OW24076   7.311   6.938   6.128
40746SOL    HW124077   7.355   6.853   6.117
40746SOL    HW224078   7.229   6.917   6.172
40747SOL     OW24079   0.548   8.738   2.458
40747SOL    HW124080   0.604   8.728   2.535
40747SOL    HW224081   0.485   8.805   2.483
40748SOL     OW24082  11.118  13.749  13.263
40748SOL    HW124083  11.028  13.716  13.265
40748SOL    HW224084  11.110  13.844  13.275
40749SOL     OW24085  14.702  13.315  11.314
40749SOL    HW124086  14.775  13.316  11.252
40749SOL    HW224087  14.703  13.226  11.349
40750SOL     OW24088   4.949   9.509   0.083
40750SOL    HW124089   5.007   9.553   0.021
40750SOL    HW224090   4.949   9.418   0.055
40751SOL     OW24091  13.784   7.288   9.190
40751SOL    HW124092  13.761   7.240   9.269
40751SOL    HW224093  13.854   7.236   9.150
40752SOL     OW24094   8.278  12.020  13.717
40752SOL    HW124095   8.218  11.950  13.742
40752SOL    HW224096   8.247  12.097  13.764
40753SOL     OW24097  11.680   7.298  10.489
40753SOL    HW124098  11.734   7.270  10.415
40753SOL    HW224099  11.737   7.357  10.539
40754SOL     OW24100   0.620   5.075  13.993
40754SOL    HW124101   0.601   5.159  14.037
40754SOL    HW224102   0.598   5.091  13.901
40755SOL     OW24103   6.235   7.233   1.460
40755SOL    HW124104   6.320   7.207   1.494
40755SOL    HW224105   6.173   7.204   1.527
40756SOL     OW24106  11.658   5.008   1.291
40756SOL    HW124107  11.746   5.039   1.311
40756SOL    HW224108  11.644   5.034   1.200
40757SOL     OW24109  12.297   6.528   2.385
40757SOL    HW124110  12.363   6.562   2.446
40757SOL    HW224111  12.302   6.433   2.395
40758SOL     OW24112   2.766   0.179  14.289
40758SOL    HW124113   2.844   0.126  14.272
40758SOL    HW224114   2.762   0.239  14.215
40759SOL     OW24115   8.268  11.599   6.692
40759SOL    HW124116   8.247  11.546   6.616
40759SOL    HW224117   8.255  11.689   6.663
40760SOL     OW24118   8.564   5.424   9.733
40760SOL    HW124119   8.594   5.511   9.761
40760SOL    HW224120   8.504   5.396   9.802
40761SOL     OW24121   6.241   7.673  12.561
40761SOL    HW124122   6.239   7.686  12.466
40761SOL    HW224123   6.160   7.626  12.580
40762SOL     OW24124   4.790   4.413   7.380
40762SOL    HW124125   4.833   4.474   7.320
40762SOL    HW224126   4.846   4.411   7.457
40763SOL     OW24127  10.603   5.049   3.220
40763SOL    HW124128  10.513   5.046   3.253
40763SOL    HW224129  10.612   5.136   3.182
40764SOL     OW24130  12.917   8.201  10.736
40764SOL    HW124131  12.937   8.148  10.658
40764SOL    HW224132  13.000   8.244  10.757
40765SOL     OW24133   9.109   7.207   0.110
40765SOL    HW124134   9.188   7.261   0.116
40765SOL    HW224135   9.135   7.134   0.054
40766SOL     OW24136  14.563  11.972   6.430
40766SOL    HW124137  14.533  12.037   6.367
40766SOL    HW224138  14.608  12.022   6.498
40767SOL     OW24139  12.584  12.102  13.289
40767SOL    HW124140  12.671  12.081  13.256
40767SOL    HW224141  12.542  12.017  13.303
40768SOL     OW24142  11.458   2.889  10.130
40768SOL    HW124143  11.444   2.944  10.053
40768SOL    HW224144  11.521   2.823  10.102
40769SOL     OW24145   1.125   8.990   0.718
40769SOL    HW124146   1.073   9.012   0.795
40769SOL    HW224147   1.062   8.978   0.648
40770SOL     OW24148   6.756   2.225   2.607
40770SOL    HW124149   6.776   2.202   2.698
40770SOL    HW224150   6.839   2.213   2.561
40771SOL     OW24151   3.247  10.592   9.942
40771SOL    HW124152   3.201  10.615  10.023
40771SOL    HW224153   3.339  10.610   9.961
40772SOL     OW24154   5.795   6.682  13.382
40772SOL    HW124155   5.780   6.777  13.377
40772SOL    HW224156   5.785   6.661  13.475
40773SOL     OW24157   9.728  13.089   9.644
40773SOL    HW124158   9.752  13.152   9.712
40773SOL    HW224159   9.689  13.016   9.691
40774SOL     OW24160   5.046   1.641   3.017
40774SOL    HW124161   5.039   1.693   3.097
40774SOL    HW224162   4.985   1.683   2.955
40775SOL     OW24163   5.376   7.567  10.539
40775SOL    HW124164   5.446   7.627  10.567
40775SOL    HW224165   5.330   7.615  10.470
40776SOL     OW24166   7.739  12.024   4.594
40776SOL    HW124167   7.663  11.969   4.578
40776SOL    HW224168   7.715  12.110   4.561
40777SOL     OW24169   5.402   9.312  12.480
40777SOL    HW124170   5.320   9.315  12.433
40777SOL    HW224171   5.384   9.256  12.556
40778SOL     OW24172  11.613  12.747   9.205
40778SOL    HW124173  11.575  12.681   9.148
40778SOL    HW224174  11.643  12.699   9.282
40779SOL     OW24175   7.679   3.920   3.276
40779SOL    HW124176   7.608   3.898   3.336
40779SOL    HW224177   7.642   3.985   3.217
40780SOL     OW24178   2.532   2.525  13.956
40780SOL    HW124179   2.604   2.478  13.999
40780SOL    HW224180   2.548   2.617  13.975
40781SOL     OW24181   1.898  13.486   7.259
40781SOL    HW124182   1.928  13.565   7.305
40781SOL    HW224183   1.840  13.443   7.322
40782SOL     OW24184   9.833   9.675   1.862
40782SOL    HW124185   9.792   9.603   1.910
40782SOL    HW224186   9.823   9.651   1.769
40783SOL     OW24187   8.177   9.055   5.511
40783SOL    HW124188   8.191   9.130   5.569
40783SOL    HW224189   8.264   9.035   5.477
40784SOL     OW24190   5.176   9.274   6.923
40784SOL    HW124191   5.095   9.293   6.972
40784SOL    HW224192   5.169   9.182   6.900
40785SOL     OW24193   8.515   6.030  11.980
40785SOL    HW124194   8.459   6.105  11.960
40785SOL    HW224195   8.460   5.972  12.032
40786SOL     OW24196   7.300  14.658   0.590
40786SOL    HW124197   7.287  14.753   0.585
40786SOL    HW224198   7.331  14.642   0.679
40787SOL     OW24199  14.838   3.392   2.264
40787SOL    HW124200  14.748   3.406   2.292
40787SOL    HW224201  14.850   3.452   2.190
40788SOL     OW24202   5.638  12.701  14.321
40788SOL    HW124203   5.675  12.789  14.323
40788SOL    HW224204   5.554  12.709  14.368
40789SOL     OW24205  14.750   6.403  10.228
40789SOL    HW124206  14.786   6.321  10.195
40789SOL    HW224207  14.678   6.424  10.167
40790SOL     OW24208   9.029  10.540  13.803
40790SOL    HW124209   9.025  10.632  13.829
40790SOL    HW224210   9.089  10.539  13.728
40791SOL     OW24211  11.288   4.983   4.684
40791SOL    HW124212  11.274   5.052   4.749
40791SOL    HW224213  11.297   5.030   4.601
40792SOL     OW24214   4.616   9.993   3.999
40792SOL    HW124215   4.605  10.039   3.916
40792SOL    HW224216   4.664  10.055   4.054
40793SOL     OW24217  11.354   3.125   6.879
40793SOL    HW124218  11.289   3.184   6.917
40793SOL    HW224219  11.430   3.131   6.937
40794SOL     OW24220  10.224   2.598   2.478
40794SOL    HW124221  10.192   2.608   2.568
40794SOL    HW224222  10.232   2.504   2.466
40795SOL     OW24223  14.644  13.199   0.661
40795SOL    HW124224  14.564  13.248   0.678
40795SOL    HW224225  14.712  13.247   0.709
40796SOL     OW24226   3.211  10.117   2.202
40796SOL    HW124227   3.304  10.136   2.216
40796SOL    HW224228   3.169  10.203   2.201
40797SOL     OW24229  13.321  13.144  13.254
40797SOL    HW124230  13.365  13.066  13.287
40797SOL    HW224231  13.241  13.111  13.213
40798SOL     OW24232   5.585   4.442   2.370
40798SOL    HW124233   5.620   4.455   2.282
40798SOL    HW224234   5.615   4.355   2.395
40799SOL     OW24235  10.205  12.551  12.704
40799SOL    HW124236  10.279  12.581  12.756
40799SOL    HW224237  10.139  12.525  12.768
40800SOL     OW24238   4.589   2.990   0.412
40800SOL    HW124239   4.584   2.956   0.323
40800SOL    HW224240   4.580   3.085   0.403
40801SOL     OW24241  11.186   8.251  11.394
40801SOL    HW124242  11.212   8.341  11.377
40801SOL    HW224243  11.266   8.199  11.383
40802SOL     OW24244   2.297  14.648   1.054
40802SOL    HW124245   2.302  14.582   1.123
40802SOL    HW224246   2.304  14.732   1.100
40803SOL     OW24247   1.946  10.741   9.692
40803SOL    HW124248   1.964  10.729   9.785
40803SOL    HW224249   1.876  10.680   9.673
40804SOL     OW24250   6.512   7.845   5.196
40804SOL    HW124251   6.451   7.772   5.189
40804SOL    HW224252   6.564   7.827   5.274
40805SOL     OW24253   7.799   2.160   5.564
40805SOL    HW124254   7.774   2.195   5.649
40805SOL    HW224255   7.740   2.086   5.550
40806SOL     OW24256   7.159   3.831  13.395
40806SOL    HW124257   7.238   3.885  13.388
40806SOL    HW224258   7.125   3.851  13.483
40807SOL     OW24259   4.033   3.143   7.850
40807SOL    HW124260   3.972   3.174   7.918
40807SOL    HW224261   4.117   3.183   7.873
40808SOL     OW24262   7.669   4.820   3.150
40808SOL    HW124263   7.645   4.794   3.061
40808SOL    HW224264   7.764   4.811   3.153
40809SOL     OW24265   7.327   1.646  10.830
40809SOL    HW124266   7.399   1.662  10.892
40809SOL    HW224267   7.255   1.614  10.884
40810SOL     OW24268   1.192   3.929  10.072
40810SOL    HW124269   1.187   3.977  10.155
40810SOL    HW224270   1.239   3.988  10.013
40811SOL     OW24271  10.131   3.701   4.961
40811SOL    HW124272  10.214   3.656   4.951
40811SOL    HW224273  10.151   3.779   5.012
40812SOL     OW24274   0.042   8.225  10.562
40812SOL    HW124275   0.123   8.262  10.595
40812SOL    HW224276   0.017   8.284  10.490
40813SOL     OW24277  11.145  12.145   9.462
40813SOL    HW124278  11.107  12.168   9.547
40813SOL    HW224279  11.236  12.125   9.482
40814SOL     OW24280   6.517  11.666   5.973
40814SOL    HW124281   6.611  11.649   5.967
40814SOL    HW224282   6.477  11.594   5.924
40815SOL     OW24283   7.440   6.020  13.656
40815SOL    HW124284   7.408   5.970  13.581
40815SOL    HW224285   7.362   6.037  13.709
40816SOL     OW24286   0.304  12.045  10.339
40816SOL    HW124287   0.387  12.050  10.292
40816SOL    HW224288   0.327  12.060  10.431
40817SOL     OW24289  14.255   4.894  14.210
40817SOL    HW124290  14.309   4.815  14.216
40817SOL    HW224291  14.219   4.892  14.121
40818SOL     OW24292  14.610  12.077  10.677
40818SOL    HW124293  14.693  12.117  10.650
40818SOL    HW224294  14.555  12.080  10.599
40819SOL     OW24295  10.601   8.753   9.800
40819SOL    HW124296  10.579   8.835   9.756
40819SOL    HW224297  10.696   8.754   9.805
40820SOL     OW24298   9.178   0.089   4.559
40820SOL    HW124299   9.243   0.019   4.565
40820SOL    HW224300   9.223   0.167   4.593
40821SOL     OW24301   7.770  12.552   5.581
40821SOL    HW124302   7.852  12.507   5.559
40821SOL    HW224303   7.702  12.497   5.543
40822SOL     OW24304   4.335   5.421   0.423
40822SOL    HW124305   4.425   5.418   0.390
40822SOL    HW224306   4.326   5.509   0.459
40823SOL     OW24307  11.857   7.952   7.118
40823SOL    HW124308  11.909   8.031   7.108
40823SOL    HW224309  11.799   7.971   7.192
40824SOL     OW24310  10.615   8.936  13.612
40824SOL    HW124311  10.581   9.001  13.550
40824SOL    HW224312  10.617   8.854  13.563
40825SOL     OW24313  14.045   3.165   3.998
40825SOL    HW124314  14.031   3.250   3.958
40825SOL    HW224315  14.029   3.102   3.927
40826SOL     OW24316  13.278   4.930  11.641
40826SOL    HW124317  13.263   4.861  11.705
40826SOL    HW224318  13.372   4.925  11.622
40827SOL     OW24319  10.739  14.676   1.702
40827SOL    HW124320  10.694  14.711   1.625
40827SOL    HW224321  10.668  14.653   1.762
40828SOL     OW24322  13.448  10.824   8.809
40828SOL    HW124323  13.386  10.839   8.880
40828SOL    HW224324  13.534  10.825   8.851
40829SOL     OW24325  13.721   8.991   2.343
40829SOL    HW124326  13.632   9.015   2.366
40829SOL    HW224327  13.714   8.903   2.305
40830SOL     OW24328   7.603   4.783   7.726
40830SOL    HW124329   7.555   4.701   7.718
40830SOL    HW224330   7.675   4.763   7.786
40831SOL     OW24331   9.752   6.368  12.985
40831SOL    HW124332   9.805   6.336  13.058
40831SOL    HW224333   9.816   6.385  12.915
40832SOL     OW24334   0.940   1.288   0.723
40832SOL    HW124335   0.896   1.337   0.792
40832SOL    HW224336   1.025   1.331   0.713
40833SOL     OW24337  13.926  12.300   9.130
40833SOL    HW124338  13.864  12.239   9.090
40833SOL    HW224339  13.882  12.329   9.210
40834SOL     OW24340   4.618  12.697   2.716
40834SOL    HW124341   4.708  12.719   2.740
40834SOL    HW224342   4.583  12.654   2.795
40835SOL     OW24343   1.066  13.964   3.180
40835SOL    HW124344   1.000  13.962   3.249
40835SOL    HW224345   1.146  13.930   3.222
40836SOL     OW24346   0.039  10.568   0.505
40836SOL    HW124347  14.872  10.633   0.556
40836SOL    HW224348   0.095  10.525   0.569
40837SOL     OW24349   8.694   1.843   7.537
40837SOL    HW124350   8.667   1.933   7.520
40837SOL    HW224351   8.734   1.813   7.455
40838SOL     OW24352   4.074   9.650  13.359
40838SOL    HW124353   4.000   9.710  13.353
40838SOL    HW224354   4.151   9.707  13.353
40839SOL     OW24355  11.365  13.981   1.505
40839SOL    HW124356  11.455  13.970   1.475
40839SOL    HW224357  11.315  13.919   1.453
40840SOL     OW24358   6.088  12.049  12.112
40840SOL    HW124359   6.026  12.088  12.050
40840SOL    HW224360   6.032  12.006  12.177
40841SOL     OW24361   7.004  12.616   9.900
40841SOL    HW124362   6.930  12.563   9.930
40841SOL    HW224363   6.999  12.611   9.805
40842SOL     OW24364   2.899  12.215  13.403
40842SOL    HW124365   2.881  12.152  13.334
40842SOL    HW224366   2.975  12.264  13.372
40843SOL     OW24367  13.835  13.523   6.164
40843SOL    HW124368  13.808  13.437   6.132
40843SOL    HW224369  13.906  13.550   6.106
40844SOL     OW24370  13.737  10.206   1.062
40844SOL    HW124371  13.740  10.212   0.966
40844SOL    HW224372  13.814  10.254   1.091
40845SOL     OW24373  14.759  12.433   1.047
40845SOL    HW124374  14.785  12.496   0.979
40845SOL    HW224375  14.842  12.400   1.082
40846SOL     OW24376   2.821  11.772   5.585
40846SOL    HW124377   2.850  11.684   5.560
40846SOL    HW224378   2.878  11.796   5.658
40847SOL     OW24379   5.078  13.800  14.511
40847SOL    HW124380   5.014  13.869  14.532
40847SOL    HW224381   5.075  13.793  14.416
40848SOL     OW24382   4.497   6.457   5.151
40848SOL    HW124383   4.526   6.437   5.062
40848SOL    HW224384   4.432   6.526   5.140
40849SOL     OW24385  10.794   5.659   5.511
40849SOL    HW124386  10.708   5.688   5.539
40849SOL    HW224387  10.852   5.734   5.531
40850SOL     OW24388   8.411  10.600   2.847
40850SOL    HW124389   8.452  10.682   2.875
40850SOL    HW224390   8.465  10.532   2.887
40851SOL     OW24391  12.539   0.687   0.545
40851SOL    HW124392  12.540   0.604   0.498
40851SOL    HW224393  12.447   0.702   0.567
40852SOL     OW24394  13.601  10.203   1.640
40852SOL    HW124395  13.588  10.110   1.657
40852SOL    HW224396  13.536  10.225   1.573
40853SOL     OW24397   7.266   3.028  10.004
40853SOL    HW124398   7.356   3.007   9.979
40853SOL    HW224399   7.240   2.958  10.064
40854SOL     OW24400   1.716   3.119   9.378
40854SOL    HW124401   1.795   3.103   9.429
40854SOL    HW224402   1.664   3.178   9.432
40855SOL     OW24403   5.965   3.963   2.788
40855SOL    HW124404   5.880   3.999   2.765
40855SOL    HW224405   5.961   3.871   2.762
40856SOL     OW24406  10.187   3.231  12.618
40856SOL    HW124407  10.192   3.155  12.561
40856SOL    HW224408  10.116   3.283  12.582
40857SOL     OW24409   4.886   3.918  13.518
40857SOL    HW124410   4.824   3.911  13.591
40857SOL    HW224411   4.887   4.012  13.496
40858SOL     OW24412   0.676  13.184   1.628
40858SOL    HW124413   0.686  13.278   1.609
40858SOL    HW224414   0.582  13.173   1.640
40859SOL     OW24415   3.363   1.141   0.866
40859SOL    HW124416   3.456   1.120   0.870
40859SOL    HW224417   3.333   1.134   0.957
40860SOL     OW24418   7.201   9.651   8.220
40860SOL    HW124419   7.234   9.561   8.222
40860SOL    HW224420   7.108   9.642   8.196
40861SOL     OW24421   6.513   4.385   2.784
40861SOL    HW124422   6.481   4.373   2.695
40861SOL    HW224423   6.607   4.371   2.779
40862SOL     OW24424   0.579   3.286   7.132
40862SOL    HW124425   0.505   3.267   7.190
40862SOL    HW224426   0.649   3.228   7.162
40863SOL     OW24427   7.614  14.169   3.017
40863SOL    HW124428   7.660  14.251   3.001
40863SOL    HW224429   7.675  14.101   2.989
40864SOL     OW24430  11.892  13.388  14.338
40864SOL    HW124431  11.842  13.363  14.416
40864SOL    HW224432  11.866  13.324  14.272
40865SOL     OW24433  12.423  13.435   0.631
40865SOL    HW124434  12.332  13.465   0.638
40865SOL    HW224435  12.418  13.352   0.584
40866SOL     OW24436   4.151  13.043  14.301
40866SOL    HW124437   4.207  13.086  14.367
40866SOL    HW224438   4.213  13.002  14.241
40867SOL     OW24439   6.549   5.252   1.866
40867SOL    HW124440   6.509   5.337   1.850
40867SOL    HW224441   6.643   5.268   1.863
40868SOL     OW24442   2.800   3.480   8.779
40868SOL    HW124443   2.827   3.566   8.811
40868SOL    HW224444   2.872   3.452   8.722
40869SOL     OW24445  12.709   0.681  12.391
40869SOL    HW124446  12.626   0.642  12.367
40869SOL    HW224447  12.774   0.631  12.341
40870SOL     OW24448   4.286  10.782   5.937
40870SOL    HW124449   4.286  10.813   6.028
40870SOL    HW224450   4.229  10.705   5.938
40871SOL     OW24451   8.171   8.704   3.609
40871SOL    HW124452   8.236   8.762   3.649
40871SOL    HW224453   8.154   8.638   3.676
40872SOL     OW24454  11.092  13.297   8.365
40872SOL    HW124455  11.163  13.292   8.302
40872SOL    HW224456  11.119  13.364   8.427
40873SOL     OW24457   9.798   5.580   3.804
40873SOL    HW124458   9.752   5.528   3.869
40873SOL    HW224459   9.869   5.622   3.852
40874SOL     OW24460   7.445  13.069   6.380
40874SOL    HW124461   7.506  13.022   6.437
40874SOL    HW224462   7.378  13.103   6.438
40875SOL     OW24463  11.719   9.746  14.491
40875SOL    HW124464  11.776   9.820  14.470
40875SOL    HW224465  11.630   9.782  14.490
40876SOL     OW24466   3.819   8.652   4.396
40876SOL    HW124467   3.909   8.647   4.429
40876SOL    HW224468   3.814   8.583   4.331
40877SOL     OW24469   6.880   4.918   6.496
40877SOL    HW124470   6.787   4.938   6.510
40877SOL    HW224471   6.918   4.919   6.583
40878SOL     OW24472   2.784  11.002   3.495
40878SOL    HW124473   2.697  10.994   3.455
40878SOL    HW224474   2.845  10.988   3.423
40879SOL     OW24475  10.410   7.369   7.859
40879SOL    HW124476  10.430   7.316   7.781
40879SOL    HW224477  10.469   7.337   7.926
40880SOL     OW24478   2.096   4.806   6.582
40880SOL    HW124479   2.173   4.787   6.636
40880SOL    HW224480   2.110   4.756   6.502
40881SOL     OW24481   6.230  11.320  14.863
40881SOL    HW124482   6.251  11.236   0.022
40881SOL    HW224483   6.220  11.299  14.770
40882SOL     OW24484  11.648  10.994   2.919
40882SOL    HW124485  11.657  11.088   2.909
40882SOL    HW224486  11.659  10.959   2.830
40883SOL     OW24487   6.403   8.222  12.529
40883SOL    HW124488   6.405   8.251  12.620
40883SOL    HW224489   6.356   8.139  12.531
40884SOL     OW24490  14.201   2.331  10.342
40884SOL    HW124491  14.154   2.251  10.319
40884SOL    HW224492  14.254   2.350  10.265
40885SOL     OW24493  10.931   3.593   2.122
40885SOL    HW124494  10.926   3.528   2.192
40885SOL    HW224495  11.024   3.601   2.103
40886SOL     OW24496  12.561  14.676   2.052
40886SOL    HW124497  12.640  14.625   2.033
40886SOL    HW224498  12.515  14.626   2.119
40887SOL     OW24499  10.913  13.603  13.264
40887SOL    HW124500  10.830  13.641  13.237
40887SOL    HW224501  10.937  13.543  13.193
40888SOL     OW24502   6.999   4.701   9.991
40888SOL    HW124503   6.978   4.774   9.933
40888SOL    HW224504   7.035   4.743  10.070
40889SOL     OW24505   5.333   4.081   1.446
40889SOL    HW124506   5.406   4.073   1.385
40889SOL    HW224507   5.323   3.993   1.482
40890SOL     OW24508   8.517  14.880  12.643
40890SOL    HW124509   8.610  14.873  12.625
40890SOL    HW224510   8.489  14.790  12.660
40891SOL     OW24511  14.777   8.013   1.302
40891SOL    HW124512  14.858   8.041   1.345
40891SOL    HW224513  14.769   8.072   1.227
40892SOL     OW24514  11.821   8.173   6.594
40892SOL    HW124515  11.770   8.114   6.538
40892SOL    HW224516  11.762   8.247   6.610
40893SOL     OW24517  10.181   0.278   8.939
40893SOL    HW124518  10.228   0.359   8.920
40893SOL    HW224519  10.108   0.306   8.996
40894SOL     OW24520   2.210   4.162  10.965
40894SOL    HW124521   2.219   4.255  10.947
40894SOL    HW224522   2.240   4.118  10.886
40895SOL     OW24523   3.561   7.656  10.519
40895SOL    HW124524   3.563   7.567  10.555
40895SOL    HW224525   3.632   7.657  10.454
40896SOL     OW24526   3.803   3.751  13.265
40896SOL    HW124527   3.735   3.687  13.286
40896SOL    HW224528   3.823   3.736  13.172
40897SOL     OW24529   9.692  13.187   7.186
40897SOL    HW124530   9.688  13.239   7.106
40897SOL    HW224531   9.762  13.226   7.237
40898SOL     OW24532   7.939   0.093   0.430
40898SOL    HW124533   7.957   0.000   0.447
40898SOL    HW224534   7.923   0.098   0.336
40899SOL     OW24535   7.897   8.499  12.450
40899SOL    HW124536   7.921   8.572  12.393
40899SOL    HW224537   7.805   8.514  12.470
40900SOL     OW24538  11.176   2.955   1.447
40900SOL    HW124539  11.094   2.923   1.408
40900SOL    HW224540  11.167   3.050   1.447
40901SOL     OW24541  13.962   9.546   0.229
40901SOL    HW124542  13.911   9.576   0.154
40901SOL    HW224543  13.955   9.617   0.293
40902SOL     OW24544  12.360   6.892  13.590
40902SOL    HW124545  12.398   6.916  13.674
40902SOL    HW224546  12.416   6.823  13.556
40903SOL     OW24547   5.734   2.800  13.268
40903SOL    HW124548   5.746   2.892  13.292
40903SOL    HW224549   5.655   2.799  13.213
40904SOL     OW24550  14.670  11.274   0.114
40904SOL    HW124551  14.602  11.208   0.097
40904SOL    HW224552  14.751  11.232   0.086
40905SOL     OW24553   8.827  13.984  14.530
40905SOL    HW124554   8.919  14.005  14.541
40905SOL    HW224555   8.784  14.070  14.522
40906SOL     OW24556   7.414   2.152   3.568
40906SOL    HW124557   7.332   2.129   3.524
40906SOL    HW224558   7.406   2.245   3.587
40907SOL     OW24559   8.902   5.503  10.210
40907SOL    HW124560   8.874   5.499  10.119
40907SOL    HW224561   8.916   5.596  10.227
40908SOL     OW24562   7.603   0.911  13.664
40908SOL    HW124563   7.510   0.894  13.648
40908SOL    HW224564   7.649   0.859  13.598
40909SOL     OW24565   3.081  14.450   6.238
40909SOL    HW124566   3.019  14.409   6.177
40909SOL    HW224567   3.157  14.391   6.239
40910SOL     OW24568  14.242   9.243  14.759
40910SOL    HW124569  14.314   9.239  14.696
40910SOL    HW224570  14.169   9.200  14.714
40911SOL     OW24571   7.265  13.832  14.445
40911SOL    HW124572   7.318  13.823  14.366
40911SOL    HW224573   7.175  13.838  14.413
40912SOL     OW24574   1.488   2.824   8.838
40912SOL    HW124575   1.537   2.875   8.902
40912SOL    HW224576   1.404   2.807   8.880
40913SOL     OW24577   8.489  12.355   4.384
40913SOL    HW124578   8.503  12.384   4.474
40913SOL    HW224579   8.395  12.340   4.377
40914SOL     OW24580  11.121   5.208   7.116
40914SOL    HW124581  11.150   5.128   7.160
40914SOL    HW224582  11.195   5.268   7.123
40915SOL     OW24583  10.188   4.240   3.827
40915SOL    HW124584  10.094   4.225   3.827
40915SOL    HW224585  10.226   4.160   3.863
40916SOL     OW24586   3.731  14.626  11.684
40916SOL    HW124587   3.648  14.636  11.637
40916SOL    HW224588   3.708  14.576  11.762
40917SOL     OW24589   9.662   8.201   6.311
40917SOL    HW124590   9.711   8.229   6.233
40917SOL    HW224591   9.584   8.257   6.310
40918SOL     OW24592   5.364   7.178  14.343
40918SOL    HW124593   5.350   7.153  14.435
40918SOL    HW224594   5.311   7.116  14.293
40919SOL     OW24595  10.497  14.535   2.461
40919SOL    HW124596  10.531  14.522   2.549
40919SOL    HW224597  10.408  14.500   2.463
40920SOL     OW24598  11.556   0.765   4.076
40920SOL    HW124599  11.635   0.740   4.028
40920SOL    HW224600  11.589   0.797   4.161
40921SOL     OW24601   9.748   2.053   8.349
40921SOL    HW124602   9.763   1.993   8.422
40921SOL    HW224603   9.800   2.017   8.277
40922SOL     OW24604  11.616   3.828   9.886
40922SOL    HW124605  11.703   3.791   9.879
40922SOL    HW224606  11.586   3.803   9.974
40923SOL     OW24607   2.921  14.662  12.196
40923SOL    HW124608   2.877  14.681  12.113
40923SOL    HW224609   2.855  14.616  12.248
40924SOL     OW24610   3.910   0.427  14.050
40924SOL    HW124611   3.947   0.422  13.962
40924SOL    HW224612   3.939   0.511  14.085
40925SOL     OW24613   7.270   9.818  11.069
40925SOL    HW124614   7.341   9.831  11.131
40925SOL    HW224615   7.211   9.756  11.113
40926SOL     OW24616  11.186   2.835   0.351
40926SOL    HW124617  11.111   2.779   0.335
40926SOL    HW224618  11.149   2.924   0.354
40927SOL     OW24619  10.870  11.698   2.125
40927SOL    HW124620  10.903  11.751   2.053
40927SOL    HW224621  10.792  11.744   2.155
40928SOL     OW24622  13.719   9.058  14.712
40928SOL    HW124623  13.675   8.988  14.665
40928SOL    HW224624  13.710   9.135  14.655
40929SOL     OW24625   8.046  12.189   6.890
40929SOL    HW124626   8.093  12.258   6.844
40929SOL    HW224627   7.955  12.219   6.891
40930SOL     OW24628   1.095  13.614  12.190
40930SOL    HW124629   1.160  13.623  12.120
40930SOL    HW224630   1.034  13.686  12.176
40931SOL     OW24631   9.043   2.622   4.613
40931SOL    HW124632   9.098   2.558   4.569
40931SOL    HW224633   8.958   2.614   4.569
40932SOL     OW24634  13.376   6.432   4.336
40932SOL    HW124635  13.433   6.403   4.265
40932SOL    HW224636  13.297   6.378   4.328
40933SOL     OW24637  14.621   2.313   5.365
40933SOL    HW124638  14.620   2.403   5.400
40933SOL    HW224639  14.537   2.276   5.391
40934SOL     OW24640  11.313   9.403   5.569
40934SOL    HW124641  11.219   9.417   5.554
40934SOL    HW224642  11.347   9.372   5.485
40935SOL     OW24643   6.496  11.672  13.391
40935SOL    HW124644   6.450  11.593  13.367
40935SOL    HW224645   6.518  11.660  13.484
40936SOL     OW24646   1.251   9.218  10.524
40936SOL    HW124647   1.259   9.131  10.563
40936SOL    HW224648   1.238   9.202  10.430
40937SOL     OW24649  14.216   0.529   7.176
40937SOL    HW124650  14.268   0.609   7.173
40937SOL    HW224651  14.271   0.465   7.221
40938SOL     OW24652  10.752   8.340   4.818
40938SOL    HW124653  10.846   8.338   4.802
40938SOL    HW224654  10.741   8.304   4.906
40939SOL     OW24655  13.336  13.468   6.594
40939SOL    HW124656  13.295  13.555   6.596
40939SOL    HW224657  13.272  13.412   6.551
40940SOL     OW24658   8.809   4.494  13.111
40940SOL    HW124659   8.743   4.515  13.046
40940SOL    HW224660   8.767   4.514  13.195
40941SOL     OW24661   8.976  14.074  13.898
40941SOL    HW124662   8.950  14.053  13.808
40941SOL    HW224663   9.046  14.138  13.888
40942SOL     OW24664  14.031   9.751   5.237
40942SOL    HW124665  14.088   9.725   5.310
40942SOL    HW224666  14.077   9.722   5.159
40943SOL     OW24667   4.662   9.634  14.522
40943SOL    HW124668   4.700   9.646  14.435
40943SOL    HW224669   4.581   9.685  14.520
40944SOL     OW24670  11.751  13.455  13.385
40944SOL    HW124671  11.715  13.367  13.395
40944SOL    HW224672  11.695  13.496  13.319
40945SOL     OW24673   6.904   9.371   1.922
40945SOL    HW124674   6.890   9.425   2.000
40945SOL    HW224675   6.985   9.405   1.883
40946SOL     OW24676   5.462   4.066   1.843
40946SOL    HW124677   5.387   4.098   1.893
40946SOL    HW224678   5.430   3.988   1.799
40947SOL     OW24679   5.241   2.958   9.383
40947SOL    HW124680   5.254   2.945   9.477
40947SOL    HW224681   5.228   3.053   9.374
40948SOL     OW24682   5.386  10.445  12.222
40948SOL    HW124683   5.305  10.489  12.198
40948SOL    HW224684   5.455  10.509  12.201
40949SOL     OW24685  10.604   2.246  13.015
40949SOL    HW124686  10.687   2.197  13.015
40949SOL    HW224687  10.547   2.196  12.957
40950SOL     OW24688  10.229   2.094  14.078
40950SOL    HW124689  10.265   2.180  14.057
40950SOL    HW224690  10.175   2.072  14.002
40951SOL     OW24691   8.204   6.378  11.582
40951SOL    HW124692   8.186   6.375  11.676
40951SOL    HW224693   8.277   6.318  11.570
40952SOL     OW24694  12.834   3.948  13.959
40952SOL    HW124695  12.865   4.018  13.903
40952SOL    HW224696  12.872   3.967  14.045
40953SOL     OW24697   6.945  10.833   6.565
40953SOL    HW124698   6.870  10.782   6.596
40953SOL    HW224699   6.926  10.923   6.591
40954SOL     OW24700   2.588   0.569   8.125
40954SOL    HW124701   2.646   0.592   8.052
40954SOL    HW224702   2.616   0.481   8.151
40955SOL     OW24703   7.251   3.868   6.281
40955SOL    HW124704   7.293   3.942   6.324
40955SOL    HW224705   7.196   3.828   6.348
40956SOL     OW24706   5.992  10.038   7.188
40956SOL    HW124707   6.003   9.948   7.219
40956SOL    HW224708   5.957  10.086   7.263
40957SOL     OW24709   2.742   6.423   2.479
40957SOL    HW124710   2.719   6.406   2.570
40957SOL    HW224711   2.729   6.340   2.434
40958SOL     OW24712   1.869  13.044  13.018
40958SOL    HW124713   1.868  13.017  13.109
40958SOL    HW224714   1.783  13.018  12.984
40959SOL     OW24715   4.324   2.435   1.420
40959SOL    HW124716   4.338   2.467   1.509
40959SOL    HW224717   4.237   2.396   1.423
40960SOL     OW24718  14.003  14.564   4.318
40960SOL    HW124719  13.937  14.521   4.373
40960SOL    HW224720  14.084  14.559   4.369
40961SOL     OW24721   1.992   9.977   8.690
40961SOL    HW124722   1.964   9.886   8.682
40961SOL    HW224723   2.088   9.972   8.686
40962SOL     OW24724  14.231   0.069   7.149
40962SOL    HW124725  14.196   0.138   7.205
40962SOL    HW224726  14.161   0.054   7.085
40963SOL     OW24727   2.799  10.017  14.617
40963SOL    HW124728   2.747   9.936  14.616
40963SOL    HW224729   2.739  10.082  14.653
40964SOL     OW24730   2.076   0.618   8.337
40964SOL    HW124731   1.993   0.641   8.294
40964SOL    HW224732   2.052   0.551   8.401
40965SOL     OW24733   6.585   5.656   1.510
40965SOL    HW124734   6.586   5.731   1.452
40965SOL    HW224735   6.674   5.652   1.546
40966SOL     OW24736   6.039  14.301  10.880
40966SOL    HW124737   6.058  14.395  10.875
40966SOL    HW224738   6.124  14.259  10.867
40967SOL     OW24739  10.971  10.010  11.859
40967SOL    HW124740  10.952   9.946  11.790
40967SOL    HW224741  11.025   9.961  11.922
40968SOL     OW24742  13.072  12.877  12.142
40968SOL    HW124743  12.993  12.871  12.088
40968SOL    HW224744  13.132  12.814  12.103
40969SOL     OW24745   4.684   1.455   5.765
40969SOL    HW124746   4.621   1.465   5.837
40969SOL    HW224747   4.672   1.532   5.711
40970SOL     OW24748   0.270   0.220  11.769
40970SOL    HW124749   0.258   0.126  11.784
40970SOL    HW224750   0.224   0.237  11.687
40971SOL     OW24751  12.551  11.872   4.791
40971SOL    HW124752  12.509  11.786   4.784
40971SOL    HW224753  12.644  11.852   4.800
40972SOL     OW24754  12.013  11.242   7.012
40972SOL    HW124755  12.002  11.165   7.068
40972SOL    HW224756  11.955  11.308   7.051
40973SOL     OW24757  11.134   2.730   2.794
40973SOL    HW124758  11.205   2.754   2.734
40973SOL    HW224759  11.082   2.810   2.802
40974SOL     OW24760   6.167   7.548  10.177
40974SOL    HW124761   6.137   7.543  10.086
40974SOL    HW224762   6.255   7.512  10.175
40975SOL     OW24763   2.323  11.129   1.696
40975SOL    HW124764   2.332  11.033   1.703
40975SOL    HW224765   2.356  11.149   1.608
40976SOL     OW24766   5.637   1.380  12.828
40976SOL    HW124767   5.660   1.335  12.909
40976SOL    HW224768   5.542   1.372  12.823
40977SOL     OW24769   4.366  13.952  10.817
40977SOL    HW124770   4.313  13.991  10.747
40977SOL    HW224771   4.405  13.875  10.776
40978SOL     OW24772   1.345  11.741   2.837
40978SOL    HW124773   1.373  11.797   2.765
40978SOL    HW224774   1.422  11.689   2.859
40979SOL     OW24775   5.194  13.335  13.962
40979SOL    HW124776   5.125  13.311  14.023
40979SOL    HW224777   5.161  13.305  13.877
40980SOL     OW24778  11.853  11.846   1.901
40980SOL    HW124779  11.774  11.900   1.904
40980SOL    HW224780  11.834  11.772   1.960
40981SOL     OW24781  12.310   6.414   1.696
40981SOL    HW124782  12.243   6.481   1.697
40981SOL    HW224783  12.266   6.335   1.727
40982SOL     OW24784   0.780   8.308   0.529
40982SOL    HW124785   0.719   8.350   0.590
40982SOL    HW224786   0.866   8.341   0.554
40983SOL     OW24787   6.744   1.872  12.855
40983SOL    HW124788   6.757   1.884  12.761
40983SOL    HW224789   6.686   1.943  12.881
40984SOL     OW24790   7.395   8.011  10.829
40984SOL    HW124791   7.350   7.997  10.913
40984SOL    HW224792   7.455   8.083  10.846
40985SOL     OW24793   1.157   8.345   7.525
40985SOL    HW124794   1.091   8.285   7.559
40985SOL    HW224795   1.122   8.432   7.543
40986SOL     OW24796   8.193  13.217   4.983
40986SOL    HW124797   8.138  13.272   4.927
40986SOL    HW224798   8.139  13.200   5.060
40987SOL     OW24799  10.461   9.735   1.657
40987SOL    HW124800  10.407   9.737   1.578
40987SOL    HW224801  10.522   9.663   1.644
40988SOL     OW24802   2.480  14.802  14.422
40988SOL    HW124803   2.493  14.708  14.432
40988SOL    HW224804   2.535  14.827  14.348
40989SOL     OW24805   0.124   9.287   1.131
40989SOL    HW124806   0.215   9.256   1.125
40989SOL    HW224807   0.093   9.288   1.041
40990SOL     OW24808  13.870   3.902   9.176
40990SOL    HW124809  13.776   3.901   9.195
40990SOL    HW224810  13.887   3.816   9.137
40991SOL     OW24811  12.342  10.616   6.626
40991SOL    HW124812  12.389  10.535   6.604
40991SOL    HW224813  12.405  10.686   6.609
40992SOL     OW24814  13.101   6.506   3.216
40992SOL    HW124815  13.130   6.594   3.240
40992SOL    HW224816  13.164   6.447   3.257
40993SOL     OW24817   5.199   8.261  12.127
40993SOL    HW124818   5.118   8.310  12.141
40993SOL    HW224819   5.211   8.260  12.032
40994SOL     OW24820   4.991  10.473   0.462
40994SOL    HW124821   4.947  10.396   0.426
40994SOL    HW224822   4.952  10.547   0.415
40995SOL     OW24823   3.196   0.626   7.287
40995SOL    HW124824   3.125   0.640   7.223
40995SOL    HW224825   3.199   0.707   7.337
40996SOL     OW24826   8.580  13.151   0.551
40996SOL    HW124827   8.595  13.086   0.620
40996SOL    HW224828   8.664  13.157   0.505
40997SOL     OW24829   3.578  10.137   9.053
40997SOL    HW124830   3.658  10.186   9.036
40997SOL    HW224831   3.576  10.070   8.986
40998SOL     OW24832  11.426   2.951   7.933
40998SOL    HW124833  11.480   2.889   7.982
40998SOL    HW224834  11.489   3.009   7.890
40999SOL     OW24835   5.556  11.553   7.028
40999SOL    HW124836   5.492  11.483   7.042
40999SOL    HW224837   5.548  11.609   7.106
41000SOL     OW24838  14.054   0.925  14.794
41000SOL    HW124839  14.081   0.836  14.817
41000SOL    HW224840  14.078   0.934  14.701
41001SOL     OW24841   0.314  10.709   5.570
41001SOL    HW124842   0.370  10.662   5.632
41001SOL    HW224843   0.304  10.796   5.608
41002SOL     OW24844   7.099   9.373   7.746
41002SOL    HW124845   7.090   9.315   7.822
41002SOL    HW224846   7.009   9.390   7.717
41003SOL     OW24847  12.001  13.336  11.710
41003SOL    HW124848  11.937  13.383  11.764
41003SOL    HW224849  12.077  13.325  11.766
41004SOL     OW24850   4.965   3.489  11.692
41004SOL    HW124851   4.962   3.573  11.646
41004SOL    HW224852   4.979   3.514  11.784
41005SOL     OW24853  11.181   1.245  12.564
41005SOL    HW124854  11.234   1.310  12.610
41005SOL    HW224855  11.225   1.235  12.479
41006SOL     OW24856  11.234   2.603  10.611
41006SOL    HW124857  11.196   2.600  10.699
41006SOL    HW224858  11.328   2.612  10.626
41007SOL     OW24859   4.783   4.918   8.195
41007SOL    HW124860   4.734   4.842   8.225
41007SOL    HW224861   4.728   4.993   8.218
41008SOL     OW24862   9.180   3.545   4.602
41008SOL    HW124863   9.265   3.523   4.563
41008SOL    HW224864   9.202   3.582   4.687
41009SOL     OW24865  11.544  12.144  11.583
41009SOL    HW124866  11.451  12.135  11.607
41009SOL    HW224867  11.585  12.182  11.661
41010SOL     OW24868   0.806   6.596   1.298
41010SOL    HW124869   0.865   6.541   1.245
41010SOL    HW224870   0.752   6.533   1.346
41011SOL     OW24871   3.862   8.429   4.209
41011SOL    HW124872   3.777   8.401   4.243
41011SOL    HW224873   3.873   8.378   4.129
41012SOL     OW24874   0.750   7.506  11.642
41012SOL    HW124875   0.803   7.548  11.574
41012SOL    HW224876   0.798   7.426  11.664
41013SOL     OW24877   1.989   0.286   5.992
41013SOL    HW124878   2.023   0.237   6.067
41013SOL    HW224879   1.981   0.376   6.024
41014SOL     OW24880   0.112   9.182  11.805
41014SOL    HW124881   0.147   9.125  11.873
41014SOL    HW224882   0.018   9.185  11.821
41015SOL     OW24883   9.107   5.190   8.425
41015SOL    HW124884   9.111   5.271   8.374
41015SOL    HW224885   9.061   5.213   8.505
41016SOL     OW24886   9.479  14.379  13.501
41016SOL    HW124887   9.447  14.305  13.449
41016SOL    HW224888   9.402  14.436  13.511
41017SOL     OW24889   0.118   0.001  11.090
41017SOL    HW124890   0.117  14.788  11.083
41017SOL    HW224891   0.206   0.021  11.123
41018SOL     OW24892   9.174   8.343  10.925
41018SOL    HW124893   9.227   8.422  10.912
41018SOL    HW224894   9.163   8.307  10.837
41019SOL     OW24895   9.871   7.027   9.116
41019SOL    HW124896   9.894   6.954   9.173
41019SOL    HW224897   9.858   7.101   9.176
41020SOL     OW24898   5.286  13.444   4.430
41020SOL    HW124899   5.229  13.375   4.462
41020SOL    HW224900   5.368  13.400   4.408
41021SOL     OW24901  11.273   3.070   8.150
41021SOL    HW124902  11.307   3.039   8.234
41021SOL    HW224903  11.337   3.041   8.086
41022SOL     OW24904  11.666  11.945   4.450
41022SOL    HW124905  11.598  11.946   4.517
41022SOL    HW224906  11.628  11.896   4.377
41023SOL     OW24907   5.172  12.378  13.731
41023SOL    HW124908   5.260  12.402  13.760
41023SOL    HW224909   5.184  12.295  13.686
41024SOL     OW24910   8.789  12.699   4.006
41024SOL    HW124911   8.801  12.633   4.075
41024SOL    HW224912   8.800  12.651   3.924
41025SOL     OW24913   9.259   8.162   6.295
41025SOL    HW124914   9.269   8.092   6.360
41025SOL    HW224915   9.202   8.125   6.228
41026SOL     OW24916   7.378   6.754  11.161
41026SOL    HW124917   7.307   6.815  11.143
41026SOL    HW224918   7.444   6.773  11.095
41027SOL     OW24919   1.658  13.277   6.451
41027SOL    HW124920   1.696  13.204   6.500
41027SOL    HW224921   1.720  13.293   6.380
41028SOL     OW24922  14.756   2.693   8.812
41028SOL    HW124923  14.764   2.763   8.876
41028SOL    HW224924  14.694   2.631   8.851
41029SOL     OW24925   6.067  10.450  12.747
41029SOL    HW124926   6.110  10.373  12.784
41029SOL    HW224927   6.035  10.500  12.823
41030SOL     OW24928   7.076  11.310   0.659
41030SOL    HW124929   7.082  11.247   0.586
41030SOL    HW224930   7.067  11.395   0.616
41031SOL     OW24931  14.130   9.158   4.029
41031SOL    HW124932  14.076   9.174   4.107
41031SOL    HW224933  14.083   9.201   3.958
41032SOL     OW24934   5.111   3.936   0.139
41032SOL    HW124935   5.087   4.013   0.191
41032SOL    HW224936   5.111   3.864   0.201
41033SOL     OW24937   1.255  13.740   1.946
41033SOL    HW124938   1.282  13.814   2.001
41033SOL    HW224939   1.267  13.771   1.857
41034SOL     OW24940   3.310   1.629  13.396
41034SOL    HW124941   3.379   1.596  13.454
41034SOL    HW224942   3.284   1.713  13.434
41035SOL     OW24943  11.868   4.987   6.501
41035SOL    HW124944  11.921   4.918   6.540
41035SOL    HW224945  11.780   4.971   6.535
41036SOL     OW24946  11.281   8.185  11.964
41036SOL    HW124947  11.302   8.100  12.002
41036SOL    HW224948  11.346   8.245  12.001
41037SOL     OW24949   1.842   2.208   5.864
41037SOL    HW124950   1.865   2.170   5.780
41037SOL    HW224951   1.922   2.205   5.916
41038SOL     OW24952   8.365   8.363   9.231
41038SOL    HW124953   8.328   8.284   9.270
41038SOL    HW224954   8.379   8.422   9.305
41039SOL     OW24955  13.596   4.336  13.162
41039SOL    HW124956  13.551   4.376  13.237
41039SOL    HW224957  13.575   4.394  13.088
41040SOL     OW24958  14.114   1.629   9.072
41040SOL    HW124959  14.161   1.564   9.125
41040SOL    HW224960  14.025   1.594   9.067
41041SOL     OW24961   0.948  14.823   8.733
41041SOL    HW124962   1.001  14.778   8.798
41041SOL    HW224963   0.990   0.027   8.723
41042SOL     OW24964   1.548   6.927   6.543
41042SOL    HW124965   1.607   6.918   6.618
41042SOL    HW224966   1.601   6.905   6.467
41043SOL     OW24967   6.151  11.989   3.991
41043SOL    HW124968   6.138  11.941   4.074
41043SOL    HW224969   6.228  11.948   3.951
41044SOL     OW24970   5.228   2.854   5.424
41044SOL    HW124971   5.286   2.896   5.360
41044SOL    HW224972   5.269   2.871   5.508
41045SOL     OW24973   4.775   4.141  14.302
41045SOL    HW124974   4.786   4.067  14.361
41045SOL    HW224975   4.728   4.207  14.353
41046SOL     OW24976  13.442  11.274  14.707
41046SOL    HW124977  13.362  11.244  14.664
41046SOL    HW224978  13.425  11.367  14.726
41047SOL     OW24979   1.264   5.085   0.054
41047SOL    HW124980   1.329   5.098  14.868
41047SOL    HW224981   1.315   5.060   0.132
41048SOL     OW24982   1.595   4.663  11.601
41048SOL    HW124983   1.610   4.724  11.673
41048SOL    HW224984   1.546   4.715  11.536
41049SOL     OW24985   8.699   5.070   2.719
41049SOL    HW124986   8.672   5.100   2.806
41049SOL    HW224987   8.628   5.096   2.662
41050SOL     OW24988   0.784   7.802   0.589
41050SOL    HW124989   0.799   7.896   0.584
41050SOL    HW224990   0.870   7.765   0.608
41051SOL     OW24991   5.781   6.969  13.432
41051SOL    HW124992   5.817   7.058  13.434
41051SOL    HW224993   5.687   6.981  13.418
41052SOL     OW24994   8.486   9.602   6.291
41052SOL    HW124995   8.500   9.679   6.346
41052SOL    HW224996   8.431   9.544   6.345
41053SOL     OW24997  12.227   3.266   9.534
41053SOL    HW124998  12.142   3.242   9.571
41053SOL    HW224999  12.207   3.293   9.444
41054SOL     OW25000   0.479   8.248  12.708
41054SOL    HW125001   0.520   8.217  12.627
41054SOL    HW225002   0.512   8.190  12.776
41055SOL     OW25003  11.009   7.327  11.825
41055SOL    HW125004  11.065   7.350  11.899
41055SOL    HW225005  10.929   7.378  11.840
41056SOL     OW25006   1.590   3.488  14.847
41056SOL    HW125007   1.614   3.417  14.787
41056SOL    HW225008   1.626   3.461   0.049
41057SOL     OW25009   7.354  12.584  13.359
41057SOL    HW125010   7.403  12.505  13.333
41057SOL    HW225011   7.373  12.647  13.289
41058SOL     OW25012  14.734   9.061  11.833
41058SOL    HW125013  14.683   9.040  11.911
41058SOL    HW225014  14.684   9.025  11.760
41059SOL     OW25015   6.362  13.132   9.144
41059SOL    HW125016   6.304  13.141   9.220
41059SOL    HW225017   6.306  13.150   9.069
41060SOL     OW25018  11.057  11.918   7.303
41060SOL    HW125019  11.060  11.881   7.391
41060SOL    HW225020  11.106  12.000   7.310
41061SOL     OW25021   5.759   5.633   8.108
41061SOL    HW125022   5.750   5.543   8.138
41061SOL    HW225023   5.818   5.674   8.172
41062SOL     OW25024   4.379   3.248  14.745
41062SOL    HW125025   4.448   3.276  14.804
41062SOL    HW225026   4.381   3.152  14.748
41063SOL     OW25027   5.368  14.004  11.769
41063SOL    HW125028   5.428  13.942  11.810
41063SOL    HW225029   5.421  14.047  11.702
41064SOL     OW25030   2.523  10.606   3.210
41064SOL    HW125031   2.573  10.526   3.227
41064SOL    HW225032   2.587  10.668   3.174
41065SOL     OW25033   1.532  14.236   3.943
41065SOL    HW125034   1.473  14.199   3.877
41065SOL    HW225035   1.541  14.166   4.008
41066SOL     OW25036  12.926   6.253   8.826
41066SOL    HW125037  12.943   6.347   8.821
41066SOL    HW225038  12.834   6.246   8.850
41067SOL     OW25039   8.148   9.335   1.565
41067SOL    HW125040   8.173   9.270   1.499
41067SOL    HW225041   8.220   9.398   1.565
41068SOL     OW25042   6.498   3.591  13.002
41068SOL    HW125043   6.591   3.568  13.004
41068SOL    HW225044   6.491   3.660  12.936
41069SOL     OW25045  13.079   6.412   2.577
41069SOL    HW125046  13.117   6.497   2.601
41069SOL    HW225047  13.095   6.356   2.653
41070SOL     OW25048   4.937   3.918   2.689
41070SOL    HW125049   5.012   3.923   2.749
41070SOL    HW225050   4.926   4.008   2.657
41071SOL     OW25051   4.149  13.759   6.202
41071SOL    HW125052   4.163  13.698   6.275
41071SOL    HW225053   4.176  13.709   6.125
41072SOL     OW25054   5.345   3.925   6.598
41072SOL    HW125055   5.405   3.964   6.662
41072SOL    HW225056   5.368   3.968   6.515
41073SOL     OW25057  11.416  14.134  11.896
41073SOL    HW125058  11.491  14.102  11.846
41073SOL    HW225059  11.445  14.220  11.929
41074SOL     OW25060  13.905   0.474  14.338
41074SOL    HW125061  13.975   0.474  14.272
41074SOL    HW225062  13.932   0.409  14.402
41075SOL     OW25063   0.324   4.584   8.535
41075SOL    HW125064   0.366   4.498   8.535
41075SOL    HW225065   0.268   4.583   8.457
41076SOL     OW25066   8.235   3.362   5.207
41076SOL    HW125067   8.305   3.414   5.166
41076SOL    HW225068   8.154   3.407   5.181
41077SOL     OW25069   3.363   3.942  14.421
41077SOL    HW125070   3.397   3.855  14.442
41077SOL    HW225071   3.434   3.986  14.375
41078SOL     OW25072  11.491   4.763   7.318
41078SOL    HW125073  11.489   4.732   7.228
41078SOL    HW225074  11.421   4.714   7.362
41079SOL     OW25075   2.660   3.153   6.998
41079SOL    HW125076   2.703   3.077   7.038
41079SOL    HW225077   2.638   3.124   6.909
41080SOL     OW25078   6.077  10.896  14.150
41080SOL    HW125079   6.034  10.812  14.133
41080SOL    HW225080   6.170  10.877  14.145
41081SOL     OW25081   4.574  12.003   1.381
41081SOL    HW125082   4.511  11.934   1.360
41081SOL    HW225083   4.640  11.960   1.436
41082SOL     OW25084   8.400   8.512  13.357
41082SOL    HW125085   8.412   8.419  13.338
41082SOL    HW225086   8.325   8.538  13.303
41083SOL     OW25087   7.508   3.383  13.803
41083SOL    HW125088   7.467   3.297  13.798
41083SOL    HW225089   7.441   3.440  13.841
41084SOL     OW25090   5.761  10.881  13.941
41084SOL    HW125091   5.845  10.907  13.902
41084SOL    HW225092   5.734  10.804  13.892
41085SOL     OW25093   5.623   5.052   7.666
41085SOL    HW125094   5.578   5.113   7.724
41085SOL    HW225095   5.696   5.018   7.718
41086SOL     OW25096  10.492   6.557   9.576
41086SOL    HW125097  10.556   6.624   9.552
41086SOL    HW225098  10.476   6.570   9.669
41087SOL     OW25099   8.219   3.835   1.286
41087SOL    HW125100   8.127   3.836   1.260
41087SOL    HW225101   8.228   3.755   1.337
41088SOL     OW25102   4.157  10.746  13.677
41088SOL    HW125103   4.249  10.771  13.684
41088SOL    HW225104   4.126  10.744  13.768
41089SOL     OW25105   4.637  11.638   0.474
41089SOL    HW125106   4.593  11.704   0.527
41089SOL    HW225107   4.584  11.633   0.394
41090SOL     OW25108  10.894   7.630  12.289
41090SOL    HW125109  10.813   7.599  12.248
41090SOL    HW225110  10.937   7.550  12.319
41091SOL     OW25111  11.474   1.083   0.610
41091SOL    HW125112  11.511   0.995   0.601
41091SOL    HW225113  11.536   1.140   0.564
41092SOL     OW25114  11.963   9.408  14.759
41092SOL    HW125115  11.959   9.354  14.838
41092SOL    HW225116  11.883   9.461  14.762
41093SOL     OW25117   1.759  14.180   9.031
41093SOL    HW125118   1.667  14.168   9.011
41093SOL    HW225119   1.798  14.093   9.018
41094SOL     OW25120   7.336   3.844   5.242
41094SOL    HW125121   7.308   3.777   5.180
41094SOL    HW225122   7.267   3.911   5.238
41095SOL     OW25123   3.609   3.340   0.397
41095SOL    HW125124   3.605   3.430   0.363
41095SOL    HW225125   3.569   3.286   0.328
41096SOL     OW25126  11.208  12.528   3.392
41096SOL    HW125127  11.190  12.622   3.397
41096SOL    HW225128  11.145  12.495   3.328
41097SOL     OW25129   9.678   8.788   2.897
41097SOL    HW125130   9.641   8.702   2.881
41097SOL    HW225131   9.639   8.844   2.830
41098SOL     OW25132   8.334   6.094   3.845
41098SOL    HW125133   8.242   6.072   3.857
41098SOL    HW225134   8.344   6.103   3.750
41099SOL     OW25135  10.539   4.246  13.100
41099SOL    HW125136  10.561   4.193  13.177
41099SOL    HW225137  10.571   4.333  13.122
41100SOL     OW25138   6.632  14.236   9.232
41100SOL    HW125139   6.658  14.190   9.312
41100SOL    HW225140   6.577  14.308   9.263
41101SOL     OW25141   8.524  10.064  11.543
41101SOL    HW125142   8.550   9.991  11.599
41101SOL    HW225143   8.435  10.085  11.570
41102SOL     OW25144  10.642  10.374   5.851
41102SOL    HW125145  10.696  10.427   5.910
41102SOL    HW225146  10.591  10.438   5.801
41103SOL     OW25147   9.551  11.306  14.311
41103SOL    HW125148   9.486  11.372  14.335
41103SOL    HW225149   9.606  11.297  14.389
41104SOL     OW25150   9.803   5.026   8.480
41104SOL    HW125151   9.743   4.959   8.513
41104SOL    HW225152   9.882   5.014   8.532
41105SOL     OW25153  11.573   4.321   1.774
41105SOL    HW125154  11.602   4.379   1.845
41105SOL    HW225155  11.477   4.329   1.775
41106SOL     OW25156   2.579  11.552  12.178
41106SOL    HW125157   2.495  11.542  12.134
41106SOL    HW225158   2.566  11.510  12.263
41107SOL     OW25159   2.226   4.082   4.994
41107SOL    HW125160   2.198   4.058   5.083
41107SOL    HW225161   2.193   4.011   4.939
41108SOL     OW25162   2.247  13.363   4.625
41108SOL    HW125163   2.294  13.446   4.629
41108SOL    HW225164   2.261  13.331   4.536
41109SOL     OW25165   3.153   5.778  14.404
41109SOL    HW125166   3.183   5.692  14.433
41109SOL    HW225167   3.075   5.796  14.455
41110SOL     OW25168   7.749   7.871   1.493
41110SOL    HW125169   7.809   7.845   1.424
41110SOL    HW225170   7.805   7.893   1.567
41111SOL     OW25171   2.722   0.036   6.534
41111SOL    HW125172   2.700  14.846   6.476
41111SOL    HW225173   2.764   0.101   6.477
41112SOL     OW25174   3.576   3.532   1.903
41112SOL    HW125175   3.666   3.563   1.913
41112SOL    HW225176   3.531   3.604   1.859
41113SOL     OW25177  11.411  14.153   0.451
41113SOL    HW125178  11.417  14.101   0.371
41113SOL    HW225179  11.495  14.197   0.457
41114SOL     OW25180  14.742  12.119  11.581
41114SOL    HW125181  14.708  12.089  11.665
41114SOL    HW225182  14.758  12.212  11.594
41115SOL     OW25183   7.983  11.625   9.097
41115SOL    HW125184   7.901  11.585   9.068
41115SOL    HW225185   8.025  11.559   9.151
41116SOL     OW25186   0.529   6.623   5.524
41116SOL    HW125187   0.562   6.625   5.614
41116SOL    HW225188   0.605   6.595   5.472
41117SOL     OW25189   2.493   9.376   3.321
41117SOL    HW125190   2.437   9.442   3.280
41117SOL    HW225191   2.513   9.412   3.408
41118SOL     OW25192   2.997   3.194  12.214
41118SOL    HW125193   3.091   3.182  12.205
41118SOL    HW225194   2.981   3.191  12.308
41119SOL     OW25195   1.168   9.012   5.151
41119SOL    HW125196   1.178   8.926   5.111
41119SOL    HW225197   1.179   8.996   5.245
41120SOL     OW25198  11.926   1.777   3.060
41120SOL    HW125199  11.922   1.686   3.088
41120SOL    HW225200  11.903   1.828   3.137
41121SOL     OW25201   7.368   7.465   1.811
41121SOL    HW125202   7.315   7.385   1.812
41121SOL    HW225203   7.304   7.536   1.798
41122SOL     OW25204   2.255  11.098  12.474
41122SOL    HW125205   2.250  11.188  12.442
41122SOL    HW225206   2.349  11.080  12.481
41123SOL     OW25207  13.835   9.634  14.862
41123SOL    HW125208  13.919   9.601  14.830
41123SOL    HW225209  13.793   9.673  14.785
41124SOL     OW25210   5.827  11.072  11.812
41124SOL    HW125211   5.845  10.997  11.756
41124SOL    HW225212   5.748  11.047  11.861
41125SOL     OW25213   0.104   8.589   4.027
41125SOL    HW125214   0.168   8.518   4.024
41125SOL    HW225215   0.120   8.633   4.110
41126SOL     OW25216   0.991   9.546  12.076
41126SOL    HW125217   1.008   9.606  12.004
41126SOL    HW225218   0.895   9.539  12.079
41127SOL     OW25219   8.715   7.729   9.272
41127SOL    HW125220   8.688   7.821   9.275
41127SOL    HW225221   8.685   7.693   9.356
41128SOL     OW25222   0.973   1.673   1.316
41128SOL    HW125223   0.920   1.596   1.295
41128SOL    HW225224   1.046   1.638   1.368
41129SOL     OW25225   0.817   7.791  11.090
41129SOL    HW125226   0.799   7.797  10.997
41129SOL    HW225227   0.908   7.819  11.099
41130SOL     OW25228   3.615   4.395   1.384
41130SOL    HW125229   3.564   4.315   1.399
41130SOL    HW225230   3.556   4.452   1.334
41131SOL     OW25231   1.331   4.601  12.385
41131SOL    HW125232   1.287   4.556  12.313
41131SOL    HW225233   1.262   4.621  12.447
41132SOL     OW25234   2.654   3.456   2.661
41132SOL    HW125235   2.665   3.461   2.756
41132SOL    HW225236   2.731   3.410   2.630
41133SOL     OW25237   0.474   8.864   0.058
41133SOL    HW125238   0.380   8.878   0.060
41133SOL    HW225239   0.491   8.803   0.131
41134SOL     OW25240  13.334  11.963   5.245
41134SOL    HW125241  13.320  11.976   5.339
41134SOL    HW225242  13.413  11.910   5.240
41135SOL     OW25243  11.645   1.191   3.854
41135SOL    HW125244  11.562   1.190   3.902
41135SOL    HW225245  11.669   1.283   3.850
41136SOL     OW25246   9.072   0.740  10.078
41136SOL    HW125247   9.009   0.787  10.134
41136SOL    HW225248   9.019   0.677  10.031
41137SOL     OW25249  12.605   9.791  12.871
41137SOL    HW125250  12.561   9.708  12.853
41137SOL    HW225251  12.668   9.802  12.799
41138SOL     OW25252  12.102   6.423   7.040
41138SOL    HW125253  12.156   6.357   6.997
41138SOL    HW225254  12.056   6.375   7.109
41139SOL     OW25255   4.951   5.795  11.134
41139SOL    HW125256   5.018   5.773  11.069
41139SOL    HW225257   4.937   5.889  11.122
41140SOL     OW25258   6.093   2.587  12.820
41140SOL    HW125259   6.019   2.526  12.812
41140SOL    HW225260   6.129   2.570  12.907
41141SOL     OW25261   4.741  13.472  12.843
41141SOL    HW125262   4.779  13.409  12.904
41141SOL    HW225263   4.778  13.448  12.758
41142SOL     OW25264   0.808  14.764  14.489
41142SOL    HW125265   0.899  14.766  14.520
41142SOL    HW225266   0.810  14.813  14.407
41143SOL     OW25267   8.950   9.394  13.711
41143SOL    HW125268   8.922   9.415  13.800
41143SOL    HW225269   8.966   9.480  13.670
41144SOL     OW25270   0.519   1.954   4.495
41144SOL    HW125271   0.434   1.977   4.457
41144SOL    HW225272   0.569   2.035   4.493
41145SOL     OW25273  10.369   9.819   9.627
41145SOL    HW125274  10.324   9.796   9.546
41145SOL    HW225275  10.308   9.878   9.671
41146SOL     OW25276   0.728   8.111   4.068
41146SOL    HW125277   0.667   8.080   4.002
41146SOL    HW225278   0.802   8.145   4.019
41147SOL     OW25279   0.581   0.839  10.935
41147SOL    HW125280   0.554   0.768  10.993
41147SOL    HW225281   0.634   0.896  10.991
41148SOL     OW25282  14.576   0.741  11.326
41148SOL    HW125283  14.667   0.763  11.343
41148SOL    HW225284  14.550   0.798  11.254
41149SOL     OW25285   0.667   0.024   7.870
41149SOL    HW125286   0.700  14.821   7.900
41149SOL    HW225287   0.582   0.004   7.830
41150SOL     OW25288   9.391   5.642   7.371
41150SOL    HW125289   9.475   5.596   7.364
41150SOL    HW225290   9.333   5.579   7.414
41151SOL     OW25291   7.654   8.115   1.722
41151SOL    HW125292   7.569   8.087   1.688
41151SOL    HW225293   7.633   8.165   1.801
41152SOL     OW25294   9.783   2.775  12.735
41152SOL    HW125295   9.751   2.722  12.807
41152SOL    HW225296   9.821   2.711  12.674
41153SOL     OW25297   6.326   6.725   3.213
41153SOL    HW125298   6.343   6.761   3.300
41153SOL    HW225299   6.412   6.709   3.175
41154SOL     OW25300   2.477  10.803   9.201
41154SOL    HW125301   2.440  10.757   9.126
41154SOL    HW225302   2.554  10.848   9.166
41155SOL     OW25303  11.217  13.293   2.588
41155SOL    HW125304  11.167  13.300   2.669
41155SOL    HW225305  11.222  13.199   2.571
41156SOL     OW25306   5.593   1.354   9.939
41156SOL    HW125307   5.532   1.342   9.866
41156SOL    HW225308   5.680   1.352   9.899
41157SOL     OW25309   1.710   5.707   4.214
41157SOL    HW125310   1.667   5.653   4.280
41157SOL    HW225311   1.804   5.700   4.235
41158SOL     OW25312  11.066   2.818   9.736
41158SOL    HW125313  11.003   2.798   9.806
41158SOL    HW225314  11.084   2.734   9.695
41159SOL     OW25315  13.229   0.104   5.980
41159SOL    HW125316  13.271   0.076   6.061
41159SOL    HW225317  13.262   0.193   5.966
41160SOL     OW25318   7.716   3.069  11.146
41160SOL    HW125319   7.728   3.089  11.053
41160SOL    HW225320   7.660   2.991  11.147
41161SOL     OW25321   2.749  11.704   9.509
41161SOL    HW125322   2.757  11.626   9.454
41161SOL    HW225323   2.702  11.673   9.587
41162SOL     OW25324  13.586  14.629   3.974
41162SOL    HW125325  13.610  14.596   3.888
41162SOL    HW225326  13.655  14.691   3.997
41163SOL     OW25327  11.631   0.898   3.241
41163SOL    HW125328  11.724   0.920   3.238
41163SOL    HW225329  11.625   0.812   3.199
41164SOL     OW25330   5.899  14.261   1.758
41164SOL    HW125331   5.814  14.219   1.744
41164SOL    HW225332   5.958  14.216   1.697
41165SOL     OW25333  13.189   8.855  12.890
41165SOL    HW125334  13.267   8.799  12.888
41165SOL    HW225335  13.178   8.878  12.982
41166SOL     OW25336  14.141  14.126   2.764
41166SOL    HW125337  14.088  14.123   2.685
41166SOL    HW225338  14.124  14.213   2.801
41167SOL     OW25339   3.436   8.687   0.741
41167SOL    HW125340   3.457   8.674   0.648
41167SOL    HW225341   3.341   8.701   0.742
41168SOL     OW25342  11.635   1.786   4.462
41168SOL    HW125343  11.697   1.833   4.407
41168SOL    HW225344  11.604   1.714   4.407
41169SOL     OW25345  11.126   7.844   5.428
41169SOL    HW125346  11.076   7.779   5.378
41169SOL    HW225347  11.083   7.847   5.513
41170SOL     OW25348  14.195   9.305  12.421
41170SOL    HW125349  14.117   9.293  12.475
41170SOL    HW225350  14.161   9.343  12.339
41171SOL     OW25351  11.498  14.192  12.975
41171SOL    HW125352  11.585  14.209  13.012
41171SOL    HW225353  11.474  14.106  13.009
41172SOL     OW25354   2.793   7.676  14.018
41172SOL    HW125355   2.751   7.603  14.064
41172SOL    HW225356   2.854   7.713  14.082
41173SOL     OW25357  10.615  10.403   3.383
41173SOL    HW125358  10.633  10.323   3.433
41173SOL    HW225359  10.681  10.404   3.314
41174SOL     OW25360   6.742   9.887   0.235
41174SOL    HW125361   6.790   9.929   0.163
41174SOL    HW225362   6.747   9.950   0.307
41175SOL     OW25363  11.769   9.217   8.102
41175SOL    HW125364  11.724   9.136   8.081
41175SOL    HW225365  11.751   9.275   8.028
41176SOL     OW25366   0.542  12.362  14.846
41176SOL    HW125367   0.578  12.289  14.795
41176SOL    HW225368   0.524  12.430  14.781
41177SOL     OW25369   6.195   5.861  11.632
41177SOL    HW125370   6.191   5.956  11.627
41177SOL    HW225371   6.124   5.831  11.574
41178SOL     OW25372  11.388   0.962   2.511
41178SOL    HW125373  11.421   0.955   2.422
41178SOL    HW225374  11.466   0.978   2.565
41179SOL     OW25375   9.869  12.021   0.897
41179SOL    HW125376   9.829  11.979   0.820
41179SOL    HW225377   9.956  12.048   0.867
41180SOL     OW25378   1.413   9.254  14.347
41180SOL    HW125379   1.391   9.240  14.439
41180SOL    HW225380   1.329   9.272  14.305
41181SOL     OW25381  11.079   3.538  12.886
41181SOL    HW125382  11.172   3.531  12.866
41181SOL    HW225383  11.057   3.630  12.867
41182SOL     OW25384   9.378   8.541  10.960
41182SOL    HW125385   9.439   8.476  10.995
41182SOL    HW225386   9.345   8.587  11.036
41183SOL     OW25387   1.212  13.139   0.827
41183SOL    HW125388   1.242  13.161   0.915
41183SOL    HW225389   1.288  13.154   0.771
41184SOL     OW25390  11.234  13.434   4.798
41184SOL    HW125391  11.183  13.369   4.846
41184SOL    HW225392  11.212  13.420   4.706
41185SOL     OW25393  14.759   9.936   0.841
41185SOL    HW125394  14.702   9.977   0.776
41185SOL    HW225395  14.701   9.916   0.915
41186SOL     OW25396   8.802   3.929   4.024
41186SOL    HW125397   8.748   3.851   4.009
41186SOL    HW225398   8.872   3.898   4.082
41187SOL     OW25399   2.855   7.050   5.539
41187SOL    HW125400   2.862   6.963   5.500
41187SOL    HW225401   2.940   7.091   5.521
41188SOL     OW25402   0.084  11.353  11.867
41188SOL    HW125403   0.011  11.401  11.828
41188SOL    HW225404   0.059  11.343  11.959
41189SOL     OW25405  11.863  11.610  11.514
41189SOL    HW125406  11.842  11.568  11.597
41189SOL    HW225407  11.781  11.605  11.464
41190SOL     OW25408   6.714   6.259  13.893
41190SOL    HW125409   6.730   6.189  13.956
41190SOL    HW225410   6.800   6.298  13.878
41191SOL     OW25411   2.619  12.394   5.377
41191SOL    HW125412   2.562  12.407   5.301
41191SOL    HW225413   2.615  12.476   5.425
41192SOL     OW25414   6.479   4.013   0.084
41192SOL    HW125415   6.544   4.081   0.063
41192SOL    HW225416   6.528   3.948   0.135
41193SOL     OW25417   7.624   1.572  13.688
41193SOL    HW125418   7.674   1.652  13.671
41193SOL    HW225419   7.539   1.588  13.647
41194SOL     OW25420   5.331   9.978   8.524
41194SOL    HW125421   5.302   9.998   8.613
41194SOL    HW225422   5.290  10.045   8.469
41195SOL     OW25423   5.508   0.172   0.911
41195SOL    HW125424   5.601   0.192   0.921
41195SOL    HW225425   5.478   0.153   0.999
41196SOL     OW25426   5.201   4.167   4.571
41196SOL    HW125427   5.148   4.240   4.605
41196SOL    HW225428   5.261   4.208   4.509
41197SOL     OW25429   7.454   0.028   6.502
41197SOL    HW125430   7.495   0.042   6.588
41197SOL    HW225431   7.511  14.846   6.459
41198SOL     OW25432   7.932   8.739  13.330
41198SOL    HW125433   7.843   8.764  13.358
41198SOL    HW225434   7.966   8.686  13.402
41199SOL     OW25435   6.911   7.496   6.541
41199SOL    HW125436   6.999   7.501   6.579
41199SOL    HW225437   6.892   7.586   6.513
41200SOL     OW25438   3.457  10.892   9.617
41200SOL    HW125439   3.394  10.824   9.590
41200SOL    HW225440   3.403  10.957   9.661
41201SOL     OW25441  10.669   6.936  14.657
41201SOL    HW125442  10.691   6.843  14.663
41201SOL    HW225443  10.585   6.944  14.702
41202SOL     OW25444   6.483   8.084  10.193
41202SOL    HW125445   6.546   8.142  10.236
41202SOL    HW225446   6.399   8.129  10.204
41203SOL     OW25447   5.359   3.780  11.494
41203SOL    HW125448   5.350   3.777  11.589
41203SOL    HW225449   5.438   3.832  11.479
41204SOL     OW25450   1.727   0.264   7.082
41204SOL    HW125451   1.792   0.334   7.085
41204SOL    HW225452   1.699   0.261   6.991
41205SOL     OW25453   9.625   7.484   5.203
41205SOL    HW125454   9.718   7.459   5.202
41205SOL    HW225455   9.613   7.530   5.120
41206SOL     OW25456  10.221  11.147  13.750
41206SOL    HW125457  10.205  11.135  13.844
41206SOL    HW225458  10.244  11.239  13.741
41207SOL     OW25459   2.285   4.842   3.004
41207SOL    HW125460   2.319   4.752   3.008
41207SOL    HW225461   2.206   4.835   2.951
41208SOL     OW25462  10.770   1.975   6.265
41208SOL    HW125463  10.693   2.011   6.310
41208SOL    HW225464  10.781   1.888   6.303
41209SOL     OW25465   1.726  12.665   7.386
41209SOL    HW125466   1.636  12.681   7.414
41209SOL    HW225467   1.780  12.698   7.458
41210SOL     OW25468   1.243   2.869   6.416
41210SOL    HW125469   1.233   2.934   6.486
41210SOL    HW225470   1.243   2.920   6.336
41211SOL     OW25471   9.240   0.879   2.752
41211SOL    HW125472   9.155   0.850   2.786
41211SOL    HW225473   9.235   0.975   2.755
41212SOL     OW25474  14.862   5.388  13.916
41212SOL    HW125475   0.027   5.345  13.987
41212SOL    HW225476  14.841   5.475  13.950
41213SOL     OW25477   2.766   6.414   2.076
41213SOL    HW125478   2.731   6.325   2.083
41213SOL    HW225479   2.742   6.442   1.988
41214SOL     OW25480  11.772   7.926   1.659
41214SOL    HW125481  11.727   7.848   1.690
41214SOL    HW225482  11.859   7.920   1.697
41215SOL     OW25483  13.503   4.186   0.771
41215SOL    HW125484  13.540   4.219   0.853
41215SOL    HW225485  13.532   4.095   0.768
41216SOL     OW25486   2.416  10.333  11.574
41216SOL    HW125487   2.375  10.332  11.660
41216SOL    HW225488   2.408  10.423  11.544
41217SOL     OW25489   0.634   9.378   9.682
41217SOL    HW125490   0.594   9.292   9.669
41217SOL    HW225491   0.682   9.371   9.765
41218SOL     OW25492   8.641   1.604   3.748
41218SOL    HW125493   8.616   1.696   3.760
41218SOL    HW225494   8.734   1.607   3.727
41219SOL     OW25495   5.213   0.192   2.205
41219SOL    HW125496   5.202   0.121   2.142
41219SOL    HW225497   5.125   0.206   2.242
41220SOL     OW25498   7.631  14.193   2.686
41220SOL    HW125499   7.714  14.193   2.733
41220SOL    HW225500   7.594  14.106   2.701
41221SOL     OW25501  12.814   1.425   7.056
41221SOL    HW125502  12.825   1.347   7.111
41221SOL    HW225503  12.860   1.404   6.975
41222SOL     OW25504   4.896  14.332   4.069
41222SOL    HW125505   4.822  14.280   4.039
41222SOL    HW225506   4.944  14.275   4.128
41223SOL     OW25507   1.794   3.837  10.070
41223SOL    HW125508   1.765   3.774  10.004
41223SOL    HW225509   1.786   3.791  10.153
41224SOL     OW25510  10.409  13.634   0.352
41224SOL    HW125511  10.419  13.663   0.261
41224SOL    HW225512  10.434  13.541   0.351
41225SOL     OW25513  11.574  12.261   3.245
41225SOL    HW125514  11.662  12.296   3.230
41225SOL    HW225515  11.517  12.338   3.241
41226SOL     OW25516   7.609   6.763  10.400
41226SOL    HW125517   7.540   6.770  10.465
41226SOL    HW225518   7.563   6.765  10.316
41227SOL     OW25519  14.023  13.183   4.411
41227SOL    HW125520  14.103  13.177   4.359
41227SOL    HW225521  13.963  13.120   4.370
41228SOL     OW25522  10.932  14.266  11.203
41228SOL    HW125523  10.923  14.207  11.278
41228SOL    HW225524  10.964  14.348  11.241
41229SOL     OW25525  13.900   9.980   0.948
41229SOL    HW125526  13.851   9.978   0.865
41229SOL    HW225527  13.848  10.035   1.006
41230SOL     OW25528  12.657  13.435   5.383
41230SOL    HW125529  12.639  13.505   5.445
41230SOL    HW225530  12.587  13.371   5.397
41231SOL     OW25531   3.440   9.110   8.299
41231SOL    HW125532   3.492   9.065   8.366
41231SOL    HW225533   3.354   9.069   8.304
41232SOL     OW25534  10.163   5.784   7.768
41232SOL    HW125535  10.146   5.840   7.844
41232SOL    HW225536  10.197   5.843   7.701
41233SOL     OW25537   1.997   4.969   0.329
41233SOL    HW125538   1.933   4.923   0.275
41233SOL    HW225539   2.022   4.905   0.396
41234SOL     OW25540   7.805  11.002   7.653
41234SOL    HW125541   7.783  10.909   7.646
41234SOL    HW225542   7.745  11.045   7.592
41235SOL     OW25543   2.435   4.239   4.023
41235SOL    HW125544   2.422   4.293   3.945
41235SOL    HW225545   2.352   4.245   4.070
41236SOL     OW25546   6.778  11.485   3.491
41236SOL    HW125547   6.870  11.465   3.509
41236SOL    HW225548   6.734  11.472   3.575
41237SOL     OW25549   7.159  13.642  14.841
41237SOL    HW125550   7.147  13.648  14.746
41237SOL    HW225551   7.251  13.664  14.855
41238SOL     OW25552  12.907   8.097  13.885
41238SOL    HW125553  12.870   8.146  13.812
41238SOL    HW225554  12.985   8.147  13.910
41239SOL     OW25555   3.451   7.329   2.677
41239SOL    HW125556   3.546   7.332   2.678
41239SOL    HW225557   3.427   7.277   2.753
41240SOL     OW25558  14.218   1.128   7.410
41240SOL    HW125559  14.278   1.202   7.413
41240SOL    HW225560  14.146   1.152   7.468
41241SOL     OW25561  11.673   8.103   9.063
41241SOL    HW125562  11.710   8.115   9.151
41241SOL    HW225563  11.701   8.015   9.038
41242SOL     OW25564   7.587   9.741   1.728
41242SOL    HW125565   7.614   9.661   1.682
41242SOL    HW225566   7.669   9.790   1.740
41243SOL     OW25567   9.630  10.697   9.928
41243SOL    HW125568   9.579  10.656   9.998
41243SOL    HW225569   9.597  10.786   9.923
41244SOL     OW25570  10.612   5.293   4.977
41244SOL    HW125571  10.698   5.325   5.004
41244SOL    HW225572  10.628   5.242   4.898
41245SOL     OW25573  10.473   8.971   7.775
41245SOL    HW125574  10.454   9.061   7.801
41245SOL    HW225575  10.442   8.918   7.848
41246SOL     OW25576   2.771   0.467   8.852
41246SOL    HW125577   2.677   0.458   8.839
41246SOL    HW225578   2.786   0.436   8.942
41247SOL     OW25579  12.766   1.736  14.288
41247SOL    HW125580  12.837   1.786  14.247
41247SOL    HW225581  12.784   1.645  14.264
41248SOL     OW25582   7.178  11.857  12.325
41248SOL    HW125583   7.192  11.876  12.417
41248SOL    HW225584   7.240  11.786  12.306
41249SOL     OW25585   0.195   1.821   6.199
41249SOL    HW125586   0.290   1.808   6.210
41249SOL    HW225587   0.158   1.799   6.285
41250SOL     OW25588   3.489   6.458   0.916
41250SOL    HW125589   3.410   6.417   0.951
41250SOL    HW225590   3.560   6.399   0.942
41251SOL     OW25591  10.215   5.542  12.886
41251SOL    HW125592  10.140   5.552  12.944
41251SOL    HW225593  10.198   5.602  12.814
41252SOL     OW25594   9.694   7.224  10.633
41252SOL    HW125595   9.776   7.176  10.638
41252SOL    HW225596   9.710   7.305  10.683
41253SOL     OW25597  12.045   2.078   2.957
41253SOL    HW125598  12.132   2.117   2.968
41253SOL    HW225599  11.985   2.147   2.984
41254SOL     OW25600   0.761   5.006   9.533
41254SOL    HW125601   0.771   5.065   9.458
41254SOL    HW225602   0.836   4.946   9.526
41255SOL     OW25603  11.887   2.920  11.547
41255SOL    HW125604  11.962   2.940  11.490
41255SOL    HW225605  11.815   2.971  11.511
41256SOL     OW25606   7.539  11.201   3.232
41256SOL    HW125607   7.582  11.121   3.260
41256SOL    HW225608   7.610  11.257   3.201
41257SOL     OW25609  11.954   8.393   9.445
41257SOL    HW125610  11.910   8.439   9.374
41257SOL    HW225611  12.015   8.335   9.400
41258SOL     OW25612   9.646   2.804  10.111
41258SOL    HW125613   9.741   2.808  10.116
41258SOL    HW225614   9.621   2.736  10.174
41259SOL     OW25615   5.752   4.498   9.883
41259SOL    HW125616   5.802   4.492   9.801
41259SOL    HW225617   5.738   4.407   9.909
41260SOL     OW25618   1.650  12.335   0.252
41260SOL    HW125619   1.607  12.280   0.187
41260SOL    HW225620   1.742  12.307   0.250
41261SOL     OW25621   8.719   7.686   9.592
41261SOL    HW125622   8.686   7.713   9.678
41261SOL    HW225623   8.792   7.746   9.574
41262SOL     OW25624   7.042   8.852   1.372
41262SOL    HW125625   7.073   8.802   1.296
41262SOL    HW225626   6.951   8.825   1.384
41263SOL     OW25627   6.029   3.240   4.561
41263SOL    HW125628   6.063   3.249   4.650
41263SOL    HW225629   6.062   3.155   4.531
41264SOL     OW25630   5.446   2.387   6.518
41264SOL    HW125631   5.451   2.358   6.609
41264SOL    HW225632   5.373   2.336   6.481
41265SOL     OW25633  10.889  11.228  11.943
41265SOL    HW125634  10.826  11.275  11.998
41265SOL    HW225635  10.889  11.276  11.860
41266SOL     OW25636   2.174   9.645  14.849
41266SOL    HW125637   2.244   9.615   0.024
41266SOL    HW225638   2.150   9.567  14.798
41267SOL     OW25639   0.714  10.471   2.846
41267SOL    HW125640   0.783  10.430   2.793
41267SOL    HW225641   0.744  10.462   2.936
41268SOL     OW25642   3.174   4.016  12.426
41268SOL    HW125643   3.152   4.052  12.340
41268SOL    HW225644   3.140   3.926  12.424
41269SOL     OW25645  13.687   8.126   3.622
41269SOL    HW125646  13.617   8.072   3.658
41269SOL    HW225647  13.755   8.124   3.689
41270SOL     OW25648   6.969   8.830   2.317
41270SOL    HW125649   7.007   8.889   2.383
41270SOL    HW225650   7.036   8.825   2.249
41271SOL     OW25651   7.327   2.171  10.460
41271SOL    HW125652   7.262   2.139  10.523
41271SOL    HW225653   7.315   2.266  10.460
41272SOL     OW25654   4.299   1.784  10.098
41272SOL    HW125655   4.303   1.855  10.034
41272SOL    HW225656   4.223   1.805  10.152
41273SOL     OW25657   5.222  12.572  12.639
41273SOL    HW125658   5.303  12.572  12.588
41273SOL    HW225659   5.231  12.645  12.700
41274SOL     OW25660   5.964   6.789   2.089
41274SOL    HW125661   5.981   6.804   1.996
41274SOL    HW225662   5.940   6.874   2.123
41275SOL     OW25663   8.550   4.892   8.791
41275SOL    HW125664   8.596   4.976   8.792
41275SOL    HW225665   8.466   4.911   8.748
41276SOL     OW25666   2.281   7.082   4.571
41276SOL    HW125667   2.364   7.085   4.525
41276SOL    HW225668   2.297   7.023   4.645
41277SOL     OW25669   0.343   5.997   1.768
41277SOL    HW125670   0.434   5.968   1.779
41277SOL    HW225671   0.324   6.045   1.849
41278SOL     OW25672   7.529  14.828   5.962
41278SOL    HW125673   7.584  14.749   5.967
41278SOL    HW225674   7.454  14.809   6.019
41279SOL     OW25675   4.336  10.801   1.383
41279SOL    HW125676   4.290  10.798   1.299
41279SOL    HW225677   4.371  10.712   1.393
41280SOL     OW25678   5.630   9.042   8.505
41280SOL    HW125679   5.660   9.079   8.588
41280SOL    HW225680   5.706   8.994   8.471
41281SOL     OW25681   0.403  11.877  13.188
41281SOL    HW125682   0.315  11.871  13.150
41281SOL    HW225683   0.449  11.940  13.133
41282SOL     OW25684   6.565   5.977   4.555
41282SOL    HW125685   6.503   5.929   4.608
41282SOL    HW225686   6.541   6.069   4.566
41283SOL     OW25687  10.021   4.864   0.412
41283SOL    HW125688  10.083   4.908   0.354
41283SOL    HW225689  10.027   4.911   0.495
41284SOL     OW25690   8.297   1.029   4.397
41284SOL    HW125691   8.369   0.991   4.448
41284SOL    HW225692   8.308   1.124   4.408
41285SOL     OW25693  13.494  13.832  11.440
41285SOL    HW125694  13.500  13.744  11.476
41285SOL    HW225695  13.472  13.888  11.514
41286SOL     OW25696   1.052   7.055  10.452
41286SOL    HW125697   1.122   7.094  10.400
41286SOL    HW225698   1.003   7.129  10.486
41287SOL     OW25699   3.855   3.752  12.189
41287SOL    HW125700   3.862   3.663  12.224
41287SOL    HW225701   3.770   3.753  12.143
41288SOL     OW25702   0.200   5.514   3.500
41288SOL    HW125703   0.242   5.431   3.477
41288SOL    HW225704   0.170   5.550   3.416
41289SOL     OW25705   5.256   8.667   5.980
41289SOL    HW125706   5.194   8.693   6.047
41289SOL    HW225707   5.202   8.638   5.906
41290SOL     OW25708   2.480   4.366  12.969
41290SOL    HW125709   2.557   4.422  12.982
41290SOL    HW225710   2.498   4.318  12.888
41291SOL     OW25711  12.785  13.691   8.235
41291SOL    HW125712  12.739  13.774   8.221
41291SOL    HW225713  12.798  13.685   8.330
41292SOL     OW25714  14.776  13.537  13.664
41292SOL    HW125715  14.732  13.513  13.582
41292SOL    HW225716  14.835  13.464  13.682
41293SOL     OW25717   2.189   6.675  11.393
41293SOL    HW125718   2.124   6.725  11.442
41293SOL    HW225719   2.138   6.606  11.349
41294SOL     OW25720   4.122   1.318  13.039
41294SOL    HW125721   4.065   1.392  13.018
41294SOL    HW225722   4.129   1.270  12.957
41295SOL     OW25723   7.875   5.436   0.316
41295SOL    HW125724   7.962   5.413   0.285
41295SOL    HW225725   7.827   5.354   0.320
41296SOL     OW25726   8.569   7.502  12.428
41296SOL    HW125727   8.646   7.459  12.464
41296SOL    HW225728   8.512   7.517  12.503
41297SOL     OW25729   3.399   4.704  10.441
41297SOL    HW125730   3.405   4.720  10.347
41297SOL    HW225731   3.318   4.747  10.467
41298SOL     OW25732  14.451   3.567   1.804
41298SOL    HW125733  14.496   3.593   1.724
41298SOL    HW225734  14.483   3.628   1.871
41299SOL     OW25735   6.724  12.036   6.054
41299SOL    HW125736   6.810  12.077   6.044
41299SOL    HW225737   6.669  12.105   6.091
41300SOL     OW25738  13.920   4.192   2.422
41300SOL    HW125739  13.914   4.237   2.337
41300SOL    HW225740  13.966   4.254   2.479
41301SOL     OW25741   5.394   4.576   9.191
41301SOL    HW125742   5.326   4.591   9.126
41301SOL    HW225743   5.472   4.619   9.154
41302SOL     OW25744  14.003   1.015   9.590
41302SOL    HW125745  13.977   0.927   9.615
41302SOL    HW225746  13.995   1.066   9.671
41303SOL     OW25747   1.394   6.435  13.259
41303SOL    HW125748   1.333   6.412  13.189
41303SOL    HW225749   1.466   6.373  13.251
41304SOL     OW25750  13.305   8.766   7.673
41304SOL    HW125751  13.292   8.722   7.589
41304SOL    HW225752  13.289   8.698   7.738
41305SOL     OW25753   0.627   0.185  13.587
41305SOL    HW125754   0.550   0.132  13.606
41305SOL    HW225755   0.699   0.141  13.633
41306SOL     OW25756   8.461   2.340  14.182
41306SOL    HW125757   8.519   2.416  14.185
41306SOL    HW225758   8.380   2.373  14.142
41307SOL     OW25759   7.414   7.064   5.073
41307SOL    HW125760   7.323   7.036   5.060
41307SOL    HW225761   7.435   7.037   5.162
41308SOL     OW25762   8.779   6.011   5.890
41308SOL    HW125763   8.850   5.965   5.934
41308SOL    HW225764   8.805   6.103   5.891
41309SOL     OW25765  11.969  14.434  10.798
41309SOL    HW125766  11.960  14.341  10.817
41309SOL    HW225767  11.880  14.464  10.780
41310SOL     OW25768   0.805   2.322   9.213
41310SOL    HW125769   0.787   2.294   9.123
41310SOL    HW225770   0.723   2.304   9.260
41311SOL     OW25771   1.690  14.318  14.294
41311SOL    HW125772   1.624  14.371  14.338
41311SOL    HW225773   1.764  14.377  14.283
41312SOL     OW25774  14.102   0.227   5.313
41312SOL    HW125775  14.087   0.134   5.328
41312SOL    HW225776  14.062   0.244   5.228
41313SOL     OW25777  11.274  10.283  11.696
41313SOL    HW125778  11.301  10.193  11.717
41313SOL    HW225779  11.293  10.333  11.775
41314SOL     OW25780   6.272  10.502  12.547
41314SOL    HW125781   6.352  10.479  12.595
41314SOL    HW225782   6.206  10.516  12.615
41315SOL     OW25783  11.632   8.148   9.369
41315SOL    HW125784  11.589   8.071   9.407
41315SOL    HW225785  11.708   8.163   9.425
41316SOL     OW25786   2.264  13.136   9.131
41316SOL    HW125787   2.234  13.219   9.092
41316SOL    HW225788   2.359  13.138   9.120
41317SOL     OW25789  12.046  10.634   8.464
41317SOL    HW125790  12.013  10.560   8.411
41317SOL    HW225791  12.059  10.597   8.551
41318SOL     OW25792   2.173   9.735  11.595
41318SOL    HW125793   2.253   9.764  11.639
41318SOL    HW225794   2.196   9.735  11.502
41319SOL     OW25795  12.553  12.640  10.118
41319SOL    HW125796  12.601  12.706  10.168
41319SOL    HW225797  12.485  12.690  10.072
41320SOL     OW25798   5.929   7.025   4.072
41320SOL    HW125799   5.884   6.942   4.056
41320SOL    HW225800   5.873   7.091   4.031
41321SOL     OW25801   4.202   2.345  10.495
41321SOL    HW125802   4.164   2.318  10.578
41321SOL    HW225803   4.157   2.293  10.429
41322SOL     OW25804  10.148   1.020   2.007
41322SOL    HW125805  10.194   1.051   2.085
41322SOL    HW225806  10.086   1.090   1.987
41323SOL     OW25807   2.692  12.756  10.992
41323SOL    HW125808   2.697  12.753  11.088
41323SOL    HW225809   2.599  12.761  10.973
41324SOL     OW25810  11.762   6.990   6.954
41324SOL    HW125811  11.778   6.964   6.863
41324SOL    HW225812  11.800   6.919   7.005
41325SOL     OW25813  13.612   6.537   8.334
41325SOL    HW125814  13.524   6.527   8.297
41325SOL    HW225815  13.662   6.578   8.264
41326SOL     OW25816  13.834   9.456   8.671
41326SOL    HW125817  13.903   9.455   8.737
41326SOL    HW225818  13.880   9.464   8.588
41327SOL     OW25819   8.524  11.656   8.996
41327SOL    HW125820   8.447  11.711   9.011
41327SOL    HW225821   8.558  11.684   8.911
41328SOL     OW25822   3.251  11.937   5.225
41328SOL    HW125823   3.269  12.031   5.216
41328SOL    HW225824   3.241  11.924   5.320
41329SOL     OW25825   9.143   2.929  10.800
41329SOL    HW125826   9.169   2.881  10.879
41329SOL    HW225827   9.051   2.907  10.787
41330SOL     OW25828  10.636  12.164   7.982
41330SOL    HW125829  10.699  12.201   8.045
41330SOL    HW225830  10.557  12.149   8.033
41331SOL     OW25831  11.512   6.285   1.998
41331SOL    HW125832  11.417   6.285   1.990
41331SOL    HW225833  11.537   6.193   1.990
41332SOL     OW25834   5.263   0.443  12.000
41332SOL    HW125835   5.209   0.406  12.070
41332SOL    HW225836   5.346   0.397  12.006
41333SOL     OW25837  12.819   4.564   0.266
41333SOL    HW125838  12.732   4.527   0.279
41333SOL    HW225839  12.863   4.550   0.350
41334SOL     OW25840  14.103   5.159  12.452
41334SOL    HW125841  14.197   5.175  12.447
41334SOL    HW225842  14.091   5.114  12.536
41335SOL     OW25843   1.894   6.877   8.223
41335SOL    HW125844   1.819   6.899   8.167
41335SOL    HW225845   1.960   6.845   8.162
41336SOL     OW25846  13.011  13.991   4.992
41336SOL    HW125847  13.098  13.994   5.032
41336SOL    HW225848  12.955  14.038   5.054
41337SOL     OW25849  10.195  12.513  13.350
41337SOL    HW125850  10.167  12.422  13.341
41337SOL    HW225851  10.285  12.513  13.317
41338SOL     OW25852  12.268  13.746   4.865
41338SOL    HW125853  12.302  13.824   4.908
41338SOL    HW225854  12.260  13.771   4.773
41339SOL     OW25855   2.887  14.755  11.493
41339SOL    HW125856   2.887  14.672  11.540
41339SOL    HW225857   2.906  14.821  11.560
41340SOL     OW25858   5.234   7.232   6.189
41340SOL    HW125859   5.238   7.324   6.161
41340SOL    HW225860   5.146   7.204   6.167
41341SOL     OW25861   2.657   1.304   9.877
41341SOL    HW125862   2.583   1.352   9.839
41341SOL    HW225863   2.630   1.288   9.968
41342SOL     OW25864   6.451   5.938   3.919
41342SOL    HW125865   6.383   5.908   3.859
41342SOL    HW225866   6.459   5.869   3.984
41343SOL     OW25867   6.457  10.771  10.804
41343SOL    HW125868   6.508  10.845  10.835
41343SOL    HW225869   6.512  10.695  10.824
41344SOL     OW25870  11.641  13.963  10.741
41344SOL    HW125871  11.608  14.053  10.745
41344SOL    HW225872  11.722  13.969  10.690
41345SOL     OW25873  14.578  13.183   2.151
41345SOL    HW125874  14.551  13.259   2.101
41345SOL    HW225875  14.561  13.206   2.243
41346SOL     OW25876   4.813   1.650   7.877
41346SOL    HW125877   4.792   1.738   7.844
41346SOL    HW225878   4.861   1.666   7.958
41347SOL     OW25879   0.365   3.983   1.612
41347SOL    HW125880   0.296   4.010   1.672
41347SOL    HW225881   0.414   4.063   1.594
41348SOL     OW25882  10.727   6.753  14.288
41348SOL    HW125883  10.700   6.829  14.339
41348SOL    HW225884  10.655   6.738  14.227
41349SOL     OW25885   3.725   2.177   8.027
41349SOL    HW125886   3.744   2.123   7.950
41349SOL    HW225887   3.803   2.231   8.038
41350SOL     OW25888   1.404  10.149   9.975
41350SOL    HW125889   1.449  10.208   9.915
41350SOL    HW225890   1.330  10.116   9.925
41351SOL     OW25891  14.389   2.518   2.470
41351SOL    HW125892  14.457   2.585   2.479
41351SOL    HW225893  14.340   2.544   2.391
41352SOL     OW25894   7.776   2.816  10.376
41352SOL    HW125895   7.729   2.757  10.435
41352SOL    HW225896   7.802   2.889  10.432
41353SOL     OW25897   6.158   0.665  10.932
41353SOL    HW125898   6.226   0.601  10.911
41353SOL    HW225899   6.110   0.626  11.005
41354SOL     OW25900  13.789  11.375  14.769
41354SOL    HW125901  13.793  11.339  14.680
41354SOL    HW225902  13.725  11.321  14.814
41355SOL     OW25903   3.886   4.926  13.293
41355SOL    HW125904   3.873   4.848  13.348
41355SOL    HW225905   3.893   4.998  13.355
41356SOL     OW25906  14.087   1.292   0.207
41356SOL    HW125907  14.093   1.374   0.159
41356SOL    HW225908  14.030   1.237   0.153
41357SOL     OW25909   8.194  14.592   5.873
41357SOL    HW125910   8.242  14.552   5.801
41357SOL    HW225911   8.114  14.626   5.833
41358SOL     OW25912   3.509   4.055  12.756
41358SOL    HW125913   3.462   4.092  12.681
41358SOL    HW225914   3.601   4.056  12.729
41359SOL     OW25915   1.923   9.157   8.780
41359SOL    HW125916   1.881   9.219   8.839
41359SOL    HW225917   1.993   9.117   8.831
41360SOL     OW25918   0.033   5.798   1.399
41360SOL    HW125919   0.062   5.708   1.383
41360SOL    HW225920   0.005   5.830   1.314
41361SOL     OW25921   3.185  12.653  11.735
41361SOL    HW125922   3.226  12.656  11.821
41361SOL    HW225923   3.255  12.677  11.675
41362SOL     OW25924   5.898   0.531   2.022
41362SOL    HW125925   5.878   0.577   2.103
41362SOL    HW225926   5.813   0.520   1.979
41363SOL     OW25927   1.278  10.517   3.432
41363SOL    HW125928   1.212  10.497   3.499
41363SOL    HW225929   1.343  10.569   3.479
41364SOL     OW25930  13.560  10.133   2.832
41364SOL    HW125931  13.602  10.219   2.826
41364SOL    HW225932  13.466  10.153   2.824
41365SOL     OW25933   5.769   9.146   2.552
41365SOL    HW125934   5.745   9.167   2.462
41365SOL    HW225935   5.805   9.228   2.587
41366SOL     OW25936   8.232   2.108   9.390
41366SOL    HW125937   8.246   2.203   9.383
41366SOL    HW225938   8.304   2.070   9.341
41367SOL     OW25939  13.627   0.840  13.499
41367SOL    HW125940  13.538   0.851  13.467
41367SOL    HW225941  13.666   0.774  13.442
41368SOL     OW25942  10.564   5.822  14.872
41368SOL    HW125943  10.603   5.779   0.066
41368SOL    HW225944  10.573   5.916   0.009
41369SOL     OW25945   8.352   0.826   8.542
41369SOL    HW125946   8.278   0.848   8.486
41369SOL    HW225947   8.317   0.833   8.631
41370SOL     OW25948  10.340   2.343   7.725
41370SOL    HW125949  10.408   2.334   7.792
41370SOL    HW225950  10.355   2.269   7.665
41371SOL     OW25951   7.033   9.783   9.122
41371SOL    HW125952   6.942   9.805   9.101
41371SOL    HW225953   7.034   9.687   9.127
41372SOL     OW25954   9.452   6.281  10.920
41372SOL    HW125955   9.511   6.207  10.906
41372SOL    HW225956   9.500   6.357  10.888
41373SOL     OW25957   4.363   7.584   3.458
41373SOL    HW125958   4.279   7.553   3.422
41373SOL    HW225959   4.380   7.525   3.531
41374SOL     OW25960  10.269   5.356   7.499
41374SOL    HW125961  10.333   5.390   7.561
41374SOL    HW225962  10.299   5.387   7.413
41375SOL     OW25963   8.624   9.528   1.440
41375SOL    HW125964   8.629   9.432   1.450
41375SOL    HW225965   8.591   9.541   1.351
41376SOL     OW25966  10.079   7.881  14.826
41376SOL    HW125967  10.144   7.836  14.879
41376SOL    HW225968  10.087   7.840  14.739
41377SOL     OW25969  12.856  10.771  14.863
41377SOL    HW125970  12.797  10.756   0.056
41377SOL    HW225971  12.916  10.839   0.011
41378SOL     OW25972   9.839   7.604   5.398
41378SOL    HW125973   9.864   7.560   5.317
41378SOL    HW225974   9.810   7.534   5.456
41379SOL     OW25975   4.949   2.089  11.363
41379SOL    HW125976   4.919   2.164  11.415
41379SOL    HW225977   4.956   2.124  11.274
41380SOL     OW25978  11.441   0.289   5.181
41380SOL    HW125979  11.415   0.207   5.140
41380SOL    HW225980  11.367   0.348   5.166
41381SOL     OW25981   8.627   8.741   7.962
41381SOL    HW125982   8.657   8.718   8.050
41381SOL    HW225983   8.568   8.815   7.976
41382SOL     OW25984  10.830  11.726  11.649
41382SOL    HW125985  10.754  11.744  11.704
41382SOL    HW225986  10.794  11.683  11.572
41383SOL     OW25987  14.185   1.019   1.705
41383SOL    HW125988  14.271   0.996   1.671
41383SOL    HW225989  14.134   1.041   1.628
41384SOL     OW25990   8.822   9.740  10.579
41384SOL    HW125991   8.803   9.834  10.573
41384SOL    HW225992   8.741   9.697  10.552
41385SOL     OW25993  13.431   3.586   2.925
41385SOL    HW125994  13.345   3.582   2.883
41385SOL    HW225995  13.440   3.500   2.967
41386SOL     OW25996   8.570  11.695  10.617
41386SOL    HW125997   8.640  11.756  10.640
41386SOL    HW225998   8.535  11.666  10.701
41387SOL     OW25999   7.863   1.953   4.276
41387SOL    HW126000   7.884   2.043   4.251
41387SOL    HW226001   7.885   1.948   4.369
41388SOL     OW26002   1.484   9.118   2.893
41388SOL    HW126003   1.555   9.152   2.947
41388SOL    HW226004   1.483   9.174   2.816
41389SOL     OW26005   5.723   6.778   9.985
41389SOL    HW126006   5.634   6.811   9.999
41389SOL    HW226007   5.719   6.685  10.008
41390SOL     OW26008   6.823   5.792   4.698
41390SOL    HW126009   6.744   5.769   4.650
41390SOL    HW226010   6.880   5.715   4.691
41391SOL     OW26011  14.513   8.224   3.164
41391SOL    HW126012  14.463   8.197   3.241
41391SOL    HW226013  14.528   8.317   3.176
41392SOL     OW26014  10.755   8.518  11.757
41392SOL    HW126015  10.827   8.549  11.812
41392SOL    HW226016  10.794   8.448  11.704
41393SOL     OW26017   6.984   5.438   9.390
41393SOL    HW126018   7.008   5.350   9.360
41393SOL    HW226019   7.059   5.466   9.442
41394SOL     OW26020  10.387   0.109   0.772
41394SOL    HW126021  10.403   0.161   0.851
41394SOL    HW226022  10.393   0.172   0.700
41395SOL     OW26023  12.775   4.981   0.434
41395SOL    HW126024  12.705   4.921   0.460
41395SOL    HW226025  12.809   4.945   0.353
41396SOL     OW26026   6.392  13.366  12.371
41396SOL    HW126027   6.431  13.345  12.286
41396SOL    HW226028   6.300  13.341  12.362
41397SOL     OW26029   0.849  13.193   0.464
41397SOL    HW126030   0.924  13.234   0.506
41397SOL    HW226031   0.816  13.131   0.530
41398SOL     OW26032   4.036  13.581   5.863
41398SOL    HW126033   4.022  13.487   5.852
41398SOL    HW226034   4.118  13.588   5.913
41399SOL     OW26035  12.583  11.526   2.448
41399SOL    HW126036  12.494  11.498   2.424
41399SOL    HW226037  12.582  11.532   2.543
41400SOL     OW26038   7.846   6.798   3.245
41400SOL    HW126039   7.918   6.815   3.184
41400SOL    HW226040   7.850   6.870   3.308
41401SOL     OW26041   5.936  10.201   7.992
41401SOL    HW126042   5.999  10.149   7.942
41401SOL    HW226043   5.873  10.137   8.025
41402SOL     OW26044   7.392   0.152   8.136
41402SOL    HW126045   7.438   0.226   8.176
41402SOL    HW226046   7.420   0.154   8.044
41403SOL     OW26047   4.386   6.913   2.142
41403SOL    HW126048   4.296   6.944   2.135
41403SOL    HW226049   4.407   6.920   2.235
41404SOL     OW26050   1.076   4.583   8.259
41404SOL    HW126051   1.140   4.621   8.319
41404SOL    HW226052   1.128   4.530   8.199
41405SOL     OW26053   7.024  12.023   8.308
41405SOL    HW126054   7.003  12.037   8.215
41405SOL    HW226055   7.089  12.090   8.329
41406SOL     OW26056   2.064   0.736   0.598
41406SOL    HW126057   2.046   0.756   0.506
41406SOL    HW226058   2.130   0.667   0.595
41407SOL     OW26059  10.307   4.555  11.550
41407SOL    HW126060  10.336   4.476  11.504
41407SOL    HW226061  10.381   4.615  11.543
41408SOL     OW26062   8.144   2.098   7.069
41408SOL    HW126063   8.101   2.056   7.143
41408SOL    HW226064   8.231   2.121   7.102
41409SOL     OW26065  12.299   5.159  14.025
41409SOL    HW126066  12.315   5.253  14.034
41409SOL    HW226067  12.380   5.124  13.988
41410SOL     OW26068   2.592   5.387   6.884
41410SOL    HW126069   2.673   5.359   6.840
41410SOL    HW226070   2.527   5.324   6.856
41411SOL     OW26071  13.540  10.220  10.461
41411SOL    HW126072  13.520  10.136  10.420
41411SOL    HW226073  13.545  10.282  10.389
41412SOL     OW26074   5.088  12.165   0.031
41412SOL    HW126075   5.029  12.090   0.040
41412SOL    HW226076   5.147  12.140  14.842
41413SOL     OW26077   6.823   5.561   5.108
41413SOL    HW126078   6.799   5.476   5.070
41413SOL    HW226079   6.868   5.607   5.037
41414SOL     OW26080   7.349  13.478  11.040
41414SOL    HW126081   7.350  13.441  10.952
41414SOL    HW226082   7.368  13.571  11.026
41415SOL     OW26083  14.736   7.869   7.809
41415SOL    HW126084  14.825   7.905   7.806
41415SOL    HW226085  14.683   7.930   7.758
41416SOL     OW26086   4.369   2.386   4.600
41416SOL    HW126087   4.359   2.393   4.695
41416SOL    HW226088   4.388   2.475   4.570
41417SOL     OW26089  12.468   5.259  14.388
41417SOL    HW126090  12.498   5.168  14.392
41417SOL    HW226091  12.396   5.263  14.451
41418SOL     OW26092   8.048   2.082   0.561
41418SOL    HW126093   8.013   2.149   0.502
41418SOL    HW226094   8.003   2.002   0.534
41419SOL     OW26095   4.456  10.497   7.148
41419SOL    HW126096   4.544  10.508   7.112
41419SOL    HW226097   4.470  10.481   7.241
41420SOL     OW26098  12.952   0.643   0.641
41420SOL    HW126099  12.917   0.592   0.568
41420SOL    HW226100  13.022   0.695   0.603
41421SOL     OW26101   6.827  12.118  12.353
41421SOL    HW126102   6.735  12.099  12.333
41421SOL    HW226103   6.842  12.078  12.438
41422SOL     OW26104  13.018   9.712  10.557
41422SOL    HW126105  12.991   9.639  10.612
41422SOL    HW226106  13.086   9.757  10.608
41423SOL     OW26107   4.742  12.416   4.489
41423SOL    HW126108   4.659  12.463   4.491
41423SOL    HW226109   4.808  12.485   4.478
41424SOL     OW26110  12.409   7.527   1.705
41424SOL    HW126111  12.504   7.521   1.695
41424SOL    HW226112  12.381   7.589   1.638
41425SOL     OW26113   9.292   1.351  10.086
41425SOL    HW126114   9.203   1.345  10.050
41425SOL    HW226115   9.329   1.429  10.044
41426SOL     OW26116  14.819   3.748  11.989
41426SOL    HW126117  14.733   3.708  11.999
41426SOL    HW226118  14.817   3.824  12.046
41427SOL     OW26119   7.638  14.188  13.242
41427SOL    HW126120   7.549  14.223  13.234
41427SOL    HW226121   7.629  14.117  13.305
41428SOL     OW26122   8.602  10.296   6.460
41428SOL    HW126123   8.623  10.295   6.554
41428SOL    HW226124   8.679  10.259   6.418
41429SOL     OW26125   6.817   0.370  10.702
41429SOL    HW126126   6.759   0.337  10.632
41429SOL    HW226127   6.763   0.431  10.751
41430SOL     OW26128  11.650   5.894   7.323
41430SOL    HW126129  11.617   5.923   7.409
41430SOL    HW226130  11.581   5.835   7.291
41431SOL     OW26131  12.329  13.020   3.553
41431SOL    HW126132  12.239  12.996   3.574
41431SOL    HW226133  12.322  13.102   3.505
41432SOL     OW26134   1.666   6.818   7.730
41432SOL    HW126135   1.752   6.787   7.701
41432SOL    HW226136   1.605   6.787   7.664
41433SOL     OW26137   1.467  10.003   1.780
41433SOL    HW126138   1.553  10.041   1.800
41433SOL    HW226139   1.445  10.036   1.694
41434SOL     OW26140   8.950  11.368  10.529
41434SOL    HW126141   8.967  11.440  10.588
41434SOL    HW226142   8.869  11.392  10.484
41435SOL     OW26143   1.852  13.808  13.560
41435SOL    HW126144   1.942  13.801  13.527
41435SOL    HW226145   1.798  13.777  13.487
41436SOL     OW26146   0.923   8.471   1.165
41436SOL    HW126147   0.830   8.465   1.184
41436SOL    HW226148   0.966   8.468   1.250
41437SOL     OW26149   3.106   3.338  11.965
41437SOL    HW126150   3.085   3.292  12.046
41437SOL    HW226151   3.021   3.352  11.923
41438SOL     OW26152   2.302   2.504  13.328
41438SOL    HW126153   2.245   2.557  13.384
41438SOL    HW226154   2.388   2.509  13.369
41439SOL     OW26155   5.526   2.657   9.005
41439SOL    HW126156   5.528   2.734   8.948
41439SOL    HW226157   5.470   2.684   9.079
41440SOL     OW26158   7.290   9.555   1.013
41440SOL    HW126159   7.249   9.551   0.926
41440SOL    HW226160   7.290   9.465   1.044
41441SOL     OW26161   8.695   4.586   1.873
41441SOL    HW126162   8.728   4.616   1.789
41441SOL    HW226163   8.613   4.541   1.853
41442SOL     OW26164  12.284   1.909   9.456
41442SOL    HW126165  12.362   1.868   9.419
41442SOL    HW226166  12.211   1.868   9.408
41443SOL     OW26167  13.794   8.823   9.129
41443SOL    HW126168  13.725   8.867   9.179
41443SOL    HW226169  13.825   8.889   9.067
41444SOL     OW26170  14.429  13.283  13.713
41444SOL    HW126171  14.369  13.354  13.739
41444SOL    HW226172  14.376  13.226  13.658
41445SOL     OW26173   0.892  13.219   1.882
41445SOL    HW126174   0.890  13.198   1.976
41445SOL    HW226175   0.807  13.260   1.866
41446SOL     OW26176  12.688  12.848  13.552
41446SOL    HW126177  12.641  12.902  13.488
41446SOL    HW226178  12.754  12.803  13.501
41447SOL     OW26179  11.429  12.263   7.389
41447SOL    HW126180  11.482  12.303   7.321
41447SOL    HW226181  11.491  12.211   7.440
41448SOL     OW26182  13.039  14.111   4.186
41448SOL    HW126183  12.982  14.094   4.111
41448SOL    HW226184  13.118  14.150   4.148
41449SOL     OW26185   4.150   1.692  13.473
41449SOL    HW126186   4.150   1.616  13.414
41449SOL    HW226187   4.237   1.693  13.511
41450SOL     OW26188   0.087   4.407   3.359
41450SOL    HW126189   0.042   4.460   3.293
41450SOL    HW226190   0.175   4.444   3.364
41451SOL     OW26191   3.993   4.359  14.389
41451SOL    HW126192   4.082   4.325  14.382
41451SOL    HW226193   3.981   4.409  14.308
41452SOL     OW26194   0.597  13.410  13.652
41452SOL    HW126195   0.537  13.340  13.627
41452SOL    HW226196   0.540  13.484  13.675
41453SOL     OW26197   3.553   9.034  14.399
41453SOL    HW126198   3.481   9.094  14.420
41453SOL    HW226199   3.519   8.948  14.424
41454SOL     OW26200   8.711   5.588  13.714
41454SOL    HW126201   8.722   5.525  13.643
41454SOL    HW226202   8.794   5.584  13.762
41455SOL     OW26203   8.497   6.907   3.127
41455SOL    HW126204   8.479   6.992   3.087
41455SOL    HW226205   8.591   6.893   3.113
41456SOL     OW26206   1.338  13.205   1.064
41456SOL    HW126207   1.428  13.234   1.050
41456SOL    HW226208   1.325  13.213   1.159
41457SOL     OW26209   2.122  11.408   0.915
41457SOL    HW126210   2.211  11.414   0.948
41457SOL    HW226211   2.114  11.481   0.854
41458SOL     OW26212  10.185  11.230  14.445
41458SOL    HW126213  10.211  11.301  14.504
41458SOL    HW226214  10.090  11.235  14.442
41459SOL     OW26215   6.390   1.910   0.376
41459SOL    HW126216   6.376   1.946   0.289
41459SOL    HW226217   6.451   1.837   0.363
41460SOL     OW26218  13.768   3.911   7.602
41460SOL    HW126219  13.693   3.870   7.645
41460SOL    HW226220  13.790   3.985   7.658
41461SOL     OW26221   3.412   1.120   1.590
41461SOL    HW126222   3.338   1.163   1.634
41461SOL    HW226223   3.374   1.042   1.551
41462SOL     OW26224   8.720   6.421   3.979
41462SOL    HW126225   8.800   6.387   3.940
41462SOL    HW226226   8.655   6.418   3.908
41463SOL     OW26227   3.354   7.316   7.175
41463SOL    HW126228   3.297   7.372   7.122
41463SOL    HW226229   3.367   7.238   7.122
41464SOL     OW26230   7.025   1.380  10.810
41464SOL    HW126231   6.934   1.382  10.781
41464SOL    HW226232   7.052   1.289  10.798
41465SOL     OW26233   8.813   0.211  13.631
41465SOL    HW126234   8.730   0.244  13.666
41465SOL    HW226235   8.810   0.233  13.538
41466SOL     OW26236  13.949   3.222   2.904
41466SOL    HW126237  13.991   3.141   2.934
41466SOL    HW226238  13.877   3.193   2.849
41467SOL     OW26239   5.376  11.005  12.382
41467SOL    HW126240   5.434  10.929  12.381
41467SOL    HW226241   5.346  11.014  12.291
41468SOL     OW26242  10.829   3.554   6.606
41468SOL    HW126243  10.782   3.585   6.528
41468SOL    HW226244  10.760   3.516   6.661
41469SOL     OW26245   2.126  12.541   3.795
41469SOL    HW126246   2.162  12.614   3.846
41469SOL    HW226247   2.044  12.574   3.760
41470SOL     OW26248  14.427  13.269   3.401
41470SOL    HW126249  14.377  13.280   3.320
41470SOL    HW226250  14.361  13.277   3.470
41471SOL     OW26251  10.462   1.083  12.974
41471SOL    HW126252  10.407   1.160  12.959
41471SOL    HW226253  10.543   1.103  12.927
41472SOL     OW26254   6.992  13.285   8.510
41472SOL    HW126255   7.069  13.339   8.527
41472SOL    HW226256   6.924  13.322   8.566
41473SOL     OW26257  14.346  12.516   2.681
41473SOL    HW126258  14.364  12.519   2.587
41473SOL    HW226259  14.432  12.511   2.722
41474SOL     OW26260   8.792   8.572  12.905
41474SOL    HW126261   8.803   8.666  12.921
41474SOL    HW226262   8.763   8.537  12.989
41475SOL     OW26263   5.263  10.977  11.270
41475SOL    HW126264   5.268  11.061  11.315
41475SOL    HW226265   5.170  10.961  11.258
41476SOL     OW26266  10.175  11.256   8.167
41476SOL    HW126267  10.173  11.165   8.136
41476SOL    HW226268  10.113  11.302   8.111
41477SOL     OW26269   4.230   3.108  11.399
41477SOL    HW126270   4.198   3.146  11.481
41477SOL    HW226271   4.263   3.182  11.349
41478SOL     OW26272  11.884   4.434  13.562
41478SOL    HW126273  11.880   4.382  13.482
41478SOL    HW226274  11.817   4.396  13.618
41479SOL     OW26275   8.276  13.404  14.139
41479SOL    HW126276   8.358  13.412  14.090
41479SOL    HW226277   8.241  13.318  14.114
41480SOL     OW26278   5.100   7.613   8.118
41480SOL    HW126279   5.014   7.621   8.076
41480SOL    HW226280   5.162   7.646   8.052
41481SOL     OW26281  10.823   5.018  11.533
41481SOL    HW126282  10.819   5.113  11.544
41481SOL    HW226283  10.824   4.984  11.622
41482SOL     OW26284   6.343   2.062  11.175
41482SOL    HW126285   6.353   2.147  11.220
41482SOL    HW226286   6.266   2.073  11.120
41483SOL     OW26287   1.297   9.189   4.916
41483SOL    HW126288   1.228   9.202   4.981
41483SOL    HW226289   1.278   9.103   4.878
41484SOL     OW26290   8.547  14.132   7.783
41484SOL    HW126291   8.576  14.222   7.770
41484SOL    HW226292   8.578  14.109   7.870
41485SOL     OW26293   5.865   0.509  13.954
41485SOL    HW126294   5.887   0.438  13.893
41485SOL    HW226295   5.773   0.494  13.976
41486SOL     OW26296   2.642   8.907   9.904
41486SOL    HW126297   2.553   8.899   9.939
41486SOL    HW226298   2.651   8.831   9.846
41487SOL     OW26299   7.895   8.562   6.121
41487SOL    HW126300   7.960   8.548   6.052
41487SOL    HW226301   7.939   8.531   6.200
41488SOL     OW26302   0.683   0.128   0.791
41488SOL    HW126303   0.751   0.146   0.856
41488SOL    HW226304   0.631   0.057   0.829
41489SOL     OW26305   7.147   0.215  11.798
41489SOL    HW126306   7.109   0.253  11.719
41489SOL    HW226307   7.139   0.120  11.785
41490SOL     OW26308   4.235  10.605  11.317
41490SOL    HW126309   4.220  10.514  11.342
41490SOL    HW226310   4.234  10.653  11.399
41491SOL     OW26311   4.588   7.874  11.782
41491SOL    HW126312   4.671   7.830  11.768
41491SOL    HW226313   4.601   7.961  11.744
41492SOL     OW26314   9.212  11.615  14.220
41492SOL    HW126315   9.188  11.556  14.148
41492SOL    HW226316   9.305  11.633  14.206
41493SOL     OW26317   6.355   7.533   6.693
41493SOL    HW126318   6.353   7.495   6.781
41493SOL    HW226319   6.325   7.462   6.635
41494SOL     OW26320  11.881   1.968   9.683
41494SOL    HW126321  11.830   1.888   9.667
41494SOL    HW226322  11.815   2.037   9.682
41495SOL     OW26323   3.398  13.959  13.689
41495SOL    HW126324   3.451  13.915  13.622
41495SOL    HW226325   3.422  14.052  13.681
41496SOL     OW26326   3.957   0.712  10.882
41496SOL    HW126327   3.988   0.728  10.971
41496SOL    HW226328   3.892   0.781  10.867
41497SOL     OW26329   7.507   4.776   2.597
41497SOL    HW126330   7.601   4.793   2.590
41497SOL    HW226331   7.469   4.862   2.617
41498SOL     OW26332   3.485  12.990  14.608
41498SOL    HW126333   3.476  12.929  14.535
41498SOL    HW226334   3.542  13.059  14.575
41499SOL     OW26335   9.382  14.776   9.790
41499SOL    HW126336   9.302  14.725   9.779
41499SOL    HW226337   9.353  14.858   9.831
41500SOL     OW26338  14.045   5.231  10.718
41500SOL    HW126339  14.049   5.321  10.750
41500SOL    HW226340  14.086   5.179  10.787
41501SOL     OW26341  11.407  10.749   8.285
41501SOL    HW126342  11.452  10.715   8.362
41501SOL    HW226343  11.374  10.835   8.312
41502SOL     OW26344  12.862  12.437   4.316
41502SOL    HW126345  12.875  12.485   4.398
41502SOL    HW226346  12.899  12.350   4.334
41503SOL     OW26347  10.623   2.288   2.151
41503SOL    HW126348  10.603   2.329   2.067
41503SOL    HW226349  10.710   2.321   2.174
41504SOL     OW26350   7.013   5.553   7.391
41504SOL    HW126351   7.003   5.542   7.485
41504SOL    HW226352   7.052   5.639   7.381
41505SOL     OW26353  10.407  11.140   4.049
41505SOL    HW126354  10.478  11.090   4.009
41505SOL    HW226355  10.339  11.143   3.981
41506SOL     OW26356   0.416   6.293   3.270
41506SOL    HW126357   0.409   6.296   3.366
41506SOL    HW226358   0.454   6.377   3.246
41507SOL     OW26359  13.037  12.403   0.976
41507SOL    HW126360  13.049  12.372   1.066
41507SOL    HW226361  12.948  12.436   0.974
41508SOL     OW26362  11.811  14.152   3.705
41508SOL    HW126363  11.894  14.147   3.752
41508SOL    HW226364  11.803  14.243   3.679
41509SOL     OW26365   8.167   8.687   4.076
41509SOL    HW126366   8.115   8.750   4.126
41509SOL    HW226367   8.253   8.688   4.118
41510SOL     OW26368  12.376  11.147   1.588
41510SOL    HW126369  12.308  11.099   1.636
41510SOL    HW226370  12.329  11.220   1.548
41511SOL     OW26371  12.428   4.620   1.228
41511SOL    HW126372  12.353   4.631   1.170
41511SOL    HW226373  12.396   4.568   1.301
41512SOL     OW26374   2.609  13.480  11.878
41512SOL    HW126375   2.623  13.417  11.807
41512SOL    HW226376   2.686  13.472  11.933
41513SOL     OW26377   6.517   4.170  12.869
41513SOL    HW126378   6.510   4.132  12.782
41513SOL    HW226379   6.469   4.110  12.926
41514SOL     OW26380   3.766  11.362  13.422
41514SOL    HW126381   3.678  11.391  13.446
41514SOL    HW226382   3.804  11.438  13.377
41515SOL     OW26383  12.460   5.931  12.912
41515SOL    HW126384  12.555   5.923  12.914
41515SOL    HW226385  12.430   5.873  12.982
41516SOL     OW26386   8.901  14.766   2.760
41516SOL    HW126387   8.874  14.825   2.830
41516SOL    HW226388   8.937  14.823   2.693
41517SOL     OW26389   7.454   3.926   3.431
41517SOL    HW126390   7.415   3.868   3.496
41517SOL    HW226391   7.397   3.918   3.354
41518SOL     OW26392   2.693  10.923   8.354
41518SOL    HW126393   2.757  10.852   8.348
41518SOL    HW226394   2.611  10.880   8.378
41519SOL     OW26395  11.386   6.955   4.348
41519SOL    HW126396  11.460   6.898   4.328
41519SOL    HW226397  11.331   6.904   4.407
41520SOL     OW26398   3.678  11.303   6.141
41520SOL    HW126399   3.689  11.238   6.211
41520SOL    HW226400   3.692  11.387   6.184
41521SOL     OW26401   0.157  11.896  13.049
41521SOL    HW126402   0.233  11.926  12.999
41521SOL    HW226403   0.113  11.833  12.992
41522SOL     OW26404   9.179   5.666  12.424
41522SOL    HW126405   9.171   5.607  12.349
41522SOL    HW226406   9.091   5.669  12.461
41523SOL     OW26407   3.086   5.771   1.860
41523SOL    HW126408   3.051   5.835   1.798
41523SOL    HW226409   3.166   5.739   1.818
41524SOL     OW26410   4.447   1.440   5.545
41524SOL    HW126411   4.447   1.372   5.478
41524SOL    HW226412   4.364   1.486   5.532
41525SOL     OW26413  13.384   1.216   4.163
41525SOL    HW126414  13.298   1.256   4.173
41525SOL    HW226415  13.406   1.185   4.252
41526SOL     OW26416   2.975  12.449   6.365
41526SOL    HW126417   2.975  12.528   6.419
41526SOL    HW226418   3.068  12.429   6.351
41527SOL     OW26419   9.542   6.337   2.382
41527SOL    HW126420   9.635   6.348   2.403
41527SOL    HW226421   9.542   6.287   2.301
41528SOL     OW26422  11.345   0.489   2.578
41528SOL    HW126423  11.437   0.501   2.555
41528SOL    HW226424  11.303   0.571   2.555
41529SOL     OW26425  10.108   1.191   0.168
41529SOL    HW126426  10.055   1.127   0.120
41529SOL    HW226427  10.180   1.212   0.109
41530SOL     OW26428   3.079  14.302  12.548
41530SOL    HW126429   3.128  14.247  12.609
41530SOL    HW226430   3.043  14.241  12.484
41531SOL     OW26431   8.797   2.701   1.256
41531SOL    HW126432   8.882   2.702   1.212
41531SOL    HW226433   8.746   2.636   1.207
41532SOL     OW26434  12.168  14.340   4.848
41532SOL    HW126435  12.087  14.312   4.804
41532SOL    HW226436  12.178  14.432   4.822
41533SOL     OW26437   6.521  10.717   1.945
41533SOL    HW126438   6.540  10.654   2.015
41533SOL    HW226439   6.479  10.665   1.876
41534SOL     OW26440   8.563   3.127  13.730
41534SOL    HW126441   8.472   3.133  13.759
41534SOL    HW226442   8.578   3.034  13.714
41535SOL     OW26443   2.174   7.194  13.889
41535SOL    HW126444   2.170   7.148  13.973
41535SOL    HW226445   2.097   7.252  13.890
41536SOL     OW26446   1.435   6.634   0.679
41536SOL    HW126447   1.356   6.607   0.726
41536SOL    HW226448   1.412   6.624   0.587
41537SOL     OW26449   3.798   1.157  10.295
41537SOL    HW126450   3.788   1.069  10.257
41537SOL    HW226451   3.712   1.176  10.334
41538SOL     OW26452   5.791  13.955   7.649
41538SOL    HW126453   5.770  14.045   7.622
41538SOL    HW226454   5.780  13.956   7.744
41539SOL     OW26455  10.812  11.329  14.690
41539SOL    HW126456  10.740  11.276  14.655
41539SOL    HW226457  10.774  11.416  14.703
41540SOL     OW26458   1.294   7.122  10.278
41540SOL    HW126459   1.356   7.060  10.242
41540SOL    HW226460   1.349   7.188  10.322
41541SOL     OW26461  13.005   4.093   7.845
41541SOL    HW126462  12.950   4.172   7.848
41541SOL    HW226463  12.943   4.021   7.839
41542SOL     OW26464   3.931   0.862   3.583
41542SOL    HW126465   3.836   0.855   3.573
41542SOL    HW226466   3.953   0.945   3.540
41543SOL     OW26467  14.794   8.326   8.609
41543SOL    HW126468  14.859   8.341   8.677
41543SOL    HW226469  14.795   8.231   8.595
41544SOL     OW26470   7.193   0.592   3.636
41544SOL    HW126471   7.273   0.552   3.670
41544SOL    HW226472   7.140   0.608   3.714
41545SOL     OW26473  10.548   3.206   8.075
41545SOL    HW126474  10.485   3.257   8.125
41545SOL    HW226475  10.503   3.123   8.058
41546SOL     OW26476   0.689   9.079   8.046
41546SOL    HW126477   0.691   9.105   7.954
41546SOL    HW226478   0.663   8.987   8.044
41547SOL     OW26479   1.161  12.739  10.814
41547SOL    HW126480   1.145  12.820  10.767
41547SOL    HW226481   1.177  12.766  10.905
41548SOL     OW26482   4.047   0.188  14.783
41548SOL    HW126483   3.997   0.110  14.804
41548SOL    HW226484   4.025   0.207  14.692
41549SOL     OW26485   0.245   9.008   4.837
41549SOL    HW126486   0.301   9.081   4.864
41549SOL    HW226487   0.232   9.022   4.743
41550SOL     OW26488  13.160   7.589  14.601
41550SOL    HW126489  13.152   7.670  14.651
41550SOL    HW226490  13.087   7.535  14.631
41551SOL     OW26491  13.400   8.596   6.245
41551SOL    HW126492  13.403   8.675   6.299
41551SOL    HW226493  13.379   8.627   6.158
41552SOL     OW26494   9.729   9.121  10.832
41552SOL    HW126495   9.713   9.034  10.795
41552SOL    HW226496   9.792   9.106  10.902
41553SOL     OW26497   5.832   6.780   9.741
41553SOL    HW126498   5.785   6.784   9.824
41553SOL    HW226499   5.924   6.782   9.766
41554SOL     OW26500  13.164   8.060  10.672
41554SOL    HW126501  13.235   8.071  10.608
41554SOL    HW226502  13.183   8.125  10.740
41555SOL     OW26503   8.657   8.864   5.841
41555SOL    HW126504   8.700   8.933   5.892
41555SOL    HW226505   8.700   8.867   5.755
41556SOL     OW26506  14.761   5.133   1.934
41556SOL    HW126507  14.820   5.092   1.870
41556SOL    HW226508  14.689   5.167   1.881
41557SOL     OW26509  13.886   5.000  10.162
41557SOL    HW126510  13.842   5.033  10.241
41557SOL    HW226511  13.819   5.003  10.094
41558SOL     OW26512  10.576  13.084   3.848
41558SOL    HW126513  10.669  13.095   3.864
41558SOL    HW226514  10.538  13.170   3.868
41559SOL     OW26515   2.763   6.925  11.507
41559SOL    HW126516   2.826   6.855  11.525
41559SOL    HW226517   2.816   7.005  11.508
41560SOL     OW26518  10.467   9.264  10.968
41560SOL    HW126519  10.408   9.250  10.894
41560SOL    HW226520  10.492   9.176  10.997
41561SOL     OW26521  11.333  13.687  14.157
41561SOL    HW126522  11.268  13.757  14.163
41561SOL    HW226523  11.359  13.687  14.065
41562SOL     OW26524   2.342  11.003   0.394
41562SOL    HW126525   2.303  11.050   0.320
41562SOL    HW226526   2.426  11.046   0.407
41563SOL     OW26527  14.309   1.972  10.457
41563SOL    HW126528  14.318   1.947  10.549
41563SOL    HW226529  14.362   1.909  10.409
41564SOL     OW26530   1.430  10.141   3.767
41564SOL    HW126531   1.371  10.122   3.693
41564SOL    HW226532   1.384  10.109   3.844
41565SOL     OW26533  13.510   7.771   5.338
41565SOL    HW126534  13.511   7.742   5.429
41565SOL    HW226535  13.581   7.836   5.333
41566SOL     OW26536   8.614  10.168   5.866
41566SOL    HW126537   8.638  10.075   5.863
41566SOL    HW226538   8.518  10.168   5.869
41567SOL     OW26539   8.775   9.075   2.743
41567SOL    HW126540   8.851   9.018   2.731
41567SOL    HW226541   8.812   9.159   2.770
41568SOL     OW26542  11.354   8.949   0.575
41568SOL    HW126543  11.357   8.929   0.668
41568SOL    HW226544  11.393   8.873   0.533
41569SOL     OW26545   4.316  10.303  11.676
41569SOL    HW126546   4.261  10.226  11.662
41569SOL    HW226547   4.291  10.336  11.762
41570SOL     OW26548   4.949   9.858   8.611
41570SOL    HW126549   4.906   9.787   8.658
41570SOL    HW226550   4.883   9.890   8.550
41571SOL     OW26551   1.538  10.128   1.545
41571SOL    HW126552   1.632  10.128   1.565
41571SOL    HW226553   1.533  10.105   1.452
41572SOL     OW26554  12.810   4.327   9.031
41572SOL    HW126555  12.784   4.319   8.939
41572SOL    HW226556  12.822   4.236   9.060
41573SOL     OW26557  13.003  12.921   7.608
41573SOL    HW126558  13.090  12.892   7.582
41573SOL    HW226559  12.948  12.843   7.603
41574SOL     OW26560   4.848   4.853   5.728
41574SOL    HW126561   4.863   4.946   5.743
41574SOL    HW226562   4.757   4.839   5.754
41575SOL     OW26563   2.203   8.179  10.017
41575SOL    HW126564   2.134   8.193   9.953
41575SOL    HW226565   2.284   8.196   9.968
41576SOL     OW26566   5.908   6.569   5.209
41576SOL    HW126567   5.864   6.483   5.208
41576SOL    HW226568   5.875   6.611   5.288
41577SOL     OW26569  12.680   5.030  10.381
41577SOL    HW126570  12.763   5.077  10.388
41577SOL    HW226571  12.613   5.098  10.378
41578SOL     OW26572  13.620   1.853   0.736
41578SOL    HW126573  13.647   1.833   0.646
41578SOL    HW226574  13.699   1.886   0.778
41579SOL     OW26575   0.610  13.669   6.383
41579SOL    HW126576   0.516  13.687   6.379
41579SOL    HW226577   0.618  13.597   6.446
41580SOL     OW26578  10.271  12.279  14.854
41580SOL    HW126579  10.298  12.245   0.057
41580SOL    HW226580  10.236  12.366  14.873
41581SOL     OW26581  10.494   3.339   4.465
41581SOL    HW126582  10.440   3.289   4.404
41581SOL    HW226583  10.559   3.383   4.411
41582SOL     OW26584  10.501   9.444   1.478
41582SOL    HW126585  10.533   9.518   1.426
41582SOL    HW226586  10.581   9.399   1.507
41583SOL     OW26587   2.652  11.442  10.304
41583SOL    HW126588   2.734  11.441  10.255
41583SOL    HW226589   2.666  11.506  10.374
41584SOL     OW26590   2.608   3.163   9.880
41584SOL    HW126591   2.519   3.154   9.847
41584SOL    HW226592   2.601   3.140   9.973
41585SOL     OW26593   4.878  11.256   7.088
41585SOL    HW126594   4.970  11.232   7.085
41585SOL    HW226595   4.831  11.174   7.100
41586SOL     OW26596   2.045  12.194  10.852
41586SOL    HW126597   2.100  12.230  10.782
41586SOL    HW226598   2.107  12.162  10.917
41587SOL     OW26599  10.553  11.127   9.512
41587SOL    HW126600  10.509  11.082   9.584
41587SOL    HW226601  10.537  11.220   9.527
41588SOL     OW26602  13.219   7.815   7.850
41588SOL    HW126603  13.151   7.882   7.859
41588SOL    HW226604  13.178   7.735   7.885
41589SOL     OW26605   1.001   3.998   0.578
41589SOL    HW126606   1.017   4.012   0.671
41589SOL    HW226607   0.925   3.940   0.575
41590SOL     OW26608   6.880  11.568   0.143
41590SOL    HW126609   6.891  11.477   0.117
41590SOL    HW226610   6.829  11.564   0.224
41591SOL     OW26611   6.594   6.740  12.694
41591SOL    HW126612   6.612   6.668  12.634
41591SOL    HW226613   6.633   6.713  12.777
41592SOL     OW26614   2.575   5.262   9.353
41592SOL    HW126615   2.523   5.327   9.400
41592SOL    HW226616   2.615   5.209   9.422
41593SOL     OW26617  14.233   9.441  13.431
41593SOL    HW126618  14.155   9.386  13.442
41593SOL    HW226619  14.205   9.511  13.373
41594SOL     OW26620   7.556   3.084   6.348
41594SOL    HW126621   7.576   3.050   6.435
41594SOL    HW226622   7.624   3.150   6.332
41595SOL     OW26623   2.169   5.453  10.385
41595SOL    HW126624   2.184   5.509  10.461
41595SOL    HW226625   2.116   5.507  10.326
41596SOL     OW26626   6.554   7.775   5.612
41596SOL    HW126627   6.537   7.699   5.668
41596SOL    HW226628   6.579   7.844   5.673
41597SOL     OW26629   6.927   5.126  14.113
41597SOL    HW126630   6.969   5.169  14.188
41597SOL    HW226631   6.883   5.196  14.066
41598SOL     OW26632   8.199  10.464   2.749
41598SOL    HW126633   8.273  10.498   2.799
41598SOL    HW226634   8.220  10.483   2.658
41599SOL     OW26635   4.913   8.872   9.769
41599SOL    HW126636   4.872   8.916   9.694
41599SOL    HW226637   4.843   8.819   9.806
41600SOL     OW26638  13.620  10.081  11.051
41600SOL    HW126639  13.614  10.028  10.971
41600SOL    HW226640  13.711  10.112  11.052
41601SOL     OW26641  13.661   1.731   2.167
41601SOL    HW126642  13.585   1.691   2.125
41601SOL    HW226643  13.633   1.820   2.188
41602SOL     OW26644   5.576   3.444   6.332
41602SOL    HW126645   5.542   3.447   6.243
41602SOL    HW226646   5.530   3.513   6.378
41603SOL     OW26647   3.100   5.548   9.957
41603SOL    HW126648   3.089   5.479  10.022
41603SOL    HW226649   3.026   5.536   9.897
41604SOL     OW26650   1.666   4.593   8.904
41604SOL    HW126651   1.668   4.504   8.869
41604SOL    HW226652   1.743   4.597   8.962
41605SOL     OW26653   6.946  11.347  13.244
41605SOL    HW126654   7.024  11.387  13.281
41605SOL    HW226655   6.971  11.321  13.155
41606SOL     OW26656   0.167  12.702   4.479
41606SOL    HW126657   0.072  12.709   4.469
41606SOL    HW226658   0.199  12.792   4.476
41607SOL     OW26659   9.742  14.265   4.204
41607SOL    HW126660   9.691  14.205   4.150
41607SOL    HW226661   9.685  14.342   4.215
41608SOL     OW26662  10.181  13.482  13.972
41608SOL    HW126663  10.097  13.522  13.994
41608SOL    HW226664  10.206  13.523  13.889
41609SOL     OW26665   6.015  11.441  12.805
41609SOL    HW126666   5.975  11.370  12.855
41609SOL    HW226667   6.013  11.516  12.866
41610SOL     OW26668   9.698   3.239   4.712
41610SOL    HW126669   9.666   3.253   4.801
41610SOL    HW226670   9.684   3.145   4.696
41611SOL     OW26671  11.263   9.102   6.223
41611SOL    HW126672  11.245   9.035   6.156
41611SOL    HW226673  11.181   9.151   6.232
41612SOL     OW26674   9.289   2.235   9.995
41612SOL    HW126675   9.304   2.168   9.929
41612SOL    HW226676   9.367   2.290   9.992
41613SOL     OW26677  11.369   8.933   7.314
41613SOL    HW126678  11.376   8.999   7.382
41613SOL    HW226679  11.446   8.877   7.327
41614SOL     OW26680   7.419   6.211   2.543
41614SOL    HW126681   7.400   6.192   2.635
41614SOL    HW226682   7.390   6.301   2.531
41615SOL     OW26683   9.198   3.282   1.261
41615SOL    HW126684   9.175   3.225   1.335
41615SOL    HW226685   9.139   3.357   1.270
41616SOL     OW26686   0.849   5.827   9.673
41616SOL    HW126687   0.857   5.896   9.607
41616SOL    HW226688   0.936   5.789   9.680
41617SOL     OW26689  11.366   4.129   9.224
41617SOL    HW126690  11.331   4.043   9.202
41617SOL    HW226691  11.372   4.129   9.320
41618SOL     OW26692  12.087  11.469   7.615
41618SOL    HW126693  12.178  11.499   7.609
41618SOL    HW226694  12.094  11.374   7.625
41619SOL     OW26695  11.467   6.039   8.001
41619SOL    HW126696  11.515   6.121   7.986
41619SOL    HW226697  11.416   6.055   8.080
41620SOL     OW26698   5.618   9.951   5.469
41620SOL    HW126699   5.646   9.949   5.377
41620SOL    HW226700   5.530   9.914   5.468
41621SOL     OW26701   3.599   7.034   7.169
41621SOL    HW126702   3.651   7.098   7.120
41621SOL    HW226703   3.529   7.009   7.108
41622SOL     OW26704   0.531  14.000   8.232
41622SOL    HW126705   0.541  13.927   8.293
41622SOL    HW226706   0.436  14.014   8.228
41623SOL     OW26707   1.961   7.984   2.576
41623SOL    HW126708   1.880   7.968   2.527
41623SOL    HW226709   2.030   7.942   2.525
41624SOL     OW26710   2.670   8.569   7.165
41624SOL    HW126711   2.707   8.521   7.239
41624SOL    HW226712   2.599   8.513   7.133
41625SOL     OW26713   2.243   2.566   0.949
41625SOL    HW126714   2.155   2.556   0.913
41625SOL    HW226715   2.301   2.533   0.881
41626SOL     OW26716   2.618   6.579   2.827
41626SOL    HW126717   2.533   6.622   2.829
41626SOL    HW226718   2.680   6.649   2.806
41627SOL     OW26719   4.051   3.913   9.833
41627SOL    HW126720   4.080   3.829   9.798
41627SOL    HW226721   4.016   3.892   9.919
41628SOL     OW26722   3.890   6.910   7.782
41628SOL    HW126723   3.967   6.883   7.732
41628SOL    HW226724   3.912   6.998   7.814
41629SOL     OW26725   2.280  13.561   7.001
41629SOL    HW126726   2.239  13.639   7.038
41629SOL    HW226727   2.372  13.584   6.989
41630SOL     OW26728   6.315   5.663   1.141
41630SOL    HW126729   6.283   5.642   1.229
41630SOL    HW226730   6.399   5.618   1.135
41631SOL     OW26731   7.111   5.266   2.670
41631SOL    HW126732   7.171   5.298   2.737
41631SOL    HW226733   7.071   5.188   2.708
41632SOL     OW26734   0.715   2.823   5.832
41632SOL    HW126735   0.684   2.785   5.750
41632SOL    HW226736   0.793   2.873   5.808
41633SOL     OW26737  12.841   4.072   4.880
41633SOL    HW126738  12.869   3.987   4.847
41633SOL    HW226739  12.746   4.068   4.879
41634SOL     OW26740  12.533   3.116   1.530
41634SOL    HW126741  12.619   3.083   1.502
41634SOL    HW226742  12.498   3.048   1.587
41635SOL     OW26743   6.248   1.353   5.627
41635SOL    HW126744   6.272   1.408   5.552
41635SOL    HW226745   6.316   1.370   5.692
41636SOL     OW26746   2.017   7.526   0.967
41636SOL    HW126747   2.040   7.572   1.048
41636SOL    HW226748   2.096   7.531   0.913
41637SOL     OW26749  13.392  12.185   3.556
41637SOL    HW126750  13.361  12.246   3.623
41637SOL    HW226751  13.318  12.179   3.495
41638SOL     OW26752  11.904   4.466   1.014
41638SOL    HW126753  11.810   4.461   1.033
41638SOL    HW226754  11.940   4.518   1.086
41639SOL     OW26755  10.307   1.738   8.201
41639SOL    HW126756  10.387   1.790   8.210
41639SOL    HW226757  10.249   1.792   8.148
41640SOL     OW26758   2.375   3.871   8.456
41640SOL    HW126759   2.436   3.930   8.412
41640SOL    HW226760   2.425   3.836   8.530
41641SOL     OW26761   5.752   8.205   1.771
41641SOL    HW126762   5.831   8.211   1.717
41641SOL    HW226763   5.778   8.241   1.856
41642SOL     OW26764   5.004   4.011   2.169
41642SOL    HW126765   5.016   4.099   2.205
41642SOL    HW226766   5.019   3.953   2.244
41643SOL     OW26767   1.859  10.844   5.492
41643SOL    HW126768   1.895  10.784   5.556
41643SOL    HW226769   1.784  10.884   5.535
41644SOL     OW26770  10.275   4.590  11.858
41644SOL    HW126771  10.306   4.534  11.787
41644SOL    HW226772  10.293   4.679  11.827
41645SOL     OW26773  13.682   5.867   8.376
41645SOL    HW126774  13.690   5.808   8.451
41645SOL    HW226775  13.732   5.944   8.401
41646SOL     OW26776   4.218   5.265   4.738
41646SOL    HW126777   4.301   5.256   4.691
41646SOL    HW226778   4.199   5.176   4.768
41647SOL     OW26779  14.269   3.135   1.635
41647SOL    HW126780  14.241   3.170   1.550
41647SOL    HW226781  14.192   3.089   1.668
41648SOL     OW26782   0.231   5.262   3.420
41648SOL    HW126783   0.149   5.228   3.384
41648SOL    HW226784   0.299   5.211   3.376
41649SOL     OW26785   3.029  13.043  11.404
41649SOL    HW126786   2.978  13.124  11.400
41649SOL    HW226787   3.023  13.006  11.317
41650SOL     OW26788  14.216  14.500   2.151
41650SOL    HW126789  14.287  14.503   2.214
41650SOL    HW226790  14.226  14.581   2.100
41651SOL     OW26791  13.623  11.492   9.165
41651SOL    HW126792  13.568  11.481   9.087
41651SOL    HW226793  13.619  11.407   9.209
41652SOL     OW26794   6.497  10.446  12.673
41652SOL    HW126795   6.538  10.370  12.632
41652SOL    HW226796   6.510  10.433  12.767
41653SOL     OW26797  12.001  12.112   5.453
41653SOL    HW126798  11.912  12.079   5.442
41653SOL    HW226799  12.000  12.198   5.411
41654SOL     OW26800   9.745  13.796   6.738
41654SOL    HW126801   9.705  13.720   6.780
41654SOL    HW226802   9.812  13.825   6.800
41655SOL     OW26803   9.596  12.341   9.188
41655SOL    HW126804   9.617  12.394   9.265
41655SOL    HW226805   9.660  12.369   9.122
41656SOL     OW26806   0.010   3.928   6.716
41656SOL    HW126807   0.068   4.003   6.700
41656SOL    HW226808   0.055   3.876   6.782
41657SOL     OW26809   3.669   5.549  11.019
41657SOL    HW126810   3.741   5.503  11.063
41657SOL    HW226811   3.653   5.625  11.074
41658SOL     OW26812   5.840  11.531   9.388
41658SOL    HW126813   5.913  11.593   9.380
41658SOL    HW226814   5.833  11.492   9.301
41659SOL     OW26815   6.900   4.685   0.963
41659SOL    HW126816   6.894   4.594   0.993
41659SOL    HW226817   6.891   4.738   1.042
41660SOL     OW26818  14.365   7.180   9.406
41660SOL    HW126819  14.341   7.137   9.488
41660SOL    HW226820  14.360   7.110   9.340
41661SOL     OW26821   4.971   9.408   4.093
41661SOL    HW126822   4.898   9.361   4.053
41661SOL    HW226823   4.930   9.472   4.151
41662SOL     OW26824  13.875   0.309   7.070
41662SOL    HW126825  13.802   0.366   7.095
41662SOL    HW226826  13.940   0.369   7.034
41663SOL     OW26827   5.336   0.375   9.902
41663SOL    HW126828   5.419   0.384   9.855
41663SOL    HW226829   5.316   0.282   9.899
41664SOL     OW26830   6.373   7.609   1.798
41664SOL    HW126831   6.320   7.533   1.820
41664SOL    HW226832   6.323   7.683   1.832
41665SOL     OW26833   8.543   8.143  10.551
41665SOL    HW126834   8.606   8.194  10.602
41665SOL    HW226835   8.512   8.203  10.483
41666SOL     OW26836   4.133   0.061  12.791
41666SOL    HW126837   4.193   0.067  12.717
41666SOL    HW226838   4.189   0.061  12.868
41667SOL     OW26839  11.264   4.758   2.081
41667SOL    HW126840  11.331   4.774   2.148
41667SOL    HW226841  11.195   4.711   2.128
41668SOL     OW26842  10.015   1.040  13.322
41668SOL    HW126843  10.075   0.966  13.316
41668SOL    HW226844  10.065   1.114  13.286
41669SOL     OW26845   4.793   4.501   7.103
41669SOL    HW126846   4.718   4.448   7.128
41669SOL    HW226847   4.788   4.507   7.008
41670SOL     OW26848  13.709   2.888   0.873
41670SOL    HW126849  13.694   2.909   0.780
41670SOL    HW226850  13.728   2.973   0.913
41671SOL     OW26851   7.798   9.632   8.041
41671SOL    HW126852   7.804   9.581   7.960
41671SOL    HW226853   7.889   9.637   8.072
41672SOL     OW26854   8.792   9.393   1.138
41672SOL    HW126855   8.810   9.428   1.051
41672SOL    HW226856   8.727   9.454   1.175
41673SOL     OW26857   6.830  13.093   5.234
41673SOL    HW126858   6.867  13.105   5.322
41673SOL    HW226859   6.743  13.056   5.250
41674SOL     OW26860  14.731  12.679  13.866
41674SOL    HW126861  14.813  12.666  13.913
41674SOL    HW226862  14.684  12.745  13.917
41675SOL     OW26863   5.799   5.821  13.221
41675SOL    HW126864   5.847   5.900  13.195
41675SOL    HW226865   5.818   5.813  13.315
41676SOL     OW26866  12.099  12.862   0.781
41676SOL    HW126867  12.026  12.805   0.758
41676SOL    HW226868  12.173  12.826   0.733
41677SOL     OW26869   1.173   7.054   7.839
41677SOL    HW126870   1.256   7.014   7.812
41677SOL    HW226871   1.197   7.113   7.910
41678SOL     OW26872   0.936   7.707  10.824
41678SOL    HW126873   1.026   7.715  10.792
41678SOL    HW226874   0.882   7.711  10.745
41679SOL     OW26875   1.700  14.392   9.238
41679SOL    HW126876   1.721  14.350   9.155
41679SOL    HW226877   1.763  14.356   9.300
41680SOL     OW26878  12.222   2.098  13.699
41680SOL    HW126879  12.221   2.095  13.603
41680SOL    HW226880  12.140   2.056  13.725
41681SOL     OW26881  13.859   7.858   2.976
41681SOL    HW126882  13.769   7.889   2.984
41681SOL    HW226883  13.899   7.916   2.911
41682SOL     OW26884   9.923  14.531   0.832
41682SOL    HW126885   9.972  14.553   0.912
41682SOL    HW226886   9.864  14.604   0.819
41683SOL     OW26887  10.183  10.877   4.667
41683SOL    HW126888  10.124  10.882   4.743
41683SOL    HW226889  10.252  10.941   4.686
41684SOL     OW26890   6.409   9.355   3.252
41684SOL    HW126891   6.390   9.430   3.309
41684SOL    HW226892   6.362   9.282   3.294
41685SOL     OW26893   6.175   9.432   9.488
41685SOL    HW126894   6.205   9.463   9.403
41685SOL    HW226895   6.256   9.409   9.534
41686SOL     OW26896   1.381   9.393   6.190
41686SOL    HW126897   1.324   9.319   6.211
41686SOL    HW226898   1.458   9.353   6.150
41687SOL     OW26899   7.779   6.992   9.178
41687SOL    HW126900   7.816   6.909   9.209
41687SOL    HW226901   7.694   6.998   9.220
41688SOL     OW26902  10.531   1.300   5.905
41688SOL    HW126903  10.438   1.282   5.892
41688SOL    HW226904  10.559   1.236   5.971
41689SOL     OW26905   3.373  13.864   4.490
41689SOL    HW126906   3.449  13.921   4.480
41689SOL    HW226907   3.389  13.792   4.429
41690SOL     OW26908  14.113   0.339   0.252
41690SOL    HW126909  14.067   0.402   0.307
41690SOL    HW226910  14.044   0.298   0.200
41691SOL     OW26911  10.847  10.916   1.957
41691SOL    HW126912  10.850  10.876   1.870
41691SOL    HW226913  10.754  10.931   1.973
41692SOL     OW26914   1.544   5.206  11.903
41692SOL    HW126915   1.627   5.171  11.936
41692SOL    HW226916   1.546   5.189  11.809
41693SOL     OW26917  14.316   0.209  11.690
41693SOL    HW126918  14.387   0.149  11.711
41693SOL    HW226919  14.359   0.292  11.670
41694SOL     OW26920   5.861   0.446   8.204
41694SOL    HW126921   5.891   0.533   8.178
41694SOL    HW226922   5.789   0.463   8.265
41695SOL     OW26923  13.631   4.143   3.267
41695SOL    HW126924  13.603   4.134   3.358
41695SOL    HW226925  13.713   4.093   3.262
41696SOL     OW26926   4.246   3.902   9.174
41696SOL    HW126927   4.160   3.870   9.201
41696SOL    HW226928   4.229   3.951   9.093
41697SOL     OW26929  11.007   3.549   8.370
41697SOL    HW126930  10.919   3.550   8.331
41697SOL    HW226931  11.056   3.486   8.317
41698SOL     OW26932   9.682  12.496   9.975
41698SOL    HW126933   9.633  12.567   9.933
41698SOL    HW226934   9.711  12.534  10.058
41699SOL     OW26935   2.978   8.403  13.826
41699SOL    HW126936   3.040   8.474  13.809
41699SOL    HW226937   3.029   8.323  13.815
41700SOL     OW26938   1.997   8.410   1.110
41700SOL    HW126939   1.906   8.430   1.133
41700SOL    HW226940   1.993   8.324   1.069
41701SOL     OW26941   2.500  13.964   8.432
41701SOL    HW126942   2.592  13.974   8.407
41701SOL    HW226943   2.459  13.921   8.357
41702SOL     OW26944   5.974   8.465  11.611
41702SOL    HW126945   6.016   8.505  11.687
41702SOL    HW226946   5.886   8.441  11.641
41703SOL     OW26947   6.450   4.631   6.230
41703SOL    HW126948   6.403   4.684   6.295
41703SOL    HW226949   6.386   4.566   6.201
41704SOL     OW26950   2.599   2.981   1.830
41704SOL    HW126951   2.655   2.908   1.805
41704SOL    HW226952   2.654   3.059   1.818
41705SOL     OW26953   5.821   9.993   1.784
41705SOL    HW126954   5.751   9.958   1.838
41705SOL    HW226955   5.901   9.957   1.822
41706SOL     OW26956   9.390   4.888   8.069
41706SOL    HW126957   9.390   4.977   8.033
41706SOL    HW226958   9.302   4.855   8.052
41707SOL     OW26959  13.738   7.509   1.523
41707SOL    HW126960  13.821   7.481   1.562
41707SOL    HW226961  13.765   7.562   1.448
41708SOL     OW26962   5.197   1.857   9.211
41708SOL    HW126963   5.208   1.917   9.285
41708SOL    HW226964   5.112   1.816   9.226
41709SOL     OW26965  13.241   2.746   0.849
41709SOL    HW126966  13.320   2.786   0.884
41709SOL    HW226967  13.171   2.807   0.874
41710SOL     OW26968   1.695  13.920   1.991
41710SOL    HW126969   1.774  13.960   1.954
41710SOL    HW226970   1.661  13.988   2.050
41711SOL     OW26971  13.866   9.600  14.534
41711SOL    HW126972  13.910   9.578  14.452
41711SOL    HW226973  13.808   9.673  14.511
41712SOL     OW26974   8.018  11.430   5.454
41712SOL    HW126975   8.087  11.375   5.490
41712SOL    HW226976   8.005  11.499   5.519
41713SOL     OW26977   6.150   5.844   0.219
41713SOL    HW126978   6.207   5.840   0.296
41713SOL    HW226979   6.143   5.937   0.198
41714SOL     OW26980  12.769   4.038  13.289
41714SOL    HW126981  12.719   4.101  13.342
41714SOL    HW226982  12.703   3.988  13.242
41715SOL     OW26983   7.440   2.592   0.478
41715SOL    HW126984   7.447   2.657   0.408
41715SOL    HW226985   7.488   2.631   0.551
41716SOL     OW26986  12.627  11.406  11.519
41716SOL    HW126987  12.615  11.403  11.613
41716SOL    HW226988  12.540  11.391  11.482
41717SOL     OW26989   8.586   4.911   1.607
41717SOL    HW126990   8.562   4.988   1.659
41717SOL    HW226991   8.534   4.840   1.645
41718SOL     OW26992  12.111   3.078   8.529
41718SOL    HW126993  12.196   3.094   8.570
41718SOL    HW226994  12.062   3.159   8.542
41719SOL     OW26995   7.729   1.516   8.324
41719SOL    HW126996   7.709   1.458   8.251
41719SOL    HW226997   7.684   1.598   8.303
41720SOL     OW26998   4.785   1.063   5.200
41720SOL    HW126999   4.731   1.140   5.218
41720SOL    HW227000   4.724   0.989   5.200
41721SOL     OW27001   9.933   7.126   4.536
41721SOL    HW127002   9.883   7.086   4.607
41721SOL    HW227003   9.910   7.219   4.541
41722SOL     OW27004   2.385   2.999   8.925
41722SOL    HW127005   2.366   3.001   8.831
41722SOL    HW227006   2.312   3.046   8.965
41723SOL     OW27007   4.673  14.845   2.278
41723SOL    HW127008   4.703  14.850   2.188
41723SOL    HW227009   4.752  14.827   2.329
41724SOL     OW27010   4.876  10.225   3.415
41724SOL    HW127011   4.858  10.214   3.321
41724SOL    HW227012   4.947  10.290   3.417
41725SOL     OW27013  13.426  11.558  12.776
41725SOL    HW127014  13.420  11.530  12.685
41725SOL    HW227015  13.341  11.598  12.794
41726SOL     OW27016   9.054   5.296   4.071
41726SOL    HW127017   8.982   5.236   4.092
41726SOL    HW227018   9.033   5.376   4.119
41727SOL     OW27019   4.369  13.416   2.671
41727SOL    HW127020   4.333  13.407   2.759
41727SOL    HW227021   4.292  13.419   2.614
41728SOL     OW27022   4.385   7.481   0.647
41728SOL    HW127023   4.344   7.403   0.609
41728SOL    HW227024   4.478   7.459   0.651
41729SOL     OW27025   8.792   9.472  11.492
41729SOL    HW127026   8.704   9.435  11.489
41729SOL    HW227027   8.842   9.419  11.429
41730SOL     OW27028   4.416  13.621   8.175
41730SOL    HW127029   4.490  13.648   8.121
41730SOL    HW227030   4.344  13.677   8.147
41731SOL     OW27031   2.066   2.578   0.375
41731SOL    HW127032   1.986   2.623   0.346
41731SOL    HW227033   2.067   2.497   0.325
41732SOL     OW27034   0.253  12.244  14.636
41732SOL    HW127035   0.225  12.300  14.708
41732SOL    HW227036   0.176  12.236  14.580
41733SOL     OW27037   6.736   1.304  13.543
41733SOL    HW127038   6.709   1.354  13.466
41733SOL    HW227039   6.705   1.355  13.617
41734SOL     OW27040   7.497   0.930  12.259
41734SOL    HW127041   7.437   0.946  12.331
41734SOL    HW227042   7.501   1.013  12.212
41735SOL     OW27043   6.615   5.143   7.321
41735SOL    HW127044   6.600   5.118   7.229
41735SOL    HW227045   6.651   5.231   7.316
41736SOL     OW27046   6.120  13.831   1.647
41736SOL    HW127047   6.085  13.759   1.595
41736SOL    HW227048   6.213  13.833   1.626
41737SOL     OW27049   8.431   5.610   4.570
41737SOL    HW127050   8.415   5.597   4.476
41737SOL    HW227051   8.376   5.545   4.613
41738SOL     OW27052  10.309  12.901   3.377
41738SOL    HW127053  10.392  12.915   3.330
41738SOL    HW227054  10.325  12.935   3.465
41739SOL     OW27055   9.810   0.669   8.429
41739SOL    HW127056   9.754   0.687   8.504
41739SOL    HW227057   9.756   0.691   8.353
41740SOL     OW27058   2.077   1.022   5.723
41740SOL    HW127059   2.052   0.980   5.805
41740SOL    HW227060   2.167   0.993   5.708
41741SOL     OW27061   0.706  12.951  10.514
41741SOL    HW127062   0.712  12.893  10.590
41741SOL    HW227063   0.681  12.892  10.442
41742SOL     OW27064  13.662   9.314   5.032
41742SOL    HW127065  13.663   9.225   5.065
41742SOL    HW227066  13.749   9.349   5.052
41743SOL     OW27067   6.020   0.255   7.071
41743SOL    HW127068   5.962   0.196   7.024
41743SOL    HW227069   6.016   0.337   7.021
41744SOL     OW27070  10.050   3.007   4.184
41744SOL    HW127071  10.087   3.086   4.222
41744SOL    HW227072  10.070   2.938   4.247
41745SOL     OW27073  10.439   0.887   7.387
41745SOL    HW127074  10.424   0.914   7.478
41745SOL    HW227075  10.412   0.795   7.385
41746SOL     OW27076   0.320  12.228   5.623
41746SOL    HW127077   0.330  12.316   5.660
41746SOL    HW227078   0.239  12.232   5.571
41747SOL     OW27079  14.795  12.849   2.124
41747SOL    HW127080  14.700  12.860   2.125
41747SOL    HW227081  14.828  12.932   2.090
41748SOL     OW27082  14.405  14.568  10.320
41748SOL    HW127083  14.483  14.623  10.322
41748SOL    HW227084  14.423  14.497  10.380
41749SOL     OW27085  10.235   7.797   8.818
41749SOL    HW127086  10.218   7.703   8.807
41749SOL    HW227087  10.190   7.838   8.744
41750SOL     OW27088  11.401   7.025  10.982
41750SOL    HW127089  11.329   7.012  10.920
41750SOL    HW227090  11.369   7.092  11.042
41751SOL     OW27091   3.145   6.533   8.567
41751SOL    HW127092   3.109   6.553   8.481
41751SOL    HW227093   3.158   6.438   8.566
41752SOL     OW27094  14.392  11.099   4.020
41752SOL    HW127095  14.402  11.070   4.111
41752SOL    HW227096  14.298  11.110   4.008
41753SOL     OW27097   3.385  13.353   1.496
41753SOL    HW127098   3.415  13.382   1.410
41753SOL    HW227099   3.310  13.409   1.515
41754SOL     OW27100  13.668   2.660  11.858
41754SOL    HW127101  13.621   2.677  11.940
41754SOL    HW227102  13.656   2.566  11.843
41755SOL     OW27103   9.457   5.103  14.372
41755SOL    HW127104   9.491   5.029  14.421
41755SOL    HW227105   9.475   5.179  14.427
41756SOL     OW27106   2.042   1.484  12.299
41756SOL    HW127107   1.971   1.534  12.258
41756SOL    HW227108   2.010   1.464  12.387
41757SOL     OW27109   2.726   1.091  13.054
41757SOL    HW127110   2.648   1.040  13.076
41757SOL    HW227111   2.727   1.094  12.959
41758SOL     OW27112   0.510  11.355   9.488
41758SOL    HW127113   0.587  11.400   9.454
41758SOL    HW227114   0.542  11.269   9.516
41759SOL     OW27115   4.650   4.613  11.783
41759SOL    HW127116   4.614   4.692  11.824
41759SOL    HW227117   4.719   4.584  11.842
41760SOL     OW27118   4.015  11.921  13.238
41760SOL    HW127119   4.027  11.894  13.329
41760SOL    HW227120   4.097  11.897  13.195
41761SOL     OW27121   5.281   5.640  12.580
41761SOL    HW127122   5.318   5.720  12.618
41761SOL    HW227123   5.304   5.645  12.487
41762SOL     OW27124  10.925  10.582   8.478
41762SOL    HW127125  10.873  10.631   8.414
41762SOL    HW227126  10.884  10.602   8.563
41763SOL     OW27127  13.481   9.574   1.881
41763SOL    HW127128  13.544   9.593   1.951
41763SOL    HW227129  13.529   9.516   1.821
41764SOL     OW27130  12.837   1.605   2.486
41764SOL    HW127131  12.898   1.676   2.508
41764SOL    HW227132  12.754   1.649   2.471
41765SOL     OW27133   9.680  12.495   9.422
41765SOL    HW127134   9.630  12.552   9.480
41765SOL    HW227135   9.702  12.419   9.476
41766SOL     OW27136  12.571   2.259  10.154
41766SOL    HW127137  12.555   2.347  10.121
41766SOL    HW227138  12.659   2.264  10.193
41767SOL     OW27139  12.068   2.608  14.598
41767SOL    HW127140  12.148   2.561  14.574
41767SOL    HW227141  11.999   2.542  14.593
41768SOL     OW27142   5.053   7.308   2.481
41768SOL    HW127143   4.973   7.318   2.533
41768SOL    HW227144   5.036   7.356   2.401
41769SOL     OW27145   9.927  11.569   9.998
41769SOL    HW127146   9.859  11.636   9.991
41769SOL    HW227147   9.890  11.491   9.956
41770SOL     OW27148  12.915   7.564   4.434
41770SOL    HW127149  12.982   7.498   4.450
41770SOL    HW227150  12.892   7.595   4.522
41771SOL     OW27151  14.300   3.935   9.662
41771SOL    HW127152  14.264   4.002   9.720
41771SOL    HW227153  14.395   3.949   9.667
41772SOL     OW27154   9.388   9.187   2.214
41772SOL    HW127155   9.437   9.135   2.278
41772SOL    HW227156   9.335   9.123   2.167
41773SOL     OW27157   8.486   4.439   1.848
41773SOL    HW127158   8.395   4.429   1.821
41773SOL    HW227159   8.496   4.376   1.920
41774SOL     OW27160   3.759  12.770   4.875
41774SOL    HW127161   3.836  12.752   4.821
41774SOL    HW227162   3.767  12.863   4.897
41775SOL     OW27163   3.980   4.398   3.538
41775SOL    HW127164   4.011   4.425   3.625
41775SOL    HW227165   3.994   4.304   3.536
41776SOL     OW27166  12.030  13.018   9.686
41776SOL    HW127167  12.099  13.054   9.630
41776SOL    HW227168  12.076  12.984   9.763
41777SOL     OW27169   8.918  10.274   7.380
41777SOL    HW127170   8.891  10.214   7.449
41777SOL    HW227171   9.011  10.290   7.396
41778SOL     OW27172   3.903   0.874   1.558
41778SOL    HW127173   3.966   0.931   1.603
41778SOL    HW227174   3.900   0.907   1.469
41779SOL     OW27175  10.450  10.114  11.319
41779SOL    HW127176  10.493  10.029  11.306
41779SOL    HW227177  10.431  10.117  11.413
41780SOL     OW27178   0.124  13.077   4.958
41780SOL    HW127179   0.036  13.092   4.992
41780SOL    HW227180   0.137  12.983   4.965
41781SOL     OW27181   9.537  14.335  10.455
41781SOL    HW127182   9.518  14.400  10.522
41781SOL    HW227183   9.632  14.327  10.455
41782SOL     OW27184   8.081   3.368   3.831
41782SOL    HW127185   8.129   3.441   3.791
41782SOL    HW227186   8.083   3.387   3.925
41783SOL     OW27187   4.552  10.935   0.480
41783SOL    HW127188   4.578  10.943   0.388
41783SOL    HW227189   4.470  10.985   0.486
41784SOL     OW27190   1.068   7.775  13.971
41784SOL    HW127191   1.084   7.793  14.064
41784SOL    HW227192   0.973   7.759  13.966
41785SOL     OW27193   4.925  12.531   4.078
41785SOL    HW127194   5.020  12.540   4.080
41785SOL    HW227195   4.892  12.604   4.130
41786SOL     OW27196   0.289   2.893   1.745
41786SOL    HW127197   0.322   2.970   1.700
41786SOL    HW227198   0.316   2.905   1.836
41787SOL     OW27199  10.824  10.407  11.061
41787SOL    HW127200  10.795  10.497  11.074
41787SOL    HW227201  10.795  10.360  11.139
41788SOL     OW27202  14.772   0.957  14.267
41788SOL    HW127203  14.747   0.982  14.356
41788SOL    HW227204  14.801   1.039  14.227
41789SOL     OW27205   2.210  14.554   4.567
41789SOL    HW127206   2.300  14.578   4.588
41789SOL    HW227207   2.215  14.517   4.479
41790SOL     OW27208  11.144  14.390   4.789
41790SOL    HW127209  11.152  14.448   4.865
41790SOL    HW227210  11.165  14.445   4.714
41791SOL     OW27211   1.718   9.774   3.095
41791SOL    HW127212   1.647   9.767   3.031
41791SOL    HW227213   1.724   9.687   3.133
41792SOL     OW27214   0.248   7.454  12.340
41792SOL    HW127215   0.312   7.386  12.365
41792SOL    HW227216   0.176   7.443  12.402
41793SOL     OW27217   3.437  10.646   4.630
41793SOL    HW127218   3.438  10.697   4.549
41793SOL    HW227219   3.526  10.657   4.665
41794SOL     OW27220   0.699   4.454   8.963
41794SOL    HW127221   0.613   4.494   8.951
41794SOL    HW227222   0.761   4.527   8.958
41795SOL     OW27223   8.600  12.956   2.646
41795SOL    HW127224   8.529  13.013   2.674
41795SOL    HW227225   8.641  13.003   2.573
41796SOL     OW27226   9.852  10.147   0.319
41796SOL    HW127227   9.849  10.240   0.339
41796SOL    HW227228   9.812  10.140   0.232
41797SOL     OW27229   2.041   6.781  10.925
41797SOL    HW127230   2.095   6.740  10.992
41797SOL    HW227231   2.097   6.847  10.886
41798SOL     OW27232  11.082  10.292   5.465
41798SOL    HW127233  11.025  10.314   5.391
41798SOL    HW227234  11.125  10.375   5.488
41799SOL     OW27235   5.465   7.788   7.855
41799SOL    HW127236   5.504   7.873   7.879
41799SOL    HW227237   5.521   7.756   7.785
41800SOL     OW27238  11.183   7.026  11.427
41800SOL    HW127239  11.114   7.067  11.480
41800SOL    HW227240  11.254   7.011  11.489
41801SOL     OW27241   2.187  10.569   6.595
41801SOL    HW127242   2.242  10.498   6.627
41801SOL    HW227243   2.174  10.625   6.672
41802SOL     OW27244   4.437   9.516   7.939
41802SOL    HW127245   4.367   9.455   7.960
41802SOL    HW227246   4.420   9.542   7.848
41803SOL     OW27247   6.939  10.264   2.090
41803SOL    HW127248   6.968  10.352   2.068
41803SOL    HW227249   7.017  10.222   2.129
41804SOL     OW27250   1.695   7.070  10.088
41804SOL    HW127251   1.720   7.161  10.075
41804SOL    HW227252   1.717   7.027  10.005
41805SOL     OW27253  10.475   4.077   8.202
41805SOL    HW127254  10.425   3.996   8.208
41805SOL    HW227255  10.538   4.072   8.273
41806SOL     OW27256   6.220  12.061   7.744
41806SOL    HW127257   6.135  12.089   7.778
41806SOL    HW227258   6.219  12.086   7.651
41807SOL     OW27259   2.114  10.789   7.672
41807SOL    HW127260   2.045  10.726   7.696
41807SOL    HW227261   2.081  10.832   7.594
41808SOL     OW27262   1.780  13.283   0.662
41808SOL    HW127263   1.748  13.337   0.734
41808SOL    HW227264   1.864  13.248   0.694
41809SOL     OW27265  10.154   9.729   1.050
41809SOL    HW127266  10.123   9.686   1.130
41809SOL    HW227267  10.142   9.662   0.982
41810SOL     OW27268   3.447   4.893   8.275
41810SOL    HW127269   3.456   4.820   8.335
41810SOL    HW227270   3.454   4.854   8.188
41811SOL     OW27271   2.763   8.096   8.426
41811SOL    HW127272   2.706   8.070   8.353
41811SOL    HW227273   2.775   8.190   8.414
41812SOL     OW27274   5.280   3.262   2.394
41812SOL    HW127275   5.295   3.339   2.340
41812SOL    HW227276   5.251   3.296   2.479
41813SOL     OW27277   5.005   9.552   2.276
41813SOL    HW127278   5.030   9.622   2.216
41813SOL    HW227279   4.910   9.554   2.277
41814SOL     OW27280  14.792   0.506  14.827
41814SOL    HW127281  14.833   0.571   0.002
41814SOL    HW227282  14.865   0.453  14.795
41815SOL     OW27283   3.282   5.457   4.392
41815SOL    HW127284   3.197   5.424   4.424
41815SOL    HW227285   3.308   5.393   4.325
41816SOL     OW27286  12.697   3.191  14.157
41816SOL    HW127287  12.698   3.206  14.062
41816SOL    HW227288  12.789   3.177  14.180
41817SOL     OW27289  12.463   1.333   5.897
41817SOL    HW127290  12.431   1.243   5.893
41817SOL    HW227291  12.556   1.325   5.916
41818SOL     OW27292   1.244   7.172   1.862
41818SOL    HW127293   1.228   7.195   1.770
41818SOL    HW227294   1.307   7.238   1.892
41819SOL     OW27295   9.168   6.628   9.125
41819SOL    HW127296   9.236   6.695   9.127
41819SOL    HW227297   9.171   6.592   9.037
41820SOL     OW27298   2.664   7.387   1.453
41820SOL    HW127299   2.669   7.306   1.402
41820SOL    HW227300   2.725   7.446   1.409
41821SOL     OW27301   6.239   2.544   5.418
41821SOL    HW127302   6.196   2.566   5.501
41821SOL    HW227303   6.174   2.492   5.371
41822SOL     OW27304   4.929   6.217   1.881
41822SOL    HW127305   5.005   6.244   1.933
41822SOL    HW227306   4.856   6.263   1.921
41823SOL     OW27307  11.330  14.819   8.011
41823SOL    HW127308  11.293  14.740   8.049
41823SOL    HW227309  11.425  14.808   8.020
41824SOL     OW27310   9.750   2.007   7.098
41824SOL    HW127311   9.802   2.037   7.172
41824SOL    HW227312   9.787   1.922   7.075
41825SOL     OW27313   1.916   2.803   6.255
41825SOL    HW127314   1.925   2.783   6.162
41825SOL    HW227315   2.000   2.778   6.293
41826SOL     OW27316  13.026   0.838  12.377
41826SOL    HW127317  13.008   0.849  12.470
41826SOL    HW227318  12.982   0.757  12.353
41827SOL     OW27319   0.594   9.937   1.767
41827SOL    HW127320   0.563   9.857   1.725
41827SOL    HW227321   0.521   9.999   1.757
41828SOL     OW27322  14.803   7.861   2.829
41828SOL    HW127323  14.868   7.932   2.835
41828SOL    HW227324  14.852   7.782   2.851
41829SOL     OW27325  10.150   6.537   5.771
41829SOL    HW127326  10.154   6.633   5.769
41829SOL    HW227327  10.124   6.512   5.682
41830SOL     OW27328   0.850  14.005  12.426
41830SOL    HW127329   0.861  14.042  12.514
41830SOL    HW227330   0.791  14.066  12.382
41831SOL     OW27331   5.432  12.991   7.946
41831SOL    HW127332   5.435  12.914   7.888
41831SOL    HW227333   5.379  12.963   8.021
41832SOL     OW27334   8.123  14.519   9.103
41832SOL    HW127335   8.158  14.471   9.178
41832SOL    HW227336   8.152  14.469   9.027
41833SOL     OW27337   0.683   6.799   1.426
41833SOL    HW127338   0.606   6.757   1.389
41833SOL    HW227339   0.757   6.759   1.380
41834SOL     OW27340   0.280  10.283   0.467
41834SOL    HW127341   0.324  10.223   0.527
41834SOL    HW227342   0.197  10.239   0.447
41835SOL     OW27343  12.006   3.465   3.163
41835SOL    HW127344  11.915   3.469   3.192
41835SOL    HW227345  12.002   3.435   3.073
41836SOL     OW27346   7.192   2.896   0.544
41836SOL    HW127347   7.216   2.969   0.487
41836SOL    HW227348   7.217   2.818   0.494
41837SOL     OW27349  12.927  10.859   0.599
41837SOL    HW127350  12.912  10.865   0.504
41837SOL    HW227351  12.848  10.896   0.638
41838SOL     OW27352   9.266  11.058   8.866
41838SOL    HW127353   9.243  11.150   8.882
41838SOL    HW227354   9.264  11.049   8.771
41839SOL     OW27355  10.969  10.844  13.833
41839SOL    HW127356  11.012  10.901  13.769
41839SOL    HW227357  10.886  10.820  13.792
41840SOL     OW27358  12.508  13.763   5.366
41840SOL    HW127359  12.534  13.724   5.449
41840SOL    HW227360  12.588  13.767   5.315
41841SOL     OW27361   0.011   0.708   9.851
41841SOL    HW127362  14.854   0.659   9.923
41841SOL    HW227363   0.043   0.788   9.891
41842SOL     OW27364  10.761  10.171   8.937
41842SOL    HW127365  10.791  10.177   8.846
41842SOL    HW227366  10.842  10.175   8.989
41843SOL     OW27367  13.267  12.380   5.402
41843SOL    HW127368  13.286  12.300   5.449
41843SOL    HW227369  13.220  12.435   5.465
41844SOL     OW27370   8.660  14.798   7.006
41844SOL    HW127371   8.697  14.720   6.964
41844SOL    HW227372   8.705  14.803   7.091
41845SOL     OW27373   6.076   4.458   8.554
41845SOL    HW127374   6.066   4.368   8.521
41845SOL    HW227375   6.106   4.447   8.644
41846SOL     OW27376  12.137   0.438   4.866
41846SOL    HW127377  12.228   0.409   4.869
41846SOL    HW227378  12.128   0.479   4.780
41847SOL     OW27379   6.544  13.752   1.826
41847SOL    HW127380   6.603  13.792   1.889
41847SOL    HW227381   6.600  13.726   1.753
41848SOL     OW27382   7.526  11.936  12.573
41848SOL    HW127383   7.434  11.943  12.546
41848SOL    HW227384   7.539  11.843  12.592
41849SOL     OW27385  10.092  10.679   0.365
41849SOL    HW127386  10.012  10.731   0.352
41849SOL    HW227387  10.138  10.684   0.281
41850SOL     OW27388   7.746  10.617  13.829
41850SOL    HW127389   7.811  10.684  13.850
41850SOL    HW227390   7.781  10.573  13.752
41851SOL     OW27391   0.336   6.748   7.955
41851SOL    HW127392   0.397   6.780   7.889
41851SOL    HW227393   0.255   6.732   7.906
41852SOL     OW27394   2.816   0.305   0.274
41852SOL    HW127395   2.812   0.338   0.363
41852SOL    HW227396   2.754   0.233   0.271
41853SOL     OW27397  12.454   2.486   0.840
41853SOL    HW127398  12.419   2.408   0.797
41853SOL    HW227399  12.391   2.555   0.821
41854SOL     OW27400  10.259  10.681  12.039
41854SOL    HW127401  10.237  10.644  11.954
41854SOL    HW227402  10.241  10.774  12.030
41855SOL     OW27403  11.374   2.658  10.314
41855SOL    HW127404  11.292   2.693  10.348
41855SOL    HW227405  11.372   2.676  10.220
41856SOL     OW27406  11.422   6.464  11.483
41856SOL    HW127407  11.452   6.396  11.544
41856SOL    HW227408  11.436   6.426  11.397
41857SOL     OW27409   4.587  13.865   4.196
41857SOL    HW127410   4.630  13.948   4.178
41857SOL    HW227411   4.528  13.851   4.122
41858SOL     OW27412   7.693   0.298   7.847
41858SOL    HW127413   7.598   0.284   7.848
41858SOL    HW227414   7.719   0.271   7.759
41859SOL     OW27415  14.399  11.712   7.828
41859SOL    HW127416  14.372  11.623   7.804
41859SOL    HW227417  14.378  11.720   7.921
41860SOL     OW27418   6.454   8.604   1.338
41860SOL    HW127419   6.468   8.667   1.409
41860SOL    HW227420   6.366   8.624   1.306
41861SOL     OW27421   2.653   8.155   0.075
41861SOL    HW127422   2.641   8.197   0.160
41861SOL    HW227423   2.577   8.098   0.065
41862SOL     OW27424   0.873   0.947  11.846
41862SOL    HW127425   0.938   0.877  11.835
41862SOL    HW227426   0.925   1.027  11.850
41863SOL     OW27427  13.991   1.453  13.246
41863SOL    HW127428  13.982   1.548  13.235
41863SOL    HW227429  14.004   1.441  13.340
41864SOL     OW27430   2.087   0.156   0.726
41864SOL    HW127431   2.020   0.126   0.787
41864SOL    HW227432   2.138   0.078   0.704
41865SOL     OW27433   5.929   5.085   2.883
41865SOL    HW127434   5.979   5.166   2.879
41865SOL    HW227435   5.994   5.016   2.876
41866SOL     OW27436   4.380  12.022  13.253
41866SOL    HW127437   4.330  11.979  13.184
41866SOL    HW227438   4.472  12.008  13.229
41867SOL     OW27439   9.609   1.243  13.570
41867SOL    HW127440   9.671   1.253  13.497
41867SOL    HW227441   9.620   1.324  13.621
41868SOL     OW27442   0.492   3.770   1.755
41868SOL    HW127443   0.485   3.818   1.838
41868SOL    HW227444   0.453   3.828   1.690
41869SOL     OW27445  10.392   4.276   6.073
41869SOL    HW127446  10.455   4.334   6.029
41869SOL    HW227447  10.430   4.263   6.161
41870SOL     OW27448   3.634   0.646  14.255
41870SOL    HW127449   3.625   0.551  14.251
41870SOL    HW227450   3.648   0.664  14.348
41871SOL     OW27451   1.692   0.084   4.848
41871SOL    HW127452   1.743   0.103   4.927
41871SOL    HW227453   1.697  14.871   4.838
41872SOL     OW27454   0.857   9.440  11.813
41872SOL    HW127455   0.827   9.498  11.744
41872SOL    HW227456   0.911   9.375  11.768
41873SOL     OW27457  10.949   2.693   7.721
41873SOL    HW127458  11.018   2.732   7.775
41873SOL    HW227459  10.911   2.767   7.674
41874SOL     OW27460   2.529   3.213   4.119
41874SOL    HW127461   2.483   3.254   4.046
41874SOL    HW227462   2.561   3.129   4.084
41875SOL     OW27463   7.116   3.899   7.076
41875SOL    HW127464   7.076   3.813   7.070
41875SOL    HW227465   7.083   3.947   7.000
41876SOL     OW27466   9.701  14.569  10.002
41876SOL    HW127467   9.694  14.564  10.097
41876SOL    HW227468   9.612  14.555   9.970
41877SOL     OW27469   3.382  11.554   5.997
41877SOL    HW127470   3.305  11.610   5.989
41877SOL    HW227471   3.357  11.485   6.058
41878SOL     OW27472   2.383   8.883  10.017
41878SOL    HW127473   2.299   8.894   9.972
41878SOL    HW227474   2.360   8.848  10.103
41879SOL     OW27475   6.295   7.469   7.840
41879SOL    HW127476   6.203   7.443   7.840
41879SOL    HW227477   6.294   7.561   7.865
41880SOL     OW27478   3.522  13.033  11.852
41880SOL    HW127479   3.459  12.963  11.872
41880SOL    HW227480   3.595  12.988  11.810
41881SOL     OW27481   8.068   8.092   5.562
41881SOL    HW127482   8.067   8.127   5.651
41881SOL    HW227483   8.065   8.170   5.506
41882SOL     OW27484   4.947  12.858   8.246
41882SOL    HW127485   4.979  12.945   8.223
41882SOL    HW227486   5.026  12.810   8.273
41883SOL     OW27487  10.052  10.921  12.616
41883SOL    HW127488  10.074  10.829  12.632
41883SOL    HW227489   9.981  10.918  12.552
41884SOL     OW27490  11.425   8.755   2.993
41884SOL    HW127491  11.397   8.664   3.002
41884SOL    HW227492  11.346   8.802   2.965
41885SOL     OW27493   8.333  12.912   6.895
41885SOL    HW127494   8.378  12.967   6.959
41885SOL    HW227495   8.402  12.886   6.834
41886SOL     OW27496  12.460  14.714   8.745
41886SOL    HW127497  12.403  14.663   8.688
41886SOL    HW227498  12.409  14.725   8.825
41887SOL     OW27499  10.751   0.909   3.870
41887SOL    HW127500  10.733   0.948   3.955
41887SOL    HW227501  10.779   0.819   3.890
41888SOL     OW27502   6.689  12.403  10.911
41888SOL    HW127503   6.773  12.358  10.916
41888SOL    HW227504   6.700  12.467  10.840
41889SOL     OW27505   9.285  10.782   3.264
41889SOL    HW127506   9.290  10.704   3.209
41889SOL    HW227507   9.265  10.854   3.203
41890SOL     OW27508   6.775   5.348   5.298
41890SOL    HW127509   6.812   5.433   5.274
41890SOL    HW227510   6.716   5.327   5.226
41891SOL     OW27511   9.377  12.861   2.334
41891SOL    HW127512   9.460  12.906   2.353
41891SOL    HW227513   9.363  12.805   2.410
41892SOL     OW27514   7.645   2.788   6.122
41892SOL    HW127515   7.697   2.801   6.202
41892SOL    HW227516   7.595   2.869   6.113
41893SOL     OW27517   3.299  14.628  10.555
41893SOL    HW127518   3.245  14.630  10.635
41893SOL    HW227519   3.261  14.558  10.503
41894SOL     OW27520   4.166   3.331  13.294
41894SOL    HW127521   4.177   3.330  13.199
41894SOL    HW227522   4.079   3.370  13.307
41895SOL     OW27523  10.271   8.478   4.648
41895SOL    HW127524  10.202   8.413   4.635
41895SOL    HW227525  10.350   8.426   4.661
41896SOL     OW27526   2.655   6.953   4.486
41896SOL    HW127527   2.707   6.975   4.563
41896SOL    HW227528   2.575   6.913   4.522
41897SOL     OW27529  11.235   2.392   4.264
41897SOL    HW127530  11.200   2.307   4.238
41897SOL    HW227531  11.222   2.396   4.359
41898SOL     OW27532  11.963   7.791   7.508
41898SOL    HW127533  11.922   7.741   7.578
41898SOL    HW227534  11.907   7.778   7.432
41899SOL     OW27535  12.719   4.669   4.050
41899SOL    HW127536  12.770   4.693   4.127
41899SOL    HW227537  12.783   4.634   3.988
41900SOL     OW27538   4.926   6.657  13.003
41900SOL    HW127539   4.902   6.581  13.056
41900SOL    HW227540   4.842   6.696  12.977
41901SOL     OW27541  12.258   7.928   3.075
41901SOL    HW127542  12.311   7.857   3.037
41901SOL    HW227543  12.168   7.897   3.067
41902SOL     OW27544  11.379   4.909   5.302
41902SOL    HW127545  11.410   4.935   5.215
41902SOL    HW227546  11.458   4.881   5.349
41903SOL     OW27547  12.504   6.269  11.165
41903SOL    HW127548  12.447   6.258  11.088
41903SOL    HW227549  12.539   6.358  11.155
41904SOL     OW27550   5.228   1.749   3.993
41904SOL    HW127551   5.185   1.695   3.926
41904SOL    HW227552   5.244   1.832   3.950
41905SOL     OW27553   3.559  11.507  13.542
41905SOL    HW127554   3.542  11.521  13.635
41905SOL    HW227555   3.651  11.533  13.531
41906SOL     OW27556   4.957  11.167   7.769
41906SOL    HW127557   4.958  11.150   7.675
41906SOL    HW227558   4.950  11.080   7.808
41907SOL     OW27559   6.405  11.826   4.271
41907SOL    HW127560   6.389  11.901   4.214
41907SOL    HW227561   6.465  11.859   4.338
41908SOL     OW27562   9.192  13.798   6.441
41908SOL    HW127563   9.102  13.830   6.437
41908SOL    HW227564   9.241  13.856   6.382
41909SOL     OW27565   5.935   2.620   8.939
41909SOL    HW127566   6.004   2.573   8.985
41909SOL    HW227567   5.856   2.603   8.990
41910SOL     OW27568   2.438   1.500  12.978
41910SOL    HW127569   2.450   1.513  13.072
41910SOL    HW227570   2.350   1.531  12.961
41911SOL     OW27571   4.598   6.220   4.418
41911SOL    HW127572   4.597   6.316   4.421
41911SOL    HW227573   4.545   6.198   4.341
41912SOL     OW27574   6.044   1.824   7.526
41912SOL    HW127575   5.980   1.760   7.557
41912SOL    HW227576   6.030   1.828   7.432
41913SOL     OW27577   7.864   8.129  12.529
41913SOL    HW127578   7.922   8.057  12.553
41913SOL    HW227579   7.778   8.088  12.520
41914SOL     OW27580   5.717   0.536  12.425
41914SOL    HW127581   5.720   0.535  12.329
41914SOL    HW227582   5.759   0.454  12.450
41915SOL     OW27583   7.640   1.344   5.660
41915SOL    HW127584   7.624   1.261   5.616
41915SOL    HW227585   7.664   1.320   5.749
41916SOL     OW27586  10.463   9.314   6.774
41916SOL    HW127587  10.454   9.254   6.701
41916SOL    HW227588  10.549   9.296   6.811
41917SOL     OW27589   9.682   5.437  14.250
41917SOL    HW127590   9.633   5.427  14.169
41917SOL    HW227591   9.750   5.370  14.246
41918SOL     OW27592   4.791  13.963   3.434
41918SOL    HW127593   4.832  14.000   3.355
41918SOL    HW227594   4.723  14.026   3.457
41919SOL     OW27595   7.693  10.457   0.739
41919SOL    HW127596   7.611  10.494   0.706
41919SOL    HW227597   7.744  10.533   0.767
41920SOL     OW27598   3.952   8.920  13.490
41920SOL    HW127599   3.894   8.864  13.541
41920SOL    HW227600   3.935   9.009  13.522
41921SOL     OW27601   9.696   0.890   8.093
41921SOL    HW127602   9.771   0.933   8.052
41921SOL    HW227603   9.624   0.905   8.032
41922SOL     OW27604   8.538   0.540   3.852
41922SOL    HW127605   8.632   0.555   3.845
41922SOL    HW227606   8.500   0.589   3.779
41923SOL     OW27607  13.501  10.841   1.990
41923SOL    HW127608  13.469  10.870   1.905
41923SOL    HW227609  13.426  10.799   2.032
41924SOL     OW27610  11.830  13.701  12.388
41924SOL    HW127611  11.900  13.730  12.447
41924SOL    HW227612  11.873  13.643  12.326
41925SOL     OW27613   1.784   6.634   9.182
41925SOL    HW127614   1.689   6.625   9.188
41925SOL    HW227615   1.819   6.568   9.241
41926SOL     OW27616   1.264   1.661   1.341
41926SOL    HW127617   1.280   1.750   1.310
41926SOL    HW227618   1.292   1.663   1.433
41927SOL     OW27619  12.292   7.559   0.379
41927SOL    HW127620  12.255   7.643   0.406
41927SOL    HW227621  12.316   7.517   0.462
41928SOL     OW27622   6.819   3.866   9.772
41928SOL    HW127623   6.810   3.771   9.765
41928SOL    HW227624   6.738   3.901   9.735
41929SOL     OW27625   1.530   8.140   8.010
41929SOL    HW127626   1.616   8.181   8.012
41929SOL    HW227627   1.547   8.046   8.014
41930SOL     OW27628   5.690  11.125  10.477
41930SOL    HW127629   5.683  11.030  10.462
41930SOL    HW227630   5.762  11.134  10.539
41931SOL     OW27631  12.179   7.500   2.132
41931SOL    HW127632  12.193   7.563   2.202
41931SOL    HW227633  12.258   7.444   2.134
41932SOL     OW27634   5.947   7.091   9.813
41932SOL    HW127635   6.017   7.074   9.749
41932SOL    HW227636   5.948   7.015   9.871
41933SOL     OW27637   5.944   8.565   4.286
41933SOL    HW127638   5.915   8.475   4.269
41933SOL    HW227639   6.026   8.573   4.237
41934SOL     OW27640   7.622  14.657   8.970
41934SOL    HW127641   7.649  14.579   9.018
41934SOL    HW227642   7.664  14.729   9.016
41935SOL     OW27643   8.440  12.175  14.339
41935SOL    HW127644   8.461  12.263  14.370
41935SOL    HW227645   8.489  12.166  14.258
41936SOL     OW27646   9.546   8.817   8.762
41936SOL    HW127647   9.539   8.850   8.852
41936SOL    HW227648   9.634   8.779   8.758
41937SOL     OW27649   2.165   5.622   5.181
41937SOL    HW127650   2.236   5.558   5.181
41937SOL    HW227651   2.090   5.577   5.143
41938SOL     OW27652   5.868  10.042   6.601
41938SOL    HW127653   5.790   9.989   6.614
41938SOL    HW227654   5.857  10.116   6.661
41939SOL     OW27655   1.975   7.075   9.329
41939SOL    HW127656   2.030   7.121   9.265
41939SOL    HW227657   1.916   7.021   9.276
41940SOL     OW27658   3.030   8.696   9.688
41940SOL    HW127659   3.038   8.616   9.742
41940SOL    HW227660   2.951   8.683   9.637
41941SOL     OW27661  10.976   8.432   1.341
41941SOL    HW127662  10.901   8.406   1.287
41941SOL    HW227663  10.938   8.478   1.415
41942SOL     OW27664   0.100   1.684  12.273
41942SOL    HW127665   0.040   1.613  12.253
41942SOL    HW227666   0.184   1.640  12.288
41943SOL     OW27667   9.038   6.490   1.967
41943SOL    HW127668   9.116   6.479   1.913
41943SOL    HW227669   9.028   6.406   2.011
41944SOL     OW27670   5.598   2.496   2.261
41944SOL    HW127671   5.675   2.444   2.284
41944SOL    HW227672   5.621   2.586   2.285
41945SOL     OW27673  14.021  11.073   1.355
41945SOL    HW127674  13.988  11.047   1.269
41945SOL    HW227675  14.057  10.993   1.393
41946SOL     OW27676   7.632   6.053   0.226
41946SOL    HW127677   7.546   6.061   0.184
41946SOL    HW227678   7.689   6.020   0.157
41947SOL     OW27679  11.447   3.185   1.325
41947SOL    HW127680  11.535   3.224   1.328
41947SOL    HW227681  11.464   3.092   1.306
41948SOL     OW27682   7.799   7.466   6.428
41948SOL    HW127683   7.752   7.383   6.419
41948SOL    HW227684   7.889   7.441   6.445
41949SOL     OW27685   9.640   7.560   7.187
41949SOL    HW127686   9.590   7.642   7.197
41949SOL    HW227687   9.699   7.577   7.114
41950SOL     OW27688  14.661   1.559  13.529
41950SOL    HW127689  14.608   1.565  13.450
41950SOL    HW227690  14.709   1.477  13.520
41951SOL     OW27691   0.111   4.818   4.060
41951SOL    HW127692   0.159   4.787   3.983
41951SOL    HW227693   0.079   4.739   4.102
41952SOL     OW27694  10.282   5.915  10.178
41952SOL    HW127695  10.355   5.938  10.121
41952SOL    HW227696  10.273   5.820  10.169
41953SOL     OW27697  13.290  13.098   8.590
41953SOL    HW127698  13.319  13.087   8.500
41953SOL    HW227699  13.371  13.092   8.642
41954SOL     OW27700   2.143   8.365   3.662
41954SOL    HW127701   2.134   8.459   3.647
41954SOL    HW227702   2.207   8.336   3.598
41955SOL     OW27703  12.248  14.837  13.184
41955SOL    HW127704  12.287   0.027  13.234
41955SOL    HW227705  12.154  14.845  13.198
41956SOL     OW27706   5.781   9.086  13.169
41956SOL    HW127707   5.770   9.025  13.096
41956SOL    HW227708   5.726   9.049  13.239
41957SOL     OW27709   9.115  12.201   6.645
41957SOL    HW127710   9.191  12.174   6.697
41957SOL    HW227711   9.149  12.208   6.555
41958SOL     OW27712  13.046   0.591   1.767
41958SOL    HW127713  13.006   0.666   1.722
41958SOL    HW227714  13.138   0.593   1.740
41959SOL     OW27715  11.608  13.769   1.744
41959SOL    HW127716  11.637  13.845   1.795
41959SOL    HW227717  11.521  13.748   1.779
41960SOL     OW27718  10.607  11.322   1.740
41960SOL    HW127719  10.658  11.243   1.758
41960SOL    HW227720  10.525  11.290   1.703
41961SOL     OW27721   9.400   4.376  12.294
41961SOL    HW127722   9.338   4.303  12.287
41961SOL    HW227723   9.483   4.341  12.265
41962SOL     OW27724  10.339   1.384   0.875
41962SOL    HW127725  10.359   1.351   0.962
41962SOL    HW227726  10.293   1.312   0.831
41963SOL     OW27727   5.872  10.371  11.493
41963SOL    HW127728   5.794  10.397  11.541
41963SOL    HW227729   5.940  10.433  11.522
41964SOL     OW27730   4.811   6.610  13.824
41964SOL    HW127731   4.811   6.550  13.899
41964SOL    HW227732   4.718   6.626  13.807
41965SOL     OW27733   5.239  13.833  11.317
41965SOL    HW127734   5.180  13.852  11.389
41965SOL    HW227735   5.327  13.849  11.353
41966SOL     OW27736   9.795   6.114   0.598
41966SOL    HW127737   9.700   6.111   0.593
41966SOL    HW227738   9.826   6.073   0.517
41967SOL     OW27739   4.776  14.686   1.196
41967SOL    HW127740   4.775  14.759   1.134
41967SOL    HW227741   4.809  14.723   1.277
41968SOL     OW27742   4.064   5.799   4.551
41968SOL    HW127743   4.039   5.742   4.625
41968SOL    HW227744   4.115   5.869   4.592
41969SOL     OW27745   6.426  12.898  11.701
41969SOL    HW127746   6.393  12.892  11.791
41969SOL    HW227747   6.488  12.825  11.693
41970SOL     OW27748   8.735   9.599  13.541
41970SOL    HW127749   8.830   9.597  13.542
41970SOL    HW227750   8.711   9.608  13.634
41971SOL     OW27751   7.919  13.884  12.602
41971SOL    HW127752   7.867  13.964  12.603
41971SOL    HW227753   7.974  13.892  12.524
41972SOL     OW27754  12.733  11.961   0.127
41972SOL    HW127755  12.826  11.957   0.104
41972SOL    HW227756  12.691  12.000   0.051
41973SOL     OW27757  10.600   3.243   5.208
41973SOL    HW127758  10.682   3.217   5.249
41973SOL    HW227759  10.534   3.184   5.245
41974SOL     OW27760   8.684  10.632   7.767
41974SOL    HW127761   8.609  10.681   7.802
41974SOL    HW227762   8.655  10.603   7.680
41975SOL     OW27763  10.348  11.586  10.321
41975SOL    HW127764  10.329  11.583  10.227
41975SOL    HW227765  10.262  11.591  10.363
41976SOL     OW27766  10.468   6.389  12.475
41976SOL    HW127767  10.420   6.422  12.398
41976SOL    HW227768  10.554   6.363  12.440
41977SOL     OW27769  10.446   5.282   5.958
41977SOL    HW127770  10.359   5.316   5.940
41977SOL    HW227771  10.501   5.360   5.970
41978SOL     OW27772  10.738  14.232   5.748
41978SOL    HW127773  10.688  14.151   5.735
41978SOL    HW227774  10.815  14.205   5.798
41979SOL     OW27775   2.527   0.835   6.233
41979SOL    HW127776   2.584   0.758   6.239
41979SOL    HW227777   2.529   0.873   6.322
41980SOL     OW27778   9.648   6.136  12.612
41980SOL    HW127779   9.625   6.043  12.611
41980SOL    HW227780   9.741   6.138  12.636
41981SOL     OW27781   2.314   1.739   6.949
41981SOL    HW127782   2.231   1.705   6.982
41981SOL    HW227783   2.290   1.792   6.873
41982SOL     OW27784   9.383  14.266   9.953
41982SOL    HW127785   9.381  14.172   9.965
41982SOL    HW227786   9.432  14.299  10.029
41983SOL     OW27787   0.742   9.268  14.006
41983SOL    HW127788   0.758   9.329  13.935
41983SOL    HW227789   0.760   9.318  14.086
41984SOL     OW27790   5.675   4.298  13.582
41984SOL    HW127791   5.770   4.286  13.585
41984SOL    HW227792   5.662   4.387  13.550
41985SOL     OW27793   1.814   8.985   2.314
41985SOL    HW127794   1.768   8.902   2.321
41985SOL    HW227795   1.795   9.014   2.224
41986SOL     OW27796  13.261   7.307  11.976
41986SOL    HW127797  13.338   7.263  11.941
41986SOL    HW227798  13.216   7.240  12.028
41987SOL     OW27799  11.504  13.067   5.662
41987SOL    HW127800  11.443  13.119   5.609
41987SOL    HW227801  11.589  13.109   5.648
41988SOL     OW27802   8.533   0.941   4.525
41988SOL    HW127803   8.557   0.910   4.612
41988SOL    HW227804   8.596   1.011   4.506
41989SOL     OW27805   5.314   3.843   8.537
41989SOL    HW127806   5.238   3.830   8.595
41989SOL    HW227807   5.278   3.833   8.449
41990SOL     OW27808   8.450  13.271   1.203
41990SOL    HW127809   8.450  13.286   1.109
41990SOL    HW227810   8.371  13.219   1.219
41991SOL     OW27811  13.031  13.745   9.062
41991SOL    HW127812  13.074  13.759   8.977
41991SOL    HW227813  13.024  13.833   9.100
41992SOL     OW27814   2.923   0.991   0.425
41992SOL    HW127815   2.947   1.078   0.458
41992SOL    HW227816   2.977   0.931   0.476
41993SOL     OW27817   6.147  13.276   7.169
41993SOL    HW127818   6.164  13.364   7.137
41993SOL    HW227819   6.220  13.257   7.228
41994SOL     OW27820   2.854   0.193   8.648
41994SOL    HW127821   2.903   0.220   8.726
41994SOL    HW227822   2.916   0.141   8.597
41995SOL     OW27823   0.820   4.811   7.483
41995SOL    HW127824   0.840   4.740   7.422
41995SOL    HW227825   0.875   4.793   7.559
41996SOL     OW27826   4.526   0.773  10.120
41996SOL    HW127827   4.514   0.741  10.030
41996SOL    HW227828   4.620   0.767  10.135
41997SOL     OW27829   5.293  12.832   9.768
41997SOL    HW127830   5.336  12.800   9.848
41997SOL    HW227831   5.354  12.809   9.698
41998SOL     OW27832   5.639  13.294  13.722
41998SOL    HW127833   5.546  13.311  13.734
41998SOL    HW227834   5.643  13.206  13.685
41999SOL     OW27835   4.400   5.386   3.623
41999SOL    HW127836   4.410   5.442   3.700
41999SOL    HW227837   4.306   5.373   3.615
42000SOL     OW27838   7.861  14.115   3.865
42000SOL    HW127839   7.768  14.100   3.853
42000SOL    HW227840   7.894  14.133   3.777
42001SOL     OW27841  10.995   9.825  11.645
42001SOL    HW127842  10.984   9.871  11.562
42001SOL    HW227843  10.986   9.732  11.623
42002SOL     OW27844   6.230   4.846   0.189
42002SOL    HW127845   6.198   4.860   0.100
42002SOL    HW227846   6.324   4.863   0.183
42003SOL     OW27847   9.673  12.518   1.241
42003SOL    HW127848   9.683  12.498   1.148
42003SOL    HW227849   9.762  12.536   1.271
42004SOL     OW27850   1.542   7.989   3.756
42004SOL    HW127851   1.593   8.023   3.831
42004SOL    HW227852   1.558   8.053   3.686
42005SOL     OW27853   4.056  10.664   9.741
42005SOL    HW127854   4.121  10.635   9.677
42005SOL    HW227855   3.978  10.612   9.722
42006SOL     OW27856  11.021  11.674   2.353
42006SOL    HW127857  10.985  11.592   2.387
42006SOL    HW227858  10.976  11.688   2.270
42007SOL     OW27859   9.829   5.720  12.858
42007SOL    HW127860   9.877   5.801  12.841
42007SOL    HW227861   9.881   5.675  12.925
42008SOL     OW27862   0.474   1.439   1.478
42008SOL    HW127863   0.537   1.498   1.437
42008SOL    HW227864   0.508   1.351   1.459
42009SOL     OW27865  12.977   3.351   1.399
42009SOL    HW127866  12.964   3.256   1.397
42009SOL    HW227867  13.050   3.366   1.339
42010SOL     OW27868   5.062  10.983   8.505
42010SOL    HW127869   5.035  11.026   8.586
42010SOL    HW227870   5.049  10.889   8.521
42011SOL     OW27871   6.273   0.689  12.198
42011SOL    HW127872   6.262   0.671  12.105
42011SOL    HW227873   6.252   0.607  12.242
42012SOL     OW27874   3.339   2.567   9.427
42012SOL    HW127875   3.396   2.633   9.387
42012SOL    HW227876   3.254   2.610   9.436
42013SOL     OW27877   3.440   4.113   9.396
42013SOL    HW127878   3.383   4.151   9.329
42013SOL    HW227879   3.516   4.171   9.397
42014SOL     OW27880  10.257   4.708   4.272
42014SOL    HW127881  10.212   4.768   4.332
42014SOL    HW227882  10.243   4.621   4.311
42015SOL     OW27883   8.103   1.498  13.112
42015SOL    HW127884   8.102   1.412  13.071
42015SOL    HW227885   8.011   1.515  13.133
42016SOL     OW27886   0.211   6.398   7.648
42016SOL    HW127887   0.283   6.427   7.703
42016SOL    HW227888   0.245   6.322   7.601
42017SOL     OW27889   0.544   7.013  11.001
42017SOL    HW127890   0.553   7.017  11.097
42017SOL    HW227891   0.562   7.102  10.971
42018SOL     OW27892  14.155  11.597  14.073
42018SOL    HW127893  14.101  11.545  14.132
42018SOL    HW227894  14.173  11.537  14.000
42019SOL     OW27895  12.595  10.750  13.371
42019SOL    HW127896  12.503  10.724  13.362
42019SOL    HW227897  12.644  10.672  13.346
42020SOL     OW27898   8.109   7.709  12.034
42020SOL    HW127899   8.098   7.711  11.939
42020SOL    HW227900   8.189   7.658  12.048
42021SOL     OW27901   3.625   7.426  14.029
42021SOL    HW127902   3.665   7.385  13.953
42021SOL    HW227903   3.531   7.410  14.019
42022SOL     OW27904   9.396   3.323   0.490
42022SOL    HW127905   9.388   3.248   0.549
42022SOL    HW227906   9.411   3.397   0.548
42023SOL     OW27907   8.253   7.915   5.208
42023SOL    HW127908   8.326   7.965   5.171
42023SOL    HW227909   8.265   7.827   5.172
42024SOL     OW27910   5.788   3.478   2.435
42024SOL    HW127911   5.700   3.516   2.432
42024SOL    HW227912   5.774   3.388   2.465
42025SOL     OW27913   0.333  13.415  10.651
42025SOL    HW127914   0.375  13.379  10.573
42025SOL    HW227915   0.406  13.441  10.707
42026SOL     OW27916  14.530   8.780   9.981
42026SOL    HW127917  14.475   8.843   9.935
42026SOL    HW227918  14.549   8.821  10.066
42027SOL     OW27919  13.535  14.109   5.628
42027SOL    HW127920  13.608  14.132   5.571
42027SOL    HW227921  13.475  14.183   5.621
42028SOL     OW27922   4.358   7.253   7.640
42028SOL    HW127923   4.309   7.286   7.715
42028SOL    HW227924   4.430   7.315   7.629
42029SOL     OW27925   5.093   8.706  12.980
42029SOL    HW127926   5.129   8.795  12.972
42029SOL    HW227927   5.046   8.692  12.898
42030SOL     OW27928   6.760   5.319   3.446
42030SOL    HW127929   6.706   5.377   3.499
42030SOL    HW227930   6.841   5.369   3.431
42031SOL     OW27931   3.493   6.645   5.767
42031SOL    HW127932   3.483   6.718   5.706
42031SOL    HW227933   3.570   6.598   5.735
42032SOL     OW27934   8.203  13.142   1.164
42032SOL    HW127935   8.178  13.230   1.135
42032SOL    HW227936   8.127  13.111   1.213
42033SOL     OW27937  14.672  13.145   3.409
42033SOL    HW127938  14.585  13.183   3.398
42033SOL    HW227939  14.655  13.052   3.427
42034SOL     OW27940  14.250  11.793   1.617
42034SOL    HW127941  14.181  11.860   1.621
42034SOL    HW227942  14.300  11.806   1.698
42035SOL     OW27943  14.242  12.322  14.695
42035SOL    HW127944  14.230  12.232  14.726
42035SOL    HW227945  14.269  12.370  14.773
42036SOL     OW27946  12.427   5.177  12.652
42036SOL    HW127947  12.361   5.118  12.616
42036SOL    HW227948  12.401   5.264  12.622
42037SOL     OW27949  12.781   1.314   9.506
42037SOL    HW127950  12.794   1.221   9.490
42037SOL    HW227951  12.691   1.332   9.480
42038SOL     OW27952   5.634  14.039  14.021
42038SOL    HW127953   5.616  13.947  14.038
42038SOL    HW227954   5.642  14.045  13.926
42039SOL     OW27955   6.093   7.385   2.468
42039SOL    HW127956   6.026   7.341   2.416
42039SOL    HW227957   6.096   7.474   2.433
42040SOL     OW27958   8.204   9.271  11.318
42040SOL    HW127959   8.182   9.273  11.411
42040SOL    HW227960   8.300   9.262  11.317
42041SOL     OW27961   3.955  13.323   7.428
42041SOL    HW127962   3.984  13.235   7.454
42041SOL    HW227963   4.034  13.368   7.399
42042SOL     OW27964   7.407  10.154   3.556
42042SOL    HW127965   7.395  10.197   3.642
42042SOL    HW227966   7.368  10.216   3.494
42043SOL     OW27967  14.516   3.731   2.024
42043SOL    HW127968  14.576   3.718   2.097
42043SOL    HW227969  14.432   3.749   2.066
42044SOL     OW27970   8.098   4.585   7.317
42044SOL    HW127971   8.120   4.574   7.224
42044SOL    HW227972   8.086   4.679   7.328
42045SOL     OW27973   2.323  10.439   3.114
42045SOL    HW127974   2.238  10.476   3.140
42045SOL    HW227975   2.387  10.503   3.143
42046SOL     OW27976   8.296   8.254  12.485
42046SOL    HW127977   8.313   8.161  12.503
42046SOL    HW227978   8.252   8.286  12.564
42047SOL     OW27979   3.663   5.399  13.685
42047SOL    HW127980   3.701   5.314  13.665
42047SOL    HW227981   3.675   5.410  13.779
42048SOL     OW27982  11.085   9.749   5.263
42048SOL    HW127983  11.174   9.785   5.268
42048SOL    HW227984  11.072   9.730   5.171
42049SOL     OW27985  11.486   6.263   6.135
42049SOL    HW127986  11.407   6.217   6.109
42049SOL    HW227987  11.464   6.303   6.219
42050SOL     OW27988   3.202  10.793   2.429
42050SOL    HW127989   3.293  10.779   2.454
42050SOL    HW227990   3.153  10.781   2.510
42051SOL     OW27991   2.836  14.471   1.092
42051SOL    HW127992   2.855  14.394   1.146
42051SOL    HW227993   2.834  14.437   1.003
42052SOL     OW27994  11.021  14.792   6.156
42052SOL    HW127995  11.075  14.793   6.235
42052SOL    HW227996  11.031  14.880   6.119
42053SOL     OW27997  13.561   7.083   0.938
42053SOL    HW127998  13.478   7.120   0.967
42053SOL    HW227999  13.615   7.079   1.018
42054SOL     OW28000  10.911   2.289  12.957
42054SOL    HW128001  11.005   2.298  12.971
42054SOL    HW228002  10.871   2.351  13.018
42055SOL     OW28003   8.253  13.147   1.762
42055SOL    HW128004   8.339  13.162   1.723
42055SOL    HW228005   8.268  13.154   1.856
42056SOL     OW28006  13.524  14.194   1.417
42056SOL    HW128007  13.497  14.233   1.334
42056SOL    HW228008  13.489  14.252   1.484
42057SOL     OW28009  10.797  10.689   5.251
42057SOL    HW128010  10.797  10.775   5.293
42057SOL    HW228011  10.890  10.670   5.236
42058SOL     OW28012  13.468   3.778   7.044
42058SOL    HW128013  13.476   3.839   6.971
42058SOL    HW228014  13.478   3.691   7.004
42059SOL     OW28015   9.988  10.382  14.264
42059SOL    HW128016  10.033  10.350  14.343
42059SOL    HW228017   9.980  10.305  14.208
42060SOL     OW28018   4.673   8.949  12.104
42060SOL    HW128019   4.717   8.908  12.178
42060SOL    HW228020   4.647   8.875  12.048
42061SOL     OW28021  11.537   2.183   8.721
42061SOL    HW128022  11.496   2.269   8.712
42061SOL    HW228023  11.506   2.150   8.805
42062SOL     OW28024  12.115   6.172  10.096
42062SOL    HW128025  12.069   6.163  10.012
42062SOL    HW228026  12.090   6.258  10.128
42063SOL     OW28027   8.292   8.271  11.681
42063SOL    HW128028   8.360   8.204  11.684
42063SOL    HW228029   8.211   8.223  11.702
42064SOL     OW28030   5.025   6.174   1.607
42064SOL    HW128031   4.980   6.167   1.691
42064SOL    HW228032   5.117   6.156   1.627
42065SOL     OW28033   7.683  14.014  11.277
42065SOL    HW128034   7.629  14.083  11.238
42065SOL    HW228035   7.688  13.947  11.209
42066SOL     OW28036   2.019   6.070   4.826
42066SOL    HW128037   2.068   6.096   4.904
42066SOL    HW228038   2.077   6.090   4.753
42067SOL     OW28039   0.760   6.304  11.806
42067SOL    HW128040   0.743   6.332  11.716
42067SOL    HW228041   0.844   6.345  11.828
42068SOL     OW28042   9.320   4.671   6.675
42068SOL    HW128043   9.229   4.653   6.701
42068SOL    HW228044   9.362   4.701   6.756
42069SOL     OW28045   2.593   9.931   8.723
42069SOL    HW128046   2.657   9.873   8.763
42069SOL    HW228047   2.641   9.976   8.653
42070SOL     OW28048  11.655  13.966   1.503
42070SOL    HW128049  11.666  13.895   1.566
42070SOL    HW228050  11.694  14.042   1.546
42071SOL     OW28051   2.336   8.492  14.480
42071SOL    HW128052   2.338   8.583  14.452
42071SOL    HW228053   2.384   8.491  14.563
42072SOL     OW28054  14.763  14.226  10.640
42072SOL    HW128055  14.739  14.159  10.704
42072SOL    HW228056  14.794  14.300  10.692
42073SOL     OW28057   3.865   1.737   8.242
42073SOL    HW128058   3.879   1.747   8.336
42073SOL    HW228059   3.855   1.826   8.209
42074SOL     OW28060   5.653   2.545   9.917
42074SOL    HW128061   5.696   2.503   9.843
42074SOL    HW228062   5.686   2.635   9.916
42075SOL     OW28063   4.122   9.436   6.779
42075SOL    HW128064   4.026   9.435   6.781
42075SOL    HW228065   4.146   9.344   6.766
42076SOL     OW28066  12.744  13.891  10.517
42076SOL    HW128067  12.823  13.942  10.501
42076SOL    HW228068  12.679  13.956  10.546
42077SOL     OW28069  14.439   8.559   4.391
42077SOL    HW128070  14.490   8.507   4.453
42077SOL    HW228071  14.500   8.627   4.362
42078SOL     OW28072  10.478   2.999   0.945
42078SOL    HW128073  10.564   3.038   0.961
42078SOL    HW228074  10.430   3.067   0.898
42079SOL     OW28075   1.401   1.273   6.166
42079SOL    HW128076   1.412   1.351   6.220
42079SOL    HW228077   1.478   1.220   6.183
42080SOL     OW28078   8.191  10.519   1.923
42080SOL    HW128079   8.115  10.510   1.981
42080SOL    HW228080   8.266  10.528   1.982
42081SOL     OW28081   4.161  12.482   6.662
42081SOL    HW128082   4.109  12.472   6.582
42081SOL    HW228083   4.246  12.514   6.631
42082SOL     OW28084  10.176   5.510   0.433
42082SOL    HW128085  10.103   5.450   0.417
42082SOL    HW228086  10.144   5.569   0.501
42083SOL     OW28087  11.443  14.829   0.008
42083SOL    HW128088  11.419  14.874  14.809
42083SOL    HW228089  11.501  14.758  14.861
42084SOL     OW28090   5.135   4.197   9.823
42084SOL    HW128091   5.128   4.275   9.879
42084SOL    HW228092   5.064   4.205   9.760
42085SOL     OW28093   6.090  11.608  13.653
42085SOL    HW128094   6.099  11.605  13.558
42085SOL    HW228095   6.165  11.559  13.686
42086SOL     OW28096  10.236   9.559   9.046
42086SOL    HW128097  10.244   9.573   9.140
42086SOL    HW228098  10.226   9.646   9.010
42087SOL     OW28099   8.315   3.713  14.525
42087SOL    HW128100   8.377   3.710  14.597
42087SOL    HW228101   8.236   3.671  14.559
42088SOL     OW28102   7.454   7.777   1.846
42088SOL    HW128103   7.485   7.687   1.847
42088SOL    HW228104   7.469   7.807   1.756
42089SOL     OW28105  11.894   8.336  13.730
42089SOL    HW128106  11.892   8.407  13.665
42089SOL    HW228107  11.802   8.311  13.740
42090SOL     OW28108   5.863  14.613   4.424
42090SOL    HW128109   5.937  14.672   4.439
42090SOL    HW228110   5.883  14.571   4.340
42091SOL     OW28111   1.502   1.967  12.965
42091SOL    HW128112   1.436   2.019  13.010
42091SOL    HW228113   1.586   2.002  12.997
42092SOL     OW28114   3.824  11.381  14.502
42092SOL    HW128115   3.766  11.308  14.525
42092SOL    HW228116   3.912  11.348  14.521
42093SOL     OW28117  10.508   5.712  13.569
42093SOL    HW128118  10.524   5.708  13.664
42093SOL    HW228119  10.569   5.780  13.538
42094SOL     OW28120   9.058  10.746  10.240
42094SOL    HW128121   8.996  10.675  10.224
42094SOL    HW228122   9.015  10.803  10.304
42095SOL     OW28123   5.707   7.989  11.505
42095SOL    HW128124   5.751   8.034  11.433
42095SOL    HW228125   5.621   7.966  11.470
42096SOL     OW28126  13.787  12.305   1.882
42096SOL    HW128127  13.736  12.226   1.897
42096SOL    HW228128  13.721  12.372   1.863
42097SOL     OW28129   1.894   6.585   8.699
42097SOL    HW128130   1.935   6.500   8.685
42097SOL    HW228131   1.955   6.648   8.661
42098SOL     OW28132   3.127   6.303   3.716
42098SOL    HW128133   3.060   6.371   3.724
42098SOL    HW228134   3.081   6.229   3.676
42099SOL     OW28135  10.273   1.962   8.627
42099SOL    HW128136  10.251   1.930   8.540
42099SOL    HW228137  10.337   2.031   8.612
42100SOL     OW28138   2.172   5.366   3.201
42100SOL    HW128139   2.170   5.280   3.243
42100SOL    HW228140   2.080   5.393   3.195
42101SOL     OW28141   4.031   2.203   3.393
42101SOL    HW128142   4.047   2.281   3.339
42101SOL    HW228143   4.046   2.129   3.335
42102SOL     OW28144   0.359  10.014   1.027
42102SOL    HW128145   0.303   9.978   0.959
42102SOL    HW228146   0.366   9.944   1.092
42103SOL     OW28147   8.101   2.787   0.775
42103SOL    HW128148   8.108   2.839   0.694
42103SOL    HW228149   8.037   2.834   0.828
42104SOL     OW28150  10.658   4.110   0.700
42104SOL    HW128151  10.631   4.202   0.706
42104SOL    HW228152  10.584   4.061   0.734
42105SOL     OW28153  14.291  11.967   8.398
42105SOL    HW128154  14.337  12.017   8.331
42105SOL    HW228155  14.260  12.033   8.460
42106SOL     OW28156   7.916   4.552   6.312
42106SOL    HW128157   7.890   4.614   6.381
42106SOL    HW228158   7.976   4.492   6.356
42107SOL     OW28159  13.499   3.484   7.465
42107SOL    HW128160  13.555   3.558   7.442
42107SOL    HW228161  13.482   3.495   7.559
42108SOL     OW28162   4.697   7.067  14.227
42108SOL    HW128163   4.633   6.999  14.208
42108SOL    HW228164   4.683   7.088  14.320
42109SOL     OW28165   0.396   4.163  11.549
42109SOL    HW128166   0.335   4.139  11.619
42109SOL    HW228167   0.370   4.109  11.474
42110SOL     OW28168  12.607  10.776   3.623
42110SOL    HW128169  12.684  10.810   3.577
42110SOL    HW228170  12.601  10.685   3.596
42111SOL     OW28171  14.425   5.487   2.861
42111SOL    HW128172  14.366   5.412   2.850
42111SOL    HW228173  14.367   5.560   2.880
42112SOL     OW28174   6.820  12.061  10.538
42112SOL    HW128175   6.840  12.114  10.461
42112SOL    HW228176   6.874  11.982  10.528
42113SOL     OW28177   3.136   7.876   2.702
42113SOL    HW128178   3.185   7.914   2.774
42113SOL    HW228179   3.078   7.811   2.743
42114SOL     OW28180   3.925  14.309   3.367
42114SOL    HW128181   3.939  14.361   3.446
42114SOL    HW228182   3.858  14.357   3.318
42115SOL     OW28183   0.823  11.084  11.013
42115SOL    HW128184   0.874  11.091  11.094
42115SOL    HW228185   0.885  11.106  10.944
42116SOL     OW28186   8.497   6.307   9.356
42116SOL    HW128187   8.516   6.381   9.298
42116SOL    HW228188   8.516   6.339   9.444
42117SOL     OW28189   6.734   3.619   6.632
42117SOL    HW128190   6.693   3.705   6.642
42117SOL    HW228191   6.697   3.584   6.551
42118SOL     OW28192  13.044  12.305  13.989
42118SOL    HW128193  13.137  12.327  13.990
42118SOL    HW228194  13.012  12.331  14.075
42119SOL     OW28195   9.535  14.161   9.625
42119SOL    HW128196   9.613  14.114   9.655
42119SOL    HW228197   9.547  14.169   9.530
42120SOL     OW28198   7.731   6.154  10.103
42120SOL    HW128199   7.691   6.240  10.088
42120SOL    HW228200   7.726   6.142  10.198
42121SOL     OW28201  13.719   5.007   8.199
42121SOL    HW128202  13.781   4.964   8.259
42121SOL    HW228203  13.730   5.100   8.216
42122SOL     OW28204   9.991   4.909  10.788
42122SOL    HW128205   9.943   4.828  10.807
42122SOL    HW228206   9.978   4.964  10.866
42123SOL     OW28207   2.861   2.530   3.780
42123SOL    HW128208   2.787   2.587   3.759
42123SOL    HW228209   2.937   2.578   3.747
42124SOL     OW28210  13.191   2.553   2.783
42124SOL    HW128211  13.229   2.465   2.793
42124SOL    HW228212  13.246   2.595   2.717
42125SOL     OW28213  14.852  13.675   6.310
42125SOL    HW128214   0.018  13.619   6.250
42125SOL    HW228215   0.020  13.756   6.313
42126SOL     OW28216  10.386   5.359   8.579
42126SOL    HW128217  10.364   5.437   8.529
42126SOL    HW228218  10.470   5.380   8.620
42127SOL     OW28219  12.428   8.748   7.924
42127SOL    HW128220  12.334   8.741   7.908
42127SOL    HW228221  12.448   8.840   7.907
42128SOL     OW28222   4.800   6.299   4.764
42128SOL    HW128223   4.838   6.368   4.710
42128SOL    HW228224   4.875   6.261   4.810
42129SOL     OW28225   3.951   7.346   4.281
42129SOL    HW128226   3.893   7.277   4.248
42129SOL    HW228227   3.901   7.388   4.351
42130SOL     OW28228   7.374   1.287   7.199
42130SOL    HW128229   7.469   1.298   7.194
42130SOL    HW228230   7.359   1.195   7.175
42131SOL     OW28231   5.384   9.432   6.744
42131SOL    HW128232   5.365   9.493   6.673
42131SOL    HW228233   5.301   9.387   6.760
42132SOL     OW28234   1.151   6.057  10.765
42132SOL    HW128235   1.226   6.002  10.790
42132SOL    HW228236   1.076   5.998  10.773
42133SOL     OW28237   0.880  10.163   4.782
42133SOL    HW128238   0.807  10.125   4.733
42133SOL    HW228239   0.854  10.155   4.874
42134SOL     OW28240   3.979   2.654  12.220
42134SOL    HW128241   3.976   2.581  12.158
42134SOL    HW228242   3.987   2.731  12.165
42135SOL     OW28243   0.337   0.026   0.445
42135SOL    HW128244   0.372  14.834   0.396
42135SOL    HW228245   0.337  14.879   0.536
42136SOL     OW28246   1.585   1.358   5.335
42136SOL    HW128247   1.509   1.350   5.393
42136SOL    HW228248   1.600   1.269   5.303
42137SOL     OW28249  11.733   0.874   4.892
42137SOL    HW128250  11.710   0.803   4.832
42137SOL    HW228251  11.709   0.954   4.845
42138SOL     OW28252   5.379  12.483   5.050
42138SOL    HW128253   5.387  12.424   4.976
42138SOL    HW228254   5.325  12.436   5.114
42139SOL     OW28255   7.198  10.863   6.382
42139SOL    HW128256   7.281  10.882   6.425
42139SOL    HW228257   7.216  10.785   6.328
42140SOL     OW28258   3.073  11.979   3.723
42140SOL    HW128259   3.003  11.971   3.659
42140SOL    HW228260   3.152  11.952   3.676
42141SOL     OW28261  14.728   4.987   0.010
42141SOL    HW128262  14.633   4.978   0.002
42141SOL    HW228263  14.742   5.009   0.102
42142SOL     OW28264   7.989   4.889   1.848
42142SOL    HW128265   8.064   4.897   1.906
42142SOL    HW228266   7.949   4.976   1.848
42143SOL     OW28267   8.185  10.278   7.349
42143SOL    HW128268   8.188  10.332   7.428
42143SOL    HW228269   8.117  10.317   7.295
42144SOL     OW28270   6.331   7.011  13.740
42144SOL    HW128271   6.272   6.961  13.682
42144SOL    HW228272   6.272   7.066  13.792
42145SOL     OW28273   6.053  11.321   2.920
42145SOL    HW128274   5.962  11.311   2.892
42145SOL    HW228275   6.097  11.243   2.886
42146SOL     OW28276   4.512   4.092  10.443
42146SOL    HW128277   4.502   3.996  10.444
42146SOL    HW228278   4.518   4.115  10.351
42147SOL     OW28279   9.048   9.877   5.185
42147SOL    HW128280   9.059   9.845   5.095
42147SOL    HW228281   9.135   9.866   5.225
42148SOL     OW28282   1.319   9.069   5.582
42148SOL    HW128283   1.314   9.154   5.540
42148SOL    HW228284   1.364   9.086   5.665
42149SOL     OW28285   4.757   0.116  11.898
42149SOL    HW128286   4.782   0.035  11.853
42149SOL    HW228287   4.695   0.088  11.965
42150SOL     OW28288   8.651  14.586   2.083
42150SOL    HW128289   8.733  14.576   2.035
42150SOL    HW228290   8.675  14.572   2.174
42151SOL     OW28291   9.123   3.833   6.123
42151SOL    HW128292   9.145   3.843   6.216
42151SOL    HW228293   9.048   3.892   6.111
42152SOL     OW28294   9.314   2.641   2.249
42152SOL    HW128295   9.380   2.692   2.297
42152SOL    HW228296   9.274   2.586   2.316
42153SOL     OW28297   9.133   8.208   5.841
42153SOL    HW128298   9.153   8.302   5.838
42153SOL    HW228299   9.153   8.182   5.931
42154SOL     OW28300   1.613   6.090  13.528
42154SOL    HW128301   1.692   6.090  13.581
42154SOL    HW228302   1.631   6.151  13.456
42155SOL     OW28303   6.000   1.606  14.746
42155SOL    HW128304   5.970   1.683  14.697
42155SOL    HW228305   5.989   1.533  14.686
42156SOL     OW28306   5.083   8.710   3.700
42156SOL    HW128307   5.007   8.712   3.641
42156SOL    HW228308   5.045   8.694   3.786
42157SOL     OW28309   2.809  14.372   2.436
42157SOL    HW128310   2.865  14.294   2.439
42157SOL    HW228311   2.870  14.445   2.443
42158SOL     OW28312   2.725   1.802  12.484
42158SOL    HW128313   2.680   1.718  12.481
42158SOL    HW228314   2.739   1.826  12.392
42159SOL     OW28315   2.288   6.971  10.337
42159SOL    HW128316   2.351   6.987  10.408
42159SOL    HW228317   2.342   6.943  10.263
42160SOL     OW28318  12.115   5.433   3.802
42160SOL    HW128319  12.156   5.494   3.740
42160SOL    HW228320  12.126   5.474   3.888
42161SOL     OW28321  13.110   3.415   3.407
42161SOL    HW128322  13.030   3.383   3.448
42161SOL    HW228323  13.120   3.504   3.441
42162SOL     OW28324   1.486   7.965  12.955
42162SOL    HW128325   1.419   7.941  13.019
42162SOL    HW228326   1.535   7.884  12.941
42163SOL     OW28327   8.790  13.739   1.784
42163SOL    HW128328   8.789  13.652   1.744
42163SOL    HW228329   8.761  13.724   1.874
42164SOL     OW28330   6.107   2.826  12.372
42164SOL    HW128331   6.163   2.896  12.340
42164SOL    HW228332   6.140   2.747  12.330
42165SOL     OW28333  11.028  13.667   0.930
42165SOL    HW128334  11.009  13.654   0.837
42165SOL    HW228335  10.977  13.745   0.954
42166SOL     OW28336   8.802   5.974  13.189
42166SOL    HW128337   8.748   6.007  13.117
42166SOL    HW228338   8.760   6.007  13.268
42167SOL     OW28339  13.655   3.848  14.664
42167SOL    HW128340  13.574   3.851  14.714
42167SOL    HW228341  13.644   3.916  14.597
42168SOL     OW28342   9.665  11.790   6.069
42168SOL    HW128343   9.598  11.790   6.001
42168SOL    HW228344   9.617  11.813   6.149
42169SOL     OW28345   7.663   5.427   0.090
42169SOL    HW128346   7.738   5.368   0.087
42169SOL    HW228347   7.596   5.377   0.138
42170SOL     OW28348   1.181   0.342  13.410
42170SOL    HW128349   1.243   0.293  13.464
42170SOL    HW228350   1.096   0.325  13.451
42171SOL     OW28351  10.462  10.598   3.455
42171SOL    HW128352  10.383  10.573   3.408
42171SOL    HW228353  10.522  10.524   3.443
42172SOL     OW28354   5.593   7.547   1.178
42172SOL    HW128355   5.646   7.521   1.104
42172SOL    HW228356   5.647   7.609   1.227
42173SOL     OW28357   6.098   2.102   9.463
42173SOL    HW128358   6.149   2.182   9.474
42173SOL    HW228359   6.101   2.084   9.369
42174SOL     OW28360  13.271  13.037   0.343
42174SOL    HW128361  13.290  13.042   0.249
42174SOL    HW228362  13.182  13.004   0.348
42175SOL     OW28363   7.496  11.094  12.912
42175SOL    HW128364   7.558  11.029  12.945
42175SOL    HW228365   7.504  11.088  12.816
42176SOL     OW28366   6.249  10.420  13.683
42176SOL    HW128367   6.200  10.364  13.623
42176SOL    HW228368   6.296  10.481  13.626
42177SOL     OW28369   2.906  12.257   6.759
42177SOL    HW128370   2.846  12.241   6.832
42177SOL    HW228371   2.988  12.217   6.786
42178SOL     OW28372   9.191   4.013   9.370
42178SOL    HW128373   9.189   3.919   9.389
42178SOL    HW228374   9.202   4.018   9.275
42179SOL     OW28375   1.718  10.098   3.038
42179SOL    HW128376   1.625  10.092   3.059
42179SOL    HW228377   1.731  10.035   2.967
42180SOL     OW28378   7.235  14.631   7.307
42180SOL    HW128379   7.213  14.602   7.218
42180SOL    HW228380   7.296  14.565   7.339
42181SOL     OW28381   6.102   8.044   0.817
42181SOL    HW128382   6.088   8.054   0.911
42181SOL    HW228383   6.020   8.075   0.777
42182SOL     OW28384   4.238  10.844  10.647
42182SOL    HW128385   4.313  10.840  10.588
42182SOL    HW228386   4.221  10.753  10.672
42183SOL     OW28387   7.348  12.537  11.825
42183SOL    HW128388   7.402  12.536  11.746
42183SOL    HW228389   7.411  12.527  11.896
42184SOL     OW28390   1.243   2.225  13.911
42184SOL    HW128391   1.294   2.303  13.888
42184SOL    HW228392   1.303   2.171  13.962
42185SOL     OW28393   9.035   9.771  13.170
42185SOL    HW128394   8.977   9.776  13.246
42185SOL    HW228395   9.037   9.861  13.136
42186SOL     OW28396   1.035   5.651   4.887
42186SOL    HW128397   1.052   5.560   4.865
42186SOL    HW228398   1.070   5.701   4.813
42187SOL     OW28399   2.483   9.412  12.084
42187SOL    HW128400   2.489   9.488  12.027
42187SOL    HW228401   2.573   9.380  12.092
42188SOL     OW28402   8.241  11.748   0.566
42188SOL    HW128403   8.160  11.771   0.519
42188SOL    HW228404   8.308  11.746   0.498
42189SOL     OW28405   3.483  12.555   9.060
42189SOL    HW128406   3.412  12.512   9.013
42189SOL    HW228407   3.509  12.628   9.005
42190SOL     OW28408   5.688   9.019   3.969
42190SOL    HW128409   5.661   9.092   4.025
42190SOL    HW228410   5.769   9.049   3.928
42191SOL     OW28411  14.356   4.094  11.832
42191SOL    HW128412  14.386   4.182  11.813
42191SOL    HW228413  14.417   4.062  11.899
42192SOL     OW28414   7.410   4.233   2.774
42192SOL    HW128415   7.391   4.212   2.682
42192SOL    HW228416   7.486   4.179   2.796
42193SOL     OW28417  13.669  13.890  12.261
42193SOL    HW128418  13.676  13.882  12.166
42193SOL    HW228419  13.580  13.924  12.276
42194SOL     OW28420  11.849  10.888   4.748
42194SOL    HW128421  11.761  10.895   4.785
42194SOL    HW228422  11.888  10.813   4.794
42195SOL     OW28423   6.303   2.201   9.718
42195SOL    HW128424   6.280   2.294   9.720
42195SOL    HW228425   6.393   2.200   9.686
42196SOL     OW28426   1.246   9.462  10.376
42196SOL    HW128427   1.233   9.378  10.420
42196SOL    HW228428   1.282   9.520  10.443
42197SOL     OW28429   9.851   7.135  14.422
42197SOL    HW128430   9.945   7.120  14.421
42197SOL    HW228431   9.812   7.047  14.413
42198SOL     OW28432  11.162  10.745   3.758
42198SOL    HW128433  11.185  10.678   3.694
42198SOL    HW228434  11.082  10.712   3.799
42199SOL     OW28435   0.584   7.494  12.328
42199SOL    HW128436   0.657   7.443  12.292
42199SOL    HW228437   0.527   7.511  12.254
42200SOL     OW28438   9.182  12.498  11.472
42200SOL    HW128439   9.270  12.484  11.437
42200SOL    HW228440   9.139  12.555  11.408
42201SOL     OW28441  12.750  13.581   3.699
42201SOL    HW128442  12.763  13.529   3.620
42201SOL    HW228443  12.829  13.565   3.752
42202SOL     OW28444   7.834   6.915   7.965
42202SOL    HW128445   7.746   6.905   8.001
42202SOL    HW228446   7.891   6.915   8.042
42203SOL     OW28447   1.375   9.087   9.028
42203SOL    HW128448   1.337   9.037   8.956
42203SOL    HW228449   1.451   9.035   9.056
42204SOL     OW28450   3.008   9.244   7.566
42204SOL    HW128451   2.921   9.219   7.533
42204SOL    HW228452   3.000   9.240   7.661
42205SOL     OW28453  10.508   2.672  11.530
42205SOL    HW128454  10.539   2.755  11.495
42205SOL    HW228455  10.552   2.606  11.477
42206SOL     OW28456   4.584   1.766   9.791
42206SOL    HW128457   4.515   1.804   9.736
42206SOL    HW228458   4.536   1.729   9.866
42207SOL     OW28459  11.585  13.758   7.235
42207SOL    HW128460  11.604  13.731   7.146
42207SOL    HW228461  11.516  13.699   7.265
42208SOL     OW28462   2.783   5.324  12.458
42208SOL    HW128463   2.692   5.326  12.430
42208SOL    HW228464   2.825   5.394  12.408
42209SOL     OW28465   8.116   5.406   0.188
42209SOL    HW128466   8.175   5.368   0.123
42209SOL    HW228467   8.173   5.432   0.260
42210SOL     OW28468  13.889  14.635   8.700
42210SOL    HW128469  13.887  14.730   8.714
42210SOL    HW228470  13.801  14.605   8.722
42211SOL     OW28471   1.716  10.648  13.694
42211SOL    HW128472   1.789  10.679  13.748
42211SOL    HW228473   1.734  10.555  13.682
42212SOL     OW28474  11.392   6.407   6.365
42212SOL    HW128475  11.463   6.466   6.391
42212SOL    HW228476  11.318   6.465   6.347
42213SOL     OW28477   6.518   0.857   5.482
42213SOL    HW128478   6.439   0.877   5.532
42213SOL    HW228479   6.559   0.942   5.466
42214SOL     OW28480   8.823   3.369  12.817
42214SOL    HW128481   8.862   3.283  12.802
42214SOL    HW228482   8.892   3.431  12.796
42215SOL     OW28483   7.622   7.682   8.622
42215SOL    HW128484   7.714   7.664   8.640
42215SOL    HW228485   7.575   7.617   8.674
42216SOL     OW28486   0.132   1.479  11.519
42216SOL    HW128487   0.054   1.426  11.532
42216SOL    HW228488   0.205   1.421  11.541
42217SOL     OW28489  13.786  13.369   7.655
42217SOL    HW128490  13.826  13.424   7.722
42217SOL    HW228491  13.775  13.427   7.579
42218SOL     OW28492   9.665   7.178  12.360
42218SOL    HW128493   9.660   7.214  12.449
42218SOL    HW228494   9.734   7.111  12.365
42219SOL     OW28495   7.719   8.591   4.340
42219SOL    HW128496   7.682   8.678   4.348
42219SOL    HW228497   7.662   8.535   4.393
42220SOL     OW28498  14.257   3.329   2.244
42220SOL    HW128499  14.246   3.399   2.308
42220SOL    HW228500  14.278   3.374   2.162
42221SOL     OW28501   0.108   7.029   8.578
42221SOL    HW128502   0.174   7.087   8.540
42221SOL    HW228503   0.087   6.967   8.508
42222SOL     OW28504  12.609  11.102   5.896
42222SOL    HW128505  12.626  11.011   5.870
42222SOL    HW228506  12.560  11.139   5.823
42223SOL     OW28507   0.028  12.468   5.912
42223SOL    HW128508   0.042  12.452   5.819
42223SOL    HW228509  14.819  12.499   5.918
42224SOL     OW28510  10.327   8.330   9.622
42224SOL    HW128511  10.361   8.356   9.536
42224SOL    HW228512  10.372   8.387   9.684
42225SOL     OW28513   3.148  14.509   8.758
42225SOL    HW128514   3.079  14.482   8.819
42225SOL    HW228515   3.179  14.427   8.719
42226SOL     OW28516  13.783  10.126  11.954
42226SOL    HW128517  13.711  10.157  11.899
42226SOL    HW228518  13.762  10.158  12.042
42227SOL     OW28519   5.156  14.306   8.068
42227SOL    HW128520   5.090  14.365   8.105
42227SOL    HW228521   5.215  14.287   8.142
42228SOL     OW28522  12.597   0.807   0.954
42228SOL    HW128523  12.600   0.721   0.913
42228SOL    HW228524  12.685   0.842   0.943
42229SOL     OW28525   4.251   3.801   8.225
42229SOL    HW128526   4.241   3.800   8.130
42229SOL    HW228527   4.310   3.727   8.243
42230SOL     OW28528   2.418  14.212   9.250
42230SOL    HW128529   2.481  14.142   9.269
42230SOL    HW228530   2.380  14.233   9.336
42231SOL     OW28531   7.534   4.786   6.525
42231SOL    HW128532   7.541   4.836   6.443
42231SOL    HW228533   7.485   4.707   6.501
42232SOL     OW28534   6.245   3.366   9.903
42232SOL    HW128535   6.276   3.420   9.830
42232SOL    HW228536   6.149   3.372   9.897
42233SOL     OW28537   9.972   2.209  13.296
42233SOL    HW128538  10.048   2.191  13.351
42233SOL    HW228539  10.009   2.224  13.208
42234SOL     OW28540  14.768   0.955   3.679
42234SOL    HW128541  14.768   1.049   3.659
42234SOL    HW228542  14.860   0.933   3.693
42235SOL     OW28543  13.496  13.412   0.828
42235SOL    HW128544  13.448  13.493   0.843
42235SOL    HW228545  13.447  13.346   0.877
42236SOL     OW28546   0.996  11.395   0.103
42236SOL    HW128547   0.920  11.445   0.135
42236SOL    HW228548   0.971  11.303   0.115
42237SOL     OW28549   4.420   1.528   2.838
42237SOL    HW128550   4.458   1.528   2.926
42237SOL    HW228551   4.328   1.554   2.852
42238SOL     OW28552   6.225   7.003   4.672
42238SOL    HW128553   6.301   7.025   4.727
42238SOL    HW228554   6.227   7.068   4.602
42239SOL     OW28555  11.586  14.717  14.069
42239SOL    HW128556  11.571  14.635  14.021
42239SOL    HW228557  11.506  14.767  14.055
42240SOL     OW28558  14.542   9.715   8.445
42240SOL    HW128559  14.546   9.765   8.526
42240SOL    HW228560  14.451   9.724   8.415
42241SOL     OW28561   6.890  13.478   1.778
42241SOL    HW128562   6.827  13.549   1.770
42241SOL    HW228563   6.926  13.466   1.690
42242SOL     OW28564   4.221   4.289   2.749
42242SOL    HW128565   4.308   4.319   2.776
42242SOL    HW228566   4.190   4.358   2.690
42243SOL     OW28567   2.321  12.128   8.172
42243SOL    HW128568   2.279  12.084   8.246
42243SOL    HW228569   2.256  12.191   8.141
42244SOL     OW28570   1.416   5.771   5.800
42244SOL    HW128571   1.399   5.849   5.747
42244SOL    HW228572   1.385   5.795   5.887
42245SOL     OW28573  12.017   2.767  14.379
42245SOL    HW128574  12.029   2.705  14.451
42245SOL    HW228575  12.106   2.794  14.356
42246SOL     OW28576   7.345   4.735   0.598
42246SOL    HW128577   7.399   4.657   0.585
42246SOL    HW228578   7.281   4.709   0.664
42247SOL     OW28579  13.200   9.459   1.029
42247SOL    HW128580  13.156   9.516   1.092
42247SOL    HW228581  13.132   9.436   0.966
42248SOL     OW28582   6.113  12.896  11.899
42248SOL    HW128583   6.137  12.838  11.827
42248SOL    HW228584   6.022  12.872  11.919
42249SOL     OW28585  14.405   7.527   6.282
42249SOL    HW128586  14.499   7.518   6.268
42249SOL    HW228587  14.397   7.598   6.346
42250SOL     OW28588   8.003   1.697   9.234
42250SOL    HW128589   8.035   1.710   9.323
42250SOL    HW228590   7.960   1.779   9.211
42251SOL     OW28591   8.570  10.972  13.311
42251SOL    HW128592   8.572  11.033  13.385
42251SOL    HW228593   8.553  10.887  13.351
42252SOL     OW28594  10.400   2.219   1.710
42252SOL    HW128595  10.468   2.226   1.643
42252SOL    HW228596  10.326   2.268   1.675
42253SOL     OW28597   2.048   1.321   5.791
42253SOL    HW128598   2.104   1.399   5.794
42253SOL    HW228599   2.108   1.248   5.805
42254SOL     OW28600   5.536  14.275   0.135
42254SOL    HW128601   5.572  14.340   0.196
42254SOL    HW228602   5.583  14.290   0.054
42255SOL     OW28603  12.852   0.740  11.767
42255SOL    HW128604  12.798   0.725  11.844
42255SOL    HW228605  12.941   0.753  11.801
42256SOL     OW28606  13.768   1.965   1.352
42256SOL    HW128607  13.767   2.035   1.417
42256SOL    HW228608  13.856   1.967   1.315
42257SOL     OW28609   2.845   8.900   8.092
42257SOL    HW128610   2.754   8.869   8.089
42257SOL    HW228611   2.882   8.874   8.007
42258SOL     OW28612  13.867  14.321   3.905
42258SOL    HW128613  13.939  14.365   3.950
42258SOL    HW228614  13.900  14.234   3.886
42259SOL     OW28615   1.860   8.080   7.365
42259SOL    HW128616   1.935   8.125   7.404
42259SOL    HW228617   1.894   7.994   7.340
42260SOL     OW28618  10.904   4.517   5.561
42260SOL    HW128619  10.941   4.554   5.481
42260SOL    HW228620  10.829   4.466   5.532
42261SOL     OW28621   3.350  10.872   8.206
42261SOL    HW128622   3.439  10.836   8.217
42261SOL    HW228623   3.298  10.797   8.178
42262SOL     OW28624  11.684  13.921   2.510
42262SOL    HW128625  11.756  13.952   2.565
42262SOL    HW228626  11.656  13.839   2.552
42263SOL     OW28627   9.875   8.907  12.455
42263SOL    HW128628   9.850   8.991  12.494
42263SOL    HW228629   9.822   8.842  12.502
42264SOL     OW28630   7.831   7.495  14.283
42264SOL    HW128631   7.884   7.489  14.203
42264SOL    HW228632   7.740   7.488  14.253
42265SOL     OW28633   0.796  13.569  11.244
42265SOL    HW128634   0.762  13.589  11.157
42265SOL    HW228635   0.737  13.616  11.304
42266SOL     OW28636  12.533   5.591   7.282
42266SOL    HW128637  12.457   5.646   7.303
42266SOL    HW228638  12.551   5.542   7.362
42267SOL     OW28639   6.216  14.393   2.219
42267SOL    HW128640   6.195  14.382   2.312
42267SOL    HW228641   6.143  14.443   2.183
42268SOL     OW28642  13.479  13.172  13.026
42268SOL    HW128643  13.429  13.110  12.973
42268SOL    HW228644  13.460  13.147  13.117
42269SOL     OW28645   2.428   2.985   5.547
42269SOL    HW128646   2.347   2.935   5.531
42269SOL    HW228647   2.485   2.923   5.593
42270SOL     OW28648  13.011   7.910   0.587
42270SOL    HW128649  12.942   7.866   0.537
42270SOL    HW228650  13.055   7.840   0.634
42271SOL     OW28651  11.874   7.549   5.616
42271SOL    HW128652  11.835   7.475   5.662
42271SOL    HW228653  11.947   7.511   5.567
42272SOL     OW28654   4.597   7.170   0.794
42272SOL    HW128655   4.672   7.112   0.782
42272SOL    HW228656   4.556   7.139   0.875
42273SOL     OW28657   3.743   2.536   0.265
42273SOL    HW128658   3.683   2.461   0.264
42273SOL    HW228659   3.704   2.597   0.328
42274SOL     OW28660   1.772   5.422   9.634
42274SOL    HW128661   1.789   5.414   9.540
42274SOL    HW228662   1.684   5.387   9.646
42275SOL     OW28663   9.891  11.384  13.830
42275SOL    HW128664   9.924  11.295  13.824
42275SOL    HW228665   9.839  11.386  13.911
42276SOL     OW28666   5.458   6.805   8.594
42276SOL    HW128667   5.489   6.715   8.588
42276SOL    HW228668   5.369   6.798   8.628
42277SOL     OW28669   6.870   6.732   7.732
42277SOL    HW128670   6.940   6.795   7.751
42277SOL    HW228671   6.856   6.739   7.638
42278SOL     OW28672   5.619   4.979   6.332
42278SOL    HW128673   5.673   5.003   6.257
42278SOL    HW228674   5.682   4.962   6.402
42279SOL     OW28675   2.140   3.796   0.178
42279SOL    HW128676   2.047   3.807   0.158
42279SOL    HW228677   2.180   3.879   0.152
42280SOL     OW28678   8.467   4.589   7.791
42280SOL    HW128679   8.549   4.631   7.815
42280SOL    HW228680   8.491   4.526   7.723
42281SOL     OW28681   1.613   1.068   3.015
42281SOL    HW128682   1.690   1.012   3.005
42281SOL    HW228683   1.648   1.157   3.016
42282SOL     OW28684  14.784   7.229   8.056
42282SOL    HW128685  14.763   7.321   8.070
42282SOL    HW228686  14.700   7.184   8.061
42283SOL     OW28687  11.113   9.825   4.792
42283SOL    HW128688  11.076   9.790   4.872
42283SOL    HW228689  11.193   9.870   4.820
42284SOL     OW28690   0.552   4.955   7.554
42284SOL    HW128691   0.583   4.929   7.467
42284SOL    HW228692   0.610   5.026   7.580
42285SOL     OW28693   3.279   7.762   4.058
42285SOL    HW128694   3.339   7.780   3.985
42285SOL    HW228695   3.192   7.766   4.019
42286SOL     OW28696  13.096   8.627  10.743
42286SOL    HW128697  13.097   8.676  10.661
42286SOL    HW228698  13.014   8.654  10.786
42287SOL     OW28699   1.741   3.306   1.578
42287SOL    HW128700   1.786   3.363   1.516
42287SOL    HW228701   1.721   3.227   1.527
42288SOL     OW28702   7.944  12.694   1.825
42288SOL    HW128703   7.986  12.758   1.882
42288SOL    HW228704   7.851  12.712   1.831
42289SOL     OW28705   5.438   3.498   3.109
42289SOL    HW128706   5.375   3.432   3.080
42289SOL    HW228707   5.491   3.453   3.174
42290SOL     OW28708  11.976  12.138  13.111
42290SOL    HW128709  12.040  12.088  13.163
42290SOL    HW228710  11.935  12.197  13.174
42291SOL     OW28711   5.672   4.558   2.139
42291SOL    HW128712   5.734   4.608   2.086
42291SOL    HW228713   5.622   4.625   2.186
42292SOL     OW28714   5.987   5.330  12.267
42292SOL    HW128715   6.007   5.237  12.276
42292SOL    HW228716   6.043   5.359  12.195
42293SOL     OW28717   7.127   6.775   8.011
42293SOL    HW128718   7.120   6.756   7.918
42293SOL    HW228719   7.135   6.689   8.053
42294SOL     OW28720  11.516  14.869   1.580
42294SOL    HW128721  11.477   0.074   1.583
42294SOL    HW228722  11.547  14.860   1.490
42295SOL     OW28723  13.655  11.127   0.830
42295SOL    HW128724  13.733  11.173   0.799
42295SOL    HW228725  13.647  11.151   0.922
42296SOL     OW28726   4.055   0.248   1.958
42296SOL    HW128727   3.965   0.272   1.983
42296SOL    HW228728   4.105   0.329   1.972
42297SOL     OW28729   8.951   5.032   0.451
42297SOL    HW128730   8.909   5.101   0.399
42297SOL    HW228731   9.032   5.012   0.404
42298SOL     OW28732   2.147  13.314   3.385
42298SOL    HW128733   2.071  13.366   3.412
42298SOL    HW228734   2.217  13.342   3.443
42299SOL     OW28735  10.942  10.531  11.795
42299SOL    HW128736  10.962  10.588  11.721
42299SOL    HW228737  10.975  10.445  11.768
42300SOL     OW28738  12.372   4.481  14.533
42300SOL    HW128739  12.430   4.512  14.463
42300SOL    HW228740  12.291   4.457  14.488
42301SOL     OW28741   6.627   6.579   4.988
42301SOL    HW128742   6.700   6.602   4.930
42301SOL    HW228743   6.664   6.582   5.076
42302SOL     OW28744  12.576  13.021   6.488
42302SOL    HW128745  12.614  12.933   6.483
42302SOL    HW228746  12.611  13.057   6.569
42303SOL     OW28747   5.390  11.206   0.029
42303SOL    HW128748   5.321  11.139   0.031
42303SOL    HW228749   5.471  11.159   0.046
42304SOL     OW28750   9.916   5.964   0.301
42304SOL    HW128751   9.844   5.901   0.295
42304SOL    HW228752   9.873   6.048   0.313
42305SOL     OW28753  12.568   6.504  11.074
42305SOL    HW128754  12.572   6.460  10.989
42305SOL    HW228755  12.627   6.579  11.065
42306SOL     OW28756  10.150   6.923  11.921
42306SOL    HW128757  10.125   6.925  11.828
42306SOL    HW228758  10.066   6.923  11.967
42307SOL     OW28759  11.003  13.565  13.731
42307SOL    HW128760  11.064  13.581  13.658
42307SOL    HW228761  10.922  13.609  13.704
42308SOL     OW28762   2.306   4.779   3.677
42308SOL    HW128763   2.237   4.714   3.660
42308SOL    HW228764   2.380   4.750   3.624
42309SOL     OW28765  13.575  13.009   8.976
42309SOL    HW128766  13.567  13.100   9.003
42309SOL    HW228767  13.517  12.961   9.035
42310SOL     OW28768   7.723  10.737   9.249
42310SOL    HW128769   7.812  10.721   9.279
42310SOL    HW228770   7.667  10.707   9.321
42311SOL     OW28771   6.558  12.973  12.519
42311SOL    HW128772   6.584  12.999  12.607
42311SOL    HW228773   6.616  13.022  12.461
42312SOL     OW28774   3.352  10.926   5.157
42312SOL    HW128775   3.343  10.914   5.063
42312SOL    HW228776   3.311  10.848   5.195
42313SOL     OW28777   3.114  10.403  11.318
42313SOL    HW128778   3.047  10.364  11.262
42313SOL    HW228779   3.110  10.353  11.399
42314SOL     OW28780  12.813  13.405  10.771
42314SOL    HW128781  12.803  13.440  10.859
42314SOL    HW228782  12.857  13.475  10.722
42315SOL     OW28783   7.327   1.999   5.065
42315SOL    HW128784   7.282   1.993   5.149
42315SOL    HW228785   7.264   2.041   5.007
42316SOL     OW28786   7.636   4.673  12.255
42316SOL    HW128787   7.547   4.678  12.220
42316SOL    HW228788   7.681   4.747  12.215
42317SOL     OW28789  14.089   4.276   4.370
42317SOL    HW128790  14.066   4.195   4.414
42317SOL    HW228791  14.025   4.340   4.401
42318SOL     OW28792   0.534  10.753  11.417
42318SOL    HW128793   0.480  10.780  11.342
42318SOL    HW228794   0.471  10.737  11.487
42319SOL     OW28795   2.298   2.112   4.954
42319SOL    HW128796   2.355   2.043   4.987
42319SOL    HW228797   2.338   2.139   4.871
42320SOL     OW28798   6.993  10.454   5.329
42320SOL    HW128799   6.990  10.488   5.419
42320SOL    HW228800   6.920  10.392   5.324
42321SOL     OW28801   6.331   3.663  13.323
42321SOL    HW128802   6.365   3.576  13.347
42321SOL    HW228803   6.404   3.723  13.339
42322SOL     OW28804   8.348  12.189  12.026
42322SOL    HW128805   8.301  12.156  11.950
42322SOL    HW228806   8.438  12.160  12.014
42323SOL     OW28807   7.486   1.663   4.065
42323SOL    HW128808   7.535   1.743   4.086
42323SOL    HW228809   7.425   1.653   4.138
42324SOL     OW28810  14.585   0.422   7.457
42324SOL    HW128811  14.491   0.403   7.452
42324SOL    HW228812  14.611   0.435   7.366
42325SOL     OW28813   1.169   7.043   6.003
42325SOL    HW128814   1.197   7.127   6.041
42325SOL    HW228815   1.187   7.051   5.910
42326SOL     OW28816  12.745   4.941   8.514
42326SOL    HW128817  12.655   4.923   8.487
42326SOL    HW228818  12.769   4.868   8.571
42327SOL     OW28819   8.284  11.946   1.407
42327SOL    HW128820   8.261  12.037   1.423
42327SOL    HW228821   8.364  11.950   1.355
42328SOL     OW28822   4.749   0.084  10.411
42328SOL    HW128823   4.835   0.102  10.450
42328SOL    HW228824   4.718   0.170  10.384
42329SOL     OW28825   2.592   3.523  10.484
42329SOL    HW128826   2.570   3.436  10.452
42329SOL    HW228827   2.559   3.525  10.574
42330SOL     OW28828   2.001   7.572   2.603
42330SOL    HW128829   2.079   7.531   2.640
42330SOL    HW228830   2.022   7.585   2.511
42331SOL     OW28831   6.279  11.260  11.024
42331SOL    HW128832   6.222  11.235  11.096
42331SOL    HW228833   6.311  11.177  10.988
42332SOL     OW28834  14.741   5.137   4.667
42332SOL    HW128835  14.762   5.119   4.576
42332SOL    HW228836  14.744   5.233   4.674
42333SOL     OW28837   7.648  11.766  11.123
42333SOL    HW128838   7.657  11.671  11.117
42333SOL    HW228839   7.566  11.785  11.078
42334SOL     OW28840   1.932  10.658   5.947
42334SOL    HW128841   1.862  10.646   6.011
42334SOL    HW228842   1.990  10.583   5.961
42335SOL     OW28843  11.719   2.007   4.867
42335SOL    HW128844  11.750   1.921   4.893
42335SOL    HW228845  11.655   2.031   4.934
42336SOL     OW28846   4.106   5.888   7.121
42336SOL    HW128847   4.054   5.866   7.044
42336SOL    HW228848   4.041   5.897   7.191
42337SOL     OW28849  12.613   3.068   0.821
42337SOL    HW128850  12.577   3.088   0.908
42337SOL    HW228851  12.553   3.109   0.760
42338SOL     OW28852   1.918  13.066   7.657
42338SOL    HW128853   2.011  13.085   7.656
42338SOL    HW228854   1.910  12.980   7.617
42339SOL     OW28855   2.946  12.347   7.919
42339SOL    HW128856   2.974  12.271   7.868
42339SOL    HW228857   2.900  12.402   7.855
42340SOL     OW28858   8.964   3.113   2.775
42340SOL    HW128859   8.947   3.091   2.866
42340SOL    HW228860   9.003   3.200   2.777
42341SOL     OW28861  13.795  13.535   2.514
42341SOL    HW128862  13.824  13.601   2.577
42341SOL    HW228863  13.818  13.451   2.555
42342SOL     OW28864   0.155  11.810   4.865
42342SOL    HW128865   0.192  11.868   4.798
42342SOL    HW228866   0.228  11.791   4.923
42343SOL     OW28867  11.636   9.321   9.437
42343SOL    HW128868  11.608   9.229   9.442
42343SOL    HW228869  11.568   9.369   9.484
42344SOL     OW28870   7.991   7.253   0.762
42344SOL    HW128871   8.038   7.315   0.705
42344SOL    HW228872   8.053   7.234   0.833
42345SOL     OW28873   2.866   9.493   5.242
42345SOL    HW128874   2.913   9.525   5.319
42345SOL    HW228875   2.774   9.514   5.260
42346SOL     OW28876   9.820   5.065   2.145
42346SOL    HW128877   9.727   5.077   2.130
42346SOL    HW228878   9.835   5.094   2.235
42347SOL     OW28879   1.263  14.061   5.189
42347SOL    HW128880   1.355  14.085   5.182
42347SOL    HW228881   1.215  14.143   5.180
42348SOL     OW28882   6.950  13.697  11.098
42348SOL    HW128883   6.858  13.709  11.120
42348SOL    HW228884   6.955  13.612  11.056
42349SOL     OW28885   4.496   2.853  13.291
42349SOL    HW128886   4.418   2.841  13.344
42349SOL    HW228887   4.501   2.773  13.237
42350SOL     OW28888   8.628   6.702   9.966
42350SOL    HW128889   8.632   6.652   9.884
42350SOL    HW228890   8.603   6.638  10.032
42351SOL     OW28891   7.330   1.936   5.389
42351SOL    HW128892   7.358   1.899   5.472
42351SOL    HW228893   7.369   2.023   5.387
42352SOL     OW28894  10.500   9.186  11.968
42352SOL    HW128895  10.411   9.156  11.948
42352SOL    HW228896  10.500   9.199  12.062
42353SOL     OW28897  11.753   2.194  13.305
42353SOL    HW128898  11.744   2.213  13.211
42353SOL    HW228899  11.694   2.119  13.320
42354SOL     OW28900   9.056   1.307   7.181
42354SOL    HW128901   9.020   1.340   7.099
42354SOL    HW228902   9.063   1.213   7.168
42355SOL     OW28903  13.598   1.516   3.414
42355SOL    HW128904  13.603   1.543   3.506
42355SOL    HW228905  13.625   1.425   3.414
42356SOL     OW28906  10.520   6.531  13.080
42356SOL    HW128907  10.516   6.475  13.158
42356SOL    HW228908  10.518   6.620  13.115
42357SOL     OW28909  10.047   0.007  11.597
42357SOL    HW128910  10.131   0.006  11.553
42357SOL    HW228911  10.061  14.840  11.678
42358SOL     OW28912   8.503  10.825  13.920
42358SOL    HW128913   8.515  10.822  14.015
42358SOL    HW228914   8.561  10.756  13.887
42359SOL     OW28915  14.279   9.520   8.481
42359SOL    HW128916  14.306   9.452   8.419
42359SOL    HW228917  14.269   9.599   8.427
42360SOL     OW28918   9.138   8.193   4.784
42360SOL    HW128919   9.088   8.185   4.866
42360SOL    HW228920   9.144   8.287   4.769
42361SOL     OW28921   9.449   6.654   6.672
42361SOL    HW128922   9.509   6.583   6.696
42361SOL    HW228923   9.463   6.721   6.739
42362SOL     OW28924   1.567   9.381   6.442
42362SOL    HW128925   1.502   9.396   6.373
42362SOL    HW228926   1.562   9.459   6.497
42363SOL     OW28927   7.536  14.672  12.560
42363SOL    HW128928   7.487  14.705  12.635
42363SOL    HW228929   7.518  14.578  12.558
42364SOL     OW28930   1.216   5.436   2.537
42364SOL    HW128931   1.129   5.473   2.549
42364SOL    HW228932   1.235   5.446   2.444
42365SOL     OW28933   2.424   0.100   3.666
42365SOL    HW128934   2.493   0.035   3.679
42365SOL    HW228935   2.453   0.176   3.717
42366SOL     OW28936   0.980   8.902  10.394
42366SOL    HW128937   0.900   8.856  10.419
42366SOL    HW228938   0.954   8.959  10.322
42367SOL     OW28939   7.377   4.447   5.148
42367SOL    HW128940   7.405   4.371   5.097
42367SOL    HW228941   7.372   4.518   5.084
42368SOL     OW28942   5.822  11.583  13.946
42368SOL    HW128943   5.845  11.587  13.853
42368SOL    HW228944   5.726  11.580  13.948
42369SOL     OW28945   2.801   2.049  10.147
42369SOL    HW128946   2.789   2.140  10.119
42369SOL    HW228947   2.859   2.012  10.081
42370SOL     OW28948  12.236   3.902   2.915
42370SOL    HW128949  12.326   3.933   2.926
42370SOL    HW228950  12.208   3.879   3.004
42371SOL     OW28951  12.035   6.829   6.422
42371SOL    HW128952  12.061   6.768   6.491
42371SOL    HW228953  12.085   6.801   6.346
42372SOL     OW28954   2.596   9.529   8.871
42372SOL    HW128955   2.675   9.499   8.826
42372SOL    HW228956   2.611   9.507   8.963
42373SOL     OW28957   1.802   3.506   6.112
42373SOL    HW128958   1.774   3.540   6.027
42373SOL    HW228959   1.795   3.581   6.171
42374SOL     OW28960   8.982   4.967   0.744
42374SOL    HW128961   8.993   4.872   0.745
42374SOL    HW228962   8.972   4.989   0.651
42375SOL     OW28963  12.773  11.133   1.907
42375SOL    HW128964  12.867  11.125   1.894
42375SOL    HW228965  12.738  11.144   1.818
42376SOL     OW28966   9.457   7.969  10.057
42376SOL    HW128967   9.501   7.906  10.113
42376SOL    HW228968   9.463   7.931   9.969
42377SOL     OW28969   7.711   4.414  13.852
42377SOL    HW128970   7.754   4.412  13.937
42377SOL    HW228971   7.700   4.507  13.833
42378SOL     OW28972   9.654   9.314  10.645
42378SOL    HW128973   9.658   9.246  10.712
42378SOL    HW228974   9.589   9.282  10.583
42379SOL     OW28975  10.058   6.820   7.985
42379SOL    HW128976  10.034   6.778   8.067
42379SOL    HW228977  10.084   6.748   7.927
42380SOL     OW28978   0.035   7.220  11.246
42380SOL    HW128979   0.049   7.185  11.334
42380SOL    HW228980   0.123   7.229  11.209
42381SOL     OW28981   2.655  12.796   5.709
42381SOL    HW128982   2.566  12.802   5.744
42381SOL    HW228983   2.711  12.799   5.787
42382SOL     OW28984   2.602  13.087   3.183
42382SOL    HW128985   2.511  13.118   3.173
42382SOL    HW228986   2.655  13.162   3.154
42383SOL     OW28987   1.949   5.513   1.969
42383SOL    HW128988   1.904   5.538   2.049
42383SOL    HW228989   2.001   5.436   1.993
42384SOL     OW28990   2.415  13.501  10.144
42384SOL    HW128991   2.405  13.418  10.192
42384SOL    HW228992   2.334  13.508  10.093
42385SOL     OW28993   7.264   0.594  13.070
42385SOL    HW128994   7.302   0.601  12.983
42385SOL    HW228995   7.315   0.526  13.113
42386SOL     OW28996   7.349   6.373   5.189
42386SOL    HW128997   7.406   6.362   5.265
42386SOL    HW228998   7.382   6.451   5.144
42387SOL     OW28999  12.531   8.779  13.493
42387SOL    HW129000  12.596   8.719  13.530
42387SOL    HW229001  12.583   8.849  13.454
42388SOL     OW29002   7.750  14.281   7.153
42388SOL    HW129003   7.833  14.243   7.125
42388SOL    HW229004   7.749  14.270   7.248
42389SOL     OW29005   8.602   5.608   9.089
42389SOL    HW129006   8.520   5.571   9.122
42389SOL    HW229007   8.579   5.698   9.064
42390SOL     OW29008  14.100   5.356  11.335
42390SOL    HW129009  14.164   5.419  11.369
42390SOL    HW229010  14.036   5.346  11.406
42391SOL     OW29011   3.596   9.076   3.707
42391SOL    HW129012   3.517   9.077   3.652
42391SOL    HW229013   3.616   8.983   3.719
42392SOL     OW29014  13.362   7.558   4.452
42392SOL    HW129015  13.349   7.624   4.384
42392SOL    HW229016  13.374   7.608   4.532
42393SOL     OW29017  14.062  10.459   5.896
42393SOL    HW129018  14.121  10.523   5.937
42393SOL    HW229019  14.109  10.376   5.903
42394SOL     OW29020  13.762  11.272   1.284
42394SOL    HW129021  13.730  11.353   1.323
42394SOL    HW229022  13.732  11.203   1.344
42395SOL     OW29023   0.435   2.703  13.232
42395SOL    HW129024   0.449   2.643  13.305
42395SOL    HW229025   0.513   2.695  13.178
42396SOL     OW29026   6.502   7.768   9.784
42396SOL    HW129027   6.449   7.771   9.864
42396SOL    HW229028   6.440   7.782   9.713
42397SOL     OW29029   4.476  11.662   6.862
42397SOL    HW129030   4.555  11.614   6.889
42397SOL    HW229031   4.502  11.706   6.781
42398SOL     OW29032   0.786  12.793   1.465
42398SOL    HW129033   0.705  12.812   1.512
42398SOL    HW229034   0.757  12.756   1.381
42399SOL     OW29035  14.035   8.536  13.007
42399SOL    HW129036  14.065   8.617  13.048
42399SOL    HW229037  14.115   8.484  12.996
42400SOL     OW29038  13.871  10.928  10.078
42400SOL    HW129039  13.922  10.986  10.135
42400SOL    HW229040  13.826  10.868  10.137
42401SOL     OW29041   6.419   6.599   1.661
42401SOL    HW129042   6.326   6.600   1.638
42401SOL    HW229043   6.420   6.592   1.756
42402SOL     OW29044   4.180  11.654  10.548
42402SOL    HW129045   4.245  11.720  10.522
42402SOL    HW229046   4.190  11.584  10.484
42403SOL     OW29047   2.967  13.815   1.528
42403SOL    HW129048   2.897  13.761   1.492
42403SOL    HW229049   2.932  13.904   1.528
42404SOL     OW29050  10.314   2.999   7.974
42404SOL    HW129051  10.258   2.950   7.914
42404SOL    HW229052  10.399   2.955   7.970
42405SOL     OW29053  13.193   3.935   9.340
42405SOL    HW129054  13.248   3.857   9.337
42405SOL    HW229055  13.137   3.921   9.416
42406SOL     OW29056   9.941   3.049  14.656
42406SOL    HW129057  10.001   2.998  14.709
42406SOL    HW229058   9.890   2.984  14.607
42407SOL     OW29059   5.341   9.532   7.236
42407SOL    HW129060   5.280   9.505   7.304
42407SOL    HW229061   5.427   9.530   7.280
42408SOL     OW29062   7.531   0.449   1.940
42408SOL    HW129063   7.618   0.487   1.925
42408SOL    HW229064   7.500   0.490   2.020
42409SOL     OW29065  14.566   0.659   0.728
42409SOL    HW129066  14.533   0.575   0.696
42409SOL    HW229067  14.489   0.715   0.732
42410SOL     OW29068   1.468   1.490  10.520
42410SOL    HW129069   1.525   1.448  10.456
42410SOL    HW229070   1.395   1.429  10.531
42411SOL     OW29071   5.407   3.367   9.112
42411SOL    HW129072   5.405   3.356   9.208
42411SOL    HW229073   5.370   3.455   9.098
42412SOL     OW29074  10.370   3.590   0.960
42412SOL    HW129075  10.415   3.659   1.009
42412SOL    HW229076  10.324   3.539   1.026
42413SOL     OW29077   9.130   2.872  11.874
42413SOL    HW129078   9.118   2.928  11.797
42413SOL    HW229079   9.206   2.909  11.919
42414SOL     OW29080  12.637  10.822   3.883
42414SOL    HW129081  12.615  10.781   3.799
42414SOL    HW229082  12.725  10.857   3.871
42415SOL     OW29083  10.765   5.006  11.269
42415SOL    HW129084  10.804   4.985  11.354
42415SOL    HW229085  10.730   5.095  11.280
42416SOL     OW29086   4.924   2.285   5.389
42416SOL    HW129087   5.005   2.308   5.435
42416SOL    HW229088   4.931   2.191   5.373
42417SOL     OW29089  13.703   5.327  10.835
42417SOL    HW129090  13.703   5.245  10.884
42417SOL    HW229091  13.783   5.371  10.862
42418SOL     OW29092   5.764  11.571  10.281
42418SOL    HW129093   5.779  11.482  10.249
42418SOL    HW229094   5.693  11.605  10.226
42419SOL     OW29095   1.083  11.439   3.887
42419SOL    HW129096   1.154  11.390   3.847
42419SOL    HW229097   1.115  11.460   3.975
42420SOL     OW29098  14.002   4.184   3.178
42420SOL    HW129099  14.022   4.177   3.085
42420SOL    HW229100  13.957   4.102   3.199
42421SOL     OW29101  11.150   0.784   3.200
42421SOL    HW129102  11.154   0.717   3.131
42421SOL    HW229103  11.238   0.784   3.238
42422SOL     OW29104   5.436   2.745   4.625
42422SOL    HW129105   5.499   2.706   4.564
42422SOL    HW229106   5.455   2.839   4.621
42423SOL     OW29107   6.137  10.921   9.687
42423SOL    HW129108   6.083  10.879   9.754
42423SOL    HW229109   6.160  10.850   9.626
42424SOL     OW29110   8.832   2.199   3.590
42424SOL    HW129111   8.906   2.201   3.530
42424SOL    HW229112   8.818   2.290   3.614
42425SOL     OW29113  12.495   4.523   7.661
42425SOL    HW129114  12.424   4.473   7.702
42425SOL    HW229115  12.509   4.480   7.577
42426SOL     OW29116   7.848   5.488   2.181
42426SOL    HW129117   7.861   5.397   2.207
42426SOL    HW229118   7.932   5.531   2.200
42427SOL     OW29119   1.225   4.484   7.847
42427SOL    HW129120   1.145   4.467   7.897
42427SOL    HW229121   1.253   4.571   7.875
42428SOL     OW29122  12.443   8.867   0.025
42428SOL    HW129123  12.419   8.795  14.849
42428SOL    HW229124  12.470   8.938  14.848
42429SOL     OW29125   0.721   9.716  13.850
42429SOL    HW129126   0.721   9.742  13.942
42429SOL    HW229127   0.749   9.795  13.803
42430SOL     OW29128   8.624  12.525   2.330
42430SOL    HW129129   8.682  12.481   2.392
42430SOL    HW229130   8.682  12.577   2.274
42431SOL     OW29131   5.253   0.063  11.452
42431SOL    HW129132   5.236   0.034  11.542
42431SOL    HW229133   5.348   0.071  11.447
42432SOL     OW29134   9.529   9.307   9.391
42432SOL    HW129135   9.500   9.322   9.481
42432SOL    HW229136   9.555   9.214   9.390
42433SOL     OW29137  12.460   4.372   4.716
42433SOL    HW129138  12.392   4.402   4.657
42433SOL    HW229139  12.416   4.363   4.801
42434SOL     OW29140  10.607   7.891  13.925
42434SOL    HW129141  10.687   7.877  13.977
42434SOL    HW229142  10.637   7.890  13.834
42435SOL     OW29143  10.078   1.487  12.593
42435SOL    HW129144  10.104   1.409  12.545
42435SOL    HW229145  10.154   1.507  12.648
42436SOL     OW29146   4.247   0.421   6.370
42436SOL    HW129147   4.199   0.499   6.341
42436SOL    HW229148   4.211   0.350   6.317
42437SOL     OW29149  12.921   7.339  12.980
42437SOL    HW129150  12.857   7.404  13.009
42437SOL    HW229151  12.892   7.315  12.892
42438SOL     OW29152   4.491   8.233   8.567
42438SOL    HW129153   4.494   8.222   8.662
42438SOL    HW229154   4.429   8.305   8.553
42439SOL     OW29155   6.207  11.604   8.003
42439SOL    HW129156   6.169  11.636   7.921
42439SOL    HW229157   6.257  11.679   8.037
42440SOL     OW29158   1.813  14.779   4.573
42440SOL    HW129159   1.863  14.732   4.640
42440SOL    HW229160   1.744  14.718   4.547
42441SOL     OW29161  11.541   9.268   3.932
42441SOL    HW129162  11.471   9.332   3.948
42441SOL    HW229163  11.497   9.194   3.891
42442SOL     OW29164   6.094   7.574   2.278
42442SOL    HW129165   6.047   7.654   2.254
42442SOL    HW229166   6.187   7.597   2.266
42443SOL     OW29167   6.117   7.952   9.540
42443SOL    HW129168   6.077   7.865   9.550
42443SOL    HW229169   6.053   8.002   9.489
42444SOL     OW29170   4.622   8.932  14.623
42444SOL    HW129171   4.577   8.858  14.582
42444SOL    HW229172   4.713   8.904  14.630
42445SOL     OW29173  14.200   9.700  12.910
42445SOL    HW129174  14.273   9.727  12.966
42445SOL    HW229175  14.122   9.724  12.961
42446SOL     OW29176  11.110   8.867   9.364
42446SOL    HW129177  11.043   8.915   9.317
42446SOL    HW229178  11.077   8.862   9.454
42447SOL     OW29179   6.947   7.440  10.568
42447SOL    HW129180   6.897   7.462  10.647
42447SOL    HW229181   6.961   7.346  10.575
42448SOL     OW29182   6.800   2.015   9.716
42448SOL    HW129183   6.710   1.982   9.712
42448SOL    HW229184   6.839   1.971   9.791
42449SOL     OW29185   1.248   7.060  13.222
42449SOL    HW129186   1.166   7.062  13.271
42449SOL    HW229187   1.305   7.123  13.266
42450SOL     OW29188   6.408  10.613   7.863
42450SOL    HW129189   6.460  10.543   7.903
42450SOL    HW229190   6.434  10.612   7.771
42451SOL     OW29191  12.147   7.873   4.828
42451SOL    HW129192  12.183   7.896   4.914
42451SOL    HW229193  12.155   7.778   4.823
42452SOL     OW29194   5.135   0.777  13.018
42452SOL    HW129195   5.176   0.691  13.017
42452SOL    HW229196   5.200   0.834  13.058
42453SOL     OW29197  12.112  12.920  10.708
42453SOL    HW129198  12.141  12.850  10.766
42453SOL    HW229199  12.021  12.899  10.688
42454SOL     OW29200   1.371   7.608   6.943
42454SOL    HW129201   1.309   7.591   6.872
42454SOL    HW229202   1.316   7.625   7.019
42455SOL     OW29203   4.722   0.768   5.920
42455SOL    HW129204   4.650   0.787   5.980
42455SOL    HW229205   4.684   0.710   5.855
42456SOL     OW29206   2.662   8.536   5.614
42456SOL    HW129207   2.633   8.563   5.527
42456SOL    HW229208   2.680   8.443   5.607
42457SOL     OW29209   3.913  13.952  10.337
42457SOL    HW129210   3.839  13.899  10.308
42457SOL    HW229211   3.898  13.966  10.431
42458SOL     OW29212   2.794   2.203   0.640
42458SOL    HW129213   2.837   2.239   0.563
42458SOL    HW229214   2.706   2.242   0.638
42459SOL     OW29215   9.981   5.538   2.952
42459SOL    HW129216  10.036   5.549   2.874
42459SOL    HW229217   9.892   5.532   2.918
42460SOL     OW29218   8.515   4.780  12.163
42460SOL    HW129219   8.551   4.776  12.074
42460SOL    HW229220   8.591   4.798  12.218
42461SOL     OW29221  14.060   7.181   9.169
42461SOL    HW129222  14.095   7.254   9.221
42461SOL    HW229223  14.110   7.105   9.198
42462SOL     OW29224  12.943   4.952   7.297
42462SOL    HW129225  12.889   4.874   7.309
42462SOL    HW229226  12.907   5.016   7.358
42463SOL     OW29227   5.261  10.426   0.521
42463SOL    HW129228   5.326  10.390   0.460
42463SOL    HW229229   5.178  10.423   0.472
42464SOL     OW29230   7.336   7.345   8.456
42464SOL    HW129231   7.363   7.437   8.454
42464SOL    HW229232   7.293   7.335   8.541
42465SOL     OW29233   5.782   0.966   6.181
42465SOL    HW129234   5.846   1.003   6.120
42465SOL    HW229235   5.706   0.947   6.126
42466SOL     OW29236  12.963   8.985   7.089
42466SOL    HW129237  13.015   9.065   7.095
42466SOL    HW229238  13.004   8.925   7.152
42467SOL     OW29239   2.964  14.335   6.014
42467SOL    HW129240   3.031  14.358   5.949
42467SOL    HW229241   2.904  14.278   5.967
42468SOL     OW29242   9.690   3.633   0.735
42468SOL    HW129243   9.700   3.712   0.682
42468SOL    HW229244   9.725   3.657   0.821
42469SOL     OW29245   4.867   4.130   7.025
42469SOL    HW129246   4.774   4.151   7.020
42469SOL    HW229247   4.874   4.067   7.097
42470SOL     OW29248  12.096  11.420   0.598
42470SOL    HW129249  12.100  11.510   0.567
42470SOL    HW229250  12.002  11.399   0.599
42471SOL     OW29251   0.597   2.860   7.493
42471SOL    HW129252   0.516   2.910   7.499
42471SOL    HW229253   0.614   2.833   7.584
42472SOL     OW29254   5.333   7.807   5.943
42472SOL    HW129255   5.370   7.870   6.006
42472SOL    HW229256   5.263   7.764   5.991
42473SOL     OW29257   0.085   1.285   7.486
42473SOL    HW129258   0.060   1.204   7.532
42473SOL    HW229259   0.039   1.280   7.402
42474SOL     OW29260   0.361   9.373   6.978
42474SOL    HW129261   0.349   9.453   7.029
42474SOL    HW229262   0.421   9.320   7.030
42475SOL     OW29263   2.674   1.021   2.487
42475SOL    HW129264   2.669   1.091   2.552
42475SOL    HW229265   2.768   1.003   2.478
42476SOL     OW29266   3.287   7.617   4.824
42476SOL    HW129267   3.288   7.639   4.917
42476SOL    HW229268   3.216   7.670   4.787
42477SOL     OW29269   2.743  10.586   0.598
42477SOL    HW129270   2.739  10.587   0.503
42477SOL    HW229271   2.751  10.678   0.623
42478SOL     OW29272   9.835  10.645   1.507
42478SOL    HW129273   9.920  10.689   1.515
42478SOL    HW229274   9.855  10.552   1.517
42479SOL     OW29275  12.740   0.944   8.311
42479SOL    HW129276  12.757   0.886   8.236
42479SOL    HW229277  12.827   0.966   8.344
42480SOL     OW29278   6.296  12.277  14.082
42480SOL    HW129279   6.201  12.281  14.070
42480SOL    HW229280   6.332  12.330  14.011
42481SOL     OW29281   8.942   9.280   2.875
42481SOL    HW129282   8.944   9.370   2.841
42481SOL    HW229283   8.909   9.289   2.965
42482SOL     OW29284   9.206   1.017   8.411
42482SOL    HW129285   9.158   0.935   8.398
42482SOL    HW229286   9.138   1.084   8.419
42483SOL     OW29287  14.796  11.344   9.743
42483SOL    HW129288  14.840  11.426   9.719
42483SOL    HW229289  14.734  11.369   9.812
42484SOL     OW29290   5.489  12.367   7.812
42484SOL    HW129291   5.568  12.352   7.761
42484SOL    HW229292   5.518  12.369   7.903
42485SOL     OW29293  14.563  10.659   6.427
42485SOL    HW129294  14.473  10.627   6.414
42485SOL    HW229295  14.568  10.738   6.374
42486SOL     OW29296   1.604   8.365   4.579
42486SOL    HW129297   1.553   8.295   4.539
42486SOL    HW229298   1.632   8.330   4.663
42487SOL     OW29299  12.612  11.719   6.741
42487SOL    HW129300  12.657  11.635   6.746
42487SOL    HW229301  12.522  11.696   6.717
42488SOL     OW29302   2.999   7.415  11.684
42488SOL    HW129303   3.086   7.430  11.646
42488SOL    HW229304   2.952   7.497  11.669
42489SOL     OW29305  14.792   9.980  14.603
42489SOL    HW129306  14.815   9.904  14.657
42489SOL    HW229307  14.861  10.044  14.622
42490SOL     OW29308   1.425  11.025  12.555
42490SOL    HW129309   1.396  11.111  12.587
42490SOL    HW229310   1.508  11.009  12.602
42491SOL     OW29311   2.346   7.670   6.741
42491SOL    HW129312   2.322   7.762   6.739
42491SOL    HW229313   2.273   7.627   6.787
42492SOL     OW29314  12.578   4.676   7.913
42492SOL    HW129315  12.527   4.659   7.833
42492SOL    HW229316  12.584   4.590   7.955
42493SOL     OW29317   3.729  13.104  10.209
42493SOL    HW129318   3.728  13.009  10.206
42493SOL    HW229319   3.648  13.130  10.167
42494SOL     OW29320   9.729   1.116   4.878
42494SOL    HW129321   9.688   1.030   4.881
42494SOL    HW229322   9.815   1.103   4.919
42495SOL     OW29323  13.195   3.828   2.340
42495SOL    HW129324  13.258   3.871   2.398
42495SOL    HW229325  13.209   3.734   2.355
42496SOL     OW29326   0.481   0.314   5.955
42496SOL    HW129327   0.400   0.302   5.905
42496SOL    HW229328   0.545   0.343   5.889
42497SOL     OW29329  14.093  13.584   8.298
42497SOL    HW129330  14.108  13.678   8.292
42497SOL    HW229331  14.009  13.571   8.253
42498SOL     OW29332  14.126   3.801   6.354
42498SOL    HW129333  14.186   3.873   6.331
42498SOL    HW229334  14.183   3.735   6.395
42499SOL     OW29335   9.347  11.014   9.483
42499SOL    HW129336   9.434  11.041   9.454
42499SOL    HW229337   9.296  11.007   9.403
42500SOL     OW29338  13.787  10.971  14.650
42500SOL    HW129339  13.864  11.016  14.613
42500SOL    HW229340  13.814  10.944  14.737
42501SOL     OW29341   4.248  11.078   8.505
42501SOL    HW129342   4.252  10.989   8.471
42501SOL    HW229343   4.189  11.072   8.580
42502SOL     OW29344  14.232  11.773   2.519
42502SOL    HW129345  14.278  11.700   2.562
42502SOL    HW229346  14.200  11.827   2.592
42503SOL     OW29347   7.255   8.380  13.004
42503SOL    HW129348   7.190   8.385  12.934
42503SOL    HW229349   7.327   8.436  12.974
42504SOL     OW29350   9.636   3.422   8.184
42504SOL    HW129351   9.550   3.456   8.160
42504SOL    HW229352   9.680   3.496   8.228
42505SOL     OW29353   2.988   6.915   7.116
42505SOL    HW129354   2.917   6.878   7.064
42505SOL    HW229355   3.021   6.988   7.064
42506SOL     OW29356   2.762   1.162  12.783
42506SOL    HW129357   2.820   1.168  12.707
42506SOL    HW229358   2.685   1.214  12.758
42507SOL     OW29359   8.507   5.420   1.432
42507SOL    HW129360   8.461   5.474   1.367
42507SOL    HW229361   8.504   5.471   1.513
42508SOL     OW29362   3.893   6.279   6.853
42508SOL    HW129363   3.947   6.288   6.932
42508SOL    HW229364   3.949   6.232   6.791
42509SOL     OW29365  13.395   4.021   2.842
42509SOL    HW129366  13.412   4.082   2.771
42509SOL    HW229367  13.461   4.042   2.908
42510SOL     OW29368  13.978   2.609   6.841
42510SOL    HW129369  13.997   2.545   6.772
42510SOL    HW229370  14.057   2.664   6.845
42511SOL     OW29371   4.781   2.814  12.538
42511SOL    HW129372   4.824   2.817  12.623
42511SOL    HW229373   4.689   2.831  12.558
42512SOL     OW29374   3.118  13.921   0.258
42512SOL    HW129375   3.051  13.864   0.297
42512SOL    HW229376   3.194  13.912   0.316
42513SOL     OW29377   2.394  12.152  13.984
42513SOL    HW129378   2.395  12.187  13.895
42513SOL    HW229379   2.475  12.101  13.990
42514SOL     OW29380   6.035   6.865   2.508
42514SOL    HW129381   5.971   6.926   2.547
42514SOL    HW229382   6.084   6.918   2.446
42515SOL     OW29383  10.481   1.919   9.582
42515SOL    HW129384  10.392   1.902   9.552
42515SOL    HW229385  10.504   2.003   9.542
42516SOL     OW29386  11.778   0.714   9.577
42516SOL    HW129387  11.847   0.716   9.511
42516SOL    HW229388  11.777   0.802   9.615
42517SOL     OW29389  10.466  12.325  14.621
42517SOL    HW129390  10.452  12.271  14.699
42517SOL    HW229391  10.379  12.335  14.583
42518SOL     OW29392  10.272   1.107  12.598
42518SOL    HW129393  10.251   1.169  12.527
42518SOL    HW229394  10.205   1.123  12.664
42519SOL     OW29395  12.641  12.836  11.497
42519SOL    HW129396  12.570  12.899  11.485
42519SOL    HW229397  12.719  12.880  11.463
42520SOL     OW29398   0.767  12.632  12.423
42520SOL    HW129399   0.729  12.605  12.339
42520SOL    HW229400   0.844  12.685  12.398
42521SOL     OW29401   8.289  13.661  14.224
42521SOL    HW129402   8.288  13.568  14.203
42521SOL    HW229403   8.382  13.683  14.234
42522SOL     OW29404   8.960   0.936   5.599
42522SOL    HW129405   8.889   0.990   5.564
42522SOL    HW229406   9.039   0.973   5.560
42523SOL     OW29407   6.855  13.319  13.595
42523SOL    HW129408   6.794  13.250  13.571
42523SOL    HW229409   6.905  13.336  13.515
42524SOL     OW29410  12.216  13.640  11.743
42524SOL    HW129411  12.143  13.641  11.805
42524SOL    HW229412  12.279  13.702  11.781
42525SOL     OW29413   0.320   7.146  11.755
42525SOL    HW129414   0.383   7.218  11.754
42525SOL    HW229415   0.301   7.132  11.848
42526SOL     OW29416   9.249   5.852   4.628
42526SOL    HW129417   9.273   5.807   4.709
42526SOL    HW229418   9.167   5.896   4.649
42527SOL     OW29419  11.888  13.374   9.379
42527SOL    HW129420  11.946  13.414   9.314
42527SOL    HW229421  11.856  13.448   9.431
42528SOL     OW29422  12.115  11.401  10.266
42528SOL    HW129423  12.084  11.471  10.322
42528SOL    HW229424  12.208  11.420  10.253
42529SOL     OW29425   5.598   7.264   9.146
42529SOL    HW129426   5.671   7.327   9.143
42529SOL    HW229427   5.529   7.305   9.093
42530SOL     OW29428   9.894   4.958   9.860
42530SOL    HW129429   9.853   5.032   9.814
42530SOL    HW229430   9.839   4.945   9.937
42531SOL     OW29431   2.494   6.161  14.078
42531SOL    HW129432   2.420   6.190  14.024
42531SOL    HW229433   2.484   6.209  14.160
42532SOL     OW29434   3.225   8.553   3.166
42532SOL    HW129435   3.176   8.473   3.184
42532SOL    HW229436   3.162   8.609   3.120
42533SOL     OW29437  10.821   8.253   7.712
42533SOL    HW129438  10.736   8.210   7.715
42533SOL    HW229439  10.884   8.182   7.712
42534SOL     OW29440   7.356  12.048  13.058
42534SOL    HW129441   7.311  12.129  13.037
42534SOL    HW229442   7.415  12.071  13.130
42535SOL     OW29443   7.104   1.034   2.788
42535SOL    HW129444   7.016   1.068   2.771
42535SOL    HW229445   7.161   1.111   2.784
42536SOL     OW29446   3.102   9.994   5.574
42536SOL    HW129447   3.140  10.031   5.653
42536SOL    HW229448   3.174   9.948   5.532
42537SOL     OW29449   7.490  10.486   3.968
42537SOL    HW129450   7.497  10.582   3.971
42537SOL    HW229451   7.529  10.457   4.051
42538SOL     OW29452   1.094   4.594   3.436
42538SOL    HW129453   1.017   4.637   3.399
42538SOL    HW229454   1.057   4.523   3.490
42539SOL     OW29455   4.585   4.122   9.192
42539SOL    HW129456   4.569   4.169   9.274
42539SOL    HW229457   4.565   4.031   9.212
42540SOL     OW29458   1.176   4.096   5.430
42540SOL    HW129459   1.255   4.043   5.430
42540SOL    HW229460   1.111   4.043   5.475
42541SOL     OW29461   3.393  11.151   6.400
42541SOL    HW129462   3.348  11.154   6.315
42541SOL    HW229463   3.484  11.134   6.377
42542SOL     OW29464  11.664  13.288  10.884
42542SOL    HW129465  11.585  13.241  10.856
42542SOL    HW229466  11.649  13.309  10.976
42543SOL     OW29467   7.640   4.478   7.550
42543SOL    HW129468   7.626   4.385   7.534
42543SOL    HW229469   7.576   4.501   7.618
42544SOL     OW29470  11.555  11.389   4.521
42544SOL    HW129471  11.509  11.377   4.605
42544SOL    HW229472  11.512  11.327   4.462
42545SOL     OW29473  12.963   6.526   8.793
42545SOL    HW129474  12.976   6.616   8.824
42545SOL    HW229475  12.952   6.535   8.699
42546SOL     OW29476   5.002   8.147   4.595
42546SOL    HW129477   4.946   8.127   4.670
42546SOL    HW229478   4.989   8.241   4.579
42547SOL     OW29479   4.638  10.434   6.895
42547SOL    HW129480   4.659  10.421   6.802
42547SOL    HW229481   4.712  10.483   6.930
42548SOL     OW29482  13.543   2.324   3.866
42548SOL    HW129483  13.567   2.233   3.848
42548SOL    HW229484  13.484   2.348   3.795
42549SOL     OW29485  13.308   4.068   8.151
42549SOL    HW129486  13.321   3.986   8.104
42549SOL    HW229487  13.376   4.126   8.118
42550SOL     OW29488  11.359  13.632  13.185
42550SOL    HW129489  11.277  13.680  13.171
42550SOL    HW229490  11.336  13.564  13.250
42551SOL     OW29491   4.444  13.762  10.573
42551SOL    HW129492   4.504  13.715  10.515
42551SOL    HW229493   4.472  13.736  10.661
42552SOL     OW29494   4.286   1.965   6.541
42552SOL    HW129495   4.225   2.022   6.587
42552SOL    HW229496   4.333   1.919   6.612
42553SOL     OW29497  14.136  10.159   8.888
42553SOL    HW129498  14.106  10.195   8.971
42553SOL    HW229499  14.160  10.069   8.908
42554SOL     OW29500  13.480   8.494   5.809
42554SOL    HW129501  13.539   8.442   5.754
42554SOL    HW229502  13.393   8.459   5.792
42555SOL     OW29503  10.236  14.208   8.345
42555SOL    HW129504  10.148  14.174   8.328
42555SOL    HW229505  10.231  14.245   8.433
42556SOL     OW29506   8.889   6.469   0.039
42556SOL    HW129507   8.832   6.452  14.845
42556SOL    HW229508   8.920   6.382   0.065
42557SOL     OW29509   0.092   9.747   0.404
42557SOL    HW129510   0.163   9.811   0.399
42557SOL    HW229511   0.052   9.762   0.489
42558SOL     OW29512  13.350   7.585  10.250
42558SOL    HW129513  13.305   7.649  10.195
42558SOL    HW229514  13.378   7.635  10.327
42559SOL     OW29515   4.651   8.437   0.678
42559SOL    HW129516   4.724   8.420   0.618
42559SOL    HW229517   4.668   8.526   0.710
42560SOL     OW29518   1.147   3.142   6.497
42560SOL    HW129519   1.055   3.118   6.485
42560SOL    HW229520   1.163   3.209   6.431
42561SOL     OW29521  11.630   9.886   8.769
42561SOL    HW129522  11.644   9.979   8.750
42561SOL    HW229523  11.585   9.852   8.691
42562SOL     OW29524   8.442   6.608   6.795
42562SOL    HW129525   8.461   6.551   6.870
42562SOL    HW229526   8.463   6.696   6.825
42563SOL     OW29527   6.485   6.681  12.400
42563SOL    HW129528   6.424   6.631  12.346
42563SOL    HW229529   6.437   6.698  12.481
42564SOL     OW29530   2.798   5.361   7.415
42564SOL    HW129531   2.792   5.272   7.451
42564SOL    HW229532   2.794   5.418   7.492
42565SOL     OW29533   6.899   9.912  10.011
42565SOL    HW129534   6.922   9.960   9.931
42565SOL    HW229535   6.814   9.949  10.037
42566SOL     OW29536  10.955   5.403  11.067
42566SOL    HW129537  10.894   5.473  11.091
42566SOL    HW229538  10.901   5.339  11.021
42567SOL     OW29539   1.688   0.359   6.831
42567SOL    HW129540   1.679   0.430   6.768
42567SOL    HW229541   1.775   0.322   6.815
42568SOL     OW29542   7.892   8.985   4.722
42568SOL    HW129543   7.905   8.993   4.817
42568SOL    HW229544   7.798   8.997   4.710
42569SOL     OW29545  11.304   0.543  14.209
42569SOL    HW129546  11.264   0.499  14.284
42569SOL    HW229547  11.267   0.499  14.132
42570SOL     OW29548   1.939   6.088   9.856
42570SOL    HW129549   1.946   6.147   9.780
42570SOL    HW229550   2.028   6.056   9.869
42571SOL     OW29551  12.121   2.808   9.963
42571SOL    HW129552  12.151   2.898   9.953
42571SOL    HW229553  12.031   2.809   9.929
42572SOL     OW29554   4.834  11.396   3.177
42572SOL    HW129555   4.808  11.312   3.139
42572SOL    HW229556   4.911  11.375   3.230
42573SOL     OW29557   5.052   2.527   8.784
42573SOL    HW129558   5.145   2.549   8.785
42573SOL    HW229559   5.022   2.546   8.873
42574SOL     OW29560   3.603   5.968   4.374
42574SOL    HW129561   3.556   5.937   4.297
42574SOL    HW229562   3.696   5.958   4.350
42575SOL     OW29563  10.888  14.700  11.371
42575SOL    HW129564  10.797  14.674  11.353
42575SOL    HW229565  10.938  14.620  11.355
42576SOL     OW29566   2.623   1.201  13.695
42576SOL    HW129567   2.552   1.217  13.758
42576SOL    HW229568   2.604   1.260  13.622
42577SOL     OW29569  13.401  11.920  12.636
42577SOL    HW129570  13.332  11.855  12.625
42577SOL    HW229571  13.401  11.969  12.554
42578SOL     OW29572   8.292   2.672   2.281
42578SOL    HW129573   8.337   2.657   2.364
42578SOL    HW229574   8.253   2.759   2.290
42579SOL     OW29575  12.048  12.269   2.925
42579SOL    HW129576  12.005  12.337   2.873
42579SOL    HW229577  12.002  12.188   2.901
42580SOL     OW29578   7.720  10.402  11.151
42580SOL    HW129579   7.811  10.424  11.133
42580SOL    HW229580   7.671  10.440  11.078
42581SOL     OW29581   8.991  13.030  10.204
42581SOL    HW129582   8.903  13.006  10.175
42581SOL    HW229583   9.049  12.979  10.148
42582SOL     OW29584  11.058   0.661   0.460
42582SOL    HW129585  10.987   0.712   0.421
42582SOL    HW229586  11.017   0.612   0.531
42583SOL     OW29587   7.246  12.113   9.874
42583SOL    HW129588   7.235  12.197   9.829
42583SOL    HW229589   7.212  12.129   9.962
42584SOL     OW29590   8.565   7.687   8.518
42584SOL    HW129591   8.630   7.693   8.588
42584SOL    HW229592   8.510   7.613   8.543
42585SOL     OW29593  12.503   4.177   1.685
42585SOL    HW129594  12.450   4.184   1.765
42585SOL    HW229595  12.514   4.267   1.656
42586SOL     OW29596  14.707   0.481   9.290
42586SOL    HW129597  14.684   0.557   9.345
42586SOL    HW229598  14.705   0.407   9.350
42587SOL     OW29599  11.202   6.576   1.229
42587SOL    HW129600  11.161   6.662   1.227
42587SOL    HW229601  11.134   6.518   1.263
42588SOL     OW29602  11.284   9.962  14.282
42588SOL    HW129603  11.229   9.884  14.282
42588SOL    HW229604  11.289   9.988  14.374
42589SOL     OW29605   1.344   4.844   7.230
42589SOL    HW129606   1.373   4.886   7.149
42589SOL    HW229607   1.412   4.779   7.250
42590SOL     OW29608   4.976   0.275   8.556
42590SOL    HW129609   5.004   0.242   8.641
42590SOL    HW229610   5.024   0.223   8.492
42591SOL     OW29611  12.139  14.729   5.097
42591SOL    HW129612  12.081  14.781   5.041
42591SOL    HW229613  12.099  14.642   5.098
42592SOL     OW29614  11.333   4.503   0.056
42592SOL    HW129615  11.311   4.415   0.026
42592SOL    HW229616  11.252   4.538   0.091
42593SOL     OW29617   4.982   7.111   6.216
42593SOL    HW129618   4.904   7.058   6.204
42593SOL    HW229619   5.007   7.097   6.308
42594SOL     OW29620   4.554  14.461   1.637
42594SOL    HW129621   4.478  14.416   1.674
42594SOL    HW229622   4.517  14.533   1.585
42595SOL     OW29623   7.223  13.112  12.114
42595SOL    HW129624   7.263  13.156  12.039
42595SOL    HW229625   7.287  13.047  12.140
42596SOL     OW29626   1.743   2.718   2.470
42596SOL    HW129627   1.702   2.635   2.443
42596SOL    HW229628   1.821   2.692   2.518
42597SOL     OW29629  14.810   6.315   7.456
42597SOL    HW129630   0.009   6.282   7.418
42597SOL    HW229631  14.765   6.237   7.489
42598SOL     OW29632   4.204   6.564   3.817
42598SOL    HW129633   4.142   6.633   3.841
42598SOL    HW229634   4.149   6.488   3.799
42599SOL     OW29635   5.759   1.023   1.454
42599SOL    HW129636   5.714   1.042   1.371
42599SOL    HW229637   5.777   0.929   1.449
42600SOL     OW29638  13.430   9.259  11.147
42600SOL    HW129639  13.477   9.321  11.203
42600SOL    HW229640  13.339   9.264  11.177
42601SOL     OW29641  12.250   3.197   3.444
42601SOL    HW129642  12.331   3.206   3.494
42601SOL    HW229643  12.202   3.277   3.461
42602SOL     OW29644   9.810   2.647   0.483
42602SOL    HW129645   9.847   2.670   0.569
42602SOL    HW229646   9.719   2.674   0.489
42603SOL     OW29647   1.135   3.665  10.100
42603SOL    HW129648   1.163   3.757  10.101
42603SOL    HW229649   1.041   3.669  10.080
42604SOL     OW29650  11.178  13.560   1.905
42604SOL    HW129651  11.229  13.479   1.898
42604SOL    HW229652  11.243  13.630   1.905
42605SOL     OW29653   3.937   8.262   5.455
42605SOL    HW129654   4.014   8.223   5.494
42605SOL    HW229655   3.965   8.350   5.430
42606SOL     OW29656  11.642   5.908  14.142
42606SOL    HW129657  11.724   5.876  14.104
42606SOL    HW229658  11.607   5.968  14.076
42607SOL     OW29659   0.707   6.913   3.146
42607SOL    HW129660   0.731   6.954   3.063
42607SOL    HW229661   0.671   6.828   3.121
42608SOL     OW29662  12.256   7.055   2.232
42608SOL    HW129663  12.284   6.971   2.197
42608SOL    HW229664  12.167   7.040   2.262
42609SOL     OW29665   1.942   2.503   8.883
42609SOL    HW129666   1.937   2.589   8.839
42609SOL    HW229667   1.947   2.440   8.811
42610SOL     OW29668   9.663  12.495   5.176
42610SOL    HW129669   9.645  12.481   5.084
42610SOL    HW229670   9.713  12.418   5.203
42611SOL     OW29671  11.184  13.924   2.953
42611SOL    HW129672  11.115  13.954   2.894
42611SOL    HW229673  11.218  13.844   2.913
42612SOL     OW29674   3.726   0.203   3.200
42612SOL    HW129675   3.687   0.280   3.157
42612SOL    HW229676   3.787   0.240   3.264
42613SOL     OW29677   0.454   8.617   8.087
42613SOL    HW129678   0.483   8.642   8.175
42613SOL    HW229679   0.452   8.522   8.089
42614SOL     OW29680  13.084   2.017   5.505
42614SOL    HW129681  13.020   1.965   5.552
42614SOL    HW229682  13.151   2.038   5.570
42615SOL     OW29683  12.664   3.179  12.035
42615SOL    HW129684  12.705   3.240  11.974
42615SOL    HW229685  12.711   3.193  12.118
42616SOL     OW29686  12.034   8.411   8.476
42616SOL    HW129687  11.939   8.422   8.480
42616SOL    HW229688  12.046   8.322   8.444
42617SOL     OW29689   0.052  10.896   1.203
42617SOL    HW129690   0.049  10.925   1.294
42617SOL    HW229691   0.114  10.823   1.203
42618SOL     OW29692   0.756   3.214   7.449
42618SOL    HW129693   0.745   3.306   7.423
42618SOL    HW229694   0.790   3.219   7.538
42619SOL     OW29695   8.394   1.132   9.690
42619SOL    HW129696   8.409   1.161   9.600
42619SOL    HW229697   8.308   1.091   9.688
42620SOL     OW29698  11.806   3.012  13.847
42620SOL    HW129699  11.853   3.091  13.874
42620SOL    HW229700  11.773   3.032  13.760
42621SOL     OW29701  13.529   0.270  13.808
42621SOL    HW129702  13.615   0.231  13.822
42621SOL    HW229703  13.541   0.328  13.732
42622SOL     OW29704   1.061   6.062   1.138
42622SOL    HW129705   1.059   5.973   1.174
42622SOL    HW229706   0.991   6.062   1.072
42623SOL     OW29707   3.843   9.166  14.800
42623SOL    HW129708   3.848   9.217  14.881
42623SOL    HW229709   3.915   9.103  14.806
42624SOL     OW29710   9.204   0.902   6.867
42624SOL    HW129711   9.194   0.927   6.775
42624SOL    HW229712   9.287   0.854   6.870
42625SOL     OW29713  14.208   3.269   2.603
42625SOL    HW129714  14.184   3.211   2.530
42625SOL    HW229715  14.149   3.343   2.596
42626SOL     OW29716   6.274   6.018   3.330
42626SOL    HW129717   6.306   6.012   3.240
42626SOL    HW229718   6.342   6.066   3.377
42627SOL     OW29719  11.675   9.433  13.586
42627SOL    HW129720  11.732   9.490  13.534
42627SOL    HW229721  11.664   9.355  13.531
42628SOL     OW29722  11.049  13.230   3.757
42628SOL    HW129723  11.090  13.144   3.759
42628SOL    HW229724  11.059  13.264   3.846
42629SOL     OW29725   7.153  10.963  12.921
42629SOL    HW129726   7.060  10.971  12.897
42629SOL    HW229727   7.190  11.049  12.900
42630SOL     OW29728   3.263   0.461  11.662
42630SOL    HW129729   3.186   0.515  11.683
42630SOL    HW229730   3.337   0.513  11.692
42631SOL     OW29731   3.559  14.523   1.751
42631SOL    HW129732   3.615  14.473   1.810
42631SOL    HW229733   3.558  14.473   1.670
42632SOL     OW29734   0.925   9.264   0.700
42632SOL    HW129735   0.973   9.273   0.782
42632SOL    HW229736   0.874   9.184   0.710
42633SOL     OW29737  11.369   8.294  10.810
42633SOL    HW129738  11.438   8.345  10.851
42633SOL    HW229739  11.400   8.279  10.720
42634SOL     OW29740   6.514  13.075   8.313
42634SOL    HW129741   6.536  13.126   8.235
42634SOL    HW229742   6.419  13.083   8.322
42635SOL     OW29743   6.117   3.727  14.271
42635SOL    HW129744   6.127   3.812  14.228
42635SOL    HW229745   6.152   3.741  14.359
42636SOL     OW29746   7.366   9.741   4.485
42636SOL    HW129747   7.337   9.650   4.496
42636SOL    HW229748   7.435   9.736   4.419
42637SOL     OW29749  14.236   3.721   9.104
42637SOL    HW129750  14.299   3.702   9.035
42637SOL    HW229751  14.152   3.688   9.071
42638SOL     OW29752   8.374   3.246   5.617
42638SOL    HW129753   8.358   3.196   5.536
42638SOL    HW229754   8.287   3.254   5.657
42639SOL     OW29755   1.241   2.822   4.658
42639SOL    HW129756   1.260   2.911   4.687
42639SOL    HW229757   1.173   2.791   4.719
42640SOL     OW29758   1.869  11.263   5.656
42640SOL    HW129759   1.953  11.252   5.610
42640SOL    HW229760   1.804  11.228   5.595
42641SOL     OW29761  11.409   0.577   1.234
42641SOL    HW129762  11.367   0.498   1.199
42641SOL    HW229763  11.440   0.624   1.156
42642SOL     OW29764   8.448   0.473   7.176
42642SOL    HW129765   8.385   0.415   7.219
42642SOL    HW229766   8.396   0.522   7.112
42643SOL     OW29767   8.893   3.714   0.712
42643SOL    HW129768   8.874   3.726   0.620
42643SOL    HW229769   8.939   3.794   0.738
42644SOL     OW29770   5.656   6.414  11.353
42644SOL    HW129771   5.622   6.385  11.269
42644SOL    HW229772   5.626   6.505  11.361
42645SOL     OW29773  14.355   1.254   6.503
42645SOL    HW129774  14.407   1.248   6.423
42645SOL    HW229775  14.360   1.346   6.528
42646SOL     OW29776   4.628   7.769  13.499
42646SOL    HW129777   4.569   7.795  13.570
42646SOL    HW229778   4.578   7.705  13.447
42647SOL     OW29779   2.259   7.821  13.939
42647SOL    HW129780   2.278   7.912  13.919
42647SOL    HW229781   2.268   7.775  13.856
42648SOL     OW29782   6.912   2.569   5.397
42648SOL    HW129783   6.994   2.530   5.425
42648SOL    HW229784   6.866   2.589   5.478
42649SOL     OW29785  10.176  12.933  10.371
42649SOL    HW129786  10.211  12.993  10.437
42649SOL    HW229787  10.253  12.893  10.331
42650SOL     OW29788  12.495   2.564  12.331
42650SOL    HW129789  12.490   2.566  12.426
42650SOL    HW229790  12.478   2.654  12.304
42651SOL     OW29791   2.331  14.542   8.406
42651SOL    HW129792   2.359  14.452   8.421
42651SOL    HW229793   2.384  14.594   8.466
42652SOL     OW29794   2.019   8.924   8.237
42652SOL    HW129795   2.103   8.893   8.270
42652SOL    HW229796   2.041   8.971   8.157
42653SOL     OW29797  12.549  14.400  13.446
42653SOL    HW129798  12.524  14.476  13.395
42653SOL    HW229799  12.484  14.396  13.517
42654SOL     OW29800   9.370  10.500   1.455
42654SOL    HW129801   9.306  10.566   1.428
42654SOL    HW229802   9.426  10.545   1.518
42655SOL     OW29803  12.854   8.348  10.028
42655SOL    HW129804  12.866   8.330  10.121
42655SOL    HW229805  12.889   8.437  10.017
42656SOL     OW29806   8.656   1.357  13.271
42656SOL    HW129807   8.673   1.270  13.236
42656SOL    HW229808   8.572   1.348  13.317
42657SOL     OW29809   1.828  10.444  13.169
42657SOL    HW129810   1.786  10.439  13.254
42657SOL    HW229811   1.762  10.484  13.112
42658SOL     OW29812   3.803   1.354   1.005
42658SOL    HW129813   3.855   1.315   1.075
42658SOL    HW229814   3.718   1.373   1.046
42659SOL     OW29815   2.469  14.412   3.947
42659SOL    HW129816   2.374  14.425   3.941
42659SOL    HW229817   2.485  14.394   4.039
42660SOL     OW29818   2.942   1.749   9.047
42660SOL    HW129819   2.969   1.701   9.125
42660SOL    HW229820   2.984   1.702   8.974
42661SOL     OW29821  10.799  13.524   0.378
42661SOL    HW129822  10.801  13.437   0.338
42661SOL    HW229823  10.891  13.544   0.395
42662SOL     OW29824  11.917  13.533   9.744
42662SOL    HW129825  11.886  13.443   9.748
42662SOL    HW229826  12.009  13.527   9.769
42663SOL     OW29827  12.670   8.917   0.175
42663SOL    HW129828  12.700   9.002   0.141
42663SOL    HW229829  12.605   8.887   0.111
42664SOL     OW29830  12.076   4.746   0.724
42664SOL    HW129831  12.009   4.813   0.739
42664SOL    HW229832  12.159   4.792   0.737
42665SOL     OW29833  10.754   7.989  11.402
42665SOL    HW129834  10.790   7.952  11.483
42665SOL    HW229835  10.753   8.083  11.416
42666SOL     OW29836   6.185  13.147  11.915
42666SOL    HW129837   6.236  13.167  11.837
42666SOL    HW229838   6.148  13.061  11.899
42667SOL     OW29839   8.301  11.633   5.098
42667SOL    HW129840   8.291  11.562   5.161
42667SOL    HW229841   8.283  11.712   5.148
42668SOL     OW29842   5.804   1.465   2.920
42668SOL    HW129843   5.746   1.425   2.984
42668SOL    HW229844   5.755   1.463   2.838
42669SOL     OW29845   2.540  11.849   7.809
42669SOL    HW129846   2.578  11.868   7.723
42669SOL    HW229847   2.523  11.935   7.848
42670SOL     OW29848   6.498   1.168  12.647
42670SOL    HW129849   6.550   1.178  12.726
42670SOL    HW229850   6.409   1.151  12.678
42671SOL     OW29851   9.175   7.404  13.424
42671SOL    HW129852   9.255   7.453  13.438
42671SOL    HW229853   9.105   7.465  13.448
42672SOL     OW29854   0.713   2.502   7.888
42672SOL    HW129855   0.677   2.506   7.977
42672SOL    HW229856   0.666   2.429   7.847
42673SOL     OW29857   9.603  11.405   7.316
42673SOL    HW129858   9.613  11.322   7.364
42673SOL    HW229859   9.600  11.472   7.384
42674SOL     OW29860  12.052  13.494   3.480
42674SOL    HW129861  12.088  13.556   3.544
42674SOL    HW229862  11.988  13.443   3.529
42675SOL     OW29863  11.738   1.538   6.110
42675SOL    HW129864  11.803   1.497   6.167
42675SOL    HW229865  11.729   1.477   6.036
42676SOL     OW29866   6.281   4.195   5.422
42676SOL    HW129867   6.225   4.211   5.498
42676SOL    HW229868   6.292   4.280   5.381
42677SOL     OW29869  12.435   5.413   2.879
42677SOL    HW129870  12.378   5.337   2.892
42677SOL    HW229871  12.375   5.484   2.858
42678SOL     OW29872   2.724  10.872  10.116
42678SOL    HW129873   2.704  10.946  10.060
42678SOL    HW229874   2.704  10.795  10.063
42679SOL     OW29875   5.084  11.372   0.496
42679SOL    HW129876   5.132  11.336   0.421
42679SOL    HW229877   4.998  11.395   0.461
42680SOL     OW29878   6.733   2.573   1.618
42680SOL    HW129879   6.824   2.552   1.639
42680SOL    HW229880   6.709   2.643   1.679
42681SOL     OW29881   7.339   7.070   7.348
42681SOL    HW129882   7.375   7.145   7.395
42681SOL    HW229883   7.375   7.077   7.259
42682SOL     OW29884   7.378   3.259   3.756
42682SOL    HW129885   7.435   3.285   3.828
42682SOL    HW229886   7.303   3.317   3.763
42683SOL     OW29887   1.185   0.561   2.850
42683SOL    HW129888   1.235   0.628   2.897
42683SOL    HW229889   1.096   0.569   2.884
42684SOL     OW29890  10.642   6.896   2.124
42684SOL    HW129891  10.619   6.861   2.037
42684SOL    HW229892  10.615   6.827   2.185
42685SOL     OW29893   1.953   7.626   8.092
42685SOL    HW129894   1.884   7.631   8.025
42685SOL    HW229895   2.029   7.666   8.052
42686SOL     OW29896  10.165   6.871   0.509
42686SOL    HW129897  10.240   6.812   0.504
42686SOL    HW229898  10.161   6.913   0.423
42687SOL     OW29899  11.177   4.554   8.529
42687SOL    HW129900  11.097   4.542   8.580
42687SOL    HW229901  11.248   4.530   8.589
42688SOL     OW29902  10.313   5.636   8.574
42688SOL    HW129903  10.252   5.597   8.636
42688SOL    HW229904  10.297   5.730   8.580
42689SOL     OW29905   2.069   2.644  13.774
42689SOL    HW129906   2.065   2.602  13.860
42689SOL    HW229907   2.076   2.737  13.793
42690SOL     OW29908   3.407   5.483  10.966
42690SOL    HW129909   3.492   5.516  10.995
42690SOL    HW229910   3.426   5.394  10.935
42691SOL     OW29911  14.043  12.688   5.613
42691SOL    HW129912  14.094  12.655   5.540
42691SOL    HW229913  14.058  12.782   5.613
42692SOL     OW29914   7.735   3.940  10.926
42692SOL    HW129915   7.816   3.892  10.913
42692SOL    HW229916   7.747   4.022  10.878
42693SOL     OW29917   5.277   9.001   5.987
42693SOL    HW129918   5.191   9.009   5.945
42693SOL    HW229919   5.258   8.976   6.077
42694SOL     OW29920  11.548   9.791   5.934
42694SOL    HW129921  11.585   9.747   6.011
42694SOL    HW229922  11.458   9.758   5.928
42695SOL     OW29923   0.919   5.743   6.968
42695SOL    HW129924   0.981   5.682   6.930
42695SOL    HW229925   0.935   5.739   7.062
42696SOL     OW29926   6.199  12.216   0.078
42696SOL    HW129927   6.115  12.174   0.099
42696SOL    HW229928   6.262  12.144   0.078
42697SOL     OW29929  11.226   2.926   9.460
42697SOL    HW129930  11.146   2.880   9.482
42697SOL    HW229931  11.244   2.982   9.535
42698SOL     OW29932   6.847  13.360   6.822
42698SOL    HW129933   6.895  13.366   6.904
42698SOL    HW229934   6.783  13.291   6.836
42699SOL     OW29935  12.738  13.783   4.221
42699SOL    HW129936  12.664  13.728   4.247
42699SOL    HW229937  12.797  13.783   4.297
42700SOL     OW29938   3.738   4.107   3.449
42700SOL    HW129939   3.810   4.162   3.482
42700SOL    HW229940   3.781   4.032   3.408
42701SOL     OW29941   2.415   8.825  12.876
42701SOL    HW129942   2.393   8.916  12.855
42701SOL    HW229943   2.364   8.773  12.814
42702SOL     OW29944  11.184   0.941  13.671
42702SOL    HW129945  11.248   0.995  13.624
42702SOL    HW229946  11.223   0.925  13.756
42703SOL     OW29947  10.303  10.393   9.387
42703SOL    HW129948  10.230  10.345   9.426
42703SOL    HW229949  10.377  10.333   9.392
42704SOL     OW29950  14.778   2.994  11.870
42704SOL    HW129951  14.701   2.977  11.815
42704SOL    HW229952  14.852   2.967  11.817
42705SOL     OW29953   0.033  10.710   2.970
42705SOL    HW129954   0.015  10.774   3.038
42705SOL    HW229955   0.101  10.750   2.916
42706SOL     OW29956   8.023  11.613  12.370
42706SOL    HW129957   7.956  11.576  12.312
42706SOL    HW229958   7.997  11.584  12.457
42707SOL     OW29959  13.576   5.255   9.841
42707SOL    HW129960  13.595   5.177   9.893
42707SOL    HW229961  13.491   5.285   9.874
42708SOL     OW29962  12.696   5.311  14.226
42708SOL    HW129963  12.667   5.352  14.145
42708SOL    HW229964  12.621   5.320  14.285
42709SOL     OW29965   1.632   6.860  13.098
42709SOL    HW129966   1.607   6.848  13.190
42709SOL    HW229967   1.727   6.869  13.100
42710SOL     OW29968   4.288   4.458   9.874
42710SOL    HW129969   4.317   4.499   9.793
42710SOL    HW229970   4.318   4.368   9.869
42711SOL     OW29971  14.149  13.934  14.098
42711SOL    HW129972  14.170  13.985  14.176
42711SOL    HW229973  14.055  13.919  14.105
42712SOL     OW29974   9.171   7.315   4.024
42712SOL    HW129975   9.120   7.255   4.078
42712SOL    HW229976   9.108   7.352   3.962
42713SOL     OW29977  11.467   8.231  11.120
42713SOL    HW129978  11.448   8.325  11.118
42713SOL    HW229979  11.538   8.220  11.057
42714SOL     OW29980   9.644  11.121  12.556
42714SOL    HW129981   9.673  11.213  12.558
42714SOL    HW229982   9.600  11.109  12.640
42715SOL     OW29983   1.847   8.395   5.935
42715SOL    HW129984   1.862   8.300   5.940
42715SOL    HW229985   1.909   8.432   5.998
42716SOL     OW29986  10.467  13.945  13.646
42716SOL    HW129987  10.408  13.893  13.592
42716SOL    HW229988  10.552  13.940  13.602
42717SOL     OW29989   7.240  13.758   2.813
42717SOL    HW129990   7.219  13.702   2.738
42717SOL    HW229991   7.199  13.842   2.792
42718SOL     OW29992   9.804   2.244   3.835
42718SOL    HW129993   9.750   2.182   3.788
42718SOL    HW229994   9.807   2.321   3.779
42719SOL     OW29995   6.344  13.945   7.250
42719SOL    HW129996   6.327  14.035   7.277
42719SOL    HW229997   6.408  13.912   7.313
42720SOL     OW29998   7.358  12.212   5.023
42720SOL    HW129999   7.272  12.171   5.009
42720SOL    HW230000   7.385  12.241   4.936
42721SOL     OW30001  14.611   2.398   8.002
42721SOL    HW130002  14.532   2.348   7.982
42721SOL    HW230003  14.585   2.459   8.071
42722SOL     OW30004   7.542  14.326   8.885
42722SOL    HW130005   7.487  14.305   8.961
42722SOL    HW230006   7.497  14.399   8.842
42723SOL     OW30007   3.668   9.670   8.422
42723SOL    HW130008   3.722   9.655   8.500
42723SOL    HW230009   3.663   9.584   8.380
42724SOL     OW30010  10.921   7.789   4.444
42724SOL    HW130011  10.843   7.751   4.404
42724SOL    HW230012  10.917   7.761   4.536
42725SOL     OW30013   8.909   7.413   3.929
42725SOL    HW130014   8.845   7.482   3.946
42725SOL    HW230015   8.900   7.393   3.836
42726SOL     OW30016  12.566   4.612  13.122
42726SOL    HW130017  12.584   4.705  13.138
42726SOL    HW230018  12.504   4.588  13.191
42727SOL     OW30019   9.158  11.832   7.279
42727SOL    HW130020   9.222  11.768   7.247
42727SOL    HW230021   9.074  11.787   7.276
42728SOL     OW30022   4.976  13.801   2.309
42728SOL    HW130023   4.982  13.732   2.374
42728SOL    HW230024   4.891  13.843   2.326
42729SOL     OW30025  10.637  12.258   3.816
42729SOL    HW130026  10.648  12.325   3.748
42729SOL    HW230027  10.548  12.273   3.848
42730SOL     OW30028  10.956   6.110   2.192
42730SOL    HW130029  10.962   6.171   2.118
42730SOL    HW230030  10.951   6.024   2.152
42731SOL     OW30031   1.608   2.939   3.561
42731SOL    HW130032   1.514   2.921   3.563
42731SOL    HW230033   1.648   2.856   3.539
42732SOL     OW30034   9.440   5.216   7.413
42732SOL    HW130035   9.451   5.197   7.506
42732SOL    HW230036   9.529   5.220   7.378
42733SOL     OW30037   9.022  14.269   2.311
42733SOL    HW130038   9.083  14.205   2.348
42733SOL    HW230039   9.077  14.344   2.289
42734SOL     OW30040  11.112   3.961   5.031
42734SOL    HW130041  11.036   3.903   5.037
42734SOL    HW230042  11.110   3.994   4.941
42735SOL     OW30043   4.507   2.730   7.733
42735SOL    HW130044   4.500   2.715   7.639
42735SOL    HW230045   4.601   2.718   7.751
42736SOL     OW30046   1.535  12.907   8.542
42736SOL    HW130047   1.469  12.971   8.568
42736SOL    HW230048   1.608  12.960   8.508
42737SOL     OW30049  11.210  12.636   7.986
42737SOL    HW130050  11.123  12.600   8.005
42737SOL    HW230051  11.194  12.727   7.964
42738SOL     OW30052  13.129  11.595  13.270
42738SOL    HW130053  13.153  11.538  13.196
42738SOL    HW230054  13.204  11.654  13.281
42739SOL     OW30055   6.893  11.976   9.889
42739SOL    HW130056   6.910  12.061   9.849
42739SOL    HW230057   6.924  11.985   9.979
42740SOL     OW30058   6.418   9.994  14.385
42740SOL    HW130059   6.453  10.082  14.369
42740SOL    HW230060   6.444   9.943  14.309
42741SOL     OW30061   2.678   3.723   6.657
42741SOL    HW130062   2.684   3.739   6.563
42741SOL    HW230063   2.753   3.769   6.695
42742SOL     OW30064   4.986   4.327   1.512
42742SOL    HW130065   4.993   4.284   1.598
42742SOL    HW230066   4.964   4.417   1.533
42743SOL     OW30067   1.270   6.739   2.131
42743SOL    HW130068   1.244   6.647   2.122
42743SOL    HW230069   1.220   6.785   2.064
42744SOL     OW30070   7.695   0.750  13.447
42744SOL    HW130071   7.608   0.757  13.407
42744SOL    HW230072   7.732   0.670  13.409
42745SOL     OW30073   3.728   5.106  10.145
42745SOL    HW130074   3.633   5.099  10.137
42745SOL    HW230075   3.749   5.055  10.223
42746SOL     OW30076  14.558   3.865  13.044
42746SOL    HW130077  14.552   3.902  13.133
42746SOL    HW230078  14.619   3.923  12.998
42747SOL     OW30079   5.067  12.463   8.327
42747SOL    HW130080   5.132  12.408   8.371
42747SOL    HW230081   5.004  12.400   8.290
42748SOL     OW30082  14.063   7.119  10.198
42748SOL    HW130083  14.092   7.161  10.279
42748SOL    HW230084  13.995   7.178  10.164
42749SOL     OW30085  14.747  13.911   3.843
42749SOL    HW130086  14.734  13.969   3.767
42749SOL    HW230087  14.790  13.834   3.807
42750SOL     OW30088   7.333  13.288   3.667
42750SOL    HW130089   7.316  13.380   3.651
42750SOL    HW230090   7.249  13.252   3.696
42751SOL     OW30091  14.175  10.772   7.752
42751SOL    HW130092  14.246  10.755   7.691
42751SOL    HW230093  14.104  10.715   7.723
42752SOL     OW30094  11.789  12.188   8.089
42752SOL    HW130095  11.874  12.223   8.062
42752SOL    HW230096  11.741  12.173   8.007
42753SOL     OW30097   4.010  12.130  11.650
42753SOL    HW130098   3.980  12.040  11.653
42753SOL    HW230099   3.939  12.180  11.691
42754SOL     OW30100   9.596   8.398   3.469
42754SOL    HW130101   9.560   8.319   3.509
42754SOL    HW230102   9.531   8.466   3.488
42755SOL     OW30103   9.059   5.314   0.187
42755SOL    HW130104   9.028   5.379   0.124
42755SOL    HW230105   9.104   5.366   0.254
42756SOL     OW30106   0.007   1.373  13.046
42756SOL    HW130107  14.808   1.332  13.075
42756SOL    HW230108  14.871   1.467  13.050
42757SOL     OW30109   0.322   2.469  12.603
42757SOL    HW130110   0.322   2.380  12.636
42757SOL    HW230111   0.262   2.517  12.661
42758SOL     OW30112   3.216  11.776  13.625
42758SOL    HW130113   3.149  11.823  13.676
42758SOL    HW230114   3.180  11.688  13.615
42759SOL     OW30115   8.052   5.909   8.971
42759SOL    HW130116   8.125   5.873   8.920
42759SOL    HW230117   8.055   6.003   8.953
42760SOL     OW30118   6.003   7.393   2.091
42760SOL    HW130119   5.929   7.436   2.049
42760SOL    HW230120   6.017   7.441   2.172
42761SOL     OW30121   3.037   3.180   8.284
42761SOL    HW130122   3.077   3.208   8.202
42761SOL    HW230123   3.111   3.165   8.343
42762SOL     OW30124   3.120   6.279  10.367
42762SOL    HW130125   3.048   6.296  10.428
42762SOL    HW230126   3.184   6.348  10.385
42763SOL     OW30127   2.499  11.233   7.744
42763SOL    HW130128   2.574  11.212   7.688
42763SOL    HW230129   2.459  11.148   7.763
42764SOL     OW30130  12.808   0.819   8.040
42764SOL    HW130131  12.726   0.806   7.994
42764SOL    HW230132  12.850   0.733   8.042
42765SOL     OW30133   6.785  12.129   4.341
42765SOL    HW130134   6.831  12.078   4.407
42765SOL    HW230135   6.734  12.192   4.391
42766SOL     OW30136   8.137  13.213   9.906
42766SOL    HW130137   8.224  13.185   9.877
42766SOL    HW230138   8.115  13.153   9.977
42767SOL     OW30139  11.641   4.578  11.506
42767SOL    HW130140  11.605   4.542  11.425
42767SOL    HW230141  11.690   4.505  11.545
42768SOL     OW30142   1.887   6.778  10.201
42768SOL    HW130143   1.899   6.721  10.278
42768SOL    HW230144   1.957   6.752  10.141
42769SOL     OW30145  14.343   6.765  10.273
42769SOL    HW130146  14.354   6.764  10.368
42769SOL    HW230147  14.415   6.711  10.240
42770SOL     OW30148  11.970   4.155   7.800
42770SOL    HW130149  11.933   4.072   7.828
42770SOL    HW230150  11.948   4.161   7.707
42771SOL     OW30151   9.855  12.575   8.434
42771SOL    HW130152   9.926  12.518   8.465
42771SOL    HW230153   9.784  12.514   8.413
42772SOL     OW30154  13.555   0.726   0.567
42772SOL    HW130155  13.599   0.696   0.647
42772SOL    HW230156  13.566   0.821   0.567
42773SOL     OW30157  14.351   1.536  14.657
42773SOL    HW130158  14.442   1.566  14.658
42773SOL    HW230159  14.300   1.617  14.646
42774SOL     OW30160   9.776  10.747   8.104
42774SOL    HW130161   9.849  10.804   8.078
42774SOL    HW230162   9.700  10.806   8.109
42775SOL     OW30163  14.249  13.981   3.157
42775SOL    HW130164  14.332  13.971   3.111
42775SOL    HW230165  14.239  13.900   3.207
42776SOL     OW30166  14.702   4.503   3.705
42776SOL    HW130167  14.758   4.534   3.775
42776SOL    HW230168  14.720   4.561   3.631
42777SOL     OW30169   6.878   0.266  12.836
42777SOL    HW130170   6.866   0.247  12.929
42777SOL    HW230171   6.793   0.300  12.807
42778SOL     OW30172   6.988  12.394   8.159
42778SOL    HW130173   7.031  12.311   8.179
42778SOL    HW230174   6.989  12.442   8.241
42779SOL     OW30175   1.424  10.166  13.374
42779SOL    HW130176   1.405  10.146  13.283
42779SOL    HW230177   1.342  10.203  13.408
42780SOL     OW30178   7.671  10.230   0.902
42780SOL    HW130179   7.593  10.250   0.952
42780SOL    HW230180   7.688  10.309   0.851
42781SOL     OW30181  11.800  11.098   5.994
42781SOL    HW130182  11.762  11.182   5.965
42781SOL    HW230183  11.894  11.115   5.998
42782SOL     OW30184   9.336  10.005  12.244
42782SOL    HW130185   9.392   9.936  12.210
42782SOL    HW230186   9.247   9.973  12.230
42783SOL     OW30187   5.031  11.704  11.126
42783SOL    HW130188   5.119  11.736  11.106
42783SOL    HW230189   5.015  11.635  11.062
42784SOL     OW30190   0.607   8.673   9.869
42784SOL    HW130191   0.601   8.702   9.777
42784SOL    HW230192   0.698   8.646   9.879
42785SOL     OW30193   1.306   3.516   5.611
42785SOL    HW130194   1.398   3.494   5.622
42785SOL    HW230195   1.259   3.458   5.671
42786SOL     OW30196   3.152   4.456   1.237
42786SOL    HW130197   3.159   4.510   1.158
42786SOL    HW230198   3.197   4.374   1.214
42787SOL     OW30199   5.091   8.439  10.163
42787SOL    HW130200   5.045   8.398  10.090
42787SOL    HW230201   5.176   8.464  10.127
42788SOL     OW30202   5.452  14.295   3.377
42788SOL    HW130203   5.498  14.322   3.298
42788SOL    HW230204   5.469  14.365   3.441
42789SOL     OW30205  11.146   5.509   7.303
42789SOL    HW130206  11.215   5.565   7.338
42789SOL    HW230207  11.192   5.435   7.263
42790SOL     OW30208   9.715  11.818   8.535
42790SOL    HW130209   9.793  11.842   8.585
42790SOL    HW230210   9.685  11.736   8.575
42791SOL     OW30211  14.793   5.302   0.818
42791SOL    HW130212  14.840   5.219   0.804
42791SOL    HW230213  14.750   5.290   0.902
42792SOL     OW30214  10.599   5.435  10.174
42792SOL    HW130215  10.668   5.486  10.217
42792SOL    HW230216  10.601   5.350  10.219
42793SOL     OW30217  10.476  11.847   3.257
42793SOL    HW130218  10.453  11.940   3.250
42793SOL    HW230219  10.477  11.816   3.167
42794SOL     OW30220   5.306   5.409   8.253
42794SOL    HW130221   5.333   5.496   8.223
42794SOL    HW230222   5.323   5.352   8.178
42795SOL     OW30223   2.747   1.631   1.581
42795SOL    HW130224   2.721   1.710   1.627
42795SOL    HW230225   2.838   1.648   1.555
42796SOL     OW30226   4.942  14.771   2.302
42796SOL    HW130227   5.021  14.725   2.329
42796SOL    HW230228   4.971  14.861   2.286
42797SOL     OW30229   3.889   2.873   2.853
42797SOL    HW130230   3.860   2.928   2.780
42797SOL    HW230231   3.972   2.912   2.881
42798SOL     OW30232   0.201   3.630   8.958
42798SOL    HW130233   0.120   3.641   9.008
42798SOL    HW230234   0.198   3.540   8.926
42799SOL     OW30235   1.311  10.669   8.922
42799SOL    HW130236   1.363  10.696   8.847
42799SOL    HW230237   1.374  10.655   8.992
42800SOL     OW30238   6.474   1.400   8.076
42800SOL    HW130239   6.398   1.369   8.027
42800SOL    HW230240   6.543   1.410   8.010
42801SOL     OW30241   5.561  10.337   8.996
42801SOL    HW130242   5.555  10.262   8.936
42801SOL    HW230243   5.524  10.305   9.078
42802SOL     OW30244  10.962   1.938  13.858
42802SOL    HW130245  11.055   1.917  13.849
42802SOL    HW230246  10.920   1.890  13.786
42803SOL     OW30247  14.255  12.313  10.216
42803SOL    HW130248  14.274  12.312  10.310
42803SOL    HW230249  14.306  12.240  10.180
42804SOL     OW30250  14.129   9.049   6.157
42804SOL    HW130251  14.118   9.037   6.062
42804SOL    HW230252  14.128   8.961   6.193
42805SOL     OW30253   7.839  10.225  13.265
42805SOL    HW130254   7.745  10.208  13.273
42805SOL    HW230255   7.879  10.138  13.269
42806SOL     OW30256   6.151   0.809   3.684
42806SOL    HW130257   6.208   0.879   3.716
42806SOL    HW230258   6.103   0.849   3.611
42807SOL     OW30259  14.160  11.206  14.177
42807SOL    HW130260  14.253  11.227  14.177
42807SOL    HW230261  14.120  11.274  14.233
42808SOL     OW30262   2.037   4.347  10.598
42808SOL    HW130263   1.952   4.383  10.573
42808SOL    HW230264   2.053   4.382  10.685
42809SOL     OW30265  10.122  11.758   1.299
42809SOL    HW130266  10.123  11.853   1.309
42809SOL    HW230267  10.065  11.743   1.223
42810SOL     OW30268  13.917  13.980  13.575
42810SOL    HW130269  13.948  13.920  13.506
42810SOL    HW230270  13.906  14.064  13.530
42811SOL     OW30271   1.414   8.343  14.196
42811SOL    HW130272   1.509   8.332  14.198
42811SOL    HW230273   1.401   8.438  14.200
42812SOL     OW30274  13.156   6.026   2.290
42812SOL    HW130275  13.163   6.121   2.295
42812SOL    HW230276  13.102   6.003   2.366
42813SOL     OW30277   3.593  14.851   3.233
42813SOL    HW130278   3.647   0.047   3.251
42813SOL    HW230279   3.506   0.005   3.217
42814SOL     OW30280   9.448   6.575   8.420
42814SOL    HW130281   9.431   6.536   8.335
42814SOL    HW230282   9.466   6.668   8.402
42815SOL     OW30283   3.353   9.787   7.142
42815SOL    HW130284   3.325   9.736   7.066
42815SOL    HW230285   3.412   9.728   7.190
42816SOL     OW30286   5.209   0.528   1.546
42816SOL    HW130287   5.133   0.587   1.546
42816SOL    HW230288   5.174   0.444   1.575
42817SOL     OW30289   1.567   1.159  11.764
42817SOL    HW130290   1.545   1.157  11.858
42817SOL    HW230291   1.544   1.071  11.733
42818SOL     OW30292   3.343   3.686   6.327
42818SOL    HW130293   3.355   3.780   6.312
42818SOL    HW230294   3.351   3.647   6.240
42819SOL     OW30295  13.104   6.260   0.638
42819SOL    HW130296  13.174   6.218   0.588
42819SOL    HW230297  13.083   6.197   0.707
42820SOL     OW30298  12.523   9.774  11.630
42820SOL    HW130299  12.500   9.827  11.554
42820SOL    HW230300  12.591   9.825  11.675
42821SOL     OW30301   5.918  13.198   9.816
42821SOL    HW130302   5.854  13.268   9.827
42821SOL    HW230303   5.872  13.131   9.765
42822SOL     OW30304   7.449  10.361   7.046
42822SOL    HW130305   7.378  10.345   7.107
42822SOL    HW230306   7.417  10.430   6.989
42823SOL     OW30307   6.716   4.665  11.644
42823SOL    HW130308   6.687   4.639  11.732
42823SOL    HW230309   6.666   4.744  11.624
42824SOL     OW30310   9.144  11.263   0.480
42824SOL    HW130311   9.113  11.210   0.406
42824SOL    HW230312   9.071  11.263   0.542
42825SOL     OW30313   6.189  13.427   2.448
42825SOL    HW130314   6.205  13.343   2.405
42825SOL    HW230315   6.173  13.489   2.376
42826SOL     OW30316  13.726  13.697  14.173
42826SOL    HW130317  13.766  13.723  14.256
42826SOL    HW230318  13.668  13.625  14.195
42827SOL     OW30319   5.410   9.456  11.926
42827SOL    HW130320   5.453   9.451  11.841
42827SOL    HW230321   5.430   9.373  11.969
42828SOL     OW30322   8.004  10.406   7.200
42828SOL    HW130323   7.963  10.483   7.163
42828SOL    HW230324   7.965  10.332   7.152
42829SOL     OW30325   1.364   6.421  10.397
42829SOL    HW130326   1.382   6.337  10.355
42829SOL    HW230327   1.450   6.461  10.409
42830SOL     OW30328   4.412   9.038  14.323
42830SOL    HW130329   4.371   9.099  14.383
42830SOL    HW230330   4.480   9.089  14.278
42831SOL     OW30331  10.706  14.401  11.659
42831SOL    HW130332  10.710  14.315  11.617
42831SOL    HW230333  10.774  14.397  11.727
42832SOL     OW30334   2.043   3.895   2.603
42832SOL    HW130335   2.115   3.934   2.652
42832SOL    HW230336   1.998   3.840   2.667
42833SOL     OW30337  13.777   9.479   4.543
42833SOL    HW130338  13.821   9.491   4.627
42833SOL    HW230339  13.780   9.566   4.502
42834SOL     OW30340   5.399   6.764  10.983
42834SOL    HW130341   5.336   6.699  10.952
42834SOL    HW230342   5.378   6.843  10.933
42835SOL     OW30343   2.623  14.021  13.364
42835SOL    HW130344   2.539  13.980  13.387
42835SOL    HW230345   2.656  13.969  13.291
42836SOL     OW30346   2.702   3.564   5.670
42836SOL    HW130347   2.754   3.597   5.743
42836SOL    HW230348   2.626   3.622   5.666
42837SOL     OW30349   5.861   8.580   9.928
42837SOL    HW130350   5.779   8.604   9.973
42837SOL    HW230351   5.865   8.640   9.853
42838SOL     OW30352  14.800  10.236   7.237
42838SOL    HW130353  14.705  10.228   7.238
42838SOL    HW230354  14.817  10.330   7.228
42839SOL     OW30355   7.181   9.126   1.758
42839SOL    HW130356   7.110   9.064   1.771
42839SOL    HW230357   7.208   9.115   1.667
42840SOL     OW30358   8.114   3.067   3.780
42840SOL    HW130359   8.052   3.130   3.818
42840SOL    HW230360   8.061   2.991   3.759
42841SOL     OW30361   6.628   7.681  13.723
42841SOL    HW130362   6.672   7.693  13.639
42841SOL    HW230363   6.654   7.593  13.751
42842SOL     OW30364  10.302   2.072   1.911
42842SOL    HW130365  10.318   1.979   1.896
42842SOL    HW230366  10.344   2.115   1.836
42843SOL     OW30367  14.758   9.141   3.914
42843SOL    HW130368  14.717   9.226   3.927
42843SOL    HW230369  14.738   9.092   3.994
42844SOL     OW30370   4.175   8.557   0.010
42844SOL    HW130371   4.108   8.505   0.054
42844SOL    HW230372   4.126   8.621  14.840
42845SOL     OW30373  12.099   0.248   8.219
42845SOL    HW130374  12.061   0.323   8.175
42845SOL    HW230375  12.097   0.270   8.312
42846SOL     OW30376  13.354   1.918  14.460
42846SOL    HW130377  13.295   1.872  14.400
42846SOL    HW230378  13.405   1.849  14.501
42847SOL     OW30379   3.514   7.135   6.274
42847SOL    HW130380   3.501   7.229   6.260
42847SOL    HW230381   3.524   7.127   6.369
42848SOL     OW30382  12.137   0.579   3.306
42848SOL    HW130383  12.231   0.584   3.327
42848SOL    HW230384  12.095   0.638   3.368
42849SOL     OW30385   2.632  13.607   2.953
42849SOL    HW130386   2.589  13.538   3.004
42849SOL    HW230387   2.676  13.561   2.882
42850SOL     OW30388   3.310  12.023  12.325
42850SOL    HW130389   3.227  11.999  12.366
42850SOL    HW230390   3.326  12.112  12.354
42851SOL     OW30391   7.384  11.100   9.985
42851SOL    HW130392   7.473  11.128   9.966
42851SOL    HW230393   7.390  11.004   9.994
42852SOL     OW30394   7.553   6.874   7.945
42852SOL    HW130395   7.491   6.813   7.985
42852SOL    HW230396   7.521   6.961   7.972
42853SOL     OW30397   5.307   2.031   1.443
42853SOL    HW130398   5.395   2.064   1.423
42853SOL    HW230399   5.276   1.994   1.361
42854SOL     OW30400   1.697   1.357   0.985
42854SOL    HW130401   1.764   1.294   1.010
42854SOL    HW230402   1.746   1.428   0.943
42855SOL     OW30403   1.061   6.742   9.565
42855SOL    HW130404   1.043   6.740   9.659
42855SOL    HW230405   0.977   6.723   9.524
42856SOL     OW30406   5.299  11.660   2.615
42856SOL    HW130407   5.310  11.631   2.524
42856SOL    HW230408   5.208  11.637   2.636
42857SOL     OW30409  10.863   7.011   1.572
42857SOL    HW130410  10.947   7.050   1.547
42857SOL    HW230411  10.823   7.076   1.630
42858SOL     OW30412   0.759   9.459   4.822
42858SOL    HW130413   0.769   9.367   4.847
42858SOL    HW230414   0.808   9.468   4.740
42859SOL     OW30415   8.070  10.870  11.876
42859SOL    HW130416   7.989  10.886  11.924
42859SOL    HW230417   8.097  10.957  11.845
42860SOL     OW30418  12.750   1.112   9.152
42860SOL    HW130419  12.785   1.026   9.177
42860SOL    HW230420  12.748   1.110   9.057
42861SOL     OW30421   7.029   3.788  10.979
42861SOL    HW130422   6.998   3.765  11.066
42861SOL    HW230423   6.983   3.869  10.957
42862SOL     OW30424  14.029   8.620   5.535
42862SOL    HW130425  14.087   8.655   5.466
42862SOL    HW230426  14.049   8.674   5.612
42863SOL     OW30427  11.146   5.687  10.408
42863SOL    HW130428  11.148   5.673  10.502
42863SOL    HW230429  11.067   5.737  10.392
42864SOL     OW30430  12.568   0.056  13.606
42864SOL    HW130431  12.473   0.046  13.616
42864SOL    HW230432  12.603   0.040  13.693
42865SOL     OW30433  14.541  13.130  13.158
42865SOL    HW130434  14.524  13.041  13.128
42865SOL    HW230435  14.460  13.178  13.142
42866SOL     OW30436   8.034   1.456  10.148
42866SOL    HW130437   7.982   1.518  10.199
42866SOL    HW230438   8.117   1.450  10.194
42867SOL     OW30439   1.104   9.623  14.640
42867SOL    HW130440   1.198   9.639  14.652
42867SOL    HW230441   1.098   9.529  14.622
42868SOL     OW30442   8.439   0.837   8.296
42868SOL    HW130443   8.517   0.883   8.327
42868SOL    HW230444   8.388   0.820   8.375
42869SOL     OW30445   2.649  13.821   7.338
42869SOL    HW130446   2.651  13.783   7.425
42869SOL    HW230447   2.597  13.759   7.286
42870SOL     OW30448  14.870   5.549   6.329
42870SOL    HW130449  14.795   5.562   6.387
42870SOL    HW230450  14.862   5.619   6.264
42871SOL     OW30451   3.134  12.112   7.683
42871SOL    HW130452   3.212  12.058   7.670
42871SOL    HW230453   3.167  12.194   7.719
42872SOL     OW30454  10.173  14.219   9.492
42872SOL    HW130455  10.176  14.312   9.515
42872SOL    HW230456  10.139  14.218   9.403
42873SOL     OW30457   0.540   8.203  14.124
42873SOL    HW130458   0.569   8.263  14.193
42873SOL    HW230459   0.618   8.151  14.104
42874SOL     OW30460   3.576  12.541   3.556
42874SOL    HW130461   3.658  12.498   3.577
42874SOL    HW230462   3.569  12.613   3.619
42875SOL     OW30463   3.346   0.477  11.146
42875SOL    HW130464   3.353   0.396  11.196
42875SOL    HW230465   3.344   0.449  11.055
42876SOL     OW30466   1.577  13.717  10.080
42876SOL    HW130467   1.503  13.778  10.081
42876SOL    HW230468   1.626  13.741  10.002
42877SOL     OW30469   4.892  13.059  13.919
42877SOL    HW130470   4.956  13.108  13.866
42877SOL    HW230471   4.902  13.094  14.007
42878SOL     OW30472   3.596   3.861   5.802
42878SOL    HW130473   3.662   3.817   5.748
42878SOL    HW230474   3.524   3.879   5.742
42879SOL     OW30475   4.238   4.495  12.081
42879SOL    HW130476   4.180   4.442  12.026
42879SOL    HW230477   4.320   4.500  12.031
42880SOL     OW30478   8.368   9.923  13.754
42880SOL    HW130479   8.327   9.980  13.689
42880SOL    HW230480   8.319   9.841  13.749
42881SOL     OW30481   7.615   9.024   4.742
42881SOL    HW130482   7.594   9.036   4.650
42881SOL    HW230483   7.535   8.987   4.780
42882SOL     OW30484  11.912   8.768   1.671
42882SOL    HW130485  11.998   8.737   1.701
42882SOL    HW230486  11.864   8.786   1.752
42883SOL     OW30487   1.396  11.865   8.257
42883SOL    HW130488   1.338  11.791   8.277
42883SOL    HW230489   1.458  11.830   8.194
42884SOL     OW30490   1.980   5.465   5.103
42884SOL    HW130491   1.945   5.433   5.186
42884SOL    HW230492   1.924   5.425   5.037
42885SOL     OW30493  11.814   5.487  12.372
42885SOL    HW130494  11.763   5.502  12.451
42885SOL    HW230495  11.770   5.414  12.328
42886SOL     OW30496   0.593   1.395   6.689
42886SOL    HW130497   0.656   1.464   6.715
42886SOL    HW230498   0.598   1.393   6.594
42887SOL     OW30499  13.177   0.368   8.227
42887SOL    HW130500  13.180   0.418   8.146
42887SOL    HW230501  13.223   0.287   8.208
42888SOL     OW30502   4.804  14.115  14.242
42888SOL    HW130503   4.800  14.028  14.203
42888SOL    HW230504   4.718  14.153  14.226
42889SOL     OW30505  14.369  10.186   0.026
42889SOL    HW130506  14.321  10.266   0.006
42889SOL    HW230507  14.402  10.156  14.823
42890SOL     OW30508   7.024   8.097   5.709
42890SOL    HW130509   7.025   8.192   5.714
42890SOL    HW230510   7.045   8.077   5.618
42891SOL     OW30511   8.115   3.272   2.053
42891SOL    HW130512   8.186   3.288   1.990
42891SOL    HW230513   8.118   3.348   2.112
42892SOL     OW30514   8.792  13.541   8.574
42892SOL    HW130515   8.831  13.619   8.534
42892SOL    HW230516   8.709  13.571   8.609
42893SOL     OW30517  13.094   6.640   7.049
42893SOL    HW130518  13.174   6.657   7.098
42893SOL    HW230519  13.116   6.659   6.958
42894SOL     OW30520  14.037  14.717  10.616
42894SOL    HW130521  13.996  14.636  10.645
42894SOL    HW230522  14.077  14.696  10.532
42895SOL     OW30523   6.985   7.806  12.813
42895SOL    HW130524   7.080   7.809  12.814
42895SOL    HW230525   6.960   7.781  12.902
42896SOL     OW30526   1.579   8.109  11.404
42896SOL    HW130527   1.646   8.177  11.413
42896SOL    HW230528   1.520   8.143  11.337
42897SOL     OW30529  10.987  12.505  11.371
42897SOL    HW130530  11.046  12.496  11.296
42897SOL    HW230531  10.995  12.597  11.397
42898SOL     OW30532  12.381   0.008   9.620
42898SOL    HW130533  12.390   0.096   9.584
42898SOL    HW230534  12.297  14.859   9.587
42899SOL     OW30535   1.202  14.516   6.545
42899SOL    HW130536   1.167  14.589   6.494
42899SOL    HW230537   1.228  14.555   6.629
42900SOL     OW30538  11.300   2.610   7.407
42900SOL    HW130539  11.248   2.664   7.347
42900SOL    HW230540  11.342   2.673   7.465
42901SOL     OW30541   0.278   8.268   2.009
42901SOL    HW130542   0.327   8.299   1.933
42901SOL    HW230543   0.220   8.340   2.032
42902SOL     OW30544   3.729   5.555   8.513
42902SOL    HW130545   3.690   5.480   8.468
42902SOL    HW230546   3.655   5.614   8.530
42903SOL     OW30547   0.292  10.669  11.720
42903SOL    HW130548   0.276  10.578  11.694
42903SOL    HW230549   0.294  10.667  11.815
42904SOL     OW30550  10.891   4.689   1.462
42904SOL    HW130551  10.853   4.771   1.429
42904SOL    HW230552  10.939   4.715   1.541
42905SOL     OW30553   2.314   0.972   4.180
42905SOL    HW130554   2.232   1.019   4.163
42905SOL    HW230555   2.290   0.880   4.166
42906SOL     OW30556   7.622   9.482  13.729
42906SOL    HW130557   7.712   9.513  13.739
42906SOL    HW230558   7.607   9.482  13.634
42907SOL     OW30559   6.047   2.341   7.801
42907SOL    HW130560   6.024   2.351   7.709
42907SOL    HW230561   6.127   2.288   7.800
42908SOL     OW30562  12.949   9.842   8.848
42908SOL    HW130563  12.889   9.776   8.882
42908SOL    HW230564  12.919   9.859   8.759
42909SOL     OW30565  11.952   9.016   3.209
42909SOL    HW130566  12.047   9.028   3.211
42909SOL    HW230567  11.937   8.930   3.248
42910SOL     OW30568   5.704  14.504   0.899
42910SOL    HW130569   5.662  14.589   0.881
42910SOL    HW230570   5.714  14.503   0.994
42911SOL     OW30571   6.748   0.599   7.134
42911SOL    HW130572   6.724   0.590   7.226
42911SOL    HW230573   6.836   0.638   7.136
42912SOL     OW30574  13.766  12.930   0.306
42912SOL    HW130575  13.730  12.842   0.310
42912SOL    HW230576  13.800  12.938   0.216
42913SOL     OW30577   6.813   6.247   1.358
42913SOL    HW130578   6.796   6.257   1.452
42913SOL    HW230579   6.908   6.257   1.349
42914SOL     OW30580  12.921   2.976   6.716
42914SOL    HW130581  12.930   2.882   6.732
42914SOL    HW230582  13.003   3.000   6.672
42915SOL     OW30583   6.877   3.037   0.047
42915SOL    HW130584   6.844   2.995   0.126
42915SOL    HW230585   6.865   3.130   0.062
42916SOL     OW30586  13.741  10.661  13.634
42916SOL    HW130587  13.821  10.694  13.592
42916SOL    HW230588  13.740  10.704  13.720
42917SOL     OW30589   7.597   6.081   1.348
42917SOL    HW130590   7.650   6.064   1.270
42917SOL    HW230591   7.601   6.176   1.359
42918SOL     OW30592   2.142   8.244   7.987
42918SOL    HW130593   2.172   8.322   7.940
42918SOL    HW230594   2.082   8.201   7.926
42919SOL     OW30595  13.568  10.551   3.008
42919SOL    HW130596  13.525  10.598   3.080
42919SOL    HW230597  13.563  10.459   3.032
42920SOL     OW30598   8.288   2.170  11.464
42920SOL    HW130599   8.329   2.139  11.544
42920SOL    HW230600   8.355   2.161  11.396
42921SOL     OW30601  12.667   4.168  10.214
42921SOL    HW130602  12.640   4.228  10.284
42921SOL    HW230603  12.721   4.103  10.259
42922SOL     OW30604   3.947   3.706   8.214
42922SOL    HW130605   4.015   3.654   8.171
42922SOL    HW230606   3.927   3.776   8.152
42923SOL     OW30607  14.262   1.442   8.405
42923SOL    HW130608  14.338   1.471   8.354
42923SOL    HW230609  14.188   1.449   8.344
42924SOL     OW30610   2.873   9.962  12.599
42924SOL    HW130611   2.870   9.873  12.564
42924SOL    HW230612   2.935  10.008  12.542
42925SOL     OW30613   9.027   4.997  14.355
42925SOL    HW130614   9.047   5.045  14.436
42925SOL    HW230615   9.089   5.031  14.291
42926SOL     OW30616   2.844  11.613   4.669
42926SOL    HW130617   2.845  11.680   4.601
42926SOL    HW230618   2.916  11.554   4.647
42927SOL     OW30619   3.576   8.339   7.173
42927SOL    HW130620   3.661   8.356   7.133
42927SOL    HW230621   3.590   8.360   7.266
42928SOL     OW30622  12.163   4.971  14.166
42928SOL    HW130623  12.069   4.991  14.162
42928SOL    HW230624  12.205   5.051  14.132
42929SOL     OW30625   4.464   7.001  12.620
42929SOL    HW130626   4.453   6.911  12.589
42929SOL    HW230627   4.401   7.051  12.567
42930SOL     OW30628   7.844   3.203   8.641
42930SOL    HW130629   7.867   3.114   8.668
42930SOL    HW230630   7.901   3.221   8.566
42931SOL     OW30631   1.110  10.147   3.480
42931SOL    HW130632   1.203  10.168   3.489
42931SOL    HW230633   1.065  10.211   3.535
42932SOL     OW30634   6.342   2.244   9.388
42932SOL    HW130635   6.270   2.296   9.351
42932SOL    HW230636   6.421   2.283   9.351
42933SOL     OW30637  11.091   2.639   2.164
42933SOL    HW130638  11.093   2.732   2.144
42933SOL    HW230639  11.071   2.635   2.258
42934SOL     OW30640  12.895   2.614   5.899
42934SOL    HW130641  12.808   2.654   5.906
42934SOL    HW230642  12.899   2.554   5.974
42935SOL     OW30643   4.191   6.612  10.009
42935SOL    HW130644   4.184   6.517  10.024
42935SOL    HW230645   4.285   6.628  10.000
42936SOL     OW30646   9.302   8.509   1.962
42936SOL    HW130647   9.279   8.536   2.050
42936SOL    HW230648   9.297   8.414   1.963
42937SOL     OW30649   8.931  11.842   2.982
42937SOL    HW130650   8.984  11.890   3.046
42937SOL    HW230651   8.909  11.907   2.916
42938SOL     OW30652   0.982  12.328   8.054
42938SOL    HW130653   0.920  12.391   8.017
42938SOL    HW230654   0.939  12.244   8.046
42939SOL     OW30655   8.870   5.511   5.484
42939SOL    HW130656   8.921   5.588   5.458
42939SOL    HW230657   8.860   5.519   5.579
42940SOL     OW30658   1.844   4.233   0.676
42940SOL    HW130659   1.878   4.274   0.755
42940SOL    HW230660   1.802   4.152   0.708
42941SOL     OW30661  14.352   0.154  13.953
42941SOL    HW130662  14.294   0.201  13.893
42941SOL    HW230663  14.370   0.070  13.911
42942SOL     OW30664   5.067   9.783   2.060
42942SOL    HW130665   5.162   9.792   2.059
42942SOL    HW230666   5.038   9.828   1.981
42943SOL     OW30667   6.527   6.599   6.584
42943SOL    HW130668   6.607   6.603   6.635
42943SOL    HW230669   6.515   6.687   6.549
42944SOL     OW30670  11.102   2.608   7.143
42944SOL    HW130671  11.151   2.526   7.142
42944SOL    HW230672  11.037   2.599   7.073
42945SOL     OW30673   5.166   0.091   5.056
42945SOL    HW130674   5.170   0.032   5.131
42945SOL    HW230675   5.200   0.040   4.983
42946SOL     OW30676   6.065   1.817  11.668
42946SOL    HW130677   6.133   1.851  11.609
42946SOL    HW230678   6.042   1.732  11.631
42947SOL     OW30679   8.935   7.402  13.759
42947SOL    HW130680   8.946   7.315  13.722
42947SOL    HW230681   9.024   7.438  13.765
42948SOL     OW30682   0.544  11.091   0.919
42948SOL    HW130683   0.562  11.173   0.966
42948SOL    HW230684   0.466  11.056   0.962
42949SOL     OW30685   1.436  12.314  12.418
42949SOL    HW130686   1.375  12.381  12.389
42949SOL    HW230687   1.402  12.233  12.381
42950SOL     OW30688   5.946  13.503  14.369
42950SOL    HW130689   5.904  13.429  14.414
42950SOL    HW230690   5.971  13.563  14.439
42951SOL     OW30691  14.154  13.682   4.802
42951SOL    HW130692  14.108  13.765   4.795
42951SOL    HW230693  14.164  13.668   4.897
42952SOL     OW30694  10.458   9.037  13.078
42952SOL    HW130695  10.509   8.957  13.062
42952SOL    HW230696  10.403   9.045  13.000
42953SOL     OW30697   8.126   3.677   5.315
42953SOL    HW130698   8.125   3.617   5.240
42953SOL    HW230699   8.060   3.743   5.295
42954SOL     OW30700   3.137   4.090   9.473
42954SOL    HW130701   3.084   4.052   9.403
42954SOL    HW230702   3.227   4.085   9.441
42955SOL     OW30703   4.148   9.158  12.462
42955SOL    HW130704   4.140   9.208  12.380
42955SOL    HW230705   4.097   9.079  12.447
42956SOL     OW30706   3.270   5.344   2.390
42956SOL    HW130707   3.218   5.287   2.331
42956SOL    HW230708   3.329   5.283   2.435
42957SOL     OW30709   9.810   6.319   4.623
42957SOL    HW130710   9.802   6.279   4.536
42957SOL    HW230711   9.877   6.267   4.667
42958SOL     OW30712   5.646   8.246   0.521
42958SOL    HW130713   5.596   8.164   0.524
42958SOL    HW230714   5.703   8.235   0.445
42959SOL     OW30715  12.616   9.563   9.584
42959SOL    HW130716  12.672   9.550   9.507
42959SOL    HW230717  12.531   9.588   9.547
42960SOL     OW30718   7.221   4.216   0.202
42960SOL    HW130719   7.298   4.273   0.208
42960SOL    HW230720   7.173   4.232   0.283
42961SOL     OW30721   6.113  12.475   5.341
42961SOL    HW130722   6.196  12.517   5.317
42961SOL    HW230723   6.050  12.508   5.276
42962SOL     OW30724   6.902  11.479   5.403
42962SOL    HW130725   6.951  11.406   5.443
42962SOL    HW230726   6.836  11.501   5.469
42963SOL     OW30727   7.798   9.891   5.583
42963SOL    HW130728   7.790   9.817   5.522
42963SOL    HW230729   7.708   9.912   5.607
42964SOL     OW30730  12.927   5.534   0.000
42964SOL    HW130731  12.888   5.494  14.805
42964SOL    HW230732  13.008   5.574  14.850
42965SOL     OW30733   2.136  11.145   8.055
42965SOL    HW130734   2.079  11.208   8.011
42965SOL    HW230735   2.178  11.196   8.125
42966SOL     OW30736   5.527   5.250   0.852
42966SOL    HW130737   5.463   5.220   0.787
42966SOL    HW230738   5.578   5.317   0.806
42967SOL     OW30739  14.660   3.281   6.167
42967SOL    HW130740  14.663   3.376   6.157
42967SOL    HW230741  14.730   3.249   6.109
42968SOL     OW30742   6.910   0.842  11.776
42968SOL    HW130743   6.933   0.935  11.769
42968SOL    HW230744   6.819   0.838  11.746
42969SOL     OW30745   8.895  11.391   8.344
42969SOL    HW130746   8.858  11.352   8.424
42969SOL    HW230747   8.915  11.481   8.369
42970SOL     OW30748   8.655   9.063   4.628
42970SOL    HW130749   8.689   9.109   4.552
42970SOL    HW230750   8.593   9.125   4.668
42971SOL     OW30751  11.631   7.389   0.195
42971SOL    HW130752  11.588   7.461   0.241
42971SOL    HW230753  11.647   7.423   0.107
42972SOL     OW30754   1.600   0.536   7.854
42972SOL    HW130755   1.620   0.550   7.947
42972SOL    HW230756   1.666   0.589   7.808
42973SOL     OW30757   3.123  12.585  12.935
42973SOL    HW130758   3.127  12.550  12.845
42973SOL    HW230759   3.059  12.656  12.930
42974SOL     OW30760   4.908   5.780   2.397
42974SOL    HW130761   4.900   5.858   2.343
42974SOL    HW230762   4.868   5.804   2.480
42975SOL     OW30763   5.431   3.647   3.911
42975SOL    HW130764   5.411   3.576   3.849
42975SOL    HW230765   5.515   3.682   3.880
42976SOL     OW30766  10.217   1.751  10.923
42976SOL    HW130767  10.269   1.682  10.882
42976SOL    HW230768  10.277   1.793  10.985
42977SOL     OW30769   7.610  12.827   9.437
42977SOL    HW130770   7.516  12.809   9.428
42977SOL    HW230771   7.620  12.917   9.408
42978SOL     OW30772   9.595   0.217   5.060
42978SOL    HW130773   9.541   0.140   5.080
42978SOL    HW230774   9.536   0.278   5.016
42979SOL     OW30775   7.786  10.811   5.058
42979SOL    HW130776   7.799  10.901   5.090
42979SOL    HW230777   7.692  10.804   5.042
42980SOL     OW30778   3.125  11.889  14.705
42980SOL    HW130779   3.173  11.957  14.657
42980SOL    HW230780   3.092  11.831  14.636
42981SOL     OW30781   9.412   2.276   4.562
42981SOL    HW130782   9.441   2.278   4.653
42981SOL    HW230783   9.485   2.312   4.512
42982SOL     OW30784   2.063   4.531   1.068
42982SOL    HW130785   2.078   4.516   1.161
42982SOL    HW230786   2.140   4.580   1.039
42983SOL     OW30787   9.183  13.566   0.477
42983SOL    HW130788   9.272  13.543   0.502
42983SOL    HW230789   9.194  13.638   0.415
42984SOL     OW30790   0.002   7.454  11.914
42984SOL    HW130791   0.065   7.397  11.958
42984SOL    HW230792   0.003   7.425  11.823
42985SOL     OW30793  10.116  13.959   8.039
42985SOL    HW130794  10.173  13.888   8.008
42985SOL    HW230795  10.151  14.037   7.997
42986SOL     OW30796   1.521   7.813   5.541
42986SOL    HW130797   1.431   7.840   5.521
42986SOL    HW230798   1.558   7.789   5.456
42987SOL     OW30799   7.238   5.171   1.969
42987SOL    HW130800   7.253   5.244   2.029
42987SOL    HW230801   7.241   5.210   1.882
42988SOL     OW30802   9.744  14.497   9.401
42988SOL    HW130803   9.723  14.500   9.494
42988SOL    HW230804   9.659  14.493   9.357
42989SOL     OW30805  12.554   8.981  14.299
42989SOL    HW130806  12.473   9.032  14.296
42989SOL    HW230807  12.553   8.939  14.385
42990SOL     OW30808   2.992   4.724  13.209
42990SOL    HW130809   2.981   4.708  13.303
42990SOL    HW230810   3.051   4.655  13.179
42991SOL     OW30811   5.668   9.398   6.633
42991SOL    HW130812   5.631   9.367   6.550
42991SOL    HW230813   5.594   9.402   6.693
42992SOL     OW30814   8.762   1.042  12.739
42992SOL    HW130815   8.855   1.056  12.756
42992SOL    HW230816   8.719   1.064  12.822
42993SOL     OW30817  13.458   2.996  11.787
42993SOL    HW130818  13.452   3.078  11.835
42993SOL    HW230819  13.545   2.998  11.747
42994SOL     OW30820  10.305   7.328   4.392
42994SOL    HW130821  10.354   7.358   4.469
42994SOL    HW230822  10.236   7.273   4.428
42995SOL     OW30823   3.902  13.135   7.093
42995SOL    HW130824   3.840  13.207   7.104
42995SOL    HW230825   3.959  13.140   7.170
42996SOL     OW30826   6.209  13.305   3.298
42996SOL    HW130827   6.147  13.247   3.254
42996SOL    HW230828   6.207  13.279   3.390
42997SOL     OW30829  11.476   0.902  12.536
42997SOL    HW130830  11.482   0.809  12.513
42997SOL    HW230831  11.523   0.947  12.465
42998SOL     OW30832   8.371  11.637   3.628
42998SOL    HW130833   8.316  11.605   3.557
42998SOL    HW230834   8.398  11.558   3.675
42999SOL     OW30835   1.979   8.241   7.754
42999SOL    HW130836   1.959   8.273   7.666
42999SOL    HW230837   1.940   8.305   7.813
43000SOL     OW30838  12.572  12.336  10.252
43000SOL    HW130839  12.583  12.419  10.297
43000SOL    HW230840  12.571  12.271  10.322
43001SOL     OW30841  13.745   7.054   8.093
43001SOL    HW130842  13.704   7.104   8.022
43001SOL    HW230843  13.802   7.118   8.136
43002SOL     OW30844   1.314   4.939   8.336
43002SOL    HW130845   1.366   4.867   8.299
43002SOL    HW230846   1.376   5.011   8.343
43003SOL     OW30847  14.241   4.604   2.292
43003SOL    HW130848  14.160   4.577   2.334
43003SOL    HW230849  14.236   4.700   2.289
43004SOL     OW30850   3.717   9.559  11.368
43004SOL    HW130851   3.812   9.547  11.364
43004SOL    HW230852   3.705   9.654  11.371
43005SOL     OW30853   6.478  13.537  12.048
43005SOL    HW130854   6.569  13.561  12.032
43005SOL    HW230855   6.458  13.573  12.134
43006SOL     OW30856   6.895   6.560   1.266
43006SOL    HW130857   6.815   6.545   1.317
43006SOL    HW230858   6.952   6.487   1.290
43007SOL     OW30859   9.020   7.677  11.522
43007SOL    HW130860   9.008   7.595  11.570
43007SOL    HW230861   8.961   7.670  11.447
43008SOL     OW30862  10.195   1.328   1.751
43008SOL    HW130863  10.131   1.351   1.685
43008SOL    HW230864  10.145   1.321   1.832
43009SOL     OW30865  14.581   3.440   8.236
43009SOL    HW130866  14.509   3.494   8.205
43009SOL    HW230867  14.656   3.500   8.241
43010SOL     OW30868   7.451   9.062  14.439
43010SOL    HW130869   7.510   9.021  14.503
43010SOL    HW230870   7.365   9.023  14.457
43011SOL     OW30871   8.953  13.487   5.673
43011SOL    HW130872   8.961  13.527   5.760
43011SOL    HW230873   9.043  13.465   5.649
43012SOL     OW30874   8.310   4.509  14.212
43012SOL    HW130875   8.376   4.546  14.271
43012SOL    HW230876   8.354   4.502  14.127
43013SOL     OW30877  14.852  11.069   9.818
43013SOL    HW130878  14.788  11.079   9.889
43013SOL    HW230879  14.873  11.159   9.792
43014SOL     OW30880   4.630  14.002   0.024
43014SOL    HW130881   4.641  13.919   0.070
43014SOL    HW230882   4.542  14.031   0.047
43015SOL     OW30883  14.732   4.878   6.474
43015SOL    HW130884  14.752   4.865   6.567
43015SOL    HW230885  14.750   4.970   6.458
43016SOL     OW30886  10.789   0.471   0.062
43016SOL    HW130887  10.794   0.409  14.871
43016SOL    HW230888  10.818   0.421   0.138
43017SOL     OW30889   7.100  14.163   5.236
43017SOL    HW130890   7.153  14.184   5.313
43017SOL    HW230891   7.159  14.114   5.179
43018SOL     OW30892   6.533   5.747   8.874
43018SOL    HW130893   6.465   5.778   8.935
43018SOL    HW230894   6.499   5.769   8.788
43019SOL     OW30895   6.052   7.494   2.942
43019SOL    HW130896   5.991   7.422   2.923
43019SOL    HW230897   6.045   7.506   3.037
43020SOL     OW30898  11.471   0.597   3.708
43020SOL    HW130899  11.551   0.624   3.663
43020SOL    HW230900  11.456   0.507   3.679
43021SOL     OW30901  10.632   4.448   5.117
43021SOL    HW130902  10.607   4.397   5.040
43021SOL    HW230903  10.632   4.538   5.087
43022SOL     OW30904  10.187  10.480   7.691
43022SOL    HW130905  10.133  10.443   7.762
43022SOL    HW230906  10.147  10.446   7.611
43023SOL     OW30907   2.060   9.957   3.254
43023SOL    HW130908   2.086   9.883   3.200
43023SOL    HW230909   1.981   9.929   3.299
43024SOL     OW30910   2.676  14.420   7.195
43024SOL    HW130911   2.711  14.335   7.169
43024SOL    HW230912   2.743  14.483   7.167
43025SOL     OW30913  10.086   7.572  10.654
43025SOL    HW130914  10.174   7.538  10.671
43025SOL    HW230915  10.041   7.498  10.612
43026SOL     OW30916   3.926   7.730   1.451
43026SOL    HW130917   4.002   7.677   1.428
43026SOL    HW230918   3.917   7.721   1.546
43027SOL     OW30919   6.596  13.032   0.992
43027SOL    HW130920   6.545  12.964   0.948
43027SOL    HW230921   6.607  13.000   1.081
43028SOL     OW30922  14.708   6.123   0.317
43028SOL    HW130923  14.797   6.096   0.292
43028SOL    HW230924  14.704   6.107   0.411
43029SOL     OW30925   6.378   7.792   8.311
43029SOL    HW130926   6.334   7.778   8.395
43029SOL    HW230927   6.371   7.708   8.266
43030SOL     OW30928   9.490  13.543  12.167
43030SOL    HW130929   9.462  13.634  12.176
43030SOL    HW230930   9.559  13.533  12.232
43031SOL     OW30931  13.783   9.971  12.574
43031SOL    HW130932  13.702   9.960  12.525
43031SOL    HW230933  13.834   9.891  12.556
43032SOL     OW30934   2.985   4.688   3.343
43032SOL    HW130935   2.984   4.592   3.352
43032SOL    HW230936   2.987   4.720   3.432
43033SOL     OW30937   1.569   6.377   5.888
43033SOL    HW130938   1.590   6.284   5.889
43033SOL    HW230939   1.491   6.385   5.943
43034SOL     OW30940  14.118  12.181   8.018
43034SOL    HW130941  14.211  12.178   8.042
43034SOL    HW230942  14.074  12.203   8.100
43035SOL     OW30943   9.635   5.489  11.697
43035SOL    HW130944   9.708   5.485  11.636
43035SOL    HW230945   9.558   5.508  11.643
43036SOL     OW30946   1.284   6.598   3.457
43036SOL    HW130947   1.271   6.580   3.364
43036SOL    HW230948   1.274   6.693   3.464
43037SOL     OW30949   6.042  12.124   1.736
43037SOL    HW130950   6.108  12.193   1.742
43037SOL    HW230951   6.029  12.095   1.826
43038SOL     OW30952  12.185   5.182   4.022
43038SOL    HW130953  12.259   5.239   4.003
43038SOL    HW230954  12.107   5.234   4.000
43039SOL     OW30955  13.060  14.425   2.233
43039SOL    HW130956  13.079  14.388   2.319
43039SOL    HW230957  13.140  14.471   2.208
43040SOL     OW30958   3.258  14.630  12.602
43040SOL    HW130959   3.175  14.589  12.578
43040SOL    HW230960   3.278  14.687  12.527
43041SOL     OW30961   6.455   1.137  13.812
43041SOL    HW130962   6.496   1.212  13.856
43041SOL    HW230963   6.517   1.065  13.825
43042SOL     OW30964  10.021   6.993   6.164
43042SOL    HW130965   9.948   6.944   6.202
43042SOL    HW230966  10.031   6.955   6.076
43043SOL     OW30967   3.987   3.245   2.213
43043SOL    HW130968   4.079   3.228   2.192
43043SOL    HW230969   3.989   3.308   2.284
43044SOL     OW30970   4.304  11.769   0.708
43044SOL    HW130971   4.236  11.702   0.715
43044SOL    HW230972   4.367  11.747   0.776
43045SOL     OW30973   7.221   4.708  14.172
43045SOL    HW130974   7.159   4.746  14.235
43045SOL    HW230975   7.173   4.705  14.090
43046SOL     OW30976   5.380  11.442   5.390
43046SOL    HW130977   5.409  11.482   5.308
43046SOL    HW230978   5.303  11.389   5.365
43047SOL     OW30979   3.746   1.967  11.501
43047SOL    HW130980   3.781   1.963  11.412
43047SOL    HW230981   3.821   1.948  11.557
43048SOL     OW30982  12.921   2.404  11.954
43048SOL    HW130983  12.935   2.413  12.048
43048SOL    HW230984  12.877   2.485  11.928
43049SOL     OW30985  12.776  14.656   4.600
43049SOL    HW130986  12.850  14.595   4.605
43049SOL    HW230987  12.798  14.714   4.528
43050SOL     OW30988  11.545   6.676   6.117
43050SOL    HW130989  11.602   6.750   6.099
43050SOL    HW230990  11.471   6.688   6.058
43051SOL     OW30991   8.089  14.050   9.614
43051SOL    HW130992   8.073  13.963   9.652
43051SOL    HW230993   8.120  14.103   9.687
43052SOL     OW30994   9.607   5.505   6.876
43052SOL    HW130995   9.636   5.596   6.878
43052SOL    HW230996   9.563   5.495   6.792
43053SOL     OW30997   9.688   2.099   9.404
43053SOL    HW130998   9.679   2.194   9.399
43053SOL    HW230999   9.640   2.074   9.483
43054SOL     OW31000   8.535  13.147  13.652
43054SOL    HW131001   8.605  13.082  13.657
43054SOL    HW231002   8.484  13.123  13.575
43055SOL     OW31003   4.170  13.401   1.618
43055SOL    HW131004   4.214  13.318   1.598
43055SOL    HW231005   4.093  13.375   1.668
43056SOL     OW31006  10.509   7.365   3.382
43056SOL    HW131007  10.588   7.352   3.330
43056SOL    HW231008  10.473   7.449   3.351
43057SOL     OW31009  10.323  14.404  12.281
43057SOL    HW131010  10.294  14.315  12.294
43057SOL    HW231011  10.401  14.413  12.336
43058SOL     OW31012   6.625   2.052  11.105
43058SOL    HW131013   6.630   2.145  11.083
43058SOL    HW231014   6.533   2.038  11.128
43059SOL     OW31015   2.551   3.120   4.380
43059SOL    HW131016   2.569   3.167   4.299
43059SOL    HW231017   2.542   3.188   4.446
43060SOL     OW31018  13.438   1.999   1.077
43060SOL    HW131019  13.506   1.933   1.080
43060SOL    HW231020  13.467   2.067   1.139
43061SOL     OW31021  12.711   8.007  12.373
43061SOL    HW131022  12.721   8.101  12.364
43061SOL    HW231023  12.741   7.987  12.462
43062SOL     OW31024   2.921  13.009   6.385
43062SOL    HW131025   2.910  13.027   6.479
43062SOL    HW231026   2.840  12.965   6.360
43063SOL     OW31027  12.445  14.044  12.264
43063SOL    HW131028  12.374  14.087  12.310
43063SOL    HW231029  12.407  13.964  12.229
43064SOL     OW31030   7.002  14.286  11.380
43064SOL    HW131031   6.948  14.279  11.302
43064SOL    HW231032   6.945  14.326  11.446
43065SOL     OW31033   4.206   4.970   3.356
43065SOL    HW131034   4.292   4.950   3.319
43065SOL    HW231035   4.226   5.012   3.440
43066SOL     OW31036  14.148   2.227   8.118
43066SOL    HW131037  14.063   2.261   8.090
43066SOL    HW231038  14.157   2.258   8.209
43067SOL     OW31039   3.704   3.264   6.989
43067SOL    HW131040   3.740   3.345   7.025
43067SOL    HW231041   3.722   3.269   6.896
43068SOL     OW31042   0.054   2.193   6.976
43068SOL    HW131043   0.080   2.113   7.021
43068SOL    HW231044   0.031   2.254   7.045
43069SOL     OW31045   5.264   8.512   3.744
43069SOL    HW131046   5.201   8.454   3.787
43069SOL    HW231047   5.211   8.583   3.708
43070SOL     OW31048   4.311  12.973  12.374
43070SOL    HW131049   4.328  12.893  12.325
43070SOL    HW231050   4.259  13.027  12.315
43071SOL     OW31051   5.078   0.219   6.280
43071SOL    HW131052   5.120   0.221   6.365
43071SOL    HW231053   4.990   0.254   6.296
43072SOL     OW31054  10.498   3.656  11.635
43072SOL    HW131055  10.557   3.626  11.704
43072SOL    HW231056  10.484   3.749  11.654
43073SOL     OW31057  12.603   5.336   3.768
43073SOL    HW131058  12.518   5.327   3.724
43073SOL    HW231059  12.584   5.324   3.861
43074SOL     OW31060   4.797   4.207  10.270
43074SOL    HW131061   4.825   4.157  10.347
43074SOL    HW231062   4.827   4.296  10.288
43075SOL     OW31063   5.442   2.220  14.805
43075SOL    HW131064   5.481   2.297  14.847
43075SOL    HW231065   5.470   2.146  14.860
43076SOL     OW31066  11.460  13.210  11.313
43076SOL    HW131067  11.518  13.273  11.269
43076SOL    HW231068  11.516  13.168  11.378
43077SOL     OW31069  10.712   1.015  11.395
43077SOL    HW131070  10.679   0.981  11.312
43077SOL    HW231071  10.652   0.978  11.461
43078SOL     OW31072   9.159   6.076   7.100
43078SOL    HW131073   9.080   6.101   7.053
43078SOL    HW231074   9.156   5.980   7.104
43079SOL     OW31075   5.591  13.989   6.679
43079SOL    HW131076   5.498  13.972   6.696
43079SOL    HW231077   5.632  13.902   6.683
43080SOL     OW31078   0.657  14.514   5.483
43080SOL    HW131079   0.654  14.583   5.417
43080SOL    HW231080   0.580  14.529   5.538
43081SOL     OW31081  11.307  13.323  12.217
43081SOL    HW131082  11.360  13.329  12.138
43081SOL    HW231083  11.221  13.292  12.187
43082SOL     OW31084   4.133  12.413   6.184
43082SOL    HW131085   4.068  12.425   6.115
43082SOL    HW231086   4.085  12.425   6.266
43083SOL     OW31087  12.318  13.400  13.640
43083SOL    HW131088  12.355  13.324  13.685
43083SOL    HW231089  12.239  13.421  13.689
43084SOL     OW31090   3.396   5.094   2.326
43084SOL    HW131091   3.309   5.086   2.365
43084SOL    HW231092   3.383   5.071   2.234
43085SOL     OW31093   1.790   3.688   1.762
43085SOL    HW131094   1.785   3.784   1.758
43085SOL    HW231095   1.749   3.659   1.681
43086SOL     OW31096   4.240   2.008   4.785
43086SOL    HW131097   4.306   2.056   4.835
43086SOL    HW231098   4.190   2.076   4.740
43087SOL     OW31099   4.268  10.590  10.269
43087SOL    HW131100   4.286  10.505  10.310
43087SOL    HW231101   4.292  10.654  10.336
43088SOL     OW31102   7.816   9.179   6.342
43088SOL    HW131103   7.897   9.130   6.353
43088SOL    HW231104   7.793   9.208   6.430
43089SOL     OW31105   7.530  10.177   7.333
43089SOL    HW131106   7.538  10.083   7.319
43089SOL    HW231107   7.617  10.203   7.363
43090SOL     OW31108   0.315   9.001   7.988
43090SOL    HW131109   0.364   9.037   8.062
43090SOL    HW231110   0.237   8.963   8.028
43091SOL     OW31111   0.401   9.114   5.376
43091SOL    HW131112   0.354   9.065   5.443
43091SOL    HW231113   0.366   9.203   5.382
43092SOL     OW31114   3.071  11.275   0.913
43092SOL    HW131115   3.005  11.277   0.844
43092SOL    HW231116   3.031  11.220   0.981
43093SOL     OW31117   6.482   8.944  13.003
43093SOL    HW131118   6.551   8.948  12.937
43093SOL    HW231119   6.456   8.852  13.005
43094SOL     OW31120  13.528   4.360  14.814
43094SOL    HW131121  13.546   4.271  14.784
43094SOL    HW231122  13.471   4.349   0.008
43095SOL     OW31123   9.855   0.457   0.018
43095SOL    HW131124   9.784   0.508   0.057
43095SOL    HW231125   9.828   0.366   0.028
43096SOL     OW31126   0.802   8.665   4.819
43096SOL    HW131127   0.814   8.688   4.727
43096SOL    HW231128   0.877   8.609   4.840
43097SOL     OW31129   5.160   7.957   3.855
43097SOL    HW131130   5.226   7.893   3.827
43097SOL    HW231131   5.136   8.003   3.775
43098SOL     OW31132   4.070   7.828  10.989
43098SOL    HW131133   4.034   7.868  10.910
43098SOL    HW231134   4.127   7.758  10.957
43099SOL     OW31135   0.250  13.227  12.542
43099SOL    HW131136   0.253  13.186  12.455
43099SOL    HW231137   0.311  13.300  12.536
43100SOL     OW31138  13.199   1.097   2.351
43100SOL    HW131139  13.219   1.067   2.263
43100SOL    HW231140  13.176   1.017   2.399
43101SOL     OW31141   3.738   0.291   2.707
43101SOL    HW131142   3.714   0.205   2.742
43101SOL    HW231143   3.758   0.344   2.785
43102SOL     OW31144  10.245   9.855  14.383
43102SOL    HW131145  10.245   9.792  14.455
43102SOL    HW231146  10.178   9.919  14.408
43103SOL     OW31147  12.496   6.819   3.995
43103SOL    HW131148  12.558   6.876   4.040
43103SOL    HW231149  12.412   6.863   4.004
43104SOL     OW31150  14.068   3.521   1.986
43104SOL    HW131151  14.020   3.445   1.952
43104SOL    HW231152  14.051   3.590   1.923
43105SOL     OW31153  14.232   9.963  11.661
43105SOL    HW131154  14.235  10.022  11.736
43105SOL    HW231155  14.143   9.928  11.662
43106SOL     OW31156  10.474  12.886   6.738
43106SOL    HW131157  10.503  12.899   6.648
43106SOL    HW231158  10.430  12.969   6.761
43107SOL     OW31159   0.505   9.413   7.887
43107SOL    HW131160   0.568   9.398   7.817
43107SOL    HW231161   0.521   9.503   7.916
43108SOL     OW31162  12.419  14.335   5.531
43108SOL    HW131163  12.342  14.382   5.497
43108SOL    HW231164  12.469  14.402   5.577
43109SOL     OW31165   8.818  13.609   6.469
43109SOL    HW131166   8.828  13.635   6.378
43109SOL    HW231167   8.815  13.691   6.518
43110SOL     OW31168   3.299   0.304   9.543
43110SOL    HW131169   3.304   0.389   9.500
43110SOL    HW231170   3.265   0.245   9.476
43111SOL     OW31171  12.566   9.589   4.904
43111SOL    HW131172  12.596   9.629   4.822
43111SOL    HW231173  12.634   9.611   4.967
43112SOL     OW31174   2.791   2.607   4.810
43112SOL    HW131175   2.830   2.694   4.813
43112SOL    HW231176   2.862   2.550   4.783
43113SOL     OW31177   6.486   0.011   1.562
43113SOL    HW131178   6.539  14.847   1.627
43113SOL    HW231179   6.505   0.104   1.576
43114SOL     OW31180   9.910   2.352   6.802
43114SOL    HW131181   9.997   2.382   6.778
43114SOL    HW231182   9.920   2.315   6.890
43115SOL     OW31183   1.026   8.643   0.329
43115SOL    HW131184   1.105   8.638   0.276
43115SOL    HW231185   0.972   8.570   0.299
43116SOL     OW31186  10.808   6.432   0.781
43116SOL    HW131187  10.887   6.429   0.835
43116SOL    HW231188  10.737   6.415   0.842
43117SOL     OW31189   8.899   1.645   2.122
43117SOL    HW131190   8.936   1.641   2.033
43117SOL    HW231191   8.848   1.564   2.129
43118SOL     OW31192   1.156   2.770   2.933
43118SOL    HW131193   1.199   2.805   3.011
43118SOL    HW231194   1.167   2.675   2.940
43119SOL     OW31195   5.150   0.017   9.057
43119SOL    HW131196   5.179  14.834   9.120
43119SOL    HW231197   5.166   0.101   9.100
43120SOL     OW31198   4.112  12.215  10.506
43120SOL    HW131199   4.109  12.143  10.568
43120SOL    HW231200   4.038  12.271  10.531
43121SOL     OW31201  14.039   0.007  14.246
43121SOL    HW131202  13.962  14.838  14.270
43121SOL    HW231203  14.113  14.828  14.254
43122SOL     OW31204   2.205   5.133   2.227
43122SOL    HW131205   2.268   5.126   2.298
43122SOL    HW231206   2.129   5.175   2.267
43123SOL     OW31207   7.462   6.568   5.055
43123SOL    HW131208   7.369   6.583   5.038
43123SOL    HW231209   7.490   6.508   4.987
43124SOL     OW31210   0.509   4.192   4.265
43124SOL    HW131211   0.548   4.200   4.178
43124SOL    HW231212   0.429   4.141   4.251
43125SOL     OW31213   3.568  11.286   3.041
43125SOL    HW131214   3.633  11.266   2.974
43125SOL    HW231215   3.560  11.205   3.091
43126SOL     OW31216   4.862   3.844   7.903
43126SOL    HW131217   4.890   3.764   7.859
43126SOL    HW231218   4.916   3.913   7.865
43127SOL     OW31219   7.153   2.637   4.875
43127SOL    HW131220   7.114   2.661   4.959
43127SOL    HW231221   7.214   2.708   4.856
43128SOL     OW31222   3.590  12.839   4.596
43128SOL    HW131223   3.603  12.797   4.681
43128SOL    HW231224   3.582  12.932   4.616
43129SOL     OW31225  11.517  10.218   7.131
43129SOL    HW131226  11.571  10.291   7.100
43129SOL    HW231227  11.579  10.146   7.144
43130SOL     OW31228  10.289   6.947   8.922
43130SOL    HW131229  10.271   6.921   8.832
43130SOL    HW231230  10.378   6.917   8.939
43131SOL     OW31231   9.843   1.396  14.502
43131SOL    HW131232   9.846   1.356  14.589
43131SOL    HW231233   9.820   1.488  14.519
43132SOL     OW31234  12.939   6.955   6.723
43132SOL    HW131235  12.910   6.864   6.711
43132SOL    HW231236  12.995   6.952   6.801
43133SOL     OW31237  10.991   0.416   7.953
43133SOL    HW131238  10.927   0.350   7.928
43133SOL    HW231239  10.972   0.434   8.045
43134SOL     OW31240  13.112   6.539   8.389
43134SOL    HW131241  13.152   6.568   8.307
43134SOL    HW231242  13.187   6.523   8.447
43135SOL     OW31243   1.414   1.697   2.420
43135SOL    HW131244   1.389   1.789   2.424
43135SOL    HW231245   1.397   1.664   2.509
43136SOL     OW31246   1.019  12.396   7.065
43136SOL    HW131247   0.979  12.350   6.991
43136SOL    HW231248   0.955  12.389   7.136
43137SOL     OW31249   5.932   8.973  14.349
43137SOL    HW131250   5.982   8.925  14.284
43137SOL    HW231251   5.974   9.059  14.353
43138SOL     OW31252  11.860  13.288   9.731
43138SOL    HW131253  11.806  13.220   9.771
43138SOL    HW231254  11.889  13.249   9.648
43139SOL     OW31255   3.042   7.035  14.457
43139SOL    HW131256   3.031   6.947  14.493
43139SOL    HW231257   3.112   7.074  14.509
43140SOL     OW31258  12.494  12.574   8.485
43140SOL    HW131259  12.547  12.505   8.444
43140SOL    HW231260  12.556  12.624   8.538
43141SOL     OW31261   6.998  12.974   6.360
43141SOL    HW131262   7.083  12.962   6.402
43141SOL    HW231263   6.999  12.912   6.287
43142SOL     OW31264  13.869  13.644   5.327
43142SOL    HW131265  13.811  13.580   5.367
43142SOL    HW231266  13.897  13.602   5.245
43143SOL     OW31267   3.190   6.884   4.103
43143SOL    HW131268   3.209   6.840   4.020
43143SOL    HW231269   3.116   6.835   4.139
43144SOL     OW31270   7.311   7.458   4.538
43144SOL    HW131271   7.398   7.485   4.511
43144SOL    HW231272   7.326   7.388   4.602
43145SOL     OW31273  12.648   8.174   0.549
43145SOL    HW131274  12.732   8.216   0.530
43145SOL    HW231275  12.583   8.239   0.523
43146SOL     OW31276   0.914  14.036   6.474
43146SOL    HW131277   0.897  14.083   6.555
43146SOL    HW231278   0.860  13.957   6.480
43147SOL     OW31279  11.115   9.031   6.891
43147SOL    HW131280  11.210   9.032   6.878
43147SOL    HW231281  11.089   8.943   6.864
43148SOL     OW31282   3.182   4.044   2.977
43148SOL    HW131283   3.165   3.950   2.975
43148SOL    HW231284   3.118   4.078   3.041
43149SOL     OW31285  10.542  12.412   1.438
43149SOL    HW131286  10.490  12.451   1.367
43149SOL    HW231287  10.478  12.367   1.493
43150SOL     OW31288   2.900   5.997   4.995
43150SOL    HW131289   2.904   5.992   4.899
43150SOL    HW231290   2.818   5.955   5.018
43151SOL     OW31291   8.397   3.891   9.456
43151SOL    HW131292   8.435   3.908   9.370
43151SOL    HW231293   8.463   3.921   9.518
43152SOL     OW31294   9.428   8.767  10.782
43152SOL    HW131295   9.398   8.699  10.842
43152SOL    HW231296   9.358   8.832  10.781
43153SOL     OW31297   7.700  13.978  12.336
43153SOL    HW131298   7.607  13.960  12.349
43153SOL    HW231299   7.727  13.916  12.268
43154SOL     OW31300  13.924   1.950   5.091
43154SOL    HW131301  13.875   1.896   5.153
43154SOL    HW231302  13.929   2.036   5.132
43155SOL     OW31303   2.781   5.737  11.357
43155SOL    HW131304   2.835   5.687  11.417
43155SOL    HW231305   2.698   5.749  11.403
43156SOL     OW31306  12.818   9.221   1.174
43156SOL    HW131307  12.827   9.317   1.178
43156SOL    HW231308  12.794   9.197   1.264
43157SOL     OW31309   2.426  12.558   8.201
43157SOL    HW131310   2.410  12.603   8.118
43157SOL    HW231311   2.464  12.474   8.176
43158SOL     OW31312   1.778  12.573  12.418
43158SOL    HW131313   1.813  12.495  12.376
43158SOL    HW231314   1.832  12.585  12.497
43159SOL     OW31315  14.521   1.123   4.403
43159SOL    HW131316  14.449   1.180   4.376
43159SOL    HW231317  14.483   1.035   4.403
43160SOL     OW31318   7.032   5.413   3.384
43160SOL    HW131319   7.033   5.505   3.359
43160SOL    HW231320   7.020   5.366   3.302
43161SOL     OW31321   4.391   9.297   2.927
43161SOL    HW131322   4.352   9.269   3.009
43161SOL    HW231323   4.437   9.220   2.894
43162SOL     OW31324   1.911   5.069   1.877
43162SOL    HW131325   1.959   5.140   1.918
43162SOL    HW231326   1.973   4.995   1.877
43163SOL     OW31327  12.404  12.274  13.651
43163SOL    HW131328  12.387  12.190  13.608
43163SOL    HW231329  12.443  12.328  13.583
43164SOL     OW31330  14.846   3.583   6.956
43164SOL    HW131331   0.028   3.653   6.944
43164SOL    HW231332  14.767   3.628   6.987
43165SOL     OW31333  14.373   8.613   3.711
43165SOL    HW131334  14.388   8.680   3.779
43165SOL    HW231335  14.315   8.656   3.648
43166SOL     OW31336  13.717  12.842  10.790
43166SOL    HW131337  13.805  12.810  10.768
43166SOL    HW231338  13.715  12.932  10.757
43167SOL     OW31339   0.194  13.105   1.227
43167SOL    HW131340   0.192  13.181   1.169
43167SOL    HW231341   0.217  13.032   1.170
43168SOL     OW31342   6.233  14.023   4.808
43168SOL    HW131343   6.239  14.038   4.903
43168SOL    HW231344   6.263  14.106   4.770
43169SOL     OW31345   4.412   3.045   1.454
43169SOL    HW131346   4.386   3.135   1.433
43169SOL    HW231347   4.392   2.995   1.375
43170SOL     OW31348  10.825   7.341  12.586
43170SOL    HW131349  10.786   7.390  12.659
43170SOL    HW231350  10.796   7.250  12.601
43171SOL     OW31351  13.889   7.129   9.913
43171SOL    HW131352  13.889   7.041   9.951
43171SOL    HW231353  13.866   7.187   9.986
43172SOL     OW31354   6.126   6.160  12.578
43172SOL    HW131355   6.212   6.188  12.550
43172SOL    HW231356   6.119   6.069  12.548
43173SOL     OW31357   3.076  11.945  14.394
43173SOL    HW131358   3.150  11.887  14.374
43173SOL    HW231359   3.082  12.015  14.329
43174SOL     OW31360  11.019   6.839   8.314
43174SOL    HW131361  10.986   6.763   8.361
43174SOL    HW231362  11.028   6.907   8.381
43175SOL     OW31363   8.001  11.808  13.767
43175SOL    HW131364   8.009  11.748  13.841
43175SOL    HW231365   7.944  11.878  13.800
43176SOL     OW31366   5.374   9.258  10.585
43176SOL    HW131367   5.325   9.184  10.551
43176SOL    HW231368   5.389   9.237  10.677
43177SOL     OW31369   8.281  10.695  10.540
43177SOL    HW131370   8.258  10.611  10.500
43177SOL    HW231371   8.197  10.740  10.549
43178SOL     OW31372   2.029  12.056   7.379
43178SOL    HW131373   1.981  12.138   7.386
43178SOL    HW231374   1.976  11.992   7.427
43179SOL     OW31375   4.251   6.394  14.351
43179SOL    HW131376   4.249   6.322  14.287
43179SOL    HW231377   4.279   6.470  14.300
43180SOL     OW31378  12.803   9.258   1.705
43180SOL    HW131379  12.750   9.206   1.765
43180SOL    HW231380  12.767   9.347   1.713
43181SOL     OW31381   3.405   2.323  13.317
43181SOL    HW131382   3.437   2.234  13.301
43181SOL    HW231383   3.312   2.311  13.340
43182SOL     OW31384   0.948   6.526  14.289
43182SOL    HW131385   0.856   6.531  14.265
43182SOL    HW231386   0.957   6.441  14.332
43183SOL     OW31387   1.422   2.065  11.580
43183SOL    HW131388   1.370   1.984  11.574
43183SOL    HW231389   1.400   2.113  11.501
43184SOL     OW31390   2.805  13.483   0.334
43184SOL    HW131391   2.823  13.413   0.272
43184SOL    HW231392   2.731  13.451   0.386
43185SOL     OW31393  12.168  11.813   2.094
43185SOL    HW131394  12.151  11.741   2.155
43185SOL    HW231395  12.136  11.891   2.139
43186SOL     OW31396  11.950   7.934  13.699
43186SOL    HW131397  11.983   8.011  13.653
43186SOL    HW231398  11.869   7.965  13.740
43187SOL     OW31399   3.403  12.163   1.800
43187SOL    HW131400   3.389  12.136   1.710
43187SOL    HW231401   3.496  12.148   1.816
43188SOL     OW31402   4.075   7.144  10.583
43188SOL    HW131403   4.100   7.058  10.618
43188SOL    HW231404   4.011   7.124  10.515
43189SOL     OW31405   4.251   3.435   2.739
43189SOL    HW131406   4.343   3.418   2.761
43189SOL    HW231407   4.227   3.363   2.680
43190SOL     OW31408  10.576  12.905   3.283
43190SOL    HW131409  10.587  12.931   3.191
43190SOL    HW231410  10.632  12.965   3.332
43191SOL     OW31411   4.884  14.635   6.459
43191SOL    HW131412   4.927  14.569   6.512
43191SOL    HW231413   4.955  14.685   6.419
43192SOL     OW31414   1.961  14.702   0.114
43192SOL    HW131415   1.976  14.730   0.205
43192SOL    HW231416   1.904  14.626   0.122
43193SOL     OW31417   7.663   0.722   3.265
43193SOL    HW131418   7.710   0.687   3.190
43193SOL    HW231419   7.726   0.721   3.337
43194SOL     OW31420   1.458  11.466   1.276
43194SOL    HW131421   1.513  11.456   1.198
43194SOL    HW231422   1.504  11.417   1.344
43195SOL     OW31423   8.975  14.558  10.589
43195SOL    HW131424   8.975  14.466  10.614
43195SOL    HW231425   9.063  14.573  10.555
43196SOL     OW31426   1.085  12.774   8.481
43196SOL    HW131427   1.108  12.726   8.401
43196SOL    HW231428   0.990  12.772   8.483
43197SOL     OW31429   2.738   3.653   1.737
43197SOL    HW131430   2.680   3.630   1.810
43197SOL    HW231431   2.817   3.687   1.779
43198SOL     OW31432   7.402   2.823   3.197
43198SOL    HW131433   7.391   2.770   3.118
43198SOL    HW231434   7.424   2.910   3.164
43199SOL     OW31435  12.180   8.561   8.112
43199SOL    HW131436  12.209   8.617   8.184
43199SOL    HW231437  12.227   8.478   8.125
43200SOL     OW31438   8.249   5.991  13.837
43200SOL    HW131439   8.329   5.979  13.785
43200SOL    HW231440   8.202   5.908  13.828
43201SOL     OW31441  10.575  13.854  10.897
43201SOL    HW131442  10.628  13.778  10.872
43201SOL    HW231443  10.484  13.825  10.884
43202SOL     OW31444   3.569   8.903   5.186
43202SOL    HW131445   3.639   8.944   5.136
43202SOL    HW231446   3.488   8.940   5.150
43203SOL     OW31447   6.816  11.106   3.100
43203SOL    HW131448   6.838  11.194   3.132
43203SOL    HW231449   6.743  11.121   3.040
43204SOL     OW31450   8.924   2.387   8.877
43204SOL    HW131451   9.019   2.394   8.867
43204SOL    HW231452   8.899   2.317   8.817
43205SOL     OW31453   0.698   0.270   2.001
43205SOL    HW131454   0.644   0.321   1.941
43205SOL    HW231455   0.734   0.199   1.948
43206SOL     OW31456   2.981   7.606   5.278
43206SOL    HW131457   2.954   7.641   5.363
43206SOL    HW231458   2.898   7.589   5.233
43207SOL     OW31459   7.747   3.415   7.284
43207SOL    HW131460   7.752   3.487   7.346
43207SOL    HW231461   7.699   3.450   7.209
43208SOL     OW31462   8.353   8.981   0.309
43208SOL    HW131463   8.348   9.076   0.305
43208SOL    HW231464   8.446   8.962   0.326
43209SOL     OW31465   9.473  12.972   7.042
43209SOL    HW131466   9.448  12.992   7.133
43209SOL    HW231467   9.567  12.988   7.038
43210SOL     OW31468  11.939   7.887   0.853
43210SOL    HW131469  11.919   7.974   0.818
43210SOL    HW231470  11.870   7.871   0.918
43211SOL     OW31471   7.252   4.627   7.211
43211SOL    HW131472   7.316   4.598   7.275
43211SOL    HW231473   7.167   4.614   7.254
43212SOL     OW31474  13.919   5.926   4.254
43212SOL    HW131475  13.879   5.859   4.311
43212SOL    HW231476  13.923   5.884   4.168
43213SOL     OW31477   8.294  11.724   5.660
43213SOL    HW131478   8.230  11.765   5.601
43213SOL    HW231479   8.247  11.713   5.743
43214SOL     OW31480   6.300  13.959   1.260
43214SOL    HW131481   6.355  14.002   1.195
43214SOL    HW231482   6.358  13.897   1.303
43215SOL     OW31483  11.654  12.066  13.406
43215SOL    HW131484  11.625  11.975  13.414
43215SOL    HW231485  11.740  12.067  13.448
43216SOL     OW31486  11.088  10.709  12.371
43216SOL    HW131487  11.030  10.785  12.372
43216SOL    HW231488  11.124  10.705  12.459
43217SOL     OW31489  12.454   0.858   1.856
43217SOL    HW131490  12.368   0.886   1.825
43217SOL    HW231491  12.493   0.812   1.781
43218SOL     OW31492   5.880   3.958   8.143
43218SOL    HW131493   5.843   3.994   8.063
43218SOL    HW231494   5.965   4.001   8.152
43219SOL     OW31495   3.722  13.032   1.973
43219SOL    HW131496   3.775  13.038   1.894
43219SOL    HW231497   3.644  13.085   1.955
43220SOL     OW31498  12.792   0.847   6.488
43220SOL    HW131499  12.871   0.819   6.534
43220SOL    HW231500  12.822   0.871   6.401
43221SOL     OW31501   0.661   9.907   4.236
43221SOL    HW131502   0.596   9.907   4.306
43221SOL    HW231503   0.740   9.871   4.277
43222SOL     OW31504   4.038   0.894   8.461
43222SOL    HW131505   4.102   0.855   8.401
43222SOL    HW231506   3.953   0.862   8.430
43223SOL     OW31507   3.957  11.290   2.012
43223SOL    HW131508   4.009  11.363   1.980
43223SOL    HW231509   3.964  11.223   1.944
43224SOL     OW31510   8.499  13.623   0.186
43224SOL    HW131511   8.567  13.557   0.200
43224SOL    HW231512   8.418  13.573   0.178
43225SOL     OW31513  12.598   5.282   2.517
43225SOL    HW131514  12.567   5.214   2.457
43225SOL    HW231515  12.559   5.363   2.485
43226SOL     OW31516   0.330   4.778   4.552
43226SOL    HW131517   0.240   4.797   4.526
43226SOL    HW231518   0.383   4.835   4.496
43227SOL     OW31519  10.993  12.955   8.943
43227SOL    HW131520  11.032  12.959   9.030
43227SOL    HW231521  11.051  13.008   8.888
43228SOL     OW31522   3.698  11.551   5.398
43228SOL    HW131523   3.722  11.463   5.427
43228SOL    HW231524   3.644  11.537   5.320
43229SOL     OW31525  14.234  13.893   3.795
43229SOL    HW131526  14.221  13.885   3.889
43229SOL    HW231527  14.326  13.870   3.781
43230SOL     OW31528   4.401   8.440   5.525
43230SOL    HW131529   4.319   8.446   5.575
43230SOL    HW231530   4.399   8.353   5.487
43231SOL     OW31531  11.470   6.329   7.830
43231SOL    HW131532  11.438   6.374   7.908
43231SOL    HW231533  11.413   6.361   7.759
43232SOL     OW31534   3.141   6.993   0.986
43232SOL    HW131535   3.215   6.963   0.933
43232SOL    HW231536   3.126   6.922   1.048
43233SOL     OW31537   0.966  14.527   6.830
43233SOL    HW131538   0.912  14.606   6.824
43233SOL    HW231539   1.005  14.531   6.918
43234SOL     OW31540  14.360  14.807   5.057
43234SOL    HW131541  14.331   0.002   5.008
43234SOL    HW231542  14.404  14.753   4.992
43235SOL     OW31543  12.894   6.729   4.811
43235SOL    HW131544  12.928   6.813   4.780
43235SOL    HW231545  12.854   6.749   4.896
43236SOL     OW31546   7.092   3.425  11.338
43236SOL    HW131547   7.106   3.364  11.266
43236SOL    HW231548   7.152   3.498  11.320
43237SOL     OW31549   0.902   0.836   4.166
43237SOL    HW131550   0.841   0.766   4.142
43237SOL    HW231551   0.920   0.822   4.259
43238SOL     OW31552   1.698   1.789  13.766
43238SOL    HW131553   1.726   1.730  13.696
43238SOL    HW231554   1.683   1.731  13.841
43239SOL     OW31555  12.453  13.005   5.653
43239SOL    HW131556  12.547  13.001   5.669
43239SOL    HW231557  12.420  13.067   5.719
43240SOL     OW31558   6.970  14.754   2.364
43240SOL    HW131559   6.888  14.711   2.340
43240SOL    HW231560   7.038  14.699   2.325
43241SOL     OW31561  11.384  14.424   2.823
43241SOL    HW131562  11.385  14.472   2.741
43241SOL    HW231563  11.470  14.383   2.828
43242SOL     OW31564   3.224  13.122   3.365
43242SOL    HW131565   3.269  13.148   3.284
43242SOL    HW231566   3.285  13.062   3.408
43243SOL     OW31567   7.180  13.368   9.162
43243SOL    HW131568   7.174  13.285   9.209
43243SOL    HW231569   7.104  13.417   9.191
43244SOL     OW31570   2.390  11.436  13.244
43244SOL    HW131571   2.339  11.422  13.164
43244SOL    HW231572   2.350  11.378  13.309
43245SOL     OW31573   6.591   6.494   2.137
43245SOL    HW131574   6.594   6.436   2.213
43245SOL    HW231575   6.677   6.536   2.135
43246SOL     OW31576  13.050   1.679   6.484
43246SOL    HW131577  12.969   1.675   6.535
43246SOL    HW231578  13.118   1.655   6.547
43247SOL     OW31579   7.373   5.176  13.475
43247SOL    HW131580   7.382   5.115  13.548
43247SOL    HW231581   7.461   5.209  13.460
43248SOL     OW31582   9.456   6.313   5.474
43248SOL    HW131583   9.523   6.245   5.484
43248SOL    HW231584   9.373   6.265   5.473
43249SOL     OW31585   3.082   9.989  14.628
43249SOL    HW131586   3.068  10.035  14.545
43249SOL    HW231587   2.996   9.986  14.669
43250SOL     OW31588  13.193  12.833   9.629
43250SOL    HW131589  13.195  12.786   9.545
43250SOL    HW231590  13.232  12.918   9.610
43251SOL     OW31591  10.260   9.658   7.786
43251SOL    HW131592  10.295   9.705   7.710
43251SOL    HW231593  10.165   9.667   7.779
43252SOL     OW31594  10.431  12.640   3.019
43252SOL    HW131595  10.376  12.711   2.984
43252SOL    HW231596  10.517  12.655   2.979
43253SOL     OW31597   8.530  11.119  14.676
43253SOL    HW131598   8.605  11.139  14.733
43253SOL    HW231599   8.475  11.197  14.682
43254SOL     OW31600  11.527   6.289   3.583
43254SOL    HW131601  11.551   6.370   3.539
43254SOL    HW231602  11.598   6.272   3.644
43255SOL     OW31603   2.543  13.106  10.251
43255SOL    HW131604   2.495  13.035  10.209
43255SOL    HW231605   2.604  13.060  10.310
43256SOL     OW31606   5.797   2.791   9.915
43256SOL    HW131607   5.790   2.817   9.823
43256SOL    HW231608   5.726   2.838   9.959
43257SOL     OW31609   1.276   8.517   6.699
43257SOL    HW131610   1.359   8.482   6.669
43257SOL    HW231611   1.230   8.544   6.620
43258SOL     OW31612   4.211  13.753  13.255
43258SOL    HW131613   4.163  13.764  13.337
43258SOL    HW231614   4.148  13.777  13.187
43259SOL     OW31615   4.506   9.493   2.140
43259SOL    HW131616   4.494   9.411   2.093
43259SOL    HW231617   4.427   9.544   2.119
43260SOL     OW31618   0.106   2.762   6.060
43260SOL    HW131619   0.083   2.758   6.153
43260SOL    HW231620   0.149   2.679   6.042
43261SOL     OW31621   8.350   6.281   0.586
43261SOL    HW131622   8.417   6.349   0.575
43261SOL    HW231623   8.269   6.324   0.559
43262SOL     OW31624   2.364   3.920  14.637
43262SOL    HW131625   2.312   3.840  14.649
43262SOL    HW231626   2.450   3.888  14.611
43263SOL     OW31627  12.130   4.346   1.403
43263SOL    HW131628  12.196   4.334   1.471
43263SOL    HW231629  12.147   4.274   1.341
43264SOL     OW31630   3.282   9.105  13.514
43264SOL    HW131631   3.223   9.151  13.575
43264SOL    HW231632   3.256   9.013  13.521
43265SOL     OW31633   2.992   0.847   4.866
43265SOL    HW131634   2.917   0.897   4.834
43265SOL    HW231635   3.057   0.854   4.795
43266SOL     OW31636   0.256   4.986   1.931
43266SOL    HW131637   0.175   5.019   1.971
43266SOL    HW231638   0.254   5.019   1.841
43267SOL     OW31639  14.230   4.687   4.622
43267SOL    HW131640  14.176   4.752   4.667
43267SOL    HW231641  14.196   4.603   4.652
43268SOL     OW31642  13.240   5.540   8.778
43268SOL    HW131643  13.270   5.571   8.863
43268SOL    HW231644  13.145   5.531   8.788
43269SOL     OW31645  13.726  14.417   8.255
43269SOL    HW131646  13.777  14.450   8.329
43269SOL    HW231647  13.701  14.495   8.207
43270SOL     OW31648  11.394  14.029   0.884
43270SOL    HW131649  11.438  14.006   0.802
43270SOL    HW231650  11.460  14.076   0.934
43271SOL     OW31651   2.769   0.008   7.281
43271SOL    HW131652   2.812   0.068   7.341
43271SOL    HW231653   2.828   0.004   7.205
43272SOL     OW31654  10.213  11.461  13.260
43272SOL    HW131655  10.198  11.426  13.173
43272SOL    HW231656  10.176  11.396  13.319
43273SOL     OW31657  14.576   6.945   8.560
43273SOL    HW131658  14.595   7.034   8.588
43273SOL    HW231659  14.490   6.927   8.597
43274SOL     OW31660   5.475  11.267   9.875
43274SOL    HW131661   5.562  11.259   9.837
43274SOL    HW231662   5.490  11.259   9.970
43275SOL     OW31663   2.966   2.000   0.692
43275SOL    HW131664   2.950   2.085   0.733
43275SOL    HW231665   2.963   2.017   0.598
43276SOL     OW31666   9.847   6.735  12.922
43276SOL    HW131667   9.781   6.723  12.990
43276SOL    HW231668   9.801   6.714  12.841
43277SOL     OW31669   7.069  10.853  12.283
43277SOL    HW131670   7.142  10.795  12.260
43277SOL    HW231671   7.010  10.798  12.334
43278SOL     OW31672   7.011  11.354   1.398
43278SOL    HW131673   7.068  11.429   1.377
43278SOL    HW231674   6.956  11.344   1.320
43279SOL     OW31675   3.422   4.392  11.104
43279SOL    HW131676   3.410   4.351  11.019
43279SOL    HW231677   3.381   4.478  11.095
43280SOL     OW31678  11.791  14.850  14.879
43280SOL    HW131679  11.774  14.855  14.785
43280SOL    HW231680  11.858   0.035   0.013
43281SOL     OW31681  14.740   4.222   2.146
43281SOL    HW131682  14.692   4.291   2.100
43281SOL    HW231683  14.678   4.149   2.150
43282SOL     OW31684   1.443   9.385   7.726
43282SOL    HW131685   1.504   9.313   7.709
43282SOL    HW231686   1.499   9.461   7.739
43283SOL     OW31687  13.131  11.212  14.632
43283SOL    HW131688  13.081  11.163  14.567
43283SOL    HW231689  13.155  11.147  14.698
43284SOL     OW31690   5.388   3.350  13.818
43284SOL    HW131691   5.345   3.413  13.876
43284SOL    HW231692   5.412   3.278  13.875
43285SOL     OW31693   3.340  13.167  11.505
43285SOL    HW131694   3.301  13.163  11.418
43285SOL    HW231695   3.306  13.091  11.551
43286SOL     OW31696   8.533   5.433   0.352
43286SOL    HW131697   8.529   5.337   0.344
43286SOL    HW231698   8.590   5.448   0.428
43287SOL     OW31699   5.404   6.211  11.697
43287SOL    HW131700   5.372   6.275  11.633
43287SOL    HW231701   5.500   6.217  11.690
43288SOL     OW31702   8.617  12.031   0.756
43288SOL    HW131703   8.551  12.073   0.700
43288SOL    HW231704   8.631  12.094   0.826
43289SOL     OW31705   6.777   0.752   6.084
43289SOL    HW131706   6.690   0.783   6.107
43289SOL    HW231707   6.831   0.831   6.082
43290SOL     OW31708   8.499   8.820   3.372
43290SOL    HW131709   8.411   8.831   3.335
43290SOL    HW231710   8.558   8.841   3.299
43291SOL     OW31711   0.217   9.966   8.543
43291SOL    HW131712   0.152   9.959   8.612
43291SOL    HW231713   0.265  10.047   8.562
43292SOL     OW31714   6.184   8.636   4.148
43292SOL    HW131715   6.207   8.701   4.215
43292SOL    HW231716   6.268   8.613   4.108
43293SOL     OW31717   3.608   3.148   7.510
43293SOL    HW131718   3.563   3.138   7.426
43293SOL    HW231719   3.678   3.083   7.508
43294SOL     OW31720   5.998   6.094   8.965
43294SOL    HW131721   5.973   6.002   8.957
43294SOL    HW231722   5.920   6.138   8.997
43295SOL     OW31723  12.663   3.453   9.704
43295SOL    HW131724  12.705   3.421   9.784
43295SOL    HW231725  12.605   3.523   9.734
43296SOL     OW31726   3.354   4.758   1.620
43296SOL    HW131727   3.323   4.676   1.659
43296SOL    HW231728   3.301   4.768   1.541
43297SOL     OW31729   2.115  10.025   0.604
43297SOL    HW131730   2.189   9.971   0.578
43297SOL    HW231731   2.138  10.058   0.691
43298SOL     OW31732   1.520  14.690  13.863
43298SOL    HW131733   1.444  14.735  13.900
43298SOL    HW231734   1.502  14.597  13.875
43299SOL     OW31735   1.311  11.254  12.632
43299SOL    HW131736   1.259  11.263  12.712
43299SOL    HW231737   1.397  11.288  12.656
43300SOL     OW31738   4.874  10.659  14.315
43300SOL    HW131739   4.792  10.647  14.267
43300SOL    HW231740   4.878  10.753  14.333
43301SOL     OW31741   5.952  12.630  10.869
43301SOL    HW131742   5.937  12.568  10.799
43301SOL    HW231743   5.978  12.576  10.944
43302SOL     OW31744  14.771   7.803  10.863
43302SOL    HW131745  14.676   7.798  10.871
43302SOL    HW231746  14.793   7.889  10.900
43303SOL     OW31747   6.717   6.237   6.380
43303SOL    HW131748   6.765   6.320   6.379
43303SOL    HW231749   6.641   6.254   6.436
43304SOL     OW31750   6.098   3.767  14.577
43304SOL    HW131751   6.067   3.767  14.667
43304SOL    HW231752   6.035   3.821  14.529
43305SOL     OW31753   5.647  14.121   5.610
43305SOL    HW131754   5.568  14.106   5.558
43305SOL    HW231755   5.684  14.201   5.572
43306SOL     OW31756  10.566   4.288  11.579
43306SOL    HW131757  10.550   4.371  11.624
43306SOL    HW231758  10.548   4.221  11.645
43307SOL     OW31759   7.692   9.752   3.649
43307SOL    HW131760   7.747   9.801   3.710
43307SOL    HW231761   7.622   9.813   3.626
43308SOL     OW31762   4.037   0.728  11.945
43308SOL    HW131763   4.103   0.661  11.963
43308SOL    HW231764   3.968   0.712  12.008
43309SOL     OW31765   6.266   5.689   9.410
43309SOL    HW131766   6.297   5.662   9.323
43309SOL    HW231767   6.281   5.612   9.465
43310SOL     OW31768   1.255   2.893  11.156
43310SOL    HW131769   1.292   2.805  11.146
43310SOL    HW231770   1.311   2.935  11.222
43311SOL     OW31771   5.226   4.078   1.956
43311SOL    HW131772   5.159   4.010   1.965
43311SOL    HW231773   5.190   4.154   2.000
43312SOL     OW31774   1.308  13.813   7.031
43312SOL    HW131775   1.328  13.904   7.055
43312SOL    HW231776   1.260  13.778   7.106
43313SOL     OW31777  13.834   9.313   9.544
43313SOL    HW131778  13.817   9.249   9.474
43313SOL    HW231779  13.832   9.398   9.500
43314SOL     OW31780   8.368   0.676  14.710
43314SOL    HW131781   8.382   0.584  14.731
43314SOL    HW231782   8.292   0.702  14.763
43315SOL     OW31783   2.407   1.371  14.118
43315SOL    HW131784   2.313   1.354  14.124
43315SOL    HW231785   2.439   1.306  14.054
43316SOL     OW31786   7.979   7.489   5.881
43316SOL    HW131787   7.986   7.402   5.842
43316SOL    HW231788   7.885   7.505   5.890
43317SOL     OW31789   0.359   6.193  10.657
43317SOL    HW131790   0.396   6.262  10.602
43317SOL    HW231791   0.424   6.123  10.656
43318SOL     OW31792   7.735   2.642  11.662
43318SOL    HW131793   7.685   2.562  11.678
43318SOL    HW231794   7.688   2.710  11.709
43319SOL     OW31795   9.209   1.968   9.304
43319SOL    HW131796   9.299   1.959   9.275
43319SOL    HW231797   9.156   1.962   9.224
43320SOL     OW31798  13.708   1.559   9.150
43320SOL    HW131799  13.666   1.521   9.073
43320SOL    HW231800  13.789   1.510   9.159
43321SOL     OW31801   9.193  14.754  12.749
43321SOL    HW131802   9.192  14.813  12.674
43321SOL    HW231803   9.113  14.776  12.798
43322SOL     OW31804  11.739   0.244  12.013
43322SOL    HW131805  11.770   0.172  12.068
43322SOL    HW231806  11.658   0.274  12.056
43323SOL     OW31807  13.886  11.707   5.088
43323SOL    HW131808  13.802  11.753   5.083
43323SOL    HW231809  13.934  11.737   5.011
43324SOL     OW31810  12.370   8.249   7.367
43324SOL    HW131811  12.457   8.257   7.328
43324SOL    HW231812  12.311   8.241   7.292
43325SOL     OW31813  10.918  11.788   8.592
43325SOL    HW131814  10.897  11.881   8.601
43325SOL    HW231815  10.922  11.774   8.498
43326SOL     OW31816  12.792   9.038  14.210
43326SOL    HW131817  12.704   9.011  14.236
43326SOL    HW231818  12.850   8.979  14.258
43327SOL     OW31819  14.808   6.869   1.674
43327SOL    HW131820  14.739   6.904   1.617
43327SOL    HW231821  14.870   6.941   1.683
43328SOL     OW31822   3.917   1.445   3.049
43328SOL    HW131823   3.937   1.515   2.988
43328SOL    HW231824   4.000   1.428   3.095
43329SOL     OW31825   7.077   7.886   9.918
43329SOL    HW131826   7.016   7.838   9.863
43329SOL    HW231827   7.161   7.844   9.904
43330SOL     OW31828   2.036   6.537   2.555
43330SOL    HW131829   1.944   6.560   2.562
43330SOL    HW231830   2.072   6.551   2.642
43331SOL     OW31831   2.156  12.144   6.184
43331SOL    HW131832   2.190  12.064   6.143
43331SOL    HW231833   2.233  12.200   6.196
43332SOL     OW31834  13.654   3.190   2.083
43332SOL    HW131835  13.580   3.234   2.126
43332SOL    HW231836  13.692   3.256   2.025
43333SOL     OW31837   8.575   6.976   7.183
43333SOL    HW131838   8.533   7.043   7.237
43333SOL    HW231839   8.524   6.897   7.201
43334SOL     OW31840  14.051   7.818  11.945
43334SOL    HW131841  14.137   7.839  11.983
43334SOL    HW231842  14.062   7.838  11.852
43335SOL     OW31843   8.523   4.827   5.617
43335SOL    HW131844   8.471   4.891   5.666
43335SOL    HW231845   8.600   4.876   5.588
43336SOL     OW31846   0.803   2.263   3.573
43336SOL    HW131847   0.792   2.250   3.478
43336SOL    HW231848   0.720   2.234   3.611
43337SOL     OW31849  12.739   7.922  13.326
43337SOL    HW131850  12.660   7.960  13.365
43337SOL    HW231851  12.770   7.990  13.265
43338SOL     OW31852   8.755   6.078   8.158
43338SOL    HW131853   8.843   6.112   8.141
43338SOL    HW231854   8.747   6.003   8.100
43339SOL     OW31855   0.582   9.525   8.830
43339SOL    HW131856   0.527   9.492   8.759
43339SOL    HW231857   0.562   9.619   8.834
43340SOL     OW31858  10.967   1.988   4.411
43340SOL    HW131859  10.885   1.984   4.361
43340SOL    HW231860  10.941   2.019   4.497
43341SOL     OW31861   6.043   7.614  11.472
43341SOL    HW131862   6.047   7.584  11.563
43341SOL    HW231863   6.085   7.545  11.422
43342SOL     OW31864   6.732  13.852   5.381
43342SOL    HW131865   6.802  13.817   5.326
43342SOL    HW231866   6.655  13.799   5.359
43343SOL     OW31867   7.913   2.822  12.742
43343SOL    HW131868   7.902   2.785  12.654
43343SOL    HW231869   7.945   2.749  12.795
43344SOL     OW31870  13.062   1.273   1.690
43344SOL    HW131871  13.025   1.279   1.602
43344SOL    HW231872  13.145   1.320   1.684
43345SOL     OW31873  14.769   6.338   1.574
43345SOL    HW131874  14.814   6.335   1.489
43345SOL    HW231875  14.788   6.425   1.608
43346SOL     OW31876   9.911   0.385   7.186
43346SOL    HW131877   9.966   0.450   7.230
43346SOL    HW231878   9.947   0.379   7.098
43347SOL     OW31879  12.543  10.573  10.774
43347SOL    HW131880  12.543  10.656  10.822
43347SOL    HW231881  12.620  10.526  10.807
43348SOL     OW31882  14.334  14.509   3.249
43348SOL    HW131883  14.263  14.448   3.269
43348SOL    HW231884  14.339  14.510   3.154
43349SOL     OW31885   5.755  14.683  10.636
43349SOL    HW131886   5.815  14.625  10.589
43349SOL    HW231887   5.776  14.771  10.605
43350SOL     OW31888   8.219  11.901   4.519
43350SOL    HW131889   8.126  11.889   4.499
43350SOL    HW231890   8.249  11.964   4.453
43351SOL     OW31891   4.093   5.895  13.200
43351SOL    HW131892   4.133   5.816  13.165
43351SOL    HW231893   4.011   5.865  13.240
43352SOL     OW31894   1.232   2.845   5.692
43352SOL    HW131895   1.241   2.798   5.775
43352SOL    HW231896   1.162   2.799   5.645
43353SOL     OW31897  12.952  13.168   1.094
43353SOL    HW131898  13.008  13.222   1.149
43353SOL    HW231899  12.882  13.226   1.066
43354SOL     OW31900   4.913   2.163  12.360
43354SOL    HW131901   4.960   2.222  12.301
43354SOL    HW231902   4.971   2.087  12.368
43355SOL     OW31903   9.461  10.783   7.337
43355SOL    HW131904   9.441  10.689   7.332
43355SOL    HW231905   9.555  10.788   7.317
43356SOL     OW31906   0.851  10.222  10.549
43356SOL    HW131907   0.894  10.248  10.467
43356SOL    HW231908   0.789  10.154  10.523
43357SOL     OW31909  13.974  10.206   8.662
43357SOL    HW131910  13.914  10.134   8.679
43357SOL    HW231911  14.039  10.201   8.731
43358SOL     OW31912  10.235   5.440   5.882
43358SOL    HW131913  10.273   5.526   5.899
43358SOL    HW231914  10.176   5.455   5.808
43359SOL     OW31915   6.631   3.086   1.706
43359SOL    HW131916   6.623   3.173   1.745
43359SOL    HW231917   6.552   3.039   1.734
43360SOL     OW31918   1.413   3.627   0.504
43360SOL    HW131919   1.388   3.590   0.589
43360SOL    HW231920   1.349   3.591   0.443
43361SOL     OW31921   5.662   9.099   3.164
43361SOL    HW131922   5.590   9.040   3.142
43361SOL    HW231923   5.720   9.096   3.088
43362SOL     OW31924   2.112  11.880   0.020
43362SOL    HW131925   2.169  11.864  14.827
43362SOL    HW231926   2.037  11.927  14.865
43363SOL     OW31927   2.150   6.456  10.372
43363SOL    HW131928   2.164   6.370  10.332
43363SOL    HW231929   2.194   6.517  10.313
43364SOL     OW31930   6.484   5.580   0.520
43364SOL    HW131931   6.431   5.540   0.450
43364SOL    HW231932   6.455   5.537   0.600
43365SOL     OW31933   8.378  14.730   7.006
43365SOL    HW131934   8.356  14.775   6.924
43365SOL    HW231935   8.471  14.750   7.019
43366SOL     OW31936   7.222   6.665  11.785
43366SOL    HW131937   7.259   6.735  11.731
43366SOL    HW231938   7.206   6.593  11.725
43367SOL     OW31939   0.729   5.273   9.138
43367SOL    HW131940   0.780   5.259   9.058
43367SOL    HW231941   0.750   5.362   9.164
43368SOL     OW31942   2.520   8.846   3.781
43368SOL    HW131943   2.599   8.821   3.829
43368SOL    HW231944   2.543   8.837   3.689
43369SOL     OW31945   8.858   8.045  12.369
43369SOL    HW131946   8.783   8.059  12.312
43369SOL    HW231947   8.829   8.075  12.456
43370SOL     OW31948  12.841   2.852   4.273
43370SOL    HW131949  12.893   2.923   4.235
43370SOL    HW231950  12.837   2.787   4.203
43371SOL     OW31951  11.873   6.834   1.361
43371SOL    HW131952  11.809   6.900   1.337
43371SOL    HW231953  11.843   6.754   1.318
43372SOL     OW31954   2.972   7.509  10.019
43372SOL    HW131955   2.884   7.476  10.001
43372SOL    HW231956   2.986   7.578   9.955
43373SOL     OW31957   9.658   0.955   9.464
43373SOL    HW131958   9.738   0.991   9.501
43373SOL    HW231959   9.602   1.031   9.450
43374SOL     OW31960   6.594  10.183   3.507
43374SOL    HW131961   6.572  10.115   3.570
43374SOL    HW231962   6.594  10.139   3.422
43375SOL     OW31963   4.926   0.881  11.747
43375SOL    HW131964   4.967   0.842  11.670
43375SOL    HW231965   4.840   0.911  11.717
43376SOL     OW31966   0.920   7.783  14.700
43376SOL    HW131967   0.929   7.690  14.718
43376SOL    HW231968   0.986   7.825  14.755
43377SOL     OW31969   0.909   9.016   1.752
43377SOL    HW131970   0.876   9.027   1.663
43377SOL    HW231971   0.957   9.096   1.770
43378SOL     OW31972   6.152  11.113   2.774
43378SOL    HW131973   6.248  11.103   2.772
43378SOL    HW231974   6.132  11.167   2.698
43379SOL     OW31975   1.484  11.820   6.895
43379SOL    HW131976   1.427  11.833   6.972
43379SOL    HW231977   1.568  11.856   6.922
43380SOL     OW31978   3.783   3.569   9.736
43380SOL    HW131979   3.714   3.504   9.745
43380SOL    HW231980   3.752   3.644   9.786
43381SOL     OW31981  14.156  13.042  12.533
43381SOL    HW131982  14.143  13.024  12.626
43381SOL    HW231983  14.070  13.072  12.502
43382SOL     OW31984   6.025   7.827   7.189
43382SOL    HW131985   6.030   7.809   7.282
43382SOL    HW231986   6.069   7.912   7.179
43383SOL     OW31987   2.303   2.678   3.060
43383SOL    HW131988   2.393   2.646   3.054
43383SOL    HW231989   2.281   2.704   2.971
43384SOL     OW31990  13.030  10.224   3.315
43384SOL    HW131991  13.055  10.132   3.310
43384SOL    HW231992  13.069  10.265   3.238
43385SOL     OW31993   1.387   7.390  13.696
43385SOL    HW131994   1.467   7.438  13.718
43385SOL    HW231995   1.316   7.448  13.723
43386SOL     OW31996   2.178   1.614  12.973
43386SOL    HW131997   2.139   1.641  12.890
43386SOL    HW231998   2.117   1.646  13.039
43387SOL     OW31999  13.321   2.419   8.300
43387SOL    HW132000  13.241   2.379   8.268
43387SOL    HW232001  13.295   2.466   8.380
43388SOL     OW32002   4.540   0.737   9.432
43388SOL    HW132003   4.484   0.661   9.448
43388SOL    HW232004   4.576   0.722   9.344
43389SOL     OW32005   2.666   6.718  12.251
43389SOL    HW132006   2.623   6.767  12.321
43389SOL    HW232007   2.744   6.681  12.293
43390SOL     OW32008  10.214  12.680   7.472
43390SOL    HW132009  10.216  12.620   7.546
43390SOL    HW232010  10.152  12.748   7.498
43391SOL     OW32011   3.482   0.242   8.181
43391SOL    HW132012   3.416   0.310   8.174
43391SOL    HW232013   3.562   0.282   8.146
43392SOL     OW32014   2.691   7.306   9.428
43392SOL    HW132015   2.736   7.298   9.344
43392SOL    HW232016   2.598   7.298   9.406
43393SOL     OW32017   5.871   1.324   7.176
43393SOL    HW132018   5.833   1.356   7.095
43393SOL    HW232019   5.848   1.390   7.241
43394SOL     OW32020   8.022  14.633  10.006
43394SOL    HW132021   8.013  14.718   9.963
43394SOL    HW232022   8.030  14.654  10.099
43395SOL     OW32023  12.867   8.876  13.197
43395SOL    HW132024  12.940   8.936  13.183
43395SOL    HW232025  12.805   8.926  13.251
43396SOL     OW32026   0.801   5.336   4.292
43396SOL    HW132027   0.833   5.420   4.325
43396SOL    HW232028   0.829   5.272   4.358
43397SOL     OW32029   8.100   4.848   7.014
43397SOL    HW132030   8.168   4.842   6.947
43397SOL    HW232031   8.028   4.796   6.980
43398SOL     OW32032   1.732   7.264   2.884
43398SOL    HW132033   1.765   7.311   2.807
43398SOL    HW232034   1.810   7.226   2.924
43399SOL     OW32035   1.505  14.772  11.458
43399SOL    HW132036   1.453  14.801  11.533
43399SOL    HW232037   1.440  14.759  11.388
43400SOL     OW32038   6.737   6.273   7.473
43400SOL    HW132039   6.826   6.275   7.438
43400SOL    HW232040   6.710   6.365   7.475
43401SOL     OW32041   3.683   4.574   2.326
43401SOL    HW132042   3.774   4.592   2.348
43401SOL    HW232043   3.666   4.630   2.250
43402SOL     OW32044  14.732  11.327   7.806
43402SOL    HW132045  14.822  11.293   7.813
43402SOL    HW232046  14.706  11.309   7.716
43403SOL     OW32047   3.989  13.869  12.391
43403SOL    HW132048   4.057  13.924  12.353
43403SOL    HW232049   3.994  13.787  12.342
43404SOL     OW32050  13.404   1.258   1.512
43404SOL    HW132051  13.386   1.164   1.514
43404SOL    HW232052  13.426   1.276   1.421
43405SOL     OW32053   6.583  12.330   4.754
43405SOL    HW132054   6.656  12.267   4.751
43405SOL    HW232055   6.613  12.399   4.814
43406SOL     OW32056   4.393   3.526  13.006
43406SOL    HW132057   4.420   3.472  12.931
43406SOL    HW232058   4.465   3.589  13.016
43407SOL     OW32059   3.583   6.991  14.435
43407SOL    HW132060   3.653   6.944  14.480
43407SOL    HW232061   3.615   7.081  14.429
43408SOL     OW32062  14.732   5.821  13.624
43408SOL    HW132063  14.677   5.875  13.568
43408SOL    HW232064  14.672   5.754  13.658
43409SOL     OW32065  11.451   9.518   8.043
43409SOL    HW132066  11.472   9.593   8.098
43409SOL    HW232067  11.470   9.547   7.954
43410SOL     OW32068   4.325   6.986  13.260
43410SOL    HW132069   4.281   7.052  13.206
43410SOL    HW232070   4.259   6.960  13.324
43411SOL     OW32071   6.859   1.539   8.247
43411SOL    HW132072   6.801   1.615   8.259
43411SOL    HW232073   6.885   1.514   8.335
43412SOL     OW32074   7.457   1.316   5.918
43412SOL    HW132075   7.397   1.243   5.929
43412SOL    HW232076   7.544   1.278   5.931
43413SOL     OW32077   0.166   8.780   0.693
43413SOL    HW132078   0.093   8.772   0.754
43413SOL    HW232079   0.183   8.874   0.688
43414SOL     OW32080  14.754  11.405  13.981
43414SOL    HW132081  14.845  11.377  13.989
43414SOL    HW232082  14.743  11.470  14.051
43415SOL     OW32083   2.693   1.892  14.516
43415SOL    HW132084   2.678   1.859  14.428
43415SOL    HW232085   2.781   1.863  14.539
43416SOL     OW32086   9.065  14.623  13.005
43416SOL    HW132087   9.113  14.701  13.030
43416SOL    HW232088   9.021  14.594  13.085
43417SOL     OW32089   2.662  11.553   2.926
43417SOL    HW132090   2.608  11.499   2.870
43417SOL    HW232091   2.614  11.557   3.009
43418SOL     OW32092   3.344  11.280   8.078
43418SOL    HW132093   3.270  11.237   8.035
43418SOL    HW232094   3.334  11.373   8.057
43419SOL     OW32095   4.836   8.556   1.937
43419SOL    HW132096   4.925   8.587   1.955
43419SOL    HW232097   4.780   8.609   1.995
43420SOL     OW32098   2.178  13.407   7.261
43420SOL    HW132099   2.101  13.379   7.212
43420SOL    HW232100   2.172  13.503   7.264
43421SOL     OW32101   5.213   9.013   6.306
43421SOL    HW132102   5.155   9.076   6.263
43421SOL    HW232103   5.177   9.002   6.394
43422SOL     OW32104  11.031   3.600   9.015
43422SOL    HW132105  11.116   3.558   9.001
43422SOL    HW232106  11.031   3.673   8.953
43423SOL     OW32107   1.491   1.323  10.816
43423SOL    HW132108   1.421   1.289  10.760
43423SOL    HW232109   1.471   1.288  10.902
43424SOL     OW32110   3.764  11.445  14.882
43424SOL    HW132111   3.845  11.439  14.831
43424SOL    HW232112   3.704  11.384  14.839
43425SOL     OW32113   3.519   2.676   3.922
43425SOL    HW132114   3.454   2.666   3.853
43425SOL    HW232115   3.467   2.678   4.003
43426SOL     OW32116   7.925  11.964   5.838
43426SOL    HW132117   7.918  12.021   5.914
43426SOL    HW232118   7.937  12.023   5.764
43427SOL     OW32119   8.484   1.235  10.005
43427SOL    HW132120   8.437   1.152   9.999
43427SOL    HW232121   8.465   1.280   9.923
43428SOL     OW32122   9.396   4.611   0.759
43428SOL    HW132123   9.431   4.551   0.825
43428SOL    HW232124   9.422   4.571   0.675
43429SOL     OW32125   9.905   9.681   0.660
43429SOL    HW132126   9.921   9.774   0.674
43429SOL    HW232127   9.816   9.667   0.694
43430SOL     OW32128   1.711  12.554  10.516
43430SOL    HW132129   1.719  12.642  10.554
43430SOL    HW232130   1.789  12.544  10.462
43431SOL     OW32131   5.793   1.877   3.140
43431SOL    HW132132   5.810   1.943   3.208
43431SOL    HW232133   5.700   1.883   3.122
43432SOL     OW32134  14.744   5.562  12.068
43432SOL    HW132135  14.695   5.586  12.147
43432SOL    HW232136  14.686   5.501  12.022
43433SOL     OW32137   1.274   3.244   2.176
43433SOL    HW132138   1.191   3.244   2.128
43433SOL    HW232139   1.333   3.295   2.122
43434SOL     OW32140  14.571   2.098   4.794
43434SOL    HW132141  14.640   2.132   4.737
43434SOL    HW232142  14.496   2.084   4.735
43435SOL     OW32143   4.885   7.987   6.980
43435SOL    HW132144   4.826   7.986   6.905
43435SOL    HW232145   4.843   8.045   7.043
43436SOL     OW32146   6.023   5.588  13.518
43436SOL    HW132147   6.076   5.631  13.451
43436SOL    HW232148   5.964   5.532  13.468
43437SOL     OW32149   9.317   5.810  10.769
43437SOL    HW132150   9.264   5.868  10.823
43437SOL    HW232151   9.255   5.745  10.735
43438SOL     OW32152   5.391   9.144   1.031
43438SOL    HW132153   5.333   9.068   1.023
43438SOL    HW232154   5.479   9.108   1.028
43439SOL     OW32155   5.224  12.807   0.607
43439SOL    HW132156   5.295  12.768   0.657
43439SOL    HW232157   5.156  12.740   0.605
43440SOL     OW32158   4.036   9.134  14.065
43440SOL    HW132159   4.076   9.051  14.091
43440SOL    HW232160   4.094   9.201  14.103
43441SOL     OW32161  10.838   6.466   2.601
43441SOL    HW132162  10.903   6.528   2.634
43441SOL    HW232163  10.882   6.381   2.603
43442SOL     OW32164   0.758   2.761  11.588
43442SOL    HW132165   0.664   2.773  11.593
43442SOL    HW232166   0.776   2.685  11.644
43443SOL     OW32167   7.347   5.978   4.519
43443SOL    HW132168   7.359   5.979   4.614
43443SOL    HW232169   7.402   6.050   4.488
43444SOL     OW32170   3.793   9.286  10.133
43444SOL    HW132171   3.871   9.231  10.137
43444SOL    HW232172   3.738   9.254  10.205
43445SOL     OW32173  13.338   6.744   7.221
43445SOL    HW132174  13.371   6.714   7.136
43445SOL    HW232175  13.390   6.696   7.285
43446SOL     OW32176  10.081   3.015  13.024
43446SOL    HW132177  10.171   3.046  13.021
43446SOL    HW232178  10.071   2.962  12.945
43447SOL     OW32179   6.606   2.662  12.913
43447SOL    HW132180   6.607   2.696  12.823
43447SOL    HW232181   6.648   2.731  12.965
43448SOL     OW32182   2.041   7.933  14.073
43448SOL    HW132183   2.044   8.027  14.090
43448SOL    HW232184   2.130   7.910  14.046
43449SOL     OW32185   4.794  14.674   9.721
43449SOL    HW132186   4.835  14.643   9.802
43449SOL    HW232187   4.716  14.721   9.751
43450SOL     OW32188   0.631   3.493   9.468
43450SOL    HW132189   0.578   3.419   9.497
43450SOL    HW232190   0.615   3.499   9.374
43451SOL     OW32191  10.748   7.024  13.149
43451SOL    HW132192  10.786   7.007  13.063
43451SOL    HW232193  10.680   7.090  13.133
43452SOL     OW32194   9.910   1.387   8.370
43452SOL    HW132195   9.923   1.325   8.299
43452SOL    HW232196   9.837   1.441   8.343
43453SOL     OW32197   0.858   4.092   1.967
43453SOL    HW132198   0.900   4.167   1.925
43453SOL    HW232199   0.909   4.077   2.047
43454SOL     OW32200  11.960   9.712   9.017
43454SOL    HW132201  11.873   9.728   8.979
43454SOL    HW232202  11.944   9.653   9.090
43455SOL     OW32203   5.785  10.385   5.904
43455SOL    HW132204   5.753  10.448   5.968
43455SOL    HW232205   5.810  10.308   5.955
43456SOL     OW32206   5.029  12.707   9.361
43456SOL    HW132207   5.082  12.672   9.432
43456SOL    HW232208   5.091  12.754   9.305
43457SOL     OW32209  14.329   5.751  12.881
43457SOL    HW132210  14.234   5.745  12.897
43457SOL    HW232211  14.346   5.680  12.819
43458SOL     OW32212   7.359  12.385  13.917
43458SOL    HW132213   7.309  12.427  13.986
43458SOL    HW232214   7.449  12.383  13.951
43459SOL     OW32215   8.101  11.424   5.813
43459SOL    HW132216   8.191  11.394   5.796
43459SOL    HW232217   8.098  11.437   5.907
43460SOL     OW32218  14.063  12.041   9.566
43460SOL    HW132219  14.035  12.121   9.609
43460SOL    HW232220  14.022  12.044   9.480
43461SOL     OW32221   1.718   0.959   5.475
43461SOL    HW132222   1.799   0.915   5.500
43461SOL    HW232223   1.701   1.021   5.547
43462SOL     OW32224  12.182  11.531  14.091
43462SOL    HW132225  12.252  11.596  14.100
43462SOL    HW232226  12.184  11.506  13.999
43463SOL     OW32227   9.865   8.039   7.636
43463SOL    HW132228   9.826   7.981   7.572
43463SOL    HW232229   9.909   7.981   7.698
43464SOL     OW32230  13.583   8.108   2.044
43464SOL    HW132231  13.636   8.186   2.027
43464SOL    HW232232  13.610   8.079   2.131
43465SOL     OW32233   4.074   8.567   4.295
43465SOL    HW132234   4.075   8.651   4.250
43465SOL    HW232235   3.998   8.522   4.258
43466SOL     OW32236   2.363   9.687   2.361
43466SOL    HW132237   2.429   9.623   2.386
43466SOL    HW232238   2.356   9.678   2.266
43467SOL     OW32239   7.085   3.555   9.686
43467SOL    HW132240   7.021   3.498   9.728
43467SOL    HW232241   7.059   3.643   9.713
43468SOL     OW32242   9.017   8.747  13.609
43468SOL    HW132243   8.977   8.831  13.587
43468SOL    HW232244   9.042   8.756  13.702
43469SOL     OW32245   3.742   2.101  12.824
43469SOL    HW132246   3.747   2.108  12.920
43469SOL    HW232247   3.833   2.104  12.795
43470SOL     OW32248  10.207   8.287  14.704
43470SOL    HW132249  10.223   8.208  14.653
43470SOL    HW232250  10.291   8.304  14.747
43471SOL     OW32251  13.346   9.065   3.542
43471SOL    HW132252  13.408   9.059   3.615
43471SOL    HW232253  13.351   8.981   3.498
43472SOL     OW32254   4.908  12.272   8.242
43472SOL    HW132255   4.938  12.265   8.151
43472SOL    HW232256   4.925  12.186   8.280
43473SOL     OW32257   4.765   9.399   6.182
43473SOL    HW132258   4.690   9.454   6.202
43473SOL    HW232259   4.760   9.327   6.245
43474SOL     OW32260   0.733   3.105   4.722
43474SOL    HW132261   0.797   3.088   4.792
43474SOL    HW232262   0.784   3.098   4.641
43475SOL     OW32263   3.329  12.762   0.334
43475SOL    HW132264   3.274  12.780   0.258
43475SOL    HW232265   3.344  12.668   0.331
43476SOL     OW32266   3.485   6.642   9.583
43476SOL    HW132267   3.528   6.717   9.623
43476SOL    HW232268   3.399   6.675   9.555
43477SOL     OW32269   9.031  13.224   3.312
43477SOL    HW132270   8.963  13.262   3.256
43477SOL    HW232271   9.107  13.281   3.298
43478SOL     OW32272   7.273   8.706   9.089
43478SOL    HW132273   7.257   8.743   9.176
43478SOL    HW232274   7.203   8.742   9.035
43479SOL     OW32275   4.201   5.171  13.547
43479SOL    HW132276   4.124   5.134  13.505
43479SOL    HW232277   4.205   5.262  13.518
43480SOL     OW32278   4.189   8.620   9.061
43480SOL    HW132279   4.221   8.690   9.005
43480SOL    HW232280   4.098   8.606   9.034
43481SOL     OW32281   4.863   1.717   4.757
43481SOL    HW132282   4.935   1.780   4.769
43481SOL    HW232283   4.821   1.744   4.676
43482SOL     OW32284   7.985   8.218   4.635
43482SOL    HW132285   8.061   8.160   4.648
43482SOL    HW232286   8.003   8.293   4.692
43483SOL     OW32287  11.132   1.814   4.327
43483SOL    HW132288  11.128   1.754   4.401
43483SOL    HW232289  11.086   1.892   4.356
43484SOL     OW32290  11.485  11.790  10.052
43484SOL    HW132291  11.543  11.763  10.124
43484SOL    HW232292  11.518  11.876  10.025
43485SOL     OW32293  12.190  14.584   9.058
43485SOL    HW132294  12.147  14.515   9.109
43485SOL    HW232295  12.121  14.650   9.045
43486SOL     OW32296  13.175   8.876  12.222
43486SOL    HW132297  13.092   8.844  12.187
43486SOL    HW232298  13.203   8.943  12.159
43487SOL     OW32299   6.218  12.795   1.139
43487SOL    HW132300   6.291  12.792   1.077
43487SOL    HW232301   6.259  12.791   1.225
43488SOL     OW32302  10.494   1.684  14.429
43488SOL    HW132303  10.547   1.759  14.401
43488SOL    HW232304  10.406   1.720  14.438
43489SOL     OW32305   2.606   0.853   6.864
43489SOL    HW132306   2.645   0.920   6.809
43489SOL    HW232307   2.635   0.770   6.826
43490SOL     OW32308   1.754  13.042   6.237
43490SOL    HW132309   1.746  12.975   6.169
43490SOL    HW232310   1.813  13.108   6.198
43491SOL     OW32311   3.088   9.966  14.164
43491SOL    HW132312   3.134   9.887  14.190
43491SOL    HW232313   3.051   9.946  14.078
43492SOL     OW32314  14.640   8.060   8.202
43492SOL    HW132315  14.603   8.088   8.118
43492SOL    HW232316  14.734   8.049   8.185
43493SOL     OW32317  14.473  11.385  12.496
43493SOL    HW132318  14.402  11.417  12.551
43493SOL    HW232319  14.458  11.291  12.489
43494SOL     OW32320  10.907  11.365   3.107
43494SOL    HW132321  10.955  11.445   3.127
43494SOL    HW232322  10.938  11.302   3.171
43495SOL     OW32323  12.066   5.976   7.461
43495SOL    HW132324  12.107   5.981   7.375
43495SOL    HW232325  12.080   6.062   7.500
43496SOL     OW32326   6.932   1.469   7.745
43496SOL    HW132327   6.986   1.480   7.668
43496SOL    HW232328   6.974   1.521   7.813
43497SOL     OW32329   9.919   0.089  13.453
43497SOL    HW132330  10.004   0.110  13.492
43497SOL    HW232331   9.925  14.877  13.434
43498SOL     OW32332   8.954   3.403   1.855
43498SOL    HW132333   8.919   3.315   1.847
43498SOL    HW232334   8.880   3.460   1.833
43499SOL     OW32335  11.824   7.920  10.870
43499SOL    HW132336  11.754   7.858  10.848
43499SOL    HW232337  11.779   8.004  10.877
43500SOL     OW32338   1.778   5.548  10.299
43500SOL    HW132339   1.865   5.587  10.307
43500SOL    HW232340   1.793   5.454  10.312
43501SOL     OW32341  12.668  10.817   0.800
43501SOL    HW132342  12.617  10.768   0.736
43501SOL    HW232343  12.710  10.749   0.853
43502SOL     OW32344  13.043   6.672   2.014
43502SOL    HW132345  13.136   6.671   2.035
43502SOL    HW232346  13.003   6.609   2.074
43503SOL     OW32347  14.150  12.099   0.669
43503SOL    HW132348  14.133  12.161   0.739
43503SOL    HW232349  14.147  12.013   0.711
43504SOL     OW32350   8.119   0.524   6.066
43504SOL    HW132351   8.114   0.456   5.998
43504SOL    HW232352   8.209   0.519   6.098
43505SOL     OW32353   4.131   6.461   1.108
43505SOL    HW132354   4.100   6.390   1.164
43505SOL    HW232355   4.067   6.466   1.037
43506SOL     OW32356  14.514   4.048   4.016
43506SOL    HW132357  14.601   4.061   3.977
43506SOL    HW232358  14.528   4.062   4.109
43507SOL     OW32359  12.281   3.968   7.989
43507SOL    HW132360  12.234   4.020   8.054
43507SOL    HW232361  12.269   4.017   7.907
43508SOL     OW32362   8.316   5.120  11.784
43508SOL    HW132363   8.325   5.215  11.796
43508SOL    HW232364   8.229   5.100  11.819
43509SOL     OW32365  10.246   4.456   5.448
43509SOL    HW132366  10.205   4.542   5.437
43509SOL    HW232367  10.269   4.453   5.541
43510SOL     OW32368  13.414   5.261   7.640
43510SOL    HW132369  13.395   5.170   7.660
43510SOL    HW232370  13.384   5.309   7.717
43511SOL     OW32371   8.100   1.632   6.989
43511SOL    HW132372   8.093   1.544   6.953
43511SOL    HW232373   8.153   1.680   6.924
43512SOL     OW32374   7.166  12.169   1.408
43512SOL    HW132375   7.176  12.134   1.497
43512SOL    HW232376   7.255  12.183   1.377
43513SOL     OW32377   6.297  12.046   2.600
43513SOL    HW132378   6.353  12.080   2.670
43513SOL    HW232379   6.284  11.954   2.622
43514SOL     OW32380   0.821  11.784   9.424
43514SOL    HW132381   0.865  11.862   9.392
43514SOL    HW232382   0.843  11.781   9.517
43515SOL     OW32383   4.053  11.817   9.621
43515SOL    HW132384   4.028  11.897   9.575
43515SOL    HW232385   4.145  11.830   9.644
43516SOL     OW32386   3.456   6.722  11.697
43516SOL    HW132387   3.498   6.636  11.703
43516SOL    HW232388   3.366   6.707  11.724
43517SOL     OW32389  13.179   6.052   2.837
43517SOL    HW132390  13.203   5.968   2.876
43517SOL    HW232391  13.257   6.080   2.789
43518SOL     OW32392   6.999   9.390   4.034
43518SOL    HW132393   7.086   9.409   3.998
43518SOL    HW232394   6.973   9.309   3.990
43519SOL     OW32395  12.408  14.694   1.554
43519SOL    HW132396  12.396  14.773   1.500
43519SOL    HW232397  12.356  14.711   1.632
43520SOL     OW32398  12.163  14.510  12.639
43520SOL    HW132399  12.120  14.595  12.638
43520SOL    HW232400  12.249  14.527  12.677
43521SOL     OW32401   2.291  12.101   9.556
43521SOL    HW132402   2.261  12.012   9.572
43521SOL    HW232403   2.337  12.125   9.636
43522SOL     OW32404  14.027   6.299   7.197
43522SOL    HW132405  13.955   6.236   7.192
43522SOL    HW232406  14.040   6.314   7.290
43523SOL     OW32407   7.892   6.691   5.826
43523SOL    HW132408   7.916   6.764   5.882
43523SOL    HW232409   7.796   6.687   5.831
43524SOL     OW32410   6.604   3.975   1.411
43524SOL    HW132411   6.671   3.907   1.406
43524SOL    HW232412   6.567   3.966   1.499
43525SOL     OW32413   7.098   8.170   0.885
43525SOL    HW132414   7.104   8.136   0.796
43525SOL    HW232415   7.134   8.259   0.879
43526SOL     OW32416  13.807  12.629   2.559
43526SOL    HW132417  13.849  12.676   2.487
43526SOL    HW232418  13.837  12.673   2.638
43527SOL     OW32419   5.817   6.636   7.162
43527SOL    HW132420   5.742   6.596   7.205
43527SOL    HW232421   5.801   6.730   7.168
43528SOL     OW32422   4.656  13.107   8.964
43528SOL    HW132423   4.687  13.029   8.918
43528SOL    HW232424   4.577  13.133   8.916
43529SOL     OW32425   6.015  11.898  12.732
43529SOL    HW132426   6.045  11.970  12.676
43529SOL    HW232427   6.086  11.834  12.729
43530SOL     OW32428   6.883   5.171   6.848
43530SOL    HW132429   6.944   5.243   6.833
43530SOL    HW232430   6.832   5.166   6.767
43531SOL     OW32431  14.032   5.228   6.272
43531SOL    HW132432  14.057   5.259   6.185
43531SOL    HW232433  13.950   5.181   6.258
43532SOL     OW32434   5.927   7.423   8.130
43532SOL    HW132435   5.887   7.419   8.217
43532SOL    HW232436   6.015   7.389   8.143
43533SOL     OW32437   2.580   1.861  10.222
43533SOL    HW132438   2.651   1.923  10.207
43533SOL    HW232439   2.521   1.873  10.148
43534SOL     OW32440   1.693   8.849   7.157
43534SOL    HW132441   1.636   8.926   7.153
43534SOL    HW232442   1.736   8.855   7.242
43535SOL     OW32443   6.438   8.106   3.539
43535SOL    HW132444   6.437   8.174   3.607
43535SOL    HW232445   6.530   8.101   3.511
43536SOL     OW32446   5.991   3.204  13.140
43536SOL    HW132447   6.085   3.219  13.155
43536SOL    HW232448   5.983   3.197  13.045
43537SOL     OW32449   1.591  10.490  12.358
43537SOL    HW132450   1.548  10.540  12.427
43537SOL    HW232451   1.611  10.406  12.398
43538SOL     OW32452  10.376   9.497   0.929
43538SOL    HW132453  10.433   9.541   0.865
43538SOL    HW232454  10.414   9.517   1.014
43539SOL     OW32455   5.472   3.396  10.829
43539SOL    HW132456   5.524   3.319  10.851
43539SOL    HW232457   5.401   3.397  10.894
43540SOL     OW32458  12.060  10.080   9.948
43540SOL    HW132459  12.051  10.106   9.856
43540SOL    HW232460  12.023  10.153   9.997
43541SOL     OW32461   9.797   7.101   2.668
43541SOL    HW132462   9.879   7.054   2.682
43541SOL    HW232463   9.814   7.188   2.704
43542SOL     OW32464   5.338   9.209   4.749
43542SOL    HW132465   5.334   9.143   4.818
43542SOL    HW232466   5.251   9.206   4.708
43543SOL     OW32467   7.939   1.115  12.085
43543SOL    HW132468   8.012   1.133  12.144
43543SOL    HW232469   7.907   1.029  12.112
43544SOL     OW32470   5.441   8.329   0.056
43544SOL    HW132471   5.486   8.245   0.063
43544SOL    HW232472   5.350   8.305   0.038
43545SOL     OW32473   6.338  10.984  12.088
43545SOL    HW132474   6.319  11.051  12.154
43545SOL    HW232475   6.365  11.033  12.011
43546SOL     OW32476   2.424   2.145  12.888
43546SOL    HW132477   2.506   2.100  12.906
43546SOL    HW232478   2.449   2.224  12.840
43547SOL     OW32479   7.354   9.082  14.797
43547SOL    HW132480   7.265   9.114  14.809
43547SOL    HW232481   7.365   9.016  14.866
43548SOL     OW32482   7.103   2.379   4.000
43548SOL    HW132483   7.152   2.307   3.960
43548SOL    HW232484   7.065   2.426   3.925
43549SOL     OW32485  10.893  12.187   0.436
43549SOL    HW132486  10.954  12.260   0.449
43549SOL    HW232487  10.941  12.125   0.381
43550SOL     OW32488   8.164  14.144   9.235
43550SOL    HW132489   8.124  14.189   9.161
43550SOL    HW232490   8.132  14.054   9.229
43551SOL     OW32491   9.924   0.483   8.210
43551SOL    HW132492   9.899   0.522   8.126
43551SOL    HW232493   9.892   0.544   8.276
43552SOL     OW32494  10.055   9.559   3.350
43552SOL    HW132495  10.037   9.600   3.435
43552SOL    HW232496  10.146   9.582   3.331
43553SOL     OW32497  10.700   7.831  12.110
43553SOL    HW132498  10.709   7.819  12.204
43553SOL    HW232499  10.790   7.841  12.078
43554SOL     OW32500   4.741   1.894   5.129
43554SOL    HW132501   4.755   1.799   5.120
43554SOL    HW232502   4.652   1.901   5.163
43555SOL     OW32503  13.402   3.563   9.730
43555SOL    HW132504  13.480   3.507   9.730
43555SOL    HW232505  13.403   3.606   9.815
43556SOL     OW32506   8.368   9.912  13.077
43556SOL    HW132507   8.310   9.839  13.098
43556SOL    HW232508   8.427   9.877  13.009
43557SOL     OW32509  12.935   6.385   4.512
43557SOL    HW132510  12.909   6.293   4.512
43557SOL    HW232511  12.873   6.427   4.572
43558SOL     OW32512   1.799  10.397  10.840
43558SOL    HW132513   1.734  10.370  10.776
43558SOL    HW232514   1.871  10.335  10.828
43559SOL     OW32515  12.126   0.400   6.538
43559SOL    HW132516  12.074   0.429   6.613
43559SOL    HW232517  12.091   0.449   6.464
43560SOL     OW32518   1.294   6.709  13.266
43560SOL    HW132519   1.334   6.631  13.305
43560SOL    HW232520   1.202   6.703  13.293
43561SOL     OW32521   9.595  10.602  12.922
43561SOL    HW132522   9.569  10.513  12.945
43561SOL    HW232523   9.645  10.633  12.997
43562SOL     OW32524  10.911  12.624   8.637
43562SOL    HW132525  10.927  12.532   8.613
43562SOL    HW232526  10.877  12.664   8.557
43563SOL     OW32527  10.532   7.910   0.558
43563SOL    HW132528  10.469   7.840   0.545
43563SOL    HW232529  10.612   7.865   0.586
43564SOL     OW32530   8.954   0.051   3.439
43564SOL    HW132531   9.036   0.004   3.425
43564SOL    HW232532   8.941   0.047   3.534
43565SOL     OW32533   8.811   6.653   2.600
43565SOL    HW132534   8.802   6.597   2.523
43565SOL    HW232535   8.722   6.678   2.623
43566SOL     OW32536   9.792   0.161  13.673
43566SOL    HW132537   9.746   0.080  13.694
43566SOL    HW232538   9.851   0.138  13.602
43567SOL     OW32539   4.733   9.518   5.513
43567SOL    HW132540   4.678   9.499   5.437
43567SOL    HW232541   4.753   9.612   5.505
43568SOL     OW32542   7.899  12.970   6.665
43568SOL    HW132543   7.939  12.939   6.746
43568SOL    HW232544   7.972  13.011   6.617
43569SOL     OW32545   1.375   4.109   8.332
43569SOL    HW132546   1.450   4.049   8.334
43569SOL    HW232547   1.342   4.102   8.243
43570SOL     OW32548   9.510   3.198   2.086
43570SOL    HW132549   9.483   3.190   1.995
43570SOL    HW232550   9.471   3.123   2.130
43571SOL     OW32551   3.423   1.217  11.363
43571SOL    HW132552   3.417   1.285  11.430
43571SOL    HW232553   3.350   1.158  11.382
43572SOL     OW32554  11.978   6.474   4.655
43572SOL    HW132555  11.907   6.431   4.607
43572SOL    HW232556  12.021   6.529   4.589
43573SOL     OW32557   3.985   8.336   2.530
43573SOL    HW132558   4.075   8.361   2.550
43573SOL    HW232559   3.969   8.374   2.444
43574SOL     OW32560   9.237   0.266   9.380
43574SOL    HW132561   9.276   0.328   9.318
43574SOL    HW232562   9.203   0.321   9.450
43575SOL     OW32563   7.365  10.242   4.135
43575SOL    HW132564   7.458  10.260   4.143
43575SOL    HW232565   7.323  10.325   4.156
43576SOL     OW32566  12.229  10.261   4.533
43576SOL    HW132567  12.282  10.243   4.611
43576SOL    HW232568  12.204  10.353   4.541
43577SOL     OW32569   2.688   0.763   7.253
43577SOL    HW132570   2.606   0.760   7.205
43577SOL    HW232571   2.754   0.736   7.189
43578SOL     OW32572  10.514  10.765   0.940
43578SOL    HW132573  10.589  10.786   0.996
43578SOL    HW232574  10.440  10.755   1.000
43579SOL     OW32575   0.665   9.325   2.715
43579SOL    HW132576   0.677   9.373   2.632
43579SOL    HW232577   0.727   9.366   2.775
43580SOL     OW32578  10.934   2.495  14.213
43580SOL    HW132579  10.936   2.429  14.143
43580SOL    HW232580  10.966   2.574  14.171
43581SOL     OW32581   5.788  13.537   0.214
43581SOL    HW132582   5.722  13.586   0.263
43581SOL    HW232583   5.864  13.534   0.272
43582SOL     OW32584  10.470  14.395  14.561
43582SOL    HW132585  10.507  14.429  14.480
43582SOL    HW232586  10.462  14.472  14.618
43583SOL     OW32587   8.591   9.841   6.417
43583SOL    HW132588   8.667   9.892   6.445
43583SOL    HW232589   8.517   9.881   6.462
43584SOL     OW32590   0.988   1.072   6.933
43584SOL    HW132591   1.070   1.062   6.981
43584SOL    HW232592   0.954   0.983   6.926
43585SOL     OW32593   9.611   6.405   4.399
43585SOL    HW132594   9.541   6.471   4.392
43585SOL    HW232595   9.565   6.321   4.400
43586SOL     OW32596  10.455   1.845   6.611
43586SOL    HW132597  10.379   1.857   6.668
43586SOL    HW232598  10.528   1.830   6.670
43587SOL     OW32599   5.193   1.932  14.872
43587SOL    HW132600   5.175   1.846   0.027
43587SOL    HW232601   5.148   1.993   0.048
43588SOL     OW32602   3.433  11.312   9.409
43588SOL    HW132603   3.512  11.289   9.457
43588SOL    HW232604   3.385  11.369   9.468
43589SOL     OW32605   5.974  13.972   8.893
43589SOL    HW132606   5.939  14.046   8.843
43589SOL    HW232607   6.032  14.012   8.957
43590SOL     OW32608   9.968  14.768   0.610
43590SOL    HW132609  10.032  14.713   0.656
43590SOL    HW232610   9.971  14.852   0.655
43591SOL     OW32611   7.862   0.386  13.597
43591SOL    HW132612   7.932   0.351  13.543
43591SOL    HW232613   7.814   0.308  13.628
43592SOL     OW32614   1.100  11.690   5.186
43592SOL    HW132615   1.060  11.631   5.249
43592SOL    HW232616   1.137  11.633   5.119
43593SOL     OW32617   0.001   4.027   2.003
43593SOL    HW132618  14.843   4.097   2.054
43593SOL    HW232619   0.087   4.062   1.978
43594SOL     OW32620   3.000  12.193  11.288
43594SOL    HW132621   3.085  12.236  11.275
43594SOL    HW232622   3.005  12.155  11.376
43595SOL     OW32623  14.724  13.459   1.967
43595SOL    HW132624  14.712  13.512   1.888
43595SOL    HW232625  14.635  13.439   1.996
43596SOL     OW32626  13.197  13.487   2.676
43596SOL    HW132627  13.232  13.569   2.711
43596SOL    HW232628  13.102  13.497   2.682
43597SOL     OW32629   2.435   6.312   9.632
43597SOL    HW132630   2.429   6.264   9.715
43597SOL    HW232631   2.514   6.365   9.641
43598SOL     OW32632   5.229   1.186  12.574
43598SOL    HW132633   5.149   1.144  12.543
43598SOL    HW232634   5.297   1.155  12.514
43599SOL     OW32635   6.230   7.529  10.532
43599SOL    HW132636   6.139   7.502  10.518
43599SOL    HW232637   6.282   7.458  10.494
43600SOL     OW32638  14.163   9.751   4.998
43600SOL    HW132639  14.124   9.788   4.919
43600SOL    HW232640  14.168   9.657   4.980
43601SOL     OW32641   1.189   1.990   5.306
43601SOL    HW132642   1.141   1.936   5.369
43601SOL    HW232643   1.255   1.932   5.270
43602SOL     OW32644   3.804  10.637   3.170
43602SOL    HW132645   3.712  10.633   3.141
43602SOL    HW232646   3.836  10.547   3.160
43603SOL     OW32647   6.457   1.275  11.173
43603SOL    HW132648   6.418   1.256  11.258
43603SOL    HW232649   6.518   1.202  11.158
43604SOL     OW32650  13.060   4.806   7.520
43604SOL    HW132651  12.983   4.754   7.500
43604SOL    HW232652  13.035   4.896   7.501
43605SOL     OW32653   2.670   4.013   6.478
43605SOL    HW132654   2.682   3.959   6.400
43605SOL    HW232655   2.717   4.094   6.458
43606SOL     OW32656   6.778  12.846   0.102
43606SOL    HW132657   6.684  12.858   0.115
43606SOL    HW232658   6.811  12.934   0.084
43607SOL     OW32659  13.628   0.653   0.843
43607SOL    HW132660  13.652   0.578   0.898
43607SOL    HW232661  13.617   0.725   0.905
43608SOL     OW32662   3.965   4.924   0.649
43608SOL    HW132663   3.889   4.976   0.674
43608SOL    HW232664   3.961   4.918   0.554
43609SOL     OW32665   2.122   8.629   5.853
43609SOL    HW132666   2.181   8.558   5.881
43609SOL    HW232667   2.056   8.634   5.923
43610SOL     OW32668   5.938   4.256   0.058
43610SOL    HW132669   5.855   4.228   0.099
43610SOL    HW232670   6.003   4.245   0.127
43611SOL     OW32671  10.510  14.146   6.396
43611SOL    HW132672  10.566  14.167   6.471
43611SOL    HW232673  10.568  14.102   6.334
43612SOL     OW32674   3.579   7.467   5.187
43612SOL    HW132675   3.661   7.465   5.237
43612SOL    HW232676   3.591   7.402   5.118
43613SOL     OW32677  14.053   0.295   3.878
43613SOL    HW132678  13.962   0.317   3.898
43613SOL    HW232679  14.082   0.242   3.952
43614SOL     OW32680  11.402  12.663   4.984
43614SOL    HW132681  11.483  12.696   4.945
43614SOL    HW232682  11.430  12.595   5.045
43615SOL     OW32683  13.075   5.436   1.054
43615SOL    HW132684  12.998   5.388   1.085
43615SOL    HW232685  13.148   5.396   1.100
43616SOL     OW32686   6.488   9.521  12.792
43616SOL    HW132687   6.566   9.537  12.739
43616SOL    HW232688   6.478   9.601  12.844
43617SOL     OW32689  13.757   0.508   3.052
43617SOL    HW132690  13.674   0.518   3.098
43617SOL    HW232691  13.733   0.510   2.959
43618SOL     OW32692  10.238   3.904   7.115
43618SOL    HW132693  10.244   3.819   7.158
43618SOL    HW232694  10.173   3.952   7.165
43619SOL     OW32695   3.028   2.271  12.126
43619SOL    HW132696   3.082   2.231  12.057
43619SOL    HW232697   3.018   2.362  12.099
43620SOL     OW32698  14.430  13.861   4.614
43620SOL    HW132699  14.496  13.884   4.549
43620SOL    HW232700  14.455  13.774   4.645
43621SOL     OW32701   7.182   1.829   6.479
43621SOL    HW132702   7.146   1.851   6.564
43621SOL    HW232703   7.142   1.744   6.457
43622SOL     OW32704   1.421  12.092  11.347
43622SOL    HW132705   1.468  12.126  11.271
43622SOL    HW232706   1.473  12.016  11.375
43623SOL     OW32707   0.928  14.768   4.744
43623SOL    HW132708   1.022  14.774   4.729
43623SOL    HW232709   0.893  14.725   4.666
43624SOL     OW32710  13.194   8.114  13.232
43624SOL    HW132711  13.161   8.030  13.201
43624SOL    HW232712  13.154   8.124  13.319
43625SOL     OW32713   6.279   0.851  14.568
43625SOL    HW132714   6.308   0.769  14.528
43625SOL    HW232715   6.356   0.909  14.564
43626SOL     OW32716  11.257   2.840   8.898
43626SOL    HW132717  11.283   2.925   8.863
43626SOL    HW232718  11.204   2.861   8.974
43627SOL     OW32719  12.734  13.543   0.006
43627SOL    HW132720  12.758  13.578  14.802
43627SOL    HW232721  12.716  13.450  14.871
43628SOL     OW32722   9.513   6.157   1.267
43628SOL    HW132723   9.565   6.101   1.208
43628SOL    HW232724   9.479   6.226   1.210
43629SOL     OW32725   1.795   2.563  10.810
43629SOL    HW132726   1.805   2.645  10.858
43629SOL    HW232727   1.806   2.495  10.877
43630SOL     OW32728   4.764   6.631   6.960
43630SOL    HW132729   4.788   6.722   6.977
43630SOL    HW232730   4.824   6.603   6.891
43631SOL     OW32731   1.178   1.406   3.585
43631SOL    HW132732   1.205   1.357   3.663
43631SOL    HW232733   1.233   1.373   3.515
43632SOL     OW32734  10.494  12.693   3.670
43632SOL    HW132735  10.532  12.704   3.757
43632SOL    HW232736  10.456  12.778   3.649
43633SOL     OW32737   4.198   2.359   1.879
43633SOL    HW132738   4.174   2.284   1.824
43633SOL    HW232739   4.214   2.321   1.966
43634SOL     OW32740   9.167   2.615   1.996
43634SOL    HW132741   9.206   2.626   2.083
43634SOL    HW232742   9.078   2.650   2.005
43635SOL     OW32743  10.374   8.444  11.005
43635SOL    HW132744  10.468   8.465  11.008
43635SOL    HW232745  10.368   8.367  10.949
43636SOL     OW32746  10.573  12.055   2.664
43636SOL    HW132747  10.505  12.122   2.676
43636SOL    HW232748  10.578  12.043   2.569
43637SOL     OW32749   4.840   6.015   5.250
43637SOL    HW132750   4.838   5.982   5.160
43637SOL    HW232751   4.856   5.938   5.304
43638SOL     OW32752   9.541   5.119   2.174
43638SOL    HW132753   9.472   5.184   2.184
43638SOL    HW232754   9.589   5.121   2.256
43639SOL     OW32755   3.472   7.993  11.391
43639SOL    HW132756   3.497   7.970  11.302
43639SOL    HW232757   3.550   7.976  11.443
43640SOL     OW32758   4.490  11.457   6.509
43640SOL    HW132759   4.503  11.547   6.536
43640SOL    HW232760   4.411  11.459   6.455
43641SOL     OW32761   6.331  10.624   1.742
43641SOL    HW132762   6.363  10.571   1.670
43641SOL    HW232763   6.315  10.562   1.813
43642SOL     OW32764   0.009   0.620   8.129
43642SOL    HW132765   0.073   0.549   8.124
43642SOL    HW232766   0.041   0.686   8.068
43643SOL     OW32767   1.605   3.323   6.007
43643SOL    HW132768   1.700   3.320   6.004
43643SOL    HW232769   1.586   3.394   6.069
43644SOL     OW32770   5.169  11.210   2.710
43644SOL    HW132771   5.255  11.172   2.726
43644SOL    HW232772   5.148  11.258   2.790
43645SOL     OW32773  13.643   3.887   1.149
43645SOL    HW132774  13.718   3.907   1.093
43645SOL    HW232775  13.678   3.890   1.238
43646SOL     OW32776   7.910  13.047   3.341
43646SOL    HW132777   7.853  13.112   3.300
43646SOL    HW232778   7.868  13.028   3.425
43647SOL     OW32779  14.002   9.868   7.757
43647SOL    HW132780  13.946   9.905   7.826
43647SOL    HW232781  13.994   9.773   7.768
43648SOL     OW32782   3.177  10.956   2.003
43648SOL    HW132783   3.109  10.923   1.945
43648SOL    HW232784   3.250  10.894   1.993
43649SOL     OW32785   8.517   5.115  14.193
43649SOL    HW132786   8.603   5.115  14.151
43649SOL    HW232787   8.462   5.166  14.134
43650SOL     OW32788   9.937  12.867  11.509
43650SOL    HW132789   9.894  12.920  11.577
43650SOL    HW232790   9.873  12.863  11.438
43651SOL     OW32791   8.316   5.215   4.567
43651SOL    HW132792   8.395   5.211   4.513
43651SOL    HW232793   8.323   5.139   4.625
43652SOL     OW32794   7.060   6.279   4.307
43652SOL    HW132795   7.130   6.333   4.343
43652SOL    HW232796   7.076   6.278   4.213
43653SOL     OW32797   8.006  11.166   9.643
43653SOL    HW132798   8.035  11.242   9.695
43653SOL    HW232799   7.911  11.175   9.640
43654SOL     OW32800   8.595  12.161  13.278
43654SOL    HW132801   8.533  12.126  13.343
43654SOL    HW232802   8.680  12.130  13.308
43655SOL     OW32803  13.462   0.348   8.949
43655SOL    HW132804  13.487   0.342   9.041
43655SOL    HW232805  13.431   0.438   8.938
43656SOL     OW32806   1.305   8.340   8.771
43656SOL    HW132807   1.271   8.300   8.691
43656SOL    HW232808   1.275   8.431   8.768
43657SOL     OW32809   3.453   2.570  11.165
43657SOL    HW132810   3.436   2.658  11.198
43657SOL    HW232811   3.425   2.573  11.073
43658SOL     OW32812   1.684   4.184   7.282
43658SOL    HW132813   1.699   4.108   7.338
43658SOL    HW232814   1.745   4.250   7.314
43659SOL     OW32815  12.054  11.709   3.870
43659SOL    HW132816  11.974  11.667   3.836
43659SOL    HW232817  12.100  11.740   3.792
43660SOL     OW32818  13.153  13.618   8.744
43660SOL    HW132819  13.154  13.537   8.693
43660SOL    HW232820  13.072  13.612   8.796
43661SOL     OW32821   7.967  12.915   7.629
43661SOL    HW132822   7.889  12.873   7.666
43661SOL    HW232823   8.040  12.865   7.666
43662SOL     OW32824  12.868   7.498   8.262
43662SOL    HW132825  12.794   7.469   8.208
43662SOL    HW232826  12.827   7.530   8.343
43663SOL     OW32827  14.719   4.524  14.094
43663SOL    HW132828  14.767   4.475  14.027
43663SOL    HW232829  14.780   4.593  14.121
43664SOL     OW32830   2.816   0.711   0.470
43664SOL    HW132831   2.893   0.685   0.520
43664SOL    HW232832   2.757   0.748   0.535
43665SOL     OW32833   8.141  12.009   6.250
43665SOL    HW132834   8.224  11.961   6.249
43665SOL    HW232835   8.081  11.954   6.300
43666SOL     OW32836   4.735  13.617   4.288
43666SOL    HW132837   4.669  13.561   4.250
43666SOL    HW232838   4.707  13.706   4.266
43667SOL     OW32839  10.854   0.129   3.239
43667SOL    HW132840  10.900   0.046   3.252
43667SOL    HW232841  10.923   0.189   3.211
43668SOL     OW32842   1.806  10.269   5.187
43668SOL    HW132843   1.886  10.242   5.140
43668SOL    HW232844   1.827  10.356   5.221
43669SOL     OW32845   1.973  14.447  14.685
43669SOL    HW132846   1.938  14.533  14.662
43669SOL    HW232847   1.955  14.392  14.608
43670SOL     OW32848  13.687  12.593   0.243
43670SOL    HW132849  13.725  12.546   0.169
43670SOL    HW232850  13.732  12.559   0.320
43671SOL     OW32851   9.518   0.945   7.653
43671SOL    HW132852   9.595   0.917   7.701
43671SOL    HW232853   9.449   0.949   7.719
43672SOL     OW32854  13.111  11.337   9.501
43672SOL    HW132855  13.058  11.339   9.581
43672SOL    HW232856  13.047  11.339   9.430
43673SOL     OW32857   6.765   1.904   2.080
43673SOL    HW132858   6.856   1.930   2.063
43673SOL    HW232859   6.754   1.915   2.175
43674SOL     OW32860   3.059  11.968   2.380
43674SOL    HW132861   2.970  11.943   2.407
43674SOL    HW232862   3.081  12.043   2.435
43675SOL     OW32863   2.789   5.903   6.725
43675SOL    HW132864   2.781   5.922   6.632
43675SOL    HW232865   2.781   5.988   6.768
43676SOL     OW32866   8.330   7.118  14.683
43676SOL    HW132867   8.302   7.186  14.745
43676SOL    HW232868   8.384   7.164  14.620
43677SOL     OW32869   6.013   7.664  14.757
43677SOL    HW132870   5.996   7.717  14.679
43677SOL    HW232871   6.103   7.686  14.781
43678SOL     OW32872   5.284   1.597  11.155
43678SOL    HW132873   5.205   1.650  11.159
43678SOL    HW232874   5.356   1.659  11.161
43679SOL     OW32875  11.860   7.931   8.784
43679SOL    HW132876  11.847   7.837   8.795
43679SOL    HW232877  11.801   7.955   8.713
43680SOL     OW32878   1.426   6.641   9.773
43680SOL    HW132879   1.455   6.700   9.703
43680SOL    HW232880   1.370   6.577   9.729
43681SOL     OW32881   9.318   9.852   5.229
43681SOL    HW132882   9.364   9.807   5.301
43681SOL    HW232883   9.376   9.843   5.154
43682SOL     OW32884   3.941  13.025   6.834
43682SOL    HW132885   4.005  13.074   6.783
43682SOL    HW232886   3.946  13.061   6.922
43683SOL     OW32887   2.659   1.329  10.146
43683SOL    HW132888   2.588   1.389  10.169
43683SOL    HW232889   2.728   1.348  10.209
43684SOL     OW32890  14.332   8.722  14.717
43684SOL    HW132891  14.269   8.657  14.747
43684SOL    HW232892  14.416   8.676  14.717
43685SOL     OW32893   3.732  11.497   8.587
43685SOL    HW132894   3.766  11.583   8.564
43685SOL    HW232895   3.810  11.444   8.605
43686SOL     OW32896   9.915  13.258  12.913
43686SOL    HW132897   9.895  13.326  12.978
43686SOL    HW232898   9.837  13.252  12.859
43687SOL     OW32899   7.426   3.520  14.211
43687SOL    HW132900   7.382   3.455  14.267
43687SOL    HW232901   7.356   3.559  14.160
43688SOL     OW32902   1.772   8.510  14.416
43688SOL    HW132903   1.766   8.505  14.511
43688SOL    HW232904   1.839   8.576  14.400
43689SOL     OW32905  10.170  11.260   8.874
43689SOL    HW132906  10.200  11.314   8.801
43689SOL    HW232907  10.149  11.175   8.833
43690SOL     OW32908   0.550  10.478   4.292
43690SOL    HW132909   0.590  10.556   4.256
43690SOL    HW232910   0.578  10.477   4.384
43691SOL     OW32911   0.982   6.103  12.595
43691SOL    HW132912   1.062   6.093  12.544
43691SOL    HW232913   1.004   6.070  12.682
43692SOL     OW32914   4.773   5.480  12.050
43692SOL    HW132915   4.689   5.456  12.011
43692SOL    HW232916   4.785   5.572  12.028
43693SOL     OW32917   4.903  10.843   7.230
43693SOL    HW132918   4.934  10.806   7.148
43693SOL    HW232919   4.818  10.881   7.209
43694SOL     OW32920   0.489   1.276   7.395
43694SOL    HW132921   0.470   1.201   7.338
43694SOL    HW232922   0.566   1.317   7.355
43695SOL     OW32923   2.507  14.401   3.427
43695SOL    HW132924   2.491  14.407   3.521
43695SOL    HW232925   2.598  14.371   3.419
43696SOL     OW32926   7.026   1.992   2.052
43696SOL    HW132927   7.001   2.076   2.014
43696SOL    HW232928   7.112   1.974   2.015
43697SOL     OW32929  12.583   1.400   7.626
43697SOL    HW132930  12.577   1.362   7.539
43697SOL    HW232931  12.579   1.494   7.612
43698SOL     OW32932  12.039  10.319   6.270
43698SOL    HW132933  12.018  10.409   6.247
43698SOL    HW232934  12.107  10.327   6.336
43699SOL     OW32935   1.260   3.810  12.249
43699SOL    HW132936   1.325   3.830  12.317
43699SOL    HW232937   1.311   3.798  12.169
43700SOL     OW32938   5.157  11.792   9.890
43700SOL    HW132939   5.074  11.805   9.844
43700SOL    HW232940   5.199  11.878   9.888
43701SOL     OW32941   5.447   2.623   1.263
43701SOL    HW132942   5.387   2.578   1.322
43701SOL    HW232943   5.503   2.553   1.228
43702SOL     OW32944   1.557   7.116  12.110
43702SOL    HW132945   1.531   7.197  12.155
43702SOL    HW232946   1.607   7.147  12.034
43703SOL     OW32947   4.697  14.514  12.117
43703SOL    HW132948   4.719  14.607  12.125
43703SOL    HW232949   4.614  14.513  12.070
43704SOL     OW32950   8.265  10.745   0.494
43704SOL    HW132951   8.305  10.672   0.541
43704SOL    HW232952   8.315  10.821   0.523
43705SOL     OW32953  12.338   1.525   9.062
43705SOL    HW132954  12.409   1.544   9.001
43705SOL    HW232955  12.351   1.434   9.087
43706SOL     OW32956   7.394   4.585  12.149
43706SOL    HW132957   7.399   4.509  12.207
43706SOL    HW232958   7.323   4.564  12.088
43707SOL     OW32959   2.322   9.021  10.443
43707SOL    HW132960   2.286   9.109  10.449
43707SOL    HW232961   2.345   8.999  10.533
43708SOL     OW32962  11.272  11.466   2.221
43708SOL    HW132963  11.259  11.372   2.218
43708SOL    HW232964  11.336  11.480   2.291
43709SOL     OW32965   0.986   3.300   3.370
43709SOL    HW132966   1.043   3.288   3.294
43709SOL    HW232967   0.947   3.386   3.358
43710SOL     OW32968  13.558   0.215  13.050
43710SOL    HW132969  13.575   0.232  12.958
43710SOL    HW232970  13.564   0.301  13.092
43711SOL     OW32971   3.356  11.685  12.053
43711SOL    HW132972   3.388  11.600  12.082
43711SOL    HW232973   3.435  11.737  12.039
43712SOL     OW32974   2.137  11.573   5.286
43712SOL    HW132975   2.170  11.490   5.319
43712SOL    HW232976   2.083  11.608   5.357
43713SOL     OW32977  12.839   7.000  12.060
43713SOL    HW132978  12.780   7.022  11.988
43713SOL    HW232979  12.782   6.998  12.137
43714SOL     OW32980   0.578  14.227   9.058
43714SOL    HW132981   0.557  14.143   9.098
43714SOL    HW232982   0.544  14.292   9.119
43715SOL     OW32983  10.123   7.338   9.009
43715SOL    HW132984  10.165   7.410   9.055
43715SOL    HW232985  10.029   7.352   9.022
43716SOL     OW32986   7.653   5.072   5.059
43716SOL    HW132987   7.688   5.149   5.104
43716SOL    HW232988   7.721   5.049   4.995
43717SOL     OW32989   1.971   2.983  11.149
43717SOL    HW132990   2.039   3.006  11.086
43717SOL    HW232991   2.010   2.912  11.201
43718SOL     OW32992  14.653   6.969   5.391
43718SOL    HW132993  14.685   6.895   5.340
43718SOL    HW232994  14.575   6.935   5.436
43719SOL     OW32995   7.293   2.525   9.180
43719SOL    HW132996   7.300   2.470   9.258
43719SOL    HW232997   7.303   2.465   9.107
43720SOL     OW32998  13.371   1.849  14.798
43720SOL    HW132999  13.434   1.780  14.776
43720SOL    HW233000  13.413   1.930  14.766
43721SOL     OW33001  11.444   8.757  11.923
43721SOL    HW133002  11.495   8.818  11.975
43721SOL    HW233003  11.492   8.749  11.841
43722SOL     OW33004   5.899   6.867   3.757
43722SOL    HW133005   5.881   6.784   3.711
43722SOL    HW233006   5.871   6.851   3.847
43723SOL     OW33007   0.911   5.827  10.440
43723SOL    HW133008   0.900   5.735  10.465
43723SOL    HW233009   0.948   5.824  10.352
43724SOL     OW33010   1.699   1.666  10.647
43724SOL    HW133011   1.773   1.606  10.655
43724SOL    HW233012   1.631   1.615  10.604
43725SOL     OW33013   7.675   6.895   8.702
43725SOL    HW133014   7.718   6.956   8.762
43725SOL    HW233015   7.581   6.906   8.720
43726SOL     OW33016   3.971  10.680  11.164
43726SOL    HW133017   4.064  10.660  11.148
43726SOL    HW233018   3.937  10.705  11.078
43727SOL     OW33019   6.409   4.914   5.117
43727SOL    HW133020   6.422   5.005   5.144
43727SOL    HW233021   6.377   4.870   5.196
43728SOL     OW33022  12.686  11.499   0.669
43728SOL    HW133023  12.739  11.453   0.735
43728SOL    HW233024  12.633  11.430   0.629
43729SOL     OW33025   2.559   5.368  13.952
43729SOL    HW133026   2.621   5.311  13.998
43729SOL    HW233027   2.539   5.437  14.015
43730SOL     OW33028  13.004   7.622  11.750
43730SOL    HW133029  12.987   7.697  11.693
43730SOL    HW233030  13.062   7.655  11.817
43731SOL     OW33031   1.600   6.768  11.025
43731SOL    HW133032   1.541   6.812  11.086
43731SOL    HW233033   1.674   6.740  11.079
43732SOL     OW33034   3.146   7.075   6.358
43732SOL    HW133035   3.198   7.100   6.434
43732SOL    HW233036   3.062   7.048   6.394
43733SOL     OW33037  11.617   8.786  10.138
43733SOL    HW133038  11.522   8.784  10.142
43733SOL    HW233039  11.641   8.867  10.183
43734SOL     OW33040  13.257   9.506  14.554
43734SOL    HW133041  13.195   9.433  14.557
43734SOL    HW233042  13.239   9.549  14.470
43735SOL     OW33043   8.753   6.532  11.760
43735SOL    HW133044   8.728   6.621  11.786
43735SOL    HW233045   8.723   6.477  11.832
43736SOL     OW33046  11.529   4.156  13.423
43736SOL    HW133047  11.505   4.077  13.375
43736SOL    HW233048  11.510   4.228  13.362
43737SOL     OW33049  10.016  13.067   6.311
43737SOL    HW133050  10.048  13.049   6.400
43737SOL    HW233051  10.002  13.162   6.310
43738SOL     OW33052   0.152   7.763   1.813
43738SOL    HW133053   0.124   7.776   1.722
43738SOL    HW233054   0.147   7.850   1.852
43739SOL     OW33055   7.871   3.254   6.839
43739SOL    HW133056   7.787   3.295   6.815
43739SOL    HW233057   7.891   3.196   6.766
43740SOL     OW33058   0.333   4.264   5.636
43740SOL    HW133059   0.345   4.179   5.679
43740SOL    HW233060   0.275   4.313   5.695
43741SOL     OW33061  13.789  10.886   7.649
43741SOL    HW133062  13.698  10.916   7.649
43741SOL    HW233063  13.801  10.847   7.735
43742SOL     OW33064   2.398   9.457  12.359
43742SOL    HW133065   2.454   9.534  12.362
43742SOL    HW233066   2.411   9.421  12.271
43743SOL     OW33067   0.933  12.051   1.767
43743SOL    HW133068   0.855  12.013   1.727
43743SOL    HW233069   0.906  12.139   1.793
43744SOL     OW33070  14.168   4.229  12.318
43744SOL    HW133071  14.236   4.229  12.386
43744SOL    HW233072  14.190   4.303  12.262
43745SOL     OW33073   2.023   1.954   4.370
43745SOL    HW133074   1.981   1.949   4.456
43745SOL    HW233075   2.058   2.043   4.367
43746SOL     OW33076   6.984   2.283  11.609
43746SOL    HW133077   6.925   2.231  11.554
43746SOL    HW233078   7.058   2.304  11.552
43747SOL     OW33079   1.537  10.629   5.823
43747SOL    HW133080   1.605  10.638   5.890
43747SOL    HW233081   1.456  10.656   5.867
43748SOL     OW33082   5.237   2.329   4.448
43748SOL    HW133083   5.234   2.401   4.511
43748SOL    HW233084   5.208   2.369   4.366
43749SOL     OW33085  14.223  13.285  11.322
43749SOL    HW133086  14.181  13.311  11.240
43749SOL    HW233087  14.307  13.246  11.294
43750SOL     OW33088   8.370   9.912   2.050
43750SOL    HW133089   8.311   9.843   2.079
43750SOL    HW233090   8.406   9.880   1.967
43751SOL     OW33091   6.200  10.597   4.333
43751SOL    HW133092   6.108  10.573   4.322
43751SOL    HW233093   6.242  10.564   4.253
43752SOL     OW33094   7.113   4.554   1.782
43752SOL    HW133095   7.200   4.585   1.808
43752SOL    HW233096   7.127   4.513   1.697
43753SOL     OW33097   8.185   1.764   3.765
43753SOL    HW133098   8.097   1.729   3.748
43753SOL    HW233099   8.244   1.693   3.739
43754SOL     OW33100  11.992   2.083  10.826
43754SOL    HW133101  12.009   2.098  10.733
43754SOL    HW233102  11.928   2.012  10.828
43755SOL     OW33103  12.841   2.184  10.507
43755SOL    HW133104  12.900   2.242  10.460
43755SOL    HW233105  12.846   2.213  10.598
43756SOL     OW33106   0.454   3.304   4.251
43756SOL    HW133107   0.454   3.231   4.189
43756SOL    HW233108   0.364   3.338   4.248
43757SOL     OW33109   8.458   5.367   0.707
43757SOL    HW133110   8.503   5.283   0.697
43757SOL    HW233111   8.521   5.421   0.756
43758SOL     OW33112   2.514   2.957   7.290
43758SOL    HW133113   2.572   3.000   7.354
43758SOL    HW233114   2.487   2.876   7.333
43759SOL     OW33115   5.799   2.190  13.058
43759SOL    HW133116   5.841   2.105  13.056
43759SOL    HW233117   5.706   2.171  13.071
43760SOL     OW33118   9.695   4.446   5.474
43760SOL    HW133119   9.627   4.408   5.419
43760SOL    HW233120   9.655   4.452   5.561
43761SOL     OW33121   0.858   6.635  12.649
43761SOL    HW133122   0.907   6.553  12.642
43761SOL    HW233123   0.908   6.688  12.711
43762SOL     OW33124   4.800   5.927  13.241
43762SOL    HW133125   4.754   5.975  13.172
43762SOL    HW233126   4.771   5.836  13.230
43763SOL     OW33127   9.596   6.955   9.091
43763SOL    HW133128   9.646   6.877   9.116
43763SOL    HW233129   9.662   7.020   9.070
43764SOL     OW33130   2.979  10.043   5.965
43764SOL    HW133131   3.030  10.085   5.896
43764SOL    HW233132   2.955  10.115   6.024
43765SOL     OW33133   3.188   9.485   3.459
43765SOL    HW133134   3.242   9.539   3.401
43765SOL    HW233135   3.100   9.492   3.422
43766SOL     OW33136   7.172   6.177  11.529
43766SOL    HW133137   7.179   6.091  11.571
43766SOL    HW233138   7.104   6.166  11.462
43767SOL     OW33139   6.130  11.029   5.296
43767SOL    HW133140   6.212  11.048   5.250
43767SOL    HW233141   6.156  10.972   5.368
43768SOL     OW33142  12.065  13.771   1.069
43768SOL    HW133143  12.103  13.859   1.063
43768SOL    HW233144  12.131  13.713   1.033
43769SOL     OW33145   0.908  14.471  11.678
43769SOL    HW133146   0.976  14.405  11.666
43769SOL    HW233147   0.899  14.512  11.592
43770SOL     OW33148   7.658   1.569   7.126
43770SOL    HW133149   7.667   1.493   7.183
43770SOL    HW233150   7.572   1.557   7.084
43771SOL     OW33151   3.115   6.586   2.759
43771SOL    HW133152   3.066   6.666   2.778
43771SOL    HW233153   3.051   6.515   2.770
43772SOL     OW33154   3.550   0.680  11.126
43772SOL    HW133155   3.549   0.677  11.031
43772SOL    HW233156   3.486   0.613  11.153
43773SOL     OW33157  13.981   8.790   5.289
43773SOL    HW133158  14.025   8.843   5.356
43773SOL    HW233159  13.888   8.795   5.312
43774SOL     OW33160   2.799   4.006   3.391
43774SOL    HW133161   2.755   3.926   3.362
43774SOL    HW233162   2.732   4.074   3.383
43775SOL     OW33163   1.963   7.824  11.362
43775SOL    HW133164   2.023   7.874  11.307
43775SOL    HW233165   1.880   7.823  11.315
43776SOL     OW33166  12.404  10.641   7.203
43776SOL    HW133167  12.475  10.696   7.170
43776SOL    HW233168  12.446  10.556   7.219
43777SOL     OW33169  14.671   8.210   1.110
43777SOL    HW133170  14.584   8.221   1.072
43777SOL    HW233171  14.725   8.174   1.039
43778SOL     OW33172   6.832   4.077   0.555
43778SOL    HW133173   6.870   3.993   0.529
43778SOL    HW233174   6.846   4.081   0.650
43779SOL     OW33175   8.531  12.346  10.309
43779SOL    HW133176   8.500  12.323  10.397
43779SOL    HW233177   8.496  12.433  10.293
43780SOL     OW33178   4.576   2.653   6.883
43780SOL    HW133179   4.481   2.650   6.885
43780SOL    HW233180   4.597   2.722   6.821
43781SOL     OW33181  11.443   7.469  13.360
43781SOL    HW133182  11.398   7.548  13.390
43781SOL    HW233183  11.494   7.498  13.284
43782SOL     OW33184   6.026  14.728   8.154
43782SOL    HW133185   6.105  14.777   8.132
43782SOL    HW233186   5.989  14.773   8.230
43783SOL     OW33187   8.594   0.720  11.595
43783SOL    HW133188   8.545   0.781  11.651
43783SOL    HW233189   8.582   0.754  11.507
43784SOL     OW33190  13.750   7.070   2.490
43784SOL    HW133191  13.660   7.035   2.489
43784SOL    HW233192  13.805   6.994   2.506
43785SOL     OW33193   9.676  14.726  12.705
43785SOL    HW133194   9.734  14.750  12.777
43785SOL    HW233195   9.598  14.691  12.748
43786SOL     OW33196  10.409   1.387  12.665
43786SOL    HW133197  10.446   1.397  12.752
43786SOL    HW233198  10.422   1.294  12.643
43787SOL     OW33199   3.132   5.423   1.905
43787SOL    HW133200   3.098   5.513   1.900
43787SOL    HW233201   3.170   5.407   1.819
43788SOL     OW33202  12.934   1.820   4.157
43788SOL    HW133203  12.930   1.893   4.218
43788SOL    HW233204  13.012   1.837   4.104
43789SOL     OW33205   5.307  12.764  12.860
43789SOL    HW133206   5.341  12.799  12.942
43789SOL    HW233207   5.378  12.776  12.797
43790SOL     OW33208  13.988   1.088   5.102
43790SOL    HW133209  14.062   1.042   5.142
43790SOL    HW233210  14.024   1.126   5.022
43791SOL     OW33211   8.577  13.085   8.897
43791SOL    HW133212   8.559  13.106   8.989
43791SOL    HW233213   8.620  13.163   8.863
43792SOL     OW33214  10.095   2.688   2.701
43792SOL    HW133215  10.158   2.738   2.754
43792SOL    HW233216  10.034   2.652   2.765
43793SOL     OW33217   7.070  12.338  13.165
43793SOL    HW133218   7.042  12.373  13.249
43793SOL    HW233219   6.993  12.348  13.108
43794SOL     OW33220   7.369  14.391  11.349
43794SOL    HW133221   7.454  14.407  11.309
43794SOL    HW233222   7.382  14.311  11.400
43795SOL     OW33223  10.480   8.764   8.308
43795SOL    HW133224  10.492   8.717   8.390
43795SOL    HW233225  10.387   8.757   8.290
43796SOL     OW33226   6.693   1.110   8.267
43796SOL    HW133227   6.619   1.069   8.222
43796SOL    HW233228   6.731   1.170   8.202
43797SOL     OW33229  11.194   5.203  12.066
43797SOL    HW133230  11.140   5.157  12.001
43797SOL    HW233231  11.245   5.266  12.015
43798SOL     OW33232  10.387   7.891   5.717
43798SOL    HW133233  10.293   7.879   5.702
43798SOL    HW233234  10.421   7.924   5.634
43799SOL     OW33235   2.482   9.072  11.840
43799SOL    HW133236   2.560   9.120  11.814
43799SOL    HW233237   2.479   8.997  11.780
43800SOL     OW33238   6.003   3.746  13.866
43800SOL    HW133239   6.091   3.746  13.828
43800SOL    HW233240   5.964   3.664  13.836
43801SOL     OW33241   5.370   6.712   3.716
43801SOL    HW133242   5.310   6.654   3.763
43801SOL    HW233243   5.412   6.656   3.651
43802SOL     OW33244   9.738  13.304   2.645
43802SOL    HW133245   9.834  13.302   2.639
43802SOL    HW233246   9.710  13.351   2.566
43803SOL     OW33247   1.847   7.577  12.598
43803SOL    HW133248   1.873   7.486  12.590
43803SOL    HW233249   1.927   7.624  12.621
43804SOL     OW33250   0.296   8.983  10.783
43804SOL    HW133251   0.241   9.041  10.730
43804SOL    HW233252   0.234   8.929  10.832
43805SOL     OW33253  12.717   7.131   3.691
43805SOL    HW133254  12.627   7.152   3.716
43805SOL    HW233255  12.770   7.196   3.739
43806SOL     OW33256  12.473   3.957  14.456
43806SOL    HW133257  12.412   3.967  14.528
43806SOL    HW233258  12.437   3.886  14.403
43807SOL     OW33259   8.443   6.588  10.604
43807SOL    HW133260   8.398   6.645  10.665
43807SOL    HW233261   8.399   6.603  10.520
43808SOL     OW33262   5.586  11.265  12.060
43808SOL    HW133263   5.602  11.253  12.154
43808SOL    HW233264   5.573  11.176  12.027
43809SOL     OW33265   2.731  14.127   6.801
43809SOL    HW133266   2.685  14.043   6.800
43809SOL    HW233267   2.725  14.159   6.711
43810SOL     OW33268   2.596   6.782   1.162
43810SOL    HW133269   2.522   6.758   1.105
43810SOL    HW233270   2.645   6.700   1.173
43811SOL     OW33271   7.539  11.457   0.791
43811SOL    HW133272   7.514  11.482   0.702
43811SOL    HW233273   7.458  11.424   0.830
43812SOL     OW33274  11.191   4.202  14.415
43812SOL    HW133275  11.105   4.172  14.444
43812SOL    HW233276  11.172   4.271  14.351
43813SOL     OW33277   1.857  11.731   8.804
43813SOL    HW133278   1.792  11.734   8.734
43813SOL    HW233279   1.877  11.823   8.822
43814SOL     OW33280   9.290   4.605  14.504
43814SOL    HW133281   9.272   4.650  14.587
43814SOL    HW233282   9.208   4.562  14.481
43815SOL     OW33283  13.826  10.386   2.321
43815SOL    HW133284  13.820  10.347   2.408
43815SOL    HW233285  13.742  10.364   2.280
43816SOL     OW33286  14.776  13.031   3.919
43816SOL    HW133287  14.822  12.997   3.842
43816SOL    HW233288  14.747  13.119   3.892
43817SOL     OW33289   5.021   0.156   6.991
43817SOL    HW133290   4.994   0.065   7.005
43817SOL    HW233291   5.089   0.171   7.056
43818SOL     OW33292   9.673   6.067  10.468
43818SOL    HW133293   9.626   6.034  10.391
43818SOL    HW233294   9.661   5.999  10.534
43819SOL     OW33295  14.508   8.690  14.255
43819SOL    HW133296  14.571   8.674  14.185
43819SOL    HW233297  14.562   8.695  14.334
43820SOL     OW33298  13.537  13.261   7.312
43820SOL    HW133299  13.486  13.323   7.364
43820SOL    HW233300  13.561  13.192   7.373
43821SOL     OW33301  11.321   3.349   9.330
43821SOL    HW133302  11.398   3.401   9.353
43821SOL    HW233303  11.287   3.318   9.414
43822SOL     OW33304  11.200   3.447  10.393
43822SOL    HW133305  11.235   3.358  10.385
43822SOL    HW233306  11.105   3.435  10.402
43823SOL     OW33307  10.107  11.316  11.909
43823SOL    HW133308  10.056  11.258  11.966
43823SOL    HW233309  10.173  11.354  11.967
43824SOL     OW33310   8.065  13.848   8.517
43824SOL    HW133311   8.127  13.819   8.584
43824SOL    HW233312   8.114  13.843   8.435
43825SOL     OW33313  12.383  13.078   3.009
43825SOL    HW133314  12.457  13.069   3.070
43825SOL    HW233315  12.355  12.988   2.993
43826SOL     OW33316   7.558  14.046  14.717
43826SOL    HW133317   7.617  13.977  14.689
43826SOL    HW233318   7.598  14.081  14.797
43827SOL     OW33319   2.376  10.282  11.922
43827SOL    HW133320   2.383  10.367  11.966
43827SOL    HW233321   2.283  10.275  11.900
43828SOL     OW33322  10.740   1.810  10.297
43828SOL    HW133323  10.771   1.898  10.318
43828SOL    HW233324  10.722   1.770  10.382
43829SOL     OW33325  14.028   8.733   7.396
43829SOL    HW133326  14.102   8.786   7.425
43829SOL    HW233327  13.951   8.775   7.434
43830SOL     OW33328   1.570   1.849   0.460
43830SOL    HW133329   1.636   1.868   0.526
43830SOL    HW233330   1.541   1.935   0.429
43831SOL     OW33331   2.967   7.634   4.288
43831SOL    HW133332   2.966   7.722   4.325
43831SOL    HW233333   3.015   7.582   4.353
43832SOL     OW33334  11.007   1.065   7.993
43832SOL    HW133335  11.096   1.031   7.988
43832SOL    HW233336  11.017   1.157   8.018
43833SOL     OW33337   3.971  11.726  12.566
43833SOL    HW133338   4.011  11.662  12.508
43833SOL    HW233339   4.012  11.809  12.542
43834SOL     OW33340   0.662   9.576  12.435
43834SOL    HW133341   0.639   9.585  12.342
43834SOL    HW233342   0.697   9.487  12.442
43835SOL     OW33343   7.723   6.118   3.650
43835SOL    HW133344   7.631   6.134   3.629
43835SOL    HW233345   7.723   6.092   3.742
43836SOL     OW33346  12.724  12.284   5.945
43836SOL    HW133347  12.700  12.377   5.942
43836SOL    HW233348  12.684  12.252   6.026
43837SOL     OW33349   1.661  10.440   1.820
43837SOL    HW133350   1.620  10.426   1.735
43837SOL    HW233351   1.670  10.352   1.858
43838SOL     OW33352   6.764   0.665  10.629
43838SOL    HW133353   6.816   0.596  10.670
43838SOL    HW233354   6.704   0.694  10.697
43839SOL     OW33355   8.911  11.330   3.088
43839SOL    HW133356   8.853  11.336   3.164
43839SOL    HW233357   8.920  11.236   3.073
43840SOL     OW33358   4.208   5.450  14.200
43840SOL    HW133359   4.210   5.467  14.294
43840SOL    HW233360   4.281   5.390  14.185
43841SOL     OW33361   9.152   6.468  10.681
43841SOL    HW133362   9.162   6.373  10.696
43841SOL    HW233363   9.071   6.475  10.630
43842SOL     OW33364   2.794   8.250   1.193
43842SOL    HW133365   2.880   8.286   1.171
43842SOL    HW233366   2.770   8.296   1.273
43843SOL     OW33367   2.526   5.301  10.039
43843SOL    HW133368   2.508   5.260   9.954
43843SOL    HW233369   2.622   5.300  10.047
43844SOL     OW33370  10.033   7.267  14.057
43844SOL    HW133371  10.094   7.275  14.131
43844SOL    HW233372  10.012   7.174  14.053
43845SOL     OW33373  13.502  11.567   9.841
43845SOL    HW133374  13.494  11.644   9.897
43845SOL    HW233375  13.567  11.591   9.775
43846SOL     OW33376   6.511   6.802  13.734
43846SOL    HW133377   6.479   6.729  13.682
43846SOL    HW233378   6.441   6.867  13.731
43847SOL     OW33379  12.143   4.781  11.869
43847SOL    HW133380  12.070   4.821  11.822
43847SOL    HW233381  12.202   4.854  11.889
43848SOL     OW33382  13.994  10.940   3.426
43848SOL    HW133383  13.918  10.913   3.478
43848SOL    HW233384  13.965  11.020   3.382
43849SOL     OW33385  10.331   3.911   9.404
43849SOL    HW133386  10.292   3.962   9.333
43849SOL    HW233387  10.267   3.918   9.475
43850SOL     OW33388  12.823  13.343  12.981
43850SOL    HW133389  12.855  13.253  12.972
43850SOL    HW233390  12.778  13.361  12.898
43851SOL     OW33391  12.505  10.172  10.022
43851SOL    HW133392  12.444  10.099  10.025
43851SOL    HW233393  12.554  10.166  10.104
43852SOL     OW33394  14.648   6.710   7.669
43852SOL    HW133395  14.565   6.662   7.676
43852SOL    HW233396  14.713   6.642   7.649
43853SOL     OW33397   6.009   9.405   3.147
43853SOL    HW133398   6.033   9.404   3.239
43853SOL    HW233399   6.048   9.325   3.111
43854SOL     OW33400   6.430   6.061   2.097
43854SOL    HW133401   6.496   6.042   2.164
43854SOL    HW233402   6.470   6.128   2.042
43855SOL     OW33403   5.243   0.827  12.602
43855SOL    HW133404   5.234   0.881  12.681
43855SOL    HW233405   5.301   0.878  12.545
43856SOL     OW33406   9.119  12.378   2.065
43856SOL    HW133407   9.104  12.327   1.985
43856SOL    HW233408   9.211  12.365   2.084
43857SOL     OW33409   0.795   0.568  11.333
43857SOL    HW133410   0.737   0.544  11.405
43857SOL    HW233411   0.882   0.570  11.373
43858SOL     OW33412   9.130   7.227   0.405
43858SOL    HW133413   9.104   7.217   0.313
43858SOL    HW233414   9.195   7.157   0.418
43859SOL     OW33415   7.921   1.085  14.329
43859SOL    HW133416   7.855   1.151  14.349
43859SOL    HW233417   7.952   1.107  14.241
43860SOL     OW33418   1.556   0.932   9.552
43860SOL    HW133419   1.596   0.864   9.605
43860SOL    HW233420   1.505   0.885   9.486
43861SOL     OW33421  12.064   6.601  13.219
43861SOL    HW133422  12.140   6.657  13.236
43861SOL    HW233423  12.062   6.591  13.124
43862SOL     OW33424   0.667   8.279  13.550
43862SOL    HW133425   0.620   8.253  13.630
43862SOL    HW233426   0.630   8.365  13.529
43863SOL     OW33427   3.947   4.934   3.278
43863SOL    HW133428   3.964   4.891   3.194
43863SOL    HW233429   4.033   4.958   3.311
43864SOL     OW33430   4.816   2.330   8.401
43864SOL    HW133431   4.842   2.362   8.487
43864SOL    HW233432   4.720   2.332   8.401
43865SOL     OW33433   7.704   9.996   1.051
43865SOL    HW133434   7.689  10.069   0.992
43865SOL    HW233435   7.662  10.021   1.133
43866SOL     OW33436   8.930   6.194  11.491
43866SOL    HW133437   8.891   6.127  11.547
43866SOL    HW233438   8.934   6.153  11.404
43867SOL     OW33439   2.642  10.121   4.326
43867SOL    HW133440   2.677  10.103   4.414
43867SOL    HW233441   2.711  10.090   4.267
43868SOL     OW33442  11.303  10.247   1.728
43868SOL    HW133443  11.257  10.261   1.811
43868SOL    HW233444  11.362  10.174   1.745
43869SOL     OW33445   6.602   7.793   4.712
43869SOL    HW133446   6.563   7.729   4.652
43869SOL    HW233447   6.652   7.740   4.774
43870SOL     OW33448   2.196  12.251   7.583
43870SOL    HW133449   2.199  12.170   7.633
43870SOL    HW233450   2.134  12.234   7.512
43871SOL     OW33451  11.152   4.505   5.651
43871SOL    HW133452  11.059   4.499   5.627
43871SOL    HW233453  11.175   4.596   5.636
43872SOL     OW33454   8.992  14.846  11.171
43872SOL    HW133455   9.027  14.768  11.213
43872SOL    HW233456   8.899  14.846  11.196
43873SOL     OW33457   3.168   2.953   6.577
43873SOL    HW133458   3.178   3.001   6.495
43873SOL    HW233459   3.152   3.020   6.643
43874SOL     OW33460  14.052   4.277   3.574
43874SOL    HW133461  14.062   4.320   3.659
43874SOL    HW233462  13.970   4.312   3.540
43875SOL     OW33463   6.372   4.793   5.369
43875SOL    HW133464   6.346   4.795   5.461
43875SOL    HW233465   6.462   4.763   5.370
43876SOL     OW33466   3.888   8.953  12.394
43876SOL    HW133467   3.872   8.911  12.309
43876SOL    HW233468   3.801   8.980  12.424
43877SOL     OW33469   6.783   0.365   5.894
43877SOL    HW133470   6.723   0.309   5.943
43877SOL    HW233471   6.792   0.322   5.809
43878SOL     OW33472   6.128  11.983  14.033
43878SOL    HW133473   6.098  11.905  13.984
43878SOL    HW233474   6.212  12.005  13.993
43879SOL     OW33475   1.788   0.426  13.710
43879SOL    HW133476   1.857   0.424  13.643
43879SOL    HW233477   1.709   0.450  13.663
43880SOL     OW33478  14.781   2.530  10.544
43880SOL    HW133479  14.845   2.523  10.615
43880SOL    HW233480  14.792   2.619  10.511
43881SOL     OW33481  14.714   8.716   2.003
43881SOL    HW133482  14.669   8.632   1.997
43881SOL    HW233483  14.724   8.744   1.912
43882SOL     OW33484  14.704   8.241  10.736
43882SOL    HW133485  14.635   8.296  10.700
43882SOL    HW233486  14.773   8.240  10.670
43883SOL     OW33487   5.186   4.502   2.944
43883SOL    HW133488   5.105   4.507   2.892
43883SOL    HW233489   5.221   4.415   2.926
43884SOL     OW33490   1.809   8.866   4.135
43884SOL    HW133491   1.743   8.806   4.169
43884SOL    HW233492   1.868   8.881   4.210
43885SOL     OW33493  13.443   8.566   3.537
43885SOL    HW133494  13.467   8.515   3.614
43885SOL    HW233495  13.527   8.598   3.503
43886SOL     OW33496   9.811   8.014  12.720
43886SOL    HW133497   9.747   8.080  12.692
43886SOL    HW233498   9.886   8.064  12.751
43887SOL     OW33499  14.049  13.204   5.551
43887SOL    HW133500  14.014  13.278   5.600
43887SOL    HW233501  14.064  13.239   5.463
43888SOL     OW33502  12.501   9.185   9.094
43888SOL    HW133503  12.411   9.195   9.061
43888SOL    HW233504  12.494   9.203   9.188
43889SOL     OW33505   1.956   2.261   8.685
43889SOL    HW133506   2.001   2.215   8.615
43889SOL    HW233507   1.889   2.198   8.715
43890SOL     OW33508   0.628   4.209   2.336
43890SOL    HW133509   0.638   4.134   2.277
43890SOL    HW233510   0.560   4.262   2.296
43891SOL     OW33511  10.777   1.828   0.270
43891SOL    HW133512  10.763   1.919   0.296
43891SOL    HW233513  10.855   1.831   0.215
43892SOL     OW33514   7.495  11.815  14.300
43892SOL    HW133515   7.572  11.864  14.271
43892SOL    HW233516   7.422  11.853  14.250
43893SOL     OW33517   3.558  12.355  11.484
43893SOL    HW133518   3.517  12.371  11.569
43893SOL    HW233519   3.634  12.412  11.483
43894SOL     OW33520   3.701   1.210   4.660
43894SOL    HW133521   3.755   1.212   4.581
43894SOL    HW233522   3.652   1.293   4.657
43895SOL     OW33523   4.901   5.218   5.047
43895SOL    HW133524   4.899   5.281   5.119
43895SOL    HW233525   4.872   5.267   4.970
43896SOL     OW33526  11.558  11.884  11.136
43896SOL    HW133527  11.482  11.831  11.112
43896SOL    HW233528  11.521  11.962  11.176
43897SOL     OW33529   0.407  10.144  10.632
43897SOL    HW133530   0.402  10.104  10.545
43897SOL    HW233531   0.315  10.153  10.660
43898SOL     OW33532   3.218  11.862   8.002
43898SOL    HW133533   3.276  11.917   7.949
43898SOL    HW233534   3.183  11.797   7.941
43899SOL     OW33535   0.020   5.624   2.592
43899SOL    HW133536  14.823   5.679   2.588
43899SOL    HW233537   0.023   5.580   2.507
43900SOL     OW33538   5.244  10.415  14.527
43900SOL    HW133539   5.164  10.461  14.552
43900SOL    HW233540   5.294  10.408  14.608
43901SOL     OW33541  10.805   1.555  11.524
43901SOL    HW133542  10.723   1.563  11.573
43901SOL    HW233543  10.871   1.593  11.582
43902SOL     OW33544  11.232   5.800   9.880
43902SOL    HW133545  11.214   5.771   9.791
43902SOL    HW233546  11.210   5.724   9.934
43903SOL     OW33547   1.716   7.936   6.470
43903SOL    HW133548   1.732   7.844   6.492
43903SOL    HW233549   1.641   7.961   6.523
43904SOL     OW33550  11.202   2.189   7.139
43904SOL    HW133551  11.268   2.122   7.159
43904SOL    HW233552  11.132   2.174   7.203
43905SOL     OW33553   6.970   5.522   0.358
43905SOL    HW133554   7.023   5.569   0.293
43905SOL    HW233555   6.908   5.470   0.306
43906SOL     OW33556  13.864   8.315  13.409
43906SOL    HW133557  13.799   8.261  13.453
43906SOL    HW233558  13.860   8.289  13.317
43907SOL     OW33559   3.001   6.703  10.244
43907SOL    HW133560   2.955   6.633  10.291
43907SOL    HW233561   3.013   6.771  10.311
43908SOL     OW33562  14.348   1.038   7.192
43908SOL    HW133563  14.309   1.055   7.107
43908SOL    HW233564  14.284   1.070   7.255
43909SOL     OW33565   7.804   7.260   9.784
43909SOL    HW133566   7.805   7.167   9.763
43909SOL    HW233567   7.897   7.283   9.794
43910SOL     OW33568  13.956   9.978   4.156
43910SOL    HW133569  13.930   9.892   4.124
43910SOL    HW233570  13.996  10.021   4.081
43911SOL     OW33571  10.559  11.434   6.025
43911SOL    HW133572  10.567  11.529   6.021
43911SOL    HW233573  10.634  11.406   6.079
43912SOL     OW33574   1.960  14.024  11.910
43912SOL    HW133575   1.897  14.048  11.842
43912SOL    HW233576   1.933  14.075  11.987
43913SOL     OW33577   3.303   1.293   9.136
43913SOL    HW133578   3.336   1.326   9.052
43913SOL    HW233579   3.378   1.250   9.176
43914SOL     OW33580   7.906   1.045   5.742
43914SOL    HW133581   7.957   1.118   5.707
43914SOL    HW233582   7.922   1.047   5.836
43915SOL     OW33583   6.193   9.652   7.180
43915SOL    HW133584   6.188   9.693   7.094
43915SOL    HW233585   6.106   9.661   7.217
43916SOL     OW33586   0.970   6.423   7.508
43916SOL    HW133587   0.982   6.484   7.435
43916SOL    HW233588   0.955   6.338   7.467
43917SOL     OW33589   9.497   8.473   2.550
43917SOL    HW133590   9.412   8.434   2.572
43917SOL    HW233591   9.490   8.495   2.457
43918SOL     OW33592   7.584   0.187   7.509
43918SOL    HW133593   7.675   0.201   7.486
43918SOL    HW233594   7.534   0.230   7.440
43919SOL     OW33595   0.411  14.448   1.689
43919SOL    HW133596   0.409  14.464   1.783
43919SOL    HW233597   0.499  14.412   1.673
43920SOL     OW33598   5.895  13.632   7.399
43920SOL    HW133599   5.910  13.538   7.396
43920SOL    HW233600   5.975  13.668   7.438
43921SOL     OW33601  10.748   6.670  13.594
43921SOL    HW133602  10.806   6.627  13.531
43921SOL    HW233603  10.780   6.760  13.599
43922SOL     OW33604   6.729   0.062  11.955
43922SOL    HW133605   6.635   0.075  11.952
43922SOL    HW233606   6.740  14.849  11.954
43923SOL     OW33607  10.403   3.200  10.528
43923SOL    HW133608  10.358   3.260  10.588
43923SOL    HW233609  10.410   3.118  10.577
43924SOL     OW33610   7.274  12.611   7.549
43924SOL    HW133611   7.248  12.527   7.588
43924SOL    HW233612   7.286  12.591   7.456
43925SOL     OW33613   5.899   9.614  12.087
43925SOL    HW133614   5.944   9.676  12.145
43925SOL    HW233615   5.865   9.547  12.146
43926SOL     OW33616  11.358  10.179   3.251
43926SOL    HW133617  11.368  10.106   3.190
43926SOL    HW233618  11.279  10.225   3.222
43927SOL     OW33619   6.510   5.823  13.108
43927SOL    HW133620   6.536   5.908  13.144
43927SOL    HW233621   6.577   5.803  13.043
43928SOL     OW33622   7.953   4.010   3.333
43928SOL    HW133623   7.866   3.972   3.342
43928SOL    HW233624   8.002   3.979   3.409
43929SOL     OW33625  12.225   9.157   0.324
43929SOL    HW133626  12.183   9.133   0.241
43929SOL    HW233627  12.176   9.109   0.390
43930SOL     OW33628  12.428  13.448  12.006
43930SOL    HW133629  12.511  13.430  11.963
43930SOL    HW233630  12.427  13.543  12.017
43931SOL     OW33631   0.913   6.610   4.306
43931SOL    HW133632   0.944   6.534   4.257
43931SOL    HW233633   0.935   6.590   4.397
43932SOL     OW33634   8.868   8.206   8.651
43932SOL    HW133635   8.809   8.266   8.696
43932SOL    HW233636   8.818   8.174   8.576
43933SOL     OW33637   7.224   6.947   8.224
43933SOL    HW133638   7.255   7.029   8.188
43933SOL    HW233639   7.184   6.902   8.149
43934SOL     OW33640   3.838   4.281   8.988
43934SOL    HW133641   3.750   4.316   8.975
43934SOL    HW233642   3.859   4.238   8.905
43935SOL     OW33643   6.130   6.832   4.487
43935SOL    HW133644   6.166   6.892   4.552
43935SOL    HW233645   6.118   6.750   4.534
43936SOL     OW33646  11.480   1.567  11.456
43936SOL    HW133647  11.562   1.540  11.496
43936SOL    HW233648  11.428   1.487  11.448
43937SOL     OW33649  11.261  10.068  12.542
43937SOL    HW133650  11.251  10.154  12.584
43937SOL    HW233651  11.285  10.088  12.452
43938SOL     OW33652   5.291   6.186  13.561
43938SOL    HW133653   5.277   6.093  13.546
43938SOL    HW233654   5.207   6.227  13.537
43939SOL     OW33655   8.781   5.590   8.434
43939SOL    HW133656   8.733   5.651   8.378
43939SOL    HW233657   8.871   5.620   8.431
43940SOL     OW33658  14.718   0.503   5.264
43940SOL    HW133659  14.770   0.425   5.284
43940SOL    HW233660  14.782   0.571   5.244
43941SOL     OW33661   5.352   2.814   1.773
43941SOL    HW133662   5.281   2.778   1.720
43941SOL    HW233663   5.396   2.877   1.715
43942SOL     OW33664  13.378   2.765   1.285
43942SOL    HW133665  13.438   2.838   1.268
43942SOL    HW233666  13.373   2.717   1.202
43943SOL     OW33667   9.506  11.558   5.828
43943SOL    HW133668   9.479  11.477   5.784
43943SOL    HW233669   9.527  11.531   5.918
43944SOL     OW33670   4.758  13.091  12.555
43944SOL    HW133671   4.798  13.046  12.480
43944SOL    HW233672   4.669  13.054  12.561
43945SOL     OW33673   2.040   5.298  10.983
43945SOL    HW133674   2.113   5.243  11.011
43945SOL    HW233675   2.060   5.385  11.016
43946SOL     OW33676   1.879   3.530  12.380
43946SOL    HW133677   1.838   3.534  12.293
43946SOL    HW233678   1.829   3.593  12.432
43947SOL     OW33679   5.816  14.163  12.321
43947SOL    HW133680   5.725  14.190  12.325
43947SOL    HW233681   5.856  14.199  12.401
43948SOL     OW33682   8.103  14.347   0.126
43948SOL    HW133683   8.120  14.261   0.164
43948SOL    HW233684   8.115  14.408   0.199
43949SOL     OW33685  14.346   6.471   5.752
43949SOL    HW133686  14.392   6.393   5.783
43949SOL    HW233687  14.255   6.442   5.744
43950SOL     OW33688   7.289  10.479   7.396
43950SOL    HW133689   7.259  10.438   7.477
43950SOL    HW233690   7.271  10.413   7.328
43951SOL     OW33691   1.460  14.538  13.197
43951SOL    HW133692   1.420  14.618  13.163
43951SOL    HW233693   1.508  14.567  13.275
43952SOL     OW33694   3.327   4.164  10.631
43952SOL    HW133695   3.356   4.088  10.581
43952SOL    HW233696   3.385   4.235  10.603
43953SOL     OW33697   1.259   8.214  14.016
43953SOL    HW133698   1.310   8.256  14.085
43953SOL    HW233699   1.264   8.275  13.942
43954SOL     OW33700   1.793   4.494   7.032
43954SOL    HW133701   1.884   4.482   7.005
43954SOL    HW233702   1.743   4.438   6.972
43955SOL     OW33703   1.124   3.722   0.836
43955SOL    HW133704   1.166   3.808   0.830
43955SOL    HW233705   1.191   3.661   0.804
43956SOL     OW33706  14.136   8.437  10.431
43956SOL    HW133707  14.060   8.478  10.389
43956SOL    HW233708  14.113   8.434  10.524
43957SOL     OW33709   1.742  13.543   1.171
43957SOL    HW133710   1.659  13.588   1.153
43957SOL    HW233711   1.808  13.594   1.124
43958SOL     OW33712   1.388  10.993   4.198
43958SOL    HW133713   1.454  10.970   4.132
43958SOL    HW233714   1.439  11.023   4.273
43959SOL     OW33715   8.684   9.870  10.291
43959SOL    HW133716   8.691   9.816  10.213
43959SOL    HW233717   8.595   9.855  10.323
43960SOL     OW33718  12.364  11.952  12.428
43960SOL    HW133719  12.321  12.013  12.369
43960SOL    HW233720  12.419  11.898  12.372
43961SOL     OW33721   5.301   4.632   9.440
43961SOL    HW133722   5.206   4.631   9.432
43961SOL    HW233723   5.332   4.595   9.357
43962SOL     OW33724  13.969   3.892  13.522
43962SOL    HW133725  14.058   3.911  13.552
43962SOL    HW233726  13.912   3.925  13.591
43963SOL     OW33727   8.215   9.351   8.564
43963SOL    HW133728   8.120   9.342   8.574
43963SOL    HW233729   8.232   9.320   8.475
43964SOL     OW33730   5.136   1.711  11.685
43964SOL    HW133731   5.113   1.735  11.775
43964SOL    HW233732   5.166   1.792  11.645
43965SOL     OW33733   4.025   6.773   3.934
43965SOL    HW133734   3.950   6.745   3.987
43965SOL    HW233735   4.080   6.823   3.994
43966SOL     OW33736   1.980   3.048   4.184
43966SOL    HW133737   1.915   3.116   4.200
43966SOL    HW233738   1.978   2.993   4.262
43967SOL     OW33739  10.564  11.963  11.094
43967SOL    HW133740  10.622  11.955  11.170
43967SOL    HW233741  10.517  12.045  11.109
43968SOL     OW33742   4.850   0.263   1.138
43968SOL    HW133743   4.921   0.201   1.122
43968SOL    HW233744   4.803   0.226   1.212
43969SOL     OW33745   8.307   3.412   9.807
43969SOL    HW133746   8.273   3.467   9.737
43969SOL    HW233747   8.230   3.379   9.853
43970SOL     OW33748   2.553  10.701  13.108
43970SOL    HW133749   2.605  10.621  13.099
43970SOL    HW233750   2.524  10.721  13.019
43971SOL     OW33751   8.840  13.898   2.885
43971SOL    HW133752   8.910  13.913   2.822
43971SOL    HW233753   8.831  13.803   2.890
43972SOL     OW33754  13.533  12.531   7.194
43972SOL    HW133755  13.455  12.549   7.142
43972SOL    HW233756  13.554  12.440   7.176
43973SOL     OW33757  10.286   4.587   2.706
43973SOL    HW133758  10.247   4.659   2.657
43973SOL    HW233759  10.215   4.523   2.714
43974SOL     OW33760  13.509   7.324   2.732
43974SOL    HW133761  13.578   7.261   2.753
43974SOL    HW233762  13.490   7.308   2.639
43975SOL     OW33763   9.983   2.496  14.166
43975SOL    HW133764   9.978   2.565  14.100
43975SOL    HW233765   9.954   2.417  14.121
43976SOL     OW33766  11.325   0.426   5.958
43976SOL    HW133767  11.284   0.382   6.032
43976SOL    HW233768  11.336   0.358   5.892
43977SOL     OW33769   3.267   8.752  13.980
43977SOL    HW133770   3.197   8.729  13.919
43977SOL    HW233771   3.320   8.817  13.933
43978SOL     OW33772   0.124   6.639   6.012
43978SOL    HW133773   0.169   6.721   5.990
43978SOL    HW233774   0.186   6.592   6.068
43979SOL     OW33775  13.253   5.985   9.437
43979SOL    HW133776  13.227   5.966   9.527
43979SOL    HW233777  13.225   5.909   9.387
43980SOL     OW33778   8.401   7.446   8.485
43980SOL    HW133779   8.415   7.376   8.421
43980SOL    HW233780   8.313   7.431   8.518
43981SOL     OW33781   8.992  12.952   6.348
43981SOL    HW133782   9.069  12.964   6.404
43981SOL    HW233783   9.025  12.904   6.272
43982SOL     OW33784   9.848   8.456   3.556
43982SOL    HW133785   9.765   8.415   3.529
43982SOL    HW233786   9.861   8.526   3.492
43983SOL     OW33787  13.040  12.125  13.352
43983SOL    HW133788  13.064  12.182  13.425
43983SOL    HW233789  13.107  12.143  13.285
43984SOL     OW33790   2.280   9.721  14.186
43984SOL    HW133791   2.266   9.816  14.189
43984SOL    HW233792   2.350   9.709  14.122
43985SOL     OW33793  13.048  11.000   6.678
43985SOL    HW133794  13.122  11.039   6.724
43985SOL    HW233795  12.972  11.050   6.709
43986SOL     OW33796   8.366   1.768   6.155
43986SOL    HW133797   8.458   1.747   6.170
43986SOL    HW233798   8.353   1.753   6.061
43987SOL     OW33799  14.198   3.124   9.547
43987SOL    HW133800  14.119   3.149   9.595
43987SOL    HW233801  14.178   3.038   9.510
43988SOL     OW33802   2.147   2.070   1.060
43988SOL    HW133803   2.151   2.116   1.144
43988SOL    HW233804   2.234   2.083   1.022
43989SOL     OW33805   5.286   3.950   4.698
43989SOL    HW133806   5.253   4.035   4.669
43989SOL    HW233807   5.373   3.942   4.660
43990SOL     OW33808   3.756   5.369   5.338
43990SOL    HW133809   3.719   5.382   5.250
43990SOL    HW233810   3.680   5.349   5.393
43991SOL     OW33811   6.178   3.310  11.189
43991SOL    HW133812   6.241   3.340  11.254
43991SOL    HW233813   6.113   3.261  11.239
43992SOL     OW33814   1.727  11.974   0.446
43992SOL    HW133815   1.680  11.997   0.366
43992SOL    HW233816   1.705  12.044   0.507
43993SOL     OW33817   5.595   4.501  14.083
43993SOL    HW133818   5.613   4.527  14.173
43993SOL    HW233819   5.680   4.473  14.048
43994SOL     OW33820   3.122  12.637   7.307
43994SOL    HW133821   3.205  12.602   7.274
43994SOL    HW233822   3.059  12.567   7.289
43995SOL     OW33823  10.734   3.463   0.753
43995SOL    HW133824  10.761   3.374   0.730
43995SOL    HW233825  10.652   3.476   0.706
43996SOL     OW33826   1.590   8.807  12.156
43996SOL    HW133827   1.620   8.894  12.129
43996SOL    HW233828   1.623   8.796  12.245
43997SOL     OW33829   9.470   8.700   0.876
43997SOL    HW133830   9.535   8.764   0.905
43997SOL    HW233831   9.496   8.676   0.788
43998SOL     OW33832  14.058   2.713  13.075
43998SOL    HW133833  14.010   2.635  13.047
43998SOL    HW233834  14.150   2.692  13.057
43999SOL     OW33835  12.997  13.800   8.439
43999SOL    HW133836  12.966  13.888   8.416
43999SOL    HW233837  12.919  13.754   8.470
44000SOL     OW33838   8.979  10.840   6.722
44000SOL    HW133839   9.053  10.850   6.782
44000SOL    HW233840   8.924  10.917   6.738
44001SOL     OW33841   7.394   1.659  13.566
44001SOL    HW133842   7.342   1.693  13.493
44001SOL    HW233843   7.367   1.712  13.641
44002SOL     OW33844   2.305   4.382   9.461
44002SOL    HW133845   2.343   4.469   9.472
44002SOL    HW233846   2.223   4.385   9.511
44003SOL     OW33847   1.056  12.930   0.441
44003SOL    HW133848   1.054  12.992   0.514
44003SOL    HW233849   1.055  12.986   0.363
44004SOL     OW33850   8.566   9.860   9.796
44004SOL    HW133851   8.504   9.833   9.864
44004SOL    HW233852   8.535   9.818   9.716
44005SOL     OW33853  12.859   5.029  12.943
44005SOL    HW133854  12.775   5.034  12.897
44005SOL    HW233855  12.903   5.111  12.922
44006SOL     OW33856  12.517   5.478   2.087
44006SOL    HW133857  12.529   5.564   2.046
44006SOL    HW233858  12.502   5.497   2.179
44007SOL     OW33859   6.060   9.835   8.483
44007SOL    HW133860   6.002   9.791   8.421
44007SOL    HW233861   6.033   9.803   8.569
44008SOL     OW33862   7.765   4.432  11.790
44008SOL    HW133863   7.785   4.371  11.861
44008SOL    HW233864   7.721   4.505  11.833
44009SOL     OW33865   1.053   7.255  13.035
44009SOL    HW133866   1.035   7.175  13.085
44009SOL    HW233867   1.111   7.306  13.091
44010SOL     OW33868   3.135  10.396   2.464
44010SOL    HW133869   3.188  10.447   2.402
44010SOL    HW233870   3.066  10.356   2.411
44011SOL     OW33871  11.289  11.434  13.386
44011SOL    HW133872  11.227  11.448  13.458
44011SOL    HW233873  11.341  11.360  13.415
44012SOL     OW33874   0.032  12.559   6.841
44012SOL    HW133875  14.874  12.513   6.767
44012SOL    HW233876   0.002  12.510   6.918
44013SOL     OW33877   4.487   4.194   4.745
44013SOL    HW133878   4.489   4.281   4.706
44013SOL    HW233879   4.400   4.188   4.786
44014SOL     OW33880   6.464   1.590   2.164
44014SOL    HW133881   6.475   1.679   2.132
44014SOL    HW233882   6.369   1.579   2.172
44015SOL     OW33883   4.259   0.892   9.678
44015SOL    HW133884   4.269   0.865   9.769
44015SOL    HW233885   4.323   0.840   9.629
44016SOL     OW33886  14.493   2.092   2.470
44016SOL    HW133887  14.559   2.153   2.438
44016SOL    HW233888  14.415   2.146   2.484
44017SOL     OW33889   1.417   6.686  12.252
44017SOL    HW133890   1.376   6.617  12.199
44017SOL    HW233891   1.344   6.728  12.297
44018SOL     OW33892   8.147  10.945   9.959
44018SOL    HW133893   8.232  10.960   9.918
44018SOL    HW233894   8.156  10.861  10.004
44019SOL     OW33895   8.132   6.540   5.765
44019SOL    HW133896   8.070   6.501   5.704
44019SOL    HW233897   8.086   6.544   5.848
44020SOL     OW33898   1.669  10.657   9.944
44020SOL    HW133899   1.701  10.567   9.936
44020SOL    HW233900   1.607  10.667   9.872
44021SOL     OW33901  14.293   3.296   9.299
44021SOL    HW133902  14.267   3.277   9.389
44021SOL    HW233903  14.212   3.288   9.248
44022SOL     OW33904   7.152   1.146   1.647
44022SOL    HW133905   7.245   1.126   1.660
44022SOL    HW233906   7.118   1.161   1.735
44023SOL     OW33907   8.778   4.894   5.535
44023SOL    HW133908   8.845   4.826   5.537
44023SOL    HW233909   8.782   4.929   5.446
44024SOL     OW33910  11.266  12.471   6.522
44024SOL    HW133911  11.230  12.389   6.488
44024SOL    HW233912  11.197  12.507   6.578
44025SOL     OW33913   2.979   3.811   8.416
44025SOL    HW133914   3.072   3.832   8.422
44025SOL    HW233915   2.936   3.897   8.408
44026SOL     OW33916  12.217   4.140   1.246
44026SOL    HW133917  12.291   4.160   1.188
44026SOL    HW233918  12.155   4.094   1.190
44027SOL     OW33919  13.448   1.603   6.675
44027SOL    HW133920  13.505   1.577   6.602
44027SOL    HW233921  13.443   1.698   6.668
44028SOL     OW33922   2.293  10.336  14.054
44028SOL    HW133923   2.206  10.347  14.094
44028SOL    HW233924   2.313  10.423  14.018
44029SOL     OW33925   6.820   2.268   8.879
44029SOL    HW133926   6.761   2.297   8.948
44029SOL    HW233927   6.797   2.176   8.865
44030SOL     OW33928  13.948  10.192  14.613
44030SOL    HW133929  13.976  10.219  14.700
44030SOL    HW233930  13.863  10.151  14.627
44031SOL     OW33931   2.082   4.114   4.096
44031SOL    HW133932   2.020   4.151   4.159
44031SOL    HW233933   2.109   4.188   4.041
44032SOL     OW33934   7.833   9.731   9.531
44032SOL    HW133935   7.899   9.708   9.465
44032SOL    HW233936   7.778   9.653   9.539
44033SOL     OW33937   4.646  10.663  14.206
44033SOL    HW133938   4.554  10.667  14.234
44033SOL    HW233939   4.652  10.727  14.135
44034SOL     OW33940   1.454  14.082  14.656
44034SOL    HW133941   1.505  14.087  14.737
44034SOL    HW233942   1.410  14.166  14.650
44035SOL     OW33943   9.480   2.194   2.393
44035SOL    HW133944   9.418   2.223   2.326
44035SOL    HW233945   9.565   2.198   2.350
44036SOL     OW33946   5.672   4.572   2.764
44036SOL    HW133947   5.688   4.591   2.857
44036SOL    HW233948   5.728   4.498   2.744
44037SOL     OW33949  12.825   3.430  10.181
44037SOL    HW133950  12.869   3.410  10.263
44037SOL    HW233951  12.740   3.465  10.207
44038SOL     OW33952  13.378  12.006  12.901
44038SOL    HW133953  13.466  12.041  12.915
44038SOL    HW233954  13.379  11.972  12.811
44039SOL     OW33955  13.302   3.087   7.519
44039SOL    HW133956  13.384   3.113   7.561
44039SOL    HW233957  13.326   3.070   7.428
44040SOL     OW33958   7.003  14.122   7.338
44040SOL    HW133959   7.068  14.142   7.270
44040SOL    HW233960   7.007  14.198   7.397
44041SOL     OW33961   0.644   3.853   6.869
44041SOL    HW133962   0.691   3.802   6.936
44041SOL    HW233963   0.646   3.943   6.901
44042SOL     OW33964   9.885  10.316   6.091
44042SOL    HW133965   9.965  10.264   6.091
44042SOL    HW233966   9.832  10.281   6.162
44043SOL     OW33967  13.058   3.738  13.535
44043SOL    HW133968  13.093   3.684  13.605
44043SOL    HW233969  12.975   3.695  13.511
44044SOL     OW33970   7.338  12.887   9.133
44044SOL    HW133971   7.343  12.950   9.061
44044SOL    HW233972   7.379  12.808   9.098
44045SOL     OW33973   7.293  10.595   6.907
44045SOL    HW133974   7.201  10.570   6.899
44045SOL    HW233975   7.315  10.634   6.822
44046SOL     OW33976   5.972   2.954   1.475
44046SOL    HW133977   5.930   2.902   1.407
44046SOL    HW233978   6.062   2.965   1.444
44047SOL     OW33979   9.529   7.863   8.189
44047SOL    HW133980   9.544   7.941   8.243
44047SOL    HW233981   9.456   7.818   8.231
44048SOL     OW33982   4.047  14.228   0.816
44048SOL    HW133983   4.041  14.136   0.794
44048SOL    HW233984   4.115  14.232   0.883
44049SOL     OW33985   7.951   2.554  12.205
44049SOL    HW133986   7.911   2.595  12.129
44049SOL    HW233987   8.005   2.483  12.169
44050SOL     OW33988   9.740   3.815   7.382
44050SOL    HW133989   9.721   3.848   7.471
44050SOL    HW233990   9.671   3.750   7.366
44051SOL     OW33991  12.623  13.237   6.144
44051SOL    HW133992  12.585  13.291   6.074
44051SOL    HW233993  12.635  13.151   6.104
44052SOL     OW33994  11.040   4.072  11.202
44052SOL    HW133995  11.054   4.039  11.290
44052SOL    HW233996  11.074   4.161  11.204
44053SOL     OW33997  12.970   4.574  11.759
44053SOL    HW133998  12.984   4.604  11.669
44053SOL    HW233999  12.881   4.540  11.759
44054SOL     OW34000   9.442   8.335   7.667
44054SOL    HW134001   9.472   8.349   7.757
44054SOL    HW234002   9.383   8.261   7.673
44055SOL     OW34003   6.673   1.050   8.845
44055SOL    HW134004   6.673   1.111   8.771
44055SOL    HW234005   6.761   1.015   8.848
44056SOL     OW34006   3.309  13.682   1.066
44056SOL    HW134007   3.397  13.669   1.029
44056SOL    HW234008   3.293  13.776   1.058
44057SOL     OW34009  13.019   5.855  11.442
44057SOL    HW134010  12.936   5.895  11.414
44057SOL    HW234011  12.992   5.783  11.500
44058SOL     OW34012   0.724  11.594  10.371
44058SOL    HW134013   0.681  11.658  10.428
44058SOL    HW234014   0.683  11.511  10.393
44059SOL     OW34015   7.929   0.098  10.834
44059SOL    HW134016   8.006   0.046  10.812
44059SOL    HW234017   7.855   0.042  10.809
44060SOL     OW34018   8.568   1.138  10.989
44060SOL    HW134019   8.485   1.122  11.033
44060SOL    HW234020   8.590   1.054  10.947
44061SOL     OW34021   8.034   0.267  13.404
44061SOL    HW134022   8.091   0.323  13.352
44061SOL    HW234023   7.982   0.219  13.340
44062SOL     OW34024  11.145  13.539  13.966
44062SOL    HW134025  11.103  13.542  13.880
44062SOL    HW234026  11.072  13.528  14.027
44063SOL     OW34027   5.050   3.279  13.310
44063SOL    HW134028   4.960   3.308  13.322
44063SOL    HW234029   5.103   3.357  13.326
44064SOL     OW34030   0.268  14.052  11.835
44064SOL    HW134031   0.227  14.117  11.893
44064SOL    HW234032   0.348  14.026  11.880
44065SOL     OW34033  12.835   4.620   1.463
44065SOL    HW134034  12.891   4.578   1.529
44065SOL    HW234035  12.894   4.675   1.413
44066SOL     OW34036   8.342   2.838   0.403
44066SOL    HW134037   8.358   2.906   0.337
44066SOL    HW234038   8.252   2.854   0.432
44067SOL     OW34039   4.065   7.384  12.278
44067SOL    HW134040   4.049   7.302  12.232
44067SOL    HW234041   4.126   7.360  12.349
44068SOL     OW34042   9.959   6.836  11.441
44068SOL    HW134043   9.911   6.867  11.363
44068SOL    HW234044   9.911   6.758  11.469
44069SOL     OW34045   3.485   2.078  12.348
44069SOL    HW134046   3.397   2.112  12.365
44069SOL    HW234047   3.537   2.107  12.423
44070SOL     OW34048  13.106   1.430  10.727
44070SOL    HW134049  13.169   1.428  10.799
44070SOL    HW234050  13.057   1.512  10.740
44071SOL     OW34051   1.089   1.048  13.359
44071SOL    HW134052   1.134   0.965  13.339
44071SOL    HW234053   1.133   1.113  13.305
44072SOL     OW34054   4.012  11.104   0.930
44072SOL    HW134055   3.973  11.184   0.895
44072SOL    HW234056   4.101  11.103   0.896
44073SOL     OW34057   4.911   4.467   8.001
44073SOL    HW134058   4.871   4.535   7.948
44073SOL    HW234059   4.937   4.511   8.082
44074SOL     OW34060   7.870   2.511   3.809
44074SOL    HW134061   7.921   2.466   3.876
44074SOL    HW234062   7.917   2.492   3.727
44075SOL     OW34063   8.215  10.103  10.522
44075SOL    HW134064   8.148  10.114  10.589
44075SOL    HW234065   8.222  10.009  10.509
44076SOL     OW34066  11.490   2.098   8.350
44076SOL    HW134067  11.470   2.190   8.370
44076SOL    HW234068  11.581   2.087   8.377
44077SOL     OW34069   0.191   9.812   2.629
44077SOL    HW134070   0.247   9.736   2.615
44077SOL    HW234071   0.108   9.774   2.659
44078SOL     OW34072   4.894  12.225   3.703
44078SOL    HW134073   4.933  12.238   3.789
44078SOL    HW234074   4.814  12.276   3.704
44079SOL     OW34075   9.568   4.834   1.640
44079SOL    HW134076   9.585   4.841   1.546
44079SOL    HW234077   9.480   4.796   1.646
44080SOL     OW34078   1.943   7.394   5.945
44080SOL    HW134079   2.003   7.340   5.997
44080SOL    HW234080   1.888   7.331   5.899
44081SOL     OW34081   1.756   2.105  10.659
44081SOL    HW134082   1.801   2.188  10.648
44081SOL    HW234083   1.692   2.121  10.729
44082SOL     OW34084   9.842   4.681   8.293
44082SOL    HW134085   9.860   4.713   8.205
44082SOL    HW234086   9.900   4.731   8.349
44083SOL     OW34087   8.142   2.422   0.945
44083SOL    HW134088   8.154   2.379   0.860
44083SOL    HW234089   8.065   2.380   0.982
44084SOL     OW34090  14.002   8.985  10.554
44084SOL    HW134091  13.920   8.938  10.539
44084SOL    HW234092  13.985   9.074  10.524
44085SOL     OW34093   2.126   1.191  13.415
44085SOL    HW134094   2.176   1.216  13.492
44085SOL    HW234095   2.149   1.256  13.349
44086SOL     OW34096   1.775   3.065   6.270
44086SOL    HW134097   1.834   2.993   6.248
44086SOL    HW234098   1.710   3.066   6.199
44087SOL     OW34099  11.305  10.006   3.455
44087SOL    HW134100  11.378   9.997   3.515
44087SOL    HW234101  11.319  10.090   3.412
44088SOL     OW34102   8.693   0.429   6.559
44088SOL    HW134103   8.759   0.411   6.626
44088SOL    HW234104   8.626   0.362   6.573
44089SOL     OW34105  11.007   1.378   8.657
44089SOL    HW134106  11.003   1.446   8.725
44089SOL    HW234107  10.929   1.395   8.603
44090SOL     OW34108   1.543  11.777   6.471
44090SOL    HW134109   1.528  11.687   6.499
44090SOL    HW234110   1.492  11.786   6.390
44091SOL     OW34111   3.479  14.747  10.788
44091SOL    HW134112   3.510  14.833  10.815
44091SOL    HW234113   3.458  14.757  10.695
44092SOL     OW34114   6.674  10.574  14.692
44092SOL    HW134115   6.644  10.504  14.633
44092SOL    HW234116   6.683  10.531  14.777
44093SOL     OW34117   3.019   9.143   2.087
44093SOL    HW134118   3.001   9.220   2.141
44093SOL    HW234119   3.076   9.089   2.142
44094SOL     OW34120   6.100   9.184  14.320
44094SOL    HW134121   6.145   9.178  14.235
44094SOL    HW234122   6.171   9.192  14.384
44095SOL     OW34123   7.097  11.826   0.445
44095SOL    HW134124   7.012  11.864   0.468
44095SOL    HW234125   7.112  11.853   0.355
44096SOL     OW34126  14.642  11.597   3.461
44096SOL    HW134127  14.678  11.511   3.439
44096SOL    HW234128  14.549  11.580   3.479
44097SOL     OW34129   4.404   1.451   2.129
44097SOL    HW134130   4.479   1.504   2.156
44097SOL    HW234131   4.443   1.368   2.101
44098SOL     OW34132   3.902   7.901  13.934
44098SOL    HW134133   3.938   7.936  14.016
44098SOL    HW234134   3.844   7.830  13.962
44099SOL     OW34135   6.644   3.450   0.592
44099SOL    HW134136   6.641   3.361   0.627
44099SOL    HW234137   6.553   3.481   0.599
44100SOL     OW34138   9.896   3.855  11.051
44100SOL    HW134139   9.890   3.936  11.001
44100SOL    HW234140   9.977   3.864  11.101
44101SOL     OW34141   4.051  10.735   2.791
44101SOL    HW134142   4.078  10.655   2.746
44101SOL    HW234143   3.977  10.709   2.846
44102SOL     OW34144   1.602  14.481   0.039
44102SOL    HW134145   1.564  14.409   0.089
44102SOL    HW234146   1.566  14.470  14.833
44103SOL     OW34147   6.302  11.606  12.477
44103SOL    HW134148   6.258  11.531  12.516
44103SOL    HW234149   6.285  11.599  12.383
44104SOL     OW34150  10.773   2.084  11.115
44104SOL    HW134151  10.849   2.067  11.172
44104SOL    HW234152  10.708   2.020  11.144
44105SOL     OW34153  10.033   8.586   9.159
44105SOL    HW134154   9.963   8.651   9.148
44105SOL    HW234155  10.040   8.544   9.074
44106SOL     OW34156  12.032   0.960  11.503
44106SOL    HW134157  12.005   0.977  11.413
44106SOL    HW234158  12.098   0.891  11.497
44107SOL     OW34159  11.520   5.590   4.748
44107SOL    HW134160  11.463   5.513   4.741
44107SOL    HW234161  11.467   5.662   4.715
44108SOL     OW34162  11.032  14.453  13.514
44108SOL    HW134163  11.095  14.494  13.455
44108SOL    HW234164  11.014  14.367  13.476
44109SOL     OW34165   9.786  12.222   3.508
44109SOL    HW134166   9.755  12.144   3.555
44109SOL    HW234167   9.725  12.291   3.534
44110SOL     OW34168   8.052   7.004   9.951
44110SOL    HW134169   7.972   7.023  10.001
44110SOL    HW234170   8.105   6.952  10.012
44111SOL     OW34171   0.147  11.687  12.858
44111SOL    HW134172   0.233  11.709  12.825
44111SOL    HW234173   0.089  11.694  12.783
44112SOL     OW34174   6.705   8.496   4.632
44112SOL    HW134175   6.786   8.536   4.601
44112SOL    HW234176   6.710   8.406   4.601
44113SOL     OW34177  10.618   0.958  14.137
44113SOL    HW134178  10.578   0.899  14.073
44113SOL    HW234179  10.624   0.906  14.217
44114SOL     OW34180   4.593  14.116   6.784
44114SOL    HW134181   4.603  14.181   6.715
44114SOL    HW234182   4.498  14.107   6.794
44115SOL     OW34183  12.158  11.862   9.201
44115SOL    HW134184  12.128  11.772   9.215
44115SOL    HW234185  12.236  11.870   9.255
44116SOL     OW34186  10.288   6.425   8.017
44116SOL    HW134187  10.193   6.415   8.010
44116SOL    HW234188  10.320   6.337   8.036
44117SOL     OW34189   9.433   1.267  13.781
44117SOL    HW134190   9.466   1.198  13.839
44117SOL    HW234191   9.481   1.255  13.699
44118SOL     OW34192   5.274   4.228  13.664
44118SOL    HW134193   5.248   4.201  13.576
44118SOL    HW234194   5.360   4.268  13.653
44119SOL     OW34195   7.713   2.350   2.372
44119SOL    HW134196   7.689   2.438   2.403
44119SOL    HW234197   7.714   2.297   2.452
44120SOL     OW34198   9.793   7.844   0.397
44120SOL    HW134199   9.814   7.778   0.331
44120SOL    HW234200   9.874   7.893   0.409
44121SOL     OW34201  10.830   0.780   4.694
44121SOL    HW134202  10.754   0.723   4.692
44121SOL    HW234203  10.839   0.812   4.604
44122SOL     OW34204   8.469   7.561  13.428
44122SOL    HW134205   8.409   7.635  13.435
44122SOL    HW234206   8.555   7.600  13.421
44123SOL     OW34207   2.156  13.161  11.991
44123SOL    HW134208   2.199  13.227  12.045
44123SOL    HW234209   2.170  13.079  12.037
44124SOL     OW34210  10.082   5.965   2.095
44124SOL    HW134211  10.137   6.027   2.047
44124SOL    HW234212  10.003   5.956   2.042
44125SOL     OW34213  14.065  12.738  11.183
44125SOL    HW134214  14.032  12.686  11.110
44125SOL    HW234215  13.992  12.797  11.206
44126SOL     OW34216   7.095   9.429   5.648
44126SOL    HW134217   7.007   9.452   5.677
44126SOL    HW234218   7.119   9.352   5.700
44127SOL     OW34219   1.408  12.064   6.472
44127SOL    HW134220   1.467  11.994   6.445
44127SOL    HW234221   1.425  12.075   6.566
44128SOL     OW34222   7.846   6.063  13.821
44128SOL    HW134223   7.796   6.114  13.757
44128SOL    HW234224   7.799   5.980  13.827
44129SOL     OW34225   9.656  14.107   8.661
44129SOL    HW134226   9.618  14.035   8.610
44129SOL    HW234227   9.676  14.068   8.746
44130SOL     OW34228   1.213   7.659  14.338
44130SOL    HW134229   1.256   7.661  14.424
44130SOL    HW234230   1.214   7.750  14.308
44131SOL     OW34231   4.942  10.669   3.557
44131SOL    HW134232   4.928  10.610   3.631
44131SOL    HW234233   4.854  10.683   3.521
44132SOL     OW34234   8.134  12.386   6.725
44132SOL    HW134235   8.217  12.434   6.729
44132SOL    HW234236   8.071  12.448   6.689
44133SOL     OW34237   7.779   3.836   8.166
44133SOL    HW134238   7.684   3.847   8.173
44133SOL    HW234239   7.813   3.925   8.159
44134SOL     OW34240  10.857   5.160   7.077
44134SOL    HW134241  10.950   5.153   7.099
44134SOL    HW234242  10.855   5.154   6.981
44135SOL     OW34243   6.310   8.798   4.825
44135SOL    HW134244   6.367   8.733   4.867
44135SOL    HW234245   6.304   8.869   4.889
44136SOL     OW34246  13.075  11.990   4.759
44136SOL    HW134247  13.100  11.977   4.667
44136SOL    HW234248  13.156  11.976   4.808
44137SOL     OW34249   9.081   3.969   7.879
44137SOL    HW134250   9.133   3.919   7.816
44137SOL    HW234251   9.052   4.046   7.830
44138SOL     OW34252   3.565   1.875   8.790
44138SOL    HW134253   3.643   1.930   8.780
44138SOL    HW234254   3.508   1.902   8.718
44139SOL     OW34255   3.621  12.050  12.874
44139SOL    HW134256   3.664  12.135  12.884
44139SOL    HW234257   3.592  12.049  12.783
44140SOL     OW34258   8.934   9.007   1.044
44140SOL    HW134259   8.868   8.953   1.002
44140SOL    HW234260   9.014   8.990   0.994
44141SOL     OW34261   6.008  10.186  14.348
44141SOL    HW134262   5.966  10.152  14.268
44141SOL    HW234263   5.960  10.267  14.367
44142SOL     OW34264   6.870  14.036   3.779
44142SOL    HW134265   6.778  14.040   3.752
44142SOL    HW234266   6.873  13.970   3.847
44143SOL     OW34267  14.601  11.067   3.462
44143SOL    HW134268  14.685  11.020   3.462
44143SOL    HW234269  14.543  11.010   3.513
44144SOL     OW34270   3.361   2.439  14.653
44144SOL    HW134271   3.425   2.447  14.582
44144SOL    HW234272   3.340   2.346  14.655
44145SOL     OW34273  14.660  14.197   6.544
44145SOL    HW134274  14.692  14.282   6.513
44145SOL    HW234275  14.737  14.156   6.584
44146SOL     OW34276   1.693   6.169   8.420
44146SOL    HW134277   1.653   6.157   8.333
44146SOL    HW234278   1.776   6.122   8.415
44147SOL     OW34279  10.053  12.688   0.994
44147SOL    HW134280  10.134  12.692   0.943
44147SOL    HW234281   9.994  12.748   0.948
44148SOL     OW34282  14.012   0.997   7.124
44148SOL    HW134283  14.048   0.913   7.096
44148SOL    HW234284  14.071   1.062   7.086
44149SOL     OW34285  11.703   6.724   0.238
44149SOL    HW134286  11.712   6.694   0.329
44149SOL    HW234287  11.645   6.800   0.244
44150SOL     OW34288  14.712   4.145  10.556
44150SOL    HW134289  14.668   4.193  10.626
44150SOL    HW234290  14.731   4.212  10.489
44151SOL     OW34291  14.680   2.154  10.598
44151SOL    HW134292  14.636   2.217  10.541
44151SOL    HW234293  14.702   2.203  10.676
44152SOL     OW34294   7.210   5.764   0.360
44152SOL    HW134295   7.299   5.732   0.379
44152SOL    HW234296   7.187   5.723   0.277
44153SOL     OW34297   9.922   5.620   7.457
44153SOL    HW134298   9.966   5.703   7.435
44153SOL    HW234299   9.931   5.613   7.552
44154SOL     OW34300   9.395  14.101  10.377
44154SOL    HW134301   9.430  14.166  10.437
44154SOL    HW234302   9.472  14.060  10.338
44155SOL     OW34303   3.731  10.934  13.185
44155SOL    HW134304   3.648  10.965  13.148
44155SOL    HW234305   3.746  10.991  13.260
44156SOL     OW34306   3.914  12.035   9.474
44156SOL    HW134307   3.874  11.971   9.416
44156SOL    HW234308   3.973  12.086   9.417
44157SOL     OW34309  12.631   2.941   3.009
44157SOL    HW134310  12.712   2.954   3.059
44157SOL    HW234311  12.575   2.890   3.067
44158SOL     OW34312  11.816   4.000  10.422
44158SOL    HW134313  11.905   3.984  10.453
44158SOL    HW234314  11.760   3.975  10.496
44159SOL     OW34315  12.492   6.190  11.743
44159SOL    HW134316  12.518   6.268  11.791
44159SOL    HW234317  12.398   6.203  11.726
44160SOL     OW34318   1.162  10.156  11.013
44160SOL    HW134319   1.082  10.110  10.988
44160SOL    HW234320   1.218  10.088  11.051
44161SOL     OW34321  14.013   0.464   6.363
44161SOL    HW134322  14.035   0.556   6.377
44161SOL    HW234323  14.028   0.423   6.448
44162SOL     OW34324   8.571   3.780   8.430
44162SOL    HW134325   8.546   3.832   8.354
44162SOL    HW234326   8.616   3.841   8.488
44163SOL     OW34327   9.482   4.369  14.004
44163SOL    HW134328   9.433   4.291  13.980
44163SOL    HW234329   9.558   4.336  14.053
44164SOL     OW34330   2.329   7.159   4.277
44164SOL    HW134331   2.338   7.100   4.202
44164SOL    HW234332   2.240   7.145   4.308
44165SOL     OW34333   8.825  13.754  10.978
44165SOL    HW134334   8.781  13.736  11.060
44165SOL    HW234335   8.869  13.672  10.955
44166SOL     OW34336   9.728  13.289   7.522
44166SOL    HW134337   9.636  13.316   7.518
44166SOL    HW234338   9.764  13.316   7.437
44167SOL     OW34339   1.684   7.217   8.284
44167SOL    HW134340   1.686   7.202   8.378
44167SOL    HW234341   1.775   7.210   8.256
44168SOL     OW34342  14.863  12.220  10.616
44168SOL    HW134343  14.877  12.285  10.548
44168SOL    HW234344  14.826  12.270  10.690
44169SOL     OW34345  14.691   6.371   2.482
44169SOL    HW134346  14.610   6.401   2.440
44169SOL    HW234347  14.730   6.450   2.520
44170SOL     OW34348   9.698   7.114   8.142
44170SOL    HW134349   9.704   7.209   8.130
44170SOL    HW234350   9.734   7.099   8.229
44171SOL     OW34351   7.098   9.196  12.077
44171SOL    HW134352   7.030   9.154  12.024
44171SOL    HW234353   7.072   9.178  12.168
44172SOL     OW34354  11.085  10.282  13.667
44172SOL    HW134355  11.053  10.267  13.756
44172SOL    HW234356  11.166  10.230  13.662
44173SOL     OW34357   7.620   3.571   8.507
44173SOL    HW134358   7.623   3.666   8.505
44173SOL    HW234359   7.622   3.544   8.415
44174SOL     OW34360   0.321  13.021  14.249
44174SOL    HW134361   0.299  12.999  14.159
44174SOL    HW234362   0.236  13.040  14.291
44175SOL     OW34363   1.332   1.204  12.997
44175SOL    HW134364   1.297   1.229  13.082
44175SOL    HW234365   1.255   1.200  12.940
44176SOL     OW34366   0.700  13.625   0.444
44176SOL    HW134367   0.702  13.632   0.348
44176SOL    HW234368   0.607  13.621   0.466
44177SOL     OW34369   6.598   6.148  14.788
44177SOL    HW134370   6.629   6.071  14.739
44177SOL    HW234371   6.616   6.222  14.729
44178SOL     OW34372  12.773  11.230   6.060
44178SOL    HW134373  12.831  11.173   6.111
44178SOL    HW234374  12.714  11.170   6.015
44179SOL     OW34375  10.838   4.863   2.719
44179SOL    HW134376  10.757   4.905   2.689
44179SOL    HW234377  10.841   4.882   2.813
44180SOL     OW34378   5.687   8.902   2.642
44180SOL    HW134379   5.755   8.840   2.613
44180SOL    HW234380   5.719   8.987   2.613
44181SOL     OW34381   6.206   7.213  10.137
44181SOL    HW134382   6.220   7.215  10.042
44181SOL    HW234383   6.117   7.178  10.147
44182SOL     OW34384   8.450   5.102  10.465
44182SOL    HW134385   8.361   5.126  10.491
44182SOL    HW234386   8.442   5.011  10.434
44183SOL     OW34387   9.916   7.472  13.106
44183SOL    HW134388   9.997   7.449  13.152
44183SOL    HW234389   9.934   7.454  13.014
44184SOL     OW34390   8.587   7.787   0.912
44184SOL    HW134391   8.510   7.740   0.944
44184SOL    HW234392   8.617   7.837   0.988
44185SOL     OW34393   6.499   2.483  11.438
44185SOL    HW134394   6.452   2.511  11.516
44185SOL    HW234395   6.591   2.491  11.462
44186SOL     OW34396   1.838   4.556  10.569
44186SOL    HW134397   1.800   4.644  10.565
44186SOL    HW234398   1.795   4.508  10.498
44187SOL     OW34399  10.466   0.634   8.062
44187SOL    HW134400  10.381   0.655   8.101
44187SOL    HW234401  10.529   0.648   8.132
44188SOL     OW34402   6.875   2.409  11.291
44188SOL    HW134403   6.969   2.426  11.288
44188SOL    HW234404   6.835   2.493  11.311
44189SOL     OW34405   5.376   0.857   0.350
44189SOL    HW134406   5.355   0.764   0.362
44189SOL    HW234407   5.326   0.883   0.273
44190SOL     OW34408  13.054  12.392   6.421
44190SOL    HW134409  12.993  12.377   6.493
44190SOL    HW234410  13.091  12.479   6.439
44191SOL     OW34411   5.184   2.327  14.777
44191SOL    HW134412   5.268   2.281  14.782
44191SOL    HW234413   5.180   2.361  14.688
44192SOL     OW34414   9.880   1.719   1.118
44192SOL    HW134415   9.794   1.757   1.137
44192SOL    HW234416   9.879   1.634   1.162
44193SOL     OW34417  14.708   4.204   8.545
44193SOL    HW134418  14.614   4.195   8.560
44193SOL    HW234419  14.748   4.174   8.627
44194SOL     OW34420  10.644   3.254   3.296
44194SOL    HW134421  10.584   3.265   3.222
44194SOL    HW234422  10.657   3.342   3.330
44195SOL     OW34423   8.711  11.686   1.661
44195SOL    HW134424   8.713  11.593   1.638
44195SOL    HW234425   8.638  11.721   1.609
44196SOL     OW34426  13.529  10.792   5.953
44196SOL    HW134427  13.611  10.771   5.998
44196SOL    HW234428  13.488  10.707   5.936
44197SOL     OW34429   1.650   6.397   7.557
44197SOL    HW134430   1.660   6.461   7.487
44197SOL    HW234431   1.738   6.383   7.591
44198SOL     OW34432   0.139   4.219   3.946
44198SOL    HW134433   0.154   4.284   3.878
44198SOL    HW234434   0.053   4.240   3.981
44199SOL     OW34435   9.936  10.110  14.157
44199SOL    HW134436   9.983  10.027  14.168
44199SOL    HW234437   9.932  10.123  14.062
44200SOL     OW34438   0.638   9.301   8.537
44200SOL    HW134439   0.573   9.279   8.470
44200SOL    HW234440   0.608   9.385   8.572
44201SOL     OW34441   2.579   5.553   7.300
44201SOL    HW134442   2.553   5.642   7.322
44201SOL    HW234443   2.675   5.554   7.302
44202SOL     OW34444   4.546  13.959  11.045
44202SOL    HW134445   4.460  13.952  11.003
44202SOL    HW234446   4.607  13.919  10.982
44203SOL     OW34447  12.040   5.085  12.303
44203SOL    HW134448  12.101   5.011  12.301
44203SOL    HW234449  11.954   5.045  12.315
44204SOL     OW34450   0.949   1.359  14.420
44204SOL    HW134451   0.876   1.350  14.360
44204SOL    HW234452   0.953   1.453  14.440
44205SOL     OW34453   0.679   5.139  10.397
44205SOL    HW134454   0.715   5.215  10.351
44205SOL    HW234455   0.596   5.121  10.352
44206SOL     OW34456   6.599   2.211   3.979
44206SOL    HW134457   6.536   2.183   4.045
44206SOL    HW234458   6.550   2.210   3.897
44207SOL     OW34459   6.297   7.559   7.252
44207SOL    HW134460   6.256   7.485   7.206
44207SOL    HW234461   6.254   7.560   7.338
44208SOL     OW34462  14.193  10.090   5.217
44208SOL    HW134463  14.175  10.132   5.133
44208SOL    HW234464  14.120  10.116   5.274
44209SOL     OW34465   5.632   5.175   5.229
44209SOL    HW134466   5.617   5.241   5.162
44209SOL    HW234467   5.726   5.180   5.247
44210SOL     OW34468   9.901   4.593   9.193
44210SOL    HW134469   9.845   4.543   9.253
44210SOL    HW234470   9.974   4.624   9.248
44211SOL     OW34471   1.516  14.412   7.592
44211SOL    HW134472   1.582  14.471   7.628
44211SOL    HW234473   1.537  14.326   7.629
44212SOL     OW34474   2.288   0.436  11.390
44212SOL    HW134475   2.315   0.364  11.447
44212SOL    HW234476   2.320   0.515  11.433
44213SOL     OW34477  11.727  14.187   0.460
44213SOL    HW134478  11.807  14.137   0.449
44213SOL    HW234479  11.752  14.262   0.513
44214SOL     OW34480  10.896   9.674   2.383
44214SOL    HW134481  10.804   9.672   2.354
44214SOL    HW234482  10.917   9.583   2.402
44215SOL     OW34483  10.144   8.706   2.905
44215SOL    HW134484  10.191   8.647   2.964
44215SOL    HW234485  10.197   8.708   2.826
44216SOL     OW34486   1.590   3.366   4.369
44216SOL    HW134487   1.530   3.440   4.358
44216SOL    HW234488   1.532   3.289   4.375
44217SOL     OW34489   7.292   1.994   1.133
44217SOL    HW134490   7.263   1.923   1.077
44217SOL    HW234491   7.368   2.031   1.087
44218SOL     OW34492   6.812   5.843   8.898
44218SOL    HW134493   6.719   5.820   8.892
44218SOL    HW234494   6.856   5.779   8.843
44219SOL     OW34495   2.745  13.068   5.420
44219SOL    HW134496   2.835  13.062   5.453
44219SOL    HW234497   2.721  13.160   5.431
44220SOL     OW34498   8.396   5.322  13.708
44220SOL    HW134499   8.357   5.362  13.630
44220SOL    HW234500   8.385   5.228  13.695
44221SOL     OW34501   6.775  10.136   3.162
44221SOL    HW134502   6.848  10.113   3.106
44221SOL    HW234503   6.733  10.053   3.182
44222SOL     OW34504   0.057   9.811  13.219
44222SOL    HW134505   0.135   9.839  13.267
44222SOL    HW234506   0.059   9.863  13.139
44223SOL     OW34507   4.740   4.191  12.795
44223SOL    HW134508   4.669   4.211  12.734
44223SOL    HW234509   4.787   4.118  12.755
44224SOL     OW34510   6.958   9.292  14.335
44224SOL    HW134511   6.986   9.344  14.260
44224SOL    HW234512   7.039   9.275  14.384
44225SOL     OW34513   6.036   9.612   9.018
44225SOL    HW134514   6.081   9.675   8.961
44225SOL    HW234515   6.044   9.528   8.973
44226SOL     OW34516   8.574  13.613   5.726
44226SOL    HW134517   8.522  13.647   5.799
44226SOL    HW234518   8.627  13.543   5.765
44227SOL     OW34519   9.640   6.332  10.205
44227SOL    HW134520   9.584   6.342  10.128
44227SOL    HW234521   9.674   6.242  10.199
44228SOL     OW34522   3.587   5.785  11.163
44228SOL    HW134523   3.554   5.776  11.253
44228SOL    HW234524   3.637   5.866  11.164
44229SOL     OW34525   3.360   8.754   7.266
44229SOL    HW134526   3.371   8.736   7.172
44229SOL    HW234527   3.450   8.762   7.299
44230SOL     OW34528   0.265   3.993  12.905
44230SOL    HW134529   0.337   4.011  12.845
44230SOL    HW234530   0.274   3.900  12.926
44231SOL     OW34531   8.943   3.138   6.732
44231SOL    HW134532   9.026   3.182   6.715
44231SOL    HW234533   8.918   3.167   6.820
44232SOL     OW34534   7.992   3.620   6.923
44232SOL    HW134535   8.009   3.678   6.997
44232SOL    HW234536   8.061   3.553   6.929
44233SOL     OW34537   7.759   5.938   8.486
44233SOL    HW134538   7.839   5.960   8.437
44233SOL    HW234539   7.689   5.984   8.440
44234SOL     OW34540   0.064  12.984   9.473
44234SOL    HW134541   0.113  13.050   9.423
44234SOL    HW234542  14.860  12.983   9.431
44235SOL     OW34543   7.656   8.161   8.835
44235SOL    HW134544   7.610   8.243   8.855
44235SOL    HW234545   7.739   8.169   8.881
44236SOL     OW34546   7.239   4.337  13.533
44236SOL    HW134547   7.226   4.289  13.451
44236SOL    HW234548   7.323   4.381  13.522
44237SOL     OW34549   9.888   6.820   3.504
44237SOL    HW134550   9.850   6.760   3.440
44237SOL    HW234551   9.814   6.842   3.562
44238SOL     OW34552   2.145   2.626   4.188
44238SOL    HW134553   2.180   2.537   4.196
44238SOL    HW234554   2.222   2.681   4.172
44239SOL     OW34555  10.836   6.812  11.563
44239SOL    HW134556  10.803   6.796  11.651
44239SOL    HW234557  10.929   6.834  11.576
44240SOL     OW34558   1.349   1.425   4.465
44240SOL    HW134559   1.407   1.426   4.541
44240SOL    HW234560   1.407   1.404   4.391
44241SOL     OW34561  11.593  10.226   7.533
44241SOL    HW134562  11.503  10.205   7.508
44241SOL    HW234563  11.608  10.175   7.612
44242SOL     OW34564   1.235   5.477  11.422
44242SOL    HW134565   1.308   5.460  11.362
44242SOL    HW234566   1.277   5.508  11.502
44243SOL     OW34567   3.810   8.763  12.234
44243SOL    HW134568   3.761   8.765  12.316
44243SOL    HW234569   3.744   8.783  12.167
44244SOL     OW34570  10.481  13.385  13.524
44244SOL    HW134571  10.536  13.347  13.455
44244SOL    HW234572  10.445  13.464  13.485
44245SOL     OW34573  10.719   7.823  11.176
44245SOL    HW134574  10.628   7.809  11.201
44245SOL    HW234575  10.756   7.875  11.247
44246SOL     OW34576   8.270   4.317   0.939
44246SOL    HW134577   8.178   4.324   0.915
44246SOL    HW234578   8.307   4.403   0.921
44247SOL     OW34579   7.486   1.604   6.654
44247SOL    HW134580   7.470   1.659   6.577
44247SOL    HW234581   7.523   1.664   6.718
44248SOL     OW34582  11.485   4.989   5.047
44248SOL    HW134583  11.568   5.035   5.036
44248SOL    HW234584  11.482   4.927   4.974
44249SOL     OW34585   3.195   1.927   9.429
44249SOL    HW134586   3.216   1.838   9.458
44249SOL    HW234587   3.239   1.983   9.492
44250SOL     OW34588  11.585   4.553   1.936
44250SOL    HW134589  11.652   4.556   2.004
44250SOL    HW234590  11.582   4.643   1.902
44251SOL     OW34591  14.245   3.763   2.078
44251SOL    HW134592  14.175   3.768   2.143
44251SOL    HW234593  14.227   3.683   2.029
44252SOL     OW34594   4.365   6.013  10.688
44252SOL    HW134595   4.410   5.937  10.724
44252SOL    HW234596   4.326   5.981  10.607
44253SOL     OW34597   4.752  10.482   8.302
44253SOL    HW134598   4.761  10.565   8.256
44253SOL    HW234599   4.810  10.490   8.378
44254SOL     OW34600   2.401  13.238   4.963
44254SOL    HW134601   2.311  13.218   4.988
44254SOL    HW234602   2.430  13.162   4.911
44255SOL     OW34603   8.987  10.205   3.940
44255SOL    HW134604   9.051  10.166   4.000
44255SOL    HW234605   8.914  10.231   3.996
44256SOL     OW34606   4.640   6.063  10.957
44256SOL    HW134607   4.596   6.001  11.015
44256SOL    HW234608   4.680   6.008  10.889
44257SOL     OW34609   4.226  11.966   2.526
44257SOL    HW134610   4.200  11.884   2.569
44257SOL    HW234611   4.243  12.026   2.599
44258SOL     OW34612  11.757   9.345  11.369
44258SOL    HW134613  11.696   9.282  11.408
44258SOL    HW234614  11.701   9.413  11.333
44259SOL     OW34615   1.950   8.713  14.319
44259SOL    HW134616   1.996   8.770  14.257
44259SOL    HW234617   1.904   8.774  14.377
44260SOL     OW34618   2.057   1.175  12.630
44260SOL    HW134619   1.971   1.144  12.603
44260SOL    HW234620   2.046   1.269  12.643
44261SOL     OW34621  10.155  14.813   9.501
44261SOL    HW134622  10.100  14.822   9.579
44261SOL    HW234623  10.094  14.788   9.431
44262SOL     OW34624   2.676  12.912   8.716
44262SOL    HW134625   2.725  12.969   8.658
44262SOL    HW234626   2.586  12.918   8.686
44263SOL     OW34627   9.606   0.444  12.522
44263SOL    HW134628   9.599   0.455  12.616
44263SOL    HW234629   9.634   0.529  12.489
44264SOL     OW34630  12.151   4.013   9.508
44264SOL    HW134631  12.239   4.039   9.484
44264SOL    HW234632  12.105   4.001   9.425
44265SOL     OW34633  13.801  14.032   1.967
44265SOL    HW134634  13.728  14.015   2.026
44265SOL    HW234635  13.766  14.013   1.880
44266SOL     OW34636   0.718   5.440   1.957
44266SOL    HW134637   0.731   5.410   2.047
44266SOL    HW234638   0.765   5.522   1.952
44267SOL     OW34639   8.342  12.748   7.456
44267SOL    HW134640   8.274  12.754   7.389
44267SOL    HW234641   8.313  12.677   7.513
44268SOL     OW34642   9.674  13.448   7.103
44268SOL    HW134643   9.585  13.424   7.129
44268SOL    HW234644   9.673  13.447   7.008
44269SOL     OW34645   6.689  13.190  14.697
44269SOL    HW134646   6.601  13.156  14.681
44269SOL    HW234647   6.747  13.124  14.658
44270SOL     OW34648  14.668  10.780  11.109
44270SOL    HW134649  14.754  10.754  11.141
44270SOL    HW234650  14.668  10.753  11.017
44271SOL     OW34651   3.473  14.029   3.865
44271SOL    HW134652   3.459  14.055   3.956
44271SOL    HW234653   3.387  14.036   3.824
44272SOL     OW34654   3.146   0.205   5.596
44272SOL    HW134655   3.117   0.166   5.514
44272SOL    HW234656   3.222   0.257   5.572
44273SOL     OW34657  11.318   6.846  12.490
44273SOL    HW134658  11.347   6.935  12.507
44273SOL    HW234659  11.267   6.851  12.409
44274SOL     OW34660   4.810  14.167  14.801
44274SOL    HW134661   4.784  14.191  14.712
44274SOL    HW234662   4.737  14.114  14.833
44275SOL     OW34663  12.708  12.673   3.213
44275SOL    HW134664  12.667  12.665   3.299
44275SOL    HW234665  12.780  12.735   3.226
44276SOL     OW34666  14.500  10.822   9.701
44276SOL    HW134667  14.593  10.812   9.680
44276SOL    HW234668  14.478  10.743   9.752
44277SOL     OW34669   9.284   5.182  12.765
44277SOL    HW134670   9.295   5.090  12.742
44277SOL    HW234671   9.278   5.227  12.680
44278SOL     OW34672   2.208  14.032  12.145
44278SOL    HW134673   2.134  14.087  12.169
44278SOL    HW234674   2.226  13.980  12.224
44279SOL     OW34675   6.709  10.179   8.635
44279SOL    HW134676   6.622  10.219   8.633
44279SOL    HW234677   6.742  10.199   8.723
44280SOL     OW34678  13.103   5.474   1.538
44280SOL    HW134679  13.083   5.382   1.523
44280SOL    HW234680  13.021   5.520   1.515
44281SOL     OW34681  12.838  10.346  14.790
44281SOL    HW134682  12.782  10.293  14.847
44281SOL    HW234683  12.843  10.431  14.833
44282SOL     OW34684   2.547   3.218  12.752
44282SOL    HW134685   2.508   3.259  12.829
44282SOL    HW234686   2.592   3.141  12.786
44283SOL     OW34687  14.138   9.084   8.284
44283SOL    HW134688  14.132   8.990   8.271
44283SOL    HW234689  14.162   9.119   8.199
44284SOL     OW34690   5.083   8.854   4.423
44284SOL    HW134691   5.154   8.842   4.359
44284SOL    HW234692   5.099   8.785   4.488
44285SOL     OW34693   8.803   1.775   8.339
44285SOL    HW134694   8.792   1.745   8.249
44285SOL    HW234695   8.715   1.796   8.369
44286SOL     OW34696  10.378  12.120   0.589
44286SOL    HW134697  10.385  12.134   0.684
44286SOL    HW234698  10.460  12.076   0.565
44287SOL     OW34699   7.367  10.472  13.507
44287SOL    HW134700   7.311  10.549  13.518
44287SOL    HW234701   7.351  10.419  13.585
44288SOL     OW34702   0.379   3.060   6.798
44288SOL    HW134703   0.431   3.038   6.876
44288SOL    HW234704   0.290   3.033   6.821
44289SOL     OW34705  14.083   4.078   6.015
44289SOL    HW134706  14.009   4.135   5.993
44289SOL    HW234707  14.047   3.989   6.011
44290SOL     OW34708  11.057  14.809   2.056
44290SOL    HW134709  11.097  14.772   2.134
44290SOL    HW234710  11.129  14.849   2.007
44291SOL     OW34711   5.254   3.073  12.313
44291SOL    HW134712   5.176   3.096  12.364
44291SOL    HW234713   5.325   3.072  12.377
44292SOL     OW34714  12.090   5.153  13.160
44292SOL    HW134715  12.151   5.209  13.113
44292SOL    HW234716  12.145   5.100  13.218
44293SOL     OW34717   1.942   0.784   7.037
44293SOL    HW134718   2.006   0.754   6.973
44293SOL    HW234719   1.994   0.804   7.115
44294SOL     OW34720   8.995  11.725   3.653
44294SOL    HW134721   8.901  11.730   3.637
44294SOL    HW234722   9.004  11.663   3.725
44295SOL     OW34723   9.218   7.406  13.759
44295SOL    HW134724   9.274   7.342  13.714
44295SOL    HW234725   9.208   7.371  13.847
44296SOL     OW34726  12.705   6.819  14.362
44296SOL    HW134727  12.629   6.817  14.421
44296SOL    HW234728  12.707   6.731  14.324
44297SOL     OW34729   9.556   4.948   4.711
44297SOL    HW134730   9.473   4.987   4.740
44297SOL    HW234731   9.613   5.023   4.694
44298SOL     OW34732   5.542  10.962  10.240
44298SOL    HW134733   5.449  10.942  10.229
44298SOL    HW234734   5.560  10.946  10.332
44299SOL     OW34735  12.870   5.934   0.891
44299SOL    HW134736  12.921   5.987   0.829
44299SOL    HW234737  12.936   5.886   0.941
44300SOL     OW34738  13.547   1.432   8.915
44300SOL    HW134739  13.524   1.522   8.892
44300SOL    HW234740  13.591   1.398   8.837
44301SOL     OW34741   9.685   2.784   8.954
44301SOL    HW134742   9.639   2.866   8.969
44301SOL    HW234743   9.692   2.777   8.858
44302SOL     OW34744  11.330  14.120  13.835
44302SOL    HW134745  11.381  14.173  13.897
44302SOL    HW234746  11.268  14.073  13.891
44303SOL     OW34747   4.573   4.142  14.695
44303SOL    HW134748   4.661   4.108  14.684
44303SOL    HW234749   4.572   4.180  14.782
44304SOL     OW34750   5.474   5.046   1.488
44304SOL    HW134751   5.529   4.973   1.518
44304SOL    HW234752   5.516   5.124   1.526
44305SOL     OW34753   5.630   1.905  10.559
44305SOL    HW134754   5.616   1.843  10.631
44305SOL    HW234755   5.686   1.973  10.596
44306SOL     OW34756  10.089  10.328   5.280
44306SOL    HW134757  10.167  10.382   5.275
44306SOL    HW234758  10.021  10.387   5.313
44307SOL     OW34759   6.713   2.062   6.632
44307SOL    HW134760   6.630   2.034   6.594
44307SOL    HW234761   6.726   2.151   6.599
44308SOL     OW34762   9.280   2.074   4.378
44308SOL    HW134763   9.189   2.105   4.380
44308SOL    HW234764   9.323   2.124   4.447
44309SOL     OW34765   0.825   4.732  11.292
44309SOL    HW134766   0.822   4.771  11.205
44309SOL    HW234767   0.855   4.802  11.350
44310SOL     OW34768   4.354  13.774   6.881
44310SOL    HW134769   4.268  13.812   6.865
44310SOL    HW234770   4.405  13.846   6.919
44311SOL     OW34771  12.439   6.599   9.360
44311SOL    HW134772  12.478   6.684   9.377
44311SOL    HW234773  12.384   6.582   9.436
44312SOL     OW34774  11.681   6.334  14.853
44312SOL    HW134775  11.723   6.420  14.857
44312SOL    HW234776  11.658   6.314   0.062
44313SOL     OW34777   3.466  12.598   6.806
44313SOL    HW134778   3.459  12.677   6.753
44313SOL    HW234779   3.424  12.530   6.753
44314SOL     OW34780   8.423   9.505   9.756
44314SOL    HW134781   8.368   9.428   9.764
44314SOL    HW234782   8.363   9.574   9.727
44315SOL     OW34783  12.000  13.558   6.970
44315SOL    HW134784  11.992  13.497   7.043
44315SOL    HW234785  11.916  13.554   6.925
44316SOL     OW34786   7.619   9.703  12.937
44316SOL    HW134787   7.527   9.725  12.949
44316SOL    HW234788   7.624   9.664  12.849
44317SOL     OW34789   2.610   2.783  14.010
44317SOL    HW134790   2.700   2.783  13.978
44317SOL    HW234791   2.614   2.740  14.095
44318SOL     OW34792  13.475   3.865   1.620
44318SOL    HW134793  13.405   3.898   1.564
44318SOL    HW234794  13.434   3.857   1.707
44319SOL     OW34795   9.365   1.128   9.816
44319SOL    HW134796   9.366   1.139   9.721
44319SOL    HW234797   9.430   1.190   9.848
44320SOL     OW34798   0.110   6.185   3.383
44320SOL    HW134799   0.085   6.190   3.291
44320SOL    HW234800   0.148   6.270   3.403
44321SOL     OW34801   5.139   7.891  11.180
44321SOL    HW134802   5.157   7.809  11.134
44321SOL    HW234803   5.045   7.887  11.201
44322SOL     OW34804  10.845  10.616  14.015
44322SOL    HW134805  10.857  10.561  13.938
44322SOL    HW234806  10.878  10.702  13.990
44323SOL     OW34807  12.022   7.458  14.319
44323SOL    HW134808  12.002   7.505  14.238
44323SOL    HW234809  11.964   7.497  14.384
44324SOL     OW34810   2.274   5.499   4.796
44324SOL    HW134811   2.266   5.413   4.837
44324SOL    HW234812   2.364   5.526   4.814
44325SOL     OW34813   9.584   5.843   6.829
44325SOL    HW134814   9.636   5.905   6.778
44325SOL    HW234815   9.566   5.888   6.911
44326SOL     OW34816   1.219   1.475   1.124
44326SOL    HW134817   1.299   1.432   1.093
44326SOL    HW234818   1.250   1.538   1.190
44327SOL     OW34819  10.534   6.816   8.924
44327SOL    HW134820  10.621   6.842   8.892
44327SOL    HW234821  10.551   6.773   9.008
44328SOL     OW34822  12.684   8.602   9.845
44328SOL    HW134823  12.597   8.584   9.808
44328SOL    HW234824  12.738   8.620   9.768
44329SOL     OW34825  13.652  13.398  12.495
44329SOL    HW134826  13.668  13.342  12.419
44329SOL    HW234827  13.738  13.436  12.514
44330SOL     OW34828  13.712   7.052   5.143
44330SOL    HW134829  13.706   6.960   5.116
44330SOL    HW234830  13.804   7.075   5.130
44331SOL     OW34831   9.733   7.194   5.236
44331SOL    HW134832   9.732   7.099   5.243
44331SOL    HW234833   9.645   7.221   5.262
44332SOL     OW34834  14.765   7.816   9.361
44332SOL    HW134835  14.748   7.908   9.341
44332SOL    HW234836  14.736   7.805   9.452
44333SOL     OW34837  11.823  14.599   7.787
44333SOL    HW134838  11.737  14.604   7.829
44333SOL    HW234839  11.871  14.675   7.821
44334SOL     OW34840   8.655   7.657   7.162
44334SOL    HW134841   8.639   7.733   7.217
44334SOL    HW234842   8.594   7.667   7.089
44335SOL     OW34843   6.203   4.107  13.826
44335SOL    HW134844   6.150   4.086  13.749
44335SOL    HW234845   6.193   4.201  13.837
44336SOL     OW34846   4.709   8.270  11.362
44336SOL    HW134847   4.731   8.363  11.364
44336SOL    HW234848   4.687   8.253  11.270
44337SOL     OW34849   0.688   0.887   0.230
44337SOL    HW134850   0.761   0.840   0.269
44337SOL    HW234851   0.642   0.823   0.177
44338SOL     OW34852   4.570   4.917   5.381
44338SOL    HW134853   4.484   4.958   5.368
44338SOL    HW234854   4.565   4.834   5.334
44339SOL     OW34855   3.445   6.446   3.702
44339SOL    HW134856   3.477   6.483   3.620
44339SOL    HW234857   3.438   6.352   3.685
44340SOL     OW34858   7.585   0.276  13.684
44340SOL    HW134859   7.574   0.206  13.620
44340SOL    HW234860   7.497   0.312  13.695
44341SOL     OW34861   3.066   4.795  11.233
44341SOL    HW134862   2.991   4.854  11.244
44341SOL    HW234863   3.105   4.821  11.150
44342SOL     OW34864   6.974  12.426   4.684
44342SOL    HW134865   6.999  12.450   4.595
44342SOL    HW234866   6.959  12.509   4.728
44343SOL     OW34867   2.065   4.499   6.760
44343SOL    HW134868   2.005   4.474   6.690
44343SOL    HW234869   2.152   4.499   6.719
44344SOL     OW34870   5.622   3.774   9.286
44344SOL    HW134871   5.545   3.761   9.231
44344SOL    HW234872   5.588   3.782   9.375
44345SOL     OW34873   2.880   6.289   3.373
44345SOL    HW134874   2.961   6.340   3.374
44345SOL    HW234875   2.816   6.345   3.329
44346SOL     OW34876   1.712   5.472  11.639
44346SOL    HW134877   1.758   5.438  11.716
44346SOL    HW234878   1.700   5.565  11.657
44347SOL     OW34879   2.467   2.390  10.290
44347SOL    HW134880   2.378   2.389  10.326
44347SOL    HW234881   2.479   2.302  10.254
44348SOL     OW34882  14.797  14.834  10.209
44348SOL    HW134883  14.823  14.777  10.136
44348SOL    HW234884  14.861  14.817  10.278
44349SOL     OW34885   1.259  13.674   0.136
44349SOL    HW134886   1.259  13.692   0.230
44349SOL    HW234887   1.170  13.646   0.117
44350SOL     OW34888  13.208  13.381   8.603
44350SOL    HW134889  13.262  13.302   8.597
44350SOL    HW234890  13.157  13.381   8.522
44351SOL     OW34891   9.057  13.943   5.312
44351SOL    HW134892   9.069  13.894   5.231
44351SOL    HW234893   9.029  14.030   5.283
44352SOL     OW34894  11.892   1.357   4.473
44352SOL    HW134895  11.889   1.282   4.415
44352SOL    HW234896  11.970   1.342   4.527
44353SOL     OW34897   0.846   6.525   7.739
44353SOL    HW134898   0.886   6.473   7.669
44353SOL    HW234899   0.826   6.609   7.698
44354SOL     OW34900   1.688   3.151  13.821
44354SOL    HW134901   1.722   3.224  13.768
44354SOL    HW234902   1.629   3.193  13.883
44355SOL     OW34903   8.531  14.671   3.382
44355SOL    HW134904   8.598  14.709   3.325
44355SOL    HW234905   8.455  14.660   3.325
44356SOL     OW34906   9.600   3.825   8.819
44356SOL    HW134907   9.689   3.858   8.805
44356SOL    HW234908   9.611   3.733   8.841
44357SOL     OW34909   0.808  10.945   6.035
44357SOL    HW134910   0.826  10.955   5.941
44357SOL    HW234911   0.761  11.025   6.058
44358SOL     OW34912   9.132  14.345   1.506
44358SOL    HW134913   9.191  14.360   1.432
44358SOL    HW234914   9.068  14.282   1.473
44359SOL     OW34915  13.964   5.712  10.559
44359SOL    HW134916  13.927   5.771  10.493
44359SOL    HW234917  13.986   5.632  10.511
44360SOL     OW34918   8.677   1.444  11.306
44360SOL    HW134919   8.755   1.473  11.259
44360SOL    HW234920   8.680   1.348  11.301
44361SOL     OW34921  10.955   0.031   4.312
44361SOL    HW134922  10.948   0.078   4.230
44361SOL    HW234923  11.020   0.080   4.363
44362SOL     OW34924   6.192   3.234   3.654
44362SOL    HW134925   6.276   3.215   3.611
44362SOL    HW234926   6.217   3.263   3.742
44363SOL     OW34927   2.553   3.673   7.189
44363SOL    HW134928   2.583   3.757   7.156
44363SOL    HW234929   2.622   3.611   7.167
44364SOL     OW34930   1.721   6.540  10.716
44364SOL    HW134931   1.705   6.582  10.631
44364SOL    HW234932   1.749   6.451  10.693
44365SOL     OW34933  13.609  14.180  11.031
44365SOL    HW134934  13.691  14.224  11.053
44365SOL    HW234935  13.619  14.091  11.065
44366SOL     OW34936  11.738   6.300   3.779
44366SOL    HW134937  11.728   6.346   3.862
44366SOL    HW234938  11.764   6.211   3.803
44367SOL     OW34939   8.902   2.473  10.376
44367SOL    HW134940   8.922   2.388  10.337
44367SOL    HW234941   8.984   2.501  10.416
44368SOL     OW34942   4.262  14.497   9.412
44368SOL    HW134943   4.171  14.520   9.393
44368SOL    HW234944   4.290  14.561   9.477
44369SOL     OW34945   2.584   4.228   8.059
44369SOL    HW134946   2.502   4.277   8.061
44369SOL    HW234947   2.602   4.216   7.965
44370SOL     OW34948   7.369   3.901   1.186
44370SOL    HW134949   7.350   3.889   1.279
44370SOL    HW234950   7.332   3.824   1.143
44371SOL     OW34951   1.466   2.031  14.865
44371SOL    HW134952   1.536   2.027  14.799
44371SOL    HW234953   1.490   1.963   0.046
44372SOL     OW34954  11.962  12.988  14.726
44372SOL    HW134955  11.889  12.963  14.783
44372SOL    HW234956  11.932  12.965  14.638
44373SOL     OW34957   4.748   0.812  12.827
44373SOL    HW134958   4.750   0.751  12.900
44373SOL    HW234959   4.835   0.805  12.788
44374SOL     OW34960  12.842   8.123   9.515
44374SOL    HW134961  12.844   8.097   9.423
44374SOL    HW234962  12.899   8.061   9.559
44375SOL     OW34963   3.731  11.009  14.103
44375SOL    HW134964   3.687  10.962  14.033
44375SOL    HW234965   3.665  11.019  14.172
44376SOL     OW34966  12.321   8.199   0.828
44376SOL    HW134967  12.276   8.260   0.886
44376SOL    HW234968  12.400   8.174   0.875
44377SOL     OW34969  13.686   4.115   7.098
44377SOL    HW134970  13.770   4.160   7.099
44377SOL    HW234971  13.688   4.057   7.174
44378SOL     OW34972   2.197   0.143  11.224
44378SOL    HW134973   2.194   0.161  11.318
44378SOL    HW234974   2.264   0.075  11.214
44379SOL     OW34975   5.695   6.075  12.599
44379SOL    HW134976   5.754   6.149  12.613
44379SOL    HW234977   5.722   6.010  12.664
44380SOL     OW34978   1.114   7.620  13.430
44380SOL    HW134979   1.201   7.615  13.471
44380SOL    HW234980   1.057   7.652  13.500
44381SOL     OW34981  13.705   9.494  13.449
44381SOL    HW134982  13.721   9.459  13.537
44381SOL    HW234983  13.640   9.563  13.463
44382SOL     OW34984  12.662   2.579  11.458
44382SOL    HW134985  12.755   2.604  11.459
44382SOL    HW234986  12.659   2.495  11.505
44383SOL     OW34987   9.214  12.493   8.009
44383SOL    HW134988   9.208  12.581   8.046
44383SOL    HW234989   9.141  12.489   7.946
44384SOL     OW34990   5.063  10.628   3.976
44384SOL    HW134991   5.122  10.669   3.913
44384SOL    HW234992   5.029  10.700   4.028
44385SOL     OW34993   6.008   9.876   3.878
44385SOL    HW134994   6.080   9.813   3.881
44385SOL    HW234995   5.945   9.843   3.942
44386SOL     OW34996   8.907   4.602   0.014
44386SOL    HW134997   8.955   4.563  14.823
44386SOL    HW234998   8.895   4.693  14.871
44387SOL     OW34999   8.492   1.309   4.208
44387SOL    HW135000   8.425   1.297   4.274
44387SOL    HW235001   8.563   1.355   4.253
44388SOL     OW35002   9.266   4.085   2.485
44388SOL    HW135003   9.223   4.024   2.425
44388SOL    HW235004   9.308   4.150   2.429
44389SOL     OW35005   4.769   4.225   8.721
44389SOL    HW135006   4.736   4.295   8.665
44389SOL    HW235007   4.814   4.270   8.792
44390SOL     OW35008   1.648   2.726  14.857
44390SOL    HW135009   1.577   2.695   0.033
44390SOL    HW235010   1.728   2.710   0.025
44391SOL     OW35011  11.608  13.339   0.769
44391SOL    HW135012  11.596  13.368   0.678
44391SOL    HW235013  11.534  13.376   0.816
44392SOL     OW35014   7.415   7.199   3.626
44392SOL    HW135015   7.352   7.148   3.576
44392SOL    HW235016   7.367   7.278   3.653
44393SOL     OW35017   5.022   0.983   5.066
44393SOL    HW135018   5.010   0.903   5.016
44393SOL    HW235019   4.933   1.008   5.093
44394SOL     OW35020   4.446   7.554  11.502
44394SOL    HW135021   4.474   7.564  11.411
44394SOL    HW235022   4.396   7.471  11.503
44395SOL     OW35023   3.914   0.933   4.524
44395SOL    HW135024   3.840   0.991   4.505
44395SOL    HW235025   3.986   0.969   4.472
44396SOL     OW35026   4.980  11.735   5.401
44396SOL    HW135027   4.953  11.763   5.314
44396SOL    HW235028   4.979  11.814   5.454
44397SOL     OW35029  12.013   9.868  13.530
44397SOL    HW135030  11.996   9.948  13.579
44397SOL    HW235031  11.946   9.867  13.461
44398SOL     OW35032   6.379   1.498   1.208
44398SOL    HW135033   6.387   1.579   1.259
44398SOL    HW235034   6.402   1.429   1.270
44399SOL     OW35035  10.208   1.123  14.048
44399SOL    HW135036  10.167   1.047  14.007
44399SOL    HW235037  10.148   1.196  14.029
44400SOL     OW35038   1.434   6.775   0.033
44400SOL    HW135039   1.519   6.803  14.882
44400SOL    HW235040   1.424   6.685   0.002
44401SOL     OW35041  10.740   2.975  13.155
44401SOL    HW135042  10.774   3.050  13.203
44401SOL    HW235043  10.646   2.980  13.166
44402SOL     OW35044   7.540   9.640   2.700
44402SOL    HW135045   7.631   9.612   2.684
44402SOL    HW235046   7.537   9.657   2.794
44403SOL     OW35047   8.136   3.470  14.142
44403SOL    HW135048   8.115   3.559  14.170
44403SOL    HW235049   8.089   3.459  14.060
44404SOL     OW35050   0.280   7.852  14.434
44404SOL    HW135051   0.249   7.793  14.503
44404SOL    HW235052   0.375   7.855  14.446
44405SOL     OW35053   2.929  11.228  12.843
44405SOL    HW135054   2.997  11.236  12.911
44405SOL    HW235055   2.977  11.235  12.761
44406SOL     OW35056   3.464  11.795  12.270
44406SOL    HW135057   3.417  11.864  12.316
44406SOL    HW235058   3.396  11.742  12.228
44407SOL     OW35059   9.183   6.246   6.023
44407SOL    HW135060   9.110   6.291   5.979
44407SOL    HW235061   9.170   6.153   6.002
44408SOL     OW35062   9.218   6.624  12.357
44408SOL    HW135063   9.162   6.631  12.434
44408SOL    HW235064   9.281   6.695  12.366
44409SOL     OW35065  11.375   8.834  14.140
44409SOL    HW135066  11.378   8.890  14.063
44409SOL    HW235067  11.301   8.867  14.192
44410SOL     OW35068  10.322  14.387  14.286
44410SOL    HW135069  10.321  14.297  14.319
44410SOL    HW235070  10.250  14.391  14.223
44411SOL     OW35071   6.205   6.112  10.946
44411SOL    HW135072   6.199   6.024  10.908
44411SOL    HW235073   6.149   6.166  10.890
44412SOL     OW35074   8.465  10.182   2.886
44412SOL    HW135075   8.459  10.203   2.979
44412SOL    HW235076   8.419  10.099   2.877
44413SOL     OW35077   9.404   7.905   5.504
44413SOL    HW135078   9.495   7.879   5.491
44413SOL    HW235079   9.357   7.861   5.433
44414SOL     OW35080  14.568   2.224   9.516
44414SOL    HW135081  14.554   2.137   9.480
44414SOL    HW235082  14.491   2.240   9.571
44415SOL     OW35083   2.706   4.508  13.895
44415SOL    HW135084   2.630   4.475  13.846
44415SOL    HW235085   2.672   4.584  13.943
44416SOL     OW35086  12.893  13.233   6.056
44416SOL    HW135087  12.900  13.162   5.991
44416SOL    HW235088  12.805  13.223   6.092
44417SOL     OW35089  11.460   4.352   3.679
44417SOL    HW135090  11.510   4.357   3.761
44417SOL    HW235091  11.395   4.283   3.695
44418SOL     OW35092  12.954   9.602   9.230
44418SOL    HW135093  13.010   9.672   9.197
44418SOL    HW235094  13.009   9.524   9.231
44419SOL     OW35095   5.723  10.479   3.955
44419SOL    HW135096   5.633  10.510   3.959
44419SOL    HW235097   5.773  10.554   3.922
44420SOL     OW35098   8.090   8.339   1.696
44420SOL    HW135099   8.130   8.379   1.619
44420SOL    HW235100   8.004   8.309   1.666
44421SOL     OW35101   4.949   5.464   5.995
44421SOL    HW135102   4.918   5.524   6.062
44421SOL    HW235103   4.964   5.381   6.041
44422SOL     OW35104  11.142   9.703   7.533
44422SOL    HW135105  11.073   9.720   7.469
44422SOL    HW235106  11.177   9.618   7.508
44423SOL     OW35107   2.649  12.048  10.230
44423SOL    HW135108   2.657  12.144  10.227
44423SOL    HW235109   2.739  12.016  10.223
44424SOL     OW35110   3.647  14.725  12.829
44424SOL    HW135111   3.622  14.733  12.737
44424SOL    HW235112   3.587  14.784  12.875
44425SOL     OW35113   0.367   0.890   5.455
44425SOL    HW135114   0.382   0.882   5.549
44425SOL    HW235115   0.447   0.855   5.415
44426SOL     OW35116  14.780   3.532   8.606
44426SOL    HW135117  14.870   3.507   8.628
44426SOL    HW235118  14.789   3.609   8.550
44427SOL     OW35119  12.373  14.119   8.140
44427SOL    HW135120  12.422  14.092   8.218
44427SOL    HW235121  12.291  14.154   8.174
44428SOL     OW35122  10.495   9.086   1.455
44428SOL    HW135123  10.501   9.031   1.377
44428SOL    HW235124  10.407   9.124   1.450
44429SOL     OW35125   5.194  11.343  14.533
44429SOL    HW135126   5.271  11.287  14.546
44429SOL    HW235127   5.141  11.296  14.469
44430SOL     OW35128   4.289  13.586   5.954
44430SOL    HW135129   4.351  13.551   6.018
44430SOL    HW235130   4.344  13.634   5.891
44431SOL     OW35131  13.466  10.967  13.238
44431SOL    HW135132  13.447  11.060  13.229
44431SOL    HW235133  13.457  10.932  13.149
44432SOL     OW35134   2.487  13.919  10.822
44432SOL    HW135135   2.444  13.899  10.738
44432SOL    HW235136   2.497  13.833  10.864
44433SOL     OW35137  14.620   3.281   2.823
44433SOL    HW135138  14.542   3.330   2.798
44433SOL    HW235139  14.590   3.190   2.830
44434SOL     OW35140   0.473   1.948   6.213
44434SOL    HW135141   0.550   1.972   6.162
44434SOL    HW235142   0.427   2.031   6.228
44435SOL     OW35143   3.115   5.116   2.361
44435SOL    HW135144   3.050   5.153   2.422
44435SOL    HW235145   3.080   5.136   2.274
44436SOL     OW35146   3.673   1.508  13.104
44436SOL    HW135147   3.742   1.441  13.106
44436SOL    HW235148   3.591   1.458  13.104
44437SOL     OW35149   0.222  14.114   2.628
44437SOL    HW135150   0.280  14.070   2.565
44437SOL    HW235151   0.250  14.205   2.627
44438SOL     OW35152   9.880  12.498   2.124
44438SOL    HW135153   9.970  12.515   2.095
44438SOL    HW235154   9.839  12.585   2.124
44439SOL     OW35155  10.604   1.383   8.846
44439SOL    HW135156  10.512   1.381   8.819
44439SOL    HW235157  10.618   1.298   8.888
44440SOL     OW35158   7.420   7.907   4.110
44440SOL    HW135159   7.356   7.895   4.039
44440SOL    HW235160   7.371   7.954   4.178
44441SOL     OW35161   9.587  12.232  13.530
44441SOL    HW135162   9.557  12.147  13.562
44441SOL    HW235163   9.534  12.249  13.453
44442SOL     OW35164  13.543  13.101  13.965
44442SOL    HW135165  13.532  13.175  13.906
44442SOL    HW235166  13.560  13.141  14.051
44443SOL     OW35167   2.726   5.300   5.064
44443SOL    HW135168   2.677   5.218   5.069
44443SOL    HW235169   2.815   5.276   5.090
44444SOL     OW35170  13.630   3.313   7.293
44444SOL    HW135171  13.694   3.383   7.276
44444SOL    HW235172  13.575   3.348   7.363
44445SOL     OW35173   5.711   3.559   4.853
44445SOL    HW135174   5.763   3.639   4.854
44445SOL    HW235175   5.622   3.588   4.871
44446SOL     OW35176   5.422   7.864   0.871
44446SOL    HW135177   5.344   7.833   0.918
44446SOL    HW235178   5.389   7.927   0.808
44447SOL     OW35179   6.486   2.466   8.354
44447SOL    HW135180   6.540   2.486   8.278
44447SOL    HW235181   6.400   2.502   8.333
44448SOL     OW35182   6.207  10.484   3.371
44448SOL    HW135183   6.269  10.557   3.370
44448SOL    HW235184   6.202  10.459   3.464
44449SOL     OW35185   1.846  11.069   6.773
44449SOL    HW135186   1.914  11.047   6.709
44449SOL    HW235187   1.792  10.990   6.778
44450SOL     OW35188   0.711  14.089   3.478
44450SOL    HW135189   0.669  14.110   3.561
44450SOL    HW235190   0.793  14.139   3.479
44451SOL     OW35191   8.312   5.090   2.987
44451SOL    HW135192   8.326   5.183   2.969
44451SOL    HW235193   8.359   5.044   2.917
44452SOL     OW35194  14.309   8.562   9.840
44452SOL    HW135195  14.308   8.563   9.936
44452SOL    HW235196  14.379   8.501   9.817
44453SOL     OW35197   4.365  11.330   2.189
44453SOL    HW135198   4.345  11.249   2.142
44453SOL    HW235199   4.282  11.359   2.225
44454SOL     OW35200   8.512  12.934  12.701
44454SOL    HW135201   8.543  13.008  12.752
44454SOL    HW235202   8.420  12.923  12.728
44455SOL     OW35203   6.419   2.414   5.962
44455SOL    HW135204   6.383   2.402   6.050
44455SOL    HW235205   6.344   2.399   5.903
44456SOL     OW35206  11.811  12.019  11.111
44456SOL    HW135207  11.746  11.962  11.069
44456SOL    HW235208  11.759  12.089  11.151
44457SOL     OW35209   9.527  10.335   6.622
44457SOL    HW135210   9.621  10.317   6.616
44457SOL    HW235211   9.489  10.254   6.657
44458SOL     OW35212  13.364  10.012   4.924
44458SOL    HW135213  13.403   9.950   4.985
44458SOL    HW235214  13.292  10.051   4.973
44459SOL     OW35215   9.125   6.581   8.066
44459SOL    HW135216   9.194   6.543   8.121
44459SOL    HW235217   9.114   6.518   7.995
44460SOL     OW35218  14.381   6.937   7.112
44460SOL    HW135219  14.289   6.963   7.101
44460SOL    HW235220  14.423   7.011   7.155
44461SOL     OW35221   3.339   6.734   8.825
44461SOL    HW135222   3.403   6.736   8.755
44461SOL    HW235223   3.386   6.700   8.901
44462SOL     OW35224   2.085   3.134  13.285
44462SOL    HW135225   2.068   3.073  13.357
44462SOL    HW235226   2.110   3.216  13.329
44463SOL     OW35227   2.905   8.427   0.183
44463SOL    HW135228   2.851   8.369   0.237
44463SOL    HW235229   2.919   8.378   0.102
44464SOL     OW35230  13.245   0.285  14.818
44464SOL    HW135231  13.253   0.374  14.785
44464SOL    HW235232  13.164   0.252  14.779
44465SOL     OW35233   6.395   0.826  10.528
44465SOL    HW135234   6.312   0.783  10.504
44465SOL    HW235235   6.379   0.861  10.616
44466SOL     OW35236   4.023   2.386  14.410
44466SOL    HW135237   4.101   2.388  14.354
44466SOL    HW235238   3.972   2.462  14.383
44467SOL     OW35239   7.404   4.939   1.863
44467SOL    HW135240   7.320   4.980   1.883
44467SOL    HW235241   7.448   4.932   1.948
44468SOL     OW35242  12.413   5.071   2.724
44468SOL    HW135243  12.364   4.993   2.698
44468SOL    HW235244  12.449   5.105   2.642
44469SOL     OW35245   5.223  14.394   6.114
44469SOL    HW135246   5.315  14.403   6.090
44469SOL    HW235247   5.190  14.484   6.118
44470SOL     OW35248   4.583  13.385   0.809
44470SOL    HW135249   4.626  13.463   0.844
44470SOL    HW235250   4.507  13.372   0.866
44471SOL     OW35251   2.640  13.305   0.640
44471SOL    HW135252   2.731  13.298   0.669
44471SOL    HW235253   2.593  13.241   0.692
44472SOL     OW35254  11.218   3.210   1.752
44472SOL    HW135255  11.167   3.254   1.684
44472SOL    HW235256  11.304   3.251   1.749
44473SOL     OW35257  12.805   6.834  13.536
44473SOL    HW135258  12.895   6.805  13.547
44473SOL    HW235259  12.771   6.840  13.625
44474SOL     OW35260   8.338   3.140  11.660
44474SOL    HW135261   8.400   3.102  11.722
44474SOL    HW235262   8.252   3.117  11.695
44475SOL     OW35263   5.438   4.339  10.258
44475SOL    HW135264   5.362   4.284  10.279
44475SOL    HW235265   5.454   4.323  10.165
44476SOL     OW35266   8.431   9.390   0.033
44476SOL    HW135267   8.369   9.346  14.857
44476SOL    HW235268   8.432   9.337   0.113
44477SOL     OW35269   7.056   3.527   4.523
44477SOL    HW135270   7.152   3.522   4.518
44477SOL    HW235271   7.030   3.449   4.572
44478SOL     OW35272  13.761   3.341   4.579
44478SOL    HW135273  13.726   3.367   4.494
44478SOL    HW235274  13.690   3.289   4.619
44479SOL     OW35275  14.300   5.743   6.404
44479SOL    HW135276  14.286   5.834   6.432
44479SOL    HW235277  14.311   5.694   6.485
44480SOL     OW35278   9.245   8.439  12.081
44480SOL    HW135279   9.271   8.347  12.074
44480SOL    HW235280   9.221   8.450  12.173
44481SOL     OW35281  12.598   4.367   6.340
44481SOL    HW135282  12.655   4.382   6.416
44481SOL    HW235283  12.658   4.348   6.268
44482SOL     OW35284   4.391  13.226   5.001
44482SOL    HW135285   4.458  13.159   5.005
44482SOL    HW235286   4.436  13.304   4.969
44483SOL     OW35287  10.983  11.700   4.179
44483SOL    HW135288  10.957  11.628   4.236
44483SOL    HW235289  10.902  11.749   4.165
44484SOL     OW35290  12.770   3.479   4.345
44484SOL    HW135291  12.678   3.463   4.325
44484SOL    HW235292  12.777   3.469   4.440
44485SOL     OW35293   1.067   2.852   5.347
44485SOL    HW135294   1.160   2.877   5.343
44485SOL    HW235295   1.034   2.893   5.426
44486SOL     OW35296  10.035  14.610   7.492
44486SOL    HW135297   9.944  14.580   7.489
44486SOL    HW235298  10.047  14.643   7.581
44487SOL     OW35299  11.764   0.944   0.871
44487SOL    HW135300  11.797   0.961   0.783
44487SOL    HW235301  11.838   0.904   0.917
44488SOL     OW35302  13.717   4.220   2.043
44488SOL    HW135303  13.657   4.194   1.973
44488SOL    HW235304  13.706   4.315   2.049
44489SOL     OW35305  11.800   1.139   4.768
44489SOL    HW135306  11.807   1.204   4.838
44489SOL    HW235307  11.737   1.176   4.707
44490SOL     OW35308   8.906   7.111   9.977
44490SOL    HW135309   8.843   7.041   9.995
44490SOL    HW235310   8.892   7.174  10.047
44491SOL     OW35311   4.534   4.045   3.255
44491SOL    HW135312   4.447   4.029   3.291
44491SOL    HW235313   4.521   4.047   3.160
44492SOL     OW35314   8.438   7.489   5.348
44492SOL    HW135315   8.457   7.429   5.420
44492SOL    HW235316   8.514   7.547   5.344
44493SOL     OW35317   5.224   4.390   4.780
44493SOL    HW135318   5.220   4.481   4.750
44493SOL    HW235319   5.145   4.379   4.834
44494SOL     OW35320   5.268   4.726  12.371
44494SOL    HW135321   5.338   4.746  12.433
44494SOL    HW235322   5.304   4.748  12.285
44495SOL     OW35323   5.643  10.949  11.963
44495SOL    HW135324   5.692  10.867  11.975
44495SOL    HW235325   5.551  10.922  11.967
44496SOL     OW35326  12.045  11.819   5.431
44496SOL    HW135327  11.990  11.804   5.354
44496SOL    HW235328  12.049  11.914   5.439
44497SOL     OW35329   3.714   5.473  14.738
44497SOL    HW135330   3.788   5.532  14.718
44497SOL    HW235331   3.727   5.450  14.830
44498SOL     OW35332   8.409   4.782  14.611
44498SOL    HW135333   8.360   4.748  14.537
44498SOL    HW235334   8.479   4.717  14.625
44499SOL     OW35335   3.761   7.179   7.904
44499SOL    HW135336   3.684   7.135   7.939
44499SOL    HW235337   3.732   7.213   7.819
44500SOL     OW35338   1.757  14.309   9.636
44500SOL    HW135339   1.802  14.265   9.565
44500SOL    HW235340   1.759  14.402   9.612
44501SOL     OW35341   2.222   3.481   5.633
44501SOL    HW135342   2.199   3.410   5.573
44501SOL    HW235343   2.160   3.473   5.705
44502SOL     OW35344  10.638   7.339  11.044
44502SOL    HW135345  10.670   7.285  11.116
44502SOL    HW235346  10.694   7.417  11.046
44503SOL     OW35347   3.926  14.849  14.485
44503SOL    HW135348   3.990  14.832  14.417
44503SOL    HW235349   3.964  14.811  14.564
44504SOL     OW35350   9.766   4.118   4.638
44504SOL    HW135351   9.859   4.135   4.649
44504SOL    HW235352   9.723   4.175   4.702
44505SOL     OW35353   7.349  13.190  12.599
44505SOL    HW135354   7.282  13.187  12.530
44505SOL    HW235355   7.325  13.119  12.658
44506SOL     OW35356   1.100   0.046  10.356
44506SOL    HW135357   1.139  14.866  10.417
44506SOL    HW235358   1.039  14.876  10.304
44507SOL     OW35359   8.575  10.827   5.351
44507SOL    HW135360   8.638  10.892   5.320
44507SOL    HW235361   8.599  10.812   5.443
44508SOL     OW35362  13.817  13.619   4.226
44508SOL    HW135363  13.789  13.693   4.278
44508SOL    HW235364  13.913  13.622   4.230
44509SOL     OW35365   9.251   7.816   1.150
44509SOL    HW135366   9.337   7.857   1.166
44509SOL    HW235367   9.256   7.786   1.059
44510SOL     OW35368   1.158   3.522   3.973
44510SOL    HW135369   1.094   3.504   4.042
44510SOL    HW235370   1.239   3.484   4.005
44511SOL     OW35371   3.053   7.504   2.487
44511SOL    HW135372   3.101   7.586   2.491
44511SOL    HW235373   3.037   7.481   2.579
44512SOL     OW35374  10.536  12.528  10.807
44512SOL    HW135375  10.516  12.436  10.827
44512SOL    HW235376  10.627  12.527  10.779
44513SOL     OW35377  10.778  10.702  12.190
44513SOL    HW135378  10.844  10.695  12.121
44513SOL    HW235379  10.700  10.660  12.153
44514SOL     OW35380  11.116   4.685   4.286
44514SOL    HW135381  11.050   4.643   4.231
44514SOL    HW235382  11.187   4.706   4.226
44515SOL     OW35383  10.088  14.326   6.088
44515SOL    HW135384  10.155  14.293   6.148
44515SOL    HW235385  10.040  14.248   6.059
44516SOL     OW35386  12.145  13.087   5.140
44516SOL    HW135387  12.206  13.127   5.079
44516SOL    HW235388  12.092  13.028   5.086
44517SOL     OW35389  11.865  11.667   7.355
44517SOL    HW135390  11.950  11.629   7.333
44517SOL    HW235391  11.817  11.595   7.397
44518SOL     OW35392   7.694   0.739  13.001
44518SOL    HW135393   7.678   0.645  12.988
44518SOL    HW235394   7.658   0.758  13.088
44519SOL     OW35395   2.204   0.919   8.240
44519SOL    HW135396   2.192   1.010   8.211
44519SOL    HW235397   2.139   0.907   8.308
44520SOL     OW35398  13.550   3.799   0.242
44520SOL    HW135399  13.622   3.780   0.302
44520SOL    HW235400  13.474   3.755   0.281
44521SOL     OW35401  12.963  11.857  13.857
44521SOL    HW135402  12.959  11.765  13.827
44521SOL    HW235403  12.893  11.864  13.921
44522SOL     OW35404   6.578  11.744   9.579
44522SOL    HW135405   6.495  11.790   9.567
44522SOL    HW235406   6.602  11.764   9.670
44523SOL     OW35407  13.686  14.694   8.471
44523SOL    HW135408  13.759  14.750   8.497
44523SOL    HW235409  13.607  14.745   8.491
44524SOL     OW35410   0.452   9.242   9.963
44524SOL    HW135411   0.447   9.249  10.059
44524SOL    HW235412   0.461   9.148   9.947
44525SOL     OW35413   8.350   3.028   0.218
44525SOL    HW135414   8.262   2.989   0.222
44525SOL    HW235415   8.335   3.122   0.217
44526SOL     OW35416   1.925  11.218   0.690
44526SOL    HW135417   1.877  11.205   0.771
44526SOL    HW235418   1.954  11.309   0.693
44527SOL     OW35419   5.849  13.757   2.389
44527SOL    HW135420   5.860  13.815   2.313
44527SOL    HW235421   5.782  13.800   2.442
44528SOL     OW35422  10.941   4.181  12.288
44528SOL    HW135423  11.005   4.203  12.355
44528SOL    HW235424  10.857   4.207  12.325
44529SOL     OW35425   8.953  11.762   4.667
44529SOL    HW135426   8.868  11.739   4.630
44529SOL    HW235427   8.933  11.814   4.744
44530SOL     OW35428  12.700  12.421   3.011
44530SOL    HW135429  12.640  12.378   3.072
44530SOL    HW235430  12.684  12.515   3.024
44531SOL     OW35431   4.983   3.642   7.787
44531SOL    HW135432   4.974   3.547   7.796
44531SOL    HW235433   5.075   3.659   7.804
44532SOL     OW35434  13.133  12.319  13.520
44532SOL    HW135435  13.133  12.383  13.448
44532SOL    HW235436  13.133  12.373  13.599
44533SOL     OW35437   9.240   2.875   1.356
44533SOL    HW135438   9.191   2.954   1.379
44533SOL    HW235439   9.208   2.808   1.418
44534SOL     OW35440   6.108   3.029   0.658
44534SOL    HW135441   6.058   2.957   0.620
44534SOL    HW235442   6.054   3.059   0.732
44535SOL     OW35443  11.262   5.119  13.410
44535SOL    HW135444  11.183   5.078  13.374
44535SOL    HW235445  11.333   5.063  13.379
44536SOL     OW35446   0.648   9.172  10.432
44536SOL    HW135447   0.698   9.104  10.477
44536SOL    HW235448   0.641   9.243  10.495
44537SOL     OW35449   4.265   0.595  10.676
44537SOL    HW135450   4.325   0.565  10.745
44537SOL    HW235451   4.257   0.689  10.691
44538SOL     OW35452   4.326   6.332   0.802
44538SOL    HW135453   4.418   6.349   0.783
44538SOL    HW235454   4.289   6.418   0.821
44539SOL     OW35455   2.094  11.082  13.228
44539SOL    HW135456   2.073  10.997  13.268
44539SOL    HW235457   2.174  11.066  13.178
44540SOL     OW35458   0.554  13.982   7.938
44540SOL    HW135459   0.484  13.927   7.904
44540SOL    HW235460   0.536  13.991   8.031
44541SOL     OW35461   9.020   2.183   6.138
44541SOL    HW135462   8.952   2.232   6.092
44541SOL    HW235463   9.101   2.232   6.120
44542SOL     OW35464  10.540  14.297  13.690
44542SOL    HW135465  10.579  14.231  13.748
44542SOL    HW235466  10.528  14.373  13.746
44543SOL     OW35467  13.433  12.864   2.930
44543SOL    HW135468  13.433  12.927   3.002
44543SOL    HW235469  13.369  12.899   2.868
44544SOL     OW35470   0.968  13.857   0.737
44544SOL    HW135471   1.050  13.880   0.692
44544SOL    HW235472   0.933  13.782   0.688
44545SOL     OW35473   8.155   4.824   8.261
44545SOL    HW135474   8.225   4.889   8.247
44545SOL    HW235475   8.079   4.877   8.288
44546SOL     OW35476   3.084   7.694   3.447
44546SOL    HW135477   3.058   7.744   3.525
44546SOL    HW235478   3.179   7.707   3.441
44547SOL     OW35479  11.857  11.850   0.703
44547SOL    HW135480  11.803  11.903   0.762
44547SOL    HW235481  11.870  11.905   0.626
44548SOL     OW35482   5.722   7.089   6.221
44548SOL    HW135483   5.765   7.005   6.203
44548SOL    HW235484   5.683   7.077   6.308
44549SOL     OW35485   7.965   3.999   0.638
44549SOL    HW135486   8.046   4.050   0.636
44549SOL    HW235487   7.913   4.034   0.565
44550SOL     OW35488  14.870   4.152  14.205
44550SOL    HW135489  14.881   4.193  14.290
44550SOL    HW235490  14.775   4.151  14.191
44551SOL     OW35491   3.988   2.970   6.931
44551SOL    HW135492   4.083   2.975   6.936
44551SOL    HW235493   3.966   2.994   6.841
44552SOL     OW35494   5.578   6.743  12.341
44552SOL    HW135495   5.540   6.825  12.311
44552SOL    HW235496   5.569   6.746  12.437
44553SOL     OW35497   3.021   4.619  11.875
44553SOL    HW135498   2.942   4.591  11.829
44553SOL    HW235499   3.004   4.600  11.967
44554SOL     OW35500   3.045   7.916   7.338
44554SOL    HW135501   3.049   7.907   7.433
44554SOL    HW235502   3.103   7.989   7.318
44555SOL     OW35503   2.553   3.097   9.445
44555SOL    HW135504   2.459   3.112   9.455
44555SOL    HW235505   2.569   3.014   9.490
44556SOL     OW35506   8.446  14.298   0.751
44556SOL    HW135507   8.399  14.372   0.712
44556SOL    HW235508   8.399  14.280   0.833
44557SOL     OW35509   6.042   4.011  12.884
44557SOL    HW135510   6.017   3.965  12.804
44557SOL    HW235511   6.134   3.988  12.897
44558SOL     OW35512  11.543   7.963  11.600
44558SOL    HW135513  11.539   7.930  11.690
44558SOL    HW235514  11.468   7.922  11.556
44559SOL     OW35515   2.682   8.960   6.425
44559SOL    HW135516   2.724   8.991   6.506
44559SOL    HW235517   2.698   8.865   6.425
44560SOL     OW35518   7.392   8.410  11.698
44560SOL    HW135519   7.333   8.455  11.759
44560SOL    HW235520   7.338   8.391  11.622
44561SOL     OW35521   2.600   1.989   6.274
44561SOL    HW135522   2.623   2.070   6.230
44561SOL    HW235523   2.506   1.980   6.260
44562SOL     OW35524   0.528   3.347  11.826
44562SOL    HW135525   0.482   3.312  11.902
44562SOL    HW235526   0.512   3.283  11.756
44563SOL     OW35527  13.536   0.016  10.834
44563SOL    HW135528  13.493  14.830  10.886
44563SOL    HW235529  13.588  14.850  10.770
44564SOL     OW35530   3.560   8.252   6.411
44564SOL    HW135531   3.564   8.156   6.420
44564SOL    HW235532   3.624   8.272   6.343
44565SOL     OW35533   9.366  13.189   9.297
44565SOL    HW135534   9.412  13.105   9.291
44565SOL    HW235535   9.348  13.200   9.390
44566SOL     OW35536   0.866  14.499  13.852
44566SOL    HW135537   0.816  14.576  13.879
44566SOL    HW235538   0.806  14.450  13.795
44567SOL     OW35539   3.368   8.507   2.850
44567SOL    HW135540   3.338   8.535   2.936
44567SOL    HW235541   3.325   8.566   2.788
44568SOL     OW35542   0.175  11.526   4.204
44568SOL    HW135543   0.101  11.488   4.157
44568SOL    HW235544   0.209  11.593   4.144
44569SOL     OW35545  12.885   9.456  13.492
44569SOL    HW135546  12.970   9.416  13.473
44569SOL    HW235547  12.826   9.381  13.503
44570SOL     OW35548   4.118   3.497   8.432
44570SOL    HW135549   4.212   3.499   8.415
44570SOL    HW235550   4.102   3.571   8.491
44571SOL     OW35551   5.221  13.647  10.146
44571SOL    HW135552   5.162  13.589  10.099
44571SOL    HW235553   5.186  13.651  10.235
44572SOL     OW35554   5.234  10.925   6.080
44572SOL    HW135555   5.259  10.994   6.018
44572SOL    HW235556   5.313  10.908   6.131
44573SOL     OW35557   6.248   9.680   3.928
44573SOL    HW135558   6.319   9.715   3.981
44573SOL    HW235559   6.211   9.609   3.980
44574SOL     OW35560  11.525  11.045   7.523
44574SOL    HW135561  11.463  10.982   7.559
44574SOL    HW235562  11.495  11.058   7.432
44575SOL     OW35563   1.371   9.349   2.413
44575SOL    HW135564   1.431   9.348   2.487
44575SOL    HW235565   1.331   9.262   2.413
44576SOL     OW35566   4.597   2.822   1.480
44576SOL    HW135567   4.549   2.758   1.428
44576SOL    HW235568   4.530   2.884   1.510
44577SOL     OW35569  14.010  13.003   9.811
44577SOL    HW135570  13.934  13.018   9.755
44577SOL    HW235571  14.083  12.995   9.750
44578SOL     OW35572   3.270   6.087  11.758
44578SOL    HW135573   3.316   6.158  11.802
44578SOL    HW235574   3.181   6.120  11.746
44579SOL     OW35575   3.902  13.683   8.418
44579SOL    HW135576   3.826  13.740   8.427
44579SOL    HW235577   3.937  13.705   8.331
44580SOL     OW35578  13.458   1.423   4.424
44580SOL    HW135579  13.517   1.397   4.495
44580SOL    HW235580  13.391   1.354   4.422
44581SOL     OW35581   1.312   8.622  14.875
44581SOL    HW135582   1.262   8.575   0.060
44581SOL    HW235583   1.321   8.711   0.028
44582SOL     OW35584   4.410   3.298  12.834
44582SOL    HW135585   4.482   3.242  12.805
44582SOL    HW235586   4.382   3.344  12.755
44583SOL     OW35587   4.040  12.568   7.977
44583SOL    HW135588   3.991  12.510   8.036
44583SOL    HW235589   4.026  12.656   8.013
44584SOL     OW35590   7.405   3.321  11.489
44584SOL    HW135591   7.337   3.254  11.488
44584SOL    HW235592   7.464   3.297  11.417
44585SOL     OW35593   7.604   9.624   8.823
44585SOL    HW135594   7.624   9.599   8.733
44585SOL    HW235595   7.509   9.631   8.826
44586SOL     OW35596  11.839   0.985  14.370
44586SOL    HW135597  11.857   0.980  14.463
44586SOL    HW235598  11.780   0.912  14.352
44587SOL     OW35599   9.472   6.829   0.138
44587SOL    HW135600   9.474   6.802   0.046
44587SOL    HW235601   9.511   6.916   0.139
44588SOL     OW35602   2.401  12.563  13.157
44588SOL    HW135603   2.445  12.628  13.212
44588SOL    HW235604   2.376  12.612  13.078
44589SOL     OW35605   3.594  11.393   2.335
44589SOL    HW135606   3.537  11.464   2.363
44589SOL    HW235607   3.541  11.314   2.347
44590SOL     OW35608  12.981  14.764  13.337
44590SOL    HW135609  12.959  14.852  13.368
44590SOL    HW235610  13.076  14.759  13.347
44591SOL     OW35611   5.103   8.014   0.241
44591SOL    HW135612   5.101   8.020   0.145
44591SOL    HW235613   5.023   8.057   0.269
44592SOL     OW35614   6.019   0.710   8.941
44592SOL    HW135615   5.947   0.653   8.914
44592SOL    HW235616   5.977   0.791   8.969
44593SOL     OW35617   8.153   7.262  12.170
44593SOL    HW135618   8.174   7.226  12.084
44593SOL    HW235619   8.076   7.317  12.156
44594SOL     OW35620   5.505  10.752   5.497
44594SOL    HW135621   5.500  10.690   5.570
44594SOL    HW235622   5.420  10.795   5.496
44595SOL     OW35623   4.123  13.434   2.562
44595SOL    HW135624   4.110  13.364   2.498
44595SOL    HW235625   4.043  13.432   2.616
44596SOL     OW35626  13.717   7.629   4.870
44596SOL    HW135627  13.808   7.645   4.848
44596SOL    HW235628  13.715   7.632   4.966
44597SOL     OW35629  14.357   5.331   1.049
44597SOL    HW135630  14.450   5.310   1.037
44597SOL    HW235631  14.357   5.406   1.109
44598SOL     OW35632   1.796   0.289   9.120
44598SOL    HW135633   1.849   0.288   9.040
44598SOL    HW235634   1.753   0.374   9.119
44599SOL     OW35635   8.574  10.931   2.340
44599SOL    HW135636   8.577  10.933   2.436
44599SOL    HW235637   8.532  10.847   2.319
44600SOL     OW35638   9.266   5.907   5.260
44600SOL    HW135639   9.340   5.897   5.200
44600SOL    HW235640   9.201   5.844   5.229
44601SOL     OW35641   2.761  12.218   5.570
44601SOL    HW135642   2.719  12.134   5.549
44601SOL    HW235643   2.740  12.275   5.496
44602SOL     OW35644  13.953  11.902  13.708
44602SOL    HW135645  13.862  11.891  13.733
44602SOL    HW235646  13.949  11.937  13.619
44603SOL     OW35647   9.283   1.470   5.460
44603SOL    HW135648   9.342   1.395   5.454
44603SOL    HW235649   9.237   1.458   5.543
44604SOL     OW35650   6.768   9.990   5.673
44604SOL    HW135651   6.848   9.967   5.626
44604SOL    HW235652   6.742  10.075   5.636
44605SOL     OW35653  14.024   6.964   9.367
44605SOL    HW135654  13.956   6.946   9.302
44605SOL    HW235655  13.978   7.009   9.438
44606SOL     OW35656   7.912   5.239   2.276
44606SOL    HW135657   7.855   5.221   2.351
44606SOL    HW235658   7.937   5.152   2.245
44607SOL     OW35659   5.803   3.091   8.438
44607SOL    HW135660   5.812   3.183   8.460
44607SOL    HW235661   5.869   3.047   8.491
44608SOL     OW35662  12.709   5.754  10.387
44608SOL    HW135663  12.729   5.765  10.480
44608SOL    HW235664  12.670   5.837  10.361
44609SOL     OW35665   2.767   0.839  11.542
44609SOL    HW135666   2.837   0.871  11.600
44609SOL    HW235667   2.694   0.820  11.601
44610SOL     OW35668   4.976   3.211  13.968
44610SOL    HW135669   5.018   3.290  13.934
44610SOL    HW235670   5.045   3.145  13.966
44611SOL     OW35671   5.666   8.553  10.460
44611SOL    HW135672   5.677   8.648  10.449
44611SOL    HW235673   5.623   8.544  10.545
44612SOL     OW35674   0.793  13.887   1.575
44612SOL    HW135675   0.785  13.806   1.626
44612SOL    HW235676   0.714  13.936   1.597
44613SOL     OW35677   9.597   6.543  13.965
44613SOL    HW135678   9.554   6.552  14.050
44613SOL    HW235679   9.676   6.595  13.972
44614SOL     OW35680   3.968   3.038  13.996
44614SOL    HW135681   4.027   3.067  13.926
44614SOL    HW235682   3.888   3.089  13.981
44615SOL     OW35683   6.389   1.233   2.184
44615SOL    HW135684   6.299   1.255   2.160
44615SOL    HW235685   6.443   1.294   2.133
44616SOL     OW35686   5.043   1.572   3.930
44616SOL    HW135687   4.949   1.578   3.946
44616SOL    HW235688   5.077   1.525   4.007
44617SOL     OW35689   4.434   8.709  13.294
44617SOL    HW135690   4.369   8.738  13.359
44617SOL    HW235691   4.407   8.620  13.272
44618SOL     OW35692   1.109  14.054   7.051
44618SOL    HW135693   1.196  14.053   7.012
44618SOL    HW235694   1.062  13.984   7.007
44619SOL     OW35695   8.425   1.129   9.229
44619SOL    HW135696   8.386   1.197   9.175
44619SOL    HW235697   8.510   1.112   9.189
44620SOL     OW35698   9.688   5.057   8.037
44620SOL    HW135699   9.717   4.967   8.050
44620SOL    HW235700   9.593   5.053   8.040
44621SOL     OW35701   8.164   5.490   7.600
44621SOL    HW135702   8.222   5.548   7.649
44621SOL    HW235703   8.219   5.415   7.577
44622SOL     OW35704   0.363   1.791   2.547
44622SOL    HW135705   0.439   1.847   2.563
44622SOL    HW235706   0.352   1.791   2.452
44623SOL     OW35707   0.487   5.291   7.994
44623SOL    HW135708   0.501   5.204   8.030
44623SOL    HW235709   0.410   5.282   7.939
44624SOL     OW35710   7.019   2.552   6.714
44624SOL    HW135711   7.084   2.513   6.772
44624SOL    HW235712   7.034   2.511   6.629
44625SOL     OW35713   2.976  12.132   6.529
44625SOL    HW135714   2.950  12.174   6.611
44625SOL    HW235715   2.913  12.165   6.464
44626SOL     OW35716   7.768   4.862   2.629
44626SOL    HW135717   7.782   4.897   2.541
44626SOL    HW235718   7.798   4.931   2.688
44627SOL     OW35719   6.369  12.199   1.922
44627SOL    HW135720   6.389  12.270   1.983
44627SOL    HW235721   6.437  12.207   1.854
44628SOL     OW35722   2.001  12.871   2.999
44628SOL    HW135723   1.943  12.895   2.927
44628SOL    HW235724   2.011  12.776   2.991
44629SOL     OW35725  10.150   5.008  13.986
44629SOL    HW135726  10.057   5.027  13.973
44629SOL    HW235727  10.152   4.916  14.015
44630SOL     OW35728   3.244   6.184   1.216
44630SOL    HW135729   3.266   6.206   1.125
44630SOL    HW235730   3.149   6.197   1.221
44631SOL     OW35731  10.120   6.974  13.529
44631SOL    HW135732  10.208   6.958  13.562
44631SOL    HW235733  10.094   6.891  13.489
44632SOL     OW35734   6.857   6.246   8.723
44632SOL    HW135735   6.862   6.213   8.812
44632SOL    HW235736   6.870   6.169   8.668
44633SOL     OW35737   8.014  14.095   5.173
44633SOL    HW135738   8.061  14.175   5.197
44633SOL    HW235739   7.971  14.116   5.090
44634SOL     OW35740   3.845   5.796  13.468
44634SOL    HW135741   3.900   5.775  13.543
44634SOL    HW235742   3.783   5.723  13.463
44635SOL     OW35743   8.751   8.802   4.390
44635SOL    HW135744   8.734   8.801   4.296
44635SOL    HW235745   8.727   8.714   4.420
44636SOL     OW35746   2.263   5.126   0.161
44636SOL    HW135747   2.350   5.090   0.178
44636SOL    HW235748   2.211   5.100   0.237
44637SOL     OW35749   4.896  11.525   6.442
44637SOL    HW135750   4.831  11.562   6.382
44637SOL    HW235751   4.952  11.599   6.466
44638SOL     OW35752   3.703   4.714   8.332
44638SOL    HW135753   3.701   4.633   8.384
44638SOL    HW235754   3.714   4.783   8.397
44639SOL     OW35755   0.038   6.278  13.513
44639SOL    HW135756   0.040   6.183  13.527
44639SOL    HW235757   0.094   6.293  13.437
44640SOL     OW35758   0.042   4.647   8.117
44640SOL    HW135759   0.006   4.725   8.160
44640SOL    HW235760   0.134   4.645   8.144
44641SOL     OW35761  10.004  11.263   3.853
44641SOL    HW135762  10.078  11.204   3.837
44641SOL    HW235763  10.040  11.333   3.907
44642SOL     OW35764   1.567  14.057   0.470
44642SOL    HW135765   1.601  14.125   0.413
44642SOL    HW235766   1.638  13.993   0.476
44643SOL     OW35767   3.189  11.268   6.569
44643SOL    HW135768   3.131  11.194   6.588
44643SOL    HW235769   3.270  11.228   6.537
44644SOL     OW35770  12.058   7.858   9.004
44644SOL    HW135771  12.052   7.879   9.097
44644SOL    HW235772  12.024   7.936   8.959
44645SOL     OW35773   8.961   1.031   4.671
44645SOL    HW135774   9.006   1.037   4.587
44645SOL    HW235775   8.868   1.030   4.649
44646SOL     OW35776   3.606  10.332   4.086
44646SOL    HW135777   3.554  10.383   4.148
44646SOL    HW235778   3.641  10.260   4.137
44647SOL     OW35779   2.942  10.443  12.207
44647SOL    HW135780   2.891  10.366  12.180
44647SOL    HW235781   2.990  10.469  12.128
44648SOL     OW35782   1.960  14.647  11.668
44648SOL    HW135783   1.899  14.718  11.685
44648SOL    HW235784   1.998  14.667  11.583
44649SOL     OW35785  12.390   3.594   8.181
44649SOL    HW135786  12.411   3.667   8.240
44649SOL    HW235787  12.332   3.538   8.233
44650SOL     OW35788   4.660  12.035   9.613
44650SOL    HW135789   4.753  12.056   9.602
44650SOL    HW235790   4.660  11.945   9.647
44651SOL     OW35791   3.730  13.379  11.679
44651SOL    HW135792   3.773  13.308  11.633
44651SOL    HW235793   3.686  13.429  11.611
44652SOL     OW35794   7.360   9.954   1.764
44652SOL    HW135795   7.417   9.904   1.706
44652SOL    HW235796   7.397  10.042   1.765
44653SOL     OW35797   6.252   8.797   3.834
44653SOL    HW135798   6.242   8.872   3.892
44653SOL    HW235799   6.163   8.769   3.814
44654SOL     OW35800   1.796   9.964  13.044
44654SOL    HW135801   1.875   9.978  13.098
44654SOL    HW235802   1.825   9.981  12.955
44655SOL     OW35803  13.284   0.491   9.813
44655SOL    HW135804  13.357   0.544   9.843
44655SOL    HW235805  13.297   0.483   9.718
44656SOL     OW35806  12.094  10.478   1.896
44656SOL    HW135807  12.111  10.564   1.933
44656SOL    HW235808  11.999  10.467   1.903
44657SOL     OW35809   1.480   9.326   8.917
44657SOL    HW135810   1.456   9.244   8.960
44657SOL    HW235811   1.526   9.298   8.837
44658SOL     OW35812  10.914   0.790   7.046
44658SOL    HW135813  10.842   0.741   7.006
44658SOL    HW235814  10.991   0.766   6.993
44659SOL     OW35815  13.372   1.784   2.669
44659SOL    HW135816  13.428   1.733   2.612
44659SOL    HW235817  13.390   1.751   2.757
44660SOL     OW35818   2.059  12.069   4.056
44660SOL    HW135819   2.095  12.150   4.020
44660SOL    HW235820   2.078  12.074   4.150
44661SOL     OW35821   0.529   6.015  11.679
44661SOL    HW135822   0.491   6.060  11.755
44661SOL    HW235823   0.623   6.015  11.696
44662SOL     OW35824   2.858   1.380  11.028
44662SOL    HW135825   2.806   1.446  11.075
44662SOL    HW235826   2.865   1.307  11.090
44663SOL     OW35827   0.678   8.250  10.606
44663SOL    HW135828   0.589   8.215  10.605
44663SOL    HW235829   0.696   8.267  10.699
44664SOL     OW35830   4.694   8.946   0.128
44664SOL    HW135831   4.681   8.858   0.095
44664SOL    HW235832   4.788   8.962   0.116
44665SOL     OW35833   5.465  11.899   9.813
44665SOL    HW135834   5.382  11.928   9.775
44665SOL    HW235835   5.528  11.907   9.741
44666SOL     OW35836   1.887   7.163  10.822
44666SOL    HW135837   1.950   7.140  10.754
44666SOL    HW235838   1.892   7.090  10.885
44667SOL     OW35839   5.839   0.978  14.631
44667SOL    HW135840   5.829   0.917  14.705
44667SOL    HW235841   5.885   0.926  14.564
44668SOL     OW35842   9.408   1.569   3.749
44668SOL    HW135843   9.397   1.501   3.683
44668SOL    HW235844   9.398   1.652   3.701
44669SOL     OW35845  11.248   2.590  12.032
44669SOL    HW135846  11.163   2.631  12.048
44669SOL    HW235847  11.308   2.664  12.021
44670SOL     OW35848  12.607  12.644   0.492
44670SOL    HW135849  12.598  12.551   0.473
44670SOL    HW235850  12.518  12.679   0.483
44671SOL     OW35851   8.362   3.652  12.151
44671SOL    HW135852   8.309   3.610  12.219
44671SOL    HW235853   8.331   3.743  12.149
44672SOL     OW35854   9.874  12.895   5.086
44672SOL    HW135855   9.779  12.892   5.072
44672SOL    HW235856   9.911  12.864   5.004
44673SOL     OW35857   6.309   7.509   9.675
44673SOL    HW135858   6.348   7.596   9.670
44673SOL    HW235859   6.379   7.452   9.707
44674SOL     OW35860   1.100   1.543   2.231
44674SOL    HW135861   1.191   1.521   2.211
44674SOL    HW235862   1.065   1.465   2.273
44675SOL     OW35863   8.787   4.386   8.629
44675SOL    HW135864   8.753   4.359   8.714
44675SOL    HW235865   8.757   4.476   8.618
44676SOL     OW35866   6.040  13.127   1.661
44676SOL    HW135867   6.106  13.162   1.722
44676SOL    HW235868   5.956  13.146   1.703
44677SOL     OW35869   3.404   6.029  13.808
44677SOL    HW135870   3.488   6.068  13.833
44677SOL    HW235871   3.415   6.005  13.716
44678SOL     OW35872   9.585   7.611   8.097
44678SOL    HW135873   9.508   7.597   8.043
44678SOL    HW235874   9.575   7.699   8.132
44679SOL     OW35875  12.780   5.391   2.147
44679SOL    HW135876  12.699   5.393   2.096
44679SOL    HW235877  12.838   5.452   2.102
44680SOL     OW35878   0.645  11.364  10.486
44680SOL    HW135879   0.590  11.392  10.559
44680SOL    HW235880   0.730  11.344  10.527
44681SOL     OW35881  13.662   6.098   5.402
44681SOL    HW135882  13.577   6.053   5.393
44681SOL    HW235883  13.682   6.095   5.495
44682SOL     OW35884  11.347  10.783   2.830
44682SOL    HW135885  11.403  10.735   2.891
44682SOL    HW235886  11.404  10.801   2.755
44683SOL     OW35887   3.263  10.306  12.388
44683SOL    HW135888   3.214  10.371  12.437
44683SOL    HW235889   3.280  10.347  12.303
44684SOL     OW35890   4.914  10.175   0.320
44684SOL    HW135891   4.842  10.150   0.377
44684SOL    HW235892   4.872  10.208   0.240
44685SOL     OW35893  14.672   4.695   7.596
44685SOL    HW135894  14.744   4.634   7.607
44685SOL    HW235895  14.616   4.680   7.672
44686SOL     OW35896   1.754   8.775   2.083
44686SOL    HW135897   1.830   8.828   2.058
44686SOL    HW235898   1.790   8.689   2.104
44687SOL     OW35899  13.923  11.595  12.773
44687SOL    HW135900  13.855  11.659  12.797
44687SOL    HW235901  14.005  11.638  12.796
44688SOL     OW35902   0.511   7.476   4.848
44688SOL    HW135903   0.456   7.486   4.770
44688SOL    HW235904   0.600   7.473   4.814
44689SOL     OW35905   6.247   9.010   3.996
44689SOL    HW135906   6.197   9.091   3.996
44689SOL    HW235907   6.332   9.034   4.034
44690SOL     OW35908   1.250   4.150  11.675
44690SOL    HW135909   1.192   4.203  11.729
44690SOL    HW235910   1.317   4.212  11.643
44691SOL     OW35911   0.510   8.316   5.221
44691SOL    HW135912   0.543   8.405   5.237
44691SOL    HW235913   0.425   8.329   5.180
44692SOL     OW35914   5.832   5.521   9.664
44692SOL    HW135915   5.877   5.474   9.594
44692SOL    HW235916   5.748   5.476   9.672
44693SOL     OW35917   4.777  11.898   1.524
44693SOL    HW135918   4.858  11.929   1.485
44693SOL    HW235919   4.793  11.806   1.545
44694SOL     OW35920   7.018   9.596  10.450
44694SOL    HW135921   6.939   9.580  10.501
44694SOL    HW235922   7.068   9.659  10.502
44695SOL     OW35923   8.906   4.634  11.603
44695SOL    HW135924   8.982   4.691  11.589
44695SOL    HW235925   8.889   4.595  11.518
44696SOL     OW35926   2.964   9.435   3.619
44696SOL    HW135927   2.902   9.508   3.607
44696SOL    HW235928   3.050   9.474   3.600
44697SOL     OW35929   0.868  12.594  13.777
44697SOL    HW135930   0.913  12.536  13.838
44697SOL    HW235931   0.928  12.603  13.703
44698SOL     OW35932   1.945  10.441   0.621
44698SOL    HW135933   2.039  10.452   0.603
44698SOL    HW235934   1.924  10.353   0.589
44699SOL     OW35935   3.114   6.404  12.029
44699SOL    HW135936   3.047   6.386  12.095
44699SOL    HW235937   3.072   6.385  11.946
44700SOL     OW35938   8.391   2.212   7.242
44700SOL    HW135939   8.381   2.306   7.253
44700SOL    HW235940   8.455   2.203   7.171
44701SOL     OW35941   9.257   1.765   6.092
44701SOL    HW135942   9.330   1.714   6.058
44701SOL    HW235943   9.297   1.846   6.126
44702SOL     OW35944  11.253   0.067   3.172
44702SOL    HW135945  11.251   0.078   3.077
44702SOL    HW235946  11.284  14.860   3.186
44703SOL     OW35947   0.673  11.264   4.829
44703SOL    HW135948   0.597  11.223   4.870
44703SOL    HW235949   0.645  11.279   4.738
44704SOL     OW35950   9.760  12.079  12.848
44704SOL    HW135951   9.691  12.075  12.781
44704SOL    HW235952   9.712  12.089  12.930
44705SOL     OW35953   4.159   2.497  11.169
44705SOL    HW135954   4.109   2.569  11.208
44705SOL    HW235955   4.105   2.419  11.185
44706SOL     OW35956  13.514   2.218  12.079
44706SOL    HW135957  13.558   2.181  12.002
44706SOL    HW235958  13.449   2.153  12.103
44707SOL     OW35959  13.540   0.196  11.793
44707SOL    HW135960  13.604   0.192  11.722
44707SOL    HW235961  13.585   0.243  11.864
44708SOL     OW35962   7.573   8.957   7.010
44708SOL    HW135963   7.567   9.050   7.032
44708SOL    HW235964   7.657   8.929   7.047
44709SOL     OW35965   1.200  11.160   9.450
44709SOL    HW135966   1.144  11.169   9.373
44709SOL    HW235967   1.289  11.167   9.416
44710SOL     OW35968   7.767   2.834   8.191
44710SOL    HW135969   7.726   2.809   8.274
44710SOL    HW235970   7.695   2.865   8.137
44711SOL     OW35971   2.403   8.204  13.291
44711SOL    HW135972   2.421   8.246  13.375
44711SOL    HW235973   2.317   8.162  13.304
44712SOL     OW35974  11.448  11.043   8.785
44712SOL    HW135975  11.440  10.975   8.851
44712SOL    HW235976  11.472  11.121   8.834
44713SOL     OW35977   3.097  10.076  13.722
44713SOL    HW135978   3.128  10.162  13.749
44713SOL    HW235979   3.105  10.077  13.627
44714SOL     OW35980   4.394   5.979   5.621
44714SOL    HW135981   4.385   6.007   5.712
44714SOL    HW235982   4.478   6.015   5.592
44715SOL     OW35983  11.566  12.858  11.839
44715SOL    HW135984  11.560  12.826  11.749
44715SOL    HW235985  11.528  12.946  11.836
44716SOL     OW35986   6.540   4.068   9.979
44716SOL    HW135987   6.556   4.010   9.905
44716SOL    HW235988   6.620   4.119   9.989
44717SOL     OW35989  13.697   2.436   4.050
44717SOL    HW135990  13.643   2.497   4.101
44717SOL    HW235991  13.638   2.404   3.982
44718SOL     OW35992   2.903   7.101   1.512
44718SOL    HW135993   2.943   7.091   1.426
44718SOL    HW235994   2.966   7.152   1.562
44719SOL     OW35995  12.991   0.381   4.897
44719SOL    HW135996  13.045   0.335   4.961
44719SOL    HW235997  13.040   0.376   4.815
44720SOL     OW35998  12.234   0.791   1.411
44720SOL    HW135999  12.152   0.771   1.367
44720SOL    HW236000  12.284   0.710   1.407
44721SOL     OW36001   2.502  12.533   2.198
44721SOL    HW136002   2.415  12.570   2.214
44721SOL    HW236003   2.548  12.601   2.149
44722SOL     OW36004   3.608  12.089  13.176
44722SOL    HW136005   3.616  12.164  13.234
44722SOL    HW236006   3.624  12.125  13.088
44723SOL     OW36007   1.946   0.817   9.476
44723SOL    HW136008   1.891   0.771   9.539
44723SOL    HW236009   2.009   0.865   9.529
44724SOL     OW36010  11.179   4.989   3.998
44724SOL    HW136011  11.156   5.039   4.077
44724SOL    HW236012  11.121   4.914   3.999
44725SOL     OW36013   9.603  10.123   7.228
44725SOL    HW136014   9.578  10.133   7.320
44725SOL    HW236015   9.592  10.210   7.190
44726SOL     OW36016   9.091  13.262   0.163
44726SOL    HW136017   9.024  13.234   0.225
44726SOL    HW236018   9.174  13.242   0.208
44727SOL     OW36019   5.615   2.847   3.110
44727SOL    HW136020   5.702   2.887   3.119
44727SOL    HW236021   5.599   2.803   3.193
44728SOL     OW36022   1.671  13.013   0.115
44728SOL    HW136023   1.728  12.983   0.045
44728SOL    HW236024   1.677  13.109   0.111
44729SOL     OW36025   1.711   7.763   2.905
44729SOL    HW136026   1.789   7.724   2.866
44729SOL    HW236027   1.744   7.811   2.981
44730SOL     OW36028  12.444   6.788   3.721
44730SOL    HW136029  12.484   6.802   3.807
44730SOL    HW236030  12.368   6.846   3.720
44731SOL     OW36031   8.733   1.381   3.063
44731SOL    HW136032   8.695   1.300   3.028
44731SOL    HW236033   8.809   1.398   3.007
44732SOL     OW36034   8.645  12.094   2.272
44732SOL    HW136035   8.690  12.081   2.355
44732SOL    HW236036   8.579  12.025   2.270
44733SOL     OW36037   0.125   7.089   2.725
44733SOL    HW136038   0.165   7.059   2.644
44733SOL    HW236039   0.068   7.016   2.753
44734SOL     OW36040   2.973   8.887   0.200
44734SOL    HW136041   3.020   8.913   0.121
44734SOL    HW236042   2.921   8.964   0.223
44735SOL     OW36043   8.755   0.248   8.576
44735SOL    HW136044   8.665   0.263   8.606
44735SOL    HW236045   8.798   0.333   8.582
44736SOL     OW36046   6.593   7.756  14.328
44736SOL    HW136047   6.559   7.706  14.254
44736SOL    HW236048   6.602   7.846  14.295
44737SOL     OW36049  10.141   9.956   5.696
44737SOL    HW136050  10.101  10.042   5.681
44737SOL    HW236051  10.068   9.900   5.722
44738SOL     OW36052   4.690   8.320   0.150
44738SOL    HW136053   4.729   8.351   0.069
44738SOL    HW236054   4.624   8.386   0.172
44739SOL     OW36055   1.567   3.483   5.669
44739SOL    HW136056   1.635   3.489   5.602
44739SOL    HW236057   1.549   3.389   5.678
44740SOL     OW36058   6.498  13.557   7.883
44740SOL    HW136059   6.431  13.551   7.951
44740SOL    HW236060   6.452  13.591   7.807
44741SOL     OW36061   4.227   0.851   0.354
44741SOL    HW136062   4.311   0.811   0.332
44741SOL    HW236063   4.250   0.929   0.404
44742SOL     OW36064  10.290   5.424   3.083
44742SOL    HW136065  10.206   5.467   3.069
44742SOL    HW236066  10.288   5.346   3.028
44743SOL     OW36067  11.553   0.328   1.306
44743SOL    HW136068  11.477   0.331   1.248
44743SOL    HW236069  11.517   0.306   1.392
44744SOL     OW36070   0.065   6.158  12.279
44744SOL    HW136071   0.117   6.116  12.211
44744SOL    HW236072   0.118   6.232  12.308
44745SOL     OW36073   5.380   4.015   0.387
44745SOL    HW136074   5.404   4.108   0.390
44745SOL    HW236075   5.378   3.995   0.293
44746SOL     OW36076  12.225   6.860  11.938
44746SOL    HW136077  12.192   6.791  11.881
44746SOL    HW236078  12.265   6.924  11.879
44747SOL     OW36079   8.001   4.209  11.608
44747SOL    HW136080   8.067   4.149  11.575
44747SOL    HW236081   8.022   4.220  11.701
44748SOL     OW36082  10.833  13.423   7.739
44748SOL    HW136083  10.852  13.435   7.832
44748SOL    HW236084  10.828  13.512   7.704
44749SOL     OW36085   9.531   3.896   0.393
44749SOL    HW136086   9.580   3.855   0.464
44749SOL    HW236087   9.486   3.969   0.434
44750SOL     OW36088  12.921  12.697  13.412
44750SOL    HW136089  12.879  12.704  13.326
44750SOL    HW236090  12.965  12.612  13.411
44751SOL     OW36091  11.557  11.149   9.184
44751SOL    HW136092  11.609  11.207   9.239
44751SOL    HW236093  11.523  11.082   9.244
44752SOL     OW36094   3.114  10.086   2.925
44752SOL    HW136095   3.027  10.057   2.951
44752SOL    HW236096   3.153  10.011   2.881
44753SOL     OW36097   5.253   2.432  10.448
44753SOL    HW136098   5.293   2.395  10.369
44753SOL    HW236099   5.166   2.392  10.451
44754SOL     OW36100   5.833   3.820  14.763
44754SOL    HW136101   5.762   3.883  14.779
44754SOL    HW236102   5.801   3.767  14.691
44755SOL     OW36103   6.162  10.184   5.892
44755SOL    HW136104   6.188  10.228   5.810
44755SOL    HW236105   6.074  10.150   5.874
44756SOL     OW36106   0.781   8.047  11.967
44756SOL    HW136107   0.781   8.122  12.026
44756SOL    HW236108   0.821   7.976  12.017
44757SOL     OW36109  12.806  13.031  13.945
44757SOL    HW136110  12.820  13.092  13.873
44757SOL    HW236111  12.772  12.951  13.904
44758SOL     OW36112   6.506  13.158   1.459
44758SOL    HW136113   6.420  13.198   1.447
44758SOL    HW236114   6.568  13.224   1.429
44759SOL     OW36115  13.368   9.535   2.295
44759SOL    HW136116  13.371   9.445   2.327
44759SOL    HW236117  13.451   9.573   2.322
44760SOL     OW36118  10.861  14.868  14.344
44760SOL    HW136119  10.894   0.059  14.292
44760SOL    HW236120  10.875   0.013  14.435
44761SOL     OW36121   2.353   9.664   6.664
44761SOL    HW136122   2.395   9.748   6.645
44761SOL    HW236123   2.407   9.599   6.620
44762SOL     OW36124   6.093  10.325  10.260
44762SOL    HW136125   6.104  10.239  10.300
44762SOL    HW236126   6.002  10.349  10.278
44763SOL     OW36127   7.840   1.423   9.262
44763SOL    HW136128   7.828   1.517   9.270
44763SOL    HW236129   7.757   1.386   9.293
44764SOL     OW36130   0.444  11.674   4.390
44764SOL    HW136131   0.382  11.647   4.457
44764SOL    HW236132   0.417  11.763   4.367
44765SOL     OW36133  10.141  11.040   8.674
44765SOL    HW136134  10.204  11.005   8.737
44765SOL    HW236135  10.121  10.967   8.616
44766SOL     OW36136   5.441   4.093   3.087
44766SOL    HW136137   5.526   4.137   3.091
44766SOL    HW236138   5.452   4.014   3.141
44767SOL     OW36139   3.671   9.346   5.912
44767SOL    HW136140   3.645   9.340   6.004
44767SOL    HW236141   3.598   9.393   5.870
44768SOL     OW36142   9.140   2.455   4.877
44768SOL    HW136143   9.079   2.455   4.804
44768SOL    HW236144   9.183   2.540   4.873
44769SOL     OW36145   5.466   7.164   3.854
44769SOL    HW136146   5.505   7.105   3.790
44769SOL    HW236147   5.414   7.107   3.911
44770SOL     OW36148  10.878   6.991   6.836
44770SOL    HW136149  10.957   6.963   6.881
44770SOL    HW236150  10.861   6.921   6.772
44771SOL     OW36151   0.565   3.986   4.979
44771SOL    HW136152   0.472   3.998   4.961
44771SOL    HW236153   0.610   4.038   4.913
44772SOL     OW36154   1.646   2.542  11.847
44772SOL    HW136155   1.670   2.585  11.929
44772SOL    HW236156   1.611   2.457  11.873
44773SOL     OW36157  12.192  10.575   6.998
44773SOL    HW136158  12.247  10.571   7.076
44773SOL    HW236159  12.240  10.526   6.931
44774SOL     OW36160   2.731  13.093   2.277
44774SOL    HW136161   2.697  13.105   2.189
44774SOL    HW236162   2.789  13.168   2.291
44775SOL     OW36163   9.546   1.360   6.364
44775SOL    HW136164   9.590   1.379   6.281
44775SOL    HW236165   9.492   1.437   6.381
44776SOL     OW36166  11.655  10.333   9.591
44776SOL    HW136167  11.678  10.409   9.538
44776SOL    HW236168  11.698  10.349   9.675
44777SOL     OW36169   3.206   5.005   5.158
44777SOL    HW136170   3.245   4.921   5.183
44777SOL    HW236171   3.217   5.060   5.236
44778SOL     OW36172   4.066   8.829   3.867
44778SOL    HW136173   4.047   8.911   3.823
44778SOL    HW236174   4.161   8.830   3.879
44779SOL     OW36175   7.442   1.140   6.183
44779SOL    HW136176   7.509   1.089   6.136
44779SOL    HW236177   7.484   1.224   6.202
44780SOL     OW36178   6.289  13.496   9.404
44780SOL    HW136179   6.367  13.533   9.444
44780SOL    HW236180   6.221  13.562   9.418
44781SOL     OW36181   5.815   7.092   0.560
44781SOL    HW136182   5.771   7.147   0.625
44781SOL    HW236183   5.743   7.050   0.513
44782SOL     OW36184   8.760   6.534   6.242
44782SOL    HW136185   8.756   6.503   6.333
44782SOL    HW236186   8.800   6.620   6.248
44783SOL     OW36187   2.293   7.254   8.264
44783SOL    HW136188   2.275   7.175   8.212
44783SOL    HW236189   2.360   7.227   8.326
44784SOL     OW36190  11.282  14.797  13.672
44784SOL    HW136191  11.338  14.720  13.676
44784SOL    HW236192  11.198  14.767  13.707
44785SOL     OW36193  13.067   0.901  13.101
44785SOL    HW136194  13.069   0.809  13.075
44785SOL    HW236195  13.031   0.901  13.190
44786SOL     OW36196   9.897   5.202  14.243
44786SOL    HW136197   9.846   5.124  14.262
44786SOL    HW236198   9.936   5.186  14.157
44787SOL     OW36199   6.360   5.250   2.304
44787SOL    HW136200   6.310   5.199   2.241
44787SOL    HW236201   6.364   5.338   2.267
44788SOL     OW36202  13.089  14.549   1.731
44788SOL    HW136203  13.037  14.562   1.811
44788SOL    HW236204  13.147  14.475   1.752
44789SOL     OW36205   6.961   7.977   6.331
44789SOL    HW136206   6.977   7.939   6.245
44789SOL    HW236207   6.953   8.071   6.314
44790SOL     OW36208   6.690   7.046   7.784
44790SOL    HW136209   6.600   7.076   7.768
44790SOL    HW236210   6.702   6.973   7.723
44791SOL     OW36211   7.880   6.411   1.153
44791SOL    HW136212   7.884   6.351   1.228
44791SOL    HW236213   7.961   6.395   1.105
44792SOL     OW36214   5.906  11.303   5.776
44792SOL    HW136215   5.949  11.256   5.847
44792SOL    HW236216   5.907  11.242   5.703
44793SOL     OW36217  10.688  10.988   8.382
44793SOL    HW136218  10.643  11.042   8.318
44793SOL    HW236219  10.618  10.945   8.432
44794SOL     OW36220  11.629   0.069   2.801
44794SOL    HW136221  11.668   0.021   2.728
44794SOL    HW236222  11.572   0.134   2.759
44795SOL     OW36223  14.243   2.634   9.827
44795SOL    HW136224  14.150   2.648   9.809
44795SOL    HW236225  14.261   2.547   9.793
44796SOL     OW36226   1.822  11.593  10.593
44796SOL    HW136227   1.885  11.537  10.547
44796SOL    HW236228   1.856  11.599  10.683
44797SOL     OW36229   9.900  13.761  10.629
44797SOL    HW136230   9.980  13.810  10.616
44797SOL    HW236231   9.893  13.705  10.552
44798SOL     OW36232  11.455   2.873   7.037
44798SOL    HW136233  11.409   2.933   6.979
44798SOL    HW236234  11.392   2.851   7.105
44799SOL     OW36235   0.951   3.731   7.937
44799SOL    HW136236   0.974   3.665   8.002
44799SOL    HW236237   0.867   3.766   7.968
44800SOL     OW36238   0.098  13.123   7.380
44800SOL    HW136239   0.175  13.173   7.353
44800SOL    HW236240   0.116  13.034   7.350
44801SOL     OW36241   6.413  12.822  10.940
44801SOL    HW136242   6.437  12.730  10.929
44801SOL    HW236243   6.453  12.865  10.864
44802SOL     OW36244  12.544   1.970   6.880
44802SOL    HW136245  12.528   1.876   6.889
44802SOL    HW236246  12.489   1.997   6.806
44803SOL     OW36247   9.694  14.021  12.483
44803SOL    HW136248   9.746  14.100  12.470
44803SOL    HW236249   9.670  13.993  12.395
44804SOL     OW36250  14.376   6.089  10.764
44804SOL    HW136251  14.442   6.082  10.694
44804SOL    HW236252  14.320   6.161  10.737
44805SOL     OW36253  14.576   1.235   7.690
44805SOL    HW136254  14.521   1.232   7.768
44805SOL    HW236255  14.666   1.229   7.724
44806SOL     OW36256  14.240  14.805   9.949
44806SOL    HW136257  14.304  14.735   9.961
44806SOL    HW236258  14.155  14.762   9.963
44807SOL     OW36259   5.504  11.521   6.311
44807SOL    HW136260   5.411  11.526   6.335
44807SOL    HW236261   5.506  11.545   6.218
44808SOL     OW36262   0.117   8.285   0.506
44808SOL    HW136263   0.139   8.346   0.576
44808SOL    HW236264   0.160   8.321   0.429
44809SOL     OW36265   4.519   1.886   6.806
44809SOL    HW136266   4.448   1.822   6.795
44809SOL    HW236267   4.578   1.867   6.733
44810SOL     OW36268   3.572  10.424   0.938
44810SOL    HW136269   3.505  10.359   0.917
44810SOL    HW236270   3.546  10.501   0.888
44811SOL     OW36271  14.637   4.523   5.380
44811SOL    HW136272  14.579   4.455   5.416
44811SOL    HW236273  14.688   4.478   5.313
44812SOL     OW36274   7.516   6.271  11.931
44812SOL    HW136275   7.521   6.211  11.856
44812SOL    HW236276   7.480   6.352  11.895
44813SOL     OW36277   1.972   3.281   4.921
44813SOL    HW136278   2.051   3.237   4.953
44813SOL    HW236279   2.005   3.346   4.859
44814SOL     OW36280   1.022   2.352  13.560
44814SOL    HW136281   1.097   2.410  13.546
44814SOL    HW236282   0.963   2.373  13.488
44815SOL     OW36283   0.998   2.780   4.001
44815SOL    HW136284   1.017   2.836   3.926
44815SOL    HW236285   0.972   2.840   4.070
44816SOL     OW36286   2.127  10.371   9.241
44816SOL    HW136287   2.208  10.320   9.234
44816SOL    HW236288   2.154  10.453   9.282
44817SOL     OW36289  12.565   6.410  10.838
44817SOL    HW136290  12.501   6.359  10.788
44817SOL    HW236291  12.639   6.419  10.778
44818SOL     OW36292  13.233  13.861  11.355
44818SOL    HW136293  13.326  13.847  11.371
44818SOL    HW236294  13.190  13.836  11.436
44819SOL     OW36295   2.961  11.329   6.186
44819SOL    HW136296   2.874  11.363   6.165
44819SOL    HW236297   3.010  11.405   6.217
44820SOL     OW36298   7.746  13.101  10.439
44820SOL    HW136299   7.749  13.172  10.503
44820SOL    HW236300   7.784  13.139  10.360
44821SOL     OW36301  11.484   1.537  13.366
44821SOL    HW136302  11.539   1.610  13.393
44821SOL    HW236303  11.443   1.566  13.284
44822SOL     OW36304   3.550   0.852   2.235
44822SOL    HW136305   3.489   0.897   2.293
44822SOL    HW236306   3.500   0.834   2.156
44823SOL     OW36307   2.567  13.167   9.159
44823SOL    HW136308   2.635  13.191   9.222
44823SOL    HW236309   2.615  13.131   9.085
44824SOL     OW36310   7.439   0.221   9.384
44824SOL    HW136311   7.417   0.259   9.469
44824SOL    HW236312   7.525   0.256   9.364
44825SOL     OW36313  12.503   3.901   8.618
44825SOL    HW136314  12.435   3.846   8.578
44825SOL    HW236315  12.573   3.905   8.553
44826SOL     OW36316  13.113   5.165   7.157
44826SOL    HW136317  13.088   5.077   7.187
44826SOL    HW236318  13.103   5.220   7.235
44827SOL     OW36319   8.668   1.362   9.086
44827SOL    HW136320   8.644   1.278   9.047
44827SOL    HW236321   8.676   1.421   9.012
44828SOL     OW36322  13.975  10.046  13.112
44828SOL    HW136323  13.920  10.074  13.039
44828SOL    HW236324  13.971  10.119  13.174
44829SOL     OW36325   4.011   3.914   4.409
44829SOL    HW136326   3.960   3.995   4.405
44829SOL    HW236327   4.087   3.931   4.353
44830SOL     OW36328   3.219   0.667   8.429
44830SOL    HW136329   3.194   0.599   8.491
44830SOL    HW236330   3.290   0.628   8.377
44831SOL     OW36331   9.260   1.914  11.107
44831SOL    HW136332   9.257   1.831  11.153
44831SOL    HW236333   9.199   1.903  11.034
44832SOL     OW36334  13.271   1.749  13.745
44832SOL    HW136335  13.324   1.670  13.755
44832SOL    HW236336  13.242   1.770  13.834
44833SOL     OW36337   8.957  10.075   6.744
44833SOL    HW136338   8.912  10.110   6.821
44833SOL    HW236339   9.012  10.147   6.714
44834SOL     OW36340  13.503   6.786  13.493
44834SOL    HW136341  13.537   6.827  13.413
44834SOL    HW236342  13.579   6.742  13.532
44835SOL     OW36343  10.249  13.030  13.714
44835SOL    HW136344  10.276  13.115  13.748
44835SOL    HW236345  10.159  13.045  13.684
44836SOL     OW36346  10.098   6.235   5.166
44836SOL    HW136347  10.024   6.244   5.226
44836SOL    HW236348  10.163   6.297   5.199
44837SOL     OW36349   0.555  10.161   0.931
44837SOL    HW136350   0.502  10.234   0.900
44837SOL    HW236351   0.492  10.098   0.964
44838SOL     OW36352   8.631   9.900  13.918
44838SOL    HW136353   8.556   9.903  13.860
44838SOL    HW236354   8.701   9.862  13.865
44839SOL     OW36355  12.966   6.558   9.677
44839SOL    HW136356  13.007   6.566   9.590
44839SOL    HW236357  12.938   6.647   9.698
44840SOL     OW36358   7.665  14.700   4.676
44840SOL    HW136359   7.680  14.693   4.770
44840SOL    HW236360   7.718  14.630   4.638
44841SOL     OW36361   9.543   6.028  13.848
44841SOL    HW136362   9.636   6.039  13.868
44841SOL    HW236363   9.505   6.115  13.861
44842SOL     OW36364   2.702   3.391   8.521
44842SOL    HW136365   2.755   3.459   8.479
44842SOL    HW236366   2.722   3.400   8.615
44843SOL     OW36367  10.629   9.115   2.598
44843SOL    HW136368  10.695   9.169   2.641
44843SOL    HW236369  10.656   9.025   2.615
44844SOL     OW36370  10.584   6.696   0.764
44844SOL    HW136371  10.552   6.658   0.682
44844SOL    HW236372  10.530   6.656   0.832
44845SOL     OW36373   4.886   8.903   7.357
44845SOL    HW136374   4.952   8.911   7.426
44845SOL    HW236375   4.857   8.812   7.362
44846SOL     OW36376   2.141   6.605   5.335
44846SOL    HW136377   2.131   6.685   5.387
44846SOL    HW236378   2.065   6.552   5.358
44847SOL     OW36379  12.514   3.671   9.783
44847SOL    HW136380  12.518   3.667   9.879
44847SOL    HW236381  12.466   3.752   9.765
44848SOL     OW36382   2.322  11.001  11.213
44848SOL    HW136383   2.314  10.926  11.153
44848SOL    HW236384   2.389  11.056  11.172
44849SOL     OW36385   9.782  11.021  11.567
44849SOL    HW136386   9.720  10.956  11.599
44849SOL    HW236387   9.734  11.104  11.570
44850SOL     OW36388  11.739   5.322  11.520
44850SOL    HW136389  11.770   5.233  11.505
44850SOL    HW236390  11.651   5.324  11.482
44851SOL     OW36391   8.209  11.133  14.551
44851SOL    HW136392   8.186  11.073  14.622
44851SOL    HW236393   8.266  11.197  14.592
44852SOL     OW36394   0.605   6.537   7.043
44852SOL    HW136395   0.528   6.567   7.091
44852SOL    HW236396   0.640   6.466   7.097
44853SOL     OW36397  14.448   2.047  10.963
44853SOL    HW136398  14.458   2.006  11.049
44853SOL    HW236399  14.490   1.986  10.902
44854SOL     OW36400   9.169  10.734   0.736
44854SOL    HW136401   9.250  10.776   0.763
44854SOL    HW236402   9.175  10.728   0.641
44855SOL     OW36403   7.219  12.385   9.787
44855SOL    HW136404   7.271  12.431   9.853
44855SOL    HW236405   7.189  12.454   9.728
44856SOL     OW36406   6.017   0.881   6.847
44856SOL    HW136407   6.058   0.841   6.771
44856SOL    HW236408   5.929   0.843   6.850
44857SOL     OW36409   9.646   0.633   8.167
44857SOL    HW136410   9.649   0.729   8.161
44857SOL    HW236411   9.679   0.603   8.083
44858SOL     OW36412  14.614   7.857   8.699
44858SOL    HW136413  14.656   7.848   8.785
44858SOL    HW236414  14.658   7.792   8.644
44859SOL     OW36415   3.648  11.992   0.221
44859SOL    HW136416   3.566  12.042   0.219
44859SOL    HW236417   3.714  12.053   0.190
44860SOL     OW36418  13.783  14.845   2.527
44860SOL    HW136419  13.872  14.870   2.502
44860SOL    HW236420  13.759  14.777   2.464
44861SOL     OW36421   3.857   1.702   4.300
44861SOL    HW136422   3.771   1.735   4.327
44861SOL    HW236423   3.919   1.763   4.339
44862SOL     OW36424   9.501  12.382   2.203
44862SOL    HW136425   9.538  12.434   2.275
44862SOL    HW236426   9.466  12.304   2.246
44863SOL     OW36427   3.338   2.526  13.121
44863SOL    HW136428   3.261   2.498  13.071
44863SOL    HW236429   3.364   2.448  13.170
44864SOL     OW36430  14.321   0.398   7.445
44864SOL    HW136431  14.294   0.308   7.462
44864SOL    HW236432  14.289   0.447   7.521
44865SOL     OW36433  12.858  10.384   5.568
44865SOL    HW136434  12.895  10.377   5.656
44865SOL    HW236435  12.763  10.389   5.583
44866SOL     OW36436  12.754   1.043   5.011
44866SOL    HW136437  12.733   1.082   5.095
44866SOL    HW236438  12.845   1.067   4.994
44867SOL     OW36439   2.723  10.430   4.088
44867SOL    HW136440   2.640  10.406   4.130
44867SOL    HW236441   2.704  10.427   3.994
44868SOL     OW36442   5.382   3.221   4.507
44868SOL    HW136443   5.344   3.172   4.581
44868SOL    HW236444   5.358   3.312   4.524
44869SOL     OW36445   9.389   2.041  10.223
44869SOL    HW136446   9.400   1.952  10.190
44869SOL    HW236447   9.383   2.096  10.145
44870SOL     OW36448   7.481   2.664  13.082
44870SOL    HW136449   7.539   2.739  13.070
44870SOL    HW236450   7.458   2.666  13.175
44871SOL     OW36451   2.457   3.032  13.077
44871SOL    HW136452   2.391   3.039  13.007
44871SOL    HW236453   2.444   2.945  13.114
44872SOL     OW36454  11.187  13.038   9.135
44872SOL    HW136455  11.124  13.083   9.190
44872SOL    HW236456  11.272  13.056   9.175
44873SOL     OW36457   2.623   0.044   4.947
44873SOL    HW136458   2.630   0.138   4.965
44873SOL    HW236459   2.566   0.011   5.016
44874SOL     OW36460   6.092   3.849   0.802
44874SOL    HW136461   6.185   3.868   0.815
44874SOL    HW236462   6.090   3.759   0.770
44875SOL     OW36463   0.166   8.629   6.669
44875SOL    HW136464   0.185   8.607   6.578
44875SOL    HW236465   0.083   8.678   6.665
44876SOL     OW36466  12.317  13.123  10.695
44876SOL    HW136467  12.240  13.067  10.686
44876SOL    HW236468  12.281  13.210  10.714
44877SOL     OW36469   5.952  10.566   2.581
44877SOL    HW136470   5.934  10.505   2.510
44877SOL    HW236471   5.962  10.510   2.659
44878SOL     OW36472   2.069   3.600   8.659
44878SOL    HW136473   2.131   3.561   8.722
44878SOL    HW236474   2.109   3.682   8.633
44879SOL     OW36475   6.221  14.622   3.938
44879SOL    HW136476   6.304  14.650   3.976
44879SOL    HW236477   6.240  14.539   3.896
44880SOL     OW36478   3.974  13.053   6.094
44880SOL    HW136479   3.941  12.963   6.094
44880SOL    HW236480   4.068  13.044   6.082
44881SOL     OW36481   7.459   2.740   9.698
44881SOL    HW136482   7.519   2.788   9.755
44881SOL    HW236483   7.400   2.695   9.758
44882SOL     OW36484   0.829   1.136  12.730
44882SOL    HW136485   0.884   1.063  12.701
44882SOL    HW236486   0.740   1.110  12.706
44883SOL     OW36487  10.367  10.471  12.876
44883SOL    HW136488  10.342  10.391  12.922
44883SOL    HW236489  10.289  10.526  12.879
44884SOL     OW36490   4.083  14.101   9.087
44884SOL    HW136491   4.131  14.071   9.010
44884SOL    HW236492   4.127  14.060   9.161
44885SOL     OW36493   1.096   5.280   1.352
44885SOL    HW136494   1.093   5.184   1.346
44885SOL    HW236495   1.008   5.309   1.329
44886SOL     OW36496   0.928   5.277  12.706
44886SOL    HW136497   1.019   5.283  12.732
44886SOL    HW236498   0.929   5.227  12.624
44887SOL     OW36499   2.126   4.490   5.745
44887SOL    HW136500   2.069   4.425   5.785
44887SOL    HW236501   2.215   4.455   5.757
44888SOL     OW36502   5.701   3.210   3.873
44888SOL    HW136503   5.791   3.189   3.851
44888SOL    HW236504   5.686   3.166   3.957
44889SOL     OW36505   1.968  14.284   1.250
44889SOL    HW136506   1.981  14.356   1.312
44889SOL    HW236507   2.049  14.280   1.200
44890SOL     OW36508   0.538   6.999   9.464
44890SOL    HW136509   0.530   7.027   9.556
44890SOL    HW236510   0.462   6.944   9.449
44891SOL     OW36511  12.536   1.801  10.250
44891SOL    HW136512  12.564   1.876  10.301
44891SOL    HW236513  12.593   1.801  10.173
44892SOL     OW36514   9.579   6.867   5.193
44892SOL    HW136515   9.662   6.854   5.148
44892SOL    HW236516   9.567   6.787   5.244
44893SOL     OW36517   6.775  14.673   7.686
44893SOL    HW136518   6.725  14.657   7.606
44893SOL    HW236519   6.828  14.594   7.696
44894SOL     OW36520   3.674   4.919   2.735
44894SOL    HW136521   3.656   4.901   2.642
44894SOL    HW236522   3.732   4.995   2.733
44895SOL     OW36523   2.412   7.170  12.549
44895SOL    HW136524   2.346   7.166  12.618
44895SOL    HW236525   2.362   7.164  12.467
44896SOL     OW36526   9.312   5.233   4.130
44896SOL    HW136527   9.295   5.139   4.128
44896SOL    HW236528   9.229   5.273   4.105
44897SOL     OW36529  13.988   7.187   6.846
44897SOL    HW136530  13.998   7.223   6.757
44897SOL    HW236531  13.907   7.137   6.843
44898SOL     OW36532   9.234   3.220   6.660
44898SOL    HW136533   9.278   3.194   6.741
44898SOL    HW236534   9.242   3.316   6.658
44899SOL     OW36535  11.433   7.928   0.490
44899SOL    HW136536  11.451   7.995   0.424
44899SOL    HW236537  11.368   7.871   0.448
44900SOL     OW36538  10.544   2.968   4.386
44900SOL    HW136539  10.592   2.956   4.469
44900SOL    HW236540  10.612   2.959   4.319
44901SOL     OW36541   8.317   6.302   3.334
44901SOL    HW136542   8.369   6.379   3.356
44901SOL    HW236543   8.252   6.334   3.271
44902SOL     OW36544   4.194  11.213   6.664
44902SOL    HW136545   4.283  11.230   6.694
44902SOL    HW236546   4.185  11.117   6.669
44903SOL     OW36547   0.716  11.507   3.621
44903SOL    HW136548   0.797  11.557   3.627
44903SOL    HW236549   0.737  11.422   3.661
44904SOL     OW36550   6.488   1.375   6.686
44904SOL    HW136551   6.464   1.467   6.673
44904SOL    HW236552   6.530   1.349   6.604
44905SOL     OW36553   7.574   2.416   6.975
44905SOL    HW136554   7.603   2.504   6.952
44905SOL    HW236555   7.641   2.359   6.940
44906SOL     OW36556   7.021   6.620   8.388
44906SOL    HW136557   6.967   6.573   8.324
44906SOL    HW236558   6.992   6.587   8.473
44907SOL     OW36559   4.109  10.967  12.907
44907SOL    HW136560   4.105  11.063  12.898
44907SOL    HW236561   4.202  10.946  12.901
44908SOL     OW36562   2.458   5.047  11.781
44908SOL    HW136563   2.522   5.060  11.711
44908SOL    HW236564   2.374   5.070  11.742
44909SOL     OW36565   6.953   9.827   5.528
44909SOL    HW136566   6.996   9.910   5.509
44909SOL    HW236567   7.023   9.769   5.556
44910SOL     OW36568   0.879   0.810   0.633
44910SOL    HW136569   0.874   0.905   0.621
44910SOL    HW236570   0.914   0.778   0.549
44911SOL     OW36571  14.516   1.472   5.729
44911SOL    HW136572  14.603   1.462   5.767
44911SOL    HW236573  14.499   1.566   5.732
44912SOL     OW36574   0.355  10.414  13.412
44912SOL    HW136575   0.434  10.369  13.444
44912SOL    HW236576   0.364  10.415  13.317
44913SOL     OW36577   0.041   0.975   0.116
44913SOL    HW136578  14.866   1.051   0.122
44913SOL    HW236579   0.107   0.998   0.050
44914SOL     OW36580   3.786   2.200   4.797
44914SOL    HW136581   3.815   2.119   4.840
44914SOL    HW236582   3.773   2.262   4.869
44915SOL     OW36583  10.377   5.707   5.867
44915SOL    HW136584  10.337   5.739   5.786
44915SOL    HW236585  10.391   5.786   5.919
44916SOL     OW36586   7.040   0.409  13.675
44916SOL    HW136587   6.992   0.478  13.721
44916SOL    HW236588   7.131   0.421  13.703
44917SOL     OW36589   2.569   6.919  10.254
44917SOL    HW136590   2.629   6.941  10.183
44917SOL    HW236591   2.562   7.000  10.305
44918SOL     OW36592   7.524  14.832   1.819
44918SOL    HW136593   7.530   0.016   1.749
44918SOL    HW236594   7.484  14.756   1.776
44919SOL     OW36595  12.242   6.525  11.777
44919SOL    HW136596  12.329   6.531  11.737
44919SOL    HW236597  12.239   6.436  11.814
44920SOL     OW36598   4.976   5.725   1.368
44920SOL    HW136599   4.964   5.742   1.461
44920SOL    HW236600   4.888   5.706   1.336
44921SOL     OW36601   3.025   0.495  10.304
44921SOL    HW136602   3.090   0.485  10.374
44921SOL    HW236603   3.075   0.486  10.223
44922SOL     OW36604  12.500   7.482  13.161
44922SOL    HW136605  12.531   7.447  13.078
44922SOL    HW236606  12.540   7.568  13.168
44923SOL     OW36607   1.953   9.807   9.825
44923SOL    HW136608   1.902   9.734   9.861
44923SOL    HW236609   1.961   9.787   9.732
44924SOL     OW36610   4.762   1.039   6.221
44924SOL    HW136611   4.812   1.112   6.186
44924SOL    HW236612   4.808   0.961   6.191
44925SOL     OW36613   0.434   8.963  14.239
44925SOL    HW136614   0.494   9.036  14.223
44925SOL    HW236615   0.490   8.892  14.270
44926SOL     OW36616   4.992  13.116   6.936
44926SOL    HW136617   4.981  13.067   7.018
44926SOL    HW236618   4.906  13.153   6.919
44927SOL     OW36619   7.015   1.140   4.606
44927SOL    HW136620   6.956   1.065   4.617
44927SOL    HW236621   7.084   1.126   4.671
44928SOL     OW36622  12.147   7.391  13.549
44928SOL    HW136623  12.185   7.354  13.628
44928SOL    HW236624  12.222   7.418  13.496
44929SOL     OW36625   0.793   8.062  13.902
44929SOL    HW136626   0.795   8.110  13.985
44929SOL    HW236627   0.879   8.079  13.863
44930SOL     OW36628  10.594   1.429   7.646
44930SOL    HW136629  10.552   1.505   7.686
44930SOL    HW236630  10.589   1.360   7.712
44931SOL     OW36631   9.473   1.009  12.974
44931SOL    HW136632   9.465   1.059  12.893
44931SOL    HW236633   9.504   0.923  12.946
44932SOL     OW36634   4.486  13.350  13.088
44932SOL    HW136635   4.487  13.354  12.992
44932SOL    HW236636   4.414  13.408  13.113
44933SOL     OW36637  10.112   6.720   8.446
44933SOL    HW136638  10.147   6.798   8.403
44933SOL    HW236639  10.154   6.647   8.400
44934SOL     OW36640  10.291  11.191   0.568
44934SOL    HW136641  10.248  11.167   0.650
44934SOL    HW236642  10.239  11.146   0.501
44935SOL     OW36643  12.195  14.218   3.794
44935SOL    HW136644  12.128  14.150   3.803
44935SOL    HW236645  12.262  14.179   3.737
44936SOL     OW36646   8.948   3.127  12.676
44936SOL    HW136647   8.981   3.063  12.613
44936SOL    HW236648   8.870   3.086  12.714
44937SOL     OW36649   3.872   4.965   8.781
44937SOL    HW136650   3.852   4.924   8.697
44937SOL    HW236651   3.894   5.056   8.759
44938SOL     OW36652  13.436   6.887   8.982
44938SOL    HW136653  13.380   6.873   9.058
44938SOL    HW236654  13.513   6.833   8.998
44939SOL     OW36655   5.614  12.034   3.801
44939SOL    HW136656   5.667  12.096   3.751
44939SOL    HW236657   5.677  11.971   3.836
44940SOL     OW36658  10.947  10.761   7.469
44940SOL    HW136659  10.852  10.773   7.462
44940SOL    HW236660  10.960  10.668   7.451
44941SOL     OW36661  12.792  14.067   0.688
44941SOL    HW136662  12.754  14.088   0.603
44941SOL    HW236663  12.756  13.981   0.711
44942SOL     OW36664  13.899   0.182   6.303
44942SOL    HW136665  13.875   0.223   6.386
44942SOL    HW236666  13.874   0.246   6.236
44943SOL     OW36667   3.287   7.884   9.343
44943SOL    HW136668   3.354   7.831   9.387
44943SOL    HW236669   3.312   7.882   9.251
44944SOL     OW36670  13.808   0.581   8.310
44944SOL    HW136671  13.881   0.608   8.366
44944SOL    HW236672  13.747   0.538   8.370
44945SOL     OW36673   5.580  12.027  12.566
44945SOL    HW136674   5.671  12.042  12.591
44945SOL    HW236675   5.554  11.949  12.616
44946SOL     OW36676   0.291   6.855   5.892
44946SOL    HW136677   0.316   6.941   5.924
44946SOL    HW236678   0.274   6.868   5.798
44947SOL     OW36679   8.272   4.431  11.520
44947SOL    HW136680   8.187   4.436  11.477
44947SOL    HW236681   8.289   4.337  11.529
44948SOL     OW36682   9.005   7.490   7.184
44948SOL    HW136683   8.970   7.401   7.187
44948SOL    HW236684   8.999   7.515   7.091
44949SOL     OW36685   2.118   5.253   8.458
44949SOL    HW136686   2.108   5.158   8.459
44949SOL    HW236687   2.032   5.287   8.479
44950SOL     OW36688   7.596   0.218   3.556
44950SOL    HW136689   7.622   0.185   3.642
44950SOL    HW236690   7.545   0.147   3.517
44951SOL     OW36691   5.573  11.461  10.838
44951SOL    HW136692   5.529  11.545  10.828
44951SOL    HW236693   5.585  11.429  10.749
44952SOL     OW36694   7.231   3.057   9.417
44952SOL    HW136695   7.180   3.134   9.392
44952SOL    HW236696   7.255   3.073   9.508
44953SOL     OW36697   9.461   8.532   9.907
44953SOL    HW136698   9.462   8.446   9.948
44953SOL    HW236699   9.443   8.514   9.815
44954SOL     OW36700   9.805   3.048   8.806
44954SOL    HW136701   9.726   3.073   8.855
44954SOL    HW236702   9.774   2.989   8.738
44955SOL     OW36703   4.909  11.279  12.331
44955SOL    HW136704   4.947  11.335  12.263
44955SOL    HW236705   4.983  11.231  12.367
44956SOL     OW36706   0.309   8.235   9.134
44956SOL    HW136707   0.403   8.225   9.148
44956SOL    HW236708   0.302   8.302   9.066
44957SOL     OW36709  10.006   4.907  10.293
44957SOL    HW136710  10.065   4.832  10.283
44957SOL    HW236711   9.918   4.871  10.278
44958SOL     OW36712  12.410  12.713   4.159
44958SOL    HW136713  12.362  12.676   4.085
44958SOL    HW236714  12.477  12.648   4.179
44959SOL     OW36715  10.957   6.068  12.458
44959SOL    HW136716  10.950   6.113  12.543
44959SOL    HW236717  10.888   6.108  12.405
44960SOL     OW36718   5.396  12.372   1.323
44960SOL    HW136719   5.384  12.465   1.304
44960SOL    HW236720   5.479  12.350   1.281
44961SOL     OW36721   2.775  13.755   8.420
44961SOL    HW136722   2.737  13.800   8.344
44961SOL    HW236723   2.863  13.792   8.427
44962SOL     OW36724   1.588   2.716  12.533
44962SOL    HW136725   1.493   2.722  12.543
44962SOL    HW236726   1.603   2.625  12.508
44963SOL     OW36727  14.111  11.920   2.720
44963SOL    HW136728  14.101  12.015   2.711
44963SOL    HW236729  14.036  11.893   2.773
44964SOL     OW36730   9.645   2.900   1.401
44964SOL    HW136731   9.684   2.987   1.387
44964SOL    HW236732   9.710   2.853   1.453
44965SOL     OW36733   0.536   2.453   5.016
44965SOL    HW136734   0.475   2.382   4.997
44965SOL    HW236735   0.556   2.443   5.109
44966SOL     OW36736   9.907   2.242   3.498
44966SOL    HW136737   9.825   2.236   3.449
44966SOL    HW236738   9.948   2.156   3.486
44967SOL     OW36739   5.527   7.757  11.351
44967SOL    HW136740   5.532   7.772  11.257
44967SOL    HW236741   5.617   7.766  11.382
44968SOL     OW36742  14.216   9.986  12.902
44968SOL    HW136743  14.139  10.030  12.938
44968SOL    HW236744  14.194   9.893  12.904
44969SOL     OW36745   6.181   1.102  12.313
44969SOL    HW136746   6.206   1.025  12.365
44969SOL    HW236747   6.101   1.134  12.354
44970SOL     OW36748   3.289   2.873   6.812
44970SOL    HW136749   3.259   2.927   6.739
44970SOL    HW236750   3.209   2.848   6.858
44971SOL     OW36751  12.091  13.106  11.319
44971SOL    HW136752  12.061  13.047  11.249
44971SOL    HW236753  12.029  13.178  11.318
44972SOL     OW36754   2.699  12.629   2.483
44972SOL    HW136755   2.704  12.693   2.555
44972SOL    HW236756   2.787  12.630   2.444
44973SOL     OW36757   6.911  12.030  10.172
44973SOL    HW136758   6.892  12.115  10.211
44973SOL    HW236759   7.006  12.020  10.181
44974SOL     OW36760   5.590   7.173   3.048
44974SOL    HW136761   5.596   7.093   3.101
44974SOL    HW236762   5.599   7.143   2.958
44975SOL     OW36763  13.997  14.823   7.833
44975SOL    HW136764  14.030  14.796   7.748
44975SOL    HW236765  13.942   0.017   7.815
44976SOL     OW36766  11.243   1.248   0.403
44976SOL    HW136767  11.200   1.162   0.402
44976SOL    HW236768  11.336   1.227   0.419
44977SOL     OW36769  10.937   5.771   5.176
44977SOL    HW136770  10.979   5.821   5.246
44977SOL    HW236771  11.007   5.753   5.114
44978SOL     OW36772  11.994   5.269   1.902
44978SOL    HW136773  12.029   5.357   1.914
44978SOL    HW236774  11.918   5.265   1.960
44979SOL     OW36775   3.352  13.008  10.987
44979SOL    HW136776   3.351  12.960  10.904
44979SOL    HW236777   3.283  12.968  11.039
44980SOL     OW36778  11.807  13.425  12.973
44980SOL    HW136779  11.772  13.336  12.972
44980SOL    HW236780  11.740  13.477  13.018
44981SOL     OW36781   2.354   8.058   9.659
44981SOL    HW136782   2.369   8.123   9.727
44981SOL    HW236783   2.371   8.105   9.577
44982SOL     OW36784  14.145   5.682   4.334
44982SOL    HW136785  14.061   5.694   4.377
44982SOL    HW236786  14.210   5.699   4.402
44983SOL     OW36787   2.006  11.465  12.334
44983SOL    HW136788   1.962  11.440  12.253
44983SOL    HW236789   2.036  11.555  12.317
44984SOL     OW36790  12.732   6.909   3.207
44984SOL    HW136791  12.785   6.883   3.282
44984SOL    HW236792  12.655   6.851   3.210
44985SOL     OW36793  13.193   5.595   1.895
44985SOL    HW136794  13.157   5.631   1.976
44985SOL    HW236795  13.257   5.661   1.866
44986SOL     OW36796  13.634   8.458  10.115
44986SOL    HW136797  13.587   8.520  10.170
44986SOL    HW236798  13.661   8.510  10.038
44987SOL     OW36799  10.155   5.984   5.130
44987SOL    HW136800  10.231   5.999   5.073
44987SOL    HW236801  10.124   6.071   5.152
44988SOL     OW36802   9.370   8.554   0.219
44988SOL    HW136803   9.420   8.477   0.191
44988SOL    HW236804   9.319   8.523   0.294
44989SOL     OW36805   1.571   7.459   8.510
44989SOL    HW136806   1.606   7.425   8.593
44989SOL    HW236807   1.480   7.432   8.510
44990SOL     OW36808  13.420  12.078   8.399
44990SOL    HW136809  13.462  12.020   8.463
44990SOL    HW236810  13.347  12.026   8.364
44991SOL     OW36811   8.557   2.695  11.545
44991SOL    HW136812   8.646   2.679  11.515
44991SOL    HW236813   8.512   2.730  11.468
44992SOL     OW36814   0.168   3.475   5.581
44992SOL    HW136815   0.206   3.512   5.502
44992SOL    HW236816   0.174   3.381   5.570
44993SOL     OW36817  10.201  10.434   4.580
44993SOL    HW136818  10.110  10.408   4.562
44993SOL    HW236819  10.206  10.437   4.675
44994SOL     OW36820  14.532  10.285   6.651
44994SOL    HW136821  14.471  10.356   6.633
44994SOL    HW236822  14.479  10.217   6.693
44995SOL     OW36823   5.726   6.694   2.784
44995SOL    HW136824   5.671   6.734   2.851
44995SOL    HW236825   5.711   6.747   2.706
44996SOL     OW36826   6.625   1.448  11.656
44996SOL    HW136827   6.629   1.471  11.748
44996SOL    HW236828   6.693   1.382  11.644
44997SOL     OW36829   9.326   6.101   2.036
44997SOL    HW136830   9.252   6.041   2.029
44997SOL    HW236831   9.287   6.185   2.058
44998SOL     OW36832  10.315   9.734  14.029
44998SOL    HW136833  10.357   9.719  14.114
44998SOL    HW236834  10.362   9.675  13.970
44999SOL     OW36835   6.602  10.937  10.966
44999SOL    HW136836   6.677  10.995  10.949
44999SOL    HW236837   6.611  10.913  11.058
45000SOL     OW36838   2.408  13.326  10.372
45000SOL    HW136839   2.434  13.249  10.322
45000SOL    HW236840   2.488  13.376  10.383
45001SOL     OW36841   6.937   6.128  13.710
45001SOL    HW136842   6.897   6.210  13.682
45001SOL    HW236843   6.891   6.061  13.660
45002SOL     OW36844   8.016   3.422  12.451
45002SOL    HW136845   7.941   3.380  12.408
45002SOL    HW236846   7.997   3.417  12.544
45003SOL     OW36847   1.387  10.569  13.064
45003SOL    HW136848   1.367  10.485  13.024
45003SOL    HW236849   1.398  10.629  12.990
45004SOL     OW36850   4.507  13.494   1.784
45004SOL    HW136851   4.552  13.412   1.765
45004SOL    HW236852   4.513  13.503   1.879
45005SOL     OW36853  12.934   6.851   0.671
45005SOL    HW136854  12.891   6.935   0.657
45005SOL    HW236855  12.862   6.790   0.690
45006SOL     OW36856  12.236   1.882  13.282
45006SOL    HW136857  12.236   1.786  13.284
45006SOL    HW236858  12.258   1.904  13.191
45007SOL     OW36859   3.122   2.738   0.504
45007SOL    HW136860   3.071   2.751   0.584
45007SOL    HW236861   3.152   2.647   0.510
45008SOL     OW36862   6.858   0.863  13.555
45008SOL    HW136863   6.889   0.806  13.485
45008SOL    HW236864   6.794   0.810  13.602
45009SOL     OW36865   6.203   0.384   6.483
45009SOL    HW136866   6.142   0.427   6.543
45009SOL    HW236867   6.286   0.380   6.531
45010SOL     OW36868  13.025  10.973   1.038
45010SOL    HW136869  13.056  10.901   1.093
45010SOL    HW236870  12.930  10.962   1.035
45011SOL     OW36871  14.238   7.169   2.758
45011SOL    HW136872  14.203   7.097   2.706
45011SOL    HW236873  14.316   7.133   2.799
45012SOL     OW36874   7.351   0.151   2.571
45012SOL    HW136875   7.261   0.177   2.588
45012SOL    HW236876   7.347   0.098   2.492
45013SOL     OW36877   3.717   3.350  13.162
45013SOL    HW136878   3.630   3.337  13.199
45013SOL    HW236879   3.701   3.388  13.076
45014SOL     OW36880  12.274   8.616   0.234
45014SOL    HW136881  12.308   8.703   0.254
45014SOL    HW236882  12.227   8.627   0.151
45015SOL     OW36883  10.993   4.085  10.328
45015SOL    HW136884  10.990   4.076  10.424
45015SOL    HW236885  10.954   4.170  10.311
45016SOL     OW36886  11.384  10.295   7.911
45016SOL    HW136887  11.418  10.370   7.861
45016SOL    HW236888  11.455  10.273   7.971
45017SOL     OW36889   6.900   1.200   0.438
45017SOL    HW136890   6.886   1.183   0.532
45017SOL    HW236891   6.982   1.155   0.418
45018SOL     OW36892   4.346  13.282  12.261
45018SOL    HW136893   4.406  13.326  12.202
45018SOL    HW236894   4.402  13.234  12.321
45019SOL     OW36895   7.170   8.926   7.764
45019SOL    HW136896   7.085   8.885   7.751
45019SOL    HW236897   7.203   8.888   7.846
45020SOL     OW36898  12.453   7.346   6.289
45020SOL    HW136899  12.505   7.405   6.344
45020SOL    HW236900  12.510   7.329   6.214
45021SOL     OW36901   2.676   9.174   7.803
45021SOL    HW136902   2.616   9.244   7.777
45021SOL    HW236903   2.762   9.215   7.802
45022SOL     OW36904   2.559   0.182   0.290
45022SOL    HW136905   2.550   0.125   0.367
45022SOL    HW236906   2.548   0.123   0.215
45023SOL     OW36907   1.110   5.753   9.748
45023SOL    HW136908   1.143   5.750   9.658
45023SOL    HW236909   1.132   5.667   9.784
45024SOL     OW36910  10.971  13.299  12.231
45024SOL    HW136911  11.006  13.262  12.150
45024SOL    HW236912  10.892  13.247  12.249
45025SOL     OW36913   9.103  12.834   1.332
45025SOL    HW136914   9.074  12.910   1.383
45025SOL    HW236915   9.091  12.860   1.241
45026SOL     OW36916   5.917   1.459   2.038
45026SOL    HW136917   5.993   1.428   1.989
45026SOL    HW236918   5.860   1.497   1.971
45027SOL     OW36919   4.820   1.089  13.097
45027SOL    HW136920   4.876   1.023  13.138
45027SOL    HW236921   4.834   1.168  13.149
45028SOL     OW36922   8.596   7.584  10.275
45028SOL    HW136923   8.681   7.562  10.312
45028SOL    HW236924   8.534   7.565  10.346
45029SOL     OW36925   5.030   7.132   9.746
45029SOL    HW136926   5.009   7.054   9.696
45029SOL    HW236927   5.049   7.199   9.680
45030SOL     OW36928   0.823   9.785   4.761
45030SOL    HW136929   0.795   9.855   4.702
45030SOL    HW236930   0.755   9.719   4.754
45031SOL     OW36931   5.663   0.875   4.149
45031SOL    HW136932   5.653   0.924   4.067
45031SOL    HW236933   5.756   0.880   4.169
45032SOL     OW36934   6.857  10.817   3.153
45032SOL    HW136935   6.852  10.898   3.102
45032SOL    HW236936   6.781  10.821   3.212
45033SOL     OW36937   4.548  12.362   9.955
45033SOL    HW136938   4.524  12.453   9.937
45033SOL    HW236939   4.527  12.315   9.874
45034SOL     OW36940  10.044  10.856   4.269
45034SOL    HW136941  10.094  10.937   4.260
45034SOL    HW236942   9.991  10.851   4.190
45035SOL     OW36943   0.326   5.594   0.968
45035SOL    HW136944   0.334   5.530   0.897
45035SOL    HW236945   0.382   5.560   1.038
45036SOL     OW36946  11.859   3.128   8.367
45036SOL    HW136947  11.833   3.211   8.328
45036SOL    HW236948  11.816   3.127   8.453
45037SOL     OW36949   9.105   7.863  13.396
45037SOL    HW136950   9.144   7.947  13.369
45037SOL    HW236951   9.117   7.806  13.320
45038SOL     OW36952  11.269   9.765   1.135
45038SOL    HW136953  11.292   9.686   1.087
45038SOL    HW236954  11.208   9.812   1.077
45039SOL     OW36955  14.359   0.314  13.250
45039SOL    HW136956  14.327   0.304  13.160
45039SOL    HW236957  14.453   0.328  13.240
45040SOL     OW36958  12.559  14.771   2.917
45040SOL    HW136959  12.551  14.754   2.823
45040SOL    HW236960  12.501  14.707   2.958
45041SOL     OW36961   9.824   2.189   7.757
45041SOL    HW136962   9.856   2.248   7.825
45041SOL    HW236963   9.728   2.196   7.762
45042SOL     OW36964  11.445   8.532   2.702
45042SOL    HW136965  11.512   8.596   2.724
45042SOL    HW236966  11.493   8.459   2.663
45043SOL     OW36967  10.053   1.221  11.399
45043SOL    HW136968   9.967   1.249  11.367
45043SOL    HW236969  10.113   1.239  11.326
45044SOL     OW36970  12.683   6.321  13.702
45044SOL    HW136971  12.763   6.269  13.709
45044SOL    HW236972  12.613   6.263  13.734
45045SOL     OW36973   1.637   7.342  10.724
45045SOL    HW136974   1.569   7.275  10.723
45045SOL    HW236975   1.598   7.416  10.678
45046SOL     OW36976  11.346   5.347   7.135
45046SOL    HW136977  11.418   5.308   7.086
45046SOL    HW236978  11.375   5.346   7.226
45047SOL     OW36979   5.075   3.160   3.199
45047SOL    HW136980   4.984   3.144   3.173
45047SOL    HW236981   5.100   3.240   3.152
45048SOL     OW36982  12.348   2.540   5.851
45048SOL    HW136983  12.294   2.566   5.777
45048SOL    HW236984  12.288   2.544   5.926
45049SOL     OW36985  12.551   9.741  10.317
45049SOL    HW136986  12.640   9.745  10.351
45049SOL    HW236987  12.498   9.709  10.389
45050SOL     OW36988   1.944   6.717  10.678
45050SOL    HW136989   1.849   6.727  10.683
45050SOL    HW236990   1.975   6.741  10.765
45051SOL     OW36991  14.353   8.808   0.590
45051SOL    HW136992  14.339   8.798   0.496
45051SOL    HW236993  14.266   8.819   0.627
45052SOL     OW36994   5.875   0.860   9.676
45052SOL    HW136995   5.843   0.943   9.641
45052SOL    HW236996   5.971   0.867   9.671
45053SOL     OW36997   7.302   8.101  11.905
45053SOL    HW136998   7.249   8.031  11.944
45053SOL    HW236999   7.332   8.152  11.979
45054SOL     OW37000   1.418   9.565   8.661
45054SOL    HW137001   1.392   9.589   8.573
45054SOL    HW237002   1.511   9.588   8.667
45055SOL     OW37003  13.332   7.007   6.471
45055SOL    HW137004  13.373   6.991   6.386
45055SOL    HW237005  13.399   6.983   6.535
45056SOL     OW37006   4.097  13.869   6.850
45056SOL    HW137007   4.040  13.819   6.792
45056SOL    HW237008   4.045  13.882   6.929
45057SOL     OW37009   7.512  11.818  12.970
45057SOL    HW137010   7.467  11.900  12.990
45057SOL    HW237011   7.454  11.750  13.005
45058SOL     OW37012   8.495   0.849  10.405
45058SOL    HW137013   8.565   0.910  10.429
45058SOL    HW237014   8.518   0.821  10.316
45059SOL     OW37015  10.020   0.044  13.818
45059SOL    HW137016  10.071   0.092  13.883
45059SOL    HW237017   9.945   0.102  13.799
45060SOL     OW37018   1.734   1.153   2.335
45060SOL    HW137019   1.822   1.180   2.310
45060SOL    HW237020   1.689   1.140   2.252
45061SOL     OW37021   7.762   9.322  10.342
45061SOL    HW137022   7.698   9.348  10.408
45061SOL    HW237023   7.750   9.385  10.270
45062SOL     OW37024   1.057   1.303   8.621
45062SOL    HW137025   1.074   1.222   8.668
45062SOL    HW237026   1.134   1.314   8.564
45063SOL     OW37027  14.518  11.220  10.900
45063SOL    HW137028  14.558  11.277  10.965
45063SOL    HW237029  14.451  11.171  10.948
45064SOL     OW37030  12.791   6.228  13.389
45064SOL    HW137031  12.835   6.312  13.373
45064SOL    HW237032  12.704   6.252  13.420
45065SOL     OW37033   0.320   6.406   0.608
45065SOL    HW137034   0.346   6.497   0.622
45065SOL    HW237035   0.261   6.387   0.681
45066SOL     OW37036   7.133   7.028  10.429
45066SOL    HW137037   7.121   6.939  10.395
45066SOL    HW237038   7.196   7.068  10.369
45067SOL     OW37039   3.567  14.166   7.914
45067SOL    HW137040   3.478  14.194   7.937
45067SOL    HW237041   3.604  14.135   7.997
45068SOL     OW37042   8.892  10.564   1.458
45068SOL    HW137043   8.861  10.495   1.517
45068SOL    HW237044   8.818  10.624   1.450
45069SOL     OW37045   4.867   5.803   2.906
45069SOL    HW137046   4.957   5.774   2.920
45069SOL    HW237047   4.837   5.832   2.993
45070SOL     OW37048   3.665  13.948   0.319
45070SOL    HW137049   3.739  13.887   0.310
45070SOL    HW237050   3.680  13.991   0.403
45071SOL     OW37051   9.668   3.967  14.163
45071SOL    HW137052   9.665   3.898  14.229
45071SOL    HW237053   9.616   4.039  14.201
45072SOL     OW37054   3.697  10.010   6.868
45072SOL    HW137055   3.780  10.056   6.877
45072SOL    HW237056   3.686   9.963   6.951
45073SOL     OW37057   4.337   6.356  11.615
45073SOL    HW137058   4.367   6.265  11.616
45073SOL    HW237059   4.349   6.386  11.705
45074SOL     OW37060   9.301   5.778   0.301
45074SOL    HW137061   9.207   5.796   0.300
45074SOL    HW237062   9.333   5.814   0.218
45075SOL     OW37063   7.162   4.122   0.814
45075SOL    HW137064   7.216   4.127   0.893
45075SOL    HW237065   7.165   4.030   0.789
45076SOL     OW37066   2.957   9.925  13.911
45076SOL    HW137067   2.942   9.841  13.868
45076SOL    HW237068   3.016   9.972  13.852
45077SOL     OW37069   4.132  14.718   8.747
45077SOL    HW137070   4.169  14.692   8.663
45077SOL    HW237071   4.143  14.813   8.750
45078SOL     OW37072   7.016   0.246   1.937
45078SOL    HW137073   7.053   0.299   2.007
45078SOL    HW237074   7.020   0.156   1.970
45079SOL     OW37075   4.633   7.591   6.034
45079SOL    HW137076   4.701   7.557   6.092
45079SOL    HW237077   4.558   7.607   6.092
45080SOL     OW37078   7.315   0.870   5.303
45080SOL    HW137079   7.289   0.887   5.213
45080SOL    HW237080   7.264   0.932   5.355
45081SOL     OW37081  14.674   8.611  14.020
45081SOL    HW137082  14.769   8.622  14.023
45081SOL    HW237083  14.645   8.669  13.950
45082SOL     OW37084   2.159   1.986  13.430
45082SOL    HW137085   2.229   2.022  13.376
45082SOL    HW237086   2.181   2.011  13.520
45083SOL     OW37087   4.230   8.868   3.573
45083SOL    HW137088   4.187   8.783   3.582
45083SOL    HW237089   4.259   8.871   3.482
45084SOL     OW37090   5.900  12.723  13.429
45084SOL    HW137091   5.995  12.721  13.445
45084SOL    HW237092   5.892  12.708  13.335
45085SOL     OW37093  10.394   0.131   1.544
45085SOL    HW137094  10.337   0.206   1.530
45085SOL    HW237095  10.354   0.085   1.618
45086SOL     OW37096   3.035  10.999   5.222
45086SOL    HW137097   3.097  11.047   5.167
45086SOL    HW237098   3.063  11.018   5.312
45087SOL     OW37099   0.493  12.874   6.430
45087SOL    HW137100   0.480  12.845   6.520
45087SOL    HW237101   0.588  12.882   6.421
45088SOL     OW37102   0.569  13.158   4.763
45088SOL    HW137103   0.614  13.243   4.757
45088SOL    HW237104   0.601  13.120   4.845
45089SOL     OW37105   6.797   3.323   4.203
45089SOL    HW137106   6.774   3.416   4.194
45089SOL    HW237107   6.871   3.322   4.263
45090SOL     OW37108   0.697   8.125   8.615
45090SOL    HW137109   0.707   8.201   8.557
45090SOL    HW237110   0.632   8.070   8.571
45091SOL     OW37111   5.810   1.320   4.395
45091SOL    HW137112   5.862   1.363   4.462
45091SOL    HW237113   5.744   1.385   4.370
45092SOL     OW37114   8.822   8.971  12.349
45092SOL    HW137115   8.916   8.986  12.335
45092SOL    HW237116   8.779   9.041  12.301
45093SOL     OW37117  10.886   3.590   7.226
45093SOL    HW137118  10.894   3.499   7.255
45093SOL    HW237119  10.821   3.587   7.156
45094SOL     OW37120   8.687   4.111  11.473
45094SOL    HW137121   8.638   4.193  11.483
45094SOL    HW237122   8.762   4.134  11.418
45095SOL     OW37123  12.829   7.182   3.980
45095SOL    HW137124  12.742   7.209   4.011
45095SOL    HW237125  12.889   7.211   4.048
45096SOL     OW37126   1.181   6.209   5.970
45096SOL    HW137127   1.231   6.158   5.905
45096SOL    HW237128   1.110   6.248   5.920
45097SOL     OW37129   1.237  11.343   0.535
45097SOL    HW137130   1.220  11.388   0.452
45097SOL    HW237131   1.170  11.378   0.594
45098SOL     OW37132   2.821   7.588  10.887
45098SOL    HW137133   2.817   7.498  10.918
45098SOL    HW237134   2.797   7.641  10.964
45099SOL     OW37135   4.661   7.582   4.048
45099SOL    HW137136   4.598   7.509   4.051
45099SOL    HW237137   4.685   7.597   4.139
45100SOL     OW37138   3.771   0.851   3.261
45100SOL    HW137139   3.823   0.886   3.188
45100SOL    HW237140   3.715   0.924   3.287
45101SOL     OW37141  14.089   7.170   6.324
45101SOL    HW137142  14.045   7.136   6.247
45101SOL    HW237143  14.132   7.093   6.363
45102SOL     OW37144   0.058   4.561   3.870
45102SOL    HW137145   0.104   4.494   3.819
45102SOL    HW237146   0.072   4.536   3.961
45103SOL     OW37147   9.843  14.401  13.131
45103SOL    HW137148   9.830  14.307  13.145
45103SOL    HW237149   9.773  14.443  13.180
45104SOL     OW37150   7.117   7.296   0.676
45104SOL    HW137151   7.195   7.267   0.628
45104SOL    HW237152   7.110   7.389   0.656
45105SOL     OW37153   9.926   8.425   6.089
45105SOL    HW137154   9.845   8.375   6.089
45105SOL    HW237155   9.981   8.383   6.022
45106SOL     OW37156  13.293  11.252   8.552
45106SOL    HW137157  13.282  11.238   8.458
45106SOL    HW237158  13.387  11.237   8.567
45107SOL     OW37159  14.753   7.190   4.656
45107SOL    HW137160  14.702   7.247   4.599
45107SOL    HW237161  14.744   7.103   4.617
45108SOL     OW37162  14.426  14.825  14.527
45108SOL    HW137163  14.361  14.809  14.595
45108SOL    HW237164  14.481  14.747  14.528
45109SOL     OW37165   1.276  13.618   3.286
45109SOL    HW137166   1.360  13.573   3.276
45109SOL    HW237167   1.294  13.708   3.259
45110SOL     OW37168  13.472   3.937  10.876
45110SOL    HW137169  13.491   3.852  10.836
45110SOL    HW237170  13.459   3.917  10.968
45111SOL     OW37171  11.501   4.140   7.005
45111SOL    HW137172  11.426   4.180   7.049
45111SOL    HW237173  11.478   4.048   6.995
45112SOL     OW37174  14.683   7.909   4.590
45112SOL    HW137175  14.620   7.848   4.553
45112SOL    HW237176  14.753   7.914   4.525
45113SOL     OW37177   2.947   5.875  10.040
45113SOL    HW137178   3.007   5.937  10.000
45113SOL    HW237179   2.986   5.789  10.023
45114SOL     OW37180   7.874   4.165   5.464
45114SOL    HW137181   7.814   4.210   5.404
45114SOL    HW237182   7.818   4.135   5.535
45115SOL     OW37183   9.365  12.544   6.588
45115SOL    HW137184   9.357  12.473   6.525
45115SOL    HW237185   9.456  12.541   6.616
45116SOL     OW37186   5.661   5.339   2.750
45116SOL    HW137187   5.712   5.392   2.689
45116SOL    HW237188   5.574   5.335   2.711
45117SOL     OW37189  10.240  13.649   4.969
45117SOL    HW137190  10.247  13.560   5.006
45117SOL    HW237191  10.328  13.668   4.936
45118SOL     OW37192   2.398   1.911  14.305
45118SOL    HW137193   2.426   1.977  14.368
45118SOL    HW237194   2.471   1.849  14.302
45119SOL     OW37195   4.941   9.536   5.980
45119SOL    HW137196   4.897   9.620   5.966
45119SOL    HW237197   4.883   9.488   6.038
45120SOL     OW37198   6.068  12.811   5.781
45120SOL    HW137199   6.125  12.735   5.783
45120SOL    HW237200   6.018  12.806   5.862
45121SOL     OW37201   9.359   1.751   3.101
45121SOL    HW137202   9.345   1.683   3.035
45121SOL    HW237203   9.277   1.800   3.103
45122SOL     OW37204  14.785   8.931   9.823
45122SOL    HW137205  14.860   8.889   9.782
45122SOL    HW237206  14.725   8.948   9.750
45123SOL     OW37207   4.943  13.272  12.986
45123SOL    HW137208   4.873  13.219  12.948
45123SOL    HW237209   5.024  13.234  12.951
45124SOL     OW37210   2.881   7.066   6.852
45124SOL    HW137211   2.851   6.992   6.799
45124SOL    HW237212   2.822   7.066   6.928
45125SOL     OW37213   5.305   8.412   5.456
45125SOL    HW137214   5.279   8.372   5.539
45125SOL    HW237215   5.401   8.406   5.456
45126SOL     OW37216  13.298  10.494   2.004
45126SOL    HW137217  13.221  10.448   2.037
45126SOL    HW237218  13.300  10.576   2.053
45127SOL     OW37219  14.617  11.251   5.845
45127SOL    HW137220  14.593  11.197   5.920
45127SOL    HW237221  14.535  11.266   5.799
45128SOL     OW37222   9.314   8.701   7.556
45128SOL    HW137223   9.220   8.702   7.573
45128SOL    HW237224   9.333   8.611   7.529
45129SOL     OW37225  13.486   0.875   9.815
45129SOL    HW137226  13.484   0.800   9.874
45129SOL    HW237227  13.515   0.840   9.731
45130SOL     OW37228   3.739   7.409   1.949
45130SOL    HW137229   3.704   7.437   2.034
45130SOL    HW237230   3.829   7.383   1.967
45131SOL     OW37231   6.589   1.678  13.779
45131SOL    HW137232   6.681   1.654  13.769
45131SOL    HW237233   6.543   1.626  13.713
45132SOL     OW37234  12.578  13.937   4.615
45132SOL    HW137235  12.484  13.931   4.633
45132SOL    HW237236  12.593  14.030   4.598
45133SOL     OW37237   5.058  12.930   0.439
45133SOL    HW137238   5.098  13.017   0.439
45133SOL    HW237239   5.115  12.877   0.495
45134SOL     OW37240   6.103   3.025   6.510
45134SOL    HW137241   6.188   2.988   6.532
45134SOL    HW237242   6.061   2.958   6.456
45135SOL     OW37243   1.004  10.247  10.330
45135SOL    HW137244   1.069  10.242  10.400
45135SOL    HW237245   1.005  10.338  10.302
45136SOL     OW37246  11.270   9.292   8.021
45136SOL    HW137247  11.209   9.313   8.092
45136SOL    HW237248  11.340   9.356   8.030
45137SOL     OW37249   8.053   7.973   6.408
45137SOL    HW137250   7.999   7.985   6.486
45137SOL    HW237251   8.023   7.891   6.370
45138SOL     OW37252   3.434  11.223   1.447
45138SOL    HW137253   3.441  11.274   1.528
45138SOL    HW237254   3.511  11.248   1.396
45139SOL     OW37255   0.799   2.269   3.015
45139SOL    HW137256   0.782   2.202   3.081
45139SOL    HW237257   0.803   2.221   2.933
45140SOL     OW37258  11.590   1.221   4.590
45140SOL    HW137259  11.570   1.127   4.593
45140SOL    HW237260  11.514   1.260   4.547
45141SOL     OW37261  13.036  13.755   0.558
45141SOL    HW137262  13.104  13.695   0.590
45141SOL    HW237263  12.984  13.701   0.498
45142SOL     OW37264   5.214   2.358  12.717
45142SOL    HW137265   5.154   2.428  12.690
45142SOL    HW237266   5.295   2.404  12.739
45143SOL     OW37267   5.922   7.493   6.345
45143SOL    HW137268   5.846   7.495   6.403
45143SOL    HW237269   5.903   7.422   6.283
45144SOL     OW37270   8.033   9.465   1.282
45144SOL    HW137271   8.034   9.541   1.341
45144SOL    HW237272   7.977   9.401   1.325
45145SOL     OW37273   7.458   3.443   5.352
45145SOL    HW137274   7.438   3.476   5.440
45145SOL    HW237275   7.521   3.372   5.367
45146SOL     OW37276   7.764  13.223   2.635
45146SOL    HW137277   7.832  13.290   2.636
45146SOL    HW237278   7.744  13.206   2.727
45147SOL     OW37279  13.247  13.194   5.632
45147SOL    HW137280  13.227  13.205   5.539
45147SOL    HW237281  13.340  13.172   5.635
45148SOL     OW37282  14.499   2.117  13.111
45148SOL    HW137283  14.469   2.195  13.064
45148SOL    HW237284  14.538   2.062  13.044
45149SOL     OW37285   7.810   8.374  11.330
45149SOL    HW137286   7.777   8.420  11.408
45149SOL    HW237287   7.903   8.397  11.327
45150SOL     OW37288   3.895   7.468   6.825
45150SOL    HW137289   3.967   7.405   6.830
45150SOL    HW237290   3.913   7.518   6.745
45151SOL     OW37291   8.260  11.301   0.865
45151SOL    HW137292   8.236  11.244   0.792
45151SOL    HW237293   8.177  11.325   0.906
45152SOL     OW37294   7.874   9.306   4.552
45152SOL    HW137295   7.792   9.257   4.545
45152SOL    HW237296   7.855   9.391   4.514
45153SOL     OW37297   0.226   3.662   9.787
45153SOL    HW137298   0.310   3.633   9.750
45153SOL    HW237299   0.237   3.756   9.800
45154SOL     OW37300  10.212   8.764  13.983
45154SOL    HW137301  10.285   8.797  14.035
45154SOL    HW237302  10.175   8.842  13.941
45155SOL     OW37303   5.304  14.252  12.780
45155SOL    HW137304   5.276  14.326  12.727
45155SOL    HW237305   5.398  14.267  12.793
45156SOL     OW37306  11.255   4.371  13.282
45156SOL    HW137307  11.293   4.407  13.202
45156SOL    HW237308  11.162   4.392  13.277
45157SOL     OW37309   8.803   0.513   8.630
45157SOL    HW137310   8.716   0.529   8.667
45157SOL    HW237311   8.863   0.550   8.694
45158SOL     OW37312   1.362   7.780   6.351
45158SOL    HW137313   1.394   7.705   6.401
45158SOL    HW237314   1.324   7.839   6.416
45159SOL     OW37315  10.244   6.941   8.614
45159SOL    HW137316  10.174   6.881   8.639
45159SOL    HW237317  10.210   6.986   8.537
45160SOL     OW37318   9.446  13.159  13.015
45160SOL    HW137319   9.374  13.141  13.075
45160SOL    HW237320   9.466  13.252  13.028
45161SOL     OW37321   8.319   2.329   1.134
45161SOL    HW137322   8.243   2.354   1.081
45161SOL    HW237323   8.296   2.354   1.223
45162SOL     OW37324   4.874  13.992   6.766
45162SOL    HW137325   4.797  13.998   6.823
45162SOL    HW237326   4.845  14.033   6.684
45163SOL     OW37327  10.839  13.695  11.101
45163SOL    HW137328  10.803  13.620  11.148
45163SOL    HW237329  10.857  13.661  11.013
45164SOL     OW37330  13.214   1.877  10.918
45164SOL    HW137331  13.273   1.827  10.861
45164SOL    HW237332  13.153   1.811  10.951
45165SOL     OW37333   6.804   0.027   7.192
45165SOL    HW137334   6.860   0.035   7.115
45165SOL    HW237335   6.834   0.097   7.251
45166SOL     OW37336   9.412  14.170   2.106
45166SOL    HW137337   9.404  14.131   2.019
45166SOL    HW237338   9.462  14.250   2.092
45167SOL     OW37339  14.199   3.360   9.816
45167SOL    HW137340  14.283   3.325   9.784
45167SOL    HW237341  14.223   3.441   9.862
45168SOL     OW37342   7.668   5.696   9.391
45168SOL    HW137343   7.604   5.684   9.321
45168SOL    HW237344   7.738   5.747   9.351
45169SOL     OW37345   3.686   5.432   9.608
45169SOL    HW137346   3.731   5.512   9.633
45169SOL    HW237347   3.755   5.366   9.599
45170SOL     OW37348  12.612   8.482  12.697
45170SOL    HW137349  12.561   8.562  12.691
45170SOL    HW237350  12.676   8.499  12.766
45171SOL     OW37351   7.199   2.700  13.014
45171SOL    HW137352   7.247   2.637  13.069
45171SOL    HW237353   7.220   2.785  13.051
45172SOL     OW37354   1.852  11.125   1.430
45172SOL    HW137355   1.926  11.183   1.417
45172SOL    HW237356   1.884  11.057   1.490
45173SOL     OW37357  13.805   6.390   4.207
45173SOL    HW137358  13.745   6.426   4.142
45173SOL    HW237359  13.765   6.306   4.231
45174SOL     OW37360  14.152   4.550   2.677
45174SOL    HW137361  14.092   4.548   2.751
45174SOL    HW237362  14.211   4.623   2.696
45175SOL     OW37363   0.167   9.565   9.439
45175SOL    HW137364   0.257   9.559   9.471
45175SOL    HW237365   0.137   9.652   9.467
45176SOL     OW37366   8.543  11.636   6.676
45176SOL    HW137367   8.454  11.638   6.711
45176SOL    HW237368   8.554  11.546   6.645
45177SOL     OW37369   9.413  14.855   9.293
45177SOL    HW137370   9.338  14.802   9.318
45177SOL    HW237371   9.379   0.033   9.226
45178SOL     OW37372   5.335   1.715   1.618
45178SOL    HW137373   5.308   1.793   1.666
45178SOL    HW237374   5.405   1.746   1.559
45179SOL     OW37375   7.237   5.414  10.213
45179SOL    HW137376   7.169   5.462  10.166
45179SOL    HW237377   7.301   5.392  10.145
45180SOL     OW37378  14.238  10.960  13.705
45180SOL    HW137379  14.332  10.972  13.693
45180SOL    HW237380  14.199  10.986  13.621
45181SOL     OW37381   1.504  14.455   3.472
45181SOL    HW137382   1.493  14.452   3.567
45181SOL    HW237383   1.557  14.534   3.457
45182SOL     OW37384   9.192   9.275  14.470
45182SOL    HW137385   9.137   9.202  14.501
45182SOL    HW237386   9.240   9.304  14.547
45183SOL     OW37387   5.667   7.179  14.022
45183SOL    HW137388   5.578   7.190  13.990
45183SOL    HW237389   5.665   7.214  14.111
45184SOL     OW37390   8.953  11.344  14.384
45184SOL    HW137391   8.912  11.290  14.316
45184SOL    HW237392   8.879  11.390  14.425
45185SOL     OW37393   7.280   2.371  11.065
45185SOL    HW137394   7.323   2.444  11.108
45185SOL    HW237395   7.348   2.303  11.060
45186SOL     OW37396  14.266   7.317   5.163
45186SOL    HW137397  14.180   7.360   5.163
45186SOL    HW237398  14.318   7.367   5.100
45187SOL     OW37399   2.320   9.351   5.021
45187SOL    HW137400   2.372   9.312   5.091
45187SOL    HW237401   2.365   9.324   4.941
45188SOL     OW37402  11.627   6.764   3.317
45188SOL    HW137403  11.533   6.759   3.335
45188SOL    HW237404  11.634   6.770   3.222
45189SOL     OW37405   6.342  12.591  11.170
45189SOL    HW137406   6.263  12.538  11.181
45189SOL    HW237407   6.394  12.574  11.249
45190SOL     OW37408   7.315   2.774  11.619
45190SOL    HW137409   7.328   2.753  11.527
45190SOL    HW237410   7.263   2.701  11.653
45191SOL     OW37411   5.002   5.788   8.107
45191SOL    HW137412   5.083   5.786   8.159
45191SOL    HW237413   4.970   5.877   8.117
45192SOL     OW37414   9.199   2.732  14.742
45192SOL    HW137415   9.211   2.822  14.773
45192SOL    HW237416   9.122   2.735  14.686
45193SOL     OW37417   2.113   9.508   4.979
45193SOL    HW137418   2.188   9.459   5.013
45193SOL    HW237419   2.053   9.441   4.947
45194SOL     OW37420   0.033   3.175  11.224
45194SOL    HW137421   0.065   3.196  11.136
45194SOL    HW237422  14.849   3.107  11.209
45195SOL     OW37423   4.438   2.408  11.477
45195SOL    HW137424   4.501   2.463  11.522
45195SOL    HW237425   4.423   2.451  11.393
45196SOL     OW37426   5.919   9.436   1.590
45196SOL    HW137427   6.002   9.443   1.544
45196SOL    HW237428   5.911   9.343   1.611
45197SOL     OW37429   1.566   4.868   1.098
45197SOL    HW137430   1.634   4.818   1.143
45197SOL    HW237431   1.562   4.830   1.011
45198SOL     OW37432   0.224   4.412   3.693
45198SOL    HW137433   0.205   4.333   3.642
45198SOL    HW237434   0.317   4.405   3.715
45199SOL     OW37435   0.453   0.281  14.362
45199SOL    HW137436   0.404   0.331  14.297
45199SOL    HW237437   0.504   0.218  14.311
45200SOL     OW37438   8.165   8.619  12.219
45200SOL    HW137439   8.166   8.526  12.201
45200SOL    HW237440   8.252   8.650  12.194
45201SOL     OW37441   3.513   6.112   2.105
45201SOL    HW137442   3.431   6.103   2.057
45201SOL    HW237443   3.487   6.143   2.191
45202SOL     OW37444   3.655   1.296  13.933
45202SOL    HW137445   3.702   1.225  13.890
45202SOL    HW237446   3.690   1.376  13.892
45203SOL     OW37447   1.133  12.373   5.795
45203SOL    HW137448   1.132  12.352   5.888
45203SOL    HW237449   1.082  12.453   5.788
45204SOL     OW37450   4.691  11.605  12.686
45204SOL    HW137451   4.705  11.550  12.609
45204SOL    HW237452   4.654  11.687  12.651
45205SOL     OW37453  10.074   6.998  10.274
45205SOL    HW137454  10.140   7.033  10.335
45205SOL    HW237455   9.992   7.000  10.324
45206SOL     OW37456   8.992  13.287   0.948
45206SOL    HW137457   9.024  13.317   0.863
45206SOL    HW237458   9.036  13.203   0.962
45207SOL     OW37459   4.556   6.594   6.329
45207SOL    HW137460   4.635   6.557   6.291
45207SOL    HW237461   4.486   6.535   6.301
45208SOL     OW37462  12.043   3.405   0.628
45208SOL    HW137463  12.130   3.398   0.667
45208SOL    HW237464  12.034   3.326   0.575
45209SOL     OW37465   3.513   2.716   9.282
45209SOL    HW137466   3.527   2.803   9.319
45209SOL    HW237467   3.570   2.712   9.205
45210SOL     OW37468  13.305  10.590   2.414
45210SOL    HW137469  13.261  10.656   2.467
45210SOL    HW237470  13.269  10.507   2.443
45211SOL     OW37471  14.195   0.562   5.130
45211SOL    HW137472  14.161   0.620   5.199
45211SOL    HW237473  14.290   0.564   5.143
45212SOL     OW37474   9.876  11.737  12.511
45212SOL    HW137475   9.814  11.806  12.537
45212SOL    HW237476   9.924  11.775  12.438
45213SOL     OW37477  11.562   3.940  13.259
45213SOL    HW137478  11.580   3.945  13.165
45213SOL    HW237479  11.628   3.880  13.293
45214SOL     OW37480   9.865   4.054   0.289
45214SOL    HW137481   9.843   4.095   0.373
45214SOL    HW237482   9.917   4.119   0.243
45215SOL     OW37483  10.474   2.687   1.234
45215SOL    HW137484  10.520   2.662   1.315
45215SOL    HW237485  10.515   2.633   1.166
45216SOL     OW37486   7.445  10.633   2.532
45216SOL    HW137487   7.437  10.692   2.457
45216SOL    HW237488   7.380  10.665   2.595
45217SOL     OW37489  14.093   3.859   7.751
45217SOL    HW137490  14.161   3.876   7.685
45217SOL    HW237491  14.021   3.820   7.701
45218SOL     OW37492   6.064   3.324   7.771
45218SOL    HW137493   6.064   3.257   7.840
45218SOL    HW237494   6.099   3.402   7.813
45219SOL     OW37495   7.234   2.229  12.306
45219SOL    HW137496   7.290   2.196  12.377
45219SOL    HW237497   7.245   2.164  12.236
45220SOL     OW37498  10.313  11.237   1.606
45220SOL    HW137499  10.271  11.181   1.541
45220SOL    HW237500  10.272  11.212   1.689
45221SOL     OW37501   1.616  11.188  11.222
45221SOL    HW137502   1.524  11.215  11.223
45221SOL    HW237503   1.665  11.270  11.213
45222SOL     OW37504   0.596  14.044  14.113
45222SOL    HW137505   0.634  14.079  14.194
45222SOL    HW237506   0.537  13.975  14.143
45223SOL     OW37507   5.349  14.567   0.281
45223SOL    HW137508   5.328  14.498   0.344
45223SOL    HW237509   5.303  14.644   0.313
45224SOL     OW37510   1.317   1.892   2.233
45224SOL    HW137511   1.234   1.851   2.207
45224SOL    HW237512   1.326   1.967   2.176
45225SOL     OW37513   4.501   4.235   5.774
45225SOL    HW137514   4.489   4.236   5.869
45225SOL    HW237515   4.515   4.142   5.753
45226SOL     OW37516  11.659   8.893   4.232
45226SOL    HW137517  11.662   8.857   4.321
45226SOL    HW237518  11.727   8.959   4.231
45227SOL     OW37519   9.902   3.350  13.116
45227SOL    HW137520   9.857   3.386  13.192
45227SOL    HW237521   9.995   3.359  13.136
45228SOL     OW37522   4.159  12.223   6.717
45228SOL    HW137523   4.185  12.316   6.717
45228SOL    HW237524   4.242  12.175   6.719
45229SOL     OW37525  13.897  13.763   3.577
45229SOL    HW137526  13.827  13.816   3.538
45229SOL    HW237527  13.977  13.811   3.559
45230SOL     OW37528   9.260   9.637  14.604
45230SOL    HW137529   9.263   9.570  14.672
45230SOL    HW237530   9.346   9.678  14.607
45231SOL     OW37531   2.897   7.703   0.330
45231SOL    HW137532   2.983   7.662   0.342
45231SOL    HW237533   2.860   7.657   0.255
45232SOL     OW37534   9.465   8.870   2.244
45232SOL    HW137535   9.490   8.927   2.316
45232SOL    HW237536   9.387   8.910   2.207
45233SOL     OW37537   5.003  12.037   7.792
45233SOL    HW137538   5.078  11.999   7.746
45233SOL    HW237539   4.946  11.962   7.811
45234SOL     OW37540   0.948   9.607   9.133
45234SOL    HW137541   1.035   9.619   9.172
45234SOL    HW237542   0.962   9.620   9.039
45235SOL     OW37543   6.662   0.442   0.619
45235SOL    HW137544   6.710   0.522   0.599
45235SOL    HW237545   6.571   0.463   0.603
45236SOL     OW37546  12.332   5.675   6.893
45236SOL    HW137547  12.381   5.602   6.930
45236SOL    HW237548  12.241   5.647   6.895
45237SOL     OW37549   2.198   8.701   2.215
45237SOL    HW137550   2.212   8.794   2.200
45237SOL    HW237551   2.185   8.663   2.128
45238SOL     OW37552   6.317   6.224   1.386
45238SOL    HW137553   6.396   6.181   1.355
45238SOL    HW237554   6.330   6.317   1.364
45239SOL     OW37555  14.139  13.045   3.996
45239SOL    HW137556  14.128  12.950   4.001
45239SOL    HW237557  14.234  13.058   3.998
45240SOL     OW37558   6.884  11.768   6.033
45240SOL    HW137559   6.976  11.777   6.057
45240SOL    HW237560   6.848  11.856   6.043
45241SOL     OW37561   5.240  12.922  10.774
45241SOL    HW137562   5.309  12.932  10.708
45241SOL    HW237563   5.238  13.007  10.819
45242SOL     OW37564   9.375   7.590   1.317
45242SOL    HW137565   9.438   7.661   1.331
45242SOL    HW237566   9.299   7.632   1.276
45243SOL     OW37567   4.366   7.822  13.592
45243SOL    HW137568   4.426   7.781  13.655
45243SOL    HW237569   4.281   7.781  13.610
45244SOL     OW37570   7.734   9.811   8.991
45244SOL    HW137571   7.686   9.733   8.962
45244SOL    HW237572   7.701   9.829   9.079
45245SOL     OW37573   4.480   0.511   6.045
45245SOL    HW137574   4.425   0.539   6.118
45245SOL    HW237575   4.422   0.516   5.969
45246SOL     OW37576  13.096   7.055   2.667
45246SOL    HW137577  13.070   7.098   2.585
45246SOL    HW237578  13.031   7.085   2.731
45247SOL     OW37579  10.546   7.172   4.962
45247SOL    HW137580  10.606   7.127   5.022
45247SOL    HW237581  10.487   7.221   5.020
45248SOL     OW37582  10.570  12.781   6.457
45248SOL    HW137583  10.527  12.719   6.516
45248SOL    HW237584  10.574  12.735   6.373
45249SOL     OW37585   2.751   6.786   9.326
45249SOL    HW137586   2.808   6.841   9.272
45249SOL    HW237587   2.795   6.782   9.411
45250SOL     OW37588   2.713   9.357   6.168
45250SOL    HW137589   2.684   9.432   6.116
45250SOL    HW237590   2.807   9.349   6.148
45251SOL     OW37591   4.665   3.640   1.599
45251SOL    HW137592   4.726   3.714   1.602
45251SOL    HW237593   4.584   3.674   1.637
45252SOL     OW37594   5.030   7.469   4.201
45252SOL    HW137595   5.063   7.504   4.118
45252SOL    HW237596   4.963   7.406   4.176
45253SOL     OW37597  10.062   2.102   5.590
45253SOL    HW137598  10.004   2.086   5.516
45253SOL    HW237599  10.011   2.158   5.649
45254SOL     OW37600  10.601  11.736  11.838
45254SOL    HW137601  10.581  11.822  11.874
45254SOL    HW237602  10.660  11.696  11.902
45255SOL     OW37603   9.869  13.276   8.820
45255SOL    HW137604   9.846  13.367   8.838
45255SOL    HW237605   9.837  13.260   8.731
45256SOL     OW37606   6.591   9.806   2.334
45256SOL    HW137607   6.672   9.808   2.284
45256SOL    HW237608   6.605   9.866   2.407
45257SOL     OW37609   3.200   5.441  12.557
45257SOL    HW137610   3.243   5.423  12.641
45257SOL    HW237611   3.198   5.357  12.513
45258SOL     OW37612   2.548  10.140   9.407
45258SOL    HW137613   2.593  10.058   9.385
45258SOL    HW237614   2.573  10.157   9.498
45259SOL     OW37615   8.329  11.606   6.970
45259SOL    HW137616   8.422  11.622   6.953
45259SOL    HW237617   8.295  11.572   6.887
45260SOL     OW37618   4.225   4.264   5.135
45260SOL    HW137619   4.202   4.331   5.200
45260SOL    HW237620   4.316   4.283   5.112
45261SOL     OW37621   2.342  13.706   2.891
45261SOL    HW137622   2.324  13.679   2.801
45261SOL    HW237623   2.437  13.696   2.900
45262SOL     OW37624   8.772  12.538   2.837
45262SOL    HW137625   8.742  12.589   2.762
45262SOL    HW237626   8.760  12.596   2.912
45263SOL     OW37627  12.737   5.842  12.907
45263SOL    HW137628  12.767   5.780  12.973
45263SOL    HW237629  12.761   5.802  12.824
45264SOL     OW37630   4.043   2.355   8.847
45264SOL    HW137631   4.047   2.448   8.824
45264SOL    HW237632   4.007   2.353   8.935
45265SOL     OW37633   4.256  10.154   8.828
45265SOL    HW137634   4.199  10.088   8.869
45265SOL    HW237635   4.219  10.238   8.857
45266SOL     OW37636   7.094   6.835  14.531
45266SOL    HW137637   7.127   6.917  14.493
45266SOL    HW237638   7.057   6.788  14.456
45267SOL     OW37639   4.648   4.692   8.264
45267SOL    HW137640   4.557   4.705   8.288
45267SOL    HW237641   4.646   4.663   8.173
45268SOL     OW37642   3.191   1.951   4.432
45268SOL    HW137643   3.159   2.035   4.398
45268SOL    HW237644   3.112   1.899   4.445
45269SOL     OW37645  11.261   7.412   6.831
45269SOL    HW137646  11.317   7.473   6.784
45269SOL    HW237647  11.322   7.352   6.874
45270SOL     OW37648   4.553  14.108  14.594
45270SOL    HW137649   4.525  14.158  14.671
45270SOL    HW237650   4.597  14.173  14.539
45271SOL     OW37651   4.170  14.679   4.049
45271SOL    HW137652   4.208  14.746   4.106
45271SOL    HW237653   4.206  14.698   3.962
45272SOL     OW37654   6.723   6.738  13.896
45272SOL    HW137655   6.646   6.735  13.840
45272SOL    HW237656   6.688   6.750  13.984
45273SOL     OW37657  13.297   9.557   5.719
45273SOL    HW137658  13.308   9.471   5.759
45273SOL    HW237659  13.386   9.582   5.691
45274SOL     OW37660  10.394   9.872   7.609
45274SOL    HW137661  10.425   9.940   7.669
45274SOL    HW237662  10.337   9.918   7.547
45275SOL     OW37663   5.911   6.076   2.791
45275SOL    HW137664   5.855   6.009   2.752
45275SOL    HW237665   5.851   6.140   2.828
45276SOL     OW37666   0.786  14.658  10.423
45276SOL    HW137667   0.714  14.606  10.388
45276SOL    HW237668   0.845  14.670  10.349
45277SOL     OW37669   1.331   3.479   2.605
45277SOL    HW137670   1.314   3.408   2.542
45277SOL    HW237671   1.385   3.541   2.556
45278SOL     OW37672   0.285   1.408   4.862
45278SOL    HW137673   0.300   1.461   4.940
45278SOL    HW237674   0.324   1.459   4.791
45279SOL     OW37675  13.272  14.685  13.281
45279SOL    HW137676  13.349  14.717  13.329
45279SOL    HW237677  13.247  14.759  13.225
45280SOL     OW37678   3.363   8.546   7.522
45280SOL    HW137679   3.312   8.470   7.550
45280SOL    HW237680   3.445   8.508   7.488
45281SOL     OW37681  11.677   8.445   1.142
45281SOL    HW137682  11.714   8.420   1.058
45281SOL    HW237683  11.594   8.398   1.148
45282SOL     OW37684   3.643  13.024   0.860
45282SOL    HW137685   3.707  13.044   0.928
45282SOL    HW237686   3.592  13.105   0.850
45283SOL     OW37687   9.497   3.254   6.032
45283SOL    HW137688   9.439   3.306   6.087
45283SOL    HW237689   9.500   3.168   6.075
45284SOL     OW37690   2.555   6.787   3.064
45284SOL    HW137691   2.620   6.838   3.112
45284SOL    HW237692   2.500   6.853   3.020
45285SOL     OW37693   7.212  11.211   9.642
45285SOL    HW137694   7.196  11.217   9.547
45285SOL    HW237695   7.297  11.255   9.654
45286SOL     OW37696   7.065   2.977   6.378
45286SOL    HW137697   7.111   3.055   6.346
45286SOL    HW237698   7.113   2.952   6.458
45287SOL     OW37699  14.645  12.331   9.227
45287SOL    HW137700  14.606  12.415   9.200
45287SOL    HW237701  14.724  12.324   9.174
45288SOL     OW37702   3.230   3.826   9.517
45288SOL    HW137703   3.162   3.884   9.483
45288SOL    HW237704   3.268   3.785   9.439
45289SOL     OW37705   8.127  12.484  13.199
45289SOL    HW137706   8.171  12.516  13.121
45289SOL    HW237707   8.187  12.505  13.271
45290SOL     OW37708   4.704  13.667   1.716
45290SOL    HW137709   4.705  13.723   1.794
45290SOL    HW237710   4.640  13.599   1.735
45291SOL     OW37711   6.816   0.575   9.202
45291SOL    HW137712   6.847   0.520   9.274
45291SOL    HW237713   6.733   0.611   9.234
45292SOL     OW37714   3.516  11.568   2.957
45292SOL    HW137715   3.599  11.562   2.909
45292SOL    HW237716   3.510  11.486   3.006
45293SOL     OW37717   5.313  10.645   5.949
45293SOL    HW137718   5.357  10.655   5.865
45293SOL    HW237719   5.269  10.729   5.964
45294SOL     OW37720   6.088   3.030  14.665
45294SOL    HW137721   6.000   3.011  14.632
45294SOL    HW237722   6.137   2.949  14.649
45295SOL     OW37723  10.893   6.479  13.763
45295SOL    HW137724  10.921   6.414  13.698
45295SOL    HW237725  10.810   6.512  13.728
45296SOL     OW37726   4.187  14.351   7.941
45296SOL    HW137727   4.172  14.265   7.901
45296SOL    HW237728   4.263  14.338   7.998
45297SOL     OW37729   5.779  11.509   1.835
45297SOL    HW137730   5.713  11.464   1.782
45297SOL    HW237731   5.862  11.489   1.791
45298SOL     OW37732  14.867   5.018  10.600
45298SOL    HW137733   0.007   4.932  10.565
45298SOL    HW237734  14.783   5.039  10.561
45299SOL     OW37735   8.072  11.567   1.780
45299SOL    HW137736   8.163  11.540   1.795
45299SOL    HW237737   8.067  11.584   1.686
45300SOL     OW37738   0.780  13.473  10.250
45300SOL    HW137739   0.799  13.402  10.189
45300SOL    HW237740   0.756  13.547  10.193
45301SOL     OW37741  10.268   9.824   0.639
45301SOL    HW137742  10.326   9.816   0.715
45301SOL    HW237743  10.320   9.872   0.574
45302SOL     OW37744   3.253  12.961   8.268
45302SOL    HW137745   3.233  12.995   8.355
45302SOL    HW237746   3.188  13.002   8.211
45303SOL     OW37747   2.466   6.239   5.708
45303SOL    HW137748   2.536   6.272   5.653
45303SOL    HW237749   2.406   6.313   5.718
45304SOL     OW37750  10.743  12.531   7.861
45304SOL    HW137751  10.652  12.529   7.830
45304SOL    HW237752  10.795  12.513   7.782
45305SOL     OW37753   7.079  12.469   5.578
45305SOL    HW137754   7.047  12.428   5.659
45305SOL    HW237755   7.114  12.553   5.607
45306SOL     OW37756   8.605   0.143   3.991
45306SOL    HW137757   8.679   0.095   3.954
45306SOL    HW237758   8.645   0.211   4.045
45307SOL     OW37759   4.586  13.434  10.455
45307SOL    HW137760   4.636  13.360  10.419
45307SOL    HW237761   4.653  13.489  10.497
45308SOL     OW37762   4.054   3.554   4.190
45308SOL    HW137763   4.057   3.578   4.283
45308SOL    HW237764   3.993   3.481   4.186
45309SOL     OW37765   9.042   8.858  10.318
45309SOL    HW137766   8.999   8.930  10.363
45309SOL    HW237767   8.972   8.816  10.267
45310SOL     OW37768  11.756  11.058   9.625
45310SOL    HW137769  11.663  11.043   9.608
45310SOL    HW237770  11.801  10.995   9.570
45311SOL     OW37771  13.844   2.156  10.463
45311SOL    HW137772  13.843   2.134  10.556
45311SOL    HW237773  13.935   2.145  10.436
45312SOL     OW37774   5.187   3.391   5.241
45312SOL    HW137775   5.191   3.458   5.310
45312SOL    HW237776   5.103   3.406   5.199
45313SOL     OW37777   6.287   2.370   2.433
45313SOL    HW137778   6.372   2.362   2.390
45313SOL    HW237779   6.256   2.458   2.411
45314SOL     OW37780  11.788   5.165   3.492
45314SOL    HW137781  11.848   5.176   3.566
45314SOL    HW237782  11.764   5.072   3.495
45315SOL     OW37783   5.231   5.071  11.539
45315SOL    HW137784   5.151   5.084  11.489
45315SOL    HW237785   5.209   5.100  11.628
45316SOL     OW37786   4.809   9.595   8.745
45316SOL    HW137787   4.809   9.509   8.788
45316SOL    HW237788   4.722   9.601   8.705
45317SOL     OW37789  13.829   2.354   2.697
45317SOL    HW137790  13.884   2.397   2.762
45317SOL    HW237791  13.890   2.305   2.642
45318SOL     OW37792  11.468   6.270   9.828
45318SOL    HW137793  11.520   6.273   9.908
45318SOL    HW237794  11.518   6.214   9.768
45319SOL     OW37795   8.716   9.100  12.775
45319SOL    HW137796   8.778   9.171  12.790
45319SOL    HW237797   8.732   9.038  12.847
45320SOL     OW37798  10.233  13.390   9.085
45320SOL    HW137799  10.163  13.335   9.052
45320SOL    HW237800  10.190  13.453   9.143
45321SOL     OW37801   1.435   0.690   3.250
45321SOL    HW137802   1.437   0.785   3.265
45321SOL    HW237803   1.526   0.663   3.259
45322SOL     OW37804   6.610   5.790   3.354
45322SOL    HW137805   6.685   5.741   3.323
45322SOL    HW237806   6.634   5.818   3.443
45323SOL     OW37807  12.108   3.402   1.807
45323SOL    HW137808  12.044   3.423   1.738
45323SOL    HW237809  12.059   3.411   1.889
45324SOL     OW37810  11.124  11.161  14.137
45324SOL    HW137811  11.064  11.219  14.091
45324SOL    HW237812  11.068  11.091  14.172
45325SOL     OW37813   9.507  13.704   3.589
45325SOL    HW137814   9.493  13.693   3.683
45325SOL    HW237815   9.586  13.758   3.583
45326SOL     OW37816  11.908  12.528  12.042
45326SOL    HW137817  11.876  12.615  12.017
45326SOL    HW237818  11.943  12.491  11.960
45327SOL     OW37819   9.438   2.093  12.950
45327SOL    HW137820   9.373   2.061  12.888
45327SOL    HW237821   9.415   2.185  12.964
45328SOL     OW37822   3.412  13.860   6.379
45328SOL    HW137823   3.503  13.887   6.365
45328SOL    HW237824   3.360  13.937   6.357
45329SOL     OW37825   8.531   2.817   6.933
45329SOL    HW137826   8.589   2.821   7.009
45329SOL    HW237827   8.496   2.906   6.925
45330SOL     OW37828  10.761  11.346   1.193
45330SOL    HW137829  10.683  11.312   1.150
45330SOL    HW237830  10.735  11.360   1.284
45331SOL     OW37831   5.734   3.032   3.446
45331SOL    HW137832   5.723   3.032   3.541
45331SOL    HW237833   5.649   3.004   3.412
45332SOL     OW37834   5.400   1.028  10.299
45332SOL    HW137835   5.311   1.052  10.275
45332SOL    HW237836   5.438   0.990  10.220
45333SOL     OW37837   0.420  10.888  13.562
45333SOL    HW137838   0.369  10.819  13.520
45333SOL    HW237839   0.362  10.925  13.628
45334SOL     OW37840  14.613   4.890   8.809
45334SOL    HW137841  14.604   4.843   8.726
45334SOL    HW237842  14.695   4.858   8.846
45335SOL     OW37843   4.825   7.503   5.111
45335SOL    HW137844   4.893   7.562   5.141
45335SOL    HW237845   4.842   7.421   5.156
45336SOL     OW37846   8.124   9.243  13.908
45336SOL    HW137847   8.122   9.177  13.977
45336SOL    HW237848   8.200   9.220  13.855
45337SOL     OW37849   5.855   2.565   6.346
45337SOL    HW137850   5.889   2.654   6.332
45337SOL    HW237851   5.767   2.579   6.383
45338SOL     OW37852  12.518  10.251   3.914
45338SOL    HW137853  12.523  10.196   3.991
45338SOL    HW237854  12.595  10.228   3.862
45339SOL     OW37855  10.016   2.678   4.370
45339SOL    HW137856  10.020   2.603   4.310
45339SOL    HW237857  10.094   2.730   4.350
45340SOL     OW37858   3.645  11.158   6.758
45340SOL    HW137859   3.599  11.171   6.841
45340SOL    HW237860   3.687  11.243   6.741
45341SOL     OW37861   4.590  13.665   4.641
45341SOL    HW137862   4.547  13.583   4.666
45341SOL    HW237863   4.679  13.639   4.617
45342SOL     OW37864   6.103   5.024   4.905
45342SOL    HW137865   6.108   4.962   4.978
45342SOL    HW237866   6.191   5.061   4.899
45343SOL     OW37867   5.334   5.191  10.284
45343SOL    HW137868   5.285   5.203  10.203
45343SOL    HW237869   5.312   5.103  10.313
45344SOL     OW37870  14.436   5.335  10.316
45344SOL    HW137871  14.532   5.335  10.309
45344SOL    HW237872  14.418   5.349  10.409
45345SOL     OW37873   9.157   9.455   0.638
45345SOL    HW137874   9.182   9.381   0.693
45345SOL    HW237875   9.226   9.461   0.572
45346SOL     OW37876  11.978   1.523  13.519
45346SOL    HW137877  12.002   1.610  13.552
45346SOL    HW237878  12.049   1.499  13.460
45347SOL     OW37879   5.235   9.437   3.730
45347SOL    HW137880   5.212   9.350   3.698
45347SOL    HW237881   5.152   9.480   3.746
45348SOL     OW37882  10.991   3.763   3.008
45348SOL    HW137883  10.920   3.757   2.943
45348SOL    HW237884  11.018   3.855   3.007
45349SOL     OW37885   3.984   2.698  13.170
45349SOL    HW137886   4.045   2.661  13.234
45349SOL    HW237887   3.999   2.793  13.174
45350SOL     OW37888  13.900  11.446   6.827
45350SOL    HW137889  13.840  11.495   6.884
45350SOL    HW237890  13.945  11.386   6.886
45351SOL     OW37891  10.911   4.522   8.358
45351SOL    HW137892  10.937   4.450   8.416
45351SOL    HW237893  10.865   4.583   8.415
45352SOL     OW37894  14.148   0.863   5.776
45352SOL    HW137895  14.154   0.833   5.866
45352SOL    HW237896  14.233   0.842   5.737
45353SOL     OW37897  12.466   2.048  13.413
45353SOL    HW137898  12.472   1.997  13.493
45353SOL    HW237899  12.429   1.988  13.348
45354SOL     OW37900   5.264   5.797   8.214
45354SOL    HW137901   5.246   5.828   8.303
45354SOL    HW237902   5.343   5.745   8.221
45355SOL     OW37903   8.372  11.604   2.858
45355SOL    HW137904   8.446  11.545   2.843
45355SOL    HW237905   8.397  11.655   2.935
45356SOL     OW37906  14.699   5.207  12.768
45356SOL    HW137907  14.752   5.197  12.689
45356SOL    HW237908  14.666   5.119  12.787
45357SOL     OW37909  12.193   2.281   0.196
45357SOL    HW137910  12.180   2.223   0.271
45357SOL    HW237911  12.232   2.360   0.233
45358SOL     OW37912   4.837   4.817  12.931
45358SOL    HW137913   4.896   4.799  12.857
45358SOL    HW237914   4.856   4.747  12.994
45359SOL     OW37915   7.182   8.007   1.778
45359SOL    HW137916   7.141   7.968   1.855
45359SOL    HW237917   7.116   7.999   1.709
45360SOL     OW37918   9.641   8.502  10.483
45360SOL    HW137919   9.634   8.447  10.561
45360SOL    HW237920   9.677   8.444  10.416
45361SOL     OW37921  11.985   8.349  12.223
45361SOL    HW137922  12.023   8.419  12.170
45361SOL    HW237923  11.898   8.336  12.185
45362SOL     OW37924   7.384   8.727   5.153
45362SOL    HW137925   7.345   8.743   5.239
45362SOL    HW237926   7.448   8.657   5.168
45363SOL     OW37927   1.398   1.705  13.900
45363SOL    HW137928   1.478   1.716  13.951
45363SOL    HW237929   1.404   1.615  13.867
45364SOL     OW37930   3.571  12.665   6.273
45364SOL    HW137931   3.563  12.620   6.357
45364SOL    HW237932   3.485  12.657   6.232
45365SOL     OW37933  11.465   3.288   0.537
45365SOL    HW137934  11.460   3.330   0.451
45365SOL    HW237935  11.547   3.319   0.575
45366SOL     OW37936  10.734   5.722   9.576
45366SOL    HW137937  10.750   5.722   9.481
45366SOL    HW237938  10.638   5.715   9.584
45367SOL     OW37939   8.778  12.819   8.231
45367SOL    HW137940   8.846  12.866   8.182
45367SOL    HW237941   8.825  12.749   8.275
45368SOL     OW37942   0.155  14.608   6.390
45368SOL    HW137943   0.250  14.601   6.400
45368SOL    HW237944   0.125  14.518   6.382
45369SOL     OW37945   2.645   6.154  11.334
45369SOL    HW137946   2.579   6.222  11.348
45369SOL    HW237947   2.627   6.122  11.245
45370SOL     OW37948  12.033   7.225   8.628
45370SOL    HW137949  12.014   7.268   8.711
45370SOL    HW237950  12.038   7.296   8.565
45371SOL     OW37951   1.082  13.479   1.059
45371SOL    HW137952   1.006  13.531   1.033
45371SOL    HW237953   1.051  13.389   1.058
45372SOL     OW37954   3.069  11.806   3.013
45372SOL    HW137955   3.038  11.741   2.950
45372SOL    HW237956   3.114  11.871   2.959
45373SOL     OW37957  14.858  10.113  11.311
45373SOL    HW137958  14.786  10.079  11.365
45373SOL    HW237959   0.014  10.183  11.363
45374SOL     OW37960   0.790  14.357   4.712
45374SOL    HW137961   0.732  14.433   4.712
45374SOL    HW237962   0.878  14.394   4.722
45375SOL     OW37963  13.945   6.956  12.431
45375SOL    HW137964  13.885   7.030  12.441
45375SOL    HW237965  13.967   6.955  12.338
45376SOL     OW37966   6.755   4.999   5.496
45376SOL    HW137967   6.693   5.009   5.568
45376SOL    HW237968   6.774   4.905   5.493
45377SOL     OW37969   5.974  13.072   7.240
45377SOL    HW137970   6.042  13.132   7.209
45377SOL    HW237971   5.922  13.054   7.162
45378SOL     OW37972   7.220   2.608  13.264
45378SOL    HW137973   7.210   2.527  13.314
45378SOL    HW237974   7.131   2.641  13.254
45379SOL     OW37975  14.151   2.199   2.837
45379SOL    HW137976  14.104   2.166   2.760
45379SOL    HW237977  14.123   2.143   2.909
45380SOL     OW37978  10.198  10.104   2.856
45380SOL    HW137979  10.154  10.028   2.895
45380SOL    HW237980  10.290  10.092   2.876
45381SOL     OW37981   9.660  10.054   6.317
45381SOL    HW137982   9.740  10.005   6.338
45381SOL    HW237983   9.680  10.145   6.342
45382SOL     OW37984   1.629   7.618   7.950
45382SOL    HW137985   1.670   7.615   7.864
45382SOL    HW237986   1.635   7.528   7.983
45383SOL     OW37987   0.485  11.888   6.324
45383SOL    HW137988   0.484  11.938   6.242
45383SOL    HW237989   0.520  11.802   6.300
45384SOL     OW37990   3.819  12.666  13.353
45384SOL    HW137991   3.726  12.665  13.373
45384SOL    HW237992   3.862  12.675  13.439
45385SOL     OW37993   5.395   7.266  11.156
45385SOL    HW137994   5.300   7.260  11.144
45385SOL    HW237995   5.407   7.336  11.221
45386SOL     OW37996  12.234  10.254  14.594
45386SOL    HW137997  12.305  10.283  14.651
45386SOL    HW237998  12.273  10.249  14.507
45387SOL     OW37999   1.192  12.874   1.922
45387SOL    HW138000   1.123  12.890   1.857
45387SOL    HW238001   1.272  12.870   1.871
45388SOL     OW38002   5.012   3.890   6.898
45388SOL    HW138003   5.090   3.899   6.954
45388SOL    HW238004   4.974   3.978   6.896
45389SOL     OW38005  14.157   7.247  11.944
45389SOL    HW138006  14.088   7.266  12.007
45389SOL    HW238007  14.230   7.215  11.997
45390SOL     OW38008   2.274   0.744   1.725
45390SOL    HW138009   2.210   0.701   1.669
45390SOL    HW238010   2.253   0.713   1.813
45391SOL     OW38011   0.610   2.539   9.228
45391SOL    HW138012   0.696   2.496   9.218
45391SOL    HW238013   0.607   2.566   9.320
45392SOL     OW38014  12.303   7.677   5.594
45392SOL    HW138015  12.330   7.585   5.595
45392SOL    HW238016  12.221   7.679   5.643
45393SOL     OW38017   1.696   1.570   4.061
45393SOL    HW138018   1.778   1.547   4.017
45393SOL    HW238019   1.710   1.660   4.090
45394SOL     OW38020  12.040   6.631   2.357
45394SOL    HW138021  12.119   6.578   2.373
45394SOL    HW238022  11.992   6.626   2.440
45395SOL     OW38023   7.652  13.185   6.834
45395SOL    HW138024   7.694  13.253   6.783
45395SOL    HW238025   7.709  13.171   6.909
45396SOL     OW38026  14.717   1.120   3.427
45396SOL    HW138027  14.683   1.120   3.338
45396SOL    HW238028  14.652   1.170   3.477
45397SOL     OW38029  13.886  10.678   2.391
45397SOL    HW138030  13.956  10.727   2.348
45397SOL    HW238031  13.865  10.607   2.331
45398SOL     OW38032  14.878  11.639   6.270
45398SOL    HW138033   0.005  11.552   6.309
45398SOL    HW238034   0.041  11.632   6.185
45399SOL     OW38035   3.227   5.228  14.103
45399SOL    HW138036   3.216   5.196  14.014
45399SOL    HW238037   3.316   5.202  14.127
45400SOL     OW38038   3.152  10.795   1.712
45400SOL    HW138039   3.148  10.737   1.635
45400SOL    HW238040   3.187  10.877   1.678
45401SOL     OW38041  12.348  13.085  11.259
45401SOL    HW138042  12.408  13.124  11.323
45401SOL    HW238043  12.261  13.103  11.293
45402SOL     OW38044   8.169   2.453  13.292
45402SOL    HW138045   8.240   2.429  13.232
45402SOL    HW238046   8.135   2.536  13.258
45403SOL     OW38047   9.050   0.857   8.633
45403SOL    HW138048   9.100   0.815   8.563
45403SOL    HW238049   9.110   0.857   8.708
45404SOL     OW38050  14.307   1.374  13.213
45404SOL    HW138051  14.335   1.463  13.189
45404SOL    HW238052  14.247   1.348  13.144
45405SOL     OW38053  11.957   4.290   4.075
45405SOL    HW138054  11.870   4.300   4.113
45405SOL    HW238055  12.001   4.374   4.090
45406SOL     OW38056  10.379   1.012   9.086
45406SOL    HW138057  10.409   1.003   9.177
45406SOL    HW238058  10.284   1.019   9.093
45407SOL     OW38059   2.294   7.510   1.284
45407SOL    HW138060   2.332   7.540   1.201
45407SOL    HW238061   2.369   7.502   1.343
45408SOL     OW38062  13.089  11.109  14.097
45408SOL    HW138063  13.097  11.177  14.030
45408SOL    HW238064  13.147  11.138  14.167
45409SOL     OW38065   5.573   6.726   6.197
45409SOL    HW138066   5.667   6.742   6.188
45409SOL    HW238067   5.564   6.632   6.182
45410SOL     OW38068   0.501   9.230  12.331
45410SOL    HW138069   0.463   9.250  12.416
45410SOL    HW238070   0.587   9.194  12.350
45411SOL     OW38071  11.793   5.868   3.968
45411SOL    HW138072  11.761   5.938   4.026
45411SOL    HW238073  11.825   5.914   3.891
45412SOL     OW38074   6.263  14.545  12.308
45412SOL    HW138075   6.220  14.460  12.311
45412SOL    HW238076   6.336  14.537  12.369
45413SOL     OW38077   7.586   6.579   0.473
45413SOL    HW138078   7.666   6.613   0.433
45413SOL    HW238079   7.609   6.491   0.503
45414SOL     OW38080   8.298   7.169   7.078
45414SOL    HW138081   8.284   7.114   7.155
45414SOL    HW238082   8.279   7.258   7.107
45415SOL     OW38083   0.501   5.711   8.964
45415SOL    HW138084   0.527   5.624   8.994
45415SOL    HW238085   0.463   5.752   9.042
45416SOL     OW38086   9.611  11.627   4.387
45416SOL    HW138087   9.657  11.711   4.382
45416SOL    HW238088   9.524  11.646   4.354
45417SOL     OW38089   1.893  10.707   6.362
45417SOL    HW138090   1.811  10.723   6.409
45417SOL    HW238091   1.903  10.612   6.364
45418SOL     OW38092   3.225  12.041   6.353
45418SOL    HW138093   3.180  12.064   6.435
45418SOL    HW238094   3.311  12.011   6.381
45419SOL     OW38095  12.568   5.357  11.528
45419SOL    HW138096  12.612   5.441  11.542
45419SOL    HW238097  12.564   5.348  11.433
45420SOL     OW38098   2.503   3.621  13.840
45420SOL    HW138099   2.555   3.573  13.904
45420SOL    HW238100   2.417   3.578  13.841
45421SOL     OW38101   8.784  13.451   9.016
45421SOL    HW138102   8.869  13.413   9.038
45421SOL    HW238103   8.763  13.506   9.092
45422SOL     OW38104  10.228   9.676  14.616
45422SOL    HW138105  10.133   9.675  14.627
45422SOL    HW238106  10.247   9.598  14.564
45423SOL     OW38107   5.405   7.891  14.071
45423SOL    HW138108   5.395   7.796  14.068
45423SOL    HW238109   5.490   7.908  14.030
45424SOL     OW38110  13.378   6.995   5.682
45424SOL    HW138111  13.413   6.914   5.719
45424SOL    HW238112  13.284   6.991   5.702
45425SOL     OW38113   1.070   3.866   2.435
45425SOL    HW138114   1.139   3.918   2.477
45425SOL    HW238115   1.113   3.824   2.361
45426SOL     OW38116   1.670   3.264   8.045
45426SOL    HW138117   1.761   3.256   8.017
45426SOL    HW238118   1.675   3.306   8.131
45427SOL     OW38119   5.303   7.889  10.244
45427SOL    HW138120   5.231   7.937  10.286
45427SOL    HW238121   5.379   7.905  10.300
45428SOL     OW38122   7.900  12.281   9.192
45428SOL    HW138123   7.883  12.288   9.286
45428SOL    HW238124   7.954  12.357   9.171
45429SOL     OW38125   2.139   3.521  11.380
45429SOL    HW138126   2.130   3.521  11.284
45429SOL    HW238127   2.224   3.563  11.396
45430SOL     OW38128  14.375   4.762  14.653
45430SOL    HW138129  14.306   4.787  14.592
45430SOL    HW238130  14.456   4.797  14.614
45431SOL     OW38131  14.301   5.389   1.647
45431SOL    HW138132  14.347   5.369   1.566
45431SOL    HW238133  14.253   5.470   1.628
45432SOL     OW38134   9.071   5.312   7.761
45432SOL    HW138135   9.064   5.286   7.669
45432SOL    HW238136   8.980   5.325   7.788
45433SOL     OW38137   4.683  12.894  14.593
45433SOL    HW138138   4.647  12.882  14.505
45433SOL    HW238139   4.656  12.815  14.640
45434SOL     OW38140   2.671  11.309   8.351
45434SOL    HW138141   2.674  11.389   8.403
45434SOL    HW238142   2.578  11.286   8.347
45435SOL     OW38143  11.689   0.925   3.793
45435SOL    HW138144  11.618   0.895   3.736
45435SOL    HW238145  11.661   1.010   3.824
45436SOL     OW38146   2.844  11.916   0.924
45436SOL    HW138147   2.875  11.976   0.992
45436SOL    HW238148   2.758  11.886   0.956
45437SOL     OW38149  10.120   7.930   2.707
45437SOL    HW138150  10.174   7.897   2.635
45437SOL    HW238151  10.087   7.851   2.750
45438SOL     OW38152  11.989   2.461   7.252
45438SOL    HW138153  11.945   2.514   7.318
45438SOL    HW238154  11.919   2.428   7.196
45439SOL     OW38155   2.894   1.227   5.142
45439SOL    HW138156   2.890   1.133   5.125
45439SOL    HW238157   2.940   1.234   5.225
45440SOL     OW38158   4.004   8.477   8.114
45440SOL    HW138159   4.023   8.533   8.039
45440SOL    HW238160   4.061   8.401   8.102
45441SOL     OW38161  10.183   7.700  14.154
45441SOL    HW138162  10.103   7.749  14.169
45441SOL    HW238163  10.249   7.766  14.135
45442SOL     OW38164   3.783  14.721   3.638
45442SOL    HW138165   3.834  14.770   3.574
45442SOL    HW238166   3.823  14.741   3.722
45443SOL     OW38167  10.332  13.086  10.763
45443SOL    HW138168  10.397  13.115  10.699
45443SOL    HW238169  10.384  13.046  10.833
45444SOL     OW38170   7.657   9.625  10.637
45444SOL    HW138171   7.567   9.614  10.606
45444SOL    HW238172   7.695   9.538  10.632
45445SOL     OW38173   6.922   6.293   0.633
45445SOL    HW138174   6.940   6.371   0.687
45445SOL    HW238175   7.009   6.256   0.616
45446SOL     OW38176   8.982   6.474  12.980
45446SOL    HW138177   9.067   6.435  12.959
45446SOL    HW238178   8.959   6.438  13.065
45447SOL     OW38179   8.848   4.965   1.620
45447SOL    HW138180   8.754   4.978   1.606
45447SOL    HW238181   8.867   5.016   1.699
45448SOL     OW38182   7.935   5.116  11.720
45448SOL    HW138183   7.957   5.185  11.657
45448SOL    HW238184   7.976   5.037  11.684
45449SOL     OW38185   0.959   7.360  11.687
45449SOL    HW138186   1.034   7.370  11.746
45449SOL    HW238187   0.990   7.302  11.618
45450SOL     OW38188   9.213   2.660  11.337
45450SOL    HW138189   9.126   2.648  11.300
45450SOL    HW238190   9.262   2.582  11.311
45451SOL     OW38191  12.207  13.118   4.322
45451SOL    HW138192  12.216  13.023   4.324
45451SOL    HW238193  12.295  13.151   4.341
45452SOL     OW38194  13.345   2.591   1.089
45452SOL    HW138195  13.330   2.500   1.063
45452SOL    HW238196  13.362   2.637   1.006
45453SOL     OW38197   6.240   4.945  13.358
45453SOL    HW138198   6.180   5.019  13.358
45453SOL    HW238199   6.203   4.883  13.295
45454SOL     OW38200   2.083   1.205   0.424
45454SOL    HW138201   2.117   1.242   0.342
45454SOL    HW238202   2.142   1.239   0.492
45455SOL     OW38203   6.353   0.302   2.132
45455SOL    HW138204   6.326   0.393   2.150
45455SOL    HW238205   6.301   0.249   2.192
45456SOL     OW38206   9.018  10.535   7.057
45456SOL    HW138207   9.010  10.602   7.125
45456SOL    HW238208   9.090  10.479   7.087
45457SOL     OW38209   0.884  11.464   7.900
45457SOL    HW138210   0.865  11.379   7.940
45457SOL    HW238211   0.950  11.445   7.834
45458SOL     OW38212  11.622  10.537   1.045
45458SOL    HW138213  11.702  10.485   1.043
45458SOL    HW238214  11.571  10.506   0.971
45459SOL     OW38215   2.385  13.899   9.073
45459SOL    HW138216   2.392  13.929   9.164
45459SOL    HW238217   2.391  13.803   9.079
45460SOL     OW38218   8.528   5.724  11.166
45460SOL    HW138219   8.621   5.745  11.174
45460SOL    HW238220   8.525   5.628  11.165
45461SOL     OW38221   2.162  14.720   7.940
45461SOL    HW138222   2.086  14.696   7.886
45461SOL    HW238223   2.238  14.689   7.891
45462SOL     OW38224   2.517   6.639   1.755
45462SOL    HW138225   2.545   6.720   1.712
45462SOL    HW238226   2.427   6.656   1.784
45463SOL     OW38227   6.800   2.301  14.854
45463SOL    HW138228   6.844   2.250  14.786
45463SOL    HW238229   6.736   2.355  14.807
45464SOL     OW38230   5.811  13.895   2.992
45464SOL    HW138231   5.798  13.803   3.013
45464SOL    HW238232   5.889  13.921   3.041
45465SOL     OW38233   5.638  13.642   5.012
45465SOL    HW138234   5.625  13.547   5.013
45465SOL    HW238235   5.551  13.678   5.023
45466SOL     OW38236   5.379   4.156   9.673
45466SOL    HW138237   5.287   4.143   9.697
45466SOL    HW238238   5.383   4.248   9.647
45467SOL     OW38239  11.584   9.698   8.217
45467SOL    HW138240  11.585   9.657   8.303
45467SOL    HW238241  11.585   9.792   8.235
45468SOL     OW38242  12.629   1.868   0.878
45468SOL    HW138243  12.674   1.807   0.935
45468SOL    HW238244  12.547   1.887   0.923
45469SOL     OW38245   2.620   1.723   7.438
45469SOL    HW138246   2.691   1.779   7.404
45469SOL    HW238247   2.544   1.746   7.384
45470SOL     OW38248   5.533  11.599   4.584
45470SOL    HW138249   5.557  11.581   4.675
45470SOL    HW238250   5.616  11.619   4.541
45471SOL     OW38251   0.334   4.610   1.466
45471SOL    HW138252   0.362   4.575   1.381
45471SOL    HW238253   0.257   4.557   1.489
45472SOL     OW38254   3.699  13.012   4.093
45472SOL    HW138255   3.623  12.985   4.042
45472SOL    HW238256   3.750  13.067   4.034
45473SOL     OW38257   8.383   9.553  12.818
45473SOL    HW138258   8.421   9.569  12.905
45473SOL    HW238259   8.458   9.527  12.764
45474SOL     OW38260   3.741   6.714   3.347
45474SOL    HW138261   3.650   6.693   3.369
45474SOL    HW238262   3.760   6.792   3.398
45475SOL     OW38263  12.229   4.640   6.101
45475SOL    HW138264  12.207   4.624   6.009
45475SOL    HW238265  12.322   4.619   6.107
45476SOL     OW38266   7.953  12.444   9.507
45476SOL    HW138267   7.907  12.527   9.507
45476SOL    HW238268   7.941  12.411   9.597
45477SOL     OW38269   9.082  11.873   0.173
45477SOL    HW138270   9.027  11.814   0.121
45477SOL    HW238271   9.119  11.934   0.110
45478SOL     OW38272   2.287   1.526   8.859
45478SOL    HW138273   2.225   1.584   8.903
45478SOL    HW238274   2.373   1.562   8.882
45479SOL     OW38275  12.119   0.511   8.183
45479SOL    HW138276  12.108   0.502   8.088
45479SOL    HW238277  12.214   0.519   8.195
45480SOL     OW38278   2.975  10.512   8.544
45480SOL    HW138279   3.067  10.535   8.561
45480SOL    HW238280   2.959  10.541   8.455
45481SOL     OW38281  10.174  11.474  10.060
45481SOL    HW138282  10.172  11.395  10.114
45481SOL    HW238283  10.094  11.520  10.082
45482SOL     OW38284   0.356  14.527   6.943
45482SOL    HW138285   0.448  14.537   6.966
45482SOL    HW238286   0.343  14.586   6.869
45483SOL     OW38287  11.799  11.398   5.589
45483SOL    HW138288  11.890  11.385   5.564
45483SOL    HW238289  11.803  11.449   5.670
45484SOL     OW38290   4.957   2.639   9.010
45484SOL    HW138291   4.971   2.729   9.041
45484SOL    HW238292   4.986   2.584   9.083
45485SOL     OW38293  11.345   2.640   4.917
45485SOL    HW138294  11.408   2.578   4.880
45485SOL    HW238295  11.365   2.641   5.011
45486SOL     OW38296  12.022  11.244  13.629
45486SOL    HW138297  12.078  11.248  13.552
45486SOL    HW238298  12.046  11.320  13.681
45487SOL     OW38299   4.126  10.031   4.432
45487SOL    HW138300   4.153  10.012   4.522
45487SOL    HW238301   4.207  10.028   4.382
45488SOL     OW38302  11.819   0.195  14.095
45488SOL    HW138303  11.734   0.239  14.092
45488SOL    HW238304  11.822   0.143  14.014
45489SOL     OW38305   1.990   3.195  12.646
45489SOL    HW138306   2.056   3.258  12.675
45489SOL    HW238307   2.027   3.110  12.668
45490SOL     OW38308  10.175   2.464  10.500
45490SOL    HW138309  10.209   2.391  10.553
45490SOL    HW238310  10.080   2.457  10.507
45491SOL     OW38311   4.478   3.217   5.099
45491SOL    HW138312   4.477   3.312   5.098
45491SOL    HW238313   4.498   3.194   5.190
45492SOL     OW38314   2.406   4.892   1.521
45492SOL    HW138315   2.450   4.821   1.475
45492SOL    HW238316   2.363   4.850   1.595
45493SOL     OW38317   0.746   2.904   8.946
45493SOL    HW138318   0.837   2.899   8.918
45493SOL    HW238319   0.708   2.973   8.891
45494SOL     OW38320   6.462  10.388   5.161
45494SOL    HW138321   6.547  10.353   5.138
45494SOL    HW238322   6.464  10.398   5.256
45495SOL     OW38323   1.661   9.866  10.659
45495SOL    HW138324   1.717   9.790  10.648
45495SOL    HW238325   1.713   9.927  10.712
45496SOL     OW38326   8.020  11.689  14.044
45496SOL    HW138327   7.925  11.695  14.051
45496SOL    HW238328   8.044  11.616  14.100
45497SOL     OW38329   8.936   6.055   2.637
45497SOL    HW138330   8.910   5.972   2.677
45497SOL    HW238331   8.906   6.122   2.698
45498SOL     OW38332   3.144   8.338   8.411
45498SOL    HW138333   3.215   8.389   8.372
45498SOL    HW238334   3.188   8.286   8.479
45499SOL     OW38335  12.742   8.948   3.494
45499SOL    HW138336  12.794   9.028   3.490
45499SOL    HW238337  12.721   8.938   3.587
45500SOL     OW38338   7.550  14.695   8.653
45500SOL    HW138339   7.469  14.698   8.705
45500SOL    HW238340   7.608  14.759   8.695
45501SOL     OW38341   3.500   1.432  12.484
45501SOL    HW138342   3.516   1.449  12.392
45501SOL    HW238343   3.543   1.504  12.530
45502SOL     OW38344  13.729   9.745   7.900
45502SOL    HW138345  13.776   9.765   7.981
45502SOL    HW238346  13.746   9.652   7.886
45503SOL     OW38347  10.882  12.145   5.851
45503SOL    HW138348  10.912  12.113   5.766
45503SOL    HW238349  10.817  12.080   5.879
45504SOL     OW38350   3.582   0.461   5.178
45504SOL    HW138351   3.578   0.371   5.146
45504SOL    HW238352   3.569   0.515   5.100
45505SOL     OW38353  10.845   1.859   4.913
45505SOL    HW138354  10.799   1.775   4.909
45505SOL    HW238355  10.937   1.835   4.927
45506SOL     OW38356  10.758  12.853  14.671
45506SOL    HW138357  10.703  12.774  14.682
45506SOL    HW238358  10.703  12.913  14.622
45507SOL     OW38359  11.121  14.667   2.303
45507SOL    HW138360  11.078  14.666   2.388
45507SOL    HW238361  11.205  14.710   2.318
45508SOL     OW38362   8.298   2.187  10.071
45508SOL    HW138363   8.214   2.229  10.055
45508SOL    HW238364   8.314   2.136   9.992
45509SOL     OW38365  13.381   8.682  10.888
45509SOL    HW138366  13.286   8.667  10.882
45509SOL    HW238367  13.391   8.746  10.958
45510SOL     OW38368  14.004   2.081   2.152
45510SOL    HW138369  13.934   2.084   2.086
45510SOL    HW238370  14.001   1.992   2.187
45511SOL     OW38371  14.477   3.402   5.116
45511SOL    HW138372  14.447   3.492   5.127
45511SOL    HW238373  14.570   3.410   5.096
45512SOL     OW38374   1.038   1.635   7.660
45512SOL    HW138375   1.081   1.719   7.675
45512SOL    HW238376   1.031   1.627   7.565
45513SOL     OW38377   7.767  13.831   9.149
45513SOL    HW138378   7.748  13.900   9.213
45513SOL    HW238379   7.803  13.878   9.073
45514SOL     OW38380   1.377   6.540  14.775
45514SOL    HW138381   1.360   6.474  14.708
45514SOL    HW238382   1.352   6.498  14.857
45515SOL     OW38383   1.000   2.380   6.370
45515SOL    HW138384   1.018   2.443   6.440
45515SOL    HW238385   1.077   2.385   6.313
45516SOL     OW38386   6.580  11.240  13.566
45516SOL    HW138387   6.620  11.182  13.502
45516SOL    HW238388   6.497  11.197  13.588
45517SOL     OW38389   5.835  10.568   8.448
45517SOL    HW138390   5.888  10.560   8.369
45517SOL    HW238391   5.894  10.604   8.514
45518SOL     OW38392   1.079   9.737   3.433
45518SOL    HW138393   1.130   9.771   3.506
45518SOL    HW238394   1.039   9.657   3.466
45519SOL     OW38395   1.284   7.524   0.711
45519SOL    HW138396   1.199   7.513   0.753
45519SOL    HW238397   1.346   7.488   0.773
45520SOL     OW38398  13.496  14.750   5.033
45520SOL    HW138399  13.460  14.829   5.074
45520SOL    HW238400  13.532  14.700   5.107
45521SOL     OW38401   7.360  10.708   4.318
45521SOL    HW138402   7.397  10.790   4.350
45521SOL    HW238403   7.269  10.709   4.347
45522SOL     OW38404   0.271   8.134  12.420
45522SOL    HW138405   0.347   8.184  12.447
45522SOL    HW238406   0.298   8.091  12.339
45523SOL     OW38407  10.265  14.180   7.929
45523SOL    HW138408  10.269  14.232   8.010
45523SOL    HW238409  10.337  14.213   7.876
45524SOL     OW38410   4.561   7.482  14.340
45524SOL    HW138411   4.560   7.575  14.318
45524SOL    HW238412   4.469   7.458  14.351
45525SOL     OW38413  10.235   8.643  13.080
45525SOL    HW138414  10.322   8.683  13.090
45525SOL    HW238415  10.253   8.557  13.043
45526SOL     OW38416   9.626  10.278  11.056
45526SOL    HW138417   9.717  10.254  11.072
45526SOL    HW238418   9.579  10.242  11.132
45527SOL     OW38419   0.455   6.942   8.269
45527SOL    HW138420   0.517   6.962   8.339
45527SOL    HW238421   0.392   7.014   8.272
45528SOL     OW38422   6.935  13.474  12.775
45528SOL    HW138423   6.869  13.541  12.757
45528SOL    HW238424   6.951  13.432  12.691
45529SOL     OW38425  14.264  10.865   8.542
45529SOL    HW138426  14.271  10.959   8.555
45529SOL    HW238427  14.329  10.845   8.474
45530SOL     OW38428   4.044   9.392  13.276
45530SOL    HW138429   4.107   9.402  13.205
45530SOL    HW238430   4.027   9.482  13.305
45531SOL     OW38431  10.126   6.227  13.826
45531SOL    HW138432  10.188   6.252  13.757
45531SOL    HW238433  10.042   6.259  13.795
45532SOL     OW38434  12.957   1.020   2.190
45532SOL    HW138435  13.017   1.089   2.219
45532SOL    HW238436  12.912   0.992   2.269
45533SOL     OW38437   4.348   1.674  13.991
45533SOL    HW138438   4.321   1.592  13.949
45533SOL    HW238439   4.266   1.711  14.024
45534SOL     OW38440   1.022  12.527   1.728
45534SOL    HW138441   1.013  12.608   1.678
45534SOL    HW238442   1.029  12.556   1.819
45535SOL     OW38443  12.982  11.596  13.714
45535SOL    HW138444  12.930  11.516  13.702
45535SOL    HW238445  13.018  11.614  13.627
45536SOL     OW38446   6.030   6.796   6.815
45536SOL    HW138447   6.094   6.749   6.868
45536SOL    HW238448   6.061   6.786   6.725
45537SOL     OW38449  12.467   0.425   3.661
45537SOL    HW138450  12.562   0.432   3.651
45537SOL    HW238451  12.452   0.333   3.682
45538SOL     OW38452  13.104  12.518  13.748
45538SOL    HW138453  13.064  12.603  13.765
45538SOL    HW238454  13.061  12.458  13.809
45539SOL     OW38455   3.135  13.898  12.593
45539SOL    HW138456   3.195  13.828  12.622
45539SOL    HW238457   3.057  13.886  12.648
45540SOL     OW38458   8.619   2.057   7.795
45540SOL    HW138459   8.592   2.147   7.814
45540SOL    HW238460   8.595   2.044   7.703
45541SOL     OW38461  14.514   3.731   7.004
45541SOL    HW138462  14.566   3.811   6.996
45541SOL    HW238463  14.530   3.701   7.094
45542SOL     OW38464   2.266   6.846   1.792
45542SOL    HW138465   2.328   6.850   1.719
45542SOL    HW238466   2.272   6.932   1.834
45543SOL     OW38467   5.303   2.707   5.835
45543SOL    HW138468   5.307   2.737   5.925
45543SOL    HW238469   5.378   2.648   5.825
45544SOL     OW38470  12.959  11.953   8.838
45544SOL    HW138471  13.024  11.991   8.778
45544SOL    HW238472  12.891  11.918   8.780
45545SOL     OW38473   5.164  12.086   8.958
45545SOL    HW138474   5.089  12.118   8.907
45545SOL    HW238475   5.218  12.164   8.973
45546SOL     OW38476   9.847   9.117  13.987
45546SOL    HW138477   9.867   9.201  14.030
45546SOL    HW238478   9.926   9.065  14.000
45547SOL     OW38479   3.452  12.266   8.939
45547SOL    HW138480   3.525  12.318   8.904
45547SOL    HW238481   3.374  12.317   8.918
45548SOL     OW38482  12.997   0.855   5.359
45548SOL    HW138483  13.026   0.770   5.325
45548SOL    HW238484  12.904   0.843   5.376
45549SOL     OW38485   6.425  10.540   4.152
45549SOL    HW138486   6.491  10.584   4.206
45549SOL    HW238487   6.473  10.509   4.076
45550SOL     OW38488  11.781   1.365   8.786
45550SOL    HW138489  11.829   1.447   8.778
45550SOL    HW238490  11.848   1.299   8.803
45551SOL     OW38491   3.102   5.178  12.087
45551SOL    HW138492   3.182   5.161  12.037
45551SOL    HW238493   3.133   5.207  12.173
45552SOL     OW38494   6.138   5.935   2.549
45552SOL    HW138495   6.102   6.004   2.494
45552SOL    HW238496   6.126   5.966   2.639
45553SOL     OW38497   6.576   2.404  12.547
45553SOL    HW138498   6.646   2.344  12.571
45553SOL    HW238499   6.496   2.353  12.556
45554SOL     OW38500   6.456   1.625   0.593
45554SOL    HW138501   6.492   1.678   0.522
45554SOL    HW238502   6.489   1.537   0.577
45555SOL     OW38503  12.419   2.316   6.372
45555SOL    HW138504  12.424   2.398   6.421
45555SOL    HW238505  12.327   2.308   6.346
45556SOL     OW38506   9.286   3.783   4.412
45556SOL    HW138507   9.350   3.787   4.342
45556SOL    HW238508   9.291   3.694   4.446
45557SOL     OW38509   6.273   5.278   0.602
45557SOL    HW138510   6.183   5.275   0.569
45557SOL    HW238511   6.304   5.366   0.581
45558SOL     OW38512  10.363   8.095   8.019
45558SOL    HW138513  10.365   8.071   8.112
45558SOL    HW238514  10.383   8.188   8.019
45559SOL     OW38515   5.766   1.668   4.612
45559SOL    HW138516   5.817   1.587   4.618
45559SOL    HW238517   5.774   1.707   4.699
45560SOL     OW38518   7.764   7.725  10.222
45560SOL    HW138519   7.795   7.645  10.179
45560SOL    HW238520   7.836   7.749  10.282
45561SOL     OW38521   2.393  14.348   1.905
45561SOL    HW138522   2.454  14.276   1.892
45561SOL    HW238523   2.416  14.412   1.837
45562SOL     OW38524   6.100   1.444  12.244
45562SOL    HW138525   6.007   1.422  12.240
45562SOL    HW238526   6.137   1.378  12.302
45563SOL     OW38527  14.675   8.492   5.997
45563SOL    HW138528  14.634   8.445   6.069
45563SOL    HW238529  14.646   8.445   5.918
45564SOL     OW38530  13.057   5.101   4.677
45564SOL    HW138531  13.036   5.163   4.746
45564SOL    HW238532  12.972   5.078   4.639
45565SOL     OW38533  11.944  10.114  13.637
45565SOL    HW138534  11.953  10.184  13.701
45565SOL    HW238535  11.851  10.091  13.640
45566SOL     OW38536   8.660   2.767  12.426
45566SOL    HW138537   8.743   2.728  12.453
45566SOL    HW238538   8.682   2.820  12.348
45567SOL     OW38539   6.785   3.166   8.060
45567SOL    HW138540   6.779   3.257   8.030
45567SOL    HW238541   6.737   3.116   7.995
45568SOL     OW38542   9.768   9.455   2.002
45568SOL    HW138543   9.743   9.396   2.073
45568SOL    HW238544   9.816   9.399   1.940
45569SOL     OW38545   5.612   8.391   2.968
45569SOL    HW138546   5.647   8.371   3.055
45569SOL    HW238547   5.520   8.363   2.973
45570SOL     OW38548  12.891   8.446   2.249
45570SOL    HW138549  12.975   8.483   2.224
45570SOL    HW238550  12.873   8.483   2.336
45571SOL     OW38551  10.569   2.087  11.352
45571SOL    HW138552  10.557   2.163  11.295
45571SOL    HW238553  10.539   2.117  11.438
45572SOL     OW38554   9.033  11.162   5.915
45572SOL    HW138555   8.947  11.156   5.957
45572SOL    HW238556   9.095  11.133   5.982
45573SOL     OW38557  14.139   5.559   8.559
45573SOL    HW138558  14.146   5.611   8.479
45573SOL    HW238559  14.045   5.555   8.576
45574SOL     OW38560   5.457  14.046  13.439
45574SOL    HW138561   5.411  14.013  13.362
45574SOL    HW238562   5.401  14.115  13.474
45575SOL     OW38563   1.541   3.061   7.642
45575SOL    HW138564   1.533   3.128   7.710
45575SOL    HW238565   1.451   3.046   7.613
45576SOL     OW38566   8.946  10.379  14.192
45576SOL    HW138567   8.906  10.417  14.114
45576SOL    HW238568   8.924  10.440  14.263
45577SOL     OW38569  12.941   3.727   2.158
45577SOL    HW138570  12.905   3.676   2.231
45577SOL    HW238571  13.006   3.669   2.118
45578SOL     OW38572  13.403   1.996   2.038
45578SOL    HW138573  13.314   1.963   2.029
45578SOL    HW238574  13.435   2.006   1.948
45579SOL     OW38575   2.889   9.891   3.429
45579SOL    HW138576   2.968   9.929   3.467
45579SOL    HW238577   2.822   9.959   3.439
45580SOL     OW38578  12.586   8.690   9.046
45580SOL    HW138579  12.645   8.694   8.971
45580SOL    HW238580  12.561   8.782   9.060
45581SOL     OW38581   7.630  11.936   5.019
45581SOL    HW138582   7.572  11.875   5.065
45581SOL    HW238583   7.630  12.015   5.073
45582SOL     OW38584   6.949   1.596  13.312
45582SOL    HW138585   6.899   1.522  13.279
45582SOL    HW238586   6.926   1.669  13.255
45583SOL     OW38587   6.186   7.981  12.182
45583SOL    HW138588   6.176   7.978  12.087
45583SOL    HW238589   6.171   7.891  12.211
45584SOL     OW38590   5.152  13.166   0.402
45584SOL    HW138591   5.114  13.200   0.483
45584SOL    HW238592   5.188  13.244   0.359
45585SOL     OW38593   4.773   3.308   6.545
45585SOL    HW138594   4.816   3.246   6.604
45585SOL    HW238595   4.682   3.279   6.541
45586SOL     OW38596   5.347   7.361   4.829
45586SOL    HW138597   5.341   7.283   4.884
45586SOL    HW238598   5.256   7.381   4.805
45587SOL     OW38599   5.853   5.815   0.086
45587SOL    HW138600   5.837   5.855   0.001
45587SOL    HW238601   5.946   5.830   0.102
45588SOL     OW38602   3.347   0.862   6.960
45588SOL    HW138603   3.327   0.951   6.931
45588SOL    HW238604   3.271   0.836   7.012
45589SOL     OW38605   7.965   2.566   0.362
45589SOL    HW138606   7.917   2.639   0.400
45589SOL    HW238607   8.050   2.568   0.406
45590SOL     OW38608   5.188  13.875  11.611
45590SOL    HW138609   5.110  13.914  11.652
45590SOL    HW238610   5.261  13.919  11.653
45591SOL     OW38611   2.314   8.367  10.705
45591SOL    HW138612   2.285   8.297  10.763
45591SOL    HW238613   2.258   8.441  10.728
45592SOL     OW38614   3.703   8.268   8.239
45592SOL    HW138615   3.751   8.328   8.296
45592SOL    HW238616   3.693   8.316   8.157
45593SOL     OW38617   4.860   7.717   3.420
45593SOL    HW138618   4.954   7.702   3.433
45593SOL    HW238619   4.848   7.810   3.438
45594SOL     OW38620   9.903   3.486   8.906
45594SOL    HW138621   9.899   3.390   8.906
45594SOL    HW238622   9.942   3.508   8.822
45595SOL     OW38623   1.105  10.823   8.330
45595SOL    HW138624   1.124  10.760   8.399
45595SOL    HW238625   1.111  10.909   8.373
45596SOL     OW38626  13.275   9.199   7.096
45596SOL    HW138627  13.228   9.271   7.054
45596SOL    HW238628  13.270   9.219   7.190
45597SOL     OW38629   1.231  12.969   4.656
45597SOL    HW138630   1.240  12.899   4.591
45597SOL    HW238631   1.266  12.931   4.737
45598SOL     OW38632   5.326   8.160  10.430
45598SOL    HW138633   5.333   8.207  10.513
45598SOL    HW238634   5.416   8.132  10.410
45599SOL     OW38635   0.321  14.135   3.655
45599SOL    HW138636   0.391  14.197   3.635
45599SOL    HW238637   0.332  14.116   3.748
45600SOL     OW38638   8.057   6.698   6.396
45600SOL    HW138639   8.062   6.673   6.488
45600SOL    HW238640   8.146   6.725   6.374
45601SOL     OW38641   3.060  14.464  11.144
45601SOL    HW138642   3.150  14.433  11.142
45601SOL    HW238643   3.035  14.460  11.236
45602SOL     OW38644   7.351   7.849   0.176
45602SOL    HW138645   7.414   7.898   0.228
45602SOL    HW238646   7.325   7.910   0.106
45603SOL     OW38647  10.612  14.846  10.596
45603SOL    HW138648  10.635  14.834  10.689
45603SOL    HW238649  10.688  14.814  10.549
45604SOL     OW38650   4.952  11.048   2.598
45604SOL    HW138651   4.913  11.031   2.684
45604SOL    HW238652   5.031  11.098   2.617
45605SOL     OW38653  10.373   6.444   5.935
45605SOL    HW138654  10.339   6.390   6.006
45605SOL    HW238655  10.296   6.486   5.897
45606SOL     OW38656   6.684   7.573   9.687
45606SOL    HW138657   6.765   7.588   9.736
45606SOL    HW238658   6.619   7.627   9.732
45607SOL     OW38659   0.655   9.688   4.535
45607SOL    HW138660   0.733   9.735   4.504
45607SOL    HW238661   0.593   9.693   4.462
45608SOL     OW38662   9.181   1.198  13.336
45608SOL    HW138663   9.141   1.188  13.423
45608SOL    HW238664   9.249   1.131  13.334
45609SOL     OW38665   5.341  14.051   2.085
45609SOL    HW138666   5.301  13.975   2.128
45609SOL    HW238667   5.435  14.035   2.090
45610SOL     OW38668  13.439   8.487  14.220
45610SOL    HW138669  13.353   8.476  14.180
45610SOL    HW238670  13.501   8.472  14.148
45611SOL     OW38671   0.491   3.473   2.132
45611SOL    HW138672   0.542   3.398   2.100
45611SOL    HW238673   0.405   3.436   2.151
45612SOL     OW38674   0.911   6.135   7.125
45612SOL    HW138675   0.922   6.230   7.115
45612SOL    HW238676   0.857   6.125   7.203
45613SOL     OW38677   4.776   1.622   5.177
45613SOL    HW138678   4.773   1.602   5.083
45613SOL    HW238679   4.688   1.604   5.208
45614SOL     OW38680  11.249  10.707  10.533
45614SOL    HW138681  11.321  10.646  10.552
45614SOL    HW238682  11.213  10.676  10.450
45615SOL     OW38683   6.179   7.870  13.182
45615SOL    HW138684   6.118   7.882  13.109
45615SOL    HW238685   6.130   7.904  13.258
45616SOL     OW38686   3.083   3.590   1.459
45616SOL    HW138687   3.079   3.683   1.437
45616SOL    HW238688   3.148   3.554   1.399
45617SOL     OW38689   6.034   7.719   8.321
45617SOL    HW138690   6.087   7.684   8.392
45617SOL    HW238691   5.944   7.703   8.348
45618SOL     OW38692  13.462   0.778   5.142
45618SOL    HW138693  13.466   0.749   5.233
45618SOL    HW238694  13.369   0.793   5.125
45619SOL     OW38695   3.518   5.747   0.144
45619SOL    HW138696   3.437   5.769   0.190
45619SOL    HW238697   3.521   5.651   0.145
45620SOL     OW38698  12.214   8.508  11.175
45620SOL    HW138699  12.257   8.544  11.097
45620SOL    HW238700  12.219   8.413  11.163
45621SOL     OW38701   9.876  10.014   7.501
45621SOL    HW138702   9.816  10.077   7.541
45621SOL    HW238703   9.860   9.932   7.548
45622SOL     OW38704   5.177  10.769   0.277
45622SOL    HW138705   5.115  10.821   0.328
45622SOL    HW238706   5.259  10.819   0.280
45623SOL     OW38707  11.132  11.081   4.059
45623SOL    HW138708  11.177  11.064   3.976
45623SOL    HW238709  11.133  11.176   4.068
45624SOL     OW38710  11.961  14.592   4.581
45624SOL    HW138711  11.941  14.564   4.670
45624SOL    HW238712  11.911  14.533   4.525
45625SOL     OW38713  11.640  12.089  14.704
45625SOL    HW138714  11.610  12.148  14.635
45625SOL    HW238715  11.636  12.142  14.784
45626SOL     OW38716  11.209   6.910   6.225
45626SOL    HW138717  11.189   6.974   6.157
45626SOL    HW238718  11.285   6.946   6.271
45627SOL     OW38719   4.554  11.034   6.552
45627SOL    HW138720   4.476  11.000   6.596
45627SOL    HW238721   4.581  11.110   6.604
45628SOL     OW38722  10.100   9.974   0.390
45628SOL    HW138723  10.060  10.046   0.438
45628SOL    HW238724  10.028   9.913   0.374
45629SOL     OW38725   2.263  11.400   0.161
45629SOL    HW138726   2.184  11.393   0.215
45629SOL    HW238727   2.266  11.493   0.137
45630SOL     OW38728  12.416   0.187   5.735
45630SOL    HW138729  12.435   0.242   5.659
45630SOL    HW238730  12.380   0.107   5.699
45631SOL     OW38731  11.276   2.231   0.800
45631SOL    HW138732  11.361   2.276   0.801
45631SOL    HW238733  11.279   2.175   0.878
45632SOL     OW38734   5.873  10.970   7.459
45632SOL    HW138735   5.968  10.974   7.458
45632SOL    HW238736   5.848  10.996   7.548
45633SOL     OW38737  10.352   5.006   3.404
45633SOL    HW138738  10.343   4.914   3.379
45633SOL    HW238739  10.407   5.004   3.483
45634SOL     OW38740   3.952  10.536   7.188
45634SOL    HW138741   4.037  10.493   7.181
45634SOL    HW238742   3.897  10.473   7.235
45635SOL     OW38743   1.052   3.495   8.523
45635SOL    HW138744   0.985   3.564   8.529
45635SOL    HW238745   1.116   3.519   8.590
45636SOL     OW38746   7.461   0.359   8.695
45636SOL    HW138747   7.482   0.422   8.763
45636SOL    HW238748   7.370   0.335   8.711
45637SOL     OW38749  14.838   5.220  11.618
45637SOL    HW138750  14.744   5.211  11.633
45637SOL    HW238751  14.848   5.223  11.523
45638SOL     OW38752   2.678   0.907   1.291
45638SOL    HW138753   2.596   0.956   1.286
45638SOL    HW238754   2.700   0.888   1.200
45639SOL     OW38755   7.437   5.067   8.898
45639SOL    HW138756   7.429   5.056   8.803
45639SOL    HW238757   7.351   5.045   8.933
45640SOL     OW38758  12.733   5.630  13.102
45640SOL    HW138759  12.738   5.562  13.034
45640SOL    HW238760  12.642   5.629  13.130
45641SOL     OW38761   0.223  10.768   9.527
45641SOL    HW138762   0.284  10.838   9.501
45641SOL    HW238763   0.261  10.688   9.491
45642SOL     OW38764  11.168  14.718  14.132
45642SOL    HW138765  11.208  14.637  14.101
45642SOL    HW238766  11.079  14.716  14.096
45643SOL     OW38767  10.167  11.137  12.950
45643SOL    HW138768  10.100  11.134  13.019
45643SOL    HW238769  10.178  11.230  12.931
45644SOL     OW38770  13.760  11.218   7.732
45644SOL    HW138771  13.677  11.173   7.750
45644SOL    HW238772  13.753  11.300   7.780
45645SOL     OW38773  11.867   8.157   0.515
45645SOL    HW138774  11.843   8.068   0.491
45645SOL    HW238775  11.952   8.172   0.473
45646SOL     OW38776   2.287   3.052  12.845
45646SOL    HW138777   2.208   3.002  12.821
45646SOL    HW238778   2.351   3.027  12.779
45647SOL     OW38779   8.766   3.646   3.268
45647SOL    HW138780   8.755   3.621   3.360
45647SOL    HW238781   8.810   3.731   3.272
45648SOL     OW38782   1.646  14.188   6.896
45648SOL    HW138783   1.640  14.280   6.871
45648SOL    HW238784   1.658  14.141   6.814
45649SOL     OW38785  14.123   5.864  13.304
45649SOL    HW138786  14.116   5.907  13.218
45649SOL    HW238787  14.050   5.899  13.354
45650SOL     OW38788   3.829  14.236   1.558
45650SOL    HW138789   3.758  14.294   1.531
45650SOL    HW238790   3.875  14.285   1.626
45651SOL     OW38791  14.514  10.968  14.272
45651SOL    HW138792  14.474  10.996  14.190
45651SOL    HW238793  14.462  10.892  14.299
45652SOL     OW38794   5.289   8.704   1.509
45652SOL    HW138795   5.194   8.696   1.518
45652SOL    HW238796   5.302   8.789   1.466
45653SOL     OW38797   7.854   8.199   9.010
45653SOL    HW138798   7.948   8.200   9.027
45653SOL    HW238799   7.814   8.201   9.097
45654SOL     OW38800   4.623   3.602   9.676
45654SOL    HW138801   4.618   3.596   9.771
45654SOL    HW238802   4.531   3.604   9.647
45655SOL     OW38803   1.168   4.117   6.072
45655SOL    HW138804   1.160   4.212   6.062
45655SOL    HW238805   1.157   4.082   5.984
45656SOL     OW38806   1.784  10.547   2.946
45656SOL    HW138807   1.826  10.462   2.949
45656SOL    HW238808   1.753  10.563   3.035
45657SOL     OW38809   2.166   8.746  13.491
45657SOL    HW138810   2.104   8.819  13.493
45657SOL    HW238811   2.112   8.670  13.471
45658SOL     OW38812   7.618   0.967   6.038
45658SOL    HW138813   7.638   0.952   5.946
45658SOL    HW238814   7.640   0.884   6.081
45659SOL     OW38815   4.312   6.062   5.873
45659SOL    HW138816   4.316   6.027   5.962
45659SOL    HW238817   4.230   6.112   5.870
45660SOL     OW38818  10.295   1.564   3.675
45660SOL    HW138819  10.335   1.515   3.604
45660SOL    HW238820  10.208   1.525   3.686
45661SOL     OW38821  14.386   2.098   0.617
45661SOL    HW138822  14.321   2.123   0.551
45661SOL    HW238823  14.390   2.174   0.675
45662SOL     OW38824   8.210   3.858  12.012
45662SOL    HW138825   8.197   3.935  12.067
45662SOL    HW238826   8.123   3.839  11.976
45663SOL     OW38827  11.836  10.765   1.129
45663SOL    HW138828  11.848  10.733   1.039
45663SOL    HW238829  11.846  10.860   1.122
45664SOL     OW38830  11.227  14.542  12.784
45664SOL    HW138831  11.258  14.468  12.836
45664SOL    HW238832  11.211  14.611  12.848
45665SOL     OW38833   0.279  10.359  11.689
45665SOL    HW138834   0.229  10.296  11.741
45665SOL    HW238835   0.367  10.357  11.729
45666SOL     OW38836   3.721   8.982  12.979
45666SOL    HW138837   3.728   9.035  13.059
45666SOL    HW238838   3.812   8.967  12.952
45667SOL     OW38839   7.796   1.870   8.590
45667SOL    HW138840   7.848   1.873   8.670
45667SOL    HW238841   7.857   1.842   8.522
45668SOL     OW38842  10.754   8.162  11.142
45668SOL    HW138843  10.787   8.250  11.157
45668SOL    HW238844  10.700   8.143  11.220
45669SOL     OW38845  12.178  14.112   3.049
45669SOL    HW138846  12.140  14.100   2.963
45669SOL    HW238847  12.162  14.030   3.095
45670SOL     OW38848   1.089   4.317   8.745
45670SOL    HW138849   1.145   4.243   8.721
45670SOL    HW238850   1.046   4.343   8.664
45671SOL     OW38851  13.342  11.044  11.738
45671SOL    HW138852  13.353  11.139  11.746
45671SOL    HW238853  13.380  11.023  11.652
45672SOL     OW38854   6.719   2.250   4.282
45672SOL    HW138855   6.776   2.282   4.212
45672SOL    HW238856   6.635   2.294   4.266
45673SOL     OW38857   9.278   2.244   1.069
45673SOL    HW138858   9.304   2.285   1.151
45673SOL    HW238859   9.361   2.228   1.023
45674SOL     OW38860  11.806  13.349   4.966
45674SOL    HW138861  11.874  13.351   5.033
45674SOL    HW238862  11.767  13.437   4.968
45675SOL     OW38863   2.743  12.495   1.845
45675SOL    HW138864   2.793  12.430   1.894
45675SOL    HW238865   2.779  12.492   1.756
45676SOL     OW38866   7.404  14.762  13.345
45676SOL    HW138867   7.334  14.713  13.303
45676SOL    HW238868   7.478  14.754  13.284
45677SOL     OW38869  10.135   6.070  10.379
45677SOL    HW138870  10.160   6.011  10.308
45677SOL    HW238871  10.213   6.076  10.434
45678SOL     OW38872   9.651  10.192   5.068
45678SOL    HW138873   9.568  10.199   5.114
45678SOL    HW238874   9.689  10.109   5.100
45679SOL     OW38875   9.668  10.011  14.704
45679SOL    HW138876   9.619   9.936  14.669
45679SOL    HW238877   9.645  10.084  14.646
45680SOL     OW38878   6.071   7.572   7.019
45680SOL    HW138879   6.072   7.638   7.089
45680SOL    HW238880   6.001   7.512   7.045
45681SOL     OW38881  12.457   1.592   0.792
45681SOL    HW138882  12.403   1.597   0.871
45681SOL    HW238883  12.480   1.682   0.772
45682SOL     OW38884   0.985   7.672   3.301
45682SOL    HW138885   0.940   7.744   3.258
45682SOL    HW238886   0.939   7.661   3.384
45683SOL     OW38887   3.917  12.203   6.368
45683SOL    HW138888   3.913  12.130   6.431
45683SOL    HW238889   3.927  12.160   6.283
45684SOL     OW38890  11.955   5.609  14.279
45684SOL    HW138891  11.877   5.631  14.330
45684SOL    HW238892  11.950   5.514  14.267
45685SOL     OW38893   4.135  10.121  14.002
45685SOL    HW138894   4.103  10.043  13.956
45685SOL    HW238895   4.075  10.191  13.974
45686SOL     OW38896  10.556   9.328   4.884
45686SOL    HW138897  10.518   9.392   4.945
45686SOL    HW238898  10.649   9.329   4.904
45687SOL     OW38899   5.623   5.696   0.113
45687SOL    HW138900   5.718   5.707   0.111
45687SOL    HW238901   5.590   5.784   0.133
45688SOL     OW38902  14.342  12.087   1.990
45688SOL    HW138903  14.411  12.040   1.943
45688SOL    HW238904  14.263  12.071   1.938
45689SOL     OW38905   3.334   0.284  11.901
45689SOL    HW138906   3.332   0.348  11.829
45689SOL    HW238907   3.305   0.202  11.860
45690SOL     OW38908  12.546  12.247   8.147
45690SOL    HW138909  12.628  12.274   8.106
45690SOL    HW238910  12.495  12.328   8.156
45691SOL     OW38911  10.379   1.593  10.787
45691SOL    HW138912  10.386   1.639  10.704
45691SOL    HW238913  10.466   1.598  10.826
45692SOL     OW38914  14.203   4.857  11.619
45692SOL    HW138915  14.118   4.816  11.607
45692SOL    HW238916  14.208   4.876  11.712
45693SOL     OW38917   5.978   4.180   6.435
45693SOL    HW138918   5.915   4.143   6.372
45693SOL    HW238919   5.948   4.270   6.449
45694SOL     OW38920  13.664  10.184   1.348
45694SOL    HW138921  13.663  10.213   1.257
45694SOL    HW238922  13.592  10.233   1.389
45695SOL     OW38923  13.049  14.518  13.072
45695SOL    HW138924  12.957  14.493  13.076
45695SOL    HW238925  13.088  14.478  13.149
45696SOL     OW38926  12.073   1.833   2.460
45696SOL    HW138927  12.021   1.891   2.515
45696SOL    HW238928  12.143   1.801   2.517
45697SOL     OW38929   6.066  13.344  13.440
45697SOL    HW138930   6.054  13.306  13.527
45697SOL    HW238931   5.987  13.317  13.392
45698SOL     OW38932   4.048   1.761  10.294
45698SOL    HW138933   3.965   1.724  10.263
45698SOL    HW238934   4.103   1.685  10.312
45699SOL     OW38935  10.299   9.947  12.697
45699SOL    HW138936  10.342   9.962  12.613
45699SOL    HW238937  10.210   9.980  12.686
45700SOL     OW38938   6.449   5.169   8.177
45700SOL    HW138939   6.400   5.099   8.134
45700SOL    HW238940   6.416   5.171   8.266
45701SOL     OW38941   5.516   6.298  10.487
45701SOL    HW138942   5.534   6.233  10.419
45701SOL    HW238943   5.509   6.381  10.439
45702SOL     OW38944  14.417  12.896   7.245
45702SOL    HW138945  14.350  12.896   7.314
45702SOL    HW238946  14.406  12.980   7.201
45703SOL     OW38947   9.112  11.559   5.381
45703SOL    HW138948   9.038  11.617   5.362
45703SOL    HW238949   9.100  11.484   5.322
45704SOL     OW38950   3.875  12.060  10.050
45704SOL    HW138951   3.842  12.124  10.113
45704SOL    HW238952   3.857  11.975  10.091
45705SOL     OW38953   3.335   8.236   8.084
45705SOL    HW138954   3.336   8.201   8.173
45705SOL    HW238955   3.420   8.210   8.047
45706SOL     OW38956   7.809   4.340   2.466
45706SOL    HW138957   7.728   4.324   2.418
45706SOL    HW238958   7.844   4.253   2.484
45707SOL     OW38959   6.523   5.524   2.540
45707SOL    HW138960   6.432   5.520   2.512
45707SOL    HW238961   6.567   5.456   2.489
45708SOL     OW38962   2.581   7.855  12.395
45708SOL    HW138963   2.637   7.895  12.461
45708SOL    HW238964   2.550   7.928  12.342
45709SOL     OW38965   2.025   6.072   5.886
45709SOL    HW138966   1.956   6.044   5.947
45709SOL    HW238967   2.060   6.152   5.925
45710SOL     OW38968   1.173   9.094   3.470
45710SOL    HW138969   1.144   9.016   3.422
45710SOL    HW238970   1.161   9.165   3.408
45711SOL     OW38971   4.186  11.310  10.041
45711SOL    HW138972   4.221  11.272  10.121
45711SOL    HW238973   4.134  11.385  10.070
45712SOL     OW38974   9.263  11.243   6.845
45712SOL    HW138975   9.352  11.275   6.863
45712SOL    HW238976   9.250  11.261   6.752
45713SOL     OW38977   9.757   4.599   7.344
45713SOL    HW138978   9.743   4.527   7.282
45713SOL    HW238979   9.852   4.607   7.351
45714SOL     OW38980   2.668   4.651   4.821
45714SOL    HW138981   2.633   4.604   4.746
45714SOL    HW238982   2.591   4.691   4.863
45715SOL     OW38983   9.903   8.773   4.674
45715SOL    HW138984   9.830   8.729   4.630
45715SOL    HW238985   9.862   8.819   4.747
45716SOL     OW38986   5.467   9.020   0.120
45716SOL    HW138987   5.500   9.050   0.035
45716SOL    HW238988   5.416   9.094   0.153
45717SOL     OW38989   8.259   9.716   5.147
45717SOL    HW138990   8.202   9.774   5.097
45717SOL    HW238991   8.199   9.660   5.196
45718SOL     OW38992   7.458   7.861   1.593
45718SOL    HW138993   7.553   7.854   1.581
45718SOL    HW238994   7.422   7.842   1.507
45719SOL     OW38995  12.559   1.814  12.824
45719SOL    HW138996  12.517   1.894  12.791
45719SOL    HW238997  12.491   1.772  12.877
45720SOL     OW38998   6.925   5.493   2.621
45720SOL    HW138999   6.898   5.526   2.535
45720SOL    HW239000   7.016   5.467   2.609
45721SOL     OW39001  14.002   0.891   8.296
45721SOL    HW139002  14.025   0.952   8.227
45721SOL    HW239003  14.065   0.908   8.366
45722SOL     OW39004  12.349   8.989  13.497
45722SOL    HW139005  12.386   8.901  13.488
45722SOL    HW239006  12.350   9.007  13.591
45723SOL     OW39007   0.965  13.711   9.008
45723SOL    HW139008   0.922  13.635   9.047
45723SOL    HW239009   1.024  13.743   9.076
45724SOL     OW39010   1.466  12.665   3.403
45724SOL    HW139011   1.503  12.609   3.471
45724SOL    HW239012   1.374  12.675   3.427
45725SOL     OW39013   3.332  11.330   8.341
45725SOL    HW139014   3.330  11.297   8.251
45725SOL    HW239015   3.257  11.288   8.384
45726SOL     OW39016   7.328   6.540   0.321
45726SOL    HW139017   7.414   6.576   0.344
45726SOL    HW239018   7.320   6.556   0.227
45727SOL     OW39019   6.532   8.820  13.396
45727SOL    HW139020   6.500   8.908  13.414
45727SOL    HW239021   6.603   8.832  13.334
45728SOL     OW39022   9.997  12.177   3.326
45728SOL    HW139023   9.964  12.117   3.260
45728SOL    HW239024   9.926  12.185   3.390
45729SOL     OW39025   2.090   6.525  14.176
45729SOL    HW139026   2.002   6.560  14.164
45729SOL    HW239027   2.141   6.598  14.210
45730SOL     OW39028  12.985   3.395   0.445
45730SOL    HW139029  12.926   3.465   0.419
45730SOL    HW239030  13.072   3.436   0.449
45731SOL     OW39031  10.623  12.069   2.015
45731SOL    HW139032  10.546  12.060   1.958
45731SOL    HW239033  10.693  12.099   1.957
45732SOL     OW39034   7.077  14.787   8.366
45732SOL    HW139035   7.140  14.730   8.322
45732SOL    HW239036   7.076  14.867   8.312
45733SOL     OW39037  10.437   7.578  13.828
45733SOL    HW139038  10.341   7.585  13.828
45733SOL    HW239039  10.466   7.644  13.765
45734SOL     OW39040  10.246  14.528   8.698
45734SOL    HW139041  10.212  14.588   8.764
45734SOL    HW239042  10.270  14.584   8.624
45735SOL     OW39043   2.940  12.026   8.401
45735SOL    HW139044   2.968  12.022   8.310
45735SOL    HW239045   2.904  12.114   8.412
45736SOL     OW39046  10.147   0.120  11.055
45736SOL    HW139047  10.143   0.105  10.960
45736SOL    HW239048  10.241   0.131  11.073
45737SOL     OW39049  11.394   8.899   1.975
45737SOL    HW139050  11.428   8.852   2.052
45737SOL    HW239051  11.394   8.834   1.905
45738SOL     OW39052   4.559   1.011  10.763
45738SOL    HW139053   4.550   1.078  10.694
45738SOL    HW239054   4.489   0.949  10.744
45739SOL     OW39055   0.614   8.301  11.145
45739SOL    HW139056   0.637   8.312  11.052
45739SOL    HW239057   0.640   8.211  11.165
45740SOL     OW39058  12.679   4.183  14.745
45740SOL    HW139059  12.648   4.161  14.833
45740SOL    HW239060  12.694   4.277  14.749
45741SOL     OW39061  14.081  11.693   1.864
45741SOL    HW139062  14.105  11.605   1.893
45741SOL    HW239063  14.164  11.740   1.863
45742SOL     OW39064  13.075   8.822   5.211
45742SOL    HW139065  13.167   8.818   5.187
45742SOL    HW239066  13.062   8.748   5.271
45743SOL     OW39067   0.191  13.388   8.316
45743SOL    HW139068   0.121  13.343   8.363
45743SOL    HW239069   0.267  13.330   8.324
45744SOL     OW39070   4.303   1.757   5.598
45744SOL    HW139071   4.276   1.846   5.579
45744SOL    HW239072   4.394   1.753   5.569
45745SOL     OW39073   1.888  10.125   9.333
45745SOL    HW139074   1.940  10.100   9.256
45745SOL    HW239075   1.920  10.068   9.403
45746SOL     OW39076  10.457   2.240  12.226
45746SOL    HW139077  10.373   2.212  12.264
45746SOL    HW239078  10.463   2.190  12.144
45747SOL     OW39079  14.022   0.497   8.064
45747SOL    HW139080  14.067   0.413   8.054
45747SOL    HW239081  13.973   0.489   8.145
45748SOL     OW39082  13.424  12.056   5.891
45748SOL    HW139083  13.454  12.016   5.810
45748SOL    HW239084  13.383  11.985   5.940
45749SOL     OW39085   9.868   9.571   3.860
45749SOL    HW139086   9.854   9.604   3.948
45749SOL    HW239087   9.900   9.481   3.873
45750SOL     OW39088   2.404   8.421   3.961
45750SOL    HW139089   2.415   8.453   3.871
45750SOL    HW239090   2.410   8.500   4.015
45751SOL     OW39091   4.683  14.533  11.834
45751SOL    HW139092   4.589  14.525  11.846
45751SOL    HW239093   4.715  14.567  11.918
45752SOL     OW39094   9.610   7.626  13.545
45752SOL    HW139095   9.536   7.675  13.579
45752SOL    HW239096   9.612   7.545  13.596
45753SOL     OW39097  13.792  13.313  13.942
45753SOL    HW139098  13.765  13.404  13.931
45753SOL    HW239099  13.724  13.262  13.898
45754SOL     OW39100   0.155  14.784   8.574
45754SOL    HW139101   0.205  14.705   8.597
45754SOL    HW239102   0.210  14.829   8.510
45755SOL     OW39103   7.857  13.507  13.893
45755SOL    HW139104   7.788  13.445  13.869
45755SOL    HW239105   7.817  13.593  13.879
45756SOL     OW39106   2.294  10.159   4.837
45756SOL    HW139107   2.333  10.101   4.902
45756SOL    HW239108   2.346  10.239   4.842
45757SOL     OW39109   9.171  13.260  13.730
45757SOL    HW139110   9.123  13.267  13.647
45757SOL    HW239111   9.104  13.265  13.798
45758SOL     OW39112   9.883  12.823   8.560
45758SOL    HW139113   9.869  12.742   8.510
45758SOL    HW239114   9.817  12.820   8.629
45759SOL     OW39115  14.328   2.382   3.110
45759SOL    HW139116  14.415   2.361   3.144
45759SOL    HW239117  14.268   2.330   3.164
45760SOL     OW39118  13.301   0.693   0.179
45760SOL    HW139119  13.393   0.689   0.202
45760SOL    HW239120  13.296   0.759   0.109
45761SOL     OW39121   0.659   1.827   2.574
45761SOL    HW139122   0.703   1.910   2.557
45761SOL    HW239123   0.718   1.760   2.539
45762SOL     OW39124   3.326   7.838   6.137
45762SOL    HW139125   3.238   7.822   6.104
45762SOL    HW239126   3.321   7.817   6.231
45763SOL     OW39127   2.895   4.096  10.193
45763SOL    HW139128   2.873   4.028  10.130
45763SOL    HW239129   2.860   4.176  10.155
45764SOL     OW39130   3.740   3.154   5.525
45764SOL    HW139131   3.672   3.087   5.526
45764SOL    HW239132   3.747   3.183   5.616
45765SOL     OW39133   9.841  11.807  12.894
45765SOL    HW139134   9.802  11.887  12.859
45765SOL    HW239135   9.773  11.740  12.883
45766SOL     OW39136   4.725   9.210   0.200
45766SOL    HW139137   4.773   9.265   0.139
45766SOL    HW239138   4.706   9.130   0.151
45767SOL     OW39139  11.111   0.265   2.185
45767SOL    HW139140  11.022   0.235   2.203
45767SOL    HW239141  11.114   0.354   2.220
45768SOL     OW39142   9.718   6.007  10.024
45768SOL    HW139143   9.666   6.058   9.962
45768SOL    HW239144   9.809   6.026   9.999
45769SOL     OW39145  14.490   1.081   9.148
45769SOL    HW139146  14.538   1.114   9.072
45769SOL    HW239147  14.499   0.986   9.142
45770SOL     OW39148   4.176  12.271   3.737
45770SOL    HW139149   4.198  12.364   3.737
45770SOL    HW239150   4.144  12.254   3.649
45771SOL     OW39151   0.954   6.951   8.264
45771SOL    HW139152   0.882   6.990   8.214
45771SOL    HW239153   0.995   7.026   8.308
45772SOL     OW39154   6.069   9.160   5.911
45772SOL    HW139155   6.076   9.221   5.838
45772SOL    HW239156   6.134   9.092   5.891
45773SOL     OW39157  11.780   1.222   7.013
45773SOL    HW139158  11.773   1.237   7.107
45773SOL    HW239159  11.841   1.148   7.005
45774SOL     OW39160   5.489   0.926   7.746
45774SOL    HW139161   5.453   0.839   7.725
45774SOL    HW239162   5.541   0.949   7.669
45775SOL     OW39163  12.276   6.915  11.669
45775SOL    HW139164  12.230   6.994  11.640
45775SOL    HW239165  12.300   6.871  11.588
45776SOL     OW39166   2.964   2.868  14.866
45776SOL    HW139167   2.953   2.884   0.078
45776SOL    HW239168   2.936   2.778  14.854
45777SOL     OW39169   0.985   3.211   2.731
45777SOL    HW139170   0.923   3.168   2.790
45777SOL    HW239171   0.929   3.255   2.666
45778SOL     OW39172  13.719  13.225   4.555
45778SOL    HW139173  13.679  13.143   4.585
45778SOL    HW239174  13.658  13.258   4.489
45779SOL     OW39175   5.834   3.566   6.599
45779SOL    HW139176   5.775   3.636   6.626
45779SOL    HW239177   5.849   3.581   6.506
45780SOL     OW39178   1.744   0.525  14.377
45780SOL    HW139179   1.798   0.588  14.427
45780SOL    HW239180   1.723   0.571  14.296
45781SOL     OW39181   6.178   8.807   3.520
45781SOL    HW139182   6.232   8.804   3.441
45781SOL    HW239183   6.204   8.887   3.565
45782SOL     OW39184   2.047   8.294   9.808
45782SOL    HW139185   2.004   8.214   9.778
45782SOL    HW239186   2.026   8.359   9.741
45783SOL     OW39187   9.681   5.465   1.701
45783SOL    HW139188   9.666   5.374   1.727
45783SOL    HW239189   9.741   5.500   1.768
45784SOL     OW39190   3.099   3.297   7.593
45784SOL    HW139191   3.137   3.316   7.678
45784SOL    HW239192   3.119   3.205   7.577
45785SOL     OW39193   7.169   4.144   8.192
45785SOL    HW139194   7.084   4.188   8.191
45785SOL    HW239195   7.156   4.070   8.251
45786SOL     OW39196   5.311   8.867   3.895
45786SOL    HW139197   5.395   8.831   3.869
45786SOL    HW239198   5.302   8.845   3.988
45787SOL     OW39199  13.528   9.878  11.766
45787SOL    HW139200  13.578   9.879  11.685
45787SOL    HW239201  13.460   9.813  11.752
45788SOL     OW39202   9.124   9.660  14.321
45788SOL    HW139203   9.108   9.753  14.312
45788SOL    HW239204   9.153   9.649  14.412
45789SOL     OW39205   4.006   3.102   4.362
45789SOL    HW139206   3.940   3.145   4.416
45789SOL    HW239207   4.044   3.173   4.310
45790SOL     OW39208   5.776  12.239  14.424
45790SOL    HW139209   5.810  12.324  14.396
45790SOL    HW239210   5.848  12.178  14.410
45791SOL     OW39211   6.541  11.900   8.763
45791SOL    HW139212   6.527  11.993   8.783
45791SOL    HW239213   6.636  11.893   8.748
45792SOL     OW39214   5.196   9.828   5.781
45792SOL    HW139215   5.190   9.920   5.805
45792SOL    HW239216   5.192   9.781   5.865
45793SOL     OW39217   6.242   9.400  10.450
45793SOL    HW139218   6.318   9.421  10.505
45793SOL    HW239219   6.275   9.403  10.361
45794SOL     OW39220   7.692   5.638   4.910
45794SOL    HW139221   7.622   5.667   4.850
45794SOL    HW239222   7.771   5.638   4.856
45795SOL     OW39223   1.782   1.632   2.588
45795SOL    HW139224   1.872   1.652   2.614
45795SOL    HW239225   1.756   1.704   2.531
45796SOL     OW39226   4.720   1.306   2.618
45796SOL    HW139227   4.627   1.313   2.640
45796SOL    HW239228   4.760   1.265   2.694
45797SOL     OW39229  13.117   1.001   6.393
45797SOL    HW139230  13.125   0.974   6.302
45797SOL    HW239231  13.199   1.045   6.413
45798SOL     OW39232   8.860   2.100   7.181
45798SOL    HW139233   8.859   2.026   7.121
45798SOL    HW239234   8.773   2.140   7.172
45799SOL     OW39235   6.018  12.757   9.589
45799SOL    HW139236   6.008  12.727   9.680
45799SOL    HW239237   6.056  12.845   9.597
45800SOL     OW39238   0.067  10.452  14.855
45800SOL    HW139239   0.057  10.360  14.831
45800SOL    HW239240   0.065  10.452   0.069
45801SOL     OW39241   2.634   5.847   5.049
45801SOL    HW139242   2.651   5.754   5.060
45801SOL    HW239243   2.592   5.854   4.964
45802SOL     OW39244   9.916   2.822   0.733
45802SOL    HW139245   9.845   2.883   0.752
45802SOL    HW239246   9.942   2.788   0.819
45803SOL     OW39247   6.001  11.412  11.456
45803SOL    HW139248   5.986  11.504  11.435
45803SOL    HW239249   5.985  11.365  11.374
45804SOL     OW39250   8.985  12.098   9.240
45804SOL    HW139251   8.946  12.180   9.269
45804SOL    HW239252   8.986  12.105   9.144
45805SOL     OW39253  10.714   4.235   2.425
45805SOL    HW139254  10.719   4.174   2.352
45805SOL    HW239255  10.701   4.180   2.502
45806SOL     OW39256   4.282   5.395  10.129
45806SOL    HW139257   4.208   5.446  10.097
45806SOL    HW239258   4.297   5.330  10.061
45807SOL     OW39259   4.981  11.256   6.040
45807SOL    HW139260   5.035  11.335   6.029
45807SOL    HW239261   4.948  11.262   6.129
45808SOL     OW39262  13.420   3.185   7.841
45808SOL    HW139263  13.476   3.180   7.763
45808SOL    HW239264  13.475   3.151   7.911
45809SOL     OW39265  12.102   6.023   0.084
45809SOL    HW139266  12.136   5.941   0.049
45809SOL    HW239267  12.177   6.082   0.086
45810SOL     OW39268  12.141   2.512   3.489
45810SOL    HW139269  12.051   2.481   3.503
45810SOL    HW239270  12.194   2.460   3.550
45811SOL     OW39271  10.104  12.053   1.303
45811SOL    HW139272  10.061  12.119   1.358
45811SOL    HW239273  10.056  12.057   1.220
45812SOL     OW39274  12.488   6.167   4.426
45812SOL    HW139275  12.543   6.205   4.494
45812SOL    HW239276  12.514   6.075   4.423
45813SOL     OW39277   9.067   2.664   3.155
45813SOL    HW139278   9.139   2.637   3.099
45813SOL    HW239279   9.004   2.704   3.095
45814SOL     OW39280   5.408   8.516  14.297
45814SOL    HW139281   5.326   8.512  14.346
45814SOL    HW239282   5.466   8.570  14.352
45815SOL     OW39283   2.483   9.447   6.281
45815SOL    HW139284   2.570   9.411   6.265
45815SOL    HW239285   2.423   9.376   6.260
45816SOL     OW39286   4.340   1.198   3.078
45816SOL    HW139287   4.323   1.160   2.991
45816SOL    HW239288   4.435   1.205   3.083
45817SOL     OW39289   7.498  14.070   4.062
45817SOL    HW139290   7.439  14.120   4.119
45817SOL    HW239291   7.491  14.113   3.977
45818SOL     OW39292   6.738   7.495   9.138
45818SOL    HW139293   6.810   7.442   9.104
45818SOL    HW239294   6.711   7.550   9.064
45819SOL     OW39295  14.531   5.549  10.739
45819SOL    HW139296  14.554   5.473  10.793
45819SOL    HW239297  14.587   5.541  10.662
45820SOL     OW39298   1.375   2.557   2.666
45820SOL    HW139299   1.334   2.470   2.663
45820SOL    HW239300   1.301   2.617   2.679
45821SOL     OW39301   3.953   5.748   0.909
45821SOL    HW139302   4.012   5.785   0.975
45821SOL    HW239303   3.982   5.789   0.827
45822SOL     OW39304   5.976   1.180   8.550
45822SOL    HW139305   5.898   1.158   8.499
45822SOL    HW239306   5.975   1.117   8.623
45823SOL     OW39307  11.141   2.433   8.761
45823SOL    HW139308  11.054   2.444   8.800
45823SOL    HW239309  11.179   2.521   8.762
45824SOL     OW39310   2.972  12.042   1.123
45824SOL    HW139311   2.984  12.125   1.169
45824SOL    HW239312   3.038  11.984   1.161
45825SOL     OW39313   5.910   0.058  10.268
45825SOL    HW139314   5.889   0.143  10.229
45825SOL    HW239315   6.003   0.046  10.250
45826SOL     OW39316   6.969  13.507   5.288
45826SOL    HW139317   6.911  13.445   5.332
45826SOL    HW239318   6.913  13.550   5.224
45827SOL     OW39319   6.244   7.857   5.768
45827SOL    HW139320   6.187   7.900   5.704
45827SOL    HW239321   6.231   7.764   5.753
45828SOL     OW39322   4.337  10.247   4.611
45828SOL    HW139323   4.285  10.176   4.648
45828SOL    HW239324   4.280  10.285   4.543
45829SOL     OW39325   6.732   7.373   6.838
45829SOL    HW139326   6.715   7.327   6.756
45829SOL    HW239327   6.811   7.331   6.873
45830SOL     OW39328   9.506  11.264   5.912
45830SOL    HW139329   9.447  11.221   5.850
45830SOL    HW239330   9.456  11.267   5.994
45831SOL     OW39331   6.522   8.973   9.883
45831SOL    HW139332   6.595   8.965   9.943
45831SOL    HW239333   6.514   8.887   9.843
45832SOL     OW39334  10.765   7.420  11.453
45832SOL    HW139335  10.790   7.511  11.439
45832SOL    HW239336  10.848   7.372  11.450
45833SOL     OW39337   7.618   9.286  12.932
45833SOL    HW139338   7.547   9.278  12.996
45833SOL    HW239339   7.692   9.243  12.974
45834SOL     OW39340   0.606   4.192   1.046
45834SOL    HW139341   0.668   4.120   1.057
45834SOL    HW239342   0.520   4.151   1.049
45835SOL     OW39343   3.929   0.957   7.372
45835SOL    HW139344   3.949   0.964   7.465
45835SOL    HW239345   3.975   0.877   7.344
45836SOL     OW39346   5.409  11.870   7.486
45836SOL    HW139347   5.337  11.913   7.440
45836SOL    HW239348   5.370  11.790   7.522
45837SOL     OW39349   4.240   7.514   1.616
45837SOL    HW139350   4.191   7.525   1.535
45837SOL    HW239351   4.318   7.465   1.590
45838SOL     OW39352   3.531  13.233  12.087
45838SOL    HW139353   3.446  13.264  12.056
45838SOL    HW239354   3.564  13.178  12.016
45839SOL     OW39355  13.032   3.573   8.416
45839SOL    HW139356  12.938   3.560   8.427
45839SOL    HW239357  13.072   3.502   8.467
45840SOL     OW39358   1.274   7.720   2.586
45840SOL    HW139359   1.298   7.705   2.677
45840SOL    HW239360   1.186   7.756   2.589
45841SOL     OW39361   3.016   3.877   9.737
45841SOL    HW139362   2.953   3.885   9.666
45841SOL    HW239363   3.047   3.786   9.731
45842SOL     OW39364  12.486  13.695   7.060
45842SOL    HW139365  12.431  13.672   6.985
45842SOL    HW239366  12.467  13.788   7.075
45843SOL     OW39367  12.383  13.362   8.707
45843SOL    HW139368  12.359  13.274   8.737
45843SOL    HW239369  12.350  13.420   8.775
45844SOL     OW39370  12.381   1.204  13.686
45844SOL    HW139371  12.378   1.261  13.610
45844SOL    HW239372  12.393   1.264  13.760
45845SOL     OW39373   3.113  12.650   7.776
45845SOL    HW139374   3.074  12.693   7.700
45845SOL    HW239375   3.047  12.659   7.845
45846SOL     OW39376  10.092   5.998  14.523
45846SOL    HW139377  10.116   6.053  14.598
45846SOL    HW239378  10.047   6.057  14.463
45847SOL     OW39379   2.391   6.929  13.698
45847SOL    HW139380   2.426   6.920  13.786
45847SOL    HW239381   2.465   6.912  13.640
45848SOL     OW39382  11.028  13.365  10.154
45848SOL    HW139383  11.058  13.450  10.184
45848SOL    HW239384  11.006  13.317  10.234
45849SOL     OW39385   7.649   5.747   9.747
45849SOL    HW139386   7.670   5.676   9.687
45849SOL    HW239387   7.645   5.705   9.833
45850SOL     OW39388   6.451  10.823   9.173
45850SOL    HW139389   6.537  10.812   9.132
45850SOL    HW239390   6.461  10.785   9.260
45851SOL     OW39391   9.049   2.744  11.087
45851SOL    HW139392   9.016   2.657  11.068
45851SOL    HW239393   8.976   2.803  11.067
45852SOL     OW39394   1.235   9.582   9.690
45852SOL    HW139395   1.193   9.597   9.605
45852SOL    HW239396   1.163   9.558   9.748
45853SOL     OW39397  14.206   8.888  12.233
45853SOL    HW139398  14.263   8.955  12.193
45853SOL    HW239399  14.264   8.840  12.292
45854SOL     OW39400   3.882  10.208  12.645
45854SOL    HW139401   3.949  10.144  12.669
45854SOL    HW239402   3.800  10.160  12.652
45855SOL     OW39403   1.159   2.426   8.556
45855SOL    HW139404   1.124   2.364   8.492
45855SOL    HW239405   1.253   2.408   8.558
45856SOL     OW39406  14.148   5.949  12.016
45856SOL    HW139407  14.177   6.033  12.052
45856SOL    HW239408  14.115   5.900  12.092
45857SOL     OW39409   7.886   3.338   4.836
45857SOL    HW139410   7.827   3.399   4.882
45857SOL    HW239411   7.836   3.257   4.830
45858SOL     OW39412  12.998  11.393   8.458
45858SOL    HW139413  13.075  11.337   8.442
45858SOL    HW239414  13.022  11.478   8.422
45859SOL     OW39415   0.483   0.478  13.273
45859SOL    HW139416   0.551   0.412  13.285
45859SOL    HW239417   0.532   0.558  13.251
45860SOL     OW39418  11.955   6.887   3.732
45860SOL    HW139419  11.902   6.954   3.775
45860SOL    HW239420  11.902   6.860   3.656
45861SOL     OW39421   8.991   8.665   1.061
45861SOL    HW139422   8.934   8.736   1.029
45861SOL    HW239423   9.080   8.694   1.040
45862SOL     OW39424  10.113   6.129   8.672
45862SOL    HW139425  10.054   6.120   8.747
45862SOL    HW239426  10.198   6.151   8.710
45863SOL     OW39427  12.758  14.803   6.282
45863SOL    HW139428  12.796  14.763   6.360
45863SOL    HW239429  12.814  14.773   6.210
45864SOL     OW39430  11.974  14.364   6.861
45864SOL    HW139431  11.982  14.283   6.810
45864SOL    HW239432  12.058  14.408   6.848
45865SOL     OW39433   7.724   6.315  14.866
45865SOL    HW139434   7.645   6.330   0.036
45865SOL    HW239435   7.724   6.385  14.801
45866SOL     OW39436   6.225   7.001   1.199
45866SOL    HW139437   6.149   7.013   1.142
45866SOL    HW239438   6.285   7.071   1.174
45867SOL     OW39439  12.949   7.295   8.970
45867SOL    HW139440  12.897   7.367   9.005
45867SOL    HW239441  13.039   7.325   8.975
45868SOL     OW39442   3.398  13.191   0.504
45868SOL    HW139443   3.436  13.131   0.439
45868SOL    HW239444   3.474  13.222   0.554
45869SOL     OW39445   1.734   6.589   7.949
45869SOL    HW139446   1.690   6.649   8.010
45869SOL    HW239447   1.792   6.645   7.898
45870SOL     OW39448  14.133   3.507   0.284
45870SOL    HW139449  14.223   3.473   0.284
45870SOL    HW239450  14.091   3.464   0.210
45871SOL     OW39451   1.053   9.879   8.955
45871SOL    HW139452   1.112   9.937   9.004
45871SOL    HW239453   1.103   9.855   8.877
45872SOL     OW39454  14.770   9.735  14.729
45872SOL    HW139455  14.684   9.692  14.730
45872SOL    HW239456  14.829   9.670  14.767
45873SOL     OW39457   4.771   2.235   7.874
45873SOL    HW139458   4.776   2.171   7.945
45873SOL    HW239459   4.677   2.241   7.854
45874SOL     OW39460   6.097  12.481  13.701
45874SOL    HW139461   6.125  12.406  13.753
45874SOL    HW239462   6.080  12.445  13.614
45875SOL     OW39463   9.867   0.320   7.861
45875SOL    HW139464   9.914   0.259   7.917
45875SOL    HW239465   9.924   0.334   7.786
45876SOL     OW39466   3.186   1.054  13.401
45876SOL    HW139467   3.098   1.056  13.438
45876SOL    HW239468   3.182   1.114  13.327
45877SOL     OW39469   4.976   2.506   9.860
45877SOL    HW139470   5.003   2.498   9.768
45877SOL    HW239471   5.058   2.521   9.907
45878SOL     OW39472   8.170  14.834   6.806
45878SOL    HW139473   8.202   0.013   6.873
45878SOL    HW239474   8.200  14.870   6.723
45879SOL     OW39475   7.693   0.094  12.975
45879SOL    HW139476   7.617   0.104  12.919
45879SOL    HW239477   7.659   0.101  13.064
45880SOL     OW39478   3.622   3.476  11.962
45880SOL    HW139479   3.632   3.402  11.902
45880SOL    HW239480   3.610   3.436  12.048
45881SOL     OW39481  14.091  12.432   5.084
45881SOL    HW139482  14.141  12.495   5.033
45881SOL    HW239483  14.037  12.386   5.020
45882SOL     OW39484  12.505  14.565  12.138
45882SOL    HW139485  12.459  14.646  12.119
45882SOL    HW239486  12.562  14.551  12.063
45883SOL     OW39487   5.651   2.326   7.640
45883SOL    HW139488   5.571   2.275   7.650
45883SOL    HW239489   5.643   2.396   7.705
45884SOL     OW39490   8.580  14.233   7.344
45884SOL    HW139491   8.655  14.255   7.287
45884SOL    HW239492   8.527  14.174   7.291
45885SOL     OW39493   4.025   3.956   7.890
45885SOL    HW139494   4.076   3.881   7.922
45885SOL    HW239495   4.090   4.018   7.859
45886SOL     OW39496  11.917   1.258   0.202
45886SOL    HW139497  11.945   1.171   0.229
45886SOL    HW239498  11.938   1.262   0.108
45887SOL     OW39499   4.475  14.418  10.142
45887SOL    HW139500   4.561  14.378  10.130
45887SOL    HW239501   4.453  14.455  10.056
45888SOL     OW39502   6.960   3.535  10.900
45888SOL    HW139503   7.029   3.519  10.836
45888SOL    HW239504   6.969   3.628  10.922
45889SOL     OW39505   4.032  14.508   8.093
45889SOL    HW139506   3.950  14.524   8.047
45889SOL    HW239507   4.084  14.456   8.032
45890SOL     OW39508  10.224   5.902   8.931
45890SOL    HW139509  10.169   5.913   9.008
45890SOL    HW239510  10.299   5.959   8.947
45891SOL     OW39511   1.909   6.236   8.153
45891SOL    HW139512   1.992   6.253   8.109
45891SOL    HW239513   1.922   6.266   8.243
45892SOL     OW39514   4.088   4.725  10.359
45892SOL    HW139515   4.120   4.803  10.314
45892SOL    HW239516   4.131   4.652  10.315
45893SOL     OW39517   5.208   2.029  11.441
45893SOL    HW139518   5.114   2.046  11.435
45893SOL    HW239519   5.249   2.108  11.405
45894SOL     OW39520   7.090   6.242  14.355
45894SOL    HW139521   7.006   6.275  14.322
45894SOL    HW239522   7.079   6.147  14.356
45895SOL     OW39523  14.879  10.379   8.232
45895SOL    HW139524   0.026  10.346   8.147
45895SOL    HW239525  14.857  10.300   8.282
45896SOL     OW39526   2.530   9.642  10.880
45896SOL    HW139527   2.597   9.600  10.935
45896SOL    HW239528   2.571   9.725  10.854
45897SOL     OW39529   2.263  13.340   6.851
45897SOL    HW139530   2.249  13.412   6.913
45897SOL    HW239531   2.181  13.289   6.855
45898SOL     OW39532   0.961  12.149   8.954
45898SOL    HW139533   0.908  12.107   8.885
45898SOL    HW239534   1.004  12.076   8.998
45899SOL     OW39535  11.405  13.945   4.293
45899SOL    HW139536  11.349  14.012   4.333
45899SOL    HW239537  11.411  13.970   4.201
45900SOL     OW39538  11.124   5.907   6.213
45900SOL    HW139539  11.160   5.876   6.296
45900SOL    HW239540  11.129   5.831   6.155
45901SOL     OW39541   1.502   5.543  10.604
45901SOL    HW139542   1.526   5.464  10.556
45901SOL    HW239543   1.419   5.521  10.647
45902SOL     OW39544  12.924   3.947   2.309
45902SOL    HW139545  12.915   3.892   2.232
45902SOL    HW239546  13.017   3.941   2.331
45903SOL     OW39547  12.674  10.602   7.032
45903SOL    HW139548  12.740  10.634   7.094
45903SOL    HW239549  12.634  10.680   6.996
45904SOL     OW39550  13.124  14.079   7.675
45904SOL    HW139551  13.180  14.108   7.747
45904SOL    HW239552  13.184  14.067   7.601
45905SOL     OW39553  14.425  13.811   5.458
45905SOL    HW139554  14.344  13.787   5.412
45905SOL    HW239555  14.447  13.897   5.424
45906SOL     OW39556   1.778   7.987   9.339
45906SOL    HW139557   1.726   8.005   9.418
45906SOL    HW239558   1.724   7.926   9.288
45907SOL     OW39559   9.198   5.342   4.627
45907SOL    HW139560   9.126   5.309   4.681
45907SOL    HW239561   9.271   5.352   4.687
45908SOL     OW39562   1.688   8.882   6.188
45908SOL    HW139563   1.680   8.956   6.128
45908SOL    HW239564   1.695   8.921   6.274
45909SOL     OW39565   4.915   6.612   2.317
45909SOL    HW139566   4.873   6.538   2.361
45909SOL    HW239567   4.860   6.687   2.339
45910SOL     OW39568   5.279  14.177  13.684
45910SOL    HW139569   5.239  14.201  13.768
45910SOL    HW239570   5.328  14.097  13.703
45911SOL     OW39571  12.025  14.827  10.010
45911SOL    HW139572  12.021   0.019  10.071
45911SOL    HW239573  11.969  14.760  10.049
45912SOL     OW39574   5.029   3.603  12.402
45912SOL    HW139575   4.972   3.561  12.466
45912SOL    HW239576   5.096   3.537  12.382
45913SOL     OW39577  10.006   4.627   0.011
45913SOL    HW139578  10.083   4.639  14.837
45913SOL    HW239579  10.040   4.629   0.100
45914SOL     OW39580  11.326   4.597   7.435
45914SOL    HW139581  11.381   4.549   7.498
45914SOL    HW239582  11.237   4.568   7.455
45915SOL     OW39583  13.279   4.930  13.546
45915SOL    HW139584  13.361   4.913  13.500
45915SOL    HW239585  13.250   4.843  13.575
45916SOL     OW39586  12.933   6.349  12.509
45916SOL    HW139587  12.982   6.305  12.439
45916SOL    HW239588  12.996   6.408  12.549
45917SOL     OW39589   3.965  10.419   8.722
45917SOL    HW139590   3.965  10.324   8.708
45917SOL    HW239591   4.018  10.431   8.801
45918SOL     OW39592   0.799   2.863   0.525
45918SOL    HW139593   0.765   2.950   0.545
45918SOL    HW239594   0.819   2.825   0.611
45919SOL     OW39595   0.683   5.671   1.671
45919SOL    HW139596   0.734   5.711   1.601
45919SOL    HW239597   0.597   5.655   1.632
45920SOL     OW39598   0.105   6.129   8.784
45920SOL    HW139599   0.192   6.127   8.745
45920SOL    HW239600   0.054   6.066   8.733
45921SOL     OW39601   8.609   9.664  11.961
45921SOL    HW139602   8.644   9.645  11.874
45921SOL    HW239603   8.551   9.591  11.980
45922SOL     OW39604   3.082  12.671   4.922
45922SOL    HW139605   3.042  12.588   4.949
45922SOL    HW239606   3.127  12.649   4.840
45923SOL     OW39607  13.469  11.271  11.289
45923SOL    HW139608  13.508  11.185  11.273
45923SOL    HW239609  13.507  11.328  11.222
45924SOL     OW39610   9.331  10.797   1.725
45924SOL    HW139611   9.369  10.840   1.648
45924SOL    HW239612   9.238  10.787   1.703
45925SOL     OW39613  11.531   4.660   1.040
45925SOL    HW139614  11.554   4.704   0.958
45925SOL    HW239615  11.570   4.573   1.034
45926SOL     OW39616   4.498  12.506  10.615
45926SOL    HW139617   4.485  12.411  10.615
45926SOL    HW239618   4.520  12.526  10.706
45927SOL     OW39619   2.647   8.657  11.775
45927SOL    HW139620   2.597   8.737  11.759
45927SOL    HW239621   2.646   8.648  11.871
45928SOL     OW39622   4.863  12.262   9.111
45928SOL    HW139623   4.919  12.271   9.034
45928SOL    HW239624   4.893  12.330   9.171
45929SOL     OW39625   0.931   2.285  10.836
45929SOL    HW139626   1.019   2.307  10.868
45929SOL    HW239627   0.929   2.189  10.836
45930SOL     OW39628   7.452  12.953   4.305
45930SOL    HW139629   7.547  12.944   4.299
45930SOL    HW239630   7.422  12.872   4.347
45931SOL     OW39631   2.696   7.482   0.955
45931SOL    HW139632   2.725   7.396   0.987
45931SOL    HW239633   2.732   7.487   0.867
45932SOL     OW39634  11.507   0.923  10.569
45932SOL    HW139635  11.540   0.987  10.632
45932SOL    HW239636  11.543   0.951  10.485
45933SOL     OW39637  14.442   4.923  13.298
45933SOL    HW139638  14.520   4.868  13.299
45933SOL    HW239639  14.451   4.980  13.375
45934SOL     OW39640  12.112   0.503  11.400
45934SOL    HW139641  12.162   0.422  11.409
45934SOL    HW239642  12.113   0.542  11.487
45935SOL     OW39643  11.213   4.894  13.143
45935SOL    HW139644  11.218   4.988  13.126
45935SOL    HW239645  11.125   4.869  13.116
45936SOL     OW39646   9.646   7.070  14.706
45936SOL    HW139647   9.705   7.136  14.669
45936SOL    HW239648   9.561   7.114  14.711
45937SOL     OW39649   6.094   0.769   5.812
45937SOL    HW139650   6.096   0.685   5.766
45937SOL    HW239651   6.093   0.835   5.743
45938SOL     OW39652  13.658  13.490  11.973
45938SOL    HW139653  13.700  13.558  11.920
45938SOL    HW239654  13.596  13.448  11.914
45939SOL     OW39655  13.397  13.218  10.966
45939SOL    HW139656  13.374  13.269  10.888
45939SOL    HW239657  13.378  13.127  10.941
45940SOL     OW39658  10.560   3.651  13.599
45940SOL    HW139659  10.629   3.717  13.605
45940SOL    HW239660  10.558   3.626  13.507
45941SOL     OW39661   9.249   8.533  14.027
45941SOL    HW139662   9.193   8.469  14.071
45941SOL    HW239663   9.332   8.528  14.075
45942SOL     OW39664   4.026  14.463   4.792
45942SOL    HW139665   3.964  14.524   4.752
45942SOL    HW239666   3.972  14.390   4.823
45943SOL     OW39667   1.356   5.572   4.748
45943SOL    HW139668   1.274   5.522   4.740
45943SOL    HW239669   1.424   5.505   4.754
45944SOL     OW39670   9.870  11.588   7.143
45944SOL    HW139671   9.853  11.644   7.219
45944SOL    HW239672   9.873  11.499   7.180
45945SOL     OW39673   4.446  12.285  10.246
45945SOL    HW139674   4.361  12.323  10.268
45945SOL    HW239675   4.447  12.282  10.150
45946SOL     OW39676  11.412   9.997   6.475
45946SOL    HW139677  11.464   9.919   6.453
45946SOL    HW239678  11.431  10.012   6.568
45947SOL     OW39679  12.084  10.577   6.601
45947SOL    HW139680  12.176  10.596   6.617
45947SOL    HW239681  12.055  10.526   6.677
45948SOL     OW39682   1.078   4.623   0.242
45948SOL    HW139683   1.002   4.570   0.266
45948SOL    HW239684   1.049   4.675   0.167
45949SOL     OW39685   1.509  12.572  12.829
45949SOL    HW139686   1.571  12.556  12.900
45949SOL    HW239687   1.557  12.548  12.750
45950SOL     OW39688   9.329  12.331   7.724
45950SOL    HW139689   9.389  12.272   7.770
45950SOL    HW239690   9.256  12.275   7.697
45951SOL     OW39691   2.533   1.725  12.799
45951SOL    HW139692   2.573   1.780  12.866
45951SOL    HW239693   2.489   1.656  12.849
45952SOL     OW39694   6.793   7.890  13.317
45952SOL    HW139695   6.814   7.861  13.229
45952SOL    HW239696   6.748   7.815  13.356
45953SOL     OW39697   8.412   6.020   8.762
45953SOL    HW139698   8.422   6.096   8.820
45953SOL    HW239699   8.333   5.976   8.794
45954SOL     OW39700   0.900   3.557  14.590
45954SOL    HW139701   0.875   3.583  14.501
45954SOL    HW239702   0.996   3.556  14.589
45955SOL     OW39703  11.652   2.359  10.117
45955SOL    HW139704  11.667   2.311  10.199
45955SOL    HW239705  11.560   2.386  10.121
45956SOL     OW39706   8.637  11.312   6.814
45956SOL    HW139707   8.645  11.217   6.827
45956SOL    HW239708   8.547  11.325   6.783
45957SOL     OW39709  12.865   9.934  13.679
45957SOL    HW139710  12.837   9.879  13.752
45957SOL    HW239711  12.902   9.873  13.615
45958SOL     OW39712   0.591   1.857   7.983
45958SOL    HW139713   0.524   1.858   8.052
45958SOL    HW239714   0.560   1.791   7.921
45959SOL     OW39715   2.758   2.784   5.352
45959SOL    HW139716   2.778   2.723   5.281
45959SOL    HW239717   2.839   2.831   5.368
45960SOL     OW39718  11.652   7.498   7.319
45960SOL    HW139719  11.666   7.466   7.408
45960SOL    HW239720  11.722   7.561   7.305
45961SOL     OW39721   6.521   4.728   4.929
45961SOL    HW139722   6.523   4.756   4.838
45961SOL    HW239723   6.493   4.805   4.978
45962SOL     OW39724   1.876   7.243   1.530
45962SOL    HW139725   1.874   7.147   1.528
45962SOL    HW239726   1.958   7.266   1.486
45963SOL     OW39727   3.976  11.096   3.724
45963SOL    HW139728   4.071  11.109   3.723
45963SOL    HW239729   3.963  11.015   3.773
45964SOL     OW39730  12.708   9.211  10.732
45964SOL    HW139731  12.714   9.117  10.714
45964SOL    HW239732  12.710   9.252  10.645
45965SOL     OW39733   2.559  12.694  11.518
45965SOL    HW139734   2.490  12.757  11.500
45965SOL    HW239735   2.612  12.736  11.586
45966SOL     OW39736   7.473  10.206   1.824
45966SOL    HW139737   7.415  10.280   1.839
45966SOL    HW239738   7.532  10.234   1.754
45967SOL     OW39739  10.891  10.076   8.178
45967SOL    HW139740  10.947  10.048   8.250
45967SOL    HW239741  10.952  10.101   8.108
45968SOL     OW39742  14.843   9.191   0.532
45968SOL    HW139743  14.822   9.266   0.477
45968SOL    HW239744   0.056   9.184   0.529
45969SOL     OW39745   0.895   0.264   4.743
45969SOL    HW139746   0.857   0.193   4.795
45969SOL    HW239747   0.976   0.226   4.707
45970SOL     OW39748  13.785   0.727  13.312
45970SOL    HW139749  13.837   0.657  13.272
45970SOL    HW239750  13.833   0.807  13.293
45971SOL     OW39751   2.898  14.519  11.676
45971SOL    HW139752   2.894  14.449  11.611
45971SOL    HW239753   2.812  14.517  11.718
45972SOL     OW39754   2.122   7.111   0.261
45972SOL    HW139755   2.139   7.070   0.345
45972SOL    HW239756   2.124   7.205   0.279
45973SOL     OW39757  13.275  12.556   4.923
45973SOL    HW139758  13.316  12.538   5.007
45973SOL    HW239759  13.193  12.507   4.925
45974SOL     OW39760  10.610  12.867   1.100
45974SOL    HW139761  10.596  12.921   1.177
45974SOL    HW239762  10.577  12.919   1.027
45975SOL     OW39763   4.912  12.891   8.545
45975SOL    HW139764   4.843  12.949   8.514
45975SOL    HW239765   4.991  12.945   8.544
45976SOL     OW39766   8.086   6.339   7.283
45976SOL    HW139767   8.088   6.326   7.378
45976SOL    HW239768   7.993   6.341   7.262
45977SOL     OW39769   4.235   7.236   1.047
45977SOL    HW139770   4.276   7.312   1.005
45977SOL    HW239771   4.225   7.262   1.139
45978SOL     OW39772  11.838  11.326  12.904
45978SOL    HW139773  11.894  11.295  12.833
45978SOL    HW239774  11.793  11.402  12.868
45979SOL     OW39775   0.401   5.258   2.836
45979SOL    HW139776   0.361   5.232   2.918
45979SOL    HW239777   0.350   5.334   2.807
45980SOL     OW39778   5.266   8.938   2.106
45980SOL    HW139779   5.323   8.955   2.180
45980SOL    HW239780   5.235   8.849   2.119
45981SOL     OW39781   3.970   9.432  11.296
45981SOL    HW139782   3.987   9.364  11.361
45981SOL    HW239783   4.056   9.456  11.262
45982SOL     OW39784   9.587  11.271   7.999
45982SOL    HW139785   9.677  11.250   8.021
45982SOL    HW239786   9.561  11.337   8.063
45983SOL     OW39787  12.952   2.503   2.529
45983SOL    HW139788  12.961   2.599   2.531
45983SOL    HW239789  13.041   2.472   2.511
45984SOL     OW39790   4.932  14.377   4.465
45984SOL    HW139791   4.853  14.349   4.513
45984SOL    HW239792   4.902  14.451   4.413
45985SOL     OW39793  12.765   3.676  11.415
45985SOL    HW139794  12.828   3.605  11.433
45985SOL    HW239795  12.816   3.756  11.426
45986SOL     OW39796  10.242   1.216   3.625
45986SOL    HW139797  10.207   1.157   3.558
45986SOL    HW239798  10.336   1.219   3.609
45987SOL     OW39799  11.062  10.164  10.700
45987SOL    HW139800  11.059  10.251  10.660
45987SOL    HW239801  11.155  10.143  10.704
45988SOL     OW39802   7.076  14.381   0.838
45988SOL    HW139803   7.036  14.403   0.753
45988SOL    HW239804   7.102  14.290   0.829
45989SOL     OW39805   8.771   5.058  12.228
45989SOL    HW139806   8.858   5.088  12.253
45989SOL    HW239807   8.780   4.964  12.215
45990SOL     OW39808   2.992   5.415  14.141
45990SOL    HW139809   2.943   5.347  14.187
45990SOL    HW239810   3.082   5.383  14.141
45991SOL     OW39811  10.247  14.656   5.507
45991SOL    HW139812  10.320  14.706   5.543
45991SOL    HW239813  10.171  14.685   5.558
45992SOL     OW39814   0.759   6.531   5.424
45992SOL    HW139815   0.743   6.529   5.330
45992SOL    HW239816   0.808   6.451   5.442
45993SOL     OW39817   4.003   4.243   2.904
45993SOL    HW139818   4.079   4.245   2.846
45993SOL    HW239819   3.966   4.156   2.893
45994SOL     OW39820   3.042  12.703   9.733
45994SOL    HW139821   2.980  12.766   9.695
45994SOL    HW239822   3.113  12.698   9.669
45995SOL     OW39823  10.188   3.519  11.407
45995SOL    HW139824  10.266   3.567  11.379
45995SOL    HW239825  10.116   3.578  11.389
45996SOL     OW39826  10.655   1.579  10.937
45996SOL    HW139827  10.710   1.524  10.993
45996SOL    HW239828  10.701   1.582  10.853
45997SOL     OW39829  10.419  13.455  11.649
45997SOL    HW139830  10.435  13.373  11.696
45997SOL    HW239831  10.338  13.440  11.601
45998SOL     OW39832   9.251   3.794  10.492
45998SOL    HW139833   9.304   3.769  10.568
45998SOL    HW239834   9.252   3.715  10.437
45999SOL     OW39835   5.705   6.120  14.291
45999SOL    HW139836   5.687   6.132  14.198
45999SOL    HW239837   5.793   6.083  14.294
46000SOL     OW39838   6.947   3.118  14.147
46000SOL    HW139839   6.871   3.164  14.183
46000SOL    HW239840   7.004   3.186  14.113
46001SOL     OW39841  14.183  13.008  12.008
46001SOL    HW139842  14.181  12.926  11.958
46001SOL    HW239843  14.230  12.986  12.088
46002SOL     OW39844   3.672   2.038   7.794
46002SOL    HW139845   3.716   2.000   7.718
46002SOL    HW239846   3.582   2.006   7.788
46003SOL     OW39847  13.013   8.863   5.537
46003SOL    HW139848  13.093   8.914   5.525
46003SOL    HW239849  13.028   8.813   5.617
46004SOL     OW39850  10.952   8.792  11.659
46004SOL    HW139851  11.027   8.733  11.662
46004SOL    HW239852  10.965   8.852  11.731
46005SOL     OW39853  11.338   4.567   8.297
46005SOL    HW139854  11.321   4.503   8.228
46005SOL    HW239855  11.277   4.543   8.367
46006SOL     OW39856  14.439   8.007   5.614
46006SOL    HW139857  14.490   7.990   5.693
46006SOL    HW239858  14.368   7.943   5.616
46007SOL     OW39859   6.536   4.362  11.477
46007SOL    HW139860   6.479   4.431  11.510
46007SOL    HW239861   6.477   4.299  11.437
46008SOL     OW39862   6.946   1.536   3.356
46008SOL    HW139863   6.995   1.592   3.295
46008SOL    HW239864   6.984   1.449   3.342
46009SOL     OW39865  11.382   7.446   2.954
46009SOL    HW139866  11.382   7.461   3.049
46009SOL    HW239867  11.383   7.351   2.945
46010SOL     OW39868   9.151   7.189   1.497
46010SOL    HW139869   9.224   7.133   1.521
46010SOL    HW239870   9.155   7.263   1.557
46011SOL     OW39871   0.370   8.388   5.601
46011SOL    HW139872   0.392   8.481   5.607
46011SOL    HW239873   0.307   8.374   5.671
46012SOL     OW39874   3.798   4.572   1.582
46012SOL    HW139875   3.713   4.614   1.591
46012SOL    HW239876   3.833   4.605   1.499
46013SOL     OW39877  12.180  12.359   9.235
46013SOL    HW139878  12.249  12.325   9.179
46013SOL    HW239879  12.210  12.446   9.262
46014SOL     OW39880  12.475  13.087   0.824
46014SOL    HW139881  12.511  13.101   0.736
46014SOL    HW239882  12.542  13.037   0.869
46015SOL     OW39883  13.256   6.450   4.972
46015SOL    HW139884  13.233   6.357   4.973
46015SOL    HW239885  13.337   6.454   4.922
46016SOL     OW39886   4.252   8.019  11.169
46016SOL    HW139887   4.254   8.068  11.087
46016SOL    HW239888   4.160   7.995  11.180
46017SOL     OW39889   1.019   1.160  11.809
46017SOL    HW139890   1.014   1.255  11.804
46017SOL    HW239891   1.074   1.135  11.735
46018SOL     OW39892  12.710  14.280   9.495
46018SOL    HW139893  12.700  14.374   9.479
46018SOL    HW239894  12.706  14.241   9.408
46019SOL     OW39895   9.913   8.843  14.782
46019SOL    HW139896   9.903   8.865  14.875
46019SOL    HW239897   9.824   8.834  14.749
46020SOL     OW39898  12.963   7.450   2.304
46020SOL    HW139899  13.059   7.451   2.305
46020SOL    HW239900  12.938   7.527   2.355
46021SOL     OW39901  14.181   4.548   8.601
46021SOL    HW139902  14.143   4.565   8.515
46021SOL    HW239903  14.166   4.455   8.616
46022SOL     OW39904   6.397   3.279   4.107
46022SOL    HW139905   6.382   3.231   4.026
46022SOL    HW239906   6.316   3.328   4.121
46023SOL     OW39907   0.830  11.426   1.997
46023SOL    HW139908   0.849  11.359   1.932
46023SOL    HW239909   0.885  11.500   1.972
46024SOL     OW39910  10.463   2.560   0.611
46024SOL    HW139911  10.391   2.595   0.663
46024SOL    HW239912  10.461   2.465   0.627
46025SOL     OW39913   5.369  12.028   5.929
46025SOL    HW139914   5.353  12.105   5.874
46025SOL    HW239915   5.451  11.991   5.896
46026SOL     OW39916   4.219   6.560  14.016
46026SOL    HW139917   4.131   6.551  14.054
46026SOL    HW239918   4.257   6.635  14.062
46027SOL     OW39919   2.292   0.435   5.674
46027SOL    HW139920   2.341   0.480   5.606
46027SOL    HW239921   2.274   0.349   5.638
46028SOL     OW39922   0.850   3.743   5.993
46028SOL    HW139923   0.825   3.700   6.074
46028SOL    HW239924   0.881   3.830   6.020
46029SOL     OW39925   2.368   0.517   5.161
46029SOL    HW139926   2.335   0.607   5.156
46029SOL    HW239927   2.418   0.506   5.080
46030SOL     OW39928   9.836   6.361  14.451
46030SOL    HW139929   9.881   6.294  14.398
46030SOL    HW239930   9.873   6.350  14.539
46031SOL     OW39931   5.938   3.787  11.360
46031SOL    HW139932   5.882   3.730  11.413
46031SOL    HW239933   5.916   3.765  11.269
46032SOL     OW39934  12.881   7.878   5.362
46032SOL    HW139935  12.972   7.898   5.342
46032SOL    HW239936  12.842   7.962   5.386
46033SOL     OW39937  12.731  10.982   8.178
46033SOL    HW139938  12.637  11.001   8.180
46033SOL    HW239939  12.736  10.889   8.156
46034SOL     OW39940  10.832   3.479   9.235
46034SOL    HW139941  10.758   3.419   9.226
46034SOL    HW239942  10.908   3.427   9.208
46035SOL     OW39943  13.306  14.037   2.917
46035SOL    HW139944  13.228  13.982   2.919
46035SOL    HW239945  13.377  13.977   2.893
46036SOL     OW39946  11.562  13.595  11.776
46036SOL    HW139947  11.471  13.626  11.775
46036SOL    HW239948  11.589  13.602  11.868
46037SOL     OW39949   2.435   3.901   2.915
46037SOL    HW139950   2.508   3.950   2.953
46037SOL    HW239951   2.454   3.809   2.936
46038SOL     OW39952  12.322   9.446   6.265
46038SOL    HW139953  12.238   9.414   6.231
46038SOL    HW239954  12.387   9.384   6.233
46039SOL     OW39955   3.620  14.770  12.045
46039SOL    HW139956   3.529  14.797  12.049
46039SOL    HW239957   3.655  14.816  11.968
46040SOL     OW39958  11.536   3.177   6.015
46040SOL    HW139959  11.442   3.196   6.021
46040SOL    HW239960  11.547   3.096   6.065
46041SOL     OW39961  14.598   7.546   7.380
46041SOL    HW139962  14.542   7.523   7.306
46041SOL    HW239963  14.597   7.642   7.382
46042SOL     OW39964  14.496  14.403  10.514
46042SOL    HW139965  14.524  14.422  10.604
46042SOL    HW239966  14.548  14.327  10.488
46043SOL     OW39967  12.073  11.725  10.718
46043SOL    HW139968  12.079  11.741  10.812
46043SOL    HW239969  11.987  11.759  10.693
46044SOL     OW39970  12.369   4.639  10.470
46044SOL    HW139971  12.324   4.574  10.416
46044SOL    HW239972  12.300   4.677  10.525
46045SOL     OW39973   9.368   7.660  14.334
46045SOL    HW139974   9.402   7.615  14.411
46045SOL    HW239975   9.446   7.689  14.287
46046SOL     OW39976   1.496   0.806   8.536
46046SOL    HW139977   1.526   0.896   8.542
46046SOL    HW239978   1.402   0.813   8.519
46047SOL     OW39979   2.287   4.577  13.516
46047SOL    HW139980   2.284   4.654  13.573
46047SOL    HW239981   2.360   4.525  13.549
46048SOL     OW39982  11.333   0.767   3.420
46048SOL    HW139983  11.271   0.703   3.455
46048SOL    HW239984  11.387   0.793   3.495
46049SOL     OW39985   5.749   7.507   9.484
46049SOL    HW139986   5.773   7.530   9.394
46049SOL    HW239987   5.832   7.504   9.531
46050SOL     OW39988  12.646  13.385  14.422
46050SOL    HW139989  12.673  13.464  14.468
46050SOL    HW239990  12.556  13.402  14.395
46051SOL     OW39991  10.991  13.279   5.915
46051SOL    HW139992  11.076  13.236   5.910
46051SOL    HW239993  10.951  13.264   5.829
46052SOL     OW39994   3.651   5.960  10.547
46052SOL    HW139995   3.742   5.939  10.568
46052SOL    HW239996   3.603   5.944  10.629
46053SOL     OW39997   2.921   8.626   1.477
46053SOL    HW139998   2.994   8.570   1.502
46053SOL    HW239999   2.894   8.669   1.559
46054SOL     OW40000   5.543   8.481  10.066
46054SOL    HW140001   5.492   8.470   9.986
46054SOL    HW240002   5.483   8.526  10.126
46055SOL     OW40003  14.018   7.426   7.041
46055SOL    HW140004  14.036   7.371   6.966
46055SOL    HW240005  14.049   7.513   7.016
46056SOL     OW40006   9.245   8.974   6.015
46056SOL    HW140007   9.212   8.902   6.068
46056SOL    HW240008   9.189   8.976   5.938
46057SOL     OW40009   9.776   7.618   7.456
46057SOL    HW140010   9.784   7.539   7.511
46057SOL    HW240011   9.716   7.592   7.386
46058SOL     OW40012   7.728   8.265   1.334
46058SOL    HW140013   7.710   8.179   1.295
46058SOL    HW240014   7.642   8.305   1.345
46059SOL     OW40015   5.438   9.583   7.622
46059SOL    HW140016   5.355   9.614   7.586
46059SOL    HW240017   5.504   9.616   7.560
46060SOL     OW40018  13.606   4.540  11.908
46060SOL    HW140019  13.673   4.531  11.841
46060SOL    HW240020  13.641   4.493  11.984
46061SOL     OW40021   3.344   2.939  13.994
46061SOL    HW140022   3.429   2.948  14.036
46061SOL    HW240023   3.344   3.004  13.924
46062SOL     OW40024  11.440   7.949   5.419
46062SOL    HW140025  11.363   7.891   5.416
46062SOL    HW240026  11.494   7.913   5.489
46063SOL     OW40027   6.664   3.384   1.050
46063SOL    HW140028   6.637   3.299   1.086
46063SOL    HW240029   6.714   3.425   1.121
46064SOL     OW40030  10.428   5.577   2.746
46064SOL    HW140031  10.495   5.545   2.807
46064SOL    HW240032  10.355   5.603   2.802
46065SOL     OW40033  10.668   4.924   5.249
46065SOL    HW140034  10.630   4.998   5.297
46065SOL    HW240035  10.743   4.898   5.302
46066SOL     OW40036   9.318   9.495   9.517
46066SOL    HW140037   9.373   9.515   9.592
46066SOL    HW240038   9.301   9.581   9.476
46067SOL     OW40039   2.018   2.593   1.236
46067SOL    HW140040   1.993   2.571   1.326
46067SOL    HW240041   1.975   2.525   1.183
46068SOL     OW40042   2.962   6.614   3.201
46068SOL    HW140043   2.886   6.619   3.258
46068SOL    HW240044   3.020   6.550   3.243
46069SOL     OW40045  13.503   8.222   6.577
46069SOL    HW140046  13.578   8.214   6.637
46069SOL    HW240047  13.502   8.315   6.553
46070SOL     OW40048   4.940   3.180   3.975
46070SOL    HW140049   4.884   3.212   4.046
46070SOL    HW240050   4.975   3.097   4.009
46071SOL     OW40051   8.890   4.157  10.613
46071SOL    HW140052   8.938   4.182  10.534
46071SOL    HW240053   8.798   4.170  10.590
46072SOL     OW40054  12.953  11.282  14.865
46072SOL    HW140055  13.023  11.329  14.819
46072SOL    HW240056  12.921  11.345   0.048
46073SOL     OW40057  13.425  10.853  10.013
46073SOL    HW140058  13.501  10.908  10.032
46073SOL    HW240059  13.388  10.892   9.933
46074SOL     OW40060   7.615  10.976   3.394
46074SOL    HW140061   7.544  10.965   3.331
46074SOL    HW240062   7.582  10.936   3.474
46075SOL     OW40063   4.099  12.013  11.994
46075SOL    HW140064   4.150  11.947  12.040
46075SOL    HW240065   4.012  11.974  11.983
46076SOL     OW40066   9.597  13.558   5.476
46076SOL    HW140067   9.568  13.648   5.495
46076SOL    HW240068   9.669  13.568   5.413
46077SOL     OW40069   5.477  12.067  10.584
46077SOL    HW140070   5.443  12.145  10.540
46077SOL    HW240071   5.542  12.032  10.524
46078SOL     OW40072   1.023   5.706   5.949
46078SOL    HW140073   1.012   5.797   5.921
46078SOL    HW240074   1.068   5.663   5.876
46079SOL     OW40075   1.502   1.668   3.024
46079SOL    HW140076   1.558   1.687   2.949
46079SOL    HW240077   1.553   1.606   3.077
46080SOL     OW40078   6.044   1.147   6.903
46080SOL    HW140079   5.980   1.194   6.849
46080SOL    HW240080   6.038   1.056   6.874
46081SOL     OW40081  14.235   5.090   6.659
46081SOL    HW140082  14.256   4.999   6.684
46081SOL    HW240083  14.161   5.082   6.599
46082SOL     OW40084   8.358  14.652   5.377
46082SOL    HW140085   8.306  14.688   5.449
46082SOL    HW240086   8.399  14.574   5.414
46083SOL     OW40087   2.609   7.758   9.568
46083SOL    HW140088   2.657   7.683   9.531
46083SOL    HW240089   2.672   7.830   9.567
46084SOL     OW40090  11.288   8.881   5.330
46084SOL    HW140091  11.298   8.798   5.284
46084SOL    HW240092  11.364   8.886   5.388
46085SOL     OW40093  12.474   3.784  11.504
46085SOL    HW140094  12.449   3.833  11.425
46085SOL    HW240095  12.560   3.748  11.483
46086SOL     OW40096   5.862   2.881   8.237
46086SOL    HW140097   5.785   2.829   8.261
46086SOL    HW240098   5.878   2.936   8.313
46087SOL     OW40099  10.297   5.753   0.664
46087SOL    HW140100  10.372   5.754   0.724
46087SOL    HW240101  10.324   5.808   0.590
46088SOL     OW40102   8.662  11.985   7.480
46088SOL    HW140103   8.737  12.017   7.530
46088SOL    HW240104   8.650  12.050   7.411
46089SOL     OW40105   7.916   0.517   6.722
46089SOL    HW140106   7.953   0.567   6.649
46089SOL    HW240107   7.950   0.428   6.710
46090SOL     OW40108  10.644   7.115   6.741
46090SOL    HW140109  10.719   7.076   6.785
46090SOL    HW240110  10.591   7.153   6.811
46091SOL     OW40111   1.058  12.949  11.482
46091SOL    HW140112   1.151  12.926  11.491
46091SOL    HW240113   1.014  12.867  11.465
46092SOL     OW40114   4.675   1.834   3.782
46092SOL    HW140115   4.685   1.746   3.747
46092SOL    HW240116   4.601   1.871   3.734
46093SOL     OW40117   1.546   8.362   7.243
46093SOL    HW140118   1.493   8.294   7.284
46093SOL    HW240119   1.490   8.440   7.243
46094SOL     OW40120  14.353  12.838  10.189
46094SOL    HW140121  14.440  12.798  10.185
46094SOL    HW240122  14.293  12.770  10.158
46095SOL     OW40123  14.153   9.183  13.232
46095SOL    HW140124  14.218   9.116  13.254
46095SOL    HW240125  14.199   9.244  13.175
46096SOL     OW40126   6.014   8.268   5.010
46096SOL    HW140127   6.065   8.349   5.004
46096SOL    HW240128   6.072   8.200   4.977
46097SOL     OW40129  11.867   9.401  12.722
46097SOL    HW140130  11.771   9.398  12.723
46097SOL    HW240131  11.893   9.310  12.707
46098SOL     OW40132   1.021   5.082  14.403
46098SOL    HW140133   1.065   5.049  14.325
46098SOL    HW240134   1.020   5.008  14.464
46099SOL     OW40135  14.481   1.000  13.467
46099SOL    HW140136  14.519   1.003  13.555
46099SOL    HW240137  14.493   1.089  13.433
46100SOL     OW40138  11.382   1.392  10.744
46100SOL    HW140139  11.317   1.363  10.680
46100SOL    HW240140  11.451   1.432  10.693
46101SOL     OW40141   0.079   2.063  10.639
46101SOL    HW140142   0.068   2.154  10.613
46101SOL    HW240143   0.005   2.017  10.598
46102SOL     OW40144   5.570   0.356  12.018
46102SOL    HW140145   5.590   0.406  12.097
46102SOL    HW240146   5.655   0.341  11.977
46103SOL     OW40147  10.942   9.715   4.364
46103SOL    HW140148  10.969   9.693   4.275
46103SOL    HW240149  10.959   9.808   4.373
46104SOL     OW40150  11.288   2.734   5.829
46104SOL    HW140151  11.291   2.825   5.859
46104SOL    HW240152  11.195   2.712   5.829
46105SOL     OW40153  11.037  13.842  11.213
46105SOL    HW140154  10.974  13.779  11.176
46105SOL    HW240155  10.982  13.906  11.258
46106SOL     OW40156   0.118   9.007   3.594
46106SOL    HW140157   0.177   9.038   3.663
46106SOL    HW240158   0.133   8.912   3.592
46107SOL     OW40159  11.920   6.737   5.322
46107SOL    HW140160  11.923   6.642   5.308
46107SOL    HW240161  11.937   6.774   5.236
46108SOL     OW40162   7.395   5.421   1.229
46108SOL    HW140163   7.422   5.397   1.318
46108SOL    HW240164   7.372   5.513   1.234
46109SOL     OW40165  13.780  11.545   3.865
46109SOL    HW140166  13.701  11.516   3.911
46109SOL    HW240167  13.771  11.508   3.777
46110SOL     OW40168   5.159   3.490   0.930
46110SOL    HW140169   5.127   3.509   0.841
46110SOL    HW240170   5.102   3.541   0.987
46111SOL     OW40171   9.306   4.893   5.025
46111SOL    HW140172   9.393   4.927   5.044
46111SOL    HW240173   9.302   4.809   5.070
46112SOL     OW40174   8.346   4.569   7.122
46112SOL    HW140175   8.315   4.534   7.038
46112SOL    HW240176   8.324   4.662   7.118
46113SOL     OW40177   8.692   8.778   4.096
46113SOL    HW140178   8.759   8.712   4.078
46113SOL    HW240179   8.730   8.859   4.063
46114SOL     OW40180   3.310   9.118   4.630
46114SOL    HW140181   3.259   9.052   4.676
46114SOL    HW240182   3.281   9.202   4.667
46115SOL     OW40183  13.610   4.607  13.873
46115SOL    HW140184  13.661   4.610  13.954
46115SOL    HW240185  13.663   4.655  13.809
46116SOL     OW40186  10.679   1.773   9.493
46116SOL    HW140187  10.635   1.693   9.465
46116SOL    HW240188  10.608   1.832   9.519
46117SOL     OW40189   9.047   9.755   6.639
46117SOL    HW140190   9.002   9.840   6.641
46117SOL    HW240191   9.140   9.778   6.639
46118SOL     OW40192  12.687  13.349  12.751
46118SOL    HW140193  12.594  13.370  12.754
46118SOL    HW240194  12.710  13.354  12.658
46119SOL     OW40195   5.346   0.976   7.974
46119SOL    HW140196   5.375   0.951   8.062
46119SOL    HW240197   5.419   0.951   7.917
46120SOL     OW40198  12.233  11.580   6.755
46120SOL    HW140199  12.254  11.597   6.664
46120SOL    HW240200  12.231  11.484   6.762
46121SOL     OW40201  10.825   1.001  13.578
46121SOL    HW140202  10.781   1.071  13.530
46121SOL    HW240203  10.872   1.046  13.648
46122SOL     OW40204   6.633   1.698   1.628
46122SOL    HW140205   6.699   1.759   1.661
46122SOL    HW240206   6.676   1.652   1.557
46123SOL     OW40207   7.066  12.469   4.436
46123SOL    HW140208   7.049  12.414   4.360
46123SOL    HW240209   7.162  12.469   4.445
46124SOL     OW40210  12.672  11.136   3.029
46124SOL    HW140211  12.711  11.145   3.116
46124SOL    HW240212  12.657  11.042   3.019
46125SOL     OW40213   6.838   0.773   8.223
46125SOL    HW140214   6.743   0.779   8.225
46125SOL    HW240215   6.863   0.809   8.138
46126SOL     OW40216   7.408  12.204   7.696
46126SOL    HW140217   7.343  12.143   7.730
46126SOL    HW240218   7.373  12.291   7.715
46127SOL     OW40219   8.389   6.093  13.069
46127SOL    HW140220   8.354   6.167  13.119
46127SOL    HW240221   8.311   6.043  13.043
46128SOL     OW40222   5.715   8.562   6.583
46128SOL    HW140223   5.702   8.606   6.667
46128SOL    HW240224   5.785   8.499   6.600
46129SOL     OW40225   2.971   7.287   5.065
46129SOL    HW140226   2.966   7.195   5.091
46129SOL    HW240227   2.881   7.310   5.042
46130SOL     OW40228   5.122  12.129   0.504
46130SOL    HW140229   5.182  12.191   0.463
46130SOL    HW240230   5.056  12.113   0.436
46131SOL     OW40231   0.700   4.974   2.790
46131SOL    HW140232   0.744   5.023   2.860
46131SOL    HW240233   0.624   4.934   2.833
46132SOL     OW40234   9.060  14.178   7.133
46132SOL    HW140235   9.082  14.196   7.224
46132SOL    HW240236   9.098  14.092   7.115
46133SOL     OW40237  14.267   8.359   2.641
46133SOL    HW140238  14.358   8.363   2.671
46133SOL    HW240239  14.217   8.401   2.711
46134SOL     OW40240  13.350   3.123   0.158
46134SOL    HW140241  13.424   3.072   0.190
46134SOL    HW240242  13.274   3.088   0.205
46135SOL     OW40243   0.850  11.807   3.165
46135SOL    HW140244   0.828  11.736   3.105
46135SOL    HW240245   0.880  11.878   3.108
46136SOL     OW40246  10.643   7.959   8.734
46136SOL    HW140247  10.717   8.009   8.767
46136SOL    HW240248  10.584   7.950   8.809
46137SOL     OW40249   0.686   1.616  11.149
46137SOL    HW140250   0.728   1.550  11.095
46137SOL    HW240251   0.740   1.620  11.228
46138SOL     OW40252   6.895   4.930   3.357
46138SOL    HW140253   6.870   4.921   3.449
46138SOL    HW240254   6.956   5.004   3.356
46139SOL     OW40255   4.280  11.270   9.784
46139SOL    HW140256   4.208  11.208   9.774
46139SOL    HW240257   4.272  11.302   9.873
46140SOL     OW40258   2.845   7.997   7.937
46140SOL    HW140259   2.935   7.966   7.931
46140SOL    HW240260   2.851   8.093   7.933
46141SOL     OW40261  10.975  13.010   4.896
46141SOL    HW140262  10.909  13.020   4.966
46141SOL    HW240263  11.042  12.953   4.935
46142SOL     OW40264   3.634  14.849  14.035
46142SOL    HW140265   3.547  14.876  14.063
46142SOL    HW240266   3.693  14.881  14.103
46143SOL     OW40267  10.564   2.316   2.981
46143SOL    HW140268  10.655   2.344   2.995
46143SOL    HW240269  10.518   2.346   3.060
46144SOL     OW40270   1.993  11.614   5.579
46144SOL    HW140271   2.051  11.686   5.604
46144SOL    HW240272   1.943  11.595   5.658
46145SOL     OW40273   5.998   6.590  14.093
46145SOL    HW140274   5.989   6.503  14.130
46145SOL    HW240275   5.912   6.630  14.104
46146SOL     OW40276  11.510   4.114   2.374
46146SOL    HW140277  11.534   4.025   2.347
46146SOL    HW240278  11.468   4.151   2.296
46147SOL     OW40279   7.650   1.230   5.196
46147SOL    HW140280   7.676   1.252   5.107
46147SOL    HW240281   7.556   1.212   5.190
46148SOL     OW40282   3.461  10.921   0.173
46148SOL    HW140283   3.433  10.884   0.089
46148SOL    HW240284   3.491  10.846   0.224
46149SOL     OW40285   5.814  13.061   1.297
46149SOL    HW140286   5.739  13.010   1.329
46149SOL    HW240287   5.776  13.145   1.271
46150SOL     OW40288   8.895   8.977  11.923
46150SOL    HW140289   8.941   8.918  11.863
46150SOL    HW240290   8.959   8.995  11.992
46151SOL     OW40291   2.041   2.824   9.431
46151SOL    HW140292   1.983   2.874   9.489
46151SOL    HW240293   1.993   2.744   9.413
46152SOL     OW40294  10.134  11.079   0.362
46152SOL    HW140295  10.044  11.080   0.395
46152SOL    HW240296  10.136  11.006   0.300
46153SOL     OW40297   2.590   4.904  10.701
46153SOL    HW140298   2.631   4.975  10.652
46153SOL    HW240299   2.639   4.826  10.675
46154SOL     OW40300   8.717   0.622   9.549
46154SOL    HW140301   8.798   0.578   9.523
46154SOL    HW240302   8.734   0.652   9.638
46155SOL     OW40303   6.528   0.632   7.692
46155SOL    HW140304   6.495   0.597   7.609
46155SOL    HW240305   6.578   0.709   7.667
46156SOL     OW40306  12.557   9.172   7.379
46156SOL    HW140307  12.571   9.265   7.361
46156SOL    HW240308  12.645   9.134   7.378
46157SOL     OW40309   7.417   0.779   6.196
46157SOL    HW140310   7.365   0.700   6.210
46157SOL    HW240311   7.432   0.813   6.285
46158SOL     OW40312   7.782   5.464   3.018
46158SOL    HW140313   7.862   5.413   3.003
46158SOL    HW240314   7.813   5.554   3.026
46159SOL     OW40315   8.468   5.464   2.006
46159SOL    HW140316   8.381   5.445   1.970
46159SOL    HW240317   8.469   5.559   2.017
46160SOL     OW40318  11.061   8.263   9.135
46160SOL    HW140319  11.105   8.270   9.219
46160SOL    HW240320  10.985   8.207   9.152
46161SOL     OW40321   3.657  14.866   7.805
46161SOL    HW140322   3.619   0.071   7.817
46161SOL    HW240323   3.611  14.811   7.869
46162SOL     OW40324   9.797   2.229   9.005
46162SOL    HW140325   9.892   2.236   9.005
46162SOL    HW240326   9.766   2.317   9.025
46163SOL     OW40327   4.157  12.676   2.502
46163SOL    HW140328   4.171  12.626   2.422
46163SOL    HW240329   4.245  12.703   2.529
46164SOL     OW40330   0.535   7.014  13.654
46164SOL    HW140331   0.582   7.010  13.737
46164SOL    HW240332   0.452   6.969  13.671
46165SOL     OW40333   1.453  10.290   3.338
46165SOL    HW140334   1.411  10.363   3.383
46165SOL    HW240335   1.424  10.297   3.247
46166SOL     OW40336   6.051   5.227   0.840
46166SOL    HW140337   6.142   5.201   0.828
46166SOL    HW240338   6.023   5.258   0.754
46167SOL     OW40339   2.798  11.203   6.738
46167SOL    HW140340   2.809  11.199   6.833
46167SOL    HW240341   2.708  11.233   6.726
46168SOL     OW40342   5.708   2.024   5.033
46168SOL    HW140343   5.621   2.060   5.042
46168SOL    HW240344   5.707   1.980   4.948
46169SOL     OW40345   0.014   0.814  10.737
46169SOL    HW140346  14.806   0.780  10.743
46169SOL    HW240347   0.021   0.876  10.809
46170SOL     OW40348   3.997  13.035   9.374
46170SOL    HW140349   4.073  12.978   9.373
46170SOL    HW240350   4.002  13.081   9.458
46171SOL     OW40351   0.692  14.238   0.928
46171SOL    HW140352   0.740  14.165   0.888
46171SOL    HW240353   0.639  14.273   0.856
46172SOL     OW40354   6.203   2.384  11.919
46172SOL    HW140355   6.121   2.387  11.969
46172SOL    HW240356   6.176   2.393  11.828
46173SOL     OW40357   9.090   5.984   0.427
46173SOL    HW140358   9.037   6.036   0.488
46173SOL    HW240359   9.042   5.901   0.420
46174SOL     OW40360   1.510   2.466  11.113
46174SOL    HW140361   1.520   2.479  11.019
46174SOL    HW240362   1.542   2.548  11.152
46175SOL     OW40363  14.463   9.803   3.879
46175SOL    HW140364  14.549   9.761   3.885
46175SOL    HW240365  14.475   9.876   3.818
46176SOL     OW40366   9.235   9.982  14.698
46176SOL    HW140367   9.287   9.960  14.775
46176SOL    HW240368   9.156   9.929  14.706
46177SOL     OW40369   2.435   3.487   5.834
46177SOL    HW140370   2.384   3.506   5.755
46177SOL    HW240371   2.486   3.566   5.850
46178SOL     OW40372  11.611  11.383   7.179
46178SOL    HW140373  11.569  11.386   7.265
46178SOL    HW240374  11.544  11.345   7.122
46179SOL     OW40375   5.464  10.967   6.227
46179SOL    HW140376   5.510  11.049   6.243
46179SOL    HW240377   5.518  10.901   6.270
46180SOL     OW40378   1.057  13.592   8.434
46180SOL    HW140379   1.099  13.670   8.471
46180SOL    HW240380   1.107  13.575   8.354
46181SOL     OW40381   1.413   2.159  14.416
46181SOL    HW140382   1.470   2.100  14.466
46181SOL    HW240383   1.392   2.229  14.477
46182SOL     OW40384  11.127   2.768  14.803
46182SOL    HW140385  11.100   2.790  14.713
46182SOL    HW240386  11.054   2.796  14.857
46183SOL     OW40387  11.603  10.808   4.847
46183SOL    HW140388  11.516  10.794   4.810
46183SOL    HW240389  11.596  10.778   4.937
46184SOL     OW40390   3.202  11.191   2.683
46184SOL    HW140391   3.119  11.182   2.730
46184SOL    HW240392   3.179  11.238   2.603
46185SOL     OW40393   3.432   0.540   6.808
46185SOL    HW140394   3.509   0.584   6.844
46185SOL    HW240395   3.466   0.486   6.736
46186SOL     OW40396  13.794  14.859  10.992
46186SOL    HW140397  13.812  14.823  10.905
46186SOL    HW240398  13.716  14.812  11.022
46187SOL     OW40399  11.921  13.034   0.958
46187SOL    HW140400  11.900  13.012   1.049
46187SOL    HW240401  11.982  12.966   0.930
46188SOL     OW40402  10.007   3.281   2.586
46188SOL    HW140403   9.929   3.331   2.563
46188SOL    HW240404  10.021   3.299   2.679
46189SOL     OW40405  10.632  11.346   1.446
46189SOL    HW140406  10.564  11.412   1.428
46189SOL    HW240407  10.639  11.344   1.541
46190SOL     OW40408   7.093   3.602   7.506
46190SOL    HW140409   7.117   3.667   7.572
46190SOL    HW240410   7.178   3.572   7.472
46191SOL     OW40411   5.566  11.005   3.480
46191SOL    HW140412   5.611  11.082   3.447
46191SOL    HW240413   5.621  10.931   3.453
46192SOL     OW40414  11.297  14.875   8.898
46192SOL    HW140415  11.225  14.855   8.838
46192SOL    HW240416  11.303   0.089   8.897
46193SOL     OW40417  12.688  10.224   3.249
46193SOL    HW140418  12.739  10.163   3.303
46193SOL    HW240419  12.607  10.176   3.230
46194SOL     OW40420   0.821  10.958   7.760
46194SOL    HW140421   0.790  10.878   7.717
46194SOL    HW240422   0.916  10.954   7.753
46195SOL     OW40423  13.816   5.073  10.665
46195SOL    HW140424  13.883   5.134  10.698
46195SOL    HW240425  13.781   5.031  10.743
46196SOL     OW40426  10.451  10.156   4.676
46196SOL    HW140427  10.484  10.246   4.679
46196SOL    HW240428  10.384  10.153   4.745
46197SOL     OW40429  13.095  14.624  10.986
46197SOL    HW140430  13.044  14.706  10.987
46197SOL    HW240431  13.029  14.555  10.983
46198SOL     OW40432   0.098   7.823   0.890
46198SOL    HW140433   0.129   7.738   0.919
46198SOL    HW240434   0.009   7.829   0.925
46199SOL     OW40435   3.616   0.436   8.633
46199SOL    HW140436   3.640   0.462   8.721
46199SOL    HW240437   3.533   0.389   8.644
46200SOL     OW40438   9.069   7.952   6.202
46200SOL    HW140439   9.112   7.977   6.120
46200SOL    HW240440   9.051   7.858   6.191
46201SOL     OW40441   4.568   5.720  13.888
46201SOL    HW140442   4.504   5.710  13.817
46201SOL    HW240443   4.535   5.664  13.958
46202SOL     OW40444   6.396   9.503   1.753
46202SOL    HW140445   6.302   9.522   1.753
46202SOL    HW240446   6.404   9.423   1.701
46203SOL     OW40447   9.515   0.377  13.605
46203SOL    HW140448   9.570   0.364  13.682
46203SOL    HW240449   9.426   0.362  13.636
46204SOL     OW40450  10.106   8.586   8.813
46204SOL    HW140451  10.103   8.490   8.815
46204SOL    HW240452  10.175   8.607   8.750
46205SOL     OW40453   9.489   5.318   9.624
46205SOL    HW140454   9.534   5.399   9.647
46205SOL    HW240455   9.396   5.340   9.627
46206SOL     OW40456  13.069   5.759   2.980
46206SOL    HW140457  13.119   5.800   3.050
46206SOL    HW240458  13.003   5.706   3.025
46207SOL     OW40459   6.866   6.698   5.796
46207SOL    HW140460   6.861   6.692   5.700
46207SOL    HW240461   6.878   6.607   5.825
46208SOL     OW40462   7.103   6.090   7.244
46208SOL    HW140463   7.075   6.019   7.185
46208SOL    HW240464   7.022   6.130   7.273
46209SOL     OW40465  14.820   6.156  10.327
46209SOL    HW140466  14.786   6.093  10.263
46209SOL    HW240467  14.853   6.101  10.399
46210SOL     OW40468   4.517  14.589   4.673
46210SOL    HW140469   4.569  14.567   4.751
46210SOL    HW240470   4.428  14.561   4.695
46211SOL     OW40471   4.301   1.062   0.550
46211SOL    HW140472   4.377   1.106   0.589
46211SOL    HW240473   4.231   1.127   0.553
46212SOL     OW40474  12.613   8.697   4.638
46212SOL    HW140475  12.586   8.673   4.550
46212SOL    HW240476  12.633   8.790   4.633
46213SOL     OW40477  11.017   4.483   4.760
46213SOL    HW140478  11.037   4.546   4.691
46213SOL    HW240479  11.044   4.399   4.725
46214SOL     OW40480   3.885  11.433  13.727
46214SOL    HW140481   3.918  11.497  13.665
46214SOL    HW240482   3.945  11.359  13.720
46215SOL     OW40483   5.591  12.315  14.625
46215SOL    HW140484   5.588  12.261  14.704
46215SOL    HW240485   5.655  12.273  14.568
46216SOL     OW40486   4.965  11.605   6.765
46216SOL    HW140487   5.015  11.621   6.685
46216SOL    HW240488   4.961  11.690   6.808
46217SOL     OW40489   7.835   0.488   4.548
46217SOL    HW140490   7.761   0.522   4.498
46217SOL    HW240491   7.869   0.416   4.494
46218SOL     OW40492  10.025   3.642   8.708
46218SOL    HW140493  10.000   3.706   8.641
46218SOL    HW240494  10.115   3.618   8.686
46219SOL     OW40495   7.492   8.997   6.509
46219SOL    HW140496   7.422   8.974   6.570
46219SOL    HW240497   7.457   9.071   6.460
46220SOL     OW40498  11.122  10.082  14.814
46220SOL    HW140499  11.087  10.171  14.818
46220SOL    HW240500  11.189  10.078  14.882
46221SOL     OW40501   4.927  13.442   8.537
46221SOL    HW140502   5.013  13.425   8.575
46221SOL    HW240503   4.904  13.529   8.569
46222SOL     OW40504  13.993   8.986   5.487
46222SOL    HW140505  13.926   9.053   5.469
46222SOL    HW240506  13.967   8.948   5.571
46223SOL     OW40507   2.587   3.076   7.682
46223SOL    HW140508   2.657   3.065   7.619
46223SOL    HW240509   2.507   3.079   7.629
46224SOL     OW40510   5.218  10.157  10.821
46224SOL    HW140511   5.247  10.247  10.834
46224SOL    HW240512   5.136  10.150  10.870
46225SOL     OW40513  13.517   6.349   8.894
46225SOL    HW140514  13.487   6.440   8.887
46225SOL    HW240515  13.453   6.298   8.844
46226SOL     OW40516   5.342  13.849   4.219
46226SOL    HW140517   5.295  13.855   4.136
46226SOL    HW240518   5.304  13.918   4.273
46227SOL     OW40519  10.338   6.789   6.027
46227SOL    HW140520  10.297   6.862   5.981
46227SOL    HW240521  10.265   6.735   6.056
46228SOL     OW40522  10.126   2.101   6.066
46228SOL    HW140523  10.121   2.062   6.154
46228SOL    HW240524  10.217   2.129   6.057
46229SOL     OW40525   4.138   9.312  13.531
46229SOL    HW140526   4.100   9.317  13.444
46229SOL    HW240527   4.193   9.233  13.529
46230SOL     OW40528   7.733  14.564  13.960
46230SOL    HW140529   7.793  14.633  13.989
46230SOL    HW240530   7.788  14.486  13.953
46231SOL     OW40531   7.485   6.599   8.087
46231SOL    HW140532   7.551   6.532   8.107
46231SOL    HW240533   7.476   6.596   7.992
46232SOL     OW40534   4.861  11.369  13.818
46232SOL    HW140535   4.834  11.306  13.752
46232SOL    HW240536   4.815  11.342  13.898
46233SOL     OW40537   4.726   4.480  13.264
46233SOL    HW140538   4.743   4.415  13.196
46233SOL    HW240539   4.632   4.475  13.279
46234SOL     OW40540   9.940   3.148   1.682
46234SOL    HW140541   9.987   3.160   1.599
46234SOL    HW240542   9.960   3.058   1.708
46235SOL     OW40543  10.761  10.957   0.140
46235SOL    HW140544  10.719  10.953   0.226
46235SOL    HW240545  10.770  11.050   0.121
46236SOL     OW40546   6.600   1.713  11.332
46236SOL    HW140547   6.643   1.796  11.353
46236SOL    HW240548   6.521   1.712  11.386
46237SOL     OW40549  13.955   7.535   2.896
46237SOL    HW140550  13.976   7.627   2.905
46237SOL    HW240551  13.865   7.534   2.864
46238SOL     OW40552   3.681   6.343  11.093
46238SOL    HW140553   3.655   6.392  11.170
46238SOL    HW240554   3.603   6.292  11.069
46239SOL     OW40555  12.646   6.494   8.609
46239SOL    HW140556  12.736   6.496   8.578
46239SOL    HW240557  12.617   6.585   8.604
46240SOL     OW40558   4.004  12.043   7.684
46240SOL    HW140559   4.045  12.014   7.603
46240SOL    HW240560   4.024  12.137   7.689
46241SOL     OW40561   8.354   0.992   3.788
46241SOL    HW140562   8.303   1.012   3.709
46241SOL    HW240563   8.308   1.038   3.858
46242SOL     OW40564   6.220  10.124  14.024
46242SOL    HW140565   6.275  10.057  13.985
46242SOL    HW240566   6.131  10.093  14.009
46243SOL     OW40567  10.746   0.584  13.909
46243SOL    HW140568  10.718   0.647  13.844
46243SOL    HW240569  10.785   0.513  13.858
46244SOL     OW40570   1.267   9.850   6.953
46244SOL    HW140571   1.278   9.801   6.871
46244SOL    HW240572   1.212   9.792   7.007
46245SOL     OW40573  13.241   2.183   9.924
46245SOL    HW140574  13.167   2.137   9.886
46245SOL    HW240575  13.270   2.128   9.997
46246SOL     OW40576   7.702   6.960   4.770
46246SOL    HW140577   7.686   6.872   4.805
46246SOL    HW240578   7.668   7.019   4.838
46247SOL     OW40579   0.902  13.013  13.216
46247SOL    HW140580   0.848  12.995  13.293
46247SOL    HW240581   0.842  13.051  13.152
46248SOL     OW40582  13.809  11.219   5.497
46248SOL    HW140583  13.855  11.198   5.415
46248SOL    HW240584  13.716  11.221   5.473
46249SOL     OW40585   5.484  13.887  11.444
46249SOL    HW140586   5.445  13.974  11.448
46249SOL    HW240587   5.552  13.888  11.511
46250SOL     OW40588  10.460  14.186  14.864
46250SOL    HW140589  10.421  14.157  14.781
46250SOL    HW240590  10.386  14.211   0.036
46251SOL     OW40591  11.087   8.192  10.393
46251SOL    HW140592  11.021   8.248  10.432
46251SOL    HW240593  11.051   8.169  10.307
46252SOL     OW40594   7.900   3.456   0.243
46252SOL    HW140595   7.899   3.517   0.317
46252SOL    HW240596   7.817   3.410   0.250
46253SOL     OW40597   5.966   1.644   7.894
46253SOL    HW140598   5.915   1.698   7.954
46253SOL    HW240599   6.049   1.628   7.940
46254SOL     OW40600   1.657   6.543   7.307
46254SOL    HW140601   1.627   6.468   7.255
46254SOL    HW240602   1.684   6.608   7.242
46255SOL     OW40603   0.490  12.275  11.094
46255SOL    HW140604   0.500  12.270  11.189
46255SOL    HW240605   0.507  12.185  11.064
46256SOL     OW40606  11.346   7.379   8.397
46256SOL    HW140607  11.397   7.451   8.360
46256SOL    HW240608  11.285   7.354   8.328
46257SOL     OW40609   8.164  13.401  11.707
46257SOL    HW140610   8.073  13.369  11.708
46257SOL    HW240611   8.156  13.496  11.702
46258SOL     OW40612  11.634  13.553   9.805
46258SOL    HW140613  11.729  13.557   9.800
46258SOL    HW240614  11.614  13.577   9.895
46259SOL     OW40615   6.488  10.363  14.641
46259SOL    HW140616   6.394  10.370  14.653
46259SOL    HW240617   6.499  10.336  14.550
46260SOL     OW40618   1.272   0.523   8.429
46260SOL    HW140619   1.276   0.435   8.392
46260SOL    HW240620   1.363   0.543   8.451
46261SOL     OW40621  10.586   7.667  12.482
46261SOL    HW140622  10.582   7.653  12.577
46261SOL    HW240623  10.525   7.603  12.445
46262SOL     OW40624   9.204   3.958   6.366
46262SOL    HW140625   9.135   4.021   6.388
46262SOL    HW240626   9.279   3.986   6.418
46263SOL     OW40627   4.573   4.108   9.645
46263SOL    HW140628   4.596   4.031   9.697
46263SOL    HW240629   4.486   4.089   9.610
46264SOL     OW40630  11.911   4.933   0.575
46264SOL    HW140631  11.916   5.020   0.615
46264SOL    HW240632  11.986   4.929   0.516
46265SOL     OW40633   0.133   0.858  12.819
46265SOL    HW140634   0.194   0.931  12.821
46265SOL    HW240635   0.047   0.898  12.816
46266SOL     OW40636   7.504   2.421   9.601
46266SOL    HW140637   7.486   2.486   9.533
46266SOL    HW240638   7.596   2.397   9.589
46267SOL     OW40639   4.259   1.518  11.138
46267SOL    HW140640   4.223   1.503  11.225
46267SOL    HW240641   4.188   1.562  11.090
46268SOL     OW40642   0.757   5.058  10.659
46268SOL    HW140643   0.696   5.091  10.725
46268SOL    HW240644   0.710   5.068  10.576
46269SOL     OW40645  11.013  10.104  14.425
46269SOL    HW140646  10.935  10.104  14.480
46269SOL    HW240647  11.053  10.019  14.441
46270SOL     OW40648  12.311  13.456   3.780
46270SOL    HW140649  12.323  13.368   3.815
46270SOL    HW240650  12.273  13.506   3.852
46271SOL     OW40651  14.113   4.969  10.582
46271SOL    HW140652  14.045   5.008  10.638
46271SOL    HW240653  14.067   4.901  10.533
46272SOL     OW40654   3.272   9.630  13.035
46272SOL    HW140655   3.357   9.648  13.076
46272SOL    HW240656   3.208   9.664  13.098
46273SOL     OW40657   4.744  12.737   2.456
46273SOL    HW140658   4.830  12.727   2.496
46273SOL    HW240659   4.683  12.739   2.529
46274SOL     OW40660   3.248  12.555   2.549
46274SOL    HW140661   3.218  12.612   2.621
46274SOL    HW240662   3.330  12.518   2.582
46275SOL     OW40663   3.948   9.817   5.345
46275SOL    HW140664   3.930   9.747   5.282
46275SOL    HW240665   3.957   9.895   5.291
46276SOL     OW40666   9.446  12.464  14.786
46276SOL    HW140667   9.438  12.558  14.769
46276SOL    HW240668   9.484  12.429  14.705
46277SOL     OW40669   0.958  11.716   4.706
46277SOL    HW140670   0.931  11.685   4.619
46277SOL    HW240671   0.959  11.637   4.760
46278SOL     OW40672   5.218   9.212   7.936
46278SOL    HW140673   5.279   9.219   8.009
46278SOL    HW240674   5.174   9.128   7.948
46279SOL     OW40675   3.826   9.071   6.869
46279SOL    HW140676   3.806   9.163   6.855
46279SOL    HW240677   3.743   9.026   6.857
46280SOL     OW40678   4.660   9.353  12.190
46280SOL    HW140679   4.606   9.337  12.267
46280SOL    HW240680   4.640   9.443  12.164
46281SOL     OW40681   6.970   1.553   8.946
46281SOL    HW140682   6.938   1.643   8.954
46281SOL    HW240683   6.928   1.519   8.867
46282SOL     OW40684   7.565   8.460   5.555
46282SOL    HW140685   7.609   8.453   5.640
46282SOL    HW240686   7.634   8.448   5.490
46283SOL     OW40687   3.635   5.291   8.385
46283SOL    HW140688   3.674   5.333   8.309
46283SOL    HW240689   3.562   5.240   8.349
46284SOL     OW40690   1.370  11.981  14.815
46284SOL    HW140691   1.455  11.947  14.791
46284SOL    HW240692   1.309  11.943  14.751
46285SOL     OW40693  12.091   8.504  13.331
46285SOL    HW140694  12.179   8.469  13.324
46285SOL    HW240695  12.034   8.427  13.334
46286SOL     OW40696  13.733   9.161  11.612
46286SOL    HW140697  13.821   9.141  11.581
46286SOL    HW240698  13.685   9.078  11.603
46287SOL     OW40699  11.597   6.384   7.086
46287SOL    HW140700  11.633   6.300   7.059
46287SOL    HW240701  11.512   6.390   7.041
46288SOL     OW40702   9.797   9.756   0.977
46288SOL    HW140703   9.740   9.723   0.907
46288SOL    HW240704   9.755   9.727   1.058
46289SOL     OW40705   2.398  10.135   7.435
46289SOL    HW140706   2.305  10.155   7.423
46289SOL    HW240707   2.439  10.221   7.448
46290SOL     OW40708   3.402  13.216  12.928
46290SOL    HW140709   3.459  13.290  12.908
46290SOL    HW240710   3.418  13.154  12.856
46291SOL     OW40711  12.295  12.224   6.579
46291SOL    HW140712  12.204  12.244   6.602
46291SOL    HW240713  12.308  12.136   6.613
46292SOL     OW40714  14.666  10.613   3.651
46292SOL    HW140715  14.644  10.552   3.581
46292SOL    HW240716  14.739  10.664   3.616
46293SOL     OW40717   8.807   9.177   8.720
46293SOL    HW140718   8.733   9.234   8.744
46293SOL    HW240719   8.816   9.117   8.794
46294SOL     OW40720   7.968  11.650   1.499
46294SOL    HW140721   8.030  11.705   1.449
46294SOL    HW240722   7.913  11.713   1.545
46295SOL     OW40723   4.442  11.596   1.686
46295SOL    HW140724   4.488  11.672   1.723
46295SOL    HW240725   4.447  11.529   1.754
46296SOL     OW40726  10.227  13.159   1.686
46296SOL    HW140727  10.318  13.133   1.693
46296SOL    HW240728  10.182  13.081   1.654
46297SOL     OW40729  14.192   8.316   1.977
46297SOL    HW140730  14.217   8.354   2.061
46297SOL    HW240731  14.204   8.387   1.914
46298SOL     OW40732  13.982   5.480  13.573
46298SOL    HW140733  14.011   5.499  13.484
46298SOL    HW240734  14.028   5.400  13.597
46299SOL     OW40735  13.271   1.363  14.102
46299SOL    HW140736  13.326   1.440  14.086
46299SOL    HW240737  13.333   1.292  14.116
46300SOL     OW40738   9.760  10.805   7.315
46300SOL    HW140739   9.794  10.870   7.253
46300SOL    HW240740   9.814  10.728   7.301
46301SOL     OW40741  10.790   1.065   0.892
46301SOL    HW140742  10.782   1.094   0.983
46301SOL    HW240743  10.741   1.130   0.841
46302SOL     OW40744  10.329  13.445   6.984
46302SOL    HW140745  10.316  13.474   6.893
46302SOL    HW240746  10.390  13.508   7.021
46303SOL     OW40747  14.381   9.361   1.336
46303SOL    HW140748  14.381   9.426   1.266
46303SOL    HW240749  14.471   9.361   1.369
46304SOL     OW40750   9.492   4.089   7.849
46304SOL    HW140751   9.572   4.106   7.898
46304SOL    HW240752   9.438   4.167   7.862
46305SOL     OW40753   7.479  14.602   9.951
46305SOL    HW140754   7.490  14.549   9.872
46305SOL    HW240755   7.542  14.674   9.942
46306SOL     OW40756   8.827   5.308  11.628
46306SOL    HW140757   8.783   5.391  11.609
46306SOL    HW240758   8.887   5.328  11.699
46307SOL     OW40759   3.308   4.665  12.772
46307SOL    HW140760   3.287   4.752  12.737
46307SOL    HW240761   3.371   4.629  12.709
46308SOL     OW40762   2.492   4.007  12.828
46308SOL    HW140763   2.450   4.012  12.914
46308SOL    HW240764   2.508   4.098  12.803
46309SOL     OW40765  12.874   9.859   3.491
46309SOL    HW140766  12.953   9.912   3.491
46309SOL    HW240767  12.903   9.773   3.521
46310SOL     OW40768   5.089   2.454   9.149
46310SOL    HW140769   5.111   2.396   9.222
46310SOL    HW240770   5.153   2.431   9.081
46311SOL     OW40771   7.091  11.587   7.698
46311SOL    HW140772   7.012  11.637   7.675
46311SOL    HW240773   7.108  11.609   7.790
46312SOL     OW40774   8.746  13.266  12.430
46312SOL    HW140775   8.683  13.194  12.424
46312SOL    HW240776   8.776  13.265  12.520
46313SOL     OW40777   5.348  12.974   0.362
46313SOL    HW140778   5.295  13.044   0.399
46313SOL    HW240779   5.302  12.949   0.282
46314SOL     OW40780  12.760  10.510   5.204
46314SOL    HW140781  12.850  10.477   5.206
46314SOL    HW240782  12.746  10.534   5.112
46315SOL     OW40783   6.989  11.702   3.198
46315SOL    HW140784   7.033  11.782   3.226
46315SOL    HW240785   7.025  11.633   3.253
46316SOL     OW40786  14.409   4.447  11.620
46316SOL    HW140787  14.496   4.466  11.584
46316SOL    HW240788  14.350   4.505  11.572
46317SOL     OW40789  12.919   6.776   8.950
46317SOL    HW140790  12.901   6.869   8.960
46317SOL    HW240791  12.835   6.733   8.964
46318SOL     OW40792   1.252  13.374  11.828
46318SOL    HW140793   1.278  13.320  11.902
46318SOL    HW240794   1.239  13.461  11.865
46319SOL     OW40795   8.059   3.567   4.751
46319SOL    HW140796   8.087   3.623   4.823
46319SOL    HW240797   8.024   3.489   4.794
46320SOL     OW40798   7.533  13.333  10.234
46320SOL    HW140799   7.536  13.239  10.251
46320SOL    HW240800   7.624  13.361  10.234
46321SOL     OW40801  11.368  11.521   5.056
46321SOL    HW140802  11.277  11.548   5.069
46321SOL    HW240803  11.415  11.558   5.131
46322SOL     OW40804   9.070  12.532   1.187
46322SOL    HW140805   9.118  12.579   1.256
46322SOL    HW240806   9.137  12.504   1.125
46323SOL     OW40807   2.522   3.211  14.131
46323SOL    HW140808   2.485   3.245  14.213
46323SOL    HW240809   2.497   3.275  14.065
46324SOL     OW40810   5.006   9.156   5.870
46324SOL    HW140811   4.992   9.121   5.782
46324SOL    HW240812   4.919   9.185   5.898
46325SOL     OW40813   5.854   8.274   3.784
46325SOL    HW140814   5.949   8.270   3.789
46325SOL    HW240815   5.832   8.217   3.710
46326SOL     OW40816   8.738   5.601   2.461
46326SOL    HW140817   8.658   5.596   2.408
46326SOL    HW240818   8.763   5.693   2.456
46327SOL     OW40819   8.290   5.789   7.671
46327SOL    HW140820   8.352   5.860   7.654
46327SOL    HW240821   8.274   5.793   7.765
46328SOL     OW40822   2.627   0.071   8.803
46328SOL    HW140823   2.647  14.859   8.808
46328SOL    HW240824   2.706   0.110   8.765
46329SOL     OW40825   8.267  11.358  13.018
46329SOL    HW140826   8.286  11.437  13.068
46329SOL    HW240827   8.196  11.316  13.066
46330SOL     OW40828  13.968   4.202   2.879
46330SOL    HW140829  13.902   4.208   2.810
46330SOL    HW240830  13.974   4.290   2.915
46331SOL     OW40831   9.507   1.394   8.078
46331SOL    HW140832   9.526   1.372   8.170
46331SOL    HW240833   9.456   1.475   8.084
46332SOL     OW40834   5.705  12.443   9.599
46332SOL    HW140835   5.695  12.498   9.521
46332SOL    HW240836   5.700  12.504   9.673
46333SOL     OW40837   6.440   8.946   7.032
46333SOL    HW140838   6.348   8.945   7.056
46333SOL    HW240839   6.440   8.956   6.937
46334SOL     OW40840   7.241  11.780  14.827
46334SOL    HW140841   7.171  11.725  14.790
46334SOL    HW240842   7.223  11.783   0.039
46335SOL     OW40843   2.259   9.165   5.744
46335SOL    HW140844   2.178   9.114   5.734
46335SOL    HW240845   2.296   9.135   5.827
46336SOL     OW40846   8.346   9.828   8.331
46336SOL    HW140847   8.408   9.853   8.263
46336SOL    HW240848   8.267   9.879   8.311
46337SOL     OW40849  10.332   5.665   4.101
46337SOL    HW140850  10.268   5.718   4.054
46337SOL    HW240851  10.394   5.636   4.033
46338SOL     OW40852  11.599   0.134  12.563
46338SOL    HW140853  11.508   0.124  12.589
46338SOL    HW240854  11.604   0.092  12.477
46339SOL     OW40855   2.004   3.627   7.164
46339SOL    HW140856   2.005   3.637   7.068
46339SOL    HW240857   2.076   3.682   7.194
46340SOL     OW40858   5.378   0.052   0.347
46340SOL    HW140859   5.383   0.147   0.362
46340SOL    HW240860   5.391   0.042   0.253
46341SOL     OW40861   5.871   7.543   0.613
46341SOL    HW140862   5.848   7.636   0.616
46341SOL    HW240863   5.939   7.534   0.680
46342SOL     OW40864   9.491   0.276  14.210
46342SOL    HW140865   9.431   0.348  14.186
46342SOL    HW240866   9.462   0.249  14.297
46343SOL     OW40867   0.431   0.033  13.701
46343SOL    HW140868   0.449  14.832  13.657
46343SOL    HW240869   0.337   0.045  13.693
46344SOL     OW40870  10.102   3.459   0.896
46344SOL    HW140871  10.099   3.554   0.883
46344SOL    HW240872  10.077   3.422   0.811
46345SOL     OW40873  11.272  13.542   1.450
46345SOL    HW140874  11.297  13.634   1.437
46345SOL    HW240875  11.333  13.510   1.516
46346SOL     OW40876   8.238  13.383   7.014
46346SOL    HW140877   8.232  13.328   7.092
46346SOL    HW240878   8.284  13.462   7.044
46347SOL     OW40879   7.200  14.107   5.681
46347SOL    HW140880   7.164  14.146   5.761
46347SOL    HW240881   7.256  14.036   5.713
46348SOL     OW40882   3.435   0.805   3.765
46348SOL    HW140883   3.469   0.784   3.852
46348SOL    HW240884   3.395   0.724   3.734
46349SOL     OW40885  10.611   7.305   7.303
46349SOL    HW140886  10.534   7.361   7.294
46349SOL    HW240887  10.621   7.263   7.218
46350SOL     OW40888   2.752   8.967  10.672
46350SOL    HW140889   2.831   8.989  10.721
46350SOL    HW240890   2.683   8.963  10.738
46351SOL     OW40891   1.122   0.202   5.713
46351SOL    HW140892   1.045   0.195   5.657
46351SOL    HW240893   1.196   0.198   5.652
46352SOL     OW40894   5.567  13.906   0.849
46352SOL    HW140895   5.615  13.858   0.916
46352SOL    HW240896   5.587  13.998   0.867
46353SOL     OW40897   4.549   4.233   0.911
46353SOL    HW140898   4.519   4.201   0.996
46353SOL    HW240899   4.609   4.304   0.933
46354SOL     OW40900   1.901  12.392   8.340
46354SOL    HW140901   1.905  12.312   8.288
46354SOL    HW240902   1.957  12.454   8.294
46355SOL     OW40903   3.123   5.639  11.946
46355SOL    HW140904   3.188   5.655  12.015
46355SOL    HW240905   3.166   5.670  11.866
46356SOL     OW40906   9.253   2.083   9.556
46356SOL    HW140907   9.241   2.175   9.582
46356SOL    HW240908   9.216   2.079   9.468
46357SOL     OW40909   1.327   6.963  12.060
46357SOL    HW140910   1.411   6.999  12.091
46357SOL    HW240911   1.276   6.950  12.139
46358SOL     OW40912  12.355   1.982   4.515
46358SOL    HW140913  12.411   1.997   4.439
46358SOL    HW240914  12.309   2.065   4.527
46359SOL     OW40915   6.880  13.505   3.676
46359SOL    HW140916   6.896  13.421   3.632
46359SOL    HW240917   6.900  13.571   3.610
46360SOL     OW40918   4.594   7.887  14.392
46360SOL    HW140919   4.557   7.841  14.316
46360SOL    HW240920   4.517   7.920  14.439
46361SOL     OW40921   3.011   9.828  12.279
46361SOL    HW140922   3.037   9.847  12.189
46361SOL    HW240923   3.072   9.878  12.333
46362SOL     OW40924   2.283  14.857   9.789
46362SOL    HW140925   2.308   0.038   9.721
46362SOL    HW240926   2.358  14.797   9.795
46363SOL     OW40927   8.867   7.116  10.780
46363SOL    HW140928   8.789   7.127  10.834
46363SOL    HW240929   8.847   7.164  10.700
46364SOL     OW40930   4.650  11.420   4.412
46364SOL    HW140931   4.715  11.444   4.346
46364SOL    HW240932   4.616  11.336   4.382
46365SOL     OW40933   6.118   6.429  11.168
46365SOL    HW140934   6.167   6.361  11.121
46365SOL    HW240935   6.180   6.466  11.230
46366SOL     OW40936  10.231   7.916   9.104
46366SOL    HW140937  10.189   7.925   9.019
46366SOL    HW240938  10.159   7.900   9.165
46367SOL     OW40939  13.308   5.765   3.824
46367SOL    HW140940  13.301   5.719   3.741
46367SOL    HW240941  13.320   5.696   3.889
46368SOL     OW40942  11.885  12.408   2.760
46368SOL    HW140943  11.941  12.337   2.729
46368SOL    HW240944  11.801  12.393   2.718
46369SOL     OW40945   8.441   7.132   9.935
46369SOL    HW140946   8.495   7.172   9.866
46369SOL    HW240947   8.390   7.065   9.889
46370SOL     OW40948   2.370   9.213   3.016
46370SOL    HW140949   2.440   9.229   2.953
46370SOL    HW240950   2.408   9.235   3.101
46371SOL     OW40951   7.076   4.788  12.089
46371SOL    HW140952   7.063   4.838  12.008
46371SOL    HW240953   7.033   4.704  12.073
46372SOL     OW40954   3.725  12.691  11.428
46372SOL    HW140955   3.726  12.615  11.486
46372SOL    HW240956   3.700  12.655  11.343
46373SOL     OW40957   2.415  14.626  11.444
46373SOL    HW140958   2.485  14.630  11.510
46373SOL    HW240959   2.335  14.648  11.493
46374SOL     OW40960  13.976   9.104   2.243
46374SOL    HW140961  13.952   9.131   2.154
46374SOL    HW240962  13.892   9.082   2.284
46375SOL     OW40963   7.071  11.312   6.034
46375SOL    HW140964   7.090  11.262   6.113
46375SOL    HW240965   7.027  11.391   6.065
46376SOL     OW40966  14.469   9.452   0.064
46376SOL    HW140967  14.419   9.477   0.143
46376SOL    HW240968  14.451   9.359   0.053
46377SOL     OW40969  12.348   1.113   0.133
46377SOL    HW140970  12.435   1.074   0.128
46377SOL    HW240971  12.364   1.207   0.140
46378SOL     OW40972   2.769  13.195   7.681
46378SOL    HW140973   2.804  13.111   7.709
46378SOL    HW240974   2.674  13.181   7.674
46379SOL     OW40975   2.808   3.455   9.219
46379SOL    HW140976   2.870   3.385   9.198
46379SOL    HW240977   2.723   3.411   9.222
46380SOL     OW40978   8.153   6.316   3.085
46380SOL    HW140979   8.224   6.327   3.022
46380SOL    HW240980   8.078   6.287   3.033
46381SOL     OW40981   8.188   7.923   4.941
46381SOL    HW140982   8.190   7.992   4.874
46381SOL    HW240983   8.112   7.945   4.995
46382SOL     OW40984  10.372  10.996   9.701
46382SOL    HW140985  10.337  10.965   9.618
46382SOL    HW240986  10.299  11.041   9.743
46383SOL     OW40987   9.683  13.664   1.581
46383SOL    HW140988   9.776  13.672   1.559
46383SOL    HW240989   9.681  13.662   1.677
46384SOL     OW40990   8.556   4.954  12.729
46384SOL    HW140991   8.503   5.031  12.709
46384SOL    HW240992   8.494   4.881  12.723
46385SOL     OW40993   9.046   8.921  12.918
46385SOL    HW140994   8.974   8.935  12.980
46385SOL    HW240995   9.099   8.852  12.958
46386SOL     OW40996   1.478   7.632  12.238
46386SOL    HW140997   1.498   7.722  12.215
46386SOL    HW240998   1.555   7.602  12.287
46387SOL     OW40999   2.896   0.802  13.827
46387SOL    HW141000   2.969   0.825  13.770
46387SOL    HW241001   2.823   0.854  13.795
46388SOL     OW41002   5.647   1.693   8.135
46388SOL    HW141003   5.640   1.766   8.074
46388SOL    HW241004   5.737   1.697   8.168
46389SOL     OW41005  10.803   1.751  11.297
46389SOL    HW141006  10.813   1.680  11.361
46389SOL    HW241007  10.845   1.826  11.338
46390SOL     OW41008  11.243   3.183   5.342
46390SOL    HW141009  11.291   3.129   5.279
46390SOL    HW241010  11.280   3.160   5.427
46391SOL     OW41011   3.491   0.156   4.926
46391SOL    HW141012   3.509   0.225   4.862
46391SOL    HW241013   3.566   0.097   4.918
46392SOL     OW41014   3.558  12.977   3.120
46392SOL    HW141015   3.499  13.047   3.093
46392SOL    HW241016   3.639  12.992   3.071
46393SOL     OW41017  11.560   6.042  11.236
46393SOL    HW141018  11.621   6.020  11.305
46393SOL    HW241019  11.476   6.055  11.281
46394SOL     OW41020  10.055  13.433   2.226
46394SOL    HW141021  10.124  13.500   2.223
46394SOL    HW241022   9.975  13.482   2.243
46395SOL     OW41023   8.747   2.051  14.314
46395SOL    HW141024   8.661   2.036  14.354
46395SOL    HW241025   8.790   2.114  14.373
46396SOL     OW41026   5.022  14.471   6.625
46396SOL    HW141027   5.100  14.422   6.601
46396SOL    HW241028   4.975  14.414   6.686
46397SOL     OW41029  14.127   6.086   5.501
46397SOL    HW141030  14.106   6.003   5.458
46397SOL    HW241031  14.202   6.120   5.453
46398SOL     OW41032  12.865   8.356   3.000
46398SOL    HW141033  12.871   8.278   2.946
46398SOL    HW241034  12.918   8.422   2.954
46399SOL     OW41035   2.776   6.095   3.510
46399SOL    HW141036   2.815   6.165   3.456
46399SOL    HW241037   2.687   6.126   3.528
46400SOL     OW41038   1.783   3.937  13.696
46400SOL    HW141039   1.781   4.013  13.637
46400SOL    HW241040   1.778   3.861  13.639
46401SOL     OW41041   7.862   4.844   4.730
46401SOL    HW141042   7.956   4.860   4.725
46401SOL    HW241043   7.855   4.752   4.754
46402SOL     OW41044   4.693   8.728   2.101
46402SOL    HW141045   4.603   8.716   2.071
46402SOL    HW241046   4.705   8.823   2.101
46403SOL     OW41047   0.036   8.317   2.738
46403SOL    HW141048   0.123   8.342   2.707
46403SOL    HW241049  14.868   8.298   2.658
46404SOL     OW41050   9.983  11.390   5.478
46404SOL    HW141051  10.024  11.431   5.554
46404SOL    HW241052  10.046  11.323   5.450
46405SOL     OW41053   3.226   5.711   2.785
46405SOL    HW141054   3.236   5.707   2.690
46405SOL    HW241055   3.282   5.641   2.818
46406SOL     OW41056   8.117   1.785  13.495
46406SOL    HW141057   8.114   1.695  13.528
46406SOL    HW241058   8.203   1.792  13.453
46407SOL     OW41059   7.637  14.234  12.056
46407SOL    HW141060   7.583  14.273  12.124
46407SOL    HW241061   7.705  14.299  12.040
46408SOL     OW41062   3.417   1.981  14.003
46408SOL    HW141063   3.367   1.920  13.949
46408SOL    HW241064   3.473   1.924  14.056
46409SOL     OW41065  14.513  11.729   2.659
46409SOL    HW141066  14.450  11.658   2.668
46409SOL    HW241067  14.566  11.724   2.739
46410SOL     OW41068  11.271   1.363  11.353
46410SOL    HW141069  11.218   1.318  11.420
46410SOL    HW241070  11.228   1.341  11.270
46411SOL     OW41071   5.980   4.093   5.688
46411SOL    HW141072   5.957   4.012   5.641
46411SOL    HW241073   5.897   4.127   5.719
46412SOL     OW41074   7.342  12.969   2.298
46412SOL    HW141075   7.268  12.983   2.239
46412SOL    HW241076   7.331  12.880   2.331
46413SOL     OW41077  10.428  11.798  12.806
46413SOL    HW141078  10.487  11.848  12.750
46413SOL    HW241079  10.340  11.818  12.772
46414SOL     OW41080   5.056  14.068   9.376
46414SOL    HW141081   5.027  14.159   9.380
46414SOL    HW241082   4.988  14.024   9.324
46415SOL     OW41083  12.512  11.331   9.480
46415SOL    HW141084  12.535  11.297   9.566
46415SOL    HW241085  12.590  11.376   9.450
46416SOL     OW41086  14.374   3.145   2.794
46416SOL    HW141087  14.314   3.172   2.725
46416SOL    HW241088  14.361   3.051   2.802
46417SOL     OW41089  11.662   7.941   2.842
46417SOL    HW141090  11.735   7.893   2.804
46417SOL    HW241091  11.650   7.902   2.929
46418SOL     OW41092   2.960   5.484   8.139
46418SOL    HW141093   3.006   5.440   8.210
46418SOL    HW241094   3.025   5.493   8.069
46419SOL     OW41095  14.295   7.468  14.539
46419SOL    HW141096  14.249   7.551  14.547
46419SOL    HW241097  14.227   7.401  14.553
46420SOL     OW41098   9.943  10.556   1.227
46420SOL    HW141099   9.863  10.505   1.221
46420SOL    HW241100  10.013  10.492   1.209
46421SOL     OW41101  14.118  11.362  12.453
46421SOL    HW141102  14.064  11.344  12.376
46421SOL    HW241103  14.108  11.286  12.509
46422SOL     OW41104   5.664  14.704   7.581
46422SOL    HW141105   5.598  14.689   7.514
46422SOL    HW241106   5.652  14.633   7.643
46423SOL     OW41107   3.095   8.064   8.299
46423SOL    HW141108   3.102   8.145   8.350
46423SOL    HW241109   3.182   8.025   8.304
46424SOL     OW41110   9.036  11.472  12.387
46424SOL    HW141111   9.053  11.538  12.319
46424SOL    HW241112   9.122  11.453  12.424
46425SOL     OW41113   3.382   6.349   1.873
46425SOL    HW141114   3.406   6.257   1.886
46425SOL    HW241115   3.406   6.391   1.955
46426SOL     OW41116   7.852   7.712   9.439
46426SOL    HW141117   7.810   7.670   9.364
46426SOL    HW241118   7.840   7.806   9.423
46427SOL     OW41119   2.721   2.914   4.639
46427SOL    HW141120   2.681   2.945   4.720
46427SOL    HW241121   2.793   2.975   4.623
46428SOL     OW41122   5.066  12.338  10.571
46428SOL    HW141123   4.975  12.314  10.549
46428SOL    HW241124   5.063  12.359  10.664
46429SOL     OW41125  11.520  10.918   8.515
46429SOL    HW141126  11.479  10.930   8.601
46429SOL    HW241127  11.534  10.824   8.507
46430SOL     OW41128  14.617  13.369   7.897
46430SOL    HW141129  14.675  13.437   7.930
46430SOL    HW241130  14.582  13.326   7.975
46431SOL     OW41131  13.005  10.584  13.938
46431SOL    HW141132  13.069  10.545  13.998
46431SOL    HW241133  13.057  10.639  13.880
46432SOL     OW41134   2.251   1.904  12.559
46432SOL    HW141135   2.313   1.970  12.528
46432SOL    HW241136   2.202   1.947  12.629
46433SOL     OW41137  12.105   7.816  13.501
46433SOL    HW141138  12.179   7.876  13.513
46433SOL    HW241139  12.038   7.848  13.562
46434SOL     OW41140  13.785   5.185   5.609
46434SOL    HW141141  13.722   5.238   5.660
46434SOL    HW241142  13.753   5.095   5.619
46435SOL     OW41143   7.846  14.375   4.733
46435SOL    HW141144   7.907  14.302   4.747
46435SOL    HW241145   7.795  14.350   4.657
46436SOL     OW41146  12.411   0.934   8.981
46436SOL    HW141147  12.379   1.019   8.949
46436SOL    HW241148  12.505   0.935   8.961
46437SOL     OW41149   4.779  12.740  10.720
46437SOL    HW141150   4.772  12.689  10.640
46437SOL    HW241151   4.688  12.757  10.746
46438SOL     OW41152   9.507  13.428  14.183
46438SOL    HW141153   9.590  13.383  14.200
46438SOL    HW241154   9.528  13.492  14.116
46439SOL     OW41155  11.832   8.653  10.530
46439SOL    HW141156  11.904   8.684  10.476
46439SOL    HW241157  11.764   8.626  10.468
46440SOL     OW41158   3.565   0.178   9.140
46440SOL    HW141159   3.612   0.244   9.190
46440SOL    HW241160   3.631   0.110   9.123
46441SOL     OW41161  12.472   9.152   8.631
46441SOL    HW141162  12.553   9.191   8.663
46441SOL    HW241163  12.489   9.057   8.634
46442SOL     OW41164  14.623   0.772  13.387
46442SOL    HW141165  14.605   0.866  13.387
46442SOL    HW241166  14.585   0.740  13.469
46443SOL     OW41167  10.616  10.562   0.322
46443SOL    HW141168  10.564  10.599   0.394
46443SOL    HW241169  10.657  10.484   0.359
46444SOL     OW41170   7.031   1.055  13.909
46444SOL    HW141171   7.121   1.063  13.879
46444SOL    HW241172   6.978   1.057  13.829
46445SOL     OW41173   7.886   1.214   4.710
46445SOL    HW141174   7.887   1.120   4.723
46445SOL    HW241175   7.978   1.240   4.715
46446SOL     OW41176   6.476   8.004  10.611
46446SOL    HW141177   6.454   8.097  10.602
46446SOL    HW241178   6.393   7.958  10.594
46447SOL     OW41179   7.695   4.449   3.157
46447SOL    HW141180   7.686   4.469   3.250
46447SOL    HW241181   7.773   4.395   3.151
46448SOL     OW41182  14.159  12.066   3.372
46448SOL    HW141183  14.234  12.102   3.418
46448SOL    HW241184  14.151  12.119   3.293
46449SOL     OW41185  13.503   0.812   2.100
46449SOL    HW141186  13.570   0.805   2.031
46449SOL    HW241187  13.515   0.733   2.153
46450SOL     OW41188  10.785   6.911  11.108
46450SOL    HW141189  10.812   6.856  11.181
46450SOL    HW241190  10.764   6.996  11.148
46451SOL     OW41191   2.908   0.265  11.377
46451SOL    HW141192   2.910   0.338  11.314
46451SOL    HW241193   2.992   0.271  11.422
46452SOL     OW41194  13.787  14.821   7.131
46452SOL    HW141195  13.792  14.872   7.212
46452SOL    HW241196  13.750  14.881   7.067
46453SOL     OW41197   9.093   8.313   7.512
46453SOL    HW141198   9.061   8.226   7.487
46453SOL    HW241199   9.058   8.327   7.600
46454SOL     OW41200   2.519   4.981  13.719
46454SOL    HW141201   2.521   4.887  13.704
46454SOL    HW241202   2.609   5.010  13.707
46455SOL     OW41203  13.808  13.710   2.746
46455SOL    HW141204  13.747  13.783   2.760
46455SOL    HW241205  13.895  13.751   2.746
46456SOL     OW41206  13.901   7.055   1.860
46456SOL    HW141207  13.859   7.140   1.873
46456SOL    HW241208  13.863   7.022   1.779
46457SOL     OW41209  13.896   9.018   6.748
46457SOL    HW141210  13.964   9.032   6.682
46457SOL    HW241211  13.900   9.095   6.804
46458SOL     OW41212  12.159  12.463  14.695
46458SOL    HW141213  12.212  12.488  14.620
46458SOL    HW241214  12.209  12.492  14.771
46459SOL     OW41215   7.907  11.824   9.576
46459SOL    HW141216   7.851  11.752   9.604
46459SOL    HW241217   7.859  11.903   9.600
46460SOL     OW41218   1.701   4.485   1.343
46460SOL    HW141219   1.666   4.574   1.341
46460SOL    HW241220   1.662   4.442   1.267
46461SOL     OW41221   3.986   1.927   0.380
46461SOL    HW141222   3.927   1.853   0.363
46461SOL    HW241223   4.047   1.894   0.447
46462SOL     OW41224   9.454   4.240   0.748
46462SOL    HW141225   9.465   4.305   0.818
46462SOL    HW241226   9.489   4.160   0.785
46463SOL     OW41227  13.283   8.448   3.912
46463SOL    HW141228  13.294   8.359   3.876
46463SOL    HW241229  13.357   8.497   3.876
46464SOL     OW41230   2.114   2.457   6.123
46464SOL    HW141231   2.037   2.415   6.161
46464SOL    HW241232   2.079   2.505   6.047
46465SOL     OW41233   2.291  13.638   5.643
46465SOL    HW141234   2.362  13.642   5.707
46465SOL    HW241235   2.282  13.728   5.613
46466SOL     OW41236   5.582   2.755  12.770
46466SOL    HW141237   5.622   2.684  12.720
46466SOL    HW241238   5.655   2.810  12.798
46467SOL     OW41239   6.410   3.739   8.060
46467SOL    HW141240   6.447   3.687   8.132
46467SOL    HW241241   6.464   3.718   7.984
46468SOL     OW41242  11.671   2.925   7.752
46468SOL    HW141243  11.724   2.931   7.832
46468SOL    HW241244  11.642   2.834   7.749
46469SOL     OW41245   4.126   3.515   1.167
46469SOL    HW141246   4.070   3.587   1.198
46469SOL    HW241247   4.131   3.528   1.072
46470SOL     OW41248  13.832  14.787  11.649
46470SOL    HW141249  13.925  14.806  11.660
46470SOL    HW241250  13.830  14.710  11.592
46471SOL     OW41251  14.782  13.102   5.128
46471SOL    HW141252  14.741  13.166   5.186
46471SOL    HW241253  14.856  13.069   5.178
46472SOL     OW41254  13.857   0.374  12.273
46472SOL    HW141255  13.898   0.456  12.298
46472SOL    HW241256  13.890   0.355  12.185
46473SOL     OW41257   8.044   4.081   8.888
46473SOL    HW141258   8.097   4.126   8.822
46473SOL    HW241259   8.012   4.150   8.945
46474SOL     OW41260  14.172   0.158  14.675
46474SOL    HW141261  14.209   0.243  14.697
46474SOL    HW241262  14.095   0.178  14.622
46475SOL     OW41263   3.387  13.663   4.710
46475SOL    HW141264   3.304  13.629   4.743
46475SOL    HW241265   3.364  13.713   4.631
46476SOL     OW41266  10.562   2.344   0.991
46476SOL    HW141267  10.619   2.298   0.930
46476SOL    HW241268  10.562   2.435   0.960
46477SOL     OW41269  10.127   2.295   1.646
46477SOL    HW141270  10.144   2.308   1.553
46477SOL    HW241271  10.053   2.233   1.648
46478SOL     OW41272  12.766   5.052  11.460
46478SOL    HW141273  12.790   5.114  11.528
46478SOL    HW241274  12.807   5.087  11.380
46479SOL     OW41275   3.499   8.100   6.119
46479SOL    HW141276   3.454   8.149   6.050
46479SOL    HW241277   3.442   8.026   6.137
46480SOL     OW41278   8.537   6.614  10.893
46480SOL    HW141279   8.597   6.574  10.956
46480SOL    HW241280   8.591   6.629  10.815
46481SOL     OW41281   8.817   2.680  11.791
46481SOL    HW141282   8.874   2.633  11.729
46481SOL    HW241283   8.846   2.771  11.786
46482SOL     OW41284   0.117   0.724   7.310
46482SOL    HW141285   0.046   0.785   7.332
46482SOL    HW241286   0.102   0.701   7.218
46483SOL     OW41287   1.747  11.769   2.406
46483SOL    HW141288   1.693  11.831   2.455
46483SOL    HW241289   1.802  11.727   2.471
46484SOL     OW41290   5.019   3.130   1.102
46484SOL    HW141291   4.981   3.160   1.020
46484SOL    HW241292   5.026   3.209   1.156
46485SOL     OW41293   4.246   2.222  11.323
46485SOL    HW141294   4.294   2.139  11.322
46485SOL    HW241295   4.166   2.205  11.274
46486SOL     OW41296   2.444  12.201   1.937
46486SOL    HW141297   2.511  12.258   1.975
46486SOL    HW241298   2.493  12.129   1.898
46487SOL     OW41299   6.217   0.837   6.077
46487SOL    HW141300   6.207   0.816   5.985
46487SOL    HW241301   6.176   0.763   6.123
46488SOL     OW41302   9.717   4.278  14.126
46488SOL    HW141303   9.805   4.315  14.117
46488SOL    HW241304   9.703   4.270  14.221
46489SOL     OW41305   2.932   6.718   0.116
46489SOL    HW141306   2.850   6.701   0.069
46489SOL    HW241307   3.000   6.704   0.050
46490SOL     OW41308   8.234   7.941   8.210
46490SOL    HW141309   8.219   7.888   8.132
46490SOL    HW241310   8.182   8.021   8.195
46491SOL     OW41311   4.786  12.105   0.521
46491SOL    HW141312   4.694  12.127   0.533
46491SOL    HW241313   4.811  12.148   0.439
46492SOL     OW41314   6.742  13.667   7.115
46492SOL    HW141315   6.818  13.725   7.117
46492SOL    HW241316   6.684  13.707   7.050
46493SOL     OW41317  11.325   7.632   3.348
46493SOL    HW141318  11.298   7.680   3.426
46493SOL    HW241319  11.346   7.544   3.378
46494SOL     OW41320  13.719  13.839  11.286
46494SOL    HW141321  13.749  13.901  11.353
46494SOL    HW241322  13.634  13.808  11.318
46495SOL     OW41323   5.666   7.754  12.986
46495SOL    HW141324   5.714   7.786  12.909
46495SOL    HW241325   5.574   7.758  12.959
46496SOL     OW41326   9.145   6.384   3.790
46496SOL    HW141327   9.188   6.385   3.704
46496SOL    HW241328   9.218   6.388   3.852
46497SOL     OW41329   2.875  10.977   6.424
46497SOL    HW141330   2.804  10.935   6.472
46497SOL    HW241331   2.928  11.020   6.492
46498SOL     OW41332   2.495   2.341   0.091
46498SOL    HW141333   2.522   2.334  14.881
46498SOL    HW241334   2.526   2.260   0.131
46499SOL     OW41335  13.421   9.622   8.195
46499SOL    HW141336  13.479   9.547   8.186
46499SOL    HW241337  13.337   9.585   8.222
46500SOL     OW41338   9.259   0.108   3.518
46500SOL    HW141339   9.311   0.053   3.577
46500SOL    HW241340   9.184   0.136   3.572
46501SOL     OW41341  14.570   9.356   2.318
46501SOL    HW141342  14.662   9.379   2.331
46501SOL    HW241343  14.568   9.315   2.231
46502SOL     OW41344   7.553  13.808  11.712
46502SOL    HW141345   7.566  13.792  11.805
46502SOL    HW241346   7.641  13.826  11.679
46503SOL     OW41347  10.924   5.455   4.553
46503SOL    HW141348  10.834   5.476   4.527
46503SOL    HW241349  10.923   5.454   4.648
46504SOL     OW41350   1.598   0.148  12.519
46504SOL    HW141351   1.519   0.184  12.559
46504SOL    HW241352   1.658   0.135  12.593
46505SOL     OW41353   3.773   6.788  14.038
46505SOL    HW141354   3.847   6.747  13.994
46505SOL    HW241355   3.709   6.718  14.050
46506SOL     OW41356   8.457  14.533   9.676
46506SOL    HW141357   8.489  14.498   9.593
46506SOL    HW241358   8.365  14.552   9.660
46507SOL     OW41359   4.546  12.741  12.593
46507SOL    HW141360   4.628  12.694  12.575
46507SOL    HW241361   4.480  12.672  12.598
46508SOL     OW41362  14.112   7.828   5.068
46508SOL    HW141363  14.167   7.837   5.145
46508SOL    HW241364  14.137   7.901   5.012
46509SOL     OW41365   4.889  10.295   2.217
46509SOL    HW141366   4.943  10.217   2.224
46509SOL    HW241367   4.902  10.326   2.127
46510SOL     OW41368   3.828   8.045   6.509
46510SOL    HW141369   3.740   8.017   6.486
46510SOL    HW241370   3.818   8.089   6.594
46511SOL     OW41371  12.529   6.425   4.307
46511SOL    HW141372  12.484   6.424   4.223
46511SOL    HW241373  12.501   6.345   4.351
46512SOL     OW41374   5.104   9.503  14.225
46512SOL    HW141375   5.104   9.587  14.271
46512SOL    HW241376   5.098   9.437  14.294
46513SOL     OW41377   5.441  12.248   0.445
46513SOL    HW141378   5.425  12.165   0.401
46513SOL    HW241379   5.518  12.285   0.401
46514SOL     OW41380  11.993  11.882  12.272
46514SOL    HW141381  11.952  11.914  12.352
46514SOL    HW241382  12.022  11.794  12.292
46515SOL     OW41383   8.455   5.689   0.573
46515SOL    HW141384   8.526   5.629   0.547
46515SOL    HW241385   8.431   5.733   0.491
46516SOL     OW41386   1.305  11.647  11.411
46516SOL    HW141387   1.380  11.634  11.354
46516SOL    HW241388   1.242  11.697  11.358
46517SOL     OW41389  11.996   6.013   6.613
46517SOL    HW141390  11.964   6.100   6.634
46517SOL    HW241391  12.056   5.991   6.685
46518SOL     OW41392  13.569   5.845   1.492
46518SOL    HW141393  13.529   5.895   1.421
46518SOL    HW241394  13.494   5.804   1.536
46519SOL     OW41395  10.777   3.419   2.855
46519SOL    HW141396  10.736   3.346   2.809
46519SOL    HW241397  10.706   3.483   2.867
46520SOL     OW41398   0.628   3.760   2.549
46520SOL    HW141399   0.720   3.777   2.569
46520SOL    HW241400   0.626   3.671   2.516
46521SOL     OW41401   8.215   0.380   1.730
46521SOL    HW141402   8.141   0.323   1.710
46521SOL    HW241403   8.256   0.396   1.645
46522SOL     OW41404   5.271   6.637  11.386
46522SOL    HW141405   5.280   6.675  11.473
46522SOL    HW241406   5.328   6.691  11.330
46523SOL     OW41407  12.112   8.416   4.126
46523SOL    HW141408  12.117   8.341   4.066
46523SOL    HW241409  12.019   8.430   4.139
46524SOL     OW41410   3.432  14.177   6.796
46524SOL    HW141411   3.386  14.169   6.880
46524SOL    HW241412   3.433  14.088   6.762
46525SOL     OW41413   0.558   8.920   3.359
46525SOL    HW141414   0.479   8.945   3.312
46525SOL    HW241415   0.595   9.002   3.389
46526SOL     OW41416   2.329   8.678   1.216
46526SOL    HW141417   2.240   8.663   1.250
46526SOL    HW241418   2.386   8.664   1.291
46527SOL     OW41419  12.972  10.118   2.882
46527SOL    HW141420  12.881  10.113   2.852
46527SOL    HW241421  12.994  10.210   2.878
46528SOL     OW41422  11.127   7.527   7.542
46528SOL    HW141423  11.104   7.602   7.486
46528SOL    HW241424  11.205   7.490   7.501
46529SOL     OW41425   0.275   6.546  14.194
46529SOL    HW141426   0.226   6.620  14.232
46529SOL    HW241427   0.240   6.470  14.239
46530SOL     OW41428  12.890   4.522   9.221
46530SOL    HW141429  12.860   4.461   9.153
46530SOL    HW241430  12.959   4.474   9.268
46531SOL     OW41431   9.500   2.167   8.319
46531SOL    HW141432   9.592   2.155   8.342
46531SOL    HW241433   9.484   2.261   8.330
46532SOL     OW41434   8.076   8.813   7.650
46532SOL    HW141435   8.093   8.806   7.556
46532SOL    HW241436   8.096   8.904   7.671
46533SOL     OW41437   6.064   4.528   7.059
46533SOL    HW141438   6.000   4.464   7.028
46533SOL    HW241439   6.012   4.602   7.090
46534SOL     OW41440   7.448  12.126   7.391
46534SOL    HW141441   7.371  12.070   7.392
46534SOL    HW241442   7.462  12.150   7.483
46535SOL     OW41443  14.429   4.784  11.917
46535SOL    HW141444  14.453   4.804  11.826
46535SOL    HW241445  14.439   4.689  11.924
46536SOL     OW41446   5.340   7.231   0.944
46536SOL    HW141447   5.249   7.204   0.937
46536SOL    HW241448   5.343   7.317   0.903
46537SOL     OW41449   6.361  12.852   9.184
46537SOL    HW141450   6.418  12.786   9.226
46537SOL    HW241451   6.400  12.936   9.210
46538SOL     OW41452   3.538   8.788  10.478
46538SOL    HW141453   3.480   8.754  10.410
46538SOL    HW241454   3.507   8.748  10.559
46539SOL     OW41455   9.183  12.422  13.191
46539SOL    HW141456   9.117  12.450  13.128
46539SOL    HW241457   9.194  12.497  13.249
46540SOL     OW41458   8.114  14.090   3.689
46540SOL    HW141459   8.116  14.087   3.593
46540SOL    HW241460   8.202  14.117   3.715
46541SOL     OW41461   3.037  12.494   8.167
46541SOL    HW141462   2.962  12.510   8.225
46541SOL    HW241463   2.999  12.447   8.093
46542SOL     OW41464  14.369  12.476  13.393
46542SOL    HW141465  14.331  12.503  13.310
46542SOL    HW241466  14.339  12.542  13.456
46543SOL     OW41467   5.338   6.175   8.871
46543SOL    HW141468   5.277   6.158   8.942
46543SOL    HW241469   5.307   6.257   8.832
46544SOL     OW41470   2.035   0.070   9.809
46544SOL    HW141471   2.057   0.141   9.749
46544SOL    HW241472   2.109   0.010   9.805
46545SOL     OW41473  11.599   3.057   0.968
46545SOL    HW141474  11.693   3.061   0.950
46545SOL    HW241475  11.558   3.053   0.882
46546SOL     OW41476   0.898  11.615   5.894
46546SOL    HW141477   0.963  11.685   5.897
46546SOL    HW241478   0.833  11.639   5.960
46547SOL     OW41479   5.182  12.056   9.899
46547SOL    HW141480   5.177  12.116   9.824
46547SOL    HW241481   5.110  12.083   9.956
46548SOL     OW41482  14.190   8.112   0.861
46548SOL    HW141483  14.170   8.023   0.831
46548SOL    HW241484  14.149   8.119   0.947
46549SOL     OW41485   9.418  14.691   5.352
46549SOL    HW141486   9.367  14.682   5.433
46549SOL    HW241487   9.499  14.734   5.380
46550SOL     OW41488   9.976   7.281  10.954
46550SOL    HW141489  10.003   7.197  10.917
46550SOL    HW241490  10.022   7.287  11.038
46551SOL     OW41491   5.537   5.896   3.765
46551SOL    HW141492   5.626   5.865   3.780
46551SOL    HW241493   5.486   5.858   3.837
46552SOL     OW41494   8.438   8.147   8.161
46552SOL    HW141495   8.385   8.069   8.177
46552SOL    HW241496   8.396   8.216   8.212
46553SOL     OW41497  10.116   9.509  13.516
46553SOL    HW141498  10.108   9.576  13.448
46553SOL    HW241499  10.028   9.473  13.526
46554SOL     OW41500   1.041   9.514  10.218
46554SOL    HW141501   1.117   9.488  10.270
46554SOL    HW241502   1.072   9.590  10.168
46555SOL     OW41503   8.947   9.353   7.441
46555SOL    HW141504   9.000   9.412   7.494
46555SOL    HW241505   8.910   9.292   7.504
46556SOL     OW41506  10.736  10.081  14.570
46556SOL    HW141507  10.729  10.050  14.661
46556SOL    HW241508  10.680  10.159  14.567
46557SOL     OW41509  13.846  10.894  12.239
46557SOL    HW141510  13.906  10.925  12.171
46557SOL    HW241511  13.901  10.840  12.296
46558SOL     OW41512  14.242   8.037   7.357
46558SOL    HW141513  14.337   8.036   7.345
46558SOL    HW241514  14.217   7.945   7.356
46559SOL     OW41515  13.554  12.507   9.699
46559SOL    HW141516  13.501  12.581   9.670
46559SOL    HW241517  13.572  12.457   9.620
46560SOL     OW41518   7.195   6.834  10.092
46560SOL    HW141519   7.126   6.776  10.061
46560SOL    HW241520   7.152   6.918  10.104
46561SOL     OW41521  10.186   0.172   6.292
46561SOL    HW141522  10.275   0.137   6.288
46561SOL    HW241523  10.196   0.265   6.271
46562SOL     OW41524   5.246  14.874   7.124
46562SOL    HW141525   5.284  14.787   7.110
46562SOL    HW241526   5.161  14.857   7.164
46563SOL     OW41527   6.102   4.769  14.819
46563SOL    HW141528   6.067   4.683  14.842
46563SOL    HW241529   6.027   4.815  14.780
46564SOL     OW41530   5.505   5.640  10.664
46564SOL    HW141531   5.566   5.692  10.611
46564SOL    HW241532   5.535   5.550  10.654
46565SOL     OW41533   5.961  14.146   9.946
46565SOL    HW141534   5.872  14.113   9.939
46565SOL    HW241535   5.961  14.202  10.023
46566SOL     OW41536   7.869   5.608   2.721
46566SOL    HW141537   7.956   5.577   2.745
46566SOL    HW241538   7.844   5.554   2.646
46567SOL     OW41539   7.544   8.437  10.183
46567SOL    HW141540   7.570   8.437  10.275
46567SOL    HW241541   7.520   8.346  10.166
46568SOL     OW41542   7.672  13.742  14.662
46568SOL    HW141543   7.687  13.693  14.581
46568SOL    HW241544   7.737  13.708  14.723
46569SOL     OW41545   2.836   7.330   6.826
46569SOL    HW141546   2.822   7.348   6.733
46569SOL    HW241547   2.849   7.236   6.831
46570SOL     OW41548  12.613   9.218   6.155
46570SOL    HW141549  12.644   9.308   6.143
46570SOL    HW241550  12.647   9.192   6.240
46571SOL     OW41551  12.941   6.802   3.006
46571SOL    HW141552  12.928   6.888   3.047
46571SOL    HW241553  13.035   6.796   2.991
46572SOL     OW41554   8.293   6.290   7.144
46572SOL    HW141555   8.279   6.229   7.072
46572SOL    HW241556   8.206   6.305   7.181
46573SOL     OW41557   0.056   3.932  10.155
46573SOL    HW141558   0.016   3.939  10.241
46573SOL    HW241559   0.041   3.841  10.129
46574SOL     OW41560  14.172   5.754   3.568
46574SOL    HW141561  14.224   5.766   3.488
46574SOL    HW241562  14.231   5.778   3.639
46575SOL     OW41563   2.156   4.482   9.786
46575SOL    HW141564   2.118   4.403   9.824
46575SOL    HW241565   2.249   4.478   9.811
46576SOL     OW41566   4.883   4.419   3.671
46576SOL    HW141567   4.918   4.333   3.645
46576SOL    HW241568   4.959   4.477   3.668
46577SOL     OW41569   5.753  12.272   9.379
46577SOL    HW141570   5.747  12.310   9.467
46577SOL    HW241571   5.808  12.334   9.331
46578SOL     OW41572   4.463   4.620   7.183
46578SOL    HW141573   4.496   4.696   7.135
46578SOL    HW241574   4.384   4.652   7.227
46579SOL     OW41575  10.997   6.806   1.058
46579SOL    HW141576  10.927   6.854   1.015
46579SOL    HW241577  10.978   6.816   1.152
46580SOL     OW41578   7.241   2.237   6.441
46580SOL    HW141579   7.231   2.223   6.535
46580SOL    HW241580   7.190   2.315   6.422
46581SOL     OW41581  14.379   5.244   7.361
46581SOL    HW141582  14.308   5.186   7.333
46581SOL    HW241583  14.336   5.305   7.421
46582SOL     OW41584   3.636   5.014   9.757
46582SOL    HW141585   3.570   5.057   9.703
46582SOL    HW241586   3.614   5.041   9.846
46583SOL     OW41587  13.580   3.966   4.862
46583SOL    HW141588  13.570   3.974   4.957
46583SOL    HW241589  13.536   4.044   4.827
46584SOL     OW41590   4.909   5.281   9.079
46584SOL    HW141591   4.902   5.334   9.000
46584SOL    HW241592   4.900   5.343   9.152
46585SOL     OW41593  12.298  13.895  14.073
46585SOL    HW141594  12.327  13.871  13.985
46585SOL    HW241595  12.324  13.821  14.128
46586SOL     OW41596  11.940   4.266   0.201
46586SOL    HW141597  11.905   4.207   0.267
46586SOL    HW241598  11.954   4.211   0.124
46587SOL     OW41599   0.852   9.979  14.403
46587SOL    HW141600   0.860  10.053  14.462
46587SOL    HW241601   0.838  10.018  14.317
46588SOL     OW41602  11.818   2.381  13.484
46588SOL    HW141603  11.913   2.383  13.471
46588SOL    HW241604  11.786   2.316  13.422
46589SOL     OW41605  10.663  12.806   5.934
46589SOL    HW141606  10.674  12.901   5.941
46589SOL    HW241607  10.719  12.770   6.003
46590SOL     OW41608   8.622  11.058   1.364
46590SOL    HW141609   8.671  11.089   1.288
46590SOL    HW241610   8.677  11.082   1.439
46591SOL     OW41611  13.424   3.617  14.194
46591SOL    HW141612  13.414   3.535  14.244
46591SOL    HW241613  13.368   3.680  14.241
46592SOL     OW41614   0.213   9.247   0.584
46592SOL    HW141615   0.221   9.296   0.666
46592SOL    HW241616   0.238   9.311   0.517
46593SOL     OW41617   3.033  14.067   5.056
46593SOL    HW141618   2.968  14.000   5.037
46593SOL    HW241619   3.084  14.032   5.128
46594SOL     OW41620  11.933  13.978  12.803
46594SOL    HW141621  11.977  13.901  12.838
46594SOL    HW241622  11.961  13.982  12.712
46595SOL     OW41623  11.689   1.309   9.401
46595SOL    HW141624  11.630   1.265   9.341
46595SOL    HW241625  11.660   1.400   9.401
46596SOL     OW41626   7.587   7.703   1.170
46596SOL    HW141627   7.563   7.620   1.212
46596SOL    HW241628   7.682   7.708   1.177
46597SOL     OW41629  12.848   6.182   3.565
46597SOL    HW141630  12.787   6.157   3.634
46597SOL    HW241631  12.793   6.208   3.492
46598SOL     OW41632   1.114  11.026  13.999
46598SOL    HW141633   1.067  11.103  14.031
46598SOL    HW241634   1.077  10.953  14.049
46599SOL     OW41635   2.654  12.635   5.512
46599SOL    HW141636   2.728  12.663   5.458
46599SOL    HW241637   2.657  12.691   5.589
46600SOL     OW41638  14.274   7.025   1.273
46600SOL    HW141639  14.190   6.979   1.279
46600SOL    HW241640  14.286   7.040   1.180
46601SOL     OW41641   0.855   6.909   8.955
46601SOL    HW141642   0.852   6.878   9.045
46601SOL    HW241643   0.808   6.992   8.956
46602SOL     OW41644  10.899   2.144   9.544
46602SOL    HW141645  10.811   2.148   9.580
46602SOL    HW241646  10.904   2.059   9.501
46603SOL     OW41647   2.091  14.069  10.767
46603SOL    HW141648   2.132  13.986  10.742
46603SOL    HW241649   2.098  14.071  10.863
46604SOL     OW41650  11.940   6.792  11.511
46604SOL    HW141651  11.920   6.849  11.437
46604SOL    HW241652  11.862   6.737  11.519
46605SOL     OW41653  10.194   3.476  13.869
46605SOL    HW141654  10.152   3.398  13.832
46605SOL    HW241655  10.188   3.465  13.963
46606SOL     OW41656   1.636   8.613   9.806
46606SOL    HW141657   1.697   8.543   9.783
46606SOL    HW241658   1.560   8.567   9.841
46607SOL     OW41659   7.259   9.506   0.747
46607SOL    HW141660   7.310   9.426   0.758
46607SOL    HW241661   7.189   9.482   0.687
46608SOL     OW41662   4.517  14.631   2.011
46608SOL    HW141663   4.611  14.647   2.016
46608SOL    HW241664   4.479  14.717   1.995
46609SOL     OW41665   1.797  13.496   1.653
46609SOL    HW141666   1.754  13.510   1.737
46609SOL    HW241667   1.800  13.582   1.613
46610SOL     OW41668  13.331   4.483  11.841
46610SOL    HW141669  13.293   4.570  11.847
46610SOL    HW241670  13.415   4.490  11.886
46611SOL     OW41671  12.233   9.361   3.937
46611SOL    HW141672  12.263   9.408   3.859
46611SOL    HW241673  12.148   9.399   3.957
46612SOL     OW41674   2.659   9.568   2.976
46612SOL    HW141675   2.642   9.658   3.005
46612SOL    HW241676   2.579   9.543   2.929
46613SOL     OW41677   3.146  13.288   5.347
46613SOL    HW141678   3.222  13.243   5.384
46613SOL    HW241679   3.183  13.358   5.293
46614SOL     OW41680   9.692   0.156  11.961
46614SOL    HW141681   9.754   0.111  12.018
46614SOL    HW241682   9.708   0.249  11.977
46615SOL     OW41683   7.955   7.969   0.956
46615SOL    HW141684   8.009   8.017   1.019
46615SOL    HW241685   7.976   7.877   0.973
46616SOL     OW41686  12.750   4.456  12.957
46616SOL    HW141687  12.716   4.512  13.027
46616SOL    HW241688  12.744   4.368  12.993
46617SOL     OW41689   0.379   5.580  11.594
46617SOL    HW141690   0.466   5.542  11.603
46617SOL    HW241691   0.394   5.673  11.577
46618SOL     OW41692  13.759   4.273   2.697
46618SOL    HW141693  13.721   4.309   2.778
46618SOL    HW241694  13.720   4.326   2.627
46619SOL     OW41695   6.922  12.578   8.632
46619SOL    HW141696   6.827  12.575   8.643
46619SOL    HW241697   6.957  12.546   8.715
46620SOL     OW41698   9.211   3.324   1.709
46620SOL    HW141699   9.166   3.318   1.793
46620SOL    HW241700   9.197   3.414   1.680
46621SOL     OW41701   9.764  10.513   7.494
46621SOL    HW141702   9.832  10.525   7.428
46621SOL    HW241703   9.775  10.587   7.553
46622SOL     OW41704  13.128   4.903  14.507
46622SOL    HW141705  13.087   4.989  14.512
46622SOL    HW241706  13.071   4.846  14.559
46623SOL     OW41707   3.461   1.423   2.710
46623SOL    HW141708   3.491   1.345   2.663
46623SOL    HW241709   3.398   1.390   2.774
46624SOL     OW41710   6.270   3.453   6.174
46624SOL    HW141711   6.194   3.506   6.151
46624SOL    HW241712   6.233   3.369   6.201
46625SOL     OW41713   7.625   9.300  14.528
46625SOL    HW141714   7.636   9.392  14.502
46625SOL    HW241715   7.639   9.251  14.447
46626SOL     OW41716   3.514   9.981  10.239
46626SOL    HW141717   3.471  10.061  10.208
46626SOL    HW241718   3.493   9.915  10.173
46627SOL     OW41719  10.205   2.907   9.971
46627SOL    HW141720  10.274   2.945   9.917
46627SOL    HW241721  10.127   2.959   9.952
46628SOL     OW41722   1.198   2.716  10.678
46628SOL    HW141723   1.261   2.782  10.648
46628SOL    HW241724   1.209   2.644  10.615
46629SOL     OW41725   8.920   6.983   3.640
46629SOL    HW141726   8.961   7.042   3.576
46629SOL    HW241727   8.992   6.955   3.696
46630SOL     OW41728   2.720   2.498  11.131
46630SOL    HW141729   2.680   2.473  11.048
46630SOL    HW241730   2.809   2.523  11.109
46631SOL     OW41731   6.880   5.190   0.477
46631SOL    HW141732   6.913   5.243   0.404
46631SOL    HW241733   6.957   5.170   0.529
46632SOL     OW41734  14.685  10.053   3.839
46632SOL    HW141735  14.777  10.048   3.866
46632SOL    HW241736  14.637  10.013   3.912
46633SOL     OW41737   5.573  13.743  10.695
46633SOL    HW141738   5.614  13.827  10.717
46633SOL    HW241739   5.479  13.762  10.694
46634SOL     OW41740   8.964   5.287   7.092
46634SOL    HW141741   9.017   5.359   7.055
46634SOL    HW241742   8.959   5.223   7.021
46635SOL     OW41743   9.207  11.255   1.879
46635SOL    HW141744   9.138  11.305   1.835
46635SOL    HW241745   9.258  11.217   1.808
46636SOL     OW41746   6.817  11.596  10.083
46636SOL    HW141747   6.799  11.568  10.173
46636SOL    HW241748   6.739  11.573  10.034
46637SOL     OW41749   1.204   5.321   5.682
46637SOL    HW141750   1.252   5.344   5.602
46637SOL    HW241751   1.272   5.320   5.750
46638SOL     OW41752  10.356   3.215   0.048
46638SOL    HW141753  10.428   3.187  14.873
46638SOL    HW241754  10.324   3.134   0.088
46639SOL     OW41755   9.416   8.919  12.243
46639SOL    HW141756   9.357   8.928  12.318
46639SOL    HW241757   9.382   8.843  12.195
46640SOL     OW41758  10.287  12.501   6.248
46640SOL    HW141759  10.342  12.449   6.190
46640SOL    HW241760  10.342  12.520   6.324
46641SOL     OW41761  11.197   0.713   1.476
46641SOL    HW141762  11.239   0.653   1.414
46641SOL    HW241763  11.127   0.754   1.426
46642SOL     OW41764   5.612  11.053   0.244
46642SOL    HW141765   5.650  11.054   0.156
46642SOL    HW241766   5.686  11.044   0.303
46643SOL     OW41767  10.584   7.944   9.717
46643SOL    HW141768  10.508   7.993   9.685
46643SOL    HW241769  10.658   8.003   9.705
46644SOL     OW41770   8.151   7.100   9.684
46644SOL    HW141771   8.206   7.025   9.662
46644SOL    HW241772   8.151   7.102   9.780
46645SOL     OW41773  13.314   9.112  13.190
46645SOL    HW141774  13.376   9.179  13.160
46645SOL    HW241775  13.358   9.029  13.172
46646SOL     OW41776  11.165  12.898   0.376
46646SOL    HW141777  11.116  12.870   0.299
46646SOL    HW241778  11.099  12.937   0.434
46647SOL     OW41779   1.162   1.544   2.913
46647SOL    HW141780   1.071   1.574   2.917
46647SOL    HW241781   1.199   1.566   2.999
46648SOL     OW41782  14.752   3.786  13.603
46648SOL    HW141783  14.662   3.754  13.607
46648SOL    HW241784  14.805   3.706  13.603
46649SOL     OW41785   4.823   9.228   9.774
46649SOL    HW141786   4.848   9.286   9.847
46649SOL    HW241787   4.864   9.267   9.698
46650SOL     OW41788   4.433  10.443   3.029
46650SOL    HW141789   4.422  10.363   2.977
46650SOL    HW241790   4.376  10.507   2.986
46651SOL     OW41791   2.438   4.720   9.242
46651SOL    HW141792   2.360   4.744   9.194
46651SOL    HW241793   2.469   4.802   9.281
46652SOL     OW41794  11.619   7.812   6.603
46652SOL    HW141795  11.549   7.777   6.548
46652SOL    HW241796  11.574   7.853   6.677
46653SOL     OW41797  14.803   5.477  13.638
46653SOL    HW141798  14.797   5.382  13.631
46653SOL    HW241799  14.870   5.503  13.574
46654SOL     OW41800   2.190   9.898  11.155
46654SOL    HW141801   2.210   9.812  11.193
46654SOL    HW241802   2.195   9.958  11.229
46655SOL     OW41803   1.779   7.621  13.939
46655SOL    HW141804   1.728   7.628  14.020
46655SOL    HW241805   1.866   7.594  13.968
46656SOL     OW41806   1.717   8.606  11.836
46656SOL    HW141807   1.623   8.614  11.854
46656SOL    HW241808   1.748   8.538  11.895
46657SOL     OW41809   7.648   1.557  11.325
46657SOL    HW141810   7.587   1.594  11.262
46657SOL    HW241811   7.735   1.580  11.292
46658SOL     OW41812   5.123   0.698   2.180
46658SOL    HW141813   5.162   0.616   2.150
46658SOL    HW241814   5.196   0.760   2.181
46659SOL     OW41815   8.826   1.283   0.623
46659SOL    HW141816   8.872   1.366   0.632
46659SOL    HW241817   8.826   1.266   0.528
46660SOL     OW41818  11.383  10.310   3.609
46660SOL    HW141819  11.440  10.367   3.661
46660SOL    HW241820  11.405  10.222   3.637
46661SOL     OW41821  11.056  10.651  14.268
46661SOL    HW141822  11.101  10.626  14.348
46661SOL    HW241823  10.981  10.702  14.298
46662SOL     OW41824   2.179  12.186  11.772
46662SOL    HW141825   2.140  12.261  11.729
46662SOL    HW241826   2.272  12.210  11.781
46663SOL     OW41827  11.062   3.806   7.487
46663SOL    HW141828  10.995   3.823   7.421
46663SOL    HW241829  11.013   3.803   7.570
46664SOL     OW41830  13.044  10.307  11.003
46664SOL    HW141831  13.028  10.299  10.909
46664SOL    HW241832  13.132  10.344  11.009
46665SOL     OW41833   1.343  14.152   0.625
46665SOL    HW141834   1.373  14.187   0.709
46665SOL    HW241835   1.422  14.147   0.571
46666SOL     OW41836   2.479   5.957   8.002
46666SOL    HW141837   2.530   6.035   7.980
46666SOL    HW241838   2.520   5.923   8.081
46667SOL     OW41839  10.852  13.178   5.706
46667SOL    HW141840  10.818  13.210   5.623
46667SOL    HW241841  10.881  13.089   5.688
46668SOL     OW41842   2.788  13.498   8.556
46668SOL    HW141843   2.876  13.463   8.545
46668SOL    HW241844   2.789  13.580   8.506
46669SOL     OW41845   7.012   2.065  13.765
46669SOL    HW141846   7.084   2.077  13.827
46669SOL    HW241847   7.055   2.038  13.684
46670SOL     OW41848   2.108   4.553  14.815
46670SOL    HW141849   2.029   4.511  14.781
46670SOL    HW241850   2.110   4.639  14.772
46671SOL     OW41851  11.975   1.169   8.920
46671SOL    HW141852  12.050   1.110   8.930
46671SOL    HW241853  11.965   1.210   9.006
46672SOL     OW41854  12.423   9.114   2.657
46672SOL    HW141855  12.332   9.120   2.687
46672SOL    HW241856  12.457   9.035   2.698
46673SOL     OW41857   7.062  10.581  13.210
46673SOL    HW141858   7.117  10.503  13.204
46673SOL    HW241859   7.119  10.647  13.249
46674SOL     OW41860   2.913   8.288   7.888
46674SOL    HW141861   2.892   8.369   7.934
46674SOL    HW241862   3.009   8.284   7.889
46675SOL     OW41863   2.642   1.817   0.269
46675SOL    HW141864   2.668   1.798   0.359
46675SOL    HW241865   2.590   1.897   0.275
46676SOL     OW41866  11.833   6.057  11.138
46676SOL    HW141867  11.855   6.114  11.211
46676SOL    HW241868  11.747   6.021  11.161
46677SOL     OW41869   3.600  14.334   7.532
46677SOL    HW141870   3.579  14.302   7.444
46677SOL    HW241871   3.566  14.266   7.591
46678SOL     OW41872  11.498   4.380   7.265
46678SOL    HW141873  11.503   4.409   7.356
46678SOL    HW241874  11.530   4.289   7.267
46679SOL     OW41875   8.733  12.725   2.641
46679SOL    HW141876   8.682  12.805   2.633
46679SOL    HW241877   8.803  12.735   2.576
46680SOL     OW41878   6.351   2.427  13.900
46680SOL    HW141879   6.437   2.389  13.918
46680SOL    HW241880   6.370   2.504  13.846
46681SOL     OW41881   8.340   6.274  13.785
46681SOL    HW141882   8.344   6.355  13.835
46681SOL    HW241883   8.252   6.239  13.802
46682SOL     OW41884   3.895  10.575   7.756
46682SOL    HW141885   3.876  10.484   7.732
46682SOL    HW241886   3.828  10.597   7.821
46683SOL     OW41887  12.652   5.073  12.559
46683SOL    HW141888  12.566   5.109  12.582
46683SOL    HW241889  12.714   5.130  12.603
46684SOL     OW41890   5.806   4.698   9.237
46684SOL    HW141891   5.721   4.733   9.210
46684SOL    HW241892   5.787   4.640   9.310
46685SOL     OW41893   4.623   7.697   5.786
46685SOL    HW141894   4.610   7.791   5.799
46685SOL    HW241895   4.594   7.657   5.868
46686SOL     OW41896   2.759   3.391  13.660
46686SOL    HW141897   2.678   3.420  13.619
46686SOL    HW241898   2.827   3.407  13.594
46687SOL     OW41899  14.878   8.681   5.715
46687SOL    HW141900   0.075   8.636   5.684
46687SOL    HW241901   0.020   8.773   5.720
46688SOL     OW41902  10.099   8.536   3.651
46688SOL    HW141903  10.121   8.599   3.583
46688SOL    HW241904  10.020   8.492   3.619
46689SOL     OW41905  13.190  10.456  10.605
46689SOL    HW141906  13.232  10.541  10.592
46689SOL    HW241907  13.169  10.426  10.516
46690SOL     OW41908   6.441  14.083   3.528
46690SOL    HW141909   6.368  14.104   3.470
46690SOL    HW241910   6.407  14.100   3.616
46691SOL     OW41911  10.028   9.999   6.803
46691SOL    HW141912   9.956   9.990   6.740
46691SOL    HW241913   9.991   9.968   6.885
46692SOL     OW41914  11.455   6.253   0.874
46692SOL    HW141915  11.487   6.164   0.890
46692SOL    HW241916  11.390   6.268   0.943
46693SOL     OW41917   6.845  14.195  12.470
46693SOL    HW141918   6.918  14.138  12.446
46693SOL    HW241919   6.847  14.264  12.404
46694SOL     OW41920  14.065  13.849   9.899
46694SOL    HW141921  14.152  13.864   9.861
46694SOL    HW241922  14.079  13.856   9.994
46695SOL     OW41923   9.965   8.169  14.381
46695SOL    HW141924   9.886   8.200  14.425
46695SOL    HW241925  10.022   8.246  14.376
46696SOL     OW41926  12.026   5.786   9.611
46696SOL    HW141927  12.037   5.706   9.662
46696SOL    HW241928  12.093   5.845   9.644
46697SOL     OW41929   5.404   5.112   3.417
46697SOL    HW141930   5.432   5.143   3.331
46697SOL    HW241931   5.366   5.189   3.460
46698SOL     OW41932   1.623  12.049  11.890
46698SOL    HW141933   1.695  12.047  11.827
46698SOL    HW241934   1.582  12.135  11.876
46699SOL     OW41935   7.120   5.803   0.858
46699SOL    HW141936   7.061   5.821   0.931
46699SOL    HW241937   7.064   5.806   0.780
46700SOL     OW41938   7.810  12.394   1.670
46700SOL    HW141939   7.767  12.437   1.597
46700SOL    HW241940   7.748  12.401   1.743
46701SOL     OW41941  11.319   4.327   2.932
46701SOL    HW141942  11.359   4.298   3.014
46701SOL    HW241943  11.391   4.365   2.882
46702SOL     OW41944  13.577  13.267  11.475
46702SOL    HW141945  13.547  13.233  11.391
46702SOL    HW241946  13.541  13.207  11.540
46703SOL     OW41947   0.761  12.884   8.236
46703SOL    HW141948   0.804  12.799   8.249
46703SOL    HW241949   0.724  12.879   8.148
46704SOL     OW41950  12.217   7.259   7.188
46704SOL    HW141951  12.185   7.175   7.155
46704SOL    HW241952  12.291   7.280   7.131
46705SOL     OW41953  14.671   9.064  11.375
46705SOL    HW141954  14.752   9.110  11.352
46705SOL    HW241955  14.616   9.074  11.297
46706SOL     OW41956  11.337  10.639   5.710
46706SOL    HW141957  11.308  10.685   5.632
46706SOL    HW241958  11.272  10.570   5.722
46707SOL     OW41959   6.068   3.120  12.163
46707SOL    HW141960   6.004   3.063  12.121
46707SOL    HW241961   6.112   3.163  12.090
46708SOL     OW41962   7.061   8.480   2.125
46708SOL    HW141963   6.971   8.510   2.136
46708SOL    HW241964   7.099   8.487   2.213
46709SOL     OW41965  13.295   7.043   2.339
46709SOL    HW141966  13.341   6.992   2.406
46709SOL    HW241967  13.271   6.979   2.272
46710SOL     OW41968   9.214   5.578  11.752
46710SOL    HW141969   9.217   5.529  11.670
46710SOL    HW241970   9.292   5.633  11.750
46711SOL     OW41971   5.756   2.572   9.138
46711SOL    HW141972   5.725   2.532   9.219
46711SOL    HW241973   5.677   2.588   9.087
46712SOL     OW41974   9.272   5.767  12.030
46712SOL    HW141975   9.333   5.753  11.958
46712SOL    HW241976   9.288   5.857  12.057
46713SOL     OW41977  12.996  12.218   2.778
46713SOL    HW141978  13.006  12.227   2.683
46713SOL    HW241979  13.001  12.308   2.811
46714SOL     OW41980  14.494  10.174   8.681
46714SOL    HW141981  14.486  10.268   8.691
46714SOL    HW241982  14.415  10.148   8.633
46715SOL     OW41983   5.835   4.561   2.423
46715SOL    HW141984   5.903   4.505   2.385
46715SOL    HW241985   5.754   4.532   2.382
46716SOL     OW41986   8.332   3.919   7.983
46716SOL    HW141987   8.292   3.981   8.044
46716SOL    HW241988   8.414   3.961   7.957
46717SOL     OW41989  14.272  10.027  10.068
46717SOL    HW141990  14.263  10.020   9.972
46717SOL    HW241991  14.312   9.944  10.094
46718SOL     OW41992   3.914   7.763   0.643
46718SOL    HW141993   3.996   7.810   0.659
46718SOL    HW241994   3.865   7.770   0.725
46719SOL     OW41995   9.013   4.787   7.130
46719SOL    HW141996   9.104   4.805   7.152
46719SOL    HW241997   9.011   4.785   7.034
46720SOL     OW41998   8.887   6.283   3.610
46720SOL    HW141999   8.967   6.258   3.656
46720SOL    HW242000   8.820   6.287   3.679
46721SOL     OW42001   7.655   6.206  13.683
46721SOL    HW142002   7.644   6.281  13.625
46721SOL    HW242003   7.575   6.155  13.671
46722SOL     OW42004   8.376   5.974   8.206
46722SOL    HW142005   8.349   6.037   8.139
46722SOL    HW242006   8.441   6.022   8.258
46723SOL     OW42007   5.902  14.851  12.069
46723SOL    HW142008   5.878  14.759  12.083
46723SOL    HW242009   5.995  14.855  12.091
46724SOL     OW42010   1.235  14.542  13.419
46724SOL    HW142011   1.210  14.566  13.508
46724SOL    HW242012   1.328  14.520  13.425
46725SOL     OW42013   8.701   4.652   6.119
46725SOL    HW142014   8.687   4.710   6.193
46725SOL    HW242015   8.617   4.650   6.074
46726SOL     OW42016  14.518   5.013   3.850
46726SOL    HW142017  14.454   5.078   3.822
46726SOL    HW242018  14.603   5.054   3.834
46727SOL     OW42019   8.336   3.618   8.106
46727SOL    HW142020   8.261   3.677   8.101
46727SOL    HW242021   8.413   3.675   8.096
46728SOL     OW42022  12.758  14.704   1.703
46728SOL    HW142023  12.744  14.797   1.685
46728SOL    HW242024  12.774  14.665   1.616
46729SOL     OW42025   1.493   5.063   3.220
46729SOL    HW142026   1.430   5.108   3.164
46729SOL    HW242027   1.453   5.067   3.307
46730SOL     OW42028   2.330   3.407   0.865
46730SOL    HW142029   2.301   3.330   0.912
46730SOL    HW242030   2.266   3.475   0.887
46731SOL     OW42031   0.550   6.030   9.711
46731SOL    HW142032   0.503   5.983   9.780
46731SOL    HW242033   0.642   6.023   9.736
46732SOL     OW42034   4.096   3.529  13.081
46732SOL    HW142035   4.085   3.618  13.048
46732SOL    HW242036   4.190   3.520  13.097
46733SOL     OW42037   0.156  10.156  11.818
46733SOL    HW142038   0.096  10.159  11.893
46733SOL    HW242039   0.126  10.082  11.766
46734SOL     OW42040   1.426  12.320   8.780
46734SOL    HW142041   1.425  12.392   8.844
46734SOL    HW242042   1.447  12.242   8.832
46735SOL     OW42043   4.797  14.188   3.026
46735SOL    HW142044   4.715  14.189   2.976
46735SOL    HW242045   4.860  14.147   2.966
46736SOL     OW42046   9.384  10.080  11.499
46736SOL    HW142047   9.379  10.126  11.416
46736SOL    HW242048   9.344  10.139  11.563
46737SOL     OW42049   7.168  12.808   8.813
46737SOL    HW142050   7.082  12.846   8.797
46737SOL    HW242051   7.204  12.860   8.885
46738SOL     OW42052   9.798   0.505   9.241
46738SOL    HW142053   9.769   0.595   9.226
46738SOL    HW242054   9.751   0.478   9.320
46739SOL     OW42055  12.729  11.777  13.305
46739SOL    HW142056  12.797  11.809  13.364
46739SOL    HW242057  12.755  11.686  13.286
46740SOL     OW42058  12.744   9.149   1.438
46740SOL    HW142059  12.661   9.190   1.414
46740SOL    HW242060  12.768   9.191   1.520
46741SOL     OW42061  12.057  10.028  14.081
46741SOL    HW142062  12.060  10.043  14.176
46741SOL    HW242063  12.056   9.933  14.071
46742SOL     OW42064  12.274   0.731  10.009
46742SOL    HW142065  12.318   0.657   9.967
46742SOL    HW242066  12.212   0.763   9.943
46743SOL     OW42067   5.877   6.560  12.098
46743SOL    HW142068   5.852   6.638  12.047
46743SOL    HW242069   5.957   6.529  12.056
46744SOL     OW42070  10.172  10.662  12.886
46744SOL    HW142071  10.206  10.749  12.866
46744SOL    HW242072  10.139  10.669  12.975
46745SOL     OW42073   7.493  10.423  10.494
46745SOL    HW142074   7.548  10.346  10.510
46745SOL    HW242075   7.405  10.396  10.523
46746SOL     OW42076  11.131   8.626   1.967
46746SOL    HW142077  11.043   8.593   1.984
46746SOL    HW242078  11.188   8.572   2.021
46747SOL     OW42079   7.088  11.847   5.618
46747SOL    HW142080   7.182  11.845   5.601
46747SOL    HW242081   7.080  11.858   5.712
46748SOL     OW42082  14.836   8.903   3.200
46748SOL    HW142083   0.003   8.841   3.146
46748SOL    HW242084  14.840   8.867   3.288
46749SOL     OW42085   5.955   7.103  12.506
46749SOL    HW142086   5.995   7.150  12.579
46749SOL    HW242087   5.909   7.030  12.546
46750SOL     OW42088   6.241   7.366   6.521
46750SOL    HW142089   6.217   7.281   6.557
46750SOL    HW242090   6.165   7.393   6.469
46751SOL     OW42091   0.980   8.629   0.620
46751SOL    HW142092   0.995   8.641   0.527
46751SOL    HW242093   1.022   8.546   0.642
46752SOL     OW42094  13.995   5.048   0.043
46752SOL    HW142095  13.901   5.058   0.058
46752SOL    HW242096  14.002   5.025  14.832
46753SOL     OW42097   0.121  10.990   8.260
46753SOL    HW142098   0.164  10.912   8.293
46753SOL    HW242099   0.145  11.059   8.323
46754SOL     OW42100   6.726   6.226  12.423
46754SOL    HW142101   6.663   6.276  12.371
46754SOL    HW242102   6.811   6.265  12.402
46755SOL     OW42103   9.573   5.995   3.563
46755SOL    HW142104   9.660   6.010   3.527
46755SOL    HW242105   9.515   5.991   3.487
46756SOL     OW42106  10.864  11.062   3.722
46756SOL    HW142107  10.780  11.100   3.749
46756SOL    HW242108  10.840  10.985   3.670
46757SOL     OW42109   9.403   0.502  11.986
46757SOL    HW142110   9.389   0.597  11.997
46757SOL    HW242111   9.490   0.487  12.022
46758SOL     OW42112  14.373   4.468  10.538
46758SOL    HW142113  14.411   4.556  10.539
46758SOL    HW242114  14.291   4.475  10.587
46759SOL     OW42115   4.400   6.508   2.732
46759SOL    HW142116   4.424   6.506   2.640
46759SOL    HW242117   4.394   6.416   2.758
46760SOL     OW42118   8.610   4.420   1.281
46760SOL    HW142119   8.569   4.346   1.236
46760SOL    HW242120   8.537   4.476   1.306
46761SOL     OW42121   0.039  10.027  10.436
46761SOL    HW142122  14.879  10.070  10.361
46761SOL    HW242123   0.132  10.029  10.415
46762SOL     OW42124   4.495   8.840   6.517
46762SOL    HW142125   4.465   8.815   6.430
46762SOL    HW242126   4.476   8.764   6.572
46763SOL     OW42127   1.643   0.120   9.935
46763SOL    HW142128   1.558   0.145   9.971
46763SOL    HW242129   1.665   0.190   9.873
46764SOL     OW42130   6.078   2.039   5.639
46764SOL    HW142131   6.170   2.058   5.660
46764SOL    HW242132   6.073   2.049   5.544
46765SOL     OW42133  12.871  10.856   1.344
46765SOL    HW142134  12.887  10.812   1.428
46765SOL    HW242135  12.958  10.864   1.305
46766SOL     OW42136   3.346   5.714  10.460
46766SOL    HW142137   3.406   5.701  10.534
46766SOL    HW242138   3.307   5.800  10.475
46767SOL     OW42139   7.545  12.592  11.583
46767SOL    HW142140   7.507  12.674  11.550
46767SOL    HW242141   7.637  12.612  11.596
46768SOL     OW42142   9.471   3.341  10.614
46768SOL    HW142143   9.538   3.307  10.672
46768SOL    HW242144   9.504   3.426  10.586
46769SOL     OW42145  11.065   9.279   1.838
46769SOL    HW142146  11.145   9.233   1.811
46769SOL    HW242147  11.081   9.303   1.929
46770SOL     OW42148  14.810   9.697   9.820
46770SOL    HW142149  14.749   9.678   9.749
46770SOL    HW242150  14.862   9.618   9.829
46771SOL     OW42151  13.660   9.934   1.697
46771SOL    HW142152  13.574   9.918   1.736
46771SOL    HW242153  13.722   9.894   1.758
46772SOL     OW42154  11.270  14.144   5.932
46772SOL    HW142155  11.302  14.234   5.926
46772SOL    HW242156  11.199  14.140   5.867
46773SOL     OW42157   9.774   8.387   5.582
46773SOL    HW142158   9.867   8.411   5.584
46773SOL    HW242159   9.774   8.295   5.553
46774SOL     OW42160  12.740  11.718  12.678
46774SOL    HW142161  12.729  11.633  12.635
46774SOL    HW242162  12.800  11.766  12.622
46775SOL     OW42163   2.369   0.046   8.219
46775SOL    HW142164   2.275   0.032   8.234
46775SOL    HW242165   2.385   0.136   8.245
46776SOL     OW42166  14.680   3.754  12.419
46776SOL    HW142167  14.692   3.791  12.506
46776SOL    HW242168  14.681   3.659  12.432
46777SOL     OW42169   5.539   4.873   2.713
46777SOL    HW142170   5.609   4.937   2.701
46777SOL    HW242171   5.584   4.789   2.717
46778SOL     OW42172   5.859   8.325  14.522
46778SOL    HW142173   5.950   8.308  14.548
46778SOL    HW242174   5.809   8.311  14.602
46779SOL     OW42175   3.382  13.949   1.110
46779SOL    HW142176   3.477  13.941   1.115
46779SOL    HW242177   3.353  13.943   1.201
46780SOL     OW42178   9.223   7.308   0.959
46780SOL    HW142179   9.220   7.396   0.998
46780SOL    HW242180   9.271   7.256   1.023
46781SOL     OW42181  11.651   5.864  13.752
46781SOL    HW142182  11.649   5.771  13.777
46781SOL    HW242183  11.740   5.892  13.771
46782SOL     OW42184   9.378   5.718   6.730
46782SOL    HW142185   9.403   5.638   6.683
46782SOL    HW242186   9.460   5.750   6.769
46783SOL     OW42187   2.953  11.774   3.513
46783SOL    HW142188   2.880  11.817   3.559
46783SOL    HW242189   2.933  11.787   3.420
46784SOL     OW42190   4.429   6.315   5.374
46784SOL    HW142191   4.426   6.224   5.345
46784SOL    HW242192   4.431   6.366   5.293
46785SOL     OW42193   5.159  13.780   6.152
46785SOL    HW142194   5.096  13.727   6.103
46785SOL    HW242195   5.116  13.798   6.235
46786SOL     OW42196  10.994   9.032   5.940
46786SOL    HW142197  10.972   9.107   5.995
46786SOL    HW242198  10.913   8.981   5.936
46787SOL     OW42199   5.457   0.640  11.520
46787SOL    HW142200   5.429   0.552  11.497
46787SOL    HW242201   5.381   0.695  11.501
46788SOL     OW42202  14.831   6.598   1.652
46788SOL    HW142203   0.036   6.580   1.689
46788SOL    HW242204  14.814   6.690   1.673
46789SOL     OW42205  12.334   1.219   3.158
46789SOL    HW142206  12.317   1.305   3.121
46789SOL    HW242207  12.290   1.158   3.099
46790SOL     OW42208   1.701   3.894   1.112
46790SOL    HW142209   1.736   3.982   1.127
46790SOL    HW242210   1.771   3.835   1.140
46791SOL     OW42211   7.436  10.255   5.303
46791SOL    HW142212   7.517  10.288   5.265
46791SOL    HW242213   7.462  10.176   5.351
46792SOL     OW42214   4.180   0.504   7.483
46792SOL    HW142215   4.231   0.476   7.559
46792SOL    HW242216   4.227   0.465   7.408
46793SOL     OW42217   7.068   7.065  10.045
46793SOL    HW142218   7.063   7.127  10.118
46793SOL    HW242219   7.079   7.119   9.967
46794SOL     OW42220  11.674   4.312   0.529
46794SOL    HW142221  11.631   4.343   0.450
46794SOL    HW242222  11.610   4.329   0.599
46795SOL     OW42223   6.373   8.861  11.854
46795SOL    HW142224   6.322   8.791  11.815
46795SOL    HW242225   6.409   8.823  11.934
46796SOL     OW42226   0.027   4.238   0.277
46796SOL    HW142227   0.043   4.146   0.299
46796SOL    HW242228   0.044   4.243   0.183
46797SOL     OW42229   4.178   0.489   0.511
46797SOL    HW142230   4.174   0.579   0.542
46797SOL    HW242231   4.107   0.445   0.559
46798SOL     OW42232  10.108   9.403  13.023
46798SOL    HW142233  10.041   9.391  13.091
46798SOL    HW242234  10.153   9.484  13.048
46799SOL     OW42235   8.462   1.334   5.102
46799SOL    HW142236   8.494   1.317   5.191
46799SOL    HW242237   8.538   1.370   5.056
46800SOL     OW42238  12.557   2.083  10.644
46800SOL    HW142239  12.561   2.172  10.608
46800SOL    HW242240  12.543   2.027  10.568
46801SOL     OW42241   6.184  10.070   6.250
46801SOL    HW142242   6.153   9.981   6.234
46801SOL    HW242243   6.279  10.063   6.254
46802SOL     OW42244   9.023   3.166   5.134
46802SOL    HW142245   9.080   3.243   5.130
46802SOL    HW242246   9.076   3.100   5.179
46803SOL     OW42247  13.762   9.096   0.883
46803SOL    HW142248  13.788   9.017   0.836
46803SOL    HW242249  13.787   9.168   0.825
46804SOL     OW42250   5.029  11.079   8.749
46804SOL    HW142251   5.060  11.026   8.823
46804SOL    HW242252   4.975  11.148   8.790
46805SOL     OW42253   8.696   7.151   3.287
46805SOL    HW142254   8.752   7.226   3.307
46805SOL    HW242255   8.737   7.110   3.210
46806SOL     OW42256   5.695   2.380   4.538
46806SOL    HW142257   5.633   2.315   4.571
46806SOL    HW242258   5.729   2.340   4.458
46807SOL     OW42259  10.151  14.212   6.975
46807SOL    HW142260  10.133  14.127   7.015
46807SOL    HW242261  10.193  14.263   7.044
46808SOL     OW42262   9.827  13.289  14.696
46808SOL    HW142263   9.822  13.344  14.774
46808SOL    HW242264   9.794  13.344  14.626
46809SOL     OW42265   3.302  11.900  12.934
46809SOL    HW142266   3.313  11.806  12.919
46809SOL    HW242267   3.391  11.934  12.941
46810SOL     OW42268   6.862   9.163  11.508
46810SOL    HW142269   6.805   9.239  11.498
46810SOL    HW242270   6.901   9.173  11.594
46811SOL     OW42271   6.404   0.974   3.646
46811SOL    HW142272   6.371   1.037   3.582
46811SOL    HW242273   6.437   0.901   3.594
46812SOL     OW42274   7.110   5.770  13.140
46812SOL    HW142275   7.201   5.798  13.130
46812SOL    HW242276   7.086   5.797  13.229
46813SOL     OW42277   8.571  14.634  10.995
46813SOL    HW142278   8.596  14.686  10.918
46813SOL    HW242279   8.651  14.585  11.018
46814SOL     OW42280   8.771  11.977   4.161
46814SOL    HW142281   8.710  11.947   4.094
46814SOL    HW242282   8.818  11.898   4.189
46815SOL     OW42283  13.465  12.572   9.184
46815SOL    HW142284  13.513  12.630   9.243
46815SOL    HW242285  13.403  12.526   9.241
46816SOL     OW42286   6.725   6.293   9.293
46816SOL    HW142287   6.703   6.371   9.242
46816SOL    HW242288   6.818   6.279   9.278
46817SOL     OW42289   4.765   9.707   8.990
46817SOL    HW142290   4.772   9.653   8.911
46817SOL    HW242291   4.852   9.744   9.000
46818SOL     OW42292  13.879   1.605  12.933
46818SOL    HW142293  13.863   1.632  13.023
46818SOL    HW242294  13.848   1.679  12.880
46819SOL     OW42295   0.710   4.414  13.533
46819SOL    HW142296   0.758   4.374  13.460
46819SOL    HW242297   0.771   4.479  13.568
46820SOL     OW42298   2.201  10.540   0.582
46820SOL    HW142299   2.206  10.636   0.582
46820SOL    HW242300   2.292  10.511   0.585
46821SOL     OW42301   4.152   4.495   7.942
46821SOL    HW142302   4.075   4.536   7.982
46821SOL    HW242303   4.119   4.413   7.906
46822SOL     OW42304  10.034  11.678  10.623
46822SOL    HW142305  10.036  11.585  10.602
46822SOL    HW242306  10.019  11.722  10.539
46823SOL     OW42307   7.876  14.627   7.956
46823SOL    HW142308   7.828  14.559   7.907
46823SOL    HW242309   7.869  14.705   7.901
46824SOL     OW42310   1.239   5.739   6.491
46824SOL    HW142311   1.201   5.721   6.577
46824SOL    HW242312   1.280   5.825   6.501
46825SOL     OW42313   7.237  14.647  12.395
46825SOL    HW142314   7.228  14.741  12.404
46825SOL    HW242315   7.291  14.621  12.469
46826SOL     OW42316  13.385   8.573   8.638
46826SOL    HW142317  13.425   8.499   8.683
46826SOL    HW242318  13.442   8.589   8.563
46827SOL     OW42319  14.342  14.521   6.457
46827SOL    HW142320  14.383  14.600   6.422
46827SOL    HW242321  14.398  14.496   6.531
46828SOL     OW42322   7.467  10.843   2.929
46828SOL    HW142323   7.414  10.867   2.853
46828SOL    HW242324   7.557  10.851   2.899
46829SOL     OW42325   0.672   9.997   6.062
46829SOL    HW142326   0.724   9.949   5.998
46829SOL    HW242327   0.586  10.007   6.020
46830SOL     OW42328   6.877   5.451  14.556
46830SOL    HW142329   6.795   5.455  14.603
46830SOL    HW242330   6.851   5.440  14.464
46831SOL     OW42331   9.706   9.043   9.909
46831SOL    HW142332   9.762   9.071   9.837
46831SOL    HW242333   9.717   8.948   9.914
46832SOL     OW42334   3.835   4.370   1.226
46832SOL    HW142335   3.871   4.281   1.222
46832SOL    HW242336   3.759   4.363   1.283
46833SOL     OW42337  14.057  10.703   6.249
46833SOL    HW142338  13.990  10.635   6.240
46833SOL    HW242339  14.030  10.752   6.326
46834SOL     OW42340   6.410  12.040   3.513
46834SOL    HW142341   6.432  12.029   3.421
46834SOL    HW242342   6.448  12.125   3.537
46835SOL     OW42343   0.822   1.423   2.787
46835SOL    HW142344   0.896   1.378   2.746
46835SOL    HW242345   0.858   1.506   2.817
46836SOL     OW42346   1.880  12.352  12.310
46836SOL    HW142347   1.848  12.359  12.220
46836SOL    HW242348   1.926  12.268  12.313
46837SOL     OW42349  11.167   9.704  14.307
46837SOL    HW142350  11.144   9.703  14.400
46837SOL    HW242351  11.143   9.617  14.275
46838SOL     OW42352  12.541   9.611  14.325
46838SOL    HW142353  12.567   9.568  14.407
46838SOL    HW242354  12.462   9.564  14.298
46839SOL     OW42355   4.938  12.733  14.351
46839SOL    HW142356   4.957  12.731  14.257
46839SOL    HW242357   4.854  12.688  14.359
46840SOL     OW42358  10.582   3.403  14.576
46840SOL    HW142359  10.607   3.405  14.483
46840SOL    HW242360  10.492   3.438  14.577
46841SOL     OW42361  14.537   4.288  13.197
46841SOL    HW142362  14.632   4.294  13.204
46841SOL    HW242363  14.505   4.314  13.283
46842SOL     OW42364   5.251   0.788  11.407
46842SOL    HW142365   5.285   0.764  11.321
46842SOL    HW242366   5.301   0.866  11.433
46843SOL     OW42367   2.990   9.207   8.682
46843SOL    HW142368   3.074   9.172   8.652
46843SOL    HW242369   3.004   9.227   8.775
46844SOL     OW42370   9.855  12.365   7.127
46844SOL    HW142371   9.907  12.287   7.149
46844SOL    HW242372   9.865  12.374   7.033
46845SOL     OW42373   9.537   0.523   5.509
46845SOL    HW142374   9.536   0.486   5.597
46845SOL    HW242375   9.499   0.611   5.519
46846SOL     OW42376   5.888   7.931   4.586
46846SOL    HW142377   5.924   8.019   4.601
46846SOL    HW242378   5.896   7.888   4.671
46847SOL     OW42379  12.208   1.617  10.991
46847SOL    HW142380  12.121   1.655  11.007
46847SOL    HW242381  12.227   1.638  10.900
46848SOL     OW42382   0.622   2.643   3.751
46848SOL    HW142383   0.542   2.606   3.715
46848SOL    HW242384   0.641   2.719   3.695
46849SOL     OW42385   4.872   1.647  14.081
46849SOL    HW142386   4.781   1.677  14.074
46849SOL    HW242387   4.866   1.561  14.122
46850SOL     OW42388   5.679   9.618   2.104
46850SOL    HW142389   5.601   9.636   2.051
46850SOL    HW242390   5.701   9.527   2.084
46851SOL     OW42391  11.038  13.466  13.027
46851SOL    HW142392  11.030  13.462  12.932
46851SOL    HW242393  11.110  13.407  13.049
46852SOL     OW42394  14.468  14.752   9.181
46852SOL    HW142395  14.432  14.677   9.134
46852SOL    HW242396  14.395  14.814   9.186
46853SOL     OW42397   3.455   5.295  11.450
46853SOL    HW142398   3.446   5.263  11.540
46853SOL    HW242399   3.511   5.372  11.457
46854SOL     OW42400   3.004  12.876  11.841
46854SOL    HW142401   3.040  12.904  11.925
46854SOL    HW242402   3.032  12.785  11.832
46855SOL     OW42403   0.781   1.057   0.638
46855SOL    HW142404   0.829   1.139   0.651
46855SOL    HW242405   0.689   1.082   0.645
46856SOL     OW42406  10.234   4.739  10.287
46856SOL    HW142407  10.233   4.807  10.354
46856SOL    HW242408  10.233   4.656  10.336
46857SOL     OW42409   8.773  10.625  12.899
46857SOL    HW142410   8.703  10.685  12.872
46857SOL    HW242411   8.854  10.672  12.879
46858SOL     OW42412   0.001  12.247   6.846
46858SOL    HW142413   0.078  12.190   6.836
46858SOL    HW242414  14.846  12.252   6.758
46859SOL     OW42415   6.124  11.028   0.414
46859SOL    HW142416   6.127  11.003   0.322
46859SOL    HW242417   6.067  11.105   0.416
46860SOL     OW42418  11.438  11.666  14.688
46860SOL    HW142419  11.455  11.760  14.672
46860SOL    HW242420  11.464  11.652  14.779
46861SOL     OW42421  11.490   5.066   8.237
46861SOL    HW142422  11.424   5.135   8.247
46861SOL    HW242423  11.439   4.985   8.237
46862SOL     OW42424   9.904   7.980   1.823
46862SOL    HW142425   9.843   8.011   1.755
46862SOL    HW242426   9.855   7.915   1.872
46863SOL     OW42427  14.276   4.593   4.969
46863SOL    HW142428  14.187   4.589   5.004
46863SOL    HW242429  14.294   4.505   4.938
46864SOL     OW42430  10.685   1.301  12.042
46864SOL    HW142431  10.685   1.206  12.055
46864SOL    HW242432  10.660   1.313  11.951
46865SOL     OW42433   6.757   3.507  13.245
46865SOL    HW142434   6.764   3.577  13.310
46865SOL    HW242435   6.809   3.538  13.171
46866SOL     OW42436  10.814   1.829   8.836
46866SOL    HW142437  10.718   1.826   8.837
46866SOL    HW242438  10.835   1.906   8.783
46867SOL     OW42439   4.130  10.132   5.961
46867SOL    HW142440   4.058  10.078   5.928
46867SOL    HW242441   4.185  10.072   6.012
46868SOL     OW42442  10.474   0.659   4.904
46868SOL    HW142443  10.395   0.700   4.868
46868SOL    HW242444  10.519   0.730   4.951
46869SOL     OW42445   4.735   4.385   0.528
46869SOL    HW142446   4.797   4.374   0.456
46869SOL    HW242447   4.754   4.312   0.587
46870SOL     OW42448   3.379   0.523   3.647
46870SOL    HW142449   3.372   0.534   3.552
46870SOL    HW242450   3.292   0.498   3.675
46871SOL     OW42451  10.697  10.665   1.541
46871SOL    HW142452  10.610  10.630   1.523
46871SOL    HW242453  10.750  10.588   1.562
46872SOL     OW42454   0.534   6.308   5.595
46872SOL    HW142455   0.609   6.262   5.633
46872SOL    HW242456   0.466   6.302   5.663
46873SOL     OW42457  14.651  11.145   9.149
46873SOL    HW142458  14.585  11.143   9.218
46873SOL    HW242459  14.614  11.201   9.082
46874SOL     OW42460  13.571   4.230   6.192
46874SOL    HW142461  13.543   4.315   6.226
46874SOL    HW242462  13.578   4.243   6.098
46875SOL     OW42463   1.087   8.831   8.681
46875SOL    HW142464   1.043   8.897   8.628
46875SOL    HW242465   1.160   8.878   8.722
46876SOL     OW42466   1.174  14.110  12.331
46876SOL    HW142467   1.185  14.205  12.336
46876SOL    HW242468   1.084  14.098  12.300
46877SOL     OW42469   9.300  10.248   4.844
46877SOL    HW142470   9.275  10.242   4.752
46877SOL    HW242471   9.350  10.168   4.860
46878SOL     OW42472   9.838  11.919  11.847
46878SOL    HW142473   9.902  11.989  11.832
46878SOL    HW242474   9.829  11.916  11.942
46879SOL     OW42475   5.788   7.994   4.006
46879SOL    HW142476   5.788   8.088   3.991
46879SOL    HW242477   5.698   7.967   3.986
46880SOL     OW42478   9.139  13.620   6.125
46880SOL    HW142479   9.148  13.583   6.213
46880SOL    HW242480   9.216  13.589   6.078
46881SOL     OW42481  10.580  14.563   6.324
46881SOL    HW142482  10.614  14.478   6.354
46881SOL    HW242483  10.625  14.578   6.241
46882SOL     OW42484   1.089  11.500  12.791
46882SOL    HW142485   1.156  11.522  12.727
46882SOL    HW242486   1.007  11.528  12.751
46883SOL     OW42487   2.615   4.597   7.393
46883SOL    HW142488   2.697   4.637   7.422
46883SOL    HW242489   2.556   4.606   7.467
46884SOL     OW42490  13.353   6.369  12.765
46884SOL    HW142491  13.275   6.333  12.808
46884SOL    HW242492  13.393   6.426  12.832
46885SOL     OW42493   5.084  14.241   4.276
46885SOL    HW142494   5.023  14.281   4.338
46885SOL    HW242495   5.106  14.157   4.315
46886SOL     OW42496  14.215   4.603  14.400
46886SOL    HW142497  14.190   4.694  14.413
46886SOL    HW242498  14.134   4.553  14.413
46887SOL     OW42499  12.552   6.137   7.510
46887SOL    HW142500  12.631   6.091   7.479
46887SOL    HW242501  12.575   6.230   7.503
46888SOL     OW42502   6.980  11.426   7.453
46888SOL    HW142503   7.042  11.446   7.383
46888SOL    HW242504   7.020  11.464   7.531
46889SOL     OW42505  14.682   4.593   2.817
46889SOL    HW142506  14.761   4.560   2.861
46889SOL    HW242507  14.615   4.528   2.838
46890SOL     OW42508   7.529   3.736  12.038
46890SOL    HW142509   7.617   3.722  12.004
46890SOL    HW242510   7.539   3.803  12.106
46891SOL     OW42511   3.368   8.832   9.906
46891SOL    HW142512   3.447   8.777   9.909
46891SOL    HW242513   3.337   8.824   9.816
46892SOL     OW42514   9.768   5.688  11.822
46892SOL    HW142515   9.731   5.609  11.783
46892SOL    HW242516   9.746   5.681  11.915
46893SOL     OW42517   7.714  10.792  10.416
46893SOL    HW142518   7.762  10.751  10.345
46893SOL    HW242519   7.724  10.732  10.490
46894SOL     OW42520  12.231  13.186  12.653
46894SOL    HW142521  12.222  13.091  12.645
46894SOL    HW242522  12.285  13.211  12.578
46895SOL     OW42523  13.034  14.052   9.842
46895SOL    HW142524  12.980  14.106   9.785
46895SOL    HW242525  13.102  14.111   9.875
46896SOL     OW42526  11.001  13.225   7.915
46896SOL    HW142527  10.939  13.197   7.848
46896SOL    HW242528  11.053  13.293   7.872
46897SOL     OW42529   5.914  13.959   1.343
46897SOL    HW142530   5.971  14.022   1.388
46897SOL    HW242531   5.959  13.940   1.261
46898SOL     OW42532  13.606  12.455   2.493
46898SOL    HW142533  13.544  12.527   2.503
46898SOL    HW242534  13.692  12.496   2.500
46899SOL     OW42535  11.056   4.300   9.644
46899SOL    HW142536  10.965   4.326   9.633
46899SOL    HW242537  11.057   4.207   9.622
46900SOL     OW42538   0.808   4.645   0.976
46900SOL    HW142539   0.826   4.562   0.934
46900SOL    HW242540   0.895   4.684   0.991
46901SOL     OW42541  14.434   3.370   6.457
46901SOL    HW142542  14.341   3.385   6.440
46901SOL    HW242543  14.455   3.293   6.405
46902SOL     OW42544   7.632  11.823  14.546
46902SOL    HW142545   7.578  11.799  14.470
46902SOL    HW242546   7.593  11.774  14.619
46903SOL     OW42547   8.016   6.156   9.699
46903SOL    HW142548   7.926   6.173   9.669
46903SOL    HW242549   8.010   6.072   9.744
46904SOL     OW42550   9.281   2.261   6.121
46904SOL    HW142551   9.269   2.265   6.216
46904SOL    HW242552   9.281   2.352   6.093
46905SOL     OW42553  12.265  11.711  11.983
46905SOL    HW142554  12.184  11.698  11.933
46905SOL    HW242555  12.303  11.791  11.948
46906SOL     OW42556   7.436  10.735  12.732
46906SOL    HW142557   7.493  10.786  12.674
46906SOL    HW242558   7.443  10.778  12.817
46907SOL     OW42559   0.328  14.130  10.964
46907SOL    HW142560   0.402  14.182  10.998
46907SOL    HW242561   0.269  14.122  11.039
46908SOL     OW42562  10.067   4.095   1.170
46908SOL    HW142563  10.089   4.109   1.078
46908SOL    HW242564  10.095   4.176   1.214
46909SOL     OW42565   1.401  12.863  14.763
46909SOL    HW142566   1.382  12.873  14.857
46909SOL    HW242567   1.321  12.890  14.719
46910SOL     OW42568  14.044  12.947   3.083
46910SOL    HW142569  14.029  12.895   3.162
46910SOL    HW242570  13.961  12.992   3.068
46911SOL     OW42571   6.638  10.591   6.110
46911SOL    HW142572   6.683  10.675   6.105
46911SOL    HW242573   6.565  10.599   6.049
46912SOL     OW42574   1.349   7.353   9.720
46912SOL    HW142575   1.282   7.419   9.737
46912SOL    HW242576   1.429   7.403   9.704
46913SOL     OW42577   6.014  10.446   7.429
46913SOL    HW142578   5.974  10.480   7.349
46913SOL    HW242579   6.080  10.511   7.452
46914SOL     OW42580   8.162  13.888   5.342
46914SOL    HW142581   8.077  13.930   5.356
46914SOL    HW242582   8.173  13.831   5.418
46915SOL     OW42583   2.749   5.751   5.709
46915SOL    HW142584   2.841   5.724   5.707
46915SOL    HW242585   2.746   5.830   5.654
46916SOL     OW42586  11.350   1.703  14.364
46916SOL    HW142587  11.380   1.650  14.437
46916SOL    HW242588  11.417   1.691  14.296
46917SOL     OW42589   4.014  13.018   3.236
46917SOL    HW142590   4.026  13.113   3.237
46917SOL    HW242591   3.942  13.003   3.298
46918SOL     OW42592   4.559   6.370   3.832
46918SOL    HW142593   4.467   6.368   3.858
46918SOL    HW242594   4.569   6.452   3.783
46919SOL     OW42595  10.198   8.409   1.000
46919SOL    HW142596  10.119   8.365   1.029
46919SOL    HW242597  10.171   8.463   0.926
46920SOL     OW42598   4.692   7.731   5.196
46920SOL    HW142599   4.652   7.722   5.283
46920SOL    HW242600   4.731   7.645   5.178
46921SOL     OW42601  14.055   6.346  11.213
46921SOL    HW142602  14.040   6.264  11.164
46921SOL    HW242603  14.150   6.355  11.215
46922SOL     OW42604   8.566   5.028   3.863
46922SOL    HW142605   8.649   4.986   3.886
46922SOL    HW242606   8.583   5.122   3.870
46923SOL     OW42607   0.691   1.948   9.891
46923SOL    HW142608   0.611   1.995   9.871
46923SOL    HW242609   0.696   1.947   9.987
46924SOL     OW42610   3.306   2.280   3.807
46924SOL    HW142611   3.244   2.335   3.854
46924SOL    HW242612   3.374   2.339   3.777
46925SOL     OW42613   9.099   5.526  14.673
46925SOL    HW142614   9.142   5.528  14.759
46925SOL    HW242615   9.008   5.549  14.692
46926SOL     OW42616   5.309   0.336   7.039
46926SOL    HW142617   5.392   0.367   7.002
46926SOL    HW242618   5.242   0.384   6.991
46927SOL     OW42619   8.764   6.307  14.288
46927SOL    HW142620   8.688   6.310  14.231
46927SOL    HW242621   8.799   6.397  14.286
46928SOL     OW42622   8.485  12.485   5.371
46928SOL    HW142623   8.579  12.483   5.354
46928SOL    HW242624   8.467  12.408   5.425
46929SOL     OW42625   6.569  10.361   2.361
46929SOL    HW142626   6.563  10.268   2.382
46929SOL    HW242627   6.478  10.392   2.362
46930SOL     OW42628  12.827   4.703  14.823
46930SOL    HW142629  12.880   4.686  14.745
46930SOL    HW242630  12.806   4.796  14.819
46931SOL     OW42631   8.893   4.645   5.409
46931SOL    HW142632   8.875   4.614   5.320
46931SOL    HW242633   8.818   4.615   5.460
46932SOL     OW42634   9.615  11.941  12.670
46932SOL    HW142635   9.617  11.897  12.585
46932SOL    HW242636   9.523  11.936  12.697
46933SOL     OW42637   2.702  11.406   6.166
46933SOL    HW142638   2.734  11.458   6.092
46933SOL    HW242639   2.714  11.463   6.242
46934SOL     OW42640  12.664   6.797  13.770
46934SOL    HW142641  12.659   6.708  13.807
46934SOL    HW242642  12.606   6.849  13.826
46935SOL     OW42643   8.695   0.621   3.587
46935SOL    HW142644   8.678   0.714   3.602
46935SOL    HW242645   8.782   0.606   3.624
46936SOL     OW42646   1.983   9.790   6.369
46936SOL    HW142647   1.928   9.715   6.346
46936SOL    HW242648   2.072   9.762   6.344
46937SOL     OW42649   4.878  11.829   5.155
46937SOL    HW142650   4.937  11.877   5.097
46937SOL    HW242651   4.854  11.750   5.106
46938SOL     OW42652   2.243  11.186  11.623
46938SOL    HW142653   2.267  11.118  11.559
46938SOL    HW242654   2.313  11.182  11.688
46939SOL     OW42655  10.998  14.079  10.776
46939SOL    HW142656  11.029  13.997  10.737
46939SOL    HW242657  10.902  14.069  10.779
46940SOL     OW42658   5.314   6.902  13.531
46940SOL    HW142659   5.337   6.829  13.589
46940SOL    HW242660   5.222   6.920  13.551
46941SOL     OW42661   8.531   9.654   8.080
46941SOL    HW142662   8.444   9.634   8.047
46941SOL    HW242663   8.542   9.748   8.067
46942SOL     OW42664   2.748  10.729  12.522
46942SOL    HW142665   2.727  10.638  12.500
46942SOL    HW242666   2.697  10.747  12.601
46943SOL     OW42667  13.967   5.758   2.186
46943SOL    HW142668  13.907   5.689   2.157
46943SOL    HW242669  14.042   5.751   2.127
46944SOL     OW42670   7.215  10.199   0.446
46944SOL    HW142671   7.169  10.150   0.378
46944SOL    HW242672   7.300  10.157   0.453
46945SOL     OW42673   1.892   2.669  12.953
46945SOL    HW142674   1.873   2.595  12.897
46945SOL    HW242675   1.861   2.642  13.040
46946SOL     OW42676  14.103   7.017   7.045
46946SOL    HW142677  14.074   7.095   6.997
46946SOL    HW242678  14.041   7.010   7.117
46947SOL     OW42679  13.735   0.998   0.816
46947SOL    HW142680  13.790   1.031   0.745
46947SOL    HW242681  13.649   0.988   0.777
46948SOL     OW42682   8.292  13.790   8.342
46948SOL    HW142683   8.329  13.702   8.333
46948SOL    HW242684   8.262  13.813   8.254
46949SOL     OW42685  14.382   0.994   3.862
46949SOL    HW142686  14.334   0.914   3.844
46949SOL    HW242687  14.469   0.980   3.825
46950SOL     OW42688  12.247   0.708   7.012
46950SOL    HW142689  12.226   0.710   7.106
46950SOL    HW242690  12.303   0.631   7.002
46951SOL     OW42691   9.522  11.743   3.581
46951SOL    HW142692   9.432  11.712   3.573
46951SOL    HW242693   9.575  11.665   3.568
46952SOL     OW42694   5.734  13.313  10.783
46952SOL    HW142695   5.687  13.262  10.717
46952SOL    HW242696   5.665  13.364  10.826
46953SOL     OW42697  13.877   7.945   6.493
46953SOL    HW142698  13.785   7.945   6.466
46953SOL    HW242699  13.924   7.910   6.418
46954SOL     OW42700   3.962  13.131   4.335
46954SOL    HW142701   4.007  13.135   4.420
46954SOL    HW242702   4.011  13.067   4.285
46955SOL     OW42703   4.389   4.283  13.475
46955SOL    HW142704   4.332   4.338  13.421
46955SOL    HW242705   4.346   4.281  13.561
46956SOL     OW42706  13.033   4.256   2.905
46956SOL    HW142707  12.978   4.200   2.959
46956SOL    HW242708  12.971   4.317   2.863
46957SOL     OW42709   0.345   5.394   0.789
46957SOL    HW142710   0.297   5.315   0.815
46957SOL    HW242711   0.331   5.400   0.695
46958SOL     OW42712   6.964   9.725   7.861
46958SOL    HW142713   6.903   9.793   7.834
46958SOL    HW242714   7.002   9.758   7.942
46959SOL     OW42715  14.528   8.176   2.343
46959SOL    HW142716  14.486   8.244   2.290
46959SOL    HW242717  14.456   8.120   2.372
46960SOL     OW42718   6.817   1.835   3.536
46960SOL    HW142719   6.856   1.855   3.451
46960SOL    HW242720   6.859   1.754   3.563
46961SOL     OW42721  13.900  14.444   4.588
46961SOL    HW142722  13.821  14.457   4.536
46961SOL    HW242723  13.893  14.355   4.621
46962SOL     OW42724   5.069  11.942  13.597
46962SOL    HW142725   4.997  11.880  13.604
46962SOL    HW242726   5.108  11.925  13.511
46963SOL     OW42727  14.752  12.712   7.163
46963SOL    HW142728  14.690  12.696   7.234
46963SOL    HW242729  14.720  12.791   7.120
46964SOL     OW42730   4.737   3.045   0.868
46964SOL    HW142731   4.725   3.082   0.955
46964SOL    HW242732   4.809   2.982   0.879
46965SOL     OW42733   2.057   0.141   6.255
46965SOL    HW142734   2.010   0.075   6.305
46965SOL    HW242735   2.135   0.096   6.222
46966SOL     OW42736   3.698   0.601   7.173
46966SOL    HW142737   3.603   0.610   7.176
46966SOL    HW242738   3.713   0.518   7.127
46967SOL     OW42739   1.742   3.986   0.734
46967SOL    HW142740   1.650   3.962   0.724
46967SOL    HW242741   1.782   3.910   0.776
46968SOL     OW42742   8.344   5.159  13.958
46968SOL    HW142743   8.314   5.080  13.912
46968SOL    HW242744   8.275   5.223  13.942
46969SOL     OW42745  10.661  14.565   2.870
46969SOL    HW142746  10.689  14.656   2.860
46969SOL    HW242747  10.742  14.514   2.867
46970SOL     OW42748   2.972   2.828  13.573
46970SOL    HW142749   2.933   2.822  13.660
46970SOL    HW242750   3.062   2.796  13.584
46971SOL     OW42751   7.246  12.458   1.522
46971SOL    HW142752   7.284  12.416   1.599
46971SOL    HW242753   7.154  12.469   1.544
46972SOL     OW42754  14.552   8.841   4.213
46972SOL    HW142755  14.571   8.935   4.209
46972SOL    HW242756  14.634   8.801   4.242
46973SOL     OW42757  13.820   9.826   1.892
46973SOL    HW142758  13.912   9.805   1.909
46973SOL    HW242759  13.793   9.877   1.968
46974SOL     OW42760   5.819   7.460   2.409
46974SOL    HW142761   5.826   7.534   2.349
46974SOL    HW242762   5.733   7.470   2.449
46975SOL     OW42763   3.423   9.573   2.941
46975SOL    HW142764   3.392   9.569   3.031
46975SOL    HW242765   3.386   9.495   2.900
46976SOL     OW42766  12.605   5.808   2.060
46976SOL    HW142767  12.681   5.797   2.117
46976SOL    HW242768  12.536   5.841   2.117
46977SOL     OW42769   2.262  13.825   0.306
46977SOL    HW142770   2.181  13.876   0.297
46977SOL    HW242771   2.268  13.806   0.399
46978SOL     OW42772  12.658  10.437   0.733
46978SOL    HW142773  12.568  10.462   0.709
46978SOL    HW242774  12.705  10.520   0.740
46979SOL     OW42775   7.986  10.942   0.942
46979SOL    HW142776   7.913  10.920   1.000
46979SOL    HW242777   8.041  11.000   0.994
46980SOL     OW42778  14.613   4.095  14.597
46980SOL    HW142779  14.620   4.011  14.552
46980SOL    HW242780  14.626   4.161  14.529
46981SOL     OW42781  10.403   3.173   4.276
46981SOL    HW142782  10.437   3.105   4.334
46981SOL    HW242783  10.399   3.131   4.190
46982SOL     OW42784   0.978   8.016   2.824
46982SOL    HW142785   1.011   8.103   2.805
46982SOL    HW242786   1.050   7.972   2.869
46983SOL     OW42787   3.030   5.018   7.700
46983SOL    HW142788   3.025   4.932   7.742
46983SOL    HW242789   3.044   4.999   7.607
46984SOL     OW42790  10.999   2.206   2.473
46984SOL    HW142791  10.990   2.302   2.474
46984SOL    HW242792  10.916   2.175   2.437
46985SOL     OW42793   0.274   0.044  10.598
46985SOL    HW142794   0.221  14.862  10.552
46985SOL    HW242795   0.215   0.085  10.661
46986SOL     OW42796   1.363   7.927   2.413
46986SOL    HW142797   1.347   7.850   2.467
46986SOL    HW242798   1.351   8.001   2.472
46987SOL     OW42799  11.320  14.127  10.175
46987SOL    HW142800  11.408  14.147  10.144
46987SOL    HW242801  11.269  14.112  10.095
46988SOL     OW42802   7.996   6.723   3.834
46988SOL    HW142803   8.007   6.631   3.858
46988SOL    HW242804   7.943   6.760   3.905
46989SOL     OW42805  14.162   5.223  13.210
46989SOL    HW142806  14.178   5.183  13.295
46989SOL    HW242807  14.238   5.199  13.157
46990SOL     OW42808  12.897  14.777  11.265
46990SOL    HW142809  12.931  14.841  11.202
46990SOL    HW242810  12.924  14.692  11.230
46991SOL     OW42811  14.270   2.876   5.677
46991SOL    HW142812  14.275   2.844   5.587
46991SOL    HW242813  14.206   2.948   5.674
46992SOL     OW42814   7.498   5.137   1.671
46992SOL    HW142815   7.465   5.077   1.738
46992SOL    HW242816   7.572   5.091   1.632
46993SOL     OW42817   9.347   2.295  12.293
46993SOL    HW142818   9.386   2.299  12.380
46993SOL    HW242819   9.279   2.229  12.301
46994SOL     OW42820   3.925   7.371  11.174
46994SOL    HW142821   3.984   7.413  11.111
46994SOL    HW242822   3.913   7.437  11.243
46995SOL     OW42823   2.651   1.021   6.669
46995SOL    HW142824   2.600   1.098   6.644
46995SOL    HW242825   2.736   1.035   6.628
46996SOL     OW42826   2.274  10.957  13.487
46996SOL    HW142827   2.328  10.965  13.565
46996SOL    HW242828   2.336  10.950  13.415
46997SOL     OW42829   5.793  11.846   3.870
46997SOL    HW142830   5.870  11.795   3.897
46997SOL    HW242831   5.718  11.792   3.896
46998SOL     OW42832  11.851  11.839   4.125
46998SOL    HW142833  11.828  11.887   4.045
46998SOL    HW242834  11.937  11.872   4.149
46999SOL     OW42835  10.264   3.444  11.931
46999SOL    HW142836  10.310   3.474  11.852
46999SOL    HW242837  10.299   3.500  12.001
47000SOL     OW42838  14.240   7.222   5.425
47000SOL    HW142839  14.267   7.241   5.335
47000SOL    HW242840  14.313   7.252   5.479
47001SOL     OW42841   9.452  10.349   9.893
47001SOL    HW142842   9.461  10.421   9.955
47001SOL    HW242843   9.477  10.271   9.942
47002SOL     OW42844  10.315   7.505   0.324
47002SOL    HW142845  10.222   7.499   0.300
47002SOL    HW242846  10.361   7.508   0.240
47003SOL     OW42847   6.857   2.966   1.376
47003SOL    HW142848   6.883   3.058   1.376
47003SOL    HW242849   6.902   2.928   1.451
47004SOL     OW42850   2.111   5.776  14.440
47004SOL    HW142851   2.060   5.834  14.384
47004SOL    HW242852   2.050   5.747  14.507
47005SOL     OW42853   5.361   2.325  11.084
47005SOL    HW142854   5.282   2.278  11.110
47005SOL    HW242855   5.383   2.289  10.998
47006SOL     OW42856   6.326   7.990   4.540
47006SOL    HW142857   6.259   7.977   4.473
47006SOL    HW242858   6.366   8.074   4.518
47007SOL     OW42859  12.390   1.016   1.293
47007SOL    HW142860  12.305   0.975   1.307
47007SOL    HW242861  12.441   0.950   1.247
47008SOL     OW42862  14.272   6.095  12.597
47008SOL    HW142863  14.364   6.119  12.593
47008SOL    HW242864  14.252   6.063  12.509
47009SOL     OW42865   0.367   9.739   2.240
47009SOL    HW142866   0.358   9.804   2.170
47009SOL    HW242867   0.439   9.771   2.294
47010SOL     OW42868  11.318   1.414   1.158
47010SOL    HW142869  11.294   1.495   1.114
47010SOL    HW242870  11.235   1.381   1.193
47011SOL     OW42871   5.525  10.152   6.982
47011SOL    HW142872   5.584  10.083   7.011
47011SOL    HW242873   5.577  10.232   6.987
47012SOL     OW42874   3.290  10.684   9.498
47012SOL    HW142875   3.198  10.685   9.524
47012SOL    HW242876   3.297  10.755   9.434
47013SOL     OW42877  10.718  12.752   0.397
47013SOL    HW142878  10.733  12.829   0.451
47013SOL    HW242879  10.659  12.782   0.327
47014SOL     OW42880  13.138  12.223  14.771
47014SOL    HW142881  13.211  12.282  14.751
47014SOL    HW242882  13.095  12.209  14.686
47015SOL     OW42883   8.990  13.122   2.624
47015SOL    HW142884   9.027  13.065   2.691
47015SOL    HW242885   9.046  13.109   2.547
47016SOL     OW42886   2.138  12.876  10.978
47016SOL    HW142887   2.198  12.865  10.903
47016SOL    HW242888   2.056  12.905  10.939
47017SOL     OW42889  13.540   9.850   6.424
47017SOL    HW142890  13.501   9.786   6.484
47017SOL    HW242891  13.583   9.913   6.481
47018SOL     OW42892   6.507   7.805  10.806
47018SOL    HW142893   6.535   7.876  10.748
47018SOL    HW242894   6.450   7.848  10.870
47019SOL     OW42895   0.662   6.815   6.116
47019SOL    HW142896   0.709   6.849   6.192
47019SOL    HW242897   0.640   6.725   6.141
47020SOL     OW42898  14.480  11.859   3.895
47020SOL    HW142899  14.389  11.888   3.882
47020SOL    HW242900  14.484  11.837   3.988
47021SOL     OW42901   2.288   4.391   3.721
47021SOL    HW142902   2.325   4.460   3.665
47021SOL    HW242903   2.283   4.315   3.664
47022SOL     OW42904   4.238  13.100   7.125
47022SOL    HW142905   4.213  13.017   7.165
47022SOL    HW242906   4.290  13.143   7.193
47023SOL     OW42907   5.672  14.369  10.408
47023SOL    HW142908   5.629  14.426  10.344
47023SOL    HW242909   5.601  14.328  10.456
47024SOL     OW42910  10.642  10.109   0.757
47024SOL    HW142911  10.717  10.095   0.700
47024SOL    HW242912  10.575  10.145   0.699
47025SOL     OW42913   0.320   4.588   5.422
47025SOL    HW142914   0.389   4.530   5.388
47025SOL    HW242915   0.329   4.668   5.370
47026SOL     OW42916   6.060   5.100   0.084
47026SOL    HW142917   5.999   5.133   0.150
47026SOL    HW242918   6.003   5.056   0.020
47027SOL     OW42919   1.694  13.497   0.825
47027SOL    HW142920   1.621  13.550   0.795
47027SOL    HW242921   1.757  13.560   0.860
47028SOL     OW42922   3.851   4.429   3.285
47028SOL    HW142923   3.878   4.425   3.376
47028SOL    HW242924   3.755   4.434   3.288
47029SOL     OW42925  14.808   5.192  13.574
47029SOL    HW142926   0.013   5.165  13.603
47029SOL    HW242927  14.815   5.199  13.479
47030SOL     OW42928   6.949   4.829   3.686
47030SOL    HW142929   6.875   4.799   3.739
47030SOL    HW242930   6.960   4.921   3.708
47031SOL     OW42931  10.990   0.689   4.315
47031SOL    HW142932  10.939   0.764   4.345
47031SOL    HW242933  11.005   0.706   4.222
47032SOL     OW42934   4.772   8.709  11.002
47032SOL    HW142935   4.828   8.665  11.067
47032SOL    HW242936   4.749   8.641  10.939
47033SOL     OW42937   7.983   0.670   4.690
47033SOL    HW142938   7.933   0.607   4.638
47033SOL    HW242939   8.047   0.705   4.629
47034SOL     OW42940  14.185   9.375  11.169
47034SOL    HW142941  14.205   9.411  11.255
47034SOL    HW242942  14.224   9.288  11.170
47035SOL     OW42943   2.871   1.814   1.930
47035SOL    HW142944   2.882   1.750   1.860
47035SOL    HW242945   2.958   1.850   1.943
47036SOL     OW42946  14.083  10.346   9.161
47036SOL    HW142947  14.097  10.418   9.099
47036SOL    HW242948  14.150  10.359   9.228
47037SOL     OW42949  10.519   2.427  14.207
47037SOL    HW142950  10.552   2.433  14.297
47037SOL    HW242951  10.555   2.345  14.174
47038SOL     OW42952  13.455  12.254   0.680
47038SOL    HW142953  13.403  12.237   0.758
47038SOL    HW242954  13.522  12.316   0.708
47039SOL     OW42955   1.045  10.195  10.055
47039SOL    HW142956   1.029  10.103  10.036
47039SOL    HW242957   1.066  10.196  10.149
47040SOL     OW42958   5.092   3.520   0.478
47040SOL    HW142959   5.079   3.512   0.573
47040SOL    HW242960   5.144   3.443   0.455
47041SOL     OW42961  13.050   5.671   0.629
47041SOL    HW142962  13.009   5.585   0.629
47041SOL    HW242963  12.977   5.732   0.618
47042SOL     OW42964  10.623  10.083   9.149
47042SOL    HW142965  10.701  10.091   9.204
47042SOL    HW242966  10.649  10.120   9.065
47043SOL     OW42967   7.479  11.755  13.468
47043SOL    HW142968   7.531  11.828  13.501
47043SOL    HW242969   7.390  11.790  13.460
47044SOL     OW42970   1.766  11.165   0.460
47044SOL    HW142971   1.733  11.085   0.501
47044SOL    HW242972   1.824  11.203   0.525
47045SOL     OW42973  12.927   9.834  12.944
47045SOL    HW142974  12.846   9.790  12.917
47045SOL    HW242975  12.914   9.851  13.038
47046SOL     OW42976  12.399  12.169  13.089
47046SOL    HW142977  12.335  12.146  13.156
47046SOL    HW242978  12.484  12.152  13.131
47047SOL     OW42979   3.190   1.671   2.945
47047SOL    HW142980   3.264   1.629   2.988
47047SOL    HW242981   3.118   1.608   2.952
47048SOL     OW42982   7.294   2.921  13.096
47048SOL    HW142983   7.340   2.895  13.176
47048SOL    HW242984   7.258   3.007  13.116
47049SOL     OW42985   4.337  14.551   0.337
47049SOL    HW142986   4.297  14.631   0.371
47049SOL    HW242987   4.429  14.557   0.364
47050SOL     OW42988  10.443   0.449  11.307
47050SOL    HW142989  10.465   0.526  11.255
47050SOL    HW242990  10.367   0.476  11.359
47051SOL     OW42991  10.890   1.727   6.665
47051SOL    HW142992  10.823   1.749   6.730
47051SOL    HW242993  10.967   1.704   6.717
47052SOL     OW42994   4.275   3.535   8.672
47052SOL    HW142995   4.254   3.622   8.703
47052SOL    HW242996   4.310   3.489   8.749
47053SOL     OW42997   3.536  14.794  11.580
47053SOL    HW142998   3.492  14.710  11.588
47053SOL    HW242999   3.552  14.805  11.486
47054SOL     OW43000   0.306   6.047  10.286
47054SOL    HW143001   0.296   6.127  10.339
47054SOL    HW243002   0.387   6.061  10.237
47055SOL     OW43003   7.842   9.421   5.028
47055SOL    HW143004   7.840   9.508   4.988
47055SOL    HW243005   7.763   9.378   4.994
47056SOL     OW43006  11.871  11.449   7.136
47056SOL    HW143007  11.879  11.505   7.059
47056SOL    HW243008  11.777  11.432   7.145
47057SOL     OW43009  14.739   6.599   4.460
47057SOL    HW143010  14.690   6.538   4.516
47057SOL    HW243011  14.733   6.561   4.372
47058SOL     OW43012   7.174   1.997  13.523
47058SOL    HW143013   7.129   1.912  13.523
47058SOL    HW243014   7.144   2.041  13.444
47059SOL     OW43015   2.604   3.750   5.888
47059SOL    HW143016   2.637   3.834   5.856
47059SOL    HW243017   2.511   3.766   5.905
47060SOL     OW43018   6.589   7.425   2.608
47060SOL    HW143019   6.565   7.454   2.696
47060SOL    HW243020   6.506   7.410   2.564
47061SOL     OW43021   2.741   5.951   4.137
47061SOL    HW143022   2.770   5.935   4.048
47061SOL    HW243023   2.820   5.974   4.185
47062SOL     OW43024  10.775   1.960   4.228
47062SOL    HW143025  10.797   2.035   4.173
47062SOL    HW243026  10.684   1.939   4.205
47063SOL     OW43027   6.044   1.842   9.751
47063SOL    HW143028   6.099   1.838   9.673
47063SOL    HW243029   6.098   1.887   9.816
47064SOL     OW43030   2.410  11.011   3.211
47064SOL    HW143031   2.398  10.949   3.283
47064SOL    HW243032   2.346  11.080   3.228
47065SOL     OW43033   9.131   2.614  11.737
47065SOL    HW143034   9.112   2.697  11.782
47065SOL    HW243035   9.157   2.555  11.808
47066SOL     OW43036   5.878  14.849  11.770
47066SOL    HW143037   5.787  14.847  11.800
47066SOL    HW243038   5.929  14.815  11.844
47067SOL     OW43039   2.695  14.365   5.221
47067SOL    HW143040   2.648  14.410   5.150
47067SOL    HW243041   2.774  14.332   5.179
47068SOL     OW43042  13.803  10.293   0.764
47068SOL    HW143043  13.769  10.218   0.715
47068SOL    HW243044  13.825  10.358   0.697
47069SOL     OW43045   0.996   8.191   4.072
47069SOL    HW143046   0.974   8.098   4.079
47069SOL    HW243047   0.981   8.226   4.160
47070SOL     OW43048   8.829  11.128   9.905
47070SOL    HW143049   8.793  11.064   9.844
47070SOL    HW243050   8.796  11.212   9.874
47071SOL     OW43051  12.160   0.715   3.848
47071SOL    HW143052  12.254   0.711   3.833
47071SOL    HW243053  12.122   0.711   3.760
47072SOL     OW43054   4.635   5.785   4.229
47072SOL    HW143055   4.665   5.702   4.193
47072SOL    HW243056   4.676   5.851   4.173
47073SOL     OW43057   3.785   6.280   9.485
47073SOL    HW143058   3.737   6.347   9.435
47073SOL    HW243059   3.828   6.227   9.418
47074SOL     OW43060   0.002  14.769   1.859
47074SOL    HW143061  14.859  14.861   1.862
47074SOL    HW243062   0.097  14.769   1.868
47075SOL     OW43063   4.825   6.578   5.634
47075SOL    HW143064   4.852   6.490   5.662
47075SOL    HW243065   4.730   6.571   5.625
47076SOL     OW43066   7.368  12.952   1.013
47076SOL    HW143067   7.444  12.905   0.978
47076SOL    HW243068   7.333  13.001   0.939
47077SOL     OW43069   3.916   5.008   4.607
47077SOL    HW143070   3.915   4.953   4.686
47077SOL    HW243071   3.856   5.080   4.627
47078SOL     OW43072  12.583   2.219   0.291
47078SOL    HW143073  12.656   2.185   0.343
47078SOL    HW243074  12.624   2.273   0.224
47079SOL     OW43075   2.745   3.751   3.168
47079SOL    HW143076   2.674   3.738   3.231
47079SOL    HW243077   2.715   3.823   3.113
47080SOL     OW43078   4.128   9.440  14.045
47080SOL    HW143079   4.063   9.506  14.024
47080SOL    HW243080   4.200   9.457  13.985
47081SOL     OW43081   8.479  11.277  11.981
47081SOL    HW143082   8.518  11.352  11.937
47081SOL    HW243083   8.455  11.310  12.068
47082SOL     OW43084   2.908   7.367  11.956
47082SOL    HW143085   2.986   7.379  12.010
47082SOL    HW243086   2.934   7.397  11.869
47083SOL     OW43087   1.854   4.680   7.257
47083SOL    HW143088   1.881   4.696   7.348
47083SOL    HW243089   1.929   4.638   7.216
47084SOL     OW43090   7.958   4.004   1.428
47084SOL    HW143091   7.982   3.930   1.373
47084SOL    HW243092   8.042   4.044   1.452
47085SOL     OW43093   1.373   8.883  13.179
47085SOL    HW143094   1.384   8.867  13.085
47085SOL    HW243095   1.352   8.797  13.215
47086SOL     OW43096   2.755   7.790   2.671
47086SOL    HW143097   2.775   7.881   2.651
47086SOL    HW243098   2.827   7.761   2.727
47087SOL     OW43099  11.041  11.525   7.887
47087SOL    HW143100  11.021  11.455   7.949
47087SOL    HW243101  11.030  11.605   7.937
47088SOL     OW43102  11.915  10.211   8.019
47088SOL    HW143103  11.909  10.298   7.980
47088SOL    HW243104  11.992  10.215   8.075
47089SOL     OW43105   3.142   7.559   7.269
47089SOL    HW143106   3.072   7.587   7.328
47089SOL    HW243107   3.099   7.550   7.183
47090SOL     OW43108  11.084   4.544   7.538
47090SOL    HW143109  11.012   4.559   7.477
47090SOL    HW243110  11.052   4.474   7.595
47091SOL     OW43111  13.974   8.703   8.509
47091SOL    HW143112  14.006   8.788   8.539
47091SOL    HW243113  13.961   8.653   8.590
47092SOL     OW43114  12.138   2.541   9.667
47092SOL    HW143115  12.103   2.536   9.757
47092SOL    HW243116  12.183   2.457   9.654
47093SOL     OW43117  10.647   9.600   1.230
47093SOL    HW143118  10.719   9.650   1.192
47093SOL    HW243119  10.579   9.665   1.248
47094SOL     OW43120   1.696   6.025   9.578
47094SOL    HW143121   1.609   6.061   9.597
47094SOL    HW243122   1.757   6.093   9.608
47095SOL     OW43123   2.571  13.540   9.779
47095SOL    HW143124   2.638  13.534   9.847
47095SOL    HW243125   2.500  13.484   9.810
47096SOL     OW43126   1.515  12.424  10.247
47096SOL    HW143127   1.505  12.486  10.319
47096SOL    HW243128   1.479  12.470  10.171
47097SOL     OW43129   1.433   2.689  10.197
47097SOL    HW143130   1.459   2.779  10.213
47097SOL    HW243131   1.442   2.677  10.103
47098SOL     OW43132   3.961  14.637   1.669
47098SOL    HW143133   3.942  14.704   1.735
47098SOL    HW243134   3.937  14.678   1.586
47099SOL     OW43135   2.126   1.689   3.390
47099SOL    HW143136   2.152   1.663   3.301
47099SOL    HW243137   2.033   1.711   3.382
47100SOL     OW43138  12.987  11.673   3.539
47100SOL    HW143139  13.032  11.757   3.550
47100SOL    HW243140  12.962  11.648   3.628
47101SOL     OW43141   8.290  11.876   2.683
47101SOL    HW143142   8.373  11.850   2.723
47101SOL    HW243143   8.315  11.908   2.596
47102SOL     OW43144   0.303   7.065  14.519
47102SOL    HW143145   0.383   7.115  14.532
47102SOL    HW243146   0.295   7.057  14.424
47103SOL     OW43147   7.457   1.947   3.936
47103SOL    HW143148   7.519   1.956   4.009
47103SOL    HW243149   7.373   1.931   3.979
47104SOL     OW43150   8.550   7.487   3.223
47104SOL    HW143151   8.505   7.461   3.304
47104SOL    HW243152   8.557   7.582   3.229
47105SOL     OW43153   9.552   1.244  14.786
47105SOL    HW143154   9.616   1.241  14.857
47105SOL    HW243155   9.471   1.274  14.828
47106SOL     OW43156  11.338  12.020   0.624
47106SOL    HW143157  11.309  12.048   0.538
47106SOL    HW243158  11.387  12.096   0.658
47107SOL     OW43159   5.018   4.294   1.238
47107SOL    HW143160   5.068   4.215   1.221
47107SOL    HW243161   5.007   4.296   1.333
47108SOL     OW43162   4.768   2.671   7.796
47108SOL    HW143163   4.787   2.593   7.848
47108SOL    HW243164   4.795   2.647   7.707
47109SOL     OW43165   8.705   4.433  10.467
47109SOL    HW143166   8.639   4.500  10.452
47109SOL    HW243167   8.717   4.431  10.562
47110SOL     OW43168   1.581   7.585   1.655
47110SOL    HW143169   1.594   7.503   1.703
47110SOL    HW243170   1.653   7.588   1.592
47111SOL     OW43171   9.395   6.154  11.455
47111SOL    HW143172   9.424   6.184  11.369
47111SOL    HW243173   9.307   6.190  11.464
47112SOL     OW43174  14.567   4.675   9.419
47112SOL    HW143175  14.631   4.706   9.483
47112SOL    HW243176  14.617   4.619   9.360
47113SOL     OW43177   4.715   5.329   2.004
47113SOL    HW143178   4.740   5.268   2.073
47113SOL    HW243179   4.713   5.276   1.925
47114SOL     OW43180   2.989  14.020  12.140
47114SOL    HW143181   3.051  13.965  12.093
47114SOL    HW243182   2.903  13.984  12.117
47115SOL     OW43183  14.521  11.701   6.005
47115SOL    HW143184  14.555  11.774   5.953
47115SOL    HW243185  14.489  11.742   6.085
47116SOL     OW43186   4.217   4.706   3.483
47116SOL    HW143187   4.195   4.792   3.448
47116SOL    HW243188   4.299   4.719   3.530
47117SOL     OW43189   6.068  13.631   0.679
47117SOL    HW143190   6.015  13.581   0.617
47117SOL    HW243191   6.076  13.574   0.755
47118SOL     OW43192   3.103   6.220   9.189
47118SOL    HW143193   3.064   6.288   9.133
47118SOL    HW243194   3.159   6.171   9.129
47119SOL     OW43195  14.840   0.458   0.313
47119SOL    HW143196  14.834   0.371   0.353
47119SOL    HW243197  14.792   0.448   0.230
47120SOL     OW43198  11.489   5.097   2.957
47120SOL    HW143199  11.501   5.048   2.876
47120SOL    HW243200  11.461   5.184   2.930
47121SOL     OW43201  14.626   1.960   4.228
47121SOL    HW143202  14.648   1.867   4.242
47121SOL    HW243203  14.700   2.008   4.264
47122SOL     OW43204  11.805   4.626   7.223
47122SOL    HW143205  11.783   4.673   7.304
47122SOL    HW243206  11.796   4.691   7.154
47123SOL     OW43207  12.093  10.104  13.131
47123SOL    HW143208  12.126  10.016  13.148
47123SOL    HW243209  12.090  10.146  13.217
47124SOL     OW43210   3.728   6.768   9.201
47124SOL    HW143211   3.769   6.682   9.205
47124SOL    HW243212   3.783   6.824   9.257
47125SOL     OW43213  10.442  13.349   4.840
47125SOL    HW143214  10.441  13.403   4.761
47125SOL    HW243215  10.364  13.294   4.833
47126SOL     OW43216   5.132   5.172  14.815
47126SOL    HW143217   5.077   5.199  14.742
47126SOL    HW243218   5.070   5.149   0.002
47127SOL     OW43219  12.439   0.330  10.345
47127SOL    HW143220  12.415   0.392  10.414
47127SOL    HW243221  12.391   0.251  10.366
47128SOL     OW43222   9.846   4.640   6.922
47128SOL    HW143223   9.795   4.569   6.882
47128SOL    HW243224   9.900   4.596   6.987
47129SOL     OW43225  14.269   1.021  11.863
47129SOL    HW143226  14.299   1.044  11.775
47129SOL    HW243227  14.238   0.930  11.855
47130SOL     OW43228   0.301  12.876   8.011
47130SOL    HW143229   0.245  12.913   8.079
47130SOL    HW243230   0.262  12.906   7.929
47131SOL     OW43231  14.255  11.751   0.404
47131SOL    HW143232  14.206  11.671   0.383
47131SOL    HW243233  14.333  11.721   0.449
47132SOL     OW43234   3.684   8.786  14.703
47132SOL    HW143235   3.677   8.758  14.795
47132SOL    HW243236   3.661   8.879  14.705
47133SOL     OW43237   2.199   6.578   4.064
47133SOL    HW143238   2.238   6.505   4.015
47133SOL    HW243239   2.238   6.656   4.025
47134SOL     OW43240   6.794   3.608   9.737
47134SOL    HW143241   6.800   3.512   9.729
47134SOL    HW243242   6.729   3.633   9.670
47135SOL     OW43243  12.120  11.571   2.182
47135SOL    HW143244  12.093  11.495   2.129
47135SOL    HW243245  12.051  11.580   2.247
47136SOL     OW43246   5.941   0.651   0.166
47136SOL    HW143247   5.998   0.727   0.177
47136SOL    HW243248   5.994   0.576   0.192
47137SOL     OW43249  12.208   0.506  11.876
47137SOL    HW143250  12.246   0.477  11.959
47137SOL    HW243251  12.166   0.589  11.897
47138SOL     OW43252   5.095  11.803   8.053
47138SOL    HW143253   5.078  11.709   8.057
47138SOL    HW243254   5.137  11.823   8.137
47139SOL     OW43255  13.340  11.751  13.334
47139SOL    HW143256  13.422  11.706  13.314
47139SOL    HW243257  13.342  11.765  13.429
47140SOL     OW43258  10.420   9.097   8.945
47140SOL    HW143259  10.341   9.057   8.981
47140SOL    HW243260  10.489   9.032   8.959
47141SOL     OW43261  11.692  10.277  11.210
47141SOL    HW143262  11.683  10.211  11.278
47141SOL    HW243263  11.683  10.361  11.256
47142SOL     OW43264  12.270   4.784  14.341
47142SOL    HW143265  12.226   4.844  14.280
47142SOL    HW243266  12.208   4.774  14.413
47143SOL     OW43267   0.919   1.830  10.851
47143SOL    HW143268   0.850   1.813  10.787
47143SOL    HW243269   0.928   1.747  10.898
47144SOL     OW43270   0.203  13.533   2.461
47144SOL    HW143271   0.191  13.438   2.457
47144SOL    HW243272   0.293  13.548   2.432
47145SOL     OW43273   2.218   1.298   3.846
47145SOL    HW143274   2.211   1.362   3.775
47145SOL    HW243275   2.136   1.249   3.842
47146SOL     OW43276   7.763   3.593  13.925
47146SOL    HW143277   7.725   3.545  13.999
47146SOL    HW243278   7.838   3.540  13.899
47147SOL     OW43279  13.283   8.976   4.969
47147SOL    HW143280  13.354   9.002   4.911
47147SOL    HW243281  13.273   8.882   4.956
47148SOL     OW43282   6.139   5.675   5.053
47148SOL    HW143283   6.166   5.619   4.980
47148SOL    HW243284   6.159   5.764   5.023
47149SOL     OW43285  10.597  10.040  10.999
47149SOL    HW143286  10.675  10.083  10.962
47149SOL    HW243287  10.524  10.092  10.968
47150SOL     OW43288   9.147   1.472   5.711
47150SOL    HW143289   9.075   1.496   5.653
47150SOL    HW243290   9.110   1.405   5.769
47151SOL     OW43291   7.146  12.603  13.536
47151SOL    HW143292   7.089  12.537  13.497
47151SOL    HW243293   7.228  12.595  13.486
47152SOL     OW43294   8.827  11.901  12.540
47152SOL    HW143295   8.829  11.829  12.603
47152SOL    HW243296   8.734  11.919  12.526
47153SOL     OW43297   5.618  10.297   6.387
47153SOL    HW143298   5.540  10.283   6.333
47153SOL    HW243299   5.589  10.359   6.454
47154SOL     OW43300  12.917  12.032   0.639
47154SOL    HW143301  12.853  12.079   0.691
47154SOL    HW243302  12.887  12.044   0.548
47155SOL     OW43303   6.348   2.262   8.749
47155SOL    HW143304   6.379   2.219   8.669
47155SOL    HW243305   6.261   2.226   8.764
47156SOL     OW43306  10.286   7.650   4.567
47156SOL    HW143307  10.242   7.732   4.544
47156SOL    HW243308  10.231   7.582   4.527
47157SOL     OW43309  10.610  11.440   6.893
47157SOL    HW143310  10.565  11.506   6.840
47157SOL    HW243311  10.673  11.491   6.944
47158SOL     OW43312  11.148   5.677   6.695
47158SOL    HW143313  11.140   5.735   6.619
47158SOL    HW243314  11.232   5.701   6.735
47159SOL     OW43315   4.615  14.585  11.039
47159SOL    HW143316   4.645  14.621  10.956
47159SOL    HW243317   4.615  14.490  11.026
47160SOL     OW43318  13.228  13.218   0.735
47160SOL    HW143319  13.255  13.295   0.785
47160SOL    HW243320  13.219  13.149   0.800
47161SOL     OW43321   6.950   0.622   6.848
47161SOL    HW143322   6.942   0.691   6.783
47161SOL    HW243323   6.862   0.584   6.854
47162SOL     OW43324   0.038  12.507   9.435
47162SOL    HW143325   0.044  12.521   9.340
47162SOL    HW243326   0.095  12.432   9.451
47163SOL     OW43327   5.676  13.859   4.134
47163SOL    HW143328   5.593  13.885   4.094
47163SOL    HW243329   5.738  13.859   4.061
47164SOL     OW43330  10.352  14.795   3.420
47164SOL    HW143331  10.328   0.006   3.415
47164SOL    HW243332  10.347  14.764   3.330
47165SOL     OW43333   4.184   3.707  11.348
47165SOL    HW143334   4.268   3.699  11.303
47165SOL    HW243335   4.178   3.628  11.402
47166SOL     OW43336   7.315  12.006   3.932
47166SOL    HW143337   7.250  12.076   3.932
47166SOL    HW243338   7.386  12.039   3.988
47167SOL     OW43339   8.950   8.872  13.212
47167SOL    HW143340   8.898   8.852  13.290
47167SOL    HW243341   9.037   8.893  13.246
47168SOL     OW43342   5.068   0.075   7.438
47168SOL    HW143343   5.037   0.024   7.362
47168SOL    HW243344   5.114   0.149   7.400
47169SOL     OW43345   8.607   5.171   4.833
47169SOL    HW143346   8.519   5.181   4.869
47169SOL    HW243347   8.634   5.261   4.812
47170SOL     OW43348  13.721   9.380   3.501
47170SOL    HW143349  13.751   9.413   3.417
47170SOL    HW243350  13.726   9.285   3.493
47171SOL     OW43351   0.834   3.090   7.737
47171SOL    HW143352   0.898   3.158   7.757
47171SOL    HW243353   0.749   3.129   7.757
47172SOL     OW43354   0.042  12.163   9.295
47172SOL    HW143355   0.034  12.211   9.212
47172SOL    HW243356   0.136  12.153   9.308
47173SOL     OW43357   3.468  14.101   4.141
47173SOL    HW143358   3.467  14.196   4.143
47173SOL    HW243359   3.522  14.075   4.216
47174SOL     OW43360   5.873   0.097   2.831
47174SOL    HW143361   5.793   0.134   2.794
47174SOL    HW243362   5.852   0.086   2.924
47175SOL     OW43363  12.639   4.545  10.431
47175SOL    HW143364  12.692   4.615  10.470
47175SOL    HW243365  12.549   4.570  10.450
47176SOL     OW43366   0.960   9.915   7.265
47176SOL    HW143367   0.936   9.969   7.190
47176SOL    HW243368   1.048   9.945   7.289
47177SOL     OW43369   5.873  11.271   7.577
47177SOL    HW143370   5.864  11.208   7.648
47177SOL    HW243371   5.828  11.349   7.608
47178SOL     OW43372  10.655   0.670  10.310
47178SOL    HW143373  10.689   0.600  10.367
47178SOL    HW243374  10.712   0.667  10.234
47179SOL     OW43375   4.703   2.248   2.065
47179SOL    HW143376   4.776   2.186   2.056
47179SOL    HW243377   4.739   2.332   2.036
47180SOL     OW43378   2.659   9.852   1.777
47180SOL    HW143379   2.654   9.784   1.710
47180SOL    HW243380   2.673   9.804   1.859
47181SOL     OW43381  13.930   1.132  14.411
47181SOL    HW143382  13.902   1.177  14.490
47181SOL    HW243383  13.980   1.198  14.362
47182SOL     OW43384   1.240  12.594  12.789
47182SOL    HW143385   1.329  12.559  12.786
47182SOL    HW243386   1.198  12.561  12.710
47183SOL     OW43387  11.738   8.187  13.127
47183SOL    HW143388  11.644   8.169  13.133
47183SOL    HW243389  11.774   8.111  13.080
47184SOL     OW43390   9.235   8.420  10.581
47184SOL    HW143391   9.189   8.486  10.529
47184SOL    HW243392   9.169   8.353  10.598
47185SOL     OW43393  10.816   9.774   5.914
47185SOL    HW143394  10.814   9.727   5.831
47185SOL    HW243395  10.894   9.742   5.958
47186SOL     OW43396   5.645   2.263   6.164
47186SOL    HW143397   5.688   2.243   6.247
47186SOL    HW243398   5.646   2.359   6.160
47187SOL     OW43399   6.960   7.560   2.663
47187SOL    HW143400   6.957   7.538   2.570
47187SOL    HW243401   7.026   7.629   2.669
47188SOL     OW43402  13.523   9.078  10.303
47188SOL    HW143403  13.451   9.017  10.309
47188SOL    HW243404  13.482   9.164  10.294
47189SOL     OW43405  14.324  11.930   8.804
47189SOL    HW143406  14.260  12.001   8.799
47189SOL    HW243407  14.370  11.945   8.886
47190SOL     OW43408   8.441   0.117   3.092
47190SOL    HW143409   8.356   0.074   3.089
47190SOL    HW243410   8.430   0.187   3.157
47191SOL     OW43411  14.667   1.333   8.713
47191SOL    HW143412  14.717   1.413   8.700
47191SOL    HW243413  14.733   1.266   8.732
47192SOL     OW43414   2.444  11.087  12.838
47192SOL    HW143415   2.375  11.096  12.904
47192SOL    HW243416   2.432  10.998  12.804
47193SOL     OW43417  14.103   4.447  13.136
47193SOL    HW143418  14.117   4.368  13.084
47193SOL    HW243419  14.012   4.443  13.163
47194SOL     OW43420  14.129   8.240  11.185
47194SOL    HW143421  14.084   8.204  11.261
47194SOL    HW243422  14.118   8.335  11.192
47195SOL     OW43423   3.442   8.827   2.502
47195SOL    HW143424   3.449   8.897   2.437
47195SOL    HW243425   3.526   8.783   2.498
47196SOL     OW43426   1.741   0.367   2.375
47196SOL    HW143427   1.709   0.350   2.286
47196SOL    HW243428   1.724   0.286   2.422
47197SOL     OW43429  11.993  13.628  13.978
47197SOL    HW143430  12.077  13.594  13.947
47197SOL    HW243431  11.987  13.715  13.941
47198SOL     OW43432   3.308   8.936   6.495
47198SOL    HW143433   3.266   8.924   6.410
47198SOL    HW243434   3.294   9.029   6.516
47199SOL     OW43435   8.027   1.255   5.942
47199SOL    HW143436   8.109   1.228   5.982
47199SOL    HW243437   7.998   1.330   5.995
47200SOL     OW43438  14.052  14.447   4.045
47200SOL    HW143439  14.077  14.477   4.133
47200SOL    HW243440  14.128  14.466   3.991
47201SOL     OW43441   0.203   9.864   4.183
47201SOL    HW143442   0.281   9.919   4.168
47201SOL    HW243443   0.183   9.875   4.276
47202SOL     OW43444  12.841  14.206   6.496
47202SOL    HW143445  12.759  14.254   6.509
47202SOL    HW243446  12.818  14.115   6.513
47203SOL     OW43447   0.852  14.793   6.874
47203SOL    HW143448   0.783  14.815   6.937
47203SOL    HW243449   0.906  14.872   6.869
47204SOL     OW43450  11.195  10.500   3.592
47204SOL    HW143451  11.194  10.543   3.506
47204SOL    HW243452  11.256  10.427   3.581
47205SOL     OW43453  12.012   3.379   5.259
47205SOL    HW143454  11.944   3.381   5.326
47205SOL    HW243455  11.965   3.358   5.178
47206SOL     OW43456   1.928   6.786  13.053
47206SOL    HW143457   1.921   6.691  13.063
47206SOL    HW243458   1.977   6.815  13.130
47207SOL     OW43459   5.710   6.969  14.691
47207SOL    HW143460   5.645   6.990  14.758
47207SOL    HW243461   5.737   6.880  14.710
47208SOL     OW43462  12.140  14.535  13.023
47208SOL    HW143463  12.172  14.602  12.962
47208SOL    HW243464  12.212  14.473  13.031
47209SOL     OW43465   3.832  12.161  12.061
47209SOL    HW143466   3.806  12.250  12.086
47209SOL    HW243467   3.749  12.112  12.060
47210SOL     OW43468  13.643   2.182   5.883
47210SOL    HW143469  13.559   2.216   5.852
47210SOL    HW243470  13.702   2.257   5.878
47211SOL     OW43471  12.781  11.487  13.329
47211SOL    HW143472  12.862  11.465  13.374
47211SOL    HW243473  12.718  11.421  13.360
47212SOL     OW43474   9.437   9.933  12.729
47212SOL    HW143475   9.466   9.961  12.642
47212SOL    HW243476   9.468  10.002  12.788
47213SOL     OW43477   7.090   4.245   9.633
47213SOL    HW143478   7.096   4.338   9.656
47213SOL    HW243479   7.077   4.200   9.717
47214SOL     OW43480  10.019   9.102   6.943
47214SOL    HW143481  10.076   9.159   6.892
47214SOL    HW243482   9.953   9.072   6.880
47215SOL     OW43483   1.999   2.068   6.849
47215SOL    HW143484   2.030   2.145   6.802
47215SOL    HW243485   1.906   2.063   6.826
47216SOL     OW43486  13.583   1.806  11.842
47216SOL    HW143487  13.598   1.718  11.876
47216SOL    HW243488  13.505   1.797  11.786
47217SOL     OW43489   2.683  10.379  11.826
47217SOL    HW143490   2.634  10.344  11.900
47217SOL    HW243491   2.679  10.310  11.759
47218SOL     OW43492   5.804   0.967  10.187
47218SOL    HW143493   5.796   1.060  10.164
47218SOL    HW243494   5.863   0.966  10.263
47219SOL     OW43495   8.721  13.679  11.237
47219SOL    HW143496   8.736  13.589  11.267
47219SOL    HW243497   8.721  13.732  11.316
47220SOL     OW43498  12.976   3.517  13.925
47220SOL    HW143499  12.903   3.573  13.900
47220SOL    HW243500  12.939   3.455  13.989
47221SOL     OW43501   2.922   4.870   3.127
47221SOL    HW143502   2.937   4.799   3.189
47221SOL    HW243503   2.867   4.831   3.059
47222SOL     OW43504   2.243   8.486  13.221
47222SOL    HW143505   2.315   8.442  13.267
47222SOL    HW243506   2.165   8.436  13.246
47223SOL     OW43507   5.597   7.277   1.253
47223SOL    HW143508   5.600   7.367   1.220
47223SOL    HW243509   5.689   7.253   1.264
47224SOL     OW43510   0.546   4.210   1.854
47224SOL    HW143511   0.588   4.131   1.888
47224SOL    HW243512   0.608   4.280   1.874
47225SOL     OW43513  12.008   3.150   4.913
47225SOL    HW143514  11.960   3.092   4.972
47225SOL    HW243515  12.088   3.101   4.891
47226SOL     OW43516   8.727   9.196  11.919
47226SOL    HW143517   8.773   9.111  11.921
47226SOL    HW243518   8.636   9.173  11.902
47227SOL     OW43519   9.463   9.913  14.507
47227SOL    HW143520   9.373   9.938  14.531
47227SOL    HW243521   9.489   9.850  14.574
47228SOL     OW43522   4.926   0.183   2.293
47228SOL    HW143523   4.935   0.276   2.276
47228SOL    HW243524   4.833   0.171   2.312
47229SOL     OW43525   2.607   9.241   9.887
47229SOL    HW143526   2.645   9.154   9.898
47229SOL    HW243527   2.624   9.285   9.971
47230SOL     OW43528  10.232  12.680   1.603
47230SOL    HW143529  10.318  12.716   1.581
47230SOL    HW243530  10.251  12.608   1.662
47231SOL     OW43531  11.222   8.135  13.974
47231SOL    HW143532  11.135   8.164  13.945
47231SOL    HW243533  11.269   8.216  13.994
47232SOL     OW43534   5.839   6.987   1.216
47232SOL    HW143535   5.859   6.895   1.199
47232SOL    HW243536   5.744   6.993   1.204
47233SOL     OW43537   7.615  13.004   1.461
47233SOL    HW143538   7.617  12.923   1.411
47233SOL    HW243539   7.654  12.980   1.546
47234SOL     OW43540   2.289   3.216   5.425
47234SOL    HW143541   2.311   3.154   5.355
47234SOL    HW243542   2.257   3.294   5.379
47235SOL     OW43543   3.235   2.862  13.010
47235SOL    HW143544   3.197   2.934  13.061
47235SOL    HW243545   3.270   2.802  13.076
47236SOL     OW43546   0.948   9.163   5.575
47236SOL    HW143547   1.007   9.164   5.500
47236SOL    HW243548   0.870   9.211   5.544
47237SOL     OW43549   3.063   5.796  11.627
47237SOL    HW143550   3.147   5.814  11.670
47237SOL    HW243551   3.084   5.794  11.533
47238SOL     OW43552  11.006   5.473   6.550
47238SOL    HW143553  11.044   5.472   6.463
47238SOL    HW243554  11.075   5.508   6.607
47239SOL     OW43555   7.109   8.292   6.856
47239SOL    HW143556   7.115   8.297   6.951
47239SOL    HW243557   7.145   8.375   6.824
47240SOL     OW43558   0.056   2.149   7.765
47240SOL    HW143559   0.047   2.092   7.689
47240SOL    HW243560  14.870   2.216   7.752
47241SOL     OW43561  12.519   5.615   3.958
47241SOL    HW143562  12.428   5.624   3.929
47241SOL    HW243563  12.517   5.546   4.024
47242SOL     OW43564   3.733  12.972  13.627
47242SOL    HW143565   3.815  13.017  13.610
47242SOL    HW243566   3.751  12.881  13.607
47243SOL     OW43567   6.279  12.429   7.617
47243SOL    HW143568   6.268  12.367   7.545
47243SOL    HW243569   6.191  12.438   7.654
47244SOL     OW43570   8.133  14.086   7.546
47244SOL    HW143571   8.157  14.165   7.595
47244SOL    HW243572   8.122  14.019   7.614
47245SOL     OW43573   0.131   2.009   4.120
47245SOL    HW143574   0.131   1.921   4.081
47245SOL    HW243575   0.073   2.060   4.064
47246SOL     OW43576  11.747  11.969   3.662
47246SOL    HW143577  11.687  12.037   3.633
47246SOL    HW243578  11.706  11.887   3.635
47247SOL     OW43579  10.710  14.467   3.386
47247SOL    HW143580  10.691  14.522   3.310
47247SOL    HW243581  10.717  14.379   3.350
47248SOL     OW43582  14.334   6.645   1.363
47248SOL    HW143583  14.241   6.667   1.370
47248SOL    HW243584  14.377   6.703   1.426
47249SOL     OW43585   1.839  14.730  14.211
47249SOL    HW143586   1.856  14.638  14.229
47249SOL    HW243587   1.831  14.771  14.297
47250SOL     OW43588   6.834   0.299   4.115
47250SOL    HW143589   6.926   0.292   4.142
47250SOL    HW243590   6.785   0.277   4.194
47251SOL     OW43591   6.774   7.940  11.223
47251SOL    HW143592   6.795   7.983  11.141
47251SOL    HW243593   6.751   8.011  11.283
47252SOL     OW43594   9.877   0.725   1.181
47252SOL    HW143595   9.803   0.772   1.219
47252SOL    HW243596   9.849   0.633   1.181
47253SOL     OW43597  14.398  11.427  11.541
47253SOL    HW143598  14.457  11.500  11.523
47253SOL    HW243599  14.324  11.467  11.588
47254SOL     OW43600   8.480  14.842   4.134
47254SOL    HW143601   8.504  14.755   4.100
47254SOL    HW243602   8.471   0.015   4.057
47255SOL     OW43603   4.297   4.027   4.273
47255SOL    HW143604   4.385   3.994   4.293
47255SOL    HW243605   4.299   4.043   4.178
47256SOL     OW43606  11.122   9.659   2.200
47256SOL    HW143607  11.055   9.698   2.256
47256SOL    HW243608  11.185   9.621   2.261
47257SOL     OW43609  10.216   6.693  10.016
47257SOL    HW143610  10.133   6.741  10.021
47257SOL    HW243611  10.256   6.706  10.102
47258SOL     OW43612   2.792   5.341   0.182
47258SOL    HW143613   2.717   5.376   0.135
47258SOL    HW243614   2.816   5.410   0.244
47259SOL     OW43615  11.217  10.189   2.016
47259SOL    HW143616  11.125  10.212   2.029
47259SOL    HW243617  11.214  10.103   1.973
47260SOL     OW43618   6.428   4.242   2.185
47260SOL    HW143619   6.411   4.317   2.127
47260SOL    HW243620   6.507   4.267   2.233
47261SOL     OW43621   4.588   2.326  13.428
47261SOL    HW143622   4.555   2.349  13.515
47261SOL    HW243623   4.628   2.407  13.396
47262SOL     OW43624   1.120   5.779   4.118
47262SOL    HW143625   1.093   5.688   4.110
47262SOL    HW243626   1.102   5.817   4.032
47263SOL     OW43627  11.369   1.555   3.467
47263SOL    HW143628  11.326   1.637   3.443
47263SOL    HW243629  11.300   1.502   3.507
47264SOL     OW43630   1.828   2.456  12.570
47264SOL    HW143631   1.735   2.436  12.563
47264SOL    HW243632   1.863   2.436  12.484
47265SOL     OW43633  14.340   1.668   0.386
47265SOL    HW143634  14.260   1.710   0.416
47265SOL    HW243635  14.313   1.580   0.360
47266SOL     OW43636   5.654  12.991   1.676
47266SOL    HW143637   5.579  12.948   1.717
47266SOL    HW243638   5.630  12.998   1.584
47267SOL     OW43639   0.079   5.123   8.602
47267SOL    HW143640   0.142   5.107   8.672
47267SOL    HW243641  14.876   5.120   8.646
47268SOL     OW43642   2.303  10.127   6.813
47268SOL    HW143643   2.393  10.095   6.804
47268SOL    HW243644   2.267  10.077   6.887
47269SOL     OW43645   7.491   3.069   1.272
47269SOL    HW143646   7.503   2.975   1.289
47269SOL    HW243647   7.421   3.072   1.207
47270SOL     OW43648  11.832   4.612   7.814
47270SOL    HW143649  11.899   4.662   7.860
47270SOL    HW243650  11.785   4.677   7.762
47271SOL     OW43651   9.845   8.092  10.925
47271SOL    HW143652   9.909   8.116  10.858
47271SOL    HW243653   9.877   8.134  11.004
47272SOL     OW43654   7.611   2.922   7.159
47272SOL    HW143655   7.611   2.986   7.230
47272SOL    HW243656   7.695   2.934   7.116
47273SOL     OW43657  13.232   0.875  14.028
47273SOL    HW143658  13.306   0.912  14.076
47273SOL    HW243659  13.244   0.780  14.035
47274SOL     OW43660  11.701   0.592  10.854
47274SOL    HW143661  11.790   0.614  10.880
47274SOL    HW243662  11.645   0.654  10.902
47275SOL     OW43663   8.229   7.505   9.367
47275SOL    HW143664   8.157   7.488   9.427
47275SOL    HW243665   8.267   7.588   9.397
47276SOL     OW43666  13.354   9.947   3.996
47276SOL    HW143667  13.365  10.038   4.021
47276SOL    HW243668  13.374   9.897   4.075
47277SOL     OW43669  14.361   8.160  11.043
47277SOL    HW143670  14.279   8.168  11.091
47277SOL    HW243671  14.414   8.234  11.073
47278SOL     OW43672   2.314  13.933   1.914
47278SOL    HW143673   2.295  14.019   1.876
47278SOL    HW243674   2.303  13.947   2.009
47279SOL     OW43675   2.087   5.889   8.153
47279SOL    HW143676   2.151   5.942   8.104
47279SOL    HW243677   2.069   5.814   8.096
47280SOL     OW43678   6.787   9.229   7.914
47280SOL    HW143679   6.738   9.188   7.842
47280SOL    HW243680   6.767   9.323   7.905
47281SOL     OW43681  10.382  14.670  14.622
47281SOL    HW143682  10.451  14.715  14.573
47281SOL    HW243683  10.360  14.731  14.693
47282SOL     OW43684  13.830  12.413   8.853
47282SOL    HW143685  13.898  12.480   8.844
47282SOL    HW243686  13.849  12.371   8.937
47283SOL     OW43687   0.627  13.693  11.081
47283SOL    HW143688   0.585  13.652  11.157
47283SOL    HW243689   0.604  13.785  11.088
47284SOL     OW43690   8.399  11.853  14.312
47284SOL    HW143691   8.338  11.912  14.269
47284SOL    HW243692   8.481  11.862  14.262
47285SOL     OW43693  11.225   6.387   9.960
47285SOL    HW143694  11.160   6.320   9.941
47285SOL    HW243695  11.303   6.359   9.912
47286SOL     OW43696  10.251   2.915   2.842
47286SOL    HW143697  10.310   2.872   2.780
47286SOL    HW243698  10.308   2.971   2.895
47287SOL     OW43699   2.181  13.746  10.718
47287SOL    HW143700   2.116  13.769  10.784
47287SOL    HW243701   2.130  13.721  10.641
47288SOL     OW43702  11.333   4.391  11.916
47288SOL    HW143703  11.368   4.302  11.909
47288SOL    HW243704  11.371   4.438  11.842
47289SOL     OW43705  11.627   9.413   1.461
47289SOL    HW143706  11.719   9.441   1.468
47289SOL    HW243707  11.577   9.492   1.478
47290SOL     OW43708  14.493  14.173  11.525
47290SOL    HW143709  14.539  14.237  11.580
47290SOL    HW243710  14.401  14.182  11.550
47291SOL     OW43711   1.009   7.627  11.441
47291SOL    HW143712   1.001   7.664  11.529
47291SOL    HW243713   1.060   7.547  11.454
47292SOL     OW43714   7.598  14.223   3.814
47292SOL    HW143715   7.570  14.311   3.840
47292SOL    HW243716   7.648  14.237   3.734
47293SOL     OW43717  12.446   2.315  13.406
47293SOL    HW143718  12.469   2.223  13.409
47293SOL    HW243719  12.391   2.329  13.484
47294SOL     OW43720   3.578   8.815  12.725
47294SOL    HW143721   3.614   8.865  12.652
47294SOL    HW243722   3.655   8.775  12.766
47295SOL     OW43723   7.413   5.144   8.638
47295SOL    HW143724   7.341   5.126   8.577
47295SOL    HW243725   7.486   5.170   8.582
47296SOL     OW43726  11.579  13.031   0.313
47296SOL    HW143727  11.670  13.057   0.305
47296SOL    HW243728  11.550  13.069   0.396
47297SOL     OW43729   7.844   8.190   4.376
47297SOL    HW143730   7.898   8.182   4.454
47297SOL    HW243731   7.875   8.121   4.318
47298SOL     OW43732   1.406   3.970   5.927
47298SOL    HW143733   1.445   4.045   5.882
47298SOL    HW243734   1.476   3.935   5.982
47299SOL     OW43735   0.246   9.670   4.435
47299SOL    HW143736   0.214   9.589   4.395
47299SOL    HW243737   0.190   9.685   4.510
47300SOL     OW43738  14.325  11.276   0.803
47300SOL    HW143739  14.265  11.215   0.846
47300SOL    HW243740  14.303  11.270   0.710
47301SOL     OW43741  10.812   0.050   8.683
47301SOL    HW143742  10.753   0.059   8.758
47301SOL    HW243743  10.839   0.139   8.663
47302SOL     OW43744   9.635   4.911   1.381
47302SOL    HW143745   9.674   4.997   1.364
47302SOL    HW243746   9.558   4.907   1.325
47303SOL     OW43747   8.531   3.674   7.685
47303SOL    HW143748   8.605   3.717   7.727
47303SOL    HW243749   8.526   3.588   7.727
47304SOL     OW43750   1.070  14.252  10.704
47304SOL    HW143751   1.082  14.338  10.744
47304SOL    HW243752   1.141  14.198  10.739
47305SOL     OW43753   5.219   2.389   0.552
47305SOL    HW143754   5.174   2.304   0.551
47305SOL    HW243755   5.155   2.449   0.591
47306SOL     OW43756  12.995  12.610   8.441
47306SOL    HW143757  12.922  12.611   8.378
47306SOL    HW243758  13.012  12.702   8.459
47307SOL     OW43759   2.350   1.852   7.487
47307SOL    HW143760   2.372   1.790   7.557
47307SOL    HW243761   2.280   1.905   7.524
47308SOL     OW43762   5.273  11.576   8.258
47308SOL    HW143763   5.223  11.524   8.320
47308SOL    HW243764   5.221  11.576   8.178
47309SOL     OW43765  12.805   2.177   9.155
47309SOL    HW143766  12.762   2.113   9.099
47309SOL    HW243767  12.750   2.182   9.233
47310SOL     OW43768   7.191   5.740  11.513
47310SOL    HW143769   7.169   5.651  11.486
47310SOL    HW243770   7.130   5.759  11.584
47311SOL     OW43771   7.679   3.572  11.549
47311SOL    HW143772   7.757   3.606  11.594
47311SOL    HW243773   7.636   3.649  11.514
47312SOL     OW43774  12.730   7.374  10.707
47312SOL    HW143775  12.748   7.349  10.798
47312SOL    HW243776  12.797   7.329  10.656
47313SOL     OW43777  11.834   2.442   3.264
47313SOL    HW143778  11.840   2.454   3.359
47313SOL    HW243779  11.743   2.461   3.242
47314SOL     OW43780  11.758  10.006  12.608
47314SOL    HW143781  11.671  10.027  12.642
47314SOL    HW243782  11.817  10.020  12.683
47315SOL     OW43783  14.623  12.705   7.402
47315SOL    HW143784  14.575  12.782   7.431
47315SOL    HW243785  14.555  12.638   7.390
47316SOL     OW43786   7.137   8.290  13.910
47316SOL    HW143787   7.119   8.295  13.816
47316SOL    HW243788   7.117   8.378  13.943
47317SOL     OW43789  13.605   5.183   1.225
47317SOL    HW143790  13.540   5.250   1.204
47317SOL    HW243791  13.689   5.224   1.203
47318SOL     OW43792   2.781   2.947   3.750
47318SOL    HW143793   2.821   2.979   3.669
47318SOL    HW243794   2.751   2.858   3.729
47319SOL     OW43795  13.760   9.525  12.727
47319SOL    HW143796  13.732   9.603  12.775
47319SOL    HW243797  13.851   9.512  12.754
47320SOL     OW43798   7.338  13.478  12.639
47320SOL    HW143799   7.399  13.519  12.701
47320SOL    HW243800   7.354  13.384  12.646
47321SOL     OW43801   0.936   3.699  10.383
47321SOL    HW143802   0.857   3.671  10.336
47321SOL    HW243803   0.904   3.756  10.453
47322SOL     OW43804   3.624  13.750   8.365
47322SOL    HW143805   3.550  13.774   8.421
47322SOL    HW243806   3.609  13.657   8.344
47323SOL     OW43807   0.740   4.228   7.467
47323SOL    HW143808   0.806   4.160   7.482
47323SOL    HW243809   0.781   4.308   7.502
47324SOL     OW43810   9.467   0.201  14.490
47324SOL    HW143811   9.504   0.116  14.466
47324SOL    HW243812   9.500   0.218  14.579
47325SOL     OW43813  10.249   2.384   0.776
47325SOL    HW143814  10.234   2.478   0.793
47325SOL    HW243815  10.269   2.348   0.863
47326SOL     OW43816  13.315   8.577  13.484
47326SOL    HW143817  13.246   8.640  13.507
47326SOL    HW243818  13.323   8.522  13.562
47327SOL     OW43819   5.552  13.848  11.865
47327SOL    HW143820   5.513  13.764  11.841
47327SOL    HW243821   5.646  13.836  11.849
47328SOL     OW43822   1.614  13.001   5.078
47328SOL    HW143823   1.611  12.972   5.169
47328SOL    HW243824   1.707  13.010   5.058
47329SOL     OW43825   6.068   0.623   9.403
47329SOL    HW143826   6.082   0.718   9.398
47329SOL    HW243827   6.039   0.608   9.493
47330SOL     OW43828   4.768  10.170   9.113
47330SOL    HW143829   4.749  10.084   9.151
47330SOL    HW243830   4.683  10.207   9.092
47331SOL     OW43831  10.261   2.215  11.291
47331SOL    HW143832  10.222   2.128  11.302
47331SOL    HW243833  10.330   2.202  11.227
47332SOL     OW43834   9.468  11.422  10.393
47332SOL    HW143835   9.557  11.452  10.407
47332SOL    HW243836   9.447  11.451  10.304
47333SOL     OW43837   9.737   8.951  10.481
47333SOL    HW143838   9.724   8.860  10.456
47333SOL    HW243839   9.816   8.978  10.436
47334SOL     OW43840   6.217   9.339   6.295
47334SOL    HW143841   6.301   9.295   6.309
47334SOL    HW243842   6.239   9.431   6.288
47335SOL     OW43843   5.927   7.764  12.810
47335SOL    HW143844   5.954   7.687  12.761
47335SOL    HW243845   5.989   7.769  12.883
47336SOL     OW43846   9.997  13.235   1.115
47336SOL    HW143847   9.908  13.223   1.147
47336SOL    HW243848  10.005  13.330   1.099
47337SOL     OW43849   6.672   0.241  10.112
47337SOL    HW143850   6.689   0.329  10.144
47337SOL    HW243851   6.577   0.231  10.118
47338SOL     OW43852   2.625   1.150   5.976
47338SOL    HW143853   2.704   1.119   6.021
47338SOL    HW243854   2.558   1.085   5.999
47339SOL     OW43855   4.790   5.448  10.589
47339SOL    HW143856   4.848   5.373  10.583
47339SOL    HW243857   4.843   5.516  10.631
47340SOL     OW43858   5.968  13.044   2.890
47340SOL    HW143859   5.937  13.126   2.851
47340SOL    HW243860   6.054  13.067   2.926
47341SOL     OW43861   4.832  14.819   2.960
47341SOL    HW143862   4.907  14.801   2.903
47341SOL    HW243863   4.784   0.006   2.915
47342SOL     OW43864  13.890   8.264   7.725
47342SOL    HW143865  13.889   8.269   7.821
47342SOL    HW243866  13.922   8.349   7.697
47343SOL     OW43867   1.669  14.880   2.073
47343SOL    HW143868   1.627  14.815   2.016
47343SOL    HW243869   1.747  14.836   2.106
47344SOL     OW43870  14.007   1.473  11.299
47344SOL    HW143871  14.033   1.481  11.391
47344SOL    HW243872  14.089   1.469  11.251
47345SOL     OW43873   5.717   0.120  11.103
47345SOL    HW143874   5.696   0.029  11.122
47345SOL    HW243875   5.669   0.139  11.022
47346SOL     OW43876   6.160  11.117   5.610
47346SOL    HW143877   6.221  11.190   5.598
47346SOL    HW243878   6.088  11.136   5.550
47347SOL     OW43879   9.012   7.989  12.936
47347SOL    HW143880   8.949   8.020  12.871
47347SOL    HW243881   8.958   7.958  13.009
47348SOL     OW43882   9.737  10.600   8.477
47348SOL    HW143883   9.691  10.619   8.558
47348SOL    HW243884   9.786  10.680   8.457
47349SOL     OW43885  12.708  10.240  12.079
47349SOL    HW143886  12.750  10.204  12.157
47349SOL    HW243887  12.741  10.187  12.006
47350SOL     OW43888   7.574   0.211   0.166
47350SOL    HW143889   7.597   0.197   0.074
47350SOL    HW243890   7.486   0.250   0.163
47351SOL     OW43891  13.484  11.922  11.119
47351SOL    HW143892  13.449  11.943  11.205
47351SOL    HW243893  13.465  11.829  11.108
47352SOL     OW43894   3.413   4.634   6.175
47352SOL    HW143895   3.326   4.665   6.201
47352SOL    HW243896   3.469   4.711   6.186
47353SOL     OW43897   0.257   8.205   8.094
47353SOL    HW143898   0.334   8.261   8.092
47353SOL    HW243899   0.216   8.218   8.008
47354SOL     OW43900   2.925   7.794  10.555
47354SOL    HW143901   2.967   7.758  10.477
47354SOL    HW243902   2.991   7.783  10.624
47355SOL     OW43903  13.303  10.070  10.103
47355SOL    HW143904  13.246  10.145  10.123
47355SOL    HW243905  13.386  10.109  10.077
47356SOL     OW43906   0.742   8.081   5.351
47356SOL    HW143907   0.698   8.129   5.421
47356SOL    HW243908   0.834   8.081   5.376
47357SOL     OW43909  12.231   9.472   1.466
47357SOL    HW143910  12.141   9.482   1.496
47357SOL    HW243911  12.282   9.458   1.546
47358SOL     OW43912   2.131   3.190   7.458
47358SOL    HW143913   2.122   3.205   7.552
47358SOL    HW243914   2.141   3.278   7.421
47359SOL     OW43915   5.498   7.444   4.588
47359SOL    HW143916   5.477   7.537   4.595
47359SOL    HW243917   5.459   7.404   4.666
47360SOL     OW43918   1.325   1.696  11.109
47360SOL    HW143919   1.333   1.783  11.070
47360SOL    HW243920   1.279   1.711  11.192
47361SOL     OW43921  14.697  13.559   3.258
47361SOL    HW143922  14.764  13.592   3.318
47361SOL    HW243923  14.737  13.481   3.218
47362SOL     OW43924   0.159  13.412  11.486
47362SOL    HW143925   0.182  13.505  11.490
47362SOL    HW243926   0.157  13.391  11.392
47363SOL     OW43927  11.579   3.335   9.689
47363SOL    HW143928  11.621   3.291   9.615
47363SOL    HW243929  11.579   3.428   9.665
47364SOL     OW43930   3.857   4.740  14.332
47364SOL    HW143931   3.853   4.805  14.262
47364SOL    HW243932   3.938   4.759  14.379
47365SOL     OW43933   5.405   3.041   3.291
47365SOL    HW143934   5.349   3.001   3.358
47365SOL    HW243935   5.352   3.112   3.255
47366SOL     OW43936   4.187  12.884   0.368
47366SOL    HW143937   4.238  12.911   0.444
47366SOL    HW243938   4.178  12.790   0.377
47367SOL     OW43939   0.153   4.149  12.537
47367SOL    HW143940   0.228   4.156  12.477
47367SOL    HW243941   0.160   4.060  12.572
47368SOL     OW43942   9.077   5.840  13.259
47368SOL    HW143943   9.029   5.922  13.271
47368SOL    HW243944   9.133   5.834  13.337
47369SOL     OW43945   2.287  10.654   5.074
47369SOL    HW143946   2.233  10.662   4.995
47369SOL    HW243947   2.321  10.742   5.089
47370SOL     OW43948   5.264   3.015   2.334
47370SOL    HW143949   5.265   3.005   2.239
47370SOL    HW243950   5.277   3.109   2.349
47371SOL     OW43951   5.240   2.415   7.877
47371SOL    HW143952   5.269   2.499   7.842
47371SOL    HW243953   5.159   2.395   7.828
47372SOL     OW43954   5.943  10.658   0.142
47372SOL    HW143955   5.960  10.706   0.223
47372SOL    HW243956   5.961  10.566   0.165
47373SOL     OW43957   9.920   3.710   1.465
47373SOL    HW143958   9.827   3.692   1.451
47373SOL    HW243959   9.929   3.803   1.444
47374SOL     OW43960  12.791  14.378   5.314
47374SOL    HW143961  12.721  14.321   5.344
47374SOL    HW243962  12.868  14.321   5.307
47375SOL     OW43963   4.728   5.668  11.004
47375SOL    HW143964   4.788   5.692  11.075
47375SOL    HW243965   4.656   5.623  11.048
47376SOL     OW43966   8.274   3.937  13.027
47376SOL    HW143967   8.204   3.909  13.086
47376SOL    HW243968   8.340   3.868  13.035
47377SOL     OW43969   8.905  11.684  13.946
47377SOL    HW143970   8.872  11.600  13.915
47377SOL    HW243971   8.929  11.731  13.867
47378SOL     OW43972  14.508   7.831  12.690
47378SOL    HW143973  14.478   7.917  12.660
47378SOL    HW243974  14.444   7.770  12.656
47379SOL     OW43975  10.825   8.676  11.113
47379SOL    HW143976  10.850   8.767  11.132
47379SOL    HW243977  10.795   8.642  11.198
47380SOL     OW43978   9.732   7.597   9.457
47380SOL    HW143979   9.827   7.605   9.451
47380SOL    HW243980   9.700   7.622   9.369
47381SOL     OW43981   2.259   0.058  14.448
47381SOL    HW143982   2.272   0.139  14.399
47381SOL    HW243983   2.346   0.018  14.452
47382SOL     OW43984  11.211   6.564   0.770
47382SOL    HW143985  11.198   6.625   0.698
47382SOL    HW243986  11.259   6.491   0.732
47383SOL     OW43987   9.471   2.966  12.220
47383SOL    HW143988   9.537   2.932  12.161
47383SOL    HW243989   9.421   3.028  12.167
47384SOL     OW43990  14.712   1.857  13.467
47384SOL    HW143991  14.632   1.900  13.438
47384SOL    HW243992  14.688   1.766  13.479
47385SOL     OW43993   8.797  10.486   4.366
47385SOL    HW143994   8.779  10.425   4.295
47385SOL    HW243995   8.881  10.457   4.402
47386SOL     OW43996   7.915   9.086   5.549
47386SOL    HW143997   8.004   9.070   5.518
47386SOL    HW243998   7.867   9.113   5.471
47387SOL     OW43999  10.929  11.700   8.867
47387SOL    HW144000  10.910  11.764   8.798
47387SOL    HW244001  11.019  11.673   8.850
47388SOL     OW44002   4.491   0.147   5.203
47388SOL    HW144003   4.402   0.166   5.172
47388SOL    HW244004   4.535   0.232   5.202
47389SOL     OW44005   2.263  12.564  14.132
47389SOL    HW144006   2.311  12.512  14.068
47389SOL    HW244007   2.313  12.645  14.140
47390SOL     OW44008  13.362  12.640  12.821
47390SOL    HW144009  13.412  12.592  12.755
47390SOL    HW244010  13.280  12.662  12.777
47391SOL     OW44011   9.896   9.790  10.949
47391SOL    HW144012   9.878   9.877  10.915
47391SOL    HW244013   9.890   9.732  10.873
47392SOL     OW44014   8.763  11.473  12.064
47392SOL    HW144015   8.703  11.455  11.992
47392SOL    HW244016   8.815  11.393  12.073
47393SOL     OW44017   7.596  12.735   1.369
47393SOL    HW144018   7.655  12.765   1.300
47393SOL    HW244019   7.517  12.789   1.358
47394SOL     OW44020   8.142   5.539  11.977
47394SOL    HW144021   8.201   5.473  11.941
47394SOL    HW244022   8.073   5.548  11.911
47395SOL     OW44023   9.189   3.494   3.936
47395SOL    HW144024   9.119   3.533   3.883
47395SOL    HW244025   9.148   3.473   4.019
47396SOL     OW44026  10.986   4.919   8.403
47396SOL    HW144027  11.006   4.931   8.310
47396SOL    HW244028  10.891   4.909   8.406
47397SOL     OW44029   4.610  11.525   7.939
47397SOL    HW144030   4.556  11.488   8.009
47397SOL    HW244031   4.658  11.450   7.904
47398SOL     OW44032   7.021   7.353  12.673
47398SOL    HW144033   7.047   7.355  12.765
47398SOL    HW244034   7.102   7.364  12.625
47399SOL     OW44035  13.724   2.312   5.030
47399SOL    HW144036  13.767   2.235   5.069
47399SOL    HW244037  13.632   2.300   5.051
47400SOL     OW44038  11.855   2.596   5.145
47400SOL    HW144039  11.912   2.599   5.222
47400SOL    HW244040  11.779   2.649   5.170
47401SOL     OW44041   4.794   1.680   3.423
47401SOL    HW144042   4.790   1.774   3.403
47401SOL    HW244043   4.888   1.661   3.431
47402SOL     OW44044  10.077  14.215   5.652
47402SOL    HW144045  10.139  14.285   5.634
47402SOL    HW244046  10.013  14.254   5.713
47403SOL     OW44047   2.565   8.263   1.608
47403SOL    HW144048   2.513   8.276   1.528
47403SOL    HW244049   2.515   8.200   1.660
47404SOL     OW44050  11.808  10.538   5.462
47404SOL    HW144051  11.800  10.486   5.542
47404SOL    HW244052  11.780  10.626   5.487
47405SOL     OW44053   5.454   8.553   3.947
47405SOL    HW144054   5.370   8.550   3.902
47405SOL    HW244055   5.501   8.625   3.906
47406SOL     OW44056   7.145   7.896  10.701
47406SOL    HW144057   7.123   7.953  10.627
47406SOL    HW244058   7.224   7.936  10.738
47407SOL     OW44059  14.411  14.727  12.523
47407SOL    HW144060  14.334  14.785  12.527
47407SOL    HW244061  14.419  14.704  12.431
47408SOL     OW44062   3.648   7.801  12.092
47408SOL    HW144063   3.711   7.822  12.161
47408SOL    HW244064   3.678   7.849  12.015
47409SOL     OW44065  12.678   6.778   5.968
47409SOL    HW144066  12.690   6.778   6.063
47409SOL    HW244067  12.762   6.807   5.933
47410SOL     OW44068  10.586   6.315  10.034
47410SOL    HW144069  10.609   6.241  10.091
47410SOL    HW244070  10.606   6.393  10.086
47411SOL     OW44071   7.934   0.942   2.148
47411SOL    HW144072   7.949   0.872   2.211
47411SOL    HW244073   7.856   0.915   2.100
47412SOL     OW44074   9.124   9.556   3.236
47412SOL    HW144075   9.179   9.530   3.162
47412SOL    HW244076   9.072   9.478   3.256
47413SOL     OW44077  13.362  12.720  11.050
47413SOL    HW144078  13.408  12.784  11.104
47413SOL    HW244079  13.348  12.645  11.108
47414SOL     OW44080   7.424   3.081   5.245
47414SOL    HW144081   7.448   3.042   5.160
47414SOL    HW244082   7.336   3.048   5.262
47415SOL     OW44083   5.976  11.270   7.290
47415SOL    HW144084   5.947  11.276   7.381
47415SOL    HW244085   5.899  11.297   7.239
47416SOL     OW44086   2.892  10.143   0.948
47416SOL    HW144087   2.797  10.148   0.942
47416SOL    HW244088   2.923  10.194   0.874
47417SOL     OW44089   1.843  11.983   1.033
47417SOL    HW144090   1.798  12.057   0.993
47417SOL    HW244091   1.813  11.982   1.124
47418SOL     OW44092   6.035   1.212   3.610
47418SOL    HW144093   6.001   1.202   3.699
47418SOL    HW244094   6.039   1.306   3.596
47419SOL     OW44095  12.244  11.260   9.987
47419SOL    HW144096  12.312  11.312  10.030
47419SOL    HW244097  12.189  11.228  10.059
47420SOL     OW44098   2.821   2.165   0.337
47420SOL    HW144099   2.847   2.215   0.259
47420SOL    HW244100   2.901   2.123   0.366
47421SOL     OW44101  11.345   9.786   9.807
47421SOL    HW144102  11.322   9.871   9.845
47421SOL    HW244103  11.437   9.773   9.831
47422SOL     OW44104   8.974  13.650  13.666
47422SOL    HW144105   8.960  13.745  13.669
47422SOL    HW244106   8.913  13.615  13.730
47423SOL     OW44107  11.017   3.276   5.655
47423SOL    HW144108  11.086   3.330   5.615
47423SOL    HW244109  10.947   3.275   5.590
47424SOL     OW44110   1.163   4.965  12.313
47424SOL    HW144111   1.098   4.946  12.381
47424SOL    HW244112   1.134   4.913  12.238
47425SOL     OW44113   6.528   1.645   8.958
47425SOL    HW144114   6.479   1.660   9.039
47425SOL    HW244115   6.526   1.550   8.945
47426SOL     OW44116   8.836   2.373   7.837
47426SOL    HW144117   8.916   2.336   7.873
47426SOL    HW244118   8.837   2.348   7.744
47427SOL     OW44119   4.844  10.080  14.826
47427SOL    HW144120   4.872  10.171  14.820
47427SOL    HW244121   4.907  10.032  14.774
47428SOL     OW44122   4.793  12.642   8.364
47428SOL    HW144123   4.827  12.705   8.300
47428SOL    HW244124   4.708  12.678   8.390
47429SOL     OW44125   7.602   2.717   5.125
47429SOL    HW144126   7.575   2.636   5.083
47429SOL    HW244127   7.691   2.700   5.156
47430SOL     OW44128  10.776  11.227   4.930
47430SOL    HW144129  10.840  11.297   4.943
47430SOL    HW244130  10.726  11.225   5.012
47431SOL     OW44131  11.297   7.575   5.346
47431SOL    HW144132  11.241   7.510   5.389
47431SOL    HW244133  11.344   7.617   5.418
47432SOL     OW44134   6.742  14.260   8.584
47432SOL    HW144135   6.662  14.216   8.611
47432SOL    HW244136   6.775  14.208   8.512
47433SOL     OW44137   8.762   0.729   9.085
47433SOL    HW144138   8.680   0.736   9.134
47433SOL    HW244139   8.826   0.696   9.149
47434SOL     OW44140  14.312   0.445  11.174
47434SOL    HW144141  14.291   0.357  11.206
47434SOL    HW244142  14.404   0.440  11.148
47435SOL     OW44143  14.738  11.679   9.679
47435SOL    HW144144  14.705  11.768   9.662
47435SOL    HW244145  14.832  11.686   9.663
47436SOL     OW44146  13.131  13.493   9.194
47436SOL    HW144147  13.223  13.517   9.179
47436SOL    HW244148  13.081  13.565   9.156
47437SOL     OW44149  10.996  10.924  11.115
47437SOL    HW144150  10.956  10.854  11.063
47437SOL    HW244151  10.922  10.979  11.141
47438SOL     OW44152   3.300   6.908   8.252
47438SOL    HW144153   3.307   6.895   8.347
47438SOL    HW244154   3.209   6.935   8.239
47439SOL     OW44155  12.775  11.569   5.232
47439SOL    HW144156  12.821  11.604   5.156
47439SOL    HW244157  12.716  11.640   5.259
47440SOL     OW44158  12.417   0.381   6.521
47440SOL    HW144159  12.336   0.335   6.498
47440SOL    HW244160  12.487   0.324   6.489
47441SOL     OW44161   5.919   1.967  13.210
47441SOL    HW144162   5.958   1.974  13.297
47441SOL    HW244163   5.853   1.898  13.219
47442SOL     OW44164  11.037  14.454   0.142
47442SOL    HW144165  11.118  14.442   0.191
47442SOL    HW244166  11.063  14.498   0.061
47443SOL     OW44167   2.779   3.670  14.651
47443SOL    HW144168   2.700   3.716  14.623
47443SOL    HW244169   2.758   3.577  14.641
47444SOL     OW44170   1.407   9.066  12.326
47444SOL    HW144171   1.456   9.057  12.407
47444SOL    HW244172   1.447   9.141  12.282
47445SOL     OW44173   6.404   3.496  10.096
47445SOL    HW144174   6.350   3.432  10.049
47445SOL    HW244175   6.475   3.516  10.035
47446SOL     OW44176   5.879   7.987  10.581
47446SOL    HW144177   5.913   7.983  10.491
47446SOL    HW244178   5.879   8.081  10.602
47447SOL     OW44179   4.243  14.070   9.357
47447SOL    HW144180   4.317  14.011   9.359
47447SOL    HW244181   4.167  14.014   9.340
47448SOL     OW44182  12.479   0.385   5.573
47448SOL    HW144183  12.479   0.424   5.661
47448SOL    HW244184  12.426   0.445   5.521
47449SOL     OW44185   8.364   3.107   3.884
47449SOL    HW144186   8.421   3.104   3.806
47449SOL    HW244187   8.278   3.078   3.852
47450SOL     OW44188   0.396  13.102   2.540
47450SOL    HW144189   0.410  13.041   2.468
47450SOL    HW244190   0.456  13.175   2.522
47451SOL     OW44191   4.199   0.903  12.485
47451SOL    HW144192   4.234   0.907  12.396
47451SOL    HW244193   4.264   0.948  12.539
47452SOL     OW44194  12.449   8.640   6.882
47452SOL    HW144195  12.393   8.598   6.816
47452SOL    HW244196  12.537   8.638   6.843
47453SOL     OW44197   1.924   6.441   1.915
47453SOL    HW144198   1.839   6.439   1.872
47453SOL    HW244199   1.973   6.368   1.875
47454SOL     OW44200   3.712  11.674   6.441
47454SOL    HW144201   3.692  11.597   6.494
47454SOL    HW244202   3.703  11.645   6.351
47455SOL     OW44203   4.247   3.377   4.980
47455SOL    HW144204   4.281   3.305   5.032
47455SOL    HW244205   4.183   3.337   4.922
47456SOL     OW44206  13.111  10.615  13.472
47456SOL    HW144207  13.169  10.563  13.527
47456SOL    HW244208  13.169  10.673  13.424
47457SOL     OW44209   6.624  11.343   5.878
47457SOL    HW144210   6.652  11.432   5.855
47457SOL    HW244211   6.704  11.298   5.903
47458SOL     OW44212  13.324  10.214   8.764
47458SOL    HW144213  13.294  10.124   8.778
47458SOL    HW244214  13.372  10.236   8.844
47459SOL     OW44215   8.966  11.767   4.258
47459SOL    HW144216   8.891  11.713   4.280
47459SOL    HW244217   8.989  11.811   4.340
47460SOL     OW44218  10.066   1.143   7.525
47460SOL    HW144219  10.019   1.064   7.551
47460SOL    HW244220  10.001   1.196   7.480
47461SOL     OW44221   0.104   0.580   5.132
47461SOL    HW144222   0.142   0.494   5.150
47461SOL    HW244223   0.176   0.642   5.145
47462SOL     OW44224   5.423   1.520  10.742
47462SOL    HW144225   5.350   1.555  10.793
47462SOL    HW244226   5.399   1.536  10.651
47463SOL     OW44227   9.463   2.272  13.774
47463SOL    HW144228   9.533   2.215  13.806
47463SOL    HW244229   9.471   2.269  13.679
47464SOL     OW44230  11.751   6.061   4.189
47464SOL    HW144231  11.708   6.142   4.215
47464SOL    HW244232  11.845   6.079   4.201
47465SOL     OW44233  12.140   1.716  14.028
47465SOL    HW144234  12.140   1.644  14.092
47465SOL    HW244235  12.174   1.676  13.948
47466SOL     OW44236   6.121   1.873   6.460
47466SOL    HW144237   6.195   1.867   6.400
47466SOL    HW244238   6.044   1.855   6.406
47467SOL     OW44239  12.953  12.086   2.402
47467SOL    HW144240  12.979  12.020   2.338
47467SOL    HW244241  13.016  12.077   2.473
47468SOL     OW44242   2.326  12.530   6.354
47468SOL    HW144243   2.359  12.617   6.336
47468SOL    HW244244   2.326  12.524   6.450
47469SOL     OW44245   3.516  11.077  13.090
47469SOL    HW144246   3.454  11.033  13.031
47469SOL    HW244247   3.584  11.111  13.032
47470SOL     OW44248  12.321   4.116   5.483
47470SOL    HW144249  12.353   4.200   5.516
47470SOL    HW244250  12.324   4.125   5.388
47471SOL     OW44251   1.919  13.193  10.413
47471SOL    HW144252   1.915  13.245  10.333
47471SOL    HW244253   1.915  13.102  10.384
47472SOL     OW44254   8.348   7.862   1.210
47472SOL    HW144255   8.340   7.826   1.122
47472SOL    HW244256   8.420   7.812   1.250
47473SOL     OW44257  11.901   1.301   9.167
47473SOL    HW144258  11.856   1.373   9.123
47473SOL    HW244259  11.844   1.278   9.240
47474SOL     OW44260   0.782   5.375   1.607
47474SOL    HW144261   0.784   5.406   1.698
47474SOL    HW244262   0.689   5.360   1.590
47475SOL     OW44263   9.523   4.766   7.305
47475SOL    HW144264   9.525   4.858   7.278
47475SOL    HW244265   9.614   4.745   7.325
47476SOL     OW44266   7.582   4.283  12.516
47476SOL    HW144267   7.573   4.344  12.590
47476SOL    HW244268   7.557   4.198  12.552
47477SOL     OW44269   8.229  11.686  10.042
47477SOL    HW144270   8.267  11.615  10.093
47477SOL    HW244271   8.195  11.747  10.107
47478SOL     OW44272  13.491   6.055  13.697
47478SOL    HW144273  13.416   6.104  13.730
47478SOL    HW244274  13.453   5.978  13.654
47479SOL     OW44275   3.358  12.023  11.684
47479SOL    HW144276   3.358  11.966  11.606
47479SOL    HW244277   3.345  11.963  11.757
47480SOL     OW44278   6.852   7.056   4.929
47480SOL    HW144279   6.852   6.992   5.000
47480SOL    HW244280   6.787   7.023   4.867
47481SOL     OW44281   7.968  14.107   5.620
47481SOL    HW144282   8.040  14.169   5.616
47481SOL    HW244283   7.941  14.097   5.528
47482SOL     OW44284   0.952  14.724  12.288
47482SOL    HW144285   0.961  14.636  12.252
47482SOL    HW244286   1.024  14.773  12.248
47483SOL     OW44287   0.808   4.702   4.359
47483SOL    HW144288   0.887   4.658   4.388
47483SOL    HW244289   0.829   4.795   4.364
47484SOL     OW44290   7.445   6.542  10.724
47484SOL    HW144291   7.480   6.454  10.732
47484SOL    HW244292   7.520   6.600  10.742
47485SOL     OW44293   9.742   7.073   9.732
47485SOL    HW144294   9.831   7.075   9.696
47485SOL    HW244295   9.685   7.062   9.657
47486SOL     OW44296   1.890   1.123   8.937
47486SOL    HW144297   1.826   1.073   8.988
47486SOL    HW244298   1.971   1.114   8.985
47487SOL     OW44299   0.660  12.265  13.735
47487SOL    HW144300   0.645  12.172  13.751
47487SOL    HW244301   0.605  12.286  13.660
47488SOL     OW44302  12.264   9.597   7.362
47488SOL    HW144303  12.350   9.640   7.367
47488SOL    HW244304  12.208   9.649   7.419
47489SOL     OW44305   2.540  12.876   9.418
47489SOL    HW144306   2.618  12.826   9.394
47489SOL    HW244307   2.521  12.849   9.508
47490SOL     OW44308   7.089   8.994   5.185
47490SOL    HW144309   7.124   8.931   5.248
47490SOL    HW244310   7.158   9.060   5.177
47491SOL     OW44311   3.062   0.456  12.835
47491SOL    HW144312   3.037   0.481  12.746
47491SOL    HW244313   2.990   0.488  12.890
47492SOL     OW44314   2.313  13.521   8.941
47492SOL    HW144315   2.302  13.499   8.848
47492SOL    HW244316   2.407  13.519   8.955
47493SOL     OW44317   8.576   9.322  13.733
47493SOL    HW144318   8.633   9.327  13.810
47493SOL    HW244319   8.635   9.340  13.659
47494SOL     OW44320   3.831   6.601  14.751
47494SOL    HW144321   3.865   6.562  14.670
47494SOL    HW244322   3.872   6.551  14.821
47495SOL     OW44323   8.519  13.709   5.247
47495SOL    HW144324   8.441  13.659   5.271
47495SOL    HW244325   8.520  13.782   5.309
47496SOL     OW44326   1.895   0.902   0.161
47496SOL    HW144327   1.952   0.886   0.236
47496SOL    HW244328   1.952   0.889   0.085
47497SOL     OW44329   3.298   4.254  10.279
47497SOL    HW144330   3.244   4.333  10.274
47497SOL    HW244331   3.363   4.273  10.347
47498SOL     OW44332   2.792   4.748   2.240
47498SOL    HW144333   2.787   4.681   2.173
47498SOL    HW244334   2.703   4.756   2.274
47499SOL     OW44335  14.723   0.204  10.715
47499SOL    HW144336  14.692   0.113  10.712
47499SOL    HW244337  14.815   0.198  10.739
47500SOL     OW44338   7.898  10.543   8.944
47500SOL    HW144339   7.929  10.630   8.968
47500SOL    HW244340   7.803  10.547   8.955
47501SOL     OW44341   7.578  11.651   1.009
47501SOL    HW144342   7.562  11.591   0.937
47501SOL    HW244343   7.548  11.736   0.977
47502SOL     OW44344   4.127   9.231   2.568
47502SOL    HW144345   4.125   9.270   2.480
47502SOL    HW244346   4.035   9.217   2.591
47503SOL     OW44347   7.343   7.730   2.113
47503SOL    HW144348   7.379   7.750   2.027
47503SOL    HW244349   7.395   7.656   2.144
47504SOL     OW44350   1.517   4.557   1.883
47504SOL    HW144351   1.502   4.593   1.796
47504SOL    HW244352   1.601   4.510   1.876
47505SOL     OW44353   9.633  13.217  13.596
47505SOL    HW144354   9.684  13.258  13.665
47505SOL    HW244355   9.645  13.123  13.610
47506SOL     OW44356   1.315  11.381   8.560
47506SOL    HW144357   1.375  11.424   8.621
47506SOL    HW244358   1.290  11.299   8.604
47507SOL     OW44359   3.559   6.219  14.819
47507SOL    HW144360   3.557   6.128  14.847
47507SOL    HW244361   3.545   6.216  14.724
47508SOL     OW44362   4.558   1.724  11.362
47508SOL    HW144363   4.570   1.633  11.388
47508SOL    HW244364   4.509   1.719  11.280
47509SOL     OW44365   4.351  10.739   4.416
47509SOL    HW144366   4.290  10.710   4.484
47509SOL    HW244367   4.296  10.750   4.338
47510SOL     OW44368   3.393   5.205   0.041
47510SOL    HW144369   3.316   5.163   0.002
47510SOL    HW244370   3.394   5.293   0.003
47511SOL     OW44371  12.827  10.037   6.386
47511SOL    HW144372  12.738  10.004   6.378
47511SOL    HW244373  12.842  10.089   6.307
47512SOL     OW44374  10.794  13.963   4.501
47512SOL    HW144375  10.806  14.003   4.587
47512SOL    HW244376  10.736  13.889   4.516
47513SOL     OW44377  14.559  10.193  10.208
47513SOL    HW144378  14.497  10.258  10.176
47513SOL    HW244379  14.517  10.109  10.191
47514SOL     OW44380   1.488   8.960   9.994
47514SOL    HW144381   1.447   8.945  10.079
47514SOL    HW244382   1.576   8.923  10.004
47515SOL     OW44383   5.697  11.518   0.377
47515SOL    HW144384   5.734  11.571   0.307
47515SOL    HW244385   5.754  11.533   0.452
47516SOL     OW44386   4.872   5.658   9.764
47516SOL    HW144387   4.960   5.673   9.730
47516SOL    HW244388   4.815   5.716   9.713
47517SOL     OW44389  14.023  10.864  13.003
47517SOL    HW144390  14.078  10.851  13.080
47517SOL    HW244391  14.039  10.955  12.977
47518SOL     OW44392  10.902   2.522   7.518
47518SOL    HW144393  10.881   2.597   7.462
47518SOL    HW244394  10.921   2.561   7.603
47519SOL     OW44395   8.858   2.828   2.450
47519SOL    HW144396   8.909   2.747   2.457
47519SOL    HW244397   8.799   2.813   2.377
47520SOL     OW44398   8.748  14.545   6.688
47520SOL    HW144399   8.834  14.561   6.647
47520SOL    HW244400   8.766  14.543   6.782
47521SOL     OW44401  11.906   7.930   1.284
47521SOL    HW144402  11.968   7.885   1.226
47521SOL    HW244403  11.873   8.003   1.232
47522SOL     OW44404  14.425  12.163   7.967
47522SOL    HW144405  14.380  12.108   7.902
47522SOL    HW244406  14.458  12.237   7.916
47523SOL     OW44407  10.268   0.496   5.649
47523SOL    HW144408  10.253   0.408   5.616
47523SOL    HW244409  10.271   0.551   5.571
47524SOL     OW44410   1.207   5.157   0.665
47524SOL    HW144411   1.215   5.197   0.751
47524SOL    HW244412   1.147   5.084   0.678
47525SOL     OW44413   8.012  10.936  14.423
47525SOL    HW144414   8.107  10.938  14.432
47525SOL    HW244415   7.980  10.925  14.513
47526SOL     OW44416  12.153  14.680   7.237
47526SOL    HW144417  12.077  14.709   7.188
47526SOL    HW244418  12.195  14.761   7.267
47527SOL     OW44419  13.217   2.240  11.516
47527SOL    HW144420  13.308   2.228  11.544
47527SOL    HW244421  13.202   2.169  11.453
47528SOL     OW44422  14.602   5.791   5.750
47528SOL    HW144423  14.614   5.724   5.818
47528SOL    HW244424  14.525   5.763   5.701
47529SOL     OW44425   0.909   5.182   6.917
47529SOL    HW144426   0.892   5.089   6.926
47529SOL    HW244427   1.003   5.189   6.904
47530SOL     OW44428   4.921  14.599   5.552
47530SOL    HW144429   4.835  14.573   5.583
47530SOL    HW244430   4.905  14.677   5.499
47531SOL     OW44431   3.656  11.628   8.049
47531SOL    HW144432   3.747  11.606   8.068
47531SOL    HW244433   3.624  11.557   7.994
47532SOL     OW44434   6.169   3.885   1.956
47532SOL    HW144435   6.102   3.825   1.988
47532SOL    HW244436   6.237   3.882   2.023
47533SOL     OW44437   7.055   0.532   4.634
47533SOL    HW144438   7.009   0.554   4.715
47533SOL    HW244439   7.145   0.513   4.662
47534SOL     OW44440   5.732   4.007  11.698
47534SOL    HW144441   5.812   4.048  11.664
47534SOL    HW244442   5.689   4.076  11.748
47535SOL     OW44443   4.871  13.175   3.634
47535SOL    HW144444   4.825  13.250   3.671
47535SOL    HW244445   4.930  13.212   3.569
47536SOL     OW44446   0.949   6.812  10.425
47536SOL    HW144447   1.025   6.758  10.402
47536SOL    HW244448   0.983   6.901  10.429
47537SOL     OW44449   6.324   2.145  14.519
47537SOL    HW144450   6.293   2.056  14.534
47537SOL    HW244451   6.398   2.136  14.460
47538SOL     OW44452   5.641   3.202  12.396
47538SOL    HW144453   5.638   3.219  12.490
47538SOL    HW244454   5.681   3.115  12.389
47539SOL     OW44455   5.571  12.937  10.744
47539SOL    HW144456   5.624  12.918  10.822
47539SOL    HW244457   5.529  12.854  10.722
47540SOL     OW44458  10.896  10.803  10.888
47540SOL    HW144459  10.908  10.712  10.860
47540SOL    HW244460  10.858  10.846  10.812
47541SOL     OW44461   4.667   6.395  10.631
47541SOL    HW144462   4.654   6.426  10.721
47541SOL    HW244463   4.580   6.364  10.604
47542SOL     OW44464  10.278   7.953  10.702
47542SOL    HW144465  10.257   7.901  10.625
47542SOL    HW244466  10.367   7.984  10.686
47543SOL     OW44467  14.151   2.117   9.054
47543SOL    HW144468  14.084   2.118   8.985
47543SOL    HW244469  14.144   2.029   9.092
47544SOL     OW44470   9.501  10.010  12.466
47544SOL    HW144471   9.555  10.058  12.404
47544SOL    HW244472   9.418   9.997  12.421
47545SOL     OW44473  12.344  11.860   0.047
47545SOL    HW144474  12.388  11.778   0.024
47545SOL    HW244475  12.283  11.875  14.856
47546SOL     OW44476   0.305   4.613   8.212
47546SOL    HW144477   0.304   4.518   8.207
47546SOL    HW244478   0.394   4.638   8.189
47547SOL     OW44479   2.697   6.972   4.217
47547SOL    HW144480   2.749   6.892   4.207
47547SOL    HW244481   2.686   6.982   4.311
47548SOL     OW44482   4.362   9.047   9.300
47548SOL    HW144483   4.329   9.112   9.362
47548SOL    HW244484   4.284   9.005   9.265
47549SOL     OW44485  14.492   2.022  12.170
47549SOL    HW144486  14.450   1.947  12.211
47549SOL    HW244487  14.445   2.098  12.204
47550SOL     OW44488   2.495   6.804  11.750
47550SOL    HW144489   2.504   6.875  11.813
47550SOL    HW244490   2.584   6.778  11.730
47551SOL     OW44491  11.099   9.277   6.762
47551SOL    HW144492  11.192   9.301   6.763
47551SOL    HW244493  11.091   9.210   6.829
47552SOL     OW44494   7.363  13.969   9.813
47552SOL    HW144495   7.435  14.002   9.759
47552SOL    HW244496   7.295  13.944   9.750
47553SOL     OW44497   7.044  13.648   9.935
47553SOL    HW144498   7.000  13.731   9.955
47553SOL    HW244499   7.027  13.635   9.841
47554SOL     OW44500   0.847   9.985   4.063
47554SOL    HW144501   0.788   9.995   4.138
47554SOL    HW244502   0.850   9.890   4.048
47555SOL     OW44503  13.061   7.259  11.069
47555SOL    HW144504  12.998   7.187  11.068
47555SOL    HW244505  13.135   7.224  11.119
47556SOL     OW44506   1.663  12.195   6.955
47556SOL    HW144507   1.731  12.150   6.905
47556SOL    HW244508   1.642  12.135   7.027
47557SOL     OW44509   6.818   5.915  13.222
47557SOL    HW144510   6.838   5.976  13.151
47557SOL    HW244511   6.833   5.829  13.184
47558SOL     OW44512   3.544   9.295   4.054
47558SOL    HW144513   3.531   9.388   4.037
47558SOL    HW244514   3.457   9.256   4.040
47559SOL     OW44515  11.595   5.751   7.837
47559SOL    HW144516  11.512   5.732   7.879
47559SOL    HW244517  11.652   5.781   7.907
47560SOL     OW44518   4.070   7.366  11.673
47560SOL    HW144519   4.036   7.454  11.692
47560SOL    HW244520   3.993   7.310  11.676
47561SOL     OW44521  13.983   9.136   7.527
47561SOL    HW144522  14.074   9.133   7.498
47561SOL    HW244523  13.956   9.045   7.532
47562SOL     OW44524  11.151   4.553   7.180
47562SOL    HW144525  11.067   4.595   7.196
47562SOL    HW244526  11.210   4.590   7.246
47563SOL     OW44527  12.107   5.426   6.785
47563SOL    HW144528  12.020   5.398   6.814
47563SOL    HW244529  12.167   5.367   6.832
47564SOL     OW44530   5.990   1.515   5.397
47564SOL    HW144531   6.042   1.582   5.442
47564SOL    HW244532   5.938   1.564   5.334
47565SOL     OW44533  10.114   0.351   6.578
47565SOL    HW144534  10.082   0.401   6.502
47565SOL    HW244535  10.190   0.401   6.609
47566SOL     OW44536  11.149   6.854  12.257
47566SOL    HW144537  11.149   6.922  12.189
47566SOL    HW244538  11.076   6.876  12.314
47567SOL     OW44539   8.111  12.481   7.405
47567SOL    HW144540   8.205  12.490   7.390
47567SOL    HW244541   8.097  12.515   7.493
47568SOL     OW44542   4.672   6.691   5.022
47568SOL    HW144543   4.646   6.776   4.985
47568SOL    HW244544   4.729   6.714   5.096
47569SOL     OW44545   5.505  11.680   3.897
47569SOL    HW144546   5.424  11.731   3.902
47569SOL    HW244547   5.505  11.646   3.807
47570SOL     OW44548   1.767  12.431  12.915
47570SOL    HW144549   1.820  12.401  12.841
47570SOL    HW244550   1.805  12.515  12.940
47571SOL     OW44551   2.912  12.840  13.846
47571SOL    HW144552   2.978  12.907  13.829
47571SOL    HW244553   2.829  12.880  13.818
47572SOL     OW44554   0.761   4.916  13.764
47572SOL    HW144555   0.692   4.982  13.755
47572SOL    HW244556   0.753   4.862  13.686
47573SOL     OW44557  12.738   6.424   9.413
47573SOL    HW144558  12.769   6.514   9.407
47573SOL    HW244559  12.709   6.402   9.324
47574SOL     OW44560   4.260  11.977   8.374
47574SOL    HW144561   4.260  12.050   8.311
47574SOL    HW244562   4.339  11.990   8.426
47575SOL     OW44563   7.286   3.669   5.053
47575SOL    HW144564   7.256   3.581   5.033
47575SOL    HW244565   7.317   3.703   4.969
47576SOL     OW44566   3.801  10.272   9.653
47576SOL    HW144567   3.814  10.188   9.697
47576SOL    HW244568   3.839  10.336   9.713
47577SOL     OW44569   6.761   6.144  12.679
47577SOL    HW144570   6.818   6.208  12.721
47577SOL    HW244571   6.780   6.153  12.585
47578SOL     OW44572   2.942   3.972   1.080
47578SOL    HW144573   2.875   4.038   1.065
47578SOL    HW244574   2.915   3.897   1.027
47579SOL     OW44575  11.874   3.823  10.172
47579SOL    HW144576  11.843   3.894  10.228
47579SOL    HW244577  11.943   3.862  10.119
47580SOL     OW44578  10.590   6.695   1.165
47580SOL    HW144579  10.653   6.626   1.188
47580SOL    HW244580  10.644   6.765   1.128
47581SOL     OW44581   6.423  13.953  13.819
47581SOL    HW144582   6.412  13.858  13.817
47581SOL    HW244583   6.517  13.966  13.831
47582SOL     OW44584   2.829   7.604   1.352
47582SOL    HW144585   2.889   7.532   1.331
47582SOL    HW244586   2.810   7.644   1.267
47583SOL     OW44587   4.125   5.225   8.609
47583SOL    HW144588   4.038   5.188   8.599
47583SOL    HW244589   4.113   5.302   8.664
47584SOL     OW44590  11.116  12.694   1.633
47584SOL    HW144591  11.041  12.753   1.625
47584SOL    HW244592  11.094  12.618   1.580
47585SOL     OW44593   9.912   2.763  10.995
47585SOL    HW144594   9.979   2.726  11.053
47585SOL    HW244595   9.916   2.709  10.917
47586SOL     OW44596   1.741   1.061   4.052
47586SOL    HW144597   1.795   1.109   4.115
47586SOL    HW244598   1.675   1.017   4.106
47587SOL     OW44599   6.911   4.496   3.765
47587SOL    HW144600   6.861   4.573   3.794
47587SOL    HW244601   6.849   4.445   3.714
47588SOL     OW44602   2.497   2.040   5.612
47588SOL    HW144603   2.587   2.060   5.638
47588SOL    HW244604   2.443   2.101   5.662
47589SOL     OW44605   2.748  12.871   3.163
47589SOL    HW144606   2.676  12.932   3.151
47589SOL    HW244607   2.827  12.925   3.155
47590SOL     OW44608  13.780  11.170   6.783
47590SOL    HW144609  13.691  11.179   6.749
47590SOL    HW244610  13.824  11.251   6.756
47591SOL     OW44611   3.881   1.196   6.725
47591SOL    HW144612   3.868   1.227   6.814
47591SOL    HW244613   3.793   1.179   6.692
47592SOL     OW44614   1.388  13.786  13.770
47592SOL    HW144615   1.388  13.693  13.795
47592SOL    HW244616   1.480  13.811  13.774
47593SOL     OW44617   2.226  12.846   5.456
47593SOL    HW144618   2.314  12.883   5.468
47593SOL    HW244619   2.235  12.789   5.379
47594SOL     OW44620   3.245  13.495   9.830
47594SOL    HW144621   3.293  13.549   9.768
47594SOL    HW244622   3.236  13.410   9.786
47595SOL     OW44623   5.317   7.475   0.727
47595SOL    HW144624   5.233   7.429   0.724
47595SOL    HW244625   5.308   7.545   0.662
47596SOL     OW44626   9.649   4.500   1.364
47596SOL    HW144627   9.693   4.478   1.445
47596SOL    HW244628   9.556   4.498   1.386
47597SOL     OW44629   6.261  13.212   7.717
47597SOL    HW144630   6.227  13.297   7.688
47597SOL    HW244631   6.222  13.150   7.656
47598SOL     OW44632   0.057   1.020   7.563
47598SOL    HW144633   0.083   0.937   7.603
47598SOL    HW244634   0.009   0.995   7.484
47599SOL     OW44635  10.841   3.165   1.207
47599SOL    HW144636  10.763   3.216   1.186
47599SOL    HW244637  10.816   3.113   1.284
47600SOL     OW44638   0.225   2.057   8.757
47600SOL    HW144639   0.208   2.150   8.772
47600SOL    HW244640   0.188   2.039   8.671
47601SOL     OW44641  10.078   0.765  13.120
47601SOL    HW144642  10.020   0.809  13.058
47601SOL    HW244643  10.020   0.708  13.170
47602SOL     OW44644   4.422  11.998  12.436
47602SOL    HW144645   4.421  12.049  12.517
47602SOL    HW244646   4.332  12.002  12.403
47603SOL     OW44647   5.541   0.166  13.438
47603SOL    HW144648   5.500   0.128  13.516
47603SOL    HW244649   5.632   0.137  13.443
47604SOL     OW44650  12.071   5.435   5.386
47604SOL    HW144651  12.092   5.524   5.417
47604SOL    HW244652  11.977   5.439   5.367
47605SOL     OW44653  10.719  12.158   4.799
47605SOL    HW144654  10.721  12.062   4.797
47605SOL    HW244655  10.736  12.185   4.709
47606SOL     OW44656   9.048  11.027   4.744
47606SOL    HW144657   9.080  11.076   4.669
47606SOL    HW244658   9.039  10.937   4.713
47607SOL     OW44659   6.511  12.642   6.208
47607SOL    HW144660   6.436  12.620   6.153
47607SOL    HW244661   6.504  12.736   6.222
47608SOL     OW44662  12.505   2.567  12.601
47608SOL    HW144663  12.572   2.548  12.666
47608SOL    HW244664  12.431   2.600  12.652
47609SOL     OW44665   3.381   3.749   0.328
47609SOL    HW144666   3.363   3.843   0.333
47609SOL    HW244667   3.334   3.712   0.402
47610SOL     OW44668   1.563  10.262  10.442
47610SOL    HW144669   1.479  10.268  10.488
47610SOL    HW244670   1.543  10.215  10.361
47611SOL     OW44671  10.321  12.147   5.494
47611SOL    HW144672  10.354  12.212   5.432
47611SOL    HW244673  10.391  12.139   5.559
47612SOL     OW44674   7.250  13.124   6.564
47612SOL    HW144675   7.292  13.174   6.635
47612SOL    HW244676   7.164  13.165   6.554
47613SOL     OW44677   7.602   2.537   1.242
47613SOL    HW144678   7.668   2.481   1.201
47613SOL    HW244679   7.529   2.477   1.261
47614SOL     OW44680   8.966  14.663  14.625
47614SOL    HW144681   8.937  14.741  14.672
47614SOL    HW244682   8.944  14.590  14.683
47615SOL     OW44683   7.165   8.298   1.964
47615SOL    HW144684   7.233   8.265   2.022
47615SOL    HW244685   7.112   8.355   2.019
47616SOL     OW44686  12.561   0.879   7.310
47616SOL    HW144687  12.583   0.915   7.224
47616SOL    HW244688  12.624   0.809   7.324
47617SOL     OW44689   5.740   4.314   2.722
47617SOL    HW144690   5.648   4.298   2.744
47617SOL    HW244691   5.752   4.276   2.635
47618SOL     OW44692   5.886  10.198   7.408
47618SOL    HW144693   5.797  10.229   7.392
47618SOL    HW244694   5.934  10.277   7.433
47619SOL     OW44695  14.436   2.682   6.653
47619SOL    HW144696  14.487   2.724   6.722
47619SOL    HW244697  14.464   2.590   6.655
47620SOL     OW44698   1.233   6.538  12.131
47620SOL    HW144699   1.257   6.467  12.190
47620SOL    HW244700   1.258   6.507  12.044
47621SOL     OW44701   4.869   0.564  13.458
47621SOL    HW144702   4.834   0.640  13.411
47621SOL    HW244703   4.795   0.530  13.508
47622SOL     OW44704   7.143   2.419   5.391
47622SOL    HW144705   7.096   2.394   5.312
47622SOL    HW244706   7.156   2.338   5.439
47623SOL     OW44707  11.635   0.968   4.413
47623SOL    HW144708  11.706   0.921   4.368
47623SOL    HW244709  11.640   1.057   4.379
47624SOL     OW44710   0.140   4.085  10.498
47624SOL    HW144711   0.229   4.071  10.529
47624SOL    HW244712   0.093   4.121  10.573
47625SOL     OW44713   8.283  12.594   6.035
47625SOL    HW144714   8.348  12.615   5.968
47625SOL    HW244715   8.265  12.501   6.023
47626SOL     OW44716   1.121   2.232   8.365
47626SOL    HW144717   1.043   2.278   8.336
47626SOL    HW244718   1.160   2.197   8.285
47627SOL     OW44719   0.816   5.423   1.353
47627SOL    HW144720   0.736   5.476   1.352
47627SOL    HW244721   0.829   5.401   1.445
47628SOL     OW44722   5.464   4.355  14.521
47628SOL    HW144723   5.484   4.424  14.457
47628SOL    HW244724   5.409   4.293  14.473
47629SOL     OW44725  11.749   2.885   0.497
47629SOL    HW144726  11.710   2.943   0.432
47629SOL    HW244727  11.784   2.812   0.447
47630SOL     OW44728  11.158   5.610  10.672
47630SOL    HW144729  11.225   5.541  10.669
47630SOL    HW244730  11.132   5.614  10.763
47631SOL     OW44731  12.390   2.189   4.754
47631SOL    HW144732  12.306   2.177   4.799
47631SOL    HW244733  12.367   2.216   4.665
47632SOL     OW44734   7.131  11.170   9.208
47632SOL    HW144735   7.201  11.189   9.270
47632SOL    HW244736   7.112  11.254   9.166
47633SOL     OW44737   4.620  12.752   5.980
47633SOL    HW144738   4.528  12.734   5.961
47633SOL    HW244739   4.667  12.675   5.948
47634SOL     OW44740   6.935   6.144   2.006
47634SOL    HW144741   7.025   6.116   2.020
47634SOL    HW244742   6.892   6.067   1.968
47635SOL     OW44743   5.850  11.649  13.246
47635SOL    HW144744   5.860  11.564  13.204
47635SOL    HW244745   5.939  11.674  13.272
47636SOL     OW44746   7.823  13.849   1.070
47636SOL    HW144747   7.834  13.818   0.980
47636SOL    HW244748   7.907  13.888   1.093
47637SOL     OW44749   8.714   3.016  12.750
47637SOL    HW144750   8.642   3.076  12.731
47637SOL    HW244751   8.698   2.988  12.840
47638SOL     OW44752  12.714   2.585   1.741
47638SOL    HW144753  12.757   2.585   1.827
47638SOL    HW244754  12.656   2.509   1.743
47639SOL     OW44755   0.944   8.296  10.602
47639SOL    HW144756   0.856   8.259  10.594
47639SOL    HW244757   0.930   8.390  10.614
47640SOL     OW44758   5.970   5.691   0.442
47640SOL    HW144759   6.060   5.721   0.428
47640SOL    HW244760   5.954   5.628   0.372
47641SOL     OW44761   6.662   8.430  13.546
47641SOL    HW144762   6.595   8.363  13.531
47641SOL    HW244763   6.612   8.511  13.557
47642SOL     OW44764  12.773   4.760  11.712
47642SOL    HW144765  12.846   4.815  11.739
47642SOL    HW244766  12.697   4.818  11.714
47643SOL     OW44767   7.563  12.045   6.869
47643SOL    HW144768   7.559  12.022   6.776
47643SOL    HW244769   7.542  11.963   6.914
47644SOL     OW44770   6.592   8.672   8.752
47644SOL    HW144771   6.571   8.756   8.792
47644SOL    HW244772   6.507   8.631   8.736
47645SOL     OW44773   3.677   0.988   8.499
47645SOL    HW144774   3.653   0.917   8.439
47645SOL    HW244775   3.638   0.963   8.583
47646SOL     OW44776  13.647   9.497   7.687
47646SOL    HW144777  13.725   9.444   7.702
47646SOL    HW244778  13.602   9.454   7.614
47647SOL     OW44779   8.726   8.792  10.570
47647SOL    HW144780   8.774   8.730  10.625
47647SOL    HW244781   8.700   8.741  10.493
47648SOL     OW44782  10.243   5.577   1.662
47648SOL    HW144783  10.333   5.580   1.629
47648SOL    HW244784  10.235   5.490   1.701
47649SOL     OW44785   7.584   6.392  10.104
47649SOL    HW144786   7.518   6.336  10.144
47649SOL    HW244787   7.632   6.430  10.178
47650SOL     OW44788   3.285   7.340   4.976
47650SOL    HW144789   3.266   7.433   4.968
47650SOL    HW244790   3.203   7.301   5.005
47651SOL     OW44791   8.183   2.000   4.808
47651SOL    HW144792   8.134   2.005   4.890
47651SOL    HW244793   8.157   2.080   4.761
47652SOL     OW44794  12.038   9.262   8.523
47652SOL    HW144795  11.955   9.246   8.569
47652SOL    HW244796  12.012   9.294   8.437
47653SOL     OW44797  11.446   5.841   1.727
47653SOL    HW144798  11.442   5.893   1.647
47653SOL    HW244799  11.357   5.806   1.737
47654SOL     OW44800   1.689   8.451   8.624
47654SOL    HW144801   1.711   8.363   8.656
47654SOL    HW244802   1.678   8.503   8.704
47655SOL     OW44803   7.950   7.045   6.661
47655SOL    HW144804   7.908   7.111   6.607
47655SOL    HW244805   8.042   7.071   6.663
47656SOL     OW44806  14.203   8.813   8.351
47656SOL    HW144807  14.295   8.811   8.376
47656SOL    HW244808  14.157   8.772   8.424
47657SOL     OW44809   1.472   5.556   8.544
47657SOL    HW144810   1.430   5.560   8.629
47657SOL    HW244811   1.558   5.594   8.558
47658SOL     OW44812  11.776   3.983   0.750
47658SOL    HW144813  11.698   3.974   0.696
47658SOL    HW244814  11.744   4.018   0.833
47659SOL     OW44815   3.470   0.293   3.774
47659SOL    HW144816   3.436   0.363   3.718
47659SOL    HW244817   3.554   0.270   3.735
47660SOL     OW44818  14.063   5.171   1.057
47660SOL    HW144819  14.105   5.101   1.107
47660SOL    HW244820  14.136   5.226   1.028
47661SOL     OW44821   6.079  11.318   9.022
47661SOL    HW144822   6.142  11.390   9.023
47661SOL    HW244823   6.071  11.294   8.930
47662SOL     OW44824  13.545   0.674   0.307
47662SOL    HW144825  13.532   0.711   0.394
47662SOL    HW244826  13.562   0.581   0.322
47663SOL     OW44827  12.789   9.906   2.165
47663SOL    HW144828  12.780   9.970   2.236
47663SOL    HW244829  12.825   9.956   2.092
47664SOL     OW44830   9.721   0.091   3.417
47664SOL    HW144831   9.816   0.103   3.405
47664SOL    HW244832   9.704   0.124   3.505
47665SOL     OW44833   7.855   8.018   3.059
47665SOL    HW144834   7.852   8.105   3.020
47665SOL    HW244835   7.807   7.962   2.997
47666SOL     OW44836   0.405  14.679  11.359
47666SOL    HW144837   0.448  14.674  11.274
47666SOL    HW244838   0.395  14.773  11.376
47667SOL     OW44839   1.822   5.980   2.548
47667SOL    HW144840   1.754   6.020   2.494
47667SOL    HW244841   1.786   5.979   2.637
47668SOL     OW44842  10.748   4.165  14.717
47668SOL    HW144843  10.795   4.164  14.800
47668SOL    HW244844  10.690   4.241  14.724
47669SOL     OW44845   1.845   0.272   6.407
47669SOL    HW144846   1.759   0.246   6.373
47669SOL    HW244847   1.907   0.235   6.344
47670SOL     OW44848   1.413  10.704  10.541
47670SOL    HW144849   1.459  10.656  10.610
47670SOL    HW244850   1.482  10.746  10.490
47671SOL     OW44851  12.413   6.794   9.754
47671SOL    HW144852  12.317   6.795   9.755
47671SOL    HW244853  12.438   6.877   9.793
47672SOL     OW44854   3.521   4.000   1.138
47672SOL    HW144855   3.479   4.035   1.059
47672SOL    HW244856   3.486   3.912   1.147
47673SOL     OW44857   3.603   6.752   1.418
47673SOL    HW144858   3.602   6.801   1.336
47673SOL    HW244859   3.580   6.662   1.393
47674SOL     OW44860   1.950   4.779  11.835
47674SOL    HW144861   1.972   4.743  11.749
47674SOL    HW244862   1.996   4.723  11.898
47675SOL     OW44863   8.697  12.644   4.852
47675SOL    HW144864   8.634  12.711   4.828
47675SOL    HW244865   8.698  12.583   4.778
47676SOL     OW44866   8.790  13.771  14.344
47676SOL    HW144867   8.848  13.713  14.393
47676SOL    HW244868   8.794  13.855  14.390
47677SOL     OW44869   1.061  11.379   5.926
47677SOL    HW144870   1.019  11.332   5.998
47677SOL    HW244871   1.006  11.455   5.911
47678SOL     OW44872  10.568  14.677   2.248
47678SOL    HW144873  10.566  14.629   2.331
47678SOL    HW244874  10.660  14.701   2.237
47679SOL     OW44875   4.147  14.762   9.550
47679SOL    HW144876   4.153  14.759   9.454
47679SOL    HW244877   4.085  14.833   9.567
47680SOL     OW44878   9.519  13.169  14.329
47680SOL    HW144879   9.464  13.234  14.285
47680SOL    HW244880   9.572  13.221  14.390
47681SOL     OW44881   0.680   5.868   2.559
47681SOL    HW144882   0.748   5.802   2.570
47681SOL    HW244883   0.616   5.829   2.500
47682SOL     OW44884  14.227  13.467  13.812
47682SOL    HW144885  14.187  13.554  13.805
47682SOL    HW244886  14.202  13.436  13.899
47683SOL     OW44887   9.847   7.205   1.445
47683SOL    HW144888   9.752   7.209   1.434
47683SOL    HW244889   9.879   7.288   1.410
47684SOL     OW44890   1.817  12.129   3.178
47684SOL    HW144891   1.815  12.213   3.224
47684SOL    HW244892   1.886  12.079   3.222
47685SOL     OW44893   5.387   3.252   8.825
47685SOL    HW144894   5.369   3.312   8.897
47685SOL    HW244895   5.440   3.304   8.764
47686SOL     OW44896   4.930   5.183   5.774
47686SOL    HW144897   4.909   5.252   5.710
47686SOL    HW244898   5.019   5.203   5.802
47687SOL     OW44899  13.648   7.815  14.640
47687SOL    HW144900  13.669   7.893  14.589
47687SOL    HW244901  13.683   7.742  14.589
47688SOL     OW44902   5.369   9.862   9.415
47688SOL    HW144903   5.431   9.795   9.387
47688SOL    HW244904   5.419   9.943   9.413
47689SOL     OW44905   8.020  10.753  13.149
47689SOL    HW144906   8.110  10.720  13.155
47689SOL    HW244907   8.030  10.848  13.152
47690SOL     OW44908  13.086  14.798   7.763
47690SOL    HW144909  13.068  14.713   7.801
47690SOL    HW244910  13.147  14.840   7.824
47691SOL     OW44911   0.481  12.254  11.445
47691SOL    HW144912   0.506  12.346  11.445
47691SOL    HW244913   0.556  12.208  11.407
47692SOL     OW44914   8.428  11.861   1.998
47692SOL    HW144915   8.412  11.777   1.955
47692SOL    HW244916   8.377  11.924   1.947
47693SOL     OW44917   9.674  11.636   2.244
47693SOL    HW144918   9.735  11.702   2.276
47693SOL    HW244919   9.676  11.645   2.148
47694SOL     OW44920   7.626  10.610  14.148
47694SOL    HW144921   7.633  10.694  14.194
47694SOL    HW244922   7.569  10.629  14.073
47695SOL     OW44923  11.295   8.543   4.490
47695SOL    HW144924  11.216   8.579   4.530
47695SOL    HW244925  11.339   8.497   4.561
47696SOL     OW44926   4.759  13.123   4.554
47696SOL    HW144927   4.807  13.053   4.599
47696SOL    HW244928   4.814  13.201   4.567
47697SOL     OW44929   6.101   1.957  13.416
47697SOL    HW144930   6.086   1.867  13.390
47697SOL    HW244931   6.177   1.954  13.474
47698SOL     OW44932   2.613  13.257   8.040
47698SOL    HW144933   2.557  13.266   7.963
47698SOL    HW244934   2.702  13.272   8.007
47699SOL     OW44935   8.491  11.485   5.795
47699SOL    HW144936   8.527  11.396   5.796
47699SOL    HW244937   8.411  11.477   5.743
47700SOL     OW44938   2.695  10.667  13.687
47700SOL    HW144939   2.643  10.671  13.607
47700SOL    HW244940   2.690  10.756  13.724
47701SOL     OW44941   2.921   9.177  11.517
47701SOL    HW144942   3.013   9.199  11.536
47701SOL    HW244943   2.884   9.154  11.602
47702SOL     OW44944   7.236   5.351   0.415
47702SOL    HW144945   7.183   5.431   0.407
47702SOL    HW244946   7.191   5.287   0.360
47703SOL     OW44947   4.933   8.903  11.964
47703SOL    HW144948   4.875   8.972  11.997
47703SOL    HW244949   4.942   8.921  11.871
47704SOL     OW44950  10.083   9.153   2.343
47704SOL    HW144951  10.008   9.184   2.394
47704SOL    HW244952  10.159   9.174   2.397
47705SOL     OW44953   5.093   6.477  12.093
47705SOL    HW144954   5.047   6.485  12.009
47705SOL    HW244955   5.134   6.562  12.106
47706SOL     OW44956   7.486   9.351  14.173
47706SOL    HW144957   7.400   9.309  14.174
47706SOL    HW244958   7.488   9.400  14.090
47707SOL     OW44959  11.516   5.522   0.817
47707SOL    HW144960  11.496   5.532   0.910
47707SOL    HW244961  11.544   5.609   0.789
47708SOL     OW44962   0.170   0.110   7.633
47708SOL    HW144963   0.259   0.145   7.625
47708SOL    HW244964   0.182   0.020   7.663
47709SOL     OW44965  13.767   6.559  14.550
47709SOL    HW144966  13.832   6.586  14.486
47709SOL    HW244967  13.801   6.590  14.634
47710SOL     OW44968   7.214  10.562   9.027
47710SOL    HW144969   7.295  10.575   8.977
47710SOL    HW244970   7.244  10.550   9.117
47711SOL     OW44971   7.323  11.502   2.572
47711SOL    HW144972   7.349  11.482   2.483
47711SOL    HW244973   7.360  11.432   2.625
47712SOL     OW44974   2.106   2.953  14.490
47712SOL    HW144975   2.056   3.027  14.524
47712SOL    HW244976   2.100   2.961  14.395
47713SOL     OW44977  10.857   4.372   7.139
47713SOL    HW144978  10.798   4.445   7.158
47713SOL    HW244979  10.807   4.317   7.078
47714SOL     OW44980  11.900  14.324  13.307
47714SOL    HW144981  11.939  14.250  13.260
47714SOL    HW244982  11.957  14.398  13.286
47715SOL     OW44983   3.215   8.906   2.138
47715SOL    HW144984   3.282   8.919   2.206
47715SOL    HW244985   3.201   8.811   2.137
47716SOL     OW44986   7.131  11.642   7.342
47716SOL    HW144987   7.153  11.685   7.259
47716SOL    HW244988   7.038  11.660   7.353
47717SOL     OW44989  13.578   5.160   6.578
47717SOL    HW144990  13.601   5.185   6.667
47717SOL    HW244991  13.599   5.238   6.526
47718SOL     OW44992   6.521   6.021  13.452
47718SOL    HW144993   6.530   6.108  13.490
47718SOL    HW244994   6.543   6.032  13.359
47719SOL     OW44995   1.249   7.120  14.279
47719SOL    HW144996   1.238   7.026  14.266
47719SOL    HW244997   1.344   7.133  14.285
47720SOL     OW44998   7.935   7.343   8.258
47720SOL    HW144999   7.899   7.351   8.170
47720SOL    HW245000   7.921   7.429   8.298
47721SOL     OW45001  12.827   4.199   6.532
47721SOL    HW145002  12.861   4.267   6.590
47721SOL    HW245003  12.733   4.196   6.550
47722SOL     OW45004   8.702  12.971   7.349
47722SOL    HW145005   8.779  13.014   7.387
47722SOL    HW245006   8.735  12.928   7.270
47723SOL     OW45007  12.776  13.419   8.127
47723SOL    HW145008  12.775  13.512   8.146
47723SOL    HW245009  12.857  13.405   8.078
47724SOL     OW45010   7.772   8.436   3.712
47724SOL    HW145011   7.850   8.398   3.672
47724SOL    HW245012   7.762   8.521   3.670
47725SOL     OW45013   4.047   1.055   9.714
47725SOL    HW145014   4.128   1.011   9.688
47725SOL    HW245015   3.987   0.984   9.738
47726SOL     OW45016   5.610   6.223   8.779
47726SOL    HW145017   5.522   6.215   8.815
47726SOL    HW245018   5.665   6.242   8.855
47727SOL     OW45019   7.467  14.474  10.957
47727SOL    HW145020   7.532  14.532  10.917
47727SOL    HW245021   7.443  14.413  10.888
47728SOL     OW45022  12.978   8.421   1.982
47728SOL    HW145023  12.908   8.406   2.045
47728SOL    HW245024  13.047   8.359   2.008
47729SOL     OW45025   6.432   0.915   2.086
47729SOL    HW145026   6.427   1.004   2.119
47729SOL    HW245027   6.524   0.892   2.092
47730SOL     OW45028   3.786   0.805   9.062
47730SOL    HW145029   3.749   0.727   9.102
47730SOL    HW245030   3.866   0.822   9.111
47731SOL     OW45031  10.960  11.043   2.293
47731SOL    HW145032  11.037  11.040   2.237
47731SOL    HW245033  10.904  10.972   2.260
47732SOL     OW45034  13.915   9.552   0.546
47732SOL    HW145035  13.836   9.532   0.597
47732SOL    HW245036  13.896   9.635   0.504
47733SOL     OW45037   4.690   1.561   4.908
47733SOL    HW145038   4.742   1.600   4.838
47733SOL    HW245039   4.666   1.474   4.874
47734SOL     OW45040   2.798  11.804   0.166
47734SOL    HW145041   2.850  11.883   0.151
47734SOL    HW245042   2.831  11.768   0.249
47735SOL     OW45043   6.500   5.521  13.979
47735SOL    HW145044   6.536   5.534  13.891
47735SOL    HW245045   6.519   5.430  13.999
47736SOL     OW45046   0.395   2.694   8.557
47736SOL    HW145047   0.389   2.725   8.647
47736SOL    HW245048   0.489   2.679   8.543
47737SOL     OW45049   4.524   0.603   8.658
47737SOL    HW145050   4.578   0.541   8.607
47737SOL    HW245051   4.436   0.567   8.654
47738SOL     OW45052   2.172   1.965  14.221
47738SOL    HW145053   2.259   1.935  14.247
47738SOL    HW245054   2.164   1.939  14.129
47739SOL     OW45055  14.540  12.627   6.127
47739SOL    HW145056  14.462  12.616   6.182
47739SOL    HW245057  14.611  12.643   6.189
47740SOL     OW45058   7.737   4.159  13.048
47740SOL    HW145059   7.721   4.131  13.138
47740SOL    HW245060   7.831   4.145  13.035
47741SOL     OW45061  10.078  12.552  12.462
47741SOL    HW145062  10.134  12.605  12.406
47741SOL    HW245063  10.125  12.545  12.544
47742SOL     OW45064   5.778  10.719   1.168
47742SOL    HW145065   5.683  10.733   1.163
47742SOL    HW245066   5.789  10.658   1.241
47743SOL     OW45067  14.149   5.364  12.165
47743SOL    HW145068  14.138   5.389  12.073
47743SOL    HW245069  14.121   5.273  12.168
47744SOL     OW45070   0.914   0.093   9.788
47744SOL    HW145071   0.962   0.012   9.805
47744SOL    HW245072   0.943   0.152   9.859
47745SOL     OW45073  10.764   0.646   0.432
47745SOL    HW145074  10.771   0.560   0.391
47745SOL    HW245075  10.719   0.629   0.515
47746SOL     OW45076   4.516   2.903   5.861
47746SOL    HW145077   4.570   2.928   5.936
47746SOL    HW245078   4.520   2.808   5.858
47747SOL     OW45079  14.386   3.081  11.597
47747SOL    HW145080  14.359   3.063  11.507
47747SOL    HW245081  14.441   3.007  11.620
47748SOL     OW45082   7.033   1.223   6.880
47748SOL    HW145083   7.035   1.277   6.959
47748SOL    HW245084   7.080   1.276   6.814
47749SOL     OW45085   9.852  13.090   8.597
47749SOL    HW145086   9.885  13.002   8.615
47749SOL    HW245087   9.779  13.077   8.536
47750SOL     OW45088   5.817  12.284   4.703
47750SOL    HW145089   5.732  12.246   4.725
47750SOL    HW245090   5.860  12.297   4.788
47751SOL     OW45091  11.596   3.630   7.275
47751SOL    HW145092  11.506   3.662   7.267
47751SOL    HW245093  11.622   3.610   7.185
47752SOL     OW45094  14.682   3.216  11.589
47752SOL    HW145095  14.598   3.171  11.577
47752SOL    HW245096  14.740   3.175  11.525
47753SOL     OW45097   2.249   4.896   8.879
47753SOL    HW145098   2.333   4.942   8.890
47753SOL    HW245099   2.201   4.949   8.816
47754SOL     OW45100   6.910   6.548  13.903
47754SOL    HW145101   6.841   6.613  13.900
47754SOL    HW245102   6.897   6.494  13.824
47755SOL     OW45103   9.305   7.341   1.301
47755SOL    HW145104   9.347   7.427   1.311
47755SOL    HW245105   9.233   7.343   1.364
47756SOL     OW45106  14.134  14.843   8.619
47756SOL    HW145107  14.183  14.790   8.556
47756SOL    HW245108  14.180  14.830   8.702
47757SOL     OW45109   0.741   4.274   8.184
47757SOL    HW145110   0.664   4.257   8.238
47757SOL    HW245111   0.707   4.273   8.094
47758SOL     OW45112  11.638   6.716   3.030
47758SOL    HW145113  11.584   6.779   2.984
47758SOL    HW245114  11.596   6.631   3.015
47759SOL     OW45115   0.820  10.597  10.789
47759SOL    HW145116   0.777  10.681  10.808
47759SOL    HW245117   0.851  10.606  10.699
47760SOL     OW45118   9.965   9.615  14.583
47760SOL    HW145119   9.949   9.529  14.620
47760SOL    HW245120   9.881   9.661  14.590
47761SOL     OW45121   4.082   9.397   5.311
47761SOL    HW145122   4.144   9.403   5.384
47761SOL    HW245123   4.131   9.430   5.236
47762SOL     OW45124   6.106  13.732   9.426
47762SOL    HW145125   6.167  13.792   9.384
47762SOL    HW245126   6.022  13.751   9.384
47763SOL     OW45127   7.310   0.135  13.091
47763SOL    HW145128   7.256   0.059  13.115
47763SOL    HW245129   7.246   0.205  13.074
47764SOL     OW45130  13.764  14.783  10.699
47764SOL    HW145131  13.718  14.743  10.625
47764SOL    HW245132  13.844  14.819  10.662
47765SOL     OW45133   2.228   6.268  12.768
47765SOL    HW145134   2.160   6.314  12.719
47765SOL    HW245135   2.200   6.276  12.860
47766SOL     OW45136   7.072   0.914  10.931
47766SOL    HW145137   6.995   0.871  10.895
47766SOL    HW245138   7.106   0.968  10.860
47767SOL     OW45139  11.208  12.437  12.810
47767SOL    HW145140  11.283  12.389  12.775
47767SOL    HW245141  11.138  12.372  12.815
47768SOL     OW45142   6.110  11.766   2.359
47768SOL    HW145143   6.061  11.701   2.410
47768SOL    HW245144   6.055  11.785   2.284
47769SOL     OW45145   5.928  11.291   4.586
47769SOL    HW145146   5.954  11.321   4.498
47769SOL    HW245147   5.946  11.366   4.643
47770SOL     OW45148  13.764  10.753   6.164
47770SOL    HW145149  13.830  10.820   6.145
47770SOL    HW245150  13.771  10.691   6.091
47771SOL     OW45151   9.447   9.673  10.003
47771SOL    HW145152   9.437   9.763  10.032
47771SOL    HW245153   9.518   9.638  10.057
47772SOL     OW45154   2.015  11.912   6.655
47772SOL    HW145155   2.065  11.969   6.596
47772SOL    HW245156   1.930  11.901   6.612
47773SOL     OW45157   1.825   5.674  13.517
47773SOL    HW145158   1.919   5.673  13.497
47773SOL    HW245159   1.790   5.745  13.463
47774SOL     OW45160   0.149  11.990   7.824
47774SOL    HW145161   0.182  12.026   7.742
47774SOL    HW245162   0.076  12.049   7.848
47775SOL     OW45163   8.477  13.704   5.959
47775SOL    HW145164   8.384  13.727   5.967
47775SOL    HW245165   8.522  13.773   6.008
47776SOL     OW45166   0.511   4.193   7.667
47776SOL    HW145167   0.547   4.260   7.609
47776SOL    HW245168   0.454   4.241   7.727
47777SOL     OW45169   3.298  12.052  12.059
47777SOL    HW145170   3.317  12.029  12.150
47777SOL    HW245171   3.267  11.970  12.020
47778SOL     OW45172   4.453  13.420  11.609
47778SOL    HW145173   4.387  13.447  11.546
47778SOL    HW245174   4.411  13.350  11.660
47779SOL     OW45175   2.767   2.188   4.349
47779SOL    HW145176   2.732   2.249   4.285
47779SOL    HW245177   2.691   2.155   4.396
47780SOL     OW45178   3.623   7.292   7.688
47780SOL    HW145179   3.528   7.295   7.694
47780SOL    HW245180   3.641   7.278   7.595
47781SOL     OW45181   1.844  14.474  11.181
47781SOL    HW145182   1.815  14.553  11.225
47781SOL    HW245183   1.909  14.505  11.117
47782SOL     OW45184   5.863   8.017   5.934
47782SOL    HW145185   5.898   7.928   5.927
47782SOL    HW245186   5.892   8.048   6.020
47783SOL     OW45187   1.552   3.382   2.251
47783SOL    HW145188   1.495   3.359   2.178
47783SOL    HW245189   1.592   3.465   2.225
47784SOL     OW45190   3.229   2.017  14.318
47784SOL    HW145191   3.178   1.981  14.245
47784SOL    HW245192   3.173   2.085  14.356
47785SOL     OW45193   4.995   3.120   0.200
47785SOL    HW145194   5.046   3.059   0.253
47785SOL    HW245195   5.011   3.206   0.240
47786SOL     OW45196   6.628  11.028  11.438
47786SOL    HW145197   6.627  11.023  11.533
47786SOL    HW245198   6.558  11.089  11.415
47787SOL     OW45199   6.669   0.311  10.475
47787SOL    HW145200   6.669   0.224  10.436
47787SOL    HW245201   6.592   0.355  10.438
47788SOL     OW45202   0.858   7.972   1.042
47788SOL    HW145203   0.845   7.909   1.113
47788SOL    HW245204   0.809   8.050   1.071
47789SOL     OW45205  11.301   5.388  10.735
47789SOL    HW145206  11.322   5.328  10.807
47789SOL    HW245207  11.337   5.346  10.657
47790SOL     OW45208  12.867  13.617   7.880
47790SOL    HW145209  12.787  13.668   7.866
47790SOL    HW245210  12.932  13.657   7.822
47791SOL     OW45211   5.922  14.073   9.229
47791SOL    HW145212   5.968  14.101   9.309
47791SOL    HW245213   5.989  14.031   9.176
47792SOL     OW45214  14.301  13.564   8.480
47792SOL    HW145215  14.218  13.575   8.435
47792SOL    HW245216  14.308  13.640   8.537
47793SOL     OW45217   7.734   5.941   4.423
47793SOL    HW145218   7.738   5.946   4.518
47793SOL    HW245219   7.708   5.851   4.404
47794SOL     OW45220  14.653   7.925   5.805
47794SOL    HW145221  14.681   7.947   5.894
47794SOL    HW245222  14.637   7.830   5.808
47795SOL     OW45223   4.194  14.039  14.690
47795SOL    HW145224   4.211  13.947  14.670
47795SOL    HW245225   4.179  14.079  14.604
47796SOL     OW45226  14.230   5.820   3.894
47796SOL    HW145227  14.264   5.817   3.983
47796SOL    HW245228  14.226   5.913   3.873
47797SOL     OW45229   9.546   8.995  14.216
47797SOL    HW145230   9.618   8.956  14.165
47797SOL    HW245231   9.584   9.074  14.254
47798SOL     OW45232  10.115   8.689  12.099
47798SOL    HW145233  10.077   8.676  12.012
47798SOL    HW245234  10.204   8.655  12.091
47799SOL     OW45235   0.947   8.797  12.457
47799SOL    HW145236   0.913   8.774  12.370
47799SOL    HW245237   1.014   8.863  12.440
47800SOL     OW45238   4.161   3.049  10.899
47800SOL    HW145239   4.240   3.084  10.941
47800SOL    HW245240   4.148   2.964  10.941
47801SOL     OW45241  10.130   8.127   7.110
47801SOL    HW145242  10.169   8.214   7.114
47801SOL    HW245243  10.085   8.117   7.194
47802SOL     OW45244  12.128  14.665   0.188
47802SOL    HW145245  12.176  14.611   0.250
47802SOL    HW245246  12.112  14.747   0.234
47803SOL     OW45247   2.092   8.245  11.994
47803SOL    HW145248   2.158   8.311  12.018
47803SOL    HW245249   2.097   8.239  11.899
47804SOL     OW45250   1.295   4.922  11.222
47804SOL    HW145251   1.246   4.989  11.269
47804SOL    HW245252   1.234   4.891  11.155
47805SOL     OW45253   0.116   8.744   2.019
47805SOL    HW145254   0.154   8.786   1.942
47805SOL    HW245255   0.046   8.688   1.984
47806SOL     OW45256   7.009   2.870  13.321
47806SOL    HW145257   7.026   2.929  13.247
47806SOL    HW245258   6.923   2.833  13.302
47807SOL     OW45259   0.629  14.589   6.145
47807SOL    HW145260   0.652  14.552   6.231
47807SOL    HW245261   0.714  14.608   6.104
47808SOL     OW45262   1.448   1.377  12.052
47808SOL    HW145263   1.471   1.284  12.058
47808SOL    HW245264   1.518   1.415  11.999
47809SOL     OW45265  11.489   0.517   3.298
47809SOL    HW145266  11.451   0.574   3.365
47809SOL    HW245267  11.416   0.463   3.269
47810SOL     OW45268   6.039   0.204   3.685
47810SOL    HW145269   5.965   0.192   3.627
47810SOL    HW245270   6.018   0.153   3.763
47811SOL     OW45271   1.123  12.986   3.180
47811SOL    HW145272   1.084  13.061   3.136
47811SOL    HW245273   1.055  12.956   3.240
47812SOL     OW45274   7.708   6.821   8.442
47812SOL    HW145275   7.691   6.842   8.534
47812SOL    HW245276   7.624   6.787   8.410
47813SOL     OW45277   5.128  14.736   6.383
47813SOL    HW145278   5.148  14.791   6.459
47813SOL    HW245279   5.207  14.739   6.329
47814SOL     OW45280  11.091   3.505  10.856
47814SOL    HW145281  11.160   3.480  10.795
47814SOL    HW245282  11.011   3.504  10.804
47815SOL     OW45283  13.341   2.626   5.872
47815SOL    HW145284  13.261   2.604   5.824
47815SOL    HW245285  13.343   2.722   5.873
47816SOL     OW45286   7.330   8.075  11.082
47816SOL    HW145287   7.426   8.070  11.088
47816SOL    HW245288   7.299   7.996  11.126
47817SOL     OW45289  12.440   6.949  13.854
47817SOL    HW145290  12.498   7.026  13.858
47817SOL    HW245291  12.380   6.962  13.928
47818SOL     OW45292   0.795   9.648   5.293
47818SOL    HW145293   0.862   9.714   5.312
47818SOL    HW245294   0.827   9.604   5.214
47819SOL     OW45295   1.085   7.885  10.095
47819SOL    HW145296   0.993   7.893  10.068
47819SOL    HW245297   1.083   7.826  10.171
47820SOL     OW45298  14.621   3.952   9.680
47820SOL    HW145299  14.703   3.907   9.698
47820SOL    HW245300  14.647   4.043   9.666
47821SOL     OW45301   8.513   7.825  13.667
47821SOL    HW145302   8.430   7.815  13.619
47821SOL    HW245303   8.577   7.776  13.615
47822SOL     OW45304   8.944   9.320   3.970
47822SOL    HW145305   8.988   9.393   3.926
47822SOL    HW245306   8.864   9.305   3.919
47823SOL     OW45307   3.475   1.677  12.314
47823SOL    HW145308   3.383   1.674  12.340
47823SOL    HW245309   3.481   1.748  12.251
47824SOL     OW45310   3.868  12.226   4.851
47824SOL    HW145311   3.809  12.211   4.925
47824SOL    HW245312   3.895  12.138   4.823
47825SOL     OW45313  13.464   9.668   9.337
47825SOL    HW145314  13.393   9.606   9.319
47825SOL    HW245315  13.523   9.659   9.262
47826SOL     OW45316   6.891  10.291  11.132
47826SOL    HW145317   6.928  10.247  11.208
47826SOL    HW245318   6.954  10.360  11.110
47827SOL     OW45319   5.361  11.040   7.365
47827SOL    HW145320   5.323  10.979   7.302
47827SOL    HW245321   5.455  11.037   7.348
47828SOL     OW45322   9.585  10.074   3.854
47828SOL    HW145323   9.573  10.079   3.949
47828SOL    HW245324   9.499  10.052   3.819
47829SOL     OW45325   6.034  11.083  10.391
47829SOL    HW145326   5.964  11.030  10.353
47829SOL    HW245327   6.068  11.134  10.318
47830SOL     OW45328   5.845   8.142   3.547
47830SOL    HW145329   5.872   8.230   3.521
47830SOL    HW245330   5.925   8.103   3.584
47831SOL     OW45331   0.545   4.117  10.806
47831SOL    HW145332   0.619   4.149  10.858
47831SOL    HW245333   0.474   4.107  10.870
47832SOL     OW45334  10.359  11.858   6.136
47832SOL    HW145335  10.325  11.781   6.183
47832SOL    HW245336  10.395  11.913   6.205
47833SOL     OW45337  12.723  12.276   7.108
47833SOL    HW145338  12.682  12.362   7.093
47833SOL    HW245339  12.657  12.213   7.081
47834SOL     OW45340   5.462  12.629  11.055
47834SOL    HW145341   5.484  12.630  11.148
47834SOL    HW245342   5.541  12.594  11.013
47835SOL     OW45343   8.180   2.220   5.153
47835SOL    HW145344   8.117   2.174   5.098
47835SOL    HW245345   8.191   2.305   5.111
47836SOL     OW45346   5.645   7.343   6.858
47836SOL    HW145347   5.712   7.275   6.857
47836SOL    HW245348   5.572   7.304   6.906
47837SOL     OW45349   5.778  11.863   7.557
47837SOL    HW145350   5.691  11.839   7.591
47837SOL    HW245351   5.831  11.784   7.567
47838SOL     OW45352   6.007  10.726   6.856
47838SOL    HW145353   5.969  10.762   6.936
47838SOL    HW245354   6.043  10.802   6.811
47839SOL     OW45355   0.899   9.548  14.444
47839SOL    HW145356   0.816   9.580  14.479
47839SOL    HW245357   0.965   9.595  14.494
47840SOL     OW45358  14.735   1.307   2.359
47840SOL    HW145359  14.683   1.382   2.332
47840SOL    HW245360  14.692   1.276   2.439
47841SOL     OW45361  14.876  11.139   8.734
47841SOL    HW145362   0.024  11.216   8.684
47841SOL    HW245363  14.789  11.164   8.767
47842SOL     OW45364  10.891   0.694   2.843
47842SOL    HW145365  10.890   0.729   2.754
47842SOL    HW245366  10.809   0.725   2.882
47843SOL     OW45367  14.192   5.246   1.880
47843SOL    HW145368  14.103   5.281   1.874
47843SOL    HW245369  14.246   5.312   1.836
47844SOL     OW45370  13.677   8.028  10.007
47844SOL    HW145371  13.581   8.029  10.006
47844SOL    HW245372  13.701   8.118   9.986
47845SOL     OW45373   2.909  11.215   0.390
47845SOL    HW145374   2.982  11.243   0.334
47845SOL    HW245375   2.876  11.136   0.349
47846SOL     OW45376   1.304   6.767   9.961
47846SOL    HW145377   1.315   6.716  10.041
47846SOL    HW245378   1.343   6.713   9.892
47847SOL     OW45379   5.700   4.345  14.619
47847SOL    HW145380   5.611   4.367  14.591
47847SOL    HW245381   5.698   4.350  14.714
47848SOL     OW45382   8.912   5.303   6.020
47848SOL    HW145383   8.956   5.359   5.957
47848SOL    HW245384   8.983   5.262   6.069
47849SOL     OW45385   9.090   8.325  14.182
47849SOL    HW145386   9.082   8.246  14.129
47849SOL    HW245387   9.011   8.325  14.237
47850SOL     OW45388   5.522   3.851   6.071
47850SOL    HW145389   5.500   3.855   6.164
47850SOL    HW245390   5.512   3.940   6.040
47851SOL     OW45391  12.019  13.504   8.623
47851SOL    HW145392  12.011  13.511   8.718
47851SOL    HW245393  11.958  13.434   8.599
47852SOL     OW45394   4.887   5.035   8.810
47852SOL    HW145395   4.861   5.091   8.737
47852SOL    HW245396   4.839   5.071   8.886
47853SOL     OW45397   2.700   3.052  12.902
47853SOL    HW145398   2.664   2.964  12.911
47853SOL    HW245399   2.793   3.040  12.887
47854SOL     OW45400   0.439   1.698  10.336
47854SOL    HW145401   0.376   1.762  10.370
47854SOL    HW245402   0.411   1.614  10.373
47855SOL     OW45403  13.456   0.094   7.272
47855SOL    HW145404  13.411   0.066   7.351
47855SOL    HW245405  13.549   0.086   7.293
47856SOL     OW45406  12.461  14.194   9.624
47856SOL    HW145407  12.539  14.177   9.571
47856SOL    HW245408  12.391  14.145   9.581
47857SOL     OW45409  14.075   1.283   2.239
47857SOL    HW145410  14.130   1.206   2.255
47857SOL    HW245411  14.044   1.309   2.326
47858SOL     OW45412  10.248   2.328   2.394
47858SOL    HW145413  10.247   2.273   2.316
47858SOL    HW245414  10.252   2.266   2.467
47859SOL     OW45415   8.108   5.291   3.514
47859SOL    HW145416   8.049   5.245   3.574
47859SOL    HW245417   8.191   5.246   3.523
47860SOL     OW45418   9.209  14.545   4.441
47860SOL    HW145419   9.219  14.590   4.357
47860SOL    HW245420   9.121  14.570   4.470
47861SOL     OW45421   1.922   8.559   8.174
47861SOL    HW145422   2.007   8.601   8.165
47861SOL    HW245423   1.896   8.577   8.264
47862SOL     OW45424   1.840   3.340   6.356
47862SOL    HW145425   1.811   3.255   6.324
47862SOL    HW245426   1.829   3.398   6.280
47863SOL     OW45427   2.445   1.644   8.339
47863SOL    HW145428   2.377   1.708   8.360
47863SOL    HW245429   2.518   1.668   8.395
47864SOL     OW45430   0.333  14.565   0.886
47864SOL    HW145431   0.347  14.589   0.978
47864SOL    HW245432   0.307  14.473   0.888
47865SOL     OW45433   8.951   6.977   2.573
47865SOL    HW145434   8.864   6.978   2.612
47865SOL    HW245435   8.988   6.892   2.600
47866SOL     OW45436   5.770   9.077   5.558
47866SOL    HW145437   5.749   9.065   5.650
47866SOL    HW245438   5.721   9.155   5.532
47867SOL     OW45439   8.898   6.828   8.990
47867SOL    HW145440   8.923   6.763   8.924
47867SOL    HW245441   8.810   6.855   8.965
47868SOL     OW45442   8.723  13.256   9.299
47868SOL    HW145443   8.752  13.344   9.325
47868SOL    HW245444   8.628  13.258   9.310
47869SOL     OW45445   4.151  10.997   2.967
47869SOL    HW145446   4.133  10.905   2.983
47869SOL    HW245447   4.222  10.996   2.902
47870SOL     OW45448  10.851   6.153   8.789
47870SOL    HW145449  10.925   6.093   8.803
47870SOL    HW245450  10.891   6.240   8.790
47871SOL     OW45451  10.139  11.928   6.569
47871SOL    HW145452  10.197  11.968   6.634
47871SOL    HW245453  10.165  11.968   6.486
47872SOL     OW45454   2.481  14.181   6.011
47872SOL    HW145455   2.401  14.147   6.052
47872SOL    HW245456   2.450  14.243   5.945
47873SOL     OW45457  10.822   8.156   8.784
47873SOL    HW145458  10.910   8.188   8.765
47873SOL    HW245459  10.778   8.232   8.824
47874SOL     OW45460   9.289   7.235   4.486
47874SOL    HW145461   9.225   7.164   4.474
47874SOL    HW245462   9.278   7.292   4.411
47875SOL     OW45463   0.874  10.110   9.031
47875SOL    HW145464   0.899  10.044   8.966
47875SOL    HW245465   0.779  10.121   9.019
47876SOL     OW45466   1.475   1.997   4.179
47876SOL    HW145467   1.440   2.052   4.249
47876SOL    HW245468   1.427   1.915   4.187
47877SOL     OW45469   8.502   4.143   7.482
47877SOL    HW145470   8.579   4.088   7.468
47877SOL    HW245471   8.435   4.083   7.514
47878SOL     OW45472   5.337   7.287  11.687
47878SOL    HW145473   5.353   7.330  11.771
47878SOL    HW245474   5.271   7.342  11.644
47879SOL     OW45475  12.787  11.682   9.677
47879SOL    HW145476  12.863  11.733   9.705
47879SOL    HW245477  12.718  11.747   9.664
47880SOL     OW45478   2.678  14.705  13.728
47880SOL    HW145479   2.768  14.697  13.761
47880SOL    HW245480   2.664  14.800  13.723
47881SOL     OW45481  12.475   6.795   3.224
47881SOL    HW145482  12.441   6.836   3.304
47881SOL    HW245483  12.454   6.857   3.155
47882SOL     OW45484   4.332   7.353  13.200
47882SOL    HW145485   4.337   7.289  13.129
47882SOL    HW245486   4.307   7.435  13.157
47883SOL     OW45487  13.787   8.618   4.316
47883SOL    HW145488  13.846   8.670   4.260
47883SOL    HW245489  13.841   8.593   4.391
47884SOL     OW45490  11.653   4.048  10.128
47884SOL    HW145491  11.602   4.126  10.148
47884SOL    HW245492  11.742   4.081  10.112
47885SOL     OW45493  12.063   9.433   4.355
47885SOL    HW145494  12.097   9.344   4.348
47885SOL    HW245495  12.130   9.480   4.405
47886SOL     OW45496   8.625  13.412  10.978
47886SOL    HW145497   8.532  13.435  10.972
47886SOL    HW245498   8.625  13.320  11.002
47887SOL     OW45499   0.643   0.935   9.621
47887SOL    HW145500   0.592   0.861   9.656
47887SOL    HW245501   0.599   1.013   9.655
47888SOL     OW45502   3.714   1.564   3.776
47888SOL    HW145503   3.663   1.616   3.838
47888SOL    HW245504   3.774   1.514   3.831
47889SOL     OW45505   8.966   2.985   6.107
47889SOL    HW145506   8.944   3.078   6.103
47889SOL    HW245507   8.924   2.947   6.030
47890SOL     OW45508   9.917   5.217   7.858
47890SOL    HW145509   9.935   5.130   7.823
47890SOL    HW245510   9.822   5.217   7.872
47891SOL     OW45511   0.434  13.393   1.800
47891SOL    HW145512   0.414  13.306   1.765
47891SOL    HW245513   0.469  13.441   1.725
47892SOL     OW45514   0.612   3.139  11.411
47892SOL    HW145515   0.564   3.062  11.381
47892SOL    HW245516   0.551   3.212  11.396
47893SOL     OW45517   5.747  10.125  11.074
47893SOL    HW145518   5.696  10.072  11.013
47893SOL    HW245519   5.729  10.215  11.049
47894SOL     OW45520   0.676   4.744  10.617
47894SOL    HW145521   0.720   4.670  10.576
47894SOL    HW245522   0.736   4.774  10.686
47895SOL     OW45523   9.918   5.976  13.737
47895SOL    HW145524  10.011   5.962  13.722
47895SOL    HW245525   9.905   6.070  13.722
47896SOL     OW45526   1.600  10.432   9.582
47896SOL    HW145527   1.590  10.521   9.548
47896SOL    HW245528   1.517  10.414   9.626
47897SOL     OW45529   9.783   7.150  11.741
47897SOL    HW145530   9.806   7.236  11.776
47897SOL    HW245531   9.695   7.133  11.774
47898SOL     OW45532   3.367  11.322  10.307
47898SOL    HW145533   3.382  11.402  10.357
47898SOL    HW245534   3.455  11.284  10.297
47899SOL     OW45535   5.696   2.610   8.290
47899SOL    HW145536   5.782   2.602   8.249
47899SOL    HW245537   5.661   2.520   8.290
47900SOL     OW45538   6.961   5.202   8.309
47900SOL    HW145539   6.877   5.174   8.274
47900SOL    HW245540   7.011   5.232   8.233
47901SOL     OW45541   6.966   9.410  14.734
47901SOL    HW145542   6.870   9.412  14.734
47901SOL    HW245543   6.992   9.494  14.697
47902SOL     OW45544   4.666   6.827   4.375
47902SOL    HW145545   4.571   6.817   4.376
47902SOL    HW245546   4.694   6.780   4.296
47903SOL     OW45547  11.510  12.600   5.440
47903SOL    HW145548  11.505  12.601   5.536
47903SOL    HW245549  11.420  12.583   5.412
47904SOL     OW45550   6.460  13.440   4.943
47904SOL    HW145551   6.528  13.376   4.924
47904SOL    HW245552   6.489  13.485   5.022
47905SOL     OW45553   6.516   2.451   9.299
47905SOL    HW145554   6.494   2.542   9.319
47905SOL    HW245555   6.589   2.430   9.357
47906SOL     OW45556   4.591   0.775  14.721
47906SOL    HW145557   4.677   0.739  14.698
47906SOL    HW245558   4.545   0.780  14.637
47907SOL     OW45559  13.466   6.886   7.572
47907SOL    HW145560  13.396   6.951   7.560
47907SOL    HW245561  13.541   6.937   7.603
47908SOL     OW45562   3.035  12.046   8.148
47908SOL    HW145563   2.984  12.077   8.073
47908SOL    HW245564   3.090  11.977   8.112
47909SOL     OW45565  10.431   5.414   1.924
47909SOL    HW145566  10.336   5.416   1.908
47909SOL    HW245567  10.439   5.411   2.019
47910SOL     OW45568  14.661  10.852   9.264
47910SOL    HW145569  14.567  10.842   9.275
47910SOL    HW245570  14.677  10.945   9.278
47911SOL     OW45571   4.920   1.892  10.257
47911SOL    HW145572   4.957   1.901  10.346
47911SOL    HW245573   4.899   1.799  10.250
47912SOL     OW45574  13.111   3.760  12.515
47912SOL    HW145575  13.131   3.793  12.603
47912SOL    HW245576  13.196   3.750  12.473
47913SOL     OW45577   3.892   2.994   4.105
47913SOL    HW145578   3.832   3.034   4.043
47913SOL    HW245579   3.839   2.979   4.184
47914SOL     OW45580  11.383   5.113   9.325
47914SOL    HW145581  11.378   5.054   9.250
47914SOL    HW245582  11.471   5.100   9.360
47915SOL     OW45583   6.473   8.956   0.218
47915SOL    HW145584   6.544   8.974   0.155
47915SOL    HW245585   6.395   8.946   0.164
47916SOL     OW45586  14.458  13.945   7.742
47916SOL    HW145587  14.483  13.937   7.650
47916SOL    HW245588  14.392  13.877   7.755
47917SOL     OW45589  10.424   7.291   4.769
47917SOL    HW145590  10.472   7.252   4.842
47917SOL    HW245591  10.350   7.232   4.753
47918SOL     OW45592  12.505  10.690   9.424
47918SOL    HW145593  12.468  10.665   9.509
47918SOL    HW245594  12.562  10.764   9.444
47919SOL     OW45595   2.534   4.053   9.368
47919SOL    HW145596   2.525   3.962   9.394
47919SOL    HW245597   2.444   4.083   9.354
47920SOL     OW45598   6.603   8.482  14.751
47920SOL    HW145599   6.662   8.507  14.822
47920SOL    HW245600   6.517   8.517  14.777
47921SOL     OW45601   8.896   7.994   8.250
47921SOL    HW145602   8.875   7.997   8.156
47921SOL    HW245603   8.864   7.908   8.279
47922SOL     OW45604   2.024  10.807   8.627
47922SOL    HW145605   2.030  10.712   8.626
47922SOL    HW245606   2.064  10.833   8.710
47923SOL     OW45607   5.571   4.082   9.239
47923SOL    HW145608   5.528   3.996   9.242
47923SOL    HW245609   5.530   4.126   9.164
47924SOL     OW45610   5.773  10.970   8.870
47924SOL    HW145611   5.806  11.033   8.806
47924SOL    HW245612   5.803  11.002   8.955
47925SOL     OW45613  10.552   2.631   3.064
47925SOL    HW145614  10.542   2.567   3.134
47925SOL    HW245615  10.598   2.584   2.994
47926SOL     OW45616  10.553   2.770  14.213
47926SOL    HW145617  10.465   2.773  14.176
47926SOL    HW245618  10.602   2.711  14.155
47927SOL     OW45619   4.432  12.951   0.177
47927SOL    HW145620   4.384  12.897   0.114
47927SOL    HW245621   4.364  13.001   0.222
47928SOL     OW45622   3.509  12.218   2.700
47928SOL    HW145623   3.539  12.281   2.766
47928SOL    HW245624   3.566  12.142   2.713
47929SOL     OW45625   2.665  10.338   7.755
47929SOL    HW145626   2.661  10.358   7.848
47929SOL    HW245627   2.724  10.264   7.748
47930SOL     OW45628   3.848  13.338  11.167
47930SOL    HW145629   3.943  13.336  11.168
47930SOL    HW245630   3.821  13.249  11.190
47931SOL     OW45631  14.606   3.465  11.617
47931SOL    HW145632  14.614   3.473  11.712
47931SOL    HW245633  14.648   3.381  11.597
47932SOL     OW45634   7.572   3.166  12.090
47932SOL    HW145635   7.558   3.164  11.995
47932SOL    HW245636   7.648   3.223  12.102
47933SOL     OW45637   9.553  10.193   0.622
47933SOL    HW145638   9.646  10.201   0.643
47933SOL    HW245639   9.523  10.284   0.611
47934SOL     OW45640   4.161   4.149   6.783
47934SOL    HW145641   4.169   4.062   6.744
47934SOL    HW245642   4.069   4.156   6.808
47935SOL     OW45643  14.383   2.855   9.876
47935SOL    HW145644  14.419   2.827   9.960
47935SOL    HW245645  14.332   2.780   9.845
47936SOL     OW45646  10.924  10.652   3.859
47936SOL    HW145647  10.889  10.687   3.940
47936SOL    HW245648  10.859  10.588   3.830
47937SOL     OW45649  11.996  12.403   4.837
47937SOL    HW145650  11.973  12.468   4.770
47937SOL    HW245651  12.075  12.438   4.878
47938SOL     OW45652   3.698   0.998  14.312
47938SOL    HW145653   3.639   0.952  14.372
47938SOL    HW245654   3.671   0.967  14.225
47939SOL     OW45655   1.234   9.155   9.784
47939SOL    HW145656   1.246   9.204   9.865
47939SOL    HW245657   1.149   9.183   9.751
47940SOL     OW45658   0.492   5.253   7.542
47940SOL    HW145659   0.568   5.252   7.600
47940SOL    HW245660   0.528   5.274   7.456
47941SOL     OW45661   6.137   5.307  10.711
47941SOL    HW145662   6.115   5.400  10.720
47941SOL    HW245663   6.227   5.307  10.679
47942SOL     OW45664   8.953   8.593   9.091
47942SOL    HW145665   9.024   8.627   9.036
47942SOL    HW245666   8.877   8.590   9.033
47943SOL     OW45667   4.345   8.174   5.896
47943SOL    HW145668   4.302   8.159   5.812
47943SOL    HW245669   4.274   8.172   5.960
47944SOL     OW45670   3.940   1.449  12.042
47944SOL    HW145671   3.919   1.540  12.023
47944SOL    HW245672   3.860   1.413  12.081
47945SOL     OW45673   5.248   8.276  11.341
47945SOL    HW145674   5.249   8.364  11.303
47945SOL    HW245675   5.162   8.241  11.318
47946SOL     OW45676  13.888   1.261  10.433
47946SOL    HW145677  13.867   1.273  10.341
47946SOL    HW245678  13.806   1.276  10.479
47947SOL     OW45679   0.680  10.651   3.266
47947SOL    HW145680   0.606  10.641   3.206
47947SOL    HW245681   0.755  10.614   3.219
47948SOL     OW45682  14.588   1.209   8.949
47948SOL    HW145683  14.614   1.209   8.858
47948SOL    HW245684  14.660   1.251   8.996
47949SOL     OW45685  12.999   9.929   9.974
47949SOL    HW145686  13.062   9.962   9.909
47949SOL    HW245687  13.016   9.981  10.052
47950SOL     OW45688   6.317   7.109   9.241
47950SOL    HW145689   6.333   7.202   9.228
47950SOL    HW245690   6.354   7.067   9.163
47951SOL     OW45691   0.055   0.300   7.263
47951SOL    HW145692   0.068   0.276   7.171
47951SOL    HW245693  14.882   0.231   7.298
47952SOL     OW45694   2.827   4.962   5.229
47952SOL    HW145695   2.900   4.900   5.226
47952SOL    HW245696   2.853   5.026   5.295
47953SOL     OW45697   7.868  12.787  11.943
47953SOL    HW145698   7.920  12.794  11.863
47953SOL    HW245699   7.931  12.762  12.010
47954SOL     OW45700   7.952   2.860   9.270
47954SOL    HW145701   7.905   2.808   9.204
47954SOL    HW245702   7.917   2.829   9.354
47955SOL     OW45703  14.116   0.694   7.780
47955SOL    HW145704  14.043   0.749   7.751
47955SOL    HW245705  14.168   0.751   7.837
47956SOL     OW45706  14.106   9.563   1.651
47956SOL    HW145707  14.049   9.491   1.625
47956SOL    HW245708  14.059   9.642   1.625
47957SOL     OW45709  12.546   3.644  10.081
47957SOL    HW145710  12.552   3.580  10.151
47957SOL    HW245711  12.488   3.712  10.114
47958SOL     OW45712   6.886  11.783  12.358
47958SOL    HW145713   6.966  11.808  12.311
47958SOL    HW245714   6.915  11.761  12.446
47959SOL     OW45715   9.153   2.113   9.041
47959SOL    HW145716   9.227   2.140   8.987
47959SOL    HW245717   9.125   2.193   9.085
47960SOL     OW45718   3.516   9.496  11.863
47960SOL    HW145719   3.454   9.526  11.930
47960SOL    HW245720   3.460   9.459  11.795
47961SOL     OW45721  12.565  10.390   8.271
47961SOL    HW145722  12.633  10.361   8.211
47961SOL    HW245723  12.611  10.402   8.355
47962SOL     OW45724   5.448   0.347   5.569
47962SOL    HW145725   5.501   0.425   5.556
47962SOL    HW245726   5.358   0.375   5.551
47963SOL     OW45727  11.772   5.488   9.958
47963SOL    HW145728  11.857   5.508   9.918
47963SOL    HW245729  11.781   5.518  10.049
47964SOL     OW45730  10.757  11.228   0.109
47964SOL    HW145731  10.720  11.243   0.022
47964SOL    HW245732  10.709  11.288   0.166
47965SOL     OW45733   6.178   1.210   2.476
47965SOL    HW145734   6.232   1.131   2.476
47965SOL    HW245735   6.232   1.277   2.517
47966SOL     OW45736  12.526   3.467   2.934
47966SOL    HW145737  12.548   3.412   2.858
47966SOL    HW245738  12.558   3.418   3.009
47967SOL     OW45739   5.213   5.805   5.107
47967SOL    HW145740   5.176   5.723   5.139
47967SOL    HW245741   5.248   5.783   5.020
47968SOL     OW45742   4.341   4.019   9.984
47968SOL    HW145743   4.403   3.972   9.928
47968SOL    HW245744   4.320   3.958  10.054
47969SOL     OW45745  12.974   2.309  13.025
47969SOL    HW145746  12.941   2.286  12.939
47969SOL    HW245747  13.009   2.397  13.015
47970SOL     OW45748   2.111   6.255  10.119
47970SOL    HW145749   2.057   6.331  10.099
47970SOL    HW245750   2.188   6.265  10.063
47971SOL     OW45751  12.213   3.589   6.937
47971SOL    HW145752  12.284   3.653   6.926
47971SOL    HW245753  12.259   3.507   6.956
47972SOL     OW45754   2.149   0.793   6.792
47972SOL    HW145755   2.225   0.736   6.786
47972SOL    HW245756   2.082   0.751   6.738
47973SOL     OW45757   5.735   7.680  12.394
47973SOL    HW145758   5.670   7.663  12.463
47973SOL    HW245759   5.690   7.737  12.332
47974SOL     OW45760  13.267   7.269  14.391
47974SOL    HW145761  13.208   7.195  14.378
47974SOL    HW245762  13.309   7.283  14.306
47975SOL     OW45763   4.128   6.721   1.143
47975SOL    HW145764   4.113   6.626   1.139
47975SOL    HW245765   4.169   6.742   1.059
47976SOL     OW45766   0.076   1.163  14.173
47976SOL    HW145767   0.105   1.250  14.144
47976SOL    HW245768   0.149   1.130  14.225
47977SOL     OW45769   3.594  10.752  11.111
47977SOL    HW145770   3.524  10.793  11.161
47977SOL    HW245771   3.613  10.671  11.157
47978SOL     OW45772  14.213  14.800   2.682
47978SOL    HW145773  14.247  14.833   2.766
47978SOL    HW245774  14.289  14.766   2.636
47979SOL     OW45775   5.218   3.051   3.972
47979SOL    HW145776   5.226   3.140   3.937
47979SOL    HW245777   5.213   3.063   4.067
47980SOL     OW45778  11.927   8.962   8.199
47980SOL    HW145779  11.884   8.887   8.239
47980SOL    HW245780  11.875   9.038   8.225
47981SOL     OW45781   4.746   6.193   1.192
47981SOL    HW145782   4.822   6.240   1.227
47981SOL    HW245783   4.726   6.127   1.258
47982SOL     OW45784   5.368   9.423   2.974
47982SOL    HW145785   5.415   9.387   3.049
47982SOL    HW245786   5.281   9.383   2.978
47983SOL     OW45787   9.526   8.737   1.319
47983SOL    HW145788   9.568   8.789   1.251
47983SOL    HW245789   9.433   8.742   1.299
47984SOL     OW45790   6.108   2.848   5.633
47984SOL    HW145791   6.174   2.814   5.694
47984SOL    HW245792   6.124   2.942   5.630
47985SOL     OW45793   7.700  14.620  11.740
47985SOL    HW145794   7.669  14.710  11.751
47985SOL    HW245795   7.793  14.629  11.720
47986SOL     OW45796   2.274  11.505   0.703
47986SOL    HW145797   2.286  11.560   0.626
47986SOL    HW245798   2.188  11.465   0.692
47987SOL     OW45799   9.257   4.892   8.499
47987SOL    HW145800   9.234   4.983   8.483
47987SOL    HW245801   9.325   4.873   8.434
47988SOL     OW45802  13.665   1.560   6.475
47988SOL    HW145803  13.712   1.477   6.464
47988SOL    HW245804  13.708   1.621   6.415
47989SOL     OW45805   4.580   3.058   5.346
47989SOL    HW145806   4.578   3.103   5.431
47989SOL    HW245807   4.579   2.965   5.369
47990SOL     OW45808   9.196   9.991   5.962
47990SOL    HW145809   9.270   9.940   5.994
47990SOL    HW245810   9.218  10.082   5.986
47991SOL     OW45811   1.295  13.190  12.039
47991SOL    HW145812   1.310  13.249  12.114
47991SOL    HW245813   1.254  13.113  12.078
47992SOL     OW45814   4.704  10.714   3.482
47992SOL    HW145815   4.687  10.809   3.486
47992SOL    HW245816   4.628  10.679   3.434
47993SOL     OW45817  14.241   5.237  11.103
47993SOL    HW145818  14.204   5.301  11.165
47993SOL    HW245819  14.319   5.203  11.148
47994SOL     OW45820   2.340   2.349  13.108
47994SOL    HW145821   2.370   2.402  13.033
47994SOL    HW245822   2.322   2.413  13.176
47995SOL     OW45823   2.800   4.382   7.602
47995SOL    HW145824   2.872   4.327   7.632
47995SOL    HW245825   2.784   4.355   7.512
47996SOL     OW45826   1.889   9.422  13.249
47996SOL    HW145827   1.850   9.509  13.236
47996SOL    HW245828   1.984   9.439  13.254
47997SOL     OW45829   1.600   5.734  11.733
47997SOL    HW145830   1.565   5.798  11.671
47997SOL    HW245831   1.583   5.772  11.819
47998SOL     OW45832  10.838  14.669   2.170
47998SOL    HW145833  10.919  14.719   2.180
47998SOL    HW245834  10.857  14.606   2.100
47999SOL     OW45835   9.491  14.854   1.150
47999SOL    HW145836   9.565  14.797   1.168
47999SOL    HW245837   9.523   0.032   1.082
48000SOL     OW45838   4.718   7.472   3.450
48000SOL    HW145839   4.734   7.563   3.475
48000SOL    HW245840   4.736   7.422   3.530
48001SOL     OW45841  14.833   8.903   4.997
48001SOL    HW145842  14.875   8.924   5.081
48001SOL    HW245843   0.012   8.844   4.953
48002SOL     OW45844  10.960   6.996  12.390
48002SOL    HW145845  10.903   7.021  12.318
48002SOL    HW245846  10.994   7.079  12.424
48003SOL     OW45847   5.838   4.984   7.868
48003SOL    HW145848   5.882   4.901   7.887
48003SOL    HW245849   5.908   5.049   7.870
48004SOL     OW45850   5.906   4.078   1.118
48004SOL    HW145851   5.823   4.032   1.106
48004SOL    HW245852   5.973   4.009   1.119
48005SOL     OW45853   2.706  11.963   7.590
48005SOL    HW145854   2.736  12.040   7.638
48005SOL    HW245855   2.728  11.982   7.498
48006SOL     OW45856   0.374  13.028  11.769
48006SOL    HW145857   0.422  13.050  11.849
48006SOL    HW245858   0.308  12.965  11.798
48007SOL     OW45859  12.766   5.924   6.119
48007SOL    HW145860  12.678   5.962   6.123
48007SOL    HW245861  12.824   5.998   6.135
48008SOL     OW45862  13.698   8.300   1.134
48008SOL    HW145863  13.727   8.391   1.128
48008SOL    HW245864  13.690   8.284   1.228
48009SOL     OW45865   7.956   0.074   8.775
48009SOL    HW145866   7.880   0.069   8.717
48009SOL    HW245867   7.967  14.867   8.807
48010SOL     OW45868   6.394   6.997  10.064
48010SOL    HW145869   6.352   7.061  10.122
48010SOL    HW245870   6.328   6.928  10.054
48011SOL     OW45871  12.847  14.333   4.776
48011SOL    HW145872  12.894  14.376   4.847
48011SOL    HW245873  12.850  14.240   4.798
48012SOL     OW45874  11.849   6.686   7.489
48012SOL    HW145875  11.840   6.635   7.570
48012SOL    HW245876  11.889   6.769   7.517
48013SOL     OW45877   1.888   2.297   4.938
48013SOL    HW145878   1.936   2.214   4.945
48013SOL    HW245879   1.927   2.340   4.861
48014SOL     OW45880   7.405   7.066   4.475
48014SOL    HW145881   7.380   6.975   4.458
48014SOL    HW245882   7.497   7.061   4.502
48015SOL     OW45883  13.198   8.089   6.330
48015SOL    HW145884  13.110   8.099   6.295
48015SOL    HW245885  13.237   8.177   6.323
48016SOL     OW45886  11.613   6.391   8.471
48016SOL    HW145887  11.538   6.449   8.458
48016SOL    HW245888  11.605   6.361   8.562
48017SOL     OW45889   5.950  13.294   0.762
48017SOL    HW145890   5.873  13.239   0.778
48017SOL    HW245891   6.015  13.236   0.723
48018SOL     OW45892   0.428   1.491  12.979
48018SOL    HW145893   0.358   1.459  12.921
48018SOL    HW245894   0.485   1.416  12.992
48019SOL     OW45895   9.492   7.789   8.626
48019SOL    HW145896   9.430   7.822   8.691
48019SOL    HW245897   9.494   7.694   8.640
48020SOL     OW45898   8.470   1.026   6.731
48020SOL    HW145899   8.500   0.944   6.771
48020SOL    HW245900   8.519   1.094   6.777
48021SOL     OW45901   1.800   8.720  13.340
48021SOL    HW145902   1.718   8.719  13.291
48021SOL    HW245903   1.808   8.809  13.373
48022SOL     OW45904  12.244   3.483   6.082
48022SOL    HW145905  12.281   3.566   6.052
48022SOL    HW245906  12.306   3.452   6.148
48023SOL     OW45907   2.268   8.606  10.451
48023SOL    HW145908   2.305   8.615  10.538
48023SOL    HW245909   2.303   8.523  10.419
48024SOL     OW45910   0.802   7.099  10.825
48024SOL    HW145911   0.860   7.035  10.867
48024SOL    HW245912   0.752   7.137  10.898
48025SOL     OW45913  14.454  12.603   4.623
48025SOL    HW145914  14.486  12.654   4.548
48025SOL    HW245915  14.361  12.590   4.605
48026SOL     OW45916   5.427   8.170   4.019
48026SOL    HW145917   5.460   8.089   3.981
48026SOL    HW245918   5.344   8.144   4.060
48027SOL     OW45919   8.008   7.912  12.617
48027SOL    HW145920   8.065   7.889  12.544
48027SOL    HW245921   8.032   7.851  12.687
48028SOL     OW45922  11.386   9.273   7.428
48028SOL    HW145923  11.442   9.260   7.504
48028SOL    HW245924  11.303   9.232   7.451
48029SOL     OW45925   9.724  14.727  13.089
48029SOL    HW145926   9.642  14.775  13.077
48029SOL    HW245927   9.698  14.635  13.087
48030SOL     OW45928   3.682   1.874  14.447
48030SOL    HW145929   3.740   1.948  14.426
48030SOL    HW245930   3.662   1.835  14.362
48031SOL     OW45931  13.583  14.454   9.090
48031SOL    HW145932  13.496  14.460   9.052
48031SOL    HW245933  13.622  14.541   9.075
48032SOL     OW45934   2.815  12.765   1.408
48032SOL    HW145935   2.792  12.681   1.448
48032SOL    HW245936   2.909  12.773   1.420
48033SOL     OW45937   0.675  14.338   3.263
48033SOL    HW145938   0.736  14.283   3.312
48033SOL    HW245939   0.628  14.388   3.331
48034SOL     OW45940   2.589   0.604   0.119
48034SOL    HW145941   2.637   0.676   0.159
48034SOL    HW245942   2.578   0.540   0.190
48035SOL     OW45943   8.746   5.302  10.500
48035SOL    HW145944   8.742   5.383  10.450
48035SOL    HW245945   8.654   5.278  10.514
48036SOL     OW45946   5.102  13.878  12.644
48036SOL    HW145947   5.195  13.861  12.658
48036SOL    HW245948   5.062  13.791  12.640
48037SOL     OW45949  12.125  11.975   4.565
48037SOL    HW145950  12.052  11.956   4.506
48037SOL    HW245951  12.132  12.071   4.564
48038SOL     OW45952   0.888   7.523  14.772
48038SOL    HW145953   0.956   7.477  14.821
48038SOL    HW245954   0.832   7.454  14.736
48039SOL     OW45955  11.088   0.426   0.657
48039SOL    HW145956  11.101   0.502   0.713
48039SOL    HW245957  11.163   0.427   0.598
48040SOL     OW45958   2.502   9.725  12.408
48040SOL    HW145959   2.432   9.769  12.457
48040SOL    HW245960   2.487   9.751  12.317
48041SOL     OW45961  12.632   1.100   6.489
48041SOL    HW145962  12.671   1.051   6.417
48041SOL    HW245963  12.538   1.095   6.473
48042SOL     OW45964   6.808  10.198   2.628
48042SOL    HW145965   6.793  10.236   2.541
48042SOL    HW245966   6.780  10.107   2.619
48043SOL     OW45967   2.225   0.268   4.233
48043SOL    HW145968   2.292   0.250   4.167
48043SOL    HW245969   2.169   0.334   4.193
48044SOL     OW45970  12.270   3.506   2.980
48044SOL    HW145971  12.268   3.555   3.062
48044SOL    HW245972  12.363   3.489   2.965
48045SOL     OW45973   6.689   2.150   8.586
48045SOL    HW145974   6.715   2.125   8.498
48045SOL    HW245975   6.731   2.234   8.600
48046SOL     OW45976   9.369  10.417  10.535
48046SOL    HW145977   9.309  10.452  10.602
48046SOL    HW245978   9.423  10.491  10.510
48047SOL     OW45979   2.586  10.763  12.004
48047SOL    HW145980   2.601  10.722  11.919
48047SOL    HW245981   2.659  10.734  12.059
48048SOL     OW45982   0.920   5.878   6.669
48048SOL    HW145983   0.957   5.938   6.734
48048SOL    HW245984   0.837   5.919   6.644
48049SOL     OW45985  11.783  13.713  11.605
48049SOL    HW145986  11.849  13.644  11.605
48049SOL    HW245987  11.706  13.673  11.646
48050SOL     OW45988  10.064   1.259   4.257
48050SOL    HW145989  10.139   1.249   4.316
48050SOL    HW245990  10.083   1.200   4.184
48051SOL     OW45991   1.964  13.052  11.839
48051SOL    HW145992   2.027  13.100  11.892
48051SOL    HW245993   2.016  13.009  11.772
48052SOL     OW45994   3.681   2.156   5.255
48052SOL    HW145995   3.657   2.087   5.193
48052SOL    HW245996   3.721   2.224   5.201
48053SOL     OW45997   7.823   1.534  10.942
48053SOL    HW145998   7.762   1.481  10.993
48053SOL    HW245999   7.778   1.618  10.932
48054SOL     OW46000   7.273   1.636  11.542
48054SOL    HW146001   7.270   1.727  11.570
48054SOL    HW246002   7.195   1.624  11.488
48055SOL     OW46003   7.947   0.349  14.573
48055SOL    HW146004   7.875   0.410  14.560
48055SOL    HW246005   7.905   0.263  14.582
48056SOL     OW46006   6.872  11.375   7.785
48056SOL    HW146007   6.870  11.312   7.713
48056SOL    HW246008   6.802  11.436   7.766
48057SOL     OW46009  10.930   8.812  13.812
48057SOL    HW146010  10.943   8.877  13.881
48057SOL    HW246011  10.925   8.863  13.731
48058SOL     OW46012   7.349   2.954   9.190
48058SOL    HW146013   7.280   2.983   9.131
48058SOL    HW246014   7.326   2.992   9.275
48059SOL     OW46015   2.082  12.871   8.707
48059SOL    HW146016   1.988  12.856   8.717
48059SOL    HW246017   2.097  12.959   8.742
48060SOL     OW46018   7.856  13.940   5.962
48060SOL    HW146019   7.790  13.999   5.999
48060SOL    HW246020   7.931  13.948   6.021
48061SOL     OW46021   7.983   4.212  13.302
48061SOL    HW146022   7.907   4.233  13.356
48061SOL    HW246023   8.024   4.138  13.345
48062SOL     OW46024  12.176   9.124  12.121
48062SOL    HW146025  12.089   9.159  12.142
48062SOL    HW246026  12.186   9.049  12.180
48063SOL     OW46027   5.038   5.859  11.788
48063SOL    HW146028   5.067   5.949  11.776
48063SOL    HW246029   5.119   5.808  11.796
48064SOL     OW46030   3.932   6.235  14.226
48064SOL    HW146031   3.977   6.171  14.171
48064SOL    HW246032   3.941   6.202  14.315
48065SOL     OW46033   1.663  14.058  13.188
48065SOL    HW146034   1.735  13.997  13.176
48065SOL    HW246035   1.607  14.016  13.253
48066SOL     OW46036   0.712   5.298   2.794
48066SOL    HW146037   0.752   5.327   2.876
48066SOL    HW246038   0.622   5.275   2.818
48067SOL     OW46039   3.282   6.544   6.855
48067SOL    HW146040   3.202   6.517   6.902
48067SOL    HW246041   3.312   6.465   6.811
48068SOL     OW46042   1.492   3.742   3.371
48068SOL    HW146043   1.410   3.728   3.419
48068SOL    HW246044   1.489   3.679   3.299
48069SOL     OW46045   2.918  12.273   1.744
48069SOL    HW146046   2.943  12.218   1.818
48069SOL    HW246047   2.985  12.257   1.678
48070SOL     OW46048  11.932   7.092   8.990
48070SOL    HW146049  11.909   7.185   8.989
48070SOL    HW246050  11.932   7.068   9.083
48071SOL     OW46051   5.126   4.327  13.892
48071SOL    HW146052   5.129   4.287  13.805
48071SOL    HW246053   5.176   4.268  13.948
48072SOL     OW46054   1.428   1.426   9.881
48072SOL    HW146055   1.376   1.396   9.806
48072SOL    HW246056   1.516   1.393   9.862
48073SOL     OW46057   5.479   5.113  12.323
48073SOL    HW146058   5.460   5.167  12.247
48073SOL    HW246059   5.393   5.083  12.353
48074SOL     OW46060  12.787  11.636   1.741
48074SOL    HW146061  12.733  11.701   1.694
48074SOL    HW246062  12.829  11.686   1.811
48075SOL     OW46063   8.630  14.577  10.208
48075SOL    HW146064   8.624  14.481  10.208
48075SOL    HW246065   8.551  14.606  10.164
48076SOL     OW46066  11.043   2.642   1.122
48076SOL    HW146067  11.086   2.582   1.182
48076SOL    HW246068  10.959   2.600   1.102
48077SOL     OW46069  13.172  12.297  12.392
48077SOL    HW146070  13.148  12.389  12.408
48077SOL    HW246071  13.101  12.247  12.432
48078SOL     OW46072   6.855  14.594   6.355
48078SOL    HW146073   6.920  14.660   6.328
48078SOL    HW246074   6.778  14.613   6.302
48079SOL     OW46075   0.484   7.282   1.786
48079SOL    HW146076   0.507   7.351   1.848
48079SOL    HW246077   0.467   7.205   1.840
48080SOL     OW46078  10.114   9.266   0.556
48080SOL    HW146079  10.152   9.352   0.571
48080SOL    HW246080  10.175   9.205   0.598
48081SOL     OW46081   5.956  13.096   5.951
48081SOL    HW146082   5.960  13.065   6.041
48081SOL    HW246083   5.875  13.058   5.916
48082SOL     OW46084   0.104   0.961   4.945
48082SOL    HW146085   0.102   1.004   5.031
48082SOL    HW246086   0.159   1.019   4.891
48083SOL     OW46087   9.644  11.515   3.511
48083SOL    HW146088   9.672  11.510   3.420
48083SOL    HW246089   9.693  11.445   3.555
48084SOL     OW46090  13.216  12.636   6.557
48084SOL    HW146091  13.132  12.624   6.601
48084SOL    HW246092  13.268  12.686   6.619
48085SOL     OW46093  13.971   2.509   1.260
48085SOL    HW146094  13.881   2.486   1.283
48085SOL    HW246095  13.976   2.497   1.165
48086SOL     OW46096   4.457   9.744   0.675
48086SOL    HW146097   4.456   9.657   0.636
48086SOL    HW246098   4.548   9.772   0.670
48087SOL     OW46099   7.184   3.477   2.441
48087SOL    HW146100   7.196   3.462   2.534
48087SOL    HW246101   7.153   3.567   2.435
48088SOL     OW46102   2.664   1.551   1.964
48088SOL    HW146103   2.615   1.534   1.884
48088SOL    HW246104   2.755   1.533   1.941
48089SOL     OW46105   9.781   7.417  10.436
48089SOL    HW146106   9.733   7.353  10.488
48089SOL    HW246107   9.773   7.499  10.484
48090SOL     OW46108  12.314  14.030   4.903
48090SOL    HW146109  12.278  14.080   4.829
48090SOL    HW246110  12.303  14.087   4.979
48091SOL     OW46111   1.921  12.311   7.804
48091SOL    HW146112   1.876  12.229   7.780
48091SOL    HW246113   1.888  12.332   7.891
48092SOL     OW46114  14.160   6.949   5.182
48092SOL    HW146115  14.098   6.879   5.205
48092SOL    HW246116  14.104   7.025   5.162
48093SOL     OW46117  14.765  11.817   3.805
48093SOL    HW146118  14.697  11.775   3.857
48093SOL    HW246119  14.829  11.848   3.870
48094SOL     OW46120   4.536   8.887   8.763
48094SOL    HW146121   4.452   8.929   8.782
48094SOL    HW246122   4.601   8.946   8.800
48095SOL     OW46123   3.923   6.653   9.526
48095SOL    HW146124   3.934   6.625   9.436
48095SOL    HW246125   3.945   6.576   9.578
48096SOL     OW46126   0.323   4.734   9.147
48096SOL    HW146127   0.395   4.705   9.091
48096SOL    HW246128   0.245   4.693   9.109
48097SOL     OW46129   4.077   2.727   5.192
48097SOL    HW146130   4.094   2.651   5.248
48097SOL    HW246131   3.998   2.703   5.143
48098SOL     OW46132  11.203   1.320   5.058
48098SOL    HW146133  11.128   1.282   5.105
48098SOL    HW246134  11.231   1.393   5.114
48099SOL     OW46135   3.718   8.885   2.308
48099SOL    HW146136   3.658   8.902   2.236
48099SOL    HW246137   3.780   8.959   2.305
48100SOL     OW46138  10.201   6.379   0.085
48100SOL    HW146139  10.141   6.323   0.133
48100SOL    HW246140  10.146   6.450   0.052
48101SOL     OW46141   9.144   4.750   3.984
48101SOL    HW146142   9.224   4.706   3.955
48101SOL    HW246143   9.143   4.833   3.936
48102SOL     OW46144   6.256  11.492  10.849
48102SOL    HW146145   6.337  11.468  10.804
48102SOL    HW246146   6.254  11.434  10.926
48103SOL     OW46147  11.224   5.468   5.862
48103SOL    HW146148  11.297   5.528   5.847
48103SOL    HW246149  11.159   5.490   5.795
48104SOL     OW46150   5.510  14.243   7.936
48104SOL    HW146151   5.473  14.155   7.926
48104SOL    HW246152   5.441  14.301   7.903
48105SOL     OW46153   3.646   0.274  11.834
48105SOL    HW146154   3.634   0.182  11.859
48105SOL    HW246155   3.566   0.296  11.785
48106SOL     OW46156   9.893   9.039   6.231
48106SOL    HW146157   9.816   8.995   6.266
48106SOL    HW246158   9.945   8.968   6.192
48107SOL     OW46159   3.544  14.197  11.280
48107SOL    HW146160   3.523  14.107  11.256
48107SOL    HW246161   3.608  14.188  11.351
48108SOL     OW46162   1.359   9.070   6.260
48108SOL    HW146163   1.273   9.091   6.298
48108SOL    HW246164   1.411   9.040   6.335
48109SOL     OW46165  12.451   5.383   5.209
48109SOL    HW146166  12.402   5.312   5.250
48109SOL    HW246167  12.433   5.460   5.263
48110SOL     OW46168   2.829   9.973  10.027
48110SOL    HW146169   2.814   9.878  10.024
48110SOL    HW246170   2.752  10.010   9.984
48111SOL     OW46171   1.771   8.208   9.778
48111SOL    HW146172   1.780   8.238   9.868
48111SOL    HW246173   1.835   8.137   9.770
48112SOL     OW46174   8.488  14.468  11.970
48112SOL    HW146175   8.508  14.480  11.877
48112SOL    HW246176   8.394  14.483  11.977
48113SOL     OW46177   7.724   5.316   0.773
48113SOL    HW146178   7.658   5.385   0.767
48113SOL    HW246179   7.798   5.348   0.720
48114SOL     OW46180  13.086  13.062  11.040
48114SOL    HW146181  13.056  12.972  11.028
48114SOL    HW246182  13.154  13.074  10.973
48115SOL     OW46183   7.069   9.448  11.373
48115SOL    HW146184   7.127   9.372  11.362
48115SOL    HW246185   7.084   9.476  11.464
48116SOL     OW46186   9.522  12.586   9.657
48116SOL    HW146187   9.434  12.563   9.628
48116SOL    HW246188   9.508  12.648   9.729
48117SOL     OW46189   9.960  12.764  11.195
48117SOL    HW146190   9.878  12.759  11.145
48117SOL    HW246191   9.982  12.857  11.197
48118SOL     OW46192   6.756  13.064   3.364
48118SOL    HW146193   6.675  13.106   3.333
48118SOL    HW246194   6.799  13.033   3.284
48119SOL     OW46195   5.828  13.239   7.047
48119SOL    HW146196   5.802  13.252   6.955
48119SOL    HW246197   5.883  13.315   7.067
48120SOL     OW46198   7.504   8.035  12.403
48120SOL    HW146199   7.500   8.082  12.486
48120SOL    HW246200   7.520   7.944  12.429
48121SOL     OW46201   1.745  12.250   3.825
48121SOL    HW146202   1.827  12.272   3.869
48121SOL    HW246203   1.770  12.182   3.762
48122SOL     OW46204   8.770   6.306   5.001
48122SOL    HW146205   8.850   6.351   4.974
48122SOL    HW246206   8.754   6.336   5.091
48123SOL     OW46207   5.694  12.250   0.828
48123SOL    HW146208   5.722  12.332   0.789
48123SOL    HW246209   5.704  12.185   0.759
48124SOL     OW46210   9.311   1.337  11.966
48124SOL    HW146211   9.361   1.273  12.017
48124SOL    HW246212   9.339   1.321  11.875
48125SOL     OW46213  10.132  11.596   4.325
48125SOL    HW146214  10.042  11.627   4.313
48125SOL    HW246215  10.171  11.602   4.238
48126SOL     OW46216   8.624   0.403   2.379
48126SOL    HW146217   8.719   0.393   2.370
48126SOL    HW246218   8.595   0.435   2.294
48127SOL     OW46219   9.464  14.672  10.408
48127SOL    HW146220   9.475  14.740  10.341
48127SOL    HW246221   9.552  14.658  10.442
48128SOL     OW46222  11.008   4.404  12.519
48128SOL    HW146223  11.103   4.393  12.523
48128SOL    HW246224  10.982   4.430  12.608
48129SOL     OW46225   1.481  13.449  10.260
48129SOL    HW146226   1.560  13.410  10.299
48129SOL    HW246227   1.514  13.520  10.206
48130SOL     OW46228   7.594   7.886   0.301
48130SOL    HW146229   7.668   7.882   0.362
48130SOL    HW246230   7.597   7.976   0.267
48131SOL     OW46231   1.334   7.590   2.333
48131SOL    HW146232   1.331   7.645   2.255
48131SOL    HW246233   1.301   7.646   2.403
48132SOL     OW46234  13.312  13.669   9.877
48132SOL    HW146235  13.287  13.586   9.916
48132SOL    HW246236  13.316  13.731   9.950
48133SOL     OW46237  10.539  10.936   4.480
48133SOL    HW146238  10.589  10.933   4.561
48133SOL    HW246239  10.488  10.855   4.480
48134SOL     OW46240   9.323  14.573  11.472
48134SOL    HW146241   9.412  14.606  11.484
48134SOL    HW246242   9.331  14.504  11.406
48135SOL     OW46243  12.194  12.385   4.321
48135SOL    HW146244  12.159  12.297   4.337
48135SOL    HW246245  12.269  12.392   4.380
48136SOL     OW46246  11.280   7.982  13.138
48136SOL    HW146247  11.196   8.001  13.179
48136SOL    HW246248  11.262   7.978  13.044
48137SOL     OW46249   2.928  13.646  12.597
48137SOL    HW146250   2.932  13.701  12.675
48137SOL    HW246251   2.986  13.572  12.618
48138SOL     OW46252   8.857   1.600  11.112
48138SOL    HW146253   8.917   1.647  11.055
48138SOL    HW246254   8.776   1.592  11.061
48139SOL     OW46255   1.429   1.438  13.830
48139SOL    HW146256   1.452   1.349  13.804
48139SOL    HW246257   1.411   1.431  13.924
48140SOL     OW46258  11.055   7.568  11.010
48140SOL    HW146259  11.118   7.636  10.986
48140SOL    HW246260  11.087   7.489  10.967
48141SOL     OW46261  10.078  12.569   5.422
48141SOL    HW146262  10.039  12.589   5.337
48141SOL    HW246263  10.012  12.595   5.486
48142SOL     OW46264  12.938   1.288  11.919
48142SOL    HW146265  12.907   1.303  12.009
48142SOL    HW246266  12.927   1.373  11.876
48143SOL     OW46267  10.493   5.510   6.480
48143SOL    HW146268  10.438   5.567   6.534
48143SOL    HW246269  10.439   5.491   6.404
48144SOL     OW46270   1.648  13.847   6.444
48144SOL    HW146271   1.635  13.932   6.402
48144SOL    HW246272   1.634  13.782   6.375
48145SOL     OW46273   2.921   2.280  12.938
48145SOL    HW146274   2.888   2.322  12.858
48145SOL    HW246275   2.877   2.327  13.009
48146SOL     OW46276   9.072   2.069   4.733
48146SOL    HW146277   8.998   2.089   4.790
48146SOL    HW246278   9.056   2.119   4.653
48147SOL     OW46279  12.107   6.592   1.610
48147SOL    HW146280  12.104   6.551   1.523
48147SOL    HW246281  12.018   6.625   1.625
48148SOL     OW46282   0.602   9.957  13.788
48148SOL    HW146283   0.540  10.003  13.843
48148SOL    HW246284   0.548   9.900  13.733
48149SOL     OW46285   0.790  12.043   2.808
48149SOL    HW146286   0.831  11.979   2.751
48149SOL    HW246287   0.821  12.022   2.896
48150SOL     OW46288  12.817  13.279   8.768
48150SOL    HW146289  12.776  13.328   8.697
48150SOL    HW246290  12.833  13.192   8.731
48151SOL     OW46291  11.907   9.119   4.521
48151SOL    HW146292  11.893   9.167   4.603
48151SOL    HW246293  11.820   9.088   4.497
48152SOL     OW46294   8.222   9.209   7.010
48152SOL    HW146295   8.217   9.141   6.943
48152SOL    HW246296   8.237   9.161   7.092
48153SOL     OW46297   1.814   3.510   3.079
48153SOL    HW146298   1.819   3.605   3.089
48153SOL    HW246299   1.801   3.496   2.985
48154SOL     OW46300   9.045   6.276   8.550
48154SOL    HW146301   9.093   6.193   8.540
48154SOL    HW246302   9.068   6.305   8.639
48155SOL     OW46303   6.294   4.131   1.234
48155SOL    HW146304   6.352   4.055   1.241
48155SOL    HW246305   6.347   4.196   1.188
48156SOL     OW46306  10.385  13.884   3.946
48156SOL    HW146307  10.306  13.869   3.997
48156SOL    HW246308  10.354  13.907   3.858
48157SOL     OW46309   2.285   6.500   0.629
48157SOL    HW146310   2.374   6.466   0.635
48157SOL    HW246311   2.282   6.543   0.543
48158SOL     OW46312  12.627   9.715   1.906
48158SOL    HW146313  12.701   9.686   1.959
48158SOL    HW246314  12.550   9.679   1.949
48159SOL     OW46315   4.691  10.949  13.465
48159SOL    HW146316   4.630  10.876  13.475
48159SOL    HW246317   4.769  10.922  13.513
48160SOL     OW46318  11.445   7.796   5.951
48160SOL    HW146319  11.463   7.705   5.975
48160SOL    HW246320  11.372   7.791   5.889
48161SOL     OW46321   7.659  12.374  13.632
48161SOL    HW146322   7.662  12.441  13.700
48161SOL    HW246323   7.567  12.370  13.606
48162SOL     OW46324  12.750   9.881   4.111
48162SOL    HW146325  12.791   9.804   4.150
48162SOL    HW246326  12.819   9.922   4.059
48163SOL     OW46327   8.741   2.669  10.045
48163SOL    HW146328   8.740   2.709   9.958
48163SOL    HW246329   8.791   2.588  10.035
48164SOL     OW46330  10.018  12.201   7.287
48164SOL    HW146331  10.072  12.128   7.258
48164SOL    HW246332  10.012  12.192   7.382
48165SOL     OW46333  10.359  10.590   9.989
48165SOL    HW146334  10.376  10.530  10.063
48165SOL    HW246335  10.442  10.636   9.977
48166SOL     OW46336  13.949   4.739  13.002
48166SOL    HW146337  14.043   4.750  12.988
48166SOL    HW246338  13.936   4.763  13.094
48167SOL     OW46339   2.932  11.351  10.362
48167SOL    HW146340   3.009  11.374  10.414
48167SOL    HW246341   2.968  11.323  10.278
48168SOL     OW46342  12.161   5.886   6.791
48168SOL    HW146343  12.171   5.874   6.885
48168SOL    HW246344  12.199   5.807   6.752
48169SOL     OW46345   1.640   4.642   8.032
48169SOL    HW146346   1.631   4.586   8.109
48169SOL    HW246347   1.685   4.587   7.968
48170SOL     OW46348  12.017   4.927  10.072
48170SOL    HW146349  12.026   4.882  10.156
48170SOL    HW246350  12.105   4.925  10.034
48171SOL     OW46351   4.779   2.787   8.233
48171SOL    HW146352   4.799   2.778   8.327
48171SOL    HW246353   4.811   2.705   8.195
48172SOL     OW46354   4.691  13.479   5.197
48172SOL    HW146355   4.775  13.450   5.232
48172SOL    HW246356   4.692  13.574   5.207
48173SOL     OW46357  14.117   5.700  11.268
48173SOL    HW146358  14.138   5.769  11.331
48173SOL    HW246359  14.191   5.701  11.206
48174SOL     OW46360   9.937   4.961   7.652
48174SOL    HW146361   9.943   4.874   7.691
48174SOL    HW246362   9.905   4.945   7.563
48175SOL     OW46363   7.961   3.138   1.825
48175SOL    HW146364   7.906   3.072   1.868
48175SOL    HW246365   8.006   3.182   1.896
48176SOL     OW46366  13.944   8.586   8.243
48176SOL    HW146367  13.962   8.649   8.312
48176SOL    HW246368  14.015   8.522   8.249
48177SOL     OW46369  10.139  10.496   2.836
48177SOL    HW146370  10.205  10.469   2.772
48177SOL    HW246371  10.055  10.479   2.793
48178SOL     OW46372   7.260   0.503   4.043
48178SOL    HW146373   7.348   0.519   4.010
48178SOL    HW246374   7.204   0.562   3.993
48179SOL     OW46375  14.822  11.118  13.523
48179SOL    HW146376  14.833  11.046  13.585
48179SOL    HW246377   0.024  11.163  13.523
48180SOL     OW46378   3.202   2.691   2.836
48180SOL    HW146379   3.246   2.666   2.754
48180SOL    HW246380   3.109   2.682   2.816
48181SOL     OW46381   5.339   6.171  11.316
48181SOL    HW146382   5.285   6.247  11.342
48181SOL    HW246383   5.384   6.145  11.396
48182SOL     OW46384   4.369  11.709   6.278
48182SOL    HW146385   4.359  11.630   6.224
48182SOL    HW246386   4.463  11.726   6.279
48183SOL     OW46387  12.942   8.440  10.497
48183SOL    HW146388  12.903   8.442  10.584
48183SOL    HW246389  12.950   8.532  10.472
48184SOL     OW46390  12.493   2.595   2.818
48184SOL    HW146391  12.442   2.639   2.887
48184SOL    HW246392  12.554   2.539   2.865
48185SOL     OW46393   6.922   0.564  11.839
48185SOL    HW146394   6.896   0.656  11.842
48185SOL    HW246395   6.856   0.523  11.783
48186SOL     OW46396  14.419  11.355   5.008
48186SOL    HW146397  14.360  11.416   5.052
48186SOL    HW246398  14.487  11.411   4.970
48187SOL     OW46399   7.808   1.401   4.535
48187SOL    HW146400   7.738   1.377   4.475
48187SOL    HW246401   7.834   1.318   4.576
48188SOL     OW46402  12.241  12.236  12.562
48188SOL    HW146403  12.293  12.168  12.604
48188SOL    HW246404  12.219  12.200  12.476
48189SOL     OW46405  11.584   1.150  10.723
48189SOL    HW146406  11.525   1.224  10.740
48189SOL    HW246407  11.634   1.141  10.804
48190SOL     OW46408   5.904   2.238   7.559
48190SOL    HW146409   5.907   2.296   7.483
48190SOL    HW246410   5.812   2.238   7.585
48191SOL     OW46411  11.095   6.529   4.677
48191SOL    HW146412  11.084   6.442   4.717
48191SOL    HW246413  11.008   6.551   4.643
48192SOL     OW46414  11.056   1.931   1.322
48192SOL    HW146415  11.109   1.931   1.242
48192SOL    HW246416  10.975   1.975   1.297
48193SOL     OW46417  10.208  12.668   8.003
48193SOL    HW146418  10.157  12.589   8.021
48193SOL    HW246419  10.147  12.740   8.020
48194SOL     OW46420  10.355   0.731  14.596
48194SOL    HW146421  10.370   0.716  14.502
48194SOL    HW246422  10.380   0.823  14.609
48195SOL     OW46423   0.311   4.642  10.768
48195SOL    HW146424   0.338   4.660  10.678
48195SOL    HW246425   0.236   4.584  10.760
48196SOL     OW46426   4.975   1.131   2.436
48196SOL    HW146427   5.039   1.177   2.490
48196SOL    HW246428   4.969   1.181   2.356
48197SOL     OW46429   9.155  11.673   4.914
48197SOL    HW146430   9.116  11.629   4.838
48197SOL    HW246431   9.249  11.662   4.903
48198SOL     OW46432   5.505  13.304   4.311
48198SOL    HW146433   5.572  13.260   4.259
48198SOL    HW246434   5.429  13.246   4.306
48199SOL     OW46435   9.805   7.795  11.550
48199SOL    HW146436   9.825   7.781  11.458
48199SOL    HW246437   9.890   7.814  11.590
48200SOL     OW46438   4.718  11.131   5.539
48200SOL    HW146439   4.748  11.078   5.613
48200SOL    HW246440   4.630  11.160   5.564
48201SOL     OW46441   1.828   5.302  14.461
48201SOL    HW146442   1.751   5.329  14.511
48201SOL    HW246443   1.799   5.304  14.370
48202SOL     OW46444   7.688   1.108   2.624
48202SOL    HW146445   7.722   1.035   2.571
48202SOL    HW246446   7.724   1.092   2.712
48203SOL     OW46447   2.221   1.096   3.041
48203SOL    HW146448   2.172   1.043   2.979
48203SOL    HW246449   2.155   1.151   3.084
48204SOL     OW46450  11.037   5.373   7.543
48204SOL    HW146451  11.083   5.403   7.465
48204SOL    HW246452  10.944   5.383   7.521
48205SOL     OW46453   0.531   0.642   6.300
48205SOL    HW146454   0.525   0.674   6.390
48205SOL    HW246455   0.549   0.549   6.308
48206SOL     OW46456   1.121   4.050  14.132
48206SOL    HW146457   1.123   3.975  14.191
48206SOL    HW246458   1.168   4.020  14.054
48207SOL     OW46459   3.997   7.961  10.769
48207SOL    HW146460   4.039   7.979  10.685
48207SOL    HW246461   3.977   8.047  10.805
48208SOL     OW46462   9.575  14.041   4.504
48208SOL    HW146463   9.630  14.105   4.550
48208SOL    HW246464   9.508  14.094   4.460
48209SOL     OW46465   3.670  14.066  14.549
48209SOL    HW146466   3.597  14.105  14.596
48209SOL    HW246467   3.738  14.054  14.616
48210SOL     OW46468   2.880  10.746   3.866
48210SOL    HW146469   2.889  10.826   3.917
48210SOL    HW246470   2.952  10.691   3.893
48211SOL     OW46471  10.971  13.672   6.271
48211SOL    HW146472  10.979  13.601   6.207
48211SOL    HW246473  10.931  13.631   6.347
48212SOL     OW46474   3.598   5.585   1.958
48212SOL    HW146475   3.568   5.507   2.003
48212SOL    HW246476   3.598   5.653   2.025
48213SOL     OW46477   7.620  14.736  13.164
48213SOL    HW146478   7.680  14.808  13.145
48213SOL    HW246479   7.677  14.659  13.168
48214SOL     OW46480   4.026   4.864   4.206
48214SOL    HW146481   4.026   4.770   4.189
48214SOL    HW246482   3.933   4.887   4.210
48215SOL     OW46483   8.931   3.557   8.685
48215SOL    HW146484   8.850   3.506   8.678
48215SOL    HW246485   8.953   3.581   8.595
48216SOL     OW46486  10.063   9.872   8.029
48216SOL    HW146487   9.995   9.807   8.046
48216SOL    HW246488  10.092   9.900   8.115
48217SOL     OW46489   3.622   1.949   5.045
48217SOL    HW146490   3.709   1.924   5.015
48217SOL    HW246491   3.570   1.869   5.038
48218SOL     OW46492   1.267   1.829   5.976
48218SOL    HW146493   1.302   1.745   5.946
48218SOL    HW246494   1.193   1.847   5.917
48219SOL     OW46495  11.333   8.960   9.549
48219SOL    HW146496  11.256   9.013   9.528
48219SOL    HW246497  11.407   9.021   9.544
48220SOL     OW46498   9.071   8.496  14.559
48220SOL    HW146499   9.136   8.497  14.490
48220SOL    HW246500   9.120   8.476  14.638
48221SOL     OW46501  12.088  14.522  13.291
48221SOL    HW146502  12.166  14.468  13.280
48221SOL    HW246503  12.079  14.569  13.208
48222SOL     OW46504  12.908   1.093   5.641
48222SOL    HW146505  12.916   1.134   5.555
48222SOL    HW246506  12.814   1.088   5.657
48223SOL     OW46507   4.746   0.165   1.381
48223SOL    HW146508   4.744   0.070   1.392
48223SOL    HW246509   4.828   0.193   1.422
48224SOL     OW46510  12.207  12.408  11.585
48224SOL    HW146511  12.188  12.327  11.537
48224SOL    HW246512  12.177  12.477  11.526
48225SOL     OW46513  13.547   4.487   0.214
48225SOL    HW146514  13.601   4.550   0.262
48225SOL    HW246515  13.471   4.474   0.271
48226SOL     OW46516  14.850   3.251  12.635
48226SOL    HW146517   0.028   3.197  12.687
48226SOL    HW246518   0.015   3.332  12.620
48227SOL     OW46519   9.628   2.032  10.383
48227SOL    HW146520   9.583   2.113  10.408
48227SOL    HW246521   9.566   1.988  10.324
48228SOL     OW46522   6.069   7.744   6.011
48228SOL    HW146523   6.144   7.748   5.952
48228SOL    HW246524   5.993   7.732   5.955
48229SOL     OW46525   0.114   8.290  11.487
48229SOL    HW146526   0.046   8.345  11.449
48229SOL    HW246527   0.106   8.303  11.581
48230SOL     OW46528   4.301  11.074  13.626
48230SOL    HW146529   4.284  11.015  13.552
48230SOL    HW246530   4.283  11.162  13.591
48231SOL     OW46531   9.153   2.766   2.835
48231SOL    HW146532   9.180   2.850   2.872
48231SOL    HW246533   9.196   2.763   2.749
48232SOL     OW46534  11.011   1.206   5.697
48232SOL    HW146535  10.979   1.283   5.650
48232SOL    HW246536  11.078   1.240   5.756
48233SOL     OW46537   5.571   1.854  12.368
48233SOL    HW146538   5.515   1.780  12.391
48233SOL    HW246539   5.650   1.814  12.331
48234SOL     OW46540   1.149   9.007   0.260
48234SOL    HW146541   1.140   9.071   0.331
48234SOL    HW246542   1.059   8.983   0.238
48235SOL     OW46543   9.228   1.672   4.206
48235SOL    HW146544   9.272   1.725   4.272
48235SOL    HW246545   9.140   1.657   4.242
48236SOL     OW46546  12.645   2.854   8.717
48236SOL    HW146547  12.709   2.908   8.669
48236SOL    HW246548  12.605   2.914   8.780
48237SOL     OW46549   2.316   5.546   1.683
48237SOL    HW146550   2.248   5.493   1.643
48237SOL    HW246551   2.275   5.632   1.696
48238SOL     OW46552  13.993   4.324   5.644
48238SOL    HW146553  13.996   4.395   5.707
48238SOL    HW246554  14.064   4.343   5.583
48239SOL     OW46555  14.645  10.433   2.458
48239SOL    HW146556  14.576  10.494   2.486
48239SOL    HW246557  14.710  10.437   2.528
48240SOL     OW46558   2.084   9.108   5.170
48240SOL    HW146559   2.159   9.145   5.216
48240SOL    HW246560   2.049   9.042   5.230
48241SOL     OW46561  12.394   8.716   5.514
48241SOL    HW146562  12.463   8.739   5.576
48241SOL    HW246563  12.375   8.798   5.468
48242SOL     OW46564   5.269  11.951   3.075
48242SOL    HW146565   5.311  12.023   3.123
48242SOL    HW246566   5.214  11.995   3.011
48243SOL     OW46567   0.724   0.787   2.448
48243SOL    HW146568   0.640   0.791   2.495
48243SOL    HW246569   0.787   0.826   2.508
48244SOL     OW46570  13.077   7.268   8.268
48244SOL    HW146571  13.083   7.269   8.364
48244SOL    HW246572  13.004   7.326   8.248
48245SOL     OW46573  13.529   1.135   7.148
48245SOL    HW146574  13.559   1.210   7.096
48245SOL    HW246575  13.604   1.076   7.151
48246SOL     OW46576   4.371   9.172   1.732
48246SOL    HW146577   4.287   9.217   1.741
48246SOL    HW246578   4.419   9.224   1.668
48247SOL     OW46579  11.732  14.548   2.726
48247SOL    HW146580  11.704  14.536   2.817
48247SOL    HW246581  11.782  14.469   2.706
48248SOL     OW46582   2.560   5.841   8.228
48248SOL    HW146583   2.466   5.830   8.238
48248SOL    HW246584   2.595   5.837   8.317
48249SOL     OW46585   1.841   2.365   7.465
48249SOL    HW146586   1.929   2.393   7.437
48249SOL    HW246587   1.816   2.429   7.532
48250SOL     OW46588  14.584  13.517   5.614
48250SOL    HW146589  14.521  13.449   5.639
48250SOL    HW246590  14.557  13.594   5.665
48251SOL     OW46591   0.897   4.907   8.933
48251SOL    HW146592   0.835   4.849   8.978
48251SOL    HW246593   0.981   4.887   8.973
48252SOL     OW46594   5.602   6.539   7.974
48252SOL    HW146595   5.679   6.594   7.989
48252SOL    HW246596   5.627   6.454   8.011
48253SOL     OW46597   0.896   4.691   4.824
48253SOL    HW146598   0.903   4.694   4.920
48253SOL    HW246599   0.959   4.624   4.797
48254SOL     OW46600   7.766   8.740   7.987
48254SOL    HW146601   7.786   8.758   7.895
48254SOL    HW246602   7.781   8.824   8.032
48255SOL     OW46603   4.405  11.521  11.773
48255SOL    HW146604   4.453  11.439  11.764
48255SOL    HW246605   4.463  11.578  11.823
48256SOL     OW46606   4.156   5.920   2.322
48256SOL    HW146607   4.118   5.987   2.264
48256SOL    HW246608   4.145   5.838   2.274
48257SOL     OW46609   2.507  12.763   1.645
48257SOL    HW146610   2.503  12.717   1.561
48257SOL    HW246611   2.566  12.837   1.629
48258SOL     OW46612   8.279  11.853   6.587
48258SOL    HW146613   8.276  11.919   6.655
48258SOL    HW246614   8.333  11.891   6.518
48259SOL     OW46615   1.673   0.656   3.986
48259SOL    HW146616   1.610   0.704   4.038
48259SOL    HW246617   1.630   0.572   3.967
48260SOL     OW46618  10.824   7.897  11.659
48260SOL    HW146619  10.892   7.950  11.699
48260SOL    HW246620  10.868   7.814  11.638
48261SOL     OW46621  12.993  12.983  12.908
48261SOL    HW146622  13.053  12.990  12.982
48261SOL    HW246623  12.999  12.891  12.881
48262SOL     OW46624   0.637   7.108  11.709
48262SOL    HW146625   0.705   7.062  11.659
48262SOL    HW246626   0.640   7.068  11.796
48263SOL     OW46627   4.220   0.747   2.050
48263SOL    HW146628   4.284   0.794   2.103
48263SOL    HW246629   4.137   0.790   2.069
48264SOL     OW46630   3.890  12.313  12.923
48264SOL    HW146631   3.851  12.395  12.953
48264SOL    HW246632   3.909  12.264  13.003
48265SOL     OW46633  10.775  14.223   7.746
48265SOL    HW146634  10.809  14.146   7.793
48265SOL    HW246635  10.846  14.248   7.687
48266SOL     OW46636   9.318   0.253   6.151
48266SOL    HW146637   9.272   0.176   6.186
48266SOL    HW246638   9.250   0.320   6.144
48267SOL     OW46639   5.797   8.895   0.728
48267SOL    HW146640   5.800   8.858   0.816
48267SOL    HW246641   5.708   8.931   0.720
48268SOL     OW46642  14.502  12.407   1.427
48268SOL    HW146643  14.567  12.438   1.490
48268SOL    HW246644  14.509  12.312   1.430
48269SOL     OW46645  10.841   1.354   4.989
48269SOL    HW146646  10.855   1.366   5.083
48269SOL    HW246647  10.766   1.294   4.983
48270SOL     OW46648  13.012  14.594   6.557
48270SOL    HW146649  12.951  14.666   6.570
48270SOL    HW246650  13.096  14.626   6.590
48271SOL     OW46651  13.931   9.324  13.052
48271SOL    HW146652  14.003   9.274  13.091
48271SOL    HW246653  13.924   9.291  12.962
48272SOL     OW46654   1.785   5.275  10.270
48272SOL    HW146655   1.790   5.239  10.181
48272SOL    HW246656   1.828   5.209  10.325
48273SOL     OW46657  11.151  11.872   8.334
48273SOL    HW146658  11.224  11.858   8.274
48273SOL    HW246659  11.119  11.785   8.355
48274SOL     OW46660   2.811   3.294   1.726
48274SOL    HW146661   2.870   3.313   1.653
48274SOL    HW246662   2.858   3.329   1.803
48275SOL     OW46663   8.427   7.450  10.466
48275SOL    HW146664   8.352   7.404  10.428
48275SOL    HW246665   8.402   7.465  10.557
48276SOL     OW46666  14.743   9.233   5.145
48276SOL    HW146667  14.662   9.235   5.195
48276SOL    HW246668  14.801   9.175   5.194
48277SOL     OW46669   0.537   9.582  11.080
48277SOL    HW146670   0.530   9.489  11.061
48277SOL    HW246671   0.447   9.611  11.095
48278SOL     OW46672   5.682   6.218   4.940
48278SOL    HW146673   5.697   6.154   5.010
48278SOL    HW246674   5.754   6.280   4.949
48279SOL     OW46675   2.675   9.568   6.000
48279SOL    HW146676   2.739   9.639   6.002
48279SOL    HW246677   2.613   9.593   5.931
48280SOL     OW46678  12.881   5.592   3.102
48280SOL    HW146679  12.793   5.569   3.133
48280SOL    HW246680  12.938   5.526   3.141
48281SOL     OW46681   5.249   9.295   9.914
48281SOL    HW146682   5.181   9.248   9.866
48281SOL    HW246683   5.283   9.359   9.852
48282SOL     OW46684   2.761   0.153  13.465
48282SOL    HW146685   2.769   0.122  13.375
48282SOL    HW246686   2.698   0.224  13.461
48283SOL     OW46687   6.376   8.217  14.695
48283SOL    HW146688   6.439   8.237  14.765
48283SOL    HW246689   6.335   8.135  14.722
48284SOL     OW46690   8.123   2.803   1.891
48284SOL    HW146691   8.164   2.741   1.952
48284SOL    HW246692   8.181   2.879   1.890
48285SOL     OW46693  13.796   7.060   5.821
48285SOL    HW146694  13.781   7.154   5.815
48285SOL    HW246695  13.823   7.034   5.733
48286SOL     OW46696   9.214   6.999   5.695
48286SOL    HW146697   9.282   6.997   5.763
48286SOL    HW246698   9.168   7.082   5.709
48287SOL     OW46699   2.625   0.620   6.671
48287SOL    HW146700   2.617   0.702   6.623
48287SOL    HW246701   2.601   0.552   6.608
48288SOL     OW46702   3.577   2.675   4.926
48288SOL    HW146703   3.592   2.614   4.854
48288SOL    HW246704   3.563   2.618   5.002
48289SOL     OW46705  10.980   5.222   0.496
48289SOL    HW146706  10.891   5.187   0.493
48289SOL    HW246707  11.028   5.173   0.429
48290SOL     OW46708   5.848   8.033   8.808
48290SOL    HW146709   5.828   8.073   8.723
48290SOL    HW246710   5.890   8.103   8.858
48291SOL     OW46711  14.625   5.377   0.279
48291SOL    HW146712  14.545   5.362   0.228
48291SOL    HW246713  14.594   5.415   0.361
48292SOL     OW46714   0.654   0.952   8.851
48292SOL    HW146715   0.640   0.926   8.942
48292SOL    HW246716   0.628   0.876   8.800
48293SOL     OW46717  14.304  11.615   5.871
48293SOL    HW146718  14.376  11.641   5.928
48293SOL    HW246719  14.226  11.628   5.925
48294SOL     OW46720   8.823   1.337  14.045
48294SOL    HW146721   8.821   1.401  14.116
48294SOL    HW246722   8.799   1.386  13.967
48295SOL     OW46723   7.037   1.751  13.545
48295SOL    HW146724   7.071   1.690  13.610
48295SOL    HW246725   7.006   1.695  13.473
48296SOL     OW46726   0.676   7.195   2.232
48296SOL    HW146727   0.747   7.258   2.232
48296SOL    HW246728   0.714   7.115   2.269
48297SOL     OW46729   1.311  14.759   7.849
48297SOL    HW146730   1.239  14.805   7.892
48297SOL    HW246731   1.390  14.788   7.896
48298SOL     OW46732  10.410   0.119   6.911
48298SOL    HW146733  10.320   0.107   6.942
48298SOL    HW246734  10.400   0.148   6.820
48299SOL     OW46735   4.784   8.093  14.291
48299SOL    HW146736   4.848   8.028  14.320
48299SOL    HW246737   4.713   8.041  14.252
48300SOL     OW46738  14.068   0.536   4.911
48300SOL    HW146739  13.998   0.594   4.941
48300SOL    HW246740  14.129   0.532   4.985
48301SOL     OW46741  12.196   6.982   0.594
48301SOL    HW146742  12.231   7.034   0.667
48301SOL    HW246743  12.161   7.048   0.533
48302SOL     OW46744  10.476   9.464  11.825
48302SOL    HW146745  10.417   9.393  11.849
48302SOL    HW246746  10.560   9.420  11.807
48303SOL     OW46747   5.699   8.275  11.827
48303SOL    HW146748   5.785   8.315  11.836
48303SOL    HW246749   5.646   8.341  11.781
48304SOL     OW46750   7.018  14.475  12.482
48304SOL    HW146751   7.081  14.546  12.466
48304SOL    HW246752   7.011  14.430  12.397
48305SOL     OW46753  14.285   7.887  11.044
48305SOL    HW146754  14.366   7.846  11.016
48305SOL    HW246755  14.297   7.980  11.025
48306SOL     OW46756   6.628   1.432   5.410
48306SOL    HW146757   6.709   1.391   5.441
48306SOL    HW246758   6.601   1.379   5.335
48307SOL     OW46759  10.785  10.788   5.815
48307SOL    HW146760  10.735  10.784   5.733
48307SOL    HW246761  10.765  10.875   5.850
48308SOL     OW46762   1.835   7.009   2.116
48308SOL    HW146763   1.798   7.046   2.197
48308SOL    HW246764   1.929   7.027   2.122
48309SOL     OW46765   2.888   3.130  13.689
48309SOL    HW146766   2.862   3.040  13.668
48309SOL    HW246767   2.805   3.179  13.690
48310SOL     OW46768   3.367   5.643  13.766
48310SOL    HW146769   3.370   5.572  13.702
48310SOL    HW246770   3.276   5.671  13.767
48311SOL     OW46771  13.539   0.158   4.777
48311SOL    HW146772  13.631   0.134   4.767
48311SOL    HW246773  13.498   0.129   4.695
48312SOL     OW46774   3.739   9.913   8.914
48312SOL    HW146775   3.822   9.945   8.948
48312SOL    HW246776   3.711   9.847   8.978
48313SOL     OW46777   9.324   6.187   6.373
48313SOL    HW146778   9.330   6.097   6.341
48313SOL    HW246779   9.316   6.241   6.294
48314SOL     OW46780  11.270  13.601   2.605
48314SOL    HW146781  11.251  13.507   2.594
48314SOL    HW246782  11.186  13.639   2.629
48315SOL     OW46783   5.647   0.094   6.231
48315SOL    HW146784   5.653   0.185   6.260
48315SOL    HW246785   5.554   0.083   6.207
48316SOL     OW46786   7.492   1.022   7.984
48316SOL    HW146787   7.485   1.070   7.902
48316SOL    HW246788   7.435   0.946   7.973
48317SOL     OW46789  12.414   9.846  14.761
48317SOL    HW146790  12.355   9.773  14.776
48317SOL    HW246791  12.496   9.805  14.732
48318SOL     OW46792   8.483  13.213   9.936
48318SOL    HW146793   8.468  13.191   9.844
48318SOL    HW246794   8.578  13.207   9.946
48319SOL     OW46795   3.358   7.034  11.488
48319SOL    HW146796   3.303   7.013  11.413
48319SOL    HW246797   3.300   7.026  11.563
48320SOL     OW46798   5.019   6.200   9.708
48320SOL    HW146799   5.036   6.273   9.648
48320SOL    HW246800   5.105   6.177   9.743
48321SOL     OW46801  14.022   8.043  11.020
48321SOL    HW146802  13.971   7.994  11.084
48321SOL    HW246803  14.067   8.110  11.072
48322SOL     OW46804   9.584   5.991   1.901
48322SOL    HW146805   9.503   6.023   1.941
48322SOL    HW246806   9.603   6.054   1.831
48323SOL     OW46807   4.740  11.964   0.746
48323SOL    HW146808   4.759  11.998   0.658
48323SOL    HW246809   4.778  11.876   0.745
48324SOL     OW46810   6.832   8.557  10.393
48324SOL    HW146811   6.865   8.621  10.330
48324SOL    HW246812   6.750   8.595  10.425
48325SOL     OW46813  14.506   8.447   0.922
48325SOL    HW146814  14.466   8.370   0.881
48325SOL    HW246815  14.453   8.464   1.000
48326SOL     OW46816   7.630   7.771   4.504
48326SOL    HW146817   7.554   7.826   4.487
48326SOL    HW246818   7.658   7.741   4.417
48327SOL     OW46819   4.080   2.645   0.600
48327SOL    HW146820   4.156   2.671   0.548
48327SOL    HW246821   4.086   2.550   0.605
48328SOL     OW46822   6.684   5.311  11.388
48328SOL    HW146823   6.656   5.315  11.297
48328SOL    HW246824   6.613   5.266  11.433
48329SOL     OW46825   8.448  11.413   5.182
48329SOL    HW146826   8.539  11.432   5.159
48329SOL    HW246827   8.432  11.467   5.260
48330SOL     OW46828   5.690   1.480   9.000
48330SOL    HW146829   5.674   1.567   9.036
48330SOL    HW246830   5.785   1.475   8.990
48331SOL     OW46831   6.710   5.444   9.319
48331SOL    HW146832   6.793   5.466   9.363
48331SOL    HW246833   6.723   5.474   9.229
48332SOL     OW46834   7.186  10.982  10.718
48332SOL    HW146835   7.132  11.028  10.783
48332SOL    HW246836   7.233  11.052  10.673
48333SOL     OW46837   5.616   4.292   5.180
48333SOL    HW146838   5.538   4.269   5.130
48333SOL    HW246839   5.583   4.326   5.263
48334SOL     OW46840   4.644   8.378  11.815
48334SOL    HW146841   4.561   8.378  11.768
48334SOL    HW246842   4.685   8.462  11.792
48335SOL     OW46843   8.830   1.150  11.986
48335SOL    HW146844   8.816   1.175  12.077
48335SOL    HW246845   8.916   1.184  11.964
48336SOL     OW46846   5.756  13.450  11.360
48336SOL    HW146847   5.798  13.449  11.273
48336SOL    HW246848   5.690  13.519  11.353
48337SOL     OW46849   1.055   6.646   2.936
48337SOL    HW146850   1.105   6.628   2.856
48337SOL    HW246851   1.120   6.647   3.006
48338SOL     OW46852  10.309  10.972  11.526
48338SOL    HW146853  10.220  10.999  11.508
48338SOL    HW246854  10.352  11.051  11.560
48339SOL     OW46855   1.305  10.291   6.576
48339SOL    HW146856   1.318  10.382   6.550
48339SOL    HW246857   1.367  10.277   6.647
48340SOL     OW46858  10.366   1.794   1.907
48340SOL    HW146859  10.375   1.713   1.958
48340SOL    HW246860  10.317   1.767   1.829
48341SOL     OW46861   0.655  12.988   5.787
48341SOL    HW146862   0.682  13.069   5.744
48341SOL    HW246863   0.628  12.931   5.716
48342SOL     OW46864   9.909   3.402   9.324
48342SOL    HW146865   9.995   3.406   9.364
48342SOL    HW246866   9.871   3.320   9.354
48343SOL     OW46867  14.698   1.218  14.393
48343SOL    HW146868  14.603   1.212  14.407
48343SOL    HW246869  14.736   1.201  14.480
48344SOL     OW46870   7.980   6.767  11.306
48344SOL    HW146871   8.001   6.729  11.391
48344SOL    HW246872   7.948   6.855  11.327
48345SOL     OW46873   4.682  14.503   4.879
48345SOL    HW146874   4.644  14.454   4.952
48345SOL    HW246875   4.742  14.565   4.921
48346SOL     OW46876   8.390   7.886   0.629
48346SOL    HW146877   8.480   7.857   0.618
48346SOL    HW246878   8.344   7.851   0.552
48347SOL     OW46879   1.074  11.831   5.919
48347SOL    HW146880   1.078  11.848   5.825
48347SOL    HW246881   1.082  11.917   5.959
48348SOL     OW46882   8.734   9.188  10.528
48348SOL    HW146883   8.650   9.147  10.548
48348SOL    HW246884   8.759   9.232  10.610
48349SOL     OW46885   5.230  12.595  10.209
48349SOL    HW146886   5.168  12.528  10.237
48349SOL    HW246887   5.273  12.557  10.132
48350SOL     OW46888  11.400   0.078   6.078
48350SOL    HW146889  11.432   0.107   5.993
48350SOL    HW246890  11.468   0.105   6.140
48351SOL     OW46891   4.454   4.290   2.460
48351SOL    HW146892   4.364   4.284   2.428
48351SOL    HW246893   4.492   4.203   2.445
48352SOL     OW46894  10.425   0.711   3.568
48352SOL    HW146895  10.510   0.691   3.606
48352SOL    HW246896  10.419   0.807   3.571
48353SOL     OW46897  12.406  13.553  13.954
48353SOL    HW146898  12.356  13.511  14.024
48353SOL    HW246899  12.340  13.586  13.894
48354SOL     OW46900   0.793   3.974   3.486
48354SOL    HW146901   0.876   4.017   3.465
48354SOL    HW246902   0.811   3.924   3.566
48355SOL     OW46903   4.599   4.414   9.096
48355SOL    HW146904   4.557   4.406   9.181
48355SOL    HW246905   4.583   4.331   9.052
48356SOL     OW46906   6.781   7.938  12.313
48356SOL    HW146907   6.715   8.007  12.324
48356SOL    HW246908   6.771   7.909  12.222
48357SOL     OW46909  12.572   0.543  14.001
48357SOL    HW146910  12.639   0.486  14.038
48357SOL    HW246911  12.618   0.625  13.980
48358SOL     OW46912  11.848   2.810  13.554
48358SOL    HW146913  11.812   2.893  13.583
48358SOL    HW246914  11.800   2.744  13.605
48359SOL     OW46915   5.577   8.802  12.063
48359SOL    HW146916   5.583   8.812  12.158
48359SOL    HW246917   5.496   8.752  12.049
48360SOL     OW46918   8.010  12.267   2.668
48360SOL    HW146919   8.049  12.263   2.581
48360SOL    HW246920   8.077  12.310   2.722
48361SOL     OW46921  10.549  13.692   3.189
48361SOL    HW146922  10.579  13.783   3.185
48361SOL    HW246923  10.626  13.640   3.165
48362SOL     OW46924   9.026   4.637   6.682
48362SOL    HW146925   9.032   4.644   6.587
48362SOL    HW246926   8.955   4.575   6.697
48363SOL     OW46927   9.267  10.264   5.967
48363SOL    HW146928   9.223  10.304   6.042
48363SOL    HW246929   9.210  10.283   5.893
48364SOL     OW46930   1.431  14.745  12.660
48364SOL    HW146931   1.375  14.781  12.729
48364SOL    HW246932   1.391  14.660  12.639
48365SOL     OW46933   9.406   6.085   2.337
48365SOL    HW146934   9.417   6.003   2.288
48365SOL    HW246935   9.312   6.101   2.336
48366SOL     OW46936  11.306   9.143   2.793
48366SOL    HW146937  11.314   9.093   2.712
48366SOL    HW246938  11.386   9.196   2.796
48367SOL     OW46939  10.212   3.077   8.403
48367SOL    HW146940  10.191   2.998   8.452
48367SOL    HW246941  10.287   3.054   8.349
48368SOL     OW46942  14.508   0.430   6.089
48368SOL    HW146943  14.560   0.509   6.102
48368SOL    HW246944  14.519   0.380   6.170
48369SOL     OW46945   3.387   2.312   3.374
48369SOL    HW146946   3.328   2.385   3.389
48369SOL    HW246947   3.473   2.351   3.365
48370SOL     OW46948  11.270  12.773   4.197
48370SOL    HW146949  11.250  12.683   4.219
48370SOL    HW246950  11.338  12.798   4.259
48371SOL     OW46951  14.264  14.277   5.941
48371SOL    HW146952  14.286  14.272   6.034
48371SOL    HW246953  14.187  14.220   5.933
48372SOL     OW46954   6.705   1.789   4.246
48372SOL    HW146955   6.691   1.717   4.307
48372SOL    HW246956   6.690   1.868   4.298
48373SOL     OW46957  13.692   1.736   6.251
48373SOL    HW146958  13.713   1.830   6.254
48373SOL    HW246959  13.723   1.707   6.166
48374SOL     OW46960   6.774   5.224   6.606
48374SOL    HW146961   6.743   5.313   6.590
48374SOL    HW246962   6.721   5.170   6.549
48375SOL     OW46963   3.096  11.456   8.744
48375SOL    HW146964   3.048  11.531   8.779
48375SOL    HW246965   3.028  11.397   8.711
48376SOL     OW46966  10.006   5.751   6.399
48376SOL    HW146967   9.976   5.677   6.451
48376SOL    HW246968   9.946   5.822   6.423
48377SOL     OW46969   3.421   0.395   8.839
48377SOL    HW146970   3.441   0.488   8.833
48377SOL    HW246971   3.403   0.380   8.932
48378SOL     OW46972   4.874  11.637   2.269
48378SOL    HW146973   4.963  11.605   2.252
48378SOL    HW246974   4.844  11.667   2.183
48379SOL     OW46975  10.148  12.104  11.286
48379SOL    HW146976  10.180  12.146  11.366
48379SOL    HW246977  10.227  12.072  11.243
48380SOL     OW46978   8.130  11.014  14.801
48380SOL    HW146979   8.088  10.964  14.871
48380SOL    HW246980   8.164  11.092  14.845
48381SOL     OW46981   9.658   9.048   2.407
48381SOL    HW146982   9.576   9.021   2.449
48381SOL    HW246983   9.718   9.063   2.481
48382SOL     OW46984   6.050   4.459   6.713
48382SOL    HW146985   5.974   4.401   6.707
48382SOL    HW246986   6.065   4.470   6.807
48383SOL     OW46987  11.121  14.201   3.964
48383SOL    HW146988  11.182  14.274   3.978
48383SOL    HW246989  11.050  14.239   3.911
48384SOL     OW46990   7.539   0.498  10.770
48384SOL    HW146991   7.590   0.432  10.724
48384SOL    HW246992   7.455   0.456  10.788
48385SOL     OW46993  12.680   7.788  12.817
48385SOL    HW146994  12.761   7.774  12.768
48385SOL    HW246995  12.704   7.848  12.888
48386SOL     OW46996   8.779   7.639   0.748
48386SOL    HW146997   8.704   7.628   0.690
48386SOL    HW246998   8.754   7.709   0.807
48387SOL     OW46999  12.076   3.020  14.672
48387SOL    HW147000  12.148   3.052  14.617
48387SOL    HW247001  12.112   2.942  14.714
48388SOL     OW47002   3.172  14.822   0.075
48388SOL    HW147003   3.144  14.875   0.000
48388SOL    HW247004   3.262  14.798   0.053
48389SOL     OW47005   9.780   7.919   4.174
48389SOL    HW147006   9.735   7.866   4.240
48389SOL    HW247007   9.747   8.008   4.189
48390SOL     OW47008   7.003   8.662   3.712
48390SOL    HW147009   7.003   8.587   3.772
48390SOL    HW247010   7.066   8.639   3.644
48391SOL     OW47011   4.170   8.930   5.845
48391SOL    HW147012   4.156   8.879   5.924
48391SOL    HW247013   4.227   8.876   5.791
48392SOL     OW47014   0.234   6.827   0.337
48392SOL    HW147015   0.305   6.764   0.320
48392SOL    HW247016   0.155   6.784   0.305
48393SOL     OW47017   7.221   7.186  12.256
48393SOL    HW147018   7.204   7.103  12.210
48393SOL    HW247019   7.310   7.209  12.231
48394SOL     OW47020   0.563   0.365   6.252
48394SOL    HW147021   0.578   0.272   6.269
48394SOL    HW247022   0.586   0.376   6.160
48395SOL     OW47023   8.895   7.777  14.090
48395SOL    HW147024   8.917   7.809  14.178
48395SOL    HW247025   8.978   7.747  14.054
48396SOL     OW47026   1.433   4.080   5.110
48396SOL    HW147027   1.445   4.172   5.089
48396SOL    HW247028   1.518   4.040   5.091
48397SOL     OW47029  14.163   0.231   1.383
48397SOL    HW147030  14.116   0.240   1.466
48397SOL    HW247031  14.138   0.145   1.351
48398SOL     OW47032   9.647   1.099   7.237
48398SOL    HW147033   9.660   1.021   7.291
48398SOL    HW247034   9.596   1.158   7.292
48399SOL     OW47035  11.777   1.192   3.595
48399SOL    HW147036  11.717   1.245   3.542
48399SOL    HW247037  11.733   1.185   3.680
48400SOL     OW47038   6.647   5.797   6.400
48400SOL    HW147039   6.555   5.822   6.412
48400SOL    HW247040   6.649   5.704   6.422
48401SOL     OW47041   0.652  11.257   1.294
48401SOL    HW147042   0.568  11.211   1.296
48401SOL    HW247043   0.632  11.343   1.332
48402SOL     OW47044  12.336   5.691  12.785
48402SOL    HW147045  12.247   5.693  12.819
48402SOL    HW247046  12.379   5.765  12.827
48403SOL     OW47047   5.179   5.219   3.674
48403SOL    HW147048   5.231   5.270   3.612
48403SOL    HW247049   5.098   5.200   3.627
48404SOL     OW47050  10.937   8.263  14.270
48404SOL    HW147051  10.985   8.345  14.280
48404SOL    HW247052  10.853   8.278  14.314
48405SOL     OW47053  12.640   4.045   5.782
48405SOL    HW147054  12.709   4.004   5.730
48405SOL    HW247055  12.601   3.974   5.832
48406SOL     OW47056   0.057  11.950   5.087
48406SOL    HW147057   0.077  11.906   5.005
48406SOL    HW247058  14.854  11.992   5.072
48407SOL     OW47059   8.805   8.351   7.746
48407SOL    HW147060   8.741   8.420   7.731
48407SOL    HW247061   8.781   8.282   7.685
48408SOL     OW47062  12.480   9.939   9.809
48408SOL    HW147063  12.414   9.957   9.876
48408SOL    HW247064  12.549   9.891   9.856
48409SOL     OW47065  14.248   9.568   4.191
48409SOL    HW147066  14.194   9.532   4.262
48409SOL    HW247067  14.202   9.544   4.111
48410SOL     OW47068  13.300   6.913  12.785
48410SOL    HW147069  13.309   6.991  12.839
48410SOL    HW247070  13.215   6.876  12.809
48411SOL     OW47071   0.155   7.698  14.665
48411SOL    HW147072   0.103   7.732  14.738
48411SOL    HW247073   0.198   7.621  14.701
48412SOL     OW47074   7.233  11.515   0.226
48412SOL    HW147075   7.206  11.430   0.260
48412SOL    HW247076   7.151  11.564   0.214
48413SOL     OW47077  10.211   7.319   0.500
48413SOL    HW147078  10.126   7.356   0.477
48413SOL    HW247079  10.274   7.387   0.475
48414SOL     OW47080  12.626   2.619   6.708
48414SOL    HW147081  12.577   2.623   6.625
48414SOL    HW247082  12.578   2.555   6.760
48415SOL     OW47083   3.949   9.498   9.566
48415SOL    HW147084   3.900   9.462   9.640
48415SOL    HW247085   4.039   9.504   9.598
48416SOL     OW47086   5.559   8.796   3.859
48416SOL    HW147087   5.626   8.854   3.895
48416SOL    HW247088   5.586   8.783   3.768
48417SOL     OW47089   5.211   7.689   0.563
48417SOL    HW147090   5.202   7.780   0.534
48417SOL    HW247091   5.125   7.651   0.549
48418SOL     OW47092   1.999  14.624   8.859
48418SOL    HW147093   2.027  14.633   8.768
48418SOL    HW247094   1.913  14.583   8.854
48419SOL     OW47095   3.421   8.656  10.694
48419SOL    HW147096   3.444   8.727  10.754
48419SOL    HW247097   3.361   8.601  10.744
48420SOL     OW47098   2.542   2.707   7.401
48420SOL    HW147099   2.498   2.627   7.374
48420SOL    HW247100   2.610   2.678   7.462
48421SOL     OW47101   6.648   8.524   5.533
48421SOL    HW147102   6.617   8.570   5.611
48421SOL    HW247103   6.665   8.593   5.469
48422SOL     OW47104  12.389  13.652   1.772
48422SOL    HW147105  12.476  13.619   1.752
48422SOL    HW247106  12.393  13.745   1.750
48423SOL     OW47107   7.754   6.933   0.115
48423SOL    HW147108   7.705   6.945   0.196
48423SOL    HW247109   7.714   6.856   0.074
48424SOL     OW47110   3.005   6.546   1.666
48424SOL    HW147111   3.097   6.551   1.691
48424SOL    HW247112   2.965   6.622   1.708
48425SOL     OW47113   9.344  14.027   4.060
48425SOL    HW147114   9.251  14.008   4.049
48425SOL    HW247115   9.388  13.949   4.024
48426SOL     OW47116   3.127   2.234  12.655
48426SOL    HW147117   3.049   2.205  12.702
48426SOL    HW247118   3.112   2.328  12.640
48427SOL     OW47119  10.531   7.851   2.354
48427SOL    HW147120  10.607   7.835   2.298
48427SOL    HW247121  10.456   7.844   2.295
48428SOL     OW47122   5.776   9.522  11.461
48428SOL    HW147123   5.825   9.480  11.390
48428SOL    HW247124   5.842   9.543  11.527
48429SOL     OW47125  13.379  11.619  13.999
48429SOL    HW147126  13.424  11.563  14.062
48429SOL    HW247127  13.433  11.698  13.994
48430SOL     OW47128  11.841   7.308   7.129
48430SOL    HW147129  11.780   7.315   7.202
48430SOL    HW247130  11.896   7.233   7.152
48431SOL     OW47131   3.304   6.710   1.120
48431SOL    HW147132   3.307   6.640   1.186
48431SOL    HW247133   3.332   6.788   1.168
48432SOL     OW47134   4.262  11.275  11.963
48432SOL    HW147135   4.312  11.195  11.946
48432SOL    HW247136   4.199  11.279  11.890
48433SOL     OW47137   6.311   7.558   8.911
48433SOL    HW147138   6.370   7.577   8.839
48433SOL    HW247139   6.281   7.468   8.896
48434SOL     OW47140   0.655   4.156  13.156
48434SOL    HW147141   0.657   4.060  13.161
48434SOL    HW247142   0.562   4.178  13.155
48435SOL     OW47143  14.165  13.981   4.547
48435SOL    HW147144  14.100  13.919   4.513
48435SOL    HW247145  14.245  13.929   4.556
48436SOL     OW47146   2.599   2.414   7.404
48436SOL    HW147147   2.654   2.365   7.343
48436SOL    HW247148   2.659   2.473   7.449
48437SOL     OW47149   9.461   1.034  10.454
48437SOL    HW147150   9.495   1.083  10.380
48437SOL    HW247151   9.368   1.024  10.435
48438SOL     OW47152   9.567  14.478  13.237
48438SOL    HW147153   9.500  14.523  13.289
48438SOL    HW247154   9.535  14.387  13.232
48439SOL     OW47155   2.085   4.007   1.683
48439SOL    HW147156   1.999   4.048   1.675
48439SOL    HW247157   2.092   3.985   1.776
48440SOL     OW47158  13.365   8.829  14.623
48440SOL    HW147159  13.433   8.890  14.593
48440SOL    HW247160  13.405   8.742  14.613
48441SOL     OW47161   3.872   1.144   6.402
48441SOL    HW147162   3.837   1.114   6.486
48441SOL    HW247163   3.934   1.077   6.376
48442SOL     OW47164   5.107  13.211   5.478
48442SOL    HW147165   5.154  13.186   5.398
48442SOL    HW247166   5.140  13.151   5.545
48443SOL     OW47167  10.147   3.186   1.447
48443SOL    HW147168  10.132   3.271   1.490
48443SOL    HW247169  10.238   3.165   1.468
48444SOL     OW47170   9.761   1.660  14.532
48444SOL    HW147171   9.742   1.644  14.624
48444SOL    HW247172   9.751   1.755  14.521
48445SOL     OW47173  14.079   0.327  10.159
48445SOL    HW147174  14.015   0.275  10.112
48445SOL    HW247175  14.028   0.397  10.200
48446SOL     OW47176   7.327   6.425  12.578
48446SOL    HW147177   7.376   6.413  12.497
48446SOL    HW247178   7.279   6.507  12.566
48447SOL     OW47179  12.226   1.466  11.295
48447SOL    HW147180  12.306   1.413  11.288
48447SOL    HW247181  12.170   1.418  11.354
48448SOL     OW47182   8.539  14.722   9.314
48448SOL    HW147183   8.542  14.647   9.374
48448SOL    HW247184   8.497  14.688   9.235
48449SOL     OW47185   5.565   9.273   3.713
48449SOL    HW147186   5.528   9.320   3.788
48449SOL    HW247187   5.660   9.272   3.730
48450SOL     OW47188   5.798  13.101   0.167
48450SOL    HW147189   5.732  13.116   0.234
48450SOL    HW247190   5.789  13.009   0.145
48451SOL     OW47191   3.471   2.443   3.668
48451SOL    HW147192   3.452   2.533   3.695
48451SOL    HW247193   3.486   2.449   3.574
48452SOL     OW47194  10.284  14.530   2.692
48452SOL    HW147195  10.254  14.479   2.618
48452SOL    HW247196  10.226  14.607   2.694
48453SOL     OW47197  12.206  11.726   4.772
48453SOL    HW147198  12.213  11.780   4.851
48453SOL    HW247199  12.282  11.668   4.776
48454SOL     OW47200   0.474   0.797   2.552
48454SOL    HW147201   0.419   0.852   2.608
48454SOL    HW247202   0.474   0.843   2.468
48455SOL     OW47203   3.340  10.280   1.960
48455SOL    HW147204   3.330  10.356   1.903
48455SOL    HW247205   3.263  10.283   2.018
48456SOL     OW47206   4.534   5.259   3.156
48456SOL    HW147207   4.529   5.180   3.210
48456SOL    HW247208   4.621   5.294   3.173
48457SOL     OW47209   7.535   7.162  12.907
48457SOL    HW147210   7.587   7.106  12.848
48457SOL    HW247211   7.482   7.100  12.957
48458SOL     OW47212   2.603   9.831   3.063
48458SOL    HW147213   2.561   9.878   2.991
48458SOL    HW247214   2.548   9.850   3.139
48459SOL     OW47215  13.950   2.958   9.156
48459SOL    HW147216  14.005   2.882   9.174
48459SOL    HW247217  13.886   2.958   9.228
48460SOL     OW47218  10.149  13.551   5.911
48460SOL    HW147219  10.111  13.625   5.863
48460SOL    HW247220  10.114  13.474   5.868
48461SOL     OW47221  10.771   6.679  14.571
48461SOL    HW147222  10.770   6.696  14.476
48461SOL    HW247223  10.720   6.598  14.581
48462SOL     OW47224   7.501   7.812  13.793
48462SOL    HW147225   7.441   7.780  13.861
48462SOL    HW247226   7.530   7.898  13.825
48463SOL     OW47227   0.993   8.925   8.200
48463SOL    HW147228   1.057   8.892   8.137
48463SOL    HW247229   0.909   8.920   8.155
48464SOL     OW47230  14.794  12.806  13.476
48464SOL    HW147231  14.810  12.714  13.499
48464SOL    HW247232  14.706  12.823  13.510
48465SOL     OW47233  10.590  13.593   1.906
48465SOL    HW147234  10.619  13.668   1.959
48465SOL    HW247235  10.570  13.525   1.971
48466SOL     OW47236   4.303   4.636  11.392
48466SOL    HW147237   4.384   4.652  11.440
48466SOL    HW247238   4.245   4.594  11.455
48467SOL     OW47239   8.045   3.493   7.950
48467SOL    HW147240   8.121   3.446   7.915
48467SOL    HW247241   7.992   3.426   7.992
48468SOL     OW47242   6.982  13.487  14.267
48468SOL    HW147243   6.976  13.392  14.259
48468SOL    HW247244   6.989  13.518  14.176
48469SOL     OW47245   7.518  13.648   9.728
48469SOL    HW147246   7.454  13.591   9.771
48469SOL    HW247247   7.539  13.715   9.794
48470SOL     OW47248   1.316   4.533  12.837
48470SOL    HW147249   1.304   4.452  12.887
48470SOL    HW247250   1.410   4.548  12.839
48471SOL     OW47251   6.577   1.660   4.471
48471SOL    HW147252   6.580   1.565   4.477
48471SOL    HW247253   6.618   1.691   4.552
48472SOL     OW47254  14.800  12.268  13.830
48472SOL    HW147255   0.014  12.270  13.830
48472SOL    HW247256  14.775  12.312  13.749
48473SOL     OW47257   8.671   1.389   9.566
48473SOL    HW147258   8.713   1.412   9.482
48473SOL    HW247259   8.581   1.366   9.542
48474SOL     OW47260   6.141   0.888   0.931
48474SOL    HW147261   6.216   0.828   0.926
48474SOL    HW247262   6.129   0.904   1.024
48475SOL     OW47263   1.741   3.854   3.408
48475SOL    HW147264   1.804   3.782   3.409
48475SOL    HW247265   1.656   3.810   3.405
48476SOL     OW47266   8.938  11.502   8.021
48476SOL    HW147267   8.974  11.559   8.088
48476SOL    HW247268   8.950  11.551   7.939
48477SOL     OW47269  12.092   6.788   5.899
48477SOL    HW147270  12.035   6.858   5.868
48477SOL    HW247271  12.033   6.727   5.944
48478SOL     OW47272   8.272  10.272   0.349
48478SOL    HW147273   8.180  10.297   0.341
48478SOL    HW247274   8.317  10.354   0.370
48479SOL     OW47275   2.095   5.454   6.185
48479SOL    HW147276   2.161   5.386   6.175
48479SOL    HW247277   2.122   5.504   6.262
48480SOL     OW47278  11.895  14.408  13.041
48480SOL    HW147279  11.911  14.348  12.968
48480SOL    HW247280  11.968  14.470  13.038
48481SOL     OW47281   2.225   3.265   8.013
48481SOL    HW147282   2.270   3.344   7.981
48481SOL    HW247283   2.287   3.194   7.998
48482SOL     OW47284   7.697   2.992   0.619
48482SOL    HW147285   7.653   2.909   0.639
48482SOL    HW247286   7.673   3.011   0.529
48483SOL     OW47287   0.204   9.057   2.932
48483SOL    HW147288   0.186   9.114   3.006
48483SOL    HW247289   0.150   9.092   2.861
48484SOL     OW47290  12.365  14.035  14.691
48484SOL    HW147291  12.446  13.992  14.663
48484SOL    HW247292  12.384  14.129  14.685
48485SOL     OW47293   5.541   2.244  13.868
48485SOL    HW147294   5.515   2.180  13.934
48485SOL    HW247295   5.557   2.193  13.789
48486SOL     OW47296   8.804  11.619  10.187
48486SOL    HW147297   8.884  11.576  10.216
48486SOL    HW247298   8.833  11.705  10.156
48487SOL     OW47299   9.124   0.060   6.784
48487SOL    HW147300   9.143   0.042   6.876
48487SOL    HW247301   9.135   0.155   6.775
48488SOL     OW47302  12.333  13.720  14.320
48488SOL    HW147303  12.264  13.655  14.325
48488SOL    HW247304  12.308  13.787  14.384
48489SOL     OW47305   0.890   9.501  13.841
48489SOL    HW147306   0.903   9.501  13.746
48489SOL    HW247307   0.816   9.560  13.855
48490SOL     OW47308   9.911  12.827   6.404
48490SOL    HW147309   9.913  12.916   6.371
48490SOL    HW247310   9.973  12.779   6.350
48491SOL     OW47311   7.747   8.471   4.872
48491SOL    HW147312   7.659   8.489   4.905
48491SOL    HW247313   7.759   8.377   4.883
48492SOL     OW47314   2.517   4.589   7.136
48492SOL    HW147315   2.562   4.592   7.221
48492SOL    HW247316   2.424   4.585   7.158
48493SOL     OW47317   4.754   2.454  12.659
48493SOL    HW147318   4.659   2.457  12.674
48493SOL    HW247319   4.770   2.367  12.623
48494SOL     OW47320   5.430   5.792   3.213
48494SOL    HW147321   5.334   5.784   3.210
48494SOL    HW247322   5.447   5.829   3.300
48495SOL     OW47323   3.874   3.386   0.798
48495SOL    HW147324   3.951   3.363   0.850
48495SOL    HW247325   3.800   3.360   0.852
48496SOL     OW47326   5.924  12.494  14.629
48496SOL    HW147327   5.870  12.432  14.677
48496SOL    HW247328   5.957  12.554  14.696
48497SOL     OW47329   8.866  14.851   1.889
48497SOL    HW147330   8.933   0.032   1.862
48497SOL    HW247331   8.808  14.844   1.814
48498SOL     OW47332   1.166   2.472   7.757
48498SOL    HW147333   1.214   2.475   7.674
48498SOL    HW247334   1.106   2.398   7.747
48499SOL     OW47335   6.684   3.051   2.753
48499SOL    HW147336   6.750   2.993   2.790
48499SOL    HW247337   6.621   2.993   2.710
48500SOL     OW47338   4.608  13.864   6.583
48500SOL    HW147339   4.545  13.839   6.516
48500SOL    HW247340   4.556  13.909   6.650
48501SOL     OW47341   0.694   8.562   5.201
48501SOL    HW147342   0.706   8.655   5.185
48501SOL    HW247343   0.704   8.521   5.114
48502SOL     OW47344  11.395   8.755   8.532
48502SOL    HW147345  11.409   8.674   8.485
48502SOL    HW247346  11.300   8.761   8.541
48503SOL     OW47347   0.018  10.507   1.279
48503SOL    HW147348  14.812  10.502   1.241
48503SOL    HW247349   0.037  10.417   1.307
48504SOL     OW47350   7.376   3.225   7.323
48504SOL    HW147351   7.470   3.204   7.319
48504SOL    HW247352   7.350   3.200   7.411
48505SOL     OW47353   0.799  13.314   5.369
48505SOL    HW147354   0.894  13.317   5.384
48505SOL    HW247355   0.763  13.374   5.435
48506SOL     OW47356   6.897   7.779   4.198
48506SOL    HW147357   6.977   7.777   4.250
48506SOL    HW247358   6.915   7.722   4.123
48507SOL     OW47359  12.184   6.124   8.732
48507SOL    HW147360  12.176   6.158   8.821
48507SOL    HW247361  12.221   6.197   8.682
48508SOL     OW47362  10.565   5.211   5.659
48508SOL    HW147363  10.584   5.303   5.644
48508SOL    HW247364  10.508   5.210   5.736
48509SOL     OW47365  10.768   7.145   5.760
48509SOL    HW147366  10.832   7.182   5.820
48509SOL    HW247367  10.719   7.221   5.727
48510SOL     OW47368  12.630  14.479   6.981
48510SOL    HW147369  12.679  14.556   7.010
48510SOL    HW247370  12.538  14.502   6.996
48511SOL     OW47371   3.404   9.650  10.761
48511SOL    HW147372   3.367   9.592  10.828
48511SOL    HW247373   3.414   9.734  10.805
48512SOL     OW47374  13.602   7.779   4.117
48512SOL    HW147375  13.689   7.818   4.123
48512SOL    HW247376  13.560   7.801   4.200
48513SOL     OW47377   7.165   6.564   4.952
48513SOL    HW147378   7.127   6.593   4.868
48513SOL    HW247379   7.113   6.608   5.018
48514SOL     OW47380  11.794   5.439   3.590
48514SOL    HW147381  11.721   5.427   3.530
48514SOL    HW247382  11.822   5.350   3.614
48515SOL     OW47383   0.893  11.268   3.945
48515SOL    HW147384   0.864  11.312   4.025
48515SOL    HW247385   0.966  11.322   3.914
48516SOL     OW47386   9.337   6.640  11.603
48516SOL    HW147387   9.383   6.583  11.541
48516SOL    HW247388   9.303   6.582  11.670
48517SOL     OW47389   0.948  11.926  13.730
48517SOL    HW147390   0.986  11.839  13.739
48517SOL    HW247391   0.889  11.920  13.655
48518SOL     OW47392   6.824   1.986   2.357
48518SOL    HW147393   6.861   1.898   2.357
48518SOL    HW247394   6.729   1.973   2.353
48519SOL     OW47395  12.221   2.070   6.473
48519SOL    HW147396  12.136   2.114   6.479
48519SOL    HW247397  12.202   1.978   6.491
48520SOL     OW47398  11.341  10.218  10.763
48520SOL    HW147399  11.405  10.155  10.730
48520SOL    HW247400  11.387  10.266  10.831
48521SOL     OW47401   5.816   6.024   7.295
48521SOL    HW147402   5.743   5.974   7.332
48521SOL    HW247403   5.794   6.033   7.202
48522SOL     OW47404  13.578  14.802  11.796
48522SOL    HW147405  13.571   0.002  11.844
48522SOL    HW247406  13.670  14.777  11.805
48523SOL     OW47407   7.518   9.297   5.636
48523SOL    HW147408   7.598   9.343   5.659
48523SOL    HW247409   7.452   9.332   5.695
48524SOL     OW47410   5.721  12.683   7.677
48524SOL    HW147411   5.744  12.591   7.676
48524SOL    HW247412   5.800  12.729   7.648
48525SOL     OW47413   4.571  11.275  11.734
48525SOL    HW147414   4.573  11.285  11.829
48525SOL    HW247415   4.660  11.250  11.710
48526SOL     OW47416   0.221  11.006   4.725
48526SOL    HW147417   0.195  10.962   4.806
48526SOL    HW247418   0.223  10.937   4.660
48527SOL     OW47419  10.556   6.638   6.774
48527SOL    HW147420  10.498   6.679   6.710
48527SOL    HW247421  10.500   6.578   6.822
48528SOL     OW47422   1.882   1.171   6.403
48528SOL    HW147423   1.944   1.167   6.476
48528SOL    HW247424   1.922   1.116   6.335
48529SOL     OW47425  13.813   7.113  14.217
48529SOL    HW147426  13.810   7.017  14.220
48529SOL    HW247427  13.900   7.135  14.251
48530SOL     OW47428   0.085   7.733  11.960
48530SOL    HW147429   0.141   7.712  12.035
48530SOL    HW247430   0.047   7.649  11.935
48531SOL     OW47431   1.059   3.160   0.798
48531SOL    HW147432   1.023   3.200   0.719
48531SOL    HW247433   1.060   3.232   0.862
48532SOL     OW47434   5.807   1.485   0.790
48532SOL    HW147435   5.748   1.432   0.738
48532SOL    HW247436   5.754   1.517   0.863
48533SOL     OW47437   2.104   9.599   2.321
48533SOL    HW147438   2.189   9.616   2.360
48533SOL    HW247439   2.048   9.574   2.395
48534SOL     OW47440   0.061   7.557  14.427
48534SOL    HW147441   0.131   7.589  14.484
48534SOL    HW247442  14.870   7.617  14.442
48535SOL     OW47443   6.558  10.158   9.224
48535SOL    HW147444   6.503  10.100   9.277
48535SOL    HW247445   6.630  10.182   9.282
48536SOL     OW47446  14.472   2.927   5.992
48536SOL    HW147447  14.382   2.957   5.980
48536SOL    HW247448  14.464   2.837   6.024
48537SOL     OW47449   8.166   7.817  10.229
48537SOL    HW147450   8.226   7.745  10.208
48537SOL    HW247451   8.111   7.782  10.299
48538SOL     OW47452   2.670   9.879  10.834
48538SOL    HW147453   2.620   9.921  10.904
48538SOL    HW247454   2.695   9.950  10.775
48539SOL     OW47455   6.498   4.996   9.270
48539SOL    HW147456   6.586   4.964   9.249
48539SOL    HW247457   6.506   5.032   9.359
48540SOL     OW47458   6.208  14.401   2.536
48540SOL    HW147459   6.230  14.492   2.516
48540SOL    HW247460   6.259  14.381   2.615
48541SOL     OW47461   1.404   1.332  13.435
48541SOL    HW147462   1.433   1.397  13.500
48541SOL    HW247463   1.483   1.281  13.417
48542SOL     OW47464  11.519   7.258  11.266
48542SOL    HW147465  11.564   7.342  11.277
48542SOL    HW247466  11.525   7.217  11.352
48543SOL     OW47467   3.951   8.369   3.884
48543SOL    HW147468   3.877   8.371   3.824
48543SOL    HW247469   4.014   8.310   3.841
48544SOL     OW47470   2.622   9.623   1.633
48544SOL    HW147471   2.543   9.572   1.648
48544SOL    HW247472   2.638   9.615   1.539
48545SOL     OW47473   3.553  12.998   8.595
48545SOL    HW147474   3.541  12.970   8.505
48545SOL    HW247475   3.646  12.985   8.613
48546SOL     OW47476   0.548   9.120  11.999
48546SOL    HW147477   0.521   9.209  12.022
48546SOL    HW247478   0.643   9.126  11.990
48547SOL     OW47479   7.564   6.013  11.777
48547SOL    HW147480   7.575   5.974  11.863
48547SOL    HW247481   7.509   5.951  11.729
48548SOL     OW47482   4.388   7.153   6.739
48548SOL    HW147483   4.376   7.166   6.833
48548SOL    HW247484   4.482   7.164   6.724
48549SOL     OW47485  13.739   0.277   9.180
48549SOL    HW147486  13.644   0.266   9.188
48549SOL    HW247487  13.751   0.370   9.164
48550SOL     OW47488   1.456   8.806  12.647
48550SOL    HW147489   1.492   8.881  12.600
48550SOL    HW247490   1.408   8.757  12.580
48551SOL     OW47491   6.720  13.460   1.059
48551SOL    HW147492   6.774  13.383   1.050
48551SOL    HW247493   6.630  13.428   1.049
48552SOL     OW47494  14.347  12.972   2.768
48552SOL    HW147495  14.436  12.940   2.753
48552SOL    HW247496  14.343  13.056   2.721
48553SOL     OW47497   0.195   2.004  10.885
48553SOL    HW147498   0.290   1.993  10.875
48553SOL    HW247499   0.165   2.037  10.800
48554SOL     OW47500   4.713   5.793   4.775
48554SOL    HW147501   4.738   5.780   4.684
48554SOL    HW247502   4.618   5.801   4.773
48555SOL     OW47503   5.895  14.270  11.094
48555SOL    HW147504   5.825  14.206  11.081
48555SOL    HW247505   5.949  14.263  11.016
48556SOL     OW47506  12.905  10.239   3.562
48556SOL    HW147507  12.942  10.245   3.474
48556SOL    HW247508  12.975  10.201   3.615
48557SOL     OW47509  14.094  10.032   0.637
48557SOL    HW147510  14.032  10.060   0.569
48557SOL    HW247511  14.113  10.111   0.687
48558SOL     OW47512   1.793  10.461   7.444
48558SOL    HW147513   1.699  10.448   7.433
48558SOL    HW247514   1.800  10.542   7.495
48559SOL     OW47515  12.281   2.110   3.857
48559SOL    HW147516  12.369   2.135   3.887
48559SOL    HW247517  12.278   2.015   3.866
48560SOL     OW47518  12.936   3.538  10.761
48560SOL    HW147519  13.022   3.504  10.735
48560SOL    HW247520  12.888   3.460  10.789
48561SOL     OW47521  10.533   7.699   3.867
48561SOL    HW147522  10.438   7.713   3.861
48561SOL    HW247523  10.569   7.746   3.792
48562SOL     OW47524  10.575   2.612  12.807
48562SOL    HW147525  10.655   2.662  12.790
48562SOL    HW247526  10.575   2.598  12.902
48563SOL     OW47527  13.283   0.129   4.869
48563SOL    HW147528  13.375   0.128   4.840
48563SOL    HW247529  13.286   0.172   4.955
48564SOL     OW47530   5.761   7.758   1.659
48564SOL    HW147531   5.818   7.806   1.719
48564SOL    HW247532   5.679   7.808   1.659
48565SOL     OW47533   3.608  14.508  13.168
48565SOL    HW147534   3.543  14.455  13.123
48565SOL    HW247535   3.557  14.574  13.215
48566SOL     OW47536   2.486  12.932   2.006
48566SOL    HW147537   2.469  12.958   1.915
48566SOL    HW247538   2.514  12.841   2.000
48567SOL     OW47539   4.694   2.287   2.842
48567SOL    HW147540   4.610   2.300   2.798
48567SOL    HW247541   4.739   2.371   2.834
48568SOL     OW47542   2.251   7.211   2.584
48568SOL    HW147543   2.304   7.143   2.541
48568SOL    HW247544   2.257   7.190   2.677
48569SOL     OW47545  12.979   9.567   3.393
48569SOL    HW147546  12.961   9.633   3.326
48569SOL    HW247547  13.001   9.488   3.344
48570SOL     OW47548   0.817  12.554   0.990
48570SOL    HW147549   0.906  12.587   0.983
48570SOL    HW247550   0.761  12.629   0.973
48571SOL     OW47551   5.647   3.803   3.818
48571SOL    HW147552   5.628   3.870   3.884
48571SOL    HW247553   5.731   3.766   3.846
48572SOL     OW47554   3.434   2.168   6.903
48572SOL    HW147555   3.366   2.168   6.835
48572SOL    HW247556   3.392   2.210   6.978
48573SOL     OW47557   3.533  14.841  13.462
48573SOL    HW147558   3.524   0.034  13.521
48573SOL    HW247559   3.547  14.767  13.521
48574SOL     OW47560   3.164   5.082   4.509
48574SOL    HW147561   3.209   5.114   4.431
48574SOL    HW247562   3.149   5.160   4.562
48575SOL     OW47563   4.942   3.050  13.205
48575SOL    HW147564   4.855   3.050  13.245
48575SOL    HW247565   4.985   3.128  13.242
48576SOL     OW47566   3.503   9.436  14.600
48576SOL    HW147567   3.592   9.399  14.600
48576SOL    HW247568   3.510   9.515  14.546
48577SOL     OW47569  12.260  10.840   1.669
48577SOL    HW147570  12.262  10.763   1.611
48577SOL    HW247571  12.328  10.822   1.734
48578SOL     OW47572   4.324   8.864   4.274
48578SOL    HW147573   4.383   8.881   4.347
48578SOL    HW247574   4.371   8.895   4.197
48579SOL     OW47575  13.122   3.259  11.100
48579SOL    HW147576  13.098   3.232  11.188
48579SOL    HW247577  13.193   3.322  11.112
48580SOL     OW47578  12.481   9.262   7.925
48580SOL    HW147579  12.552   9.239   7.986
48580SOL    HW247580  12.410   9.291   7.981
48581SOL     OW47581   0.171  11.991   2.075
48581SOL    HW147582   0.084  11.970   2.043
48581SOL    HW247583   0.195  11.916   2.129
48582SOL     OW47584  11.966   7.810   6.052
48582SOL    HW147585  11.961   7.790   6.145
48582SOL    HW247586  11.986   7.903   6.048
48583SOL     OW47587  10.676   3.332   4.018
48583SOL    HW147588  10.605   3.289   3.970
48583SOL    HW247589  10.637   3.356   4.102
48584SOL     OW47590  13.770  14.444  11.226
48584SOL    HW147591  13.800  14.534  11.229
48584SOL    HW247592  13.836  14.398  11.174
48585SOL     OW47593   1.797   8.733   3.207
48585SOL    HW147594   1.732   8.774   3.264
48585SOL    HW247595   1.842   8.670   3.263
48586SOL     OW47596  13.425  13.558  12.100
48586SOL    HW147597  13.411  13.486  12.161
48586SOL    HW247598  13.510  13.540  12.061
48587SOL     OW47599  10.656   7.111  14.119
48587SOL    HW147600  10.683   7.203  14.120
48587SOL    HW247601  10.711   7.070  14.186
48588SOL     OW47602  14.154   8.495   9.416
48588SOL    HW147603  14.187   8.558   9.480
48588SOL    HW247604  14.186   8.410   9.448
48589SOL     OW47605   7.434   5.463   1.729
48589SOL    HW147606   7.423   5.498   1.817
48589SOL    HW247607   7.509   5.510   1.693
48590SOL     OW47608  11.967   6.826  13.427
48590SOL    HW147609  11.877   6.853  13.444
48590SOL    HW247610  11.960   6.734  13.400
48591SOL     OW47611   9.400   5.900   5.485
48591SOL    HW147612   9.359   5.907   5.399
48591SOL    HW247613   9.372   5.814   5.519
48592SOL     OW47614   7.376   9.166  12.559
48592SOL    HW147615   7.471   9.156  12.551
48592SOL    HW247616   7.343   9.078  12.572
48593SOL     OW47617   7.081  10.899  10.276
48593SOL    HW147618   7.174  10.901  10.299
48593SOL    HW247619   7.073  10.956  10.199
48594SOL     OW47620   0.321   5.708   9.774
48594SOL    HW147621   0.315   5.628   9.722
48594SOL    HW247622   0.415   5.723   9.785
48595SOL     OW47623   3.306   9.645   6.914
48595SOL    HW147624   3.381   9.633   6.856
48595SOL    HW247625   3.233   9.604   6.868
48596SOL     OW47626   2.248   2.784   4.775
48596SOL    HW147627   2.315   2.772   4.707
48596SOL    HW247628   2.219   2.875   4.765
48597SOL     OW47629   1.902   2.060   1.858
48597SOL    HW147630   1.975   2.119   1.839
48597SOL    HW247631   1.936   1.972   1.839
48598SOL     OW47632  11.613   7.500  14.361
48598SOL    HW147633  11.536   7.458  14.324
48598SOL    HW247634  11.634   7.571  14.301
48599SOL     OW47635  12.144   2.308   7.383
48599SOL    HW147636  12.117   2.359   7.306
48599SOL    HW247637  12.168   2.223   7.347
48600SOL     OW47638  13.273   2.943   7.255
48600SOL    HW147639  13.201   2.993   7.215
48600SOL    HW247640  13.313   2.896   7.183
48601SOL     OW47641   5.840  11.190   0.973
48601SOL    HW147642   5.858  11.212   1.064
48601SOL    HW247643   5.749  11.161   0.972
48602SOL     OW47644  14.570   8.049   4.814
48602SOL    HW147645  14.616   8.025   4.734
48602SOL    HW247646  14.608   7.993   4.881
48603SOL     OW47647   1.262   4.154   8.630
48603SOL    HW147648   1.251   4.069   8.672
48603SOL    HW247649   1.306   4.135   8.547
48604SOL     OW47650   3.993   6.989   2.294
48604SOL    HW147651   3.941   7.069   2.302
48604SOL    HW247652   3.932   6.926   2.255
48605SOL     OW47653  13.311   2.625  11.137
48605SOL    HW147654  13.306   2.714  11.100
48605SOL    HW247655  13.404   2.612  11.155
48606SOL     OW47656   6.593  12.405   0.425
48606SOL    HW147657   6.580  12.362   0.510
48606SOL    HW247658   6.526  12.367   0.369
48607SOL     OW47659   7.324   1.182   3.229
48607SOL    HW147660   7.301   1.095   3.197
48607SOL    HW247661   7.418   1.178   3.245
48608SOL     OW47662   4.947   8.338   8.998
48608SOL    HW147663   4.945   8.270   9.065
48608SOL    HW247664   4.878   8.399   9.024
48609SOL     OW47665   8.361  12.582  11.027
48609SOL    HW147666   8.305  12.628  11.090
48609SOL    HW247667   8.299  12.544  10.964
48610SOL     OW47668  10.774   7.456   3.316
48610SOL    HW147669  10.864   7.445   3.287
48610SOL    HW247670  10.731   7.499   3.242
48611SOL     OW47671   4.541   3.966  13.139
48611SOL    HW147672   4.481   4.041  13.139
48611SOL    HW247673   4.568   3.956  13.230
48612SOL     OW47674  13.777   1.221  10.142
48612SOL    HW147675  13.723   1.148  10.173
48612SOL    HW247676  13.804   1.196  10.053
48613SOL     OW47677   6.456   3.654   3.365
48613SOL    HW147678   6.389   3.720   3.384
48613SOL    HW247679   6.533   3.683   3.414
48614SOL     OW47680   8.471   6.982   1.779
48614SOL    HW147681   8.425   6.931   1.846
48614SOL    HW247682   8.412   7.055   1.760
48615SOL     OW47683   5.079   1.725   1.121
48615SOL    HW147684   5.024   1.721   1.043
48615SOL    HW247685   5.160   1.681   1.096
48616SOL     OW47686   7.362   0.778   7.074
48616SOL    HW147687   7.434   0.839   7.063
48616SOL    HW247688   7.284   0.833   7.083
48617SOL     OW47689   6.759   8.780   4.920
48617SOL    HW147690   6.812   8.732   4.983
48617SOL    HW247691   6.705   8.713   4.879
48618SOL     OW47692   6.289   3.783  12.628
48618SOL    HW147693   6.247   3.732  12.559
48618SOL    HW247694   6.242   3.759  12.708
48619SOL     OW47695   3.890   1.794  12.606
48619SOL    HW147696   3.886   1.827  12.696
48619SOL    HW247697   3.816   1.835  12.562
48620SOL     OW47698   6.968   5.674  10.617
48620SOL    HW147699   7.006   5.760  10.631
48620SOL    HW247700   7.006   5.619  10.686
48621SOL     OW47701  12.414   6.347   9.250
48621SOL    HW147702  12.449   6.423   9.297
48621SOL    HW247703  12.319   6.350   9.267
48622SOL     OW47704  10.592   7.200   0.217
48622SOL    HW147705  10.558   7.159   0.297
48622SOL    HW247706  10.650   7.134   0.179
48623SOL     OW47707   6.162  13.993   9.123
48623SOL    HW147708   6.188  13.935   9.195
48623SOL    HW247709   6.233  14.058   9.118
48624SOL     OW47710  11.547  12.775  13.704
48624SOL    HW147711  11.597  12.771  13.786
48624SOL    HW247712  11.507  12.688  13.696
48625SOL     OW47713   3.910   3.785  11.351
48625SOL    HW147714   3.856   3.766  11.428
48625SOL    HW247715   3.999   3.760  11.377
48626SOL     OW47716   7.661   1.764   6.811
48626SOL    HW147717   7.716   1.810   6.748
48626SOL    HW247718   7.720   1.743   6.883
48627SOL     OW47719  11.533   9.218  10.270
48627SOL    HW147720  11.561   9.309  10.263
48627SOL    HW247721  11.526   9.188  10.179
48628SOL     OW47722   6.317   6.819   9.801
48628SOL    HW147723   6.401   6.843   9.763
48628SOL    HW247724   6.320   6.724   9.808
48629SOL     OW47725   6.414  13.111   9.916
48629SOL    HW147726   6.374  13.025   9.916
48629SOL    HW247727   6.379  13.154   9.994
48630SOL     OW47728  13.097   6.046   7.446
48630SOL    HW147729  13.144   6.120   7.407
48630SOL    HW247730  13.101   5.977   7.379
48631SOL     OW47731   0.035  14.156   5.038
48631SOL    HW147732   0.046  14.167   5.132
48631SOL    HW247733  14.824  14.175   5.022
48632SOL     OW47734   8.761  14.388   9.182
48632SOL    HW147735   8.779  14.465   9.128
48632SOL    HW247736   8.816  14.399   9.259
48633SOL     OW47737   8.798  13.365   3.673
48633SOL    HW147738   8.792  13.418   3.594
48633SOL    HW247739   8.730  13.399   3.730
48634SOL     OW47740  12.978   4.391   5.317
48634SOL    HW147741  12.968   4.461   5.381
48634SOL    HW247742  12.912   4.410   5.250
48635SOL     OW47743  13.844  13.320  11.408
48635SOL    HW147744  13.773  13.290  11.464
48635SOL    HW247745  13.816  13.407  11.378
48636SOL     OW47746   7.366   3.193  14.665
48636SOL    HW147747   7.458   3.221  14.669
48636SOL    HW247748   7.367   3.102  14.696
48637SOL     OW47749  11.057   3.872   2.442
48637SOL    HW147750  11.139   3.826   2.463
48637SOL    HW247751  11.063   3.954   2.490
48638SOL     OW47752  10.524   8.213   7.528
48638SOL    HW147753  10.547   8.206   7.620
48638SOL    HW247754  10.457   8.147   7.514
48639SOL     OW47755   8.200   4.500   3.772
48639SOL    HW147756   8.160   4.587   3.772
48639SOL    HW247757   8.284   4.511   3.728
48640SOL     OW47758  14.195  12.492   8.090
48640SOL    HW147759  14.117  12.514   8.141
48640SOL    HW247760  14.223  12.576   8.052
48641SOL     OW47761   0.988   9.006   8.483
48641SOL    HW147762   1.036   8.933   8.444
48641SOL    HW247763   1.017   9.082   8.434
48642SOL     OW47764  10.819  11.537   4.362
48642SOL    HW147765  10.826  11.569   4.452
48642SOL    HW247766  10.857  11.449   4.365
48643SOL     OW47767   7.771   3.987  10.167
48643SOL    HW147768   7.750   4.077  10.193
48643SOL    HW247769   7.713   3.933  10.219
48644SOL     OW47770   3.860   5.480  13.460
48644SOL    HW147771   3.778   5.527  13.473
48644SOL    HW247772   3.833   5.396  13.420
48645SOL     OW47773   1.624  12.882  12.005
48645SOL    HW147774   1.591  12.970  11.985
48645SOL    HW247775   1.552  12.840  12.053
48646SOL     OW47776   0.253   5.134  13.952
48646SOL    HW147777   0.279   5.048  13.986
48646SOL    HW247778   0.238   5.187  14.030
48647SOL     OW47779   9.408   9.678  14.308
48647SOL    HW147780   9.314   9.696  14.299
48647SOL    HW247781   9.414   9.583  14.318
48648SOL     OW47782   0.811  13.622   0.679
48648SOL    HW147783   0.769  13.549   0.724
48648SOL    HW247784   0.764  13.629   0.596
48649SOL     OW47785   1.955   4.703   5.369
48649SOL    HW147786   1.914   4.649   5.436
48649SOL    HW247787   1.882   4.744   5.323
48650SOL     OW47788  13.320  14.662   5.910
48650SOL    HW147789  13.270  14.743   5.918
48650SOL    HW247790  13.408  14.691   5.884
48651SOL     OW47791   1.378   1.320   3.115
48651SOL    HW147792   1.324   1.396   3.095
48651SOL    HW247793   1.375   1.266   3.036
48652SOL     OW47794   7.660   8.348  13.042
48652SOL    HW147795   7.728   8.366  13.107
48652SOL    HW247796   7.645   8.254  13.047
48653SOL     OW47797   2.049   8.218   3.875
48653SOL    HW147798   2.093   8.278   3.814
48653SOL    HW247799   1.965   8.199   3.833
48654SOL     OW47800  13.728   2.264   6.770
48654SOL    HW147801  13.818   2.260   6.737
48654SOL    HW247802  13.673   2.252   6.692
48655SOL     OW47803  12.448  12.529   8.164
48655SOL    HW147804  12.475  12.600   8.222
48655SOL    HW247805  12.376  12.486   8.211
48656SOL     OW47806   2.368   6.175   0.756
48656SOL    HW147807   2.291   6.119   0.757
48656SOL    HW247808   2.361   6.227   0.836
48657SOL     OW47809   9.018   5.765   5.452
48657SOL    HW147810   9.037   5.752   5.359
48657SOL    HW247811   8.995   5.857   5.459
48658SOL     OW47812   5.807   3.245   0.599
48658SOL    HW147813   5.774   3.334   0.586
48658SOL    HW247814   5.898   3.249   0.567
48659SOL     OW47815   6.926   1.240   2.666
48659SOL    HW147816   6.843   1.193   2.675
48659SOL    HW247817   6.950   1.230   2.574
48660SOL     OW47818  13.207  10.117   1.354
48660SOL    HW147819  13.194  10.022   1.344
48660SOL    HW247820  13.170  10.155   1.274
48661SOL     OW47821   0.668   2.210  12.511
48661SOL    HW147822   0.750   2.228  12.466
48661SOL    HW247823   0.659   2.115  12.506
48662SOL     OW47824   6.368  10.513  10.333
48662SOL    HW147825   6.359  10.488  10.425
48662SOL    HW247826   6.279  10.507  10.298
48663SOL     OW47827   3.836   0.142   3.860
48663SOL    HW147828   3.824   0.047   3.858
48663SOL    HW247829   3.833   0.164   3.953
48664SOL     OW47830   9.026   7.950   1.279
48664SOL    HW147831   9.076   7.871   1.261
48664SOL    HW247832   9.032   8.001   1.199
48665SOL     OW47833  14.723   6.303  12.508
48665SOL    HW147834  14.810   6.263  12.518
48665SOL    HW247835  14.695   6.276  12.421
48666SOL     OW47836   8.975   4.420  10.418
48666SOL    HW147837   8.880   4.414  10.430
48666SOL    HW247838   9.010   4.426  10.507
48667SOL     OW47839   7.117   0.666   5.698
48667SOL    HW147840   7.202   0.710   5.698
48667SOL    HW247841   7.137   0.576   5.674
48668SOL     OW47842   8.531   5.085  14.510
48668SOL    HW147843   8.600   5.140  14.547
48668SOL    HW247844   8.578   5.020  14.457
48669SOL     OW47845   5.619  13.449   2.465
48669SOL    HW147846   5.710  13.434   2.493
48669SOL    HW247847   5.612  13.401   2.383
48670SOL     OW47848  14.108   4.832   8.533
48670SOL    HW147849  14.071   4.758   8.581
48670SOL    HW247850  14.198   4.806   8.515
48671SOL     OW47851  10.780  10.147   6.449
48671SOL    HW147852  10.851  10.184   6.397
48671SOL    HW247853  10.711  10.127   6.385
48672SOL     OW47854   0.402   5.516   1.375
48672SOL    HW147855   0.490   5.553   1.373
48672SOL    HW247856   0.367   5.534   1.288
48673SOL     OW47857   6.648   4.612   6.946
48673SOL    HW147858   6.735   4.640   6.920
48673SOL    HW247859   6.639   4.641   7.037
48674SOL     OW47860  14.651  11.028   4.956
48674SOL    HW147861  14.643  11.097   5.021
48674SOL    HW247862  14.563  11.019   4.919
48675SOL     OW47863  13.970  10.729  11.363
48675SOL    HW147864  13.999  10.678  11.439
48675SOL    HW247865  14.034  10.800  11.357
48676SOL     OW47866   3.345  13.438   5.242
48676SOL    HW147867   3.418  13.483   5.197
48676SOL    HW247868   3.356  13.462   5.334
48677SOL     OW47869   9.840   0.345  14.405
48677SOL    HW147870   9.887   0.312  14.328
48677SOL    HW247871   9.751   0.312  14.394
48678SOL     OW47872   0.067   5.779   2.969
48678SOL    HW147873   0.110   5.700   2.938
48678SOL    HW247874   0.111   5.850   2.923
48679SOL     OW47875   6.355  12.826  10.465
48679SOL    HW147876   6.400  12.844  10.382
48679SOL    HW247877   6.262  12.839  10.445
48680SOL     OW47878   8.195   6.876  10.149
48680SOL    HW147879   8.283   6.849  10.174
48680SOL    HW247880   8.143   6.863  10.229
48681SOL     OW47881  13.318  14.455   0.372
48681SOL    HW147882  13.334  14.526   0.310
48681SOL    HW247883  13.238  14.480   0.417
48682SOL     OW47884  14.501   2.133  11.890
48682SOL    HW147885  14.412   2.112  11.863
48682SOL    HW247886  14.505   2.106  11.982
48683SOL     OW47887  12.007  10.790   4.217
48683SOL    HW147888  11.911  10.788   4.216
48683SOL    HW247889  12.029  10.883   4.219
48684SOL     OW47890  10.279  11.124  12.316
48684SOL    HW147891  10.303  11.159  12.231
48684SOL    HW247892  10.185  11.142  12.325
48685SOL     OW47893  11.149  14.219   8.704
48685SOL    HW147894  11.062  14.192   8.675
48685SOL    HW247895  11.170  14.294   8.648
48686SOL     OW47896   5.877  13.789   9.261
48686SOL    HW147897   5.803  13.734   9.234
48686SOL    HW247898   5.851  13.878   9.238
48687SOL     OW47899   4.889   8.581   9.842
48687SOL    HW147900   4.980   8.608   9.825
48687SOL    HW247901   4.860   8.638   9.914
48688SOL     OW47902   6.723   4.551   5.714
48688SOL    HW147903   6.697   4.565   5.805
48688SOL    HW247904   6.643   4.525   5.669
48689SOL     OW47905   8.589  14.465   9.913
48689SOL    HW147906   8.554  14.490   9.827
48689SOL    HW247907   8.557  14.534   9.972
48690SOL     OW47908   6.312   6.982   6.993
48690SOL    HW147909   6.381   6.915   6.993
48690SOL    HW247910   6.252   6.955   7.062
48691SOL     OW47911   0.574   1.378   5.855
48691SOL    HW147912   0.586   1.447   5.920
48691SOL    HW247913   0.645   1.316   5.872
48692SOL     OW47914   0.171   8.230   7.815
48692SOL    HW147915   0.205   8.318   7.832
48692SOL    HW247916   0.122   8.239   7.734
48693SOL     OW47917  11.327   3.693   8.464
48693SOL    HW147918  11.346   3.719   8.374
48693SOL    HW247919  11.274   3.765   8.500
48694SOL     OW47920  13.019  14.805   2.092
48694SOL    HW147921  12.978   0.002   2.055
48694SOL    HW247922  13.072  14.838   2.164
48695SOL     OW47923   6.490   8.336  12.207
48695SOL    HW147924   6.417   8.306  12.153
48695SOL    HW247925   6.563   8.347  12.146
48696SOL     OW47926   5.565  10.615   3.562
48696SOL    HW147927   5.569  10.537   3.616
48696SOL    HW247928   5.567  10.688   3.624
48697SOL     OW47929  14.699   9.751   8.200
48697SOL    HW147930  14.773   9.804   8.227
48697SOL    HW247931  14.647   9.739   8.279
48698SOL     OW47932   6.773   7.990  10.958
48698SOL    HW147933   6.823   8.043  10.896
48698SOL    HW247934   6.745   7.913  10.907
48699SOL     OW47935   5.432   2.041   0.161
48699SOL    HW147936   5.365   2.010   0.100
48699SOL    HW247937   5.383   2.068   0.239
48700SOL     OW47938   2.656   8.963  13.949
48700SOL    HW147939   2.582   9.016  13.979
48700SOL    HW247940   2.721   9.027  13.921
48701SOL     OW47941   0.077  13.471  13.150
48701SOL    HW147942   0.109  13.483  13.239
48701SOL    HW247943   0.017  13.396  13.155
48702SOL     OW47944   0.105   7.181   8.255
48702SOL    HW147945   0.105   7.091   8.288
48702SOL    HW247946   0.029   7.185   8.197
48703SOL     OW47947   0.741  14.357  13.675
48703SOL    HW147948   0.813  14.338  13.614
48703SOL    HW247949   0.722  14.273  13.717
48704SOL     OW47950   7.700   6.510  11.856
48704SOL    HW147951   7.739   6.423  11.847
48704SOL    HW247952   7.621   6.506  11.802
48705SOL     OW47953   9.803   2.016   0.144
48705SOL    HW147954   9.849   2.057   0.217
48705SOL    HW247955   9.781   1.928   0.176
48706SOL     OW47956  12.171   9.906   8.791
48706SOL    HW147957  12.230   9.876   8.722
48706SOL    HW247958  12.086   9.870   8.767
48707SOL     OW47959   6.084  13.722   6.879
48707SOL    HW147960   6.103  13.775   6.957
48707SOL    HW247961   6.094  13.783   6.806
48708SOL     OW47962  12.813   2.846   5.018
48708SOL    HW147963  12.883   2.784   5.003
48708SOL    HW247964  12.833   2.920   4.961
48709SOL     OW47965   1.846  10.921  12.297
48709SOL    HW147966   1.846  10.873  12.214
48709SOL    HW247967   1.927  10.893  12.340
48710SOL     OW47968  11.460   6.536   2.705
48710SOL    HW147969  11.510   6.525   2.624
48710SOL    HW247970  11.504   6.479   2.768
48711SOL     OW47971   8.404  11.872   0.069
48711SOL    HW147972   8.435  11.796   0.020
48711SOL    HW247973   8.314  11.851   0.092
48712SOL     OW47974   1.107  12.957  12.457
48712SOL    HW147975   1.125  13.016  12.383
48712SOL    HW247976   1.193  12.936  12.492
48713SOL     OW47977  11.480  11.892   8.916
48713SOL    HW147978  11.463  11.799   8.907
48713SOL    HW247979  11.407  11.926   8.967
48714SOL     OW47980   6.275   3.563   5.410
48714SOL    HW147981   6.277   3.486   5.468
48714SOL    HW247982   6.286   3.528   5.322
48715SOL     OW47983   7.414  13.577   0.456
48715SOL    HW147984   7.388  13.487   0.474
48715SOL    HW247985   7.331  13.623   0.442
48716SOL     OW47986  12.044  10.201  11.389
48716SOL    HW147987  12.091  10.144  11.329
48716SOL    HW247988  12.110  10.231  11.451
48717SOL     OW47989   6.118  14.681  14.582
48717SOL    HW147990   6.149  14.615  14.644
48717SOL    HW247991   6.160  14.657  14.499
48718SOL     OW47992  10.455  11.514   0.787
48718SOL    HW147993  10.533  11.561   0.756
48718SOL    HW247994  10.414  11.575   0.849
48719SOL     OW47995   9.581  14.464   1.183
48719SOL    HW147996   9.658  14.437   1.131
48719SOL    HW247997   9.506  14.441   1.128
48720SOL     OW47998   5.861   5.792  13.522
48720SOL    HW147999   5.923   5.723  13.544
48720SOL    HW248000   5.781   5.746  13.498
48721SOL     OW48001   1.776   8.440   6.624
48721SOL    HW148002   1.761   8.459   6.531
48721SOL    HW248003   1.809   8.522   6.660
48722SOL     OW48004   7.139  10.419   4.401
48722SOL    HW148005   7.103  10.331   4.414
48722SOL    HW248006   7.186  10.438   4.482
48723SOL     OW48007   5.382   0.414   2.598
48723SOL    HW148008   5.412   0.453   2.681
48723SOL    HW248009   5.463   0.396   2.550
48724SOL     OW48010   0.808  10.713   4.307
48724SOL    HW148011   0.799  10.721   4.212
48724SOL    HW248012   0.826  10.620   4.321
48725SOL     OW48013   6.130   4.386  13.871
48725SOL    HW148014   6.116   4.476  13.840
48725SOL    HW248015   6.099   4.386  13.961
48726SOL     OW48016   0.494   0.994   5.055
48726SOL    HW148017   0.474   1.085   5.075
48726SOL    HW248018   0.502   0.991   4.959
48727SOL     OW48019   2.101   2.713   9.032
48727SOL    HW148020   2.041   2.678   8.965
48727SOL    HW248021   2.135   2.635   9.076
48728SOL     OW48022  14.239   8.925  10.109
48728SOL    HW148023  14.267   8.972  10.031
48728SOL    HW248024  14.206   8.993  10.167
48729SOL     OW48025   7.131   7.196   3.061
48729SOL    HW148026   7.093   7.109   3.046
48729SOL    HW248027   7.163   7.223   2.975
48730SOL     OW48028   2.766   3.456  13.154
48730SOL    HW148029   2.724   3.383  13.108
48730SOL    HW248030   2.784   3.521  13.086
48731SOL     OW48031  13.633   9.391  11.256
48731SOL    HW148032  13.724   9.407  11.235
48731SOL    HW248033  13.635   9.326  11.327
48732SOL     OW48034  12.687   1.283   6.812
48732SOL    HW148035  12.703   1.201   6.764
48732SOL    HW248036  12.744   1.347   6.769
48733SOL     OW48037  14.354   4.078  10.795
48733SOL    HW148038  14.416   4.151  10.784
48733SOL    HW248039  14.270   4.115  10.769
48734SOL     OW48040  14.724   7.285   1.513
48734SOL    HW148041  14.683   7.370   1.522
48734SOL    HW248042  14.813   7.304   1.483
48735SOL     OW48043   3.306   4.538  14.702
48735SOL    HW148044   3.228   4.490  14.672
48735SOL    HW248045   3.272   4.619  14.738
48736SOL     OW48046  12.093   4.983   6.087
48736SOL    HW148047  12.171   4.998   6.033
48736SOL    HW248048  12.022   5.024   6.038
48737SOL     OW48049  13.470   8.914  13.959
48737SOL    HW148050  13.430   8.895  13.875
48737SOL    HW248051  13.562   8.933  13.938
48738SOL     OW48052   0.085   0.082   0.684
48738SOL    HW148053   0.020   0.021   0.648
48738SOL    HW248054   0.094   0.150   0.617
48739SOL     OW48055   4.635   4.687   8.564
48739SOL    HW148056   4.729   4.705   8.561
48739SOL    HW248057   4.595   4.774   8.555
48740SOL     OW48058   2.992   2.868  13.882
48740SOL    HW148059   3.046   2.928  13.830
48740SOL    HW248060   3.015   2.889  13.973
48741SOL     OW48061   2.044  13.427   9.653
48741SOL    HW148062   1.960  13.455   9.614
48741SOL    HW248063   2.109  13.450   9.586
48742SOL     OW48064  11.933  11.834   4.747
48742SOL    HW148065  11.968  11.923   4.746
48742SOL    HW248066  12.009  11.778   4.730
48743SOL     OW48067   3.199  11.021   5.956
48743SOL    HW148068   3.249  11.063   5.887
48743SOL    HW248069   3.228  10.930   5.955
48744SOL     OW48070   0.626   2.262   9.853
48744SOL    HW148071   0.705   2.246   9.802
48744SOL    HW248072   0.562   2.293   9.788
48745SOL     OW48073   0.255   9.855  12.458
48745SOL    HW148074   0.175   9.887  12.414
48745SOL    HW248075   0.245   9.885  12.548
48746SOL     OW48076  11.522   0.461  13.287
48746SOL    HW148077  11.475   0.483  13.206
48746SOL    HW248078  11.598   0.520  13.286
48747SOL     OW48079   0.797   8.838   6.419
48747SOL    HW148080   0.824   8.792   6.339
48747SOL    HW248081   0.870   8.825   6.480
48748SOL     OW48082   1.449   5.992   8.191
48748SOL    HW148083   1.496   6.061   8.143
48748SOL    HW248084   1.504   5.975   8.267
48749SOL     OW48085   0.674   0.083   7.539
48749SOL    HW148086   0.649  14.877   7.513
48749SOL    HW248087   0.722   0.071   7.621
48750SOL     OW48088   4.490   6.853   4.612
48750SOL    HW148089   4.473   6.944   4.589
48750SOL    HW248090   4.523   6.857   4.702
48751SOL     OW48091   0.286   2.084   0.558
48751SOL    HW148092   0.212   2.142   0.570
48751SOL    HW248093   0.340   2.126   0.491
48752SOL     OW48094   4.424   7.924   1.083
48752SOL    HW148095   4.505   7.884   1.116
48752SOL    HW248096   4.454   7.981   1.012
48753SOL     OW48097   5.325  12.410  14.146
48753SOL    HW148098   5.358  12.385  14.059
48753SOL    HW248099   5.376  12.356  14.207
48754SOL     OW48100   9.316   4.319   7.825
48754SOL    HW148101   9.229   4.278   7.822
48754SOL    HW248102   9.314   4.373   7.904
48755SOL     OW48103   6.919  12.348   1.957
48755SOL    HW148104   6.856  12.351   2.029
48755SOL    HW248105   7.002  12.374   1.996
48756SOL     OW48106  11.241   1.687  11.362
48756SOL    HW148107  11.185   1.620  11.401
48756SOL    HW248108  11.328   1.669  11.399
48757SOL     OW48109   7.149   5.221   9.412
48757SOL    HW148110   7.138   5.127   9.398
48757SOL    HW248111   7.206   5.228   9.489
48758SOL     OW48112   1.201   9.263   3.239
48758SOL    HW148113   1.187   9.195   3.173
48758SOL    HW248114   1.292   9.291   3.225
48759SOL     OW48115   6.314   2.757   6.196
48759SOL    HW148116   6.232   2.773   6.149
48759SOL    HW248117   6.287   2.741   6.286
48760SOL     OW48118   7.001   5.816   8.478
48760SOL    HW148119   6.997   5.766   8.560
48760SOL    HW248120   7.089   5.798   8.444
48761SOL     OW48121   9.914   2.749   1.489
48761SOL    HW148122  10.002   2.727   1.519
48761SOL    HW248123   9.928   2.813   1.419
48762SOL     OW48124  11.065   2.816  11.799
48762SOL    HW148125  10.978   2.855  11.807
48762SOL    HW248126  11.103   2.826  11.887
48763SOL     OW48127  10.994   4.289   4.179
48763SOL    HW148128  11.075   4.302   4.129
48763SOL    HW248129  10.925   4.292   4.113
48764SOL     OW48130  12.117   4.463   0.319
48764SOL    HW148131  12.182   4.477   0.251
48764SOL    HW248132  12.056   4.398   0.283
48765SOL     OW48133   5.497   7.718  12.239
48765SOL    HW148134   5.519   7.639  12.289
48765SOL    HW248135   5.402   7.722  12.242
48766SOL     OW48136   9.292   4.414   1.728
48766SOL    HW148137   9.313   4.356   1.802
48766SOL    HW248138   9.301   4.358   1.651
48767SOL     OW48139  13.402   3.365  14.294
48767SOL    HW148140  13.357   3.345  14.212
48767SOL    HW248141  13.373   3.297  14.355
48768SOL     OW48142   1.865  14.328   6.590
48768SOL    HW148143   1.852  14.273   6.512
48768SOL    HW248144   1.777  14.353   6.616
48769SOL     OW48145   7.976   4.935  11.177
48769SOL    HW148146   8.007   4.924  11.088
48769SOL    HW248147   7.922   4.858  11.194
48770SOL     OW48148   2.503   3.608   3.254
48770SOL    HW148149   2.460   3.693   3.250
48770SOL    HW248150   2.532   3.591   3.164
48771SOL     OW48151   9.424   8.555   8.079
48771SOL    HW148152   9.438   8.481   8.138
48771SOL    HW248153   9.482   8.538   8.005
48772SOL     OW48154   3.775  14.357   8.230
48772SOL    HW148155   3.862  14.331   8.260
48772SOL    HW248156   3.789  14.390   8.141
48773SOL     OW48157   4.204   2.846  12.056
48773SOL    HW148158   4.246   2.760  12.065
48773SOL    HW248159   4.256   2.892  11.990
48774SOL     OW48160   3.568   4.777   3.862
48774SOL    HW148161   3.547   4.729   3.942
48774SOL    HW248162   3.622   4.716   3.811
48775SOL     OW48163   7.563   3.625  10.762
48775SOL    HW148164   7.528   3.698  10.814
48775SOL    HW248165   7.621   3.666  10.698
48776SOL     OW48166   7.250  13.752  13.802
48776SOL    HW148167   7.213  13.729  13.887
48776SOL    HW248168   7.202  13.698  13.739
48777SOL     OW48169   3.714   6.137   2.586
48777SOL    HW148170   3.676   6.188   2.657
48777SOL    HW248171   3.800   6.177   2.572
48778SOL     OW48172   2.860   4.560   5.091
48778SOL    HW148173   2.854   4.522   5.003
48778SOL    HW248174   2.806   4.503   5.146
48779SOL     OW48175   7.683   0.398  10.497
48779SOL    HW148176   7.714   0.483  10.529
48779SOL    HW248177   7.703   0.399  10.404
48780SOL     OW48178  14.678  11.324   3.385
48780SOL    HW148179  14.768  11.298   3.363
48780SOL    HW248180  14.634  11.242   3.406
48781SOL     OW48181  14.344   5.638   4.555
48781SOL    HW148182  14.428   5.671   4.522
48781SOL    HW248183  14.358   5.628   4.649
48782SOL     OW48184  13.614   8.664   7.046
48782SOL    HW148185  13.708   8.669   7.030
48782SOL    HW248186  13.576   8.639   6.962
48783SOL     OW48187   2.918   2.594  14.858
48783SOL    HW148188   2.873   2.556  14.782
48783SOL    HW248189   3.010   2.576  14.843
48784SOL     OW48190   2.069   5.386  13.536
48784SOL    HW148191   1.999   5.390  13.471
48784SOL    HW248192   2.088   5.293  13.545
48785SOL     OW48193   3.750  14.832   7.524
48785SOL    HW148194   3.713  14.826   7.612
48785SOL    HW248195   3.808   0.027   7.527
48786SOL     OW48196   5.244  13.923   9.526
48786SOL    HW148197   5.183  13.944   9.455
48786SOL    HW248198   5.292  14.005   9.540
48787SOL     OW48199   5.510   8.559   1.580
48787SOL    HW148200   5.420   8.590   1.576
48787SOL    HW248201   5.504   8.476   1.629
48788SOL     OW48202   5.028  13.625  12.593
48788SOL    HW148203   5.003  13.536  12.615
48788SOL    HW248204   5.044  13.623  12.499
48789SOL     OW48205  10.923   8.487   2.142
48789SOL    HW148206  11.001   8.467   2.194
48789SOL    HW248207  10.872   8.406   2.142
48790SOL     OW48208  13.547  14.876  12.796
48790SOL    HW148209  13.566  14.817  12.723
48790SOL    HW248210  13.621   0.054  12.799
48791SOL     OW48211   0.327   3.346   4.753
48791SOL    HW148212   0.368   3.356   4.667
48791SOL    HW248213   0.304   3.436   4.779
48792SOL     OW48214   9.071  10.706   3.506
48792SOL    HW148215   8.990  10.684   3.461
48792SOL    HW248216   9.121  10.757   3.443
48793SOL     OW48217  14.111  12.578   2.337
48793SOL    HW148218  14.035  12.636   2.345
48793SOL    HW248219  14.181  12.634   2.303
48794SOL     OW48220   3.400   5.455   2.630
48794SOL    HW148221   3.369   5.522   2.569
48794SOL    HW248222   3.483   5.425   2.593
48795SOL     OW48223   6.434  10.385   5.427
48795SOL    HW148224   6.457  10.433   5.506
48795SOL    HW248225   6.428  10.294   5.455
48796SOL     OW48226  14.055   4.151   5.235
48796SOL    HW148227  14.025   4.081   5.293
48796SOL    HW248228  13.975   4.201   5.216
48797SOL     OW48229  13.251  13.407  13.474
48797SOL    HW148230  13.250  13.457  13.392
48797SOL    HW248231  13.261  13.316  13.447
48798SOL     OW48232  11.068   6.562   8.640
48798SOL    HW148233  11.017   6.531   8.715
48798SOL    HW248234  11.139   6.498   8.631
48799SOL     OW48235   7.423   4.731   9.083
48799SOL    HW148236   7.502   4.715   9.032
48799SOL    HW248237   7.385   4.645   9.098
48800SOL     OW48238   7.153  14.818  11.362
48800SOL    HW148239   7.087  14.756  11.392
48800SOL    HW248240   7.214  14.825  11.436
48801SOL     OW48241   2.926   0.824  10.805
48801SOL    HW148242   2.836   0.837  10.833
48801SOL    HW248243   2.954   0.910  10.772
48802SOL     OW48244   3.281   3.044   4.888
48802SOL    HW148245   3.293   3.133   4.919
48802SOL    HW248246   3.363   3.000   4.908
48803SOL     OW48247   1.355   8.530   4.065
48803SOL    HW148248   1.331   8.519   3.973
48803SOL    HW248249   1.284   8.585   4.101
48804SOL     OW48250   5.290   9.700  10.565
48804SOL    HW148251   5.268   9.761  10.635
48804SOL    HW248252   5.216   9.704  10.505
48805SOL     OW48253   4.030  12.658  10.650
48805SOL    HW148254   3.985  12.743  10.662
48805SOL    HW248255   4.123  12.680  10.650
48806SOL     OW48256  11.657   8.271   9.997
48806SOL    HW148257  11.643   8.349  10.050
48806SOL    HW248258  11.651   8.198  10.059
48807SOL     OW48259   3.814  11.710  11.886
48807SOL    HW148260   3.879  11.707  11.955
48807SOL    HW248261   3.744  11.766  11.921
48808SOL     OW48262  14.615   2.304  11.329
48808SOL    HW148263  14.571   2.292  11.245
48808SOL    HW248264  14.544   2.324  11.390
48809SOL     OW48265   7.417   3.041   3.607
48809SOL    HW148266   7.395   3.113   3.665
48809SOL    HW248267   7.422   2.964   3.664
48810SOL     OW48268   5.957  13.131   2.525
48810SOL    HW148269   6.044  13.093   2.533
48810SOL    HW248270   5.898  13.055   2.526
48811SOL     OW48271   6.926  10.859   7.585
48811SOL    HW148272   6.991  10.834   7.520
48811SOL    HW248273   6.976  10.872   7.666
48812SOL     OW48274  11.040   3.232   8.761
48812SOL    HW148275  10.983   3.307   8.779
48812SOL    HW248276  11.039   3.181   8.842
48813SOL     OW48277   0.955   3.519  10.903
48813SOL    HW148278   1.010   3.443  10.922
48813SOL    HW248279   0.903   3.492  10.826
48814SOL     OW48280   7.543   7.795   9.233
48814SOL    HW148281   7.498   7.810   9.316
48814SOL    HW248282   7.565   7.882   9.201
48815SOL     OW48283   0.453   9.745   6.490
48815SOL    HW148284   0.490   9.832   6.478
48815SOL    HW248285   0.387   9.737   6.421
48816SOL     OW48286   0.358   2.959  13.811
48816SOL    HW148287   0.288   2.898  13.788
48816SOL    HW248288   0.364   3.018  13.736
48817SOL     OW48289   1.709  11.674   2.143
48817SOL    HW148290   1.695  11.651   2.235
48817SOL    HW248291   1.776  11.742   2.145
48818SOL     OW48292  14.515   2.513   8.900
48818SOL    HW148293  14.463   2.518   8.819
48818SOL    HW248294  14.479   2.582   8.955
48819SOL     OW48295  11.092   1.740   9.111
48819SOL    HW148296  11.036   1.770   9.183
48819SOL    HW248297  11.118   1.651   9.137
48820SOL     OW48298  11.568   0.044  11.105
48820SOL    HW148299  11.553   0.102  11.180
48820SOL    HW248300  11.647   0.078  11.064
48821SOL     OW48301   3.286   8.267  12.283
48821SOL    HW148302   3.368   8.300  12.318
48821SOL    HW248303   3.271   8.185  12.330
48822SOL     OW48304   3.884  11.157   2.481
48822SOL    HW148305   3.857  11.163   2.390
48822SOL    HW248306   3.946  11.084   2.483
48823SOL     OW48307   6.264   3.461  13.076
48823SOL    HW148308   6.271   3.394  13.145
48823SOL    HW248309   6.352   3.497  13.069
48824SOL     OW48310   9.615   8.916   7.997
48824SOL    HW148311   9.645   8.862   8.070
48824SOL    HW248312   9.528   8.945   8.024
48825SOL     OW48313   1.894   6.610  13.641
48825SOL    HW148314   1.909   6.695  13.682
48825SOL    HW248315   1.849   6.631  13.559
48826SOL     OW48316  12.612  10.311  14.298
48826SOL    HW148317  12.645  10.388  14.252
48826SOL    HW248318  12.655  10.237  14.255
48827SOL     OW48319   6.139   1.822  11.073
48827SOL    HW148320   6.179   1.875  11.142
48827SOL    HW248321   6.213   1.789  11.021
48828SOL     OW48322  14.387   2.420   6.871
48828SOL    HW148323  14.436   2.483   6.924
48828SOL    HW248324  14.443   2.402   6.796
48829SOL     OW48325   0.522   9.735   8.149
48829SOL    HW148326   0.453   9.740   8.214
48829SOL    HW248327   0.589   9.679   8.188
48830SOL     OW48328   7.850   8.697   7.725
48830SOL    HW148329   7.864   8.603   7.729
48830SOL    HW248330   7.933   8.733   7.693
48831SOL     OW48331   6.918  14.179  14.555
48831SOL    HW148332   6.961  14.254  14.513
48831SOL    HW248333   6.883  14.215  14.637
48832SOL     OW48334  11.758   1.362  13.354
48832SOL    HW148335  11.815   1.439  13.363
48832SOL    HW248336  11.669   1.398  13.358
48833SOL     OW48337   2.459  10.005   5.272
48833SOL    HW148338   2.396  10.060   5.225
48833SOL    HW248339   2.544  10.046   5.253
48834SOL     OW48340   9.774   5.119   7.038
48834SOL    HW148341   9.867   5.111   7.061
48834SOL    HW248342   9.753   5.211   7.053
48835SOL     OW48343  12.048  10.153   5.666
48835SOL    HW148344  12.009  10.194   5.743
48835SOL    HW248345  12.019  10.062   5.670
48836SOL     OW48346  14.025   3.373   4.613
48836SOL    HW148347  14.036   3.465   4.588
48836SOL    HW248348  13.932   3.356   4.602
48837SOL     OW48349   0.835   5.332   1.023
48837SOL    HW148350   0.861   5.400   0.961
48837SOL    HW248351   0.757   5.293   0.985
48838SOL     OW48352   4.535   9.481   5.310
48838SOL    HW148353   4.516   9.422   5.237
48838SOL    HW248354   4.470   9.551   5.302
48839SOL     OW48355   8.091   7.472   0.584
48839SOL    HW148356   8.167   7.422   0.554
48839SOL    HW248357   8.125   7.560   0.598
48840SOL     OW48358   5.018   0.758  12.779
48840SOL    HW148359   5.044   0.762  12.871
48840SOL    HW248360   5.091   0.797  12.731
48841SOL     OW48361   4.815   3.793   5.365
48841SOL    HW148362   4.841   3.777   5.456
48841SOL    HW248363   4.864   3.872   5.340
48842SOL     OW48364   7.607  10.120   2.080
48842SOL    HW148365   7.577  10.108   1.990
48842SOL    HW248366   7.702  10.130   2.073
48843SOL     OW48367   8.162   3.219   5.776
48843SOL    HW148368   8.167   3.126   5.797
48843SOL    HW248369   8.090   3.252   5.830
48844SOL     OW48370  12.946   2.901  12.544
48844SOL    HW148371  12.992   2.823  12.575
48844SOL    HW248372  13.002   2.935  12.474
48845SOL     OW48373   7.776   0.563  14.588
48845SOL    HW148374   7.772   0.570  14.683
48845SOL    HW248375   7.834   0.634  14.561
48846SOL     OW48376   6.240  12.922   5.214
48846SOL    HW148377   6.191  12.969   5.281
48846SOL    HW248378   6.294  12.989   5.172
48847SOL     OW48379   3.650   0.903   6.929
48847SOL    HW148380   3.568   0.858   6.950
48847SOL    HW248381   3.701   0.898   7.011
48848SOL     OW48382   6.746  11.286   0.610
48848SOL    HW148383   6.791  11.370   0.620
48848SOL    HW248384   6.653  11.309   0.606
48849SOL     OW48385  10.514   1.197   6.825
48849SOL    HW148386  10.448   1.266   6.816
48849SOL    HW248387  10.500   1.141   6.749
48850SOL     OW48388   5.361   5.909   6.351
48850SOL    HW148389   5.344   5.994   6.311
48850SOL    HW248390   5.278   5.883   6.389
48851SOL     OW48391  13.926   5.650   4.829
48851SOL    HW148392  14.010   5.612   4.857
48851SOL    HW248393  13.860   5.604   4.881
48852SOL     OW48394   7.483   7.011  14.574
48852SOL    HW148395   7.468   7.102  14.599
48852SOL    HW248396   7.440   7.001  14.489
48853SOL     OW48397   2.354   1.888   7.772
48853SOL    HW148398   2.322   1.824   7.836
48853SOL    HW248399   2.274   1.920   7.730
48854SOL     OW48400   6.105   4.723   6.070
48854SOL    HW148401   6.152   4.640   6.058
48854SOL    HW248402   6.083   4.725   6.163
48855SOL     OW48403   4.354   1.911   3.850
48855SOL    HW148404   4.373   1.925   3.943
48855SOL    HW248405   4.366   1.997   3.810
48856SOL     OW48406   8.635   8.393   7.330
48856SOL    HW148407   8.601   8.476   7.362
48856SOL    HW248408   8.726   8.411   7.307
48857SOL     OW48409   1.924   3.892  13.937
48857SOL    HW148410   1.884   3.903  13.850
48857SOL    HW248411   2.005   3.943  13.932
48858SOL     OW48412   1.547   5.758   0.753
48858SOL    HW148413   1.535   5.811   0.832
48858SOL    HW248414   1.486   5.796   0.689
48859SOL     OW48415   4.211  10.455   1.829
48859SOL    HW148416   4.194  10.399   1.753
48859SOL    HW248417   4.250  10.534   1.792
48860SOL     OW48418  11.051   1.464   6.479
48860SOL    HW148419  10.978   1.486   6.537
48860SOL    HW248420  11.010   1.417   6.406
48861SOL     OW48421   8.745   1.286   6.812
48861SOL    HW148422   8.695   1.367   6.802
48861SOL    HW248423   8.695   1.234   6.875
48862SOL     OW48424   7.430  11.284   3.481
48862SOL    HW148425   7.463  11.255   3.395
48862SOL    HW248426   7.404  11.203   3.525
48863SOL     OW48427   2.984   2.651   2.464
48863SOL    HW148428   2.923   2.586   2.429
48863SOL    HW248429   2.937   2.692   2.537
48864SOL     OW48430   3.614   6.328   3.000
48864SOL    HW148431   3.630   6.238   3.029
48864SOL    HW248432   3.583   6.318   2.910
48865SOL     OW48433   4.155   3.395   0.540
48865SOL    HW148434   4.085   3.443   0.496
48865SOL    HW248435   4.220   3.378   0.472
48866SOL     OW48436  12.827   7.785   0.401
48866SOL    HW148437  12.755   7.849   0.398
48866SOL    HW248438  12.784   7.700   0.392
48867SOL     OW48439  13.473  13.978   6.568
48867SOL    HW148440  13.549  14.036   6.569
48867SOL    HW248441  13.502  13.900   6.614
48868SOL     OW48442   0.678  10.930   9.188
48868SOL    HW148443   0.741  10.987   9.232
48868SOL    HW248444   0.658  10.863   9.253
48869SOL     OW48445  14.391   8.298  13.552
48869SOL    HW148446  14.425   8.377  13.510
48869SOL    HW248447  14.361   8.243  13.479
48870SOL     OW48448  14.217  11.213   0.050
48870SOL    HW148449  14.158  11.160   0.103
48870SOL    HW248450  14.184  11.302   0.059
48871SOL     OW48451   7.330   5.217   9.625
48871SOL    HW148452   7.349   5.256   9.710
48871SOL    HW248453   7.414   5.217   9.579
48872SOL     OW48454  10.687   6.791   9.528
48872SOL    HW148455  10.719   6.790   9.618
48872SOL    HW248456  10.750   6.738   9.480
48873SOL     OW48457   9.624   5.160   1.678
48873SOL    HW148458   9.662   5.083   1.719
48873SOL    HW248459   9.570   5.200   1.747
48874SOL     OW48460   3.200   1.294   6.473
48874SOL    HW148461   3.182   1.304   6.566
48874SOL    HW248462   3.174   1.205   6.452
48875SOL     OW48463   9.456   3.888   8.439
48875SOL    HW148464   9.507   3.968   8.456
48875SOL    HW248465   9.516   3.817   8.462
48876SOL     OW48466   8.432   4.590   0.887
48876SOL    HW148467   8.385   4.646   0.949
48876SOL    HW248468   8.387   4.604   0.803
48877SOL     OW48469  11.786  10.821  10.437
48877SOL    HW148470  11.856  10.860  10.489
48877SOL    HW248471  11.706  10.858  10.473
48878SOL     OW48472   4.156   2.773  14.851
48878SOL    HW148473   4.201   2.691  14.831
48878SOL    HW248474   4.120   2.760   0.057
48879SOL     OW48475   6.858   8.480   7.730
48879SOL    HW148476   6.766   8.480   7.703
48879SOL    HW248477   6.906   8.445   7.655
48880SOL     OW48478   6.424   9.943   3.868
48880SOL    HW148479   6.426   9.985   3.954
48880SOL    HW248480   6.338   9.903   3.862
48881SOL     OW48481   8.260   6.559   0.931
48881SOL    HW148482   8.168   6.580   0.914
48881SOL    HW248483   8.264   6.463   0.924
48882SOL     OW48484  14.865  10.604  13.288
48882SOL    HW148485  14.833  10.690  13.260
48882SOL    HW248486  14.867  10.610  13.384
48883SOL     OW48487  10.610   2.235  14.857
48883SOL    HW148488  10.520   2.209  14.836
48883SOL    HW248489  10.619   2.323  14.820
48884SOL     OW48490   3.235   1.580  11.665
48884SOL    HW148491   3.164   1.563  11.604
48884SOL    HW248492   3.193   1.585  11.751
48885SOL     OW48493   2.276   9.614  14.470
48885SOL    HW148494   2.304   9.656  14.388
48885SOL    HW248495   2.324   9.531  14.470
48886SOL     OW48496  11.631   2.646  12.961
48886SOL    HW148497  11.676   2.561  12.964
48886SOL    HW248498  11.696   2.709  12.990
48887SOL     OW48499  12.873   8.550   9.255
48887SOL    HW148500  12.828   8.466   9.241
48887SOL    HW248501  12.872   8.593   9.170
48888SOL     OW48502  11.272   8.725   2.586
48888SOL    HW148503  11.306   8.644   2.623
48888SOL    HW248504  11.209   8.756   2.652
48889SOL     OW48505   7.249   0.885  14.567
48889SOL    HW148506   7.190   0.810  14.561
48889SOL    HW248507   7.337   0.847  14.567
48890SOL     OW48508  14.870  11.375   9.345
48890SOL    HW148509   0.001  11.280   9.354
48890SOL    HW248510   0.002  11.392   9.252
48891SOL     OW48511  12.651  12.776   7.754
48891SOL    HW148512  12.633  12.695   7.802
48891SOL    HW248513  12.742  12.769   7.727
48892SOL     OW48514  14.225   7.949  10.392
48892SOL    HW148515  14.291   8.018  10.399
48892SOL    HW248516  14.165   7.967  10.464
48893SOL     OW48517   1.539   3.026  11.917
48893SOL    HW148518   1.593   3.081  11.973
48893SOL    HW248519   1.456   3.073  11.909
48894SOL     OW48520  14.255   9.668  14.600
48894SOL    HW148521  14.183   9.726  14.574
48894SOL    HW248522  14.326   9.690  14.541
48895SOL     OW48523   5.459  12.882   1.919
48895SOL    HW148524   5.378  12.832   1.909
48895SOL    HW248525   5.431  12.973   1.916
48896SOL     OW48526  14.003  11.218   8.116
48896SOL    HW148527  13.911  11.243   8.108
48896SOL    HW248528  14.017  11.157   8.043
48897SOL     OW48529   0.158   1.873   3.216
48897SOL    HW148530   0.251   1.895   3.208
48897SOL    HW248531   0.157   1.780   3.237
48898SOL     OW48532   8.374   8.568  14.204
48898SOL    HW148533   8.348   8.498  14.265
48898SOL    HW248534   8.407   8.638  14.261
48899SOL     OW48535   2.682   1.714   7.720
48899SOL    HW148536   2.680   1.705   7.624
48899SOL    HW248537   2.649   1.802   7.736
48900SOL     OW48538   8.808   5.714  10.850
48900SOL    HW148539   8.822   5.676  10.937
48900SOL    HW248540   8.735   5.664  10.814
48901SOL     OW48541   0.244   8.709   5.973
48901SOL    HW148542   0.339   8.702   5.983
48901SOL    HW248543   0.215   8.760   6.048
48902SOL     OW48544   3.041   0.081  12.747
48902SOL    HW148545   2.991   0.021  12.691
48902SOL    HW248546   2.978   0.109  12.814
48903SOL     OW48547   6.897   3.004  14.485
48903SOL    HW148548   6.978   3.047  14.460
48903SOL    HW248549   6.872   3.045  14.568
48904SOL     OW48550   6.714   0.032   9.850
48904SOL    HW148551   6.720   0.042   9.755
48904SOL    HW248552   6.626   0.063   9.872
48905SOL     OW48553   8.158  12.858  10.909
48905SOL    HW148554   8.122  12.867  10.821
48905SOL    HW248555   8.133  12.770  10.936
48906SOL     OW48556   3.401   7.043   5.869
48906SOL    HW148557   3.345   7.054   5.946
48906SOL    HW248558   3.360   6.972   5.819
48907SOL     OW48559   8.467   5.688   4.900
48907SOL    HW148560   8.460   5.593   4.915
48907SOL    HW248561   8.493   5.723   4.985
48908SOL     OW48562   6.385   2.137  10.574
48908SOL    HW148563   6.391   2.156  10.480
48908SOL    HW248564   6.454   2.072  10.589
48909SOL     OW48565   2.302  13.977   3.933
48909SOL    HW148566   2.317  13.955   4.025
48909SOL    HW248567   2.388  13.969   3.892
48910SOL     OW48568  12.914   2.278   4.205
48910SOL    HW148569  12.986   2.327   4.166
48910SOL    HW248570  12.845   2.280   4.138
48911SOL     OW48571   8.801   0.765   8.331
48911SOL    HW148572   8.797   0.758   8.426
48911SOL    HW248573   8.738   0.833   8.309
48912SOL     OW48574  11.902   9.256   0.082
48912SOL    HW148575  11.861   9.326   0.133
48912SOL    HW248576  11.840   9.183   0.088
48913SOL     OW48577  13.955   1.740  11.236
48913SOL    HW148578  13.977   1.648  11.249
48913SOL    HW248579  13.944   1.749  11.141
48914SOL     OW48580   5.947   4.712   4.366
48914SOL    HW148581   5.919   4.791   4.320
48914SOL    HW248582   5.934   4.732   4.458
48915SOL     OW48583  10.651  11.806   3.488
48915SOL    HW148584  10.582  11.868   3.465
48915SOL    HW248585  10.649  11.741   3.418
48916SOL     OW48586   4.285  12.882   5.832
48916SOL    HW148587   4.339  12.918   5.762
48916SOL    HW248588   4.329  12.800   5.856
48917SOL     OW48589  12.150  10.862   0.434
48917SOL    HW148590  12.144  10.917   0.356
48917SOL    HW248591  12.126  10.921   0.506
48918SOL     OW48592   9.603  12.114   1.563
48918SOL    HW148593   9.509  12.118   1.577
48918SOL    HW248594   9.620  12.179   1.494
48919SOL     OW48595   3.312  13.634   6.653
48919SOL    HW148596   3.227  13.628   6.609
48919SOL    HW248597   3.296  13.693   6.727
48920SOL     OW48598   5.763   2.446   5.627
48920SOL    HW148599   5.674   2.458   5.593
48920SOL    HW248600   5.766   2.354   5.654
48921SOL     OW48601  12.146   3.520  12.777
48921SOL    HW148602  12.151   3.616  12.773
48921SOL    HW248603  12.054   3.502  12.799
48922SOL     OW48604  12.025   9.761  10.591
48922SOL    HW148605  12.039   9.748  10.498
48922SOL    HW248606  12.013   9.672  10.626
48923SOL     OW48607   5.542   1.783   6.023
48923SOL    HW148608   5.490   1.849   6.069
48923SOL    HW248609   5.492   1.702   6.034
48924SOL     OW48610   7.201   8.805   4.972
48924SOL    HW148611   7.264   8.762   5.030
48924SOL    HW248612   7.150   8.862   5.030
48925SOL     OW48613   4.624   6.249   5.998
48925SOL    HW148614   4.551   6.233   5.938
48925SOL    HW248615   4.702   6.223   5.949
48926SOL     OW48616  10.461   6.750   2.569
48926SOL    HW148617  10.489   6.816   2.632
48926SOL    HW248618  10.502   6.669   2.599
48927SOL     OW48619  14.331  13.029   8.116
48927SOL    HW148620  14.253  13.049   8.167
48927SOL    HW248621  14.305  12.953   8.063
48928SOL     OW48622  10.254  13.452   6.678
48928SOL    HW148623  10.229  13.377   6.625
48928SOL    HW248624  10.174  13.504   6.688
48929SOL     OW48625  14.788   8.359   4.779
48929SOL    HW148626  14.805   8.440   4.826
48929SOL    HW248627  14.841   8.293   4.824
48930SOL     OW48628   9.589   6.548  13.596
48930SOL    HW148629   9.652   6.515  13.659
48930SOL    HW248630   9.524   6.595  13.649
48931SOL     OW48631   1.756   4.070   1.529
48931SOL    HW148632   1.778   3.993   1.581
48931SOL    HW248633   1.839   4.096   1.488
48932SOL     OW48634   1.877   0.612   3.119
48932SOL    HW148635   1.789   0.574   3.120
48932SOL    HW248636   1.929   0.553   3.065
48933SOL     OW48637  14.265   7.806   1.851
48933SOL    HW148638  14.229   7.802   1.940
48933SOL    HW248639  14.308   7.722   1.839
48934SOL     OW48640  14.553   0.049   2.827
48934SOL    HW148641  14.601  14.872   2.886
48934SOL    HW248642  14.558   0.006   2.742
48935SOL     OW48643   2.857  12.652  10.713
48935SOL    HW148644   2.920  12.615  10.651
48935SOL    HW248645   2.910  12.692  10.781
48936SOL     OW48646   0.288  12.493   7.310
48936SOL    HW148647   0.269  12.562   7.247
48936SOL    HW248648   0.383  12.482   7.307
48937SOL     OW48649   0.012   2.929  14.087
48937SOL    HW148650   0.005   3.020  14.115
48937SOL    HW248651  14.836   2.923  14.011
48938SOL     OW48652   9.232   2.330   5.336
48938SOL    HW148653   9.294   2.383   5.286
48938SOL    HW248654   9.287   2.276   5.393
48939SOL     OW48655   2.524  13.217  14.448
48939SOL    HW148656   2.608  13.174  14.461
48939SOL    HW248657   2.476  13.160  14.388
48940SOL     OW48658   1.249   7.414   6.703
48940SOL    HW148659   1.224   7.344   6.644
48940SOL    HW248660   1.198   7.398   6.783
48941SOL     OW48661   1.757  12.789   7.942
48941SOL    HW148662   1.753  12.799   8.037
48941SOL    HW248663   1.706  12.863   7.908
48942SOL     OW48664   8.553   3.686  11.793
48942SOL    HW148665   8.556   3.613  11.855
48942SOL    HW248666   8.629   3.673  11.737
48943SOL     OW48667   5.154   7.666   8.492
48943SOL    HW148668   5.108   7.586   8.517
48943SOL    HW248669   5.201   7.642   8.412
48944SOL     OW48670   1.075   5.380   5.179
48944SOL    HW148671   1.121   5.299   5.157
48944SOL    HW248672   1.124   5.449   5.134
48945SOL     OW48673   4.843  13.259  10.383
48945SOL    HW148674   4.902  13.321  10.426
48945SOL    HW248675   4.852  13.179  10.434
48946SOL     OW48676  12.520   7.584   9.994
48946SOL    HW148677  12.510   7.660  10.052
48946SOL    HW248678  12.611   7.559  10.004
48947SOL     OW48679  11.910   0.311   3.127
48947SOL    HW148680  11.872   0.242   3.074
48947SOL    HW248681  11.837   0.347   3.178
48948SOL     OW48682   1.107   1.599  11.749
48948SOL    HW148683   1.051   1.562  11.681
48948SOL    HW248684   1.186   1.628  11.703
48949SOL     OW48685   6.104  10.120   5.564
48949SOL    HW148686   6.015  10.156   5.572
48949SOL    HW248687   6.132  10.145   5.476
48950SOL     OW48688  12.957  10.407   0.322
48950SOL    HW148689  12.882  10.402   0.381
48950SOL    HW248690  12.931  10.470   0.254
48951SOL     OW48691   7.675  10.225   8.963
48951SOL    HW148692   7.717  10.184   9.039
48951SOL    HW248693   7.720  10.186   8.887
48952SOL     OW48694  13.442   5.641  10.733
48952SOL    HW148695  13.347   5.634  10.728
48952SOL    HW248696  13.475   5.561  10.691
48953SOL     OW48697   0.620   4.164   3.068
48953SOL    HW148698   0.620   4.181   2.974
48953SOL    HW248699   0.533   4.130   3.087
48954SOL     OW48700   3.438  10.898  12.497
48954SOL    HW148701   3.499  10.829  12.523
48954SOL    HW248702   3.381  10.910  12.574
48955SOL     OW48703  13.111   5.445   6.272
48955SOL    HW148704  13.023   5.427   6.307
48955SOL    HW248705  13.155   5.492   6.342
48956SOL     OW48706   4.339   2.381   8.196
48956SOL    HW148707   4.386   2.414   8.120
48956SOL    HW248708   4.301   2.298   8.167
48957SOL     OW48709   5.717  13.888  14.462
48957SOL    HW148710   5.622  13.879  14.454
48957SOL    HW248711   5.752  13.811  14.419
48958SOL     OW48712   7.924  13.252  12.555
48958SOL    HW148713   7.923  13.222  12.464
48958SOL    HW248714   7.832  13.268  12.576
48959SOL     OW48715   0.161   7.680  10.850
48959SOL    HW148716   0.072   7.714  10.860
48959SOL    HW248717   0.170   7.613  10.918
48960SOL     OW48718   0.776  11.339  12.417
48960SOL    HW148719   0.709  11.315  12.353
48960SOL    HW248720   0.854  11.290  12.390
48961SOL     OW48721   9.721   6.147  14.267
48961SOL    HW148722   9.655   6.163  14.334
48961SOL    HW248723   9.709   6.055  14.243
48962SOL     OW48724   7.994   3.193   8.177
48962SOL    HW148725   8.014   3.197   8.084
48962SOL    HW248726   8.074   3.223   8.220
48963SOL     OW48727   9.587  12.948   4.650
48963SOL    HW148728   9.619  12.858   4.662
48963SOL    HW248729   9.492  12.940   4.656
48964SOL     OW48730  11.111   7.755   9.856
48964SOL    HW148731  11.039   7.728   9.799
48964SOL    HW248732  11.131   7.844   9.828
48965SOL     OW48733  13.270  12.240   4.362
48965SOL    HW148734  13.255  12.319   4.311
48965SOL    HW248735  13.182  12.206   4.380
48966SOL     OW48736   9.011   2.219   4.209
48966SOL    HW148737   9.088   2.249   4.159
48966SOL    HW248738   8.983   2.140   4.164
48967SOL     OW48739   8.097   9.855   1.783
48967SOL    HW148740   8.125   9.945   1.796
48967SOL    HW248741   8.093   9.818   1.872
48968SOL     OW48742  11.678   9.124   1.491
48968SOL    HW148743  11.755   9.170   1.525
48968SOL    HW248744  11.629   9.191   1.444
48969SOL     OW48745   5.322  14.142   0.249
48969SOL    HW148746   5.404  14.192   0.239
48969SOL    HW248747   5.290  14.130   0.160
48970SOL     OW48748   7.739   1.356   2.199
48970SOL    HW148749   7.760   1.383   2.109
48970SOL    HW248750   7.793   1.413   2.254
48971SOL     OW48751  12.248   8.268   3.535
48971SOL    HW148752  12.267   8.295   3.625
48971SOL    HW248753  12.330   8.284   3.488
48972SOL     OW48754   4.581   2.661  14.784
48972SOL    HW148755   4.605   2.654  14.877
48972SOL    HW248756   4.496   2.617  14.778
48973SOL     OW48757  14.780   8.527   7.329
48973SOL    HW148758  14.711   8.511   7.265
48973SOL    HW248759  14.797   8.440   7.367
48974SOL     OW48760  11.608   1.819   3.180
48974SOL    HW148761  11.687   1.790   3.226
48974SOL    HW248762  11.581   1.744   3.127
48975SOL     OW48763   9.308  12.475   8.345
48975SOL    HW148764   9.279  12.443   8.259
48975SOL    HW248765   9.383  12.531   8.326
48976SOL     OW48766  10.727  11.327  13.138
48976SOL    HW148767  10.706  11.247  13.185
48976SOL    HW248768  10.686  11.316  13.052
48977SOL     OW48769   4.706  13.384   3.436
48977SOL    HW148770   4.620  13.423   3.456
48977SOL    HW248771   4.697  13.292   3.461
48978SOL     OW48772   5.643   3.702  10.293
48978SOL    HW148773   5.658   3.779  10.348
48978SOL    HW248774   5.623   3.737  10.207
48979SOL     OW48775   7.535   2.594   5.698
48979SOL    HW148776   7.529   2.579   5.604
48979SOL    HW248777   7.532   2.689   5.708
48980SOL     OW48778  10.352   8.743   5.875
48980SOL    HW148779  10.415   8.784   5.935
48980SOL    HW248780  10.315   8.815   5.825
48981SOL     OW48781   5.491   4.254  10.014
48981SOL    HW148782   5.453   4.172   9.983
48981SOL    HW248783   5.586   4.243  10.003
48982SOL     OW48784   3.299   6.619   0.243
48982SOL    HW148785   3.208   6.593   0.260
48982SOL    HW248786   3.292   6.697   0.189
48983SOL     OW48787  11.649   1.598   5.544
48983SOL    HW148788  11.669   1.615   5.636
48983SOL    HW248789  11.594   1.520   5.545
48984SOL     OW48790  11.327   0.567  11.954
48984SOL    HW148791  11.239   0.590  11.984
48984SOL    HW248792  11.327   0.589  11.861
48985SOL     OW48793  12.664  12.705   6.157
48985SOL    HW148794  12.580  12.688   6.200
48985SOL    HW248795  12.710  12.621   6.159
48986SOL     OW48796  10.270   4.195  12.616
48986SOL    HW148797  10.252   4.278  12.661
48986SOL    HW248798  10.237   4.208  12.527
48987SOL     OW48799   7.273   0.091  12.027
48987SOL    HW148800   7.250   0.164  11.969
48987SOL    HW248801   7.204   0.026  12.012
48988SOL     OW48802  14.803   3.283   8.756
48988SOL    HW148803  14.768   3.324   8.676
48988SOL    HW248804  14.783   3.190   8.745
48989SOL     OW48805   6.643   6.474   4.596
48989SOL    HW148806   6.600   6.559   4.613
48989SOL    HW248807   6.703   6.492   4.523
48990SOL     OW48808   8.858   0.005  13.218
48990SOL    HW148809   8.950   0.031  13.228
48990SOL    HW248810   8.862  14.795  13.190
48991SOL     OW48811   3.277  11.776   0.009
48991SOL    HW148812   3.228  11.826  14.826
48991SOL    HW248813   3.226  11.697   0.023
48992SOL     OW48814   1.973  12.322   6.834
48992SOL    HW148815   1.923  12.303   6.755
48992SOL    HW248816   1.920  12.387   6.880
48993SOL     OW48817   6.130   5.291   8.961
48993SOL    HW148818   6.110   5.200   8.981
48993SOL    HW248819   6.216   5.288   8.918
48994SOL     OW48820   6.272   2.192   0.250
48994SOL    HW148821   6.228   2.260   0.302
48994SOL    HW248822   6.352   2.174   0.298
48995SOL     OW48823   2.425  12.380   0.609
48995SOL    HW148824   2.467  12.301   0.575
48995SOL    HW248825   2.429  12.371   0.704
48996SOL     OW48826   2.170   1.798   6.383
48996SOL    HW148827   2.262   1.783   6.406
48996SOL    HW248828   2.125   1.806   6.466
48997SOL     OW48829   7.935  12.424   1.957
48997SOL    HW148830   8.015  12.421   2.008
48997SOL    HW248831   7.935  12.511   1.916
48998SOL     OW48832   9.558   0.947   6.774
48998SOL    HW148833   9.599   1.018   6.824
48998SOL    HW248834   9.468   0.977   6.761
48999SOL     OW48835  12.889   4.548  13.808
48999SOL    HW148836  12.850   4.620  13.857
48999SOL    HW248837  12.911   4.483  13.874
49000SOL     OW48838   3.533   6.614   7.469
49000SOL    HW148839   3.627   6.631   7.465
49000SOL    HW248840   3.503   6.624   7.379
49001SOL     OW48841   0.236   2.947  12.143
49001SOL    HW148842   0.206   3.018  12.199
49001SOL    HW248843   0.289   2.891  12.200
49002SOL     OW48844   4.338  14.537   3.373
49002SOL    HW148845   4.294  14.517   3.290
49002SOL    HW248846   4.422  14.574   3.347
49003SOL     OW48847  11.907  13.949  13.587
49003SOL    HW148848  11.985  13.998  13.562
49003SOL    HW248849  11.836  13.989  13.537
49004SOL     OW48850  10.915   5.616   5.852
49004SOL    HW148851  10.830   5.645   5.885
49004SOL    HW248852  10.940   5.681   5.787
49005SOL     OW48853   8.321  10.840   7.654
49005SOL    HW148854   8.245  10.887   7.690
49005SOL    HW248855   8.367  10.807   7.731
49006SOL     OW48856   8.838   2.456   7.335
49006SOL    HW148857   8.839   2.551   7.323
49006SOL    HW248858   8.764   2.426   7.282
49007SOL     OW48859   5.206   3.928   5.262
49007SOL    HW148860   5.124   3.965   5.294
49007SOL    HW248861   5.216   3.965   5.174
49008SOL     OW48862   3.505   2.542   9.911
49008SOL    HW148863   3.516   2.623   9.961
49008SOL    HW248864   3.418   2.549   9.872
49009SOL     OW48865   9.538  10.522  10.948
49009SOL    HW148866   9.445  10.502  10.955
49009SOL    HW248867   9.582  10.440  10.971
49010SOL     OW48868   9.589  12.519   2.453
49010SOL    HW148869   9.572  12.599   2.502
49010SOL    HW248870   9.542  12.451   2.501
49011SOL     OW48871  13.569   5.112  14.752
49011SOL    HW148872  13.485   5.074  14.726
49011SOL    HW248873  13.546   5.184  14.811
49012SOL     OW48874  10.203   3.188   7.039
49012SOL    HW148875  10.211   3.263   6.980
49012SOL    HW248876  10.124   3.142   7.009
49013SOL     OW48877  10.476   9.751   8.957
49013SOL    HW148878  10.494   9.657   8.945
49013SOL    HW248879  10.381   9.758   8.946
49014SOL     OW48880   7.655   5.434   8.237
49014SOL    HW148881   7.582   5.427   8.175
49014SOL    HW248882   7.720   5.372   8.204
49015SOL     OW48883   3.843   5.287  13.261
49015SOL    HW148884   3.775   5.297  13.194
49015SOL    HW248885   3.923   5.272  13.212
49016SOL     OW48886   7.285   1.657   0.734
49016SOL    HW148887   7.311   1.565   0.732
49016SOL    HW248888   7.198   1.655   0.774
49017SOL     OW48889   3.064   1.509  10.028
49017SOL    HW148890   3.065   1.470  10.115
49017SOL    HW248891   3.156   1.526  10.008
49018SOL     OW48892   2.193  12.628  10.477
49018SOL    HW148893   2.208  12.708  10.527
49018SOL    HW248894   2.111  12.593  10.513
49019SOL     OW48895   6.200  10.783   7.841
49019SOL    HW148896   6.204  10.843   7.767
49019SOL    HW248897   6.278  10.728   7.832
49020SOL     OW48898  14.869  14.028   6.674
49020SOL    HW148899  14.839  13.989   6.756
49020SOL    HW248900   0.049  13.964   6.639
49021SOL     OW48901   0.567  13.100   7.489
49021SOL    HW148902   0.562  13.008   7.463
49021SOL    HW248903   0.555  13.099   7.584
49022SOL     OW48904   6.777  14.532   8.439
49022SOL    HW148905   6.774  14.445   8.480
49022SOL    HW248906   6.688  14.566   8.449
49023SOL     OW48907   7.471   5.361   8.899
49023SOL    HW148908   7.410   5.401   8.961
49023SOL    HW248909   7.467   5.267   8.917
49024SOL     OW48910   8.033   0.422   3.095
49024SOL    HW148911   8.121   0.419   3.133
49024SOL    HW248912   7.989   0.493   3.141
49025SOL     OW48913   7.138   3.816   0.621
49025SOL    HW148914   7.102   3.833   0.534
49025SOL    HW248915   7.068   3.840   0.682
49026SOL     OW48916   9.501   9.951   2.312
49026SOL    HW148917   9.447   9.941   2.391
49026SOL    HW248918   9.568  10.015   2.336
49027SOL     OW48919   0.210  12.891   1.767
49027SOL    HW148920   0.182  12.846   1.847
49027SOL    HW248921   0.306  12.894   1.774
49028SOL     OW48922   1.312   9.959  12.082
49028SOL    HW148923   1.328   9.869  12.108
49028SOL    HW248924   1.390   9.984  12.032
49029SOL     OW48925  13.548   0.214   2.079
49029SOL    HW148926  13.523   0.305   2.062
49029SOL    HW248927  13.591   0.186   1.998
49030SOL     OW48928  12.548  12.142  12.396
49030SOL    HW148929  12.609  12.070  12.378
49030SOL    HW248930  12.505  12.116  12.478
49031SOL     OW48931   0.506  13.631   6.892
49031SOL    HW148932   0.588  13.586   6.870
49031SOL    HW248933   0.461  13.640   6.808
49032SOL     OW48934   9.054  12.991   5.118
49032SOL    HW148935   8.990  13.021   5.053
49032SOL    HW248936   9.118  13.062   5.123
49033SOL     OW48937   2.642  14.062   7.190
49033SOL    HW148938   2.627  14.004   7.116
49033SOL    HW248939   2.651  14.003   7.265
49034SOL     OW48940  10.157   6.146   6.376
49034SOL    HW148941  10.242   6.103   6.381
49034SOL    HW248942  10.136   6.146   6.282
49035SOL     OW48943   3.790   1.489  13.772
49035SOL    HW148944   3.882   1.473  13.752
49035SOL    HW248945   3.748   1.496  13.686
49036SOL     OW48946   9.768   2.539   5.045
49036SOL    HW148947   9.816   2.586   5.114
49036SOL    HW248948   9.692   2.594   5.028
49037SOL     OW48949  12.433  10.242  12.530
49037SOL    HW148950  12.507  10.190  12.563
49037SOL    HW248951  12.463  10.276  12.446
49038SOL     OW48952   2.790   9.821  11.228
49038SOL    HW148953   2.803   9.897  11.285
49038SOL    HW248954   2.695   9.818  11.214
49039SOL     OW48955   0.743   8.049   9.094
49039SOL    HW148956   0.735   7.958   9.068
49039SOL    HW248957   0.754   8.097   9.012
49040SOL     OW48958  12.224  10.829   7.313
49040SOL    HW148959  12.300  10.792   7.268
49040SOL    HW248960  12.156  10.762   7.303
49041SOL     OW48961   7.893  13.983   0.290
49041SOL    HW148962   7.910  13.979   0.384
49041SOL    HW248963   7.852  13.899   0.270
49042SOL     OW48964   7.239   5.219   2.432
49042SOL    HW148965   7.188   5.243   2.509
49042SOL    HW248966   7.176   5.175   2.375
49043SOL     OW48967   9.667   5.341   3.568
49043SOL    HW148968   9.625   5.340   3.654
49043SOL    HW248969   9.661   5.433   3.540
49044SOL     OW48970   5.803   1.834   7.024
49044SOL    HW148971   5.889   1.859   7.057
49044SOL    HW248972   5.770   1.913   6.981
49045SOL     OW48973   2.380   7.775  14.198
49045SOL    HW148974   2.346   7.772  14.108
49045SOL    HW248975   2.472   7.801  14.187
49046SOL     OW48976   5.809   3.673  11.112
49046SOL    HW148977   5.833   3.709  11.027
49046SOL    HW248978   5.793   3.580  11.096
49047SOL     OW48979  13.459   2.272   5.455
49047SOL    HW148980  13.467   2.367   5.464
49047SOL    HW248981  13.394   2.247   5.520
49048SOL     OW48982  12.498  11.003   1.084
49048SOL    HW148983  12.454  11.034   1.005
49048SOL    HW248984  12.505  11.081   1.140
49049SOL     OW48985  10.613  14.145  12.666
49049SOL    HW148986  10.705  14.172  12.662
49049SOL    HW248987  10.563  14.226  12.657
49050SOL     OW48988  13.748   0.445   0.977
49050SOL    HW148989  13.675   0.392   1.010
49050SOL    HW248990  13.823   0.385   0.978
49051SOL     OW48991  10.671  10.596   8.082
49051SOL    HW148992  10.640  10.631   7.999
49051SOL    HW248993  10.653  10.502   8.077
49052SOL     OW48994   0.332   2.802   9.098
49052SOL    HW148995   0.322   2.821   9.191
49052SOL    HW248996   0.425   2.819   9.080
49053SOL     OW48997   0.694  10.984   0.553
49053SOL    HW148998   0.659  11.005   0.467
49053SOL    HW248999   0.650  10.902   0.577
49054SOL     OW49000  10.497   7.354   1.529
49054SOL    HW149001  10.508   7.422   1.463
49054SOL    HW249002  10.485   7.401   1.612
49055SOL     OW49003   2.687  11.963   4.357
49055SOL    HW149004   2.619  11.948   4.291
49055SOL    HW249005   2.724  12.048   4.333
49056SOL     OW49006  11.910   2.996   2.830
49056SOL    HW149007  11.842   2.932   2.852
49056SOL    HW249008  11.929   3.041   2.912
49057SOL     OW49009   0.010   3.347  14.589
49057SOL    HW149010   0.049   3.372  14.673
49057SOL    HW249011  14.802   3.321  14.611
49058SOL     OW49012   3.289  14.729   8.640
49058SOL    HW149013   3.260  14.697   8.554
49058SOL    HW249014   3.272  14.657   8.700
49059SOL     OW49015  11.107  10.918   2.769
49059SOL    HW149016  11.136  10.928   2.679
49059SOL    HW249017  11.176  10.867   2.811
49060SOL     OW49018  13.392  12.837  10.532
49060SOL    HW149019  13.365  12.804  10.617
49060SOL    HW249020  13.336  12.791  10.469
49061SOL     OW49021   9.660  14.541   7.804
49061SOL    HW149022   9.623  14.482   7.869
49061SOL    HW249023   9.677  14.486   7.727
49062SOL     OW49024   9.272   2.497   1.654
49062SOL    HW149025   9.227   2.542   1.583
49062SOL    HW249026   9.342   2.556   1.679
49063SOL     OW49027  10.664  12.218  13.333
49063SOL    HW149028  10.754  12.230  13.361
49063SOL    HW249029  10.657  12.268  13.252
49064SOL     OW49030   4.047   5.523   9.060
49064SOL    HW149031   4.051   5.462   9.133
49064SOL    HW249032   4.030   5.468   8.984
49065SOL     OW49033  14.662   1.100   7.957
49065SOL    HW149034  14.746   1.129   7.921
49065SOL    HW249035  14.622   1.180   7.992
49066SOL     OW49036   5.189   2.154   3.961
49066SOL    HW149037   5.095   2.170   3.947
49066SOL    HW249038   5.194   2.115   4.048
49067SOL     OW49039   9.211   3.493   8.384
49067SOL    HW149040   9.299   3.483   8.348
49067SOL    HW249041   9.174   3.567   8.337
49068SOL     OW49042  14.458   7.228  14.110
49068SOL    HW149043  14.425   7.303  14.159
49068SOL    HW249044  14.426   7.241  14.021
49069SOL     OW49045   9.417   9.093   4.368
49069SOL    HW149046   9.495   9.100   4.312
49069SOL    HW249047   9.430   9.013   4.418
49070SOL     OW49048   8.807   0.311  12.317
49070SOL    HW149049   8.899   0.308  12.344
49070SOL    HW249050   8.806   0.270  12.230
49071SOL     OW49051   6.981   3.316   8.334
49071SOL    HW149052   6.979   3.238   8.278
49071SOL    HW249053   7.068   3.314   8.374
49072SOL     OW49054   3.871   7.651   2.747
49072SOL    HW149055   3.914   7.689   2.670
49072SOL    HW249056   3.806   7.716   2.773
49073SOL     OW49057   7.922   3.327   1.006
49073SOL    HW149058   7.964   3.405   0.968
49073SOL    HW249059   7.992   3.282   1.053
49074SOL     OW49060  11.188  13.791   6.547
49074SOL    HW149061  11.153  13.866   6.595
49074SOL    HW249062  11.128  13.719   6.568
49075SOL     OW49063   3.989   9.667   2.072
49075SOL    HW149064   3.970   9.754   2.037
49075SOL    HW249065   4.084   9.667   2.085
49076SOL     OW49066   6.649   0.070   0.470
49076SOL    HW149067   6.609   0.144   0.425
49076SOL    HW249068   6.672   0.104   0.556
49077SOL     OW49069   5.379   4.409  13.303
49077SOL    HW149070   5.303   4.375  13.351
49077SOL    HW249071   5.400   4.341  13.239
49078SOL     OW49072  14.259   0.023   4.437
49078SOL    HW149073  14.309  14.854   4.373
49078SOL    HW249074  14.289   0.113   4.425
49079SOL     OW49075   9.300  10.925   7.968
49079SOL    HW149076   9.213  10.919   7.929
49079SOL    HW249077   9.304  11.013   8.005
49080SOL     OW49078   1.294  13.630  11.989
49080SOL    HW149079   1.369  13.598  12.039
49080SOL    HW249080   1.333  13.673  11.913
49081SOL     OW49081   6.132   4.082   1.557
49081SOL    HW149082   6.057   4.120   1.512
49081SOL    HW249083   6.189   4.158   1.575
49082SOL     OW49084  10.463   3.538   3.821
49082SOL    HW149085  10.471   3.494   3.737
49082SOL    HW249086  10.412   3.477   3.875
49083SOL     OW49087   9.635   7.048   0.115
49083SOL    HW149088   9.640   7.133   0.159
49083SOL    HW249089   9.652   7.068   0.023
49084SOL     OW49090   3.833  12.268  11.336
49084SOL    HW149091   3.797  12.201  11.394
49084SOL    HW249092   3.911  12.227  11.298
49085SOL     OW49093   1.426   0.102   3.207
49085SOL    HW149094   1.503   0.131   3.256
49085SOL    HW249095   1.428   0.006   3.214
49086SOL     OW49096  12.418   9.417   4.708
49086SOL    HW149097  12.495   9.415   4.765
49086SOL    HW249098  12.344   9.412   4.768
49087SOL     OW49099  13.757   8.408   8.544
49087SOL    HW149100  13.728   8.441   8.629
49087SOL    HW249101  13.699   8.451   8.481
49088SOL     OW49102  10.942  11.197   9.221
49088SOL    HW149103  10.958  11.280   9.265
49088SOL    HW249104  10.938  11.133   9.291
49089SOL     OW49105   1.155   3.335   9.152
49089SOL    HW149106   1.247   3.309   9.163
49089SOL    HW249107   1.159   3.431   9.145
49090SOL     OW49108  14.010   6.062   6.828
49090SOL    HW149109  13.939   6.010   6.865
49090SOL    HW249110  14.083   6.050   6.889
49091SOL     OW49111   0.445   5.129   3.320
49091SOL    HW149112   0.524   5.166   3.359
49091SOL    HW249113   0.422   5.057   3.380
49092SOL     OW49114  13.952   9.097  11.416
49092SOL    HW149115  13.914   9.157  11.352
49092SOL    HW249116  13.998   9.154  11.478
49093SOL     OW49117  13.151   5.328  12.567
49093SOL    HW149118  13.217   5.374  12.517
49093SOL    HW249119  13.133   5.385  12.642
49094SOL     OW49120  11.592  13.588  12.523
49094SOL    HW149121  11.660  13.648  12.491
49094SOL    HW249122  11.601  13.592  12.618
49095SOL     OW49123   6.703   1.495   3.247
49095SOL    HW149124   6.769   1.522   3.311
49095SOL    HW249125   6.745   1.423   3.200
49096SOL     OW49126   1.785  10.588  12.581
49096SOL    HW149127   1.723  10.661  12.579
49096SOL    HW249128   1.730  10.510  12.581
49097SOL     OW49129   4.166   9.573   0.389
49097SOL    HW149130   4.238   9.511   0.380
49097SOL    HW249131   4.206   9.659   0.375
49098SOL     OW49132  13.910  13.237   8.274
49098SOL    HW149133  13.853  13.307   8.243
49098SOL    HW249134  13.878  13.219   8.363
49099SOL     OW49135  11.260  12.326   9.194
49099SOL    HW149136  11.347  12.326   9.235
49099SOL    HW249137  11.260  12.403   9.138
49100SOL     OW49138   3.485   5.033   1.342
49100SOL    HW149139   3.518   4.945   1.327
49100SOL    HW249140   3.474   5.038   1.437
49101SOL     OW49141   3.268   4.238   2.800
49101SOL    HW149142   3.289   4.323   2.837
49101SOL    HW249143   3.226   4.191   2.872
49102SOL     OW49144   7.919  12.673   0.636
49102SOL    HW149145   7.986  12.626   0.586
49102SOL    HW249146   7.940  12.766   0.623
49103SOL     OW49147   8.336  11.337   7.217
49103SOL    HW149148   8.363  11.428   7.230
49103SOL    HW249149   8.348  11.295   7.302
49104SOL     OW49150   2.069   5.718   9.125
49104SOL    HW149151   2.049   5.626   9.145
49104SOL    HW249152   2.013   5.768   9.184
49105SOL     OW49153   8.126   4.192  13.930
49105SOL    HW149154   8.187   4.192  14.003
49105SOL    HW249155   8.181   4.203  13.852
49106SOL     OW49156   0.059   4.739   6.027
49106SOL    HW149157  14.847   4.733   6.046
49106SOL    HW249158   0.099   4.763   6.110
49107SOL     OW49159  13.949  12.158   2.605
49107SOL    HW149160  13.862  12.175   2.640
49107SOL    HW249161  13.999  12.237   2.626
49108SOL     OW49162   9.616   5.616   0.815
49108SOL    HW149163   9.544   5.558   0.790
49108SOL    HW249164   9.676   5.559   0.865
49109SOL     OW49165   3.832  13.166   9.841
49109SOL    HW149166   3.894  13.140   9.772
49109SOL    HW249167   3.841  13.099   9.908
49110SOL     OW49168  10.534   7.296   9.491
49110SOL    HW149169  10.490   7.289   9.406
49110SOL    HW249170  10.479   7.245   9.551
49111SOL     OW49171  12.296   9.316  12.426
49111SOL    HW149172  12.350   9.302  12.348
49111SOL    HW249173  12.322   9.402  12.458
49112SOL     OW49174   0.123  14.813   6.585
49112SOL    HW149175   0.062   0.002   6.566
49112SOL    HW249176   0.098  14.743   6.524
49113SOL     OW49177   7.677   5.016   1.522
49113SOL    HW149178   7.680   4.996   1.428
49113SOL    HW249179   7.754   5.071   1.537
49114SOL     OW49180   6.718  14.663   4.697
49114SOL    HW149181   6.626  14.673   4.671
49114SOL    HW249182   6.750  14.588   4.646
49115SOL     OW49183   0.243  12.794  12.763
49115SOL    HW149184   0.224  12.784  12.856
49115SOL    HW249185   0.269  12.885  12.753
49116SOL     OW49186   1.455  13.272  14.848
49116SOL    HW149187   1.447  13.347   0.026
49116SOL    HW249188   1.411  13.200   0.012
49117SOL     OW49189   7.999   9.113   3.770
49117SOL    HW149190   8.089   9.116   3.736
49117SOL    HW249191   8.009   9.128   3.864
49118SOL     OW49192  10.635   1.375   9.937
49118SOL    HW149193  10.600   1.325   9.864
49118SOL    HW249194  10.679   1.310   9.992
49119SOL     OW49195   1.944   4.934   3.477
49119SOL    HW149196   1.948   4.964   3.386
49119SOL    HW249197   1.859   4.965   3.508
49120SOL     OW49198  10.339   3.568   7.957
49120SOL    HW149199  10.346   3.559   8.052
49120SOL    HW249200  10.256   3.527   7.935
49121SOL     OW49201  13.557   0.834   0.073
49121SOL    HW149202  13.646   0.846   0.038
49121SOL    HW249203  13.569   0.776   0.148
49122SOL     OW49204  12.378   1.144   7.643
49122SOL    HW149205  12.437   1.217   7.624
49122SOL    HW249206  12.308   1.183   7.696
49123SOL     OW49207  13.996   0.030  12.127
49123SOL    HW149208  14.038   0.018  12.041
49123SOL    HW249209  14.007  14.828  12.171
49124SOL     OW49210  13.110   1.260   9.841
49124SOL    HW149211  13.138   1.208   9.766
49124SOL    HW249212  13.037   1.312   9.808
49125SOL     OW49213   9.704  13.192   4.597
49125SOL    HW149214   9.694  13.098   4.613
49125SOL    HW249215   9.782  13.199   4.542
49126SOL     OW49216   3.702  12.081   4.356
49126SOL    HW149217   3.688  12.033   4.437
49126SOL    HW249218   3.795  12.069   4.337
49127SOL     OW49219   3.046   2.010   0.415
49127SOL    HW149220   3.106   2.084   0.399
49127SOL    HW249221   3.077   1.942   0.356
49128SOL     OW49222   3.932   8.246   3.588
49128SOL    HW149223   3.942   8.322   3.531
49128SOL    HW249224   3.839   8.241   3.607
49129SOL     OW49225  11.630   4.654  10.862
49129SOL    HW149226  11.580   4.574  10.847
49129SOL    HW249227  11.705   4.646  10.804
49130SOL     OW49228   4.461   7.350   0.284
49130SOL    HW149229   4.384   7.297   0.261
49130SOL    HW249230   4.426   7.439   0.293
49131SOL     OW49231  13.952   4.362  11.056
49131SOL    HW149232  13.951   4.273  11.092
49131SOL    HW249233  13.884   4.361  10.989
49132SOL     OW49234  10.900   0.013  10.095
49132SOL    HW149235  10.935   0.065  10.022
49132SOL    HW249236  10.840   0.072  10.141
49133SOL     OW49237   8.149   0.620   1.175
49133SOL    HW149238   8.057   0.596   1.169
49133SOL    HW249239   8.152   0.689   1.241
49134SOL     OW49240   1.272  11.673  11.668
49134SOL    HW149241   1.320  11.748  11.701
49134SOL    HW249242   1.299  11.665  11.576
49135SOL     OW49243  10.758   5.465   4.177
49135SOL    HW149244  10.695   5.433   4.113
49135SOL    HW249245  10.719   5.443   4.262
49136SOL     OW49246   9.317   2.535   9.050
49136SOL    HW149247   9.348   2.625   9.056
49136SOL    HW249248   9.222   2.542   9.042
49137SOL     OW49249  12.682   7.661   8.425
49137SOL    HW149250  12.637   7.659   8.340
49137SOL    HW249251  12.666   7.574   8.462
49138SOL     OW49252   0.050   8.833   2.820
49138SOL    HW149253   0.105   8.858   2.894
49138SOL    HW249254   0.021   8.744   2.842
49139SOL     OW49255   9.466   8.579  12.672
49139SOL    HW149256   9.450   8.566  12.579
49139SOL    HW249257   9.381   8.567  12.713
49140SOL     OW49258   4.222   6.968  12.122
49140SOL    HW149259   4.243   6.893  12.066
49140SOL    HW249260   4.307   7.011  12.137
49141SOL     OW49261   0.135   1.469  10.249
49141SOL    HW149262   0.156   1.557  10.281
49141SOL    HW249263   0.078   1.432  10.316
49142SOL     OW49264   0.186   6.823  10.193
49142SOL    HW149265   0.180   6.842  10.099
49142SOL    HW249266   0.141   6.739  10.202
49143SOL     OW49267   8.495   6.942   5.938
49143SOL    HW149268   8.456   6.855   5.944
49143SOL    HW249269   8.501   6.959   5.844
49144SOL     OW49270   8.090  11.747   4.259
49144SOL    HW149271   8.035  11.764   4.335
49144SOL    HW249272   8.029  11.723   4.189
49145SOL     OW49273  12.297  13.570  10.223
49145SOL    HW149274  12.212  13.614  10.214
49145SOL    HW249275  12.276  13.482  10.254
49146SOL     OW49276   9.504   0.848   1.919
49146SOL    HW149277   9.479   0.917   1.981
49146SOL    HW249278   9.521   0.895   1.838
49147SOL     OW49279   9.673   5.512   7.323
49147SOL    HW149280   9.715   5.469   7.248
49147SOL    HW249281   9.745   5.548   7.374
49148SOL     OW49282  10.342   7.272   6.459
49148SOL    HW149283  10.434   7.295   6.465
49148SOL    HW249284  10.303   7.305   6.540
49149SOL     OW49285  10.801   8.728   0.035
49149SOL    HW149286  10.890   8.698   0.052
49149SOL    HW249287  10.810   8.823   0.022
49150SOL     OW49288   8.819   2.066  12.478
49150SOL    HW149289   8.860   1.981  12.463
49150SOL    HW249290   8.825   2.080  12.572
49151SOL     OW49291   2.908   4.395   7.011
49151SOL    HW149292   2.975   4.437   7.064
49151SOL    HW249293   2.842   4.463   6.997
49152SOL     OW49294  13.525  12.472  12.212
49152SOL    HW149295  13.454  12.535  12.202
49152SOL    HW249296  13.590  12.517  12.266
49153SOL     OW49297   4.995   2.029   2.726
49153SOL    HW149298   4.970   2.071   2.644
49153SOL    HW249299   4.991   1.935   2.708
49154SOL     OW49300  13.282  11.733   0.718
49154SOL    HW149301  13.292  11.651   0.766
49154SOL    HW249302  13.369  11.772   0.717
49155SOL     OW49303  13.804   5.981   1.568
49155SOL    HW149304  13.802   6.021   1.655
49155SOL    HW249305  13.729   5.922   1.567
49156SOL     OW49306   4.596  12.327   6.527
49156SOL    HW149307   4.660  12.265   6.562
49156SOL    HW249308   4.564  12.375   6.604
49157SOL     OW49309   3.558   3.525  14.309
49157SOL    HW149310   3.521   3.441  14.334
49157SOL    HW249311   3.533   3.585  14.380
49158SOL     OW49312   4.297  12.834   6.654
49158SOL    HW149313   4.334  12.837   6.565
49158SOL    HW249314   4.203  12.842   6.641
49159SOL     OW49315   4.515   8.772   1.448
49159SOL    HW149316   4.527   8.684   1.485
49159SOL    HW249317   4.513   8.830   1.524
49160SOL     OW49318   4.428   1.431   3.808
49160SOL    HW149319   4.511   1.478   3.804
49160SOL    HW249320   4.366   1.495   3.844
49161SOL     OW49321  13.986   9.101   9.334
49161SOL    HW149322  14.021   9.087   9.245
49161SOL    HW249323  14.060   9.083   9.392
49162SOL     OW49324  13.495   5.226  13.430
49162SOL    HW149325  13.400   5.222  13.438
49162SOL    HW249326  13.524   5.266  13.512
49163SOL     OW49327  13.136   5.917   9.185
49163SOL    HW149328  13.183   6.000   9.194
49163SOL    HW249329  13.061   5.926   9.243
49164SOL     OW49330   0.612   4.394  12.558
49164SOL    HW149331   0.519   4.399  12.537
49164SOL    HW249332   0.617   4.410  12.652
49165SOL     OW49333   0.061  11.179  14.819
49165SOL    HW149334  14.866  11.164  14.764
49165SOL    HW249335   0.131  11.199  14.757
49166SOL     OW49336   4.508  11.898   0.283
49166SOL    HW149337   4.445  11.848   0.231
49166SOL    HW249338   4.489  11.872   0.374
49167SOL     OW49339   8.627  13.712   2.655
49167SOL    HW149340   8.589  13.635   2.614
49167SOL    HW249341   8.704  13.733   2.602
49168SOL     OW49342  11.238   0.686   5.082
49168SOL    HW149343  11.148   0.709   5.107
49168SOL    HW249344  11.277   0.653   5.163
49169SOL     OW49345   7.559   7.204   3.006
49169SOL    HW149346   7.633   7.150   3.034
49169SOL    HW249347   7.556   7.275   3.071
49170SOL     OW49348   3.432   5.423   9.261
49170SOL    HW149349   3.492   5.351   9.284
49170SOL    HW249350   3.488   5.486   9.215
49171SOL     OW49351   5.731   7.702   7.627
49171SOL    HW149352   5.688   7.617   7.619
49171SOL    HW249353   5.666   7.765   7.594
49172SOL     OW49354  10.406   2.068  12.024
49172SOL    HW149355  10.446   2.110  11.948
49172SOL    HW249356  10.326   2.028  11.991
49173SOL     OW49357   7.385   1.958  10.056
49173SOL    HW149358   7.335   2.020  10.110
49173SOL    HW249359   7.427   1.901  10.120
49174SOL     OW49360   2.295  10.845   2.223
49174SOL    HW149361   2.244  10.769   2.253
49174SOL    HW249362   2.370  10.848   2.283
49175SOL     OW49363  13.693   0.131   9.641
49175SOL    HW149364  13.691   0.043   9.678
49175SOL    HW249365  13.631   0.181   9.694
49176SOL     OW49366   6.609   2.096   0.537
49176SOL    HW149367   6.519   2.071   0.557
49176SOL    HW249368   6.657   2.079   0.618
49177SOL     OW49369   3.220   7.177   0.694
49177SOL    HW149370   3.285   7.126   0.742
49177SOL    HW249371   3.246   7.268   0.706
49178SOL     OW49372   6.987  14.397   2.552
49178SOL    HW149373   6.991  14.409   2.457
49178SOL    HW249374   7.068  14.351   2.573
49179SOL     OW49375   7.882   9.322   1.447
49179SOL    HW149376   7.958   9.335   1.505
49179SOL    HW249377   7.878   9.227   1.435
49180SOL     OW49378   7.878  10.251  12.551
49180SOL    HW149379   7.954  10.195  12.561
49180SOL    HW249380   7.884  10.285  12.462
49181SOL     OW49381   0.977   3.698  12.050
49181SOL    HW149382   0.899   3.685  11.996
49181SOL    HW249383   1.025   3.768  12.005
49182SOL     OW49384   0.834   9.683  10.797
49182SOL    HW149385   0.828   9.617  10.729
49182SOL    HW249386   0.898   9.746  10.764
49183SOL     OW49387   7.592   5.525   8.700
49183SOL    HW149388   7.526   5.464   8.733
49183SOL    HW249389   7.568   5.539   8.609
49184SOL     OW49390   4.654  11.957  14.475
49184SOL    HW149391   4.645  12.003  14.559
49184SOL    HW249392   4.619  11.869  14.492
49185SOL     OW49393  14.577   9.008   9.655
49185SOL    HW149394  14.487   8.996   9.686
49185SOL    HW249395  14.568   9.045   9.568
49186SOL     OW49396   3.470  13.572  13.334
49186SOL    HW149397   3.488  13.607  13.247
49186SOL    HW249398   3.401  13.506  13.320
49187SOL     OW49399   4.926   2.862  12.271
49187SOL    HW149400   4.948   2.911  12.349
49187SOL    HW249401   5.009   2.821  12.244
49188SOL     OW49402   4.934  11.337  11.282
49188SOL    HW149403   4.921  11.246  11.308
49188SOL    HW249404   5.016  11.335  11.232
49189SOL     OW49405   6.713  14.060  10.522
49189SOL    HW149406   6.652  14.042  10.450
49189SOL    HW249407   6.752  13.975  10.542
49190SOL     OW49408   8.860   0.088   3.869
49190SOL    HW149409   8.858   0.176   3.831
49190SOL    HW249410   8.944   0.052   3.841
49191SOL     OW49411   3.165  10.633   4.637
49191SOL    HW149412   3.134  10.589   4.717
49191SOL    HW249413   3.260  10.640   4.649
49192SOL     OW49414   1.541   5.601  13.727
49192SOL    HW149415   1.635   5.584  13.725
49192SOL    HW249416   1.519   5.631  13.639
49193SOL     OW49417   6.265   3.861   1.370
49193SOL    HW149418   6.247   3.930   1.433
49193SOL    HW249419   6.283   3.784   1.424
49194SOL     OW49420   9.364   8.043   4.104
49194SOL    HW149421   9.309   7.985   4.156
49194SOL    HW249422   9.343   8.131   4.135
49195SOL     OW49423   7.538  13.012  12.300
49195SOL    HW149424   7.444  13.027  12.307
49195SOL    HW249425   7.547  12.939  12.239
49196SOL     OW49426   4.595  11.446  13.297
49196SOL    HW149427   4.611  11.405  13.213
49196SOL    HW249428   4.633  11.386  13.361
49197SOL     OW49429  12.546  11.829  10.770
49197SOL    HW149430  12.639  11.806  10.763
49197SOL    HW249431  12.515  11.782  10.847
49198SOL     OW49432  13.074   7.176   1.465
49198SOL    HW149433  13.080   7.080   1.461
49198SOL    HW249434  12.985   7.192   1.497
49199SOL     OW49435   0.905  11.822   1.139
49199SOL    HW149436   0.951  11.772   1.206
49199SOL    HW249437   0.944  11.794   1.056
49200SOL     OW49438  14.610   0.246   6.710
49200SOL    HW149439  14.590   0.272   6.620
49200SOL    HW249440  14.557   0.305   6.764
49201SOL     OW49441  13.595   1.264  14.359
49201SOL    HW149442  13.624   1.311  14.438
49201SOL    HW249443  13.675   1.252  14.308
49202SOL     OW49444   6.488   9.940   7.332
49202SOL    HW149445   6.440  10.022   7.343
49202SOL    HW249446   6.454   9.882   7.400
49203SOL     OW49447   7.522   7.506   1.334
49203SOL    HW149448   7.449   7.465   1.382
49203SOL    HW249449   7.591   7.516   1.400
49204SOL     OW49450   0.826  10.222   7.479
49204SOL    HW149451   0.798  10.271   7.557
49204SOL    HW249452   0.863  10.141   7.514
49205SOL     OW49453   9.090  10.182  14.532
49205SOL    HW149454   9.013  10.130  14.510
49205SOL    HW249455   9.143  10.124  14.586
49206SOL     OW49456   1.601  10.378   0.911
49206SOL    HW149457   1.551  10.442   0.860
49206SOL    HW249458   1.554  10.295   0.898
49207SOL     OW49459   1.941   6.056   7.532
49207SOL    HW149460   1.947   5.995   7.459
49207SOL    HW249461   1.889   6.009   7.598
49208SOL     OW49462   4.972   2.810  13.091
49208SOL    HW149463   4.966   2.890  13.143
49208SOL    HW249464   4.898   2.814  13.031
49209SOL     OW49465   6.483   0.717   2.668
49209SOL    HW149466   6.558   0.739   2.613
49209SOL    HW249467   6.512   0.640   2.718
49210SOL     OW49468  12.289  14.880  13.700
49210SOL    HW149469  12.243   0.068  13.653
49210SOL    HW249470  12.261   0.008  13.791
49211SOL     OW49471   0.125  12.059   6.198
49211SOL    HW149472   0.079  12.026   6.121
49211SOL    HW249473   0.218  12.049   6.178
49212SOL     OW49474  10.381   3.712  11.375
49212SOL    HW149475  10.445   3.701  11.305
49212SOL    HW249476  10.429   3.692  11.455
49213SOL     OW49477   7.263   9.878   7.632
49213SOL    HW149478   7.268   9.793   7.677
49213SOL    HW249479   7.314   9.937   7.687
49214SOL     OW49480  10.998  12.435   0.486
49214SOL    HW149481  10.919  12.453   0.537
49214SOL    HW249482  11.069  12.444   0.548
49215SOL     OW49483   9.402  10.958  14.047
49215SOL    HW149484   9.356  11.014  14.110
49215SOL    HW249485   9.494  10.975  14.063
49216SOL     OW49486   8.044   0.342  10.815
49216SOL    HW149487   8.124   0.327  10.865
49216SOL    HW249488   7.996   0.259  10.822
49217SOL     OW49489   6.783   5.951   3.638
49217SOL    HW149490   6.879   5.947   3.641
49217SOL    HW249491   6.755   5.885   3.701
49218SOL     OW49492   6.841   5.844   8.223
49218SOL    HW149493   6.838   5.940   8.213
49218SOL    HW249494   6.895   5.830   8.301
49219SOL     OW49495  10.924   2.527  12.420
49219SOL    HW149496  10.930   2.475  12.501
49219SOL    HW249497  10.890   2.466  12.355
49220SOL     OW49498   4.343   0.817   5.777
49220SOL    HW149499   4.432   0.852   5.767
49220SOL    HW249500   4.307   0.818   5.689
49221SOL     OW49501  13.186   3.672   8.946
49221SOL    HW149502  13.211   3.664   9.038
49221SOL    HW249503  13.209   3.762   8.922
49222SOL     OW49504   0.086   7.163  11.958
49222SOL    HW149505   0.004   7.175  12.007
49222SOL    HW249506   0.071   7.085  11.904
49223SOL     OW49507   5.327  10.899   4.024
49223SOL    HW149508   5.270  10.858   4.089
49223SOL    HW249509   5.371  10.970   4.072
49224SOL     OW49510   5.409   2.958   0.571
49224SOL    HW149511   5.502   2.937   0.563
49224SOL    HW249512   5.407   3.032   0.632
49225SOL     OW49513   0.374  14.465   7.252
49225SOL    HW149514   0.354  14.536   7.313
49225SOL    HW249515   0.307  14.473   7.183
49226SOL     OW49516  14.601   1.079   1.750
49226SOL    HW149517  14.574   1.092   1.659
49226SOL    HW249518  14.561   1.152   1.798
49227SOL     OW49519   9.758  14.353   3.876
49227SOL    HW149520   9.707  14.273   3.892
49227SOL    HW249521   9.831  14.323   3.821
49228SOL     OW49522   3.598   2.414   7.457
49228SOL    HW149523   3.693   2.427   7.458
49228SOL    HW249524   3.563   2.494   7.419
49229SOL     OW49525  13.799   3.661   7.063
49229SOL    HW149526  13.851   3.662   6.983
49229SOL    HW249527  13.709   3.652   7.033
49230SOL     OW49528   6.610  14.386   2.733
49230SOL    HW149529   6.599  14.330   2.655
49230SOL    HW249530   6.672  14.453   2.705
49231SOL     OW49531   3.332   6.115  11.244
49231SOL    HW149532   3.405   6.130  11.184
49231SOL    HW249533   3.275   6.054  11.197
49232SOL     OW49534   8.780   7.357   5.916
49232SOL    HW149535   8.715   7.425   5.935
49232SOL    HW249536   8.728   7.278   5.899
49233SOL     OW49537   8.876  11.011   1.999
49233SOL    HW149538   8.880  10.930   2.050
49233SOL    HW249539   8.783  11.034   1.998
49234SOL     OW49540   8.998   6.187   6.275
49234SOL    HW149541   9.064   6.127   6.313
49234SOL    HW249542   9.039   6.273   6.279
49235SOL     OW49543  11.001   5.007  13.340
49235SOL    HW149544  10.979   4.920  13.305
49235SOL    HW249545  10.975   5.003  13.432
49236SOL     OW49546  12.877  10.935   6.064
49236SOL    HW149547  12.942  10.969   6.002
49236SOL    HW249548  12.849  10.852   6.026
49237SOL     OW49549  13.135   2.402   0.615
49237SOL    HW149550  13.175   2.319   0.639
49237SOL    HW249551  13.062   2.412   0.676
49238SOL     OW49552  12.553  10.091   4.118
49238SOL    HW149553  12.544  10.113   4.211
49238SOL    HW249554  12.630  10.034   4.114
49239SOL     OW49555   2.002  11.032   1.711
49239SOL    HW149556   2.028  11.041   1.803
49239SOL    HW249557   1.947  10.954   1.709
49240SOL     OW49558   7.648  13.241  12.650
49240SOL    HW149559   7.553  13.229  12.638
49240SOL    HW249560   7.659  13.256  12.744
49241SOL     OW49561  14.790   0.947  13.931
49241SOL    HW149562  14.700   0.917  13.924
49241SOL    HW249563  14.784   1.033  13.972
49242SOL     OW49564   6.463   0.362   6.911
49242SOL    HW149565   6.469   0.282   6.963
49242SOL    HW249566   6.393   0.412   6.952
49243SOL     OW49567   5.011  10.874   6.795
49243SOL    HW149568   5.029  10.851   6.704
49243SOL    HW249569   4.927  10.920   6.792
49244SOL     OW49570   5.096   2.780   8.063
49244SOL    HW149571   5.094   2.767   8.157
49244SOL    HW249572   5.050   2.862   8.048
49245SOL     OW49573  14.034   7.694   3.997
49245SOL    HW149574  13.970   7.624   3.983
49245SOL    HW249575  14.074   7.707   3.911
49246SOL     OW49576   1.361  14.278   0.876
49246SOL    HW149577   1.279  14.251   0.917
49246SOL    HW249578   1.429  14.231   0.924
49247SOL     OW49579   4.844   5.137  12.626
49247SOL    HW149580   4.763   5.177  12.660
49247SOL    HW249581   4.906   5.145  12.698
49248SOL     OW49582  10.515   7.453   4.568
49248SOL    HW149583  10.491   7.417   4.653
49248SOL    HW249584  10.475   7.540   4.566
49249SOL     OW49585   1.157   2.781   2.260
49249SOL    HW149586   1.086   2.797   2.322
49249SOL    HW249587   1.114   2.748   2.181
49250SOL     OW49588   8.655   3.569   5.801
49250SOL    HW149589   8.567   3.551   5.833
49250SOL    HW249590   8.658   3.526   5.715
49251SOL     OW49591   8.342  10.400   6.027
49251SOL    HW149592   8.423  10.410   6.077
49251SOL    HW249593   8.347  10.312   5.991
49252SOL     OW49594   8.488   5.486   4.201
49252SOL    HW149595   8.496   5.575   4.167
49252SOL    HW249596   8.409   5.489   4.255
49253SOL     OW49597   5.221  14.090  10.634
49253SOL    HW149598   5.151  14.039  10.593
49253SOL    HW249599   5.239  14.161  10.573
49254SOL     OW49600   4.060   4.776  12.917
49254SOL    HW149601   4.049   4.697  12.970
49254SOL    HW249602   3.980   4.781  12.865
49255SOL     OW49603   7.855  12.091   0.030
49255SOL    HW149604   7.828  12.056  14.827
49255SOL    HW249605   7.947  12.116   0.018
49256SOL     OW49606   3.095  12.878  12.095
49256SOL    HW149607   3.146  12.801  12.121
49256SOL    HW249608   3.101  12.938  12.169
49257SOL     OW49609  12.815   6.837   1.456
49257SOL    HW149610  12.774   6.829   1.370
49257SOL    HW249611  12.787   6.759   1.503
49258SOL     OW49612   0.347   4.411  12.445
49258SOL    HW149613   0.295   4.488  12.469
49258SOL    HW249614   0.297   4.369  12.375
49259SOL     OW49615  10.728  13.928   3.765
49259SOL    HW149616  10.713  13.976   3.684
49259SOL    HW249617  10.641  13.902   3.795
49260SOL     OW49618   3.434   8.518   5.136
49260SOL    HW149619   3.362   8.542   5.078
49260SOL    HW249620   3.427   8.578   5.210
49261SOL     OW49621   1.893   8.569   2.236
49261SOL    HW149622   1.860   8.489   2.277
49261SOL    HW249623   1.988   8.561   2.242
49262SOL     OW49624   3.006  11.512   5.251
49262SOL    HW149625   2.999  11.592   5.199
49262SOL    HW249626   3.099  11.504   5.272
49263SOL     OW49627  11.172   2.351  14.120
49263SOL    HW149628  11.187   2.445  14.133
49263SOL    HW249629  11.167   2.315  14.208
49264SOL     OW49630  11.897   0.253   7.545
49264SOL    HW149631  11.943   0.324   7.499
49264SOL    HW249632  11.903   0.179   7.485
49265SOL     OW49633  13.871  14.712   4.027
49265SOL    HW149634  13.910  14.626   4.041
49265SOL    HW249635  13.928  14.772   4.076
49266SOL     OW49636   9.429   3.743  10.727
49266SOL    HW149637   9.467   3.729  10.640
49266SOL    HW249638   9.504   3.753  10.785
49267SOL     OW49639   2.520   8.724   2.373
49267SOL    HW149640   2.533   8.670   2.450
49267SOL    HW249641   2.450   8.784   2.398
49268SOL     OW49642   7.118  13.273  14.726
49268SOL    HW149643   7.177  13.281  14.801
49268SOL    HW249644   7.172  13.293  14.650
49269SOL     OW49645   4.233   7.583   0.032
49269SOL    HW149646   4.255   7.625   0.114
49269SOL    HW249647   4.309   7.598  14.857
49270SOL     OW49648  14.169   1.724   7.096
49270SOL    HW149649  14.250   1.674   7.098
49270SOL    HW249650  14.126   1.697   7.015
49271SOL     OW49651   2.567  10.052   6.774
49271SOL    HW149652   2.599  10.033   6.862
49271SOL    HW249653   2.621  10.126   6.744
49272SOL     OW49654  10.764   8.500  11.310
49272SOL    HW149655  10.711   8.437  11.359
49272SOL    HW249656  10.846   8.454  11.295
49273SOL     OW49657  14.165   7.814   1.291
49273SOL    HW149658  14.118   7.886   1.333
49273SOL    HW249659  14.240   7.798   1.348
49274SOL     OW49660  14.082  13.482   4.197
49274SOL    HW149661  14.129  13.413   4.244
49274SOL    HW249662  14.151  13.533   4.154
49275SOL     OW49663   0.591  10.256  13.484
49275SOL    HW149664   0.673  10.236  13.528
49275SOL    HW249665   0.523  10.227  13.546
49276SOL     OW49666   9.819   2.164   4.396
49276SOL    HW149667   9.738   2.145   4.349
49276SOL    HW249668   9.806   2.127   4.483
49277SOL     OW49669   5.122   7.969   5.205
49277SOL    HW149670   5.176   8.027   5.258
49277SOL    HW249671   5.064   7.926   5.267
49278SOL     OW49672  12.302  11.153   5.209
49278SOL    HW149673  12.295  11.241   5.248
49278SOL    HW249674  12.359  11.166   5.133
49279SOL     OW49675  13.826   2.985   7.833
49279SOL    HW149676  13.901   2.931   7.856
49279SOL    HW249677  13.774   2.930   7.774
49280SOL     OW49678   6.061   2.250   4.405
49280SOL    HW149679   6.108   2.219   4.327
49280SOL    HW249680   6.099   2.336   4.424
49281SOL     OW49681   2.511   0.332   3.775
49281SOL    HW149682   2.556   0.342   3.859
49281SOL    HW249683   2.577   0.354   3.709
49282SOL     OW49684   5.483   2.886  14.220
49282SOL    HW149685   5.504   2.922  14.134
49282SOL    HW249686   5.520   2.949  14.282
49283SOL     OW49687  14.449   1.102   5.048
49283SOL    HW149688  14.532   1.110   5.000
49283SOL    HW249689  14.456   1.018   5.094
49284SOL     OW49690   8.588  12.313  12.586
49284SOL    HW149691   8.579  12.318  12.491
49284SOL    HW249692   8.501  12.333  12.619
49285SOL     OW49693   5.119   3.499  11.959
49285SOL    HW149694   5.050   3.483  12.024
49285SOL    HW249695   5.195   3.453  11.994
49286SOL     OW49696  14.647   3.844  14.484
49286SOL    HW149697  14.732   3.836  14.439
49286SOL    HW249698  14.585   3.801  14.425
49287SOL     OW49699  12.387  12.756   6.627
49287SOL    HW149700  12.413  12.816   6.697
49287SOL    HW249701  12.469  12.721   6.593
49288SOL     OW49702   7.473   8.194  13.467
49288SOL    HW149703   7.445   8.263  13.407
49288SOL    HW249704   7.395   8.177  13.520
49289SOL     OW49705   7.045   6.530   6.168
49289SOL    HW149706   7.003   6.512   6.084
49289SOL    HW249707   7.105   6.457   6.181
49290SOL     OW49708   8.723   0.052   5.064
49290SOL    HW149709   8.734  14.872   4.992
49290SOL    HW249710   8.812   0.068   5.096
49291SOL     OW49711   0.979   5.857  10.853
49291SOL    HW149712   1.066   5.817  10.863
49291SOL    HW249713   0.925   5.814  10.918
49292SOL     OW49714   1.312  11.538   9.392
49292SOL    HW149715   1.336  11.577   9.308
49292SOL    HW249716   1.392  11.541   9.444
49293SOL     OW49717   3.946   0.582   4.858
49293SOL    HW149718   3.860   0.550   4.831
49293SOL    HW249719   3.989   0.607   4.775
49294SOL     OW49720   4.464   0.906  13.393
49294SOL    HW149721   4.500   0.919  13.480
49294SOL    HW249722   4.385   0.853  13.407
49295SOL     OW49723   6.397   1.085  14.462
49295SOL    HW149724   6.428   1.174  14.445
49295SOL    HW249725   6.429   1.034  14.388
49296SOL     OW49726  11.251   9.686   5.877
49296SOL    HW149727  11.194   9.743   5.825
49296SOL    HW249728  11.196   9.655   5.948
49297SOL     OW49729   0.130   1.997   5.601
49297SOL    HW149730   0.130   2.051   5.522
49297SOL    HW249731   0.220   2.000   5.632
49298SOL     OW49732   5.086   4.987  10.696
49298SOL    HW149733   5.143   5.064  10.702
49298SOL    HW249734   5.007   5.012  10.744
49299SOL     OW49735   3.899   5.577  10.294
49299SOL    HW149736   3.986   5.594  10.332
49299SOL    HW249737   3.873   5.493  10.331
49300SOL     OW49738   3.082   9.306   8.230
49300SOL    HW149739   3.138   9.229   8.238
49300SOL    HW249740   2.993   9.273   8.239
49301SOL     OW49741   3.700   6.371   5.360
49301SOL    HW149742   3.704   6.432   5.286
49301SOL    HW249743   3.717   6.285   5.321
49302SOL     OW49744   4.461   3.965   7.587
49302SOL    HW149745   4.501   4.046   7.555
49302SOL    HW249746   4.534   3.918   7.629
49303SOL     OW49747   2.128   9.522   4.237
49303SOL    HW149748   2.145   9.577   4.161
49303SOL    HW249749   2.213   9.482   4.257
49304SOL     OW49750  12.575  10.786  12.236
49304SOL    HW149751  12.546  10.695  12.241
49304SOL    HW249752  12.629  10.799  12.314
49305SOL     OW49753  14.342  10.387   6.338
49305SOL    HW149754  14.368  10.396   6.430
49305SOL    HW249755  14.321  10.477   6.311
49306SOL     OW49756   5.012  11.804   2.545
49306SOL    HW149757   5.099  11.829   2.514
49306SOL    HW249758   4.967  11.772   2.467
49307SOL     OW49759   9.336   0.624   1.349
49307SOL    HW149760   9.390   0.605   1.425
49307SOL    HW249761   9.318   0.718   1.355
49308SOL     OW49762   8.076   0.851   0.479
49308SOL    HW149763   8.151   0.800   0.509
49308SOL    HW249764   8.100   0.879   0.390
49309SOL     OW49765  13.792   1.990   6.333
49309SOL    HW149766  13.722   2.020   6.275
49309SOL    HW249767  13.866   2.049   6.315
49310SOL     OW49768  10.424   2.484  10.404
49310SOL    HW149769  10.435   2.390  10.394
49310SOL    HW249770  10.333   2.495  10.432
49311SOL     OW49771   3.107   8.842   1.396
49311SOL    HW149772   3.046   8.770   1.380
49311SOL    HW249773   3.087   8.906   1.328
49312SOL     OW49774   2.738   2.537   6.198
49312SOL    HW149775   2.833   2.531   6.192
49312SOL    HW249776   2.711   2.575   6.115
49313SOL     OW49777   9.411  10.002  11.020
49313SOL    HW149778   9.480   9.960  10.968
49313SOL    HW249779   9.377  10.071  10.963
49314SOL     OW49780   0.854   5.861   3.023
49314SOL    HW149781   0.812   5.944   3.004
49314SOL    HW249782   0.814   5.799   2.961
49315SOL     OW49783  14.682  12.604   0.452
49315SOL    HW149784  14.606  12.548   0.464
49315SOL    HW249785  14.715  12.582   0.365
49316SOL     OW49786  10.146   8.668   4.976
49316SOL    HW149787  10.231   8.650   5.016
49316SOL    HW249788  10.167   8.712   4.893
49317SOL     OW49789   2.183  13.040   7.354
49317SOL    HW149790   2.219  13.091   7.281
49317SOL    HW249791   2.089  13.035   7.336
49318SOL     OW49792   8.270  13.197  12.274
49318SOL    HW149793   8.352  13.147  12.269
49318SOL    HW249794   8.297  13.286  12.294
49319SOL     OW49795   8.102   8.296   3.944
49319SOL    HW149796   8.137   8.210   3.968
49319SOL    HW249797   8.011   8.293   3.973
49320SOL     OW49798  12.852  13.333   6.589
49320SOL    HW149799  12.779  13.364   6.535
49320SOL    HW249800  12.820  13.252   6.629
49321SOL     OW49801  11.195   8.290   6.511
49321SOL    HW149802  11.137   8.238   6.566
49321SOL    HW249803  11.137   8.333   6.448
49322SOL     OW49804   2.300  13.149  10.553
49322SOL    HW149805   2.345  13.223  10.512
49322SOL    HW249806   2.271  13.094  10.479
49323SOL     OW49807   1.182  13.785   9.744
49323SOL    HW149808   1.210  13.875   9.760
49323SOL    HW249809   1.163  13.750   9.831
49324SOL     OW49810   6.114  10.180  13.246
49324SOL    HW149811   6.065  10.145  13.172
49324SOL    HW249812   6.197  10.134  13.243
49325SOL     OW49813  13.778   2.056  13.531
49325SOL    HW149814  13.813   2.063  13.620
49325SOL    HW249815  13.706   1.994  13.538
49326SOL     OW49816   2.838  12.552  12.747
49326SOL    HW149817   2.795  12.522  12.667
49326SOL    HW249818   2.898  12.482  12.770
49327SOL     OW49819   8.772   6.807   5.278
49327SOL    HW149820   8.680   6.822   5.302
49327SOL    HW249821   8.819   6.881   5.316
49328SOL     OW49822   4.402  10.567  14.031
49328SOL    HW149823   4.447  10.495  13.985
49328SOL    HW249824   4.312  10.563  13.999
49329SOL     OW49825  11.015  12.515   1.479
49329SOL    HW149826  10.934  12.465   1.475
49329SOL    HW249827  11.037  12.533   1.388
49330SOL     OW49828   9.171  11.834   6.856
49330SOL    HW149829   9.090  11.874   6.885
49330SOL    HW249830   9.238  11.866   6.916
49331SOL     OW49831   6.646   4.358   7.033
49331SOL    HW149832   6.634   4.302   6.956
49331SOL    HW249833   6.662   4.446   6.996
49332SOL     OW49834  13.909  13.375   1.381
49332SOL    HW149835  13.863  13.292   1.393
49332SOL    HW249836  13.999  13.357   1.409
49333SOL     OW49837   9.074   1.669   4.478
49333SOL    HW149838   9.028   1.665   4.394
49333SOL    HW249839   9.129   1.590   4.479
49334SOL     OW49840   9.920   6.015   5.966
49334SOL    HW149841   9.853   5.960   6.006
49334SOL    HW249842   9.889   6.032   5.878
49335SOL     OW49843  13.059  10.866   3.356
49335SOL    HW149844  13.140  10.901   3.319
49335SOL    HW249845  13.070  10.771   3.352
49336SOL     OW49846   7.273   1.693   4.258
49336SOL    HW149847   7.295   1.636   4.331
49336SOL    HW249848   7.262   1.780   4.297
49337SOL     OW49849  11.523   5.251   1.547
49337SOL    HW149850  11.500   5.158   1.542
49337SOL    HW249851  11.582   5.265   1.473
49338SOL     OW49852   3.075  11.288   0.168
49338SOL    HW149853   3.146  11.224   0.159
49338SOL    HW249854   3.103  11.362   0.113
49339SOL     OW49855  11.635   5.157  12.899
49339SOL    HW149856  11.665   5.075  12.859
49339SOL    HW249857  11.715   5.202  12.925
49340SOL     OW49858  11.071  14.216  10.205
49340SOL    HW149859  11.143  14.152  10.206
49340SOL    HW249860  11.098  14.281  10.140
49341SOL     OW49861  10.486   1.690   2.229
49341SOL    HW149862  10.537   1.766   2.205
49341SOL    HW249863  10.508   1.624   2.163
49342SOL     OW49864  14.603   6.469   0.902
49342SOL    HW149865  14.615   6.404   0.971
49342SOL    HW249866  14.652   6.435   0.827
49343SOL     OW49867   7.757   5.657  14.469
49343SOL    HW149868   7.796   5.580  14.427
49343SOL    HW249869   7.833   5.706  14.502
49344SOL     OW49870   5.243  13.847   2.242
49344SOL    HW149871   5.278  13.758   2.235
49344SOL    HW249872   5.148  13.835   2.247
49345SOL     OW49873   0.540   7.815   2.112
49345SOL    HW149874   0.602   7.799   2.042
49345SOL    HW249875   0.462   7.765   2.087
49346SOL     OW49876  12.412   2.881   5.600
49346SOL    HW149877  12.354   2.922   5.663
49346SOL    HW249878  12.487   2.941   5.592
49347SOL     OW49879   2.683   2.772  13.405
49347SOL    HW149880   2.754   2.833  13.384
49347SOL    HW249881   2.703   2.693  13.355
49348SOL     OW49882  11.708   2.758   7.002
49348SOL    HW149883  11.703   2.676   7.051
49348SOL    HW249884  11.629   2.806   7.026
49349SOL     OW49885   9.635  11.513  10.187
49349SOL    HW149886   9.718  11.549  10.155
49349SOL    HW249887   9.641  11.419  10.168
49350SOL     OW49888  11.768   0.656   1.771
49350SOL    HW149889  11.860   0.682   1.776
49350SOL    HW249890  11.720   0.738   1.767
49351SOL     OW49891   8.102   7.751  12.817
49351SOL    HW149892   8.145   7.813  12.875
49351SOL    HW249893   8.142   7.667  12.838
49352SOL     OW49894  12.559   1.752   5.286
49352SOL    HW149895  12.467   1.740   5.264
49352SOL    HW249896  12.563   1.835   5.333
49353SOL     OW49897  10.542   1.141   4.272
49353SOL    HW149898  10.527   1.197   4.348
49353SOL    HW249899  10.460   1.144   4.223
49354SOL     OW49900   6.762   5.005   7.520
49354SOL    HW149901   6.728   4.925   7.480
49354SOL    HW249902   6.750   5.073   7.454
49355SOL     OW49903   7.791  10.122   1.720
49355SOL    HW149904   7.781  10.115   1.625
49355SOL    HW249905   7.799  10.032   1.750
49356SOL     OW49906   7.802  12.214   5.228
49356SOL    HW149907   7.820  12.300   5.190
49356SOL    HW249908   7.709  12.199   5.210
49357SOL     OW49909   7.995  12.738   5.327
49357SOL    HW149910   8.074  12.689   5.346
49357SOL    HW249911   7.933  12.712   5.396
49358SOL     OW49912   2.740   2.017  13.241
49358SOL    HW149913   2.690   2.097  13.226
49358SOL    HW249914   2.675   1.947  13.237
49359SOL     OW49915  12.528  13.516   4.403
49359SOL    HW149916  12.587  13.566   4.460
49359SOL    HW249917  12.486  13.453   4.461
49360SOL     OW49918   8.901   2.676   2.084
49360SOL    HW149919   8.892   2.629   2.167
49360SOL    HW249920   8.844   2.628   2.023
49361SOL     OW49921   1.489  14.113   3.132
49361SOL    HW149922   1.422  14.147   3.072
49361SOL    HW249923   1.540  14.189   3.158
49362SOL     OW49924   9.741  10.334   8.383
49362SOL    HW149925   9.649  10.313   8.399
49362SOL    HW249926   9.767  10.386   8.459
49363SOL     OW49927  10.745   9.613  13.055
49363SOL    HW149928  10.779   9.689  13.103
49363SOL    HW249929  10.807   9.601  12.983
49364SOL     OW49930   2.929   4.636   9.811
49364SOL    HW149931   2.861   4.667   9.752
49364SOL    HW249932   2.965   4.558   9.767
49365SOL     OW49933   1.065  13.745   7.863
49365SOL    HW149934   0.980  13.722   7.899
49365SOL    HW249935   1.045  13.801   7.788
49366SOL     OW49936  13.291  10.403   1.633
49366SOL    HW149937  13.222  10.337   1.629
49366SOL    HW249938  13.252  10.476   1.681
49367SOL     OW49939  10.859   2.109   3.072
49367SOL    HW149940  10.849   2.200   3.045
49367SOL    HW249941  10.909   2.113   3.153
49368SOL     OW49942   6.189  13.557   8.429
49368SOL    HW149943   6.198  13.627   8.364
49368SOL    HW249944   6.100  13.526   8.418
49369SOL     OW49945   2.100   4.085  12.776
49369SOL    HW149946   2.134   4.105  12.689
49369SOL    HW249947   2.133   3.998  12.796
49370SOL     OW49948   4.812   5.304   3.182
49370SOL    HW149949   4.825   5.378   3.123
49370SOL    HW249950   4.892   5.253   3.176
49371SOL     OW49951  12.431   2.225  14.430
49371SOL    HW149952  12.406   2.160  14.495
49371SOL    HW249953  12.522   2.249  14.452
49372SOL     OW49954   3.254  12.914   1.300
49372SOL    HW149955   3.186  12.849   1.281
49372SOL    HW249956   3.300  12.925   1.217
49373SOL     OW49957   6.394   6.606   8.254
49373SOL    HW149958   6.413   6.698   8.271
49373SOL    HW249959   6.466   6.576   8.199
49374SOL     OW49960   9.096   0.608   1.791
49374SOL    HW149961   9.144   0.541   1.742
49374SOL    HW249962   9.131   0.691   1.758
49375SOL     OW49963   6.873   8.178   5.331
49375SOL    HW149964   6.802   8.136   5.282
49375SOL    HW249965   6.835   8.197   5.417
49376SOL     OW49966  14.721  11.097   2.496
49376SOL    HW149967  14.740  11.183   2.534
49376SOL    HW249968  14.806  11.064   2.469
49377SOL     OW49969   6.734   9.016  11.045
49377SOL    HW149970   6.662   8.987  10.989
49377SOL    HW249971   6.798   9.054  10.984
49378SOL     OW49972   0.020   2.766   9.560
49378SOL    HW149973   0.013   2.780   9.465
49378SOL    HW249974  14.864   2.679   9.573
49379SOL     OW49975   2.653   0.854   4.054
49379SOL    HW149976   2.609   0.820   3.976
49379SOL    HW249977   2.631   0.947   4.055
49380SOL     OW49978   6.647   2.904  11.573
49380SOL    HW149979   6.631   2.944  11.487
49380SOL    HW249980   6.575   2.934  11.627
49381SOL     OW49981   2.746   8.301   6.132
49381SOL    HW149982   2.701   8.298   6.048
49381SOL    HW249983   2.692   8.358   6.187
49382SOL     OW49984   1.675  13.467   2.362
49382SOL    HW149985   1.705  13.552   2.392
49382SOL    HW249986   1.644  13.423   2.442
49383SOL     OW49987   7.737   5.332  11.834
49383SOL    HW149988   7.653   5.345  11.788
49383SOL    HW249989   7.794   5.293  11.768
49384SOL     OW49990  11.120  11.167  11.299
49384SOL    HW149991  11.025  11.175  11.287
49384SOL    HW249992  11.150  11.116  11.224
49385SOL     OW49993  13.044  13.803  10.512
49385SOL    HW149994  13.030  13.898  10.517
49385SOL    HW249995  13.062  13.786  10.420
49386SOL     OW49996   2.208   5.306   9.199
49386SOL    HW149997   2.116   5.334   9.203
49386SOL    HW249998   2.223   5.287   9.106
49387SOL     OW49999  12.506   4.191   0.339
49387SOL    HW150000  12.413   4.181   0.362
49387SOL    HW250001  12.553   4.143   0.407
49388SOL     OW50002   5.290   5.937  12.889
49388SOL    HW150003   5.313   5.844  12.889
49388SOL    HW250004   5.330   5.972  12.810
49389SOL     OW50005  12.439   8.511   9.802
49389SOL    HW150006  12.393   8.592   9.821
49389SOL    HW250007  12.373   8.443   9.810
49390SOL     OW50008  14.207  11.815   3.106
49390SOL    HW150009  14.161  11.802   3.189
49390SOL    HW250010  14.238  11.728   3.082
49391SOL     OW50011  12.608   6.007   5.644
49391SOL    HW150012  12.608   6.022   5.549
49391SOL    HW250013  12.643   5.918   5.654
49392SOL     OW50014   0.840   7.760   2.314
49392SOL    HW150015   0.772   7.693   2.313
49392SOL    HW250016   0.920   7.713   2.335
49393SOL     OW50017   5.479  13.131   5.746
49393SOL    HW150018   5.467  13.081   5.827
49393SOL    HW250019   5.407  13.104   5.690
49394SOL     OW50020   5.945   5.249   6.595
49394SOL    HW150021   5.994   5.324   6.626
49394SOL    HW250022   5.913   5.205   6.674
49395SOL     OW50023   5.908  10.004  14.156
49395SOL    HW150024   5.951   9.919  14.162
49395SOL    HW250025   5.928  10.035  14.067
49396SOL     OW50026   3.946  14.039   0.461
49396SOL    HW150027   3.873  14.096   0.486
49396SOL    HW250028   4.023  14.081   0.498
49397SOL     OW50029   3.864  13.008   3.830
49397SOL    HW150030   3.900  13.077   3.773
49397SOL    HW250031   3.940  12.974   3.877
49398SOL     OW50032   5.651   4.403  12.631
49398SOL    HW150033   5.644   4.316  12.590
49398SOL    HW250034   5.623   4.463  12.562
49399SOL     OW50035   7.111   6.749   0.223
49399SOL    HW150036   7.158   6.758   0.306
49399SOL    HW250037   7.055   6.826   0.219
49400SOL     OW50038   8.327   6.259   0.096
49400SOL    HW150039   8.264   6.303   0.039
49400SOL    HW250040   8.278   6.244   0.177
49401SOL     OW50041  12.882  12.501  14.714
49401SOL    HW150042  12.856  12.470  14.628
49401SOL    HW250043  12.840  12.442  14.776
49402SOL     OW50044  14.583   9.578   0.788
49402SOL    HW150045  14.581   9.629   0.707
49402SOL    HW250046  14.550   9.491   0.762
49403SOL     OW50047  10.843   7.359   8.097
49403SOL    HW150048  10.812   7.401   8.017
49403SOL    HW250049  10.932   7.392   8.109
49404SOL     OW50050  12.639   0.835  11.936
49404SOL    HW150051  12.715   0.891  11.953
49404SOL    HW250052  12.567   0.896  11.919
49405SOL     OW50053   4.915   0.215   3.262
49405SOL    HW150054   4.849   0.250   3.322
49405SOL    HW250055   4.891   0.123   3.250
49406SOL     OW50056  11.996   1.445  10.049
49406SOL    HW150057  12.059   1.380  10.081
49406SOL    HW250058  12.029   1.470   9.962
49407SOL     OW50059  10.992  11.379   8.443
49407SOL    HW150060  11.003  11.396   8.537
49407SOL    HW250061  11.021  11.289   8.431
49408SOL     OW50062   0.007  13.360   6.337
49408SOL    HW150063   0.071  13.318   6.395
49408SOL    HW250064  14.826  13.401   6.396
49409SOL     OW50065  12.946   4.901  14.045
49409SOL    HW150066  12.897   4.968  14.092
49409SOL    HW250067  12.902   4.894  13.960
49410SOL     OW50068   7.993  11.044  10.331
49410SOL    HW150069   7.971  11.136  10.315
49410SOL    HW250070   8.085  11.037  10.306
49411SOL     OW50071  10.633   9.443   0.193
49411SOL    HW150072  10.728   9.440   0.201
49411SOL    HW250073  10.600   9.397   0.270
49412SOL     OW50074   6.625   6.004  11.703
49412SOL    HW150075   6.632   6.016  11.608
49412SOL    HW250076   6.618   5.909  11.715
49413SOL     OW50077   6.831   4.169  13.653
49413SOL    HW150078   6.863   4.121  13.577
49413SOL    HW250079   6.737   4.180  13.637
49414SOL     OW50080  10.475   5.581   3.875
49414SOL    HW150081  10.550   5.563   3.819
49414SOL    HW250082  10.400   5.550   3.825
49415SOL     OW50083   9.633  13.294   3.743
49415SOL    HW150084   9.625  13.199   3.748
49415SOL    HW250085   9.552  13.328   3.781
49416SOL     OW50086   1.129   8.945   4.680
49416SOL    HW150087   1.071   8.877   4.714
49416SOL    HW250088   1.212   8.930   4.724
49417SOL     OW50089   5.116   3.934   2.887
49417SOL    HW150090   5.121   4.021   2.927
49417SOL    HW250091   5.112   3.874   2.962
49418SOL     OW50092  10.168  12.458  12.137
49418SOL    HW150093  10.128  12.482  12.221
49418SOL    HW250094  10.252  12.504  12.137
49419SOL     OW50095   5.466   8.869   6.572
49419SOL    HW150096   5.390   8.818   6.543
49419SOL    HW250097   5.511   8.811   6.634
49420SOL     OW50098  13.372   4.122   7.462
49420SOL    HW150099  13.417   4.157   7.539
49420SOL    HW250100  13.288   4.167   7.460
49421SOL     OW50101  11.543  12.201   0.480
49421SOL    HW150102  11.620  12.255   0.501
49421SOL    HW250103  11.469  12.255   0.506
49422SOL     OW50104   1.211   5.211   6.243
49422SOL    HW150105   1.215   5.147   6.172
49422SOL    HW250106   1.178   5.291   6.202
49423SOL     OW50107  14.462   0.136  12.706
49423SOL    HW150108  14.455   0.101  12.618
49423SOL    HW250109  14.538   0.092  12.744
49424SOL     OW50110   8.698   1.889  11.377
49424SOL    HW150111   8.726   1.944  11.450
49424SOL    HW250112   8.681   1.951  11.306
49425SOL     OW50113  11.424   1.551   0.479
49425SOL    HW150114  11.370   1.473   0.466
49425SOL    HW250115  11.509   1.517   0.507
49426SOL     OW50116   1.461  11.210   9.366
49426SOL    HW150117   1.526  11.141   9.352
49426SOL    HW250118   1.512  11.287   9.392
49427SOL     OW50119   5.440  13.094   6.933
49427SOL    HW150120   5.366  13.154   6.929
49427SOL    HW250121   5.488  13.121   7.012
49428SOL     OW50122   6.328   5.575   8.336
49428SOL    HW150123   6.414   5.575   8.295
49428SOL    HW250124   6.344   5.589   8.429
49429SOL     OW50125  10.652   8.414   6.537
49429SOL    HW150126  10.730   8.416   6.593
49429SOL    HW250127  10.685   8.389   6.451
49430SOL     OW50128   9.292   2.832   4.447
49430SOL    HW150129   9.328   2.824   4.536
49430SOL    HW250130   9.369   2.845   4.392
49431SOL     OW50131   3.975   8.438   3.416
49431SOL    HW150132   3.890   8.434   3.373
49431SOL    HW250133   4.038   8.422   3.345
49432SOL     OW50134   2.518  14.699   9.801
49432SOL    HW150135   2.609  14.723   9.784
49432SOL    HW250136   2.523  14.618   9.851
49433SOL     OW50137   6.074   2.291   7.083
49433SOL    HW150138   6.120   2.339   7.014
49433SOL    HW250139   5.988   2.333   7.088
49434SOL     OW50140   2.038   0.453   1.042
49434SOL    HW150141   2.105   0.432   0.977
49434SOL    HW250142   2.033   0.549   1.041
49435SOL     OW50143  12.948   7.187   2.875
49435SOL    HW150144  12.858   7.156   2.887
49435SOL    HW250145  12.947   7.276   2.910
49436SOL     OW50146   5.128   8.595   0.444
49436SOL    HW150147   5.221   8.610   0.456
49436SOL    HW250148   5.090   8.683   0.439
49437SOL     OW50149   7.432   8.166   8.182
49437SOL    HW150150   7.424   8.106   8.108
49437SOL    HW250151   7.451   8.110   8.257
49438SOL     OW50152   1.904   3.510   8.438
49438SOL    HW150153   1.965   3.505   8.511
49438SOL    HW250154   1.852   3.589   8.456
49439SOL     OW50155   4.801   0.890  12.102
49439SOL    HW150156   4.782   0.910  12.011
49439SOL    HW250157   4.849   0.808  12.100
49440SOL     OW50158  13.378   5.616   8.566
49440SOL    HW150159  13.365   5.582   8.654
49440SOL    HW250160  13.292   5.609   8.524
49441SOL     OW50161   6.271   0.422   3.169
49441SOL    HW150162   6.318   0.484   3.113
49441SOL    HW250163   6.335   0.397   3.236
49442SOL     OW50164  14.752  13.156  12.357
49442SOL    HW150165  14.736  13.073  12.312
49442SOL    HW250166  14.789  13.213  12.290
49443SOL     OW50167  13.680   6.865   9.528
49443SOL    HW150168  13.753   6.916   9.562
49443SOL    HW250169  13.670   6.792   9.589
49444SOL     OW50170   3.851   0.033   2.546
49444SOL    HW150171   3.773   0.046   2.493
49444SOL    HW250172   3.923   0.062   2.490
49445SOL     OW50173   5.806   7.826  13.533
49445SOL    HW150174   5.750   7.811  13.457
49445SOL    HW250175   5.755   7.795  13.608
49446SOL     OW50176  13.712   2.692   4.553
49446SOL    HW150177  13.757   2.629   4.610
49446SOL    HW250178  13.659   2.744   4.612
49447SOL     OW50179   3.878  13.826  12.643
49447SOL    HW150180   3.921  13.849  12.560
49447SOL    HW250181   3.787  13.807  12.618
49448SOL     OW50182   7.498   8.245  10.902
49448SOL    HW150183   7.424   8.304  10.918
49448SOL    HW250184   7.566   8.275  10.962
49449SOL     OW50185   7.168  11.174   1.173
49449SOL    HW150186   7.244  11.215   1.132
49449SOL    HW250187   7.102  11.243   1.175
49450SOL     OW50188   8.337  13.459  10.673
49450SOL    HW150189   8.301  13.531  10.725
49450SOL    HW250190   8.263  13.430  10.619
49451SOL     OW50191   6.062   2.739   9.956
49451SOL    HW150192   6.076   2.805  10.024
49451SOL    HW250193   5.969   2.747   9.934
49452SOL     OW50194   6.917   1.139  13.640
49452SOL    HW150195   6.881   1.056  13.609
49452SOL    HW250196   6.861   1.206  13.599
49453SOL     OW50197   7.909   9.138   0.887
49453SOL    HW150198   7.961   9.125   0.807
49453SOL    HW250199   7.959   9.202   0.938
49454SOL     OW50200   3.156  11.162   7.905
49454SOL    HW150201   3.061  11.152   7.907
49454SOL    HW250202   3.185  11.106   7.834
49455SOL     OW50203   6.851  14.785   5.320
49455SOL    HW150204   6.924  14.823   5.271
49455SOL    HW250205   6.867  14.809   5.411
49456SOL     OW50206  10.023   6.993   6.833
49456SOL    HW150207   9.965   6.954   6.767
49456SOL    HW250208   9.982   6.971   6.917
49457SOL     OW50209  11.945   9.803   8.693
49457SOL    HW150210  11.946   9.708   8.702
49457SOL    HW250211  11.852   9.826   8.693
49458SOL     OW50212  11.112   4.031   1.044
49458SOL    HW150213  11.078   3.972   0.977
49458SOL    HW250214  11.035   4.080   1.074
49459SOL     OW50215   1.061   9.485   9.888
49459SOL    HW150216   1.046   9.406   9.835
49459SOL    HW250217   0.980   9.499   9.935
49460SOL     OW50218   7.465  13.697  10.741
49460SOL    HW150219   7.440  13.716  10.832
49460SOL    HW250220   7.479  13.783  10.702
49461SOL     OW50221   3.477  10.051  14.030
49461SOL    HW150222   3.421   9.989  13.983
49461SOL    HW250223   3.432  10.067  14.112
49462SOL     OW50224   4.367   7.162   6.368
49462SOL    HW150225   4.293   7.155   6.307
49462SOL    HW250226   4.444   7.160   6.313
49463SOL     OW50227   9.848  14.716  10.547
49463SOL    HW150228   9.813  14.750  10.629
49463SOL    HW250229   9.922  14.661  10.574
49464SOL     OW50230  11.286   7.892   5.763
49464SOL    HW150231  11.218   7.824   5.758
49464SOL    HW250232  11.247   7.968   5.718
49465SOL     OW50233   1.926   8.408   2.781
49465SOL    HW150234   1.894   8.438   2.866
49465SOL    HW250235   1.928   8.312   2.789
49466SOL     OW50236  13.465  11.143   1.181
49466SOL    HW150237  13.545  11.160   1.230
49466SOL    HW250238  13.413  11.087   1.238
49467SOL     OW50239   3.288  11.289  14.863
49467SOL    HW150240   3.277  11.204  14.821
49467SOL    HW250241   3.321  11.346  14.794
49468SOL     OW50242   5.385   0.908   6.149
49468SOL    HW150243   5.320   0.929   6.082
49468SOL    HW250244   5.467   0.897   6.100
49469SOL     OW50245   4.935   2.685   0.359
49469SOL    HW150246   4.991   2.727   0.293
49469SOL    HW250247   4.881   2.757   0.393
49470SOL     OW50248   6.786  10.586   4.974
49470SOL    HW150249   6.819  10.635   5.049
49470SOL    HW250250   6.844  10.611   4.902
49471SOL     OW50251  13.316   8.099   6.735
49471SOL    HW150252  13.302   8.189   6.704
49471SOL    HW250253  13.411   8.091   6.740
49472SOL     OW50254  13.221   0.595  13.929
49472SOL    HW150255  13.150   0.531  13.928
49472SOL    HW250256  13.201   0.654  13.855
49473SOL     OW50257  13.016  14.041   5.558
49473SOL    HW150258  13.081  13.989   5.511
49473SOL    HW250259  13.014  14.003   5.646
49474SOL     OW50260   9.110  13.835  14.114
49474SOL    HW150261   9.163  13.759  14.089
49474SOL    HW250262   9.068  13.863  14.032
49475SOL     OW50263  10.802  10.513   9.438
49475SOL    HW150264  10.819  10.495   9.346
49475SOL    HW250265  10.882  10.484   9.483
49476SOL     OW50266  12.186   7.526   5.931
49476SOL    HW150267  12.234   7.580   5.993
49476SOL    HW250268  12.105   7.575   5.914
49477SOL     OW50269   1.171   3.801  11.049
49477SOL    HW150270   1.224   3.879  11.032
49477SOL    HW250271   1.217   3.755  11.119
49478SOL     OW50272  10.997   8.555  10.909
49478SOL    HW150273  11.033   8.473  10.942
49478SOL    HW250274  10.949   8.592  10.983
49479SOL     OW50275   0.852  13.757  12.366
49479SOL    HW150276   0.852  13.750  12.270
49479SOL    HW250277   0.838  13.850  12.383
49480SOL     OW50278  13.106   5.749   4.550
49480SOL    HW150279  13.077   5.766   4.639
49480SOL    HW250280  13.167   5.677   4.557
49481SOL     OW50281  11.388   9.060  12.985
49481SOL    HW150282  11.473   9.042  13.026
49481SOL    HW250283  11.382   8.997  12.913
49482SOL     OW50284  14.757   8.491   5.227
49482SOL    HW150285  14.820   8.423   5.203
49482SOL    HW250286  14.747   8.484   5.322
49483SOL     OW50287   0.247   2.297   6.528
49483SOL    HW150288   0.196   2.258   6.599
49483SOL    HW250289   0.226   2.244   6.451
49484SOL     OW50290   4.490   7.219   2.292
49484SOL    HW150291   4.500   7.125   2.301
49484SOL    HW250292   4.558   7.257   2.347
49485SOL     OW50293   4.130   0.207  10.311
49485SOL    HW150294   4.143   0.292  10.353
49485SOL    HW250295   4.218   0.174  10.295
49486SOL     OW50296   5.595   8.692  13.166
49486SOL    HW150297   5.515   8.674  13.117
49486SOL    HW250298   5.569   8.682  13.258
49487SOL     OW50299   4.894  14.243   3.510
49487SOL    HW150300   4.872  14.178   3.577
49487SOL    HW250301   4.905  14.193   3.430
49488SOL     OW50302  10.846  14.474   8.343
49488SOL    HW150303  10.769  14.498   8.393
49488SOL    HW250304  10.905  14.433   8.407
49489SOL     OW50305   7.491   8.377  14.019
49489SOL    HW150306   7.491   8.473  14.023
49489SOL    HW250307   7.420   8.351  14.077
49490SOL     OW50308  11.403   2.078   1.355
49490SOL    HW150309  11.480   2.079   1.412
49490SOL    HW250310  11.413   1.999   1.302
49491SOL     OW50311  11.693   9.985   5.011
49491SOL    HW150312  11.690   9.901   4.965
49491SOL    HW250313  11.604   9.995   5.046
49492SOL     OW50314   2.547   5.767   3.857
49492SOL    HW150315   2.611   5.696   3.843
49492SOL    HW250316   2.546   5.814   3.774
49493SOL     OW50317   5.449  10.651  14.039
49493SOL    HW150318   5.506  10.619  14.109
49493SOL    HW250319   5.443  10.577  13.978
49494SOL     OW50320   7.777   5.436   9.518
49494SOL    HW150321   7.763   5.512   9.461
49494SOL    HW250322   7.849   5.389   9.477
49495SOL     OW50323  14.400   6.696   8.202
49495SOL    HW150324  14.404   6.608   8.239
49495SOL    HW250325  14.484   6.707   8.157
49496SOL     OW50326   0.813   3.327   2.539
49496SOL    HW150327   0.748   3.398   2.541
49496SOL    HW250328   0.800   3.285   2.453
49497SOL     OW50329   8.830   1.334  10.870
49497SOL    HW150330   8.913   1.295  10.844
49497SOL    HW250331   8.814   1.303  10.958
49498SOL     OW50332  11.652   4.749  12.300
49498SOL    HW150333  11.607   4.825  12.336
49498SOL    HW250334  11.632   4.751  12.206
49499SOL     OW50335  13.155   9.202  11.234
49499SOL    HW150336  13.135   9.278  11.288
49499SOL    HW250337  13.070   9.167  11.208
49500SOL     OW50338   8.216   1.384   2.659
49500SOL    HW150339   8.163   1.325   2.604
49500SOL    HW250340   8.306   1.354   2.646
49501SOL     OW50341   6.352  13.699  11.639
49501SOL    HW150342   6.337  13.769  11.576
49501SOL    HW250343   6.324  13.619  11.593
49502SOL     OW50344   1.016   2.440   1.385
49502SOL    HW150345   1.017   2.345   1.402
49502SOL    HW250346   1.006   2.480   1.471
49503SOL     OW50347  14.613   6.961   4.317
49503SOL    HW150348  14.683   6.915   4.364
49503SOL    HW250349  14.571   6.893   4.264
49504SOL     OW50350   3.228   0.573  10.036
49504SOL    HW150351   3.275   0.621   9.967
49504SOL    HW250352   3.163   0.635  10.068
49505SOL     OW50353  11.735   8.166   4.931
49505SOL    HW150354  11.660   8.120   4.966
49505SOL    HW250355  11.758   8.118   4.851
49506SOL     OW50356  13.084   0.492  14.275
49506SOL    HW150357  13.150   0.447  14.327
49506SOL    HW250358  13.060   0.430  14.206
49507SOL     OW50359   6.848  14.405  14.326
49507SOL    HW150360   6.757  14.379  14.342
49507SOL    HW250361   6.847  14.441  14.238
49508SOL     OW50362   8.990   3.747   4.898
49508SOL    HW150363   8.943   3.796   4.831
49508SOL    HW250364   8.934   3.671   4.916
49509SOL     OW50365   8.823   4.997  14.184
49509SOL    HW150366   8.887   4.978  14.252
49509SOL    HW250367   8.861   5.070  14.135
49510SOL     OW50368   5.092   1.933   5.750
49510SOL    HW150369   5.078   1.839   5.739
49510SOL    HW250370   5.142   1.941   5.831
49511SOL     OW50371   7.202   2.690  14.735
49511SOL    HW150372   7.228   2.646  14.654
49511SOL    HW250373   7.119   2.649  14.759
49512SOL     OW50374  13.207  11.445  13.052
49512SOL    HW150375  13.157  11.363  13.052
49512SOL    HW250376  13.209  11.472  12.960
49513SOL     OW50377   1.203  13.840  13.961
49513SOL    HW150378   1.132  13.834  13.896
49513SOL    HW250379   1.281  13.813  13.914
49514SOL     OW50380  12.039   2.982  10.667
49514SOL    HW150381  11.947   2.992  10.642
49514SOL    HW250382  12.086   2.971  10.584
49515SOL     OW50383   9.533   4.083  13.757
49515SOL    HW150384   9.533   4.034  13.840
49515SOL    HW250385   9.583   4.029  13.697
49516SOL     OW50386   4.014  14.223   6.058
49516SOL    HW150387   4.024  14.144   6.110
49516SOL    HW250388   4.097  14.270   6.068
49517SOL     OW50389   4.146  11.964   5.845
49517SOL    HW150390   4.208  11.903   5.805
49517SOL    HW250391   4.141  11.937   5.937
49518SOL     OW50392   1.792   2.046   9.879
49518SOL    HW150393   1.761   1.977   9.938
49518SOL    HW250394   1.735   2.040   9.803
49519SOL     OW50395   5.416  13.619   2.747
49519SOL    HW150396   5.330  13.652   2.720
49519SOL    HW250397   5.465  13.698   2.772
49520SOL     OW50398  11.636  14.502  10.899
49520SOL    HW150399  11.682  14.585  10.883
49520SOL    HW250400  11.592  14.514  10.983
49521SOL     OW50401   1.082   1.030   7.925
49521SOL    HW150402   1.024   0.955   7.921
49521SOL    HW250403   1.159   0.999   7.974
49522SOL     OW50404   1.854  12.422   5.348
49522SOL    HW150405   1.925  12.397   5.407
49522SOL    HW250406   1.856  12.355   5.279
49523SOL     OW50407   3.011  14.408   8.975
49523SOL    HW150408   2.921  14.424   9.005
49523SOL    HW250409   3.021  14.313   8.980
49524SOL     OW50410  12.445  10.555  12.530
49524SOL    HW150411  12.418  10.553  12.438
49524SOL    HW250412  12.450  10.463  12.555
49525SOL     OW50413   3.062   1.773   5.367
49525SOL    HW150414   2.980   1.797   5.325
49525SOL    HW250415   3.062   1.821   5.450
49526SOL     OW50416   7.574   8.811   4.443
49526SOL    HW150417   7.513   8.752   4.488
49526SOL    HW250418   7.522   8.888   4.422
49527SOL     OW50419   5.918   0.019   3.454
49527SOL    HW150420   5.860   0.017   3.530
49527SOL    HW250421   5.895  14.824   3.403
49528SOL     OW50422   4.550  12.567   3.832
49528SOL    HW150423   4.526  12.556   3.924
49528SOL    HW250424   4.639  12.531   3.826
49529SOL     OW50425   3.095   3.461   0.119
49529SOL    HW150426   3.186   3.443   0.098
49529SOL    HW250427   3.072   3.536   0.063
49530SOL     OW50428   5.740   0.962   6.581
49530SOL    HW150429   5.825   1.004   6.591
49530SOL    HW250430   5.702   1.003   6.503
49531SOL     OW50431   4.561   7.623   6.939
49531SOL    HW150432   4.501   7.697   6.954
49531SOL    HW250433   4.513   7.547   6.970
49532SOL     OW50434   5.347   9.569   6.512
49532SOL    HW150435   5.413   9.614   6.459
49532SOL    HW250436   5.279   9.543   6.449
49533SOL     OW50437  13.805  10.744   3.250
49533SOL    HW150438  13.784  10.773   3.339
49533SOL    HW250439  13.896  10.714   3.256
49534SOL     OW50440   2.347   3.777   5.955
49534SOL    HW150441   2.337   3.746   6.045
49534SOL    HW250442   2.270   3.744   5.909
49535SOL     OW50443   5.782   8.707  13.436
49535SOL    HW150444   5.876   8.725  13.439
49535SOL    HW250445   5.743   8.788  13.403
49536SOL     OW50446  13.289  13.751   6.122
49536SOL    HW150447  13.355  13.767   6.190
49536SOL    HW250448  13.208  13.786   6.159
49537SOL     OW50449   4.205   1.489  12.125
49537SOL    HW150450   4.252   1.451  12.051
49537SOL    HW250451   4.114   1.493  12.096
49538SOL     OW50452  10.679   0.366  13.162
49538SOL    HW150453  10.708   0.276  13.145
49538SOL    HW250454  10.741   0.399  13.227
49539SOL     OW50455   9.137  12.226   5.339
49539SOL    HW150456   9.122  12.311   5.381
49539SOL    HW250457   9.072  12.168   5.377
49540SOL     OW50458  12.158  13.761   8.990
49540SOL    HW150459  12.171  13.811   8.909
49540SOL    HW250460  12.063  13.746   8.994
49541SOL     OW50461   3.116   6.136  13.091
49541SOL    HW150462   3.078   6.084  13.020
49541SOL    HW250463   3.083   6.097  13.171
49542SOL     OW50464  12.418   1.204   4.270
49542SOL    HW150465  12.377   1.291   4.273
49542SOL    HW250466  12.448   1.194   4.180
49543SOL     OW50467  12.221  12.074   9.737
49543SOL    HW150468  12.290  12.111   9.680
49543SOL    HW250469  12.161  12.031   9.676
49544SOL     OW50470  14.232   2.520  14.639
49544SOL    HW150471  14.200   2.610  14.635
49544SOL    HW250472  14.206   2.481  14.556
49545SOL     OW50473  12.270   7.729  14.350
49545SOL    HW150474  12.358   7.765  14.344
49545SOL    HW250475  12.278   7.640  14.315
49546SOL     OW50476   7.711   1.715  11.572
49546SOL    HW150477   7.792   1.757  11.600
49546SOL    HW250478   7.724   1.698  11.478
49547SOL     OW50479   0.388   0.503   3.667
49547SOL    HW150480   0.367   0.576   3.725
49547SOL    HW250481   0.349   0.527   3.583
49548SOL     OW50482   5.088   2.041   2.393
49548SOL    HW150483   4.996   2.034   2.420
49548SOL    HW250484   5.122   2.115   2.442
49549SOL     OW50485   8.590   8.583   1.038
49549SOL    HW150486   8.599   8.609   1.130
49549SOL    HW250487   8.569   8.490   1.041
49550SOL     OW50488  11.650   6.416   6.002
49550SOL    HW150489  11.623   6.507   6.015
49550SOL    HW250490  11.591   6.365   6.057
49551SOL     OW50491   2.370   5.743   6.762
49551SOL    HW150492   2.294   5.775   6.810
49551SOL    HW250493   2.363   5.782   6.675
49552SOL     OW50494   0.263   1.201  12.091
49552SOL    HW150495   0.357   1.219  12.087
49552SOL    HW250496   0.258   1.107  12.108
49553SOL     OW50497   6.990  14.204   0.138
49553SOL    HW150498   7.064  14.256   0.168
49553SOL    HW250499   6.960  14.158   0.216
49554SOL     OW50500   2.575   2.029   1.366
49554SOL    HW150501   2.606   2.061   1.450
49554SOL    HW250502   2.548   2.107   1.318
49555SOL     OW50503  13.980   2.065  11.257
49555SOL    HW150504  13.961   2.023  11.173
49555SOL    HW250505  14.072   2.041  11.274
49556SOL     OW50506   5.691   5.965   1.438
49556SOL    HW150507   5.718   5.874   1.427
49556SOL    HW250508   5.670   5.973   1.531
49557SOL     OW50509   9.713   3.785  10.848
49557SOL    HW150510   9.704   3.691  10.864
49557SOL    HW250511   9.777   3.815  10.914
49558SOL     OW50512  13.271  12.366  12.644
49558SOL    HW150513  13.211  12.424  12.597
49558SOL    HW250514  13.234  12.278  12.633
49559SOL     OW50515   7.175   8.999  13.258
49559SOL    HW150516   7.092   9.025  13.219
49559SOL    HW250517   7.154   8.922  13.312
49560SOL     OW50518  12.245  11.627   2.747
49560SOL    HW150519  12.285  11.713   2.743
49560SOL    HW250520  12.319  11.566   2.750
49561SOL     OW50521   8.192   0.749   0.261
49561SOL    HW150522   8.192   0.683   0.192
49561SOL    HW250523   8.231   0.827   0.221
49562SOL     OW50524  12.175   4.132   9.947
49562SOL    HW150525  12.097   4.170   9.987
49562SOL    HW250526  12.183   4.045   9.988
49563SOL     OW50527   2.659  12.871  14.611
49563SOL    HW150528   2.587  12.835  14.559
49563SOL    HW250529   2.619  12.939  14.664
49564SOL     OW50530   9.847   1.166   9.219
49564SOL    HW150531   9.848   1.074   9.195
49564SOL    HW250532   9.829   1.212   9.137
49565SOL     OW50533   0.643   1.937  12.495
49565SOL    HW150534   0.694   1.869  12.540
49565SOL    HW250535   0.607   1.892  12.418
49566SOL     OW50536  14.298  11.440   7.467
49566SOL    HW150537  14.355  11.423   7.542
49566SOL    HW250538  14.258  11.355   7.447
49567SOL     OW50539  14.234   1.832  10.771
49567SOL    HW150540  14.199   1.746  10.750
49567SOL    HW250541  14.156   1.887  10.784
49568SOL     OW50542   8.574   3.959   9.633
49568SOL    HW150543   8.626   3.885   9.666
49568SOL    HW250544   8.528   3.991   9.710
49569SOL     OW50545  13.094   6.612  14.667
49569SOL    HW150546  13.164   6.611  14.602
49569SOL    HW250547  13.031   6.676  14.633
49570SOL     OW50548   9.653   5.981   8.132
49570SOL    HW150549   9.738   5.944   8.107
49570SOL    HW250550   9.603   5.983   8.051
49571SOL     OW50551   0.035   3.970   5.894
49571SOL    HW150552   0.010   3.931   5.978
49571SOL    HW250553   0.051   4.062   5.915
49572SOL     OW50554   5.610   1.536   5.776
49572SOL    HW150555   5.690   1.587   5.762
49572SOL    HW250556   5.594   1.492   5.693
49573SOL     OW50557   0.251   5.852  12.307
49573SOL    HW150558   0.162   5.826  12.330
49573SOL    HW250559   0.258   5.834  12.213
49574SOL     OW50560   6.931   9.153   3.894
49574SOL    HW150561   6.933   9.086   3.826
49574SOL    HW250562   6.964   9.109   3.972
49575SOL     OW50563   1.155   0.344   5.937
49575SOL    HW150564   1.147   0.431   5.899
49575SOL    HW250565   1.155   0.285   5.861
49576SOL     OW50566  13.260   3.356   2.668
49576SOL    HW150567  13.288   3.302   2.594
49576SOL    HW250568  13.165   3.345   2.671
49577SOL     OW50569  12.581   8.343  14.818
49577SOL    HW150570  12.547   8.364  14.731
49577SOL    HW250571  12.632   8.420  14.843
49578SOL     OW50572   2.205   0.953   3.311
49578SOL    HW150573   2.238   1.001   3.235
49578SOL    HW250574   2.274   0.962   3.377
49579SOL     OW50575   6.793   2.514  10.986
49579SOL    HW150576   6.771   2.566  10.909
49579SOL    HW250577   6.847   2.572  11.040
49580SOL     OW50578  11.902  14.545  11.072
49580SOL    HW150579  11.815  14.504  11.068
49580SOL    HW250580  11.956  14.492  11.013
49581SOL     OW50581   0.116  14.501  10.120
49581SOL    HW150582   0.066  14.485  10.200
49581SOL    HW250583   0.097  14.426  10.064
49582SOL     OW50584   4.149  10.967  10.007
49582SOL    HW150585   4.175  10.992  10.096
49582SOL    HW250586   4.128  11.050   9.964
49583SOL     OW50587   2.246   6.135   7.167
49583SOL    HW150588   2.261   6.186   7.087
49583SOL    HW250589   2.311   6.064   7.163
49584SOL     OW50590  11.357   3.656   3.588
49584SOL    HW150591  11.408   3.627   3.512
49584SOL    HW250592  11.421   3.700   3.644
49585SOL     OW50593   4.142   5.293   6.169
49585SOL    HW150594   4.120   5.324   6.256
49585SOL    HW250595   4.141   5.371   6.114
49586SOL     OW50596   1.734   3.210   2.431
49586SOL    HW150597   1.680   3.258   2.369
49586SOL    HW250598   1.737   3.121   2.396
49587SOL     OW50599   1.263   6.545   1.028
49587SOL    HW150600   1.355   6.571   1.029
49587SOL    HW250601   1.235   6.561   0.938
49588SOL     OW50602   2.300   2.863   1.729
49588SOL    HW150603   2.346   2.947   1.724
49588SOL    HW250604   2.215   2.885   1.768
49589SOL     OW50605   9.217   3.137   7.136
49589SOL    HW150606   9.209   3.204   7.204
49589SOL    HW250607   9.262   3.065   7.180
49590SOL     OW50608  11.796  10.717   3.031
49590SOL    HW150609  11.726  10.769   2.991
49590SOL    HW250610  11.759  10.630   3.042
49591SOL     OW50611  11.732   1.636  12.053
49591SOL    HW150612  11.695   1.621  11.966
49591SOL    HW250613  11.665   1.605  12.113
49592SOL     OW50614   2.347  11.467  10.414
49592SOL    HW150615   2.308  11.431  10.493
49592SOL    HW250616   2.428  11.508  10.444
49593SOL     OW50617  10.330  11.365   7.746
49593SOL    HW150618  10.323  11.269   7.752
49593SOL    HW250619  10.359  11.393   7.833
49594SOL     OW50620   8.869   8.435   1.101
49594SOL    HW150621   8.920   8.512   1.075
49594SOL    HW250622   8.852   8.448   1.194
49595SOL     OW50623  14.697   5.666   4.745
49595SOL    HW150624  14.666   5.754   4.767
49595SOL    HW250625  14.713   5.669   4.651
49596SOL     OW50626  10.238   5.038   0.262
49596SOL    HW150627  10.193   5.086   0.193
49596SOL    HW250628  10.330   5.062   0.253
49597SOL     OW50629   9.869   7.654   7.972
49597SOL    HW150630   9.926   7.689   8.041
49597SOL    HW250631   9.783   7.692   7.990
49598SOL     OW50632   3.227   4.289   1.831
49598SOL    HW150633   3.318   4.317   1.818
49598SOL    HW250634   3.193   4.279   1.742
49599SOL     OW50635   2.156   5.082  12.894
49599SOL    HW150636   2.089   5.079  12.962
49599SOL    HW250637   2.225   5.024  12.925
49600SOL     OW50638  10.962   3.792   0.044
49600SOL    HW150639  10.955   3.795   0.140
49600SOL    HW250640  11.054   3.769   0.027
49601SOL     OW50641   7.913   6.653  10.107
49601SOL    HW150642   7.851   6.595  10.151
49601SOL    HW250643   7.927   6.724  10.170
49602SOL     OW50644   4.396   8.876   7.448
49602SOL    HW150645   4.316   8.924   7.424
49602SOL    HW250646   4.371   8.823   7.523
49603SOL     OW50647   8.186   1.641   2.493
49603SOL    HW150648   8.228   1.595   2.565
49603SOL    HW250649   8.173   1.574   2.426
49604SOL     OW50650   7.069  14.388   3.909
49604SOL    HW150651   7.024  14.391   3.993
49604SOL    HW250652   7.158  14.418   3.929
49605SOL     OW50653  11.061   1.707   6.166
49605SOL    HW150654  11.135   1.669   6.213
49605SOL    HW250655  11.035   1.783   6.217
49606SOL     OW50656   8.119   8.057   1.537
49606SOL    HW150657   8.142   8.021   1.622
49606SOL    HW250658   8.079   7.984   1.490
49607SOL     OW50659   4.033   3.374   1.678
49607SOL    HW150660   4.045   3.435   1.606
49607SOL    HW250661   4.083   3.412   1.750
49608SOL     OW50662   6.719   4.460  11.162
49608SOL    HW150663   6.640   4.503  11.129
49608SOL    HW250664   6.742   4.397  11.094
49609SOL     OW50665   5.542  11.631   8.321
49609SOL    HW150666   5.536  11.655   8.413
49609SOL    HW250667   5.454  11.600   8.299
49610SOL     OW50668  14.786  12.139   6.552
49610SOL    HW150669  14.842  12.105   6.621
49610SOL    HW250670  14.707  12.168   6.597
49611SOL     OW50671  13.046   2.471   7.612
49611SOL    HW150672  13.125   2.507   7.570
49611SOL    HW250673  12.995   2.434   7.540
49612SOL     OW50674   7.241   0.032   7.508
49612SOL    HW150675   7.275  14.869   7.431
49612SOL    HW250676   7.152   0.057   7.484
49613SOL     OW50677   9.456  11.719   9.860
49613SOL    HW150678   9.418  11.696   9.945
49613SOL    HW250679   9.388  11.697   9.797
49614SOL     OW50680  14.765   9.917   9.296
49614SOL    HW150681  14.771  10.012   9.287
49614SOL    HW250682  14.671   9.899   9.302
49615SOL     OW50683  10.129   1.397  10.884
49615SOL    HW150684  10.211   1.440  10.861
49615SOL    HW250685  10.066   1.427  10.818
49616SOL     OW50686   8.330   3.946   1.601
49616SOL    HW150687   8.310   4.013   1.667
49616SOL    HW250688   8.247   3.900   1.588
49617SOL     OW50689   5.086   4.574   5.465
49617SOL    HW150690   5.076   4.669   5.469
49617SOL    HW250691   4.996   4.541   5.472
49618SOL     OW50692   5.188   9.796   5.227
49618SOL    HW150693   5.173   9.720   5.172
49618SOL    HW250694   5.217   9.865   5.167
49619SOL     OW50695   8.831  11.285   5.128
49619SOL    HW150696   8.829  11.254   5.037
49619SOL    HW250697   8.922  11.271   5.156
49620SOL     OW50698   0.185   6.537   7.297
49620SOL    HW150699   0.141   6.582   7.369
49620SOL    HW250700   0.203   6.449   7.330
49621SOL     OW50701  11.244   1.854   2.146
49621SOL    HW150702  11.267   1.884   2.058
49621SOL    HW250703  11.216   1.934   2.191
49622SOL     OW50704  14.032  13.295   9.017
49622SOL    HW150705  13.963  13.229   9.027
49622SOL    HW250706  14.112  13.248   9.039
49623SOL     OW50707   4.286  14.315   7.089
49623SOL    HW150708   4.286  14.410   7.079
49623SOL    HW250709   4.364  14.297   7.141
49624SOL     OW50710   2.239   1.392   9.505
49624SOL    HW150711   2.324   1.357   9.478
49624SOL    HW250712   2.193   1.316   9.541
49625SOL     OW50713   6.149   4.933   2.827
49625SOL    HW150714   6.234   4.969   2.854
49625SOL    HW250715   6.164   4.839   2.822
49626SOL     OW50716   6.918   2.757  10.863
49626SOL    HW150717   6.954   2.838  10.828
49626SOL    HW250718   6.891   2.780  10.952
49627SOL     OW50719   9.665   2.598   1.132
49627SOL    HW150720   9.609   2.675   1.137
49627SOL    HW250721   9.611   2.530   1.093
49628SOL     OW50722   9.020   8.751   3.651
49628SOL    HW150723   9.015   8.762   3.556
49628SOL    HW250724   8.943   8.698   3.673
49629SOL     OW50725   9.222  12.577   3.642
49629SOL    HW150726   9.312  12.608   3.638
49629SOL    HW250727   9.212  12.523   3.564
49630SOL     OW50728   0.082   6.826   0.664
49630SOL    HW150729   0.067   6.734   0.688
49630SOL    HW250730   0.056   6.875   0.742
49631SOL     OW50731   5.850  11.523  10.554
49631SOL    HW150732   5.830  11.526  10.460
49631SOL    HW250733   5.807  11.600  10.590
49632SOL     OW50734   9.875   7.990  13.030
49632SOL    HW150735   9.834   7.952  13.108
49632SOL    HW250736   9.802   8.014  12.973
49633SOL     OW50737   5.686   9.654  10.830
49633SOL    HW150738   5.682   9.630  10.923
49633SOL    HW250739   5.663   9.747  10.828
49634SOL     OW50740   8.696   1.653   8.102
49634SOL    HW150741   8.702   1.722   8.036
49634SOL    HW250742   8.602   1.641   8.115
49635SOL     OW50743   9.161   0.451  12.615
49635SOL    HW150744   9.081   0.399  12.625
49635SOL    HW250745   9.134   0.541  12.634
49636SOL     OW50746   8.678   0.443  12.029
49636SOL    HW150747   8.587   0.454  12.001
49636SOL    HW250748   8.688   0.349  12.041
49637SOL     OW50749   1.386   9.585   9.009
49637SOL    HW150750   1.406   9.502   8.967
49637SOL    HW250751   1.471   9.628   9.019
49638SOL     OW50752  13.084   6.515  13.148
49638SOL    HW150753  13.160   6.568  13.172
49638SOL    HW250754  13.120   6.445  13.093
49639SOL     OW50755   2.394  14.835  11.234
49639SOL    HW150756   2.458  14.793  11.291
49639SOL    HW250757   2.322  14.773  11.228
49640SOL     OW50758   4.213  14.178  13.340
49640SOL    HW150759   4.203  14.216  13.252
49640SOL    HW250760   4.301  14.204  13.367
49641SOL     OW50761  13.036  14.777   8.575
49641SOL    HW150762  12.983  14.697   8.585
49641SOL    HW250763  12.978  14.840   8.534
49642SOL     OW50764  10.802  11.667   5.941
49642SOL    HW150765  10.714  11.700   5.960
49642SOL    HW250766  10.788  11.578   5.907
49643SOL     OW50767  11.399   1.332   4.270
49643SOL    HW150768  11.326   1.349   4.210
49643SOL    HW250769  11.359   1.291   4.346
49644SOL     OW50770   2.725  12.713   1.159
49644SOL    HW150771   2.767  12.724   1.244
49644SOL    HW250772   2.796  12.714   1.095
49645SOL     OW50773   2.782  12.280  11.610
49645SOL    HW150774   2.719  12.214  11.582
49645SOL    HW250775   2.781  12.275  11.706
49646SOL     OW50776   4.845   2.805  11.341
49646SOL    HW150777   4.801   2.722  11.359
49646SOL    HW250778   4.852   2.807  11.245
49647SOL     OW50779  14.597   0.085   5.174
49647SOL    HW150780  14.565   0.160   5.223
49647SOL    HW250781  14.533   0.073   5.104
49648SOL     OW50782  13.769  11.430   8.571
49648SOL    HW150783  13.712  11.356   8.592
49648SOL    HW250784  13.853  11.407   8.613
49649SOL     OW50785   0.194   3.902   0.147
49649SOL    HW150786   0.189   3.967   0.078
49649SOL    HW250787   0.215   3.953   0.226
49650SOL     OW50788  12.275   5.399  10.241
49650SOL    HW150789  12.202   5.337  10.238
49650SOL    HW250790  12.238   5.481  10.210
49651SOL     OW50791  12.310  14.845   7.566
49651SOL    HW150792  12.372  14.775   7.586
49651SOL    HW250793  12.301   0.011   7.648
49652SOL     OW50794  10.980   1.168   3.488
49652SOL    HW150795  11.000   1.133   3.574
49652SOL    HW250796  10.909   1.231   3.504
49653SOL     OW50797  14.782   1.464   4.924
49653SOL    HW150798  14.841   1.401   4.965
49653SOL    HW250799  14.798   1.546   4.971
49654SOL     OW50800  14.167   1.264  11.605
49654SOL    HW150801  14.224   1.190  11.587
49654SOL    HW250802  14.112   1.271  11.527
49655SOL     OW50803   7.215  11.797   9.879
49655SOL    HW150804   7.203  11.891   9.862
49655SOL    HW250805   7.261  11.765   9.802
49656SOL     OW50806   1.448   6.770   4.132
49656SOL    HW150807   1.455   6.780   4.037
49656SOL    HW250808   1.424   6.858   4.162
49657SOL     OW50809   0.344   6.016  14.185
49657SOL    HW150810   0.422   5.961  14.188
49657SOL    HW250811   0.359   6.075  14.111
49658SOL     OW50812   8.396   5.705   5.859
49658SOL    HW150813   8.435   5.791   5.875
49658SOL    HW250814   8.468   5.652   5.825
49659SOL     OW50815  14.871   4.713   2.653
49659SOL    HW150816   0.012   4.790   2.704
49659SOL    HW250817  14.800   4.672   2.704
49660SOL     OW50818   7.545   0.817   4.909
49660SOL    HW150819   7.571   0.765   4.985
49660SOL    HW250820   7.627   0.836   4.864
49661SOL     OW50821   2.069   8.840   6.080
49661SOL    HW150822   2.104   8.929   6.083
49661SOL    HW250823   2.002   8.842   6.013
49662SOL     OW50824   9.230   4.375   9.232
49662SOL    HW150825   9.273   4.460   9.224
49662SOL    HW250826   9.212   4.349   9.142
49663SOL     OW50827   8.822   3.545  10.375
49663SOL    HW150828   8.891   3.606  10.346
49663SOL    HW250829   8.750   3.602  10.400
49664SOL     OW50830  11.734   2.523  10.821
49664SOL    HW150831  11.756   2.611  10.851
49664SOL    HW250832  11.815   2.491  10.781
49665SOL     OW50833  11.545   3.593  13.162
49665SOL    HW150834  11.497   3.552  13.090
49665SOL    HW250835  11.581   3.673  13.125
49666SOL     OW50836   5.544  14.433   1.877
49666SOL    HW150837   5.585  14.392   1.953
49666SOL    HW250838   5.573  14.381   1.803
49667SOL     OW50839   6.887   1.616   5.095
49667SOL    HW150840   6.794   1.637   5.105
49667SOL    HW250841   6.889   1.520   5.095
49668SOL     OW50842   9.800  10.947   5.108
49668SOL    HW150843   9.819  10.951   5.202
49668SOL    HW250844   9.735  11.016   5.094
49669SOL     OW50845   6.881   6.872  11.534
49669SOL    HW150846   6.852   6.858  11.443
49669SOL    HW250847   6.936   6.797  11.553
49670SOL     OW50848   5.428   4.083   6.809
49670SOL    HW150849   5.362   4.144   6.842
49670SOL    HW250850   5.502   4.093   6.869
49671SOL     OW50851   9.123  13.496   5.149
49671SOL    HW150852   9.042  13.526   5.192
49671SOL    HW250853   9.094  13.464   5.064
49672SOL     OW50854   8.585  12.002  12.555
49672SOL    HW150855   8.610  12.094  12.563
49672SOL    HW250856   8.514  12.001  12.492
49673SOL     OW50857   8.599   3.711   2.277
49673SOL    HW150858   8.555   3.763   2.344
49673SOL    HW250859   8.624   3.775   2.210
49674SOL     OW50860   2.693  11.626   1.292
49674SOL    HW150861   2.654  11.646   1.377
49674SOL    HW250862   2.786  11.646   1.304
49675SOL     OW50863   7.953  11.599   5.654
49675SOL    HW150864   7.910  11.666   5.706
49675SOL    HW250865   8.022  11.565   5.711
49676SOL     OW50866  12.050  11.660   0.806
49676SOL    HW150867  11.984  11.627   0.866
49676SOL    HW250868  12.001  11.718   0.747
49677SOL     OW50869   1.255   5.834   3.086
49677SOL    HW150870   1.343   5.857   3.115
49677SOL    HW250871   1.200   5.846   3.163
49678SOL     OW50872   2.258   6.034  14.265
49678SOL    HW150873   2.268   6.127  14.247
49678SOL    HW250874   2.224   5.997  14.183
49679SOL     OW50875   2.080   3.000  10.650
49679SOL    HW150876   2.093   2.980  10.557
49679SOL    HW250877   2.078   2.915  10.693
49680SOL     OW50878   1.828   6.627   2.114
49680SOL    HW150879   1.904   6.659   2.163
49680SOL    HW250880   1.859   6.548   2.070
49681SOL     OW50881   3.361  13.187   6.946
49681SOL    HW150882   3.423  13.222   7.010
49681SOL    HW250883   3.323  13.264   6.904
49682SOL     OW50884   1.734   9.025   6.423
49682SOL    HW150885   1.652   9.023   6.472
49682SOL    HW250886   1.750   9.118   6.408
49683SOL     OW50887   8.754   5.184   4.320
49683SOL    HW150888   8.762   5.228   4.236
49683SOL    HW250889   8.841   5.189   4.359
49684SOL     OW50890   5.813   4.813   2.305
49684SOL    HW150891   5.718   4.820   2.294
49684SOL    HW250892   5.824   4.741   2.367
49685SOL     OW50893  12.818  12.536   2.266
49685SOL    HW150894  12.810  12.444   2.240
49685SOL    HW250895  12.911  12.556   2.253
49686SOL     OW50896   8.680  13.625  10.774
49686SOL    HW150897   8.660  13.552  10.833
49686SOL    HW250898   8.723  13.690  10.830
49687SOL     OW50899   6.781  13.296   3.057
49687SOL    HW150900   6.710  13.360   3.051
49687SOL    HW250901   6.854  13.345   3.095
49688SOL     OW50902   6.296   5.084  11.779
49688SOL    HW150903   6.251   5.167  11.799
49688SOL    HW250904   6.227   5.018  11.783
49689SOL     OW50905   6.747  12.384   4.213
49689SOL    HW150906   6.837  12.355   4.224
49689SOL    HW250907   6.695  12.322   4.264
49690SOL     OW50908   0.280  10.598   0.293
49690SOL    HW150909   0.199  10.570   0.251
49690SOL    HW250910   0.336  10.521   0.291
49691SOL     OW50911   6.385   1.916  12.840
49691SOL    HW150912   6.346   1.954  12.761
49691SOL    HW250913   6.455   1.977  12.864
49692SOL     OW50914   4.028   6.275  11.767
49692SOL    HW150915   4.038   6.180  11.761
49692SOL    HW250916   4.043   6.295  11.859
49693SOL     OW50917   8.396   4.274   1.167
49693SOL    HW150918   8.333   4.275   1.095
49693SOL    HW250919   8.396   4.183   1.197
49694SOL     OW50920   3.697   9.279   7.532
49694SOL    HW150921   3.664   9.279   7.622
49694SOL    HW250922   3.667   9.196   7.496
49695SOL     OW50923   7.453   3.858   4.317
49695SOL    HW150924   7.476   3.878   4.226
49695SOL    HW250925   7.386   3.922   4.339
49696SOL     OW50926   8.190   6.348  10.571
49696SOL    HW150927   8.117   6.407  10.590
49696SOL    HW250928   8.250   6.359  10.644
49697SOL     OW50929  12.103   0.092  14.447
49697SOL    HW150930  12.154   0.159  14.493
49697SOL    HW250931  12.168   0.044  14.395
49698SOL     OW50932   1.426  12.688  14.064
49698SOL    HW150933   1.331  12.701  14.072
49698SOL    HW250934   1.462  12.777  14.068
49699SOL     OW50935  13.952  13.821  14.624
49699SOL    HW150936  14.037  13.865  14.614
49699SOL    HW250937  13.970  13.748  14.684
49700SOL     OW50938   4.203   6.995   6.584
49700SOL    HW150939   4.257   6.916   6.584
49700SOL    HW250940   4.260   7.063   6.620
49701SOL     OW50941  14.201   4.018  13.620
49701SOL    HW150942  14.175   4.084  13.684
49701SOL    HW250943  14.187   4.060  13.535
49702SOL     OW50944  13.950   9.199  12.818
49702SOL    HW150945  14.046   9.207  12.820
49702SOL    HW250946  13.935   9.109  12.789
49703SOL     OW50947  11.530   2.889   6.634
49703SOL    HW150948  11.467   2.906   6.564
49703SOL    HW250949  11.480   2.846   6.703
49704SOL     OW50950   1.682   7.164   8.552
49704SOL    HW150951   1.649   7.075   8.540
49704SOL    HW250952   1.650   7.190   8.639
49705SOL     OW50953   4.515  13.684   8.438
49705SOL    HW150954   4.462  13.735   8.499
49705SOL    HW250955   4.451  13.640   8.382
49706SOL     OW50956   1.204   8.080  13.548
49706SOL    HW150957   1.121   8.118  13.578
49706SOL    HW250958   1.187   8.054  13.458
49707SOL     OW50959   6.419   0.961   0.463
49707SOL    HW150960   6.455   0.941   0.377
49707SOL    HW250961   6.325   0.947   0.453
49708SOL     OW50962   1.157  14.666   2.629
49708SOL    HW150963   1.078  14.666   2.575
49708SOL    HW250964   1.154  14.750   2.676
49709SOL     OW50965  14.840   6.840   5.821
49709SOL    HW150966  14.871   6.750   5.810
49709SOL    HW250967  14.763   6.831   5.878
49710SOL     OW50968   6.429   4.437  12.813
49710SOL    HW150969   6.480   4.362  12.842
49710SOL    HW250970   6.419   4.424  12.718
49711SOL     OW50971   1.590   7.321   6.036
49711SOL    HW150972   1.577   7.396   5.979
49711SOL    HW250973   1.546   7.344   6.118
49712SOL     OW50974   7.721  13.439   5.040
49712SOL    HW150975   7.794  13.490   5.075
49712SOL    HW250976   7.674  13.499   4.982
49713SOL     OW50977   2.806   3.141  11.456
49713SOL    HW150978   2.715   3.140  11.485
49713SOL    HW250979   2.826   3.050  11.435
49714SOL     OW50980   3.957  11.586   0.628
49714SOL    HW150981   3.879  11.546   0.589
49714SOL    HW250982   3.992  11.642   0.559
49715SOL     OW50983   3.602   4.421   7.765
49715SOL    HW150984   3.513   4.393   7.743
49715SOL    HW250985   3.601   4.516   7.755
49716SOL     OW50986   5.833   6.819  12.457
49716SOL    HW150987   5.746   6.780  12.457
49716SOL    HW250988   5.825   6.896  12.400
49717SOL     OW50989   0.172   1.964   9.035
49717SOL    HW150990   0.227   2.020   8.981
49717SOL    HW250991   0.117   2.024   9.084
49718SOL     OW50992   1.234   7.259   6.468
49718SOL    HW150993   1.250   7.196   6.398
49718SOL    HW250994   1.182   7.328   6.427
49719SOL     OW50995  13.686   8.841   5.346
49719SOL    HW150996  13.625   8.813   5.414
49719SOL    HW250997  13.657   8.795   5.267
49720SOL     OW50998  13.595   9.238  13.411
49720SOL    HW150999  13.647   9.310  13.445
49720SOL    HW251000  13.509   9.275  13.395
49721SOL     OW51001   3.149   2.631   4.273
49721SOL    HW151002   3.196   2.556   4.309
49721SOL    HW251003   3.074   2.643   4.332
49722SOL     OW51004  11.264   3.959   8.957
49722SOL    HW151005  11.315   3.888   8.917
49722SOL    HW251006  11.238   3.924   9.042
49723SOL     OW51007   3.780   2.786   4.658
49723SOL    HW151008   3.699   2.744   4.687
49723SOL    HW251009   3.804   2.740   4.578
49724SOL     OW51010   5.943   9.320  14.679
49724SOL    HW151011   5.893   9.296  14.602
49724SOL    HW251012   5.986   9.402  14.655
49725SOL     OW51013   9.162  11.129  10.290
49725SOL    HW151014   9.115  11.058  10.333
49725SOL    HW251015   9.247  11.131  10.333
49726SOL     OW51016  14.675  10.225  13.023
49726SOL    HW151017  14.663  10.296  12.960
49726SOL    HW251018  14.657  10.265  13.108
49727SOL     OW51019  10.416   1.728  13.996
49727SOL    HW151020  10.436   1.815  14.032
49727SOL    HW251021  10.353   1.745  13.926
49728SOL     OW51022  10.779  12.998  13.602
49728SOL    HW151023  10.841  13.066  13.576
49728SOL    HW251024  10.832  12.921  13.617
49729SOL     OW51025   8.851   7.926  13.495
49729SOL    HW151026   8.938   7.926  13.455
49729SOL    HW251027   8.861   7.869  13.572
49730SOL     OW51028   4.754   4.792  10.995
49730SOL    HW151029   4.719   4.755  10.914
49730SOL    HW251030   4.776   4.716  11.048
49731SOL     OW51031   0.917  14.252  13.479
49731SOL    HW151032   0.873  14.325  13.436
49731SOL    HW251033   0.987  14.228  13.418
49732SOL     OW51034   9.509  13.705   2.904
49732SOL    HW151035   9.458  13.746   2.834
49732SOL    HW251036   9.512  13.612   2.880
49733SOL     OW51037   8.602   6.364   2.771
49733SOL    HW151038   8.640   6.353   2.684
49733SOL    HW251039   8.664   6.420   2.817
49734SOL     OW51040   4.095   4.077  14.741
49734SOL    HW151041   4.178   4.055  14.698
49734SOL    HW251042   4.104   4.045  14.830
49735SOL     OW51043  10.691  11.267   5.184
49735SOL    HW151044  10.617  11.225   5.228
49735SOL    HW251045  10.751  11.290   5.256
49736SOL     OW51046   2.111   9.384  10.361
49736SOL    HW151047   2.044   9.317  10.349
49736SOL    HW251048   2.105   9.438  10.282
49737SOL     OW51049   9.948   5.288   2.357
49737SOL    HW151050  10.037   5.323   2.350
49737SOL    HW251051   9.895   5.364   2.381
49738SOL     OW51052   6.858  14.802  13.664
49738SOL    HW151053   6.835  14.795  13.756
49738SOL    HW251054   6.936  14.857  13.663
49739SOL     OW51055   1.956   5.966  11.535
49739SOL    HW151056   2.046   5.940  11.558
49739SOL    HW251057   1.919   5.887  11.495
49740SOL     OW51058   6.259  11.037   4.663
49740SOL    HW151059   6.222  10.977   4.597
49740SOL    HW251060   6.329  10.987   4.704
49741SOL     OW51061   1.280  10.131  10.213
49741SOL    HW151062   1.357  10.120  10.269
49741SOL    HW251063   1.312  10.115  10.125
49742SOL     OW51064  11.583  12.393   7.193
49742SOL    HW151065  11.623  12.386   7.106
49742SOL    HW251066  11.533  12.475   7.190
49743SOL     OW51067  10.275   9.448   3.590
49743SOL    HW151068  10.299   9.480   3.503
49743SOL    HW251069  10.231   9.365   3.573
49744SOL     OW51070   6.336  10.288   0.899
49744SOL    HW151071   6.243  10.311   0.901
49744SOL    HW251072   6.341  10.206   0.950
49745SOL     OW51073  13.759   8.610  12.954
49745SOL    HW151074  13.848   8.576  12.952
49745SOL    HW251075  13.748   8.655  12.870
49746SOL     OW51076  10.876   6.175   4.431
49746SOL    HW151077  10.852   6.198   4.341
49746SOL    HW251078  10.961   6.133   4.424
49747SOL     OW51079   0.319   5.229   6.519
49747SOL    HW151080   0.413   5.231   6.537
49747SOL    HW251081   0.294   5.320   6.507
49748SOL     OW51082   7.206   3.771  14.422
49748SOL    HW151083   7.162   3.847  14.461
49748SOL    HW251084   7.193   3.781  14.328
49749SOL     OW51085   0.084  11.445  10.652
49749SOL    HW151086   0.097  11.494  10.571
49749SOL    HW251087  14.871  11.443  10.663
49750SOL     OW51088  13.077   8.731   6.899
49750SOL    HW151089  13.019   8.700   6.969
49750SOL    HW251090  13.030   8.804   6.859
49751SOL     OW51091  14.642   7.207   6.109
49751SOL    HW151092  14.588   7.134   6.078
49751SOL    HW251093  14.686   7.240   6.030
49752SOL     OW51094  13.461   8.621   0.578
49752SOL    HW151095  13.421   8.706   0.563
49752SOL    HW251096  13.495   8.625   0.667
49753SOL     OW51097  12.263  11.797  12.636
49753SOL    HW151098  12.179  11.771  12.596
49753SOL    HW251099  12.304  11.852  12.570
49754SOL     OW51100  10.127   1.026   3.418
49754SOL    HW151101  10.170   1.039   3.333
49754SOL    HW251102  10.112   0.932   3.423
49755SOL     OW51103  14.227  13.861  10.544
49755SOL    HW151104  14.269  13.866  10.630
49755SOL    HW251105  14.273  13.790  10.499
49756SOL     OW51106  11.305  11.723  12.763
49756SOL    HW151107  11.300  11.818  12.773
49756SOL    HW251108  11.231  11.690  12.813
49757SOL     OW51109   6.742  12.108   7.223
49757SOL    HW151110   6.740  12.018   7.255
49757SOL    HW251111   6.827  12.141   7.251
49758SOL     OW51112   2.729   0.512  14.771
49758SOL    HW151113   2.806   0.473  14.812
49758SOL    HW251114   2.677   0.544  14.844
49759SOL     OW51115  10.667   2.047   7.862
49759SOL    HW151116  10.623   1.962   7.866
49759SOL    HW251117  10.759   2.025   7.853
49760SOL     OW51118   3.244   4.864  11.787
49760SOL    HW151119   3.164   4.915  11.783
49760SOL    HW251120   3.280   4.867  11.699
49761SOL     OW51121  11.808  13.725   0.289
49761SOL    HW151122  11.790  13.819   0.286
49761SOL    HW251123  11.738  13.688   0.342
49762SOL     OW51124   6.247  10.948   7.629
49762SOL    HW151125   6.281  11.037   7.615
49762SOL    HW251126   6.233  10.914   7.540
49763SOL     OW51127   2.639   2.110   3.062
49763SOL    HW151128   2.614   2.186   3.114
49763SOL    HW251129   2.582   2.113   2.985
49764SOL     OW51130   3.468   7.738   9.456
49764SOL    HW151131   3.434   7.669   9.514
49764SOL    HW251132   3.552   7.703   9.425
49765SOL     OW51133   7.688  14.857   7.271
49765SOL    HW151134   7.723  14.768   7.267
49765SOL    HW251135   7.650  14.863   7.359
49766SOL     OW51136  13.601   8.330  13.193
49766SOL    HW151137  13.560   8.302  13.274
49766SOL    HW251138  13.554   8.411  13.169
49767SOL     OW51139  12.797   3.716  11.949
49767SOL    HW151140  12.840   3.795  11.980
49767SOL    HW251141  12.867   3.665  11.906
49768SOL     OW51142   4.017   8.250   1.099
49768SOL    HW151143   4.031   8.162   1.065
49768SOL    HW251144   4.103   8.277   1.132
49769SOL     OW51145   8.958   0.423   9.156
49769SOL    HW151146   8.956   0.339   9.202
49769SOL    HW251147   8.943   0.488   9.224
49770SOL     OW51148   2.587  14.208  11.390
49770SOL    HW151149   2.504  14.163  11.408
49770SOL    HW251150   2.562  14.281  11.333
49771SOL     OW51151   5.449   2.189   5.523
49771SOL    HW151152   5.409   2.106   5.497
49771SOL    HW251153   5.413   2.207   5.610
49772SOL     OW51154   6.553  12.249  12.119
49772SOL    HW151155   6.463  12.216  12.114
49772SOL    HW251156   6.601  12.180  12.164
49773SOL     OW51157   9.344   2.021   2.727
49773SOL    HW151158   9.276   1.987   2.669
49773SOL    HW251159   9.426   1.991   2.688
49774SOL     OW51160   4.146   8.228   4.919
49774SOL    HW151161   4.179   8.230   4.829
49774SOL    HW251162   4.092   8.307   4.927
49775SOL     OW51163   5.119   4.078  11.644
49775SOL    HW151164   5.159   4.058  11.728
49775SOL    HW251165   5.186   4.127  11.596
49776SOL     OW51166   1.609  11.085   3.169
49776SOL    HW151167   1.701  11.068   3.150
49776SOL    HW251168   1.591  11.034   3.248
49777SOL     OW51169   4.260   6.063   7.360
49777SOL    HW151170   4.312   6.130   7.406
49777SOL    HW251171   4.170   6.091   7.373
49778SOL     OW51172   4.958   1.663   1.398
49778SOL    HW151173   5.007   1.704   1.326
49778SOL    HW251174   5.026   1.622   1.452
49779SOL     OW51175   1.446   3.070   4.979
49779SOL    HW151176   1.454   3.091   4.886
49779SOL    HW251177   1.399   2.987   4.980
49780SOL     OW51178   1.331   5.289   3.989
49780SOL    HW151179   1.276   5.263   3.915
49780SOL    HW251180   1.407   5.332   3.948
49781SOL     OW51181   5.201  14.419   3.685
49781SOL    HW151182   5.143  14.490   3.657
49781SOL    HW251183   5.171  14.398   3.774
49782SOL     OW51184   3.563   9.780   9.102
49782SOL    HW151185   3.477   9.815   9.128
49782SOL    HW251186   3.544   9.693   9.067
49783SOL     OW51187   9.654   8.175   3.883
49783SOL    HW151188   9.572   8.178   3.834
49783SOL    HW251189   9.721   8.158   3.818
49784SOL     OW51190   1.127   3.872   0.145
49784SOL    HW151191   1.131   3.956   0.099
49784SOL    HW251192   1.067   3.819   0.093
49785SOL     OW51193   8.283   6.103  12.262
49785SOL    HW151194   8.228   6.037  12.304
49785SOL    HW251195   8.360   6.110  12.320
49786SOL     OW51196   3.800   8.703  12.799
49786SOL    HW151197   3.850   8.776  12.835
49786SOL    HW251198   3.822   8.703  12.706
49787SOL     OW51199  12.295   6.179  11.002
49787SOL    HW151200  12.223   6.154  11.059
49787SOL    HW251201  12.267   6.261  10.961
49788SOL     OW51202   6.646   1.157   8.557
49788SOL    HW151203   6.670   1.169   8.465
49788SOL    HW251204   6.557   1.191   8.563
49789SOL     OW51205  13.022   9.638   2.669
49789SOL    HW151206  13.058   9.727   2.666
49789SOL    HW251207  12.935   9.647   2.628
49790SOL     OW51208  14.136   3.376  10.899
49790SOL    HW151209  14.133   3.416  10.811
49790SOL    HW251210  14.171   3.288  10.884
49791SOL     OW51211  10.928  11.817   1.006
49791SOL    HW151212  10.889  11.900   1.035
49791SOL    HW251213  10.990  11.843   0.937
49792SOL     OW51214  10.475   1.500   4.114
49792SOL    HW151215  10.480   1.484   4.020
49792SOL    HW251216  10.383   1.492   4.136
49793SOL     OW51217   1.003   3.720  14.050
49793SOL    HW151218   1.055   3.767  14.115
49793SOL    HW251219   0.918   3.707  14.092
49794SOL     OW51220   2.948   8.412  11.914
49794SOL    HW151221   3.004   8.392  11.989
49794SOL    HW251222   2.956   8.335  11.857
49795SOL     OW51223   9.157   2.446   7.384
49795SOL    HW151224   9.100   2.418   7.312
49795SOL    HW251225   9.124   2.532   7.409
49796SOL     OW51226   3.295   6.990   4.799
49796SOL    HW151227   3.329   6.990   4.710
49796SOL    HW251228   3.331   7.070   4.838
49797SOL     OW51229   7.434  10.939  13.528
49797SOL    HW151230   7.516  10.923  13.481
49797SOL    HW251231   7.379  10.985  13.465
49798SOL     OW51232   9.292   7.849   5.749
49798SOL    HW151233   9.337   7.860   5.666
49798SOL    HW251234   9.200   7.866   5.729
49799SOL     OW51235   5.052  14.722  14.829
49799SOL    HW151236   5.062  14.658   0.017
49799SOL    HW251237   4.992  14.787  14.865
49800SOL     OW51238   6.111   5.456  10.446
49800SOL    HW151239   6.139   5.368  10.422
49800SOL    HW251240   6.179   5.488  10.506
49801SOL     OW51241   8.282   1.174   6.058
49801SOL    HW151242   8.283   1.105   6.125
49801SOL    HW251243   8.336   1.140   5.987
49802SOL     OW51244   7.038   5.416  10.974
49802SOL    HW151245   6.961   5.361  10.990
49802SOL    HW251246   7.079   5.377  10.897
49803SOL     OW51247   3.810   4.615  13.301
49803SOL    HW151248   3.722   4.646  13.322
49803SOL    HW251249   3.841   4.574  13.382
49804SOL     OW51250   6.803   7.673   0.222
49804SOL    HW151251   6.891   7.695   0.192
49804SOL    HW251252   6.817   7.631   0.307
49805SOL     OW51253  14.520   0.059  11.822
49805SOL    HW151254  14.544   0.083  11.912
49805SOL    HW251255  14.598   0.078  11.770
49806SOL     OW51256   3.331   7.327   7.673
49806SOL    HW151257   3.321   7.295   7.583
49806SOL    HW251258   3.241   7.337   7.704
49807SOL     OW51259  12.752   1.843   4.982
49807SOL    HW151260  12.664   1.883   4.986
49807SOL    HW251261  12.740   1.757   5.022
49808SOL     OW51262   5.389   4.332   3.264
49808SOL    HW151263   5.335   4.252   3.262
49808SOL    HW251264   5.412   4.347   3.173
49809SOL     OW51265   4.695   9.826   5.429
49809SOL    HW151266   4.732   9.912   5.407
49809SOL    HW251267   4.698   9.823   5.525
49810SOL     OW51268  12.903   1.332   1.204
49810SOL    HW151269  12.842   1.261   1.181
49810SOL    HW251270  12.847   1.408   1.216
49811SOL     OW51271  14.007  12.171  13.570
49811SOL    HW151272  13.967  12.224  13.640
49811SOL    HW251273  14.062  12.233  13.523
49812SOL     OW51274  13.960  13.136  12.004
49812SOL    HW151275  13.957  13.197  11.930
49812SOL    HW251276  14.051  13.105  12.006
49813SOL     OW51277   1.882   7.798   7.361
49813SOL    HW151278   1.939   7.754   7.424
49813SOL    HW251279   1.814   7.839   7.414
49814SOL     OW51280   1.612   8.155   7.525
49814SOL    HW151281   1.649   8.146   7.438
49814SOL    HW251282   1.650   8.236   7.560
49815SOL     OW51283  11.358   9.465   6.887
49815SOL    HW151284  11.440   9.486   6.842
49815SOL    HW251285  11.386   9.413   6.963
49816SOL     OW51286  14.011  11.937   0.017
49816SOL    HW151287  14.073  11.887   0.070
49816SOL    HW251288  13.984  12.010   0.073
49817SOL     OW51289   5.173  14.081   3.959
49817SOL    HW151290   5.202  14.022   3.890
49817SOL    HW251291   5.183  14.169   3.921
49818SOL     OW51292  11.526  11.762  11.747
49818SOL    HW151293  11.528  11.735  11.839
49818SOL    HW251294  11.434  11.759  11.723
49819SOL     OW51295   2.057  10.536   3.202
49819SOL    HW151296   1.990  10.510   3.139
49819SOL    HW251297   2.036  10.487   3.281
49820SOL     OW51298  10.549   4.320   2.796
49820SOL    HW151299  10.481   4.303   2.862
49820SOL    HW251300  10.503   4.317   2.712
49821SOL     OW51301   3.957   0.238   9.314
49821SOL    HW151302   3.957   0.332   9.333
49821SOL    HW251303   4.024   0.228   9.246
49822SOL     OW51304  14.309   8.556   6.229
49822SOL    HW151305  14.255   8.518   6.159
49822SOL    HW251306  14.333   8.481   6.284
49823SOL     OW51307   5.013   4.792  12.288
49823SOL    HW151308   5.091   4.748  12.321
49823SOL    HW251309   4.977   4.838  12.364
49824SOL     OW51310  10.792   2.251   1.755
49824SOL    HW151311  10.798   2.344   1.779
49824SOL    HW251312  10.869   2.211   1.796
49825SOL     OW51313   0.189   1.189   1.757
49825SOL    HW151314   0.281   1.211   1.771
49825SOL    HW251315   0.170   1.122   1.823
49826SOL     OW51316   1.506   3.551   3.170
49826SOL    HW151317   1.425   3.549   3.120
49826SOL    HW251318   1.564   3.609   3.120
49827SOL     OW51319   9.850   7.538  13.408
49827SOL    HW151320   9.852   7.552  13.313
49827SOL    HW251321   9.758   7.554  13.432
49828SOL     OW51322   6.554   4.414   5.543
49828SOL    HW151323   6.476   4.415   5.486
49828SOL    HW251324   6.536   4.345   5.607
49829SOL     OW51325   3.170   2.539  12.585
49829SOL    HW151326   3.176   2.597  12.661
49829SOL    HW251327   3.134   2.594  12.515
49830SOL     OW51328  11.900   5.779   8.026
49830SOL    HW151329  11.895   5.837   7.950
49830SOL    HW251330  11.923   5.693   7.990
49831SOL     OW51331   7.012   2.341   7.593
49831SOL    HW151332   6.924   2.303   7.595
49831SOL    HW251333   7.071   2.266   7.580
49832SOL     OW51334  10.091   5.204   2.088
49832SOL    HW151335  10.009   5.161   2.060
49832SOL    HW251336  10.070   5.240   2.174
49833SOL     OW51337   3.272  14.690  14.617
49833SOL    HW151338   3.185  14.655  14.639
49833SOL    HW251339   3.323  14.614  14.591
49834SOL     OW51340   1.398   9.701  11.909
49834SOL    HW151341   1.309   9.672  11.893
49834SOL    HW251342   1.453   9.641  11.858
49835SOL     OW51343   6.542   4.008   8.799
49835SOL    HW151344   6.500   4.076   8.745
49835SOL    HW251345   6.486   3.932   8.790
49836SOL     OW51346  12.645   8.569   0.102
49836SOL    HW151347  12.645   8.511   0.178
49836SOL    HW251348  12.593   8.645   0.130
49837SOL     OW51349   0.689   7.014   8.455
49837SOL    HW151350   0.756   6.998   8.521
49837SOL    HW251351   0.716   7.096   8.413
49838SOL     OW51352  13.240  11.131   3.566
49838SOL    HW151353  13.154  11.092   3.579
49838SOL    HW251354  13.237  11.212   3.617
49839SOL     OW51355  14.160   2.272   9.427
49839SOL    HW151356  14.105   2.338   9.468
49839SOL    HW251357  14.140   2.191   9.475
49840SOL     OW51358  12.078   9.240  13.431
49840SOL    HW151359  11.985   9.224  13.450
49840SOL    HW251360  12.113   9.153  13.409
49841SOL     OW51361   1.081   4.964   8.469
49841SOL    HW151362   1.099   4.949   8.562
49841SOL    HW251363   1.167   4.960   8.427
49842SOL     OW51364  13.761   6.161   5.148
49842SOL    HW151365  13.745   6.124   5.234
49842SOL    HW251366  13.703   6.112   5.090
49843SOL     OW51367   2.751  10.840  11.484
49843SOL    HW151368   2.826  10.780  11.481
49843SOL    HW251369   2.725  10.851  11.393
49844SOL     OW51370  10.094   0.002   1.387
49844SOL    HW151371  10.085  14.789   1.394
49844SOL    HW251372  10.161   0.016   1.320
49845SOL     OW51373   2.687   5.367   1.937
49845SOL    HW151374   2.761   5.353   1.878
49845SOL    HW251375   2.628   5.425   1.889
49846SOL     OW51376   4.263   4.819  14.053
49846SOL    HW151377   4.245   4.731  14.087
49846SOL    HW251378   4.293   4.805  13.963
49847SOL     OW51379   2.543  10.470   8.893
49847SOL    HW151380   2.621  10.515   8.860
49847SOL    HW251381   2.570  10.378   8.898
49848SOL     OW51382   2.809   2.924  14.257
49848SOL    HW151383   2.843   3.006  14.221
49848SOL    HW251384   2.716   2.943  14.273
49849SOL     OW51385  10.112   5.603  13.667
49849SOL    HW151386  10.056   5.645  13.602
49849SOL    HW251387  10.196   5.593  13.623
49850SOL     OW51388  11.752   8.448   9.778
49850SOL    HW151389  11.731   8.377   9.839
49850SOL    HW251390  11.667   8.481   9.749
49851SOL     OW51391  13.335   9.107   4.068
49851SOL    HW151392  13.388   9.031   4.088
49851SOL    HW251393  13.253   9.072   4.033
49852SOL     OW51394   0.644  11.433   3.371
49852SOL    HW151395   0.571  11.373   3.384
49852SOL    HW251396   0.676  11.453   3.459
49853SOL     OW51397  10.459  12.109   2.996
49853SOL    HW151398  10.470  12.120   3.090
49853SOL    HW251399  10.457  12.198   2.961
49854SOL     OW51400   4.232   3.380   3.040
49854SOL    HW151401   4.283   3.299   3.042
49854SOL    HW251402   4.294   3.447   3.009
49855SOL     OW51403   9.779  14.567   5.374
49855SOL    HW151404   9.810  14.528   5.455
49855SOL    HW251405   9.744  14.494   5.323
49856SOL     OW51406  13.288  12.664  10.788
49856SOL    HW151407  13.219  12.598  10.789
49856SOL    HW251408  13.310  12.677  10.880
49857SOL     OW51409   8.424   6.904  10.632
49857SOL    HW151410   8.502   6.906  10.576
49857SOL    HW251411   8.459   6.912  10.721
49858SOL     OW51412  11.874   2.659   0.375
49858SOL    HW151413  11.907   2.614   0.453
49858SOL    HW251414  11.835   2.589   0.323
49859SOL     OW51415   3.958   1.754   9.416
49859SOL    HW151416   3.903   1.832   9.406
49859SOL    HW251417   3.930   1.716   9.499
49860SOL     OW51418   6.919   4.029   7.319
49860SOL    HW151419   6.964   4.111   7.298
49860SOL    HW251420   6.832   4.039   7.280
49861SOL     OW51421   5.658  12.312  11.299
49861SOL    HW151422   5.648  12.356  11.383
49861SOL    HW251423   5.588  12.349  11.245
49862SOL     OW51424   4.530   5.810   5.390
49862SOL    HW151425   4.484   5.727   5.376
49862SOL    HW251426   4.563   5.805   5.480
49863SOL     OW51427   2.433   0.229   4.752
49863SOL    HW151428   2.454   0.262   4.839
49863SOL    HW251429   2.400   0.140   4.767
49864SOL     OW51430   0.943   1.946  12.808
49864SOL    HW151431   0.868   2.003  12.789
49864SOL    HW251432   0.924   1.865  12.761
49865SOL     OW51433   7.015   0.425   7.797
49865SOL    HW151434   6.966   0.358   7.844
49865SOL    HW251435   7.101   0.385   7.781
49866SOL     OW51436  11.550   9.483   9.863
49866SOL    HW151437  11.471   9.431   9.848
49866SOL    HW251438  11.556   9.540   9.787
49867SOL     OW51439  14.104   1.477  13.870
49867SOL    HW151440  14.103   1.381  13.864
49867SOL    HW251441  14.192   1.501  13.843
49868SOL     OW51442   3.254  12.946  11.692
49868SOL    HW151443   3.196  12.880  11.729
49868SOL    HW251444   3.212  13.030  11.712
49869SOL     OW51445  12.872   8.146   4.368
49869SOL    HW151446  12.784   8.162   4.401
49869SOL    HW251447  12.930   8.168   4.440
49870SOL     OW51448  11.475   4.284   9.784
49870SOL    HW151449  11.412   4.252   9.848
49870SOL    HW251450  11.534   4.210   9.770
49871SOL     OW51451  14.762   3.855   4.732
49871SOL    HW151452  14.843   3.904   4.740
49871SOL    HW251453  14.780   3.788   4.666
49872SOL     OW51454   7.393   1.221  14.500
49872SOL    HW151455   7.303   1.206  14.472
49872SOL    HW251456   7.386   1.286  14.569
49873SOL     OW51457  11.102   2.946   5.590
49873SOL    HW151458  11.057   2.965   5.507
49873SOL    HW251459  11.038   2.966   5.657
49874SOL     OW51460   6.846   6.618   2.525
49874SOL    HW151461   6.939   6.630   2.547
49874SOL    HW251462   6.809   6.706   2.533
49875SOL     OW51463   1.124   8.228  12.947
49875SOL    HW151464   1.128   8.322  12.961
49875SOL    HW251465   1.125   8.217  12.852
49876SOL     OW51466  10.494   6.285   2.027
49876SOL    HW151467  10.562   6.352   2.025
49876SOL    HW251468  10.435   6.313   2.097
49877SOL     OW51469   2.074   8.131   8.277
49877SOL    HW151470   2.130   8.146   8.201
49877SOL    HW251471   2.096   8.042   8.306
49878SOL     OW51472  14.672   0.184   6.263
49878SOL    HW151473  14.649   0.121   6.194
49878SOL    HW251474  14.767   0.177   6.271
49879SOL     OW51475  14.487   5.736  11.945
49879SOL    HW151476  14.514   5.714  12.034
49879SOL    HW251477  14.537   5.814  11.923
49880SOL     OW51478   3.796   1.872   1.804
49880SOL    HW151479   3.830   1.937   1.742
49880SOL    HW251480   3.766   1.924   1.879
49881SOL     OW51481  12.011   2.505   5.370
49881SOL    HW151482  12.058   2.432   5.412
49881SOL    HW251483  12.079   2.551   5.321
49882SOL     OW51484  11.702   8.874   3.924
49882SOL    HW151485  11.708   8.828   4.008
49882SOL    HW251486  11.770   8.941   3.929
49883SOL     OW51487   0.291  14.175   1.426
49883SOL    HW151488   0.224  14.244   1.429
49883SOL    HW251489   0.296  14.142   1.516
49884SOL     OW51490   3.661   1.702  14.232
49884SOL    HW151491   3.599   1.654  14.177
49884SOL    HW251492   3.684   1.640  14.301
49885SOL     OW51493   6.874  13.604  14.025
49885SOL    HW151494   6.820  13.638  14.096
49885SOL    HW251495   6.821  13.534  13.986
49886SOL     OW51496  14.359  10.261  13.024
49886SOL    HW151497  14.317  10.177  13.004
49886SOL    HW251498  14.423  10.273  12.954
49887SOL     OW51499   6.146   5.795  12.072
49887SOL    HW151500   6.154   5.891  12.073
49887SOL    HW251501   6.067   5.778  12.021
49888SOL     OW51502  13.460   3.913   3.266
49888SOL    HW151503  13.501   3.897   3.181
49888SOL    HW251504  13.482   4.003   3.287
49889SOL     OW51505   3.661   8.601   8.476
49889SOL    HW151506   3.666   8.567   8.566
49889SOL    HW251507   3.714   8.540   8.425
49890SOL     OW51508   8.431   5.629   9.413
49890SOL    HW151509   8.399   5.628   9.504
49890SOL    HW251510   8.452   5.538   9.394
49891SOL     OW51511  13.934  10.139   0.469
49891SOL    HW151512  13.861  10.192   0.439
49891SOL    HW251513  14.012  10.186   0.440
49892SOL     OW51514   7.275   3.680  11.091
49892SOL    HW151515   7.354   3.673  11.038
49892SOL    HW251516   7.292   3.753  11.150
49893SOL     OW51517   6.213  12.955   2.486
49893SOL    HW151518   6.166  12.919   2.562
49893SOL    HW251519   6.192  12.895   2.414
49894SOL     OW51520  14.665   1.600   2.850
49894SOL    HW151521  14.626   1.597   2.763
49894SOL    HW251522  14.631   1.680   2.889
49895SOL     OW51523   7.116   2.956   2.349
49895SOL    HW151524   7.071   2.992   2.273
49895SOL    HW251525   7.181   3.022   2.371
49896SOL     OW51526   0.924   5.996   9.481
49896SOL    HW151527   0.999   5.954   9.438
49896SOL    HW251528   0.904   6.072   9.425
49897SOL     OW51529   1.157   8.188  10.731
49897SOL    HW151530   1.089   8.234  10.681
49897SOL    HW251531   1.164   8.238  10.812
49898SOL     OW51532   2.667  11.383   7.220
49898SOL    HW151533   2.612  11.461   7.216
49898SOL    HW251534   2.750  11.414   7.255
49899SOL     OW51535  14.583   4.877   5.585
49899SOL    HW151536  14.632   4.916   5.657
49899SOL    HW251537  14.508   4.834   5.627
49900SOL     OW51538  14.393  12.921  10.917
49900SOL    HW151539  14.484  12.916  10.946
49900SOL    HW251540  14.343  12.939  10.997
49901SOL     OW51541   7.206  10.145   2.110
49901SOL    HW151542   7.260  10.218   2.142
49901SOL    HW251543   7.201  10.085   2.185
49902SOL     OW51544  14.684   0.629  14.341
49902SOL    HW151545  14.644   0.653  14.425
49902SOL    HW251546  14.679   0.533  14.339
49903SOL     OW51547   4.862  13.182   5.090
49903SOL    HW151548   4.876  13.233   5.009
49903SOL    HW251549   4.866  13.247   5.160
49904SOL     OW51550   4.325  14.280   8.770
49904SOL    HW151551   4.366  14.261   8.854
49904SOL    HW251552   4.264  14.207   8.756
49905SOL     OW51553   6.965  12.590  14.108
49905SOL    HW151554   6.933  12.639  14.033
49905SOL    HW251555   6.885  12.560  14.153
49906SOL     OW51556  10.305   4.220   1.990
49906SOL    HW151557  10.257   4.159   1.935
49906SOL    HW251558  10.397   4.195   1.980
49907SOL     OW51559   0.644   4.549  11.411
49907SOL    HW151560   0.705   4.607  11.367
49907SOL    HW251561   0.668   4.461  11.380
49908SOL     OW51562  12.580   6.576   4.046
49908SOL    HW151563  12.495   6.532   4.038
49908SOL    HW251564  12.562   6.667   4.021
49909SOL     OW51565   2.638  11.660  10.495
49909SOL    HW151566   2.628  11.694  10.584
49909SOL    HW251567   2.604  11.731  10.440
49910SOL     OW51568  13.707   6.483  12.902
49910SOL    HW151569  13.623   6.491  12.947
49910SOL    HW251570  13.715   6.565  12.853
49911SOL     OW51571   3.393   9.722   8.483
49911SOL    HW151572   3.398   9.652   8.418
49911SOL    HW251573   3.483   9.736   8.511
49912SOL     OW51574   8.648   3.472   0.363
49912SOL    HW151575   8.664   3.449   0.455
49912SOL    HW251576   8.664   3.390   0.315
49913SOL     OW51577  11.619  11.757   7.236
49913SOL    HW151578  11.703  11.719   7.261
49913SOL    HW251579  11.625  11.849   7.261
49914SOL     OW51580   7.914   6.430  13.783
49914SOL    HW151581   7.962   6.384  13.714
49914SOL    HW251582   7.843   6.474  13.737
49915SOL     OW51583   1.489   3.742  11.482
49915SOL    HW151584   1.516   3.790  11.403
49915SOL    HW251585   1.396   3.726  11.469
49916SOL     OW51586  10.993   3.531   9.918
49916SOL    HW151587  10.990   3.438   9.938
49916SOL    HW251588  11.076   3.544   9.873
49917SOL     OW51589   2.251   6.312   3.937
49917SOL    HW151590   2.330   6.348   3.896
49917SOL    HW251591   2.257   6.218   3.921
49918SOL     OW51592  10.133   9.148   3.766
49918SOL    HW151593  10.174   9.086   3.827
49918SOL    HW251594  10.184   9.141   3.686
49919SOL     OW51595   9.715  12.889  13.117
49919SOL    HW151596   9.712  12.972  13.164
49919SOL    HW251597   9.627  12.879  13.080
49920SOL     OW51598   1.624   5.429   1.901
49920SOL    HW151599   1.530   5.449   1.901
49920SOL    HW251600   1.631   5.349   1.850
49921SOL     OW51601   8.216  14.755   8.163
49921SOL    HW151602   8.153  14.792   8.224
49921SOL    HW251603   8.285  14.718   8.219
49922SOL     OW51604   2.759  12.611  13.884
49922SOL    HW151605   2.722  12.590  13.970
49922SOL    HW251606   2.818  12.685  13.901
49923SOL     OW51607   2.043   0.993   9.133
49923SOL    HW151608   2.093   1.061   9.177
49923SOL    HW251609   2.088   0.911   9.155
49924SOL     OW51610   5.013  14.429  13.997
49924SOL    HW151611   5.010  14.405  14.090
49924SOL    HW251612   5.107  14.433  13.977
49925SOL     OW51613   1.968   1.645   9.278
49925SOL    HW151614   1.917   1.726   9.282
49925SOL    HW251615   2.041   1.660   9.337
49926SOL     OW51616   2.348   9.457   7.360
49926SOL    HW151617   2.401   9.446   7.281
49926SOL    HW251618   2.388   9.531   7.405
49927SOL     OW51619  14.156  10.196   5.926
49927SOL    HW151620  14.213  10.138   5.977
49927SOL    HW251621  14.073  10.194   5.973
49928SOL     OW51622   1.995  11.036   0.078
49928SOL    HW151623   1.971  10.971   0.013
49928SOL    HW251624   1.912  11.070   0.111
49929SOL     OW51625  13.104   7.358   4.736
49929SOL    HW151626  13.107   7.293   4.806
49929SOL    HW251627  13.142   7.437   4.774
49930SOL     OW51628  13.372   6.496   1.687
49930SOL    HW151629  13.307   6.469   1.753
49930SOL    HW251630  13.433   6.551   1.736
49931SOL     OW51631   0.313   9.031   0.969
49931SOL    HW151632   0.251   8.970   0.928
49931SOL    HW251633   0.330   9.096   0.901
49932SOL     OW51634  12.429   6.367  11.411
49932SOL    HW151635  12.478   6.448  11.427
49932SOL    HW251636  12.460   6.336  11.327
49933SOL     OW51637  10.781   6.234  12.212
49933SOL    HW151638  10.830   6.297  12.158
49933SOL    HW251639  10.693   6.235  12.176
49934SOL     OW51640  11.020   5.989  11.297
49934SOL    HW151641  11.092   5.947  11.250
49934SOL    HW251642  11.047   5.990  11.388
49935SOL     OW51643   0.148  14.535  14.093
49935SOL    HW151644   0.070  14.509  14.045
49935SOL    HW251645   0.220  14.490  14.050
49936SOL     OW51646   2.018  10.516   4.093
49936SOL    HW151647   2.076  10.572   4.146
49936SOL    HW251648   2.053  10.428   4.105
49937SOL     OW51649   3.337   7.094   0.436
49937SOL    HW151650   3.308   7.149   0.509
49937SOL    HW251651   3.354   7.009   0.476
49938SOL     OW51652  10.743  12.490   4.791
49938SOL    HW151653  10.790  12.448   4.863
49938SOL    HW251654  10.734  12.581   4.820
49939SOL     OW51655   0.670  12.335   0.496
49939SOL    HW151656   0.690  12.397   0.566
49939SOL    HW251657   0.716  12.370   0.420
49940SOL     OW51658  13.593  11.864   6.536
49940SOL    HW151659  13.595  11.785   6.483
49940SOL    HW251660  13.664  11.918   6.501
49941SOL     OW51661   9.165  14.096   7.747
49941SOL    HW151662   9.118  14.018   7.775
49941SOL    HW251663   9.121  14.169   7.792
49942SOL     OW51664   0.965  13.010   4.691
49942SOL    HW151665   0.996  13.059   4.767
49942SOL    HW251666   1.039  13.009   4.631
49943SOL     OW51667  14.800   2.277   0.915
49943SOL    HW151668  14.781   2.251   0.825
49943SOL    HW251669   0.012   2.263   0.925
49944SOL     OW51670   0.004   9.405   5.342
49944SOL    HW151671  14.814   9.379   5.286
49944SOL    HW251672  14.875   9.354   5.422
49945SOL     OW51673   9.116   6.779   9.972
49945SOL    HW151674   9.063   6.755   9.896
49945SOL    HW251675   9.064   6.752  10.048
49946SOL     OW51676  11.203   4.840   8.515
49946SOL    HW151677  11.220   4.746   8.518
49946SOL    HW251678  11.115   4.848   8.477
49947SOL     OW51679   5.936   6.147  13.985
49947SOL    HW151680   5.965   6.056  13.986
49947SOL    HW251681   5.957   6.180  14.072
49948SOL     OW51682   0.312   2.725  11.286
49948SOL    HW151683   0.230   2.774  11.281
49948SOL    HW251684   0.303   2.672  11.366
49949SOL     OW51685  11.837  13.260   3.221
49949SOL    HW151686  11.822  13.206   3.144
49949SOL    HW251687  11.751  13.295   3.243
49950SOL     OW51688   7.294   2.314  10.078
49950SOL    HW151689   7.266   2.332   9.989
49950SOL    HW251690   7.366   2.376  10.093
49951SOL     OW51691   9.552   3.893  11.297
49951SOL    HW151692   9.541   3.979  11.256
49951SOL    HW251693   9.631   3.902  11.350
49952SOL     OW51694  10.464  11.360   6.641
49952SOL    HW151695  10.449  11.333   6.551
49952SOL    HW251696  10.486  11.453   6.635
49953SOL     OW51697   9.938  12.047  14.156
49953SOL    HW151698   9.953  12.050  14.061
49953SOL    HW251699  10.014  12.001  14.191
49954SOL     OW51700   1.360   2.326  11.441
49954SOL    HW151701   1.391   2.416  11.452
49954SOL    HW251702   1.268   2.335  11.417
49955SOL     OW51703   9.101   4.594   6.943
49955SOL    HW151704   9.032   4.617   6.880
49955SOL    HW251705   9.061   4.609   7.029
49956SOL     OW51706   9.885   4.976   4.086
49956SOL    HW151707   9.802   5.017   4.065
49956SOL    HW251708   9.861   4.891   4.123
49957SOL     OW51709   4.428   1.155   0.777
49957SOL    HW151710   4.436   1.063   0.802
49957SOL    HW251711   4.515   1.192   0.791
49958SOL     OW51712  13.194   3.527   0.765
49958SOL    HW151713  13.233   3.485   0.842
49958SOL    HW251714  13.133   3.462   0.731
49959SOL     OW51715   6.137  14.505   0.781
49959SOL    HW151716   6.129  14.414   0.810
49959SOL    HW251717   6.087  14.555   0.846
49960SOL     OW51718  10.501   9.992   3.357
49960SOL    HW151719  10.440  10.063   3.374
49960SOL    HW251720  10.560   9.992   3.433
49961SOL     OW51721   6.356  10.878  14.007
49961SOL    HW151722   6.308  10.829  13.941
49961SOL    HW251723   6.438  10.902  13.964
49962SOL     OW51724  14.247   2.035  14.093
49962SOL    HW151725  14.280   1.975  14.026
49962SOL    HW251726  14.266   1.992  14.175
49963SOL     OW51727  12.818  11.881   4.824
49963SOL    HW151728  12.899  11.923   4.794
49963SOL    HW251729  12.796  11.926   4.905
49964SOL     OW51730   6.845   4.378   4.530
49964SOL    HW151731   6.844   4.457   4.584
49964SOL    HW251732   6.863   4.410   4.441
49965SOL     OW51733   3.119   2.356   8.742
49965SOL    HW151734   3.111   2.410   8.664
49965SOL    HW251735   3.045   2.381   8.797
49966SOL     OW51736  12.505  13.799   6.390
49966SOL    HW151737  12.409  13.794   6.388
49966SOL    HW251738  12.532  13.781   6.300
49967SOL     OW51739   5.060  12.194   3.934
49967SOL    HW151740   5.019  12.107   3.931
49967SOL    HW251741   5.154  12.175   3.930
49968SOL     OW51742   1.464   6.124   0.836
49968SOL    HW151743   1.420   6.178   0.902
49968SOL    HW251744   1.477   6.040   0.879
49969SOL     OW51745   6.986  13.938   0.750
49969SOL    HW151746   7.063  13.882   0.747
49969SOL    HW251747   7.009  14.008   0.811
49970SOL     OW51748   7.135   0.512   5.945
49970SOL    HW151749   7.229   0.512   5.932
49970SOL    HW251750   7.100   0.556   5.868
49971SOL     OW51751   2.177   7.184   7.188
49971SOL    HW151752   2.101   7.173   7.131
49971SOL    HW251753   2.242   7.122   7.154
49972SOL     OW51754   7.866   4.006   2.143
49972SOL    HW151755   7.865   4.030   2.235
49972SOL    HW251756   7.908   3.920   2.141
49973SOL     OW51757  14.008   1.191   3.188
49973SOL    HW151758  14.045   1.136   3.257
49973SOL    HW251759  13.953   1.132   3.137
49974SOL     OW51760  11.251  11.109  12.304
49974SOL    HW151761  11.155  11.114  12.305
49974SOL    HW251762  11.273  11.093  12.213
49975SOL     OW51763   0.404   8.430   6.459
49975SOL    HW151764   0.340   8.501   6.463
49975SOL    HW251765   0.355   8.356   6.422
49976SOL     OW51766   3.977   2.528   8.226
49976SOL    HW151767   3.910   2.551   8.162
49976SOL    HW251768   3.930   2.528   8.310
49977SOL     OW51769  11.380   8.124   7.102
49977SOL    HW151770  11.462   8.158   7.067
49977SOL    HW251771  11.335   8.087   7.027
49978SOL     OW51772   5.455   4.700   1.282
49978SOL    HW151773   5.493   4.654   1.207
49978SOL    HW251774   5.422   4.631   1.339
49979SOL     OW51775   2.479   2.883   2.065
49979SOL    HW151776   2.504   2.923   1.981
49979SOL    HW251777   2.385   2.898   2.072
49980SOL     OW51778  13.714   7.021   7.232
49980SOL    HW151779  13.810   7.025   7.226
49980SOL    HW251780  13.683   7.062   7.151
49981SOL     OW51781   2.036   6.757   3.340
49981SOL    HW151782   1.946   6.747   3.309
49981SOL    HW251783   2.028   6.769   3.435
49982SOL     OW51784  14.750   0.683  11.657
49982SOL    HW151785  14.664   0.723  11.644
49982SOL    HW251786  14.786   0.728  11.733
49983SOL     OW51787   3.121   9.723   5.195
49983SOL    HW151788   3.174   9.648   5.167
49983SOL    HW251789   3.052   9.729   5.129
49984SOL     OW51790   2.685   8.840   3.058
49984SOL    HW151791   2.713   8.920   3.103
49984SOL    HW251792   2.713   8.769   3.116
49985SOL     OW51793   3.508   1.263   6.538
49985SOL    HW151794   3.419   1.235   6.515
49985SOL    HW251795   3.538   1.197   6.601
49986SOL     OW51796   0.014   0.376   4.325
49986SOL    HW151797  14.808   0.368   4.289
49986SOL    HW251798   0.070   0.389   4.248
49987SOL     OW51799   4.784  12.752   1.278
49987SOL    HW151800   4.786  12.662   1.247
49987SOL    HW251801   4.736  12.749   1.360
49988SOL     OW51802   6.213   5.497   2.438
49988SOL    HW151803   6.160   5.446   2.378
49988SOL    HW251804   6.243   5.572   2.387
49989SOL     OW51805  12.849   0.437   4.510
49989SOL    HW151806  12.902   0.516   4.512
49989SOL    HW251807  12.911   0.366   4.522
49990SOL     OW51808   3.468   1.537  10.394
49990SOL    HW151809   3.394   1.479  10.416
49990SOL    HW251810   3.458   1.612  10.453
49991SOL     OW51811  12.235   5.737  13.517
49991SOL    HW151812  12.170   5.788  13.565
49991SOL    HW251813  12.191   5.654  13.498
49992SOL     OW51814   3.656   8.971  10.208
49992SOL    HW151815   3.573   9.014  10.190
49992SOL    HW251816   3.691   8.949  10.121
49993SOL     OW51817  10.151  14.612   7.249
49993SOL    HW151818  10.119  14.634   7.337
49993SOL    HW251819  10.151  14.517   7.247
49994SOL     OW51820   7.206   3.459   2.154
49994SOL    HW151821   7.146   3.533   2.144
49994SOL    HW251822   7.209   3.443   2.249
49995SOL     OW51823   0.668  11.399   6.571
49995SOL    HW151824   0.582  11.405   6.614
49995SOL    HW251825   0.731  11.416   6.641
49996SOL     OW51826  12.368   7.160   5.384
49996SOL    HW151827  12.286   7.172   5.433
49996SOL    HW251828  12.356   7.077   5.338
49997SOL     OW51829   6.556   6.014   4.288
49997SOL    HW151830   6.598   6.094   4.256
49997SOL    HW251831   6.602   5.994   4.370
49998SOL     OW51832   9.983  11.173   3.053
49998SOL    HW151833   9.902  11.135   3.087
49998SOL    HW251834  10.052  11.139   3.111
49999SOL     OW51835   5.118   1.450   2.750
49999SOL    HW151836   5.182   1.495   2.694
49999SOL    HW251837   5.128   1.492   2.836
50000SOL     OW51838   3.665   0.207   6.004
50000SOL    HW151839   3.634   0.288   5.964
50000SOL    HW251840   3.647   0.217   6.097
50001SOL     OW51841   9.053   5.060  13.017
50001SOL    HW151842   8.967   5.045  13.057
50001SOL    HW251843   9.037   5.123  12.948
50002SOL     OW51844  13.226   6.766  11.340
50002SOL    HW151845  13.287   6.756  11.413
50002SOL    HW251846  13.230   6.681  11.294
50003SOL     OW51847  13.543   1.977   2.984
50003SOL    HW151848  13.552   2.031   2.905
50003SOL    HW251849  13.549   1.887   2.951
50004SOL     OW51850  12.463  11.594  13.504
50004SOL    HW151851  12.515  11.575  13.582
50004SOL    HW251852  12.446  11.508  13.465
50005SOL     OW51853  14.125   3.865   1.394
50005SOL    HW151854  14.198   3.805   1.410
50005SOL    HW251855  14.062   3.845   1.464
50006SOL     OW51856  12.633  13.995   1.197
50006SOL    HW151857  12.719  13.974   1.233
50006SOL    HW251858  12.595  13.909   1.175
50007SOL     OW51859   7.042   7.960   9.290
50007SOL    HW151860   7.005   7.908   9.361
50007SOL    HW251861   6.972   8.019   9.264
50008SOL     OW51862  10.747   4.153  11.140
50008SOL    HW151863  10.841   4.152  11.118
50008SOL    HW251864  10.738   4.227  11.200
50009SOL     OW51865   1.277  10.613   7.579
50009SOL    HW151866   1.332  10.535   7.585
50009SOL    HW251867   1.306  10.655   7.498
50010SOL     OW51868  13.630   4.019   8.317
50010SOL    HW151869  13.562   3.953   8.330
50010SOL    HW251870  13.582   4.102   8.317
50011SOL     OW51871  14.194   1.181  11.133
50011SOL    HW151872  14.164   1.167  11.222
50011SOL    HW251873  14.193   1.277  11.122
50012SOL     OW51874   4.251   9.792   1.160
50012SOL    HW151875   4.256   9.757   1.071
50012SOL    HW251876   4.157   9.802   1.177
50013SOL     OW51877  12.001   2.281  14.342
50013SOL    HW151878  11.964   2.313  14.424
50013SOL    HW251879  12.051   2.203  14.367
50014SOL     OW51880   6.599   6.066   2.649
50014SOL    HW151881   6.603   5.983   2.696
50014SOL    HW251882   6.513   6.102   2.671
50015SOL     OW51883   3.620   2.315   1.508
50015SOL    HW151884   3.645   2.227   1.479
50015SOL    HW251885   3.524   2.314   1.509
50016SOL     OW51886   7.078   7.484   8.520
50016SOL    HW151887   7.114   7.407   8.563
50016SOL    HW251888   7.146   7.550   8.527
50017SOL     OW51889  12.303   2.640   0.104
50017SOL    HW151890  12.259   2.594   0.176
50017SOL    HW251891  12.235   2.694   0.064
50018SOL     OW51892   9.104   6.183  13.292
50018SOL    HW151893   9.071   6.259  13.243
50018SOL    HW251894   9.181   6.155  13.244
50019SOL     OW51895   2.264   0.348   2.789
50019SOL    HW151896   2.348   0.389   2.810
50019SOL    HW251897   2.285   0.256   2.776
50020SOL     OW51898   0.305   9.885  13.337
50020SOL    HW151899   0.297   9.934  13.418
50020SOL    HW251900   0.392   9.906  13.304
50021SOL     OW51901  11.769   0.771   6.128
50021SOL    HW151902  11.700   0.818   6.081
50021SOL    HW251903  11.833   0.748   6.060
50022SOL     OW51904   8.654   5.944  14.779
50022SOL    HW151905   8.629   5.884  14.708
50022SOL    HW251906   8.612   6.027  14.756
50023SOL     OW51907  14.455  10.261   4.837
50023SOL    HW151908  14.504  10.343   4.828
50023SOL    HW251909  14.400  10.258   4.759
50024SOL     OW51910   1.161  12.762  14.038
50024SOL    HW151911   1.096  12.712  14.087
50024SOL    HW251912   1.113  12.801  13.966
50025SOL     OW51913   2.671   8.429  13.121
50025SOL    HW151914   2.620   8.351  13.101
50025SOL    HW251915   2.715   8.451  13.040
50026SOL     OW51916  11.370   6.370  10.486
50026SOL    HW151917  11.324   6.305  10.539
50026SOL    HW251918  11.333   6.454  10.513
50027SOL     OW51919   9.657   6.582  11.616
50027SOL    HW151920   9.752   6.591  11.618
50027SOL    HW251921   9.625   6.645  11.682
50028SOL     OW51922   2.445  12.876   5.844
50028SOL    HW151923   2.421  12.793   5.886
50028SOL    HW251924   2.373  12.935   5.866
50029SOL     OW51925   5.787  10.485   3.317
50029SOL    HW151926   5.827  10.452   3.397
50029SOL    HW251927   5.744  10.566   3.344
50030SOL     OW51928   1.506   2.121   0.350
50030SOL    HW151929   1.529   2.163   0.434
50030SOL    HW251930   1.577   2.146   0.291
50031SOL     OW51931   3.091   2.886  10.507
50031SOL    HW151932   3.112   2.943  10.433
50031SOL    HW251933   3.122   2.800  10.481
50032SOL     OW51934   9.132   5.669   8.150
50032SOL    HW151935   9.220   5.638   8.130
50032SOL    HW251936   9.115   5.738   8.085
50033SOL     OW51937   2.125  12.378   4.496
50033SOL    HW151938   2.166  12.314   4.554
50033SOL    HW251939   2.193  12.442   4.478
50034SOL     OW51940  13.862   8.800   0.299
50034SOL    HW151941  13.922   8.865   0.336
50034SOL    HW251942  13.788   8.799   0.359
50035SOL     OW51943   3.936   6.655   9.969
50035SOL    HW151944   4.022   6.641  10.009
50035SOL    HW251945   3.890   6.712  10.030
50036SOL     OW51946   4.153  12.862   2.197
50036SOL    HW151947   4.181  12.793   2.137
50036SOL    HW251948   4.099  12.817   2.262
50037SOL     OW51949  11.816   4.528  11.874
50037SOL    HW151950  11.745   4.463  11.866
50037SOL    HW251951  11.896   4.478  11.862
50038SOL     OW51952  10.116  10.152   8.473
50038SOL    HW151953  10.170  10.122   8.546
50038SOL    HW251954  10.052  10.211   8.513
50039SOL     OW51955   9.127  13.284  14.570
50039SOL    HW151956   9.161  13.307  14.656
50039SOL    HW251957   9.175  13.341  14.510
50040SOL     OW51958   9.671   8.949   1.210
50040SOL    HW151959   9.708   8.969   1.123
50040SOL    HW251960   9.747   8.928   1.264
50041SOL     OW51961   3.067   1.667  13.051
50041SOL    HW151962   3.131   1.706  12.991
50041SOL    HW251963   3.073   1.720  13.130
50042SOL     OW51964  10.513   9.869   5.717
50042SOL    HW151965  10.534   9.926   5.791
50042SOL    HW251966  10.525   9.924   5.640
50043SOL     OW51967  11.610  14.437  11.777
50043SOL    HW151968  11.527  14.452  11.822
50043SOL    HW251969  11.585  14.417  11.687
50044SOL     OW51970  14.568   2.133  14.754
50044SOL    HW151971  14.647   2.080  14.763
50044SOL    HW251972  14.547   2.160  14.843
50045SOL     OW51973  10.701   4.147   7.057
50045SOL    HW151974  10.649   4.114   7.130
50045SOL    HW251975  10.780   4.092   7.058
50046SOL     OW51976  11.839  12.131   8.438
50046SOL    HW151977  11.830  12.097   8.528
50046SOL    HW251978  11.793  12.067   8.384
50047SOL     OW51979   3.910   5.899  10.614
50047SOL    HW151980   4.002   5.905  10.639
50047SOL    HW251981   3.910   5.914  10.519
50048SOL     OW51982   9.997  12.125   4.507
50048SOL    HW151983  10.010  12.219   4.492
50048SOL    HW251984  10.064  12.102   4.570
50049SOL     OW51985   5.802   4.187  14.104
50049SOL    HW151986   5.845   4.106  14.076
50049SOL    HW251987   5.874   4.248  14.120
50050SOL     OW51988   1.104  11.525  10.788
50050SOL    HW151989   1.157  11.471  10.847
50050SOL    HW251990   1.150  11.609  10.786
50051SOL     OW51991  10.511   3.888   6.093
50051SOL    HW151992  10.531   3.798   6.120
50051SOL    HW251993  10.501   3.884   5.998
50052SOL     OW51994   1.093  11.568  11.156
50052SOL    HW151995   1.156  11.638  11.143
50052SOL    HW251996   1.142  11.488  11.137
50053SOL     OW51997   4.513   7.881  12.329
50053SOL    HW151998   4.539   7.966  12.364
50053SOL    HW251999   4.420   7.890  12.311
50054SOL     OW52000   7.486   6.498   7.829
50054SOL    HW152001   7.547   6.517   7.757
50054SOL    HW252002   7.478   6.403   7.829
50055SOL     OW52003   6.081   9.204   4.282
50055SOL    HW152004   6.019   9.249   4.338
50055SOL    HW252005   6.028   9.176   4.206
50056SOL     OW52006   5.954   4.518   9.686
50056SOL    HW152007   6.008   4.564   9.750
50056SOL    HW252008   6.007   4.441   9.661
50057SOL     OW52009   3.456   0.135   1.475
50057SOL    HW152010   3.499   0.136   1.561
50057SOL    HW252011   3.446   0.042   1.455
50058SOL     OW52012   8.317   6.242   2.183
50058SOL    HW152013   8.230   6.281   2.179
50058SOL    HW252014   8.351   6.264   2.270
50059SOL     OW52015   1.613   0.431   5.471
50059SOL    HW152016   1.618   0.432   5.375
50059SOL    HW252017   1.703   0.446   5.500
50060SOL     OW52018   4.021  14.077   5.118
50060SOL    HW152019   3.941  14.131   5.117
50060SOL    HW252020   4.089  14.136   5.149
50061SOL     OW52021   1.157   3.301   9.431
50061SOL    HW152022   1.093   3.233   9.452
50061SOL    HW252023   1.149   3.314   9.337
50062SOL     OW52024  10.661   5.842  10.219
50062SOL    HW152025  10.691   5.929  10.246
50062SOL    HW252026  10.620   5.856  10.134
50063SOL     OW52027   1.932  11.234  13.053
50063SOL    HW152028   1.996  11.203  13.118
50063SOL    HW252029   1.983  11.288  12.993
50064SOL     OW52030  14.771   4.659  11.931
50064SOL    HW152031  14.730   4.657  12.018
50064SOL    HW252032  14.864   4.671  11.948
50065SOL     OW52033   9.367   7.792  13.552
50065SOL    HW152034   9.318   7.838  13.620
50065SOL    HW252035   9.311   7.796  13.475
50066SOL     OW52036   1.214   0.877   6.431
50066SOL    HW152037   1.164   0.938   6.486
50066SOL    HW252038   1.292   0.857   6.483
50067SOL     OW52039   8.655   0.576   5.445
50067SOL    HW152040   8.675   0.482   5.441
50067SOL    HW252041   8.713   0.615   5.380
50068SOL     OW52042   8.474   3.947  11.871
50068SOL    HW152043   8.518   3.875  11.827
50068SOL    HW252044   8.389   3.911  11.896
50069SOL     OW52045  13.413   9.982  10.352
50069SOL    HW152046  13.364  10.026  10.282
50069SOL    HW252047  13.480   9.932  10.306
50070SOL     OW52048   7.557  12.520  10.704
50070SOL    HW152049   7.517  12.561  10.780
50070SOL    HW252050   7.629  12.578  10.680
50071SOL     OW52051   3.164  14.503   3.551
50071SOL    HW152052   3.177  14.502   3.456
50071SOL    HW252053   3.084  14.453   3.566
50072SOL     OW52054   5.343  13.386   2.532
50072SOL    HW152055   5.326  13.443   2.457
50072SOL    HW252056   5.400  13.437   2.589
50073SOL     OW52057   1.657  10.257   3.602
50073SOL    HW152058   1.651  10.352   3.594
50073SOL    HW252059   1.581  10.233   3.655
50074SOL     OW52060   0.525   3.482   0.610
50074SOL    HW152061   0.603   3.449   0.653
50074SOL    HW252062   0.462   3.495   0.681
50075SOL     OW52063  13.329   0.541   7.479
50075SOL    HW152064  13.239   0.574   7.471
50075SOL    HW252065  13.377   0.613   7.520
50076SOL     OW52066   3.299   7.940   1.758
50076SOL    HW152067   3.315   7.908   1.847
50076SOL    HW252068   3.254   7.867   1.714
50077SOL     OW52069   3.961   0.293  13.189
50077SOL    HW152070   4.020   0.322  13.258
50077SOL    HW252071   3.947   0.200  13.207
50078SOL     OW52072   4.136   5.773  13.646
50078SOL    HW152073   4.204   5.796  13.709
50078SOL    HW252074   4.081   5.851  13.640
50079SOL     OW52075  11.325   9.778  11.240
50079SOL    HW152076  11.313   9.846  11.174
50079SOL    HW252077  11.238   9.762  11.275
50080SOL     OW52078   5.830   6.790   8.542
50080SOL    HW152079   5.760   6.788   8.477
50080SOL    HW252080   5.798   6.734   8.613
50081SOL     OW52081  14.647  14.863   9.475
50081SOL    HW152082  14.641  14.859   9.570
50081SOL    HW252083  14.584  14.798   9.444
50082SOL     OW52084   9.943   1.741   3.855
50082SOL    HW152085   9.933   1.648   3.872
50082SOL    HW252086   9.879   1.760   3.787
50083SOL     OW52087   4.628   1.451   3.351
50083SOL    HW152088   4.681   1.379   3.383
50083SOL    HW252089   4.661   1.528   3.397
50084SOL     OW52090  10.349   6.460   9.932
50084SOL    HW152091  10.300   6.540   9.952
50084SOL    HW252092  10.388   6.435  10.016
50085SOL     OW52093  14.460   8.434   2.223
50085SOL    HW152094  14.532   8.475   2.271
50085SOL    HW252095  14.496   8.417   2.136
50086SOL     OW52096  10.625  11.283  13.805
50086SOL    HW152097  10.556  11.271  13.740
50086SOL    HW252098  10.599  11.361  13.853
50087SOL     OW52099   6.221   2.589   0.994
50087SOL    HW152100   6.221   2.559   0.903
50087SOL    HW252101   6.264   2.518   1.042
50088SOL     OW52102  12.960  14.670   3.508
50088SOL    HW152103  12.956  14.743   3.446
50088SOL    HW252104  12.876  14.673   3.554
50089SOL     OW52105   6.696   9.494  10.289
50089SOL    HW152106   6.655   9.526  10.369
50089SOL    HW252107   6.752   9.566  10.260
50090SOL     OW52108  10.127   6.285   4.498
50090SOL    HW152109  10.156   6.332   4.420
50090SOL    HW252110  10.064   6.221   4.466
50091SOL     OW52111   0.396   6.649  10.269
50091SOL    HW152112   0.358   6.644  10.181
50091SOL    HW252113   0.459   6.720  10.264
50092SOL     OW52114   5.024   1.798   7.070
50092SOL    HW152115   5.042   1.713   7.110
50092SOL    HW252116   4.930   1.810   7.082
50093SOL     OW52117  14.431   0.010   3.893
50093SOL    HW152118  14.484   0.085   3.865
50093SOL    HW252119  14.491  14.818   3.889
50094SOL     OW52120   1.067   6.356  13.761
50094SOL    HW152121   0.999   6.290  13.754
50094SOL    HW252122   1.120   6.329  13.836
50095SOL     OW52123   2.930  13.128   3.037
50095SOL    HW152124   2.940  13.118   3.131
50095SOL    HW252125   2.856  13.188   3.026
50096SOL     OW52126  11.995  10.411  12.454
50096SOL    HW152127  12.043  10.452  12.382
50096SOL    HW252128  12.062  10.378  12.512
50097SOL     OW52129   1.353   3.380   3.375
50097SOL    HW152130   1.285   3.361   3.311
50097SOL    HW252131   1.429   3.408   3.323
50098SOL     OW52132  14.067  10.319   4.515
50098SOL    HW152133  13.974  10.344   4.514
50098SOL    HW252134  14.066  10.224   4.502
50099SOL     OW52135  11.284   7.294  13.626
50099SOL    HW152136  11.359   7.236  13.631
50099SOL    HW252137  11.284   7.340  13.710
50100SOL     OW52138   2.684   4.131  11.629
50100SOL    HW152139   2.657   4.178  11.550
50100SOL    HW252140   2.769   4.167  11.651
50101SOL     OW52141   0.293   6.905   7.061
50101SOL    HW152142   0.213   6.927   7.109
50101SOL    HW252143   0.284   6.950   6.977
50102SOL     OW52144  13.605   5.992  12.709
50102SOL    HW152145  13.554   6.058  12.663
50102SOL    HW252146  13.684   6.038  12.738
50103SOL     OW52147   2.862  12.040   5.726
50103SOL    HW152148   2.819  12.037   5.811
50103SOL    HW252149   2.840  12.126   5.690
50104SOL     OW52150   3.517   6.532  14.582
50104SOL    HW152151   3.584   6.465  14.566
50104SOL    HW252152   3.515   6.583  14.501
50105SOL     OW52153   4.905   7.036   7.499
50105SOL    HW152154   4.991   7.028   7.541
50105SOL    HW252155   4.902   7.125   7.466
50106SOL     OW52156  11.690   1.741   9.995
50106SOL    HW152157  11.759   1.779  10.048
50106SOL    HW252158  11.614   1.799  10.008
50107SOL     OW52159   4.018   3.764   0.180
50107SOL    HW152160   4.061   3.844   0.149
50107SOL    HW252161   4.069   3.693   0.140
50108SOL     OW52162  13.757   1.307  14.875
50108SOL    HW152163  13.812   1.249   0.046
50108SOL    HW252164  13.725   1.373   0.054
50109SOL     OW52165  14.142   3.426  13.155
50109SOL    HW152166  14.100   3.341  13.163
50109SOL    HW252167  14.131   3.466  13.241
50110SOL     OW52168   2.350   6.801  13.403
50110SOL    HW152169   2.408   6.867  13.441
50110SOL    HW252170   2.341   6.734  13.470
50111SOL     OW52171   3.289   3.423   6.780
50111SOL    HW152172   3.284   3.483   6.855
50111SOL    HW252173   3.289   3.480   6.704
50112SOL     OW52174  12.222   1.618  11.666
50112SOL    HW152175  12.190   1.674  11.737
50112SOL    HW252176  12.204   1.529  11.696
50113SOL     OW52177  12.367   9.444   9.069
50113SOL    HW152178  12.313   9.370   9.097
50113SOL    HW252179  12.310   9.494   9.010
50114SOL     OW52180   4.186   1.703   0.289
50114SOL    HW152181   4.267   1.659   0.264
50114SOL    HW252182   4.174   1.680   0.381
50115SOL     OW52183  12.829   4.145   9.707
50115SOL    HW152184  12.802   4.122   9.796
50115SOL    HW252185  12.883   4.224   9.719
50116SOL     OW52186   1.979   1.034   7.466
50116SOL    HW152187   1.976   1.047   7.561
50116SOL    HW252188   2.016   1.115   7.431
50117SOL     OW52189  10.021   7.247   5.215
50117SOL    HW152190  10.059   7.198   5.142
50117SOL    HW252191   9.933   7.210   5.226
50118SOL     OW52192  11.117   4.668   3.538
50118SOL    HW152193  11.200   4.634   3.505
50118SOL    HW252194  11.075   4.592   3.578
50119SOL     OW52195  13.907   3.027  13.513
50119SOL    HW152196  13.858   3.109  13.527
50119SOL    HW252197  13.911   2.986  13.599
50120SOL     OW52198  13.195   9.362   0.136
50120SOL    HW152199  13.196   9.432   0.072
50120SOL    HW252200  13.253   9.295   0.100
50121SOL     OW52201   7.133   3.912  12.896
50121SOL    HW152202   7.046   3.878  12.875
50121SOL    HW252203   7.160   3.959  12.817
50122SOL     OW52204   4.522   7.780   0.790
50122SOL    HW152205   4.500   7.870   0.813
50122SOL    HW252206   4.459   7.757   0.721
50123SOL     OW52207   6.979   4.893   6.758
50123SOL    HW152208   6.943   4.820   6.808
50123SOL    HW252209   6.942   4.971   6.799
50124SOL     OW52210  10.407   8.067   2.809
50124SOL    HW152211  10.358   8.061   2.728
50124SOL    HW252212  10.359   8.131   2.862
50125SOL     OW52213  12.047   2.791   7.624
50125SOL    HW152214  12.040   2.882   7.595
50125SOL    HW252215  12.141   2.771   7.617
50126SOL     OW52216   1.607  13.283   4.379
50126SOL    HW152217   1.618  13.370   4.342
50126SOL    HW252218   1.529  13.290   4.435
50127SOL     OW52219   4.657  13.188  10.201
50127SOL    HW152220   4.694  13.207  10.115
50127SOL    HW252221   4.724  13.216  10.263
50128SOL     OW52222  14.090   2.936   6.365
50128SOL    HW152223  14.158   3.003   6.358
50128SOL    HW252224  14.038   2.947   6.286
50129SOL     OW52225   6.089   2.786  14.350
50129SOL    HW152226   6.172   2.832  14.367
50129SOL    HW252227   6.027   2.856  14.331
50130SOL     OW52228   5.804   1.146   9.642
50130SOL    HW152229   5.715   1.124   9.671
50130SOL    HW252230   5.816   1.237   9.672
50131SOL     OW52231  12.765   3.654  12.600
50131SOL    HW152232  12.790   3.678  12.690
50131SOL    HW252233  12.775   3.558  12.598
50132SOL     OW52234   3.412   3.309   5.828
50132SOL    HW152235   3.337   3.358   5.862
50132SOL    HW252236   3.437   3.355   5.748
50133SOL     OW52237  11.160   9.232  13.824
50133SOL    HW152238  11.236   9.174  13.815
50133SOL    HW252239  11.159   9.282  13.742
50134SOL     OW52240   4.309  14.200   5.722
50134SOL    HW152241   4.382  14.174   5.665
50134SOL    HW252242   4.269  14.275   5.677
50135SOL     OW52243  12.195  10.029  11.037
50135SOL    HW152244  12.124   9.973  11.068
50135SOL    HW252245  12.188  10.027  10.942
50136SOL     OW52246  11.430   5.646  11.373
50136SOL    HW152247  11.477   5.710  11.425
50136SOL    HW252248  11.498   5.596  11.328
50137SOL     OW52249  14.405  11.298  14.155
50137SOL    HW152250  14.443  11.323  14.070
50137SOL    HW252251  14.421  11.373  14.212
50138SOL     OW52252   6.999  14.365   7.471
50138SOL    HW152253   6.982  14.407   7.556
50138SOL    HW252254   7.017  14.437   7.412
50139SOL     OW52255   0.207  10.944   5.162
50139SOL    HW152256   0.200  11.018   5.222
50139SOL    HW252257   0.160  10.873   5.206
50140SOL     OW52258   0.751   3.087   6.833
50140SOL    HW152259   0.701   3.146   6.776
50140SOL    HW252260   0.685   3.028   6.871
50141SOL     OW52261  11.875  10.368  11.034
50141SOL    HW152262  11.929  10.412  11.099
50141SOL    HW252263  11.810  10.321  11.086
50142SOL     OW52264  12.845  12.309  11.541
50142SOL    HW152265  12.775  12.263  11.587
50142SOL    HW252266  12.899  12.240  11.504
50143SOL     OW52267   9.575   4.097  11.108
50143SOL    HW152268   9.525   4.162  11.059
50143SOL    HW252269   9.666   4.125  11.099
50144SOL     OW52270   8.605   8.844  10.175
50144SOL    HW152271   8.600   8.805  10.088
50144SOL    HW252272   8.515   8.843  10.208
50145SOL     OW52273   3.976   0.858  12.210
50145SOL    HW152274   3.961   0.952  12.219
50145SOL    HW252275   4.071   0.849  12.203
50146SOL     OW52276   1.718  10.333  14.061
50146SOL    HW152277   1.631  10.294  14.066
50146SOL    HW252278   1.727  10.363  13.971
50147SOL     OW52279  11.760   1.170  13.531
50147SOL    HW152280  11.794   1.225  13.601
50147SOL    HW252281  11.766   1.225  13.453
50148SOL     OW52282  14.726   9.399   6.001
50148SOL    HW152283  14.721   9.477   6.057
50148SOL    HW252284  14.801   9.350   6.035
50149SOL     OW52285   3.895   6.320  12.446
50149SOL    HW152286   3.809   6.353  12.420
50149SOL    HW252287   3.957   6.383  12.409
50150SOL     OW52288   3.956   4.722  13.908
50150SOL    HW152289   3.942   4.786  13.978
50150SOL    HW252290   3.890   4.744  13.842
50151SOL     OW52291   7.750   3.302   3.004
50151SOL    HW152292   7.841   3.278   2.986
50151SOL    HW252293   7.706   3.218   3.017
50152SOL     OW52294   1.843  12.387   5.914
50152SOL    HW152295   1.930  12.400   5.878
50152SOL    HW252296   1.825  12.467   5.963
50153SOL     OW52297  13.894   2.461  12.321
50153SOL    HW152298  13.842   2.520  12.375
50153SOL    HW252299  13.842   2.450  12.241
50154SOL     OW52300  14.247   1.457  11.180
50154SOL    HW152301  14.265   1.539  11.134
50154SOL    HW252302  14.334   1.424  11.205
50155SOL     OW52303  11.567  12.857   6.554
50155SOL    HW152304  11.591  12.880   6.644
50155SOL    HW252305  11.650  12.827   6.515
50156SOL     OW52306   0.314  12.814  11.475
50156SOL    HW152307   0.266  12.882  11.429
50156SOL    HW252308   0.264  12.800  11.556
50157SOL     OW52309   3.759   6.667  11.896
50157SOL    HW152310   3.677   6.682  11.943
50157SOL    HW252311   3.796   6.588  11.936
50158SOL     OW52312  11.565   0.060   5.374
50158SOL    HW152313  11.624   0.135   5.377
50158SOL    HW252314  11.526   0.063   5.287
50159SOL     OW52315   0.873  10.844   2.971
50159SOL    HW152316   0.819  10.909   3.017
50159SOL    HW252317   0.956  10.889   2.955
50160SOL     OW52318   5.707  12.713   8.398
50160SOL    HW152319   5.619  12.688   8.427
50160SOL    HW252320   5.745  12.632   8.364
50161SOL     OW52321   9.961   7.324  13.521
50161SOL    HW152322   9.900   7.378  13.471
50161SOL    HW252323   9.930   7.234  13.507
50162SOL     OW52324  12.508   3.364  12.342
50162SOL    HW152325  12.420   3.371  12.377
50162SOL    HW252326  12.549   3.294  12.392
50163SOL     OW52327   8.288  12.411   4.026
50163SOL    HW152328   8.197  12.427   4.000
50163SOL    HW252329   8.309  12.484   4.084
50164SOL     OW52330   4.846  14.711   4.930
50164SOL    HW152331   4.877  14.697   4.840
50164SOL    HW252332   4.817  14.802   4.931
50165SOL     OW52333   0.757   8.340   8.203
50165SOL    HW152334   0.733   8.358   8.294
50165SOL    HW252335   0.819   8.410   8.181
50166SOL     OW52336   6.782   0.728   3.013
50166SOL    HW152337   6.775   0.746   3.107
50166SOL    HW252338   6.760   0.812   2.972
50167SOL     OW52339  13.727  14.745  10.133
50167SOL    HW152340  13.679  14.663  10.146
50167SOL    HW252341  13.659  14.811  10.123
50168SOL     OW52342   9.541   9.652   2.257
50168SOL    HW152343   9.518   9.568   2.217
50168SOL    HW252344   9.483   9.661   2.332
50169SOL     OW52345   8.435   6.199   5.372
50169SOL    HW152346   8.527   6.219   5.357
50169SOL    HW252347   8.389   6.280   5.351
50170SOL     OW52348  13.829   3.047   6.496
50170SOL    HW152349  13.890   3.097   6.550
50170SOL    HW252350  13.858   3.060   6.406
50171SOL     OW52351   8.475  13.225   6.805
50171SOL    HW152352   8.519  13.195   6.725
50171SOL    HW252353   8.387  13.248   6.777
50172SOL     OW52354  12.719   7.095   6.790
50172SOL    HW152355  12.799   7.064   6.747
50172SOL    HW252356  12.740   7.184   6.818
50173SOL     OW52357   6.520   1.389   8.897
50173SOL    HW152358   6.468   1.318   8.860
50173SOL    HW252359   6.552   1.354   8.981
50174SOL     OW52360   0.531  13.973   0.705
50174SOL    HW152361   0.504  13.982   0.796
50174SOL    HW252362   0.624  13.998   0.705
50175SOL     OW52363   3.091   8.533   4.344
50175SOL    HW152364   3.017   8.499   4.393
50175SOL    HW252365   3.157   8.552   4.410
50176SOL     OW52366   3.696   7.671  10.295
50176SOL    HW152367   3.631   7.741  10.292
50176SOL    HW252368   3.692   7.631  10.208
50177SOL     OW52369   6.738   5.034  12.651
50177SOL    HW152370   6.656   5.037  12.603
50177SOL    HW252371   6.730   4.958  12.709
50178SOL     OW52372   2.506  10.137  13.676
50178SOL    HW152373   2.524  10.089  13.595
50178SOL    HW252374   2.580  10.197  13.684
50179SOL     OW52375   5.369   4.334  11.812
50179SOL    HW152376   5.340   4.243  11.822
50179SOL    HW252377   5.295   4.386  11.843
50180SOL     OW52378   3.612  11.299  11.984
50180SOL    HW152379   3.607  11.377  11.929
50180SOL    HW252380   3.667  11.238  11.935
50181SOL     OW52381  12.406   5.669   0.441
50181SOL    HW152382  12.332   5.729   0.425
50181SOL    HW252383  12.483   5.725   0.438
50182SOL     OW52384   9.341   9.207  10.779
50182SOL    HW152385   9.258   9.255  10.765
50182SOL    HW252386   9.370   9.184  10.690
50183SOL     OW52387   0.235  10.637   3.368
50183SOL    HW152388   0.327  10.620   3.389
50183SOL    HW252389   0.238  10.694   3.292
50184SOL     OW52390   9.962  13.365   4.209
50184SOL    HW152391   9.899  13.305   4.169
50184SOL    HW252392   9.921  13.451   4.203
50185SOL     OW52393   3.077  14.225   4.405
50185SOL    HW152394   2.998  14.278   4.404
50185SOL    HW252395   3.132  14.265   4.472
50186SOL     OW52396  11.595  14.278   4.301
50186SOL    HW152397  11.513  14.248   4.341
50186SOL    HW252398  11.611  14.363   4.342
50187SOL     OW52399  12.894  10.988   2.749
50187SOL    HW152400  12.863  11.030   2.669
50187SOL    HW252401  12.823  11.004   2.812
50188SOL     OW52402   0.472   6.961   3.294
50188SOL    HW152403   0.425   7.044   3.307
50188SOL    HW252404   0.564   6.985   3.295
50189SOL     OW52405  13.253  10.196   0.524
50189SOL    HW152406  13.239  10.131   0.455
50189SOL    HW252407  13.264  10.144   0.604
50190SOL     OW52408  13.758   2.588   3.777
50190SOL    HW152409  13.806   2.537   3.712
50190SOL    HW252410  13.703   2.524   3.822
50191SOL     OW52411   9.723   0.281   2.614
50191SOL    HW152412   9.648   0.326   2.653
50191SOL    HW252413   9.794   0.346   2.616
50192SOL     OW52414  13.008  10.566   5.424
50192SOL    HW152415  13.069  10.503   5.385
50192SOL    HW252416  12.931  10.513   5.448
50193SOL     OW52417   3.393   6.072   3.919
50193SOL    HW152418   3.392   6.166   3.936
50193SOL    HW252419   3.400   6.065   3.824
50194SOL     OW52420   2.593   6.114  12.890
50194SOL    HW152421   2.552   6.201  12.887
50194SOL    HW252422   2.521   6.054  12.906
50195SOL     OW52423   4.575   2.589   8.129
50195SOL    HW152424   4.621   2.515   8.166
50195SOL    HW252425   4.632   2.664   8.146
50196SOL     OW52426  13.208  10.415   9.484
50196SOL    HW152427  13.135  10.400   9.424
50196SOL    HW252428  13.219  10.333   9.531
50197SOL     OW52429   8.796  10.814   2.160
50197SOL    HW152430   8.770  10.722   2.163
50197SOL    HW252431   8.725  10.861   2.202
50198SOL     OW52432  14.330   3.102   0.584
50198SOL    HW152433  14.418   3.072   0.563
50198SOL    HW252434  14.303   3.152   0.508
50199SOL     OW52435  10.131  14.342   1.954
50199SOL    HW152436  10.089  14.266   1.995
50199SOL    HW252437  10.224  14.316   1.947
50200SOL     OW52438   7.394  11.292   1.084
50200SOL    HW152439   7.423  11.369   1.132
50200SOL    HW252440   7.358  11.326   1.002
50201SOL     OW52441   4.709   9.156   6.304
50201SOL    HW152442   4.680   9.167   6.394
50201SOL    HW252443   4.631   9.125   6.257
50202SOL     OW52444  10.085   3.202  12.122
50202SOL    HW152445  10.124   3.285  12.150
50202SOL    HW252446  10.078   3.210  12.027
50203SOL     OW52447   4.286   9.672   5.924
50203SOL    HW152448   4.291   9.749   5.980
50203SOL    HW252449   4.242   9.702   5.845
50204SOL     OW52450  14.801   5.156   7.674
50204SOL    HW152451  14.753   5.237   7.692
50204SOL    HW252452  14.862   5.148   7.747
50205SOL     OW52453   7.548   5.580  12.626
50205SOL    HW152454   7.548   5.503  12.569
50205SOL    HW252455   7.463   5.621  12.610
50206SOL     OW52456   2.997   1.890  13.208
50206SOL    HW152457   2.916   1.931  13.236
50206SOL    HW252458   3.042   1.957  13.157
50207SOL     OW52459   7.797   6.262   1.845
50207SOL    HW152460   7.838   6.194   1.898
50207SOL    HW252461   7.837   6.253   1.758
50208SOL     OW52462   0.110   9.352   7.331
50208SOL    HW152463   0.109   9.442   7.298
50208SOL    HW252464   0.023   9.317   7.310
50209SOL     OW52465  14.028   7.707   2.378
50209SOL    HW152466  13.967   7.752   2.319
50209SOL    HW252467  14.031   7.763   2.455
50210SOL     OW52468   1.806   5.060  10.919
50210SOL    HW152469   1.854   4.977  10.919
50210SOL    HW252470   1.743   5.051  10.848
50211SOL     OW52471   6.899   9.260   4.851
50211SOL    HW152472   6.984   9.215   4.854
50211SOL    HW252473   6.840   9.196   4.812
50212SOL     OW52474  11.076   1.199   2.262
50212SOL    HW152475  10.984   1.214   2.237
50212SOL    HW252476  11.123   1.273   2.223
50213SOL     OW52477  14.546   4.991  13.062
50213SOL    HW152478  14.477   4.984  13.128
50213SOL    HW252479  14.622   4.949  13.102
50214SOL     OW52480   0.136   2.240   1.898
50214SOL    HW152481   0.182   2.163   1.929
50214SOL    HW252482   0.196   2.313   1.916
50215SOL     OW52483  11.893  12.953   3.254
50215SOL    HW152484  11.807  12.941   3.216
50215SOL    HW252485  11.886  13.035   3.303
50216SOL     OW52486   3.214   1.747   6.811
50216SOL    HW152487   3.243   1.760   6.721
50216SOL    HW252488   3.282   1.789   6.864
50217SOL     OW52489   2.546   4.979   2.683
50217SOL    HW152490   2.610   4.988   2.755
50217SOL    HW252491   2.505   5.065   2.677
50218SOL     OW52492  13.013   1.497  14.790
50218SOL    HW152493  13.031   1.403  14.788
50218SOL    HW252494  12.951   1.507  14.863
50219SOL     OW52495  11.781   4.981   2.386
50219SOL    HW152496  11.833   5.056   2.357
50219SOL    HW252497  11.769   4.994   2.480
50220SOL     OW52498   2.751  11.414   7.705
50220SOL    HW152499   2.720  11.466   7.780
50220SOL    HW252500   2.720  11.325   7.723
50221SOL     OW52501  11.715   0.558   6.540
50221SOL    HW152502  11.706   0.540   6.446
50221SOL    HW252503  11.681   0.647   6.550
50222SOL     OW52504   8.575  10.224   7.183
50222SOL    HW152505   8.488  10.214   7.145
50222SOL    HW252506   8.568  10.303   7.237
50223SOL     OW52507   4.203   5.044   1.734
50223SOL    HW152508   4.133   5.080   1.679
50223SOL    HW252509   4.186   5.080   1.821
50224SOL     OW52510   2.508   2.081   6.993
50224SOL    HW152511   2.518   2.117   6.905
50224SOL    HW252512   2.569   2.007   6.996
50225SOL     OW52513   0.583   7.790   6.391
50225SOL    HW152514   0.546   7.755   6.310
50225SOL    HW252515   0.570   7.719   6.455
50226SOL     OW52516  11.561   1.095   0.969
50226SOL    HW152517  11.578   1.038   1.044
50226SOL    HW252518  11.621   1.063   0.901
50227SOL     OW52519  14.872   8.550   0.884
50227SOL    HW152520   0.042   8.506   0.817
50227SOL    HW252521  14.865   8.486   0.955
50228SOL     OW52522   0.177   0.966   0.934
50228SOL    HW152523   0.094   0.940   0.973
50228SOL    HW252524   0.156   1.046   0.884
50229SOL     OW52525   6.863  12.617   5.164
50229SOL    HW152526   6.797  12.631   5.232
50229SOL    HW252527   6.932  12.566   5.207
50230SOL     OW52528   8.324   8.307   7.428
50230SOL    HW152529   8.297   8.219   7.404
50230SOL    HW252530   8.395   8.294   7.491
50231SOL     OW52531  10.533  14.708   9.109
50231SOL    HW152532  10.492  14.695   9.023
50231SOL    HW252533  10.619  14.667   9.101
50232SOL     OW52534  10.719  13.079   1.531
50232SOL    HW152535  10.684  13.052   1.616
50232SOL    HW252536  10.775  13.154   1.551
50233SOL     OW52537   4.651  12.117  11.378
50233SOL    HW152538   4.587  12.124  11.448
50233SOL    HW252539   4.722  12.176  11.404
50234SOL     OW52540  14.627   2.873   1.800
50234SOL    HW152541  14.588   2.949   1.757
50234SOL    HW252542  14.554   2.812   1.812
50235SOL     OW52543   2.035  10.504   2.733
50235SOL    HW152544   2.056  10.412   2.747
50235SOL    HW252545   2.050  10.545   2.818
50236SOL     OW52546   7.626   8.957   0.589
50236SOL    HW152547   7.644   9.039   0.543
50236SOL    HW252548   7.689   8.954   0.660
50237SOL     OW52549  14.307  12.022   5.047
50237SOL    HW152550  14.375  11.972   5.091
50237SOL    HW252551  14.353  12.067   4.976
50238SOL     OW52552   2.853  12.368  13.701
50238SOL    HW152553   2.803  12.402  13.775
50238SOL    HW252554   2.797  12.385  13.625
50239SOL     OW52555  13.355   9.833   6.186
50239SOL    HW152556  13.429   9.823   6.247
50239SOL    HW252557  13.367   9.763   6.122
50240SOL     OW52558   8.794   4.517   9.792
50240SOL    HW152559   8.793   4.536   9.885
50240SOL    HW252560   8.887   4.509   9.770
50241SOL     OW52561  11.963   7.690  10.584
50241SOL    HW152562  12.006   7.771  10.558
50241SOL    HW252563  11.941   7.703  10.676
50242SOL     OW52564  14.702   7.481  10.593
50242SOL    HW152565  14.705   7.430  10.673
50242SOL    HW252566  14.751   7.561  10.613
50243SOL     OW52567   0.157   4.625   8.961
50243SOL    HW152568   0.151   4.532   8.983
50243SOL    HW252569   0.185   4.626   8.870
50244SOL     OW52570  11.030  10.599   4.196
50244SOL    HW152571  11.001  10.678   4.149
50244SOL    HW252572  10.950  10.546   4.204
50245SOL     OW52573   3.616  14.030  12.158
50245SOL    HW152574   3.635  13.980  12.079
50245SOL    HW252575   3.520  14.029  12.164
50246SOL     OW52576  14.505   4.322   3.633
50246SOL    HW152577  14.421   4.339   3.677
50246SOL    HW252578  14.564   4.387   3.668
50247SOL     OW52579  11.151   8.800   5.634
50247SOL    HW152580  11.176   8.889   5.609
50247SOL    HW252581  11.169   8.747   5.556
50248SOL     OW52582  11.353  13.888  12.034
50248SOL    HW152583  11.440  13.877  12.072
50248SOL    HW252584  11.361  13.964  11.977
50249SOL     OW52585   4.052   2.640  14.605
50249SOL    HW152586   4.085   2.695  14.676
50249SOL    HW252587   3.976   2.687  14.571
50250SOL     OW52588   9.410   8.387   0.891
50250SOL    HW152589   9.432   8.480   0.894
50250SOL    HW252590   9.318   8.383   0.918
50251SOL     OW52591   0.013   6.149   5.068
50251SOL    HW152592  14.809   6.131   5.029
50251SOL    HW252593   0.030   6.241   5.047
50252SOL     OW52594   2.494   0.099  12.237
50252SOL    HW152595   2.411   0.051  12.245
50252SOL    HW252596   2.507   0.138  12.324
50253SOL     OW52597  12.890   0.939  12.000
50253SOL    HW152598  12.870   0.981  12.084
50253SOL    HW252599  12.985   0.925  12.002
50254SOL     OW52600   6.971   1.258   3.823
50254SOL    HW152601   6.963   1.277   3.916
50254SOL    HW252602   7.056   1.294   3.798
50255SOL     OW52603  13.299   8.927  10.224
50255SOL    HW152604  13.223   8.975  10.189
50255SOL    HW252605  13.313   8.857  10.161
50256SOL     OW52606  14.555  11.550   5.251
50256SOL    HW152607  14.648  11.538   5.230
50256SOL    HW252608  14.548  11.642   5.276
50257SOL     OW52609  13.650   7.004   1.200
50257SOL    HW152610  13.678   7.075   1.258
50257SOL    HW252611  13.557   6.992   1.221
50258SOL     OW52612   1.873   2.101  13.315
50258SOL    HW152613   1.815   2.031  13.344
50258SOL    HW252614   1.919   2.129  13.394
50259SOL     OW52615  10.477   4.289  10.608
50259SOL    HW152616  10.495   4.346  10.534
50259SOL    HW252617  10.383   4.300  10.624
50260SOL     OW52618  12.623   8.363   2.417
50260SOL    HW152619  12.604   8.419   2.342
50260SOL    HW252620  12.567   8.398   2.487
50261SOL     OW52621  10.694   7.650  10.176
50261SOL    HW152622  10.768   7.589  10.171
50261SOL    HW252623  10.669   7.665  10.085
50262SOL     OW52624   4.778  14.560   2.299
50262SOL    HW152625   4.838  14.497   2.338
50262SOL    HW252626   4.821  14.645   2.313
50263SOL     OW52627   0.375   8.526   3.247
50263SOL    HW152628   0.342   8.606   3.205
50263SOL    HW252629   0.468   8.525   3.228
50264SOL     OW52630   2.649   6.623   7.887
50264SOL    HW152631   2.736   6.589   7.865
50264SOL    HW252632   2.659   6.658   7.976
50265SOL     OW52633  13.906  14.164   0.786
50265SOL    HW152634  13.955  14.187   0.864
50265SOL    HW252635  13.898  14.246   0.737
50266SOL     OW52636   0.180   5.286  12.637
50266SOL    HW152637   0.099   5.331  12.613
50266SOL    HW252638   0.237   5.296  12.560
50267SOL     OW52639   2.394   7.734  13.710
50267SOL    HW152640   2.420   7.800  13.646
50267SOL    HW252641   2.446   7.657  13.688
50268SOL     OW52642   8.814   2.594   3.325
50268SOL    HW152643   8.759   2.562   3.397
50268SOL    HW252644   8.899   2.552   3.340
50269SOL     OW52645  13.398  14.611   7.934
50269SOL    HW152646  13.348  14.529   7.935
50269SOL    HW252647  13.481  14.589   7.976
50270SOL     OW52648   3.246   4.677  10.877
50270SOL    HW152649   3.319   4.737  10.862
50270SOL    HW252650   3.178   4.732  10.917
50271SOL     OW52651  12.142   6.776   8.064
50271SOL    HW152652  12.130   6.697   8.118
50271SOL    HW252653  12.056   6.818   8.065
50272SOL     OW52654   4.142  12.171   8.579
50272SOL    HW152655   4.186  12.092   8.612
50272SOL    HW252656   4.194  12.198   8.503
50273SOL     OW52657   7.576  13.778   7.848
50273SOL    HW152658   7.541  13.698   7.808
50273SOL    HW252659   7.591  13.755   7.939
50274SOL     OW52660  11.805   2.524   6.612
50274SOL    HW152661  11.717   2.531   6.575
50274SOL    HW252662  11.807   2.437   6.652
50275SOL     OW52663   6.636   1.292  14.440
50275SOL    HW152664   6.696   1.222  14.467
50275SOL    HW252665   6.614   1.337  14.522
50276SOL     OW52666   8.811  11.051   7.689
50276SOL    HW152667   8.775  11.118   7.748
50276SOL    HW252668   8.735  11.020   7.640
50277SOL     OW52669   2.417   2.705   0.750
50277SOL    HW152670   2.348   2.710   0.685
50277SOL    HW252671   2.497   2.688   0.699
50278SOL     OW52672   2.987   9.454   3.272
50278SOL    HW152673   2.937   9.391   3.221
50278SOL    HW252674   2.932   9.532   3.274
50279SOL     OW52675   8.283   2.877  14.602
50279SOL    HW152676   8.224   2.803  14.616
50279SOL    HW252677   8.267   2.936  14.675
50280SOL     OW52678   8.682   4.794  13.743
50280SOL    HW152679   8.761   4.763  13.788
50280SOL    HW252680   8.695   4.888  13.732
50281SOL     OW52681   8.548  11.428  12.864
50281SOL    HW152682   8.635  11.397  12.839
50281SOL    HW252683   8.495  11.348  12.869
50282SOL     OW52684   9.238   7.724  12.230
50282SOL    HW152685   9.147   7.726  12.261
50282SOL    HW252686   9.255   7.631  12.215
50283SOL     OW52687   0.393  11.027  12.896
50283SOL    HW152688   0.310  10.981  12.893
50283SOL    HW252689   0.397  11.066  12.983
50284SOL     OW52690  14.550   6.214   5.156
50284SOL    HW152691  14.602   6.250   5.228
50284SOL    HW252692  14.570   6.271   5.082
50285SOL     OW52693   7.839   4.429   0.002
50285SOL    HW152694   7.925   4.395  14.862
50285SOL    HW252695   7.783   4.401  14.812
50286SOL     OW52696   6.316   2.713   5.771
50286SOL    HW152697   6.369   2.735   5.848
50286SOL    HW252698   6.349   2.627   5.743
50287SOL     OW52699  13.451   1.913   4.084
50287SOL    HW152700  13.511   1.987   4.091
50287SOL    HW252701  13.496   1.851   4.026
50288SOL     OW52702   1.927   3.436   5.173
50288SOL    HW152703   1.943   3.397   5.087
50288SOL    HW252704   2.001   3.494   5.188
50289SOL     OW52705  12.162  11.527   8.769
50289SOL    HW152706  12.096  11.577   8.721
50289SOL    HW252707  12.126  11.520   8.858
50290SOL     OW52708   6.366   2.737  14.749
50290SOL    HW152709   6.271   2.733  14.741
50290SOL    HW252710   6.399   2.712  14.663
50291SOL     OW52711   4.606   4.654   6.796
50291SOL    HW152712   4.669   4.595   6.754
50291SOL    HW252713   4.631   4.742   6.766
50292SOL     OW52714   5.222   5.858  11.464
50292SOL    HW152715   5.231   5.875  11.371
50292SOL    HW252716   5.189   5.940  11.501
50293SOL     OW52717   8.971   3.422   1.241
50293SOL    HW152718   8.939   3.502   1.199
50293SOL    HW252719   8.903   3.399   1.304
50294SOL     OW52720  11.828   0.272   6.991
50294SOL    HW152721  11.902   0.282   7.051
50294SOL    HW252722  11.758   0.236   7.045
50295SOL     OW52723   4.772   3.237   9.955
50295SOL    HW152724   4.788   3.307  10.018
50295SOL    HW252725   4.678   3.243   9.937
50296SOL     OW52726   3.330   9.890   8.036
50296SOL    HW152727   3.413   9.861   7.998
50296SOL    HW252728   3.353   9.962   8.094
50297SOL     OW52729   7.411   4.686   9.588
50297SOL    HW152730   7.506   4.688   9.600
50297SOL    HW252731   7.390   4.592   9.586
50298SOL     OW52732   5.034   8.000  12.947
50298SOL    HW152733   5.055   8.029  12.858
50298SOL    HW252734   4.975   8.068  12.980
50299SOL     OW52735   8.317  10.304  11.962
50299SOL    HW152736   8.318  10.388  12.009
50299SOL    HW252737   8.240  10.310  11.905
50300SOL     OW52738   1.946   1.940   0.021
50300SOL    HW152739   1.952   1.900  14.816
50300SOL    HW252740   1.954   1.866   0.082
50301SOL     OW52741   6.114   4.576   4.822
50301SOL    HW152742   6.115   4.515   4.895
50301SOL    HW252743   6.183   4.545   4.763
50302SOL     OW52744  10.859   9.656   3.139
50302SOL    HW152745  10.806   9.584   3.175
50302SOL    HW252746  10.940   9.614   3.110
50303SOL     OW52747  10.657   9.555   3.938
50303SOL    HW152748  10.593   9.537   3.869
50303SOL    HW252749  10.621   9.512   4.015
50304SOL     OW52750   3.069   5.714   6.750
50304SOL    HW152751   3.035   5.646   6.691
50304SOL    HW252752   3.164   5.712   6.736
50305SOL     OW52753  13.975  13.439   5.086
50305SOL    HW152754  13.963  13.451   4.992
50305SOL    HW252755  13.889  13.412   5.118
50306SOL     OW52756   4.668  13.286   9.420
50306SOL    HW152757   4.728  13.230   9.470
50306SOL    HW252758   4.690  13.269   9.329
50307SOL     OW52759  11.149  10.252   6.520
50307SOL    HW152760  11.127  10.238   6.427
50307SOL    HW252761  11.107  10.180   6.565
50308SOL     OW52762  10.082   8.453   1.912
50308SOL    HW152763  10.090   8.357   1.905
50308SOL    HW252764   9.988   8.469   1.905
50309SOL     OW52765   6.333  10.855  10.582
50309SOL    HW152766   6.372  10.805  10.654
50309SOL    HW252767   6.241  10.828  10.581
50310SOL     OW52768  11.950   6.514   3.718
50310SOL    HW152769  11.886   6.460   3.764
50310SOL    HW252770  11.899   6.560   3.651
50311SOL     OW52771  13.228   4.432   9.718
50311SOL    HW152772  13.295   4.501   9.717
50311SOL    HW252773  13.276   4.352   9.740
50312SOL     OW52774   5.561   2.096   0.633
50312SOL    HW152775   5.619   2.028   0.600
50312SOL    HW252776   5.616   2.152   0.687
50313SOL     OW52777   8.169   3.770   4.267
50313SOL    HW152778   8.254   3.726   4.261
50313SOL    HW252779   8.132   3.738   4.349
50314SOL     OW52780  11.501   8.094   3.167
50314SOL    HW152781  11.539   8.139   3.243
50314SOL    HW252782  11.548   8.011   3.162
50315SOL     OW52783   6.585   3.154   1.193
50315SOL    HW152784   6.661   3.107   1.159
50315SOL    HW252785   6.606   3.170   1.285
50316SOL     OW52786  11.096   6.249   4.671
50316SOL    HW152787  11.042   6.175   4.698
50316SOL    HW252788  11.178   6.238   4.718
50317SOL     OW52789  12.342  10.382   1.069
50317SOL    HW152790  12.372  10.440   0.999
50317SOL    HW252791  12.422  10.341   1.102
50318SOL     OW52792  11.366  10.246  13.537
50318SOL    HW152793  11.446  10.275  13.492
50318SOL    HW252794  11.317  10.327  13.552
50319SOL     OW52795  12.239   4.906  12.197
50319SOL    HW152796  12.229   4.811  12.202
50319SOL    HW252797  12.224   4.926  12.104
50320SOL     OW52798  13.997  10.936   1.103
50320SOL    HW152799  13.906  10.933   1.073
50320SOL    HW252800  14.020  10.844   1.119
50321SOL     OW52801   1.763   3.244   2.715
50321SOL    HW152802   1.756   3.232   2.621
50321SOL    HW252803   1.672   3.257   2.744
50322SOL     OW52804  10.330  13.560  14.366
50322SOL    HW152805  10.246  13.601  14.345
50322SOL    HW252806  10.312  13.507  14.444
50323SOL     OW52807   2.429   0.497  13.872
50323SOL    HW152808   2.518   0.500  13.835
50323SOL    HW252809   2.403   0.405  13.862
50324SOL     OW52810   8.384   5.099  12.459
50324SOL    HW152811   8.291   5.103  12.438
50324SOL    HW252812   8.391   5.143  12.544
50325SOL     OW52813  11.227   3.369   6.260
50325SOL    HW152814  11.210   3.320   6.341
50325SOL    HW252815  11.261   3.453   6.289
50326SOL     OW52816  10.477   2.721   5.873
50326SOL    HW152817  10.502   2.743   5.783
50326SOL    HW252818  10.381   2.724   5.872
50327SOL     OW52819   4.616  12.022   7.730
50327SOL    HW152820   4.556  11.953   7.702
50327SOL    HW252821   4.652  11.991   7.813
50328SOL     OW52822  13.768   8.963  11.240
50328SOL    HW152823  13.771   8.955  11.145
50328SOL    HW252824  13.858   8.988  11.265
50329SOL     OW52825   5.178   6.302   1.019
50329SOL    HW152826   5.261   6.268   1.054
50329SOL    HW252827   5.113   6.236   1.044
50330SOL     OW52828   7.763   5.127  13.587
50330SOL    HW152829   7.719   5.134  13.503
50330SOL    HW252830   7.714   5.060  13.635
50331SOL     OW52831   3.373  12.246   5.607
50331SOL    HW152832   3.319  12.204   5.674
50331SOL    HW252833   3.309  12.286   5.547
50332SOL     OW52834   5.702  10.335   1.132
50332SOL    HW152835   5.613  10.369   1.124
50332SOL    HW252836   5.749  10.403   1.182
50333SOL     OW52837  13.454   0.462  14.879
50333SOL    HW152838  13.378   0.498  14.833
50333SOL    HW252839  13.456   0.508   0.081
50334SOL     OW52840   0.135   8.021   1.963
50334SOL    HW152841   0.103   7.976   2.041
50334SOL    HW252842   0.192   8.090   1.997
50335SOL     OW52843   2.859   5.560  14.872
50335SOL    HW152844   2.925   5.600   0.047
50335SOL    HW252845   2.776   5.573   0.038
50336SOL     OW52846   5.233   4.382   5.179
50336SOL    HW152847   5.190   4.340   5.254
50336SOL    HW252848   5.278   4.310   5.134
50337SOL     OW52849   3.639   2.769   1.252
50337SOL    HW152850   3.698   2.694   1.258
50337SOL    HW252851   3.565   2.737   1.201
50338SOL     OW52852   8.416   7.489   6.641
50338SOL    HW152853   8.395   7.458   6.729
50338SOL    HW252854   8.452   7.577   6.655
50339SOL     OW52855   5.849   9.644   6.597
50339SOL    HW152856   5.788   9.570   6.595
50339SOL    HW252857   5.934   9.604   6.577
50340SOL     OW52858   2.712   0.666   3.612
50340SOL    HW152859   2.713   0.571   3.624
50340SOL    HW252860   2.655   0.680   3.536
50341SOL     OW52861   2.963  14.145   9.019
50341SOL    HW152862   2.878  14.101   9.012
50341SOL    HW252863   3.026  14.081   8.988
50342SOL     OW52864  14.465   9.291  11.976
50342SOL    HW152865  14.536   9.316  11.917
50342SOL    HW252866  14.419   9.373  11.995
50343SOL     OW52867   2.617  10.592   3.539
50343SOL    HW152868   2.673  10.647   3.485
50343SOL    HW252869   2.598  10.645   3.616
50344SOL     OW52870   9.898   7.253   2.896
50344SOL    HW152871   9.827   7.284   2.952
50344SOL    HW252872   9.962   7.216   2.956
50345SOL     OW52873   5.612   7.332   5.710
50345SOL    HW152874   5.552   7.302   5.641
50345SOL    HW252875   5.599   7.270   5.781
50346SOL     OW52876  11.424   5.444   6.587
50346SOL    HW152877  11.457   5.523   6.630
50346SOL    HW252878  11.419   5.379   6.657
50347SOL     OW52879   0.352   7.961   8.207
50347SOL    HW152880   0.344   8.057   8.205
50347SOL    HW252881   0.322   7.934   8.120
50348SOL     OW52882   3.355  14.648   8.272
50348SOL    HW152883   3.424  14.666   8.336
50348SOL    HW252884   3.387  14.572   8.223
50349SOL     OW52885   3.065   5.020   0.150
50349SOL    HW152886   3.106   5.036   0.235
50349SOL    HW252887   2.971   5.029   0.167
50350SOL     OW52888   1.971  10.492   2.141
50350SOL    HW152889   1.993  10.416   2.087
50350SOL    HW252890   1.877  10.502   2.132
50351SOL     OW52891  13.438   4.885  12.370
50351SOL    HW152892  13.518   4.899  12.320
50351SOL    HW252893  13.445   4.946  12.444
50352SOL     OW52894   8.793   0.597   8.050
50352SOL    HW152895   8.862   0.606   8.116
50352SOL    HW252896   8.818   0.660   7.982
50353SOL     OW52897  13.409   3.316   9.486
50353SOL    HW152898  13.411   3.410   9.470
50353SOL    HW252899  13.323   3.288   9.454
50354SOL     OW52900   6.340   8.147  14.196
50354SOL    HW152901   6.266   8.162  14.255
50354SOL    HW252902   6.325   8.059  14.161
50355SOL     OW52903   0.452   1.640  13.461
50355SOL    HW152904   0.405   1.651  13.544
50355SOL    HW252905   0.527   1.584  13.484
50356SOL     OW52906   1.405   6.978  12.707
50356SOL    HW152907   1.370   7.048  12.762
50356SOL    HW252908   1.489   6.956  12.746
50357SOL     OW52909   2.460   6.437   2.652
50357SOL    HW152910   2.457   6.504   2.584
50357SOL    HW252911   2.530   6.465   2.711
50358SOL     OW52912   6.698   9.091  13.512
50358SOL    HW152913   6.710   9.041  13.432
50358SOL    HW252914   6.658   9.174  13.484
50359SOL     OW52915  11.235   0.211   6.740
50359SOL    HW152916  11.329   0.193   6.741
50359SOL    HW252917  11.195   0.124   6.739
50360SOL     OW52918   4.691   7.195   9.642
50360SOL    HW152919   4.711   7.163   9.554
50360SOL    HW252920   4.646   7.123   9.685
50361SOL     OW52921  12.481  11.420   3.412
50361SOL    HW152922  12.480  11.479   3.336
50361SOL    HW252923  12.572  11.422   3.442
50362SOL     OW52924   6.551  13.214   2.394
50362SOL    HW152925   6.472  13.162   2.378
50362SOL    HW252926   6.601  13.207   2.313
50363SOL     OW52927  11.900   8.686  14.540
50363SOL    HW152928  11.887   8.663  14.448
50363SOL    HW252929  11.815   8.718  14.570
50364SOL     OW52930  14.279   5.404  11.578
50364SOL    HW152931  14.225   5.443  11.647
50364SOL    HW252932  14.361   5.381  11.622
50365SOL     OW52933  10.767  10.647  13.630
50365SOL    HW152934  10.797  10.581  13.691
50365SOL    HW252935  10.736  10.719  13.685
50366SOL     OW52936   4.085  12.745  14.055
50366SOL    HW152937   4.026  12.674  14.081
50366SOL    HW252938   4.067  12.757  13.962
50367SOL     OW52939   6.141   6.386   5.087
50367SOL    HW152940   6.110   6.471   5.119
50367SOL    HW252941   6.235   6.397   5.077
50368SOL     OW52942   1.206  10.149   5.168
50368SOL    HW152943   1.244  10.155   5.255
50368SOL    HW252944   1.256  10.080   5.124
50369SOL     OW52945   4.097  12.189  11.192
50369SOL    HW152946   4.130  12.154  11.275
50369SOL    HW252947   4.151  12.148  11.125
50370SOL     OW52948  13.005   5.238  11.775
50370SOL    HW152949  13.032   5.314  11.827
50370SOL    HW252950  12.915   5.257  11.748
50371SOL     OW52951   9.560   2.623   6.749
50371SOL    HW152952   9.541   2.573   6.669
50371SOL    HW252953   9.557   2.715   6.721
50372SOL     OW52954  14.879  13.511   1.193
50372SOL    HW152955   0.001  13.488   1.286
50372SOL    HW252956  14.786  13.528   1.176
50373SOL     OW52957   5.064   9.490   5.406
50373SOL    HW152958   5.047   9.565   5.464
50373SOL    HW252959   5.053   9.525   5.318
50374SOL     OW52960   7.966  11.205  14.311
50374SOL    HW152961   7.883  11.218  14.357
50374SOL    HW252962   7.999  11.121  14.344
50375SOL     OW52963   9.418  12.858  12.307
50375SOL    HW152964   9.428  12.775  12.260
50375SOL    HW252965   9.366  12.913  12.249
50376SOL     OW52966   4.557  12.168  11.651
50376SOL    HW152967   4.545  12.186  11.744
50376SOL    HW252968   4.599  12.082  11.648
50377SOL     OW52969  14.859   6.556   7.568
50377SOL    HW152970   0.058   6.527   7.610
50377SOL    HW252971  14.826   6.478   7.524
50378SOL     OW52972   3.876  14.795   5.937
50378SOL    HW152973   3.866  14.760   5.849
50378SOL    HW252974   3.788  14.795   5.974
50379SOL     OW52975  14.655   4.119   9.322
50379SOL    HW152976  14.653   4.023   9.320
50379SOL    HW252977  14.742   4.142   9.292
50380SOL     OW52978   6.401  14.179   9.001
50380SOL    HW152979   6.421  14.265   8.966
50380SOL    HW252980   6.475  14.159   9.059
50381SOL     OW52981  12.839   2.139   2.942
50381SOL    HW152982  12.909   2.193   2.903
50381SOL    HW252983  12.765   2.149   2.882
50382SOL     OW52984   0.551   6.663   7.367
50382SOL    HW152985   0.494   6.667   7.290
50382SOL    HW252986   0.576   6.571   7.373
50383SOL     OW52987   6.003   9.348   9.673
50383SOL    HW152988   5.938   9.418   9.676
50383SOL    HW252989   6.061   9.372   9.601
50384SOL     OW52990   7.562   2.195  14.625
50384SOL    HW152991   7.639   2.140  14.607
50384SOL    HW252992   7.518   2.204  14.541
50385SOL     OW52993   8.170   4.121   8.142
50385SOL    HW152994   8.115   4.162   8.075
50385SOL    HW252995   8.118   4.124   8.222
50386SOL     OW52996   9.984   8.432  12.932
50386SOL    HW152997   9.990   8.494  13.004
50386SOL    HW252998   9.909   8.377  12.953
50387SOL     OW52999  11.154   2.888   5.162
50387SOL    HW153000  11.187   2.933   5.084
50387SOL    HW253001  11.233   2.865   5.211
50388SOL     OW53002   3.610  11.856   9.909
50388SOL    HW153003   3.697  11.895   9.921
50388SOL    HW253004   3.567  11.867   9.993
50389SOL     OW53005   7.785   6.250   0.915
50389SOL    HW153006   7.809   6.280   1.003
50389SOL    HW253007   7.838   6.304   0.856
50390SOL     OW53008   1.991   9.594  13.780
50390SOL    HW153009   1.972   9.644  13.860
50390SOL    HW253010   1.974   9.656  13.709
50391SOL     OW53011  13.738  11.029  11.559
50391SOL    HW153012  13.723  11.040  11.653
50391SOL    HW253013  13.710  10.939  11.542
50392SOL     OW53014   3.028  13.069  13.525
50392SOL    HW153015   3.039  12.985  13.481
50392SOL    HW253016   3.017  13.047  13.617
50393SOL     OW53017   3.422   1.024  10.215
50393SOL    HW153018   3.432   1.034  10.310
50393SOL    HW253019   3.360   1.092  10.190
50394SOL     OW53020   8.878   4.579   2.945
50394SOL    HW153021   8.905   4.666   2.975
50394SOL    HW253022   8.947   4.553   2.884
50395SOL     OW53023  12.442  12.900   7.634
50395SOL    HW153024  12.517  12.849   7.663
50395SOL    HW253025  12.415  12.951   7.711
50396SOL     OW53026   1.710   0.260   2.126
50396SOL    HW153027   1.695   0.166   2.123
50396SOL    HW253028   1.774   0.276   2.056
50397SOL     OW53029   1.722   0.290  11.732
50397SOL    HW153030   1.805   0.252  11.761
50397SOL    HW253031   1.730   0.383  11.749
50398SOL     OW53032  13.600   6.437   5.755
50398SOL    HW153033  13.683   6.393   5.736
50398SOL    HW253034  13.542   6.409   5.685
50399SOL     OW53035   2.868  14.286   3.982
50399SOL    HW153036   2.820  14.216   4.026
50399SOL    HW253037   2.916  14.330   4.053
50400SOL     OW53038   8.158   7.118   0.161
50400SOL    HW153039   8.173   7.195   0.107
50400SOL    HW253040   8.121   7.053   0.100
50401SOL     OW53041   1.937  11.672  11.481
50401SOL    HW153042   1.911  11.746  11.427
50401SOL    HW253043   1.948  11.600  11.419
50402SOL     OW53044  13.242   5.945  12.582
50402SOL    HW153045  13.296   5.925  12.659
50402SOL    HW253046  13.243   5.864  12.531
50403SOL     OW53047   0.358   0.130   8.394
50403SOL    HW153048   0.376   0.206   8.449
50403SOL    HW253049   0.283   0.155   8.340
50404SOL     OW53050   6.439   2.628   1.346
50404SOL    HW153051   6.515   2.682   1.321
50404SOL    HW253052   6.462   2.540   1.317
50405SOL     OW53053   1.289   1.168   4.200
50405SOL    HW153054   1.351   1.222   4.248
50405SOL    HW253055   1.248   1.113   4.266
50406SOL     OW53056   0.694  11.548   9.006
50406SOL    HW153057   0.751  11.565   9.081
50406SOL    HW253058   0.752  11.557   8.930
50407SOL     OW53059   9.963   7.117  12.425
50407SOL    HW153060  10.018   7.129  12.502
50407SOL    HW253061   9.962   7.203  12.383
50408SOL     OW53062  13.022   8.824   6.051
50408SOL    HW153063  13.043   8.891   6.116
50408SOL    HW253064  12.951   8.773   6.091
50409SOL     OW53065  12.810  10.863   3.441
50409SOL    HW153066  12.898  10.873   3.405
50409SOL    HW253067  12.760  10.824   3.369
50410SOL     OW53068   5.922   5.394  13.349
50410SOL    HW153069   5.986   5.324  13.362
50410SOL    HW253070   5.838   5.349  13.343
50411SOL     OW53071   0.983   7.795   4.285
50411SOL    HW153072   0.983   7.837   4.199
50411SOL    HW253073   0.892   7.767   4.298
50412SOL     OW53074  12.323  13.289   5.046
50412SOL    HW153075  12.357  13.361   5.101
50412SOL    HW253076  12.371  13.297   4.964
50413SOL     OW53077   5.001   1.249  13.251
50413SOL    HW153078   4.992   1.343  13.235
50413SOL    HW253079   5.050   1.243  13.333
50414SOL     OW53080  13.761   4.657  10.075
50414SOL    HW153081  13.723   4.613   9.999
50414SOL    HW253082  13.854   4.639  10.069
50415SOL     OW53083  11.035   3.733   6.328
50415SOL    HW153084  11.120   3.777   6.318
50415SOL    HW253085  11.019   3.734   6.422
50416SOL     OW53086   5.788   3.044   0.018
50416SOL    HW153087   5.795   2.979  14.830
50416SOL    HW253088   5.815   3.126  14.859
50417SOL     OW53089   0.421   0.072   3.513
50417SOL    HW153090   0.494   0.047   3.569
50417SOL    HW253091   0.361  14.879   3.517
50418SOL     OW53092  13.031   0.606   5.237
50418SOL    HW153093  12.942   0.579   5.256
50418SOL    HW253094  13.031   0.626   5.143
50419SOL     OW53095   7.457  12.660   9.061
50419SOL    HW153096   7.448  12.567   9.040
50419SOL    HW253097   7.501  12.697   8.985
50420SOL     OW53098   9.789   6.861   8.313
50420SOL    HW153099   9.850   6.850   8.240
50420SOL    HW253100   9.704   6.833   8.278
50421SOL     OW53101  13.812  11.662   2.568
50421SOL    HW153102  13.847  11.670   2.479
50421SOL    HW253103  13.880  11.700   2.624
50422SOL     OW53104   2.559  11.839   5.214
50422SOL    HW153105   2.551  11.745   5.194
50422SOL    HW253106   2.493  11.880   5.159
50423SOL     OW53107   5.526  12.251   7.344
50423SOL    HW153108   5.552  12.198   7.419
50423SOL    HW253109   5.601  12.249   7.285
50424SOL     OW53110  13.403   9.013   8.030
50424SOL    HW153111  13.415   8.930   8.074
50424SOL    HW253112  13.328   8.998   7.971
50425SOL     OW53113  12.301  13.431   0.178
50425SOL    HW153114  12.393  13.433   0.202
50425SOL    HW253115  12.302  13.425   0.082
50426SOL     OW53116  13.430   9.196  14.614
50426SOL    HW153117  13.426   9.172  14.522
50426SOL    HW253118  13.485   9.273  14.617
50427SOL     OW53119   4.376  11.982  14.734
50427SOL    HW153120   4.460  11.944  14.757
50427SOL    HW253121   4.358  12.046  14.804
50428SOL     OW53122   5.311  13.678   5.841
50428SOL    HW153123   5.329  13.587   5.863
50428SOL    HW253124   5.215  13.683   5.841
50429SOL     OW53125   6.169   1.382   6.714
50429SOL    HW153126   6.223   1.461   6.718
50429SOL    HW253127   6.213   1.325   6.651
50430SOL     OW53128   9.693   4.357   0.324
50430SOL    HW153129   9.755   4.365   0.251
50430SOL    HW253130   9.748   4.334   0.399
50431SOL     OW53131   6.646   7.044   2.246
50431SOL    HW153132   6.603   6.995   2.176
50431SOL    HW253133   6.576   7.070   2.305
50432SOL     OW53134   7.380   3.477   9.356
50432SOL    HW153135   7.460   3.524   9.331
50432SOL    HW253136   7.375   3.404   9.293
50433SOL     OW53137   3.620   2.436   9.386
50433SOL    HW153138   3.526   2.433   9.398
50433SOL    HW253139   3.632   2.469   9.297
50434SOL     OW53140   1.319   4.507  10.224
50434SOL    HW153141   1.256   4.436  10.238
50434SOL    HW253142   1.266   4.586  10.227
50435SOL     OW53143   1.113   8.446   2.917
50435SOL    HW153144   1.092   8.520   2.973
50435SOL    HW253145   1.047   8.448   2.847
50436SOL     OW53146   3.191   7.984   9.865
50436SOL    HW153147   3.173   8.062   9.812
50436SOL    HW253148   3.287   7.982   9.872
50437SOL     OW53149   7.801  13.085  14.690
50437SOL    HW153150   7.790  13.049  14.602
50437SOL    HW253151   7.792  13.180  14.678
50438SOL     OW53152   7.847  12.689  10.770
50438SOL    HW153153   7.863  12.745  10.694
50438SOL    HW253154   7.799  12.744  10.831
50439SOL     OW53155   9.619  13.633   1.869
50439SOL    HW153156   9.567  13.693   1.923
50439SOL    HW253157   9.581  13.547   1.884
50440SOL     OW53158   5.446   5.997  12.686
50440SOL    HW153159   5.534   6.023  12.657
50440SOL    HW253160   5.403   5.966  12.606
50441SOL     OW53161   4.055   1.181  12.460
50441SOL    HW153162   4.059   1.122  12.536
50441SOL    HW253163   4.143   1.177  12.423
50442SOL     OW53164  12.263   5.695   3.871
50442SOL    HW153165  12.305   5.773   3.836
50442SOL    HW253166  12.192   5.728   3.926
50443SOL     OW53167   6.501  12.073   0.605
50443SOL    HW153168   6.586  12.072   0.650
50443SOL    HW253169   6.440  12.039   0.670
50444SOL     OW53170   9.360   1.080   7.449
50444SOL    HW153171   9.310   1.002   7.424
50444SOL    HW253172   9.431   1.046   7.503
50445SOL     OW53173   3.051  10.177   9.614
50445SOL    HW153174   3.131  10.141   9.576
50445SOL    HW253175   3.039  10.127   9.695
50446SOL     OW53176  11.440  14.655  13.351
50446SOL    HW153177  11.470  14.740  13.384
50446SOL    HW253178  11.478  14.649  13.263
50447SOL     OW53179   3.681   5.380   6.224
50447SOL    HW153180   3.679   5.316   6.295
50447SOL    HW253181   3.732   5.338   6.155
50448SOL     OW53182   7.377   4.449   9.186
50448SOL    HW153183   7.410   4.391   9.255
50448SOL    HW253184   7.331   4.390   9.126
50449SOL     OW53185   9.621   8.986   7.003
50449SOL    HW153186   9.647   9.044   7.074
50449SOL    HW253187   9.535   8.951   7.029
50450SOL     OW53188   4.208   1.494   6.110
50450SOL    HW153189   4.173   1.489   6.199
50450SOL    HW253190   4.190   1.584   6.082
50451SOL     OW53191  12.939   7.701   2.404
50451SOL    HW153192  12.974   7.674   2.489
50451SOL    HW253193  12.867   7.760   2.425
50452SOL     OW53194   1.482   0.630   4.736
50452SOL    HW153195   1.395   0.591   4.742
50452SOL    HW253196   1.476   0.710   4.789
50453SOL     OW53197   1.323   1.156   9.268
50453SOL    HW153198   1.401   1.197   9.306
50453SOL    HW253199   1.269   1.229   9.238
50454SOL     OW53200   1.567   3.349   5.227
50454SOL    HW153201   1.598   3.396   5.150
50454SOL    HW253202   1.578   3.256   5.206
50455SOL     OW53203   6.731   5.094  10.191
50455SOL    HW153204   6.659   5.093  10.127
50455SOL    HW253205   6.810   5.092  10.138
50456SOL     OW53206   6.186   3.185  13.563
50456SOL    HW153207   6.102   3.152  13.531
50456SOL    HW253208   6.174   3.280  13.570
50457SOL     OW53209  12.692   0.655   4.968
50457SOL    HW153210  12.731   0.577   5.008
50457SOL    HW253211  12.651   0.701   5.041
50458SOL     OW53212   6.894   3.065  11.206
50458SOL    HW153213   6.929   3.109  11.129
50458SOL    HW253214   6.945   2.984  11.212
50459SOL     OW53215  10.968   7.803  13.609
50459SOL    HW153216  11.039   7.830  13.550
50459SOL    HW253217  10.985   7.710  13.626
50460SOL     OW53218  12.153   5.930   5.092
50460SOL    HW153219  12.238   5.971   5.104
50460SOL    HW253220  12.101   5.961   5.167
50461SOL     OW53221   1.356  13.973   6.236
50461SOL    HW153222   1.369  13.940   6.147
50461SOL    HW253223   1.424  14.039   6.247
50462SOL     OW53224   1.195   4.769   6.423
50462SOL    HW153225   1.121   4.789   6.365
50462SOL    HW253226   1.218   4.853   6.463
50463SOL     OW53227  12.262   2.395  11.825
50463SOL    HW153228  12.194   2.355  11.770
50463SOL    HW253229  12.218   2.412  11.908
50464SOL     OW53230  10.403   8.536  12.317
50464SOL    HW153231  10.426   8.447  12.291
50464SOL    HW253232  10.331   8.526  12.379
50465SOL     OW53233   0.412   6.049   6.777
50465SOL    HW153234   0.367   6.054   6.693
50465SOL    HW253235   0.455   6.134   6.787
50466SOL     OW53236   0.120  11.117  12.615
50466SOL    HW153237   0.124  11.171  12.535
50466SOL    HW253238   0.138  11.178  12.686
50467SOL     OW53239   6.447  13.066   6.934
50467SOL    HW153240   6.439  13.149   6.888
50467SOL    HW253241   6.482  13.005   6.870
50468SOL     OW53242   8.340   4.917   1.295
50468SOL    HW153243   8.368   5.008   1.287
50468SOL    HW253244   8.381   4.886   1.376
50469SOL     OW53245  10.974   4.432   1.426
50469SOL    HW153246  10.956   4.384   1.507
50469SOL    HW253247  10.941   4.520   1.443
50470SOL     OW53248   8.666   6.035   7.191
50470SOL    HW153249   8.583   5.999   7.223
50470SOL    HW253250   8.733   5.983   7.235
50471SOL     OW53251   0.377   6.661   7.158
50471SOL    HW153252   0.328   6.736   7.126
50471SOL    HW253253   0.312   6.607   7.203
50472SOL     OW53254  12.401   2.123   0.885
50472SOL    HW153255  12.390   2.037   0.924
50472SOL    HW253256  12.441   2.176   0.954
50473SOL     OW53257   3.534  11.902  14.750
50473SOL    HW153258   3.453  11.948  14.772
50473SOL    HW253259   3.513  11.809  14.763
50474SOL     OW53260   2.606   9.665  13.271
50474SOL    HW153261   2.653   9.743  13.241
50474SOL    HW253262   2.670   9.618  13.325
50475SOL     OW53263   0.358   7.623  12.706
50475SOL    HW153264   0.445   7.661  12.699
50475SOL    HW253265   0.351   7.594  12.797
50476SOL     OW53266   2.858  11.063  10.882
50476SOL    HW153267   2.849  10.980  10.835
50476SOL    HW253268   2.893  11.038  10.968
50477SOL     OW53269   9.970   8.393  12.220
50477SOL    HW153270   9.935   8.323  12.276
50477SOL    HW253271  10.015   8.452  12.280
50478SOL     OW53272  11.547   4.241   1.243
50478SOL    HW153273  11.567   4.163   1.192
50478SOL    HW253274  11.611   4.240   1.315
50479SOL     OW53275   0.895   1.275   6.720
50479SOL    HW153276   0.891   1.363   6.758
50479SOL    HW253277   0.934   1.221   6.788
50480SOL     OW53278   3.684   3.648   1.332
50480SOL    HW153279   3.681   3.552   1.340
50480SOL    HW253280   3.632   3.666   1.253
50481SOL     OW53281   8.053   7.499  10.638
50481SOL    HW153282   8.068   7.410  10.671
50481SOL    HW253283   7.961   7.517  10.658
50482SOL     OW53284   3.046   3.343   6.491
50482SOL    HW153285   3.091   3.280   6.548
50482SOL    HW253286   2.955   3.342   6.520
50483SOL     OW53287   4.824   0.716   1.335
50483SOL    HW153288   4.744   0.731   1.385
50483SOL    HW253289   4.894   0.750   1.391
50484SOL     OW53290  12.170  13.433  14.569
50484SOL    HW153291  12.112  13.367  14.605
50484SOL    HW253292  12.167  13.419  14.474
50485SOL     OW53293  13.641   0.946   6.874
50485SOL    HW153294  13.656   0.868   6.819
50485SOL    HW253295  13.662   1.019   6.816
50486SOL     OW53296  12.358   0.432   8.560
50486SOL    HW153297  12.378   0.401   8.648
50486SOL    HW253298  12.404   0.372   8.502
50487SOL     OW53299   5.624  10.253   9.675
50487SOL    HW153300   5.655  10.250   9.766
50487SOL    HW253301   5.553  10.317   9.677
50488SOL     OW53302  12.969  12.285   8.838
50488SOL    HW153303  12.919  12.230   8.898
50488SOL    HW253304  13.007  12.353   8.894
50489SOL     OW53305   6.059   4.215   4.901
50489SOL    HW153306   6.077   4.194   4.810
50489SOL    HW253307   6.133   4.268   4.929
50490SOL     OW53308   2.510   0.001   3.977
50490SOL    HW153309   2.478   0.089   3.956
50490SOL    HW253310   2.586   0.015   4.033
50491SOL     OW53311   8.358  10.509  12.110
50491SOL    HW153312   8.366  10.482  12.201
50491SOL    HW253313   8.299  10.585  12.113
50492SOL     OW53314   4.552  14.135   2.903
50492SOL    HW153315   4.487  14.180   2.849
50492SOL    HW253316   4.570  14.053   2.857
50493SOL     OW53317   3.337   1.011   4.525
50493SOL    HW153318   3.335   1.077   4.456
50493SOL    HW253319   3.391   1.050   4.594
50494SOL     OW53320   2.244   2.557   6.525
50494SOL    HW153321   2.252   2.615   6.449
50494SOL    HW253322   2.150   2.542   6.534
50495SOL     OW53323   5.997   4.572   4.088
50495SOL    HW153324   5.938   4.601   4.157
50495SOL    HW253325   6.015   4.480   4.108
50496SOL     OW53326   1.476   5.385   2.650
50496SOL    HW153327   1.382   5.366   2.643
50496SOL    HW253328   1.514   5.344   2.572
50497SOL     OW53329  10.298   3.163   0.851
50497SOL    HW153330  10.308   3.247   0.895
50497SOL    HW253331  10.219   3.125   0.889
50498SOL     OW53332  14.677   1.106   2.039
50498SOL    HW153333  14.694   1.105   1.945
50498SOL    HW253334  14.690   1.197   2.065
50499SOL     OW53335   6.277   5.703  12.407
50499SOL    HW153336   6.225   5.781  12.390
50499SOL    HW253337   6.214   5.631  12.405
50500SOL     OW53338  11.335  12.174   3.785
50500SOL    HW153339  11.314  12.260   3.749
50500SOL    HW253340  11.287  12.112   3.731
50501SOL     OW53341  13.278   7.498   0.209
50501SOL    HW153342  13.303   7.450   0.288
50501SOL    HW253343  13.183   7.497   0.210
50502SOL     OW53344   6.474   2.386   5.433
50502SOL    HW153345   6.489   2.369   5.340
50502SOL    HW253346   6.401   2.448   5.433
50503SOL     OW53347   8.517   1.340   5.610
50503SOL    HW153348   8.537   1.371   5.521
50503SOL    HW253349   8.555   1.406   5.668
50504SOL     OW53350   9.139   2.483  10.531
50504SOL    HW153351   9.158   2.488  10.625
50504SOL    HW253352   9.211   2.531  10.490
50505SOL     OW53353  11.164   1.452   7.160
50505SOL    HW153354  11.225   1.414   7.223
50505SOL    HW253355  11.144   1.539   7.195
50506SOL     OW53356   2.417   5.078   7.741
50506SOL    HW153357   2.413   5.005   7.802
50506SOL    HW253358   2.347   5.061   7.678
50507SOL     OW53359   2.006   7.671  12.296
50507SOL    HW153360   2.086   7.723  12.295
50507SOL    HW253361   1.942   7.726  12.341
50508SOL     OW53362   8.968   3.110   5.488
50508SOL    HW153363   8.943   3.024   5.457
50508SOL    HW253364   8.886   3.158   5.496
50509SOL     OW53365   3.810   0.841  13.211
50509SOL    HW153366   3.820   0.755  13.170
50509SOL    HW253367   3.796   0.821  13.304
50510SOL     OW53368   8.760   4.990   8.504
50510SOL    HW153369   8.774   4.975   8.597
50510SOL    HW253370   8.685   5.049   8.500
50511SOL     OW53371   3.688   7.726   6.413
50511SOL    HW153372   3.647   7.694   6.334
50511SOL    HW253373   3.682   7.653   6.475
50512SOL     OW53374  14.449  14.464   0.528
50512SOL    HW153375  14.382  14.442   0.464
50512SOL    HW253376  14.404  14.516   0.594
50513SOL     OW53377   2.045   4.246   9.824
50513SOL    HW153378   1.949   4.252   9.822
50513SOL    HW253379   2.063   4.153   9.832
50514SOL     OW53380  14.722  13.309   0.266
50514SOL    HW153381  14.776  13.250   0.318
50514SOL    HW253382  14.642  13.320   0.317
50515SOL     OW53383  11.200   3.600  14.226
50515SOL    HW153384  11.288   3.587  14.191
50515SOL    HW253385  11.160   3.514  14.224
50516SOL     OW53386  12.629   9.656   8.622
50516SOL    HW153387  12.545   9.619   8.650
50516SOL    HW253388  12.652   9.606   8.544
50517SOL     OW53389   6.032   7.330  12.909
50517SOL    HW153390   5.985   7.276  12.973
50517SOL    HW253391   6.110   7.360  12.956
50518SOL     OW53392  14.869  13.247  11.075
50518SOL    HW153393   0.027  13.226  10.990
50518SOL    HW253394  14.775  13.251  11.058
50519SOL     OW53395   5.294   3.668  10.572
50519SOL    HW153396   5.298   3.581  10.612
50519SOL    HW253397   5.364   3.717  10.615
50520SOL     OW53398  11.738   6.846   6.058
50520SOL    HW153399  11.787   6.925   6.076
50520SOL    HW253400  11.803   6.776   6.059
50521SOL     OW53401  13.918   0.287  10.607
50521SOL    HW153402  13.837   0.327  10.636
50521SOL    HW253403  13.897   0.194  10.597
50522SOL     OW53404   9.911   6.845   2.421
50522SOL    HW153405   9.826   6.847   2.465
50522SOL    HW253406   9.890   6.834   2.328
50523SOL     OW53407   3.489  13.904  14.866
50523SOL    HW153408   3.582  13.897   0.005
50523SOL    HW253409   3.444  13.875   0.063
50524SOL     OW53410  12.701   3.344   9.040
50524SOL    HW153411  12.702   3.296   9.123
50524SOL    HW253412  12.724   3.434   9.064
50525SOL     OW53413   1.719   2.668   5.202
50525SOL    HW153414   1.757   2.740   5.253
50525SOL    HW253415   1.702   2.706   5.116
50526SOL     OW53416   8.020  14.414   0.709
50526SOL    HW153417   8.116  14.412   0.705
50526SOL    HW253418   8.000  14.504   0.734
50527SOL     OW53419  10.203  11.637   6.766
50527SOL    HW153420  10.286  11.684   6.760
50527SOL    HW253421  10.227  11.547   6.788
50528SOL     OW53422  12.500   2.648   8.012
50528SOL    HW153423  12.579   2.593   8.023
50528SOL    HW253424  12.427   2.586   8.019
50529SOL     OW53425   2.709   2.878   4.352
50529SOL    HW153426   2.711   2.883   4.448
50529SOL    HW253427   2.682   2.965   4.324
50530SOL     OW53428  10.556  11.292   3.329
50530SOL    HW153429  10.461  11.293   3.325
50530SOL    HW253430  10.584  11.254   3.246
50531SOL     OW53431   8.386   5.153   7.991
50531SOL    HW153432   8.463   5.148   7.934
50531SOL    HW253433   8.338   5.230   7.960
50532SOL     OW53434   9.208   1.499   6.165
50532SOL    HW153435   9.195   1.592   6.147
50532SOL    HW253436   9.280   1.497   6.228
50533SOL     OW53437  14.625   9.671  13.454
50533SOL    HW153438  14.579   9.743  13.498
50533SOL    HW253439  14.636   9.701  13.364
50534SOL     OW53440  10.865  14.425   9.257
50534SOL    HW153441  10.947  14.474   9.255
50534SOL    HW253442  10.872  14.370   9.335
50535SOL     OW53443   1.621  13.067   0.894
50535SOL    HW153444   1.641  13.151   0.934
50535SOL    HW253445   1.567  13.088   0.818
50536SOL     OW53446   4.092   1.300   1.577
50536SOL    HW153447   4.016   1.358   1.586
50536SOL    HW253448   4.077   1.231   1.641
50537SOL     OW53449   0.747   5.653  11.213
50537SOL    HW153450   0.681   5.720  11.193
50537SOL    HW253451   0.699   5.587  11.263
50538SOL     OW53452   6.457   3.210   3.541
50538SOL    HW153453   6.482   3.299   3.515
50538SOL    HW253454   6.472   3.157   3.463
50539SOL     OW53455  10.354   0.544   2.430
50539SOL    HW153456  10.448   0.547   2.446
50539SOL    HW253457  10.326   0.460   2.466
50540SOL     OW53458   1.181  10.846  12.779
50540SOL    HW153459   1.171  10.759  12.740
50540SOL    HW253460   1.150  10.906  12.711
50541SOL     OW53461   0.116   5.186   3.152
50541SOL    HW153462   0.184   5.136   3.106
50541SOL    HW253463   0.040   5.183   3.094
50542SOL     OW53464   4.859   3.717   0.120
50542SOL    HW153465   4.780   3.686   0.075
50542SOL    HW253466   4.831   3.733   0.210
50543SOL     OW53467  11.589  13.500  13.118
50543SOL    HW153468  11.533  13.560  13.166
50543SOL    HW253469  11.532  13.461  13.052
50544SOL     OW53470   3.619   0.013   0.280
50544SOL    HW153471   3.714   0.014   0.274
50544SOL    HW253472   3.592  14.822   0.225
50545SOL     OW53473  14.143  10.356  11.523
50545SOL    HW153474  14.111  10.430  11.574
50545SOL    HW253475  14.135  10.281  11.582
50546SOL     OW53476   7.047  14.195   6.775
50546SOL    HW153477   6.998  14.121   6.812
50546SOL    HW253478   7.085  14.160   6.694
50547SOL     OW53479   6.460  13.292  14.491
50547SOL    HW153480   6.460  13.341  14.573
50547SOL    HW253481   6.482  13.202  14.516
50548SOL     OW53482   5.097  12.662   7.025
50548SOL    HW153483   5.095  12.599   7.097
50548SOL    HW253484   5.005  12.684   7.010
50549SOL     OW53485   9.473   5.839   2.206
50549SOL    HW153486   9.472   5.818   2.112
50549SOL    HW253487   9.564   5.824   2.233
50550SOL     OW53488  12.145   9.697  12.815
50550SOL    HW153489  12.166   9.619  12.765
50550SOL    HW253490  12.103   9.756  12.752
50551SOL     OW53491   5.880   9.839   3.557
50551SOL    HW153492   5.867   9.891   3.478
50551SOL    HW253493   5.894   9.903   3.627
50552SOL     OW53494   1.682  12.949   1.653
50552SOL    HW153495   1.641  13.010   1.592
50552SOL    HW253496   1.675  12.992   1.738
50553SOL     OW53497   3.121   1.960  14.082
50553SOL    HW153498   3.104   2.017  14.006
50553SOL    HW253499   3.143   1.875  14.044
50554SOL     OW53500   6.990   0.727   4.249
50554SOL    HW153501   6.971   0.649   4.198
50554SOL    HW253502   6.997   0.797   4.185
50555SOL     OW53503   1.624  12.666   6.914
50555SOL    HW153504   1.637  12.723   6.990
50555SOL    HW253505   1.672  12.709   6.843
50556SOL     OW53506  13.500   5.072  11.251
50556SOL    HW153507  13.411   5.097  11.276
50556SOL    HW253508  13.542   5.046  11.333
50557SOL     OW53509  11.415  13.413  12.907
50557SOL    HW153510  11.362  13.358  12.966
50557SOL    HW253511  11.378  13.398  12.820
50558SOL     OW53512  13.107  11.527  14.079
50558SOL    HW153513  13.087  11.544  13.987
50558SOL    HW253514  13.202  11.513  14.080
50559SOL     OW53515  11.927   3.562   9.369
50559SOL    HW153516  11.996   3.533   9.429
50559SOL    HW253517  11.855   3.587   9.426
50560SOL     OW53518   9.001   1.269   9.976
50560SOL    HW153519   8.937   1.227  10.033
50560SOL    HW253520   9.061   1.198   9.952
50561SOL     OW53521   7.291   4.331  14.142
50561SOL    HW153522   7.344   4.334  14.222
50561SOL    HW253523   7.331   4.396  14.085
50562SOL     OW53524   0.958   0.760   2.697
50562SOL    HW153525   0.924   0.792   2.781
50562SOL    HW253526   0.935   0.667   2.696
50563SOL     OW53527  14.390   7.953   9.656
50563SOL    HW153528  14.443   7.877   9.632
50563SOL    HW253529  14.312   7.915   9.696
50564SOL     OW53530   1.724   3.022  14.528
50564SOL    HW153531   1.753   2.932  14.540
50564SOL    HW253532   1.793   3.062  14.475
50565SOL     OW53533  13.532  10.447   8.509
50565SOL    HW153534  13.495  10.488   8.587
50565SOL    HW253535  13.598  10.509   8.478
50566SOL     OW53536   7.568   1.665   8.655
50566SOL    HW153537   7.625   1.740   8.639
50566SOL    HW253538   7.565   1.619   8.571
50567SOL     OW53539   7.185   3.013   5.336
50567SOL    HW153540   7.180   3.085   5.399
50567SOL    HW253541   7.165   2.935   5.388
50568SOL     OW53542  13.618   0.272   5.275
50568SOL    HW153543  13.584   0.324   5.348
50568SOL    HW253544  13.691   0.323   5.241
50569SOL     OW53545  10.631   3.480   4.250
50569SOL    HW153546  10.562   3.516   4.195
50569SOL    HW253547  10.709   3.532   4.229
50570SOL     OW53548  13.409   9.291   9.371
50570SOL    HW153549  13.407   9.338   9.455
50570SOL    HW253550  13.343   9.223   9.381
50571SOL     OW53551   1.713  11.873   4.179
50571SOL    HW153552   1.625  11.881   4.216
50571SOL    HW253553   1.707  11.798   4.120
50572SOL     OW53554  12.958   0.811  10.684
50572SOL    HW153555  12.940   0.717  10.685
50572SOL    HW253556  12.948   0.838  10.776
50573SOL     OW53557  13.784  13.089   5.575
50573SOL    HW153558  13.854  13.143   5.611
50573SOL    HW253559  13.820  13.053   5.494
50574SOL     OW53560   2.217   8.805  11.943
50574SOL    HW153561   2.195   8.716  11.913
50574SOL    HW253562   2.303   8.797  11.982
50575SOL     OW53563   9.919   3.026   3.954
50575SOL    HW153564  10.007   3.045   3.985
50575SOL    HW253565   9.880   2.973   4.024
50576SOL     OW53566  12.049   5.910   5.348
50576SOL    HW153567  12.071   5.974   5.417
50576SOL    HW253568  12.062   5.825   5.390
50577SOL     OW53569  10.549   7.317   7.601
50577SOL    HW153570  10.480   7.369   7.559
50577SOL    HW253571  10.594   7.273   7.529
50578SOL     OW53572   0.257   3.150  11.769
50578SOL    HW153573   0.243   3.055  11.776
50578SOL    HW253574   0.239   3.169  11.676
50579SOL     OW53575   7.223   6.907  12.236
50579SOL    HW153576   7.308   6.948  12.225
50579SOL    HW253577   7.237   6.840  12.304
50580SOL     OW53578   4.676   0.742  12.423
50580SOL    HW153579   4.764   0.710  12.439
50580SOL    HW253580   4.640   0.757  12.510
50581SOL     OW53581   7.717   5.840   6.343
50581SOL    HW153582   7.745   5.881   6.261
50581SOL    HW253583   7.795   5.840   6.398
50582SOL     OW53584   6.351  13.475   0.726
50582SOL    HW153585   6.404  13.516   0.658
50582SOL    HW253586   6.374  13.523   0.806
50583SOL     OW53587   8.326   4.964  14.350
50583SOL    HW153588   8.393   4.975  14.283
50583SOL    HW253589   8.373   4.974  14.433
50584SOL     OW53590  13.976  14.231  13.415
50584SOL    HW153591  13.906  14.226  13.350
50584SOL    HW253592  14.036  14.297  13.379
50585SOL     OW53593  14.169  14.122   6.478
50585SOL    HW153594  14.213  14.121   6.563
50585SOL    HW253595  14.141  14.031   6.465
50586SOL     OW53596   9.347   5.001   6.670
50586SOL    HW153597   9.430   5.037   6.702
50586SOL    HW253598   9.368   4.965   6.584
50587SOL     OW53599  13.208   6.416   6.681
50587SOL    HW153600  13.291   6.463   6.682
50587SOL    HW253601  13.211   6.366   6.599
50588SOL     OW53602   9.069  10.207   5.069
50588SOL    HW153603   9.140  10.167   5.018
50588SOL    HW253604   9.078  10.301   5.051
50589SOL     OW53605  11.158  11.078   1.022
50589SOL    HW153606  11.078  11.130   1.008
50589SOL    HW253607  11.207  11.127   1.089
50590SOL     OW53608   2.512   1.358  12.723
50590SOL    HW153609   2.503   1.416  12.798
50590SOL    HW253610   2.440   1.295  12.732
50591SOL     OW53611   5.227   9.238   8.367
50591SOL    HW153612   5.178   9.293   8.306
50591SOL    HW253613   5.319   9.252   8.343
50592SOL     OW53614  11.947   6.777   6.723
50592SOL    HW153615  11.959   6.733   6.807
50592SOL    HW253616  11.915   6.708   6.664
50593SOL     OW53617  10.551  13.184   8.189
50593SOL    HW153618  10.524  13.144   8.272
50593SOL    HW253619  10.541  13.114   8.124
50594SOL     OW53620   5.383   6.673  13.664
50594SOL    HW153621   5.461   6.618  13.656
50594SOL    HW253622   5.312   6.620  13.625
50595SOL     OW53623   4.599   6.297   0.430
50595SOL    HW153624   4.676   6.354   0.434
50595SOL    HW253625   4.628   6.216   0.470
50596SOL     OW53626   5.862  13.435  12.370
50596SOL    HW153627   5.844  13.507  12.309
50596SOL    HW253628   5.776  13.410  12.404
50597SOL     OW53629  14.878   2.798   0.288
50597SOL    HW153630   0.036   2.877   0.252
50597SOL    HW253631  14.787   2.823   0.306
50598SOL     OW53632  11.053   2.742   8.559
50598SOL    HW153633  11.143   2.763   8.534
50598SOL    HW253634  11.025   2.677   8.494
50599SOL     OW53635   2.437   5.090   8.409
50599SOL    HW153636   2.370   5.031   8.374
50599SOL    HW253637   2.484   5.037   8.474
50600SOL     OW53638   5.022   8.460   4.575
50600SOL    HW153639   5.048   8.540   4.620
50600SOL    HW253640   5.002   8.488   4.486
50601SOL     OW53641  11.594  13.177   1.003
50601SOL    HW153642  11.619  13.260   1.043
50601SOL    HW253643  11.595  13.195   0.909
50602SOL     OW53644   8.902   9.353   0.597
50602SOL    HW153645   8.992   9.386   0.589
50602SOL    HW253646   8.847   9.431   0.588
50603SOL     OW53647   4.267   4.403  13.756
50603SOL    HW153648   4.194   4.411  13.694
50603SOL    HW253649   4.264   4.484  13.807
50604SOL     OW53650   3.321   8.423   9.483
50604SOL    HW153651   3.394   8.485   9.480
50604SOL    HW253652   3.300   8.406   9.392
50605SOL     OW53653   8.149   4.317  10.923
50605SOL    HW153654   8.130   4.247  10.984
50605SOL    HW253655   8.132   4.279  10.837
50606SOL     OW53656   5.112  10.389   8.337
50606SOL    HW153657   5.063  10.426   8.410
50606SOL    HW253658   5.048  10.385   8.265
50607SOL     OW53659   7.431   8.978  13.234
50607SOL    HW153660   7.336   8.973  13.248
50607SOL    HW253661   7.447   8.926  13.156
50608SOL     OW53662   7.647   5.098   9.053
50608SOL    HW153663   7.623   5.062   9.138
50608SOL    HW253664   7.571   5.080   8.997
50609SOL     OW53665  10.203  10.988   8.118
50609SOL    HW153666  10.227  10.965   8.208
50609SOL    HW253667  10.232  10.912   8.066
50610SOL     OW53668   4.381  13.192   7.351
50610SOL    HW153669   4.298  13.229   7.382
50610SOL    HW253670   4.444  13.263   7.361
50611SOL     OW53671   1.895   6.560  10.396
50611SOL    HW153672   1.930   6.587  10.480
50611SOL    HW253673   1.966   6.510  10.355
50612SOL     OW53674   0.916   3.899   4.811
50612SOL    HW153675   0.962   3.860   4.736
50612SOL    HW253676   0.882   3.982   4.778
50613SOL     OW53677   0.529   4.241   3.350
50613SOL    HW153678   0.481   4.161   3.370
50613SOL    HW253679   0.575   4.221   3.268
50614SOL     OW53680  10.347  14.773  12.712
50614SOL    HW153681  10.335  14.686  12.675
50614SOL    HW253682  10.259  14.807  12.722
50615SOL     OW53683   5.661   0.942  11.026
50615SOL    HW153684   5.604   0.930  10.949
50615SOL    HW253685   5.647   0.863  11.078
50616SOL     OW53686   4.819  12.634   3.831
50616SOL    HW153687   4.871  12.598   3.760
50616SOL    HW253688   4.842  12.581   3.907
50617SOL     OW53689   6.971   4.701   4.883
50617SOL    HW153690   7.054   4.739   4.856
50617SOL    HW253691   6.921   4.775   4.918
50618SOL     OW53692  14.439   1.870  13.630
50618SOL    HW153693  14.368   1.909  13.681
50618SOL    HW253694  14.451   1.928  13.555
50619SOL     OW53695   0.980   7.905   4.045
50619SOL    HW153696   1.027   7.828   4.013
50619SOL    HW253697   0.935   7.939   3.968
50620SOL     OW53698   6.609   5.250   8.935
50620SOL    HW153699   6.594   5.248   9.030
50620SOL    HW253700   6.672   5.180   8.919
50621SOL     OW53701   8.238   6.365  14.045
50621SOL    HW153702   8.236   6.271  14.064
50621SOL    HW253703   8.182   6.405  14.112
50622SOL     OW53704  14.540   6.844   6.911
50622SOL    HW153705  14.473   6.884   6.967
50622SOL    HW253706  14.597   6.917   6.886
50623SOL     OW53707   7.876  14.716   8.596
50623SOL    HW153708   7.929  14.647   8.635
50623SOL    HW253709   7.786  14.683   8.603
50624SOL     OW53710   0.391  13.025   4.117
50624SOL    HW153711   0.357  13.056   4.033
50624SOL    HW253712   0.369  12.932   4.118
50625SOL     OW53713  13.044  12.900   4.148
50625SOL    HW153714  13.019  12.810   4.127
50625SOL    HW253715  12.976  12.931   4.206
50626SOL     OW53716   6.188   7.986   2.687
50626SOL    HW153717   6.144   7.902   2.700
50626SOL    HW253718   6.129   8.036   2.631
50627SOL     OW53719   4.503   9.697   8.159
50627SOL    HW153720   4.472   9.683   8.070
50627SOL    HW253721   4.598   9.709   8.150
50628SOL     OW53722  14.265   2.205   3.774
50628SOL    HW153723  14.226   2.292   3.778
50628SOL    HW253724  14.273   2.178   3.866
50629SOL     OW53725   0.385   1.411   9.282
50629SOL    HW153726   0.344   1.375   9.361
50629SOL    HW253727   0.477   1.422   9.306
50630SOL     OW53728   5.248   4.577   8.449
50630SOL    HW153729   5.172   4.550   8.501
50630SOL    HW253730   5.321   4.579   8.511
50631SOL     OW53731   6.210   8.032   2.997
50631SOL    HW153732   6.298   8.043   3.031
50631SOL    HW253733   6.222   8.013   2.904
50632SOL     OW53734  11.935   4.535  10.273
50632SOL    HW153735  11.883   4.456  10.292
50632SOL    HW253736  11.874   4.595  10.232
50633SOL     OW53737   2.876  10.340   4.610
50633SOL    HW153738   2.933  10.381   4.675
50633SOL    HW253739   2.918  10.358   4.526
50634SOL     OW53740   0.420   3.295  14.779
50634SOL    HW153741   0.509   3.262  14.786
50634SOL    HW253742   0.365   3.217  14.791
50635SOL     OW53743   5.411   1.664  13.967
50635SOL    HW153744   5.494   1.655  13.920
50635SOL    HW253745   5.413   1.596  14.034
50636SOL     OW53746   8.538   1.490   6.917
50636SOL    HW153747   8.462   1.549   6.917
50636SOL    HW253748   8.519   1.425   6.984
50637SOL     OW53749  11.674   5.582   9.401
50637SOL    HW153750  11.671   5.575   9.496
50637SOL    HW253751  11.695   5.494   9.370
50638SOL     OW53752   3.234   4.629  12.201
50638SOL    HW153753   3.259   4.695  12.266
50638SOL    HW253754   3.296   4.641  12.129
50639SOL     OW53755  11.829  11.959  12.839
50639SOL    HW153756  11.868  11.913  12.765
50639SOL    HW253757  11.877  11.928  12.916
50640SOL     OW53758   1.237   9.694  11.510
50640SOL    HW153759   1.202   9.685  11.599
50640SOL    HW253760   1.211   9.613  11.466
50641SOL     OW53761   1.333   8.416  12.730
50641SOL    HW153762   1.339   8.446  12.639
50641SOL    HW253763   1.275   8.479  12.772
50642SOL     OW53764   3.859  13.436   7.803
50642SOL    HW153765   3.945  13.435   7.844
50642SOL    HW253766   3.863  13.370   7.734
50643SOL     OW53767   5.803   2.053   8.542
50643SOL    HW153768   5.765   1.986   8.598
50643SOL    HW253769   5.756   2.133   8.564
50644SOL     OW53770   2.611   6.668  12.706
50644SOL    HW153771   2.688   6.664  12.650
50644SOL    HW253772   2.571   6.582  12.700
50645SOL     OW53773  13.559  14.264   3.379
50645SOL    HW153774  13.526  14.223   3.300
50645SOL    HW253775  13.534  14.205   3.450
50646SOL     OW53776   8.105  13.969   5.831
50646SOL    HW153777   8.015  13.947   5.856
50646SOL    HW253778   8.096  14.042   5.769
50647SOL     OW53779  14.015   5.277   2.161
50647SOL    HW153780  14.019   5.354   2.218
50647SOL    HW253781  14.106   5.252   2.147
50648SOL     OW53782   7.386  12.911   5.417
50648SOL    HW153783   7.335  12.852   5.361
50648SOL    HW253784   7.473  12.870   5.423
50649SOL     OW53785   3.631  13.443   6.045
50649SOL    HW153786   3.718  13.467   6.078
50649SOL    HW253787   3.648  13.384   5.972
50650SOL     OW53788   1.270   2.346  11.151
50650SOL    HW153789   1.242   2.437  11.167
50650SOL    HW253790   1.356   2.354  11.110
50651SOL     OW53791   7.415  11.366  10.493
50651SOL    HW153792   7.464  11.338  10.416
50651SOL    HW253793   7.400  11.286  10.543
50652SOL     OW53794   5.437  11.241   0.640
50652SOL    HW153795   5.411  11.226   0.549
50652SOL    HW253796   5.517  11.191   0.651
50653SOL     OW53797   5.787  13.885   3.725
50653SOL    HW153798   5.816  13.870   3.816
50653SOL    HW253799   5.706  13.934   3.734
50654SOL     OW53800   8.177   1.294  14.096
50654SOL    HW153801   8.250   1.261  14.149
50654SOL    HW253802   8.181   1.245  14.015
50655SOL     OW53803  14.506  10.102   0.856
50655SOL    HW153804  14.547  10.188   0.847
50655SOL    HW253805  14.466  10.103   0.943
50656SOL     OW53806   5.962  11.775   9.235
50656SOL    HW153807   5.909  11.854   9.247
50656SOL    HW253808   5.926  11.734   9.157
50657SOL     OW53809  10.393  12.089  12.202
50657SOL    HW153810  10.386  12.022  12.270
50657SOL    HW253811  10.304  12.123  12.193
50658SOL     OW53812   7.208  11.652   4.254
50658SOL    HW153813   7.243  11.614   4.173
50658SOL    HW253814   7.124  11.689   4.228
50659SOL     OW53815   8.495   4.410  11.995
50659SOL    HW153816   8.564   4.441  12.053
50659SOL    HW253817   8.468   4.487  11.946
50660SOL     OW53818   2.480   5.795  12.783
50660SOL    HW153819   2.388   5.792  12.812
50660SOL    HW253820   2.530   5.765  12.859
50661SOL     OW53821  10.753   6.867   0.898
50661SOL    HW153822  10.693   6.817   0.843
50661SOL    HW253823  10.803   6.920   0.836
50662SOL     OW53824   8.180   1.144   3.945
50662SOL    HW153825   8.102   1.184   3.907
50662SOL    HW253826   8.244   1.215   3.951
50663SOL     OW53827   1.283   3.876  13.839
50663SOL    HW153828   1.258   3.791  13.804
50663SOL    HW253829   1.241   3.940  13.781
50664SOL     OW53830  14.330  10.317   4.602
50664SOL    HW153831  14.366  10.396   4.563
50664SOL    HW253832  14.235  10.326   4.592
50665SOL     OW53833  12.912   5.938   5.632
50665SOL    HW153834  12.965   6.017   5.628
50665SOL    HW253835  12.898   5.922   5.725
50666SOL     OW53836  10.444   3.225   3.917
50666SOL    HW153837  10.488   3.187   3.841
50666SOL    HW253838  10.401   3.150   3.960
50667SOL     OW53839   2.099   3.674   5.152
50667SOL    HW153840   2.074   3.750   5.203
50667SOL    HW253841   2.133   3.710   5.069
50668SOL     OW53842   0.909   6.207   4.629
50668SOL    HW153843   0.970   6.233   4.561
50668SOL    HW253844   0.954   6.226   4.711
50669SOL     OW53845   5.819  11.468   7.180
50669SOL    HW153846   5.751  11.487   7.116
50669SOL    HW253847   5.881  11.540   7.171
50670SOL     OW53848  14.105   9.797   1.939
50670SOL    HW153849  14.122   9.823   1.849
50670SOL    HW253850  14.176   9.737   1.961
50671SOL     OW53851  11.475   7.867  11.864
50671SOL    HW153852  11.532   7.898  11.934
50671SOL    HW253853  11.386   7.881  11.896
50672SOL     OW53854   6.178  14.512  13.526
50672SOL    HW153855   6.267  14.490  13.551
50672SOL    HW253856   6.145  14.566  13.598
50673SOL     OW53857  10.956  11.842   6.357
50673SOL    HW153858  10.940  11.870   6.267
50673SOL    HW253859  11.050  11.852   6.369
50674SOL     OW53860  10.788   5.280   0.198
50674SOL    HW153861  10.771   5.297   0.105
50674SOL    HW253862  10.835   5.197   0.198
50675SOL     OW53863  10.955   1.145   6.784
50675SOL    HW153864  11.029   1.205   6.797
50675SOL    HW253865  10.989   1.060   6.810
50676SOL     OW53866  10.374   2.946   3.756
50676SOL    HW153867  10.360   2.960   3.663
50676SOL    HW253868  10.452   2.891   3.761
50677SOL     OW53869   6.984   0.609  12.969
50677SOL    HW153870   7.027   0.695  12.970
50677SOL    HW253871   7.040   0.554  13.024
50678SOL     OW53872   2.235  10.725  13.182
50678SOL    HW153873   2.308  10.671  13.212
50678SOL    HW253874   2.200  10.680  13.106
50679SOL     OW53875  12.877  10.234   9.420
50679SOL    HW153876  12.895  10.176   9.345
50679SOL    HW253877  12.893  10.322   9.387
50680SOL     OW53878  11.387  10.542   4.770
50680SOL    HW153879  11.347  10.629   4.774
50680SOL    HW253880  11.412  10.531   4.678
50681SOL     OW53881  14.205  10.492   1.007
50681SOL    HW153882  14.245  10.511   1.092
50681SOL    HW253883  14.279  10.471   0.950
50682SOL     OW53884  12.324   4.395   9.612
50682SOL    HW153885  12.406   4.392   9.563
50682SOL    HW253886  12.286   4.480   9.589
50683SOL     OW53887   7.362  11.573   4.979
50683SOL    HW153888   7.303  11.643   4.952
50683SOL    HW253889   7.420  11.614   5.044
50684SOL     OW53890   5.342   4.860   0.251
50684SOL    HW153891   5.304   4.861   0.163
50684SOL    HW253892   5.278   4.906   0.305
50685SOL     OW53893   8.011   2.829   4.435
50685SOL    HW153894   8.095   2.875   4.435
50685SOL    HW253895   7.958   2.876   4.500
50686SOL     OW53896  12.602   7.940   0.405
50686SOL    HW153897  12.559   7.885   0.471
50686SOL    HW253898  12.612   8.025   0.448
50687SOL     OW53899   1.673   0.655  12.265
50687SOL    HW153900   1.634   0.658  12.177
50687SOL    HW253901   1.629   0.724  12.313
50688SOL     OW53902   8.441   8.990  12.189
50688SOL    HW153903   8.448   8.924  12.258
50688SOL    HW253904   8.510   8.966  12.126
50689SOL     OW53905   6.559  10.235  14.357
50689SOL    HW153906   6.516  10.258  14.275
50689SOL    HW253907   6.651  10.220  14.332
50690SOL     OW53908  12.369   7.577   6.618
50690SOL    HW153909  12.418   7.516   6.673
50690SOL    HW253910  12.282   7.580   6.658
50691SOL     OW53911   4.584  10.132   6.471
50691SOL    HW153912   4.502  10.173   6.443
50691SOL    HW253913   4.603  10.170   6.556
50692SOL     OW53914   1.896   0.490   5.450
50692SOL    HW153915   1.905   0.461   5.541
50692SOL    HW253916   1.965   0.443   5.403
50693SOL     OW53917   4.489  14.239  11.665
50693SOL    HW153918   4.529  14.223  11.750
50693SOL    HW253919   4.438  14.319  11.678
50694SOL     OW53920  13.721   2.615  12.451
50694SOL    HW153921  13.633   2.584  12.468
50694SOL    HW253922  13.751   2.652  12.534
50695SOL     OW53923   7.601  10.842   0.865
50695SOL    HW153924   7.644  10.922   0.895
50695SOL    HW253925   7.670  10.795   0.817
50696SOL     OW53926   8.083   4.101   0.139
50696SOL    HW153927   8.069   4.029   0.077
50696SOL    HW253928   8.018   4.086   0.207
50697SOL     OW53929   6.485  12.245   3.926
50697SOL    HW153930   6.415  12.304   3.896
50697SOL    HW253931   6.523  12.290   4.001
50698SOL     OW53932   8.496  12.187   8.835
50698SOL    HW153933   8.468  12.105   8.795
50698SOL    HW253934   8.452  12.255   8.784
50699SOL     OW53935  11.356   3.016   6.443
50699SOL    HW153936  11.393   3.104   6.442
50699SOL    HW253937  11.294   3.015   6.371
50700SOL     OW53938   6.422   4.213   2.572
50700SOL    HW153939   6.488   4.164   2.522
50700SOL    HW253940   6.380   4.269   2.507
50701SOL     OW53941   4.921   7.901   8.458
50701SOL    HW153942   4.871   7.839   8.511
50701SOL    HW253943   5.001   7.917   8.509
50702SOL     OW53944   4.538   7.961   0.549
50702SOL    HW153945   4.592   8.039   0.564
50702SOL    HW253946   4.577   7.920   0.472
50703SOL     OW53947   5.857   9.844  11.608
50703SOL    HW153948   5.768   9.849  11.574
50703SOL    HW253949   5.848   9.860  11.702
50704SOL     OW53950   7.832   2.295  12.577
50704SOL    HW153951   7.756   2.341  12.613
50704SOL    HW253952   7.904   2.322  12.634
50705SOL     OW53953   6.168   4.063   2.949
50705SOL    HW153954   6.113   4.016   2.885
50705SOL    HW253955   6.111   4.130   2.986
50706SOL     OW53956  11.370   9.560   1.526
50706SOL    HW153957  11.345   9.600   1.609
50706SOL    HW253958  11.416   9.629   1.478
50707SOL     OW53959   4.219  14.214   1.022
50707SOL    HW153960   4.221  14.133   1.072
50707SOL    HW253961   4.310  14.241   1.015
50708SOL     OW53962  10.494  12.903   9.142
50708SOL    HW153963  10.435  12.896   9.068
50708SOL    HW253964  10.582  12.904   9.104
50709SOL     OW53965  12.200   9.480  11.567
50709SOL    HW153966  12.284   9.435  11.579
50709SOL    HW253967  12.143   9.414  11.528
50710SOL     OW53968  13.061  13.057   1.733
50710SOL    HW153969  13.062  13.004   1.653
50710SOL    HW253970  13.134  13.024   1.785
50711SOL     OW53971   7.721  10.748   7.650
50711SOL    HW153972   7.738  10.699   7.731
50711SOL    HW253973   7.734  10.684   7.581
50712SOL     OW53974  12.578  10.609   1.296
50712SOL    HW153975  12.583  10.704   1.299
50712SOL    HW253976  12.491  10.590   1.260
50713SOL     OW53977  13.529   5.205  11.739
50713SOL    HW153978  13.524   5.301  11.737
50713SOL    HW253979  13.622   5.187  11.754
50714SOL     OW53980   5.273   9.437  11.634
50714SOL    HW153981   5.300   9.345  11.633
50714SOL    HW253982   5.338   9.482  11.580
50715SOL     OW53983   8.944  11.513   4.538
50715SOL    HW153984   8.974  11.502   4.628
50715SOL    HW253985   8.858  11.555   4.546
50716SOL     OW53986   6.598  11.162  12.213
50716SOL    HW153987   6.605  11.072  12.182
50716SOL    HW253988   6.680  11.204  12.186
50717SOL     OW53989  10.025  10.930   4.944
50717SOL    HW153990   9.952  10.923   5.005
50717SOL    HW253991  10.024  11.021   4.916
50718SOL     OW53992   8.329   7.031   6.174
50718SOL    HW153993   8.387   7.023   6.098
50718SOL    HW253994   8.341   7.121   6.204
50719SOL     OW53995  12.687   4.684  10.722
50719SOL    HW153996  12.619   4.748  10.706
50719SOL    HW253997  12.752   4.701  10.654
50720SOL     OW53998  12.629   1.308   4.545
50720SOL    HW153999  12.681   1.272   4.473
50720SOL    HW254000  12.661   1.263   4.622
50721SOL     OW54001   9.554   3.035   3.784
50721SOL    HW154002   9.614   3.103   3.815
50721SOL    HW254003   9.491   3.082   3.730
50722SOL     OW54004  11.165  13.693  12.182
50722SOL    HW154005  11.237  13.756  12.181
50722SOL    HW254006  11.114  13.716  12.259
50723SOL     OW54007   4.621  11.418   5.803
50723SOL    HW154008   4.633  11.326   5.824
50723SOL    HW254009   4.697  11.440   5.748
50724SOL     OW54010   6.219  12.535   9.919
50724SOL    HW154011   6.302  12.516   9.875
50724SOL    HW254012   6.244  12.560  10.008
50725SOL     OW54013   3.834  11.846   9.058
50725SOL    HW154014   3.761  11.807   9.106
50725SOL    HW254015   3.822  11.816   8.968
50726SOL     OW54016   8.393   2.560  12.250
50726SOL    HW154017   8.479   2.541  12.287
50726SOL    HW254018   8.361   2.634  12.300
50727SOL     OW54019   1.528  13.593   2.780
50727SOL    HW154020   1.598  13.593   2.846
50727SOL    HW254021   1.559  13.532   2.713
50728SOL     OW54022   0.588   3.141   0.167
50728SOL    HW154023   0.654   3.076   0.144
50728SOL    HW254024   0.624   3.186   0.243
50729SOL     OW54025   7.435   2.408  14.027
50729SOL    HW154026   7.478   2.325  14.007
50729SOL    HW254027   7.429   2.453  13.943
50730SOL     OW54028  11.956   7.800   3.484
50730SOL    HW154029  12.049   7.782   3.500
50730SOL    HW254030  11.933   7.867   3.548
50731SOL     OW54031  14.875   5.895   1.135
50731SOL    HW154032   0.035   5.980   1.151
50731SOL    HW254033  14.798   5.916   1.081
50732SOL     OW54034  11.674   8.520  12.075
50732SOL    HW154035  11.713   8.595  12.120
50732SOL    HW254036  11.613   8.559  12.013
50733SOL     OW54037   7.906   7.886  13.482
50733SOL    HW154038   7.813   7.910  13.481
50733SOL    HW254039   7.939   7.916  13.397
50734SOL     OW54040  13.102   0.019   6.512
50734SOL    HW154041  13.077   0.106   6.482
50734SOL    HW254042  13.153   0.035   6.591
50735SOL     OW54043  10.404   4.336   8.126
50735SOL    HW154044  10.422   4.244   8.148
50735SOL    HW254045  10.475   4.385   8.168
50736SOL     OW54046   8.425   0.054   6.469
50736SOL    HW154047   8.432  14.857   6.522
50736SOL    HW254048   8.513   0.066   6.433
50737SOL     OW54049  12.595   1.997   3.528
50737SOL    HW154050  12.543   2.073   3.502
50737SOL    HW254051  12.686   2.026   3.521
50738SOL     OW54052   6.323   4.686  12.448
50738SOL    HW154053   6.414   4.655  12.454
50738SOL    HW254054   6.285   4.666  12.534
50739SOL     OW54055   2.029  10.372   8.337
50739SOL    HW154056   1.947  10.373   8.388
50739SOL    HW254057   2.093  10.333   8.397
50740SOL     OW54058   7.047   1.934   5.373
50740SOL    HW154059   7.142   1.934   5.362
50740SOL    HW254060   7.032   1.883   5.453
50741SOL     OW54061  12.637  12.551   9.215
50741SOL    HW154062  12.657  12.469   9.168
50741SOL    HW254063  12.585  12.523   9.290
50742SOL     OW54064   5.148   5.802   2.536
50742SOL    HW154065   5.156   5.897   2.544
50742SOL    HW254066   5.072   5.789   2.479
50743SOL     OW54067   6.981   4.359   0.073
50743SOL    HW154068   7.024   4.331  14.874
50743SOL    HW254069   7.052   4.394   0.127
50744SOL     OW54070   6.169   2.159   1.997
50744SOL    HW154071   6.101   2.175   1.932
50744SOL    HW254072   6.249   2.195   1.958
50745SOL     OW54073  13.198   8.600  11.170
50745SOL    HW154074  13.213   8.512  11.136
50745SOL    HW254075  13.283   8.644  11.163
50746SOL     OW54076   2.821  13.774   6.603
50746SOL    HW154077   2.770  13.844   6.642
50746SOL    HW254078   2.812  13.788   6.508
50747SOL     OW54079   1.328  13.246   1.996
50747SOL    HW154080   1.280  13.261   1.915
50747SOL    HW254081   1.359  13.333   2.022
50748SOL     OW54082   2.499   6.485  11.458
50748SOL    HW154083   2.465   6.403  11.422
50748SOL    HW254084   2.458   6.492  11.545
50749SOL     OW54085   9.802   6.525   0.222
50749SOL    HW154086   9.719   6.504   0.179
50749SOL    HW254087   9.780   6.595   0.284
50750SOL     OW54088   0.271   7.951  13.463
50750SOL    HW154089   0.280   7.868  13.511
50750SOL    HW254090   0.360   7.987  13.462
50751SOL     OW54091   4.892  13.972  10.930
50751SOL    HW154092   4.915  14.041  10.991
50751SOL    HW254093   4.896  13.891  10.982
50752SOL     OW54094   2.120   6.338  13.035
50752SOL    HW154095   2.060   6.373  13.101
50752SOL    HW254096   2.192   6.301  13.086
50753SOL     OW54097   2.296   1.368  12.322
50753SOL    HW154098   2.225   1.431  12.323
50753SOL    HW254099   2.320   1.361  12.229
50754SOL     OW54100   4.184  13.435   7.320
50754SOL    HW154101   4.134  13.443   7.239
50754SOL    HW254102   4.245  13.508   7.318
50755SOL     OW54103  13.179  12.516  13.330
50755SOL    HW154104  13.272  12.522  13.349
50755SOL    HW254105  13.174  12.529  13.235
50756SOL     OW54106  14.333  10.570   5.959
50756SOL    HW154107  14.379  10.499   6.002
50756SOL    HW254108  14.390  10.646   5.971
50757SOL     OW54109   9.291   6.082   5.758
50757SOL    HW154110   9.257   6.036   5.835
50757SOL    HW254111   9.224   6.069   5.691
50758SOL     OW54112  14.263  14.764   1.987
50758SOL    HW154113  14.272  14.778   1.893
50758SOL    HW254114  14.197  14.828   2.015
50759SOL     OW54115   6.881  11.140  13.753
50759SOL    HW154116   6.952  11.180  13.703
50759SOL    HW254117   6.871  11.053  13.715
50760SOL     OW54118  14.787  11.579  11.750
50760SOL    HW154119  14.877  11.611  11.739
50760SOL    HW254120  14.753  11.574  11.661
50761SOL     OW54121  13.800   8.577   1.589
50761SOL    HW154122  13.863   8.533   1.646
50761SOL    HW254123  13.745   8.506   1.555
50762SOL     OW54124  12.941   7.763  12.769
50762SOL    HW154125  12.976   7.721  12.691
50762SOL    HW254126  13.016   7.808  12.808
50763SOL     OW54127   5.248  14.405   5.667
50763SOL    HW154128   5.182  14.468   5.697
50763SOL    HW254129   5.197  14.330   5.636
50764SOL     OW54130   7.146   3.903   4.166
50764SOL    HW154131   7.069   3.915   4.110
50764SOL    HW254132   7.196   3.834   4.122
50765SOL     OW54133   1.000   7.415  12.364
50765SOL    HW154134   0.921   7.398  12.313
50765SOL    HW254135   0.987   7.367  12.445
50766SOL     OW54136  10.046   0.794  10.484
50766SOL    HW154137  10.039   0.828  10.574
50766SOL    HW254138  10.111   0.850  10.442
50767SOL     OW54139   0.609   3.743   5.861
50767SOL    HW154140   0.597   3.834   5.833
50767SOL    HW254141   0.698   3.740   5.896
50768SOL     OW54142  13.683   7.427   6.696
50768SOL    HW154143  13.652   7.514   6.670
50768SOL    HW254144  13.771   7.442   6.730
50769SOL     OW54145  11.834   6.176   8.099
50769SOL    HW154146  11.868   6.197   8.012
50769SOL    HW254147  11.882   6.097   8.125
50770SOL     OW54148  11.315   0.705  10.511
50770SOL    HW154149  11.347   0.643  10.577
50770SOL    HW254150  11.373   0.780  10.519
50771SOL     OW54151   9.265   4.900   2.300
50771SOL    HW154152   9.229   4.986   2.281
50771SOL    HW254153   9.194   4.839   2.279
50772SOL     OW54154   3.548  11.402  13.040
50772SOL    HW154155   3.586  11.484  13.071
50772SOL    HW254156   3.617  11.336  13.056
50773SOL     OW54157   6.405  10.781  10.323
50773SOL    HW154158   6.390  10.686  10.319
50773SOL    HW254159   6.388  10.804  10.414
50774SOL     OW54160  13.219   8.400   9.369
50774SOL    HW154161  13.203   8.306   9.381
50774SOL    HW254162  13.311   8.405   9.343
50775SOL     OW54163   5.551  11.357  14.415
50775SOL    HW154164   5.520  11.272  14.385
50775SOL    HW254165   5.482  11.418  14.390
50776SOL     OW54166   8.277   5.064  11.259
50776SOL    HW154167   8.212   5.003  11.224
50776SOL    HW254168   8.225   5.131  11.304
50777SOL     OW54169   5.948   1.008  12.658
50777SOL    HW154170   5.984   0.998  12.746
50777SOL    HW254171   5.854   0.996  12.669
50778SOL     OW54172   6.040   7.624   4.407
50778SOL    HW154173   6.022   7.621   4.501
50778SOL    HW254174   5.954   7.622   4.366
50779SOL     OW54175  13.888   7.252  12.126
50779SOL    HW154176  13.867   7.175  12.072
50779SOL    HW254177  13.883   7.220  12.216
50780SOL     OW54178   1.971   1.636   2.940
50780SOL    HW154179   1.928   1.551   2.929
50780SOL    HW254180   1.908   1.689   2.988
50781SOL     OW54181   1.212   2.662   7.942
50781SOL    HW154182   1.121   2.691   7.939
50781SOL    HW254183   1.218   2.596   7.873
50782SOL     OW54184  13.294  13.944   5.097
50782SOL    HW154185  13.263  13.988   5.176
50782SOL    HW254186  13.381  13.982   5.081
50783SOL     OW54187   8.623   0.874   2.859
50783SOL    HW154188   8.612   0.784   2.892
50783SOL    HW254189   8.695   0.910   2.911
50784SOL     OW54190   8.952   5.158  13.494
50784SOL    HW154191   8.873   5.190  13.536
50784SOL    HW254192   8.935   5.166  13.400
50785SOL     OW54193  11.885  14.510  11.736
50785SOL    HW154194  11.938  14.583  11.769
50785SOL    HW254195  11.795  14.542  11.740
50786SOL     OW54196   2.916  11.647   2.847
50786SOL    HW154197   2.826  11.621   2.867
50786SOL    HW254198   2.966  11.565   2.850
50787SOL     OW54199  10.742   4.375  11.353
50787SOL    HW154200  10.805   4.439  11.386
50787SOL    HW254201  10.695   4.346  11.431
50788SOL     OW54202   1.634  12.040   7.241
50788SOL    HW154203   1.676  12.124   7.261
50788SOL    HW254204   1.687  12.003   7.170
50789SOL     OW54205  10.140   8.794   7.693
50789SOL    HW154206  10.057   8.777   7.648
50789SOL    HW254207  10.205   8.796   7.624
50790SOL     OW54208   7.875   6.915   4.017
50790SOL    HW154209   7.924   6.930   4.098
50790SOL    HW254210   7.906   6.982   3.957
50791SOL     OW54211   4.466  11.390  13.705
50791SOL    HW154212   4.445  11.337  13.782
50791SOL    HW254213   4.512  11.466  13.740
50792SOL     OW54214  14.257   3.621  10.503
50792SOL    HW154215  14.240   3.604  10.410
50792SOL    HW254216  14.240   3.715  10.514
50793SOL     OW54217   5.658   6.879   9.459
50793SOL    HW154218   5.714   6.957   9.460
50793SOL    HW254219   5.670   6.843   9.370
50794SOL     OW54220   5.861  10.687   3.793
50794SOL    HW154221   5.781  10.719   3.751
50794SOL    HW254222   5.917  10.764   3.799
50795SOL     OW54223   0.976  11.999  11.409
50795SOL    HW154224   0.967  11.906  11.393
50795SOL    HW254225   1.020  12.005  11.494
50796SOL     OW54226   9.704   1.189   4.608
50796SOL    HW154227   9.717   1.284   4.608
50796SOL    HW254228   9.716   1.164   4.700
50797SOL     OW54229   2.010   2.746   5.993
50797SOL    HW154230   2.032   2.663   5.951
50797SOL    HW254231   2.087   2.801   5.978
50798SOL     OW54232   9.553   6.376   7.434
50798SOL    HW154233   9.461   6.369   7.459
50798SOL    HW254234   9.558   6.457   7.384
50799SOL     OW54235   9.072   2.885   1.989
50799SOL    HW154236   9.027   2.822   2.045
50799SOL    HW254237   9.047   2.970   2.023
50800SOL     OW54238   4.689   0.717   7.645
50800SOL    HW154239   4.657   0.635   7.607
50800SOL    HW254240   4.635   0.785   7.605
50801SOL     OW54241   1.631  11.257  13.343
50801SOL    HW154242   1.625  11.293  13.254
50801SOL    HW254243   1.719  11.280  13.373
50802SOL     OW54244   6.160  12.661  14.513
50802SOL    HW154245   6.157  12.636  14.605
50802SOL    HW254246   6.074  12.639  14.479
50803SOL     OW54247   1.842   9.522   2.133
50803SOL    HW154248   1.802   9.600   2.094
50803SOL    HW254249   1.822   9.452   2.070
50804SOL     OW54250   2.236   1.695   1.802
50804SOL    HW154251   2.309   1.738   1.757
50804SOL    HW254252   2.249   1.602   1.785
50805SOL     OW54253   7.903   3.677   2.725
50805SOL    HW154254   7.915   3.765   2.762
50805SOL    HW254255   7.842   3.634   2.784
50806SOL     OW54256  13.230   3.783   0.655
50806SOL    HW154257  13.216   3.829   0.738
50806SOL    HW254258  13.208   3.691   0.674
50807SOL     OW54259  12.071   9.242  11.202
50807SOL    HW154260  11.979   9.247  11.175
50807SOL    HW254261  12.070   9.264  11.295
50808SOL     OW54262  12.370   8.927   3.838
50808SOL    HW154263  12.348   9.001   3.780
50808SOL    HW254264  12.314   8.941   3.915
50809SOL     OW54265   5.542   7.999   1.963
50809SOL    HW154266   5.483   8.073   1.948
50809SOL    HW254267   5.485   7.926   1.984
50810SOL     OW54268   7.239   5.704   8.826
50810SOL    HW154269   7.310   5.738   8.772
50810SOL    HW254270   7.276   5.627   8.869
50811SOL     OW54271   3.546   0.608   4.934
50811SOL    HW154272   3.603   0.586   4.861
50811SOL    HW254273   3.469   0.648   4.894
50812SOL     OW54274   4.312   1.196  14.096
50812SOL    HW154275   4.235   1.243  14.064
50812SOL    HW254276   4.310   1.210  14.191
50813SOL     OW54277   4.736  12.465   6.806
50813SOL    HW154278   4.796  12.463   6.732
50813SOL    HW254279   4.708  12.374   6.817
50814SOL     OW54280   5.050  11.182  14.344
50814SOL    HW154281   4.962  11.211  14.320
50814SOL    HW254282   5.097  11.175  14.261
50815SOL     OW54283  14.441   2.638   1.823
50815SOL    HW154284  14.387   2.609   1.749
50815SOL    HW254285  14.479   2.557   1.857
50816SOL     OW54286   3.030   2.914   8.160
50816SOL    HW154287   3.084   2.864   8.221
50816SOL    HW254288   2.964   2.955   8.215
50817SOL     OW54289   2.659  12.549  14.133
50817SOL    HW154290   2.673  12.610  14.205
50817SOL    HW254291   2.575  12.508  14.152
50818SOL     OW54292  12.257   3.759   6.199
50818SOL    HW154293  12.270   3.842   6.244
50818SOL    HW254294  12.218   3.702   6.265
50819SOL     OW54295   3.846   0.775   6.767
50819SOL    HW154296   3.774   0.740   6.715
50819SOL    HW254297   3.803   0.821   6.839
50820SOL     OW54298  10.721  10.342  11.745
50820SOL    HW154299  10.748  10.414  11.803
50820SOL    HW254300  10.803  10.311  11.706
50821SOL     OW54301   7.592  10.972   2.162
50821SOL    HW154302   7.514  10.934   2.121
50821SOL    HW254303   7.651  10.990   2.089
50822SOL     OW54304   9.770   2.856   4.131
50822SOL    HW154305   9.749   2.944   4.162
50822SOL    HW254306   9.763   2.800   4.208
50823SOL     OW54307   3.980  14.278  14.256
50823SOL    HW154308   3.946  14.363  14.230
50823SOL    HW254309   3.901  14.225  14.272
50824SOL     OW54310  11.069   9.367   9.269
50824SOL    HW154311  11.088   9.459   9.253
50824SOL    HW254312  11.074   9.327   9.182
50825SOL     OW54313   5.249  11.739   5.309
50825SOL    HW154314   5.162  11.725   5.346
50825SOL    HW254315   5.239  11.721   5.216
50826SOL     OW54316   4.037   3.992  13.629
50826SOL    HW154317   3.981   3.953  13.695
50826SOL    HW254318   3.989   3.981  13.547
50827SOL     OW54319  11.581   9.163  12.137
50827SOL    HW154320  11.571   9.250  12.177
50827SOL    HW254321  11.504   9.114  12.167
50828SOL     OW54322   2.694  10.907   1.595
50828SOL    HW154323   2.766  10.929   1.537
50828SOL    HW254324   2.726  10.835   1.648
50829SOL     OW54325   8.533   6.672   9.341
50829SOL    HW154326   8.443   6.680   9.308
50829SOL    HW254327   8.575   6.610   9.281
50830SOL     OW54328   0.387  13.902   9.686
50830SOL    HW154329   0.382  13.822   9.635
50830SOL    HW254330   0.429  13.876   9.768
50831SOL     OW54331   0.290  13.334  14.180
50831SOL    HW154332   0.379  13.331  14.218
50831SOL    HW254333   0.260  13.243  14.182
50832SOL     OW54334   7.318  11.045   5.654
50832SOL    HW154335   7.230  11.028   5.621
50832SOL    HW254336   7.306  11.111   5.722
50833SOL     OW54337  13.301   8.784   7.008
50833SOL    HW154338  13.293   8.752   7.098
50833SOL    HW254339  13.217   8.762   6.967
50834SOL     OW54340   2.347   2.060   0.095
50834SOL    HW154341   2.423   2.077   0.150
50834SOL    HW254342   2.316   2.146   0.068
50835SOL     OW54343  10.815   4.041   9.072
50835SOL    HW154344  10.787   3.950   9.078
50835SOL    HW254345  10.754   4.081   9.010
50836SOL     OW54346  11.150   4.388  14.046
50836SOL    HW154347  11.076   4.333  14.022
50836SOL    HW254348  11.124   4.476  14.019
50837SOL     OW54349   0.675   7.173   7.050
50837SOL    HW154350   0.630   7.092   7.078
50837SOL    HW254351   0.633   7.195   6.967
50838SOL     OW54352  10.157  11.452   0.957
50838SOL    HW154353  10.215  11.528   0.964
50838SOL    HW254354  10.106  11.468   0.878
50839SOL     OW54355   6.354   8.421  10.902
50839SOL    HW154356   6.269   8.391  10.871
50839SOL    HW254357   6.416   8.355  10.870
50840SOL     OW54358   0.535   3.347  10.639
50840SOL    HW154359   0.461   3.342  10.700
50840SOL    HW254360   0.498   3.321  10.555
50841SOL     OW54361  14.470  13.729   7.223
50841SOL    HW154362  14.533  13.692   7.162
50841SOL    HW254363  14.451  13.658   7.284
50842SOL     OW54364   8.543   3.814   3.605
50842SOL    HW154365   8.591   3.735   3.581
50842SOL    HW254366   8.504   3.845   3.524
50843SOL     OW54367   3.166   8.673   8.396
50843SOL    HW154368   3.074   8.678   8.421
50843SOL    HW254369   3.178   8.583   8.366
50844SOL     OW54370   2.135  14.129  13.354
50844SOL    HW154371   2.117  14.081  13.434
50844SOL    HW254372   2.213  14.182  13.375
50845SOL     OW54373   7.620   4.688  12.898
50845SOL    HW154374   7.595   4.775  12.866
50845SOL    HW254375   7.561   4.673  12.972
50846SOL     OW54376   9.793   4.010   7.138
50846SOL    HW154377   9.755   3.983   7.222
50846SOL    HW254378   9.717   4.026   7.081
50847SOL     OW54379  11.750   6.679   8.975
50847SOL    HW154380  11.823   6.662   9.035
50847SOL    HW254381  11.791   6.693   8.890
50848SOL     OW54382   4.881   7.989  11.997
50848SOL    HW154383   4.939   7.934  12.050
50848SOL    HW254384   4.793   7.967  12.027
50849SOL     OW54385   9.286  10.455   7.545
50849SOL    HW154386   9.232  10.388   7.587
50849SOL    HW254387   9.252  10.538   7.577
50850SOL     OW54388   2.957   4.059   4.804
50850SOL    HW154389   2.924   3.970   4.816
50850SOL    HW254390   2.909   4.111   4.867
50851SOL     OW54391   4.221  11.727   8.659
50851SOL    HW154392   4.253  11.809   8.621
50851SOL    HW254393   4.140  11.753   8.704
50852SOL     OW54394   5.209   5.466   9.336
50852SOL    HW154395   5.229   5.402   9.269
50852SOL    HW254396   5.214   5.417   9.418
50853SOL     OW54397   9.425   7.928   0.527
50853SOL    HW154398   9.446   7.911   0.619
50853SOL    HW254399   9.337   7.965   0.528
50854SOL     OW54400   9.147   8.750  11.516
50854SOL    HW154401   9.220   8.810  11.532
50854SOL    HW254402   9.186   8.678  11.467
50855SOL     OW54403   3.287   5.501  14.035
50855SOL    HW154404   3.321   5.538  13.954
50855SOL    HW254405   3.295   5.406  14.022
50856SOL     OW54406   6.663  10.789  12.720
50856SOL    HW154407   6.606  10.858  12.753
50856SOL    HW254408   6.618  10.755  12.642
50857SOL     OW54409   1.827  11.290   7.893
50857SOL    HW154410   1.767  11.294   7.967
50857SOL    HW254411   1.867  11.377   7.889
50858SOL     OW54412   6.009   6.308  13.643
50858SOL    HW154413   5.928   6.264  13.666
50858SOL    HW254414   6.029   6.364  13.718
50859SOL     OW54415   0.098   5.935   6.453
50859SOL    HW154416   0.110   5.908   6.362
50859SOL    HW254417   0.041   6.012   6.448
50860SOL     OW54418   3.182   3.271  13.052
50860SOL    HW154419   3.142   3.357  13.044
50860SOL    HW254420   3.250   3.269  12.986
50861SOL     OW54421   9.498   6.028  12.964
50861SOL    HW154422   9.501   5.946  12.914
50861SOL    HW254423   9.583   6.031  13.009
50862SOL     OW54424   0.259  13.472   6.512
50862SOL    HW154425   0.343  13.471   6.559
50862SOL    HW254426   0.193  13.467   6.580
50863SOL     OW54427   2.699  11.190   1.475
50863SOL    HW154428   2.680  11.132   1.549
50863SOL    HW254429   2.662  11.274   1.500
50864SOL     OW54430  11.377  12.887   9.862
50864SOL    HW154431  11.419  12.872   9.777
50864SOL    HW254432  11.409  12.815   9.917
50865SOL     OW54433   2.796  11.629   4.978
50865SOL    HW154434   2.813  11.700   5.041
50865SOL    HW254435   2.808  11.670   4.892
50866SOL     OW54436   9.945   7.972  14.196
50866SOL    HW154437   9.998   8.025  14.255
50866SOL    HW254438   9.966   8.005  14.108
50867SOL     OW54439   0.478   0.090  11.401
50867SOL    HW154440   0.539   0.144  11.351
50867SOL    HW254441   0.521   0.077  11.486
50868SOL     OW54442   7.331   7.277   5.468
50868SOL    HW154443   7.396   7.220   5.510
50868SOL    HW254444   7.375   7.362   5.463
50869SOL     OW54445   5.729   3.860  10.482
50869SOL    HW154446   5.804   3.907  10.518
50869SOL    HW254447   5.664   3.861  10.553
50870SOL     OW54448   6.247   1.091  12.736
50870SOL    HW154449   6.205   1.008  12.758
50870SOL    HW254450   6.210   1.154  12.797
50871SOL     OW54451   1.465   3.946   9.907
50871SOL    HW154452   1.471   3.912   9.996
50871SOL    HW254453   1.461   3.867   9.852
50872SOL     OW54454   5.685   5.650  12.229
50872SOL    HW154455   5.769   5.657  12.184
50872SOL    HW254456   5.674   5.735  12.272
50873SOL     OW54457   3.997  10.764   7.442
50873SOL    HW154458   4.056  10.802   7.508
50873SOL    HW254459   4.026  10.673   7.435
50874SOL     OW54460  11.771  13.646   4.724
50874SOL    HW154461  11.739  13.649   4.814
50874SOL    HW254462  11.836  13.576   4.723
50875SOL     OW54463  11.677  10.791   9.480
50875SOL    HW154464  11.753  10.807   9.424
50875SOL    HW254465  11.609  10.849   9.445
50876SOL     OW54466   1.905   5.585   0.973
50876SOL    HW154467   1.999   5.576   0.983
50876SOL    HW254468   1.868   5.522   1.035
50877SOL     OW54469   4.186   2.742   0.909
50877SOL    HW154470   4.113   2.766   0.852
50877SOL    HW254471   4.264   2.761   0.858
50878SOL     OW54472   4.507   5.453  11.950
50878SOL    HW154473   4.473   5.542  11.950
50878SOL    HW254474   4.486   5.418  12.037
50879SOL     OW54475   8.896   8.911   7.457
50879SOL    HW154476   8.901   8.982   7.521
50879SOL    HW254477   8.988   8.889   7.439
50880SOL     OW54478   3.881   7.839   6.242
50880SOL    HW154479   3.840   7.824   6.327
50880SOL    HW254480   3.861   7.931   6.222
50881SOL     OW54481   1.252   8.394   3.842
50881SOL    HW154482   1.327   8.410   3.784
50881SOL    HW254483   1.225   8.303   3.822
50882SOL     OW54484  13.224   0.320   1.571
50882SOL    HW154485  13.130   0.308   1.583
50882SOL    HW254486  13.240   0.410   1.601
50883SOL     OW54487   8.810   9.769   7.750
50883SOL    HW154488   8.823   9.678   7.725
50883SOL    HW254489   8.716   9.784   7.738
50884SOL     OW54490   2.625   7.085  13.880
50884SOL    HW154491   2.575   7.157  13.843
50884SOL    HW254492   2.627   7.103  13.974
50885SOL     OW54493   0.509   7.094   9.733
50885SOL    HW154494   0.567   7.102   9.809
50885SOL    HW254495   0.497   7.184   9.703
50886SOL     OW54496   0.610   2.178  10.446
50886SOL    HW154497   0.686   2.136  10.487
50886SOL    HW254498   0.621   2.161  10.352
50887SOL     OW54499   9.047  12.815  10.021
50887SOL    HW154500   9.012  12.729   9.999
50887SOL    HW254501   9.110  12.798  10.091
50888SOL     OW54502   6.905   0.645   3.550
50888SOL    HW154503   6.824   0.601   3.577
50888SOL    HW254504   6.954   0.657   3.631
50889SOL     OW54505   3.387   5.821   0.807
50889SOL    HW154506   3.344   5.783   0.730
50889SOL    HW254507   3.415   5.745   0.858
50890SOL     OW54508   0.034   1.133   7.854
50890SOL    HW154509   0.079   1.078   7.918
50890SOL    HW254510   0.099   1.148   7.785
50891SOL     OW54511  14.215  12.717   2.812
50891SOL    HW154512  14.258  12.649   2.759
50891SOL    HW254513  14.269  12.795   2.798
50892SOL     OW54514   9.053   3.723   9.463
50892SOL    HW154515   9.045   3.637   9.505
50892SOL    HW254516   8.987   3.721   9.393
50893SOL     OW54517   1.396   8.932  10.341
50893SOL    HW154518   1.318   8.921  10.285
50893SOL    HW254519   1.440   8.847  10.337
50894SOL     OW54520   7.636   1.334   3.129
50894SOL    HW154521   7.604   1.293   3.048
50894SOL    HW254522   7.607   1.276   3.198
50895SOL     OW54523   3.801   9.538   8.660
50895SOL    HW154524   3.754   9.517   8.741
50895SOL    HW254525   3.851   9.459   8.640
50896SOL     OW54526   2.793  14.504   9.068
50896SOL    HW154527   2.706  14.468   9.050
50896SOL    HW254528   2.787  14.538   9.157
50897SOL     OW54529   9.676   2.723  14.630
50897SOL    HW154530   9.627   2.760  14.704
50897SOL    HW254531   9.656   2.630  14.632
50898SOL     OW54532   2.426   0.731  14.071
50898SOL    HW154533   2.489   0.698  14.007
50898SOL    HW254534   2.390   0.653  14.113
50899SOL     OW54535  14.018  13.519  13.344
50899SOL    HW154536  13.953  13.512  13.274
50899SOL    HW254537  13.976  13.574  13.410
50900SOL     OW54538   5.902  12.774   6.638
50900SOL    HW154539   5.824  12.729   6.604
50900SOL    HW254540   5.885  12.867   6.620
50901SOL     OW54541   2.262   2.093  10.267
50901SOL    HW154542   2.313   2.028  10.317
50901SOL    HW254543   2.174   2.057  10.264
50902SOL     OW54544  11.278  11.513   9.842
50902SOL    HW154545  11.362  11.508   9.888
50902SOL    HW254546  11.297  11.563   9.763
50903SOL     OW54547   0.692   8.830   5.154
50903SOL    HW154548   0.626   8.875   5.102
50903SOL    HW254549   0.745   8.901   5.192
50904SOL     OW54550   8.249   6.459  13.470
50904SOL    HW154551   8.159   6.430  13.461
50904SOL    HW254552   8.273   6.492  13.384
50905SOL     OW54553  11.466   1.755   2.284
50905SOL    HW154554  11.397   1.788   2.226
50905SOL    HW254555  11.495   1.831   2.334
50906SOL     OW54556  11.215  10.478   3.958
50906SOL    HW154557  11.168  10.466   4.040
50906SOL    HW254558  11.260  10.561   3.968
50907SOL     OW54559   0.651  13.388   8.071
50907SOL    HW154560   0.574  13.437   8.041
50907SOL    HW254561   0.685  13.346   7.992
50908SOL     OW54562  11.627   3.642   6.186
50908SOL    HW154563  11.619   3.552   6.219
50908SOL    HW254564  11.631   3.632   6.091
50909SOL     OW54565  13.831   5.868  12.962
50909SOL    HW154566  13.870   5.783  12.946
50909SOL    HW254567  13.906   5.928  12.966
50910SOL     OW54568   8.043  12.618   7.712
50910SOL    HW154569   8.040  12.647   7.803
50910SOL    HW254570   7.961  12.571   7.699
50911SOL     OW54571   7.065  10.606  13.887
50911SOL    HW154572   7.118  10.655  13.825
50911SOL    HW254573   7.128  10.553  13.936
50912SOL     OW54574  11.834   9.380  11.971
50912SOL    HW154575  11.738   9.384  11.979
50912SOL    HW254576  11.850   9.387  11.877
50913SOL     OW54577   4.311   9.306  14.193
50913SOL    HW154578   4.240   9.346  14.143
50913SOL    HW254579   4.350   9.242  14.134
50914SOL     OW54580  11.431  10.618   6.087
50914SOL    HW154581  11.478  10.634   6.005
50914SOL    HW254582  11.497  10.631   6.155
50915SOL     OW54583   3.021   9.754   0.676
50915SOL    HW154584   3.088   9.687   0.684
50915SOL    HW254585   3.049   9.824   0.736
50916SOL     OW54586  12.995  13.409  10.187
50916SOL    HW154587  12.999  13.441  10.277
50916SOL    HW254588  12.924  13.344  10.188
50917SOL     OW54589   5.617  12.257   9.832
50917SOL    HW154590   5.692  12.247   9.891
50917SOL    HW254591   5.639  12.333   9.778
50918SOL     OW54592  14.091   6.724   3.675
50918SOL    HW154593  14.078   6.810   3.636
50918SOL    HW254594  14.172   6.692   3.635
50919SOL     OW54595   9.028  14.467   3.501
50919SOL    HW154596   9.117  14.434   3.510
50919SOL    HW254597   9.021  14.492   3.408
50920SOL     OW54598   0.505  12.964   4.559
50920SOL    HW154599   0.483  13.013   4.479
50920SOL    HW254600   0.506  13.030   4.628
50921SOL     OW54601  13.477   3.520   1.320
50921SOL    HW154602  13.415   3.453   1.351
50921SOL    HW254603  13.427   3.601   1.321
50922SOL     OW54604   9.654   3.675  10.009
50922SOL    HW154605   9.562   3.679   9.983
50922SOL    HW254606   9.661   3.593  10.058
50923SOL     OW54607  14.045  13.448   3.305
50923SOL    HW154608  14.057  13.368   3.256
50923SOL    HW254609  14.040  13.517   3.239
50924SOL     OW54610   7.527   6.725   4.591
50924SOL    HW154611   7.484   6.746   4.508
50924SOL    HW254612   7.610   6.685   4.565
50925SOL     OW54613   3.277  13.887   0.465
50925SOL    HW154614   3.206  13.944   0.496
50925SOL    HW254615   3.317  13.854   0.546
50926SOL     OW54616   6.574  11.561   9.965
50926SOL    HW154617   6.531  11.571  10.050
50926SOL    HW254618   6.546  11.475   9.933
50927SOL     OW54619  11.558   0.420   6.715
50927SOL    HW154620  11.601   0.469   6.645
50927SOL    HW254621  11.606   0.445   6.794
50928SOL     OW54622  12.143   2.039  11.175
50928SOL    HW154623  12.053   2.007  11.167
50928SOL    HW254624  12.196   1.959  11.178
50929SOL     OW54625  11.883  14.672  12.040
50929SOL    HW154626  11.922  14.640  12.122
50929SOL    HW254627  11.955  14.671  11.977
50930SOL     OW54628   0.458  14.732   7.669
50930SOL    HW154629   0.468  14.638   7.684
50930SOL    HW254630   0.369  14.752   7.697
50931SOL     OW54631  11.688  12.913  12.593
50931SOL    HW154632  11.606  12.937  12.550
50931SOL    HW254633  11.663  12.884  12.680
50932SOL     OW54634   9.346   4.710   1.690
50932SOL    HW154635   9.341   4.617   1.670
50932SOL    HW254636   9.258   4.733   1.720
50933SOL     OW54637  14.447   5.854   3.553
50933SOL    HW154638  14.415   5.910   3.483
50933SOL    HW254639  14.455   5.912   3.629
50934SOL     OW54640  10.330   8.609   7.420
50934SOL    HW154641  10.326   8.696   7.459
50934SOL    HW254642  10.345   8.625   7.327
50935SOL     OW54643   0.105   5.456   9.307
50935SOL    HW154644   0.194   5.438   9.275
50935SOL    HW254645   0.081   5.377   9.355
50936SOL     OW54646  14.041   7.460   8.279
50936SOL    HW154647  14.014   7.475   8.370
50936SOL    HW254648  14.134   7.441   8.284
50937SOL     OW54649  13.677   8.639  11.182
50937SOL    HW154650  13.730   8.668  11.256
50937SOL    HW254651  13.711   8.687  11.107
50938SOL     OW54652  10.513  13.283   7.780
50938SOL    HW154653  10.543  13.370   7.754
50938SOL    HW254654  10.427  13.274   7.738
50939SOL     OW54655   7.701  14.737   1.096
50939SOL    HW154656   7.712  14.733   1.191
50939SOL    HW254657   7.724  14.827   1.073
50940SOL     OW54658   6.387   8.365   2.086
50940SOL    HW154659   6.434   8.281   2.085
50940SOL    HW254660   6.372   8.383   2.178
50941SOL     OW54661   4.433   2.690   0.233
50941SOL    HW154662   4.436   2.776   0.193
50941SOL    HW254663   4.389   2.704   0.317
50942SOL     OW54664  11.402   4.189   2.638
50942SOL    HW154665  11.414   4.278   2.668
50942SOL    HW254666  11.432   4.190   2.547
50943SOL     OW54667   2.549   3.373   3.877
50943SOL    HW154668   2.636   3.380   3.916
50943SOL    HW254669   2.564   3.332   3.792
50944SOL     OW54670   8.446   2.488   3.052
50944SOL    HW154671   8.466   2.406   3.097
50944SOL    HW254672   8.497   2.554   3.098
50945SOL     OW54673   4.745   5.453   9.304
50945SOL    HW154674   4.704   5.375   9.340
50945SOL    HW254675   4.810   5.479   9.369
50946SOL     OW54676   5.391   0.013  13.918
50946SOL    HW154677   5.379   0.005  13.823
50946SOL    HW254678   5.303   0.031  13.952
50947SOL     OW54679   4.587   0.634  10.572
50947SOL    HW154680   4.630   0.652  10.655
50947SOL    HW254681   4.500   0.603  10.596
50948SOL     OW54682   5.472   2.500   3.627
50948SOL    HW154683   5.507   2.448   3.699
50948SOL    HW254684   5.484   2.591   3.654
50949SOL     OW54685   9.168   4.728  10.691
50949SOL    HW154686   9.264   4.729  10.697
50949SOL    HW254687   9.147   4.635  10.678
50950SOL     OW54688   5.477   9.273  13.626
50950SOL    HW154689   5.481   9.298  13.534
50950SOL    HW254690   5.399   9.218  13.632
50951SOL     OW54691   1.693  12.338   5.116
50951SOL    HW154692   1.718  12.429   5.101
50951SOL    HW254693   1.628  12.320   5.049
50952SOL     OW54694   3.188  13.008   2.753
50952SOL    HW154695   3.128  12.983   2.822
50952SOL    HW254696   3.134  13.018   2.675
50953SOL     OW54697  13.292  13.801   8.566
50953SOL    HW154698  13.340  13.720   8.552
50953SOL    HW254699  13.211  13.773   8.609
50954SOL     OW54700  12.711  13.083   9.146
50954SOL    HW154701  12.694  12.991   9.125
50954SOL    HW254702  12.627  13.127   9.128
50955SOL     OW54703   9.670   3.483  13.404
50955SOL    HW154704   9.709   3.406  13.446
50955SOL    HW254705   9.578   3.459  13.391
50956SOL     OW54706  10.712   3.277  11.883
50956SOL    HW154707  10.646   3.345  11.880
50956SOL    HW254708  10.685   3.214  11.816
50957SOL     OW54709   6.756   4.205  11.277
50957SOL    HW154710   6.674   4.156  11.280
50957SOL    HW254711   6.737   4.288  11.321
50958SOL     OW54712   4.460  14.329   1.078
50958SOL    HW154713   4.499  14.246   1.106
50958SOL    HW254714   4.421  14.365   1.158
50959SOL     OW54715   2.600   2.345   3.224
50959SOL    HW154716   2.593   2.430   3.267
50959SOL    HW254717   2.580   2.281   3.292
50960SOL     OW54718  10.287  10.708   5.469
50960SOL    HW154719  10.348  10.686   5.398
50960SOL    HW254720  10.327  10.671   5.548
50961SOL     OW54721   6.413   2.622   6.671
50961SOL    HW154722   6.337   2.676   6.650
50961SOL    HW254723   6.477   2.642   6.602
50962SOL     OW54724   4.530  10.431   4.597
50962SOL    HW154725   4.578  10.406   4.676
50962SOL    HW254726   4.467  10.360   4.583
50963SOL     OW54727   3.558   8.868   4.875
50963SOL    HW154728   3.490   8.924   4.911
50963SOL    HW254729   3.628   8.928   4.849
50964SOL     OW54730  14.191  11.738  10.646
50964SOL    HW154731  14.176  11.686  10.725
50964SOL    HW254732  14.153  11.686  10.575
50965SOL     OW54733   6.647   3.620  11.345
50965SOL    HW154734   6.592   3.586  11.416
50965SOL    HW254735   6.694   3.543  11.312
50966SOL     OW54736   1.695  10.013   8.354
50966SOL    HW154737   1.658   9.950   8.416
50966SOL    HW254738   1.786   9.985   8.344
50967SOL     OW54739   3.025   2.050   6.918
50967SOL    HW154740   3.001   1.961   6.892
50967SOL    HW254741   3.094   2.075   6.857
50968SOL     OW54742   1.106  14.256   4.988
50968SOL    HW154743   1.165  14.255   4.913
50968SOL    HW254744   1.026  14.214   4.957
50969SOL     OW54745   9.888   9.830   8.476
50969SOL    HW154746   9.799   9.794   8.468
50969SOL    HW254747   9.926   9.818   8.389
50970SOL     OW54748   4.870   6.442  13.161
50970SOL    HW154749   4.779   6.437  13.190
50970SOL    HW254750   4.900   6.351  13.158
50971SOL     OW54751   9.934   6.106   4.959
50971SOL    HW154752   9.958   6.172   5.024
50971SOL    HW254753  10.002   6.039   4.967
50972SOL     OW54754  12.453   5.062   0.714
50972SOL    HW154755  12.544   5.034   0.714
50972SOL    HW254756  12.422   5.046   0.625
50973SOL     OW54757   0.367   0.133   2.331
50973SOL    HW154758   0.324   0.138   2.245
50973SOL    HW254759   0.460   0.140   2.312
50974SOL     OW54760   8.256   8.394   2.420
50974SOL    HW154761   8.164   8.418   2.419
50974SOL    HW254762   8.289   8.429   2.503
50975SOL     OW54763   7.582  13.677   3.475
50975SOL    HW154764   7.498  13.721   3.490
50975SOL    HW254765   7.580  13.653   3.382
50976SOL     OW54766   4.785  11.364   7.813
50976SOL    HW154767   4.829  11.445   7.787
50976SOL    HW254768   4.852  11.296   7.804
50977SOL     OW54769   2.790   3.096   7.438
50977SOL    HW154770   2.793   3.162   7.370
50977SOL    HW254771   2.880   3.067   7.447
50978SOL     OW54772   2.382  12.452   6.615
50978SOL    HW154773   2.302  12.437   6.666
50978SOL    HW254774   2.436  12.375   6.631
50979SOL     OW54775   9.494   9.753  10.804
50979SOL    HW154776   9.507   9.694  10.878
50979SOL    HW254777   9.553   9.720  10.736
50980SOL     OW54778   5.410  12.029  10.033
50980SOL    HW154779   5.460  11.975   9.972
50980SOL    HW254780   5.324  12.039   9.991
50981SOL     OW54781   7.438   8.740   8.878
50981SOL    HW154782   7.480   8.821   8.849
50981SOL    HW254783   7.367   8.768   8.936
50982SOL     OW54784   5.078   7.529   1.402
50982SOL    HW154785   5.127   7.473   1.462
50982SOL    HW254786   5.016   7.470   1.360
50983SOL     OW54787   0.990   7.886   7.233
50983SOL    HW154788   0.984   7.846   7.146
50983SOL    HW254789   1.077   7.926   7.235
50984SOL     OW54790  10.507  13.690   5.541
50984SOL    HW154791  10.513  13.760   5.477
50984SOL    HW254792  10.597  13.676   5.571
50985SOL     OW54793   8.714   8.217   2.340
50985SOL    HW154794   8.652   8.171   2.283
50985SOL    HW254795   8.795   8.222   2.289
50986SOL     OW54796   6.016   7.502   9.585
50986SOL    HW154797   6.035   7.558   9.510
50986SOL    HW254798   6.083   7.524   9.650
50987SOL     OW54799   7.767   6.128  12.214
50987SOL    HW154800   7.711   6.203  12.229
50987SOL    HW254801   7.813   6.148  12.132
50988SOL     OW54802   2.965   5.123  14.151
50988SOL    HW154803   3.059   5.124  14.166
50988SOL    HW254804   2.937   5.036  14.179
50989SOL     OW54805   8.719   6.726   3.262
50989SOL    HW154806   8.747   6.741   3.353
50989SOL    HW254807   8.746   6.804   3.215
50990SOL     OW54808   0.469   9.132   8.176
50990SOL    HW154809   0.556   9.107   8.146
50990SOL    HW254810   0.479   9.222   8.208
50991SOL     OW54811   9.453   6.935   7.701
50991SOL    HW154812   9.413   7.022   7.709
50991SOL    HW254813   9.521   6.946   7.635
50992SOL     OW54814   5.410   5.123   6.587
50992SOL    HW154815   5.469   5.048   6.595
50992SOL    HW254816   5.468   5.199   6.581
50993SOL     OW54817   2.889   8.062  11.196
50993SOL    HW154818   2.845   8.142  11.168
50993SOL    HW254819   2.968   8.057  11.141
50994SOL     OW54820   8.834   7.826  11.933
50994SOL    HW154821   8.890   7.749  11.923
50994SOL    HW254822   8.747   7.796  11.907
50995SOL     OW54823   1.246   6.322   8.760
50995SOL    HW154824   1.322   6.344   8.815
50995SOL    HW254825   1.284   6.285   8.681
50996SOL     OW54826  10.185   2.582   5.883
50996SOL    HW154827  10.093   2.608   5.887
50996SOL    HW254828  10.200   2.560   5.791
50997SOL     OW54829   1.712   7.099   7.008
50997SOL    HW154830   1.677   7.181   7.044
50997SOL    HW254831   1.635   7.055   6.971
50998SOL     OW54832   8.117  13.909  14.427
50998SOL    HW154833   8.079  13.960  14.355
50998SOL    HW254834   8.207  13.893  14.400
50999SOL     OW54835   7.444   9.329   3.906
50999SOL    HW154836   7.358   9.311   3.868
50999SOL    HW254837   7.471   9.412   3.866
51000SOL     OW54838  13.016   2.790   7.021
51000SOL    HW154839  12.937   2.737   7.008
51000SOL    HW254840  13.087   2.735   6.987
51001SOL     OW54841   7.364  14.380   7.835
51001SOL    HW154842   7.345  14.470   7.863
51001SOL    HW254843   7.301  14.326   7.883
51002SOL     OW54844   6.908  13.080   5.698
51002SOL    HW154845   6.852  13.140   5.748
51002SOL    HW254846   6.922  13.006   5.758
51003SOL     OW54847  12.004  11.205  11.232
51003SOL    HW154848  12.024  11.255  11.311
51003SOL    HW254849  11.924  11.244  11.198
51004SOL     OW54850   5.510  11.388  11.277
51004SOL    HW154851   5.514  11.309  11.331
51004SOL    HW254852   5.568  11.371  11.203
51005SOL     OW54853   3.130  10.373   0.849
51005SOL    HW154854   3.077  10.380   0.769
51005SOL    HW254855   3.203  10.317   0.824
51006SOL     OW54856   1.394  11.775  13.601
51006SOL    HW154857   1.315  11.726  13.623
51006SOL    HW254858   1.429  11.730  13.524
51007SOL     OW54859   7.091   4.918   7.285
51007SOL    HW154860   7.112   4.995   7.233
51007SOL    HW254861   6.996   4.909   7.278
51008SOL     OW54862   9.384  11.578   7.139
51008SOL    HW154863   9.417  11.645   7.198
51008SOL    HW254864   9.434  11.590   7.058
51009SOL     OW54865  13.300   1.786  11.771
51009SOL    HW154866  13.264   1.726  11.837
51009SOL    HW254867  13.223   1.831  11.736
51010SOL     OW54868  12.959  13.352   5.806
51010SOL    HW154869  13.031  13.381   5.749
51010SOL    HW254870  13.000  13.342   5.892
51011SOL     OW54871   5.710   0.292   2.063
51011SOL    HW154872   5.699   0.262   1.973
51011SOL    HW254873   5.777   0.234   2.099
51012SOL     OW54874   9.249  14.663   6.267
51012SOL    HW154875   9.280  14.735   6.322
51012SOL    HW254876   9.156  14.681   6.254
51013SOL     OW54877   1.728   2.064  13.084
51013SOL    HW154878   1.773   2.097  13.161
51013SOL    HW254879   1.782   2.093  13.010
51014SOL     OW54880   1.300  13.438   8.128
51014SOL    HW154881   1.299  13.512   8.189
51014SOL    HW254882   1.358  13.466   8.057
51015SOL     OW54883  11.346  11.519  10.250
51015SOL    HW154884  11.382  11.587  10.306
51015SOL    HW254885  11.254  11.545  10.237
51016SOL     OW54886   6.841   9.067   9.204
51016SOL    HW154887   6.937   9.068   9.200
51016SOL    HW254888   6.821   9.058   9.297
51017SOL     OW54889   4.632   2.548   3.863
51017SOL    HW154890   4.705   2.610   3.861
51017SOL    HW254891   4.604   2.546   3.954
51018SOL     OW54892   8.523  10.944  11.974
51018SOL    HW154893   8.571  10.948  12.057
51018SOL    HW254894   8.462  11.018  11.978
51019SOL     OW54895   5.760   6.109   6.239
51019SOL    HW154896   5.764   6.060   6.157
51019SOL    HW254897   5.848   6.145   6.249
51020SOL     OW54898  10.415   0.267   4.111
51020SOL    HW154899  10.388   0.316   4.188
51020SOL    HW254900  10.333   0.230   4.076
51021SOL     OW54901   3.234   0.938   8.437
51021SOL    HW154902   3.281   0.958   8.357
51021SOL    HW254903   3.240   0.843   8.446
51022SOL     OW54904   9.940  14.494   4.605
51022SOL    HW154905  10.028  14.461   4.624
51022SOL    HW254906   9.949  14.589   4.605
51023SOL     OW54907  13.027   9.031  10.930
51023SOL    HW154908  13.048   8.941  10.908
51023SOL    HW254909  13.086   9.083  10.876
51024SOL     OW54910   8.115  13.543   1.611
51024SOL    HW154911   8.070  13.619   1.575
51024SOL    HW254912   8.207  13.556   1.588
51025SOL     OW54913   8.264  12.032   6.782
51025SOL    HW154914   8.192  12.082   6.821
51025SOL    HW254915   8.343  12.068   6.822
51026SOL     OW54916   5.207   5.739  10.364
51026SOL    HW154917   5.165   5.763  10.282
51026SOL    HW254918   5.240   5.650  10.350
51027SOL     OW54919   5.239  14.163  14.882
51027SOL    HW154920   5.214  14.110  14.806
51027SOL    HW254921   5.273  14.244  14.844
51028SOL     OW54922   4.253  13.056   1.814
51028SOL    HW154923   4.348  13.056   1.811
51028SOL    HW254924   4.231  13.049   1.907
51029SOL     OW54925   0.792   3.897  13.836
51029SOL    HW154926   0.729   3.825  13.841
51029SOL    HW254927   0.817   3.902  13.744
51030SOL     OW54928   3.478   0.433  12.062
51030SOL    HW154929   3.528   0.382  12.127
51030SOL    HW254930   3.422   0.368  12.019
51031SOL     OW54931  13.807   5.208  13.315
51031SOL    HW154932  13.714   5.207  13.338
51031SOL    HW254933  13.831   5.301  13.319
51032SOL     OW54934   6.758   0.588   6.533
51032SOL    HW154935   6.813   0.660   6.563
51032SOL    HW254936   6.681   0.591   6.591
51033SOL     OW54937   8.985  13.844   9.527
51033SOL    HW154938   9.029  13.903   9.588
51033SOL    HW254939   8.973  13.763   9.576
51034SOL     OW54940   0.390  10.833  11.197
51034SOL    HW154941   0.298  10.822  11.220
51034SOL    HW254942   0.397  10.795  11.109
51035SOL     OW54943   4.069   1.577   6.787
51035SOL    HW154944   3.983   1.620   6.780
51035SOL    HW254945   4.065   1.505   6.724
51036SOL     OW54946   1.593   3.621  11.787
51036SOL    HW154947   1.567   3.697  11.735
51036SOL    HW254948   1.510   3.578  11.810
51037SOL     OW54949   8.595   6.681   1.589
51037SOL    HW154950   8.545   6.657   1.667
51037SOL    HW254951   8.534   6.734   1.537
51038SOL     OW54952   5.732  14.802   7.205
51038SOL    HW154953   5.637  14.803   7.200
51038SOL    HW254954   5.753  14.715   7.240
51039SOL     OW54955   0.211   3.586   3.143
51039SOL    HW154956   0.294   3.549   3.114
51039SOL    HW254957   0.191   3.654   3.078
51040SOL     OW54958  10.292   5.197   2.868
51040SOL    HW154959  10.322   5.139   2.798
51040SOL    HW254960  10.196   5.196   2.861
51041SOL     OW54961   7.015  10.555  11.738
51041SOL    HW154962   7.067  10.542  11.818
51041SOL    HW254963   7.022  10.649  11.721
51042SOL     OW54964  12.574  12.289  11.401
51042SOL    HW154965  12.565  12.251  11.489
51042SOL    HW254966  12.542  12.378  11.410
51043SOL     OW54967  10.286   7.682  11.725
51043SOL    HW154968  10.305   7.621  11.653
51043SOL    HW254969  10.368   7.688  11.774
51044SOL     OW54970   7.046  13.347   4.403
51044SOL    HW154971   7.004  13.305   4.328
51044SOL    HW254972   7.113  13.285   4.431
51045SOL     OW54973   3.890  12.331  14.147
51045SOL    HW154974   3.908  12.245  14.109
51045SOL    HW254975   3.800  12.324  14.180
51046SOL     OW54976   7.731   6.047   6.575
51046SOL    HW154977   7.793   5.977   6.594
51046SOL    HW254978   7.649   6.001   6.555
51047SOL     OW54979   2.397   9.133   7.592
51047SOL    HW154980   2.449   9.103   7.517
51047SOL    HW254981   2.375   9.224   7.570
51048SOL     OW54982   3.951  13.926   6.424
51048SOL    HW154983   3.879  13.867   6.402
51048SOL    HW254984   4.010  13.874   6.479
51049SOL     OW54985   8.383  14.609   2.429
51049SOL    HW154986   8.390  14.514   2.443
51049SOL    HW254987   8.400  14.647   2.515
51050SOL     OW54988   4.223   3.867   5.065
51050SOL    HW154989   4.135   3.830   5.075
51050SOL    HW254990   4.282   3.799   5.098
51051SOL     OW54991   6.790  12.350   3.298
51051SOL    HW154992   6.855  12.421   3.292
51051SOL    HW254993   6.840  12.276   3.333
51052SOL     OW54994  14.663   9.980  12.159
51052SOL    HW154995  14.610   9.929  12.220
51052SOL    HW254996  14.624  10.067  12.159
51053SOL     OW54997   8.353   5.016   8.226
51053SOL    HW154998   8.330   5.046   8.138
51053SOL    HW254999   8.362   5.096   8.277
51054SOL     OW55000  10.069  14.042  10.982
51054SOL    HW155001  10.104  14.131  10.979
51054SOL    HW255002  10.022  14.032  10.899
51055SOL     OW55003   2.772  10.022   8.184
51055SOL    HW155004   2.788   9.979   8.100
51055SOL    HW255005   2.680  10.003   8.203
51056SOL     OW55006   2.789   1.059   4.823
51056SOL    HW155007   2.754   1.134   4.872
51056SOL    HW255008   2.712   1.014   4.789
51057SOL     OW55009   1.586  14.726   1.470
51057SOL    HW155010   1.583  14.688   1.558
51057SOL    HW255011   1.637  14.806   1.481
51058SOL     OW55012   5.633   1.500   6.413
51058SOL    HW155013   5.679   1.564   6.468
51058SOL    HW255014   5.701   1.438   6.386
51059SOL     OW55015   8.979   2.765  14.594
51059SOL    HW155016   8.966   2.819  14.516
51059SOL    HW255017   8.893   2.759  14.634
51060SOL     OW55018  13.489   2.557  13.546
51060SOL    HW155019  13.495   2.462  13.548
51060SOL    HW255020  13.395   2.575  13.536
51061SOL     OW55021   0.789   1.210   4.944
51061SOL    HW155022   0.870   1.261   4.936
51061SOL    HW255023   0.763   1.192   4.854
51062SOL     OW55024   1.792  12.123  12.861
51062SOL    HW155025   1.869  12.129  12.918
51062SOL    HW255026   1.800  12.199  12.802
51063SOL     OW55027  10.506   1.753   7.280
51063SOL    HW155028  10.588   1.801   7.298
51063SOL    HW255029  10.516   1.671   7.329
51064SOL     OW55030   7.496   8.668  14.002
51064SOL    HW155031   7.545   8.726  13.944
51064SOL    HW255032   7.456   8.726  14.066
51065SOL     OW55033   0.320  14.526   7.858
51065SOL    HW155034   0.280  14.451   7.815
51065SOL    HW255035   0.273  14.602   7.823
51066SOL     OW55036   0.238   5.554   4.225
51066SOL    HW155037   0.187   5.581   4.302
51066SOL    HW255038   0.324   5.530   4.260
51067SOL     OW55039   7.858   1.448  11.874
51067SOL    HW155040   7.853   1.434  11.968
51067SOL    HW255041   7.778   1.497  11.853
51068SOL     OW55042   6.077   1.683  13.336
51068SOL    HW155043   6.152   1.641  13.378
51068SOL    HW255044   6.082   1.656  13.245
51069SOL     OW55045   5.867   2.961  14.546
51069SOL    HW155046   5.825   2.878  14.523
51069SOL    HW255047   5.796   3.025  14.543
51070SOL     OW55048  12.553   4.399   3.322
51070SOL    HW155049  12.492   4.450   3.270
51070SOL    HW255050  12.544   4.433   3.411
51071SOL     OW55051   3.599  14.397   3.952
51071SOL    HW155052   3.681  14.433   3.985
51071SOL    HW255053   3.541  14.396   4.029
51072SOL     OW55054   2.847  13.374  10.201
51072SOL    HW155055   2.880  13.302  10.254
51072SOL    HW255056   2.911  13.444  10.211
51073SOL     OW55057  13.639  12.088  12.998
51073SOL    HW155058  13.608  12.126  13.080
51073SOL    HW255059  13.733  12.077  13.011
51074SOL     OW55060  11.604   3.335  11.815
51074SOL    HW155061  11.688   3.356  11.858
51074SOL    HW255062  11.626   3.329  11.722
51075SOL     OW55063  14.639   0.375   3.594
51075SOL    HW155064  14.660   0.301   3.537
51075SOL    HW255065  14.617   0.446   3.533
51076SOL     OW55066   7.921   6.827   6.812
51076SOL    HW155067   7.930   6.917   6.780
51076SOL    HW255068   7.902   6.836   6.905
51077SOL     OW55069   8.128   3.371   6.704
51077SOL    HW155070   8.062   3.438   6.686
51077SOL    HW255071   8.118   3.353   6.797
51078SOL     OW55072   8.599   4.910   7.074
51078SOL    HW155073   8.607   4.878   7.163
51078SOL    HW255074   8.598   5.005   7.082
51079SOL     OW55075   3.633   9.917   3.942
51079SOL    HW155076   3.693   9.989   3.923
51079SOL    HW255077   3.590   9.899   3.859
51080SOL     OW55078   5.875   0.100   5.964
51080SOL    HW155079   5.931   0.047   6.020
51080SOL    HW255080   5.889   0.065   5.876
51081SOL     OW55081   0.570   8.257   5.477
51081SOL    HW155082   0.536   8.245   5.388
51081SOL    HW255083   0.499   8.302   5.523
51082SOL     OW55084   1.283   3.202  11.155
51082SOL    HW155085   1.349   3.260  11.191
51082SOL    HW255086   1.238   3.165  11.231
51083SOL     OW55087  12.801   7.966  12.973
51083SOL    HW155088  12.852   7.992  12.897
51083SOL    HW255089  12.860   7.982  13.047
51084SOL     OW55090   8.084   0.935  11.910
51084SOL    HW155091   8.039   0.855  11.939
51084SOL    HW255092   8.054   1.003  11.970
51085SOL     OW55093  12.184   5.453  11.570
51085SOL    HW155094  12.166   5.485  11.658
51085SOL    HW255095  12.254   5.509  11.537
51086SOL     OW55096   3.173  14.577  12.110
51086SOL    HW155097   3.158  14.483  12.101
51086SOL    HW255098   3.085  14.614  12.118
51087SOL     OW55099  12.359   2.160   9.432
51087SOL    HW155100  12.317   2.075   9.447
51087SOL    HW255101  12.334   2.213   9.508
51088SOL     OW55102  14.514   6.041  10.552
51088SOL    HW155103  14.592   5.996  10.520
51088SOL    HW255104  14.523   6.131  10.518
51089SOL     OW55105   8.889   1.990  10.123
51089SOL    HW155106   8.954   1.992  10.052
51089SOL    HW255107   8.816   2.043  10.091
51090SOL     OW55108   7.163  13.188   9.363
51090SOL    HW155109   7.187  13.258   9.424
51090SOL    HW255110   7.197  13.108   9.403
51091SOL     OW55111   9.956  14.471   9.693
51091SOL    HW155112   9.965  14.380   9.722
51091SOL    HW255113   9.864  14.480   9.668
51092SOL     OW55114   3.102  11.784   4.270
51092SOL    HW155115   3.180  11.732   4.288
51092SOL    HW255116   3.121  11.870   4.307
51093SOL     OW55117  14.758  12.226   3.621
51093SOL    HW155118  14.731  12.292   3.685
51093SOL    HW255119  14.755  12.272   3.537
51094SOL     OW55120   9.345   0.982   4.622
51094SOL    HW155121   9.294   0.988   4.541
51094SOL    HW255122   9.411   1.051   4.615
51095SOL     OW55123   2.948  14.474   7.039
51095SOL    HW155124   2.878  14.408   7.039
51095SOL    HW255125   3.027  14.424   7.019
51096SOL     OW55126  12.367   8.113   7.613
51096SOL    HW155127  12.348   8.148   7.526
51096SOL    HW255128  12.290   8.061   7.636
51097SOL     OW55129   7.706   1.796   1.398
51097SOL    HW155130   7.610   1.793   1.396
51097SOL    HW255131   7.730   1.764   1.485
51098SOL     OW55132   2.530  11.404  12.428
51098SOL    HW155133   2.440  11.390  12.400
51098SOL    HW255134   2.555  11.324  12.473
51099SOL     OW55135  12.183   5.647   9.100
51099SOL    HW155136  12.161   5.560   9.067
51099SOL    HW255137  12.112   5.669   9.160
51100SOL     OW55138   2.820   7.351   6.554
51100SOL    HW155139   2.838   7.273   6.501
51100SOL    HW255140   2.755   7.399   6.504
51101SOL     OW55141   7.688   0.797   3.760
51101SOL    HW155142   7.684   0.702   3.743
51101SOL    HW255143   7.712   0.804   3.852
51102SOL     OW55144  12.733   0.504   8.403
51102SOL    HW155145  12.726   0.505   8.498
51102SOL    HW255146  12.826   0.513   8.385
51103SOL     OW55147   0.590   6.256   6.528
51103SOL    HW155148   0.540   6.332   6.558
51103SOL    HW255149   0.573   6.253   6.433
51104SOL     OW55150  11.928   0.979   2.804
51104SOL    HW155151  12.020   0.954   2.810
51104SOL    HW255152  11.922   1.029   2.723
51105SOL     OW55153   7.020   9.116   1.463
51105SOL    HW155154   6.949   9.093   1.523
51105SOL    HW255155   7.040   9.035   1.417
51106SOL     OW55156   2.963  13.650   3.253
51106SOL    HW155157   2.909  13.573   3.269
51106SOL    HW255158   3.052  13.616   3.241
51107SOL     OW55159   2.137   0.004  13.457
51107SOL    HW155160   2.095   0.008  13.543
51107SOL    HW255161   2.149  14.793  13.441
51108SOL     OW55162  11.028  10.431   0.105
51108SOL    HW155163  10.989  10.492   0.168
51108SOL    HW255164  10.956  10.409   0.045
51109SOL     OW55165   4.529  12.257   3.549
51109SOL    HW155166   4.526  12.221   3.637
51109SOL    HW255167   4.621  12.276   3.533
51110SOL     OW55168  13.704   9.758   5.001
51110SOL    HW155169  13.630   9.762   5.062
51110SOL    HW255170  13.754   9.838   5.019
51111SOL     OW55171  10.534   8.038  12.387
51111SOL    HW155172  10.603   7.973  12.398
51111SOL    HW255173  10.498   8.050  12.475
51112SOL     OW55174   7.322   0.815  10.759
51112SOL    HW155175   7.260   0.743  10.740
51112SOL    HW255176   7.323   0.821  10.854
51113SOL     OW55177   9.421  13.298   0.598
51113SOL    HW155178   9.339  13.301   0.647
51113SOL    HW255179   9.443  13.390   0.582
51114SOL     OW55180   3.194   2.527   3.383
51114SOL    HW155181   3.189   2.532   3.478
51114SOL    HW255182   3.102   2.533   3.354
51115SOL     OW55183   8.565   3.483   5.509
51115SOL    HW155184   8.518   3.427   5.570
51115SOL    HW255185   8.497   3.537   5.468
51116SOL     OW55186   2.076   0.399   5.247
51116SOL    HW155187   2.073   0.450   5.166
51116SOL    HW255188   2.069   0.308   5.218
51117SOL     OW55189  10.126  10.121   9.103
51117SOL    HW155190  10.087  10.156   9.182
51117SOL    HW255191  10.054  10.081   9.055
51118SOL     OW55192   5.337  12.392   4.305
51118SOL    HW155193   5.247  12.372   4.329
51118SOL    HW255194   5.372  12.439   4.381
51119SOL     OW55195   7.340   1.798   5.857
51119SOL    HW155196   7.291   1.722   5.887
51119SOL    HW255197   7.291   1.874   5.890
51120SOL     OW55198   1.481   0.690   6.030
51120SOL    HW155199   1.531   0.759   5.985
51120SOL    HW255200   1.427   0.738   6.093
51121SOL     OW55201  13.735  10.555   5.521
51121SOL    HW155202  13.829  10.555   5.540
51121SOL    HW255203  13.726  10.606   5.441
51122SOL     OW55204   5.762  11.247  13.835
51122SOL    HW155205   5.804  11.326  13.800
51122SOL    HW255206   5.802  11.236  13.922
51123SOL     OW55207   8.646   0.321  11.007
51123SOL    HW155208   8.611   0.241  10.967
51123SOL    HW255209   8.715   0.290  11.066
51124SOL     OW55210   3.564   4.086   4.272
51124SOL    HW155211   3.558   4.182   4.265
51124SOL    HW255212   3.515   4.065   4.352
51125SOL     OW55213  13.140  12.081   9.859
51125SOL    HW155214  13.184  12.017   9.916
51125SOL    HW255215  13.112  12.030   9.784
51126SOL     OW55216  14.767  14.038   4.115
51126SOL    HW155217  14.816  14.013   4.037
51126SOL    HW255218  14.687  14.079   4.082
51127SOL     OW55219   7.923   3.672   3.938
51127SOL    HW155220   7.911   3.738   3.870
51127SOL    HW255221   7.945   3.722   4.017
51128SOL     OW55222   9.734   9.823   6.755
51128SOL    HW155223   9.728   9.736   6.795
51128SOL    HW255224   9.680   9.879   6.811
51129SOL     OW55225  11.731   7.248   1.402
51129SOL    HW155226  11.776   7.332   1.391
51129SOL    HW255227  11.640   7.272   1.421
51130SOL     OW55228  10.812   2.598   0.232
51130SOL    HW155229  10.852   2.653   0.165
51130SOL    HW255230  10.722   2.630   0.239
51131SOL     OW55231   0.841   3.239   8.687
51131SOL    HW155232   0.830   3.245   8.592
51131SOL    HW255233   0.904   3.168   8.699
51132SOL     OW55234   3.387  10.777  14.832
51132SOL    HW155235   3.292  10.785  14.841
51132SOL    HW255236   3.400  10.761  14.738
51133SOL     OW55237   6.152   8.109   1.765
51133SOL    HW155238   6.104   8.145   1.840
51133SOL    HW255239   6.084   8.077   1.706
51134SOL     OW55240   1.649  14.153   4.918
51134SOL    HW155241   1.569  14.126   4.873
51134SOL    HW255242   1.719  14.104   4.875
51135SOL     OW55243  14.163   4.912  11.288
51135SOL    HW155244  14.089   4.969  11.265
51135SOL    HW255245  14.224   4.970  11.334
51136SOL     OW55246   6.747   7.742   1.904
51136SOL    HW155247   6.711   7.824   1.938
51136SOL    HW255248   6.809   7.769   1.836
51137SOL     OW55249   0.651  11.892   1.871
51137SOL    HW155250   0.569  11.891   1.921
51137SOL    HW255251   0.719  11.874   1.935
51138SOL     OW55252   1.094   2.561  12.095
51138SOL    HW155253   1.132   2.526  12.015
51138SOL    HW255254   1.019   2.613  12.065
51139SOL     OW55255   0.811   2.325  12.715
51139SOL    HW155256   0.819   2.420  12.707
51139SOL    HW255257   0.775   2.297  12.630
51140SOL     OW55258   1.776   8.832   2.776
51140SOL    HW155259   1.762   8.913   2.727
51140SOL    HW255260   1.705   8.832   2.841
51141SOL     OW55261   9.905   0.649   7.688
51141SOL    HW155262   9.997   0.663   7.712
51141SOL    HW255263   9.907   0.632   7.594
51142SOL     OW55264  12.326  10.596   2.940
51142SOL    HW155265  12.287  10.533   2.880
51142SOL    HW255266  12.303  10.565   3.027
51143SOL     OW55267   1.341   0.937   5.305
51143SOL    HW155268   1.291   0.860   5.278
51143SOL    HW255269   1.388   0.908   5.384
51144SOL     OW55270   2.357   2.785   6.630
51144SOL    HW155271   2.450   2.762   6.627
51144SOL    HW255272   2.313   2.718   6.578
51145SOL     OW55273   8.952  12.602   7.047
51145SOL    HW155274   8.875  12.568   7.092
51145SOL    HW255275   9.020  12.537   7.064
51146SOL     OW55276   2.810   5.534  10.216
51146SOL    HW155277   2.766   5.488  10.143
51146SOL    HW255278   2.899   5.500  10.214
51147SOL     OW55279   4.435   7.133   4.703
51147SOL    HW155280   4.376   7.141   4.779
51147SOL    HW255281   4.521   7.116   4.742
51148SOL     OW55282  14.025   3.026   3.777
51148SOL    HW155283  14.118   3.035   3.753
51148SOL    HW255284  14.009   2.931   3.774
51149SOL     OW55285   1.916   7.525   2.091
51149SOL    HW155286   1.915   7.451   2.031
51149SOL    HW255287   1.983   7.584   2.057
51150SOL     OW55288   5.791  12.438   2.434
51150SOL    HW155289   5.850  12.513   2.429
51150SOL    HW255290   5.703  12.477   2.432
51151SOL     OW55291  10.019   8.617  11.850
51151SOL    HW155292   9.924   8.604  11.854
51151SOL    HW255293  10.054   8.530  11.836
51152SOL     OW55294   1.777   0.707  12.719
51152SOL    HW155295   1.807   0.742  12.635
51152SOL    HW255296   1.689   0.743  12.730
51153SOL     OW55297  13.114   8.587  12.441
51153SOL    HW155298  13.020   8.581  12.459
51153SOL    HW255299  13.156   8.547  12.518
51154SOL     OW55300   9.839  13.429  10.293
51154SOL    HW155301   9.902  13.384  10.237
51154SOL    HW255302   9.844  13.383  10.377
51155SOL     OW55303   9.573  12.683   5.342
51155SOL    HW155304   9.613  12.769   5.353
51155SOL    HW255305   9.626  12.640   5.275
51156SOL     OW55306   9.559   6.402   4.802
51156SOL    HW155307   9.634   6.396   4.742
51156SOL    HW255308   9.586   6.466   4.867
51157SOL     OW55309   9.855  11.024   7.184
51157SOL    HW155310   9.868  11.089   7.254
51157SOL    HW255311   9.779  11.056   7.136
51158SOL     OW55312   6.938   9.874   2.922
51158SOL    HW155313   6.928   9.969   2.921
51158SOL    HW255314   7.033   9.860   2.918
51159SOL     OW55315   3.752  12.356   4.302
51159SOL    HW155316   3.686  12.407   4.349
51159SOL    HW255317   3.726  12.265   4.317
51160SOL     OW55318   6.291   0.524   8.060
51160SOL    HW155319   6.378   0.532   8.098
51160SOL    HW255320   6.244   0.466   8.118
51161SOL     OW55321  11.156   3.432   5.434
51161SOL    HW155322  11.146   3.356   5.377
51161SOL    HW255323  11.249   3.437   5.453
51162SOL     OW55324   5.017   1.499   8.618
51162SOL    HW155325   5.076   1.447   8.564
51162SOL    HW255326   4.957   1.540   8.556
51163SOL     OW55327   3.003   1.731   1.499
51163SOL    HW155328   3.066   1.799   1.523
51163SOL    HW255329   2.956   1.769   1.424
51164SOL     OW55330   9.159  14.493  10.062
51164SOL    HW155331   9.126  14.548   9.991
51164SOL    HW255332   9.246  14.528  10.081
51165SOL     OW55333   3.279   8.222   9.705
51165SOL    HW155334   3.333   8.292   9.668
51165SOL    HW255335   3.268   8.160   9.634
51166SOL     OW55336  11.694  12.710   1.017
51166SOL    HW155337  11.785  12.728   0.995
51166SOL    HW255338  11.663  12.788   1.062
51167SOL     OW55339   5.252   4.515   1.393
51167SOL    HW155340   5.270   4.493   1.485
51167SOL    HW255341   5.178   4.576   1.398
51168SOL     OW55342   1.673   0.981   9.091
51168SOL    HW155343   1.665   1.033   9.171
51168SOL    HW255344   1.583   0.971   9.061
51169SOL     OW55345  10.356  11.533   4.068
51169SOL    HW155346  10.328  11.617   4.033
51169SOL    HW255347  10.446  11.548   4.096
51170SOL     OW55348  11.057   5.879   5.388
51170SOL    HW155349  11.134   5.915   5.433
51170SOL    HW255350  10.989   5.877   5.455
51171SOL     OW55351  14.863   9.894  10.112
51171SOL    HW155352  14.779   9.862  10.079
51171SOL    HW255353  14.847   9.913  10.205
51172SOL     OW55354  11.473   7.718   7.001
51172SOL    HW155355  11.521   7.793   6.965
51172SOL    HW255356  11.449   7.666   6.924
51173SOL     OW55357   3.818   4.245  11.975
51173SOL    HW155358   3.863   4.168  12.009
51173SOL    HW255359   3.728   4.215  11.958
51174SOL     OW55360   7.964   0.686   1.376
51174SOL    HW155361   7.929   0.655   1.293
51174SOL    HW255362   7.955   0.611   1.436
51175SOL     OW55363   4.710   0.417   5.229
51175SOL    HW155364   4.693   0.504   5.264
51175SOL    HW255365   4.721   0.361   5.306
51176SOL     OW55366  14.256  11.181   4.761
51176SOL    HW155367  14.238  11.245   4.830
51176SOL    HW255368  14.344  11.202   4.732
51177SOL     OW55369   7.820   2.495   2.776
51177SOL    HW155370   7.862   2.409   2.770
51177SOL    HW255371   7.730   2.479   2.747
51178SOL     OW55372   9.615   9.159   6.524
51178SOL    HW155373   9.656   9.166   6.610
51178SOL    HW255374   9.656   9.082   6.484
51179SOL     OW55375   2.835  12.819   6.923
51179SOL    HW155376   2.856  12.727   6.904
51179SOL    HW255377   2.897  12.844   6.991
51180SOL     OW55378   4.607   7.045  13.168
51180SOL    HW155379   4.598   6.981  13.097
51180SOL    HW255380   4.518   7.063  13.197
51181SOL     OW55381   3.967   5.526   6.392
51181SOL    HW155382   4.000   5.449   6.439
51181SOL    HW255383   3.921   5.577   6.459
51182SOL     OW55384  11.464   1.143   4.044
51182SOL    HW155385  11.432   1.198   4.115
51182SOL    HW255386  11.521   1.079   4.088
51183SOL     OW55387   9.446   0.910   7.925
51183SOL    HW155388   9.474   1.001   7.922
51183SOL    HW255389   9.370   0.910   7.983
51184SOL     OW55390   8.689   6.356   8.124
51184SOL    HW155391   8.744   6.378   8.199
51184SOL    HW255392   8.691   6.260   8.118
51185SOL     OW55393   8.414   2.901  11.389
51185SOL    HW155394   8.408   2.870  11.299
51185SOL    HW255395   8.421   2.996  11.381
51186SOL     OW55396   7.824   9.031   2.767
51186SOL    HW155397   7.901   9.059   2.719
51186SOL    HW255398   7.802   9.105   2.824
51187SOL     OW55399  13.210   5.688  11.340
51187SOL    HW155400  13.160   5.759  11.379
51187SOL    HW255401  13.226   5.717  11.250
51188SOL     OW55402   0.398  13.310   0.532
51188SOL    HW155403   0.337  13.290   0.462
51188SOL    HW255404   0.403  13.405   0.534
51189SOL     OW55405  13.825  14.273   5.166
51189SOL    HW155406  13.885  14.202   5.142
51189SOL    HW255407  13.858  14.349   5.118
51190SOL     OW55408   9.880  12.619   7.291
51190SOL    HW155409   9.958  12.670   7.272
51190SOL    HW255410   9.910  12.528   7.292
51191SOL     OW55411   2.610  11.434   1.526
51191SOL    HW155412   2.531  11.412   1.574
51191SOL    HW255413   2.606  11.529   1.514
51192SOL     OW55414  10.549  14.392   0.226
51192SOL    HW155415  10.520  14.401   0.316
51192SOL    HW255416  10.643  14.375   0.232
51193SOL     OW55417   6.800   3.028   1.026
51193SOL    HW155418   6.760   2.975   0.957
51193SOL    HW255419   6.848   3.096   0.979
51194SOL     OW55420   9.231   5.108   7.039
51194SOL    HW155421   9.224   5.137   6.948
51194SOL    HW255422   9.228   5.189   7.090
51195SOL     OW55423   0.671   4.039   5.613
51195SOL    HW155424   0.623   3.969   5.569
51195SOL    HW255425   0.623   4.119   5.591
51196SOL     OW55426   7.870   9.453   9.500
51196SOL    HW155427   7.866   9.366   9.460
51196SOL    HW255428   7.945   9.495   9.459
51197SOL     OW55429   9.413   2.682   6.273
51197SOL    HW155430   9.478   2.729   6.325
51197SOL    HW255431   9.347   2.747   6.250
51198SOL     OW55432   4.650   7.311   6.859
51198SOL    HW155433   4.652   7.215   6.858
51198SOL    HW255434   4.584   7.332   6.925
51199SOL     OW55435  14.167  14.053  12.682
51199SOL    HW155436  14.234  14.006  12.632
51199SOL    HW255437  14.119  13.984  12.728
51200SOL     OW55438   1.679   4.052   3.655
51200SOL    HW155439   1.764   4.062   3.699
51200SOL    HW255440   1.700   4.005   3.574
51201SOL     OW55441  12.426  13.553   2.936
51201SOL    HW155442  12.367  13.478   2.940
51201SOL    HW255443  12.513  13.515   2.952
51202SOL     OW55444  11.281  10.419  12.870
51202SOL    HW155445  11.275  10.390  12.961
51202SOL    HW255446  11.267  10.514  12.874
51203SOL     OW55447   2.052   1.604   1.440
51203SOL    HW155448   2.019   1.530   1.391
51203SOL    HW255449   2.000   1.607   1.520
51204SOL     OW55450   4.649  14.373   0.890
51204SOL    HW155451   4.618  14.308   0.827
51204SOL    HW255452   4.578  14.379   0.955
51205SOL     OW55453   4.428  14.527  11.975
51205SOL    HW155454   4.355  14.469  11.952
51205SOL    HW255455   4.389  14.593  12.033
51206SOL     OW55456  12.537  13.695  12.092
51206SOL    HW155457  12.479  13.742  12.152
51206SOL    HW255458  12.601  13.653  12.148
51207SOL     OW55459   8.089   3.423   5.481
51207SOL    HW155460   8.159   3.413   5.418
51207SOL    HW255461   8.011   3.389   5.436
51208SOL     OW55462  12.902   8.606   7.060
51208SOL    HW155463  12.903   8.512   7.078
51208SOL    HW255464  12.814   8.635   7.088
51209SOL     OW55465  14.027   2.011  11.850
51209SOL    HW155466  13.959   1.962  11.803
51209SOL    HW255467  14.092   1.945  11.876
51210SOL     OW55468   9.852  11.869  13.655
51210SOL    HW155469   9.834  11.847  13.564
51210SOL    HW255470   9.931  11.924  13.651
51211SOL     OW55471  12.464   9.228   0.207
51211SOL    HW155472  12.478   9.290   0.279
51211SOL    HW255473  12.385   9.181   0.232
51212SOL     OW55474  10.187  10.332  13.108
51212SOL    HW155475  10.267  10.354  13.155
51212SOL    HW255476  10.178  10.237  13.119
51213SOL     OW55477   3.176   5.501   5.366
51213SOL    HW155478   3.251   5.543   5.409
51213SOL    HW255479   3.146   5.566   5.302
51214SOL     OW55480   1.497   7.951   7.205
51214SOL    HW155481   1.535   8.037   7.223
51214SOL    HW255482   1.560   7.909   7.146
51215SOL     OW55483   7.738   7.106   6.268
51215SOL    HW155484   7.696   7.091   6.352
51215SOL    HW255485   7.811   7.043   6.266
51216SOL     OW55486  14.055   6.345   7.537
51216SOL    HW155487  13.960   6.353   7.548
51216SOL    HW255488  14.092   6.398   7.607
51217SOL     OW55489   8.104  13.665  10.535
51217SOL    HW155490   8.198  13.663  10.516
51217SOL    HW255491   8.076  13.574  10.524
51218SOL     OW55492  10.861  10.413   1.577
51218SOL    HW155493  10.880  10.330   1.620
51218SOL    HW255494  10.933  10.471   1.604
51219SOL     OW55495   5.173   3.689   9.242
51219SOL    HW155496   5.167   3.609   9.190
51219SOL    HW255497   5.172   3.659   9.333
51220SOL     OW55498   5.603  14.185   6.345
51220SOL    HW155499   5.525  14.190   6.290
51220SOL    HW255500   5.624  14.277   6.365
51221SOL     OW55501  13.889  10.061   1.461
51221SOL    HW155502  13.865   9.969   1.451
51221SOL    HW255503  13.811  10.109   1.431
51222SOL     OW55504   5.485   1.905   7.958
51222SOL    HW155505   5.420   1.848   7.915
51222SOL    HW255506   5.542   1.933   7.886
51223SOL     OW55507  11.237   4.392  10.292
51223SOL    HW155508  11.285   4.338  10.355
51223SOL    HW255509  11.154   4.411  10.335
51224SOL     OW55510  11.202  12.135   8.207
51224SOL    HW155511  11.198  12.045   8.239
51224SOL    HW255512  11.295  12.157   8.209
51225SOL     OW55513  11.303  10.505   5.154
51225SOL    HW155514  11.346  10.462   5.229
51225SOL    HW255515  11.353  10.585   5.140
51226SOL     OW55516   0.677  12.595   0.670
51226SOL    HW155517   0.698  12.631   0.584
51226SOL    HW255518   0.695  12.667   0.731
51227SOL     OW55519   9.586  14.418   8.993
51227SOL    HW155520   9.580  14.499   9.043
51227SOL    HW255521   9.533  14.434   8.915
51228SOL     OW55522   3.224   5.768   3.196
51228SOL    HW155523   3.194   5.708   3.264
51228SOL    HW255524   3.167   5.844   3.204
51229SOL     OW55525   4.200   9.931  10.096
51229SOL    HW155526   4.273   9.922  10.158
51229SOL    HW255527   4.139   9.861  10.122
51230SOL     OW55528  14.754  13.277  10.628
51230SOL    HW155529  14.791  13.242  10.547
51230SOL    HW255530  14.668  13.235  10.634
51231SOL     OW55531   7.270  12.370   8.810
51231SOL    HW155532   7.282  12.450   8.760
51231SOL    HW255533   7.175  12.359   8.817
51232SOL     OW55534  11.643   6.208  12.297
51232SOL    HW155535  11.687   6.229  12.214
51232SOL    HW255536  11.712   6.171  12.352
51233SOL     OW55537   4.649   3.404   7.528
51233SOL    HW155538   4.716   3.364   7.583
51233SOL    HW255539   4.686   3.399   7.439
51234SOL     OW55540  12.406   1.420   2.701
51234SOL    HW155541  12.442   1.361   2.767
51234SOL    HW255542  12.327   1.456   2.742
51235SOL     OW55543   1.850   2.017  13.784
51235SOL    HW155544   1.801   1.935  13.793
51235SOL    HW255545   1.869   2.043  13.874
51236SOL     OW55546   7.506   8.551   0.315
51236SOL    HW155547   7.534   8.470   0.359
51236SOL    HW255548   7.429   8.525   0.265
51237SOL     OW55549   1.964   4.191   3.742
51237SOL    HW155550   2.051   4.194   3.703
51237SOL    HW255551   1.957   4.103   3.779
51238SOL     OW55552   4.681   8.748   5.273
51238SOL    HW155553   4.592   8.719   5.294
51238SOL    HW255554   4.719   8.675   5.224
51239SOL     OW55555  12.309   8.811  11.197
51239SOL    HW155556  12.250   8.851  11.261
51239SOL    HW255557  12.258   8.808  11.116
51240SOL     OW55558   3.787   0.368   1.928
51240SOL    HW155559   3.813   0.455   1.956
51240SOL    HW255560   3.707   0.382   1.877
51241SOL     OW55561  10.752   6.508   4.120
51241SOL    HW155562  10.769   6.601   4.107
51241SOL    HW255563  10.712   6.479   4.037
51242SOL     OW55564   5.605   9.859   7.543
51242SOL    HW155565   5.615   9.841   7.449
51242SOL    HW255566   5.553   9.940   7.546
51243SOL     OW55567   3.974  10.886   0.228
51243SOL    HW155568   3.898  10.839   0.193
51243SOL    HW255569   3.937  10.952   0.286
51244SOL     OW55570  10.007   3.577   1.689
51244SOL    HW155571   9.928   3.546   1.732
51244SOL    HW255572   9.976   3.638   1.622
51245SOL     OW55573   6.096  11.482   5.645
51245SOL    HW155574   6.020  11.439   5.684
51245SOL    HW255575   6.067  11.505   5.557
51246SOL     OW55576   2.709  10.642   9.957
51246SOL    HW155577   2.712  10.616   9.864
51246SOL    HW255578   2.684  10.562  10.003
51247SOL     OW55579   5.102   5.950   5.465
51247SOL    HW155580   5.022   5.909   5.431
51247SOL    HW255581   5.155   5.878   5.497
51248SOL     OW55582   0.796   6.369   3.248
51248SOL    HW155583   0.843   6.335   3.172
51248SOL    HW255584   0.813   6.305   3.317
51249SOL     OW55585   8.014   4.198  11.891
51249SOL    HW155586   8.063   4.227  11.968
51249SOL    HW255587   7.922   4.210  11.915
51250SOL     OW55588   4.276   2.681   5.516
51250SOL    HW155589   4.275   2.729   5.599
51250SOL    HW255590   4.187   2.649   5.506
51251SOL     OW55591  11.418  14.457  13.002
51251SOL    HW155592  11.481  14.391  13.032
51251SOL    HW255593  11.383  14.494  13.083
51252SOL     OW55594  11.628  10.894   0.335
51252SOL    HW155595  11.536  10.869   0.328
51252SOL    HW255596  11.636  10.930   0.423
51253SOL     OW55597  14.681   1.296  13.194
51253SOL    HW155598  14.621   1.318  13.265
51253SOL    HW255599  14.724   1.216  13.224
51254SOL     OW55600   2.640  10.822   8.914
51254SOL    HW155601   2.709  10.784   8.968
51254SOL    HW255602   2.668  10.912   8.898
51255SOL     OW55603  13.681   2.931   4.381
51255SOL    HW155604  13.587   2.928   4.362
51255SOL    HW255605  13.698   2.852   4.434
51256SOL     OW55606   5.446   2.503  13.800
51256SOL    HW155607   5.526   2.545  13.832
51256SOL    HW255608   5.462   2.409  13.813
51257SOL     OW55609  13.336  10.140   1.002
51257SOL    HW155610  13.321  10.104   0.914
51257SOL    HW255611  13.425  10.175   0.998
51258SOL     OW55612   5.128   0.867  10.959
51258SOL    HW155613   5.088   0.938  11.009
51258SOL    HW255614   5.109   0.889  10.868
51259SOL     OW55615   1.500  14.730   1.929
51259SOL    HW155616   1.451  14.673   1.989
51259SOL    HW255617   1.442  14.805   1.916
51260SOL     OW55618   5.085  14.049  13.533
51260SOL    HW155619   4.994  14.030  13.556
51260SOL    HW255620   5.113  14.116  13.595
51261SOL     OW55621   8.215   5.364  13.492
51261SOL    HW155622   8.145   5.320  13.539
51261SOL    HW255623   8.171   5.415  13.424
51262SOL     OW55624  14.881   0.698   4.886
51262SOL    HW155625   0.045   0.782   4.888
51262SOL    HW255626   0.036   0.648   4.959
51263SOL     OW55627  13.530  13.085  10.551
51263SOL    HW155628  13.588  13.097  10.475
51263SOL    HW255629  13.480  13.006  10.530
51264SOL     OW55630  13.953   9.536   3.530
51264SOL    HW155631  14.048   9.548   3.536
51264SOL    HW255632  13.941   9.441   3.531
51265SOL     OW55633   9.236   5.111  10.366
51265SOL    HW155634   9.195   5.032  10.401
51265SOL    HW255635   9.253   5.165  10.443
51266SOL     OW55636  13.084   4.061   2.677
51266SOL    HW155637  13.060   4.143   2.719
51266SOL    HW255638  13.147   4.021   2.736
51267SOL     OW55639   1.391   3.714   6.739
51267SOL    HW155640   1.423   3.694   6.827
51267SOL    HW255641   1.312   3.766   6.753
51268SOL     OW55642   7.217  10.970  11.660
51268SOL    HW155643   7.294  10.926  11.625
51268SOL    HW255644   7.206  11.048  11.605
51269SOL     OW55645   9.501   0.874  12.591
51269SOL    HW155646   9.568   0.807  12.603
51269SOL    HW255647   9.531   0.925  12.516
51270SOL     OW55648  13.105   5.741  13.780
51270SOL    HW155649  13.186   5.732  13.830
51270SOL    HW255650  13.040   5.770  13.845
51271SOL     OW55651   5.881   7.203  11.359
51271SOL    HW155652   5.825   7.280  11.371
51271SOL    HW255653   5.882   7.188  11.265
51272SOL     OW55654   1.767  14.031   1.484
51272SOL    HW155655   1.770  14.052   1.391
51272SOL    HW255656   1.852  13.989   1.501
51273SOL     OW55657   0.548  11.361  13.409
51273SOL    HW155658   0.572  11.294  13.474
51273SOL    HW255659   0.510  11.432  13.461
51274SOL     OW55660  11.782  14.442   4.813
51274SOL    HW155661  11.832  14.360   4.808
51274SOL    HW255662  11.694  14.415   4.837
51275SOL     OW55663   6.291   5.740   2.386
51275SOL    HW155664   6.267   5.793   2.463
51275SOL    HW255665   6.279   5.799   2.312
51276SOL     OW55666   4.277   9.840  13.390
51276SOL    HW155667   4.340   9.817  13.321
51276SOL    HW255668   4.329   9.886  13.455
51277SOL     OW55669  13.552  11.603  14.840
51277SOL    HW155670  13.645  11.611  14.820
51277SOL    HW255671  13.527  11.689  14.874
51278SOL     OW55672  12.967  13.034   2.066
51278SOL    HW155673  12.879  13.001   2.048
51278SOL    HW255674  12.983  13.012   2.157
51279SOL     OW55675  14.591  14.715   1.133
51279SOL    HW155676  14.619  14.656   1.063
51279SOL    HW255677  14.643  14.689   1.209
51280SOL     OW55678   0.703   6.631  12.429
51280SOL    HW155679   0.661   6.716  12.417
51280SOL    HW255680   0.761   6.643  12.503
51281SOL     OW55681  14.106   6.695  13.187
51281SOL    HW155682  14.148   6.718  13.104
51281SOL    HW255683  14.141   6.608  13.208
51282SOL     OW55684  12.731   4.013  14.539
51282SOL    HW155685  12.641   3.991  14.513
51282SOL    HW255686  12.721   4.075  14.611
51283SOL     OW55687   9.890   7.767   7.706
51283SOL    HW155688   9.868   7.704   7.638
51283SOL    HW255689   9.893   7.716   7.787
51284SOL     OW55690   4.712   9.596   6.549
51284SOL    HW155691   4.744   9.666   6.606
51284SOL    HW255692   4.715   9.633   6.461
51285SOL     OW55693  11.138   1.716   7.649
51285SOL    HW155694  11.181   1.646   7.599
51285SOL    HW255695  11.057   1.676   7.681
51286SOL     OW55696  11.478   6.629   4.658
51286SOL    HW155697  11.529   6.709   4.674
51286SOL    HW255698  11.509   6.597   4.573
51287SOL     OW55699  13.645  12.189  13.628
51287SOL    HW155700  13.712  12.258  13.633
51287SOL    HW255701  13.637  12.158  13.718
51288SOL     OW55702   9.188   4.317   4.244
51288SOL    HW155703   9.162   4.347   4.157
51288SOL    HW255704   9.162   4.225   4.247
51289SOL     OW55705  12.270  13.265   3.457
51289SOL    HW155706  12.225  13.229   3.381
51289SOL    HW255707  12.286  13.357   3.436
51290SOL     OW55708  14.815   9.934   8.929
51290SOL    HW155709  14.881  10.003   8.923
51290SOL    HW255710  14.781   9.942   9.018
51291SOL     OW55711   9.783   6.248   0.279
51291SOL    HW155712   9.705   6.268   0.228
51291SOL    HW255713   9.815   6.333   0.308
51292SOL     OW55714  13.087  10.967  10.279
51292SOL    HW155715  13.053  11.004  10.360
51292SOL    HW255716  13.172  11.009  10.267
51293SOL     OW55717   3.293   7.380   5.858
51293SOL    HW155718   3.383   7.387   5.889
51293SOL    HW255719   3.301   7.347   5.768
51294SOL     OW55720  11.465   6.216  11.967
51294SOL    HW155721  11.445   6.131  12.006
51294SOL    HW255722  11.382   6.264  11.971
51295SOL     OW55723   4.884  12.905   2.171
51295SOL    HW155724   4.831  12.831   2.142
51295SOL    HW255725   4.862  12.916   2.264
51296SOL     OW55726   0.344  12.363   9.517
51296SOL    HW155727   0.392  12.436   9.477
51296SOL    HW255728   0.411  12.312   9.562
51297SOL     OW55729  14.511   2.136  12.542
51297SOL    HW155730  14.538   2.167  12.455
51297SOL    HW255731  14.421   2.166  12.551
51298SOL     OW55732  14.309   0.218  12.328
51298SOL    HW155733  14.221   0.181  12.328
51298SOL    HW255734  14.297   0.307  12.362
51299SOL     OW55735   1.519  14.689   5.914
51299SOL    HW155736   1.562  14.607   5.937
51299SOL    HW255737   1.445  14.695   5.975
51300SOL     OW55738  10.436  12.692  14.045
51300SOL    HW155739  10.436  12.616  13.987
51300SOL    HW255740  10.402  12.764  13.991
51301SOL     OW55741  14.785   8.159  10.260
51301SOL    HW155742  14.701   8.192  10.226
51301SOL    HW255743  14.840   8.236  10.267
51302SOL     OW55744  14.254  10.530   2.030
51302SOL    HW155745  14.205  10.499   2.106
51302SOL    HW255746  14.303  10.606   2.063
51303SOL     OW55747  14.507   3.675   9.471
51303SOL    HW155748  14.524   3.580   9.471
51303SOL    HW255749  14.472   3.693   9.558
51304SOL     OW55750   8.927   1.525  12.288
51304SOL    HW155751   9.021   1.528  12.301
51304SOL    HW255752   8.913   1.571  12.205
51305SOL     OW55753   5.621   8.352   4.064
51305SOL    HW155754   5.553   8.286   4.047
51305SOL    HW255755   5.583   8.434   4.032
51306SOL     OW55756   2.072   8.877   3.683
51306SOL    HW155757   2.155   8.901   3.724
51306SOL    HW255758   2.014   8.855   3.756
51307SOL     OW55759   6.804   2.748  12.333
51307SOL    HW155760   6.795   2.655  12.310
51307SOL    HW255761   6.894   2.769  12.311
51308SOL     OW55762   2.322   4.303   2.401
51308SOL    HW155763   2.282   4.255   2.473
51308SOL    HW255764   2.368   4.376   2.443
51309SOL     OW55765  14.494  14.113   5.043
51309SOL    HW155766  14.568  14.173   5.040
51309SOL    HW255767  14.468  14.102   4.952
51310SOL     OW55768  13.961   0.040   3.577
51310SOL    HW155769  13.890   0.104   3.588
51310SOL    HW255770  13.941  14.877   3.496
51311SOL     OW55771  14.175  14.611   9.544
51311SOL    HW155772  14.118  14.685   9.567
51311SOL    HW255773  14.263  14.645   9.556
51312SOL     OW55774   6.168   1.832   3.363
51312SOL    HW155775   6.233   1.902   3.363
51312SOL    HW255776   6.211   1.758   3.407
51313SOL     OW55777  11.716  13.868  10.299
51313SOL    HW155778  11.726  13.925  10.223
51313SOL    HW255779  11.661  13.917  10.359
51314SOL     OW55780  13.203   6.227   7.072
51314SOL    HW155781  13.204   6.254   7.164
51314SOL    HW255782  13.237   6.137   7.072
51315SOL     OW55783   3.223   2.896  14.804
51315SOL    HW155784   3.262   2.953  14.870
51315SOL    HW255785   3.130   2.893  14.826
51316SOL     OW55786   2.316   2.774  12.127
51316SOL    HW155787   2.372   2.852  12.134
51316SOL    HW255788   2.362   2.717  12.065
51317SOL     OW55789  11.492   8.991  12.575
51317SOL    HW155790  11.408   9.025  12.546
51317SOL    HW255791  11.470   8.927  12.644
51318SOL     OW55792   9.731  12.808  13.887
51318SOL    HW155793   9.787  12.884  13.906
51318SOL    HW255794   9.655  12.820  13.945
51319SOL     OW55795   0.035  14.734   9.991
51319SOL    HW155796   0.090  14.663  10.025
51319SOL    HW255797   0.013  14.707   9.902
51320SOL     OW55798  11.849   4.223  11.868
51320SOL    HW155799  11.905   4.165  11.817
51320SOL    HW255800  11.900   4.242  11.947
51321SOL     OW55801   7.548   1.471  14.559
51321SOL    HW155802   7.457   1.446  14.574
51321SOL    HW255803   7.571   1.525  14.634
51322SOL     OW55804   3.664   9.626  12.715
51322SOL    HW155805   3.689   9.534  12.709
51322SOL    HW255806   3.746   9.674  12.702
51323SOL     OW55807  10.554  14.791   4.361
51323SOL    HW155808  10.618  14.844   4.409
51323SOL    HW255809  10.596  14.770   4.278
51324SOL     OW55810  14.402  12.064  11.990
51324SOL    HW155811  14.427  12.107  12.072
51324SOL    HW255812  14.411  11.970  12.009
51325SOL     OW55813   3.663  12.316   4.615
51325SOL    HW155814   3.742  12.340   4.664
51325SOL    HW255815   3.661  12.220   4.620
51326SOL     OW55816   1.570   7.969  10.458
51326SOL    HW155817   1.663   7.957  10.476
51326SOL    HW255818   1.539   8.027  10.528
51327SOL     OW55819  10.608   8.917   5.071
51327SOL    HW155820  10.540   8.958   5.017
51327SOL    HW255821  10.574   8.921   5.160
51328SOL     OW55822   2.590  14.294  14.339
51328SOL    HW155823   2.628  14.235  14.274
51328SOL    HW255824   2.661  14.310  14.401
51329SOL     OW55825   2.682   4.873   9.459
51329SOL    HW155826   2.649   4.950   9.505
51329SOL    HW255827   2.693   4.902   9.369
51330SOL     OW55828   4.163   1.870  12.984
51330SOL    HW155829   4.158   1.807  12.912
51330SOL    HW255830   4.079   1.862  13.029
51331SOL     OW55831  12.985  10.520   6.972
51331SOL    HW155832  12.953  10.472   7.048
51331SOL    HW255833  13.050  10.462   6.933
51332SOL     OW55834  13.622   5.595   8.451
51332SOL    HW155835  13.538   5.605   8.497
51332SOL    HW255836  13.605   5.629   8.364
51333SOL     OW55837   1.118   3.107   8.719
51333SOL    HW155838   1.175   3.179   8.694
51333SOL    HW255839   1.169   3.028   8.702
51334SOL     OW55840   3.565   8.195   1.573
51334SOL    HW155841   3.639   8.256   1.570
51334SOL    HW255842   3.532   8.203   1.663
51335SOL     OW55843  14.504   9.686   2.895
51335SOL    HW155844  14.520   9.709   2.804
51335SOL    HW255845  14.432   9.743   2.923
51336SOL     OW55846   0.231  10.070   4.511
51336SOL    HW155847   0.260  10.104   4.596
51336SOL    HW255848   0.142  10.103   4.501
51337SOL     OW55849   5.742  11.467   8.902
51337SOL    HW155850   5.686  11.519   8.959
51337SOL    HW255851   5.683  11.436   8.833
51338SOL     OW55852   7.994  12.359   0.328
51338SOL    HW155853   7.938  12.356   0.250
51338SOL    HW255854   7.953  12.298   0.389
51339SOL     OW55855   8.599   4.041   7.906
51339SOL    HW155856   8.648   4.118   7.935
51339SOL    HW255857   8.659   3.968   7.919
51340SOL     OW55858   6.386   7.850  11.643
51340SOL    HW155859   6.313   7.813  11.693
51340SOL    HW255860   6.362   7.835  11.551
51341SOL     OW55861   1.450   9.751   7.949
51341SOL    HW155862   1.436   9.832   7.998
51341SOL    HW255863   1.495   9.693   8.010
51342SOL     OW55864   5.236   3.773   5.630
51342SOL    HW155865   5.234   3.868   5.642
51342SOL    HW255866   5.229   3.737   5.718
51343SOL     OW55867   7.167   3.391   3.319
51343SOL    HW155868   7.241   3.448   3.342
51343SOL    HW255869   7.178   3.313   3.373
51344SOL     OW55870   6.907   3.032   9.943
51344SOL    HW155871   6.836   2.986   9.898
51344SOL    HW255872   6.905   2.997  10.032
51345SOL     OW55873  14.459  14.156   4.490
51345SOL    HW155874  14.370  14.175   4.520
51345SOL    HW255875  14.471  14.212   4.413
51346SOL     OW55876  10.020   2.872   1.066
51346SOL    HW155877  10.006   2.866   1.161
51346SOL    HW255878  10.106   2.833   1.052
51347SOL     OW55879  10.606   0.207  10.372
51347SOL    HW155880  10.544   0.209  10.299
51347SOL    HW255881  10.574   0.137  10.428
51348SOL     OW55882   5.477   5.607   8.094
51348SOL    HW155883   5.570   5.616   8.072
51348SOL    HW255884   5.434   5.591   8.010
51349SOL     OW55885   0.024   2.995   3.761
51349SOL    HW155886  14.839   2.938   3.724
51349SOL    HW255887   0.047   3.054   3.689
51350SOL     OW55888   1.003   2.798  10.862
51350SOL    HW155889   1.089   2.802  10.820
51350SOL    HW255890   0.981   2.705  10.864
51351SOL     OW55891   6.632  13.936   2.925
51351SOL    HW155892   6.688  13.974   2.993
51351SOL    HW255893   6.568  14.005   2.906
51352SOL     OW55894   1.101   6.346  13.341
51352SOL    HW155895   1.035   6.287  13.305
51352SOL    HW255896   1.178   6.290  13.354
51353SOL     OW55897   0.773  10.184  12.009
51353SOL    HW155898   0.806  10.273  12.023
51353SOL    HW255899   0.812  10.156  11.926
51354SOL     OW55900  14.541   2.330   3.284
51354SOL    HW155901  14.627   2.288   3.288
51354SOL    HW255902  14.492   2.290   3.357
51355SOL     OW55903  12.691   6.199   8.111
51355SOL    HW155904  12.724   6.279   8.151
51355SOL    HW255905  12.632   6.162   8.176
51356SOL     OW55906  10.060   2.214   5.825
51356SOL    HW155907  10.118   2.159   5.772
51356SOL    HW255908  10.075   2.185   5.915
51357SOL     OW55909   8.810   4.930   6.532
51357SOL    HW155910   8.873   4.891   6.592
51357SOL    HW255911   8.863   4.975   6.467
51358SOL     OW55912   9.934   8.892  10.104
51358SOL    HW155913   9.842   8.866  10.112
51358SOL    HW255914   9.930   8.984  10.080
51359SOL     OW55915  14.479  14.160   9.257
51359SOL    HW155916  14.533  14.236   9.235
51359SOL    HW255917  14.488  14.152   9.352
51360SOL     OW55918   1.654   2.235   5.585
51360SOL    HW155919   1.689   2.313   5.542
51360SOL    HW255920   1.730   2.178   5.597
51361SOL     OW55921   7.715   0.374   6.547
51361SOL    HW155922   7.726   0.442   6.615
51361SOL    HW255923   7.793   0.320   6.554
51362SOL     OW55924  13.510   5.866   5.889
51362SOL    HW155925  13.604   5.853   5.888
51362SOL    HW255926  13.497   5.945   5.942
51363SOL     OW55927  11.975   5.368   9.312
51363SOL    HW155928  12.037   5.300   9.287
51363SOL    HW255929  11.894   5.322   9.331
51364SOL     OW55930  14.207   7.847  11.315
51364SOL    HW155931  14.186   7.754  11.323
51364SOL    HW255932  14.250   7.855  11.229
51365SOL     OW55933  10.336  10.897   8.358
51365SOL    HW155934  10.406  10.844   8.394
51365SOL    HW255935  10.259  10.873   8.409
51366SOL     OW55936   5.931   6.911  10.755
51366SOL    HW155937   6.010   6.877  10.795
51366SOL    HW255938   5.867   6.840  10.763
51367SOL     OW55939  10.732   5.888   6.721
51367SOL    HW155940  10.690   5.897   6.806
51367SOL    HW255941  10.819   5.851   6.741
51368SOL     OW55942   1.998   5.821   5.219
51368SOL    HW155943   2.078   5.775   5.194
51368SOL    HW255944   1.970   5.866   5.138
51369SOL     OW55945  11.505  10.081  12.692
51369SOL    HW155946  11.418  10.057  12.660
51369SOL    HW255947  11.516  10.172  12.667
51370SOL     OW55948   5.170   2.897  11.351
51370SOL    HW155949   5.128   2.825  11.304
51370SOL    HW255950   5.247   2.919  11.298
51371SOL     OW55951  11.190   6.695  13.935
51371SOL    HW155952  11.150   6.724  13.854
51371SOL    HW255953  11.122   6.645  13.980
51372SOL     OW55954  12.363   8.319   8.489
51372SOL    HW155955  12.455   8.323   8.517
51372SOL    HW255956  12.327   8.403   8.515
51373SOL     OW55957   3.402   3.043  10.812
51373SOL    HW155958   3.408   2.965  10.757
51373SOL    HW255959   3.308   3.054  10.828
51374SOL     OW55960  10.457  10.401  11.714
51374SOL    HW155961  10.550  10.382  11.722
51374SOL    HW255962  10.454  10.483  11.664
51375SOL     OW55963  11.717   5.066   2.666
51375SOL    HW155964  11.731   5.161   2.669
51375SOL    HW255965  11.625   5.055   2.691
51376SOL     OW55966   3.742  11.377  10.553
51376SOL    HW155967   3.773  11.422  10.631
51376SOL    HW255968   3.717  11.447  10.493
51377SOL     OW55969  10.137   3.175   8.076
51377SOL    HW155970  10.203   3.116   8.040
51377SOL    HW255971  10.145   3.166   8.171
51378SOL     OW55972  14.878   2.702   9.301
51378SOL    HW155973  14.832   2.780   9.267
51378SOL    HW255974  14.835   2.628   9.258
51379SOL     OW55975   6.451  12.271   6.928
51379SOL    HW155976   6.457  12.364   6.952
51379SOL    HW255977   6.373  12.266   6.873
51380SOL     OW55978   0.457   1.513   2.114
51380SOL    HW155979   0.527   1.526   2.177
51380SOL    HW255980   0.501   1.507   2.029
51381SOL     OW55981   0.197   9.895   8.094
51381SOL    HW155982   0.130   9.908   8.161
51381SOL    HW255983   0.205   9.800   8.086
51382SOL     OW55984   1.405   7.442  11.287
51382SOL    HW155985   1.341   7.410  11.225
51382SOL    HW255986   1.378   7.532  11.305
51383SOL     OW55987   7.019   4.095  13.851
51383SOL    HW155988   7.093   4.099  13.791
51383SOL    HW255989   6.943   4.119  13.798
51384SOL     OW55990   8.068   3.959  14.358
51384SOL    HW155991   8.033   4.048  14.355
51384SOL    HW255992   8.156   3.970  14.395
51385SOL     OW55993   1.293   6.549   9.272
51385SOL    HW155994   1.243   6.485   9.220
51385SOL    HW255995   1.250   6.633   9.255
51386SOL     OW55996  12.213   0.904   2.778
51386SOL    HW155997  12.290   0.907   2.835
51386SOL    HW255998  12.219   0.984   2.725
51387SOL     OW55999  13.932  12.048   4.791
51387SOL    HW156000  13.867  11.983   4.767
51387SOL    HW256001  14.004  11.998   4.828
51388SOL     OW56002  10.043   8.933  14.198
51388SOL    HW156003  10.121   8.882  14.178
51388SOL    HW256004   9.999   8.882  14.266
51389SOL     OW56005  11.963  13.512  12.243
51389SOL    HW156006  11.965  13.457  12.321
51389SOL    HW256007  11.891  13.476  12.190
51390SOL     OW56008  10.705   6.565  12.868
51390SOL    HW156009  10.789   6.523  12.889
51390SOL    HW256010  10.656   6.563  12.951
51391SOL     OW56011   2.594  12.512   4.571
51391SOL    HW156012   2.648  12.551   4.640
51391SOL    HW256013   2.591  12.419   4.592
51392SOL     OW56014   1.129   3.390  13.585
51392SOL    HW156015   1.044   3.349  13.601
51392SOL    HW256016   1.183   3.364  13.661
51393SOL     OW56017   2.637  11.660   3.395
51393SOL    HW156018   2.549  11.624   3.384
51393SOL    HW256019   2.633  11.709   3.477
51394SOL     OW56020  14.704   9.796  10.815
51394SOL    HW156021  14.709   9.867  10.751
51394SOL    HW256022  14.785   9.746  10.803
51395SOL     OW56023   9.290   1.275   0.010
51395SOL    HW156024   9.245   1.257  14.809
51395SOL    HW256025   9.251   1.214   0.073
51396SOL     OW56026   0.814   6.809   5.463
51396SOL    HW156027   0.845   6.720   5.480
51396SOL    HW256028   0.767   6.803   5.380
51397SOL     OW56029   7.037   3.381   7.766
51397SOL    HW156030   7.066   3.434   7.692
51397SOL    HW256031   6.961   3.334   7.733
51398SOL     OW56032   8.587   5.283   5.328
51398SOL    HW156033   8.505   5.239   5.351
51398SOL    HW256034   8.639   5.216   5.285
51399SOL     OW56035   8.337   5.925   0.094
51399SOL    HW156036   8.414   5.887   0.050
51399SOL    HW256037   8.282   5.957   0.022
51400SOL     OW56038   8.788  13.427   7.953
51400SOL    HW156039   8.875  13.435   7.913
51400SOL    HW256040   8.732  13.394   7.884
51401SOL     OW56041  13.658  11.342   9.452
51401SOL    HW156042  13.570  11.361   9.483
51401SOL    HW256043  13.648  11.264   9.398
51402SOL     OW56044   7.775   6.838  14.236
51402SOL    HW156045   7.751   6.921  14.276
51402SOL    HW256046   7.697   6.811  14.188
51403SOL     OW56047  11.662  11.388   3.944
51403SOL    HW156048  11.662  11.327   4.017
51403SOL    HW256049  11.742  11.439   3.954
51404SOL     OW56050   2.865   4.628  13.702
51404SOL    HW156051   2.949   4.588  13.724
51404SOL    HW256052   2.827   4.653  13.786
51405SOL     OW56053   7.716   0.503  12.639
51405SOL    HW156054   7.763   0.495  12.722
51405SOL    HW256055   7.674   0.418  12.627
51406SOL     OW56056   0.878   7.605  12.903
51406SOL    HW156057   0.854   7.532  12.845
51406SOL    HW256058   0.877   7.566  12.991
51407SOL     OW56059   3.589  10.485  10.517
51407SOL    HW156060   3.530  10.531  10.457
51407SOL    HW256061   3.535  10.466  10.594
51408SOL     OW56062   5.046   8.013   2.615
51408SOL    HW156063   5.131   8.028   2.572
51408SOL    HW256064   5.021   8.100   2.647
51409SOL     OW56065   4.560   2.654  12.411
51409SOL    HW156066   4.647   2.689  12.432
51409SOL    HW256067   4.503   2.686  12.480
51410SOL     OW56068  11.254   7.902   4.512
51410SOL    HW156069  11.166   7.936   4.497
51410SOL    HW256070  11.313   7.965   4.470
51411SOL     OW56071   9.684   0.149   3.995
51411SOL    HW156072   9.668   0.199   4.076
51411SOL    HW256073   9.631   0.071   4.005
51412SOL     OW56074  10.889   3.204  14.277
51412SOL    HW156075  10.802   3.239  14.299
51412SOL    HW256076  10.886   3.113  14.306
51413SOL     OW56077   2.992   0.404   3.144
51413SOL    HW156078   2.936   0.383   3.069
51413SOL    HW256079   3.041   0.482   3.117
51414SOL     OW56080   4.977  13.326   6.676
51414SOL    HW156081   4.925  13.368   6.744
51414SOL    HW256082   4.933  13.349   6.594
51415SOL     OW56083   3.622  13.254   8.125
51415SOL    HW156084   3.551  13.273   8.063
51415SOL    HW256085   3.657  13.169   8.097
51416SOL     OW56086   3.235  13.365   4.502
51416SOL    HW156087   3.306  13.302   4.514
51416SOL    HW256088   3.175  13.349   4.575
51417SOL     OW56089   7.426   4.044   0.446
51417SOL    HW156090   7.482   4.043   0.523
51417SOL    HW256091   7.354   4.102   0.469
51418SOL     OW56092   0.915   1.269   0.332
51418SOL    HW156093   0.860   1.346   0.349
51418SOL    HW256094   0.928   1.271   0.237
51419SOL     OW56095  13.860   2.354   1.981
51419SOL    HW156096  13.770   2.387   1.980
51419SOL    HW256097  13.912   2.428   2.011
51420SOL     OW56098   0.267   8.195   1.695
51420SOL    HW156099   0.207   8.175   1.767
51420SOL    HW256100   0.296   8.284   1.712
51421SOL     OW56101  11.176   3.197  11.210
51421SOL    HW156102  11.153   3.278  11.166
51421SOL    HW256103  11.269   3.208  11.234
51422SOL     OW56104  12.768   9.675   1.572
51422SOL    HW156105  12.724   9.593   1.590
51422SOL    HW256106  12.708   9.743   1.604
51423SOL     OW56107   2.961   4.568  11.158
51423SOL    HW156108   2.909   4.610  11.089
51423SOL    HW256109   3.026   4.635  11.182
51424SOL     OW56110   6.403   0.686   0.012
51424SOL    HW156111   6.379   0.779   0.015
51424SOL    HW256112   6.477   0.678   0.071
51425SOL     OW56113   0.206   0.452   5.487
51425SOL    HW156114   0.298   0.428   5.495
51425SOL    HW256115   0.180   0.419   5.401
51426SOL     OW56116   4.906   8.601   0.799
51426SOL    HW156117   4.892   8.516   0.842
51426SOL    HW256118   4.914   8.581   0.706
51427SOL     OW56119   5.555   3.806  14.096
51427SOL    HW156120   5.582   3.815  14.004
51427SOL    HW256121   5.538   3.713  14.107
51428SOL     OW56122   3.035   9.355   5.783
51428SOL    HW156123   3.019   9.449   5.776
51428SOL    HW256124   3.074   9.343   5.869
51429SOL     OW56125   1.265   0.443   9.459
51429SOL    HW156126   1.210   0.392   9.400
51429SOL    HW256127   1.267   0.531   9.421
51430SOL     OW56128   0.523  14.286  10.488
51430SOL    HW156129   0.509  14.291  10.583
51430SOL    HW256130   0.510  14.194  10.467
51431SOL     OW56131  12.273   1.719   7.135
51431SOL    HW156132  12.236   1.772   7.205
51431SOL    HW256133  12.338   1.664   7.178
51432SOL     OW56134   9.351   1.094  11.019
51432SOL    HW156135   9.358   1.039  11.097
51432SOL    HW256136   9.292   1.047  10.961
51433SOL     OW56137  14.357  10.639  13.313
51433SOL    HW156138  14.417  10.592  13.254
51433SOL    HW256139  14.406  10.646  13.395
51434SOL     OW56140   0.461   3.087   7.441
51434SOL    HW156141   0.526   3.131   7.495
51434SOL    HW256142   0.399   3.155   7.416
51435SOL     OW56143   0.328   1.538  12.215
51435SOL    HW156144   0.340   1.443  12.213
51435SOL    HW256145   0.331   1.565  12.124
51436SOL     OW56146   2.718   5.298   2.489
51436SOL    HW156147   2.624   5.315   2.484
51436SOL    HW256148   2.738   5.244   2.413
51437SOL     OW56149   3.166  14.427   3.290
51437SOL    HW156150   3.198  14.467   3.209
51437SOL    HW256151   3.106  14.359   3.260
51438SOL     OW56152   8.171   8.637   8.991
51438SOL    HW156153   8.116   8.586   8.931
51438SOL    HW256154   8.255   8.591   8.991
51439SOL     OW56155   2.402   9.067   4.542
51439SOL    HW156156   2.457   8.993   4.568
51439SOL    HW256157   2.360   9.095   4.623
51440SOL     OW56158  14.493   9.034   0.690
51440SOL    HW156159  14.557   8.992   0.747
51440SOL    HW256160  14.451   8.962   0.644
51441SOL     OW56161  13.723  11.400   3.326
51441SOL    HW156162  13.786  11.411   3.255
51441SOL    HW256163  13.639  11.424   3.287
51442SOL     OW56164   0.576   5.786   6.148
51442SOL    HW156165   0.670   5.766   6.145
51442SOL    HW256166   0.553   5.775   6.240
51443SOL     OW56167   9.067   4.441   1.929
51443SOL    HW156168   9.151   4.396   1.940
51443SOL    HW256169   9.073   4.482   1.843
51444SOL     OW56170  12.845  11.254   7.478
51444SOL    HW156171  12.878  11.179   7.527
51444SOL    HW256172  12.813  11.217   7.396
51445SOL     OW56173   5.064   4.085   3.307
51445SOL    HW156174   5.096   3.996   3.299
51445SOL    HW256175   4.999   4.094   3.238
51446SOL     OW56176   3.388   9.574   0.153
51446SOL    HW156177   3.433   9.651   0.188
51446SOL    HW256178   3.447   9.540   0.085
51447SOL     OW56179  14.260  13.725   3.336
51447SOL    HW156180  14.175  13.695   3.305
51447SOL    HW256181  14.322  13.660   3.303
51448SOL     OW56182   6.553   9.115   4.382
51448SOL    HW156183   6.543   9.111   4.287
51448SOL    HW256184   6.470   9.082   4.416
51449SOL     OW56185   9.995   9.948   1.003
51449SOL    HW156186   9.917   9.893   1.015
51449SOL    HW256187  10.068   9.886   1.009
51450SOL     OW56188   9.808   8.812  11.657
51450SOL    HW156189   9.831   8.844  11.570
51450SOL    HW256190   9.730   8.862  11.681
51451SOL     OW56191   3.232  10.685   5.230
51451SOL    HW156192   3.147  10.696   5.188
51451SOL    HW256193   3.284  10.634   5.168
51452SOL     OW56194   9.557  13.923  14.151
51452SOL    HW156195   9.476  13.874  14.159
51452SOL    HW256196   9.589  13.931  14.241
51453SOL     OW56197  13.661  10.626  11.939
51453SOL    HW156198  13.619  10.571  12.004
51453SOL    HW256199  13.664  10.573  11.859
51454SOL     OW56200   1.814   8.347   1.336
51454SOL    HW156201   1.871   8.326   1.410
51454SOL    HW256202   1.742   8.397   1.374
51455SOL     OW56203  10.598   4.809  13.117
51455SOL    HW156204  10.515   4.801  13.070
51455SOL    HW256205  10.582   4.767  13.201
51456SOL     OW56206   8.948  14.753   8.283
51456SOL    HW156207   8.853  14.767   8.281
51456SOL    HW256208   8.982  14.822   8.340
51457SOL     OW56209   7.455   1.757  11.160
51457SOL    HW156210   7.394   1.824  11.191
51457SOL    HW256211   7.416   1.674  11.187
51458SOL     OW56212   0.428   9.275   0.869
51458SOL    HW156213   0.436   9.290   0.964
51458SOL    HW256214   0.410   9.362   0.832
51459SOL     OW56215  14.099   0.920   0.748
51459SOL    HW156216  14.133   0.949   0.833
51459SOL    HW256217  14.033   0.855   0.769
51460SOL     OW56218  11.532  13.430   8.321
51460SOL    HW156219  11.580  13.394   8.396
51460SOL    HW256220  11.486  13.506   8.357
51461SOL     OW56221   5.013  11.401  12.065
51461SOL    HW156222   5.107  11.405  12.079
51461SOL    HW256223   4.997  11.461  11.992
51462SOL     OW56224  12.986   9.890   5.988
51462SOL    HW156225  13.024   9.834   5.921
51462SOL    HW256226  13.012   9.850   6.071
51463SOL     OW56227  12.489  12.054   7.459
51463SOL    HW156228  12.578  12.046   7.425
51463SOL    HW256229  12.476  11.976   7.513
51464SOL     OW56230   4.000  13.568   9.329
51464SOL    HW156231   3.906  13.581   9.312
51464SOL    HW256232   4.043  13.603   9.252
51465SOL     OW56233  11.516   1.296   8.784
51465SOL    HW156234  11.610   1.306   8.800
51465SOL    HW256235  11.510   1.224   8.722
51466SOL     OW56236   0.352   2.561   7.944
51466SOL    HW156237   0.376   2.488   8.001
51466SOL    HW256238   0.260   2.577   7.964
51467SOL     OW56239  10.459  13.278  14.815
51467SOL    HW156240  10.502  13.363  14.829
51467SOL    HW256241  10.494  13.247  14.732
51468SOL     OW56242   0.614  14.650   7.447
51468SOL    HW156243   0.538  14.666   7.502
51468SOL    HW256244   0.644  14.562   7.473
51469SOL     OW56245  11.939   1.808   2.753
51469SOL    HW156246  11.888   1.735   2.716
51469SOL    HW256247  11.949   1.784   2.846
51470SOL     OW56248   1.259   7.105   3.103
51470SOL    HW156249   1.341   7.135   3.063
51470SOL    HW256250   1.202   7.085   3.029
51471SOL     OW56251  13.961   4.550   4.408
51471SOL    HW156252  13.884   4.508   4.367
51471SOL    HW256253  13.970   4.633   4.361
51472SOL     OW56254   1.666   9.088   2.088
51472SOL    HW156255   1.594   9.051   2.037
51472SOL    HW256256   1.640   9.179   2.104
51473SOL     OW56257   4.036   2.477  14.021
51473SOL    HW156258   4.029   2.571  14.036
51473SOL    HW256259   4.054   2.468  13.928
51474SOL     OW56260   5.024   3.143   1.655
51474SOL    HW156261   5.091   3.175   1.595
51474SOL    HW256262   4.960   3.099   1.598
51475SOL     OW56263   4.577   2.732   1.909
51475SOL    HW156264   4.617   2.784   1.979
51475SOL    HW256265   4.605   2.642   1.928
51476SOL     OW56266   5.907   3.439   9.465
51476SOL    HW156267   5.960   3.377   9.515
51476SOL    HW256268   5.838   3.386   9.426
51477SOL     OW56269   7.894   6.179   1.596
51477SOL    HW156270   7.985   6.176   1.564
51477SOL    HW256271   7.870   6.086   1.605
51478SOL     OW56272   2.119   2.336  14.603
51478SOL    HW156273   2.143   2.422  14.637
51478SOL    HW256274   2.072   2.356  14.522
51479SOL     OW56275   8.718  12.007   4.627
51479SOL    HW156276   8.666  12.087   4.640
51479SOL    HW256277   8.712  11.961   4.710
51480SOL     OW56278  11.676   1.090   8.462
51480SOL    HW156279  11.588   1.094   8.500
51480SOL    HW256280  11.686   1.173   8.415
51481SOL     OW56281   2.038   1.959  11.516
51481SOL    HW156282   2.100   1.952  11.589
51481SOL    HW256283   2.012   2.051  11.516
51482SOL     OW56284   7.907   5.366  11.553
51482SOL    HW156285   7.852   5.303  11.508
51482SOL    HW256286   7.871   5.452  11.528
51483SOL     OW56287   7.594   2.542   8.193
51483SOL    HW156288   7.567   2.550   8.285
51483SOL    HW256289   7.654   2.615   8.179
51484SOL     OW56290   5.342   5.170  10.747
51484SOL    HW156291   5.430   5.134  10.755
51484SOL    HW256292   5.352   5.247  10.690
51485SOL     OW56293   4.047   0.647  14.211
51485SOL    HW156294   4.081   0.728  14.175
51485SOL    HW256295   4.121   0.608  14.258
51486SOL     OW56296   7.761  14.053  14.410
51486SOL    HW156297   7.828  14.059  14.341
51486SOL    HW256298   7.795  14.105  14.482
51487SOL     OW56299   9.228  13.870  12.992
51487SOL    HW156300   9.239  13.775  12.986
51487SOL    HW256301   9.274  13.904  12.916
51488SOL     OW56302   0.913  10.548  13.493
51488SOL    HW156303   0.972  10.620  13.472
51488SOL    HW256304   0.927  10.484  13.423
51489SOL     OW56305  12.595   9.323   4.349
51489SOL    HW156306  12.502   9.336   4.331
51489SOL    HW256307  12.624   9.263   4.280
51490SOL     OW56308   4.860   4.534   9.105
51490SOL    HW156309   4.766   4.528   9.090
51490SOL    HW256310   4.872   4.612   9.159
51491SOL     OW56311   2.118   0.185  13.280
51491SOL    HW156312   2.166   0.147  13.207
51491SOL    HW256313   2.129   0.121  13.351
51492SOL     OW56314   7.255   8.482   0.186
51492SOL    HW156315   7.196   8.552   0.157
51492SOL    HW256316   7.227   8.462   0.275
51493SOL     OW56317  11.438  10.706  11.887
51493SOL    HW156318  11.520  10.719  11.935
51493SOL    HW256319  11.377  10.769  11.925
51494SOL     OW56320  12.555   7.406   7.310
51494SOL    HW156321  12.464   7.387   7.288
51494SOL    HW256322  12.593   7.439   7.228
51495SOL     OW56323  11.969   3.379  11.932
51495SOL    HW156324  12.029   3.404  11.861
51495SOL    HW256325  11.972   3.283  11.932
51496SOL     OW56326  14.137   6.103   5.040
51496SOL    HW156327  14.157   6.012   5.061
51496SOL    HW256328  14.205   6.129   4.978
51497SOL     OW56329  14.028   8.089   1.926
51497SOL    HW156330  14.073   8.048   1.852
51497SOL    HW256331  14.076   8.170   1.942
51498SOL     OW56332   6.848  12.674   4.745
51498SOL    HW156333   6.898  12.705   4.820
51498SOL    HW256334   6.824  12.754   4.698
51499SOL     OW56335   5.192   4.770   5.913
51499SOL    HW156336   5.239   4.795   5.992
51499SOL    HW256337   5.257   4.775   5.843
51500SOL     OW56338   9.775  10.652  11.015
51500SOL    HW156339   9.763  10.627  11.107
51500SOL    HW256340   9.702  10.612  10.969
51501SOL     OW56341   0.405  12.561   5.864
51501SOL    HW156342   0.488  12.588   5.825
51501SOL    HW256343   0.429  12.528   5.950
51502SOL     OW56344   4.541   2.889  12.634
51502SOL    HW156345   4.551   2.984  12.631
51502SOL    HW256346   4.456   2.873  12.592
51503SOL     OW56347   9.238   4.827  13.058
51503SOL    HW156348   9.198   4.903  13.015
51503SOL    HW256349   9.175   4.757  13.044
51504SOL     OW56350  13.932  13.582  14.779
51504SOL    HW156351  13.911  13.656  14.835
51504SOL    HW256352  13.868  13.514  14.802
51505SOL     OW56353   3.822   2.786  10.678
51505SOL    HW156354   3.806   2.808  10.586
51505SOL    HW256355   3.790   2.696  10.687
51506SOL     OW56356  11.907   5.918  14.795
51506SOL    HW156357  11.941   5.830  14.782
51506SOL    HW256358  11.968   5.959  14.856
51507SOL     OW56359   8.088  13.558  13.519
51507SOL    HW156360   8.170  13.546  13.471
51507SOL    HW256361   8.111  13.543  13.610
51508SOL     OW56362   1.369   6.795  10.405
51508SOL    HW156363   1.279   6.763  10.412
51508SOL    HW256364   1.368   6.851  10.327
51509SOL     OW56365   4.589   7.259  12.599
51509SOL    HW156366   4.551   7.288  12.681
51509SOL    HW256367   4.545   7.177  12.579
51510SOL     OW56368   8.997   6.901   1.247
51510SOL    HW156369   8.983   6.971   1.311
51510SOL    HW256370   8.923   6.841   1.262
51511SOL     OW56371  11.471   1.195   9.731
51511SOL    HW156372  11.422   1.196   9.649
51511SOL    HW256373  11.563   1.191   9.705
51512SOL     OW56374  11.639   1.621   7.605
51512SOL    HW156375  11.732   1.646   7.606
51512SOL    HW256376  11.637   1.537   7.651
51513SOL     OW56377   0.825   3.766   7.325
51513SOL    HW156378   0.757   3.711   7.363
51513SOL    HW256379   0.875   3.798   7.400
51514SOL     OW56380   8.200  14.174   0.569
51514SOL    HW156381   8.220  14.265   0.590
51514SOL    HW256382   8.263  14.123   0.619
51515SOL     OW56383   1.322   8.274  13.181
51515SOL    HW156384   1.255   8.209  13.162
51515SOL    HW256385   1.294   8.353  13.134
51516SOL     OW56386   9.777  13.457  10.785
51516SOL    HW156387   9.801  13.410  10.865
51516SOL    HW256388   9.820  13.542  10.793
51517SOL     OW56389  11.828   9.426   9.971
51517SOL    HW156390  11.806   9.462   9.885
51517SOL    HW256391  11.753   9.447  10.026
51518SOL     OW56392   7.775   5.458   2.494
51518SOL    HW156393   7.766   5.385   2.433
51518SOL    HW256394   7.685   5.487   2.511
51519SOL     OW56395   1.661  11.132  11.597
51519SOL    HW156396   1.623  11.086  11.522
51519SOL    HW256397   1.651  11.072  11.671
51520SOL     OW56398   2.018   8.334  14.627
51520SOL    HW156399   2.091   8.380  14.586
51520SOL    HW256400   1.943   8.393  14.616
51521SOL     OW56401   1.825  13.171  11.550
51521SOL    HW156402   1.762  13.203  11.485
51521SOL    HW256403   1.887  13.243  11.561
51522SOL     OW56404   6.406   6.589   5.945
51522SOL    HW156405   6.331   6.642   5.970
51522SOL    HW256406   6.457   6.646   5.887
51523SOL     OW56407   1.295  13.508   6.649
51523SOL    HW156408   1.274  13.416   6.632
51523SOL    HW256409   1.374  13.524   6.598
51524SOL     OW56410   2.142   6.095   8.774
51524SOL    HW156411   2.101   6.112   8.858
51524SOL    HW256412   2.119   6.171   8.720
51525SOL     OW56413  13.422  11.208   6.209
51525SOL    HW156414  13.376  11.273   6.157
51525SOL    HW256415  13.441  11.137   6.148
51526SOL     OW56416   0.390   3.986  10.631
51526SOL    HW156417   0.468   4.021  10.674
51526SOL    HW256418   0.349   3.930  10.697
51527SOL     OW56419   0.085  11.187  11.461
51527SOL    HW156420   0.157  11.219  11.514
51527SOL    HW256421   0.035  11.267  11.439
51528SOL     OW56422  12.492   4.239  14.433
51528SOL    HW156423  12.472   4.301  14.503
51528SOL    HW256424  12.460   4.155  14.467
51529SOL     OW56425   5.905   1.615   9.747
51529SOL    HW156426   5.872   1.617   9.836
51529SOL    HW256427   5.966   1.688   9.742
51530SOL     OW56428   1.860  14.727   7.277
51530SOL    HW156429   1.928  14.791   7.256
51530SOL    HW256430   1.779  14.776   7.274
51531SOL     OW56431  14.679   8.271   8.967
51531SOL    HW156432  14.617   8.198   8.972
51531SOL    HW256433  14.765   8.230   8.974
51532SOL     OW56434   3.844  14.103   1.189
51532SOL    HW156435   3.851  14.060   1.104
51532SOL    HW256436   3.904  14.055   1.246
51533SOL     OW56437  12.327  10.622  13.259
51533SOL    HW156438  12.293  10.532  13.254
51533SOL    HW256439  12.262  10.669  13.311
51534SOL     OW56440   7.147   0.447  14.269
51534SOL    HW156441   7.150   0.358  14.232
51534SOL    HW256442   7.198   0.441  14.350
51535SOL     OW56443   3.343   9.361   0.323
51535SOL    HW156444   3.333   9.297   0.252
51535SOL    HW256445   3.354   9.445   0.279
51536SOL     OW56446   0.665   0.963   6.910
51536SOL    HW156447   0.632   0.922   6.990
51536SOL    HW256448   0.691   1.051   6.938
51537SOL     OW56449   2.594   9.207   4.972
51537SOL    HW156450   2.618   9.296   4.946
51537SOL    HW256451   2.623   9.200   5.063
51538SOL     OW56452  12.657   9.247   3.814
51538SOL    HW156453  12.707   9.225   3.893
51538SOL    HW256454  12.630   9.338   3.826
51539SOL     OW56455  14.207  12.924   7.723
51539SOL    HW156456  14.154  12.984   7.776
51539SOL    HW256457  14.153  12.907   7.646
51540SOL     OW56458   6.992  12.505  11.909
51540SOL    HW156459   7.010  12.486  11.817
51540SOL    HW256460   7.060  12.458  11.957
51541SOL     OW56461   3.422   5.453   6.280
51541SOL    HW156462   3.515   5.432   6.274
51541SOL    HW256463   3.378   5.385   6.229
51542SOL     OW56464   6.049  12.761   3.395
51542SOL    HW156465   6.052  12.856   3.400
51542SOL    HW256466   6.101  12.731   3.470
51543SOL     OW56467   8.471   0.913   3.411
51543SOL    HW156468   8.547   0.904   3.470
51543SOL    HW256469   8.402   0.947   3.468
51544SOL     OW56470  11.898   8.531   4.486
51544SOL    HW156471  11.924   8.452   4.440
51544SOL    HW256472  11.979   8.580   4.499
51545SOL     OW56473  12.070   5.562   9.792
51545SOL    HW156474  12.098   5.480   9.752
51545SOL    HW256475  12.140   5.583   9.854
51546SOL     OW56476  10.501  13.353  12.793
51546SOL    HW156477  10.424  13.302  12.819
51546SOL    HW256478  10.541  13.303  12.722
51547SOL     OW56479   7.958   7.224  10.386
51547SOL    HW156480   7.917   7.242  10.471
51547SOL    HW256481   8.035   7.281  10.384
51548SOL     OW56482   7.744   5.148  12.501
51548SOL    HW156483   7.783   5.103  12.576
51548SOL    HW256484   7.775   5.098  12.425
51549SOL     OW56485   1.875   0.698  14.526
51549SOL    HW156486   1.859   0.680  14.618
51549SOL    HW256487   1.826   0.779  14.509
51550SOL     OW56488   9.954   2.064   6.863
51550SOL    HW156489  10.039   2.077   6.903
51550SOL    HW256490   9.897   2.129   6.904
51551SOL     OW56491  11.274   5.821   0.929
51551SOL    HW156492  11.185   5.786   0.925
51551SOL    HW256493  11.280   5.878   0.852
51552SOL     OW56494  11.880   6.613   2.928
51552SOL    HW156495  11.804   6.651   2.973
51552SOL    HW256496  11.934   6.577   2.999
51553SOL     OW56497  12.175   2.024   5.405
51553SOL    HW156498  12.249   2.077   5.435
51553SOL    HW256499  12.143   2.068   5.327
51554SOL     OW56500   8.791   9.162   9.753
51554SOL    HW156501   8.840   9.242   9.767
51554SOL    HW256502   8.706   9.191   9.721
51555SOL     OW56503   9.401   9.022   2.485
51555SOL    HW156504   9.348   8.972   2.547
51555SOL    HW256505   9.407   9.109   2.523
51556SOL     OW56506   3.599   4.537   5.244
51556SOL    HW156507   3.542   4.490   5.305
51556SOL    HW256508   3.565   4.627   5.245
51557SOL     OW56509  14.304   0.717  11.199
51557SOL    HW156510  14.304   0.621  11.196
51557SOL    HW256511  14.229   0.739  11.254
51558SOL     OW56512  12.342  13.896  12.566
51558SOL    HW156513  12.263  13.876  12.516
51558SOL    HW256514  12.358  13.989  12.552
51559SOL     OW56515  14.035   2.099   7.647
51559SOL    HW156516  13.975   2.026   7.659
51559SOL    HW256517  14.068   2.090   7.558
51560SOL     OW56518  10.412  12.953   3.644
51560SOL    HW156519  10.483  13.009   3.675
51560SOL    HW256520  10.343  12.964   3.708
51561SOL     OW56521   2.970   5.590  12.610
51561SOL    HW156522   3.021   5.510  12.619
51561SOL    HW256523   2.939   5.589  12.520
51562SOL     OW56524  13.925   3.517  14.715
51562SOL    HW156525  13.944   3.499  14.623
51562SOL    HW256526  13.964   3.603  14.732
51563SOL     OW56527   0.421   4.190   9.674
51563SOL    HW156528   0.436   4.265   9.617
51563SOL    HW256529   0.337   4.208   9.716
51564SOL     OW56530   3.908   4.462   0.886
51564SOL    HW156531   3.911   4.456   0.791
51564SOL    HW256532   3.944   4.548   0.906
51565SOL     OW56533  12.493  13.101   4.650
51565SOL    HW156534  12.472  13.194   4.645
51565SOL    HW256535  12.568  13.090   4.591
51566SOL     OW56536   9.512   5.682  10.623
51566SOL    HW156537   9.450   5.714  10.690
51566SOL    HW256538   9.458   5.628  10.565
51567SOL     OW56539   7.049   2.125  10.300
51567SOL    HW156540   7.000   2.140  10.219
51567SOL    HW256541   7.088   2.210  10.320
51568SOL     OW56542  11.666   6.667   5.098
51568SOL    HW156543  11.755   6.686   5.069
51568SOL    HW256544  11.623   6.629   5.021
51569SOL     OW56545   8.989  13.560   9.887
51569SOL    HW156546   9.008  13.569   9.794
51569SOL    HW256547   8.919  13.623   9.903
51570SOL     OW56548  11.273   6.791  14.786
51570SOL    HW156549  11.350   6.842  14.811
51570SOL    HW256550  11.287   6.772  14.693
51571SOL     OW56551  11.270  10.772   7.826
51571SOL    HW156552  11.307  10.734   7.906
51571SOL    HW256553  11.313  10.723   7.755
51572SOL     OW56554   3.820   6.103   0.152
51572SOL    HW156555   3.836   6.160   0.077
51572SOL    HW256556   3.880   6.135   0.220
51573SOL     OW56557  12.997   6.514   5.002
51573SOL    HW156558  12.963   6.546   4.918
51573SOL    HW256559  13.091   6.503   4.987
51574SOL     OW56560   1.088  14.759   6.494
51574SOL    HW156561   1.085  14.814   6.415
51574SOL    HW256562   0.999  14.726   6.504
51575SOL     OW56563   6.454   5.824  10.590
51575SOL    HW156564   6.464   5.886  10.662
51575SOL    HW256565   6.498   5.865  10.516
51576SOL     OW56566   1.667   6.850  12.084
51576SOL    HW156567   1.711   6.935  12.090
51576SOL    HW256568   1.587   6.861  12.136
51577SOL     OW56569  11.032   0.916   0.949
51577SOL    HW156570  11.086   0.886   0.876
51577SOL    HW256571  10.952   0.949   0.908
51578SOL     OW56572  14.619  11.081   9.961
51578SOL    HW156573  14.616  11.170   9.998
51578SOL    HW256574  14.571  11.088   9.878
51579SOL     OW56575   8.793   5.899   8.479
51579SOL    HW156576   8.771   5.856   8.396
51579SOL    HW256577   8.873   5.855   8.508
51580SOL     OW56578   1.599   7.833  12.503
51580SOL    HW156579   1.667   7.824  12.436
51580SOL    HW256580   1.571   7.925  12.495
51581SOL     OW56581  14.419  11.131  12.432
51581SOL    HW156582  14.467  11.062  12.386
51581SOL    HW256583  14.353  11.084  12.483
51582SOL     OW56584  11.772   4.784  11.654
51582SOL    HW156585  11.761   4.785  11.559
51582SOL    HW256586  11.772   4.691  11.677
51583SOL     OW56587   3.670   2.718   6.453
51583SOL    HW156588   3.660   2.713   6.548
51583SOL    HW256589   3.724   2.796   6.439
51584SOL     OW56590   5.250   7.185   2.324
51584SOL    HW156591   5.176   7.185   2.384
51584SOL    HW256592   5.280   7.276   2.322
51585SOL     OW56593   7.804  10.919   3.723
51585SOL    HW156594   7.899  10.914   3.713
51585SOL    HW256595   7.791  10.955   3.811
51586SOL     OW56596  13.657   4.914  12.583
51586SOL    HW156597  13.677   4.958  12.500
51586SOL    HW256598  13.629   4.984  12.641
51587SOL     OW56599   8.376   0.905   9.426
51587SOL    HW156600   8.440   0.969   9.395
51587SOL    HW256601   8.292   0.951   9.423
51588SOL     OW56602   1.575  12.951   4.410
51588SOL    HW156603   1.574  13.029   4.466
51588SOL    HW256604   1.528  12.979   4.331
51589SOL     OW56605   7.907  12.502   4.304
51589SOL    HW156606   7.893  12.501   4.399
51589SOL    HW256607   7.944  12.589   4.287
51590SOL     OW56608   8.913  13.339   3.917
51590SOL    HW156609   8.914  13.339   3.821
51590SOL    HW256610   8.851  13.271   3.941
51591SOL     OW56611   8.847   0.186  12.069
51591SOL    HW156612   8.892   0.242  12.006
51591SOL    HW256613   8.910   0.116  12.089
51592SOL     OW56614   2.651   7.721   7.780
51592SOL    HW156615   2.702   7.644   7.803
51592SOL    HW256616   2.614   7.701   7.694
51593SOL     OW56617  11.517  11.408  10.642
51593SOL    HW156618  11.594  11.353  10.630
51593SOL    HW256619  11.443  11.348  10.641
51594SOL     OW56620   6.707   4.743  12.681
51594SOL    HW156621   6.788   4.709  12.642
51594SOL    HW256622   6.686   4.680  12.750
51595SOL     OW56623   2.647   6.086   7.455
51595SOL    HW156624   2.715   6.085   7.388
51595SOL    HW256625   2.592   6.162   7.432
51596SOL     OW56626  12.653   1.233   0.699
51596SOL    HW156627  12.583   1.210   0.760
51596SOL    HW256628  12.691   1.313   0.734
51597SOL     OW56629   5.137  11.291   5.375
51597SOL    HW156630   5.125  11.199   5.401
51597SOL    HW256631   5.100  11.341   5.447
51598SOL     OW56632   7.455  14.355   4.788
51598SOL    HW156633   7.539  14.366   4.832
51598SOL    HW256634   7.468  14.279   4.731
51599SOL     OW56635   3.842   5.290  11.494
51599SOL    HW156636   3.918   5.339  11.464
51599SOL    HW256637   3.767   5.344  11.467
51600SOL     OW56638   6.502   9.163  10.349
51600SOL    HW156639   6.425   9.118  10.382
51600SOL    HW256640   6.478   9.188  10.260
51601SOL     OW56641   0.745  14.211   5.969
51601SOL    HW156642   0.808  14.165   6.025
51601SOL    HW256643   0.676  14.240   6.029
51602SOL     OW56644   6.953  10.532   6.434
51602SOL    HW156645   7.017  10.527   6.363
51602SOL    HW256646   6.870  10.503   6.395
51603SOL     OW56647   7.981  11.935   3.480
51603SOL    HW156648   8.003  11.935   3.387
51603SOL    HW256649   7.916  11.866   3.489
51604SOL     OW56650   7.983   1.632   2.039
51604SOL    HW156651   7.901   1.673   2.013
51604SOL    HW256652   8.008   1.677   2.120
51605SOL     OW56653  10.030   5.812   4.417
51605SOL    HW156654   9.999   5.737   4.367
51605SOL    HW256655  10.091   5.775   4.481
51606SOL     OW56656  13.624  12.154  14.133
51606SOL    HW156657  13.618  12.246  14.161
51606SOL    HW256658  13.677  12.112  14.200
51607SOL     OW56659   0.455   5.474   5.819
51607SOL    HW156660   0.427   5.565   5.805
51607SOL    HW256661   0.377   5.422   5.798
51608SOL     OW56662  14.725   7.301   2.362
51608SOL    HW156663  14.631   7.320   2.359
51608SOL    HW256664  14.734   7.236   2.432
51609SOL     OW56665   1.143  12.385  12.229
51609SOL    HW156666   1.050  12.380  12.205
51609SOL    HW256667   1.180  12.449  12.169
51610SOL     OW56668   8.606   4.627  12.930
51610SOL    HW156669   8.510   4.620  12.926
51610SOL    HW256670   8.637   4.574  12.856
51611SOL     OW56671   4.561  14.258  14.188
51611SOL    HW156672   4.495  14.204  14.144
51611SOL    HW256673   4.607  14.303  14.117
51612SOL     OW56674   2.121  11.045   0.613
51612SOL    HW156675   2.199  11.086   0.574
51612SOL    HW256676   2.059  11.117   0.625
51613SOL     OW56677  12.769   5.528   4.354
51613SOL    HW156678  12.793   5.619   4.374
51613SOL    HW256679  12.840   5.497   4.297
51614SOL     OW56680   4.477  13.813   3.402
51614SOL    HW156681   4.504  13.797   3.492
51614SOL    HW256682   4.554  13.850   3.360
51615SOL     OW56683  11.956  14.506   7.470
51615SOL    HW156684  11.982  14.592   7.504
51615SOL    HW256685  11.893  14.526   7.401
51616SOL     OW56686   8.418   8.022  11.698
51616SOL    HW156687   8.399   7.981  11.613
51616SOL    HW256688   8.488   8.084  11.678
51617SOL     OW56689   0.925   5.279   0.554
51617SOL    HW156690   1.007   5.305   0.513
51617SOL    HW256691   0.861   5.344   0.525
51618SOL     OW56692  14.043   6.653  10.403
51618SOL    HW156693  14.034   6.565  10.368
51618SOL    HW256694  14.083   6.703  10.331
51619SOL     OW56695  12.201   9.487  13.699
51619SOL    HW156696  12.277   9.531  13.661
51619SOL    HW256697  12.130   9.503  13.636
51620SOL     OW56698  12.966  11.165   0.513
51620SOL    HW156699  12.927  11.094   0.563
51620SOL    HW256700  13.058  11.141   0.505
51621SOL     OW56701  14.149   6.962  13.249
51621SOL    HW156702  14.110   6.966  13.336
51621SOL    HW256703  14.144   6.870  13.225
51622SOL     OW56704   2.746  11.365   8.902
51622SOL    HW156705   2.716  11.275   8.888
51622SOL    HW256706   2.794  11.362   8.984
51623SOL     OW56707   6.245  10.204   1.582
51623SOL    HW156708   6.326  10.190   1.534
51623SOL    HW256709   6.200  10.120   1.578
51624SOL     OW56710  13.647   9.696   8.358
51624SOL    HW156711  13.578   9.723   8.297
51624SOL    HW256712  13.604   9.634   8.417
51625SOL     OW56713  14.589  12.439   0.062
51625SOL    HW156714  14.630  12.362   0.100
51625SOL    HW256715  14.632  12.449  14.859
51626SOL     OW56716  14.127  11.893   4.901
51626SOL    HW156717  14.160  11.908   4.813
51626SOL    HW256718  14.192  11.934   4.959
51627SOL     OW56719  14.021   4.051  14.792
51627SOL    HW156720  14.015   4.139  14.755
51627SOL    HW256721  14.101   4.051  14.843
51628SOL     OW56722   7.915   8.356   9.503
51628SOL    HW156723   7.833   8.319   9.469
51628SOL    HW256724   7.983   8.320   9.445
51629SOL     OW56725   5.835  13.303   7.815
51629SOL    HW156726   5.903  13.237   7.801
51629SOL    HW256727   5.759  13.253   7.847
51630SOL     OW56728   2.599   6.279   6.524
51630SOL    HW156729   2.649   6.215   6.574
51630SOL    HW256730   2.574   6.345   6.588
51631SOL     OW56731  13.145  11.999   3.235
51631SOL    HW156732  13.149  11.943   3.158
51631SOL    HW256733  13.071  12.058   3.218
51632SOL     OW56734   1.885  10.207   1.350
51632SOL    HW156735   1.824  10.184   1.280
51632SOL    HW256736   1.968  10.225   1.305
51633SOL     OW56737   9.316   3.563   0.643
51633SOL    HW156738   9.247   3.569   0.577
51633SOL    HW256739   9.300   3.639   0.700
51634SOL     OW56740   9.837  14.101  11.851
51634SOL    HW156741   9.899  14.052  11.904
51634SOL    HW256742   9.823  14.047  11.774
51635SOL     OW56743  12.784  12.169   1.233
51635SOL    HW156744  12.854  12.109   1.208
51635SOL    HW256745  12.746  12.129   1.312
51636SOL     OW56746   6.831  11.601   8.226
51636SOL    HW156747   6.873  11.526   8.186
51636SOL    HW256748   6.740  11.574   8.239
51637SOL     OW56749   6.952   0.815  10.515
51637SOL    HW156750   6.878   0.761  10.541
51637SOL    HW256751   7.024   0.787  10.572
51638SOL     OW56752   8.783   3.883  14.151
51638SOL    HW156753   8.744   3.879  14.063
51638SOL    HW256754   8.857   3.822  14.147
51639SOL     OW56755   3.584   4.762   4.670
51639SOL    HW156756   3.634   4.737   4.748
51639SOL    HW256757   3.500   4.718   4.681
51640SOL     OW56758   7.071   1.611   0.882
51640SOL    HW156759   7.055   1.655   0.966
51640SOL    HW256760   6.983   1.589   0.850
51641SOL     OW56761   7.655  13.468   5.994
51641SOL    HW156762   7.682  13.554   6.028
51641SOL    HW256763   7.683  13.406   6.061
51642SOL     OW56764   2.929   4.388   3.432
51642SOL    HW156765   2.841   4.352   3.428
51642SOL    HW256766   2.964   4.379   3.343
51643SOL     OW56767   1.368   1.127   7.405
51643SOL    HW156768   1.443   1.167   7.362
51643SOL    HW256769   1.355   1.044   7.359
51644SOL     OW56770  10.563  10.926   2.527
51644SOL    HW156771  10.472  10.899   2.525
51644SOL    HW256772  10.562  11.013   2.567
51645SOL     OW56773  13.034   3.071   1.482
51645SOL    HW156774  13.037   2.985   1.439
51645SOL    HW256775  13.125   3.100   1.483
51646SOL     OW56776   1.201   0.293  10.602
51646SOL    HW156777   1.281   0.269  10.555
51646SOL    HW256778   1.184   0.220  10.661
51647SOL     OW56779  11.733   6.571   8.308
51647SOL    HW156780  11.818   6.564   8.265
51647SOL    HW256781  11.733   6.501   8.373
51648SOL     OW56782   9.129   7.032  11.210
51648SOL    HW156783   9.123   6.944  11.248
51648SOL    HW256784   9.211   7.030  11.161
51649SOL     OW56785  10.497  13.618   9.076
51649SOL    HW156786  10.439  13.650   9.007
51649SOL    HW256787  10.549  13.550   9.033
51650SOL     OW56788  12.452   5.584  10.390
51650SOL    HW156789  12.547   5.598  10.391
51650SOL    HW256790  12.438   5.529  10.313
51651SOL     OW56791   1.525   4.227   3.347
51651SOL    HW156792   1.596   4.282   3.315
51651SOL    HW256793   1.476   4.283   3.407
51652SOL     OW56794   8.132  12.563  14.296
51652SOL    HW156795   8.133  12.657  14.276
51652SOL    HW256796   8.067  12.526  14.237
51653SOL     OW56797  12.304   3.262   6.245
51653SOL    HW156798  12.297   3.170   6.217
51653SOL    HW256799  12.380   3.264   6.303
51654SOL     OW56800  13.728   1.265  13.463
51654SOL    HW156801  13.632   1.270  13.471
51654SOL    HW256802  13.742   1.200  13.394
51655SOL     OW56803  12.183   9.840   5.984
51655SOL    HW156804  12.262   9.798   5.952
51655SOL    HW256805  12.205   9.932   5.990
51656SOL     OW56806   2.538   3.238   7.236
51656SOL    HW156807   2.491   3.155   7.248
51656SOL    HW256808   2.570   3.234   7.146
51657SOL     OW56809   6.365   1.391   7.796
51657SOL    HW156810   6.427   1.461   7.773
51657SOL    HW256811   6.387   1.319   7.737
51658SOL     OW56812   2.891   3.008  10.733
51658SOL    HW156813   2.957   2.967  10.677
51658SOL    HW256814   2.838   3.060  10.673
51659SOL     OW56815   1.854   0.778   6.422
51659SOL    HW156816   1.836   0.692   6.385
51659SOL    HW256817   1.769   0.810   6.451
51660SOL     OW56818   0.654  13.403   8.368
51660SOL    HW156819   0.673  13.310   8.379
51660SOL    HW256820   0.660  13.418   8.274
51661SOL     OW56821  13.705   7.628   3.092
51661SOL    HW156822  13.639   7.568   3.057
51661SOL    HW256823  13.746   7.667   3.014
51662SOL     OW56824  12.984   5.188  14.845
51662SOL    HW156825  13.058   5.234  14.804
51662SOL    HW256826  13.025   5.122   0.019
51663SOL     OW56827   0.964   1.928   3.040
51663SOL    HW156828   0.925   1.878   3.112
51663SOL    HW256829   0.891   1.946   2.981
51664SOL     OW56830   4.640   1.586   2.192
51664SOL    HW156831   4.652   1.630   2.108
51664SOL    HW256832   4.725   1.547   2.211
51665SOL     OW56833  12.230   6.024  12.802
51665SOL    HW156834  12.172   5.971  12.856
51665SOL    HW256835  12.318   6.004  12.833
51666SOL     OW56836  12.999   7.215   5.518
51666SOL    HW156837  13.055   7.292   5.508
51666SOL    HW256838  12.937   7.219   5.445
51667SOL     OW56839   8.988   3.021   3.586
51667SOL    HW156840   9.076   3.055   3.570
51667SOL    HW256841   8.936   3.099   3.609
51668SOL     OW56842  11.703  12.839   1.844
51668SOL    HW156843  11.794  12.826   1.816
51668SOL    HW256844  11.701  12.806   1.934
51669SOL     OW56845   5.660  11.734  12.390
51669SOL    HW156846   5.595  11.684  12.438
51669SOL    HW256847   5.729  11.752  12.455
51670SOL     OW56848   1.827   8.671   6.216
51670SOL    HW156849   1.779   8.754   6.223
51670SOL    HW256850   1.907   8.694   6.170
51671SOL     OW56851  13.600  12.270  12.389
51671SOL    HW156852  13.611  12.324  12.467
51671SOL    HW256853  13.546  12.322  12.331
51672SOL     OW56854   3.143   9.571  13.974
51672SOL    HW156855   3.082   9.571  13.900
51672SOL    HW256856   3.209   9.505  13.951
51673SOL     OW56857  14.232   1.278   3.034
51673SOL    HW156858  14.152   1.263   3.085
51673SOL    HW256859  14.217   1.363   2.992
51674SOL     OW56860  12.990   9.248   6.075
51674SOL    HW156861  12.973   9.256   6.169
51674SOL    HW256862  13.024   9.334   6.049
51675SOL     OW56863  13.494   8.225  13.427
51675SOL    HW156864  13.571   8.169  13.419
51675SOL    HW256865  13.471   8.221  13.520
51676SOL     OW56866   5.091   4.714  11.664
51676SOL    HW156867   5.008   4.726  11.620
51676SOL    HW256868   5.081   4.760  11.747
51677SOL     OW56869   9.310   6.420   8.165
51677SOL    HW156870   9.325   6.338   8.213
51677SOL    HW256871   9.390   6.471   8.180
51678SOL     OW56872  14.032  14.019  14.373
51678SOL    HW156873  14.010  14.047  14.462
51678SOL    HW256874  14.034  14.100  14.322
51679SOL     OW56875  10.063   0.642   8.509
51679SOL    HW156876  10.089   0.734   8.500
51679SOL    HW256877   9.970   0.641   8.484
51680SOL     OW56878  12.965   4.199   0.300
51680SOL    HW156879  12.974   4.292   0.280
51680SOL    HW256880  12.904   4.196   0.374
51681SOL     OW56881   3.128   8.613  13.087
51681SOL    HW156882   3.213   8.606  13.130
51681SOL    HW256883   3.098   8.701  13.107
51682SOL     OW56884  12.163  13.616   5.540
51682SOL    HW156885  12.224  13.546   5.563
51682SOL    HW256886  12.186  13.688   5.598
51683SOL     OW56887   4.736  12.109  12.515
51683SOL    HW156888   4.666  12.046  12.496
51683SOL    HW256889   4.788  12.067  12.584
51684SOL     OW56890   9.211   7.606   4.028
51684SOL    HW156891   9.185   7.516   4.006
51684SOL    HW256892   9.132   7.644   4.068
51685SOL     OW56893  14.142  10.807   7.274
51685SOL    HW156894  14.196  10.860   7.332
51685SOL    HW256895  14.148  10.719   7.309
51686SOL     OW56896   0.764   1.338   7.869
51686SOL    HW156897   0.786   1.429   7.851
51686SOL    HW256898   0.835   1.288   7.829
51687SOL     OW56899   3.049   4.466   6.365
51687SOL    HW156900   3.011   4.486   6.450
51687SOL    HW256901   3.144   4.464   6.381
51688SOL     OW56902  11.008   1.601   8.822
51688SOL    HW156903  10.951   1.561   8.888
51688SOL    HW256904  10.984   1.693   8.823
51689SOL     OW56905   4.807   8.408   2.251
51689SOL    HW156906   4.758   8.458   2.316
51689SOL    HW256907   4.820   8.469   2.178
51690SOL     OW56908   1.053  14.428  13.203
51690SOL    HW156909   1.114  14.461  13.269
51690SOL    HW256910   1.059  14.332  13.210
51691SOL     OW56911   6.250   4.358   3.101
51691SOL    HW156912   6.280   4.435   3.149
51691SOL    HW256913   6.330   4.307   3.087
51692SOL     OW56914   1.626   6.797  13.382
51692SOL    HW156915   1.601   6.886  13.405
51692SOL    HW256916   1.562   6.742  13.425
51693SOL     OW56917  14.112  10.617  12.016
51693SOL    HW156918  14.175  10.662  11.960
51693SOL    HW256919  14.139  10.639  12.105
51694SOL     OW56920   8.447   6.140   5.057
51694SOL    HW156921   8.410   6.087   5.128
51694SOL    HW256922   8.540   6.118   5.056
51695SOL     OW56923   4.373   2.787  10.075
51695SOL    HW156924   4.406   2.874  10.056
51695SOL    HW256925   4.280   2.790  10.050
51696SOL     OW56926  12.986   9.340   7.942
51696SOL    HW156927  12.992   9.433   7.918
51696SOL    HW256928  13.076   9.314   7.959
51697SOL     OW56929   0.849   6.834   5.123
51697SOL    HW156930   0.759   6.811   5.147
51697SOL    HW256931   0.842   6.921   5.084
51698SOL     OW56932   3.550  14.264  14.175
51698SOL    HW156933   3.602  14.293  14.099
51698SOL    HW256934   3.512  14.344  14.210
51699SOL     OW56935  10.180   3.416   6.868
51699SOL    HW156936  10.101   3.469   6.862
51699SOL    HW256937  10.195   3.385   6.779
51700SOL     OW56938  10.535  13.987   7.915
51700SOL    HW156939  10.460  13.964   7.970
51700SOL    HW256940  10.607  13.934   7.951
51701SOL     OW56941  13.009   4.652  12.337
51701SOL    HW156942  12.995   4.558  12.329
51701SOL    HW256943  13.100   4.661  12.364
51702SOL     OW56944   3.558  13.469   1.674
51702SOL    HW156945   3.499  13.423   1.615
51702SOL    HW256946   3.631  13.407   1.687
51703SOL     OW56947   6.057  11.533   1.772
51703SOL    HW156948   6.054  11.623   1.738
51703SOL    HW256949   6.131  11.532   1.832
51704SOL     OW56950   6.002  12.624   6.003
51704SOL    HW156951   6.004  12.547   5.947
51704SOL    HW256952   5.909  12.636   6.023
51705SOL     OW56953   0.449   0.672   0.833
51705SOL    HW156954   0.402   0.608   0.779
51705SOL    HW256955   0.482   0.736   0.770
51706SOL     OW56956   6.425   9.899   9.298
51706SOL    HW156957   6.347   9.931   9.343
51706SOL    HW256958   6.428   9.806   9.320
51707SOL     OW56959  11.205  10.533  13.869
51707SOL    HW156960  11.160  10.492  13.942
51707SOL    HW256961  11.287  10.484  13.860
51708SOL     OW56962  14.811   9.248   6.797
51708SOL    HW156963  14.789   9.341   6.788
51708SOL    HW256964  14.869   9.244   6.873
51709SOL     OW56965  11.625  11.515   9.208
51709SOL    HW156966  11.613  11.423   9.234
51709SOL    HW256967  11.695  11.547   9.265
51710SOL     OW56968   4.321  13.908   5.491
51710SOL    HW156969   4.266  13.984   5.474
51710SOL    HW256970   4.309  13.852   5.414
51711SOL     OW56971   9.006  14.566  12.264
51711SOL    HW156972   9.014  14.635  12.198
51711SOL    HW256973   8.925  14.587  12.310
51712SOL     OW56974   1.344   5.665   2.133
51712SOL    HW156975   1.372   5.618   2.054
51712SOL    HW256976   1.425   5.691   2.175
51713SOL     OW56977   2.305  13.813   4.533
51713SOL    HW156978   2.341  13.790   4.618
51713SOL    HW256979   2.285  13.729   4.492
51714SOL     OW56980  11.396   7.052  14.875
51714SOL    HW156981  11.457   6.999  14.823
51714SOL    HW256982  11.447   7.081   0.068
51715SOL     OW56983   6.796   6.953   6.211
51715SOL    HW156984   6.728   6.919   6.152
51715SOL    HW256985   6.749   6.976   6.291
51716SOL     OW56986   7.375   5.082   2.878
51716SOL    HW156987   7.335   5.047   2.958
51716SOL    HW256988   7.411   5.166   2.904
51717SOL     OW56989   1.639   3.760  12.651
51717SOL    HW156990   1.562   3.707  12.674
51717SOL    HW256991   1.650   3.745  12.557
51718SOL     OW56992   1.497  12.092   1.246
51718SOL    HW156993   1.412  12.112   1.286
51718SOL    HW256994   1.476  12.068   1.156
51719SOL     OW56995   1.709   6.816   0.026
51719SOL    HW156996   1.756   6.845  14.830
51719SOL    HW256997   1.747   6.867   0.098
51720SOL     OW56998  11.865   5.406  14.028
51720SOL    HW156999  11.843   5.366  14.112
51720SOL    HW257000  11.926   5.343  13.988
51721SOL     OW57001   7.495  14.546  13.632
51721SOL    HW157002   7.562  14.577  13.571
51721SOL    HW257003   7.503  14.604  13.708
51722SOL     OW57004  10.149   2.847  14.800
51722SOL    HW157005  10.186   2.833  14.713
51722SOL    HW257006  10.068   2.796  14.800
51723SOL     OW57007   7.280  11.126   6.958
51723SOL    HW157008   7.325  11.192   7.011
51723SOL    HW257009   7.346  11.097   6.894
51724SOL     OW57010  10.250  10.540   1.746
51724SOL    HW157011  10.284  10.521   1.658
51724SOL    HW257012  10.175  10.481   1.755
51725SOL     OW57013   1.106   8.543   5.511
51725SOL    HW157014   1.093   8.449   5.494
51725SOL    HW257015   1.186   8.546   5.563
51726SOL     OW57016   8.574   0.971  14.589
51726SOL    HW157017   8.547   0.880  14.599
51726SOL    HW257018   8.569   1.007  14.678
51727SOL     OW57019   9.404   0.018   6.988
51727SOL    HW157020   9.425   0.000   6.896
51727SOL    HW257021   9.467  14.847   7.037
51728SOL     OW57022   5.368   1.979  10.871
51728SOL    HW157023   5.380   1.921  10.946
51728SOL    HW257024   5.457   1.992  10.836
51729SOL     OW57025  13.401   1.041  10.120
51729SOL    HW157026  13.378   1.127  10.155
51729SOL    HW257027  13.319   1.008  10.082
51730SOL     OW57028   6.079   6.377   7.637
51730SOL    HW157029   6.095   6.367   7.543
51730SOL    HW257030   6.009   6.442   7.643
51731SOL     OW57031   2.724  11.574   7.466
51731SOL    HW157032   2.725  11.496   7.521
51731SOL    HW257033   2.736  11.647   7.526
51732SOL     OW57034   5.469  11.241   8.273
51732SOL    HW157035   5.518  11.206   8.348
51732SOL    HW257036   5.377  11.233   8.298
51733SOL     OW57037   2.885   1.455  12.981
51733SOL    HW157038   2.854   1.485  12.896
51733SOL    HW257039   2.945   1.523  13.011
51734SOL     OW57040  12.013  11.658   5.639
51734SOL    HW157041  12.056  11.576   5.616
51734SOL    HW257042  12.011  11.708   5.557
51735SOL     OW57043   6.257   6.172  10.628
51735SOL    HW157044   6.277   6.227  10.553
51735SOL    HW257045   6.187   6.219  10.674
51736SOL     OW57046   4.680  10.216  14.140
51736SOL    HW157047   4.603  10.165  14.114
51736SOL    HW257048   4.753  10.154  14.133
51737SOL     OW57049   4.368  12.805   7.577
51737SOL    HW157050   4.290  12.820   7.630
51737SOL    HW257051   4.433  12.771   7.638
51738SOL     OW57052  14.680   2.649   9.752
51738SOL    HW157053  14.766   2.690   9.758
51738SOL    HW257054  14.693   2.575   9.692
51739SOL     OW57055   0.864   9.334  12.357
51739SOL    HW157056   0.915   9.386  12.420
51739SOL    HW257057   0.821   9.400  12.302
51740SOL     OW57058  14.005   0.133   5.695
51740SOL    HW157059  13.933   0.114   5.635
51740SOL    HW257060  14.033   0.047   5.727
51741SOL     OW57061  12.520   1.784  12.113
51741SOL    HW157062  12.565   1.797  12.029
51741SOL    HW257063  12.587   1.803  12.179
51742SOL     OW57064   8.266   3.529   3.747
51742SOL    HW157065   8.323   3.540   3.671
51742SOL    HW257066   8.282   3.608   3.800
51743SOL     OW57067  13.168   8.729   3.911
51743SOL    HW157068  13.129   8.645   3.889
51743SOL    HW257069  13.231   8.746   3.841
51744SOL     OW57070  13.614   1.580   7.836
51744SOL    HW157071  13.520   1.564   7.851
51744SOL    HW257072  13.616   1.646   7.766
51745SOL     OW57073   4.281   9.107   9.882
51745SOL    HW157074   4.299   9.036   9.944
51745SOL    HW257075   4.367   9.138   9.855
51746SOL     OW57076   7.326   1.675   1.812
51746SOL    HW157077   7.364   1.623   1.741
51746SOL    HW257078   7.239   1.637   1.825
51747SOL     OW57079   2.031   7.666   6.479
51747SOL    HW157080   1.952   7.681   6.532
51747SOL    HW257081   2.093   7.731   6.511
51748SOL     OW57082  11.060   4.897  11.403
51748SOL    HW157083  11.081   4.845  11.480
51748SOL    HW257084  10.996   4.961  11.434
51749SOL     OW57085  12.044   6.526  12.344
51749SOL    HW157086  11.983   6.598  12.326
51749SOL    HW257087  12.041   6.473  12.265
51750SOL     OW57088  12.329   8.469   7.568
51750SOL    HW157089  12.394   8.444   7.634
51750SOL    HW257090  12.338   8.403   7.499
51751SOL     OW57091   2.963   1.157   5.519
51751SOL    HW157092   2.876   1.134   5.552
51751SOL    HW257093   2.954   1.246   5.488
51752SOL     OW57094  12.137   7.985   5.784
51752SOL    HW157095  12.120   8.063   5.731
51752SOL    HW257096  12.100   8.005   5.870
51753SOL     OW57097   7.991   6.568   2.381
51753SOL    HW157098   7.949   6.482   2.388
51753SOL    HW257099   7.928   6.621   2.333
51754SOL     OW57100   0.973   8.776   2.948
51754SOL    HW157101   0.981   8.870   2.959
51754SOL    HW257102   1.011   8.758   2.861
51755SOL     OW57103  10.749   1.346   3.239
51755SOL    HW157104  10.789   1.362   3.154
51755SOL    HW257105  10.662   1.384   3.233
51756SOL     OW57106   7.815   8.657  14.083
51756SOL    HW157107   7.839   8.579  14.133
51756SOL    HW257108   7.721   8.648  14.067
51757SOL     OW57109   8.396   3.000   7.732
51757SOL    HW157110   8.431   3.088   7.742
51757SOL    HW257111   8.441   2.948   7.798
51758SOL     OW57112  14.319  11.876  11.194
51758SOL    HW157113  14.404  11.917  11.186
51758SOL    HW257114  14.299  11.844  11.106
51759SOL     OW57115   0.943   4.681   9.613
51759SOL    HW157116   1.008   4.615   9.636
51759SOL    HW257117   0.983   4.730   9.541
51760SOL     OW57118   0.892   6.880   7.731
51760SOL    HW157119   0.945   6.827   7.791
51760SOL    HW257120   0.817   6.908   7.784
51761SOL     OW57121   5.524   9.303   7.532
51761SOL    HW157122   5.445   9.251   7.518
51761SOL    HW257123   5.496   9.374   7.589
51762SOL     OW57124   6.444  12.788   3.882
51762SOL    HW157125   6.501  12.778   3.805
51762SOL    HW257126   6.374  12.724   3.868
51763SOL     OW57127   8.728   3.258   5.427
51763SOL    HW157128   8.664   3.308   5.478
51763SOL    HW257129   8.682   3.234   5.347
51764SOL     OW57130   5.981   5.179   4.732
51764SOL    HW157131   5.885   5.173   4.736
51764SOL    HW257132   6.012   5.117   4.799
51765SOL     OW57133   3.623   1.035   9.458
51765SOL    HW157134   3.702   1.065   9.414
51765SOL    HW257135   3.646   1.035   9.551
51766SOL     OW57136  10.893  12.123   9.298
51766SOL    HW157137  10.962  12.150   9.359
51766SOL    HW257138  10.829  12.194   9.301
51767SOL     OW57139  13.722  14.306  14.605
51767SOL    HW157140  13.761  14.305  14.518
51767SOL    HW257141  13.705  14.214  14.625
51768SOL     OW57142   3.029   0.509   0.531
51768SOL    HW157143   3.085   0.497   0.454
51768SOL    HW257144   3.089   0.500   0.605
51769SOL     OW57145   7.550   1.700  10.125
51769SOL    HW157146   7.597   1.618  10.139
51769SOL    HW257147   7.482   1.701  10.193
51770SOL     OW57148   3.087   8.344  11.368
51770SOL    HW157149   3.141   8.285  11.421
51770SOL    HW257150   3.129   8.343  11.282
51771SOL     OW57151   1.426  10.730   3.107
51771SOL    HW157152   1.350  10.769   3.150
51771SOL    HW257153   1.408  10.739   3.014
51772SOL     OW57154   9.868  12.563   2.438
51772SOL    HW157155   9.773  12.566   2.450
51772SOL    HW257156   9.881  12.522   2.353
51773SOL     OW57157   8.238  10.811  13.901
51773SOL    HW157158   8.333  10.798  13.907
51773SOL    HW257159   8.219  10.809  13.807
51774SOL     OW57160   6.264   7.859   1.885
51774SOL    HW157161   6.296   7.940   1.846
51774SOL    HW257162   6.247   7.882   1.976
51775SOL     OW57163   7.034   0.006   1.682
51775SOL    HW157164   7.087   0.017   1.760
51775SOL    HW257165   7.006   0.094   1.658
51776SOL     OW57166  13.263   7.784   1.853
51776SOL    HW157167  13.261   7.801   1.759
51776SOL    HW257168  13.171   7.780   1.879
51777SOL     OW57169   5.972  14.766   2.677
51777SOL    HW157170   5.981  14.842   2.734
51777SOL    HW257171   5.944  14.802   2.593
51778SOL     OW57172  12.881   3.334   3.542
51778SOL    HW157173  12.787   3.333   3.556
51778SOL    HW257174  12.899   3.255   3.491
51779SOL     OW57175   2.005  11.394  10.474
51779SOL    HW157176   1.995  11.347  10.392
51779SOL    HW257177   2.079  11.453  10.460
51780SOL     OW57178   9.928   4.187  13.861
51780SOL    HW157179   9.889   4.269  13.830
51780SOL    HW257180   9.972   4.211  13.942
51781SOL     OW57181   8.798   5.645   5.206
51781SOL    HW157182   8.770   5.557   5.180
51781SOL    HW257183   8.748   5.703   5.149
51782SOL     OW57184   2.277   5.063   4.832
51782SOL    HW157185   2.257   5.078   4.739
51782SOL    HW257186   2.234   5.135   4.878
51783SOL     OW57187   1.860   2.812   1.152
51783SOL    HW157188   1.902   2.734   1.187
51783SOL    HW257189   1.802   2.842   1.222
51784SOL     OW57190   1.853   6.518   0.641
51784SOL    HW157191   1.862   6.490   0.551
51784SOL    HW257192   1.929   6.483   0.686
51785SOL     OW57193  14.123   0.419  11.809
51785SOL    HW157194  14.063   0.410  11.735
51785SOL    HW257195  14.193   0.356  11.791
51786SOL     OW57196  14.863  11.224   5.250
51786SOL    HW157197   0.008  11.149   5.305
51786SOL    HW257198  14.772  11.206   5.229
51787SOL     OW57199  14.264   4.009   8.609
51787SOL    HW157200  14.248   3.993   8.702
51787SOL    HW257201  14.206   3.948   8.564
51788SOL     OW57202   9.298  11.428  12.504
51788SOL    HW157203   9.326  11.336  12.509
51788SOL    HW257204   9.374  11.474  12.469
51789SOL     OW57205   4.636  10.440  10.377
51789SOL    HW157206   4.701  10.469  10.441
51789SOL    HW257207   4.647  10.499  10.303
51790SOL     OW57208   5.782   1.887   8.997
51790SOL    HW157209   5.810   1.859   8.910
51790SOL    HW257210   5.858   1.932   9.035
51791SOL     OW57211   5.686  11.464  11.899
51791SOL    HW157212   5.758  11.406  11.871
51791SOL    HW257213   5.650  11.421  11.977
51792SOL     OW57214   7.764  11.069   5.640
51792SOL    HW157215   7.823  11.062   5.565
51792SOL    HW257216   7.774  11.159   5.671
51793SOL     OW57217  10.636   6.755  13.260
51793SOL    HW157218  10.657   6.834  13.211
51793SOL    HW257219  10.552   6.773  13.301
51794SOL     OW57220   2.000   2.043   4.932
51794SOL    HW157221   2.088   2.080   4.920
51794SOL    HW257222   2.011   1.978   5.001
51795SOL     OW57223   1.417   0.173  10.074
51795SOL    HW157224   1.433   0.141  10.163
51795SOL    HW257225   1.335   0.131  10.047
51796SOL     OW57226  11.323  14.356   4.070
51796SOL    HW157227  11.356  14.296   4.137
51796SOL    HW257228  11.325  14.442   4.112
51797SOL     OW57229  12.573  13.263   9.780
51797SOL    HW157230  12.622  13.345   9.776
51797SOL    HW257231  12.639  13.196   9.794
51798SOL     OW57232   3.377   2.715   0.813
51798SOL    HW157233   3.421   2.638   0.849
51798SOL    HW257234   3.372   2.698   0.719
51799SOL     OW57235   1.903   2.205  11.502
51799SOL    HW157236   1.855   2.287  11.490
51799SOL    HW257237   1.839   2.147  11.543
51800SOL     OW57238   4.583   3.340   0.033
51800SOL    HW157239   4.662   3.287   0.027
51800SOL    HW257240   4.547   3.320   0.119
51801SOL     OW57241   5.307   3.025   9.697
51801SOL    HW157242   5.228   3.001   9.744
51801SOL    HW257243   5.293   3.115   9.669
51802SOL     OW57244   1.796   9.403   1.531
51802SOL    HW157245   1.725   9.366   1.583
51802SOL    HW257246   1.805   9.345   1.456
51803SOL     OW57247   0.680   1.857   1.210
51803SOL    HW157248   0.744   1.825   1.145
51803SOL    HW257249   0.654   1.779   1.258
51804SOL     OW57250  13.531   2.996  13.607
51804SOL    HW157251  13.594   3.043  13.661
51804SOL    HW257252  13.504   2.921  13.661
51805SOL     OW57253  11.817   1.153  11.371
51805SOL    HW157254  11.808   1.142  11.277
51805SOL    HW257255  11.738   1.111  11.408
51806SOL     OW57256   7.884  12.736   9.521
51806SOL    HW157257   7.928  12.740   9.606
51806SOL    HW257258   7.791  12.730   9.542
51807SOL     OW57259   3.546  14.128   9.496
51807SOL    HW157260   3.495  14.169   9.566
51807SOL    HW257261   3.543  14.190   9.424
51808SOL     OW57262   7.106   5.894   1.200
51808SOL    HW157263   7.024   5.855   1.171
51808SOL    HW257264   7.099   5.986   1.175
51809SOL     OW57265  13.548   6.946  12.677
51809SOL    HW157266  13.621   6.897  12.716
51809SOL    HW257267  13.473   6.922  12.730
51810SOL     OW57268   0.735  10.882  14.610
51810SOL    HW157269   0.673  10.860  14.680
51810SOL    HW257270   0.819  10.852  14.643
51811SOL     OW57271  11.745   3.610  14.469
51811SOL    HW157272  11.808   3.582  14.536
51811SOL    HW257273  11.669   3.638  14.519
51812SOL     OW57274  10.717  14.728  10.858
51812SOL    HW157275  10.725  14.822  10.844
51812SOL    HW257276  10.788  14.706  10.919
51813SOL     OW57277   1.450   4.425   3.135
51813SOL    HW157278   1.409   4.495   3.187
51813SOL    HW257279   1.392   4.415   3.059
51814SOL     OW57280  13.032   0.776   9.758
51814SOL    HW157281  13.027   0.797   9.665
51814SOL    HW257282  13.123   0.749   9.772
51815SOL     OW57283  14.595   7.849   7.430
51815SOL    HW157284  14.570   7.922   7.374
51815SOL    HW257285  14.691   7.856   7.438
51816SOL     OW57286   9.928   6.155  12.593
51816SOL    HW157287  10.023   6.155  12.584
51816SOL    HW257288   9.896   6.189  12.509
51817SOL     OW57289   9.257   1.011  12.040
51817SOL    HW157290   9.205   1.028  12.119
51817SOL    HW257291   9.345   0.994  12.073
51818SOL     OW57292   7.819  10.311   7.674
51818SOL    HW157293   7.786  10.324   7.762
51818SOL    HW257294   7.896  10.255   7.685
51819SOL     OW57295   6.057   4.869   4.037
51819SOL    HW157296   5.974   4.860   3.989
51819SOL    HW257297   6.083   4.778   4.056
51820SOL     OW57298   9.897  10.489  10.362
51820SOL    HW157299   9.854  10.572  10.344
51820SOL    HW257300   9.983  10.497  10.319
51821SOL     OW57301  10.915   3.151   3.693
51821SOL    HW157302  10.907   3.243   3.667
51821SOL    HW257303  10.965   3.153   3.775
51822SOL     OW57304  13.961   6.838   8.054
51822SOL    HW157305  13.928   6.923   8.083
51822SOL    HW257306  13.990   6.854   7.964
51823SOL     OW57307   2.666   4.606   5.615
51823SOL    HW157308   2.721   4.663   5.560
51823SOL    HW257309   2.577   4.636   5.598
51824SOL     OW57310   3.812   3.261  10.843
51824SOL    HW157311   3.735   3.273  10.899
51824SOL    HW257312   3.828   3.167  10.843
51825SOL     OW57313  14.616   1.862   2.612
51825SOL    HW157314  14.544   1.867   2.675
51825SOL    HW257315  14.580   1.899   2.531
51826SOL     OW57316  14.873   3.418   3.746
51826SOL    HW157317  14.862   3.323   3.741
51826SOL    HW257318   0.030   3.441   3.661
51827SOL     OW57319  14.112   8.392  11.448
51827SOL    HW157320  14.116   8.481  11.413
51827SOL    HW257321  14.095   8.403  11.541
51828SOL     OW57322   4.543   3.842  13.689
51828SOL    HW157323   4.632   3.856  13.722
51828SOL    HW257324   4.498   3.797  13.761
51829SOL     OW57325   7.571  11.630   7.831
51829SOL    HW157326   7.538  11.542   7.851
51829SOL    HW257327   7.499  11.689   7.854
51830SOL     OW57328   5.988  14.264  13.161
51830SOL    HW157329   5.914  14.211  13.192
51830SOL    HW257330   5.947  14.333  13.109
51831SOL     OW57331   9.554  11.486   5.273
51831SOL    HW157332   9.527  11.395   5.258
51831SOL    HW257333   9.617  11.480   5.345
51832SOL     OW57334   7.383  13.525  14.552
51832SOL    HW157335   7.374  13.615  14.583
51832SOL    HW257336   7.465  13.525  14.503
51833SOL     OW57337   9.861  12.668  11.926
51833SOL    HW157338   9.785  12.714  11.960
51833SOL    HW257339   9.936  12.717  11.960
51834SOL     OW57340  13.243   4.487  12.587
51834SOL    HW157341  13.205   4.399  12.586
51834SOL    HW257342  13.336   4.473  12.602
51835SOL     OW57343   3.301  14.296   8.652
51835SOL    HW157344   3.344  14.214   8.677
51835SOL    HW257345   3.367  14.364   8.668
51836SOL     OW57346   4.235   5.393   1.307
51836SOL    HW157347   4.244   5.489   1.306
51836SOL    HW257348   4.275   5.366   1.389
51837SOL     OW57349   8.124   6.016  11.657
51837SOL    HW157350   8.117   6.057  11.571
51837SOL    HW257351   8.127   5.922  11.639
51838SOL     OW57352   9.173   5.842   1.171
51838SOL    HW157353   9.156   5.885   1.087
51838SOL    HW257354   9.106   5.875   1.230
51839SOL     OW57355   5.391  12.969  11.862
51839SOL    HW157356   5.387  13.064  11.848
51839SOL    HW257357   5.300  12.944  11.877
51840SOL     OW57358   7.060   7.623  13.991
51840SOL    HW157359   7.043   7.634  13.897
51840SOL    HW257360   6.973   7.607  14.029
51841SOL     OW57361   8.806   0.286   7.659
51841SOL    HW157362   8.783   0.293   7.566
51841SOL    HW257363   8.736   0.334   7.704
51842SOL     OW57364  12.123  11.660  10.347
51842SOL    HW157365  12.218  11.644  10.342
51842SOL    HW257366  12.105  11.716  10.271
51843SOL     OW57367   1.294  13.917   8.386
51843SOL    HW157368   1.203  13.927   8.359
51843SOL    HW257369   1.313  13.998   8.435
51844SOL     OW57370  14.503   3.563   3.312
51844SOL    HW157371  14.585   3.514   3.306
51844SOL    HW257372  14.520   3.644   3.264
51845SOL     OW57373   1.275   3.619   8.697
51845SOL    HW157374   1.371   3.621   8.693
51845SOL    HW257375   1.253   3.679   8.769
51846SOL     OW57376  13.731   4.634   2.832
51846SOL    HW157377  13.669   4.602   2.766
51846SOL    HW257378  13.768   4.714   2.794
51847SOL     OW57379   8.170  14.878   3.006
51847SOL    HW157380   8.144  14.831   2.927
51847SOL    HW257381   8.090   0.005   3.057
51848SOL     OW57382   7.304   8.043   9.727
51848SOL    HW157383   7.212   8.066   9.730
51848SOL    HW257384   7.336   8.079   9.645
51849SOL     OW57385   4.331   3.913   2.380
51849SOL    HW157386   4.403   3.866   2.422
51849SOL    HW257387   4.308   3.982   2.443
51850SOL     OW57388   6.113  12.912   3.730
51850SOL    HW157389   6.203  12.880   3.742
51850SOL    HW257390   6.106  12.987   3.788
51851SOL     OW57391   9.727   2.390  11.052
51851SOL    HW157392   9.693   2.352  10.970
51851SOL    HW257393   9.729   2.484  11.036
51852SOL     OW57394   9.470   1.333   9.152
51852SOL    HW157395   9.486   1.394   9.223
51852SOL    HW257396   9.404   1.376   9.097
51853SOL     OW57397  10.559  11.012  12.379
51853SOL    HW157398  10.474  10.978  12.349
51853SOL    HW257399  10.587  10.950  12.446
51854SOL     OW57400   1.597   5.888  14.452
51854SOL    HW157401   1.547   5.833  14.513
51854SOL    HW257402   1.557   5.872  14.367
51855SOL     OW57403   5.562   6.426  12.520
51855SOL    HW157404   5.640   6.449  12.469
51855SOL    HW257405   5.597   6.381  12.597
51856SOL     OW57406   6.587   5.820   1.276
51856SOL    HW157407   6.630   5.760   1.216
51856SOL    HW257408   6.595   5.906   1.234
51857SOL     OW57409  13.732   8.884  13.919
51857SOL    HW157410  13.736   8.791  13.897
51857SOL    HW257411  13.814   8.920  13.885
51858SOL     OW57412  14.572   8.425   7.880
51858SOL    HW157413  14.667   8.420   7.870
51858SOL    HW257414  14.539   8.444   7.792
51859SOL     OW57415   5.693   3.545  12.704
51859SOL    HW157416   5.680   3.583  12.791
51859SOL    HW257417   5.611   3.559  12.659
51860SOL     OW57418   1.974   2.558   6.611
51860SOL    HW157419   1.939   2.482   6.657
51860SOL    HW257420   1.938   2.633   6.658
51861SOL     OW57421   2.904   7.064   9.808
51861SOL    HW157422   2.947   7.120   9.872
51861SOL    HW257423   2.837   7.120   9.768
51862SOL     OW57424  11.848   9.890   6.980
51862SOL    HW157425  11.852   9.884   6.884
51862SOL    HW257426  11.926   9.842   7.009
51863SOL     OW57427   0.544   9.819   9.493
51863SOL    HW157428   0.625   9.861   9.523
51863SOL    HW257429   0.574   9.743   9.443
51864SOL     OW57430   6.812   7.728   1.038
51864SOL    HW157431   6.903   7.754   1.022
51864SOL    HW257432   6.762   7.810   1.032
51865SOL     OW57433   0.641  11.740   8.622
51865SOL    HW157434   0.555  11.727   8.663
51865SOL    HW257435   0.703  11.706   8.687
51866SOL     OW57436   3.826   1.400   0.381
51866SOL    HW157437   3.774   1.321   0.394
51866SOL    HW257438   3.894   1.374   0.319
51867SOL     OW57439  12.500   0.892   4.786
51867SOL    HW157440  12.571   0.910   4.724
51867SOL    HW257441  12.525   0.809   4.828
51868SOL     OW57442   5.616   4.960  10.024
51868SOL    HW157443   5.569   5.001  10.097
51868SOL    HW257444   5.564   4.983   9.947
51869SOL     OW57445   6.479   4.095   0.996
51869SOL    HW157446   6.464   4.188   1.011
51869SOL    HW257447   6.562   4.091   0.950
51870SOL     OW57448   2.399  13.362   3.524
51870SOL    HW157449   2.444  13.411   3.593
51870SOL    HW257450   2.418  13.270   3.544
51871SOL     OW57451   6.882   5.683   5.635
51871SOL    HW157452   6.865   5.762   5.583
51871SOL    HW257453   6.851   5.611   5.580
51872SOL     OW57454   0.045   3.238   0.533
51872SOL    HW157455   0.052   3.288   0.452
51872SOL    HW257456  14.849   3.272   0.576
51873SOL     OW57457  10.231   5.582  14.631
51873SOL    HW157458  10.288   5.508  14.649
51873SOL    HW257459  10.290   5.656  14.616
51874SOL     OW57460  13.550   4.870   8.453
51874SOL    HW157461  13.605   4.916   8.390
51874SOL    HW257462  13.510   4.939   8.505
51875SOL     OW57463   3.318   0.652   0.633
51875SOL    HW157464   3.413   0.646   0.631
51875SOL    HW257465   3.288   0.562   0.649
51876SOL     OW57466  11.594   0.001   9.130
51876SOL    HW157467  11.685   0.007   9.102
51876SOL    HW257468  11.554   0.084   9.105
51877SOL     OW57469   0.353   7.238   6.621
51877SOL    HW157470   0.351   7.272   6.531
51877SOL    HW257471   0.409   7.161   6.615
51878SOL     OW57472   7.710  10.343   3.873
51878SOL    HW157473   7.774  10.414   3.872
51878SOL    HW257474   7.630  10.383   3.906
51879SOL     OW57475  12.333   6.363   4.700
51879SOL    HW157476  12.255   6.316   4.730
51879SOL    HW257477  12.311   6.393   4.611
51880SOL     OW57478  13.009   2.668   4.940
51880SOL    HW157479  13.089   2.627   4.974
51880SOL    HW257480  12.995   2.627   4.854
51881SOL     OW57481   8.388  14.804   7.336
51881SOL    HW157482   8.437   0.004   7.345
51881SOL    HW257483   8.308  14.828   7.290
51882SOL     OW57484  10.929   1.797  13.578
51882SOL    HW157485  10.997   1.756  13.525
51882SOL    HW257486  10.848   1.781  13.529
51883SOL     OW57487   5.057   5.781   8.585
51883SOL    HW157488   5.107   5.708   8.548
51883SOL    HW257489   5.097   5.796   8.671
51884SOL     OW57490   8.076  11.255   4.244
51884SOL    HW157491   8.100  11.334   4.293
51884SOL    HW257492   7.981  11.248   4.254
51885SOL     OW57493   6.497   0.054   4.018
51885SOL    HW157494   6.449   0.061   3.935
51885SOL    HW257495   6.464  14.856   4.058
51886SOL     OW57496  11.305   8.778  12.814
51886SOL    HW157497  11.260   8.763  12.897
51886SOL    HW257498  11.392   8.738  12.826
51887SOL     OW57499   7.477  14.518   6.207
51887SOL    HW157500   7.461  14.472   6.290
51887SOL    HW257501   7.505  14.449   6.147
51888SOL     OW57502   2.744   5.087   9.981
51888SOL    HW157503   2.771   5.060  10.068
51888SOL    HW257504   2.679   5.021   9.954
51889SOL     OW57505   2.965   8.955   7.426
51889SOL    HW157506   2.945   8.872   7.468
51889SOL    HW257507   2.901   9.016   7.462
51890SOL     OW57508   5.855   0.756   5.420
51890SOL    HW157509   5.884   0.666   5.407
51890SOL    HW257510   5.927   0.798   5.468
51891SOL     OW57511   9.817  14.589   0.308
51891SOL    HW157512   9.736  14.540   0.320
51891SOL    HW257513   9.882  14.542   0.360
51892SOL     OW57514   7.378   6.528   1.497
51892SOL    HW157515   7.314   6.478   1.549
51892SOL    HW257516   7.454   6.537   1.556
51893SOL     OW57517   2.423  13.982   3.577
51893SOL    HW157518   2.431  14.052   3.642
51893SOL    HW257519   2.488  14.002   3.511
51894SOL     OW57520   4.307   4.850  12.874
51894SOL    HW157521   4.319   4.866  12.780
51894SOL    HW257522   4.216   4.821  12.882
51895SOL     OW57523   4.394  10.263  11.375
51895SOL    HW157524   4.390  10.199  11.446
51895SOL    HW257525   4.308  10.306  11.376
51896SOL     OW57526   1.282   9.835   0.623
51896SOL    HW157527   1.216   9.843   0.692
51896SOL    HW257528   1.349   9.779   0.661
51897SOL     OW57529  11.558   9.106   6.629
51897SOL    HW157530  11.511   9.174   6.580
51897SOL    HW257531  11.569   9.035   6.566
51898SOL     OW57532   1.763   1.831   3.083
51898SOL    HW157533   1.734   1.851   2.994
51898SOL    HW257534   1.695   1.867   3.139
51899SOL     OW57535   8.954   5.890  11.380
51899SOL    HW157536   8.952   5.950  11.306
51899SOL    HW257537   8.867   5.849  11.380
51900SOL     OW57538  11.682   5.134   1.028
51900SOL    HW157539  11.703   5.206   0.969
51900SOL    HW257540  11.587   5.125   1.022
51901SOL     OW57541   8.418   3.836   6.243
51901SOL    HW157542   8.376   3.917   6.271
51901SOL    HW257543   8.357   3.799   6.179
51902SOL     OW57544  14.330   9.312   6.537
51902SOL    HW157545  14.308   9.282   6.449
51902SOL    HW257546  14.316   9.407   6.534
51903SOL     OW57547   4.519   8.236   6.094
51903SOL    HW157548   4.572   8.161   6.122
51903SOL    HW257549   4.460   8.200   6.027
51904SOL     OW57550   8.300   3.525   9.279
51904SOL    HW157551   8.391   3.548   9.297
51904SOL    HW257552   8.302   3.431   9.258
51905SOL     OW57553   2.896  10.580   7.058
51905SOL    HW157554   2.863  10.610   6.973
51905SOL    HW257555   2.827  10.603   7.120
51906SOL     OW57556  14.333  14.505   6.928
51906SOL    HW157557  14.291  14.589   6.909
51906SOL    HW257558  14.410  14.528   6.981
51907SOL     OW57559  10.845  12.642   1.757
51907SOL    HW157560  10.837  12.734   1.782
51907SOL    HW257561  10.802  12.638   1.671
51908SOL     OW57562   8.577   8.849   7.711
51908SOL    HW157563   8.511   8.916   7.732
51908SOL    HW257564   8.588   8.800   7.792
51909SOL     OW57565   4.976  13.183  14.172
51909SOL    HW157566   4.997  13.185  14.266
51909SOL    HW257567   4.926  13.263  14.158
51910SOL     OW57568  13.239  13.491  11.240
51910SOL    HW157569  13.243  13.572  11.189
51910SOL    HW257570  13.157  13.496  11.288
51911SOL     OW57571   5.106   9.077   8.527
51911SOL    HW157572   5.156   9.133   8.467
51911SOL    HW257573   5.036   9.134   8.559
51912SOL     OW57574   3.050   3.250   9.140
51912SOL    HW157575   3.080   3.326   9.089
51912SOL    HW257576   3.080   3.174   9.090
51913SOL     OW57577   0.334   9.478  12.721
51913SOL    HW157578   0.271   9.534  12.766
51913SOL    HW257579   0.344   9.517  12.635
51914SOL     OW57580   9.666   3.562  14.011
51914SOL    HW157581   9.749   3.588  14.052
51914SOL    HW257582   9.666   3.608  13.927
51915SOL     OW57583  11.442   2.217  11.575
51915SOL    HW157584  11.384   2.265  11.515
51915SOL    HW257585  11.390   2.142  11.603
51916SOL     OW57586   9.803   2.058   6.570
51916SOL    HW157587   9.854   2.076   6.649
51916SOL    HW257588   9.771   2.144   6.542
51917SOL     OW57589  10.640   3.674  14.649
51917SOL    HW157590  10.582   3.608  14.611
51917SOL    HW257591  10.658   3.642  14.737
51918SOL     OW57592  13.630   9.254   6.785
51918SOL    HW157593  13.723   9.238   6.796
51918SOL    HW257594  13.590   9.216   6.864
51919SOL     OW57595  11.347  14.748   2.424
51919SOL    HW157596  11.370  14.681   2.489
51919SOL    HW257597  11.417  14.743   2.358
51920SOL     OW57598   3.226   3.528   9.916
51920SOL    HW157599   3.154   3.538   9.978
51920SOL    HW257600   3.189   3.556   9.832
51921SOL     OW57601   3.508   5.090  14.666
51921SOL    HW157602   3.423   5.109  14.628
51921SOL    HW257603   3.517   4.995  14.659
51922SOL     OW57604  10.635  13.286   5.536
51922SOL    HW157605  10.682  13.343   5.476
51922SOL    HW257606  10.548  13.276   5.498
51923SOL     OW57607   5.475   2.478  14.652
51923SOL    HW157608   5.503   2.434  14.732
51923SOL    HW257609   5.392   2.520  14.675
51924SOL     OW57610   2.258   9.271   4.285
51924SOL    HW157611   2.175   9.283   4.330
51924SOL    HW257612   2.308   9.212   4.342
51925SOL     OW57613   1.720   7.501   4.567
51925SOL    HW157614   1.669   7.511   4.647
51925SOL    HW257615   1.801   7.549   4.585
51926SOL     OW57616  14.549  11.526  14.322
51926SOL    HW157617  14.572  11.567  14.239
51926SOL    HW257618  14.630  11.481  14.350
51927SOL     OW57619  10.514   5.448  10.856
51927SOL    HW157620  10.534   5.542  10.848
51927SOL    HW257621  10.477   5.439  10.944
51928SOL     OW57622   2.308   9.896  13.792
51928SOL    HW157623   2.226   9.889  13.841
51928SOL    HW257624   2.355   9.968  13.835
51929SOL     OW57625  14.488  12.450  14.552
51929SOL    HW157626  14.474  12.515  14.483
51929SOL    HW257627  14.402  12.437  14.591
51930SOL     OW57628  11.028  14.554  10.472
51930SOL    HW157629  11.059  14.639  10.501
51930SOL    HW257630  10.992  14.570  10.385
51931SOL     OW57631   7.623  11.292   0.195
51931SOL    HW157632   7.655  11.257   0.278
51931SOL    HW257633   7.584  11.217   0.150
51932SOL     OW57634   9.524   0.739   3.795
51932SOL    HW157635   9.618   0.754   3.788
51932SOL    HW257636   9.484   0.820   3.765
51933SOL     OW57637   8.480   8.153  10.098
51933SOL    HW157638   8.542   8.151  10.171
51933SOL    HW257639   8.448   8.244  10.096
51934SOL     OW57640   6.861  12.002   5.616
51934SOL    HW157641   6.944  11.956   5.604
51934SOL    HW257642   6.882  12.094   5.608
51935SOL     OW57643   5.021   5.165   2.731
51935SOL    HW157644   5.003   5.091   2.790
51935SOL    HW257645   5.112   5.152   2.704
51936SOL     OW57646  13.674   6.110  13.271
51936SOL    HW157647  13.744   6.173  13.250
51936SOL    HW257648  13.640   6.082  13.186
51937SOL     OW57649  10.666   7.004   7.412
51937SOL    HW157650  10.655   6.911   7.394
51937SOL    HW257651  10.696   7.042   7.329
51938SOL     OW57652  13.919   9.229   4.189
51938SOL    HW157653  13.942   9.322   4.182
51938SOL    HW257654  13.823   9.228   4.186
51939SOL     OW57655   9.872  11.578   1.756
51939SOL    HW157656   9.850  11.580   1.662
51939SOL    HW257657   9.922  11.659   1.770
51940SOL     OW57658   5.865   9.022   6.263
51940SOL    HW157659   5.779   9.029   6.304
51940SOL    HW257660   5.863   8.938   6.216
51941SOL     OW57661   5.041   2.510   3.662
51941SOL    HW157662   5.119   2.463   3.633
51941SOL    HW257663   4.969   2.470   3.612
51942SOL     OW57664   4.271   5.627   2.828
51942SOL    HW157665   4.304   5.618   2.917
51942SOL    HW257666   4.336   5.682   2.784
51943SOL     OW57667   1.411   7.205   9.985
51943SOL    HW157668   1.416   7.249   9.900
51943SOL    HW257669   1.331   7.153   9.981
51944SOL     OW57670   5.463   2.796  13.133
51944SOL    HW157671   5.468   2.850  13.054
51944SOL    HW257672   5.382   2.745  13.123
51945SOL     OW57673   9.982  10.678   1.848
51945SOL    HW157674   9.895  10.640   1.834
51945SOL    HW257675  10.040  10.623   1.794
51946SOL     OW57676   0.521   5.678   8.209
51946SOL    HW157677   0.529   5.707   8.118
51946SOL    HW257678   0.452   5.612   8.208
51947SOL     OW57679  12.641   9.041   6.708
51947SOL    HW157680  12.596   9.071   6.787
51947SOL    HW257681  12.624   9.109   6.643
51948SOL     OW57682   2.561   9.312  10.185
51948SOL    HW157683   2.634   9.353  10.232
51948SOL    HW257684   2.500   9.383  10.169
51949SOL     OW57685   4.109   2.881   6.482
51949SOL    HW157686   4.069   2.804   6.442
51949SOL    HW257687   4.203   2.870   6.467
51950SOL     OW57688   7.233   2.230  11.951
51950SOL    HW157689   7.167   2.298  11.952
51950SOL    HW257690   7.206   2.168  12.018
51951SOL     OW57691   3.492   3.636   2.496
51951SOL    HW157692   3.454   3.639   2.408
51951SOL    HW257693   3.583   3.612   2.482
51952SOL     OW57694   8.925  13.011  12.164
51952SOL    HW157695   8.848  12.963  12.192
51952SOL    HW257696   8.894  13.101  12.154
51953SOL     OW57697   3.838   0.904   2.775
51953SOL    HW157698   3.931   0.886   2.790
51953SOL    HW257699   3.807   0.826   2.730
51954SOL     OW57700   7.067  10.337   3.151
51954SOL    HW157701   7.008  10.315   3.223
51954SOL    HW257702   7.041  10.425   3.125
51955SOL     OW57703  12.205  14.860   9.306
51955SOL    HW157704  12.262  14.854   9.230
51955SOL    HW257705  12.187   0.072   9.315
51956SOL     OW57706   1.960   8.217   4.783
51956SOL    HW157707   1.947   8.158   4.858
51956SOL    HW257708   1.935   8.165   4.707
51957SOL     OW57709   9.633   9.414   2.618
51957SOL    HW157710   9.720   9.435   2.653
51957SOL    HW257711   9.604   9.495   2.576
51958SOL     OW57712  13.296   1.647   7.770
51958SOL    HW157713  13.333   1.670   7.684
51958SOL    HW257714  13.293   1.730   7.817
51959SOL     OW57715   5.809   2.887  12.823
51959SOL    HW157716   5.848   2.823  12.882
51959SOL    HW257717   5.866   2.887  12.746
51960SOL     OW57718   1.175   1.095   0.414
51960SOL    HW157719   1.105   1.109   0.350
51960SOL    HW257720   1.131   1.065   0.493
51961SOL     OW57721  10.660  14.083   3.569
51961SOL    HW157722  10.625  14.170   3.588
51961SOL    HW257723  10.748  14.100   3.533
51962SOL     OW57724   8.938   1.253   4.356
51962SOL    HW157725   8.977   1.284   4.274
51962SOL    HW257726   8.909   1.333   4.399
51963SOL     OW57727   5.311   9.151  12.687
51963SOL    HW157728   5.295   9.063  12.722
51963SOL    HW257729   5.358   9.196  12.758
51964SOL     OW57730  13.853   8.113   3.842
51964SOL    HW157731  13.820   8.025   3.858
51964SOL    HW257732  13.881   8.144   3.928
51965SOL     OW57733   1.759  14.609  14.619
51965SOL    HW157734   1.718  14.686  14.658
51965SOL    HW257735   1.823  14.644  14.557
51966SOL     OW57736  13.593  10.031   9.558
51966SOL    HW157737  13.524  10.030   9.625
51966SOL    HW257738  13.667  10.074   9.601
51967SOL     OW57739   4.149  14.875   1.925
51967SOL    HW157740   4.059  14.849   1.906
51967SOL    HW257741   4.143   0.082   1.960
51968SOL     OW57742   9.679   6.087   6.781
51968SOL    HW157743   9.612   6.132   6.832
51968SOL    HW257744   9.733   6.157   6.744
51969SOL     OW57745  11.945   0.368   0.689
51969SOL    HW157746  12.006   0.386   0.761
51969SOL    HW257747  11.970   0.429   0.620
51970SOL     OW57748   5.411   0.351   0.155
51970SOL    HW157749   5.485   0.334   0.097
51970SOL    HW257750   5.349   0.400   0.102
51971SOL     OW57751   2.715   6.287  11.937
51971SOL    HW157752   2.736   6.377  11.913
51971SOL    HW257753   2.630   6.293  11.980
51972SOL     OW57754   3.006   5.948  14.076
51972SOL    HW157755   2.969   5.861  14.093
51972SOL    HW257756   3.099   5.933  14.064
51973SOL     OW57757   4.942   3.340   3.740
51973SOL    HW157758   4.887   3.407   3.782
51973SOL    HW257759   4.959   3.276   3.808
51974SOL     OW57760   3.421   8.889  10.894
51974SOL    HW157761   3.502   8.874  10.944
51974SOL    HW257762   3.360   8.927  10.956
51975SOL     OW57763   9.347   1.339   7.110
51975SOL    HW157764   9.256   1.309   7.107
51975SOL    HW257765   9.376   1.321   7.199
51976SOL     OW57766   7.053   7.819   5.196
51976SOL    HW157767   7.129   7.861   5.157
51976SOL    HW257768   7.087   7.736   5.231
51977SOL     OW57769  12.040   2.776  11.175
51977SOL    HW157770  12.002   2.863  11.184
51977SOL    HW257771  12.081   2.777  11.088
51978SOL     OW57772  14.562  10.165   3.611
51978SOL    HW157773  14.606  10.117   3.682
51978SOL    HW257774  14.474  10.127   3.608
51979SOL     OW57775   9.830  10.849   3.369
51979SOL    HW157776   9.800  10.771   3.322
51979SOL    HW257777   9.896  10.816   3.430
51980SOL     OW57778   9.364  10.559   8.876
51980SOL    HW157779   9.418  10.512   8.812
51980SOL    HW257780   9.415  10.637   8.898
51981SOL     OW57781  11.177   3.290  13.937
51981SOL    HW157782  11.087   3.262  13.920
51981SOL    HW257783  11.182   3.298  14.032
51982SOL     OW57784   0.985   2.164  10.202
51982SOL    HW157785   0.943   2.249  10.212
51982SOL    HW257786   0.993   2.130  10.291
51983SOL     OW57787   5.562   5.614   9.214
51983SOL    HW157788   5.482   5.651   9.251
51983SOL    HW257789   5.558   5.635   9.121
51984SOL     OW57790  13.499   1.579  13.643
51984SOL    HW157791  13.493   1.548  13.553
51984SOL    HW257792  13.462   1.509  13.696
51985SOL     OW57793   0.644  13.280  13.375
51985SOL    HW157794   0.724  13.284  13.427
51985SOL    HW257795   0.671  13.239  13.292
51986SOL     OW57796  11.278   4.337   4.038
51986SOL    HW157797  11.236   4.279   3.975
51986SOL    HW257798  11.227   4.417   4.035
51987SOL     OW57799  13.845   5.591   3.144
51987SOL    HW157800  13.930   5.565   3.180
51987SOL    HW257801  13.781   5.541   3.195
51988SOL     OW57802   6.732   5.589  14.218
51988SOL    HW157803   6.778   5.631  14.290
51988SOL    HW257804   6.678   5.659  14.180
51989SOL     OW57805   0.861  11.302   8.177
51989SOL    HW157806   0.916  11.225   8.162
51989SOL    HW257807   0.798  11.274   8.244
51990SOL     OW57808   6.638  13.348   3.435
51990SOL    HW157809   6.561  13.379   3.388
51990SOL    HW257810   6.712  13.378   3.383
51991SOL     OW57811   5.846   8.827   8.491
51991SOL    HW157812   5.932   8.853   8.525
51991SOL    HW257813   5.866   8.767   8.419
51992SOL     OW57814   6.126   7.013   7.941
51992SOL    HW157815   6.123   6.919   7.924
51992SOL    HW257816   6.164   7.021   8.028
51993SOL     OW57817   1.965   1.195   1.075
51993SOL    HW157818   1.990   1.156   0.991
51993SOL    HW257819   2.016   1.277   1.078
51994SOL     OW57820   3.555  10.960   2.921
51994SOL    HW157821   3.537  10.913   3.002
51994SOL    HW257822   3.611  11.033   2.947
51995SOL     OW57823  13.405   3.641   5.519
51995SOL    HW157824  13.347   3.567   5.501
51995SOL    HW257825  13.367   3.681   5.597
51996SOL     OW57826   4.343   8.239   4.722
51996SOL    HW157827   4.421   8.232   4.778
51996SOL    HW257828   4.330   8.151   4.687
51997SOL     OW57829   4.551   5.288  14.597
51997SOL    HW157830   4.481   5.350  14.619
51997SOL    HW257831   4.616   5.341  14.551
51998SOL     OW57832   2.957   1.027   7.190
51998SOL    HW157833   2.975   1.012   7.283
51998SOL    HW257834   3.034   1.076   7.159
51999SOL     OW57835   5.041   7.905  13.201
51999SOL    HW157836   5.061   7.922  13.109
51999SOL    HW257837   5.125   7.881  13.240
52000SOL     OW57838   2.779  10.619   2.231
52000SOL    HW157839   2.830  10.700   2.240
52000SOL    HW257840   2.754  10.617   2.139
52001SOL     OW57841   0.429  10.481  13.741
52001SOL    HW157842   0.500  10.538  13.711
52001SOL    HW257843   0.374  10.538  13.794
52002SOL     OW57844   5.179   5.014   5.594
52002SOL    HW157845   5.263   4.997   5.551
52002SOL    HW257846   5.203   5.056   5.677
52003SOL     OW57847  11.030  12.348   8.281
52003SOL    HW157848  11.108  12.394   8.313
52003SOL    HW257849  11.066  12.271   8.236
52004SOL     OW57850   8.258   8.821   1.232
52004SOL    HW157851   8.295   8.734   1.244
52004SOL    HW257852   8.319   8.865   1.172
52005SOL     OW57853  13.977   6.369  10.304
52005SOL    HW157854  13.900   6.388  10.250
52005SOL    HW257855  13.940   6.350  10.391
52006SOL     OW57856   3.854  14.505   7.126
52006SOL    HW157857   3.820  14.568   7.189
52006SOL    HW257858   3.915  14.451   7.176
52007SOL     OW57859   5.993   1.602  10.106
52007SOL    HW157860   5.989   1.530  10.170
52007SOL    HW257861   6.052   1.571  10.038
52008SOL     OW57862   2.100  10.578   7.239
52008SOL    HW157863   2.093  10.600   7.146
52008SOL    HW257864   2.057  10.493   7.248
52009SOL     OW57865  13.519  13.695   5.816
52009SOL    HW157866  13.522  13.659   5.904
52009SOL    HW257867  13.609  13.720   5.796
52010SOL     OW57868   7.564   8.625   9.573
52010SOL    HW157869   7.564   8.703   9.518
52010SOL    HW257870   7.485   8.634   9.626
52011SOL     OW57871  13.352   2.501   7.994
52011SOL    HW157872  13.273   2.485   7.942
52011SOL    HW257873  13.331   2.466   8.081
52012SOL     OW57874   5.694  14.032   2.775
52012SOL    HW157875   5.747  14.110   2.756
52012SOL    HW257876   5.721  14.005   2.862
52013SOL     OW57877   0.731   1.641   4.197
52013SOL    HW157878   0.793   1.569   4.197
52013SOL    HW257879   0.749   1.689   4.116
52014SOL     OW57880   8.030  10.818  10.488
52014SOL    HW157881   8.030  10.909  10.459
52014SOL    HW257882   8.051  10.768  10.409
52015SOL     OW57883   8.710  14.326  13.186
52015SOL    HW157884   8.713  14.337  13.091
52015SOL    HW257885   8.619  14.303  13.204
52016SOL     OW57886  13.922  11.451   0.512
52016SOL    HW157887  13.990  11.478   0.573
52016SOL    HW257888  13.841  11.489   0.547
52017SOL     OW57889   8.970   4.224   6.404
52017SOL    HW157890   8.954   4.220   6.498
52017SOL    HW257891   8.959   4.133   6.374
52018SOL     OW57892   2.695   0.841  12.557
52018SOL    HW157893   2.606   0.829  12.523
52018SOL    HW257894   2.731   0.912  12.505
52019SOL     OW57895   4.629   5.753   5.643
52019SOL    HW157896   4.699   5.705   5.689
52019SOL    HW257897   4.637   5.843   5.675
52020SOL     OW57898  11.131  14.364   2.473
52020SOL    HW157899  11.178  14.360   2.390
52020SOL    HW257900  11.084  14.281   2.479
52021SOL     OW57901   0.711   6.799  14.179
52021SOL    HW157902   0.707   6.706  14.200
52021SOL    HW257903   0.653   6.809  14.104
52022SOL     OW57904   5.146   3.703   6.647
52022SOL    HW157905   5.093   3.743   6.716
52022SOL    HW257906   5.212   3.770   6.626
52023SOL     OW57907   0.498  12.367  11.975
52023SOL    HW157908   0.402  12.363  11.970
52023SOL    HW257909   0.515  12.424  12.050
52024SOL     OW57910   3.221   4.855   4.694
52024SOL    HW157911   3.235   4.925   4.630
52024SOL    HW257912   3.164   4.895   4.761
52025SOL     OW57913  14.817  13.428   6.087
52025SOL    HW157914  14.856  13.401   6.170
52025SOL    HW257915  14.764  13.353   6.061
52026SOL     OW57916   4.296   6.409  13.809
52026SOL    HW157917   4.251   6.474  13.863
52026SOL    HW257918   4.375   6.454  13.778
52027SOL     OW57919   9.882  14.137   1.833
52027SOL    HW157920   9.975  14.133   1.813
52027SOL    HW257921   9.838  14.132   1.748
52028SOL     OW57922  14.605  12.602   1.286
52028SOL    HW157923  14.546  12.539   1.328
52028SOL    HW257924  14.656  12.550   1.224
52029SOL     OW57925   4.589  11.911   4.015
52029SOL    HW157926   4.631  11.949   4.092
52029SOL    HW257927   4.495  11.920   4.032
52030SOL     OW57928   2.496  10.331   4.186
52030SOL    HW157929   2.458  10.396   4.246
52030SOL    HW257930   2.528  10.262   4.243
52031SOL     OW57931   6.705  11.737   3.471
52031SOL    HW157932   6.611  11.724   3.482
52031SOL    HW257933   6.744  11.651   3.488
52032SOL     OW57934  11.605   7.388  11.619
52032SOL    HW157935  11.665   7.382  11.694
52032SOL    HW257936  11.592   7.481  11.606
52033SOL     OW57937   1.703   8.333   0.458
52033SOL    HW157938   1.653   8.261   0.496
52033SOL    HW257939   1.785   8.293   0.430
52034SOL     OW57940   5.401   0.825   8.196
52034SOL    HW157941   5.497   0.829   8.201
52034SOL    HW257942   5.371   0.848   8.283
52035SOL     OW57943   8.334   2.654   1.706
52035SOL    HW157944   8.311   2.736   1.664
52035SOL    HW257945   8.327   2.672   1.800
52036SOL     OW57946  13.731  14.837   3.025
52036SOL    HW157947  13.793   0.017   2.985
52036SOL    HW257948  13.645  14.872   3.002
52037SOL     OW57949   3.448  12.147   1.336
52037SOL    HW157950   3.466  12.144   1.242
52037SOL    HW257951   3.485  12.230   1.365
52038SOL     OW57952   2.570   3.430   9.734
52038SOL    HW157953   2.645   3.443   9.676
52038SOL    HW257954   2.600   3.366   9.799
52039SOL     OW57955   9.857   9.317  12.542
52039SOL    HW157956   9.875   9.231  12.579
52039SOL    HW257957   9.930   9.372  12.571
52040SOL     OW57958   4.521   9.432   4.829
52040SOL    HW157959   4.461   9.464   4.761
52040SOL    HW257960   4.606   9.427   4.785
52041SOL     OW57961   1.519   4.837   9.506
52041SOL    HW157962   1.531   4.866   9.415
52041SOL    HW257963   1.441   4.781   9.502
52042SOL     OW57964   8.999   2.275   2.771
52042SOL    HW157965   8.972   2.364   2.793
52042SOL    HW257966   9.040   2.283   2.685
52043SOL     OW57967   0.390   5.836  12.544
52043SOL    HW157968   0.327   5.851  12.473
52043SOL    HW257969   0.348   5.772  12.601
52044SOL     OW57970   8.453   6.587   3.704
52044SOL    HW157971   8.379   6.532   3.678
52044SOL    HW257972   8.415   6.651   3.764
52045SOL     OW57973  12.997  11.714   4.379
52045SOL    HW157974  13.028  11.625   4.398
52045SOL    HW257975  13.035  11.735   4.294
52046SOL     OW57976  12.616  13.302  14.862
52046SOL    HW157977  12.535  13.312  14.812
52046SOL    HW257978  12.599  13.230   0.040
52047SOL     OW57979  13.336  13.444   2.275
52047SOL    HW157980  13.351  13.381   2.204
52047SOL    HW257981  13.377  13.405   2.352
52048SOL     OW57982   0.803   8.417   9.670
52048SOL    HW157983   0.748   8.418   9.748
52048SOL    HW257984   0.892   8.406   9.703
52049SOL     OW57985   3.671   3.258   9.342
52049SOL    HW157986   3.637   3.318   9.275
52049SOL    HW257987   3.761   3.286   9.357
52050SOL     OW57988   5.342   3.080  10.967
52050SOL    HW157989   5.291   3.112  10.892
52050SOL    HW257990   5.367   2.991  10.942
52051SOL     OW57991   2.550   6.153   8.294
52051SOL    HW157992   2.581   6.151   8.203
52051SOL    HW257993   2.531   6.062   8.315
52052SOL     OW57994   6.119   6.468   9.967
52052SOL    HW157995   6.117   6.388   9.914
52052SOL    HW257996   6.051   6.523   9.929
52053SOL     OW57997   7.266   8.388   0.843
52053SOL    HW157998   7.318   8.399   0.764
52053SOL    HW257999   7.329   8.356   0.908
52054SOL     OW58000   6.220   6.673   6.309
52054SOL    HW158001   6.294   6.726   6.280
52054SOL    HW258002   6.259   6.590   6.336
52055SOL     OW58003   3.918   6.620  10.435
52055SOL    HW158004   3.835   6.663  10.456
52055SOL    HW258005   3.980   6.655  10.498
52056SOL     OW58006  10.155   6.386  14.601
52056SOL    HW158007  10.164   6.301  14.644
52056SOL    HW258008  10.238   6.431  14.618
52057SOL     OW58009   0.149  12.321   1.097
52057SOL    HW158010   0.191  12.380   1.034
52057SOL    HW258011   0.211  12.249   1.107
52058SOL     OW58012  11.381  12.081  12.514
52058SOL    HW158013  11.294  12.042  12.509
52058SOL    HW258014  11.416  12.073  12.426
52059SOL     OW58015   4.400   5.760   5.831
52059SOL    HW158016   4.441   5.769   5.745
52059SOL    HW258017   4.358   5.845   5.846
52060SOL     OW58018   4.191  12.267   9.047
52060SOL    HW158019   4.115  12.209   9.052
52060SOL    HW258020   4.267  12.208   9.047
52061SOL     OW58021   3.951   1.682  11.450
52061SOL    HW158022   3.965   1.763  11.401
52061SOL    HW258023   3.910   1.623  11.386
52062SOL     OW58024   0.323   7.959   3.422
52062SOL    HW158025   0.248   8.005   3.382
52062SOL    HW258026   0.390   7.958   3.354
52063SOL     OW58027  13.395   4.170  11.158
52063SOL    HW158028  13.453   4.193  11.086
52063SOL    HW258029  13.307   4.189  11.126
52064SOL     OW58030   8.834   8.803   1.331
52064SOL    HW158031   8.900   8.798   1.399
52064SOL    HW258032   8.881   8.782   1.250
52065SOL     OW58033  11.571  10.040   3.587
52065SOL    HW158034  11.590  10.000   3.672
52065SOL    HW258035  11.656  10.069   3.555
52066SOL     OW58036   8.314   7.501   1.923
52066SOL    HW158037   8.381   7.460   1.977
52066SOL    HW258038   8.332   7.469   1.834
52067SOL     OW58039  13.016  11.045  11.220
52067SOL    HW158040  13.068  11.123  11.243
52067SOL    HW258041  13.075  10.971  11.236
52068SOL     OW58042   7.257   4.058  12.682
52068SOL    HW158043   7.248   4.134  12.624
52068SOL    HW258044   7.343   4.068  12.721
52069SOL     OW58045   3.176   6.458  12.614
52069SOL    HW158046   3.101   6.455  12.673
52069SOL    HW258047   3.226   6.535  12.644
52070SOL     OW58048   3.644   3.928  11.211
52070SOL    HW158049   3.692   3.946  11.131
52070SOL    HW258050   3.669   3.839  11.235
52071SOL     OW58051  11.941   4.020  14.853
52071SOL    HW158052  11.924   4.051  14.764
52071SOL    HW258053  12.036   4.028  14.864
52072SOL     OW58054  12.589   5.842   1.788
52072SOL    HW158055  12.585   5.849   1.883
52072SOL    HW258056  12.586   5.933   1.757
52073SOL     OW58057  11.384   7.953   5.077
52073SOL    HW158058  11.460   7.933   5.023
52073SOL    HW258059  11.326   7.878   5.066
52074SOL     OW58060  11.489  13.468   0.208
52074SOL    HW158061  11.573  13.461   0.163
52074SOL    HW258062  11.511  13.470   0.301
52075SOL     OW58063   1.637   0.153   3.396
52075SOL    HW158064   1.676   0.105   3.470
52075SOL    HW258065   1.709   0.162   3.333
52076SOL     OW58066   9.238  12.629   1.915
52076SOL    HW158067   9.290  12.690   1.967
52076SOL    HW258068   9.301  12.565   1.883
52077SOL     OW58069   3.099   5.013  12.321
52077SOL    HW158070   3.078   4.964  12.242
52077SOL    HW258071   3.013   5.034  12.359
52078SOL     OW58072  13.225  14.265   1.332
52078SOL    HW158073  13.242  14.182   1.376
52078SOL    HW258074  13.287  14.267   1.259
52079SOL     OW58075   5.110   6.958   0.238
52079SOL    HW158076   5.017   6.948   0.218
52079SOL    HW258077   5.112   6.991   0.328
52080SOL     OW58078  10.495   4.893  11.712
52080SOL    HW158079  10.581   4.916  11.746
52080SOL    HW258080  10.483   4.951  11.637
52081SOL     OW58081   4.424  12.994  10.500
52081SOL    HW158082   4.404  13.076  10.545
52081SOL    HW258083   4.439  13.020  10.409
52082SOL     OW58084   8.084  14.797   1.387
52082SOL    HW158085   8.142  14.841   1.450
52082SOL    HW258086   8.107  14.704   1.394
52083SOL     OW58087   2.930   0.163  14.030
52083SOL    HW158088   3.000   0.119  13.981
52083SOL    HW258089   2.956   0.256  14.030
52084SOL     OW58090   8.392   8.068   2.908
52084SOL    HW158091   8.366   8.121   2.833
52084SOL    HW258092   8.312   8.062   2.961
52085SOL     OW58093  10.135  13.550   7.910
52085SOL    HW158094  10.156  13.637   7.943
52085SOL    HW258095  10.167  13.490   7.978
52086SOL     OW58096   1.443   1.293   0.979
52086SOL    HW158097   1.443   1.229   1.050
52086SOL    HW258098   1.532   1.326   0.976
52087SOL     OW58099  12.034   2.847   4.616
52087SOL    HW158100  11.958   2.814   4.663
52087SOL    HW258101  12.001   2.921   4.565
52088SOL     OW58102   7.522  10.761   1.125
52088SOL    HW158103   7.512  10.847   1.165
52088SOL    HW258104   7.537  10.779   1.032
52089SOL     OW58105   0.541  11.667  13.335
52089SOL    HW158106   0.495  11.600  13.283
52089SOL    HW258107   0.507  11.750  13.303
52090SOL     OW58108   3.035   2.917  14.438
52090SOL    HW158109   2.956   2.898  14.388
52090SOL    HW258110   3.067   2.832  14.466
52091SOL     OW58111   1.984   8.558   4.184
52091SOL    HW158112   1.909   8.500   4.195
52091SOL    HW258113   1.950   8.645   4.203
52092SOL     OW58114   2.524   7.461   0.131
52092SOL    HW158115   2.490   7.422   0.212
52092SOL    HW258116   2.586   7.396   0.097
52093SOL     OW58117   8.660   5.327  13.876
52093SOL    HW158118   8.705   5.371  13.804
52093SOL    HW258119   8.569   5.357  13.870
52094SOL     OW58120   4.022   6.201   2.623
52094SOL    HW158121   3.995   6.229   2.535
52094SOL    HW258122   4.044   6.283   2.668
52095SOL     OW58123   7.408  10.878   1.421
52095SOL    HW158124   7.320  10.845   1.404
52095SOL    HW258125   7.419  10.950   1.359
52096SOL     OW58126  13.670   1.803  11.171
52096SOL    HW158127  13.590   1.850  11.148
52096SOL    HW258128  13.739   1.869  11.168
52097SOL     OW58129  11.871   0.318   4.802
52097SOL    HW158130  11.926   0.397   4.799
52097SOL    HW258131  11.837   0.309   4.713
52098SOL     OW58132   5.126   1.955   5.502
52098SOL    HW158133   5.038   1.955   5.464
52098SOL    HW258134   5.113   1.972   5.595
52099SOL     OW58135   0.615   1.041   4.396
52099SOL    HW158136   0.631   1.090   4.315
52099SOL    HW258137   0.520   1.035   4.402
52100SOL     OW58138   6.684   6.691  11.302
52100SOL    HW158139   6.633   6.676  11.223
52100SOL    HW258140   6.619   6.705  11.371
52101SOL     OW58141   8.796  11.041   8.481
52101SOL    HW158142   8.791  11.029   8.386
52101SOL    HW258143   8.765  10.958   8.517
52102SOL     OW58144   3.187  13.661   7.690
52102SOL    HW158145   3.261  13.699   7.737
52102SOL    HW258146   3.214  13.662   7.598
52103SOL     OW58147   3.539  13.101   9.497
52103SOL    HW158148   3.580  13.083   9.412
52103SOL    HW258149   3.596  13.057   9.561
52104SOL     OW58150  12.281   2.803  14.615
52104SOL    HW158151  12.200   2.755  14.630
52104SOL    HW258152  12.340   2.772  14.683
52105SOL     OW58153  10.023   0.177   1.087
52105SOL    HW158154   9.966   0.215   1.020
52105SOL    HW258155  10.047   0.251   1.143
52106SOL     OW58156   4.179   2.894   7.530
52106SOL    HW158157   4.150   2.930   7.446
52106SOL    HW258158   4.100   2.892   7.584
52107SOL     OW58159  10.223   0.896   0.191
52107SOL    HW158160  10.131   0.877   0.175
52107SOL    HW258161  10.232   0.990   0.177
52108SOL     OW58162   2.375   2.691   8.800
52108SOL    HW158163   2.317   2.763   8.776
52108SOL    HW258164   2.423   2.723   8.876
52109SOL     OW58165   5.707  11.828   1.073
52109SOL    HW158166   5.779  11.891   1.080
52109SOL    HW258167   5.664  11.851   0.990
52110SOL     OW58168  11.548   3.386   5.223
52110SOL    HW158169  11.616   3.338   5.177
52110SOL    HW258170  11.471   3.380   5.167
52111SOL     OW58171  13.978   6.413   8.641
52111SOL    HW158172  13.935   6.432   8.724
52111SOL    HW258173  13.911   6.432   8.575
52112SOL     OW58174   0.718   3.783   0.146
52112SOL    HW158175   0.631   3.779   0.106
52112SOL    HW258176   0.726   3.874   0.176
52113SOL     OW58177   1.052  12.111   6.960
52113SOL    HW158178   1.071  12.021   6.986
52113SOL    HW258179   0.965  12.107   6.921
52114SOL     OW58180  12.735   3.109   5.967
52114SOL    HW158181  12.702   3.197   5.986
52114SOL    HW258182  12.662   3.051   5.987
52115SOL     OW58183   6.642  11.898  13.326
52115SOL    HW158184   6.635  11.905  13.231
52115SOL    HW258185   6.596  11.818  13.348
52116SOL     OW58186   1.587   1.174  11.383
52116SOL    HW158187   1.606   1.084  11.409
52116SOL    HW258188   1.665   1.201  11.334
52117SOL     OW58189   0.047   9.624   4.163
52117SOL    HW158190   0.073   9.716   4.175
52117SOL    HW258191   0.002   9.601   4.244
52118SOL     OW58192   6.683   9.897  12.650
52118SOL    HW158193   6.625   9.838  12.699
52118SOL    HW258194   6.704   9.849  12.570
52119SOL     OW58195   2.473  11.472   4.694
52119SOL    HW158196   2.468  11.553   4.746
52119SOL    HW258197   2.517  11.498   4.613
52120SOL     OW58198   3.154   8.245  10.717
52120SOL    HW158199   3.144   8.327  10.669
52120SOL    HW258200   3.098   8.183  10.670
52121SOL     OW58201   0.212  10.205   2.122
52121SOL    HW158202   0.168  10.258   2.188
52121SOL    HW258203   0.301  10.238   2.120
52122SOL     OW58204   0.028  13.195   4.669
52122SOL    HW158205  14.880  13.258   4.735
52122SOL    HW258206   0.061  13.121   4.720
52123SOL     OW58207  13.322  11.519   1.740
52123SOL    HW158208  13.350  11.609   1.759
52123SOL    HW258209  13.284  11.488   1.822
52124SOL     OW58210   9.305   6.954  13.320
52124SOL    HW158211   9.357   6.898  13.378
52124SOL    HW258212   9.364   7.027  13.298
52125SOL     OW58213   3.542   8.265   5.168
52125SOL    HW158214   3.507   8.338   5.117
52125SOL    HW258215   3.530   8.292   5.259
52126SOL     OW58216   2.880   8.504   7.396
52126SOL    HW158217   2.891   8.409   7.399
52126SOL    HW258218   2.964   8.537   7.362
52127SOL     OW58219   4.566   2.207   5.150
52127SOL    HW158220   4.653   2.169   5.144
52127SOL    HW258221   4.579   2.300   5.134
52128SOL     OW58222   6.837  10.257  10.352
52128SOL    HW158223   6.920  10.209  10.358
52128SOL    HW258224   6.793  10.218  10.277
52129SOL     OW58225  12.549   1.317  11.499
52129SOL    HW158226  12.609   1.257  11.542
52129SOL    HW258227  12.462   1.291  11.531
52130SOL     OW58228   7.084  12.190   7.059
52130SOL    HW158229   7.169  12.235   7.058
52130SOL    HW258230   7.022  12.258   7.031
52131SOL     OW58231   8.459  14.205   5.010
52131SOL    HW158232   8.515  14.166   5.077
52131SOL    HW258233   8.508  14.282   4.980
52132SOL     OW58234   3.976   5.647   2.891
52132SOL    HW158235   4.062   5.671   2.856
52132SOL    HW258236   3.994   5.621   2.982
52133SOL     OW58237  12.788  13.300  13.801
52133SOL    HW158238  12.877  13.323  13.827
52133SOL    HW258239  12.744  13.384  13.790
52134SOL     OW58240  13.492   2.426   2.376
52134SOL    HW158241  13.582   2.458   2.384
52134SOL    HW258242  13.482   2.406   2.283
52135SOL     OW58243   9.152   5.805   3.933
52135SOL    HW158244   9.221   5.744   3.905
52135SOL    HW258245   9.113   5.836   3.851
52136SOL     OW58246   0.181  11.341   0.753
52136SOL    HW158247   0.219  11.305   0.673
52136SOL    HW258248   0.107  11.282   0.773
52137SOL     OW58249   0.889  11.327  11.745
52137SOL    HW158250   0.837  11.304  11.822
52137SOL    HW258251   0.980  11.315  11.773
52138SOL     OW58252   7.646   7.728   0.689
52138SOL    HW158253   7.699   7.654   0.718
52138SOL    HW258254   7.691   7.762   0.612
52139SOL     OW58255  10.367   6.968   4.932
52139SOL    HW158256  10.458   6.995   4.943
52139SOL    HW258257  10.367   6.920   4.849
52140SOL     OW58258   0.564   5.795   4.738
52140SOL    HW158259   0.562   5.710   4.695
52140SOL    HW258260   0.518   5.854   4.679
52141SOL     OW58261  11.735  10.937   6.983
52141SOL    HW158262  11.757  10.993   7.056
52141SOL    HW258263  11.818  10.920   6.938
52142SOL     OW58264   7.796   7.026   8.274
52142SOL    HW158265   7.734   6.980   8.332
52142SOL    HW258266   7.754   7.110   8.257
52143SOL     OW58267   7.781  10.968   6.004
52143SOL    HW158268   7.815  11.038   5.948
52143SOL    HW258269   7.689  10.992   6.019
52144SOL     OW58270   0.457   5.346   5.284
52144SOL    HW158271   0.532   5.393   5.248
52144SOL    HW258272   0.435   5.393   5.364
52145SOL     OW58273   4.868   4.617   8.827
52145SOL    HW158274   4.911   4.610   8.912
52145SOL    HW258275   4.780   4.650   8.847
52146SOL     OW58276  13.826   7.090  14.552
52146SOL    HW158277  13.769   7.033  14.603
52146SOL    HW258278  13.767   7.153  14.510
52147SOL     OW58279  13.125   7.046  10.570
52147SOL    HW158280  13.163   7.104  10.637
52147SOL    HW258281  13.153   6.958  10.596
52148SOL     OW58282   8.411   3.018   5.838
52148SOL    HW158283   8.372   3.031   5.751
52148SOL    HW258284   8.354   2.953   5.879
52149SOL     OW58285   1.401   1.095   1.159
52149SOL    HW158286   1.451   1.058   1.232
52149SOL    HW258287   1.350   1.021   1.127
52150SOL     OW58288   4.644   0.527   7.863
52150SOL    HW158289   4.633   0.564   7.951
52150SOL    HW258290   4.637   0.602   7.804
52151SOL     OW58291   7.883  11.311  13.901
52151SOL    HW158292   7.801  11.330  13.947
52151SOL    HW258293   7.918  11.233  13.945
52152SOL     OW58294  11.198   4.301  10.793
52152SOL    HW158295  11.210   4.348  10.711
52152SOL    HW258296  11.108   4.321  10.820
52153SOL     OW58297   4.554   8.044   7.887
52153SOL    HW158298   4.570   8.102   7.961
52153SOL    HW258299   4.635   7.996   7.876
52154SOL     OW58300   1.267   5.182   3.072
52154SOL    HW158301   1.222   5.190   2.988
52154SOL    HW258302   1.224   5.108   3.115
52155SOL     OW58303   2.846   2.169   6.643
52155SOL    HW158304   2.859   2.189   6.550
52155SOL    HW258305   2.914   2.218   6.688
52156SOL     OW58306  12.715  11.129  10.312
52156SOL    HW158307  12.633  11.091  10.281
52156SOL    HW258308  12.728  11.090  10.399
52157SOL     OW58309   2.808   7.603  12.578
52157SOL    HW158310   2.869   7.677  12.573
52157SOL    HW258311   2.858   7.529  12.542
52158SOL     OW58312   7.455  11.087  12.599
52158SOL    HW158313   7.530  11.029  12.585
52158SOL    HW258314   7.476  11.165  12.547
52159SOL     OW58315   5.249  14.007   2.866
52159SOL    HW158316   5.262  14.043   2.779
52159SOL    HW258317   5.323  14.041   2.917
52160SOL     OW58318   2.367   8.318   0.250
52160SOL    HW158319   2.365   8.313   0.154
52160SOL    HW258320   2.278   8.339   0.275
52161SOL     OW58321  13.642   8.020   2.577
52161SOL    HW158322  13.737   8.019   2.588
52161SOL    HW258323  13.620   8.112   2.562
52162SOL     OW58324  11.357   1.724   0.663
52162SOL    HW158325  11.377   1.682   0.747
52162SOL    HW258326  11.380   1.659   0.597
52163SOL     OW58327   8.310   9.942   7.161
52163SOL    HW158328   8.392   9.893   7.157
52163SOL    HW258329   8.300   9.980   7.074
52164SOL     OW58330   6.552   3.821   3.572
52164SOL    HW158331   6.466   3.824   3.614
52164SOL    HW258332   6.576   3.913   3.559
52165SOL     OW58333  12.518   4.159   4.261
52165SOL    HW158334  12.548   4.098   4.193
52165SOL    HW258335  12.591   4.219   4.274
52166SOL     OW58336   2.269  13.991   1.538
52166SOL    HW158337   2.273  14.060   1.604
52166SOL    HW258338   2.272  13.909   1.587
52167SOL     OW58339  14.347  10.579  11.551
52167SOL    HW158340  14.344  10.502  11.608
52167SOL    HW258341  14.397  10.550  11.474
52168SOL     OW58342  12.108  13.666   6.652
52168SOL    HW158343  12.045  13.598   6.631
52168SOL    HW258344  12.168  13.625   6.715
52169SOL     OW58345   8.123   5.691  14.870
52169SOL    HW158346   8.032   5.684   0.020
52169SOL    HW258347   8.128   5.778  14.831
52170SOL     OW58348   2.205   5.750  12.823
52170SOL    HW158349   2.214   5.783  12.733
52170SOL    HW258350   2.131   5.798  12.859
52171SOL     OW58351   8.815   8.477   6.817
52171SOL    HW158352   8.739   8.534   6.808
52171SOL    HW258353   8.784   8.392   6.786
52172SOL     OW58354   0.716  11.675   2.937
52172SOL    HW158355   0.787  11.638   2.884
52172SOL    HW258356   0.639  11.673   2.880
52173SOL     OW58357  12.633   1.434  13.296
52173SOL    HW158358  12.580   1.385  13.234
52173SOL    HW258359  12.716   1.386  13.300
52174SOL     OW58360   7.583   0.169  13.206
52174SOL    HW158361   7.581   0.149  13.300
52174SOL    HW258362   7.490   0.179  13.182
52175SOL     OW58363   7.211   4.392   4.769
52175SOL    HW158364   7.117   4.403   4.774
52175SOL    HW258365   7.228   4.310   4.815
52176SOL     OW58366   7.910   1.673  11.317
52176SOL    HW158367   7.957   1.601  11.275
52176SOL    HW258368   7.971   1.707  11.382
52177SOL     OW58369   2.276   3.454   1.212
52177SOL    HW158370   2.226   3.400   1.151
52177SOL    HW258371   2.357   3.475   1.165
52178SOL     OW58372   6.258  14.200   4.051
52178SOL    HW158373   6.247  14.186   4.145
52178SOL    HW258374   6.333  14.259   4.044
52179SOL     OW58375   3.049   0.585  11.808
52179SOL    HW158376   3.094   0.670  11.812
52179SOL    HW258377   2.959   0.604  11.835
52180SOL     OW58378   5.407   2.030   2.333
52180SOL    HW158379   5.349   2.103   2.310
52180SOL    HW258380   5.445   2.003   2.249
52181SOL     OW58381   9.282   7.975   5.988
52181SOL    HW158382   9.369   7.984   6.028
52181SOL    HW258383   9.299   7.948   5.898
52182SOL     OW58384  11.749   9.731  11.830
52182SOL    HW158385  11.709   9.657  11.784
52182SOL    HW258386  11.826   9.753  11.779
52183SOL     OW58387   8.616   3.677   0.741
52183SOL    HW158388   8.685   3.615   0.716
52183SOL    HW258389   8.624   3.748   0.677
52184SOL     OW58390   1.960   5.351   7.241
52184SOL    HW158391   1.991   5.261   7.231
52184SOL    HW258392   2.007   5.385   7.318
52185SOL     OW58393  10.062   9.360   7.141
52185SOL    HW158394  10.035   9.323   7.057
52185SOL    HW258395  10.157   9.347   7.143
52186SOL     OW58396   1.048  11.934   4.220
52186SOL    HW158397   0.997  11.917   4.141
52186SOL    HW258398   1.072  12.026   4.213
52187SOL     OW58399   3.102  12.178   1.589
52187SOL    HW158400   3.176  12.118   1.592
52187SOL    HW258401   3.033  12.129   1.543
52188SOL     OW58402   3.076   8.384   5.015
52188SOL    HW158403   3.000   8.437   5.038
52188SOL    HW258404   3.115   8.359   5.098
52189SOL     OW58405   7.897  12.500  12.501
52189SOL    HW158406   7.908  12.410  12.471
52189SOL    HW258407   7.917  12.497  12.595
52190SOL     OW58408   5.065   5.950  14.419
52190SOL    HW158409   5.146   5.999  14.434
52190SOL    HW258410   5.082   5.900  14.340
52191SOL     OW58411  13.725  11.770   3.990
52191SOL    HW158412  13.735  11.726   4.074
52191SOL    HW258413  13.761  11.708   3.926
52192SOL     OW58414   8.902  14.825   8.830
52192SOL    HW158415   8.924   0.031   8.800
52192SOL    HW258416   8.833  14.796   8.771
52193SOL     OW58417  12.810   0.794   1.875
52193SOL    HW158418  12.770   0.869   1.919
52193SOL    HW258419  12.904   0.808   1.887
52194SOL     OW58420   7.662  12.842   6.230
52194SOL    HW158421   7.661  12.913   6.294
52194SOL    HW258422   7.696  12.882   6.150
52195SOL     OW58423  10.883   4.867  12.447
52195SOL    HW158424  10.918   4.927  12.512
52195SOL    HW258425  10.808   4.825  12.489
52196SOL     OW58426   4.351  12.927   9.107
52196SOL    HW158427   4.349  12.852   9.048
52196SOL    HW258428   4.341  13.003   9.049
52197SOL     OW58429  10.699   6.442  13.978
52197SOL    HW158430  10.779   6.438  13.925
52197SOL    HW258431  10.727   6.411  14.064
52198SOL     OW58432  11.953  13.089  13.042
52198SOL    HW158433  11.889  13.093  12.971
52198SOL    HW258434  12.028  13.138  13.008
52199SOL     OW58435  12.056  11.867  10.980
52199SOL    HW158436  12.134  11.920  10.972
52199SOL    HW258437  11.983  11.927  10.964
52200SOL     OW58438   0.771  12.497   9.272
52200SOL    HW158439   0.834  12.561   9.306
52200SOL    HW258440   0.820  12.450   9.204
52201SOL     OW58441   2.824  11.063   4.729
52201SOL    HW158442   2.738  11.090   4.761
52201SOL    HW258443   2.885  11.125   4.769
52202SOL     OW58444   8.863  12.928  14.213
52202SOL    HW158445   8.870  12.833  14.224
52202SOL    HW258446   8.952  12.960  14.224
52203SOL     OW58447   0.864  10.887   7.024
52203SOL    HW158448   0.797  10.929   7.077
52203SOL    HW258449   0.829  10.890   6.935
52204SOL     OW58450   7.688   3.846   0.431
52204SOL    HW158451   7.648   3.911   0.490
52204SOL    HW258452   7.619   3.824   0.369
52205SOL     OW58453  10.042   9.672   4.811
52205SOL    HW158454  10.110   9.605   4.824
52205SOL    HW258455  10.090   9.755   4.815
52206SOL     OW58456  14.242   1.197  12.538
52206SOL    HW158457  14.247   1.219  12.631
52206SOL    HW258458  14.322   1.234  12.500
52207SOL     OW58459   2.716  14.842   1.285
52207SOL    HW158460   2.670  14.826   1.367
52207SOL    HW258461   2.754   0.048   1.296
52208SOL     OW58462  14.528   8.161   7.971
52208SOL    HW158463  14.446   8.172   8.020
52208SOL    HW258464  14.556   8.250   7.952
52209SOL     OW58465  14.105   7.277   9.779
52209SOL    HW158466  14.029   7.231   9.814
52209SOL    HW258467  14.161   7.293   9.855
52210SOL     OW58468  14.047  10.472   3.035
52210SOL    HW158469  14.124  10.527   3.045
52210SOL    HW258470  14.002  10.478   3.119
52211SOL     OW58471   9.872   3.596  12.576
52211SOL    HW158472   9.829   3.680  12.564
52211SOL    HW258473   9.853   3.572  12.667
52212SOL     OW58474   9.225  10.552   9.880
52212SOL    HW158475   9.296  10.604   9.919
52212SOL    HW258476   9.269  10.494   9.818
52213SOL     OW58477  13.746   7.672  10.650
52213SOL    HW158478  13.837   7.673  10.681
52213SOL    HW258479  13.702   7.737  10.705
52214SOL     OW58480  12.693   0.795   8.803
52214SOL    HW158481  12.646   0.719   8.770
52214SOL    HW258482  12.779   0.790   8.761
52215SOL     OW58483   0.020   4.224   8.975
52215SOL    HW158484  14.864   4.136   8.980
52215SOL    HW258485  14.831   4.283   8.998
52216SOL     OW58486  10.201   7.356  14.265
52216SOL    HW158487  10.204   7.451  14.276
52216SOL    HW258488  10.293   7.329  14.261
52217SOL     OW58489  12.562  14.843   7.830
52217SOL    HW158490  12.552  14.791   7.750
52217SOL    HW258491  12.559   0.052   7.800
52218SOL     OW58492   4.702  11.301   3.954
52218SOL    HW158493   4.691  11.217   3.998
52218SOL    HW258494   4.788  11.296   3.913
52219SOL     OW58495   4.141   3.142  13.828
52219SOL    HW158496   4.191   3.068  13.864
52219SOL    HW258497   4.141   3.128  13.734
52220SOL     OW58498   7.503   7.571   6.282
52220SOL    HW158499   7.408   7.578   6.290
52220SOL    HW258500   7.519   7.476   6.279
52221SOL     OW58501   4.211   7.040   1.848
52221SOL    HW158502   4.217   7.133   1.827
52221SOL    HW258503   4.188   7.038   1.941
52222SOL     OW58504   0.690   7.929  12.724
52222SOL    HW158505   0.781   7.901  12.725
52222SOL    HW258506   0.680   7.980  12.804
52223SOL     OW58507  12.005   1.348  11.477
52223SOL    HW158508  11.939   1.384  11.535
52223SOL    HW258509  11.960   1.277  11.431
52224SOL     OW58510   5.578   3.298   7.336
52224SOL    HW158511   5.494   3.256   7.317
52224SOL    HW258512   5.571   3.384   7.295
52225SOL     OW58513   7.292   7.072   2.429
52225SOL    HW158514   7.205   7.112   2.420
52225SOL    HW258515   7.273   6.981   2.454
52226SOL     OW58516   8.039   1.897  14.716
52226SOL    HW158517   8.123   1.881  14.758
52226SOL    HW258518   8.058   1.897  14.622
52227SOL     OW58519  10.667   1.167   8.601
52227SOL    HW158520  10.602   1.237   8.601
52227SOL    HW258521  10.743   1.205   8.557
52228SOL     OW58522   3.686   9.947   8.364
52228SOL    HW158523   3.709   9.947   8.271
52228SOL    HW258524   3.657   9.857   8.381
52229SOL     OW58525   9.642   0.874   7.418
52229SOL    HW158526   9.664   0.783   7.436
52229SOL    HW258527   9.614   0.909   7.503
52230SOL     OW58528   4.040   6.464  10.262
52230SOL    HW158529   3.965   6.414  10.229
52230SOL    HW258530   4.002   6.521  10.329
52231SOL     OW58531   2.261   9.648  11.307
52231SOL    HW158532   2.329   9.599  11.355
52231SOL    HW258533   2.243   9.595  11.230
52232SOL     OW58534  11.013   2.126   0.465
52232SOL    HW158535  11.005   2.069   0.541
52232SOL    HW258536  10.923   2.155   0.447
52233SOL     OW58537   5.044   6.086  11.414
52233SOL    HW158538   5.020   6.057  11.326
52233SOL    HW258539   4.997   6.168  11.426
52234SOL     OW58540   2.723   2.102   3.745
52234SOL    HW158541   2.814   2.092   3.773
52234SOL    HW258542   2.728   2.119   3.651
52235SOL     OW58543   1.903   4.598   7.858
52235SOL    HW158544   1.952   4.516   7.843
52235SOL    HW258545   1.870   4.622   7.771
52236SOL     OW58546   5.654   5.330   1.326
52236SOL    HW158547   5.563   5.358   1.335
52236SOL    HW258548   5.683   5.312   1.415
52237SOL     OW58549   1.629   4.260   7.594
52237SOL    HW158550   1.674   4.340   7.568
52237SOL    HW258551   1.682   4.189   7.558
52238SOL     OW58552  11.468  10.210   2.219
52238SOL    HW158553  11.494  10.211   2.312
52238SOL    HW258554  11.378  10.176   2.220
52239SOL     OW58555  11.198   5.772   9.100
52239SOL    HW158556  11.154   5.838   9.153
52239SOL    HW258557  11.142   5.695   9.105
52240SOL     OW58558   5.649   4.379  11.489
52240SOL    HW158559   5.613   4.318  11.553
52240SOL    HW258560   5.627   4.465  11.523
52241SOL     OW58561   9.825  11.882   8.916
52241SOL    HW158562   9.731  11.861   8.911
52241SOL    HW258563   9.857  11.872   8.827
52242SOL     OW58564   4.560   9.968   5.802
52242SOL    HW158565   4.564   9.977   5.897
52242SOL    HW258566   4.470   9.992   5.780
52243SOL     OW58567  13.808  12.365   1.243
52243SOL    HW158568  13.833  12.354   1.335
52243SOL    HW258569  13.890  12.353   1.194
52244SOL     OW58570   5.125  12.609   3.702
52244SOL    HW158571   5.052  12.586   3.645
52244SOL    HW258572   5.187  12.536   3.692
52245SOL     OW58573   4.567   5.118   5.151
52245SOL    HW158574   4.503   5.174   5.106
52245SOL    HW258575   4.520   5.086   5.228
52246SOL     OW58576   8.075   7.154   3.961
52246SOL    HW158577   8.050   7.216   3.894
52246SOL    HW258578   8.068   7.203   4.043
52247SOL     OW58579   0.362  13.941   2.451
52247SOL    HW158580   0.373  13.885   2.374
52247SOL    HW258581   0.445  13.988   2.458
52248SOL     OW58582   1.650  10.118   0.464
52248SOL    HW158583   1.587  10.087   0.400
52248SOL    HW258584   1.642  10.057   0.538
52249SOL     OW58585   5.183  10.574  10.131
52249SOL    HW158586   5.163  10.585  10.224
52249SOL    HW258587   5.118  10.630  10.086
52250SOL     OW58588  14.223  12.315  14.027
52250SOL    HW158589  14.259  12.291  13.941
52250SOL    HW258590  14.139  12.269  14.031
52251SOL     OW58591  10.902   1.836   2.931
52251SOL    HW158592  10.892   1.828   2.836
52251SOL    HW258593  10.888   1.929   2.949
52252SOL     OW58594  14.056   6.031   2.550
52252SOL    HW158595  14.147   6.031   2.519
52252SOL    HW258596  14.005   6.006   2.474
52253SOL     OW58597   5.517   2.685   3.377
52253SOL    HW158598   5.458   2.737   3.433
52253SOL    HW258599   5.485   2.596   3.386
52254SOL     OW58600  14.472   5.545   1.865
52254SOL    HW158601  14.414   5.563   1.939
52254SOL    HW258602  14.414   5.508   1.798
52255SOL     OW58603   1.035   2.254   0.361
52255SOL    HW158604   1.121   2.225   0.329
52255SOL    HW258605   1.017   2.198   0.436
52256SOL     OW58606   6.696   4.009   2.882
52256SOL    HW158607   6.696   3.990   2.976
52256SOL    HW258608   6.606   3.993   2.854
52257SOL     OW58609   5.154   1.506   1.636
52257SOL    HW158610   5.205   1.587   1.632
52257SOL    HW258611   5.212   1.439   1.601
52258SOL     OW58612  13.939   6.321  10.570
52258SOL    HW158613  13.942   6.231  10.601
52258SOL    HW258614  13.959   6.374  10.648
52259SOL     OW58615  12.712  14.265  14.001
52259SOL    HW158616  12.638  14.280  13.942
52259SOL    HW258617  12.674  14.265  14.088
52260SOL     OW58618   5.592  10.325  10.292
52260SOL    HW158619   5.540  10.302  10.215
52260SOL    HW258620   5.528  10.346  10.360
52261SOL     OW58621  11.092   8.916   0.491
52261SOL    HW158622  11.056   8.956   0.570
52261SOL    HW258623  11.185   8.941   0.492
52262SOL     OW58624   5.554   4.791   9.486
52262SOL    HW158625   5.466   4.753   9.478
52262SOL    HW258626   5.614   4.719   9.467
52263SOL     OW58627   4.782   1.997   9.160
52263SOL    HW158628   4.824   1.990   9.246
52263SOL    HW258629   4.847   2.043   9.106
52264SOL     OW58630   2.613   2.838  11.369
52264SOL    HW158631   2.604   2.761  11.425
52264SOL    HW258632   2.587   2.912  11.424
52265SOL     OW58633  14.132  11.746   7.685
52265SOL    HW158634  14.204  11.742   7.748
52265SOL    HW258635  14.061  11.788   7.732
52266SOL     OW58636   7.465   0.770  13.308
52266SOL    HW158637   7.394   0.756  13.245
52266SOL    HW258638   7.439   0.719  13.384
52267SOL     OW58639  13.779   4.704   5.003
52267SOL    HW158640  13.757   4.674   5.091
52267SOL    HW258641  13.746   4.636   4.945
52268SOL     OW58642   5.335  12.041   8.514
52268SOL    HW158643   5.363  12.065   8.603
52268SOL    HW258644   5.297  11.954   8.523
52269SOL     OW58645   6.042   0.771   2.803
52269SOL    HW158646   6.059   0.819   2.884
52269SOL    HW258647   5.962   0.811   2.769
52270SOL     OW58648   0.733  13.747   8.877
52270SOL    HW158649   0.818  13.730   8.917
52270SOL    HW258650   0.748  13.731   8.783
52271SOL     OW58651  13.644  12.248   4.881
52271SOL    HW158652  13.553  12.275   4.896
52271SOL    HW258653  13.647  12.157   4.912
52272SOL     OW58654   8.965  13.461   6.746
52272SOL    HW158655   8.927  13.396   6.687
52272SOL    HW258656   8.993  13.410   6.823
52273SOL     OW58657   4.118  11.417   2.228
52273SOL    HW158658   4.032  11.376   2.216
52273SOL    HW258659   4.126  11.477   2.153
52274SOL     OW58660   8.176  13.771   4.599
52274SOL    HW158661   8.237  13.845   4.594
52274SOL    HW258662   8.232  13.696   4.619
52275SOL     OW58663   4.916  10.099   6.966
52275SOL    HW158664   4.946  10.180   7.006
52275SOL    HW258665   4.985  10.076   6.904
52276SOL     OW58666   9.620   2.611  14.296
52276SOL    HW158667   9.592   2.695  14.332
52276SOL    HW258668   9.715   2.608  14.313
52277SOL     OW58669   6.774  13.893   0.534
52277SOL    HW158670   6.695  13.889   0.588
52277SOL    HW258671   6.842  13.851   0.587
52278SOL     OW58672  10.286  10.735  10.892
52278SOL    HW158673  10.324  10.697  10.813
52278SOL    HW258674  10.222  10.669  10.921
52279SOL     OW58675  14.175  12.906   8.539
52279SOL    HW158676  14.228  12.947   8.607
52279SOL    HW258677  14.230  12.836   8.504
52280SOL     OW58678   6.789   8.775   1.443
52280SOL    HW158679   6.799   8.773   1.539
52280SOL    HW258680   6.725   8.707   1.425
52281SOL     OW58681   4.937   7.473  10.089
52281SOL    HW158682   4.894   7.536  10.146
52281SOL    HW258683   5.028   7.472  10.118
52282SOL     OW58684   9.044   8.610   6.794
52282SOL    HW158685   9.112   8.543   6.798
52282SOL    HW258686   8.964   8.560   6.775
52283SOL     OW58687   2.976  14.594   6.622
52283SOL    HW158688   3.030  14.624   6.549
52283SOL    HW258689   3.038  14.557   6.685
52284SOL     OW58690   5.003  10.823   7.478
52284SOL    HW158691   4.971  10.827   7.388
52284SOL    HW258692   5.055  10.743   7.482
52285SOL     OW58693   9.805  14.781  14.136
52285SOL    HW158694   9.876  14.758  14.197
52285SOL    HW258695   9.781  14.870  14.160
52286SOL     OW58696  11.797  14.491   6.698
52286SOL    HW158697  11.724  14.529   6.746
52286SOL    HW258698  11.862  14.470   6.765
52287SOL     OW58699   2.204  13.672   3.821
52287SOL    HW158700   2.197  13.580   3.846
52287SOL    HW258701   2.269  13.673   3.751
52288SOL     OW58702   4.088  12.723  14.571
52288SOL    HW158703   4.071  12.735  14.477
52288SOL    HW258704   4.045  12.798  14.613
52289SOL     OW58705   7.369   5.615  10.773
52289SOL    HW158706   7.396   5.544  10.830
52289SOL    HW258707   7.274   5.612  10.774
52290SOL     OW58708   1.128  11.147   7.504
52290SOL    HW158709   1.086  11.096   7.435
52290SOL    HW258710   1.137  11.085   7.577
52291SOL     OW58711   8.570  11.883   7.007
52291SOL    HW158712   8.579  11.886   7.102
52291SOL    HW258713   8.545  11.972   6.982
52292SOL     OW58714  11.228  12.302  11.637
52292SOL    HW158715  11.138  12.268  11.644
52292SOL    HW258716  11.267  12.281  11.722
52293SOL     OW58717  13.842   4.959   1.848
52293SOL    HW158718  13.841   5.032   1.909
52293SOL    HW258719  13.824   4.999   1.763
52294SOL     OW58720  13.938   5.051  13.499
52294SOL    HW158721  13.916   5.110  13.428
52294SOL    HW258722  13.870   5.066  13.565
52295SOL     OW58723   5.458  14.239  10.514
52295SOL    HW158724   5.378  14.289  10.499
52295SOL    HW258725   5.456  14.169  10.448
52296SOL     OW58726   0.053   2.235   0.502
52296SOL    HW158727   0.108   2.303   0.462
52296SOL    HW258728   0.011   2.191   0.428
52297SOL     OW58729   7.241   1.861  11.312
52297SOL    HW158730   7.172   1.794  11.307
52297SOL    HW258731   7.209   1.923  11.377
52298SOL     OW58732  11.915   9.824   6.678
52298SOL    HW158733  11.829   9.865   6.672
52298SOL    HW258734  11.929   9.784   6.593
52299SOL     OW58735  14.074  12.865   7.209
52299SOL    HW158736  14.126  12.903   7.138
52299SOL    HW258737  14.032  12.788   7.170
52300SOL     OW58738   6.501  14.353   6.073
52300SOL    HW158739   6.537  14.342   6.161
52300SOL    HW258740   6.431  14.287   6.068
52301SOL     OW58741   0.080   1.601   7.252
52301SOL    HW158742   0.045   1.643   7.330
52301SOL    HW258743   0.147   1.661   7.220
52302SOL     OW58744  12.851   7.065   9.511
52302SOL    HW158745  12.856   7.050   9.606
52302SOL    HW258746  12.777   7.125   9.501
52303SOL     OW58747   0.327  10.779   9.033
52303SOL    HW158748   0.421  10.774   9.016
52303SOL    HW258749   0.293  10.832   8.961
52304SOL     OW58750   6.227   5.735   3.975
52304SOL    HW158751   6.202   5.818   3.934
52304SOL    HW258752   6.160   5.721   4.042
52305SOL     OW58753  13.675  12.425   0.728
52305SOL    HW158754  13.605  12.488   0.711
52305SOL    HW258755  13.752  12.479   0.749
52306SOL     OW58756   9.447  11.334   3.254
52306SOL    HW158757   9.422  11.293   3.171
52306SOL    HW258758   9.380  11.305   3.316
52307SOL     OW58759  13.582   9.691   5.574
52307SOL    HW158760  13.647   9.741   5.524
52307SOL    HW258761  13.501   9.742   5.566
52308SOL     OW58762   9.779   8.711   7.880
52308SOL    HW158763   9.712   8.766   7.921
52308SOL    HW258764   9.795   8.642   7.943
52309SOL     OW58765  11.575   7.177   5.435
52309SOL    HW158766  11.560   7.271   5.440
52309SOL    HW258767  11.626   7.156   5.513
52310SOL     OW58768   1.103   4.142  12.688
52310SOL    HW158769   1.040   4.205  12.655
52310SOL    HW258770   1.092   4.065  12.631
52311SOL     OW58771   5.156   8.896  10.102
52311SOL    HW158772   5.064   8.925  10.103
52311SOL    HW258773   5.183   8.901  10.193
52312SOL     OW58774   3.323  10.117   8.212
52312SOL    HW158775   3.234  10.151   8.225
52312SOL    HW258776   3.348  10.082   8.297
52313SOL     OW58777   8.947   9.352  14.627
52313SOL    HW158778   8.959   9.385  14.716
52313SOL    HW258779   8.877   9.407  14.590
52314SOL     OW58780   3.964   6.547  14.123
52314SOL    HW158781   3.885   6.496  14.105
52314SOL    HW258782   3.943   6.596  14.203
52315SOL     OW58783  12.423   5.158   8.873
52315SOL    HW158784  12.442   5.238   8.824
52315SOL    HW258785  12.439   5.087   8.811
52316SOL     OW58786   7.146  14.773   9.996
52316SOL    HW158787   7.189  14.791   9.913
52316SOL    HW258788   7.218  14.757  10.058
52317SOL     OW58789   5.791  12.270   9.042
52317SOL    HW158790   5.815  12.290   8.951
52317SOL    HW258791   5.781  12.356   9.083
52318SOL     OW58792   4.575   6.812   0.819
52318SOL    HW158793   4.515   6.800   0.893
52318SOL    HW258794   4.517   6.815   0.743
52319SOL     OW58795  14.113   7.225  13.665
52319SOL    HW158796  14.118   7.315  13.632
52319SOL    HW258797  14.022   7.214  13.691
52320SOL     OW58798   0.377   6.653   9.257
52320SOL    HW158799   0.336   6.694   9.334
52320SOL    HW258800   0.326   6.574   9.241
52321SOL     OW58801   7.597   1.892  14.832
52321SOL    HW158802   7.511   1.859  14.857
52321SOL    HW258803   7.606   1.974  14.879
52322SOL     OW58804   7.689   1.819  12.016
52322SOL    HW158805   7.735   1.757  12.072
52322SOL    HW258806   7.654   1.765  11.945
52323SOL     OW58807   8.047   1.587  11.621
52323SOL    HW158808   8.098   1.508  11.640
52323SOL    HW258809   7.958   1.567  11.649
52324SOL     OW58810   6.807  11.726   5.532
52324SOL    HW158811   6.769  11.808   5.564
52324SOL    HW258812   6.901  11.736   5.548
52325SOL     OW58813  14.768   9.817   0.173
52325SOL    HW158814  14.753   9.732   0.133
52325SOL    HW258815  14.806   9.797   0.259
52326SOL     OW58816   4.122   9.570   6.521
52326SOL    HW158817   4.116   9.503   6.452
52326SOL    HW258818   4.126   9.520   6.602
52327SOL     OW58819   9.776   7.451  10.796
52327SOL    HW158820   9.741   7.495  10.874
52327SOL    HW258821   9.866   7.428  10.821
52328SOL     OW58822   9.534   4.465   7.423
52328SOL    HW158823   9.609   4.516   7.394
52328SOL    HW258824   9.531   4.478   7.518
52329SOL     OW58825   9.928   6.203  11.899
52329SOL    HW158826   9.865   6.180  11.967
52329SOL    HW258827   9.879   6.257  11.838
52330SOL     OW58828   3.032   8.012   0.208
52330SOL    HW158829   2.977   7.952   0.158
52330SOL    HW258830   3.100   8.039   0.146
52331SOL     OW58831  11.122  11.878  12.536
52331SOL    HW158832  11.120  11.820  12.461
52331SOL    HW258833  11.201  11.853  12.584
52332SOL     OW58834   6.003   9.414   2.139
52332SOL    HW158835   5.986   9.395   2.047
52332SOL    HW258836   5.919   9.442   2.174
52333SOL     OW58837  14.451   7.835   0.623
52333SOL    HW158838  14.499   7.771   0.571
52333SOL    HW258839  14.417   7.897   0.559
52334SOL     OW58840   8.809   7.999   0.868
52334SOL    HW158841   8.737   7.991   0.807
52334SOL    HW258842   8.839   8.090   0.858
52335SOL     OW58843   1.688  14.666   9.307
52335SOL    HW158844   1.698  14.594   9.245
52335SOL    HW258845   1.750  14.732   9.278
52336SOL     OW58846   0.565   0.718   1.266
52336SOL    HW158847   0.609   0.726   1.182
52336SOL    HW258848   0.622   0.661   1.318
52337SOL     OW58849   9.035   4.893   3.444
52337SOL    HW158850   8.980   4.914   3.369
52337SOL    HW258851   9.124   4.911   3.415
52338SOL     OW58852   4.197  12.038   7.252
52338SOL    HW158853   4.212  11.949   7.284
52338SOL    HW258854   4.280  12.083   7.270
52339SOL     OW58855  13.591  14.747   5.806
52339SOL    HW158856  13.629  14.835   5.810
52339SOL    HW258857  13.561  14.737   5.716
52340SOL     OW58858   1.694   6.692   0.777
52340SOL    HW158859   1.624   6.700   0.711
52340SOL    HW258860   1.755   6.629   0.738
52341SOL     OW58861   5.489  10.710   6.771
52341SOL    HW158862   5.428  10.772   6.731
52341SOL    HW258863   5.440  10.672   6.843
52342SOL     OW58864  14.001   4.573   1.238
52342SOL    HW158865  13.912   4.544   1.258
52342SOL    HW258866  14.000   4.667   1.256
52343SOL     OW58867   8.505  13.873   2.170
52343SOL    HW158868   8.492  13.840   2.082
52343SOL    HW258869   8.562  13.949   2.159
52344SOL     OW58870   6.569   3.150  12.904
52344SOL    HW158871   6.626   3.226  12.917
52344SOL    HW258872   6.544   3.155  12.812
52345SOL     OW58873   1.269   9.215   5.847
52345SOL    HW158874   1.193   9.209   5.789
52345SOL    HW258875   1.232   9.223   5.934
52346SOL     OW58876   8.915  13.489   2.367
52346SOL    HW158877   8.828  13.457   2.391
52346SOL    HW258878   8.909  13.508   2.274
52347SOL     OW58879  10.594  10.016   1.421
52347SOL    HW158880  10.619  10.107   1.402
52347SOL    HW258881  10.506  10.008   1.385
52348SOL     OW58882   9.972  10.826  11.052
52348SOL    HW158883  10.049  10.786  11.012
52348SOL    HW258884   9.903  10.761  11.040
52349SOL     OW58885   4.236   9.395   9.932
52349SOL    HW158886   4.314   9.435   9.970
52349SOL    HW258887   4.259   9.303   9.922
52350SOL     OW58888   8.932   8.342  12.814
52350SOL    HW158889   8.876   8.265  12.808
52350SOL    HW258890   8.872   8.416  12.815
52351SOL     OW58891   3.557   3.170   0.209
52351SOL    HW158892   3.621   3.222   0.161
52351SOL    HW258893   3.607   3.096   0.243
52352SOL     OW58894   7.451   0.155   7.856
52352SOL    HW158895   7.384   0.213   7.820
52352SOL    HW258896   7.433   0.070   7.816
52353SOL     OW58897   0.098  11.504   1.393
52353SOL    HW158898   0.079  11.597   1.379
52353SOL    HW258899   0.155  11.502   1.470
52354SOL     OW58900   5.562   0.134   1.550
52354SOL    HW158901   5.547   0.179   1.634
52354SOL    HW258902   5.477   0.099   1.526
52355SOL     OW58903   9.814   1.734   7.069
52355SOL    HW158904   9.801   1.702   7.158
52355SOL    HW258905   9.860   1.663   7.024
52356SOL     OW58906   4.900   9.919   6.466
52356SOL    HW158907   4.826   9.917   6.404
52356SOL    HW258908   4.963   9.858   6.430
52357SOL     OW58909  11.315   3.821  13.457
52357SOL    HW158910  11.389   3.769  13.490
52357SOL    HW258911  11.336   3.835  13.365
52358SOL     OW58912   5.090  12.825   1.004
52358SOL    HW158913   5.023  12.838   0.937
52358SOL    HW258914   5.054  12.865   1.083
52359SOL     OW58915   8.909   7.474   9.830
52359SOL    HW158916   8.837   7.462   9.891
52359SOL    HW258917   8.869   7.464   9.743
52360SOL     OW58918   7.884  11.355   0.098
52360SOL    HW158919   7.802  11.314   0.125
52360SOL    HW258920   7.866  11.392   0.012
52361SOL     OW58921   5.735   2.653   7.058
52361SOL    HW158922   5.786   2.713   7.003
52361SOL    HW258923   5.733   2.694   7.144
52362SOL     OW58924   8.881   1.658   0.047
52362SOL    HW158925   8.822   1.718   0.001
52362SOL    HW258926   8.822   1.599   0.094
52363SOL     OW58927  10.470   2.687   4.221
52363SOL    HW158928  10.564   2.672   4.231
52363SOL    HW258929  10.429   2.610   4.258
52364SOL     OW58930   0.906   2.829   2.872
52364SOL    HW158931   0.975   2.805   2.934
52364SOL    HW258932   0.873   2.913   2.904
52365SOL     OW58933   4.754  10.177   1.941
52365SOL    HW158934   4.827  10.230   1.973
52365SOL    HW258935   4.742  10.205   1.850
52366SOL     OW58936   6.062   9.526   4.367
52366SOL    HW158937   6.103   9.598   4.416
52366SOL    HW258938   6.025   9.470   4.435
52367SOL     OW58939   8.542   9.479  13.390
52367SOL    HW158940   8.606   9.538  13.431
52367SOL    HW258941   8.593   9.401  13.367
52368SOL     OW58942  13.804   0.463  13.650
52368SOL    HW158943  13.715   0.457  13.613
52368SOL    HW258944  13.819   0.557  13.661
52369SOL     OW58945   2.049  10.073   2.530
52369SOL    HW158946   1.999  10.129   2.471
52369SOL    HW258947   2.122  10.042   2.478
52370SOL     OW58948   4.748   6.868   6.644
52370SOL    HW158949   4.821   6.867   6.705
52370SOL    HW258950   4.714   6.779   6.645
52371SOL     OW58951  12.247   7.928  11.665
52371SOL    HW158952  12.300   7.972  11.599
52371SOL    HW258953  12.302   7.927  11.744
52372SOL     OW58954   9.787   7.503  10.158
52372SOL    HW158955   9.804   7.485  10.251
52372SOL    HW258956   9.825   7.427  10.113
52373SOL     OW58957  13.865  13.052   6.896
52373SOL    HW158958  13.872  13.092   6.983
52373SOL    HW258959  13.853  12.959   6.913
52374SOL     OW58960   4.881   9.408   1.041
52374SOL    HW158961   4.959   9.463   1.038
52374SOL    HW258962   4.859   9.402   1.134
52375SOL     OW58963  10.219   6.709   4.993
52375SOL    HW158964  10.204   6.748   4.907
52375SOL    HW258965  10.134   6.671   5.017
52376SOL     OW58966  14.575   6.852   0.639
52376SOL    HW158967  14.596   6.836   0.731
52376SOL    HW258968  14.520   6.930   0.641
52377SOL     OW58969  12.066   8.542   9.096
52377SOL    HW158970  11.989   8.507   9.141
52377SOL    HW258971  12.076   8.487   9.018
52378SOL     OW58972   8.654   4.826   4.268
52378SOL    HW158973   8.676   4.868   4.184
52378SOL    HW258974   8.561   4.806   4.260
52379SOL     OW58975   9.198   8.441   1.222
52379SOL    HW158976   9.185   8.423   1.129
52379SOL    HW258977   9.149   8.372   1.267
52380SOL     OW58978  12.545  12.713   2.999
52380SOL    HW158979  12.618  12.735   3.057
52380SOL    HW258980  12.468  12.751   3.042
52381SOL     OW58981   8.918   4.671   0.794
52381SOL    HW158982   8.890   4.593   0.747
52381SOL    HW258983   8.998   4.644   0.839
52382SOL     OW58984  10.011   9.633   0.157
52382SOL    HW158985  10.099   9.665   0.178
52382SOL    HW258986   9.961   9.651   0.237
52383SOL     OW58987   8.463   5.055  14.827
52383SOL    HW158988   8.441   4.971  14.868
52383SOL    HW258989   8.495   5.032  14.740
52384SOL     OW58990   7.511   3.711  13.691
52384SOL    HW158991   7.470   3.628  13.713
52384SOL    HW258992   7.438   3.772  13.681
52385SOL     OW58993  11.470   2.528   0.436
52385SOL    HW158994  11.562   2.520   0.462
52385SOL    HW258995  11.421   2.481   0.503
52386SOL     OW58996   4.925   5.316   5.536
52386SOL    HW158997   5.014   5.282   5.523
52386SOL    HW258998   4.870   5.256   5.485
52387SOL     OW58999   8.967  12.844  11.841
52387SOL    HW159000   9.041  12.784  11.828
52387SOL    HW259001   9.007  12.929  11.859
52388SOL     OW59002  13.211   0.415   9.236
52388SOL    HW159003  13.187   0.322   9.229
52388SOL    HW259004  13.196   0.437   9.327
52389SOL     OW59005  12.891   5.688  11.856
52389SOL    HW159006  12.914   5.781  11.848
52389SOL    HW259007  12.809   5.688  11.905
52390SOL     OW59008   3.928   7.256   2.390
52390SOL    HW159009   4.020   7.230   2.392
52390SOL    HW259010   3.929   7.351   2.400
52391SOL     OW59011   1.381  13.756   2.404
52391SOL    HW159012   1.302  13.808   2.388
52391SOL    HW259013   1.349  13.667   2.419
52392SOL     OW59014   0.302   7.865   3.806
52392SOL    HW159015   0.219   7.824   3.829
52392SOL    HW259016   0.284   7.909   3.722
52393SOL     OW59017  12.599   8.169  10.489
52393SOL    HW159018  12.584   8.263  10.498
52393SOL    HW259019  12.693   8.158  10.502
52394SOL     OW59020  13.170   3.622  13.744
52394SOL    HW159021  13.243   3.659  13.794
52394SOL    HW259022  13.105   3.601  13.810
52395SOL     OW59023  10.169   0.301   5.001
52395SOL    HW159024  10.160   0.230   5.064
52395SOL    HW259025  10.116   0.274   4.926
52396SOL     OW59026   7.926  10.000  14.869
52396SOL    HW159027   7.850  10.002   0.046
52396SOL    HW259028   7.928  10.087  14.830
52397SOL     OW59029   3.464  11.281   6.945
52397SOL    HW159030   3.504  11.216   7.003
52397SOL    HW259031   3.373  11.286   6.974
52398SOL     OW59032  12.425  10.464   8.998
52398SOL    HW159033  12.432  10.555   9.026
52398SOL    HW259034  12.371  10.467   8.918
52399SOL     OW59035   5.186  13.826   0.186
52399SOL    HW159036   5.115  13.824   0.122
52399SOL    HW259037   5.174  13.909   0.232
52400SOL     OW59038  13.577  13.563   6.053
52400SOL    HW159039  13.647  13.607   6.100
52400SOL    HW259040  13.522  13.525   6.121
52401SOL     OW59041   9.279  14.483  14.778
52401SOL    HW159042   9.373  14.488  14.798
52401SOL    HW259043   9.237  14.515  14.858
52402SOL     OW59044  11.208   5.477   4.241
52402SOL    HW159045  11.251   5.550   4.197
52402SOL    HW259046  11.274   5.408   4.244
52403SOL     OW59047  11.568   0.342   3.010
52403SOL    HW159048  11.475   0.347   2.988
52403SOL    HW259049  11.570   0.310   3.100
52404SOL     OW59050   3.983   9.970  10.399
52404SOL    HW159051   3.891   9.993  10.409
52404SOL    HW259052   4.023  10.049  10.362
52405SOL     OW59053   8.105   5.034   5.483
52405SOL    HW159054   8.093   5.056   5.390
52405SOL    HW259055   8.119   4.939   5.483
52406SOL     OW59056  14.718   6.970   9.673
52406SOL    HW159057  14.703   6.878   9.697
52406SOL    HW259058  14.659   6.984   9.599
52407SOL     OW59059   6.852   5.499   0.897
52407SOL    HW159060   6.870   5.515   0.804
52407SOL    HW259061   6.937   5.510   0.940
52408SOL     OW59062   2.264   5.232   4.125
52408SOL    HW159063   2.332   5.297   4.106
52408SOL    HW259064   2.196   5.250   4.060
52409SOL     OW59065   5.157   9.750  14.321
52409SOL    HW159066   5.233   9.802  14.294
52409SOL    HW259067   5.086   9.782  14.265
52410SOL     OW59068   7.005   2.236   1.019
52410SOL    HW159069   6.940   2.165   1.024
52410SOL    HW259070   7.068   2.206   0.954
52411SOL     OW59071   4.493   1.602  11.762
52411SOL    HW159072   4.436   1.603  11.839
52411SOL    HW259073   4.484   1.514  11.726
52412SOL     OW59074   9.570  11.820   3.023
52412SOL    HW159075   9.620  11.897   2.996
52412SOL    HW259076   9.630  11.747   3.010
52413SOL     OW59077  10.224   1.634   1.716
52413SOL    HW159078  10.278   1.556   1.706
52413SOL    HW259079  10.170   1.637   1.637
52414SOL     OW59080   9.733   2.651  12.990
52414SOL    HW159081   9.699   2.609  13.069
52414SOL    HW259082   9.775   2.731  13.020
52415SOL     OW59083  14.063   1.741  13.314
52415SOL    HW159084  14.092   1.831  13.332
52415SOL    HW259085  14.092   1.691  13.390
52416SOL     OW59086   6.295   0.385  13.555
52416SOL    HW159087   6.211   0.349  13.527
52416SOL    HW259088   6.272   0.450  13.622
52417SOL     OW59089  14.235   5.036   4.588
52417SOL    HW159090  14.201   4.960   4.636
52417SOL    HW259091  14.310   5.002   4.539
52418SOL     OW59092  14.541  10.342  12.827
52418SOL    HW159093  14.563  10.281  12.758
52418SOL    HW259094  14.528  10.426  12.782
52419SOL     OW59095  13.308  13.142   4.420
52419SOL    HW159096  13.309  13.048   4.402
52419SOL    HW259097  13.398  13.171   4.402
52420SOL     OW59098  12.185  10.100   3.718
52420SOL    HW159099  12.225  10.057   3.794
52420SOL    HW259100  12.121  10.038   3.685
52421SOL     OW59101   8.975  11.431   4.792
52421SOL    HW159102   8.891  11.387   4.804
52421SOL    HW259103   9.038  11.375   4.838
52422SOL     OW59104   2.863   5.260  11.740
52422SOL    HW159105   2.896   5.307  11.663
52422SOL    HW259106   2.922   5.286  11.811
52423SOL     OW59107  14.726   6.687   8.844
52423SOL    HW159108  14.808   6.735   8.845
52423SOL    HW259109  14.665   6.745   8.797
52424SOL     OW59110  12.986   1.623   7.188
52424SOL    HW159111  13.012   1.610   7.279
52424SOL    HW259112  12.911   1.565   7.176
52425SOL     OW59113   9.670  13.421   8.550
52425SOL    HW159114   9.637  13.361   8.483
52425SOL    HW259115   9.749  13.459   8.511
52426SOL     OW59116   2.491   3.397  14.834
52426SOL    HW159117   2.417   3.395  14.774
52426SOL    HW259118   2.474   3.473   0.008
52427SOL     OW59119   7.548   2.292   7.638
52427SOL    HW159120   7.470   2.326   7.681
52427SOL    HW259121   7.522   2.281   7.547
52428SOL     OW59122   1.064   0.496   2.500
52428SOL    HW159123   1.126   0.422   2.501
52428SOL    HW259124   1.115   0.570   2.532
52429SOL     OW59125   9.602   5.770   0.175
52429SOL    HW159126   9.649   5.843   0.137
52429SOL    HW259127   9.585   5.796   0.266
52430SOL     OW59128   7.942   6.133   6.855
52430SOL    HW159129   7.884   6.061   6.882
52430SOL    HW259130   7.983   6.103   6.775
52431SOL     OW59131   2.547   9.431   1.989
52431SOL    HW159132   2.581   9.396   1.907
52431SOL    HW259133   2.612   9.408   2.055
52432SOL     OW59134   6.566  12.268   6.007
52432SOL    HW159135   6.481  12.228   6.028
52432SOL    HW259136   6.555  12.360   6.028
52433SOL     OW59137   7.759   3.307  14.747
52433SOL    HW159138   7.730   3.302  14.838
52433SOL    HW259139   7.837   3.362  14.749
52434SOL     OW59140   3.331   7.861  12.026
52434SOL    HW159141   3.386   7.804  12.079
52434SOL    HW259142   3.249   7.869  12.075
52435SOL     OW59143  14.278  13.280   9.720
52435SOL    HW159144  14.301  13.370   9.694
52435SOL    HW259145  14.355  13.249   9.767
52436SOL     OW59146  10.016   3.073   9.543
52436SOL    HW159147  10.103   3.097   9.512
52436SOL    HW259148   9.995   3.140   9.608
52437SOL     OW59149  13.566  12.741  10.313
52437SOL    HW159150  13.519  12.787  10.383
52437SOL    HW259151  13.528  12.776  10.233
52438SOL     OW59152   3.261  12.946   9.769
52438SOL    HW159153   3.237  12.857   9.743
52438SOL    HW259154   3.351  12.939   9.801
52439SOL     OW59155  14.469   6.717  11.014
52439SOL    HW159156  14.553   6.749  11.046
52439SOL    HW259157  14.447   6.645  11.073
52440SOL     OW59158   4.159   1.987   5.994
52440SOL    HW159159   4.172   2.063   6.052
52440SOL    HW259160   4.085   2.011   5.939
52441SOL     OW59161   6.277  11.482  11.371
52441SOL    HW159162   6.302  11.520  11.287
52441SOL    HW259163   6.181  11.482  11.369
52442SOL     OW59164   5.768   4.681   6.117
52442SOL    HW159165   5.727   4.599   6.147
52442SOL    HW259166   5.849   4.686   6.167
52443SOL     OW59167   3.849  11.990  14.175
52443SOL    HW159168   3.940  12.018  14.182
52443SOL    HW259169   3.837  11.930  14.249
52444SOL     OW59170  13.654  12.423   7.983
52444SOL    HW159171  13.689  12.471   7.908
52444SOL    HW259172  13.684  12.333   7.970
52445SOL     OW59173  12.944  12.182   3.163
52445SOL    HW159174  12.893  12.108   3.129
52445SOL    HW259175  12.885  12.225   3.224
52446SOL     OW59176   5.208   4.643   3.436
52446SOL    HW159177   5.147   4.638   3.361
52446SOL    HW259178   5.281   4.587   3.410
52447SOL     OW59179  11.595   1.502   3.837
52447SOL    HW159180  11.657   1.542   3.776
52447SOL    HW259181  11.629   1.526   3.924
52448SOL     OW59182   8.904   6.169  14.034
52448SOL    HW159183   8.860   6.088  14.061
52448SOL    HW259184   8.919   6.217  14.116
52449SOL     OW59185   4.607  13.497   9.157
52449SOL    HW159186   4.520  13.459   9.162
52449SOL    HW259187   4.642  13.468   9.073
52450SOL     OW59188  12.144  12.715   7.156
52450SOL    HW159189  12.184  12.773   7.221
52450SOL    HW259190  12.156  12.762   7.073
52451SOL     OW59191   0.467   3.337   4.503
52451SOL    HW159192   0.474   3.350   4.408
52451SOL    HW259193   0.486   3.244   4.516
52452SOL     OW59194  12.980  12.376   2.473
52452SOL    HW159195  12.931  12.313   2.421
52452SOL    HW259196  12.914  12.420   2.527
52453SOL     OW59197  14.717  14.289  11.113
52453SOL    HW159198  14.634  14.294  11.162
52453SOL    HW259199  14.779  14.339  11.167
52454SOL     OW59200   4.748  12.150   6.720
52454SOL    HW159201   4.700  12.161   6.802
52454SOL    HW259202   4.832  12.113   6.746
52455SOL     OW59203   7.301   7.315  13.878
52455SOL    HW159204   7.261   7.355  13.955
52455SOL    HW259205   7.340   7.388  13.830
52456SOL     OW59206   1.427   9.092   1.924
52456SOL    HW159207   1.391   9.046   1.848
52456SOL    HW259208   1.354   9.141   1.960
52457SOL     OW59209  11.966   0.720   1.411
52457SOL    HW159210  11.895   0.660   1.432
52457SOL    HW259211  11.926   0.784   1.352
52458SOL     OW59212   9.652  13.417   6.354
52458SOL    HW159213   9.578  13.477   6.364
52458SOL    HW259214   9.651  13.364   6.434
52459SOL     OW59215   1.991   5.655   8.046
52459SOL    HW159216   1.925   5.638   7.979
52459SOL    HW259217   2.062   5.594   8.027
52460SOL     OW59218   3.863   6.199   1.559
52460SOL    HW159219   3.909   6.132   1.609
52460SOL    HW259220   3.858   6.163   1.470
52461SOL     OW59221  10.513   6.588   0.067
52461SOL    HW159222  10.489   6.543   0.148
52461SOL    HW259223  10.586   6.537   0.032
52462SOL     OW59224  11.037   8.804  12.993
52462SOL    HW159225  10.964   8.781  12.936
52462SOL    HW259226  11.007   8.881  13.041
52463SOL     OW59227   0.265  13.050   8.713
52463SOL    HW159228   0.310  13.052   8.798
52463SOL    HW259229   0.317  12.990   8.660
52464SOL     OW59230   3.942   7.528  13.268
52464SOL    HW159231   4.018   7.529  13.326
52464SOL    HW259232   3.881   7.467  13.309
52465SOL     OW59233   2.605  11.325   9.978
52465SOL    HW159234   2.556  11.304  10.058
52465SOL    HW259235   2.552  11.288   9.908
52466SOL     OW59236  11.957   2.487   0.591
52466SOL    HW159237  11.871   2.458   0.621
52466SOL    HW259238  11.996   2.410   0.550
52467SOL     OW59239  10.910   7.315   6.858
52467SOL    HW159240  10.906   7.251   6.786
52467SOL    HW259241  10.819   7.342   6.871
52468SOL     OW59242   1.474  13.489   0.139
52468SOL    HW159243   1.422  13.559   0.178
52468SOL    HW259244   1.561  13.498   0.180
52469SOL     OW59245  11.362   2.300  10.689
52469SOL    HW159246  11.271   2.328  10.691
52469SOL    HW259247  11.411   2.373  10.727
52470SOL     OW59248  13.338  11.141   9.208
52470SOL    HW159249  13.243  11.130   9.217
52470SOL    HW259250  13.350  11.235   9.194
52471SOL     OW59251   4.471   6.060   5.269
52471SOL    HW159252   4.510   6.050   5.182
52471SOL    HW259253   4.504   5.985   5.319
52472SOL     OW59254   4.556   1.951   1.524
52472SOL    HW159255   4.483   1.902   1.561
52472SOL    HW259256   4.521   1.988   1.443
52473SOL     OW59257   1.943   2.037  12.878
52473SOL    HW159258   1.905   2.012  12.793
52473SOL    HW259259   2.009   1.970  12.896
52474SOL     OW59260   9.945   9.136  14.319
52474SOL    HW159261   9.934   9.215  14.265
52474SOL    HW259262   9.995   9.076  14.263
52475SOL     OW59263   5.330   6.698  11.943
52475SOL    HW159264   5.305   6.610  11.916
52475SOL    HW259265   5.263   6.724  12.006
52476SOL     OW59266   2.280   7.986   2.836
52476SOL    HW159267   2.204   7.983   2.894
52476SOL    HW259268   2.353   7.955   2.890
52477SOL     OW59269   8.272  10.144   6.232
52477SOL    HW159270   8.350  10.091   6.217
52477SOL    HW259271   8.200  10.089   6.203
52478SOL     OW59272  11.770  14.799   9.448
52478SOL    HW159273  11.866  14.804   9.443
52478SOL    HW259274  11.744  14.877   9.498
52479SOL     OW59275   8.063   3.108  11.756
52479SOL    HW159276   7.978   3.149  11.772
52479SOL    HW259277   8.044   3.015  11.745
52480SOL     OW59278  13.292   4.724   7.336
52480SOL    HW159279  13.303   4.638   7.377
52480SOL    HW259280  13.238   4.773   7.398
52481SOL     OW59281  14.743  12.297  10.226
52481SOL    HW159282  14.808  12.239  10.266
52481SOL    HW259283  14.676  12.237  10.191
52482SOL     OW59284   3.885   3.047   4.667
52482SOL    HW159285   3.828   2.974   4.687
52482SOL    HW259286   3.845   3.122   4.711
52483SOL     OW59287  10.951   4.458  12.777
52483SOL    HW159288  10.889   4.530  12.767
52483SOL    HW259289  10.910   4.401  12.842
52484SOL     OW59290  13.652   1.172   2.739
52484SOL    HW159291  13.648   1.153   2.645
52484SOL    HW259292  13.592   1.245   2.752
52485SOL     OW59293   3.849  13.695  14.304
52485SOL    HW159294   3.782  13.735  14.360
52485SOL    HW259295   3.897  13.770  14.268
52486SOL     OW59296   7.850   2.026   0.084
52486SOL    HW159297   7.837   2.066  14.880
52486SOL    HW259298   7.936   2.057   0.112
52487SOL     OW59299   0.314  14.738  12.541
52487SOL    HW159300   0.227  14.740  12.581
52487SOL    HW259301   0.314  14.813  12.480
52488SOL     OW59302  10.043  10.057  14.450
52488SOL    HW159303  10.014  10.058  14.541
52488SOL    HW259304  10.090  10.139  14.438
52489SOL     OW59305   1.549   6.039   9.924
52489SOL    HW159306   1.465   6.068   9.888
52489SOL    HW259307   1.558   5.949   9.895
52490SOL     OW59308   3.771   5.366   1.738
52490SOL    HW159309   3.693   5.421   1.736
52490SOL    HW259310   3.759   5.305   1.665
52491SOL     OW59311  12.974   3.063  13.442
52491SOL    HW159312  12.997   3.112  13.363
52491SOL    HW259313  12.927   2.986  13.409
52492SOL     OW59314   7.753  12.813   8.360
52492SOL    HW159315   7.811  12.876   8.319
52492SOL    HW259316   7.733  12.750   8.290
52493SOL     OW59317   3.494  12.491   4.290
52493SOL    HW159318   3.495  12.441   4.208
52493SOL    HW259319   3.405  12.478   4.325
52494SOL     OW59320   1.236  11.719   8.829
52494SOL    HW159321   1.293  11.713   8.752
52494SOL    HW259322   1.220  11.813   8.840
52495SOL     OW59323   5.262  13.886   8.725
52495SOL    HW159324   5.215  13.905   8.806
52495SOL    HW259325   5.335  13.947   8.724
52496SOL     OW59326   6.089  12.674   8.583
52496SOL    HW159327   6.023  12.722   8.632
52496SOL    HW259328   6.063  12.683   8.492
52497SOL     OW59329   3.085  14.323  13.439
52497SOL    HW159330   3.163  14.287  13.481
52497SOL    HW259331   3.085  14.286  13.351
52498SOL     OW59332   8.641  13.065  11.829
52498SOL    HW159333   8.726  13.073  11.873
52498SOL    HW259334   8.636  12.973  11.803
52499SOL     OW59335   4.285   5.019   3.608
52499SOL    HW159336   4.312   4.979   3.691
52499SOL    HW259337   4.245   5.102   3.633
52500SOL     OW59338  12.147   8.740  13.674
52500SOL    HW159339  12.123   8.781  13.590
52500SOL    HW259340  12.136   8.810  13.738
52501SOL     OW59341  14.012  14.432  11.699
52501SOL    HW159342  13.967  14.374  11.761
52501SOL    HW259343  13.943  14.459  11.639
52502SOL     OW59344  11.828   8.342   0.908
52502SOL    HW159345  11.915   8.304   0.896
52502SOL    HW259346  11.811   8.390   0.827
52503SOL     OW59347   5.600   0.896   5.972
52503SOL    HW159348   5.566   0.809   5.953
52503SOL    HW259349   5.659   0.915   5.898
52504SOL     OW59350   9.364   2.483   5.715
52504SOL    HW159351   9.363   2.579   5.722
52504SOL    HW259352   9.280   2.455   5.751
52505SOL     OW59353   1.109   8.371  12.433
52505SOL    HW159354   1.133   8.301  12.372
52505SOL    HW259355   1.015   8.382  12.421
52506SOL     OW59356  13.843   6.815  13.990
52506SOL    HW159357  13.774   6.793  13.928
52506SOL    HW259358  13.798   6.826  14.074
52507SOL     OW59359   3.579  14.493   0.773
52507SOL    HW159360   3.503  14.542   0.803
52507SOL    HW259361   3.616  14.545   0.702
52508SOL     OW59362   5.901  13.383   2.525
52508SOL    HW159363   5.988  13.424   2.521
52508SOL    HW259364   5.918  13.290   2.515
52509SOL     OW59365  13.122  12.123  11.860
52509SOL    HW159366  13.108  12.205  11.813
52509SOL    HW259367  13.216  12.120  11.875
52510SOL     OW59368   0.393   2.063  12.509
52510SOL    HW159369   0.477   2.016  12.507
52510SOL    HW259370   0.405   2.131  12.575
52511SOL     OW59371   9.962  12.621  11.655
52511SOL    HW159372   9.950  12.712  11.630
52511SOL    HW259373   9.926  12.615  11.744
52512SOL     OW59374  14.432   1.721  10.310
52512SOL    HW159375  14.387   1.636  10.315
52512SOL    HW259376  14.440   1.738  10.216
52513SOL     OW59377   1.777   4.467   4.236
52513SOL    HW159378   1.763   4.421   4.153
52513SOL    HW259379   1.734   4.551   4.224
52514SOL     OW59380   5.773   1.686   6.635
52514SOL    HW159381   5.750   1.654   6.722
52514SOL    HW259382   5.869   1.683   6.633
52515SOL     OW59383   2.690   6.158   1.558
52515SOL    HW159384   2.702   6.249   1.532
52515SOL    HW259385   2.623   6.124   1.499
52516SOL     OW59386   6.449   0.894  12.304
52516SOL    HW159387   6.411   0.820  12.257
52516SOL    HW259388   6.419   0.971  12.255
52517SOL     OW59389  10.795   9.762   9.166
52517SOL    HW159390  10.773   9.821   9.094
52517SOL    HW259391  10.808   9.819   9.241
52518SOL     OW59392   7.400   4.831   6.826
52518SOL    HW159393   7.412   4.788   6.911
52518SOL    HW259394   7.484   4.818   6.781
52519SOL     OW59395   7.278   3.863   3.202
52519SOL    HW159396   7.188   3.869   3.233
52519SOL    HW259397   7.276   3.896   3.113
52520SOL     OW59398   5.313   5.740  13.170
52520SOL    HW159399   5.392   5.764  13.122
52520SOL    HW259400   5.297   5.813  13.230
52521SOL     OW59401  14.805  10.735   8.395
52521SOL    HW159402  14.876  10.768   8.340
52521SOL    HW259403  14.799  10.798   8.467
52522SOL     OW59404   8.492  13.744   1.903
52522SOL    HW159405   8.494  13.653   1.873
52522SOL    HW259406   8.399  13.766   1.908
52523SOL     OW59407   9.425   1.810   2.113
52523SOL    HW159408   9.330   1.824   2.113
52523SOL    HW259409   9.456   1.858   2.189
52524SOL     OW59410  14.657   7.169  10.556
52524SOL    HW159411  14.696   7.108  10.493
52524SOL    HW259412  14.634   7.245  10.504
52525SOL     OW59413   5.602   9.707  10.156
52525SOL    HW159414   5.619   9.712  10.250
52525SOL    HW259415   5.661   9.638  10.125
52526SOL     OW59416  11.113   2.298   3.910
52526SOL    HW159417  11.183   2.292   3.975
52526SOL    HW259418  11.142   2.367   3.850
52527SOL     OW59419  14.229   6.751   2.965
52527SOL    HW159420  14.193   6.706   2.889
52527SOL    HW259421  14.156   6.756   3.027
52528SOL     OW59422   2.236   8.139  10.568
52528SOL    HW159423   2.282   8.222  10.580
52528SOL    HW259424   2.292   8.090  10.507
52529SOL     OW59425   9.697   2.968   5.620
52529SOL    HW159426   9.757   3.042   5.615
52529SOL    HW259427   9.754   2.891   5.623
52530SOL     OW59428  10.439   1.249   9.344
52530SOL    HW159429  10.409   1.190   9.413
52530SOL    HW259430  10.362   1.301   9.321
52531SOL     OW59431   3.364   7.076   5.566
52531SOL    HW159432   3.402   7.120   5.642
52531SOL    HW259433   3.341   6.989   5.598
52532SOL     OW59434   5.029  13.247   4.528
52532SOL    HW159435   5.030  13.336   4.562
52532SOL    HW259436   4.985  13.253   4.444
52533SOL     OW59437   1.916   9.997  12.801
52533SOL    HW159438   1.928  10.067  12.736
52533SOL    HW259439   1.998   9.947  12.796
52534SOL     OW59440   9.461   4.198   9.202
52534SOL    HW159441   9.380   4.156   9.234
52534SOL    HW259442   9.441   4.223   9.112
52535SOL     OW59443   2.854   3.567   8.397
52535SOL    HW159444   2.797   3.607   8.332
52535SOL    HW259445   2.902   3.640   8.436
52536SOL     OW59446   8.790   6.653  11.320
52536SOL    HW159447   8.805   6.721  11.385
52536SOL    HW259448   8.817   6.693  11.237
52537SOL     OW59449   7.425  11.476   0.533
52537SOL    HW159450   7.338  11.466   0.494
52537SOL    HW259451   7.472  11.533   0.474
52538SOL     OW59452  12.580  10.217   4.421
52538SOL    HW159453  12.559  10.201   4.513
52538SOL    HW259454  12.496  10.220   4.377
52539SOL     OW59455   1.527   3.432   9.414
52539SOL    HW159456   1.582   3.366   9.456
52539SOL    HW259457   1.467   3.382   9.359
52540SOL     OW59458   9.652   3.655   3.231
52540SOL    HW159459   9.694   3.609   3.158
52540SOL    HW259460   9.583   3.707   3.190
52541SOL     OW59461  14.494   4.728   4.824
52541SOL    HW159462  14.475   4.815   4.791
52541SOL    HW259463  14.413   4.699   4.865
52542SOL     OW59464   9.361   5.893   6.504
52542SOL    HW159465   9.340   5.832   6.574
52542SOL    HW259466   9.456   5.889   6.495
52543SOL     OW59467   7.351   7.226   4.233
52543SOL    HW159468   7.379   7.198   4.320
52543SOL    HW259469   7.257   7.207   4.231
52544SOL     OW59470  11.868   4.071  11.512
52544SOL    HW159471  11.820   4.016  11.574
52544SOL    HW259472  11.940   4.015  11.482
52545SOL     OW59473  14.880  13.883   1.338
52545SOL    HW159474  14.845  13.917   1.255
52545SOL    HW259475   0.092  13.898   1.332
52546SOL     OW59476  14.712  10.195   9.296
52546SOL    HW159477  14.702  10.289   9.311
52546SOL    HW259478  14.624  10.164   9.279
52547SOL     OW59479  10.661   7.887   0.952
52547SOL    HW159480  10.567   7.894   0.965
52547SOL    HW259481  10.692   7.977   0.943
52548SOL     OW59482   1.370   3.513   0.740
52548SOL    HW159483   1.345   3.428   0.775
52548SOL    HW259484   1.422   3.553   0.810
52549SOL     OW59485  14.000  14.858   6.509
52549SOL    HW159486  14.060   0.026   6.453
52549SOL    HW259487  14.026  14.767   6.497
52550SOL     OW59488  13.312   4.795   3.150
52550SOL    HW159489  13.271   4.788   3.236
52550SOL    HW259490  13.401   4.825   3.168
52551SOL     OW59491   3.967   2.476   1.926
52551SOL    HW159492   4.049   2.428   1.914
52551SOL    HW259493   3.994   2.567   1.941
52552SOL     OW59494   4.706   2.641   0.175
52552SOL    HW159495   4.776   2.615   0.235
52552SOL    HW259496   4.626   2.639   0.228
52553SOL     OW59497   7.167  12.114  10.140
52553SOL    HW159498   7.124  12.199  10.151
52553SOL    HW259499   7.260  12.134  10.138
52554SOL     OW59500  11.904   4.824   9.003
52554SOL    HW159501  11.940   4.773   9.075
52554SOL    HW259502  11.897   4.913   9.037
52555SOL     OW59503   9.982   9.328  14.123
52555SOL    HW159504   9.993   9.392  14.194
52555SOL    HW259505   9.975   9.382  14.044
52556SOL     OW59506   6.394   8.715  12.365
52556SOL    HW159507   6.419   8.761  12.445
52556SOL    HW259508   6.396   8.623  12.389
52557SOL     OW59509   3.426  12.131   4.462
52557SOL    HW159510   3.497  12.106   4.404
52557SOL    HW259511   3.466  12.136   4.549
52558SOL     OW59512   8.607   0.169  13.092
52558SOL    HW159513   8.558   0.183  13.173
52558SOL    HW259514   8.545   0.190  13.022
52559SOL     OW59515   2.954  14.581   8.252
52559SOL    HW159516   2.995  14.551   8.171
52559SOL    HW259517   2.865  14.606   8.226
52560SOL     OW59518  12.276   2.900  13.638
52560SOL    HW159519  12.217   2.889  13.713
52560SOL    HW259520  12.227   2.867  13.563
52561SOL     OW59521   8.872  13.829  10.041
52561SOL    HW159522   8.839  13.754  10.092
52561SOL    HW259523   8.816  13.832   9.964
52562SOL     OW59524   3.792   5.637   0.374
52562SOL    HW159525   3.808   5.646   0.280
52562SOL    HW259526   3.860   5.690   0.415
52563SOL     OW59527  11.550  12.920  12.845
52563SOL    HW159528  11.563  12.958  12.932
52563SOL    HW259529  11.455  12.914  12.836
52564SOL     OW59530   1.503  11.842   5.807
52564SOL    HW159531   1.468  11.897   5.738
52564SOL    HW259532   1.478  11.753   5.783
52565SOL     OW59533  12.459   5.683  12.378
52565SOL    HW159534  12.449   5.721  12.466
52565SOL    HW259535  12.398   5.610  12.377
52566SOL     OW59536  12.043   7.635  11.686
52566SOL    HW159537  12.066   7.569  11.751
52566SOL    HW259538  12.083   7.715  11.718
52567SOL     OW59539   4.840   7.160   1.083
52567SOL    HW159540   4.841   7.089   1.019
52567SOL    HW259541   4.764   7.213   1.059
52568SOL     OW59542   8.582   6.664   5.852
52568SOL    HW159543   8.513   6.601   5.874
52568SOL    HW259544   8.550   6.709   5.774
52569SOL     OW59545  14.059  13.819   4.266
52569SOL    HW159546  14.044  13.792   4.357
52569SOL    HW259547  13.985  13.875   4.245
52570SOL     OW59548   7.521  11.215   1.625
52570SOL    HW159549   7.451  11.245   1.567
52570SOL    HW259550   7.576  11.293   1.638
52571SOL     OW59551   6.221   3.919   7.442
52571SOL    HW159552   6.303   3.929   7.393
52571SOL    HW259553   6.162   3.875   7.381
52572SOL     OW59554  11.857   3.147  14.739
52572SOL    HW159555  11.886   3.235  14.765
52572SOL    HW259556  11.936   3.103  14.709
52573SOL     OW59557   7.212   4.883   4.842
52573SOL    HW159558   7.293   4.931   4.858
52573SOL    HW259559   7.168   4.931   4.771
52574SOL     OW59560  14.405   9.270   5.610
52574SOL    HW159561  14.471   9.249   5.676
52574SOL    HW259562  14.341   9.200   5.617
52575SOL     OW59563   9.441   8.497   5.377
52575SOL    HW159564   9.479   8.546   5.450
52575SOL    HW259565   9.477   8.539   5.299
52576SOL     OW59566   0.978  12.856   8.812
52576SOL    HW159567   1.064  12.862   8.771
52576SOL    HW259568   0.921  12.910   8.757
52577SOL     OW59569   6.174  10.814  14.693
52577SOL    HW159570   6.244  10.861  14.647
52577SOL    HW259571   6.212  10.791  14.777
52578SOL     OW59572  13.535   9.705   4.774
52578SOL    HW159573  13.509   9.613   4.776
52578SOL    HW259574  13.578   9.721   4.857
52579SOL     OW59575   2.513   3.620   2.963
52579SOL    HW159576   2.599   3.596   2.928
52579SOL    HW259577   2.452   3.558   2.924
52580SOL     OW59578  10.707  14.483  10.571
52580SOL    HW159579  10.796  14.450  10.556
52580SOL    HW259580  10.700  14.490  10.667
52581SOL     OW59581   4.842   8.914   8.860
52581SOL    HW159582   4.803   8.837   8.820
52581SOL    HW259583   4.849   8.893   8.953
52582SOL     OW59584  13.587   1.828   1.499
52582SOL    HW159585  13.662   1.881   1.473
52582SOL    HW259586  13.547   1.801   1.416
52583SOL     OW59587   6.412   9.792   2.624
52583SOL    HW159588   6.457   9.742   2.691
52583SOL    HW259589   6.480   9.847   2.585
52584SOL     OW59590   0.248   9.691   1.800
52584SOL    HW159591   0.321   9.657   1.851
52584SOL    HW259592   0.171   9.649   1.838
52585SOL     OW59593   3.765   3.209  13.923
52585SOL    HW159594   3.704   3.277  13.953
52585SOL    HW259595   3.722   3.169  13.848
52586SOL     OW59596  11.590   6.114   8.623
52586SOL    HW159597  11.587   6.125   8.528
52586SOL    HW259598  11.626   6.026   8.635
52587SOL     OW59599   6.186   3.117  12.926
52587SOL    HW159600   6.175   3.022  12.923
52587SOL    HW259601   6.264   3.130  12.979
52588SOL     OW59602  12.719  13.389   1.366
52588SOL    HW159603  12.750  13.479   1.357
52588SOL    HW259604  12.777  13.350   1.431
52589SOL     OW59605   2.596  13.564  14.566
52589SOL    HW159606   2.687  13.593  14.571
52589SOL    HW259607   2.592  13.510  14.487
52590SOL     OW59608  14.821   7.514   2.637
52590SOL    HW159609  14.763   7.568   2.691
52590SOL    HW259610  14.803   7.424   2.664
52591SOL     OW59611   0.453   3.781   0.065
52591SOL    HW159612   0.378   3.808   0.118
52591SOL    HW259613   0.416   3.757  14.862
52592SOL     OW59614   5.391   3.654   0.775
52592SOL    HW159615   5.340   3.708   0.714
52592SOL    HW259616   5.331   3.635   0.847
52593SOL     OW59617   4.510  11.708   8.813
52593SOL    HW159618   4.565  11.648   8.863
52593SOL    HW259619   4.498  11.665   8.728
52594SOL     OW59620   0.863  12.630   8.864
52594SOL    HW159621   0.777  12.668   8.883
52594SOL    HW259622   0.914  12.702   8.828
52595SOL     OW59623   5.080   8.223  13.900
52595SOL    HW159624   5.122   8.241  13.816
52595SOL    HW259625   5.138   8.159  13.943
52596SOL     OW59626  14.006  12.626   7.091
52596SOL    HW159627  13.915  12.609   7.066
52596SOL    HW259628  14.056  12.615   7.010
52597SOL     OW59629   2.281  11.919   6.110
52597SOL    HW159630   2.244  11.886   6.028
52597SOL    HW259631   2.283  11.842   6.167
52598SOL     OW59632   2.054  12.636   6.335
52598SOL    HW159633   1.996  12.596   6.271
52598SOL    HW259634   2.132  12.581   6.336
52599SOL     OW59635   1.515  10.193   6.310
52599SOL    HW159636   1.564  10.129   6.362
52599SOL    HW259637   1.436  10.147   6.284
52600SOL     OW59638  12.367  11.657   9.782
52600SOL    HW159639  12.307  11.583   9.773
52600SOL    HW259640  12.316  11.724   9.826
52601SOL     OW59641   5.742  11.348  14.149
52601SOL    HW159642   5.704  11.351  14.236
52601SOL    HW259643   5.824  11.299  14.159
52602SOL     OW59644  10.560   0.021  12.594
52602SOL    HW159645  10.496  14.880  12.661
52602SOL    HW259646  10.506   0.050  12.520
52603SOL     OW59647   9.738   2.236  14.855
52603SOL    HW159648   9.786   2.157  14.880
52603SOL    HW259649   9.730   2.286   0.054
52604SOL     OW59650  12.652   8.349   1.328
52604SOL    HW159651  12.604   8.358   1.246
52604SOL    HW259652  12.657   8.255   1.343
52605SOL     OW59653  11.688   4.718   2.928
52605SOL    HW159654  11.611   4.773   2.942
52605SOL    HW259655  11.729   4.755   2.849
52606SOL     OW59656   3.197   1.305  11.036
52606SOL    HW159657   3.190   1.221  10.990
52606SOL    HW259658   3.150   1.291  11.118
52607SOL     OW59659   2.371   7.018   2.389
52607SOL    HW159660   2.299   6.994   2.331
52607SOL    HW259661   2.450   6.993   2.340
52608SOL     OW59662   6.881   4.799   8.875
52608SOL    HW159663   6.910   4.748   8.800
52608SOL    HW259664   6.939   4.774   8.946
52609SOL     OW59665   3.346  13.698  12.286
52609SOL    HW159666   3.402  13.649  12.347
52609SOL    HW259667   3.328  13.636  12.216
52610SOL     OW59668   7.053   9.891   0.387
52610SOL    HW159669   7.055   9.798   0.365
52610SOL    HW259670   7.109   9.932   0.321
52611SOL     OW59671   2.957   7.611   4.000
52611SOL    HW159672   2.911   7.694   3.986
52611SOL    HW259673   2.968   7.606   4.095
52612SOL     OW59674   0.848  11.159  14.617
52612SOL    HW159675   0.839  11.089  14.552
52612SOL    HW259676   0.761  11.198  14.622
52613SOL     OW59677   8.506  14.162   1.886
52613SOL    HW159678   8.548  14.225   1.827
52613SOL    HW259679   8.523  14.077   1.846
52614SOL     OW59680   8.079  10.701  10.092
52614SOL    HW159681   8.001  10.691  10.147
52614SOL    HW259682   8.094  10.614  10.055
52615SOL     OW59683  12.237   3.446  13.763
52615SOL    HW159684  12.304   3.513  13.761
52615SOL    HW259685  12.280   3.367  13.731
52616SOL     OW59686  13.679   3.548  13.065
52616SOL    HW159687  13.603   3.547  13.123
52616SOL    HW259688  13.642   3.560  12.977
52617SOL     OW59689  10.651   2.863   2.428
52617SOL    HW159690  10.695   2.846   2.345
52617SOL    HW259691  10.611   2.949   2.417
52618SOL     OW59692   1.966  10.609  10.031
52618SOL    HW159693   1.904  10.538  10.017
52618SOL    HW259694   2.052  10.568  10.017
52619SOL     OW59695  13.744  14.683  14.479
52619SOL    HW159696  13.763  14.749  14.412
52619SOL    HW259697  13.737  14.601  14.431
52620SOL     OW59698   5.908   0.712   8.658
52620SOL    HW159699   5.836   0.650   8.668
52620SOL    HW259700   5.961   0.677   8.586
52621SOL     OW59701  11.804   9.513   6.291
52621SOL    HW159702  11.860   9.585   6.322
52621SOL    HW259703  11.792   9.458   6.368
52622SOL     OW59704   8.317   1.559  14.131
52622SOL    HW159705   8.262   1.481  14.136
52622SOL    HW259706   8.377   1.541  14.058
52623SOL     OW59707   6.354  14.483   4.581
52623SOL    HW159708   6.272  14.527   4.600
52623SOL    HW259709   6.330  14.394   4.559
52624SOL     OW59710   9.620  13.041   3.660
52624SOL    HW159711   9.661  13.080   3.582
52624SOL    HW259712   9.645  12.949   3.656
52625SOL     OW59713   4.193   4.280   2.356
52625SOL    HW159714   4.152   4.332   2.425
52625SOL    HW259715   4.132   4.208   2.340
52626SOL     OW59716  10.443   4.654  13.318
52626SOL    HW159717  10.453   4.723  13.384
52626SOL    HW259718  10.424   4.575  13.369
52627SOL     OW59719  14.119  11.598  11.317
52627SOL    HW159720  14.173  11.519  11.320
52627SOL    HW259721  14.175  11.667  11.352
52628SOL     OW59722   9.157   9.101   1.413
52628SOL    HW159723   9.187   9.170   1.354
52628SOL    HW259724   9.088   9.056   1.364
52629SOL     OW59725   6.469   6.843  11.028
52629SOL    HW159726   6.463   6.843  10.932
52629SOL    HW259727   6.485   6.934  11.051
52630SOL     OW59728  10.169   1.768   0.312
52630SOL    HW159729  10.133   1.731   0.232
52630SOL    HW259730  10.208   1.851   0.284
52631SOL     OW59731   1.867   0.831  12.470
52631SOL    HW159732   1.815   0.905  12.438
52631SOL    HW259733   1.921   0.806  12.396
52632SOL     OW59734   4.490   1.459  11.325
52632SOL    HW159735   4.426   1.404  11.280
52632SOL    HW259736   4.554   1.482  11.257
52633SOL     OW59737   0.057   8.925  11.675
52633SOL    HW159738  14.876   8.979  11.723
52633SOL    HW259739   0.133   8.982  11.663
52634SOL     OW59740   8.090   5.849   4.270
52634SOL    HW159741   8.083   5.943   4.288
52634SOL    HW259742   8.164   5.820   4.324
52635SOL     OW59743   7.554  12.736   0.934
52635SOL    HW159744   7.646  12.734   0.907
52635SOL    HW259745   7.507  12.697   0.861
52636SOL     OW59746   7.218   7.322   8.707
52636SOL    HW159747   7.275   7.245   8.707
52636SOL    HW259748   7.244   7.372   8.785
52637SOL     OW59749  11.704  14.585   3.006
52637SOL    HW159750  11.782  14.529   2.999
52637SOL    HW259751  11.651  14.544   3.075
52638SOL     OW59752   6.771  13.958   4.307
52638SOL    HW159753   6.826  13.891   4.346
52638SOL    HW259754   6.765  13.933   4.214
52639SOL     OW59755   4.396   8.413   1.418
52639SOL    HW159756   4.475   8.455   1.452
52639SOL    HW259757   4.326   8.442   1.476
52640SOL     OW59758   9.293  11.223   6.101
52640SOL    HW159759   9.223  11.186   6.154
52640SOL    HW259760   9.303  11.313   6.133
52641SOL     OW59761   6.393  13.862   4.065
52641SOL    HW159762   6.437  13.805   4.002
52641SOL    HW259763   6.300  13.843   4.053
52642SOL     OW59764  14.476  13.231  14.433
52642SOL    HW159765  14.519  13.313  14.411
52642SOL    HW259766  14.383  13.251  14.430
52643SOL     OW59767   2.823  13.504   8.837
52643SOL    HW159768   2.913  13.473   8.848
52643SOL    HW259769   2.810  13.504   8.742
52644SOL     OW59770  12.429  13.634   2.327
52644SOL    HW159771  12.333  13.635   2.324
52644SOL    HW259772  12.450  13.572   2.397
52645SOL     OW59773   1.198   6.537   8.295
52645SOL    HW159774   1.187   6.599   8.223
52645SOL    HW259775   1.198   6.592   8.373
52646SOL     OW59776   1.079  13.990   5.882
52646SOL    HW159777   1.040  14.025   5.962
52646SOL    HW259778   1.026  13.913   5.861
52647SOL     OW59779   8.975   5.121   2.859
52647SOL    HW159780   8.953   5.180   2.931
52647SOL    HW259781   9.067   5.138   2.841
52648SOL     OW59782   5.483  10.998   1.765
52648SOL    HW159783   5.468  10.909   1.734
52648SOL    HW259784   5.486  11.051   1.686
52649SOL     OW59785  12.941   9.095   5.155
52649SOL    HW159786  12.847   9.106   5.170
52649SOL    HW259787  12.964   9.016   5.206
52650SOL     OW59788  13.493   5.176   8.061
52650SOL    HW159789  13.540   5.254   8.090
52650SOL    HW259790  13.561   5.111   8.045
52651SOL     OW59791   6.708   7.757   4.388
52651SOL    HW159792   6.632   7.736   4.333
52651SOL    HW259793   6.783   7.753   4.328
52652SOL     OW59794   8.708   6.516   5.192
52652SOL    HW159795   8.647   6.533   5.120
52652SOL    HW259796   8.718   6.600   5.236
52653SOL     OW59797   4.502   9.380  14.610
52653SOL    HW159798   4.561   9.306  14.591
52653SOL    HW259799   4.523   9.445  14.543
52654SOL     OW59800   9.777   5.710   5.413
52654SOL    HW159801   9.709   5.643   5.411
52654SOL    HW259802   9.805   5.718   5.322
52655SOL     OW59803  10.249   4.945  14.811
52655SOL    HW159804  10.160   4.957  14.845
52655SOL    HW259805  10.237   4.938  14.716
52656SOL     OW59806   2.150   2.842  13.190
52656SOL    HW159807   2.240   2.824  13.216
52656SOL    HW259808   2.136   2.934  13.215
52657SOL     OW59809  13.723   3.576   1.477
52657SOL    HW159810  13.634   3.564   1.445
52657SOL    HW259811  13.777   3.580   1.397
52658SOL     OW59812   1.420  11.584  12.592
52658SOL    HW159813   1.494  11.644  12.581
52658SOL    HW259814   1.423  11.558  12.684
52659SOL     OW59815  12.707  11.807  14.526
52659SOL    HW159816  12.692  11.863  14.450
52659SOL    HW259817  12.757  11.861  14.586
52660SOL     OW59818   2.229  13.781  14.228
52660SOL    HW159819   2.203  13.781  14.136
52660SOL    HW259820   2.197  13.865  14.262
52661SOL     OW59821   7.706   7.520   5.810
52661SOL    HW159822   7.691   7.538   5.903
52661SOL    HW259823   7.670   7.432   5.797
52662SOL     OW59824   6.355   2.579  12.679
52662SOL    HW159825   6.264   2.595  12.705
52662SOL    HW259826   6.353   2.492  12.639
52663SOL     OW59827   7.817   4.385   6.990
52663SOL    HW159828   7.861   4.394   6.906
52663SOL    HW259829   7.846   4.300   7.023
52664SOL     OW59830  10.269  11.722   3.413
52664SOL    HW159831  10.339  11.750   3.354
52664SOL    HW259832  10.232  11.804   3.447
52665SOL     OW59833  10.300  13.021   4.859
52665SOL    HW159834  10.341  12.938   4.882
52665SOL    HW259835  10.294  13.069   4.942
52666SOL     OW59836   3.296  14.342  10.834
52666SOL    HW159837   3.295  14.325  10.928
52666SOL    HW259838   3.206  14.369  10.813
52667SOL     OW59839  12.124  10.846  13.978
52667SOL    HW159840  12.094  10.928  13.939
52667SOL    HW259841  12.088  10.847  14.067
52668SOL     OW59842   3.438  12.189  11.325
52668SOL    HW159843   3.368  12.137  11.365
52668SOL    HW259844   3.474  12.240  11.398
52669SOL     OW59845   8.826   3.288   4.010
52669SOL    HW159846   8.761   3.230   4.049
52669SOL    HW259847   8.904   3.234   3.999
52670SOL     OW59848  14.261   1.097  14.864
52670SOL    HW159849  14.236   1.073   0.071
52670SOL    HW259850  14.217   1.032  14.809
52671SOL     OW59851   3.774   0.623  10.494
52671SOL    HW159852   3.828   0.614  10.573
52671SOL    HW259853   3.811   0.698  10.448
52672SOL     OW59854   4.883   8.249  12.050
52672SOL    HW159855   4.878   8.159  12.016
52672SOL    HW259856   4.794   8.283  12.041
52673SOL     OW59857  10.503  11.923   0.794
52673SOL    HW159858  10.552  11.993   0.836
52673SOL    HW259859  10.519  11.846   0.849
52674SOL     OW59860   2.490   4.466  11.010
52674SOL    HW159861   2.572   4.515  11.010
52674SOL    HW259862   2.498   4.407  10.934
52675SOL     OW59863   6.510   3.061  10.311
52675SOL    HW159864   6.518   3.041  10.404
52675SOL    HW259865   6.586   3.116  10.291
52676SOL     OW59866   8.148   1.267   1.873
52676SOL    HW159867   8.132   1.355   1.907
52676SOL    HW259868   8.201   1.225   1.940
52677SOL     OW59869   7.889  12.048   4.824
52677SOL    HW159870   7.857  12.128   4.865
52677SOL    HW259871   7.823  12.026   4.759
52678SOL     OW59872   5.803  14.745   0.398
52678SOL    HW159873   5.886  14.699   0.384
52678SOL    HW259874   5.743  14.706   0.335
52679SOL     OW59875  13.861  13.992   4.200
52679SOL    HW159876  13.789  14.015   4.142
52679SOL    HW259877  13.887  14.076   4.240
52680SOL     OW59878   6.826  11.763   7.710
52680SOL    HW159879   6.752  11.714   7.673
52680SOL    HW259880   6.798  11.787   7.798
52681SOL     OW59881   1.154  12.291   9.184
52681SOL    HW159882   1.117  12.207   9.155
52681SOL    HW259883   1.102  12.357   9.139
52682SOL     OW59884   8.843  12.597   1.740
52682SOL    HW159885   8.886  12.635   1.663
52682SOL    HW259886   8.908  12.604   1.809
52683SOL     OW59887  13.926  10.334   4.825
52683SOL    HW159888  13.945  10.422   4.791
52683SOL    HW259889  13.873  10.293   4.757
52684SOL     OW59890   5.601   3.113   0.993
52684SOL    HW159891   5.649   3.062   1.058
52684SOL    HW259892   5.616   3.204   1.018
52685SOL     OW59893   5.318  13.735  10.430
52685SOL    HW159894   5.314  13.772  10.518
52685SOL    HW259895   5.386  13.667  10.435
52686SOL     OW59896   1.484   3.264   7.847
52686SOL    HW159897   1.559   3.254   7.905
52686SOL    HW259898   1.422   3.318   7.895
52687SOL     OW59899   6.558   2.422   1.020
52687SOL    HW159900   6.652   2.432   1.008
52687SOL    HW259901   6.527   2.511   1.037
52688SOL     OW59902   6.831  14.161   2.586
52688SOL    HW159903   6.737  14.177   2.575
52688SOL    HW259904   6.870  14.248   2.588
52689SOL     OW59905   1.314   4.783  14.462
52689SOL    HW159906   1.395   4.734  14.447
52689SOL    HW259907   1.332   4.870  14.427
52690SOL     OW59908  13.129   0.426   4.055
52690SOL    HW159909  13.141   0.440   3.961
52690SOL    HW259910  13.034   0.425   4.067
52691SOL     OW59911  12.213   5.555  14.183
52691SOL    HW159912  12.126   5.560  14.222
52691SOL    HW259913  12.233   5.645  14.156
52692SOL     OW59914   9.226   1.324   7.654
52692SOL    HW159915   9.189   1.237   7.639
52692SOL    HW259916   9.196   1.376   7.579
52693SOL     OW59917  13.130   5.429  13.090
52693SOL    HW159918  13.104   5.442  13.181
52693SOL    HW259919  13.181   5.348  13.091
52694SOL     OW59920  13.179   8.417  11.958
52694SOL    HW159921  13.110   8.457  12.011
52694SOL    HW259922  13.217   8.489  11.908
52695SOL     OW59923  12.045  13.961   5.216
52695SOL    HW159924  12.124  13.928   5.258
52695SOL    HW259925  11.986  13.980   5.288
52696SOL     OW59926  10.425  13.390   2.845
52696SOL    HW159927  10.349  13.447   2.849
52696SOL    HW259928  10.411  13.336   2.767
52697SOL     OW59929  14.113   6.594   2.743
52697SOL    HW159930  14.202   6.558   2.744
52697SOL    HW259931  14.060   6.527   2.787
52698SOL     OW59932   2.066  10.154   1.831
52698SOL    HW159933   2.034  10.067   1.856
52698SOL    HW259934   2.088  10.146   1.739
52699SOL     OW59935  13.719   3.016  12.172
52699SOL    HW159936  13.694   3.081  12.238
52699SOL    HW259937  13.643   2.957  12.167
52700SOL     OW59938   3.241   6.334  13.826
52700SOL    HW159939   3.209   6.253  13.787
52700SOL    HW259940   3.320   6.355  13.777
52701SOL     OW59941   7.236  14.501   3.382
52701SOL    HW159942   7.250  14.528   3.292
52701SOL    HW259943   7.306  14.544   3.432
52702SOL     OW59944   4.210   0.542   5.317
52702SOL    HW159945   4.156   0.557   5.239
52702SOL    HW259946   4.177   0.459   5.352
52703SOL     OW59947  12.116   5.017   4.665
52703SOL    HW159948  12.153   5.000   4.578
52703SOL    HW259949  12.172   5.085   4.701
52704SOL     OW59950   8.298   8.139  13.570
52704SOL    HW159951   8.290   8.047  13.545
52704SOL    HW259952   8.212   8.163  13.603
52705SOL     OW59953  11.444  12.519   1.308
52705SOL    HW159954  11.485  12.595   1.351
52705SOL    HW259955  11.389  12.480   1.376
52706SOL     OW59956   9.229   4.037   7.508
52706SOL    HW159957   9.210   4.130   7.522
52706SOL    HW259958   9.321   4.035   7.484
52707SOL     OW59959   3.270  13.120   0.174
52707SOL    HW159960   3.319  13.117   0.092
52707SOL    HW259961   3.315  13.057   0.231
52708SOL     OW59962   3.935  12.783   5.587
52708SOL    HW159963   3.896  12.861   5.625
52708SOL    HW259964   3.980  12.814   5.509
52709SOL     OW59965   3.093   4.506   2.197
52709SOL    HW159966   3.065   4.554   2.275
52709SOL    HW259967   3.144   4.432   2.232
52710SOL     OW59968   9.402  11.915  14.795
52710SOL    HW159969   9.487  11.945  14.763
52710SOL    HW259970   9.395  11.950   0.002
52711SOL     OW59971  10.027  14.273   4.190
52711SOL    HW159972   9.934  14.254   4.203
52711SOL    HW259973  10.028  14.355   4.140
52712SOL     OW59974  10.739   0.919   5.434
52712SOL    HW159975  10.667   0.936   5.495
52712SOL    HW259976  10.818   0.931   5.486
52713SOL     OW59977   8.415   3.820   8.696
52713SOL    HW159978   8.365   3.843   8.775
52713SOL    HW259979   8.403   3.894   8.637
52714SOL     OW59980   8.964   7.761   5.088
52714SOL    HW159981   9.053   7.796   5.079
52714SOL    HW259982   8.953   7.703   5.013
52715SOL     OW59983   2.859   4.728  10.060
52715SOL    HW159984   2.838   4.670   9.987
52715SOL    HW259985   2.948   4.757  10.043
52716SOL     OW59986   0.023  10.412   8.564
52716SOL    HW159987  14.828  10.431   8.510
52716SOL    HW259988   0.061  10.498   8.583
52717SOL     OW59989   2.882   0.288  14.856
52717SOL    HW159990   2.796   0.268  14.817
52717SOL    HW259991   2.864   0.299   0.067
52718SOL     OW59992   1.504   9.889   9.808
52718SOL    HW159993   1.532   9.883   9.717
52718SOL    HW259994   1.425   9.941   9.806
52719SOL     OW59995  12.097   4.988   5.453
52719SOL    HW159996  12.177   4.941   5.431
52719SOL    HW259997  12.071   5.033   5.373
52720SOL     OW59998   8.425   7.334   2.723
52720SOL    HW159999   8.487   7.339   2.796
52720SOL    HW260000   8.433   7.245   2.690
52721SOL     OW60001   7.487   1.532   7.922
52721SOL    HW160002   7.482   1.510   7.829
52721SOL    HW260003   7.439   1.462   7.966
52722SOL     OW60004   6.420  12.397  13.204
52722SOL    HW160005   6.460  12.342  13.271
52722SOL    HW260006   6.485  12.465  13.186
52723SOL     OW60007  12.063   8.270   5.222
52723SOL    HW160008  11.996   8.315   5.171
52723SOL    HW260009  12.101   8.339   5.277
52724SOL     OW60010   0.479   6.414  10.536
52724SOL    HW160011   0.393   6.454  10.527
52724SOL    HW260012   0.518   6.421  10.449
52725SOL     OW60013   8.353   9.196  10.481
52725SOL    HW160014   8.290   9.216  10.413
52725SOL    HW260015   8.400   9.119  10.449
52726SOL     OW60016   4.039  14.312   7.197
52726SOL    HW160017   4.023  14.231   7.244
52726SOL    HW260018   4.126  14.301   7.158
52727SOL     OW60019   6.338   5.307   8.470
52727SOL    HW160020   6.417   5.332   8.518
52727SOL    HW260021   6.319   5.382   8.414
52728SOL     OW60022   0.224  11.277   6.899
52728SOL    HW160023   0.316  11.271   6.870
52728SOL    HW260024   0.201  11.186   6.920
52729SOL     OW60025   6.725   2.676   0.417
52729SOL    HW160026   6.775   2.651   0.495
52729SOL    HW260027   6.652   2.615   0.415
52730SOL     OW60028   1.026  14.721   9.209
52730SOL    HW160029   0.939  14.725   9.169
52730SOL    HW260030   1.023  14.785   9.280
52731SOL     OW60031   0.166   8.318   5.753
52731SOL    HW160032   0.108   8.350   5.823
52731SOL    HW260033   0.162   8.223   5.759
52732SOL     OW60034  10.216   8.527   0.699
52732SOL    HW160035  10.241   8.614   0.669
52732SOL    HW260036  10.138   8.541   0.752
52733SOL     OW60037  14.154   5.933   6.599
52733SOL    HW160038  14.178   5.867   6.663
52733SOL    HW260039  14.121   6.007   6.651
52734SOL     OW60040   3.458   5.223   9.909
52734SOL    HW160041   3.552   5.240   9.896
52734SOL    HW260042   3.416   5.266   9.835
52735SOL     OW60043   8.709   6.021  10.419
52735SOL    HW160044   8.755   5.945  10.456
52735SOL    HW260045   8.732   6.020  10.326
52736SOL     OW60046   5.473  12.157   1.525
52736SOL    HW160047   5.422  12.220   1.473
52736SOL    HW260048   5.427  12.153   1.608
52737SOL     OW60049   5.616   0.306   7.234
52737SOL    HW160050   5.706   0.314   7.264
52737SOL    HW260051   5.623   0.277   7.143
52738SOL     OW60052   8.526   4.396  11.377
52738SOL    HW160053   8.532   4.478  11.426
52738SOL    HW260054   8.445   4.356  11.409
52739SOL     OW60055  11.555   0.973   3.517
52739SOL    HW160056  11.647   0.962   3.540
52739SOL    HW260057  11.545   0.920   3.438
52740SOL     OW60058  12.295   5.435  12.344
52740SOL    HW160059  12.300   5.396  12.431
52740SOL    HW260060  12.211   5.481  12.343
52741SOL     OW60061  10.673   5.915  12.726
52741SOL    HW160062  10.716   5.829  12.729
52741SOL    HW260063  10.693   5.949  12.639
52742SOL     OW60064  11.328   5.201   0.387
52742SOL    HW160065  11.418   5.226   0.408
52742SOL    HW260066  11.334   5.163   0.299
52743SOL     OW60067   0.499   5.721  11.891
52743SOL    HW160068   0.558   5.791  11.918
52743SOL    HW260069   0.521   5.705  11.799
52744SOL     OW60070   0.812  12.737   8.522
52744SOL    HW160071   0.758  12.661   8.502
52744SOL    HW260072   0.756  12.794   8.575
52745SOL     OW60073   5.116  14.461   3.181
52745SOL    HW160074   5.140  14.369   3.172
52745SOL    HW260075   5.155  14.488   3.264
52746SOL     OW60076   7.131   1.035  10.213
52746SOL    HW160077   7.094   1.045  10.125
52746SOL    HW260078   7.055   1.037  10.271
52747SOL     OW60079  12.799   1.864  13.443
52747SOL    HW160080  12.765   1.922  13.511
52747SOL    HW260081  12.892   1.855  13.463
52748SOL     OW60082  12.340   0.071  14.690
52748SOL    HW160083  12.395  14.877  14.707
52748SOL    HW260084  12.259   0.053  14.738
52749SOL     OW60085   5.540   4.619   4.364
52749SOL    HW160086   5.541   4.575   4.448
52749SOL    HW260087   5.449   4.646   4.351
52750SOL     OW60088   7.587  11.540  14.261
52750SOL    HW160089   7.671  11.525  14.304
52750SOL    HW260090   7.551  11.617  14.305
52751SOL     OW60091   8.498  10.132  13.559
52751SOL    HW160092   8.402  10.128  13.556
52751SOL    HW260093   8.518  10.169  13.645
52752SOL     OW60094   9.037  14.307   2.745
52752SOL    HW160095   9.131  14.318   2.731
52752SOL    HW260096   9.022  14.212   2.739
52753SOL     OW60097  13.867  13.386  14.541
52753SOL    HW160098  13.915  13.439  14.605
52753SOL    HW260099  13.933  13.359  14.477
52754SOL     OW60100   4.593  12.579  11.124
52754SOL    HW160101   4.570  12.537  11.206
52754SOL    HW260102   4.545  12.529  11.057
52755SOL     OW60103   5.625   5.689   8.953
52755SOL    HW160104   5.678   5.754   8.907
52755SOL    HW260105   5.547   5.679   8.899
52756SOL     OW60106  13.973   8.567   6.332
52756SOL    HW160107  13.923   8.649   6.333
52756SOL    HW260108  13.906   8.498   6.338
52757SOL     OW60109  13.876   7.970   9.057
52757SOL    HW160110  13.828   8.046   9.025
52757SOL    HW260111  13.883   7.912   8.982
52758SOL     OW60112  10.934   0.843   0.273
52758SOL    HW160113  10.989   0.845   0.195
52758SOL    HW260114  10.845   0.834   0.239
52759SOL     OW60115   8.773   3.786   7.755
52759SOL    HW160116   8.808   3.822   7.837
52759SOL    HW260117   8.843   3.731   7.721
52760SOL     OW60118   4.347   1.868   9.693
52760SOL    HW160119   4.357   1.942   9.754
52760SOL    HW260120   4.308   1.907   9.615
52761SOL     OW60121   2.655  13.432  12.678
52761SOL    HW160122   2.744  13.433  12.714
52761SOL    HW260123   2.602  13.394  12.748
52762SOL     OW60124   1.627   1.161   6.096
52762SOL    HW160125   1.703   1.213   6.067
52762SOL    HW260126   1.647   1.072   6.068
52763SOL     OW60127   8.033   0.480   0.648
52763SOL    HW160128   7.952   0.456   0.604
52763SOL    HW260129   8.018   0.457   0.740
52764SOL     OW60130   8.306  10.648   1.305
52764SOL    HW160131   8.348  10.687   1.382
52764SOL    HW260132   8.334  10.703   1.232
52765SOL     OW60133   1.285   0.869  10.556
52765SOL    HW160134   1.345   0.795  10.545
52765SOL    HW260135   1.339   0.946  10.537
52766SOL     OW60136   0.513   6.254   9.549
52766SOL    HW160137   0.514   6.164   9.581
52766SOL    HW260138   0.421   6.278   9.550
52767SOL     OW60139   4.794   2.066  12.012
52767SOL    HW160140   4.835   2.150  11.992
52767SOL    HW260141   4.717   2.063  11.955
52768SOL     OW60142   7.113  11.061   0.493
52768SOL    HW160143   7.018  11.049   0.483
52768SOL    HW260144   7.146  10.972   0.507
52769SOL     OW60145   6.992   1.947   6.688
52769SOL    HW160146   7.002   2.035   6.723
52769SOL    HW260147   6.898   1.940   6.669
52770SOL     OW60148   9.153   2.223   0.447
52770SOL    HW160149   9.189   2.190   0.365
52770SOL    HW260150   9.221   2.206   0.512
52771SOL     OW60151   2.512   0.576   4.912
52771SOL    HW160152   2.434   0.625   4.884
52771SOL    HW260153   2.582   0.641   4.913
52772SOL     OW60154   9.488   1.237   5.764
52772SOL    HW160155   9.428   1.280   5.826
52772SOL    HW260156   9.573   1.276   5.783
52773SOL     OW60157  13.994   9.561  14.309
52773SOL    HW160158  14.078   9.572  14.265
52773SOL    HW260159  13.999   9.475  14.350
52774SOL     OW60160   6.373  14.697   4.147
52774SOL    HW160161   6.418  14.650   4.217
52774SOL    HW260162   6.301  14.741   4.190
52775SOL     OW60163   3.553   5.764   1.473
52775SOL    HW160164   3.644   5.747   1.498
52775SOL    HW260165   3.535   5.851   1.507
52776SOL     OW60166   8.172   8.069   7.217
52776SOL    HW160167   8.093   8.101   7.173
52776SOL    HW260168   8.215   8.013   7.152
52777SOL     OW60169   7.414   6.078   9.966
52777SOL    HW160170   7.403   6.019   9.891
52777SOL    HW260171   7.424   6.165   9.927
52778SOL     OW60172   1.316   9.000   6.895
52778SOL    HW160173   1.371   9.060   6.844
52778SOL    HW260174   1.227   9.018   6.866
52779SOL     OW60175   9.384   2.925  13.020
52779SOL    HW160176   9.357   2.836  13.044
52779SOL    HW260177   9.309   2.961  12.974
52780SOL     OW60178   6.350   3.022   0.484
52780SOL    HW160179   6.292   3.045   0.556
52780SOL    HW260180   6.354   2.927   0.487
52781SOL     OW60181   8.339   3.018   1.861
52781SOL    HW160182   8.318   2.979   1.945
52781SOL    HW260183   8.362   3.109   1.881
52782SOL     OW60184  14.217  10.890  10.016
52782SOL    HW160185  14.290  10.830   9.996
52782SOL    HW260186  14.248  10.976   9.988
52783SOL     OW60187   4.179  14.163   0.542
52783SOL    HW160188   4.239  14.102   0.583
52783SOL    HW260189   4.178  14.239   0.599
52784SOL     OW60190   1.782   9.969   5.270
52784SOL    HW160191   1.721  10.038   5.298
52784SOL    HW260192   1.808   9.925   5.350
52785SOL     OW60193   1.697   1.067  10.562
52785SOL    HW160194   1.759   1.017  10.615
52785SOL    HW260195   1.717   1.043  10.472
52786SOL     OW60196   6.597  12.171   5.751
52786SOL    HW160197   6.569  12.189   5.840
52786SOL    HW260198   6.676  12.118   5.760
52787SOL     OW60199   2.584   0.088   2.881
52787SOL    HW160200   2.650   0.059   2.819
52787SOL    HW260201   2.595   0.031   2.957
52788SOL     OW60202  11.107   4.329   5.949
52788SOL    HW160203  11.146   4.401   5.900
52788SOL    HW260204  11.085   4.263   5.883
52789SOL     OW60205  12.793   8.193   4.948
52789SOL    HW160206  12.747   8.192   4.864
52789SOL    HW260207  12.739   8.139   5.006
52790SOL     OW60208  11.289   6.399   0.457
52790SOL    HW160209  11.352   6.383   0.527
52790SOL    HW260210  11.325   6.473   0.408
52791SOL     OW60211  13.824   6.535  14.165
52791SOL    HW160212  13.752   6.534  14.102
52791SOL    HW260213  13.840   6.443  14.184
52792SOL     OW60214   4.179   1.594   5.031
52792SOL    HW160215   4.160   1.500   5.042
52792SOL    HW260216   4.118   1.638   5.089
52793SOL     OW60217  11.601   9.698   6.960
52793SOL    HW160218  11.690   9.731   6.947
52793SOL    HW260219  11.583   9.647   6.881
52794SOL     OW60220  12.207   5.803   3.300
52794SOL    HW160221  12.218   5.862   3.375
52794SOL    HW260222  12.128   5.835   3.256
52795SOL     OW60223   7.508   0.151  14.479
52795SOL    HW160224   7.508   0.121  14.388
52795SOL    HW260225   7.548   0.238  14.476
52796SOL     OW60226  10.933  12.102   8.896
52796SOL    HW160227  10.859  12.095   8.956
52796SOL    HW260228  10.994  12.161   8.940
52797SOL     OW60229   9.230  13.057  10.402
52797SOL    HW160230   9.139  13.044  10.375
52797SOL    HW260231   9.235  13.150  10.426
52798SOL     OW60232   1.924   8.425   0.012
52798SOL    HW160233   2.001   8.388  14.853
52798SOL    HW260234   1.858   8.428  14.825
52799SOL     OW60235   9.824  12.081  10.661
52799SOL    HW160236   9.913  12.116  10.662
52799SOL    HW260237   9.813  12.040  10.747
52800SOL     OW60238   7.402  11.642  12.329
52800SOL    HW160239   7.377  11.603  12.413
52800SOL    HW260240   7.494  11.618  12.319
52801SOL     OW60241  14.642   7.786   9.587
52801SOL    HW160242  14.654   7.786   9.682
52801SOL    HW260243  14.573   7.721   9.572
52802SOL     OW60244   2.176  10.713   2.878
52802SOL    HW160245   2.264  10.737   2.906
52802SOL    HW260246   2.172  10.737   2.785
52803SOL     OW60247   1.152   8.652   7.428
52803SOL    HW160248   1.066   8.621   7.456
52803SOL    HW260249   1.144   8.662   7.333
52804SOL     OW60250   2.022  12.884   2.600
52804SOL    HW160251   2.078  12.882   2.523
52804SOL    HW260252   2.017  12.792   2.629
52805SOL     OW60253  13.988   0.726   3.006
52805SOL    HW160254  13.980   0.672   2.927
52805SOL    HW260255  14.055   0.682   3.058
52806SOL     OW60256  12.741   3.067   8.378
52806SOL    HW160257  12.780   3.072   8.290
52806SOL    HW260258  12.783   2.991   8.419
52807SOL     OW60259   9.328   5.035   8.980
52807SOL    HW160260   9.285   5.096   8.920
52807SOL    HW260261   9.313   5.072   9.067
52808SOL     OW60262   2.433   0.695  12.509
52808SOL    HW160263   2.429   0.612  12.556
52808SOL    HW260264   2.364   0.689  12.443
52809SOL     OW60265   4.664   0.535   2.283
52809SOL    HW160266   4.707   0.536   2.369
52809SOL    HW260267   4.676   0.446   2.251
52810SOL     OW60268  11.493   6.274  11.686
52810SOL    HW160269  11.459   6.237  11.768
52810SOL    HW260270  11.581   6.305  11.709
52811SOL     OW60271   4.745  12.596  10.056
52811SOL    HW160272   4.703  12.679  10.078
52811SOL    HW260273   4.708  12.572   9.971
52812SOL     OW60274   8.447  10.329   4.977
52812SOL    HW160275   8.471  10.239   4.953
52812SOL    HW260276   8.500  10.348   5.054
52813SOL     OW60277   5.951   6.617   7.643
52813SOL    HW160278   5.873   6.653   7.684
52813SOL    HW260279   6.011   6.691   7.636
52814SOL     OW60280   6.791   6.163   4.605
52814SOL    HW160281   6.846   6.165   4.527
52814SOL    HW260282   6.748   6.078   4.602
52815SOL     OW60283   3.103  11.270  13.053
52815SOL    HW160284   3.107  11.341  13.117
52815SOL    HW260285   3.146  11.196  13.097
52816SOL     OW60286  13.501   5.329   5.402
52816SOL    HW160287  13.475   5.420   5.417
52816SOL    HW260288  13.449   5.278   5.464
52817SOL     OW60289   7.890   0.059   4.087
52817SOL    HW160290   7.983   0.046   4.066
52817SOL    HW260291   7.887   0.145   4.128
52818SOL     OW60292   6.764  12.542  10.668
52818SOL    HW160293   6.826  12.605  10.705
52818SOL    HW260294   6.745  12.576  10.580
52819SOL     OW60295   8.769   3.264   3.526
52819SOL    HW160296   8.763   3.193   3.462
52819SOL    HW260297   8.832   3.325   3.489
52820SOL     OW60298   9.783   7.743   0.136
52820SOL    HW160299   9.873   7.754   0.106
52820SOL    HW260300   9.757   7.657   0.104
52821SOL     OW60301   7.536   6.324   7.394
52821SOL    HW160302   7.609   6.283   7.441
52821SOL    HW260303   7.469   6.255   7.390
52822SOL     OW60304   7.300  13.291   1.259
52822SOL    HW160305   7.393  13.308   1.242
52822SOL    HW260306   7.289  13.311   1.352
52823SOL     OW60307  12.155  14.716   1.789
52823SOL    HW160308  12.246  14.743   1.802
52823SOL    HW260309  12.154  14.623   1.812
52824SOL     OW60310   3.763  11.489  12.485
52824SOL    HW160311   3.852  11.453  12.482
52824SOL    HW260312   3.757  11.531  12.571
52825SOL     OW60313   0.423   8.076   0.210
52825SOL    HW160314   0.468   8.012   0.265
52825SOL    HW260315   0.352   8.027   0.168
52826SOL     OW60316  13.081   5.373   3.195
52826SOL    HW160317  13.080   5.348   3.287
52826SOL    HW260318  13.132   5.305   3.151
52827SOL     OW60319  11.165   5.144  12.972
52827SOL    HW160320  11.250   5.180  12.995
52827SOL    HW260321  11.104   5.185  13.034
52828SOL     OW60322   0.787   9.821   0.149
52828SOL    HW160323   0.839   9.756   0.103
52828SOL    HW260324   0.705   9.776   0.170
52829SOL     OW60325  10.242  12.183  10.869
52829SOL    HW160326  10.189  12.257  10.899
52829SOL    HW260327  10.331  12.217  10.865
52830SOL     OW60328   8.688   1.099   1.335
52830SOL    HW160329   8.729   1.143   1.261
52830SOL    HW260330   8.663   1.170   1.394
52831SOL     OW60331   3.180   7.840  10.955
52831SOL    HW160332   3.270   7.832  10.921
52831SOL    HW260333   3.183   7.916  11.012
52832SOL     OW60334  12.011   7.591  10.924
52832SOL    HW160335  12.022   7.511  10.974
52832SOL    HW260336  12.085   7.593  10.863
52833SOL     OW60337  12.849   6.312   4.210
52833SOL    HW160338  12.935   6.275   4.188
52833SOL    HW260339  12.848   6.314   4.305
52834SOL     OW60340  11.487   4.342   0.321
52834SOL    HW160341  11.452   4.386   0.243
52834SOL    HW260342  11.410   4.304   0.364
52835SOL     OW60343   2.978   6.373   2.891
52835SOL    HW160344   3.048   6.332   2.942
52835SOL    HW260345   2.912   6.399   2.957
52836SOL     OW60346   3.142  14.070   4.772
52836SOL    HW160347   3.194  13.992   4.789
52836SOL    HW260348   3.119  14.102   4.860
52837SOL     OW60349   7.772   5.526   9.073
52837SOL    HW160350   7.729   5.579   9.006
52837SOL    HW260351   7.701   5.476   9.113
52838SOL     OW60352   7.787   5.266   5.217
52838SOL    HW160353   7.778   5.277   5.312
52838SOL    HW260354   7.716   5.320   5.181
52839SOL     OW60355   1.344   5.526  12.060
52839SOL    HW160356   1.256   5.564  12.049
52839SOL    HW260357   1.357   5.474  11.981
52840SOL     OW60358  10.709  10.125   7.215
52840SOL    HW160359  10.786  10.180   7.204
52840SOL    HW260360  10.741  10.036   7.201
52841SOL     OW60361   4.299  12.037   3.770
52841SOL    HW160362   4.280  12.127   3.745
52841SOL    HW260363   4.389  12.041   3.805
52842SOL     OW60364   6.074   1.515   3.768
52842SOL    HW160365   6.061   1.567   3.848
52842SOL    HW260366   5.993   1.529   3.718
52843SOL     OW60367   8.379   5.345   6.684
52843SOL    HW160368   8.385   5.408   6.756
52843SOL    HW260369   8.383   5.397   6.605
52844SOL     OW60370  12.871  12.410  14.212
52844SOL    HW160371  12.820  12.329  14.217
52844SOL    HW260372  12.907  12.421  14.300
52845SOL     OW60373   8.508   9.516   2.083
52845SOL    HW160374   8.600   9.492   2.081
52845SOL    HW260375   8.464   9.454   2.026
52846SOL     OW60376   2.320  12.630   6.980
52846SOL    HW160377   2.332  12.567   7.051
52846SOL    HW260378   2.408  12.660   6.960
52847SOL     OW60379   4.937  13.683   8.996
52847SOL    HW160380   5.008  13.651   9.052
52847SOL    HW260381   4.918  13.610   8.937
52848SOL     OW60382   0.849   7.056   9.895
52848SOL    HW160383   0.877   7.025   9.809
52848SOL    HW260384   0.877   7.147   9.899
52849SOL     OW60385   7.575   7.223   6.813
52849SOL    HW160386   7.656   7.189   6.851
52849SOL    HW260387   7.509   7.211   6.882
52850SOL     OW60388  11.469   1.514   0.860
52850SOL    HW160389  11.417   1.435   0.850
52850SOL    HW260390  11.509   1.505   0.947
52851SOL     OW60391   8.042   1.384  13.415
52851SOL    HW160392   7.993   1.394  13.333
52851SOL    HW260393   7.993   1.436  13.479
52852SOL     OW60394   2.753  14.421   6.667
52852SOL    HW160395   2.753  14.348   6.605
52852SOL    HW260396   2.826  14.477   6.639
52853SOL     OW60397   2.583  14.696   7.771
52853SOL    HW160398   2.548  14.775   7.810
52853SOL    HW260399   2.615  14.724   7.685
52854SOL     OW60400   0.651  14.780   2.177
52854SOL    HW160401   0.640  14.874   2.194
52854SOL    HW260402   0.579  14.738   2.225
52855SOL     OW60403   5.486   3.811  13.446
52855SOL    HW160404   5.481   3.717  13.466
52855SOL    HW260405   5.531   3.815  13.362
52856SOL     OW60406   8.527   8.343  14.522
52856SOL    HW160407   8.560   8.432  14.516
52856SOL    HW260408   8.564   8.298  14.446
52857SOL     OW60409   7.032   3.120   3.837
52857SOL    HW160410   7.098   3.066   3.881
52857SOL    HW260411   6.953   3.107   3.890
52858SOL     OW60412   9.416   0.072   4.856
52858SOL    HW160413   9.455  14.871   4.829
52858SOL    HW260414   9.331   0.048   4.892
52859SOL     OW60415   3.195  12.275  14.455
52859SOL    HW160416   3.181  12.185  14.485
52859SOL    HW260417   3.115  12.321  14.481
52860SOL     OW60418  10.469   7.929   8.932
52860SOL    HW160419  10.404   7.863   8.909
52860SOL    HW260420  10.437   7.966   9.014
52861SOL     OW60421   4.953   0.693   0.391
52861SOL    HW160422   5.047   0.708   0.380
52861SOL    HW260423   4.922   0.670   0.303
52862SOL     OW60424   7.709   3.795   4.868
52862SOL    HW160425   7.774   3.754   4.811
52862SOL    HW260426   7.657   3.850   4.810
52863SOL     OW60427  14.489  14.061   6.085
52863SOL    HW160428  14.480  13.974   6.123
52863SOL    HW260429  14.456  14.120   6.152
52864SOL     OW60430   9.083   0.890  13.500
52864SOL    HW160431   8.999   0.930  13.525
52864SOL    HW260432   9.149   0.946  13.539
52865SOL     OW60433   6.014   3.045   3.411
52865SOL    HW160434   6.029   3.016   3.501
52865SOL    HW260435   5.919   3.052   3.404
52866SOL     OW60436   2.689   2.982  14.684
52866SOL    HW160437   2.678   3.035  14.762
52866SOL    HW260438   2.743   3.035  14.626
52867SOL     OW60439  13.247   4.298   0.073
52867SOL    HW160440  13.187   4.327   0.141
52867SOL    HW260441  13.222   4.207   0.057
52868SOL     OW60442   4.851   0.638  11.360
52868SOL    HW160443   4.839   0.543  11.350
52868SOL    HW260444   4.940   0.647  11.393
52869SOL     OW60445  13.075  14.196  13.740
52869SOL    HW160446  13.084  14.208  13.835
52869SOL    HW260447  13.149  14.142  13.715
52870SOL     OW60448   0.238   9.102  12.408
52870SOL    HW160449   0.295   9.148  12.470
52870SOL    HW260450   0.193   9.036  12.462
52871SOL     OW60451   7.338  10.513  11.667
52871SOL    HW160452   7.245  10.505  11.649
52871SOL    HW260453   7.378  10.533  11.582
52872SOL     OW60454   2.834   9.416   2.005
52872SOL    HW160455   2.911   9.471   1.995
52872SOL    HW260456   2.790   9.420   1.920
52873SOL     OW60457   2.215   9.255  11.176
52873SOL    HW160458   2.126   9.223  11.166
52873SOL    HW260459   2.235   9.241  11.269
52874SOL     OW60460  10.981  14.194   8.393
52874SOL    HW160461  10.940  14.222   8.475
52874SOL    HW260462  10.908  14.181   8.332
52875SOL     OW60463  10.678   0.913   8.735
52875SOL    HW160464  10.696   0.919   8.829
52875SOL    HW260465  10.668   1.003   8.706
52876SOL     OW60466  11.530   1.579   4.313
52876SOL    HW160467  11.486   1.497   4.290
52876SOL    HW260468  11.623   1.561   4.300
52877SOL     OW60469  13.790  12.308  10.375
52877SOL    HW160470  13.765  12.303  10.282
52877SOL    HW260471  13.800  12.217  10.401
52878SOL     OW60472  11.936  12.866   4.654
52878SOL    HW160473  12.015  12.889   4.702
52878SOL    HW260474  11.937  12.770   4.649
52879SOL     OW60475   7.407   8.379   7.391
52879SOL    HW160476   7.377   8.463   7.357
52879SOL    HW260477   7.360   8.314   7.339
52880SOL     OW60478   1.795  12.650  11.139
52880SOL    HW160479   1.888  12.667  11.150
52880SOL    HW260480   1.768  12.709  11.068
52881SOL     OW60481   3.158   8.356   7.644
52881SOL    HW160482   3.172   8.355   7.738
52881SOL    HW260483   3.063   8.356   7.634
52882SOL     OW60484   9.896  10.911   6.061
52882SOL    HW160485   9.815  10.953   6.033
52882SOL    HW260486   9.870  10.822   6.083
52883SOL     OW60487   7.751   8.491   2.499
52883SOL    HW160488   7.733   8.556   2.432
52883SOL    HW260489   7.694   8.515   2.572
52884SOL     OW60490  13.921   2.805  14.657
52884SOL    HW160491  13.912   2.728  14.713
52884SOL    HW260492  14.007   2.794  14.616
52885SOL     OW60493   1.906  14.878  14.763
52885SOL    HW160494   1.931  14.804  14.819
52885SOL    HW260495   1.985   0.048  14.755
52886SOL     OW60496  13.261  12.556  11.228
52886SOL    HW160497  13.275  12.464  11.250
52886SOL    HW260498  13.167  12.563  11.214
52887SOL     OW60499   4.204  11.055   5.338
52887SOL    HW160500   4.187  11.006   5.419
52887SOL    HW260501   4.286  11.019   5.305
52888SOL     OW60502   2.956  13.241   5.975
52888SOL    HW160503   2.961  13.146   5.973
52888SOL    HW260504   3.022  13.270   5.912
52889SOL     OW60505   9.489   4.069   3.416
52889SOL    HW160506   9.439   3.998   3.456
52889SOL    HW260507   9.580   4.050   3.439
52890SOL     OW60508   2.505   9.706   7.391
52890SOL    HW160509   2.466   9.738   7.309
52890SOL    HW260510   2.488   9.776   7.454
52891SOL     OW60511  14.565   1.508  11.407
52891SOL    HW160512  14.634   1.575  11.410
52891SOL    HW260513  14.557   1.478  11.498
52892SOL     OW60514   1.940  11.653   8.121
52892SOL    HW160515   2.002  11.679   8.052
52892SOL    HW260516   1.978  11.573   8.158
52893SOL     OW60517  10.862   1.244  13.366
52893SOL    HW160518  10.846   1.338  13.361
52893SOL    HW260519  10.939   1.235  13.421
52894SOL     OW60520   6.016   0.509  10.406
52894SOL    HW160521   5.993   0.519  10.499
52894SOL    HW260522   5.940   0.544  10.359
52895SOL     OW60523   0.130  12.217   6.422
52895SOL    HW160524   0.047  12.192   6.462
52895SOL    HW260525   0.141  12.155   6.350
52896SOL     OW60526   4.538   1.588   7.153
52896SOL    HW160527   4.449   1.592   7.118
52896SOL    HW260528   4.553   1.495   7.168
52897SOL     OW60529  13.672   6.301   0.105
52897SOL    HW160530  13.613   6.367   0.067
52897SOL    HW260531  13.757   6.321   0.067
52898SOL     OW60532  11.538   2.957  11.817
52898SOL    HW160533  11.555   2.898  11.743
52898SOL    HW260534  11.487   3.029  11.778
52899SOL     OW60535  11.916   7.013  12.207
52899SOL    HW160536  12.006   7.043  12.215
52899SOL    HW260537  11.918   6.949  12.136
52900SOL     OW60538   1.203   3.458   1.764
52900SOL    HW160539   1.118   3.436   1.726
52900SOL    HW260540   1.241   3.374   1.789
52901SOL     OW60541   8.165  13.747  11.292
52901SOL    HW160542   8.206  13.834  11.291
52901SOL    HW260543   8.229  13.692  11.338
52902SOL     OW60544   5.146   4.204   3.973
52902SOL    HW160545   5.185   4.286   3.942
52902SOL    HW260546   5.076   4.232   4.032
52903SOL     OW60547   1.683   0.133   2.569
52903SOL    HW160548   1.770   0.158   2.600
52903SOL    HW260549   1.663   0.051   2.614
52904SOL     OW60550  11.076   8.962   4.437
52904SOL    HW160551  11.117   8.979   4.521
52904SOL    HW260552  11.088   9.043   4.387
52905SOL     OW60553   8.182   8.212  12.943
52905SOL    HW160554   8.088   8.229  12.934
52905SOL    HW260555   8.219   8.298  12.962
52906SOL     OW60556   8.330   5.533   6.914
52906SOL    HW160557   8.297   5.454   6.959
52906SOL    HW260558   8.321   5.603   6.979
52907SOL     OW60559   2.888   7.804   9.220
52907SOL    HW160560   2.897   7.709   9.220
52907SOL    HW260561   2.801   7.821   9.255
52908SOL     OW60562  14.207   1.427  11.833
52908SOL    HW160563  14.218   1.351  11.776
52908SOL    HW260564  14.259   1.406  11.911
52909SOL     OW60565   8.821  14.658   5.857
52909SOL    HW160566   8.773  14.585   5.898
52909SOL    HW260567   8.799  14.734   5.910
52910SOL     OW60568   4.270  13.754   9.451
52910SOL    HW160569   4.194  13.747   9.509
52910SOL    HW260570   4.292  13.663   9.430
52911SOL     OW60571   0.987  13.029   2.438
52911SOL    HW160572   1.029  12.969   2.377
52911SOL    HW260573   0.946  12.972   2.503
52912SOL     OW60574   7.613   7.265   5.860
52912SOL    HW160575   7.658   7.273   5.944
52912SOL    HW260576   7.520   7.262   5.883
52913SOL     OW60577   8.256   1.708   7.207
52913SOL    HW160578   8.189   1.761   7.250
52913SOL    HW260579   8.209   1.662   7.137
52914SOL     OW60580   5.214   6.328   7.447
52914SOL    HW160581   5.147   6.348   7.382
52914SOL    HW260582   5.184   6.248   7.489
52915SOL     OW60583  10.577   6.537  10.534
52915SOL    HW160584  10.625   6.461  10.501
52915SOL    HW260585  10.489   6.504  10.551
52916SOL     OW60586  13.269  13.437   4.044
52916SOL    HW160587  13.216  13.389   4.108
52916SOL    HW260588  13.238  13.528   4.052
52917SOL     OW60589   1.175   3.528   5.378
52917SOL    HW160590   1.105   3.590   5.399
52917SOL    HW260591   1.232   3.530   5.455
52918SOL     OW60592   7.821   4.193  10.850
52918SOL    HW160593   7.747   4.215  10.793
52918SOL    HW260594   7.788   4.208  10.939
52919SOL     OW60595  11.475   8.172   4.693
52919SOL    HW160596  11.447   8.261   4.715
52919SOL    HW260597  11.570   8.173   4.708
52920SOL     OW60598  11.973  13.357   2.739
52920SOL    HW160599  12.057  13.383   2.702
52920SOL    HW260600  11.911  13.369   2.667
52921SOL     OW60601   6.441  10.640  13.271
52921SOL    HW160602   6.425  10.546  13.263
52921SOL    HW260603   6.356  10.680  13.252
52922SOL     OW60604   9.487   6.183   5.020
52922SOL    HW160605   9.528   6.102   4.988
52922SOL    HW260606   9.500   6.246   4.949
52923SOL     OW60607  12.354  11.764  14.112
52923SOL    HW160608  12.316  11.812  14.039
52923SOL    HW260609  12.449  11.772  14.099
52924SOL     OW60610  13.840  10.879   4.880
52924SOL    HW160611  13.772  10.938   4.846
52924SOL    HW260612  13.791  10.810   4.924
52925SOL     OW60613   2.917  13.757   0.963
52925SOL    HW160614   2.902  13.850   0.945
52925SOL    HW260615   3.009  13.752   0.988
52926SOL     OW60616   7.055   0.533   8.730
52926SOL    HW160617   7.092   0.493   8.652
52926SOL    HW260618   7.064   0.627   8.717
52927SOL     OW60619   9.844  14.068   0.868
52927SOL    HW160620   9.808  14.095   0.952
52927SOL    HW260621   9.912  14.005   0.891
52928SOL     OW60622  14.408   4.981   5.238
52928SOL    HW160623  14.436   5.040   5.309
52928SOL    HW260624  14.384   4.900   5.283
52929SOL     OW60625  13.132   3.222  11.374
52929SOL    HW160626  13.046   3.248  11.405
52929SOL    HW260627  13.193   3.256  11.439
52930SOL     OW60628   8.355   8.881   9.065
52930SOL    HW160629   8.278   8.826   9.052
52930SOL    HW260630   8.344   8.917   9.153
52931SOL     OW60631   7.468   2.132   6.937
52931SOL    HW160632   7.493   2.225   6.938
52931SOL    HW260633   7.468   2.108   6.845
52932SOL     OW60634   1.992   8.318  13.242
52932SOL    HW160635   2.007   8.228  13.272
52932SOL    HW260636   1.928   8.309  13.172
52933SOL     OW60637  14.408   7.278  12.112
52933SOL    HW160638  14.446   7.307  12.029
52933SOL    HW260639  14.451   7.332  12.179
52934SOL     OW60640   0.907  13.472  14.015
52934SOL    HW160641   0.878  13.465  13.924
52934SOL    HW260642   0.934  13.383  14.039
52935SOL     OW60643   2.451   9.264   2.479
52935SOL    HW160644   2.448   9.169   2.488
52935SOL    HW260645   2.361   9.292   2.495
52936SOL     OW60646   3.504   8.109   2.518
52936SOL    HW160647   3.423   8.087   2.565
52936SOL    HW260648   3.474   8.160   2.443
52937SOL     OW60649  12.338   6.783  12.928
52937SOL    HW160650  12.298   6.800  13.014
52937SOL    HW260651  12.302   6.698  12.902
52938SOL     OW60652  11.328   0.424   8.696
52938SOL    HW160653  11.419   0.450   8.710
52938SOL    HW260654  11.322   0.404   8.603
52939SOL     OW60655   6.332  12.981  13.262
52939SOL    HW160656   6.243  12.950  13.245
52939SOL    HW260657   6.322  13.076  13.274
52940SOL     OW60658  10.537  13.573   5.996
52940SOL    HW160659  10.486  13.637   5.948
52940SOL    HW260660  10.593  13.531   5.931
52941SOL     OW60661   5.778  13.448  10.083
52941SOL    HW160662   5.801  13.469  10.174
52941SOL    HW260663   5.718  13.374  10.089
52942SOL     OW60664   6.611   3.149   0.604
52942SOL    HW160665   6.601   3.158   0.699
52942SOL    HW260666   6.524   3.126   0.573
52943SOL     OW60667   8.824  13.193   0.443
52943SOL    HW160668   8.885  13.266   0.437
52943SOL    HW260669   8.859  13.128   0.382
52944SOL     OW60670   5.987  11.190   3.463
52944SOL    HW160671   6.036  11.267   3.488
52944SOL    HW260672   5.913  11.187   3.524
52945SOL     OW60673   8.144   2.185   6.029
52945SOL    HW160674   8.076   2.118   6.028
52945SOL    HW260675   8.161   2.203   5.937
52946SOL     OW60676  13.629  14.446   0.776
52946SOL    HW160677  13.579  14.368   0.801
52946SOL    HW260678  13.717  14.412   0.757
52947SOL     OW60679   3.075  10.063   7.275
52947SOL    HW160680   3.041  10.045   7.187
52947SOL    HW260681   3.168  10.084   7.260
52948SOL     OW60682   3.550  10.647   0.358
52948SOL    HW160683   3.536  10.570   0.414
52948SOL    HW260684   3.637  10.633   0.320
52949SOL     OW60685   8.706   3.092   4.162
52949SOL    HW160686   8.730   3.001   4.146
52949SOL    HW260687   8.706   3.101   4.257
52950SOL     OW60688   1.573  10.706  11.917
52950SOL    HW160689   1.571  10.735  12.008
52950SOL    HW260690   1.506  10.638  11.912
52951SOL     OW60691   1.631  10.843  11.676
52951SOL    HW160692   1.561  10.821  11.614
52951SOL    HW260693   1.594  10.822  11.761
52952SOL     OW60694   0.516   8.723   5.977
52952SOL    HW160695   0.524   8.773   5.896
52952SOL    HW260696   0.595   8.670   5.981
52953SOL     OW60697  13.679   8.324   4.990
52953SOL    HW160698  13.657   8.246   4.939
52953SOL    HW260699  13.692   8.291   5.079
52954SOL     OW60700   8.933  13.012   0.289
52954SOL    HW160701   8.870  12.984   0.223
52954SOL    HW260702   9.016  12.972   0.262
52955SOL     OW60703  12.802   8.602   6.097
52955SOL    HW160704  12.764   8.515   6.085
52955SOL    HW260705  12.778   8.650   6.018
52956SOL     OW60706  13.552   3.663   9.240
52956SOL    HW160707  13.479   3.605   9.261
52956SOL    HW260708  13.611   3.654   9.315
52957SOL     OW60709   2.865   9.049   3.384
52957SOL    HW160710   2.870   8.965   3.430
52957SOL    HW260711   2.835   9.111   3.451
52958SOL     OW60712  12.738   6.461  11.610
52958SOL    HW160713  12.801   6.522  11.647
52958SOL    HW260714  12.719   6.495  11.523
52959SOL     OW60715  11.061   0.031   3.434
52959SOL    HW160716  10.992  14.859   3.471
52959SOL    HW260717  11.101  14.858   3.367
52960SOL     OW60718  13.307   4.608   1.146
52960SOL    HW160719  13.297   4.558   1.065
52960SOL    HW260720  13.225   4.656   1.155
52961SOL     OW60721   1.500  13.951  12.505
52961SOL    HW160722   1.569  13.885  12.497
52961SOL    HW260723   1.479  13.952  12.598
52962SOL     OW60724  13.985  14.027   5.314
52962SOL    HW160725  13.980  14.121   5.297
52962SOL    HW260726  13.952  13.987   5.233
52963SOL     OW60727   6.085  10.769   0.709
52963SOL    HW160728   6.021  10.814   0.765
52963SOL    HW260729   6.154  10.742   0.770
52964SOL     OW60730   8.964  10.010  12.728
52964SOL    HW160731   8.885  10.058  12.701
52964SOL    HW260732   9.010   9.993  12.646
52965SOL     OW60733   3.428   9.927  11.970
52965SOL    HW160734   3.401   9.914  12.061
52965SOL    HW260735   3.523   9.914  11.971
52966SOL     OW60736  12.599  11.098   4.471
52966SOL    HW160737  12.527  11.043   4.439
52966SOL    HW260738  12.677  11.044   4.460
52967SOL     OW60739   2.489   2.229  11.318
52967SOL    HW160740   2.416   2.239  11.257
52967SOL    HW260741   2.474   2.143  11.359
52968SOL     OW60742  13.370   6.731   0.091
52968SOL    HW160743  13.289   6.683   0.110
52968SOL    HW260744  13.403   6.758   0.177
52969SOL     OW60745   1.784   5.181   1.638
52969SOL    HW160746   1.790   5.277   1.631
52969SOL    HW260747   1.830   5.161   1.720
52970SOL     OW60748   2.900   7.555  12.848
52970SOL    HW160749   2.843   7.551  12.926
52970SOL    HW260750   2.841   7.583  12.778
52971SOL     OW60751   2.364   5.123   6.146
52971SOL    HW160752   2.430   5.078   6.198
52971SOL    HW260753   2.375   5.088   6.057
52972SOL     OW60754  14.347   3.101   3.395
52972SOL    HW160755  14.434   3.141   3.397
52972SOL    HW260756  14.298   3.154   3.331
52973SOL     OW60757   4.558   3.481  10.416
52973SOL    HW160758   4.524   3.395  10.394
52973SOL    HW260759   4.508   3.507  10.494
52974SOL     OW60760  13.819   1.057   1.542
52974SOL    HW160761  13.907   1.056   1.503
52974SOL    HW260762  13.799   1.150   1.553
52975SOL     OW60763   0.407   2.345  10.549
52975SOL    HW160764   0.398   2.382  10.461
52975SOL    HW260765   0.473   2.276  10.539
52976SOL     OW60766   7.222  14.749   4.156
52976SOL    HW160767   7.269  14.805   4.094
52976SOL    HW260768   7.129  14.763   4.135
52977SOL     OW60769   9.331   5.389  12.919
52977SOL    HW160770   9.263   5.370  12.984
52977SOL    HW260771   9.323   5.318  12.855
52978SOL     OW60772   1.253  12.228   3.984
52978SOL    HW160773   1.192  12.194   3.919
52978SOL    HW260774   1.336  12.183   3.965
52979SOL     OW60775   0.730   9.329   5.458
52979SOL    HW160776   0.669   9.399   5.435
52979SOL    HW260777   0.816   9.368   5.446
52980SOL     OW60778   4.302  13.911   9.869
52980SOL    HW160779   4.249  13.969   9.814
52980SOL    HW260780   4.258  13.911   9.954
52981SOL     OW60781  11.850   2.390  12.921
52981SOL    HW160782  11.789   2.334  12.970
52981SOL    HW260783  11.858   2.469  12.974
52982SOL     OW60784   1.570   2.170  13.744
52982SOL    HW160785   1.497   2.133  13.794
52982SOL    HW260786   1.647   2.122  13.774
52983SOL     OW60787   6.089   6.771   3.392
52983SOL    HW160788   6.146   6.782   3.469
52983SOL    HW260789   6.137   6.713   3.334
52984SOL     OW60790  12.706   1.818   8.747
52984SOL    HW160791  12.708   1.764   8.668
52984SOL    HW260792  12.671   1.902   8.718
52985SOL     OW60793   1.393   7.145   6.677
52985SOL    HW160794   1.348   7.188   6.604
52985SOL    HW260795   1.471   7.107   6.638
52986SOL     OW60796   9.242   6.749  14.579
52986SOL    HW160797   9.265   6.731  14.488
52986SOL    HW260798   9.156   6.792  14.573
52987SOL     OW60799   8.190   9.040  14.078
52987SOL    HW160800   8.273   9.086  14.068
52987SOL    HW260801   8.213   8.948  14.064
52988SOL     OW60802   4.713   7.968   6.422
52988SOL    HW160803   4.747   8.047   6.464
52988SOL    HW260804   4.618   7.982   6.419
52989SOL     OW60805  14.030   4.339  11.669
52989SOL    HW160806  14.031   4.278  11.743
52989SOL    HW260807  14.096   4.304  11.608
52990SOL     OW60808   3.623  12.686   3.782
52990SOL    HW160809   3.708  12.643   3.786
52990SOL    HW260810   3.566  12.633   3.839
52991SOL     OW60811   6.161   4.029   9.386
52991SOL    HW160812   6.083   3.990   9.425
52991SOL    HW260813   6.139   4.038   9.293
52992SOL     OW60814  13.285   0.384   0.815
52992SOL    HW160815  13.232   0.318   0.859
52992SOL    HW260816  13.268   0.465   0.863
52993SOL     OW60817   4.700   1.413  13.393
52993SOL    HW160818   4.782   1.369  13.412
52993SOL    HW260819   4.683   1.395  13.300
52994SOL     OW60820   6.721   3.882  11.483
52994SOL    HW160821   6.670   3.856  11.407
52994SOL    HW260822   6.657   3.898  11.552
52995SOL     OW60823   6.723   5.843  14.025
52995SOL    HW160824   6.647   5.883  13.982
52995SOL    HW260825   6.792   5.848  13.959
52996SOL     OW60826  14.525   5.392  12.002
52996SOL    HW160827  14.540   5.352  12.087
52996SOL    HW260828  14.557   5.328  11.939
52997SOL     OW60829   0.287   5.002   6.893
52997SOL    HW160830   0.322   5.010   6.804
52997SOL    HW260831   0.196   5.027   6.885
52998SOL     OW60832   3.464  13.111   7.535
52998SOL    HW160833   3.492  13.195   7.500
52998SOL    HW260834   3.405  13.075   7.468
52999SOL     OW60835   4.710  10.289   2.459
52999SOL    HW160836   4.746  10.274   2.372
52999SOL    HW260837   4.786  10.306   2.514
53000SOL     OW60838  13.094  12.055  12.793
53000SOL    HW160839  13.007  12.056  12.832
53000SOL    HW260840  13.151  12.018  12.861
53001SOL     OW60841   9.284   1.595  10.281
53001SOL    HW160842   9.255   1.506  10.262
53001SOL    HW260843   9.214   1.651  10.247
53002SOL     OW60844   1.867   5.192   0.003
53002SOL    HW160845   1.787   5.158   0.044
53002SOL    HW260846   1.925   5.116  14.881
53003SOL     OW60847   6.620   2.366  10.127
53003SOL    HW160848   6.645   2.385  10.036
53003SOL    HW260849   6.618   2.452  10.169
53004SOL     OW60850   2.637  13.827  13.776
53004SOL    HW160851   2.693  13.899  13.747
53004SOL    HW260852   2.697  13.762  13.813
53005SOL     OW60853  14.300   1.169   7.846
53005SOL    HW160854  14.223   1.161   7.788
53005SOL    HW260855  14.311   1.263   7.858
53006SOL     OW60856   9.652   4.351  10.097
53006SOL    HW160857   9.649   4.361  10.002
53006SOL    HW260858   9.614   4.432  10.131
53007SOL     OW60859   0.169   4.731  11.939
53007SOL    HW160860   0.239   4.709  11.877
53007SOL    HW260861   0.210   4.721  12.025
53008SOL     OW60862  10.259  14.099  13.763
53008SOL    HW160863  10.183  14.058  13.721
53008SOL    HW260864  10.334  14.061  13.718
53009SOL     OW60865   9.109   9.727  11.728
53009SOL    HW160866   9.170   9.765  11.791
53009SOL    HW260867   9.163   9.668  11.675
53010SOL     OW60868   8.733   4.375  11.677
53010SOL    HW160869   8.688   4.310  11.731
53010SOL    HW260870   8.812   4.398  11.726
53011SOL     OW60871   5.822   4.973   9.802
53011SOL    HW160872   5.759   5.024   9.852
53011SOL    HW260873   5.890   5.036   9.778
53012SOL     OW60874   8.926  11.436  10.952
53012SOL    HW160875   8.976  11.512  10.923
53012SOL    HW260876   8.909  11.452  11.044
53013SOL     OW60877   5.934   2.572   8.155
53013SOL    HW160878   5.937   2.478   8.139
53013SOL    HW260879   5.952   2.611   8.069
53014SOL     OW60880  11.688   5.287   9.318
53014SOL    HW160881  11.638   5.234   9.256
53014SOL    HW260882  11.688   5.236   9.399
53015SOL     OW60883   8.368  13.820  13.343
53015SOL    HW160884   8.313  13.790  13.271
53015SOL    HW260885   8.416  13.895  13.307
53016SOL     OW60886   6.672   6.424  11.834
53016SOL    HW160887   6.746   6.440  11.893
53016SOL    HW260888   6.616   6.502  11.845
53017SOL     OW60889  13.957  13.663   8.590
53017SOL    HW160890  14.000  13.746   8.609
53017SOL    HW260891  13.866  13.686   8.574
53018SOL     OW60892  12.973   8.868   4.942
53018SOL    HW160893  13.009   8.880   5.030
53018SOL    HW260894  12.973   8.773   4.930
53019SOL     OW60895   8.752   1.834  10.893
53019SOL    HW160896   8.700   1.781  10.953
53019SOL    HW260897   8.707   1.918  10.889
53020SOL     OW60898   9.435   2.673   1.785
53020SOL    HW160899   9.514   2.711   1.747
53020SOL    HW260900   9.384   2.748   1.816
53021SOL     OW60901  14.321   8.547   9.169
53021SOL    HW160902  14.269   8.485   9.221
53021SOL    HW260903  14.411   8.517   9.180
53022SOL     OW60904  13.210   0.074  13.997
53022SOL    HW160905  13.126   0.063  14.041
53022SOL    HW260906  13.238  14.868  13.975
53023SOL     OW60907  13.348   2.258   4.113
53023SOL    HW160908  13.435   2.220   4.109
53023SOL    HW260909  13.308   2.219   4.191
53024SOL     OW60910   5.196   3.266  11.350
53024SOL    HW160911   5.260   3.196  11.363
53024SOL    HW260912   5.245   3.347  11.365
53025SOL     OW60913  12.396  11.177  13.676
53025SOL    HW160914  12.375  11.098  13.726
53025SOL    HW260915  12.378  11.152  13.585
53026SOL     OW60916   3.214  11.454   9.007
53026SOL    HW160917   3.196  11.469   8.914
53026SOL    HW260918   3.180  11.367   9.024
53027SOL     OW60919   3.797   4.082   1.003
53027SOL    HW160920   3.794   3.987   1.006
53027SOL    HW260921   3.708   4.110   1.026
53028SOL     OW60922   6.011   1.528   2.459
53028SOL    HW160923   5.941   1.561   2.403
53028SOL    HW260924   6.087   1.582   2.438
53029SOL     OW60925   9.757  10.399   0.369
53029SOL    HW160926   9.796  10.421   0.454
53029SOL    HW260927   9.666  10.427   0.377
53030SOL     OW60928  13.773   7.679   7.370
53030SOL    HW160929  13.792   7.585   7.375
53030SOL    HW260930  13.753   7.705   7.460
53031SOL     OW60931   3.748  12.029   5.299
53031SOL    HW160932   3.672  12.029   5.356
53031SOL    HW260933   3.819  11.994   5.353
53032SOL     OW60934   2.565   4.743   0.645
53032SOL    HW160935   2.596   4.815   0.590
53032SOL    HW260936   2.494   4.703   0.594
53033SOL     OW60937   7.065   0.965   6.820
53033SOL    HW160938   7.064   1.060   6.813
53033SOL    HW260939   6.982   0.944   6.864
53034SOL     OW60940   0.188   7.020   6.819
53034SOL    HW160941   0.251   7.063   6.762
53034SOL    HW260942   0.143   6.957   6.762
53035SOL     OW60943  12.778   8.494   0.822
53035SOL    HW160944  12.715   8.470   0.754
53035SOL    HW260945  12.761   8.587   0.838
53036SOL     OW60946  13.782  12.127  11.828
53036SOL    HW160947  13.735  12.055  11.870
53036SOL    HW260948  13.874  12.105  11.839
53037SOL     OW60949   9.471   7.788   4.867
53037SOL    HW160950   9.426   7.766   4.786
53037SOL    HW260951   9.564   7.776   4.847
53038SOL     OW60952   5.907  11.160   5.539
53038SOL    HW160953   5.881  11.250   5.516
53038SOL    HW260954   5.846  11.105   5.490
53039SOL     OW60955  13.820   4.058   8.116
53039SOL    HW160956  13.746   4.056   8.176
53039SOL    HW260957  13.783   4.031   8.032
53040SOL     OW60958   7.770   5.842  13.197
53040SOL    HW160959   7.845   5.793  13.163
53040SOL    HW260960   7.779   5.837  13.292
53041SOL     OW60961   5.607   0.431  13.658
53041SOL    HW160962   5.554   0.403  13.583
53041SOL    HW260963   5.553   0.410  13.734
53042SOL     OW60964   7.237   8.712   8.406
53042SOL    HW160965   7.312   8.656   8.426
53042SOL    HW260966   7.199   8.673   8.328
53043SOL     OW60967   7.839   5.439  14.305
53043SOL    HW160968   7.890   5.421  14.226
53043SOL    HW260969   7.752   5.406  14.286
53044SOL     OW60970   0.281  10.105   9.846
53044SOL    HW160971   0.249  10.039   9.785
53044SOL    HW260972   0.253  10.189   9.808
53045SOL     OW60973   3.643  12.484   2.068
53045SOL    HW160974   3.551  12.465   2.052
53045SOL    HW260975   3.658  12.567   2.024
53046SOL     OW60976   6.224   7.386   5.040
53046SOL    HW160977   6.186   7.370   4.954
53046SOL    HW260978   6.164   7.343   5.101
53047SOL     OW60979  13.451   9.204   0.346
53047SOL    HW160980  13.468   9.298   0.334
53047SOL    HW260981  13.368   9.201   0.394
53048SOL     OW60982   3.614   1.443  11.705
53048SOL    HW160983   3.702   1.410  11.725
53048SOL    HW260984   3.591   1.496  11.781
53049SOL     OW60985  12.012  14.064   7.076
53049SOL    HW160986  12.099  14.104   7.082
53049SOL    HW260987  11.984  14.080   6.986
53050SOL     OW60988   2.178   5.323  11.765
53050SOL    HW160989   2.162   5.242  11.718
53050SOL    HW260990   2.149   5.393  11.706
53051SOL     OW60991  14.813   7.979  14.566
53051SOL    HW160992  14.799   7.923  14.643
53051SOL    HW260993  14.786   7.925  14.492
53052SOL     OW60994   8.344   4.665   6.609
53052SOL    HW160995   8.324   4.723   6.536
53052SOL    HW260996   8.260   4.627   6.634
53053SOL     OW60997  10.933   6.058   7.431
53053SOL    HW160998  11.026   6.077   7.441
53053SOL    HW260999  10.893   6.097   7.509
53054SOL     OW61000  12.722   0.542   5.328
53054SOL    HW161001  12.627   0.531   5.334
53054SOL    HW261002  12.748   0.494   5.249
53055SOL     OW61003  13.507   3.276   1.693
53055SOL    HW161004  13.489   3.306   1.782
53055SOL    HW261005  13.579   3.333   1.663
53056SOL     OW61006   7.142  10.910   3.656
53056SOL    HW161007   7.164  10.845   3.722
53056SOL    HW261008   7.089  10.975   3.702
53057SOL     OW61009   9.035   8.740  10.760
53057SOL    HW161010   9.085   8.738  10.842
53057SOL    HW261011   8.961   8.682  10.775
53058SOL     OW61012   2.895   5.815   7.372
53058SOL    HW161013   2.989   5.798   7.383
53058SOL    HW261014   2.892   5.902   7.332
53059SOL     OW61015   4.883   4.325   8.931
53059SOL    HW161016   4.860   4.399   8.987
53059SOL    HW261017   4.977   4.334   8.917
53060SOL     OW61018   4.422   6.728   3.994
53060SOL    HW161019   4.389   6.640   3.978
53060SOL    HW261020   4.439   6.730   4.088
53061SOL     OW61021   6.865   2.787   6.388
53061SOL    HW161022   6.931   2.856   6.378
53061SOL    HW261023   6.846   2.759   6.298
53062SOL     OW61024  10.820   5.839   0.748
53062SOL    HW161025  10.835   5.883   0.664
53062SOL    HW261026  10.810   5.747   0.724
53063SOL     OW61027  14.066   4.318   7.383
53063SOL    HW161028  14.088   4.282   7.468
53063SOL    HW261029  13.976   4.291   7.367
53064SOL     OW61030   8.300   6.652   1.211
53064SOL    HW161031   8.317   6.630   1.120
53064SOL    HW261032   8.370   6.713   1.235
53065SOL     OW61033  12.617  13.115   8.478
53065SOL    HW161034  12.536  13.158   8.451
53065SOL    HW261035  12.588  13.037   8.526
53066SOL     OW61036   5.048   3.905  14.471
53066SOL    HW161037   5.123   3.895  14.412
53066SOL    HW261038   4.972   3.886  14.416
53067SOL     OW61039   6.812  12.157  11.055
53067SOL    HW161040   6.795  12.149  11.149
53067SOL    HW261041   6.762  12.085  11.016
53068SOL     OW61042  10.854   4.762  14.768
53068SOL    HW161043  10.801   4.808  14.833
53068SOL    HW261044  10.805   4.772  14.687
53069SOL     OW61045  14.825  12.404  11.620
53069SOL    HW161046   0.028  12.380  11.583
53069SOL    HW261047  14.846  12.456  11.698
53070SOL     OW61048  13.046  10.291   8.677
53070SOL    HW161049  13.136  10.259   8.665
53070SOL    HW261050  12.998  10.215   8.709
53071SOL     OW61051  11.580  14.768   3.678
53071SOL    HW161052  11.633  14.751   3.756
53071SOL    HW261053  11.644  14.797   3.612
53072SOL     OW61054   1.169  11.300  11.042
53072SOL    HW161055   1.126  11.242  10.979
53072SOL    HW261056   1.262  11.277  11.037
53073SOL     OW61057   0.832  13.532   9.141
53073SOL    HW161058   0.796  13.446   9.120
53073SOL    HW261059   0.889  13.516   9.217
53074SOL     OW61060   3.848  13.909   2.569
53074SOL    HW161061   3.878  13.820   2.550
53074SOL    HW261062   3.920  13.948   2.618
53075SOL     OW61063   6.845   6.454   7.699
53075SOL    HW161064   6.862   6.545   7.725
53075SOL    HW261065   6.923   6.429   7.649
53076SOL     OW61066   4.553   8.541  14.695
53076SOL    HW161067   4.546   8.588  14.612
53076SOL    HW261068   4.504   8.596  14.757
53077SOL     OW61069   9.311  13.328   1.704
53077SOL    HW161070   9.405  13.313   1.716
53077SOL    HW261071   9.288  13.387   1.776
53078SOL     OW61072  12.903   4.619   3.817
53078SOL    HW161073  12.983   4.660   3.849
53078SOL    HW261074  12.869   4.680   3.751
53079SOL     OW61075   4.250   3.608   6.554
53079SOL    HW161076   4.262   3.544   6.484
53079SOL    HW261077   4.309   3.680   6.530
53080SOL     OW61078   5.076  10.725   8.615
53080SOL    HW161079   5.045  10.739   8.704
53080SOL    HW261080   5.026  10.650   8.583
53081SOL     OW61081  13.198  10.570  14.443
53081SOL    HW161082  13.199  10.646  14.384
53081SOL    HW261083  13.128  10.515  14.409
53082SOL     OW61084   4.449   2.365   8.963
53082SOL    HW161085   4.414   2.293   8.912
53082SOL    HW261086   4.503   2.415   8.901
53083SOL     OW61087   6.435   7.739   3.169
53083SOL    HW161088   6.393   7.716   3.085
53083SOL    HW261089   6.525   7.708   3.159
53084SOL     OW61090   4.654   3.615  14.129
53084SOL    HW161091   4.633   3.703  14.159
53084SOL    HW261092   4.570   3.569  14.127
53085SOL     OW61093   9.864  11.229   8.436
53085SOL    HW161094   9.835  11.313   8.471
53085SOL    HW261095   9.947  11.249   8.393
53086SOL     OW61096  10.544  13.944   0.248
53086SOL    HW161097  10.575  13.959   0.159
53086SOL    HW261098  10.616  13.898   0.291
53087SOL     OW61099   8.758  13.376   3.406
53087SOL    HW161100   8.672  13.338   3.427
53087SOL    HW261101   8.777  13.344   3.318
53088SOL     OW61102   8.688   6.966   6.248
53088SOL    HW161103   8.604   6.934   6.213
53088SOL    HW261104   8.683   7.062   6.238
53089SOL     OW61105   6.060  11.514   5.391
53089SOL    HW161106   6.140  11.470   5.363
53089SOL    HW261107   6.050  11.587   5.330
53090SOL     OW61108  13.303  12.586   1.360
53090SOL    HW161109  13.265  12.539   1.434
53090SOL    HW261110  13.395  12.559   1.360
53091SOL     OW61111   9.526  14.755   3.026
53091SOL    HW161112   9.540  14.779   3.118
53091SOL    HW261113   9.544  14.835   2.977
53092SOL     OW61114  14.282   6.418  14.049
53092SOL    HW161115  14.302   6.498  13.999
53092SOL    HW261116  14.220   6.447  14.116
53093SOL     OW61117   3.364   9.554   7.448
53093SOL    HW161118   3.385   9.584   7.536
53093SOL    HW261119   3.319   9.629   7.408
53094SOL     OW61120   4.774   5.405   3.446
53094SOL    HW161121   4.729   5.341   3.502
53094SOL    HW261122   4.751   5.378   3.357
53095SOL     OW61123   1.788   5.517   7.127
53095SOL    HW161124   1.700   5.484   7.146
53095SOL    HW261125   1.846   5.452   7.166
53096SOL     OW61126  10.693   1.118   9.495
53096SOL    HW161127  10.694   1.024   9.480
53096SOL    HW261128  10.784   1.141   9.512
53097SOL     OW61129   8.383   3.860   4.604
53097SOL    HW161130   8.479   3.859   4.609
53097SOL    HW261131   8.363   3.847   4.511
53098SOL     OW61132   8.256   3.703   2.913
53098SOL    HW161133   8.284   3.783   2.868
53098SOL    HW261134   8.169   3.723   2.947
53099SOL     OW61135  12.645  10.007  10.214
53099SOL    HW161136  12.645   9.978  10.122
53099SOL    HW261137  12.673   9.931  10.263
53100SOL     OW61138  12.381   1.489   8.028
53100SOL    HW161139  12.418   1.401   8.031
53100SOL    HW261140  12.337   1.500   8.112
53101SOL     OW61141   5.923   2.778   1.252
53101SOL    HW161142   5.894   2.782   1.161
53101SOL    HW261143   6.005   2.729   1.249
53102SOL     OW61144   4.600  13.707   1.129
53102SOL    HW161145   4.635  13.764   1.198
53102SOL    HW261146   4.568  13.767   1.062
53103SOL     OW61147   6.778   3.330  12.887
53103SOL    HW161148   6.773   3.324  12.792
53103SOL    HW261149   6.871   3.318  12.907
53104SOL     OW61150   8.636   7.897   7.288
53104SOL    HW161151   8.604   7.895   7.378
53104SOL    HW261152   8.584   7.966   7.246
53105SOL     OW61153   8.640   8.250   8.811
53105SOL    HW161154   8.596   8.193   8.749
53105SOL    HW261155   8.668   8.191   8.882
53106SOL     OW61156  11.569   9.133  10.623
53106SOL    HW161157  11.503   9.107  10.687
53106SOL    HW261158  11.558   9.072  10.551
53107SOL     OW61159   8.856   9.298   3.615
53107SOL    HW161160   8.819   9.337   3.694
53107SOL    HW261161   8.794   9.319   3.546
53108SOL     OW61162  12.277   0.897   7.554
53108SOL    HW161163  12.313   0.985   7.570
53108SOL    HW261164  12.191   0.913   7.515
53109SOL     OW61165   6.099   6.661  13.764
53109SOL    HW161166   6.095   6.721  13.839
53109SOL    HW261167   6.176   6.607  13.781
53110SOL     OW61168   7.688   8.297   5.163
53110SOL    HW161169   7.728   8.220   5.202
53110SOL    HW261170   7.735   8.371   5.202
53111SOL     OW61171   3.722  11.040   4.618
53111SOL    HW161172   3.648  11.007   4.670
53111SOL    HW261173   3.791  10.975   4.631
53112SOL     OW61174   3.282   4.093   4.404
53112SOL    HW161175   3.213   4.057   4.459
53112SOL    HW261176   3.253   4.079   4.314
53113SOL     OW61177   4.171  13.964  10.388
53113SOL    HW161178   4.234  13.943  10.319
53113SOL    HW261179   4.095  13.999  10.341
53114SOL     OW61180  11.896   8.376   6.268
53114SOL    HW161181  11.848   8.293   6.276
53114SOL    HW261182  11.988   8.350   6.260
53115SOL     OW61183   2.656  13.151  13.457
53115SOL    HW161184   2.686  13.061  13.464
53115SOL    HW261185   2.560  13.146  13.462
53116SOL     OW61186   1.490   9.056   6.538
53116SOL    HW161187   1.441   8.986   6.582
53116SOL    HW261188   1.446   9.137   6.566
53117SOL     OW61189   1.375   5.327   5.911
53117SOL    HW161190   1.401   5.235   5.909
53117SOL    HW261191   1.428   5.366   5.981
53118SOL     OW61192  14.624  14.840   8.970
53118SOL    HW161193  14.567  14.875   8.901
53118SOL    HW261194  14.563  14.812   9.039
53119SOL     OW61195  12.304   9.551   4.493
53119SOL    HW161196  12.351   9.508   4.421
53119SOL    HW261197  12.334   9.504   4.572
53120SOL     OW61198  11.851  11.503  10.620
53120SOL    HW161199  11.764  11.539  10.637
53120SOL    HW261200  11.900  11.518  10.701
53121SOL     OW61201   4.647  10.292   0.393
53121SOL    HW161202   4.620  10.302   0.485
53121SOL    HW261203   4.608  10.209   0.366
53122SOL     OW61204   2.162  13.598   3.099
53122SOL    HW161205   2.221  13.629   3.030
53122SOL    HW261206   2.219  13.581   3.174
53123SOL     OW61207   0.286   3.958   4.821
53123SOL    HW161208   0.238   3.985   4.743
53123SOL    HW261209   0.275   4.030   4.883
53124SOL     OW61210  14.744   7.780  12.809
53124SOL    HW161211  14.662   7.799  12.764
53124SOL    HW261212  14.797   7.735  12.743
53125SOL     OW61213   6.912   3.030   9.055
53125SOL    HW161214   6.885   3.119   9.033
53125SOL    HW261215   6.842   2.975   9.019
53126SOL     OW61216   3.284   0.535  13.967
53126SOL    HW161217   3.214   0.597  13.988
53126SOL    HW261218   3.362   0.589  13.956
53127SOL     OW61219   9.446  14.542  13.865
53127SOL    HW161220   9.422  14.466  13.917
53127SOL    HW261221   9.540  14.554  13.881
53128SOL     OW61222  12.405   8.217  12.672
53128SOL    HW161223  12.399   8.122  12.668
53128SOL    HW261224  12.498   8.235  12.679
53129SOL     OW61225   9.466   7.229   5.338
53129SOL    HW161226   9.464   7.248   5.432
53129SOL    HW261227   9.409   7.296   5.299
53130SOL     OW61228  13.731  13.376   3.429
53130SOL    HW161229  13.731  13.281   3.420
53130SOL    HW261230  13.824  13.400   3.426
53131SOL     OW61231  12.420   9.453  12.685
53131SOL    HW161232  12.325   9.452  12.675
53131SOL    HW261233  12.435   9.489  12.772
53132SOL     OW61234   3.696   6.674   7.015
53132SOL    HW161235   3.704   6.604   6.950
53132SOL    HW261236   3.760   6.652   7.082
53133SOL     OW61237   8.553  12.003   1.555
53133SOL    HW161238   8.518  11.934   1.499
53133SOL    HW261239   8.611  12.054   1.498
53134SOL     OW61240   6.694   9.510   2.580
53134SOL    HW161241   6.668   9.567   2.652
53134SOL    HW261242   6.790   9.513   2.580
53135SOL     OW61243  13.851  13.548  13.146
53135SOL    HW161244  13.854  13.624  13.089
53135SOL    HW261245  13.762  13.547  13.181
53136SOL     OW61246   4.924  13.813   8.461
53136SOL    HW161247   4.984  13.778   8.395
53136SOL    HW261248   4.845  13.836   8.412
53137SOL     OW61249   6.740  14.452   0.566
53137SOL    HW161250   6.751  14.414   0.478
53137SOL    HW261251   6.723  14.545   0.549
53138SOL     OW61252   0.757  12.001   8.771
53138SOL    HW161253   0.729  12.080   8.724
53138SOL    HW261254   0.681  11.942   8.765
53139SOL     OW61255   7.579   5.933  13.039
53139SOL    HW161256   7.645   5.893  13.096
53139SOL    HW261257   7.585   5.883  12.958
53140SOL     OW61258   2.194   8.413  13.573
53140SOL    HW161259   2.142   8.358  13.632
53140SOL    HW261260   2.130   8.447  13.511
53141SOL     OW61261   9.381   2.001   9.869
53141SOL    HW161262   9.462   1.960   9.899
53141SOL    HW261263   9.345   1.939   9.806
53142SOL     OW61264   8.335   2.014   6.256
53142SOL    HW161265   8.350   1.937   6.201
53142SOL    HW261266   8.284   2.073   6.200
53143SOL     OW61267   0.436   2.205   1.832
53143SOL    HW161268   0.344   2.214   1.806
53143SOL    HW261269   0.481   2.179   1.752
53144SOL     OW61270  14.227   5.874   0.478
53144SOL    HW161271  14.200   5.789   0.443
53144SOL    HW261272  14.307   5.895   0.432
53145SOL     OW61273   2.241   7.486  12.078
53145SOL    HW161274   2.304   7.511  12.011
53145SOL    HW261275   2.231   7.565  12.132
53146SOL     OW61276  11.038   2.850  13.529
53146SOL    HW161277  11.066   2.839  13.438
53146SOL    HW261278  11.077   2.934  13.556
53147SOL     OW61279   4.494   5.779  10.737
53147SOL    HW161280   4.483   5.722  10.813
53147SOL    HW261281   4.518   5.721  10.665
53148SOL     OW61282   1.075   5.904   8.430
53148SOL    HW161283   1.056   5.936   8.342
53148SOL    HW261284   1.116   5.818   8.417
53149SOL     OW61285   2.068  13.188   1.307
53149SOL    HW161286   2.060  13.140   1.225
53149SOL    HW261287   1.982  13.230   1.318
53150SOL     OW61288   3.992   1.385   0.830
53150SOL    HW161289   4.068   1.360   0.882
53150SOL    HW261290   3.933   1.427   0.892
53151SOL     OW61291   3.980  13.614   9.813
53151SOL    HW161292   3.975  13.541   9.752
53151SOL    HW261293   3.916  13.593   9.881
53152SOL     OW61294  13.548   7.259  10.154
53152SOL    HW161295  13.456   7.278  10.173
53152SOL    HW261296  13.570   7.317  10.082
53153SOL     OW61297   0.624   5.108   7.214
53153SOL    HW161298   0.554   5.049   7.242
53153SOL    HW261299   0.652   5.074   7.129
53154SOL     OW61300  13.015   6.796  11.942
53154SOL    HW161301  13.076   6.739  11.990
53154SOL    HW261302  12.970   6.846  12.009
53155SOL     OW61303   7.386   0.568   8.480
53155SOL    HW161304   7.309   0.513   8.495
53155SOL    HW261305   7.441   0.554   8.557
53156SOL     OW61306   0.274  11.284   9.334
53156SOL    HW161307   0.339  11.311   9.399
53156SOL    HW261308   0.323  11.227   9.274
53157SOL     OW61309  11.657  13.893   8.679
53157SOL    HW161310  11.610  13.917   8.599
53157SOL    HW261311  11.658  13.973   8.731
53158SOL     OW61312   0.442   1.709   6.876
53158SOL    HW161313   0.402   1.628   6.907
53158SOL    HW261314   0.509   1.729   6.942
53159SOL     OW61315   0.735  12.817   3.450
53159SOL    HW161316   0.744  12.735   3.498
53159SOL    HW261317   0.679  12.796   3.376
53160SOL     OW61318   2.093   9.270   3.037
53160SOL    HW161319   2.188   9.276   3.030
53160SOL    HW261320   2.073   9.299   3.125
53161SOL     OW61321   1.239   7.906   4.986
53161SOL    HW161322   1.316   7.955   4.958
53161SOL    HW261323   1.198   7.961   5.052
53162SOL     OW61324   9.098   4.939  13.886
53162SOL    HW161325   9.098   4.875  13.957
53162SOL    HW261326   9.072   4.888  13.808
53163SOL     OW61327   0.808   7.017   9.361
53163SOL    HW161328   0.714   7.025   9.371
53163SOL    HW261329   0.826   6.924   9.376
53164SOL     OW61330   5.923   0.505  12.777
53164SOL    HW161331   5.984   0.521  12.705
53164SOL    HW261332   5.884   0.420  12.757
53165SOL     OW61333   8.513   7.436   4.525
53165SOL    HW161334   8.426   7.396   4.532
53165SOL    HW261335   8.572   7.363   4.506
53166SOL     OW61336   8.813   8.422  12.202
53166SOL    HW161337   8.749   8.402  12.134
53166SOL    HW261338   8.823   8.517  12.199
53167SOL     OW61339  14.851  12.607   0.832
53167SOL    HW161340   0.020  12.581   0.756
53167SOL    HW261341  14.796  12.679   0.800
53168SOL     OW61342   0.701  13.879   7.725
53168SOL    HW161343   0.631  13.838   7.674
53168SOL    HW261344   0.658  13.909   7.805
53169SOL     OW61345   5.686   0.008   6.527
53169SOL    HW161346   5.671   0.101   6.514
53169SOL    HW261347   5.773   0.004   6.567
53170SOL     OW61348  14.788   8.162   6.559
53170SOL    HW161349  14.770   8.072   6.587
53170SOL    HW261350  14.726   8.178   6.487
53171SOL     OW61351   8.450   9.136  14.139
53171SOL    HW161352   8.443   9.231  14.129
53171SOL    HW261353   8.495   9.124  14.223
53172SOL     OW61354   7.250  11.312   2.776
53172SOL    HW161355   7.306  11.292   2.850
53172SOL    HW261356   7.161  11.295   2.807
53173SOL     OW61357   6.064   5.191  13.619
53173SOL    HW161358   6.032   5.270  13.662
53173SOL    HW261359   6.146   5.170  13.664
53174SOL     OW61360  14.251   8.611   7.862
53174SOL    HW161361  14.257   8.532   7.915
53174SOL    HW261362  14.217   8.678   7.921
53175SOL     OW61363   0.669   1.712   7.596
53175SOL    HW161364   0.602   1.702   7.664
53175SOL    HW261365   0.621   1.738   7.518
53176SOL     OW61366   1.015   0.336   0.298
53176SOL    HW161367   0.948   0.342   0.366
53176SOL    HW261368   1.064   0.418   0.305
53177SOL     OW61369   8.956   4.076  12.595
53177SOL    HW161370   8.877   4.039  12.556
53177SOL    HW261371   9.026   4.018  12.566
53178SOL     OW61372   1.132   6.753   9.195
53178SOL    HW161373   1.040   6.763   9.218
53178SOL    HW261374   1.139   6.793   9.108
53179SOL     OW61375   8.760   9.648  11.180
53179SOL    HW161376   8.667   9.630  11.166
53179SOL    HW261377   8.795   9.660  11.092
53180SOL     OW61378  12.159   1.084  13.770
53180SOL    HW161379  12.103   1.159  13.789
53180SOL    HW261380  12.241   1.122  13.741
53181SOL     OW61381   2.435   6.041   1.880
53181SOL    HW161382   2.365   6.032   1.945
53181SOL    HW261383   2.436   6.134   1.858
53182SOL     OW61384   4.401   5.004   0.616
53182SOL    HW161385   4.454   5.075   0.581
53182SOL    HW261386   4.325   5.047   0.654
53183SOL     OW61387   2.767   4.517  11.817
53183SOL    HW161388   2.729   4.438  11.857
53183SOL    HW261389   2.754   4.585  11.883
53184SOL     OW61390  12.725  13.553   0.576
53184SOL    HW161391  12.807  13.510   0.601
53184SOL    HW261392  12.660  13.483   0.574
53185SOL     OW61393  12.761   4.785  10.477
53185SOL    HW161394  12.846   4.817  10.446
53185SOL    HW261395  12.699   4.851  10.448
53186SOL     OW61396   1.448  12.368   9.281
53186SOL    HW161397   1.358  12.353   9.253
53186SOL    HW261398   1.474  12.448   9.236
53187SOL     OW61399   7.839   2.076  14.693
53187SOL    HW161400   7.852   2.114  14.606
53187SOL    HW261401   7.913   2.016  14.703
53188SOL     OW61402  10.844   0.918   4.353
53188SOL    HW161403  10.774   0.928   4.417
53188SOL    HW261404  10.912   0.979   4.382
53189SOL     OW61405  11.590   1.799  13.371
53189SOL    HW161406  11.532   1.873  13.355
53189SOL    HW261407  11.634   1.820  13.453
53190SOL     OW61408   6.360  13.918   9.991
53190SOL    HW161409   6.425  13.878   9.933
53190SOL    HW261410   6.281  13.922   9.939
53191SOL     OW61411   3.068   0.453   7.836
53191SOL    HW161412   3.014   0.404   7.899
53191SOL    HW261413   3.144   0.396   7.822
53192SOL     OW61414   2.709  10.097   4.862
53192SOL    HW161415   2.627  10.050   4.872
53192SOL    HW261416   2.707  10.163   4.932
53193SOL     OW61417   2.422   7.683   3.902
53193SOL    HW161418   2.465   7.614   3.852
53193SOL    HW261419   2.481   7.759   3.893
53194SOL     OW61420  13.828   9.195   5.484
53194SOL    HW161421  13.810   9.228   5.573
53194SOL    HW261422  13.835   9.273   5.430
53195SOL     OW61423   2.279   2.634  11.717
53195SOL    HW161424   2.341   2.564  11.697
53195SOL    HW261425   2.195   2.589  11.727
53196SOL     OW61426  10.618   2.493  10.580
53196SOL    HW161427  10.542   2.492  10.521
53196SOL    HW261428  10.583   2.526  10.663
53197SOL     OW61429   5.030   0.938  10.706
53197SOL    HW161430   4.997   0.850  10.687
53197SOL    HW261431   5.101   0.951  10.644
53198SOL     OW61432   2.596   0.872  12.054
53198SOL    HW161433   2.614   0.798  12.112
53198SOL    HW261434   2.668   0.934  12.071
53199SOL     OW61435   8.601   9.379   4.309
53199SOL    HW161436   8.540   9.380   4.384
53199SOL    HW261437   8.576   9.301   4.260
53200SOL     OW61438  14.150   5.943   5.889
53200SOL    HW161439  14.184   5.934   5.978
53200SOL    HW261440  14.128   5.854   5.862
53201SOL     OW61441   0.913   0.783  13.455
53201SOL    HW161442   0.850   0.816  13.519
53201SOL    HW261443   0.982   0.743  13.508
53202SOL     OW61444   5.714   3.321  13.046
53202SOL    HW161445   5.783   3.271  13.001
53202SOL    HW261446   5.722   3.409  13.011
53203SOL     OW61447  12.347  10.163  11.371
53203SOL    HW161448  12.386  10.078  11.350
53203SOL    HW261449  12.364  10.174  11.465
53204SOL     OW61450  14.224   6.755   8.497
53204SOL    HW161451  14.145   6.725   8.452
53204SOL    HW261452  14.296   6.716   8.448
53205SOL     OW61453   1.898   9.389   7.021
53205SOL    HW161454   1.974   9.398   7.079
53205SOL    HW261455   1.936   9.370   6.935
53206SOL     OW61456   8.829   7.272   3.682
53206SOL    HW161457   8.861   7.189   3.717
53206SOL    HW261458   8.778   7.247   3.604
53207SOL     OW61459  10.056   3.341   2.320
53207SOL    HW161460  10.048   3.314   2.412
53207SOL    HW261461   9.983   3.400   2.306
53208SOL     OW61462  12.735   0.804   5.393
53208SOL    HW161463  12.749   0.709   5.392
53208SOL    HW261464  12.710   0.823   5.484
53209SOL     OW61465   7.947  10.366  12.299
53209SOL    HW161466   7.990  10.282  12.279
53209SOL    HW261467   7.897  10.386  12.221
53210SOL     OW61468   6.787  14.450  13.175
53210SOL    HW161469   6.816  14.361  13.193
53210SOL    HW261470   6.855  14.506  13.214
53211SOL     OW61471   9.466   4.822  11.483
53211SOL    HW161472   9.408   4.778  11.545
53211SOL    HW261473   9.538   4.761  11.469
53212SOL     OW61474  10.214   2.976  12.507
53212SOL    HW161475  10.171   2.954  12.425
53212SOL    HW261476  10.252   2.893  12.538
53213SOL     OW61477   8.552   3.266   3.241
53213SOL    HW161478   8.639   3.247   3.276
53213SOL    HW261479   8.568   3.320   3.164
53214SOL     OW61480   9.299   7.267   2.319
53214SOL    HW161481   9.239   7.325   2.272
53214SOL    HW261482   9.378   7.264   2.265
53215SOL     OW61483   6.124  10.265  13.496
53215SOL    HW161484   6.091  10.194  13.551
53215SOL    HW261485   6.107  10.236  13.406
53216SOL     OW61486  13.815   4.601   7.783
53216SOL    HW161487  13.826   4.695   7.792
53216SOL    HW261488  13.894   4.570   7.740
53217SOL     OW61489   0.869   7.730   3.679
53217SOL    HW161490   0.931   7.665   3.648
53217SOL    HW261491   0.804   7.680   3.728
53218SOL     OW61492   1.811   6.094   7.890
53218SOL    HW161493   1.853   6.122   7.972
53218SOL    HW261494   1.737   6.153   7.880
53219SOL     OW61495  14.876   3.564   8.211
53219SOL    HW161496   0.034   3.488   8.252
53219SOL    HW261497   0.017   3.557   8.119
53220SOL     OW61498  13.458   0.233   5.652
53220SOL    HW161499  13.407   0.188   5.585
53220SOL    HW261500  13.479   0.318   5.613
53221SOL     OW61501   9.014   8.382   9.267
53221SOL    HW161502   8.984   8.468   9.236
53221SOL    HW261503   8.990   8.321   9.198
53222SOL     OW61504   6.879   2.841   7.205
53222SOL    HW161505   6.815   2.870   7.140
53222SOL    HW261506   6.860   2.894   7.283
53223SOL     OW61507  10.302   0.358   2.815
53223SOL    HW161508  10.221   0.409   2.820
53223SOL    HW261509  10.347   0.375   2.898
53224SOL     OW61510   5.415  10.921   9.697
53224SOL    HW161511   5.458  10.902   9.781
53224SOL    HW261512   5.362  10.998   9.714
53225SOL     OW61513  11.325   9.113   3.226
53225SOL    HW161514  11.411   9.082   3.198
53225SOL    HW261515  11.323   9.095   3.320
53226SOL     OW61516   3.288   1.600  10.818
53226SOL    HW161517   3.200   1.565  10.803
53226SOL    HW261518   3.339   1.526  10.849
53227SOL     OW61519   4.231   1.035   6.532
53227SOL    HW161520   4.198   1.011   6.619
53227SOL    HW261521   4.322   1.063   6.548
53228SOL     OW61522   5.354   4.233   6.129
53228SOL    HW161523   5.352   4.302   6.196
53228SOL    HW261524   5.262   4.206   6.121
53229SOL     OW61525   6.573   9.643   6.287
53229SOL    HW161526   6.544   9.597   6.367
53229SOL    HW261527   6.580   9.574   6.222
53230SOL     OW61528  14.753  11.411   5.040
53230SOL    HW161529  14.783  11.375   5.124
53230SOL    HW261530  14.788  11.351   4.974
53231SOL     OW61531   8.580   9.866  11.698
53231SOL    HW161532   8.675   9.877  11.709
53231SOL    HW261533   8.566   9.772  11.708
53232SOL     OW61534   6.542   7.700   2.485
53232SOL    HW161535   6.621   7.746   2.456
53232SOL    HW261536   6.571   7.611   2.504
53233SOL     OW61537  10.705   4.067   2.677
53233SOL    HW161538  10.658   4.132   2.730
53233SOL    HW261539  10.768   4.028   2.737
53234SOL     OW61540   4.362  13.354  11.015
53234SOL    HW161541   4.367  13.450  11.014
53234SOL    HW261542   4.433  13.326  10.959
53235SOL     OW61543   2.355   9.348  14.454
53235SOL    HW161544   2.375   9.257  14.477
53235SOL    HW261545   2.358   9.350  14.359
53236SOL     OW61546  13.775   2.346   8.561
53236SOL    HW161547  13.697   2.374   8.512
53236SOL    HW261548  13.768   2.394   8.644
53237SOL     OW61549   1.855  10.703   0.723
53237SOL    HW161550   1.902  10.731   0.801
53237SOL    HW261551   1.903  10.626   0.692
53238SOL     OW61552   5.479  13.203  12.266
53238SOL    HW161553   5.451  13.231  12.354
53238SOL    HW261554   5.450  13.112  12.260
53239SOL     OW61555   8.262   1.228   3.318
53239SOL    HW161556   8.249   1.293   3.387
53239SOL    HW261557   8.237   1.273   3.237
53240SOL     OW61558   4.780  11.970  10.564
53240SOL    HW161559   4.811  12.058  10.543
53240SOL    HW261560   4.788  11.963  10.659
53241SOL     OW61561   0.385   1.317  11.052
53241SOL    HW161562   0.314   1.270  11.097
53241SOL    HW261563   0.383   1.285  10.962
53242SOL     OW61564  14.258   8.990   7.998
53242SOL    HW161565  14.340   8.958   8.035
53242SOL    HW261566  14.284   9.050   7.929
53243SOL     OW61567   0.639  13.963   3.259
53243SOL    HW161568   0.658  14.019   3.334
53243SOL    HW261569   0.613  13.879   3.298
53244SOL     OW61570  14.646   7.039   7.371
53244SOL    HW161571  14.666   6.945   7.372
53244SOL    HW261572  14.610   7.057   7.457
53245SOL     OW61573   3.955   0.821   6.013
53245SOL    HW161574   3.954   0.915   6.030
53245SOL    HW261575   4.043   0.804   5.980
53246SOL     OW61576  14.099  14.281   8.471
53246SOL    HW161577  14.183  14.328   8.466
53246SOL    HW261578  14.106  14.227   8.549
53247SOL     OW61579   7.843   2.830   4.914
53247SOL    HW161580   7.913   2.809   4.975
53247SOL    HW261581   7.765   2.789   4.953
53248SOL     OW61582   8.708   0.250  10.063
53248SOL    HW161583   8.637   0.229  10.002
53248SOL    HW261584   8.788   0.224  10.017
53249SOL     OW61585   7.668   8.426   8.382
53249SOL    HW161586   7.598   8.415   8.447
53249SOL    HW261587   7.740   8.373   8.415
53250SOL     OW61588  14.839   6.234   6.119
53250SOL    HW161589  14.795   6.166   6.068
53250SOL    HW261590   0.042   6.244   6.077
53251SOL     OW61591   2.130  11.324   2.539
53251SOL    HW161592   2.103  11.233   2.554
53251SOL    HW261593   2.210  11.318   2.488
53252SOL     OW61594   0.547   8.151   8.313
53252SOL    HW161595   0.610   8.208   8.268
53252SOL    HW261596   0.585   8.063   8.307
53253SOL     OW61597  13.588  13.480  14.238
53253SOL    HW161598  13.574  13.412  14.305
53253SOL    HW261599  13.504  13.485  14.192
53254SOL     OW61600  11.176   7.400  12.056
53254SOL    HW161601  11.159   7.494  12.057
53254SOL    HW261602  11.134   7.367  12.136
53255SOL     OW61603   8.386   8.836   3.815
53255SOL    HW161604   8.457   8.842   3.751
53255SOL    HW261605   8.373   8.742   3.828
53256SOL     OW61606   2.309   0.617  11.891
53256SOL    HW161607   2.314   0.705  11.928
53256SOL    HW261608   2.222   0.613  11.851
53257SOL     OW61609   2.865   6.427   4.556
53257SOL    HW161610   2.806   6.351   4.557
53257SOL    HW261611   2.808   6.501   4.537
53258SOL     OW61612   4.690   8.524   5.603
53258SOL    HW161613   4.632   8.519   5.527
53258SOL    HW261614   4.634   8.560   5.673
53259SOL     OW61615  14.792   0.318   4.598
53259SOL    HW161616  14.836   0.326   4.513
53259SOL    HW261617  14.777   0.408   4.626
53260SOL     OW61618  13.584  13.432   1.403
53260SOL    HW161619  13.668  13.395   1.374
53260SOL    HW261620  13.520  13.363   1.387
53261SOL     OW61621  13.653   8.044   4.888
53261SOL    HW161622  13.691   7.960   4.915
53261SOL    HW261623  13.558   8.029   4.890
53262SOL     OW61624  14.791  12.750   9.130
53262SOL    HW161625  14.773  12.843   9.112
53262SOL    HW261626  14.881  12.750   9.165
53263SOL     OW61627   9.691   4.781  10.624
53263SOL    HW161628   9.663   4.839  10.695
53263SOL    HW261629   9.700   4.838  10.548
53264SOL     OW61630   6.043   8.341  14.249
53264SOL    HW161631   6.095   8.394  14.188
53264SOL    HW261632   6.106   8.313  14.316
53265SOL     OW61633   0.961  11.141  13.313
53265SOL    HW161634   0.902  11.149  13.238
53265SOL    HW261635   1.046  11.171  13.280
53266SOL     OW61636   7.627   5.571   7.918
53266SOL    HW161637   7.616   5.476   7.929
53266SOL    HW261638   7.538   5.606   7.922
53267SOL     OW61639   0.127   7.347   5.236
53267SOL    HW161640   0.221   7.343   5.215
53267SOL    HW261641   0.103   7.256   5.252
53268SOL     OW61642   9.820   5.306   8.604
53268SOL    HW161643   9.903   5.258   8.606
53268SOL    HW261644   9.762   5.252   8.550
53269SOL     OW61645   8.559   6.969   0.705
53269SOL    HW161646   8.484   6.917   0.732
53269SOL    HW261647   8.566   6.953   0.611
53270SOL     OW61648   1.599   3.346  12.413
53270SOL    HW161649   1.661   3.304  12.352
53270SOL    HW261650   1.650   3.362  12.492
53271SOL     OW61651   4.380  12.860   4.088
53271SOL    HW161652   4.423  12.846   4.003
53271SOL    HW261653   4.287  12.868   4.067
53272SOL     OW61654   1.208   5.795   8.850
53272SOL    HW161655   1.300   5.824   8.850
53272SOL    HW261656   1.214   5.699   8.857
53273SOL     OW61657  12.477   3.465   7.694
53273SOL    HW161658  12.512   3.379   7.718
53273SOL    HW261659  12.414   3.485   7.763
53274SOL     OW61660   4.846  13.380   4.363
53274SOL    HW161661   4.818  13.460   4.317
53274SOL    HW261662   4.830  13.309   4.300
53275SOL     OW61663   3.841   1.543  11.254
53275SOL    HW161664   3.878   1.462  11.220
53275SOL    HW261665   3.750   1.522  11.275
53276SOL     OW61666   6.762  10.193   6.514
53276SOL    HW161667   6.726  10.124   6.569
53276SOL    HW261668   6.758  10.157   6.425
53277SOL     OW61669   7.250   4.715  12.872
53277SOL    HW161670   7.294   4.789  12.831
53277SOL    HW261671   7.172   4.753  12.913
53278SOL     OW61672  10.748  11.564  14.136
53278SOL    HW161673  10.756  11.572  14.041
53278SOL    HW261674  10.734  11.654  14.167
53279SOL     OW61675   7.311  13.136  14.193
53279SOL    HW161676   7.331  13.043  14.181
53279SOL    HW261677   7.397  13.179  14.190
53280SOL     OW61678   3.982   8.010   2.418
53280SOL    HW161679   4.033   8.074   2.370
53280SOL    HW261680   3.989   7.929   2.366
53281SOL     OW61681   3.593  10.339  11.620
53281SOL    HW161682   3.664  10.305  11.565
53281SOL    HW261683   3.532  10.380  11.560
53282SOL     OW61684   0.607  14.066  11.893
53282SOL    HW161685   0.606  14.020  11.977
53282SOL    HW261686   0.638  14.001  11.831
53283SOL     OW61687   1.643  11.948   4.461
53283SOL    HW161688   1.691  11.866   4.450
53283SOL    HW261689   1.646  11.965   4.555
53284SOL     OW61690   0.788   3.312   6.171
53284SOL    HW161691   0.726   3.287   6.239
53284SOL    HW261692   0.873   3.284   6.204
53285SOL     OW61693   1.271  14.267  13.702
53285SOL    HW161694   1.238  14.181  13.677
53285SOL    HW261695   1.195  14.325  13.699
53286SOL     OW61696  13.668  10.769  12.695
53286SOL    HW161697  13.702  10.786  12.783
53286SOL    HW261698  13.582  10.811  12.694
53287SOL     OW61699   6.545   9.088  12.606
53287SOL    HW161700   6.482   9.019  12.624
53287SOL    HW261701   6.541   9.145  12.683
53288SOL     OW61702   3.735   5.537   9.284
53288SOL    HW161703   3.770   5.621   9.313
53288SOL    HW261704   3.715   5.550   9.191
53289SOL     OW61705   6.612  10.754   0.811
53289SOL    HW161706   6.553  10.703   0.865
53289SOL    HW261707   6.697  10.710   0.818
53290SOL     OW61708   5.723   3.287   2.981
53290SOL    HW161709   5.720   3.383   2.987
53290SOL    HW261710   5.736   3.257   3.071
53291SOL     OW61711  11.024   0.416  13.830
53291SOL    HW161712  11.077   0.356  13.883
53291SOL    HW261713  11.086   0.483  13.800
53292SOL     OW61714  12.902  14.018  12.418
53292SOL    HW161715  12.865  13.938  12.456
53292SOL    HW261716  12.826  14.066  12.385
53293SOL     OW61717   2.611   1.430   6.012
53293SOL    HW161718   2.567   1.462   5.933
53293SOL    HW261719   2.644   1.343   5.987
53294SOL     OW61720   5.255  11.236   5.129
53294SOL    HW161721   5.191  11.204   5.065
53294SOL    HW261722   5.202  11.272   5.200
53295SOL     OW61723  13.914   8.784  10.038
53295SOL    HW161724  13.882   8.722  10.103
53295SOL    HW261725  14.007   8.795  10.059
53296SOL     OW61726   9.012  13.128   4.257
53296SOL    HW161727   9.103  13.098   4.266
53296SOL    HW261728   8.969  13.057   4.209
53297SOL     OW61729  14.012   7.184   1.486
53297SOL    HW161730  14.028   7.251   1.420
53297SOL    HW261731  14.077   7.201   1.554
53298SOL     OW61732  11.042   8.658   0.943
53298SOL    HW161733  11.084   8.629   1.023
53298SOL    HW261734  11.114   8.680   0.884
53299SOL     OW61735   5.413   4.687   6.570
53299SOL    HW161736   5.368   4.739   6.503
53299SOL    HW261737   5.374   4.714   6.653
53300SOL     OW61738   3.269   9.578   9.523
53300SOL    HW161739   3.248   9.504   9.466
53300SOL    HW261740   3.184   9.616   9.544
53301SOL     OW61741   6.040  12.086  10.906
53301SOL    HW161742   6.099  12.033  10.852
53301SOL    HW261743   6.098  12.149  10.950
53302SOL     OW61744  10.150   3.656   5.790
53302SOL    HW161745  10.071   3.711   5.791
53302SOL    HW261746  10.220   3.714   5.821
53303SOL     OW61747  12.246   8.923   8.116
53303SOL    HW161748  12.313   8.972   8.068
53303SOL    HW261749  12.204   8.989   8.171
53304SOL     OW61750   9.822   1.289  11.318
53304SOL    HW161751   9.751   1.352  11.329
53304SOL    HW261752   9.816   1.261  11.226
53305SOL     OW61753  10.252   7.299   2.011
53305SOL    HW161754  10.170   7.263   2.043
53305SOL    HW261755  10.279   7.240   1.941
53306SOL     OW61756  10.245  14.173   0.408
53306SOL    HW161757  10.234  14.240   0.341
53306SOL    HW261758  10.340  14.168   0.422
53307SOL     OW61759   6.209   0.110   4.659
53307SOL    HW161760   6.277   0.177   4.671
53307SOL    HW261761   6.203   0.067   4.744
53308SOL     OW61762   6.419   9.916   6.746
53308SOL    HW161763   6.441   9.912   6.840
53308SOL    HW261764   6.324   9.913   6.744
53309SOL     OW61765   1.409   2.249   1.256
53309SOL    HW161766   1.421   2.324   1.198
53309SOL    HW261767   1.318   2.222   1.241
53310SOL     OW61768  11.248   0.066  14.255
53310SOL    HW161769  11.238  14.878  14.190
53310SOL    HW261770  11.160   0.105  14.261
53311SOL     OW61771   5.316   6.572   2.152
53311SOL    HW161772   5.397   6.606   2.192
53311SOL    HW261773   5.346   6.506   2.089
53312SOL     OW61774   3.623  13.673   1.504
53312SOL    HW161775   3.584  13.629   1.579
53312SOL    HW261776   3.553  13.678   1.439
53313SOL     OW61777  12.162   8.997  10.286
53313SOL    HW161778  12.157   8.904  10.263
53313SOL    HW261779  12.199   9.039  10.209
53314SOL     OW61780   7.104   5.465   8.321
53314SOL    HW161781   7.115   5.472   8.226
53314SOL    HW261782   7.043   5.392   8.333
53315SOL     OW61783   4.351   9.246   4.663
53315SOL    HW161784   4.321   9.264   4.752
53315SOL    HW261785   4.308   9.312   4.609
53316SOL     OW61786   9.921  11.811   6.535
53316SOL    HW161787   9.868  11.886   6.509
53316SOL    HW261788  10.005  11.848   6.561
53317SOL     OW61789   6.709   1.357  11.042
53317SOL    HW161790   6.789   1.402  11.070
53317SOL    HW261791   6.648   1.369  11.115
53318SOL     OW61792   5.804   6.802   4.009
53318SOL    HW161793   5.810   6.731   4.072
53318SOL    HW261794   5.723   6.786   3.961
53319SOL     OW61795  10.186   7.401  13.203
53319SOL    HW161796  10.238   7.471  13.244
53319SOL    HW261797  10.214   7.321  13.248
53320SOL     OW61798   1.306  10.231   4.815
53320SOL    HW161799   1.331  10.191   4.731
53320SOL    HW261800   1.331  10.166   4.880
53321SOL     OW61801   9.801   7.486   3.654
53321SOL    HW161802   9.760   7.570   3.676
53321SOL    HW261803   9.805   7.485   3.559
53322SOL     OW61804   0.833   0.354   1.110
53322SOL    HW161805   0.895   0.416   1.148
53322SOL    HW261806   0.756   0.358   1.167
53323SOL     OW61807   2.688   5.287   3.687
53323SOL    HW161808   2.734   5.287   3.603
53323SOL    HW261809   2.595   5.295   3.663
53324SOL     OW61810   1.988  14.543   5.123
53324SOL    HW161811   1.900  14.533   5.089
53324SOL    HW261812   2.045  14.517   5.051
53325SOL     OW61813  13.209   8.837  13.228
53325SOL    HW161814  13.177   8.749  13.210
53325SOL    HW261815  13.146   8.895  13.186
53326SOL     OW61816   6.645  11.397   0.113
53326SOL    HW161817   6.605  11.327   0.164
53326SOL    HW261818   6.670  11.355   0.031
53327SOL     OW61819   6.634   3.507  14.084
53327SOL    HW161820   6.573   3.534  14.152
53327SOL    HW261821   6.640   3.412  14.093
53328SOL     OW61822   8.458   6.887  12.842
53328SOL    HW161823   8.440   6.960  12.782
53328SOL    HW261824   8.515   6.925  12.908
53329SOL     OW61825   6.190  14.148   3.394
53329SOL    HW161826   6.240  14.091   3.336
53329SOL    HW261827   6.122  14.092   3.431
53330SOL     OW61828   3.202   0.193   1.501
53330SOL    HW161829   3.297   0.192   1.497
53330SOL    HW261830   3.180   0.146   1.581
53331SOL     OW61831   0.614   9.408   4.259
53331SOL    HW161832   0.699   9.443   4.236
53331SOL    HW261833   0.572   9.476   4.312
53332SOL     OW61834  10.014   4.392   1.973
53332SOL    HW161835   9.976   4.319   2.022
53332SOL    HW261836  10.099   4.407   2.016
53333SOL     OW61837   9.669  12.546  14.080
53333SOL    HW161838   9.667  12.597  14.000
53333SOL    HW261839   9.751  12.497  14.075
53334SOL     OW61840   6.679  13.170   4.624
53334SOL    HW161841   6.697  13.150   4.532
53334SOL    HW261842   6.584  13.182   4.627
53335SOL     OW61843   1.640   5.424   0.042
53335SOL    HW161844   1.711   5.396   0.100
53335SOL    HW261845   1.657   5.516   0.025
53336SOL     OW61846   1.747   5.028   8.288
53336SOL    HW161847   1.711   5.076   8.213
53336SOL    HW261848   1.701   4.944   8.288
53337SOL     OW61849  14.114   7.119   0.689
53337SOL    HW161850  14.071   7.204   0.678
53337SOL    HW261851  14.056   7.057   0.645
53338SOL     OW61852  14.236   2.053  13.157
53338SOL    HW161853  14.328   2.066  13.133
53338SOL    HW261854  14.240   2.016  13.245
53339SOL     OW61855   1.859   4.893  12.165
53339SOL    HW161856   1.854   4.874  12.259
53339SOL    HW261857   1.873   4.807  12.124
53340SOL     OW61858  10.856  12.413  12.961
53340SOL    HW161859  10.907  12.339  12.929
53340SOL    HW261860  10.919  12.485  12.966
53341SOL     OW61861   4.816  13.518   9.339
53341SOL    HW161862   4.784  13.440   9.385
53341SOL    HW261863   4.742  13.546   9.286
53342SOL     OW61864   9.988   0.507   8.771
53342SOL    HW161865   9.986   0.543   8.683
53342SOL    HW261866  10.068   0.541   8.810
53343SOL     OW61867  11.816   8.300  10.772
53343SOL    HW161868  11.907   8.328  10.760
53343SOL    HW261869  11.806   8.291  10.867
53344SOL     OW61870  12.599  11.375   9.053
53344SOL    HW161871  12.511  11.385   9.087
53344SOL    HW261872  12.637  11.462   9.057
53345SOL     OW61873   9.784   0.429   5.120
53345SOL    HW161874   9.722   0.358   5.136
53345SOL    HW261875   9.859   0.408   5.176
53346SOL     OW61876  13.894   2.251  14.239
53346SOL    HW161877  13.852   2.166  14.223
53346SOL    HW261878  13.984   2.229  14.263
53347SOL     OW61879   9.983   4.981  11.863
53347SOL    HW161880  10.024   4.894  11.858
53347SOL    HW261881  10.023   5.030  11.791
53348SOL     OW61882   7.767   7.020   5.950
53348SOL    HW161883   7.758   6.954   6.018
53348SOL    HW261884   7.687   7.013   5.899
53349SOL     OW61885   9.445   9.164  10.479
53349SOL    HW161886   9.489   9.203  10.404
53349SOL    HW261887   9.429   9.073  10.453
53350SOL     OW61888   9.177   6.873   5.970
53350SOL    HW161889   9.222   6.791   5.952
53350SOL    HW261890   9.247   6.938   5.979
53351SOL     OW61891   7.917   1.066  10.998
53351SOL    HW161892   7.937   1.019  11.079
53351SOL    HW261893   7.868   1.003  10.946
53352SOL     OW61894   2.629   5.102  12.837
53352SOL    HW161895   2.682   5.176  12.806
53352SOL    HW261896   2.692   5.044  12.881
53353SOL     OW61897   7.929  11.433   9.401
53353SOL    HW161898   8.007  11.406   9.352
53353SOL    HW261899   7.953  11.418   9.493
53354SOL     OW61900   4.959   2.984   2.785
53354SOL    HW161901   5.031   2.976   2.723
53354SOL    HW261902   4.901   2.911   2.763
53355SOL     OW61903   2.000   1.400   6.824
53355SOL    HW161904   2.066   1.423   6.890
53355SOL    HW261905   1.916   1.415   6.868
53356SOL     OW61906   1.404  14.029  12.246
53356SOL    HW161907   1.455  14.005  12.324
53356SOL    HW261908   1.317  14.051  12.280
53357SOL     OW61909   6.307  10.412   8.089
53357SOL    HW161910   6.344  10.467   8.159
53357SOL    HW261911   6.379  10.356   8.062
53358SOL     OW61912   7.285  13.520   9.833
53358SOL    HW161913   7.303  13.449   9.895
53358SOL    HW261914   7.242  13.587   9.885
53359SOL     OW61915   6.208   0.549   6.967
53359SOL    HW161916   6.234   0.518   7.054
53359SOL    HW261917   6.231   0.642   6.968
53360SOL     OW61918   3.208   9.429  14.856
53360SOL    HW161919   3.246   9.488   0.038
53360SOL    HW261920   3.166   9.486  14.791
53361SOL     OW61921   0.059  14.326   8.461
53361SOL    HW161922   0.022  14.413   8.475
53361SOL    HW261923   0.111  14.335   8.382
53362SOL     OW61924  11.856  10.185   2.314
53362SOL    HW161925  11.871  10.091   2.301
53362SOL    HW261926  11.804  10.190   2.395
53363SOL     OW61927   5.264   7.199   8.278
53363SOL    HW161928   5.195   7.142   8.244
53363SOL    HW261929   5.326   7.140   8.321
53364SOL     OW61930  13.154  14.182  14.007
53364SOL    HW161931  13.211  14.122  13.960
53364SOL    HW261932  13.076  14.131  14.027
53365SOL     OW61933  14.398   6.203   1.767
53365SOL    HW161934  14.359   6.115   1.773
53365SOL    HW261935  14.431   6.208   1.677
53366SOL     OW61936   5.643  11.353  10.617
53366SOL    HW161937   5.648  11.271  10.568
53366SOL    HW261938   5.723  11.400  10.592
53367SOL     OW61939  14.524   0.518   6.817
53367SOL    HW161940  14.435   0.551   6.801
53367SOL    HW261941  14.517   0.469   6.899
53368SOL     OW61942   9.881   4.733   2.160
53368SOL    HW161943   9.788   4.711   2.166
53368SOL    HW261944   9.890   4.814   2.211
53369SOL     OW61945  10.016   0.035  14.539
53369SOL    HW161946   9.943   0.039  14.602
53369SOL    HW261947  10.068   0.113  14.557
53370SOL     OW61948   0.587   4.923  11.325
53370SOL    HW161949   0.662   4.876  11.361
53370SOL    HW261950   0.576   4.886  11.237
53371SOL     OW61951   2.760   0.102   5.248
53371SOL    HW161952   2.779   0.114   5.341
53371SOL    HW261953   2.833   0.145   5.203
53372SOL     OW61954   3.294   1.747   3.810
53372SOL    HW161955   3.295   1.752   3.714
53372SOL    HW261956   3.313   1.837   3.838
53373SOL     OW61957   6.263   2.022   7.167
53373SOL    HW161958   6.334   2.007   7.106
53373SOL    HW261959   6.293   2.094   7.223
53374SOL     OW61960  13.171   9.229  13.425
53374SOL    HW161961  13.247   9.191  13.380
53374SOL    HW261962  13.207   9.300  13.477
53375SOL     OW61963   6.943  10.456  14.833
53375SOL    HW161964   6.910  10.460   0.041
53375SOL    HW261965   6.880  10.508  14.782
53376SOL     OW61966  10.237  14.539   0.520
53376SOL    HW161967  10.286  14.558   0.600
53376SOL    HW261968  10.298  14.488   0.467
53377SOL     OW61969  12.804  14.078   0.989
53377SOL    HW161970  12.755  14.096   0.909
53377SOL    HW261971  12.742  14.035   1.047
53378SOL     OW61972  13.309  10.553  13.627
53378SOL    HW161973  13.338  10.513  13.709
53378SOL    HW261974  13.389  10.586  13.587
53379SOL     OW61975   7.101   3.172  12.638
53379SOL    HW161976   7.137   3.091  12.601
53379SOL    HW261977   7.159   3.241  12.607
53380SOL     OW61978   4.483   0.483   3.926
53380SOL    HW161979   4.445   0.422   3.990
53380SOL    HW261980   4.429   0.472   3.848
53381SOL     OW61981   6.095  13.147  11.532
53381SOL    HW161982   6.037  13.122  11.604
53381SOL    HW261983   6.046  13.123  11.453
53382SOL     OW61984  10.517  12.565   9.374
53382SOL    HW161985  10.511  12.470   9.381
53382SOL    HW261986  10.568  12.580   9.294
53383SOL     OW61987   5.740   6.141   3.160
53383SOL    HW161988   5.805   6.076   3.134
53383SOL    HW261989   5.752   6.213   3.098
53384SOL     OW61990  11.114  11.237   1.804
53384SOL    HW161991  11.065  11.316   1.826
53384SOL    HW261992  11.087  11.216   1.715
53385SOL     OW61993   0.396  14.275  10.732
53385SOL    HW161994   0.329  14.280  10.664
53385SOL    HW261995   0.356  14.224  10.802
53386SOL     OW61996  12.509   7.609   9.408
53386SOL    HW161997  12.550   7.655   9.482
53386SOL    HW261998  12.547   7.650   9.330
53387SOL     OW61999   8.977   9.196   2.397
53387SOL    HW162000   9.028   9.211   2.318
53387SOL    HW262001   9.007   9.263   2.458
53388SOL     OW62002   2.563   8.593  13.341
53388SOL    HW162003   2.572   8.559  13.252
53388SOL    HW262004   2.608   8.529  13.396
53389SOL     OW62005   5.225   7.400   3.837
53389SOL    HW162006   5.294   7.353   3.790
53389SOL    HW262007   5.160   7.421   3.770
53390SOL     OW62008   2.414   3.600   0.101
53390SOL    HW162009   2.464   3.664   0.052
53390SOL    HW262010   2.467   3.582   0.179
53391SOL     OW62011   6.349   7.956   7.275
53391SOL    HW162012   6.287   8.013   7.231
53391SOL    HW262013   6.378   7.894   7.207
53392SOL     OW62014   7.491   4.723   7.061
53392SOL    HW162015   7.579   4.685   7.063
53392SOL    HW262016   7.443   4.677   7.129
53393SOL     OW62017  12.935  11.545   8.218
53393SOL    HW162018  12.933  11.640   8.212
53393SOL    HW262019  12.868  11.523   8.283
53394SOL     OW62020   7.815  14.765   0.026
53394SOL    HW162021   7.801  14.676   0.058
53394SOL    HW262022   7.830  14.755  14.814
53395SOL     OW62023   1.837   6.908   9.185
53395SOL    HW162024   1.859   6.937   9.097
53395SOL    HW262025   1.834   6.812   9.179
53396SOL     OW62026   5.173   1.753   6.218
53396SOL    HW162027   5.254   1.703   6.223
53396SOL    HW262028   5.180   1.817   6.290
53397SOL     OW62029   0.258  13.156   9.344
53397SOL    HW162030   0.269  13.221   9.414
53397SOL    HW262031   0.238  13.208   9.266
53398SOL     OW62032   1.712   8.746  12.746
53398SOL    HW162033   1.626   8.720  12.713
53398SOL    HW262034   1.698   8.830  12.788
53399SOL     OW62035   1.190  11.454  13.319
53399SOL    HW162036   1.141  11.492  13.247
53399SOL    HW262037   1.133  11.464  13.395
53400SOL     OW62038   8.689   8.480  11.431
53400SOL    HW162039   8.757   8.422  11.397
53400SOL    HW262040   8.669   8.538  11.357
53401SOL     OW62041   9.304   2.460   4.230
53401SOL    HW162042   9.322   2.520   4.158
53401SOL    HW262043   9.247   2.393   4.192
53402SOL     OW62044  10.858   1.451   1.400
53402SOL    HW162045  10.871   1.479   1.310
53402SOL    HW262046  10.947   1.443   1.436
53403SOL     OW62047   9.207   2.272  14.346
53403SOL    HW162048   9.129   2.326  14.345
53403SOL    HW262049   9.279   2.333  14.359
53404SOL     OW62050  13.661   5.386   2.270
53404SOL    HW162051  13.660   5.439   2.350
53404SOL    HW262052  13.623   5.442   2.203
53405SOL     OW62053  12.691  11.391  10.305
53405SOL    HW162054  12.684  11.295  10.306
53405SOL    HW262055  12.736  11.413  10.386
53406SOL     OW62056  11.416   7.033  11.709
53406SOL    HW162057  11.381   7.111  11.752
53406SOL    HW262058  11.365   6.960  11.746
53407SOL     OW62059   0.166   9.773   1.037
53407SOL    HW162060   0.135   9.687   1.010
53407SOL    HW262061   0.137   9.782   1.128
53408SOL     OW62062   7.723   5.304   5.488
53408SOL    HW162063   7.670   5.383   5.477
53408SOL    HW262064   7.758   5.311   5.577
53409SOL     OW62065  13.132   7.794   0.993
53409SOL    HW162066  13.057   7.822   0.941
53409SOL    HW262067  13.205   7.847   0.961
53410SOL     OW62068   1.175   7.472  14.658
53410SOL    HW162069   1.090   7.517  14.653
53410SOL    HW262070   1.161   7.390  14.610
53411SOL     OW62071   7.147   9.460  14.165
53411SOL    HW162072   7.215   9.393  14.172
53411SOL    HW262073   7.185   9.537  14.208
53412SOL     OW62074  14.630   0.295   8.793
53412SOL    HW162075  14.610   0.369   8.849
53412SOL    HW262076  14.663   0.334   8.712
53413SOL     OW62077   8.600   7.431   4.105
53413SOL    HW162078   8.579   7.409   4.015
53413SOL    HW262079   8.517   7.457   4.144
53414SOL     OW62080   4.628   0.606   5.718
53414SOL    HW162081   4.698   0.612   5.654
53414SOL    HW262082   4.548   0.616   5.667
53415SOL     OW62083  10.246  14.165   9.039
53415SOL    HW162084  10.297  14.110   9.097
53415SOL    HW262085  10.156  14.155   9.069
53416SOL     OW62086  10.668   4.293   3.884
53416SOL    HW162087  10.690   4.228   3.951
53416SOL    HW262088  10.596   4.254   3.835
53417SOL     OW62089   1.515  11.511  13.730
53417SOL    HW162090   1.455  11.480  13.797
53417SOL    HW262091   1.485  11.470  13.649
53418SOL     OW62092  12.137   3.760   7.403
53418SOL    HW162093  12.138   3.723   7.315
53418SOL    HW262094  12.224   3.742   7.438
53419SOL     OW62095   3.997   0.308   2.991
53419SOL    HW162096   4.001   0.404   2.999
53419SOL    HW262097   3.982   0.293   2.897
53420SOL     OW62098   1.551  11.031   9.076
53420SOL    HW162099   1.571  10.968   9.146
53420SOL    HW262100   1.620  11.097   9.084
53421SOL     OW62101   9.417   6.627   0.301
53421SOL    HW162102   9.330   6.607   0.266
53421SOL    HW262103   9.448   6.699   0.247
53422SOL     OW62104   5.568   7.220  10.727
53422SOL    HW162105   5.496   7.280  10.746
53422SOL    HW262106   5.646   7.276  10.727
53423SOL     OW62107   9.299   4.438   6.835
53423SOL    HW162108   9.321   4.511   6.778
53423SOL    HW262109   9.228   4.471   6.890
53424SOL     OW62110   0.363   9.655  13.127
53424SOL    HW162111   0.430   9.587  13.115
53424SOL    HW262112   0.313   9.625  13.203
53425SOL     OW62113   6.568  11.967   4.450
53425SOL    HW162114   6.559  12.062   4.438
53425SOL    HW262115   6.617  11.959   4.532
53426SOL     OW62116  10.176   8.469   8.406
53426SOL    HW162117  10.199   8.550   8.360
53426SOL    HW262118  10.253   8.449   8.459
53427SOL     OW62119   3.547   4.537   0.860
53427SOL    HW162120   3.453   4.522   0.861
53427SOL    HW262121   3.584   4.456   0.827
53428SOL     OW62122   9.099   2.878  10.491
53428SOL    HW162123   9.015   2.837  10.511
53428SOL    HW262124   9.163   2.832  10.546
53429SOL     OW62125  13.145   6.376   6.210
53429SOL    HW162126  13.184   6.443   6.153
53429SOL    HW262127  13.101   6.316   6.150
53430SOL     OW62128  11.234   4.073   9.822
53430SOL    HW162129  11.160   4.017   9.845
53430SOL    HW262130  11.293   4.016   9.772
53431SOL     OW62131   0.623   6.485  10.828
53431SOL    HW162132   0.563   6.522  10.763
53431SOL    HW262133   0.675   6.422  10.778
53432SOL     OW62134  10.691   2.090   9.194
53432SOL    HW162135  10.784   2.105   9.175
53432SOL    HW262136  10.687   1.999   9.224
53433SOL     OW62137   6.337   9.572   0.384
53433SOL    HW162138   6.403   9.541   0.322
53433SOL    HW262139   6.257   9.527   0.357
53434SOL     OW62140  11.466   7.990   7.362
53434SOL    HW162141  11.395   7.933   7.393
53434SOL    HW262142  11.436   8.022   7.277
53435SOL     OW62143  12.719   3.170   3.855
53435SOL    HW162144  12.714   3.118   3.775
53435SOL    HW262145  12.683   3.256   3.832
53436SOL     OW62146  14.423   0.285   5.096
53436SOL    HW162147  14.332   0.315   5.104
53436SOL    HW262148  14.453   0.318   5.012
53437SOL     OW62149   2.493   1.011   1.025
53437SOL    HW162150   2.568   0.953   1.038
53437SOL    HW262151   2.430   0.959   0.975
53438SOL     OW62152  11.087   1.326  10.909
53438SOL    HW162153  10.993   1.311  10.917
53438SOL    HW262154  11.095   1.415  10.877
53439SOL     OW62155  10.286   6.889  13.973
53439SOL    HW162156  10.315   6.945  14.045
53439SOL    HW262157  10.351   6.818  13.970
53440SOL     OW62158  10.839   9.593  12.694
53440SOL    HW162159  10.824   9.616  12.602
53440SOL    HW262160  10.921   9.637  12.717
53441SOL     OW62161   5.513   6.302   9.931
53441SOL    HW162162   5.548   6.223   9.889
53441SOL    HW262163   5.547   6.374   9.878
53442SOL     OW62164  12.606   6.187   5.265
53442SOL    HW162165  12.654   6.261   5.227
53442SOL    HW262166  12.674   6.124   5.288
53443SOL     OW62167   1.851  11.223   6.998
53443SOL    HW162168   1.884  11.186   6.917
53443SOL    HW262169   1.839  11.316   6.979
53444SOL     OW62170   2.316   7.585  10.801
53444SOL    HW162171   2.322   7.588  10.897
53444SOL    HW262172   2.347   7.671  10.773
53445SOL     OW62173   0.955   0.686   4.866
53445SOL    HW162174   0.877   0.633   4.847
53445SOL    HW262175   1.028   0.626   4.853
53446SOL     OW62176   0.168  14.402  14.406
53446SOL    HW162177   0.078  14.404  14.374
53446SOL    HW262178   0.220  14.371  14.332
53447SOL     OW62179  10.582  11.628  10.481
53447SOL    HW162180  10.534  11.657  10.404
53447SOL    HW262181  10.514  11.615  10.548
53448SOL     OW62182   8.553   5.782  14.579
53448SOL    HW162183   8.581   5.853  14.521
53448SOL    HW262184   8.477   5.744  14.535
53449SOL     OW62185  10.607   3.692   8.325
53449SOL    HW162186  10.559   3.618   8.363
53449SOL    HW262187  10.691   3.654   8.298
53450SOL     OW62188   9.601   3.986  12.366
53450SOL    HW162189   9.644   4.067  12.340
53450SOL    HW262190   9.669   3.935  12.409
53451SOL     OW62191   0.642  11.416   8.101
53451SOL    HW162192   0.586  11.348   8.064
53451SOL    HW262193   0.725  11.373   8.119
53452SOL     OW62194   4.550  14.142   0.742
53452SOL    HW162195   4.476  14.080   0.743
53452SOL    HW262196   4.528  14.204   0.673
53453SOL     OW62197   7.829   7.763   5.709
53453SOL    HW162198   7.909   7.711   5.698
53453SOL    HW262199   7.759   7.698   5.717
53454SOL     OW62200  11.301  14.693   6.937
53454SOL    HW162201  11.344  14.776   6.960
53454SOL    HW262202  11.232  14.683   7.003
53455SOL     OW62203   2.752   4.914   0.509
53455SOL    HW162204   2.744   4.887   0.418
53455SOL    HW262205   2.838   4.882   0.536
53456SOL     OW62206  13.973   3.649   6.848
53456SOL    HW162207  13.909   3.646   6.777
53456SOL    HW262208  14.055   3.671   6.806
53457SOL     OW62209   7.566   0.077   3.994
53457SOL    HW162210   7.495   0.015   3.979
53457SOL    HW262211   7.607   0.047   4.075
53458SOL     OW62212   8.368   7.704  11.283
53458SOL    HW162213   8.311   7.631  11.308
53458SOL    HW262214   8.318   7.750  11.215
53459SOL     OW62215   4.106   9.107  14.743
53459SOL    HW162216   4.160   9.179  14.776
53459SOL    HW262217   4.162   9.030  14.753
53460SOL     OW62218  10.382  11.001  14.464
53460SOL    HW162219  10.326  11.077  14.484
53460SOL    HW262220  10.327  10.925  14.485
53461SOL     OW62221   3.997   2.325  12.614
53461SOL    HW162222   4.030   2.296  12.529
53461SOL    HW262223   4.001   2.246  12.669
53462SOL     OW62224   8.721   7.462   8.933
53462SOL    HW162225   8.671   7.530   8.978
53462SOL    HW262226   8.676   7.450   8.849
53463SOL     OW62227   7.147   3.572   6.110
53463SOL    HW162228   7.085   3.634   6.071
53463SOL    HW262229   7.123   3.487   6.072
53464SOL     OW62230  12.546   7.337   3.151
53464SOL    HW162231  12.625   7.285   3.163
53464SOL    HW262232  12.519   7.360   3.240
53465SOL     OW62233  11.848  12.445   1.369
53465SOL    HW162234  11.795  12.524   1.379
53465SOL    HW262235  11.789  12.374   1.394
53466SOL     OW62236   8.864   1.824  11.825
53466SOL    HW162237   8.923   1.816  11.750
53466SOL    HW262238   8.800   1.754  11.812
53467SOL     OW62239  13.379  12.952   9.162
53467SOL    HW162240  13.318  13.008   9.114
53467SOL    HW262241  13.326  12.914   9.232
53468SOL     OW62242   9.698  14.480   9.716
53468SOL    HW162243   9.616  14.434   9.730
53468SOL    HW262244   9.676  14.573   9.726
53469SOL     OW62245  12.683   9.656   7.878
53469SOL    HW162246  12.771   9.641   7.841
53469SOL    HW262247  12.694   9.733   7.934
53470SOL     OW62248  14.705  14.022  11.067
53470SOL    HW162249  14.786  13.978  11.095
53470SOL    HW262250  14.722  14.115  11.084
53471SOL     OW62251   1.738   8.769   4.413
53471SOL    HW162252   1.731   8.697   4.475
53471SOL    HW262253   1.830   8.795   4.417
53472SOL     OW62254   1.883  11.813  14.005
53472SOL    HW162255   1.918  11.803  14.094
53472SOL    HW262256   1.870  11.723  13.975
53473SOL     OW62257   6.352   3.771   7.074
53473SOL    HW162258   6.367   3.865   7.082
53473SOL    HW262259   6.372   3.751   6.983
53474SOL     OW62260   6.003   0.454   4.781
53474SOL    HW162261   5.940   0.392   4.743
53474SOL    HW262262   5.960   0.539   4.774
53475SOL     OW62263   3.385  11.654  11.659
53475SOL    HW162264   3.452  11.663  11.591
53475SOL    HW262265   3.307  11.628  11.611
53476SOL     OW62266   8.230  13.555   6.229
53476SOL    HW162267   8.277  13.501   6.292
53476SOL    HW262268   8.187  13.623   6.282
53477SOL     OW62269   2.567   0.603   9.286
53477SOL    HW162270   2.481   0.613   9.326
53477SOL    HW262271   2.558   0.646   9.201
53478SOL     OW62272   7.446   9.128   3.338
53478SOL    HW162273   7.397   9.134   3.419
53478SOL    HW262274   7.535   9.105   3.365
53479SOL     OW62275  14.567  11.306   8.545
53479SOL    HW162276  14.603  11.285   8.459
53479SOL    HW262277  14.571  11.402   8.550
53480SOL     OW62278   5.909   9.030   0.989
53480SOL    HW162279   5.900   8.935   0.985
53480SOL    HW262280   5.999   9.047   0.962
53481SOL     OW62281   0.441   7.448  12.119
53481SOL    HW162282   0.359   7.430  12.165
53481SOL    HW262283   0.463   7.366  12.076
53482SOL     OW62284  11.376   1.766   0.227
53482SOL    HW162285  11.409   1.677   0.239
53482SOL    HW262286  11.418   1.796   0.146
53483SOL     OW62287  12.603   5.295   0.952
53483SOL    HW162288  12.670   5.313   0.887
53483SOL    HW262289  12.603   5.200   0.961
53484SOL     OW62290  12.903  12.661   1.874
53484SOL    HW162291  12.858  12.695   1.796
53484SOL    HW262292  12.996  12.672   1.854
53485SOL     OW62293  12.398   7.693   9.772
53485SOL    HW162294  12.454   7.693   9.849
53485SOL    HW262295  12.311   7.670   9.805
53486SOL     OW62296   9.144   8.674   8.910
53486SOL    HW162297   9.120   8.723   8.831
53486SOL    HW262298   9.230   8.708   8.934
53487SOL     OW62299   7.354   4.836   0.928
53487SOL    HW162300   7.365   4.921   0.885
53487SOL    HW262301   7.275   4.799   0.888
53488SOL     OW62302   3.405   1.796  13.161
53488SOL    HW162303   3.492   1.760  13.177
53488SOL    HW262304   3.356   1.776  13.241
53489SOL     OW62305   0.097   8.366  13.595
53489SOL    HW162306   0.018   8.368  13.649
53489SOL    HW262307   0.075   8.307  13.522
53490SOL     OW62308  13.492   6.146  14.075
53490SOL    HW162309  13.554   6.122  14.006
53490SOL    HW262310  13.520   6.096  14.151
53491SOL     OW62311   7.204   3.327   1.273
53491SOL    HW162312   7.249   3.394   1.222
53491SOL    HW262313   7.219   3.246   1.224
53492SOL     OW62314  11.117  12.929   8.553
53492SOL    HW162315  11.052  12.995   8.578
53492SOL    HW262316  11.088  12.898   8.467
53493SOL     OW62317   7.937   0.270  12.198
53493SOL    HW162318   7.925   0.359  12.163
53493SOL    HW262319   7.961   0.217  12.123
53494SOL     OW62320  12.712   5.846  13.399
53494SOL    HW162321  12.709   5.850  13.303
53494SOL    HW262322  12.736   5.935  13.425
53495SOL     OW62323   2.350   7.385   7.269
53495SOL    HW162324   2.388   7.400   7.183
53495SOL    HW262325   2.286   7.316   7.256
53496SOL     OW62326  12.641   6.578  12.728
53496SOL    HW162327  12.696   6.656  12.721
53496SOL    HW262328  12.652   6.548  12.818
53497SOL     OW62329   8.212   8.092   4.694
53497SOL    HW162330   8.273   8.157   4.657
53497SOL    HW262331   8.240   8.009   4.656
53498SOL     OW62332  14.716  10.538   2.905
53498SOL    HW162333  14.781  10.593   2.949
53498SOL    HW262334  14.639  10.541   2.962
53499SOL     OW62335   3.405   5.896   4.572
53499SOL    HW162336   3.453   5.932   4.498
53499SOL    HW262337   3.404   5.801   4.556
53500SOL     OW62338  10.344   1.444   0.184
53500SOL    HW162339  10.363   1.483   0.099
53500SOL    HW262340  10.420   1.465   0.238
53501SOL     OW62341   8.688  11.073  14.462
53501SOL    HW162342   8.696  10.987  14.503
53501SOL    HW262343   8.617  11.116  14.510
53502SOL     OW62344  14.835  12.828   6.877
53502SOL    HW162345  14.812  12.837   6.969
53502SOL    HW262346  14.836  12.734   6.862
53503SOL     OW62347   1.767   2.092   8.838
53503SOL    HW162348   1.689   2.144   8.819
53503SOL    HW262349   1.776   2.095   8.933
53504SOL     OW62350   4.319   1.693   6.749
53504SOL    HW162351   4.225   1.678   6.740
53504SOL    HW262352   4.360   1.611   6.723
53505SOL     OW62353   5.392   6.580  13.335
53505SOL    HW162354   5.384   6.640  13.410
53505SOL    HW262355   5.316   6.601  13.280
53506SOL     OW62356   9.694   4.212  13.459
53506SOL    HW162357   9.782   4.198  13.492
53506SOL    HW262358   9.703   4.211  13.363
53507SOL     OW62359   9.362   7.106  10.981
53507SOL    HW162360   9.289   7.073  10.928
53507SOL    HW262361   9.440   7.069  10.940
53508SOL     OW62362  12.748   8.997   7.894
53508SOL    HW162363  12.660   8.972   7.866
53508SOL    HW262364  12.803   8.980   7.818
53509SOL     OW62365  13.669   0.022   1.362
53509SOL    HW162366  13.699  14.856   1.284
53509SOL    HW262367  13.593   0.073   1.331
53510SOL     OW62368  10.695   7.498   6.664
53510SOL    HW162369  10.687   7.512   6.758
53510SOL    HW262370  10.692   7.586   6.626
53511SOL     OW62371   7.002   0.700   2.777
53511SOL    HW162372   7.053   0.685   2.856
53511SOL    HW262373   6.958   0.784   2.791
53512SOL     OW62374   9.661   9.951  10.090
53512SOL    HW162375   9.680  10.042  10.065
53512SOL    HW262376   9.746   9.914  10.112
53513SOL     OW62377  11.919   7.877   2.743
53513SOL    HW162378  11.911   7.894   2.649
53513SOL    HW262379  12.013   7.875   2.759
53514SOL     OW62380   8.379   1.908   8.707
53514SOL    HW162381   8.449   1.885   8.645
53514SOL    HW262382   8.348   1.824   8.740
53515SOL     OW62383   7.322  10.405   2.779
53515SOL    HW162384   7.266  10.483   2.780
53515SOL    HW262385   7.263  10.333   2.760
53516SOL     OW62386  13.061  14.724  11.903
53516SOL    HW162387  13.027  14.642  11.866
53516SOL    HW262388  13.039  14.791  11.838
53517SOL     OW62389   1.188   4.164   7.346
53517SOL    HW162390   1.265   4.215   7.371
53517SOL    HW262391   1.219   4.073   7.347
53518SOL     OW62392   1.788   6.369   4.135
53518SOL    HW162393   1.844   6.429   4.185
53518SOL    HW262394   1.846   6.299   4.106
53519SOL     OW62395   0.164   8.700  14.244
53519SOL    HW162396   0.251   8.667  14.269
53519SOL    HW262397   0.105   8.661  14.309
53520SOL     OW62398   2.721   5.310   8.061
53520SOL    HW162399   2.648   5.371   8.047
53520SOL    HW262400   2.761   5.339   8.143
53521SOL     OW62401   3.101   3.611   1.059
53521SOL    HW162402   3.181   3.575   1.097
53521SOL    HW262403   3.031   3.583   1.119
53522SOL     OW62404  14.865   6.648  10.682
53522SOL    HW162405  14.784   6.635  10.731
53522SOL    HW262406   0.036   6.705  10.737
53523SOL     OW62407   0.634  12.717   4.383
53523SOL    HW162408   0.600  12.805   4.401
53523SOL    HW262409   0.578  12.683   4.313
53524SOL     OW62410  14.398   5.472   5.700
53524SOL    HW162411  14.345   5.456   5.622
53524SOL    HW262412  14.406   5.568   5.703
53525SOL     OW62413   6.603   3.373  11.868
53525SOL    HW162414   6.632   3.287  11.897
53525SOL    HW262415   6.512   3.361  11.842
53526SOL     OW62416   8.891   9.428   4.209
53526SOL    HW162417   8.798   9.421   4.232
53526SOL    HW262418   8.900   9.375   4.130
53527SOL     OW62419   9.329   7.499   5.621
53527SOL    HW162420   9.269   7.427   5.600
53527SOL    HW262421   9.378   7.513   5.540
53528SOL     OW62422   2.341   3.152   5.752
53528SOL    HW162423   2.403   3.169   5.823
53528SOL    HW262424   2.394   3.122   5.679
53529SOL     OW62425   7.901   4.309  10.078
53529SOL    HW162426   7.818   4.358  10.077
53529SOL    HW262427   7.962   4.364  10.029
53530SOL     OW62428   4.714  11.867  10.318
53530SOL    HW162429   4.736  11.927  10.389
53530SOL    HW262430   4.621  11.848  10.330
53531SOL     OW62431   3.148   0.161   3.563
53531SOL    HW162432   3.194   0.082   3.534
53531SOL    HW262433   3.130   0.208   3.482
53532SOL     OW62434  10.966   4.589  11.413
53532SOL    HW162435  10.995   4.653  11.478
53532SOL    HW262436  11.034   4.522  11.413
53533SOL     OW62437   7.841   2.228   3.059
53533SOL    HW162438   7.780   2.226   3.133
53533SOL    HW262439   7.785   2.232   2.982
53534SOL     OW62440   2.852  11.179   3.706
53534SOL    HW162441   2.836  11.262   3.661
53534SOL    HW262442   2.825  11.112   3.643
53535SOL     OW62443   9.096  11.392   5.146
53535SOL    HW162444   9.139  11.451   5.084
53535SOL    HW262445   9.158  11.321   5.159
53536SOL     OW62446   0.765   7.912  13.620
53536SOL    HW162447   0.743   7.985  13.678
53536SOL    HW262448   0.691   7.852  13.628
53537SOL     OW62449   1.611  11.608  11.523
53537SOL    HW162450   1.579  11.520  11.507
53537SOL    HW262451   1.673  11.624  11.451
53538SOL     OW62452   8.030  14.664  10.535
53538SOL    HW162453   8.014  14.574  10.564
53538SOL    HW262454   7.944  14.694  10.505
53539SOL     OW62455  11.872   2.213   5.634
53539SOL    HW162456  11.840   2.130   5.600
53539SOL    HW262457  11.831   2.280   5.579
53540SOL     OW62458   9.083  10.391   1.967
53540SOL    HW162459   9.020  10.443   1.918
53540SOL    HW262460   9.161  10.390   1.913
53541SOL     OW62461   5.299  14.133   7.735
53541SOL    HW162462   5.344  14.064   7.783
53541SOL    HW262463   5.212  14.136   7.773
53542SOL     OW62464  14.872   0.169   6.580
53542SOL    HW162465  14.795   0.166   6.637
53542SOL    HW262466   0.016   0.261   6.580
53543SOL     OW62467   0.335  13.817   5.952
53543SOL    HW162468   0.360  13.786   5.865
53543SOL    HW262469   0.275  13.751   5.985
53544SOL     OW62470   4.955  10.854  12.584
53544SOL    HW162471   5.025  10.882  12.643
53544SOL    HW262472   4.966  10.908  12.506
53545SOL     OW62473   3.517   6.541   3.155
53545SOL    HW162474   3.570   6.495   3.090
53545SOL    HW262475   3.432   6.498   3.151
53546SOL     OW62476   0.490   6.499   5.159
53546SOL    HW162477   0.425   6.468   5.222
53546SOL    HW262478   0.536   6.421   5.131
53547SOL     OW62479   7.086   3.903  14.827
53547SOL    HW162480   7.026   3.968  14.864
53547SOL    HW262481   7.032   3.851  14.767
53548SOL     OW62482   6.638   5.716   2.703
53548SOL    HW162483   6.560   5.767   2.721
53548SOL    HW262484   6.610   5.649   2.641
53549SOL     OW62485   6.863  13.966   2.376
53549SOL    HW162486   6.885  14.020   2.452
53549SOL    HW262487   6.767  13.973   2.370
53550SOL     OW62488  13.860   2.415   5.925
53550SOL    HW162489  13.865   2.383   5.835
53550SOL    HW262490  13.810   2.496   5.919
53551SOL     OW62491   0.592   1.729   5.717
53551SOL    HW162492   0.518   1.777   5.680
53551SOL    HW262493   0.640   1.698   5.640
53552SOL     OW62494  10.276   1.487   7.738
53552SOL    HW162495  10.293   1.393   7.733
53552SOL    HW262496  10.237   1.509   7.653
53553SOL     OW62497   5.739  14.545  10.046
53553SOL    HW162498   5.716  14.618   9.988
53553SOL    HW262499   5.764  14.586  10.128
53554SOL     OW62500   1.862   4.208  12.047
53554SOL    HW162501   1.811   4.232  11.970
53554SOL    HW262502   1.922   4.282  12.060
53555SOL     OW62503  10.663  12.950  14.411
53555SOL    HW162504  10.730  13.018  14.402
53555SOL    HW262505  10.697  12.877  14.358
53556SOL     OW62506   1.405  11.922   4.002
53556SOL    HW162507   1.449  12.000   3.970
53556SOL    HW262508   1.418  11.924   4.097
53557SOL     OW62509   1.830  13.521   9.527
53557SOL    HW162510   1.853  13.607   9.561
53557SOL    HW262511   1.786  13.540   9.444
53558SOL     OW62512   5.366   4.386   1.151
53558SOL    HW162513   5.324   4.422   1.229
53558SOL    HW262514   5.457   4.416   1.156
53559SOL     OW62515  11.151   2.383  10.926
53559SOL    HW162516  11.164   2.289  10.934
53559SOL    HW262517  11.193   2.420  11.003
53560SOL     OW62518   7.973   6.149  12.391
53560SOL    HW162519   8.024   6.068  12.383
53560SOL    HW262520   7.897   6.135  12.335
53561SOL     OW62521   3.515   6.191   4.825
53561SOL    HW162522   3.436   6.208   4.877
53561SOL    HW262523   3.575   6.148   4.887
53562SOL     OW62524  13.195  14.568   5.129
53562SOL    HW162525  13.155  14.637   5.075
53562SOL    HW262526  13.284  14.599   5.145
53563SOL     OW62527   5.900   1.813   9.354
53563SOL    HW162528   5.847   1.745   9.312
53563SOL    HW262529   5.973   1.765   9.393
53564SOL     OW62530   6.538   9.224   2.710
53564SOL    HW162531   6.461   9.183   2.749
53564SOL    HW262532   6.503   9.287   2.646
53565SOL     OW62533  13.999   0.798   7.336
53565SOL    HW162534  14.070   0.830   7.392
53565SOL    HW262535  13.993   0.864   7.266
53566SOL     OW62536  11.899  11.749  10.477
53566SOL    HW162537  11.857  11.675  10.520
53566SOL    HW262538  11.981  11.713  10.442
53567SOL     OW62539  12.925  11.693  12.973
53567SOL    HW162540  12.975  11.676  13.053
53567SOL    HW262541  12.854  11.630  12.976
53568SOL     OW62542   7.605   4.733   0.811
53568SOL    HW162543   7.532   4.779   0.853
53568SOL    HW262544   7.628   4.787   0.736
53569SOL     OW62545  11.652   2.977   3.559
53569SOL    HW162546  11.646   2.892   3.516
53569SOL    HW262547  11.586   2.974   3.628
53570SOL     OW62548   6.917  11.301   1.960
53570SOL    HW162549   6.884  11.335   1.877
53570SOL    HW262550   6.957  11.377   2.003
53571SOL     OW62551  14.258   7.276   7.672
53571SOL    HW162552  14.250   7.368   7.648
53571SOL    HW262553  14.242   7.274   7.767
53572SOL     OW62554   1.294  13.940  11.579
53572SOL    HW162555   1.276  14.030  11.607
53572SOL    HW262556   1.340  13.950  11.496
53573SOL     OW62557  14.440   0.457   1.566
53573SOL    HW162558  14.434   0.362   1.559
53573SOL    HW262559  14.439   0.488   1.476
53574SOL     OW62560   9.011   7.695   2.100
53574SOL    HW162561   9.049   7.714   2.014
53574SOL    HW262562   9.069   7.740   2.162
53575SOL     OW62563  11.886  12.188  14.469
53575SOL    HW162564  11.961  12.242  14.445
53575SOL    HW262565  11.900  12.105  14.423
53576SOL     OW62566  13.170   2.261   5.347
53576SOL    HW162567  13.160   2.255   5.252
53576SOL    HW262568  13.115   2.191   5.381
53577SOL     OW62569   1.585   7.224  14.776
53577SOL    HW162570   1.573   7.188  14.863
53577SOL    HW262571   1.580   7.319  14.788
53578SOL     OW62572   2.613  14.761  14.139
53578SOL    HW162573   2.614  14.802  14.053
53578SOL    HW262574   2.530  14.713  14.142
53579SOL     OW62575  12.977  11.200  10.766
53579SOL    HW162576  12.918  11.166  10.833
53579SOL    HW262577  12.948  11.158  10.685
53580SOL     OW62578  12.117   8.508   7.709
53580SOL    HW162579  12.137   8.582   7.766
53580SOL    HW262580  12.200   8.488   7.666
53581SOL     OW62581   3.835  14.159  11.122
53581SOL    HW162582   3.747  14.166  11.087
53581SOL    HW262583   3.891  14.154  11.044
53582SOL     OW62584   0.234  11.533  13.501
53582SOL    HW162585   0.208  11.617  13.463
53582SOL    HW262586   0.309  11.505  13.448
53583SOL     OW62587  13.454   4.755   5.207
53583SOL    HW162588  13.403   4.695   5.152
53583SOL    HW262589  13.411   4.752   5.292
53584SOL     OW62590   5.431   3.064  11.239
53584SOL    HW162591   5.391   3.077  11.153
53584SOL    HW262592   5.440   2.969  11.247
53585SOL     OW62593   7.492  14.085   0.296
53585SOL    HW162594   7.462  13.996   0.312
53585SOL    HW262595   7.444  14.138   0.360
53586SOL     OW62596   8.993   1.925   6.205
53586SOL    HW162597   9.005   1.868   6.129
53586SOL    HW262598   8.998   2.014   6.169
53587SOL     OW62599   2.196   2.503  10.962
53587SOL    HW162600   2.161   2.425  11.006
53587SOL    HW262601   2.289   2.501  10.982
53588SOL     OW62602   5.085  13.422   5.076
53588SOL    HW162603   5.129  13.356   5.130
53588SOL    HW262604   5.154  13.484   5.052
53589SOL     OW62605  11.316  14.849   9.854
53589SOL    HW162606  11.394  14.796   9.838
53589SOL    HW262607  11.326   0.043   9.797
53590SOL     OW62608  13.385   7.651   6.803
53590SOL    HW162609  13.337   7.686   6.878
53590SOL    HW262610  13.452   7.717   6.784
53591SOL     OW62611   1.807  10.385  10.270
53591SOL    HW162612   1.742  10.335  10.319
53591SOL    HW262613   1.869  10.319  10.238
53592SOL     OW62614   7.523  14.823  11.410
53592SOL    HW162615   7.606  14.871  11.414
53592SOL    HW262616   7.529  14.771  11.329
53593SOL     OW62617  10.060  13.487  10.917
53593SOL    HW162618  10.013  13.409  10.948
53593SOL    HW262619  10.082  13.535  10.996
53594SOL     OW62620   8.111   0.578   5.372
53594SOL    HW162621   8.099   0.572   5.467
53594SOL    HW262622   8.199   0.613   5.361
53595SOL     OW62623   6.947  10.189   4.973
53595SOL    HW162624   7.001  10.132   5.028
53595SOL    HW262625   7.009  10.240   4.922
53596SOL     OW62626   7.917   2.043   4.588
53596SOL    HW162627   7.855   2.095   4.638
53596SOL    HW262628   8.002   2.083   4.606
53597SOL     OW62629   2.239  10.837   7.261
53597SOL    HW162630   2.195  10.754   7.278
53597SOL    HW262631   2.320  10.811   7.216
53598SOL     OW62632   0.775   5.676   3.797
53598SOL    HW162633   0.808   5.677   3.707
53598SOL    HW262634   0.693   5.724   3.793
53599SOL     OW62635   9.161   3.333  11.815
53599SOL    HW162636   9.192   3.244  11.797
53599SOL    HW262637   9.135   3.331  11.907
53600SOL     OW62638  11.187   0.278  14.582
53600SOL    HW162639  11.117   0.218  14.608
53600SOL    HW262640  11.198   0.336  14.658
53601SOL     OW62641  13.706   7.849  14.133
53601SOL    HW162642  13.654   7.929  14.126
53601SOL    HW262643  13.781   7.875  14.187
53602SOL     OW62644  13.590   4.292  12.332
53602SOL    HW162645  13.575   4.325  12.420
53602SOL    HW262646  13.538   4.212  12.327
53603SOL     OW62647   5.638   4.107   7.012
53603SOL    HW162648   5.727   4.083   7.037
53603SOL    HW262649   5.617   4.184   7.065
53604SOL     OW62650   2.229   0.020  12.599
53604SOL    HW162651   2.300   0.033  12.662
53604SOL    HW262652   2.150   0.016  12.653
53605SOL     OW62653   0.098   2.483   0.821
53605SOL    HW162654   0.129   2.570   0.796
53605SOL    HW262655   0.010   2.477   0.783
53606SOL     OW62656   5.466  14.090  10.766
53606SOL    HW162657   5.467  14.178  10.728
53606SOL    HW262658   5.390  14.048  10.726
53607SOL     OW62659   3.844   5.774   3.359
53607SOL    HW162660   3.830   5.794   3.266
53607SOL    HW262661   3.762   5.733   3.387
53608SOL     OW62662  10.112  12.047   6.328
53608SOL    HW162663  10.105  12.136   6.293
53608SOL    HW262664  10.098  11.990   6.252
53609SOL     OW62665  13.373   8.741   8.854
53609SOL    HW162666  13.408   8.679   8.790
53609SOL    HW262667  13.432   8.732   8.930
53610SOL     OW62668   1.288  10.276   8.856
53610SOL    HW162669   1.250  10.225   8.784
53610SOL    HW262670   1.228  10.350   8.868
53611SOL     OW62671   3.364   9.853   0.480
53611SOL    HW162672   3.330   9.938   0.508
53611SOL    HW262673   3.373   9.803   0.562
53612SOL     OW62674   0.293   3.471  12.147
53612SOL    HW162675   0.365   3.494  12.206
53612SOL    HW262676   0.309   3.379  12.126
53613SOL     OW62677   2.768   2.532  11.885
53613SOL    HW162678   2.779   2.458  11.824
53613SOL    HW262679   2.720   2.598  11.834
53614SOL     OW62680   8.621   7.010   7.928
53614SOL    HW162681   8.535   7.047   7.947
53614SOL    HW262682   8.653   6.977   8.012
53615SOL     OW62683  10.911   5.102  10.044
53615SOL    HW162684  10.874   5.080  10.129
53615SOL    HW262685  10.873   5.039   9.983
53616SOL     OW62686  14.664   7.174   0.709
53616SOL    HW162687  14.572   7.147   0.713
53616SOL    HW262688  14.693   7.148   0.621
53617SOL     OW62689  14.598  10.467   7.434
53617SOL    HW162690  14.567  10.439   7.348
53617SOL    HW262691  14.667  10.531   7.415
53618SOL     OW62692   8.373  10.078   8.964
53618SOL    HW162693   8.390   9.990   8.996
53618SOL    HW262694   8.314  10.066   8.890
53619SOL     OW62695   3.460   3.989   2.970
53619SOL    HW162696   3.504   4.074   2.973
53619SOL    HW262697   3.367   4.009   2.983
53620SOL     OW62698   2.109  12.615  12.394
53620SOL    HW162699   2.068  12.591  12.478
53620SOL    HW262700   2.115  12.532  12.346
53621SOL     OW62701  12.947   2.562   2.955
53621SOL    HW162702  13.035   2.582   2.924
53621SOL    HW262703  12.954   2.472   2.989
53622SOL     OW62704   0.368  11.355   4.324
53622SOL    HW162705   0.414  11.319   4.248
53622SOL    HW262706   0.316  11.427   4.288
53623SOL     OW62707   7.591  13.690  13.942
53623SOL    HW162708   7.532  13.763  13.959
53623SOL    HW262709   7.533  13.614  13.935
53624SOL     OW62710   2.952   8.828   7.857
53624SOL    HW162711   3.020   8.793   7.799
53624SOL    HW262712   2.870   8.799   7.817
53625SOL     OW62713   2.062   0.054   5.526
53625SOL    HW162714   2.076   0.067   5.620
53625SOL    HW262715   2.130   0.107   5.485
53626SOL     OW62716   6.176   0.270  14.675
53626SOL    HW162717   6.142   0.262  14.764
53626SOL    HW262718   6.203   0.362  14.668
53627SOL     OW62719   0.624   9.062  12.913
53627SOL    HW162720   0.596   8.979  12.953
53627SOL    HW262721   0.590   9.059  12.824
53628SOL     OW62722   2.872  10.921  13.201
53628SOL    HW162723   2.838  10.956  13.283
53628SOL    HW262724   2.824  10.968  13.133
53629SOL     OW62725   2.271  14.401   4.999
53629SOL    HW162726   2.343  14.411   5.061
53629SOL    HW262727   2.250  14.308   5.002
53630SOL     OW62728  14.209  11.486   1.350
53630SOL    HW162729  14.268  11.419   1.385
53630SOL    HW262730  14.260  11.566   1.353
53631SOL     OW62731   2.484   9.346   8.682
53631SOL    HW162732   2.515   9.404   8.751
53631SOL    HW262733   2.448   9.404   8.615
53632SOL     OW62734   4.817   2.708   1.649
53632SOL    HW162735   4.819   2.783   1.709
53632SOL    HW262736   4.776   2.742   1.569
53633SOL     OW62737   9.264  11.790   6.121
53633SOL    HW162738   9.304  11.814   6.204
53633SOL    HW262739   9.279  11.865   6.064
53634SOL     OW62740   8.058   3.144  11.370
53634SOL    HW162741   7.966   3.164  11.388
53634SOL    HW262742   8.096   3.227  11.344
53635SOL     OW62743   8.590  11.024   7.935
53635SOL    HW162744   8.659  11.091   7.928
53635SOL    HW262745   8.548  11.041   8.019
53636SOL     OW62746  12.470   1.708   2.836
53636SOL    HW162747  12.462   1.664   2.920
53636SOL    HW262748  12.481   1.801   2.858
53637SOL     OW62749   2.929   1.386   8.704
53637SOL    HW162750   2.941   1.457   8.767
53637SOL    HW262751   2.834   1.380   8.692
53638SOL     OW62752   5.116   7.242  12.750
53638SOL    HW162753   5.042   7.274  12.697
53638SOL    HW262754   5.194   7.272  12.703
53639SOL     OW62755   8.023   6.885  11.613
53639SOL    HW162756   8.088   6.876  11.683
53639SOL    HW262757   8.013   6.796  11.579
53640SOL     OW62758  11.321  13.652  11.889
53640SOL    HW162759  11.237  13.617  11.916
53640SOL    HW262760  11.321  13.742  11.920
53641SOL     OW62761   3.104   3.480  13.736
53641SOL    HW162762   3.140   3.495  13.824
53641SOL    HW262763   3.161   3.530  13.678
53642SOL     OW62764   9.667   4.144   5.109
53642SOL    HW162765   9.641   4.053   5.098
53642SOL    HW262766   9.759   4.141   5.134
53643SOL     OW62767   1.288   0.572   7.392
53643SOL    HW162768   1.270   0.538   7.480
53643SOL    HW262769   1.222   0.530   7.337
53644SOL     OW62770  11.552   2.684   2.107
53644SOL    HW162771  11.515   2.682   2.196
53644SOL    HW262772  11.646   2.694   2.121
53645SOL     OW62773  13.721   8.545   3.462
53645SOL    HW162774  13.802   8.534   3.513
53645SOL    HW262775  13.699   8.456   3.434
53646SOL     OW62776   6.119  12.634  14.785
53646SOL    HW162777   6.158  12.572  14.846
53646SOL    HW262778   6.076  12.699  14.841
53647SOL     OW62779  14.088   5.274   3.386
53647SOL    HW162780  14.056   5.351   3.339
53647SOL    HW262781  14.121   5.308   3.469
53648SOL     OW62782  10.012  13.472   1.772
53648SOL    HW162783   9.999  13.410   1.700
53648SOL    HW262784   9.992  13.557   1.733
53649SOL     OW62785  11.774   2.653   9.699
53649SOL    HW162786  11.736   2.567   9.682
53649SOL    HW262787  11.802   2.649   9.791
53650SOL     OW62788  12.994   7.344  12.219
53650SOL    HW162789  12.984   7.424  12.167
53650SOL    HW262790  13.034   7.281  12.159
53651SOL     OW62791   3.309   4.864   3.507
53651SOL    HW162792   3.384   4.903   3.552
53651SOL    HW262793   3.235   4.877   3.566
53652SOL     OW62794   7.953   7.064   4.237
53652SOL    HW162795   7.935   7.156   4.218
53652SOL    HW262796   8.033   7.066   4.290
53653SOL     OW62797  10.159   9.808   2.723
53653SOL    HW162798  10.103   9.869   2.675
53653SOL    HW262799  10.105   9.730   2.735
53654SOL     OW62800   5.744  12.795   6.257
53654SOL    HW162801   5.717  12.754   6.340
53654SOL    HW262802   5.766  12.885   6.281
53655SOL     OW62803   6.379   2.687   2.697
53655SOL    HW162804   6.296   2.668   2.653
53655SOL    HW262805   6.436   2.614   2.672
53656SOL     OW62806  11.880  13.977  12.502
53656SOL    HW162807  11.857  13.945  12.415
53656SOL    HW262808  11.803  13.958  12.555
53657SOL     OW62809   2.881  13.182   5.643
53657SOL    HW162810   2.934  13.257   5.616
53657SOL    HW262811   2.937  13.106   5.626
53658SOL     OW62812   1.247   5.889   2.246
53658SOL    HW162813   1.230   5.909   2.153
53658SOL    HW262814   1.298   5.808   2.244
53659SOL     OW62815   2.453   7.622  12.353
53659SOL    HW162816   2.396   7.642  12.279
53659SOL    HW262817   2.493   7.706  12.376
53660SOL     OW62818   9.918   2.987   9.304
53660SOL    HW162819   9.940   3.069   9.260
53660SOL    HW262820   9.947   3.000   9.395
53661SOL     OW62821  10.173  12.457   6.637
53661SOL    HW162822  10.089  12.502   6.639
53661SOL    HW262823  10.190  12.433   6.728
53662SOL     OW62824  14.080   5.867   0.936
53662SOL    HW162825  14.077   5.784   0.983
53662SOL    HW262826  13.993   5.875   0.896
53663SOL     OW62827  10.892   6.506  12.673
53663SOL    HW162828  10.800   6.499  12.698
53663SOL    HW262829  10.903   6.598  12.650
53664SOL     OW62830  12.422  13.941   8.351
53664SOL    HW162831  12.406  14.013   8.412
53664SOL    HW262832  12.417  13.862   8.405
53665SOL     OW62833   9.606  13.111   2.985
53665SOL    HW162834   9.677  13.054   3.016
53665SOL    HW262835   9.536  13.099   3.049
53666SOL     OW62836  13.020   2.251   7.179
53666SOL    HW162837  13.035   2.228   7.087
53666SOL    HW262838  13.103   2.234   7.222
53667SOL     OW62839  11.589   1.333   5.417
53667SOL    HW162840  11.562   1.260   5.361
53667SOL    HW262841  11.671   1.364   5.377
53668SOL     OW62842   7.198   4.557   5.333
53668SOL    HW162843   7.145   4.629   5.299
53668SOL    HW262844   7.267   4.545   5.268
53669SOL     OW62845   6.892  10.222   0.213
53669SOL    HW162846   6.967  10.281   0.215
53669SOL    HW262847   6.893  10.184   0.125
53670SOL     OW62848   8.671   0.879  10.916
53670SOL    HW162849   8.733   0.807  10.932
53670SOL    HW262850   8.585   0.839  10.927
53671SOL     OW62851  12.557   6.263  14.138
53671SOL    HW162852  12.552   6.180  14.186
53671SOL    HW262853  12.479   6.262  14.081
53672SOL     OW62854   2.219   2.887   8.659
53672SOL    HW162855   2.132   2.915   8.631
53672SOL    HW262856   2.265   2.865   8.578
53673SOL     OW62857   7.339   9.062   0.379
53673SOL    HW162858   7.360   8.969   0.386
53673SOL    HW262859   7.418   9.103   0.345
53674SOL     OW62860  13.771   6.647  14.832
53674SOL    HW162861  13.763   6.738  14.801
53674SOL    HW262862  13.856   6.644  14.876
53675SOL     OW62863   4.380  11.613   2.351
53675SOL    HW162864   4.421  11.547   2.295
53675SOL    HW262865   4.334  11.563   2.418
53676SOL     OW62866   8.788   8.618   3.721
53676SOL    HW162867   8.745   8.535   3.700
53676SOL    HW262868   8.719   8.673   3.758
53677SOL     OW62869  11.319  12.790  13.026
53677SOL    HW162870  11.359  12.786  13.113
53677SOL    HW262871  11.297  12.699  13.006
53678SOL     OW62872   8.732   2.510   8.720
53678SOL    HW162873   8.807   2.509   8.780
53678SOL    HW262874   8.655   2.501   8.778
53679SOL     OW62875   4.054   0.982   7.041
53679SOL    HW162876   3.977   1.015   7.089
53679SOL    HW262877   4.067   0.893   7.074
53680SOL     OW62878  13.397   6.247  13.267
53680SOL    HW162879  13.478   6.202  13.245
53680SOL    HW262880  13.332   6.178  13.273
53681SOL     OW62881  11.039  10.420  10.565
53681SOL    HW162882  10.968  10.441  10.505
53681SOL    HW262883  11.119  10.429  10.513
53682SOL     OW62884   7.174   6.606   8.747
53682SOL    HW162885   7.233   6.531   8.747
53682SOL    HW262886   7.231   6.682   8.733
53683SOL     OW62887  10.100   1.024  10.157
53683SOL    HW162888  10.104   0.984  10.070
53683SOL    HW262889  10.006   1.022  10.179
53684SOL     OW62890  11.614   5.540   2.790
53684SOL    HW162891  11.700   5.524   2.830
53684SOL    HW262892  11.632   5.597   2.715
53685SOL     OW62893  13.577   8.166   7.802
53685SOL    HW162894  13.570   8.078   7.839
53685SOL    HW262895  13.619   8.217   7.871
53686SOL     OW62896   0.690   2.460  13.010
53686SOL    HW162897   0.652   2.458  12.922
53686SOL    HW262898   0.711   2.368  13.029
53687SOL     OW62899  14.100   4.658  11.364
53687SOL    HW162900  14.061   4.688  11.446
53687SOL    HW262901  14.126   4.739  11.320
53688SOL     OW62902  10.665   8.967  11.349
53688SOL    HW162903  10.594   8.970  11.413
53688SOL    HW262904  10.723   8.898  11.380
53689SOL     OW62905   3.587   6.524  11.284
53689SOL    HW162906   3.492   6.525  11.272
53689SOL    HW262907   3.610   6.616  11.297
53690SOL     OW62908  11.877   9.888   7.608
53690SOL    HW162909  11.904   9.967   7.655
53690SOL    HW262910  11.959   9.847   7.581
53691SOL     OW62911   8.151   4.707  14.329
53691SOL    HW162912   8.186   4.658  14.255
53691SOL    HW262913   8.199   4.790  14.329
53692SOL     OW62914  14.008   5.400  14.084
53692SOL    HW162915  14.005   5.445  14.169
53692SOL    HW262916  14.015   5.307  14.106
53693SOL     OW62917   8.918   5.299  10.691
53693SOL    HW162918   8.848   5.281  10.755
53693SOL    HW262919   8.878   5.281  10.606
53694SOL     OW62920   3.346  11.753   1.538
53694SOL    HW162921   3.382  11.707   1.462
53694SOL    HW262922   3.271  11.699   1.564
53695SOL     OW62923  11.655  14.438  12.665
53695SOL    HW162924  11.570  14.408  12.633
53695SOL    HW262925  11.716  14.367  12.644
53696SOL     OW62926   1.235   6.919  10.932
53696SOL    HW162927   1.156   6.916  10.985
53696SOL    HW262928   1.206   6.955  10.848
53697SOL     OW62929  14.182   2.039   3.347
53697SOL    HW162930  14.200   2.131   3.367
53697SOL    HW262931  14.156   2.001   3.431
53698SOL     OW62932   5.045   0.078   1.065
53698SOL    HW162933   4.997   0.054   0.986
53698SOL    HW262934   5.103   0.004   1.081
53699SOL     OW62935   4.735   0.923   5.527
53699SOL    HW162936   4.656   0.957   5.485
53699SOL    HW262937   4.775   0.999   5.569
53700SOL     OW62938   1.804   8.516   1.938
53700SOL    HW162939   1.741   8.475   1.997
53700SOL    HW262940   1.885   8.523   1.990
53701SOL     OW62941   1.548  13.177  13.315
53701SOL    HW162942   1.455  13.170  13.337
53701SOL    HW262943   1.579  13.086  13.312
53702SOL     OW62944   4.361   5.855   1.737
53702SOL    HW162945   4.413   5.896   1.806
53702SOL    HW262946   4.372   5.761   1.751
53703SOL     OW62947  11.874   2.690  14.154
53703SOL    HW162948  11.829   2.773  14.138
53703SOL    HW262949  11.935   2.710  14.226
53704SOL     OW62950  10.163   2.808   5.641
53704SOL    HW162951  10.253   2.776   5.647
53704SOL    HW262952  10.163   2.889   5.692
53705SOL     OW62953  12.623   2.026   9.900
53705SOL    HW162954  12.633   2.080   9.822
53705SOL    HW262955  12.539   1.981   9.888
53706SOL     OW62956  11.787  13.197   8.221
53706SOL    HW162957  11.760  13.222   8.309
53706SOL    HW262958  11.882  13.213   8.220
53707SOL     OW62959   8.541  12.799   0.791
53707SOL    HW162960   8.475  12.743   0.751
53707SOL    HW262961   8.516  12.805   0.883
53708SOL     OW62962   4.373  13.393   7.042
53708SOL    HW162963   4.380  13.350   7.127
53708SOL    HW262964   4.459  13.378   7.001
53709SOL     OW62965   8.449   7.785  12.060
53709SOL    HW162966   8.461   7.783  11.965
53709SOL    HW262967   8.437   7.693  12.084
53710SOL     OW62968   2.128   1.682  12.703
53710SOL    HW162969   2.199   1.734  12.666
53710SOL    HW262970   2.048   1.729  12.679
53711SOL     OW62971  11.828   2.376  12.222
53711SOL    HW162972  11.743   2.409  12.252
53711SOL    HW262973  11.892   2.422  12.277
53712SOL     OW62974   3.171  11.665   7.812
53712SOL    HW162975   3.118  11.585   7.811
53712SOL    HW262976   3.155  11.705   7.727
53713SOL     OW62977   1.712   2.804   3.272
53713SOL    HW162978   1.681   2.894   3.279
53713SOL    HW262979   1.670   2.759   3.345
53714SOL     OW62980   1.057  14.296   8.778
53714SOL    HW162981   1.046  14.229   8.710
53714SOL    HW262982   0.972  14.299   8.822
53715SOL     OW62983   2.153   3.173  14.035
53715SOL    HW162984   2.108   3.257  14.025
53715SOL    HW262985   2.226   3.178  13.973
53716SOL     OW62986   4.439   1.371  11.585
53716SOL    HW162987   4.396   1.310  11.525
53716SOL    HW262988   4.459   1.447  11.530
53717SOL     OW62989   1.194   8.479  13.038
53717SOL    HW162990   1.211   8.526  12.957
53717SOL    HW262991   1.105   8.506  13.063
53718SOL     OW62992   4.495   7.303  14.585
53718SOL    HW162993   4.422   7.326  14.643
53718SOL    HW262994   4.514   7.384  14.538
53719SOL     OW62995   4.612   8.938   4.315
53719SOL    HW162996   4.689   8.992   4.331
53719SOL    HW262997   4.540   8.988   4.352
53720SOL     OW62998  14.127   5.033  10.902
53720SOL    HW162999  14.135   4.964  10.836
53720SOL    HW263000  14.202   5.021  10.959
53721SOL     OW63001   2.745  10.704  14.323
53721SOL    HW163002   2.682  10.636  14.347
53721SOL    HW263003   2.822  10.656  14.295
53722SOL     OW63004  14.488   6.572   9.677
53722SOL    HW163005  14.472   6.654   9.724
53722SOL    HW263006  14.410   6.559   9.623
53723SOL     OW63007   0.135   2.971   0.883
53723SOL    HW163008   0.067   3.036   0.868
53723SOL    HW263009   0.140   2.962   0.978
53724SOL     OW63010   0.907   9.065  12.831
53724SOL    HW163011   0.945   9.122  12.898
53724SOL    HW263012   0.816   9.055  12.855
53725SOL     OW63013   1.416  14.516  10.604
53725SOL    HW163014   1.404  14.452  10.533
53725SOL    HW263015   1.459  14.591  10.562
53726SOL     OW63016   4.035   6.036   5.381
53726SOL    HW163017   4.103   5.971   5.396
53726SOL    HW263018   4.021   6.076   5.467
53727SOL     OW63019  10.373   2.953  11.821
53727SOL    HW163020  10.311   3.015  11.781
53727SOL    HW263021  10.375   2.977  11.913
53728SOL     OW63022  12.338   4.439   5.192
53728SOL    HW163023  12.393   4.392   5.255
53728SOL    HW263024  12.326   4.378   5.120
53729SOL     OW63025   6.735   4.669   4.390
53729SOL    HW163026   6.823   4.631   4.381
53729SOL    HW263027   6.734   4.742   4.328
53730SOL     OW63028  10.078   0.255  12.193
53730SOL    HW163029  10.111   0.345  12.190
53730SOL    HW263030  10.053   0.242  12.285
53731SOL     OW63031   6.084  13.739  13.175
53731SOL    HW163032   6.113  13.653  13.203
53731SOL    HW263033   6.048  13.725  13.087
53732SOL     OW63034  13.490  11.398   4.977
53732SOL    HW163035  13.555  11.335   5.008
53732SOL    HW263036  13.408  11.370   5.019
53733SOL     OW63037   1.860   3.099  11.992
53733SOL    HW163038   1.924   3.151  11.944
53733SOL    HW263039   1.909   3.022  12.022
53734SOL     OW63040   4.233   9.997   3.568
53734SOL    HW163041   4.217  10.024   3.658
53734SOL    HW263042   4.173  10.050   3.516
53735SOL     OW63043   6.088   5.235  13.008
53735SOL    HW163044   6.077   5.319  13.052
53735SOL    HW263045   6.017   5.181  13.042
53736SOL     OW63046   3.565   0.749   3.995
53736SOL    HW163047   3.496   0.712   4.050
53736SOL    HW263048   3.647   0.719   4.036
53737SOL     OW63049   0.707   7.676   8.169
53737SOL    HW163050   0.760   7.598   8.189
53737SOL    HW263051   0.616   7.647   8.181
53738SOL     OW63052   5.240  13.528   2.269
53738SOL    HW163053   5.181  13.564   2.336
53738SOL    HW263054   5.328  13.551   2.299
53739SOL     OW63055   4.565   7.344   2.520
53739SOL    HW163056   4.616   7.420   2.550
53739SOL    HW263057   4.608   7.269   2.560
53740SOL     OW63058  13.500   6.932   2.496
53740SOL    HW163059  13.539   6.845   2.511
53740SOL    HW263060  13.452   6.950   2.576
53741SOL     OW63061   6.477   5.011   0.268
53741SOL    HW163062   6.554   4.972   0.227
53741SOL    HW263063   6.513   5.069   0.335
53742SOL     OW63064   6.521   9.553  12.007
53742SOL    HW163065   6.512   9.640  12.047
53742SOL    HW263066   6.445   9.504  12.039
53743SOL     OW63067  13.462   2.427   3.583
53743SOL    HW163068  13.424   2.493   3.525
53743SOL    HW263069  13.509   2.368   3.523
53744SOL     OW63070   1.697  12.150   2.303
53744SOL    HW163071   1.706  12.223   2.365
53744SOL    HW263072   1.787  12.133   2.274
53745SOL     OW63073  13.185   9.577  12.671
53745SOL    HW163074  13.114   9.513  12.677
53745SOL    HW263075  13.151   9.646  12.615
53746SOL     OW63076   6.638   9.396  11.096
53746SOL    HW163077   6.721   9.370  11.135
53746SOL    HW263078   6.572   9.348  11.146
53747SOL     OW63079  12.967   3.311   2.633
53747SOL    HW163080  12.965   3.280   2.542
53747SOL    HW263081  12.912   3.248   2.681
53748SOL     OW63082  14.661  12.905   1.799
53748SOL    HW163083  14.616  12.916   1.716
53748SOL    HW263084  14.595  12.928   1.865
53749SOL     OW63085  12.412   6.743   5.977
53749SOL    HW163086  12.505   6.754   5.955
53749SOL    HW263087  12.375   6.699   5.901
53750SOL     OW63088  13.689   7.400   0.445
53750SOL    HW163089  13.603   7.358   0.446
53750SOL    HW263090  13.670   7.493   0.432
53751SOL     OW63091   5.642  13.387   0.504
53751SOL    HW163092   5.561  13.352   0.538
53751SOL    HW263093   5.616  13.468   0.459
53752SOL     OW63094  11.227   4.473   9.501
53752SOL    HW163095  11.188   4.407   9.559
53752SOL    HW263096  11.322   4.462   9.513
53753SOL     OW63097   8.079   2.632   8.756
53753SOL    HW163098   8.099   2.602   8.668
53753SOL    HW263099   7.985   2.651   8.755
53754SOL     OW63100   0.709   7.463   1.123
53754SOL    HW163101   0.718   7.495   1.033
53754SOL    HW263102   0.686   7.370   1.114
53755SOL     OW63103   3.794   2.598  12.753
53755SOL    HW163104   3.881   2.626  12.779
53755SOL    HW263105   3.746   2.588  12.835
53756SOL     OW63106   5.467  12.650   0.635
53756SOL    HW163107   5.515  12.678   0.714
53756SOL    HW263108   5.458  12.555   0.646
53757SOL     OW63109   3.219   6.759  12.231
53757SOL    HW163110   3.197   6.702  12.158
53757SOL    HW263111   3.284   6.711  12.281
53758SOL     OW63112   3.822  11.788   0.736
53758SOL    HW163113   3.874  11.718   0.698
53758SOL    HW263114   3.769  11.821   0.663
53759SOL     OW63115  12.767   0.487   3.621
53759SOL    HW163116  12.838   0.551   3.612
53759SOL    HW263117  12.809   0.411   3.661
53760SOL     OW63118  11.052   0.861   3.465
53760SOL    HW163119  11.073   0.952   3.444
53760SOL    HW263120  11.090   0.810   3.393
53761SOL     OW63121   2.688   4.248   8.460
53761SOL    HW163122   2.763   4.262   8.519
53761SOL    HW263123   2.715   4.288   8.377
53762SOL     OW63124  10.215  13.970   8.586
53762SOL    HW163125  10.232  14.056   8.624
53762SOL    HW263126  10.122  13.969   8.567
53763SOL     OW63127   7.078   5.223  13.652
53763SOL    HW163128   7.086   5.315  13.677
53763SOL    HW263129   7.091   5.223  13.557
53764SOL     OW63130   1.645  10.640   5.109
53764SOL    HW163131   1.715  10.582   5.139
53764SOL    HW263132   1.574  10.581   5.084
53765SOL     OW63133   5.897   4.858  14.301
53765SOL    HW163134   5.867   4.875  14.212
53765SOL    HW263135   5.826   4.889  14.357
53766SOL     OW63136   5.869   8.114   5.685
53766SOL    HW163137   5.874   8.206   5.660
53766SOL    HW263138   5.866   8.116   5.781
53767SOL     OW63139   4.550  12.178   0.614
53767SOL    HW163140   4.580  12.200   0.703
53767SOL    HW263141   4.534  12.263   0.574
53768SOL     OW63142   9.321  10.029   9.401
53768SOL    HW163143   9.256  10.024   9.331
53768SOL    HW263144   9.269  10.036   9.481
53769SOL     OW63145   6.300   2.121  11.597
53769SOL    HW163146   6.358   2.048  11.571
53769SOL    HW263147   6.337   2.151  11.680
53770SOL     OW63148   0.446   6.648   2.823
53770SOL    HW163149   0.402   6.698   2.755
53770SOL    HW263150   0.524   6.612   2.779
53771SOL     OW63151   6.179   4.266   7.462
53771SOL    HW163152   6.114   4.294   7.397
53771SOL    HW263153   6.144   4.185   7.498
53772SOL     OW63154   7.738   9.783  11.405
53772SOL    HW163155   7.703   9.792  11.317
53772SOL    HW263156   7.688   9.845  11.458
53773SOL     OW63157   1.928  10.833  14.813
53773SOL    HW163158   1.978  10.809  14.735
53773SOL    HW263159   1.843  10.792  14.801
53774SOL     OW63160   3.939  13.624  10.114
53774SOL    HW163161   3.912  13.533  10.099
53774SOL    HW263162   4.001  13.618  10.187
53775SOL     OW63163  13.941  13.927  12.296
53775SOL    HW163164  13.989  13.844  12.300
53775SOL    HW263165  13.850  13.901  12.284
53776SOL     OW63166  11.625   0.198   4.349
53776SOL    HW163167  11.704   0.150   4.374
53776SOL    HW263168  11.554   0.137   4.367
53777SOL     OW63169   3.481   6.695  12.517
53777SOL    HW163170   3.421   6.650  12.458
53777SOL    HW263171   3.513   6.626  12.576
53778SOL     OW63172   1.666   1.157  12.888
53778SOL    HW163173   1.709   1.082  12.929
53778SOL    HW263174   1.724   1.231  12.907
53779SOL     OW63175  11.353   6.050  13.392
53779SOL    HW163176  11.386   6.135  13.421
53779SOL    HW263177  11.283   6.071  13.330
53780SOL     OW63178   0.459   4.932   8.666
53780SOL    HW163179   0.541   4.899   8.705
53780SOL    HW263180   0.464   4.905   8.574
53781SOL     OW63181   7.198  12.025   0.845
53781SOL    HW163182   7.182  12.029   0.750
53781SOL    HW263183   7.226  12.113   0.868
53782SOL     OW63184   3.070  10.272   3.746
53782SOL    HW163185   3.035  10.183   3.745
53782SOL    HW263186   3.164  10.261   3.758
53783SOL     OW63187  13.211   4.291  11.692
53783SOL    HW163188  13.256   4.373  11.714
53783SOL    HW263189  13.228   4.233  11.766
53784SOL     OW63190   9.916   5.154   5.780
53784SOL    HW163191   9.964   5.085   5.824
53784SOL    HW263192   9.867   5.109   5.711
53785SOL     OW63193   5.934  11.867   8.114
53785SOL    HW163194   5.844  11.841   8.134
53785SOL    HW263195   5.937  11.873   8.019
53786SOL     OW63196   5.677  12.330   7.608
53786SOL    HW163197   5.633  12.247   7.589
53786SOL    HW263198   5.746  12.336   7.542
53787SOL     OW63199   1.956   3.026   7.814
53787SOL    HW163200   1.924   3.040   7.725
53787SOL    HW263201   2.045   2.994   7.803
53788SOL     OW63202   9.901  12.106   5.514
53788SOL    HW163203   9.972  12.051   5.481
53788SOL    HW263204   9.857  12.052   5.580
53789SOL     OW63205   0.128   2.003  13.951
53789SOL    HW163206   0.140   2.041  13.864
53789SOL    HW263207   0.033   1.991  13.959
53790SOL     OW63208  10.072   3.745   9.853
53790SOL    HW163209  10.075   3.654   9.826
53790SOL    HW263210  10.031   3.744   9.940
53791SOL     OW63211  13.629  10.778   8.462
53791SOL    HW163212  13.710  10.828   8.453
53791SOL    HW263213  13.564  10.844   8.486
53792SOL     OW63214   3.588   9.037   8.514
53792SOL    HW163215   3.563   9.008   8.602
53792SOL    HW263216   3.607   8.956   8.466
53793SOL     OW63217   0.020   7.236   6.435
53793SOL    HW163218   0.102   7.251   6.481
53793SOL    HW263219   0.017   7.142   6.419
53794SOL     OW63220   8.204  14.135   8.759
53794SOL    HW163221   8.237  14.094   8.679
53794SOL    HW263222   8.232  14.077   8.830
53795SOL     OW63223   6.356  12.049  13.828
53795SOL    HW163224   6.315  12.005  13.753
53795SOL    HW263225   6.396  12.128  13.790
53796SOL     OW63226  10.040  11.438   8.024
53796SOL    HW163227   9.971  11.502   8.044
53796SOL    HW263228  10.096  11.483   7.961
53797SOL     OW63229  11.241   0.900   9.928
53797SOL    HW163230  11.223   0.808   9.909
53797SOL    HW263231  11.181   0.922   9.998
53798SOL     OW63232   1.720  11.403   7.261
53798SOL    HW163233   1.719  11.312   7.292
53798SOL    HW263234   1.810  11.417   7.232
53799SOL     OW63235   3.119  12.587   4.430
53799SOL    HW163236   3.155  12.501   4.411
53799SOL    HW263237   3.128  12.636   4.348
53800SOL     OW63238   2.479   9.102   7.039
53800SOL    HW163239   2.470   9.150   6.957
53800SOL    HW263240   2.431   9.154   7.103
53801SOL     OW63241  14.842  10.822   0.647
53801SOL    HW163242   0.024  10.886   0.616
53801SOL    HW263243  14.781  10.872   0.701
53802SOL     OW63244   6.234   5.606   4.361
53802SOL    HW163245   6.165   5.571   4.418
53802SOL    HW263246   6.233   5.700   4.377
53803SOL     OW63247   4.405   1.672   5.301
53803SOL    HW163248   4.447   1.624   5.230
53803SOL    HW263249   4.415   1.764   5.277
53804SOL     OW63250   7.197  11.634   7.987
53804SOL    HW163251   7.246  11.714   7.972
53804SOL    HW263252   7.263  11.568   8.008
53805SOL     OW63253  11.779  12.376  14.097
53805SOL    HW163254  11.772  12.463  14.137
53805SOL    HW263255  11.872  12.356  14.102
53806SOL     OW63256  12.061   0.037   8.756
53806SOL    HW163257  12.067   0.130   8.778
53806SOL    HW263258  12.147   0.015   8.720
53807SOL     OW63259  12.904   5.759   6.336
53807SOL    HW163260  12.946   5.710   6.266
53807SOL    HW263261  12.814   5.772   6.307
53808SOL     OW63262   0.100   3.218   1.905
53808SOL    HW163263   0.062   3.287   1.959
53808SOL    HW263264   0.027   3.157   1.891
53809SOL     OW63265   7.411  12.298   4.768
53809SOL    HW163266   7.476  12.282   4.700
53809SOL    HW263267   7.408  12.393   4.777
53810SOL     OW63268   4.959   4.840   0.585
53810SOL    HW163269   4.989   4.754   0.557
53810SOL    HW263270   5.011   4.859   0.663
53811SOL     OW63271   3.782  12.761   8.779
53811SOL    HW163272   3.731  12.699   8.727
53811SOL    HW263273   3.745  12.756   8.867
53812SOL     OW63274   7.167  10.453   1.192
53812SOL    HW163275   7.080  10.425   1.220
53812SOL    HW263276   7.151  10.509   1.116
53813SOL     OW63277   1.339  13.143   8.100
53813SOL    HW163278   1.310  13.234   8.101
53813SOL    HW263279   1.297  13.104   8.177
53814SOL     OW63280   3.733   7.757   4.934
53814SOL    HW163281   3.702   7.676   4.975
53814SOL    HW263282   3.676   7.825   4.970
53815SOL     OW63283   6.724   2.571  11.961
53815SOL    HW163284   6.634   2.539  11.962
53815SOL    HW263285   6.776   2.497  11.930
53816SOL     OW63286   9.885   6.093   4.152
53816SOL    HW163287   9.874   6.058   4.241
53816SOL    HW263288   9.797   6.116   4.124
53817SOL     OW63289   6.720  13.049  12.036
53817SOL    HW163290   6.732  12.954  12.027
53817SOL    HW263291   6.801  13.080  12.076
53818SOL     OW63292  13.457   4.546   2.188
53818SOL    HW163293  13.398   4.477   2.154
53818SOL    HW263294  13.531   4.546   2.128
53819SOL     OW63295   0.112  12.803  10.306
53819SOL    HW163296   0.072  12.717  10.319
53819SOL    HW263297   0.179  12.809  10.374
53820SOL     OW63298   9.058   3.096   0.671
53820SOL    HW163299   9.001   3.090   0.595
53820SOL    HW263300   9.029   3.175   0.717
53821SOL     OW63301   5.810   8.364   4.854
53821SOL    HW163302   5.747   8.292   4.850
53821SOL    HW263303   5.879   8.333   4.912
53822SOL     OW63304   6.982   3.001  13.889
53822SOL    HW163305   6.915   2.934  13.879
53822SOL    HW263306   6.981   3.022  13.982
53823SOL     OW63307  12.875   1.993   5.930
53823SOL    HW163308  12.838   2.069   5.884
53823SOL    HW263309  12.808   1.925   5.923
53824SOL     OW63310   0.264   6.093   5.420
53824SOL    HW163311   0.212   6.082   5.340
53824SOL    HW263312   0.352   6.115   5.388
53825SOL     OW63313   5.136   5.568   7.948
53825SOL    HW163314   5.076   5.521   7.889
53825SOL    HW263315   5.083   5.640   7.983
53826SOL     OW63316  11.779  13.053   6.521
53826SOL    HW163317  11.774  13.040   6.615
53826SOL    HW263318  11.782  12.964   6.484
53827SOL     OW63319  14.871   4.659   1.525
53827SOL    HW163320  14.874   4.570   1.491
53827SOL    HW263321  14.785   4.667   1.566
53828SOL     OW63322   9.733  14.360   1.888
53828SOL    HW163323   9.644  14.366   1.853
53828SOL    HW263324   9.776  14.294   1.833
53829SOL     OW63325   0.205   4.097   2.841
53829SOL    HW163326   0.198   4.003   2.855
53829SOL    HW263327   0.124   4.133   2.878
53830SOL     OW63328  10.670   4.277  12.687
53830SOL    HW163329  10.612   4.202  12.701
53830SOL    HW263330  10.758   4.239  12.692
53831SOL     OW63331   2.740   0.383  12.812
53831SOL    HW163332   2.753   0.469  12.772
53831SOL    HW263333   2.803   0.380  12.884
53832SOL     OW63334   5.232  12.509   9.248
53832SOL    HW163335   5.235  12.529   9.341
53832SOL    HW263336   5.276  12.582   9.206
53833SOL     OW63337   1.549   6.156  12.801
53833SOL    HW163338   1.560   6.239  12.848
53833SOL    HW263339   1.457   6.157  12.772
53834SOL     OW63340   1.096  12.044  10.800
53834SOL    HW163341   1.174  12.097  10.814
53834SOL    HW263342   1.025  12.096  10.838
53835SOL     OW63343   3.144   2.667   6.511
53835SOL    HW163344   3.154   2.761   6.527
53835SOL    HW263345   3.230   2.639   6.481
53836SOL     OW63346  11.208   4.386  12.838
53836SOL    HW163347  11.128   4.438  12.835
53836SOL    HW263348  11.264   4.423  12.770
53837SOL     OW63349  14.519  13.126  12.645
53837SOL    HW163350  14.608  13.158  12.659
53837SOL    HW263351  14.484  13.113  12.733
53838SOL     OW63352   1.255   0.743   2.109
53838SOL    HW163353   1.267   0.648   2.111
53838SOL    HW263354   1.172   0.758   2.153
53839SOL     OW63355   9.494   9.817  13.596
53839SOL    HW163356   9.443   9.785  13.522
53839SOL    HW263357   9.579   9.774  13.588
53840SOL     OW63358   6.165   9.795  10.201
53840SOL    HW163359   6.169   9.817  10.294
53840SOL    HW263360   6.071   9.790  10.182
53841SOL     OW63361  11.804   9.283  13.380
53841SOL    HW163362  11.802   9.216  13.312
53841SOL    HW263363  11.867   9.348  13.348
53842SOL     OW63364   9.828   5.510  14.623
53842SOL    HW163365   9.844   5.604  14.614
53842SOL    HW263366   9.892   5.470  14.564
53843SOL     OW63367  11.060  10.106   3.178
53843SOL    HW163368  11.002  10.066   3.243
53843SOL    HW263369  11.031  10.197   3.172
53844SOL     OW63370   6.847   8.660  11.491
53844SOL    HW163371   6.905   8.734  11.473
53844SOL    HW263372   6.849   8.650  11.586
53845SOL     OW63373   6.684  12.056   9.614
53845SOL    HW163374   6.672  11.984   9.676
53845SOL    HW263375   6.674  12.135   9.667
53846SOL     OW63376  14.374   9.509   3.118
53846SOL    HW163377  14.435   9.543   3.053
53846SOL    HW263378  14.430   9.486   3.193
53847SOL     OW63379   5.381   1.409   7.878
53847SOL    HW163380   5.410   1.328   7.837
53847SOL    HW263381   5.447   1.427   7.946
53848SOL     OW63382   6.616   0.515   2.815
53848SOL    HW163383   6.701   0.474   2.799
53848SOL    HW263384   6.620   0.544   2.906
53849SOL     OW63385   5.013   1.251   7.210
53849SOL    HW163386   4.941   1.286   7.263
53849SOL    HW263387   5.060   1.329   7.180
53850SOL     OW63388   1.382  13.203   0.435
53850SOL    HW163389   1.398  13.176   0.345
53850SOL    HW263390   1.309  13.265   0.429
53851SOL     OW63391   9.153   1.164  12.534
53851SOL    HW163392   9.081   1.102  12.546
53851SOL    HW263393   9.122   1.245  12.575
53852SOL     OW63394  12.189   0.375   3.041
53852SOL    HW163395  12.201   0.461   3.081
53852SOL    HW263396  12.100   0.350   3.064
53853SOL     OW63397  10.049   1.777  14.141
53853SOL    HW163398  10.047   1.869  14.167
53853SOL    HW263399  10.021   1.729  14.219
53854SOL     OW63400  14.112  13.873   8.737
53854SOL    HW163401  14.146  13.860   8.826
53854SOL    HW263402  14.184  13.847   8.680
53855SOL     OW63403   9.121   1.551   2.363
53855SOL    HW163404   9.142   1.641   2.339
53855SOL    HW263405   9.087   1.512   2.282
53856SOL     OW63406   4.462   5.822   4.713
53856SOL    HW163407   4.436   5.756   4.649
53856SOL    HW263408   4.402   5.895   4.699
53857SOL     OW63409   2.381   6.957   6.462
53857SOL    HW163410   2.396   6.879   6.408
53857SOL    HW263411   2.325   6.926   6.534
53858SOL     OW63412  13.312   8.230   3.741
53858SOL    HW163413  13.321   8.276   3.658
53858SOL    HW263414  13.259   8.153   3.720
53859SOL     OW63415   7.992  12.518   8.746
53859SOL    HW163416   7.960  12.504   8.657
53859SOL    HW263417   8.066  12.579   8.736
53860SOL     OW63418  10.009  13.590   6.659
53860SOL    HW163419  10.046  13.619   6.576
53860SOL    HW263420  10.022  13.663   6.719
53861SOL     OW63421   0.105   5.430  10.490
53861SOL    HW163422   0.125   5.343  10.522
53861SOL    HW263423   0.189   5.476  10.491
53862SOL     OW63424  11.467   4.157  11.868
53862SOL    HW163425  11.538   4.094  11.881
53862SOL    HW263426  11.409   4.115  11.804
53863SOL     OW63427   6.173   9.849   5.581
53863SOL    HW163428   6.161   9.942   5.601
53863SOL    HW263429   6.219   9.849   5.497
53864SOL     OW63430   0.684   1.932  11.423
53864SOL    HW163431   0.597   1.964  11.399
53864SOL    HW263432   0.668   1.875  11.498
53865SOL     OW63433   1.791  12.381  11.702
53865SOL    HW163434   1.744  12.443  11.758
53865SOL    HW263435   1.751  12.391  11.615
53866SOL     OW63436   0.191   6.288   3.083
53866SOL    HW163437   0.258   6.302   3.150
53866SOL    HW263438   0.194   6.367   3.029
53867SOL     OW63439  10.513  14.519   0.479
53867SOL    HW163440  10.483  14.599   0.521
53867SOL    HW263441  10.608  14.521   0.486
53868SOL     OW63442  11.502   7.195   7.504
53868SOL    HW163443  11.438   7.129   7.479
53868SOL    HW263444  11.508   7.187   7.599
53869SOL     OW63445  11.229  14.029  14.378
53869SOL    HW163446  11.323  14.051  14.376
53869SOL    HW263447  11.216  13.976  14.299
53870SOL     OW63448   2.862   7.133   6.376
53870SOL    HW163449   2.865   7.134   6.281
53870SOL    HW263450   2.769   7.117   6.397
53871SOL     OW63451   4.707  12.263   3.122
53871SOL    HW163452   4.654  12.240   3.046
53871SOL    HW263453   4.695  12.191   3.183
53872SOL     OW63454   3.188   6.838   3.167
53872SOL    HW163455   3.123   6.784   3.123
53872SOL    HW263456   3.161   6.840   3.258
53873SOL     OW63457   5.303  12.188   7.708
53873SOL    HW163458   5.290  12.159   7.798
53873SOL    HW263459   5.385  12.238   7.710
53874SOL     OW63460   8.052   4.108   8.379
53874SOL    HW163461   8.139   4.125   8.414
53874SOL    HW263462   8.049   4.013   8.369
53875SOL     OW63463   5.323   9.322   2.356
53875SOL    HW163464   5.377   9.278   2.422
53875SOL    HW263465   5.252   9.363   2.406
53876SOL     OW63466   2.043   8.469  12.456
53876SOL    HW163467   2.025   8.552  12.500
53876SOL    HW263468   1.977   8.465  12.386
53877SOL     OW63469  12.213   8.932   5.698
53877SOL    HW163470  12.298   8.973   5.710
53877SOL    HW263471  12.153   9.005   5.682
53878SOL     OW63472   6.534   8.263  14.062
53878SOL    HW163473   6.458   8.231  14.112
53878SOL    HW263474   6.582   8.317  14.124
53879SOL     OW63475   6.957   4.945  14.403
53879SOL    HW163476   6.994   5.023  14.362
53879SOL    HW263477   6.864   4.949  14.381
53880SOL     OW63478   2.092  13.560   0.788
53880SOL    HW163479   2.142  13.488   0.750
53880SOL    HW263480   2.044  13.598   0.715
53881SOL     OW63481   6.700   6.409   4.011
53881SOL    HW163482   6.739   6.491   4.042
53881SOL    HW263483   6.764   6.375   3.948
53882SOL     OW63484   2.814  12.558  12.112
53882SOL    HW163485   2.857  12.475  12.093
53882SOL    HW263486   2.768  12.581  12.031
53883SOL     OW63487  12.336   2.998   2.804
53883SOL    HW163488  12.349   2.933   2.873
53883SOL    HW263489  12.329   3.081   2.851
53884SOL     OW63490   3.394  14.612   0.510
53884SOL    HW163491   3.361  14.569   0.431
53884SOL    HW263492   3.344  14.693   0.516
53885SOL     OW63493  13.322  12.984  13.868
53885SOL    HW163494  13.291  12.958  13.955
53885SOL    HW263495  13.414  13.005  13.880
53886SOL     OW63496  10.835   2.133   6.689
53886SOL    HW163497  10.916   2.183   6.690
53886SOL    HW263498  10.839   2.077   6.767
53887SOL     OW63499   7.990  14.210   7.061
53887SOL    HW163500   8.017  14.231   6.971
53887SOL    HW263501   7.996  14.115   7.066
53888SOL     OW63502   5.828   4.833   3.884
53888SOL    HW163503   5.825   4.821   3.790
53888SOL    HW263504   5.742   4.870   3.907
53889SOL     OW63505  11.977   2.704   7.898
53889SOL    HW163506  11.882   2.718   7.898
53889SOL    HW263507  12.005   2.731   7.811
53890SOL     OW63508  12.903   3.122   0.378
53890SOL    HW163509  12.831   3.114   0.441
53890SOL    HW263510  12.942   3.208   0.397
53891SOL     OW63511   9.762   0.516  10.849
53891SOL    HW163512   9.723   0.543  10.766
53891SOL    HW263513   9.705   0.446  10.881
53892SOL     OW63514   8.015   4.381  10.300
53892SOL    HW163515   7.936   4.413  10.344
53892SOL    HW263516   7.985   4.350  10.215
53893SOL     OW63517  11.199   6.692   8.146
53893SOL    HW163518  11.181   6.740   8.065
53893SOL    HW263519  11.142   6.733   8.211
53894SOL     OW63520   0.184  13.345   9.526
53894SOL    HW163521   0.197  13.439   9.520
53894SOL    HW263522   0.145  13.332   9.613
53895SOL     OW63523   7.877   5.734   9.235
53895SOL    HW163524   7.845   5.666   9.175
53895SOL    HW263525   7.953   5.771   9.191
53896SOL     OW63526   3.253   3.236   3.173
53896SOL    HW163527   3.333   3.287   3.158
53896SOL    HW263528   3.205   3.242   3.091
53897SOL     OW63529   3.798   3.117   3.019
53897SOL    HW163530   3.727   3.086   2.963
53897SOL    HW263531   3.801   3.212   3.002
53898SOL     OW63532   9.267   3.454   9.437
53898SOL    HW163533   9.198   3.388   9.427
53898SOL    HW263534   9.349   3.404   9.435
53899SOL     OW63535   5.555  11.646   2.738
53899SOL    HW163536   5.477  11.626   2.686
53899SOL    HW263537   5.522  11.655   2.828
53900SOL     OW63538  13.862   0.341   6.100
53900SOL    HW163539  13.937   0.401   6.098
53900SOL    HW263540  13.808   0.366   6.026
53901SOL     OW63541   4.211  10.712   8.764
53901SOL    HW163542   4.211  10.705   8.859
53901SOL    HW263543   4.231  10.803   8.746
53902SOL     OW63544  11.454   9.657  12.052
53902SOL    HW163545  11.457   9.672  12.146
53902SOL    HW263546  11.532   9.701  12.018
53903SOL     OW63547  11.359   6.714   3.307
53903SOL    HW163548  11.315   6.719   3.221
53903SOL    HW263549  11.332   6.629   3.342
53904SOL     OW63550   6.947   6.157   9.511
53904SOL    HW163551   6.997   6.238   9.505
53904SOL    HW263552   7.010   6.092   9.541
53905SOL     OW63553   3.727   9.456   2.271
53905SOL    HW163554   3.693   9.422   2.188
53905SOL    HW263555   3.696   9.547   2.275
53906SOL     OW63556  10.610   7.178   7.946
53906SOL    HW163557  10.681   7.243   7.949
53906SOL    HW263558  10.653   7.095   7.963
53907SOL     OW63559  10.033  13.289   8.520
53907SOL    HW163560  10.099  13.271   8.453
53907SOL    HW263561   9.976  13.212   8.519
53908SOL     OW63562   5.743   8.322  10.414
53908SOL    HW163563   5.677   8.275  10.465
53908SOL    HW263564   5.724   8.414  10.431
53909SOL     OW63565  10.617   3.869   3.009
53909SOL    HW163566  10.547   3.880   3.074
53909SOL    HW263567  10.640   3.958   2.984
53910SOL     OW63568   9.509   6.878  13.492
53910SOL    HW163569   9.514   6.790  13.454
53910SOL    HW263570   9.573   6.876  13.564
53911SOL     OW63571  13.379  10.892  12.297
53911SOL    HW163572  13.360  10.984  12.315
53911SOL    HW263573  13.452  10.895  12.234
53912SOL     OW63574   9.807   2.000   4.851
53912SOL    HW163575   9.805   1.910   4.883
53912SOL    HW263576   9.867   2.045   4.911
53913SOL     OW63577  11.129   9.137   8.528
53913SOL    HW163578  11.052   9.092   8.493
53913SOL    HW263579  11.107   9.230   8.524
53914SOL     OW63580  10.525   5.138   1.546
53914SOL    HW163581  10.449   5.096   1.587
53914SOL    HW263582  10.498   5.156   1.456
53915SOL     OW63583   1.093   0.332   9.276
53915SOL    HW163584   1.097   0.384   9.195
53915SOL    HW263585   1.020   0.370   9.325
53916SOL     OW63586   6.542   9.506   3.661
53916SOL    HW163587   6.547   9.555   3.579
53916SOL    HW263588   6.621   9.452   3.663
53917SOL     OW63589   9.267  13.700   8.941
53917SOL    HW163590   9.301  13.731   8.857
53917SOL    HW263591   9.194  13.642   8.917
53918SOL     OW63592  14.484   1.639   3.283
53918SOL    HW163593  14.399   1.599   3.267
53918SOL    HW263594  14.513   1.603   3.367
53919SOL     OW63595   5.151  10.206   1.110
53919SOL    HW163596   5.198  10.227   1.191
53919SOL    HW263597   5.061  10.233   1.127
53920SOL     OW63598   8.248   0.225   9.201
53920SOL    HW163599   8.232   0.267   9.117
53920SOL    HW263600   8.341   0.207   9.202
53921SOL     OW63601  10.628  11.704   9.800
53921SOL    HW163602  10.623  11.725   9.706
53921SOL    HW263603  10.665  11.615   9.802
53922SOL     OW63604   7.931   0.099   3.084
53922SOL    HW163605   7.885   0.113   3.001
53922SOL    HW263606   7.964   0.186   3.107
53923SOL     OW63607   6.714   3.341   7.088
53923SOL    HW163608   6.773   3.279   7.130
53923SOL    HW263609   6.664   3.380   7.160
53924SOL     OW63610   7.989   0.847   5.444
53924SOL    HW163611   8.048   0.903   5.495
53924SOL    HW263612   8.047   0.795   5.389
53925SOL     OW63613   2.561   1.854   9.038
53925SOL    HW163614   2.515   1.821   9.114
53925SOL    HW263615   2.630   1.790   9.022
53926SOL     OW63616   3.735  14.213   2.836
53926SOL    HW163617   3.692  14.129   2.822
53926SOL    HW263618   3.704  14.242   2.921
53927SOL     OW63619   3.582   0.878   5.902
53927SOL    HW163620   3.506   0.910   5.951
53927SOL    HW263621   3.630   0.824   5.964
53928SOL     OW63622  10.798   3.913   9.546
53928SOL    HW163623  10.726   3.963   9.507
53928SOL    HW263624  10.789   3.826   9.508
53929SOL     OW63625   7.844   0.243   2.603
53929SOL    HW163626   7.927   0.268   2.561
53929SOL    HW263627   7.809   0.174   2.548
53930SOL     OW63628  10.271  14.099  14.328
53930SOL    HW163629  10.315  14.041  14.390
53930SOL    HW263630  10.327  14.097  14.250
53931SOL     OW63631   2.816  11.855  14.177
53931SOL    HW163632   2.788  11.945  14.193
53931SOL    HW263633   2.784  11.806  14.252
53932SOL     OW63634   1.410  10.983  10.270
53932SOL    HW163635   1.415  10.888  10.258
53932SOL    HW263636   1.439  10.997  10.360
53933SOL     OW63637   7.262   8.140   1.132
53933SOL    HW163638   7.188   8.102   1.086
53933SOL    HW263639   7.327   8.157   1.063
53934SOL     OW63640   9.016   5.746   0.224
53934SOL    HW163641   9.001   5.664   0.176
53934SOL    HW263642   8.957   5.809   0.182
53935SOL     OW63643   5.674   8.206  13.722
53935SOL    HW163644   5.655   8.292  13.684
53935SOL    HW263645   5.656   8.144  13.651
53936SOL     OW63646   0.177  11.401   1.152
53936SOL    HW163647   0.171  11.306   1.148
53936SOL    HW263648   0.151  11.423   1.241
53937SOL     OW63649   7.821  10.208   6.167
53937SOL    HW163650   7.912  10.234   6.151
53937SOL    HW263651   7.806  10.229   6.259
53938SOL     OW63652   0.897  12.771   4.157
53938SOL    HW163653   0.987  12.740   4.149
53938SOL    HW263654   0.856  12.711   4.219
53939SOL     OW63655   6.330  11.398  14.520
53939SOL    HW163656   6.298  11.461  14.456
53939SOL    HW263657   6.346  11.449  14.599
53940SOL     OW63658   1.534   8.431   0.080
53940SOL    HW163659   1.474   8.491   0.036
53940SOL    HW263660   1.603   8.487   0.116
53941SOL     OW63661  14.071  10.618   8.349
53941SOL    HW163662  14.073  10.587   8.440
53941SOL    HW263663  14.153  10.587   8.311
53942SOL     OW63664   0.212   2.872  11.866
53942SOL    HW163665   0.291   2.818  11.860
53942SOL    HW263666   0.215   2.908  11.955
53943SOL     OW63667  10.735   2.281   5.325
53943SOL    HW163668  10.657   2.318   5.368
53943SOL    HW263669  10.790   2.356   5.306
53944SOL     OW63670   4.184   6.325   3.466
53944SOL    HW163671   4.261   6.380   3.457
53944SOL    HW263672   4.157   6.336   3.557
53945SOL     OW63673  12.191   8.387  10.296
53945SOL    HW163674  12.242   8.468  10.300
53945SOL    HW263675  12.227   8.340  10.220
53946SOL     OW63676  10.664   5.258   9.844
53946SOL    HW163677  10.699   5.345   9.825
53946SOL    HW263678  10.718   5.199   9.792
53947SOL     OW63679   3.142  10.183   1.679
53947SOL    HW163680   3.098  10.259   1.641
53947SOL    HW263681   3.120  10.187   1.772
53948SOL     OW63682   6.782  12.520  11.602
53948SOL    HW163683   6.731  12.454  11.649
53948SOL    HW263684   6.866  12.478  11.584
53949SOL     OW63685   3.062  12.338   8.685
53949SOL    HW163686   2.993  12.341   8.620
53949SOL    HW263687   3.124  12.272   8.652
53950SOL     OW63688  13.451   6.376   6.905
53950SOL    HW163689  13.501   6.364   6.985
53950SOL    HW263690  13.367   6.335   6.922
53951SOL     OW63691  12.667  12.732   5.228
53951SOL    HW163692  12.646  12.802   5.289
53951SOL    HW263693  12.582  12.697   5.201
53952SOL     OW63694   7.342   6.832   7.509
53952SOL    HW163695   7.431   6.810   7.483
53952SOL    HW263696   7.314   6.897   7.445
53953SOL     OW63697   3.530   0.726   2.987
53953SOL    HW163698   3.454   0.785   2.983
53953SOL    HW263699   3.502   0.655   3.045
53954SOL     OW63700  13.444  13.546   9.206
53954SOL    HW163701  13.465  13.459   9.172
53954SOL    HW263702  13.515  13.565   9.269
53955SOL     OW63703  10.556  11.737   5.979
53955SOL    HW163704  10.550  11.748   5.885
53955SOL    HW263705  10.478  11.778   6.014
53956SOL     OW63706  13.556   1.586   2.570
53956SOL    HW163707  13.516   1.538   2.497
53956SOL    HW263708  13.589   1.519   2.628
53957SOL     OW63709  11.228  13.900   5.308
53957SOL    HW163710  11.288  13.970   5.332
53957SOL    HW263711  11.199  13.922   5.220
53958SOL     OW63712   5.133   9.077  13.302
53958SOL    HW163713   5.081   9.142  13.348
53958SOL    HW263714   5.179   9.126  13.234
53959SOL     OW63715   2.650   4.904  11.518
53959SOL    HW163716   2.607   4.854  11.588
53959SOL    HW263717   2.646   4.995  11.547
53960SOL     OW63718   4.398   9.185  14.814
53960SOL    HW163719   4.333   9.241  14.855
53960SOL    HW263720   4.430   9.237  14.739
53961SOL     OW63721   0.090   3.832   8.214
53961SOL    HW163722   0.023   3.879   8.264
53961SOL    HW263723   0.044   3.754   8.181
53962SOL     OW63724   5.989   9.202  12.535
53962SOL    HW163725   5.965   9.284  12.493
53962SOL    HW263726   6.014   9.145  12.462
53963SOL     OW63727  12.775   5.035   7.546
53963SOL    HW163728  12.746   4.966   7.605
53963SOL    HW263729  12.714   5.031   7.473
53964SOL     OW63730   8.455  13.731   9.663
53964SOL    HW163731   8.434  13.804   9.606
53964SOL    HW263732   8.535  13.693   9.625
53965SOL     OW63733   9.148   3.903   2.307
53965SOL    HW163734   9.083   3.951   2.255
53965SOL    HW263735   9.159   3.819   2.262
53966SOL     OW63736   2.506  11.598   5.835
53966SOL    HW163737   2.435  11.540   5.809
53966SOL    HW263738   2.585  11.559   5.796
53967SOL     OW63739   8.219   2.371   9.308
53967SOL    HW163740   8.161   2.438   9.343
53967SOL    HW263741   8.287   2.420   9.262
53968SOL     OW63742   3.869   8.993   9.000
53968SOL    HW163743   3.832   8.932   8.936
53968SOL    HW263744   3.804   8.995   9.071
53969SOL     OW63745  11.886   5.421   2.581
53969SOL    HW163746  11.929   5.494   2.625
53969SOL    HW263747  11.958   5.362   2.557
53970SOL     OW63748   5.231  13.045  10.074
53970SOL    HW163749   5.225  12.983  10.146
53970SOL    HW263750   5.152  13.030  10.022
53971SOL     OW63751   4.598  10.357   4.839
53971SOL    HW163752   4.595  10.267   4.873
53971SOL    HW263753   4.679  10.393   4.875
53972SOL     OW63754  13.393  11.888  10.557
53972SOL    HW163755  13.423  11.855  10.472
53972SOL    HW263756  13.398  11.983  10.549
53973SOL     OW63757   5.796  11.993   9.285
53973SOL    HW163758   5.795  12.088   9.296
53973SOL    HW263759   5.705  11.967   9.294
53974SOL     OW63760   1.688   2.007  14.703
53974SOL    HW163761   1.762   2.044  14.656
53974SOL    HW263762   1.725   1.938  14.758
53975SOL     OW63763  13.523  12.710   3.295
53975SOL    HW163764  13.545  12.707   3.389
53975SOL    HW263765  13.501  12.801   3.278
53976SOL     OW63766  12.312  11.508   9.374
53976SOL    HW163767  12.308  11.478   9.283
53976SOL    HW263768  12.359  11.439   9.420
53977SOL     OW63769   1.510   0.757  14.618
53977SOL    HW163770   1.571   0.717  14.680
53977SOL    HW263771   1.530   0.850  14.621
53978SOL     OW63772   1.934  11.629   8.434
53978SOL    HW163773   1.956  11.554   8.378
53978SOL    HW263774   1.980  11.612   8.516
53979SOL     OW63775   3.888   3.739   3.079
53979SOL    HW163776   3.963   3.697   3.038
53979SOL    HW263777   3.815   3.679   3.064
53980SOL     OW63778  10.625   0.349  10.970
53980SOL    HW163779  10.539   0.319  10.941
53980SOL    HW263780  10.606   0.427  11.022
53981SOL     OW63781  14.749   7.423   8.410
53981SOL    HW163782  14.707   7.442   8.326
53981SOL    HW263783  14.721   7.334   8.431
53982SOL     OW63784  13.218   9.011   8.530
53982SOL    HW163785  13.159   8.988   8.459
53982SOL    HW263786  13.191   8.956   8.604
53983SOL     OW63787   8.087   1.883   2.553
53983SOL    HW163788   8.099   1.898   2.647
53983SOL    HW263789   8.121   1.794   2.538
53984SOL     OW63790  12.275   9.121  11.648
53984SOL    HW163791  12.249   9.181  11.718
53984SOL    HW263792  12.234   9.157  11.569
53985SOL     OW63793   3.169  11.160  14.174
53985SOL    HW163794   3.170  11.070  14.207
53985SOL    HW263795   3.203  11.212  14.247
53986SOL     OW63796  11.889  13.471   8.863
53986SOL    HW163797  11.795  13.462   8.844
53986SOL    HW263798  11.900  13.424   8.946
53987SOL     OW63799   6.553   0.203   7.601
53987SOL    HW163800   6.643   0.192   7.631
53987SOL    HW263801   6.500   0.160   7.667
53988SOL     OW63802   4.279   1.366   0.262
53988SOL    HW163803   4.191   1.393   0.235
53988SOL    HW263804   4.290   1.279   0.224
53989SOL     OW63805   0.120   7.259   3.096
53989SOL    HW163806   0.156   7.310   3.023
53989SOL    HW263807   0.031   7.293   3.106
53990SOL     OW63808   2.926   8.226  12.922
53990SOL    HW163809   2.929   8.152  12.983
53990SOL    HW263810   3.008   8.273  12.938
53991SOL     OW63811  12.768  11.195   7.200
53991SOL    HW163812  12.805  11.139   7.132
53991SOL    HW263813  12.673  11.191   7.185
53992SOL     OW63814  10.651   0.791   0.883
53992SOL    HW163815  10.705   0.870   0.895
53992SOL    HW263816  10.575   0.822   0.835
53993SOL     OW63817   9.917   8.602   2.713
53993SOL    HW163818   9.938   8.657   2.637
53993SOL    HW263819   9.915   8.663   2.786
53994SOL     OW63820   2.105  10.320   8.954
53994SOL    HW163821   2.023  10.334   8.908
53994SOL    HW263822   2.116  10.399   9.009
53995SOL     OW63823  11.696   6.299  10.801
53995SOL    HW163824  11.676   6.320  10.709
53995SOL    HW263825  11.690   6.384  10.846
53996SOL     OW63826   1.251   1.868  14.100
53996SOL    HW163827   1.159   1.894  14.092
53996SOL    HW263828   1.278   1.851  14.009
53997SOL     OW63829   2.811   8.505   8.031
53997SOL    HW163830   2.765   8.431   8.071
53997SOL    HW263831   2.835   8.561   8.105
53998SOL     OW63832  13.527  13.351   3.911
53998SOL    HW163833  13.449  13.365   3.966
53998SOL    HW263834  13.592  13.412   3.945
53999SOL     OW63835  13.039   7.533  11.068
53999SOL    HW163836  13.027   7.439  11.053
53999SOL    HW263837  12.992   7.550  11.150
54000SOL     OW63838   5.501  13.516  10.468
54000SOL    HW163839   5.455  13.442  10.507
54000SOL    HW263840   5.594  13.492  10.470
54001SOL     OW63841   0.444  12.312   6.993
54001SOL    HW163842   0.430  12.238   6.933
54001SOL    HW263843   0.357  12.333   7.026
54002SOL     OW63844   1.367   6.149   1.851
54002SOL    HW163845   1.395   6.192   1.771
54002SOL    HW263846   1.373   6.217   1.918
54003SOL     OW63847  13.835  11.501  10.629
54003SOL    HW163848  13.787  11.421  10.651
54003SOL    HW263849  13.868  11.534  10.713
54004SOL     OW63850   6.442   7.598   0.788
54004SOL    HW163851   6.411   7.681   0.753
54004SOL    HW263852   6.537   7.609   0.795
54005SOL     OW63853   6.882  13.409   7.519
54005SOL    HW163854   6.789  13.398   7.497
54005SOL    HW263855   6.886  13.491   7.568
54006SOL     OW63856   8.474   7.312   5.571
54006SOL    HW163857   8.458   7.334   5.663
54006SOL    HW263858   8.533   7.237   5.575
54007SOL     OW63859   1.195   7.543  12.184
54007SOL    HW163860   1.264   7.597  12.223
54007SOL    HW263861   1.163   7.488  12.255
54008SOL     OW63862   2.623   8.175   2.449
54008SOL    HW163863   2.578   8.092   2.463
54008SOL    HW263864   2.666   8.194   2.532
54009SOL     OW63865  11.453  13.263   6.230
54009SOL    HW163866  11.519  13.254   6.298
54009SOL    HW263867  11.402  13.340   6.255
54010SOL     OW63868  13.200  11.489   3.461
54010SOL    HW163869  13.115  11.516   3.496
54010SOL    HW263870  13.225  11.560   3.401
54011SOL     OW63871   9.831   3.810  10.368
54011SOL    HW163872   9.882   3.747  10.318
54011SOL    HW263873   9.896   3.867  10.409
54012SOL     OW63874   6.097   3.981   4.072
54012SOL    HW163875   6.094   3.911   4.138
54012SOL    HW263876   6.190   3.995   4.057
54013SOL     OW63877   5.331   5.997   2.851
54013SOL    HW163878   5.330   5.986   2.756
54013SOL    HW263879   5.272   6.070   2.867
54014SOL     OW63880   9.748   0.946  13.229
54014SOL    HW163881   9.743   0.995  13.147
54014SOL    HW263882   9.840   0.954  13.255
54015SOL     OW63883  13.426   9.938   8.424
54015SOL    HW163884  13.389   9.851   8.409
54015SOL    HW263885  13.364   9.999   8.385
54016SOL     OW63886  12.619   5.471  14.777
54016SOL    HW163887  12.675   5.478  14.700
54016SOL    HW263888  12.596   5.562  14.798
54017SOL     OW63889  10.946   9.762  13.408
54017SOL    HW163890  11.039   9.754  13.387
54017SOL    HW263891  10.941   9.836  13.469
54018SOL     OW63892   9.650   6.002   2.986
54018SOL    HW163893   9.636   5.992   2.892
54018SOL    HW263894   9.717   6.069   2.994
54019SOL     OW63895   1.969   5.214   2.314
54019SOL    HW163896   1.926   5.227   2.399
54019SOL    HW263897   1.929   5.135   2.279
54020SOL     OW63898   7.415   5.242  12.014
54020SOL    HW163899   7.330   5.271  11.981
54020SOL    HW263900   7.449   5.184  11.946
54021SOL     OW63901   8.211  12.382   2.006
54021SOL    HW163902   8.215  12.286   2.000
54021SOL    HW263903   8.275  12.405   2.074
54022SOL     OW63904   2.911   0.286   3.367
54022SOL    HW163905   2.900   0.299   3.273
54022SOL    HW263906   2.878   0.197   3.383
54023SOL     OW63907  12.764   0.748  12.858
54023SOL    HW163908  12.775   0.821  12.798
54023SOL    HW263909  12.782   0.670  12.806
54024SOL     OW63910  12.845   6.032  10.233
54024SOL    HW163911  12.846   6.125  10.212
54024SOL    HW263912  12.794   5.992  10.163
54025SOL     OW63913   9.633  10.601   9.117
54025SOL    HW163914   9.608  10.649   9.196
54025SOL    HW263915   9.640  10.669   9.049
54026SOL     OW63916   8.534   6.789  12.440
54026SOL    HW163917   8.610   6.754  12.485
54026SOL    HW263918   8.569   6.853  12.379
54027SOL     OW63919   4.577   3.379   6.850
54027SOL    HW163920   4.603   3.427   6.771
54027SOL    HW263921   4.488   3.408   6.869
54028SOL     OW63922   0.373   5.648  11.245
54028SOL    HW163923   0.407   5.580  11.304
54028SOL    HW263924   0.293   5.610  11.208
54029SOL     OW63925  11.341  12.376  14.709
54029SOL    HW163926  11.365  12.309  14.774
54029SOL    HW263927  11.255  12.349  14.678
54030SOL     OW63928   0.372  10.261  11.425
54030SOL    HW163929   0.451  10.292  11.381
54030SOL    HW263930   0.374  10.303  11.510
54031SOL     OW63931   0.116   6.857  11.128
54031SOL    HW163932   0.081   6.831  11.043
54031SOL    HW263933   0.194   6.802  11.139
54032SOL     OW63934   8.037  14.293   9.447
54032SOL    HW163935   8.077  14.209   9.423
54032SOL    HW263936   8.096  14.331   9.512
54033SOL     OW63937   1.532   8.341   5.106
54033SOL    HW163938   1.491   8.309   5.186
54033SOL    HW263939   1.624   8.353   5.129
54034SOL     OW63940   0.339   4.695   3.913
54034SOL    HW163941   0.391   4.678   3.834
54034SOL    HW263942   0.320   4.608   3.948
54035SOL     OW63943  10.987   3.877   4.462
54035SOL    HW163944  11.072   3.846   4.430
54035SOL    HW263945  10.986   3.970   4.440
54036SOL     OW63946   7.929   3.159   9.889
54036SOL    HW163947   7.949   3.133   9.799
54036SOL    HW263948   7.836   3.140   9.899
54037SOL     OW63949   5.108  14.261   2.665
54037SOL    HW163950   5.104  14.354   2.689
54037SOL    HW263951   5.063  14.216   2.736
54038SOL     OW63952   2.358   3.243  11.340
54038SOL    HW163953   2.392   3.238  11.251
54038SOL    HW263954   2.311   3.327  11.343
54039SOL     OW63955  13.616   5.074  11.501
54039SOL    HW163956  13.587   5.124  11.577
54039SOL    HW263957  13.601   4.983  11.525
54040SOL     OW63958  14.216   9.555   3.479
54040SOL    HW163959  14.223   9.482   3.418
54040SOL    HW263960  14.302   9.597   3.476
54041SOL     OW63961   7.083   8.738   1.849
54041SOL    HW163962   7.063   8.648   1.824
54041SOL    HW263963   7.015   8.790   1.807
54042SOL     OW63964  12.489   4.992  14.391
54042SOL    HW163965  12.559   4.927  14.402
54042SOL    HW263966  12.412   4.951  14.429
54043SOL     OW63967   2.874  12.730   9.075
54043SOL    HW163968   2.886  12.644   9.034
54043SOL    HW263969   2.908  12.792   9.010
54044SOL     OW63970  13.113  14.619  12.197
54044SOL    HW163971  13.036  14.606  12.252
54044SOL    HW263972  13.093  14.572  12.116
54045SOL     OW63973   0.970  13.142   0.704
54045SOL    HW163974   1.043  13.178   0.755
54045SOL    HW263975   0.945  13.063   0.751
54046SOL     OW63976   9.059   6.557   6.470
54046SOL    HW163977   8.979   6.582   6.424
54046SOL    HW263978   9.107   6.501   6.408
54047SOL     OW63979   4.827   1.632  10.233
54047SOL    HW163980   4.888   1.560  10.247
54047SOL    HW263981   4.780   1.609  10.154
54048SOL     OW63982  10.943   7.964   5.612
54048SOL    HW163983  10.891   8.005   5.543
54048SOL    HW263984  10.889   7.970   5.690
54049SOL     OW63985   8.374   0.407  13.349
54049SOL    HW163986   8.379   0.311  13.341
54049SOL    HW263987   8.315   0.433  13.279
54050SOL     OW63988   1.846   8.807   7.582
54050SOL    HW163989   1.911   8.850   7.638
54050SOL    HW263990   1.762   8.831   7.621
54051SOL     OW63991   1.348   7.180   4.159
54051SOL    HW163992   1.266   7.152   4.119
54051SOL    HW263993   1.382   7.248   4.100
54052SOL     OW63994   7.249  13.329   2.559
54052SOL    HW163995   7.342  13.348   2.544
54052SOL    HW263996   7.245  13.296   2.648
54053SOL     OW63997   8.415   1.862   3.898
54053SOL    HW163998   8.344   1.800   3.886
54053SOL    HW263999   8.442   1.885   3.809
54054SOL     OW64000   2.540   7.551  13.601
54054SOL    HW164001   2.580   7.527  13.518
54054SOL    HW264002   2.614   7.580  13.655
54055SOL     OW64003   9.066   0.943   9.658
54055SOL    HW164004   9.002   1.008   9.629
54055SOL    HW264005   9.135   0.994   9.700
54056SOL     OW64006   6.851  10.727   1.167
54056SOL    HW164007   6.879  10.819   1.164
54056SOL    HW264008   6.856  10.698   1.076
54057SOL     OW64009   0.623  12.072  10.498
54057SOL    HW164010   0.548  12.041  10.548
54057SOL    HW264011   0.644  12.157  10.535
54058SOL     OW64012   0.210   3.213   5.518
54058SOL    HW164013   0.252   3.170   5.444
54058SOL    HW264014   0.280   3.230   5.580
54059SOL     OW64015   6.057   1.274   5.248
54059SOL    HW164016   5.994   1.331   5.293
54059SOL    HW264017   6.033   1.279   5.156
54060SOL     OW64018   2.592   0.914   1.850
54060SOL    HW164019   2.675   0.866   1.858
54060SOL    HW264020   2.578   0.921   1.756
54061SOL     OW64021  12.999   5.701   5.451
54061SOL    HW164022  12.929   5.640   5.474
54061SOL    HW264023  12.992   5.771   5.516
54062SOL     OW64024  10.594  14.880   3.156
54062SOL    HW164025  10.601  14.788   3.131
54062SOL    HW264026  10.681   0.021   3.188
54063SOL     OW64027  13.105   4.919  13.017
54063SOL    HW164028  13.016   4.926  12.981
54063SOL    HW264029  13.133   5.009  13.029
54064SOL     OW64030  10.276   2.031   0.269
54064SOL    HW164031  10.217   2.102   0.243
54064SOL    HW264032  10.360   2.074   0.286
54065SOL     OW64033   1.630  10.366   6.493
54065SOL    HW164034   1.590  10.303   6.433
54065SOL    HW264035   1.580  10.447   6.479
54066SOL     OW64036   4.890   6.744   6.290
54066SOL    HW164037   4.847   6.813   6.239
54066SOL    HW264038   4.888   6.668   6.233
54067SOL     OW64039   6.094   8.013   5.582
54067SOL    HW164040   6.145   8.093   5.597
54067SOL    HW264041   6.006   8.035   5.612
54068SOL     OW64042  10.467   4.703   1.726
54068SOL    HW164043  10.391   4.649   1.702
54068SOL    HW264044  10.437   4.793   1.712
54069SOL     OW64045   9.665   3.000   3.235
54069SOL    HW164046   9.699   3.045   3.313
54069SOL    HW264047   9.742   2.983   3.182
54070SOL     OW64048   5.786   7.205   7.710
54070SOL    HW164049   5.874   7.171   7.729
54070SOL    HW264050   5.727   7.134   7.734
54071SOL     OW64051  10.902   1.097   6.522
54071SOL    HW164052  10.922   1.125   6.611
54071SOL    HW264053  10.865   1.009   6.532
54072SOL     OW64054   0.484  11.324   0.378
54072SOL    HW164055   0.573  11.288   0.387
54072SOL    HW264056   0.457  11.300   0.290
54073SOL     OW64057   9.886   1.925   7.749
54073SOL    HW164058   9.830   1.996   7.779
54073SOL    HW264059   9.967   1.967   7.721
54074SOL     OW64060   0.573   2.315  13.826
54074SOL    HW164061   0.568   2.334  13.920
54074SOL    HW264062   0.482   2.310  13.798
54075SOL     OW64063   1.042  13.572  12.811
54075SOL    HW164064   1.074  13.605  12.895
54075SOL    HW264065   1.056  13.645  12.750
54076SOL     OW64066   8.301  11.582   9.563
54076SOL    HW164067   8.249  11.647   9.515
54076SOL    HW264068   8.378  11.568   9.508
54077SOL     OW64069   4.982  10.907   9.375
54077SOL    HW164070   5.047  10.973   9.351
54077SOL    HW264071   5.030  10.824   9.374
54078SOL     OW64072   9.087   1.435   6.470
54078SOL    HW164073   9.165   1.483   6.497
54078SOL    HW264074   9.024   1.503   6.447
54079SOL     OW64075   8.672  11.547   5.559
54079SOL    HW164076   8.645  11.455   5.552
54079SOL    HW264077   8.723  11.550   5.640
54080SOL     OW64078   2.757   2.393   5.477
54080SOL    HW164079   2.818   2.401   5.403
54080SOL    HW264080   2.671   2.388   5.436
54081SOL     OW64081   0.831   8.022   2.445
54081SOL    HW164082   0.817   7.943   2.393
54081SOL    HW264083   0.925   8.039   2.438
54082SOL     OW64084  14.538   8.056   7.723
54082SOL    HW164085  14.514   8.129   7.666
54082SOL    HW264086  14.523   8.089   7.811
54083SOL     OW64087   8.218  10.839   5.508
54083SOL    HW164088   8.279  10.770   5.532
54083SOL    HW264089   8.162  10.850   5.585
54084SOL     OW64090   5.731   7.023   9.074
54084SOL    HW164091   5.809   7.070   9.044
54084SOL    HW264092   5.673   7.092   9.107
54085SOL     OW64093   6.657   5.935  10.921
54085SOL    HW164094   6.596   5.887  10.977
54085SOL    HW264095   6.601   5.977  10.855
54086SOL     OW64096  12.784  12.133   8.956
54086SOL    HW164097  12.831  12.060   8.915
54086SOL    HW264098  12.693  12.104   8.959
54087SOL     OW64099   1.400   4.228  14.618
54087SOL    HW164100   1.356   4.200  14.538
54087SOL    HW264101   1.349   4.304  14.648
54088SOL     OW64102   7.326   2.547   5.834
54088SOL    HW164103   7.328   2.639   5.859
54088SOL    HW264104   7.407   2.533   5.787
54089SOL     OW64105  12.072   2.912   2.386
54089SOL    HW164106  12.115   2.924   2.471
54089SOL    HW264107  11.979   2.907   2.406
54090SOL     OW64108   1.309   9.486   8.196
54090SOL    HW164109   1.394   9.449   8.219
54090SOL    HW264110   1.294   9.459   8.106
54091SOL     OW64111   9.163   6.540   0.945
54091SOL    HW164112   9.135   6.504   0.861
54091SOL    HW264113   9.083   6.574   0.985
54092SOL     OW64114   3.778  13.191   3.006
54092SOL    HW164115   3.867  13.159   2.991
54092SOL    HW264116   3.759  13.247   2.931
54093SOL     OW64117   7.709   7.505   8.154
54093SOL    HW164118   7.662   7.576   8.110
54093SOL    HW264119   7.745   7.547   8.233
54094SOL     OW64120   2.303   9.054   0.572
54094SOL    HW164121   2.346   9.051   0.658
54094SOL    HW264122   2.355   9.116   0.521
54095SOL     OW64123   4.440   7.098   1.425
54095SOL    HW164124   4.436   7.125   1.516
54095SOL    HW264125   4.529   7.118   1.397
54096SOL     OW64126   0.389   5.437   8.211
54096SOL    HW164127   0.323   5.478   8.155
54096SOL    HW264128   0.424   5.365   8.158
54097SOL     OW64129  12.025  13.442   3.211
54097SOL    HW164130  11.967  13.371   3.183
54097SOL    HW264131  12.026  13.436   3.307
54098SOL     OW64132   0.666  13.587  10.482
54098SOL    HW164133   0.732  13.555  10.421
54098SOL    HW264134   0.716  13.627  10.553
54099SOL     OW64135   5.288   5.936  12.430
54099SOL    HW164136   5.280   6.031  12.419
54099SOL    HW264137   5.327   5.905  12.349
54100SOL     OW64138  13.518  13.356   6.797
54100SOL    HW164139  13.536  13.263   6.807
54100SOL    HW264140  13.485  13.365   6.708
54101SOL     OW64141   5.421   5.936  11.828
54101SOL    HW164142   5.360   5.878  11.783
54101SOL    HW264143   5.404   6.023  11.791
54102SOL     OW64144   0.007  14.347   6.432
54102SOL    HW164145  14.854  14.281   6.372
54102SOL    HW264146   0.086  14.307   6.468
54103SOL     OW64147  11.537   6.702   5.347
54103SOL    HW164148  11.595   6.666   5.280
54103SOL    HW264149  11.531   6.795   5.327
54104SOL     OW64150   1.100   0.282   8.022
54104SOL    HW164151   1.131   0.286   7.932
54104SOL    HW264152   1.145   0.355   8.066
54105SOL     OW64153   4.070   2.333   7.432
54105SOL    HW164154   4.137   2.277   7.393
54105SOL    HW264155   4.011   2.272   7.477
54106SOL     OW64156   5.542   6.936   6.857
54106SOL    HW164157   5.474   6.986   6.813
54106SOL    HW264158   5.512   6.845   6.855
54107SOL     OW64159   8.600   8.723   4.962
54107SOL    HW164160   8.614   8.814   4.988
54107SOL    HW264161   8.619   8.721   4.869
54108SOL     OW64162  11.237   5.710  11.173
54108SOL    HW164163  11.316   5.706  11.228
54108SOL    HW264164  11.222   5.803  11.160
54109SOL     OW64165   6.855   8.343  11.926
54109SOL    HW164166   6.904   8.380  11.999
54109SOL    HW264167   6.890   8.255  11.915
54110SOL     OW64168   4.799   8.863   6.200
54110SOL    HW164169   4.807   8.840   6.107
54110SOL    HW264170   4.705   8.871   6.214
54111SOL     OW64171  14.233   6.169   4.092
54111SOL    HW164172  14.180   6.248   4.093
54111SOL    HW264173  14.215   6.128   4.177
54112SOL     OW64174  11.099   5.401  14.034
54112SOL    HW164175  11.108   5.402  13.939
54112SOL    HW264176  11.008   5.428  14.050
54113SOL     OW64177  11.552  11.778   2.762
54113SOL    HW164178  11.461  11.797   2.786
54113SOL    HW264179  11.548  11.753   2.670
54114SOL     OW64180   9.774   2.023  13.337
54114SOL    HW164181   9.837   2.089  13.312
54114SOL    HW264182   9.696   2.043  13.285
54115SOL     OW64183   4.854   6.760   7.600
54115SOL    HW164184   4.841   6.842   7.551
54115SOL    HW264185   4.775   6.751   7.654
54116SOL     OW64186   3.469  10.580  11.380
54116SOL    HW164187   3.546  10.566  11.325
54116SOL    HW264188   3.502  10.626  11.457
54117SOL     OW64189  11.852   0.626  12.361
54117SOL    HW164190  11.840   0.720  12.350
54117SOL    HW264191  11.903   0.599  12.285
54118SOL     OW64192   1.470  12.061  10.671
54118SOL    HW164193   1.500  12.140  10.627
54118SOL    HW264194   1.443  12.003  10.599
54119SOL     OW64195  12.376   0.904  13.764
54119SOL    HW164196  12.393   0.847  13.689
54119SOL    HW264197  12.300   0.955  13.739
54120SOL     OW64198   9.235  12.737  11.728
54120SOL    HW164199   9.229  12.645  11.754
54120SOL    HW264200   9.184  12.742  11.647
54121SOL     OW64201  12.003   8.821   0.375
54121SOL    HW164202  12.069   8.822   0.306
54121SOL    HW264203  12.005   8.909   0.412
54122SOL     OW64204  12.102   2.656   7.101
54122SOL    HW164205  12.096   2.604   7.181
54122SOL    HW264206  12.038   2.616   7.041
54123SOL     OW64207   8.919   7.659   9.110
54123SOL    HW164208   8.862   7.586   9.086
54123SOL    HW264209   8.892   7.681   9.199
54124SOL     OW64210  13.541   9.362  12.846
54124SOL    HW164211  13.496   9.395  12.924
54124SOL    HW264212  13.609   9.427  12.829
54125SOL     OW64213   5.487   4.031   6.386
54125SOL    HW164214   5.453   3.975   6.316
54125SOL    HW264215   5.510   4.113   6.343
54126SOL     OW64216   4.138  10.250  10.339
54126SOL    HW164217   4.112  10.282  10.425
54126SOL    HW264218   4.226  10.215  10.352
54127SOL     OW64219   4.541   4.173   1.624
54127SOL    HW164220   4.555   4.098   1.566
54127SOL    HW264221   4.445   4.183   1.627
54128SOL     OW64222   0.394   6.869   1.211
54128SOL    HW164223   0.314   6.862   1.158
54128SOL    HW264224   0.376   6.814   1.287
54129SOL     OW64225   2.925   9.863   5.708
54129SOL    HW164226   2.849   9.834   5.658
54129SOL    HW264227   2.986   9.895   5.642
54130SOL     OW64228  14.095  13.526   9.504
54130SOL    HW164229  14.026  13.576   9.461
54130SOL    HW264230  14.136  13.587   9.564
54131SOL     OW64231   5.890   7.761   4.803
54131SOL    HW164232   5.931   7.788   4.885
54131SOL    HW264233   5.950   7.696   4.767
54132SOL     OW64234   5.825   4.311   6.764
54132SOL    HW164235   5.842   4.217   6.772
54132SOL    HW264236   5.739   4.317   6.724
54133SOL     OW64237  14.253   0.930   8.442
54133SOL    HW164238  14.335   0.973   8.418
54133SOL    HW264239  14.246   0.941   8.537
54134SOL     OW64240   6.528   3.065  12.655
54134SOL    HW164241   6.614   3.049  12.616
54134SOL    HW264242   6.484   2.980  12.653
54135SOL     OW64243   0.343  12.266   0.138
54135SOL    HW164244   0.423  12.301   0.099
54135SOL    HW264245   0.275  12.287   0.074
54136SOL     OW64246  13.113   3.504   5.080
54136SOL    HW164247  13.166   3.435   5.121
54136SOL    HW264248  13.177   3.565   5.044
54137SOL     OW64249   0.298  12.711   7.154
54137SOL    HW164250   0.319  12.701   7.061
54137SOL    HW264251   0.371  12.763   7.189
54138SOL     OW64252  13.463  14.214   5.920
54138SOL    HW164253  13.460  14.230   6.014
54138SOL    HW264254  13.545  14.166   5.906
54139SOL     OW64255  11.318   1.007  14.187
54139SOL    HW164256  11.256   1.035  14.255
54139SOL    HW264257  11.376   1.082  14.176
54140SOL     OW64258   1.252   9.723   8.820
54140SOL    HW164259   1.287   9.661   8.756
54140SOL    HW264260   1.260   9.678   8.904
54141SOL     OW64261   3.481  11.408   1.670
54141SOL    HW164262   3.528  11.381   1.749
54141SOL    HW264263   3.420  11.475   1.701
54142SOL     OW64264   5.869   6.374  13.388
54142SOL    HW164265   5.881   6.350  13.480
54142SOL    HW264266   5.787   6.425  13.387
54143SOL     OW64267  11.300  10.927   1.819
54143SOL    HW164268  11.271  11.013   1.849
54143SOL    HW264269  11.279  10.869   1.893
54144SOL     OW64270  10.781   7.501   1.602
54144SOL    HW164271  10.765   7.591   1.630
54144SOL    HW264272  10.736   7.493   1.518
54145SOL     OW64273  12.890   1.196  10.562
54145SOL    HW164274  12.852   1.182  10.475
54145SOL    HW264275  12.888   1.110  10.603
54146SOL     OW64276   7.235   4.085   4.939
54146SOL    HW164277   7.201   4.091   5.028
54146SOL    HW264278   7.159   4.066   4.885
54147SOL     OW64279   8.907   4.664  13.800
54147SOL    HW164280   8.950   4.689  13.718
54147SOL    HW264281   8.973   4.681  13.867
54148SOL     OW64282   5.573   2.498   5.206
54148SOL    HW164283   5.563   2.407   5.235
54148SOL    HW264284   5.500   2.513   5.147
54149SOL     OW64285   5.393   7.183  13.259
54149SOL    HW164286   5.297   7.189  13.267
54149SOL    HW264287   5.425   7.259  13.307
54150SOL     OW64288   9.593   7.351   2.033
54150SOL    HW164289   9.688   7.342   2.021
54150SOL    HW264290   9.571   7.283   2.096
54151SOL     OW64291   4.354   8.422   7.890
54151SOL    HW164292   4.333   8.486   7.958
54151SOL    HW264293   4.273   8.372   7.880
54152SOL     OW64294   8.611   8.189  11.668
54152SOL    HW164295   8.688   8.136  11.649
54152SOL    HW264296   8.644   8.257  11.728
54153SOL     OW64297   1.270   6.554   2.449
54153SOL    HW164298   1.360   6.578   2.429
54153SOL    HW264299   1.266   6.459   2.437
54154SOL     OW64300  11.497   4.635   6.124
54154SOL    HW164301  11.431   4.578   6.164
54154SOL    HW264302  11.579   4.610   6.166
54155SOL     OW64303   5.988   7.081   9.232
54155SOL    HW164304   6.021   7.139   9.301
54155SOL    HW264305   5.989   7.134   9.153
54156SOL     OW64306   0.167   2.501   5.173
54156SOL    HW164307   0.121   2.495   5.256
54156SOL    HW264308   0.100   2.483   5.107
54157SOL     OW64309   4.749  11.824   3.808
54157SOL    HW164310   4.699  11.848   3.886
54157SOL    HW264311   4.695  11.757   3.765
54158SOL     OW64312   6.875   2.797   8.043
54158SOL    HW164313   6.816   2.740   8.093
54158SOL    HW264314   6.946   2.817   8.105
54159SOL     OW64315  12.752   1.737   8.480
54159SOL    HW164316  12.833   1.780   8.451
54159SOL    HW264317  12.774   1.644   8.482
54160SOL     OW64318   7.668   2.835  12.822
54160SOL    HW164319   7.746   2.863  12.774
54160SOL    HW264320   7.702   2.789  12.899
54161SOL     OW64321  12.645  14.434   4.311
54161SOL    HW164322  12.672  14.393   4.393
54161SOL    HW264323  12.700  14.391   4.244
54162SOL     OW64324  10.618   9.615   7.306
54162SOL    HW164325  10.599   9.673   7.233
54162SOL    HW264326  10.664   9.541   7.267
54163SOL     OW64327   3.300   6.417   9.402
54163SOL    HW164328   3.208   6.418   9.374
54163SOL    HW264329   3.312   6.501   9.448
54164SOL     OW64330  11.110   0.507   9.990
54164SOL    HW164331  11.198   0.516   9.954
54164SOL    HW264332  11.074   0.429   9.949
54165SOL     OW64333  12.558   5.965   9.415
54165SOL    HW164334  12.605   5.968   9.331
54165SOL    HW264335  12.510   5.882   9.412
54166SOL     OW64336  11.083   2.241  13.408
54166SOL    HW164337  11.036   2.213  13.486
54166SOL    HW264338  11.054   2.331  13.393
54167SOL     OW64339   1.482   5.866   8.795
54167SOL    HW164340   1.535   5.786   8.790
54167SOL    HW264341   1.437   5.870   8.711
54168SOL     OW64342   4.058   2.721   1.981
54168SOL    HW164343   4.147   2.724   1.946
54168SOL    HW264344   4.009   2.785   1.929
54169SOL     OW64345   0.628   7.432  14.053
54169SOL    HW164346   0.539   7.438  14.088
54169SOL    HW264347   0.682   7.480  14.116
54170SOL     OW64348  12.096  11.939   1.861
54170SOL    HW164349  12.130  11.905   1.944
54170SOL    HW264350  12.008  11.903   1.854
54171SOL     OW64351  11.508  11.100   0.884
54171SOL    HW164352  11.517  11.167   0.816
54171SOL    HW264353  11.450  11.034   0.845
54172SOL     OW64354  12.410   4.647   1.603
54172SOL    HW164355  12.418   4.722   1.661
54172SOL    HW264356  12.329   4.663   1.554
54173SOL     OW64357  12.914   1.806   8.942
54173SOL    HW164358  12.893   1.739   9.007
54173SOL    HW264359  12.841   1.803   8.880
54174SOL     OW64360  13.145   0.382  11.093
54174SOL    HW164361  13.087   0.412  11.163
54174SOL    HW264362  13.229   0.426  11.111
54175SOL     OW64363  12.814   3.600  13.410
54175SOL    HW164364  12.819   3.615  13.315
54175SOL    HW264365  12.853   3.513  13.422
54176SOL     OW64366   4.317   0.906  11.210
54176SOL    HW164367   4.281   0.988  11.245
54176SOL    HW264368   4.362   0.933  11.130
54177SOL     OW64369  11.535   2.953  12.255
54177SOL    HW164370  11.546   2.873  12.307
54177SOL    HW264371  11.460   2.998  12.294
54178SOL     OW64372  14.512   2.106  10.243
54178SOL    HW164373  14.433   2.069  10.283
54178SOL    HW264374  14.489   2.196  10.222
54179SOL     OW64375  12.635   7.911   6.433
54179SOL    HW164376  12.699   7.954   6.375
54179SOL    HW264377  12.688   7.876   6.505
54180SOL     OW64378   3.393   7.692  12.350
54180SOL    HW164379   3.418   7.640  12.274
54180SOL    HW264380   3.465   7.681  12.412
54181SOL     OW64381   6.289   4.828   7.324
54181SOL    HW164382   6.329   4.813   7.239
54181SOL    HW264383   6.271   4.740   7.358
54182SOL     OW64384   4.376  12.258   8.428
54182SOL    HW164385   4.379  12.333   8.368
54182SOL    HW264386   4.420  12.290   8.507
54183SOL     OW64387   6.775   4.239   2.762
54183SOL    HW164388   6.729   4.155   2.755
54183SOL    HW264389   6.820   4.235   2.846
54184SOL     OW64390  13.401   7.882   2.580
54184SOL    HW164391  13.437   7.847   2.499
54184SOL    HW264392  13.462   7.950   2.606
54185SOL     OW64393   1.145   2.240   2.109
54185SOL    HW164394   1.229   2.211   2.074
54185SOL    HW264395   1.158   2.243   2.204
54186SOL     OW64396   3.098   1.169   6.998
54186SOL    HW164397   3.036   1.131   6.936
54186SOL    HW264398   3.099   1.262   6.976
54187SOL     OW64399   1.455   0.598   8.992
54187SOL    HW164400   1.485   0.677   8.946
54187SOL    HW264401   1.535   0.563   9.033
54188SOL     OW64402   5.738  14.293   6.916
54188SOL    HW164403   5.754  14.387   6.921
54188SOL    HW264404   5.723  14.276   6.823
54189SOL     OW64405  12.148   9.289   1.255
54189SOL    HW164406  12.159   9.367   1.311
54189SOL    HW264407  12.219   9.231   1.282
54190SOL     OW64408   8.033  13.918   7.752
54190SOL    HW164409   7.969  13.847   7.759
54190SOL    HW264410   8.068  13.928   7.841
54191SOL     OW64411   2.879  14.326  11.446
54191SOL    HW164412   2.896  14.233  11.462
54191SOL    HW264413   2.787  14.328  11.421
54192SOL     OW64414   3.078   2.117  13.070
54192SOL    HW164415   3.015   2.165  13.016
54192SOL    HW264416   3.147   2.091  13.008
54193SOL     OW64417   3.381   7.521   3.269
54193SOL    HW164418   3.455   7.501   3.212
54193SOL    HW264419   3.315   7.455   3.248
54194SOL     OW64420   2.192   7.364  14.150
54194SOL    HW164421   2.252   7.311  14.201
54194SOL    HW264422   2.105   7.337  14.179
54195SOL     OW64423  12.177   9.494   7.088
54195SOL    HW164424  12.121   9.417   7.076
54195SOL    HW264425  12.215   9.482   7.176
54196SOL     OW64426   8.753   5.187   2.203
54196SOL    HW164427   8.830   5.207   2.150
54196SOL    HW264428   8.754   5.252   2.273
54197SOL     OW64429  12.668   6.746   6.887
54197SOL    HW164430  12.622   6.830   6.883
54197SOL    HW264431  12.729   6.755   6.960
54198SOL     OW64432   2.750  12.154  12.696
54198SOL    HW164433   2.812  12.143  12.768
54198SOL    HW264434   2.750  12.248  12.677
54199SOL     OW64435   0.473   5.559   7.541
54199SOL    HW164436   0.495   5.568   7.634
54199SOL    HW264437   0.445   5.467   7.533
54200SOL     OW64438   2.639   1.166   9.473
54200SOL    HW164439   2.670   1.149   9.562
54200SOL    HW264440   2.691   1.108   9.418
54201SOL     OW64441   8.666   3.416  11.321
54201SOL    HW164442   8.575   3.440  11.305
54201SOL    HW264443   8.716   3.491  11.289
54202SOL     OW64444   5.703   2.522   8.660
54202SOL    HW164445   5.712   2.426   8.665
54202SOL    HW264446   5.645   2.544   8.734
54203SOL     OW64447   1.823  14.318   8.820
54203SOL    HW164448   1.789  14.284   8.903
54203SOL    HW264449   1.918  14.301   8.824
54204SOL     OW64450  13.418   4.536   4.437
54204SOL    HW164451  13.510   4.533   4.412
54204SOL    HW264452  13.370   4.519   4.356
54205SOL     OW64453   3.459  12.592   9.774
54205SOL    HW164454   3.536  12.564   9.725
54205SOL    HW264455   3.418  12.511   9.804
54206SOL     OW64456   5.447  10.057   5.830
54206SOL    HW164457   5.503  10.068   5.907
54206SOL    HW264458   5.412   9.969   5.838
54207SOL     OW64459   1.571   9.530  11.784
54207SOL    HW164460   1.529   9.468  11.844
54207SOL    HW264461   1.664   9.507  11.789
54208SOL     OW64462   0.328   1.972  12.111
54208SOL    HW164463   0.261   1.934  12.053
54208SOL    HW264464   0.279   2.001  12.188
54209SOL     OW64465   0.865  11.022  11.438
54209SOL    HW164466   0.929  11.037  11.369
54209SOL    HW264467   0.830  11.109  11.458
54210SOL     OW64468   2.143   1.953  13.826
54210SOL    HW164469   2.233   1.942  13.858
54210SOL    HW264470   2.142   2.039  13.784
54211SOL     OW64471   6.655  13.322  14.245
54211SOL    HW164472   6.689  13.393  14.299
54211SOL    HW264473   6.599  13.272  14.305
54212SOL     OW64474   6.395   6.607  13.557
54212SOL    HW164475   6.376   6.514  13.542
54212SOL    HW264476   6.317   6.653  13.526
54213SOL     OW64477  10.591   9.369   4.127
54213SOL    HW164478  10.610   9.277   4.110
54213SOL    HW264479  10.495   9.375   4.125
54214SOL     OW64480   9.519   0.972  12.112
54214SOL    HW164481   9.474   0.920  12.179
54214SOL    HW264482   9.608   0.936  12.110
54215SOL     OW64483  10.212   0.529  14.503
54215SOL    HW164484  10.148   0.528  14.574
54215SOL    HW264485  10.257   0.613  14.513
54216SOL     OW64486   2.008   7.656   6.188
54216SOL    HW164487   2.027   7.706   6.268
54216SOL    HW264488   2.073   7.586   6.188
54217SOL     OW64489   3.042   8.262   5.632
54217SOL    HW164490   2.950   8.280   5.614
54217SOL    HW264491   3.051   8.167   5.622
54218SOL     OW64492   4.578   1.772   5.548
54218SOL    HW164493   4.618   1.816   5.623
54218SOL    HW264494   4.648   1.714   5.515
54219SOL     OW64495  14.027   2.529  11.372
54219SOL    HW164496  14.056   2.551  11.284
54219SOL    HW264497  14.095   2.470  11.406
54220SOL     OW64498  13.080  13.018   4.685
54220SOL    HW164499  12.985  13.013   4.696
54220SOL    HW264500  13.107  12.928   4.666
54221SOL     OW64501  12.684   7.407   8.490
54221SOL    HW164502  12.637   7.353   8.427
54221SOL    HW264503  12.728   7.344   8.548
54222SOL     OW64504  13.733   1.040   4.969
54222SOL    HW164505  13.717   1.123   4.924
54222SOL    HW264506  13.817   1.052   5.013
54223SOL     OW64507   1.897   3.173   7.104
54223SOL    HW164508   1.849   3.252   7.128
54223SOL    HW264509   1.856   3.143   7.024
54224SOL     OW64510   0.886  10.583   9.541
54224SOL    HW164511   0.792  10.570   9.526
54224SOL    HW264512   0.893  10.673   9.574
54225SOL     OW64513   4.752   7.566   8.333
54225SOL    HW164514   4.767   7.624   8.408
54225SOL    HW264515   4.797   7.610   8.260
54226SOL     OW64516   7.111   3.170   6.627
54226SOL    HW164517   7.157   3.088   6.605
54226SOL    HW264518   7.028   3.163   6.581
54227SOL     OW64519   8.591  10.777   6.872
54227SOL    HW164520   8.588  10.741   6.784
54227SOL    HW264521   8.547  10.712   6.926
54228SOL     OW64522   9.327   6.993   3.707
54228SOL    HW164523   9.271   6.933   3.756
54228SOL    HW264524   9.412   6.949   3.703
54229SOL     OW64525   4.546   6.401   9.577
54229SOL    HW164526   4.452   6.408   9.557
54229SOL    HW264527   4.589   6.440   9.501
54230SOL     OW64528   1.025  14.839   2.216
54230SOL    HW164529   0.940  14.868   2.183
54230SOL    HW264530   1.040  14.756   2.171
54231SOL     OW64531  11.048   8.152   6.698
54231SOL    HW164532  10.996   8.199   6.763
54231SOL    HW264533  10.983   8.119   6.636
54232SOL     OW64534  11.935  11.801   3.075
54232SOL    HW164535  11.919  11.742   3.000
54232SOL    HW264536  11.894  11.883   3.050
54233SOL     OW64537  12.134   5.062  10.408
54233SOL    HW164538  12.161   5.076  10.499
54233SOL    HW264539  12.079   4.984  10.412
54234SOL     OW64540  10.736   9.003   6.055
54234SOL    HW164541  10.711   8.972   6.142
54234SOL    HW264542  10.704   9.093   6.051
54235SOL     OW64543   9.138   1.236   3.186
54235SOL    HW164544   9.146   1.330   3.199
54235SOL    HW264545   9.091   1.226   3.104
54236SOL     OW64546   4.065  10.913   2.575
54236SOL    HW164547   4.154  10.948   2.580
54236SOL    HW264548   4.055  10.862   2.655
54237SOL     OW64549  13.885   5.534   8.548
54237SOL    HW164550  13.808   5.547   8.493
54237SOL    HW264551  13.848   5.510   8.634
54238SOL     OW64552  10.709   5.570   4.726
54238SOL    HW164553  10.745   5.483   4.748
54238SOL    HW264554  10.636   5.582   4.787
54239SOL     OW64555  12.734   3.349   0.846
54239SOL    HW164556  12.644   3.379   0.856
54239SOL    HW264557  12.735   3.263   0.888
54240SOL     OW64558   2.047   5.986   5.419
54240SOL    HW164559   2.020   5.949   5.503
54240SOL    HW264560   2.025   5.918   5.355
54241SOL     OW64561  13.844  13.346  10.037
54241SOL    HW164562  13.812  13.409   9.973
54241SOL    HW264563  13.905  13.395  10.092
54242SOL     OW64564  12.627  11.398  11.790
54242SOL    HW164565  12.670  11.377  11.874
54242SOL    HW264566  12.537  11.418  11.814
54243SOL     OW64567  11.901  13.595   2.856
54243SOL    HW164568  11.988  13.636   2.853
54243SOL    HW264569  11.912  13.511   2.813
54244SOL     OW64570   0.418   7.911   4.770
54244SOL    HW164571   0.444   7.938   4.859
54244SOL    HW264572   0.501   7.909   4.721
54245SOL     OW64573   2.882   5.075  10.711
54245SOL    HW164574   2.870   4.999  10.654
54245SOL    HW264575   2.802   5.126  10.700
54246SOL     OW64576  11.831   2.551  11.527
54246SOL    HW164577  11.849   2.521  11.437
54246SOL    HW264578  11.747   2.512  11.549
54247SOL     OW64579   6.293   0.282   5.446
54247SOL    HW164580   6.384   0.260   5.426
54247SOL    HW264581   6.272   0.353   5.385
54248SOL     OW64582   7.797   9.619   4.800
54248SOL    HW164583   7.748   9.540   4.777
54248SOL    HW264584   7.751   9.689   4.752
54249SOL     OW64585  10.418   6.894   1.252
54249SOL    HW164586  10.453   6.805   1.248
54249SOL    HW264587  10.495   6.950   1.241
54250SOL     OW64588  13.653  12.899   8.121
54250SOL    HW164589  13.632  12.806   8.118
54250SOL    HW264590  13.577  12.942   8.081
54251SOL     OW64591  12.844   1.541   2.173
54251SOL    HW164592  12.906   1.475   2.143
54251SOL    HW264593  12.760   1.514   2.135
54252SOL     OW64594  13.910  14.218   6.783
54252SOL    HW164595  13.998  14.255   6.794
54252SOL    HW264596  13.901  14.155   6.854
54253SOL     OW64597  13.867  10.140   5.983
54253SOL    HW164598  13.785  10.157   5.936
54253SOL    HW264599  13.858  10.050   6.015
54254SOL     OW64600  10.547  10.969   2.869
54254SOL    HW164601  10.593  11.021   2.803
54254SOL    HW264602  10.457  11.004   2.869
54255SOL     OW64603  12.807   4.899   7.790
54255SOL    HW164604  12.807   4.961   7.864
54255SOL    HW264605  12.877   4.838   7.811
54256SOL     OW64606  14.753   2.434   5.962
54256SOL    HW164607  14.716   2.348   5.983
54256SOL    HW264608  14.788   2.465   6.046
54257SOL     OW64609  10.463   2.415   9.027
54257SOL    HW164610  10.425   2.494   8.988
54257SOL    HW264611  10.550   2.442   9.055
54258SOL     OW64612  12.796  12.011   9.283
54258SOL    HW164613  12.775  11.956   9.207
54258SOL    HW264614  12.891  12.007   9.290
54259SOL     OW64615   4.723  12.288  11.120
54259SOL    HW164616   4.670  12.314  11.195
54259SOL    HW264617   4.755  12.370  11.084
54260SOL     OW64618   0.537   6.530   8.085
54260SOL    HW164619   0.562   6.622   8.088
54260SOL    HW264620   0.616   6.484   8.056
54261SOL     OW64621   6.537   8.287  11.547
54261SOL    HW164622   6.568   8.377  11.559
54261SOL    HW264623   6.451   8.297  11.505
54262SOL     OW64624  12.300   5.281  12.994
54262SOL    HW164625  12.248   5.260  12.916
54262SOL    HW264626  12.265   5.366  13.023
54263SOL     OW64627   1.424   9.848   2.056
54263SOL    HW164628   1.384   9.800   2.128
54263SOL    HW264629   1.426   9.785   1.984
54264SOL     OW64630   4.949   0.130   4.475
54264SOL    HW164631   4.980   0.040   4.463
54264SOL    HW264632   4.900   0.149   4.395
54265SOL     OW64633   8.147   3.175   2.707
54265SOL    HW164634   8.099   3.250   2.741
54265SOL    HW264635   8.239   3.203   2.704
54266SOL     OW64636  12.825   8.532   1.468
54266SOL    HW164637  12.794   8.606   1.415
54266SOL    HW264638  12.775   8.457   1.434
54267SOL     OW64639   5.034   6.433  13.789
54267SOL    HW164640   4.955   6.486  13.802
54267SOL    HW264641   5.017   6.353  13.838
54268SOL     OW64642   0.075   3.088   7.351
54268SOL    HW164643   0.154   3.052   7.310
54268SOL    HW264644   0.105   3.119   7.437
54269SOL     OW64645   8.320   9.104   4.480
54269SOL    HW164646   8.358   9.021   4.451
54269SOL    HW264647   8.228   9.097   4.454
54270SOL     OW64648   6.213   4.131   3.373
54270SOL    HW164649   6.221   4.063   3.306
54270SOL    HW264650   6.186   4.209   3.326
54271SOL     OW64651   4.770  12.071   4.205
54271SOL    HW164652   4.820  11.997   4.239
54271SOL    HW264653   4.836  12.132   4.173
54272SOL     OW64654  11.247   0.591   0.118
54272SOL    HW164655  11.332   0.581   0.075
54272SOL    HW264656  11.261   0.662   0.181
54273SOL     OW64657  12.484  14.769   5.877
54273SOL    HW164658  12.471  14.779   5.971
54273SOL    HW264659  12.572  14.805   5.861
54274SOL     OW64660  10.142   6.422  14.301
54274SOL    HW164661  10.132   6.383  14.388
54274SOL    HW264662  10.088   6.367  14.245
54275SOL     OW64663   6.760   3.297  14.237
54275SOL    HW164664   6.783   3.325  14.326
54275SOL    HW264665   6.675   3.254  14.247
54276SOL     OW64666   7.902   5.490  11.256
54276SOL    HW164667   7.810   5.512  11.275
54276SOL    HW264668   7.900   5.396  11.236
54277SOL     OW64669   7.949   6.080   4.363
54277SOL    HW164670   7.870   6.034   4.391
54277SOL    HW264671   7.982   6.122   4.442
54278SOL     OW64672  14.550   0.777   2.666
54278SOL    HW164673  14.495   0.713   2.711
54278SOL    HW264674  14.488   0.839   2.628
54279SOL     OW64675   3.396   7.272   3.674
54279SOL    HW164676   3.331   7.218   3.629
54279SOL    HW264677   3.391   7.245   3.766
54280SOL     OW64678   1.113   8.635   2.317
54280SOL    HW164679   1.085   8.694   2.387
54280SOL    HW264680   1.031   8.604   2.279
54281SOL     OW64681  12.883   5.820   7.874
54281SOL    HW164682  12.975   5.811   7.847
54281SOL    HW264683  12.833   5.812   7.793
54282SOL     OW64684   7.846   8.114  12.993
54282SOL    HW164685   7.806   8.043  12.943
54282SOL    HW264686   7.856   8.185  12.931
54283SOL     OW64687   9.470  12.093   0.745
54283SOL    HW164688   9.442  12.176   0.784
54283SOL    HW264689   9.435  12.026   0.805
54284SOL     OW64690  10.559  10.441   9.782
54284SOL    HW164691  10.649  10.424   9.752
54284SOL    HW264692  10.539  10.529   9.749
54285SOL     OW64693   6.226   3.574  12.459
54285SOL    HW164694   6.130   3.567  12.458
54285SOL    HW264695   6.256   3.483  12.456
54286SOL     OW64696   4.646   7.346   8.137
54286SOL    HW164697   4.613   7.373   8.223
54286SOL    HW264698   4.572   7.356   8.079
54287SOL     OW64699   6.656   6.861   3.325
54287SOL    HW164700   6.634   6.954   3.337
54287SOL    HW264701   6.583   6.814   3.365
54288SOL     OW64702  13.229  12.734   3.267
54288SOL    HW164703  13.286  12.802   3.301
54288SOL    HW264704  13.225  12.751   3.172
54289SOL     OW64705  10.061  10.228   0.506
54289SOL    HW164706  10.067  10.306   0.450
54289SOL    HW264707  10.149  10.219   0.543
54290SOL     OW64708   4.367   3.520   3.658
54290SOL    HW164709   4.309   3.579   3.610
54290SOL    HW264710   4.342   3.433   3.628
54291SOL     OW64711   3.636   7.766   0.207
54291SOL    HW164712   3.647   7.771   0.302
54291SOL    HW264713   3.546   7.794   0.191
54292SOL     OW64714  11.462   0.904   1.266
54292SOL    HW164715  11.446   0.846   1.341
54292SOL    HW264716  11.490   0.846   1.196
54293SOL     OW64717   9.486   2.003   6.675
54293SOL    HW164718   9.557   1.973   6.618
54293SOL    HW264719   9.504   2.096   6.689
54294SOL     OW64720   4.806  11.176   3.602
54294SOL    HW164721   4.797  11.271   3.598
54294SOL    HW264722   4.857  11.160   3.682
54295SOL     OW64723   8.266   0.053   1.551
54295SOL    HW164724   8.319   0.030   1.627
54295SOL    HW264725   8.322   0.112   1.500
54296SOL     OW64726   6.645  11.539   7.267
54296SOL    HW164727   6.610  11.591   7.195
54296SOL    HW264728   6.712  11.594   7.307
54297SOL     OW64729  10.385   2.963   6.520
54297SOL    HW164730  10.347   3.050   6.512
54297SOL    HW264731  10.386   2.946   6.614
54298SOL     OW64732   0.447   3.745  10.321
54298SOL    HW164733   0.476   3.836  10.321
54298SOL    HW264734   0.420   3.729  10.412
54299SOL     OW64735   3.799  14.172   9.850
54299SOL    HW164736   3.847  14.254   9.857
54299SOL    HW264737   3.829  14.121   9.926
54300SOL     OW64738   2.529  10.063  12.475
54300SOL    HW164739   2.489  10.069  12.561
54300SOL    HW264740   2.615  10.104  12.485
54301SOL     OW64741  13.260   0.919   2.776
54301SOL    HW164742  13.296   0.853   2.834
54301SOL    HW264743  13.187   0.957   2.825
54302SOL     OW64744   4.725   7.357   1.834
54302SOL    HW164745   4.718   7.452   1.818
54302SOL    HW264746   4.644   7.335   1.879
54303SOL     OW64747   2.341  14.719  13.980
54303SOL    HW164748   2.272  14.785  13.989
54303SOL    HW264749   2.345  14.702  13.886
54304SOL     OW64750   2.987   5.217   5.089
54304SOL    HW164751   3.043   5.168   5.028
54304SOL    HW264752   3.005   5.177   5.175
54305SOL     OW64753   9.898   5.878   1.452
54305SOL    HW164754   9.944   5.961   1.463
54305SOL    HW264755   9.806   5.903   1.443
54306SOL     OW64756   6.593   7.147   3.378
54306SOL    HW164757   6.661   7.214   3.378
54306SOL    HW264758   6.564   7.141   3.469
54307SOL     OW64759   9.122  12.608  14.533
54307SOL    HW164760   9.126  12.679  14.596
54307SOL    HW264761   9.210  12.601  14.498
54308SOL     OW64762   2.465  12.777   0.807
54308SOL    HW164763   2.384  12.752   0.763
54308SOL    HW264764   2.439  12.797   0.896
54309SOL     OW64765   8.194   2.446  14.008
54309SOL    HW164766   8.252   2.514  14.042
54309SOL    HW264767   8.135   2.493  13.948
54310SOL     OW64768   4.767   1.245  10.076
54310SOL    HW164769   4.759   1.171  10.016
54310SOL    HW264770   4.839   1.297  10.040
54311SOL     OW64771   2.442   6.510   0.991
54311SOL    HW164772   2.398   6.425   0.987
54311SOL    HW264773   2.373   6.571   1.018
54312SOL     OW64774  10.562   0.906  12.298
54312SOL    HW164775  10.497   0.841  12.270
54312SOL    HW264776  10.642   0.856  12.313
54313SOL     OW64777   4.112   9.691   8.959
54313SOL    HW164778   4.161   9.648   9.029
54313SOL    HW264779   4.156   9.664   8.879
54314SOL     OW64780   3.748   3.893  10.954
54314SOL    HW164781   3.682   3.839  10.911
54314SOL    HW264782   3.780   3.951  10.885
54315SOL     OW64783   4.668   7.386   0.642
54315SOL    HW164784   4.666   7.369   0.547
54315SOL    HW264785   4.709   7.309   0.679
54316SOL     OW64786  11.199   9.666   6.941
54316SOL    HW164787  11.118   9.635   6.981
54316SOL    HW264788  11.236   9.588   6.898
54317SOL     OW64789  11.542   6.921   5.863
54317SOL    HW164790  11.617   6.891   5.915
54317SOL    HW264791  11.476   6.852   5.875
54318SOL     OW64792   6.990  13.241  12.928
54318SOL    HW164793   7.026  13.184  12.859
54318SOL    HW264794   6.954  13.316  12.880
54319SOL     OW64795   0.525   1.535   8.070
54319SOL    HW164796   0.544   1.504   7.981
54319SOL    HW264797   0.578   1.479   8.127
54320SOL     OW64798   7.547  12.993   7.300
54320SOL    HW164799   7.590  12.908   7.294
54320SOL    HW264800   7.560  13.021   7.391
54321SOL     OW64801   2.898   5.716   1.095
54321SOL    HW164802   2.853   5.632   1.087
54321SOL    HW264803   2.844   5.766   1.157
54322SOL     OW64804   2.184   9.525   1.468
54322SOL    HW164805   2.136   9.546   1.548
54322SOL    HW264806   2.140   9.447   1.433
54323SOL     OW64807   4.614  11.306   6.324
54323SOL    HW164808   4.551  11.318   6.253
54323SOL    HW264809   4.580  11.359   6.395
54324SOL     OW64810  12.466   3.573  13.271
54324SOL    HW164811  12.540   3.549  13.215
54324SOL    HW264812  12.468   3.669  13.274
54325SOL     OW64813   0.073  13.294   5.395
54325SOL    HW164814   0.088  13.223   5.457
54325SOL    HW264815   0.080  13.374   5.447
54326SOL     OW64816  10.044   7.824   9.246
54326SOL    HW164817   9.996   7.853   9.324
54326SOL    HW264818  10.001   7.743   9.219
54327SOL     OW64819   5.586  10.789   4.283
54327SOL    HW164820   5.614  10.817   4.196
54327SOL    HW264821   5.619  10.700   4.292
54328SOL     OW64822  11.171   5.907   0.453
54328SOL    HW164823  11.210   5.962   0.384
54328SOL    HW264824  11.124   5.839   0.405
54329SOL     OW64825   9.020   2.048   7.401
54329SOL    HW164826   8.952   2.083   7.345
54329SOL    HW264827   9.051   2.124   7.452
54330SOL     OW64828  14.292   7.672   5.523
54330SOL    HW164829  14.292   7.660   5.618
54330SOL    HW264830  14.200   7.690   5.501
54331SOL     OW64831   8.186   1.449   4.146
54331SOL    HW164832   8.190   1.541   4.171
54331SOL    HW264833   8.111   1.414   4.195
54332SOL     OW64834   4.773   8.484  12.372
54332SOL    HW164835   4.686   8.467  12.335
54332SOL    HW264836   4.756   8.513  12.461
54333SOL     OW64837   7.058  14.482  13.554
54333SOL    HW164838   7.143  14.526  13.548
54333SOL    HW264839   7.073  14.407  13.612
54334SOL     OW64840   1.771  12.766   2.202
54334SOL    HW164841   1.726  12.844   2.169
54334SOL    HW264842   1.795  12.788   2.291
54335SOL     OW64843   7.707  11.374   5.393
54335SOL    HW164844   7.775  11.367   5.460
54335SOL    HW264845   7.627  11.350   5.438
54336SOL     OW64846   7.658  10.227   4.628
54336SOL    HW164847   7.608  10.262   4.555
54336SOL    HW264848   7.596  10.228   4.702
54337SOL     OW64849   6.555   7.694   1.619
54337SOL    HW164850   6.493   7.672   1.688
54337SOL    HW264851   6.552   7.790   1.614
54338SOL     OW64852   0.512   2.606   8.881
54338SOL    HW164853   0.489   2.537   8.944
54338SOL    HW264854   0.605   2.594   8.865
54339SOL     OW64855   2.107   9.450   2.834
54339SOL    HW164856   2.088   9.381   2.897
54339SOL    HW264857   2.202   9.461   2.838
54340SOL     OW64858   9.645  11.128  13.659
54340SOL    HW164859   9.717  11.070  13.633
54340SOL    HW264860   9.686  11.195  13.713
54341SOL     OW64861  12.919   7.230   7.802
54341SOL    HW164862  12.850   7.296   7.789
54341SOL    HW264863  12.874   7.158   7.846
54342SOL     OW64864   6.791   6.324  11.605
54342SOL    HW164865   6.825   6.250  11.655
54342SOL    HW264866   6.732   6.369  11.665
54343SOL     OW64867   1.702  12.774   0.876
54343SOL    HW164868   1.699  12.866   0.849
54343SOL    HW264869   1.718  12.778   0.971
54344SOL     OW64870   9.677   9.927   4.772
54344SOL    HW164871   9.754   9.964   4.816
54344SOL    HW264872   9.707   9.908   4.684
54345SOL     OW64873   7.253  12.864   6.446
54345SOL    HW164874   7.287  12.917   6.519
54345SOL    HW264875   7.200  12.797   6.487
54346SOL     OW64876   7.939   4.353   6.758
54346SOL    HW164877   7.905   4.372   6.671
54346SOL    HW264878   8.012   4.293   6.743
54347SOL     OW64879   1.357   6.035   0.034
54347SOL    HW164880   1.325   6.123   0.052
54347SOL    HW264881   1.411   6.044  14.837
54348SOL     OW64882   9.554  10.621   4.238
54348SOL    HW164883   9.465  10.642   4.265
54348SOL    HW264884   9.608  10.689   4.279
54349SOL     OW64885  11.718  10.333   1.584
54349SOL    HW164886  11.700  10.367   1.671
54349SOL    HW264887  11.797  10.381   1.556
54350SOL     OW64888   4.200  10.911   4.238
54350SOL    HW164889   4.179  10.983   4.179
54350SOL    HW264890   4.116  10.870   4.257
54351SOL     OW64891   6.903  14.240  10.661
54351SOL    HW164892   6.977  14.215  10.716
54351SOL    HW264893   6.878  14.160  10.615
54352SOL     OW64894   7.770  10.550   4.923
54352SOL    HW164895   7.679  10.572   4.939
54352SOL    HW264896   7.820  10.614   4.974
54353SOL     OW64897   9.717   6.804  13.157
54353SOL    HW164898   9.685   6.749  13.229
54353SOL    HW264899   9.651   6.872  13.147
54354SOL     OW64900  13.352   5.131   9.036
54354SOL    HW164901  13.267   5.134   8.990
54354SOL    HW264902  13.342   5.061   9.100
54355SOL     OW64903  10.898  10.237  10.004
54355SOL    HW164904  10.845  10.270  10.077
54355SOL    HW264905  10.859  10.275   9.926
54356SOL     OW64906   1.868  10.286  12.002
54356SOL    HW164907   1.834  10.223  11.939
54356SOL    HW264908   1.911  10.233  12.069
54357SOL     OW64909  10.527  12.852   0.225
54357SOL    HW164910  10.469  12.852   0.149
54357SOL    HW264911  10.469  12.835   0.299
54358SOL     OW64912  10.947  12.329   0.792
54358SOL    HW164913  10.936  12.424   0.778
54358SOL    HW264914  10.859  12.294   0.781
54359SOL     OW64915  14.335   9.430   8.737
54359SOL    HW164916  14.415   9.388   8.706
54359SOL    HW264917  14.296   9.468   8.657
54360SOL     OW64918   1.125   9.681  11.227
54360SOL    HW164919   1.159   9.760  11.184
54360SOL    HW264920   1.164   9.682  11.314
54361SOL     OW64921   8.391  12.326   3.393
54361SOL    HW164922   8.314  12.295   3.441
54361SOL    HW264923   8.454  12.350   3.462
54362SOL     OW64924   3.627  12.974   7.778
54362SOL    HW164925   3.656  13.043   7.719
54362SOL    HW264926   3.600  12.903   7.719
54363SOL     OW64927   0.342   6.894   6.438
54363SOL    HW164928   0.388   6.864   6.516
54363SOL    HW264929   0.313   6.814   6.394
54364SOL     OW64930   7.517   1.714   0.454
54364SOL    HW164931   7.501   1.800   0.493
54364SOL    HW264932   7.471   1.717   0.370
54365SOL     OW64933   7.502   7.228   7.754
54365SOL    HW164934   7.546   7.157   7.706
54365SOL    HW264935   7.567   7.257   7.818
54366SOL     OW64936   7.226   4.432   1.543
54366SOL    HW164937   7.313   4.396   1.558
54366SOL    HW264938   7.242   4.517   1.502
54367SOL     OW64939  13.791   6.948  14.807
54367SOL    HW164940  13.858   6.967  14.872
54367SOL    HW264941  13.717   7.003  14.832
54368SOL     OW64942   7.173   6.770  10.347
54368SOL    HW164943   7.250   6.713  10.357
54368SOL    HW264944   7.179   6.803  10.258
54369SOL     OW64945  11.635   2.249  10.385
54369SOL    HW164946  11.605   2.324  10.436
54369SOL    HW264947  11.637   2.177  10.447
54370SOL     OW64948   3.809  11.331   8.124
54370SOL    HW164949   3.761  11.301   8.201
54370SOL    HW264950   3.743  11.378   8.073
54371SOL     OW64951   3.379  13.860  11.800
54371SOL    HW164952   3.414  13.772  11.811
54371SOL    HW264953   3.286  13.848  11.785
54372SOL     OW64954   7.998   5.603   8.718
54372SOL    HW164955   7.964   5.687   8.749
54372SOL    HW264956   7.989   5.607   8.623
54373SOL     OW64957   9.915   5.594  13.866
54373SOL    HW164958   9.902   5.501  13.846
54373SOL    HW264959   9.988   5.620  13.810
54374SOL     OW64960   0.041  12.186  13.391
54374SOL    HW164961   0.023  12.270  13.433
54374SOL    HW264962   0.104  12.143  13.449
54375SOL     OW64963   8.119   6.750   7.529
54375SOL    HW164964   8.162   6.677   7.574
54375SOL    HW264965   8.191   6.811   7.511
54376SOL     OW64966  13.020   1.302   6.637
54376SOL    HW164967  13.108   1.313   6.602
54376SOL    HW264968  13.009   1.207   6.647
54377SOL     OW64969   7.777  10.002   2.625
54377SOL    HW164970   7.733  10.082   2.653
54377SOL    HW264971   7.707   9.939   2.611
54378SOL     OW64972   4.329  14.140   4.853
54378SOL    HW164973   4.424  14.135   4.838
54378SOL    HW264974   4.321  14.150   4.948
54379SOL     OW64975  13.365   8.682   5.990
54379SOL    HW164976  13.386   8.767   5.950
54379SOL    HW264977  13.401   8.617   5.929
54380SOL     OW64978  12.383   3.375   9.293
54380SOL    HW164979  12.428   3.404   9.372
54380SOL    HW264980  12.349   3.455   9.254
54381SOL     OW64981   1.374  14.032   4.906
54381SOL    HW164982   1.289  14.077   4.907
54381SOL    HW264983   1.420  14.068   4.981
54382SOL     OW64984   4.333   2.594   6.347
54382SOL    HW164985   4.239   2.605   6.334
54382SOL    HW264986   4.342   2.570   6.439
54383SOL     OW64987   9.808   9.863  13.188
54383SOL    HW164988   9.799   9.770  13.211
54383SOL    HW264989   9.853   9.863  13.104
54384SOL     OW64990   6.223   5.104   2.118
54384SOL    HW164991   6.222   5.012   2.143
54384SOL    HW264992   6.235   5.103   2.023
54385SOL     OW64993  11.985   2.698  11.924
54385SOL    HW164994  11.917   2.674  11.861
54385SOL    HW264995  11.937   2.733  11.999
54386SOL     OW64996   4.771   1.269   0.536
54386SOL    HW164997   4.843   1.232   0.485
54386SOL    HW264998   4.789   1.242   0.626
54387SOL     OW64999   2.389   5.793   0.994
54387SOL    HW165000   2.437   5.725   1.042
54387SOL    HW265001   2.324   5.825   1.057
54388SOL     OW65002   3.146   6.161   5.323
54388SOL    HW165003   3.240   6.169   5.339
54388SOL    HW265004   3.112   6.113   5.399
54389SOL     OW65005   2.766   1.138   0.833
54389SOL    HW165006   2.843   1.178   0.792
54389SOL    HW265007   2.759   1.181   0.918
54390SOL     OW65008   3.033   9.233  11.809
54390SOL    HW165009   3.107   9.257  11.753
54390SOL    HW265010   3.066   9.161  11.862
54391SOL     OW65011  11.021  13.984   6.690
54391SOL    HW165012  11.051  14.031   6.768
54391SOL    HW265013  10.929  13.964   6.708
54392SOL     OW65014  11.533   0.144   1.847
54392SOL    HW165015  11.524   0.092   1.767
54392SOL    HW265016  11.459   0.205   1.844
54393SOL     OW65017  10.406   9.734   1.278
54393SOL    HW165018  10.319   9.702   1.257
54393SOL    HW265019  10.405   9.826   1.252
54394SOL     OW65020   4.043   1.934   3.781
54394SOL    HW165021   4.011   1.987   3.854
54394SOL    HW265022   4.119   1.888   3.816
54395SOL     OW65023   0.775  11.942  13.983
54395SOL    HW165024   0.797  11.907  13.897
54395SOL    HW265025   0.682  11.965  13.976
54396SOL     OW65026   5.701   9.453   7.931
54396SOL    HW165027   5.703   9.371   7.980
54396SOL    HW265028   5.608   9.470   7.915
54397SOL     OW65029   0.332   6.402   4.800
54397SOL    HW165030   0.391   6.390   4.726
54397SOL    HW265031   0.268   6.331   4.791
54398SOL     OW65032   1.001   0.922   3.858
54398SOL    HW165033   1.057   0.985   3.904
54398SOL    HW265034   0.912   0.953   3.875
54399SOL     OW65035   9.317  14.391   2.684
54399SOL    HW165036   9.389  14.388   2.747
54399SOL    HW265037   9.308  14.484   2.663
54400SOL     OW65038   7.306   4.593   6.693
54400SOL    HW165039   7.346   4.680   6.688
54400SOL    HW265040   7.269   4.589   6.781
54401SOL     OW65041   9.318   9.295   1.268
54401SOL    HW165042   9.236   9.301   1.218
54401SOL    HW265043   9.385   9.331   1.209
54402SOL     OW65044  13.010   7.455  11.349
54402SOL    HW165045  13.097   7.415  11.357
54402SOL    HW265046  12.953   7.382  11.326
54403SOL     OW65047   9.063   7.266   8.355
54403SOL    HW165048   9.107   7.303   8.432
54403SOL    HW265049   8.973   7.298   8.362
54404SOL     OW65050   0.708   8.262   9.444
54404SOL    HW165051   0.622   8.260   9.484
54404SOL    HW265052   0.767   8.291   9.514
54405SOL     OW65053   4.745  11.789   0.184
54405SOL    HW165054   4.702  11.833   0.258
54405SOL    HW265055   4.676  11.781   0.118
54406SOL     OW65056  11.814   8.108   6.278
54406SOL    HW165057  11.826   8.023   6.321
54406SOL    HW265058  11.775   8.086   6.193
54407SOL     OW65059   4.144  10.285   9.814
54407SOL    HW165060   4.130  10.211   9.872
54407SOL    HW265061   4.081  10.351   9.843
54408SOL     OW65062   5.544   8.148  10.101
54408SOL    HW165063   5.463   8.198  10.099
54408SOL    HW265064   5.607   8.202  10.054
54409SOL     OW65065   2.081  11.439   6.188
54409SOL    HW165066   1.989  11.423   6.210
54409SOL    HW265067   2.122  11.353   6.191
54410SOL     OW65068  14.796  13.931   9.980
54410SOL    HW165069  14.858  13.967   9.916
54410SOL    HW265070  14.850  13.908  10.056
54411SOL     OW65071   7.684  14.588  14.645
54411SOL    HW165072   7.660  14.668  14.600
54411SOL    HW265073   7.607  14.532  14.638
54412SOL     OW65074   8.114   9.073   5.952
54412SOL    HW165075   8.099   8.981   5.973
54412SOL    HW265076   8.034   9.117   5.980
54413SOL     OW65077   6.894  14.700   9.900
54413SOL    HW165078   6.834  14.771   9.875
54413SOL    HW265079   6.975  14.745   9.925
54414SOL     OW65080   4.790  14.218  10.363
54414SOL    HW165081   4.838  14.231  10.282
54414SOL    HW265082   4.698  14.235  10.340
54415SOL     OW65083  14.142   7.252  10.410
54415SOL    HW165084  14.166   7.344  10.416
54415SOL    HW265085  14.207   7.206  10.464
54416SOL     OW65086  11.757   5.481   4.507
54416SOL    HW165087  11.732   5.570   4.531
54416SOL    HW265088  11.787   5.488   4.416
54417SOL     OW65089   9.417   0.969   2.152
54417SOL    HW165090   9.442   0.895   2.207
54417SOL    HW265091   9.470   1.042   2.183
54418SOL     OW65092  13.756  12.874  13.157
54418SOL    HW165093  13.794  12.962  13.165
54418SOL    HW265094  13.812  12.829  13.094
54419SOL     OW65095   4.333  12.633  14.082
54419SOL    HW165096   4.254  12.683  14.065
54419SOL    HW265097   4.327  12.558  14.023
54420SOL     OW65098  13.314  10.191   9.122
54420SOL    HW165099  13.220  10.208   9.113
54420SOL    HW265100  13.328  10.110   9.073
54421SOL     OW65101  12.654   2.468   3.409
54421SOL    HW165102  12.607   2.393   3.374
54421SOL    HW265103  12.743   2.458   3.377
54422SOL     OW65104   5.723   8.948   8.153
54422SOL    HW165105   5.699   8.872   8.100
54422SOL    HW265106   5.818   8.949   8.152
54423SOL     OW65107   5.507   6.336  12.245
54423SOL    HW165108   5.546   6.325  12.332
54423SOL    HW265109   5.518   6.429  12.226
54424SOL     OW65110   7.939  11.910   9.967
54424SOL    HW165111   7.913  11.981   9.909
54424SOL    HW265112   8.029  11.890   9.943
54425SOL     OW65113  13.753  13.349  13.563
54425SOL    HW165114  13.694  13.320  13.493
54425SOL    HW265115  13.731  13.441  13.577
54426SOL     OW65116   6.019   6.512   9.464
54426SOL    HW165117   6.034   6.581   9.399
54426SOL    HW265118   6.104   6.472   9.477
54427SOL     OW65119  12.203   5.419   7.916
54427SOL    HW165120  12.282   5.470   7.934
54427SOL    HW265121  12.232   5.328   7.923
54428SOL     OW65122  13.977   6.710  14.295
54428SOL    HW165123  13.927   6.656  14.234
54428SOL    HW265124  14.067   6.681  14.285
54429SOL     OW65125   6.859   8.027   6.870
54429SOL    HW165126   6.944   8.006   6.909
54429SOL    HW265127   6.851   7.965   6.797
54430SOL     OW65128   2.430   5.762   2.689
54430SOL    HW165129   2.522   5.780   2.709
54430SOL    HW265130   2.431   5.678   2.644
54431SOL     OW65131  14.848   5.045   0.743
54431SOL    HW165132  14.766   5.037   0.694
54431SOL    HW265133  14.855   4.961   0.790
54432SOL     OW65134  14.357   4.847   2.479
54432SOL    HW165135  14.409   4.774   2.447
54432SOL    HW265136  14.362   4.840   2.574
54433SOL     OW65137  13.847   2.937   5.645
54433SOL    HW165138  13.791   3.005   5.683
54433SOL    HW265139  13.858   2.963   5.554
54434SOL     OW65140   6.724   0.947   1.398
54434SOL    HW165141   6.639   0.966   1.438
54434SOL    HW265142   6.787   0.993   1.451
54435SOL     OW65143  12.634   2.226   9.369
54435SOL    HW165144  12.565   2.198   9.429
54435SOL    HW265145  12.615   2.318   9.352
54436SOL     OW65146   8.724   7.681   7.759
54436SOL    HW165147   8.670   7.611   7.795
54436SOL    HW265148   8.792   7.696   7.825
54437SOL     OW65149  13.931   5.628  12.847
54437SOL    HW165150  13.957   5.568  12.776
54437SOL    HW265151  13.993   5.609  12.918
54438SOL     OW65152  13.953   3.068  10.957
54438SOL    HW165153  13.936   3.075  10.863
54438SOL    HW265154  14.047   3.054  10.963
54439SOL     OW65155   9.195   9.277  10.463
54439SOL    HW165156   9.143   9.196  10.466
54439SOL    HW265157   9.286   9.247  10.463
54440SOL     OW65158  10.849   6.274  10.414
54440SOL    HW165159  10.852   6.341  10.483
54440SOL    HW265160  10.940   6.245  10.405
54441SOL     OW65161  12.558   8.991   2.450
54441SOL    HW165162  12.652   9.008   2.455
54441SOL    HW265163  12.520   9.041   2.522
54442SOL     OW65164   8.889  12.040   2.783
54442SOL    HW165165   8.942  12.039   2.703
54442SOL    HW265166   8.915  12.121   2.827
54443SOL     OW65167  14.544   9.324   1.002
54443SOL    HW165168  14.499   9.269   1.066
54443SOL    HW265169  14.606   9.265   0.960
54444SOL     OW65170   3.477  14.879   6.351
54444SOL    HW165171   3.557   0.014   6.402
54444SOL    HW265172   3.447  14.794   6.383
54445SOL     OW65173  14.794   6.486   0.520
54445SOL    HW165174  14.791   6.445   0.606
54445SOL    HW265175  14.823   6.416   0.461
54446SOL     OW65176   1.253   1.895  13.293
54446SOL    HW165177   1.192   1.902  13.368
54446SOL    HW265178   1.197   1.908  13.216
54447SOL     OW65179  12.372  12.067   2.908
54447SOL    HW165180  12.350  12.081   2.816
54447SOL    HW265181  12.317  11.994   2.935
54448SOL     OW65182   7.242   1.477   4.531
54448SOL    HW165183   7.282   1.407   4.582
54448SOL    HW265184   7.168   1.436   4.486
54449SOL     OW65185   1.465  12.543  13.591
54449SOL    HW165186   1.468  12.636  13.611
54449SOL    HW265187   1.376  12.517  13.612
54450SOL     OW65188   4.956   8.178   9.704
54450SOL    HW165189   4.997   8.196   9.620
54450SOL    HW265190   4.868   8.147   9.683
54451SOL     OW65191  10.184   3.125   3.463
54451SOL    HW165192  10.147   3.196   3.411
54451SOL    HW265193  10.114   3.102   3.525
54452SOL     OW65194   7.720   2.687   6.971
54452SOL    HW165195   7.754   2.725   6.890
54452SOL    HW265196   7.778   2.721   7.039
54453SOL     OW65197   5.525  12.202  12.363
54453SOL    HW165198   5.432  12.221  12.350
54453SOL    HW265199   5.527  12.142  12.438
54454SOL     OW65200   2.549   5.430   8.743
54454SOL    HW165201   2.559   5.525   8.735
54454SOL    HW265202   2.527   5.400   8.655
54455SOL     OW65203   2.051  12.504   0.339
54455SOL    HW165204   1.970  12.554   0.347
54455SOL    HW265205   2.089  12.507   0.427
54456SOL     OW65206   2.267  12.971   2.995
54456SOL    HW165207   2.178  12.941   2.977
54456SOL    HW265208   2.321  12.927   2.930
54457SOL     OW65209  13.012   0.624   3.639
54457SOL    HW165210  13.023   0.625   3.544
54457SOL    HW265211  13.071   0.555   3.670
54458SOL     OW65212   1.278   0.755   0.143
54458SOL    HW165213   1.225   0.756   0.064
54458SOL    HW265214   1.289   0.662   0.163
54459SOL     OW65215   6.876  11.294  12.249
54459SOL    HW165216   6.843  11.320  12.334
54459SOL    HW265217   6.918  11.373  12.214
54460SOL     OW65218   6.999   1.038   6.399
54460SOL    HW165219   7.074   1.087   6.434
54460SOL    HW265220   7.033   0.949   6.384
54461SOL     OW65221   2.380   9.248   9.409
54461SOL    HW165222   2.286   9.231   9.406
54461SOL    HW265223   2.414   9.182   9.468
54462SOL     OW65224   5.965   0.067   7.428
54462SOL    HW165225   5.934   0.153   7.400
54462SOL    HW265226   5.909   0.005   7.383
54463SOL     OW65227   3.858   9.371  10.832
54463SOL    HW165228   3.820   9.457  10.851
54463SOL    HW265229   3.861   9.367  10.736
54464SOL     OW65230  11.501   5.954   5.517
54464SOL    HW165231  11.494   5.998   5.432
54464SOL    HW265232  11.509   5.861   5.495
54465SOL     OW65233   4.972  12.900  11.722
54465SOL    HW165234   5.008  12.935  11.804
54465SOL    HW265235   5.028  12.825  11.701
54466SOL     OW65236   0.966   3.670   9.092
54466SOL    HW165237   0.974   3.608   9.020
54466SOL    HW265238   0.889   3.639   9.141
54467SOL     OW65239  10.660   1.332   4.463
54467SOL    HW165240  10.697   1.412   4.501
54467SOL    HW265241  10.679   1.338   4.370
54468SOL     OW65242  11.182  10.304  14.525
54468SOL    HW165243  11.123  10.377  14.543
54468SOL    HW265244  11.130  10.226  14.543
54469SOL     OW65245   6.450  13.241  11.052
54469SOL    HW165246   6.473  13.176  11.119
54469SOL    HW265247   6.384  13.297  11.095
54470SOL     OW65248   6.066   0.798   1.960
54470SOL    HW165249   6.004   0.727   1.979
54470SOL    HW265250   6.021   0.877   1.990
54471SOL     OW65251   7.900   0.152  11.151
54471SOL    HW165252   7.962   0.082  11.127
54471SOL    HW265253   7.952   0.213  11.203
54472SOL     OW65254  14.070   3.487  12.753
54472SOL    HW165255  14.113   3.410  12.791
54472SOL    HW265256  14.026   3.529  12.827
54473SOL     OW65257   8.722   7.144   4.480
54473SOL    HW165258   8.738   7.114   4.570
54473SOL    HW265259   8.807   7.139   4.437
54474SOL     OW65260   3.934   6.176   4.606
54474SOL    HW165261   4.005   6.235   4.581
54474SOL    HW265262   3.875   6.231   4.658
54475SOL     OW65263  13.356   5.982   1.728
54475SOL    HW165264  13.268   5.980   1.691
54475SOL    HW265265  13.378   5.890   1.743
54476SOL     OW65266   1.888   2.066   1.545
54476SOL    HW165267   1.821   2.112   1.495
54476SOL    HW265268   1.915   1.994   1.488
54477SOL     OW65269   7.691   0.411   4.095
54477SOL    HW165270   7.608   0.366   4.086
54477SOL    HW265271   7.736   0.364   4.166
54478SOL     OW65272   2.047   3.660   1.654
54478SOL    HW165273   1.968   3.649   1.708
54478SOL    HW265274   2.119   3.659   1.717
54479SOL     OW65275   3.860   2.564   7.483
54479SOL    HW165276   3.815   2.644   7.455
54479SOL    HW265277   3.901   2.530   7.403
54480SOL     OW65278  12.030   9.383   7.994
54480SOL    HW165279  11.976   9.454   8.030
54480SOL    HW265280  11.974   9.344   7.926
54481SOL     OW65281   2.466   4.176  11.758
54481SOL    HW165282   2.547   4.133  11.729
54481SOL    HW265283   2.411   4.177  11.680
54482SOL     OW65284   3.157   8.052   7.945
54482SOL    HW165285   3.228   7.988   7.936
54482SOL    HW265286   3.197   8.125   7.993
54483SOL     OW65287  14.744   3.128  12.356
54483SOL    HW165288  14.658   3.151  12.394
54483SOL    HW265289  14.789   3.082  12.427
54484SOL     OW65290   2.234   0.431   3.716
54484SOL    HW165291   2.322   0.399   3.735
54484SOL    HW265292   2.243   0.474   3.631
54485SOL     OW65293   2.045   6.005   0.061
54485SOL    HW165294   1.983   6.051   0.118
54485SOL    HW265295   2.055   6.063  14.868
54486SOL     OW65296   2.816   7.823   4.679
54486SOL    HW165297   2.802   7.747   4.622
54486SOL    HW265298   2.738   7.826   4.734
54487SOL     OW65299   1.173   1.647  12.023
54487SOL    HW165300   1.213   1.734  12.024
54487SOL    HW265301   1.150   1.633  11.931
54488SOL     OW65302  13.914   4.769   4.213
54488SOL    HW165303  13.894   4.863   4.210
54488SOL    HW265304  14.000   4.761   4.173
54489SOL     OW65305   7.122   7.523   1.493
54489SOL    HW165306   7.082   7.504   1.578
54489SOL    HW265307   7.073   7.469   1.431
54490SOL     OW65308  13.514  13.312   8.433
54490SOL    HW165309  13.457  13.240   8.405
54490SOL    HW265310  13.600  13.271   8.447
54491SOL     OW65311   1.483  11.231   2.186
54491SOL    HW165312   1.503  11.179   2.108
54491SOL    HW265313   1.390  11.254   2.176
54492SOL     OW65314  12.444   4.919   2.454
54492SOL    HW165315  12.498   4.992   2.423
54492SOL    HW265316  12.385   4.900   2.381
54493SOL     OW65317  10.991   6.183   0.470
54493SOL    HW165318  11.062   6.175   0.406
54493SOL    HW265319  10.944   6.099   0.465
54494SOL     OW65320   8.271   3.957   3.550
54494SOL    HW165321   8.209   3.888   3.525
54494SOL    HW265322   8.280   4.010   3.471
54495SOL     OW65323  14.876   3.345   9.836
54495SOL    HW165324   0.076   3.306   9.804
54495SOL    HW265325  14.810   3.277   9.826
54496SOL     OW65326   2.670   3.837  10.242
54496SOL    HW165327   2.739   3.776  10.217
54496SOL    HW265328   2.631   3.864  10.159
54497SOL     OW65329  11.420  13.386  12.476
54497SOL    HW165330  11.391  13.382  12.385
54497SOL    HW265331  11.479  13.461  12.479
54498SOL     OW65332   0.234   0.853  13.282
54498SOL    HW165333   0.227   0.847  13.377
54498SOL    HW265334   0.192   0.773  13.249
54499SOL     OW65335   1.769  12.355   8.861
54499SOL    HW165336   1.782  12.317   8.774
54499SOL    HW265337   1.743  12.281   8.916
54500SOL     OW65338   2.381   5.326   8.531
54500SOL    HW165339   2.412   5.244   8.492
54500SOL    HW265340   2.287   5.325   8.513
54501SOL     OW65341   7.830   6.681   1.951
54501SOL    HW165342   7.803   6.770   1.974
54501SOL    HW265343   7.833   6.681   1.855
54502SOL     OW65344   1.597  14.583   1.707
54502SOL    HW165345   1.558  14.498   1.728
54502SOL    HW265346   1.569  14.640   1.779
54503SOL     OW65347  12.830   9.241   9.356
54503SOL    HW165348  12.777   9.320   9.347
54503SOL    HW265349  12.767   9.171   9.370
54504SOL     OW65350   1.078   2.147  11.483
54504SOL    HW165351   1.054   2.224  11.535
54504SOL    HW265352   1.002   2.132  11.426
54505SOL     OW65353   6.441   8.043   6.712
54505SOL    HW165354   6.438   7.961   6.759
54505SOL    HW265355   6.492   8.102   6.768
54506SOL     OW65356  11.654  12.030   8.733
54506SOL    HW165357  11.594  11.998   8.799
54506SOL    HW265358  11.634  11.978   8.655
54507SOL     OW65359   0.415   4.056   0.317
54507SOL    HW165360   0.383   4.117   0.250
54507SOL    HW265361   0.337   4.029   0.365
54508SOL     OW65362  10.689   7.922   6.860
54508SOL    HW165363  10.698   8.016   6.875
54508SOL    HW265364  10.775   7.885   6.884
54509SOL     OW65365   0.211   8.589   8.658
54509SOL    HW165366   0.157   8.520   8.696
54509SOL    HW265367   0.219   8.654   8.728
54510SOL     OW65368  11.455   6.818  11.190
54510SOL    HW165369  11.404   6.745  11.155
54510SOL    HW265370  11.433   6.892  11.135
54511SOL     OW65371   0.157   7.263   3.465
54511SOL    HW165372   0.238   7.228   3.427
54511SOL    HW265373   0.126   7.325   3.399
54512SOL     OW65374  13.502  13.594  14.775
54512SOL    HW165375  13.515  13.680  14.735
54512SOL    HW265376  13.455  13.544  14.709
54513SOL     OW65377   8.156  14.559   3.115
54513SOL    HW165378   8.204  14.607   3.182
54513SOL    HW265379   8.202  14.577   3.033
54514SOL     OW65380  12.886  10.327  13.876
54514SOL    HW165381  12.923  10.273  13.806
54514SOL    HW265382  12.922  10.414  13.861
54515SOL     OW65383   9.741   1.181   4.144
54515SOL    HW165384   9.696   1.242   4.085
54515SOL    HW265385   9.741   1.225   4.229
54516SOL     OW65386  14.129  14.109  11.829
54516SOL    HW165387  14.035  14.124  11.833
54516SOL    HW265388  14.144  14.073  11.741
54517SOL     OW65389   4.519   8.924  13.937
54517SOL    HW165390   4.506   8.838  13.977
54517SOL    HW265391   4.481   8.917  13.850
54518SOL     OW65392  13.758   5.432  10.412
54518SOL    HW165393  13.847   5.399  10.425
54518SOL    HW265394  13.769   5.506  10.351
54519SOL     OW65395  10.646   2.785   9.003
54519SOL    HW165396  10.564   2.739   9.019
54519SOL    HW265397  10.644   2.808   8.911
54520SOL     OW65398   9.032  10.316   0.442
54520SOL    HW165399   8.960  10.378   0.448
54520SOL    HW265400   9.059  10.319   0.350
54521SOL     OW65401   5.246   3.123   4.924
54521SOL    HW165402   5.167   3.095   4.878
54521SOL    HW265403   5.230   3.216   4.945
54522SOL     OW65404   1.542   5.276   7.213
54522SOL    HW165405   1.596   5.245   7.285
54522SOL    HW265406   1.453   5.279   7.248
54523SOL     OW65407  14.425   9.381   6.118
54523SOL    HW165408  14.519   9.395   6.105
54523SOL    HW265409  14.390   9.468   6.137
54524SOL     OW65410   6.430  14.567   7.530
54524SOL    HW165411   6.391  14.545   7.446
54524SOL    HW265412   6.523  14.547   7.520
54525SOL     OW65413   1.711   0.720   4.364
54525SOL    HW165414   1.622   0.700   4.335
54525SOL    HW265415   1.763   0.721   4.284
54526SOL     OW65416  14.778   0.919   8.163
54526SOL    HW165417  14.738   0.995   8.120
54526SOL    HW265418  14.706   0.856   8.171
54527SOL     OW65419   5.756   8.540  12.854
54527SOL    HW165420   5.787   8.574  12.938
54527SOL    HW265421   5.835   8.505  12.812
54528SOL     OW65422   8.670   1.381   5.345
54528SOL    HW165423   8.608   1.453   5.358
54528SOL    HW265424   8.754   1.425   5.331
54529SOL     OW65425  13.836   7.066   3.373
54529SOL    HW165426  13.924   7.089   3.401
54529SOL    HW265427  13.779   7.095   3.444
54530SOL     OW65428   8.964   3.788   5.593
54530SOL    HW165429   8.933   3.813   5.680
54530SOL    HW265430   9.051   3.750   5.608
54531SOL     OW65431  10.076  12.774   9.802
54531SOL    HW165432  10.131  12.832   9.750
54531SOL    HW265433  10.018  12.832   9.851
54532SOL     OW65434   8.538   0.912  11.395
54532SOL    HW165435   8.545   0.998  11.436
54532SOL    HW265436   8.584   0.922  11.311
54533SOL     OW65437   0.511   6.269   6.286
54533SOL    HW165438   0.481   6.241   6.200
54533SOL    HW265439   0.530   6.363   6.276
54534SOL     OW65440  14.193   9.742  12.410
54534SOL    HW165441  14.211   9.699  12.494
54534SOL    HW265442  14.103   9.718  12.390
54535SOL     OW65443   8.763  13.104   1.724
54535SOL    HW165444   8.853  13.135   1.717
54535SOL    HW265445   8.768  13.028   1.783
54536SOL     OW65446   8.580  14.791  13.198
54536SOL    HW165447   8.637  14.741  13.257
54536SOL    HW265448   8.638  14.858  13.161
54537SOL     OW65449   9.531  14.807   3.995
54537SOL    HW165450   9.448  14.854   3.984
54537SOL    HW265451   9.509  14.715   3.984
54538SOL     OW65452   1.379   8.311  12.264
54538SOL    HW165453   1.395   8.359  12.345
54538SOL    HW265454   1.465   8.305  12.222
54539SOL     OW65455   5.398   4.530  10.803
54539SOL    HW165456   5.388   4.519  10.897
54539SOL    HW265457   5.371   4.620  10.786
54540SOL     OW65458   9.710   4.013   2.140
54540SOL    HW165459   9.629   4.062   2.122
54540SOL    HW265460   9.689   3.923   2.119
54541SOL     OW65461   7.822   8.097   5.284
54541SOL    HW165462   7.801   8.063   5.371
54541SOL    HW265463   7.856   8.022   5.236
54542SOL     OW65464   9.331   8.660   7.215
54542SOL    HW165465   9.402   8.607   7.252
54542SOL    HW265466   9.252   8.627   7.259
54543SOL     OW65467   4.302   6.814   4.876
54543SOL    HW165468   4.394   6.789   4.874
54543SOL    HW265469   4.294   6.884   4.812
54544SOL     OW65470   8.480   9.607  13.057
54544SOL    HW165471   8.568   9.637  13.075
54544SOL    HW265472   8.431   9.626  13.137
54545SOL     OW65473   6.359   8.497  10.579
54545SOL    HW165474   6.358   8.554  10.501
54545SOL    HW265475   6.431   8.531  10.632
54546SOL     OW65476   9.661  13.741   7.201
54546SOL    HW165477   9.724  13.673   7.180
54546SOL    HW265478   9.609  13.705   7.274
54547SOL     OW65479  12.239  11.549  12.192
54547SOL    HW165480  12.153  11.555  12.234
54547SOL    HW265481  12.238  11.616  12.124
54548SOL     OW65482   4.644   7.815   1.669
54548SOL    HW165483   4.569   7.854   1.625
54548SOL    HW265484   4.610   7.734   1.708
54549SOL     OW65485  12.428   3.046   2.166
54549SOL    HW165486  12.409   3.138   2.148
54549SOL    HW265487  12.452   3.043   2.258
54550SOL     OW65488   4.823   3.943   7.236
54550SOL    HW165489   4.728   3.939   7.239
54550SOL    HW265490   4.850   3.938   7.327
54551SOL     OW65491   6.060  12.387   3.323
54551SOL    HW165492   6.137  12.331   3.320
54551SOL    HW265493   6.094  12.476   3.307
54552SOL     OW65494   8.881   0.746   6.478
54552SOL    HW165495   8.949   0.749   6.411
54552SOL    HW265496   8.801   0.774   6.433
54553SOL     OW65497   2.984  14.566   1.696
54553SOL    HW165498   3.063  14.617   1.678
54553SOL    HW265499   2.913  14.616   1.657
54554SOL     OW65500   9.940  11.688  11.078
54554SOL    HW165501   9.857  11.721  11.111
54554SOL    HW265502   9.967  11.623  11.143
54555SOL     OW65503   8.393   2.574   1.457
54555SOL    HW165504   8.330   2.507   1.430
54555SOL    HW265505   8.364   2.599   1.545
54556SOL     OW65506   6.404   8.138   9.206
54556SOL    HW165507   6.361   8.211   9.162
54556SOL    HW265508   6.356   8.126   9.287
54557SOL     OW65509   2.281   5.385  12.310
54557SOL    HW165510   2.210   5.428  12.264
54557SOL    HW265511   2.254   5.293  12.314
54558SOL     OW65512  10.957  14.610   9.637
54558SOL    HW165513  10.885  14.652   9.591
54558SOL    HW265514  10.946  14.517   9.618
54559SOL     OW65515  10.294   1.422  12.194
54559SOL    HW165516  10.264   1.512  12.183
54559SOL    HW265517  10.243   1.372  12.130
54560SOL     OW65518  14.568   3.259   7.219
54560SOL    HW165519  14.499   3.312   7.257
54560SOL    HW265520  14.649   3.293   7.258
54561SOL     OW65521   1.270  14.591   9.730
54561SOL    HW165522   1.343  14.534   9.708
54561SOL    HW265523   1.300  14.643   9.804
54562SOL     OW65524   3.355  11.728   2.838
54562SOL    HW165525   3.417  11.678   2.890
54562SOL    HW265526   3.312  11.663   2.782
54563SOL     OW65527   0.458   0.000   0.933
54563SOL    HW165528   0.407   0.076   0.963
54563SOL    HW265529   0.411  14.807   0.969
54564SOL     OW65530  10.819  12.316   9.605
54564SOL    HW165531  10.790  12.310   9.514
54564SOL    HW265532  10.838  12.226   9.630
54565SOL     OW65533   1.793  13.299   7.530
54565SOL    HW165534   1.824  13.223   7.578
54565SOL    HW265535   1.705  13.314   7.563
54566SOL     OW65536   0.229   6.546  12.825
54566SOL    HW165537   0.275   6.462  12.830
54566SOL    HW265538   0.278   6.597  12.760
54567SOL     OW65539   2.580  11.809  13.577
54567SOL    HW165540   2.607  11.725  13.542
54567SOL    HW265541   2.660  11.862  13.577
54568SOL     OW65542   5.742   4.991  11.687
54568SOL    HW165543   5.698   5.021  11.607
54568SOL    HW265544   5.709   5.048  11.756
54569SOL     OW65545   2.764   2.165   7.424
54569SOL    HW165546   2.700   2.132   7.486
54569SOL    HW265547   2.748   2.116   7.343
54570SOL     OW65548  14.822   4.899   9.299
54570SOL    HW165549  14.748   4.958   9.313
54570SOL    HW265550  14.861   4.929   9.217
54571SOL     OW65551   0.617   4.318   5.772
54571SOL    HW165552   0.526   4.296   5.751
54571SOL    HW265553   0.615   4.345   5.864
54572SOL     OW65554   4.236   3.404   6.353
54572SOL    HW165555   4.147   3.378   6.377
54572SOL    HW265556   4.263   3.340   6.287
54573SOL     OW65557   9.234  10.978   3.075
54573SOL    HW165558   9.202  10.996   2.987
54573SOL    HW265559   9.191  11.044   3.130
54574SOL     OW65560   3.295  12.200  10.999
54574SOL    HW165561   3.388  12.222  10.996
54574SOL    HW265562   3.253  12.277  11.036
54575SOL     OW65563   8.626   1.689   4.333
54575SOL    HW165564   8.610   1.728   4.419
54575SOL    HW265565   8.582   1.746   4.271
54576SOL     OW65566  13.047   7.851  13.992
54576SOL    HW165567  13.007   7.934  13.967
54576SOL    HW265568  13.049   7.853  14.087
54577SOL     OW65569   7.606   5.973   9.494
54577SOL    HW165570   7.657   5.893   9.504
54577SOL    HW265571   7.616   6.019   9.578
54578SOL     OW65572   1.079  10.979  11.746
54578SOL    HW165573   1.131  10.900  11.758
54578SOL    HW265574   1.134  11.037  11.694
54579SOL     OW65575   8.353  13.115   0.914
54579SOL    HW165576   8.311  13.120   1.000
54579SOL    HW265577   8.379  13.023   0.905
54580SOL     OW65578   3.923   8.632   0.385
54580SOL    HW165579   3.938   8.721   0.354
54580SOL    HW265580   3.959   8.631   0.474
54581SOL     OW65581   6.374   6.478   7.237
54581SOL    HW165582   6.421   6.417   7.180
54581SOL    HW265583   6.341   6.423   7.308
54582SOL     OW65584  12.268   0.954   4.062
54582SOL    HW165585  12.213   0.918   4.131
54582SOL    HW265586  12.239   0.909   3.982
54583SOL     OW65587   3.697   4.751   3.338
54583SOL    HW165588   3.726   4.775   3.426
54583SOL    HW265589   3.752   4.803   3.279
54584SOL     OW65590  13.558  11.418   3.984
54584SOL    HW165591  13.547  11.409   4.079
54584SOL    HW265592  13.477  11.458   3.954
54585SOL     OW65593  13.942  13.878   5.093
54585SOL    HW165594  13.987  13.934   5.030
54585SOL    HW265595  13.954  13.789   5.060
54586SOL     OW65596   0.375   2.232  12.722
54586SOL    HW165597   0.387   2.287  12.799
54586SOL    HW265598   0.315   2.163  12.750
54587SOL     OW65599   1.118   0.557  10.571
54587SOL    HW165600   1.154   0.470  10.553
54587SOL    HW265601   1.164   0.586  10.650
54588SOL     OW65602   1.098   4.006   9.000
54588SOL    HW165603   1.036   4.078   9.014
54588SOL    HW265604   1.132   3.986   9.087
54589SOL     OW65605   1.562   0.360   2.682
54589SOL    HW165606   1.656   0.370   2.701
54589SOL    HW265607   1.558   0.284   2.624
54590SOL     OW65608   8.646   4.349  12.859
54590SOL    HW165609   8.588   4.321  12.789
54590SOL    HW265610   8.600   4.327  12.939
54591SOL     OW65611   4.007  12.147   2.406
54591SOL    HW165612   4.077  12.082   2.410
54591SOL    HW265613   3.968  12.134   2.320
54592SOL     OW65614   0.526  11.521  14.175
54592SOL    HW165615   0.502  11.434  14.143
54592SOL    HW265616   0.547  11.571  14.097
54593SOL     OW65617   7.393   3.929  14.691
54593SOL    HW165618   7.482   3.895  14.705
54593SOL    HW265619   7.363   3.956  14.778
54594SOL     OW65620   0.881  12.279  13.401
54594SOL    HW165621   0.966  12.324  13.398
54594SOL    HW265622   0.903  12.186  13.389
54595SOL     OW65623   4.632  14.769   9.930
54595SOL    HW165624   4.611  14.677   9.944
54595SOL    HW265625   4.641  14.805  10.018
54596SOL     OW65626   4.996   9.187  13.833
54596SOL    HW165627   4.988   9.126  13.759
54596SOL    HW265628   4.914   9.177  13.881
54597SOL     OW65629   7.639  13.423   0.861
54597SOL    HW165630   7.574  13.469   0.915
54597SOL    HW265631   7.595  13.342   0.835
54598SOL     OW65632   2.283   6.728  14.523
54598SOL    HW165633   2.248   6.763  14.441
54598SOL    HW265634   2.206   6.707  14.575
54599SOL     OW65635   1.157  12.388   1.509
54599SOL    HW165636   1.099  12.412   1.581
54599SOL    HW265637   1.183  12.471   1.469
54600SOL     OW65638  12.068   3.701  14.234
54600SOL    HW165639  12.071   3.767  14.303
54600SOL    HW265640  12.003   3.638  14.264
54601SOL     OW65641  12.234  14.305  11.477
54601SOL    HW165642  12.171  14.270  11.540
54601SOL    HW265643  12.233  14.400  11.493
54602SOL     OW65644   9.376   7.842   7.890
54602SOL    HW165645   9.439   7.880   7.829
54602SOL    HW265646   9.409   7.754   7.908
54603SOL     OW65647   2.951  11.712   1.376
54603SOL    HW165648   3.030  11.747   1.336
54603SOL    HW265649   2.975  11.623   1.403
54604SOL     OW65650  10.757   0.425  14.475
54604SOL    HW165651  10.674   0.436  14.521
54604SOL    HW265652  10.732   0.400  14.385
54605SOL     OW65653  10.719  10.901  13.780
54605SOL    HW165654  10.626  10.902  13.802
54605SOL    HW265655  10.757  10.973  13.830
54606SOL     OW65656  14.609   3.015   2.345
54606SOL    HW165657  14.563   3.055   2.419
54606SOL    HW265658  14.678   3.077   2.323
54607SOL     OW65659   9.067   8.458   1.536
54607SOL    HW165660   9.055   8.377   1.486
54607SOL    HW265661   9.040   8.436   1.625
54608SOL     OW65662   5.803  10.727  12.414
54608SOL    HW165663   5.851  10.697  12.491
54608SOL    HW265664   5.755  10.650  12.384
54609SOL     OW65665  12.816   4.174   0.533
54609SOL    HW165666  12.858   4.134   0.609
54609SOL    HW265667  12.740   4.220   0.569
54610SOL     OW65668  14.399   1.480   4.288
54610SOL    HW165669  14.381   1.387   4.303
54610SOL    HW265670  14.450   1.482   4.207
54611SOL     OW65671   1.785   2.999   4.794
54611SOL    HW165672   1.771   3.093   4.807
54611SOL    HW265673   1.854   2.976   4.857
54612SOL     OW65674   6.735   7.123  10.500
54612SOL    HW165675   6.754   7.094  10.410
54612SOL    HW265676   6.648   7.087  10.518
54613SOL     OW65677   2.693  11.310  11.174
54613SOL    HW165678   2.709  11.393  11.219
54613SOL    HW265679   2.761  11.306  11.107
54614SOL     OW65680   3.224   5.299   9.169
54614SOL    HW165681   3.145   5.353   9.167
54614SOL    HW265682   3.291   5.356   9.208
54615SOL     OW65683   9.396  12.227   2.996
54615SOL    HW165684   9.439  12.169   3.058
54615SOL    HW265685   9.426  12.198   2.910
54616SOL     OW65686   0.224   7.268   9.994
54616SOL    HW165687   0.152   7.318   9.956
54616SOL    HW265688   0.207   7.177   9.967
54617SOL     OW65689   3.263  10.156  10.651
54617SOL    HW165690   3.313  10.118  10.724
54617SOL    HW265691   3.330  10.175  10.584
54618SOL     OW65692  10.824  12.891   1.866
54618SOL    HW165693  10.795  12.908   1.955
54618SOL    HW265694  10.905  12.941   1.857
54619SOL     OW65695  11.898  12.471   6.809
54619SOL    HW165696  11.864  12.446   6.723
54619SOL    HW265697  11.871  12.400   6.867
54620SOL     OW65698   2.774   0.418   0.531
54620SOL    HW165699   2.816   0.343   0.573
54620SOL    HW265700   2.843   0.484   0.524
54621SOL     OW65701   4.857  10.423   4.944
54621SOL    HW165702   4.931  10.472   4.980
54621SOL    HW265703   4.892  10.335   4.930
54622SOL     OW65704  10.824   4.271   3.676
54622SOL    HW165705  10.876   4.196   3.705
54622SOL    HW265706  10.770   4.293   3.751
54623SOL     OW65707   1.185   6.842  13.077
54623SOL    HW165708   1.230   6.792  13.145
54623SOL    HW265709   1.203   6.934  13.098
54624SOL     OW65710   6.394   1.114   0.691
54624SOL    HW165711   6.407   1.044   0.628
54624SOL    HW265712   6.303   1.103   0.720
54625SOL     OW65713   2.617   9.093   8.973
54625SOL    HW165714   2.622   9.110   8.879
54625SOL    HW265715   2.582   9.175   9.010
54626SOL     OW65716   8.444   0.740   3.692
54626SOL    HW165717   8.469   0.742   3.600
54626SOL    HW265718   8.419   0.831   3.712
54627SOL     OW65719  11.732   2.491   1.003
54627SOL    HW165720  11.696   2.520   1.087
54627SOL    HW265721  11.827   2.496   1.016
54628SOL     OW65722  13.820   7.408   7.286
54628SOL    HW165723  13.870   7.422   7.206
54628SOL    HW265724  13.733   7.384   7.256
54629SOL     OW65725  14.859   7.121  12.597
54629SOL    HW165726  14.841   7.187  12.530
54629SOL    HW265727  14.783   7.062  12.593
54630SOL     OW65728  10.952   7.154   0.551
54630SOL    HW165729  11.047   7.145   0.564
54630SOL    HW265730  10.931   7.088   0.485
54631SOL     OW65731   1.624  11.074   8.826
54631SOL    HW165732   1.639  11.165   8.850
54631SOL    HW265733   1.610  11.029   8.910
54632SOL     OW65734   2.606   3.041  10.403
54632SOL    HW165735   2.608   2.965  10.461
54632SOL    HW265736   2.681   3.093  10.430
54633SOL     OW65737   5.834   4.130   7.902
54633SOL    HW165738   5.771   4.071   7.862
54633SOL    HW265739   5.801   4.218   7.882
54634SOL     OW65740   5.607  12.041   1.214
54634SOL    HW165741   5.665  12.081   1.149
54634SOL    HW265742   5.595  11.951   1.183
54635SOL     OW65743   5.083   6.969  12.782
54635SOL    HW165744   5.014   6.965  12.849
54635SOL    HW265745   5.092   7.062  12.763
54636SOL     OW65746   3.263   8.274   2.783
54636SOL    HW165747   3.233   8.290   2.694
54636SOL    HW265748   3.322   8.347   2.803
54637SOL     OW65749   5.855   5.219   4.083
54637SOL    HW165750   5.861   5.262   4.169
54637SOL    HW265751   5.946   5.206   4.057
54638SOL     OW65752  14.322   7.167   1.489
54638SOL    HW165753  14.317   7.106   1.562
54638SOL    HW265754  14.310   7.113   1.411
54639SOL     OW65755   5.651   4.913   6.006
54639SOL    HW165756   5.651   4.830   6.053
54639SOL    HW265757   5.724   4.962   6.044
54640SOL     OW65758  14.190   3.810   2.869
54640SOL    HW165759  14.121   3.807   2.935
54640SOL    HW265760  14.203   3.903   2.851
54641SOL     OW65761  11.942   9.729   6.412
54641SOL    HW165762  12.025   9.713   6.367
54641SOL    HW265763  11.918   9.818   6.385
54642SOL     OW65764  14.120  12.220   7.101
54642SOL    HW165765  14.206  12.257   7.083
54642SOL    HW265766  14.136  12.128   7.121
54643SOL     OW65767   4.115   3.237   8.660
54643SOL    HW165768   4.178   3.191   8.715
54643SOL    HW265769   4.168   3.289   8.600
54644SOL     OW65770  13.867   9.871   2.949
54644SOL    HW165771  13.779   9.880   2.911
54644SOL    HW265772  13.856   9.807   3.019
54645SOL     OW65773   8.557  11.609  10.863
54645SOL    HW165774   8.600  11.627  10.946
54645SOL    HW265775   8.464  11.627  10.879
54646SOL     OW65776   3.369   5.987   1.899
54646SOL    HW165777   3.287   6.032   1.881
54646SOL    HW265778   3.356   5.898   1.865
54647SOL     OW65779  10.736   9.449   5.772
54647SOL    HW165780  10.726   9.537   5.737
54647SOL    HW265781  10.775   9.399   5.700
54648SOL     OW65782   4.016  12.096   1.854
54648SOL    HW165783   3.940  12.152   1.871
54648SOL    HW265784   3.980  12.021   1.806
54649SOL     OW65785   0.975   6.633  12.109
54649SOL    HW165786   0.926   6.561  12.149
54649SOL    HW265787   1.067   6.608  12.120
54650SOL     OW65788   1.681   9.571  10.483
54650SOL    HW165789   1.612   9.509  10.461
54650SOL    HW265790   1.701   9.552  10.575
54651SOL     OW65791  14.096   6.158  10.887
54651SOL    HW165792  14.089   6.251  10.864
54651SOL    HW265793  14.051   6.112  10.816
54652SOL     OW65794   8.928   2.170   5.136
54652SOL    HW165795   8.875   2.234   5.182
54652SOL    HW265796   9.001   2.220   5.100
54653SOL     OW65797  10.977   6.548  11.507
54653SOL    HW165798  11.041   6.489  11.467
54653SOL    HW265799  10.911   6.560  11.439
54654SOL     OW65800   9.600   9.964  12.976
54654SOL    HW165801   9.692   9.945  12.959
54654SOL    HW265802   9.574   9.903  13.044
54655SOL     OW65803   1.425  13.691   0.826
54655SOL    HW165804   1.374  13.610   0.829
54655SOL    HW265805   1.449  13.706   0.918
54656SOL     OW65806   5.023  13.273   0.615
54656SOL    HW165807   5.013  13.258   0.709
54656SOL    HW265808   4.947  13.325   0.590
54657SOL     OW65809   3.283   0.553   5.767
54657SOL    HW165810   3.364   0.601   5.750
54657SOL    HW265811   3.234   0.609   5.828
54658SOL     OW65812   5.550   1.071   9.694
54658SOL    HW165813   5.562   0.976   9.695
54658SOL    HW265814   5.460   1.083   9.665
54659SOL     OW65815  10.471   3.596  10.524
54659SOL    HW165816  10.513   3.663  10.471
54659SOL    HW265817  10.378   3.608  10.508
54660SOL     OW65818  13.922   8.324   7.972
54660SOL    HW165819  13.939   8.258   8.039
54660SOL    HW265820  14.000   8.379   7.972
54661SOL     OW65821   4.075   0.939  14.781
54661SOL    HW165822   4.066   0.981  14.695
54661SOL    HW265823   4.167   0.915  14.786
54662SOL     OW65824   1.837   5.523  13.760
54662SOL    HW165825   1.867   5.574  13.685
54662SOL    HW265826   1.902   5.453  13.769
54663SOL     OW65827  12.309  12.837   0.001
54663SOL    HW165828  12.245  12.782   0.046
54663SOL    HW265829  12.297  12.818  14.790
54664SOL     OW65830  11.650   1.236   8.055
54664SOL    HW165831  11.571   1.204   8.099
54664SOL    HW265832  11.626   1.236   7.962
54665SOL     OW65833   6.571  11.756  13.649
54665SOL    HW165834   6.535  11.721  13.731
54665SOL    HW265835   6.645  11.700  13.629
54666SOL     OW65836  14.798   5.524   1.653
54666SOL    HW165837  14.825   5.545   1.742
54666SOL    HW265838  14.875   5.540   1.599
54667SOL     OW65839   6.091   9.171  11.608
54667SOL    HW165840   6.030   9.164  11.682
54667SOL    HW265841   6.178   9.164  11.647
54668SOL     OW65842   2.769   3.387  10.176
54668SOL    HW165843   2.821   3.406  10.254
54668SOL    HW265844   2.765   3.291  10.172
54669SOL     OW65845  12.653   9.018   9.317
54669SOL    HW165846  12.703   8.938   9.334
54669SOL    HW265847  12.583   8.991   9.257
54670SOL     OW65848  13.257   7.677   5.349
54670SOL    HW165849  13.350   7.696   5.346
54670SOL    HW265850  13.216   7.745   5.295
54671SOL     OW65851  13.381  13.832  12.222
54671SOL    HW165852  13.337  13.792  12.297
54671SOL    HW265853  13.372  13.767  12.152
54672SOL     OW65854   1.409  12.144   7.616
54672SOL    HW165855   1.375  12.136   7.705
54672SOL    HW265856   1.381  12.232   7.588
54673SOL     OW65857   5.169  12.575   1.551
54673SOL    HW165858   5.198  12.484   1.549
54673SOL    HW265859   5.110  12.584   1.477
54674SOL     OW65860  10.110   8.894  11.049
54674SOL    HW165861  10.176   8.846  10.999
54674SOL    HW265862  10.160   8.947  11.111
54675SOL     OW65863  12.506   8.072  13.038
54675SOL    HW165864  12.456   8.000  13.076
54675SOL    HW265865  12.564   8.030  12.974
54676SOL     OW65866  13.604   2.243   3.463
54676SOL    HW165867  13.616   2.169   3.403
54676SOL    HW265868  13.638   2.213   3.547
54677SOL     OW65869  12.759  11.447   3.464
54677SOL    HW165870  12.753  11.524   3.408
54677SOL    HW265871  12.836  11.400   3.432
54678SOL     OW65872  14.856   8.614  10.083
54678SOL    HW165873  14.863   8.706  10.107
54678SOL    HW265874  14.772   8.608  10.036
54679SOL     OW65875  10.843   7.079  11.957
54679SOL    HW165876  10.871   7.141  11.889
54679SOL    HW265877  10.785   7.018  11.911
54680SOL     OW65878   8.947   5.795   2.769
54680SOL    HW165879   8.980   5.742   2.697
54680SOL    HW265880   8.896   5.734   2.823
54681SOL     OW65881   8.863  14.806  10.575
54681SOL    HW165882   8.812  14.793  10.495
54681SOL    HW265883   8.905  14.722  10.592
54682SOL     OW65884   6.661   4.992   9.726
54682SOL    HW165885   6.577   4.949   9.711
54682SOL    HW265886   6.711   4.974   9.646
54683SOL     OW65887   7.159   6.249   8.218
54683SOL    HW165888   7.161   6.174   8.277
54683SOL    HW265889   7.121   6.320   8.270
54684SOL     OW65890   0.647   9.045   4.584
54684SOL    HW165891   0.711   8.976   4.597
54684SOL    HW265892   0.699   9.122   4.561
54685SOL     OW65893   0.413   5.736  14.053
54685SOL    HW165894   0.352   5.765  13.985
54685SOL    HW265895   0.471   5.810  14.067
54686SOL     OW65896  11.831   7.394   2.894
54686SOL    HW165897  11.878   7.477   2.896
54686SOL    HW265898  11.821   7.374   2.801
54687SOL     OW65899   3.963   9.056  11.792
54687SOL    HW165900   4.052   9.022  11.794
54687SOL    HW265901   3.969   9.135  11.738
54688SOL     OW65902   8.776   8.932   0.054
54688SOL    HW165903   8.753   8.968   0.139
54688SOL    HW265904   8.790   9.008  14.880
54689SOL     OW65905   4.330  10.202   3.894
54689SOL    HW165906   4.394  10.150   3.846
54689SOL    HW265907   4.372  10.219   3.979
54690SOL     OW65908  12.521   9.620  10.065
54690SOL    HW165909  12.526   9.657  10.153
54690SOL    HW265910  12.560   9.532  10.073
54691SOL     OW65911   6.736   8.549   3.419
54691SOL    HW165912   6.767   8.526   3.507
54691SOL    HW265913   6.810   8.597   3.380
54692SOL     OW65914   6.499   0.838   8.833
54692SOL    HW165915   6.561   0.798   8.894
54692SOL    HW265916   6.512   0.932   8.845
54693SOL     OW65917   8.700   5.342   2.441
54693SOL    HW165918   8.752   5.314   2.516
54693SOL    HW265919   8.728   5.432   2.424
54694SOL     OW65920   3.243  10.628   8.262
54694SOL    HW165921   3.236  10.606   8.355
54694SOL    HW265922   3.282  10.551   8.221
54695SOL     OW65923   5.113  12.168  14.496
54695SOL    HW165924   5.082  12.259  14.505
54695SOL    HW265925   5.207  12.177  14.479
54696SOL     OW65926  12.888   8.404   8.582
54696SOL    HW165927  12.961   8.465   8.592
54696SOL    HW265928  12.904   8.337   8.649
54697SOL     OW65929  12.179   9.335   7.327
54697SOL    HW165930  12.233   9.414   7.341
54697SOL    HW265931  12.099   9.352   7.376
54698SOL     OW65932   8.331   6.547   7.309
54698SOL    HW165933   8.281   6.543   7.391
54698SOL    HW265934   8.283   6.489   7.249
54699SOL     OW65935   3.078   3.005   5.498
54699SOL    HW165936   3.005   2.982   5.556
54699SOL    HW265937   3.045   3.077   5.445
54700SOL     OW65938   0.561   0.587  10.753
54700SOL    HW165939   0.612   0.650  10.802
54700SOL    HW265940   0.565   0.507  10.805
54701SOL     OW65941   9.809   1.426  13.398
54701SOL    HW165942   9.896   1.443  13.364
54701SOL    HW265943   9.758   1.402  13.321
54702SOL     OW65944   7.921   3.258   7.151
54702SOL    HW165945   7.870   3.318   7.205
54702SOL    HW265946   7.912   3.292   7.062
54703SOL     OW65947   4.341   1.629   0.784
54703SOL    HW165948   4.393   1.705   0.759
54703SOL    HW265949   4.383   1.596   0.863
54704SOL     OW65950   2.238  12.376   6.833
54704SOL    HW165951   2.239  12.460   6.878
54704SOL    HW265952   2.147  12.346   6.841
54705SOL     OW65953   4.794  12.741  12.308
54705SOL    HW165954   4.826  12.831  12.306
54705SOL    HW265955   4.828  12.702  12.228
54706SOL     OW65956   7.377   3.490   3.499
54706SOL    HW165957   7.456   3.440   3.477
54706SOL    HW265958   7.382   3.568   3.444
54707SOL     OW65959   0.152  14.111  11.234
54707SOL    HW165960   0.080  14.099  11.297
54707SOL    HW265961   0.136  14.198  11.197
54708SOL     OW65962  10.191   6.810   2.254
54708SOL    HW165963  10.253   6.751   2.211
54708SOL    HW265964  10.113   6.807   2.200
54709SOL     OW65965   3.576   4.893  11.594
54709SOL    HW165966   3.565   4.800  11.617
54709SOL    HW265967   3.494   4.917  11.552
54710SOL     OW65968  11.135   4.838  11.975
54710SOL    HW165969  11.104   4.748  11.967
54710SOL    HW265970  11.146   4.852  12.069
54711SOL     OW65971   9.807  14.395   7.044
54711SOL    HW165972   9.899  14.419   7.036
54711SOL    HW265973   9.767  14.426   6.963
54712SOL     OW65974   5.478  12.740   9.591
54712SOL    HW165975   5.533  12.698   9.656
54712SOL    HW265976   5.517  12.716   9.507
54713SOL     OW65977   3.154   0.234  12.570
54713SOL    HW165978   3.106   0.194  12.642
54713SOL    HW265979   3.125   0.187  12.492
54714SOL     OW65980   9.119   0.352   3.248
54714SOL    HW165981   9.139   0.410   3.322
54714SOL    HW265982   9.205   0.323   3.216
54715SOL     OW65983   4.852   4.201   0.696
54715SOL    HW165984   4.925   4.139   0.695
54715SOL    HW265985   4.840   4.223   0.788
54716SOL     OW65986   5.795   7.455  10.675
54716SOL    HW165987   5.866   7.514  10.648
54716SOL    HW265988   5.753   7.500  10.748
54717SOL     OW65989   0.372  10.985  14.114
54717SOL    HW165990   0.355  10.897  14.146
54717SOL    HW265991   0.462  10.982  14.080
54718SOL     OW65992   0.578  11.886  12.156
54718SOL    HW165993   0.492  11.893  12.197
54718SOL    HW265994   0.578  11.953  12.089
54719SOL     OW65995   7.372  11.355   6.125
54719SOL    HW165996   7.286  11.382   6.157
54719SOL    HW265997   7.379  11.263   6.150
54720SOL     OW65998   1.990   1.416   5.048
54720SOL    HW165999   2.005   1.423   5.142
54720SOL    HW266000   1.953   1.328   5.036
54721SOL     OW66001  13.771  12.932   2.015
54721SOL    HW166002  13.840  12.983   1.971
54721SOL    HW266003  13.727  12.995   2.072
54722SOL     OW66004   2.831   1.399   3.154
54722SOL    HW166005   2.850   1.477   3.102
54722SOL    HW266006   2.740   1.378   3.134
54723SOL     OW66007  12.149  10.941  11.695
54723SOL    HW166008  12.234  10.976  11.669
54723SOL    HW266009  12.159  10.846  11.686
54724SOL     OW66010   6.392   8.670  12.959
54724SOL    HW166011   6.418   8.606  13.025
54724SOL    HW266012   6.377   8.618  12.880
54725SOL     OW66013   1.186  14.709  10.469
54725SOL    HW166014   1.269  14.681  10.507
54725SOL    HW266015   1.181  14.664  10.385
54726SOL     OW66016  10.531  10.752  13.231
54726SOL    HW166017  10.442  10.718  13.244
54726SOL    HW266018  10.541  10.818  13.300
54727SOL     OW66019  14.128   8.836  11.708
54727SOL    HW166020  14.072   8.790  11.646
54727SOL    HW266021  14.211   8.848  11.662
54728SOL     OW66022   5.357  11.842   4.607
54728SOL    HW166023   5.281  11.797   4.646
54728SOL    HW266024   5.431  11.787   4.632
54729SOL     OW66025  12.534   2.897   4.107
54729SOL    HW166026  12.598   2.962   4.134
54729SOL    HW266027  12.555   2.880   4.015
54730SOL     OW66028   4.381   0.032   9.988
54730SOL    HW166029   4.408   0.106  10.042
54730SOL    HW266030   4.460   0.004   9.943
54731SOL     OW66031   9.667   1.520   3.445
54731SOL    HW166032   9.588   1.546   3.397
54731SOL    HW266033   9.714   1.601   3.461
54732SOL     OW66034   5.695   8.736  12.616
54732SOL    HW166035   5.647   8.818  12.605
54732SOL    HW266036   5.678   8.710  12.707
54733SOL     OW66037  14.819  13.205   9.397
54733SOL    HW166038   0.018  13.250   9.421
54733SOL    HW266039  14.752  13.246   9.452
54734SOL     OW66040   6.810  14.504  10.054
54734SOL    HW166041   6.789  14.448   9.980
54734SOL    HW266042   6.862  14.575  10.017
54735SOL     OW66043  10.095   1.551   8.746
54735SOL    HW166044  10.015   1.508   8.717
54735SOL    HW266045  10.080   1.644   8.732
54736SOL     OW66046  10.391   3.247  12.262
54736SOL    HW166047  10.321   3.310  12.283
54736SOL    HW266048  10.455   3.299  12.213
54737SOL     OW66049   9.155   6.425  13.674
54737SOL    HW166050   9.083   6.488  13.678
54737SOL    HW266051   9.214   6.460  13.607
54738SOL     OW66052   8.231  11.077   1.089
54738SOL    HW166053   8.215  11.171   1.097
54738SOL    HW266054   8.315  11.063   1.132
54739SOL     OW66055  12.762   1.459   0.536
54739SOL    HW166056  12.839   1.413   0.569
54739SOL    HW266057  12.774   1.550   0.566
54740SOL     OW66058   9.248   9.893   6.357
54740SOL    HW166059   9.317   9.862   6.299
54740SOL    HW266060   9.219   9.815   6.404
54741SOL     OW66061   3.684   8.657   2.466
54741SOL    HW166062   3.717   8.746   2.449
54741SOL    HW266063   3.708   8.608   2.388
54742SOL     OW66064   2.827   3.059  11.839
54742SOL    HW166065   2.901   3.036  11.783
54742SOL    HW266066   2.773   2.980  11.841
54743SOL     OW66067   8.210   5.911   3.451
54743SOL    HW166068   8.171   5.855   3.519
54743SOL    HW266069   8.293   5.869   3.429
54744SOL     OW66070   1.731   0.038   6.741
54744SOL    HW166071   1.783  14.846   6.774
54744SOL    HW266072   1.794   0.109   6.732
54745SOL     OW66073   7.728   7.321  11.091
54745SOL    HW166074   7.741   7.226  11.084
54745SOL    HW266075   7.814   7.355  11.116
54746SOL     OW66076  10.263  11.802   4.101
54746SOL    HW166077  10.199  11.827   4.167
54746SOL    HW266078  10.221  11.821   4.017
54747SOL     OW66079   4.694   4.999  11.156
54747SOL    HW166080   4.773   5.048  11.130
54747SOL    HW266081   4.700   4.917  11.106
54748SOL     OW66082   9.254   0.700  11.701
54748SOL    HW166083   9.236   0.793  11.689
54748SOL    HW266084   9.284   0.693  11.791
54749SOL     OW66085   6.096  12.634   4.308
54749SOL    HW166086   6.106  12.621   4.214
54749SOL    HW266087   6.056  12.721   4.317
54750SOL     OW66088   6.740   8.878  12.880
54750SOL    HW166089   6.829   8.906  12.857
54750SOL    HW266090   6.717   8.812  12.815
54751SOL     OW66091   0.066   3.618   2.860
54751SOL    HW166092  14.878   3.600   2.796
54751SOL    HW266093   0.114   3.536   2.866
54752SOL     OW66094   4.370  13.515   3.663
54752SOL    HW166095   4.325  13.433   3.680
54752SOL    HW266096   4.301  13.574   3.631
54753SOL     OW66097  13.237   7.520   2.387
54753SOL    HW166098  13.227   7.495   2.479
54753SOL    HW266099  13.262   7.439   2.343
54754SOL     OW66100  13.444   7.593   8.096
54754SOL    HW166101  13.447   7.586   8.001
54754SOL    HW266102  13.518   7.541   8.127
54755SOL     OW66103   7.763  10.678  13.206
54755SOL    HW166104   7.766  10.583  13.192
54755SOL    HW266105   7.854  10.707  13.195
54756SOL     OW66106  14.530  10.895  11.744
54756SOL    HW166107  14.510  10.958  11.675
54756SOL    HW266108  14.619  10.917  11.772
54757SOL     OW66109   2.892   3.059   3.276
54757SOL    HW166110   2.897   3.057   3.180
54757SOL    HW266111   2.975   3.097   3.304
54758SOL     OW66112  12.185   6.862   4.817
54758SOL    HW166113  12.266   6.829   4.778
54758SOL    HW266114  12.212   6.935   4.872
54759SOL     OW66115   4.859  14.805   9.115
54759SOL    HW166116   4.832   0.004   9.159
54759SOL    HW266117   4.936  14.830   9.064
54760SOL     OW66118  11.376   3.711   9.414
54760SOL    HW166119  11.302   3.660   9.449
54760SOL    HW266120  11.437   3.644   9.383
54761SOL     OW66121   9.916  12.911   0.967
54761SOL    HW166122   9.839  12.925   1.021
54761SOL    HW266123   9.931  12.996   0.924
54762SOL     OW66124  11.561   1.429   1.654
54762SOL    HW166125  11.487   1.376   1.685
54762SOL    HW266126  11.636   1.370   1.656
54763SOL     OW66127  13.573   8.107   4.051
54763SOL    HW166128  13.660   8.097   4.011
54763SOL    HW266129  13.555   8.201   4.044
54764SOL     OW66130   8.712  10.754  14.828
54764SOL    HW166131   8.641  10.788  14.774
54764SOL    HW266132   8.716  10.814   0.021
54765SOL     OW66133   5.793  12.389   1.904
54765SOL    HW166134   5.829  12.327   1.967
54765SOL    HW266135   5.834  12.473   1.927
54766SOL     OW66136   4.400  11.407   6.092
54766SOL    HW166137   4.385  11.459   6.014
54766SOL    HW266138   4.455  11.334   6.063
54767SOL     OW66139  13.213   8.345  11.084
54767SOL    HW166140  13.306   8.326  11.075
54767SOL    HW266141  13.188   8.306  11.167
54768SOL     OW66142   5.881   0.304   7.337
54768SOL    HW166143   5.892   0.399   7.337
54768SOL    HW266144   5.942   0.273   7.270
54769SOL     OW66145   1.030   1.046   1.720
54769SOL    HW166146   0.988   1.003   1.794
54769SOL    HW266147   1.090   0.981   1.685
54770SOL     OW66148  13.397   9.809   0.573
54770SOL    HW166149  13.450   9.822   0.494
54770SOL    HW266150  13.389   9.714   0.581
54771SOL     OW66151   7.907  14.305   2.943
54771SOL    HW166152   7.860  14.356   3.009
54771SOL    HW266153   7.950  14.371   2.888
54772SOL     OW66154   1.108   3.836  14.281
54772SOL    HW166155   1.036   3.810  14.337
54772SOL    HW266156   1.182   3.782  14.309
54773SOL     OW66157   7.644   8.674   0.697
54773SOL    HW166158   7.659   8.765   0.669
54773SOL    HW266159   7.731   8.635   0.702
54774SOL     OW66160   8.123   5.885  10.014
54774SOL    HW166161   8.125   5.972  10.053
54774SOL    HW266162   8.194   5.887   9.950
54775SOL     OW66163   3.703  14.295  10.141
54775SOL    HW166164   3.765  14.306  10.213
54775SOL    HW266165   3.720  14.207  10.108
54776SOL     OW66166   6.484   7.069  14.241
54776SOL    HW166167   6.498   7.156  14.279
54776SOL    HW266168   6.394   7.046  14.266
54777SOL     OW66169   2.641   6.427  10.105
54777SOL    HW166170   2.634   6.503  10.163
54777SOL    HW266171   2.734   6.422  10.082
54778SOL     OW66172   8.272  10.652   9.067
54778SOL    HW166173   8.357  10.695   9.067
54778SOL    HW266174   8.292  10.560   9.047
54779SOL     OW66175   1.873  10.853   9.226
54779SOL    HW166176   1.872  10.882   9.135
54779SOL    HW266177   1.828  10.768   9.225
54780SOL     OW66178   1.994   0.278  13.913
54780SOL    HW166179   1.970   0.363  13.877
54780SOL    HW266180   1.978   0.286  14.007
54781SOL     OW66181   1.618  10.530   1.169
54781SOL    HW166182   1.632  10.466   1.098
54781SOL    HW266183   1.664  10.608   1.139
54782SOL     OW66184   9.910   3.479   7.483
54782SOL    HW166185   9.972   3.408   7.466
54782SOL    HW266186   9.911   3.531   7.403
54783SOL     OW66187  10.116   9.097  13.164
54783SOL    HW166188  10.028   9.131  13.142
54783SOL    HW266189  10.122   9.105  13.259
54784SOL     OW66190   7.705   9.368  10.672
54784SOL    HW166191   7.668   9.306  10.734
54784SOL    HW266192   7.800   9.355  10.678
54785SOL     OW66193   0.741   3.424   8.032
54785SOL    HW166194   0.750   3.330   8.050
54785SOL    HW266195   0.666   3.452   8.085
54786SOL     OW66196   1.543  14.463  14.638
54786SOL    HW166197   1.499  14.485  14.556
54786SOL    HW266198   1.633  14.493  14.626
54787SOL     OW66199   4.827   8.849  12.321
54787SOL    HW166200   4.913   8.845  12.280
54787SOL    HW266201   4.846   8.869  12.413
54788SOL     OW66202  14.232   2.991  11.978
54788SOL    HW166203  14.189   2.964  11.897
54788SOL    HW266204  14.168   2.976  12.046
54789SOL     OW66205  10.854  13.632  11.582
54789SOL    HW166206  10.839  13.593  11.496
54789SOL    HW266207  10.949  13.643  11.587
54790SOL     OW66208  10.624  11.695   8.391
54790SOL    HW166209  10.671  11.612   8.383
54790SOL    HW266210  10.580  11.689   8.476
54791SOL     OW66211   1.411   3.019  11.355
54791SOL    HW166212   1.477   3.089  11.349
54791SOL    HW266213   1.451   2.953  11.412
54792SOL     OW66214   0.710  13.621   4.589
54792SOL    HW166215   0.753  13.546   4.546
54792SOL    HW266216   0.767  13.695   4.571
54793SOL     OW66217  10.547  13.392  11.415
54793SOL    HW166218  10.529  13.459  11.349
54793SOL    HW266219  10.525  13.433  11.498
54794SOL     OW66220   6.170   2.373  14.724
54794SOL    HW166221   6.099   2.311  14.705
54794SOL    HW266222   6.183   2.422  14.643
54795SOL     OW66223  10.990   6.815  14.364
54795SOL    HW166224  10.923   6.767  14.316
54795SOL    HW266225  11.064   6.755  14.369
54796SOL     OW66226   5.703   5.922  11.830
54796SOL    HW166227   5.696   6.013  11.857
54796SOL    HW266228   5.612   5.893  11.820
54797SOL     OW66229   9.675  14.758   0.842
54797SOL    HW166230   9.628  14.841   0.827
54797SOL    HW266231   9.672  14.714   0.757
54798SOL     OW66232   2.025   8.448   0.576
54798SOL    HW166233   2.049   8.402   0.496
54798SOL    HW266234   1.992   8.533   0.545
54799SOL     OW66235   9.154  12.880   0.205
54799SOL    HW166236   9.200  12.935   0.142
54799SOL    HW266237   9.217  12.812   0.229
54800SOL     OW66238   1.955   1.012  12.201
54800SOL    HW166239   2.029   1.066  12.229
54800SOL    HW266240   1.996   0.939  12.154
54801SOL     OW66241   6.465   0.475  11.567
54801SOL    HW166242   6.486   0.461  11.475
54801SOL    HW266243   6.415   0.556  11.569
54802SOL     OW66244   0.079  10.440  10.058
54802SOL    HW166245   0.075  10.350  10.027
54802SOL    HW266246  14.879  10.453  10.106
54803SOL     OW66247   4.832   1.186   2.851
54803SOL    HW166248   4.792   1.119   2.906
54803SOL    HW266249   4.861   1.254   2.913
54804SOL     OW66250   5.714  14.143   4.164
54804SOL    HW166251   5.748  14.057   4.189
54804SOL    HW266252   5.623  14.142   4.193
54805SOL     OW66253   7.191   1.103   0.621
54805SOL    HW166254   7.142   1.042   0.676
54805SOL    HW266255   7.192   1.062   0.534
54806SOL     OW66256   7.666   2.155   7.871
54806SOL    HW166257   7.761   2.154   7.857
54806SOL    HW266258   7.633   2.214   7.804
54807SOL     OW66259  13.943   9.792   9.386
54807SOL    HW166260  13.923   9.832   9.302
54807SOL    HW266261  13.922   9.859   9.451
54808SOL     OW66262  14.309   8.765   7.360
54808SOL    HW166263  14.242   8.717   7.312
54808SOL    HW266264  14.314   8.721   7.444
54809SOL     OW66265   2.150  14.613   6.377
54809SOL    HW166266   2.194  14.655   6.451
54809SOL    HW266267   2.198  14.531   6.364
54810SOL     OW66268   9.736  12.178  13.929
54810SOL    HW166269   9.795  12.172  13.854
54810SOL    HW266270   9.687  12.096  13.928
54811SOL     OW66271  11.628  11.859   4.710
54811SOL    HW166272  11.714  11.823   4.730
54811SOL    HW266273  11.642  11.954   4.708
54812SOL     OW66274   9.453   7.717   3.962
54812SOL    HW166275   9.442   7.787   3.899
54812SOL    HW266276   9.363   7.694   3.988
54813SOL     OW66277  10.600   3.351  10.426
54813SOL    HW166278  10.525   3.294  10.442
54813SOL    HW266279  10.594   3.419  10.493
54814SOL     OW66280   8.719   4.714   9.589
54814SOL    HW166281   8.797   4.753   9.548
54814SOL    HW266282   8.752   4.674   9.670
54815SOL     OW66283  13.527   6.123  11.134
54815SOL    HW166284  13.582   6.201  11.134
54815SOL    HW266285  13.459   6.142  11.070
54816SOL     OW66286  10.647   9.461  10.881
54816SOL    HW166287  10.718   9.468  10.945
54816SOL    HW266288  10.580   9.408  10.923
54817SOL     OW66289   7.753   9.418   5.723
54817SOL    HW166290   7.723   9.420   5.814
54817SOL    HW266291   7.821   9.486   5.719
54818SOL     OW66292   2.447   0.763  10.802
54818SOL    HW166293   2.392   0.686  10.787
54818SOL    HW266294   2.387   0.830  10.834
54819SOL     OW66295   2.152   3.041  10.931
54819SOL    HW166296   2.104   3.016  10.851
54819SOL    HW266297   2.215   2.971  10.944
54820SOL     OW66298   0.999  10.962  12.986
54820SOL    HW166299   1.038  10.885  12.946
54820SOL    HW266300   1.056  11.034  12.961
54821SOL     OW66301   4.892   6.756   0.412
54821SOL    HW166302   4.964   6.810   0.446
54821SOL    HW266303   4.821   6.769   0.474
54822SOL     OW66304   0.356   6.455   2.481
54822SOL    HW166305   0.270   6.494   2.463
54822SOL    HW266306   0.408   6.528   2.515
54823SOL     OW66307  13.420   5.264   2.545
54823SOL    HW166308  13.402   5.200   2.476
54823SOL    HW266309  13.394   5.348   2.508
54824SOL     OW66310   9.252   7.159   9.080
54824SOL    HW166311   9.263   7.228   9.145
54824SOL    HW266312   9.184   7.102   9.116
54825SOL     OW66313   7.662  14.796   9.915
54825SOL    HW166314   7.740  14.757   9.875
54825SOL    HW266315   7.628  14.855   9.847
54826SOL     OW66316  12.289  14.311  13.976
54826SOL    HW166317  12.310  14.359  13.896
54826SOL    HW266318  12.372  14.270  14.002
54827SOL     OW66319   3.903   4.878   9.878
54827SOL    HW166320   3.826   4.905   9.828
54827SOL    HW266321   3.867   4.833   9.954
54828SOL     OW66322   0.414   9.650  14.332
54828SOL    HW166323   0.450   9.735  14.355
54828SOL    HW266324   0.351   9.669  14.262
54829SOL     OW66325   9.108   6.070   3.366
54829SOL    HW166326   9.190   6.023   3.375
54829SOL    HW266327   9.044   6.003   3.343
54830SOL     OW66328   2.432   0.257   3.054
54830SOL    HW166329   2.481   0.209   2.987
54830SOL    HW266330   2.461   0.347   3.044
54831SOL     OW66331   4.445  14.345   0.608
54831SOL    HW166332   4.485  14.430   0.626
54831SOL    HW266333   4.352  14.365   0.592
54832SOL     OW66334   5.743   5.873   4.218
54832SOL    HW166335   5.735   5.797   4.276
54832SOL    HW266336   5.654   5.886   4.185
54833SOL     OW66337   2.255  10.339   8.003
54833SOL    HW166338   2.304  10.302   8.077
54833SOL    HW266339   2.261  10.272   7.935
54834SOL     OW66340   7.778   6.822   4.330
54834SOL    HW166341   7.743   6.825   4.241
54834SOL    HW266342   7.848   6.887   4.330
54835SOL     OW66343   2.097   0.622   4.340
54835SOL    HW166344   2.091   0.552   4.405
54835SOL    HW266345   2.013   0.619   4.294
54836SOL     OW66346   9.191  13.581   2.710
54836SOL    HW166347   9.227  13.535   2.786
54836SOL    HW266348   9.136  13.516   2.667
54837SOL     OW66349   1.458   9.475  13.299
54837SOL    HW166350   1.495   9.387  13.287
54837SOL    HW266351   1.534   9.529  13.320
54838SOL     OW66352  11.545  11.805   3.254
54838SOL    HW166353  11.577  11.823   3.165
54838SOL    HW266354  11.504  11.887   3.281
54839SOL     OW66355   4.840   7.972  11.208
54839SOL    HW166356   4.880   7.945  11.125
54839SOL    HW266357   4.751   7.997  11.184
54840SOL     OW66358  13.540   3.553   6.366
54840SOL    HW166359  13.538   3.525   6.458
54840SOL    HW266360  13.631   3.544   6.340
54841SOL     OW66361  13.654  14.447   6.373
54841SOL    HW166362  13.737  14.496   6.375
54841SOL    HW266363  13.589  14.512   6.347
54842SOL     OW66364  10.505   5.330  11.462
54842SOL    HW166365  10.504   5.413  11.415
54842SOL    HW266366  10.521   5.354  11.553
54843SOL     OW66367   9.028  13.969  12.780
54843SOL    HW166368   9.016  13.917  12.860
54843SOL    HW266369   9.102  14.026  12.799
54844SOL     OW66370  13.619  14.591   7.340
54844SOL    HW166371  13.603  14.506   7.299
54844SOL    HW266372  13.559  14.594   7.414
54845SOL     OW66373  14.728   5.606   5.910
54845SOL    HW166374  14.742   5.655   5.991
54845SOL    HW266375  14.810   5.559   5.896
54846SOL     OW66376   9.283   7.270   8.830
54846SOL    HW166377   9.312   7.354   8.866
54846SOL    HW266378   9.283   7.211   8.906
54847SOL     OW66379  12.619   6.271   4.691
54847SOL    HW166380  12.686   6.340   4.693
54847SOL    HW266381  12.538   6.317   4.715
54848SOL     OW66382   1.867   1.605   1.667
54848SOL    HW166383   1.788   1.592   1.719
54848SOL    HW266384   1.889   1.518   1.634
54849SOL     OW66385  11.499   6.345  11.235
54849SOL    HW166386  11.589   6.356  11.206
54849SOL    HW266387  11.487   6.250  11.242
54850SOL     OW66388  14.202   9.442   5.511
54850SOL    HW166389  14.232   9.533   5.507
54850SOL    HW266390  14.280   9.392   5.533
54851SOL     OW66391   9.806   3.896   2.651
54851SOL    HW166392   9.743   3.841   2.605
54851SOL    HW266393   9.768   3.984   2.648
54852SOL     OW66394   6.789   9.219   8.200
54852SOL    HW166395   6.767   9.236   8.108
54852SOL    HW266396   6.875   9.260   8.211
54853SOL     OW66397   1.293   4.234   3.938
54853SOL    HW166398   1.298   4.193   4.024
54853SOL    HW266399   1.350   4.180   3.882
54854SOL     OW66400  13.923   3.502  11.009
54854SOL    HW166401  13.883   3.548  10.936
54854SOL    HW266402  13.971   3.430  10.968
54855SOL     OW66403   5.034   3.851  10.147
54855SOL    HW166404   5.083   3.793  10.205
54855SOL    HW266405   5.016   3.928  10.201
54856SOL     OW66406   6.210   5.417   5.705
54856SOL    HW166407   6.240   5.460   5.625
54856SOL    HW266408   6.286   5.415   5.762
54857SOL     OW66409   6.692  11.322   6.350
54857SOL    HW166410   6.736  11.398   6.312
54857SOL    HW266411   6.665  11.351   6.437
54858SOL     OW66412   1.555   3.018   4.438
54858SOL    HW166413   1.515   2.935   4.464
54858SOL    HW266414   1.649   2.998   4.435
54859SOL     OW66415   2.089   5.896   6.232
54859SOL    HW166416   2.054   5.953   6.301
54859SOL    HW266417   2.157   5.948   6.189
54860SOL     OW66418   8.247   8.744   5.726
54860SOL    HW166419   8.339   8.762   5.745
54860SOL    HW266420   8.250   8.690   5.647
54861SOL     OW66421   4.386  14.364   1.352
54861SOL    HW166422   4.348  14.426   1.415
54861SOL    HW266423   4.439  14.305   1.405
54862SOL     OW66424   8.456  11.352  11.306
54862SOL    HW166425   8.518  11.302  11.253
54862SOL    HW266426   8.407  11.285  11.354
54863SOL     OW66427  12.241  14.116   6.102
54863SOL    HW166428  12.196  14.185   6.151
54863SOL    HW266429  12.283  14.162   6.029
54864SOL     OW66430   5.981   8.892   9.563
54864SOL    HW166431   6.019   8.943   9.633
54864SOL    HW266432   6.037   8.815   9.555
54865SOL     OW66433   5.568  13.060  10.265
54865SOL    HW166434   5.548  13.121  10.193
54865SOL    HW266435   5.575  13.116  10.342
54866SOL     OW66436   2.180   7.898   1.045
54866SOL    HW166437   2.248   7.936   0.990
54866SOL    HW266438   2.214   7.905   1.134
54867SOL     OW66439  14.758   7.739  11.649
54867SOL    HW166440  14.791   7.805  11.589
54867SOL    HW266441  14.674   7.712  11.612
54868SOL     OW66442   8.841   0.179   7.916
54868SOL    HW166443   8.850   0.203   7.824
54868SOL    HW266444   8.862   0.260   7.963
54869SOL     OW66445   2.839   3.895   6.808
54869SOL    HW166446   2.781   3.935   6.743
54869SOL    HW266447   2.915   3.953   6.810
54870SOL     OW66448   1.864   6.115  10.447
54870SOL    HW166449   1.790   6.136  10.389
54870SOL    HW266450   1.935   6.093  10.387
54871SOL     OW66451   8.803  10.064  11.216
54871SOL    HW166452   8.805  10.153  11.181
54871SOL    HW266453   8.847  10.071  11.301
54872SOL     OW66454   5.285   8.894  12.842
54872SOL    HW166455   5.294   8.830  12.771
54872SOL    HW266456   5.368   8.889  12.889
54873SOL     OW66457   1.710   2.757   7.204
54873SOL    HW166458   1.712   2.790   7.115
54873SOL    HW266459   1.755   2.823   7.256
54874SOL     OW66460   5.043   5.598  13.654
54874SOL    HW166461   4.997   5.680  13.637
54874SOL    HW266462   4.977   5.540  13.692
54875SOL     OW66463   7.456   0.090   8.472
54875SOL    HW166464   7.484   0.040   8.395
54875SOL    HW266465   7.448   0.180   8.440
54876SOL     OW66466   6.854  12.502  14.463
54876SOL    HW166467   6.814  12.514  14.549
54876SOL    HW266468   6.797  12.440  14.418
54877SOL     OW66469   3.123   7.884  12.189
54877SOL    HW166470   3.028   7.873  12.193
54877SOL    HW266471   3.145   7.934  12.268
54878SOL     OW66472   5.746  10.855   1.496
54878SOL    HW166473   5.828  10.873   1.450
54878SOL    HW266474   5.773  10.810   1.576
54879SOL     OW66475   6.294   1.069   4.870
54879SOL    HW166476   6.259   0.982   4.852
54879SOL    HW266477   6.225   1.113   4.919
54880SOL     OW66478   0.216   0.088  13.440
54880SOL    HW166479   0.198   0.073  13.532
54880SOL    HW266480   0.230   0.001  13.403
54881SOL     OW66481   5.849  12.943  13.592
54881SOL    HW166482   5.942  12.960  13.582
54881SOL    HW266483   5.831  12.874  13.528
54882SOL     OW66484   3.507   5.112  13.372
54882SOL    HW166485   3.538   5.064  13.295
54882SOL    HW266486   3.506   5.203  13.345
54883SOL     OW66487  12.884   3.603   7.993
54883SOL    HW166488  12.844   3.605   8.080
54883SOL    HW266489  12.832   3.540   7.944
54884SOL     OW66490   6.327   0.640   4.369
54884SOL    HW166491   6.422   0.636   4.372
54884SOL    HW266492   6.298   0.576   4.434
54885SOL     OW66493   2.952   8.013   5.944
54885SOL    HW166494   2.899   8.020   6.023
54885SOL    HW266495   3.026   8.072   5.958
54886SOL     OW66496   7.017  13.750   1.481
54886SOL    HW166497   6.937  13.801   1.472
54886SOL    HW266498   7.068  13.797   1.546
54887SOL     OW66499   3.260   2.431   8.198
54887SOL    HW166500   3.263   2.342   8.234
54887SOL    HW266501   3.167   2.445   8.178
54888SOL     OW66502   5.169  10.479   9.498
54888SOL    HW166503   5.157  10.552   9.438
54888SOL    HW266504   5.143  10.512   9.584
54889SOL     OW66505  11.224  11.456   9.100
54889SOL    HW166506  11.134  11.422   9.101
54889SOL    HW266507  11.215  11.546   9.070
54890SOL     OW66508   8.893  13.799   7.060
54890SOL    HW166509   8.985  13.773   7.066
54890SOL    HW266510   8.865  13.810   7.151
54891SOL     OW66511  10.409  14.301   7.406
54891SOL    HW166512  10.492  14.255   7.409
54891SOL    HW266513  10.385  14.313   7.498
54892SOL     OW66514  11.272   2.973   3.584
54892SOL    HW166515  11.338   2.911   3.613
54892SOL    HW266516  11.192   2.946   3.628
54893SOL     OW66517  12.169   6.549   4.227
54893SOL    HW166518  12.208   6.583   4.146
54893SOL    HW266519  12.182   6.455   4.222
54894SOL     OW66520   9.949   5.704   4.105
54894SOL    HW166521  10.015   5.770   4.126
54894SOL    HW266522   9.999   5.628   4.075
54895SOL     OW66523   2.772   5.312   2.746
54895SOL    HW166524   2.743   5.299   2.656
54895SOL    HW266525   2.694   5.341   2.793
54896SOL     OW66526  13.079   0.898   0.480
54896SOL    HW166527  13.159   0.846   0.489
54896SOL    HW266528  13.075   0.951   0.560
54897SOL     OW66529  14.140  10.574   7.386
54897SOL    HW166530  14.057  10.530   7.371
54897SOL    HW266531  14.177  10.531   7.463
54898SOL     OW66532   6.513  13.924   6.864
54898SOL    HW166533   6.423  13.940   6.890
54898SOL    HW266534   6.563  13.931   6.946
54899SOL     OW66535   7.353   9.883   1.472
54899SOL    HW166536   7.267   9.896   1.511
54899SOL    HW266537   7.368   9.789   1.478
54900SOL     OW66538  10.209   9.356  10.521
54900SOL    HW166539  10.230   9.316  10.437
54900SOL    HW266540  10.138   9.418  10.502
54901SOL     OW66541   2.803  13.008  12.095
54901SOL    HW166542   2.731  12.949  12.074
54901SOL    HW266543   2.879  12.970  12.051
54902SOL     OW66544   2.189   0.396   0.822
54902SOL    HW166545   2.130   0.323   0.799
54902SOL    HW266546   2.205   0.441   0.739
54903SOL     OW66547   0.773  14.291   6.585
54903SOL    HW166548   0.848  14.320   6.534
54903SOL    HW266549   0.805  14.288   6.675
54904SOL     OW66550  14.169   9.555  13.903
54904SOL    HW166551  14.212   9.476  13.871
54904SOL    HW266552  14.139   9.532  13.991
54905SOL     OW66553  12.228   1.237   5.263
54905SOL    HW166554  12.191   1.200   5.183
54905SOL    HW266555  12.296   1.175   5.289
54906SOL     OW66556   9.678   3.099   9.812
54906SOL    HW166557   9.682   3.186   9.773
54906SOL    HW266558   9.587   3.071   9.799
54907SOL     OW66559   5.452  10.481   9.566
54907SOL    HW166560   5.503  10.523   9.496
54907SOL    HW266561   5.364  10.472   9.530
54908SOL     OW66562   0.724   0.239  11.823
54908SOL    HW166563   0.740   0.148  11.847
54908SOL    HW266564   0.793   0.288  11.869
54909SOL     OW66565   2.028  13.137   1.600
54909SOL    HW166566   2.096  13.121   1.535
54909SOL    HW266567   1.949  13.096   1.564
54910SOL     OW66568  11.037   3.416   0.708
54910SOL    HW166569  11.133   3.421   0.701
54910SOL    HW266570  11.018   3.323   0.714
54911SOL     OW66571   6.000   3.767  12.360
54911SOL    HW166572   5.938   3.735  12.295
54911SOL    HW266573   6.059   3.824  12.312
54912SOL     OW66574   9.001   0.733   3.352
54912SOL    HW166575   9.071   0.717   3.289
54912SOL    HW266576   8.968   0.646   3.373
54913SOL     OW66577  10.378   9.241  14.762
54913SOL    HW166578  10.469   9.211  14.766
54913SOL    HW266579  10.384   9.336  14.760
54914SOL     OW66580   2.468   3.004   3.758
54914SOL    HW166581   2.459   2.926   3.813
54914SOL    HW266582   2.378   3.030   3.738
54915SOL     OW66583  12.700   9.390  14.799
54915SOL    HW166584  12.770   9.408  14.736
54915SOL    HW266585  12.704   9.463  14.860
54916SOL     OW66586  12.966  13.636   0.905
54916SOL    HW166587  13.031  13.608   0.840
54916SOL    HW266588  12.901  13.683   0.855
54917SOL     OW66589  13.951  10.380  14.389
54917SOL    HW166590  13.998  10.449  14.436
54917SOL    HW266591  13.931  10.314  14.455
54918SOL     OW66592   2.971   7.618   4.904
54918SOL    HW166593   2.876   7.628   4.910
54918SOL    HW266594   3.004   7.708   4.897
54919SOL     OW66595   8.869  10.997   5.400
54919SOL    HW166596   8.856  10.945   5.480
54919SOL    HW266597   8.889  11.085   5.431
54920SOL     OW66598   7.518   8.671   2.155
54920SOL    HW166599   7.518   8.578   2.132
54920SOL    HW266600   7.466   8.713   2.087
54921SOL     OW66601  14.581  10.759   2.328
54921SOL    HW166602  14.664  10.717   2.306
54921SOL    HW266603  14.596  10.794   2.416
54922SOL     OW66604  11.533   8.113   8.835
54922SOL    HW166605  11.610   8.135   8.887
54922SOL    HW266606  11.461   8.112   8.898
54923SOL     OW66607  12.696  11.306   9.716
54923SOL    HW166608  12.624  11.357   9.753
54923SOL    HW266609  12.773  11.361   9.729
54924SOL     OW66610  14.157   6.402   9.816
54924SOL    HW166611  14.067   6.418   9.843
54924SOL    HW266612  14.168   6.307   9.822
54925SOL     OW66613   1.624   6.471  10.436
54925SOL    HW166614   1.636   6.390  10.385
54925SOL    HW266615   1.710   6.514  10.432
54926SOL     OW66616   3.532  13.408   4.079
54926SOL    HW166617   3.541  13.494   4.121
54926SOL    HW266618   3.615  13.364   4.096
54927SOL     OW66619   8.041   5.694  14.423
54927SOL    HW166620   8.043   5.739  14.338
54927SOL    HW266621   8.016   5.604  14.402
54928SOL     OW66622   3.927   5.417   1.940
54928SOL    HW166623   3.869   5.402   1.866
54928SOL    HW266624   3.917   5.510   1.960
54929SOL     OW66625  11.265   7.878  12.038
54929SOL    HW166626  11.304   7.890  12.125
54929SOL    HW266627  11.233   7.787  12.039
54930SOL     OW66628  10.302   2.807  14.511
54930SOL    HW166629  10.211   2.813  14.483
54930SOL    HW266630  10.333   2.723  14.478
54931SOL     OW66631  10.780   4.597   0.929
54931SOL    HW166632  10.845   4.581   0.998
54931SOL    HW266633  10.696   4.575   0.969
54932SOL     OW66634  11.737   8.154   4.117
54932SOL    HW166635  11.674   8.223   4.096
54932SOL    HW266636  11.689   8.073   4.100
54933SOL     OW66637   7.628   5.339   7.730
54933SOL    HW166638   7.641   5.248   7.754
54933SOL    HW266639   7.708   5.365   7.684
54934SOL     OW66640  12.901  14.327   0.176
54934SOL    HW166641  12.942  14.387   0.114
54934SOL    HW266642  12.931  14.240   0.148
54935SOL     OW66643   5.818   9.084  12.693
54935SOL    HW166644   5.871   9.010  12.723
54935SOL    HW266645   5.876   9.133  12.635
54936SOL     OW66646   5.836   0.976   3.234
54936SOL    HW166647   5.785   1.005   3.158
54936SOL    HW266648   5.900   0.915   3.198
54937SOL     OW66649   3.871  14.308   4.128
54937SOL    HW166650   3.844  14.306   4.036
54937SOL    HW266651   3.901  14.398   4.142
54938SOL     OW66652   5.183   2.450   3.944
54938SOL    HW166653   5.209   2.358   3.938
54938SOL    HW266654   5.119   2.461   3.874
54939SOL     OW66655  12.167   4.820  12.513
54939SOL    HW166656  12.202   4.772  12.438
54939SOL    HW266657  12.141   4.752  12.575
54940SOL     OW66658  12.420  10.834   2.984
54940SOL    HW166659  12.358  10.873   3.046
54940SOL    HW266660  12.375  10.756   2.951
54941SOL     OW66661   4.195   6.484  12.016
54941SOL    HW166662   4.220   6.392  12.015
54941SOL    HW266663   4.243   6.523  11.943
54942SOL     OW66664  14.252  14.475   4.447
54942SOL    HW166665  14.344  14.502   4.443
54942SOL    HW266666  14.255  14.379   4.443
54943SOL     OW66667   8.689  14.877   7.649
54943SOL    HW166668   8.668   0.058   7.719
54943SOL    HW266669   8.784  14.876   7.646
54944SOL     OW66670  13.814   9.831   8.143
54944SOL    HW166671  13.852   9.917   8.124
54944SOL    HW266672  13.763   9.844   8.222
54945SOL     OW66673   6.779   2.665  11.356
54945SOL    HW166674   6.741   2.695  11.439
54945SOL    HW266675   6.848   2.729  11.336
54946SOL     OW66676  14.724   1.004  10.542
54946SOL    HW166677  14.638   1.022  10.579
54946SOL    HW266678  14.757   0.929  10.592
54947SOL     OW66679   1.250  11.393  14.837
54947SOL    HW166680   1.163  11.384  14.877
54947SOL    HW266681   1.236  11.373  14.745
54948SOL     OW66682   4.007   7.611   4.144
54948SOL    HW166683   4.094   7.641   4.167
54948SOL    HW266684   3.948   7.662   4.201
54949SOL     OW66685   7.926  12.452   3.454
54949SOL    HW166686   7.979  12.475   3.377
54949SOL    HW266687   7.874  12.531   3.471
54950SOL     OW66688   5.231   8.524   9.275
54950SOL    HW166689   5.278   8.591   9.225
54950SOL    HW266690   5.214   8.454   9.211
54951SOL     OW66691   3.458   2.908   1.432
54951SOL    HW166692   3.482   2.950   1.514
54951SOL    HW266693   3.536   2.859   1.406
54952SOL     OW66694   7.492  11.716  14.789
54952SOL    HW166695   7.495  11.621  14.802
54952SOL    HW266696   7.400  11.738  14.802
54953SOL     OW66697   5.434  13.992  10.360
54953SOL    HW166698   5.411  13.904  10.391
54953SOL    HW266699   5.374  14.008  10.287
54954SOL     OW66700  10.175   7.524   8.749
54954SOL    HW166701  10.233   7.481   8.811
54954SOL    HW266702  10.111   7.456   8.725
54955SOL     OW66703   7.714   7.432  13.903
54955SOL    HW166704   7.715   7.340  13.877
54955SOL    HW266705   7.669   7.477  13.831
54956SOL     OW66706  13.033   7.647   8.691
54956SOL    HW166707  12.957   7.700   8.710
54956SOL    HW266708  13.100   7.709   8.662
54957SOL     OW66709  10.693   6.884   3.781
54957SOL    HW166710  10.768   6.943   3.777
54957SOL    HW266711  10.617   6.941   3.790
54958SOL     OW66712   6.653   4.454   4.231
54958SOL    HW166713   6.669   4.433   4.139
54958SOL    HW266714   6.710   4.528   4.250
54959SOL     OW66715  14.636   2.279  14.435
54959SOL    HW166716  14.709   2.334  14.463
54959SOL    HW266717  14.642   2.201  14.490
54960SOL     OW66718   8.996   5.798  14.380
54960SOL    HW166719   9.037   5.850  14.449
54960SOL    HW266720   9.018   5.844  14.299
54961SOL     OW66721  13.069   5.843  14.287
54961SOL    HW166722  13.099   5.932  14.271
54961SOL    HW266723  13.000   5.829  14.222
54962SOL     OW66724   1.053  11.672   7.434
54962SOL    HW166725   1.049  11.733   7.508
54962SOL    HW266726   1.130  11.619   7.451
54963SOL     OW66727   1.313  11.390  10.320
54963SOL    HW166728   1.237  11.339  10.347
54963SOL    HW266729   1.306  11.396  10.225
54964SOL     OW66730   3.600  10.347   5.480
54964SOL    HW166731   3.511  10.314   5.465
54964SOL    HW266732   3.653  10.299   5.417
54965SOL     OW66733  10.239   8.971  12.569
54965SOL    HW166734  10.184   9.049  12.567
54965SOL    HW266735  10.227   8.931  12.483
54966SOL     OW66736  13.424   3.094  10.643
54966SOL    HW166737  13.472   3.146  10.579
54966SOL    HW266738  13.374   3.159  10.693
54967SOL     OW66739   9.065   9.635   5.034
54967SOL    HW166740   9.112   9.556   5.058
54967SOL    HW266741   8.993   9.640   5.097
54968SOL     OW66742   4.770  10.024   8.866
54968SOL    HW166743   4.819  10.099   8.902
54968SOL    HW266744   4.832   9.952   8.870
54969SOL     OW66745   1.445  11.590  10.654
54969SOL    HW166746   1.505  11.610  10.726
54969SOL    HW266747   1.416  11.675  10.623
54970SOL     OW66748   1.049   6.950   0.059
54970SOL    HW166749   1.057   6.854   0.059
54970SOL    HW266750   1.137   6.981   0.080
54971SOL     OW66751   2.602   8.114  10.071
54971SOL    HW166752   2.688   8.155  10.077
54971SOL    HW266753   2.596   8.083   9.981
54972SOL     OW66754  11.438   2.975  11.174
54972SOL    HW166755  11.467   2.921  11.247
54972SOL    HW266756  11.439   3.064  11.210
54973SOL     OW66757  14.655  14.018   8.140
54973SOL    HW166758  14.737  14.060   8.113
54973SOL    HW266759  14.641  13.949   8.075
54974SOL     OW66760   4.967   7.698   4.359
54974SOL    HW166761   5.008   7.619   4.323
54974SOL    HW266762   5.025   7.724   4.431
54975SOL     OW66763   3.996   5.153   0.950
54975SOL    HW166764   4.035   5.152   1.037
54975SOL    HW266765   3.912   5.109   0.961
54976SOL     OW66766   5.695   5.349   7.270
54976SOL    HW166767   5.774   5.330   7.320
54976SOL    HW266768   5.631   5.376   7.336
54977SOL     OW66769  10.361   3.944  10.744
54977SOL    HW166770  10.275   3.972  10.775
54977SOL    HW266771  10.417   3.947  10.822
54978SOL     OW66772  13.985  11.447   0.078
54978SOL    HW166773  14.042  11.485   0.012
54978SOL    HW266774  13.906  11.421   0.031
54979SOL     OW66775   6.758  12.533   6.816
54979SOL    HW166776   6.791  12.499   6.733
54979SOL    HW266777   6.758  12.457   6.875
54980SOL     OW66778  12.973   0.477   9.745
54980SOL    HW166779  13.007   0.556   9.785
54980SOL    HW266780  12.925   0.433   9.816
54981SOL     OW66781  14.605   9.688  12.624
54981SOL    HW166782  14.659   9.683  12.703
54981SOL    HW266783  14.618   9.604  12.580
54982SOL     OW66784  10.276   5.559   3.398
54982SOL    HW166785  10.261   5.464   3.395
54982SOL    HW266786  10.212   5.595   3.337
54983SOL     OW66787  12.454   9.309   2.447
54983SOL    HW166788  12.439   9.267   2.532
54983SOL    HW266789  12.540   9.277   2.420
54984SOL     OW66790  10.164   0.698   2.320
54984SOL    HW166791  10.216   0.626   2.355
54984SOL    HW266792  10.104   0.656   2.258
54985SOL     OW66793  11.478  14.097   2.698
54985SOL    HW166794  11.503  14.020   2.748
54985SOL    HW266795  11.457  14.163   2.765
54986SOL     OW66796   3.863  11.789   1.985
54986SOL    HW166797   3.813  11.736   2.047
54986SOL    HW266798   3.952  11.790   2.021
54987SOL     OW66799   4.577   8.198  13.594
54987SOL    HW166800   4.598   8.288  13.569
54987SOL    HW266801   4.496   8.178  13.547
54988SOL     OW66802   2.434   5.977   2.462
54988SOL    HW166803   2.417   5.886   2.486
54988SOL    HW266804   2.416   6.027   2.541
54989SOL     OW66805  11.988   2.749   3.427
54989SOL    HW166806  12.054   2.808   3.463
54989SOL    HW266807  11.994   2.671   3.481
54990SOL     OW66808  10.455   3.247  10.900
54990SOL    HW166809  10.421   3.291  10.822
54990SOL    HW266810  10.379   3.241  10.959
54991SOL     OW66811   7.871   5.808  10.041
54991SOL    HW166812   7.836   5.851  10.119
54991SOL    HW266813   7.952   5.856  10.021
54992SOL     OW66814   3.561   4.597   7.496
54992SOL    HW166815   3.623   4.650   7.446
54992SOL    HW266816   3.560   4.638   7.583
54993SOL     OW66817   0.647   1.734  11.607
54993SOL    HW166818   0.680   1.646  11.622
54993SOL    HW266819   0.554   1.728  11.631
54994SOL     OW66820   1.577   7.613   5.991
54994SOL    HW166821   1.586   7.640   5.899
54994SOL    HW266822   1.657   7.643   6.033
54995SOL     OW66823  10.496   8.986   3.758
54995SOL    HW166824  10.536   9.065   3.721
54995SOL    HW266825  10.442   8.951   3.687
54996SOL     OW66826   0.057   0.355   1.353
54996SOL    HW166827   0.086   0.428   1.408
54996SOL    HW266828   0.019   0.292   1.414
54997SOL     OW66829   2.816   6.997   5.054
54997SOL    HW166830   2.763   6.941   5.110
54997SOL    HW266831   2.906   6.969   5.071
54998SOL     OW66832   8.239   2.770  10.935
54998SOL    HW166833   8.238   2.749  11.028
54998SOL    HW266834   8.292   2.701  10.895
54999SOL     OW66835   2.916  13.302   1.458
54999SOL    HW166836   2.981  13.234   1.439
54999SOL    HW266837   2.952  13.349   1.533
55000SOL     OW66838   5.992   1.775   4.987
55000SOL    HW166839   6.052   1.843   4.956
55000SOL    HW266840   6.048   1.712   5.032
55001SOL     OW66841  14.184  13.227   4.886
55001SOL    HW166842  14.116  13.209   4.950
55001SOL    HW266843  14.166  13.166   4.814
55002SOL     OW66844   8.581   3.401  10.424
55002SOL    HW166845   8.546   3.480  10.465
55002SOL    HW266846   8.655   3.432  10.372
55003SOL     OW66847   7.461  14.415  14.383
55003SOL    HW166848   7.445  14.394  14.475
55003SOL    HW266849   7.531  14.356  14.356
55004SOL     OW66850   4.298   5.194   9.954
55004SOL    HW166851   4.334   5.109   9.978
55004SOL    HW266852   4.206   5.176   9.932
55005SOL     OW66853  12.193   8.636   4.011
55005SOL    HW166854  12.265   8.619   3.950
55005SOL    HW266855  12.175   8.550   4.050
55006SOL     OW66856  12.713   6.804  11.431
55006SOL    HW166857  12.642   6.858  11.466
55006SOL    HW266858  12.791   6.837  11.475
55007SOL     OW66859   9.976   7.068   9.553
55007SOL    HW166860   9.997   6.983   9.591
55007SOL    HW266861  10.022   7.069   9.469
55008SOL     OW66862   0.288  10.019   3.241
55008SOL    HW166863   0.382   9.999   3.241
55008SOL    HW266864   0.281  10.104   3.285
55009SOL     OW66865  10.441  13.394   2.085
55009SOL    HW166866  10.473  13.304   2.090
55009SOL    HW266867  10.353  13.386   2.047
55010SOL     OW66868   5.680   7.806   5.614
55010SOL    HW166869   5.614   7.738   5.627
55010SOL    HW266870   5.650   7.879   5.668
55011SOL     OW66871  11.185  13.107   5.873
55011SOL    HW166872  11.217  13.060   5.950
55011SOL    HW266873  11.261  13.158   5.844
55012SOL     OW66874   5.062   1.795  13.562
55012SOL    HW166875   5.088   1.775  13.652
55012SOL    HW266876   5.110   1.731  13.508
55013SOL     OW66877  14.353   4.107  13.382
55013SOL    HW166878  14.390   4.030  13.338
55013SOL    HW266879  14.427   4.145  13.429
55014SOL     OW66880  12.685   3.801   1.062
55014SOL    HW166881  12.631   3.872   1.027
55014SOL    HW266882  12.627   3.752   1.119
55015SOL     OW66883   6.091   4.024   6.930
55015SOL    HW166884   6.109   4.075   6.851
55015SOL    HW266885   6.033   3.954   6.900
55016SOL     OW66886   1.327   3.977  11.382
55016SOL    HW166887   1.283   3.927  11.313
55016SOL    HW266888   1.288   3.945  11.463
55017SOL     OW66889   1.383   1.866  12.611
55017SOL    HW166890   1.441   1.918  12.667
55017SOL    HW266891   1.295   1.895  12.634
55018SOL     OW66892   9.999   1.583  13.029
55018SOL    HW166893   9.924   1.622  13.074
55018SOL    HW266894  10.075   1.617  13.077
55019SOL     OW66895  12.040  11.218   7.664
55019SOL    HW166896  12.077  11.156   7.728
55019SOL    HW266897  11.949  11.228   7.690
55020SOL     OW66898   0.165  12.291   1.819
55020SOL    HW166899   0.259  12.299   1.837
55020SOL    HW266900   0.142  12.203   1.848
55021SOL     OW66901   6.580   3.248   6.791
55021SOL    HW166902   6.610   3.179   6.851
55021SOL    HW266903   6.488   3.262   6.816
55022SOL     OW66904   3.201   3.270   9.595
55022SOL    HW166905   3.230   3.220   9.672
55022SOL    HW266906   3.217   3.361   9.619
55023SOL     OW66907   7.492  12.074  13.846
55023SOL    HW166908   7.421  12.041  13.902
55023SOL    HW266909   7.464  12.163  13.822
55024SOL     OW66910  12.127   4.267   8.661
55024SOL    HW166911  12.218   4.261   8.690
55024SOL    HW266912  12.131   4.253   8.566
55025SOL     OW66913   5.227  12.800   5.284
55025SOL    HW166914   5.186  12.734   5.339
55025SOL    HW266915   5.219  12.765   5.195
55026SOL     OW66916  13.258  12.623   5.594
55026SOL    HW166917  13.313  12.650   5.520
55026SOL    HW266918  13.182  12.682   5.590
55027SOL     OW66919   2.093   5.145  13.627
55027SOL    HW166920   2.182   5.154  13.662
55027SOL    HW266921   2.089   5.055  13.594
55028SOL     OW66922   2.851   8.113  14.169
55028SOL    HW166923   2.842   8.198  14.126
55028SOL    HW266924   2.817   8.050  14.105
55029SOL     OW66925   4.375   0.643   9.197
55029SOL    HW166926   4.302   0.680   9.146
55029SOL    HW266927   4.338   0.564   9.236
55030SOL     OW66928  14.818   4.390   7.196
55030SOL    HW166929   0.002   4.427   7.255
55030SOL    HW266930  14.734   4.421   7.231
55031SOL     OW66931  12.655  12.260   5.485
55031SOL    HW166932  12.624  12.301   5.565
55031SOL    HW266933  12.729  12.206   5.512
55032SOL     OW66934   0.598   6.967   5.572
55032SOL    HW166935   0.689   6.945   5.555
55032SOL    HW266936   0.581   6.934   5.661
55033SOL     OW66937  13.795  11.079  13.520
55033SOL    HW166938  13.803  10.997  13.471
55033SOL    HW266939  13.802  11.052  13.612
55034SOL     OW66940  12.154  10.850   6.526
55034SOL    HW166941  12.136  10.756   6.533
55034SOL    HW266942  12.203  10.870   6.605
55035SOL     OW66943   2.236  11.897  14.254
55035SOL    HW166944   2.211  11.968  14.195
55035SOL    HW266945   2.234  11.936  14.341
55036SOL     OW66946   4.647   8.166  14.707
55036SOL    HW166947   4.682   8.239  14.758
55036SOL    HW266948   4.591   8.207  14.641
55037SOL     OW66949   4.836   7.725   9.073
55037SOL    HW166950   4.810   7.732   8.981
55037SOL    HW266951   4.907   7.660   9.073
55038SOL     OW66952  14.208  10.361   9.755
55038SOL    HW166953  14.297  10.341   9.785
55038SOL    HW266954  14.167  10.404   9.830
55039SOL     OW66955  10.967  12.475   6.396
55039SOL    HW166956  10.964  12.474   6.492
55039SOL    HW266957  10.938  12.388   6.370
55040SOL     OW66958   7.921   5.319   0.973
55040SOL    HW166959   7.872   5.323   1.055
55040SOL    HW266960   7.857   5.291   0.908
55041SOL     OW66961   0.742   0.375  11.592
55041SOL    HW166962   0.729   0.322  11.670
55041SOL    HW266963   0.795   0.449  11.622
55042SOL     OW66964   0.437  14.150   0.509
55042SOL    HW166965   0.357  14.187   0.547
55042SOL    HW266966   0.451  14.068   0.556
55043SOL     OW66967   0.059  12.114  10.274
55043SOL    HW166968   0.147  12.078  10.283
55043SOL    HW266969   0.005  12.039  10.250
55044SOL     OW66970   2.901   7.539   8.279
55044SOL    HW166971   2.920   7.506   8.367
55044SOL    HW266972   2.918   7.633   8.285
55045SOL     OW66973   4.534   4.843  11.859
55045SOL    HW166974   4.496   4.893  11.786
55045SOL    HW266975   4.469   4.851  11.929
55046SOL     OW66976   9.594  12.646  12.488
55046SOL    HW166977   9.690  12.648  12.494
55046SOL    HW266978   9.577  12.618  12.398
55047SOL     OW66979   5.694   5.534   2.373
55047SOL    HW166980   5.717   5.549   2.281
55047SOL    HW266981   5.647   5.613   2.399
55048SOL     OW66982   5.926   6.913   7.447
55048SOL    HW166983   5.869   6.983   7.416
55048SOL    HW266984   5.866   6.843   7.474
55049SOL     OW66985  11.841   1.658   7.020
55049SOL    HW166986  11.915   1.644   6.962
55049SOL    HW266987  11.875   1.644   7.108
55050SOL     OW66988  14.765  10.510   6.564
55050SOL    HW166989  14.679  10.549   6.548
55050SOL    HW266990  14.807  10.569   6.626
55051SOL     OW66991   5.215   5.928  13.904
55051SOL    HW166992   5.272   6.004  13.921
55051SOL    HW266993   5.275   5.860  13.875
55052SOL     OW66994   5.506   6.803  12.617
55052SOL    HW166995   5.563   6.859  12.669
55052SOL    HW266996   5.418   6.835  12.634
55053SOL     OW66997   7.732  13.298   6.184
55053SOL    HW166998   7.697  13.276   6.270
55053SOL    HW266999   7.825  13.275   6.189
55054SOL     OW67000  14.696   1.240   6.552
55054SOL    HW167001  14.712   1.281   6.637
55054SOL    HW267002  14.606   1.210   6.557
55055SOL     OW67003  10.496  10.587  12.416
55055SOL    HW167004  10.435  10.535  12.468
55055SOL    HW267005  10.453  10.597  12.331
55056SOL     OW67006  12.150   1.681  10.447
55056SOL    HW167007  12.171   1.639  10.364
55056SOL    HW267008  12.205   1.759  10.450
55057SOL     OW67009   4.505   1.060   6.364
55057SOL    HW167010   4.548   1.041   6.448
55057SOL    HW267011   4.574   1.046   6.299
55058SOL     OW67012  11.191   0.875   0.716
55058SOL    HW167013  11.140   0.795   0.725
55058SOL    HW267014  11.183   0.899   0.624
55059SOL     OW67015   6.496   7.571   8.719
55059SOL    HW167016   6.556   7.573   8.793
55059SOL    HW267017   6.505   7.657   8.678
55060SOL     OW67018  11.425   4.612   4.918
55060SOL    HW167019  11.458   4.656   4.996
55060SOL    HW267020  11.334   4.593   4.938
55061SOL     OW67021  13.486   8.987   9.180
55061SOL    HW167022  13.538   9.044   9.124
55061SOL    HW267023  13.407   9.037   9.198
55062SOL     OW67024   5.145   8.687   2.252
55062SOL    HW167025   5.208   8.679   2.324
55062SOL    HW267026   5.083   8.754   2.282
55063SOL     OW67027   3.315   0.869   6.217
55063SOL    HW167028   3.315   0.958   6.180
55063SOL    HW267029   3.404   0.856   6.248
55064SOL     OW67030   3.140   5.092  10.175
55064SOL    HW167031   3.176   5.112  10.262
55064SOL    HW267032   3.045   5.091  10.188
55065SOL     OW67033   8.829  10.174   6.309
55065SOL    HW167034   8.914  10.139   6.336
55065SOL    HW267035   8.845  10.268   6.296
55066SOL     OW67036   4.265  12.439   2.711
55066SOL    HW167037   4.255  12.484   2.795
55066SOL    HW267038   4.178  12.443   2.671
55067SOL     OW67039  14.625  14.505   0.941
55067SOL    HW167040  14.608  14.422   0.985
55067SOL    HW267041  14.647  14.480   0.851
55068SOL     OW67042   3.018   4.417   2.546
55068SOL    HW167043   2.945   4.416   2.485
55068SOL    HW267044   3.074   4.488   2.515
55069SOL     OW67045   9.118   8.809   8.679
55069SOL    HW167046   9.070   8.803   8.597
55069SOL    HW267047   9.210   8.812   8.653
55070SOL     OW67048   9.038  13.791  11.492
55070SOL    HW167049   9.002  13.877  11.512
55070SOL    HW267050   9.112  13.808  11.434
55071SOL     OW67051  10.030   4.197  11.853
55071SOL    HW167052   9.972   4.151  11.914
55071SOL    HW267053   9.970   4.250  11.800
55072SOL     OW67054   3.000  12.411   5.864
55072SOL    HW167055   3.077  12.452   5.904
55072SOL    HW267056   2.971  12.347   5.929
55073SOL     OW67057   1.588   8.226   7.002
55073SOL    HW167058   1.563   8.301   7.055
55073SOL    HW267059   1.658   8.259   6.946
55074SOL     OW67060   4.562   8.418   6.753
55074SOL    HW167061   4.511   8.351   6.799
55074SOL    HW267062   4.510   8.437   6.675
55075SOL     OW67063  10.043   0.612   9.377
55075SOL    HW167064  10.035   0.707   9.379
55075SOL    HW267065   9.962   0.581   9.335
55076SOL     OW67066   5.401   0.665  14.784
55076SOL    HW167067   5.454   0.693  14.859
55076SOL    HW267068   5.459   0.679  14.708
55077SOL     OW67069   4.497   4.086   8.943
55077SOL    HW167070   4.563   4.112   9.007
55077SOL    HW267071   4.494   3.991   8.948
55078SOL     OW67072  11.464  10.015   5.765
55078SOL    HW167073  11.518  10.045   5.691
55078SOL    HW267074  11.502   9.931   5.790
55079SOL     OW67075  13.873   6.431   9.084
55079SOL    HW167076  13.868   6.526   9.096
55079SOL    HW267077  13.843   6.417   8.994
55080SOL     OW67078   6.630  11.419   2.301
55080SOL    HW167079   6.684  11.342   2.283
55080SOL    HW267080   6.678  11.467   2.368
55081SOL     OW67081   9.918   7.455   6.239
55081SOL    HW167082   9.924   7.530   6.297
55081SOL    HW267083   9.985   7.394   6.270
55082SOL     OW67084  10.059   4.764   1.414
55082SOL    HW167085   9.978   4.749   1.366
55082SOL    HW267086  10.033   4.810   1.493
55083SOL     OW67087  13.658   8.691   6.634
55083SOL    HW167088  13.657   8.747   6.556
55083SOL    HW267089  13.568   8.697   6.669
55084SOL     OW67090   5.447   1.501  10.088
55084SOL    HW167091   5.505   1.547  10.150
55084SOL    HW267092   5.506   1.448  10.035
55085SOL     OW67093   7.138  14.391   6.997
55085SOL    HW167094   7.118  14.483   6.986
55085SOL    HW267095   7.124  14.353   6.910
55086SOL     OW67096   0.634   4.062   6.134
55086SOL    HW167097   0.730   4.056   6.139
55086SOL    HW267098   0.603   4.016   6.212
55087SOL     OW67099   6.732  12.696  10.064
55087SOL    HW167100   6.821  12.721  10.091
55087SOL    HW267101   6.729  12.718   9.971
55088SOL     OW67102  12.827   8.156   7.897
55088SOL    HW167103  12.853   8.066   7.916
55088SOL    HW267104  12.732   8.152   7.887
55089SOL     OW67105  13.506   6.484  13.655
55089SOL    HW167106  13.477   6.441  13.736
55089SOL    HW267107  13.601   6.478  13.658
55090SOL     OW67108   5.741   2.154   6.970
55090SOL    HW167109   5.771   2.222   7.030
55090SOL    HW267110   5.646   2.153   6.981
55091SOL     OW67111   7.962   8.866   0.420
55091SOL    HW167112   7.968   8.895   0.329
55091SOL    HW267113   7.905   8.789   0.417
55092SOL     OW67114   8.022  10.307   8.919
55092SOL    HW167115   7.978  10.389   8.941
55092SOL    HW267116   8.115  10.328   8.925
55093SOL     OW67117  13.138   8.118  10.122
55093SOL    HW167118  13.138   8.062  10.199
55093SOL    HW267119  13.052   8.160  10.122
55094SOL     OW67120   9.298  11.302   4.502
55094SOL    HW167121   9.328  11.234   4.562
55094SOL    HW267122   9.373  11.318   4.445
55095SOL     OW67123   1.920   4.824   2.390
55095SOL    HW167124   1.888   4.772   2.463
55095SOL    HW267125   1.952   4.760   2.327
55096SOL     OW67126  13.874   7.327   3.829
55096SOL    HW167127  13.842   7.407   3.870
55096SOL    HW267128  13.798   7.269   3.827
55097SOL     OW67129  11.768  10.540  13.028
55097SOL    HW167130  11.709  10.490  12.972
55097SOL    HW267131  11.833  10.477  13.057
55098SOL     OW67132  12.047  13.333   5.428
55098SOL    HW167133  12.105  13.286   5.488
55098SOL    HW267134  12.016  13.408   5.479
55099SOL     OW67135   6.009  11.240  12.322
55099SOL    HW167136   6.010  11.297  12.245
55099SOL    HW267137   6.099  11.205  12.326
55100SOL     OW67138   0.795   8.026   6.835
55100SOL    HW167139   0.803   8.083   6.758
55100SOL    HW267140   0.877   7.975   6.835
55101SOL     OW67141   6.675   1.085  10.554
55101SOL    HW167142   6.769   1.082  10.572
55101SOL    HW267143   6.665   1.037  10.472
55102SOL     OW67144   4.328  11.105   0.448
55102SOL    HW167145   4.274  11.108   0.368
55102SOL    HW267146   4.331  11.196   0.478
55103SOL     OW67147   2.787   0.518  10.933
55103SOL    HW167148   2.839   0.474  10.866
55103SOL    HW267149   2.700   0.527  10.894
55104SOL     OW67150  12.328  13.213   3.889
55104SOL    HW167151  12.261  13.211   3.958
55104SOL    HW267152  12.304  13.140   3.832
55105SOL     OW67153  10.504   0.227   6.178
55105SOL    HW167154  10.593   0.260   6.183
55105SOL    HW267155  10.480   0.209   6.269
55106SOL     OW67156   3.789   9.320   8.984
55106SOL    HW167157   3.811   9.285   9.070
55106SOL    HW267158   3.707   9.277   8.961
55107SOL     OW67159   2.656   7.326   8.786
55107SOL    HW167160   2.741   7.287   8.805
55107SOL    HW267161   2.624   7.277   8.710
55108SOL     OW67162  10.004  12.333   1.571
55108SOL    HW167163   9.957  12.401   1.617
55108SOL    HW267164  10.055  12.380   1.505
55109SOL     OW67165  14.495  12.742   4.393
55109SOL    HW167166  14.436  12.729   4.318
55109SOL    HW267167  14.522  12.833   4.387
55110SOL     OW67168   5.380   5.683   2.445
55110SOL    HW167169   5.384   5.700   2.351
55110SOL    HW267170   5.312   5.742   2.477
55111SOL     OW67171   4.075   7.583   5.283
55111SOL    HW167172   4.070   7.489   5.268
55111SOL    HW267173   4.042   7.595   5.372
55112SOL     OW67174   9.440  12.341   8.067
55112SOL    HW167175   9.361  12.376   8.023
55112SOL    HW267176   9.482  12.287   8.000
55113SOL     OW67177   6.437  13.014   7.826
55113SOL    HW167178   6.381  12.958   7.879
55113SOL    HW267179   6.377  13.055   7.763
55114SOL     OW67180   6.275   3.039  10.807
55114SOL    HW167181   6.185   3.034  10.772
55114SOL    HW267182   6.275   3.119  10.860
55115SOL     OW67183   0.164   3.236   2.757
55115SOL    HW167184   0.091   3.292   2.729
55115SOL    HW267185   0.167   3.166   2.693
55116SOL     OW67186  14.518   3.897  11.400
55116SOL    HW167187  14.473   3.873  11.481
55116SOL    HW267188  14.560   3.816  11.371
55117SOL     OW67189   1.954  14.247   5.002
55117SOL    HW167190   2.007  14.175   4.970
55117SOL    HW267191   1.923  14.292   4.924
55118SOL     OW67192  12.093  14.269   8.193
55118SOL    HW167193  12.045  14.189   8.218
55118SOL    HW267194  12.029  14.321   8.145
55119SOL     OW67195   7.277   5.000  14.637
55119SOL    HW167196   7.336   4.988  14.710
55119SOL    HW267197   7.223   5.076  14.661
55120SOL     OW67198   9.862   5.544   1.905
55120SOL    HW167199   9.931   5.488   1.870
55120SOL    HW267200   9.857   5.617   1.843
55121SOL     OW67201   3.325   3.870  11.148
55121SOL    HW167202   3.314   3.812  11.073
55121SOL    HW267203   3.236   3.884  11.180
55122SOL     OW67204   9.139   4.767   9.802
55122SOL    HW167205   9.169   4.695   9.747
55122SOL    HW267206   9.061   4.801   9.758
55123SOL     OW67207   2.798   9.745   8.465
55123SOL    HW167208   2.836   9.804   8.400
55123SOL    HW267209   2.770   9.669   8.414
55124SOL     OW67210   6.964   6.791   3.528
55124SOL    HW167211   7.052   6.765   3.500
55124SOL    HW267212   6.908   6.716   3.509
55125SOL     OW67213   7.460   5.917   2.152
55125SOL    HW167214   7.384   5.873   2.188
55125SOL    HW267215   7.487   5.978   2.221
55126SOL     OW67216   3.202  13.779   9.211
55126SOL    HW167217   3.262  13.848   9.242
55126SOL    HW267218   3.115  13.816   9.221
55127SOL     OW67219   6.472  14.623   0.494
55127SOL    HW167220   6.564  14.649   0.504
55127SOL    HW267221   6.439  14.620   0.584
55128SOL     OW67222   4.512  11.196   5.958
55128SOL    HW167223   4.582  11.134   5.978
55128SOL    HW267224   4.438  11.141   5.932
55129SOL     OW67225   7.142   5.492   7.966
55129SOL    HW167226   7.187   5.464   7.887
55129SOL    HW267227   7.053   5.512   7.937
55130SOL     OW67228  12.781  13.517  13.346
55130SOL    HW167229  12.784  13.450  13.415
55130SOL    HW267230  12.749  13.471  13.269
55131SOL     OW67231   5.463   7.174   4.161
55131SOL    HW167232   5.516   7.237   4.113
55131SOL    HW267233   5.473   7.199   4.253
55132SOL     OW67234   8.299   6.558  13.228
55132SOL    HW167235   8.375   6.609  13.201
55132SOL    HW267236   8.229   6.587  13.169
55133SOL     OW67237   2.162  11.900   4.797
55133SOL    HW167238   2.067  11.910   4.805
55133SOL    HW267239   2.177  11.877   4.705
55134SOL     OW67240   9.033  12.712  13.602
55134SOL    HW167241   8.938  12.710  13.590
55134SOL    HW267242   9.046  12.694  13.695
55135SOL     OW67243   2.406   7.144   1.059
55135SOL    HW167244   2.318   7.157   1.025
55135SOL    HW267245   2.441   7.233   1.069
55136SOL     OW67246   5.984   4.683   6.301
55136SOL    HW167247   6.047   4.630   6.348
55136SOL    HW267248   5.911   4.695   6.362
55137SOL     OW67249  14.436   7.602   0.466
55137SOL    HW167250  14.480   7.518   0.475
55137SOL    HW267251  14.430   7.615   0.371
55138SOL     OW67252  11.174  14.223   2.741
55138SOL    HW167253  11.152  14.282   2.668
55138SOL    HW267254  11.247  14.267   2.786
55139SOL     OW67255   7.129  14.321   2.169
55139SOL    HW167256   7.048  14.368   2.189
55139SOL    HW267257   7.106  14.260   2.099
55140SOL     OW67258  10.725   8.694  14.433
55140SOL    HW167259  10.707   8.724  14.522
55140SOL    HW267260  10.785   8.760  14.397
55141SOL     OW67261  11.860   6.564   6.307
55141SOL    HW167262  11.902   6.593   6.388
55141SOL    HW267263  11.771   6.542   6.332
55142SOL     OW67264   2.661  12.464   7.070
55142SOL    HW167265   2.585  12.411   7.094
55142SOL    HW267266   2.624  12.544   7.033
55143SOL     OW67267   3.905   2.116  14.445
55143SOL    HW167268   3.947   2.193  14.482
55143SOL    HW267269   3.907   2.130  14.351
55144SOL     OW67270   0.781   4.283   7.792
55144SOL    HW167271   0.841   4.216   7.760
55144SOL    HW267272   0.720   4.297   7.720
55145SOL     OW67273   0.120  10.052   0.804
55145SOL    HW167274   0.032  10.015   0.811
55145SOL    HW267275   0.120  10.126   0.865
55146SOL     OW67276   0.671   9.431   1.542
55146SOL    HW167277   0.762   9.402   1.547
55146SOL    HW267278   0.657   9.449   1.449
55147SOL     OW67279   0.188   4.407  11.397
55147SOL    HW167280   0.254   4.472  11.372
55147SOL    HW267281   0.153   4.439  11.480
55148SOL     OW67282   9.130  11.971   4.943
55148SOL    HW167283   9.089  11.890   4.972
55148SOL    HW267284   9.211  11.977   4.994
55149SOL     OW67285   8.323   2.023  11.690
55149SOL    HW167286   8.415   2.014  11.716
55149SOL    HW267287   8.289   1.933  11.692
55150SOL     OW67288   8.925   1.923   9.342
55150SOL    HW167289   9.010   1.964   9.358
55150SOL    HW267290   8.900   1.886   9.428
55151SOL     OW67291   2.977   2.629   4.476
55151SOL    HW167292   2.890   2.609   4.510
55151SOL    HW267293   3.015   2.688   4.540
55152SOL     OW67294   4.377   6.122   2.184
55152SOL    HW167295   4.395   6.035   2.148
55152SOL    HW267296   4.281   6.129   2.183
55153SOL     OW67297   8.767  12.937  14.621
55153SOL    HW167298   8.785  13.013  14.565
55153SOL    HW267299   8.772  12.972  14.710
55154SOL     OW67300   9.022  10.371   4.765
55154SOL    HW167301   9.114  10.365   4.790
55154SOL    HW267302   8.996  10.460   4.786
55155SOL     OW67303   2.383   2.850  10.692
55155SOL    HW167304   2.367   2.944  10.705
55155SOL    HW267305   2.312   2.808  10.740
55156SOL     OW67306  12.920  11.085  11.556
55156SOL    HW167307  12.904  11.037  11.475
55156SOL    HW267308  12.841  11.071  11.608
55157SOL     OW67309   5.379   0.626   5.415
55157SOL    HW167310   5.390   0.582   5.331
55157SOL    HW267311   5.413   0.714   5.400
55158SOL     OW67312   1.572   5.338  12.140
55158SOL    HW167313   1.564   5.434  12.133
55158SOL    HW267314   1.537   5.305  12.057
55159SOL     OW67315  12.899   8.290  10.287
55159SOL    HW167316  12.900   8.205  10.331
55159SOL    HW267317  12.926   8.353  10.354
55160SOL     OW67318   6.889  11.995   0.504
55160SOL    HW167319   6.835  12.000   0.425
55160SOL    HW267320   6.837  12.040   0.571
55161SOL     OW67321   4.430  13.712   7.534
55161SOL    HW167322   4.381  13.713   7.452
55161SOL    HW267323   4.513  13.756   7.513
55162SOL     OW67324   8.119   3.052   8.863
55162SOL    HW167325   8.178   2.978   8.850
55162SOL    HW267326   8.051   3.041   8.796
55163SOL     OW67327  14.428  12.848   9.811
55163SOL    HW167328  14.421  12.758   9.781
55163SOL    HW267329  14.381  12.899   9.745
55164SOL     OW67330   8.262  12.630   5.325
55164SOL    HW167331   8.349  12.594   5.307
55164SOL    HW267332   8.256  12.635   5.420
55165SOL     OW67333  10.163  14.286   0.937
55165SOL    HW167334  10.083  14.265   0.985
55165SOL    HW267335  10.158  14.233   0.857
55166SOL     OW67336  14.278   8.643  11.459
55166SOL    HW167337  14.302   8.735  11.468
55166SOL    HW267338  14.331   8.598  11.525
55167SOL     OW67339   8.886   9.535  10.291
55167SOL    HW167340   8.846   9.561  10.374
55167SOL    HW267341   8.861   9.444  10.280
55168SOL     OW67342   5.986  11.655   2.024
55168SOL    HW167343   5.945  11.623   1.943
55168SOL    HW267344   6.004  11.747   2.008
55169SOL     OW67345   6.709   1.478  11.315
55169SOL    HW167346   6.687   1.569  11.332
55169SOL    HW267347   6.695   1.434  11.399
55170SOL     OW67348   1.737   1.377   5.716
55170SOL    HW167349   1.690   1.377   5.799
55170SOL    HW267350   1.826   1.402   5.739
55171SOL     OW67351   2.034   3.635   6.863
55171SOL    HW167352   1.972   3.572   6.826
55171SOL    HW267353   2.117   3.589   6.865
55172SOL     OW67354   8.013   0.633   6.476
55172SOL    HW167355   8.106   0.636   6.499
55172SOL    HW267356   7.992   0.721   6.446
55173SOL     OW67357  10.851  13.306   6.647
55173SOL    HW167358  10.935  13.313   6.693
55173SOL    HW267359  10.788  13.349   6.705
55174SOL     OW67360  12.754  14.284  11.820
55174SOL    HW167361  12.796  14.291  11.906
55174SOL    HW267362  12.790  14.358  11.770
55175SOL     OW67363  14.022   9.033   4.390
55175SOL    HW167364  14.102   8.984   4.371
55175SOL    HW267365  14.006   9.085   4.312
55176SOL     OW67366   2.469   6.339  14.512
55176SOL    HW167367   2.404   6.272  14.534
55176SOL    HW267368   2.544   6.290  14.479
55177SOL     OW67369  13.265   3.626  13.308
55177SOL    HW167370  13.269   3.713  13.268
55177SOL    HW267371  13.178   3.621  13.348
55178SOL     OW67372  10.193  10.573  10.574
55178SOL    HW167373  10.282  10.595  10.601
55178SOL    HW267374  10.162  10.652  10.528
55179SOL     OW67375   4.779   0.371  11.269
55179SOL    HW167376   4.802   0.281  11.290
55179SOL    HW267377   4.709   0.363  11.205
55180SOL     OW67378  11.271   6.336   1.095
55180SOL    HW167379  11.232   6.423   1.099
55180SOL    HW267380  11.291   6.316   1.187
55181SOL     OW67381  12.544   7.327   9.126
55181SOL    HW167382  12.474   7.392   9.129
55181SOL    HW267383  12.561   7.314   9.033
55182SOL     OW67384   8.046  12.294  11.860
55182SOL    HW167385   8.098  12.342  11.795
55182SOL    HW267386   8.083  12.321  11.945
55183SOL     OW67387   1.449   8.024   0.799
55183SOL    HW167388   1.389   8.053   0.731
55183SOL    HW267389   1.469   7.933   0.776
55184SOL     OW67390  11.699   6.983   1.213
55184SOL    HW167391  11.668   7.069   1.243
55184SOL    HW267392  11.739   7.001   1.128
55185SOL     OW67393  10.054   5.300   9.849
55185SOL    HW167394  10.104   5.301   9.930
55185SOL    HW267395   9.977   5.246   9.868
55186SOL     OW67396   0.988  13.304   7.472
55186SOL    HW167397   0.899  13.303   7.437
55186SOL    HW267398   1.017  13.395   7.462
55187SOL     OW67399   0.256   3.797   8.763
55187SOL    HW167400   0.219   3.729   8.819
55187SOL    HW267401   0.294   3.860   8.825
55188SOL     OW67402   1.373   8.870   0.634
55188SOL    HW167403   1.297   8.917   0.668
55188SOL    HW267404   1.448   8.910   0.677
55189SOL     OW67405   2.280  12.039   9.970
55189SOL    HW167406   2.299  12.081   9.886
55189SOL    HW267407   2.253  12.111  10.028
55190SOL     OW67408   1.219   0.756   4.123
55190SOL    HW167409   1.167   0.689   4.080
55190SOL    HW267410   1.156   0.811   4.168
55191SOL     OW67411   3.619  13.052  11.000
55191SOL    HW167412   3.656  12.983  11.055
55191SOL    HW267413   3.527  13.056  11.026
55192SOL     OW67414   2.686  14.195  10.850
55192SOL    HW167415   2.656  14.199  10.759
55192SOL    HW267416   2.617  14.148  10.896
55193SOL     OW67417   4.838   7.893   1.006
55193SOL    HW167418   4.773   7.884   1.076
55193SOL    HW267419   4.863   7.803   0.984
55194SOL     OW67420   6.326   1.719   4.371
55194SOL    HW167421   6.333   1.752   4.281
55194SOL    HW267422   6.416   1.718   4.403
55195SOL     OW67423   3.248   1.377   5.397
55195SOL    HW167424   3.339   1.407   5.392
55195SOL    HW267425   3.253   1.293   5.442
55196SOL     OW67426   1.388  10.749  10.146
55196SOL    HW167427   1.389  10.738  10.050
55196SOL    HW267428   1.416  10.664  10.180
55197SOL     OW67429   7.698   7.576   7.047
55197SOL    HW167430   7.701   7.538   6.959
55197SOL    HW267431   7.643   7.654   7.037
55198SOL     OW67432   5.681  12.575   3.937
55198SOL    HW167433   5.712  12.643   3.997
55198SOL    HW267434   5.714  12.493   3.976
55199SOL     OW67435   4.435   9.147   3.778
55199SOL    HW167436   4.435   9.133   3.683
55199SOL    HW267437   4.376   9.221   3.791
55200SOL     OW67438   6.443   8.812  12.632
55200SOL    HW167439   6.498   8.736  12.650
55200SOL    HW267440   6.360   8.792  12.675
55201SOL     OW67441   2.803   5.588   4.579
55201SOL    HW167442   2.740   5.618   4.644
55201SOL    HW267443   2.854   5.520   4.625
55202SOL     OW67444   6.188   6.615   1.492
55202SOL    HW167445   6.210   6.559   1.417
55202SOL    HW267446   6.173   6.701   1.453
55203SOL     OW67447   8.233   9.204   9.558
55203SOL    HW167448   8.234   9.160   9.644
55203SOL    HW267449   8.318   9.181   9.519
55204SOL     OW67450   2.464   8.212   0.635
55204SOL    HW167451   2.479   8.305   0.615
55204SOL    HW267452   2.459   8.170   0.549
55205SOL     OW67453   9.477   8.250   8.506
55205SOL    HW167454   9.571   8.236   8.494
55205SOL    HW267455   9.436   8.174   8.464
55206SOL     OW67456   1.509   0.706   5.196
55206SOL    HW167457   1.604   0.700   5.195
55206SOL    HW267458   1.488   0.742   5.283
55207SOL     OW67459   2.295   6.712   0.433
55207SOL    HW167460   2.348   6.764   0.493
55207SOL    HW267461   2.208   6.749   0.439
55208SOL     OW67462   8.865   2.138   5.833
55208SOL    HW167463   8.860   2.162   5.740
55208SOL    HW267464   8.847   2.220   5.880
55209SOL     OW67465  11.146   7.499  14.709
55209SOL    HW167466  11.192   7.418  14.728
55209SOL    HW267467  11.089   7.513  14.785
55210SOL     OW67468   3.807   4.779   4.481
55210SOL    HW167469   3.863   4.854   4.501
55210SOL    HW267470   3.741   4.779   4.551
55211SOL     OW67471   1.150   5.989   9.339
55211SOL    HW167472   1.112   6.039   9.266
55211SOL    HW267473   1.185   6.056   9.398
55212SOL     OW67474   7.219   1.680   7.292
55212SOL    HW167475   7.279   1.636   7.353
55212SOL    HW267476   7.238   1.773   7.303
55213SOL     OW67477  14.605   6.203   3.435
55213SOL    HW167478  14.670   6.263   3.473
55213SOL    HW267479  14.602   6.130   3.496
55214SOL     OW67480   0.980   5.906   5.188
55214SOL    HW167481   0.945   5.928   5.101
55214SOL    HW267482   0.945   5.974   5.246
55215SOL     OW67483   4.147   1.077   4.446
55215SOL    HW167484   4.162   1.154   4.390
55215SOL    HW267485   4.097   1.111   4.520
55216SOL     OW67486  11.447   9.150   2.078
55216SOL    HW167487  11.436   9.057   2.057
55216SOL    HW267488  11.501   9.184   2.007
55217SOL     OW67489   6.871  12.374  12.451
55217SOL    HW167490   6.949  12.413  12.412
55217SOL    HW267491   6.848  12.302  12.391
55218SOL     OW67492  12.619   1.686   7.961
55218SOL    HW167493  12.611   1.765   8.014
55218SOL    HW267494  12.537   1.638   7.976
55219SOL     OW67495  11.905   6.386   8.637
55219SOL    HW167496  11.909   6.398   8.542
55219SOL    HW267497  11.923   6.474   8.672
55220SOL     OW67498   8.769   1.260   5.885
55220SOL    HW167499   8.753   1.169   5.912
55220SOL    HW267500   8.864   1.269   5.885
55221SOL     OW67501  10.831   5.361   8.652
55221SOL    HW167502  10.892   5.379   8.581
55221SOL    HW267503  10.821   5.266   8.652
55222SOL     OW67504  11.120  13.778   2.314
55222SOL    HW167505  11.151  13.701   2.266
55222SOL    HW267506  11.145  13.852   2.258
55223SOL     OW67507   6.376   7.339   3.556
55223SOL    HW167508   6.464   7.375   3.570
55223SOL    HW267509   6.330   7.408   3.508
55224SOL     OW67510   7.385   0.492  12.837
55224SOL    HW167511   7.417   0.485  12.747
55224SOL    HW267512   7.301   0.447  12.836
55225SOL     OW67513   0.160   5.530   5.136
55225SOL    HW167514   0.066   5.541   5.120
55225SOL    HW267515   0.181   5.598   5.200
55226SOL     OW67516  13.788  13.749   8.196
55226SOL    HW167517  13.696  13.774   8.185
55226SOL    HW267518  13.815  13.791   8.278
55227SOL     OW67519  12.377  11.642  14.792
55227SOL    HW167520  12.455  11.592  14.816
55227SOL    HW267521  12.392  11.669  14.701
55228SOL     OW67522   0.079   0.486   9.088
55228SOL    HW167523   0.136   0.412   9.066
55228SOL    HW267524   0.031   0.458   9.166
55229SOL     OW67525  11.424   5.516  14.785
55229SOL    HW167526  11.426   5.598  14.735
55229SOL    HW267527  11.510   5.513  14.827
55230SOL     OW67528  10.691  10.373  12.135
55230SOL    HW167529  10.638  10.421  12.071
55230SOL    HW267530  10.774  10.358  12.091
55231SOL     OW67531   9.461   6.907   7.378
55231SOL    HW167532   9.467   6.965   7.302
55231SOL    HW267533   9.550   6.904   7.412
55232SOL     OW67534  11.024   0.933  14.614
55232SOL    HW167535  11.059   0.844  14.620
55232SOL    HW267536  10.939   0.929  14.656
55233SOL     OW67537   7.043   1.449   2.112
55233SOL    HW167538   7.092   1.510   2.168
55233SOL    HW267539   7.075   1.467   2.024
55234SOL     OW67540   3.405   7.310   5.352
55234SOL    HW167541   3.437   7.365   5.281
55234SOL    HW267542   3.310   7.309   5.340
55235SOL     OW67543  13.123   6.000   0.749
55235SOL    HW167544  13.190   6.008   0.817
55235SOL    HW267545  13.161   5.940   0.685
55236SOL     OW67546  10.762   5.654   8.397
55236SOL    HW167547  10.819   5.663   8.473
55236SOL    HW267548  10.704   5.730   8.401
55237SOL     OW67549   3.013   6.734  11.328
55237SOL    HW167550   3.035   6.707  11.239
55237SOL    HW267551   2.918   6.726  11.334
55238SOL     OW67552   8.045  11.370   0.313
55238SOL    HW167553   8.115  11.394   0.253
55238SOL    HW267554   7.972  11.345   0.256
55239SOL     OW67555   9.860   7.218   7.471
55239SOL    HW167556   9.796   7.166   7.519
55239SOL    HW267557   9.883   7.289   7.530
55240SOL     OW67558  10.086   5.342   6.649
55240SOL    HW167559  10.131   5.357   6.566
55240SOL    HW267560  10.104   5.250   6.670
55241SOL     OW67561  11.870  14.796   1.117
55241SOL    HW167562  11.905  14.873   1.072
55241SOL    HW267563  11.788  14.776   1.071
55242SOL     OW67564   2.356  12.234   2.639
55242SOL    HW167565   2.419  12.297   2.604
55242SOL    HW267566   2.301  12.211   2.564
55243SOL     OW67567   1.800   6.997   4.993
55243SOL    HW167568   1.714   7.029   5.019
55243SOL    HW267569   1.784   6.938   4.920
55244SOL     OW67570  12.617  12.988   2.179
55244SOL    HW167571  12.626  13.058   2.114
55244SOL    HW267572  12.673  12.918   2.147
55245SOL     OW67573  10.230   0.542   1.374
55245SOL    HW167574  10.249   0.475   1.439
55245SOL    HW267575  10.306   0.601   1.378
55246SOL     OW67576   9.112  10.027   2.810
55246SOL    HW167577   9.069   9.941   2.806
55246SOL    HW267578   9.092  10.059   2.898
55247SOL     OW67579  14.734   7.480  13.284
55247SOL    HW167580  14.658   7.537  13.291
55247SOL    HW267581  14.709   7.414  13.218
55248SOL     OW67582   7.491   5.008   4.136
55248SOL    HW167583   7.533   4.933   4.179
55248SOL    HW267584   7.526   5.084   4.183
55249SOL     OW67585  10.369   0.969   3.850
55249SOL    HW167586  10.426   0.966   3.773
55249SOL    HW267587  10.400   0.896   3.905
55250SOL     OW67588   3.270   1.578   1.110
55250SOL    HW167589   3.223   1.634   1.048
55250SOL    HW267590   3.288   1.498   1.060
55251SOL     OW67591   6.769   8.179  13.369
55251SOL    HW167592   6.699   8.244  13.366
55251SOL    HW267593   6.726   8.097  13.348
55252SOL     OW67594  11.351  11.449   6.517
55252SOL    HW167595  11.405  11.372   6.534
55252SOL    HW267596  11.265  11.414   6.494
55253SOL     OW67597   0.739  12.923   6.686
55253SOL    HW167598   0.756  13.012   6.653
55253SOL    HW267599   0.649  12.927   6.718
55254SOL     OW67600   1.990  12.084  13.474
55254SOL    HW167601   2.011  12.022  13.403
55254SOL    HW267602   1.940  12.033  13.537
55255SOL     OW67603  10.869  12.021   2.480
55255SOL    HW167604  10.786  12.012   2.433
55255SOL    HW267605  10.877  12.115   2.498
55256SOL     OW67606  13.126   1.950   0.281
55256SOL    HW167607  13.165   2.012   0.342
55256SOL    HW267608  13.038   1.984   0.265
55257SOL     OW67609  13.510   4.274   8.342
55257SOL    HW167610  13.431   4.326   8.356
55257SOL    HW267611  13.573   4.336   8.305
55258SOL     OW67612  11.895   3.182   7.147
55258SOL    HW167613  11.951   3.123   7.197
55258SOL    HW267614  11.822   3.202   7.205
55259SOL     OW67615   0.264   2.999   9.854
55259SOL    HW167616   0.313   2.926   9.817
55259SOL    HW267617   0.308   3.020   9.936
55260SOL     OW67618   7.042   8.982  10.269
55260SOL    HW167619   6.977   9.039  10.227
55260SOL    HW267620   7.064   9.026  10.351
55261SOL     OW67621   1.366   4.071   0.572
55261SOL    HW167622   1.312   4.029   0.639
55261SOL    HW267623   1.433   4.006   0.551
55262SOL     OW67624   2.542  11.313   6.639
55262SOL    HW167625   2.497  11.301   6.555
55262SOL    HW267626   2.592  11.394   6.628
55263SOL     OW67627   8.612  14.664   7.477
55263SOL    HW167628   8.543  14.723   7.446
55263SOL    HW267629   8.649  14.709   7.553
55264SOL     OW67630  13.597   6.565  13.283
55264SOL    HW167631  13.583   6.563  13.377
55264SOL    HW267632  13.686   6.598  13.272
55265SOL     OW67633  14.528   6.908   9.487
55265SOL    HW167634  14.437   6.915   9.516
55265SOL    HW267635  14.525   6.843   9.416
55266SOL     OW67636   7.484  10.694   5.308
55266SOL    HW167637   7.496  10.700   5.213
55266SOL    HW267638   7.569  10.666   5.342
55267SOL     OW67639   2.545  14.862   0.489
55267SOL    HW167640   2.625  14.860   0.541
55267SOL    HW267641   2.510  14.773   0.495
55268SOL     OW67642  14.546   9.084   3.468
55268SOL    HW167643  14.576   9.076   3.377
55268SOL    HW267644  14.623   9.116   3.516
55269SOL     OW67645   9.964  11.774   1.073
55269SOL    HW167646   9.969  11.864   1.042
55269SOL    HW267647   9.893  11.735   1.022
55270SOL     OW67648   9.435   8.391  11.397
55270SOL    HW167649   9.507   8.351  11.349
55270SOL    HW267650   9.477   8.459  11.450
55271SOL     OW67651   6.197   8.869   7.422
55271SOL    HW167652   6.178   8.776   7.423
55271SOL    HW267653   6.288   8.875   7.394
55272SOL     OW67654   9.448  12.184  12.032
55272SOL    HW167655   9.388  12.197  11.959
55272SOL    HW267656   9.476  12.093  12.024
55273SOL     OW67657   6.091   7.524   9.854
55273SOL    HW167658   6.166   7.469   9.832
55273SOL    HW267659   6.031   7.466   9.901
55274SOL     OW67660   6.630  12.649  12.451
55274SOL    HW167661   6.565  12.710  12.417
55274SOL    HW267662   6.714  12.682  12.418
55275SOL     OW67663  12.043   1.206   8.375
55275SOL    HW167664  11.954   1.237   8.358
55275SOL    HW267665  12.051   1.207   8.470
55276SOL     OW67666  10.194  10.163  10.341
55276SOL    HW167667  10.176  10.196  10.429
55276SOL    HW267668  10.134  10.089  10.331
55277SOL     OW67669   7.735   5.135  10.343
55277SOL    HW167670   7.739   5.153  10.437
55277SOL    HW267671   7.769   5.215  10.302
55278SOL     OW67672  12.120   8.297   1.180
55278SOL    HW167673  12.143   8.340   1.098
55278SOL    HW267674  12.076   8.216   1.153
55279SOL     OW67675   2.376   8.605   7.973
55279SOL    HW167676   2.441   8.569   8.032
55279SOL    HW267677   2.423   8.619   7.891
55280SOL     OW67678   1.021   2.805   0.345
55280SOL    HW167679   0.953   2.829   0.408
55280SOL    HW267680   1.071   2.886   0.332
55281SOL     OW67681   4.451   3.758   1.793
55281SOL    HW167682   4.448   3.848   1.826
55281SOL    HW267683   4.414   3.764   1.704
55282SOL     OW67684   6.446   3.020   6.579
55282SOL    HW167685   6.486   3.103   6.551
55282SOL    HW267686   6.502   2.952   6.541
55283SOL     OW67687   7.230   6.196   7.548
55283SOL    HW167688   7.274   6.136   7.488
55283SOL    HW267689   7.166   6.142   7.594
55284SOL     OW67690  12.525  10.096   6.591
55284SOL    HW167691  12.560  10.008   6.603
55284SOL    HW267692  12.453  10.102   6.653
55285SOL     OW67693   6.129  10.151   9.797
55285SOL    HW167694   6.083  10.184   9.874
55285SOL    HW267695   6.108  10.058   9.795
55286SOL     OW67696   7.026   4.887   0.253
55286SOL    HW167697   7.018   4.811   0.196
55286SOL    HW267698   7.040   4.850   0.340
55287SOL     OW67699  10.336  12.018   5.154
55287SOL    HW167700  10.396  11.990   5.085
55287SOL    HW267701  10.374  12.099   5.188
55288SOL     OW67702  13.916   9.198   8.410
55288SOL    HW167703  13.988   9.144   8.377
55288SOL    HW267704  13.951   9.287   8.413
55289SOL     OW67705  13.757   7.590   0.071
55289SOL    HW167706  13.824   7.620   0.009
55289SOL    HW267707  13.786   7.503   0.097
55290SOL     OW67708   1.162  11.777   0.009
55290SOL    HW167709   1.155  11.775  14.796
55290SOL    HW267710   1.236  11.720   0.029
55291SOL     OW67711   0.210   5.249  12.916
55291SOL    HW167712   0.256   5.166  12.930
55291SOL    HW267713   0.221   5.267  12.823
55292SOL     OW67714   2.464  12.108   0.941
55292SOL    HW167715   2.519  12.177   0.905
55292SOL    HW267716   2.400  12.154   0.996
55293SOL     OW67717   9.553  12.270  14.128
55293SOL    HW167718   9.622  12.256  14.063
55293SOL    HW267719   9.556  12.364  14.146
55294SOL     OW67720   8.245  13.405   9.195
55294SOL    HW167721   8.337  13.431   9.192
55294SOL    HW267722   8.201  13.466   9.136
55295SOL     OW67723   9.114   4.280  11.894
55295SOL    HW167724   9.082   4.250  11.979
55295SOL    HW267725   9.193   4.330  11.914
55296SOL     OW67726   4.459   4.965   8.914
55296SOL    HW167727   4.485   5.050   8.948
55296SOL    HW267728   4.448   4.978   8.820
55297SOL     OW67729  13.670   9.036   0.411
55297SOL    HW167730  13.609   9.098   0.372
55297SOL    HW267731  13.755   9.080   0.406
55298SOL     OW67732  11.144  13.743   1.663
55298SOL    HW167733  11.197  13.819   1.684
55298SOL    HW267734  11.077  13.776   1.603
55299SOL     OW67735   7.658   1.298  10.363
55299SOL    HW167736   7.573   1.267  10.332
55299SOL    HW267737   7.721   1.236  10.326
55300SOL     OW67738   5.571   7.142   1.634
55300SOL    HW167739   5.648   7.195   1.614
55300SOL    HW267740   5.546   7.168   1.723
55301SOL     OW67741   8.402  11.384  12.217
55301SOL    HW167742   8.330  11.354  12.271
55301SOL    HW267743   8.380  11.475  12.196
55302SOL     OW67744   3.773   0.105   1.489
55302SOL    HW167745   3.749   0.195   1.466
55302SOL    HW267746   3.820   0.113   1.572
55303SOL     OW67747   0.280   4.472   9.835
55303SOL    HW167748   0.294   4.377   9.833
55303SOL    HW267749   0.296   4.496   9.927
55304SOL     OW67750  14.534   7.649   5.074
55304SOL    HW167751  14.464   7.601   5.031
55304SOL    HW267752  14.603   7.585   5.088
55305SOL     OW67753   5.821  11.838   9.824
55305SOL    HW167754   5.823  11.933   9.837
55305SOL    HW267755   5.740  11.810   9.867
55306SOL     OW67756   0.255   0.157  14.639
55306SOL    HW167757   0.225   0.227  14.697
55306SOL    HW267758   0.345   0.180  14.618
55307SOL     OW67759   5.701   4.240   4.495
55307SOL    HW167760   5.764   4.246   4.568
55307SOL    HW267761   5.616   4.256   4.536
55308SOL     OW67762   3.248  13.256  11.952
55308SOL    HW167763   3.332  13.276  11.912
55308SOL    HW267764   3.189  13.241  11.879
55309SOL     OW67765  14.212   1.542   2.248
55309SOL    HW167766  14.165   1.549   2.331
55309SOL    HW267767  14.189   1.456   2.214
55310SOL     OW67768   5.924  12.083   7.680
55310SOL    HW167769   5.886  12.036   7.607
55310SOL    HW267770   5.893  12.037   7.758
55311SOL     OW67771   9.480  13.944   3.055
55311SOL    HW167772   9.390  13.961   3.028
55311SOL    HW267773   9.498  13.855   3.027
55312SOL     OW67774   3.874  11.947   0.958
55312SOL    HW167775   3.900  11.880   1.021
55312SOL    HW267776   3.864  11.900   0.875
55313SOL     OW67777   0.355   4.908  14.065
55313SOL    HW167778   0.378   4.907  14.158
55313SOL    HW267779   0.423   4.856  14.023
55314SOL     OW67780   4.868   9.880  10.185
55314SOL    HW167781   4.926   9.906  10.257
55314SOL    HW267782   4.780   9.887  10.222
55315SOL     OW67783  13.646   6.191  10.125
55315SOL    HW167784  13.679   6.198  10.215
55315SOL    HW267785  13.561   6.234  10.127
55316SOL     OW67786  14.638   0.820   9.772
55316SOL    HW167787  14.733   0.827   9.759
55316SOL    HW267788  14.628   0.753   9.840
55317SOL     OW67789   7.817   4.850   2.092
55317SOL    HW167790   7.814   4.795   2.014
55317SOL    HW267791   7.762   4.926   2.071
55318SOL     OW67792   2.325  11.948   5.006
55318SOL    HW167793   2.252  11.937   4.944
55318SOL    HW267794   2.321  12.041   5.030
55319SOL     OW67795  11.815   1.930   6.368
55319SOL    HW167796  11.857   2.011   6.340
55319SOL    HW267797  11.788   1.887   6.287
55320SOL     OW67798   5.047   3.887   2.409
55320SOL    HW167799   4.975   3.872   2.470
55320SOL    HW267800   5.123   3.847   2.451
55321SOL     OW67801   9.645  14.181   5.545
55321SOL    HW167802   9.658  14.274   5.561
55321SOL    HW267803   9.558  14.175   5.505
55322SOL     OW67804  11.740   2.199   6.622
55322SOL    HW167805  11.704   2.236   6.541
55322SOL    HW267806  11.799   2.130   6.593
55323SOL     OW67807   3.728  14.474   3.263
55323SOL    HW167808   3.771  14.553   3.231
55323SOL    HW267809   3.693  14.498   3.349
55324SOL     OW67810   3.105  13.776   1.763
55324SOL    HW167811   3.055  13.790   1.683
55324SOL    HW267812   3.161  13.853   1.771
55325SOL     OW67813   6.387   7.128   0.094
55325SOL    HW167814   6.339   7.046   0.101
55325SOL    HW267815   6.466   7.114   0.145
55326SOL     OW67816   2.371  11.960  11.659
55326SOL    HW167817   2.315  12.030  11.625
55326SOL    HW267818   2.312  11.901  11.705
55327SOL     OW67819   5.534   4.166  12.571
55327SOL    HW167820   5.458   4.165  12.513
55327SOL    HW267821   5.557   4.074  12.582
55328SOL     OW67822  12.151   9.744   9.280
55328SOL    HW167823  12.107   9.763   9.363
55328SOL    HW267824  12.083   9.706   9.225
55329SOL     OW67825   1.614   9.820  10.294
55329SOL    HW167826   1.593   9.738  10.339
55329SOL    HW267827   1.536   9.874  10.305
55330SOL     OW67828   3.987   2.591  11.821
55330SOL    HW167829   4.037   2.573  11.741
55330SOL    HW267830   3.965   2.684  11.816
55331SOL     OW67831   1.279   6.221   0.392
55331SOL    HW167832   1.219   6.244   0.462
55331SOL    HW267833   1.347   6.168   0.434
55332SOL     OW67834   6.463  14.177   1.542
55332SOL    HW167835   6.381  14.219   1.519
55332SOL    HW267836   6.525  14.249   1.554
55333SOL     OW67837  10.599   8.139   0.709
55333SOL    HW167838  10.558   8.218   0.673
55333SOL    HW267839  10.577   8.070   0.646
55334SOL     OW67840  11.342   1.248  14.583
55334SOL    HW167841  11.260   1.295  14.590
55334SOL    HW267842  11.400   1.290  14.646
55335SOL     OW67843  10.762   0.160   3.509
55335SOL    HW167844  10.789   0.230   3.568
55335SOL    HW267845  10.794   0.187   3.423
55336SOL     OW67846   2.285  10.457   4.533
55336SOL    HW167847   2.323  10.516   4.467
55336SOL    HW267848   2.319  10.371   4.511
55337SOL     OW67849  11.105   7.741   7.383
55337SOL    HW167850  11.137   7.803   7.449
55337SOL    HW267851  11.156   7.762   7.304
55338SOL     OW67852   3.389   6.385   8.313
55338SOL    HW167853   3.406   6.401   8.406
55338SOL    HW267854   3.411   6.293   8.300
55339SOL     OW67855   4.071  13.858   9.265
55339SOL    HW167856   3.987  13.862   9.310
55339SOL    HW267857   4.123  13.795   9.315
55340SOL     OW67858   9.626   0.288  12.820
55340SOL    HW167859   9.553   0.249  12.773
55340SOL    HW267860   9.588   0.321  12.901
55341SOL     OW67861   5.690   6.999   4.241
55341SOL    HW167862   5.610   7.051   4.248
55341SOL    HW267863   5.744   7.048   4.180
55342SOL     OW67864   4.758   7.080  11.903
55342SOL    HW167865   4.690   7.068  11.837
55342SOL    HW267866   4.763   7.175  11.916
55343SOL     OW67867   6.472   6.140   7.524
55343SOL    HW167868   6.480   6.188   7.607
55343SOL    HW267869   6.559   6.147   7.484
55344SOL     OW67870   7.201  11.263   0.328
55344SOL    HW167871   7.291  11.235   0.309
55344SOL    HW267872   7.171  11.201   0.395
55345SOL     OW67873   1.259  13.311  10.779
55345SOL    HW167874   1.167  13.329  10.760
55345SOL    HW267875   1.303  13.396  10.767
55346SOL     OW67876   3.910   9.411  12.903
55346SOL    HW167877   3.921   9.354  12.827
55346SOL    HW267878   3.906   9.352  12.978
55347SOL     OW67879  13.811   9.956   2.416
55347SOL    HW167880  13.840  10.009   2.490
55347SOL    HW267881  13.874   9.883   2.413
55348SOL     OW67882   3.931  10.176   6.262
55348SOL    HW167883   4.008  10.127   6.292
55348SOL    HW267884   3.897  10.124   6.189
55349SOL     OW67885   1.036   0.345  14.388
55349SOL    HW167886   0.990   0.417  14.430
55349SOL    HW267887   0.977   0.314  14.320
55350SOL     OW67888  14.422   5.078  13.739
55350SOL    HW167889  14.423   4.984  13.718
55350SOL    HW267890  14.511   5.098  13.766
55351SOL     OW67891   0.681   3.401  13.234
55351SOL    HW167892   0.664   3.473  13.294
55351SOL    HW267893   0.709   3.443  13.153
55352SOL     OW67894   5.427  14.504   5.473
55352SOL    HW167895   5.375  14.468   5.545
55352SOL    HW267896   5.416  14.599   5.482
55353SOL     OW67897   9.380   5.381   3.349
55353SOL    HW167898   9.457   5.331   3.375
55353SOL    HW267899   9.319   5.316   3.315
55354SOL     OW67900   3.714   4.477  12.079
55354SOL    HW167901   3.751   4.388  12.081
55354SOL    HW267902   3.656   4.476  12.002
55355SOL     OW67903   0.894   4.862   2.559
55355SOL    HW167904   0.865   4.821   2.641
55355SOL    HW267905   0.852   4.947   2.559
55356SOL     OW67906   9.604   8.106  10.440
55356SOL    HW167907   9.669   8.052  10.485
55356SOL    HW267908   9.654   8.180  10.406
55357SOL     OW67909  14.327   2.872   5.407
55357SOL    HW167910  14.365   2.857   5.320
55357SOL    HW267911  14.372   2.950   5.440
55358SOL     OW67912   8.698   9.963  10.832
55358SOL    HW167913   8.673   9.936  10.743
55358SOL    HW267914   8.730   9.883  10.873
55359SOL     OW67915   8.848  14.278  12.155
55359SOL    HW167916   8.792  14.292  12.232
55359SOL    HW267917   8.897  14.198  12.175
55360SOL     OW67918   3.824   8.044   1.786
55360SOL    HW167919   3.760   7.984   1.749
55360SOL    HW267920   3.782   8.130   1.781
55361SOL     OW67921   3.755  11.577   2.179
55361SOL    HW167922   3.703  11.511   2.225
55361SOL    HW267923   3.807  11.619   2.248
55362SOL     OW67924  14.269   0.425   2.931
55362SOL    HW167925  14.342   0.367   2.907
55362SOL    HW267926  14.294   0.461   3.016
55363SOL     OW67927   7.975   5.907   0.169
55363SOL    HW167928   8.052   5.958   0.142
55363SOL    HW267929   7.919   5.904   0.091
55364SOL     OW67930  12.515   0.420  13.248
55364SOL    HW167931  12.549   0.343  13.203
55364SOL    HW267932  12.498   0.484  13.179
55365SOL     OW67933   4.797  14.281   8.794
55365SOL    HW167934   4.865  14.296   8.860
55365SOL    HW267935   4.817  14.194   8.760
55366SOL     OW67936  10.213   1.074  14.323
55366SOL    HW167937  10.144   1.015  14.354
55366SOL    HW267938  10.199   1.079  14.228
55367SOL     OW67939   2.353   2.135   2.974
55367SOL    HW167940   2.350   2.049   3.015
55367SOL    HW267941   2.305   2.192   3.034
55368SOL     OW67942  14.530   4.223   2.711
55368SOL    HW167943  14.489   4.142   2.742
55368SOL    HW267944  14.501   4.290   2.774
55369SOL     OW67945   9.988   2.302   7.065
55369SOL    HW167946  10.047   2.377   7.072
55369SOL    HW267947   9.989   2.262   7.152
55370SOL     OW67948   3.709   3.787  12.620
55370SOL    HW167949   3.787   3.842  12.616
55370SOL    HW267950   3.636   3.848  12.607
55371SOL     OW67951   0.130   1.441   6.931
55371SOL    HW167952   0.068   1.501   6.972
55371SOL    HW267953   0.215   1.482   6.942
55372SOL     OW67954  13.841  11.496   5.450
55372SOL    HW167955  13.831  11.403   5.474
55372SOL    HW267956  13.794  11.543   5.518
55373SOL     OW67957   2.890   5.484  13.500
55373SOL    HW167958   2.907   5.390  13.498
55373SOL    HW267959   2.814   5.493  13.557
55374SOL     OW67960   3.902   1.048  14.036
55374SOL    HW167961   3.830   0.986  14.022
55374SOL    HW267962   3.966   0.999  14.088
55375SOL     OW67963  14.398  13.198   7.722
55375SOL    HW167964  14.308  13.170   7.706
55375SOL    HW267965  14.416  13.173   7.812
55376SOL     OW67966   5.394  14.497   6.972
55376SOL    HW167967   5.403  14.473   6.880
55376SOL    HW267968   5.416  14.417   7.019
55377SOL     OW67969   5.846  14.554  14.356
55377SOL    HW167970   5.905  14.559  14.430
55377SOL    HW267971   5.870  14.473  14.311
55378SOL     OW67972   3.335   3.378   1.829
55378SOL    HW167973   3.414   3.423   1.859
55378SOL    HW267974   3.367   3.309   1.771
55379SOL     OW67975   8.712   3.995   4.480
55379SOL    HW167976   8.644   3.969   4.417
55379SOL    HW267977   8.679   4.076   4.518
55380SOL     OW67978   5.752   1.836  14.346
55380SOL    HW167979   5.769   1.883  14.264
55380SOL    HW267980   5.736   1.905  14.411
55381SOL     OW67981  11.965   9.437   4.020
55381SOL    HW167982  11.889   9.448   3.962
55381SOL    HW267983  11.929   9.446   4.108
55382SOL     OW67984   9.237  14.102   0.566
55382SOL    HW167985   9.216  14.050   0.643
55382SOL    HW267986   9.182  14.181   0.574
55383SOL     OW67987  11.506  11.163   7.983
55383SOL    HW167988  11.414  11.138   7.980
55383SOL    HW267989  11.551  11.098   7.929
55384SOL     OW67990   2.712   6.544  10.905
55384SOL    HW167991   2.642   6.576  10.961
55384SOL    HW267992   2.783   6.521  10.965
55385SOL     OW67993   4.285  11.324   7.491
55385SOL    HW167994   4.301  11.378   7.568
55385SOL    HW267995   4.258  11.387   7.424
55386SOL     OW67996   3.481  10.739   2.455
55386SOL    HW167997   3.557  10.739   2.512
55386SOL    HW267998   3.504  10.800   2.384
55387SOL     OW67999   6.744   8.973   4.557
55387SOL    HW168000   6.735   9.011   4.644
55387SOL    HW268001   6.665   9.000   4.510
55388SOL     OW68002   8.067   8.472   8.791
55388SOL    HW168003   8.053   8.532   8.718
55388SOL    HW268004   7.979   8.439   8.812
55389SOL     OW68005   7.628  10.529   8.620
55389SOL    HW168006   7.607  10.449   8.570
55389SOL    HW268007   7.722  10.522   8.638
55390SOL     OW68008   1.495   7.950   2.822
55390SOL    HW168009   1.587   7.924   2.827
55390SOL    HW268010   1.494   8.020   2.756
55391SOL     OW68011   1.700   1.499   5.125
55391SOL    HW168012   1.675   1.433   5.190
55391SOL    HW268013   1.766   1.553   5.168
55392SOL     OW68014   9.587   8.031  14.129
55392SOL    HW168015   9.648   8.045  14.202
55392SOL    HW268016   9.592   8.112  14.078
55393SOL     OW68017   9.940   3.721   6.283
55393SOL    HW168018   9.871   3.736   6.348
55393SOL    HW268019   9.970   3.809   6.259
55394SOL     OW68020   4.416   1.826   7.720
55394SOL    HW168021   4.428   1.891   7.788
55394SOL    HW268022   4.419   1.742   7.766
55395SOL     OW68023  13.083   8.443   6.861
55395SOL    HW168024  13.044   8.410   6.780
55395SOL    HW268025  13.077   8.538   6.853
55396SOL     OW68026   2.420  12.699   7.655
55396SOL    HW168027   2.353  12.677   7.590
55396SOL    HW268028   2.379  12.678   7.739
55397SOL     OW68029  12.247  10.578   7.594
55397SOL    HW168030  12.217  10.655   7.641
55397SOL    HW268031  12.273  10.516   7.662
55398SOL     OW68032   7.099   5.236   8.093
55398SOL    HW168033   7.123   5.313   8.042
55398SOL    HW268034   7.109   5.162   8.033
55399SOL     OW68035   2.074  13.076   5.478
55399SOL    HW168036   2.150  13.121   5.441
55399SOL    HW268037   2.087  12.984   5.453
55400SOL     OW68038   4.753   3.111   0.080
55400SOL    HW168039   4.759   3.018   0.058
55400SOL    HW268040   4.842   3.136   0.102
55401SOL     OW68041  14.154   5.679   6.766
55401SOL    HW168042  14.089   5.632   6.713
55401SOL    HW268043  14.237   5.633   6.749
55402SOL     OW68044   5.448   8.859   1.131
55402SOL    HW168045   5.425   8.776   1.090
55402SOL    HW268046   5.543   8.866   1.119
55403SOL     OW68047   4.535   0.444   6.360
55403SOL    HW168048   4.446   0.473   6.384
55403SOL    HW268049   4.533   0.349   6.373
55404SOL     OW68050   9.553   9.290   1.769
55404SOL    HW168051   9.508   9.212   1.801
55404SOL    HW268052   9.524   9.299   1.678
55405SOL     OW68053   2.381  10.590   4.285
55405SOL    HW168054   2.298  10.628   4.259
55405SOL    HW268055   2.438  10.665   4.301
55406SOL     OW68056  10.470   4.659   5.740
55406SOL    HW168057  10.490   4.733   5.798
55406SOL    HW268058  10.549   4.646   5.689
55407SOL     OW68059   3.613  14.016   4.411
55407SOL    HW168060   3.602  14.092   4.468
55407SOL    HW268061   3.707  14.010   4.396
55408SOL     OW68062   1.545   8.696   0.270
55408SOL    HW168063   1.539   8.643   0.349
55408SOL    HW268064   1.492   8.774   0.289
55409SOL     OW68065  13.673  11.239   5.868
55409SOL    HW168066  13.602  11.187   5.906
55409SOL    HW268067  13.753  11.201   5.904
55410SOL     OW68068   4.431   9.765  14.557
55410SOL    HW168069   4.420   9.848  14.509
55410SOL    HW268070   4.348   9.719  14.545
55411SOL     OW68071  12.767   1.451   3.522
55411SOL    HW168072  12.713   1.456   3.443
55411SOL    HW268073  12.834   1.518   3.510
55412SOL     OW68074   2.538   9.926  10.135
55412SOL    HW168075   2.576   9.960  10.054
55412SOL    HW268076   2.525  10.004  10.190
55413SOL     OW68077   4.873  12.030  11.147
55413SOL    HW168078   4.798  12.090  11.142
55413SOL    HW268079   4.886  12.002  11.056
55414SOL     OW68080   2.636  10.274  11.325
55414SOL    HW168081   2.559  10.277  11.267
55414SOL    HW268082   2.618  10.342  11.391
55415SOL     OW68083  10.609  12.556   5.016
55415SOL    HW168084  10.536  12.594   5.066
55415SOL    HW268085  10.687  12.580   5.066
55416SOL     OW68086   1.507   0.588  13.763
55416SOL    HW168087   1.497   0.603  13.857
55416SOL    HW268088   1.442   0.520  13.742
55417SOL     OW68089   9.180   6.480   7.578
55417SOL    HW168090   9.210   6.434   7.500
55417SOL    HW268091   9.209   6.570   7.565
55418SOL     OW68092   8.708   3.394  12.226
55418SOL    HW168093   8.664   3.341  12.292
55418SOL    HW268094   8.783   3.342  12.199
55419SOL     OW68095  14.510   4.104   2.061
55419SOL    HW168096  14.520   4.065   1.974
55419SOL    HW268097  14.445   4.174   2.048
55420SOL     OW68098   4.118   2.614   7.114
55420SOL    HW168099   4.168   2.602   7.195
55420SOL    HW268100   4.055   2.683   7.136
55421SOL     OW68101  10.918   7.400   0.394
55421SOL    HW168102  10.886   7.478   0.440
55421SOL    HW268103  10.928   7.334   0.462
55422SOL     OW68104   6.717  11.628   2.556
55422SOL    HW168105   6.742  11.645   2.465
55422SOL    HW268106   6.758  11.544   2.577
55423SOL     OW68107   7.565   1.726   4.613
55423SOL    HW168108   7.572   1.636   4.581
55423SOL    HW268109   7.654   1.751   4.635
55424SOL     OW68110  14.500   8.015   1.858
55424SOL    HW168111  14.524   7.972   1.940
55424SOL    HW268112  14.412   7.983   1.838
55425SOL     OW68113   4.559   9.196   8.815
55425SOL    HW168114   4.606   9.254   8.875
55425SOL    HW268115   4.528   9.124   8.871
55426SOL     OW68116   2.890   0.282  14.516
55426SOL    HW168117   2.807   0.278  14.565
55426SOL    HW268118   2.869   0.241  14.432
55427SOL     OW68119   9.988   8.044  11.398
55427SOL    HW168120   9.980   7.949  11.405
55427SOL    HW268121  10.070   8.064  11.443
55428SOL     OW68122  13.006  13.879   1.064
55428SOL    HW168123  12.959  13.930   0.998
55428SOL    HW268124  13.014  13.792   1.026
55429SOL     OW68125   2.038  10.527   8.644
55429SOL    HW168126   1.979  10.452   8.639
55429SOL    HW268127   2.125  10.490   8.636
55430SOL     OW68128   0.317   9.616   3.971
55430SOL    HW168129   0.255   9.600   4.042
55430SOL    HW268130   0.371   9.689   4.002
55431SOL     OW68131   7.144  11.969   6.870
55431SOL    HW168132   7.113  12.018   6.794
55431SOL    HW268133   7.133  12.029   6.944
55432SOL     OW68134  10.369  10.247   9.916
55432SOL    HW168135  10.427  10.218   9.987
55432SOL    HW268136  10.404  10.332   9.890
55433SOL     OW68137   6.324   8.551   8.749
55433SOL    HW168138   6.276   8.470   8.768
55433SOL    HW268139   6.306   8.607   8.825
55434SOL     OW68140  10.735   7.338  10.764
55434SOL    HW168141  10.723   7.376  10.677
55434SOL    HW268142  10.655   7.361  10.812
55435SOL     OW68143   1.132  11.062   4.173
55435SOL    HW168144   1.224  11.049   4.195
55435SOL    HW268145   1.088  10.984   4.205
55436SOL     OW68146   7.259   7.086  12.542
55436SOL    HW168147   7.207   7.006  12.538
55436SOL    HW268148   7.276   7.109  12.451
55437SOL     OW68149  11.360   9.429   6.543
55437SOL    HW168150  11.296   9.497   6.522
55437SOL    HW268151  11.324   9.349   6.504
55438SOL     OW68152   3.311  12.255   5.180
55438SOL    HW168153   3.339  12.337   5.141
55438SOL    HW268154   3.343  12.259   5.270
55439SOL     OW68155   5.631   8.068  13.495
55439SOL    HW168156   5.674   7.983  13.479
55439SOL    HW268157   5.553   8.066  13.440
55440SOL     OW68158  12.663   1.978   5.401
55440SOL    HW168159  12.696   2.016   5.319
55440SOL    HW268160  12.607   2.046   5.439
55441SOL     OW68161   1.163  11.642   9.086
55441SOL    HW168162   1.249  11.672   9.116
55441SOL    HW268163   1.167  11.652   8.990
55442SOL     OW68164   6.256  10.549   6.775
55442SOL    HW168165   6.219  10.462   6.758
55442SOL    HW268166   6.191  10.593   6.830
55443SOL     OW68167  13.166   3.206   3.662
55443SOL    HW168168  13.107   3.242   3.729
55443SOL    HW268169  13.193   3.283   3.612
55444SOL     OW68170   3.807   0.682   4.150
55444SOL    HW168171   3.749   0.645   4.216
55444SOL    HW268172   3.823   0.610   4.089
55445SOL     OW68173  11.668   1.866  13.597
55445SOL    HW168174  11.648   1.951  13.636
55445SOL    HW268175  11.620   1.803  13.651
55446SOL     OW68176  11.632   9.160   2.857
55446SOL    HW168177  11.721   9.192   2.841
55446SOL    HW268178  11.639   9.065   2.844
55447SOL     OW68179   7.408  11.730   3.196
55447SOL    HW168180   7.328  11.772   3.228
55447SOL    HW268181   7.391  11.713   3.104
55448SOL     OW68182   3.388   2.194   5.429
55448SOL    HW168183   3.336   2.133   5.376
55448SOL    HW268184   3.474   2.152   5.438
55449SOL     OW68185   2.951  14.394   7.488
55449SOL    HW168186   2.959  14.306   7.452
55449SOL    HW268187   2.940  14.451   7.412
55450SOL     OW68188   6.960  10.933   0.784
55450SOL    HW168189   6.865  10.946   0.789
55450SOL    HW268190   6.997  11.012   0.822
55451SOL     OW68191  10.608   7.438  11.687
55451SOL    HW168192  10.648   7.425  11.601
55451SOL    HW268193  10.538   7.372  11.692
55452SOL     OW68194   0.497  10.328  12.825
55452SOL    HW168195   0.458  10.285  12.748
55452SOL    HW268196   0.574  10.372  12.790
55453SOL     OW68197   6.154   4.536   6.487
55453SOL    HW168198   6.113   4.507   6.568
55453SOL    HW268199   6.157   4.458   6.432
55454SOL     OW68200   1.646   3.181   3.694
55454SOL    HW168201   1.693   3.253   3.652
55454SOL    HW268202   1.637   3.115   3.625
55455SOL     OW68203  10.128   5.136  12.036
55455SOL    HW168204  10.212   5.089  12.040
55455SOL    HW268205  10.065   5.069  12.008
55456SOL     OW68206   1.186   6.514   0.738
55456SOL    HW168207   1.160   6.425   0.713
55456SOL    HW268208   1.110   6.568   0.719
55457SOL     OW68209   8.564   2.368   1.587
55457SOL    HW168210   8.496   2.415   1.539
55457SOL    HW268211   8.642   2.376   1.533
55458SOL     OW68212   7.971   3.711   2.168
55458SOL    HW168213   7.908   3.673   2.229
55458SOL    HW268214   7.936   3.690   2.082
55459SOL     OW68215   9.327  13.729   3.910
55459SOL    HW168216   9.300  13.708   3.999
55459SOL    HW268217   9.253  13.700   3.855
55460SOL     OW68218  12.723  12.982   5.616
55460SOL    HW168219  12.712  12.996   5.521
55460SOL    HW268220  12.735  12.888   5.625
55461SOL     OW68221   6.641   7.998   2.875
55461SOL    HW168222   6.682   7.915   2.851
55461SOL    HW268223   6.565   8.004   2.817
55462SOL     OW68224   9.158  13.468  13.120
55462SOL    HW168225   9.213  13.450  13.196
55462SOL    HW268226   9.219  13.488  13.049
55463SOL     OW68227   5.039   7.059   7.153
55463SOL    HW168228   4.995   7.118   7.214
55463SOL    HW268229   5.131   7.060   7.181
55464SOL     OW68230   0.426   5.185   4.866
55464SOL    HW168231   0.374   5.106   4.880
55464SOL    HW268232   0.513   5.153   4.842
55465SOL     OW68233   9.701   5.117   2.412
55465SOL    HW168234   9.779   5.166   2.439
55465SOL    HW268235   9.673   5.071   2.492
55466SOL     OW68236   6.475   5.363  12.430
55466SOL    HW168237   6.400   5.307  12.451
55466SOL    HW268238   6.440   5.429  12.370
55467SOL     OW68239  13.719   6.606   8.590
55467SOL    HW168240  13.685   6.574   8.507
55467SOL    HW268241  13.733   6.700   8.576
55468SOL     OW68242  10.162   3.898   2.117
55468SOL    HW168243  10.108   3.862   2.046
55468SOL    HW268244  10.246   3.917   2.075
55469SOL     OW68245  14.511  13.026   4.348
55469SOL    HW168246  14.580  13.090   4.333
55469SOL    HW268247  14.432  13.078   4.364
55470SOL     OW68248   3.172   9.547  14.397
55470SOL    HW168249   3.181   9.625  14.343
55470SOL    HW268250   3.158   9.581  14.486
55471SOL     OW68251   2.610   3.598   6.880
55471SOL    HW168252   2.578   3.514   6.846
55471SOL    HW268253   2.627   3.651   6.802
55472SOL     OW68254  11.232   4.582   2.726
55472SOL    HW168255  11.168   4.511   2.723
55472SOL    HW268256  11.195   4.651   2.670
55473SOL     OW68257   6.250  13.288   1.846
55473SOL    HW168258   6.237  13.380   1.823
55473SOL    HW268259   6.327  13.261   1.796
55474SOL     OW68260   4.157  14.264  10.303
55474SOL    HW168261   4.169  14.213  10.222
55474SOL    HW268262   4.245  14.269  10.340
55475SOL     OW68263   4.026   5.117  10.429
55475SOL    HW168264   4.012   5.026  10.456
55475SOL    HW268265   3.994   5.120  10.339
55476SOL     OW68266   7.826   8.977   3.619
55476SOL    HW168267   7.895   9.023   3.667
55476SOL    HW268268   7.817   8.894   3.665
55477SOL     OW68269  14.467   2.101   3.004
55477SOL    HW168270  14.452   2.026   3.061
55477SOL    HW268271  14.381   2.120   2.967
55478SOL     OW68272  10.868   2.177   3.364
55478SOL    HW168273  10.950   2.186   3.412
55478SOL    HW268274  10.843   2.085   3.377
55479SOL     OW68275   8.507   5.877   3.340
55479SOL    HW168276   8.547   5.906   3.422
55479SOL    HW268277   8.503   5.957   3.286
55480SOL     OW68278   7.161  12.250   8.412
55480SOL    HW168279   7.080  12.269   8.459
55480SOL    HW268280   7.223  12.223   8.479
55481SOL     OW68281  13.024   0.076   5.763
55481SOL    HW168282  13.100   0.073   5.822
55481SOL    HW268283  12.991   0.165   5.772
55482SOL     OW68284   7.179  10.286  11.031
55482SOL    HW168285   7.127  10.214  10.993
55482SOL    HW268286   7.190  10.348  10.960
55483SOL     OW68287  14.768  14.017   7.654
55483SOL    HW168288  14.813  13.947   7.607
55483SOL    HW268289  14.759  13.985   7.743
55484SOL     OW68290  11.251   9.694  14.878
55484SOL    HW168291  11.305   9.622  14.847
55484SOL    HW268292  11.281   9.771  14.830
55485SOL     OW68293  12.982   8.323  11.410
55485SOL    HW168294  12.995   8.381  11.484
55485SOL    HW268295  12.953   8.380  11.339
55486SOL     OW68296   2.208   1.815  14.589
55486SOL    HW168297   2.256   1.816  14.672
55486SOL    HW268298   2.271   1.782  14.525
55487SOL     OW68299   9.177  12.260  12.196
55487SOL    HW168300   9.200  12.172  12.228
55487SOL    HW268301   9.231  12.272  12.118
55488SOL     OW68302  10.912  11.337   7.210
55488SOL    HW168303  10.820  11.334   7.185
55488SOL    HW268304  10.916  11.402   7.280
55489SOL     OW68305  10.745  10.948  13.010
55489SOL    HW168306  10.672  10.989  12.964
55489SOL    HW268307  10.812  10.937  12.943
55490SOL     OW68308   6.865  10.074   6.824
55490SOL    HW168309   6.791  10.070   6.764
55490SOL    HW268310   6.942  10.083   6.767
55491SOL     OW68311   3.753   1.299   3.383
55491SOL    HW168312   3.714   1.212   3.391
55491SOL    HW268313   3.710   1.351   3.451
55492SOL     OW68314   1.946   0.273  13.541
55492SOL    HW168315   1.977   0.214  13.609
55492SOL    HW268316   2.005   0.258  13.467
55493SOL     OW68317   2.040   0.948   8.706
55493SOL    HW168318   2.110   1.006   8.735
55493SOL    HW268319   2.019   0.895   8.783
55494SOL     OW68320   6.538  14.648   9.064
55494SOL    HW168321   6.549  14.735   9.103
55494SOL    HW268322   6.451  14.650   9.025
55495SOL     OW68323   9.193   4.307   0.235
55495SOL    HW168324   9.260   4.282   0.172
55495SOL    HW268325   9.231   4.380   0.283
55496SOL     OW68326   2.177   2.869   7.749
55496SOL    HW168327   2.269   2.889   7.764
55496SOL    HW268328   2.176   2.822   7.665
55497SOL     OW68329   6.359  10.733   2.181
55497SOL    HW168330   6.404  10.761   2.261
55497SOL    HW268331   6.419  10.758   2.110
55498SOL     OW68332  14.200   6.828  10.605
55498SOL    HW168333  14.139   6.769  10.560
55498SOL    HW268334  14.286   6.791  10.588
55499SOL     OW68335   3.649   0.197   5.497
55499SOL    HW168336   3.697   0.142   5.436
55499SOL    HW268337   3.660   0.153   5.582
55500SOL     OW68338  10.371  13.733   8.147
55500SOL    HW168339  10.386  13.814   8.196
55500SOL    HW268340  10.277  13.717   8.156
55501SOL     OW68341   8.280  10.932   1.888
55501SOL    HW168342   8.231  11.014   1.880
55501SOL    HW268343   8.214  10.864   1.873
55502SOL     OW68344   3.208   3.317  12.536
55502SOL    HW168345   3.122   3.305  12.496
55502SOL    HW268346   3.267   3.264  12.482
55503SOL     OW68347   8.432   0.481  10.001
55503SOL    HW168348   8.493   0.523   9.940
55503SOL    HW268349   8.463   0.390  10.006
55504SOL     OW68350   2.534   7.910   5.704
55504SOL    HW168351   2.443   7.926   5.729
55504SOL    HW268352   2.554   7.825   5.744
55505SOL     OW68353   4.038  10.440   0.699
55505SOL    HW168354   3.970  10.504   0.719
55505SOL    HW268355   4.120  10.484   0.721
55506SOL     OW68356   5.332  12.187   7.153
55506SOL    HW168357   5.351  12.252   7.085
55506SOL    HW268358   5.407  12.191   7.212
55507SOL     OW68359   4.318  13.983   3.021
55507SOL    HW168360   4.289  14.074   3.032
55507SOL    HW268361   4.413  13.988   3.024
55508SOL     OW68362   1.725  10.839   2.568
55508SOL    HW168363   1.733  10.829   2.473
55508SOL    HW268364   1.777  10.916   2.589
55509SOL     OW68365   1.476   4.957   7.890
55509SOL    HW168366   1.529   4.991   7.962
55509SOL    HW268367   1.432   5.035   7.855
55510SOL     OW68368   2.300  14.736  10.872
55510SOL    HW168369   2.286  14.806  10.936
55510SOL    HW268370   2.356  14.673  10.918
55511SOL     OW68371  14.145   7.559   0.217
55511SOL    HW168372  14.151   7.598   0.129
55511SOL    HW268373  14.081   7.612   0.263
55512SOL     OW68374  12.062   3.436   7.527
55512SOL    HW168375  12.089   3.388   7.448
55512SOL    HW268376  11.979   3.477   7.503
55513SOL     OW68377   4.084   1.317  14.666
55513SOL    HW168378   4.121   1.380  14.605
55513SOL    HW268379   4.160   1.280  14.712
55514SOL     OW68380   6.864   8.346  13.134
55514SOL    HW168381   6.875   8.392  13.217
55514SOL    HW268382   6.867   8.253  13.157
55515SOL     OW68383   7.483   1.291  11.247
55515SOL    HW168384   7.421   1.364  11.241
55515SOL    HW268385   7.463   1.250  11.331
55516SOL     OW68386  11.880  12.459  14.641
55516SOL    HW168387  11.847  12.372  14.622
55516SOL    HW268388  11.973  12.446  14.658
55517SOL     OW68389   7.766   2.678   5.889
55517SOL    HW168390   7.723   2.704   5.971
55517SOL    HW268391   7.697   2.631   5.841
55518SOL     OW68392   6.299   6.408   5.776
55518SOL    HW168393   6.335   6.450   5.855
55518SOL    HW268394   6.359   6.433   5.706
55519SOL     OW68395   7.714   3.456   0.689
55519SOL    HW168396   7.705   3.489   0.779
55519SOL    HW268397   7.773   3.380   0.697
55520SOL     OW68398  14.125   6.367   5.523
55520SOL    HW168399  14.090   6.300   5.463
55520SOL    HW268400  14.213   6.384   5.491
55521SOL     OW68401  11.878   4.731   5.244
55521SOL    HW168402  11.948   4.797   5.245
55521SOL    HW268403  11.922   4.649   5.226
55522SOL     OW68404  10.852   3.643   4.505
55522SOL    HW168405  10.880   3.733   4.488
55522SOL    HW268406  10.899   3.590   4.441
55523SOL     OW68407   4.061  11.818   8.415
55523SOL    HW168408   4.139  11.873   8.405
55523SOL    HW268409   4.095  11.729   8.411
55524SOL     OW68410  12.554   4.830  10.123
55524SOL    HW168411  12.482   4.825  10.185
55524SOL    HW268412  12.628   4.863  10.175
55525SOL     OW68413   4.779   7.890   1.897
55525SOL    HW168414   4.710   7.885   1.830
55525SOL    HW268415   4.782   7.983   1.921
55526SOL     OW68416  11.966   4.079  13.728
55526SOL    HW168417  11.988   3.991  13.697
55526SOL    HW268418  11.887   4.103  13.679
55527SOL     OW68419   9.956   8.930  12.138
55527SOL    HW168420   9.908   8.937  12.220
55527SOL    HW268421   9.952   8.836  12.116
55528SOL     OW68422  13.417   1.019   0.226
55528SOL    HW168423  13.468   0.956   0.175
55528SOL    HW268424  13.408   1.095   0.169
55529SOL     OW68425  11.144  12.336   4.799
55529SOL    HW168426  11.142  12.325   4.894
55529SOL    HW268427  11.092  12.414   4.783
55530SOL     OW68428   7.530  14.252   7.660
55530SOL    HW168429   7.534  14.160   7.689
55530SOL    HW268430   7.456  14.288   7.707
55531SOL     OW68431  11.832   5.469   2.931
55531SOL    HW168432  11.927   5.460   2.934
55531SOL    HW268433  11.802   5.438   3.016
55532SOL     OW68434   3.402   9.824   2.751
55532SOL    HW168435   3.342   9.862   2.687
55532SOL    HW268436   3.352   9.751   2.789
55533SOL     OW68437   6.050  13.670  12.900
55533SOL    HW168438   6.028  13.590  12.854
55533SOL    HW268439   6.068  13.734  12.831
55534SOL     OW68440   0.832   3.188  11.118
55534SOL    HW168441   0.744   3.152  11.104
55534SOL    HW268442   0.890   3.112  11.108
55535SOL     OW68443   9.431   2.543  12.224
55535SOL    HW168444   9.396   2.455  12.234
55535SOL    HW268445   9.370   2.599  12.272
55536SOL     OW68446  10.513   4.223   6.838
55536SOL    HW168447  10.592   4.213   6.784
55536SOL    HW268448  10.546   4.240   6.926
55537SOL     OW68449   6.023  12.075  14.725
55537SOL    HW168450   5.989  12.079  14.636
55537SOL    HW268451   6.054  11.985  14.735
55538SOL     OW68452   1.246   8.712  12.310
55538SOL    HW168453   1.152   8.706  12.292
55538SOL    HW268454   1.278   8.778  12.248
55539SOL     OW68455   7.414   7.086   9.932
55539SOL    HW168456   7.460   7.170   9.935
55539SOL    HW268457   7.325   7.108   9.904
55540SOL     OW68458  13.491   9.181   1.079
55540SOL    HW168459  13.484   9.270   1.045
55540SOL    HW268460  13.542   9.134   1.012
55541SOL     OW68461   1.195   4.965   2.252
55541SOL    HW168462   1.161   4.915   2.326
55541SOL    HW268463   1.118   5.005   2.212
55542SOL     OW68464   6.133  13.407   5.216
55542SOL    HW168465   6.074  13.332   5.223
55542SOL    HW268466   6.128  13.433   5.124
55543SOL     OW68467  11.623   8.491   6.796
55543SOL    HW168468  11.623   8.492   6.892
55543SOL    HW268469  11.535   8.518   6.771
55544SOL     OW68470  10.375  12.250   2.683
55544SOL    HW168471  10.349  12.243   2.592
55544SOL    HW268472  10.305  12.299   2.725
55545SOL     OW68473   7.175   5.748   7.701
55545SOL    HW168474   7.120   5.672   7.684
55545SOL    HW268475   7.114   5.816   7.728
55546SOL     OW68476   0.947   9.931   2.478
55546SOL    HW168477   0.932  10.024   2.462
55546SOL    HW268478   0.916   9.888   2.398
55547SOL     OW68479   8.771   9.683   2.550
55547SOL    HW168480   8.708   9.670   2.621
55547SOL    HW268481   8.720   9.727   2.482
55548SOL     OW68482  14.101   1.225   6.402
55548SOL    HW168483  14.183   1.235   6.451
55548SOL    HW268484  14.092   1.130   6.390
55549SOL     OW68485   7.286   8.417   7.798
55549SOL    HW168486   7.313   8.334   7.759
55549SOL    HW268487   7.358   8.477   7.778
55550SOL     OW68488   6.606  10.283  11.587
55550SOL    HW168489   6.638  10.198  11.618
55550SOL    HW268490   6.681  10.342  11.597
55551SOL     OW68491   1.113  14.509   0.797
55551SOL    HW168492   1.048  14.557   0.747
55551SOL    HW268493   1.074  14.422   0.809
55552SOL     OW68494  13.721   7.298  12.885
55552SOL    HW168495  13.784   7.335  12.947
55552SOL    HW268496  13.637   7.303  12.930
55553SOL     OW68497   0.131   2.492   9.685
55553SOL    HW168498   0.057   2.484   9.624
55553SOL    HW268499   0.129   2.409   9.734
55554SOL     OW68500   7.891   1.477   5.725
55554SOL    HW168501   7.927   1.389   5.714
55554SOL    HW268502   7.806   1.464   5.766
55555SOL     OW68503  11.053   2.428   5.989
55555SOL    HW168504  11.018   2.491   5.925
55555SOL    HW268505  11.060   2.478   6.070
55556SOL     OW68506  10.210   6.026   5.950
55556SOL    HW168507  10.233   6.092   5.884
55556SOL    HW268508  10.115   6.017   5.941
55557SOL     OW68509   1.789   7.620  10.836
55557SOL    HW168510   1.716   7.618  10.897
55557SOL    HW268511   1.771   7.695  10.779
55558SOL     OW68512   0.582  11.585  11.265
55558SOL    HW168513   0.552  11.509  11.215
55558SOL    HW268514   0.625  11.548  11.342
55559SOL     OW68515  10.350   6.158   9.986
55559SOL    HW168516  10.406   6.234   9.967
55559SOL    HW268517  10.346   6.155  10.082
55560SOL     OW68518  13.501   0.264  11.342
55560SOL    HW168519  13.579   0.210  11.351
55560SOL    HW268520  13.521   0.323  11.269
55561SOL     OW68521   7.624   4.422   5.998
55561SOL    HW168522   7.661   4.386   5.918
55561SOL    HW268523   7.586   4.506   5.971
55562SOL     OW68524   2.993   7.935   1.916
55562SOL    HW168525   2.960   7.849   1.887
55562SOL    HW268526   2.990   7.931   2.011
55563SOL     OW68527   7.020   6.598  12.308
55563SOL    HW168528   6.960   6.667  12.280
55563SOL    HW268529   7.070   6.576  12.229
55564SOL     OW68530  13.336   3.478   9.996
55564SOL    HW168531  13.242   3.492  10.008
55564SOL    HW268532  13.377   3.558  10.030
55565SOL     OW68533   5.085   0.334  11.421
55565SOL    HW168534   5.000   0.354  11.460
55565SOL    HW268535   5.089   0.238  11.420
55566SOL     OW68536   9.062  13.732   1.794
55566SOL    HW168537   9.088  13.659   1.738
55566SOL    HW268538   8.967  13.738   1.784
55567SOL     OW68539   0.300  14.488   1.439
55567SOL    HW168540   0.286  14.581   1.457
55567SOL    HW268541   0.344  14.455   1.517
55568SOL     OW68542   1.496  11.895  14.398
55568SOL    HW168543   1.532  11.913  14.311
55568SOL    HW268544   1.498  11.979  14.443
55569SOL     OW68545   9.663  12.706  14.507
55569SOL    HW168546   9.594  12.698  14.572
55569SOL    HW268547   9.617  12.712  14.423
55570SOL     OW68548   5.083   6.875   0.944
55570SOL    HW168549   5.104   6.829   0.862
55570SOL    HW268550   5.134   6.830   1.011
55571SOL     OW68551  14.722   1.722   4.280
55571SOL    HW168552  14.798   1.665   4.270
55571SOL    HW268553  14.674   1.686   4.354
55572SOL     OW68554  11.568   5.432  14.488
55572SOL    HW168555  11.493   5.402  14.540
55572SOL    HW268556  11.567   5.376  14.410
55573SOL     OW68557  11.612   6.739  12.902
55573SOL    HW168558  11.530   6.788  12.893
55573SOL    HW268559  11.679   6.797  12.867
55574SOL     OW68560   4.486   8.211   5.394
55574SOL    HW168561   4.579   8.222   5.412
55574SOL    HW268562   4.483   8.162   5.311
55575SOL     OW68563  10.548   6.178  13.439
55575SOL    HW168564  10.608   6.217  13.502
55575SOL    HW268565  10.521   6.251  13.383
55576SOL     OW68566   9.035   0.349  13.666
55576SOL    HW168567   8.951   0.306  13.675
55576SOL    HW268568   9.045   0.402  13.745
55577SOL     OW68569   3.458   9.523   1.898
55577SOL    HW168570   3.437   9.560   1.812
55577SOL    HW268571   3.496   9.596   1.947
55578SOL     OW68572   4.896   9.282  13.132
55578SOL    HW168573   4.988   9.267  13.153
55578SOL    HW268574   4.889   9.266  13.038
55579SOL     OW68575  13.950   9.306  13.363
55579SOL    HW168576  14.023   9.256  13.326
55579SOL    HW268577  13.927   9.369  13.294
55580SOL     OW68578  13.779  14.722   9.366
55580SOL    HW168579  13.770  14.806   9.412
55580SOL    HW268580  13.857  14.733   9.311
55581SOL     OW68581   8.363  11.157   3.318
55581SOL    HW168582   8.358  11.169   3.223
55581SOL    HW268583   8.279  11.116   3.341
55582SOL     OW68584  13.967   3.388   0.747
55582SOL    HW168585  13.945   3.409   0.838
55582SOL    HW268586  14.056   3.352   0.752
55583SOL     OW68587   5.644  13.899   8.370
55583SOL    HW168588   5.721  13.853   8.404
55583SOL    HW268589   5.656  13.900   8.275
55584SOL     OW68590  10.573   3.151   9.465
55584SOL    HW168591  10.601   3.075   9.414
55584SOL    HW268592  10.641   3.162   9.531
55585SOL     OW68593   8.086  11.233  13.410
55585SOL    HW168594   8.095  11.248  13.504
55585SOL    HW268595   8.014  11.290  13.383
55586SOL     OW68596  11.237   3.371   8.189
55586SOL    HW168597  11.238   3.280   8.159
55586SOL    HW268598  11.236   3.364   8.285
55587SOL     OW68599   0.334  14.665  14.249
55587SOL    HW168600   0.323  14.737  14.188
55587SOL    HW268601   0.270  14.600  14.222
55588SOL     OW68602   8.802  12.243   9.957
55588SOL    HW168603   8.758  12.198   9.886
55588SOL    HW268604   8.757  12.215  10.036
55589SOL     OW68605  10.014   4.491   7.077
55589SOL    HW168606   9.957   4.429   7.123
55589SOL    HW268607  10.102   4.467   7.105
55590SOL     OW68608   2.648  11.007   6.581
55590SOL    HW168609   2.673  11.080   6.637
55590SOL    HW268610   2.641  11.046   6.494
55591SOL     OW68611  12.324  10.034   5.198
55591SOL    HW168612  12.387   9.995   5.137
55591SOL    HW268613  12.363  10.119   5.222
55592SOL     OW68614   8.411   1.267  11.952
55592SOL    HW168615   8.392   1.174  11.941
55592SOL    HW268616   8.498   1.279  11.914
55593SOL     OW68617   9.442   0.716   0.117
55593SOL    HW168618   9.437   0.765   0.034
55593SOL    HW268619   9.358   0.671   0.122
55594SOL     OW68620   3.471  10.577  14.030
55594SOL    HW168621   3.492  10.669  14.048
55594SOL    HW268622   3.383  10.580  13.992
55595SOL     OW68623  11.522   2.486  10.452
55595SOL    HW168624  11.466   2.554  10.414
55595SOL    HW268625  11.610   2.523  10.448
55596SOL     OW68626   4.941   8.653   6.976
55596SOL    HW168627   5.035   8.671   6.986
55596SOL    HW268628   4.935   8.603   6.895
55597SOL     OW68629   8.561   0.903  12.213
55597SOL    HW168630   8.501   0.873  12.281
55597SOL    HW268631   8.573   0.827  12.155
55598SOL     OW68632  11.552   9.730   1.384
55598SOL    HW168633  11.548   9.826   1.377
55598SOL    HW268634  11.579   9.701   1.297
55599SOL     OW68635   9.995  11.682  13.864
55599SOL    HW168636   9.953  11.724  13.789
55599SOL    HW268637   9.932  11.616  13.893
55600SOL     OW68638  14.717  14.213   6.044
55600SOL    HW168639  14.695  14.277   5.976
55600SOL    HW268640  14.644  14.150   6.042
55601SOL     OW68641   1.572  12.478  12.576
55601SOL    HW168642   1.640  12.503  12.513
55601SOL    HW268643   1.503  12.438  12.522
55602SOL     OW68644   2.609   7.904   1.895
55602SOL    HW168645   2.563   7.828   1.930
55602SOL    HW268646   2.619   7.885   1.802
55603SOL     OW68647  11.432   9.381  14.865
55603SOL    HW168648  11.341   9.362   0.006
55603SOL    HW268649  11.480   9.301   0.005
55604SOL     OW68650   8.469  10.777   7.861
55604SOL    HW168651   8.457  10.734   7.946
55604SOL    HW268652   8.512  10.860   7.883
55605SOL     OW68653   9.245   4.901  10.993
55605SOL    HW168654   9.184   4.854  11.049
55605SOL    HW268655   9.214   4.992  10.993
55606SOL     OW68656  14.768   7.123  11.013
55606SOL    HW168657  14.688   7.170  10.992
55606SOL    HW268658  14.784   7.142  11.106
55607SOL     OW68659   4.676   9.917   2.131
55607SOL    HW168660   4.650   9.835   2.090
55607SOL    HW268661   4.675   9.981   2.059
55608SOL     OW68662   2.064   9.126   7.247
55608SOL    HW168663   1.980   9.101   7.284
55608SOL    HW268664   2.101   9.044   7.214
55609SOL     OW68665  11.474   4.106   9.527
55609SOL    HW168666  11.474   4.200   9.546
55609SOL    HW268667  11.516   4.066   9.603
55610SOL     OW68668   1.656   3.514  10.766
55610SOL    HW168669   1.689   3.520  10.856
55610SOL    HW268670   1.643   3.605  10.740
55611SOL     OW68671   0.047   6.042   6.891
55611SOL    HW168672   0.016   5.955   6.865
55611SOL    HW268673  14.862   6.074   6.951
55612SOL     OW68674   0.069  14.177  10.297
55612SOL    HW168675   0.012  14.180  10.221
55612SOL    HW268676   0.068  14.085  10.324
55613SOL     OW68677  13.975   6.988   1.131
55613SOL    HW168678  13.888   7.028   1.134
55613SOL    HW268679  14.011   7.017   1.047
55614SOL     OW68680  12.493  10.793   2.155
55614SOL    HW168681  12.505  10.765   2.245
55614SOL    HW268682  12.570  10.848   2.136
55615SOL     OW68683   2.054   8.272  11.217
55615SOL    HW168684   2.070   8.309  11.304
55615SOL    HW268685   2.101   8.189  11.218
55616SOL     OW68686   3.571   3.766  14.036
55616SOL    HW168687   3.639   3.763  14.103
55616SOL    HW268688   3.540   3.675  14.029
55617SOL     OW68689   1.355   3.743  12.714
55617SOL    HW168690   1.277   3.689  12.727
55617SOL    HW268691   1.363   3.795  12.794
55618SOL     OW68692   5.990   3.987   0.120
55618SOL    HW168693   6.006   3.980   0.026
55618SOL    HW268694   6.072   3.960   0.160
55619SOL     OW68695  11.005  11.140   5.174
55619SOL    HW168696  10.979  11.137   5.266
55619SOL    HW268697  10.995  11.231   5.149
55620SOL     OW68698   5.183   4.677   5.036
55620SOL    HW168699   5.153   4.592   5.005
55620SOL    HW268700   5.127   4.741   4.992
55621SOL     OW68701   4.716   0.808   0.699
55621SOL    HW168702   4.629   0.795   0.738
55621SOL    HW268703   4.778   0.788   0.769
55622SOL     OW68704  14.597   0.066   2.078
55622SOL    HW168705  14.525   0.101   2.027
55622SOL    HW268706  14.589  14.853   2.068
55623SOL     OW68707  14.282   7.541   7.626
55623SOL    HW168708  14.374   7.563   7.641
55623SOL    HW268709  14.254   7.599   7.555
55624SOL     OW68710  12.850  13.798   2.656
55624SOL    HW168711  12.911  13.862   2.619
55624SOL    HW268712  12.768  13.815   2.611
55625SOL     OW68713  12.132   7.340  12.939
55625SOL    HW168714  12.137   7.364  12.846
55625SOL    HW268715  12.122   7.245  12.939
55626SOL     OW68716  12.053  10.733   0.063
55626SOL    HW168717  12.096  10.650   0.041
55626SOL    HW268718  11.967  10.728   0.020
55627SOL     OW68719   9.637  13.492   2.446
55627SOL    HW168720   9.636  13.535   2.360
55627SOL    HW268721   9.633  13.565   2.509
55628SOL     OW68722   8.108   0.987   1.737
55628SOL    HW168723   8.147   1.059   1.687
55628SOL    HW268724   8.175   0.962   1.800
55629SOL     OW68725  12.192  10.310   9.243
55629SOL    HW168726  12.172  10.243   9.308
55629SOL    HW268727  12.113  10.318   9.190
55630SOL     OW68728  11.292   5.075  14.171
55630SOL    HW168729  11.309   5.109  14.083
55630SOL    HW268730  11.340   4.992  14.174
55631SOL     OW68731   4.209   6.088  10.371
55631SOL    HW168732   4.155   6.073  10.293
55631SOL    HW268733   4.228   6.001  10.404
55632SOL     OW68734  13.387   8.073  10.423
55632SOL    HW168735  13.345   8.150  10.386
55632SOL    HW268736  13.438   8.106  10.497
55633SOL     OW68737   1.171  12.581  12.042
55633SOL    HW168738   1.083  12.612  12.065
55633SOL    HW268739   1.167  12.566  11.948
55634SOL     OW68740   3.703   6.213   6.131
55634SOL    HW168741   3.703   6.255   6.045
55634SOL    HW268742   3.737   6.125   6.115
55635SOL     OW68743  13.815   7.300   1.119
55635SOL    HW168744  13.865   7.285   1.199
55635SOL    HW268745  13.739   7.350   1.148
55636SOL     OW68746  14.076   2.091  10.359
55636SOL    HW168747  14.077   2.042  10.277
55636SOL    HW268748  14.144   2.050  10.413
55637SOL     OW68749   2.751   6.926   1.872
55637SOL    HW168750   2.803   7.007   1.877
55637SOL    HW268751   2.668   6.948   1.914
55638SOL     OW68752   7.346  12.029   0.063
55638SOL    HW168753   7.429  11.992   0.093
55638SOL    HW268754   7.317  11.971  14.875
55639SOL     OW68755  10.631   0.163   3.954
55639SOL    HW168756  10.623   0.068   3.944
55639SOL    HW268757  10.549   0.189   3.996
55640SOL     OW68758   3.474   2.929  14.667
55640SOL    HW168759   3.512   2.879  14.739
55640SOL    HW268760   3.384   2.896  14.660
55641SOL     OW68761   5.160  11.190   6.986
55641SOL    HW168762   5.212  11.120   7.023
55641SOL    HW268763   5.088  11.145   6.941
55642SOL     OW68764   3.374   7.506   6.489
55642SOL    HW168765   3.454   7.498   6.437
55642SOL    HW268766   3.404   7.516   6.579
55643SOL     OW68767  11.141   1.808   0.822
55643SOL    HW168768  11.210   1.784   0.760
55643SOL    HW268769  11.181   1.800   0.908
55644SOL     OW68770   4.955   5.219   9.540
55644SOL    HW168771   4.885   5.153   9.543
55644SOL    HW268772   4.929   5.284   9.605
55645SOL     OW68773   9.036   6.084  10.792
55645SOL    HW168774   8.973   6.115  10.857
55645SOL    HW268775   9.062   5.998  10.823
55646SOL     OW68776  12.627   2.812   0.719
55646SOL    HW168777  12.587   2.874   0.780
55646SOL    HW268778  12.599   2.841   0.633
55647SOL     OW68779   9.575   8.789   7.493
55647SOL    HW168780   9.618   8.712   7.532
55647SOL    HW268781   9.486   8.787   7.529
55648SOL     OW68782   4.406   6.526   1.392
55648SOL    HW168783   4.393   6.432   1.384
55648SOL    HW268784   4.317   6.562   1.390
55649SOL     OW68785  12.120   0.573   8.591
55649SOL    HW168786  12.194   0.522   8.559
55649SOL    HW268787  12.157   0.630   8.658
55650SOL     OW68788   9.630  11.846  12.427
55650SOL    HW168789   9.560  11.783  12.411
55650SOL    HW268790   9.666  11.865  12.341
55651SOL     OW68791  11.295   5.164   4.904
55651SOL    HW168792  11.341   5.234   4.858
55651SOL    HW268793  11.362   5.124   4.960
55652SOL     OW68794   6.095   3.829   7.210
55652SOL    HW168795   6.145   3.871   7.140
55652SOL    HW268796   6.102   3.736   7.193
55653SOL     OW68797   2.871   8.610  14.201
55653SOL    HW168798   2.949   8.645  14.243
55653SOL    HW268799   2.809   8.683  14.202
55654SOL     OW68800   6.338   7.971   3.955
55654SOL    HW168801   6.270   7.916   3.994
55654SOL    HW268802   6.402   7.983   4.025
55655SOL     OW68803   8.466   3.334   6.900
55655SOL    HW168804   8.441   3.423   6.925
55655SOL    HW268805   8.560   3.331   6.916
55656SOL     OW68806   8.123  10.105  12.559
55656SOL    HW168807   8.166  10.047  12.622
55656SOL    HW268808   8.068  10.047  12.507
55657SOL     OW68809  10.058   2.960  14.155
55657SOL    HW168810   9.989   2.899  14.128
55657SOL    HW268811  10.010   3.038  14.184
55658SOL     OW68812   2.903   7.135  13.340
55658SOL    HW168813   2.910   7.039  13.346
55658SOL    HW268814   2.844   7.158  13.412
55659SOL     OW68815   1.208  11.815  11.151
55659SOL    HW168816   1.297  11.837  11.123
55659SOL    HW268817   1.161  11.898  11.151
55660SOL     OW68818  14.222  11.372  13.440
55660SOL    HW168819  14.146  11.320  13.416
55660SOL    HW268820  14.207  11.457  13.399
55661SOL     OW68821   6.425   4.380  13.829
55661SOL    HW168822   6.408   4.451  13.766
55661SOL    HW268823   6.338   4.357  13.862
55662SOL     OW68824   9.687   9.659   5.549
55662SOL    HW168825   9.692   9.702   5.634
55662SOL    HW268826   9.624   9.588   5.561
55663SOL     OW68827   5.991   6.926  14.510
55663SOL    HW168828   5.980   6.977  14.430
55663SOL    HW268829   6.022   6.988  14.575
55664SOL     OW68830   4.329   1.029  10.240
55664SOL    HW168831   4.401   0.984  10.285
55664SOL    HW268832   4.319   0.982  10.158
55665SOL     OW68833   6.917  12.298   1.265
55665SOL    HW168834   6.999  12.265   1.303
55665SOL    HW268835   6.925  12.393   1.269
55666SOL     OW68836   2.003  11.941  13.746
55666SOL    HW168837   1.954  11.914  13.823
55666SOL    HW268838   1.951  11.909  13.672
55667SOL     OW68839   4.580   3.705   2.237
55667SOL    HW168840   4.525   3.729   2.163
55667SOL    HW268841   4.623   3.624   2.209
55668SOL     OW68842   0.012   4.994   1.745
55668SOL    HW168843   0.015   5.045   1.664
55668SOL    HW268844   0.044   4.907   1.721
55669SOL     OW68845   7.691   8.683   3.603
55669SOL    HW168846   7.682   8.655   3.511
55669SOL    HW268847   7.652   8.770   3.605
55670SOL     OW68848   5.274  14.230   8.929
55670SOL    HW168849   5.350  14.245   8.985
55670SOL    HW268850   5.308  14.177   8.857
55671SOL     OW68851   7.689   1.646   7.728
55671SOL    HW168852   7.623   1.583   7.702
55671SOL    HW268853   7.661   1.677   7.814
55672SOL     OW68854   6.892   3.947  12.377
55672SOL    HW168855   6.946   3.926  12.301
55672SOL    HW268856   6.802   3.930  12.347
55673SOL     OW68857   2.186  10.295   7.419
55673SOL    HW168858   2.096  10.274   7.395
55673SOL    HW268859   2.180  10.327   7.509
55674SOL     OW68860  14.136   9.272  10.088
55674SOL    HW168861  14.210   9.224  10.052
55674SOL    HW268862  14.121   9.344  10.026
55675SOL     OW68863   9.496   9.349   1.444
55675SOL    HW168864   9.541   9.266   1.430
55675SOL    HW268865   9.425   9.350   1.379
55676SOL     OW68866   0.597   7.446   7.559
55676SOL    HW168867   0.603   7.412   7.648
55676SOL    HW268868   0.675   7.411   7.515
55677SOL     OW68869   7.981   9.196   8.627
55677SOL    HW168870   8.051   9.132   8.636
55677SOL    HW268871   7.937   9.194   8.712
55678SOL     OW68872   4.892   7.963   1.643
55678SOL    HW168873   4.809   7.914   1.649
55678SOL    HW268874   4.960   7.896   1.644
55679SOL     OW68875  11.484  11.324   0.715
55679SOL    HW168876  11.486  11.277   0.632
55679SOL    HW268877  11.430  11.401   0.697
55680SOL     OW68878   2.470  13.009   7.846
55680SOL    HW168879   2.405  13.076   7.866
55680SOL    HW268880   2.483  13.016   7.752
55681SOL     OW68881  12.820  14.323   7.381
55681SOL    HW168882  12.870  14.344   7.459
55681SOL    HW268883  12.857  14.379   7.313
55682SOL     OW68884   8.084   0.757  10.694
55682SOL    HW168885   8.141   0.811  10.748
55682SOL    HW268886   8.122   0.761  10.606
55683SOL     OW68887   3.486  13.912   3.526
55683SOL    HW168888   3.534  13.863   3.459
55683SOL    HW268889   3.524  14.000   3.524
55684SOL     OW68890  10.643   1.806   6.807
55684SOL    HW168891  10.616   1.738   6.869
55684SOL    HW268892  10.672   1.879   6.862
55685SOL     OW68893   4.492  14.072   4.344
55685SOL    HW168894   4.488  14.148   4.285
55685SOL    HW268895   4.579  14.035   4.329
55686SOL     OW68896   8.042  10.384  11.827
55686SOL    HW168897   8.080  10.453  11.772
55686SOL    HW268898   8.041  10.307  11.770
55687SOL     OW68899   1.311   3.571   9.829
55687SOL    HW168900   1.323   3.477   9.837
55687SOL    HW268901   1.216   3.584   9.830
55688SOL     OW68902  14.384   6.474   2.755
55688SOL    HW168903  14.448   6.410   2.723
55688SOL    HW268904  14.352   6.436   2.837
55689SOL     OW68905   3.956   0.359   7.697
55689SOL    HW168906   3.939   0.287   7.636
55689SOL    HW268907   4.041   0.394   7.671
55690SOL     OW68908  13.198   2.052   8.756
55690SOL    HW168909  13.239   2.016   8.678
55690SOL    HW268910  13.178   2.143   8.733
55691SOL     OW68911   7.393   1.733  12.606
55691SOL    HW168912   7.302   1.711  12.626
55691SOL    HW268913   7.436   1.735  12.691
55692SOL     OW68914  11.270  10.773   2.060
55692SOL    HW168915  11.282  10.682   2.087
55692SOL    HW268916  11.232  10.816   2.136
55693SOL     OW68917  11.580  13.843   2.859
55693SOL    HW168918  11.673  13.861   2.873
55693SOL    HW268919  11.541  13.853   2.946
55694SOL     OW68920   8.886   9.055   6.547
55694SOL    HW168921   8.864   9.038   6.639
55694SOL    HW268922   8.903   9.150   6.545
55695SOL     OW68923   5.079   0.575   4.040
55695SOL    HW168924   4.999   0.546   4.083
55695SOL    HW268925   5.052   0.650   3.987
55696SOL     OW68926   1.642   0.652  10.937
55696SOL    HW168927   1.716   0.612  10.890
55696SOL    HW268928   1.675   0.737  10.965
55697SOL     OW68929  11.873  12.485  12.591
55697SOL    HW168930  11.899  12.556  12.531
55697SOL    HW268931  11.955  12.458  12.632
55698SOL     OW68932   1.552   6.711   5.311
55698SOL    HW168933   1.635   6.759   5.308
55698SOL    HW268934   1.491   6.765   5.262
55699SOL     OW68935   9.145   3.171  14.623
55699SOL    HW168936   9.217   3.176  14.561
55699SOL    HW268937   9.152   3.251  14.675
55700SOL     OW68938   5.563   2.321   3.982
55700SOL    HW168939   5.574   2.305   3.888
55700SOL    HW268940   5.650   2.349   4.011
55701SOL     OW68941   1.900  13.417  14.388
55701SOL    HW168942   1.844  13.433  14.464
55701SOL    HW268943   1.845  13.438  14.313
55702SOL     OW68944  14.691   9.244   1.856
55702SOL    HW168945  14.782   9.272   1.850
55702SOL    HW268946  14.672   9.206   1.770
55703SOL     OW68947  11.623  10.077   7.764
55703SOL    HW168948  11.699  10.115   7.808
55703SOL    HW268949  11.554  10.076   7.830
55704SOL     OW68950  10.834  14.187   3.834
55704SOL    HW168951  10.766  14.224   3.778
55704SOL    HW268952  10.816  14.093   3.833
55705SOL     OW68953  11.802   8.690  10.819
55705SOL    HW168954  11.792   8.654  10.730
55705SOL    HW268955  11.805   8.785  10.806
55706SOL     OW68956  14.049  10.373  12.127
55706SOL    HW168957  14.037  10.310  12.057
55706SOL    HW268958  14.022  10.457  12.089
55707SOL     OW68959   1.236   4.414   6.009
55707SOL    HW168960   1.213   4.488   6.066
55707SOL    HW268961   1.173   4.419   5.937
55708SOL     OW68962   1.325  10.614   2.377
55708SOL    HW168963   1.323  10.666   2.297
55708SOL    HW268964   1.351  10.675   2.446
55709SOL     OW68965   6.343   6.226  10.036
55709SOL    HW168966   6.355   6.301   9.979
55709SOL    HW268967   6.326   6.153   9.976
55710SOL     OW68968  10.551  11.821   9.550
55710SOL    HW168969  10.613  11.863   9.490
55710SOL    HW268970  10.476  11.880   9.551
55711SOL     OW68971   7.129  10.252   8.559
55711SOL    HW168972   7.223  10.250   8.543
55711SOL    HW268973   7.090  10.213   8.481
55712SOL     OW68974   4.091   7.682   5.923
55712SOL    HW168975   4.085   7.683   6.018
55712SOL    HW268976   4.174   7.727   5.904
55713SOL     OW68977   4.475  13.278  13.592
55713SOL    HW168978   4.385  13.310  13.596
55713SOL    HW268979   4.526  13.354  13.561
55714SOL     OW68980   3.876   9.258   0.176
55714SOL    HW168981   3.870   9.344   0.218
55714SOL    HW268982   3.812   9.204   0.222
55715SOL     OW68983   0.784  14.108  13.834
55715SOL    HW168984   0.869  14.064  13.843
55715SOL    HW268985   0.741  14.094  13.918
55716SOL     OW68986  11.189   2.385  12.537
55716SOL    HW168987  11.183   2.400  12.443
55716SOL    HW268988  11.208   2.292  12.545
55717SOL     OW68989   2.764   2.622   9.908
55717SOL    HW168990   2.840   2.616   9.966
55717SOL    HW268991   2.695   2.574   9.954
55718SOL     OW68992   0.608   6.522   6.756
55718SOL    HW168993   0.536   6.581   6.735
55718SOL    HW268994   0.632   6.544   6.846
55719SOL     OW68995   9.401  13.044   3.170
55719SOL    HW168996   9.430  12.973   3.226
55719SOL    HW268997   9.312  13.021   3.145
55720SOL     OW68998  12.759   3.263  14.548
55720SOL    HW168999  12.683   3.292  14.599
55720SOL    HW269000  12.736   3.174  14.519
55721SOL     OW69001  14.816   3.353   2.649
55721SOL    HW169002  14.765   3.393   2.579
55721SOL    HW269003  14.752   3.307   2.703
55722SOL     OW69004   9.954  10.294   6.639
55722SOL    HW169005   9.876  10.347   6.622
55722SOL    HW269006   9.924  10.204   6.627
55723SOL     OW69007  11.630   5.038   3.687
55723SOL    HW169008  11.641   5.133   3.676
55723SOL    HW269009  11.542   5.028   3.722
55724SOL     OW69010  14.302   3.628   6.035
55724SOL    HW169011  14.341   3.611   5.949
55724SOL    HW269012  14.253   3.549   6.055
55725SOL     OW69013   7.137   2.667   8.323
55725SOL    HW169014   7.173   2.585   8.290
55725SOL    HW269015   7.204   2.733   8.302
55726SOL     OW69016  14.377   3.149   5.212
55726SOL    HW169017  14.380   3.243   5.194
55726SOL    HW269018  14.432   3.110   5.144
55727SOL     OW69019   1.025  10.567   7.578
55727SOL    HW169020   1.001  10.599   7.492
55727SOL    HW269021   1.119  10.586   7.585
55728SOL     OW69022   6.885   9.977   0.583
55728SOL    HW169023   6.819   9.908   0.577
55728SOL    HW269024   6.951   9.952   0.519
55729SOL     OW69025   4.535  11.427   3.300
55729SOL    HW169026   4.615  11.441   3.349
55729SOL    HW269027   4.495  11.350   3.340
55730SOL     OW69028   8.358  11.334   1.125
55730SOL    HW169029   8.378  11.428   1.122
55730SOL    HW269030   8.363  11.305   1.034
55731SOL     OW69031   5.533   8.359   3.719
55731SOL    HW169032   5.570   8.351   3.807
55731SOL    HW269033   5.440   8.373   3.734
55732SOL     OW69034  11.377   1.288   2.390
55732SOL    HW169035  11.360   1.379   2.414
55732SOL    HW269036  11.291   1.248   2.385
55733SOL     OW69037   7.828   0.262  13.220
55733SOL    HW169038   7.870   0.243  13.137
55733SOL    HW269039   7.739   0.226  13.211
55734SOL     OW69040   3.428   5.486   0.142
55734SOL    HW169041   3.452   5.450   0.227
55734SOL    HW269042   3.334   5.470   0.134
55735SOL     OW69043   7.932   9.141  12.673
55735SOL    HW169044   7.968   9.115  12.588
55735SOL    HW269045   7.972   9.080  12.736
55736SOL     OW69046   0.252   5.618   8.011
55736SOL    HW169047   0.233   5.689   8.072
55736SOL    HW269048   0.173   5.610   7.957
55737SOL     OW69049   0.005   0.747   4.118
55737SOL    HW169050  14.812   0.741   4.178
55737SOL    HW269051   0.001   0.666   4.067
55738SOL     OW69052   9.316   7.177   6.356
55738SOL    HW169053   9.335   7.086   6.336
55738SOL    HW269054   9.401   7.219   6.364
55739SOL     OW69055  10.267   7.594   2.715
55739SOL    HW169056  10.341   7.623   2.662
55739SOL    HW269057  10.251   7.504   2.686
55740SOL     OW69058  10.051   4.035   7.270
55740SOL    HW169059   9.969   4.002   7.234
55740SOL    HW269060  10.025   4.108   7.326
55741SOL     OW69061   2.739   0.460   7.776
55741SOL    HW169062   2.646   0.443   7.792
55741SOL    HW269063   2.765   0.519   7.846
55742SOL     OW69064  10.242  14.424   7.623
55742SOL    HW169065  10.280  14.421   7.711
55742SOL    HW269066  10.285  14.499   7.581
55743SOL     OW69067  11.005   2.116   8.115
55743SOL    HW169068  11.033   2.039   8.165
55743SOL    HW269069  11.038   2.101   8.027
55744SOL     OW69070   1.556  13.398   0.555
55744SOL    HW169071   1.503  13.328   0.516
55744SOL    HW269072   1.638  13.355   0.578
55745SOL     OW69073  11.893   4.237   3.498
55745SOL    HW169074  11.939   4.319   3.516
55745SOL    HW269075  11.913   4.219   3.406
55746SOL     OW69076   3.000   8.152   0.865
55746SOL    HW169077   2.983   8.093   0.939
55746SOL    HW269078   3.092   8.176   0.873
55747SOL     OW69079   8.406  10.915   8.706
55747SOL    HW169080   8.337  10.899   8.642
55747SOL    HW269081   8.391  11.004   8.736
55748SOL     OW69082   6.641   5.675   8.212
55748SOL    HW169083   6.702   5.748   8.223
55748SOL    HW269084   6.676   5.606   8.269
55749SOL     OW69085   5.384   5.290  12.740
55749SOL    HW169086   5.416   5.283  12.829
55749SOL    HW269087   5.309   5.349  12.746
55750SOL     OW69088   0.022   0.139   0.017
55750SOL    HW169089   0.081   0.154   0.091
55750SOL    HW269090   0.042   0.209  14.837
55751SOL     OW69091   1.457  10.732  14.609
55751SOL    HW169092   1.423  10.656  14.561
55751SOL    HW269093   1.394  10.802  14.591
55752SOL     OW69094   6.004   0.945   3.456
55752SOL    HW169095   5.928   0.946   3.398
55752SOL    HW269096   6.021   1.037   3.476
55753SOL     OW69097  11.944  10.672   2.324
55753SOL    HW169098  11.872  10.616   2.293
55753SOL    HW269099  11.997  10.686   2.246
55754SOL     OW69100   8.850  10.048   2.442
55754SOL    HW169101   8.856  10.026   2.349
55754SOL    HW269102   8.937  10.078   2.465
55755SOL     OW69103   3.939   7.819  12.915
55755SOL    HW169104   3.916   7.832  12.823
55755SOL    HW269105   3.983   7.901  12.940
55756SOL     OW69106   9.240  11.356  14.465
55756SOL    HW169107   9.224  11.439  14.509
55756SOL    HW269108   9.157  11.337  14.419
55757SOL     OW69109   5.090  14.401   4.711
55757SOL    HW169110   5.169  14.446   4.680
55757SOL    HW269111   5.028  14.409   4.639
55758SOL     OW69112   7.944   4.736   8.768
55758SOL    HW169113   7.938   4.783   8.851
55758SOL    HW269114   7.859   4.694   8.757
55759SOL     OW69115   2.624   6.728   5.606
55759SOL    HW169116   2.623   6.772   5.521
55759SOL    HW269117   2.553   6.768   5.655
55760SOL     OW69118   0.554   8.789  10.923
55760SOL    HW169119   0.643   8.774  10.956
55760SOL    HW269120   0.515   8.851  10.984
55761SOL     OW69121   5.678   4.124  13.338
55761SOL    HW169122   5.652   4.172  13.417
55761SOL    HW269123   5.627   4.163  13.268
55762SOL     OW69124   7.458   2.619   9.446
55762SOL    HW169125   7.474   2.678   9.520
55762SOL    HW269126   7.369   2.642   9.416
55763SOL     OW69127  10.043   4.899   4.410
55763SOL    HW169128  10.091   4.908   4.492
55763SOL    HW269129   9.951   4.894   4.437
55764SOL     OW69130   7.844  12.097   6.624
55764SOL    HW169131   7.907  12.157   6.662
55764SOL    HW269132   7.843  12.022   6.683
55765SOL     OW69133   9.184  11.460   1.451
55765SOL    HW169134   9.140  11.539   1.418
55765SOL    HW269135   9.273  11.467   1.419
55766SOL     OW69136   7.985   2.659   7.578
55766SOL    HW169137   7.921   2.605   7.624
55766SOL    HW269138   8.064   2.653   7.631
55767SOL     OW69139  14.437  10.865   4.559
55767SOL    HW169140  14.528  10.847   4.584
55767SOL    HW269141  14.385  10.834   4.633
55768SOL     OW69142   4.117  10.026  14.292
55768SOL    HW169143   4.102   9.931  14.292
55768SOL    HW269144   4.137  10.047  14.201
55769SOL     OW69145   1.327   6.984   1.007
55769SOL    HW169146   1.268   6.940   1.069
55769SOL    HW269147   1.349   6.916   0.943
55770SOL     OW69148   0.534  11.971   7.544
55770SOL    HW169149   0.516  11.932   7.629
55770SOL    HW269150   0.529  11.899   7.482
55771SOL     OW69151   3.057   6.785   2.446
55771SOL    HW169152   3.050   6.880   2.435
55771SOL    HW269153   2.966   6.755   2.453
55772SOL     OW69154   0.162   2.965   0.566
55772SOL    HW169155   0.254   2.994   0.562
55772SOL    HW269156   0.112   3.045   0.580
55773SOL     OW69157  11.276  13.242  14.594
55773SOL    HW169158  11.365  13.249  14.626
55773SOL    HW269159  11.277  13.165  14.537
55774SOL     OW69160  10.560   5.722  11.988
55774SOL    HW169161  10.533   5.770  11.910
55774SOL    HW269162  10.489   5.735  12.051
55775SOL     OW69163   8.223   2.764   8.168
55775SOL    HW169164   8.147   2.816   8.190
55775SOL    HW269165   8.189   2.690   8.117
55776SOL     OW69166  14.490   5.918  14.098
55776SOL    HW169167  14.574   5.875  14.087
55776SOL    HW269168  14.466   5.948  14.010
55777SOL     OW69169   9.467   1.239   3.977
55777SOL    HW169170   9.413   1.299   4.028
55777SOL    HW269171   9.510   1.294   3.911
55778SOL     OW69172  10.130  11.178   6.231
55778SOL    HW169173  10.101  11.144   6.147
55778SOL    HW269174  10.180  11.258   6.209
55779SOL     OW69175   4.368   6.156   9.756
55779SOL    HW169176   4.406   6.105   9.827
55779SOL    HW269177   4.433   6.224   9.738
55780SOL     OW69178   6.618  14.633   1.625
55780SOL    HW169179   6.655  14.680   1.551
55780SOL    HW269180   6.604  14.544   1.592
55781SOL     OW69181  11.129  12.613  14.832
55781SOL    HW169182  11.052  12.612   0.007
55781SOL    HW269183  11.106  12.673  14.761
55782SOL     OW69184   9.838   4.211  14.678
55782SOL    HW169185   9.854   4.176  14.590
55782SOL    HW269186   9.745   4.231  14.679
55783SOL     OW69187   0.252  13.667   4.100
55783SOL    HW169188   0.168  13.627   4.126
55783SOL    HW269189   0.288  13.701   4.181
55784SOL     OW69190   7.300  10.146  10.334
55784SOL    HW169191   7.280  10.213  10.400
55784SOL    HW269192   7.230  10.154  10.270
55785SOL     OW69193  12.494   2.147   4.329
55785SOL    HW169194  12.524   2.199   4.255
55785SOL    HW269195  12.414   2.190   4.358
55786SOL     OW69196   9.896  13.817  11.796
55786SOL    HW169197   9.927  13.732  11.828
55786SOL    HW269198   9.886  13.805  11.701
55787SOL     OW69199   3.905   8.893   8.155
55787SOL    HW169200   3.848   8.893   8.079
55787SOL    HW269201   3.913   8.985   8.180
55788SOL     OW69202  10.803  11.002   5.334
55788SOL    HW169203  10.813  11.038   5.246
55788SOL    HW269204  10.890  11.008   5.373
55789SOL     OW69205   1.562   6.746  10.594
55789SOL    HW169206   1.497   6.761  10.525
55789SOL    HW269207   1.582   6.833  10.628
55790SOL     OW69208  13.505   4.718  12.733
55790SOL    HW169209  13.548   4.788  12.683
55790SOL    HW269210  13.454   4.765  12.799
55791SOL     OW69211   3.495  14.778  13.173
55791SOL    HW169212   3.554  14.845  13.139
55791SOL    HW269213   3.494  14.793  13.268
55792SOL     OW69214   0.749   0.627   4.117
55792SOL    HW169215   0.673   0.634   4.175
55792SOL    HW269216   0.753   0.534   4.094
55793SOL     OW69217   1.322  12.527  10.054
55793SOL    HW169218   1.240  12.555  10.095
55793SOL    HW269219   1.294  12.477   9.977
55794SOL     OW69220   5.432   9.264   8.744
55794SOL    HW169221   5.470   9.226   8.823
55794SOL    HW269222   5.404   9.188   8.692
55795SOL     OW69223   6.432   1.065   1.462
55795SOL    HW169224   6.386   0.988   1.430
55795SOL    HW269225   6.435   1.054   1.557
55796SOL     OW69226   2.661   3.343  11.030
55796SOL    HW169227   2.687   3.267  11.082
55796SOL    HW269228   2.674   3.315  10.939
55797SOL     OW69229   1.740   9.064   6.007
55797SOL    HW169230   1.817   9.116   5.981
55797SOL    HW269231   1.724   9.007   5.932
55798SOL     OW69232   0.582  13.355   4.400
55798SOL    HW169233   0.668  13.389   4.425
55798SOL    HW269234   0.561  13.401   4.318
55799SOL     OW69235   3.614  14.512  14.684
55799SOL    HW169236   3.576  14.526  14.597
55799SOL    HW269237   3.650  14.424  14.681
55800SOL     OW69238  13.753   5.437   3.338
55800SOL    HW169239  13.819   5.463   3.403
55800SOL    HW269240  13.671   5.434   3.387
55801SOL     OW69241   0.663   2.717  12.062
55801SOL    HW169242   0.757   2.708  12.078
55801SOL    HW269243   0.654   2.803  12.020
55802SOL     OW69244   6.442   6.504  13.044
55802SOL    HW169245   6.370   6.447  13.071
55802SOL    HW269246   6.418   6.591  13.076
55803SOL     OW69247   5.197   0.349   4.170
55803SOL    HW169248   5.156   0.424   4.127
55803SOL    HW269249   5.125   0.287   4.184
55804SOL     OW69250   2.811  10.260  14.041
55804SOL    HW169251   2.806  10.165  14.054
55804SOL    HW269252   2.895  10.274  13.997
55805SOL     OW69253   7.047   1.784   7.049
55805SOL    HW169254   7.038   1.689   7.045
55805SOL    HW269255   6.959   1.816   7.065
55806SOL     OW69256   2.340   8.891   5.236
55806SOL    HW169257   2.291   8.816   5.203
55806SOL    HW269258   2.318   8.895   5.329
55807SOL     OW69259   6.945   5.747   6.846
55807SOL    HW169260   7.013   5.682   6.827
55807SOL    HW269261   6.925   5.787   6.761
55808SOL     OW69262   2.784   4.430   2.365
55808SOL    HW169263   2.755   4.490   2.295
55808SOL    HW269264   2.744   4.346   2.342
55809SOL     OW69265  10.165   9.142   5.097
55809SOL    HW169266  10.084   9.163   5.145
55809SOL    HW269267  10.151   9.052   5.066
55810SOL     OW69268   7.828  11.862   1.951
55810SOL    HW169269   7.782  11.790   1.994
55810SOL    HW269270   7.921  11.840   1.960
55811SOL     OW69271   6.538  12.326   0.025
55811SOL    HW169272   6.599  12.389   0.062
55811SOL    HW269273   6.508  12.366  14.825
55812SOL     OW69274   1.801   2.380   2.534
55812SOL    HW169275   1.867   2.445   2.510
55812SOL    HW269276   1.717   2.422   2.517
55813SOL     OW69277   0.820   5.261   8.894
55813SOL    HW169278   0.812   5.319   8.818
55813SOL    HW269279   0.854   5.179   8.858
55814SOL     OW69280   1.773  13.011   0.520
55814SOL    HW169281   1.824  13.009   0.440
55814SOL    HW269282   1.771  13.103   0.545
55815SOL     OW69283   1.309  12.723   4.199
55815SOL    HW169284   1.306  12.705   4.105
55815SOL    HW269285   1.391  12.771   4.211
55816SOL     OW69286   7.298   5.368   4.584
55816SOL    HW169287   7.302   5.458   4.551
55816SOL    HW269288   7.389   5.346   4.603
55817SOL     OW69289   5.912   3.331   8.460
55817SOL    HW169290   5.978   3.304   8.523
55817SOL    HW269291   5.917   3.426   8.458
55818SOL     OW69292   0.071  11.641   8.076
55818SOL    HW169293   0.151  11.659   8.027
55818SOL    HW269294   0.005  11.626   8.007
55819SOL     OW69295   5.117   9.371   0.289
55819SOL    HW169296   5.055   9.426   0.241
55819SOL    HW269297   5.160   9.430   0.350
55820SOL     OW69298  10.379   7.983   9.346
55820SOL    HW169299  10.459   7.931   9.341
55820SOL    HW269300  10.323   7.948   9.277
55821SOL     OW69301   1.466  10.260   6.803
55821SOL    HW169302   1.431  10.293   6.886
55821SOL    HW269303   1.560  10.278   6.809
55822SOL     OW69304   7.244  10.875   8.401
55822SOL    HW169305   7.328  10.889   8.444
55822SOL    HW269306   7.264  10.882   8.307
55823SOL     OW69307   9.250   2.897   6.226
55823SOL    HW169308   9.196   2.914   6.149
55823SOL    HW269309   9.189   2.903   6.300
55824SOL     OW69310   3.215   1.874   1.285
55824SOL    HW169311   3.308   1.874   1.263
55824SOL    HW269312   3.212   1.864   1.380
55825SOL     OW69313   8.715   9.913  12.016
55825SOL    HW169314   8.667   9.830  12.020
55825SOL    HW269315   8.767   9.907  11.936
55826SOL     OW69316  13.289   0.863   8.398
55826SOL    HW169317  13.374   0.821   8.384
55826SOL    HW269318  13.236   0.838   8.323
55827SOL     OW69319  14.782   0.585   4.654
55827SOL    HW169320  14.734   0.666   4.640
55827SOL    HW269321  14.839   0.602   4.728
55828SOL     OW69322  10.822   0.427   0.604
55828SOL    HW169323  10.912   0.394   0.598
55828SOL    HW269324  10.818   0.468   0.690
55829SOL     OW69325   1.137   8.549   0.919
55829SOL    HW169326   1.184   8.574   0.999
55829SOL    HW269327   1.082   8.624   0.899
55830SOL     OW69328   5.783   8.364   6.954
55830SOL    HW169329   5.874   8.376   6.980
55830SOL    HW269330   5.787   8.309   6.875
55831SOL     OW69331   0.508  11.678   4.125
55831SOL    HW169332   0.486  11.646   4.213
55831SOL    HW269333   0.580  11.739   4.139
55832SOL     OW69334  10.450   3.834   5.784
55832SOL    HW169335  10.511   3.882   5.728
55832SOL    HW269336  10.414   3.765   5.728
55833SOL     OW69337  13.204  13.164  11.416
55833SOL    HW169338  13.267  13.219  11.369
55833SOL    HW269339  13.212  13.078  11.375
55834SOL     OW69340   8.946  11.184  14.623
55834SOL    HW169341   9.025  11.153  14.579
55834SOL    HW269342   8.902  11.239  14.558
55835SOL     OW69343   8.519  12.895   8.317
55835SOL    HW169344   8.525  12.985   8.284
55835SOL    HW269345   8.609  12.863   8.316
55836SOL     OW69346   7.609   9.781  12.453
55836SOL    HW169347   7.670   9.743  12.516
55836SOL    HW269348   7.647   9.867  12.433
55837SOL     OW69349  11.355   9.841   5.250
55837SOL    HW169350  11.376   9.934   5.251
55837SOL    HW269351  11.414   9.802   5.315
55838SOL     OW69352   6.986   4.579   8.190
55838SOL    HW169353   6.924   4.512   8.163
55838SOL    HW269354   7.016   4.618   8.107
55839SOL     OW69355   1.465  14.269   2.443
55839SOL    HW169356   1.380  14.279   2.485
55839SOL    HW269357   1.525  14.321   2.496
55840SOL     OW69358  11.870   6.222  13.979
55840SOL    HW169359  11.860   6.202  14.072
55840SOL    HW269360  11.888   6.316  13.977
55841SOL     OW69361  14.073   7.109  14.312
55841SOL    HW169362  14.166   7.110  14.289
55841SOL    HW269363  14.071   7.129  14.406
55842SOL     OW69364  14.499  12.469  12.974
55842SOL    HW169365  14.491  12.393  12.917
55842SOL    HW269366  14.586  12.505  12.953
55843SOL     OW69367  13.470   0.796   7.841
55843SOL    HW169368  13.486   0.883   7.879
55843SOL    HW269369  13.490   0.735   7.912
55844SOL     OW69370   2.131   5.976   0.407
55844SOL    HW169371   2.170   5.962   0.320
55844SOL    HW269372   2.205   5.969   0.467
55845SOL     OW69373  11.756   5.817  12.310
55845SOL    HW169374  11.785   5.739  12.262
55845SOL    HW269375  11.741   5.882  12.242
55846SOL     OW69376  11.232   9.493  10.111
55846SOL    HW169377  11.139   9.496  10.135
55846SOL    HW269378  11.255   9.401  10.119
55847SOL     OW69379  10.233   5.509   4.363
55847SOL    HW169380  10.281   5.564   4.301
55847SOL    HW269381  10.241   5.556   4.447
55848SOL     OW69382  12.303   9.282  11.073
55848SOL    HW169383  12.219   9.268  11.115
55848SOL    HW269384  12.295   9.368  11.032
55849SOL     OW69385  10.355   6.100   0.129
55849SOL    HW169386  10.439   6.118   0.171
55849SOL    HW269387  10.305   6.181   0.138
55850SOL     OW69388  14.556  12.188   6.766
55850SOL    HW169389  14.543  12.260   6.704
55850SOL    HW269390  14.483  12.129   6.752
55851SOL     OW69391   7.139  11.435   6.279
55851SOL    HW169392   7.109  11.525   6.293
55851SOL    HW269393   7.119  11.390   6.360
55852SOL     OW69394   0.082   5.175  10.261
55852SOL    HW169395   0.134   5.180  10.342
55852SOL    HW269396   0.131   5.228  10.198
55853SOL     OW69397   5.674   8.944  14.317
55853SOL    HW169398   5.631   8.994  14.387
55853SOL    HW269399   5.767   8.965  14.326
55854SOL     OW69400  12.942   6.456   5.684
55854SOL    HW169401  12.849   6.456   5.666
55854SOL    HW269402  12.970   6.366   5.667
55855SOL     OW69403   6.469   6.436   3.374
55855SOL    HW169404   6.522   6.476   3.306
55855SOL    HW269405   6.510   6.464   3.456
55856SOL     OW69406  12.630   0.156   6.915
55856SOL    HW169407  12.723   0.168   6.894
55856SOL    HW269408  12.622   0.185   7.006
55857SOL     OW69409  13.572  11.619   8.612
55857SOL    HW169410  13.549  11.627   8.705
55857SOL    HW269411  13.654  11.569   8.612
55858SOL     OW69412   6.705   9.774  10.449
55858SOL    HW169413   6.770   9.803  10.385
55858SOL    HW269414   6.621   9.804  10.413
55859SOL     OW69415  12.261   3.852  13.525
55859SOL    HW169416  12.280   3.944  13.544
55859SOL    HW269417  12.278   3.806  13.607
55860SOL     OW69418  11.604   1.501   9.704
55860SOL    HW169419  11.548   1.577   9.688
55860SOL    HW269420  11.559   1.429   9.660
55861SOL     OW69421   9.993   8.878   3.797
55861SOL    HW169422   9.961   8.797   3.838
55861SOL    HW269423  10.066   8.905   3.853
55862SOL     OW69424   8.228  14.030  11.333
55862SOL    HW169425   8.264  14.027  11.245
55862SOL    HW269426   8.228  14.123  11.356
55863SOL     OW69427  13.247   8.046   8.129
55863SOL    HW169428  13.222   8.041   8.037
55863SOL    HW269429  13.319   7.984   8.138
55864SOL     OW69430   2.335   6.367   0.089
55864SOL    HW169431   2.254   6.334   0.049
55864SOL    HW269432   2.364   6.436   0.030
55865SOL     OW69433  14.761  11.538   5.908
55865SOL    HW169434  14.722  11.455   5.880
55865SOL    HW269435  14.685  11.596   5.921
55866SOL     OW69436   4.611   5.335  11.415
55866SOL    HW169437   4.564   5.345  11.498
55866SOL    HW269438   4.695   5.295  11.439
55867SOL     OW69439   4.157   7.599  11.320
55867SOL    HW169440   4.171   7.569  11.410
55867SOL    HW269441   4.235   7.569  11.273
55868SOL     OW69442   6.909   8.916   3.724
55868SOL    HW169443   6.824   8.880   3.696
55868SOL    HW269444   6.967   8.840   3.728
55869SOL     OW69445   6.857  11.255   7.272
55869SOL    HW169446   6.900  11.311   7.337
55869SOL    HW269447   6.926  11.235   7.208
55870SOL     OW69448  11.537  13.652   2.669
55870SOL    HW169449  11.448  13.628   2.645
55870SOL    HW269450  11.526  13.721   2.735
55871SOL     OW69451   5.376   6.967  12.001
55871SOL    HW169452   5.290   6.955  11.961
55871SOL    HW269453   5.416   6.880  11.997
55872SOL     OW69454   6.943  14.210  11.008
55872SOL    HW169455   7.036  14.220  10.987
55872SOL    HW269456   6.927  14.116  11.003
55873SOL     OW69457   9.140  10.761  10.872
55873SOL    HW169458   9.140  10.666  10.862
55873SOL    HW269459   9.048  10.783  10.887
55874SOL     OW69460   0.033   1.581   0.503
55874SOL    HW169461  14.828   1.618   0.486
55874SOL    HW269462   0.094   1.643   0.464
55875SOL     OW69463   4.047   8.387  11.805
55875SOL    HW169464   4.063   8.318  11.869
55875SOL    HW269465   4.118   8.449  11.818
55876SOL     OW69466  14.600  11.609   1.175
55876SOL    HW169467  14.566  11.646   1.094
55876SOL    HW269468  14.638  11.525   1.148
55877SOL     OW69469   7.274   2.676   8.042
55877SOL    HW169470   7.366   2.657   8.057
55877SOL    HW269471   7.261   2.765   8.076
55878SOL     OW69472  14.394   4.627   8.837
55878SOL    HW169473  14.345   4.697   8.792
55878SOL    HW269474  14.349   4.547   8.813
55879SOL     OW69475  10.772   6.151   3.885
55879SOL    HW169476  10.716   6.155   3.807
55879SOL    HW269477  10.749   6.067   3.926
55880SOL     OW69478  14.055   7.594   8.021
55880SOL    HW169479  13.981   7.654   8.037
55880SOL    HW269480  14.068   7.550   8.105
55881SOL     OW69481   7.380   5.962   7.431
55881SOL    HW169482   7.418   5.890   7.481
55881SOL    HW269483   7.441   5.976   7.359
55882SOL     OW69484   0.726  12.707   0.436
55882SOL    HW169485   0.668  12.762   0.383
55882SOL    HW269486   0.732  12.625   0.388
55883SOL     OW69487   9.407   3.560   8.109
55883SOL    HW169488   9.427   3.636   8.054
55883SOL    HW269489   9.318   3.535   8.084
55884SOL     OW69490  13.605   3.967   7.954
55884SOL    HW169491  13.657   3.896   7.993
55884SOL    HW269492  13.524   3.924   7.925
55885SOL     OW69493   3.614  12.625   8.610
55885SOL    HW169494   3.539  12.625   8.669
55885SOL    HW269495   3.618  12.536   8.576
55886SOL     OW69496   7.974   9.606  12.969
55886SOL    HW169497   8.039   9.536  12.965
55886SOL    HW269498   7.898   9.572  12.922
55887SOL     OW69499   4.594   5.135   2.900
55887SOL    HW169500   4.546   5.218   2.889
55887SOL    HW269501   4.629   5.139   2.989
55888SOL     OW69502  13.366  11.738  13.621
55888SOL    HW169503  13.383  11.832  13.614
55888SOL    HW269504  13.450  11.700  13.647
55889SOL     OW69505   9.829   9.991   5.179
55889SOL    HW169506   9.914   9.996   5.224
55889SOL    HW269507   9.771   9.948   5.242
55890SOL     OW69508   7.390   9.848   2.310
55890SOL    HW169509   7.440   9.892   2.241
55890SOL    HW269510   7.422   9.758   2.308
55891SOL     OW69511   4.212  14.413   5.548
55891SOL    HW169512   4.203  14.489   5.605
55891SOL    HW269513   4.272  14.441   5.479
55892SOL     OW69514   5.866   9.999   0.838
55892SOL    HW169515   5.860  10.094   0.853
55892SOL    HW269516   5.776   9.968   0.845
55893SOL     OW69517   4.607  10.171  12.635
55893SOL    HW169518   4.631  10.236  12.701
55893SOL    HW269519   4.653  10.091  12.661
55894SOL     OW69520  11.486   6.024  14.882
55894SOL    HW169521  11.519   6.114   0.002
55894SOL    HW269522  11.547   5.977  14.825
55895SOL     OW69523   3.568   6.248  12.834
55895SOL    HW169524   3.586   6.155  12.820
55895SOL    HW269525   3.521   6.251  12.917
55896SOL     OW69526   9.023   6.379  12.180
55896SOL    HW169527   9.059   6.354  12.095
55896SOL    HW269528   9.038   6.473  12.186
55897SOL     OW69529  10.635   0.531   2.565
55897SOL    HW169530  10.659   0.615   2.605
55897SOL    HW269531  10.696   0.522   2.491
55898SOL     OW69532   3.261   8.011  12.409
55898SOL    HW169533   3.342   7.971  12.376
55898SOL    HW269534   3.270   8.007  12.504
55899SOL     OW69535   0.145   4.664   7.531
55899SOL    HW169536   0.112   4.724   7.464
55899SOL    HW269537   0.237   4.690   7.542
55900SOL     OW69538   5.015   2.931   6.162
55900SOL    HW169539   4.979   3.009   6.203
55900SOL    HW269540   4.947   2.904   6.099
55901SOL     OW69541   3.926  12.669   4.403
55901SOL    HW169542   3.939  12.694   4.494
55901SOL    HW269543   3.831  12.675   4.390
55902SOL     OW69544  12.336   2.071   6.724
55902SOL    HW169545  12.274   2.059   6.797
55902SOL    HW269546  12.283   2.058   6.645
55903SOL     OW69547   2.133   2.668   9.780
55903SOL    HW169548   2.071   2.737   9.758
55903SOL    HW269549   2.100   2.591   9.733
55904SOL     OW69550   0.943  13.486   5.140
55904SOL    HW169551   0.919  13.402   5.179
55904SOL    HW269552   1.028  13.471   5.100
55905SOL     OW69553   8.757  11.705   6.932
55905SOL    HW169554   8.735  11.626   6.981
55905SOL    HW269555   8.683  11.764   6.946
55906SOL     OW69556   9.612  11.943   6.724
55906SOL    HW169557   9.702  11.965   6.748
55906SOL    HW269558   9.587  12.010   6.661
55907SOL     OW69559  13.473   4.021  12.744
55907SOL    HW169560  13.511   3.981  12.665
55907SOL    HW269561  13.387   3.981  12.753
55908SOL     OW69562  10.082   9.587   7.565
55908SOL    HW169563  10.028   9.558   7.492
55908SOL    HW269564  10.068   9.682   7.568
55909SOL     OW69565  11.915   5.179  11.843
55909SOL    HW169566  11.857   5.139  11.907
55909SOL    HW269567  11.937   5.108  11.783
55910SOL     OW69568   1.215  11.034   7.996
55910SOL    HW169569   1.122  11.024   8.014
55910SOL    HW269570   1.230  11.129   8.002
55911SOL     OW69571   7.234   6.539   0.833
55911SOL    HW169572   7.241   6.445   0.814
55911SOL    HW269573   7.291   6.580   0.769
55912SOL     OW69574  11.236   8.002  10.505
55912SOL    HW169575  11.188   7.928  10.466
55912SOL    HW269576  11.187   8.079  10.478
55913SOL     OW69577  10.054   3.589   3.215
55913SOL    HW169578   9.999   3.574   3.138
55913SOL    HW269579  10.020   3.670   3.253
55914SOL     OW69580  10.994  10.130   5.675
55914SOL    HW169581  11.048  10.169   5.606
55914SOL    HW269582  11.046  10.140   5.754
55915SOL     OW69583   3.081  10.005  13.384
55915SOL    HW169584   2.990   9.986  13.406
55915SOL    HW269585   3.085  10.101  13.379
55916SOL     OW69586  12.784  12.297   6.496
55916SOL    HW169587  12.786  12.207   6.463
55916SOL    HW269588  12.729  12.293   6.574
55917SOL     OW69589  11.669   8.547   1.762
55917SOL    HW169590  11.651   8.508   1.847
55917SOL    HW269591  11.694   8.637   1.783
55918SOL     OW69592  12.116   0.063  12.184
55918SOL    HW169593  12.021   0.064  12.176
55918SOL    HW269594  12.148   0.092  12.098
55919SOL     OW69595  10.644   1.992   4.573
55919SOL    HW169596  10.733   2.013   4.602
55919SOL    HW269597  10.649   1.899   4.550
55920SOL     OW69598  14.837   6.505   7.042
55920SOL    HW169599  14.843   6.542   7.131
55920SOL    HW269600  14.754   6.458   7.041
55921SOL     OW69601  10.681   6.382   7.906
55921SOL    HW169602  10.648   6.397   7.995
55921SOL    HW269603  10.769   6.420   7.906
55922SOL     OW69604  12.297  14.600  11.884
55922SOL    HW169605  12.359  14.528  11.880
55922SOL    HW269606  12.336  14.663  11.944
55923SOL     OW69607   1.510   1.624  10.084
55923SOL    HW169608   1.441   1.632  10.149
55923SOL    HW269609   1.483   1.550  10.029
55924SOL     OW69610  13.907   7.748  14.787
55924SOL    HW169611  13.894   7.806  14.712
55924SOL    HW269612  14.001   7.729  14.787
55925SOL     OW69613   2.225   6.870  10.726
55925SOL    HW169614   2.164   6.865  10.653
55925SOL    HW269615   2.291   6.935  10.698
55926SOL     OW69616   7.317  11.501   4.691
55926SOL    HW169617   7.285  11.579   4.647
55926SOL    HW269618   7.400  11.527   4.730
55927SOL     OW69619   6.270   5.062   8.918
55927SOL    HW169620   6.335   4.993   8.904
55927SOL    HW269621   6.203   5.046   8.852
55928SOL     OW69622   7.201   7.492  10.505
55928SOL    HW169623   7.231   7.438  10.433
55928SOL    HW269624   7.105   7.487  10.502
55929SOL     OW69625  12.818  12.004   2.070
55929SOL    HW169626  12.751  11.961   2.124
55929SOL    HW269627  12.873  11.932   2.039
55930SOL     OW69628   0.778   4.111   4.266
55930SOL    HW169629   0.706   4.163   4.301
55930SOL    HW269630   0.853   4.169   4.266
55931SOL     OW69631   5.915  10.531   1.938
55931SOL    HW169632   5.982  10.531   2.006
55931SOL    HW269633   5.953  10.479   1.867
55932SOL     OW69634  14.354   9.183  11.607
55932SOL    HW169635  14.326   9.272  11.629
55932SOL    HW269636  14.436   9.195  11.559
55933SOL     OW69637  13.660   3.304   5.429
55933SOL    HW169638  13.651   3.287   5.335
55933SOL    HW269639  13.576   3.276   5.467
55934SOL     OW69640   8.274  12.494   1.477
55934SOL    HW169641   8.214  12.461   1.544
55934SOL    HW269642   8.306  12.577   1.512
55935SOL     OW69643   3.327  12.642  13.599
55935SOL    HW169644   3.294  12.601  13.679
55935SOL    HW269645   3.274  12.603  13.529
55936SOL     OW69646   8.037   6.337  12.569
55936SOL    HW169647   7.990   6.295  12.498
55936SOL    HW269648   8.067   6.265  12.624
55937SOL     OW69649  12.350  10.930  14.870
55937SOL    HW169650  12.417  10.991   0.019
55937SOL    HW269651  12.331  10.959  14.780
55938SOL     OW69652   1.020   2.855   5.046
55938SOL    HW169653   0.938   2.806   5.032
55938SOL    HW269654   1.016   2.882   5.138
55939SOL     OW69655  13.331   7.287   0.029
55939SOL    HW169656  13.404   7.244   0.074
55939SOL    HW269657  13.320   7.370   0.076
55940SOL     OW69658  14.097   1.444   9.849
55940SOL    HW169659  14.008   1.478   9.859
55940SOL    HW269660  14.086   1.355   9.816
55941SOL     OW69661  11.474  12.512   3.346
55941SOL    HW169662  11.383  12.497   3.373
55941SOL    HW269663  11.484  12.607   3.349
55942SOL     OW69664  14.448   7.974   6.643
55942SOL    HW169665  14.453   7.885   6.607
55942SOL    HW269666  14.419   7.961   6.733
55943SOL     OW69667   9.664   1.322  13.194
55943SOL    HW169668   9.706   1.252  13.143
55943SOL    HW269669   9.572   1.295  13.199
55944SOL     OW69670   1.382  13.882   3.500
55944SOL    HW169671   1.468  13.891   3.459
55944SOL    HW269672   1.322  13.920   3.436
55945SOL     OW69673   4.918  12.962   0.824
55945SOL    HW169674   4.877  12.988   0.741
55945SOL    HW269675   4.940  13.044   0.867
55946SOL     OW69676  10.207  11.184   0.843
55946SOL    HW169677  10.195  11.260   0.899
55946SOL    HW269678  10.188  11.109   0.899
55947SOL     OW69679  13.362  14.503   3.301
55947SOL    HW169680  13.445  14.457   3.312
55947SOL    HW269681  13.387  14.592   3.276
55948SOL     OW69682   7.175   7.402   3.566
55948SOL    HW169683   7.171   7.394   3.471
55948SOL    HW269684   7.083   7.401   3.594
55949SOL     OW69685  12.278   0.220   1.712
55949SOL    HW169686  12.182   0.214   1.710
55949SOL    HW269687  12.307   0.176   1.632
55950SOL     OW69688   0.728   6.630   2.736
55950SOL    HW169689   0.691   6.610   2.650
55950SOL    HW269690   0.803   6.571   2.744
55951SOL     OW69691  13.628   6.215   8.050
55951SOL    HW169692  13.537   6.187   8.038
55951SOL    HW269693  13.630   6.255   8.137
55952SOL     OW69694   5.022  11.915  13.880
55952SOL    HW169695   5.068  11.947  13.802
55952SOL    HW269696   5.083  11.931  13.952
55953SOL     OW69697   1.523   0.352  12.006
55953SOL    HW169698   1.463   0.313  12.069
55953SOL    HW269699   1.610   0.327  12.036
55954SOL     OW69700   7.554  10.376  14.303
55954SOL    HW169701   7.537  10.418  14.387
55954SOL    HW269702   7.580  10.448  14.245
55955SOL     OW69703  12.439   4.438  14.798
55955SOL    HW169704  12.390   4.466  14.721
55955SOL    HW269705  12.530   4.435  14.769
55956SOL     OW69706   9.000   3.206  10.995
55956SOL    HW169707   8.964   3.145  10.930
55956SOL    HW269708   8.997   3.292  10.952
55957SOL     OW69709   3.829  10.447  12.982
55957SOL    HW169710   3.861  10.536  12.997
55957SOL    HW269711   3.902  10.390  13.008
55958SOL     OW69712   7.558  12.570   7.639
55958SOL    HW169713   7.571  12.560   7.545
55958SOL    HW269714   7.489  12.636   7.647
55959SOL     OW69715   8.096   0.197   8.388
55959SOL    HW169716   8.147   0.180   8.309
55959SOL    HW269717   8.026   0.132   8.387
55960SOL     OW69718   6.285   8.765   8.921
55960SOL    HW169719   6.267   8.812   8.839
55960SOL    HW269720   6.286   8.834   8.988
55961SOL     OW69721   0.361   8.688  11.539
55961SOL    HW169722   0.270   8.693  11.571
55961SOL    HW269723   0.357   8.630  11.464
55962SOL     OW69724   0.152  13.236   4.352
55962SOL    HW169725   0.151  13.331   4.340
55962SOL    HW269726   0.244  13.212   4.351
55963SOL     OW69727   3.810  13.194  11.486
55963SOL    HW169728   3.834  13.119  11.539
55963SOL    HW269729   3.826  13.166  11.396
55964SOL     OW69730   3.376   9.425  11.646
55964SOL    HW169731   3.327   9.507  11.637
55964SOL    HW269732   3.436   9.425  11.571
55965SOL     OW69733   2.732   6.796   6.793
55965SOL    HW169734   2.776   6.762   6.871
55965SOL    HW269735   2.647   6.826   6.824
55966SOL     OW69736  14.241  13.591  12.722
55966SOL    HW169737  14.257  13.514  12.668
55966SOL    HW269738  14.244  13.665  12.661
55967SOL     OW69739   5.912  11.201   0.130
55967SOL    HW169740   5.828  11.200   0.084
55967SOL    HW269741   5.891  11.234   0.218
55968SOL     OW69742  13.388  11.079   2.572
55968SOL    HW169743  13.295  11.092   2.592
55968SOL    HW269744  13.391  11.070   2.477
55969SOL     OW69745  11.698  12.981   4.264
55969SOL    HW169746  11.757  13.022   4.327
55969SOL    HW269747  11.741  12.899   4.241
55970SOL     OW69748  13.191   2.823   3.889
55970SOL    HW169749  13.223   2.739   3.855
55970SOL    HW269750  13.239   2.888   3.839
55971SOL     OW69751  11.337   2.157   9.512
55971SOL    HW169752  11.290   2.215   9.572
55971SOL    HW269753  11.269   2.101   9.474
55972SOL     OW69754   9.434  12.401  12.338
55972SOL    HW169755   9.476  12.368  12.418
55972SOL    HW269756   9.350  12.356  12.335
55973SOL     OW69757   1.238  13.756  14.439
55973SOL    HW169758   1.206  13.846  14.449
55973SOL    HW269759   1.203  13.727  14.354
55974SOL     OW69760   3.870   0.324   1.187
55974SOL    HW169761   3.899   0.360   1.271
55974SOL    HW269762   3.827   0.397   1.143
55975SOL     OW69763   3.113   7.276   1.935
55975SOL    HW169764   3.173   7.213   1.894
55975SOL    HW269765   3.170   7.338   1.980
55976SOL     OW69766   0.948  10.685  11.022
55976SOL    HW169767   0.880  10.752  11.013
55976SOL    HW269768   0.911  10.609  10.976
55977SOL     OW69769   9.431   1.775  10.130
55977SOL    HW169770   9.375   1.762  10.053
55977SOL    HW269771   9.409   1.704  10.189
55978SOL     OW69772   4.434   5.500  14.755
55978SOL    HW169773   4.409   5.586  14.721
55978SOL    HW269774   4.386   5.491  14.837
55979SOL     OW69775  11.680   5.218   4.152
55979SOL    HW169776  11.758   5.246   4.200
55979SOL    HW269777  11.606   5.249   4.205
55980SOL     OW69778   6.803  10.010  14.543
55980SOL    HW169779   6.725  10.053  14.580
55980SOL    HW269780   6.821  10.058  14.462
55981SOL     OW69781   6.236   8.417   9.516
55981SOL    HW169782   6.230   8.390   9.425
55981SOL    HW269783   6.162   8.376   9.559
55982SOL     OW69784   3.012   8.774  12.324
55982SOL    HW169785   3.045   8.731  12.402
55982SOL    HW269786   2.978   8.703  12.269
55983SOL     OW69787   8.969   1.061   6.775
55983SOL    HW169788   8.901   1.127   6.787
55983SOL    HW269789   9.049   1.112   6.760
55984SOL     OW69790   2.352  10.775  12.864
55984SOL    HW169791   2.320  10.693  12.902
55984SOL    HW269792   2.298  10.788  12.786
55985SOL     OW69793   0.777   3.497   7.500
55985SOL    HW169794   0.765   3.515   7.594
55985SOL    HW269795   0.866   3.527   7.482
55986SOL     OW69796  10.980   7.288  13.032
55986SOL    HW169797  10.887   7.309  13.025
55986SOL    HW269798  11.001   7.245  12.949
55987SOL     OW69799   0.895   4.630   9.250
55987SOL    HW169800   0.934   4.704   9.296
55987SOL    HW269801   0.833   4.670   9.188
55988SOL     OW69802  13.431   4.243   9.735
55988SOL    HW169803  13.425   4.148   9.724
55988SOL    HW269804  13.511   4.268   9.689
55989SOL     OW69805   0.389   3.619  10.091
55989SOL    HW169806   0.382   3.696  10.035
55989SOL    HW269807   0.418   3.654  10.176
55990SOL     OW69808   1.904  11.656   0.499
55990SOL    HW169809   1.850  11.655   0.420
55990SOL    HW269810   1.942  11.744   0.501
55991SOL     OW69811   4.855   3.066   4.587
55991SOL    HW169812   4.762   3.049   4.600
55991SOL    HW269813   4.862   3.161   4.580
55992SOL     OW69814  11.220  12.331  13.588
55992SOL    HW169815  11.229  12.237  13.602
55992SOL    HW269816  11.236  12.343  13.494
55993SOL     OW69817  14.564  14.586   7.098
55993SOL    HW169818  14.539  14.658   7.156
55993SOL    HW269819  14.652  14.562   7.126
55994SOL     OW69820   8.041   8.488   7.820
55994SOL    HW169821   8.017   8.509   7.910
55994SOL    HW269822   8.136   8.475   7.823
55995SOL     OW69823  10.112   7.843   1.691
55995SOL    HW169824  10.033   7.896   1.699
55995SOL    HW269825  10.105   7.779   1.762
55996SOL     OW69826   7.037  11.735   2.477
55996SOL    HW169827   6.994  11.675   2.416
55996SOL    HW269828   7.106  11.777   2.426
55997SOL     OW69829   2.558  11.662  10.026
55997SOL    HW169830   2.532  11.753  10.041
55997SOL    HW269831   2.600  11.635  10.107
55998SOL     OW69832  14.128   8.198   2.915
55998SOL    HW169833  14.096   8.261   2.980
55998SOL    HW269834  14.220   8.187   2.937
55999SOL     OW69835   6.376   1.321  10.736
55999SOL    HW169836   6.348   1.274  10.658
55999SOL    HW269837   6.294   1.343  10.781
56000SOL     OW69838  13.592   0.387   8.201
56000SOL    HW169839  13.580   0.445   8.276
56000SOL    HW269840  13.678   0.347   8.214
56001SOL     OW69841   9.073  10.244  11.404
56001SOL    HW169842   9.126  10.205  11.335
56001SOL    HW269843   9.015  10.174  11.433
56002SOL     OW69844  13.243  13.540  13.220
56002SOL    HW169845  13.290  13.619  13.192
56002SOL    HW269846  13.192  13.514  13.144
56003SOL     OW69847   6.487   6.215  11.812
56003SOL    HW169848   6.534   6.298  11.811
56003SOL    HW269849   6.556   6.148  11.812
56004SOL     OW69850   0.138   9.471  14.629
56004SOL    HW169851   0.095   9.539  14.577
56004SOL    HW269852   0.231   9.479  14.607
56005SOL     OW69853   6.554  12.249   9.138
56005SOL    HW169854   6.538  12.188   9.210
56005SOL    HW269855   6.631  12.214   9.093
56006SOL     OW69856   0.775   3.316  11.734
56006SOL    HW169857   0.774   3.397  11.683
56006SOL    HW269858   0.693   3.318  11.784
56007SOL     OW69859   5.701   8.697  14.093
56007SOL    HW169860   5.693   8.603  14.111
56007SOL    HW269861   5.642   8.738  14.155
56008SOL     OW69862   8.334   6.203   8.029
56008SOL    HW169863   8.255   6.237   8.073
56008SOL    HW269864   8.373   6.279   7.987
56009SOL     OW69865  14.301   2.742   2.070
56009SOL    HW169866  14.389   2.778   2.068
56009SOL    HW269867  14.305   2.666   2.011
56010SOL     OW69868   7.199   4.300  12.511
56010SOL    HW169869   7.186   4.354  12.589
56010SOL    HW269870   7.110   4.275  12.484
56011SOL     OW69871   7.077   9.761   4.437
56011SOL    HW169872   7.128   9.797   4.364
56011SOL    HW269873   7.140   9.751   4.508
56012SOL     OW69874   2.669   9.435  11.773
56012SOL    HW169875   2.756   9.473  11.761
56012SOL    HW269876   2.616   9.507  11.805
56013SOL     OW69877  11.029   4.077   3.697
56013SOL    HW169878  11.061   4.135   3.628
56013SOL    HW269879  11.041   3.989   3.662
56014SOL     OW69880   6.444  11.683   9.250
56014SOL    HW169881   6.444  11.776   9.225
56014SOL    HW269882   6.358  11.669   9.290
56015SOL     OW69883  11.701  11.301   6.240
56015SOL    HW169884  11.756  11.292   6.162
56015SOL    HW269885  11.763  11.317   6.311
56016SOL     OW69886  10.174   5.538  12.139
56016SOL    HW169887  10.262   5.516  12.108
56016SOL    HW269888  10.179   5.529  12.234
56017SOL     OW69889   9.960   2.148  11.820
56017SOL    HW169890  10.032   2.153  11.757
56017SOL    HW269891   9.898   2.214  11.790
56018SOL     OW69892   7.122   5.421   4.043
56018SOL    HW169893   7.173   5.457   4.115
56018SOL    HW269894   7.062   5.359   4.084
56019SOL     OW69895  11.524   7.147  13.739
56019SOL    HW169896  11.538   7.171  13.648
56019SOL    HW269897  11.611   7.128  13.773
56020SOL     OW69898   8.962   3.548   1.518
56020SOL    HW169899   9.056   3.552   1.500
56020SOL    HW269900   8.936   3.459   1.493
56021SOL     OW69901  11.516   2.354   5.091
56021SOL    HW169902  11.442   2.294   5.085
56021SOL    HW269903  11.531   2.381   5.000
56022SOL     OW69904  14.064   5.395   5.395
56022SOL    HW169905  14.032   5.414   5.307
56022SOL    HW269906  14.024   5.462   5.451
56023SOL     OW69907  14.702   1.290   6.076
56023SOL    HW169908  14.721   1.377   6.040
56023SOL    HW269909  14.683   1.237   5.999
56024SOL     OW69910   1.582   2.297  11.301
56024SOL    HW169911   1.551   2.357  11.233
56024SOL    HW269912   1.507   2.288  11.360
56025SOL     OW69913   2.594  12.813   9.107
56025SOL    HW169914   2.669  12.762   9.137
56025SOL    HW269915   2.628  12.901   9.092
56026SOL     OW69916  13.708  14.255   2.776
56026SOL    HW169917  13.695  14.164   2.800
56026SOL    HW269918  13.766  14.290   2.843
56027SOL     OW69919   9.852  10.447   5.373
56027SOL    HW169920   9.775  10.416   5.421
56027SOL    HW269921   9.917  10.463   5.441
56028SOL     OW69922  13.863   6.684   4.677
56028SOL    HW169923  13.782   6.694   4.629
56028SOL    HW269924  13.836   6.652   4.764
56029SOL     OW69925  12.661   1.421  11.276
56029SOL    HW169926  12.622   1.374  11.349
56029SOL    HW269927  12.586   1.457  11.228
56030SOL     OW69928   2.370  14.685   5.042
56030SOL    HW169929   2.275  14.681   5.027
56030SOL    HW269930   2.382  14.763   5.096
56031SOL     OW69931   6.934   5.127  10.007
56031SOL    HW169932   7.015   5.116   9.956
56031SOL    HW269933   6.879   5.183   9.952
56032SOL     OW69934  11.129  14.774  10.575
56032SOL    HW169935  11.182  14.820  10.511
56032SOL    HW269936  11.135  14.827  10.655
56033SOL     OW69937  13.244  11.686   5.967
56033SOL    HW169938  13.184  11.669   6.040
56033SOL    HW269939  13.201  11.755   5.917
56034SOL     OW69940  13.825   2.314   9.522
56034SOL    HW169941  13.797   2.239   9.470
56034SOL    HW269942  13.767   2.314   9.598
56035SOL     OW69943  10.838   5.712   4.039
56035SOL    HW169944  10.933   5.716   4.036
56035SOL    HW269945  10.818   5.626   4.077
56036SOL     OW69946  13.093   1.552  12.349
56036SOL    HW169947  13.006   1.571  12.316
56036SOL    HW269948  13.150   1.614  12.303
56037SOL     OW69949   0.776   8.482   1.521
56037SOL    HW169950   0.826   8.402   1.506
56037SOL    HW269951   0.803   8.512   1.608
56038SOL     OW69952   5.499  12.144  11.029
56038SOL    HW169953   5.525  12.154  10.937
56038SOL    HW269954   5.408  12.172  11.031
56039SOL     OW69955   7.742   8.291  13.979
56039SOL    HW169956   7.790   8.314  13.900
56039SOL    HW269957   7.659   8.339  13.971
56040SOL     OW69958  11.267   5.555   8.304
56040SOL    HW169959  11.318   5.485   8.344
56040SOL    HW269960  11.177   5.538   8.331
56041SOL     OW69961   2.646   6.085  10.270
56041SOL    HW169962   2.594   6.034  10.333
56041SOL    HW269963   2.654   6.027  10.194
56042SOL     OW69964   3.942   1.402   7.963
56042SOL    HW169965   3.983   1.488   7.968
56042SOL    HW269966   3.925   1.378   8.055
56043SOL     OW69967   7.848   6.679   8.699
56043SOL    HW169968   7.788   6.617   8.657
56043SOL    HW269969   7.811   6.765   8.681
56044SOL     OW69970  12.182   9.642  13.366
56044SOL    HW169971  12.088   9.623  13.363
56044SOL    HW269972  12.188   9.733  13.395
56045SOL     OW69973   4.792  13.834   9.857
56045SOL    HW169974   4.866  13.881   9.818
56045SOL    HW269975   4.823  13.744   9.864
56046SOL     OW69976   3.227   2.079  11.608
56046SOL    HW169977   3.321   2.062  11.618
56046SOL    HW269978   3.190   2.059  11.694
56047SOL     OW69979   0.340  13.888   0.254
56047SOL    HW169980   0.338  13.919   0.164
56047SOL    HW269981   0.432  13.870   0.271
56048SOL     OW69982   5.201   4.502   6.157
56048SOL    HW169983   5.210   4.510   6.062
56048SOL    HW269984   5.170   4.588   6.186
56049SOL     OW69985  11.129  10.052   8.306
56049SOL    HW169986  11.123  10.147   8.301
56049SOL    HW269987  11.185  10.035   8.381
56050SOL     OW69988  12.817  13.201   3.319
56050SOL    HW169989  12.899  13.157   3.299
56050SOL    HW269990  12.793  13.245   3.237
56051SOL     OW69991   5.810   3.246   5.285
56051SOL    HW169992   5.763   3.301   5.222
56051SOL    HW269993   5.803   3.157   5.249
56052SOL     OW69994   0.472   0.064  10.120
56052SOL    HW169995   0.478   0.157  10.098
56052SOL    HW269996   0.460   0.063  10.215
56053SOL     OW69997  11.507   9.347   3.550
56053SOL    HW169998  11.488   9.440   3.536
56053SOL    HW269999  11.602   9.340   3.544
56054SOL     OW70000   0.194   9.149   0.271
56054SOL    HW170001   0.184   9.237   0.308
56054SOL    HW270002   0.104   9.118   0.259
56055SOL     OW70003  10.374   4.620  10.775
56055SOL    HW170004  10.411   4.658  10.855
56055SOL    HW270005  10.322   4.691  10.737
56056SOL     OW70006   1.990   4.138   7.598
56056SOL    HW170007   2.052   4.210   7.613
56056SOL    HW270008   2.035   4.060   7.630
56057SOL     OW70009  12.365  10.254   4.259
56057SOL    HW170010  12.341  10.342   4.287
56057SOL    HW270011  12.295  10.228   4.198
56058SOL     OW70012   0.774  11.983   9.976
56058SOL    HW170013   0.853  11.955  10.023
56058SOL    HW270014   0.728  11.901   9.958
56059SOL     OW70015   8.195   0.002  14.182
56059SOL    HW170016   8.121   0.048  14.221
56059SOL    HW270017   8.155  14.822  14.121
56060SOL     OW70018   0.403  14.788   1.360
56060SOL    HW170019   0.470  14.786   1.292
56060SOL    HW270020   0.325  14.822   1.317
56061SOL     OW70021  11.328   9.589   0.247
56061SOL    HW170022  11.317   9.639   0.165
56061SOL    HW270023  11.421   9.565   0.247
56062SOL     OW70024  11.911   6.295   1.802
56062SOL    HW170025  11.831   6.325   1.845
56062SOL    HW270026  11.889   6.295   1.709
56063SOL     OW70027  12.858   0.147  10.829
56063SOL    HW170028  12.812   0.175  10.749
56063SOL    HW270029  12.897   0.228  10.864
56064SOL     OW70030   1.711  11.576   0.710
56064SOL    HW170031   1.780  11.617   0.762
56064SOL    HW270032   1.757  11.526   0.643
56065SOL     OW70033   4.982  10.414   1.971
56065SOL    HW170034   4.980  10.476   1.898
56065SOL    HW270035   5.028  10.460   2.041
56066SOL     OW70036  12.519   1.095   6.171
56066SOL    HW170037  12.430   1.061   6.172
56066SOL    HW270038  12.509   1.190   6.169
56067SOL     OW70039   2.748  11.975   3.628
56067SOL    HW170040   2.711  12.052   3.671
56067SOL    HW270041   2.685  11.905   3.645
56068SOL     OW70042   3.186   4.340   4.717
56068SOL    HW170043   3.250   4.298   4.775
56068SOL    HW270044   3.122   4.272   4.698
56069SOL     OW70045   6.895  10.263  12.145
56069SOL    HW170046   6.932  10.181  12.113
56069SOL    HW270047   6.801  10.253  12.132
56070SOL     OW70048   1.546   7.608  14.522
56070SOL    HW170049   1.469   7.631  14.573
56070SOL    HW270050   1.564   7.686  14.470
56071SOL     OW70051  10.970   1.355   7.373
56071SOL    HW170052  11.013   1.408   7.306
56071SOL    HW270053  11.032   1.286   7.392
56072SOL     OW70054   0.761   7.187   3.987
56072SOL    HW170055   0.765   7.162   4.079
56072SOL    HW270056   0.706   7.265   3.985
56073SOL     OW70057   9.789   0.734   4.505
56073SOL    HW170058   9.830   0.806   4.457
56073SOL    HW270059   9.812   0.656   4.455
56074SOL     OW70060   4.003  12.556  11.868
56074SOL    HW170061   4.019  12.583  11.778
56074SOL    HW270062   4.087  12.522  11.899
56075SOL     OW70063   0.791   8.181   6.590
56075SOL    HW170064   0.737   8.184   6.511
56075SOL    HW270065   0.824   8.270   6.600
56076SOL     OW70066   9.665  11.667   2.750
56076SOL    HW170067   9.602  11.668   2.679
56076SOL    HW270068   9.745  11.703   2.711
56077SOL     OW70069  12.932   8.830   2.210
56077SOL    HW170070  12.975   8.853   2.128
56077SOL    HW270071  12.844   8.801   2.185
56078SOL     OW70072  14.131   3.958   3.935
56078SOL    HW170073  14.186   4.030   3.906
56078SOL    HW270074  14.191   3.897   3.978
56079SOL     OW70075   8.186  13.391  14.438
56079SOL    HW170076   8.212  13.404  14.347
56079SOL    HW270077   8.093  13.367  14.434
56080SOL     OW70078   1.236   6.888  13.846
56080SOL    HW170079   1.237   6.920  13.756
56080SOL    HW270080   1.189   6.956  13.895
56081SOL     OW70081   6.515   6.651   0.273
56081SOL    HW170082   6.598   6.634   0.227
56081SOL    HW270083   6.447   6.624   0.211
56082SOL     OW70084   1.865   0.510   3.389
56082SOL    HW170085   1.938   0.528   3.329
56082SOL    HW270086   1.789   0.501   3.331
56083SOL     OW70087   2.259   0.236   5.461
56083SOL    HW170088   2.340   0.214   5.415
56083SOL    HW270089   2.205   0.279   5.395
56084SOL     OW70090   8.690   4.464   3.991
56084SOL    HW170091   8.758   4.529   3.974
56084SOL    HW270092   8.699   4.401   3.919
56085SOL     OW70093   8.332   8.833   6.894
56085SOL    HW170094   8.318   8.754   6.842
56085SOL    HW270095   8.366   8.800   6.977
56086SOL     OW70096   0.619  13.143   6.902
56086SOL    HW170097   0.626  13.195   6.982
56086SOL    HW270098   0.708  13.113   6.885
56087SOL     OW70099   5.247   8.362   6.575
56087SOL    HW170100   5.311   8.365   6.646
56087SOL    HW270101   5.173   8.314   6.612
56088SOL     OW70102   1.236   2.046  10.283
56088SOL    HW170103   1.142   2.047  10.303
56088SOL    HW270104   1.251   1.962  10.240
56089SOL     OW70105  12.103   0.586  12.931
56089SOL    HW170106  12.167   0.607  12.999
56089SOL    HW270107  12.022   0.626  12.962
56090SOL     OW70108   8.142   6.296   6.469
56090SOL    HW170109   8.176   6.371   6.518
56090SOL    HW270110   8.146   6.324   6.377
56091SOL     OW70111   4.571  13.427   8.337
56091SOL    HW170112   4.569  13.451   8.430
56091SOL    HW270113   4.524  13.498   8.293
56092SOL     OW70114   5.227   6.926   1.915
56092SOL    HW170115   5.308   6.940   1.965
56092SOL    HW270116   5.229   6.833   1.892
56093SOL     OW70117   9.061   9.972   0.927
56093SOL    HW170118   9.051  10.037   0.996
56093SOL    HW270119   9.092  10.021   0.852
56094SOL     OW70120   0.123   8.680  14.815
56094SOL    HW170121   0.154   8.769  14.799
56094SOL    HW270122   0.167   8.653   0.013
56095SOL     OW70123  14.473   5.141  10.795
56095SOL    HW170124  14.472   5.204  10.867
56095SOL    HW270125  14.564   5.113  10.789
56096SOL     OW70126   2.230  11.489  12.692
56096SOL    HW170127   2.313  11.500  12.738
56096SOL    HW270128   2.205  11.577  12.665
56097SOL     OW70129   5.858   0.826  13.180
56097SOL    HW170130   5.820   0.842  13.094
56097SOL    HW270131   5.948   0.798  13.161
56098SOL     OW70132   0.988   7.753  13.663
56098SOL    HW170133   0.923   7.822  13.676
56098SOL    HW270134   0.947   7.674  13.700
56099SOL     OW70135   3.409   8.444   8.379
56099SOL    HW170136   3.450   8.453   8.464
56099SOL    HW270137   3.472   8.395   8.326
56100SOL     OW70138   2.768  14.022   4.544
56100SOL    HW170139   2.814  14.093   4.498
56100SOL    HW270140   2.681  14.021   4.505
56101SOL     OW70141  10.197  11.272   1.894
56101SOL    HW170142  10.243  11.305   1.971
56101SOL    HW270143  10.175  11.181   1.917
56102SOL     OW70144  10.596  13.761   2.384
56102SOL    HW170145  10.594  13.722   2.297
56102SOL    HW270146  10.599  13.686   2.444
56103SOL     OW70147   9.733  13.196  12.197
56103SOL    HW170148   9.780  13.240  12.268
56103SOL    HW270149   9.748  13.102  12.212
56104SOL     OW70150   1.831   9.785  11.606
56104SOL    HW170151   1.908   9.738  11.637
56104SOL    HW270152   1.757   9.738  11.644
56105SOL     OW70153   5.721   8.360  10.860
56105SOL    HW170154   5.680   8.379  10.945
56105SOL    HW270155   5.703   8.267  10.845
56106SOL     OW70156  12.509   2.755   4.537
56106SOL    HW170157  12.428   2.806   4.541
56106SOL    HW270158  12.575   2.818   4.509
56107SOL     OW70159   3.689  12.924   9.629
56107SOL    HW170160   3.668  12.855   9.566
56107SOL    HW270161   3.785  12.932   9.625
56108SOL     OW70162  11.230  11.952   1.223
56108SOL    HW170163  11.228  11.926   1.131
56108SOL    HW270164  11.183  12.036   1.225
56109SOL     OW70165   2.411   1.422   9.837
56109SOL    HW170166   2.318   1.400   9.829
56109SOL    HW270167   2.414   1.486   9.908
56110SOL     OW70168   4.302  14.211  12.487
56110SOL    HW170169   4.212  14.243  12.487
56110SOL    HW270170   4.339  14.243  12.405
56111SOL     OW70171  12.566   5.987   3.488
56111SOL    HW170172  12.506   5.953   3.422
56111SOL    HW270173  12.635   5.921   3.494
56112SOL     OW70174   4.642   0.366  12.918
56112SOL    HW170175   4.705   0.432  12.890
56112SOL    HW270176   4.576   0.365  12.849
56113SOL     OW70177  12.566   9.083   4.142
56113SOL    HW170178  12.553   8.993   4.171
56113SOL    HW270179  12.491   9.102   4.086
56114SOL     OW70180   4.814   5.138   2.584
56114SOL    HW170181   4.893   5.165   2.631
56114SOL    HW270182   4.742   5.159   2.643
56115SOL     OW70183  10.074   9.250   1.642
56115SOL    HW170184  10.148   9.309   1.629
56115SOL    HW270185  10.046   9.227   1.554
56116SOL     OW70186   2.789  10.584   8.733
56116SOL    HW170187   2.845  10.573   8.657
56116SOL    HW270188   2.717  10.639   8.701
56117SOL     OW70189  13.996   4.772  12.667
56117SOL    HW170190  13.958   4.828  12.733
56117SOL    HW270191  14.091   4.783  12.678
56118SOL     OW70192  11.989   4.547   0.535
56118SOL    HW170193  12.039   4.535   0.454
56118SOL    HW270194  12.036   4.616   0.582
56119SOL     OW70195  11.310   6.539   5.085
56119SOL    HW170196  11.391   6.532   5.035
56119SOL    HW270197  11.301   6.454   5.128
56120SOL     OW70198   3.043   2.810  11.944
56120SOL    HW170199   3.020   2.789  11.853
56120SOL    HW270200   3.133   2.842  11.939
56121SOL     OW70201   5.187   5.844  12.074
56121SOL    HW170202   5.176   5.753  12.046
56121SOL    HW270203   5.278   5.851  12.100
56122SOL     OW70204   5.092  10.093   6.774
56122SOL    HW170205   5.123  10.064   6.689
56122SOL    HW270206   5.146  10.169   6.796
56123SOL     OW70207   4.944   2.906  14.580
56123SOL    HW170208   4.887   2.936  14.651
56123SOL    HW270209   5.030   2.942  14.602
56124SOL     OW70210  14.213  12.870   1.139
56124SOL    HW170211  14.198  12.870   1.234
56124SOL    HW270212  14.296  12.917   1.129
56125SOL     OW70213   9.731  13.846   8.263
56125SOL    HW170214   9.732  13.817   8.172
56125SOL    HW270215   9.657  13.798   8.302
56126SOL     OW70216  12.470  14.465   6.598
56126SOL    HW170217  12.386  14.442   6.559
56126SOL    HW270218  12.518  14.382   6.603
56127SOL     OW70219  13.163   5.910  12.249
56127SOL    HW170220  13.131   5.997  12.224
56127SOL    HW270221  13.087   5.853  12.241
56128SOL     OW70222   3.082   0.413   7.443
56128SOL    HW170223   3.012   0.461   7.487
56128SOL    HW270224   3.111   0.471   7.373
56129SOL     OW70225   1.839   1.334   3.483
56129SOL    HW170226   1.753   1.373   3.500
56129SOL    HW270227   1.841   1.323   3.388
56130SOL     OW70228   6.649  10.642   8.788
56130SOL    HW170229   6.567  10.666   8.744
56130SOL    HW270230   6.705  10.608   8.718
56131SOL     OW70231   8.132   1.440   6.708
56131SOL    HW170232   8.183   1.371   6.750
56131SOL    HW270233   8.145   1.426   6.614
56132SOL     OW70234   2.222   8.834  12.376
56132SOL    HW170235   2.273   8.786  12.312
56132SOL    HW270236   2.233   8.785  12.457
56133SOL     OW70237  10.238   1.709  12.379
56133SOL    HW170238  10.193   1.768  12.440
56133SOL    HW270239  10.323   1.750  12.364
56134SOL     OW70240   9.912   9.569   3.610
56134SOL    HW170241   9.897   9.584   3.703
56134SOL    HW270242   9.917   9.474   3.601
56135SOL     OW70243   5.708   0.361   0.067
56135SOL    HW170244   5.755   0.432   0.023
56135SOL    HW270245   5.740   0.281   0.025
56136SOL     OW70246  11.486   1.172  11.393
56136SOL    HW170247  11.475   1.113  11.318
56136SOL    HW270248  11.437   1.251  11.369
56137SOL     OW70249  10.108   1.565   5.116
56137SOL    HW170250  10.054   1.601   5.187
56137SOL    HW270251  10.070   1.601   5.036
56138SOL     OW70252  12.931  11.626  10.293
56138SOL    HW170253  12.995  11.556  10.280
56138SOL    HW270254  12.886  11.633  10.209
56139SOL     OW70255   7.519   1.943   3.306
56139SOL    HW170256   7.539   1.914   3.395
56139SOL    HW270257   7.442   1.892   3.281
56140SOL     OW70258   1.757   8.302  11.523
56140SOL    HW170259   1.840   8.347  11.538
56140SOL    HW270260   1.693   8.372  11.507
56141SOL     OW70261  11.574   1.976   1.609
56141SOL    HW170262  11.531   1.934   1.683
56141SOL    HW270263  11.612   1.903   1.559
56142SOL     OW70264   1.525  13.989   8.005
56142SOL    HW170265   1.539  14.047   7.929
56142SOL    HW270266   1.468  13.920   7.971
56143SOL     OW70267   5.936  14.333   2.430
56143SOL    HW170268   6.003  14.349   2.497
56143SOL    HW270269   5.909  14.242   2.444
56144SOL     OW70270   5.580   3.401   6.026
56144SOL    HW170271   5.640   3.373   5.957
56144SOL    HW270272   5.526   3.325   6.045
56145SOL     OW70273   1.224   3.781   8.917
56145SOL    HW170274   1.159   3.845   8.946
56145SOL    HW270275   1.229   3.717   8.988
56146SOL     OW70276   3.441  12.840   6.681
56146SOL    HW170277   3.435  12.886   6.597
56146SOL    HW270278   3.529  12.860   6.714
56147SOL     OW70279   7.825  12.195  10.755
56147SOL    HW170280   7.750  12.221  10.808
56147SOL    HW270281   7.787  12.163  10.673
56148SOL     OW70282  10.144   2.326  14.520
56148SOL    HW170283  10.054   2.304  14.497
56148SOL    HW270284  10.197   2.265  14.468
56149SOL     OW70285   6.880   0.685   4.489
56149SOL    HW170286   6.926   0.627   4.550
56149SOL    HW270287   6.929   0.677   4.407
56150SOL     OW70288   7.571   9.907  14.457
56150SOL    HW170289   7.561   9.814  14.475
56150SOL    HW270290   7.598   9.911  14.365
56151SOL     OW70291   1.879  11.554   6.607
56151SOL    HW170292   1.865  11.649   6.607
56151SOL    HW270293   1.796  11.517   6.577
56152SOL     OW70294   1.585  14.775   6.571
56152SOL    HW170295   1.635  14.842   6.617
56152SOL    HW270296   1.496  14.810   6.567
56153SOL     OW70297   9.883  12.671   5.254
56153SOL    HW170298   9.824  12.601   5.226
56153SOL    HW270299   9.872  12.739   5.188
56154SOL     OW70300   9.292   7.874  14.830
56154SOL    HW170301   9.286   7.790  14.784
56154SOL    HW270302   9.385   7.895  14.828
56155SOL     OW70303  12.048  14.461   5.106
56155SOL    HW170304  11.993  14.385   5.126
56155SOL    HW270305  12.032  14.479   5.014
56156SOL     OW70306  14.309  11.971  13.347
56156SOL    HW170307  14.404  11.956  13.353
56156SOL    HW270308  14.287  12.017  13.427
56157SOL     OW70309  12.544   0.137  11.080
56157SOL    HW170310  12.471   0.081  11.106
56157SOL    HW270311  12.601   0.080  11.029
56158SOL     OW70312  14.204   2.182  14.597
56158SOL    HW170313  14.249   2.206  14.516
56158SOL    HW270314  14.236   2.093  14.617
56159SOL     OW70315   6.070   9.799   4.549
56159SOL    HW170316   6.000   9.783   4.486
56159SOL    HW270317   6.023   9.827   4.628
56160SOL     OW70318   8.895   4.618  13.413
56160SOL    HW170319   8.982   4.618  13.453
56160SOL    HW270320   8.910   4.649  13.324
56161SOL     OW70321   8.890  13.851   4.718
56161SOL    HW170322   8.846  13.935   4.733
56161SOL    HW270323   8.895  13.842   4.623
56162SOL     OW70324   1.885  11.518   5.079
56162SOL    HW170325   1.974  11.536   5.111
56162SOL    HW270326   1.894  11.515   4.984
56163SOL     OW70327  13.827  12.012  10.228
56163SOL    HW170328  13.829  12.041  10.319
56163SOL    HW270329  13.864  11.923  10.231
56164SOL     OW70330   5.313   4.353  12.432
56164SOL    HW170331   5.360   4.386  12.356
56164SOL    HW270332   5.223   4.341  12.401
56165SOL     OW70333  10.250  10.202  12.468
56165SOL    HW170334  10.306  10.129  12.442
56165SOL    HW270335  10.185  10.163  12.527
56166SOL     OW70336   2.192   4.538   8.109
56166SOL    HW170337   2.197   4.535   8.205
56166SOL    HW270338   2.104   4.572   8.091
56167SOL     OW70339   1.772   2.772   0.521
56167SOL    HW170340   1.718   2.797   0.446
56167SOL    HW270341   1.830   2.847   0.535
56168SOL     OW70342   0.666   0.803   3.132
56168SOL    HW170343   0.755   0.786   3.102
56168SOL    HW270344   0.617   0.822   3.052
56169SOL     OW70345   7.620  11.463  12.040
56169SOL    HW170346   7.618  11.383  12.093
56169SOL    HW270347   7.531  11.471  12.006
56170SOL     OW70348  12.774  13.566   6.236
56170SOL    HW170349  12.748  13.557   6.327
56170SOL    HW270350  12.852  13.512   6.227
56171SOL     OW70351   9.073   2.699   8.417
56171SOL    HW170352   9.009   2.713   8.487
56171SOL    HW270353   9.141   2.765   8.433
56172SOL     OW70354   5.356  11.426  10.594
56172SOL    HW170355   5.278  11.371  10.599
56172SOL    HW270356   5.428  11.368  10.615
56173SOL     OW70357   3.059   2.036   6.209
56173SOL    HW170358   3.114   2.081   6.274
56173SOL    HW270359   3.082   1.944   6.218
56174SOL     OW70360  13.888   8.200   3.152
56174SOL    HW170361  13.920   8.280   3.193
56174SOL    HW270362  13.860   8.145   3.225
56175SOL     OW70363   0.136   6.047   5.658
56175SOL    HW170364   0.043   6.048   5.636
56175SOL    HW270365   0.180   6.071   5.576
56176SOL     OW70366   2.020  14.260  11.713
56176SOL    HW170367   1.976  14.313  11.779
56176SOL    HW270368   2.106  14.301  11.702
56177SOL     OW70369   8.493   0.268  11.494
56177SOL    HW170370   8.494   0.289  11.588
56177SOL    HW270371   8.563   0.321  11.457
56178SOL     OW70372   4.352   4.163  10.687
56178SOL    HW170373   4.359   4.246  10.734
56178SOL    HW270374   4.412   4.172  10.612
56179SOL     OW70375   8.755  12.629  14.527
56179SOL    HW170376   8.776  12.711  14.572
56179SOL    HW270377   8.804  12.563  14.576
56180SOL     OW70378   0.220  13.576   5.407
56180SOL    HW170379   0.134  13.568   5.365
56180SOL    HW270380   0.260  13.651   5.363
56181SOL     OW70381  13.966  12.898  13.472
56181SOL    HW170382  13.992  12.806  13.480
56181SOL    HW270383  14.006  12.927  13.390
56182SOL     OW70384  14.134  14.479   0.839
56182SOL    HW170385  14.175  14.395   0.820
56182SOL    HW270386  14.196  14.523   0.898
56183SOL     OW70387  11.446   4.163   7.586
56183SOL    HW170388  11.454   4.103   7.659
56183SOL    HW270389  11.401   4.112   7.518
56184SOL     OW70390   7.092   9.316   2.713
56184SOL    HW170391   7.180   9.353   2.712
56184SOL    HW270392   7.043   9.372   2.773
56185SOL     OW70393   2.264   9.846   8.984
56185SOL    HW170394   2.293   9.853   9.075
56185SOL    HW270395   2.279   9.934   8.948
56186SOL     OW70396   2.879   1.649   6.419
56186SOL    HW170397   2.828   1.606   6.350
56186SOL    HW270398   2.816   1.705   6.464
56187SOL     OW70399   6.068  13.801  10.261
56187SOL    HW170400   6.011  13.829  10.189
56187SOL    HW270401   6.011  13.750  10.318
56188SOL     OW70402   4.927   1.440   8.285
56188SOL    HW170403   4.893   1.520   8.245
56188SOL    HW270404   4.853   1.405   8.335
56189SOL     OW70405  14.491  12.540  10.293
56189SOL    HW170406  14.398  12.560  10.306
56189SOL    HW270407  14.536  12.592  10.359
56190SOL     OW70408   0.756  11.923  13.551
56190SOL    HW170409   0.669  11.950  13.520
56190SOL    HW270410   0.817  11.961  13.488
56191SOL     OW70411   2.774   8.683   0.205
56191SOL    HW170412   2.813   8.596   0.194
56191SOL    HW270413   2.849   8.741   0.219
56192SOL     OW70414   7.819   7.137   3.726
56192SOL    HW170415   7.752   7.123   3.659
56192SOL    HW270416   7.863   7.053   3.735
56193SOL     OW70417  13.257   1.100   7.278
56193SOL    HW170418  13.339   1.118   7.230
56193SOL    HW270419  13.254   1.005   7.286
56194SOL     OW70420   5.669  10.451  14.789
56194SOL    HW170421   5.661  10.532  14.839
56194SOL    HW270422   5.719  10.393  14.846
56195SOL     OW70423   4.332   6.193  14.581
56195SOL    HW170424   4.303   6.163  14.495
56195SOL    HW270425   4.427   6.183  14.579
56196SOL     OW70426   2.684  12.437  10.792
56196SOL    HW170427   2.708  12.527  10.772
56196SOL    HW270428   2.743  12.412  10.864
56197SOL     OW70429   2.471  11.178  11.780
56197SOL    HW170430   2.527  11.138  11.846
56197SOL    HW270431   2.522  11.251  11.745
56198SOL     OW70432  10.235   9.483   1.588
56198SOL    HW170433  10.322   9.460   1.553
56198SOL    HW270434  10.253   9.527   1.671
56199SOL     OW70435   8.716   5.871  13.547
56199SOL    HW170436   8.769   5.845  13.622
56199SOL    HW270437   8.742   5.962  13.530
56200SOL     OW70438   5.712   5.665   2.843
56200SOL    HW170439   5.651   5.736   2.862
56200SOL    HW270440   5.660   5.585   2.856
56201SOL     OW70441   4.051   9.395  10.300
56201SOL    HW170442   3.975   9.443  10.334
56201SOL    HW270443   4.119   9.462  10.290
56202SOL     OW70444  11.061   9.094  10.343
56202SOL    HW170445  11.027   9.145  10.416
56202SOL    HW270446  11.038   9.003  10.365
56203SOL     OW70447   4.964   5.735  13.027
56203SOL    HW170448   4.982   5.788  12.949
56203SOL    HW270449   4.917   5.658  12.993
56204SOL     OW70450   9.395   0.651  13.767
56204SOL    HW170451   9.481   0.623  13.799
56204SOL    HW270452   9.403   0.646  13.672
56205SOL     OW70453   4.313  14.677  14.542
56205SOL    HW170454   4.310  14.701  14.635
56205SOL    HW270455   4.367  14.598  14.540
56206SOL     OW70456   0.583   3.507   2.504
56206SOL    HW170457   0.517   3.496   2.436
56206SOL    HW270458   0.533   3.518   2.585
56207SOL     OW70459   0.307  12.280   6.111
56207SOL    HW170460   0.382  12.339   6.102
56207SOL    HW270461   0.296  12.242   6.024
56208SOL     OW70462  11.601   9.234   4.457
56208SOL    HW170463  11.665   9.272   4.397
56208SOL    HW270464  11.570   9.309   4.509
56209SOL     OW70465   5.827  10.945   0.418
56209SOL    HW170466   5.818  10.888   0.495
56209SOL    HW270467   5.834  10.884   0.344
56210SOL     OW70468   4.269   2.263  10.894
56210SOL    HW170469   4.280   2.355  10.873
56210SOL    HW270470   4.278   2.259  10.989
56211SOL     OW70471   0.604   2.525  10.973
56211SOL    HW170472   0.513   2.533  11.001
56211SOL    HW270473   0.600   2.521  10.877
56212SOL     OW70474   6.734  10.678   3.562
56212SOL    HW170475   6.796  10.616   3.523
56212SOL    HW270476   6.759  10.681   3.655
56213SOL     OW70477   9.570   1.014   1.701
56213SOL    HW170478   9.659   1.027   1.668
56213SOL    HW270479   9.515   1.062   1.640
56214SOL     OW70480   5.801   4.041  10.175
56214SOL    HW170481   5.863   3.989  10.227
56214SOL    HW270482   5.753   4.093  10.240
56215SOL     OW70483   7.049   8.445   7.944
56215SOL    HW170484   6.981   8.466   7.880
56215SOL    HW270485   7.129   8.439   7.893
56216SOL     OW70486   5.363   6.457  14.009
56216SOL    HW170487   5.314   6.530  14.046
56216SOL    HW270488   5.312   6.432  13.931
56217SOL     OW70489  10.591   2.305   2.527
56217SOL    HW170490  10.542   2.373   2.573
56217SOL    HW270491  10.597   2.233   2.589
56218SOL     OW70492   3.989  13.930   5.466
56218SOL    HW170493   3.943  13.960   5.545
56218SOL    HW270494   4.061  13.993   5.455
56219SOL     OW70495   4.184   7.084   2.126
56219SOL    HW170496   4.214   7.157   2.179
56219SOL    HW270497   4.107   7.050   2.173
56220SOL     OW70498  14.258   0.465   1.110
56220SOL    HW170499  14.313   0.479   1.187
56220SOL    HW270500  14.282   0.536   1.050
56221SOL     OW70501   7.700   9.398   5.981
56221SOL    HW170502   7.746   9.470   6.025
56221SOL    HW270503   7.612   9.399   6.017
56222SOL     OW70504  13.432   7.110   7.765
56222SOL    HW170505  13.454   7.194   7.725
56222SOL    HW270506  13.482   7.109   7.847
56223SOL     OW70507   8.796  11.741  13.222
56223SOL    HW170508   8.854  11.806  13.261
56223SOL    HW270509   8.847  11.660  13.221
56224SOL     OW70510  14.142   7.177   4.922
56224SOL    HW170511  14.080   7.248   4.904
56224SOL    HW270512  14.140   7.168   5.018
56225SOL     OW70513   1.262   1.991  14.675
56225SOL    HW170514   1.208   2.069  14.685
56225SOL    HW270515   1.316   1.989  14.754
56226SOL     OW70516  12.336   1.839  12.506
56226SOL    HW170517  12.353   1.773  12.439
56226SOL    HW270518  12.333   1.790  12.588
56227SOL     OW70519   1.710   4.056   9.385
56227SOL    HW170520   1.626   4.052   9.340
56227SOL    HW270521   1.765   4.109   9.327
56228SOL     OW70522  12.081  12.604   5.452
56228SOL    HW170523  12.173  12.614   5.480
56228SOL    HW270524  12.035  12.675   5.498
56229SOL     OW70525  11.658  11.347  11.725
56229SOL    HW170526  11.574  11.392  11.729
56229SOL    HW270527  11.678  11.341  11.632
56230SOL     OW70528   6.335   4.988   6.423
56230SOL    HW170529   6.240   5.001   6.420
56230SOL    HW270530   6.345   4.895   6.443
56231SOL     OW70531   8.436   0.767  13.744
56231SOL    HW170532   8.470   0.821  13.815
56231SOL    HW270533   8.487   0.794  13.667
56232SOL     OW70534   7.948   6.196   7.480
56232SOL    HW170535   7.854   6.182   7.469
56232SOL    HW270536   7.989   6.132   7.422
56233SOL     OW70537  13.897   6.196   2.719
56233SOL    HW170538  13.908   6.134   2.648
56233SOL    HW270539  13.836   6.154   2.779
56234SOL     OW70540   6.989  13.483   2.264
56234SOL    HW170541   6.909  13.513   2.221
56234SOL    HW270542   6.978  13.388   2.273
56235SOL     OW70543   6.236   7.547  11.277
56235SOL    HW170544   6.144   7.560  11.256
56235SOL    HW270545   6.283   7.568  11.197
56236SOL     OW70546  14.008   7.319   6.602
56236SOL    HW170547  13.962   7.366   6.533
56236SOL    HW270548  14.100   7.343   6.590
56237SOL     OW70549  13.424   1.094   3.928
56237SOL    HW170550  13.409   1.000   3.938
56237SOL    HW270551  13.401   1.132   4.012
56238SOL     OW70552   6.392   5.500   0.760
56238SOL    HW170553   6.453   5.433   0.792
56238SOL    HW270554   6.331   5.513   0.833
56239SOL     OW70555  13.616   5.111   4.274
56239SOL    HW170556  13.661   5.173   4.331
56239SOL    HW270557  13.686   5.062   4.231
56240SOL     OW70558  10.762  13.045   3.413
56240SOL    HW170559  10.824  13.008   3.475
56240SOL    HW270560  10.707  13.104   3.465
56241SOL     OW70561   9.782  12.764   2.131
56241SOL    HW170562   9.831  12.811   2.063
56241SOL    HW270563   9.812  12.804   2.213
56242SOL     OW70564   4.197  12.209   9.406
56242SOL    HW170565   4.288  12.191   9.381
56242SOL    HW270566   4.194  12.189   9.500
56243SOL     OW70567  10.933   0.638   3.673
56243SOL    HW170568  10.886   0.692   3.609
56243SOL    HW270569  10.885   0.652   3.755
56244SOL     OW70570   5.397   9.770   3.450
56244SOL    HW170571   5.398   9.861   3.479
56244SOL    HW270572   5.479   9.733   3.481
56245SOL     OW70573   5.200   7.682  10.371
56245SOL    HW170574   5.235   7.754  10.318
56245SOL    HW270575   5.109   7.706  10.388
56246SOL     OW70576   2.978   0.371   8.099
56246SOL    HW170577   2.890   0.333   8.097
56246SOL    HW270578   2.994   0.390   8.191
56247SOL     OW70579   8.716   6.893  14.220
56247SOL    HW170580   8.625   6.911  14.244
56247SOL    HW270581   8.767   6.931  14.291
56248SOL     OW70582   3.941   8.758   8.382
56248SOL    HW170583   3.921   8.817   8.309
56248SOL    HW270584   3.879   8.685   8.370
56249SOL     OW70585   8.068   5.683  10.527
56249SOL    HW170586   8.079   5.588  10.528
56249SOL    HW270587   8.155   5.717  10.503
56250SOL     OW70588  12.860   3.286   5.743
56250SOL    HW170589  12.790   3.234   5.703
56250SOL    HW270590  12.824   3.313   5.827
56251SOL     OW70591   5.486   5.926   8.766
56251SOL    HW170592   5.515   5.921   8.857
56251SOL    HW270593   5.428   6.002   8.763
56252SOL     OW70594   9.710  14.193   9.093
56252SOL    HW170595   9.673  14.137   9.026
56252SOL    HW270596   9.683  14.281   9.068
56253SOL     OW70597   0.011   1.325   7.218
56253SOL    HW170598   0.027   1.418   7.234
56253SOL    HW270599   0.058   1.306   7.136
56254SOL     OW70600   8.295   0.205   0.996
56254SOL    HW170601   8.285   0.298   1.017
56254SOL    HW270602   8.264   0.159   1.074
56255SOL     OW70603   5.404  11.328   2.080
56255SOL    HW170604   5.339  11.258   2.077
56255SOL    HW270605   5.486  11.282   2.101
56256SOL     OW70606   2.178   7.797   5.139
56256SOL    HW170607   2.088   7.809   5.169
56256SOL    HW270608   2.231   7.799   5.219
56257SOL     OW70609   3.725   2.799   2.409
56257SOL    HW170610   3.742   2.757   2.324
56257SOL    HW270611   3.663   2.869   2.389
56258SOL     OW70612  12.035  11.957   2.539
56258SOL    HW170613  12.079  11.883   2.497
56258SOL    HW270614  11.977  11.917   2.603
56259SOL     OW70615   0.854   6.176   3.424
56259SOL    HW170616   0.800   6.213   3.494
56259SOL    HW270617   0.922   6.126   3.469
56260SOL     OW70618  11.114  10.858   8.653
56260SOL    HW170619  11.128  10.893   8.741
56260SOL    HW270620  11.039  10.906   8.619
56261SOL     OW70621  14.282   0.649   2.749
56261SOL    HW170622  14.191   0.676   2.761
56261SOL    HW270623  14.288   0.563   2.790
56262SOL     OW70624  10.638   9.904   9.563
56262SOL    HW170625  10.602   9.961   9.631
56262SOL    HW270626  10.598   9.819   9.580
56263SOL     OW70627   2.771  11.245   9.644
56263SOL    HW170628   2.827  11.190   9.589
56263SOL    HW270629   2.821  11.325   9.657
56264SOL     OW70630  10.376   1.744   4.666
56264SOL    HW170631  10.326   1.663   4.657
56264SOL    HW270632  10.423   1.734   4.749
56265SOL     OW70633  10.273  14.137   9.908
56265SOL    HW170634  10.338  14.167   9.843
56265SOL    HW270635  10.305  14.172   9.991
56266SOL     OW70636   5.460   1.952   2.583
56266SOL    HW170637   5.444   1.984   2.494
56266SOL    HW270638   5.373   1.928   2.616
56267SOL     OW70639  11.610  12.772   0.306
56267SOL    HW170640  11.604  12.786   0.400
56267SOL    HW270641  11.554  12.840   0.267
56268SOL     OW70642  12.351   3.117  10.578
56268SOL    HW170643  12.405   3.039  10.590
56268SOL    HW270644  12.306   3.127  10.662
56269SOL     OW70645   0.326  11.467   7.925
56269SOL    HW170646   0.413  11.465   7.886
56269SOL    HW270647   0.281  11.537   7.879
56270SOL     OW70648  13.554  12.292   3.362
56270SOL    HW170649  13.468  12.255   3.378
56270SOL    HW270650  13.607  12.264   3.436
56271SOL     OW70651  12.068   3.922   5.554
56271SOL    HW170652  12.105   3.913   5.467
56271SOL    HW270653  12.051   4.015   5.564
56272SOL     OW70654  12.229   4.826   2.268
56272SOL    HW170655  12.156   4.770   2.243
56272SOL    HW270656  12.269   4.852   2.185
56273SOL     OW70657  10.214   3.004   0.135
56273SOL    HW170658  10.182   2.955   0.058
56273SOL    HW270659  10.258   2.938   0.188
56274SOL     OW70660   2.129  12.226   3.595
56274SOL    HW170661   2.177  12.197   3.518
56274SOL    HW270662   2.196  12.239   3.662
56275SOL     OW70663   0.847   8.905   9.877
56275SOL    HW170664   0.897   8.944   9.805
56275SOL    HW270665   0.756   8.930   9.859
56276SOL     OW70666   2.673   8.612   1.927
56276SOL    HW170667   2.704   8.659   2.005
56276SOL    HW270668   2.639   8.529   1.961
56277SOL     OW70669   0.042   7.464   5.012
56277SOL    HW170670   0.077   7.450   5.100
56277SOL    HW270671  14.839   7.420   5.013
56278SOL     OW70672   8.250   7.975  12.005
56278SOL    HW170673   8.183   7.911  11.984
56278SOL    HW270674   8.323   7.924  12.039
56279SOL     OW70675  12.542   7.615   4.423
56279SOL    HW170676  12.586   7.688   4.380
56279SOL    HW270677  12.448   7.635   4.415
56280SOL     OW70678  10.294   9.675  13.002
56280SOL    HW170679  10.259   9.764  13.001
56280SOL    HW270680  10.361   9.675  12.934
56281SOL     OW70681   9.014   4.707   8.571
56281SOL    HW170682   8.970   4.705   8.657
56281SOL    HW270683   8.994   4.794   8.536
56282SOL     OW70684   9.518  14.397   3.188
56282SOL    HW170685   9.522  14.301   3.188
56282SOL    HW270686   9.568  14.423   3.265
56283SOL     OW70687  10.276   1.790   3.809
56283SOL    HW170688  10.185   1.814   3.791
56283SOL    HW270689  10.282   1.698   3.782
56284SOL     OW70690   1.865  11.811  12.158
56284SOL    HW170691   1.781  11.838  12.194
56284SOL    HW270692   1.857  11.717  12.144
56285SOL     OW70693   0.474  14.618   1.924
56285SOL    HW170694   0.487  14.562   2.000
56285SOL    HW270695   0.563  14.640   1.896
56286SOL     OW70696   8.263  12.924   7.647
56286SOL    HW170697   8.249  12.893   7.557
56286SOL    HW270698   8.253  13.019   7.642
56287SOL     OW70699  14.374  14.791   9.571
56287SOL    HW170700  14.447  14.829   9.621
56287SOL    HW270701  14.343  14.863   9.516
56288SOL     OW70702   9.862   0.007   0.302
56288SOL    HW170703   9.806  14.834   0.247
56288SOL    HW270704   9.885  14.834   0.376
56289SOL     OW70705   8.746   6.222   9.124
56289SOL    HW170706   8.756   6.275   9.203
56289SOL    HW270707   8.778   6.136   9.148
56290SOL     OW70708  14.393  14.072  12.914
56290SOL    HW170709  14.365  14.062  12.823
56290SOL    HW270710  14.487  14.087  12.909
56291SOL     OW70711   9.322   8.085   7.659
56291SOL    HW170712   9.261   8.074   7.586
56291SOL    HW270713   9.399   8.033   7.635
56292SOL     OW70714   2.105   9.794   5.464
56292SOL    HW170715   2.083   9.840   5.546
56292SOL    HW270716   2.024   9.796   5.414
56293SOL     OW70717  11.579   1.741   7.367
56293SOL    HW170718  11.564   1.705   7.455
56293SOL    HW270719  11.493   1.772   7.339
56294SOL     OW70720   4.956   8.668   6.360
56294SOL    HW170721   4.908   8.587   6.346
56294SOL    HW270722   4.892   8.729   6.397
56295SOL     OW70723   5.554  12.638   5.708
56295SOL    HW170724   5.610  12.615   5.782
56295SOL    HW270725   5.565  12.566   5.646
56296SOL     OW70726   5.025   5.313   0.907
56296SOL    HW170727   5.073   5.232   0.922
56296SOL    HW270728   4.946   5.286   0.860
56297SOL     OW70729   2.888  11.382   5.049
56297SOL    HW170730   2.848  11.465   5.023
56297SOL    HW270731   2.932  11.402   5.131
56298SOL     OW70732   3.069   9.723   4.212
56298SOL    HW170733   3.023   9.792   4.260
56298SOL    HW270734   3.155   9.719   4.252
56299SOL     OW70735   0.420  13.673   4.659
56299SOL    HW170736   0.510  13.642   4.652
56299SOL    HW270737   0.421  13.760   4.619
56300SOL     OW70738   2.226  13.665   2.632
56300SOL    HW170739   2.240  13.745   2.583
56300SOL    HW270740   2.240  13.595   2.568
56301SOL     OW70741   4.385  14.227   9.029
56301SOL    HW170742   4.333  14.291   9.078
56301SOL    HW270743   4.475  14.260   9.035
56302SOL     OW70744   7.319   1.094   8.764
56302SOL    HW170745   7.269   1.067   8.841
56302SOL    HW270746   7.381   1.023   8.749
56303SOL     OW70747   1.950   5.982   9.301
56303SOL    HW170748   2.007   5.994   9.377
56303SOL    HW270749   1.940   6.070   9.264
56304SOL     OW70750   8.194   9.894   1.105
56304SOL    HW170751   8.184   9.955   1.178
56304SOL    HW270752   8.246   9.942   1.041
56305SOL     OW70753   4.802   5.590   6.920
56305SOL    HW170754   4.796   5.513   6.862
56305SOL    HW270755   4.745   5.655   6.878
56306SOL     OW70756  11.434   6.481   9.437
56306SOL    HW170757  11.379   6.504   9.512
56306SOL    HW270758  11.477   6.400   9.463
56307SOL     OW70759   5.782   8.500   5.201
56307SOL    HW170760   5.724   8.448   5.146
56307SOL    HW270761   5.824   8.560   5.140
56308SOL     OW70762  12.554   4.060   0.939
56308SOL    HW170763  12.485   4.073   0.874
56308SOL    HW270764  12.533   4.122   1.009
56309SOL     OW70765  10.787   4.437   6.261
56309SOL    HW170766  10.851   4.391   6.207
56309SOL    HW270767  10.702   4.404   6.232
56310SOL     OW70768  11.865  12.806  10.656
56310SOL    HW170769  11.831  12.859  10.584
56310SOL    HW270770  11.825  12.720  10.644
56311SOL     OW70771   3.208   4.196   7.140
56311SOL    HW170772   3.220   4.272   7.083
56311SOL    HW270773   3.177   4.232   7.223
56312SOL     OW70774  14.109   9.052   6.577
56312SOL    HW170775  14.204   9.038   6.582
56312SOL    HW270776  14.101   9.137   6.534
56313SOL     OW70777   3.463  14.286   0.578
56313SOL    HW170778   3.406  14.251   0.510
56313SOL    HW270779   3.487  14.373   0.546
56314SOL     OW70780   3.549   9.112   5.858
56314SOL    HW170781   3.583   9.191   5.816
56314SOL    HW270782   3.474   9.087   5.803
56315SOL     OW70783  10.910   9.221  12.957
56315SOL    HW170784  10.900   9.175  13.040
56315SOL    HW270785  10.824   9.260  12.941
56316SOL     OW70786  12.859  12.946  11.380
56316SOL    HW170787  12.815  13.028  11.358
56316SOL    HW270788  12.946  12.954  11.340
56317SOL     OW70789  13.835   5.243   8.252
56317SOL    HW170790  13.885   5.324   8.241
56317SOL    HW270791  13.788   5.255   8.335
56318SOL     OW70792   7.278  10.498   7.968
56318SOL    HW170793   7.350  10.547   8.009
56318SOL    HW270794   7.310  10.407   7.968
56319SOL     OW70795   0.931   0.738  14.696
56319SOL    HW170796   0.981   0.694  14.764
56319SOL    HW270797   0.990   0.806  14.663
56320SOL     OW70798   4.420  11.432   8.139
56320SOL    HW170799   4.419  11.466   8.229
56320SOL    HW270800   4.328  11.431   8.113
56321SOL     OW70801   1.400   7.790  11.951
56321SOL    HW170802   1.465   7.768  12.019
56321SOL    HW270803   1.353   7.708  11.936
56322SOL     OW70804   1.169  10.018   0.225
56322SOL    HW170805   1.157   9.951   0.158
56322SOL    HW270806   1.087  10.018   0.274
56323SOL     OW70807   9.902   4.185   8.643
56323SOL    HW170808   9.848   4.209   8.718
56323SOL    HW270809   9.865   4.234   8.570
56324SOL     OW70810   3.975   3.795   1.055
56324SOL    HW170811   4.069   3.807   1.045
56324SOL    HW270812   3.962   3.781   1.149
56325SOL     OW70813   3.697   4.284  10.797
56325SOL    HW170814   3.753   4.207  10.796
56325SOL    HW270815   3.614   4.255  10.760
56326SOL     OW70816  13.870  12.827   8.297
56326SOL    HW170817  13.777  12.846   8.288
56326SOL    HW270818  13.890  12.848   8.389
56327SOL     OW70819   6.105  14.734   3.165
56327SOL    HW170820   6.111  14.820   3.123
56327SOL    HW270821   6.123  14.751   3.257
56328SOL     OW70822  11.348   2.197   7.552
56328SOL    HW170823  11.386   2.273   7.595
56328SOL    HW270824  11.375   2.204   7.461
56329SOL     OW70825   6.617  12.943   5.254
56329SOL    HW170826   6.591  12.929   5.345
56329SOL    HW270827   6.555  13.009   5.222
56330SOL     OW70828  14.154   3.198   8.658
56330SOL    HW170829  14.209   3.275   8.648
56330SOL    HW270830  14.163   3.174   8.750
56331SOL     OW70831  11.488  11.889  13.559
56331SOL    HW170832  11.459  11.802  13.586
56331SOL    HW270833  11.527  11.927  13.638
56332SOL     OW70834   6.606   6.352   0.124
56332SOL    HW170835   6.642   6.430   0.081
56332SOL    HW270836   6.602   6.286   0.055
56333SOL     OW70837   1.499   6.751   2.892
56333SOL    HW170838   1.512   6.827   2.836
56333SOL    HW270839   1.548   6.771   2.972
56334SOL     OW70840  10.007  10.264  13.650
56334SOL    HW170841   9.947  10.331  13.616
56334SOL    HW270842  10.088  10.312  13.670
56335SOL     OW70843   3.821   4.887   9.044
56335SOL    HW170844   3.730   4.914   9.032
56335SOL    HW270845   3.861   4.898   8.958
56336SOL     OW70846   9.288   5.099   7.733
56336SOL    HW170847   9.222   5.168   7.744
56336SOL    HW270848   9.273   5.065   7.645
56337SOL     OW70849   4.113   7.955   0.664
56337SOL    HW170850   4.152   8.039   0.691
56337SOL    HW270851   4.187   7.905   0.629
56338SOL     OW70852   3.065   7.313   7.419
56338SOL    HW170853   3.090   7.405   7.412
56338SOL    HW270854   3.146   7.265   7.404
56339SOL     OW70855  10.088   7.064   2.413
56339SOL    HW170856  10.040   6.982   2.421
56339SOL    HW270857  10.179   7.042   2.436
56340SOL     OW70858   7.711   2.806   0.996
56340SOL    HW170859   7.739   2.859   1.071
56340SOL    HW270860   7.617   2.793   1.011
56341SOL     OW70861   9.305   2.860  13.405
56341SOL    HW170862   9.378   2.919  13.386
56341SOL    HW270863   9.339   2.772  13.389
56342SOL     OW70864   4.257   9.246  11.910
56342SOL    HW170865   4.181   9.277  11.958
56342SOL    HW270866   4.300   9.325  11.878
56343SOL     OW70867  11.391  14.139   9.713
56343SOL    HW170868  11.361  14.051   9.735
56343SOL    HW270869  11.485  14.137   9.727
56344SOL     OW70870  12.654   0.823  10.957
56344SOL    HW170871  12.597   0.837  10.882
56344SOL    HW270872  12.628   0.892  11.019
56345SOL     OW70873   6.344   8.991   5.010
56345SOL    HW170874   6.277   9.059   5.021
56345SOL    HW270875   6.376   8.975   5.099
56346SOL     OW70876   6.025  12.906   4.029
56346SOL    HW170877   6.099  12.856   4.063
56346SOL    HW270878   6.063  12.986   3.995
56347SOL     OW70879  12.062   6.156   3.892
56347SOL    HW170880  11.998   6.097   3.854
56347SOL    HW270881  12.140   6.103   3.904
56348SOL     OW70882   7.535   5.816   6.825
56348SOL    HW170883   7.529   5.763   6.745
56348SOL    HW270884   7.528   5.753   6.896
56349SOL     OW70885   8.034  10.350   1.741
56349SOL    HW170886   7.944  10.361   1.772
56349SOL    HW270887   8.085  10.409   1.796
56350SOL     OW70888   2.475  13.680   6.175
56350SOL    HW170889   2.491  13.711   6.086
56350SOL    HW270890   2.450  13.758   6.224
56351SOL     OW70891   4.337   2.937  13.859
56351SOL    HW170892   4.372   2.979  13.938
56351SOL    HW270893   4.381   2.852  13.857
56352SOL     OW70894   0.227   3.506   1.295
56352SOL    HW170895   0.299   3.562   1.323
56352SOL    HW270896   0.165   3.507   1.367
56353SOL     OW70897   2.326   5.496  10.109
56353SOL    HW170898   2.383   5.419  10.105
56353SOL    HW270899   2.270   5.481  10.185
56354SOL     OW70900  10.580   8.626   6.847
56354SOL    HW170901  10.663   8.581   6.860
56354SOL    HW270902  10.594   8.681   6.770
56355SOL     OW70903  10.632  14.624  11.367
56355SOL    HW170904  10.585  14.558  11.418
56355SOL    HW270905  10.570  14.652  11.300
56356SOL     OW70906   3.143   5.041   8.884
56356SOL    HW170907   3.179   4.989   8.811
56356SOL    HW270908   3.215   5.099   8.909
56357SOL     OW70909   1.029  13.567   7.472
56357SOL    HW170910   0.949  13.596   7.517
56357SOL    HW270911   1.091  13.550   7.542
56358SOL     OW70912  12.379   6.597   4.471
56358SOL    HW170913  12.421   6.534   4.413
56358SOL    HW270914  12.398   6.682   4.433
56359SOL     OW70915   4.591   1.808   7.310
56359SOL    HW170916   4.584   1.725   7.263
56359SOL    HW270917   4.669   1.849   7.275
56360SOL     OW70918   2.372   4.537   6.880
56360SOL    HW170919   2.409   4.520   6.967
56360SOL    HW270920   2.409   4.468   6.824
56361SOL     OW70921   9.640   2.761   6.090
56361SOL    HW170922   9.723   2.717   6.111
56361SOL    HW270923   9.622   2.736   6.000
56362SOL     OW70924   2.960   1.158  10.070
56362SOL    HW170925   2.913   1.202  10.141
56362SOL    HW270926   3.048   1.196  10.072
56363SOL     OW70927   2.640   7.907   6.809
56363SOL    HW170928   2.653   7.814   6.829
56363SOL    HW270929   2.563   7.931   6.861
56364SOL     OW70930   4.093   2.486  11.543
56364SOL    HW170931   4.057   2.398  11.551
56364SOL    HW270932   4.152   2.481  11.468
56365SOL     OW70933  11.677   7.462   1.924
56365SOL    HW170934  11.762   7.429   1.954
56365SOL    HW270935  11.614   7.429   1.988
56366SOL     OW70936   4.459   9.464   9.403
56366SOL    HW170937   4.429   9.374   9.387
56366SOL    HW270938   4.549   9.466   9.370
56367SOL     OW70939   3.106   5.251   3.902
56367SOL    HW170940   3.082   5.167   3.942
56367SOL    HW270941   3.025   5.303   3.907
56368SOL     OW70942   9.695   3.245   1.691
56368SOL    HW170943   9.662   3.158   1.716
56368SOL    HW270944   9.786   3.230   1.667
56369SOL     OW70945   0.856   5.420   8.641
56369SOL    HW170946   0.777   5.423   8.587
56369SOL    HW270947   0.870   5.510   8.669
56370SOL     OW70948  13.216  10.823   0.499
56370SOL    HW170949  13.131  10.814   0.541
56370SOL    HW270950  13.229  10.918   0.491
56371SOL     OW70951   1.901  13.768  10.743
56371SOL    HW170952   1.855  13.845  10.709
56371SOL    HW270953   1.832  13.704  10.759
56372SOL     OW70954  14.718   1.785   7.137
56372SOL    HW170955  14.705   1.692   7.121
56372SOL    HW270956  14.634   1.816   7.171
56373SOL     OW70957  11.600  13.021  14.116
56373SOL    HW170958  11.556  13.068  14.045
56373SOL    HW270959  11.677  13.074  14.137
56374SOL     OW70960  11.887  13.788   7.701
56374SOL    HW170961  11.905  13.849   7.629
56374SOL    HW270962  11.973  13.772   7.740
56375SOL     OW70963  14.333   1.592   5.137
56375SOL    HW170964  14.335   1.498   5.115
56375SOL    HW270965  14.285   1.596   5.219
56376SOL     OW70966   5.884  10.394   1.534
56376SOL    HW170967   5.898  10.304   1.564
56376SOL    HW270968   5.947  10.446   1.584
56377SOL     OW70969   8.554   1.972   9.697
56377SOL    HW170970   8.469   1.942   9.730
56377SOL    HW270971   8.539   2.062   9.669
56378SOL     OW70972  12.660   1.146   0.419
56378SOL    HW170973  12.659   1.156   0.514
56378SOL    HW270974  12.685   1.055   0.405
56379SOL     OW70975   7.307   0.215   1.276
56379SOL    HW170976   7.313   0.127   1.313
56379SOL    HW270977   7.253   0.264   1.338
56380SOL     OW70978   8.177  10.010   7.376
56380SOL    HW170979   8.172  10.106   7.372
56380SOL    HW270980   8.220   9.985   7.295
56381SOL     OW70981   6.290   3.425   3.410
56381SOL    HW170982   6.341   3.506   3.411
56381SOL    HW270983   6.266   3.410   3.501
56382SOL     OW70984   1.028   9.053   6.962
56382SOL    HW170985   0.957   9.094   6.915
56382SOL    HW270986   0.989   9.024   7.045
56383SOL     OW70987  10.814  14.335   0.230
56383SOL    HW170988  10.799  14.287   0.148
56383SOL    HW270989  10.901  14.373   0.220
56384SOL     OW70990   7.320  13.656   7.326
56384SOL    HW170991   7.308  13.742   7.285
56384SOL    HW270992   7.240  13.642   7.377
56385SOL     OW70993   0.881   3.350   5.730
56385SOL    HW170994   0.926   3.434   5.740
56385SOL    HW270995   0.831   3.340   5.811
56386SOL     OW70996   2.728   1.126  13.387
56386SOL    HW170997   2.727   1.192  13.318
56386SOL    HW270998   2.636   1.103  13.400
56387SOL     OW70999   8.634  14.757  10.759
56387SOL    HW171000   8.725  14.782  10.773
56387SOL    HW271001   8.637  14.696  10.685
56388SOL     OW71002   8.806   1.903   9.585
56388SOL    HW171003   8.829   1.995   9.576
56388SOL    HW271004   8.711   1.903   9.596
56389SOL     OW71005   7.157   4.788  14.502
56389SOL    HW171006   7.080   4.839  14.476
56389SOL    HW271007   7.218   4.852  14.538
56390SOL     OW71008   6.964  13.632  11.840
56390SOL    HW171009   7.004  13.580  11.910
56390SOL    HW271010   6.997  13.720  11.854
56391SOL     OW71011  14.289   7.625   2.958
56391SOL    HW171012  14.222   7.645   3.022
56391SOL    HW271013  14.272   7.685   2.885
56392SOL     OW71014   4.540  11.617  13.858
56392SOL    HW171015   4.463  11.669  13.882
56392SOL    HW271016   4.615  11.672  13.884
56393SOL     OW71017   0.299   4.118   2.033
56393SOL    HW171018   0.313   4.153   2.121
56393SOL    HW271019   0.376   4.146   1.983
56394SOL     OW71020   0.413   1.916  13.784
56394SOL    HW171021   0.423   1.884  13.874
56394SOL    HW271022   0.501   1.909  13.747
56395SOL     OW71023  14.776   6.641   3.942
56395SOL    HW171024  14.777   6.725   3.897
56395SOL    HW271025  14.696   6.598   3.911
56396SOL     OW71026   8.617  12.741   7.495
56396SOL    HW171027   8.616  12.807   7.426
56396SOL    HW271028   8.528  12.740   7.529
56397SOL     OW71029   3.392   6.041   9.032
56397SOL    HW171030   3.426   5.954   9.054
56397SOL    HW271031   3.340   6.027   8.953
56398SOL     OW71032   2.268   4.545  11.289
56398SOL    HW171033   2.309   4.625  11.255
56398SOL    HW271034   2.191   4.576  11.336
56399SOL     OW71035   8.566  14.362   1.730
56399SOL    HW171036   8.510  14.426   1.686
56399SOL    HW271037   8.649  14.408   1.744
56400SOL     OW71038   1.890   3.466   2.801
56400SOL    HW171039   1.820   3.522   2.768
56400SOL    HW271040   1.873   3.381   2.762
56401SOL     OW71041   6.096   3.862   1.103
56401SOL    HW171042   6.169   3.849   1.164
56401SOL    HW271043   6.137   3.853   1.016
56402SOL     OW71044  13.679   9.432   5.610
56402SOL    HW171045  13.636   9.494   5.551
56402SOL    HW271046  13.761   9.474   5.633
56403SOL     OW71047   5.162   7.902   9.432
56403SOL    HW171048   5.217   7.837   9.474
56403SOL    HW271049   5.186   7.898   9.339
56404SOL     OW71050   4.644   6.258   0.839
56404SOL    HW171051   4.696   6.322   0.887
56404SOL    HW271052   4.661   6.175   0.884
56405SOL     OW71053   4.521  13.101   1.851
56405SOL    HW171054   4.528  13.156   1.929
56405SOL    HW271055   4.544  13.013   1.882
56406SOL     OW71056  11.150   8.331  13.690
56406SOL    HW171057  11.117   8.331  13.780
56406SOL    HW271058  11.100   8.262  13.646
56407SOL     OW71059   6.579   9.421  10.052
56407SOL    HW171060   6.528   9.495  10.020
56407SOL    HW271061   6.602   9.444  10.142
56408SOL     OW71062  12.188  13.157   7.835
56408SOL    HW171063  12.129  13.083   7.820
56408SOL    HW271064  12.130  13.231   7.856
56409SOL     OW71065   0.827   2.655   9.476
56409SOL    HW171066   0.732   2.658   9.486
56409SOL    HW271067   0.860   2.648   9.566
56410SOL     OW71068   8.922  13.343   1.910
56410SOL    HW171069   8.870  13.303   1.980
56410SOL    HW271070   8.974  13.272   1.875
56411SOL     OW71071  12.500   3.831   9.462
56411SOL    HW171072  12.560   3.841   9.388
56411SOL    HW271073  12.553   3.855   9.539
56412SOL     OW71074   6.953   5.133   7.815
56412SOL    HW171075   6.985   5.114   7.727
56412SOL    HW271076   6.996   5.069   7.871
56413SOL     OW71077   6.186  10.932   4.417
56413SOL    HW171078   6.232  10.988   4.355
56413SOL    HW271079   6.099  10.921   4.378
56414SOL     OW71080   2.736  12.504   7.770
56414SOL    HW171081   2.747  12.517   7.676
56414SOL    HW271082   2.692  12.584   7.800
56415SOL     OW71083  14.133   7.301  14.684
56415SOL    HW171084  14.156   7.214  14.717
56415SOL    HW271085  14.097   7.347  14.760
56416SOL     OW71086   5.264   8.030   2.446
56416SOL    HW171087   5.322   7.989   2.509
56416SOL    HW271088   5.322   8.082   2.391
56417SOL     OW71089   1.600   2.881  14.204
56417SOL    HW171090   1.611   2.855  14.295
56417SOL    HW271091   1.551   2.809  14.164
56418SOL     OW71092   5.095   3.984   8.688
56418SOL    HW171093   5.086   4.016   8.778
56418SOL    HW271094   5.009   3.951   8.665
56419SOL     OW71095  14.724   6.009  10.106
56419SOL    HW171096  14.646   5.978  10.059
56419SOL    HW271097  14.785   6.033  10.037
56420SOL     OW71098   6.222   7.045  14.326
56420SOL    HW171099   6.228   6.951  14.346
56420SOL    HW271100   6.156   7.051  14.258
56421SOL     OW71101   2.050  13.165  10.662
56421SOL    HW171102   2.137  13.152  10.622
56421SOL    HW271103   1.990  13.170  10.587
56422SOL     OW71104   5.985   1.858  10.085
56422SOL    HW171105   5.980   1.762  10.091
56422SOL    HW271106   6.039   1.883  10.160
56423SOL     OW71107   6.880   4.104  11.723
56423SOL    HW171108   6.831   4.180  11.691
56423SOL    HW271109   6.952   4.093  11.660
56424SOL     OW71110   4.062  13.596   0.188
56424SOL    HW171111   4.125  13.644   0.134
56424SOL    HW271112   4.094  13.506   0.188
56425SOL     OW71113   6.248  13.550  13.457
56425SOL    HW171114   6.175  13.491  13.439
56425SOL    HW271115   6.291  13.514  13.534
56426SOL     OW71116   3.662   8.607   0.527
56426SOL    HW171117   3.757   8.605   0.521
56426SOL    HW271118   3.633   8.603   0.436
56427SOL     OW71119   1.559  14.551  12.089
56427SOL    HW171120   1.637  14.496  12.099
56427SOL    HW271121   1.495  14.514  12.151
56428SOL     OW71122   4.148  14.685   7.418
56428SOL    HW171123   4.085  14.624   7.457
56428SOL    HW271124   4.233  14.659   7.454
56429SOL     OW71125   6.758   8.072   7.899
56429SOL    HW171126   6.746   7.978   7.886
56429SOL    HW271127   6.829   8.078   7.963
56430SOL     OW71128   5.018  11.442   7.342
56430SOL    HW171129   4.982  11.448   7.254
56430SOL    HW271130   4.954  11.488   7.397
56431SOL     OW71131   3.682  12.936   2.213
56431SOL    HW171132   3.682  12.961   2.121
56431SOL    HW271133   3.632  12.854   2.216
56432SOL     OW71134  11.113  11.025   2.523
56432SOL    HW171135  11.050  11.007   2.454
56432SOL    HW271136  11.081  11.104   2.566
56433SOL     OW71137   7.464  14.125   9.374
56433SOL    HW171138   7.508  14.122   9.459
56433SOL    HW271139   7.380  14.082   9.389
56434SOL     OW71140   6.828   7.333   2.761
56434SOL    HW171141   6.736   7.358   2.766
56434SOL    HW271142   6.872   7.411   2.727
56435SOL     OW71143  13.617   8.106  11.209
56435SOL    HW171144  13.627   8.084  11.117
56435SOL    HW271145  13.695   8.070  11.251
56436SOL     OW71146   0.839   0.875  12.615
56436SOL    HW171147   0.831   0.787  12.650
56436SOL    HW271148   0.864   0.863  12.524
56437SOL     OW71149  14.806  12.576  14.280
56437SOL    HW171150   0.008  12.619  14.263
56437SOL    HW271151  14.802  12.505  14.216
56438SOL     OW71152   2.540   5.798  13.384
56438SOL    HW171153   2.458   5.783  13.337
56438SOL    HW271154   2.588   5.860  13.330
56439SOL     OW71155   9.682   8.630  14.147
56439SOL    HW171156   9.647   8.702  14.095
56439SOL    HW271157   9.777   8.637  14.137
56440SOL     OW71158   5.598   6.826   3.195
56440SOL    HW171159   5.688   6.792   3.190
56440SOL    HW271160   5.564   6.817   3.106
56441SOL     OW71161   6.470  10.724   9.430
56441SOL    HW171162   6.478  10.630   9.412
56441SOL    HW271163   6.488  10.732   9.523
56442SOL     OW71164   0.741   5.230  11.089
56442SOL    HW171165   0.650   5.252  11.070
56442SOL    HW271166   0.788   5.247  11.007
56443SOL     OW71167  11.932  12.568  12.304
56443SOL    HW171168  11.929  12.528  12.217
56443SOL    HW271169  12.016  12.539  12.341
56444SOL     OW71170  12.769   5.828   3.507
56444SOL    HW171171  12.865   5.825   3.503
56444SOL    HW271172  12.748   5.804   3.597
56445SOL     OW71173   8.568   1.319   4.681
56445SOL    HW171174   8.495   1.337   4.740
56445SOL    HW271175   8.645   1.355   4.726
56446SOL     OW71176   2.760   8.000  13.910
56446SOL    HW171177   2.690   7.936  13.924
56446SOL    HW271178   2.715   8.084  13.903
56447SOL     OW71179   3.055  11.205  12.611
56447SOL    HW171180   3.090  11.124  12.647
56447SOL    HW271181   3.131  11.252  12.576
56448SOL     OW71182  13.864   6.456   9.880
56448SOL    HW171183  13.842   6.545   9.854
56448SOL    HW271184  13.822   6.401   9.813
56449SOL     OW71185  11.577  14.258   5.249
56449SOL    HW171186  11.630  14.217   5.181
56449SOL    HW271187  11.515  14.314   5.202
56450SOL     OW71188   8.262   3.588   1.398
56450SOL    HW171189   8.206   3.514   1.376
56450SOL    HW271190   8.282   3.576   1.491
56451SOL     OW71191   4.594   3.212  13.610
56451SOL    HW171192   4.508   3.190  13.574
56451SOL    HW271193   4.592   3.307  13.620
56452SOL     OW71194   8.449   9.985   4.981
56452SOL    HW171195   8.494   9.986   4.897
56452SOL    HW271196   8.408   9.898   4.985
56453SOL     OW71197   4.857   8.230   8.694
56453SOL    HW171198   4.798   8.157   8.677
56453SOL    HW271199   4.845   8.249   8.787
56454SOL     OW71200  11.542   8.329   4.041
56454SOL    HW171201  11.600   8.394   4.002
56454SOL    HW271202  11.454   8.364   4.029
56455SOL     OW71203   9.649  10.730   3.695
56455SOL    HW171204   9.666  10.745   3.602
56455SOL    HW271205   9.569  10.778   3.713
56456SOL     OW71206   1.402   4.613   4.403
56456SOL    HW171207   1.466   4.543   4.404
56456SOL    HW271208   1.419   4.663   4.483
56457SOL     OW71209   4.954   6.484   4.333
56457SOL    HW171210   4.963   6.577   4.352
56457SOL    HW271211   5.036   6.446   4.365
56458SOL     OW71212   7.421   2.309   1.564
56458SOL    HW171213   7.461   2.322   1.649
56458SOL    HW271214   7.409   2.397   1.529
56459SOL     OW71215  14.031  11.458   3.961
56459SOL    HW171216  14.050  11.550   3.981
56459SOL    HW271217  13.936  11.454   3.955
56460SOL     OW71218   7.354   7.524   7.380
56460SOL    HW171219   7.308   7.584   7.322
56460SOL    HW271220   7.389   7.580   7.449
56461SOL     OW71221  10.927  14.278  10.441
56461SOL    HW171222  10.975  14.241  10.367
56461SOL    HW271223  10.971  14.361  10.459
56462SOL     OW71224  10.319   8.081  11.257
56462SOL    HW171225  10.339   7.990  11.275
56462SOL    HW271226  10.289   8.116  11.341
56463SOL     OW71227  12.849   2.555  12.419
56463SOL    HW171228  12.921   2.596  12.466
56463SOL    HW271229  12.806   2.499  12.484
56464SOL     OW71230  11.408   2.182  12.000
56464SOL    HW171231  11.445   2.270  12.007
56464SOL    HW271232  11.358   2.170  12.080
56465SOL     OW71233   9.159   8.493   5.812
56465SOL    HW171234   9.137   8.493   5.719
56465SOL    HW271235   9.098   8.555   5.851
56466SOL     OW71236   4.481   7.921  14.861
56466SOL    HW171237   4.510   7.850   0.037
56466SOL    HW271238   4.544   7.991  14.875
56467SOL     OW71239  10.754   9.586  12.406
56467SOL    HW171240  10.702   9.659  12.373
56467SOL    HW271241  10.690   9.532  12.454
56468SOL     OW71242   2.469   1.038  13.354
56468SOL    HW171243   2.418   0.969  13.311
56468SOL    HW271244   2.438   1.119  13.315
56469SOL     OW71245   4.043  11.772  11.058
56469SOL    HW171246   4.054  11.723  10.977
56469SOL    HW271247   4.114  11.836  11.057
56470SOL     OW71248   8.210   7.931  12.985
56470SOL    HW171249   8.297   7.942  13.023
56470SOL    HW271250   8.188   8.017  12.948
56471SOL     OW71251   6.188   7.923   0.577
56471SOL    HW171252   6.133   7.963   0.510
56471SOL    HW271253   6.161   7.966   0.659
56472SOL     OW71254   6.358  14.601   5.726
56472SOL    HW171255   6.299  14.587   5.652
56472SOL    HW271256   6.429  14.654   5.691
56473SOL     OW71257   9.306  12.276   2.408
56473SOL    HW171258   9.293  12.347   2.470
56473SOL    HW271259   9.357  12.210   2.456
56474SOL     OW71260  12.226  12.775   9.370
56474SOL    HW171261  12.152  12.824   9.332
56474SOL    HW271262  12.303  12.824   9.343
56475SOL     OW71263  14.155   3.241  13.459
56475SOL    HW171264  14.144   3.206  13.371
56475SOL    HW271265  14.124   3.171  13.517
56476SOL     OW71266   8.428   4.652   5.986
56476SOL    HW171267   8.474   4.583   5.938
56476SOL    HW271268   8.366   4.688   5.923
56477SOL     OW71269   9.019   3.134   0.176
56477SOL    HW171270   8.934   3.090   0.165
56477SOL    HW271271   8.996   3.225   0.196
56478SOL     OW71272   9.023   1.532   3.239
56478SOL    HW171273   8.950   1.589   3.212
56478SOL    HW271274   9.095   1.557   3.182
56479SOL     OW71275   7.972  10.424  13.844
56479SOL    HW171276   8.007  10.468  13.767
56479SOL    HW271277   7.906  10.364  13.809
56480SOL     OW71278  13.867   3.021   5.035
56480SOL    HW171279  13.951   3.006   4.993
56480SOL    HW271280  13.810   3.053   4.966
56481SOL     OW71281  10.971   4.692   5.938
56481SOL    HW171282  10.992   4.786   5.944
56481SOL    HW271283  11.041   4.649   5.987
56482SOL     OW71284  14.304  10.730  10.514
56482SOL    HW171285  14.315  10.693  10.426
56482SOL    HW271286  14.359  10.808  10.514
56483SOL     OW71287  13.708   3.019   2.965
56483SOL    HW171288  13.655   3.065   3.029
56483SOL    HW271289  13.762   2.958   3.016
56484SOL     OW71290   1.615   6.155  11.214
56484SOL    HW171291   1.643   6.153  11.305
56484SOL    HW271292   1.578   6.243  11.202
56485SOL     OW71293   5.234  11.993  14.732
56485SOL    HW171294   5.177  11.998  14.656
56485SOL    HW271295   5.318  11.962  14.697
56486SOL     OW71296   1.348   2.597   6.422
56486SOL    HW171297   1.427   2.600   6.476
56486SOL    HW271298   1.313   2.686   6.424
56487SOL     OW71299   8.844   5.599   1.321
56487SOL    HW171300   8.937   5.583   1.336
56487SOL    HW271301   8.816   5.526   1.266
56488SOL     OW71302   9.736   6.942   7.900
56488SOL    HW171303   9.770   6.998   7.830
56488SOL    HW271304   9.686   7.001   7.956
56489SOL     OW71305   6.416   9.921   8.950
56489SOL    HW171306   6.504   9.955   8.936
56489SOL    HW271307   6.397   9.940   9.041
56490SOL     OW71308  13.065   5.549  12.264
56490SOL    HW171309  13.052   5.459  12.233
56490SOL    HW271310  12.980   5.590  12.254
56491SOL     OW71311  13.062   5.008   0.432
56491SOL    HW171312  13.091   5.059   0.356
56491SOL    HW271313  12.968   5.024   0.437
56492SOL     OW71314   7.851   2.843   6.326
56492SOL    HW171315   7.858   2.929   6.367
56492SOL    HW271316   7.930   2.836   6.272
56493SOL     OW71317   1.419   7.538   1.118
56493SOL    HW171318   1.326   7.562   1.116
56493SOL    HW271319   1.424   7.466   1.181
56494SOL     OW71320  11.250  13.461   6.320
56494SOL    HW171321  11.175  13.420   6.362
56494SOL    HW271322  11.212  13.523   6.258
56495SOL     OW71323   3.619  13.974  13.964
56495SOL    HW171324   3.640  13.883  13.944
56495SOL    HW271325   3.567  13.969  14.045
56496SOL     OW71326  13.033  12.304   0.690
56496SOL    HW171327  13.028  12.332   0.782
56496SOL    HW271328  13.008  12.211   0.692
56497SOL     OW71329   6.214  12.348  12.689
56497SOL    HW171330   6.267  12.425  12.667
56497SOL    HW271331   6.223  12.339  12.784
56498SOL     OW71332   6.682  12.949  10.392
56498SOL    HW171333   6.707  12.936  10.301
56498SOL    HW271334   6.710  13.038  10.413
56499SOL     OW71335   0.158   4.221   6.380
56499SOL    HW171336   0.187   4.240   6.290
56499SOL    HW271337   0.216   4.150   6.409
56500SOL     OW71338  10.403   2.224   4.164
56500SOL    HW171339  10.352   2.175   4.100
56500SOL    HW271340  10.398   2.172   4.244
56501SOL     OW71341  13.460   5.620   5.659
56501SOL    HW171342  13.407   5.599   5.582
56501SOL    HW271343  13.402   5.604   5.733
56502SOL     OW71344  11.654   6.628   4.402
56502SOL    HW171345  11.735   6.579   4.386
56502SOL    HW271346  11.594   6.599   4.333
56503SOL     OW71347   6.014   7.398  10.403
56503SOL    HW171348   6.013   7.310  10.366
56503SOL    HW271349   6.045   7.454  10.332
56504SOL     OW71350  13.333   8.039   2.191
56504SOL    HW171351  13.352   7.946   2.197
56504SOL    HW271352  13.397   8.073   2.130
56505SOL     OW71353  12.716   8.500   8.277
56505SOL    HW171354  12.682   8.420   8.238
56505SOL    HW271355  12.657   8.569   8.247
56506SOL     OW71356   4.635  13.804  10.811
56506SOL    HW171357   4.660  13.722  10.855
56506SOL    HW271358   4.717  13.850  10.798
56507SOL     OW71359   5.292  12.282   3.619
56507SOL    HW171360   5.293  12.198   3.665
56507SOL    HW271361   5.385  12.304   3.608
56508SOL     OW71362   2.570   1.419   7.372
56508SOL    HW171363   2.653   1.433   7.328
56508SOL    HW271364   2.557   1.498   7.425
56509SOL     OW71365   1.323  10.448  14.508
56509SOL    HW171366   1.348  10.362  14.473
56509SOL    HW271367   1.348  10.510  14.439
56510SOL     OW71368   9.097   8.387   8.218
56510SOL    HW171369   9.155   8.452   8.257
56510SOL    HW271370   9.117   8.305   8.263
56511SOL     OW71371   3.159  14.633   9.891
56511SOL    HW171372   3.156  14.707   9.830
56511SOL    HW271373   3.145  14.672   9.977
56512SOL     OW71374  11.533   8.752   7.693
56512SOL    HW171375  11.624   8.778   7.704
56512SOL    HW271376  11.498   8.745   7.782
56513SOL     OW71377   7.536   7.270   2.740
56513SOL    HW171378   7.564   7.286   2.830
56513SOL    HW271379   7.453   7.315   2.732
56514SOL     OW71380  12.560   8.278   4.359
56514SOL    HW171381  12.570   8.373   4.361
56514SOL    HW271382  12.466   8.265   4.347
56515SOL     OW71383   7.054   6.412   1.410
56515SOL    HW171384   7.092   6.401   1.497
56515SOL    HW271385   7.114   6.366   1.352
56516SOL     OW71386  13.985   9.426   1.405
56516SOL    HW171387  14.031   9.483   1.343
56516SOL    HW271388  13.892   9.441   1.387
56517SOL     OW71389  14.833   5.690   3.912
56517SOL    HW171390  14.876   5.689   3.997
56517SOL    HW271391  14.794   5.777   3.907
56518SOL     OW71392  14.605   6.751   2.765
56518SOL    HW171393  14.573   6.729   2.853
56518SOL    HW271394  14.566   6.684   2.708
56519SOL     OW71395   7.105   3.584  10.572
56519SOL    HW171396   7.110   3.659  10.632
56519SOL    HW271397   7.164   3.606  10.501
56520SOL     OW71398   5.955  11.879   1.321
56520SOL    HW171399   5.990  11.942   1.383
56520SOL    HW271400   5.981  11.913   1.235
56521SOL     OW71401   0.514   7.956   9.306
56521SOL    HW171402   0.602   7.990   9.289
56521SOL    HW271403   0.469   8.026   9.352
56522SOL     OW71404  12.274   1.551   3.867
56522SOL    HW171405  12.222   1.486   3.914
56522SOL    HW271406  12.252   1.536   3.775
56523SOL     OW71407   2.173   8.473   7.852
56523SOL    HW171408   2.255   8.510   7.886
56523SOL    HW271409   2.180   8.482   7.757
56524SOL     OW71410   7.660  14.476  11.271
56524SOL    HW171411   7.701  14.431  11.197
56524SOL    HW271412   7.614  14.550  11.232
56525SOL     OW71413  12.548   7.251   8.319
56525SOL    HW171414  12.473   7.193   8.330
56525SOL    HW271415  12.576   7.238   8.228
56526SOL     OW71416  11.319   9.050  11.388
56526SOL    HW171417  11.243   9.104  11.366
56526SOL    HW271418  11.311   9.034  11.482
56527SOL     OW71419   3.545   3.023   2.389
56527SOL    HW171420   3.477   3.059   2.333
56527SOL    HW271421   3.626   3.065   2.359
56528SOL     OW71422   6.783  14.550   2.572
56528SOL    HW171423   6.786  14.644   2.593
56528SOL    HW271424   6.873  14.520   2.585
56529SOL     OW71425   8.545  14.724   8.946
56529SOL    HW171426   8.563  14.818   8.954
56529SOL    HW271427   8.450  14.719   8.936
56530SOL     OW71428   7.114  12.649  12.752
56530SOL    HW171429   7.067  12.655  12.669
56530SOL    HW271430   7.204  12.673  12.731
56531SOL     OW71431  14.018   2.189  13.098
56531SOL    HW171432  13.943   2.152  13.144
56531SOL    HW271433  14.093   2.144  13.135
56532SOL     OW71434   0.474   8.436   2.425
56532SOL    HW171435   0.561   8.473   2.408
56532SOL    HW271436   0.476   8.351   2.381
56533SOL     OW71437  10.925   8.993   0.036
56533SOL    HW171438  10.912   8.987   0.131
56533SOL    HW271439  11.006   9.042   0.026
56534SOL     OW71440   6.793   3.453   2.977
56534SOL    HW171441   6.841   3.425   3.054
56534SOL    HW271442   6.858   3.457   2.907
56535SOL     OW71443  11.709   5.192   5.603
56535SOL    HW171444  11.648   5.225   5.537
56535SOL    HW271445  11.763   5.267   5.626
56536SOL     OW71446  10.443   1.000   7.651
56536SOL    HW171447  10.407   1.081   7.616
56536SOL    HW271448  10.532   0.995   7.615
56537SOL     OW71449   5.044   5.327   7.011
56537SOL    HW171450   5.076   5.416   7.026
56537SOL    HW271451   5.107   5.289   6.950
56538SOL     OW71452   0.906   4.636  10.225
56538SOL    HW171453   0.850   4.564  10.254
56538SOL    HW271454   0.877   4.711  10.278
56539SOL     OW71455   9.187   2.927   7.542
56539SOL    HW171456   9.097   2.961   7.537
56539SOL    HW271457   9.188   2.854   7.479
56540SOL     OW71458   2.820   5.665   5.284
56540SOL    HW171459   2.911   5.657   5.256
56540SOL    HW271460   2.824   5.702   5.372
56541SOL     OW71461   6.982   9.830  11.433
56541SOL    HW171462   7.007   9.801  11.345
56541SOL    HW271463   6.998   9.924  11.433
56542SOL     OW71464   7.750  11.934  13.944
56542SOL    HW171465   7.661  11.954  13.913
56542SOL    HW271466   7.745  11.843  13.973
56543SOL     OW71467   2.285  11.833  10.682
56543SOL    HW171468   2.321  11.820  10.770
56543SOL    HW271469   2.318  11.919  10.655
56544SOL     OW71470   5.201   3.769  12.120
56544SOL    HW171471   5.163   3.846  12.162
56544SOL    HW271472   5.148   3.756  12.041
56545SOL     OW71473   1.505   1.494   1.716
56545SOL    HW171474   1.465   1.430   1.657
56545SOL    HW271475   1.543   1.442   1.787
56546SOL     OW71476  12.801   0.885   4.742
56546SOL    HW171477  12.890   0.866   4.769
56546SOL    HW271478  12.775   0.961   4.796
56547SOL     OW71479  10.541   7.539  11.286
56547SOL    HW171480  10.523   7.499  11.201
56547SOL    HW271481  10.629   7.509  11.308
56548SOL     OW71482   1.599   8.443   2.094
56548SOL    HW171483   1.536   8.401   2.036
56548SOL    HW271484   1.577   8.410   2.181
56549SOL     OW71485  12.297  11.540   8.442
56549SOL    HW171486  12.274  11.633   8.445
56549SOL    HW271487  12.345  11.530   8.360
56550SOL     OW71488   4.123   3.981   3.184
56550SOL    HW171489   4.092   4.070   3.168
56550SOL    HW271490   4.183   3.990   3.258
56551SOL     OW71491  14.418   1.606   9.094
56551SOL    HW171492  14.403   1.555   9.015
56551SOL    HW271493  14.359   1.568   9.159
56552SOL     OW71494   5.270  11.510  12.269
56552SOL    HW171495   5.255  11.420  12.299
56552SOL    HW271496   5.276  11.561  12.349
56553SOL     OW71497   1.404   5.415  14.520
56553SOL    HW171498   1.470   5.351  14.547
56553SOL    HW271499   1.412   5.419  14.425
56554SOL     OW71500   1.294   6.061  12.083
56554SOL    HW171501   1.295   6.015  11.999
56554SOL    HW271502   1.366   6.023  12.133
56555SOL     OW71503   8.761   2.555   9.012
56555SOL    HW171504   8.829   2.502   8.971
56555SOL    HW271505   8.727   2.501   9.084
56556SOL     OW71506   0.059   4.527   6.358
56556SOL    HW171507   0.026   4.456   6.414
56556SOL    HW271508   0.139   4.492   6.320
56557SOL     OW71509   4.602  12.640  13.432
56557SOL    HW171510   4.610  12.579  13.506
56557SOL    HW271511   4.672  12.704  13.446
56558SOL     OW71512   6.514  10.020   1.454
56558SOL    HW171513   6.505  10.093   1.392
56558SOL    HW271514   6.473   9.946   1.410
56559SOL     OW71515   8.397  14.561   1.619
56559SOL    HW171516   8.446  14.621   1.676
56559SOL    HW271517   8.414  14.593   1.531
56560SOL     OW71518   5.282   3.751   2.504
56560SOL    HW171519   5.341   3.809   2.553
56560SOL    HW271520   5.243   3.695   2.570
56561SOL     OW71521   9.107   3.589   0.081
56561SOL    HW171522   9.034   3.645   0.110
56561SOL    HW271523   9.177   3.607   0.143
56562SOL     OW71524  10.196   1.172  13.702
56562SOL    HW171525  10.213   1.242  13.765
56562SOL    HW271526  10.221   1.209  13.618
56563SOL     OW71527   9.382  11.839  11.069
56563SOL    HW171528   9.445  11.793  11.124
56563SOL    HW271529   9.305  11.851  11.125
56564SOL     OW71530   8.693   6.790  11.831
56564SOL    HW171531   8.696   6.777  11.926
56564SOL    HW271532   8.653   6.877  11.821
56565SOL     OW71533  13.000   8.520   6.289
56565SOL    HW171534  12.942   8.558   6.222
56565SOL    HW271535  12.990   8.578   6.364
56566SOL     OW71536   5.830   8.048  10.308
56566SOL    HW171537   5.860   8.050  10.217
56566SOL    HW271538   5.823   8.140  10.334
56567SOL     OW71539   8.517   4.027   3.308
56567SOL    HW171540   8.483   3.948   3.268
56567SOL    HW271541   8.440   4.071   3.345
56568SOL     OW71542  12.350   4.649  11.322
56568SOL    HW171543  12.425   4.624  11.268
56568SOL    HW271544  12.377   4.628  11.412
56569SOL     OW71545  11.080   4.772  13.705
56569SOL    HW171546  11.021   4.697  13.712
56569SOL    HW271547  11.137   4.750  13.631
56570SOL     OW71548   4.520   8.560   5.046
56570SOL    HW171549   4.615   8.550   5.051
56570SOL    HW271550   4.496   8.607   5.125
56571SOL     OW71551  12.196  12.850   4.302
56571SOL    HW171552  12.165  12.760   4.298
56571SOL    HW271553  12.261  12.857   4.232
56572SOL     OW71554  11.877  14.001   2.716
56572SOL    HW171555  11.965  14.036   2.703
56572SOL    HW271556  11.880  13.962   2.803
56573SOL     OW71557  12.545   6.033   0.130
56573SOL    HW171558  12.593   6.053   0.211
56573SOL    HW271559  12.614   6.012   0.066
56574SOL     OW71560  13.933   8.526   0.562
56574SOL    HW171561  13.932   8.600   0.622
56574SOL    HW271562  14.004   8.545   0.501
56575SOL     OW71563   1.568  13.473   4.069
56575SOL    HW171564   1.483  13.485   4.028
56575SOL    HW271565   1.558  13.509   4.157
56576SOL     OW71566  10.568   1.665   0.273
56576SOL    HW171567  10.629   1.738   0.282
56576SOL    HW271568  10.530   1.654   0.360
56577SOL     OW71569  12.012  13.408   1.258
56577SOL    HW171570  12.011  13.418   1.163
56577SOL    HW271571  12.054  13.323   1.272
56578SOL     OW71572   9.841  11.331   0.642
56578SOL    HW171573   9.812  11.313   0.731
56578SOL    HW271574   9.854  11.245   0.603
56579SOL     OW71575  11.630   2.135   3.824
56579SOL    HW171576  11.605   2.096   3.908
56579SOL    HW271577  11.547   2.148   3.778
56580SOL     OW71578   3.021  10.193   1.307
56580SOL    HW171579   2.983  10.210   1.221
56580SOL    HW271580   2.949  10.210   1.368
56581SOL     OW71581  13.233   3.740  11.527
56581SOL    HW171582  13.293   3.796  11.577
56581SOL    HW271583  13.240   3.773  11.437
56582SOL     OW71584  11.021   7.181  11.579
56582SOL    HW171585  11.073   7.246  11.532
56582SOL    HW271586  10.998   7.223  11.662
56583SOL     OW71587   2.916   0.842   9.277
56583SOL    HW171588   2.853   0.898   9.231
56583SOL    HW271589   2.907   0.756   9.236
56584SOL     OW71590  11.156   7.762  14.198
56584SOL    HW171591  11.167   7.855  14.221
56584SOL    HW271592  11.216   7.749  14.125
56585SOL     OW71593   8.674  13.012  14.878
56585SOL    HW171594   8.612  12.943   0.016
56585SOL    HW271595   8.669  13.072   0.071
56586SOL     OW71596   4.299   1.143   0.112
56586SOL    HW171597   4.363   1.074   0.102
56586SOL    HW271598   4.229   1.105   0.165
56587SOL     OW71599  12.033   7.546   1.128
56587SOL    HW171600  12.023   7.638   1.104
56587SOL    HW271601  12.064   7.548   1.218
56588SOL     OW71602   8.453  12.625   5.822
56588SOL    HW171603   8.500  12.703   5.852
56588SOL    HW271604   8.521  12.564   5.794
56589SOL     OW71605   1.615  14.385  12.982
56589SOL    HW171606   1.568  14.305  12.957
56589SOL    HW271607   1.565  14.420  13.056
56590SOL     OW71608   9.590   4.648   3.790
56590SOL    HW171609   9.575   4.653   3.695
56590SOL    HW271610   9.508   4.614   3.825
56591SOL     OW71611   0.748   7.349   2.804
56591SOL    HW171612   0.722   7.435   2.837
56591SOL    HW271613   0.731   7.354   2.710
56592SOL     OW71614  14.652   9.567   1.064
56592SOL    HW171615  14.620   9.603   0.981
56592SOL    HW271616  14.618   9.477   1.066
56593SOL     OW71617  11.968  13.555   0.178
56593SOL    HW171618  11.916  13.627   0.215
56593SOL    HW271619  12.019  13.522   0.252
56594SOL     OW71620   8.614   5.567  10.735
56594SOL    HW171621   8.639   5.475  10.737
56594SOL    HW271622   8.524   5.568  10.768
56595SOL     OW71623   0.980   8.223   4.333
56595SOL    HW171624   0.904   8.279   4.351
56595SOL    HW271625   1.020   8.208   4.418
56596SOL     OW71626   8.441   4.061   9.864
56596SOL    HW171627   8.372   4.125   9.879
56596SOL    HW271628   8.406   3.979   9.899
56597SOL     OW71629   5.377   4.159  11.518
56597SOL    HW171630   5.436   4.090  11.549
56597SOL    HW271631   5.407   4.177  11.429
56598SOL     OW71632  11.841   7.881   9.525
56598SOL    HW171633  11.746   7.875   9.531
56598SOL    HW271634  11.861   7.973   9.544
56599SOL     OW71635   9.661  11.187   1.581
56599SOL    HW171636   9.681  11.239   1.504
56599SOL    HW271637   9.739  11.133   1.595
56600SOL     OW71638   6.646   5.528   6.508
56600SOL    HW171639   6.666   5.566   6.593
56600SOL    HW271640   6.730   5.499   6.474
56601SOL     OW71641  10.871   4.109   6.129
56601SOL    HW171642  10.859   4.179   6.064
56601SOL    HW271643  10.924   4.150   6.198
56602SOL     OW71644   9.181  12.131   1.744
56602SOL    HW171645   9.097  12.154   1.784
56602SOL    HW271646   9.198  12.042   1.774
56603SOL     OW71647   7.868  14.066   2.300
56603SOL    HW171648   7.779  14.051   2.330
56603SOL    HW271649   7.883  14.001   2.232
56604SOL     OW71650   7.201   0.981   9.011
56604SOL    HW171651   7.257   1.036   9.067
56604SOL    HW271652   7.143   0.936   9.072
56605SOL     OW71653   2.010   6.929   4.302
56605SOL    HW171654   1.920   6.941   4.271
56605SOL    HW271655   2.061   6.917   4.222
56606SOL     OW71656  12.672   8.304   1.831
56606SOL    HW171657  12.694   8.318   1.923
56606SOL    HW271658  12.585   8.341   1.821
56607SOL     OW71659   2.881   1.776   0.799
56607SOL    HW171660   2.827   1.792   0.877
56607SOL    HW271661   2.919   1.861   0.778
56608SOL     OW71662  12.004   3.101  11.830
56608SOL    HW171663  11.938   3.082  11.764
56608SOL    HW271664  12.065   3.028  11.826
56609SOL     OW71665  14.453  12.149   7.207
56609SOL    HW171666  14.515  12.165   7.136
56609SOL    HW271667  14.380  12.209   7.189
56610SOL     OW71668   7.121   9.098   9.275
56610SOL    HW171669   7.099   9.117   9.366
56610SOL    HW271670   7.180   9.023   9.279
56611SOL     OW71671   0.098   7.035   2.031
56611SOL    HW171672   0.111   6.995   2.117
56611SOL    HW271673   0.015   7.082   2.038
56612SOL     OW71674  10.442   9.903   8.247
56612SOL    HW171675  10.491   9.942   8.175
56612SOL    HW271676  10.447   9.809   8.232
56613SOL     OW71677  11.972  12.668   2.405
56613SOL    HW171678  12.053  12.710   2.375
56613SOL    HW271679  11.980  12.666   2.500
56614SOL     OW71680   5.535   2.233  13.510
56614SOL    HW171681   5.600   2.243  13.579
56614SOL    HW271682   5.451   2.230  13.556
56615SOL     OW71683   4.200   3.435   4.569
56615SOL    HW171684   4.182   3.346   4.601
56615SOL    HW271685   4.278   3.462   4.616
56616SOL     OW71686   2.103   5.077   1.026
56616SOL    HW171687   2.152   5.141   0.975
56616SOL    HW271688   2.014   5.081   0.992
56617SOL     OW71689   8.844   7.321   8.547
56617SOL    HW171690   8.934   7.321   8.580
56617SOL    HW271691   8.821   7.228   8.543
56618SOL     OW71692  14.190  13.760  11.053
56618SOL    HW171693  14.228  13.799  11.132
56618SOL    HW271694  14.259  13.705  11.018
56619SOL     OW71695  13.474   7.409   1.482
56619SOL    HW171696  13.570   7.407   1.487
56619SOL    HW271697  13.448   7.453   1.563
56620SOL     OW71698   2.625   6.227   9.124
56620SOL    HW171699   2.679   6.195   9.196
56620SOL    HW271700   2.568   6.293   9.164
56621SOL     OW71701   2.965   3.020  12.437
56621SOL    HW171702   2.983   2.972  12.357
56621SOL    HW271703   2.880   3.062  12.422
56622SOL     OW71704   6.362  13.735   0.943
56622SOL    HW171705   6.329  13.672   1.008
56622SOL    HW271706   6.282  13.773   0.905
56623SOL     OW71707   2.932  13.925   8.605
56623SOL    HW171708   3.014  13.968   8.579
56623SOL    HW271709   2.960  13.852   8.660
56624SOL     OW71710   0.372   8.329   0.878
56624SOL    HW171711   0.328   8.414   0.881
56624SOL    HW271712   0.410   8.319   0.965
56625SOL     OW71713  12.994  12.391   2.998
56625SOL    HW171714  13.013  12.314   3.051
56625SOL    HW271715  12.899  12.402   3.005
56626SOL     OW71716   4.740   8.155  11.687
56626SOL    HW171717   4.709   8.223  11.747
56626SOL    HW271718   4.680   8.160  11.612
56627SOL     OW71719  10.718   2.410   8.371
56627SOL    HW171720  10.623   2.425   8.367
56627SOL    HW271721  10.728   2.329   8.420
56628SOL     OW71722  11.712   8.700   5.097
56628SOL    HW171723  11.660   8.630   5.137
56628SOL    HW271724  11.800   8.663   5.089
56629SOL     OW71725   3.374   2.045   1.806
56629SOL    HW171726   3.387   2.122   1.861
56629SOL    HW271727   3.438   1.981   1.839
56630SOL     OW71728   3.577   9.501  14.859
56630SOL    HW171729   3.672   9.498  14.852
56630SOL    HW271730   3.546   9.487  14.770
56631SOL     OW71731  12.405  12.466   6.840
56631SOL    HW171732  12.429  12.528   6.909
56631SOL    HW271733  12.346  12.514   6.783
56632SOL     OW71734  13.480  12.214  11.503
56632SOL    HW171735  13.480  12.152  11.576
56632SOL    HW271736  13.572  12.240  11.495
56633SOL     OW71737   1.352   1.258   3.733
56633SOL    HW171738   1.403   1.262   3.813
56633SOL    HW271739   1.411   1.217   3.669
56634SOL     OW71740  13.909  10.191  11.041
56634SOL    HW171741  13.904  10.283  11.067
56634SOL    HW271742  13.958  10.148  11.112
56635SOL     OW71743   3.792   5.838   0.122
56635SOL    HW171744   3.797   5.933   0.134
56635SOL    HW271745   3.699   5.818   0.127
56636SOL     OW71746   3.919   5.054   3.638
56636SOL    HW171747   3.948   4.980   3.692
56636SOL    HW271748   3.970   5.129   3.670
56637SOL     OW71749   4.443  14.293   9.362
56637SOL    HW171750   4.376  14.224   9.360
56637SOL    HW271751   4.396  14.369   9.396
56638SOL     OW71752   0.952   2.399   7.992
56638SOL    HW171753   0.863   2.435   7.989
56638SOL    HW271754   1.002   2.458   7.935
56639SOL     OW71755   7.541  13.117   0.030
56639SOL    HW171756   7.499  13.034   0.005
56639SOL    HW271757   7.501  13.182  14.853
56640SOL     OW71758  14.578   6.221   5.603
56640SOL    HW171759  14.526   6.141   5.600
56640SOL    HW271760  14.565   6.255   5.691
56641SOL     OW71761   0.926  11.185   4.880
56641SOL    HW171762   0.836  11.203   4.852
56641SOL    HW271763   0.924  11.094   4.910
56642SOL     OW71764   1.874   4.079   8.848
56642SOL    HW171765   1.928   4.063   8.770
56642SOL    HW271766   1.786   4.053   8.823
56643SOL     OW71767  11.536   1.358   3.019
56643SOL    HW171768  11.515   1.294   2.951
56643SOL    HW271769  11.504   1.319   3.100
56644SOL     OW71770   7.924   4.006  13.944
56644SOL    HW171771   7.862   4.064  13.988
56644SOL    HW271772   8.010   4.037  13.973
56645SOL     OW71773  14.160   4.798   3.144
56645SOL    HW171774  14.194   4.838   3.224
56645SOL    HW271775  14.148   4.872   3.084
56646SOL     OW71776   7.578  10.317  12.543
56646SOL    HW171777   7.599  10.393  12.597
56646SOL    HW271778   7.605  10.342  12.455
56647SOL     OW71779  12.783   6.433   8.298
56647SOL    HW171780  12.725   6.494   8.255
56647SOL    HW271781  12.808   6.476   8.380
56648SOL     OW71782  14.120  14.796  13.428
56648SOL    HW171783  14.034  14.814  13.465
56648SOL    HW271784  14.175  14.773  13.503
56649SOL     OW71785  12.897   2.441   6.108
56649SOL    HW171786  12.966   2.457   6.173
56649SOL    HW271787  12.856   2.359   6.137
56650SOL     OW71788   8.811  13.877  13.375
56650SOL    HW171789   8.900  13.864  13.344
56650SOL    HW271790   8.765  13.796  13.353
56651SOL     OW71791   2.712  13.517  10.015
56651SOL    HW171792   2.780  13.488  10.076
56651SOL    HW271793   2.636  13.534  10.070
56652SOL     OW71794   7.715  10.836   5.463
56652SOL    HW171795   7.683  10.907   5.407
56652SOL    HW271796   7.668  10.848   5.546
56653SOL     OW71797  11.041  13.208   7.532
56653SOL    HW171798  10.974  13.203   7.600
56653SOL    HW271799  11.109  13.264   7.570
56654SOL     OW71800   5.656   2.696   4.147
56654SOL    HW171801   5.723   2.628   4.145
56654SOL    HW271802   5.576   2.650   4.171
56655SOL     OW71803   2.327   1.750  10.508
56655SOL    HW171804   2.308   1.708  10.593
56655SOL    HW271805   2.359   1.679  10.453
56656SOL     OW71806   5.603   8.645   3.619
56656SOL    HW171807   5.668   8.596   3.670
56656SOL    HW271808   5.527   8.586   3.614
56657SOL     OW71809   7.606   0.581   1.025
56657SOL    HW171810   7.534   0.533   1.066
56657SOL    HW271811   7.621   0.656   1.084
56658SOL     OW71812   2.287   8.978  10.749
56658SOL    HW171813   2.207   9.010  10.706
56658SOL    HW271814   2.293   9.028  10.830
56659SOL     OW71815  12.333   1.225  12.826
56659SOL    HW171816  12.313   1.133  12.842
56659SOL    HW271817  12.425   1.226  12.799
56660SOL     OW71818  14.713   6.490   5.860
56660SOL    HW171819  14.661   6.432   5.915
56660SOL    HW271820  14.684   6.578   5.885
56661SOL     OW71821  11.644   0.826   6.540
56661SOL    HW171822  11.566   0.826   6.485
56661SOL    HW271823  11.710   0.871   6.488
56662SOL     OW71824   6.392   0.795  13.556
56662SOL    HW171825   6.334   0.741  13.502
56662SOL    HW271826   6.435   0.854  13.494
56663SOL     OW71827  11.756   2.747   2.866
56663SOL    HW171828  11.704   2.688   2.811
56663SOL    HW271829  11.797   2.689   2.931
56664SOL     OW71830   0.151   4.277   8.057
56664SOL    HW171831   0.161   4.189   8.020
56664SOL    HW271832   0.147   4.335   7.981
56665SOL     OW71833   4.846   1.088   1.871
56665SOL    HW171834   4.914   1.045   1.923
56665SOL    HW271835   4.872   1.073   1.780
56666SOL     OW71836  13.649   8.933  13.412
56666SOL    HW171837  13.571   8.880  13.393
56666SOL    HW271838  13.687   8.950  13.326
56667SOL     OW71839  11.234   1.726  11.657
56667SOL    HW171840  11.144   1.696  11.664
56667SOL    HW271841  11.287   1.657  11.697
56668SOL     OW71842   0.572   8.420  11.394
56668SOL    HW171843   0.476   8.419  11.396
56668SOL    HW271844   0.594   8.384  11.308
56669SOL     OW71845   1.703   4.998   3.553
56669SOL    HW171846   1.644   4.960   3.618
56669SOL    HW271847   1.686   5.092   3.556
56670SOL     OW71848   6.815   4.616  13.789
56670SOL    HW171849   6.760   4.661  13.725
56670SOL    HW271850   6.851   4.541  13.741
56671SOL     OW71851  12.036  10.790   6.941
56671SOL    HW171852  12.017  10.764   6.850
56671SOL    HW271853  12.077  10.713   6.979
56672SOL     OW71854  11.063   5.330  12.493
56672SOL    HW171855  11.025   5.405  12.539
56672SOL    HW271856  11.126   5.293  12.555
56673SOL     OW71857   3.675  14.554   6.528
56673SOL    HW171858   3.765  14.524   6.538
56673SOL    HW271859   3.632  14.531   6.610
56674SOL     OW71860   1.569  10.844   6.663
56674SOL    HW171861   1.662  10.829   6.649
56674SOL    HW271862   1.526  10.794   6.594
56675SOL     OW71863   9.030   3.866   7.396
56675SOL    HW171864   9.097   3.918   7.442
56675SOL    HW271865   8.952   3.873   7.451
56676SOL     OW71866  14.468   8.097   3.757
56676SOL    HW171867  14.561   8.085   3.778
56676SOL    HW271868  14.450   8.188   3.780
56677SOL     OW71869  11.810   9.580   5.467
56677SOL    HW171870  11.761   9.638   5.525
56677SOL    HW271871  11.806   9.623   5.382
56678SOL     OW71872   5.974   9.919   9.272
56678SOL    HW171873   5.936   9.915   9.360
56678SOL    HW271874   5.935   9.845   9.225
56679SOL     OW71875  12.093   0.753  11.931
56679SOL    HW171876  12.077   0.848  11.937
56679SOL    HW271877  12.045   0.726  11.853
56680SOL     OW71878  13.463   7.437   2.010
56680SOL    HW171879  13.551   7.472   2.019
56680SOL    HW271880  13.463   7.356   2.060
56681SOL     OW71881   5.952   0.081   8.341
56681SOL    HW171882   5.994   0.074   8.427
56681SOL    HW271883   5.860   0.063   8.358
56682SOL     OW71884  12.076  11.500   3.213
56682SOL    HW171885  12.104  11.409   3.222
56682SOL    HW271886  12.049  11.508   3.122
56683SOL     OW71887   0.643  10.510   8.517
56683SOL    HW171888   0.678  10.422   8.503
56683SOL    HW271889   0.582  10.499   8.590
56684SOL     OW71890  11.458   5.399   7.896
56684SOL    HW171891  11.518   5.465   7.932
56684SOL    HW271892  11.462   5.326   7.957
56685SOL     OW71893   1.830   0.301  11.355
56685SOL    HW171894   1.819   0.381  11.304
56685SOL    HW271895   1.893   0.324  11.423
56686SOL     OW71896  14.437   6.741   9.063
56686SOL    HW171897  14.403   6.814   9.012
56686SOL    HW271898  14.363   6.712   9.116
56687SOL     OW71899  12.874   8.847   0.358
56687SOL    HW171900  12.941   8.795   0.315
56687SOL    HW271901  12.815   8.873   0.288
56688SOL     OW71902   2.075  11.544  14.080
56688SOL    HW171903   1.995  11.554  14.029
56688SOL    HW271904   2.123  11.625  14.066
56689SOL     OW71905  14.622   2.083  12.788
56689SOL    HW171906  14.594   2.112  12.702
56689SOL    HW271907  14.691   2.145  12.813
56690SOL     OW71908   5.850   8.118   8.122
56690SOL    HW171909   5.894   8.203   8.125
56690SOL    HW271910   5.793   8.118   8.198
56691SOL     OW71911   8.902  11.225  12.018
56691SOL    HW171912   8.911  11.186  12.105
56691SOL    HW271913   8.982  11.199  11.972
56692SOL     OW71914  11.588   1.626   4.989
56692SOL    HW171915  11.576   1.532   4.984
56692SOL    HW271916  11.527   1.656   5.056
56693SOL     OW71917  12.170   5.311   5.162
56693SOL    HW171918  12.124   5.344   5.086
56693SOL    HW271919  12.137   5.363   5.235
56694SOL     OW71920   9.894   2.566   8.300
56694SOL    HW171921   9.882   2.582   8.206
56694SOL    HW271922   9.869   2.474   8.311
56695SOL     OW71923  12.534   0.765   1.308
56695SOL    HW171924  12.616   0.728   1.277
56695SOL    HW271925  12.466   0.716   1.261
56696SOL     OW71926  14.184   5.640   1.581
56696SOL    HW171927  14.168   5.598   1.497
56696SOL    HW271928  14.235   5.719   1.559
56697SOL     OW71929   1.713   5.994   3.294
56697SOL    HW171930   1.788   5.963   3.244
56697SOL    HW271931   1.752   6.044   3.366
56698SOL     OW71932   7.226  11.203   8.608
56698SOL    HW171933   7.144  11.190   8.561
56698SOL    HW271934   7.200  11.224   8.697
56699SOL     OW71935   0.029   0.457   6.608
56699SOL    HW171936   0.107   0.505   6.581
56699SOL    HW271937  14.857   0.522   6.653
56700SOL     OW71938   3.725   0.584  12.016
56700SOL    HW171939   3.789   0.514  12.007
56700SOL    HW271940   3.645   0.541  12.045
56701SOL     OW71941   9.732   1.724   1.508
56701SOL    HW171942   9.715   1.768   1.425
56701SOL    HW271943   9.736   1.631   1.486
56702SOL     OW71944   6.993   0.624   0.670
56702SOL    HW171945   6.956   0.642   0.756
56702SOL    HW271946   6.922   0.583   0.621
56703SOL     OW71947   3.719   3.369   2.865
56703SOL    HW171948   3.719   3.307   2.792
56703SOL    HW271949   3.727   3.455   2.823
56704SOL     OW71950  13.332   9.751   5.910
56704SOL    HW171951  13.276   9.818   5.871
56704SOL    HW271952  13.307   9.670   5.866
56705SOL     OW71953   5.547   9.746  11.408
56705SOL    HW171954   5.581   9.659  11.431
56705SOL    HW271955   5.559   9.752  11.313
56706SOL     OW71956   2.357   9.003   3.468
56706SOL    HW171957   2.437   9.041   3.505
56706SOL    HW271958   2.311   8.965   3.542
56707SOL     OW71959   5.057   1.650   6.768
56707SOL    HW171960   5.145   1.640   6.732
56707SOL    HW271961   5.052   1.742   6.794
56708SOL     OW71962   5.087  14.776   3.398
56708SOL    HW171963   5.062  14.762   3.489
56708SOL    HW271964   5.005  14.795   3.353
56709SOL     OW71965  11.385   3.325   2.194
56709SOL    HW171966  11.342   3.351   2.275
56709SOL    HW271967  11.322   3.267   2.151
56710SOL     OW71968  14.352  13.383  12.576
56710SOL    HW171969  14.358  13.291  12.601
56710SOL    HW271970  14.407  13.391  12.498
56711SOL     OW71971   7.979   1.148   1.412
56711SOL    HW171972   7.970   1.148   1.507
56711SOL    HW271973   8.073   1.145   1.396
56712SOL     OW71974   3.158   7.499  13.203
56712SOL    HW171975   3.076   7.451  13.193
56712SOL    HW271976   3.164   7.553  13.124
56713SOL     OW71977  11.595   9.637  13.737
56713SOL    HW171978  11.588   9.564  13.675
56713SOL    HW271979  11.525   9.622  13.801
56714SOL     OW71980   5.195   6.393  10.313
56714SOL    HW171981   5.183   6.423  10.403
56714SOL    HW271982   5.207   6.299  10.320
56715SOL     OW71983   8.377   1.745  14.411
56715SOL    HW171984   8.355   1.670  14.467
56715SOL    HW271985   8.453   1.715  14.361
56716SOL     OW71986   0.118   5.866   6.197
56716SOL    HW171987   0.201   5.879   6.151
56716SOL    HW271988   0.067   5.808   6.140
56717SOL     OW71989   7.181   0.228   8.733
56717SOL    HW171990   7.097   0.183   8.738
56717SOL    HW271991   7.193   0.268   8.819
56718SOL     OW71992  14.730  13.200   7.242
56718SOL    HW171993  14.661  13.197   7.308
56718SOL    HW271994  14.811  13.208   7.292
56719SOL     OW71995   0.477   4.921  12.491
56719SOL    HW171996   0.408   4.861  12.462
56719SOL    HW271997   0.551   4.901  12.433
56720SOL     OW71998   9.752  14.057   9.722
56720SOL    HW171999   9.769  13.972   9.681
56720SOL    HW272000   9.837  14.085   9.756
56721SOL     OW72001  14.717   3.829  12.686
56721SOL    HW172002  14.714   3.763  12.755
56721SOL    HW272003  14.694   3.911  12.730
56722SOL     OW72004   2.894   4.781   4.937
56722SOL    HW172005   2.808   4.758   4.902
56722SOL    HW272006   2.908   4.719   5.009
56723SOL     OW72007  12.708   9.977   9.664
56723SOL    HW172008  12.735  10.046   9.724
56723SOL    HW272009  12.615   9.965   9.682
56724SOL     OW72010  11.429  11.145   5.520
56724SOL    HW172011  11.433  11.240   5.511
56724SOL    HW272012  11.475  11.112   5.443
56725SOL     OW72013   0.228  10.534   6.521
56725SOL    HW172014   0.145  10.544   6.568
56725SOL    HW272015   0.252  10.442   6.534
56726SOL     OW72016  11.803   9.747   3.886
56726SOL    HW172017  11.732   9.798   3.847
56726SOL    HW272018  11.788   9.657   3.855
56727SOL     OW72019  14.239  11.805   7.191
56727SOL    HW172020  14.163  11.761   7.230
56727SOL    HW272021  14.312  11.781   7.248
56728SOL     OW72022  10.526   9.492  11.291
56728SOL    HW172023  10.489   9.498  11.203
56728SOL    HW272024  10.522   9.399  11.312
56729SOL     OW72025   0.149  10.939   0.045
56729SOL    HW172026   0.238  10.930   0.010
56729SOL    HW272027   0.116  11.020   0.006
56730SOL     OW72028   0.225  12.301  12.003
56730SOL    HW172029   0.153  12.298  12.067
56730SOL    HW272030   0.214  12.221  11.952
56731SOL     OW72031   1.226   4.087   7.739
56731SOL    HW172032   1.314   4.113   7.765
56731SOL    HW272033   1.239   4.023   7.669
56732SOL     OW72034   7.368   2.292   7.131
56732SOL    HW172035   7.356   2.203   7.098
56732SOL    HW272036   7.437   2.329   7.075
56733SOL     OW72037   2.814   4.826  12.428
56733SOL    HW172038   2.894   4.858  12.471
56733SOL    HW272039   2.779   4.903  12.383
56734SOL     OW72040   2.413   6.518  11.728
56734SOL    HW172041   2.436   6.609  11.749
56734SOL    HW272042   2.443   6.468  11.804
56735SOL     OW72043  14.627  13.658   7.773
56735SOL    HW172044  14.705  13.615   7.739
56735SOL    HW272045  14.554  13.614   7.730
56736SOL     OW72046  10.554  11.658   2.512
56736SOL    HW172047  10.491  11.586   2.511
56736SOL    HW272048  10.528  11.712   2.587
56737SOL     OW72049   2.692  10.392   3.826
56737SOL    HW172050   2.764  10.434   3.778
56737SOL    HW272051   2.636  10.355   3.758
56738SOL     OW72052  13.020   9.206   0.646
56738SOL    HW172053  13.017   9.123   0.598
56738SOL    HW272054  13.086   9.258   0.599
56739SOL     OW72055   2.805  14.560  11.097
56739SOL    HW172056   2.897  14.533  11.099
56739SOL    HW272057   2.802  14.641  11.147
56740SOL     OW72058   0.970  11.606   2.316
56740SOL    HW172059   0.969  11.615   2.221
56740SOL    HW272060   1.060  11.627   2.341
56741SOL     OW72061   1.970   5.899   7.795
56741SOL    HW172062   1.907   5.970   7.810
56741SOL    HW272063   2.055   5.940   7.807
56742SOL     OW72064   4.866   6.036   9.973
56742SOL    HW172065   4.809   5.963   9.998
56742SOL    HW272066   4.949   5.995   9.949
56743SOL     OW72067  14.559   9.005  12.384
56743SOL    HW172068  14.557   9.096  12.415
56743SOL    HW272069  14.566   9.012  12.289
56744SOL     OW72070   7.328  11.782  10.159
56744SOL    HW172071   7.308  11.792  10.066
56744SOL    HW272072   7.252  11.738  10.196
56745SOL     OW72073   9.224   5.165   2.782
56745SOL    HW172074   9.268   5.237   2.738
56745SOL    HW272075   9.287   5.093   2.779
56746SOL     OW72076   9.016   6.132  12.736
56746SOL    HW172077   9.079   6.123  12.807
56746SOL    HW272078   9.011   6.046  12.696
56747SOL     OW72079   9.311   8.666   0.525
56747SOL    HW172080   9.241   8.645   0.464
56747SOL    HW272081   9.287   8.751   0.560
56748SOL     OW72082   1.619  13.850   8.226
56748SOL    HW172083   1.657  13.913   8.288
56748SOL    HW272084   1.563  13.903   8.169
56749SOL     OW72085   8.914  10.771   5.229
56749SOL    HW172086   9.007  10.760   5.208
56749SOL    HW272087   8.911  10.849   5.285
56750SOL     OW72088   7.084  10.904  13.906
56750SOL    HW172089   7.044  10.844  13.969
56750SOL    HW272090   7.173  10.918  13.937
56751SOL     OW72091   5.963   5.593   5.925
56751SOL    HW172092   6.028   5.630   5.984
56751SOL    HW272093   6.008   5.521   5.881
56752SOL     OW72094   0.430  14.150   5.322
56752SOL    HW172095   0.509  14.166   5.372
56752SOL    HW272096   0.418  14.229   5.269
56753SOL     OW72097   7.037  13.905   7.515
56753SOL    HW172098   6.957  13.855   7.532
56753SOL    HW272099   7.013  13.965   7.445
56754SOL     OW72100   8.207   3.413   4.111
56754SOL    HW172101   8.273   3.398   4.043
56754SOL    HW272102   8.210   3.335   4.165
56755SOL     OW72103   5.661  10.254   9.936
56755SOL    HW172104   5.685  10.166   9.962
56755SOL    HW272105   5.576  10.269   9.978
56756SOL     OW72106  11.865   5.509  10.559
56756SOL    HW172107  11.934   5.573  10.547
56756SOL    HW272108  11.851   5.507  10.654
56757SOL     OW72109   3.033   7.934  14.677
56757SOL    HW172110   3.125   7.958  14.666
56757SOL    HW272111   3.032   7.876  14.753
56758SOL     OW72112   0.602   9.359   6.795
56758SOL    HW172113   0.539   9.425   6.766
56758SOL    HW272114   0.550   9.295   6.842
56759SOL     OW72115  12.472  14.349   7.351
56759SOL    HW172116  12.567  14.348   7.341
56759SOL    HW272117  12.443  14.425   7.300
56760SOL     OW72118  11.397   1.788   9.153
56760SOL    HW172119  11.437   1.847   9.090
56760SOL    HW272120  11.395   1.703   9.109
56761SOL     OW72121   1.351   5.616  11.644
56761SOL    HW172122   1.326   5.558  11.715
56761SOL    HW272123   1.433   5.656  11.673
56762SOL     OW72124   4.100   3.197  11.641
56762SOL    HW172125   4.062   3.110  11.646
56762SOL    HW272126   4.106   3.226  11.732
56763SOL     OW72127   0.040  14.151   3.480
56763SOL    HW172128   0.068  14.140   3.389
56763SOL    HW272129   0.075  14.236   3.506
56764SOL     OW72130   5.366  10.403   9.811
56764SOL    HW172131   5.324  10.345   9.747
56764SOL    HW272132   5.398  10.477   9.759
56765SOL     OW72133   3.761   1.133  13.462
56765SOL    HW172134   3.855   1.148  13.460
56765SOL    HW272135   3.732   1.156  13.373
56766SOL     OW72136  14.144   5.400   7.265
56766SOL    HW172137  14.150   5.476   7.323
56766SOL    HW272138  14.205   5.419   7.194
56767SOL     OW72139   9.245  13.161  14.100
56767SOL    HW172140   9.161  13.202  14.118
56767SOL    HW272141   9.245  13.081  14.152
56768SOL     OW72142   5.425   1.141   8.466
56768SOL    HW172143   5.435   1.158   8.373
56768SOL    HW272144   5.412   1.227   8.505
56769SOL     OW72145   3.137  10.894   4.520
56769SOL    HW172146   3.162  10.974   4.566
56769SOL    HW272147   3.162  10.823   4.579
56770SOL     OW72148   3.744   1.096   4.390
56770SOL    HW172149   3.772   1.052   4.310
56770SOL    HW272150   3.684   1.164   4.360
56771SOL     OW72151  11.975   0.808   1.731
56771SOL    HW172152  12.066   0.835   1.737
56771SOL    HW272153  11.940   0.858   1.657
56772SOL     OW72154   2.565  10.173   5.770
56772SOL    HW172155   2.594  10.163   5.679
56772SOL    HW272156   2.492  10.112   5.778
56773SOL     OW72157  11.019   8.498   9.698
56773SOL    HW172158  10.990   8.407   9.708
56773SOL    HW272159  10.958   8.535   9.634
56774SOL     OW72160  11.705   6.543   0.754
56774SOL    HW172161  11.794   6.528   0.724
56774SOL    HW272162  11.715   6.601   0.830
56775SOL     OW72163   5.221   5.754   0.025
56775SOL    HW172164   5.242   5.790  14.821
56775SOL    HW272165   5.294   5.696   0.045
56776SOL     OW72166  13.718   4.782  11.261
56776SOL    HW172167  13.717   4.696  11.303
56776SOL    HW272168  13.767   4.838  11.321
56777SOL     OW72169   2.331   1.231   7.320
56777SOL    HW172170   2.384   1.156   7.293
56777SOL    HW272171   2.383   1.274   7.388
56778SOL     OW72172   4.122   4.276   1.458
56778SOL    HW172173   4.042   4.283   1.511
56778SOL    HW272174   4.098   4.314   1.374
56779SOL     OW72175  14.231  14.111  13.897
56779SOL    HW172176  14.205  14.054  13.970
56779SOL    HW272177  14.246  14.050  13.824
56780SOL     OW72178   8.200   9.274   4.260
56780SOL    HW172179   8.285   9.231   4.255
56780SOL    HW272180   8.148   9.219   4.319
56781SOL     OW72181   3.648  10.898  14.414
56781SOL    HW172182   3.584  10.827  14.407
56781SOL    HW272183   3.724  10.867  14.364
56782SOL     OW72184   4.304   2.453   0.169
56782SOL    HW172185   4.341   2.376   0.213
56782SOL    HW272186   4.358   2.526   0.199
56783SOL     OW72187   1.637   3.296   3.947
56783SOL    HW172188   1.642   3.221   4.007
56783SOL    HW272189   1.662   3.260   3.862
56784SOL     OW72190   1.363   5.601   4.194
56784SOL    HW172191   1.440   5.595   4.138
56784SOL    HW272192   1.319   5.682   4.166
56785SOL     OW72193   0.783   9.050  11.716
56785SOL    HW172194   0.806   9.108  11.788
56785SOL    HW272195   0.688   9.039  11.722
56786SOL     OW72196   2.036   9.079   7.529
56786SOL    HW172197   2.082   9.148   7.482
56786SOL    HW272198   2.053   9.098   7.621
56787SOL     OW72199   3.675  13.919   9.225
56787SOL    HW172200   3.620  13.881   9.294
56787SOL    HW272201   3.619  13.986   9.186
56788SOL     OW72202  10.415   1.375  12.975
56788SOL    HW172203  10.497   1.330  12.992
56788SOL    HW272204  10.422   1.457  13.023
56789SOL     OW72205   7.421  10.511   8.813
56789SOL    HW172206   7.481  10.494   8.741
56789SOL    HW272207   7.398  10.425   8.847
56790SOL     OW72208  13.328   4.932  12.083
56790SOL    HW172209  13.342   4.958  12.174
56790SOL    HW272210  13.338   5.014  12.033
56791SOL     OW72211   1.079  14.550   1.316
56791SOL    HW172212   1.094  14.555   1.221
56791SOL    HW272213   1.029  14.470   1.328
56792SOL     OW72214   4.377  12.869   5.548
56792SOL    HW172215   4.403  12.921   5.472
56792SOL    HW272216   4.299  12.822   5.519
56793SOL     OW72217  13.811  12.656   0.833
56793SOL    HW172218  13.833  12.687   0.921
56793SOL    HW272219  13.780  12.734   0.787
56794SOL     OW72220   2.767   1.693   3.797
56794SOL    HW172221   2.823   1.620   3.771
56794SOL    HW272222   2.828   1.759   3.832
56795SOL     OW72223  14.683   7.490   8.160
56795SOL    HW172224  14.616   7.467   8.095
56795SOL    HW272225  14.735   7.558   8.116
56796SOL     OW72226  10.083  13.106   6.590
56796SOL    HW172227  10.111  13.092   6.680
56796SOL    HW272228  10.164  13.100   6.539
56797SOL     OW72229   3.005  14.233   2.132
56797SOL    HW172230   2.938  14.302   2.128
56797SOL    HW272231   3.033  14.233   2.224
56798SOL     OW72232   7.792   1.753  13.594
56798SOL    HW172233   7.807   1.798  13.511
56798SOL    HW272234   7.880   1.728  13.624
56799SOL     OW72235   4.160   8.725   6.031
56799SOL    HW172236   4.103   8.683   5.967
56799SOL    HW272237   4.228   8.660   6.048
56800SOL     OW72238   0.945   9.778   6.906
56800SOL    HW172239   0.953   9.873   6.895
56800SOL    HW272240   0.862   9.766   6.952
56801SOL     OW72241   1.678   5.206   5.369
56801SOL    HW172242   1.731   5.129   5.391
56801SOL    HW272243   1.588   5.176   5.382
56802SOL     OW72244   7.363   7.820   5.541
56802SOL    HW172245   7.426   7.786   5.477
56802SOL    HW272246   7.394   7.786   5.625
56803SOL     OW72247  10.180   1.367   3.332
56803SOL    HW172248  10.114   1.299   3.341
56803SOL    HW272249  10.130   1.447   3.313
56804SOL     OW72250   0.883   3.762  11.354
56804SOL    HW172251   0.857   3.712  11.277
56804SOL    HW272252   0.963   3.719  11.385
56805SOL     OW72253   8.120   0.505  12.230
56805SOL    HW172254   8.039   0.556  12.236
56805SOL    HW272255   8.112   0.458  12.146
56806SOL     OW72256   7.491   3.296   3.999
56806SOL    HW172257   7.532   3.379   3.975
56806SOL    HW272258   7.563   3.243   4.034
56807SOL     OW72259   6.887   0.805   5.577
56807SOL    HW172260   6.968   0.774   5.618
56807SOL    HW272261   6.893   0.901   5.583
56808SOL     OW72262  12.426   5.303   9.587
56808SOL    HW172263  12.335   5.331   9.584
56808SOL    HW272264  12.454   5.301   9.496
56809SOL     OW72265  12.283   4.365  12.842
56809SOL    HW172266  12.256   4.320  12.921
56809SOL    HW272267  12.360   4.415  12.867
56810SOL     OW72268   5.183   0.202  13.057
56810SOL    HW172269   5.225   0.175  12.975
56810SOL    HW272270   5.093   0.223  13.032
56811SOL     OW72271  10.840   6.499   4.895
56811SOL    HW172272  10.907   6.563   4.920
56811SOL    HW272273  10.883   6.414   4.904
56812SOL     OW72274  13.075  13.593   2.907
56812SOL    HW172275  13.161  13.612   2.943
56812SOL    HW272276  13.017  13.592   2.983
56813SOL     OW72277  14.005  10.514   5.628
56813SOL    HW172278  14.061  10.589   5.607
56813SOL    HW272279  14.032  10.488   5.716
56814SOL     OW72280  10.201   5.117  10.772
56814SOL    HW172281  10.123   5.159  10.738
56814SOL    HW272282  10.213   5.039  10.718
56815SOL     OW72283   4.512   5.933   1.161
56815SOL    HW172284   4.544   6.011   1.207
56815SOL    HW272285   4.562   5.932   1.079
56816SOL     OW72286  13.037   4.386  12.273
56816SOL    HW172287  13.044   4.401  12.178
56816SOL    HW272288  13.112   4.330  12.293
56817SOL     OW72289   0.989  10.830  13.372
56817SOL    HW172290   0.942  10.912  13.385
56817SOL    HW272291   1.068  10.854  13.324
56818SOL     OW72292   9.369   2.735  10.487
56818SOL    HW172293   9.370   2.827  10.460
56818SOL    HW272294   9.403   2.736  10.576
56819SOL     OW72295  12.176  12.151   3.515
56819SOL    HW172296  12.090  12.152   3.473
56819SOL    HW272297  12.227  12.089   3.464
56820SOL     OW72298   6.856   2.754   6.678
56820SOL    HW172299   6.921   2.684   6.690
56820SOL    HW272300   6.855   2.770   6.584
56821SOL     OW72301  14.738   2.977   4.585
56821SOL    HW172302  14.794   3.036   4.635
56821SOL    HW272303  14.691   3.034   4.525
56822SOL     OW72304   3.715  14.224  10.869
56822SOL    HW172305   3.703  14.319  10.867
56822SOL    HW272306   3.636  14.189  10.827
56823SOL     OW72307   0.325   7.673   9.032
56823SOL    HW172308   0.398   7.628   8.989
56823SOL    HW272309   0.288   7.607   9.091
56824SOL     OW72310  11.365   1.098   6.589
56824SOL    HW172311  11.305   1.066   6.520
56824SOL    HW272312  11.452   1.084   6.553
56825SOL     OW72313   6.189  14.368  11.434
56825SOL    HW172314   6.142  14.447  11.407
56825SOL    HW272315   6.175  14.363  11.528
56826SOL     OW72316   5.174  12.523   1.950
56826SOL    HW172317   5.264  12.494   1.933
56826SOL    HW272318   5.176  12.618   1.938
56827SOL     OW72319  10.808   8.797   4.142
56827SOL    HW172320  10.757   8.716   4.135
56827SOL    HW272321  10.848   8.793   4.229
56828SOL     OW72322  11.204   0.271  13.986
56828SOL    HW172323  11.241   0.286  13.899
56828SOL    HW272324  11.277   0.241  14.039
56829SOL     OW72325  11.806   5.438   1.731
56829SOL    HW172326  11.713   5.419   1.742
56829SOL    HW272327  11.850   5.361   1.767
56830SOL     OW72328   8.287   4.755   5.778
56830SOL    HW172329   8.294   4.849   5.763
56830SOL    HW272330   8.309   4.716   5.693
56831SOL     OW72331  13.420  12.305  13.615
56831SOL    HW172332  13.361  12.266  13.550
56831SOL    HW272333  13.500  12.252  13.610
56832SOL     OW72334   1.392   3.289   6.313
56832SOL    HW172335   1.411   3.377   6.282
56832SOL    HW272336   1.382   3.297   6.408
56833SOL     OW72337  11.120   4.341  11.256
56833SOL    HW172338  11.185   4.322  11.190
56833SOL    HW272339  11.170   4.364  11.334
56834SOL     OW72340   4.971  13.653  11.268
56834SOL    HW172341   5.017  13.599  11.332
56834SOL    HW272342   4.973  13.742  11.304
56835SOL     OW72343   9.445   4.807   3.445
56835SOL    HW172344   9.485   4.721   3.463
56835SOL    HW272345   9.500   4.869   3.491
56836SOL     OW72346  13.069   2.374   8.269
56836SOL    HW172347  13.023   2.396   8.188
56836SOL    HW272348  13.000   2.341   8.327
56837SOL     OW72349   0.676   0.729   5.276
56837SOL    HW172350   0.690   0.819   5.247
56837SOL    HW272351   0.755   0.682   5.249
56838SOL     OW72352   5.069  11.432   9.059
56838SOL    HW172353   5.164  11.435   9.059
56838SOL    HW272354   5.046  11.359   9.002
56839SOL     OW72355  13.264  10.522   3.155
56839SOL    HW172356  13.275  10.562   3.069
56839SOL    HW272357  13.348  10.535   3.198
56840SOL     OW72358   5.009  11.362   2.890
56840SOL    HW172359   4.944  11.356   2.819
56840SOL    HW272360   4.968  11.318   2.964
56841SOL     OW72361   7.650   2.103  11.491
56841SOL    HW172362   7.731   2.102  11.440
56841SOL    HW272363   7.679   2.099  11.583
56842SOL     OW72364   8.113   6.491  10.223
56842SOL    HW172365   8.048   6.523  10.161
56842SOL    HW272366   8.089   6.399  10.237
56843SOL     OW72367   1.106   5.245   9.156
56843SOL    HW172368   1.177   5.271   9.097
56843SOL    HW272369   1.135   5.276   9.242
56844SOL     OW72370  11.988  13.861   3.461
56844SOL    HW172371  12.033  13.816   3.389
56844SOL    HW272372  12.000  13.803   3.537
56845SOL     OW72373  11.769   3.640   8.984
56845SOL    HW172374  11.845   3.667   9.036
56845SOL    HW272375  11.806   3.586   8.915
56846SOL     OW72376   5.246  13.700   9.681
56846SOL    HW172377   5.178  13.636   9.662
56846SOL    HW272378   5.238  13.765   9.611
56847SOL     OW72379   1.746  10.955   7.471
56847SOL    HW172380   1.828  10.906   7.460
56847SOL    HW272381   1.762  11.012   7.546
56848SOL     OW72382  11.269   3.521  10.076
56848SOL    HW172383  11.280   3.494  10.167
56848SOL    HW272384  11.288   3.615  10.076
56849SOL     OW72385  13.227   8.972   7.834
56849SOL    HW172386  13.170   9.021   7.774
56849SOL    HW272387  13.240   8.888   7.790
56850SOL     OW72388  14.605  13.958  11.611
56850SOL    HW172389  14.537  13.890  11.618
56850SOL    HW272390  14.558  14.035  11.579
56851SOL     OW72391  10.070   2.050  12.814
56851SOL    HW172392  10.114   2.017  12.893
56851SOL    HW272393  10.138   2.051  12.747
56852SOL     OW72394   6.799   3.473   2.171
56852SOL    HW172395   6.742   3.472   2.094
56852SOL    HW272396   6.760   3.408   2.230
56853SOL     OW72397   9.479   7.431   6.990
56853SOL    HW172398   9.401   7.487   6.990
56853SOL    HW272399   9.535   7.469   7.057
56854SOL     OW72400   5.695   0.862   1.860
56854SOL    HW172401   5.697   0.833   1.951
56854SOL    HW272402   5.618   0.818   1.822
56855SOL     OW72403  11.774   5.861   9.498
56855SOL    HW172404  11.859   5.853   9.541
56855SOL    HW272405  11.769   5.785   9.440
56856SOL     OW72406   8.611  13.553   0.971
56856SOL    HW172407   8.577  13.614   0.906
56856SOL    HW272408   8.576  13.468   0.944
56857SOL     OW72409  12.504   4.184  11.419
56857SOL    HW172410  12.515   4.121  11.491
56857SOL    HW272411  12.410   4.181  11.399
56858SOL     OW72412   1.070   2.988  13.566
56858SOL    HW172413   1.162   3.011  13.549
56858SOL    HW272414   1.053   3.022  13.654
56859SOL     OW72415  10.552  11.853   4.328
56859SOL    HW172416  10.588  11.887   4.410
56859SOL    HW272417  10.513  11.769   4.353
56860SOL     OW72418   1.086   0.691  11.492
56860SOL    HW172419   1.110   0.634  11.420
56860SOL    HW272420   1.061   0.773  11.449
56861SOL     OW72421  14.577  13.359  10.390
56861SOL    HW172422  14.556  13.344  10.298
56861SOL    HW272423  14.669  13.388  10.389
56862SOL     OW72424  10.973   3.373   4.847
56862SOL    HW172425  10.880   3.386   4.863
56862SOL    HW272426  11.008   3.461   4.832
56863SOL     OW72427  14.305   4.078   1.278
56863SOL    HW172428  14.300   4.090   1.183
56863SOL    HW272429  14.224   4.032   1.300
56864SOL     OW72430   1.850   8.037  10.500
56864SOL    HW172431   1.827   8.130  10.494
56864SOL    HW272432   1.862   8.021  10.593
56865SOL     OW72433   2.751  10.770   7.297
56865SOL    HW172434   2.826  10.763   7.357
56865SOL    HW272435   2.751  10.862   7.270
56866SOL     OW72436  10.377  13.007  14.328
56866SOL    HW172437  10.310  12.952  14.369
56866SOL    HW272438  10.457  12.988  14.377
56867SOL     OW72439   0.003  11.055   7.356
56867SOL    HW172440  14.872  10.995   7.283
56867SOL    HW272441  14.797  11.074   7.388
56868SOL     OW72442   8.020   4.564   0.358
56868SOL    HW172443   8.087   4.550   0.425
56868SOL    HW272444   7.997   4.475   0.329
56869SOL     OW72445   1.381   0.518   3.878
56869SOL    HW172446   1.390   0.613   3.865
56869SOL    HW272447   1.293   0.498   3.847
56870SOL     OW72448   1.098   5.071   6.614
56870SOL    HW172449   1.181   5.076   6.567
56870SOL    HW272450   1.119   5.095   6.704
56871SOL     OW72451   0.064  10.908  12.387
56871SOL    HW172452   0.154  10.929  12.410
56871SOL    HW272453   0.039  10.974  12.322
56872SOL     OW72454   7.312  10.784   7.115
56872SOL    HW172455   7.331  10.712   7.055
56872SOL    HW272456   7.398  10.805   7.153
56873SOL     OW72457  10.513   6.534   0.570
56873SOL    HW172458  10.445   6.539   0.503
56873SOL    HW272459  10.506   6.444   0.604
56874SOL     OW72460   6.951   4.350   2.114
56874SOL    HW172461   7.001   4.269   2.103
56874SOL    HW272462   7.007   4.405   2.170
56875SOL     OW72463  12.653   9.706  14.689
56875SOL    HW172464  12.739   9.745  14.669
56875SOL    HW272465  12.660   9.680  14.781
56876SOL     OW72466   7.804   0.881   8.593
56876SOL    HW172467   7.838   0.968   8.575
56876SOL    HW272468   7.812   0.834   8.510
56877SOL     OW72469   6.249   7.166   6.800
56877SOL    HW172470   6.155   7.150   6.794
56877SOL    HW272471   6.279   7.105   6.868
56878SOL     OW72472   7.086   2.483   6.434
56878SOL    HW172473   7.034   2.513   6.360
56878SOL    HW272474   7.166   2.536   6.430
56879SOL     OW72475   0.302   8.755  13.515
56879SOL    HW172476   0.255   8.812  13.454
56879SOL    HW272477   0.261   8.669  13.505
56880SOL     OW72478   0.061   3.642   7.311
56880SOL    HW172479   0.099   3.554   7.304
56880SOL    HW272480   0.126   3.699   7.270
56881SOL     OW72481   6.429  14.448   5.422
56881SOL    HW172482   6.416  14.533   5.380
56881SOL    HW272483   6.368  14.389   5.378
56882SOL     OW72484  11.684  11.735   3.483
56882SOL    HW172485  11.771  11.726   3.446
56882SOL    HW272486  11.625  11.730   3.408
56883SOL     OW72487   5.851   8.139   0.700
56883SOL    HW172488   5.921   8.167   0.641
56883SOL    HW272489   5.780   8.112   0.642
56884SOL     OW72490   6.539  13.379   9.618
56884SOL    HW172491   6.493  13.446   9.670
56884SOL    HW272492   6.571  13.317   9.683
56885SOL     OW72493   0.763  12.867  12.819
56885SOL    HW172494   0.817  12.833  12.748
56885SOL    HW272495   0.682  12.816  12.813
56886SOL     OW72496  13.828  12.546  11.267
56886SOL    HW172497  13.866  12.526  11.353
56886SOL    HW272498  13.889  12.506  11.204
56887SOL     OW72499   2.400  12.721   7.977
56887SOL    HW172500   2.310  12.743   7.954
56887SOL    HW272501   2.431  12.797   8.026
56888SOL     OW72502   9.630  12.742   9.002
56888SOL    HW172503   9.616  12.729   9.096
56888SOL    HW272504   9.665  12.830   8.995
56889SOL     OW72505  14.576  14.882   9.732
56889SOL    HW172506  14.614  14.819   9.793
56889SOL    HW272507  14.596   0.085   9.770
56890SOL     OW72508  12.411  10.419   1.533
56890SOL    HW172509  12.427  10.352   1.467
56890SOL    HW272510  12.494  10.430   1.578
56891SOL     OW72511  14.451   4.041   5.825
56891SOL    HW172512  14.374   4.016   5.775
56891SOL    HW272513  14.422   4.040   5.916
56892SOL     OW72514   2.462   3.069   0.833
56892SOL    HW172515   2.439   3.042   0.744
56892SOL    HW272516   2.380   3.064   0.882
56893SOL     OW72517  10.432  13.691  13.882
56893SOL    HW172518  10.514  13.730  13.914
56893SOL    HW272519  10.460  13.629  13.814
56894SOL     OW72520   7.804   3.004   3.838
56894SOL    HW172521   7.824   3.079   3.782
56894SOL    HW272522   7.812   2.928   3.781
56895SOL     OW72523   3.966  13.778   4.692
56895SOL    HW172524   4.032  13.773   4.623
56895SOL    HW272525   3.996  13.850   4.748
56896SOL     OW72526  10.751   9.882  10.669
56896SOL    HW172527  10.819   9.950  10.668
56896SOL    HW272528  10.697   9.902  10.592
56897SOL     OW72529   2.368  11.420  14.022
56897SOL    HW172530   2.326  11.497  13.985
56897SOL    HW272531   2.448  11.453  14.061
56898SOL     OW72532  14.238   8.232   9.486
56898SOL    HW172533  14.176   8.167   9.519
56898SOL    HW272534  14.320   8.212   9.530
56899SOL     OW72535   5.114   4.554   9.759
56899SOL    HW172536   5.140   4.629   9.813
56899SOL    HW272537   5.195   4.506   9.742
56900SOL     OW72538   1.899   9.332  12.426
56900SOL    HW172539   1.854   9.342  12.342
56900SOL    HW272540   1.946   9.415  12.438
56901SOL     OW72541  12.659   5.204   8.002
56901SOL    HW172542  12.706   5.285   8.019
56901SOL    HW272543  12.659   5.196   7.906
56902SOL     OW72544   4.949   3.049   9.458
56902SOL    HW172545   4.877   3.020   9.401
56902SOL    HW272546   5.018   3.074   9.398
56903SOL     OW72547   0.234   3.679   2.338
56903SOL    HW172548   0.227   3.584   2.329
56903SOL    HW272549   0.268   3.692   2.426
56904SOL     OW72550   1.500  14.227   6.195
56904SOL    HW172551   1.486  14.264   6.108
56904SOL    HW272552   1.494  14.301   6.254
56905SOL     OW72553   0.664  13.835  12.064
56905SOL    HW172554   0.678  13.816  12.156
56905SOL    HW272555   0.579  13.798  12.044
56906SOL     OW72556  12.244   6.982   3.725
56906SOL    HW172557  12.210   7.070   3.712
56906SOL    HW272558  12.168   6.925   3.717
56907SOL     OW72559   5.511   8.395  11.073
56907SOL    HW172560   5.489   8.410  11.165
56907SOL    HW272561   5.442   8.337  11.042
56908SOL     OW72562  12.215  14.147  12.342
56908SOL    HW172563  12.252  14.232  12.366
56908SOL    HW272564  12.121  14.156  12.360
56909SOL     OW72565   0.868   2.597   9.744
56909SOL    HW172566   0.785   2.607   9.791
56909SOL    HW272567   0.883   2.502   9.743
56910SOL     OW72568   9.472   3.002   6.152
56910SOL    HW172569   9.528   2.925   6.144
56910SOL    HW272570   9.389   2.969   6.185
56911SOL     OW72571   0.933   8.524   7.535
56911SOL    HW172572   0.847   8.544   7.499
56911SOL    HW272573   0.920   8.444   7.585
56912SOL     OW72574   3.594   7.785   3.065
56912SOL    HW172575   3.603   7.817   2.975
56912SOL    HW272576   3.666   7.723   3.076
56913SOL     OW72577   5.167   5.020   8.312
56913SOL    HW172578   5.103   4.953   8.335
56913SOL    HW272579   5.173   5.017   8.216
56914SOL     OW72580  13.379   4.651   4.953
56914SOL    HW172581  13.391   4.693   4.868
56914SOL    HW272582  13.285   4.653   4.968
56915SOL     OW72583  12.359   2.299   2.633
56915SOL    HW172584  12.393   2.383   2.601
56915SOL    HW272585  12.276   2.322   2.675
56916SOL     OW72586  10.436  12.747  12.057
56916SOL    HW172587  10.433  12.662  12.102
56916SOL    HW272588  10.496  12.733  11.984
56917SOL     OW72589   7.761   6.357   9.884
56917SOL    HW172590   7.753   6.439   9.836
56917SOL    HW272591   7.695   6.365   9.954
56918SOL     OW72592   7.085   5.935   9.579
56918SOL    HW172593   7.037   5.855   9.563
56918SOL    HW272594   7.170   5.921   9.538
56919SOL     OW72595   0.011  11.106   0.780
56919SOL    HW172596   0.075  11.078   0.714
56919SOL    HW272597  14.808  11.090   0.740
56920SOL     OW72598   3.709   7.661   6.131
56920SOL    HW172599   3.772   7.732   6.124
56920SOL    HW272600   3.639   7.685   6.069
56921SOL     OW72601   9.448   5.360  12.310
56921SOL    HW172602   9.480   5.285  12.260
56921SOL    HW272603   9.412   5.419  12.244
56922SOL     OW72604   5.437  12.292   9.471
56922SOL    HW172605   5.465  12.376   9.434
56922SOL    HW272606   5.514  12.235   9.461
56923SOL     OW72607   1.206  13.298   4.776
56923SOL    HW172608   1.267  13.351   4.826
56923SOL    HW272609   1.166  13.240   4.840
56924SOL     OW72610  11.341   8.500   8.427
56924SOL    HW172611  11.291   8.518   8.506
56924SOL    HW272612  11.386   8.417   8.445
56925SOL     OW72613  12.103   2.348   7.806
56925SOL    HW172614  12.013   2.345   7.773
56925SOL    HW272615  12.157   2.363   7.729
56926SOL     OW72616  12.811  10.368   4.906
56926SOL    HW172617  12.860  10.384   4.987
56926SOL    HW272618  12.877  10.376   4.836
56927SOL     OW72619   6.076   5.478   6.685
56927SOL    HW172620   6.123   5.481   6.602
56927SOL    HW272621   6.087   5.565   6.723
56928SOL     OW72622   4.317   4.844  12.595
56928SOL    HW172623   4.230   4.856  12.559
56928SOL    HW272624   4.359   4.930  12.587
56929SOL     OW72625  14.059   7.737  11.015
56929SOL    HW172626  14.129   7.803  11.016
56929SOL    HW272627  14.097   7.661  11.059
56930SOL     OW72628   5.768  11.634   6.030
56930SOL    HW172629   5.745  11.542   6.044
56930SOL    HW272630   5.740  11.653   5.941
56931SOL     OW72631   6.980   4.432  13.003
56931SOL    HW172632   6.924   4.414  12.928
56931SOL    HW272633   7.034   4.353  13.012
56932SOL     OW72634  12.377  13.369  12.485
56932SOL    HW172635  12.394  13.463  12.493
56932SOL    HW272636  12.456  13.333  12.444
56933SOL     OW72637  13.498   1.064  12.323
56933SOL    HW172638  13.438   0.992  12.306
56933SOL    HW272639  13.564   1.058  12.254
56934SOL     OW72640   3.749  13.357  12.538
56934SOL    HW172641   3.830  13.408  12.546
56934SOL    HW272642   3.767  13.277  12.587
56935SOL     OW72643  10.381   3.221   9.977
56935SOL    HW172644  10.302   3.268   9.948
56935SOL    HW272645  10.447   3.289   9.987
56936SOL     OW72646  10.964   7.361   7.671
56936SOL    HW172647  10.917   7.304   7.610
56936SOL    HW272648  11.018   7.416   7.616
56937SOL     OW72649  14.195   0.115   4.043
56937SOL    HW172650  14.273   0.142   3.995
56937SOL    HW272651  14.213   0.025   4.071
56938SOL     OW72652  10.272   0.528   8.865
56938SOL    HW172653  10.331   0.520   8.790
56938SOL    HW272654  10.295   0.612   8.905
56939SOL     OW72655   4.880  14.362  11.697
56939SOL    HW172656   4.964  14.353  11.742
56939SOL    HW272657   4.826  14.413  11.758
56940SOL     OW72658  14.270   1.356   1.604
56940SOL    HW172659  14.250   1.447   1.621
56940SOL    HW272660  14.244   1.342   1.513
56941SOL     OW72661   3.354   2.520  10.639
56941SOL    HW172662   3.286   2.551  10.698
56941SOL    HW272663   3.376   2.432  10.670
56942SOL     OW72664   0.160   4.488   4.443
56942SOL    HW172665   0.084   4.455   4.491
56942SOL    HW272666   0.173   4.577   4.476
56943SOL     OW72667  14.838   5.471   7.118
56943SOL    HW172668  14.862   5.510   7.202
56943SOL    HW272669  14.774   5.403   7.140
56944SOL     OW72670   8.124   5.697   0.594
56944SOL    HW172671   8.191   5.639   0.557
56944SOL    HW272672   8.068   5.719   0.519
56945SOL     OW72673  10.752   8.527   5.753
56945SOL    HW172674  10.669   8.543   5.710
56945SOL    HW272675  10.788   8.615   5.769
56946SOL     OW72676  11.402   4.934   4.347
56946SOL    HW172677  11.338   5.002   4.367
56946SOL    HW272678  11.352   4.853   4.344
56947SOL     OW72679  10.620   3.399  12.305
56947SOL    HW172680  10.643   3.490  12.288
56947SOL    HW272681  10.695   3.349  12.274
56948SOL     OW72682   0.876   9.152   3.508
56948SOL    HW172683   0.871   9.245   3.526
56948SOL    HW272684   0.835   9.142   3.421
56949SOL     OW72685   9.781   0.889  12.566
56949SOL    HW172686   9.876   0.891  12.559
56949SOL    HW272687   9.758   0.972  12.607
56950SOL     OW72688   7.070   2.903  12.288
56950SOL    HW172689   7.111   2.866  12.366
56950SOL    HW272690   7.134   2.965  12.254
56951SOL     OW72691  11.234   0.073   5.520
56951SOL    HW172692  11.300   0.017   5.562
56951SOL    HW272693  11.189   0.114   5.593
56952SOL     OW72694  14.459   9.573  11.644
56952SOL    HW172695  14.513   9.641  11.686
56952SOL    HW272696  14.521   9.503  11.624
56953SOL     OW72697  11.353   5.792   4.678
56953SOL    HW172698  11.303   5.764   4.601
56953SOL    HW272699  11.289   5.841   4.730
56954SOL     OW72700   9.936   7.692   8.985
56954SOL    HW172701   9.940   7.599   9.008
56954SOL    HW272702   9.894   7.695   8.900
56955SOL     OW72703   1.656   4.859   7.123
56955SOL    HW172704   1.746   4.864   7.156
56955SOL    HW272705   1.643   4.942   7.077
56956SOL     OW72706   5.852   1.999  12.164
56956SOL    HW172707   5.812   1.983  12.250
56956SOL    HW272708   5.916   1.928  12.154
56957SOL     OW72709   3.072   3.925  11.198
56957SOL    HW172710   3.070   3.876  11.280
56957SOL    HW272711   2.981   3.934  11.173
56958SOL     OW72712   6.215   4.234  11.998
56958SOL    HW172713   6.194   4.321  11.964
56958SOL    HW272714   6.131   4.188  11.998
56959SOL     OW72715  13.491   0.292  10.879
56959SOL    HW172716  13.510   0.207  10.839
56959SOL    HW272717  13.558   0.302  10.946
56960SOL     OW72718   1.445   2.682   9.897
56960SOL    HW172719   1.498   2.630   9.836
56960SOL    HW272720   1.481   2.770   9.890
56961SOL     OW72721   5.066   9.769   9.831
56961SOL    HW172722   4.989   9.763   9.888
56961SOL    HW272723   5.140   9.749   9.889
56962SOL     OW72724   9.623   9.058   7.461
56962SOL    HW172725   9.636   8.965   7.480
56962SOL    HW272726   9.601   9.097   7.546
56963SOL     OW72727  12.103   0.304   1.124
56963SOL    HW172728  12.086   0.345   1.208
56963SOL    HW272729  12.146   0.221   1.146
56964SOL     OW72730   1.144   8.384   3.530
56964SOL    HW172731   1.057   8.420   3.515
56964SOL    HW272732   1.127   8.297   3.568
56965SOL     OW72733   9.334   7.941   6.936
56965SOL    HW172734   9.410   7.986   6.901
56965SOL    HW272735   9.326   7.862   6.883
56966SOL     OW72736   4.645   1.803   5.828
56966SOL    HW172737   4.625   1.722   5.874
56966SOL    HW272738   4.580   1.865   5.859
56967SOL     OW72739   8.000   2.713   3.258
56967SOL    HW172740   7.979   2.620   3.247
56967SOL    HW272741   8.033   2.740   3.173
56968SOL     OW72742   5.804   0.567  11.124
56968SOL    HW172743   5.754   0.523  11.056
56968SOL    HW272744   5.743   0.629  11.163
56969SOL     OW72745   4.585  12.178   6.955
56969SOL    HW172746   4.587  12.144   7.045
56969SOL    HW272747   4.524  12.252   6.959
56970SOL     OW72748  10.610  12.336  11.660
56970SOL    HW172749  10.598  12.346  11.755
56970SOL    HW272750  10.704  12.349  11.646
56971SOL     OW72751   3.071  14.766   5.944
56971SOL    HW172752   3.120  14.848   5.960
56971SOL    HW272753   2.994  14.773   6.000
56972SOL     OW72754   0.840   7.771  12.020
56972SOL    HW172755   0.772   7.771  11.953
56972SOL    HW272756   0.913   7.722  11.980
56973SOL     OW72757   5.122   4.707  10.391
56973SOL    HW172758   5.172   4.644  10.341
56973SOL    HW272759   5.098   4.661  10.471
56974SOL     OW72760  12.120   7.807   0.477
56974SOL    HW172761  12.091   7.842   0.393
56974SOL    HW272762  12.176   7.876   0.513
56975SOL     OW72763   7.594  12.348  12.468
56975SOL    HW172764   7.678  12.329  12.511
56975SOL    HW272765   7.589  12.283  12.397
56976SOL     OW72766   5.010   7.315   0.182
56976SOL    HW172767   5.054   7.358   0.109
56976SOL    HW272768   4.918   7.336   0.170
56977SOL     OW72769   7.311   3.992   9.158
56977SOL    HW172770   7.235   4.023   9.207
56977SOL    HW272771   7.381   4.052   9.183
56978SOL     OW72772  10.133  10.353   0.059
56978SOL    HW172773  10.152  10.262   0.083
56978SOL    HW272774  10.038  10.360   0.064
56979SOL     OW72775   7.096  11.534   8.766
56979SOL    HW172776   7.017  11.501   8.723
56979SOL    HW272777   7.068  11.616   8.807
56980SOL     OW72778   5.927  12.658   2.375
56980SOL    HW172779   6.004  12.633   2.324
56980SOL    HW272780   5.905  12.746   2.344
56981SOL     OW72781   2.787   5.109   2.305
56981SOL    HW172782   2.826   5.162   2.236
56981SOL    HW272783   2.728   5.050   2.260
56982SOL     OW72784   9.677   5.589   2.820
56982SOL    HW172785   9.602   5.593   2.760
56982SOL    HW272786   9.740   5.533   2.775
56983SOL     OW72787  10.565   4.128   1.340
56983SOL    HW172788  10.523   4.045   1.361
56983SOL    HW272789  10.577   4.125   1.245
56984SOL     OW72790   2.547   0.469  10.759
56984SOL    HW172791   2.548   0.375  10.738
56984SOL    HW272792   2.595   0.510  10.686
56985SOL     OW72793   8.004   3.764   7.133
56985SOL    HW172794   7.955   3.846   7.130
56985SOL    HW272795   8.025   3.753   7.226
56986SOL     OW72796   9.409  13.954   4.984
56986SOL    HW172797   9.454  13.912   4.911
56986SOL    HW272798   9.317  13.931   4.972
56987SOL     OW72799   2.806   4.885  13.896
56987SOL    HW172800   2.723   4.871  13.942
56987SOL    HW272801   2.783   4.938  13.820
56988SOL     OW72802  14.528   6.358   0.278
56988SOL    HW172803  14.596   6.291   0.270
56988SOL    HW272804  14.448   6.309   0.297
56989SOL     OW72805   4.247   3.552   5.686
56989SOL    HW172806   4.246   3.621   5.621
56989SOL    HW272807   4.329   3.565   5.735
56990SOL     OW72808   7.877   9.315  13.824
56990SOL    HW172809   7.818   9.291  13.895
56990SOL    HW272810   7.954   9.259  13.837
56991SOL     OW72811  14.433   9.360   9.562
56991SOL    HW172812  14.459   9.327   9.476
56991SOL    HW272813  14.356   9.307   9.585
56992SOL     OW72814   3.232   9.551   6.286
56992SOL    HW172815   3.148   9.519   6.318
56992SOL    HW272816   3.292   9.478   6.302
56993SOL     OW72817  11.118  11.761   2.870
56993SOL    HW172818  11.148  11.825   2.805
56993SOL    HW272819  11.199  11.726   2.908
56994SOL     OW72820   5.061   6.340   8.237
56994SOL    HW172821   4.977   6.308   8.268
56994SOL    HW272822   5.098   6.267   8.187
56995SOL     OW72823   4.175   7.764   4.807
56995SOL    HW172824   4.232   7.687   4.806
56995SOL    HW272825   4.138   7.765   4.896
56996SOL     OW72826  12.957  11.131   5.007
56996SOL    HW172827  12.993  11.043   5.005
56996SOL    HW272828  13.008  11.177   5.074
56997SOL     OW72829   0.888   7.541  10.553
56997SOL    HW172830   0.803   7.500  10.567
56997SOL    HW272831   0.948   7.468  10.543
56998SOL     OW72832   5.797   4.002   8.432
56998SOL    HW172833   5.871   3.978   8.376
56998SOL    HW272834   5.739   4.052   8.374
56999SOL     OW72835  12.854   7.617   1.466
56999SOL    HW172836  12.834   7.612   1.560
56999SOL    HW272837  12.784   7.566   1.424
57000SOL     OW72838   7.757   7.079  10.834
57000SOL    HW172839   7.738   7.168  10.802
57000SOL    HW272840   7.762   7.089  10.929
57001SOL     OW72841   5.689   5.266   3.555
57001SOL    HW172842   5.624   5.269   3.625
57001SOL    HW272843   5.641   5.290   3.476
57002SOL     OW72844   5.407   6.732   7.112
57002SOL    HW172845   5.357   6.670   7.165
57002SOL    HW272846   5.401   6.697   7.023
57003SOL     OW72847   4.895   7.988   2.229
57003SOL    HW172848   4.862   7.997   2.140
57003SOL    HW272849   4.960   8.058   2.238
57004SOL     OW72850  13.555   6.346   2.815
57004SOL    HW172851  13.611   6.355   2.892
57004SOL    HW272852  13.525   6.255   2.818
57005SOL     OW72853   2.055  12.237   8.069
57005SOL    HW172854   1.960  12.225   8.073
57005SOL    HW272855   2.067  12.331   8.056
57006SOL     OW72856   5.646   5.739   7.692
57006SOL    HW172857   5.705   5.682   7.741
57006SOL    HW272858   5.600   5.790   7.759
57007SOL     OW72859   3.987   3.808  10.677
57007SOL    HW172860   4.052   3.783  10.742
57007SOL    HW272861   3.995   3.904  10.671
57008SOL     OW72862   8.527   3.040   2.074
57008SOL    HW172863   8.555   3.008   1.988
57008SOL    HW272864   8.583   3.116   2.090
57009SOL     OW72865   3.979   0.108   9.560
57009SOL    HW172866   3.951   0.141   9.475
57009SOL    HW272867   3.898   0.088   9.607
57010SOL     OW72868   6.725  14.848  12.998
57010SOL    HW172869   6.702   0.003  12.913
57010SOL    HW272870   6.722  14.753  12.985
57011SOL     OW72871   1.899  11.606  12.920
57011SOL    HW172872   1.973  11.597  12.980
57011SOL    HW272873   1.826  11.566  12.967
57012SOL     OW72874  12.353  10.807  14.204
57012SOL    HW172875  12.301  10.878  14.241
57012SOL    HW272876  12.378  10.753  14.279
57013SOL     OW72877   8.477  13.811  11.977
57013SOL    HW172878   8.398  13.822  11.925
57013SOL    HW272879   8.516  13.898  11.981
57014SOL     OW72880   0.925   7.908   8.282
57014SOL    HW172881   0.975   7.880   8.359
57014SOL    HW272882   0.980   7.884   8.208
57015SOL     OW72883  13.288   4.481   8.307
57015SOL    HW172884  13.197   4.466   8.280
57015SOL    HW272885  13.326   4.531   8.235
57016SOL     OW72886   1.389  12.890   6.197
57016SOL    HW172887   1.446  12.887   6.273
57016SOL    HW272888   1.320  12.952   6.220
57017SOL     OW72889  11.394  10.348   4.948
57017SOL    HW172890  11.363  10.410   5.014
57017SOL    HW272891  11.413  10.403   4.871
57018SOL     OW72892   5.048   3.981   3.927
57018SOL    HW172893   5.082   4.067   3.948
57018SOL    HW272894   5.124   3.923   3.929
57019SOL     OW72895  11.264   4.891   3.513
57019SOL    HW172896  11.210   4.812   3.519
57019SOL    HW272897  11.271   4.923   3.603
57020SOL     OW72898   3.334   9.347  10.345
57020SOL    HW172899   3.334   9.416  10.411
57020SOL    HW272900   3.368   9.389  10.266
57021SOL     OW72901   6.131   3.903   2.375
57021SOL    HW172902   6.093   3.878   2.459
57021SOL    HW272903   6.085   3.849   2.311
57022SOL     OW72904   5.786  13.724   6.058
57022SOL    HW172905   5.745  13.809   6.072
57022SOL    HW272906   5.760  13.698   5.970
57023SOL     OW72907   9.841   5.484   0.934
57023SOL    HW172908   9.910   5.422   0.956
57023SOL    HW272909   9.803   5.509   1.018
57024SOL     OW72910   6.598   3.617   3.785
57024SOL    HW172911   6.562   3.628   3.874
57024SOL    HW272912   6.578   3.699   3.740
57025SOL     OW72913   9.789  10.917   8.600
57025SOL    HW172914   9.870  10.939   8.553
57025SOL    HW272915   9.818  10.899   8.689
57026SOL     OW72916   0.509   1.281  12.216
57026SOL    HW172917   0.549   1.213  12.269
57026SOL    HW272918   0.560   1.360  12.235
57027SOL     OW72919   6.422   4.657  13.714
57027SOL    HW172920   6.473   4.605  13.652
57027SOL    HW272921   6.401   4.737  13.665
57028SOL     OW72922   1.953   8.095  12.497
57028SOL    HW172923   1.869   8.108  12.541
57028SOL    HW272924   2.011   8.161  12.534
57029SOL     OW72925   1.621   3.886   6.671
57029SOL    HW172926   1.585   3.806   6.708
57029SOL    HW272927   1.611   3.875   6.576
57030SOL     OW72928   1.542   4.363   9.234
57030SOL    HW172929   1.536   4.458   9.223
57030SOL    HW272930   1.484   4.343   9.307
57031SOL     OW72931   6.735   1.846  12.191
57031SOL    HW172932   6.747   1.846  12.286
57031SOL    HW272933   6.641   1.850  12.178
57032SOL     OW72934   4.419   4.170  10.184
57032SOL    HW172935   4.331   4.173  10.221
57032SOL    HW272936   4.407   4.129  10.098
57033SOL     OW72937  10.985   9.224   9.898
57033SOL    HW172938  11.005   9.170   9.822
57033SOL    HW272939  11.011   9.312   9.872
57034SOL     OW72940   4.918   3.471  13.589
57034SOL    HW172941   4.980   3.538  13.559
57034SOL    HW272942   4.923   3.403  13.521
57035SOL     OW72943   9.671   5.487   9.100
57035SOL    HW172944   9.752   5.438   9.084
57035SOL    HW272945   9.602   5.432   9.061
57036SOL     OW72946  12.431   5.276   6.121
57036SOL    HW172947  12.491   5.223   6.174
57036SOL    HW272948  12.459   5.261   6.031
57037SOL     OW72949  13.668   8.836   6.390
57037SOL    HW172950  13.742   8.897   6.385
57037SOL    HW272951  13.593   8.891   6.413
57038SOL     OW72952   4.852   0.047  13.263
57038SOL    HW172953   4.881   0.101  13.337
57038SOL    HW272954   4.932   0.024  13.217
57039SOL     OW72955   7.962   1.730   5.122
57039SOL    HW172956   7.955   1.678   5.202
57039SOL    HW272957   7.969   1.666   5.052
57040SOL     OW72958  14.636   3.845   9.293
57040SOL    HW172959  14.566   3.803   9.344
57040SOL    HW272960  14.714   3.794   9.313
57041SOL     OW72961   2.967   3.440   4.355
57041SOL    HW172962   2.948   3.505   4.423
57041SOL    HW272963   3.057   3.457   4.329
57042SOL     OW72964   1.541   9.046  14.236
57042SOL    HW172965   1.508   8.996  14.162
57042SOL    HW272966   1.483   9.122  14.243
57043SOL     OW72967   3.461   9.843   9.588
57043SOL    HW172968   3.426   9.767   9.634
57043SOL    HW272969   3.556   9.835   9.597
57044SOL     OW72970   6.106  11.141  11.198
57044SOL    HW172971   6.152  11.059  11.214
57044SOL    HW272972   6.040  11.146  11.268
57045SOL     OW72973  10.880   9.705   4.716
57045SOL    HW172974  10.814   9.691   4.647
57045SOL    HW272975  10.924   9.786   4.690
57046SOL     OW72976   4.618  11.840   2.126
57046SOL    HW172977   4.674  11.916   2.141
57046SOL    HW272978   4.550  11.848   2.192
57047SOL     OW72979   5.272   6.458   9.839
57047SOL    HW172980   5.350   6.414   9.873
57047SOL    HW272981   5.274   6.545   9.881
57048SOL     OW72982   7.914   0.347   3.809
57048SOL    HW172983   7.946   0.307   3.890
57048SOL    HW272984   7.927   0.441   3.822
57049SOL     OW72985   2.696  12.815   6.673
57049SOL    HW172986   2.602  12.831   6.666
57049SOL    HW272987   2.706  12.762   6.752
57050SOL     OW72988   5.671   1.088   4.973
57050SOL    HW172989   5.680   0.994   4.959
57050SOL    HW272990   5.607   1.096   5.043
57051SOL     OW72991   8.271   9.935   0.350
57051SOL    HW172992   8.251  10.017   0.305
57051SOL    HW272993   8.188   9.907   0.388
57052SOL     OW72994   4.419   7.694  14.230
57052SOL    HW172995   4.368   7.776  14.226
57052SOL    HW272996   4.377   7.638  14.165
57053SOL     OW72997   3.374   8.012   8.271
57053SOL    HW172998   3.468   8.009   8.289
57053SOL    HW272999   3.343   7.924   8.290
57054SOL     OW73000  11.788  14.585   5.422
57054SOL    HW173001  11.816  14.634   5.345
57054SOL    HW273002  11.857  14.521   5.437
57055SOL     OW73003  14.624  12.894   3.487
57055SOL    HW173004  14.567  12.823   3.458
57055SOL    HW273005  14.646  12.872   3.577
57056SOL     OW73006   1.663  13.461   8.586
57056SOL    HW173007   1.587  13.404   8.578
57056SOL    HW273008   1.641  13.538   8.534
57057SOL     OW73009   5.329   4.598  10.238
57057SOL    HW173010   5.357   4.507  10.249
57057SOL    HW273011   5.386   4.632  10.169
57058SOL     OW73012  13.215   1.993   8.185
57058SOL    HW173013  13.217   2.064   8.250
57058SOL    HW273014  13.133   2.006   8.138
57059SOL     OW73015  13.798   6.424   5.178
57059SOL    HW173016  13.756   6.456   5.258
57059SOL    HW273017  13.763   6.336   5.166
57060SOL     OW73018   4.732   8.508   8.465
57060SOL    HW173019   4.687   8.455   8.531
57060SOL    HW273020   4.719   8.460   8.383
57061SOL     OW73021   6.247  13.516   6.071
57061SOL    HW173022   6.338  13.500   6.046
57061SOL    HW273023   6.198  13.444   6.031
57062SOL     OW73024   2.192   2.411  10.296
57062SOL    HW173025   2.186   2.329  10.345
57062SOL    HW273026   2.171   2.386  10.205
57063SOL     OW73027   8.218   7.728   3.081
57063SOL    HW173028   8.303   7.692   3.106
57063SOL    HW273029   8.156   7.691   3.144
57064SOL     OW73030   9.035   3.556   3.039
57064SOL    HW173031   9.126   3.542   3.064
57064SOL    HW273032   9.001   3.616   3.105
57065SOL     OW73033   6.984  13.711  10.352
57065SOL    HW173034   6.969  13.667  10.268
57065SOL    HW273035   6.996  13.639  10.415
57066SOL     OW73036   5.914  12.435   3.832
57066SOL    HW173037   5.975  12.417   3.761
57066SOL    HW273038   5.862  12.510   3.801
57067SOL     OW73039  12.262  13.594  13.459
57067SOL    HW173040  12.278  13.570  13.368
57067SOL    HW273041  12.253  13.510  13.505
57068SOL     OW73042   3.155   5.770  11.376
57068SOL    HW173043   3.239   5.766  11.330
57068SOL    HW273044   3.105   5.837  11.330
57069SOL     OW73045   2.222   6.103   4.662
57069SOL    HW173046   2.311   6.139   4.659
57069SOL    HW273047   2.219   6.042   4.588
57070SOL     OW73048   8.235   4.563   8.300
57070SOL    HW173049   8.197   4.651   8.295
57070SOL    HW273050   8.210   4.522   8.217
57071SOL     OW73051   6.969  13.570   0.315
57071SOL    HW173052   6.926  13.558   0.400
57071SOL    HW273053   7.043  13.628   0.333
57072SOL     OW73054   3.509  14.462  12.358
57072SOL    HW173055   3.448  14.388  12.354
57072SOL    HW273056   3.572  14.445  12.288
57073SOL     OW73057   5.273   6.466   9.576
57073SOL    HW173058   5.355   6.510   9.554
57073SOL    HW273059   5.262   6.482   9.669
57074SOL     OW73060   0.214  13.827   5.145
57074SOL    HW173061   0.174  13.823   5.058
57074SOL    HW273062   0.301  13.788   5.132
57075SOL     OW73063   3.812   2.126   3.073
57075SOL    HW173064   3.802   2.042   3.119
57075SOL    HW273065   3.766   2.188   3.129
57076SOL     OW73066  11.841   0.718   8.022
57076SOL    HW173067  11.839   0.814   8.016
57076SOL    HW273068  11.749   0.693   8.029
57077SOL     OW73069   4.507  13.693   0.669
57077SOL    HW173070   4.440  13.721   0.607
57077SOL    HW273071   4.532  13.606   0.639
57078SOL     OW73072   7.944   4.277   3.224
57078SOL    HW173073   7.926   4.190   3.260
57078SOL    HW273074   8.021   4.265   3.169
57079SOL     OW73075   3.170   1.946   7.787
57079SOL    HW173076   3.079   1.971   7.768
57079SOL    HW273077   3.216   1.959   7.704
57080SOL     OW73078   9.093  10.831   9.825
57080SOL    HW173079   9.098  10.902   9.889
57080SOL    HW273080   9.120  10.753   9.874
57081SOL     OW73081  13.771  14.456   5.688
57081SOL    HW173082  13.775  14.372   5.644
57081SOL    HW273083  13.682  14.461   5.724
57082SOL     OW73084  10.481   0.451  14.576
57082SOL    HW173085  10.392   0.460  14.541
57082SOL    HW273086  10.471   0.397  14.654
57083SOL     OW73087   2.517   3.063  11.801
57083SOL    HW173088   2.484   3.051  11.890
57083SOL    HW273089   2.599   3.110  11.812
57084SOL     OW73090   4.860   4.876  12.063
57084SOL    HW173091   4.935   4.857  12.119
57084SOL    HW273092   4.800   4.926  12.118
57085SOL     OW73093   6.553  12.791   7.085
57085SOL    HW173094   6.645  12.806   7.061
57085SOL    HW273095   6.504  12.851   7.029
57086SOL     OW73096   8.748  10.984   0.401
57086SOL    HW173097   8.726  11.055   0.461
57086SOL    HW273098   8.767  10.910   0.459
57087SOL     OW73099   4.172   8.164  12.433
57087SOL    HW173100   4.209   8.137  12.517
57087SOL    HW273101   4.192   8.092  12.374
57088SOL     OW73102  11.762   4.192   4.768
57088SOL    HW173103  11.827   4.256   4.738
57088SOL    HW273104  11.793   4.109   4.733
57089SOL     OW73105   3.536   8.932   2.106
57089SOL    HW173106   3.606   8.971   2.054
57089SOL    HW273107   3.467   8.913   2.042
57090SOL     OW73108   6.305  11.066  10.825
57090SOL    HW173109   6.352  10.995  10.782
57090SOL    HW273110   6.221  11.071  10.778
57091SOL     OW73111  11.412  14.170   9.433
57091SOL    HW173112  11.399  14.169   9.527
57091SOL    HW273113  11.440  14.259   9.413
57092SOL     OW73114   0.598   7.730   1.140
57092SOL    HW173115   0.593   7.787   1.063
57092SOL    HW273116   0.559   7.648   1.110
57093SOL     OW73117   1.173   1.127  13.735
57093SOL    HW173118   1.182   1.037  13.766
57093SOL    HW273119   1.263   1.161  13.735
57094SOL     OW73120   5.950  13.646  13.853
57094SOL    HW173121   5.872  13.684  13.893
57094SOL    HW273122   6.023  13.691  13.894
57095SOL     OW73123   7.315   9.461   4.466
57095SOL    HW173124   7.270   9.400   4.407
57095SOL    HW273125   7.266   9.454   4.549
57096SOL     OW73126   7.475  12.608   5.028
57096SOL    HW173127   7.416  12.536   5.049
57096SOL    HW273128   7.421  12.668   4.976
57097SOL     OW73129   8.270  10.240  13.847
57097SOL    HW173130   8.363  10.260  13.840
57097SOL    HW273131   8.262  10.186  13.926
57098SOL     OW73132   5.815  14.270  10.734
57098SOL    HW173133   5.894  14.295  10.783
57098SOL    HW273134   5.747  14.328  10.767
57099SOL     OW73135   7.581   4.012   9.657
57099SOL    HW173136   7.486   4.015   9.647
57099SOL    HW273137   7.612   3.961   9.583
57100SOL     OW73138   8.623  13.350   1.467
57100SOL    HW173139   8.632  13.427   1.410
57100SOL    HW273140   8.557  13.295   1.423
57101SOL     OW73141   6.336   2.813   5.377
57101SOL    HW173142   6.317   2.720   5.388
57101SOL    HW273143   6.278   2.841   5.306
57102SOL     OW73144   6.180   7.766   7.528
57102SOL    HW173145   6.104   7.760   7.470
57102SOL    HW273146   6.153   7.826   7.598
57103SOL     OW73147   2.380  12.266   9.355
57103SOL    HW173148   2.369  12.214   9.434
57103SOL    HW273149   2.297  12.255   9.308
57104SOL     OW73150  13.805   1.556   1.136
57104SOL    HW173151  13.811   1.518   1.049
57104SOL    HW273152  13.871   1.625   1.138
57105SOL     OW73153   8.456   4.641   0.211
57105SOL    HW173154   8.551   4.627   0.214
57105SOL    HW273155   8.445   4.709   0.144
57106SOL     OW73156   2.543   7.599   9.198
57106SOL    HW173157   2.558   7.657   9.123
57106SOL    HW273158   2.608   7.628   9.263
57107SOL     OW73159  13.350  14.566  11.386
57107SOL    HW173160  13.373  14.623  11.460
57107SOL    HW273161  13.290  14.618  11.333
57108SOL     OW73162  14.108  14.367   3.287
57108SOL    HW173163  14.064  14.415   3.217
57108SOL    HW273164  14.055  14.383   3.365
57109SOL     OW73165   1.660   7.594   0.341
57109SOL    HW173166   1.734   7.619   0.397
57109SOL    HW273167   1.609   7.533   0.394
57110SOL     OW73168   4.490   1.029   9.843
57110SOL    HW173169   4.494   0.934   9.833
57110SOL    HW273170   4.581   1.058   9.829
57111SOL     OW73171   6.459   3.024   4.519
57111SOL    HW173172   6.424   3.040   4.431
57111SOL    HW273173   6.513   2.945   4.509
57112SOL     OW73174   6.682  12.999   5.958
57112SOL    HW173175   6.747  12.950   6.009
57112SOL    HW273176   6.626  12.932   5.920
57113SOL     OW73177  13.413  11.729  11.936
57113SOL    HW173178  13.342  11.713  11.873
57113SOL    HW273179  13.489  11.686  11.898
57114SOL     OW73180   1.082   7.077   4.128
57114SOL    HW173181   1.011   7.027   4.168
57114SOL    HW273182   1.125   7.015   4.069
57115SOL     OW73183  11.160   6.265   8.538
57115SOL    HW173184  11.195   6.299   8.455
57115SOL    HW273185  11.115   6.184   8.514
57116SOL     OW73186   4.190   1.985   5.139
57116SOL    HW173187   4.160   2.075   5.153
57116SOL    HW273188   4.123   1.930   5.180
57117SOL     OW73189   2.178  10.862  14.012
57117SOL    HW173190   2.161  10.946  13.969
57117SOL    HW273191   2.260  10.832  13.973
57118SOL     OW73192   8.736   3.670   6.815
57118SOL    HW173193   8.760   3.758   6.844
57118SOL    HW273194   8.761   3.613   6.887
57119SOL     OW73195   0.627  13.314   5.915
57119SOL    HW173196   0.588  13.316   5.827
57119SOL    HW273197   0.622  13.405   5.945
57120SOL     OW73198   5.616   9.803   8.080
57120SOL    HW173199   5.587   9.814   7.990
57120SOL    HW273200   5.711   9.818   8.077
57121SOL     OW73201  12.268   4.824   7.312
57121SOL    HW173202  12.263   4.918   7.295
57121SOL    HW273203  12.266   4.784   7.225
57122SOL     OW73204   5.021   3.639   4.785
57122SOL    HW173205   5.060   3.714   4.742
57122SOL    HW273206   4.940   3.623   4.738
57123SOL     OW73207   8.537   8.023   5.052
57123SOL    HW173208   8.622   8.001   5.013
57123SOL    HW273209   8.494   8.078   4.987
57124SOL     OW73210  13.067   4.580  10.475
57124SOL    HW173211  12.999   4.515  10.493
57124SOL    HW273212  13.018   4.661  10.459
57125SOL     OW73213   2.064  11.564   3.332
57125SOL    HW173214   1.975  11.579   3.300
57125SOL    HW273215   2.115  11.545   3.253
57126SOL     OW73216   6.773  13.173   1.750
57126SOL    HW173217   6.804  13.243   1.693
57126SOL    HW273218   6.820  13.187   1.832
57127SOL     OW73219   2.462   7.114   6.934
57127SOL    HW173220   2.547   7.082   6.905
57127SOL    HW273221   2.455   7.084   7.025
57128SOL     OW73222  10.353  12.267   6.125
57128SOL    HW173223  10.308  12.202   6.072
57128SOL    HW273224  10.425  12.220   6.166
57129SOL     OW73225   5.389   2.849   9.165
57129SOL    HW173226   5.348   2.899   9.235
57129SOL    HW273227   5.361   2.891   9.084
57130SOL     OW73228   6.292   6.051   4.209
57130SOL    HW173229   6.283   6.086   4.120
57130SOL    HW273230   6.385   6.060   4.230
57131SOL     OW73231   0.878   5.146   4.484
57131SOL    HW173232   0.879   5.080   4.553
57131SOL    HW273233   0.881   5.095   4.403
57132SOL     OW73234   7.224   9.132   1.257
57132SOL    HW173235   7.206   9.167   1.344
57132SOL    HW273236   7.193   9.042   1.260
57133SOL     OW73237   1.123  10.658   2.041
57133SOL    HW173238   1.029  10.678   2.036
57133SOL    HW273239   1.127  10.563   2.030
57134SOL     OW73240   4.185   9.481   9.170
57134SOL    HW173241   4.123   9.408   9.176
57134SOL    HW273242   4.269   9.439   9.154
57135SOL     OW73243   1.521   0.611  11.666
57135SOL    HW173244   1.452   0.670  11.636
57135SOL    HW273245   1.485   0.524  11.655
57136SOL     OW73246  13.530  11.573  10.898
57136SOL    HW173247  13.496  11.574  10.809
57136SOL    HW273248  13.474  11.634  10.946
57137SOL     OW73249   9.728  14.255   7.441
57137SOL    HW173250   9.685  14.178   7.479
57137SOL    HW273251   9.769  14.222   7.361
57138SOL     OW73252  12.729   4.325   8.778
57138SOL    HW173253  12.655   4.360   8.729
57138SOL    HW273254  12.805   4.338   8.721
57139SOL     OW73255   4.813  11.915  10.837
57139SOL    HW173256   4.731  11.895  10.883
57139SOL    HW273257   4.855  11.830  10.826
57140SOL     OW73258   4.294   1.293   6.814
57140SOL    HW173259   4.361   1.352   6.847
57140SOL    HW273260   4.308   1.211   6.862
57141SOL     OW73261   9.836  11.563   6.616
57141SOL    HW173262   9.895  11.513   6.672
57141SOL    HW273263   9.868  11.653   6.619
57142SOL     OW73264   4.564   8.244   3.194
57142SOL    HW173265   4.658   8.250   3.175
57142SOL    HW273266   4.558   8.265   3.287
57143SOL     OW73267   9.191   8.915   6.838
57143SOL    HW173268   9.233   8.853   6.897
57143SOL    HW273269   9.166   8.863   6.761
57144SOL     OW73270   9.241  13.705  14.346
57144SOL    HW173271   9.155  13.685  14.381
57144SOL    HW273272   9.242  13.663  14.259
57145SOL     OW73273   6.086   5.047   0.487
57145SOL    HW173274   6.060   5.043   0.395
57145SOL    HW273275   6.174   5.011   0.489
57146SOL     OW73276   1.277   3.027  13.821
57146SOL    HW173277   1.315   3.000  13.738
57146SOL    HW273278   1.347   3.013  13.885
57147SOL     OW73279   1.783  12.637   4.554
57147SOL    HW173280   1.808  12.721   4.516
57147SOL    HW273281   1.688  12.636   4.550
57148SOL     OW73282  12.155   1.524   9.845
57148SOL    HW173283  12.230   1.555   9.895
57148SOL    HW273284  12.132   1.599   9.789
57149SOL     OW73285   3.118  10.308   6.171
57149SOL    HW173286   3.204  10.290   6.211
57149SOL    HW273287   3.089  10.389   6.212
57150SOL     OW73288   0.865  11.364   9.695
57150SOL    HW173289   0.884  11.286   9.643
57150SOL    HW273290   0.871  11.333   9.786
57151SOL     OW73291   7.113   8.466   1.766
57151SOL    HW173292   7.151   8.399   1.823
57151SOL    HW273293   7.020   8.465   1.787
57152SOL     OW73294   7.249  12.702   5.615
57152SOL    HW173295   7.278  12.701   5.706
57152SOL    HW273296   7.278  12.786   5.581
57153SOL     OW73297   0.250   5.834  10.109
57153SOL    HW173298   0.270   5.876  10.192
57153SOL    HW273299   0.312   5.871  10.047
57154SOL     OW73300   3.892   7.951   3.557
57154SOL    HW173301   3.838   8.027   3.580
57154SOL    HW273302   3.829   7.885   3.528
57155SOL     OW73303   3.286   2.631   3.073
57155SOL    HW173304   3.260   2.663   2.986
57155SOL    HW273305   3.204   2.609   3.117
57156SOL     OW73306   9.149  13.229   5.506
57156SOL    HW173307   9.172  13.138   5.528
57156SOL    HW273308   9.058  13.225   5.479
57157SOL     OW73309  11.334   3.603   5.751
57157SOL    HW173310  11.355   3.523   5.703
57157SOL    HW273311  11.304   3.572   5.837
57158SOL     OW73312   9.564  10.742   0.693
57158SOL    HW173313   9.647  10.732   0.646
57158SOL    HW273314   9.565  10.670   0.757
57159SOL     OW73315  10.507   7.152  14.842
57159SOL    HW173316  10.535   7.184   0.046
57159SOL    HW273317  10.494   7.058  14.855
57160SOL     OW73318   3.871   6.967   0.302
57160SOL    HW173319   3.850   6.874   0.310
57160SOL    HW273320   3.961   6.974   0.335
57161SOL     OW73321  14.563   3.504   8.769
57161SOL    HW173322  14.611   3.448   8.830
57161SOL    HW273323  14.630   3.541   8.711
57162SOL     OW73324   4.589  13.868   2.842
57162SOL    HW173325   4.582  13.880   2.747
57162SOL    HW273326   4.596  13.773   2.853
57163SOL     OW73327   0.911   7.217   1.268
57163SOL    HW173328   0.817   7.227   1.250
57163SOL    HW273329   0.921   7.125   1.292
57164SOL     OW73330  12.842   0.086   6.017
57164SOL    HW173331  12.750   0.101   5.996
57164SOL    HW273332  12.889   0.151   5.964
57165SOL     OW73333  12.392   1.261   1.169
57165SOL    HW173334  12.305   1.295   1.147
57165SOL    HW273335  12.375   1.183   1.221
57166SOL     OW73336   0.589   7.300   8.713
57166SOL    HW173337   0.665   7.349   8.683
57166SOL    HW273338   0.625   7.226   8.762
57167SOL     OW73339   8.385   6.795   7.408
57167SOL    HW173340   8.395   6.738   7.332
57167SOL    HW273341   8.417   6.743   7.482
57168SOL     OW73342   1.858   5.699  11.498
57168SOL    HW173343   1.834   5.697  11.590
57168SOL    HW273344   1.855   5.607  11.470
57169SOL     OW73345   4.709  11.965  10.042
57169SOL    HW173346   4.749  12.052  10.052
57169SOL    HW273347   4.714  11.927  10.130
57170SOL     OW73348   5.453  12.010   3.580
57170SOL    HW173349   5.368  11.966   3.582
57170SOL    HW273350   5.498  11.977   3.657
57171SOL     OW73351  11.568   9.131   2.373
57171SOL    HW173352  11.655   9.103   2.347
57171SOL    HW273353  11.516   9.127   2.293
57172SOL     OW73354   9.266   8.194  13.678
57172SOL    HW173355   9.264   8.101  13.699
57172SOL    HW273356   9.188   8.208  13.624
57173SOL     OW73357   2.591  14.629   6.595
57173SOL    HW173358   2.622  14.715   6.623
57173SOL    HW273359   2.650  14.567   6.638
57174SOL     OW73360   6.308  10.028  12.005
57174SOL    HW173361   6.326   9.942  11.967
57174SOL    HW273362   6.221  10.050  11.972
57175SOL     OW73363   5.221   6.060  13.134
57175SOL    HW173364   5.272   6.023  13.206
57175SOL    HW273365   5.252   6.013  13.056
57176SOL     OW73366  13.592   3.453   0.839
57176SOL    HW173367  13.596   3.522   0.773
57176SOL    HW273368  13.598   3.371   0.789
57177SOL     OW73369  10.285   7.369   1.328
57177SOL    HW173370  10.268   7.277   1.346
57177SOL    HW273371  10.334   7.401   1.403
57178SOL     OW73372   7.056   0.104   2.256
57178SOL    HW173373   7.010   0.026   2.288
57178SOL    HW273374   7.098   0.074   2.175
57179SOL     OW73375   4.301  12.545   7.443
57179SOL    HW173376   4.264  12.616   7.495
57179SOL    HW273377   4.240  12.534   7.370
57180SOL     OW73378  13.458   9.956   1.230
57180SOL    HW173379  13.401   9.914   1.166
57180SOL    HW273380  13.416  10.040   1.249
57181SOL     OW73381   1.592   1.865   9.398
57181SOL    HW173382   1.556   1.947   9.364
57181SOL    HW273383   1.515   1.816   9.428
57182SOL     OW73384   5.675   6.564  10.181
57182SOL    HW173385   5.692   6.593  10.271
57182SOL    HW273386   5.581   6.548  10.178
57183SOL     OW73387  11.133  14.431   3.123
57183SOL    HW173388  11.084  14.373   3.064
57183SOL    HW273389  11.175  14.494   3.064
57184SOL     OW73390   1.081   7.818   9.613
57184SOL    HW173391   1.112   7.811   9.523
57184SOL    HW273392   0.988   7.836   9.605
57185SOL     OW73393  11.915  14.469   5.761
57185SOL    HW173394  11.937  14.459   5.854
57185SOL    HW273395  11.943  14.387   5.720
57186SOL     OW73396   7.510  13.955   2.209
57186SOL    HW173397   7.525  14.028   2.269
57186SOL    HW273398   7.475  13.886   2.264
57187SOL     OW73399  14.423  10.733   8.783
57187SOL    HW173400  14.464  10.797   8.840
57187SOL    HW273401  14.348  10.779   8.744
57188SOL     OW73402   5.391  12.441  10.003
57188SOL    HW173403   5.466  12.401   9.960
57188SOL    HW273404   5.379  12.390  10.083
57189SOL     OW73405  12.870   1.535  14.113
57189SOL    HW173406  12.870   1.447  14.075
57189SOL    HW273407  12.946   1.536  14.170
57190SOL     OW73408   6.786  13.583   4.898
57190SOL    HW173409   6.865  13.629   4.872
57190SOL    HW273410   6.777  13.512   4.834
57191SOL     OW73411  14.059   6.890  12.192
57191SOL    HW173412  14.115   6.968  12.191
57191SOL    HW273413  14.118   6.817  12.173
57192SOL     OW73414  14.381   6.328   2.443
57192SOL    HW173415  14.318   6.393   2.475
57192SOL    HW273416  14.412   6.364   2.360
57193SOL     OW73417  10.307   8.307   6.629
57193SOL    HW173418  10.298   8.392   6.671
57193SOL    HW273419  10.378   8.319   6.566
57194SOL     OW73420   8.012   8.201   9.948
57194SOL    HW173421   8.091   8.151   9.967
57194SOL    HW273422   7.942   8.136   9.948
57195SOL     OW73423   4.427  13.405  10.215
57195SOL    HW173424   4.459  13.361  10.294
57195SOL    HW273425   4.427  13.498  10.238
57196SOL     OW73426  14.294   9.827   2.715
57196SOL    HW173427  14.304   9.920   2.691
57196SOL    HW273428  14.276   9.828   2.809
57197SOL     OW73429   9.887   2.113   8.617
57197SOL    HW173430   9.885   2.180   8.685
57197SOL    HW273431   9.800   2.117   8.577
57198SOL     OW73432  11.748   2.913  14.072
57198SOL    HW173433  11.775   2.990  14.121
57198SOL    HW273434  11.778   2.929  13.983
57199SOL     OW73435   7.741  10.752  12.413
57199SOL    HW173436   7.775  10.704  12.338
57199SOL    HW273437   7.646  10.745  12.405
57200SOL     OW73438   5.178  10.642   9.271
57200SOL    HW173439   5.179  10.589   9.190
57200SOL    HW273440   5.264  10.684   9.273
57201SOL     OW73441  11.970   3.692  12.427
57201SOL    HW173442  11.908   3.621  12.413
57201SOL    HW273443  12.000   3.716  12.339
57202SOL     OW73444   2.251  12.647   2.536
57202SOL    HW173445   2.324  12.588   2.518
57202SOL    HW273446   2.240  12.697   2.455
57203SOL     OW73447  12.930  14.327   0.466
57203SOL    HW173448  13.021  14.320   0.497
57203SOL    HW273449  12.938  14.328   0.371
57204SOL     OW73450  14.302   6.713   6.517
57204SOL    HW173451  14.313   6.719   6.612
57204SOL    HW273452  14.235   6.778   6.496
57205SOL     OW73453  10.327   1.076   8.761
57205SOL    HW173454  10.394   1.094   8.827
57205SOL    HW273455  10.269   1.152   8.764
57206SOL     OW73456   6.927   8.473  10.735
57206SOL    HW173457   6.876   8.521  10.800
57206SOL    HW273458   6.977   8.540  10.689
57207SOL     OW73459  13.146  13.536   1.324
57207SOL    HW173460  13.118  13.554   1.413
57207SOL    HW273461  13.231  13.580   1.316
57208SOL     OW73462  11.147  13.309   4.359
57208SOL    HW173463  11.083  13.378   4.341
57208SOL    HW273464  11.212  13.352   4.415
57209SOL     OW73465  11.010  11.602   3.147
57209SOL    HW173466  11.066  11.672   3.179
57209SOL    HW273467  10.930  11.646   3.119
57210SOL     OW73468   2.225   8.057  11.651
57210SOL    HW173469   2.221   7.962  11.649
57210SOL    HW273470   2.314   8.078  11.623
57211SOL     OW73471   0.137   1.209  11.110
57211SOL    HW173472   0.099   1.200  11.198
57211SOL    HW273473   0.091   1.284  11.073
57212SOL     OW73474   6.380  13.925   1.577
57212SOL    HW173475   6.416  14.011   1.558
57212SOL    HW273476   6.451  13.864   1.557
57213SOL     OW73477  14.434   2.771   3.513
57213SOL    HW173478  14.345   2.775   3.478
57213SOL    HW273479  14.481   2.712   3.453
57214SOL     OW73480   7.094   7.009  13.510
57214SOL    HW173481   7.132   7.095  13.490
57214SOL    HW273482   7.014   7.029  13.559
57215SOL     OW73483   3.833   4.553   2.713
57215SOL    HW173484   3.908   4.592   2.667
57215SOL    HW273485   3.873   4.499   2.781
57216SOL     OW73486  11.086   1.112   7.047
57216SOL    HW173487  11.005   1.070   7.075
57216SOL    HW273488  11.063   1.205   7.040
57217SOL     OW73489   8.725   3.738  12.663
57217SOL    HW173490   8.710   3.655  12.618
57217SOL    HW273491   8.813   3.730  12.699
57218SOL     OW73492   4.498  11.329  10.871
57218SOL    HW173493   4.563  11.281  10.922
57218SOL    HW273494   4.482  11.409  10.920
57219SOL     OW73495   5.340   2.006  13.252
57219SOL    HW173496   5.332   2.099  13.231
57219SOL    HW273497   5.250   1.977  13.267
57220SOL     OW73498  10.415   9.099   4.951
57220SOL    HW173499  10.331   9.140   4.973
57220SOL    HW273500  10.480   9.165   4.970
57221SOL     OW73501   7.050   4.193   0.417
57221SOL    HW173502   7.007   4.274   0.390
57221SOL    HW273503   6.979   4.134   0.441
57222SOL     OW73504   9.155   8.940   4.022
57222SOL    HW173505   9.109   8.977   4.098
57222SOL    HW273506   9.168   8.848   4.045
57223SOL     OW73507   2.408   1.409   1.244
57223SOL    HW173508   2.479   1.453   1.291
57223SOL    HW273509   2.438   1.405   1.154
57224SOL     OW73510  10.383   6.588  14.696
57224SOL    HW173511  10.411   6.568  14.786
57224SOL    HW273512  10.380   6.684  14.693
57225SOL     OW73513  13.438  14.231   1.129
57225SOL    HW173514  13.392  14.232   1.046
57225SOL    HW273515  13.529  14.254   1.107
57226SOL     OW73516  10.141   6.063   1.727
57226SOL    HW173517  10.196   5.985   1.720
57226SOL    HW273518  10.194   6.133   1.687
57227SOL     OW73519  12.384   7.316   2.153
57227SOL    HW173520  12.345   7.230   2.168
57227SOL    HW273521  12.453   7.324   2.219
57228SOL     OW73522  14.614   4.032   0.603
57228SOL    HW173523  14.639   4.112   0.649
57228SOL    HW273524  14.524   4.016   0.632
57229SOL     OW73525  12.120   6.195  13.082
57229SOL    HW173526  12.053   6.127  13.085
57229SOL    HW273527  12.085   6.261  13.023
57230SOL     OW73528   4.721  11.679  13.211
57230SOL    HW173529   4.720  11.648  13.121
57230SOL    HW273530   4.729  11.600  13.264
57231SOL     OW73531   1.868  10.899   3.547
57231SOL    HW173532   1.873  10.814   3.502
57231SOL    HW273533   1.957  10.932   3.546
57232SOL     OW73534   9.528   7.832   7.178
57232SOL    HW173535   9.505   7.918   7.215
57232SOL    HW273536   9.585   7.852   7.104
57233SOL     OW73537  14.273   1.033   8.729
57233SOL    HW173538  14.332   1.085   8.675
57233SOL    HW273539  14.258   1.086   8.807
57234SOL     OW73540   6.967   7.458   2.407
57234SOL    HW173541   6.944   7.519   2.336
57234SOL    HW273542   6.939   7.373   2.375
57235SOL     OW73543  14.780  13.134   8.525
57235SOL    HW173544  14.792  13.077   8.449
57235SOL    HW273545  14.840  13.207   8.510
57236SOL     OW73546  11.080   5.421   2.140
57236SOL    HW173547  10.997   5.391   2.102
57236SOL    HW273548  11.061   5.508   2.173
57237SOL     OW73549  13.682   8.517   5.231
57237SOL    HW173550  13.683   8.421   5.231
57237SOL    HW273551  13.768   8.542   5.199
57238SOL     OW73552   9.791   7.441  11.264
57238SOL    HW173553   9.747   7.362  11.296
57238SOL    HW273554   9.786   7.434  11.169
57239SOL     OW73555   4.811   4.263   5.241
57239SOL    HW173556   4.744   4.225   5.299
57239SOL    HW273557   4.787   4.232   5.154
57240SOL     OW73558   5.779  14.792  13.792
57240SOL    HW173559   5.692  14.825  13.816
57240SOL    HW273560   5.792  14.715  13.847
57241SOL     OW73561   2.043  11.933  11.828
57241SOL    HW173562   1.968  11.983  11.796
57241SOL    HW273563   2.118  11.991  11.815
57242SOL     OW73564   7.653   6.846   9.857
57242SOL    HW173565   7.722   6.782   9.841
57242SOL    HW273566   7.609   6.855   9.772
57243SOL     OW73567   7.290   2.261   8.519
57243SOL    HW173568   7.307   2.186   8.575
57243SOL    HW273569   7.194   2.267   8.516
57244SOL     OW73570   2.784   1.006   8.187
57244SOL    HW173571   2.790   1.082   8.244
57244SOL    HW273572   2.711   0.955   8.222
57245SOL     OW73573  10.194   1.972  11.313
57245SOL    HW173574  10.228   1.924  11.237
57245SOL    HW273575  10.125   1.914  11.348
57246SOL     OW73576   2.290   1.233   5.907
57246SOL    HW173577   2.309   1.145   5.939
57246SOL    HW273578   2.253   1.279   5.983
57247SOL     OW73579   2.690   2.170  11.144
57247SOL    HW173580   2.688   2.225  11.066
57247SOL    HW273581   2.612   2.194  11.194
57248SOL     OW73582   3.410   7.488   7.399
57248SOL    HW173583   3.368   7.426   7.339
57248SOL    HW273584   3.339   7.516   7.458
57249SOL     OW73585  11.761   4.945   8.247
57249SOL    HW173586  11.782   4.877   8.311
57249SOL    HW273587  11.678   4.982   8.277
57250SOL     OW73588  11.404   9.189  14.523
57250SOL    HW173589  11.366   9.121  14.579
57250SOL    HW273590  11.490   9.207  14.563
57251SOL     OW73591  10.384   2.853   9.479
57251SOL    HW173592  10.474   2.881   9.496
57251SOL    HW273593  10.373   2.775   9.534
57252SOL     OW73594   2.298   0.531   6.062
57252SOL    HW173595   2.209   0.505   6.084
57252SOL    HW273596   2.353   0.475   6.117
57253SOL     OW73597   3.494   0.491   8.395
57253SOL    HW173598   3.518   0.472   8.485
57253SOL    HW273599   3.432   0.422   8.371
57254SOL     OW73600   7.649   1.159  11.960
57254SOL    HW173601   7.742   1.175  11.977
57254SOL    HW273602   7.604   1.193  12.037
57255SOL     OW73603   0.231   2.822   6.652
57255SOL    HW173604   0.187   2.741   6.625
57255SOL    HW273605   0.186   2.891   6.602
57256SOL     OW73606  13.252   4.775   2.669
57256SOL    HW173607  13.298   4.740   2.593
57256SOL    HW273608  13.181   4.829   2.632
57257SOL     OW73609  12.314   6.947   9.140
57257SOL    HW173610  12.407   6.954   9.164
57257SOL    HW273611  12.290   7.036   9.114
57258SOL     OW73612   0.942  14.377   3.995
57258SOL    HW173613   0.989  14.318   3.936
57258SOL    HW273614   0.958  14.464   3.958
57259SOL     OW73615   6.159  11.602   9.292
57259SOL    HW173616   6.097  11.672   9.271
57259SOL    HW273617   6.141  11.534   9.226
57260SOL     OW73618  11.112  12.574   7.492
57260SOL    HW173619  11.138  12.651   7.542
57260SOL    HW273620  11.108  12.604   7.401
57261SOL     OW73621   3.272  11.523  14.016
57261SOL    HW173622   3.300  11.432  14.006
57261SOL    HW273623   3.181  11.523  13.985
57262SOL     OW73624   3.523  13.464  12.324
57262SOL    HW173625   3.536  13.405  12.251
57262SOL    HW273626   3.545  13.412  12.402
57263SOL     OW73627   6.226   5.228  12.500
57263SOL    HW173628   6.214   5.271  12.585
57263SOL    HW273629   6.146   5.177  12.488
57264SOL     OW73630   9.356  11.632   2.234
57264SOL    HW173631   9.347  11.555   2.290
57264SOL    HW273632   9.364  11.597   2.146
57265SOL     OW73633   0.272  12.835   3.269
57265SOL    HW173634   0.282  12.930   3.266
57265SOL    HW273635   0.299  12.812   3.358
57266SOL     OW73636   1.218  11.033   0.243
57266SOL    HW173637   1.261  11.052   0.326
57266SOL    HW273638   1.249  11.101   0.183
57267SOL     OW73639  14.776  13.372   4.849
57267SOL    HW173640  14.834  13.448   4.852
57267SOL    HW273641  14.715  13.385   4.922
57268SOL     OW73642  12.768   9.622   9.801
57268SOL    HW173643  12.702   9.576   9.853
57268SOL    HW273644  12.717   9.665   9.731
57269SOL     OW73645   6.439   2.072   2.632
57269SOL    HW173646   6.370   2.123   2.590
57269SOL    HW273647   6.414   2.069   2.725
57270SOL     OW73648   3.215  11.552   3.101
57270SOL    HW173649   3.138  11.594   3.061
57270SOL    HW273650   3.268  11.624   3.134
57271SOL     OW73651   3.726   1.207   7.464
57271SOL    HW173652   3.699   1.165   7.382
57271SOL    HW273653   3.802   1.259   7.440
57272SOL     OW73654   3.771   4.145  14.878
57272SOL    HW173655   3.806   4.161  14.790
57272SOL    HW273656   3.678   4.168  14.871
57273SOL     OW73657   1.584  13.998  13.646
57273SOL    HW173658   1.617  14.075  13.691
57273SOL    HW273659   1.618  13.924  13.695
57274SOL     OW73660  11.964   6.965  14.484
57274SOL    HW173661  11.915   7.048  14.482
57274SOL    HW273662  11.950   6.932  14.573
57275SOL     OW73663  11.642   9.456   9.166
57275SOL    HW173664  11.554   9.440   9.132
57275SOL    HW273665  11.639   9.424   9.256
57276SOL     OW73666   5.210   2.712  10.933
57276SOL    HW173667   5.266   2.737  10.859
57276SOL    HW273668   5.121   2.715  10.898
57277SOL     OW73669  14.633  13.646   1.151
57277SOL    HW173670  14.548  13.690   1.163
57277SOL    HW273671  14.674  13.692   1.078
57278SOL     OW73672   0.937   8.986   9.638
57278SOL    HW173673   0.882   8.926   9.588
57278SOL    HW273674   1.010   9.006   9.579
57279SOL     OW73675   1.754   5.573  10.934
57279SOL    HW173676   1.752   5.481  10.906
57279SOL    HW273677   1.747   5.570  11.029
57280SOL     OW73678   8.634   0.721   2.098
57280SOL    HW173679   8.699   0.731   2.168
57280SOL    HW273680   8.679   0.750   2.019
57281SOL     OW73681  12.777   0.254  10.425
57281SOL    HW173682  12.764   0.159  10.427
57281SOL    HW273683  12.689   0.291  10.423
57282SOL     OW73684   1.065   4.250  10.069
57282SOL    HW173685   1.041   4.159  10.052
57282SOL    HW273686   1.021   4.299   9.999
57283SOL     OW73687   3.511   6.174  12.421
57283SOL    HW173688   3.577   6.234  12.386
57283SOL    HW273689   3.558   6.125  12.488
57284SOL     OW73690   2.102  13.399  13.206
57284SOL    HW173691   2.017  13.439  13.189
57284SOL    HW273692   2.165  13.466  13.180
57285SOL     OW73693   8.379   4.214  14.724
57285SOL    HW173694   8.378   4.248  14.634
57285SOL    HW273695   8.469   4.184  14.736
57286SOL     OW73696   3.030   9.576   8.924
57286SOL    HW173697   2.984   9.618   8.851
57286SOL    HW273698   3.066   9.649   8.974
57287SOL     OW73699   1.504   9.392  10.284
57287SOL    HW173700   1.536   9.309  10.319
57287SOL    HW273701   1.411   9.378  10.270
57288SOL     OW73702   7.809   7.859   0.510
57288SOL    HW173703   7.895   7.818   0.495
57288SOL    HW273704   7.822   7.912   0.589
57289SOL     OW73705   5.432  10.852   0.333
57289SOL    HW173706   5.482  10.921   0.289
57289SOL    HW273707   5.493  10.779   0.342
57290SOL     OW73708   5.210  11.786   8.940
57290SOL    HW173709   5.215  11.746   9.027
57290SOL    HW273710   5.211  11.880   8.956
57291SOL     OW73711  10.906   2.224  12.400
57291SOL    HW173712  10.958   2.149  12.369
57291SOL    HW273713  10.839   2.185  12.456
57292SOL     OW73714  12.865  14.054   4.766
57292SOL    HW173715  12.926  14.018   4.830
57292SOL    HW273716  12.811  13.980   4.739
57293SOL     OW73717  12.056   7.087  12.472
57293SOL    HW173718  12.093   7.000  12.458
57293SOL    HW273719  12.073   7.134  12.391
57294SOL     OW73720  12.225   1.422   0.351
57294SOL    HW173721  12.291   1.454   0.413
57294SOL    HW273722  12.143   1.429   0.399
57295SOL     OW73723   5.009   8.696   8.119
57295SOL    HW173724   4.958   8.661   8.045
57295SOL    HW273725   5.083   8.635   8.127
57296SOL     OW73726  11.467   0.332   9.364
57296SOL    HW173727  11.406   0.401   9.338
57296SOL    HW273728  11.458   0.265   9.297
57297SOL     OW73729  10.162   3.794   5.322
57297SOL    HW173730  10.209   3.809   5.404
57297SOL    HW273731  10.082   3.749   5.348
57298SOL     OW73732   2.784   4.917  14.608
57298SOL    HW173733   2.764   4.830  14.641
57298SOL    HW273734   2.708   4.940  14.554
57299SOL     OW73735  14.606  10.918   7.324
57299SOL    HW173736  14.673  10.849   7.325
57299SOL    HW273737  14.523  10.871   7.337
57300SOL     OW73738   5.484   3.700   1.833
57300SOL    HW173739   5.483   3.760   1.908
57300SOL    HW273740   5.501   3.755   1.757
57301SOL     OW73741   3.672  12.044   4.663
57301SOL    HW173742   3.745  11.999   4.705
57301SOL    HW273743   3.610  12.060   4.734
57302SOL     OW73744  14.777   2.144  12.181
57302SOL    HW173745  14.726   2.069  12.150
57302SOL    HW273746  14.769   2.210  12.112
57303SOL     OW73747   2.739   5.540  13.176
57303SOL    HW173748   2.833   5.533  13.166
57303SOL    HW273749   2.720   5.499  13.260
57304SOL     OW73750   4.380   6.382   9.965
57304SOL    HW173751   4.412   6.458   9.917
57304SOL    HW273752   4.323   6.336   9.904
57305SOL     OW73753   9.324  14.584   6.637
57305SOL    HW173754   9.282  14.665   6.608
57305SOL    HW273755   9.322  14.588   6.733
57306SOL     OW73756   9.748  14.868   6.963
57306SOL    HW173757   9.842  14.855   6.978
57306SOL    HW273758   9.708  14.785   6.990
57307SOL     OW73759  14.718   7.933   0.454
57307SOL    HW173760  14.773   7.883   0.515
57307SOL    HW273761  14.769   7.936   0.373
57308SOL     OW73762   2.896   0.212   7.464
57308SOL    HW173763   2.904   0.213   7.560
57308SOL    HW273764   2.962   0.275   7.434
57309SOL     OW73765   4.114  10.053   6.416
57309SOL    HW173766   4.079  10.068   6.504
57309SOL    HW273767   4.105   9.959   6.403
57310SOL     OW73768  10.803  10.757   9.944
57310SOL    HW173769  10.797  10.771   9.850
57310SOL    HW273770  10.760  10.833   9.983
57311SOL     OW73771   9.333   6.409  12.251
57311SOL    HW173772   9.379   6.413  12.168
57311SOL    HW273773   9.286   6.493  12.256
57312SOL     OW73774   2.543  13.896   1.749
57312SOL    HW173775   2.475  13.828   1.745
57312SOL    HW273776   2.580  13.888   1.837
57313SOL     OW73777   1.326   5.411  10.797
57313SOL    HW173778   1.307   5.493  10.842
57313SOL    HW273779   1.247   5.392  10.746
57314SOL     OW73780  11.570   6.894  10.133
57314SOL    HW173781  11.564   6.816  10.078
57314SOL    HW273782  11.661   6.896  10.162
57315SOL     OW73783   7.588   8.003  12.760
57315SOL    HW173784   7.519   7.954  12.803
57315SOL    HW273785   7.669   7.970  12.799
57316SOL     OW73786   7.880   4.697   6.078
57316SOL    HW173787   7.877   4.631   6.147
57316SOL    HW273788   7.954   4.670   6.023
57317SOL     OW73789   2.179   2.151   2.732
57317SOL    HW173790   2.207   2.157   2.823
57317SOL    HW273791   2.084   2.166   2.735
57318SOL     OW73792   6.258  14.423   9.475
57318SOL    HW173793   6.199  14.423   9.551
57318SOL    HW273794   6.243  14.507   9.433
57319SOL     OW73795   7.213   0.211  13.924
57319SOL    HW173796   7.231   0.227  14.017
57319SOL    HW273797   7.118   0.196  13.921
57320SOL     OW73798  13.325  12.301  11.304
57320SOL    HW173799  13.354  12.257  11.384
57320SOL    HW273800  13.399  12.293  11.243
57321SOL     OW73801   6.018  10.905  13.769
57321SOL    HW173802   5.975  10.865  13.694
57321SOL    HW273803   6.083  10.840  13.797
57322SOL     OW73804  10.313  13.080  14.070
57322SOL    HW173805  10.392  13.078  14.016
57322SOL    HW273806  10.344  13.052  14.157
57323SOL     OW73807   3.035  12.862   3.017
57323SOL    HW173808   3.094  12.853   3.092
57323SOL    HW273809   3.021  12.956   3.009
57324SOL     OW73810   1.482   4.330   6.134
57324SOL    HW173811   1.397   4.314   6.094
57324SOL    HW273812   1.484   4.425   6.150
57325SOL     OW73813  10.281  14.666  14.245
57325SOL    HW173814  10.293  14.579  14.284
57325SOL    HW273815  10.362  14.712  14.264
57326SOL     OW73816   7.651   8.237   2.086
57326SOL    HW173817   7.623   8.312   2.033
57326SOL    HW273818   7.588   8.168   2.066
57327SOL     OW73819   9.083   2.358   8.475
57327SOL    HW173820   8.996   2.398   8.470
57327SOL    HW273821   9.080   2.287   8.410
57328SOL     OW73822   1.862   2.341   6.185
57328SOL    HW173823   1.806   2.394   6.242
57328SOL    HW273824   1.802   2.300   6.124
57329SOL     OW73825  12.401  11.262   6.126
57329SOL    HW173826  12.444  11.348   6.130
57329SOL    HW273827  12.468  11.204   6.090
57330SOL     OW73828   7.128  10.016   2.350
57330SOL    HW173829   7.055  10.000   2.410
57330SOL    HW273830   7.179   9.935   2.352
57331SOL     OW73831   5.030   7.465   3.660
57331SOL    HW173832   5.002   7.375   3.641
57331SOL    HW273833   4.963   7.500   3.718
57332SOL     OW73834   1.782   3.665   9.842
57332SOL    HW173835   1.764   3.648   9.750
57332SOL    HW273836   1.721   3.607   9.889
57333SOL     OW73837   2.628   7.838   8.019
57333SOL    HW173838   2.702   7.897   8.034
57333SOL    HW273839   2.641   7.805   7.930
57334SOL     OW73840  11.783   9.389   4.982
57334SOL    HW173841  11.788   9.470   4.932
57334SOL    HW273842  11.693   9.387   5.016
57335SOL     OW73843   0.295  11.944   8.628
57335SOL    HW173844   0.371  11.981   8.582
57335SOL    HW273845   0.240  12.019   8.648
57336SOL     OW73846   2.121   5.500  11.347
57336SOL    HW173847   2.139   5.406  11.350
57336SOL    HW273848   2.102   5.523  11.438
57337SOL     OW73849   5.916   0.618   3.450
57337SOL    HW173850   5.943   0.570   3.372
57337SOL    HW273851   5.956   0.570   3.522
57338SOL     OW73852   4.783   9.349   1.304
57338SOL    HW173853   4.757   9.401   1.380
57338SOL    HW273854   4.879   9.352   1.305
57339SOL     OW73855  10.845   4.736  11.202
57339SOL    HW173856  10.884   4.692  11.278
57339SOL    HW273857  10.822   4.823  11.234
57340SOL     OW73858   6.553   7.452   0.548
57340SOL    HW173859   6.627   7.512   0.556
57340SOL    HW273860   6.488   7.485   0.610
57341SOL     OW73861   5.439  12.998   1.140
57341SOL    HW173862   5.371  12.932   1.126
57341SOL    HW273863   5.405  13.077   1.099
57342SOL     OW73864   6.710  11.731   4.264
57342SOL    HW173865   6.779  11.665   4.279
57342SOL    HW273866   6.679  11.753   4.352
57343SOL     OW73867   5.121   2.803  14.221
57343SOL    HW173868   5.142   2.825  14.130
57343SOL    HW273869   5.149   2.880  14.271
57344SOL     OW73870   6.498   6.830  10.760
57344SOL    HW173871   6.460   6.756  10.713
57344SOL    HW273872   6.519   6.894  10.691
57345SOL     OW73873  13.168   9.659   7.950
57345SOL    HW173874  13.164   9.605   8.029
57345SOL    HW273875  13.257   9.644   7.916
57346SOL     OW73876  11.498   7.884  13.643
57346SOL    HW173877  11.436   7.818  13.674
57346SOL    HW273878  11.463   7.913  13.559
57347SOL     OW73879   1.207  13.224   2.460
57347SOL    HW173880   1.227  13.202   2.369
57347SOL    HW273881   1.173  13.143   2.498
57348SOL     OW73882  11.275   7.344  11.572
57348SOL    HW173883  11.278   7.400  11.649
57348SOL    HW273884  11.360   7.355  11.530
57349SOL     OW73885  14.648   0.563   2.470
57349SOL    HW173886  14.560   0.596   2.486
57349SOL    HW273887  14.703   0.612   2.531
57350SOL     OW73888  13.369   6.529   8.578
57350SOL    HW173889  13.446   6.514   8.523
57350SOL    HW273890  13.360   6.625   8.580
57351SOL     OW73891   8.505   9.532  11.218
57351SOL    HW173892   8.483   9.609  11.270
57351SOL    HW273893   8.458   9.544  11.136
57352SOL     OW73894  13.165  12.199   1.724
57352SOL    HW173895  13.112  12.157   1.656
57352SOL    HW273896  13.131  12.163   1.806
57353SOL     OW73897   4.804   6.491  11.538
57353SOL    HW173898   4.712   6.497  11.512
57353SOL    HW273899   4.838   6.418  11.487
57354SOL     OW73900   8.152   2.203  14.213
57354SOL    HW173901   8.151   2.267  14.142
57354SOL    HW273902   8.228   2.148  14.195
57355SOL     OW73903   6.049  13.121  10.029
57355SOL    HW173904   6.099  13.196  10.063
57355SOL    HW273905   6.011  13.153   9.948
57356SOL     OW73906   8.080   1.287  12.853
57356SOL    HW173907   8.165   1.247  12.834
57356SOL    HW273908   8.068   1.352  12.784
57357SOL     OW73909   7.341  11.774   6.853
57357SOL    HW173910   7.246  11.770   6.842
57357SOL    HW273911   7.370  11.837   6.787
57358SOL     OW73912   6.597   3.555   4.541
57358SOL    HW173913   6.653   3.613   4.593
57358SOL    HW273914   6.518   3.544   4.594
57359SOL     OW73915   8.697   0.283   5.474
57359SOL    HW173916   8.692   0.188   5.465
57359SOL    HW273917   8.780   0.299   5.519
57360SOL     OW73918   2.410   4.318  10.775
57360SOL    HW173919   2.356   4.241  10.791
57360SOL    HW273920   2.459   4.296  10.695
57361SOL     OW73921   9.062   2.963   4.527
57361SOL    HW173922   8.996   2.961   4.457
57361SOL    HW273923   9.122   2.891   4.505
57362SOL     OW73924   6.953   1.848   6.212
57362SOL    HW173925   6.999   1.776   6.255
57362SOL    HW273926   7.015   1.921   6.214
57363SOL     OW73927   7.528  10.455  11.318
57363SOL    HW173928   7.455  10.429  11.262
57363SOL    HW273929   7.606  10.441  11.265
57364SOL     OW73930   5.314   3.391   8.238
57364SOL    HW173931   5.308   3.298   8.217
57364SOL    HW273932   5.262   3.434   8.171
57365SOL     OW73933  12.157  14.858  14.870
57365SOL    HW173934  12.158  14.797  14.797
57365SOL    HW273935  12.146  14.803   0.065
57366SOL     OW73936  12.032   8.261   3.286
57366SOL    HW173937  11.939   8.254   3.266
57366SOL    HW273938  12.035   8.295   3.375
57367SOL     OW73939   8.588   6.803   8.615
57367SOL    HW173940   8.669   6.776   8.571
57367SOL    HW273941   8.534   6.724   8.616
57368SOL     OW73942   8.400   9.841   2.523
57368SOL    HW173943   8.339   9.870   2.455
57368SOL    HW273944   8.484   9.832   2.477
57369SOL     OW73945  14.370  12.150  11.388
57369SOL    HW173946  14.398  12.236  11.418
57369SOL    HW273947  14.446  12.114  11.343
57370SOL     OW73948  10.685  12.975   2.748
57370SOL    HW173949  10.689  13.064   2.782
57370SOL    HW273950  10.745  12.975   2.673
57371SOL     OW73951   5.027   4.917   2.841
57371SOL    HW173952   4.958   4.856   2.864
57371SOL    HW273953   5.089   4.913   2.914
57372SOL     OW73954  12.152   1.203  10.130
57372SOL    HW173955  12.136   1.109  10.144
57372SOL    HW273956  12.149   1.241  10.218
57373SOL     OW73957  12.966  12.761  11.039
57373SOL    HW173958  12.930  12.677  11.068
57373SOL    HW273959  12.928  12.775  10.953
57374SOL     OW73960  12.897   4.360   3.854
57374SOL    HW173961  12.909   4.455   3.850
57374SOL    HW273962  12.943   4.334   3.935
57375SOL     OW73963   7.704   9.254   2.862
57375SOL    HW173964   7.614   9.275   2.888
57375SOL    HW273965   7.759   9.307   2.919
57376SOL     OW73966   8.914   0.517   8.373
57376SOL    HW173967   8.894   0.509   8.466
57376SOL    HW273968   8.882   0.604   8.349
57377SOL     OW73969   0.893  10.581   8.420
57377SOL    HW173970   0.809  10.572   8.464
57377SOL    HW273971   0.874  10.568   8.327
57378SOL     OW73972   7.762   0.093   2.841
57378SOL    HW173973   7.750   0.010   2.796
57378SOL    HW273974   7.749   0.160   2.773
57379SOL     OW73975  10.130  13.898   3.163
57379SOL    HW173976  10.095  13.967   3.107
57379SOL    HW273977  10.209  13.869   3.118
57380SOL     OW73978   4.497   5.519  14.076
57380SOL    HW173979   4.555   5.443  14.084
57380SOL    HW273980   4.431   5.491  14.012
57381SOL     OW73981  11.344   2.585  14.058
57381SOL    HW173982  11.434   2.569  14.028
57381SOL    HW273983  11.353   2.657  14.121
57382SOL     OW73984   0.429  13.074   7.811
57382SOL    HW173985   0.341  13.059   7.775
57382SOL    HW273986   0.413  13.131   7.887
57383SOL     OW73987  11.279   4.733  11.060
57383SOL    HW173988  11.213   4.694  11.003
57383SOL    HW273989  11.236   4.810  11.098
57384SOL     OW73990   8.601  10.760   2.951
57384SOL    HW173991   8.663  10.831   2.964
57384SOL    HW273992   8.563  10.744   3.037
57385SOL     OW73993   0.550  12.120   6.068
57385SOL    HW173994   0.473  12.101   6.015
57385SOL    HW273995   0.609  12.168   6.010
57386SOL     OW73996   6.683   0.426   0.892
57386SOL    HW173997   6.674   0.470   0.807
57386SOL    HW273998   6.610   0.461   0.945
57387SOL     OW73999  11.067  13.990   4.463
57387SOL    HW174000  10.977  13.985   4.497
57387SOL    HW274001  11.057  14.031   4.377
57388SOL     OW74002   9.051  12.653   6.590
57388SOL    HW174003   8.965  12.611   6.584
57388SOL    HW274004   9.105  12.606   6.526
57389SOL     OW74005   4.785   6.805  14.370
57389SOL    HW174006   4.857   6.861  14.398
57389SOL    HW274007   4.720   6.866  14.334
57390SOL     OW74008   8.303  12.673  13.329
57390SOL    HW174009   8.388  12.702  13.361
57390SOL    HW274010   8.276  12.742  13.267
57391SOL     OW74011   0.152  10.500   7.506
57391SOL    HW174012   0.069  10.523   7.464
57391SOL    HW274013   0.168  10.571   7.568
57392SOL     OW74014   1.191   3.750   3.416
57392SOL    HW174015   1.132   3.686   3.455
57392SOL    HW274016   1.211   3.811   3.487
57393SOL     OW74017   8.674   8.450   8.367
57393SOL    HW174018   8.621   8.453   8.446
57393SOL    HW274019   8.676   8.357   8.343
57394SOL     OW74020  10.744   9.437   8.687
57394SOL    HW174021  10.686   9.472   8.755
57394SOL    HW274022  10.832   9.458   8.718
57395SOL     OW74023   5.675   9.198  11.553
57395SOL    HW174024   5.600   9.161  11.508
57395SOL    HW274025   5.638   9.261  11.615
57396SOL     OW74026   7.503   7.880   8.845
57396SOL    HW174027   7.540   7.947   8.902
57396SOL    HW274028   7.519   7.798   8.891
57397SOL     OW74029  13.481  12.130   7.761
57397SOL    HW174030  13.501  12.176   7.843
57397SOL    HW274031  13.479  12.037   7.785
57398SOL     OW74032   3.761   5.221  14.638
57398SOL    HW174033   3.683   5.174  14.667
57398SOL    HW274034   3.739   5.314  14.651
57399SOL     OW74035   1.826   7.341   0.264
57399SOL    HW174036   1.814   7.352   0.359
57399SOL    HW274037   1.903   7.393   0.243
57400SOL     OW74038   4.420  12.995   3.112
57400SOL    HW174039   4.379  12.956   3.190
57400SOL    HW274040   4.503  12.948   3.104
57401SOL     OW74041   7.669   2.011  11.771
57401SOL    HW174042   7.662   1.941  11.836
57401SOL    HW274043   7.605   2.076  11.799
57402SOL     OW74044  10.446   8.278  11.930
57402SOL    HW174045  10.511   8.236  11.875
57402SOL    HW274046  10.424   8.213  11.996
57403SOL     OW74047   4.556   2.219   3.593
57403SOL    HW174048   4.609   2.200   3.516
57403SOL    HW274049   4.475   2.170   3.579
57404SOL     OW74050   6.447  14.835  14.818
57404SOL    HW174051   6.407  14.877  14.742
57404SOL    HW274052   6.433   0.016   0.007
57405SOL     OW74053   5.347  13.307  10.608
57405SOL    HW174054   5.270  13.340  10.653
57405SOL    HW274055   5.312  13.259  10.533
57406SOL     OW74056   4.313   4.358   5.630
57406SOL    HW174057   4.291   4.438   5.677
57406SOL    HW274058   4.394   4.327   5.672
57407SOL     OW74059   3.873  11.232   0.730
57407SOL    HW174060   3.847  11.316   0.692
57407SOL    HW274061   3.794  11.202   0.776
57408SOL     OW74062   6.496   2.122   5.985
57408SOL    HW174063   6.427   2.188   5.976
57408SOL    HW274064   6.474   2.055   5.920
57409SOL     OW74065   1.549   3.675  10.558
57409SOL    HW174066   1.508   3.633  10.482
57409SOL    HW274067   1.487   3.744  10.583
57410SOL     OW74068   7.286   8.144  10.392
57410SOL    HW174069   7.251   8.065  10.351
57410SOL    HW274070   7.363   8.113  10.441
57411SOL     OW74071   9.491   1.940   7.056
57411SOL    HW174072   9.487   1.855   7.100
57411SOL    HW274073   9.584   1.959   7.049
57412SOL     OW74074   5.187  10.918   9.952
57412SOL    HW174075   5.109  10.948   9.906
57412SOL    HW274076   5.255  10.981   9.925
57413SOL     OW74077   1.954   3.443   9.352
57413SOL    HW174078   1.865   3.476   9.338
57413SOL    HW274079   1.986   3.424   9.263
57414SOL     OW74080  10.873   2.401  10.794
57414SOL    HW174081  10.921   2.320  10.815
57414SOL    HW274082  10.911   2.430  10.711
57415SOL     OW74083   5.619   3.269   4.353
57415SOL    HW174084   5.560   3.247   4.425
57415SOL    HW274085   5.702   3.289   4.395
57416SOL     OW74086   5.029  11.440   8.470
57416SOL    HW174087   5.068  11.400   8.548
57416SOL    HW274088   4.979  11.370   8.429
57417SOL     OW74089  10.423   7.580  10.745
57417SOL    HW174090  10.485   7.653  10.746
57417SOL    HW274091  10.385   7.579  10.833
57418SOL     OW74092   1.634   4.261   2.216
57418SOL    HW174093   1.539   4.267   2.205
57418SOL    HW274094   1.648   4.177   2.259
57419SOL     OW74095  12.647  13.441  11.807
57419SOL    HW174096  12.723  13.481  11.849
57419SOL    HW274097  12.607  13.512  11.757
57420SOL     OW74098   8.339   3.686  10.734
57420SOL    HW174099   8.313   3.775  10.712
57420SOL    HW274100   8.301   3.632  10.665
57421SOL     OW74101  13.271   2.414   6.492
57421SOL    HW174102  13.328   2.367   6.432
57421SOL    HW274103  13.325   2.429   6.570
57422SOL     OW74104   1.420   0.309  11.767
57422SOL    HW174105   1.493   0.283  11.711
57422SOL    HW274106   1.458   0.315  11.855
57423SOL     OW74107   5.690  14.519   7.222
57423SOL    HW174108   5.691  14.511   7.126
57423SOL    HW274109   5.618  14.463   7.250
57424SOL     OW74110   9.327   7.689   2.232
57424SOL    HW174111   9.357   7.603   2.260
57424SOL    HW274112   9.391   7.750   2.267
57425SOL     OW74113   3.527   0.658   5.698
57425SOL    HW174114   3.542   0.610   5.617
57425SOL    HW274115   3.610   0.703   5.715
57426SOL     OW74116   7.302   0.440  13.796
57426SOL    HW174117   7.369   0.460  13.862
57426SOL    HW274118   7.253   0.366  13.833
57427SOL     OW74119   0.592   5.031   9.203
57427SOL    HW174120   0.533   5.060   9.273
57427SOL    HW274121   0.650   5.106   9.189
57428SOL     OW74122  10.711  11.948   0.262
57428SOL    HW174123  10.687  11.972   0.352
57428SOL    HW274124  10.739  12.031   0.222
57429SOL     OW74125  11.968   7.948  12.242
57429SOL    HW174126  11.906   7.992  12.184
57429SOL    HW274127  12.045   8.004  12.241
57430SOL     OW74128   9.531  13.587  10.992
57430SOL    HW174129   9.489  13.665  11.030
57430SOL    HW274130   9.586  13.621  10.921
57431SOL     OW74131   4.058   4.106  11.734
57431SOL    HW174132   4.120   4.034  11.747
57431SOL    HW274133   3.976   4.073  11.771
57432SOL     OW74134   5.024   1.723  14.527
57432SOL    HW174135   4.993   1.793  14.471
57432SOL    HW274136   4.986   1.643  14.490
57433SOL     OW74137   9.640   3.790   1.262
57433SOL    HW174138   9.720   3.831   1.229
57433SOL    HW274139   9.570   3.853   1.241
57434SOL     OW74140  10.541   2.376  14.539
57434SOL    HW174141  10.579   2.290  14.558
57434SOL    HW274142  10.587   2.436  14.597
57435SOL     OW74143   4.750  11.185  13.663
57435SOL    HW174144   4.788  11.097  13.650
57435SOL    HW274145   4.666  11.169  13.705
57436SOL     OW74146   1.919  10.426   3.409
57436SOL    HW174147   1.845  10.375   3.375
57436SOL    HW274148   1.925  10.400   3.501
57437SOL     OW74149  14.724   7.801   1.943
57437SOL    HW174150  14.804   7.795   1.996
57437SOL    HW274151  14.674   7.873   1.982
57438SOL     OW74152   2.627   3.889   1.610
57438SOL    HW174153   2.698   3.838   1.647
57438SOL    HW274154   2.610   3.957   1.676
57439SOL     OW74155   7.374   9.850   6.672
57439SOL    HW174156   7.385   9.836   6.766
57439SOL    HW274157   7.324   9.775   6.642
57440SOL     OW74158  11.632   7.750   8.489
57440SOL    HW174159  11.643   7.829   8.542
57440SOL    HW274160  11.631   7.678   8.552
57441SOL     OW74161   2.050   1.013   4.889
57441SOL    HW174162   2.058   0.918   4.893
57441SOL    HW274163   2.096   1.039   4.810
57442SOL     OW74164  13.506  10.658   3.251
57442SOL    HW174165  13.469  10.663   3.339
57442SOL    HW274166  13.597  10.687   3.262
57443SOL     OW74167   5.197  12.004  10.995
57443SOL    HW174168   5.241  11.962  10.920
57443SOL    HW274169   5.128  12.056  10.955
57444SOL     OW74170  13.292   8.053   7.545
57444SOL    HW174171  13.237   7.982   7.511
57444SOL    HW274172  13.239   8.092   7.615
57445SOL     OW74173   0.713   5.390   6.964
57445SOL    HW174174   0.676   5.360   6.881
57445SOL    HW274175   0.782   5.327   6.984
57446SOL     OW74176  12.218  12.892   2.410
57446SOL    HW174177  12.284  12.944   2.365
57446SOL    HW274178  12.237  12.904   2.503
57447SOL     OW74179   0.248   0.480  14.061
57447SOL    HW174180   0.322   0.539  14.069
57447SOL    HW274181   0.252   0.449  13.970
57448SOL     OW74182   4.949  13.369  11.064
57448SOL    HW174183   4.900  13.377  11.145
57448SOL    HW274184   4.908  13.296  11.018
57449SOL     OW74185   6.078  11.858   4.231
57449SOL    HW174186   6.001  11.887   4.280
57449SOL    HW274187   6.104  11.777   4.274
57450SOL     OW74188   1.159   2.473   0.026
57450SOL    HW174189   1.180   2.502  14.819
57450SOL    HW274190   1.077   2.425   0.016
57451SOL     OW74191  12.599   9.521  11.778
57451SOL    HW174192  12.691   9.497  11.776
57451SOL    HW274193  12.591   9.593  11.717
57452SOL     OW74194   8.997   9.755  10.964
57452SOL    HW174195   9.045   9.806  10.898
57452SOL    HW274196   9.036   9.668  10.960
57453SOL     OW74197  11.478  10.811  13.713
57453SOL    HW174198  11.517  10.898  13.721
57453SOL    HW274199  11.505  10.766  13.793
57454SOL     OW74200  13.162  11.467   1.997
57454SOL    HW174201  13.192  11.380   1.970
57454SOL    HW274202  13.067  11.464   1.988
57455SOL     OW74203  11.218   6.562  13.357
57455SOL    HW174204  11.131   6.598  13.377
57455SOL    HW274205  11.233   6.585  13.266
57456SOL     OW74206   2.041  12.378  13.289
57456SOL    HW174207   2.008  12.454  13.337
57456SOL    HW274208   2.124  12.357  13.330
57457SOL     OW74209  10.103   0.522  10.507
57457SOL    HW174210  10.090   0.612  10.478
57457SOL    HW274211  10.196   0.517  10.529
57458SOL     OW74212   2.559   9.670   9.411
57458SOL    HW174213   2.593   9.740   9.355
57458SOL    HW274214   2.630   9.605   9.414
57459SOL     OW74215   2.047   4.557  11.076
57459SOL    HW174216   2.127   4.554  11.128
57459SOL    HW274217   1.983   4.509  11.129
57460SOL     OW74218   1.470   8.671   6.398
57460SOL    HW174219   1.462   8.666   6.302
57460SOL    HW274220   1.452   8.582   6.428
57461SOL     OW74221   9.181   3.050   0.379
57461SOL    HW174222   9.136   3.080   0.300
57461SOL    HW274223   9.139   2.967   0.401
57462SOL     OW74224   5.336   2.695   0.364
57462SOL    HW174225   5.311   2.726   0.452
57462SOL    HW274226   5.431   2.699   0.364
57463SOL     OW74227  10.807   7.668   7.120
57463SOL    HW174228  10.895   7.663   7.158
57463SOL    HW274229  10.782   7.760   7.129
57464SOL     OW74230   3.422  10.619   1.591
57464SOL    HW174231   3.516  10.622   1.610
57464SOL    HW274232   3.381  10.601   1.675
57465SOL     OW74233   0.490   8.862  11.899
57465SOL    HW174234   0.503   8.948  11.941
57465SOL    HW274235   0.491   8.881  11.805
57466SOL     OW74236   2.747   6.549  13.141
57466SOL    HW174237   2.839   6.556  13.168
57466SOL    HW274238   2.727   6.634  13.101
57467SOL     OW74239  14.743  12.863   8.223
57467SOL    HW174240  14.745  12.789   8.163
57467SOL    HW274241  14.650  12.887   8.229
57468SOL     OW74242   5.662   6.939   7.695
57468SOL    HW174243   5.736   6.901   7.742
57468SOL    HW274244   5.650   6.882   7.619
57469SOL     OW74245  14.823  11.284   1.450
57469SOL    HW174246  14.877  11.359   1.425
57469SOL    HW274247  14.751  11.284   1.386
57470SOL     OW74248  14.597   8.704  11.032
57470SOL    HW174249  14.523   8.760  11.009
57470SOL    HW274250  14.620   8.659  10.951
57471SOL     OW74251   0.247   3.899  13.584
57471SOL    HW174252   0.232   3.984  13.626
57471SOL    HW274253   0.229   3.835  13.653
57472SOL     OW74254   5.901   4.675  11.324
57472SOL    HW174255   5.905   4.648  11.416
57472SOL    HW274256   5.834   4.743  11.323
57473SOL     OW74257  13.891  14.021   0.088
57473SOL    HW174258  13.974  14.057   0.054
57473SOL    HW274259  13.874  14.072   0.167
57474SOL     OW74260   5.182   8.639   0.802
57474SOL    HW174261   5.216   8.649   0.892
57474SOL    HW274262   5.087   8.636   0.812
57475SOL     OW74263   4.356   3.854  12.958
57475SOL    HW174264   4.386   3.822  12.873
57475SOL    HW274265   4.437   3.877  13.005
57476SOL     OW74266   7.743  12.084   5.618
57476SOL    HW174267   7.817  12.145   5.610
57476SOL    HW274268   7.717  12.067   5.527
57477SOL     OW74269   6.927   5.608   4.330
57477SOL    HW174270   6.871   5.593   4.407
57477SOL    HW274271   7.016   5.605   4.364
57478SOL     OW74272  14.757  11.384  12.705
57478SOL    HW174273  14.738  11.294  12.732
57478SOL    HW274274  14.848  11.381  12.674
57479SOL     OW74275   1.382  14.545   0.759
57479SOL    HW174276   1.414  14.479   0.820
57479SOL    HW274277   1.287  14.539   0.764
57480SOL     OW74278   6.709  13.654  14.642
57480SOL    HW174279   6.639  13.665  14.706
57480SOL    HW274280   6.743  13.742  14.628
57481SOL     OW74281   0.698  14.710  13.825
57481SOL    HW174282   0.621  14.696  13.770
57481SOL    HW274283   0.738  14.791  13.792
57482SOL     OW74284   5.120  10.262   7.452
57482SOL    HW174285   5.134  10.291   7.542
57482SOL    HW274286   5.040  10.209   7.456
57483SOL     OW74287  14.516   1.190   9.692
57483SOL    HW174288  14.600   1.190   9.647
57483SOL    HW274289  14.528   1.251   9.765
57484SOL     OW74290  14.160  13.514   7.471
57484SOL    HW174291  14.214  13.479   7.400
57484SOL    HW274292  14.129  13.598   7.439
57485SOL     OW74293  12.519  10.934   7.344
57485SOL    HW174294  12.610  10.954   7.365
57485SOL    HW274295  12.491  10.872   7.412
57486SOL     OW74296  12.273  12.175  10.230
57486SOL    HW174297  12.306  12.178  10.140
57486SOL    HW274298  12.337  12.122  10.277
57487SOL     OW74299   5.991  10.034  13.906
57487SOL    HW174300   5.955   9.971  13.843
57487SOL    HW274301   5.957  10.119  13.876
57488SOL     OW74302   7.844  14.118   9.771
57488SOL    HW174303   7.842  14.032   9.729
57488SOL    HW274304   7.834  14.179   9.698
57489SOL     OW74305   6.214   6.691   5.422
57489SOL    HW174306   6.163   6.612   5.439
57489SOL    HW274307   6.220   6.734   5.507
57490SOL     OW74308   5.606  11.596  13.140
57490SOL    HW174309   5.655  11.520  13.107
57490SOL    HW274310   5.666  11.639  13.200
57491SOL     OW74311   0.875   7.965   5.973
57491SOL    HW174312   0.851   8.057   5.981
57491SOL    HW274313   0.827   7.934   5.897
57492SOL     OW74314   5.213  12.437   3.179
57492SOL    HW174315   5.122  12.412   3.194
57492SOL    HW274316   5.220  12.445   3.084
57493SOL     OW74317   1.558   4.367  11.921
57493SOL    HW174318   1.550   4.419  11.841
57493SOL    HW274319   1.527   4.280  11.896
57494SOL     OW74320   4.554   5.445   9.103
57494SOL    HW174321   4.496   5.518   9.126
57494SOL    HW274322   4.632   5.459   9.156
57495SOL     OW74323  14.699   2.294   2.429
57495SOL    HW174324  14.736   2.354   2.493
57495SOL    HW274325  14.768   2.229   2.415
57496SOL     OW74326   7.099  13.613  12.981
57496SOL    HW174327   7.066  13.550  12.917
57496SOL    HW274328   7.162  13.666  12.932
57497SOL     OW74329   9.017  14.500   0.890
57497SOL    HW174330   9.052  14.579   0.931
57497SOL    HW274331   9.052  14.428   0.942
57498SOL     OW74332  10.998  14.063   7.833
57498SOL    HW174333  10.995  13.996   7.901
57498SOL    HW274334  11.055  14.026   7.765
57499SOL     OW74335   0.606  14.764   8.113
57499SOL    HW174336   0.654  14.699   8.063
57499SOL    HW274337   0.673  14.825   8.144
57500SOL     OW74338  13.981   3.654   5.059
57500SOL    HW174339  14.025   3.737   5.071
57500SOL    HW274340  13.889   3.672   5.079
57501SOL     OW74341   4.554   5.034   3.323
57501SOL    HW174342   4.607   4.975   3.375
57501SOL    HW274343   4.506   4.977   3.263
57502SOL     OW74344  13.684   0.411  10.397
57502SOL    HW174345  13.659   0.436  10.486
57502SOL    HW274346  13.618   0.453  10.341
57503SOL     OW74347   1.233   0.626   0.717
57503SOL    HW174348   1.253   0.666   0.802
57503SOL    HW274349   1.162   0.565   0.734
57504SOL     OW74350   2.953   5.175   0.508
57504SOL    HW174351   2.942   5.253   0.563
57504SOL    HW274352   2.936   5.101   0.567
57505SOL     OW74353   9.493  12.213   6.106
57505SOL    HW174354   9.476  12.294   6.058
57505SOL    HW274355   9.566  12.235   6.165
57506SOL     OW74356   1.951   9.017   1.461
57506SOL    HW174357   2.000   8.976   1.390
57506SOL    HW274358   2.018   9.048   1.522
57507SOL     OW74359  14.850   6.608  13.254
57507SOL    HW174360   0.025   6.637  13.183
57507SOL    HW274361   0.024   6.554  13.309
57508SOL     OW74362   7.782   9.728   6.282
57508SOL    HW174363   7.815   9.653   6.331
57508SOL    HW274364   7.794   9.704   6.190
57509SOL     OW74365   2.451   2.766   2.317
57509SOL    HW174366   2.481   2.806   2.236
57509SOL    HW274367   2.523   2.710   2.345
57510SOL     OW74368  12.031   4.133   2.835
57510SOL    HW174369  12.020   4.092   2.749
57510SOL    HW274370  12.072   4.065   2.888
57511SOL     OW74371   3.341   2.961   2.187
57511SOL    HW174372   3.327   3.037   2.131
57511SOL    HW274373   3.252   2.935   2.214
57512SOL     OW74374   8.404   1.383  11.669
57512SOL    HW174375   8.444   1.449  11.725
57512SOL    HW274376   8.311   1.405  11.667
57513SOL     OW74377  11.594  12.346  13.516
57513SOL    HW174378  11.596  12.253  13.493
57513SOL    HW274379  11.592  12.392  13.432
57514SOL     OW74380   3.614  14.088   1.396
57514SOL    HW174381   3.666  14.091   1.476
57514SOL    HW274382   3.672  14.124   1.328
57515SOL     OW74383  11.135   1.429   2.130
57515SOL    HW174384  11.187   1.463   2.057
57515SOL    HW274385  11.121   1.505   2.187
57516SOL     OW74386   4.907  14.325  11.362
57516SOL    HW174387   4.911  14.320  11.267
57516SOL    HW274388   4.840  14.261  11.387
57517SOL     OW74389   7.935  14.546  11.401
57517SOL    HW174390   7.860  14.491  11.375
57517SOL    HW274391   8.003  14.525  11.337
57518SOL     OW74392   1.424   4.792  11.426
57518SOL    HW174393   1.353   4.814  11.486
57518SOL    HW274394   1.389   4.811  11.339
57519SOL     OW74395  14.474   1.305  14.792
57519SOL    HW174396  14.439   1.392  14.774
57519SOL    HW274397  14.404   1.261  14.841
57520SOL     OW74398   0.345   4.096  11.931
57520SOL    HW174399   0.386   4.183  11.932
57520SOL    HW274400   0.289   4.097  11.853
57521SOL     OW74401   4.778   9.135   0.658
57521SOL    HW174402   4.854   9.167   0.609
57521SOL    HW274403   4.748   9.212   0.707
57522SOL     OW74404   5.754   2.968   0.552
57522SOL    HW174405   5.778   3.060   0.559
57522SOL    HW274406   5.837   2.921   0.554
57523SOL     OW74407  11.400  12.130  13.119
57523SOL    HW174408  11.442  12.211  13.148
57523SOL    HW274409  11.457  12.096  13.051
57524SOL     OW74410   8.715   5.020   7.846
57524SOL    HW174411   8.797   5.004   7.894
57524SOL    HW274412   8.739   5.010   7.754
57525SOL     OW74413   3.981   2.862   7.990
57525SOL    HW174414   3.939   2.780   8.017
57525SOL    HW274415   3.929   2.931   8.031
57526SOL     OW74416   2.798  10.328   8.008
57526SOL    HW174417   2.846  10.249   7.983
57526SOL    HW274418   2.866  10.393   8.025
57527SOL     OW74419   9.169  13.235  10.090
57527SOL    HW174420   9.150  13.328  10.097
57527SOL    HW274421   9.100  13.192  10.141
57528SOL     OW74422   3.311  12.340   6.694
57528SOL    HW174423   3.337  12.306   6.609
57528SOL    HW274424   3.236  12.286   6.720
57529SOL     OW74425  11.510   0.373   6.177
57529SOL    HW174426  11.577   0.421   6.225
57529SOL    HW274427  11.478   0.435   6.112
57530SOL     OW74428   0.746  10.316   7.027
57530SOL    HW174429   0.738  10.369   7.105
57530SOL    HW274430   0.671  10.340   6.973
57531SOL     OW74431   5.520   0.885   0.651
57531SOL    HW174432   5.441   0.837   0.677
57531SOL    HW274433   5.535   0.861   0.560
57532SOL     OW74434   9.248   3.055   1.098
57532SOL    HW174435   9.245   3.130   1.158
57532SOL    HW274436   9.175   3.069   1.038
57533SOL     OW74437  10.119   6.797   5.710
57533SOL    HW174438  10.175   6.858   5.758
57533SOL    HW274439  10.085   6.848   5.637
57534SOL     OW74440  12.630   8.784   7.608
57534SOL    HW174441  12.601   8.727   7.536
57534SOL    HW274442  12.573   8.860   7.603
57535SOL     OW74443  12.504   6.522   3.270
57535SOL    HW174444  12.509   6.615   3.246
57535SOL    HW274445  12.415   6.510   3.302
57536SOL     OW74446   1.648   6.813   7.183
57536SOL    HW174447   1.717   6.805   7.117
57536SOL    HW274448   1.627   6.906   7.185
57537SOL     OW74449   8.863   3.325  13.717
57537SOL    HW174450   8.835   3.298  13.804
57537SOL    HW274451   8.826   3.259  13.658
57538SOL     OW74452   1.055   4.094   3.477
57538SOL    HW174453   1.126   4.034   3.500
57538SOL    HW274454   1.092   4.150   3.409
57539SOL     OW74455  12.709   7.772   4.285
57539SOL    HW174456  12.740   7.694   4.240
57539SOL    HW274457  12.789   7.812   4.321
57540SOL     OW74458   6.383  14.525   6.655
57540SOL    HW174459   6.362  14.439   6.618
57540SOL    HW274460   6.472  14.543   6.624
57541SOL     OW74461   5.982   9.593   2.526
57541SOL    HW174462   5.910   9.657   2.524
57541SOL    HW274463   5.942   9.511   2.497
57542SOL     OW74464   0.525   6.276   6.862
57542SOL    HW174465   0.575   6.274   6.944
57542SOL    HW274466   0.526   6.368   6.836
57543SOL     OW74467   6.736   6.728   4.398
57543SOL    HW174468   6.716   6.747   4.306
57543SOL    HW274469   6.750   6.634   4.401
57544SOL     OW74470   4.892   2.678  13.332
57544SOL    HW174471   4.909   2.711  13.244
57544SOL    HW274472   4.901   2.583  13.323
57545SOL     OW74473   7.699  10.934  12.682
57545SOL    HW174474   7.775  10.891  12.642
57545SOL    HW274475   7.701  10.905  12.773
57546SOL     OW74476   5.851  12.550   7.401
57546SOL    HW174477   5.875  12.617   7.337
57546SOL    HW274478   5.778  12.503   7.360
57547SOL     OW74479   2.353   1.383  12.045
57547SOL    HW174480   2.415   1.456  12.039
57547SOL    HW274481   2.325   1.369  11.955
57548SOL     OW74482  11.533   1.221  11.097
57548SOL    HW174483  11.490   1.306  11.096
57548SOL    HW274484  11.469   1.161  11.060
57549SOL     OW74485   0.590   2.902   4.405
57549SOL    HW174486   0.643   2.916   4.327
57549SOL    HW274487   0.500   2.916   4.375
57550SOL     OW74488   8.437   8.563   1.480
57550SOL    HW174489   8.491   8.488   1.505
57550SOL    HW274490   8.491   8.612   1.418
57551SOL     OW74491   0.101   6.472   3.379
57551SOL    HW174492   0.134   6.538   3.318
57551SOL    HW274493   0.022   6.438   3.337
57552SOL     OW74494   5.005   6.377   5.465
57552SOL    HW174495   4.912   6.366   5.450
57552SOL    HW274496   5.029   6.301   5.520
57553SOL     OW74497   1.493   0.821   8.845
57553SOL    HW174498   1.505   0.855   8.756
57553SOL    HW274499   1.467   0.897   8.896
57554SOL     OW74500  14.434   8.866  11.227
57554SOL    HW174501  14.456   8.777  11.255
57554SOL    HW274502  14.509   8.895  11.175
57555SOL     OW74503   4.279   1.895   2.708
57555SOL    HW174504   4.234   1.978   2.696
57555SOL    HW274505   4.270   1.875   2.802
57556SOL     OW74506   8.360  10.598   3.684
57556SOL    HW174507   8.317  10.618   3.767
57556SOL    HW274508   8.439  10.549   3.709
57557SOL     OW74509   2.798   8.259   4.930
57557SOL    HW174510   2.715   8.233   4.889
57557SOL    HW274511   2.864   8.206   4.886
57558SOL     OW74512   5.263   1.677   8.515
57558SOL    HW174513   5.197   1.700   8.580
57558SOL    HW274514   5.213   1.655   8.436
57559SOL     OW74515  14.697   4.746   3.923
57559SOL    HW174516  14.775   4.693   3.906
57559SOL    HW274517  14.729   4.836   3.920
57560SOL     OW74518   2.648  13.485  12.214
57560SOL    HW174519   2.637  13.420  12.283
57560SOL    HW274520   2.704  13.552  12.253
57561SOL     OW74521   4.504  10.231   6.998
57561SOL    HW174522   4.556  10.310   6.989
57561SOL    HW274523   4.568  10.163   7.021
57562SOL     OW74524   8.244   3.535   8.383
57562SOL    HW174525   8.330   3.552   8.422
57562SOL    HW274526   8.258   3.545   8.289
57563SOL     OW74527  11.142   1.468  13.360
57563SOL    HW174528  11.163   1.463  13.267
57563SOL    HW274529  11.196   1.399  13.400
57564SOL     OW74530   4.782  12.873  11.976
57564SOL    HW174531   4.826  12.797  11.937
57564SOL    HW274532   4.792  12.942  11.911
57565SOL     OW74533   2.550   8.807  12.300
57565SOL    HW174534   2.528   8.788  12.391
57565SOL    HW274535   2.627   8.864  12.305
57566SOL     OW74536   6.746   8.870   0.250
57566SOL    HW174537   6.715   8.918   0.327
57566SOL    HW274538   6.832   8.837   0.276
57567SOL     OW74539  10.763   8.792   6.687
57567SOL    HW174540  10.844   8.807   6.736
57567SOL    HW274541  10.789   8.800   6.595
57568SOL     OW74542   9.131  12.614  11.001
57568SOL    HW174543   9.221  12.591  11.025
57568SOL    HW274544   9.140  12.689  10.943
57569SOL     OW74545  13.536   8.925   5.896
57569SOL    HW174546  13.517   9.006   5.850
57569SOL    HW274547  13.631   8.914   5.888
57570SOL     OW74548  10.961   2.801   1.362
57570SOL    HW174549  10.963   2.728   1.424
57570SOL    HW274550  10.976   2.761   1.277
57571SOL     OW74551   4.483  10.789   1.753
57571SOL    HW174552   4.499  10.759   1.663
57571SOL    HW274553   4.388  10.778   1.766
57572SOL     OW74554   2.675  10.086   2.020
57572SOL    HW174555   2.683  10.009   1.964
57572SOL    HW274556   2.583  10.085   2.048
57573SOL     OW74557   7.339  11.214   2.989
57573SOL    HW174558   7.397  11.232   3.064
57573SOL    HW274559   7.290  11.136   3.015
57574SOL     OW74560   4.159   3.926   3.657
57574SOL    HW174561   4.247   3.957   3.678
57574SOL    HW274562   4.103   3.967   3.723
57575SOL     OW74563  14.875   2.447   8.085
57575SOL    HW174564  14.793   2.450   8.036
57575SOL    HW274565  14.851   2.409   8.170
57576SOL     OW74566   0.466   4.439   6.673
57576SOL    HW174567   0.481   4.420   6.580
57576SOL    HW274568   0.464   4.353   6.715
57577SOL     OW74569   5.858   5.338   9.440
57577SOL    HW174570   5.773   5.343   9.397
57577SOL    HW274571   5.920   5.320   9.369
57578SOL     OW74572   1.593   3.096   4.132
57578SOL    HW174573   1.584   3.005   4.101
57578SOL    HW274574   1.550   3.096   4.218
57579SOL     OW74575   5.073  12.407  10.291
57579SOL    HW174576   4.989  12.451  10.277
57579SOL    HW274577   5.077  12.392  10.385
57580SOL     OW74578   2.286  13.427   6.587
57580SOL    HW174579   2.192  13.418   6.568
57580SOL    HW274580   2.289  13.440   6.682
57581SOL     OW74581  11.878   9.320   0.460
57581SOL    HW174582  11.849   9.393   0.514
57581SOL    HW274583  11.954   9.353   0.413
57582SOL     OW74584   0.083   7.659   9.435
57582SOL    HW174585   0.021   7.722   9.399
57582SOL    HW274586   0.096   7.595   9.366
57583SOL     OW74587  14.791   7.554   2.285
57583SOL    HW174588  14.760   7.498   2.214
57583SOL    HW274589  14.780   7.502   2.364
57584SOL     OW74590   8.897   2.491   0.619
57584SOL    HW174591   8.958   2.447   0.678
57584SOL    HW274592   8.951   2.519   0.545
57585SOL     OW74593  11.014   9.394   5.005
57585SOL    HW174594  10.935   9.364   4.960
57585SOL    HW274595  11.081   9.329   4.983
57586SOL     OW74596   1.507  10.801   7.405
57586SOL    HW174597   1.452  10.826   7.479
57586SOL    HW274598   1.595  10.829   7.430
57587SOL     OW74599   4.385   8.293   0.531
57587SOL    HW174600   4.474   8.266   0.550
57587SOL    HW274601   4.388   8.389   0.531
57588SOL     OW74602  12.208   0.592  14.498
57588SOL    HW174603  12.197   0.518  14.438
57588SOL    HW274604  12.303   0.605  14.503
57589SOL     OW74605   8.418   8.673   5.225
57589SOL    HW174606   8.459   8.729   5.158
57589SOL    HW274607   8.326   8.698   5.223
57590SOL     OW74608  10.556   2.742  11.802
57590SOL    HW174609  10.475   2.794  11.793
57590SOL    HW274610  10.570   2.706  11.715
57591SOL     OW74611   6.547   9.293   0.949
57591SOL    HW174612   6.495   9.218   0.979
57591SOL    HW274613   6.483   9.364   0.940
57592SOL     OW74614   7.322   5.511   3.060
57592SOL    HW174615   7.374   5.587   3.033
57592SOL    HW274616   7.237   5.547   3.084
57593SOL     OW74617  11.394  11.119   6.745
57593SOL    HW174618  11.436  11.190   6.696
57593SOL    HW274619  11.435  11.039   6.710
57594SOL     OW74620   2.405   0.004   6.822
57594SOL    HW174621   2.476  14.850   6.876
57594SOL    HW274622   2.348   0.050   6.885
57595SOL     OW74623   5.072   4.558   1.183
57595SOL    HW174624   5.042   4.474   1.217
57595SOL    HW274625   5.101   4.539   1.094
57596SOL     OW74626   3.969   2.582   4.213
57596SOL    HW174627   4.014   2.665   4.202
57596SOL    HW274628   4.004   2.526   4.143
57597SOL     OW74629   4.998   5.609   7.593
57597SOL    HW174630   5.002   5.538   7.657
57597SOL    HW274631   5.040   5.574   7.515
57598SOL     OW74632   7.272   4.775   4.378
57598SOL    HW174633   7.357   4.732   4.375
57598SOL    HW274634   7.241   4.774   4.288
57599SOL     OW74635   3.930   9.526   7.805
57599SOL    HW174636   3.931   9.452   7.866
57599SOL    HW274637   3.948   9.488   7.720
57600SOL     OW74638  10.165   9.595   3.908
57600SOL    HW174639  10.191   9.652   3.836
57600SOL    HW274640  10.072   9.578   3.893
57601SOL     OW74641   2.826   1.459   0.525
57601SOL    HW174642   2.919   1.476   0.512
57601SOL    HW274643   2.821   1.425   0.614
57602SOL     OW74644   7.192  14.770  14.692
57602SOL    HW174645   7.141  14.716  14.753
57602SOL    HW274646   7.270  14.718  14.674
57603SOL     OW74647   2.042   6.265   2.583
57603SOL    HW174648   1.958   6.289   2.543
57603SOL    HW274649   2.076   6.348   2.617
57604SOL     OW74650   5.847   4.427   6.422
57604SOL    HW174651   5.790   4.427   6.345
57604SOL    HW274652   5.818   4.502   6.473
57605SOL     OW74653  11.752   4.855  12.838
57605SOL    HW174654  11.789   4.867  12.925
57605SOL    HW274655  11.794   4.776  12.805
57606SOL     OW74656   8.816   9.228   4.449
57606SOL    HW174657   8.744   9.260   4.394
57606SOL    HW274658   8.823   9.293   4.519
57607SOL     OW74659   1.217  11.546   4.996
57607SOL    HW174660   1.267  11.539   4.914
57607SOL    HW274661   1.263  11.490   5.058
57608SOL     OW74662   6.948   6.990   7.980
57608SOL    HW174663   7.015   6.922   7.979
57608SOL    HW274664   6.899   6.978   7.899
57609SOL     OW74665   5.505  14.797   3.326
57609SOL    HW174666   5.593  14.762   3.340
57609SOL    HW274667   5.447  14.720   3.336
57610SOL     OW74668   3.734   3.515   3.836
57610SOL    HW174669   3.727   3.485   3.746
57610SOL    HW274670   3.709   3.608   3.833
57611SOL     OW74671   1.061   8.757   4.891
57611SOL    HW174672   1.126   8.761   4.961
57611SOL    HW274673   1.026   8.668   4.896
57612SOL     OW74674   7.779  10.129   5.126
57612SOL    HW174675   7.720  10.203   5.142
57612SOL    HW274676   7.732  10.053   5.161
57613SOL     OW74677   9.942   5.511  12.711
57613SOL    HW174678   9.892   5.575  12.762
57613SOL    HW274679  10.022   5.558  12.686
57614SOL     OW74680   1.683   6.908   6.302
57614SOL    HW174681   1.668   6.869   6.217
57614SOL    HW274682   1.705   7.000   6.283
57615SOL     OW74683  14.216   2.353   5.357
57615SOL    HW174684  14.269   2.428   5.383
57615SOL    HW274685  14.267   2.277   5.382
57616SOL     OW74686  10.775  12.336   8.154
57616SOL    HW174687  10.858  12.338   8.202
57616SOL    HW274688  10.747  12.427   8.150
57617SOL     OW74689   8.805   7.286  10.163
57617SOL    HW174690   8.755   7.340  10.102
57617SOL    HW274691   8.743   7.263  10.232
57618SOL     OW74692   3.163   0.766   1.723
57618SOL    HW174693   3.125   0.680   1.740
57618SOL    HW274694   3.114   0.826   1.779
57619SOL     OW74695   1.121  12.986   1.051
57619SOL    HW174696   1.089  12.971   0.962
57619SOL    HW274697   1.210  13.020   1.039
57620SOL     OW74698   3.396  14.634   2.194
57620SOL    HW174699   3.450  14.661   2.268
57620SOL    HW274700   3.458  14.598   2.131
57621SOL     OW74701   2.589   4.041   7.163
57621SOL    HW174702   2.507   4.021   7.117
57621SOL    HW274703   2.643   3.963   7.150
57622SOL     OW74704   0.928  14.841   2.483
57622SOL    HW174705   0.933   0.052   2.507
57622SOL    HW274706   0.980  14.835   2.403
57623SOL     OW74707   1.019   6.830  12.485
57623SOL    HW174708   0.966   6.854  12.408
57623SOL    HW274709   0.974   6.873  12.558
57624SOL     OW74710   7.947   7.452  14.037
57624SOL    HW174711   7.984   7.506  13.967
57624SOL    HW274712   7.858   7.433  14.007
57625SOL     OW74713   1.079   8.678   7.164
57625SOL    HW174714   1.113   8.688   7.075
57625SOL    HW274715   0.989   8.713   7.160
57626SOL     OW74716  14.859   5.761   4.180
57626SOL    HW174717  14.795   5.694   4.203
57626SOL    HW274718   0.047   5.751   4.244
57627SOL     OW74719  13.446   7.475   0.955
57627SOL    HW174720  13.464   7.508   0.867
57627SOL    HW274721  13.357   7.505   0.973
57628SOL     OW74722   8.893   9.793  14.479
57628SOL    HW174723   8.839   9.871  14.483
57628SOL    HW274724   8.832   9.723  14.455
57629SOL     OW74725  12.496   5.106  14.789
57629SOL    HW174726  12.466   5.035  14.846
57629SOL    HW274727  12.424   5.119  14.727
57630SOL     OW74728   5.987   1.188   4.153
57630SOL    HW174729   5.970   1.098   4.180
57630SOL    HW274730   5.935   1.242   4.213
57631SOL     OW74731  10.809   9.703   9.948
57631SOL    HW174732  10.804   9.714   9.853
57631SOL    HW274733  10.821   9.609   9.962
57632SOL     OW74734   2.009  14.444   4.118
57632SOL    HW174735   1.950  14.471   4.047
57632SOL    HW274736   1.950  14.417   4.189
57633SOL     OW74737   6.311   2.299  12.627
57633SOL    HW174738   6.308   2.206  12.603
57633SOL    HW274739   6.266   2.303  12.711
57634SOL     OW74740  10.206  10.127   1.407
57634SOL    HW174741  10.219  10.055   1.469
57634SOL    HW274742  10.123  10.107   1.364
57635SOL     OW74743  13.160   1.114   0.721
57635SOL    HW174744  13.091   1.180   0.724
57635SOL    HW274745  13.218   1.143   0.651
57636SOL     OW74746   6.737  10.197   1.830
57636SOL    HW174747   6.796  10.207   1.905
57636SOL    HW274748   6.795  10.183   1.755
57637SOL     OW74749   4.492  13.407   0.337
57637SOL    HW174750   4.461  13.375   0.252
57637SOL    HW274751   4.583  13.433   0.321
57638SOL     OW74752   6.767   7.293  12.807
57638SOL    HW174753   6.701   7.282  12.739
57638SOL    HW274754   6.845   7.325  12.761
57639SOL     OW74755   5.935   6.339   2.516
57639SOL    HW174756   5.961   6.373   2.430
57639SOL    HW274757   5.883   6.410   2.554
57640SOL     OW74758  11.314   5.808   1.983
57640SOL    HW174759  11.381   5.872   2.004
57640SOL    HW274760  11.265   5.797   2.064
57641SOL     OW74761   6.866  10.708   1.933
57641SOL    HW174762   6.826  10.641   1.877
57641SOL    HW274763   6.843  10.682   2.022
57642SOL     OW74764   4.591   0.007  13.158
57642SOL    HW174765   4.682   0.023  13.130
57642SOL    HW274766   4.554   0.095  13.168
57643SOL     OW74767   0.389   4.205   4.575
57643SOL    HW174768   0.459   4.142   4.558
57643SOL    HW274769   0.425   4.264   4.641
57644SOL     OW74770  11.857   3.532   8.033
57644SOL    HW174771  11.885   3.614   8.073
57644SOL    HW274772  11.900   3.532   7.947
57645SOL     OW74773   5.053  12.211   1.884
57645SOL    HW174774   4.984  12.193   1.820
57645SOL    HW274775   5.081  12.300   1.865
57646SOL     OW74776   3.038  10.620   6.600
57646SOL    HW174777   2.988  10.543   6.628
57646SOL    HW274778   3.119  10.616   6.653
57647SOL     OW74779   8.481  12.971   1.670
57647SOL    HW174780   8.558  12.946   1.721
57647SOL    HW274781   8.488  13.066   1.661
57648SOL     OW74782   8.586   3.226  12.437
57648SOL    HW174783   8.512   3.200  12.382
57648SOL    HW274784   8.649   3.154  12.427
57649SOL     OW74785   6.570   3.275   3.256
57649SOL    HW174786   6.509   3.215   3.213
57649SOL    HW274787   6.579   3.348   3.195
57650SOL     OW74788   8.263   5.654  12.361
57650SOL    HW174789   8.179   5.609  12.367
57650SOL    HW274790   8.326   5.585  12.340
57651SOL     OW74791   1.188  11.968   0.600
57651SOL    HW174792   1.282  11.949   0.591
57651SOL    HW274793   1.181  12.060   0.576
57652SOL     OW74794   4.040   4.923   1.260
57652SOL    HW174795   4.050   4.830   1.239
57652SOL    HW274796   4.120   4.946   1.306
57653SOL     OW74797  13.472  10.469  14.781
57653SOL    HW174798  13.505  10.445  14.867
57653SOL    HW274799  13.383  10.433  14.779
57654SOL     OW74800  14.246   3.695  11.663
57654SOL    HW174801  14.308   3.767  11.671
57654SOL    HW274802  14.185   3.707  11.736
57655SOL     OW74803  11.764   2.146  12.593
57655SOL    HW174804  11.744   2.237  12.571
57655SOL    HW274805  11.785   2.106  12.509
57656SOL     OW74806   4.168   9.958   6.889
57656SOL    HW174807   4.248   9.989   6.930
57656SOL    HW274808   4.121   9.912   6.958
57657SOL     OW74809   1.313   6.283  11.325
57657SOL    HW174810   1.361   6.298  11.406
57657SOL    HW274811   1.368   6.319  11.256
57658SOL     OW74812   2.117  12.275   1.718
57658SOL    HW174813   2.123  12.319   1.803
57658SOL    HW274814   2.127  12.346   1.654
57659SOL     OW74815  12.393   4.051   7.424
57659SOL    HW174816  12.313   4.065   7.473
57659SOL    HW274817  12.407   3.957   7.426
57660SOL     OW74818   5.206   3.181   5.419
57660SOL    HW174819   5.246   3.103   5.380
57660SOL    HW274820   5.215   3.248   5.352
57661SOL     OW74821   8.085   7.362  12.456
57661SOL    HW174822   8.062   7.273  12.430
57661SOL    HW274823   8.169   7.354  12.502
57662SOL     OW74824   6.439  13.075  14.085
57662SOL    HW174825   6.427  13.166  14.112
57662SOL    HW274826   6.355  13.049  14.049
57663SOL     OW74827   7.630  10.570   1.969
57663SOL    HW174828   7.681  10.635   1.921
57663SOL    HW274829   7.544  10.611   1.978
57664SOL     OW74830  12.477   9.214  10.377
57664SOL    HW174831  12.459   9.121  10.393
57664SOL    HW274832  12.394   9.250  10.346
57665SOL     OW74833   8.311   7.149   5.387
57665SOL    HW174834   8.262   7.081   5.433
57665SOL    HW274835   8.359   7.195   5.456
57666SOL     OW74836  10.008   8.653  14.304
57666SOL    HW174837  10.085   8.610  14.342
57666SOL    HW274838   9.992   8.728  14.361
57667SOL     OW74839   7.700   8.786  10.092
57667SOL    HW174840   7.715   8.704  10.045
57667SOL    HW274841   7.782   8.802  10.138
57668SOL     OW74842   8.431   8.101   3.435
57668SOL    HW174843   8.396   8.096   3.346
57668SOL    HW274844   8.464   8.190   3.444
57669SOL     OW74845   8.069   6.292   9.345
57669SOL    HW174846   8.119   6.265   9.267
57669SOL    HW274847   8.096   6.230   9.413
57670SOL     OW74848   7.556  12.254  10.628
57670SOL    HW174849   7.581  12.337  10.669
57670SOL    HW274850   7.486  12.220  10.683
57671SOL     OW74851  11.710   4.200   3.712
57671SOL    HW174852  11.765   4.224   3.638
57671SOL    HW274853  11.726   4.269   3.777
57672SOL     OW74854   3.641   7.817   7.774
57672SOL    HW174855   3.582   7.754   7.734
57672SOL    HW274856   3.666   7.778   7.857
57673SOL     OW74857   4.954   3.941  11.478
57673SOL    HW174858   4.912   4.002  11.418
57673SOL    HW274859   5.017   3.994  11.526
57674SOL     OW74860  13.201   0.858   5.053
57674SOL    HW174861  13.125   0.812   5.017
57674SOL    HW274862  13.169   0.945   5.075
57675SOL     OW74863   6.377   8.217   2.607
57675SOL    HW174864   6.351   8.277   2.676
57675SOL    HW274865   6.385   8.132   2.651
57676SOL     OW74866  13.400  12.120  11.900
57676SOL    HW174867  13.491  12.101  11.876
57676SOL    HW274868  13.406  12.162  11.986
57677SOL     OW74869   4.212   7.958   5.200
57677SOL    HW174870   4.284   7.949   5.137
57677SOL    HW274871   4.147   7.894   5.171
57678SOL     OW74872  12.826  14.284   2.424
57678SOL    HW174873  12.917  14.308   2.409
57678SOL    HW274874  12.801  14.235   2.346
57679SOL     OW74875   8.400   2.994   3.386
57679SOL    HW174876   8.358   2.923   3.338
57679SOL    HW274877   8.392   2.969   3.478
57680SOL     OW74878  13.998  12.666  11.765
57680SOL    HW174879  13.956  12.608  11.828
57680SOL    HW274880  13.927  12.718  11.729
57681SOL     OW74881   1.580   3.489   7.112
57681SOL    HW174882   1.539   3.555   7.056
57681SOL    HW274883   1.531   3.408   7.093
57682SOL     OW74884   8.008  12.311   1.303
57682SOL    HW174885   7.914  12.297   1.288
57682SOL    HW274886   8.015  12.405   1.321
57683SOL     OW74887  12.714   6.749  10.984
57683SOL    HW174888  12.762   6.731  11.065
57683SOL    HW274889  12.646   6.811  11.010
57684SOL     OW74890   8.873   6.951   0.915
57684SOL    HW174891   8.867   6.880   0.979
57684SOL    HW274892   8.782   6.977   0.900
57685SOL     OW74893   0.841   0.434   6.007
57685SOL    HW174894   0.811   0.525   6.010
57685SOL    HW274895   0.932   0.438   6.034
57686SOL     OW74896  11.108  13.005   3.181
57686SOL    HW174897  11.189  13.056   3.176
57686SOL    HW274898  11.135  12.915   3.161
57687SOL     OW74899  14.677  12.093  14.312
57687SOL    HW174900  14.634  12.129  14.390
57687SOL    HW274901  14.621  12.020  14.286
57688SOL     OW74902   1.302   1.483  11.420
57688SOL    HW174903   1.394   1.504  11.439
57688SOL    HW274904   1.267   1.563  11.381
57689SOL     OW74905   7.816  13.875  12.867
57689SOL    HW174906   7.875  13.889  12.792
57689SOL    HW274907   7.769  13.957  12.877
57690SOL     OW74908   4.014  11.044   0.597
57690SOL    HW174909   3.965  11.120   0.631
57690SOL    HW274910   4.098  11.080   0.569
57691SOL     OW74911   2.304  11.023  13.076
57691SOL    HW174912   2.372  10.995  13.137
57691SOL    HW274913   2.291  10.948  13.018
57692SOL     OW74914  13.858  10.039  13.625
57692SOL    HW174915  13.863   9.951  13.663
57692SOL    HW274916  13.830  10.025  13.535
57693SOL     OW74917  10.710   4.268  12.389
57693SOL    HW174918  10.705   4.353  12.345
57693SOL    HW274919  10.682   4.285  12.479
57694SOL     OW74920   0.888   5.200   4.063
57694SOL    HW174921   0.874   5.262   4.134
57694SOL    HW274922   0.869   5.249   3.983
57695SOL     OW74923   0.389   3.475   0.149
57695SOL    HW174924   0.446   3.494   0.223
57695SOL    HW274925   0.447   3.438   0.083
57696SOL     OW74926   9.528   7.355   2.676
57696SOL    HW174927   9.510   7.406   2.755
57696SOL    HW274928   9.463   7.285   2.677
57697SOL     OW74929   1.676  13.555  14.222
57697SOL    HW174930   1.611  13.624  14.239
57697SOL    HW274931   1.754  13.603  14.192
57698SOL     OW74932   3.218  13.481  11.631
57698SOL    HW174933   3.247  13.477  11.540
57698SOL    HW274934   3.276  13.546  11.671
57699SOL     OW74935   6.960   2.571  14.814
57699SOL    HW174936   6.871   2.606  14.822
57699SOL    HW274937   6.950   2.476  14.825
57700SOL     OW74938   0.797  14.067   0.737
57700SOL    HW174939   0.796  14.094   0.645
57700SOL    HW274940   0.848  13.986   0.737
57701SOL     OW74941   4.133  12.328   1.591
57701SOL    HW174942   4.074  12.397   1.622
57701SOL    HW274943   4.175  12.295   1.670
57702SOL     OW74944   8.639   1.017   8.318
57702SOL    HW174945   8.638   1.086   8.384
57702SOL    HW274946   8.631   1.063   8.234
57703SOL     OW74947   8.398   0.010  13.577
57703SOL    HW174948   8.446  14.811  13.594
57703SOL    HW274949   8.306  14.869  13.594
57704SOL     OW74950  14.875  11.996   4.474
57704SOL    HW174951  14.794  12.028   4.436
57704SOL    HW274952  14.849  11.919   4.525
57705SOL     OW74953   7.694  12.438   6.637
57705SOL    HW174954   7.647  12.518   6.615
57705SOL    HW274955   7.666  12.374   6.572
57706SOL     OW74956   0.853   9.897   2.744
57706SOL    HW174957   0.931   9.911   2.691
57706SOL    HW274958   0.878   9.828   2.806
57707SOL     OW74959  11.816   8.754  12.818
57707SOL    HW174960  11.838   8.723  12.730
57707SOL    HW274961  11.890   8.725  12.872
57708SOL     OW74962   6.195  10.892   6.395
57708SOL    HW174963   6.150  10.949   6.332
57708SOL    HW274964   6.135  10.819   6.409
57709SOL     OW74965   2.558   4.386   1.649
57709SOL    HW174966   2.626   4.418   1.708
57709SOL    HW274967   2.607   4.350   1.574
57710SOL     OW74968   8.949   6.779   8.109
57710SOL    HW174969   9.010   6.706   8.102
57710SOL    HW274970   8.951   6.804   8.201
57711SOL     OW74971  12.454  14.740   0.247
57711SOL    HW174972  12.506  14.807   0.203
57711SOL    HW274973  12.430  14.779   0.331
57712SOL     OW74974   7.510   3.091   0.153
57712SOL    HW174975   7.511   3.038   0.074
57712SOL    HW274976   7.426   3.138   0.149
57713SOL     OW74977  12.883   0.107   5.014
57713SOL    HW174978  12.827   0.065   5.079
57713SOL    HW274979  12.823   0.154   4.957
57714SOL     OW74980   5.350  10.459   8.809
57714SOL    HW174981   5.440  10.468   8.841
57714SOL    HW274982   5.354  10.387   8.746
57715SOL     OW74983   0.149   7.983   2.600
57715SOL    HW174984   0.112   7.965   2.686
57715SOL    HW274985   0.216   8.050   2.617
57716SOL     OW74986   3.446  12.425  13.237
57716SOL    HW174987   3.424  12.501  13.183
57716SOL    HW274988   3.476  12.360  13.174
57717SOL     OW74989  10.806   3.748   9.100
57717SOL    HW174990  10.847   3.665   9.123
57717SOL    HW274991  10.805   3.749   9.004
57718SOL     OW74992  10.317   4.746   3.310
57718SOL    HW174993  10.358   4.660   3.319
57718SOL    HW274994  10.347   4.779   3.225
57719SOL     OW74995   0.695   7.032  11.280
57719SOL    HW174996   0.645   7.015  11.360
57719SOL    HW274997   0.723   7.124  11.289
57720SOL     OW74998   2.790  11.521   2.068
57720SOL    HW174999   2.791  11.577   1.991
57720SOL    HW275000   2.701  11.530   2.103
57721SOL     OW75001  11.656  10.094  13.662
57721SOL    HW175002  11.595  10.130  13.598
57721SOL    HW275003  11.677  10.168  13.719
57722SOL     OW75004  10.186   0.684   3.674
57722SOL    HW175005  10.162   0.768   3.713
57722SOL    HW275006  10.267   0.701   3.627
57723SOL     OW75007  12.923   4.497   4.522
57723SOL    HW175008  12.991   4.486   4.456
57723SOL    HW275009  12.969   4.493   4.606
57724SOL     OW75010  11.753  14.770   6.762
57724SOL    HW175011  11.834  14.763   6.812
57724SOL    HW275012  11.692  14.711   6.806
57725SOL     OW75013   4.589  11.259   5.115
57725SOL    HW175014   4.536  11.310   5.177
57725SOL    HW275015   4.645  11.205   5.170
57726SOL     OW75016   0.779   8.490   0.241
57726SOL    HW175017   0.814   8.470   0.154
57726SOL    HW275018   0.709   8.426   0.254
57727SOL     OW75019   2.627   4.846  12.681
57727SOL    HW175020   2.676   4.834  12.600
57727SOL    HW275021   2.643   4.937  12.706
57728SOL     OW75022   5.535   5.387   8.468
57728SOL    HW175023   5.511   5.301   8.434
57728SOL    HW275024   5.630   5.386   8.472
57729SOL     OW75025   8.020   1.757  14.016
57729SOL    HW175026   8.087   1.690  14.032
57729SOL    HW275027   7.962   1.719  13.950
57730SOL     OW75028   1.399   7.505  13.183
57730SOL    HW175029   1.412   7.599  13.198
57730SOL    HW275030   1.380   7.497  13.090
57731SOL     OW75031   0.057  11.110   9.394
57731SOL    HW175032   0.131  11.168   9.376
57731SOL    HW275033   0.080  11.028   9.350
57732SOL     OW75034   3.650  10.736   8.566
57732SOL    HW175035   3.630  10.824   8.598
57732SOL    HW275036   3.725  10.708   8.619
57733SOL     OW75037  14.158   0.695   0.021
57733SOL    HW175038  14.150   0.601   0.011
57733SOL    HW275039  14.244   0.717  14.868
57734SOL     OW75040   1.987   2.996  13.504
57734SOL    HW175041   1.946   2.911  13.522
57734SOL    HW275042   2.068   2.996  13.555
57735SOL     OW75043   4.611   9.839   4.267
57735SOL    HW175044   4.661   9.861   4.345
57735SOL    HW275045   4.667   9.866   4.194
57736SOL     OW75046   2.960  13.674  10.725
57736SOL    HW175047   3.036  13.719  10.761
57736SOL    HW275048   2.990  13.584  10.711
57737SOL     OW75049  12.227   3.628  14.037
57737SOL    HW175050  12.212   3.535  14.051
57737SOL    HW275051  12.186   3.671  14.112
57738SOL     OW75052   9.132   2.951  12.568
57738SOL    HW175053   9.148   2.905  12.486
57738SOL    HW275054   9.218   2.983  12.595
57739SOL     OW75055   3.486   4.605  11.578
57739SOL    HW175056   3.394   4.580  11.576
57739SOL    HW275057   3.523   4.566  11.499
57740SOL     OW75058   1.773   6.709   4.534
57740SOL    HW175059   1.748   6.766   4.461
57740SOL    HW275060   1.787   6.623   4.494
57741SOL     OW75061   4.338  10.020   1.945
57741SOL    HW175062   4.388  10.101   1.954
57741SOL    HW275063   4.401   9.956   1.912
57742SOL     OW75064   7.757   5.603   5.381
57742SOL    HW175065   7.795   5.666   5.320
57742SOL    HW275066   7.832   5.573   5.433
57743SOL     OW75067  13.622   9.124   4.054
57743SOL    HW175068  13.614   9.121   4.149
57743SOL    HW275069  13.536   9.152   4.023
57744SOL     OW75070   6.331   4.443   2.018
57744SOL    HW175071   6.268   4.403   1.959
57744SOL    HW275072   6.392   4.489   1.961
57745SOL     OW75073   4.910  10.307  10.793
57745SOL    HW175074   4.914  10.257  10.874
57745SOL    HW275075   4.932  10.396  10.819
57746SOL     OW75076   8.805  10.050   8.034
57746SOL    HW175077   8.846  10.047   7.948
57746SOL    HW275078   8.869  10.009   8.092
57747SOL     OW75079   0.337   7.512   5.040
57747SOL    HW175080   0.405   7.503   4.973
57747SOL    HW275081   0.256   7.488   4.995
57748SOL     OW75082   9.392   5.129   0.860
57748SOL    HW175083   9.319   5.156   0.806
57748SOL    HW275084   9.384   5.033   0.865
57749SOL     OW75085  12.991   5.625   3.632
57749SOL    HW175086  12.978   5.676   3.712
57749SOL    HW275087  13.011   5.537   3.664
57750SOL     OW75088   4.068   9.898  13.866
57750SOL    HW175089   4.161   9.891  13.884
57750SOL    HW275090   4.062   9.909  13.771
57751SOL     OW75091   2.874   4.999   9.744
57751SOL    HW175092   2.842   4.911   9.766
57751SOL    HW275093   2.857   5.050   9.823
57752SOL     OW75094   9.437  11.704   4.832
57752SOL    HW175095   9.490  11.659   4.766
57752SOL    HW275096   9.500  11.744   4.891
57753SOL     OW75097   3.979   8.027  14.846
57753SOL    HW175098   4.069   8.012  14.876
57753SOL    HW275099   3.938   8.076   0.036
57754SOL     OW75100   6.887  10.998  14.458
57754SOL    HW175101   6.912  10.909  14.484
57754SOL    HW275102   6.968  11.037  14.425
57755SOL     OW75103   8.208  11.154   8.348
57755SOL    HW175104   8.161  11.218   8.402
57755SOL    HW275105   8.298  11.186   8.347
57756SOL     OW75106  14.028   6.039   2.261
57756SOL    HW175107  14.007   5.955   2.222
57756SOL    HW275108  14.026   6.101   2.188
57757SOL     OW75109  11.818   7.665   6.831
57757SOL    HW175110  11.752   7.688   6.766
57757SOL    HW275111  11.859   7.748   6.853
57758SOL     OW75112   8.035   6.976   1.023
57758SOL    HW175113   7.944   6.998   1.042
57758SOL    HW275114   8.030   6.896   0.972
57759SOL     OW75115   9.198   0.435  11.727
57759SOL    HW175116   9.242   0.520  11.727
57759SOL    HW275117   9.241   0.386  11.657
57760SOL     OW75118   6.713   3.838  13.592
57760SOL    HW175119   6.715   3.743  13.581
57760SOL    HW275120   6.634   3.854  13.644
57761SOL     OW75121   6.841  14.697   4.950
57761SOL    HW175122   6.936  14.689   4.949
57761SOL    HW275123   6.815  14.676   4.860
57762SOL     OW75124  14.737   2.529   6.760
57762SOL    HW175125  14.705   2.440   6.777
57762SOL    HW275126  14.831   2.518   6.744
57763SOL     OW75127   3.625   0.276   4.637
57763SOL    HW175128   3.532   0.279   4.615
57763SOL    HW275129   3.665   0.229   4.564
57764SOL     OW75130  14.387  12.105   0.158
57764SOL    HW175131  14.347  12.062   0.234
57764SOL    HW275132  14.480  12.085   0.165
57765SOL     OW75133  12.693   3.570  11.033
57765SOL    HW175134  12.616   3.611  11.073
57765SOL    HW275135  12.696   3.606  10.944
57766SOL     OW75136   9.897   0.318   7.545
57766SOL    HW175137   9.929   0.266   7.470
57766SOL    HW275138   9.974   0.327   7.602
57767SOL     OW75139   2.434   0.398   6.268
57767SOL    HW175140   2.510   0.444   6.305
57767SOL    HW275141   2.431   0.315   6.316
57768SOL     OW75142   0.261   2.457  14.043
57768SOL    HW175143   0.216   2.438  13.961
57768SOL    HW275144   0.249   2.378  14.096
57769SOL     OW75145   9.357   3.564   5.117
57769SOL    HW175146   9.340   3.656   5.140
57769SOL    HW275147   9.308   3.514   5.182
57770SOL     OW75148  13.189   1.592   4.976
57770SOL    HW175149  13.102   1.629   4.959
57770SOL    HW275150  13.207   1.615   5.067
57771SOL     OW75151  14.723   5.128   6.403
57771SOL    HW175152  14.709   5.173   6.320
57771SOL    HW275153  14.698   5.192   6.470
57772SOL     OW75154   5.720   6.182   1.240
57772SOL    HW175155   5.692   6.111   1.298
57772SOL    HW275156   5.698   6.151   1.152
57773SOL     OW75157  11.899   8.370   1.603
57773SOL    HW175158  11.860   8.383   1.517
57773SOL    HW275159  11.873   8.447   1.653
57774SOL     OW75160   9.083   0.354   8.033
57774SOL    HW175161   9.166   0.357   7.984
57774SOL    HW275162   9.058   0.445   8.043
57775SOL     OW75163  11.085   8.596   5.806
57775SOL    HW175164  11.126   8.668   5.758
57775SOL    HW275165  11.100   8.519   5.751
57776SOL     OW75166   9.539  10.708  14.688
57776SOL    HW175167   9.580  10.650  14.623
57776SOL    HW275168   9.493  10.773  14.636
57777SOL     OW75169   6.110   7.832   3.810
57777SOL    HW175170   6.130   7.754   3.759
57777SOL    HW275171   6.122   7.805   3.901
57778SOL     OW75172   6.009   6.423   3.714
57778SOL    HW175173   6.090   6.431   3.665
57778SOL    HW275174   6.037   6.421   3.806
57779SOL     OW75175  12.306   5.483   4.852
57779SOL    HW175176  12.378   5.493   4.914
57779SOL    HW275177  12.231   5.459   4.907
57780SOL     OW75178   1.190   9.465   0.484
57780SOL    HW175179   1.165   9.529   0.550
57780SOL    HW275180   1.172   9.508   0.401
57781SOL     OW75181  13.333  12.105   2.336
57781SOL    HW175182  13.254  12.056   2.360
57781SOL    HW275183  13.306  12.160   2.263
57782SOL     OW75184   1.346  12.033   7.871
57782SOL    HW175185   1.259  11.999   7.893
57782SOL    HW275186   1.380  11.971   7.806
57783SOL     OW75187  14.154   2.594  12.109
57783SOL    HW175188  14.070   2.581  12.065
57783SOL    HW275189  14.210   2.525  12.074
57784SOL     OW75190  10.339  10.433   8.711
57784SOL    HW175191  10.259  10.396   8.748
57784SOL    HW275192  10.406  10.412   8.776
57785SOL     OW75193  13.369   4.967   7.689
57785SOL    HW175194  13.416   4.894   7.647
57785SOL    HW275195  13.330   4.928   7.767
57786SOL     OW75196   2.089   2.136   6.021
57786SOL    HW175197   2.118   2.057   5.975
57786SOL    HW275198   2.169   2.185   6.037
57787SOL     OW75199   5.494   9.904   2.988
57787SOL    HW175200   5.499   9.820   3.035
57787SOL    HW275201   5.400   9.920   2.979
57788SOL     OW75202  14.281   5.976   6.841
57788SOL    HW175203  14.358   5.936   6.880
57788SOL    HW275204  14.276   6.063   6.880
57789SOL     OW75205  14.647   4.331  13.740
57789SOL    HW175206  14.604   4.410  13.707
57789SOL    HW275207  14.673   4.283  13.662
57790SOL     OW75208   7.776  13.278   9.740
57790SOL    HW175209   7.747  13.189   9.759
57790SOL    HW275210   7.717  13.308   9.671
57791SOL     OW75211   2.616  12.318  10.198
57791SOL    HW175212   2.647  12.318  10.108
57791SOL    HW275213   2.660  12.393  10.238
57792SOL     OW75214   4.626   6.438   1.067
57792SOL    HW175215   4.701   6.495   1.084
57792SOL    HW275216   4.649   6.355   1.108
57793SOL     OW75217   8.233   3.938  14.092
57793SOL    HW175218   8.293   4.006  14.061
57793SOL    HW275219   8.246   3.935  14.187
57794SOL     OW75220   9.412   4.045   9.844
57794SOL    HW175221   9.349   4.077   9.780
57794SOL    HW275222   9.496   4.080   9.815
57795SOL     OW75223   9.267  10.020  14.034
57795SOL    HW175224   9.203  10.077  14.078
57795SOL    HW275225   9.308  10.076  13.969
57796SOL     OW75226  12.919   2.574   4.159
57796SOL    HW175227  12.825   2.588   4.157
57796SOL    HW275228  12.939   2.551   4.250
57797SOL     OW75229  13.799   2.902  11.902
57797SOL    HW175230  13.764   2.814  11.886
57797SOL    HW275231  13.728   2.961  11.875
57798SOL     OW75232   4.227  10.219   0.905
57798SOL    HW175233   4.150  10.264   0.938
57798SOL    HW275234   4.204  10.194   0.815
57799SOL     OW75235   5.245   3.409   3.449
57799SOL    HW175236   5.169   3.353   3.464
57799SOL    HW275237   5.242   3.429   3.355
57800SOL     OW75238  12.405   5.850  11.961
57800SOL    HW175239  12.466   5.856  12.035
57800SOL    HW275240  12.327   5.897  11.990
57801SOL     OW75241   7.006   8.839   0.299
57801SOL    HW175242   7.052   8.800   0.225
57801SOL    HW275243   7.030   8.785   0.374
57802SOL     OW75244   4.471   4.280  11.556
57802SOL    HW175245   4.397   4.265  11.614
57802SOL    HW275246   4.449   4.233  11.475
57803SOL     OW75247   9.320   9.407  10.048
57803SOL    HW175248   9.380   9.475  10.017
57803SOL    HW275249   9.245   9.456  10.083
57804SOL     OW75250   7.165   6.517   5.375
57804SOL    HW175251   7.081   6.474   5.360
57804SOL    HW275252   7.221   6.488   5.304
57805SOL     OW75253   2.557  12.441   7.368
57805SOL    HW175254   2.645  12.475   7.389
57805SOL    HW275255   2.538  12.379   7.439
57806SOL     OW75256   4.737  14.301   4.629
57806SOL    HW175257   4.734  14.349   4.711
57806SOL    HW275258   4.728  14.209   4.655
57807SOL     OW75259   6.954   9.342   8.612
57807SOL    HW175260   6.963   9.259   8.566
57807SOL    HW275261   7.028   9.395   8.583
57808SOL     OW75262  11.242  13.364   0.151
57808SOL    HW175263  11.257  13.272   0.170
57808SOL    HW275264  11.330  13.401   0.142
57809SOL     OW75265   3.090   2.151   1.407
57809SOL    HW175266   3.091   2.244   1.430
57809SOL    HW275267   3.132   2.148   1.321
57810SOL     OW75268   6.572  14.160   8.225
57810SOL    HW175269   6.656  14.206   8.220
57810SOL    HW275270   6.507  14.229   8.222
57811SOL     OW75271   0.288   6.028   0.504
57811SOL    HW175272   0.239   6.053   0.426
57811SOL    HW275273   0.347   6.102   0.519
57812SOL     OW75274   9.878  14.641   4.960
57812SOL    HW175275   9.874  14.545   4.970
57812SOL    HW275276   9.951  14.656   4.900
57813SOL     OW75277  12.303  13.302  10.303
57813SOL    HW175278  12.330  13.264  10.219
57813SOL    HW275279  12.299  13.227  10.363
57814SOL     OW75280   6.890   4.190  12.001
57814SOL    HW175281   6.902   4.171  11.908
57814SOL    HW275282   6.866   4.105  12.040
57815SOL     OW75283   1.249  10.001  11.660
57815SOL    HW175284   1.248  10.088  11.620
57815SOL    HW275285   1.193  10.010  11.737
57816SOL     OW75286  10.860   9.264  14.604
57816SOL    HW175287  10.949   9.237  14.582
57816SOL    HW275288  10.860   9.359  14.591
57817SOL     OW75289   4.928   2.368   4.493
57817SOL    HW175290   4.986   2.333   4.561
57817SOL    HW275291   4.960   2.456   4.477
57818SOL     OW75292   5.448  11.698  13.853
57818SOL    HW175293   5.486  11.627  13.906
57818SOL    HW275294   5.505  11.773  13.869
57819SOL     OW75295   8.669   0.700  14.807
57819SOL    HW175296   8.753   0.684  14.764
57819SOL    HW275297   8.604   0.665  14.746
57820SOL     OW75298  11.422   4.652   3.267
57820SOL    HW175299  11.471   4.571   3.257
57820SOL    HW275300  11.333   4.629   3.241
57821SOL     OW75301  12.758   5.983   5.403
57821SOL    HW175302  12.840   5.997   5.357
57821SOL    HW275303  12.784   5.962   5.493
57822SOL     OW75304   1.514   3.195   7.251
57822SOL    HW175305   1.472   3.198   7.165
57822SOL    HW275306   1.528   3.102   7.267
57823SOL     OW75307   1.592   7.923  14.115
57823SOL    HW175308   1.533   7.964  14.051
57823SOL    HW275309   1.534   7.869  14.169
57824SOL     OW75310   3.343   7.741   3.409
57824SOL    HW175311   3.358   7.810   3.343
57824SOL    HW275312   3.372   7.661   3.367
57825SOL     OW75313   2.581   9.346   4.555
57825SOL    HW175314   2.510   9.317   4.612
57825SOL    HW275315   2.643   9.389   4.615
57826SOL     OW75316  14.556  10.736   5.870
57826SOL    HW175317  14.584  10.827   5.862
57826SOL    HW275318  14.540  10.723   5.963
57827SOL     OW75319   5.429   1.613   7.690
57827SOL    HW175320   5.379   1.649   7.763
57827SOL    HW275321   5.465   1.531   7.723
57828SOL     OW75322   6.537  10.759   7.259
57828SOL    HW175323   6.600  10.811   7.209
57828SOL    HW275324   6.589  10.689   7.298
57829SOL     OW75325  12.430   8.501  10.240
57829SOL    HW175326  12.486   8.473  10.168
57829SOL    HW275327  12.491   8.538  10.304
57830SOL     OW75328  13.510   7.282   5.670
57830SOL    HW175329  13.471   7.195   5.678
57830SOL    HW275330  13.597   7.266   5.635
57831SOL     OW75331   6.329   1.630   3.530
57831SOL    HW175332   6.425   1.626   3.527
57831SOL    HW275333   6.302   1.538   3.532
57832SOL     OW75334   8.919   1.136   6.401
57832SOL    HW175335   8.874   1.172   6.477
57832SOL    HW275336   8.923   1.209   6.339
57833SOL     OW75337   4.301   4.876   2.004
57833SOL    HW175338   4.388   4.861   1.968
57833SOL    HW275339   4.250   4.912   1.931
57834SOL     OW75340  11.576  11.862   0.851
57834SOL    HW175341  11.505  11.923   0.869
57834SOL    HW275342  11.647  11.891   0.910
57835SOL     OW75343   1.417  10.716   1.596
57835SOL    HW175344   1.348  10.650   1.587
57835SOL    HW275345   1.431  10.724   1.690
57836SOL     OW75346  10.550   4.781  11.353
57836SOL    HW175347  10.630   4.798  11.303
57836SOL    HW275348  10.484   4.836  11.311
57837SOL     OW75349  13.545   7.677  11.148
57837SOL    HW175350  13.496   7.667  11.229
57837SOL    HW275351  13.484   7.720  11.088
57838SOL     OW75352  11.164   7.327   2.232
57838SOL    HW175353  11.127   7.395   2.288
57838SOL    HW275354  11.093   7.302   2.172
57839SOL     OW75355   2.182   8.123   0.704
57839SOL    HW175356   2.248   8.165   0.648
57839SOL    HW275357   2.164   8.187   0.773
57840SOL     OW75358   3.278   2.905  13.552
57840SOL    HW175359   3.228   2.985  13.533
57840SOL    HW275360   3.345   2.902  13.484
57841SOL     OW75361   1.020  11.269  14.325
57841SOL    HW175362   0.929  11.298  14.321
57841SOL    HW275363   1.067  11.329  14.266
57842SOL     OW75364   7.300   4.776   1.667
57842SOL    HW175365   7.351   4.695   1.674
57842SOL    HW275366   7.341   4.836   1.729
57843SOL     OW75367  11.098  13.397   7.202
57843SOL    HW175368  11.115  13.482   7.244
57843SOL    HW275369  11.004  13.384   7.212
57844SOL     OW75370   8.222   3.887  10.531
57844SOL    HW175371   8.209   3.866  10.438
57844SOL    HW275372   8.155   3.952  10.550
57845SOL     OW75373   5.265  14.837   8.751
57845SOL    HW175374   5.192  14.775   8.746
57845SOL    HW275375   5.229   0.029   8.801
57846SOL     OW75376   8.968   5.332  11.352
57846SOL    HW175377   8.930   5.417  11.329
57846SOL    HW275378   8.896   5.283  11.391
57847SOL     OW75379   1.978   3.090   2.949
57847SOL    HW175380   1.892   3.095   2.991
57847SOL    HW275381   1.964   3.033   2.873
57848SOL     OW75382   1.716   5.946   5.456
57848SOL    HW175383   1.750   5.941   5.545
57848SOL    HW275384   1.743   5.864   5.415
57849SOL     OW75385  10.696   8.851  12.208
57849SOL    HW175386  10.714   8.757  12.206
57849SOL    HW275387  10.611   8.859  12.250
57850SOL     OW75388   8.254   6.816   0.576
57850SOL    HW175389   8.166   6.834   0.542
57850SOL    HW275390   8.311   6.871   0.523
57851SOL     OW75391   1.968   2.752   3.366
57851SOL    HW175392   1.891   2.771   3.313
57851SOL    HW275393   2.029   2.710   3.306
57852SOL     OW75394   9.894   1.353   7.482
57852SOL    HW175395   9.919   1.417   7.548
57852SOL    HW275396   9.835   1.293   7.528
57853SOL     OW75397   4.009   1.231   2.625
57853SOL    HW175398   3.975   1.224   2.714
57853SOL    HW275399   4.057   1.314   2.624
57854SOL     OW75400   2.234   9.799   3.085
57854SOL    HW175401   2.293   9.838   3.021
57854SOL    HW275402   2.152   9.786   3.038
57855SOL     OW75403   0.589  14.503  10.340
57855SOL    HW175404   0.537  14.444  10.396
57855SOL    HW275405   0.540  14.509  10.259
57856SOL     OW75406   5.282  13.059   7.307
57856SOL    HW175407   5.301  13.003   7.381
57856SOL    HW275408   5.232  13.003   7.247
57857SOL     OW75409  10.294   9.710  12.301
57857SOL    HW175410  10.233   9.646  12.338
57857SOL    HW275411  10.341   9.661  12.234
57858SOL     OW75412   9.957   5.519   9.719
57858SOL    HW175413  10.002   5.444   9.758
57858SOL    HW275414  10.027   5.573   9.683
57859SOL     OW75415  12.443   0.420   8.044
57859SOL    HW175416  12.372   0.356   8.039
57859SOL    HW275417  12.520   0.372   8.012
57860SOL     OW75418   2.854   4.913  14.268
57860SOL    HW175419   2.810   4.961  14.339
57860SOL    HW275420   2.928   4.871  14.311
57861SOL     OW75421   8.381  14.119   8.261
57861SOL    HW175422   8.344  14.074   8.185
57861SOL    HW275423   8.317  14.188   8.281
57862SOL     OW75424  13.292  13.820  12.890
57862SOL    HW175425  13.236  13.745  12.868
57862SOL    HW275426  13.324  13.851  12.805
57863SOL     OW75427  11.011   8.060   9.932
57863SOL    HW175428  10.967   7.978   9.910
57863SOL    HW275429  11.081   8.068   9.866
57864SOL     OW75430  14.638   7.507  10.299
57864SOL    HW175431  14.671   7.516  10.388
57864SOL    HW275432  14.711   7.471  10.249
57865SOL     OW75433   5.824   7.955   0.979
57865SOL    HW175434   5.772   7.923   0.905
57865SOL    HW275435   5.832   7.880   1.037
57866SOL     OW75436  14.365   3.531  12.701
57866SOL    HW175437  14.284   3.480  12.707
57866SOL    HW275438  14.413   3.492  12.628
57867SOL     OW75439   7.552   0.102   7.045
57867SOL    HW175440   7.618   0.056   7.096
57867SOL    HW275441   7.509   0.159   7.108
57868SOL     OW75442   8.154   6.065  11.336
57868SOL    HW175443   8.124   6.153  11.357
57868SOL    HW275444   8.172   6.068  11.241
57869SOL     OW75445   4.709   3.809  11.041
57869SOL    HW175446   4.803   3.800  11.050
57869SOL    HW275447   4.683   3.873  11.107
57870SOL     OW75448  11.495   3.433   6.780
57870SOL    HW175449  11.421   3.473   6.735
57870SOL    HW275450  11.466   3.345   6.803
57871SOL     OW75451  14.517  12.351   7.789
57871SOL    HW175452  14.458  12.422   7.816
57871SOL    HW275453  14.604  12.391   7.793
57872SOL     OW75454   7.460   3.094  14.195
57872SOL    HW175455   7.530   3.139  14.147
57872SOL    HW275456   7.504   3.054  14.270
57873SOL     OW75457   2.805   5.969   1.758
57873SOL    HW175458   2.742   5.899   1.777
57873SOL    HW275459   2.759   6.025   1.695
57874SOL     OW75460   1.847   9.927   0.611
57874SOL    HW175461   1.863   9.844   0.565
57874SOL    HW275462   1.932   9.969   0.615
57875SOL     OW75463  10.424  12.405   2.135
57875SOL    HW175464  10.347  12.393   2.080
57875SOL    HW275465  10.477  12.469   2.087
57876SOL     OW75466   2.826   9.435   8.742
57876SOL    HW175467   2.830   9.366   8.675
57876SOL    HW275468   2.879   9.506   8.706
57877SOL     OW75469  10.383   3.458   0.193
57877SOL    HW175470  10.369   3.376   0.144
57877SOL    HW275471  10.394   3.524   0.125
57878SOL     OW75472  12.986   5.403   8.782
57878SOL    HW175473  12.981   5.356   8.699
57878SOL    HW275474  13.026   5.341   8.842
57879SOL     OW75475   3.569  11.700   0.247
57879SOL    HW175476   3.503  11.664   0.306
57879SOL    HW275477   3.536  11.788   0.225
57880SOL     OW75478  10.333  10.639  11.552
57880SOL    HW175479  10.295  10.694  11.483
57880SOL    HW275480  10.427  10.641  11.534
57881SOL     OW75481   7.682  13.056   5.909
57881SOL    HW175482   7.593  13.090   5.899
57881SOL    HW275483   7.710  13.086   5.995
57882SOL     OW75484   0.319   2.354   9.994
57882SOL    HW175485   0.258   2.329   9.925
57882SOL    HW275486   0.344   2.271  10.035
57883SOL     OW75487   5.979   5.990  10.303
57883SOL    HW175488   5.935   5.914  10.342
57883SOL    HW275489   5.934   6.066  10.340
57884SOL     OW75490   9.512   4.835  11.177
57884SOL    HW175491   9.518   4.808  11.086
57884SOL    HW275492   9.422   4.816  11.202
57885SOL     OW75493  10.233   3.234   8.819
57885SOL    HW175494  10.175   3.261   8.748
57885SOL    HW275495  10.196   3.152   8.851
57886SOL     OW75496   5.656  11.947  10.418
57886SOL    HW175497   5.647  12.012  10.349
57886SOL    HW275498   5.708  11.877  10.378
57887SOL     OW75499   4.261   9.372   5.601
57887SOL    HW175500   4.349   9.350   5.570
57887SOL    HW275501   4.257   9.338   5.690
57888SOL     OW75502   2.709  10.236   8.850
57888SOL    HW175503   2.780  10.296   8.825
57888SOL    HW275504   2.694  10.183   8.772
57889SOL     OW75505  14.630   5.709   1.348
57889SOL    HW175506  14.655   5.801   1.340
57889SOL    HW275507  14.644   5.688   1.441
57890SOL     OW75508  12.229   3.274  11.055
57890SOL    HW175509  12.272   3.188  11.056
57890SOL    HW275510  12.300   3.337  11.070
57891SOL     OW75511   0.951   2.990   5.589
57891SOL    HW175512   0.972   2.977   5.682
57891SOL    HW275513   0.865   3.033   5.590
57892SOL     OW75514   4.965   8.526   6.721
57892SOL    HW175515   4.896   8.527   6.654
57892SOL    HW275516   4.994   8.435   6.725
57893SOL     OW75517   7.256  10.290  10.568
57893SOL    HW175518   7.202  10.368  10.585
57893SOL    HW275519   7.203  10.217  10.601
57894SOL     OW75520   3.541  12.042   7.443
57894SOL    HW175521   3.627  12.054   7.404
57894SOL    HW275522   3.513  12.130   7.470
57895SOL     OW75523   3.790   6.474   1.584
57895SOL    HW175524   3.828   6.386   1.580
57895SOL    HW275525   3.698   6.460   1.606
57896SOL     OW75526   9.458   8.572   3.635
57896SOL    HW175527   9.548   8.599   3.650
57896SOL    HW275528   9.428   8.542   3.721
57897SOL     OW75529   0.507   0.045  11.671
57897SOL    HW175530   0.477   0.127  11.711
57897SOL    HW275531   0.448  14.860  11.706
57898SOL     OW75532   8.257   5.305   7.048
57898SOL    HW175533   8.351   5.299   7.069
57898SOL    HW275534   8.213   5.264   7.123
57899SOL     OW75535   0.995  14.493   9.072
57899SOL    HW175536   0.971  14.561   9.135
57899SOL    HW275537   0.999  14.538   8.988
57900SOL     OW75538  10.634  14.823   1.500
57900SOL    HW175539  10.553  14.873   1.504
57900SOL    HW275540  10.700   0.004   1.469
57901SOL     OW75541   4.822  12.095   7.593
57901SOL    HW175542   4.894  12.082   7.655
57901SOL    HW275543   4.748  12.049   7.632
57902SOL     OW75544  11.864   2.465   3.546
57902SOL    HW175545  11.830   2.522   3.616
57902SOL    HW275546  11.871   2.379   3.588
57903SOL     OW75547  12.537   2.057   2.481
57903SOL    HW175548  12.565   1.985   2.424
57903SOL    HW275549  12.442   2.045   2.490
57904SOL     OW75550  14.539   2.004   9.003
57904SOL    HW175551  14.498   1.978   8.921
57904SOL    HW275552  14.628   2.029   8.979
57905SOL     OW75553   8.062   9.110   9.972
57905SOL    HW175554   8.074   9.091   9.879
57905SOL    HW275555   7.969   9.134   9.980
57906SOL     OW75556  10.828  14.510   9.898
57906SOL    HW175557  10.826  14.499   9.994
57906SOL    HW275558  10.915  14.480   9.872
57907SOL     OW75559  10.951  12.862   7.072
57907SOL    HW175560  10.922  12.776   7.042
57907SOL    HW275561  10.891  12.924   7.028
57908SOL     OW75562   2.198  13.888   6.082
57908SOL    HW175563   2.125  13.881   6.020
57908SOL    HW275564   2.269  13.839   6.042
57909SOL     OW75565   1.992   4.011  11.759
57909SOL    HW175566   1.938   4.089  11.764
57909SOL    HW275567   1.972   3.973  11.673
57910SOL     OW75568  10.805   4.934   2.996
57910SOL    HW175569  10.793   4.951   3.089
57910SOL    HW275570  10.828   5.019   2.959
57911SOL     OW75571  12.163   1.444  13.338
57911SOL    HW175572  12.186   1.516  13.280
57911SOL    HW275573  12.159   1.367  13.280
57912SOL     OW75574   4.203   0.339   3.996
57912SOL    HW175575   4.174   0.265   4.050
57912SOL    HW275576   4.173   0.416   4.043
57913SOL     OW75577  12.428   9.714   3.950
57913SOL    HW175578  12.469   9.725   4.036
57913SOL    HW275579  12.343   9.758   3.958
57914SOL     OW75580   6.236  13.442   4.174
57914SOL    HW175581   6.299  13.457   4.103
57914SOL    HW275582   6.156  13.415   4.129
57915SOL     OW75583   1.543  12.688  10.045
57915SOL    HW175584   1.547  12.685   9.949
57915SOL    HW275585   1.469  12.631  10.068
57916SOL     OW75586  13.536  14.356   7.199
57916SOL    HW175587  13.446  14.377   7.226
57916SOL    HW275588  13.525  14.313   7.114
57917SOL     OW75589   0.684   6.447   0.549
57917SOL    HW175590   0.599   6.486   0.568
57917SOL    HW275591   0.718   6.420   0.634
57918SOL     OW75592   8.848   9.468   9.435
57918SOL    HW175593   8.875   9.560   9.439
57918SOL    HW275594   8.930   9.419   9.442
57919SOL     OW75595   8.940   9.466   6.258
57919SOL    HW175596   8.848   9.448   6.240
57919SOL    HW275597   8.976   9.496   6.174
57920SOL     OW75598   6.772   0.525   8.751
57920SOL    HW175599   6.868   0.526   8.752
57920SOL    HW275600   6.747   0.589   8.818
57921SOL     OW75601   6.061   7.713   1.415
57921SOL    HW175602   6.057   7.670   1.500
57921SOL    HW275603   6.113   7.653   1.360
57922SOL     OW75604   1.740   3.480  11.032
57922SOL    HW175605   1.792   3.426  11.092
57922SOL    HW275606   1.676   3.523  11.088
57923SOL     OW75607  11.369   9.162  11.066
57923SOL    HW175608  11.297   9.187  11.008
57923SOL    HW275609  11.342   9.192  11.153
57924SOL     OW75610   0.913   2.443  10.326
57924SOL    HW175611   1.004   2.415  10.333
57924SOL    HW275612   0.879   2.438  10.416
57925SOL     OW75613  12.467   2.378   4.996
57925SOL    HW175614  12.494   2.354   4.908
57925SOL    HW275615  12.419   2.460   4.985
57926SOL     OW75616  11.494  14.442   9.000
57926SOL    HW175617  11.556  14.406   9.064
57926SOL    HW275618  11.466  14.525   9.037
57927SOL     OW75619   6.897   9.119   3.577
57927SOL    HW175620   6.897   9.091   3.485
57927SOL    HW275621   6.930   9.044   3.625
57928SOL     OW75622  13.237   0.734   2.154
57928SOL    HW175623  13.268   0.675   2.222
57928SOL    HW275624  13.316   0.780   2.124
57929SOL     OW75625   2.963   8.681  11.680
57929SOL    HW175626   2.974   8.728  11.763
57929SOL    HW275627   2.876   8.643  11.686
57930SOL     OW75628   0.602   1.525   1.830
57930SOL    HW175629   0.591   1.618   1.810
57930SOL    HW275630   0.696   1.510   1.824
57931SOL     OW75631  14.344   1.292  10.922
57931SOL    HW175632  14.345   1.238  11.000
57931SOL    HW275633  14.415   1.355  10.935
57932SOL     OW75634  13.338   9.485  13.053
57932SOL    HW175635  13.412   9.521  13.102
57932SOL    HW275636  13.262   9.535  13.084
57933SOL     OW75637   9.487   0.487   6.863
57933SOL    HW175638   9.553   0.478   6.795
57933SOL    HW275639   9.530   0.455   6.942
57934SOL     OW75640   6.131  13.629   3.818
57934SOL    HW175641   6.115  13.576   3.739
57934SOL    HW275642   6.186  13.702   3.788
57935SOL     OW75643  11.250   4.378   6.757
57935SOL    HW175644  11.332   4.330   6.769
57935SOL    HW275645  11.272   4.448   6.696
57936SOL     OW75646   8.590   7.489   7.879
57936SOL    HW175647   8.503   7.488   7.919
57936SOL    HW275648   8.636   7.417   7.920
57937SOL     OW75649   7.314   3.301  14.324
57937SOL    HW175650   7.361   3.237  14.270
57937SOL    HW275651   7.301   3.257  14.408
57938SOL     OW75652   5.037   8.396   8.410
57938SOL    HW175653   4.990   8.317   8.384
57938SOL    HW275654   5.089   8.420   8.333
57939SOL     OW75655  12.671  12.024   5.812
57939SOL    HW175656  12.701  12.109   5.844
57939SOL    HW275657  12.576  12.032   5.806
57940SOL     OW75658  11.786   4.020  12.324
57940SOL    HW175659  11.712   3.973  12.362
57940SOL    HW275660  11.814   4.082  12.391
57941SOL     OW75661   0.646   7.018  14.388
57941SOL    HW175662   0.592   6.943  14.366
57941SOL    HW275663   0.734   6.995  14.358
57942SOL     OW75664   8.110   1.319  11.632
57942SOL    HW175665   8.038   1.263  11.661
57942SOL    HW275666   8.102   1.320  11.536
57943SOL     OW75667   4.698  12.426   8.220
57943SOL    HW175668   4.760  12.354   8.218
57943SOL    HW275669   4.744  12.497   8.266
57944SOL     OW75670   4.053   6.137  11.360
57944SOL    HW175671   4.008   6.176  11.285
57944SOL    HW275672   4.006   6.172  11.436
57945SOL     OW75673  13.367  13.560  14.492
57945SOL    HW175674  13.450  13.514  14.484
57945SOL    HW275675  13.301  13.494  14.470
57946SOL     OW75676  10.797   3.880  10.557
57946SOL    HW175677  10.875   3.934  10.559
57946SOL    HW275678  10.733   3.932  10.509
57947SOL     OW75679   6.432   2.185   1.980
57947SOL    HW175680   6.429   2.213   2.071
57947SOL    HW275681   6.484   2.252   1.935
57948SOL     OW75682  10.416  13.970   7.201
57948SOL    HW175683  10.400  14.005   7.288
57948SOL    HW275684  10.480  14.030   7.162
57949SOL     OW75685  11.114   0.537   5.416
57949SOL    HW175686  11.080   0.562   5.502
57949SOL    HW275687  11.079   0.603   5.356
57950SOL     OW75688   2.890   7.702   1.596
57950SOL    HW175689   2.872   7.666   1.509
57950SOL    HW275690   2.836   7.781   1.600
57951SOL     OW75691  14.869  14.447  13.528
57951SOL    HW175692  14.799  14.385  13.547
57951SOL    HW275693   0.048  14.399  13.473
57952SOL     OW75694   1.419  13.231   2.982
57952SOL    HW175695   1.405  13.224   3.077
57952SOL    HW275696   1.514  13.242   2.973
57953SOL     OW75697   8.552   4.189  13.427
57953SOL    HW175698   8.556   4.190  13.523
57953SOL    HW275699   8.478   4.132  13.407
57954SOL     OW75700   4.735  11.623   5.974
57954SOL    HW175701   4.698  11.548   5.928
57954SOL    HW275702   4.813  11.646   5.924
57955SOL     OW75703   7.294   3.579   7.758
57955SOL    HW175704   7.278   3.493   7.721
57955SOL    HW275705   7.378   3.570   7.803
57956SOL     OW75706  11.482   3.436   4.429
57956SOL    HW175707  11.465   3.530   4.444
57956SOL    HW275708  11.534   3.434   4.349
57957SOL     OW75709   5.545  11.663   8.610
57957SOL    HW175710   5.553  11.756   8.633
57957SOL    HW275711   5.504  11.623   8.687
57958SOL     OW75712  13.886  12.335  12.625
57958SOL    HW175713  13.951  12.286  12.575
57958SOL    HW275714  13.825  12.269  12.657
57959SOL     OW75715   9.098  12.773  11.489
57959SOL    HW175716   9.076  12.865  11.474
57959SOL    HW275717   9.062  12.727  11.413
57960SOL     OW75718   2.394   1.449   4.691
57960SOL    HW175719   2.353   1.459   4.776
57960SOL    HW275720   2.345   1.379   4.648
57961SOL     OW75721   6.470  12.173  13.344
57961SOL    HW175722   6.476  12.117  13.422
57961SOL    HW275723   6.407  12.128  13.288
57962SOL     OW75724   8.227   2.627  14.758
57962SOL    HW175725   8.312   2.609  14.800
57962SOL    HW275726   8.170   2.653  14.830
57963SOL     OW75727   8.104  10.837   8.095
57963SOL    HW175728   8.195  10.828   8.124
57963SOL    HW275729   8.053  10.847   8.175
57964SOL     OW75730  14.411  10.040   5.664
57964SOL    HW175731  14.380   9.956   5.696
57964SOL    HW275732  14.473  10.018   5.595
57965SOL     OW75733   3.029   9.284  12.799
57965SOL    HW175734   3.069   9.308  12.882
57965SOL    HW275735   3.099   9.291  12.735
57966SOL     OW75736  12.673  11.868  10.248
57966SOL    HW175737  12.739  11.866  10.318
57966SOL    HW275738  12.698  11.943  10.195
57967SOL     OW75739   7.273   6.294   2.029
57967SOL    HW175740   7.291   6.377   2.073
57967SOL    HW275741   7.359   6.260   2.004
57968SOL     OW75742  10.069  10.557  10.979
57968SOL    HW175743  10.035  10.539  11.067
57968SOL    HW275744  10.007  10.513  10.920
57969SOL     OW75745   4.480   4.164   0.623
57969SOL    HW175746   4.421   4.238   0.610
57969SOL    HW275747   4.486   4.155   0.718
57970SOL     OW75748   3.279   6.799   2.616
57970SOL    HW175749   3.235   6.802   2.531
57970SOL    HW275750   3.236   6.727   2.663
57971SOL     OW75751  12.339   1.084   5.877
57971SOL    HW175752  12.344   0.993   5.904
57971SOL    HW275753  12.303   1.081   5.788
57972SOL     OW75754   8.495  13.961  13.146
57972SOL    HW175755   8.402  13.976  13.128
57972SOL    HW275756   8.521  14.034  13.201
57973SOL     OW75757  11.023   0.857   9.295
57973SOL    HW175758  10.933   0.841   9.323
57973SOL    HW275759  11.022   0.948   9.264
57974SOL     OW75760   5.622  12.684   8.781
57974SOL    HW175761   5.627  12.749   8.852
57974SOL    HW275762   5.553  12.624   8.810
57975SOL     OW75763  14.755   9.853  12.877
57975SOL    HW175764  14.791   9.766  12.891
57975SOL    HW275765  14.775   9.900  12.958
57976SOL     OW75766   3.144   1.734  13.946
57976SOL    HW175767   3.105   1.714  13.861
57976SOL    HW275768   3.164   1.649  13.984
57977SOL     OW75769   5.516   9.175   6.849
57977SOL    HW175770   5.439   9.190   6.903
57977SOL    HW275771   5.481   9.157   6.762
57978SOL     OW75772   0.220  13.344   2.831
57978SOL    HW175773   0.238  13.328   2.738
57978SOL    HW275774   0.190  13.435   2.834
57979SOL     OW75775   7.850   4.277   8.504
57979SOL    HW175776   7.890   4.193   8.481
57979SOL    HW275777   7.921   4.328   8.543
57980SOL     OW75778   5.147   3.091   6.434
57980SOL    HW175779   5.216   3.032   6.465
57980SOL    HW275780   5.066   3.045   6.455
57981SOL     OW75781   0.795   7.198  11.948
57981SOL    HW175782   0.789   7.105  11.927
57981SOL    HW275783   0.829   7.238  11.868
57982SOL     OW75784   6.538   6.237   1.023
57982SOL    HW175785   6.443   6.227   1.014
57982SOL    HW275786   6.570   6.239   0.933
57983SOL     OW75787   7.472   0.577  14.866
57983SOL    HW175788   7.420   0.649   0.018
57983SOL    HW275789   7.440   0.564  14.777
57984SOL     OW75790   9.180   1.704   7.010
57984SOL    HW175791   9.158   1.797   7.013
57984SOL    HW275792   9.258   1.695   7.064
57985SOL     OW75793   0.696   3.752   9.779
57985SOL    HW175794   0.764   3.729   9.716
57985SOL    HW275795   0.654   3.830   9.741
57986SOL     OW75796   4.944   9.544  14.006
57986SOL    HW175797   4.985   9.628  13.983
57986SOL    HW275798   4.984   9.520  14.089
57987SOL     OW75799   5.776   0.699  13.573
57987SOL    HW175800   5.724   0.651  13.509
57987SOL    HW275801   5.835   0.634  13.611
57988SOL     OW75802   3.891   2.068  13.770
57988SOL    HW175803   3.860   2.158  13.781
57988SOL    HW275804   3.955   2.072  13.699
57989SOL     OW75805  11.454   3.755   8.174
57989SOL    HW175806  11.377   3.731   8.122
57989SOL    HW275807  11.445   3.849   8.188
57990SOL     OW75808   9.766   7.949  14.573
57990SOL    HW175809   9.731   7.999  14.646
57990SOL    HW275810   9.762   8.009  14.498
57991SOL     OW75811   3.185  14.452  11.711
57991SOL    HW175812   3.210  14.541  11.686
57991SOL    HW275813   3.091  14.457  11.728
57992SOL     OW75814  11.913  13.485   6.635
57992SOL    HW175815  11.859  13.538   6.693
57992SOL    HW275816  11.865  13.403   6.627
57993SOL     OW75817  10.623   8.583  14.785
57993SOL    HW175818  10.677   8.558  14.709
57993SOL    HW275819  10.682   8.635  14.840
57994SOL     OW75820   1.891  14.023  12.377
57994SOL    HW175821   1.894  13.988  12.467
57994SOL    HW275822   1.798  14.040  12.362
57995SOL     OW75823   2.053   5.027  13.995
57995SOL    HW175824   2.043   5.106  14.048
57995SOL    HW275825   2.142   5.031  13.961
57996SOL     OW75826  14.709   3.887   8.238
57996SOL    HW175827  14.692   3.853   8.150
57996SOL    HW275828  14.629   3.935   8.261
57997SOL     OW75829   9.847   4.524  14.469
57997SOL    HW175830   9.771   4.540  14.412
57997SOL    HW275831   9.840   4.589  14.538
57998SOL     OW75832   4.851   4.696  11.498
57998SOL    HW175833   4.827   4.782  11.532
57998SOL    HW275834   4.770   4.645  11.504
57999SOL     OW75835   4.589   5.957   8.842
57999SOL    HW175836   4.545   5.931   8.762
57999SOL    HW275837   4.570   5.887   8.904
58000SOL     OW75838   0.744   6.231   2.115
58000SOL    HW175839   0.816   6.185   2.159
58000SOL    HW275840   0.665   6.185   2.146
58001SOL     OW75841   5.092   3.414   7.431
58001SOL    HW175842   5.160   3.479   7.421
58001SOL    HW275843   5.129   3.348   7.490
58002SOL     OW75844  12.656   1.957   9.202
58002SOL    HW175845  12.711   1.878   9.204
58002SOL    HW275846  12.613   1.958   9.287
58003SOL     OW75847   3.814   0.691   7.644
58003SOL    HW175848   3.757   0.763   7.615
58003SOL    HW275849   3.854   0.658   7.564
58004SOL     OW75850  14.842   4.959   8.036
58004SOL    HW175851   0.023   5.030   8.028
58004SOL    HW275852  14.873   4.892   7.975
58005SOL     OW75853   9.608   4.442   4.009
58005SOL    HW175854   9.522   4.403   3.995
58005SOL    HW275855   9.628   4.487   3.927
58006SOL     OW75856  14.657   0.778   4.342
58006SOL    HW175857  14.567   0.798   4.368
58006SOL    HW275858  14.687   0.855   4.294
58007SOL     OW75859  11.903   7.106   7.830
58007SOL    HW175860  11.995   7.108   7.804
58007SOL    HW275861  11.877   7.015   7.814
58008SOL     OW75862   2.592   1.659   3.578
58008SOL    HW175863   2.496   1.661   3.580
58008SOL    HW275864   2.619   1.653   3.669
58009SOL     OW75865  13.954  11.045   7.879
58009SOL    HW175866  13.908  11.101   7.816
58009SOL    HW275867  13.895  10.971   7.893
58010SOL     OW75868  14.627   1.431   4.701
58010SOL    HW175869  14.662   1.347   4.673
58010SOL    HW275870  14.653   1.440   4.792
58011SOL     OW75871   5.917   0.803  13.955
58011SOL    HW175872   5.860   0.848  13.892
58011SOL    HW275873   5.887   0.712  13.954
58012SOL     OW75874  13.995   2.597   3.954
58012SOL    HW175875  13.972   2.622   4.044
58012SOL    HW275876  13.911   2.581   3.911
58013SOL     OW75877   7.063   1.613   6.351
58013SOL    HW175878   7.124   1.544   6.377
58013SOL    HW275879   6.997   1.568   6.298
58014SOL     OW75880   8.445   0.083  12.309
58014SOL    HW175881   8.479   0.009  12.258
58014SOL    HW275882   8.409   0.043  12.388
58015SOL     OW75883   0.403  14.830   6.852
58015SOL    HW175884   0.370  14.849   6.940
58015SOL    HW275885   0.498  14.826   6.862
58016SOL     OW75886  10.313   7.363   5.813
58016SOL    HW175887  10.371   7.301   5.770
58016SOL    HW275888  10.351   7.449   5.793
58017SOL     OW75889   1.310  13.368  13.293
58017SOL    HW175890   1.368  13.394  13.222
58017SOL    HW275891   1.246  13.309  13.253
58018SOL     OW75892  14.817   2.372  11.993
58018SOL    HW175893  14.739   2.373  11.936
58018SOL    HW275894  14.825   2.462  12.024
58019SOL     OW75895   7.295   8.674   6.509
58019SOL    HW175896   7.324   8.668   6.418
58019SOL    HW275897   7.361   8.624   6.558
58020SOL     OW75898  10.537   2.905  11.333
58020SOL    HW175899  10.508   2.989  11.369
58020SOL    HW275900  10.626   2.894  11.365
58021SOL     OW75901   9.477   3.905   5.013
58021SOL    HW175902   9.409   3.854   5.056
58021SOL    HW275903   9.430   3.961   4.952
58022SOL     OW75904  12.633   6.307   8.800
58022SOL    HW175905  12.549   6.318   8.844
58022SOL    HW275906  12.639   6.381   8.739
58023SOL     OW75907  11.748  12.336   5.970
58023SOL    HW175908  11.797  12.360   6.048
58023SOL    HW275909  11.708  12.252   5.992
58024SOL     OW75910   0.873  11.211  14.086
58024SOL    HW175911   0.883  11.304  14.109
58024SOL    HW275912   0.825  11.212  14.003
58025SOL     OW75913   0.400  11.301   3.448
58025SOL    HW175914   0.372  11.252   3.370
58025SOL    HW275915   0.341  11.377   3.450
58026SOL     OW75916   9.145   3.218   5.840
58026SOL    HW175917   9.156   3.149   5.775
58026SOL    HW275918   9.053   3.243   5.834
58027SOL     OW75919   7.438  11.604   5.376
58027SOL    HW175920   7.483  11.602   5.461
58027SOL    HW275921   7.393  11.519   5.372
58028SOL     OW75922   2.510   5.978   8.568
58028SOL    HW175923   2.595   5.965   8.526
58028SOL    HW275924   2.531   6.005   8.657
58029SOL     OW75925   9.710   7.319   4.491
58029SOL    HW175926   9.643   7.368   4.540
58029SOL    HW275927   9.670   7.234   4.476
58030SOL     OW75928   8.374   5.661  11.764
58030SOL    HW175929   8.401   5.656  11.673
58030SOL    HW275930   8.291   5.710  11.763
58031SOL     OW75931  13.972   6.177  12.109
58031SOL    HW175932  14.013   6.223  12.036
58031SOL    HW275933  14.044   6.158  12.169
58032SOL     OW75934   1.807  13.098   1.417
58032SOL    HW175935   1.772  13.187   1.413
58032SOL    HW275936   1.737  13.043   1.381
58033SOL     OW75937   6.483   4.542   8.587
58033SOL    HW175938   6.510   4.500   8.505
58033SOL    HW275939   6.413   4.485   8.620
58034SOL     OW75940   6.284   9.904  13.724
58034SOL    HW175941   6.274   9.835  13.659
58034SOL    HW275942   6.209   9.961  13.711
58035SOL     OW75943  10.966  10.217   6.268
58035SOL    HW175944  10.990  10.142   6.214
58035SOL    HW275945  10.987  10.293   6.214
58036SOL     OW75946  11.665   8.372  12.467
58036SOL    HW175947  11.591   8.426  12.494
58036SOL    HW275948  11.730   8.385  12.536
58037SOL     OW75949   6.270   5.223   9.470
58037SOL    HW175950   6.216   5.205   9.547
58037SOL    HW275951   6.235   5.166   9.402
58038SOL     OW75952   7.517   7.302   6.252
58038SOL    HW175953   7.590   7.261   6.205
58038SOL    HW275954   7.457   7.229   6.272
58039SOL     OW75955   8.288  13.252   2.251
58039SOL    HW175956   8.292  13.156   2.257
58039SOL    HW275957   8.331  13.273   2.168
58040SOL     OW75958  14.655   1.344   9.903
58040SOL    HW175959  14.627   1.273   9.962
58040SOL    HW275960  14.654   1.423   9.958
58041SOL     OW75961   8.849   1.984   6.495
58041SOL    HW175962   8.765   1.939   6.492
58041SOL    HW275963   8.839   2.058   6.435
58042SOL     OW75964   7.877   3.331   1.643
58042SOL    HW175965   7.885   3.256   1.702
58042SOL    HW275966   7.896   3.295   1.556
58043SOL     OW75967  14.101   5.827   5.383
58043SOL    HW175968  14.005   5.817   5.385
58043SOL    HW275969  14.127   5.781   5.303
58044SOL     OW75970   8.025  11.468   3.412
58044SOL    HW175971   8.089  11.537   3.431
58044SOL    HW275972   8.037  11.451   3.319
58045SOL     OW75973   7.316  13.350   2.945
58045SOL    HW175974   7.244  13.409   2.969
58045SOL    HW275975   7.282  13.301   2.870
58046SOL     OW75976   4.823  13.432   3.757
58046SOL    HW175977   4.894  13.477   3.710
58046SOL    HW275978   4.755  13.499   3.767
58047SOL     OW75979   8.661   6.246   3.073
58047SOL    HW175980   8.706   6.278   2.995
58047SOL    HW275981   8.664   6.318   3.135
58048SOL     OW75982   0.294  11.576   4.673
58048SOL    HW175983   0.263  11.583   4.763
58048SOL    HW275984   0.390  11.580   4.680
58049SOL     OW75985  14.863   7.569   6.778
58049SOL    HW175986  14.825   7.520   6.705
58049SOL    HW275987   0.020   7.646   6.738
58050SOL     OW75988  12.814   7.718   1.143
58050SOL    HW175989  12.896   7.670   1.155
58050SOL    HW275990  12.785   7.695   1.055
58051SOL     OW75991   7.907   4.541   9.842
58051SOL    HW175992   7.898   4.545   9.747
58051SOL    HW275993   7.880   4.627   9.873
58052SOL     OW75994  13.995  14.158   7.045
58052SOL    HW175995  14.033  14.078   7.009
58052SOL    HW275996  14.030  14.163   7.134
58053SOL     OW75997   9.301   5.919   1.764
58053SOL    HW175998   9.373   5.877   1.811
58053SOL    HW275999   9.251   5.846   1.727
58054SOL     OW76000  10.881   5.481  11.819
58054SOL    HW176001  10.882   5.412  11.884
58054SOL    HW276002  10.941   5.548  11.853
58055SOL     OW76003   4.827   8.277  14.022
58055SOL    HW176004   4.910   8.319  13.998
58055SOL    HW276005   4.814   8.210  13.955
58056SOL     OW76006   7.087   3.075   9.734
58056SOL    HW176007   7.175   3.040   9.738
58056SOL    HW276008   7.051   3.060   9.822
58057SOL     OW76009   7.089  13.647   4.154
58057SOL    HW176010   7.033  13.611   4.085
58057SOL    HW276011   7.057  13.605   4.234
58058SOL     OW76012  12.523  11.351   0.536
58058SOL    HW176013  12.495  11.418   0.473
58058SOL    HW276014  12.514  11.269   0.487
58059SOL     OW76015  11.979  12.366  10.662
58059SOL    HW176016  12.066  12.333  10.687
58059SOL    HW276017  11.994  12.411  10.579
58060SOL     OW76018  12.040  13.130   7.219
58060SOL    HW176019  12.132  13.145   7.241
58060SOL    HW276020  12.043  13.068   7.146
58061SOL     OW76021   7.508   2.367   7.990
58061SOL    HW176022   7.524   2.424   8.065
58061SOL    HW276023   7.545   2.283   8.016
58062SOL     OW76024   9.947  11.813   8.686
58062SOL    HW176025   9.965  11.719   8.693
58062SOL    HW276026  10.034  11.854   8.682
58063SOL     OW76027  12.428   4.871   4.599
58063SOL    HW176028  12.419   4.836   4.688
58063SOL    HW276029  12.473   4.954   4.610
58064SOL     OW76030   3.025   8.692   2.118
58064SOL    HW176031   3.003   8.600   2.134
58064SOL    HW276032   2.941   8.739   2.127
58065SOL     OW76033  13.766   0.909  13.739
58065SOL    HW176034  13.730   0.891  13.653
58065SOL    HW276035  13.839   0.848  13.748
58066SOL     OW76036   6.397  14.704  13.738
58066SOL    HW176037   6.446  14.643  13.684
58066SOL    HW276038   6.320  14.654  13.766
58067SOL     OW76039   3.494  10.027   2.032
58067SOL    HW176040   3.436  10.073   1.973
58067SOL    HW276041   3.489  10.076   2.114
58068SOL     OW76042   3.989   2.137   8.698
58068SOL    HW176043   4.008   2.050   8.732
58068SOL    HW276044   4.023   2.197   8.764
58069SOL     OW76045   7.027   3.476   7.240
58069SOL    HW176046   7.121   3.490   7.256
58069SOL    HW276047   6.986   3.557   7.271
58070SOL     OW76048   8.412   0.465  11.973
58070SOL    HW176049   8.343   0.529  11.956
58070SOL    HW276050   8.377   0.410  12.043
58071SOL     OW76051   6.254   6.204   3.985
58071SOL    HW176052   6.244   6.124   3.933
58071SOL    HW276053   6.340   6.238   3.960
58072SOL     OW76054   2.847  13.756   7.087
58072SOL    HW176055   2.821  13.666   7.073
58072SOL    HW276056   2.766  13.806   7.085
58073SOL     OW76057   0.072  10.943  10.218
58073SOL    HW176058   0.166  10.957  10.229
58073SOL    HW276059   0.038  11.027  10.187
58074SOL     OW76060  12.679   6.399   2.047
58074SOL    HW176061  12.623   6.460   2.096
58074SOL    HW276062  12.745   6.370   2.110
58075SOL     OW76063  10.182   1.905   8.009
58075SOL    HW176064  10.103   1.857   7.982
58075SOL    HW276065  10.196   1.969   7.939
58076SOL     OW76066   0.049  13.454   4.561
58076SOL    HW176067   0.021  13.363   4.576
58076SOL    HW276068   0.133  13.446   4.516
58077SOL     OW76069   2.920  10.125   7.845
58077SOL    HW176070   2.994  10.117   7.784
58077SOL    HW276071   2.943  10.068   7.919
58078SOL     OW76072   1.172   6.924   1.950
58078SOL    HW176073   1.205   7.011   1.928
58078SOL    HW276074   1.114   6.901   1.878
58079SOL     OW76075  10.148  14.401  14.069
58079SOL    HW176076  10.174  14.400  13.977
58079SOL    HW276077  10.113  14.489  14.083
58080SOL     OW76078   2.122   5.591  11.625
58080SOL    HW176079   2.067   5.655  11.579
58080SOL    HW276080   2.197   5.641  11.656
58081SOL     OW76081   8.825   5.131  14.610
58081SOL    HW176082   8.837   5.206  14.551
58081SOL    HW276083   8.908   5.123  14.656
58082SOL     OW76084   0.424   0.446   2.032
58082SOL    HW176085   0.408   0.352   2.028
58082SOL    HW276086   0.479   0.457   2.110
58083SOL     OW76087   1.408   1.291   1.564
58083SOL    HW176088   1.442   1.202   1.572
58083SOL    HW276089   1.314   1.280   1.547
58084SOL     OW76090   5.753   9.215   8.690
58084SOL    HW176091   5.734   9.308   8.676
58084SOL    HW276092   5.842   9.204   8.656
58085SOL     OW76093   4.793   7.594   0.082
58085SOL    HW176094   4.780   7.499   0.076
58085SOL    HW276095   4.833   7.607   0.168
58086SOL     OW76096   1.779   0.902   4.580
58086SOL    HW176097   1.800   0.831   4.641
58086SOL    HW276098   1.730   0.859   4.510
58087SOL     OW76099  14.273   1.877   7.466
58087SOL    HW176100  14.217   1.950   7.437
58087SOL    HW276101  14.225   1.798   7.440
58088SOL     OW76102   5.650   6.173   0.336
58088SOL    HW176103   5.734   6.212   0.362
58088SOL    HW276104   5.585   6.238   0.362
58089SOL     OW76105  12.025  14.687  13.815
58089SOL    HW176106  12.043  14.702  13.908
58089SOL    HW276107  12.044  14.771  13.773
58090SOL     OW76108   0.480  11.361  11.413
58090SOL    HW176109   0.554  11.364  11.474
58090SOL    HW276110   0.468  11.268  11.395
58091SOL     OW76111  12.484   6.335   6.614
58091SOL    HW176112  12.515   6.370   6.697
58091SOL    HW276113  12.551   6.361   6.550
58092SOL     OW76114   4.179   5.044  13.274
58092SOL    HW176115   4.211   5.106  13.208
58092SOL    HW276116   4.105   5.001  13.232
58093SOL     OW76117   4.994   9.089   2.147
58093SOL    HW176118   5.055   9.161   2.134
58093SOL    HW276119   5.047   9.019   2.185
58094SOL     OW76120   4.949  13.908   1.152
58094SOL    HW176121   4.864  13.897   1.194
58094SOL    HW276122   4.970  14.000   1.164
58095SOL     OW76123   5.601   9.020  11.877
58095SOL    HW176124   5.656   9.002  11.801
58095SOL    HW276125   5.575   8.934  11.909
58096SOL     OW76126  12.860   4.852   4.739
58096SOL    HW176127  12.833   4.769   4.699
58096SOL    HW276128  12.831   4.919   4.677
58097SOL     OW76129   2.467  13.221  13.759
58097SOL    HW176130   2.531  13.292  13.768
58097SOL    HW276131   2.465  13.180  13.846
58098SOL     OW76132  12.315   5.829   0.964
58098SOL    HW176133  12.402   5.789   0.971
58098SOL    HW276134  12.257   5.768   1.010
58099SOL     OW76135   9.221   9.408   8.080
58099SOL    HW176136   9.305   9.364   8.071
58099SOL    HW276137   9.225   9.452   8.164
58100SOL     OW76138   7.607   0.976   2.186
58100SOL    HW176139   7.607   0.895   2.237
58100SOL    HW276140   7.545   1.032   2.231
58101SOL     OW76141  13.248   7.363   5.763
58101SOL    HW176142  13.329   7.326   5.728
58101SOL    HW276143  13.214   7.418   5.693
58102SOL     OW76144  12.189  12.207   3.130
58102SOL    HW176145  12.217  12.128   3.082
58102SOL    HW276146  12.137  12.257   3.067
58103SOL     OW76147  13.581   4.419   5.129
58103SOL    HW176148  13.571   4.514   5.134
58103SOL    HW276149  13.530   4.386   5.203
58104SOL     OW76150   7.814   5.623  11.545
58104SOL    HW176151   7.756   5.617  11.469
58104SOL    HW276152   7.803   5.713  11.576
58105SOL     OW76153   0.127   8.200  13.977
58105SOL    HW176154   0.060   8.261  14.011
58105SOL    HW276155   0.192   8.195  14.047
58106SOL     OW76156  12.733   6.584  12.052
58106SOL    HW176157  12.806   6.635  12.018
58106SOL    HW276158  12.769   6.539  12.129
58107SOL     OW76159   6.788   1.915   8.687
58107SOL    HW176160   6.849   1.882   8.621
58107SOL    HW276161   6.736   1.981   8.641
58108SOL     OW76162  13.233  11.017  14.790
58108SOL    HW176163  13.207  10.943  14.736
58108SOL    HW276164  13.328  11.007  14.799
58109SOL     OW76165   4.243   6.792   0.890
58109SOL    HW176166   4.279   6.850   0.823
58109SOL    HW276167   4.294   6.711   0.883
58110SOL     OW76168   8.108   6.696  11.922
58110SOL    HW176169   8.105   6.714  12.016
58110SOL    HW276170   8.023   6.725  11.889
58111SOL     OW76171   1.910  14.802  13.820
58111SOL    HW176172   1.902  14.712  13.789
58111SOL    HW276173   1.830  14.817  13.870
58112SOL     OW76174  11.213  10.182   7.746
58112SOL    HW176175  11.273  10.122   7.702
58112SOL    HW276176  11.261  10.213   7.822
58113SOL     OW76177  13.737  11.882   7.605
58113SOL    HW176178  13.807  11.943   7.629
58113SOL    HW276179  13.778  11.822   7.542
58114SOL     OW76180  14.442   6.483  10.367
58114SOL    HW176181  14.484   6.491  10.281
58114SOL    HW276182  14.382   6.410  10.358
58115SOL     OW76183  14.120   8.347  12.083
58115SOL    HW176184  14.172   8.360  12.003
58115SOL    HW276185  14.102   8.253  12.085
58116SOL     OW76186  11.568  14.123   2.376
58116SOL    HW176187  11.629  14.057   2.411
58116SOL    HW276188  11.481  14.085   2.390
58117SOL     OW76189  10.767  14.615  11.973
58117SOL    HW176190  10.743  14.522  11.976
58117SOL    HW276191  10.771  14.636  11.879
58118SOL     OW76192   7.528  14.054   5.664
58118SOL    HW176193   7.495  14.014   5.745
58118SOL    HW276194   7.610  14.096   5.690
58119SOL     OW76195   8.048   9.040   2.614
58119SOL    HW176196   8.135   9.073   2.590
58119SOL    HW276197   7.992   9.064   2.540
58120SOL     OW76198   4.350   5.202   2.588
58120SOL    HW176199   4.317   5.144   2.520
58120SOL    HW276200   4.365   5.286   2.543
58121SOL     OW76201   4.524   5.176   1.391
58121SOL    HW176202   4.486   5.210   1.472
58121SOL    HW276203   4.508   5.243   1.326
58122SOL     OW76204   6.477   1.428   9.734
58122SOL    HW176205   6.396   1.479   9.729
58122SOL    HW276206   6.547   1.493   9.738
58123SOL     OW76207  10.238   1.303   5.816
58123SOL    HW176208  10.191   1.386   5.810
58123SOL    HW276209  10.210   1.254   5.738
58124SOL     OW76210   9.383   7.126   3.161
58124SOL    HW176211   9.459   7.069   3.151
58124SOL    HW276212   9.415   7.201   3.209
58125SOL     OW76213   9.639   9.369  14.483
58125SOL    HW176214   9.560   9.369  14.429
58125SOL    HW276215   9.666   9.460  14.485
58126SOL     OW76216   1.224  12.137  12.318
58126SOL    HW176217   1.181  12.120  12.402
58126SOL    HW276218   1.188  12.221  12.289
58127SOL     OW76219   0.054   5.837   8.110
58127SOL    HW176220   0.039   5.849   8.204
58127SOL    HW276221   0.006   5.757   8.088
58128SOL     OW76222   9.935   9.647   9.134
58128SOL    HW176223   9.920   9.555   9.114
58128SOL    HW276224  10.010   9.647   9.194
58129SOL     OW76225   6.367   9.822  11.416
58129SOL    HW176226   6.290   9.775  11.450
58129SOL    HW276227   6.342   9.846  11.327
58130SOL     OW76228   0.630   1.407   3.182
58130SOL    HW176229   0.669   1.320   3.192
58130SOL    HW276230   0.618   1.416   3.087
58131SOL     OW76231   6.443   0.784   5.204
58131SOL    HW176232   6.470   0.808   5.293
58131SOL    HW276233   6.453   0.689   5.201
58132SOL     OW76234   2.099  10.901  12.406
58132SOL    HW176235   2.152  10.980  12.410
58132SOL    HW276236   2.145  10.844  12.345
58133SOL     OW76237  11.301   7.689   1.246
58133SOL    HW176238  11.262   7.777   1.250
58133SOL    HW276239  11.316   7.674   1.153
58134SOL     OW76240  11.811  11.215  13.155
58134SOL    HW176241  11.721  11.203  13.187
58134SOL    HW276242  11.801  11.232  13.062
58135SOL     OW76243   7.752   3.234   4.118
58135SOL    HW176244   7.737   3.227   4.212
58135SOL    HW276245   7.824   3.297   4.110
58136SOL     OW76246   7.406   2.784  12.674
58136SOL    HW176247   7.354   2.842  12.730
58136SOL    HW276248   7.496   2.797  12.704
58137SOL     OW76249   8.387   2.835   6.662
58137SOL    HW176250   8.481   2.817   6.668
58137SOL    HW276251   8.371   2.849   6.568
58138SOL     OW76252  11.696   6.911   9.768
58138SOL    HW176253  11.774   6.866   9.738
58138SOL    HW276254  11.647   6.845   9.818
58139SOL     OW76255  10.329   0.535   6.883
58139SOL    HW176256  10.277   0.608   6.849
58139SOL    HW276257  10.388   0.575   6.947
58140SOL     OW76258   7.093  13.917  11.027
58140SOL    HW176259   7.047  13.833  11.019
58140SOL    HW276260   7.106  13.927  11.121
58141SOL     OW76261   0.864   2.472   3.757
58141SOL    HW176262   0.853   2.404   3.690
58141SOL    HW276263   0.785   2.526   3.750
58142SOL     OW76264   0.714   8.992   6.730
58142SOL    HW176265   0.621   8.977   6.717
58142SOL    HW276266   0.755   8.906   6.718
58143SOL     OW76267   5.921  14.279  14.359
58143SOL    HW176268   5.867  14.245  14.431
58143SOL    HW276269   5.905  14.219  14.287
58144SOL     OW76270   2.031   0.404   2.349
58144SOL    HW176271   2.041   0.378   2.441
58144SOL    HW276272   1.936   0.414   2.337
58145SOL     OW76273   9.056   9.385   2.113
58145SOL    HW176274   9.053   9.412   2.021
58145SOL    HW276275   9.143   9.410   2.143
58146SOL     OW76276   6.526   8.828   3.755
58146SOL    HW176277   6.542   8.920   3.737
58146SOL    HW276278   6.451   8.828   3.814
58147SOL     OW76279  12.197   4.848   8.782
58147SOL    HW176280  12.162   4.762   8.756
58147SOL    HW276281  12.263   4.827   8.848
58148SOL     OW76282   9.701   9.313   9.998
58148SOL    HW176283   9.704   9.363   9.917
58148SOL    HW276284   9.704   9.221   9.970
58149SOL     OW76285   1.288   4.836  11.708
58149SOL    HW176286   1.326   4.898  11.770
58149SOL    HW276287   1.195   4.858  11.707
58150SOL     OW76288   1.582   0.249   5.742
58150SOL    HW176289   1.640   0.273   5.670
58150SOL    HW276290   1.616   0.165   5.774
58151SOL     OW76291  13.072   7.050  12.508
58151SOL    HW176292  13.112   7.089  12.431
58151SOL    HW276293  12.991   7.099  12.521
58152SOL     OW76294   7.814   0.977   1.736
58152SOL    HW176295   7.800   1.071   1.722
58152SOL    HW276296   7.905   0.971   1.765
58153SOL     OW76297  10.656   2.369   4.133
58153SOL    HW176298  10.739   2.322   4.141
58153SOL    HW276299  10.590   2.308   4.166
58154SOL     OW76300   6.177  13.279   8.277
58154SOL    HW176301   6.195  13.360   8.325
58154SOL    HW276302   6.198  13.300   8.186
58155SOL     OW76303   2.430   1.306   2.330
58155SOL    HW176304   2.514   1.338   2.361
58155SOL    HW276305   2.375   1.384   2.325
58156SOL     OW76306   1.806  10.803  10.159
58156SOL    HW176307   1.877  10.741  10.143
58156SOL    HW276308   1.730  10.764  10.115
58157SOL     OW76309   2.051   7.516   3.501
58157SOL    HW176310   2.099   7.549   3.577
58157SOL    HW276311   2.078   7.572   3.429
58158SOL     OW76312   5.251   7.771  12.382
58158SOL    HW176313   5.219   7.755  12.293
58158SOL    HW276314   5.294   7.857  12.376
58159SOL     OW76315  13.427  10.942  13.534
58159SOL    HW176316  13.463  11.010  13.591
58159SOL    HW276317  13.438  10.977  13.446
58160SOL     OW76318   0.271  14.040   6.092
58160SOL    HW176319   0.290  13.977   6.023
58160SOL    HW276320   0.206  14.098   6.055
58161SOL     OW76321   2.131  10.705   4.280
58161SOL    HW176322   2.139  10.767   4.352
58161SOL    HW276323   2.052  10.655   4.299
58162SOL     OW76324  10.086  11.496   8.414
58162SOL    HW176325  10.139  11.571   8.442
58162SOL    HW276326  10.053  11.520   8.328
58163SOL     OW76327   0.148  12.353  14.874
58163SOL    HW176328   0.071  12.300   0.012
58163SOL    HW276329   0.115  12.443  14.871
58164SOL     OW76330  12.218   9.720   8.127
58164SOL    HW176331  12.187   9.646   8.074
58164SOL    HW276332  12.242   9.682   8.211
58165SOL     OW76333   9.191   2.086  12.364
58165SOL    HW176334   9.112   2.039  12.337
58165SOL    HW276335   9.256   2.017  12.378
58166SOL     OW76336   6.441   4.205   7.413
58166SOL    HW176337   6.480   4.227   7.498
58166SOL    HW276338   6.347   4.197   7.430
58167SOL     OW76339   5.267  12.300   2.842
58167SOL    HW176340   5.308  12.364   2.785
58167SOL    HW276341   5.338  12.269   2.898
58168SOL     OW76342   9.441  11.897   5.288
58168SOL    HW176343   9.439  11.819   5.343
58168SOL    HW276344   9.349  11.925   5.283
58169SOL     OW76345  14.600   3.425   0.231
58169SOL    HW176346  14.513   3.393   0.210
58169SOL    HW276347  14.595   3.520   0.216
58170SOL     OW76348   2.334  13.601   7.985
58170SOL    HW176349   2.376  13.577   7.902
58170SOL    HW276350   2.369  13.688   8.005
58171SOL     OW76351   4.433   3.803   9.537
58171SOL    HW176352   4.342   3.777   9.521
58171SOL    HW276353   4.438   3.892   9.503
58172SOL     OW76354   4.758  10.659   9.123
58172SOL    HW176355   4.758  10.610   9.205
58172SOL    HW276356   4.771  10.593   9.055
58173SOL     OW76357  11.220  11.638  13.985
58173SOL    HW176358  11.148  11.695  13.959
58173SOL    HW276359  11.299  11.688  13.966
58174SOL     OW76360   0.579  12.485   4.185
58174SOL    HW176361   0.578  12.426   4.260
58174SOL    HW276362   0.540  12.434   4.114
58175SOL     OW76363   8.672   6.418   8.446
58175SOL    HW176364   8.698   6.338   8.494
58175SOL    HW276365   8.735   6.484   8.475
58176SOL     OW76366   1.207   0.782  13.327
58176SOL    HW176367   1.280   0.740  13.373
58176SOL    HW276368   1.128   0.746  13.367
58177SOL     OW76369   1.147  12.847  13.197
58177SOL    HW176370   1.104  12.827  13.114
58177SOL    HW276371   1.111  12.931  13.223
58178SOL     OW76372  14.221   7.468   1.169
58178SOL    HW176373  14.213   7.551   1.121
58178SOL    HW276374  14.315   7.449   1.170
58179SOL     OW76375   1.695   5.948   2.808
58179SOL    HW176376   1.646   6.029   2.822
58179SOL    HW276377   1.629   5.880   2.802
58180SOL     OW76378   4.464   1.318   7.942
58180SOL    HW176379   4.374   1.303   7.914
58180SOL    HW276380   4.459   1.318   8.038
58181SOL     OW76381   5.934   7.846   4.179
58181SOL    HW176382   5.866   7.818   4.240
58181SOL    HW276383   5.887   7.894   4.111
58182SOL     OW76384  11.811   7.052  11.400
58182SOL    HW176385  11.736   7.047  11.460
58182SOL    HW276386  11.778   7.100  11.324
58183SOL     OW76387  11.103  12.749   6.283
58183SOL    HW176388  11.081  12.664   6.321
58183SOL    HW276389  11.180  12.778   6.332
58184SOL     OW76390   8.828   6.701  13.054
58184SOL    HW176391   8.891   6.751  13.105
58184SOL    HW276392   8.877   6.626  13.021
58185SOL     OW76393   1.454   0.611  14.408
58185SOL    HW176394   1.528   0.552  14.394
58185SOL    HW276395   1.476   0.659  14.488
58186SOL     OW76396  10.177   2.106  14.341
58186SOL    HW176397  10.194   2.098  14.247
58186SOL    HW276398  10.101   2.049  14.355
58187SOL     OW76399   4.050   2.959   1.370
58187SOL    HW176400   3.960   2.983   1.347
58187SOL    HW276401   4.098   3.042   1.365
58188SOL     OW76402  12.288  10.869   4.629
58188SOL    HW176403  12.260  10.940   4.571
58188SOL    HW276404  12.381  10.857   4.609
58189SOL     OW76405  14.840   9.978  11.058
58189SOL    HW176406   0.043  10.022  11.059
58189SOL    HW276407  14.801   9.999  11.143
58190SOL     OW76408   6.759  12.101  13.817
58190SOL    HW176409   6.740  12.063  13.732
58190SOL    HW276410   6.677  12.142  13.845
58191SOL     OW76411   3.880  10.682   2.455
58191SOL    HW176412   3.962  10.725   2.479
58191SOL    HW276413   3.888  10.666   2.361
58192SOL     OW76414   2.807   0.336   1.214
58192SOL    HW176415   2.715   0.316   1.195
58192SOL    HW276416   2.855   0.306   1.137
58193SOL     OW76417   8.115  13.374  10.540
58193SOL    HW176418   8.123  13.333  10.454
58193SOL    HW276419   8.134  13.303  10.602
58194SOL     OW76420  14.122   0.275  14.261
58194SOL    HW176421  14.215   0.261  14.281
58194SOL    HW276422  14.078   0.200  14.301
58195SOL     OW76423  13.812   9.759  11.120
58195SOL    HW176424  13.834   9.817  11.047
58195SOL    HW276425  13.868   9.683  11.108
58196SOL     OW76426   0.220  13.717  12.689
58196SOL    HW176427   0.294  13.678  12.735
58196SOL    HW276428   0.176  13.771  12.754
58197SOL     OW76429  12.354  10.039  14.034
58197SOL    HW176430  12.377  10.118  13.985
58197SOL    HW276431  12.258  10.036  14.032
58198SOL     OW76432  14.368  11.754  14.014
58198SOL    HW176433  14.346  11.801  13.933
58198SOL    HW276434  14.287  11.711  14.040
58199SOL     OW76435   4.400   0.116   7.262
58199SOL    HW176436   4.436   0.120   7.174
58199SOL    HW276437   4.469   0.075   7.314
58200SOL     OW76438  12.027  12.212   5.900
58200SOL    HW176439  12.033  12.134   5.844
58200SOL    HW276440  11.945  12.253   5.873
58201SOL     OW76441   5.931  13.880  12.458
58201SOL    HW176442   5.900  13.801  12.503
58201SOL    HW276443   5.862  13.945  12.473
58202SOL     OW76444   0.332   0.405   8.508
58202SOL    HW176445   0.256   0.461   8.490
58202SOL    HW276446   0.407   0.464   8.500
58203SOL     OW76447   2.693   0.241  10.671
58203SOL    HW176448   2.771   0.197  10.705
58203SOL    HW276449   2.721   0.279  10.588
58204SOL     OW76450  11.252   7.335  10.399
58204SOL    HW176451  11.205   7.373  10.325
58204SOL    HW276452  11.333   7.387  10.406
58205SOL     OW76453   4.576   6.649   0.396
58205SOL    HW176454   4.517   6.585   0.436
58205SOL    HW276455   4.561   6.640   0.302
58206SOL     OW76456   5.661   2.625   2.900
58206SOL    HW176457   5.607   2.686   2.950
58206SOL    HW276458   5.742   2.617   2.951
58207SOL     OW76459   8.772  12.697   2.181
58207SOL    HW176460   8.816  12.774   2.217
58207SOL    HW276461   8.838  12.655   2.126
58208SOL     OW76462  14.142  11.771  13.452
58208SOL    HW176463  14.205  11.817  13.396
58208SOL    HW276464  14.194  11.738  13.525
58209SOL     OW76465   3.910   6.907   2.668
58209SOL    HW176466   3.987   6.851   2.661
58209SOL    HW276467   3.943   6.995   2.651
58210SOL     OW76468   7.340   0.840   4.295
58210SOL    HW176469   7.313   0.778   4.363
58210SOL    HW276470   7.277   0.912   4.303
58211SOL     OW76471   8.417   0.443   6.796
58211SOL    HW176472   8.485   0.392   6.753
58211SOL    HW276473   8.338   0.429   6.743
58212SOL     OW76474   4.287   5.495  14.473
58212SOL    HW176475   4.366   5.479  14.421
58212SOL    HW276476   4.318   5.540  14.551
58213SOL     OW76477   4.363  10.851   6.207
58213SOL    HW176478   4.439  10.797   6.230
58213SOL    HW276479   4.314  10.859   6.289
58214SOL     OW76480   1.203  11.347   1.479
58214SOL    HW176481   1.149  11.294   1.420
58214SOL    HW276482   1.244  11.412   1.422
58215SOL     OW76483   0.913  13.148   6.929
58215SOL    HW176484   0.938  13.168   6.839
58215SOL    HW276485   0.968  13.072   6.953
58216SOL     OW76486   7.436  11.276   8.239
58216SOL    HW176487   7.380  11.278   8.161
58216SOL    HW276488   7.378  11.246   8.309
58217SOL     OW76489   4.429   6.215  10.848
58217SOL    HW176490   4.401   6.139  10.797
58217SOL    HW276491   4.511   6.187  10.889
58218SOL     OW76492   7.180   3.874  13.666
58218SOL    HW176493   7.150   3.848  13.753
58218SOL    HW276494   7.208   3.965  13.677
58219SOL     OW76495  12.039  12.927   7.825
58219SOL    HW176496  11.990  12.891   7.899
58219SOL    HW276497  12.041  12.856   7.761
58220SOL     OW76498  10.660   4.645   9.863
58220SOL    HW176499  10.574   4.688   9.863
58220SOL    HW276500  10.677   4.625   9.771
58221SOL     OW76501   8.053  13.155   2.032
58221SOL    HW176502   7.959  13.173   2.037
58221SOL    HW276503   8.088  13.183   2.116
58222SOL     OW76504   8.560   2.177   3.698
58222SOL    HW176505   8.533   2.086   3.684
58222SOL    HW276506   8.650   2.181   3.667
58223SOL     OW76507  10.001   0.873  13.584
58223SOL    HW176508  10.022   0.955  13.629
58223SOL    HW276509  10.084   0.845  13.545
58224SOL     OW76510   4.171   7.716   4.376
58224SOL    HW176511   4.210   7.804   4.374
58224SOL    HW276512   4.077   7.732   4.386
58225SOL     OW76513  14.066   3.498  10.659
58225SOL    HW176514  14.026   3.434  10.599
58225SOL    HW276515  14.136   3.538  10.607
58226SOL     OW76516  13.025  14.267   2.901
58226SOL    HW176517  13.103  14.287   2.953
58226SOL    HW276518  13.057  14.213   2.829
58227SOL     OW76519   7.998   1.213   3.556
58227SOL    HW176520   7.983   1.207   3.650
58227SOL    HW276521   8.084   1.255   3.548
58228SOL     OW76522   0.359   6.727  10.756
58228SOL    HW176523   0.402   6.808  10.783
58228SOL    HW276524   0.321   6.747  10.671
58229SOL     OW76525  11.488  10.690   3.502
58229SOL    HW176526  11.497  10.747   3.578
58229SOL    HW276527  11.454  10.608   3.538
58230SOL     OW76528   9.350   9.971   3.767
58230SOL    HW176529   9.408   9.907   3.728
58230SOL    HW276530   9.276   9.977   3.707
58231SOL     OW76531   8.207  11.336  12.411
58231SOL    HW176532   8.214  11.253  12.459
58231SOL    HW276533   8.115  11.361  12.421
58232SOL     OW76534  11.781  13.409  13.986
58232SOL    HW176535  11.833  13.484  14.014
58232SOL    HW276536  11.716  13.446  13.926
58233SOL     OW76537  14.031   1.418   3.894
58233SOL    HW176538  14.109   1.371   3.922
58233SOL    HW276539  14.064   1.490   3.839
58234SOL     OW76540  10.349   9.306   6.291
58234SOL    HW176541  10.255   9.294   6.304
58234SOL    HW276542  10.363   9.287   6.198
58235SOL     OW76543   6.586   8.281   7.634
58235SOL    HW176544   6.550   8.215   7.575
58235SOL    HW276545   6.594   8.359   7.579
58236SOL     OW76546  11.659   4.348   8.648
58236SOL    HW176547  11.671   4.383   8.737
58236SOL    HW276548  11.733   4.289   8.635
58237SOL     OW76549   4.161  14.080   9.655
58237SOL    HW176550   4.077  14.048   9.624
58237SOL    HW276551   4.222  14.062   9.583
58238SOL     OW76552  10.120  13.759   1.197
58238SOL    HW176553  10.137  13.706   1.275
58238SOL    HW276554  10.046  13.815   1.222
58239SOL     OW76555   8.455  13.597  13.451
58239SOL    HW176556   8.411  13.524  13.408
58239SOL    HW276557   8.416  13.675  13.411
58240SOL     OW76558   2.834  11.341  13.400
58240SOL    HW176559   2.848  11.338  13.306
58240SOL    HW276560   2.903  11.398  13.433
58241SOL     OW76561   4.170   8.740   6.771
58241SOL    HW176562   4.199   8.675   6.835
58241SOL    HW276563   4.075   8.744   6.783
58242SOL     OW76564   5.008   2.615  14.542
58242SOL    HW176565   4.961   2.698  14.544
58242SOL    HW276566   5.099   2.639  14.526
58243SOL     OW76567   0.575  11.188  12.269
58243SOL    HW176568   0.641  11.146  12.213
58243SOL    HW276569   0.528  11.114  12.308
58244SOL     OW76570  14.217   3.269   0.785
58244SOL    HW176571  14.239   3.242   0.874
58244SOL    HW276572  14.275   3.217   0.729
58245SOL     OW76573   2.653  14.646   3.878
58245SOL    HW176574   2.584  14.693   3.924
58245SOL    HW276575   2.650  14.557   3.915
58246SOL     OW76576  13.390   0.332   5.907
58246SOL    HW176577  13.371   0.425   5.914
58246SOL    HW276578  13.423   0.320   5.818
58247SOL     OW76579   8.034   2.009   5.023
58247SOL    HW176580   7.943   2.011   4.993
58247SOL    HW276581   8.043   1.924   5.066
58248SOL     OW76582  12.182   2.960   0.158
58248SOL    HW176583  12.167   2.892   0.093
58248SOL    HW276584  12.248   3.017   0.118
58249SOL     OW76585  12.499   6.717   8.712
58249SOL    HW176586  12.510   6.801   8.667
58249SOL    HW276587  12.404   6.706   8.719
58250SOL     OW76588  13.402   7.661  10.518
58250SOL    HW176589  13.457   7.701  10.586
58250SOL    HW276590  13.316   7.701  10.531
58251SOL     OW76591   3.645   8.209  12.089
58251SOL    HW176592   3.658   8.303  12.091
58251SOL    HW276593   3.594   8.190  12.168
58252SOL     OW76594  12.041   8.375   8.881
58252SOL    HW176595  12.005   8.301   8.833
58252SOL    HW276596  11.983   8.448   8.859
58253SOL     OW76597  12.014   3.987   4.866
58253SOL    HW176598  11.953   3.945   4.927
58253SOL    HW276599  12.012   4.079   4.890
58254SOL     OW76600   8.897  12.474   8.969
58254SOL    HW176601   8.955  12.508   9.037
58254SOL    HW276602   8.820  12.531   8.971
58255SOL     OW76603  13.401  11.350  13.335
58255SOL    HW176604  13.493  11.351  13.308
58255SOL    HW276605  13.352  11.326  13.256
58256SOL     OW76606   2.141   2.195   1.577
58256SOL    HW176607   2.053   2.158   1.578
58256SOL    HW276608   2.179   2.164   1.495
58257SOL     OW76609  10.630   5.881   6.969
58257SOL    HW176610  10.700   5.917   7.024
58257SOL    HW276611  10.606   5.799   7.012
58258SOL     OW76612  14.499  13.900   9.927
58258SOL    HW176613  14.577  13.955   9.926
58258SOL    HW276614  14.519  13.831   9.990
58259SOL     OW76615   8.610   9.366   2.607
58259SOL    HW176616   8.645   9.443   2.651
58259SOL    HW276617   8.678   9.341   2.544
58260SOL     OW76618   5.353  11.583   5.637
58260SOL    HW176619   5.405  11.526   5.694
58260SOL    HW276620   5.367  11.548   5.549
58261SOL     OW76621  13.149  12.454   9.810
58261SOL    HW176622  13.107  12.526   9.762
58261SOL    HW276623  13.186  12.399   9.741
58262SOL     OW76624   2.976   5.213  13.864
58262SOL    HW176625   3.062   5.177  13.846
58262SOL    HW276626   2.955   5.183  13.952
58263SOL     OW76627   3.917   4.258  11.058
58263SOL    HW176628   3.933   4.177  11.107
58263SOL    HW276629   3.839   4.296  11.100
58264SOL     OW76630   4.300  11.504  11.080
58264SOL    HW176631   4.270  11.519  10.990
58264SOL    HW276632   4.274  11.413  11.099
58265SOL     OW76633   4.370   4.749   8.756
58265SOL    HW176634   4.459   4.740   8.721
58265SOL    HW276635   4.372   4.831   8.804
58266SOL     OW76636   8.009  14.814   7.450
58266SOL    HW176637   8.027  14.751   7.519
58266SOL    HW276638   8.047  14.775   7.371
58267SOL     OW76639   4.789   9.529   7.465
58267SOL    HW176640   4.884   9.520   7.472
58267SOL    HW276641   4.761   9.453   7.415
58268SOL     OW76642  11.082   4.455  14.331
58268SOL    HW176643  11.075   4.446  14.235
58268SOL    HW276644  10.992   4.454  14.362
58269SOL     OW76645  11.532   1.569   8.288
58269SOL    HW176646  11.561   1.633   8.353
58269SOL    HW276647  11.499   1.622   8.215
58270SOL     OW76648  14.584  13.493   7.400
58270SOL    HW176649  14.604  13.451   7.484
58270SOL    HW276650  14.658  13.551   7.384
58271SOL     OW76651   2.086   4.414   6.330
58271SOL    HW176652   2.116   4.364   6.254
58271SOL    HW276653   2.018   4.359   6.369
58272SOL     OW76654   3.232   5.795   4.103
58272SOL    HW176655   3.203   5.772   4.191
58272SOL    HW276656   3.237   5.712   4.057
58273SOL     OW76657   0.770   2.060   2.442
58273SOL    HW176658   0.833   2.061   2.370
58273SOL    HW276659   0.792   2.137   2.494
58274SOL     OW76660  14.459  11.175   6.879
58274SOL    HW176661  14.487  11.209   6.964
58274SOL    HW276662  14.495  11.237   6.816
58275SOL     OW76663   6.087   7.933   4.372
58275SOL    HW176664   6.038   7.921   4.453
58275SOL    HW276665   6.033   7.890   4.305
58276SOL     OW76666  13.931   4.343   6.264
58276SOL    HW176667  13.908   4.322   6.174
58276SOL    HW276668  13.930   4.439   6.268
58277SOL     OW76669   1.457   7.030   4.652
58277SOL    HW176670   1.431   6.968   4.583
58277SOL    HW276671   1.503   6.976   4.716
58278SOL     OW76672  13.370  13.090   4.780
58278SOL    HW176673  13.293  13.087   4.723
58278SOL    HW276674  13.334  13.098   4.868
58279SOL     OW76675  10.319   7.545  12.381
58279SOL    HW176676  10.288   7.455  12.396
58279SOL    HW276677  10.337   7.548  12.287
58280SOL     OW76678  14.655   9.612   9.580
58280SOL    HW176679  14.656   9.523   9.543
58280SOL    HW276680  14.570   9.647   9.555
58281SOL     OW76681   0.163   2.748   3.047
58281SOL    HW176682   0.082   2.730   2.998
58281SOL    HW276683   0.162   2.843   3.061
58282SOL     OW76684  12.316  11.935   0.460
58282SOL    HW176685  12.401  11.930   0.416
58282SOL    HW276686  12.332  11.900   0.547
58283SOL     OW76687   4.315   2.053   9.957
58283SOL    HW176688   4.224   2.081   9.971
58283SOL    HW276689   4.367   2.114  10.010
58284SOL     OW76690  14.545   9.737   9.010
58284SOL    HW176691  14.574   9.649   9.033
58284SOL    HW276692  14.523   9.778   9.094
58285SOL     OW76693  13.633   5.601  12.274
58285SOL    HW176694  13.546   5.579  12.309
58285SOL    HW276695  13.692   5.595  12.349
58286SOL     OW76696   8.479   9.234   1.191
58286SOL    HW176697   8.536   9.310   1.181
58286SOL    HW276698   8.429   9.231   1.109
58287SOL     OW76699   8.526   6.650  13.485
58287SOL    HW176700   8.523   6.743  13.464
58287SOL    HW276701   8.552   6.647  13.577
58288SOL     OW76702   0.501   2.677   5.986
58288SOL    HW176703   0.574   2.738   5.990
58288SOL    HW276704   0.533   2.598   6.030
58289SOL     OW76705   0.866  10.864  12.730
58289SOL    HW176706   0.900  10.951  12.706
58289SOL    HW276707   0.771  10.872  12.721
58290SOL     OW76708   3.828  11.333  13.961
58290SOL    HW176709   3.782  11.397  14.015
58290SOL    HW276710   3.833  11.373  13.875
58291SOL     OW76711   7.042  13.119  10.017
58291SOL    HW176712   7.102  13.114  10.092
58291SOL    HW276713   7.067  13.045   9.962
58292SOL     OW76714   6.257  10.058  12.285
58292SOL    HW176715   6.249  10.154  12.287
58292SOL    HW276716   6.226  10.034  12.198
58293SOL     OW76717  14.658  12.086   2.040
58293SOL    HW176718  14.636  12.148   2.109
58293SOL    HW276719  14.668  12.140   1.962
58294SOL     OW76720  11.763  10.054   9.844
58294SOL    HW176721  11.714  10.032   9.765
58294SOL    HW276722  11.831  10.114   9.813
58295SOL     OW76723   7.080  13.705   6.620
58295SOL    HW176724   6.987  13.711   6.640
58295SOL    HW276725   7.112  13.634   6.676
58296SOL     OW76726  12.052   9.799  14.691
58296SOL    HW176727  12.084   9.757  14.611
58296SOL    HW276728  12.049   9.892  14.671
58297SOL     OW76729   9.829   2.896  13.050
58297SOL    HW176730   9.775   2.973  13.063
58297SOL    HW276731   9.900   2.925  12.993
58298SOL     OW76732   0.240   9.020   8.326
58298SOL    HW176733   0.270   8.932   8.345
58298SOL    HW276734   0.317   9.065   8.291
58299SOL     OW76735   9.692   8.932   5.933
58299SOL    HW176736   9.725   8.935   5.843
58299SOL    HW276737   9.633   9.006   5.940
58300SOL     OW76738   4.418  10.567  11.121
58300SOL    HW176739   4.374  10.562  11.206
58300SOL    HW276740   4.458  10.480  11.110
58301SOL     OW76741   1.238   3.324  10.399
58301SOL    HW176742   1.182   3.315  10.475
58301SOL    HW276743   1.327   3.331  10.435
58302SOL     OW76744   0.090   8.309  12.815
58302SOL    HW176745   0.004   8.333  12.850
58302SOL    HW276746   0.115   8.230  12.864
58303SOL     OW76747   8.757  10.121   7.570
58303SOL    HW176748   8.791  10.032   7.583
58303SOL    HW276749   8.721  10.145   7.655
58304SOL     OW76750   3.893   5.612   5.553
58304SOL    HW176751   3.840   5.648   5.482
58304SOL    HW276752   3.830   5.580   5.617
58305SOL     OW76753   0.766   5.833   8.915
58305SOL    HW176754   0.693   5.771   8.919
58305SOL    HW276755   0.729   5.911   8.875
58306SOL     OW76756  12.846   2.353  14.796
58306SOL    HW176757  12.798   2.373  14.877
58306SOL    HW276758  12.875   2.263  14.807
58307SOL     OW76759   3.512  10.179   6.765
58307SOL    HW176760   3.486  10.095   6.730
58307SOL    HW276761   3.584  10.159   6.825
58308SOL     OW76762   9.041   8.932   5.791
58308SOL    HW176763   9.065   8.956   5.702
58308SOL    HW276764   8.946   8.938   5.794
58309SOL     OW76765   2.213   8.584   0.073
58309SOL    HW176766   2.128   8.629   0.078
58309SOL    HW276767   2.241   8.575   0.164
58310SOL     OW76768  12.073  13.716   5.903
58310SOL    HW176769  12.113  13.744   5.986
58310SOL    HW276770  12.123  13.762   5.836
58311SOL     OW76771  10.125  12.431  10.460
58311SOL    HW176772  10.219  12.437  10.444
58311SOL    HW276773  10.107  12.499  10.525
58312SOL     OW76774   9.330   2.057   2.995
58312SOL    HW176775   9.331   2.029   2.903
58312SOL    HW276776   9.252   2.014   3.032
58313SOL     OW76777   7.177  13.956   1.827
58313SOL    HW176778   7.159  13.957   1.733
58313SOL    HW276779   7.270  13.932   1.833
58314SOL     OW76780  14.607   3.699  14.706
58314SOL    HW176781  14.636   3.753  14.632
58314SOL    HW276782  14.574   3.619  14.665
58315SOL     OW76783  14.050  13.220  13.858
58315SOL    HW176784  14.095  13.261  13.932
58315SOL    HW276785  13.963  13.261  13.857
58316SOL     OW76786   3.888  10.955  12.377
58316SOL    HW176787   3.925  10.878  12.421
58316SOL    HW276788   3.919  10.948  12.286
58317SOL     OW76789  11.047   4.535   3.967
58317SOL    HW176790  11.077   4.626   3.976
58317SOL    HW276791  10.953   4.539   3.981
58318SOL     OW76792   0.470   9.584  11.479
58318SOL    HW176793   0.445   9.616  11.565
58318SOL    HW276794   0.511   9.659  11.436
58319SOL     OW76795   4.436   7.396   7.014
58319SOL    HW176796   4.357   7.358   6.975
58319SOL    HW276797   4.410   7.417   7.104
58320SOL     OW76798   6.666   8.866   5.553
58320SOL    HW176799   6.727   8.824   5.491
58320SOL    HW276800   6.713   8.865   5.636
58321SOL     OW76801   4.404   3.876  12.172
58321SOL    HW176802   4.313   3.906  12.184
58321SOL    HW276803   4.400   3.816  12.098
58322SOL     OW76804   4.108   2.628  10.441
58322SOL    HW176805   4.119   2.675  10.523
58322SOL    HW276806   4.148   2.542  10.457
58323SOL     OW76807   8.472   3.331   4.482
58323SOL    HW176808   8.433   3.374   4.558
58323SOL    HW276809   8.565   3.350   4.487
58324SOL     OW76810   3.859  14.299   7.553
58324SOL    HW176811   3.906  14.231   7.506
58324SOL    HW276812   3.767  14.285   7.531
58325SOL     OW76813   5.151  12.950   4.823
58325SOL    HW176814   5.197  13.028   4.853
58325SOL    HW276815   5.059  12.967   4.841
58326SOL     OW76816  14.071   3.970  11.561
58326SOL    HW176817  13.985   3.934  11.540
58326SOL    HW276818  14.119   3.967  11.478
58327SOL     OW76819  10.227   1.344   9.879
58327SOL    HW176820  10.236   1.340   9.974
58327SOL    HW276821  10.243   1.254   9.849
58328SOL     OW76822  10.774  11.820   5.120
58328SOL    HW176823  10.850  11.803   5.175
58328SOL    HW276824  10.723  11.886   5.168
58329SOL     OW76825   6.712   6.236   4.213
58329SOL    HW176826   6.703   6.300   4.141
58329SOL    HW276827   6.786   6.182   4.187
58330SOL     OW76828  13.297  13.524  10.346
58330SOL    HW176829  13.369  13.528  10.409
58330SOL    HW276830  13.241  13.454  10.378
58331SOL     OW76831   2.860   0.117  12.255
58331SOL    HW176832   2.862   0.205  12.216
58331SOL    HW276833   2.934   0.071  12.215
58332SOL     OW76834   2.298   0.312   3.284
58332SOL    HW176835   2.337   0.247   3.341
58332SOL    HW276836   2.340   0.298   3.199
58333SOL     OW76837   6.509   1.163   9.713
58333SOL    HW176838   6.522   1.256   9.729
58333SOL    HW276839   6.579   1.140   9.651
58334SOL     OW76840  13.754  14.575  12.301
58334SOL    HW176841  13.714  14.586  12.214
58334SOL    HW276842  13.746  14.481  12.319
58335SOL     OW76843  10.522   4.708   1.427
58335SOL    HW176844  10.581   4.748   1.363
58335SOL    HW276845  10.565   4.723   1.512
58336SOL     OW76846   2.169   6.705   8.777
58336SOL    HW176847   2.168   6.620   8.820
58336SOL    HW276848   2.246   6.703   8.721
58337SOL     OW76849   0.049   3.647  13.192
58337SOL    HW176850   0.025   3.730  13.153
58337SOL    HW276851  14.850   3.596  13.191
58338SOL     OW76852   1.827   4.528   1.850
58338SOL    HW176853   1.816   4.560   1.940
58338SOL    HW276854   1.873   4.599   1.805
58339SOL     OW76855   7.895   5.958   1.141
58339SOL    HW176856   7.817   5.962   1.085
58339SOL    HW276857   7.895   5.869   1.175
58340SOL     OW76858   7.424   0.480   7.620
58340SOL    HW176859   7.517   0.472   7.602
58340SOL    HW276860   7.419   0.496   7.714
58341SOL     OW76861   2.285   7.352   1.691
58341SOL    HW176862   2.308   7.273   1.641
58341SOL    HW276863   2.348   7.355   1.763
58342SOL     OW76864  11.958   5.701   6.960
58342SOL    HW176865  11.916   5.618   6.982
58342SOL    HW276866  11.940   5.713   6.867
58343SOL     OW76867   0.948  11.510  14.540
58343SOL    HW176868   0.895  11.432  14.528
58343SOL    HW276869   0.925  11.567  14.466
58344SOL     OW76870   7.843   4.078   4.716
58344SOL    HW176871   7.876   4.158   4.676
58344SOL    HW276872   7.782   4.108   4.784
58345SOL     OW76873   3.709   9.063  11.912
58345SOL    HW176874   3.792   9.049  11.868
58345SOL    HW276875   3.714   9.152  11.947
58346SOL     OW76876   7.239   5.889   1.464
58346SOL    HW176877   7.185   5.906   1.388
58346SOL    HW276878   7.259   5.976   1.500
58347SOL     OW76879  12.598   6.026  11.073
58347SOL    HW176880  12.523   6.014  11.015
58347SOL    HW276881  12.577   6.104  11.124
58348SOL     OW76882   1.277   0.828  12.575
58348SOL    HW176883   1.258   0.745  12.618
58348SOL    HW276884   1.252   0.895  12.638
58349SOL     OW76885   3.714  11.480   7.639
58349SOL    HW176886   3.755  11.562   7.667
58349SOL    HW276887   3.651  11.505   7.572
58350SOL     OW76888  14.062  13.457  12.235
58350SOL    HW176889  14.068  13.406  12.316
58350SOL    HW276890  13.972  13.445  12.205
58351SOL     OW76891  14.565  13.511   3.983
58351SOL    HW176892  14.560  13.421   3.952
58351SOL    HW276893  14.657  13.536   3.973
58352SOL     OW76894  11.392  10.036   4.162
58352SOL    HW176895  11.344  10.073   4.236
58352SOL    HW276896  11.461  10.100   4.145
58353SOL     OW76897   0.566   6.135  10.251
58353SOL    HW176898   0.652   6.133  10.208
58353SOL    HW276899   0.532   6.222  10.233
58354SOL     OW76900   3.694   4.176   6.210
58354SOL    HW176901   3.661   4.094   6.173
58354SOL    HW276902   3.779   4.154   6.246
58355SOL     OW76903   2.542   4.087   1.812
58355SOL    HW176904   2.573   4.098   1.901
58355SOL    HW276905   2.513   4.174   1.786
58356SOL     OW76906  13.309  12.913   1.901
58356SOL    HW176907  13.364  12.891   1.976
58356SOL    HW276908  13.264  12.831   1.880
58357SOL     OW76909   4.800   2.089  11.634
58357SOL    HW176910   4.730   2.089  11.699
58357SOL    HW276911   4.764   2.041  11.559
58358SOL     OW76912   5.480  12.940   4.525
58358SOL    HW176913   5.397  12.985   4.540
58358SOL    HW276914   5.493  12.945   4.430
58359SOL     OW76915  14.051  14.236   8.064
58359SOL    HW176916  14.009  14.203   8.144
58359SOL    HW276917  14.140  14.202   8.069
58360SOL     OW76918  12.102  12.598   6.070
58360SOL    HW176919  12.087  12.576   6.162
58360SOL    HW276920  12.078  12.690   6.064
58361SOL     OW76921   0.597  14.590   4.634
58361SOL    HW176922   0.656  14.653   4.591
58361SOL    HW276923   0.542  14.557   4.564
58362SOL     OW76924   2.493   4.556   3.903
58362SOL    HW176925   2.424   4.518   3.848
58362SOL    HW276926   2.445   4.597   3.976
58363SOL     OW76927  11.098  10.320   8.348
58363SOL    HW176928  11.141  10.403   8.329
58363SOL    HW276929  11.005  10.340   8.345
58364SOL     OW76930   0.968   6.663  11.126
58364SOL    HW176931   0.924   6.615  11.056
58364SOL    HW276932   1.037   6.604  11.155
58365SOL     OW76933  12.137   8.906   4.016
58365SOL    HW176934  12.177   8.940   4.096
58365SOL    HW276935  12.149   8.811   4.022
58366SOL     OW76936  12.012   6.342  12.877
58366SOL    HW176937  12.039   6.323  12.787
58366SOL    HW276938  11.916   6.332  12.876
58367SOL     OW76939   4.350   3.628   9.196
58367SOL    HW176940   4.437   3.593   9.176
58367SOL    HW276941   4.356   3.721   9.173
58368SOL     OW76942   6.974   2.504   9.735
58368SOL    HW176943   6.950   2.595   9.751
58368SOL    HW276944   7.008   2.504   9.645
58369SOL     OW76945   4.138   9.007   7.401
58369SOL    HW176946   4.082   9.081   7.426
58369SOL    HW276947   4.201   9.045   7.340
58370SOL     OW76948  10.442  13.068  12.634
58370SOL    HW176949  10.348  13.081  12.648
58370SOL    HW276950  10.475  13.041  12.720
58371SOL     OW76951   3.265   3.528  12.685
58371SOL    HW176952   3.266   3.599  12.621
58371SOL    HW276953   3.252   3.449  12.633
58372SOL     OW76954   6.351  11.328   9.419
58372SOL    HW176955   6.388  11.413   9.398
58372SOL    HW276956   6.274  11.321   9.362
58373SOL     OW76957   0.875  11.105   1.209
58373SOL    HW176958   0.944  11.114   1.275
58373SOL    HW276959   0.806  11.165   1.238
58374SOL     OW76960   5.171   3.684  10.302
58374SOL    HW176961   5.216   3.643  10.376
58374SOL    HW276962   5.225   3.662  10.226
58375SOL     OW76963  10.638  14.474   4.480
58375SOL    HW176964  10.556  14.425   4.470
58375SOL    HW276965  10.615  14.564   4.460
58376SOL     OW76966   4.735   4.996   9.538
58376SOL    HW176967   4.655   5.030   9.579
58376SOL    HW276968   4.717   4.903   9.525
58377SOL     OW76969  10.715   6.879   7.749
58377SOL    HW176970  10.752   6.926   7.675
58377SOL    HW276971  10.621   6.897   7.744
58378SOL     OW76972   7.148   9.079  13.984
58378SOL    HW176973   7.219   9.052  13.926
58378SOL    HW276974   7.118   9.163  13.948
58379SOL     OW76975  11.911  14.071   8.192
58379SOL    HW176976  11.888  14.096   8.103
58379SOL    HW276977  11.839  14.013   8.220
58380SOL     OW76978   3.737  14.375   1.898
58380SOL    HW176979   3.812  14.376   1.838
58380SOL    HW276980   3.775  14.348   1.982
58381SOL     OW76981  13.046   0.150  13.446
58381SOL    HW176982  13.050   0.157  13.541
58381SOL    HW276983  13.138   0.146  13.418
58382SOL     OW76984   0.797   6.895   6.321
58382SOL    HW176985   0.838   6.959   6.380
58382SOL    HW276986   0.778   6.820   6.377
58383SOL     OW76987  12.736  10.325   8.084
58383SOL    HW176988  12.767  10.235   8.099
58383SOL    HW276989  12.816  10.377   8.080
58384SOL     OW76990   9.290   6.515   1.493
58384SOL    HW176991   9.264   6.441   1.439
58384SOL    HW276992   9.210   6.567   1.503
58385SOL     OW76993   7.845   1.761   2.487
58385SOL    HW176994   7.798   1.813   2.422
58385SOL    HW276995   7.923   1.813   2.507
58386SOL     OW76996   2.197   7.772  11.560
58386SOL    HW176997   2.117   7.790  11.511
58386SOL    HW276998   2.268   7.783  11.496
58387SOL     OW76999   7.914   1.119   8.822
58387SOL    HW177000   7.872   1.203   8.836
58387SOL    HW277001   7.951   1.124   8.733
58388SOL     OW77002   7.154   5.307   5.607
58388SOL    HW177003   7.209   5.248   5.555
58388SOL    HW277004   7.065   5.288   5.578
58389SOL     OW77005  14.850   4.381  13.919
58389SOL    HW177006  14.781   4.358  13.857
58389SOL    HW277007   0.050   4.358  13.874
58390SOL     OW77008   6.349   1.769   5.935
58390SOL    HW177009   6.424   1.770   5.994
58390SOL    HW277010   6.377   1.714   5.861
58391SOL     OW77011   5.005   6.286   7.865
58391SOL    HW177012   5.053   6.205   7.849
58391SOL    HW277013   4.917   6.258   7.888
58392SOL     OW77014   1.841  12.093  11.733
58392SOL    HW177015   1.819  12.086  11.640
58392SOL    HW277016   1.852  12.187  11.747
58393SOL     OW77017  14.321   0.153  12.969
58393SOL    HW177018  14.245   0.142  12.911
58393SOL    HW277019  14.394   0.168  12.909
58394SOL     OW77020   1.670   8.277   4.817
58394SOL    HW177021   1.606   8.320   4.874
58394SOL    HW277022   1.715   8.214   4.873
58395SOL     OW77023   0.533   0.781   7.469
58395SOL    HW177024   0.514   0.837   7.394
58395SOL    HW277025   0.483   0.702   7.454
58396SOL     OW77026   1.547   0.030   3.697
58396SOL    HW177027   1.489   0.086   3.748
58396SOL    HW277028   1.607   0.091   3.654
58397SOL     OW77029  13.116  14.622   3.910
58397SOL    HW177030  13.151  14.698   3.864
58397SOL    HW277031  13.188  14.559   3.912
58398SOL     OW77032   6.009   1.132   2.822
58398SOL    HW177033   5.989   1.226   2.828
58398SOL    HW277034   6.090   1.129   2.771
58399SOL     OW77035   3.146   0.475   1.447
58399SOL    HW177036   3.052   0.480   1.432
58399SOL    HW277037   3.161   0.384   1.471
58400SOL     OW77038   9.254   4.886   7.199
58400SOL    HW177039   9.349   4.893   7.203
58400SOL    HW277040   9.227   4.957   7.141
58401SOL     OW77041  12.619  13.095  14.244
58401SOL    HW177042  12.556  13.029  14.271
58401SOL    HW277043  12.704  13.053  14.255
58402SOL     OW77044   8.273  13.099   2.774
58402SOL    HW177045   8.240  13.147   2.698
58402SOL    HW277046   8.199  13.094   2.834
58403SOL     OW77047   0.947   9.258   9.725
58403SOL    HW177048   0.925   9.170   9.696
58403SOL    HW277049   0.870   9.287   9.775
58404SOL     OW77050  10.557   3.376   6.645
58404SOL    HW177051  10.585   3.310   6.708
58404SOL    HW277052  10.573   3.336   6.559
58405SOL     OW77053  10.003   4.155  11.501
58405SOL    HW177054  10.061   4.162  11.425
58405SOL    HW277055  10.061   4.125  11.572
58406SOL     OW77056   1.776  13.581   9.038
58406SOL    HW177057   1.761  13.498   8.993
58406SOL    HW277058   1.848  13.622   8.990
58407SOL     OW77059   7.792  13.547  10.234
58407SOL    HW177060   7.864  13.590  10.189
58407SOL    HW277061   7.775  13.602  10.311
58408SOL     OW77062   8.940   5.719  12.574
58408SOL    HW177063   8.943   5.754  12.663
58408SOL    HW277064   8.849   5.731  12.547
58409SOL     OW77065   3.358   0.163  10.999
58409SOL    HW177066   3.317   0.187  11.082
58409SOL    HW277067   3.331   0.072  10.984
58410SOL     OW77068   7.206   6.764  12.820
58410SOL    HW177069   7.258   6.832  12.864
58410SOL    HW277070   7.118   6.801  12.815
58411SOL     OW77071  13.186  13.005   6.403
58411SOL    HW177072  13.109  13.045   6.362
58411SOL    HW277073  13.195  12.920   6.361
58412SOL     OW77074   3.542   3.637   9.402
58412SOL    HW177075   3.497   3.719   9.380
58412SOL    HW277076   3.568   3.601   9.317
58413SOL     OW77077  14.205   6.044   4.664
58413SOL    HW177078  14.270   6.042   4.734
58413SOL    HW277079  14.129   5.999   4.700
58414SOL     OW77080  12.740   7.081   2.074
58414SOL    HW177081  12.729   7.119   2.161
58414SOL    HW277082  12.654   7.043   2.053
58415SOL     OW77083   0.749   0.206  11.348
58415SOL    HW177084   0.731   0.280  11.407
58415SOL    HW277085   0.843   0.210  11.332
58416SOL     OW77086   4.276   5.787  14.220
58416SOL    HW177087   4.368   5.794  14.194
58416SOL    HW277088   4.246   5.707  14.177
58417SOL     OW77089  12.645   5.655  14.507
58417SOL    HW177090  12.600   5.692  14.583
58417SOL    HW277091  12.575   5.624  14.450
58418SOL     OW77092   7.957   0.068  11.486
58418SOL    HW177093   8.016   0.132  11.526
58418SOL    HW277094   7.872   0.112  11.483
58419SOL     OW77095  14.683   0.312   1.794
58419SOL    HW177096  14.640   0.321   1.879
58419SOL    HW277097  14.685   0.401   1.759
58420SOL     OW77098  14.192   1.061   2.361
58420SOL    HW177099  14.147   0.989   2.317
58420SOL    HW277100  14.163   1.055   2.452
58421SOL     OW77101  12.892   1.362   3.745
58421SOL    HW177102  12.875   1.269   3.759
58421SOL    HW277103  12.857   1.379   3.657
58422SOL     OW77104  14.150   2.014  10.118
58422SOL    HW177105  14.153   1.925  10.082
58422SOL    HW277106  14.237   2.050  10.102
58423SOL     OW77107   9.920   0.165   9.960
58423SOL    HW177108   9.930   0.250  10.003
58423SOL    HW277109   9.903   0.186   9.868
58424SOL     OW77110   1.174  10.475  14.197
58424SOL    HW177111   1.210  10.559  14.226
58424SOL    HW277112   1.243  10.435  14.145
58425SOL     OW77113  11.407  14.654   1.150
58425SOL    HW177114  11.313  14.641   1.156
58425SOL    HW277115  11.420  14.697   1.065
58426SOL     OW77116  14.674   5.950   4.111
58426SOL    HW177117  14.688   5.956   4.017
58426SOL    HW277118  14.744   5.892   4.143
58427SOL     OW77119   2.531   7.255   7.913
58427SOL    HW177120   2.605   7.239   7.972
58427SOL    HW277121   2.564   7.235   7.826
58428SOL     OW77122   2.787  11.496  10.050
58428SOL    HW177123   2.717  11.432  10.038
58428SOL    HW277124   2.761  11.570   9.994
58429SOL     OW77125   3.591  10.704  12.568
58429SOL    HW177126   3.663  10.705  12.505
58429SOL    HW277127   3.627  10.664  12.646
58430SOL     OW77128   8.292   1.537   9.300
58430SOL    HW177129   8.239   1.537   9.221
58430SOL    HW277130   8.235   1.573   9.368
58431SOL     OW77131   2.769   1.172   5.744
58431SOL    HW177132   2.706   1.155   5.814
58431SOL    HW277133   2.805   1.259   5.764
58432SOL     OW77134   4.193   6.372   2.305
58432SOL    HW177135   4.105   6.411   2.309
58432SOL    HW277136   4.235   6.417   2.232
58433SOL     OW77137   2.025   8.150   0.157
58433SOL    HW177138   1.950   8.109   0.200
58433SOL    HW277139   2.013   8.132   0.064
58434SOL     OW77140   6.791  11.924   8.462
58434SOL    HW177141   6.815  11.905   8.552
58434SOL    HW277142   6.873  11.950   8.420
58435SOL     OW77143  12.338  12.393   2.881
58435SOL    HW177144  12.250  12.358   2.869
58435SOL    HW277145  12.376  12.338   2.950
58436SOL     OW77146  10.747   6.447   3.773
58436SOL    HW177147  10.817   6.395   3.814
58436SOL    HW277148  10.672   6.435   3.830
58437SOL     OW77149  12.095   3.595   3.391
58437SOL    HW177150  12.083   3.550   3.307
58437SOL    HW277151  12.051   3.538   3.455
58438SOL     OW77152  12.333   7.958   1.464
58438SOL    HW177153  12.353   8.001   1.382
58438SOL    HW277154  12.330   8.029   1.529
58439SOL     OW77155   5.953   6.499   0.917
58439SOL    HW177156   5.984   6.416   0.881
58439SOL    HW277157   5.955   6.487   1.012
58440SOL     OW77158   3.278   6.720   2.241
58440SOL    HW177159   3.300   6.632   2.273
58440SOL    HW277160   3.187   6.733   2.267
58441SOL     OW77161  14.462   4.997   4.797
58441SOL    HW177162  14.498   5.033   4.716
58441SOL    HW277163  14.488   5.059   4.865
58442SOL     OW77164   4.378   2.566   1.042
58442SOL    HW177165   4.392   2.631   0.973
58442SOL    HW277166   4.284   2.548   1.039
58443SOL     OW77167   3.876  13.903   9.451
58443SOL    HW177168   3.861  13.991   9.484
58443SOL    HW277169   3.806  13.890   9.386
58444SOL     OW77170   4.523   6.786   1.962
58444SOL    HW177171   4.463   6.829   2.023
58444SOL    HW277172   4.468   6.728   1.910
58445SOL     OW77173  14.651   9.967   3.419
58445SOL    HW177174  14.594   9.996   3.491
58445SOL    HW277175  14.662  10.045   3.364
58446SOL     OW77176   6.489  11.420  12.049
58446SOL    HW177177   6.565  11.474  12.027
58446SOL    HW277178   6.526  11.342  12.090
58447SOL     OW77179   3.972   5.694  13.941
58447SOL    HW177180   4.051   5.653  13.906
58447SOL    HW277181   3.950   5.762  13.877
58448SOL     OW77182   2.123   8.953   2.777
58448SOL    HW177183   2.208   8.988   2.806
58448SOL    HW277184   2.146   8.875   2.726
58449SOL     OW77185   2.426   1.603  10.063
58449SOL    HW177186   2.360   1.670  10.047
58449SOL    HW277187   2.502   1.632  10.013
58450SOL     OW77188  14.161  14.879  12.546
58450SOL    HW177189  14.172   0.065  12.480
58450SOL    HW277190  14.079  14.836  12.524
58451SOL     OW77191   2.252  14.049   9.870
58451SOL    HW177192   2.307  14.031   9.947
58451SOL    HW277193   2.176  14.096   9.905
58452SOL     OW77194   5.335   0.403  11.554
58452SOL    HW177195   5.384   0.323  11.574
58452SOL    HW277196   5.258   0.372  11.507
58453SOL     OW77197  13.179   3.843  14.240
58453SOL    HW177198  13.139   3.861  14.325
58453SOL    HW277199  13.106   3.815  14.184
58454SOL     OW77200   5.293  12.341   8.426
58454SOL    HW177201   5.374  12.373   8.387
58454SOL    HW277202   5.315  12.253   8.457
58455SOL     OW77203  13.849   6.894  13.431
58455SOL    HW177204  13.791   6.828  13.469
58455SOL    HW277205  13.923   6.899  13.492
58456SOL     OW77206   3.797  11.753   3.689
58456SOL    HW177207   3.722  11.799   3.653
58456SOL    HW277208   3.858  11.745   3.615
58457SOL     OW77209  11.371  12.758   1.527
58457SOL    HW177210  11.278  12.744   1.547
58457SOL    HW277211  11.375  12.848   1.495
58458SOL     OW77212   9.708   7.961   3.643
58458SOL    HW177213   9.803   7.954   3.642
58458SOL    HW277214   9.679   7.878   3.680
58459SOL     OW77215  11.384  13.628   7.342
58459SOL    HW177216  11.318  13.692   7.315
58459SOL    HW277217  11.361  13.605   7.432
58460SOL     OW77218   4.469  12.639   8.709
58460SOL    HW177219   4.378  12.647   8.682
58460SOL    HW277220   4.518  12.693   8.648
58461SOL     OW77221   8.114   1.886  14.439
58461SOL    HW177222   8.197   1.879  14.392
58461SOL    HW277223   8.065   1.953  14.392
58462SOL     OW77224   7.474   1.866  11.572
58462SOL    HW177225   7.519   1.948  11.549
58462SOL    HW277226   7.540   1.798  11.559
58463SOL     OW77227   9.363   5.210  13.288
58463SOL    HW177228   9.332   5.204  13.378
58463SOL    HW277229   9.284   5.220  13.236
58464SOL     OW77230   6.080  13.390  13.932
58464SOL    HW177231   6.004  13.428  13.978
58464SOL    HW277232   6.092  13.447  13.856
58465SOL     OW77233   7.556  13.965   6.832
58465SOL    HW177234   7.646  13.991   6.815
58465SOL    HW277235   7.506  14.046   6.823
58466SOL     OW77236   3.864   1.376   5.238
58466SOL    HW177237   3.801   1.338   5.177
58466SOL    HW277238   3.848   1.331   5.321
58467SOL     OW77239   0.176   2.264  12.262
58467SOL    HW177240   0.119   2.192  12.288
58467SOL    HW277241   0.148   2.338  12.316
58468SOL     OW77242   4.440  10.830   3.373
58468SOL    HW177243   4.507  10.896   3.391
58468SOL    HW277244   4.364  10.881   3.343
58469SOL     OW77245  10.160   0.197  11.805
58469SOL    HW177246  10.149   0.203  11.710
58469SOL    HW277247  10.251   0.169  11.817
58470SOL     OW77248  12.344   6.391   1.422
58470SOL    HW177249  12.334   6.297   1.439
58470SOL    HW277250  12.351   6.430   1.509
58471SOL     OW77251   8.679   2.586  12.887
58471SOL    HW177252   8.649   2.576  12.796
58471SOL    HW277253   8.617   2.647  12.926
58472SOL     OW77254  14.187  11.784   1.194
58472SOL    HW177255  14.271  11.760   1.235
58472SOL    HW277256  14.202  11.773   1.100
58473SOL     OW77257   6.851   0.291   5.637
58473SOL    HW177258   6.828   0.333   5.554
58473SOL    HW277259   6.944   0.268   5.626
58474SOL     OW77260   6.869  12.913   1.801
58474SOL    HW177261   6.826  12.994   1.774
58474SOL    HW277262   6.962  12.931   1.791
58475SOL     OW77263   3.241   0.261   7.745
58475SOL    HW177264   3.183   0.185   7.754
58475SOL    HW277265   3.328   0.228   7.768
58476SOL     OW77266  12.995  13.761   6.253
58476SOL    HW177267  12.909  13.722   6.238
58476SOL    HW277268  12.999  13.836   6.193
58477SOL     OW77269   7.837   8.585   1.821
58477SOL    HW177270   7.877   8.533   1.892
58477SOL    HW277271   7.821   8.670   1.860
58478SOL     OW77272  14.611   6.921   6.613
58478SOL    HW177273  14.620   6.844   6.557
58478SOL    HW277274  14.517   6.932   6.624
58479SOL     OW77275   9.806   9.807   7.644
58479SOL    HW177276   9.780   9.715   7.636
58479SOL    HW277277   9.830   9.817   7.736
58480SOL     OW77278  11.646   9.083   5.460
58480SOL    HW177279  11.713   9.069   5.526
58480SOL    HW277280  11.586   9.009   5.470
58481SOL     OW77281   5.577   8.176  10.608
58481SOL    HW177282   5.620   8.131  10.681
58481SOL    HW277283   5.499   8.215  10.646
58482SOL     OW77284   9.721   4.933   0.560
58482SOL    HW177285   9.691   4.848   0.593
58482SOL    HW277286   9.772   4.912   0.483
58483SOL     OW77287   6.189   4.497  10.990
58483SOL    HW177288   6.106   4.465  11.027
58483SOL    HW277289   6.202   4.441  10.913
58484SOL     OW77290   0.462  10.211  14.202
58484SOL    HW177291   0.443  10.274  14.271
58484SOL    HW277292   0.555  10.191  14.212
58485SOL     OW77293   8.959  13.194   6.945
58485SOL    HW177294   8.964  13.254   7.020
58485SOL    HW277295   8.876  13.148   6.956
58486SOL     OW77296   1.094   2.457   9.931
58486SOL    HW177297   1.033   2.515   9.886
58486SOL    HW277298   1.080   2.371   9.891
58487SOL     OW77299  10.766  14.161  13.954
58487SOL    HW177300  10.678  14.122  13.958
58487SOL    HW277301  10.824  14.087  13.935
58488SOL     OW77302  13.879   6.681   4.246
58488SOL    HW177303  13.851   6.589   4.246
58488SOL    HW277304  13.868   6.710   4.155
58489SOL     OW77305   8.350   8.796  12.726
58489SOL    HW177306   8.356   8.853  12.803
58489SOL    HW277307   8.440   8.771  12.708
58490SOL     OW77308   5.013   8.264   6.672
58490SOL    HW177309   4.995   8.210   6.595
58490SOL    HW277310   5.069   8.209   6.727
58491SOL     OW77311   6.833  14.225   4.420
58491SOL    HW177312   6.843  14.192   4.509
58491SOL    HW277313   6.832  14.147   4.365
58492SOL     OW77314   9.564  14.031   9.956
58492SOL    HW177315   9.617  14.002  10.030
58492SOL    HW277316   9.624  14.085   9.903
58493SOL     OW77317   4.072  10.230   5.651
58493SOL    HW177318   4.006  10.184   5.704
58493SOL    HW277319   4.124  10.278   5.715
58494SOL     OW77320  12.833   6.989   4.502
58494SOL    HW177321  12.852   7.071   4.548
58494SOL    HW277322  12.915   6.964   4.461
58495SOL     OW77323   1.956   9.792  13.607
58495SOL    HW177324   2.022   9.824  13.545
58495SOL    HW277325   1.924   9.871  13.650
58496SOL     OW77326   6.012   1.639   2.911
58496SOL    HW177327   6.036   1.615   3.001
58496SOL    HW277328   5.929   1.594   2.895
58497SOL     OW77329   1.364   6.112   3.514
58497SOL    HW177330   1.423   6.102   3.589
58497SOL    HW277331   1.302   6.179   3.541
58498SOL     OW77332   4.911  14.268   6.769
58498SOL    HW177333   4.868  14.263   6.684
58498SOL    HW277334   4.905  14.179   6.804
58499SOL     OW77335   5.143  13.722   8.330
58499SOL    HW177336   5.175  13.632   8.317
58499SOL    HW277337   5.217  13.767   8.371
58500SOL     OW77338  12.562   7.770  13.158
58500SOL    HW177339  12.479   7.812  13.178
58500SOL    HW277340  12.619   7.793  13.232
58501SOL     OW77341   9.585   4.341  13.674
58501SOL    HW177342   9.578   4.275  13.743
58501SOL    HW277343   9.610   4.293  13.596
58502SOL     OW77344   0.499   6.149   2.171
58502SOL    HW177345   0.473   6.080   2.233
58502SOL    HW277346   0.422   6.206   2.166
58503SOL     OW77347   5.572   5.776   5.197
58503SOL    HW177348   5.660   5.743   5.178
58503SOL    HW277349   5.526   5.770   5.114
58504SOL     OW77350   6.018   0.420   0.826
58504SOL    HW177351   6.101   0.392   0.786
58504SOL    HW277352   5.956   0.421   0.753
58505SOL     OW77353   7.219   2.479   3.295
58505SOL    HW177354   7.151   2.479   3.362
58505SOL    HW277355   7.200   2.557   3.242
58506SOL     OW77356   7.703   2.895   2.953
58506SOL    HW177357   7.745   2.822   2.999
58506SOL    HW277358   7.740   2.973   2.995
58507SOL     OW77359   7.508  14.180  11.097
58507SOL    HW177360   7.537  14.219  11.015
58507SOL    HW277361   7.437  14.121  11.071
58508SOL     OW77362  11.307   0.790   7.678
58508SOL    HW177363  11.220   0.766   7.712
58508SOL    HW277364  11.362   0.715   7.698
58509SOL     OW77365   9.159  14.063   8.130
58509SOL    HW177366   9.097  14.045   8.201
58509SOL    HW277367   9.104  14.093   8.058
58510SOL     OW77368  14.163   2.873   9.509
58510SOL    HW177369  14.115   2.821   9.445
58510SOL    HW277370  14.223   2.811   9.551
58511SOL     OW77371   5.522   0.401   6.884
58511SOL    HW177372   5.544   0.310   6.901
58511SOL    HW277373   5.590   0.451   6.930
58512SOL     OW77374   3.645  11.596   6.194
58512SOL    HW177375   3.716  11.648   6.156
58512SOL    HW277376   3.568  11.616   6.140
58513SOL     OW77377   7.301   4.899  11.438
58513SOL    HW177378   7.314   4.917  11.345
58513SOL    HW277379   7.250   4.817  11.440
58514SOL     OW77380   5.966   0.522   7.847
58514SOL    HW177381   5.998   0.474   7.923
58514SOL    HW277382   5.920   0.456   7.794
58515SOL     OW77383   2.364  11.738   8.246
58515SOL    HW177384   2.285  11.779   8.280
58515SOL    HW277385   2.418  11.811   8.215
58516SOL     OW77386   4.500   6.525   3.235
58516SOL    HW177387   4.423   6.578   3.256
58516SOL    HW277388   4.538   6.568   3.159
58517SOL     OW77389   9.836   7.598   6.901
58517SOL    HW177390   9.927   7.594   6.930
58517SOL    HW277391   9.832   7.539   6.825
58518SOL     OW77392  11.787   9.739  13.870
58518SOL    HW177393  11.716   9.723  13.809
58518SOL    HW277394  11.866   9.739  13.815
58519SOL     OW77395   3.967  14.015   7.983
58519SOL    HW177396   3.918  13.955   7.926
58519SOL    HW277397   3.930  14.101   7.964
58520SOL     OW77398   7.046   8.643   1.162
58520SOL    HW177399   7.023   8.550   1.171
58520SOL    HW277400   7.117   8.644   1.098
58521SOL     OW77401  11.752   1.660  10.344
58521SOL    HW177402  11.701   1.588  10.305
58521SOL    HW277403  11.690   1.733  10.349
58522SOL     OW77404  14.013   8.109  12.899
58522SOL    HW177405  13.965   8.173  12.846
58522SOL    HW277406  14.016   8.030  12.845
58523SOL     OW77407  12.951   0.272  12.297
58523SOL    HW177408  12.960   0.178  12.313
58523SOL    HW277409  13.019   0.292  12.232
58524SOL     OW77410   3.655   7.721   2.032
58524SOL    HW177411   3.749   7.718   2.046
58524SOL    HW277412   3.627   7.800   2.078
58525SOL     OW77413  12.706   3.197   7.170
58525SOL    HW177414  12.647   3.200   7.245
58525SOL    HW277415  12.766   3.125   7.188
58526SOL     OW77416  10.653   5.447   5.296
58526SOL    HW177417  10.644   5.506   5.371
58526SOL    HW277418  10.679   5.504   5.224
58527SOL     OW77419   4.409  11.429   7.742
58527SOL    HW177420   4.353  11.468   7.809
58527SOL    HW277421   4.429  11.341   7.775
58528SOL     OW77422  14.486   6.337  14.223
58528SOL    HW177423  14.558   6.399  14.213
58528SOL    HW277424  14.413   6.376  14.174
58529SOL     OW77425  11.971  13.451   7.424
58529SOL    HW177426  11.885  13.488   7.445
58529SOL    HW277427  12.031  13.526   7.425
58530SOL     OW77428   4.276   2.002  11.098
58530SOL    HW177429   4.320   1.919  11.080
58530SOL    HW277430   4.345   2.068  11.093
58531SOL     OW77431   9.970   5.309  12.522
58531SOL    HW177432   9.929   5.331  12.606
58531SOL    HW277433   9.896   5.303  12.460
58532SOL     OW77434  10.658   3.695  12.298
58532SOL    HW177435  10.735   3.653  12.338
58532SOL    HW277436  10.609   3.731  12.372
58533SOL     OW77437   8.250   4.814   6.418
58533SOL    HW177438   8.157   4.821   6.394
58533SOL    HW277439   8.296   4.860   6.348
58534SOL     OW77440   9.576   8.838   9.574
58534SOL    HW177441   9.519   8.820   9.649
58534SOL    HW277442   9.561   8.930   9.554
58535SOL     OW77443  10.022   8.524   9.471
58535SOL    HW177444  10.012   8.436   9.437
58535SOL    HW277445  10.003   8.581   9.397
58536SOL     OW77446  10.670   1.525   6.630
58536SOL    HW177447  10.746   1.485   6.672
58536SOL    HW277448  10.693   1.617   6.620
58537SOL     OW77449  10.676   8.142  14.109
58537SOL    HW177450  10.713   8.055  14.123
58537SOL    HW277451  10.749   8.201  14.123
58538SOL     OW77452   3.993  13.105  11.789
58538SOL    HW177453   4.055  13.043  11.751
58538SOL    HW277454   3.986  13.079  11.881
58539SOL     OW77455  13.709  12.520   4.942
58539SOL    HW177456  13.639  12.545   5.002
58539SOL    HW277457  13.669  12.522   4.855
58540SOL     OW77458   2.419  10.553   7.941
58540SOL    HW177459   2.412  10.564   7.846
58540SOL    HW277460   2.351  10.490   7.963
58541SOL     OW77461   3.419   1.602  14.124
58541SOL    HW177462   3.350   1.558  14.073
58541SOL    HW277463   3.377   1.626  14.206
58542SOL     OW77464  11.344   8.347   1.329
58542SOL    HW177465  11.301   8.413   1.384
58542SOL    HW277466  11.422   8.391   1.295
58543SOL     OW77467  10.989   5.884   5.874
58543SOL    HW177468  11.040   5.840   5.942
58543SOL    HW277469  11.000   5.977   5.893
58544SOL     OW77470   0.145  13.303   3.988
58544SOL    HW177471   0.223  13.358   3.985
58544SOL    HW277472   0.175  13.221   4.026
58545SOL     OW77473   8.957   4.636   7.669
58545SOL    HW177474   8.953   4.714   7.613
58545SOL    HW277475   9.040   4.595   7.647
58546SOL     OW77476   7.828   9.906   7.163
58546SOL    HW177477   7.897   9.884   7.099
58546SOL    HW277478   7.779   9.825   7.175
58547SOL     OW77479   8.784  14.224  10.449
58547SOL    HW177480   8.698  14.258  10.424
58547SOL    HW277481   8.840  14.243  10.373
58548SOL     OW77482   3.855   9.656  12.030
58548SOL    HW177483   3.801   9.734  12.021
58548SOL    HW277484   3.824   9.598  11.960
58549SOL     OW77485   0.856   1.855   6.820
58549SOL    HW177486   0.941   1.899   6.814
58549SOL    HW277487   0.810   1.902   6.889
58550SOL     OW77488   8.659   6.477   7.408
58550SOL    HW177489   8.717   6.524   7.348
58550SOL    HW277490   8.603   6.425   7.351
58551SOL     OW77491   9.439   5.888  11.535
58551SOL    HW177492   9.429   5.978  11.505
58551SOL    HW277493   9.350   5.853  11.539
58552SOL     OW77494   6.245  11.624  11.148
58552SOL    HW177495   6.272  11.715  11.137
58552SOL    HW277496   6.197  11.603  11.068
58553SOL     OW77497   2.252   9.852   0.420
58553SOL    HW177498   2.333   9.902   0.417
58553SOL    HW277499   2.220   9.852   0.330
58554SOL     OW77500   1.215  11.647   2.430
58554SOL    HW177501   1.294  11.678   2.385
58554SOL    HW277502   1.208  11.703   2.507
58555SOL     OW77503   8.344  13.284   0.540
58555SOL    HW177504   8.270  13.223   0.543
58555SOL    HW277505   8.422  13.228   0.545
58556SOL     OW77506   7.745   9.613  12.630
58556SOL    HW177507   7.796   9.694  12.630
58556SOL    HW277508   7.800   9.550  12.675
58557SOL     OW77509  13.299  11.363   6.947
58557SOL    HW177510  13.327  11.418   7.021
58557SOL    HW277511  13.287  11.424   6.875
58558SOL     OW77512   4.977  14.151   9.028
58558SOL    HW177513   5.068  14.183   9.031
58558SOL    HW277514   4.931  14.204   9.092
58559SOL     OW77515   5.931   3.465   8.039
58559SOL    HW177516   5.955   3.549   7.998
58559SOL    HW277517   5.895   3.413   7.967
58560SOL     OW77518  14.637  13.574   9.829
58560SOL    HW177519  14.682  13.499   9.867
58560SOL    HW277520  14.695  13.602   9.758
58561SOL     OW77521   7.471   1.765   9.862
58561SOL    HW177522   7.430   1.847   9.889
58561SOL    HW277523   7.513   1.731   9.941
58562SOL     OW77524   1.966   4.697  13.269
58562SOL    HW177525   2.033   4.639  13.305
58562SOL    HW277526   1.905   4.638  13.224
58563SOL     OW77527  12.260   2.305   2.300
58563SOL    HW177528  12.339   2.325   2.351
58563SOL    HW277529  12.266   2.212   2.283
58564SOL     OW77530  11.422  10.246  13.909
58564SOL    HW177531  11.372  10.167  13.887
58564SOL    HW277532  11.441  10.287  13.825
58565SOL     OW77533   1.902   0.924  10.692
58565SOL    HW177534   1.974   0.881  10.646
58565SOL    HW277535   1.936   0.942  10.780
58566SOL     OW77536   3.471   9.856  13.667
58566SOL    HW177537   3.417   9.888  13.739
58566SOL    HW277538   3.410   9.846  13.594
58567SOL     OW77539  14.561   9.780  11.053
58567SOL    HW177540  14.621   9.771  10.979
58567SOL    HW277541  14.535   9.872  11.051
58568SOL     OW77542   9.159   0.850  10.342
58568SOL    HW177543   9.167   0.940  10.309
58568SOL    HW277544   9.074   0.820  10.310
58569SOL     OW77545   8.737   3.184   2.086
58569SOL    HW177546   8.778   3.257   2.132
58569SOL    HW277547   8.790   3.108   2.109
58570SOL     OW77548  11.261   1.679  14.674
58570SOL    HW177549  11.227   1.751  14.621
58570SOL    HW277550  11.185   1.649  14.725
58571SOL     OW77551  12.124   2.152   7.088
58571SOL    HW177552  12.174   2.231   7.065
58571SOL    HW277553  12.033   2.178   7.080
58572SOL     OW77554   8.270  13.329   6.554
58572SOL    HW177555   8.343  13.350   6.497
58572SOL    HW277556   8.262  13.234   6.549
58573SOL     OW77557  11.171   5.524  12.770
58573SOL    HW177558  11.199   5.435  12.747
58573SOL    HW277559  11.091   5.537  12.719
58574SOL     OW77560   1.802  10.994   1.206
58574SOL    HW177561   1.719  11.031   1.177
58574SOL    HW277562   1.831  11.051   1.277
58575SOL     OW77563   6.256   3.797   8.972
58575SOL    HW177564   6.294   3.791   8.885
58575SOL    HW277565   6.319   3.848   9.023
58576SOL     OW77566   5.896   2.474   3.001
58576SOL    HW177567   5.895   2.386   3.040
58576SOL    HW277568   5.981   2.510   3.024
58577SOL     OW77569   1.739  13.842   0.524
58577SOL    HW177570   1.824  13.825   0.484
58577SOL    HW277571   1.696  13.756   0.527
58578SOL     OW77572   5.126  11.946  11.970
58578SOL    HW177573   5.184  11.957  11.895
58578SOL    HW277574   5.038  11.942  11.933
58579SOL     OW77575  14.513  10.589   3.331
58579SOL    HW177576  14.430  10.560   3.369
58579SOL    HW277577  14.578  10.528   3.367
58580SOL     OW77578   4.955   3.523   0.736
58580SOL    HW177579   4.877   3.470   0.721
58580SOL    HW277580   4.922   3.611   0.751
58581SOL     OW77581   4.148  10.645   6.221
58581SOL    HW177582   4.239  10.645   6.251
58581SOL    HW277583   4.110  10.565   6.258
58582SOL     OW77584  11.663  14.334   9.208
58582SOL    HW177585  11.674  14.242   9.184
58582SOL    HW277586  11.748  14.360   9.243
58583SOL     OW77587   4.450  14.136  12.851
58583SOL    HW177588   4.544  14.118  12.855
58583SOL    HW277589   4.408  14.050  12.856
58584SOL     OW77590  14.051   9.799   2.515
58584SOL    HW177591  14.000   9.735   2.565
58584SOL    HW277592  14.117   9.831   2.577
58585SOL     OW77593  13.097  14.270   4.695
58585SOL    HW177594  13.054  14.187   4.718
58585SOL    HW277595  13.026  14.333   4.688
58586SOL     OW77596  12.816  10.135  12.298
58586SOL    HW177597  12.811  10.153  12.392
58586SOL    HW277598  12.774  10.050  12.287
58587SOL     OW77599   3.629   9.191   0.565
58587SOL    HW177600   3.718   9.215   0.591
58587SOL    HW277601   3.613   9.107   0.609
58588SOL     OW77602  13.752   1.871   4.320
58588SOL    HW177603  13.685   1.940   4.322
58588SOL    HW277604  13.835   1.917   4.318
58589SOL     OW77605  13.592   1.913   8.295
58589SOL    HW177606  13.659   1.904   8.227
58589SOL    HW277607  13.587   1.826   8.335
58590SOL     OW77608   5.821   9.018   7.560
58590SOL    HW177609   5.738   8.988   7.523
58590SOL    HW277610   5.798   9.049   7.648
58591SOL     OW77611   9.154   5.809   8.670
58591SOL    HW177612   9.070   5.788   8.711
58591SOL    HW277613   9.218   5.758   8.719
58592SOL     OW77614  10.436   8.368   5.604
58592SOL    HW177615  10.349   8.403   5.588
58592SOL    HW277616  10.479   8.435   5.657
58593SOL     OW77617  11.897  12.049   1.236
58593SOL    HW177618  11.815  12.097   1.231
58593SOL    HW277619  11.877  11.973   1.291
58594SOL     OW77620   0.729   0.462  12.907
58594SOL    HW177621   0.752   0.441  12.997
58594SOL    HW277622   0.638   0.435  12.898
58595SOL     OW77623   7.892  11.796   8.878
58595SOL    HW177624   7.841  11.715   8.884
58595SOL    HW277625   7.955  11.789   8.950
58596SOL     OW77626   7.622  14.632   6.957
58596SOL    HW177627   7.605  14.547   6.998
58596SOL    HW277628   7.698  14.667   7.004
58597SOL     OW77629  11.715  10.915   3.640
58597SOL    HW177630  11.718  10.994   3.585
58597SOL    HW277631  11.800  10.873   3.625
58598SOL     OW77632  12.681   4.106   9.968
58598SOL    HW177633  12.694   4.012   9.983
58598SOL    HW277634  12.671   4.142  10.056
58599SOL     OW77635   3.192   6.067   8.826
58599SOL    HW177636   3.139   6.146   8.829
58599SOL    HW277637   3.167   6.025   8.743
58600SOL     OW77638   9.053   8.272  12.592
58600SOL    HW177639   8.986   8.315  12.538
58600SOL    HW277640   9.027   8.291  12.682
58601SOL     OW77641   1.392   3.093   6.602
58601SOL    HW177642   1.305   3.114   6.566
58601SOL    HW277643   1.393   3.137   6.687
58602SOL     OW77644   3.655   5.382   2.544
58602SOL    HW177645   3.681   5.308   2.489
58602SOL    HW277646   3.738   5.420   2.573
58603SOL     OW77647   0.920   5.215  10.878
58603SOL    HW177648   1.014   5.209  10.894
58603SOL    HW277649   0.908   5.179  10.790
58604SOL     OW77650   8.399   0.816  12.453
58604SOL    HW177651   8.430   0.861  12.531
58604SOL    HW277652   8.380   0.727  12.481
58605SOL     OW77653   6.272   2.007   1.773
58605SOL    HW177654   6.240   1.980   1.859
58605SOL    HW277655   6.311   1.928   1.736
58606SOL     OW77656   6.328   1.994   2.217
58606SOL    HW177657   6.269   2.043   2.275
58606SOL    HW277658   6.285   1.996   2.132
58607SOL     OW77659   0.441   7.022  13.115
58607SOL    HW177660   0.481   7.030  13.202
58607SOL    HW277661   0.375   6.954  13.125
58608SOL     OW77662   8.542   3.028  14.791
58608SOL    HW177663   8.573   2.993  14.708
58608SOL    HW277664   8.525   3.121  14.773
58609SOL     OW77665   5.329   1.745   3.306
58609SOL    HW177666   5.416   1.782   3.289
58609SOL    HW277667   5.275   1.821   3.329
58610SOL     OW77668  14.099   1.775   0.087
58610SOL    HW177669  14.115   1.835   0.161
58610SOL    HW277670  14.185   1.738   0.068
58611SOL     OW77671  10.437  13.808   3.599
58611SOL    HW177672  10.437  13.900   3.625
58611SOL    HW277673  10.393  13.763   3.671
58612SOL     OW77674   0.146   6.022   3.839
58612SOL    HW177675   0.089   6.046   3.766
58612SOL    HW277676   0.167   5.930   3.824
58613SOL     OW77677   8.378   3.339   2.732
58613SOL    HW177678   8.438   3.269   2.709
58613SOL    HW277679   8.372   3.394   2.653
58614SOL     OW77680   6.245   3.542   4.475
58614SOL    HW177681   6.192   3.464   4.487
58614SOL    HW277682   6.290   3.555   4.559
58615SOL     OW77683  13.875   4.280   8.468
58615SOL    HW177684  13.866   4.187   8.449
58615SOL    HW277685  13.811   4.323   8.411
58616SOL     OW77686   4.634   3.297   9.515
58616SOL    HW177687   4.596   3.364   9.571
58616SOL    HW277688   4.728   3.302   9.531
58617SOL     OW77689   6.959  12.435   8.874
58617SOL    HW177690   6.883  12.483   8.907
58617SOL    HW277691   7.002  12.401   8.952
58618SOL     OW77692   5.138   5.512   1.302
58618SOL    HW177693   5.079   5.585   1.318
58618SOL    HW277694   5.208   5.523   1.366
58619SOL     OW77695   5.860   5.754   8.336
58619SOL    HW177696   5.951   5.776   8.319
58619SOL    HW277697   5.819   5.837   8.361
58620SOL     OW77698   5.794   7.616   9.937
58620SOL    HW177699   5.845   7.535   9.929
58620SOL    HW277700   5.762   7.614  10.027
58621SOL     OW77701   9.275   4.144   9.630
58621SOL    HW177702   9.247   4.098   9.551
58621SOL    HW277703   9.336   4.210   9.598
58622SOL     OW77704   9.592  13.302   1.858
58622SOL    HW177705   9.590  13.256   1.942
58622SOL    HW277706   9.684  13.325   1.845
58623SOL     OW77707   3.591  14.623  10.516
58623SOL    HW177708   3.499  14.612  10.539
58623SOL    HW277709   3.619  14.536  10.487
58624SOL     OW77710   4.447   9.569  14.263
58624SOL    HW177711   4.412   9.481  14.274
58624SOL    HW277712   4.523   9.558  14.206
58625SOL     OW77713   1.775  12.928  11.355
58625SOL    HW177714   1.843  12.987  11.386
58625SOL    HW277715   1.786  12.849  11.408
58626SOL     OW77716   8.149  11.102  11.768
58626SOL    HW177717   8.213  11.060  11.711
58626SOL    HW277718   8.091  11.150  11.709
58627SOL     OW77719  11.958  10.661  14.467
58627SOL    HW177720  11.889  10.720  14.497
58627SOL    HW277721  12.034  10.684  14.520
58628SOL     OW77722  14.302   0.636   0.442
58628SOL    HW177723  14.219   0.658   0.483
58628SOL    HW277724  14.344   0.721   0.427
58629SOL     OW77725   0.425   2.052   0.800
58629SOL    HW177726   0.436   2.128   0.858
58629SOL    HW277727   0.379   2.086   0.724
58630SOL     OW77728   2.829   9.776   3.879
58630SOL    HW177729   2.882   9.702   3.909
58630SOL    HW277730   2.794   9.814   3.960
58631SOL     OW77731   5.283   8.796  14.601
58631SOL    HW177732   5.326   8.720  14.640
58631SOL    HW277733   5.320   8.803  14.513
58632SOL     OW77734  10.771  12.770   4.866
58632SOL    HW177735  10.805  12.857   4.844
58632SOL    HW277736  10.812  12.749   4.950
58633SOL     OW77737   3.275   9.907  13.911
58633SOL    HW177738   3.204   9.964  13.880
58633SOL    HW277739   3.230   9.832  13.950
58634SOL     OW77740   7.673   1.584   0.636
58634SOL    HW177741   7.709   1.540   0.559
58634SOL    HW277742   7.604   1.639   0.601
58635SOL     OW77743   5.189   3.017  13.054
58635SOL    HW177744   5.099   3.034  13.081
58635SOL    HW277745   5.184   3.011  12.959
58636SOL     OW77746  11.230   4.262   6.382
58636SOL    HW177747  11.324   4.246   6.390
58636SOL    HW277748  11.190   4.205   6.449
58637SOL     OW77749   0.850   8.162   5.632
58637SOL    HW177750   0.818   8.088   5.685
58637SOL    HW277751   0.940   8.138   5.610
58638SOL     OW77752   5.514   3.846   9.563
58638SOL    HW177753   5.424   3.838   9.595
58638SOL    HW277754   5.519   3.936   9.529
58639SOL     OW77755   6.363   5.029   3.293
58639SOL    HW177756   6.455   5.005   3.282
58639SOL    HW277757   6.335   4.981   3.371
58640SOL     OW77758  10.540   6.443   6.514
58640SOL    HW177759  10.592   6.520   6.492
58640SOL    HW277760  10.599   6.369   6.499
58641SOL     OW77761   9.968   5.007   3.775
58641SOL    HW177762  10.044   5.005   3.834
58641SOL    HW277763   9.926   4.922   3.788
58642SOL     OW77764   9.068   7.706  12.574
58642SOL    HW177765   9.087   7.612  12.570
58642SOL    HW277766   9.030   7.727  12.489
58643SOL     OW77767   1.458   0.919  14.315
58643SOL    HW177768   1.411   0.929  14.232
58643SOL    HW277769   1.397   0.871  14.371
58644SOL     OW77770  12.030   5.206  10.225
58644SOL    HW177771  11.951   5.214  10.279
58644SOL    HW277772  12.088   5.150  10.277
58645SOL     OW77773   5.533   9.314   5.731
58645SOL    HW177774   5.588   9.250   5.774
58645SOL    HW277775   5.463   9.332   5.794
58646SOL     OW77776  11.465   7.566  11.309
58646SOL    HW177777  11.493   7.644  11.259
58646SOL    HW277778  11.492   7.585  11.399
58647SOL     OW77779  10.969   3.767   4.192
58647SOL    HW177780  10.906   3.728   4.131
58647SOL    HW277781  11.021   3.693   4.224
58648SOL     OW77782   6.308  14.162  14.002
58648SOL    HW177783   6.338  14.107  13.930
58648SOL    HW277784   6.227  14.121  14.032
58649SOL     OW77785  14.521   3.973  14.015
58649SOL    HW177786  14.501   4.067  14.022
58649SOL    HW277787  14.445   3.929  14.051
58650SOL     OW77788   4.070  12.658   0.464
58650SOL    HW177789   4.038  12.590   0.404
58650SOL    HW277790   4.065  12.617   0.550
58651SOL     OW77791  12.298   9.122  14.279
58651SOL    HW177792  12.210   9.089  14.259
58651SOL    HW277793  12.282   9.205  14.325
58652SOL     OW77794   8.455   7.151  14.230
58652SOL    HW177795   8.399   7.224  14.203
58652SOL    HW277796   8.535   7.192  14.261
58653SOL     OW77797  12.500   8.627  13.244
58653SOL    HW177798  12.448   8.547  13.253
58653SOL    HW277799  12.436   8.697  13.233
58654SOL     OW77800   5.822  12.770  13.144
58654SOL    HW177801   5.794  12.778  13.053
58654SOL    HW277802   5.757  12.712  13.184
58655SOL     OW77803   4.037   9.255   2.306
58655SOL    HW177804   4.009   9.305   2.229
58655SOL    HW277805   4.127   9.230   2.287
58656SOL     OW77806  11.897  10.827   5.492
58656SOL    HW177807  11.916  10.906   5.542
58656SOL    HW277808  11.956  10.761   5.529
58657SOL     OW77809   2.072   8.793   7.185
58657SOL    HW177810   2.166   8.784   7.174
58657SOL    HW277811   2.060   8.818   7.276
58658SOL     OW77812   3.139  14.432  14.645
58658SOL    HW177813   3.121  14.417  14.738
58658SOL    HW277814   3.194  14.359  14.619
58659SOL     OW77815   6.307  13.998   4.282
58659SOL    HW177816   6.378  13.963   4.335
58659SOL    HW277817   6.325  13.967   4.193
58660SOL     OW77818   2.583   8.078   9.028
58660SOL    HW177819   2.660   8.134   9.042
58660SOL    HW277820   2.596   8.041   8.940
58661SOL     OW77821   4.473   8.047   0.824
58661SOL    HW177822   4.398   8.095   0.790
58661SOL    HW277823   4.546   8.073   0.769
58662SOL     OW77824   5.351  11.599   9.557
58662SOL    HW177825   5.282  11.576   9.619
58662SOL    HW277826   5.432  11.572   9.601
58663SOL     OW77827  14.766  11.753   4.180
58663SOL    HW177828  14.787  11.694   4.252
58663SOL    HW277829  14.671  11.760   4.181
58664SOL     OW77830   9.718  10.407   1.147
58664SOL    HW177831   9.750  10.336   1.091
58664SOL    HW277832   9.683  10.362   1.224
58665SOL     OW77833  12.663   0.257   2.585
58665SOL    HW177834  12.622   0.201   2.519
58665SOL    HW277835  12.615   0.340   2.580
58666SOL     OW77836   7.872   8.209   2.847
58666SOL    HW177837   7.783   8.243   2.837
58666SOL    HW277838   7.882   8.147   2.775
58667SOL     OW77839   1.857   8.800   5.940
58667SOL    HW177840   1.804   8.720   5.937
58667SOL    HW277841   1.819   8.856   5.872
58668SOL     OW77842   0.961   3.514   6.609
58668SOL    HW177843   1.045   3.495   6.567
58668SOL    HW277844   0.905   3.547   6.539
58669SOL     OW77845   4.939   3.978  14.040
58669SOL    HW177846   4.855   4.024  14.028
58669SOL    HW277847   4.916   3.885  14.034
58670SOL     OW77848   8.191  11.850   3.660
58670SOL    HW177849   8.132  11.848   3.585
58670SOL    HW277850   8.260  11.788   3.638
58671SOL     OW77851   4.708  14.302   3.863
58671SOL    HW177852   4.618  14.295   3.895
58671SOL    HW277853   4.721  14.396   3.849
58672SOL     OW77854   0.389   2.101  10.141
58672SOL    HW177855   0.377   2.017  10.096
58672SOL    HW277856   0.310   2.110  10.195
58673SOL     OW77857   4.763   5.619   3.174
58673SOL    HW177858   4.836   5.624   3.236
58673SOL    HW277859   4.763   5.704   3.130
58674SOL     OW77860   6.163   7.608   8.538
58674SOL    HW177861   6.199   7.659   8.611
58674SOL    HW277862   6.087   7.563   8.575
58675SOL     OW77863  12.893   8.131  13.176
58675SOL    HW177864  12.856   8.217  13.195
58675SOL    HW277865  12.985   8.138  13.200
58676SOL     OW77866  12.707  14.866   4.778
58676SOL    HW177867  12.661   0.018   4.702
58676SOL    HW277868  12.738  14.780   4.751
58677SOL     OW77869   2.244   5.990  10.598
58677SOL    HW177870   2.287   6.075  10.604
58677SOL    HW277871   2.184   5.988  10.672
58678SOL     OW77872  11.321   3.974   7.440
58678SOL    HW177873  11.236   3.931   7.428
58678SOL    HW277874  11.384   3.902   7.438
58679SOL     OW77875   5.481   4.720  13.938
58679SOL    HW177876   5.506   4.631  13.964
58679SOL    HW277877   5.536   4.739  13.862
58680SOL     OW77878   2.049   3.840   4.093
58680SOL    HW177879   2.128   3.804   4.051
58680SOL    HW277880   2.057   3.935   4.081
58681SOL     OW77881  11.383   1.771   5.444
58681SOL    HW177882  11.313   1.786   5.509
58681SOL    HW277883  11.443   1.712   5.488
58682SOL     OW77884   6.653   6.756  13.213
58682SOL    HW177885   6.730   6.703  13.192
58682SOL    HW277886   6.588   6.731  13.147
58683SOL     OW77887   0.579   9.382   5.950
58683SOL    HW177888   0.637   9.311   5.978
58683SOL    HW277889   0.555   9.359   5.860
58684SOL     OW77890  13.543   4.710   3.994
58684SOL    HW177891  13.526   4.651   3.921
58684SOL    HW277892  13.588   4.656   4.059
58685SOL     OW77893   9.592   8.288  13.999
58685SOL    HW177894   9.671   8.343  14.005
58685SOL    HW277895   9.577   8.279  13.905
58686SOL     OW77896   6.737  13.718   1.641
58686SOL    HW177897   6.725  13.640   1.587
58686SOL    HW277898   6.763  13.786   1.580
58687SOL     OW77899   2.424   2.867   8.428
58687SOL    HW177900   2.490   2.826   8.373
58687SOL    HW277901   2.357   2.898   8.367
58688SOL     OW77902   2.855   5.213   8.398
58688SOL    HW177903   2.931   5.242   8.347
58688SOL    HW277904   2.859   5.263   8.479
58689SOL     OW77905   2.422   1.033   1.300
58689SOL    HW177906   2.367   1.109   1.318
58689SOL    HW277907   2.411   1.017   1.207
58690SOL     OW77908   0.739   3.355  10.413
58690SOL    HW177909   0.816   3.360  10.469
58690SOL    HW277910   0.665   3.353  10.474
58691SOL     OW77911   2.675   5.572   5.533
58691SOL    HW177912   2.682   5.619   5.615
58691SOL    HW277913   2.587   5.592   5.501
58692SOL     OW77914  10.132  10.523  10.243
58692SOL    HW177915  10.130  10.455  10.175
58692SOL    HW277916  10.225  10.542  10.254
58693SOL     OW77917   1.160  11.550   4.118
58693SOL    HW177918   1.244  11.579   4.154
58693SOL    HW277919   1.143  11.466   4.161
58694SOL     OW77920   0.296   6.056   1.212
58694SOL    HW177921   0.335   5.971   1.192
58694SOL    HW277922   0.322   6.074   1.302
58695SOL     OW77923   3.714   5.288   9.861
58695SOL    HW177924   3.747   5.356   9.919
58695SOL    HW277925   3.784   5.224   9.856
58696SOL     OW77926  13.534   4.521  12.215
58696SOL    HW177927  13.467   4.568  12.264
58696SOL    HW277928  13.537   4.434  12.255
58697SOL     OW77929  11.807   5.135   8.655
58697SOL    HW177930  11.863   5.207   8.627
58697SOL    HW277931  11.723   5.152   8.612
58698SOL     OW77932   2.502   4.492  14.326
58698SOL    HW177933   2.447   4.448  14.390
58698SOL    HW277934   2.495   4.439  14.247
58699SOL     OW77935   6.062   6.682  11.782
58699SOL    HW177936   6.127   6.725  11.727
58699SOL    HW277937   5.979   6.697  11.738
58700SOL     OW77938   0.922  13.026  12.236
58700SOL    HW177939   0.837  13.033  12.192
58700SOL    HW277940   0.925  13.102  12.294
58701SOL     OW77941   1.270   7.558   7.365
58701SOL    HW177942   1.289   7.628   7.428
58701SOL    HW277943   1.198   7.509   7.405
58702SOL     OW77944  12.052  12.576   8.278
58702SOL    HW177945  11.968  12.530   8.267
58702SOL    HW277946  12.087  12.543   8.361
58703SOL     OW77947  12.388  12.250  14.878
58703SOL    HW177948  12.311  12.226  14.827
58703SOL    HW277949  12.386  12.346  14.880
58704SOL     OW77950   2.228   0.401   4.685
58704SOL    HW177951   2.247   0.417   4.593
58704SOL    HW277952   2.304   0.354   4.718
58705SOL     OW77953   8.505  12.594  11.490
58705SOL    HW177954   8.597  12.607  11.512
58705SOL    HW277955   8.504  12.512  11.441
58706SOL     OW77956  13.832   5.042   2.638
58706SOL    HW177957  13.829   5.024   2.732
58706SOL    HW277958  13.818   4.956   2.597
58707SOL     OW77959   7.561  14.115   2.406
58707SOL    HW177960   7.486  14.171   2.388
58707SOL    HW277961   7.607  14.158   2.478
58708SOL     OW77962   6.142  11.397  12.570
58708SOL    HW177963   6.069  11.354  12.525
58708SOL    HW277964   6.106  11.419  12.656
58709SOL     OW77965  11.958   7.111  10.075
58709SOL    HW177966  11.931   7.170  10.005
58709SOL    HW277967  12.029   7.158  10.120
58710SOL     OW77968  12.498   9.977   8.387
58710SOL    HW177969  12.581  10.023   8.396
58710SOL    HW277970  12.520   9.894   8.345
58711SOL     OW77971   2.868   9.481   7.119
58711SOL    HW177972   2.840   9.496   7.029
58711SOL    HW277973   2.823   9.548   7.170
58712SOL     OW77974   8.987   3.464   4.145
58712SOL    HW177975   8.984   3.446   4.239
58712SOL    HW277976   8.911   3.417   4.109
58713SOL     OW77977  14.390  10.049   7.743
58713SOL    HW177978  14.442  10.106   7.687
58713SOL    HW277979  14.426  10.062   7.831
58714SOL     OW77980   7.267   3.500   7.053
58714SOL    HW177981   7.198   3.496   6.988
58714SOL    HW277982   7.294   3.592   7.055
58715SOL     OW77983  12.770   9.171   5.922
58715SOL    HW177984  12.697   9.184   5.983
58715SOL    HW277985  12.843   9.218   5.961
58716SOL     OW77986   9.345  10.668   8.100
58716SOL    HW177987   9.336  10.753   8.058
58716SOL    HW277988   9.364  10.608   8.028
58717SOL     OW77989  11.589   9.379  12.734
58717SOL    HW177990  11.531   9.388  12.658
58717SOL    HW277991  11.531   9.357  12.806
58718SOL     OW77992   6.156  13.976   9.822
58718SOL    HW177993   6.074  13.944   9.786
58718SOL    HW277994   6.131  14.051   9.876
58719SOL     OW77995  12.274   5.693   6.589
58719SOL    HW177996  12.359   5.724   6.560
58719SOL    HW277997  12.277   5.598   6.574
58720SOL     OW77998   3.144   4.156   5.915
58720SOL    HW177999   3.137   4.241   5.958
58720SOL    HW278000   3.227   4.120   5.946
58721SOL     OW78001   6.180  11.463   5.040
58721SOL    HW178002   6.261  11.464   5.090
58721SOL    HW278003   6.122  11.404   5.088
58722SOL     OW78004   4.447  11.872   2.354
58722SOL    HW178005   4.378  11.924   2.395
58722SOL    HW278006   4.414  11.782   2.355
58723SOL     OW78007  14.135   6.063   9.998
58723SOL    HW178008  14.064   6.127   9.997
58723SOL    HW278009  14.091   5.978   9.988
58724SOL     OW78010   0.574   4.474   6.431
58724SOL    HW178011   0.537   4.559   6.406
58724SOL    HW278012   0.584   4.427   6.348
58725SOL     OW78013   4.970  10.960   0.359
58725SOL    HW178014   5.035  10.989   0.423
58725SOL    HW278015   4.894  11.017   0.375
58726SOL     OW78016   5.036   5.709   4.008
58726SOL    HW178017   5.129   5.686   4.008
58726SOL    HW278018   5.034   5.798   3.971
58727SOL     OW78019  12.842  11.384  13.758
58727SOL    HW178020  12.786  11.324  13.709
58727SOL    HW278021  12.794  11.401  13.839
58728SOL     OW78022  10.622   8.900   5.642
58728SOL    HW178023  10.638   8.868   5.731
58728SOL    HW278024  10.710   8.911   5.605
58729SOL     OW78025   2.171   7.247   1.014
58729SOL    HW178026   2.099   7.195   1.051
58729SOL    HW278027   2.144   7.338   1.028
58730SOL     OW78028  10.896  13.679   3.827
58730SOL    HW178029  10.838  13.754   3.836
58730SOL    HW278030  10.959  13.705   3.760
58731SOL     OW78031   6.316  14.650  12.053
58731SOL    HW178032   6.283  14.648  12.143
58731SOL    HW278033   6.329  14.558  12.030
58732SOL     OW78034  13.667   9.517  10.619
58732SOL    HW178035  13.739   9.535  10.559
58732SOL    HW278036  13.679   9.426  10.644
58733SOL     OW78037  12.847  14.546  11.669
58733SOL    HW178038  12.928  14.544  11.619
58733SOL    HW278039  12.780  14.575  11.607
58734SOL     OW78040   6.428   7.227  14.711
58734SOL    HW178041   6.427   7.321  14.727
58734SOL    HW278042   6.419   7.188  14.798
58735SOL     OW78043   4.257  11.012   3.274
58735SOL    HW178044   4.237  11.050   3.188
58735SOL    HW278045   4.189  11.046   3.331
58736SOL     OW78046  13.340   2.778   9.660
58736SOL    HW178047  13.369   2.836   9.589
58736SOL    HW278048  13.333   2.835   9.737
58737SOL     OW78049   3.680   4.672  12.256
58737SOL    HW178050   3.737   4.619  12.201
58737SOL    HW278051   3.597   4.625  12.256
58738SOL     OW78052   4.806   9.440   9.411
58738SOL    HW178053   4.897   9.416   9.398
58738SOL    HW278054   4.756   9.375   9.361
58739SOL     OW78055   8.787   3.255   8.858
58739SOL    HW178056   8.749   3.343   8.856
58739SOL    HW278057   8.863   3.260   8.801
58740SOL     OW78058   4.532   4.454   5.475
58740SOL    HW178059   4.514   4.360   5.473
58740SOL    HW278060   4.627   4.460   5.483
58741SOL     OW78061   7.735  13.191   2.887
58741SOL    HW178062   7.781  13.120   2.933
58741SOL    HW278063   7.745  13.267   2.945
58742SOL     OW78064   4.019   5.869  12.034
58742SOL    HW178065   4.040   5.916  11.953
58742SOL    HW278066   4.088   5.803  12.041
58743SOL     OW78067   8.511   2.168  12.479
58743SOL    HW178068   8.599   2.188  12.447
58743SOL    HW278069   8.483   2.094  12.427
58744SOL     OW78070  14.837   8.970  14.334
58744SOL    HW178071   0.039   9.006  14.362
58744SOL    HW278072  14.826   9.000  14.244
58745SOL     OW78073   6.216   1.494   9.671
58745SOL    HW178074   6.249   1.504   9.582
58745SOL    HW278075   6.135   1.546   9.673
58746SOL     OW78076   0.802   9.978   5.147
58746SOL    HW178077   0.829   9.890   5.121
58746SOL    HW278078   0.879  10.016   5.189
58747SOL     OW78079   0.025   3.505   0.714
58747SOL    HW178080   0.037   3.581   0.770
58747SOL    HW278081   0.044   3.538   0.625
58748SOL     OW78082   3.470   0.420  10.130
58748SOL    HW178083   3.450   0.337  10.174
58748SOL    HW278084   3.384   0.457  10.110
58749SOL     OW78085  13.484   6.809   3.472
58749SOL    HW178086  13.560   6.838   3.421
58749SOL    HW278087  13.496   6.714   3.482
58750SOL     OW78088   5.102   6.579  14.402
58750SOL    HW178089   5.128   6.490  14.426
58750SOL    HW278090   5.127   6.632  14.478
58751SOL     OW78091   1.851   3.707  14.126
58751SOL    HW178092   1.909   3.764  14.077
58751SOL    HW278093   1.769   3.706  14.076
58752SOL     OW78094  12.252  14.589   5.820
58752SOL    HW178095  12.185  14.658   5.815
58752SOL    HW278096  12.327  14.632   5.860
58753SOL     OW78097  14.801   9.011   7.774
58753SOL    HW178098  14.835   8.994   7.862
58753SOL    HW278099  14.738   8.942   7.759
58754SOL     OW78100   4.072  14.659  11.183
58754SOL    HW178101   3.990  14.679  11.138
58754SOL    HW278102   4.082  14.564  11.173
58755SOL     OW78103   3.907   0.629  10.106
58755SOL    HW178104   3.919   0.576  10.028
58755SOL    HW278105   3.891   0.565  10.176
58756SOL     OW78106   6.429   2.712   4.345
58756SOL    HW178107   6.412   2.751   4.259
58756SOL    HW278108   6.504   2.761   4.380
58757SOL     OW78109   6.183  12.584  12.072
58757SOL    HW178110   6.253  12.529  12.107
58757SOL    HW278111   6.198  12.670  12.110
58758SOL     OW78112   3.336  12.110   3.824
58758SOL    HW178113   3.344  12.048   3.751
58758SOL    HW278114   3.331  12.054   3.901
58759SOL     OW78115  10.434   1.004   6.505
58759SOL    HW178116  10.377   1.077   6.480
58759SOL    HW278117  10.383   0.926   6.484
58760SOL     OW78118   7.851  13.947   3.405
58760SOL    HW178119   7.883  13.969   3.317
58760SOL    HW278120   7.826  14.031   3.444
58761SOL     OW78121   4.921   5.775   7.055
58761SOL    HW178122   4.870   5.849   7.020
58761SOL    HW278123   4.906   5.704   6.993
58762SOL     OW78124  14.205  11.716  12.457
58762SOL    HW178125  14.118  11.753  12.469
58762SOL    HW278126  14.217  11.658  12.533
58763SOL     OW78127  11.250   3.256   4.787
58763SOL    HW178128  11.276   3.257   4.695
58763SOL    HW278129  11.158   3.280   4.787
58764SOL     OW78130  11.789   0.508   1.377
58764SOL    HW178131  11.848   0.530   1.304
58764SOL    HW278132  11.733   0.439   1.343
58765SOL     OW78133   1.182   3.226   5.070
58765SOL    HW178134   1.207   3.232   5.162
58765SOL    HW278135   1.265   3.224   5.022
58766SOL     OW78136  10.476   7.917   0.232
58766SOL    HW178137  10.522   7.926   0.149
58766SOL    HW278138  10.521   7.846   0.277
58767SOL     OW78139   7.018   4.527   2.336
58767SOL    HW178140   6.990   4.516   2.427
58767SOL    HW278141   6.971   4.604   2.305
58768SOL     OW78142   2.112   1.437   2.285
58768SOL    HW178143   2.046   1.501   2.258
58768SOL    HW278144   2.192   1.487   2.296
58769SOL     OW78145  12.105   4.236  14.535
58769SOL    HW178146  12.096   4.331  14.532
58769SOL    HW278147  12.052   4.204  14.462
58770SOL     OW78148   4.094  10.441   6.368
58770SOL    HW178149   4.166  10.419   6.427
58770SOL    HW278150   4.071  10.358   6.326
58771SOL     OW78151   5.621  14.396  14.175
58771SOL    HW178152   5.573  14.316  14.197
58771SOL    HW278153   5.575  14.465  14.223
58772SOL     OW78154  13.528  12.021   7.495
58772SOL    HW178155  13.606  11.985   7.537
58772SOL    HW278156  13.487  12.075   7.562
58773SOL     OW78157   6.773   3.525  12.419
58773SOL    HW178158   6.703   3.468  12.386
58773SOL    HW278159   6.820   3.553  12.341
58774SOL     OW78160  14.287   1.061  14.418
58774SOL    HW178161  14.343   1.111  14.477
58774SOL    HW278162  14.322   1.077  14.330
58775SOL     OW78163   5.795   6.246   8.558
58775SOL    HW178164   5.738   6.260   8.634
58775SOL    HW278165   5.842   6.329   8.548
58776SOL     OW78166   3.249   5.333   8.601
58776SOL    HW178167   3.332   5.372   8.627
58776SOL    HW278168   3.190   5.350   8.674
58777SOL     OW78169  11.304  14.432   5.947
58777SOL    HW178170  11.229  14.444   5.889
58777SOL    HW278171  11.363  14.504   5.924
58778SOL     OW78172   4.307  12.156   0.062
58778SOL    HW178173   4.251  12.128   0.135
58778SOL    HW278174   4.381  12.200   0.105
58779SOL     OW78175   6.066  12.571  14.023
58779SOL    HW178176   6.067  12.476  14.008
58779SOL    HW278177   5.973  12.594  14.027
58780SOL     OW78178  11.578   4.097   5.463
58780SOL    HW178179  11.652   4.063   5.514
58780SOL    HW278180  11.618   4.151   5.396
58781SOL     OW78181  11.799   5.680   0.692
58781SOL    HW178182  11.758   5.767   0.699
58781SOL    HW278183  11.824   5.658   0.782
58782SOL     OW78184   4.515   4.337  11.983
58782SOL    HW178185   4.472   4.297  12.059
58782SOL    HW278186   4.604   4.355  12.012
58783SOL     OW78187   7.847   1.193   5.375
58783SOL    HW178188   7.772   1.217   5.320
58783SOL    HW278189   7.809   1.165   5.458
58784SOL     OW78190   6.653   5.676   1.989
58784SOL    HW178191   6.691   5.589   2.000
58784SOL    HW278192   6.634   5.705   2.078
58785SOL     OW78193   2.411   3.751   7.679
58785SOL    HW178194   2.426   3.753   7.585
58785SOL    HW278195   2.493   3.783   7.717
58786SOL     OW78196   5.672   0.553   3.318
58786SOL    HW178197   5.741   0.604   3.360
58786SOL    HW278198   5.686   0.463   3.349
58787SOL     OW78199   4.045  11.822   3.441
58787SOL    HW178200   4.054  11.836   3.536
58787SOL    HW278201   4.040  11.727   3.431
58788SOL     OW78202   4.353   3.757  13.280
58788SOL    HW178203   4.423   3.797  13.332
58788SOL    HW278204   4.391   3.750  13.192
58789SOL     OW78205   5.461   0.581   8.054
58789SOL    HW178206   5.472   0.649   8.121
58789SOL    HW278207   5.527   0.602   7.988
58790SOL     OW78208  11.735   0.467   9.224
58790SOL    HW178209  11.669   0.422   9.277
58790SOL    HW278210  11.686   0.534   9.177
58791SOL     OW78211   7.227   5.387   6.629
58791SOL    HW178212   7.294   5.326   6.659
58791SOL    HW278213   7.223   5.374   6.535
58792SOL     OW78214   6.753   0.688   1.767
58792SOL    HW178215   6.768   0.781   1.783
58792SOL    HW278216   6.737   0.682   1.672
58793SOL     OW78217   1.665   0.003  14.602
58793SOL    HW178218   1.733  14.854  14.661
58793SOL    HW278219   1.702   0.080  14.559
58794SOL     OW78220   0.863   3.377   9.733
58794SOL    HW178221   0.946   3.331   9.722
58794SOL    HW278222   0.866   3.448   9.669
58795SOL     OW78223   3.162  10.293   9.959
58795SOL    HW178224   3.084  10.336   9.923
58795SOL    HW278225   3.235  10.342   9.921
58796SOL     OW78226  14.517  11.154   1.766
58796SOL    HW178227  14.492  11.088   1.830
58796SOL    HW278228  14.455  11.143   1.694
58797SOL     OW78229   0.563   3.136  14.094
58797SOL    HW178230   0.578   3.062  14.036
58797SOL    HW278231   0.596   3.107  14.179
58798SOL     OW78232   5.930  13.961  11.787
58798SOL    HW178233   5.923  13.871  11.756
58798SOL    HW278234   5.944  13.953  11.881
58799SOL     OW78235   9.625  13.621  11.685
58799SOL    HW178236   9.664  13.560  11.623
58799SOL    HW278237   9.699  13.657  11.733
58800SOL     OW78238  10.836   3.042   8.535
58800SOL    HW178239  10.883   3.116   8.498
58800SOL    HW278240  10.892   3.009   8.605
58801SOL     OW78241   4.793   3.043  11.862
58801SOL    HW178242   4.791   3.034  11.958
58801SOL    HW278243   4.886   3.041  11.840
58802SOL     OW78244   0.105   2.194  11.393
58802SOL    HW178245   0.159   2.227  11.464
58802SOL    HW278246   0.132   2.102  11.383
58803SOL     OW78247  12.538  10.025   1.951
58803SOL    HW178248  12.489  10.104   1.974
58803SOL    HW278249  12.527   9.967   2.027
58804SOL     OW78250   0.947   8.853   4.320
58804SOL    HW178251   0.994   8.930   4.352
58804SOL    HW278252   0.968   8.849   4.227
58805SOL     OW78253   5.619  14.832  12.704
58805SOL    HW178254   5.547  14.818  12.643
58805SOL    HW278255   5.590   0.023  12.759
58806SOL     OW78256  13.975   2.714   5.454
58806SOL    HW178257  14.026   2.756   5.385
58806SOL    HW278258  13.940   2.786   5.506
58807SOL     OW78259   1.866   1.188   5.950
58807SOL    HW178260   1.925   1.118   5.980
58807SOL    HW278261   1.916   1.235   5.883
58808SOL     OW78262   8.296  10.438   0.109
58808SOL    HW178263   8.285  10.524   0.150
58808SOL    HW278264   8.212  10.395   0.122
58809SOL     OW78265  11.335  13.129   0.256
58809SOL    HW178266  11.310  13.048   0.300
58809SOL    HW278267  11.428  13.140   0.276
58810SOL     OW78268   5.755   2.034   2.507
58810SOL    HW178269   5.747   2.044   2.601
58810SOL    HW278270   5.673   1.994   2.479
58811SOL     OW78271  13.061   1.324   5.580
58811SOL    HW178272  12.996   1.330   5.510
58811SOL    HW278273  13.009   1.314   5.660
58812SOL     OW78274   5.216  13.326   8.015
58812SOL    HW178275   5.252  13.270   8.083
58812SOL    HW278276   5.153  13.383   8.060
58813SOL     OW78277  10.052   3.923   4.074
58813SOL    HW178278  10.134   3.946   4.031
58813SOL    HW278279  10.053   3.973   4.156
58814SOL     OW78280  10.371   9.745   8.000
58814SOL    HW178281  10.327   9.725   7.917
58814SOL    HW278282  10.429   9.818   7.978
58815SOL     OW78283   7.618   5.348   9.240
58815SOL    HW178284   7.533   5.392   9.232
58815SOL    HW278285   7.598   5.255   9.227
58816SOL     OW78286   9.892   2.557  12.186
58816SOL    HW178287   9.875   2.503  12.264
58816SOL    HW278288   9.807   2.597  12.166
58817SOL     OW78289   4.517  10.736  13.810
58817SOL    HW178290   4.490  10.683  13.885
58817SOL    HW278291   4.465  10.703  13.737
58818SOL     OW78292  12.209   1.573  12.124
58818SOL    HW178293  12.211   1.631  12.047
58818SOL    HW278294  12.116   1.559  12.141
58819SOL     OW78295  14.227  12.049   4.329
58819SOL    HW178296  14.176  12.111   4.381
58819SOL    HW278297  14.278  12.001   4.393
58820SOL     OW78298  11.436  11.046   5.259
58820SOL    HW178299  11.342  11.035   5.245
58820SOL    HW278300  11.474  10.961   5.236
58821SOL     OW78301  10.025   3.219   6.683
58821SOL    HW178302  10.010   3.165   6.760
58821SOL    HW278303   9.936   3.244   6.654
58822SOL     OW78304   6.779   5.404   2.829
58822SOL    HW178305   6.724   5.472   2.869
58822SOL    HW278306   6.825   5.450   2.759
58823SOL     OW78307   6.207  12.828   0.653
58823SOL    HW178308   6.271  12.765   0.686
58823SOL    HW278309   6.155  12.778   0.589
58824SOL     OW78310   9.737   4.241   1.937
58824SOL    HW178311   9.734   4.323   1.986
58824SOL    HW278312   9.783   4.180   1.994
58825SOL     OW78313   4.004  13.830   8.192
58825SOL    HW178314   3.978  13.891   8.260
58825SOL    HW278315   3.997  13.880   8.110
58826SOL     OW78316  12.853   2.847  10.720
58826SOL    HW178317  12.840   2.753  10.720
58826SOL    HW278318  12.932   2.861  10.668
58827SOL     OW78319   1.004   5.845   7.595
58827SOL    HW178320   1.091   5.837   7.633
58827SOL    HW278321   1.016   5.903   7.520
58828SOL     OW78322   1.812  14.015  14.713
58828SOL    HW178323   1.868  14.084  14.677
58828SOL    HW278324   1.873  13.944  14.734
58829SOL     OW78325   3.971  11.509   8.931
58829SOL    HW178326   3.934  11.421   8.920
58829SOL    HW278327   4.065  11.496   8.933
58830SOL     OW78328   6.742   8.175  11.377
58830SOL    HW178329   6.657   8.207  11.407
58830SOL    HW278330   6.795   8.253  11.365
58831SOL     OW78331   6.929   6.609   9.614
58831SOL    HW178332   6.871   6.635   9.542
58831SOL    HW278333   6.891   6.528   9.647
58832SOL     OW78334   3.053  13.708   8.743
58832SOL    HW178335   3.103  13.672   8.669
58832SOL    HW278336   3.043  13.635   8.803
58833SOL     OW78337   9.784   6.794  10.577
58833SOL    HW178338   9.700   6.781  10.621
58833SOL    HW278339   9.846   6.741  10.627
58834SOL     OW78340  12.371   0.686   8.007
58834SOL    HW178341  12.402   0.596   8.003
58834SOL    HW278342  12.422   0.726   8.078
58835SOL     OW78343   0.803  14.077   9.754
58835SOL    HW178344   0.887  14.122   9.765
58835SOL    HW278345   0.738  14.141   9.784
58836SOL     OW78346   3.734   2.074  10.042
58836SOL    HW178347   3.646   2.074  10.004
58836SOL    HW278348   3.773   2.156  10.013
58837SOL     OW78349   0.339   5.538  12.218
58837SOL    HW178350   0.304   5.507  12.134
58837SOL    HW278351   0.432   5.515  12.215
58838SOL     OW78352   1.830   2.657   4.236
58838SOL    HW178353   1.926   2.656   4.246
58838SOL    HW278354   1.797   2.626   4.320
58839SOL     OW78355  14.731   7.718   3.929
58839SOL    HW178356  14.730   7.763   3.844
58839SOL    HW278357  14.730   7.625   3.906
58840SOL     OW78358   0.638   9.926   3.544
58840SOL    HW178359   0.619   9.848   3.493
58840SOL    HW278360   0.733   9.933   3.543
58841SOL     OW78361   6.962  10.886   3.436
58841SOL    HW178362   7.030  10.853   3.493
58841SOL    HW278363   6.886  10.830   3.453
58842SOL     OW78364   9.401  10.723  13.861
58842SOL    HW178365   9.332  10.748  13.801
58842SOL    HW278366   9.430  10.805  13.901
58843SOL     OW78367   6.605   4.238   7.619
58843SOL    HW178368   6.581   4.209   7.707
58843SOL    HW278369   6.698   4.258   7.625
58844SOL     OW78370   4.336   2.652   9.349
58844SOL    HW178371   4.396   2.599   9.401
58844SOL    HW278372   4.370   2.741   9.355
58845SOL     OW78373   5.199   6.734   0.772
58845SOL    HW178374   5.256   6.708   0.699
58845SOL    HW278375   5.209   6.664   0.836
58846SOL     OW78376  14.397   2.083   9.309
58846SOL    HW178377  14.361   2.004   9.269
58846SOL    HW278378  14.330   2.150   9.294
58847SOL     OW78379   0.922   6.871   1.056
58847SOL    HW178380   0.827   6.860   1.048
58847SOL    HW278381   0.947   6.914   0.975
58848SOL     OW78382   5.861   8.676  12.326
58848SOL    HW178383   5.838   8.764  12.354
58848SOL    HW278384   5.887   8.685  12.234
58849SOL     OW78385   0.363   2.748   2.468
58849SOL    HW178386   0.425   2.689   2.424
58849SOL    HW278387   0.291   2.691   2.495
58850SOL     OW78388   5.366  13.266  14.565
58850SOL    HW178389   5.427  13.215  14.510
58850SOL    HW278390   5.381  13.233  14.653
58851SOL     OW78391  11.947   4.173  13.992
58851SOL    HW178392  11.913   4.108  13.930
58851SOL    HW278393  11.937   4.257  13.947
58852SOL     OW78394   8.425   6.452   7.901
58852SOL    HW178395   8.517   6.480   7.903
58852SOL    HW278396   8.381   6.516   7.845
58853SOL     OW78397   7.598  11.685   3.427
58853SOL    HW178398   7.673  11.639   3.390
58853SOL    HW278399   7.526  11.668   3.366
58854SOL     OW78400   6.899  14.631   1.099
58854SOL    HW178401   6.872  14.661   1.013
58854SOL    HW278402   6.883  14.706   1.157
58855SOL     OW78403   1.256   4.749   4.827
58855SOL    HW178404   1.173   4.704   4.816
58855SOL    HW278405   1.243   4.808   4.902
58856SOL     OW78406   5.710   8.426  14.196
58856SOL    HW178407   5.701   8.334  14.171
58856SOL    HW278408   5.740   8.423  14.287
58857SOL     OW78409   7.484   4.881   5.875
58857SOL    HW178410   7.536   4.833   5.939
58857SOL    HW278411   7.421   4.931   5.927
58858SOL     OW78412  11.955   6.624   6.962
58858SOL    HW178413  11.875   6.574   6.950
58858SOL    HW278414  12.022   6.558   6.981
58859SOL     OW78415   0.302  10.881   3.113
58859SOL    HW178416   0.242  10.878   3.039
58859SOL    HW278417   0.359  10.805   3.101
58860SOL     OW78418   6.049   9.393   8.886
58860SOL    HW178419   5.954   9.385   8.888
58860SOL    HW278420   6.077   9.338   8.813
58861SOL     OW78421   6.102   2.992   2.417
58861SOL    HW178422   6.134   3.050   2.347
58861SOL    HW278423   6.164   2.919   2.417
58862SOL     OW78424  10.957   0.548  13.291
58862SOL    HW178425  10.927   0.629  13.333
58862SOL    HW278426  10.911   0.479  13.339
58863SOL     OW78427  10.550  11.805   5.725
58863SOL    HW178428  10.594  11.876   5.678
58863SOL    HW278429  10.587  11.725   5.688
58864SOL     OW78430  10.840   7.816   8.360
58864SOL    HW178431  10.857   7.866   8.439
58864SOL    HW278432  10.760   7.853   8.324
58865SOL     OW78433   4.833  14.105   3.728
58865SOL    HW178434   4.815  14.192   3.763
58865SOL    HW278435   4.748  14.070   3.704
58866SOL     OW78436   3.780   8.849  13.695
58866SOL    HW178437   3.730   8.777  13.657
58866SOL    HW278438   3.842   8.806  13.754
58867SOL     OW78439   1.419  11.729  13.102
58867SOL    HW178440   1.424  11.805  13.044
58867SOL    HW278441   1.345  11.747  13.160
58868SOL     OW78442   6.054  13.135   4.681
58868SOL    HW178443   6.063  13.043   4.656
58868SOL    HW278444   6.030  13.132   4.774
58869SOL     OW78445   8.612   9.847   5.935
58869SOL    HW178446   8.658   9.842   5.850
58869SOL    HW278447   8.580   9.758   5.949
58870SOL     OW78448  10.026   1.870  10.766
58870SOL    HW178449  10.078   1.823  10.831
58870SOL    HW278450   9.964   1.805  10.734
58871SOL     OW78451   7.685   4.534   1.380
58871SOL    HW178452   7.698   4.474   1.306
58871SOL    HW278453   7.696   4.621   1.342
58872SOL     OW78454  14.012  14.680  12.297
58872SOL    HW178455  14.007  14.660  12.390
58872SOL    HW278456  13.936  14.636  12.259
58873SOL     OW78457  11.046  11.249   2.645
58873SOL    HW178458  11.007  11.305   2.712
58873SOL    HW278459  11.056  11.307   2.569
58874SOL     OW78460  14.512  11.741   7.578
58874SOL    HW178461  14.449  11.782   7.519
58874SOL    HW278462  14.493  11.778   7.664
58875SOL     OW78463  14.364  13.521  13.186
58875SOL    HW178464  14.318  13.491  13.264
58875SOL    HW278465  14.455  13.530  13.214
58876SOL     OW78466   3.531   7.408   3.079
58876SOL    HW178467   3.523   7.329   3.025
58876SOL    HW278468   3.625   7.417   3.093
58877SOL     OW78469   1.641   3.577   2.766
58877SOL    HW178470   1.584   3.650   2.787
58877SOL    HW278471   1.595   3.500   2.798
58878SOL     OW78472  10.995  13.555   4.266
58878SOL    HW178473  10.956  13.527   4.183
58878SOL    HW278474  11.072  13.606   4.240
58879SOL     OW78475   8.354   0.513   6.206
58879SOL    HW178476   8.330   0.601   6.234
58879SOL    HW278477   8.449   0.513   6.203
58880SOL     OW78478  10.675   7.532  12.177
58880SOL    HW178479  10.593   7.567  12.141
58880SOL    HW278480  10.732   7.521  12.101
58881SOL     OW78481   8.209   4.516   0.607
58881SOL    HW178482   8.163   4.444   0.563
58881SOL    HW278483   8.301   4.500   0.589
58882SOL     OW78484   6.141   4.284   5.622
58882SOL    HW178485   6.066   4.226   5.635
58882SOL    HW278486   6.148   4.332   5.704
58883SOL     OW78487   4.741   6.822   2.264
58883SOL    HW178488   4.678   6.752   2.247
58883SOL    HW278489   4.761   6.858   2.178
58884SOL     OW78490  14.797   7.276  14.698
58884SOL    HW178491  14.729   7.318  14.750
58884SOL    HW278492  14.757   7.262  14.612
58885SOL     OW78493   5.895  12.348  12.788
58885SOL    HW178494   5.816  12.392  12.820
58885SOL    HW278495   5.967  12.395  12.829
58886SOL     OW78496  14.675   8.288   9.530
58886SOL    HW178497  14.597   8.259   9.577
58886SOL    HW278498  14.665   8.383   9.522
58887SOL     OW78499   1.441   5.049  14.728
58887SOL    HW178500   1.404   5.087  14.648
58887SOL    HW278501   1.528   5.018  14.702
58888SOL     OW78502   2.821  12.041  13.194
58888SOL    HW178503   2.867  12.005  13.118
58888SOL    HW278504   2.748  12.091  13.157
58889SOL     OW78505   4.264   2.953   8.551
58889SOL    HW178506   4.192   2.961   8.488
58889SOL    HW278507   4.310   3.037   8.545
58890SOL     OW78508   5.477   0.502   5.171
58890SOL    HW178509   5.472   0.457   5.087
58890SOL    HW278510   5.542   0.571   5.158
58891SOL     OW78511   1.557   7.565   9.958
58891SOL    HW178512   1.497   7.640   9.959
58891SOL    HW278513   1.533   7.517   9.878
58892SOL     OW78514   7.688   6.172   6.981
58892SOL    HW178515   7.771   6.206   6.947
58892SOL    HW278516   7.703   6.163   7.075
58893SOL     OW78517  11.682  13.151   9.898
58893SOL    HW178518  11.587  13.142   9.896
58893SOL    HW278519  11.715  13.062   9.887
58894SOL     OW78520   7.959   7.595   0.151
58894SOL    HW178521   8.042   7.587   0.104
58894SOL    HW278522   7.897   7.542   0.101
58895SOL     OW78523  10.101  14.235  12.225
58895SOL    HW178524  10.063  14.154  12.191
58895SOL    HW278525  10.154  14.269  12.153
58896SOL     OW78526   2.318  14.240   5.249
58896SOL    HW178527   2.395  14.187   5.226
58896SOL    HW278528   2.244  14.187   5.219
58897SOL     OW78529  13.156   4.155  14.447
58897SOL    HW178530  13.102   4.076  14.440
58897SOL    HW278531  13.094   4.223  14.475
58898SOL     OW78532   4.044   6.149   7.446
58898SOL    HW178533   4.011   6.070   7.490
58898SOL    HW278534   4.008   6.222   7.496
58899SOL     OW78535   7.810  14.443   9.762
58899SOL    HW178536   7.724  14.412   9.791
58899SOL    HW278537   7.800  14.455   9.667
58900SOL     OW78538   3.476  11.079   3.198
58900SOL    HW178539   3.394  11.031   3.185
58900SOL    HW278540   3.480  11.095   3.292
58901SOL     OW78541  13.222   5.193   8.077
58901SOL    HW178542  13.310   5.227   8.060
58901SOL    HW278543  13.169   5.270   8.097
58902SOL     OW78544  12.994   6.689  13.809
58902SOL    HW178545  13.007   6.698  13.715
58902SOL    HW278546  12.967   6.598  13.821
58903SOL     OW78547   2.267   8.681   6.668
58903SOL    HW178548   2.254   8.730   6.749
58903SOL    HW278549   2.309   8.742   6.609
58904SOL     OW78550   1.922   0.187   4.563
58904SOL    HW178551   1.848   0.126   4.556
58904SOL    HW278552   1.999   0.130   4.568
58905SOL     OW78553  13.244  11.494   8.645
58905SOL    HW178554  13.261  11.404   8.617
58905SOL    HW278555  13.223  11.541   8.564
58906SOL     OW78556  12.552  10.900  14.034
58906SOL    HW178557  12.470  10.882  14.080
58906SOL    HW278558  12.616  10.914  14.104
58907SOL     OW78559   3.423   5.158   2.673
58907SOL    HW178560   3.498   5.142   2.617
58907SOL    HW278561   3.384   5.238   2.638
58908SOL     OW78562   5.434   2.111  14.089
58908SOL    HW178563   5.501   2.043  14.092
58908SOL    HW278564   5.351   2.063  14.098
58909SOL     OW78565   6.075   8.867   6.498
58909SOL    HW178566   6.079   8.935   6.432
58909SOL    HW278567   6.130   8.899   6.570
58910SOL     OW78568   4.639  11.795   9.731
58910SOL    HW178569   4.666  11.724   9.673
58910SOL    HW278570   4.570  11.756   9.785
58911SOL     OW78571   2.869   0.931   6.953
58911SOL    HW178572   2.893   0.963   7.040
58911SOL    HW278573   2.785   0.887   6.967
58912SOL     OW78574   8.181  14.732   0.533
58912SOL    HW178575   8.097  14.686   0.538
58912SOL    HW278576   8.181  14.789   0.610
58913SOL     OW78577   2.122  11.875   4.515
58913SOL    HW178578   2.174  11.898   4.438
58913SOL    HW278579   2.043  11.834   4.480
58914SOL     OW78580   1.826   7.497   3.649
58914SOL    HW178581   1.897   7.511   3.587
58914SOL    HW278582   1.771   7.574   3.641
58915SOL     OW78583   9.167   6.945   0.978
58915SOL    HW178584   9.073   6.953   0.996
58915SOL    HW278585   9.205   7.022   1.020
58916SOL     OW78586  11.731   4.064  14.154
58916SOL    HW178587  11.776   4.136  14.111
58916SOL    HW278588  11.665   4.106  14.209
58917SOL     OW78589   3.068   4.886  10.971
58917SOL    HW178590   3.014   4.866  10.895
58917SOL    HW278591   3.048   4.977  10.992
58918SOL     OW78592   1.722   6.502  14.280
58918SOL    HW178593   1.755   6.418  14.248
58918SOL    HW278594   1.751   6.565  14.214
58919SOL     OW78595  13.895   0.763   8.055
58919SOL    HW178596  13.925   0.807   8.134
58919SOL    HW278597  13.929   0.674   8.063
58920SOL     OW78598  10.744   9.732   0.497
58920SOL    HW178599  10.651   9.739   0.476
58920SOL    HW278600  10.750   9.660   0.559
58921SOL     OW78601   6.379  13.860  10.620
58921SOL    HW178602   6.303  13.870  10.677
58921SOL    HW278603   6.385  13.944  10.574
58922SOL     OW78604   2.986   6.900   2.084
58922SOL    HW178605   2.922   6.956   2.039
58922SOL    HW278606   3.030   6.959   2.145
58923SOL     OW78607   0.787   8.969   1.512
58923SOL    HW178608   0.802   8.918   1.433
58923SOL    HW278609   0.698   9.001   1.503
58924SOL     OW78610   2.642  11.069  11.941
58924SOL    HW178611   2.635  10.974  11.929
58924SOL    HW278612   2.695  11.079  12.021
58925SOL     OW78613  10.336  14.054   1.454
58925SOL    HW178614  10.365  14.001   1.380
58925SOL    HW278615  10.267  14.002   1.495
58926SOL     OW78616   6.180  12.169   8.634
58926SOL    HW178617   6.137  12.169   8.720
58926SOL    HW278618   6.170  12.080   8.602
58927SOL     OW78619  13.574   9.323   4.518
58927SOL    HW178620  13.507   9.389   4.530
58927SOL    HW278621  13.654   9.372   4.503
58928SOL     OW78622  12.837   7.256  11.787
58928SOL    HW178623  12.913   7.224  11.739
58928SOL    HW278624  12.810   7.335  11.741
58929SOL     OW78625  14.322  10.035  11.374
58929SOL    HW178626  14.326  10.031  11.469
58929SOL    HW278627  14.285   9.951  11.348
58930SOL     OW78628   2.657   3.198  13.176
58930SOL    HW178629   2.729   3.153  13.221
58930SOL    HW278630   2.602   3.127  13.143
58931SOL     OW78631   9.238   7.417   1.589
58931SOL    HW178632   9.235   7.418   1.685
58931SOL    HW278633   9.210   7.505   1.563
58932SOL     OW78634   0.938  13.909  10.787
58932SOL    HW178635   1.019  13.877  10.747
58932SOL    HW278636   0.920  13.992  10.742
58933SOL     OW78637  12.459   2.551  10.825
58933SOL    HW178638  12.488   2.466  10.860
58933SOL    HW278639  12.489   2.615  10.889
58934SOL     OW78640  12.418   5.104   7.601
58934SOL    HW178641  12.431   5.045   7.675
58934SOL    HW278642  12.325   5.096   7.579
58935SOL     OW78643  12.470  13.149  11.517
58935SOL    HW178644  12.536  13.165  11.585
58935SOL    HW278645  12.388  13.140  11.565
58936SOL     OW78646  12.094  14.811  12.513
58936SOL    HW178647  12.117   0.005  12.460
58936SOL    HW278648  12.030  14.844  12.576
58937SOL     OW78649   8.245   1.178   1.393
58937SOL    HW178650   8.320   1.229   1.425
58937SOL    HW278651   8.284   1.098   1.357
58938SOL     OW78652   4.674  11.026   1.642
58938SOL    HW178653   4.635  10.996   1.560
58938SOL    HW278654   4.600  11.037   1.701
58939SOL     OW78655   5.618   4.548   4.625
58939SOL    HW178656   5.698   4.500   4.645
58939SOL    HW278657   5.632   4.635   4.664
58940SOL     OW78658  13.802   3.193   6.945
58940SOL    HW178659  13.856   3.268   6.921
58940SOL    HW278660  13.774   3.156   6.861
58941SOL     OW78661  10.782   8.633  10.743
58941SOL    HW178662  10.834   8.708  10.714
58941SOL    HW278663  10.841   8.583  10.799
58942SOL     OW78664   0.303   3.857   1.972
58942SOL    HW178665   0.297   3.951   1.992
58942SOL    HW278666   0.373   3.825   2.029
58943SOL     OW78667  10.435   2.866   0.278
58943SOL    HW178668  10.469   2.884   0.190
58943SOL    HW278669  10.482   2.927   0.335
58944SOL     OW78670  11.284   9.095   9.006
58944SOL    HW178671  11.230   9.174   9.009
58944SOL    HW278672  11.305   9.076   9.098
58945SOL     OW78673   4.067  12.421   2.308
58945SOL    HW178674   3.986  12.470   2.293
58945SOL    HW278675   4.037  12.335   2.338
58946SOL     OW78676   6.536  12.731  12.151
58946SOL    HW178677   6.581  12.736  12.067
58946SOL    HW278678   6.492  12.647  12.150
58947SOL     OW78679  12.514   0.784   6.579
58947SOL    HW178680  12.583   0.842   6.545
58947SOL    HW278681  12.560   0.723   6.636
58948SOL     OW78682   1.867  13.996   3.829
58948SOL    HW178683   1.901  14.029   3.912
58948SOL    HW278684   1.945  13.970   3.780
58949SOL     OW78685  13.341   4.977   6.627
58949SOL    HW178686  13.381   4.977   6.714
58949SOL    HW278687  13.413   5.001   6.568
58950SOL     OW78688  13.715   4.267   5.558
58950SOL    HW178689  13.698   4.251   5.651
58950SOL    HW278690  13.808   4.289   5.554
58951SOL     OW78691  13.044   1.511   8.310
58951SOL    HW178692  13.069   1.428   8.349
58951SOL    HW278693  12.957   1.495   8.272
58952SOL     OW78694   6.340  11.064  14.239
58952SOL    HW178695   6.374  10.999  14.177
58952SOL    HW278696   6.307  11.135  14.183
58953SOL     OW78697  10.401  12.343   1.663
58953SOL    HW178698  10.323  12.289   1.667
58953SOL    HW278699  10.387  12.411   1.730
58954SOL     OW78700   7.407   7.932   4.498
58954SOL    HW178701   7.358   7.980   4.432
58954SOL    HW278702   7.360   7.849   4.509
58955SOL     OW78703   7.087  13.441   1.540
58955SOL    HW178704   7.181  13.424   1.535
58955SOL    HW278705   7.079  13.536   1.532
58956SOL     OW78706   8.268   2.350   0.191
58956SOL    HW178707   8.344   2.296   0.211
58956SOL    HW278708   8.279   2.428   0.246
58957SOL     OW78709   9.808  10.974   9.869
58957SOL    HW178710   9.887  10.924   9.846
58957SOL    HW278711   9.748  10.908   9.905
58958SOL     OW78712   6.955   6.673   5.094
58958SOL    HW178713   6.885   6.733   5.118
58958SOL    HW278714   6.926   6.588   5.127
58959SOL     OW78715   6.721   9.578   4.562
58959SOL    HW178716   6.683   9.494   4.584
58959SOL    HW278717   6.769   9.563   4.480
58960SOL     OW78718   1.884  13.628   4.143
58960SOL    HW178719   1.941  13.696   4.108
58960SOL    HW278720   1.846  13.586   4.065
58961SOL     OW78721  10.123   8.032   5.890
58961SOL    HW178722  10.125   8.035   5.794
58961SOL    HW278723  10.115   8.124   5.916
58962SOL     OW78724  11.841   1.445  10.885
58962SOL    HW178725  11.848   1.404  10.799
58962SOL    HW278726  11.915   1.410  10.935
58963SOL     OW78727   5.468   9.381  13.364
58963SOL    HW178728   5.408   9.427  13.304
58963SOL    HW278729   5.555   9.406  13.335
58964SOL     OW78730  10.298   0.272   7.946
58964SOL    HW178731  10.360   0.289   7.875
58964SOL    HW278732  10.281   0.358   7.985
58965SOL     OW78733   8.364   3.715   5.446
58965SOL    HW178734   8.397   3.792   5.399
58965SOL    HW278735   8.280   3.696   5.405
58966SOL     OW78736  11.357   3.376   5.034
58966SOL    HW178737  11.310   3.322   4.970
58966SOL    HW278738  11.415   3.431   4.981
58967SOL     OW78739   7.138   1.315   1.216
58967SOL    HW178740   7.157   1.328   1.123
58967SOL    HW278741   7.047   1.343   1.226
58968SOL     OW78742  10.404   3.663   5.579
58968SOL    HW178743  10.368   3.576   5.560
58968SOL    HW278744  10.414   3.704   5.494
58969SOL     OW78745   7.020  12.952   4.520
58969SOL    HW178746   6.960  12.934   4.447
58969SOL    HW278747   6.962  12.968   4.594
58970SOL     OW78748   7.218  14.004   5.048
58970SOL    HW178749   7.132  13.961   5.046
58970SOL    HW278750   7.236  14.025   4.957
58971SOL     OW78751   2.323   5.810  13.240
58971SOL    HW178752   2.274   5.740  13.197
58971SOL    HW278753   2.267   5.887  13.232
58972SOL     OW78754   9.507   8.897  10.095
58972SOL    HW178755   9.548   8.957  10.032
58972SOL    HW278756   9.492   8.950  10.173
58973SOL     OW78757   3.452   0.541   3.171
58973SOL    HW178758   3.432   0.461   3.121
58973SOL    HW278759   3.545   0.533   3.193
58974SOL     OW78760   9.836   6.066   2.598
58974SOL    HW178761   9.838   5.998   2.666
58974SOL    HW278762   9.753   6.050   2.552
58975SOL     OW78763   1.849   1.056   6.946
58975SOL    HW178764   1.898   0.973   6.946
58975SOL    HW278765   1.916   1.124   6.938
58976SOL     OW78766   8.338  11.488  10.244
58976SOL    HW178767   8.420  11.528  10.273
58976SOL    HW278768   8.328  11.411  10.299
58977SOL     OW78769   9.690   9.580   5.967
58977SOL    HW178770   9.771   9.558   5.922
58977SOL    HW278771   9.650   9.495   5.987
58978SOL     OW78772   9.100   9.536   7.618
58978SOL    HW178773   9.152   9.615   7.629
58978SOL    HW278774   9.068   9.515   7.705
58979SOL     OW78775   7.418  12.922  10.645
58979SOL    HW178776   7.342  12.870  10.671
58979SOL    HW278777   7.401  13.009  10.681
58980SOL     OW78778   5.373  13.913   8.403
58980SOL    HW178779   5.408  13.994   8.442
58980SOL    HW278780   5.450  13.862   8.380
58981SOL     OW78781  11.569  12.165   3.617
58981SOL    HW178782  11.631  12.235   3.639
58981SOL    HW278783  11.490  12.185   3.667
58982SOL     OW78784  14.013   3.668  12.967
58982SOL    HW178785  14.071   3.684  13.041
58982SOL    HW278786  13.927   3.657  13.006
58983SOL     OW78787  10.588  12.673  11.830
58983SOL    HW178788  10.556  12.720  11.753
58983SOL    HW278789  10.676  12.645  11.805
58984SOL     OW78790   8.160   5.331   4.929
58984SOL    HW178791   8.083   5.368   4.971
58984SOL    HW278792   8.149   5.236   4.939
58985SOL     OW78793   8.114   9.479   6.738
58985SOL    HW178794   8.061   9.455   6.814
58985SOL    HW278795   8.115   9.400   6.684
58986SOL     OW78796  12.061   2.131   3.553
58986SOL    HW178797  12.101   2.186   3.486
58986SOL    HW278798  12.135   2.088   3.596
58987SOL     OW78799   4.570   5.223   0.568
58987SOL    HW178800   4.527   5.284   0.508
58987SOL    HW278801   4.664   5.240   0.556
58988SOL     OW78802   9.563  11.425   0.414
58988SOL    HW178803   9.535  11.357   0.475
58988SOL    HW278804   9.486  11.442   0.360
58989SOL     OW78805   7.502  10.244   4.886
58989SOL    HW178806   7.546  10.207   4.963
58989SOL    HW278807   7.450  10.172   4.851
58990SOL     OW78808   0.097   5.468   5.931
58990SOL    HW178809   0.163   5.455   5.999
58990SOL    HW278810   0.133   5.423   5.854
58991SOL     OW78811   2.970   0.207   4.674
58991SOL    HW178812   2.932   0.168   4.752
58991SOL    HW278813   3.065   0.204   4.689
58992SOL     OW78814  12.773   2.025   3.213
58992SOL    HW178815  12.867   2.027   3.231
58992SOL    HW278816  12.761   2.085   3.139
58993SOL     OW78817  14.555   6.156   8.926
58993SOL    HW178818  14.622   6.115   8.981
58993SOL    HW278819  14.600   6.230   8.884
58994SOL     OW78820   6.777   1.094   2.266
58994SOL    HW178821   6.705   1.150   2.295
58994SOL    HW278822   6.735   1.013   2.238
58995SOL     OW78823   0.630   6.583   9.110
58995SOL    HW178824   0.585   6.539   9.038
58995SOL    HW278825   0.561   6.599   9.175
58996SOL     OW78826   5.472   5.745  11.514
58996SOL    HW178827   5.377   5.745  11.499
58996SOL    HW278828   5.494   5.837  11.528
58997SOL     OW78829  12.176   5.538  10.864
58997SOL    HW178830  12.081   5.539  10.853
58997SOL    HW278831  12.211   5.518  10.778
58998SOL     OW78832   2.413   2.367  12.667
58998SOL    HW178833   2.474   2.430  12.628
58998SOL    HW278834   2.327   2.406  12.654
58999SOL     OW78835  10.197   1.946   9.499
58999SOL    HW178836  10.116   1.952   9.449
58999SOL    HW278837  10.181   1.997   9.578
59000SOL     OW78838  10.848   3.425   1.504
59000SOL    HW178839  10.755   3.427   1.483
59000SOL    HW278840  10.889   3.480   1.437
59001SOL     OW78841   6.366   4.855  10.162
59001SOL    HW178842   6.400   4.796  10.229
59001SOL    HW278843   6.346   4.797  10.088
59002SOL     OW78844  11.640  10.333   5.877
59002SOL    HW178845  11.661  10.343   5.969
59002SOL    HW278846  11.609  10.419   5.849
59003SOL     OW78847   1.764   3.388  12.610
59003SOL    HW178848   1.792   3.462  12.664
59003SOL    HW278849   1.823   3.316  12.634
59004SOL     OW78850   8.880  12.112   6.517
59004SOL    HW178851   8.896  12.037   6.460
59004SOL    HW278852   8.958  12.117   6.572
59005SOL     OW78853  12.918   0.339   2.508
59005SOL    HW178854  12.970   0.326   2.587
59005SOL    HW278855  12.827   0.329   2.537
59006SOL     OW78856  14.565   4.237   9.847
59006SOL    HW178857  14.482   4.213   9.889
59006SOL    HW278858  14.540   4.264   9.758
59007SOL     OW78859   8.338   9.225   0.681
59007SOL    HW178860   8.250   9.188   0.671
59007SOL    HW278861   8.331   9.314   0.647
59008SOL     OW78862   0.255  12.545   6.659
59008SOL    HW178863   0.240  12.615   6.597
59008SOL    HW278864   0.180  12.549   6.719
59009SOL     OW78865   7.194   9.513  12.038
59009SOL    HW178866   7.246   9.540  12.113
59009SOL    HW278867   7.210   9.419  12.030
59010SOL     OW78868   0.075   2.641   0.021
59010SOL    HW178869   0.099   2.688   0.101
59010SOL    HW278870   0.146   2.659  14.842
59011SOL     OW78871   1.097   8.072  12.368
59011SOL    HW178872   1.096   7.998  12.427
59011SOL    HW278873   1.125   8.036  12.284
59012SOL     OW78874   7.378   5.755  12.277
59012SOL    HW178875   7.388   5.669  12.236
59012SOL    HW278876   7.353   5.736  12.368
59013SOL     OW78877  11.487  13.731  12.826
59013SOL    HW178878  11.465  13.778  12.745
59013SOL    HW278879  11.408  13.737  12.879
59014SOL     OW78880  10.754   5.463  10.407
59014SOL    HW178881  10.807   5.420  10.474
59014SOL    HW278882  10.803   5.543  10.386
59015SOL     OW78883   0.455   4.409  11.655
59015SOL    HW178884   0.530   4.377  11.706
59015SOL    HW278885   0.435   4.337  11.595
59016SOL     OW78886  12.021  12.077   7.947
59016SOL    HW178887  12.042  12.047   8.036
59016SOL    HW278888  12.060  12.164   7.941
59017SOL     OW78889  10.782   2.387   7.010
59017SOL    HW178890  10.735   2.350   6.936
59017SOL    HW278891  10.833   2.460   6.973
59018SOL     OW78892   9.426   8.922   7.202
59018SOL    HW178893   9.392   8.834   7.210
59018SOL    HW278894   9.440   8.951   7.292
59019SOL     OW78895   8.069  14.461  11.149
59019SOL    HW178896   8.157  14.457  11.186
59019SOL    HW278897   8.081  14.490  11.059
59020SOL     OW78898   5.968   7.775   9.677
59020SOL    HW178899   5.988   7.682   9.689
59020SOL    HW278900   5.919   7.800   9.755
59021SOL     OW78901  12.881   2.291   4.952
59021SOL    HW178902  12.805   2.258   4.903
59021SOL    HW278903  12.938   2.329   4.885
59022SOL     OW78904   6.616  11.630   8.598
59022SOL    HW178905   6.546  11.572   8.568
59022SOL    HW278906   6.635  11.685   8.522
59023SOL     OW78907   1.918  14.821   6.431
59023SOL    HW178908   1.972  14.877   6.486
59023SOL    HW278909   1.951  14.732   6.448
59024SOL     OW78910   0.993   6.308   1.808
59024SOL    HW178911   0.981   6.215   1.825
59024SOL    HW278912   0.932   6.352   1.867
59025SOL     OW78913   2.393  10.427   1.144
59025SOL    HW178914   2.309  10.440   1.187
59025SOL    HW278915   2.379  10.458   1.054
59026SOL     OW78916   2.007  12.538   2.636
59026SOL    HW178917   2.087  12.575   2.600
59026SOL    HW278918   2.037  12.466   2.692
59027SOL     OW78919   2.036   4.028   2.368
59027SOL    HW178920   2.052   3.979   2.449
59027SOL    HW278921   2.005   4.113   2.397
59028SOL     OW78922   0.398   8.386  13.256
59028SOL    HW178923   0.480   8.337  13.262
59028SOL    HW278924   0.426   8.475  13.233
59029SOL     OW78925   9.590   5.591  14.873
59029SOL    HW178926   9.563   5.657   0.054
59029SOL    HW278927   9.686   5.590  14.878
59030SOL     OW78928   7.670   3.123   4.861
59030SOL    HW178929   7.625   3.058   4.914
59030SOL    HW278930   7.621   3.204   4.875
59031SOL     OW78931   0.104   4.354   5.384
59031SOL    HW178932   0.149   4.270   5.383
59031SOL    HW278933   0.173   4.418   5.400
59032SOL     OW78934  10.770   9.836   0.233
59032SOL    HW178935  10.791   9.770   0.299
59032SOL    HW278936  10.718   9.789   0.168
59033SOL     OW78937  14.677   4.917  10.995
59033SOL    HW178938  14.582   4.917  10.990
59033SOL    HW278939  14.705   4.967  10.919
59034SOL     OW78940  13.147  11.077   9.421
59034SOL    HW178941  13.155  11.173   9.416
59034SOL    HW278942  13.097  11.062   9.501
59035SOL     OW78943  10.659  14.457  12.906
59035SOL    HW178944  10.724  14.526  12.890
59035SOL    HW278945  10.693  14.409  12.981
59036SOL     OW78946  13.138  10.712   7.546
59036SOL    HW178947  13.163  10.722   7.638
59036SOL    HW278948  13.083  10.634   7.544
59037SOL     OW78949   5.076  12.370  12.489
59037SOL    HW178950   5.098  12.433  12.557
59037SOL    HW278951   4.987  12.393  12.462
59038SOL     OW78952  11.292  14.170  11.532
59038SOL    HW178953  11.205  14.150  11.499
59038SOL    HW278954  11.283  14.255  11.575
59039SOL     OW78955   6.116  13.609   2.229
59039SOL    HW178956   6.134  13.702   2.222
59039SOL    HW278957   6.041  13.594   2.171
59040SOL     OW78958   8.349   9.614   7.659
59040SOL    HW178959   8.425   9.628   7.602
59040SOL    HW278960   8.275   9.645   7.608
59041SOL     OW78961  14.673   8.748  13.783
59041SOL    HW178962  14.631   8.823  13.741
59041SOL    HW278963  14.763   8.778  13.801
59042SOL     OW78964   2.423  11.791  13.818
59042SOL    HW178965   2.480  11.756  13.749
59042SOL    HW278966   2.399  11.878  13.788
59043SOL     OW78967   4.637   8.523   1.531
59043SOL    HW178968   4.724   8.494   1.504
59043SOL    HW278969   4.639   8.519   1.627
59044SOL     OW78970   7.904   5.060  13.294
59044SOL    HW178971   7.886   5.007  13.372
59044SOL    HW278972   7.940   4.998  13.230
59045SOL     OW78973   4.306   2.542   6.635
59045SOL    HW178974   4.297   2.602   6.710
59045SOL    HW278975   4.216   2.528   6.605
59046SOL     OW78976   0.079  13.646   3.300
59046SOL    HW178977   0.096  13.553   3.316
59046SOL    HW278978   0.139  13.668   3.228
59047SOL     OW78979   8.519   9.565  12.235
59047SOL    HW178980   8.580   9.596  12.169
59047SOL    HW278981   8.507   9.640  12.294
59048SOL     OW78982  12.975   5.577   2.100
59048SOL    HW178983  12.939   5.641   2.161
59048SOL    HW278984  13.051   5.540   2.147
59049SOL     OW78985  11.594   8.342   6.584
59049SOL    HW178986  11.628   8.398   6.653
59049SOL    HW278987  11.547   8.272   6.630
59050SOL     OW78988   2.049   9.297   1.401
59050SOL    HW178989   1.981   9.257   1.348
59050SOL    HW278990   2.020   9.283   1.492
59051SOL     OW78991  11.218  11.707  14.554
59051SOL    HW178992  11.293  11.681  14.607
59051SOL    HW278993  11.188  11.626  14.513
59052SOL     OW78994   0.571  13.732   3.892
59052SOL    HW178995   0.566  13.740   3.797
59052SOL    HW278996   0.494  13.779   3.924
59053SOL     OW78997   9.440  14.661  12.868
59053SOL    HW178998   9.366  14.709  12.831
59053SOL    HW278999   9.430  14.672  12.963
59054SOL     OW79000   5.112  13.036  12.760
59054SOL    HW179001   5.071  12.950  12.773
59054SOL    HW279002   5.146  13.033  12.671
59055SOL     OW79003   9.448   9.318  12.456
59055SOL    HW179004   9.493   9.332  12.372
59055SOL    HW279005   9.486   9.384  12.514
59056SOL     OW79006   3.950   5.601   8.316
59056SOL    HW179007   3.869   5.586   8.364
59056SOL    HW279008   3.974   5.514   8.283
59057SOL     OW79009   8.102   9.937  12.005
59057SOL    HW179010   8.185   9.908  11.966
59057SOL    HW279011   8.038   9.928  11.935
59058SOL     OW79012   2.607  13.025  14.858
59058SOL    HW179013   2.555  12.947  14.875
59058SOL    HW279014   2.697  12.998  14.875
59059SOL     OW79015   0.797   5.994   6.298
59059SOL    HW179016   0.818   5.904   6.271
59059SOL    HW279017   0.837   6.049   6.232
59060SOL     OW79018  12.275   1.721  12.769
59060SOL    HW179019  12.286   1.626  12.759
59060SOL    HW279020  12.186   1.739  12.738
59061SOL     OW79021   7.489  11.042   1.206
59061SOL    HW179022   7.578  11.073   1.217
59061SOL    HW279023   7.440  11.120   1.179
59062SOL     OW79024  13.735   1.882   8.851
59062SOL    HW179025  13.739   1.973   8.881
59062SOL    HW279026  13.764   1.886   8.760
59063SOL     OW79027   1.909  14.114  13.931
59063SOL    HW179028   1.990  14.071  13.961
59063SOL    HW279029   1.840  14.050  13.951
59064SOL     OW79030   0.513  14.584  12.711
59064SOL    HW179031   0.552  14.629  12.786
59064SOL    HW279032   0.441  14.641  12.684
59065SOL     OW79033   0.832   0.939  13.239
59065SOL    HW179034   0.835   0.856  13.287
59065SOL    HW279035   0.907   0.988  13.270
59066SOL     OW79036  10.067   4.627   3.191
59066SOL    HW179037   9.981   4.660   3.215
59066SOL    HW279038  10.122   4.706   3.185
59067SOL     OW79039  13.985  10.144   7.519
59067SOL    HW179040  13.924  10.109   7.583
59067SOL    HW279041  14.067  10.098   7.536
59068SOL     OW79042  14.402   4.730   1.111
59068SOL    HW179043  14.415   4.640   1.082
59068SOL    HW279044  14.474   4.747   1.172
59069SOL     OW79045   1.905  13.765   5.039
59069SOL    HW179046   1.879  13.686   4.993
59069SOL    HW279047   1.944  13.734   5.121
59070SOL     OW79048   5.085   0.016  10.086
59070SOL    HW179049   5.064   0.035  10.178
59070SOL    HW279050   5.000   0.014  10.042
59071SOL     OW79051   8.670   3.269   0.191
59071SOL    HW179052   8.695   3.189   0.144
59071SOL    HW279053   8.600   3.307   0.138
59072SOL     OW79054   3.994   9.527  13.666
59072SOL    HW179055   4.048   9.493  13.594
59072SOL    HW279056   3.927   9.580  13.622
59073SOL     OW79057   0.387  11.126   1.340
59073SOL    HW179058   0.348  11.167   1.417
59073SOL    HW279059   0.314  11.108   1.281
59074SOL     OW79060  13.998   4.352   2.170
59074SOL    HW179061  14.023   4.333   2.079
59074SOL    HW279062  13.969   4.443   2.168
59075SOL     OW79063   7.641   9.969  14.198
59075SOL    HW179064   7.730   9.944  14.173
59075SOL    HW279065   7.613  10.030  14.129
59076SOL     OW79066  14.401   4.341   4.904
59076SOL    HW179067  14.404   4.329   4.999
59076SOL    HW279068  14.493   4.342   4.878
59077SOL     OW79069   6.371   1.992   2.903
59077SOL    HW179070   6.348   2.085   2.913
59077SOL    HW279071   6.454   1.982   2.949
59078SOL     OW79072   9.457  12.871  13.005
59078SOL    HW179073   9.483  12.846  12.916
59078SOL    HW279074   9.453  12.966  13.004
59079SOL     OW79075   6.909  11.288   1.126
59079SOL    HW179076   6.884  11.378   1.105
59079SOL    HW279077   6.893  11.239   1.045
59080SOL     OW79078   9.173   9.105  13.790
59080SOL    HW179079   9.152   9.173  13.726
59080SOL    HW279080   9.091   9.088  13.835
59081SOL     OW79081   9.650  14.490  12.036
59081SOL    HW179082   9.630  14.574  11.994
59081SOL    HW279083   9.632  14.505  12.129
59082SOL     OW79084  11.199   6.666   3.104
59082SOL    HW179085  11.184   6.601   3.035
59082SOL    HW279086  11.125   6.656   3.163
59083SOL     OW79087  10.607   4.993  13.980
59083SOL    HW179088  10.575   5.083  13.980
59083SOL    HW279089  10.543   4.945  14.033
59084SOL     OW79090  13.543   2.279   0.859
59084SOL    HW179091  13.470   2.316   0.908
59084SOL    HW279092  13.502   2.235   0.784
59085SOL     OW79093  10.405  13.258   5.791
59085SOL    HW179094  10.433  13.197   5.723
59085SOL    HW279095  10.364  13.331   5.744
59086SOL     OW79096   8.844  11.475   6.000
59086SOL    HW179097   8.780  11.421   5.953
59086SOL    HW279098   8.871  11.421   6.074
59087SOL     OW79099  11.621   2.547   4.006
59087SOL    HW179100  11.589   2.612   4.069
59087SOL    HW279101  11.543   2.499   3.980
59088SOL     OW79102   8.394  14.649  10.047
59088SOL    HW179103   8.332  14.629  10.117
59088SOL    HW279104   8.343  14.638   9.966
59089SOL     OW79105  11.776   0.238   8.533
59089SOL    HW179106  11.802   0.165   8.590
59089SOL    HW279107  11.776   0.314   8.591
59090SOL     OW79108  10.854   3.660  10.361
59090SOL    HW179109  10.874   3.584  10.416
59090SOL    HW279110  10.858   3.735  10.421
59091SOL     OW79111   0.027   9.037   1.999
59091SOL    HW179112  14.849   8.985   2.052
59091SOL    HW279113   0.054   9.108   2.057
59092SOL     OW79114   3.873  13.120   0.208
59092SOL    HW179115   3.874  13.062   0.284
59092SOL    HW279116   3.902  13.066   0.136
59093SOL     OW79117   2.995  11.531   2.597
59093SOL    HW179118   2.954  11.598   2.650
59093SOL    HW279119   2.987  11.563   2.507
59094SOL     OW79120   9.583   0.302   6.195
59094SOL    HW179121   9.638   0.284   6.119
59094SOL    HW279122   9.493   0.298   6.161
59095SOL     OW79123   6.955   4.845  13.446
59095SOL    HW179124   7.046   4.825  13.423
59095SOL    HW279125   6.924   4.902  13.376
59096SOL     OW79126  14.563   0.627  13.888
59096SOL    HW179127  14.610   0.657  13.966
59096SOL    HW279128  14.619   0.558  13.852
59097SOL     OW79129   6.916   7.288   1.994
59097SOL    HW179130   6.953   7.228   1.929
59097SOL    HW279131   6.828   7.253   2.011
59098SOL     OW79132   7.654   8.881  13.873
59098SOL    HW179133   7.606   8.939  13.933
59098SOL    HW279134   7.745   8.885  13.904
59099SOL     OW79135   3.053   2.197   5.280
59099SOL    HW179136   3.126   2.144   5.248
59099SOL    HW279137   3.007   2.225   5.201
59100SOL     OW79138  10.618   2.238   9.569
59100SOL    HW179139  10.599   2.271   9.657
59100SOL    HW279140  10.532   2.225   9.529
59101SOL     OW79141   7.388   2.285   4.356
59101SOL    HW179142   7.440   2.361   4.329
59101SOL    HW279143   7.298   2.306   4.329
59102SOL     OW79144   3.101   5.386   9.665
59102SOL    HW179145   3.170   5.420   9.609
59102SOL    HW279146   3.104   5.291   9.652
59103SOL     OW79147   4.439   0.329  14.480
59103SOL    HW179148   4.384   0.402  14.508
59103SOL    HW279149   4.502   0.318  14.550
59104SOL     OW79150   5.610   3.073  13.966
59104SOL    HW179151   5.697   3.105  13.990
59104SOL    HW279152   5.609   3.076  13.870
59105SOL     OW79153   0.398   2.712  10.752
59105SOL    HW179154   0.356   2.640  10.798
59105SOL    HW279155   0.491   2.705  10.773
59106SOL     OW79156   8.927   7.720   6.548
59106SOL    HW179157   8.869   7.786   6.585
59106SOL    HW279158   8.916   7.729   6.453
59107SOL     OW79159   3.732   2.037   2.438
59107SOL    HW179160   3.746   2.053   2.532
59107SOL    HW279161   3.796   1.970   2.415
59108SOL     OW79162   2.284  14.655  12.456
59108SOL    HW179163   2.274  14.600  12.533
59108SOL    HW279164   2.261  14.743  12.485
59109SOL     OW79165  10.771   1.814   9.150
59109SOL    HW179166  10.825   1.804   9.071
59109SOL    HW279167  10.713   1.738   9.149
59110SOL     OW79168   6.165   9.593  13.040
59110SOL    HW179169   6.077   9.586  13.077
59110SOL    HW279170   6.183   9.506  13.005
59111SOL     OW79171   9.416   5.594   3.014
59111SOL    HW179172   9.502   5.601   2.974
59111SOL    HW279173   9.355   5.626   2.948
59112SOL     OW79174  13.722   0.148   2.713
59112SOL    HW179175  13.762   0.069   2.676
59112SOL    HW279176  13.629   0.126   2.719
59113SOL     OW79177  12.192   3.284   0.988
59113SOL    HW179178  12.116   3.341   0.994
59113SOL    HW279179  12.172   3.224   0.916
59114SOL     OW79180   5.527   7.945   5.341
59114SOL    HW179181   5.571   8.011   5.394
59114SOL    HW279182   5.590   7.922   5.273
59115SOL     OW79183   4.075   5.675   4.319
59115SOL    HW179184   3.988   5.638   4.330
59115SOL    HW279185   4.085   5.736   4.393
59116SOL     OW79186   9.231   0.495   9.859
59116SOL    HW179187   9.190   0.442   9.928
59116SOL    HW279188   9.212   0.585   9.884
59117SOL     OW79189   3.339   4.485   3.954
59117SOL    HW179190   3.297   4.556   3.905
59117SOL    HW279191   3.400   4.529   4.013
59118SOL     OW79192  12.752  12.985   1.228
59118SOL    HW179193  12.772  12.894   1.206
59118SOL    HW279194  12.832  13.033   1.207
59119SOL     OW79195   2.861   0.333   2.274
59119SOL    HW179196   2.838   0.314   2.183
59119SOL    HW279197   2.792   0.393   2.304
59120SOL     OW79198  12.315   3.167   4.928
59120SOL    HW179199  12.256   3.112   4.877
59120SOL    HW279200  12.398   3.119   4.928
59121SOL     OW79201  10.718   0.406   9.007
59121SOL    HW179202  10.692   0.333   9.063
59121SOL    HW279203  10.782   0.455   9.059
59122SOL     OW79204   6.753  13.302   1.359
59122SOL    HW179205   6.763  13.275   1.268
59122SOL    HW279206   6.828  13.263   1.404
59123SOL     OW79207   6.600   6.881   9.058
59123SOL    HW179208   6.614   6.975   9.059
59123SOL    HW279209   6.543   6.866   8.982
59124SOL     OW79210   0.545   5.539  14.869
59124SOL    HW179211   0.457   5.575  14.858
59124SOL    HW279212   0.583   5.542  14.781
59125SOL     OW79213   2.250   2.743   7.514
59125SOL    HW179214   2.203   2.725   7.433
59125SOL    HW279215   2.328   2.688   7.510
59126SOL     OW79216   8.898   7.896   7.318
59126SOL    HW179217   8.809   7.865   7.302
59126SOL    HW279218   8.924   7.939   7.236
59127SOL     OW79219   5.162  14.269   3.462
59127SOL    HW179220   5.219  14.310   3.527
59127SOL    HW279221   5.074  14.274   3.500
59128SOL     OW79222   8.399   1.495  13.874
59128SOL    HW179223   8.366   1.513  13.786
59128SOL    HW279224   8.423   1.402  13.871
59129SOL     OW79225   4.534   0.052   6.636
59129SOL    HW179226   4.514   0.035   6.728
59129SOL    HW279227   4.623   0.019   6.623
59130SOL     OW79228  13.473   7.751   5.758
59130SOL    HW179229  13.418   7.730   5.834
59130SOL    HW279230  13.443   7.692   5.689
59131SOL     OW79231   9.243   6.767   6.498
59131SOL    HW179232   9.205   6.684   6.472
59131SOL    HW279233   9.308   6.744   6.565
59132SOL     OW79234   6.195   6.365   0.473
59132SOL    HW179235   6.243   6.408   0.544
59132SOL    HW279236   6.261   6.351   0.405
59133SOL     OW79237   3.009   7.782   9.893
59133SOL    HW179238   2.933   7.822   9.935
59133SOL    HW279239   3.061   7.855   9.861
59134SOL     OW79240   4.944   7.695  11.241
59134SOL    HW179241   4.882   7.693  11.168
59134SOL    HW279242   5.000   7.618  11.228
59135SOL     OW79243   3.861   4.241   9.586
59135SOL    HW179244   3.883   4.160   9.632
59135SOL    HW279245   3.858   4.308   9.654
59136SOL     OW79246   1.266   7.865   1.820
59136SOL    HW179247   1.320   7.856   1.899
59136SOL    HW279248   1.330   7.864   1.749
59137SOL     OW79249  11.212   9.280   3.052
59137SOL    HW179250  11.241   9.215   3.117
59137SOL    HW279251  11.219   9.234   2.968
59138SOL     OW79252   2.378   4.723  10.956
59138SOL    HW179253   2.378   4.698  11.049
59138SOL    HW279254   2.470   4.719  10.930
59139SOL     OW79255  10.826   3.850   7.336
59139SOL    HW179256  10.827   3.762   7.298
59139SOL    HW279257  10.734   3.867   7.355
59140SOL     OW79258  12.046   7.470   3.340
59140SOL    HW179259  12.016   7.546   3.290
59140SOL    HW279260  11.966   7.424   3.364
59141SOL     OW79261   4.302   9.206   4.168
59141SOL    HW179262   4.370   9.269   4.143
59141SOL    HW279263   4.227   9.260   4.192
59142SOL     OW79264   0.706   6.010   6.993
59142SOL    HW179265   0.754   5.934   6.959
59142SOL    HW279266   0.772   6.061   7.040
59143SOL     OW79267   7.872   7.289   4.950
59143SOL    HW179268   7.806   7.221   4.932
59143SOL    HW279269   7.936   7.247   5.005
59144SOL     OW79270   3.889  14.397  12.015
59144SOL    HW179271   3.851  14.470  11.967
59144SOL    HW279272   3.882  14.322  11.956
59145SOL     OW79273  12.048   5.459   4.380
59145SOL    HW179274  12.099   5.427   4.454
59145SOL    HW279275  12.001   5.535   4.413
59146SOL     OW79276   3.700  10.917   8.024
59146SOL    HW179277   3.619  10.966   8.037
59146SOL    HW279278   3.765  10.983   8.001
59147SOL     OW79279   0.326  13.860   3.921
59147SOL    HW179280   0.284  13.799   3.981
59147SOL    HW279281   0.279  13.942   3.933
59148SOL     OW79282   2.822  14.301   9.651
59148SOL    HW179283   2.808  14.216   9.692
59148SOL    HW279284   2.906  14.331   9.686
59149SOL     OW79285   4.254  10.990   9.110
59149SOL    HW179286   4.293  11.044   9.178
59149SOL    HW279287   4.161  10.984   9.134
59150SOL     OW79288  10.402  11.456   1.441
59150SOL    HW179289  10.348  11.465   1.363
59150SOL    HW279290  10.368  11.378   1.485
59151SOL     OW79291   0.997   2.667  12.485
59151SOL    HW179292   0.950   2.656  12.567
59151SOL    HW279293   0.931   2.651  12.417
59152SOL     OW79294  10.902  11.130  11.663
59152SOL    HW179295  10.852  11.184  11.601
59152SOL    HW279296  10.989  11.168  11.664
59153SOL     OW79297  13.201   1.557  11.921
59153SOL    HW179298  13.283   1.529  11.963
59153SOL    HW279299  13.191   1.499  11.846
59154SOL     OW79300  13.157   8.767   9.741
59154SOL    HW179301  13.122   8.704   9.678
59154SOL    HW279302  13.241   8.794   9.704
59155SOL     OW79303  12.748  14.538   1.903
59155SOL    HW179304  12.757  14.607   1.837
59155SOL    HW279305  12.828  14.544   1.955
59156SOL     OW79306   2.991   9.258  13.333
59156SOL    HW179307   2.979   9.163  13.330
59156SOL    HW279308   2.941   9.291  13.258
59157SOL     OW79309   1.385   7.783   9.945
59157SOL    HW179310   1.316   7.843   9.972
59157SOL    HW279311   1.464   7.838   9.940
59158SOL     OW79312   2.531  11.226   4.386
59158SOL    HW179313   2.570  11.310   4.362
59158SOL    HW279314   2.563  11.165   4.320
59159SOL     OW79315  10.187  11.522   6.478
59159SOL    HW179316  10.180  11.437   6.521
59159SOL    HW279317  10.164  11.585   6.546
59160SOL     OW79318  14.220  14.866  11.267
59160SOL    HW179319  14.302  14.866  11.316
59160SOL    HW279320  14.170   0.057  11.304
59161SOL     OW79321   1.485   3.462  10.344
59161SOL    HW179322   1.445   3.490  10.261
59161SOL    HW279323   1.578   3.451  10.323
59162SOL     OW79324   3.418   4.186   5.997
59162SOL    HW179325   3.472   4.242   5.943
59162SOL    HW279326   3.401   4.237   6.076
59163SOL     OW79327   5.441   6.396   5.807
59163SOL    HW179328   5.375   6.438   5.750
59163SOL    HW279329   5.422   6.303   5.800
59164SOL     OW79330   1.109  10.910   7.717
59164SOL    HW179331   1.187  10.956   7.746
59164SOL    HW279332   1.106  10.831   7.770
59165SOL     OW79333   2.911   2.292  13.433
59165SOL    HW179334   2.839   2.245  13.475
59165SOL    HW279335   2.923   2.371  13.485
59166SOL     OW79336   7.202   8.892   6.111
59166SOL    HW179337   7.292   8.924   6.115
59166SOL    HW279338   7.210   8.797   6.116
59167SOL     OW79339  11.415   6.557  11.079
59167SOL    HW179340  11.441   6.492  11.144
59167SOL    HW279341  11.417   6.510  10.996
59168SOL     OW79342   0.548  10.767   0.928
59168SOL    HW179343   0.578  10.749   0.839
59168SOL    HW279344   0.629  10.779   0.979
59169SOL     OW79345   5.068   5.150  12.798
59169SOL    HW179346   5.091   5.106  12.880
59169SOL    HW279347   5.145   5.203  12.776
59170SOL     OW79348  11.406   0.048  10.108
59170SOL    HW179349  11.370   0.136  10.118
59170SOL    HW279350  11.365   0.013  10.029
59171SOL     OW79351  14.013  14.817   0.777
59171SOL    HW179352  13.945  14.807   0.844
59171SOL    HW279353  14.094  14.828   0.827
59172SOL     OW79354   4.598   0.301   6.724
59172SOL    HW179355   4.571   0.214   6.695
59172SOL    HW279356   4.516   0.349   6.733
59173SOL     OW79357  14.535   3.012  10.288
59173SOL    HW179358  14.589   2.963  10.226
59173SOL    HW279359  14.459   3.039  10.236
59174SOL     OW79360  10.670   0.925   4.536
59174SOL    HW179361  10.586   0.885   4.515
59174SOL    HW279362  10.650   0.989   4.604
59175SOL     OW79363   9.592   2.288   8.627
59175SOL    HW179364   9.533   2.318   8.696
59175SOL    HW279365   9.611   2.197   8.649
59176SOL     OW79366   3.426  13.877  10.431
59176SOL    HW179367   3.333  13.893  10.446
59176SOL    HW279368   3.448  13.805  10.490
59177SOL     OW79369   6.706  11.689   4.952
59177SOL    HW179370   6.784  11.674   5.005
59177SOL    HW279371   6.655  11.608   4.961
59178SOL     OW79372   8.103   6.849   9.326
59178SOL    HW179373   8.129   6.806   9.408
59178SOL    HW279374   8.014   6.818   9.310
59179SOL     OW79375   5.091   9.822   4.911
59179SOL    HW179376   5.103   9.826   4.816
59179SOL    HW279377   5.040   9.742   4.926
59180SOL     OW79378   3.220   6.565   7.595
59180SOL    HW179379   3.158   6.544   7.526
59180SOL    HW279380   3.284   6.622   7.553
59181SOL     OW79381   9.754   3.116  11.980
59181SOL    HW179382   9.739   3.108  12.074
59181SOL    HW279383   9.848   3.100  11.969
59182SOL     OW79384   6.045   1.688   8.811
59182SOL    HW179385   6.106   1.658   8.744
59182SOL    HW279386   6.004   1.608   8.844
59183SOL     OW79387   1.211   5.505   9.797
59183SOL    HW179388   1.289   5.485   9.745
59183SOL    HW279389   1.178   5.420   9.825
59184SOL     OW79390   1.976   8.754  11.261
59184SOL    HW179391   2.043   8.809  11.220
59184SOL    HW279392   1.995   8.666  11.230
59185SOL     OW79393   6.369   5.894   6.394
59185SOL    HW179394   6.336   5.962   6.453
59185SOL    HW279395   6.363   5.933   6.307
59186SOL     OW79396   9.210  11.229   3.363
59186SOL    HW179397   9.156  11.158   3.328
59186SOL    HW279398   9.158  11.308   3.348
59187SOL     OW79399   4.482   8.653   2.783
59187SOL    HW179400   4.460   8.591   2.852
59187SOL    HW279401   4.437   8.619   2.706
59188SOL     OW79402   5.149  13.821   1.800
59188SOL    HW179403   5.120  13.800   1.889
59188SOL    HW279404   5.086  13.777   1.743
59189SOL     OW79405   3.379   8.915  14.798
59189SOL    HW179406   3.458   8.955  14.762
59189SOL    HW279407   3.404   8.825  14.819
59190SOL     OW79408  10.096  14.860   7.630
59190SOL    HW179409  10.002  14.847   7.617
59190SOL    HW279410  10.113  14.831   7.719
59191SOL     OW79411   6.788   7.495  13.963
59191SOL    HW179412   6.770   7.450  13.880
59191SOL    HW279413   6.833   7.430  14.016
59192SOL     OW79414   0.900   4.796   3.637
59192SOL    HW179415   0.992   4.786   3.660
59192SOL    HW279416   0.886   4.891   3.633
59193SOL     OW79417   9.066   1.335  12.801
59193SOL    HW179418   9.073   1.326  12.896
59193SOL    HW279419   8.974   1.316  12.782
59194SOL     OW79420   7.815   6.616   7.024
59194SOL    HW179421   7.753   6.614   6.951
59194SOL    HW279422   7.840   6.708   7.032
59195SOL     OW79423  11.643   0.012   3.406
59195SOL    HW179424  11.730  14.862   3.434
59195SOL    HW279425  11.647   0.107   3.418
59196SOL     OW79426   7.704   9.078   5.326
59196SOL    HW179427   7.612   9.071   5.351
59196SOL    HW279428   7.716   9.010   5.259
59197SOL     OW79429   9.613   4.488  14.826
59197SOL    HW179430   9.666   4.411  14.848
59197SOL    HW279431   9.666   4.537  14.763
59198SOL     OW79432   3.808  11.665   7.258
59198SOL    HW179433   3.874  11.701   7.199
59198SOL    HW279434   3.843  11.580   7.285
59199SOL     OW79435   5.859   3.901   2.258
59199SOL    HW179436   5.902   3.823   2.223
59199SOL    HW279437   5.779   3.868   2.300
59200SOL     OW79438   7.660   4.644   8.942
59200SOL    HW179439   7.659   4.602   8.856
59200SOL    HW279440   7.681   4.736   8.924
59201SOL     OW79441   1.701  10.688  13.302
59201SOL    HW179442   1.712  10.761  13.362
59201SOL    HW279443   1.790  10.665  13.275
59202SOL     OW79444  13.058   1.284  11.454
59202SOL    HW179445  12.974   1.237  11.449
59202SOL    HW279446  13.055   1.346  11.381
59203SOL     OW79447   1.964   4.290   8.143
59203SOL    HW179448   1.979   4.195   8.149
59203SOL    HW279449   1.959   4.307   8.049
59204SOL     OW79450  11.132   6.819  13.677
59204SOL    HW179451  11.225   6.797  13.678
59204SOL    HW279452  11.129   6.914  13.670
59205SOL     OW79453   0.598  13.734   0.944
59205SOL    HW179454   0.688  13.731   0.978
59205SOL    HW279455   0.559  13.810   0.987
59206SOL     OW79456   4.451   7.346  10.398
59206SOL    HW179457   4.443   7.263  10.349
59206SOL    HW279458   4.379   7.343  10.461
59207SOL     OW79459   2.615   0.931  13.830
59207SOL    HW179460   2.658   0.939  13.916
59207SOL    HW279461   2.587   1.020  13.810
59208SOL     OW79462   3.535   3.147  10.595
59208SOL    HW179463   3.630   3.150  10.581
59208SOL    HW279464   3.525   3.100  10.678
59209SOL     OW79465   4.650   0.059   5.951
59209SOL    HW179466   4.591   0.046   6.025
59209SOL    HW279467   4.653   0.154   5.938
59210SOL     OW79468  10.623  12.617   9.118
59210SOL    HW179469  10.619  12.673   9.041
59210SOL    HW279470  10.590  12.532   9.089
59211SOL     OW79471   8.827   4.582   5.154
59211SOL    HW179472   8.756   4.522   5.133
59211SOL    HW279473   8.818   4.653   5.090
59212SOL     OW79474   2.078   4.293  11.578
59212SOL    HW179475   2.145   4.333  11.633
59212SOL    HW279476   2.121   4.215  11.541
59213SOL     OW79477  14.602   0.724  10.373
59213SOL    HW179478  14.643   0.800  10.415
59213SOL    HW279479  14.675   0.674  10.337
59214SOL     OW79480   8.301  14.511  11.639
59214SOL    HW179481   8.277  14.601  11.619
59214SOL    HW279482   8.380  14.518  11.692
59215SOL     OW79483   8.865   7.639  14.412
59215SOL    HW179484   8.871   7.733  14.427
59215SOL    HW279485   8.818   7.606  14.489
59216SOL     OW79486   1.479  10.652   3.589
59216SOL    HW179487   1.574  10.644   3.598
59216SOL    HW279488   1.445  10.633   3.676
59217SOL     OW79489   9.750  11.834   0.710
59217SOL    HW179490   9.719  11.809   0.797
59217SOL    HW279491   9.766  11.751   0.665
59218SOL     OW79492   0.392   4.456   1.995
59218SOL    HW179493   0.315   4.431   1.945
59218SOL    HW279494   0.461   4.398   1.963
59219SOL     OW79495   5.841   1.759  11.069
59219SOL    HW179496   5.866   1.694  11.135
59219SOL    HW279497   5.923   1.803  11.046
59220SOL     OW79498   3.695  14.857   4.823
59220SOL    HW179499   3.719  14.777   4.775
59220SOL    HW279500   3.712   0.046   4.761
59221SOL     OW79501  10.660   3.149  11.136
59221SOL    HW179502  10.611   3.164  11.055
59221SOL    HW279503  10.593   3.155  11.205
59222SOL     OW79504   0.765  10.147   0.456
59222SOL    HW179505   0.718  10.140   0.539
59222SOL    HW279506   0.722  10.220   0.411
59223SOL     OW79507   8.317   6.888   2.820
59223SOL    HW179508   8.309   6.928   2.733
59223SOL    HW279509   8.353   6.802   2.803
59224SOL     OW79510   9.930  10.453   8.969
59224SOL    HW179511  10.001  10.394   8.943
59224SOL    HW279512   9.953  10.479   9.059
59225SOL     OW79513   0.841   5.343  11.565
59225SOL    HW179514   0.882   5.390  11.492
59225SOL    HW279515   0.765   5.300  11.526
59226SOL     OW79516  11.795   4.699  13.594
59226SOL    HW179517  11.836   4.614  13.579
59226SOL    HW279518  11.868   4.761  13.600
59227SOL     OW79519   1.300  13.284  11.070
59227SOL    HW179520   1.260  13.275  11.157
59227SOL    HW279521   1.241  13.237  11.011
59228SOL     OW79522   1.943   5.394   5.824
59228SOL    HW179523   1.957   5.371   5.732
59228SOL    HW279524   2.029   5.384   5.865
59229SOL     OW79525   8.593  10.090   6.747
59229SOL    HW179526   8.646  10.059   6.820
59229SOL    HW279527   8.541  10.013   6.721
59230SOL     OW79528   0.854   5.961   4.948
59230SOL    HW179529   0.762   5.990   4.945
59230SOL    HW279530   0.849   5.866   4.938
59231SOL     OW79531   9.446  14.036   0.356
59231SOL    HW179532   9.410  14.066   0.440
59231SOL    HW279533   9.450  14.116   0.303
59232SOL     OW79534   2.406   3.462   1.656
59232SOL    HW179535   2.487   3.447   1.704
59232SOL    HW279536   2.401   3.557   1.646
59233SOL     OW79537  12.686   0.318   1.798
59233SOL    HW179538  12.678   0.263   1.876
59233SOL    HW279539  12.620   0.386   1.810
59234SOL     OW79540   0.636  14.226   5.477
59234SOL    HW179541   0.657  14.319   5.476
59234SOL    HW279542   0.657  14.198   5.566
59235SOL     OW79543   5.905   5.850   3.811
59235SOL    HW179544   5.902   5.825   3.719
59235SOL    HW279545   5.838   5.795   3.853
59236SOL     OW79546   6.537   3.728   7.772
59236SOL    HW179547   6.467   3.791   7.752
59236SOL    HW279548   6.504   3.645   7.739
59237SOL     OW79549   0.365   4.600  12.972
59237SOL    HW179550   0.377   4.659  12.898
59237SOL    HW279551   0.288   4.548  12.949
59238SOL     OW79552   1.035   2.692   4.799
59238SOL    HW179553   1.054   2.599   4.791
59238SOL    HW279554   0.942   2.696   4.817
59239SOL     OW79555   4.244  11.295  11.530
59239SOL    HW179556   4.228  11.329  11.618
59239SOL    HW279557   4.318  11.236  11.540
59240SOL     OW79558   3.339   9.101   2.601
59240SOL    HW179559   3.408   9.067   2.544
59240SOL    HW279560   3.259   9.058   2.568
59241SOL     OW79561   7.086   0.102  13.617
59241SOL    HW179562   7.173   0.100  13.655
59241SOL    HW279563   7.053   0.190  13.635
59242SOL     OW79564  13.277   3.745   5.740
59242SOL    HW179565  13.352   3.757   5.799
59242SOL    HW279566  13.215   3.693   5.791
59243SOL     OW79567   9.896  12.389   6.850
59243SOL    HW179568   9.919  12.311   6.801
59243SOL    HW279569   9.874  12.454   6.783
59244SOL     OW79570  11.875   2.361  14.563
59244SOL    HW179571  11.846   2.366  14.655
59244SOL    HW279572  11.794   2.354  14.513
59245SOL     OW79573   4.341   9.670   1.428
59245SOL    HW179574   4.390   9.691   1.348
59245SOL    HW279575   4.264   9.725   1.424
59246SOL     OW79576   9.807  14.749  13.378
59246SOL    HW179577   9.777  14.772  13.290
59246SOL    HW279578   9.745  14.682  13.407
59247SOL     OW79579   2.766   5.969   3.008
59247SOL    HW179580   2.764   6.052   3.055
59247SOL    HW279581   2.755   5.992   2.916
59248SOL     OW79582   1.273  10.925  13.527
59248SOL    HW179583   1.339  10.913  13.594
59248SOL    HW279584   1.322  10.959  13.451
59249SOL     OW79585  12.865   2.967  11.204
59249SOL    HW179586  12.841   2.916  11.281
59249SOL    HW279587  12.950   3.006  11.226
59250SOL     OW79588  14.603  14.504   6.131
59250SOL    HW179589  14.558  14.549   6.059
59250SOL    HW279590  14.689  14.482   6.095
59251SOL     OW79591   3.140   0.848  10.593
59251SOL    HW179592   3.173   0.762  10.567
59251SOL    HW279593   3.090   0.831  10.673
59252SOL     OW79594   7.188   7.734   8.566
59252SOL    HW179595   7.197   7.792   8.490
59252SOL    HW279596   7.186   7.793   8.641
59253SOL     OW79597   3.004   8.290  14.831
59253SOL    HW179598   3.056   8.242   0.013
59253SOL    HW279599   3.067   8.348  14.787
59254SOL     OW79600  12.372  13.340  14.726
59254SOL    HW179601  12.320  13.393  14.665
59254SOL    HW279602  12.316  13.267  14.749
59255SOL     OW79603  10.477   0.513   7.806
59255SOL    HW179604  10.391   0.544   7.837
59255SOL    HW279605  10.535   0.524   7.882
59256SOL     OW79606   9.977   2.944  13.785
59256SOL    HW179607  10.057   2.925  13.736
59256SOL    HW279608   9.933   3.011  13.734
59257SOL     OW79609   8.344  10.258   2.012
59257SOL    HW179610   8.262  10.242   2.058
59257SOL    HW279611   8.399  10.303   2.077
59258SOL     OW79612   6.665   7.986   3.848
59258SOL    HW179613   6.683   8.079   3.861
59258SOL    HW279614   6.577   7.984   3.810
59259SOL     OW79615   8.834   8.977   3.512
59259SOL    HW179616   8.853   9.061   3.554
59259SOL    HW279617   8.806   9.001   3.424
59260SOL     OW79618   9.586   4.041  12.725
59260SOL    HW179619   9.518   3.982  12.693
59260SOL    HW279620   9.540   4.101  12.784
59261SOL     OW79621  10.267   2.250   0.539
59261SOL    HW179622  10.270   2.287   0.628
59261SOL    HW279623  10.213   2.311   0.489
59262SOL     OW79624   4.962   3.279   1.904
59262SOL    HW179625   4.987   3.251   1.816
59262SOL    HW279626   4.871   3.251   1.913
59263SOL     OW79627   2.154   4.339   3.956
59263SOL    HW179628   2.073   4.379   3.926
59263SOL    HW279629   2.212   4.341   3.879
59264SOL     OW79630  12.839  14.702   2.614
59264SOL    HW179631  12.802  14.775   2.663
59264SOL    HW279632  12.863  14.638   2.682
59265SOL     OW79633  11.569   8.793   7.426
59265SOL    HW179634  11.594   8.701   7.419
59265SOL    HW279635  11.551   8.806   7.519
59266SOL     OW79636  13.594   7.942   6.012
59266SOL    HW179637  13.520   7.965   6.068
59266SOL    HW279638  13.560   7.873   5.955
59267SOL     OW79639   6.381  12.422  11.848
59267SOL    HW179640   6.325  12.486  11.893
59267SOL    HW279641   6.367  12.341  11.897
59268SOL     OW79642  14.352  13.488   5.212
59268SOL    HW179643  14.406  13.486   5.291
59268SOL    HW279644  14.414  13.512   5.142
59269SOL     OW79645  11.859   6.716  14.328
59269SOL    HW179646  11.837   6.778  14.258
59269SOL    HW279647  11.935   6.754  14.371
59270SOL     OW79648   2.693  11.955   0.466
59270SOL    HW179649   2.774  11.956   0.517
59270SOL    HW279650   2.645  11.879   0.498
59271SOL     OW79651   6.371   1.744   8.752
59271SOL    HW179652   6.453   1.720   8.795
59271SOL    HW279653   6.326   1.799   8.815
59272SOL     OW79654  14.721  14.644   1.375
59272SOL    HW179655  14.692  14.554   1.391
59272SOL    HW279656  14.806  14.635   1.331
59273SOL     OW79657  14.632  14.671  12.296
59273SOL    HW179658  14.654  14.582  12.324
59273SOL    HW279659  14.546  14.663  12.255
59274SOL     OW79660   4.333   6.097   0.972
59274SOL    HW179661   4.358   6.041   0.899
59274SOL    HW279662   4.353   6.186   0.943
59275SOL     OW79663   1.094   2.646   4.388
59275SOL    HW179664   1.045   2.612   4.313
59275SOL    HW279665   1.080   2.581   4.457
59276SOL     OW79666  10.973   8.746  12.240
59276SOL    HW179667  10.998   8.655  12.254
59276SOL    HW279668  10.897   8.759  12.297
59277SOL     OW79669  12.944   5.090  12.075
59277SOL    HW179670  12.946   5.003  12.117
59277SOL    HW279671  12.966   5.072  11.984
59278SOL     OW79672   3.476   6.070   0.857
59278SOL    HW179673   3.507   6.114   0.778
59278SOL    HW279674   3.421   5.998   0.825
59279SOL     OW79675   5.681   2.268   8.722
59279SOL    HW179676   5.591   2.287   8.696
59279SOL    HW279677   5.673   2.223   8.806
59280SOL     OW79678   6.765  13.901  13.918
59280SOL    HW179679   6.754  13.824  13.862
59280SOL    HW279680   6.835  13.951  13.875
59281SOL     OW79681   5.528  14.685   9.167
59281SOL    HW179682   5.568  14.602   9.194
59281SOL    HW279683   5.578  14.712   9.090
59282SOL     OW79684   5.592   1.091   5.437
59282SOL    HW179685   5.665   1.127   5.486
59282SOL    HW279686   5.522   1.156   5.447
59283SOL     OW79687   8.128  12.573  10.159
59283SOL    HW179688   8.211  12.593  10.202
59283SOL    HW279689   8.117  12.478  10.170
59284SOL     OW79690   2.605   2.367   0.735
59284SOL    HW179691   2.565   2.300   0.790
59284SOL    HW279692   2.531   2.407   0.690
59285SOL     OW79693   7.343  14.403   2.911
59285SOL    HW179694   7.259  14.436   2.877
59285SOL    HW279695   7.323  14.316   2.944
59286SOL     OW79696   5.425   8.886   9.403
59286SOL    HW179697   5.508   8.916   9.438
59286SOL    HW279698   5.434   8.791   9.397
59287SOL     OW79699   3.615   6.150  13.220
59287SOL    HW179700   3.550   6.138  13.151
59287SOL    HW279701   3.626   6.062  13.257
59288SOL     OW79702   3.056   6.071   6.285
59288SOL    HW179703   3.050   6.030   6.371
59288SOL    HW279704   3.101   6.155   6.301
59289SOL     OW79705   5.619   1.040  12.101
59289SOL    HW179706   5.618   1.062  12.194
59289SOL    HW279707   5.560   0.965  12.093
59290SOL     OW79708   6.090   4.128  14.294
59290SOL    HW179709   6.017   4.186  14.272
59290SOL    HW279710   6.054   4.068  14.360
59291SOL     OW79711   1.809   2.722   1.998
59291SOL    HW179712   1.727   2.754   2.037
59291SOL    HW279713   1.800   2.627   1.999
59292SOL     OW79714   7.547  13.339  14.742
59292SOL    HW179715   7.496  13.400  14.690
59292SOL    HW279716   7.626  13.324  14.690
59293SOL     OW79717   6.740   4.387   3.578
59293SOL    HW179718   6.764   4.328   3.506
59293SOL    HW279719   6.698   4.461   3.535
59294SOL     OW79720  13.885  13.777  12.996
59294SOL    HW179721  13.979  13.762  12.986
59294SOL    HW279722  13.846  13.737  12.918
59295SOL     OW79723   2.542  11.524  12.669
59295SOL    HW179724   2.556  11.475  12.588
59295SOL    HW279725   2.560  11.461  12.738
59296SOL     OW79726   5.710   0.006  14.744
59296SOL    HW179727   5.768  14.822  14.780
59296SOL    HW279728   5.638  14.839  14.706
59297SOL     OW79729  13.176   2.794   8.431
59297SOL    HW179730  13.270   2.811   8.441
59297SOL    HW279731  13.158   2.816   8.339
59298SOL     OW79732   7.558   8.612   2.669
59298SOL    HW179733   7.463   8.621   2.662
59298SOL    HW279734   7.591   8.701   2.657
59299SOL     OW79735  13.419   6.523  12.188
59299SOL    HW179736  13.387   6.478  12.266
59299SOL    HW279737  13.511   6.496  12.181
59300SOL     OW79738   7.939   0.679   6.954
59300SOL    HW179739   7.981   0.626   6.886
59300SOL    HW279740   7.847   0.684   6.928
59301SOL     OW79741   1.588   6.304  12.197
59301SOL    HW179742   1.658   6.239  12.186
59301SOL    HW279743   1.609   6.372  12.133
59302SOL     OW79744  11.919  10.752   3.611
59302SOL    HW179745  11.980  10.710   3.672
59302SOL    HW279746  11.861  10.681   3.583
59303SOL     OW79747   1.472  12.612  14.660
59303SOL    HW179748   1.415  12.688  14.671
59303SOL    HW279749   1.545  12.645  14.608
59304SOL     OW79750   1.799   7.427  14.796
59304SOL    HW179751   1.853   7.350  14.814
59304SOL    HW279752   1.797   7.433  14.701
59305SOL     OW79753   8.523  14.112   9.310
59305SOL    HW179754   8.492  14.166   9.237
59305SOL    HW279755   8.444  14.084   9.355
59306SOL     OW79756   9.632  14.551   6.528
59306SOL    HW179757   9.606  14.570   6.438
59306SOL    HW279758   9.692  14.477   6.521
59307SOL     OW79759  12.683   2.743   3.460
59307SOL    HW179760  12.733   2.760   3.539
59307SOL    HW279761  12.678   2.647   3.455
59308SOL     OW79762   6.461   4.949   7.063
59308SOL    HW179763   6.543   4.958   7.014
59308SOL    HW279764   6.409   5.024   7.036
59309SOL     OW79765   4.890   4.389   3.031
59309SOL    HW179766   4.936   4.332   3.094
59309SOL    HW279767   4.898   4.477   3.068
59310SOL     OW79768  12.871  12.278   0.055
59310SOL    HW179769  12.901  12.294   0.144
59310SOL    HW279770  12.917  12.198   0.028
59311SOL     OW79771   8.700   4.567   5.563
59311SOL    HW179772   8.618   4.614   5.578
59311SOL    HW279773   8.754   4.587   5.639
59312SOL     OW79774   1.332   5.779  12.512
59312SOL    HW179775   1.319   5.783  12.417
59312SOL    HW279776   1.405   5.718  12.524
59313SOL     OW79777   6.960   8.027   1.139
59313SOL    HW179778   6.999   7.940   1.151
59313SOL    HW279779   6.913   8.021   1.056
59314SOL     OW79780   7.220  11.499  12.498
59314SOL    HW179781   7.210  11.567  12.565
59314SOL    HW279782   7.136  11.452  12.500
59315SOL     OW79783   7.799   4.421   3.708
59315SOL    HW179784   7.840   4.451   3.627
59315SOL    HW279785   7.785   4.500   3.759
59316SOL     OW79786   8.178   0.371  10.551
59316SOL    HW179787   8.146   0.450  10.506
59316SOL    HW279788   8.111   0.353  10.617
59317SOL     OW79789   1.479  14.379  13.592
59317SOL    HW179790   1.540  14.327  13.645
59317SOL    HW279791   1.392  14.356  13.626
59318SOL     OW79792  11.602   7.885   3.525
59318SOL    HW179793  11.609   7.792   3.543
59318SOL    HW279794  11.532   7.916   3.583
59319SOL     OW79795   7.348   6.968   5.342
59319SOL    HW179796   7.275   6.955   5.402
59319SOL    HW279797   7.426   6.960   5.396
59320SOL     OW79798  10.792   3.229  12.151
59320SOL    HW179799  10.878   3.190  12.139
59320SOL    HW279800  10.772   3.272  12.068
59321SOL     OW79801   0.551   4.985   1.054
59321SOL    HW179802   0.596   4.961   1.135
59321SOL    HW279803   0.568   5.079   1.044
59322SOL     OW79804   3.299   2.721   9.027
59322SOL    HW179805   3.335   2.680   9.106
59322SOL    HW279806   3.375   2.756   8.981
59323SOL     OW79807  14.163  13.653   9.739
59323SOL    HW179808  14.111  13.683   9.813
59323SOL    HW279809  14.252  13.646   9.773
59324SOL     OW79810   9.166   4.482   3.077
59324SOL    HW179811   9.186   4.458   2.987
59324SOL    HW279812   9.094   4.424   3.102
59325SOL     OW79813  14.771   5.938  13.953
59325SOL    HW179814  14.788   5.923  13.860
59325SOL    HW279815  14.760   6.033  13.961
59326SOL     OW79816  10.119   3.568   1.370
59326SOL    HW179817  10.159   3.648   1.336
59326SOL    HW279818  10.037   3.596   1.410
59327SOL     OW79819   0.761   4.072  12.597
59327SOL    HW179820   0.780   4.161  12.567
59327SOL    HW279821   0.836   4.021  12.567
59328SOL     OW79822   1.383  11.330  11.301
59328SOL    HW179823   1.429  11.365  11.377
59328SOL    HW279824   1.322  11.266  11.336
59329SOL     OW79825   9.960   8.153   7.317
59329SOL    HW179826   9.910   8.232   7.297
59329SOL    HW279827   9.985   8.164   7.409
59330SOL     OW79828  14.512  13.580  10.065
59330SOL    HW179829  14.417  13.591  10.056
59330SOL    HW279830  14.546  13.597   9.977
59331SOL     OW79831   6.909   5.417  11.569
59331SOL    HW179832   6.855   5.419  11.490
59331SOL    HW279833   6.847   5.418  11.641
59332SOL     OW79834  13.731   2.443  14.597
59332SOL    HW179835  13.680   2.390  14.659
59332SOL    HW279836  13.787   2.497  14.652
59333SOL     OW79837   6.959   3.882   0.371
59333SOL    HW179838   6.937   3.924   0.287
59333SOL    HW279839   6.911   3.799   0.369
59334SOL     OW79840  10.773   1.899   8.150
59334SOL    HW179841  10.771   1.830   8.084
59334SOL    HW279842  10.800   1.977   8.103
59335SOL     OW79843   3.267   7.010  10.157
59335SOL    HW179844   3.181   6.969  10.153
59335SOL    HW279845   3.271   7.066  10.079
59336SOL     OW79846   4.323   2.650  12.576
59336SOL    HW179847   4.262   2.719  12.547
59336SOL    HW279848   4.281   2.611  12.652
59337SOL     OW79849   0.819  13.647   3.451
59337SOL    HW179850   0.811  13.590   3.528
59337SOL    HW279851   0.914  13.654   3.437
59338SOL     OW79852   8.998  10.689  14.154
59338SOL    HW179853   8.934  10.759  14.167
59338SOL    HW279854   8.982  10.659  14.064
59339SOL     OW79855   8.332   0.657   7.506
59339SOL    HW179856   8.417   0.696   7.484
59339SOL    HW279857   8.271   0.696   7.444
59340SOL     OW79858   4.433  14.804   1.181
59340SOL    HW179859   4.424  14.719   1.138
59340SOL    HW279860   4.504  14.791   1.244
59341SOL     OW79861   0.519   4.708   3.366
59341SOL    HW179862   0.554   4.619   3.372
59341SOL    HW279863   0.525   4.730   3.273
59342SOL     OW79864  14.388   1.908   3.169
59342SOL    HW179865  14.370   1.816   3.186
59342SOL    HW279866  14.325   1.955   3.224
59343SOL     OW79867   4.169  13.301   2.873
59343SOL    HW179868   4.143  13.213   2.899
59343SOL    HW279869   4.092  13.336   2.827
59344SOL     OW79870   9.765   0.481  11.851
59344SOL    HW179871   9.827   0.424  11.806
59344SOL    HW279872   9.817   0.524  11.919
59345SOL     OW79873  12.844  12.720  10.493
59345SOL    HW179874  12.834  12.784  10.423
59345SOL    HW279875  12.934  12.687  10.483
59346SOL     OW79876   8.780   0.349   1.832
59346SOL    HW179877   8.799   0.440   1.808
59346SOL    HW279878   8.693   0.353   1.873
59347SOL     OW79879   9.609  14.310   2.361
59347SOL    HW179880   9.550  14.371   2.404
59347SOL    HW279881   9.678  14.294   2.425
59348SOL     OW79882   1.166  12.144   6.675
59348SOL    HW179883   1.249  12.110   6.708
59348SOL    HW279884   1.101  12.117   6.740
59349SOL     OW79885  11.574   7.117   2.510
59349SOL    HW179886  11.625   7.037   2.521
59349SOL    HW279887  11.570   7.130   2.415
59350SOL     OW79888  11.419  10.022   8.236
59350SOL    HW179889  11.373   9.986   8.161
59350SOL    HW279890  11.353  10.023   8.306
59351SOL     OW79891   8.907   1.458   8.556
59351SOL    HW179892   8.955   1.471   8.475
59351SOL    HW279893   8.950   1.515   8.620
59352SOL     OW79894   4.980  11.343   0.988
59352SOL    HW179895   4.902  11.362   0.937
59352SOL    HW279896   5.043  11.308   0.925
59353SOL     OW79897   3.044   0.223   3.815
59353SOL    HW179898   3.101   0.179   3.878
59353SOL    HW279899   3.084   0.207   3.730
59354SOL     OW79900   4.029   8.104   6.895
59354SOL    HW179901   3.982   8.050   6.957
59354SOL    HW279902   4.040   8.188   6.940
59355SOL     OW79903  10.695  12.994  10.325
59355SOL    HW179904  10.609  12.970  10.359
59355SOL    HW279905  10.677  13.044  10.246
59356SOL     OW79906   0.838  13.578  14.477
59356SOL    HW179907   0.882  13.523  14.542
59356SOL    HW279908   0.910  13.622  14.432
59357SOL     OW79909   7.838   9.055   8.125
59357SOL    HW179910   7.876   9.068   8.212
59357SOL    HW279911   7.842   9.141   8.084
59358SOL     OW79912  12.897   5.251   2.339
59358SOL    HW179913  12.830   5.297   2.289
59358SOL    HW279914  12.875   5.270   2.430
59359SOL     OW79915  13.871   4.011   9.734
59359SOL    HW179916  13.924   3.945   9.690
59359SOL    HW279917  13.840   4.068   9.664
59360SOL     OW79918  11.569   2.042   5.757
59360SOL    HW179919  11.588   2.069   5.667
59360SOL    HW279920  11.482   2.076   5.775
59361SOL     OW79921   0.934  11.313  10.258
59361SOL    HW179922   1.006  11.342  10.202
59361SOL    HW279923   0.977  11.258  10.324
59362SOL     OW79924   9.634  13.302   4.283
59362SOL    HW179925   9.622  13.217   4.327
59362SOL    HW279926   9.654  13.279   4.192
59363SOL     OW79927   8.458  14.803   0.454
59363SOL    HW179928   8.509  14.859   0.513
59363SOL    HW279929   8.373  14.795   0.496
59364SOL     OW79930  11.107  12.452  10.005
59364SOL    HW179931  11.174  12.511   9.971
59364SOL    HW279932  11.091  12.390   9.934
59365SOL     OW79933   9.781  13.805  12.947
59365SOL    HW179934   9.820  13.845  12.869
59365SOL    HW279935   9.855  13.785  13.004
59366SOL     OW79936   1.056  12.071   4.624
59366SOL    HW179937   1.077  12.162   4.645
59366SOL    HW279938   1.081  12.022   4.703
59367SOL     OW79939   9.275   0.595   5.948
59367SOL    HW179940   9.302   0.572   6.037
59367SOL    HW279941   9.352   0.577   5.895
59368SOL     OW79942   7.676  13.416  10.977
59368SOL    HW179943   7.587  13.430  10.945
59368SOL    HW279944   7.700  13.330  10.943
59369SOL     OW79945   7.401   5.051   6.340
59369SOL    HW179946   7.340   5.050   6.266
59369SOL    HW279947   7.347   5.075   6.416
59370SOL     OW79948   0.732   1.836  14.875
59370SOL    HW179949   0.711   1.912   0.047
59370SOL    HW279950   0.751   1.767   0.056
59371SOL     OW79951   8.344   4.586  12.923
59371SOL    HW179952   8.269   4.639  12.898
59371SOL    HW279953   8.334   4.571  13.017
59372SOL     OW79954   6.858   3.821   1.391
59372SOL    HW179955   6.936   3.776   1.359
59372SOL    HW279956   6.877   3.839   1.483
59373SOL     OW79957   1.562  10.323  10.714
59373SOL    HW179958   1.561  10.304  10.620
59373SOL    HW279959   1.495  10.266  10.751
59374SOL     OW79960   4.837   9.173   3.335
59374SOL    HW179961   4.804   9.125   3.411
59374SOL    HW279962   4.928   9.193   3.358
59375SOL     OW79963   7.818   8.807   9.827
59375SOL    HW179964   7.842   8.833   9.737
59375SOL    HW279965   7.809   8.712   9.823
59376SOL     OW79966   6.593  12.223  12.624
59376SOL    HW179967   6.586  12.176  12.707
59376SOL    HW279968   6.687  12.239  12.615
59377SOL     OW79969   7.048   7.188   1.322
59377SOL    HW179970   6.954   7.167   1.323
59377SOL    HW279971   7.066   7.215   1.232
59378SOL     OW79972   8.981   7.775  12.324
59378SOL    HW179973   8.948   7.863  12.343
59378SOL    HW279974   8.903   7.725  12.299
59379SOL     OW79975   6.412   0.325   3.365
59379SOL    HW179976   6.505   0.346   3.377
59379SOL    HW279977   6.393   0.260   3.433
59380SOL     OW79978   4.181   3.137  14.254
59380SOL    HW179979   4.242   3.065  14.270
59380SOL    HW279980   4.096   3.095  14.242
59381SOL     OW79981   8.680   2.512   5.845
59381SOL    HW179982   8.598   2.465   5.860
59381SOL    HW279983   8.675   2.588   5.902
59382SOL     OW79984   4.781   7.966   5.557
59382SOL    HW179985   4.725   8.011   5.620
59382SOL    HW279986   4.860   8.019   5.553
59383SOL     OW79987   3.880  11.793   2.323
59383SOL    HW179988   3.922  11.831   2.401
59383SOL    HW279989   3.951  11.787   2.259
59384SOL     OW79990   2.227  13.615   4.357
59384SOL    HW179991   2.150  13.558   4.364
59384SOL    HW279992   2.246  13.618   4.263
59385SOL     OW79993   9.879   8.469  11.373
59385SOL    HW179994   9.951   8.444  11.431
59385SOL    HW279995   9.913   8.544  11.324
59386SOL     OW79996  14.532   5.832  10.818
59386SOL    HW179997  14.466   5.900  10.835
59386SOL    HW279998  14.492   5.774  10.754
59387SOL     OW79999   8.833   5.481   7.319
59387SOL    HW180000   8.907   5.438   7.275
59387SOL    HW280001   8.850   5.574   7.308
59388SOL     OW80002   4.163  14.396   1.939
59388SOL    HW180003   4.215  14.397   2.019
59388SOL    HW280004   4.195  14.469   1.888
59389SOL     OW80005   5.526   9.424   9.355
59389SOL    HW180006   5.586   9.415   9.429
59389SOL    HW280007   5.484   9.509   9.369
59390SOL     OW80008  11.924   9.538   6.773
59390SOL    HW180009  11.922   9.631   6.749
59390SOL    HW280010  12.013   9.523   6.803
59391SOL     OW80011  12.752   7.466  10.099
59391SOL    HW180012  12.845   7.487  10.097
59391SOL    HW280013  12.736   7.433  10.187
59392SOL     OW80014   6.231   3.043   1.762
59392SOL    HW180015   6.147   3.061   1.803
59392SOL    HW280016   6.211   3.035   1.669
59393SOL     OW80017   3.709   5.604  14.371
59393SOL    HW180018   3.751   5.574  14.451
59393SOL    HW280019   3.776   5.658  14.327
59394SOL     OW80020  11.108  10.833   6.601
59394SOL    HW180021  11.188  10.833   6.654
59394SOL    HW280022  11.101  10.922   6.568
59395SOL     OW80023   1.788   1.835  12.291
59395SOL    HW180024   1.754   1.921  12.266
59395SOL    HW280025   1.874   1.831  12.250
59396SOL     OW80026   8.975   3.043   3.954
59396SOL    HW180027   8.921   2.972   3.919
59396SOL    HW280028   8.976   3.109   3.885
59397SOL     OW80029   0.997  13.724  12.587
59397SOL    HW180030   0.937  13.726  12.513
59397SOL    HW280031   1.066  13.786  12.563
59398SOL     OW80032   6.788   0.863   5.307
59398SOL    HW180033   6.808   0.955   5.290
59398SOL    HW280034   6.797   0.854   5.402
59399SOL     OW80035   7.662   2.810  11.411
59399SOL    HW180036   7.720   2.762  11.352
59399SOL    HW280037   7.649   2.751  11.485
59400SOL     OW80038  11.397  11.679  12.193
59400SOL    HW180039  11.356  11.762  12.169
59400SOL    HW280040  11.325  11.615  12.189
59401SOL     OW80041  14.744  12.399  10.793
59401SOL    HW180042  14.791  12.467  10.746
59401SOL    HW280043  14.652  12.411  10.767
59402SOL     OW80044  12.407  13.298  13.305
59402SOL    HW180045  12.356  13.353  13.246
59402SOL    HW280046  12.397  13.339  13.391
59403SOL     OW80047   1.856   5.694   2.177
59403SOL    HW180048   1.921   5.717   2.111
59403SOL    HW280049   1.772   5.703   2.133
59404SOL     OW80050   1.810   0.060  10.892
59404SOL    HW180051   1.760  14.860  10.886
59404SOL    HW280052   1.853   0.055  10.978
59405SOL     OW80053  13.265   8.290   4.791
59405SOL    HW180054  13.334   8.270   4.727
59405SOL    HW280055  13.190   8.317   4.737
59406SOL     OW80056  10.609   0.241   0.603
59406SOL    HW180057  10.529   0.293   0.599
59406SOL    HW280058  10.680   0.306   0.606
59407SOL     OW80059   4.733   2.413  12.320
59407SOL    HW180060   4.730   2.350  12.391
59407SOL    HW280061   4.643   2.443  12.309
59408SOL     OW80062   9.203   4.213  12.235
59408SOL    HW180063   9.115   4.198  12.201
59408SOL    HW280064   9.241   4.126  12.242
59409SOL     OW80065   8.627   6.030  14.146
59409SOL    HW180066   8.576   6.071  14.075
59409SOL    HW280067   8.678   5.962  14.103
59410SOL     OW80068  12.330   7.103   8.179
59410SOL    HW180069  12.313   7.178   8.123
59410SOL    HW280070  12.268   7.036   8.150
59411SOL     OW80071   2.706  12.307   8.759
59411SOL    HW180072   2.742  12.246   8.696
59411SOL    HW280073   2.696  12.257   8.840
59412SOL     OW80074   7.199  11.743   9.098
59412SOL    HW180075   7.220  11.834   9.117
59412SOL    HW280076   7.248  11.724   9.018
59413SOL     OW80077   6.923   9.077   8.506
59413SOL    HW180078   6.984   9.029   8.450
59413SOL    HW280079   6.836   9.056   8.472
59414SOL     OW80080   5.840  13.601   4.200
59414SOL    HW180081   5.825  13.684   4.155
59414SOL    HW280082   5.854  13.625   4.291
59415SOL     OW80083  14.738  10.684  10.037
59415SOL    HW180084  14.807  10.745  10.067
59415SOL    HW280085  14.738  10.615  10.103
59416SOL     OW80086   6.791  14.219  13.921
59416SOL    HW180087   6.723  14.243  13.858
59416SOL    HW280088   6.747  14.159  13.981
59417SOL     OW80089   8.766   4.198   8.911
59417SOL    HW180090   8.833   4.145   8.955
59417SOL    HW280091   8.760   4.278   8.963
59418SOL     OW80092   4.770   5.690  11.318
59418SOL    HW180093   4.822   5.675  11.397
59418SOL    HW280094   4.828   5.740  11.260
59419SOL     OW80095  12.046   6.312   3.551
59419SOL    HW180096  12.037   6.363   3.632
59419SOL    HW280097  12.139   6.320   3.528
59420SOL     OW80098   7.303  11.383  13.543
59420SOL    HW180099   7.262  11.297  13.550
59420SOL    HW280100   7.239  11.444  13.581
59421SOL     OW80101  11.135   6.790   0.552
59421SOL    HW180102  11.166   6.855   0.489
59421SOL    HW280103  11.122   6.839   0.633
59422SOL     OW80104   8.356   9.782   1.731
59422SOL    HW180105   8.363   9.833   1.649
59422SOL    HW280106   8.266   9.798   1.760
59423SOL     OW80107  10.116   8.393  11.175
59423SOL    HW180108  10.178   8.382  11.103
59423SOL    HW280109  10.166   8.437  11.244
59424SOL     OW80110  14.537   6.192   1.537
59424SOL    HW180111  14.620   6.238   1.546
59424SOL    HW280112  14.486   6.245   1.476
59425SOL     OW80113   7.842   3.214  10.303
59425SOL    HW180114   7.811   3.183  10.389
59425SOL    HW280115   7.872   3.134  10.259
59426SOL     OW80116   0.565   4.473  12.276
59426SOL    HW180117   0.598   4.494  12.363
59426SOL    HW280118   0.642   4.446  12.227
59427SOL     OW80119   6.243   3.822  13.759
59427SOL    HW180120   6.333   3.790  13.749
59427SOL    HW280121   6.253   3.913  13.788
59428SOL     OW80122   8.344   3.074  12.806
59428SOL    HW180123   8.294   3.148  12.841
59428SOL    HW280124   8.428   3.111  12.780
59429SOL     OW80125  11.126   3.571   1.153
59429SOL    HW180126  11.077   3.593   1.074
59429SOL    HW280127  11.068   3.595   1.225
59430SOL     OW80128  13.789   8.083  13.110
59430SOL    HW180129  13.822   8.173  13.113
59430SOL    HW280130  13.866   8.030  13.090
59431SOL     OW80131   7.010   4.522   7.736
59431SOL    HW180132   6.940   4.568   7.690
59431SOL    HW280133   7.091   4.555   7.697
59432SOL     OW80134  13.405   4.263   5.312
59432SOL    HW180135  13.329   4.244   5.257
59432SOL    HW280136  13.368   4.296   5.394
59433SOL     OW80137  11.469  10.741  12.342
59433SOL    HW180138  11.485  10.833  12.363
59433SOL    HW280139  11.421  10.707  12.418
59434SOL     OW80140   8.479  11.707   5.464
59434SOL    HW180141   8.422  11.733   5.537
59434SOL    HW280142   8.560  11.678   5.506
59435SOL     OW80143   7.612   4.295   2.278
59435SOL    HW180144   7.539   4.357   2.282
59435SOL    HW280145   7.672   4.334   2.214
59436SOL     OW80146   7.102  14.361   8.401
59436SOL    HW180147   7.193  14.387   8.411
59436SOL    HW280148   7.071  14.348   8.490
59437SOL     OW80149   0.671   7.573   3.793
59437SOL    HW180150   0.589   7.613   3.821
59437SOL    HW280151   0.644   7.507   3.729
59438SOL     OW80152  10.109   1.473   6.506
59438SOL    HW180153  10.094   1.514   6.592
59438SOL    HW280154  10.021   1.454   6.474
59439SOL     OW80155   4.983   5.047   8.080
59439SOL    HW180156   4.948   5.134   8.097
59439SOL    HW280157   4.913   4.987   8.105
59440SOL     OW80158  10.548   5.267   3.588
59440SOL    HW180159  10.539   5.172   3.584
59440SOL    HW280160  10.460   5.301   3.571
59441SOL     OW80161   1.918   5.745   9.441
59441SOL    HW180162   1.882   5.823   9.399
59441SOL    HW280163   1.864   5.732   9.519
59442SOL     OW80164   1.066  14.253   9.759
59442SOL    HW180165   1.108  14.316   9.700
59442SOL    HW280166   0.998  14.304   9.803
59443SOL     OW80167   8.750   9.877   9.035
59443SOL    HW180168   8.705   9.811   8.982
59443SOL    HW280169   8.701   9.958   9.020
59444SOL     OW80170   4.205   8.497  13.614
59444SOL    HW180171   4.269   8.528  13.678
59444SOL    HW280172   4.229   8.540  13.532
59445SOL     OW80173   3.990   0.098   2.334
59445SOL    HW180174   4.070   0.089   2.282
59445SOL    HW280175   3.920   0.068   2.277
59446SOL     OW80176   7.346  14.133  14.143
59446SOL    HW180177   7.402  14.198  14.100
59446SOL    HW280178   7.383  14.124  14.231
59447SOL     OW80179   0.902   3.020   6.515
59447SOL    HW180180   0.917   2.935   6.473
59447SOL    HW280181   0.807   3.030   6.518
59448SOL     OW80182   6.710   6.170   5.051
59448SOL    HW180183   6.689   6.171   4.957
59448SOL    HW280184   6.640   6.117   5.090
59449SOL     OW80185   2.364  10.338   6.327
59449SOL    HW180186   2.377  10.243   6.327
59449SOL    HW280187   2.280  10.350   6.283
59450SOL     OW80188   5.711   0.629   9.640
59450SOL    HW180189   5.624   0.662   9.662
59450SOL    HW280190   5.771   0.696   9.673
59451SOL     OW80191  14.472   6.382   6.111
59451SOL    HW180192  14.483   6.461   6.164
59451SOL    HW280193  14.471   6.311   6.175
59452SOL     OW80194  13.195   2.162   0.021
59452SOL    HW180195  13.151   2.238   0.058
59452SOL    HW280196  13.190   2.095   0.090
59453SOL     OW80197  10.380  13.620   5.228
59453SOL    HW180198  10.415  13.624   5.139
59453SOL    HW280199  10.409  13.702   5.268
59454SOL     OW80200  12.729   2.709   1.035
59454SOL    HW180201  12.779   2.762   0.973
59454SOL    HW280202  12.721   2.624   0.993
59455SOL     OW80203   6.740   6.957  14.763
59455SOL    HW180204   6.694   7.007  14.696
59455SOL    HW280205   6.761   7.021  14.831
59456SOL     OW80206  12.997   4.686  14.610
59456SOL    HW180207  12.922   4.660  14.558
59456SOL    HW280208  13.070   4.635  14.574
59457SOL     OW80209   3.576   8.560   3.588
59457SOL    HW180210   3.544   8.639   3.631
59457SOL    HW280211   3.659   8.541   3.631
59458SOL     OW80212   4.434  11.963  11.911
59458SOL    HW180213   4.477  12.040  11.949
59458SOL    HW280214   4.443  11.975  11.816
59459SOL     OW80215  14.033   3.724  12.509
59459SOL    HW180216  14.072   3.761  12.588
59459SOL    HW280217  14.095   3.748  12.439
59460SOL     OW80218   3.230  10.349   4.050
59460SOL    HW180219   3.272  10.362   3.965
59460SOL    HW280220   3.152  10.297   4.030
59461SOL     OW80221  12.581   6.343   1.797
59461SOL    HW180222  12.591   6.373   1.887
59461SOL    HW280223  12.497   6.380   1.768
59462SOL     OW80224   5.838   5.583   9.083
59462SOL    HW180225   5.811   5.577   9.175
59462SOL    HW280226   5.757   5.566   9.034
59463SOL     OW80227  13.488   0.881   9.011
59463SOL    HW180228  13.579   0.861   8.989
59463SOL    HW280229  13.469   0.963   8.965
59464SOL     OW80230  13.997   2.034   6.594
59464SOL    HW180231  14.072   2.071   6.641
59464SOL    HW280232  13.951   2.111   6.560
59465SOL     OW80233  13.636   2.093   8.664
59465SOL    HW180234  13.677   2.179   8.651
59465SOL    HW280235  13.695   2.032   8.619
59466SOL     OW80236  14.843   1.311   3.655
59466SOL    HW180237  14.836   1.308   3.560
59466SOL    HW280238  14.753   1.311   3.686
59467SOL     OW80239   2.517   8.174   5.498
59467SOL    HW180240   2.508   8.079   5.500
59467SOL    HW280241   2.447   8.203   5.439
59468SOL     OW80242   8.314   5.777  10.519
59468SOL    HW180243   8.390   5.730  10.483
59468SOL    HW280244   8.339   5.869  10.515
59469SOL     OW80245   5.789   4.537   3.048
59469SOL    HW180246   5.832   4.532   3.133
59469SOL    HW280247   5.767   4.629   3.038
59470SOL     OW80248   1.635   7.436   6.660
59470SOL    HW180249   1.689   7.490   6.718
59470SOL    HW280250   1.674   7.348   6.666
59471SOL     OW80251  10.602  13.114   2.228
59471SOL    HW180252  10.517  13.069   2.220
59471SOL    HW280253  10.588  13.180   2.296
59472SOL     OW80254   9.709   9.546  12.444
59472SOL    HW180255   9.733   9.550  12.351
59472SOL    HW280256   9.747   9.463  12.474
59473SOL     OW80257  12.894  10.614  11.523
59473SOL    HW180258  12.837  10.659  11.460
59473SOL    HW280259  12.856  10.527  11.531
59474SOL     OW80260  14.142  14.464   7.208
59474SOL    HW180261  14.177  14.470   7.119
59474SOL    HW280262  14.066  14.522   7.208
59475SOL     OW80263  12.310   9.926   9.556
59475SOL    HW180264  12.382   9.951   9.614
59475SOL    HW280265  12.259   9.863   9.606
59476SOL     OW80266   5.041   4.954   9.786
59476SOL    HW180267   5.018   5.035   9.741
59476SOL    HW280268   5.095   4.906   9.722
59477SOL     OW80269   0.294   3.428   2.881
59477SOL    HW180270   0.360   3.367   2.915
59477SOL    HW280271   0.256   3.383   2.806
59478SOL     OW80272  11.857   9.594   1.264
59478SOL    HW180273  11.781   9.621   1.212
59478SOL    HW280274  11.931   9.599   1.204
59479SOL     OW80275  12.602   4.337   3.009
59479SOL    HW180276  12.513   4.349   3.043
59479SOL    HW280277  12.640   4.269   3.065
59480SOL     OW80278  13.230  12.344   8.199
59480SOL    HW180279  13.271  12.260   8.179
59480SOL    HW280280  13.244  12.397   8.120
59481SOL     OW80281   9.825   5.176  12.930
59481SOL    HW180282   9.784   5.263  12.932
59481SOL    HW280283   9.916   5.193  12.905
59482SOL     OW80284   2.061   5.214  14.184
59482SOL    HW180285   2.132   5.214  14.247
59482SOL    HW280286   2.046   5.307  14.165
59483SOL     OW80287  12.724   5.220  11.699
59483SOL    HW180288  12.673   5.258  11.628
59483SOL    HW280289  12.671   5.235  11.778
59484SOL     OW80290   9.865  14.745   7.810
59484SOL    HW180291   9.917  14.781   7.882
59484SOL    HW280292   9.814  14.675   7.851
59485SOL     OW80293   2.186  11.671   6.260
59485SOL    HW180294   2.106  11.723   6.248
59485SOL    HW280295   2.164  11.586   6.224
59486SOL     OW80296   9.682  12.245  11.166
59486SOL    HW180297   9.769  12.218  11.138
59486SOL    HW280298   9.674  12.210  11.255
59487SOL     OW80299   0.530   0.584  10.116
59487SOL    HW180300   0.467   0.512  10.114
59487SOL    HW280301   0.491   0.648  10.177
59488SOL     OW80302   3.493   8.653   9.063
59488SOL    HW180303   3.562   8.594   9.033
59488SOL    HW280304   3.520   8.680   9.150
59489SOL     OW80305   2.275   6.259   6.616
59489SOL    HW180306   2.183   6.287   6.614
59489SOL    HW280307   2.278   6.191   6.684
59490SOL     OW80308   5.058   9.970   6.122
59490SOL    HW180309   5.040  10.052   6.168
59490SOL    HW280310   5.077   9.997   6.032
59491SOL     OW80311   2.470  12.690   8.816
59491SOL    HW180312   2.445  12.762   8.757
59491SOL    HW280313   2.536  12.642   8.767
59492SOL     OW80314   0.895   7.687   6.213
59492SOL    HW180315   0.846   7.626   6.157
59492SOL    HW280316   0.829   7.749   6.244
59493SOL     OW80317   9.481   9.943   9.879
59493SOL    HW180318   9.393   9.954   9.915
59493SOL    HW280319   9.538   9.937   9.956
59494SOL     OW80320  13.762  12.151   6.595
59494SOL    HW180321  13.858  12.155   6.588
59494SOL    HW280322  13.747  12.100   6.675
59495SOL     OW80323   8.789   8.624   7.524
59495SOL    HW180324   8.699   8.630   7.492
59495SOL    HW280325   8.834   8.698   7.484
59496SOL     OW80326   8.724   5.901   6.853
59496SOL    HW180327   8.665   5.906   6.929
59496SOL    HW280328   8.737   5.992   6.828
59497SOL     OW80329   4.395   3.222  13.425
59497SOL    HW180330   4.312   3.224  13.378
59497SOL    HW280331   4.452   3.281  13.375
59498SOL     OW80332  13.134   7.939   6.838
59498SOL    HW180333  13.128   7.939   6.933
59498SOL    HW280334  13.212   7.991   6.819
59499SOL     OW80335  10.886  12.566  14.416
59499SOL    HW180336  10.792  12.563  14.434
59499SOL    HW280337  10.910  12.476  14.396
59500SOL     OW80338  10.483  11.955   9.288
59500SOL    HW180339  10.470  11.867   9.253
59500SOL    HW280340  10.577  11.970   9.279
59501SOL     OW80341   7.313   7.391  11.519
59501SOL    HW180342   7.256   7.467  11.506
59501SOL    HW280343   7.386   7.405  11.457
59502SOL     OW80344   1.419  12.726   8.347
59502SOL    HW180345   1.429  12.769   8.432
59502SOL    HW280346   1.499  12.748   8.299
59503SOL     OW80347  12.288   5.780  11.002
59503SOL    HW180348  12.220   5.835  11.041
59503SOL    HW280349  12.244   5.698  10.982
59504SOL     OW80350  10.842  10.594   7.706
59504SOL    HW180351  10.890  10.677   7.699
59504SOL    HW280352  10.910  10.527   7.705
59505SOL     OW80353   0.886   9.457   4.252
59505SOL    HW180354   0.972   9.445   4.294
59505SOL    HW280355   0.888   9.397   4.177
59506SOL     OW80356   4.036   1.877   4.368
59506SOL    HW180357   4.072   1.961   4.338
59506SOL    HW280358   4.101   1.844   4.429
59507SOL     OW80359   1.621   4.142   6.016
59507SOL    HW180360   1.591   4.218   6.065
59507SOL    HW280361   1.593   4.158   5.926
59508SOL     OW80362  10.554   2.294   7.886
59508SOL    HW180363  10.570   2.200   7.891
59508SOL    HW280364  10.600   2.330   7.962
59509SOL     OW80365   7.629  14.460  13.282
59509SOL    HW180366   7.670  14.374  13.274
59509SOL    HW280367   7.670  14.500  13.358
59510SOL     OW80368   8.687   2.532   1.989
59510SOL    HW180369   8.673   2.439   1.968
59510SOL    HW280370   8.651   2.543   2.077
59511SOL     OW80371   7.928   3.476   9.488
59511SOL    HW180372   7.847   3.429   9.509
59511SOL    HW280373   7.935   3.543   9.556
59512SOL     OW80374   7.500   1.360   4.637
59512SOL    HW180375   7.528   1.370   4.546
59512SOL    HW280376   7.466   1.271   4.642
59513SOL     OW80377   1.678  11.684   7.115
59513SOL    HW180378   1.606  11.651   7.169
59513SOL    HW280379   1.734  11.609   7.101
59514SOL     OW80380   8.427   2.682  13.328
59514SOL    HW180381   8.395   2.657  13.241
59514SOL    HW280382   8.473   2.765  13.314
59515SOL     OW80383  11.992   0.719  12.642
59515SOL    HW180384  12.078   0.755  12.619
59515SOL    HW280385  11.944   0.717  12.559
59516SOL     OW80386   5.418   2.744   2.476
59516SOL    HW180387   5.433   2.660   2.519
59516SOL    HW280388   5.429   2.808   2.546
59517SOL     OW80389   9.039   3.372   5.401
59517SOL    HW180390   9.044   3.284   5.438
59517SOL    HW280391   8.967   3.414   5.447
59518SOL     OW80392  13.756  11.383   1.030
59518SOL    HW180393  13.718  11.468   1.050
59518SOL    HW280394  13.750  11.334   1.112
59519SOL     OW80395   2.945   5.774  10.318
59519SOL    HW180396   2.985   5.805  10.237
59519SOL    HW280397   2.860   5.740  10.291
59520SOL     OW80398  14.284  10.699   2.919
59520SOL    HW180399  14.253  10.789   2.932
59520SOL    HW280400  14.247  10.673   2.835
59521SOL     OW80401   4.614  13.252   3.866
59521SOL    HW180402   4.653  13.337   3.851
59521SOL    HW280403   4.581  13.256   3.956
59522SOL     OW80404   0.775   5.455  12.000
59522SOL    HW180405   0.811   5.366  12.002
59522SOL    HW280406   0.690   5.447  12.043
59523SOL     OW80407  14.364  12.486  11.207
59523SOL    HW180408  14.283  12.509  11.253
59523SOL    HW280409  14.338  12.417  11.145
59524SOL     OW80410   2.310  11.726  13.451
59524SOL    HW180411   2.403  11.735  13.471
59524SOL    HW280412   2.286  11.641  13.486
59525SOL     OW80413  11.127  11.110   2.976
59525SOL    HW180414  11.100  11.030   2.931
59525SOL    HW280415  11.163  11.165   2.906
59526SOL     OW80416   2.650   6.207   7.998
59526SOL    HW180417   2.721   6.193   7.936
59526SOL    HW280418   2.678   6.283   8.050
59527SOL     OW80419  11.062   7.953   4.967
59527SOL    HW180420  11.130   7.952   4.900
59527SOL    HW280421  11.109   7.953   5.050
59528SOL     OW80422   9.655  13.754  14.352
59528SOL    HW180423   9.624  13.746  14.442
59528SOL    HW280424   9.743  13.791  14.359
59529SOL     OW80425   5.439   7.769   4.084
59529SOL    HW180426   5.417   7.796   4.173
59529SOL    HW280427   5.511   7.707   4.095
59530SOL     OW80428   2.836   9.857   2.599
59530SOL    HW180429   2.844   9.923   2.531
59530SOL    HW280430   2.925   9.821   2.608
59531SOL     OW80431   1.309   7.964   3.095
59531SOL    HW180432   1.332   8.021   3.022
59531SOL    HW280433   1.243   7.904   3.059
59532SOL     OW80434   6.811   1.166  12.354
59532SOL    HW180435   6.817   1.118  12.272
59532SOL    HW280436   6.753   1.113  12.409
59533SOL     OW80437   5.729   2.578   1.511
59533SOL    HW180438   5.642   2.547   1.537
59533SOL    HW280439   5.715   2.669   1.484
59534SOL     OW80440   4.633   8.117   3.921
59534SOL    HW180441   4.669   8.029   3.933
59534SOL    HW280442   4.540   8.102   3.902
59535SOL     OW80443  11.639  14.390   2.434
59535SOL    HW180444  11.633  14.392   2.339
59535SOL    HW280445  11.610  14.302   2.459
59536SOL     OW80446   6.558  12.951   0.479
59536SOL    HW180447   6.525  12.917   0.562
59536SOL    HW280448   6.610  12.880   0.442
59537SOL     OW80449  13.274   6.433   5.762
59537SOL    HW180450  13.329   6.473   5.829
59537SOL    HW280451  13.260   6.502   5.697
59538SOL     OW80452   1.066   3.798   7.178
59538SOL    HW180453   1.086   3.713   7.139
59538SOL    HW280454   0.980   3.786   7.219
59539SOL     OW80455   6.905   2.243   1.454
59539SOL    HW180456   6.989   2.271   1.417
59539SOL    HW280457   6.840   2.298   1.411
59540SOL     OW80458   2.455  12.386  12.461
59540SOL    HW180459   2.495  12.444  12.397
59540SOL    HW280460   2.425  12.311  12.411
59541SOL     OW80461   2.326   1.010  14.366
59541SOL    HW180462   2.373   0.959  14.431
59541SOL    HW280463   2.362   1.099  14.375
59542SOL     OW80464   7.841   8.303   2.280
59542SOL    HW180465   7.832   8.351   2.362
59542SOL    HW280466   7.751   8.281   2.256
59543SOL     OW80467   3.939   9.086   2.974
59543SOL    HW180468   4.029   9.054   2.966
59543SOL    HW280469   3.948   9.173   3.015
59544SOL     OW80470   1.066  13.172  10.976
59544SOL    HW180471   1.052  13.091  11.025
59544SOL    HW280472   1.030  13.154  10.889
59545SOL     OW80473   7.177  14.243   1.204
59545SOL    HW180474   7.221  14.289   1.276
59545SOL    HW280475   7.244  14.237   1.136
59546SOL     OW80476   8.634   9.050  14.362
59546SOL    HW180477   8.713   8.998  14.351
59546SOL    HW280478   8.661   9.139  14.339
59547SOL     OW80479  10.362   2.477  13.815
59547SOL    HW180480  10.298   2.456  13.883
59547SOL    HW280481  10.397   2.392  13.789
59548SOL     OW80482   0.047  10.182  14.807
59548SOL    HW180483   0.068  10.159   0.015
59548SOL    HW280484  14.833  10.182  14.803
59549SOL     OW80485   0.253   8.723   8.427
59549SOL    HW180486   0.210   8.672   8.495
59549SOL    HW280487   0.321   8.772   8.474
59550SOL     OW80488  12.561  10.819  10.908
59550SOL    HW180489  12.505  10.894  10.887
59550SOL    HW280490  12.544  10.802  11.001
59551SOL     OW80491  14.705   5.760  10.232
59551SOL    HW180492  14.721   5.847  10.196
59551SOL    HW280493  14.617   5.737  10.203
59552SOL     OW80494   8.216   9.486   5.861
59552SOL    HW180495   8.174   9.501   5.946
59552SOL    HW280496   8.216   9.572   5.819
59553SOL     OW80497   0.895   3.898  14.633
59553SOL    HW180498   0.869   3.987  14.658
59553SOL    HW280499   0.990   3.897  14.642
59554SOL     OW80500  14.625   3.488   4.180
59554SOL    HW180501  14.669   3.487   4.096
59554SOL    HW280502  14.662   3.563   4.226
59555SOL     OW80503  13.682   8.097  14.540
59555SOL    HW180504  13.629   8.137  14.610
59555SOL    HW280505  13.653   8.140  14.460
59556SOL     OW80506  14.065   8.214   7.504
59556SOL    HW180507  14.135   8.150   7.493
59556SOL    HW280508  14.037   8.203   7.594
59557SOL     OW80509   6.338   9.219  14.431
59557SOL    HW180510   6.402   9.288  14.415
59557SOL    HW280511   6.379   9.139  14.398
59558SOL     OW80512   3.648  10.920  10.316
59558SOL    HW180513   3.693  10.862  10.254
59558SOL    HW280514   3.712  10.932  10.386
59559SOL     OW80515   9.151  11.092  13.366
59559SOL    HW180516   9.144  11.135  13.281
59559SOL    HW280517   9.243  11.066  13.372
59560SOL     OW80518  11.885  10.704   7.229
59560SOL    HW180519  11.797  10.668   7.215
59560SOL    HW280520  11.944  10.637   7.196
59561SOL     OW80521   9.378   8.012  13.013
59561SOL    HW180522   9.307   8.076  13.021
59561SOL    HW280523   9.359   7.964  12.933
59562SOL     OW80524   8.475  14.338   2.487
59562SOL    HW180525   8.564  14.375   2.492
59562SOL    HW280526   8.480  14.273   2.417
59563SOL     OW80527  13.301  12.845  11.806
59563SOL    HW180528  13.353  12.816  11.881
59563SOL    HW280529  13.326  12.786  11.735
59564SOL     OW80530   6.666  14.182   3.413
59564SOL    HW180531   6.731  14.221   3.472
59564SOL    HW280532   6.592  14.163   3.470
59565SOL     OW80533   3.231   9.033   7.701
59565SOL    HW180534   3.179   9.020   7.622
59565SOL    HW280535   3.322   9.037   7.670
59566SOL     OW80536  13.774   7.418  10.503
59566SOL    HW180537  13.743   7.503  10.533
59566SOL    HW280538  13.822   7.436  10.422
59567SOL     OW80539   1.841   4.754  14.198
59567SOL    HW180540   1.874   4.745  14.109
59567SOL    HW280541   1.800   4.669  14.217
59568SOL     OW80542   3.570   8.827   8.354
59568SOL    HW180543   3.591   8.830   8.261
59568SOL    HW280544   3.588   8.736   8.379
59569SOL     OW80545   5.345  10.038   1.836
59569SOL    HW180546   5.311   9.957   1.874
59569SOL    HW280547   5.335  10.103   1.905
59570SOL     OW80548   7.488   7.084  11.749
59570SOL    HW180549   7.459   7.038  11.828
59570SOL    HW280550   7.406   7.106  11.704
59571SOL     OW80551   1.857  14.262   3.378
59571SOL    HW180552   1.837  14.192   3.439
59571SOL    HW280553   1.924  14.226   3.320
59572SOL     OW80554   8.980  14.575   7.257
59572SOL    HW180555   8.977  14.590   7.351
59572SOL    HW280556   9.066  14.535   7.241
59573SOL     OW80557   9.359   3.956   1.517
59573SOL    HW180558   9.293   3.897   1.552
59573SOL    HW280559   9.434   3.948   1.576
59574SOL     OW80560   1.215   7.149   1.281
59574SOL    HW180561   1.124   7.159   1.307
59574SOL    HW280562   1.253   7.092   1.349
59575SOL     OW80563   9.906  12.181   1.168
59575SOL    HW180564   9.936  12.261   1.125
59575SOL    HW280565   9.854  12.136   1.102
59576SOL     OW80566   8.173   5.100   2.497
59576SOL    HW180567   8.120   5.055   2.431
59576SOL    HW280568   8.258   5.113   2.454
59577SOL     OW80569  14.127  12.047  12.664
59577SOL    HW180570  14.219  12.020  12.669
59577SOL    HW280571  14.105  12.074  12.753
59578SOL     OW80572   9.608   3.352   0.288
59578SOL    HW180573   9.582   3.261   0.300
59578SOL    HW280574   9.624   3.385   0.376
59579SOL     OW80575   1.456   3.615   4.215
59579SOL    HW180576   1.378   3.660   4.183
59579SOL    HW280577   1.469   3.543   4.154
59580SOL     OW80578   2.263   8.195   7.211
59580SOL    HW180579   2.264   8.161   7.122
59580SOL    HW280580   2.250   8.290   7.200
59581SOL     OW80581   5.325   8.421   7.262
59581SOL    HW180582   5.383   8.368   7.317
59581SOL    HW280583   5.293   8.490   7.320
59582SOL     OW80584  11.942   3.539   1.430
59582SOL    HW180585  11.960   3.449   1.404
59582SOL    HW280586  11.935   3.587   1.348
59583SOL     OW80587   9.019   8.224   2.810
59583SOL    HW180588   9.036   8.259   2.897
59583SOL    HW280589   8.926   8.239   2.796
59584SOL     OW80590  11.613  13.151  13.711
59584SOL    HW180591  11.692  13.202  13.731
59584SOL    HW280592  11.641  13.088  13.644
59585SOL     OW80593   7.709   9.098   9.614
59585SOL    HW180594   7.797   9.135   9.613
59585SOL    HW280595   7.663   9.147   9.683
59586SOL     OW80596  14.402   8.273   7.108
59586SOL    HW180597  14.316   8.283   7.148
59586SOL    HW280598  14.386   8.228   7.025
59587SOL     OW80599   8.791   5.396  13.522
59587SOL    HW180600   8.750   5.412  13.437
59587SOL    HW280601   8.884   5.383  13.502
59588SOL     OW80602   5.500  10.983   1.453
59588SOL    HW180603   5.519  11.076   1.458
59588SOL    HW280604   5.578  10.940   1.488
59589SOL     OW80605   4.135   5.061  12.714
59589SOL    HW180606   4.185   5.063  12.795
59589SOL    HW280607   4.137   4.969  12.687
59590SOL     OW80608   3.276   9.578  13.581
59590SOL    HW180609   3.193   9.537  13.602
59590SOL    HW280610   3.339   9.506  13.578
59591SOL     OW80611   7.416   5.914   9.738
59591SOL    HW180612   7.438   5.826   9.767
59591SOL    HW280613   7.403   5.906   9.644
59592SOL     OW80614   4.418   9.742   3.305
59592SOL    HW180615   4.370   9.733   3.388
59592SOL    HW280616   4.480   9.669   3.305
59593SOL     OW80617   6.733   3.225  13.201
59593SOL    HW180618   6.777   3.303  13.235
59593SOL    HW280619   6.731   3.238  13.106
59594SOL     OW80620   1.118  13.544   6.273
59594SOL    HW180621   1.168  13.622   6.295
59594SOL    HW280622   1.150  13.477   6.333
59595SOL     OW80623   4.529  13.143   6.106
59595SOL    HW180624   4.545  13.203   6.179
59595SOL    HW280625   4.585  13.068   6.124
59596SOL     OW80626   6.486   9.507   0.113
59596SOL    HW180627   6.409   9.553   0.079
59596SOL    HW280628   6.475   9.417   0.083
59597SOL     OW80629   2.582  14.099  11.834
59597SOL    HW180630   2.555  14.119  11.923
59597SOL    HW280631   2.509  14.050  11.797
59598SOL     OW80632  13.093   2.474  14.335
59598SOL    HW180633  13.141   2.549  14.370
59598SOL    HW280634  13.143   2.447  14.258
59599SOL     OW80635   6.765   8.504   7.240
59599SOL    HW180636   6.677   8.468   7.227
59599SOL    HW280637   6.800   8.515   7.151
59600SOL     OW80638  11.483   1.543  14.006
59600SOL    HW180639  11.523   1.573  14.088
59600SOL    HW280640  11.394   1.579  14.008
59601SOL     OW80641   8.203   3.305  12.871
59601SOL    HW180642   8.211   3.395  12.903
59601SOL    HW280643   8.143   3.311  12.797
59602SOL     OW80644  14.142   6.092   8.904
59602SOL    HW180645  14.165   6.136   8.822
59602SOL    HW280646  14.226   6.058   8.936
59603SOL     OW80647  10.529   7.973   6.581
59603SOL    HW180648  10.450   7.920   6.577
59603SOL    HW280649  10.553   7.974   6.674
59604SOL     OW80650   0.953   2.832   7.771
59604SOL    HW180651   0.874   2.783   7.745
59604SOL    HW280652   0.939   2.919   7.735
59605SOL     OW80653   3.325   4.204   1.210
59605SOL    HW180654   3.399   4.161   1.167
59605SOL    HW280655   3.250   4.150   1.187
59606SOL     OW80656   0.011  11.940   0.434
59606SOL    HW180657  14.871  11.917   0.524
59606SOL    HW280658   0.102  11.968   0.438
59607SOL     OW80659   6.147   7.482  13.410
59607SOL    HW180660   6.146   7.389  13.389
59607SOL    HW280661   6.115   7.525  13.331
59608SOL     OW80662   5.445   7.478   3.291
59608SOL    HW180663   5.447   7.567   3.327
59608SOL    HW280664   5.531   7.442   3.312
59609SOL     OW80665   4.971  13.068   9.948
59609SOL    HW180666   5.018  13.032   9.872
59609SOL    HW280667   4.925  12.992   9.985
59610SOL     OW80668  14.750  12.486   2.154
59610SOL    HW180669  14.682  12.551   2.171
59610SOL    HW280670  14.714  12.404   2.190
59611SOL     OW80671   1.791   6.114   1.366
59611SOL    HW180672   1.728   6.047   1.393
59611SOL    HW280673   1.843   6.072   1.298
59612SOL     OW80674   9.347   6.767   7.878
59612SOL    HW180675   9.276   6.823   7.910
59612SOL    HW280676   9.403   6.827   7.828
59613SOL     OW80677   2.514   8.535   2.178
59613SOL    HW180678   2.434   8.520   2.128
59613SOL    HW280679   2.492   8.606   2.238
59614SOL     OW80680   6.344   0.508   4.043
59614SOL    HW180681   6.424   0.467   4.011
59614SOL    HW280682   6.302   0.439   4.095
59615SOL     OW80683   9.518  13.350   5.647
59615SOL    HW180684   9.543  13.395   5.727
59615SOL    HW280685   9.528  13.415   5.578
59616SOL     OW80686   4.941  10.235   4.497
59616SOL    HW180687   4.918  10.323   4.466
59616SOL    HW280688   5.035  10.239   4.513
59617SOL     OW80689   5.258   3.185   2.722
59617SOL    HW180690   5.221   3.116   2.667
59617SOL    HW280691   5.323   3.140   2.776
59618SOL     OW80692   5.891   4.493   4.676
59618SOL    HW180693   5.960   4.525   4.735
59618SOL    HW280694   5.938   4.465   4.598
59619SOL     OW80695   3.381   4.164  12.533
59619SOL    HW180696   3.394   4.227  12.462
59619SOL    HW280697   3.309   4.109  12.502
59620SOL     OW80698   2.169   2.282  11.162
59620SOL    HW180699   2.181   2.213  11.097
59620SOL    HW280700   2.088   2.259  11.207
59621SOL     OW80701   8.430  13.359  12.589
59621SOL    HW180702   8.464  13.270  12.585
59621SOL    HW280703   8.335  13.348  12.597
59622SOL     OW80704   4.401   4.808   9.818
59622SOL    HW180705   4.403   4.865   9.895
59622SOL    HW280706   4.314   4.768   9.820
59623SOL     OW80707   5.872   0.256   8.568
59623SOL    HW180708   5.803   0.196   8.539
59623SOL    HW280709   5.953   0.207   8.558
59624SOL     OW80710   7.914   3.934   0.270
59624SOL    HW180711   7.868   3.931   0.354
59624SOL    HW280712   7.848   3.963   0.207
59625SOL     OW80713   5.984   1.934   8.757
59625SOL    HW180714   5.959   1.927   8.665
59625SOL    HW280715   6.004   1.844   8.783
59626SOL     OW80716   1.645   4.659  12.089
59626SOL    HW180717   1.671   4.604  12.015
59626SOL    HW280718   1.552   4.637  12.103
59627SOL     OW80719   1.449   5.532  11.245
59627SOL    HW180720   1.452   5.573  11.159
59627SOL    HW280721   1.512   5.582  11.297
59628SOL     OW80722   9.272   9.703   1.471
59628SOL    HW180723   9.244   9.630   1.526
59628SOL    HW280724   9.363   9.719   1.497
59629SOL     OW80725  12.500  10.285  12.263
59629SOL    HW180726  12.480  10.192  12.247
59629SOL    HW280727  12.578  10.301  12.209
59630SOL     OW80728   4.772   7.655  13.969
59630SOL    HW180729   4.847   7.685  13.917
59630SOL    HW280730   4.806   7.583  14.021
59631SOL     OW80731  13.155  11.299   6.574
59631SOL    HW180732  13.227  11.357   6.598
59631SOL    HW280733  13.132  11.255   6.656
59632SOL     OW80734   2.140   0.732  14.471
59632SOL    HW180735   2.054   0.701  14.498
59632SOL    HW280736   2.138   0.730  14.375
59633SOL     OW80737   7.875  13.107  13.209
59633SOL    HW180738   7.885  13.013  13.224
59633SOL    HW280739   7.799  13.131  13.262
59634SOL     OW80740   1.089   2.895   0.818
59634SOL    HW180741   1.068   2.887   0.911
59634SOL    HW280742   1.110   2.987   0.806
59635SOL     OW80743   5.772   7.936   3.390
59635SOL    HW180744   5.806   8.007   3.445
59635SOL    HW280745   5.730   7.876   3.453
59636SOL     OW80746   3.870   2.831   0.210
59636SOL    HW180747   3.934   2.759   0.211
59636SOL    HW280748   3.882   2.875   0.294
59637SOL     OW80749   7.191  10.131  12.197
59637SOL    HW180750   7.234  10.166  12.119
59637SOL    HW280751   7.114  10.085  12.163
59638SOL     OW80752  10.739   2.639   4.181
59638SOL    HW180753  10.820   2.635   4.129
59638SOL    HW280754  10.726   2.550   4.213
59639SOL     OW80755   2.282   6.684  13.160
59639SOL    HW180756   2.278   6.749  13.230
59639SOL    HW280757   2.327   6.609  13.199
59640SOL     OW80758   8.902  14.587   9.363
59640SOL    HW180759   8.880  14.615   9.452
59640SOL    HW280760   8.946  14.503   9.375
59641SOL     OW80761   7.431  13.874  11.347
59641SOL    HW180762   7.435  13.784  11.380
59641SOL    HW280763   7.522  13.900  11.335
59642SOL     OW80764  10.992  11.814   6.724
59642SOL    HW180765  10.973  11.727   6.689
59642SOL    HW280766  11.082  11.808   6.756
59643SOL     OW80767   1.326   0.431   7.913
59643SOL    HW180768   1.278   0.505   7.951
59643SOL    HW280769   1.412   0.467   7.891
59644SOL     OW80770   0.959  10.768   0.934
59644SOL    HW180771   0.891  10.828   0.963
59644SOL    HW280772   1.040  10.819   0.940
59645SOL     OW80773  14.605  13.918   6.454
59645SOL    HW180774  14.598  13.967   6.536
59645SOL    HW280775  14.686  13.867   6.464
59646SOL     OW80776   9.102   4.098   6.937
59646SOL    HW180777   9.074   4.185   6.965
59646SOL    HW280778   9.064   4.038   7.002
59647SOL     OW80779   1.989   3.991   0.456
59647SOL    HW180780   2.059   3.989   0.392
59647SOL    HW280781   2.023   4.046   0.527
59648SOL     OW80782   0.778   1.328   9.112
59648SOL    HW180783   0.703   1.269   9.112
59648SOL    HW280784   0.854   1.270   9.117
59649SOL     OW80785  14.809  14.718   4.247
59649SOL    HW180786  14.836  14.786   4.308
59649SOL    HW280787  14.779  14.646   4.302
59650SOL     OW80788   2.497   3.903  10.689
59650SOL    HW180789   2.488   3.867  10.601
59650SOL    HW280790   2.589   3.929  10.694
59651SOL     OW80791  10.519   5.191  11.892
59651SOL    HW180792  10.589   5.175  11.828
59651SOL    HW280793  10.560   5.247  11.959
59652SOL     OW80794   1.699  13.644  10.604
59652SOL    HW180795   1.726  13.703  10.534
59652SOL    HW280796   1.652  13.573  10.560
59653SOL     OW80797   7.836   9.069  10.289
59653SOL    HW180798   7.783   9.148  10.302
59653SOL    HW280799   7.822   9.045  10.198
59654SOL     OW80800  10.740  14.733   1.178
59654SOL    HW180801  10.797  14.765   1.248
59654SOL    HW280802  10.717  14.811   1.128
59655SOL     OW80803   8.924   1.783   3.959
59655SOL    HW180804   8.847   1.834   3.932
59655SOL    HW280805   8.965   1.757   3.877
59656SOL     OW80806  11.364   1.172   3.572
59656SOL    HW180807  11.443   1.121   3.554
59656SOL    HW280808  11.313   1.118   3.633
59657SOL     OW80809   2.081   0.850  10.013
59657SOL    HW180810   2.175   0.848   9.995
59657SOL    HW280811   2.075   0.865  10.108
59658SOL     OW80812  10.213  13.639   4.153
59658SOL    HW180813  10.264  13.607   4.228
59658SOL    HW280814  10.142  13.575   4.143
59659SOL     OW80815  10.455  13.671  11.354
59659SOL    HW180816  10.458  13.640  11.263
59659SOL    HW280817  10.361  13.675  11.374
59660SOL     OW80818   1.824  12.202   0.811
59660SOL    HW180819   1.804  12.177   0.721
59660SOL    HW280820   1.770  12.280   0.827
59661SOL     OW80821   6.771   5.304   1.154
59661SOL    HW180822   6.732   5.233   1.103
59661SOL    HW280823   6.696   5.359   1.179
59662SOL     OW80824   5.211   9.788   7.400
59662SOL    HW180825   5.224   9.840   7.321
59662SOL    HW280826   5.166   9.709   7.371
59663SOL     OW80827   7.433   9.852  11.282
59663SOL    HW180828   7.525   9.851  11.255
59663SOL    HW280829   7.436   9.857  11.377
59664SOL     OW80830  11.783   1.115   7.722
59664SOL    HW180831  11.773   1.068   7.639
59664SOL    HW280832  11.874   1.143   7.722
59665SOL     OW80833   6.546   0.543   8.142
59665SOL    HW180834   6.603   0.483   8.094
59665SOL    HW280835   6.579   0.540   8.232
59666SOL     OW80836   2.786   4.262   3.885
59666SOL    HW180837   2.706   4.305   3.917
59666SOL    HW280838   2.807   4.308   3.803
59667SOL     OW80839  13.292   0.092  11.838
59667SOL    HW180840  13.319   0.003  11.861
59667SOL    HW280841  13.375   0.138  11.822
59668SOL     OW80842   9.937  11.043   3.592
59668SOL    HW180843   9.907  10.956   3.569
59668SOL    HW280844   9.925  11.048   3.687
59669SOL     OW80845   3.231  13.474   5.980
59669SOL    HW180846   3.279  13.419   5.918
59669SOL    HW280847   3.285  13.551   5.991
59670SOL     OW80848   3.303   6.476   5.905
59670SOL    HW180849   3.330   6.547   5.847
59670SOL    HW280850   3.385   6.441   5.940
59671SOL     OW80851   8.880   8.901   6.819
59671SOL    HW180852   8.961   8.944   6.847
59671SOL    HW280853   8.904   8.809   6.807
59672SOL     OW80854   5.869   5.145   0.271
59672SOL    HW180855   5.839   5.054   0.267
59672SOL    HW280856   5.792   5.194   0.300
59673SOL     OW80857   0.136   8.876  12.077
59673SOL    HW180858   0.085   8.951  12.107
59673SOL    HW280859   0.221   8.887  12.120
59674SOL     OW80860   5.230   6.978   5.995
59674SOL    HW180861   5.314   6.948   6.031
59674SOL    HW280862   5.166   6.958   6.063
59675SOL     OW80863   2.083   7.286   3.716
59675SOL    HW180864   2.054   7.252   3.801
59675SOL    HW280865   2.020   7.354   3.694
59676SOL     OW80866   4.425   0.470   6.969
59676SOL    HW180867   4.421   0.555   7.012
59676SOL    HW280868   4.341   0.429   6.989
59677SOL     OW80869   1.928   7.550  11.374
59677SOL    HW180870   1.961   7.639  11.378
59677SOL    HW280871   1.845   7.553  11.422
59678SOL     OW80872   7.442   1.072   8.463
59678SOL    HW180873   7.425   1.155   8.419
59678SOL    HW280874   7.359   1.048   8.503
59679SOL     OW80875  14.113   8.586   6.569
59679SOL    HW180876  14.099   8.561   6.477
59679SOL    HW280877  14.207   8.593   6.578
59680SOL     OW80878   7.206  12.739   2.445
59680SOL    HW180879   7.199  12.755   2.539
59680SOL    HW280880   7.138  12.675   2.426
59681SOL     OW80881   1.888  11.554   7.817
59681SOL    HW180882   1.983  11.554   7.828
59681SOL    HW280883   1.865  11.646   7.805
59682SOL     OW80884   4.771   6.409  13.996
59682SOL    HW180885   4.826   6.434  14.071
59682SOL    HW280886   4.818   6.338  13.954
59683SOL     OW80887   2.755  11.020   1.878
59683SOL    HW180888   2.681  10.963   1.899
59683SOL    HW280889   2.791  10.983   1.797
59684SOL     OW80890  11.894   6.185  11.344
59684SOL    HW180891  11.856   6.126  11.408
59684SOL    HW280892  11.954   6.240  11.394
59685SOL     OW80893  10.844  10.341   9.764
59685SOL    HW180894  10.883  10.420   9.802
59685SOL    HW280895  10.917  10.297   9.720
59686SOL     OW80896  10.580  10.466   2.987
59686SOL    HW180897  10.507  10.415   3.023
59686SOL    HW280898  10.574  10.551   3.031
59687SOL     OW80899   8.805  12.741   6.813
59687SOL    HW180900   8.892  12.769   6.785
59687SOL    HW280901   8.820  12.695   6.896
59688SOL     OW80902   5.993   9.197   0.045
59688SOL    HW180903   5.911   9.196   0.095
59688SOL    HW280904   5.968   9.227  14.840
59689SOL     OW80905   6.218  11.668   3.354
59689SOL    HW180906   6.168  11.627   3.424
59689SOL    HW280907   6.157  11.731   3.314
59690SOL     OW80908  12.565   0.636  10.134
59690SOL    HW180909  12.633   0.678  10.081
59690SOL    HW280910  12.612   0.568  10.183
59691SOL     OW80911  13.024   0.363   6.354
59691SOL    HW180912  13.098   0.402   6.308
59691SOL    HW280913  12.971   0.322   6.285
59692SOL     OW80914   7.128   6.672   2.986
59692SOL    HW180915   7.094   6.595   2.941
59692SOL    HW280916   7.169   6.724   2.917
59693SOL     OW80917   1.706  13.517   9.291
59693SOL    HW180918   1.718  13.522   9.197
59693SOL    HW280919   1.667  13.601   9.315
59694SOL     OW80920  10.732   9.341   1.267
59694SOL    HW180921  10.681   9.418   1.293
59694SOL    HW280922  10.804   9.337   1.330
59695SOL     OW80923  13.090  11.113   4.147
59695SOL    HW180924  13.029  11.138   4.077
59695SOL    HW280925  13.068  11.022   4.165
59696SOL     OW80926   4.041   8.698  14.318
59696SOL    HW180927   4.040   8.759  14.391
59696SOL    HW280928   3.957   8.711  14.273
59697SOL     OW80929  11.419   6.900  13.498
59697SOL    HW180930  11.374   6.902  13.414
59697SOL    HW280931  11.443   6.991  13.515
59698SOL     OW80932  10.076   7.280  11.198
59698SOL    HW180933   9.999   7.286  11.254
59698SOL    HW280934  10.149   7.309  11.254
59699SOL     OW80935  10.602  12.712  13.658
59699SOL    HW180936  10.557  12.687  13.577
59699SOL    HW280937  10.544  12.777  13.698
59700SOL     OW80938  11.209   5.283  14.394
59700SOL    HW180939  11.217   5.369  14.354
59700SOL    HW280940  11.209   5.222  14.320
59701SOL     OW80941   4.012   4.573   8.883
59701SOL    HW180942   4.044   4.582   8.793
59701SOL    HW280943   3.916   4.570   8.874
59702SOL     OW80944   7.213  13.955  14.694
59702SOL    HW180945   7.226  13.906  14.613
59702SOL    HW280946   7.174  14.038  14.666
59703SOL     OW80947  11.786   7.499   0.848
59703SOL    HW180948  11.767   7.414   0.807
59703SOL    HW280949  11.827   7.550   0.779
59704SOL     OW80950   8.522  11.881   4.278
59704SOL    HW180951   8.598  11.931   4.247
59704SOL    HW280952   8.466  11.947   4.320
59705SOL     OW80953   2.469  10.870   6.743
59705SOL    HW180954   2.386  10.911   6.717
59705SOL    HW280955   2.533  10.903   6.681
59706SOL     OW80956   8.524   9.842   4.539
59706SOL    HW180957   8.603   9.827   4.488
59706SOL    HW280958   8.456   9.793   4.494
59707SOL     OW80959   4.965   9.731   6.266
59707SOL    HW180960   5.032   9.730   6.198
59707SOL    HW280961   4.882   9.736   6.218
59708SOL     OW80962   2.084   2.748  10.749
59708SOL    HW180963   2.069   2.695  10.827
59708SOL    HW280964   2.088   2.686  10.677
59709SOL     OW80965  14.351   4.803  12.598
59709SOL    HW180966  14.368   4.792  12.504
59709SOL    HW280967  14.430   4.769  12.640
59710SOL     OW80968  10.661   5.705   5.792
59710SOL    HW180969  10.584   5.691   5.847
59710SOL    HW280970  10.653   5.796   5.763
59711SOL     OW80971  10.421   7.142  14.571
59711SOL    HW180972  10.468   7.139  14.655
59711SOL    HW280973  10.371   7.223  14.575
59712SOL     OW80974   4.291   0.367   2.377
59712SOL    HW180975   4.321   0.455   2.399
59712SOL    HW280976   4.364   0.310   2.403
59713SOL     OW80977   4.716  14.682  10.828
59713SOL    HW180978   4.675  14.762  10.794
59713SOL    HW280979   4.804  14.684  10.791
59714SOL     OW80980   0.592   9.371  10.641
59714SOL    HW180981   0.653   9.444  10.638
59714SOL    HW280982   0.516   9.402  10.591
59715SOL     OW80983  11.440   3.544   2.025
59715SOL    HW180984  11.450   3.454   2.056
59715SOL    HW280985  11.476   3.543   1.937
59716SOL     OW80986   0.003   2.482   2.292
59716SOL    HW180987   0.022   2.394   2.261
59716SOL    HW280988  14.863   2.531   2.212
59717SOL     OW80989  11.508   9.198   8.871
59717SOL    HW180990  11.444   9.144   8.918
59717SOL    HW280991  11.466   9.217   8.787
59718SOL     OW80992  13.601   6.010  13.044
59718SOL    HW180993  13.668   5.945  13.023
59718SOL    HW280994  13.612   6.078  12.978
59719SOL     OW80995  11.127  14.348   5.294
59719SOL    HW180996  11.039  14.310   5.291
59719SOL    HW280997  11.156  14.335   5.384
59720SOL     OW80998   0.975   4.306   4.273
59720SOL    HW180999   1.039   4.337   4.209
59720SOL    HW281000   1.025   4.289   4.352
59721SOL     OW81001  14.732   3.549   5.049
59721SOL    HW181002  14.779   3.628   5.023
59721SOL    HW281003  14.800   3.490   5.081
59722SOL     OW81004  12.663  13.409   8.570
59722SOL    HW181005  12.578  13.393   8.610
59722SOL    HW281006  12.671  13.342   8.502
59723SOL     OW81007   1.409   2.844   7.893
59723SOL    HW181008   1.342   2.776   7.903
59723SOL    HW281009   1.359   2.926   7.888
59724SOL     OW81010  13.212  14.404   7.963
59724SOL    HW181011  13.167  14.380   8.045
59724SOL    HW281012  13.244  14.320   7.929
59725SOL     OW81013  12.847  13.914  11.061
59725SOL    HW181014  12.837  13.844  11.125
59725SOL    HW281015  12.795  13.886  10.986
59726SOL     OW81016   6.223   2.106   2.444
59726SOL    HW181017   6.232   2.196   2.474
59726SOL    HW281018   6.138   2.078   2.477
59727SOL     OW81019   3.984  12.124   8.082
59727SOL    HW181020   3.984  12.087   7.994
59727SOL    HW281021   3.942  12.057   8.136
59728SOL     OW81022   0.387   8.879   5.194
59728SOL    HW181023   0.427   8.904   5.111
59728SOL    HW281024   0.400   8.955   5.251
59729SOL     OW81025   6.214   6.528  14.487
59729SOL    HW181026   6.224   6.461  14.420
59729SOL    HW281027   6.239   6.484  14.569
59730SOL     OW81028   0.492   9.852  13.561
59730SOL    HW181029   0.518   9.911  13.490
59730SOL    HW281030   0.502   9.764  13.523
59731SOL     OW81031   4.452  13.889  13.339
59731SOL    HW181032   4.367  13.867  13.299
59731SOL    HW281033   4.468  13.818  13.402
59732SOL     OW81034  10.959   5.706  14.856
59732SOL    HW181035  11.045   5.715  14.815
59732SOL    HW281036  10.904   5.772  14.813
59733SOL     OW81037  11.891   1.252  14.306
59733SOL    HW181038  11.806   1.256  14.261
59733SOL    HW281039  11.902   1.160  14.327
59734SOL     OW81040   1.444   9.835   5.990
59734SOL    HW181041   1.514   9.884   6.034
59734SOL    HW281042   1.364   9.859   6.038
59735SOL     OW81043   9.553   3.147   7.411
59735SOL    HW181044   9.545   3.212   7.341
59735SOL    HW281045   9.620   3.183   7.469
59736SOL     OW81046   3.334  11.283  13.976
59736SOL    HW181047   3.279  11.220  14.022
59736SOL    HW281048   3.401  11.230  13.932
59737SOL     OW81049   9.511   9.705   5.060
59737SOL    HW181050   9.605   9.689   5.051
59737SOL    HW281051   9.475   9.686   4.974
59738SOL     OW81052   9.687  11.790  11.645
59738SOL    HW181053   9.740  11.815  11.720
59738SOL    HW281054   9.725  11.838  11.571
59739SOL     OW81055  10.745  13.347   6.946
59739SOL    HW181056  10.740  13.310   7.034
59739SOL    HW281057  10.668  13.312   6.901
59740SOL     OW81058   7.962   3.015  10.150
59740SOL    HW181059   8.051   2.983  10.163
59740SOL    HW281060   7.968   3.076  10.076
59741SOL     OW81061  11.054   8.076  13.649
59741SOL    HW181062  11.132   8.042  13.604
59741SOL    HW281063  10.986   8.011  13.631
59742SOL     OW81064   7.985   2.971   1.616
59742SOL    HW181065   8.068   2.924   1.602
59742SOL    HW281066   8.001   3.026   1.692
59743SOL     OW81067  14.630   4.802   1.304
59743SOL    HW181068  14.703   4.755   1.344
59743SOL    HW281069  14.560   4.797   1.370
59744SOL     OW81070   3.079   6.381   6.966
59744SOL    HW181071   3.161   6.336   6.986
59744SOL    HW281072   3.056   6.426   7.047
59745SOL     OW81073   3.952   6.707   4.751
59745SOL    HW181074   3.982   6.761   4.677
59745SOL    HW281075   4.027   6.653   4.773
59746SOL     OW81076  13.093   5.542   2.584
59746SOL    HW181077  13.171   5.525   2.530
59746SOL    HW281078  13.085   5.466   2.640
59747SOL     OW81079   2.003  14.088   4.304
59747SOL    HW181080   2.060  14.147   4.353
59747SOL    HW281081   2.021  14.001   4.340
59748SOL     OW81082  10.719   4.920   4.275
59748SOL    HW181083  10.791   4.977   4.249
59748SOL    HW281084  10.653   4.932   4.207
59749SOL     OW81085   4.555   0.639   1.425
59749SOL    HW181086   4.563   0.547   1.400
59749SOL    HW281087   4.565   0.638   1.520
59750SOL     OW81088   4.100   3.763   1.831
59750SOL    HW181089   4.141   3.721   1.756
59750SOL    HW281090   4.158   3.743   1.905
59751SOL     OW81091  14.174   1.017   0.244
59751SOL    HW181092  14.144   1.083   0.307
59751SOL    HW281093  14.176   0.935   0.294
59752SOL     OW81094  14.836  11.416   4.085
59752SOL    HW181095  14.754  11.460   4.107
59752SOL    HW281096  14.817  11.323   4.098
59753SOL     OW81097   8.452   3.565   2.537
59753SOL    HW181098   8.422   3.526   2.455
59753SOL    HW281099   8.451   3.659   2.521
59754SOL     OW81100  14.090   7.565  13.650
59754SOL    HW181101  14.074   7.572  13.744
59754SOL    HW281102  14.046   7.641  13.613
59755SOL     OW81103  13.221   1.222   7.758
59755SOL    HW181104  13.197   1.313   7.771
59755SOL    HW281105  13.215   1.182   7.845
59756SOL     OW81106  14.211   6.633  10.883
59756SOL    HW181107  14.290   6.624  10.935
59756SOL    HW281108  14.203   6.728  10.868
59757SOL     OW81109  12.613  10.384  11.613
59757SOL    HW181110  12.599  10.349  11.701
59757SOL    HW281111  12.525  10.405  11.581
59758SOL     OW81112  12.361   8.345   8.232
59758SOL    HW181113  12.375   8.312   8.320
59758SOL    HW281114  12.448   8.370   8.201
59759SOL     OW81115  13.141   0.901   4.113
59759SOL    HW181116  13.049   0.873   4.116
59759SOL    HW281117  13.151   0.942   4.027
59760SOL     OW81118   4.189  11.759  14.824
59760SOL    HW181119   4.238  11.824  14.774
59760SOL    HW281120   4.118  11.808  14.865
59761SOL     OW81121  13.429  14.310   2.895
59761SOL    HW181122  13.517  14.283   2.870
59761SOL    HW281123  13.377  14.230   2.888
59762SOL     OW81124   2.334   8.044  13.811
59762SOL    HW181125   2.353   8.119  13.868
59762SOL    HW281126   2.411   8.036  13.756
59763SOL     OW81127   7.157  13.675   2.189
59763SOL    HW181128   7.079  13.622   2.202
59763SOL    HW281129   7.230  13.616   2.210
59764SOL     OW81130  10.034  12.933   3.525
59764SOL    HW181131  10.095  12.894   3.462
59764SOL    HW281132  10.066  13.022   3.537
59765SOL     OW81133   9.761  10.150   9.368
59765SOL    HW181134   9.726  10.158   9.280
59765SOL    HW281135   9.685  10.150   9.425
59766SOL     OW81136   1.390   3.388   4.050
59766SOL    HW181137   1.363   3.319   4.111
59766SOL    HW281138   1.460   3.349   3.998
59767SOL     OW81139   5.801  12.999   4.517
59767SOL    HW181140   5.713  12.964   4.528
59767SOL    HW281141   5.829  13.022   4.606
59768SOL     OW81142   1.741  10.645  14.051
59768SOL    HW181143   1.776  10.679  13.968
59768SOL    HW281144   1.747  10.718  14.111
59769SOL     OW81145  10.770   1.851  12.214
59769SOL    HW181146  10.792   1.934  12.171
59769SOL    HW281147  10.762   1.874  12.307
59770SOL     OW81148   0.142   7.062   4.435
59770SOL    HW181149   0.070   7.005   4.463
59770SOL    HW281150   0.148   7.128   4.504
59771SOL     OW81151  13.596  13.005   2.464
59771SOL    HW181152  13.686  12.990   2.435
59771SOL    HW281153  13.597  12.986   2.558
59772SOL     OW81154  10.752   9.664   7.559
59772SOL    HW181155  10.788   9.577   7.538
59772SOL    HW281156  10.696   9.684   7.484
59773SOL     OW81157   0.581   2.221   4.400
59773SOL    HW181158   0.544   2.253   4.318
59773SOL    HW281159   0.553   2.285   4.466
59774SOL     OW81160   1.743  14.210   2.713
59774SOL    HW181161   1.666  14.155   2.732
59774SOL    HW281162   1.740  14.278   2.779
59775SOL     OW81163   7.769   1.307   1.361
59775SOL    HW181164   7.789   1.322   1.268
59775SOL    HW281165   7.839   1.250   1.392
59776SOL     OW81166   8.211   7.151   6.810
59776SOL    HW181167   8.271   7.088   6.771
59776SOL    HW281168   8.245   7.166   6.898
59777SOL     OW81169   0.234  13.066  12.322
59777SOL    HW181170   0.280  12.991  12.285
59777SOL    HW281171   0.178  13.097  12.251
59778SOL     OW81172   3.798   4.534   4.348
59778SOL    HW181173   3.767   4.610   4.396
59778SOL    HW281174   3.892   4.549   4.337
59779SOL     OW81175   2.998   7.894  13.249
59779SOL    HW181176   3.093   7.905  13.242
59779SOL    HW281177   2.964   7.936  13.170
59780SOL     OW81178  12.560   7.614  11.964
59780SOL    HW181179  12.554   7.522  11.989
59780SOL    HW281180  12.626   7.651  12.023
59781SOL     OW81181   0.307   1.042   8.423
59781SOL    HW181182   0.302   1.137   8.410
59781SOL    HW281183   0.226   1.009   8.385
59782SOL     OW81184   2.059  11.012   1.149
59782SOL    HW181185   1.974  10.993   1.189
59782SOL    HW281186   2.090  10.928   1.116
59783SOL     OW81187   7.536  12.315  13.042
59783SOL    HW181188   7.448  12.287  13.018
59783SOL    HW281189   7.537  12.314  13.137
59784SOL     OW81190   1.631  14.377  11.768
59784SOL    HW181191   1.629  14.283  11.750
59784SOL    HW281192   1.548  14.410  11.733
59785SOL     OW81193   6.850   2.180   3.344
59785SOL    HW181194   6.790   2.112   3.373
59785SOL    HW281195   6.892   2.143   3.266
59786SOL     OW81196   3.844   1.392  14.828
59786SOL    HW181197   3.839   1.487  14.815
59786SOL    HW281198   3.893   1.360  14.752
59787SOL     OW81199  12.199   0.660  13.566
59787SOL    HW181200  12.107   0.654  13.543
59787SOL    HW281201  12.199   0.683  13.659
59788SOL     OW81202   8.102   6.628  13.897
59788SOL    HW181203   8.170   6.620  13.830
59788SOL    HW281204   8.049   6.549  13.888
59789SOL     OW81205   6.064   0.388  11.397
59789SOL    HW181206   6.102   0.303  11.375
59789SOL    HW281207   5.977   0.367  11.432
59790SOL     OW81208   9.374   0.462   0.344
59790SOL    HW181209   9.341   0.408   0.416
59790SOL    HW281210   9.303   0.523   0.325
59791SOL     OW81211   4.641   5.442   0.032
59791SOL    HW181212   4.592   5.435   0.114
59791SOL    HW281213   4.574   5.448  14.846
59792SOL     OW81214   8.551   3.862   1.696
59792SOL    HW181215   8.468   3.889   1.656
59792SOL    HW281216   8.606   3.836   1.623
59793SOL     OW81217   8.845   6.938   4.281
59793SOL    HW181218   8.884   6.877   4.219
59793SOL    HW281219   8.850   7.023   4.237
59794SOL     OW81220   4.825   1.272   3.839
59794SOL    HW181221   4.866   1.294   3.755
59794SOL    HW281222   4.800   1.357   3.876
59795SOL     OW81223   0.802   5.660  10.943
59795SOL    HW181224   0.785   5.648  11.036
59795SOL    HW281225   0.782   5.575  10.904
59796SOL     OW81226   6.431  14.473  13.586
59796SOL    HW181227   6.462  14.476  13.495
59796SOL    HW281228   6.502  14.431  13.634
59797SOL     OW81229   2.022   1.119   2.656
59797SOL    HW181230   2.057   1.191   2.604
59797SOL    HW281231   1.928   1.119   2.636
59798SOL     OW81232   5.523   4.947   0.949
59798SOL    HW181233   5.520   4.980   1.039
59798SOL    HW281234   5.560   5.020   0.898
59799SOL     OW81235  13.454   2.820   5.033
59799SOL    HW181236  13.469   2.745   5.091
59799SOL    HW281237  13.536   2.869   5.034
59800SOL     OW81238  12.009   8.157   4.985
59800SOL    HW181239  11.964   8.072   4.986
59800SOL    HW281240  12.009   8.185   5.077
59801SOL     OW81241  14.347   7.989  11.698
59801SOL    HW181242  14.380   8.077  11.680
59801SOL    HW281243  14.404   7.930  11.648
59802SOL     OW81244  12.197   6.421   5.497
59802SOL    HW181245  12.186   6.515   5.513
59802SOL    HW281246  12.287   6.403   5.523
59803SOL     OW81247   9.015   8.863   8.238
59803SOL    HW181248   9.060   8.934   8.194
59803SOL    HW281249   9.072   8.787   8.226
59804SOL     OW81250   3.412  12.344   6.127
59804SOL    HW181251   3.481  12.386   6.075
59804SOL    HW281252   3.459  12.282   6.182
59805SOL     OW81253   3.087   1.985   6.500
59805SOL    HW181254   3.120   1.896   6.490
59805SOL    HW281255   3.003   1.985   6.454
59806SOL     OW81256  12.859   4.855   3.333
59806SOL    HW181257  12.909   4.773   3.331
59806SOL    HW281258  12.767   4.827   3.333
59807SOL     OW81259   7.687   0.461  12.291
59807SOL    HW181260   7.623   0.392  12.270
59807SOL    HW281261   7.636   0.528  12.335
59808SOL     OW81262  12.989   2.917   0.039
59808SOL    HW181263  12.909   2.965   0.020
59808SOL    HW281264  13.054   2.955  14.862
59809SOL     OW81265  10.927   5.648   7.210
59809SOL    HW181266  10.877   5.567   7.208
59809SOL    HW281267  11.017   5.620   7.228
59810SOL     OW81268   1.348  12.763  14.447
59810SOL    HW181269   1.266  12.733  14.407
59810SOL    HW281270   1.351  12.856  14.428
59811SOL     OW81271   0.674  11.504   1.591
59811SOL    HW181272   0.644  11.413   1.592
59811SOL    HW281273   0.761  11.499   1.551
59812SOL     OW81274   9.326   4.266  13.455
59812SOL    HW181275   9.353   4.321  13.382
59812SOL    HW281276   9.261   4.206  13.418
59813SOL     OW81277   7.864   5.353   8.444
59813SOL    HW181278   7.899   5.430   8.400
59813SOL    HW281279   7.785   5.384   8.488
59814SOL     OW81280  14.623   9.038   6.769
59814SOL    HW181281  14.655   9.118   6.810
59814SOL    HW281282  14.702   8.987   6.751
59815SOL     OW81283   8.524   2.066  12.846
59815SOL    HW181284   8.586   2.044  12.776
59815SOL    HW281285   8.440   2.078  12.802
59816SOL     OW81286   7.333   9.175  10.728
59816SOL    HW181287   7.345   9.131  10.812
59816SOL    HW281288   7.278   9.250  10.748
59817SOL     OW81289   7.934   4.396  14.513
59817SOL    HW181290   7.952   4.336  14.440
59817SOL    HW281291   7.908   4.478  14.471
59818SOL     OW81292   0.405  14.640   5.501
59818SOL    HW181293   0.384  14.686   5.419
59818SOL    HW281294   0.347  14.679   5.566
59819SOL     OW81295   8.974   8.481   0.127
59819SOL    HW181296   8.904   8.545   0.114
59819SOL    HW281297   9.044   8.510   0.068
59820SOL     OW81298   4.389  13.863   6.385
59820SOL    HW181299   4.366  13.933   6.323
59820SOL    HW281300   4.336  13.788   6.358
59821SOL     OW81301   3.420  10.876   1.427
59821SOL    HW181302   3.382  10.799   1.470
59821SOL    HW281303   3.503  10.890   1.473
59822SOL     OW81304   9.291   7.158  11.815
59822SOL    HW181305   9.221   7.214  11.849
59822SOL    HW281306   9.265   7.069  11.840
59823SOL     OW81307  10.447   2.102   3.686
59823SOL    HW181308  10.353   2.109   3.670
59823SOL    HW281309  10.454   2.077   3.778
59824SOL     OW81310  13.266   6.695   4.453
59824SOL    HW181311  13.309   6.628   4.400
59824SOL    HW281312  13.223   6.646   4.523
59825SOL     OW81313  12.354  14.804   3.119
59825SOL    HW181314  12.268  14.847   3.119
59825SOL    HW281315  12.397  14.838   3.197
59826SOL     OW81316   5.500   4.827  12.521
59826SOL    HW181317   5.580   4.879  12.515
59826SOL    HW281318   5.437   4.886  12.564
59827SOL     OW81319   7.697  11.026  10.553
59827SOL    HW181320   7.693  10.994  10.643
59827SOL    HW281321   7.723  10.950  10.501
59828SOL     OW81322   9.513   2.482   8.859
59828SOL    HW181323   9.508   2.537   8.781
59828SOL    HW281324   9.439   2.509   8.913
59829SOL     OW81325   7.351   2.568   3.973
59829SOL    HW181326   7.378   2.654   4.003
59829SOL    HW281327   7.257   2.563   3.994
59830SOL     OW81328  11.282   3.925  10.667
59830SOL    HW181329  11.320   3.846  10.706
59830SOL    HW281330  11.261   3.900  10.577
59831SOL     OW81331   4.616  11.988   5.909
59831SOL    HW181332   4.703  11.998   5.871
59831SOL    HW281333   4.614  11.899   5.942
59832SOL     OW81334   8.894   8.920   8.470
59832SOL    HW181335   8.932   9.003   8.499
59832SOL    HW281336   8.933   8.905   8.384
59833SOL     OW81337   3.787   7.457   1.690
59833SOL    HW181338   3.767   7.458   1.783
59833SOL    HW281339   3.754   7.541   1.657
59834SOL     OW81340  13.668   1.310   4.068
59834SOL    HW181341  13.650   1.245   4.136
59834SOL    HW281342  13.606   1.289   3.999
59835SOL     OW81343   3.733   2.588  11.246
59835SOL    HW181344   3.640   2.602  11.227
59835SOL    HW281345   3.738   2.497  11.274
59836SOL     OW81346   5.818   1.176   5.547
59836SOL    HW181347   5.806   1.158   5.640
59836SOL    HW281348   5.886   1.243   5.544
59837SOL     OW81349   4.877   5.730  14.205
59837SOL    HW181350   4.824   5.808  14.189
59837SOL    HW281351   4.813   5.659  14.213
59838SOL     OW81352   8.420   6.096   4.711
59838SOL    HW181353   8.341   6.045   4.732
59838SOL    HW281354   8.475   6.087   4.788
59839SOL     OW81355   5.382   5.585   0.899
59839SOL    HW181356   5.315   5.519   0.914
59839SOL    HW281357   5.445   5.573   0.970
59840SOL     OW81358  14.825   9.705   8.788
59840SOL    HW181359  14.779   9.646   8.848
59840SOL    HW281360  14.817   9.792   8.829
59841SOL     OW81361   2.217   6.226   3.331
59841SOL    HW181362   2.165   6.305   3.318
59841SOL    HW281363   2.253   6.236   3.419
59842SOL     OW81364  10.146  10.278  10.088
59842SOL    HW181365  10.217  10.249  10.031
59842SOL    HW281366  10.158  10.227  10.168
59843SOL     OW81367   7.575  10.876  11.615
59843SOL    HW181368   7.617  10.961  11.609
59843SOL    HW281369   7.615  10.824  11.545
59844SOL     OW81370   3.127   9.554   6.748
59844SOL    HW181371   3.110   9.610   6.672
59844SOL    HW281372   3.115   9.465   6.715
59845SOL     OW81373   8.460   2.835   6.102
59845SOL    HW181374   8.382   2.845   6.047
59845SOL    HW281375   8.521   2.785   6.048
59846SOL     OW81376   0.414  11.545   3.726
59846SOL    HW181377   0.455  11.625   3.694
59846SOL    HW281378   0.487  11.493   3.761
59847SOL     OW81379  13.394   9.299   3.828
59847SOL    HW181380  13.434   9.212   3.823
59847SOL    HW281381  13.366   9.318   3.738
59848SOL     OW81382   0.113   6.418   5.832
59848SOL    HW181383   0.113   6.505   5.872
59848SOL    HW281384   0.020   6.393   5.829
59849SOL     OW81385   2.557   3.045   5.973
59849SOL    HW181386   2.530   3.126   6.016
59849SOL    HW281387   2.577   2.985   6.044
59850SOL     OW81388  13.432   6.459   0.389
59850SOL    HW181389  13.459   6.372   0.359
59850SOL    HW281390  13.510   6.513   0.382
59851SOL     OW81391   4.858   9.715   3.297
59851SOL    HW181392   4.826   9.629   3.323
59851SOL    HW281393   4.821   9.776   3.361
59852SOL     OW81394  10.764  11.971  11.272
59852SOL    HW181395  10.846  11.927  11.247
59852SOL    HW281396  10.793  12.055  11.308
59853SOL     OW81397   3.779   6.957  11.885
59853SOL    HW181398   3.799   6.863  11.886
59853SOL    HW281399   3.689   6.961  11.854
59854SOL     OW81400   8.186   4.164   1.391
59854SOL    HW181401   8.203   4.241   1.336
59854SOL    HW281402   8.271   4.120   1.397
59855SOL     OW81403  11.937  14.084  14.855
59855SOL    HW181404  11.884  14.107  14.778
59855SOL    HW281405  11.964  13.993  14.839
59856SOL     OW81406   2.556   1.318   8.787
59856SOL    HW181407   2.464   1.336   8.805
59856SOL    HW281408   2.558   1.226   8.759
59857SOL     OW81409   7.144   3.370  14.705
59857SOL    HW181410   7.181   3.459  14.702
59857SOL    HW281411   7.211   3.317  14.748
59858SOL     OW81412   7.750  12.764   4.807
59858SOL    HW181413   7.694  12.821   4.755
59858SOL    HW281414   7.782  12.821   4.878
59859SOL     OW81415   4.769   3.332  13.813
59859SOL    HW181416   4.841   3.286  13.857
59859SOL    HW281417   4.806   3.360  13.730
59860SOL     OW81418  12.678   2.094  11.070
59860SOL    HW181419  12.673   2.044  10.989
59860SOL    HW281420  12.663   2.185  11.044
59861SOL     OW81421   7.767  11.430   4.815
59861SOL    HW181422   7.689  11.387   4.781
59861SOL    HW281423   7.837  11.365   4.803
59862SOL     OW81424  14.186   9.068   0.630
59862SOL    HW181425  14.142   9.153   0.630
59862SOL    HW281426  14.234   9.065   0.712
59863SOL     OW81427   6.640   1.182   2.694
59863SOL    HW181428   6.633   1.214   2.604
59863SOL    HW281429   6.629   1.261   2.747
59864SOL     OW81430   9.967   1.336  14.266
59864SOL    HW181431  10.058   1.354  14.290
59864SOL    HW281432   9.916   1.369  14.341
59865SOL     OW81433   4.297   8.587   8.083
59865SOL    HW181434   4.314   8.623   8.170
59865SOL    HW281435   4.225   8.640   8.049
59866SOL     OW81436  10.159   5.614   9.613
59866SOL    HW181437  10.196   5.530   9.587
59866SOL    HW281438  10.166   5.669   9.535
59867SOL     OW81439   3.083   2.628   5.453
59867SOL    HW181440   3.047   2.713   5.479
59867SOL    HW281441   3.007   2.577   5.425
59868SOL     OW81442   3.750   7.982  11.904
59868SOL    HW181443   3.707   8.063  11.931
59868SOL    HW281444   3.824   8.011  11.851
59869SOL     OW81445  13.528   2.511  10.267
59869SOL    HW181446  13.443   2.501  10.310
59869SOL    HW281447  13.592   2.503  10.338
59870SOL     OW81448  12.958   8.782   1.096
59870SOL    HW181449  12.922   8.841   1.031
59870SOL    HW281450  12.883   8.734   1.131
59871SOL     OW81451  10.232   4.266  10.017
59871SOL    HW181452  10.144   4.278  10.052
59871SOL    HW281453  10.261   4.353   9.992
59872SOL     OW81454   4.637   3.658   8.696
59872SOL    HW181455   4.657   3.724   8.630
59872SOL    HW281456   4.671   3.576   8.659
59873SOL     OW81457  14.253  12.312   2.813
59873SOL    HW181458  14.275  12.390   2.762
59873SOL    HW281459  14.210  12.346   2.892
59874SOL     OW81460   8.423   3.493   2.250
59874SOL    HW181461   8.484   3.566   2.243
59874SOL    HW281462   8.343   3.525   2.210
59875SOL     OW81463   9.017   2.210   4.487
59875SOL    HW181464   9.008   2.228   4.393
59875SOL    HW281465   9.038   2.295   4.526
59876SOL     OW81466  10.310  14.725   8.912
59876SOL    HW181467  10.286  14.789   8.979
59876SOL    HW281468  10.382  14.766   8.864
59877SOL     OW81469  11.751   4.023   7.956
59877SOL    HW181470  11.717   4.109   7.935
59877SOL    HW281471  11.777   4.029   8.048
59878SOL     OW81472  14.664  10.932   6.260
59878SOL    HW181473  14.629  10.960   6.345
59878SOL    HW281474  14.750  10.896   6.280
59879SOL     OW81475   5.647   9.689   3.660
59879SOL    HW181476   5.633   9.718   3.750
59879SOL    HW281477   5.735   9.720   3.638
59880SOL     OW81478   1.877   3.176   8.332
59880SOL    HW181479   1.818   3.104   8.311
59880SOL    HW281480   1.822   3.243   8.372
59881SOL     OW81481  11.551   5.331  13.830
59881SOL    HW181482  11.535   5.425  13.831
59881SOL    HW281483  11.634   5.322  13.783
59882SOL     OW81484  12.348   6.822   1.345
59882SOL    HW181485  12.336   6.779   1.430
59882SOL    HW281486  12.294   6.770   1.285
59883SOL     OW81487  11.877   3.841   5.055
59883SOL    HW181488  11.914   3.781   5.120
59883SOL    HW281489  11.794   3.869   5.093
59884SOL     OW81490  12.801   8.543   2.717
59884SOL    HW181491  12.751   8.610   2.669
59884SOL    HW281492  12.803   8.575   2.807
59885SOL     OW81493   1.497   5.918   1.811
59885SOL    HW181494   1.460   6.006   1.820
59885SOL    HW281495   1.589   5.928   1.835
59886SOL     OW81496   7.918  11.867   1.649
59886SOL    HW181497   7.966  11.942   1.614
59886SOL    HW281498   7.853  11.904   1.708
59887SOL     OW81499   4.744  10.439   5.883
59887SOL    HW181500   4.798  10.390   5.821
59887SOL    HW281501   4.790  10.523   5.893
59888SOL     OW81502   3.313   7.683   0.060
59888SOL    HW181503   3.326   7.774   0.086
59888SOL    HW281504   3.221   7.678   0.035
59889SOL     OW81505   9.689   2.526   6.980
59889SOL    HW181506   9.671   2.562   6.893
59889SOL    HW281507   9.704   2.432   6.964
59890SOL     OW81508   3.497   8.974   9.599
59890SOL    HW181509   3.423   8.915   9.614
59890SOL    HW281510   3.573   8.916   9.591
59891SOL     OW81511   0.750   4.572   3.697
59891SOL    HW181512   0.799   4.654   3.684
59891SOL    HW281513   0.728   4.572   3.790
59892SOL     OW81514  11.447   0.454  14.468
59892SOL    HW181515  11.440   0.378  14.410
59892SOL    HW281516  11.398   0.523  14.424
59893SOL     OW81517   7.487  14.121  14.396
59893SOL    HW181518   7.466  14.086  14.482
59893SOL    HW281519   7.578  14.094  14.381
59894SOL     OW81520   9.163   7.604  14.101
59894SOL    HW181521   9.169   7.581  14.194
59894SOL    HW281522   9.094   7.548  14.067
59895SOL     OW81523   4.302   1.115   3.484
59895SOL    HW181524   4.300   1.120   3.580
59895SOL    HW281525   4.392   1.139   3.460
59896SOL     OW81526   8.114   4.804   9.993
59896SOL    HW181527   8.153   4.890   9.975
59896SOL    HW281528   8.164   4.770  10.067
59897SOL     OW81529  14.765   8.065  10.948
59897SOL    HW181530  14.739   8.096  10.862
59897SOL    HW281531  14.851   8.103  10.964
59898SOL     OW81532  12.859   6.731   0.205
59898SOL    HW181533  12.900   6.711   0.289
59898SOL    HW281534  12.931   6.746   0.145
59899SOL     OW81535   8.374  10.645  12.418
59899SOL    HW181536   8.300  10.613  12.469
59899SOL    HW281537   8.441  10.577  12.428
59900SOL     OW81538   4.989   1.263   6.643
59900SOL    HW181539   5.053   1.234   6.707
59900SOL    HW281540   4.981   1.190   6.582
59901SOL     OW81541   0.653   0.788  12.868
59901SOL    HW181542   0.594   0.734  12.815
59901SOL    HW281543   0.741   0.757  12.846
59902SOL     OW81544   9.088   8.697   5.319
59902SOL    HW181545   9.122   8.608   5.330
59902SOL    HW281546   9.079   8.708   5.224
59903SOL     OW81547   8.663   6.071  12.965
59903SOL    HW181548   8.581   6.090  13.012
59903SOL    HW281549   8.673   6.144  12.904
59904SOL     OW81550   9.748   8.757  12.638
59904SOL    HW181551   9.677   8.788  12.695
59904SOL    HW281552   9.750   8.662  12.651
59905SOL     OW81553   7.547   3.823   2.486
59905SOL    HW181554   7.512   3.796   2.571
59905SOL    HW281555   7.471   3.854   2.437
59906SOL     OW81556   7.950   9.669  13.429
59906SOL    HW181557   7.971   9.578  13.448
59906SOL    HW281558   7.925   9.669  13.336
59907SOL     OW81559   2.856  10.982  12.479
59907SOL    HW181560   2.818  10.895  12.483
59907SOL    HW281561   2.918  10.985  12.552
59908SOL     OW81562  10.215   9.787  11.307
59908SOL    HW181563  10.308   9.772  11.292
59908SOL    HW281564  10.212   9.848  11.380
59909SOL     OW81565   1.297   0.600   4.496
59909SOL    HW181566   1.347   0.561   4.568
59909SOL    HW281567   1.252   0.526   4.455
59910SOL     OW81568   2.994   4.728   3.619
59910SOL    HW181569   2.951   4.667   3.679
59910SOL    HW281570   2.954   4.812   3.639
59911SOL     OW81571   3.055  10.789   2.647
59911SOL    HW181572   3.044  10.719   2.711
59911SOL    HW281573   3.060  10.869   2.699
59912SOL     OW81574  14.030   3.218   9.192
59912SOL    HW181575  13.982   3.263   9.262
59912SOL    HW281576  14.002   3.127   9.199
59913SOL     OW81577  10.065   6.596   8.701
59913SOL    HW181578  10.135   6.538   8.733
59913SOL    HW281579  10.098   6.628   8.617
59914SOL     OW81580   3.134   1.398   9.636
59914SOL    HW181581   3.097   1.348   9.563
59914SOL    HW281582   3.069   1.390   9.706
59915SOL     OW81583   7.291   3.875  12.474
59915SOL    HW181584   7.264   3.942  12.537
59915SOL    HW281585   7.383   3.894  12.456
59916SOL     OW81586   5.229   9.125  10.798
59916SOL    HW181587   5.274   9.053  10.842
59916SOL    HW281588   5.205   9.089  10.712
59917SOL     OW81589   7.539   5.812  10.139
59917SOL    HW181590   7.515   5.875  10.071
59917SOL    HW281591   7.459   5.796  10.188
59918SOL     OW81592  10.474   1.147  14.018
59918SOL    HW181593  10.384   1.135  14.048
59918SOL    HW281594  10.525   1.086  14.072
59919SOL     OW81595   5.045   0.168   2.617
59919SOL    HW181596   4.961   0.199   2.585
59919SOL    HW281597   5.093   0.248   2.640
59920SOL     OW81598   8.056   2.556  11.932
59920SOL    HW181599   7.969   2.594  11.937
59920SOL    HW281600   8.115   2.631  11.926
59921SOL     OW81601   8.755  13.539  12.351
59921SOL    HW181602   8.824  13.472  12.345
59921SOL    HW281603   8.681  13.502  12.303
59922SOL     OW81604   7.487  12.480  10.422
59922SOL    HW181605   7.456  12.391  10.436
59922SOL    HW281606   7.500  12.515  10.510
59923SOL     OW81607  11.956   4.378   5.934
59923SOL    HW181608  11.874   4.395   5.887
59923SOL    HW281609  11.949   4.431   6.014
59924SOL     OW81610   4.886   2.506   8.191
59924SOL    HW181611   4.980   2.524   8.198
59924SOL    HW281612   4.868   2.441   8.259
59925SOL     OW81613   0.273   8.517  12.411
59925SOL    HW181614   0.224   8.435  12.424
59925SOL    HW281615   0.214   8.573  12.362
59926SOL     OW81616  13.009   4.256   0.849
59926SOL    HW181617  12.953   4.183   0.823
59926SOL    HW281618  12.948   4.328   0.866
59927SOL     OW81619   3.257   4.322   9.708
59927SOL    HW181620   3.260   4.336   9.803
59927SOL    HW281621   3.301   4.239   9.694
59928SOL     OW81622   6.562   9.920  14.147
59928SOL    HW181623   6.579  10.006  14.107
59928SOL    HW281624   6.487   9.886  14.098
59929SOL     OW81625   2.852   1.936  13.811
59929SOL    HW181626   2.783   1.874  13.787
59929SOL    HW281627   2.896   1.956  13.728
59930SOL     OW81628   1.225   5.537   6.156
59930SOL    HW181629   1.151   5.582   6.196
59930SOL    HW281630   1.186   5.462   6.110
59931SOL     OW81631   1.901   8.046   7.056
59931SOL    HW181632   1.899   8.117   6.991
59931SOL    HW281633   1.863   8.085   7.134
59932SOL     OW81634   4.347  10.850  13.411
59932SOL    HW181635   4.420  10.787  13.417
59932SOL    HW281636   4.285  10.809  13.352
59933SOL     OW81637   9.915   5.526   6.913
59933SOL    HW181638   9.895   5.565   6.828
59933SOL    HW281639  10.010   5.510   6.910
59934SOL     OW81640  12.157  12.997  10.214
59934SOL    HW181641  12.166  12.981  10.307
59934SOL    HW281642  12.234  12.956  10.174
59935SOL     OW81643  12.125  14.630   1.032
59935SOL    HW181644  12.062  14.691   1.071
59935SOL    HW281645  12.180  14.602   1.105
59936SOL     OW81646   8.639  12.533   9.238
59936SOL    HW181647   8.711  12.592   9.259
59936SOL    HW281648   8.675  12.445   9.256
59937SOL     OW81649   3.314   8.537   5.884
59937SOL    HW181650   3.241   8.479   5.906
59937SOL    HW281651   3.375   8.528   5.957
59938SOL     OW81652  14.430  11.397   3.871
59938SOL    HW181653  14.509  11.350   3.845
59938SOL    HW281654  14.382  11.334   3.925
59939SOL     OW81655  11.066   8.113   7.750
59939SOL    HW181656  11.110   8.156   7.677
59939SOL    HW281657  11.124   8.041   7.774
59940SOL     OW81658   1.661   6.628   5.921
59940SOL    HW181659   1.610   6.546   5.923
59940SOL    HW281660   1.600   6.694   5.954
59941SOL     OW81661   4.674  12.634   8.932
59941SOL    HW181662   4.590  12.618   8.889
59941SOL    HW281663   4.739  12.594   8.874
59942SOL     OW81664  10.000   7.219   0.056
59942SOL    HW181665   9.956   7.207  14.853
59942SOL    HW281666  10.080   7.267   0.035
59943SOL     OW81667  13.971   3.112  14.774
59943SOL    HW181668  14.029   3.160  14.715
59943SOL    HW281669  13.986   3.020  14.754
59944SOL     OW81670   0.054  10.618  12.780
59944SOL    HW181671   0.104  10.627  12.700
59944SOL    HW281672   0.073  10.530  12.811
59945SOL     OW81673   8.359   7.963   7.513
59945SOL    HW181674   8.448   7.970   7.547
59945SOL    HW281675   8.306   7.939   7.589
59946SOL     OW81676  14.319   5.767   2.683
59946SOL    HW181677  14.305   5.830   2.612
59946SOL    HW281678  14.317   5.820   2.763
59947SOL     OW81679   4.856   6.331   4.118
59947SOL    HW181680   4.889   6.249   4.155
59947SOL    HW281681   4.902   6.400   4.166
59948SOL     OW81682   2.426  12.166  12.338
59948SOL    HW181683   2.377  12.087  12.359
59948SOL    HW281684   2.406  12.183  12.246
59949SOL     OW81685   6.703   4.161   0.328
59949SOL    HW181686   6.621   4.116   0.350
59949SOL    HW281687   6.758   4.149   0.406
59950SOL     OW81688  11.144   9.570   7.287
59950SOL    HW181689  11.237   9.586   7.272
59950SOL    HW281690  11.101   9.599   7.206
59951SOL     OW81691  11.714   5.320   0.857
59951SOL    HW181692  11.647   5.385   0.837
59951SOL    HW281693  11.796   5.362   0.829
59952SOL     OW81694  13.305   3.980   9.726
59952SOL    HW181695  13.361   3.954   9.653
59952SOL    HW281696  13.219   3.943   9.704
59953SOL     OW81697   8.365  14.167   9.659
59953SOL    HW181698   8.326  14.124   9.734
59953SOL    HW281699   8.454  14.130   9.654
59954SOL     OW81700   7.713   2.951   1.955
59954SOL    HW181701   7.623   2.937   1.924
59954SOL    HW281702   7.704   2.962   2.050
59955SOL     OW81703   7.613   5.919   5.914
59955SOL    HW181704   7.583   5.940   5.826
59955SOL    HW281705   7.688   5.861   5.900
59956SOL     OW81706   1.290  10.632   0.224
59956SOL    HW181707   1.221  10.695   0.245
59956SOL    HW281708   1.303  10.582   0.304
59957SOL     OW81709  13.209  14.629   0.945
59957SOL    HW181710  13.125  14.651   0.986
59957SOL    HW281711  13.196  14.647   0.852
59958SOL     OW81712  14.608  11.705   4.588
59958SOL    HW181713  14.668  11.749   4.648
59958SOL    HW281714  14.665  11.665   4.522
59959SOL     OW81715  14.410   5.919   4.395
59959SOL    HW181716  14.458   6.001   4.403
59959SOL    HW281717  14.318   5.944   4.404
59960SOL     OW81718   6.178  12.100  11.421
59960SOL    HW181719   6.148  12.011  11.400
59960SOL    HW281720   6.209  12.094  11.511
59961SOL     OW81721   6.893   8.608   6.639
59961SOL    HW181722   6.813   8.645   6.602
59961SOL    HW281723   6.879   8.513   6.636
59962SOL     OW81724  13.714   4.163   3.929
59962SOL    HW181725  13.785   4.144   3.990
59962SOL    HW281726  13.722   4.257   3.912
59963SOL     OW81727  10.684   4.742  10.489
59963SOL    HW181728  10.695   4.818  10.546
59963SOL    HW281729  10.768   4.733  10.444
59964SOL     OW81730   4.992  13.475  10.488
59964SOL    HW181731   5.064  13.458  10.427
59964SOL    HW281732   4.969  13.567  10.472
59965SOL     OW81733  10.523   2.221  13.272
59965SOL    HW181734  10.597   2.252  13.324
59965SOL    HW281735  10.559   2.204  13.185
59966SOL     OW81736   6.839   8.999   9.576
59966SOL    HW181737   6.828   8.925   9.515
59966SOL    HW281738   6.856   8.958   9.660
59967SOL     OW81739   8.003   8.212  11.704
59967SOL    HW181740   7.964   8.268  11.637
59967SOL    HW281741   7.974   8.123  11.681
59968SOL     OW81742   5.575   7.458   2.488
59968SOL    HW181743   5.505   7.421   2.435
59968SOL    HW281744   5.530   7.498   2.562
59969SOL     OW81745  13.859   4.926   3.332
59969SOL    HW181746  13.869   4.966   3.419
59969SOL    HW281747  13.905   4.986   3.273
59970SOL     OW81748  11.741   5.660   9.125
59970SOL    HW181749  11.695   5.629   9.047
59970SOL    HW281750  11.683   5.638   9.197
59971SOL     OW81751  13.705   0.812   1.937
59971SOL    HW181752  13.732   0.774   1.853
59971SOL    HW281753  13.757   0.766   2.002
59972SOL     OW81754   9.396   3.823   7.072
59972SOL    HW181755   9.430   3.794   6.987
59972SOL    HW281756   9.438   3.908   7.088
59973SOL     OW81757   6.448   0.973   1.723
59973SOL    HW181758   6.541   0.950   1.729
59973SOL    HW281759   6.403   0.901   1.766
59974SOL     OW81760  10.634   4.648   7.563
59974SOL    HW181761  10.615   4.555   7.569
59974SOL    HW281762  10.576   4.680   7.494
59975SOL     OW81763   9.953   8.711  14.054
59975SOL    HW181764   9.962   8.687  14.146
59975SOL    HW281765  10.042   8.733  14.026
59976SOL     OW81766   4.353  12.524   1.823
59976SOL    HW181767   4.292  12.454   1.844
59976SOL    HW281768   4.392  12.497   1.739
59977SOL     OW81769   6.410  14.393   8.858
59977SOL    HW181770   6.342  14.460   8.853
59977SOL    HW281771   6.414  14.356   8.770
59978SOL     OW81772   2.854   7.374   3.217
59978SOL    HW181773   2.903   7.426   3.280
59978SOL    HW281774   2.919   7.313   3.180
59979SOL     OW81775   3.784   9.918   8.107
59979SOL    HW181776   3.823   9.857   8.044
59979SOL    HW281777   3.789  10.003   8.064
59980SOL     OW81778   4.177   5.223   5.418
59980SOL    HW181779   4.121   5.295   5.446
59980SOL    HW281780   4.116   5.155   5.389
59981SOL     OW81781  12.346   2.807   7.863
59981SOL    HW181782  12.329   2.775   7.775
59981SOL    HW281783  12.395   2.737   7.905
59982SOL     OW81784   2.541   5.737  11.462
59982SOL    HW181785   2.480   5.708  11.531
59982SOL    HW281786   2.484   5.772  11.393
59983SOL     OW81787   4.987   0.500  12.372
59983SOL    HW181788   4.921   0.488  12.304
59983SOL    HW281789   5.006   0.593  12.372
59984SOL     OW81790   0.520  12.428  10.777
59984SOL    HW181791   0.474  12.426  10.861
59984SOL    HW281792   0.569  12.345  10.775
59985SOL     OW81793   4.726  14.554   3.783
59985SOL    HW181794   4.670  14.546   3.707
59985SOL    HW281795   4.677  14.610   3.844
59986SOL     OW81796   4.498   4.301   5.070
59986SOL    HW181797   4.483   4.235   5.001
59986SOL    HW281798   4.592   4.318   5.065
59987SOL     OW81799  12.293   0.287  14.519
59987SOL    HW181800  12.333   0.210  14.560
59987SOL    HW281801  12.367   0.337  14.485
59988SOL     OW81802   4.099   4.797   0.064
59988SOL    HW181803   4.064   4.868   0.117
59988SOL    HW281804   4.171   4.761   0.115
59989SOL     OW81805   5.930  10.504   0.368
59989SOL    HW181806   5.978  10.575   0.409
59989SOL    HW281807   5.974  10.424   0.397
59990SOL     OW81808  14.232  12.638   4.942
59990SOL    HW181809  14.311  12.676   4.903
59990SOL    HW281810  14.172  12.713   4.951
59991SOL     OW81811   9.028  13.985   1.747
59991SOL    HW181812   9.041  13.897   1.782
59991SOL    HW281813   8.966  14.026   1.806
59992SOL     OW81814   7.411   3.596  12.233
59992SOL    HW181815   7.467   3.621  12.159
59992SOL    HW281816   7.472   3.586  12.306
59993SOL     OW81817   3.660  11.570   1.456
59993SOL    HW181818   3.621  11.534   1.536
59993SOL    HW281819   3.644  11.504   1.389
59994SOL     OW81820   0.567  13.989   1.274
59994SOL    HW181821   0.485  13.947   1.302
59994SOL    HW281822   0.581  14.060   1.336
59995SOL     OW81823  13.615   7.985   5.658
59995SOL    HW181824  13.599   7.905   5.707
59995SOL    HW281825  13.670   7.958   5.584
59996SOL     OW81826  11.367   1.539   2.441
59996SOL    HW181827  11.325   1.601   2.500
59996SOL    HW281828  11.386   1.591   2.362
59997SOL     OW81829   9.031  13.383   4.337
59997SOL    HW181830   9.126  13.386   4.328
59997SOL    HW281831   9.004  13.310   4.281
59998SOL     OW81832  12.296   8.959   4.498
59998SOL    HW181833  12.237   8.935   4.570
59998SOL    HW281834  12.383   8.960   4.539
59999SOL     OW81835   0.335   0.832  11.854
59999SOL    HW181836   0.345   0.775  11.930
59999SOL    HW281837   0.418   0.879  11.847
60000SOL     OW81838   0.174   7.585   7.130
60000SOL    HW181839   0.208   7.549   7.048
60000SOL    HW281840   0.081   7.563   7.130
60001SOL     OW81841  11.407   8.186   0.386
60001SOL    HW181842  11.352   8.242   0.442
60001SOL    HW281843  11.490   8.233   0.382
60002SOL     OW81844   6.452   0.389   0.092
60002SOL    HW181845   6.485   0.391   0.002
60002SOL    HW281846   6.394   0.465   0.098
60003SOL     OW81847   6.313   8.994   9.259
60003SOL    HW181848   6.365   9.052   9.203
60003SOL    HW281849   6.239   9.048   9.286
60004SOL     OW81850   6.305  10.519   6.488
60004SOL    HW181851   6.390  10.479   6.473
60004SOL    HW281852   6.289  10.510   6.582
60005SOL     OW81853   6.908  12.554   8.351
60005SOL    HW181854   6.934  12.556   8.443
60005SOL    HW281855   6.813  12.543   8.353
60006SOL     OW81856  14.702  14.048  13.847
60006SOL    HW181857  14.618  14.078  13.884
60006SOL    HW281858  14.681  13.964  13.806
60007SOL     OW81859  10.097   9.090   0.823
60007SOL    HW181860  10.012   9.134   0.834
60007SOL    HW281861  10.154   9.133   0.888
60008SOL     OW81862   1.265  10.254   1.546
60008SOL    HW181863   1.243  10.271   1.455
60008SOL    HW281864   1.361  10.256   1.548
60009SOL     OW81865   6.548   8.121   0.006
60009SOL    HW181866   6.597   8.046   0.039
60009SOL    HW281867   6.577   8.194   0.061
60010SOL     OW81868   9.888   1.139   0.825
60010SOL    HW181869   9.831   1.122   0.749
60010SOL    HW281870   9.834   1.116   0.900
60011SOL     OW81871   0.854   1.548   6.809
60011SOL    HW181872   0.807   1.585   6.734
60011SOL    HW281873   0.846   1.614   6.877
60012SOL     OW81874   5.028   6.169   7.020
60012SOL    HW181875   4.995   6.110   6.952
60012SOL    HW281876   4.953   6.224   7.043
60013SOL     OW81877   9.926   4.259   6.355
60013SOL    HW181878   9.934   4.258   6.260
60013SOL    HW281879  10.015   4.275   6.387
60014SOL     OW81880   8.883  10.330  13.578
60014SOL    HW181881   8.861  10.361  13.490
60014SOL    HW281882   8.896  10.409  13.630
60015SOL     OW81883   1.069   6.664   1.407
60015SOL    HW181884   0.998   6.600   1.407
60015SOL    HW281885   1.149   6.613   1.415
60016SOL     OW81886   5.421   9.736   6.768
60016SOL    HW181887   5.340   9.744   6.718
60016SOL    HW281888   5.424   9.644   6.794
60017SOL     OW81889   1.026   1.081  14.170
60017SOL    HW181890   1.109   1.113  14.204
60017SOL    HW281891   1.012   1.131  14.090
60018SOL     OW81892  12.515   3.287   8.045
60018SOL    HW181893  12.552   3.212   7.999
60018SOL    HW281894  12.431   3.303   8.002
60019SOL     OW81895   1.580   3.506   9.926
60019SOL    HW181896   1.538   3.424   9.901
60019SOL    HW281897   1.513   3.554   9.974
60020SOL     OW81898  14.347   6.047  11.171
60020SOL    HW181899  14.334   5.990  11.095
60020SOL    HW281900  14.321   6.134  11.141
60021SOL     OW81901  12.611  12.401   8.942
60021SOL    HW181902  12.630  12.376   8.852
60021SOL    HW281903  12.670  12.473   8.961
60022SOL     OW81904   1.393   1.614  13.566
60022SOL    HW181905   1.339   1.669  13.622
60022SOL    HW281906   1.435   1.675  13.505
60023SOL     OW81907  12.565  12.570   4.674
60023SOL    HW181908  12.629  12.512   4.715
60023SOL    HW281909  12.540  12.632   4.743
60024SOL     OW81910   2.505   7.246   5.522
60024SOL    HW181911   2.432   7.229   5.461
60024SOL    HW281912   2.521   7.340   5.514
60025SOL     OW81913  10.022   4.765   8.495
60025SOL    HW181914  10.025   4.840   8.554
60025SOL    HW281915  10.018   4.689   8.554
60026SOL     OW81916  12.408   2.412   1.924
60026SOL    HW181917  12.352   2.486   1.899
60026SOL    HW281918  12.469   2.448   1.988
60027SOL     OW81919   2.093   0.557   5.804
60027SOL    HW181920   2.166   0.505   5.771
60027SOL    HW281921   2.131   0.641   5.827
60028SOL     OW81922  11.884  13.978  10.552
60028SOL    HW181923  11.865  14.019  10.467
60028SOL    HW281924  11.943  13.906  10.531
60029SOL     OW81925   2.840   9.576  12.615
60029SOL    HW181926   2.826   9.626  12.535
60029SOL    HW281927   2.930   9.596  12.641
60030SOL     OW81928  13.465   7.573   5.541
60030SOL    HW181929  13.556   7.590   5.568
60030SOL    HW281930  13.454   7.479   5.552
60031SOL     OW81931   7.792   3.808   7.895
60031SOL    HW181932   7.722   3.745   7.906
60031SOL    HW281933   7.815   3.834   7.985
60032SOL     OW81934  14.874   7.406   8.888
60032SOL    HW181935  14.821   7.326   8.883
60032SOL    HW281936   0.001   7.435   8.798
60033SOL     OW81937   3.852   8.167   0.161
60033SOL    HW181938   3.858   8.122   0.246
60033SOL    HW281939   3.768   8.212   0.164
60034SOL     OW81940   0.668   3.756   8.071
60034SOL    HW181941   0.680   3.832   8.128
60034SOL    HW281942   0.590   3.712   8.105
60035SOL     OW81943   6.774   3.607   3.267
60035SOL    HW181944   6.786   3.618   3.361
60035SOL    HW281945   6.836   3.538   3.242
60036SOL     OW81946   8.420  13.389   8.884
60036SOL    HW181947   8.435  13.300   8.852
60036SOL    HW281948   8.474  13.445   8.828
60037SOL     OW81949   3.295   0.604  12.999
60037SOL    HW181950   3.226   0.537  12.997
60037SOL    HW281951   3.256   0.680  12.956
60038SOL     OW81952   4.193  12.744  13.739
60038SOL    HW181953   4.207  12.821  13.685
60038SOL    HW281954   4.278  12.726  13.779
60039SOL     OW81955  10.745  10.122   4.862
60039SOL    HW181956  10.671  10.095   4.806
60039SOL    HW281957  10.816  10.140   4.800
60040SOL     OW81958   8.407   4.369   6.343
60040SOL    HW181959   8.489   4.329   6.314
60040SOL    HW281960   8.410   4.458   6.307
60041SOL     OW81961   1.591   5.316   6.482
60041SOL    HW181962   1.544   5.399   6.490
60041SOL    HW281963   1.681   5.337   6.505
60042SOL     OW81964   5.386   5.424   4.995
60042SOL    HW181965   5.482   5.422   4.990
60042SOL    HW281966   5.366   5.382   5.079
60043SOL     OW81967  14.051   2.933  11.772
60043SOL    HW181968  13.986   2.901  11.834
60043SOL    HW281969  14.017   3.018  11.743
60044SOL     OW81970   5.935   8.230  12.094
60044SOL    HW181971   5.993   8.192  12.160
60044SOL    HW281972   5.854   8.180  12.103
60045SOL     OW81973   6.326   3.957  12.945
60045SOL    HW181974   6.360   3.939  13.033
60045SOL    HW281975   6.302   3.871  12.911
60046SOL     OW81976   6.184   5.090   9.233
60046SOL    HW181977   6.245   5.035   9.184
60046SOL    HW281978   6.112   5.031   9.256
60047SOL     OW81979   2.409   9.863  11.796
60047SOL    HW181980   2.449   9.930  11.852
60047SOL    HW281981   2.366   9.913  11.727
60048SOL     OW81982  14.500  14.624  12.772
60048SOL    HW181983  14.423  14.659  12.816
60048SOL    HW281984  14.489  14.647  12.680
60049SOL     OW81985   8.159   3.870   2.344
60049SOL    HW181986   8.124   3.793   2.390
60049SOL    HW281987   8.180   3.838   2.257
60050SOL     OW81988   2.447  11.465   1.263
60050SOL    HW181989   2.528  11.513   1.282
60050SOL    HW281990   2.387  11.491   1.333
60051SOL     OW81991   0.570  14.239   9.800
60051SOL    HW181992   0.507  14.270   9.734
60051SOL    HW281993   0.520  14.239   9.882
60052SOL     OW81994  14.863  12.315  12.151
60052SOL    HW181995  14.793  12.326  12.087
60052SOL    HW281996  14.843  12.232  12.194
60053SOL     OW81997   6.018  11.563   6.465
60053SOL    HW181998   5.961  11.529   6.534
60053SOL    HW281999   6.072  11.489   6.440
60054SOL     OW82000   8.643  12.132   7.269
60054SOL    HW182001   8.587  12.118   7.193
60054SOL    HW282002   8.731  12.109   7.238
60055SOL     OW82003  10.963  12.066   8.630
60055SOL    HW182004  11.018  11.988   8.620
60055SOL    HW282005  10.949  12.073   8.725
60056SOL     OW82006   5.388   8.030   6.126
60056SOL    HW182007   5.404   8.041   6.220
60056SOL    HW282008   5.440   8.099   6.085
60057SOL     OW82009   0.769  13.030  13.489
60057SOL    HW182010   0.674  13.020  13.491
60057SOL    HW282011   0.785  13.115  13.530
60058SOL     OW82012  13.737  10.124  14.177
60058SOL    HW182013  13.663  10.121  14.117
60058SOL    HW282014  13.699  10.106  14.264
60059SOL     OW82015   7.591   5.354  14.269
60059SOL    HW182016   7.538   5.422  14.227
60059SOL    HW282017   7.526   5.295  14.310
60060SOL     OW82018  12.279   0.153  10.760
60060SOL    HW182019  12.199   0.115  10.794
60060SOL    HW282020  12.298   0.226  10.819
60061SOL     OW82021  10.672  12.198   7.711
60061SOL    HW182022  10.706  12.111   7.694
60061SOL    HW282023  10.675  12.208   7.806
60062SOL     OW82024   9.503   3.364   7.789
60062SOL    HW182025   9.474   3.400   7.706
60062SOL    HW282026   9.541   3.439   7.836
60063SOL     OW82027  14.334   0.581   2.485
60063SOL    HW182028  14.317   0.609   2.575
60063SOL    HW282029  14.309   0.656   2.432
60064SOL     OW82030  13.971  11.095  10.833
60064SOL    HW182031  14.000  11.108  10.923
60064SOL    HW282032  14.052  11.086  10.783
60065SOL     OW82033   0.113  12.035   6.733
60065SOL    HW182034   0.043  11.973   6.751
60065SOL    HW282035   0.173  11.987   6.676
60066SOL     OW82036   4.609   5.762   6.010
60066SOL    HW182037   4.585   5.823   6.080
60066SOL    HW282038   4.527   5.744   5.965
60067SOL     OW82039  14.109   1.881   2.545
60067SOL    HW182040  14.081   1.973   2.553
60067SOL    HW282041  14.027   1.832   2.542
60068SOL     OW82042  10.014   9.405  11.019
60068SOL    HW182043   9.987   9.391  10.928
60068SOL    HW282044  10.037   9.498  11.023
60069SOL     OW82045   3.924  10.646   2.149
60069SOL    HW182046   4.008  10.689   2.162
60069SOL    HW282047   3.938  10.589   2.074
60070SOL     OW82048   3.379   5.972   3.572
60070SOL    HW182049   3.391   5.928   3.488
60070SOL    HW282050   3.322   5.913   3.622
60071SOL     OW82051   2.942   7.499   6.207
60071SOL    HW182052   2.864   7.469   6.160
60071SOL    HW282053   2.997   7.421   6.215
60072SOL     OW82054   1.390   1.397   7.841
60072SOL    HW182055   1.382   1.302   7.832
60072SOL    HW282056   1.306   1.432   7.810
60073SOL     OW82057   8.230   4.096   0.730
60073SOL    HW182058   8.311   4.120   0.686
60073SOL    HW282059   8.214   4.167   0.792
60074SOL     OW82060   8.839   4.471   6.833
60074SOL    HW182061   8.887   4.424   6.902
60074SOL    HW282062   8.767   4.514   6.879
60075SOL     OW82063  14.540  14.379  13.132
60075SOL    HW182064  14.555  14.466  13.170
60075SOL    HW282065  14.472  14.393  13.066
60076SOL     OW82066   6.531   6.978  12.560
60076SOL    HW182067   6.564   6.896  12.598
60076SOL    HW282068   6.589   6.994  12.486
60077SOL     OW82069  12.186   2.171   3.307
60077SOL    HW182070  12.202   2.077   3.300
60077SOL    HW282071  12.209   2.205   3.220
60078SOL     OW82072   7.543   9.175   6.227
60078SOL    HW182073   7.512   9.196   6.315
60078SOL    HW282074   7.638   9.168   6.235
60079SOL     OW82075   9.836  11.832   8.299
60079SOL    HW182076   9.775  11.824   8.373
60079SOL    HW282077   9.823  11.752   8.249
60080SOL     OW82078   7.671   1.131   9.183
60080SOL    HW182079   7.759   1.099   9.202
60080SOL    HW282080   7.647   1.184   9.259
60081SOL     OW82081  11.315  10.729   4.020
60081SOL    HW182082  11.382  10.699   3.957
60081SOL    HW282083  11.246  10.766   3.965
60082SOL     OW82084   2.713  14.340   6.236
60082SOL    HW182085   2.783  14.389   6.193
60082SOL    HW282086   2.634  14.391   6.219
60083SOL     OW82087   4.221  11.631   8.959
60083SOL    HW182088   4.245  11.682   9.036
60083SOL    HW282089   4.252  11.683   8.885
60084SOL     OW82090  10.667   9.661   6.731
60084SOL    HW182091  10.646   9.731   6.792
60084SOL    HW282092  10.599   9.667   6.663
60085SOL     OW82093   9.848   4.269   9.465
60085SOL    HW182094   9.804   4.196   9.422
60085SOL    HW282095   9.940   4.259   9.442
60086SOL     OW82096   2.213   6.509   7.249
60086SOL    HW182097   2.148   6.563   7.294
60086SOL    HW282098   2.263   6.468   7.319
60087SOL     OW82099  14.712   8.169   0.088
60087SOL    HW182100  14.679   8.081   0.106
60087SOL    HW282101  14.717   8.210   0.174
60088SOL     OW82102  14.690  12.425   4.420
60088SOL    HW182103  14.724  12.514   4.411
60088SOL    HW282104  14.760  12.369   4.389
60089SOL     OW82105   8.821   3.853  10.026
60089SOL    HW182106   8.867   3.769  10.031
60089SOL    HW282107   8.873   3.906   9.965
60090SOL     OW82108  11.529   0.091  12.931
60090SOL    HW182109  11.574   0.158  12.879
60090SOL    HW282110  11.526   0.014  12.873
60091SOL     OW82111   9.700   7.625  13.994
60091SOL    HW182112   9.732   7.705  13.950
60091SOL    HW282113   9.729   7.554  13.937
60092SOL     OW82114   6.827  10.175  14.314
60092SOL    HW182115   6.823  10.121  14.235
60092SOL    HW282116   6.916  10.209  14.316
60093SOL     OW82117   9.853   3.352  14.327
60093SOL    HW182118   9.834   3.426  14.384
60093SOL    HW282119   9.935   3.316  14.360
60094SOL     OW82120  13.461   7.157   2.066
60094SOL    HW182121  13.461   7.085   2.128
60094SOL    HW282122  13.410   7.124   1.991
60095SOL     OW82123   6.295   6.578   0.131
60095SOL    HW182124   6.278   6.629   0.051
60095SOL    HW282125   6.233   6.613   0.195
60096SOL     OW82126  12.748  13.437   9.418
60096SOL    HW182127  12.664  13.481   9.410
60096SOL    HW282128  12.813  13.507   9.411
60097SOL     OW82129   6.679  11.057   1.074
60097SOL    HW182130   6.682  11.040   0.980
60097SOL    HW282131   6.588  11.081   1.091
60098SOL     OW82132  10.236   3.992   5.817
60098SOL    HW182133  10.227   4.025   5.906
60098SOL    HW282134  10.321   3.948   5.817
60099SOL     OW82135  14.400   9.780  13.618
60099SOL    HW182136  14.374   9.769  13.710
60099SOL    HW282137  14.442   9.866  13.614
60100SOL     OW82138   7.785  12.853   3.787
60100SOL    HW182139   7.876  12.855   3.818
60100SOL    HW282140   7.747  12.935   3.818
60101SOL     OW82141   7.409  11.278  11.110
60101SOL    HW182142   7.346  11.207  11.120
60101SOL    HW282143   7.361  11.346  11.063
60102SOL     OW82144  14.660   8.576   1.121
60102SOL    HW182145  14.659   8.534   1.035
60102SOL    HW282146  14.688   8.508   1.181
60103SOL     OW82147   0.694   0.245   8.256
60103SOL    HW182148   0.741   0.319   8.217
60103SOL    HW282149   0.602   0.260   8.233
60104SOL     OW82150   9.136  11.983  12.937
60104SOL    HW182151   9.174  12.002  12.851
60104SOL    HW282152   9.042  11.989  12.924
60105SOL     OW82153   0.838   5.772   1.464
60105SOL    HW182154   0.858   5.866   1.470
60105SOL    HW282155   0.923   5.729   1.479
60106SOL     OW82156   2.838   9.990   9.371
60106SOL    HW182157   2.926   9.957   9.353
60106SOL    HW282158   2.850  10.084   9.384
60107SOL     OW82159   1.076  11.916   4.851
60107SOL    HW182160   1.028  11.922   4.933
60107SOL    HW282161   1.014  11.875   4.790
60108SOL     OW82162   2.433  14.391  11.289
60108SOL    HW182163   2.430  14.469  11.345
60108SOL    HW282164   2.356  14.399  11.233
60109SOL     OW82165   6.537  13.027  13.634
60109SOL    HW182166   6.515  13.104  13.687
60109SOL    HW282167   6.600  13.060  13.569
60110SOL     OW82168   1.961   4.695   7.532
60110SOL    HW182169   1.959   4.779   7.578
60110SOL    HW282170   2.053   4.671   7.529
60111SOL     OW82171  10.145   1.344   8.549
60111SOL    HW182172  10.086   1.376   8.481
60111SOL    HW282173  10.215   1.409   8.553
60112SOL     OW82174   2.649   6.336   8.872
60112SOL    HW182175   2.698   6.418   8.870
60112SOL    HW282176   2.638   6.317   8.965
60113SOL     OW82177   0.811   3.965   3.066
60113SOL    HW182178   0.745   4.018   3.109
60113SOL    HW282179   0.763   3.914   3.001
60114SOL     OW82180   5.550   7.468  12.338
60114SOL    HW182181   5.510   7.381  12.348
60114SOL    HW282182   5.645   7.451  12.338
60115SOL     OW82183   4.022  12.741   2.770
60115SOL    HW182184   3.961  12.815   2.767
60115SOL    HW282185   4.030  12.714   2.679
60116SOL     OW82186   8.528  10.312   2.642
60116SOL    HW182187   8.529  10.237   2.582
60116SOL    HW282188   8.500  10.275   2.726
60117SOL     OW82189   0.428  14.737   3.278
60117SOL    HW182190   0.402  14.675   3.210
60117SOL    HW282191   0.523  14.727   3.284
60118SOL     OW82192   0.669   6.148   1.667
60118SOL    HW182193   0.706   6.104   1.590
60118SOL    HW282194   0.682   6.087   1.739
60119SOL     OW82195   4.042  11.123   3.410
60119SOL    HW182196   3.969  11.099   3.353
60119SOL    HW282197   4.000  11.146   3.493
60120SOL     OW82198   0.262   8.699   1.775
60120SOL    HW182199   0.322   8.625   1.785
60120SOL    HW282200   0.175   8.660   1.770
60121SOL     OW82201   4.471   8.170  13.887
60121SOL    HW182202   4.451   8.076  13.888
60121SOL    HW282203   4.500   8.187  13.798
60122SOL     OW82204  13.819  13.989   9.877
60122SOL    HW182205  13.762  13.916   9.853
60122SOL    HW282206  13.899  13.947   9.908
60123SOL     OW82207   8.611  12.554   6.092
60123SOL    HW182208   8.579  12.644   6.086
60123SOL    HW282209   8.541  12.507   6.137
60124SOL     OW82210   6.735   3.000  10.485
60124SOL    HW182211   6.777   3.085  10.497
60124SOL    HW282212   6.676   2.992  10.560
60125SOL     OW82213   2.547   8.930  13.221
60125SOL    HW182214   2.507   9.014  13.199
60125SOL    HW282215   2.478   8.866  13.206
60126SOL     OW82216   6.214  12.301   3.880
60126SOL    HW182217   6.168  12.313   3.963
60126SOL    HW282218   6.194  12.211   3.854
60127SOL     OW82219   7.364   7.499   3.738
60127SOL    HW182220   7.293   7.480   3.676
60127SOL    HW282221   7.422   7.558   3.690
60128SOL     OW82222  11.755   1.555   4.049
60128SOL    HW182223  11.774   1.648   4.041
60128SOL    HW282224  11.789   1.531   4.135
60129SOL     OW82225   9.452  11.211  12.717
60129SOL    HW182226   9.408  11.211  12.632
60129SOL    HW282227   9.409  11.141  12.766
60130SOL     OW82228   9.298   3.168   4.637
60130SOL    HW182229   9.203   3.161   4.627
60130SOL    HW282230   9.311   3.250   4.685
60131SOL     OW82231   8.054  11.861  10.304
60131SOL    HW182232   7.967  11.897  10.287
60131SOL    HW282233   8.038  11.772  10.336
60132SOL     OW82234  14.866  13.798   8.188
60132SOL    HW182235  14.848  13.772   8.278
60132SOL    HW282236  14.826  13.884   8.179
60133SOL     OW82237  10.171   9.534   6.500
60133SOL    HW182238  10.217   9.480   6.436
60133SOL    HW282239  10.240   9.563   6.560
60134SOL     OW82240   8.487   9.096  11.048
60134SOL    HW182241   8.437   9.141  10.979
60134SOL    HW282242   8.497   9.162  11.117
60135SOL     OW82243  14.525   4.901   9.685
60135SOL    HW182244  14.486   4.863   9.607
60135SOL    HW282245  14.456   4.894   9.752
60136SOL     OW82246   9.938  12.333   9.476
60136SOL    HW182247   9.989  12.401   9.521
60136SOL    HW282248   9.875  12.304   9.541
60137SOL     OW82249   9.734   9.363   0.310
60137SOL    HW182250   9.726   9.345   0.217
60137SOL    HW282251   9.821   9.403   0.319
60138SOL     OW82252   2.574   0.318   4.980
60138SOL    HW182253   2.587   0.400   4.932
60138SOL    HW282254   2.638   0.320   5.051
60139SOL     OW82255   3.853  12.603  14.156
60139SOL    HW182256   3.863  12.508  14.159
60139SOL    HW282257   3.761  12.617  14.133
60140SOL     OW82258   8.117   2.217   9.021
60140SOL    HW182259   8.188   2.188   8.963
60140SOL    HW282260   8.122   2.313   9.019
60141SOL     OW82261   0.173   5.900  12.945
60141SOL    HW182262   0.139   5.810  12.940
60141SOL    HW282263   0.156   5.937  12.859
60142SOL     OW82264   9.246   6.230   7.672
60142SOL    HW182265   9.202   6.307   7.635
60142SOL    HW282266   9.274   6.257   7.759
60143SOL     OW82267  11.748   0.840   9.196
60143SOL    HW182268  11.749   0.897   9.272
60143SOL    HW282269  11.661   0.851   9.158
60144SOL     OW82270  13.107   2.903   2.540
60144SOL    HW182271  13.021   2.892   2.500
60144SOL    HW282272  13.090   2.904   2.634
60145SOL     OW82273   6.402  12.078   2.850
60145SOL    HW182274   6.385  12.142   2.919
60145SOL    HW282275   6.416  11.996   2.896
60146SOL     OW82276   7.277  11.237   5.864
60146SOL    HW182277   7.211  11.297   5.896
60146SOL    HW282278   7.273  11.162   5.923
60147SOL     OW82279   4.123   2.579   1.597
60147SOL    HW182280   4.178   2.572   1.675
60147SOL    HW282281   4.167   2.644   1.542
60148SOL     OW82282   1.727   9.679   6.300
60148SOL    HW182283   1.705   9.739   6.228
60148SOL    HW282284   1.690   9.721   6.378
60149SOL     OW82285  12.293   0.334   6.774
60149SOL    HW182286  12.269   0.362   6.685
60149SOL    HW282287  12.349   0.404   6.806
60150SOL     OW82288   1.451   8.253   8.988
60150SOL    HW182289   1.391   8.272   8.916
60150SOL    HW282290   1.521   8.318   8.979
60151SOL     OW82291   3.505   1.787   1.856
60151SOL    HW182292   3.595   1.817   1.847
60151SOL    HW282293   3.488   1.792   1.950
60152SOL     OW82294   5.511   9.008  12.964
60152SOL    HW182295   5.533   9.092  12.923
60152SOL    HW282296   5.595   8.963  12.972
60153SOL     OW82297  14.202   6.998   1.648
60153SOL    HW182298  14.170   6.958   1.729
60153SOL    HW282299  14.124   7.004   1.593
60154SOL     OW82300  13.785   6.617   3.526
60154SOL    HW182301  13.696   6.604   3.559
60154SOL    HW282302  13.815   6.697   3.569
60155SOL     OW82303   5.980  13.857   0.379
60155SOL    HW182304   5.894  13.874   0.416
60155SOL    HW282305   6.034  13.930   0.410
60156SOL     OW82306   6.574   1.963  14.705
60156SOL    HW182307   6.596   2.002  14.621
60156SOL    HW282308   6.529   2.032  14.753
60157SOL     OW82309   2.113   9.293  11.656
60157SOL    HW182310   2.201   9.326  11.676
60157SOL    HW282311   2.120   9.199  11.667
60158SOL     OW82312  14.751   2.654   4.663
60158SOL    HW182313  14.791   2.570   4.641
60158SOL    HW282314  14.694   2.674   4.589
60159SOL     OW82315   7.917   4.018  12.266
60159SOL    HW182316   8.011   4.014  12.250
60159SOL    HW282317   7.900   4.110  12.287
60160SOL     OW82318   2.000   8.136   9.391
60160SOL    HW182319   2.060   8.067   9.418
60160SOL    HW282320   1.931   8.090   9.343
60161SOL     OW82321   0.646   6.591  11.864
60161SOL    HW182322   0.593   6.542  11.800
60161SOL    HW282323   0.621   6.554  11.949
60162SOL     OW82324   3.239   9.601   0.716
60162SOL    HW182325   3.320   9.630   0.674
60162SOL    HW282326   3.236   9.506   0.698
60163SOL     OW82327   9.024   2.455  14.269
60163SOL    HW182328   9.092   2.521  14.283
60163SOL    HW282329   9.054   2.405  14.193
60164SOL     OW82330   4.120  10.645  14.334
60164SOL    HW182331   4.077  10.562  14.312
60164SOL    HW282332   4.139  10.685  14.249
60165SOL     OW82333  11.304  11.534  11.897
60165SOL    HW182334  11.287  11.628  11.887
60165SOL    HW282335  11.350  11.509  11.817
60166SOL     OW82336   9.573   5.522  11.987
60166SOL    HW182337   9.603   5.434  12.007
60166SOL    HW282338   9.564   5.523  11.892
60167SOL     OW82339   1.133   5.538   0.683
60167SOL    HW182340   1.064   5.556   0.619
60167SOL    HW282341   1.205   5.502   0.631
60168SOL     OW82342  12.683  13.085   7.272
60168SOL    HW182343  12.646  13.104   7.358
60168SOL    HW282344  12.711  13.170   7.239
60169SOL     OW82345   9.787   7.564   3.094
60169SOL    HW182346   9.867   7.596   3.136
60169SOL    HW282347   9.759   7.636   3.037
60170SOL     OW82348   6.057  11.279   5.195
60170SOL    HW182349   6.047  11.214   5.264
60170SOL    HW282350   6.007  11.244   5.121
60171SOL     OW82351  11.609   9.012   1.136
60171SOL    HW182352  11.572   9.003   1.224
60171SOL    HW282353  11.703   9.027   1.151
60172SOL     OW82354   4.543  10.620   8.125
60172SOL    HW182355   4.569  10.578   8.043
60172SOL    HW282356   4.609  10.688   8.139
60173SOL     OW82357  10.327  11.677   4.493
60173SOL    HW182358  10.242  11.671   4.450
60173SOL    HW282359  10.376  11.603   4.458
60174SOL     OW82360  13.825   0.263   8.222
60174SOL    HW182361  13.830   0.170   8.201
60174SOL    HW282362  13.890   0.276   8.291
60175SOL     OW82363   9.671  12.565  11.243
60175SOL    HW182364   9.716  12.648  11.224
60175SOL    HW282365   9.664  12.522  11.158
60176SOL     OW82366   5.531   5.640   1.122
60176SOL    HW182367   5.532   5.662   1.215
60176SOL    HW282368   5.519   5.545   1.120
60177SOL     OW82369  12.878  10.310   0.992
60177SOL    HW182370  12.966  10.295   1.025
60177SOL    HW282371  12.881  10.286   0.900
60178SOL     OW82372   2.391   4.951   5.592
60178SOL    HW182373   2.377   4.876   5.650
60178SOL    HW282374   2.474   4.931   5.548
60179SOL     OW82375   4.307   4.141   7.036
60179SOL    HW182376   4.296   4.064   6.981
60179SOL    HW282377   4.279   4.214   6.981
60180SOL     OW82378   4.186   1.714   5.889
60180SOL    HW182379   4.231   1.783   5.938
60180SOL    HW282380   4.198   1.739   5.797
60181SOL     OW82381   4.673   2.205   5.823
60181SOL    HW182382   4.759   2.172   5.797
60181SOL    HW282383   4.627   2.128   5.855
60182SOL     OW82384   4.351   1.789  11.599
60182SOL    HW182385   4.421   1.770  11.536
60182SOL    HW282386   4.393   1.783  11.685
60183SOL     OW82387  10.247  11.386  11.294
60183SOL    HW182388  10.271  11.377  11.387
60183SOL    HW282389  10.264  11.299  11.257
60184SOL     OW82390   2.237   0.974   0.345
60184SOL    HW182391   2.188   1.040   0.395
60184SOL    HW282392   2.240   1.009   0.256
60185SOL     OW82393  13.479   6.055   3.496
60185SOL    HW182394  13.383   6.054   3.489
60185SOL    HW282395  13.505   6.140   3.459
60186SOL     OW82396   7.887  12.784   5.077
60186SOL    HW182397   7.944  12.777   5.153
60186SOL    HW282398   7.799  12.787   5.113
60187SOL     OW82399   4.773   0.326  11.570
60187SOL    HW182400   4.749   0.239  11.603
60187SOL    HW282401   4.706   0.347  11.506
60188SOL     OW82402  14.057   0.086   6.945
60188SOL    HW182403  14.035   0.077   6.852
60188SOL    HW282404  14.004   0.159   6.976
60189SOL     OW82405   7.329   5.911   9.440
60189SOL    HW182406   7.335   5.849   9.367
60189SOL    HW282407   7.399   5.974   9.423
60190SOL     OW82408  14.275   7.750   4.792
60190SOL    HW182409  14.312   7.664   4.813
60190SOL    HW282410  14.230   7.737   4.708
60191SOL     OW82411   3.428   0.960  11.075
60191SOL    HW182412   3.409   0.970  11.168
60191SOL    HW282413   3.487   0.885  11.071
60192SOL     OW82414   8.137   8.999   9.730
60192SOL    HW182415   8.085   8.995   9.649
60192SOL    HW282416   8.131   8.911   9.767
60193SOL     OW82417   1.012  14.340  11.948
60193SOL    HW182418   0.996  14.344  11.853
60193SOL    HW282419   1.099  14.300  11.956
60194SOL     OW82420   9.670   8.426   5.102
60194SOL    HW182421   9.621   8.504   5.125
60194SOL    HW282422   9.653   8.414   5.008
60195SOL     OW82423  12.139  10.208   0.613
60195SOL    HW182424  12.121  10.153   0.536
60195SOL    HW282425  12.069  10.272   0.614
60196SOL     OW82426   0.791  14.000  11.022
60196SOL    HW182427   0.830  13.961  10.944
60196SOL    HW282428   0.825  13.948  11.095
60197SOL     OW82429   4.806  11.065  13.245
60197SOL    HW182430   4.821  11.157  13.270
60197SOL    HW282431   4.760  11.028  13.320
60198SOL     OW82432  14.625   4.872  14.541
60198SOL    HW182433  14.641   4.879  14.447
60198SOL    HW282434  14.710   4.890  14.582
60199SOL     OW82435   0.000   9.572  11.901
60199SOL    HW182436  14.853   9.653  11.941
60199SOL    HW282437   0.085   9.593  11.862
60200SOL     OW82438   8.879   1.777  12.514
60200SOL    HW182439   8.950   1.810  12.458
60200SOL    HW282440   8.842   1.704  12.465
60201SOL     OW82441  11.869  13.663   3.137
60201SOL    HW182442  11.910  13.595   3.191
60201SOL    HW282443  11.876  13.630   3.047
60202SOL     OW82444   5.619  13.973   5.377
60202SOL    HW182445   5.561  14.049   5.380
60202SOL    HW282446   5.672  13.985   5.299
60203SOL     OW82447   8.048   9.997   2.547
60203SOL    HW182448   7.963   9.965   2.577
60203SOL    HW282449   8.108   9.975   2.618
60204SOL     OW82450   3.112   7.082   4.290
60204SOL    HW182451   3.096   7.146   4.220
60204SOL    HW282452   3.165   7.014   4.249
60205SOL     OW82453  12.883   6.583   7.990
60205SOL    HW182454  12.801   6.631   7.994
60205SOL    HW282455  12.896   6.565   7.897
60206SOL     OW82456   2.321   4.743   9.728
60206SOL    HW182457   2.366   4.733   9.644
60206SOL    HW282458   2.337   4.660   9.774
60207SOL     OW82459   3.548   1.943   6.276
60207SOL    HW182460   3.573   1.874   6.215
60207SOL    HW282461   3.470   1.983   6.237
60208SOL     OW82462  11.759  11.559   2.598
60208SOL    HW182463  11.784  11.577   2.689
60208SOL    HW282464  11.678  11.509   2.605
60209SOL     OW82465   4.561  14.091   3.183
60209SOL    HW182466   4.612  14.010   3.174
60209SOL    HW282467   4.560  14.129   3.096
60210SOL     OW82468   3.678   8.644   5.292
60210SOL    HW182469   3.661   8.707   5.223
60210SOL    HW282470   3.730   8.692   5.357
60211SOL     OW82471   6.606  14.122  14.088
60211SOL    HW182472   6.518  14.083  14.095
60211SOL    HW282473   6.665  14.051  14.113
60212SOL     OW82474   2.470   4.139  10.068
60212SOL    HW182475   2.405   4.068  10.066
60212SOL    HW282476   2.426   4.210  10.116
60213SOL     OW82477   3.261   0.513  14.588
60213SOL    HW182478   3.267   0.501  14.683
60213SOL    HW282479   3.293   0.431  14.551
60214SOL     OW82480   8.590   6.175   1.818
60214SOL    HW182481   8.632   6.225   1.888
60214SOL    HW282482   8.515   6.228   1.792
60215SOL     OW82483   3.937   4.588   7.221
60215SOL    HW182484   3.987   4.561   7.144
60215SOL    HW282485   3.944   4.514   7.282
60216SOL     OW82486  10.768   4.653   4.695
60216SOL    HW182487  10.777   4.655   4.600
60216SOL    HW282488  10.838   4.595   4.725
60217SOL     OW82489   4.683   6.074  12.520
60217SOL    HW182490   4.704   6.134  12.592
60217SOL    HW282491   4.672   5.989  12.563
60218SOL     OW82492   0.942   0.385   6.991
60218SOL    HW182493   0.898   0.370   7.075
60218SOL    HW282494   0.908   0.468   6.960
60219SOL     OW82495   3.350   9.904  13.429
60219SOL    HW182496   3.275   9.945  13.385
60219SOL    HW282497   3.426   9.953  13.398
60220SOL     OW82498   3.949   1.445   9.327
60220SOL    HW182499   3.909   1.363   9.298
60220SOL    HW282500   3.925   1.509   9.260
60221SOL     OW82501   5.256   5.925  11.205
60221SOL    HW182502   5.284   6.015  11.220
60221SOL    HW282503   5.229   5.924  11.113
60222SOL     OW82504   4.042   0.800   9.256
60222SOL    HW182505   4.052   0.881   9.307
60222SOL    HW282506   4.027   0.732   9.321
60223SOL     OW82507  13.774   8.710   0.999
60223SOL    HW182508  13.792   8.657   1.077
60223SOL    HW282509  13.744   8.794   1.034
60224SOL     OW82510   0.386  12.512   4.829
60224SOL    HW182511   0.380  12.584   4.767
60224SOL    HW282512   0.346  12.438   4.782
60225SOL     OW82513  12.574   4.515   7.064
60225SOL    HW182514  12.623   4.466   7.130
60225SOL    HW282515  12.482   4.505   7.088
60226SOL     OW82516   9.829  12.452   3.312
60226SOL    HW182517   9.816  12.436   3.219
60226SOL    HW282518   9.746  12.427   3.353
60227SOL     OW82519  10.015  12.083   7.798
60227SOL    HW182520  10.040  12.049   7.884
60227SOL    HW282521  10.083  12.147   7.777
60228SOL     OW82522   6.562  12.806  12.978
60228SOL    HW182523   6.505  12.758  12.918
60228SOL    HW282524   6.520  12.891  12.989
60229SOL     OW82525  12.479   3.839   5.543
60229SOL    HW182526  12.529   3.908   5.498
60229SOL    HW282527  12.436   3.885   5.615
60230SOL     OW82528   9.234   7.877  14.417
60230SOL    HW182529   9.263   7.791  14.388
60230SOL    HW282530   9.270   7.938  14.353
60231SOL     OW82531  12.128  14.271  10.476
60231SOL    HW182532  12.066  14.235  10.413
60231SOL    HW282533  12.132  14.206  10.546
60232SOL     OW82534  14.011  14.119   5.569
60232SOL    HW182535  14.017  14.065   5.490
60232SOL    HW282536  14.027  14.209   5.538
60233SOL     OW82537   3.314   3.343  10.569
60233SOL    HW182538   3.329   3.407  10.639
60233SOL    HW282539   3.381   3.276  10.583
60234SOL     OW82540   6.848  10.243   8.909
60234SOL    HW182541   6.922  10.233   8.968
60234SOL    HW282542   6.813  10.330   8.929
60235SOL     OW82543   1.420   3.260  13.409
60235SOL    HW182544   1.353   3.226  13.350
60235SOL    HW282545   1.385   3.344  13.439
60236SOL     OW82546   7.828   8.982  11.358
60236SOL    HW182547   7.813   9.074  11.378
60236SOL    HW282548   7.741   8.944  11.352
60237SOL     OW82549  10.202  12.152   1.684
60237SOL    HW182550  10.130  12.212   1.664
60237SOL    HW282551  10.180  12.071   1.637
60238SOL     OW82552   1.876   9.771  13.960
60238SOL    HW182553   1.808   9.837  13.945
60238SOL    HW282554   1.856   9.735  14.046
60239SOL     OW82555  14.575   8.995  13.989
60239SOL    HW182556  14.651   9.050  14.008
60239SOL    HW282557  14.585   8.972  13.897
60240SOL     OW82558   2.826   9.160   4.831
60240SOL    HW182559   2.832   9.255   4.826
60240SOL    HW282560   2.752   9.144   4.890
60241SOL     OW82561   6.905   4.198   0.926
60241SOL    HW182562   6.892   4.293   0.929
60241SOL    HW282563   6.997   4.187   0.901
60242SOL     OW82564   9.349   6.865   9.168
60242SOL    HW182565   9.414   6.926   9.134
60242SOL    HW282566   9.380   6.844   9.256
60243SOL     OW82567   5.108   0.121   6.022
60243SOL    HW182568   5.091   0.147   6.113
60243SOL    HW282569   5.201   0.140   6.009
60244SOL     OW82570   4.089   2.367   0.643
60244SOL    HW182571   4.023   2.348   0.710
60244SOL    HW282572   4.056   2.325   0.564
60245SOL     OW82573   6.708   7.190   8.302
60245SOL    HW182574   6.796   7.189   8.264
60245SOL    HW282575   6.650   7.165   8.230
60246SOL     OW82576   0.122  14.465   7.059
60246SOL    HW182577   0.197  14.504   7.013
60246SOL    HW282578   0.090  14.398   7.000
60247SOL     OW82579  12.364  13.954  13.211
60247SOL    HW182580  12.349  13.993  13.297
60247SOL    HW282581  12.449  13.911  13.218
60248SOL     OW82582   9.700   2.423   7.257
60248SOL    HW182583   9.660   2.440   7.172
60248SOL    HW282584   9.765   2.492   7.268
60249SOL     OW82585   7.602   2.146  12.196
60249SOL    HW182586   7.603   2.236  12.164
60249SOL    HW282587   7.683   2.108  12.163
60250SOL     OW82588   6.191  12.549  10.373
60250SOL    HW182589   6.110  12.548  10.424
60250SOL    HW282590   6.207  12.457  10.352
60251SOL     OW82591   3.088   0.934  13.695
60251SOL    HW182592   3.054   1.007  13.644
60251SOL    HW282593   3.167   0.907  13.649
60252SOL     OW82594  14.619   9.207   1.363
60252SOL    HW182595  14.555   9.138   1.348
60252SOL    HW282596  14.687   9.191   1.298
60253SOL     OW82597   7.012   6.500  14.144
60253SOL    HW182598   6.970   6.522  14.061
60253SOL    HW282599   7.105   6.490  14.122
60254SOL     OW82600   4.671   5.724   7.761
60254SOL    HW182601   4.676   5.813   7.795
60254SOL    HW282602   4.742   5.678   7.806
60255SOL     OW82603   3.924   4.785   2.607
60255SOL    HW182604   3.860   4.806   2.674
60255SOL    HW282605   4.006   4.822   2.638
60256SOL     OW82606   5.077  10.884   8.973
60256SOL    HW182607   5.155  10.829   8.973
60256SOL    HW282608   5.065  10.908   9.065
60257SOL     OW82609  14.515  11.494   4.440
60257SOL    HW182610  14.506  11.405   4.473
60257SOL    HW282611  14.531  11.547   4.517
60258SOL     OW82612   9.338  13.831  11.870
60258SOL    HW182613   9.255  13.821  11.822
60258SOL    HW282614   9.401  13.857  11.803
60259SOL     OW82615  11.554  11.898  10.620
60259SOL    HW182616  11.635  11.939  10.587
60259SOL    HW282617  11.484  11.949  10.578
60260SOL     OW82618  13.223  12.436   3.141
60260SOL    HW182619  13.248  12.528   3.129
60260SOL    HW282620  13.148  12.424   3.083
60261SOL     OW82621   3.804  13.845   6.110
60261SOL    HW182622   3.882  13.876   6.064
60261SOL    HW282623   3.807  13.750   6.101
60262SOL     OW82624   1.602   6.993   1.944
60262SOL    HW182625   1.560   7.078   1.960
60262SOL    HW282626   1.682   6.996   1.996
60263SOL     OW82627   1.461   2.316   4.084
60263SOL    HW182628   1.484   2.394   4.032
60263SOL    HW282629   1.372   2.294   4.055
60264SOL     OW82630  11.327  12.604   6.992
60264SOL    HW182631  11.321  12.511   6.971
60264SOL    HW282632  11.242  12.626   7.030
60265SOL     OW82633  14.154   6.718   9.095
60265SOL    HW182634  14.132   6.673   9.013
60265SOL    HW282635  14.077   6.706   9.150
60266SOL     OW82636   5.563   3.213  11.514
60266SOL    HW182637   5.613   3.132  11.510
60266SOL    HW282638   5.473   3.184  11.529
60267SOL     OW82639   3.783   3.770   0.298
60267SOL    HW182640   3.878   3.761   0.284
60267SOL    HW282641   3.758   3.848   0.249
60268SOL     OW82642  10.124   7.513   5.497
60268SOL    HW182643  10.057   7.566   5.453
60268SOL    HW282644  10.114   7.534   5.590
60269SOL     OW82645   6.696   3.823   5.470
60269SOL    HW182646   6.653   3.882   5.532
60269SOL    HW282647   6.749   3.766   5.524
60270SOL     OW82648   6.228  13.026   8.372
60270SOL    HW182649   6.190  13.111   8.348
60270SOL    HW282650   6.160  12.962   8.350
60271SOL     OW82651   7.281   0.778   6.761
60271SOL    HW182652   7.221   0.809   6.829
60271SOL    HW282653   7.271   0.683   6.762
60272SOL     OW82654   9.777  10.601  13.994
60272SOL    HW182655   9.708  10.543  14.025
60272SOL    HW282656   9.827  10.622  14.073
60273SOL     OW82657   4.253   8.880   2.111
60273SOL    HW182658   4.182   8.833   2.069
60273SOL    HW282659   4.243   8.971   2.081
60274SOL     OW82660   9.766  13.682   7.515
60274SOL    HW182661   9.826  13.729   7.457
60274SOL    HW282662   9.822  13.622   7.564
60275SOL     OW82663   2.309   2.479   7.660
60275SOL    HW182664   2.290   2.471   7.566
60275SOL    HW282665   2.227   2.513   7.698
60276SOL     OW82666   5.247  13.571   0.412
60276SOL    HW182667   5.244  13.620   0.494
60276SOL    HW282668   5.204  13.628   0.349
60277SOL     OW82669   6.176   2.932   3.106
60277SOL    HW182670   6.216   2.985   3.175
60277SOL    HW282671   6.243   2.928   3.037
60278SOL     OW82672  11.831   8.337   5.462
60278SOL    HW182673  11.741   8.306   5.474
60278SOL    HW282674  11.826   8.393   5.384
60279SOL     OW82675   7.869   3.245  13.123
60279SOL    HW182676   7.899   3.191  13.050
60279SOL    HW282677   7.777   3.221  13.133
60280SOL     OW82678  14.456  11.723  12.728
60280SOL    HW182679  14.396  11.667  12.679
60280SOL    HW282680  14.477  11.672  12.806
60281SOL     OW82681  11.249   3.277   9.592
60281SOL    HW182682  11.165   3.240   9.619
60281SOL    HW282683  11.304   3.272   9.670
60282SOL     OW82684   4.084  11.865   3.711
60282SOL    HW182685   4.007  11.904   3.752
60282SOL    HW282686   4.156  11.924   3.733
60283SOL     OW82687  14.075   3.527   1.316
60283SOL    HW182688  14.170   3.532   1.318
60283SOL    HW282689  14.048   3.599   1.259
60284SOL     OW82690   2.591  12.677   1.984
60284SOL    HW182691   2.673  12.671   1.935
60284SOL    HW282692   2.529  12.625   1.932
60285SOL     OW82693   8.900  14.224  12.592
60285SOL    HW182694   8.969  14.279  12.555
60285SOL    HW282695   8.946  14.168  12.655
60286SOL     OW82696  14.803   8.929  14.788
60286SOL    HW182697  14.764   8.997  14.732
60286SOL    HW282698  14.842   8.867  14.726
60287SOL     OW82699  13.392   6.485   1.992
60287SOL    HW182700  13.357   6.500   2.080
60287SOL    HW282701  13.481   6.520   1.997
60288SOL     OW82702   9.490   7.837   1.357
60288SOL    HW182703   9.504   7.927   1.326
60288SOL    HW282704   9.419   7.845   1.421
60289SOL     OW82705   4.484   8.260   1.003
60289SOL    HW182706   4.536   8.184   0.976
60289SOL    HW282707   4.433   8.282   0.925
60290SOL     OW82708   5.405   2.959   6.491
60290SOL    HW182709   5.432   2.878   6.535
60290SOL    HW282710   5.480   3.017   6.500
60291SOL     OW82711   1.599   9.266  10.630
60291SOL    HW182712   1.548   9.241  10.553
60291SOL    HW282713   1.538   9.316  10.684
60292SOL     OW82714   1.209   8.539   9.381
60292SOL    HW182715   1.203   8.484   9.303
60292SOL    HW282716   1.148   8.498   9.443
60293SOL     OW82717   7.286   0.860   0.415
60293SOL    HW182718   7.269   0.767   0.426
60293SOL    HW282719   7.380   0.865   0.397
60294SOL     OW82720   8.864  12.036  12.864
60294SOL    HW182721   8.863  12.088  12.784
60294SOL    HW282722   8.780  12.056  12.907
60295SOL     OW82723   8.775   8.757   2.425
60295SOL    HW182724   8.752   8.703   2.350
60295SOL    HW282725   8.735   8.842   2.407
60296SOL     OW82726   5.813   5.733   1.858
60296SOL    HW182727   5.896   5.775   1.880
60296SOL    HW282728   5.838   5.659   1.802
60297SOL     OW82729   1.456  10.153  11.436
60297SOL    HW182730   1.464  10.219  11.367
60297SOL    HW282731   1.469  10.201  11.517
60298SOL     OW82732  14.638   7.877   0.110
60298SOL    HW182733  14.681   7.850   0.029
60298SOL    HW282734  14.633   7.797   0.162
60299SOL     OW82735   9.575   2.174   1.988
60299SOL    HW182736   9.519   2.251   1.982
60299SOL    HW282737   9.641   2.196   2.054
60300SOL     OW82738   5.702   7.378  10.414
60300SOL    HW182739   5.738   7.291  10.398
60300SOL    HW282740   5.715   7.393  10.508
60301SOL     OW82741   2.051  12.088   2.258
60301SOL    HW182742   2.117  12.018   2.261
60301SOL    HW282743   2.089  12.159   2.310
60302SOL     OW82744   6.857  11.754  13.085
60302SOL    HW182745   6.826  11.675  13.129
60302SOL    HW282746   6.783  11.814  13.088
60303SOL     OW82747   8.498   8.904   4.358
60303SOL    HW182748   8.439   8.841   4.318
60303SOL    HW282749   8.570   8.851   4.393
60304SOL     OW82750   5.772   0.504  12.149
60304SOL    HW182751   5.843   0.439  12.150
60304SOL    HW282752   5.799   0.568  12.083
60305SOL     OW82753   8.847   2.736   9.789
60305SOL    HW182754   8.813   2.774   9.708
60305SOL    HW282755   8.941   2.726   9.774
60306SOL     OW82756   8.126   0.338   5.882
60306SOL    HW182757   8.070   0.273   5.925
60306SOL    HW282758   8.093   0.344   5.793
60307SOL     OW82759   1.068   6.033   6.428
60307SOL    HW182760   0.981   6.072   6.427
60307SOL    HW282761   1.071   5.983   6.510
60308SOL     OW82762   2.573   0.799  12.873
60308SOL    HW182763   2.624   0.765  12.946
60308SOL    HW282764   2.630   0.790  12.797
60309SOL     OW82765   4.434   1.590   0.286
60309SOL    HW182766   4.389   1.506   0.295
60309SOL    HW282767   4.495   1.592   0.359
60310SOL     OW82768   4.315  11.635   3.302
60310SOL    HW182769   4.403  11.603   3.283
60310SOL    HW282770   4.257  11.578   3.250
60311SOL     OW82771  12.616   8.538   4.378
60311SOL    HW182772  12.548   8.605   4.375
60311SOL    HW282773  12.684   8.571   4.320
60312SOL     OW82774   9.347   9.573   4.415
60312SOL    HW182775   9.377   9.531   4.335
60312SOL    HW282776   9.252   9.556   4.416
60313SOL     OW82777  12.682   4.754   4.502
60313SOL    HW182778  12.667   4.670   4.459
60313SOL    HW282779  12.595   4.784   4.528
60314SOL     OW82780  11.924   9.081  13.664
60314SOL    HW182781  11.914   9.171  13.694
60314SOL    HW282782  11.986   9.041  13.725
60315SOL     OW82783   4.677   3.122   7.185
60315SOL    HW182784   4.679   3.214   7.212
60315SOL    HW282785   4.636   3.076   7.258
60316SOL     OW82786  12.483   2.116  11.746
60316SOL    HW182787  12.394   2.087  11.722
60316SOL    HW282788  12.469   2.199  11.793
60317SOL     OW82789   3.102   8.847  11.202
60317SOL    HW182790   3.011   8.832  11.228
60317SOL    HW282791   3.152   8.784  11.253
60318SOL     OW82792  13.897   7.841   1.959
60318SOL    HW182793  13.955   7.915   1.944
60318SOL    HW282794  13.949   7.765   1.934
60319SOL     OW82795   4.053  12.112   1.454
60319SOL    HW182796   4.091  12.158   1.529
60319SOL    HW282797   4.007  12.179   1.405
60320SOL     OW82798   5.751   5.165   7.053
60320SOL    HW182799   5.709   5.227   7.112
60320SOL    HW282800   5.836   5.205   7.032
60321SOL     OW82801  10.464  12.558   6.012
60321SOL    HW182802  10.382  12.516   5.987
60321SOL    HW282803  10.519  12.552   5.934
60322SOL     OW82804   1.751   6.778  12.688
60322SOL    HW182805   1.701   6.843  12.739
60322SOL    HW282806   1.706   6.775  12.604
60323SOL     OW82807   5.402   4.177   8.991
60323SOL    HW182808   5.352   4.165   8.910
60323SOL    HW282809   5.337   4.203   9.056
60324SOL     OW82810   0.353  14.559   3.115
60324SOL    HW182811   0.436  14.525   3.079
60324SOL    HW282812   0.302  14.482   3.137
60325SOL     OW82813   7.979  13.343   1.495
60325SOL    HW182814   8.006  13.423   1.540
60325SOL    HW282815   8.023  13.272   1.542
60326SOL     OW82816  12.408   1.451   6.910
60326SOL    HW182817  12.411   1.462   6.815
60326SOL    HW282818  12.444   1.363   6.925
60327SOL     OW82819   2.061   5.263   9.480
60327SOL    HW182820   2.088   5.327   9.414
60327SOL    HW282821   1.990   5.214   9.437
60328SOL     OW82822   0.755  10.236   4.210
60328SOL    HW182823   0.763  10.238   4.115
60328SOL    HW282824   0.660  10.230   4.226
60329SOL     OW82825   3.693  10.733   2.001
60329SOL    HW182826   3.761  10.740   2.068
60329SOL    HW282827   3.713  10.652   1.954
60330SOL     OW82828  11.078   2.202   3.552
60330SOL    HW182829  11.157   2.201   3.498
60330SOL    HW282830  11.084   2.123   3.605
60331SOL     OW82831   9.345   0.243   0.813
60331SOL    HW182832   9.365   0.288   0.731
60331SOL    HW282833   9.374   0.303   0.882
60332SOL     OW82834  10.389   0.888   5.432
60332SOL    HW182835  10.420   0.977   5.451
60332SOL    HW282836  10.446   0.858   5.361
60333SOL     OW82837   0.275  10.921  13.802
60333SOL    HW182838   0.353  10.917  13.857
60333SOL    HW282839   0.228  10.998  13.834
60334SOL     OW82840  14.590   6.429   3.864
60334SOL    HW182841  14.580   6.343   3.906
60334SOL    HW282842  14.538   6.488   3.919
60335SOL     OW82843  10.364   4.409   0.941
60335SOL    HW182844  10.345   4.479   1.004
60335SOL    HW282845  10.453   4.427   0.911
60336SOL     OW82846   2.536  11.918  14.531
60336SOL    HW182847   2.514  11.843  14.476
60336SOL    HW282848   2.581  11.879  14.606
60337SOL     OW82849   4.101   9.103   8.727
60337SOL    HW182850   4.062   9.017   8.711
60337SOL    HW282851   4.108   9.109   8.822
60338SOL     OW82852   3.171   3.668  12.410
60338SOL    HW182853   3.187   3.597  12.348
60338SOL    HW282854   3.107   3.724  12.366
60339SOL     OW82855   5.738  13.935  12.202
60339SOL    HW182856   5.667  13.973  12.150
60339SOL    HW282857   5.789  14.010  12.232
60340SOL     OW82858  14.296   9.741   9.870
60340SOL    HW182859  14.259   9.759   9.784
60340SOL    HW282860  14.379   9.698   9.852
60341SOL     OW82861   6.595   3.615   9.925
60341SOL    HW182862   6.689   3.620   9.910
60341SOL    HW282863   6.557   3.611   9.838
60342SOL     OW82864   8.130  11.978  11.187
60342SOL    HW182865   8.196  11.913  11.212
60342SOL    HW282866   8.153  12.003  11.098
60343SOL     OW82867   7.415   9.901   9.862
60343SOL    HW182868   7.456   9.857   9.936
60343SOL    HW282869   7.402   9.833   9.797
60344SOL     OW82870   7.329   3.953  10.183
60344SOL    HW182871   7.399   3.918  10.238
60344SOL    HW282872   7.375   4.002  10.114
60345SOL     OW82873   4.325  12.531   3.684
60345SOL    HW182874   4.401  12.479   3.709
60345SOL    HW282875   4.362  12.606   3.638
60346SOL     OW82876   8.871   0.025  14.485
60346SOL    HW182877   8.940  14.852  14.523
60346SOL    HW282878   8.809   0.037  14.556
60347SOL     OW82879   4.970   6.995   6.477
60347SOL    HW182880   5.017   6.967   6.555
60347SOL    HW282881   4.914   6.921   6.455
60348SOL     OW82882   5.081  14.145   7.878
60348SOL    HW182883   5.118  14.164   7.964
60348SOL    HW282884   5.021  14.218   7.862
60349SOL     OW82885  13.428   3.863   8.367
60349SOL    HW182886  13.465   3.806   8.434
60349SOL    HW282887  13.428   3.810   8.288
60350SOL     OW82888   0.834   3.687  14.276
60350SOL    HW182889   0.843   3.592  14.289
60350SOL    HW282890   0.789   3.718  14.354
60351SOL     OW82891   8.755  14.315   6.548
60351SOL    HW182892   8.723  14.401   6.575
60351SOL    HW282893   8.786  14.274   6.628
60352SOL     OW82894   2.713   5.116   3.230
60352SOL    HW182895   2.729   5.168   3.151
60352SOL    HW282896   2.620   5.092   3.225
60353SOL     OW82897  11.437   2.105  12.710
60353SOL    HW182898  11.419   2.130  12.801
60353SOL    HW282899  11.527   2.134  12.695
60354SOL     OW82900  13.612   2.577   9.439
60354SOL    HW182901  13.541   2.515   9.425
60354SOL    HW282902  13.642   2.559   9.528
60355SOL     OW82903  13.485   2.234  13.523
60355SOL    HW182904  13.412   2.174  13.538
60355SOL    HW282905  13.560   2.191  13.563
60356SOL     OW82906   7.224   5.097   7.127
60356SOL    HW182907   7.278   5.105   7.206
60356SOL    HW282908   7.277   5.042   7.068
60357SOL     OW82909   3.746   2.957  11.384
60357SOL    HW182910   3.841   2.958  11.389
60357SOL    HW282911   3.724   3.031  11.327
60358SOL     OW82912   1.666   7.773   0.129
60358SOL    HW182913   1.625   7.719   0.062
60358SOL    HW282914   1.664   7.719   0.208
60359SOL     OW82915   0.001  14.040  14.336
60359SOL    HW182916  14.860  13.951  14.363
60359SOL    HW282917   0.089  14.053  14.370
60360SOL     OW82918   9.331   6.022   9.918
60360SOL    HW182919   9.423   6.011   9.942
60360SOL    HW282920   9.313   6.114   9.936
60361SOL     OW82921  10.562   3.846  13.290
60361SOL    HW182922  10.482   3.830  13.340
60361SOL    HW282923  10.532   3.881  13.207
60362SOL     OW82924   7.385   7.945  12.173
60362SOL    HW182925   7.398   7.963  12.266
60362SOL    HW282926   7.290   7.954  12.159
60363SOL     OW82927   2.261  11.996  12.479
60363SOL    HW182928   2.221  12.005  12.566
60363SOL    HW282929   2.337  11.940  12.494
60364SOL     OW82930   6.321   6.343   0.224
60364SOL    HW182931   6.416   6.345   0.221
60364SOL    HW282932   6.293   6.420   0.174
60365SOL     OW82933   4.233  12.630   5.464
60365SOL    HW182934   4.235  12.564   5.534
60365SOL    HW282935   4.167  12.598   5.403
60366SOL     OW82936  13.063   8.236  13.437
60366SOL    HW182937  13.044   8.313  13.383
60366SOL    HW282938  13.133   8.264  13.496
60367SOL     OW82939   3.271  14.214   0.385
60367SOL    HW182940   3.278  14.199   0.291
60367SOL    HW282941   3.177  14.206   0.404
60368SOL     OW82942  12.840   1.994  13.947
60368SOL    HW182943  12.893   1.969  14.023
60368SOL    HW282944  12.784   2.065  13.979
60369SOL     OW82945   8.604   6.805   4.381
60369SOL    HW182946   8.669   6.875   4.372
60369SOL    HW282947   8.634   6.737   4.321
60370SOL     OW82948  14.671   3.017   8.781
60370SOL    HW182949  14.577   3.014   8.768
60370SOL    HW282950  14.683   3.011   8.876
60371SOL     OW82951  12.015   3.484   9.614
60371SOL    HW182952  12.106   3.506   9.636
60371SOL    HW282953  11.969   3.486   9.698
60372SOL     OW82954   0.495   0.904   2.913
60372SOL    HW182955   0.516   0.977   2.855
60372SOL    HW282956   0.407   0.877   2.887
60373SOL     OW82957   3.580  10.275  13.890
60373SOL    HW182958   3.549  10.190  13.921
60373SOL    HW282959   3.569  10.333  13.966
60374SOL     OW82960  14.402   9.810  10.156
60374SOL    HW182961  14.449   9.808  10.239
60374SOL    HW282962  14.464   9.775  10.092
60375SOL     OW82963   7.045  10.007   5.184
60375SOL    HW182964   7.095  10.060   5.246
60375SOL    HW282965   7.069   9.917   5.205
60376SOL     OW82966   7.048   0.172   9.639
60376SOL    HW182967   7.045   0.080   9.611
60376SOL    HW282968   7.051   0.221   9.557
60377SOL     OW82969   5.538  12.176  14.024
60377SOL    HW182970   5.491  12.141  13.949
60377SOL    HW282971   5.528  12.108  14.091
60378SOL     OW82972   9.397  14.879  13.997
60378SOL    HW182973   9.364   0.017  14.084
60378SOL    HW282974   9.490  14.860  14.010
60379SOL     OW82975  13.571   6.235  10.449
60379SOL    HW182976  13.602   6.325  10.446
60379SOL    HW282977  13.477   6.241  10.464
60380SOL     OW82978   9.635   8.352   4.855
60380SOL    HW182979   9.578   8.348   4.778
60380SOL    HW282980   9.713   8.399   4.824
60381SOL     OW82981   0.243  14.709  10.824
60381SOL    HW182982   0.337  14.728  10.820
60381SOL    HW282983   0.201  14.791  10.799
60382SOL     OW82984  11.767  13.440   7.815
60382SOL    HW182985  11.787  13.348   7.799
60382SOL    HW282986  11.719  13.440   7.898
60383SOL     OW82987   9.217   7.075   1.910
60383SOL    HW182988   9.295   7.025   1.888
60383SOL    HW282989   9.250   7.156   1.947
60384SOL     OW82990   1.317   9.020   1.691
60384SOL    HW182991   1.254   9.092   1.690
60384SOL    HW282992   1.369   9.033   1.611
60385SOL     OW82993  11.873   9.022  11.020
60385SOL    HW182994  11.821   8.999  10.943
60385SOL    HW282995  11.871   9.118  11.023
60386SOL     OW82996   0.172   3.511  12.387
60386SOL    HW182997   0.214   3.587  12.427
60386SOL    HW282998   0.200   3.513  12.296
60387SOL     OW82999  10.771   2.097   2.380
60387SOL    HW183000  10.705   2.124   2.444
60387SOL    HW283001  10.748   2.145   2.301
60388SOL     OW83002   9.502  11.960   1.087
60388SOL    HW183003   9.464  12.046   1.104
60388SOL    HW283004   9.452  11.926   1.012
60389SOL     OW83005  13.061   7.902   8.946
60389SOL    HW183006  13.098   7.935   8.864
60389SOL    HW283007  13.136   7.869   8.995
60390SOL     OW83008   4.867   2.912   9.214
60390SOL    HW183009   4.954   2.874   9.215
60390SOL    HW283010   4.809   2.842   9.245
60391SOL     OW83011  13.802   7.747  11.753
60391SOL    HW183012  13.763   7.721  11.670
60391SOL    HW283013  13.892   7.771  11.730
60392SOL     OW83014   4.147  12.140  13.446
60392SOL    HW183015   4.221  12.183  13.404
60392SOL    HW283016   4.103  12.210  13.495
60393SOL     OW83017   8.459   3.963  10.661
60393SOL    HW183018   8.373   3.959  10.618
60393SOL    HW283019   8.489   4.053  10.646
60394SOL     OW83020   8.634   4.272  14.038
60394SOL    HW183021   8.677   4.193  14.005
60394SOL    HW283022   8.699   4.341  14.028
60395SOL     OW83023   2.357   0.631   6.774
60395SOL    HW183024   2.452   0.641   6.783
60395SOL    HW283025   2.344   0.620   6.679
60396SOL     OW83026   3.608   1.040   6.682
60396SOL    HW183027   3.548   0.971   6.655
60396SOL    HW283028   3.633   1.016   6.771
60397SOL     OW83029  13.740   0.190   3.696
60397SOL    HW183030  13.676   0.164   3.630
60397SOL    HW283031  13.691   0.185   3.779
60398SOL     OW83032  14.364   6.995  13.904
60398SOL    HW183033  14.358   6.970  13.811
60398SOL    HW283034  14.374   7.090  13.903
60399SOL     OW83035   0.385   5.822   1.162
60399SOL    HW183036   0.367   5.729   1.168
60399SOL    HW283037   0.442   5.831   1.086
60400SOL     OW83038   8.402   8.582   6.633
60400SOL    HW183039   8.376   8.492   6.612
60400SOL    HW283040   8.349   8.636   6.574
60401SOL     OW83041   8.181   5.207   2.151
60401SOL    HW183042   8.138   5.263   2.215
60401SOL    HW283043   8.130   5.126   2.152
60402SOL     OW83044   2.917   4.666   5.481
60402SOL    HW183045   2.944   4.710   5.400
60402SOL    HW283046   2.999   4.647   5.527
60403SOL     OW83047   8.592   8.657   6.833
60403SOL    HW183048   8.598   8.747   6.866
60403SOL    HW283049   8.529   8.662   6.762
60404SOL     OW83050  11.189  12.196   2.916
60404SOL    HW183051  11.095  12.205   2.931
60404SOL    HW283052  11.206  12.251   2.839
60405SOL     OW83053  13.198  14.352   3.106
60405SOL    HW183054  13.111  14.345   3.147
60405SOL    HW283055  13.237  14.429   3.147
60406SOL     OW83056   6.781  13.549   2.099
60406SOL    HW183057   6.776  13.480   2.032
60406SOL    HW283058   6.690  13.579   2.108
60407SOL     OW83059   9.069   8.728   1.491
60407SOL    HW183060   9.077   8.633   1.490
60407SOL    HW283061   9.022   8.747   1.573
60408SOL     OW83062   5.982   0.700  12.327
60408SOL    HW183063   5.906   0.677  12.380
60408SOL    HW283064   6.007   0.618  12.284
60409SOL     OW83065  12.237   3.669   4.649
60409SOL    HW183066  12.327   3.674   4.616
60409SOL    HW283067  12.238   3.595   4.710
60410SOL     OW83068   3.579  13.737   3.026
60410SOL    HW183069   3.639  13.664   3.043
60410SOL    HW283070   3.620  13.788   2.957
60411SOL     OW83071  10.713   4.927   5.766
60411SOL    HW183072  10.695   4.866   5.695
60411SOL    HW283073  10.808   4.923   5.778
60412SOL     OW83074  11.246   3.922   1.323
60412SOL    HW183075  11.238   4.017   1.330
60412SOL    HW283076  11.177   3.897   1.261
60413SOL     OW83077   3.478   5.374   8.719
60413SOL    HW183078   3.431   5.397   8.799
60413SOL    HW283079   3.569   5.398   8.736
60414SOL     OW83080   3.315  10.863   4.867
60414SOL    HW183081   3.389  10.912   4.832
60414SOL    HW283082   3.349  10.775   4.882
60415SOL     OW83083  12.854  10.741   1.798
60415SOL    HW183084  12.816  10.715   1.714
60415SOL    HW283085  12.948  10.735   1.785
60416SOL     OW83086   2.710   0.789   7.522
60416SOL    HW183087   2.711   0.776   7.427
60416SOL    HW283088   2.617   0.796   7.544
60417SOL     OW83089  12.337   0.834  13.418
60417SOL    HW183090  12.280   0.787  13.479
60417SOL    HW283091  12.277   0.885  13.363
60418SOL     OW83092   9.533  10.198   8.839
60418SOL    HW183093   9.515  10.229   8.928
60418SOL    HW283094   9.449  10.206   8.794
60419SOL     OW83095   4.938  11.400  10.876
60419SOL    HW183096   4.888  11.343  10.817
60419SOL    HW283097   4.995  11.340  10.924
60420SOL     OW83098  12.793   0.354   9.945
60420SOL    HW183099  12.860   0.334  10.011
60420SOL    HW283100  12.711   0.323   9.983
60421SOL     OW83101  14.643   5.699   3.572
60421SOL    HW183102  14.709   5.742   3.518
60421SOL    HW283103  14.568   5.758   3.569
60422SOL     OW83104   7.340   0.794   0.125
60422SOL    HW183105   7.342   0.851   0.048
60422SOL    HW283106   7.302   0.849   0.194
60423SOL     OW83107  13.061   2.138   7.566
60423SOL    HW183108  12.970   2.118   7.588
60423SOL    HW283109  13.113   2.078   7.621
60424SOL     OW83110   2.338   7.569  13.091
60424SOL    HW183111   2.340   7.657  13.129
60424SOL    HW283112   2.422   7.560  13.046
60425SOL     OW83113   0.916  10.462   6.293
60425SOL    HW183114   0.947  10.485   6.206
60425SOL    HW283115   0.900  10.368   6.289
60426SOL     OW83116   2.522   8.292   3.050
60426SOL    HW183117   2.578   8.343   2.991
60426SOL    HW283118   2.581   8.227   3.088
60427SOL     OW83119  12.848  11.172   3.977
60427SOL    HW183120  12.845  11.227   3.898
60427SOL    HW283121  12.778  11.205   4.032
60428SOL     OW83122   7.988   3.472  12.720
60428SOL    HW183123   7.926   3.461  12.793
60428SOL    HW283124   8.033   3.554  12.739
60429SOL     OW83125   1.867  13.454   8.759
60429SOL    HW183126   1.873  13.362   8.783
60429SOL    HW283127   1.786  13.459   8.707
60430SOL     OW83128   7.484   2.715   9.080
60430SOL    HW183129   7.433   2.777   9.133
60430SOL    HW283130   7.440   2.631   9.093
60431SOL     OW83131   9.513  11.802   5.611
60431SOL    HW183132   9.435  11.746   5.616
60431SOL    HW283133   9.587  11.742   5.622
60432SOL     OW83134  14.289   5.222   7.911
60432SOL    HW183135  14.267   5.290   7.974
60432SOL    HW283136  14.224   5.153   7.926
60433SOL     OW83137  11.837  13.474   0.910
60433SOL    HW183138  11.772  13.422   0.863
60433SOL    HW283139  11.904  13.411   0.936
60434SOL     OW83140   9.059   9.333   1.152
60434SOL    HW183141   9.099   9.280   1.083
60434SOL    HW283142   8.965   9.332   1.133
60435SOL     OW83143   6.135   3.620   8.265
60435SOL    HW183144   6.187   3.638   8.187
60435SOL    HW283145   6.154   3.692   8.325
60436SOL     OW83146   3.118  12.438  12.712
60436SOL    HW183147   3.066  12.421  12.634
60436SOL    HW283148   3.185  12.369  12.711
60437SOL     OW83149  11.743   9.679  13.475
60437SOL    HW183150  11.649   9.700  13.475
60437SOL    HW283151  11.786   9.762  13.455
60438SOL     OW83152  14.776  13.407   1.448
60438SOL    HW183153  14.761  13.343   1.377
60438SOL    HW283154  14.803  13.354   1.523
60439SOL     OW83155   7.335  13.907   5.833
60439SOL    HW183156   7.401  13.880   5.897
60439SOL    HW283157   7.291  13.825   5.807
60440SOL     OW83158   4.920   0.731   0.858
60440SOL    HW183159   4.986   0.755   0.923
60440SOL    HW283160   4.899   0.640   0.878
60441SOL     OW83161   3.604   9.453   0.355
60441SOL    HW183162   3.650   9.472   0.274
60441SOL    HW283163   3.530   9.398   0.329
60442SOL     OW83164  10.214  12.587   4.651
60442SOL    HW183165  10.169  12.601   4.735
60442SOL    HW283166  10.307  12.595   4.672
60443SOL     OW83167   8.325   7.744   9.418
60443SOL    HW183168   8.347   7.787   9.336
60443SOL    HW283169   8.356   7.804   9.486
60444SOL     OW83170  12.251   9.813  10.217
60444SOL    HW183171  12.318   9.760  10.260
60444SOL    HW283172  12.173   9.758  10.215
60445SOL     OW83173  11.271   3.107  12.037
60445SOL    HW183174  11.316   3.087  11.955
60445SOL    HW283175  11.288   3.200  12.052
60446SOL     OW83176  12.949  10.763   6.893
60446SOL    HW183177  12.929  10.751   6.800
60446SOL    HW283178  12.950  10.674   6.928
60447SOL     OW83179   2.003  11.825  14.504
60447SOL    HW183180   1.919  11.829  14.550
60447SOL    HW283181   2.043  11.743  14.534
60448SOL     OW83182   8.235   9.311   5.170
60448SOL    HW183183   8.141   9.304   5.187
60448SOL    HW283184   8.246   9.395   5.127
60449SOL     OW83185   0.722  13.385   2.836
60449SOL    HW183186   0.695  13.471   2.802
60449SOL    HW283187   0.715  13.394   2.931
60450SOL     OW83188  10.571   2.582   7.791
60450SOL    HW183189  10.610   2.494   7.795
60450SOL    HW283190  10.546   2.601   7.881
60451SOL     OW83191   4.287   7.176   3.301
60451SOL    HW183192   4.361   7.181   3.240
60451SOL    HW283193   4.327   7.176   3.387
60452SOL     OW83194   2.522  10.305   5.408
60452SOL    HW183195   2.573  10.356   5.345
60452SOL    HW283196   2.565  10.219   5.409
60453SOL     OW83197  13.393  13.443   9.556
60453SOL    HW183198  13.453  13.469   9.486
60453SOL    HW283199  13.410  13.506   9.626
60454SOL     OW83200   4.467   4.967   9.582
60454SOL    HW183201   4.427   4.888   9.547
60454SOL    HW283202   4.450   4.963   9.676
60455SOL     OW83203   0.544  11.001   2.658
60455SOL    HW183204   0.581  11.078   2.614
60455SOL    HW283205   0.528  11.031   2.748
60456SOL     OW83206   9.421  11.091   4.589
60456SOL    HW183207   9.415  11.124   4.679
60456SOL    HW283208   9.501  11.038   4.588
60457SOL     OW83209  13.507   3.696   2.380
60457SOL    HW183210  13.468   3.783   2.371
60457SOL    HW283211  13.499   3.657   2.292
60458SOL     OW83212   2.985   4.294  13.951
60458SOL    HW183213   2.941   4.317  14.033
60458SOL    HW283214   2.948   4.353  13.886
60459SOL     OW83215   7.897   8.871   9.084
60459SOL    HW183216   7.821   8.822   9.054
60459SOL    HW283217   7.928   8.918   9.007
60460SOL     OW83218  13.046   2.496   5.478
60460SOL    HW183219  13.088   2.424   5.431
60460SOL    HW283220  13.056   2.572   5.420
60461SOL     OW83221   1.202   6.925  12.307
60461SOL    HW183222   1.140   6.993  12.281
60461SOL    HW283223   1.152   6.869  12.366
60462SOL     OW83224   1.881  13.810   6.629
60462SOL    HW183225   1.818  13.799   6.558
60462SOL    HW283226   1.859  13.894   6.668
60463SOL     OW83227   6.077   0.956  13.423
60463SOL    HW183228   6.118   0.870  13.433
60463SOL    HW283229   6.021   0.964  13.500
60464SOL     OW83230   5.776   6.505   4.747
60464SOL    HW183231   5.828   6.464   4.816
60464SOL    HW283232   5.685   6.484   4.770
60465SOL     OW83233   5.237   9.028  12.044
60465SOL    HW183234   5.257   8.974  11.967
60465SOL    HW283235   5.245   8.969  12.118
60466SOL     OW83236   0.259   9.303   6.739
60466SOL    HW183237   0.300   9.367   6.681
60466SOL    HW283238   0.297   9.321   6.825
60467SOL     OW83239   3.607   7.691   7.186
60467SOL    HW183240   3.513   7.710   7.188
60467SOL    HW283241   3.627   7.673   7.094
60468SOL     OW83242   8.428   9.598   7.063
60468SOL    HW183243   8.480   9.524   7.033
60468SOL    HW283244   8.485   9.644   7.124
60469SOL     OW83245  13.359  11.359   2.587
60469SOL    HW183246  13.446  11.380   2.622
60469SOL    HW283247  13.362  11.264   2.571
60470SOL     OW83248   3.728   9.748  10.571
60470SOL    HW183249   3.734   9.816  10.504
60470SOL    HW283250   3.680   9.790  10.643
60471SOL     OW83251  13.325   3.206   5.535
60471SOL    HW183252  13.243   3.175   5.573
60471SOL    HW283253  13.356   3.273   5.596
60472SOL     OW83254   7.801   0.521  13.877
60472SOL    HW183255   7.771   0.459  13.810
60472SOL    HW283256   7.765   0.488  13.959
60473SOL     OW83257   1.676   1.716   7.494
60473SOL    HW183258   1.661   1.663   7.572
60473SOL    HW283259   1.670   1.654   7.421
60474SOL     OW83260   5.266  10.511   2.814
60474SOL    HW183261   5.313  10.582   2.769
60474SOL    HW283262   5.174  10.537   2.809
60475SOL     OW83263   0.937  10.211   8.101
60475SOL    HW183264   0.909  10.167   8.181
60475SOL    HW283265   0.957  10.301   8.129
60476SOL     OW83266   7.182   1.383   0.670
60476SOL    HW183267   7.141   1.419   0.591
60476SOL    HW283268   7.181   1.288   0.657
60477SOL     OW83269  11.197   2.993   7.537
60477SOL    HW183270  11.239   3.039   7.464
60477SOL    HW283271  11.104   3.000   7.519
60478SOL     OW83272   6.862   3.412  11.174
60478SOL    HW183273   6.937   3.419  11.232
60478SOL    HW283274   6.866   3.491  11.119
60479SOL     OW83275  11.593   0.235  13.716
60479SOL    HW183276  11.558   0.319  13.688
60479SOL    HW283277  11.678   0.229  13.673
60480SOL     OW83278   1.429   0.701  13.457
60480SOL    HW183279   1.496   0.768  13.469
60480SOL    HW283280   1.478   0.620  13.444
60481SOL     OW83281   1.130   8.127   1.053
60481SOL    HW183282   1.117   8.164   1.141
60481SOL    HW283283   1.061   8.166   1.000
60482SOL     OW83284   2.302   3.464   9.671
60482SOL    HW183285   2.393   3.445   9.696
60482SOL    HW283286   2.273   3.529   9.735
60483SOL     OW83287  13.053   1.076   2.923
60483SOL    HW183288  13.060   1.142   2.854
60483SOL    HW283289  13.127   1.092   2.980
60484SOL     OW83290   2.397   2.127   8.219
60484SOL    HW183291   2.411   2.085   8.304
60484SOL    HW283292   2.307   2.157   8.222
60485SOL     OW83293  11.453  13.186  13.269
60485SOL    HW183294  11.384  13.204  13.205
60485SOL    HW283295  11.514  13.129  13.222
60486SOL     OW83296   8.724   2.020   6.773
60486SOL    HW183297   8.784   1.999   6.702
60486SOL    HW283298   8.742   2.111   6.794
60487SOL     OW83299  10.871  11.998  10.328
60487SOL    HW183300  10.784  11.967  10.351
60487SOL    HW283301  10.881  11.976  10.236
60488SOL     OW83302   9.553   7.399  14.153
60488SOL    HW183303   9.591   7.480  14.118
60488SOL    HW283304   9.516   7.425  14.238
60489SOL     OW83305  12.344   9.678   2.232
60489SOL    HW183306  12.250   9.692   2.221
60489SOL    HW283307  12.367   9.614   2.165
60490SOL     OW83308   1.403   7.478   3.768
60490SOL    HW183309   1.478   7.418   3.776
60490SOL    HW283310   1.394   7.516   3.856
60491SOL     OW83311  14.254   9.928   1.109
60491SOL    HW183312  14.343   9.943   1.142
60491SOL    HW283313  14.197   9.948   1.184
60492SOL     OW83314  13.017   6.812   1.768
60492SOL    HW183315  13.093   6.768   1.806
60492SOL    HW283316  12.975   6.744   1.714
60493SOL     OW83317   4.259   5.197  12.961
60493SOL    HW183318   4.171   5.235  12.965
60493SOL    HW283319   4.305   5.235  13.036
60494SOL     OW83320  14.659  11.246   4.310
60494SOL    HW183321  14.603  11.229   4.386
60494SOL    HW283322  14.618  11.320   4.266
60495SOL     OW83323   6.959   0.511  14.046
60495SOL    HW183324   6.993   0.531  14.134
60495SOL    HW283325   6.973   0.416  14.037
60496SOL     OW83326   6.424   3.126   2.002
60496SOL    HW183327   6.457   3.215   1.998
60496SOL    HW283328   6.341   3.129   1.954
60497SOL     OW83329   7.890  13.265   8.840
60497SOL    HW183330   7.968  13.304   8.799
60497SOL    HW283331   7.917  13.177   8.864
60498SOL     OW83332   4.700   0.566   9.837
60498SOL    HW183333   4.747   0.616   9.771
60498SOL    HW283334   4.765   0.553   9.907
60499SOL     OW83335   4.231   5.592  10.355
60499SOL    HW183336   4.281   5.567  10.277
60499SOL    HW283337   4.222   5.511  10.405
60500SOL     OW83338   7.618   7.212   5.310
60500SOL    HW183339   7.587   7.196   5.399
60500SOL    HW283340   7.647   7.127   5.278
60501SOL     OW83341   6.820   5.644  12.530
60501SOL    HW183342   6.790   5.563  12.489
60501SOL    HW283343   6.863   5.692  12.460
60502SOL     OW83344   5.697   6.572   9.036
60502SOL    HW183345   5.616   6.521   9.036
60502SOL    HW283346   5.765   6.510   9.060
60503SOL     OW83347   6.676   9.053  13.237
60503SOL    HW183348   6.622   9.017  13.166
60503SOL    HW283349   6.685   9.146  13.214
60504SOL     OW83350   1.878  12.088   3.649
60504SOL    HW183351   1.949  12.131   3.602
60504SOL    HW283352   1.917  12.005   3.679
60505SOL     OW83353  12.036  10.781  13.021
60505SOL    HW183354  11.993  10.849  12.969
60505SOL    HW283355  12.129  10.791  13.001
60506SOL     OW83356   5.033  13.343  11.995
60506SOL    HW183357   4.972  13.388  11.937
60506SOL    HW283358   5.105  13.315  11.938
60507SOL     OW83359  12.240   6.511   3.382
60507SOL    HW183360  12.176   6.580   3.366
60507SOL    HW283361  12.273   6.528   3.470
60508SOL     OW83362   0.198  13.729  12.423
60508SOL    HW183363   0.261  13.763  12.359
60508SOL    HW283364   0.233  13.758  12.508
60509SOL     OW83365  10.115   5.064   9.018
60509SOL    HW183366  10.099   5.057   9.112
60509SOL    HW283367  10.078   4.983   8.982
60510SOL     OW83368  14.438  11.906   3.267
60510SOL    HW183369  14.416  11.871   3.353
60510SOL    HW283370  14.369  11.875   3.209
60511SOL     OW83371   5.334   2.495   1.780
60511SOL    HW183372   5.402   2.561   1.768
60511SOL    HW283373   5.369   2.416   1.738
60512SOL     OW83374   5.015   6.650   5.458
60512SOL    HW183375   5.023   6.561   5.425
60512SOL    HW283376   4.948   6.646   5.526
60513SOL     OW83377   5.548  13.745  14.023
60513SOL    HW183378   5.581  13.704  13.943
60513SOL    HW283379   5.504  13.674  14.070
60514SOL     OW83380   5.254   0.142   6.816
60514SOL    HW183381   5.249   0.204   6.889
60514SOL    HW283382   5.303   0.068   6.851
60515SOL     OW83383   4.887   6.435   6.186
60515SOL    HW183384   4.829   6.423   6.110
60515SOL    HW283385   4.972   6.402   6.156
60516SOL     OW83386  14.511   3.369   7.858
60516SOL    HW183387  14.417   3.353   7.860
60516SOL    HW283388  14.543   3.319   7.783
60517SOL     OW83389  13.397   2.119   9.689
60517SOL    HW183390  13.351   2.049   9.642
60517SOL    HW283391  13.339   2.194   9.683
60518SOL     OW83392   0.775   2.238   8.942
60518SOL    HW183393   0.697   2.224   8.888
60518SOL    HW283394   0.848   2.223   8.882
60519SOL     OW83395   9.167   1.133  10.259
60519SOL    HW183396   9.239   1.191  10.232
60519SOL    HW283397   9.143   1.088  10.178
60520SOL     OW83398  13.026   8.052   4.900
60520SOL    HW183399  12.936   8.081   4.912
60520SOL    HW283400  13.073   8.090   4.975
60521SOL     OW83401  11.553  12.234  14.171
60521SOL    HW183402  11.495  12.260  14.099
60521SOL    HW283403  11.636  12.278  14.152
60522SOL     OW83404   1.443   4.494   5.530
60522SOL    HW183405   1.497   4.568   5.558
60522SOL    HW283406   1.420   4.513   5.439
60523SOL     OW83407  10.362   6.816   3.856
60523SOL    HW183408  10.402   6.902   3.869
60523SOL    HW283409  10.287   6.815   3.917
60524SOL     OW83410   2.847  11.640   1.806
60524SOL    HW183411   2.818  11.670   1.720
60524SOL    HW283412   2.913  11.572   1.786
60525SOL     OW83413   5.528   1.637   5.320
60525SOL    HW183414   5.504   1.724   5.286
60525SOL    HW283415   5.478   1.576   5.266
60526SOL     OW83416   4.724   2.548  13.080
60526SOL    HW183417   4.789   2.579  13.017
60526SOL    HW283418   4.745   2.455  13.091
60527SOL     OW83419   0.616   0.451   8.767
60527SOL    HW183420   0.544   0.413   8.717
60527SOL    HW283421   0.619   0.399   8.848
60528SOL     OW83422   5.437   2.434   7.032
60528SOL    HW183423   5.345   2.418   7.049
60528SOL    HW283424   5.450   2.527   7.053
60529SOL     OW83425  10.716   2.666   3.472
60529SOL    HW183426  10.722   2.640   3.564
60529SOL    HW283427  10.693   2.585   3.426
60530SOL     OW83428   7.467   5.059   3.880
60530SOL    HW183429   7.405   5.132   3.880
60530SOL    HW283430   7.492   5.048   3.972
60531SOL     OW83431   0.271  10.794  10.738
60531SOL    HW183432   0.276  10.887  10.716
60531SOL    HW283433   0.246  10.751  10.656
60532SOL     OW83434   4.832   0.407  14.521
60532SOL    HW183435   4.748   0.362  14.533
60532SOL    HW283436   4.896   0.350  14.563
60533SOL     OW83437   7.325   1.178   7.550
60533SOL    HW183438   7.310   1.099   7.498
60533SOL    HW283439   7.242   1.190   7.598
60534SOL     OW83440   9.737   6.287  14.004
60534SOL    HW183441   9.734   6.269  14.098
60534SOL    HW283442   9.662   6.344  13.988
60535SOL     OW83443  13.509   2.151   4.813
60535SOL    HW183444  13.546   2.065   4.830
60535SOL    HW283445  13.577   2.198   4.765
60536SOL     OW83446   3.443  14.639   7.571
60536SOL    HW183447   3.377  14.707   7.581
60536SOL    HW283448   3.434  14.609   7.481
60537SOL     OW83449  12.402  12.902  14.230
60537SOL    HW183450  12.359  12.934  14.151
60537SOL    HW283451  12.331  12.872  14.286
60538SOL     OW83452   1.696   8.174   6.301
60538SOL    HW183453   1.639   8.148   6.229
60538SOL    HW283454   1.662   8.125   6.376
60539SOL     OW83455   2.215   6.561  12.947
60539SOL    HW183456   2.177   6.478  12.977
60539SOL    HW283457   2.236   6.608  13.028
60540SOL     OW83458   1.110   9.599  13.951
60540SOL    HW183459   1.165   9.592  13.874
60540SOL    HW283460   1.029   9.553  13.928
60541SOL     OW83461   2.255  12.123   6.760
60541SOL    HW183462   2.286  12.209   6.786
60541SOL    HW283463   2.195  12.140   6.688
60542SOL     OW83464   5.817   0.143   4.410
60542SOL    HW183465   5.724   0.162   4.410
60542SOL    HW283466   5.848   0.175   4.495
60543SOL     OW83467  13.052  10.325  12.018
60543SOL    HW183468  13.006  10.374  12.086
60543SOL    HW283469  13.071  10.391  11.950
60544SOL     OW83470  11.914   7.805   4.262
60544SOL    HW183471  11.938   7.717   4.234
60544SOL    HW283472  11.844   7.792   4.326
60545SOL     OW83473  13.860   1.764  12.282
60545SOL    HW183474  13.844   1.856  12.259
60545SOL    HW283475  13.782   1.718  12.252
60546SOL     OW83476   8.275   1.686   5.658
60546SOL    HW183477   8.267   1.756   5.594
60546SOL    HW283478   8.219   1.616   5.625
60547SOL     OW83479  11.823   2.770   4.767
60547SOL    HW183480  11.823   2.678   4.794
60547SOL    HW283481  11.843   2.818   4.847
60548SOL     OW83482  14.231   3.074   0.296
60548SOL    HW183483  14.164   3.048   0.360
60548SOL    HW283484  14.208   3.025   0.217
60549SOL     OW83485  13.645   0.267   0.030
60549SOL    HW183486  13.611   0.185  14.876
60549SOL    HW283487  13.574   0.330   0.018
60550SOL     OW83488   4.572   9.691   0.386
60550SOL    HW183489   4.644   9.723   0.441
60550SOL    HW283490   4.612   9.622   0.333
60551SOL     OW83491  11.997   6.890  13.814
60551SOL    HW183492  12.028   6.932  13.733
60551SOL    HW283493  11.996   6.796  13.793
60552SOL     OW83494   4.216   2.148  14.049
60552SOL    HW183495   4.172   2.222  14.090
60552SOL    HW283496   4.293   2.132  14.104
60553SOL     OW83497  14.616   1.537  14.679
60553SOL    HW183498  14.690   1.571  14.729
60553SOL    HW283499  14.652   1.465  14.628
60554SOL     OW83500   8.319  14.044  11.073
60554SOL    HW183501   8.353  14.133  11.076
60554SOL    HW283502   8.370  14.001  11.004
60555SOL     OW83503   4.428   2.920   6.512
60555SOL    HW183504   4.418   2.938   6.419
60555SOL    HW283505   4.444   2.826   6.518
60556SOL     OW83506   5.757   7.997   2.626
60556SOL    HW183507   5.719   7.914   2.654
60556SOL    HW283508   5.741   8.056   2.699
60557SOL     OW83509  13.322   8.177   7.151
60557SOL    HW183510  13.266   8.186   7.073
60557SOL    HW283511  13.260   8.175   7.224
60558SOL     OW83512   8.063   0.972   7.757
60558SOL    HW183513   8.011   0.963   7.837
60558SOL    HW283514   8.113   0.891   7.752
60559SOL     OW83515  13.019   1.340   0.753
60559SOL    HW183516  13.087   1.406   0.736
60559SOL    HW283517  12.951   1.388   0.800
60560SOL     OW83518   1.360   8.905   0.077
60560SOL    HW183519   1.269   8.933   0.075
60560SOL    HW283520   1.384   8.908   0.170
60561SOL     OW83521  14.881   3.007   8.079
60561SOL    HW183522  14.815   3.076   8.086
60561SOL    HW283523  14.833   2.927   8.100
60562SOL     OW83524  14.138  13.975   1.179
60562SOL    HW183525  14.144  14.063   1.217
60562SOL    HW283526  14.078  13.928   1.237
60563SOL     OW83527   6.846  11.625  11.546
60563SOL    HW183528   6.914  11.651  11.484
60563SOL    HW283529   6.766  11.625  11.494
60564SOL     OW83530   4.005  14.560   5.343
60564SOL    HW183531   4.029  14.641   5.389
60564SOL    HW283532   4.025  14.491   5.406
60565SOL     OW83533  11.640   5.940   3.675
60565SOL    HW183534  11.544   5.937   3.673
60565SOL    HW283535  11.667   5.848   3.672
60566SOL     OW83536   0.767   1.244   4.165
60566SOL    HW183537   0.810   1.236   4.250
60566SOL    HW283538   0.825   1.301   4.114
60567SOL     OW83539  14.634   7.258  11.559
60567SOL    HW183540  14.690   7.327  11.593
60567SOL    HW283541  14.650   7.259  11.464
60568SOL     OW83542  12.155  11.969   3.762
60568SOL    HW183543  12.113  11.951   3.678
60568SOL    HW283544  12.248  11.952   3.747
60569SOL     OW83545   6.334   8.063   6.449
60569SOL    HW183546   6.337   8.034   6.540
60569SOL    HW283547   6.320   7.982   6.399
60570SOL     OW83548  14.303   4.337  10.991
60570SOL    HW183549  14.278   4.341  11.084
60570SOL    HW283550  14.238   4.279  10.951
60571SOL     OW83551  13.325   8.644   3.225
60571SOL    HW183552  13.389   8.704   3.261
60571SOL    HW283553  13.377   8.572   3.190
60572SOL     OW83554   9.410   0.511   9.515
60572SOL    HW183555   9.362   0.589   9.488
60572SOL    HW283556   9.482   0.544   9.568
60573SOL     OW83557   9.084   6.433   7.839
60573SOL    HW183558   9.136   6.448   7.760
60573SOL    HW283559   9.007   6.489   7.827
60574SOL     OW83560   1.199   4.715  13.021
60574SOL    HW183561   1.104   4.724  13.019
60574SOL    HW283562   1.219   4.652  12.952
60575SOL     OW83563  13.636  11.946  11.954
60575SOL    HW183564  13.696  11.900  12.012
60575SOL    HW283565  13.605  12.021  12.004
60576SOL     OW83566   6.446   6.426   3.817
60576SOL    HW183567   6.465   6.494   3.882
60576SOL    HW283568   6.467   6.344   3.861
60577SOL     OW83569   3.422  11.540   7.248
60577SOL    HW183570   3.370  11.498   7.178
60577SOL    HW283571   3.461  11.616   7.205
60578SOL     OW83572   4.099  11.601   7.485
60578SOL    HW183573   4.027  11.652   7.449
60578SOL    HW283574   4.155  11.581   7.410
60579SOL     OW83575   1.101   3.289  12.887
60579SOL    HW183576   1.110   3.336  12.804
60579SOL    HW283577   1.108   3.197  12.863
60580SOL     OW83578   5.083   0.177   0.038
60580SOL    HW183579   5.015   0.109   0.034
60580SOL    HW283580   5.075   0.214   0.126
60581SOL     OW83581   2.896   4.872   6.251
60581SOL    HW183582   2.939   4.937   6.195
60581SOL    HW283583   2.804   4.898   6.251
60582SOL     OW83584   5.208   6.086  10.622
60582SOL    HW183585   5.132   6.028  10.620
60582SOL    HW283586   5.253   6.070  10.539
60583SOL     OW83587   9.621   0.581   0.868
60583SOL    HW183588   9.617   0.560   0.775
60583SOL    HW283589   9.697   0.638   0.877
60584SOL     OW83590   4.075  12.662   1.352
60584SOL    HW183591   4.091  12.708   1.270
60584SOL    HW283592   4.072  12.731   1.418
60585SOL     OW83593   7.619   1.505  10.583
60585SOL    HW183594   7.536   1.463  10.606
60585SOL    HW283595   7.658   1.448  10.517
60586SOL     OW83596  10.120   8.145  13.028
60586SOL    HW183597  10.033   8.106  13.021
60586SOL    HW283598  10.122   8.184  13.115
60587SOL     OW83599  10.758   3.622   5.326
60587SOL    HW183600  10.703   3.642   5.403
60587SOL    HW283601  10.847   3.644   5.354
60588SOL     OW83602   0.876  14.508   7.152
60588SOL    HW183603   0.926  14.589   7.161
60588SOL    HW283604   0.929  14.453   7.095
60589SOL     OW83605  12.041  14.267   1.959
60589SOL    HW183606  12.003  14.296   2.042
60589SOL    HW283607  11.965  14.238   1.908
60590SOL     OW83608  10.701   6.172   1.846
60590SOL    HW183609  10.727   6.249   1.794
60590SOL    HW283610  10.645   6.208   1.915
60591SOL     OW83611  14.525   0.886   3.205
60591SOL    HW183612  14.511   0.957   3.143
60591SOL    HW283613  14.611   0.852   3.183
60592SOL     OW83614  10.873   8.883   2.733
60592SOL    HW183615  10.817   8.894   2.810
60592SOL    HW283616  10.935   8.955   2.738
60593SOL     OW83617  13.939   9.709  12.544
60593SOL    HW183618  13.956   9.652  12.619
60593SOL    HW283619  13.902   9.650  12.478
60594SOL     OW83620   8.206   7.029   4.325
60594SOL    HW183621   8.223   7.046   4.233
60594SOL    HW283622   8.287   7.055   4.370
60595SOL     OW83623   5.537   0.505   2.102
60595SOL    HW183624   5.522   0.515   2.196
60595SOL    HW283625   5.612   0.445   2.096
60596SOL     OW83626   8.459   9.173   2.796
60596SOL    HW183627   8.427   9.149   2.709
60596SOL    HW283628   8.552   9.191   2.783
60597SOL     OW83629   3.501   6.775  12.873
60597SOL    HW183630   3.525   6.767  12.965
60597SOL    HW283631   3.580   6.750  12.825
60598SOL     OW83632  11.981  14.182   5.033
60598SOL    HW183633  12.036  14.193   4.956
60598SOL    HW283634  12.013  14.101   5.074
60599SOL     OW83635   6.412   5.040   8.534
60599SOL    HW183636   6.349   5.073   8.597
60599SOL    HW283637   6.427   5.114   8.475
60600SOL     OW83638   8.777  10.365   4.992
60600SOL    HW183639   8.803  10.275   5.010
60600SOL    HW283640   8.859  10.414   4.987
60601SOL     OW83641   9.016   7.259   2.617
60601SOL    HW183642   8.943   7.298   2.568
60601SOL    HW283643   8.990   7.167   2.629
60602SOL     OW83644   1.676   4.437   0.063
60602SOL    HW183645   1.601   4.395   0.106
60602SOL    HW283646   1.651   4.529   0.058
60603SOL     OW83647  10.002   2.328   2.675
60603SOL    HW183648  10.078   2.386   2.676
60603SOL    HW283649   9.987   2.306   2.767
60604SOL     OW83650   5.066  10.870  10.567
60604SOL    HW183651   5.077  10.897  10.658
60604SOL    HW283652   4.975  10.843  10.560
60605SOL     OW83653   3.544   7.005  13.092
60605SOL    HW183654   3.466   7.011  13.037
60605SOL    HW283655   3.617   7.027  13.034
60606SOL     OW83656  12.334   5.347   1.833
60606SOL    HW183657  12.321   5.439   1.855
60606SOL    HW283658  12.393   5.349   1.757
60607SOL     OW83659  11.984  10.801   1.669
60607SOL    HW183660  12.080  10.802   1.667
60607SOL    HW283661  11.958  10.812   1.577
60608SOL     OW83662   1.464   2.201   6.693
60608SOL    HW183663   1.499   2.240   6.772
60608SOL    HW283664   1.541   2.180   6.640
60609SOL     OW83665   7.106   9.704   7.295
60609SOL    HW183666   7.052   9.630   7.323
60609SOL    HW283667   7.187   9.695   7.346
60610SOL     OW83668   0.977  11.466  14.069
60610SOL    HW183669   1.070  11.463  14.046
60610SOL    HW283670   0.931  11.459  13.985
60611SOL     OW83671   9.079   0.375   7.688
60611SOL    HW183672   9.002   0.319   7.675
60611SOL    HW283673   9.070   0.444   7.623
60612SOL     OW83674   0.536  10.091   2.753
60612SOL    HW183675   0.440  10.087   2.755
60612SOL    HW283676   0.558  10.091   2.660
60613SOL     OW83677  12.478  13.246  13.048
60613SOL    HW183678  12.562  13.202  13.040
60613SOL    HW283679  12.463  13.253  13.143
60614SOL     OW83680   0.362  11.388  12.291
60614SOL    HW183681   0.405  11.302  12.291
60614SOL    HW283682   0.422  11.445  12.243
60615SOL     OW83683   2.111   2.690   1.511
60615SOL    HW183684   2.180   2.750   1.537
60615SOL    HW283685   2.128   2.610   1.560
60616SOL     OW83686   9.326   9.863   0.045
60616SOL    HW183687   9.310   9.776   0.083
60616SOL    HW283688   9.327   9.922   0.119
60617SOL     OW83689  10.121   7.110  12.772
60617SOL    HW183690  10.190   7.049  12.798
60617SOL    HW283691  10.073   7.127  12.853
60618SOL     OW83692   5.879   7.332   6.135
60618SOL    HW183693   5.852   7.244   6.162
60618SOL    HW283694   5.903   7.323   6.043
60619SOL     OW83695   0.013   5.096   6.885
60619SOL    HW183696   0.037   5.188   6.896
60619SOL    HW283697  14.842   5.076   6.962
60620SOL     OW83698   3.323  11.633   0.308
60620SOL    HW183699   3.267  11.640   0.385
60620SOL    HW283700   3.263  11.642   0.233
60621SOL     OW83701   4.819   8.211   8.384
60621SOL    HW183702   4.792   8.120   8.379
60621SOL    HW283703   4.795   8.238   8.473
60622SOL     OW83704   0.262   2.394   3.004
60622SOL    HW183705   0.312   2.472   2.982
60622SOL    HW283706   0.264   2.341   2.924
60623SOL     OW83707  14.113   1.505  12.839
60623SOL    HW183708  14.032   1.533  12.882
60623SOL    HW283709  14.176   1.574  12.859
60624SOL     OW83710  13.143   4.203   1.418
60624SOL    HW183711  13.048   4.188   1.417
60624SOL    HW283712  13.166   4.204   1.510
60625SOL     OW83713   0.253   9.982   2.977
60625SOL    HW183714   0.261  10.026   3.062
60625SOL    HW283715   0.185   9.916   2.991
60626SOL     OW83716   5.154  13.498   6.263
60626SOL    HW183717   5.181  13.489   6.355
60626SOL    HW283718   5.180  13.587   6.239
60627SOL     OW83719   8.713   5.375   1.185
60627SOL    HW183720   8.621   5.367   1.161
60627SOL    HW283721   8.756   5.406   1.105
60628SOL     OW83722   7.771  13.458  13.152
60628SOL    HW183723   7.777  13.514  13.074
60628SOL    HW283724   7.794  13.515  13.225
60629SOL     OW83725   2.805   1.132   1.595
60629SOL    HW183726   2.793   1.039   1.579
60629SOL    HW283727   2.803   1.141   1.690
60630SOL     OW83728   0.182  13.615   1.765
60630SOL    HW183729   0.151  13.534   1.807
60630SOL    HW283730   0.149  13.610   1.676
60631SOL     OW83731   2.836  12.467   2.670
60631SOL    HW183732   2.849  12.520   2.749
60631SOL    HW283733   2.779  12.521   2.615
60632SOL     OW83734   7.809  12.467   2.471
60632SOL    HW183735   7.872  12.476   2.543
60632SOL    HW283736   7.840  12.391   2.422
60633SOL     OW83737   3.107   1.039   6.366
60633SOL    HW183738   3.116   1.092   6.287
60633SOL    HW283739   3.143   0.953   6.342
60634SOL     OW83740   8.449   4.497  10.779
60634SOL    HW183741   8.398   4.438  10.725
60634SOL    HW283742   8.417   4.584  10.757
60635SOL     OW83743   2.542  13.589   5.751
60635SOL    HW183744   2.582  13.584   5.664
60635SOL    HW283745   2.611  13.559   5.811
60636SOL     OW83746  14.422   3.820   3.668
60636SOL    HW183747  14.496   3.824   3.728
60636SOL    HW283748  14.461   3.836   3.582
60637SOL     OW83749  10.570  14.019   9.775
60637SOL    HW183750  10.581  14.049   9.865
60637SOL    HW283751  10.501  14.075   9.740
60638SOL     OW83752   9.962  13.041  13.638
60638SOL    HW183753   9.918  13.041  13.553
60638SOL    HW283754   9.926  12.965  13.683
60639SOL     OW83755   9.100   7.394   6.838
60639SOL    HW183756   9.111   7.369   6.747
60639SOL    HW283757   9.024   7.453   6.839
60640SOL     OW83758   8.423   5.425   1.112
60640SOL    HW183759   8.421   5.338   1.071
60640SOL    HW283760   8.352   5.473   1.069
60641SOL     OW83761   0.806   5.702  13.214
60641SOL    HW183762   0.774   5.615  13.190
60641SOL    HW283763   0.824   5.744  13.130
60642SOL     OW83764  12.093   2.988   7.968
60642SOL    HW183765  12.093   2.907   7.917
60642SOL    HW283766  12.086   2.959   8.059
60643SOL     OW83767   3.215   1.071   3.293
60643SOL    HW183768   3.136   1.114   3.261
60643SOL    HW283769   3.264   1.140   3.338
60644SOL     OW83770   8.309   4.528  13.901
60644SOL    HW183771   8.374   4.596  13.919
60644SOL    HW283772   8.229   4.560  13.942
60645SOL     OW83773   5.726   1.031   4.374
60645SOL    HW183774   5.674   1.017   4.295
60645SOL    HW283775   5.770   1.115   4.359
60646SOL     OW83776  11.009   9.935  13.901
60646SOL    HW183777  10.976  10.024  13.896
60646SOL    HW283778  10.970   9.898  13.980
60647SOL     OW83779  12.745   9.743  11.239
60647SOL    HW183780  12.814   9.679  11.259
60647SOL    HW283781  12.790   9.813  11.191
60648SOL     OW83782   9.662   5.511   9.723
60648SOL    HW183783   9.756   5.517   9.706
60648SOL    HW283784   9.657   5.476   9.812
60649SOL     OW83785   1.036   1.991   9.976
60649SOL    HW183786   0.986   2.050  10.033
60649SOL    HW283787   1.065   1.921  10.034
60650SOL     OW83788  13.333   8.444  11.517
60650SOL    HW183789  13.291   8.526  11.494
60650SOL    HW283790  13.395   8.428  11.445
60651SOL     OW83791   6.713  13.393   4.050
60651SOL    HW183792   6.712  13.429   4.138
60651SOL    HW283793   6.733  13.300   4.063
60652SOL     OW83794  13.007   6.255  10.269
60652SOL    HW183795  13.005   6.340  10.225
60652SOL    HW283796  13.098   6.242  10.293
60653SOL     OW83797   1.771   7.482  13.035
60653SOL    HW183798   1.722   7.478  12.952
60653SOL    HW283799   1.861   7.501  13.009
60654SOL     OW83800  12.642   1.999  14.515
60654SOL    HW183801  12.736   1.984  14.504
60654SOL    HW283802  12.636   2.084  14.558
60655SOL     OW83803   9.226  10.511   8.605
60655SOL    HW183804   9.238  10.487   8.513
60655SOL    HW283805   9.277  10.591   8.615
60656SOL     OW83806   9.217   2.697   6.741
60656SOL    HW183807   9.258   2.619   6.703
60656SOL    HW283808   9.158   2.728   6.673
60657SOL     OW83809  13.990   2.550   2.836
60657SOL    HW183810  14.078   2.513   2.846
60657SOL    HW283811  14.003   2.644   2.849
60658SOL     OW83812   5.851   1.348   6.362
60658SOL    HW183813   5.900   1.394   6.293
60658SOL    HW283814   5.900   1.366   6.442
60659SOL     OW83815   7.201  11.992   4.532
60659SOL    HW183816   7.199  12.084   4.558
60659SOL    HW283817   7.276  11.955   4.580
60660SOL     OW83818   6.550   2.079   4.678
60660SOL    HW183819   6.550   2.050   4.769
60660SOL    HW283820   6.629   2.132   4.669
60661SOL     OW83821   4.297   9.999   5.697
60661SOL    HW183822   4.231  10.068   5.703
60661SOL    HW283823   4.250   9.923   5.664
60662SOL     OW83824   1.334   1.031  10.836
60662SOL    HW183825   1.263   1.096  10.839
60662SOL    HW283826   1.349   1.016  10.742
60663SOL     OW83827   8.867  14.478   3.002
60663SOL    HW183828   8.876  14.545   3.070
60663SOL    HW283829   8.786  14.432   3.024
60664SOL     OW83830   3.994   9.282  10.587
60664SOL    HW183831   4.059   9.215  10.564
60664SOL    HW283832   4.045   9.355  10.622
60665SOL     OW83833   4.716   9.497   0.258
60665SOL    HW183834   4.742   9.408   0.282
60665SOL    HW283835   4.783   9.525   0.195
60666SOL     OW83836  14.424  10.298   5.775
60666SOL    HW183837  14.406  10.208   5.749
60666SOL    HW283838  14.423  10.296   5.871
60667SOL     OW83839   4.318   6.863   1.408
60667SOL    HW183840   4.338   6.853   1.501
60667SOL    HW283841   4.338   6.954   1.389
60668SOL     OW83842   9.543  14.867   5.743
60668SOL    HW183843   9.575  14.841   5.830
60668SOL    HW283844   9.467   0.040   5.761
60669SOL     OW83845  14.106   8.802  13.675
60669SOL    HW183846  14.194   8.814  13.639
60669SOL    HW283847  14.109   8.716  13.717
60670SOL     OW83848  12.285   1.720   1.606
60670SOL    HW183849  12.299   1.626   1.591
60670SOL    HW283850  12.330   1.762   1.532
60671SOL     OW83851   3.576  13.488  13.806
60671SOL    HW183852   3.569  13.478  13.711
60671SOL    HW283853   3.588  13.399  13.839
60672SOL     OW83854  12.266   6.618  11.125
60672SOL    HW183855  12.231   6.631  11.036
60672SOL    HW283856  12.270   6.523  11.135
60673SOL     OW83857  10.912   5.010  13.649
60673SOL    HW183858  10.950   4.944  13.707
60673SOL    HW283859  10.819   4.988  13.645
60674SOL     OW83860  13.849  11.882  14.074
60674SOL    HW183861  13.937  11.869  14.109
60674SOL    HW283862  13.793  11.882  14.151
60675SOL     OW83863  14.101   4.162   6.359
60675SOL    HW183864  14.036   4.232   6.359
60675SOL    HW283865  14.150   4.175   6.278
60676SOL     OW83866   6.586   6.738  14.455
60676SOL    HW183867   6.632   6.819  14.475
60676SOL    HW283868   6.571   6.697  14.540
60677SOL     OW83869   3.793   4.009   8.422
60677SOL    HW183870   3.888   4.005   8.439
60677SOL    HW283871   3.770   4.100   8.440
60678SOL     OW83872   5.588  13.002   5.489
60678SOL    HW183873   5.661  12.950   5.523
60678SOL    HW283874   5.564  13.060   5.560
60679SOL     OW83875   0.260   8.683  10.882
60679SOL    HW183876   0.342   8.632  10.885
60679SOL    HW283877   0.199   8.633  10.936
60680SOL     OW83878   0.699   3.865   4.162
60680SOL    HW183879   0.628   3.881   4.099
60680SOL    HW283880   0.723   3.952   4.193
60681SOL     OW83881   0.589   0.304   9.941
60681SOL    HW183882   0.602   0.230   9.881
60681SOL    HW283883   0.495   0.306   9.957
60682SOL     OW83884   0.707   5.792   3.243
60682SOL    HW183885   0.744   5.801   3.155
60682SOL    HW283886   0.654   5.870   3.255
60683SOL     OW83887   8.603   0.598  11.168
60683SOL    HW183888   8.521   0.646  11.177
60683SOL    HW283889   8.618   0.593  11.074
60684SOL     OW83890   0.640   6.682   3.013
60684SOL    HW183891   0.602   6.664   2.928
60684SOL    HW283892   0.721   6.630   3.015
60685SOL     OW83893   7.173   3.114   7.787
60685SOL    HW183894   7.105   3.079   7.729
60685SOL    HW283895   7.126   3.142   7.865
60686SOL     OW83896  13.039   9.585   1.254
60686SOL    HW183897  12.958   9.623   1.220
60686SOL    HW283898  13.012   9.542   1.335
60687SOL     OW83899   8.500   6.463   8.973
60687SOL    HW183900   8.587   6.441   8.938
60687SOL    HW283901   8.503   6.557   8.988
60688SOL     OW83902   1.982   3.839  10.393
60688SOL    HW183903   2.077   3.834  10.386
60688SOL    HW283904   1.966   3.892  10.471
60689SOL     OW83905   2.602  13.270   1.670
60689SOL    HW183906   2.650  13.194   1.637
60689SOL    HW283907   2.628  13.276   1.762
60690SOL     OW83908  11.241  12.300   2.340
60690SOL    HW183909  11.200  12.249   2.270
60690SOL    HW283910  11.259  12.385   2.301
60691SOL     OW83911   9.800  10.557   8.759
60691SOL    HW183912   9.830  10.528   8.845
60691SOL    HW283913   9.740  10.488   8.729
60692SOL     OW83914   8.534   0.012  11.089
60692SOL    HW183915   8.542   0.045  11.179
60692SOL    HW283916   8.582  14.812  11.089
60693SOL     OW83917   4.875   7.840  14.850
60693SOL    HW183918   4.846   7.754   0.000
60693SOL    HW283919   4.836   7.847  14.763
60694SOL     OW83920   4.324  13.432   9.694
60694SOL    HW183921   4.324  13.489   9.771
60694SOL    HW283922   4.243  13.456   9.647
60695SOL     OW83923   9.457  14.226  13.190
60695SOL    HW183924   9.486  14.170  13.118
60695SOL    HW283925   9.364  14.207  13.200
60696SOL     OW83926  10.503   2.948  14.618
60696SOL    HW183927  10.423   2.908  14.584
60696SOL    HW283928  10.568   2.934  14.549
60697SOL     OW83929   7.481   8.205   0.950
60697SOL    HW183930   7.460   8.140   0.883
60697SOL    HW283931   7.554   8.167   0.999
60698SOL     OW83932   2.693   2.336  10.919
60698SOL    HW183933   2.607   2.354  10.881
60698SOL    HW283934   2.730   2.267  10.864
60699SOL     OW83935  10.386   0.235  10.911
60699SOL    HW183936  10.387   0.194  10.824
60699SOL    HW283937  10.321   0.305  10.905
60700SOL     OW83938   9.785   1.224  12.310
60700SOL    HW183939   9.744   1.305  12.341
60700SOL    HW283940   9.778   1.229  12.215
60701SOL     OW83941   5.649   9.080   2.045
60701SOL    HW183942   5.559   9.103   2.023
60701SOL    HW283943   5.642   8.993   2.085
60702SOL     OW83944   1.042  11.668  13.599
60702SOL    HW183945   1.022  11.584  13.559
60702SOL    HW283946   1.050  11.729  13.525
60703SOL     OW83947  14.181   7.443   3.674
60703SOL    HW183948  14.122   7.371   3.650
60703SOL    HW283949  14.203   7.427   3.766
60704SOL     OW83950  13.779   7.971   1.243
60704SOL    HW183951  13.702   7.915   1.246
60704SOL    HW283952  13.771   8.018   1.160
60705SOL     OW83953   9.971   5.735  10.691
60705SOL    HW183954  10.046   5.699  10.643
60705SOL    HW283955  10.008   5.764  10.774
60706SOL     OW83956   6.615   8.237   4.669
60706SOL    HW183957   6.589   8.309   4.727
60706SOL    HW283958   6.546   8.233   4.603
60707SOL     OW83959   4.431   5.478   4.909
60707SOL    HW183960   4.436   5.419   4.835
60707SOL    HW283961   4.522   5.501   4.928
60708SOL     OW83962   4.454   1.284  11.076
60708SOL    HW183963   4.525   1.348  11.079
60708SOL    HW283964   4.499   1.200  11.062
60709SOL     OW83965   6.727  13.995   1.121
60709SOL    HW183966   6.783  14.064   1.087
60709SOL    HW283967   6.755  13.916   1.076
60710SOL     OW83968   5.386   3.746  10.946
60710SOL    HW183969   5.325   3.820  10.941
60710SOL    HW283970   5.467   3.778  10.907
60711SOL     OW83971  13.634   3.260  10.073
60711SOL    HW183972  13.678   3.211  10.143
60711SOL    HW283973  13.704   3.289  10.015
60712SOL     OW83974   9.915  13.921   9.937
60712SOL    HW183975   9.905  13.985  10.008
60712SOL    HW283976  10.000  13.879   9.955
60713SOL     OW83977   2.020   6.851   8.955
60713SOL    HW183978   2.063   6.803   8.884
60713SOL    HW283979   2.089   6.865   9.020
60714SOL     OW83980   1.681   6.022  13.899
60714SOL    HW183981   1.712   5.977  13.977
60714SOL    HW283982   1.596   6.058  13.924
60715SOL     OW83983  10.751   7.916  10.934
60715SOL    HW183984  10.700   7.878  11.005
60715SOL    HW283985  10.835   7.940  10.974
60716SOL     OW83986   8.069   6.261   8.161
60716SOL    HW183987   8.037   6.327   8.099
60716SOL    HW283988   8.091   6.312   8.240
60717SOL     OW83989   8.393   2.925   2.271
60717SOL    HW183990   8.457   2.860   2.300
60717SOL    HW283991   8.441   2.980   2.209
60718SOL     OW83992   2.188  12.862  14.867
60718SOL    HW183993   2.159  12.784   0.033
60718SOL    HW283994   2.121  12.928   0.004
60719SOL     OW83995   2.434  12.632   1.410
60719SOL    HW183996   2.470  12.545   1.394
60719SOL    HW283997   2.446  12.679   1.327
60720SOL     OW83998   1.630   8.024   4.022
60720SOL    HW183999   1.606   7.947   4.074
60720SOL    HW284000   1.562   8.088   4.042
60721SOL     OW84001   3.205  14.017   8.511
60721SOL    HW184002   3.170  14.031   8.423
60721SOL    HW284003   3.195  14.102   8.555
60722SOL     OW84004   0.350   8.272   2.886
60722SOL    HW184005   0.418   8.208   2.864
60722SOL    HW284006   0.329   8.315   2.803
60723SOL     OW84007   7.421  10.880   6.822
60723SOL    HW184008   7.413  10.898   6.728
60723SOL    HW284009   7.334  10.850   6.848
60724SOL     OW84010   0.373   6.106  12.438
60724SOL    HW184011   0.355   6.037  12.375
60724SOL    HW284012   0.423   6.063  12.508
60725SOL     OW84013   7.516   6.176   8.542
60725SOL    HW184014   7.561   6.125   8.609
60725SOL    HW284015   7.569   6.255   8.532
60726SOL     OW84016  11.158  12.944  13.325
60726SOL    HW184017  11.166  12.850  13.338
60726SOL    HW284018  11.247  12.978  13.337
60727SOL     OW84019   4.380   6.244   1.434
60727SOL    HW184020   4.372   6.150   1.417
60727SOL    HW284021   4.297   6.268   1.475
60728SOL     OW84022   7.966   0.322   4.178
60728SOL    HW184023   7.989   0.412   4.155
60728SOL    HW284024   7.991   0.314   4.270
60729SOL     OW84025  10.726   5.717   6.162
60729SOL    HW184026  10.774   5.787   6.118
60729SOL    HW284027  10.733   5.738   6.255
60730SOL     OW84028   9.985  14.510  12.315
60730SOL    HW184029  10.061  14.458  12.290
60730SOL    HW284030   9.912  14.473  12.266
60731SOL     OW84031   6.657   1.781   0.441
60731SOL    HW184032   6.738   1.779   0.389
60731SOL    HW284033   6.647   1.873   0.466
60732SOL     OW84034   4.116  13.430   9.026
60732SOL    HW184035   4.133  13.400   8.937
60732SOL    HW284036   4.109  13.525   9.020
60733SOL     OW84037  14.562   5.193   9.715
60733SOL    HW184038  14.607   5.111   9.693
60733SOL    HW284039  14.488   5.198   9.654
60734SOL     OW84040  11.818   8.110   9.849
60734SOL    HW184041  11.750   8.156   9.898
60734SOL    HW284042  11.786   8.019   9.843
60735SOL     OW84043   7.641  13.082   8.954
60735SOL    HW184044   7.714  13.111   8.899
60735SOL    HW284045   7.680  13.023   9.017
60736SOL     OW84046   4.830   6.455   3.442
60736SOL    HW184047   4.881   6.402   3.503
60736SOL    HW284048   4.807   6.533   3.491
60737SOL     OW84049   9.103   5.099  14.610
60737SOL    HW184050   9.115   5.173  14.669
60737SOL    HW284051   9.177   5.042  14.627
60738SOL     OW84052   3.943   5.966  12.818
60738SOL    HW184053   3.940   6.051  12.775
60738SOL    HW284054   3.857   5.956  12.858
60739SOL     OW84055  14.372  10.450   0.779
60739SOL    HW184056  14.376  10.514   0.708
60739SOL    HW284057  14.461  10.447   0.813
60740SOL     OW84058  12.775   9.812   9.237
60740SOL    HW184059  12.829   9.737   9.211
60740SOL    HW284060  12.810   9.838   9.322
60741SOL     OW84061   1.629   9.891   3.900
60741SOL    HW184062   1.648   9.966   3.956
60741SOL    HW284063   1.536   9.900   3.878
60742SOL     OW84064   8.259   8.345  10.001
60742SOL    HW184065   8.226   8.431   9.975
60742SOL    HW284066   8.182   8.298  10.032
60743SOL     OW84067   5.725   0.514   0.285
60743SOL    HW184068   5.798   0.564   0.248
60743SOL    HW284069   5.708   0.445   0.221
60744SOL     OW84070   7.958  11.394  12.546
60744SOL    HW184071   8.005  11.357  12.621
60744SOL    HW284072   7.881  11.338  12.536
60745SOL     OW84073   2.870   1.739  11.390
60745SOL    HW184074   2.798   1.753  11.328
60745SOL    HW284075   2.866   1.815  11.449
60746SOL     OW84076   2.710   0.407   9.981
60746SOL    HW184077   2.797   0.407   9.940
60746SOL    HW284078   2.675   0.494   9.964
60747SOL     OW84079   8.275   0.126   3.671
60747SOL    HW184080   8.190   0.165   3.692
60747SOL    HW284081   8.335   0.164   3.735
60748SOL     OW84082   6.429   9.757  11.123
60748SOL    HW184083   6.385   9.674  11.104
60748SOL    HW284084   6.359   9.822  11.124
60749SOL     OW84085  10.691  10.956   5.068
60749SOL    HW184086  10.712  10.867   5.099
60749SOL    HW284087  10.620  10.984   5.125
60750SOL     OW84088   4.482   7.300  13.857
60750SOL    HW184089   4.544   7.292  13.929
60750SOL    HW284090   4.396   7.293  13.898
60751SOL     OW84091  10.453   1.102   5.178
60751SOL    HW184092  10.376   1.046   5.175
60751SOL    HW284093  10.422   1.185   5.215
60752SOL     OW84094   0.099   5.045   6.150
60752SOL    HW184095   0.119   5.119   6.207
60752SOL    HW284096   0.072   4.975   6.211
60753SOL     OW84097  10.742  13.547  14.774
60753SOL    HW184098  10.784  13.478  14.825
60753SOL    HW284099  10.808  13.574  14.711
60754SOL     OW84100  11.290   9.411   4.457
60754SOL    HW184101  11.267   9.356   4.382
60754SOL    HW284102  11.213   9.466   4.471
60755SOL     OW84103   2.429   6.549   3.073
60755SOL    HW184104   2.496   6.616   3.061
60755SOL    HW284105   2.354   6.595   3.108
60756SOL     OW84106   1.161   9.254  14.219
60756SOL    HW184107   1.070   9.233  14.238
60756SOL    HW284108   1.167   9.249  14.124
60757SOL     OW84109  14.388  13.338   8.316
60757SOL    HW184110  14.356  13.414   8.363
60757SOL    HW284111  14.328  13.267   8.340
60758SOL     OW84112  13.275   1.171   3.522
60758SOL    HW184113  13.339   1.114   3.479
60758SOL    HW284114  13.326   1.221   3.586
60759SOL     OW84115   1.751  14.050  14.254
60759SOL    HW184116   1.672  14.005  14.285
60759SOL    HW284117   1.736  14.142  14.274
60760SOL     OW84118  12.683  10.409  14.026
60760SOL    HW184119  12.758  10.369  13.982
60760SOL    HW284120  12.702  10.503  14.025
60761SOL     OW84121  14.820  12.175   0.740
60761SOL    HW184122  14.873  12.127   0.803
60761SOL    HW284123  14.882  12.231   0.693
60762SOL     OW84124  12.281   0.189  13.352
60762SOL    HW184125  12.232   0.252  13.300
60762SOL    HW284126  12.248   0.201  13.442
60763SOL     OW84127   8.725  12.537  11.889
60763SOL    HW184128   8.813  12.505  11.867
60763SOL    HW284129   8.740  12.604  11.955
60764SOL     OW84130   3.684   8.553   6.706
60764SOL    HW184131   3.713   8.546   6.615
60764SOL    HW284132   3.667   8.463   6.733
60765SOL     OW84133   3.721  11.057   8.288
60765SOL    HW184134   3.678  10.980   8.250
60765SOL    HW284135   3.657  11.127   8.280
60766SOL     OW84136   5.170   1.259   9.546
60766SOL    HW184137   5.081   1.268   9.580
60766SOL    HW284138   5.181   1.334   9.488
60767SOL     OW84139   6.089  12.162   0.930
60767SOL    HW184140   6.061  12.231   0.990
60767SOL    HW284141   6.162  12.202   0.881
60768SOL     OW84142  10.761  13.793   0.302
60768SOL    HW184143  10.830  13.787   0.236
60768SOL    HW284144  10.737  13.703   0.320
60769SOL     OW84145   4.970   2.379  11.938
60769SOL    HW184146   4.966   2.372  12.033
60769SOL    HW284147   5.048   2.433  11.921
60770SOL     OW84148  12.709   7.443  14.365
60770SOL    HW184149  12.645   7.376  14.344
60770SOL    HW284150  12.786   7.420  14.312
60771SOL     OW84151  13.845  10.465   9.803
60771SOL    HW184152  13.787  10.524   9.851
60771SOL    HW284153  13.906  10.433   9.870
60772SOL     OW84154  14.654  11.032   0.655
60772SOL    HW184155  14.634  11.053   0.564
60772SOL    HW284156  14.571  11.001   0.691
60773SOL     OW84157   7.775   4.000  11.525
60773SOL    HW184158   7.837   4.063  11.561
60773SOL    HW284159   7.728   4.048  11.457
60774SOL     OW84160  14.388   3.943  11.021
60774SOL    HW184161  14.454   4.001  11.060
60774SOL    HW284162  14.372   3.980  10.934
60775SOL     OW84163  12.879  10.626   5.931
60775SOL    HW184164  12.965  10.649   5.967
60775SOL    HW284165  12.897  10.558   5.867
60776SOL     OW84166   3.332   7.013  13.449
60776SOL    HW184167   3.333   7.052  13.362
60776SOL    HW284168   3.240   7.011  13.473
60777SOL     OW84169  13.732   3.658   8.239
60777SOL    HW184170  13.697   3.612   8.163
60777SOL    HW284171  13.668   3.643   8.308
60778SOL     OW84172   2.224   1.390   4.877
60778SOL    HW184173   2.142   1.434   4.896
60778SOL    HW284174   2.235   1.327   4.949
60779SOL     OW84175   6.051   3.427   0.842
60779SOL    HW184176   6.004   3.483   0.904
60779SOL    HW284177   6.061   3.481   0.763
60780SOL     OW84178  10.475   8.548  12.797
60780SOL    HW184179  10.442   8.495  12.870
60780SOL    HW284180  10.570   8.546  12.807
60781SOL     OW84181  13.924  13.043   8.082
60781SOL    HW184182  13.869  12.966   8.095
60781SOL    HW284183  13.895  13.105   8.149
60782SOL     OW84184  13.125   2.702  12.127
60782SOL    HW184185  13.192   2.634  12.119
60782SOL    HW284186  13.139   2.758  12.050
60783SOL     OW84187  12.565  14.708   9.552
60783SOL    HW184188  12.572  14.622   9.594
60783SOL    HW284189  12.492  14.751   9.597
60784SOL     OW84190   3.479   5.228   4.098
60784SOL    HW184191   3.543   5.267   4.157
60784SOL    HW284192   3.497   5.270   4.013
60785SOL     OW84193   9.024   5.914   4.294
60785SOL    HW184194   9.080   5.867   4.356
60785SOL    HW284195   9.013   6.000   4.333
60786SOL     OW84196  11.932  10.586   9.261
60786SOL    HW184197  12.023  10.599   9.232
60786SOL    HW284198  11.888  10.668   9.239
60787SOL     OW84199  14.598   1.228  11.358
60787SOL    HW184200  14.552   1.223  11.442
60787SOL    HW284201  14.587   1.319  11.330
60788SOL     OW84202  11.084  13.462   8.593
60788SOL    HW184203  10.990  13.477   8.581
60788SOL    HW284204  11.089  13.403   8.668
60789SOL     OW84205   4.783   6.057  12.192
60789SOL    HW184206   4.837   6.061  12.270
60789SOL    HW284207   4.846   6.053  12.119
60790SOL     OW84208   1.794   9.361   9.343
60790SOL    HW184209   1.781   9.429   9.408
60790SOL    HW284210   1.757   9.397   9.263
60791SOL     OW84211   5.644  14.136   1.744
60791SOL    HW184212   5.645  14.058   1.800
60791SOL    HW284213   5.551  14.150   1.725
60792SOL     OW84214  12.639   1.389   0.286
60792SOL    HW184215  12.678   1.436   0.360
60792SOL    HW284216  12.660   1.297   0.303
60793SOL     OW84217   0.338  14.323   8.088
60793SOL    HW184218   0.362  14.384   8.019
60793SOL    HW284219   0.384  14.354   8.166
60794SOL     OW84220   3.604   6.347   7.226
60794SOL    HW184221   3.517   6.364   7.262
60794SOL    HW284222   3.588   6.319   7.136
60795SOL     OW84223   8.299   5.564   9.113
60795SOL    HW184224   8.291   5.652   9.151
60795SOL    HW284225   8.239   5.565   9.039
60796SOL     OW84226   0.168   2.432  13.789
60796SOL    HW184227   0.206   2.472  13.711
60796SOL    HW284228   0.179   2.338  13.776
60797SOL     OW84229   5.433   4.837   3.542
60797SOL    HW184230   5.432   4.910   3.480
60797SOL    HW284231   5.402   4.762   3.491
60798SOL     OW84232   9.804  10.860   2.551
60798SOL    HW184233   9.878  10.919   2.566
60798SOL    HW284234   9.782  10.825   2.637
60799SOL     OW84235   8.834   7.935   3.666
60799SOL    HW184236   8.833   7.917   3.572
60799SOL    HW284237   8.908   7.885   3.699
60800SOL     OW84238   6.574  11.897   5.069
60800SOL    HW184239   6.593  11.863   5.156
60800SOL    HW284240   6.631  11.846   5.011
60801SOL     OW84241   5.224   2.972   6.786
60801SOL    HW184242   5.319   2.973   6.797
60801SOL    HW284243   5.200   3.064   6.779
60802SOL     OW84244   5.579   3.209   2.777
60802SOL    HW184245   5.528   3.143   2.824
60802SOL    HW284246   5.636   3.247   2.843
60803SOL     OW84247   7.388  10.008   7.850
60803SOL    HW184248   7.362  10.065   7.922
60803SOL    HW284249   7.399   9.922   7.890
60804SOL     OW84250   0.942  13.094   1.543
60804SOL    HW184251   0.847  13.098   1.532
60804SOL    HW284252   0.955  13.082   1.637
60805SOL     OW84253   7.387   4.071  13.367
60805SOL    HW184254   7.395   3.991  13.315
60805SOL    HW284255   7.307   4.113  13.335
60806SOL     OW84256   4.169  10.742  14.095
60806SOL    HW184257   4.175  10.833  14.067
60806SOL    HW284258   4.085  10.711  14.059
60807SOL     OW84259   4.619  14.597   0.758
60807SOL    HW184260   4.615  14.519   0.813
60807SOL    HW284261   4.693  14.582   0.699
60808SOL     OW84262  12.406   5.748   4.647
60808SOL    HW184263  12.375   5.698   4.722
60808SOL    HW284264  12.500   5.759   4.663
60809SOL     OW84265   9.781   4.972   1.865
60809SOL    HW184266   9.755   4.881   1.879
60809SOL    HW284267   9.813   5.000   1.951
60810SOL     OW84268  10.245   2.464   5.216
60810SOL    HW184269  10.286   2.514   5.145
60810SOL    HW284270  10.201   2.530   5.269
60811SOL     OW84271  14.825   9.219   5.574
60811SOL    HW184272  14.766   9.145   5.559
60811SOL    HW284273  14.773   9.280   5.627
60812SOL     OW84274   9.622  14.569  11.436
60812SOL    HW184275   9.662  14.501  11.490
60812SOL    HW284276   9.636  14.540  11.346
60813SOL     OW84277  13.761   3.910  11.719
60813SOL    HW184278  13.750   3.837  11.779
60813SOL    HW284279  13.805   3.977  11.770
60814SOL     OW84280   0.025   2.915   1.657
60814SOL    HW184281   0.098   2.897   1.716
60814SOL    HW284282  14.832   2.926   1.714
60815SOL     OW84283   1.073   4.534   2.101
60815SOL    HW184284   1.054   4.513   2.010
60815SOL    HW284285   1.138   4.605   2.096
60816SOL     OW84286   4.618   2.000   7.038
60816SOL    HW184287   4.668   1.919   7.050
60816SOL    HW284288   4.607   2.008   6.944
60817SOL     OW84289   9.075  12.083  14.261
60817SOL    HW184290   9.089  11.995  14.295
60817SOL    HW284291   9.140  12.137  14.305
60818SOL     OW84292   8.963   0.771   0.287
60818SOL    HW184293   9.006   0.748   0.204
60818SOL    HW284294   8.877   0.730   0.281
60819SOL     OW84295   3.756   7.909   4.657
60819SOL    HW184296   3.755   7.820   4.622
60819SOL    HW284297   3.819   7.905   4.730
60820SOL     OW84298   0.117   9.640   8.103
60820SOL    HW184299   0.029   9.660   8.135
60820SOL    HW284300   0.157   9.588   8.172
60821SOL     OW84301   4.680   6.731  12.949
60821SOL    HW184302   4.622   6.655  12.957
60821SOL    HW284303   4.622   6.803  12.926
60822SOL     OW84304   1.582  14.361  11.179
60822SOL    HW184305   1.665  14.405  11.201
60822SOL    HW284306   1.603  14.308  11.102
60823SOL     OW84307   5.916   1.433  13.989
60823SOL    HW184308   5.855   1.363  14.010
60823SOL    HW284309   5.900   1.452  13.896
60824SOL     OW84310   8.238  10.911   2.171
60824SOL    HW184311   8.194  10.826   2.166
60824SOL    HW284312   8.267  10.928   2.081
60825SOL     OW84313   0.209   6.320   9.428
60825SOL    HW184314   0.188   6.227   9.432
60825SOL    HW284315   0.130   6.362   9.394
60826SOL     OW84316   4.135   1.296   5.099
60826SOL    HW184317   4.131   1.210   5.057
60826SOL    HW284318   4.045   1.315   5.124
60827SOL     OW84319   6.982   9.806   6.838
60827SOL    HW184320   6.990   9.803   6.743
60827SOL    HW284321   7.041   9.877   6.865
60828SOL     OW84322   2.923   7.982  13.017
60828SOL    HW184323   2.968   7.934  12.947
60828SOL    HW284324   2.836   7.943  13.020
60829SOL     OW84325   9.917   6.373  12.756
60829SOL    HW184326  10.007   6.360  12.788
60829SOL    HW284327   9.905   6.305  12.690
60830SOL     OW84328  14.271   6.093   3.068
60830SOL    HW184329  14.184   6.097   3.027
60830SOL    HW284330  14.323   6.039   3.009
60831SOL     OW84331   4.069   7.958   6.659
60831SOL    HW184332   4.003   7.998   6.603
60831SOL    HW284333   4.050   7.991   6.747
60832SOL     OW84334   4.455   7.362   4.159
60832SOL    HW184335   4.455   7.277   4.202
60832SOL    HW284336   4.363   7.378   4.139
60833SOL     OW84337   2.643   1.627  11.779
60833SOL    HW184338   2.589   1.646  11.856
60833SOL    HW284339   2.730   1.609  11.815
60834SOL     OW84340  11.273  12.480   2.978
60834SOL    HW184341  11.363  12.502   3.003
60834SOL    HW284342  11.260  12.391   3.011
60835SOL     OW84343  12.344  13.737  11.249
60835SOL    HW184344  12.384  13.652  11.230
60835SOL    HW284345  12.319  13.771  11.163
60836SOL     OW84346   3.969   0.590   3.654
60836SOL    HW184347   3.882   0.559   3.629
60836SOL    HW284348   3.959   0.684   3.665
60837SOL     OW84349   9.308  10.919  12.560
60837SOL    HW184350   9.242  10.927  12.629
60837SOL    HW284351   9.373  10.859  12.597
60838SOL     OW84352   0.280   7.726  14.143
60838SOL    HW184353   0.248   7.733  14.233
60838SOL    HW284354   0.333   7.805  14.130
60839SOL     OW84355  14.354   8.974   6.452
60839SOL    HW184356  14.356   9.045   6.387
60839SOL    HW284357  14.332   8.896   6.401
60840SOL     OW84358   2.913  14.330   8.068
60840SOL    HW184359   2.978  14.398   8.051
60840SOL    HW284360   2.895  14.291   7.982
60841SOL     OW84361  13.498  12.923  13.271
60841SOL    HW184362  13.583  12.938  13.229
60841SOL    HW284363  13.473  12.835  13.241
60842SOL     OW84364   5.667   4.201  10.365
60842SOL    HW184365   5.590   4.144  10.369
60842SOL    HW284366   5.637   4.277  10.314
60843SOL     OW84367   9.918   5.511   3.579
60843SOL    HW184368   9.848   5.514   3.514
60843SOL    HW284369   9.880   5.553   3.657
60844SOL     OW84370   7.816  13.004   3.063
60844SOL    HW184371   7.868  13.034   3.138
60844SOL    HW284372   7.810  12.909   3.076
60845SOL     OW84373   6.863   1.005   3.157
60845SOL    HW184374   6.920   0.927   3.156
60845SOL    HW284375   6.774   0.969   3.159
60846SOL     OW84376  12.057   0.995   7.790
60846SOL    HW184377  12.106   0.919   7.821
60846SOL    HW284378  12.051   0.983   7.695
60847SOL     OW84379   2.348   7.181   1.468
60847SOL    HW184380   2.332   7.117   1.398
60847SOL    HW284381   2.443   7.180   1.480
60848SOL     OW84382  13.329  13.739   9.394
60848SOL    HW184383  13.363  13.678   9.329
60848SOL    HW284384  13.401  13.799   9.412
60849SOL     OW84385   4.002   0.184   3.659
60849SOL    HW184386   3.954   0.180   3.742
60849SOL    HW284387   4.076   0.125   3.671
60850SOL     OW84388  14.160  13.696  13.061
60850SOL    HW184389  14.247  13.716  13.026
60850SOL    HW284390  14.171  13.614  13.108
60851SOL     OW84391   0.253   0.265   3.766
60851SOL    HW184392   0.293   0.351   3.775
60851SOL    HW284393   0.201   0.270   3.685
60852SOL     OW84394   6.470   8.177   8.162
60852SOL    HW184395   6.482   8.209   8.072
60852SOL    HW284396   6.398   8.114   8.156
60853SOL     OW84397   9.899   0.402   3.210
60853SOL    HW184398   9.938   0.412   3.297
60853SOL    HW284399   9.965   0.437   3.150
60854SOL     OW84400  13.027   4.175   8.109
60854SOL    HW184401  13.016   4.146   8.019
60854SOL    HW284402  13.107   4.132   8.139
60855SOL     OW84403   9.357  11.686   4.277
60855SOL    HW184404   9.281  11.688   4.335
60855SOL    HW284405   9.342  11.610   4.221
60856SOL     OW84406  14.590  14.642  13.192
60856SOL    HW184407  14.680  14.639  13.224
60856SOL    HW284408  14.593  14.698  13.115
60857SOL     OW84409   6.398  12.664  12.810
60857SOL    HW184410   6.325  12.697  12.757
60857SOL    HW284411   6.452  12.615  12.748
60858SOL     OW84412   3.211   0.130  14.338
60858SOL    HW184413   3.275   0.122  14.409
60858SOL    HW284414   3.136   0.079  14.367
60859SOL     OW84415   3.024   2.003   3.411
60859SOL    HW184416   3.042   1.972   3.322
60859SOL    HW284417   2.934   1.975   3.428
60860SOL     OW84418   8.284  14.672   8.933
60860SOL    HW184419   8.317  14.595   8.978
60860SOL    HW284420   8.189  14.663   8.936
60861SOL     OW84421   3.505  11.548  13.831
60861SOL    HW184422   3.424  11.562  13.880
60861SOL    HW284423   3.570  11.601  13.877
60862SOL     OW84424  14.074   1.770   6.169
60862SOL    HW184425  14.083   1.793   6.077
60862SOL    HW284426  13.998   1.711   6.172
60863SOL     OW84427   1.842  13.431   8.002
60863SOL    HW184428   1.934  13.457   8.006
60863SOL    HW284429   1.793  13.513   8.000
60864SOL     OW84430  12.535   7.662  12.357
60864SOL    HW184431  12.605   7.686  12.296
60864SOL    HW284432  12.525   7.568  12.347
60865SOL     OW84433   9.270  11.873   3.053
60865SOL    HW184434   9.208  11.934   3.093
60865SOL    HW284435   9.355  11.899   3.088
60866SOL     OW84436  12.871   2.042   4.321
60866SOL    HW184437  12.878   2.127   4.277
60866SOL    HW284438  12.889   2.062   4.414
60867SOL     OW84439  11.258  10.009  13.443
60867SOL    HW184440  11.194   9.978  13.507
60867SOL    HW284441  11.308  10.076  13.490
60868SOL     OW84442   8.929  14.324  14.337
60868SOL    HW184443   8.960  14.375  14.262
60868SOL    HW284444   8.978  14.242  14.333
60869SOL     OW84445   4.168   8.929   3.179
60869SOL    HW184446   4.179   8.900   3.089
60869SOL    HW284447   4.098   8.875   3.214
60870SOL     OW84448   2.817   9.750   9.585
60870SOL    HW184449   2.787   9.826   9.535
60870SOL    HW284450   2.810   9.777   9.677
60871SOL     OW84451   3.025   0.026   1.241
60871SOL    HW184452   2.970   0.034   1.319
60871SOL    HW284453   3.046  14.814   1.237
60872SOL     OW84454  13.020  12.285   0.283
60872SOL    HW184455  13.065  12.339   0.218
60872SOL    HW284456  13.086  12.266   0.349
60873SOL     OW84457  12.241   9.609  14.805
60873SOL    HW184458  12.227   9.514  14.799
60873SOL    HW284459  12.158   9.647  14.774
60874SOL     OW84460  11.642  14.452  11.244
60874SOL    HW184461  11.550  14.428  11.252
60874SOL    HW284462  11.679  14.437  11.331
60875SOL     OW84463   8.224   2.470   9.963
60875SOL    HW184464   8.167   2.393   9.958
60875SOL    HW284465   8.212   2.514   9.880
60876SOL     OW84466   1.579   8.963   9.153
60876SOL    HW184467   1.614   8.874   9.151
60876SOL    HW284468   1.653   9.018   9.179
60877SOL     OW84469   3.576   9.785   2.046
60877SOL    HW184470   3.554   9.762   2.136
60877SOL    HW284471   3.534   9.871   2.033
60878SOL     OW84472  13.436  13.395   5.434
60878SOL    HW184473  13.451  13.426   5.345
60878SOL    HW284474  13.403  13.306   5.423
60879SOL     OW84475  10.049  11.433   9.081
60879SOL    HW184476   9.966  11.416   9.125
60879SOL    HW284477  10.077  11.348   9.048
60880SOL     OW84478  10.714   4.221   6.656
60880SOL    HW184479  10.703   4.135   6.615
60880SOL    HW284480  10.769   4.269   6.594
60881SOL     OW84481  13.437  12.017   4.410
60881SOL    HW184482  13.393  12.100   4.392
60881SOL    HW284483  13.523  12.026   4.371
60882SOL     OW84484   1.742   4.496   5.258
60882SOL    HW184485   1.748   4.495   5.353
60882SOL    HW284486   1.688   4.572   5.237
60883SOL     OW84487   1.445  10.736  12.839
60883SOL    HW184488   1.376  10.802  12.829
60883SOL    HW284489   1.526  10.786  12.835
60884SOL     OW84490   3.907   0.818   9.749
60884SOL    HW184491   3.826   0.867   9.761
60884SOL    HW284492   3.886   0.728   9.774
60885SOL     OW84493   3.981  12.461  10.825
60885SOL    HW184494   3.914  12.403  10.790
60885SOL    HW284495   3.981  12.536  10.767
60886SOL     OW84496  14.724   8.364  11.021
60886SOL    HW184497  14.716   8.293  10.957
60886SOL    HW284498  14.653   8.346  11.084
60887SOL     OW84499   3.415   9.353   8.771
60887SOL    HW184500   3.419   9.443   8.804
60887SOL    HW284501   3.433   9.361   8.678
60888SOL     OW84502  13.781   5.207   2.006
60888SOL    HW184503  13.719   5.228   2.076
60888SOL    HW284504  13.867   5.231   2.041
60889SOL     OW84505   9.469  12.002  13.601
60889SOL    HW184506   9.498  11.969  13.686
60889SOL    HW284507   9.374  11.994  13.603
60890SOL     OW84508  10.804   6.841   8.913
60890SOL    HW184509  10.862   6.773   8.948
60890SOL    HW284510  10.842   6.923   8.944
60891SOL     OW84511   2.907  11.367   8.002
60891SOL    HW184512   2.979  11.420   8.036
60891SOL    HW284513   2.830  11.423   8.009
60892SOL     OW84514   7.250   6.498   6.500
60892SOL    HW184515   7.155   6.492   6.493
60892SOL    HW284516   7.272   6.442   6.574
60893SOL     OW84517  13.682   0.430   5.899
60893SOL    HW184518  13.630   0.510   5.891
60893SOL    HW284519  13.764   0.450   5.853
60894SOL     OW84520   6.338   9.170  11.762
60894SOL    HW184521   6.384   9.112  11.824
60894SOL    HW284522   6.407   9.228  11.729
60895SOL     OW84523  10.261  14.770   5.046
60895SOL    HW184524  10.177  14.802   5.079
60895SOL    HW284525  10.238  14.692   4.996
60896SOL     OW84526   0.676   7.917   4.300
60896SOL    HW184527   0.712   7.959   4.222
60896SOL    HW284528   0.632   7.838   4.267
60897SOL     OW84529   4.125   2.996   5.190
60897SOL    HW184530   4.180   3.017   5.266
60897SOL    HW284531   4.114   2.901   5.193
60898SOL     OW84532   0.033   2.450   8.841
60898SOL    HW184533   0.011   2.540   8.818
60898SOL    HW284534  14.880   2.397   8.770
60899SOL     OW84535   6.154  10.257   8.905
60899SOL    HW184536   6.104  10.209   8.971
60899SOL    HW284537   6.237  10.277   8.948
60900SOL     OW84538   8.449   2.732  12.783
60900SOL    HW184539   8.421   2.743  12.692
60900SOL    HW284540   8.489   2.816  12.806
60901SOL     OW84541   9.708   0.806   1.448
60901SOL    HW184542   9.722   0.898   1.468
60901SOL    HW284543   9.787   0.762   1.478
60902SOL     OW84544  11.201   2.315   4.792
60902SOL    HW184545  11.111   2.328   4.763
60902SOL    HW284546  11.224   2.398   4.834
60903SOL     OW84547  11.560   2.320   2.753
60903SOL    HW184548  11.585   2.230   2.733
60903SOL    HW284549  11.480   2.335   2.703
60904SOL     OW84550   1.248  12.957   9.453
60904SOL    HW184551   1.156  12.935   9.444
60904SOL    HW284552   1.261  13.030   9.392
60905SOL     OW84553  11.883   8.595   6.814
60905SOL    HW184554  11.790   8.576   6.817
60905SOL    HW284555  11.911   8.564   6.727
60906SOL     OW84556   1.208  11.782  12.733
60906SOL    HW184557   1.118  11.801  12.760
60906SOL    HW284558   1.204  11.777  12.637
60907SOL     OW84559   8.722  11.214   8.875
60907SOL    HW184560   8.709  11.120   8.888
60907SOL    HW284561   8.760  11.244   8.958
60908SOL     OW84562   2.252   3.867  10.302
60908SOL    HW184563   2.279   3.852  10.211
60908SOL    HW284564   2.331   3.851  10.353
60909SOL     OW84565   3.254   7.429  11.568
60909SOL    HW184566   3.217   7.458  11.484
60909SOL    HW284567   3.334   7.480  11.579
60910SOL     OW84568   4.821   8.925  14.097
60910SOL    HW184569   4.897   8.904  14.043
60910SOL    HW284570   4.783   9.002  14.055
60911SOL     OW84571   9.359   3.872  12.636
60911SOL    HW184572   9.274   3.847  12.673
60911SOL    HW284573   9.337   3.926  12.559
60912SOL     OW84574   6.058   2.577   5.621
60912SOL    HW184575   6.065   2.671   5.605
60912SOL    HW284576   5.963   2.561   5.627
60913SOL     OW84577   1.340   7.859  10.812
60913SOL    HW184578   1.290   7.785  10.777
60913SOL    HW284579   1.360   7.913  10.735
60914SOL     OW84580  13.718   2.431   8.800
60914SOL    HW184581  13.654   2.501   8.784
60914SOL    HW284582  13.689   2.392   8.883
60915SOL     OW84583  10.392   4.091   8.864
60915SOL    HW184584  10.416   4.097   8.771
60915SOL    HW284585  10.475   4.076   8.909
60916SOL     OW84586   4.935   1.955   3.800
60916SOL    HW184587   4.858   1.898   3.803
60916SOL    HW284588   4.909   2.033   3.848
60917SOL     OW84589   0.500  10.941   2.044
60917SOL    HW184590   0.581  10.906   2.006
60917SOL    HW284591   0.523  10.962   2.134
60918SOL     OW84592   5.823   4.011  13.770
60918SOL    HW184593   5.832   3.957  13.691
60918SOL    HW284594   5.752   4.072  13.751
60919SOL     OW84595  13.656  12.376  10.608
60919SOL    HW184596  13.625  12.463  10.631
60919SOL    HW284597  13.719  12.390  10.537
60920SOL     OW84598  11.254   2.583  11.511
60920SOL    HW184599  11.259   2.511  11.448
60920SOL    HW284600  11.164   2.613  11.506
60921SOL     OW84601   9.544   5.990  14.449
60921SOL    HW184602   9.593   5.913  14.421
60921SOL    HW284603   9.453   5.969  14.429
60922SOL     OW84604   3.630  11.460   4.927
60922SOL    HW184605   3.596  11.513   4.855
60922SOL    HW284606   3.678  11.523   4.982
60923SOL     OW84607   7.064   2.640  13.859
60923SOL    HW184608   7.073   2.653  13.953
60923SOL    HW284609   7.143   2.681  13.822
60924SOL     OW84610  14.205  12.713   0.272
60924SOL    HW184611  14.291  12.743   0.302
60924SOL    HW284612  14.162  12.792   0.239
60925SOL     OW84613  14.329   8.073  14.439
60925SOL    HW184614  14.270   8.142  14.468
60925SOL    HW284615  14.390   8.116  14.379
60926SOL     OW84616   4.777  10.669  11.040
60926SOL    HW184617   4.736  10.686  11.124
60926SOL    HW284618   4.771  10.574  11.028
60927SOL     OW84619   1.852   1.833   2.416
60927SOL    HW184620   1.874   1.903   2.355
60927SOL    HW284621   1.859   1.753   2.364
60928SOL     OW84622  13.869   3.784   6.370
60928SOL    HW184623  13.833   3.869   6.347
60928SOL    HW284624  13.963   3.793   6.358
60929SOL     OW84625   6.607  12.913  13.254
60929SOL    HW184626   6.634  12.869  13.173
60929SOL    HW284627   6.515  12.936  13.238
60930SOL     OW84628   6.739   8.594   0.087
60930SOL    HW184629   6.662   8.618   0.139
60930SOL    HW284630   6.813   8.618   0.142
60931SOL     OW84631  10.732   4.192   5.288
60931SOL    HW184632  10.794   4.159   5.222
60931SOL    HW284633  10.653   4.213   5.239
60932SOL     OW84634   4.331   3.334   0.978
60932SOL    HW184635   4.354   3.382   0.898
60932SOL    HW284636   4.393   3.260   0.980
60933SOL     OW84637  11.172  13.252  10.919
60933SOL    HW184638  11.209  13.336  10.945
60933SOL    HW284639  11.247  13.202  10.885
60934SOL     OW84640  13.823  14.514   0.451
60934SOL    HW184641  13.802  14.607   0.457
60934SOL    HW284642  13.794  14.489   0.364
60935SOL     OW84643  12.222   8.083  14.859
60935SOL    HW184644  12.312   8.107  14.881
60935SOL    HW284645  12.225   8.065  14.765
60936SOL     OW84646   9.780  10.898  14.780
60936SOL    HW184647   9.709  10.837  14.764
60936SOL    HW284648   9.849  10.872  14.719
60937SOL     OW84649  11.871   7.596   5.225
60937SOL    HW184650  11.940   7.627   5.284
60937SOL    HW284651  11.803   7.663   5.228
60938SOL     OW84652   9.024   6.148   5.702
60938SOL    HW184653   8.931   6.159   5.684
60938SOL    HW284654   9.062   6.233   5.683
60939SOL     OW84655   8.558  12.672   6.444
60939SOL    HW184656   8.526  12.590   6.407
60939SOL    HW284657   8.643  12.649   6.483
60940SOL     OW84658  10.476   7.507   0.111
60940SOL    HW184659  10.562   7.516   0.152
60940SOL    HW284660  10.490   7.445   0.039
60941SOL     OW84661   3.133   5.998  12.569
60941SOL    HW184662   3.177   6.069  12.523
60941SOL    HW284663   3.099   5.941  12.500
60942SOL     OW84664  12.691   1.718   9.685
60942SOL    HW184665  12.658   1.654   9.623
60942SOL    HW284666  12.692   1.673   9.770
60943SOL     OW84667  12.565   6.999  11.619
60943SOL    HW184668  12.564   7.092  11.594
60943SOL    HW284669  12.494   6.960  11.567
60944SOL     OW84670   4.872  11.122   0.071
60944SOL    HW184671   4.893  11.213   0.052
60944SOL    HW284672   4.891  11.075  14.872
60945SOL     OW84673   1.208  12.251  10.552
60945SOL    HW184674   1.297  12.266  10.585
60945SOL    HW284675   1.193  12.157  10.564
60946SOL     OW84676   2.500   8.459  10.423
60946SOL    HW184677   2.524   8.527  10.360
60946SOL    HW284678   2.513   8.500  10.508
60947SOL     OW84679   8.772   0.990   5.976
60947SOL    HW184680   8.863   0.971   5.953
60947SOL    HW284681   8.727   0.907   5.964
60948SOL     OW84682   1.657   2.151   7.106
60948SOL    HW184683   1.660   2.080   7.170
60948SOL    HW284684   1.664   2.231   7.158
60949SOL     OW84685  13.097  11.811   5.638
60949SOL    HW184686  13.038  11.880   5.611
60949SOL    HW284687  13.108  11.824   5.732
60950SOL     OW84688  14.729   2.351   1.251
60950SOL    HW184689  14.701   2.442   1.265
60950SOL    HW284690  14.652   2.307   1.216
60951SOL     OW84691  11.202   2.527   8.100
60951SOL    HW184692  11.183   2.605   8.152
60951SOL    HW284693  11.189   2.454   8.161
60952SOL     OW84694  12.432   8.154   5.621
60952SOL    HW184695  12.510   8.206   5.639
60952SOL    HW284696  12.359   8.216   5.627
60953SOL     OW84697   6.332   5.163  13.786
60953SOL    HW184698   6.306   5.248  13.820
60953SOL    HW284699   6.344   5.177  13.692
60954SOL     OW84700   7.451  11.488   6.388
60954SOL    HW184701   7.390  11.559   6.405
60954SOL    HW284702   7.444  11.472   6.294
60955SOL     OW84703   3.728  10.678   4.639
60955SOL    HW184704   3.799  10.736   4.667
60955SOL    HW284705   3.770  10.594   4.625
60956SOL     OW84706  11.649  11.546   1.346
60956SOL    HW184707  11.731  11.567   1.391
60956SOL    HW284708  11.647  11.450   1.344
60957SOL     OW84709   0.599   4.173   7.209
60957SOL    HW184710   0.641   4.184   7.294
60957SOL    HW284711   0.507   4.193   7.225
60958SOL     OW84712   5.460   6.087   8.271
60958SOL    HW184713   5.518   6.075   8.196
60958SOL    HW284714   5.467   6.006   8.320
60959SOL     OW84715  14.333   8.137  12.595
60959SOL    HW184716  14.275   8.069  12.629
60959SOL    HW284717  14.362   8.186  12.673
60960SOL     OW84718   5.581   4.719   9.080
60960SOL    HW184719   5.606   4.676   8.998
60960SOL    HW284720   5.534   4.798   9.052
60961SOL     OW84721  14.758   9.939  12.490
60961SOL    HW184722  14.778   9.862  12.543
60961SOL    HW284723  14.816   9.933  12.414
60962SOL     OW84724  10.971   7.418   8.673
60962SOL    HW184725  10.906   7.373   8.726
60962SOL    HW284726  10.920   7.457   8.601
60963SOL     OW84727   0.041  12.904  13.852
60963SOL    HW184728  14.851  12.964  13.873
60963SOL    HW284729  14.881  12.832  13.805
60964SOL     OW84730   3.886  13.564   4.811
60964SOL    HW184731   3.952  13.551   4.878
60964SOL    HW284732   3.914  13.643   4.764
60965SOL     OW84733   3.775  11.883   3.182
60965SOL    HW184734   3.857  11.838   3.163
60965SOL    HW284735   3.774  11.958   3.122
60966SOL     OW84736   8.954   9.019  10.745
60966SOL    HW184737   8.979   8.927  10.730
60966SOL    HW284738   8.890   9.015  10.817
60967SOL     OW84739   6.459   8.194   5.376
60967SOL    HW184740   6.454   8.246   5.456
60967SOL    HW284741   6.388   8.226   5.322
60968SOL     OW84742   9.192  10.873  13.708
60968SOL    HW184743   9.176  10.819  13.631
60968SOL    HW284744   9.270  10.924  13.686
60969SOL     OW84745   0.034  11.369   8.596
60969SOL    HW184746   0.074  11.446   8.636
60969SOL    HW284747  14.839  11.402   8.550
60970SOL     OW84748   9.655  11.058   9.646
60970SOL    HW184749   9.719  11.032   9.712
60970SOL    HW284750   9.589  11.106   9.695
60971SOL     OW84751  10.702   7.904  10.265
60971SOL    HW184752  10.615   7.911  10.304
60971SOL    HW284753  10.718   7.809  10.258
60972SOL     OW84754   3.613   4.705  10.018
60972SOL    HW184755   3.628   4.658   9.936
60972SOL    HW284756   3.531   4.751  10.005
60973SOL     OW84757   4.227   3.855   7.182
60973SOL    HW184758   4.230   3.847   7.087
60973SOL    HW284759   4.318   3.842   7.209
60974SOL     OW84760   3.014  11.255   9.106
60974SOL    HW184761   3.019  11.233   9.013
60974SOL    HW284762   3.041  11.176   9.152
60975SOL     OW84763   1.748   3.607  13.317
60975SOL    HW184764   1.832   3.623  13.274
60975SOL    HW284765   1.737   3.512  13.314
60976SOL     OW84766  10.153   0.411   0.593
60976SOL    HW184767  10.189   0.496   0.617
60976SOL    HW284768  10.220   0.372   0.535
60977SOL     OW84769  13.264   2.497  10.324
60977SOL    HW184770  13.280   2.592  10.328
60977SOL    HW284771  13.225   2.483  10.237
60978SOL     OW84772   3.059   9.816  11.763
60978SOL    HW184773   3.118   9.761  11.712
60978SOL    HW284774   3.109   9.896  11.780
60979SOL     OW84775   0.070  12.453   5.199
60979SOL    HW184776   0.088  12.546   5.192
60979SOL    HW284777   0.136  12.411   5.144
60980SOL     OW84778  13.726  11.900   8.388
60980SOL    HW184779  13.696  11.881   8.477
60980SOL    HW284780  13.803  11.846   8.376
60981SOL     OW84781   8.599  13.456   3.841
60981SOL    HW184782   8.505  13.444   3.852
60981SOL    HW284783   8.636  13.434   3.926
60982SOL     OW84784   6.615   0.865  14.647
60982SOL    HW184785   6.591   0.851  14.555
60982SOL    HW284786   6.660   0.784  14.672
60983SOL     OW84787   8.834   5.264   0.312
60983SOL    HW184788   8.767   5.255   0.244
60983SOL    HW284789   8.908   5.306   0.267
60984SOL     OW84790   9.080  11.014   9.587
60984SOL    HW184791   9.089  10.981   9.677
60984SOL    HW284792   9.168  11.006   9.551
60985SOL     OW84793   1.100  10.066   5.990
60985SOL    HW184794   1.103  10.111   5.905
60985SOL    HW284795   1.105   9.973   5.968
60986SOL     OW84796   1.933  13.242   9.858
60986SOL    HW184797   1.838  13.259   9.861
60986SOL    HW284798   1.968  13.312   9.802
60987SOL     OW84799  13.833  10.345   1.693
60987SOL    HW184800  13.750  10.297   1.690
60987SOL    HW284801  13.875  10.326   1.610
60988SOL     OW84802  12.180  12.814  14.389
60988SOL    HW184803  12.109  12.857  14.340
60988SOL    HW284804  12.167  12.721  14.372
60989SOL     OW84805   6.116   4.549   9.904
60989SOL    HW184806   6.209   4.566   9.920
60989SOL    HW284807   6.097   4.471   9.956
60990SOL     OW84808   6.333   4.696   0.560
60990SOL    HW184809   6.278   4.645   0.620
60990SOL    HW284810   6.273   4.725   0.491
60991SOL     OW84811  11.459   7.932  14.493
60991SOL    HW184812  11.408   7.912  14.572
60991SOL    HW284813  11.537   7.977  14.526
60992SOL     OW84814  14.175   8.049   7.895
60992SOL    HW184815  14.134   8.078   7.814
60992SOL    HW284816  14.200   7.958   7.879
60993SOL     OW84817   2.105   9.544   5.809
60993SOL    HW184818   2.050   9.570   5.735
60993SOL    HW284819   2.156   9.622   5.830
60994SOL     OW84820   4.888   8.888   2.856
60994SOL    HW184821   4.857   8.826   2.922
60994SOL    HW284822   4.957   8.937   2.900
60995SOL     OW84823  12.844  13.640   7.441
60995SOL    HW184824  12.836  13.561   7.495
60995SOL    HW284825  12.879  13.706   7.501
60996SOL     OW84826  13.294  14.148  12.747
60996SOL    HW184827  13.265  14.231  12.785
60996SOL    HW284828  13.353  14.110  12.812
60997SOL     OW84829   1.689   4.775   5.290
60997SOL    HW184830   1.645   4.827   5.223
60997SOL    HW284831   1.621   4.756   5.354
60998SOL     OW84832   2.724   0.074   5.982
60998SOL    HW184833   2.635   0.103   6.003
60998SOL    HW284834   2.711   0.006   5.916
60999SOL     OW84835  11.678   6.826   8.448
60999SOL    HW184836  11.584   6.823   8.429
60999SOL    HW284837  11.717   6.770   8.381
61000SOL     OW84838   2.654   7.186  12.654
61000SOL    HW184839   2.707   7.122  12.606
61000SOL    HW284840   2.569   7.183  12.611
61001SOL     OW84841   4.745   8.528   6.534
61001SOL    HW184842   4.695   8.485   6.465
61001SOL    HW284843   4.682   8.540   6.605
61002SOL     OW84844   5.651   1.966  12.894
61002SOL    HW184845   5.667   1.957  12.800
61002SOL    HW284846   5.706   1.899  12.934
61003SOL     OW84847   3.386   3.739   2.096
61003SOL    HW184848   3.418   3.757   2.007
61003SOL    HW284849   3.318   3.673   2.083
61004SOL     OW84850   8.239   1.248   8.432
61004SOL    HW184851   8.241   1.199   8.514
61004SOL    HW284852   8.299   1.321   8.445
61005SOL     OW84853   2.726  14.105   2.023
61005SOL    HW184854   2.785  14.180   2.010
61005SOL    HW284855   2.687  14.119   2.109
61006SOL     OW84856  11.709   2.711   3.430
61006SOL    HW184857  11.679   2.752   3.348
61006SOL    HW284858  11.802   2.696   3.417
61007SOL     OW84859   2.179  14.237   1.098
61007SOL    HW184860   2.207  14.170   1.036
61007SOL    HW284861   2.259  14.262   1.144
61008SOL     OW84862  13.296   3.822   0.371
61008SOL    HW184863  13.256   3.903   0.340
61008SOL    HW284864  13.273   3.818   0.464
61009SOL     OW84865   3.335  14.300   0.072
61009SOL    HW184866   3.243  14.290   0.049
61009SOL    HW284867   3.340  14.384   0.117
61010SOL     OW84868   4.835  14.149  13.838
61010SOL    HW184869   4.832  14.218  13.772
61010SOL    HW284870   4.778  14.179  13.908
61011SOL     OW84871   7.086   0.975   9.330
61011SOL    HW184872   7.039   0.892   9.326
61011SOL    HW284873   7.170   0.954   9.371
61012SOL     OW84874  11.108   5.607  10.952
61012SOL    HW184875  11.167   5.628  11.024
61012SOL    HW284876  11.061   5.529  10.981
61013SOL     OW84877   3.804  12.467   8.059
61013SOL    HW184878   3.762  12.478   7.974
61013SOL    HW284879   3.776  12.544   8.109
61014SOL     OW84880  10.200   2.159   3.682
61014SOL    HW184881  10.154   2.140   3.764
61014SOL    HW284882  10.152   2.111   3.615
61015SOL     OW84883   4.961   1.126   0.391
61015SOL    HW184884   4.963   1.065   0.317
61015SOL    HW284885   4.919   1.076   0.461
61016SOL     OW84886   1.860   9.335   7.546
61016SOL    HW184887   1.799   9.366   7.480
61016SOL    HW284888   1.933   9.297   7.496
61017SOL     OW84889   2.612   7.137   5.008
61017SOL    HW184890   2.689   7.081   5.017
61017SOL    HW284891   2.648   7.226   5.010
61018SOL     OW84892   5.987   0.883   7.955
61018SOL    HW184893   6.063   0.829   7.934
61018SOL    HW284894   6.018   0.973   7.943
61019SOL     OW84895  11.302  13.199   4.194
61019SOL    HW184896  11.260  13.240   4.269
61019SOL    HW284897  11.382  13.161   4.229
61020SOL     OW84898   4.687   0.014   3.486
61020SOL    HW184899   4.730   0.007   3.400
61020SOL    HW284900   4.594   0.012   3.467
61021SOL     OW84901   3.011  11.534  13.944
61021SOL    HW184902   2.935  11.533  13.887
61021SOL    HW284903   2.990  11.598  14.012
61022SOL     OW84904   7.383   3.749   6.050
61022SOL    HW184905   7.308   3.694   6.026
61022SOL    HW284906   7.356   3.794   6.130
61023SOL     OW84907   3.380   8.473   8.647
61023SOL    HW184908   3.324   8.543   8.680
61023SOL    HW284909   3.322   8.397   8.642
61024SOL     OW84910   5.787   9.034  10.006
61024SOL    HW184911   5.795   9.020   9.912
61024SOL    HW284912   5.700   9.000  10.029
61025SOL     OW84913   3.228   8.717  11.605
61025SOL    HW184914   3.268   8.635  11.634
61025SOL    HW284915   3.138   8.712  11.636
61026SOL     OW84916  11.050   9.820  12.049
61026SOL    HW184917  10.994   9.798  12.123
61026SOL    HW284918  11.084   9.736  12.018
61027SOL     OW84919  12.852   5.464  14.609
61027SOL    HW184920  12.835   5.549  14.569
61027SOL    HW284921  12.834   5.401  14.540
61028SOL     OW84922   5.866  14.462  13.014
61028SOL    HW184923   5.776  14.431  13.022
61028SOL    HW284924   5.859  14.543  12.964
61029SOL     OW84925   7.268  13.526   0.962
61029SOL    HW184926   7.348  13.561   1.002
61029SOL    HW284927   7.212  13.505   1.037
61030SOL     OW84928   2.271   2.008  10.561
61030SOL    HW184929   2.295   1.918  10.541
61030SOL    HW284930   2.211   2.002  10.635
61031SOL     OW84931  10.246   0.541  13.019
61031SOL    HW184932  10.175   0.483  12.992
61031SOL    HW284933  10.207   0.629  13.018
61032SOL     OW84934   1.029   7.252   9.836
61032SOL    HW184935   1.004   7.255   9.743
61032SOL    HW284936   1.124   7.259   9.835
61033SOL     OW84937  13.096   3.163   5.711
61033SOL    HW184938  13.021   3.215   5.741
61033SOL    HW284939  13.148   3.148   5.789
61034SOL     OW84940   9.817  11.026   0.210
61034SOL    HW184941   9.840  11.119   0.205
61034SOL    HW284942   9.733  11.025   0.256
61035SOL     OW84943  14.555   4.589   6.194
61035SOL    HW184944  14.640   4.552   6.168
61035SOL    HW284945  14.577   4.662   6.252
61036SOL     OW84946  13.263  13.478   3.658
61036SOL    HW184947  13.324  13.529   3.711
61036SOL    HW284948  13.199  13.444   3.721
61037SOL     OW84949   8.770   2.131   2.673
61037SOL    HW184950   8.711   2.159   2.743
61037SOL    HW284951   8.857   2.157   2.704
61038SOL     OW84952  14.708   3.277  10.617
61038SOL    HW184953  14.671   3.365  10.627
61038SOL    HW284954  14.762   3.283  10.538
61039SOL     OW84955   9.275  13.503   1.898
61039SOL    HW184956   9.292  13.525   1.989
61039SOL    HW284957   9.180  13.513   1.888
61040SOL     OW84958   6.815   5.843   0.366
61040SOL    HW184959   6.784   5.824   0.277
61040SOL    HW284960   6.871   5.769   0.388
61041SOL     OW84961  14.301   6.291   7.483
61041SOL    HW184962  14.206   6.284   7.483
61041SOL    HW284963  14.319   6.375   7.439
61042SOL     OW84964   6.492   4.827   0.751
61042SOL    HW184965   6.490   4.923   0.752
61042SOL    HW284966   6.424   4.802   0.688
61043SOL     OW84967   8.551  10.760  10.006
61043SOL    HW184968   8.619  10.798   9.950
61043SOL    HW284969   8.477  10.820   9.999
61044SOL     OW84970   1.073   5.207   1.864
61044SOL    HW184971   1.089   5.289   1.816
61044SOL    HW284972   1.119   5.220   1.947
61045SOL     OW84973  11.779   1.206   3.328
61045SOL    HW184974  11.799   1.200   3.422
61045SOL    HW284975  11.683   1.198   3.324
61046SOL     OW84976  14.422  12.969  10.449
61046SOL    HW184977  14.381  12.927  10.374
61046SOL    HW284978  14.376  13.053  10.458
61047SOL     OW84979   0.759  11.080  13.490
61047SOL    HW184980   0.704  11.024  13.435
61047SOL    HW284981   0.831  11.107  13.432
61048SOL     OW84982  12.583  12.510   7.116
61048SOL    HW184983  12.604  12.592   7.162
61048SOL    HW284984  12.488  12.512   7.107
61049SOL     OW84985  10.918  10.901   1.651
61049SOL    HW184986  10.873  10.818   1.636
61049SOL    HW284987  11.009  10.883   1.626
61050SOL     OW84988   4.807  11.562   8.738
61050SOL    HW184989   4.859  11.573   8.817
61050SOL    HW284990   4.871  11.559   8.667
61051SOL     OW84991  13.096   3.965  12.181
61051SOL    HW184992  13.035   3.998  12.116
61051SOL    HW284993  13.075   3.872  12.188
61052SOL     OW84994   1.085  14.282  11.632
61052SOL    HW184995   1.120  14.301  11.544
61052SOL    HW284996   1.163  14.259  11.683
61053SOL     OW84997   0.232   5.298   7.836
61053SOL    HW184998   0.234   5.256   7.750
61053SOL    HW284999   0.188   5.382   7.821
61054SOL     OW85000  10.394  11.113   6.725
61054SOL    HW185001  10.468  11.092   6.782
61054SOL    HW285002  10.406  11.205   6.703
61055SOL     OW85003   7.078   5.749   3.647
61055SOL    HW185004   7.154   5.790   3.606
61055SOL    HW285005   7.106   5.730   3.737
61056SOL     OW85006   6.763   3.462   6.380
61056SOL    HW185007   6.796   3.464   6.291
61056SOL    HW285008   6.668   3.466   6.371
61057SOL     OW85009   1.911  10.603   4.466
61057SOL    HW185010   1.827  10.648   4.465
61057SOL    HW285011   1.967  10.656   4.522
61058SOL     OW85012   8.137   7.853   7.405
61058SOL    HW185013   8.117   7.942   7.377
61058SOL    HW285014   8.210   7.863   7.466
61059SOL     OW85015  10.155   7.306   9.688
61059SOL    HW185016  10.060   7.310   9.695
61059SOL    HW285017  10.174   7.334   9.598
61060SOL     OW85018   8.627   1.666   2.304
61060SOL    HW185019   8.641   1.601   2.235
61060SOL    HW285020   8.691   1.643   2.371
61061SOL     OW85021  10.860   3.787  12.123
61061SOL    HW185022  10.786   3.773  12.183
61061SOL    HW285023  10.933   3.741  12.164
61062SOL     OW85024  13.870   6.042   8.733
61062SOL    HW185025  13.962   6.054   8.710
61062SOL    HW285026  13.845   5.962   8.688
61063SOL     OW85027   2.471  11.568  11.311
61063SOL    HW185028   2.398  11.623  11.341
61063SOL    HW285029   2.509  11.533  11.391
61064SOL     OW85030  13.713   9.264   0.630
61064SOL    HW185031  13.632   9.213   0.629
61064SOL    HW285032  13.685   9.355   0.640
61065SOL     OW85033   8.620  13.122   6.583
61065SOL    HW185034   8.649  13.210   6.557
61065SOL    HW285035   8.700  13.069   6.582
61066SOL     OW85036   9.876   0.988   2.414
61066SOL    HW185037   9.808   1.022   2.472
61066SOL    HW285038   9.841   0.904   2.383
61067SOL     OW85039  12.704  12.977   6.082
61067SOL    HW185040  12.782  12.992   6.029
61067SOL    HW285041  12.690  12.883   6.078
61068SOL     OW85042   0.424   4.722   7.584
61068SOL    HW185043   0.446   4.737   7.676
61068SOL    HW285044   0.462   4.797   7.538
61069SOL     OW85045   1.710  11.108   6.361
61069SOL    HW185046   1.615  11.099   6.369
61069SOL    HW285047   1.736  11.034   6.306
61070SOL     OW85048   7.528   5.670  13.383
61070SOL    HW185049   7.590   5.620  13.330
61070SOL    HW285050   7.571   5.755  13.397
61071SOL     OW85051   7.538  12.310   7.204
61071SOL    HW185052   7.545  12.384   7.263
61071SOL    HW285053   7.516  12.236   7.261
61072SOL     OW85054  14.604   6.608   3.497
61072SOL    HW185055  14.623   6.691   3.453
61072SOL    HW285056  14.686   6.586   3.542
61073SOL     OW85057   6.843  12.488   0.322
61073SOL    HW185058   6.917  12.446   0.365
61073SOL    HW285059   6.766  12.450   0.366
61074SOL     OW85060   5.970  10.179   9.439
61074SOL    HW185061   5.971  10.088   9.468
61074SOL    HW285062   6.056  10.194   9.401
61075SOL     OW85063   8.532  12.322  13.883
61075SOL    HW185064   8.502  12.411  13.901
61075SOL    HW285065   8.571  12.293  13.966
61076SOL     OW85066   9.083  11.158   3.982
61076SOL    HW185067   9.097  11.070   4.018
61076SOL    HW285068   9.167  11.201   3.993
61077SOL     OW85069   7.355   5.688  11.097
61077SOL    HW185070   7.338   5.744  11.174
61077SOL    HW285071   7.363   5.600  11.134
61078SOL     OW85072   8.784   9.325   5.292
61078SOL    HW185073   8.734   9.258   5.245
61078SOL    HW285074   8.718   9.385   5.325
61079SOL     OW85075   0.682   6.077   0.381
61079SOL    HW185076   0.697   6.012   0.312
61079SOL    HW285077   0.630   6.145   0.339
61080SOL     OW85078   7.487   0.509   2.217
61080SOL    HW185079   7.451   0.426   2.247
61080SOL    HW285080   7.411   0.558   2.186
61081SOL     OW85081   8.572  12.547   0.083
61081SOL    HW185082   8.547  12.639   0.099
61081SOL    HW285083   8.550  12.532  14.873
61082SOL     OW85084   5.657   4.641   7.136
61082SOL    HW185085   5.600   4.624   7.061
61082SOL    HW285086   5.666   4.736   7.139
61083SOL     OW85087   0.517   3.054   2.784
61083SOL    HW185088   0.437   3.078   2.737
61083SOL    HW285089   0.527   2.960   2.769
61084SOL     OW85090   2.973   6.578   0.665
61084SOL    HW185091   2.959   6.672   0.660
61084SOL    HW285092   3.052   6.562   0.614
61085SOL     OW85093   4.545  13.973   9.741
61085SOL    HW185094   4.466  13.923   9.760
61085SOL    HW285095   4.617  13.912   9.757
61086SOL     OW85096   8.492   2.011   8.273
61086SOL    HW185097   8.457   2.066   8.203
61086SOL    HW285098   8.426   1.943   8.285
61087SOL     OW85099   4.411  14.627  12.313
61087SOL    HW185100   4.476  14.645  12.381
61087SOL    HW285101   4.344  14.694  12.326
61088SOL     OW85102   6.422  10.646  13.535
61088SOL    HW185103   6.442  10.652  13.441
61088SOL    HW285104   6.487  10.584  13.569
61089SOL     OW85105   4.401   8.354   1.741
61089SOL    HW185106   4.481   8.404   1.755
61089SOL    HW285107   4.331   8.410   1.776
61090SOL     OW85108   8.065   8.004   6.012
61090SOL    HW185109   7.988   8.006   5.954
61090SOL    HW285110   8.098   8.094   6.010
61091SOL     OW85111   0.102   8.427  14.445
61091SOL    HW185112   0.189   8.432  14.407
61091SOL    HW285113   0.096   8.338  14.480
61092SOL     OW85114  10.196  11.519   3.615
61092SOL    HW185115  10.262  11.450   3.616
61092SOL    HW285116  10.233  11.588   3.561
61093SOL     OW85117  14.864   7.824  12.319
61093SOL    HW185118  14.774   7.815  12.287
61093SOL    HW285119   0.034   7.774  12.256
61094SOL     OW85120   3.077   0.570  10.944
61094SOL    HW185121   3.101   0.663  10.949
61094SOL    HW285122   2.996   0.569  10.894
61095SOL     OW85123   8.389   6.089   6.335
61095SOL    HW185124   8.454   6.101   6.404
61095SOL    HW285125   8.382   6.175   6.293
61096SOL     OW85126   8.521  10.247  12.860
61096SOL    HW185127   8.546  10.332  12.898
61096SOL    HW285128   8.431  10.260  12.831
61097SOL     OW85129   3.710   2.125   8.616
61097SOL    HW185130   3.697   2.212   8.580
61097SOL    HW285131   3.788   2.133   8.672
61098SOL     OW85132  10.410   1.414   3.858
61098SOL    HW185133  10.341   1.466   3.817
61098SOL    HW285134  10.480   1.410   3.792
61099SOL     OW85135  13.237  13.591   0.670
61099SOL    HW185136  13.298  13.633   0.609
61099SOL    HW285137  13.275  13.608   0.756
61100SOL     OW85138   1.313   7.738  12.522
61100SOL    HW185139   1.295   7.647  12.545
61100SOL    HW285140   1.405   7.738  12.496
61101SOL     OW85141   1.639  12.592  13.344
61101SOL    HW185142   1.658  12.501  13.363
61101SOL    HW285143   1.555  12.609  13.389
61102SOL     OW85144   0.040   3.357   7.109
61102SOL    HW185145   0.135   3.367   7.103
61102SOL    HW285146   0.004   3.437   7.070
61103SOL     OW85147  12.279   8.377  13.909
61103SOL    HW185148  12.312   8.452  13.959
61103SOL    HW285149  12.279   8.408  13.818
61104SOL     OW85150   1.162   4.806   2.810
61104SOL    HW185151   1.076   4.775   2.779
61104SOL    HW285152   1.170   4.769   2.898
61105SOL     OW85153   7.523   1.388   1.866
61105SOL    HW185154   7.544   1.314   1.923
61105SOL    HW285155   7.568   1.367   1.783
61106SOL     OW85156  13.753  14.815  14.237
61106SOL    HW185157  13.775  14.856  14.153
61106SOL    HW285158  13.720   0.005  14.291
61107SOL     OW85159  10.862  12.471  14.782
61107SOL    HW185160  10.891  12.536  14.847
61107SOL    HW285161  10.775  12.444  14.811
61108SOL     OW85162   8.868   6.590   8.506
61108SOL    HW185163   8.937   6.627   8.452
61108SOL    HW285164   8.898   6.604   8.596
61109SOL     OW85165   9.814  13.186   6.508
61109SOL    HW185166   9.884  13.146   6.559
61109SOL    HW285167   9.738  13.129   6.524
61110SOL     OW85168   1.139  12.089  11.180
61110SOL    HW185169   1.052  12.079  11.218
61110SOL    HW285170   1.195  12.108  11.255
61111SOL     OW85171   3.820   0.459  10.927
61111SOL    HW185172   3.742   0.513  10.914
61111SOL    HW285173   3.893   0.522  10.929
61112SOL     OW85174  14.865  13.263   3.568
61112SOL    HW185175  14.806  13.222   3.505
61112SOL    HW285176   0.030  13.190   3.608
61113SOL     OW85177   2.174   4.213  14.270
61113SOL    HW185178   2.210   4.272  14.204
61113SOL    HW285179   2.249   4.188  14.323
61114SOL     OW85180  12.620   0.773   4.268
61114SOL    HW185181  12.560   0.722   4.214
61114SOL    HW285182  12.600   0.864   4.246
61115SOL     OW85183  14.248   9.610  11.006
61115SOL    HW185184  14.211   9.693  11.036
61115SOL    HW285185  14.295   9.576  11.082
61116SOL     OW85186   4.486  12.561   4.089
61116SOL    HW185187   4.408  12.616   4.078
61116SOL    HW285188   4.495  12.551   4.184
61117SOL     OW85189   4.217  13.361  13.616
61117SOL    HW185190   4.225  13.373  13.711
61117SOL    HW285191   4.125  13.380  13.597
61118SOL     OW85192   0.583  12.825  10.310
61118SOL    HW185193   0.572  12.874  10.228
61118SOL    HW285194   0.513  12.760  10.308
61119SOL     OW85195   2.407   6.233   6.327
61119SOL    HW185196   2.341   6.299   6.344
61119SOL    HW285197   2.478   6.253   6.388
61120SOL     OW85198  12.702  11.928   3.898
61120SOL    HW185199  12.613  11.898   3.916
61120SOL    HW285200  12.713  11.916   3.804
61121SOL     OW85201   2.308   3.933   6.493
61121SOL    HW185202   2.283   3.841   6.483
61121SOL    HW285203   2.379   3.932   6.557
61122SOL     OW85204  10.002  11.923   6.094
61122SOL    HW185205   9.915  11.952   6.068
61122SOL    HW285206   9.987  11.855   6.160
61123SOL     OW85207  12.552   3.967   3.993
61123SOL    HW185208  12.465   3.967   3.954
61123SOL    HW285209  12.600   4.036   3.947
61124SOL     OW85210  10.676   3.670   5.598
61124SOL    HW185211  10.588   3.704   5.609
61124SOL    HW285212  10.696   3.628   5.681
61125SOL     OW85213  14.388   0.351   2.335
61125SOL    HW185214  14.378   0.419   2.401
61125SOL    HW285215  14.340   0.383   2.259
61126SOL     OW85216  11.512   5.311  14.244
61126SOL    HW185217  11.519   5.298  14.149
61126SOL    HW285218  11.433   5.364  14.255
61127SOL     OW85219   2.776  13.520   9.114
61127SOL    HW185220   2.834  13.489   9.044
61127SOL    HW285221   2.823  13.593   9.153
61128SOL     OW85222   7.423   4.147   7.889
61128SOL    HW185223   7.375   4.134   7.807
61128SOL    HW285224   7.395   4.074   7.945
61129SOL     OW85225  11.210  11.840   1.704
61129SOL    HW185226  11.246  11.814   1.620
61129SOL    HW285227  11.167  11.762   1.738
61130SOL     OW85228   2.698   9.652  13.655
61130SOL    HW185229   2.624   9.592  13.665
61130SOL    HW285230   2.659   9.739  13.660
61131SOL     OW85231   2.726  12.038   1.815
61131SOL    HW185232   2.761  12.124   1.795
61131SOL    HW285233   2.683  12.010   1.735
61132SOL     OW85234   6.214   9.359  11.273
61132SOL    HW185235   6.175   9.408  11.345
61132SOL    HW285236   6.139   9.323  11.225
61133SOL     OW85237   2.521   8.387   4.742
61133SOL    HW185238   2.449   8.443   4.712
61133SOL    HW285239   2.484   8.299   4.745
61134SOL     OW85240  10.355  12.333  12.418
61134SOL    HW185241  10.289  12.277  12.377
61134SOL    HW285242  10.365  12.298  12.506
61135SOL     OW85243   4.987  11.792   2.966
61135SOL    HW185244   5.075  11.822   2.988
61135SOL    HW285245   4.943  11.869   2.929
61136SOL     OW85246  11.350   1.352   3.910
61136SOL    HW185247  11.428   1.398   3.879
61136SOL    HW285248  11.379   1.262   3.924
61137SOL     OW85249  13.114  14.078   0.430
61137SOL    HW185250  13.127  14.153   0.488
61137SOL    HW285251  13.071  14.012   0.485
61138SOL     OW85252   7.045   9.907   5.891
61138SOL    HW185253   7.059   9.988   5.940
61138SOL    HW285254   6.956   9.881   5.911
61139SOL     OW85255   4.735   1.243   2.297
61139SOL    HW185256   4.750   1.337   2.291
61139SOL    HW285257   4.747   1.222   2.390
61140SOL     OW85258   4.048   3.017   7.303
61140SOL    HW185259   4.093   3.070   7.237
61140SOL    HW285260   3.974   3.071   7.330
61141SOL     OW85261  13.026  14.384   1.518
61141SOL    HW185262  13.103  14.415   1.470
61141SOL    HW285263  13.015  14.448   1.588
61142SOL     OW85264  11.559   2.081   7.985
61142SOL    HW185265  11.507   2.053   8.060
61142SOL    HW285266  11.576   2.174   8.000
61143SOL     OW85267   6.277  12.314  12.952
61143SOL    HW185268   6.230  12.243  12.996
61143SOL    HW285269   6.331  12.353  13.021
61144SOL     OW85270  11.180  10.526   6.813
61144SOL    HW185271  11.092  10.511   6.780
61144SOL    HW285272  11.230  10.449   6.784
61145SOL     OW85273   2.031   4.739   2.908
61145SOL    HW185274   2.038   4.680   2.983
61145SOL    HW285275   1.938   4.761   2.903
61146SOL     OW85276   3.231   3.067   7.644
61146SOL    HW185277   3.296   3.008   7.683
61146SOL    HW285278   3.226   3.040   7.553
61147SOL     OW85279   4.978   0.443   2.277
61147SOL    HW185280   4.987   0.514   2.214
61147SOL    HW285281   4.993   0.484   2.362
61148SOL     OW85282  12.729  14.711   8.741
61148SOL    HW185283  12.751  14.645   8.675
61148SOL    HW285284  12.634  14.720   8.735
61149SOL     OW85285   9.210  11.265   5.696
61149SOL    HW185286   9.158  11.221   5.763
61149SOL    HW285287   9.160  11.344   5.674
61150SOL     OW85288   3.398  12.943   3.445
61150SOL    HW185289   3.438  12.948   3.532
61150SOL    HW285290   3.471  12.929   3.385
61151SOL     OW85291   3.945   3.986   1.455
61151SOL    HW185292   3.850   3.988   1.467
61151SOL    HW285293   3.980   4.003   1.543
61152SOL     OW85294   3.472   3.192   3.935
61152SOL    HW185295   3.451   3.127   3.868
61152SOL    HW285296   3.424   3.164   4.013
61153SOL     OW85297   1.868  14.389  10.804
61153SOL    HW185298   1.952  14.378  10.759
61153SOL    HW285299   1.888  14.446  10.879
61154SOL     OW85300   3.208   4.014   3.636
61154SOL    HW185301   3.219   3.979   3.725
61154SOL    HW285302   3.296   4.046   3.613
61155SOL     OW85303   1.608   3.877   8.308
61155SOL    HW185304   1.659   3.944   8.353
61155SOL    HW285305   1.668   3.840   8.244
61156SOL     OW85306   3.568   4.460  10.139
61156SOL    HW185307   3.567   4.548  10.103
61156SOL    HW285308   3.661   4.440  10.153
61157SOL     OW85309  14.281   3.575   2.404
61157SOL    HW185310  14.272   3.670   2.393
61157SOL    HW285311  14.195   3.546   2.434
61158SOL     OW85312   2.975   2.790   7.614
61158SOL    HW185313   2.993   2.840   7.534
61158SOL    HW285314   2.972   2.856   7.683
61159SOL     OW85315   0.839   4.449  11.655
61159SOL    HW185316   0.821   4.395  11.577
61159SOL    HW285317   0.795   4.532  11.637
61160SOL     OW85318   1.665   0.378  13.003
61160SOL    HW185319   1.715   0.343  13.077
61160SOL    HW285320   1.605   0.441  13.043
61161SOL     OW85321   1.214   4.533  12.136
61161SOL    HW185322   1.243   4.447  12.164
61161SOL    HW285323   1.239   4.538  12.044
61162SOL     OW85324  11.036  11.213  12.914
61162SOL    HW185325  11.088  11.133  12.927
61162SOL    HW285326  10.956  11.183  12.871
61163SOL     OW85327   3.986   4.274   9.953
61163SOL    HW185328   3.951   4.360   9.975
61163SOL    HW285329   4.075   4.292   9.921
61164SOL     OW85330   0.447   5.250   2.552
61164SOL    HW185331   0.483   5.229   2.638
61164SOL    HW285332   0.375   5.310   2.570
61165SOL     OW85333   6.505   9.218  10.798
61165SOL    HW185334   6.565   9.292  10.811
61165SOL    HW285335   6.422   9.247  10.836
61166SOL     OW85336   6.493   5.996  10.364
61166SOL    HW185337   6.404   6.031  10.367
61166SOL    HW285338   6.539   6.053  10.302
61167SOL     OW85339  12.236   3.188   3.001
61167SOL    HW185340  12.244   3.276   2.964
61167SOL    HW285341  12.142   3.176   3.015
61168SOL     OW85342  14.536   9.347  14.391
61168SOL    HW185343  14.545   9.442  14.397
61168SOL    HW285344  14.625   9.314  14.393
61169SOL     OW85345   1.374   7.818   5.785
61169SOL    HW185346   1.450   7.824   5.726
61169SOL    HW285347   1.407   7.850   5.869
61170SOL     OW85348   6.767   7.304   1.084
61170SOL    HW185349   6.768   7.396   1.110
61170SOL    HW285350   6.693   7.266   1.132
61171SOL     OW85351   9.576   4.518   5.756
61171SOL    HW185352   9.486   4.552   5.762
61171SOL    HW285353   9.565   4.423   5.751
61172SOL     OW85354   3.494  12.741  12.169
61172SOL    HW185355   3.553  12.686  12.222
61172SOL    HW285356   3.421  12.760  12.227
61173SOL     OW85357   3.599  11.308  14.199
61173SOL    HW185358   3.624  11.279  14.111
61173SOL    HW285359   3.578  11.401  14.187
61174SOL     OW85360   7.496  11.344  12.478
61174SOL    HW185361   7.546  11.361  12.558
61174SOL    HW285362   7.411  11.386  12.494
61175SOL     OW85363   6.309   0.588   3.471
61175SOL    HW185364   6.337   0.499   3.451
61175SOL    HW285365   6.234   0.577   3.531
61176SOL     OW85366   9.766   4.937  13.062
61176SOL    HW185367   9.787   5.019  13.018
61176SOL    HW285368   9.699   4.960  13.126
61177SOL     OW85369  14.207   4.862   6.339
61177SOL    HW185370  14.150   4.788   6.321
61177SOL    HW285371  14.243   4.845   6.426
61178SOL     OW85372  11.234   0.343   3.275
61178SOL    HW185373  11.280   0.261   3.254
61178SOL    HW285374  11.194   0.327   3.360
61179SOL     OW85375   8.391   7.401   6.891
61179SOL    HW185376   8.458   7.382   6.957
61179SOL    HW285377   8.339   7.321   6.886
61180SOL     OW85378   7.547   7.013  12.604
61180SOL    HW185379   7.461   7.054  12.611
61180SOL    HW285380   7.530   6.920  12.613
61181SOL     OW85381   1.629   2.296   5.969
61181SOL    HW185382   1.710   2.270   5.926
61181SOL    HW285383   1.559   2.261   5.913
61182SOL     OW85384   2.910   2.466   1.871
61182SOL    HW185385   2.972   2.478   1.800
61182SOL    HW285386   2.855   2.393   1.844
61183SOL     OW85387   3.633  12.503   7.077
61183SOL    HW185388   3.716  12.460   7.100
61183SOL    HW285389   3.581  12.499   7.158
61184SOL     OW85390   4.870   4.070   9.155
61184SOL    HW185391   4.775   4.075   9.149
61184SOL    HW285392   4.887   4.029   9.240
61185SOL     OW85393  13.045  10.407   2.080
61185SOL    HW185394  12.978  10.341   2.061
61185SOL    HW285395  12.995  10.484   2.106
61186SOL     OW85396  14.275   4.512   3.734
61186SOL    HW185397  14.237   4.530   3.820
61186SOL    HW285398  14.274   4.597   3.690
61187SOL     OW85399  11.746   2.051  11.820
61187SOL    HW185400  11.792   1.975  11.857
61187SOL    HW285401  11.806   2.125  11.835
61188SOL     OW85402  10.644   8.875  14.658
61188SOL    HW185403  10.562   8.871  14.706
61188SOL    HW285404  10.629   8.940  14.590
61189SOL     OW85405   5.024   9.202   6.270
61189SOL    HW185406   5.031   9.260   6.346
61189SOL    HW285407   4.935   9.166   6.275
61190SOL     OW85408  11.663  13.131   5.300
61190SOL    HW185409  11.619  13.047   5.314
61190SOL    HW285410  11.751  13.118   5.335
61191SOL     OW85411   9.419  14.414   9.719
61191SOL    HW185412   9.392  14.393   9.808
61191SOL    HW285413   9.463  14.335   9.687
61192SOL     OW85414  12.860   6.825   7.069
61192SOL    HW185415  12.923   6.892   7.044
61192SOL    HW285416  12.913   6.749   7.093
61193SOL     OW85417  10.335   5.394   5.520
61193SOL    HW185418  10.264   5.447   5.557
61193SOL    HW285419  10.299   5.305   5.517
61194SOL     OW85420  10.751   9.983   3.250
61194SOL    HW185421  10.659   9.991   3.275
61194SOL    HW285422  10.800  10.004   3.329
61195SOL     OW85423   2.058   8.908   2.436
61195SOL    HW185424   1.977   8.903   2.384
61195SOL    HW285425   2.088   8.817   2.442
61196SOL     OW85426   7.183   5.834   4.386
61196SOL    HW185427   7.248   5.763   4.381
61196SOL    HW285428   7.230   5.906   4.428
61197SOL     OW85429   2.932   3.373   9.831
61197SOL    HW185430   2.887   3.455   9.810
61197SOL    HW285431   2.902   3.311   9.765
61198SOL     OW85432  10.859   4.248   1.266
61198SOL    HW185433  10.778   4.242   1.317
61198SOL    HW285434  10.929   4.226   1.327
61199SOL     OW85435   4.301   5.455   8.900
61199SOL    HW185436   4.360   5.392   8.941
61199SOL    HW285437   4.262   5.502   8.974
61200SOL     OW85438   4.806   6.225   2.666
61200SOL    HW185439   4.722   6.193   2.700
61200SOL    HW285440   4.860   6.238   2.744
61201SOL     OW85441   3.360   9.902   3.257
61201SOL    HW185442   3.439   9.857   3.287
61201SOL    HW285443   3.387   9.946   3.176
61202SOL     OW85444  14.139   7.087   3.951
61202SOL    HW185445  14.215   7.066   3.897
61202SOL    HW285446  14.113   7.004   3.990
61203SOL     OW85447   6.151  12.690  12.370
61203SOL    HW185448   6.154  12.694  12.466
61203SOL    HW285449   6.232  12.732  12.342
61204SOL     OW85450   6.163   2.143   4.638
61204SOL    HW185451   6.189   2.222   4.685
61204SOL    HW285452   6.136   2.174   4.551
61205SOL     OW85453   9.913   0.178   0.119
61205SOL    HW185454  10.001   0.144   0.102
61205SOL    HW285455   9.878   0.119   0.186
61206SOL     OW85456   5.244  11.518   3.769
61206SOL    HW185457   5.189  11.474   3.703
61206SOL    HW285458   5.283  11.592   3.722
61207SOL     OW85459   2.076   7.421   8.340
61207SOL    HW185460   2.024   7.343   8.361
61207SOL    HW285461   2.164   7.388   8.323
61208SOL     OW85462   6.446   7.277  12.966
61208SOL    HW185463   6.403   7.226  12.897
61208SOL    HW285464   6.446   7.219  13.042
61209SOL     OW85465   1.149  12.447   9.452
61209SOL    HW185466   1.167  12.389   9.379
61209SOL    HW285467   1.234  12.483   9.476
61210SOL     OW85468   5.026  14.521   8.181
61210SOL    HW185469   5.057  14.602   8.140
61210SOL    HW285470   4.967  14.550   8.250
61211SOL     OW85471  13.568   0.315   1.161
61211SOL    HW185472  13.493   0.374   1.167
61211SOL    HW285473  13.531   0.228   1.177
61212SOL     OW85474  11.829   3.429   8.799
61212SOL    HW185475  11.870   3.444   8.715
61212SOL    HW285476  11.842   3.336   8.816
61213SOL     OW85477   1.443   1.274  11.096
61213SOL    HW185478   1.413   1.289  11.186
61213SOL    HW285479   1.459   1.180  11.091
61214SOL     OW85480   3.998  13.382  11.441
61214SOL    HW185481   3.918  13.395  11.389
61214SOL    HW285482   3.974  13.409  11.529
61215SOL     OW85483   4.755   4.242  10.789
61215SOL    HW185484   4.692   4.219  10.857
61215SOL    HW285485   4.840   4.242  10.833
61216SOL     OW85486  13.294   2.024   4.983
61216SOL    HW185487  13.365   2.037   4.921
61216SOL    HW285488  13.333   1.973   5.054
61217SOL     OW85489   4.555   2.482   9.984
61217SOL    HW185490   4.539   2.425  10.059
61217SOL    HW285491   4.628   2.538  10.011
61218SOL     OW85492  11.509   2.821   9.669
61218SOL    HW185493  11.455   2.771   9.607
61218SOL    HW285494  11.535   2.756   9.735
61219SOL     OW85495   2.124   2.065   0.556
61219SOL    HW185496   2.064   1.990   0.561
61219SOL    HW285497   2.143   2.075   0.463
61220SOL     OW85498   3.049   3.502  11.316
61220SOL    HW185499   2.958   3.475  11.314
61220SOL    HW285500   3.099   3.422  11.300
61221SOL     OW85501   4.503   3.741   3.199
61221SOL    HW185502   4.588   3.776   3.172
61221SOL    HW285503   4.457   3.816   3.237
61222SOL     OW85504   3.282   5.363   3.234
61222SOL    HW185505   3.358   5.366   3.175
61222SOL    HW285506   3.207   5.347   3.177
61223SOL     OW85507   8.515   3.355   0.008
61223SOL    HW185508   8.445   3.365  14.825
61223SOL    HW285509   8.504   3.430   0.066
61224SOL     OW85510  13.716   6.135   4.023
61224SOL    HW185511  13.741   6.043   4.012
61224SOL    HW285512  13.751   6.159   4.108
61225SOL     OW85513  10.795  13.938   4.144
61225SOL    HW185514  10.741  13.875   4.095
61225SOL    HW285515  10.785  13.912   4.235
61226SOL     OW85516  12.663  13.496   6.475
61226SOL    HW185517  12.594  13.516   6.413
61226SOL    HW285518  12.627  13.521   6.560
61227SOL     OW85519   7.012   7.024   3.673
61227SOL    HW185520   7.108   7.021   3.674
61227SOL    HW285521   6.986   6.933   3.658
61228SOL     OW85522  10.367   2.833   9.135
61228SOL    HW185523  10.274   2.815   9.148
61228SOL    HW285524  10.406   2.827   9.223
61229SOL     OW85525   8.898   2.849   2.705
61229SOL    HW185526   8.933   2.935   2.726
61229SOL    HW285527   8.888   2.849   2.610
61230SOL     OW85528   0.853  12.751  13.400
61230SOL    HW185529   0.857  12.845  13.417
61230SOL    HW285530   0.800  12.743  13.321
61231SOL     OW85531   6.049  11.677   7.091
61231SOL    HW185532   6.036  11.759   7.138
61231SOL    HW285533   6.080  11.704   7.004
61232SOL     OW85534   1.822   0.008   9.266
61232SOL    HW185535   1.912  14.879   9.237
61232SOL    HW285536   1.786   0.075   9.207
61233SOL     OW85537   9.754   1.749   5.058
61233SOL    HW185538   9.661   1.760   5.079
61233SOL    HW285539   9.794   1.832   5.085
61234SOL     OW85540  13.939   6.752  11.922
61234SOL    HW185541  13.983   6.836  11.910
61234SOL    HW285542  13.945   6.710  11.837
61235SOL     OW85543  14.721   9.858   3.041
61235SOL    HW185544  14.647   9.853   2.981
61235SOL    HW285545  14.750   9.949   3.035
61236SOL     OW85546  14.674   3.765   2.265
61236SOL    HW185547  14.759   3.793   2.229
61236SOL    HW285548  14.626   3.846   2.277
61237SOL     OW85549   2.046   4.743  10.737
61237SOL    HW185550   2.032   4.654  10.705
61237SOL    HW285551   2.124   4.773  10.691
61238SOL     OW85552   8.109   6.654   3.130
61238SOL    HW185553   8.066   6.610   3.057
61238SOL    HW285554   8.119   6.745   3.100
61239SOL     OW85555   4.999   2.880   4.430
61239SOL    HW185556   5.054   2.936   4.376
61239SOL    HW285557   4.955   2.941   4.490
61240SOL     OW85558  14.549   0.282   7.758
61240SOL    HW185559  14.527   0.264   7.667
61240SOL    HW285560  14.505   0.213   7.808
61241SOL     OW85561   8.987   1.601   7.203
61241SOL    HW185562   8.966   1.508   7.210
61241SOL    HW285563   9.049   1.607   7.130
61242SOL     OW85564  11.621   4.055   2.959
61242SOL    HW185565  11.664   4.138   2.939
61242SOL    HW285566  11.667   4.022   3.037
61243SOL     OW85567   5.814  10.263   0.878
61243SOL    HW185568   5.775  10.255   0.965
61243SOL    HW285569   5.744  10.299   0.823
61244SOL     OW85570  13.519   4.148   2.225
61244SOL    HW185571  13.590   4.201   2.188
61244SOL    HW285572  13.556   4.110   2.305
61245SOL     OW85573   9.601   7.587   6.290
61245SOL    HW185574   9.691   7.621   6.291
61245SOL    HW285575   9.593   7.544   6.205
61246SOL     OW85576   3.690  12.134   3.672
61246SOL    HW185577   3.748  12.138   3.596
61246SOL    HW285578   3.607  12.101   3.637
61247SOL     OW85579   3.885   5.203   2.957
61247SOL    HW185580   3.820   5.262   2.996
61247SOL    HW285581   3.859   5.116   2.986
61248SOL     OW85582  10.695   3.733   6.401
61248SOL    HW185583  10.717   3.790   6.327
61248SOL    HW285584  10.604   3.709   6.386
61249SOL     OW85585  13.265   9.927   2.728
61249SOL    HW185586  13.182   9.932   2.680
61249SOL    HW285587  13.327   9.890   2.665
61250SOL     OW85588   3.979  11.658   4.746
61250SOL    HW185589   4.008  11.608   4.822
61250SOL    HW285590   4.060  11.684   4.702
61251SOL     OW85591   5.611  11.309  12.630
61251SOL    HW185592   5.530  11.338  12.671
61251SOL    HW285593   5.653  11.254  12.696
61252SOL     OW85594  10.660  12.583   8.150
61252SOL    HW185595  10.634  12.559   8.061
61252SOL    HW285596  10.588  12.637   8.182
61253SOL     OW85597   0.222   6.493  10.612
61253SOL    HW185598   0.274   6.531  10.683
61253SOL    HW285599   0.140   6.543  10.613
61254SOL     OW85600   4.077  11.101   6.191
61254SOL    HW185601   4.125  11.110   6.109
61254SOL    HW285602   4.057  11.191   6.218
61255SOL     OW85603  11.702  12.269  12.578
61255SOL    HW185604  11.727  12.362  12.578
61255SOL    HW285605  11.757  12.230  12.646
61256SOL     OW85606   0.770   8.615   4.079
61256SOL    HW185607   0.831   8.563   4.027
61256SOL    HW285608   0.760   8.566   4.161
61257SOL     OW85609   8.919   4.161   4.226
61257SOL    HW185610   8.945   4.245   4.190
61257SOL    HW285611   8.828   4.149   4.197
61258SOL     OW85612   9.752   4.320   5.906
61258SOL    HW185613   9.795   4.394   5.863
61258SOL    HW285614   9.700   4.280   5.836
61259SOL     OW85615  12.611   8.579   7.095
61259SOL    HW185616  12.538   8.572   7.033
61259SOL    HW285617  12.656   8.495   7.088
61260SOL     OW85618  10.310   2.881   1.969
61260SOL    HW185619  10.353   2.966   1.956
61260SOL    HW285620  10.349   2.824   1.904
61261SOL     OW85621   4.205   9.482   8.714
61261SOL    HW185622   4.121   9.437   8.711
61261SOL    HW285623   4.269   9.415   8.687
61262SOL     OW85624  13.816  14.149   3.580
61262SOL    HW185625  13.905  14.146   3.616
61262SOL    HW285626  13.774  14.070   3.613
61263SOL     OW85627  14.460  10.290   9.795
61263SOL    HW185628  14.506  10.235   9.732
61263SOL    HW285629  14.444  10.233   9.870
61264SOL     OW85630   5.350   7.399  10.776
61264SOL    HW185631   5.263   7.438  10.787
61264SOL    HW285632   5.381   7.434  10.692
61265SOL     OW85633   2.485   4.377   5.378
61265SOL    HW185634   2.489   4.471   5.393
61265SOL    HW285635   2.392   4.358   5.365
61266SOL     OW85636  14.684  13.534   6.483
61266SOL    HW185637  14.676  13.605   6.546
61266SOL    HW285638  14.735  13.571   6.411
61267SOL     OW85639   4.628  13.899   2.573
61267SOL    HW185640   4.664  13.929   2.490
61267SOL    HW285641   4.533  13.903   2.561
61268SOL     OW85642  10.426   7.820  11.300
61268SOL    HW185643  10.467   7.734  11.295
61268SOL    HW285644  10.410   7.833  11.394
61269SOL     OW85645   7.494   6.851   2.147
61269SOL    HW185646   7.504   6.807   2.231
61269SOL    HW285647   7.417   6.907   2.158
61270SOL     OW85648  11.295   5.145   8.820
61270SOL    HW185649  11.289   5.191   8.904
61270SOL    HW285650  11.355   5.072   8.837
61271SOL     OW85651   3.200   7.567   7.569
61271SOL    HW185652   3.158   7.515   7.638
61271SOL    HW285653   3.146   7.645   7.562
61272SOL     OW85654   5.180   5.554   8.483
61272SOL    HW185655   5.237   5.536   8.557
61272SOL    HW285656   5.192   5.479   8.425
61273SOL     OW85657   5.635   8.766   1.484
61273SOL    HW185658   5.591   8.756   1.400
61273SOL    HW285659   5.601   8.694   1.538
61274SOL     OW85660  11.397  10.423  11.906
61274SOL    HW185661  11.481  10.378  11.905
61274SOL    HW285662  11.419  10.516  11.901
61275SOL     OW85663   6.481  12.764   8.826
61275SOL    HW185664   6.417  12.749   8.896
61275SOL    HW285665   6.463  12.853   8.795
61276SOL     OW85666  12.147  12.813   1.533
61276SOL    HW185667  12.199  12.865   1.594
61276SOL    HW285668  12.203  12.804   1.456
61277SOL     OW85669   7.415   6.428  13.708
61277SOL    HW185670   7.370   6.490  13.649
61277SOL    HW285671   7.356   6.353  13.712
61278SOL     OW85672   5.828  11.901   7.864
61278SOL    HW185673   5.745  11.943   7.887
61278SOL    HW285674   5.805  11.813   7.835
61279SOL     OW85675   9.551  11.946   9.003
61279SOL    HW185676   9.608  11.957   9.080
61279SOL    HW285677   9.544  12.034   8.966
61280SOL     OW85678   9.616   5.004   7.504
61280SOL    HW185679   9.692   5.050   7.541
61280SOL    HW285680   9.635   4.998   7.410
61281SOL     OW85681   0.760   7.100   3.576
61281SOL    HW185682   0.793   7.147   3.652
61281SOL    HW285683   0.797   7.145   3.501
61282SOL     OW85684   6.404   8.617   3.965
61282SOL    HW185685   6.352   8.652   3.893
61282SOL    HW285686   6.495   8.631   3.938
61283SOL     OW85687  13.643   3.365  14.181
61283SOL    HW185688  13.613   3.437  14.126
61283SOL    HW285689  13.569   3.346  14.238
61284SOL     OW85690   8.887   3.323   5.753
61284SOL    HW185691   8.793   3.305   5.751
61284SOL    HW285692   8.900   3.388   5.683
61285SOL     OW85693   5.050   1.754  11.123
61285SOL    HW185694   4.984   1.739  11.056
61285SOL    HW285695   5.065   1.848  11.123
61286SOL     OW85696   1.620  12.209  13.146
61286SOL    HW185697   1.683  12.257  13.093
61286SOL    HW285698   1.643  12.229  13.236
61287SOL     OW85699   8.461   9.642   3.690
61287SOL    HW185700   8.521   9.647   3.616
61287SOL    HW285701   8.413   9.725   3.688
61288SOL     OW85702  10.174  14.070  11.593
61288SOL    HW185703  10.214  14.022  11.521
61288SOL    HW285704  10.221  14.153  11.595
61289SOL     OW85705  10.988  14.747   4.919
61289SOL    HW185706  11.068  14.785   4.884
61289SOL    HW285707  10.934  14.823   4.943
61290SOL     OW85708   8.023  12.586   1.347
61290SOL    HW185709   8.081  12.648   1.390
61290SOL    HW285710   7.987  12.634   1.273
61291SOL     OW85711   7.540   7.723   2.919
61291SOL    HW185712   7.598   7.647   2.919
61291SOL    HW285713   7.540   7.753   3.010
61292SOL     OW85714   6.291   7.483   5.404
61292SOL    HW185715   6.378   7.476   5.364
61292SOL    HW285716   6.278   7.577   5.416
61293SOL     OW85717   0.330   2.353   9.160
61293SOL    HW185718   0.353   2.362   9.068
61293SOL    HW285719   0.311   2.442   9.189
61294SOL     OW85720   1.132   7.674   3.936
61294SOL    HW185721   1.197   7.649   4.001
61294SOL    HW285722   1.178   7.670   3.852
61295SOL     OW85723  14.492   2.677   6.085
61295SOL    HW185724  14.457   2.692   6.172
61295SOL    HW285725  14.522   2.586   6.086
61296SOL     OW85726  10.298   2.787  14.079
61296SOL    HW185727  10.216   2.834  14.064
61296SOL    HW285728  10.272   2.708  14.127
61297SOL     OW85729  11.539  10.975   2.148
61297SOL    HW185730  11.523  10.893   2.101
61297SOL    HW285731  11.474  10.975   2.218
61298SOL     OW85732  10.048   2.297   9.776
61298SOL    HW185733  10.019   2.328   9.691
61298SOL    HW285734  10.079   2.208   9.760
61299SOL     OW85735  10.814   2.561  11.196
61299SOL    HW185736  10.809   2.504  11.119
61299SOL    HW285737  10.829   2.649  11.160
61300SOL     OW85738  14.414   4.718   3.924
61300SOL    HW185739  14.510   4.711   3.929
61300SOL    HW285740  14.399   4.796   3.870
61301SOL     OW85741   2.778   3.631  10.089
61301SOL    HW185742   2.792   3.542  10.122
61301SOL    HW285743   2.698   3.625  10.037
61302SOL     OW85744   7.840  10.632   6.167
61302SOL    HW185745   7.802  10.623   6.080
61302SOL    HW285746   7.927  10.593   6.159
61303SOL     OW85747  11.847   8.235   8.700
61303SOL    HW185748  11.889   8.184   8.630
61303SOL    HW285749  11.773   8.277   8.657
61304SOL     OW85750   7.177   7.636   1.749
61304SOL    HW185751   7.081   7.640   1.743
61304SOL    HW285752   7.202   7.722   1.783
61305SOL     OW85753  11.139   7.909  10.215
61305SOL    HW185754  11.169   7.832  10.263
61305SOL    HW285755  11.063   7.878  10.165
61306SOL     OW85756  11.045  14.499  11.296
61306SOL    HW185757  11.112  14.528  11.233
61306SOL    HW285758  11.088  14.507  11.381
61307SOL     OW85759   7.420   0.839   5.672
61307SOL    HW185760   7.474   0.832   5.593
61307SOL    HW285761   7.474   0.800   5.741
61308SOL     OW85762  13.294  13.754   1.577
61308SOL    HW185763  13.337  13.715   1.501
61308SOL    HW285764  13.358  13.744   1.648
61309SOL     OW85765  10.511   6.837  12.970
61309SOL    HW185766  10.452   6.775  12.926
61309SOL    HW285767  10.453   6.895  13.020
61310SOL     OW85768   0.579  12.850   7.938
61310SOL    HW185769   0.623  12.883   7.859
61310SOL    HW285770   0.501  12.904   7.947
61311SOL     OW85771   5.797   5.189  10.766
61311SOL    HW185772   5.846   5.165  10.686
61311SOL    HW285773   5.774   5.281  10.753
61312SOL     OW85774  10.610   7.669   7.959
61312SOL    HW185775  10.516   7.689   7.954
61312SOL    HW285776  10.614   7.581   7.996
61313SOL     OW85777   5.400  11.158   7.908
61313SOL    HW185778   5.471  11.106   7.948
61313SOL    HW285779   5.346  11.093   7.863
61314SOL     OW85780  11.936  10.551  14.212
61314SOL    HW185781  11.919  10.580  14.301
61314SOL    HW285782  12.029  10.570  14.198
61315SOL     OW85783   2.796   2.240   8.996
61315SOL    HW185784   2.837   2.314   8.950
61315SOL    HW285785   2.861   2.171   8.993
61316SOL     OW85786   8.310   3.718   9.679
61316SOL    HW185787   8.334   3.774   9.605
61316SOL    HW285788   8.272   3.640   9.639
61317SOL     OW85789   9.803  12.661  10.533
61317SOL    HW185790   9.867  12.635  10.598
61317SOL    HW285791   9.829  12.615  10.453
61318SOL     OW85792  12.593   5.378   4.501
61318SOL    HW185793  12.660   5.423   4.450
61318SOL    HW285794  12.512   5.426   4.480
61319SOL     OW85795   6.832   2.462   1.887
61319SOL    HW185796   6.849   2.498   1.974
61319SOL    HW285797   6.881   2.519   1.828
61320SOL     OW85798  10.201   2.539   9.645
61320SOL    HW185799  10.110   2.521   9.619
61320SOL    HW285800  10.198   2.544   9.740
61321SOL     OW85801   4.050   5.367   9.782
61321SOL    HW185802   4.105   5.387   9.706
61321SOL    HW285803   4.058   5.272   9.793
61322SOL     OW85804   5.881   2.165  11.890
61322SOL    HW185805   5.851   2.087  11.937
61322SOL    HW285806   5.963   2.137  11.849
61323SOL     OW85807   7.405  13.115  13.339
61323SOL    HW185808   7.408  13.155  13.426
61323SOL    HW285809   7.362  13.030  13.353
61324SOL     OW85810  10.912  10.404   5.807
61324SOL    HW185811  10.898  10.454   5.888
61324SOL    HW285812  10.827  10.364   5.789
61325SOL     OW85813   3.308   0.295  12.797
61325SOL    HW185814   3.224   0.333  12.822
61325SOL    HW285815   3.307   0.296  12.701
61326SOL     OW85816  11.260  13.556   9.856
61326SOL    HW185817  11.245  13.514   9.771
61326SOL    HW285818  11.278  13.484   9.916
61327SOL     OW85819  13.060   3.747  10.541
61327SOL    HW185820  13.038   3.834  10.574
61327SOL    HW285821  13.107   3.763  10.459
61328SOL     OW85822  10.059   1.999   3.511
61328SOL    HW185823  10.061   1.906   3.535
61328SOL    HW285824  10.077   1.999   3.416
61329SOL     OW85825  14.564   0.252   0.682
61329SOL    HW185826  14.509   0.329   0.671
61329SOL    HW285827  14.631   0.278   0.745
61330SOL     OW85828   6.808   1.734  10.370
61330SOL    HW185829   6.848   1.799  10.427
61330SOL    HW285830   6.878   1.673  10.348
61331SOL     OW85831   3.127   1.899  12.501
61331SOL    HW185832   3.089   1.936  12.580
61331SOL    HW285833   3.138   1.973  12.442
61332SOL     OW85834   4.791   5.183   4.084
61332SOL    HW185835   4.828   5.270   4.074
61332SOL    HW285836   4.696   5.197   4.086
61333SOL     OW85837   7.608   8.881  12.829
61333SOL    HW185838   7.677   8.942  12.857
61333SOL    HW285839   7.591   8.904  12.738
61334SOL     OW85840  12.302   8.269   2.620
61334SOL    HW185841  12.312   8.197   2.681
61334SOL    HW285842  12.279   8.345   2.675
61335SOL     OW85843   1.702   5.727   1.096
61335SOL    HW185844   1.760   5.680   1.037
61335SOL    HW285845   1.631   5.665   1.115
61336SOL     OW85846   8.883   8.519   7.134
61336SOL    HW185847   8.854   8.553   7.049
61336SOL    HW285848   8.925   8.436   7.114
61337SOL     OW85849  11.208   4.316   0.551
61337SOL    HW185850  11.154   4.269   0.487
61337SOL    HW285851  11.204   4.407   0.523
61338SOL     OW85852   4.575   8.065   8.355
61338SOL    HW185853   4.561   7.971   8.362
61338SOL    HW285854   4.509   8.104   8.412
61339SOL     OW85855  12.380   5.201   6.660
61339SOL    HW185856  12.470   5.232   6.669
61339SOL    HW285857  12.351   5.184   6.750
61340SOL     OW85858   9.270   8.054   3.376
61340SOL    HW185859   9.305   8.139   3.401
61340SOL    HW285860   9.283   7.999   3.454
61341SOL     OW85861  13.106  12.947   2.377
61341SOL    HW185862  13.105  12.884   2.448
61341SOL    HW285863  13.198  12.970   2.367
61342SOL     OW85864   0.303   3.162  11.283
61342SOL    HW185865   0.211   3.187  11.268
61342SOL    HW285866   0.334   3.135  11.197
61343SOL     OW85867   9.034   7.016   8.560
61343SOL    HW185868   9.058   7.038   8.650
61343SOL    HW285869   9.073   7.085   8.507
61344SOL     OW85870   4.584   0.850   5.072
61344SOL    HW185871   4.512   0.903   5.038
61344SOL    HW285872   4.650   0.853   5.002
61345SOL     OW85873  14.482   6.875   5.654
61345SOL    HW185874  14.407   6.862   5.595
61345SOL    HW285875  14.516   6.787   5.670
61346SOL     OW85876   6.460   1.574  11.924
61346SOL    HW185877   6.501   1.660  11.925
61346SOL    HW285878   6.426   1.563  12.012
61347SOL     OW85879   6.739   0.735   5.051
61347SOL    HW185880   6.759   0.766   5.139
61347SOL    HW285881   6.711   0.813   5.003
61348SOL     OW85882  11.878   9.360   8.338
61348SOL    HW185883  11.884   9.343   8.243
61348SOL    HW285884  11.790   9.395   8.350
61349SOL     OW85885   8.815  10.755   0.552
61349SOL    HW185886   8.901  10.738   0.516
61349SOL    HW285887   8.828  10.758   0.647
61350SOL     OW85888   1.050   9.951   0.755
61350SOL    HW185889   0.955   9.956   0.754
61350SOL    HW285890   1.080  10.040   0.735
61351SOL     OW85891  11.731   3.681   4.847
61351SOL    HW185892  11.789   3.734   4.901
61351SOL    HW285893  11.785   3.608   4.817
61352SOL     OW85894  14.732  12.531   4.967
61352SOL    HW185895  14.677  12.576   5.031
61352SOL    HW285896  14.799  12.595   4.943
61353SOL     OW85897   8.044   5.586   4.532
61353SOL    HW185898   8.074   5.577   4.442
61353SOL    HW285899   8.121   5.567   4.585
61354SOL     OW85900  11.665   6.621   8.020
61354SOL    HW185901  11.585   6.575   7.996
61354SOL    HW285902  11.688   6.585   8.106
61355SOL     OW85903   3.004   3.754   3.250
61355SOL    HW185904   2.908   3.754   3.247
61355SOL    HW285905   3.025   3.773   3.341
61356SOL     OW85906   5.568   8.362   5.427
61356SOL    HW185907   5.601   8.279   5.462
61356SOL    HW285908   5.637   8.391   5.366
61357SOL     OW85909   8.871   2.734   8.226
61357SOL    HW185910   8.942   2.689   8.271
61357SOL    HW285911   8.902   2.747   8.137
61358SOL     OW85912  13.342   1.471   6.306
61358SOL    HW185913  13.351   1.566   6.296
61358SOL    HW285914  13.406   1.434   6.244
61359SOL     OW85915   2.897  12.862  14.132
61359SOL    HW185916   2.913  12.830  14.043
61359SOL    HW285917   2.935  12.950  14.133
61360SOL     OW85918   1.377   6.543   5.155
61360SOL    HW185919   1.421   6.608   5.100
61360SOL    HW285920   1.422   6.548   5.239
61361SOL     OW85921   6.983   5.542   4.612
61361SOL    HW185922   7.059   5.492   4.641
61361SOL    HW285923   6.912   5.478   4.608
61362SOL     OW85924   7.853  13.859   6.969
61362SOL    HW185925   7.843  13.894   6.880
61362SOL    HW285926   7.923  13.794   6.961
61363SOL     OW85927  14.008  13.261  13.570
61363SOL    HW185928  13.929  13.312  13.586
61363SOL    HW285929  14.031  13.224  13.655
61364SOL     OW85930  14.687   7.357   6.338
61364SOL    HW185931  14.648   7.305   6.268
61364SOL    HW285932  14.749   7.297   6.381
61365SOL     OW85933  12.639   3.543  13.053
61365SOL    HW185934  12.590   3.609  13.005
61365SOL    HW285935  12.725   3.583  13.070
61366SOL     OW85936   5.365   5.469   6.174
61366SOL    HW185937   5.385   5.560   6.155
61366SOL    HW285938   5.382   5.423   6.091
61367SOL     OW85939  10.442   8.064   3.930
61367SOL    HW185940  10.442   8.153   3.896
61367SOL    HW285941  10.532   8.033   3.919
61368SOL     OW85942   2.376   6.784   8.311
61368SOL    HW185943   2.365   6.783   8.406
61368SOL    HW285944   2.407   6.695   8.290
61369SOL     OW85945   6.634   3.975   4.531
61369SOL    HW185946   6.629   3.921   4.610
61369SOL    HW285947   6.700   3.930   4.476
61370SOL     OW85948  14.842   1.144   9.818
61370SOL    HW185949   0.031   1.207   9.829
61370SOL    HW285950  14.762   1.195   9.832
61371SOL     OW85951  14.537   3.168   1.273
61371SOL    HW185952  14.580   3.193   1.191
61371SOL    HW285953  14.490   3.088   1.252
61372SOL     OW85954   3.216   4.737   8.067
61372SOL    HW185955   3.299   4.753   8.024
61372SOL    HW285956   3.166   4.684   8.005
61373SOL     OW85957   6.776   5.761  12.178
61373SOL    HW185958   6.773   5.772  12.273
61373SOL    HW285959   6.728   5.836  12.144
61374SOL     OW85960   4.137  12.144   4.448
61374SOL    HW185961   4.122  12.232   4.483
61374SOL    HW285962   4.226  12.122   4.476
61375SOL     OW85963  11.277  14.627   2.968
61375SOL    HW185964  11.308  14.549   2.922
61375SOL    HW285965  11.356  14.665   3.007
61376SOL     OW85966  12.390   5.060  10.956
61376SOL    HW185967  12.319   5.045  11.018
61376SOL    HW285968  12.469   5.030  11.001
61377SOL     OW85969  11.933   0.984   6.961
61377SOL    HW185970  11.962   0.945   6.879
61377SOL    HW285971  11.898   0.911   7.011
61378SOL     OW85972   7.590   8.887   9.418
61378SOL    HW185973   7.529   8.896   9.345
61378SOL    HW285974   7.660   8.950   9.399
61379SOL     OW85975  14.753   7.760   2.472
61379SOL    HW185976  14.797   7.710   2.541
61379SOL    HW285977  14.766   7.707   2.393
61380SOL     OW85978   3.157  11.185  12.028
61380SOL    HW185979   3.145  11.156  12.119
61380SOL    HW285980   3.251  11.176  12.012
61381SOL     OW85981   6.279  10.383  10.562
61381SOL    HW185982   6.187  10.359  10.555
61381SOL    HW285983   6.301  10.370  10.654
61382SOL     OW85984   0.004   8.018   8.073
61382SOL    HW185985   0.068   8.051   8.010
61382SOL    HW285986   0.044   7.938   8.108
61383SOL     OW85987   3.879  14.341   6.492
61383SOL    HW185988   3.819  14.277   6.454
61383SOL    HW285989   3.925  14.380   6.418
61384SOL     OW85990  12.430   6.804   4.290
61384SOL    HW185991  12.496   6.866   4.321
61384SOL    HW285992  12.472   6.761   4.215
61385SOL     OW85993   0.599  14.562   8.533
61385SOL    HW185994   0.567  14.629   8.595
61385SOL    HW285995   0.628  14.490   8.589
61386SOL     OW85996   8.663   5.800   4.047
61386SOL    HW185997   8.697   5.820   4.134
61386SOL    HW285998   8.666   5.884   4.000
61387SOL     OW85999  14.792   1.077  13.312
61387SOL    HW186000  14.879   1.113  13.298
61387SOL    HW286001  14.795   0.990  13.271
61388SOL     OW86002  13.688  12.672  12.294
61388SOL    HW186003  13.644  12.730  12.356
61388SOL    HW286004  13.763  12.638  12.342
61389SOL     OW86005  12.984   9.960  11.556
61389SOL    HW186006  13.067   9.914  11.563
61389SOL    HW286007  12.940   9.920  11.480
61390SOL     OW86008  14.416   7.842   8.199
61390SOL    HW186009  14.408   7.909   8.266
61390SOL    HW286010  14.480   7.877   8.137
61391SOL     OW86011   2.249   3.460   0.582
61391SOL    HW186012   2.247   3.554   0.561
61391SOL    HW286013   2.297   3.456   0.665
61392SOL     OW86014   0.629   6.625   2.037
61392SOL    HW186015   0.664   6.556   1.981
61392SOL    HW286016   0.689   6.699   2.023
61393SOL     OW86017   6.468  10.124   0.488
61393SOL    HW186018   6.427  10.073   0.418
61393SOL    HW286019   6.553  10.150   0.452
61394SOL     OW86020   0.474   0.066  13.210
61394SOL    HW186021   0.391   0.113  13.202
61394SOL    HW286022   0.449  14.858  13.233
61395SOL     OW86023  13.665  10.125  13.017
61395SOL    HW186024  13.586  10.071  13.015
61395SOL    HW286025  13.633  10.215  13.021
61396SOL     OW86026   2.300   7.143   6.713
61396SOL    HW186027   2.361   7.178   6.648
61396SOL    HW286028   2.352   7.140   6.794
61397SOL     OW86029   5.844   2.387  12.745
61397SOL    HW186030   5.753   2.370  12.768
61397SOL    HW286031   5.840   2.427  12.658
61398SOL     OW86032   2.944  12.339   3.195
61398SOL    HW186033   2.951  12.435   3.193
61398SOL    HW286034   2.912  12.319   3.282
61399SOL     OW86035   3.325  11.731   9.761
61399SOL    HW186036   3.260  11.743   9.830
61399SOL    HW286037   3.280  11.757   9.681
61400SOL     OW86038   8.097  12.246   8.592
61400SOL    HW186039   8.066  12.324   8.548
61400SOL    HW286040   8.166  12.277   8.651
61401SOL     OW86041  10.447   0.972   6.936
61401SOL    HW186042  10.472   1.063   6.925
61401SOL    HW286043  10.473   0.930   6.855
61402SOL     OW86044   5.765   9.599   4.757
61402SOL    HW186045   5.708   9.604   4.834
61402SOL    HW286046   5.707   9.615   4.683
61403SOL     OW86047  12.528  13.341  11.154
61403SOL    HW186048  12.447  13.388  11.175
61403SOL    HW286049  12.501  13.274  11.092
61404SOL     OW86050   4.721   0.685   3.373
61404SOL    HW186051   4.793   0.674   3.311
61404SOL    HW286052   4.722   0.779   3.393
61405SOL     OW86053  13.944   9.416   9.128
61405SOL    HW186054  13.894   9.341   9.161
61405SOL    HW286055  13.883   9.490   9.136
61406SOL     OW86056   2.564   9.107   6.227
61406SOL    HW186057   2.615   9.061   6.293
61406SOL    HW286058   2.609   9.191   6.217
61407SOL     OW86059   4.459  10.252   7.841
61407SOL    HW186060   4.527  10.189   7.862
61407SOL    HW286061   4.385  10.199   7.813
61408SOL     OW86062   9.362  12.803   6.573
61408SOL    HW186063   9.336  12.711   6.578
61408SOL    HW286064   9.453  12.804   6.603
61409SOL     OW86065   1.237   3.109  13.258
61409SOL    HW186066   1.267   3.018  13.254
61409SOL    HW286067   1.277   3.151  13.182
61410SOL     OW86068   9.322   4.157  14.049
61410SOL    HW186069   9.237   4.145  14.007
61410SOL    HW286070   9.355   4.068  14.062
61411SOL     OW86071  12.160   5.909  10.154
61411SOL    HW186072  12.177   6.003  10.152
61411SOL    HW286073  12.079   5.898  10.105
61412SOL     OW86074   0.503   8.916   9.205
61412SOL    HW186075   0.507   8.871   9.121
61412SOL    HW286076   0.557   8.994   9.194
61413SOL     OW86077   0.140   6.670   5.224
61413SOL    HW186078   0.147   6.653   5.130
61413SOL    HW286079   0.212   6.620   5.263
61414SOL     OW86080  13.174   9.911   1.728
61414SOL    HW186081  13.138   9.825   1.706
61414SOL    HW286082  13.268   9.896   1.735
61415SOL     OW86083  13.659  14.412   2.106
61415SOL    HW186084  13.675  14.496   2.061
61415SOL    HW286085  13.685  14.346   2.042
61416SOL     OW86086  10.075  12.346  13.681
61416SOL    HW186087  10.082  12.353  13.776
61416SOL    HW286088   9.996  12.294  13.666
61417SOL     OW86089   8.844  10.489  11.993
61417SOL    HW186090   8.854  10.405  12.037
61417SOL    HW286091   8.752  10.513  12.006
61418SOL     OW86092   6.735   2.803  14.422
61418SOL    HW186093   6.792   2.728  14.441
61418SOL    HW286094   6.794   2.878  14.420
61419SOL     OW86095  12.375   2.358   1.136
61419SOL    HW186096  12.413   2.431   1.087
61419SOL    HW286097  12.289   2.390   1.164
61420SOL     OW86098   6.883   3.352  12.644
61420SOL    HW186099   6.867   3.415  12.574
61420SOL    HW286100   6.939   3.286  12.603
61421SOL     OW86101   6.173   9.713  13.551
61421SOL    HW186102   6.143   9.766  13.477
61421SOL    HW286103   6.110   9.641  13.556
61422SOL     OW86104   2.280   4.014  11.188
61422SOL    HW186105   2.366   4.043  11.217
61422SOL    HW286106   2.248   4.085  11.133
61423SOL     OW86107  12.051   4.686  14.009
61423SOL    HW186108  11.956   4.698  14.011
61423SOL    HW286109  12.087   4.774  14.019
61424SOL     OW86110  14.790   7.380  12.861
61424SOL    HW186111  14.880   7.383  12.828
61424SOL    HW286112  14.749   7.309  12.812
61425SOL     OW86113  12.481   5.561  13.769
61425SOL    HW186114  12.434   5.644  13.756
61425SOL    HW286115  12.574   5.586  13.766
61426SOL     OW86116   2.226  10.117   7.850
61426SOL    HW186117   2.298  10.070   7.808
61426SOL    HW286118   2.153  10.055   7.850
61427SOL     OW86119   1.075  10.643  13.948
61427SOL    HW186120   0.981  10.626  13.943
61427SOL    HW286121   1.112  10.595  13.874
61428SOL     OW86122   9.170  11.702  10.203
61428SOL    HW186123   9.187  11.636  10.270
61428SOL    HW286124   9.256  11.720  10.164
61429SOL     OW86125   9.217   3.028   8.137
61429SOL    HW186126   9.220   3.067   8.225
61429SOL    HW286127   9.127   3.040   8.109
61430SOL     OW86128   0.851   4.096   0.835
61430SOL    HW186129   0.817   4.033   0.899
61430SOL    HW286130   0.776   4.119   0.781
61431SOL     OW86131   1.655   2.716   2.999
61431SOL    HW186132   1.696   2.715   3.086
61431SOL    HW286133   1.574   2.765   3.011
61432SOL     OW86134   6.450   9.100   5.814
61432SOL    HW186135   6.379   9.038   5.794
61432SOL    HW286136   6.530   9.052   5.795
61433SOL     OW86137   8.225   5.365   1.937
61433SOL    HW186138   8.154   5.429   1.938
61433SOL    HW286139   8.205   5.306   2.010
61434SOL     OW86140  12.803   6.737   9.479
61434SOL    HW186141  12.711   6.760   9.494
61434SOL    HW286142  12.848   6.766   9.558
61435SOL     OW86143   4.226   8.107   0.381
61435SOL    HW186144   4.156   8.170   0.364
61435SOL    HW286145   4.297   8.160   0.417
61436SOL     OW86146   5.384  12.110   4.554
61436SOL    HW186147   5.291  12.127   4.538
61436SOL    HW286148   5.389  12.015   4.566
61437SOL     OW86149  11.925   3.127   2.182
61437SOL    HW186150  11.834   3.108   2.204
61437SOL    HW286151  11.975   3.061   2.231
61438SOL     OW86152   6.463   8.781   5.990
61438SOL    HW186153   6.436   8.849   6.052
61438SOL    HW286154   6.404   8.708   6.007
61439SOL     OW86155   4.157  10.144   9.545
61439SOL    HW186156   4.177  10.195   9.624
61439SOL    HW286157   4.243  10.126   9.506
61440SOL     OW86158   3.112   4.684  10.204
61440SOL    HW186159   3.116   4.591  10.183
61440SOL    HW286160   3.201   4.716  10.191
61441SOL     OW86161   1.785   2.870  10.364
61441SOL    HW186162   1.739   2.789  10.342
61441SOL    HW286163   1.797   2.866  10.459
61442SOL     OW86164   2.475   2.878   7.830
61442SOL    HW186165   2.551   2.868   7.887
61442SOL    HW286166   2.501   2.945   7.767
61443SOL     OW86167   6.504  14.531   4.313
61443SOL    HW186168   6.574  14.588   4.346
61443SOL    HW286169   6.493  14.465   4.381
61444SOL     OW86170   1.032  14.843  13.095
61444SOL    HW186171   0.951  14.866  13.141
61444SOL    HW286172   1.100  14.848  13.162
61445SOL     OW86173   3.838   3.029   7.504
61445SOL    HW186174   3.890   3.109   7.504
61445SOL    HW286175   3.875   2.977   7.575
61446SOL     OW86176  14.775   2.609  12.585
61446SOL    HW186177  14.779   2.605  12.489
61446SOL    HW286178  14.803   2.698  12.606
61447SOL     OW86179  14.090   7.356  12.381
61447SOL    HW186180  14.159   7.374  12.445
61447SOL    HW286181  14.086   7.435  12.327
61448SOL     OW86182   8.239   5.342  13.183
61448SOL    HW186183   8.246   5.427  13.226
61448SOL    HW286184   8.307   5.289  13.224
61449SOL     OW86185   0.633   4.563   3.968
61449SOL    HW186186   0.696   4.519   4.025
61449SOL    HW286187   0.548   4.527   3.994
61450SOL     OW86188   6.428   1.559  10.453
61450SOL    HW186189   6.495   1.492  10.470
61450SOL    HW286190   6.345   1.512  10.458
61451SOL     OW86191   8.041  14.354   4.426
61451SOL    HW186192   8.058  14.303   4.347
61451SOL    HW286193   8.029  14.289   4.495
61452SOL     OW86194   7.942   5.512  14.741
61452SOL    HW186195   7.974   5.475  14.658
61452SOL    HW286196   8.016   5.560  14.776
61453SOL     OW86197   6.315   3.256  14.084
61453SOL    HW186198   6.257   3.182  14.066
61453SOL    HW286199   6.282   3.327  14.029
61454SOL     OW86200   7.659   5.825  11.155
61454SOL    HW186201   7.728   5.870  11.204
61454SOL    HW286202   7.610   5.896  11.112
61455SOL     OW86203  10.830  12.611   2.642
61455SOL    HW186204  10.889  12.579   2.574
61455SOL    HW286205  10.814  12.535   2.697
61456SOL     OW86206   4.391   5.723   3.448
61456SOL    HW186207   4.423   5.813   3.454
61456SOL    HW286208   4.471   5.670   3.439
61457SOL     OW86209   1.289   6.073   7.738
61457SOL    HW186210   1.261   6.126   7.813
61457SOL    HW286211   1.279   5.982   7.768
61458SOL     OW86212   7.315   5.737   8.106
61458SOL    HW186213   7.236   5.683   8.108
61458SOL    HW286214   7.357   5.714   8.024
61459SOL     OW86215  12.562  13.054  13.382
61459SOL    HW186216  12.650  13.046  13.347
61459SOL    HW286217  12.528  13.135  13.345
61460SOL     OW86218   8.006  14.131   3.231
61460SOL    HW186219   7.982  14.224   3.241
61460SOL    HW286220   8.078  14.118   3.293
61461SOL     OW86221   1.283   5.424   2.271
61461SOL    HW186222   1.371   5.402   2.301
61461SOL    HW286223   1.290   5.514   2.239
61462SOL     OW86224  10.492   3.783  12.794
61462SOL    HW186225  10.534   3.840  12.858
61462SOL    HW286226  10.493   3.696  12.834
61463SOL     OW86227  13.284   6.597   2.255
61463SOL    HW186228  13.318   6.613   2.343
61463SOL    HW286229  13.224   6.670   2.238
61464SOL     OW86230  12.309   3.665   9.547
61464SOL    HW186231  12.352   3.739   9.505
61464SOL    HW286232  12.247   3.705   9.609
61465SOL     OW86233   3.224  13.884   6.793
61465SOL    HW186234   3.134  13.911   6.774
61465SOL    HW286235   3.278  13.935   6.733
61466SOL     OW86236   6.209   6.403  13.449
61466SOL    HW186237   6.148   6.365  13.512
61466SOL    HW286238   6.160   6.476  13.410
61467SOL     OW86239   5.862  12.665   2.652
61467SOL    HW186240   5.875  12.625   2.566
61467SOL    HW286241   5.846  12.591   2.710
61468SOL     OW86242  10.116   6.811  12.950
61468SOL    HW186243  10.151   6.736  12.903
61468SOL    HW286244  10.027   6.820  12.917
61469SOL     OW86245   9.402   2.364  11.340
61469SOL    HW186246   9.462   2.293  11.365
61469SOL    HW286247   9.460   2.435  11.311
61470SOL     OW86248   2.325  11.788  12.954
61470SOL    HW186249   2.403  11.799  12.899
61470SOL    HW286250   2.252  11.792  12.892
61471SOL     OW86251   2.478  13.671   2.369
61471SOL    HW186252   2.421  13.634   2.301
61471SOL    HW286253   2.529  13.597   2.401
61472SOL     OW86254   0.577  11.578  13.578
61472SOL    HW186255   0.588  11.601  13.486
61472SOL    HW286256   0.590  11.661  13.625
61473SOL     OW86257  14.138  10.943   6.788
61473SOL    HW186258  14.045  10.927   6.768
61473SOL    HW286259  14.158  10.882   6.859
61474SOL     OW86260   3.058   0.506   2.124
61474SOL    HW186261   2.999   0.450   2.073
61474SOL    HW286262   3.145   0.489   2.087
61475SOL     OW86263  10.029  10.364  12.907
61475SOL    HW186264  10.086  10.360  12.984
61475SOL    HW286265  10.032  10.456  12.880
61476SOL     OW86266   1.102  12.921   2.163
61476SOL    HW186267   1.143  12.840   2.192
61476SOL    HW286268   1.117  12.924   2.069
61477SOL     OW86269   6.142   6.966  12.001
61477SOL    HW186270   6.147   6.958  12.097
61477SOL    HW286271   6.149   6.876  11.969
61478SOL     OW86272  10.790   1.504   5.334
61478SOL    HW186273  10.818   1.595   5.345
61478SOL    HW286274  10.716   1.509   5.273
61479SOL     OW86275   1.003   8.541   1.712
61479SOL    HW186276   0.972   8.455   1.740
61479SOL    HW286277   0.946   8.603   1.757
61480SOL     OW86278   1.306  11.966   9.290
61480SOL    HW186279   1.295  11.921   9.374
61480SOL    HW286280   1.224  11.951   9.243
61481SOL     OW86281   6.246   9.384   5.426
61481SOL    HW186282   6.229   9.466   5.472
61481SOL    HW286283   6.277   9.324   5.494
61482SOL     OW86284  14.165   7.914  12.635
61482SOL    HW186285  14.220   7.838  12.615
61482SOL    HW286286  14.101   7.881  12.698
61483SOL     OW86287  10.958   4.740   0.643
61483SOL    HW186288  10.946   4.649   0.671
61483SOL    HW286289  10.870   4.777   0.644
61484SOL     OW86290  13.098   6.682   7.428
61484SOL    HW186291  13.151   6.727   7.363
61484SOL    HW286292  13.131   6.592   7.428
61485SOL     OW86293   1.710   8.934   0.434
61485SOL    HW186294   1.729   8.885   0.514
61485SOL    HW286295   1.667   9.014   0.464
61486SOL     OW86296   9.223   7.763   6.691
61486SOL    HW186297   9.223   7.854   6.659
61486SOL    HW286298   9.140   7.727   6.660
61487SOL     OW86299   7.646   2.863   7.776
61487SOL    HW186300   7.560   2.896   7.751
61487SOL    HW286301   7.629   2.773   7.806
61488SOL     OW86302   6.551   9.935   1.839
61488SOL    HW186303   6.632   9.983   1.854
61488SOL    HW286304   6.578   9.844   1.831
61489SOL     OW86305   2.365  14.340   9.927
61489SOL    HW186306   2.429  14.268   9.931
61489SOL    HW286307   2.393  14.393   9.852
61490SOL     OW86308  14.507   8.633   8.065
61490SOL    HW186309  14.513   8.583   7.984
61490SOL    HW286310  14.480   8.569   8.131
61491SOL     OW86311   6.836   7.582   0.526
61491SOL    HW186312   6.825   7.677   0.526
61491SOL    HW286313   6.929   7.568   0.539
61492SOL     OW86314   2.236   9.987   2.380
61492SOL    HW186315   2.310   9.927   2.389
61492SOL    HW286316   2.276  10.070   2.352
61493SOL     OW86317   9.198   2.565   2.491
61493SOL    HW186318   9.282   2.523   2.510
61493SOL    HW286319   9.203   2.650   2.535
61494SOL     OW86320  11.676   0.511   0.530
61494SOL    HW186321  11.645   0.509   0.439
61494SOL    HW286322  11.757   0.460   0.529
61495SOL     OW86323   4.639   5.340  13.701
61495SOL    HW186324   4.674   5.411  13.756
61495SOL    HW286325   4.653   5.261  13.752
61496SOL     OW86326   3.849   0.103  12.832
61496SOL    HW186327   3.807   0.041  12.773
61496SOL    HW286328   3.942   0.100  12.809
61497SOL     OW86329   0.264   5.303   5.762
61497SOL    HW186330   0.212   5.295   5.682
61497SOL    HW286331   0.292   5.213   5.781
61498SOL     OW86332   2.551   5.254   7.621
61498SOL    HW186333   2.642   5.223   7.629
61498SOL    HW286334   2.500   5.191   7.672
61499SOL     OW86335   3.274  11.363   4.118
61499SOL    HW186336   3.178  11.362   4.125
61499SOL    HW286337   3.304  11.382   4.207
61500SOL     OW86338   5.200  11.508   3.056
61500SOL    HW186339   5.237  11.427   3.092
61500SOL    HW286340   5.117  11.481   3.016
61501SOL     OW86341  13.878  10.769   7.250
61501SOL    HW186342  13.843  10.805   7.168
61501SOL    HW286343  13.973  10.777   7.242
61502SOL     OW86344  14.451   7.196   4.391
61502SOL    HW186345  14.504   7.272   4.369
61502SOL    HW286346  14.502   7.121   4.360
61503SOL     OW86347  13.560   7.440   1.197
61503SOL    HW186348  13.505   7.464   1.123
61503SOL    HW286349  13.498   7.407   1.263
61504SOL     OW86350   0.851   4.093  13.543
61504SOL    HW186351   0.868   4.134  13.458
61504SOL    HW286352   0.898   4.010  13.539
61505SOL     OW86353   7.842  13.592   8.653
61505SOL    HW186354   7.801  13.563   8.572
61505SOL    HW286355   7.814  13.683   8.663
61506SOL     OW86356  14.104   1.584   8.146
61506SOL    HW186357  14.093   1.661   8.201
61506SOL    HW286358  14.199   1.574   8.137
61507SOL     OW86359   7.435   7.534   5.493
61507SOL    HW186360   7.523   7.562   5.465
61507SOL    HW286361   7.423   7.575   5.578
61508SOL     OW86362   8.788  14.829   6.120
61508SOL    HW186363   8.724  14.757   6.116
61508SOL    HW286364   8.735   0.026   6.129
61509SOL     OW86365   5.404   2.851  10.482
61509SOL    HW186366   5.477   2.913  10.475
61509SOL    HW286367   5.427   2.781  10.421
61510SOL     OW86368   1.448   1.589  10.862
61510SOL    HW186369   1.453   1.495  10.850
61510SOL    HW286370   1.399   1.600  10.943
61511SOL     OW86371   7.234  12.812   8.506
61511SOL    HW186372   7.243  12.906   8.521
61511SOL    HW286373   7.289  12.772   8.573
61512SOL     OW86374   0.435   7.586   3.041
61512SOL    HW186375   0.452   7.633   3.123
61512SOL    HW286376   0.424   7.494   3.068
61513SOL     OW86377  10.557   1.259   7.316
61513SOL    HW186378  10.608   1.181   7.334
61513SOL    HW286379  10.601   1.301   7.242
61514SOL     OW86380   7.787   6.802   1.662
61514SOL    HW186381   7.857   6.866   1.671
61514SOL    HW286382   7.763   6.806   1.569
61515SOL     OW86383   9.621   5.792  11.283
61515SOL    HW186384   9.603   5.819  11.373
61515SOL    HW286385   9.536   5.769  11.247
61516SOL     OW86386  12.056   7.727   1.973
61516SOL    HW186387  12.085   7.646   2.017
61516SOL    HW286388  12.137   7.774   1.954
61517SOL     OW86389  14.691   6.014   7.801
61517SOL    HW186390  14.602   5.978   7.794
61517SOL    HW286391  14.701   6.067   7.722
61518SOL     OW86392   9.106   7.139   9.436
61518SOL    HW186393   9.188   7.148   9.485
61518SOL    HW286394   9.093   7.044   9.429
61519SOL     OW86395   9.143   9.531  13.074
61519SOL    HW186396   9.105   9.611  13.110
61519SOL    HW286397   9.117   9.531  12.982
61520SOL     OW86398   6.634   2.830   4.996
61520SOL    HW186399   6.590   2.809   4.914
61520SOL    HW286400   6.606   2.920   5.016
61521SOL     OW86401  14.357   1.723   1.139
61521SOL    HW186402  14.421   1.652   1.134
61521SOL    HW286403  14.273   1.680   1.148
61522SOL     OW86404   8.532   5.308   7.081
61522SOL    HW186405   8.572   5.322   6.996
61522SOL    HW286406   8.601   5.267   7.133
61523SOL     OW86407  11.709   1.161  14.789
61523SOL    HW186408  11.660   1.140  14.709
61523SOL    HW286409  11.769   1.230  14.762
61524SOL     OW86410   0.119   1.596   3.261
61524SOL    HW186411   0.074   1.609   3.177
61524SOL    HW286412   0.176   1.521   3.247
61525SOL     OW86413   4.638   3.583  11.414
61525SOL    HW186414   4.726   3.620  11.405
61525SOL    HW286415   4.653   3.493  11.444
61526SOL     OW86416   6.688   1.647   9.382
61526SOL    HW186417   6.772   1.682   9.352
61526SOL    HW286418   6.687   1.556   9.352
61527SOL     OW86419   1.371   2.336  14.598
61527SOL    HW186420   1.319   2.415  14.586
61527SOL    HW286421   1.384   2.330  14.692
61528SOL     OW86422  10.974   3.493   1.738
61528SOL    HW186423  10.944   3.473   1.650
61528SOL    HW286424  11.069   3.490   1.732
61529SOL     OW86425  14.334   6.372   4.940
61529SOL    HW186426  14.285   6.450   4.913
61529SOL    HW286427  14.384   6.400   5.016
61530SOL     OW86428   2.394   5.707   2.382
61530SOL    HW186429   2.487   5.690   2.399
61530SOL    HW286430   2.348   5.657   2.449
61531SOL     OW86431   9.223   7.274   7.184
61531SOL    HW186432   9.313   7.304   7.200
61531SOL    HW286433   9.168   7.335   7.233
61532SOL     OW86434   6.973   2.139  12.804
61532SOL    HW186435   6.990   2.046  12.790
61532SOL    HW286436   7.059   2.177  12.821
61533SOL     OW86437  11.781   9.551  11.092
61533SOL    HW186438  11.748   9.602  11.018
61533SOL    HW286439  11.876   9.562  11.087
61534SOL     OW86440   4.835  11.425   5.644
61534SOL    HW186441   4.918  11.462   5.614
61534SOL    HW286442   4.848  11.330   5.636
61535SOL     OW86443  10.920  12.642   8.051
61535SOL    HW186444  10.871  12.640   8.133
61535SOL    HW286445  10.853  12.630   7.983
61536SOL     OW86446   1.771  11.290  13.950
61536SOL    HW186447   1.682  11.280  13.915
61536SOL    HW286448   1.762  11.268  14.043
61537SOL     OW86449   4.810   2.946  10.271
61537SOL    HW186450   4.813   2.961  10.177
61537SOL    HW286451   4.894   2.905  10.292
61538SOL     OW86452   8.584   8.929   6.663
61538SOL    HW186453   8.679   8.913   6.664
61538SOL    HW286454   8.570   8.997   6.729
61539SOL     OW86455   3.638   9.440   3.341
61539SOL    HW186456   3.583   9.366   3.367
61539SOL    HW286457   3.700   9.404   3.278
61540SOL     OW86458  13.596   2.632  11.217
61540SOL    HW186459  13.553   2.573  11.280
61540SOL    HW286460  13.665   2.674  11.268
61541SOL     OW86461   0.163  13.899   6.889
61541SOL    HW186462   0.090  13.940   6.936
61541SOL    HW286463   0.237  13.905   6.950
61542SOL     OW86464   4.229   4.303   0.161
61542SOL    HW186465   4.316   4.283   0.125
61542SOL    HW286466   4.174   4.317   0.084
61543SOL     OW86467   7.925   5.692   4.784
61543SOL    HW186468   7.994   5.699   4.850
61543SOL    HW286469   7.971   5.678   4.702
61544SOL     OW86470   1.067   2.287  14.243
61544SOL    HW186471   1.038   2.216  14.300
61544SOL    HW286472   1.085   2.244  14.159
61545SOL     OW86473   1.594  14.204   8.674
61545SOL    HW186474   1.682  14.240   8.666
61545SOL    HW286475   1.536  14.274   8.643
61546SOL     OW86476   2.760  10.567   7.647
61546SOL    HW186477   2.846  10.544   7.682
61546SOL    HW286478   2.707  10.489   7.661
61547SOL     OW86479  11.547   4.085  12.712
61547SOL    HW186480  11.488   4.151  12.749
61547SOL    HW286481  11.626   4.133  12.691
61548SOL     OW86482   1.075   9.087   1.367
61548SOL    HW186483   1.005   9.080   1.301
61548SOL    HW286484   1.072   9.004   1.414
61549SOL     OW86485   0.039   9.108  12.176
61549SOL    HW186486   0.060   9.189  12.129
61549SOL    HW286487   0.077   9.120  12.263
61550SOL     OW86488   9.128   5.521   8.705
61550SOL    HW186489   9.126   5.557   8.793
61550SOL    HW286490   9.220   5.499   8.690
61551SOL     OW86491  13.999   4.534  12.844
61551SOL    HW186492  13.962   4.612  12.883
61551SOL    HW286493  14.094   4.545  12.854
61552SOL     OW86494   2.721   6.473   1.791
61552SOL    HW186495   2.650   6.530   1.762
61552SOL    HW286496   2.793   6.533   1.810
61553SOL     OW86497   7.289  14.699   8.978
61553SOL    HW186498   7.384  14.710   8.985
61553SOL    HW286499   7.257  14.784   8.948
61554SOL     OW86500   1.709   3.511  14.402
61554SOL    HW186501   1.687   3.465  14.483
61554SOL    HW286502   1.641   3.577  14.392
61555SOL     OW86503   2.964   2.483   7.293
61555SOL    HW186504   2.993   2.428   7.366
61555SOL    HW286505   2.965   2.425   7.217
61556SOL     OW86506   8.920   9.010  13.521
61556SOL    HW186507   8.898   9.037  13.610
61556SOL    HW286508   8.947   9.090  13.476
61557SOL     OW86509  14.312   4.253   1.983
61557SOL    HW186510  14.277   4.265   1.895
61557SOL    HW286511  14.308   4.340   2.023
61558SOL     OW86512  13.726   8.081  13.382
61558SOL    HW186513  13.735   8.090  13.287
61558SOL    HW286514  13.792   8.016  13.407
61559SOL     OW86515  13.487   9.414   9.962
61559SOL    HW186516  13.557   9.358   9.927
61559SOL    HW286517  13.512   9.502   9.937
61560SOL     OW86518   5.742   3.027   8.855
61560SOL    HW186519   5.772   3.118   8.851
61560SOL    HW286520   5.820   2.976   8.832
61561SOL     OW86521   0.001  11.639   0.232
61561SOL    HW186522   0.066  11.683   0.178
61561SOL    HW286523   0.053  11.590   0.296
61562SOL     OW86524   7.160  14.368  10.486
61562SOL    HW186525   7.139  14.456  10.454
61562SOL    HW286526   7.116  14.362  10.570
61563SOL     OW86527   7.085   4.146   2.643
61563SOL    HW186528   7.127   4.231   2.654
61563SOL    HW286529   7.155   4.088   2.611
61564SOL     OW86530   8.116   0.889  13.059
61564SOL    HW186531   8.210   0.906  13.049
61564SOL    HW286532   8.078   0.974  13.081
61565SOL     OW86533  12.814   5.009  10.766
61565SOL    HW186534  12.818   5.101  10.793
61565SOL    HW286535  12.846   5.009  10.676
61566SOL     OW86536   5.394   1.967  10.254
61566SOL    HW186537   5.364   2.013  10.176
61566SOL    HW286538   5.487   1.992  10.262
61567SOL     OW86539   5.097   3.805   1.275
61567SOL    HW186540   5.036   3.803   1.348
61567SOL    HW286541   5.160   3.736   1.295
61568SOL     OW86542  10.854   2.427   2.190
61568SOL    HW186543  10.883   2.461   2.274
61568SOL    HW286544  10.932   2.427   2.135
61569SOL     OW86545   8.926  10.908   1.029
61569SOL    HW186546   9.009  10.956   1.033
61569SOL    HW286547   8.899  10.899   1.120
61570SOL     OW86548   4.480   3.323   2.866
61570SOL    HW186549   4.445   3.236   2.844
61570SOL    HW286550   4.521   3.311   2.952
61571SOL     OW86551   5.427   7.260   7.559
61571SOL    HW186552   5.344   7.308   7.559
61571SOL    HW286553   5.403   7.170   7.582
61572SOL     OW86554  11.632  10.624   6.321
61572SOL    HW186555  11.593  10.605   6.406
61572SOL    HW286556  11.713  10.671   6.341
61573SOL     OW86557  13.083   3.565   7.574
61573SOL    HW186558  13.009   3.555   7.515
61573SOL    HW286559  13.144   3.496   7.548
61574SOL     OW86560   2.130  14.316   9.257
61574SOL    HW186561   2.188  14.251   9.294
61574SOL    HW286562   2.110  14.284   9.169
61575SOL     OW86563   5.776   6.327   5.293
61575SOL    HW186564   5.761   6.311   5.386
61575SOL    HW286565   5.691   6.309   5.252
61576SOL     OW86566   9.113   2.345  13.734
61576SOL    HW186567   9.042   2.405  13.708
61576SOL    HW286568   9.193   2.394  13.714
61577SOL     OW86569   7.905   2.840   9.747
61577SOL    HW186570   7.928   2.924   9.707
61577SOL    HW286571   7.985   2.788   9.742
61578SOL     OW86572   3.129   4.162   6.284
61578SOL    HW186573   3.082   4.185   6.364
61578SOL    HW286574   3.121   4.238   6.227
61579SOL     OW86575  12.468  12.140   9.272
61579SOL    HW186576  12.452  12.233   9.287
61579SOL    HW286577  12.558  12.126   9.300
61580SOL     OW86578  12.563   5.203  13.466
61580SOL    HW186579  12.565   5.107  13.462
61580SOL    HW286580  12.582   5.223  13.557
61581SOL     OW86581  14.809  12.474   1.856
61581SOL    HW186582  14.828  12.508   1.943
61581SOL    HW286583  14.876  12.408   1.841
61582SOL     OW86584  11.808  12.607   2.985
61582SOL    HW186585  11.898  12.578   2.969
61582SOL    HW286586  11.765  12.599   2.899
61583SOL     OW86587   1.885   0.822   3.897
61583SOL    HW186588   1.846   0.736   3.913
61583SOL    HW286589   1.840   0.881   3.958
61584SOL     OW86590   0.946   6.068  11.402
61584SOL    HW186591   0.994   5.988  11.420
61584SOL    HW286592   0.882   6.044  11.335
61585SOL     OW86593   2.105  12.689  11.203
61585SOL    HW186594   2.118  12.782  11.188
61585SOL    HW286595   2.089  12.652  11.116
61586SOL     OW86596  11.722  13.384   2.133
61586SOL    HW186597  11.712  13.306   2.188
61586SOL    HW286598  11.657  13.446   2.166
61587SOL     OW86599  13.416  11.566  10.661
61587SOL    HW186600  13.400  11.639  10.601
61587SOL    HW286601  13.407  11.488  10.607
61588SOL     OW86602   0.023   0.551   3.704
61588SOL    HW186603   0.039   0.475   3.648
61588SOL    HW286604   0.081   0.619   3.669
61589SOL     OW86605  11.614   3.329  13.960
61589SOL    HW186606  11.529   3.286  13.949
61589SOL    HW286607  11.595   3.422  13.955
61590SOL     OW86608   2.826  12.919   0.306
61590SOL    HW186609   2.785  12.833   0.295
61590SOL    HW286610   2.869  12.913   0.392
61591SOL     OW86611   6.708   4.222   1.454
61591SOL    HW186612   6.680   4.138   1.417
61591SOL    HW286613   6.628   4.273   1.463
61592SOL     OW86614  14.653  14.020   4.784
61592SOL    HW186615  14.567  14.008   4.743
61592SOL    HW286616  14.681  13.932   4.809
61593SOL     OW86617  11.602   9.482  14.459
61593SOL    HW186618  11.687   9.512  14.492
61593SOL    HW286619  11.574   9.550  14.397
61594SOL     OW86620   3.574   7.841  12.722
61594SOL    HW186621   3.544   7.772  12.782
61594SOL    HW286622   3.593   7.916  12.779
61595SOL     OW86623   2.007   8.239   6.270
61595SOL    HW186624   1.928   8.206   6.314
61595SOL    HW286625   2.077   8.180   6.298
61596SOL     OW86626  11.452   8.779   7.975
61596SOL    HW186627  11.398   8.831   8.036
61596SOL    HW286628  11.443   8.689   8.005
61597SOL     OW86629  13.592   7.536  11.759
61597SOL    HW186630  13.635   7.575  11.683
61597SOL    HW286631  13.591   7.442  11.741
61598SOL     OW86632   4.355   6.088  13.115
61598SOL    HW186633   4.287   6.086  13.047
61598SOL    HW286634   4.361   6.180  13.139
61599SOL     OW86635   8.048   5.715  13.123
61599SOL    HW186636   8.099   5.785  13.083
61599SOL    HW286637   8.011   5.667  13.048
61600SOL     OW86638   4.854   0.392   1.976
61600SOL    HW186639   4.813   0.477   1.988
61600SOL    HW286640   4.801   0.332   2.029
61601SOL     OW86641   9.438  12.277   7.264
61601SOL    HW186642   9.402  12.346   7.209
61601SOL    HW286643   9.514  12.317   7.307
61602SOL     OW86644   9.164   5.411  13.605
61602SOL    HW186645   9.200   5.466  13.535
61602SOL    HW286646   9.179   5.321  13.575
61603SOL     OW86647   8.830  10.359  10.549
61603SOL    HW186648   8.773  10.385  10.621
61603SOL    HW286649   8.784  10.287  10.506
61604SOL     OW86650   8.481   0.032  10.486
61604SOL    HW186651   8.492   0.113  10.536
61604SOL    HW286652   8.390   0.035  10.456
61605SOL     OW86653  10.462  11.195   4.305
61605SOL    HW186654  10.388  11.253   4.324
61605SOL    HW286655  10.462  11.188   4.209
61606SOL     OW86656   7.982   9.271   5.231
61606SOL    HW186657   7.967   9.309   5.317
61606SOL    HW286658   7.934   9.328   5.171
61607SOL     OW86659   3.359   4.935   8.567
61607SOL    HW186660   3.359   4.860   8.507
61607SOL    HW286661   3.410   4.904   8.643
61608SOL     OW86662   5.715  14.839  14.355
61608SOL    HW186663   5.733  14.751  14.322
61608SOL    HW286664   5.623  14.838  14.379
61609SOL     OW86665   4.538   4.921  10.607
61609SOL    HW186666   4.525   4.856  10.676
61609SOL    HW286667   4.450   4.949  10.583
61610SOL     OW86668   0.682   6.536   6.248
61610SOL    HW186669   0.775   6.558   6.258
61610SOL    HW286670   0.638   6.583   6.319
61611SOL     OW86671   5.458   7.407  11.904
61611SOL    HW186672   5.406   7.411  11.984
61611SOL    HW286673   5.519   7.481  11.912
61612SOL     OW86674   0.220   8.900   5.483
61612SOL    HW186675   0.181   8.895   5.570
61612SOL    HW286676   0.231   8.809   5.456
61613SOL     OW86677   6.832   6.923   0.515
61613SOL    HW186678   6.850   6.917   0.421
61613SOL    HW286679   6.908   6.882   0.556
61614SOL     OW86680   1.014   3.904  12.569
61614SOL    HW186681   1.025   3.865  12.483
61614SOL    HW286682   1.021   3.830  12.630
61615SOL     OW86683  12.197   8.597   5.689
61615SOL    HW186684  12.203   8.646   5.771
61615SOL    HW286685  12.218   8.662   5.621
61616SOL     OW86686   0.157   7.182   9.149
61616SOL    HW186687   0.238   7.146   9.186
61616SOL    HW286688   0.178   7.198   9.057
61617SOL     OW86689  14.725   7.723   1.348
61617SOL    HW186690  14.809   7.677   1.344
61617SOL    HW286691  14.745   7.811   1.315
61618SOL     OW86692   5.495   8.894   4.221
61618SOL    HW186693   5.550   8.928   4.150
61618SOL    HW286694   5.519   8.802   4.228
61619SOL     OW86695   7.160   7.796   1.425
61619SOL    HW186696   7.127   7.788   1.335
61619SOL    HW286697   7.182   7.706   1.450
61620SOL     OW86698   5.328  10.552   0.146
61620SOL    HW186699   5.259  10.600   0.192
61620SOL    HW286700   5.342  10.474   0.199
61621SOL     OW86701   2.210   0.554  13.994
61621SOL    HW186702   2.160   0.583  13.918
61621SOL    HW286703   2.300   0.547  13.963
61622SOL     OW86704  13.173   2.777   9.025
61622SOL    HW186705  13.096   2.721   9.013
61622SOL    HW286706  13.208   2.750   9.110
61623SOL     OW86707   8.813   5.050  11.359
61623SOL    HW186708   8.907   5.040  11.371
61623SOL    HW286709   8.774   5.016  11.440
61624SOL     OW86710   0.573  13.516  14.560
61624SOL    HW186711   0.544  13.589  14.614
61624SOL    HW286712   0.656  13.545  14.523
61625SOL     OW86713   0.305   6.246   5.775
61625SOL    HW186714   0.256   6.328   5.787
61625SOL    HW286715   0.245   6.189   5.728
61626SOL     OW86716   7.552  13.379  10.562
61626SOL    HW186717   7.481  13.325  10.595
61626SOL    HW286718   7.536  13.385  10.468
61627SOL     OW86719  11.820   3.254  13.529
61627SOL    HW186720  11.792   3.300  13.450
61627SOL    HW286721  11.848   3.323  13.588
61628SOL     OW86722   6.283   2.351   6.205
61628SOL    HW186723   6.273   2.372   6.298
61628SOL    HW286724   6.194   2.352   6.171
61629SOL     OW86725   7.135  12.011   4.272
61629SOL    HW186726   7.162  11.995   4.362
61629SOL    HW286727   7.091  11.930   4.245
61630SOL     OW86728  12.187   4.003  13.891
61630SOL    HW186729  12.109   4.059  13.888
61630SOL    HW286730  12.260   4.062  13.873
61631SOL     OW86731   8.916   3.802  10.945
61631SOL    HW186732   8.903   3.750  10.865
61631SOL    HW286733   8.834   3.794  10.993
61632SOL     OW86734  13.560   7.743   3.366
61632SOL    HW186735  13.536   7.677   3.300
61632SOL    HW286736  13.496   7.814   3.353
61633SOL     OW86737   6.598  13.045   9.008
61633SOL    HW186738   6.524  13.074   9.062
61633SOL    HW286739   6.568  13.057   8.918
61634SOL     OW86740  13.224  11.776   0.035
61634SOL    HW186741  13.161  11.817   0.094
61634SOL    HW286742  13.309  11.792   0.077
61635SOL     OW86743   7.332   6.821   3.138
61635SOL    HW186744   7.385   6.783   3.208
61635SOL    HW286745   7.272   6.751   3.113
61636SOL     OW86746  13.197   9.641  13.678
61636SOL    HW186747  13.168   9.552  13.663
61636SOL    HW286748  13.280   9.632  13.725
61637SOL     OW86749   5.208   3.768   8.287
61637SOL    HW186750   5.145   3.696   8.276
61637SOL    HW286751   5.179   3.835   8.225
61638SOL     OW86752   0.334   8.789   3.862
61638SOL    HW186753   0.283   8.810   3.941
61638SOL    HW286754   0.309   8.856   3.799
61639SOL     OW86755   1.099  13.317   6.770
61639SOL    HW186756   1.123  13.318   6.863
61639SOL    HW286757   1.109  13.408   6.742
61640SOL     OW86758   1.618  13.702  12.374
61640SOL    HW186759   1.547  13.658  12.421
61640SOL    HW286760   1.697  13.654  12.399
61641SOL     OW86761   3.487  11.068   8.070
61641SOL    HW186762   3.463  11.160   8.080
61641SOL    HW286763   3.417  11.019   8.113
61642SOL     OW86764   5.406   9.182   8.119
61642SOL    HW186765   5.450   9.253   8.165
61642SOL    HW286766   5.431   9.103   8.166
61643SOL     OW86767   3.395   2.240   1.978
61643SOL    HW186768   3.469   2.296   2.001
61643SOL    HW286769   3.318   2.290   2.003
61644SOL     OW86770   3.949   3.521   0.359
61644SOL    HW186771   3.889   3.458   0.320
61644SOL    HW286772   3.950   3.595   0.298
61645SOL     OW86773   9.829   1.975   3.269
61645SOL    HW186774   9.749   1.962   3.218
61645SOL    HW286775   9.900   1.953   3.208
61646SOL     OW86776   4.782   4.608   4.207
61646SOL    HW186777   4.801   4.563   4.289
61646SOL    HW286778   4.693   4.639   4.216
61647SOL     OW86779   1.093  14.173   4.300
61647SOL    HW186780   1.070  14.260   4.266
61647SOL    HW286781   1.051  14.112   4.239
61648SOL     OW86782   5.345   9.234   0.223
61648SOL    HW186783   5.259   9.268   0.249
61648SOL    HW286784   5.392   9.224   0.306
61649SOL     OW86785   0.265   1.806   0.396
61649SOL    HW186786   0.185   1.850   0.424
61649SOL    HW286787   0.330   1.830   0.461
61650SOL     OW86788   6.423   2.868   1.715
61650SOL    HW186789   6.391   2.793   1.665
61650SOL    HW286790   6.344   2.919   1.735
61651SOL     OW86791   1.751   8.068  13.075
61651SOL    HW186792   1.746   8.125  13.152
61651SOL    HW286793   1.660   8.047  13.056
61652SOL     OW86794  14.830   3.561   2.027
61652SOL    HW186795  14.819   3.655   2.040
61652SOL    HW286796   0.035   3.553   1.986
61653SOL     OW86797   0.505   9.735  14.755
61653SOL    HW186798   0.463   9.819  14.735
61653SOL    HW286799   0.530   9.742  14.847
61654SOL     OW86800   9.232   5.826   7.194
61654SOL    HW186801   9.214   5.771   7.117
61654SOL    HW286802   9.303   5.780   7.240
61655SOL     OW86803  14.714   2.955   2.935
61655SOL    HW186804  14.697   2.861   2.932
61655SOL    HW286805  14.708   2.983   2.844
61656SOL     OW86806   5.941  13.507  11.128
61656SOL    HW186807   5.995  13.507  11.049
61656SOL    HW286808   5.870  13.446  11.108
61657SOL     OW86809   3.496   8.719  11.766
61657SOL    HW186810   3.486   8.768  11.848
61657SOL    HW286811   3.591   8.713  11.753
61658SOL     OW86812  10.612  13.904   7.576
61658SOL    HW186813  10.639  13.987   7.536
61658SOL    HW286814  10.546  13.870   7.516
61659SOL     OW86815   4.977   3.777  11.717
61659SOL    HW186816   5.001   3.815  11.632
61659SOL    HW286817   4.898   3.824  11.743
61660SOL     OW86818   2.808   9.363  11.356
61660SOL    HW186819   2.860   9.368  11.276
61660SOL    HW286820   2.856   9.300  11.412
61661SOL     OW86821   4.915  13.768   4.977
61661SOL    HW186822   4.829  13.730   4.957
61661SOL    HW286823   4.909  13.859   4.950
61662SOL     OW86824   3.176   8.135   9.432
61662SOL    HW186825   3.220   8.220   9.434
61662SOL    HW286826   3.211   8.092   9.354
61663SOL     OW86827   9.988  10.455  11.231
61663SOL    HW186828  10.068  10.408  11.255
61663SOL    HW286829   9.973  10.517  11.302
61664SOL     OW86830  11.913   7.359   4.216
61664SOL    HW186831  11.928   7.452   4.202
61664SOL    HW286832  12.001   7.320   4.218
61665SOL     OW86833   7.725   5.413   6.718
61665SOL    HW186834   7.694   5.336   6.765
61665SOL    HW286835   7.763   5.469   6.786
61666SOL     OW86836   0.824   4.298  13.308
61666SOL    HW186837   0.752   4.254  13.265
61666SOL    HW286838   0.903   4.262  13.268
61667SOL     OW86839   0.741   9.180   6.075
61667SOL    HW186840   0.675   9.111   6.070
61667SOL    HW286841   0.791   9.170   5.994
61668SOL     OW86842  13.679   8.670   6.198
61668SOL    HW186843  13.609   8.606   6.209
61668SOL    HW286844  13.659   8.738   6.262
61669SOL     OW86845  14.315  12.313  10.992
61669SOL    HW186846  14.237  12.309  10.936
61669SOL    HW286847  14.359  12.230  10.978
61670SOL     OW86848   0.894   8.572   8.524
61670SOL    HW186849   0.887   8.593   8.617
61670SOL    HW286850   0.985   8.543   8.513
61671SOL     OW86851  10.229   6.347  12.635
61671SOL    HW186852  10.301   6.359  12.573
61671SOL    HW286853  10.157   6.397  12.598
61672SOL     OW86854  12.614  10.170   7.361
61672SOL    HW186855  12.536  10.126   7.394
61672SOL    HW286856  12.605  10.260   7.392
61673SOL     OW86857  13.925   0.855   4.762
61673SOL    HW186858  14.016   0.872   4.787
61673SOL    HW286859  13.873   0.900   4.828
61674SOL     OW86860   5.185   2.991  12.696
61674SOL    HW186861   5.227   2.926  12.753
61674SOL    HW286862   5.252   3.059  12.685
61675SOL     OW86863  14.010  13.227  10.310
61675SOL    HW186864  14.053  13.141  10.307
61675SOL    HW286865  13.921  13.211  10.279
61676SOL     OW86866  14.754   9.209  10.530
61676SOL    HW186867  14.712   9.230  10.447
61676SOL    HW286868  14.768   9.295  10.571
61677SOL     OW86869  11.530   7.384   6.016
61677SOL    HW186870  11.575   7.436   6.082
61677SOL    HW286871  11.449   7.356   6.059
61678SOL     OW86872   4.601   8.732   9.863
61678SOL    HW186873   4.578   8.639   9.862
61678SOL    HW286874   4.643   8.746   9.948
61679SOL     OW86875  12.306   4.225   4.894
61679SOL    HW186876  12.388   4.179   4.910
61679SOL    HW286877  12.275   4.190   4.811
61680SOL     OW86878   3.063   1.136   7.967
61680SOL    HW186879   3.093   1.223   7.994
61680SOL    HW286880   2.978   1.126   8.010
61681SOL     OW86881  10.190   0.579  12.712
61681SOL    HW186882  10.243   0.509  12.751
61681SOL    HW286883  10.250   0.653  12.702
61682SOL     OW86884  13.629   9.192  11.847
61682SOL    HW186885  13.564   9.121  11.848
61682SOL    HW286886  13.678   9.178  11.766
61683SOL     OW86887   4.905  14.463  12.985
61683SOL    HW186888   4.840  14.416  12.932
61683SOL    HW286889   4.975  14.399  12.999
61684SOL     OW86890   4.263   7.961  12.240
61684SOL    HW186891   4.193   7.907  12.205
61684SOL    HW286892   4.288   8.018  12.167
61685SOL     OW86893   8.826  11.689   5.793
61685SOL    HW186894   8.906  11.724   5.754
61685SOL    HW286895   8.857  11.634   5.865
61686SOL     OW86896   2.887  10.537  10.516
61686SOL    HW186897   2.873  10.589  10.437
61686SOL    HW286898   2.955  10.474  10.491
61687SOL     OW86899   3.255   3.256   7.835
61687SOL    HW186900   3.209   3.195   7.777
61687SOL    HW286901   3.258   3.210   7.919
61688SOL     OW86902  14.714   5.428   1.305
61688SOL    HW186903  14.796   5.433   1.256
61688SOL    HW286904  14.700   5.518   1.337
61689SOL     OW86905  12.554   5.659  10.999
61689SOL    HW186906  12.466   5.698  10.993
61689SOL    HW286907  12.584   5.682  11.087
61690SOL     OW86908   1.091  10.102   9.235
61690SOL    HW186909   1.172  10.127   9.189
61690SOL    HW286910   1.026  10.095   9.165
61691SOL     OW86911   3.523   3.666   2.761
61691SOL    HW186912   3.465   3.742   2.752
61691SOL    HW286913   3.558   3.652   2.673
61692SOL     OW86914   9.514  10.006   3.004
61692SOL    HW186915   9.518   9.997   3.100
61692SOL    HW286916   9.483  10.095   2.990
61693SOL     OW86917  10.464   6.890  14.879
61693SOL    HW186918  10.378   6.859  14.852
61693SOL    HW286919  10.495   6.823   0.059
61694SOL     OW86920  13.228   4.927  14.109
61694SOL    HW186921  13.219   5.009  14.158
61694SOL    HW286922  13.139   4.901  14.089
61695SOL     OW86923   5.087   4.697  12.775
61695SOL    HW186924   5.166   4.651  12.746
61695SOL    HW286925   5.113   4.738  12.858
61696SOL     OW86926  14.772  12.909   5.485
61696SOL    HW186927  14.747  12.987   5.535
61696SOL    HW286928  14.764  12.837   5.547
61697SOL     OW86929   6.509  12.858   6.752
61697SOL    HW186930   6.470  12.838   6.668
61697SOL    HW286931   6.589  12.806   6.755
61698SOL     OW86932  13.175   0.276   9.897
61698SOL    HW186933  13.211   0.358   9.864
61698SOL    HW286934  13.127   0.301   9.976
61699SOL     OW86935   1.004   6.651   0.595
61699SOL    HW186936   1.056   6.693   0.526
61699SOL    HW286937   0.954   6.723   0.635
61700SOL     OW86938  10.866   5.463   0.394
61700SOL    HW186939  10.848   5.424   0.308
61700SOL    HW286940  10.944   5.418   0.425
61701SOL     OW86941   2.044  13.851   4.421
61701SOL    HW186942   2.035  13.803   4.339
61701SOL    HW286943   2.128  13.821   4.457
61702SOL     OW86944   3.045  14.403   9.777
61702SOL    HW186945   3.136  14.374   9.782
61702SOL    HW286946   3.043  14.487   9.823
61703SOL     OW86947  13.295   3.658   8.554
61703SOL    HW186948  13.284   3.727   8.619
61703SOL    HW286949  13.209   3.650   8.513
61704SOL     OW86950  12.448  13.187   0.506
61704SOL    HW186951  12.359  13.165   0.478
61704SOL    HW286952  12.491  13.102   0.518
61705SOL     OW86953   9.094   7.523   3.698
61705SOL    HW186954   9.083   7.547   3.606
61705SOL    HW286955   9.082   7.428   3.701
61706SOL     OW86956   3.656   6.783   5.552
61706SOL    HW186957   3.729   6.840   5.576
61706SOL    HW286958   3.644   6.796   5.458
61707SOL     OW86959   9.406  11.996   6.295
61707SOL    HW186960   9.330  12.033   6.340
61707SOL    HW286961   9.427  12.061   6.227
61708SOL     OW86962   9.414   0.958   5.731
61708SOL    HW186963   9.441   1.048   5.751
61708SOL    HW286964   9.361   0.932   5.806
61709SOL     OW86965  10.605  10.580  12.783
61709SOL    HW186966  10.655  10.579  12.865
61709SOL    HW286967  10.515  10.560  12.809
61710SOL     OW86968   5.910  14.218   2.751
61710SOL    HW186969   5.972  14.237   2.822
61710SOL    HW286970   5.879  14.304   2.723
61711SOL     OW86971  10.825   5.922  14.741
61711SOL    HW186972  10.905   5.976  14.740
61711SOL    HW286973  10.765   5.969  14.798
61712SOL     OW86974   3.500   4.840  14.525
61712SOL    HW186975   3.512   4.868  14.435
61712SOL    HW286976   3.586   4.851  14.566
61713SOL     OW86977   1.514   0.550  13.146
61713SOL    HW186978   1.555   0.547  13.233
61713SOL    HW286979   1.526   0.640  13.116
61714SOL     OW86980   3.387   6.429   9.944
61714SOL    HW186981   3.336   6.378  10.006
61714SOL    HW286982   3.451   6.476   9.997
61715SOL     OW86983   2.240   0.598   2.228
61715SOL    HW186984   2.163   0.577   2.281
61715SOL    HW286985   2.203   0.628   2.144
61716SOL     OW86986   6.670   7.274  12.473
61716SOL    HW186987   6.670   7.367  12.450
61716SOL    HW286988   6.590   7.240  12.433
61717SOL     OW86989   3.701  10.337   0.573
61717SOL    HW186990   3.783  10.381   0.550
61717SOL    HW286991   3.718  10.244   0.555
61718SOL     OW86992   5.438   3.839  14.492
61718SOL    HW186993   5.520   3.840  14.442
61718SOL    HW286994   5.380   3.781  14.441
61719SOL     OW86995  14.359   8.445  12.267
61719SOL    HW186996  14.363   8.496  12.349
61719SOL    HW286997  14.286   8.384  12.281
61720SOL     OW86998   8.705  12.486   5.825
61720SOL    HW186999   8.722  12.393   5.814
61720SOL    HW287000   8.653  12.492   5.905
61721SOL     OW87001  10.567   1.643   1.605
61721SOL    HW187002  10.496   1.707   1.615
61721SOL    HW287003  10.523   1.562   1.582
61722SOL     OW87004   7.768   8.198   4.839
61722SOL    HW187005   7.802   8.215   4.751
61722SOL    HW287006   7.691   8.143   4.824
61723SOL     OW87007  11.176  14.443  10.654
61723SOL    HW187008  11.122  14.422  10.731
61723SOL    HW287009  11.117  14.490  10.595
61724SOL     OW87010   5.247  12.297  11.040
61724SOL    HW187011   5.202  12.374  11.073
61724SOL    HW287012   5.214  12.225  11.095
61725SOL     OW87013   9.295  14.466   3.561
61725SOL    HW187014   9.384  14.432   3.557
61725SOL    HW287015   9.298  14.533   3.629
61726SOL     OW87016  12.723   8.745   3.325
61726SOL    HW187017  12.747   8.808   3.393
61726SOL    HW287018  12.629   8.730   3.337
61727SOL     OW87019   7.794  11.278   3.139
61727SOL    HW187020   7.844  11.229   3.204
61727SOL    HW287021   7.860  11.326   3.090
61728SOL     OW87022  14.524  11.080   9.381
61728SOL    HW187023  14.590  11.111   9.443
61728SOL    HW287024  14.495  10.996   9.418
61729SOL     OW87025   9.960   8.154   9.020
61729SOL    HW187026   9.899   8.140   9.091
61729SOL    HW287027   9.959   8.071   8.971
61730SOL     OW87028  13.632   5.176   3.762
61730SOL    HW187029  13.655   5.088   3.791
61730SOL    HW287030  13.616   5.167   3.668
61731SOL     OW87031  12.629   2.515   2.367
61731SOL    HW187032  12.689   2.590   2.373
61731SOL    HW287033  12.551   2.544   2.416
61732SOL     OW87034   8.523   9.102   6.893
61732SOL    HW187035   8.562   9.189   6.904
61732SOL    HW287036   8.450   9.101   6.954
61733SOL     OW87037  12.760  13.249  12.163
61733SOL    HW187038  12.667  13.255  12.185
61733SOL    HW287039  12.765  13.178  12.098
61734SOL     OW87040   7.034   8.842   7.327
61734SOL    HW187041   7.099   8.815   7.391
61734SOL    HW287042   7.072   8.918   7.284
61735SOL     OW87043   8.243   7.339  12.733
61735SOL    HW187044   8.223   7.376  12.819
61735SOL    HW287045   8.298   7.262  12.752
61736SOL     OW87046   0.783  12.730   9.618
61736SOL    HW187047   0.733  12.671   9.674
61736SOL    HW287048   0.819  12.795   9.679
61737SOL     OW87049   6.209   2.444   6.892
61737SOL    HW187050   6.270   2.507   6.928
61737SOL    HW287051   6.263   2.386   6.838
61738SOL     OW87052  12.319   2.079   7.294
61738SOL    HW187053  12.271   2.050   7.216
61738SOL    HW287054  12.329   2.000   7.347
61739SOL     OW87055   6.279  12.888  14.705
61739SOL    HW187056   6.244  12.957  14.762
61739SOL    HW287057   6.214  12.880  14.635
61740SOL     OW87058  13.393   7.993   4.874
61740SOL    HW187059  13.336   7.936   4.926
61740SOL    HW287060  13.342   8.074   4.864
61741SOL     OW87061   5.562   0.906   9.156
61741SOL    HW187062   5.626   0.885   9.088
61741SOL    HW287063   5.611   0.959   9.219
61742SOL     OW87064  13.322  14.066   6.793
61742SOL    HW187065  13.380  14.000   6.754
61742SOL    HW287066  13.235  14.044   6.760
61743SOL     OW87067  11.728   4.249   4.222
61743SOL    HW187068  11.765   4.173   4.266
61743SOL    HW287069  11.640   4.222   4.196
61744SOL     OW87070  10.630  12.991  13.819
61744SOL    HW187071  10.596  13.070  13.863
61744SOL    HW287072  10.676  13.025  13.742
61745SOL     OW87073  13.785   3.611  10.778
61745SOL    HW187074  13.801   3.662  10.699
61745SOL    HW287075  13.789   3.520  10.749
61746SOL     OW87076  14.875   1.581   3.874
61746SOL    HW187077  14.820   1.527   3.930
61746SOL    HW287078   0.042   1.518   3.821
61747SOL     OW87079  10.492  12.268  10.835
61747SOL    HW187080  10.512  12.253  10.742
61747SOL    HW287081  10.572  12.241  10.880
61748SOL     OW87082  12.428   3.676   1.787
61748SOL    HW187083  12.439   3.759   1.739
61748SOL    HW287084  12.382   3.619   1.725
61749SOL     OW87085   2.853   5.980   0.931
61749SOL    HW187086   2.766   6.003   0.962
61749SOL    HW287087   2.857   5.885   0.939
61750SOL     OW87088   2.090   3.348   2.961
61750SOL    HW187089   2.062   3.256   2.953
61750SOL    HW287090   2.030   3.396   2.904
61751SOL     OW87091   3.487  13.015   0.314
61751SOL    HW187092   3.465  12.922   0.319
61751SOL    HW287093   3.558  13.020   0.249
61752SOL     OW87094   4.572   0.572   1.752
61752SOL    HW187095   4.560   0.548   1.844
61752SOL    HW287096   4.650   0.627   1.751
61753SOL     OW87097  13.258   8.272  13.619
61753SOL    HW187098  13.291   8.182  13.622
61753SOL    HW287099  13.328   8.324  13.659
61754SOL     OW87100   6.096  11.241  13.045
61754SOL    HW187101   6.019  11.225  13.100
61754SOL    HW287102   6.072  11.203  12.960
61755SOL     OW87103  12.413   9.928   0.720
61755SOL    HW187104  12.409  10.015   0.759
61755SOL    HW287105  12.327   9.891   0.736
61756SOL     OW87106   3.538  10.641   5.587
61756SOL    HW187107   3.542  10.558   5.636
61756SOL    HW287108   3.559  10.616   5.497
61757SOL     OW87109  10.347   2.897   3.410
61757SOL    HW187110  10.437   2.923   3.389
61757SOL    HW287111  10.302   2.979   3.430
61758SOL     OW87112   2.065  10.917   6.434
61758SOL    HW187113   2.153  10.895   6.403
61758SOL    HW287114   2.009  10.850   6.395
61759SOL     OW87115   9.661   9.428  11.971
61759SOL    HW187116   9.711   9.370  11.914
61759SOL    HW287117   9.574   9.433  11.929
61760SOL     OW87118   3.354   7.178   1.321
61760SOL    HW187119   3.332   7.170   1.414
61760SOL    HW287120   3.354   7.272   1.305
61761SOL     OW87121   4.808   8.928   6.987
61761SOL    HW187122   4.828   8.856   6.927
61761SOL    HW287123   4.876   8.923   7.054
61762SOL     OW87124  11.334   3.069   5.619
61762SOL    HW187125  11.402   3.005   5.639
61762SOL    HW287126  11.262   3.018   5.582
61763SOL     OW87127   3.900   9.014   0.968
61763SOL    HW187128   3.812   8.977   0.974
61763SOL    HW287129   3.887   9.096   0.920
61764SOL     OW87130   7.599   5.966  14.497
61764SOL    HW187131   7.692   5.948  14.480
61764SOL    HW287132   7.591   5.960  14.592
61765SOL     OW87133   3.069   9.783   0.344
61765SOL    HW187134   3.160   9.756   0.355
61765SOL    HW287135   3.070   9.877   0.359
61766SOL     OW87136  14.367  10.230   9.082
61766SOL    HW187137  14.281  10.193   9.059
61766SOL    HW287138  14.380  10.301   9.019
61767SOL     OW87139   6.753   5.487  12.886
61767SOL    HW187140   6.719   5.440  12.810
61767SOL    HW287141   6.683   5.548  12.910
61768SOL     OW87142  12.233  12.916  10.461
61768SOL    HW187143  12.326  12.911  10.486
61768SOL    HW287144  12.187  12.932  10.543
61769SOL     OW87145   5.620  10.860  10.510
61769SOL    HW187146   5.681  10.787  10.498
61769SOL    HW287147   5.586  10.849  10.599
61770SOL     OW87148  14.378  13.752   1.747
61770SOL    HW187149  14.431  13.815   1.796
61770SOL    HW287150  14.429  13.670   1.752
61771SOL     OW87151   3.179  10.479  14.562
61771SOL    HW187152   3.150  10.400  14.608
61771SOL    HW287153   3.145  10.551  14.615
61772SOL     OW87154   1.660   7.808  11.857
61772SOL    HW187155   1.570   7.834  11.877
61772SOL    HW287156   1.710   7.890  11.857
61773SOL     OW87157   1.006  12.116   1.418
61773SOL    HW187158   1.044  12.191   1.464
61773SOL    HW287159   1.032  12.040   1.470
61774SOL     OW87160   2.689   5.955  10.042
61774SOL    HW187161   2.783   5.939  10.035
61774SOL    HW287162   2.649   5.881   9.997
61775SOL     OW87163   7.586  10.024   5.671
61775SOL    HW187164   7.626  10.103   5.634
61775SOL    HW287165   7.567  10.047   5.762
61776SOL     OW87166  10.008   1.526   7.642
61776SOL    HW187167  10.075   1.580   7.601
61776SOL    HW287168   9.938   1.587   7.665
61777SOL     OW87169   1.523   2.945   7.346
61777SOL    HW187170   1.597   2.889   7.368
61777SOL    HW287171   1.452   2.915   7.403
61778SOL     OW87172   9.782  14.165  13.222
61778SOL    HW187173   9.748  14.149  13.311
61778SOL    HW287174   9.705  14.156  13.165
61779SOL     OW87175   6.689   3.037   3.265
61779SOL    HW187176   6.674   3.131   3.272
61779SOL    HW287177   6.625   3.007   3.200
61780SOL     OW87178   3.076   7.651  13.535
61780SOL    HW187179   3.043   7.620  13.619
61780SOL    HW287180   3.165   7.617  13.530
61781SOL     OW87181  12.531   1.621   2.544
61781SOL    HW187182  12.550   1.656   2.631
61781SOL    HW287183  12.485   1.539   2.560
61782SOL     OW87184   7.090   3.669   5.339
61782SOL    HW187185   7.086   3.721   5.259
61782SOL    HW287186   7.133   3.727   5.403
61783SOL     OW87187  14.235   1.122  10.229
61783SOL    HW187188  14.230   1.060  10.302
61783SOL    HW287189  14.242   1.208  10.270
61784SOL     OW87190  14.564  11.199   8.001
61784SOL    HW187191  14.595  11.241   7.921
61784SOL    HW287192  14.471  11.184   7.986
61785SOL     OW87193   0.646  10.101   9.557
61785SOL    HW187194   0.577  10.156   9.519
61785SOL    HW287195   0.682  10.153   9.629
61786SOL     OW87196   0.846   1.560  14.159
61786SOL    HW187197   0.788   1.497  14.202
61786SOL    HW287198   0.793   1.639  14.149
61787SOL     OW87199  10.806   2.710   0.845
61787SOL    HW187200  10.859   2.763   0.904
61787SOL    HW287201  10.809   2.757   0.761
61788SOL     OW87202  11.288  12.891   1.098
61788SOL    HW187203  11.346  12.875   1.172
61788SOL    HW287204  11.298  12.984   1.079
61789SOL     OW87205   9.111   0.015   8.473
61789SOL    HW187206   9.186  14.839   8.458
61789SOL    HW287207   9.057  14.850   8.538
61790SOL     OW87208   1.639   9.843   0.817
61790SOL    HW187209   1.681   9.793   0.887
61790SOL    HW287210   1.710   9.860   0.755
61791SOL     OW87211  10.718   0.278   5.148
61791SOL    HW187212  10.775   0.264   5.073
61791SOL    HW287213  10.725   0.197   5.199
61792SOL     OW87214  13.965   7.892  10.478
61792SOL    HW187215  13.887   7.843  10.451
61792SOL    HW287216  13.936   7.983  10.484
61793SOL     OW87217   9.629   9.665  14.461
61793SOL    HW187218   9.687   9.741  14.456
61793SOL    HW287219   9.545   9.696  14.429
61794SOL     OW87220   5.795  12.840   5.594
61794SOL    HW187221   5.883  12.812   5.618
61794SOL    HW287222   5.774  12.790   5.515
61795SOL     OW87223  11.913   9.380  10.486
61795SOL    HW187224  11.869   9.442  10.429
61795SOL    HW287225  11.913   9.421  10.572
61796SOL     OW87226   3.726   2.541   1.842
61796SOL    HW187227   3.812   2.530   1.882
61796SOL    HW287228   3.665   2.504   1.905
61797SOL     OW87229  10.969  12.765   2.828
61797SOL    HW187230  11.051  12.730   2.794
61797SOL    HW287231  10.901  12.721   2.778
61798SOL     OW87232  14.661   5.332   7.839
61798SOL    HW187233  14.620   5.358   7.756
61798SOL    HW287234  14.646   5.406   7.897
61799SOL     OW87235   1.838   0.352   1.822
61799SOL    HW187236   1.760   0.395   1.857
61799SOL    HW287237   1.911   0.395   1.866
61800SOL     OW87238  13.922   6.391   2.152
61800SOL    HW187239  13.946   6.378   2.244
61800SOL    HW287240  13.996   6.354   2.103
61801SOL     OW87241   6.934   6.770  10.090
61801SOL    HW187242   6.893   6.684  10.096
61801SOL    HW287243   6.870   6.824  10.045
61802SOL     OW87244   5.802   9.485   2.318
61802SOL    HW187245   5.768   9.556   2.264
61802SOL    HW287246   5.730   9.462   2.376
61803SOL     OW87247  10.175  14.755  11.803
61803SOL    HW187248  10.266  14.726  11.798
61803SOL    HW287249  10.164  14.782  11.894
61804SOL     OW87250   3.185  14.625   4.958
61804SOL    HW187251   3.090  14.635   4.958
61804SOL    HW287252   3.200  14.531   4.967
61805SOL     OW87253  14.513  10.839   8.026
61805SOL    HW187254  14.557  10.760   8.058
61805SOL    HW287255  14.585  10.898   8.002
61806SOL     OW87256   6.208   0.899   8.843
61806SOL    HW187257   6.303   0.888   8.833
61806SOL    HW287258   6.173   0.810   8.842
61807SOL     OW87259  11.699  11.418   3.622
61807SOL    HW187260  11.702  11.411   3.718
61807SOL    HW287261  11.616  11.463   3.605
61808SOL     OW87262   1.503   9.425  11.518
61808SOL    HW187263   1.524   9.494  11.582
61808SOL    HW287264   1.539   9.457  11.436
61809SOL     OW87265   6.084  12.821   7.713
61809SOL    HW187266   6.063  12.733   7.746
61809SOL    HW287267   6.139  12.806   7.637
61810SOL     OW87268   6.636   5.413   6.159
61810SOL    HW187269   6.712   5.441   6.209
61810SOL    HW287270   6.599   5.340   6.210
61811SOL     OW87271  12.452   0.619   9.097
61811SOL    HW187272  12.425   0.635   9.007
61811SOL    HW287273  12.383   0.658   9.150
61812SOL     OW87274   9.559   5.169  12.161
61812SOL    HW187275   9.508   5.134  12.089
61812SOL    HW287276   9.638   5.203  12.120
61813SOL     OW87277  11.743  14.056   1.096
61813SOL    HW187278  11.768  14.140   1.057
61813SOL    HW287279  11.822  14.002   1.090
61814SOL     OW87280  12.514  14.657   2.665
61814SOL    HW187281  12.436  14.703   2.632
61814SOL    HW287282  12.557  14.625   2.586
61815SOL     OW87283  14.665   9.494   5.695
61815SOL    HW187284  14.608   9.419   5.708
61815SOL    HW287285  14.727   9.490   5.768
61816SOL     OW87286   4.951  12.022   8.372
61816SOL    HW187287   4.948  11.967   8.451
61816SOL    HW287288   5.040  12.011   8.339
61817SOL     OW87289   1.862   8.471  12.065
61817SOL    HW187290   1.888   8.556  12.029
61817SOL    HW287291   1.903   8.407  12.006
61818SOL     OW87292   6.406  14.120   2.934
61818SOL    HW187293   6.367  14.075   2.859
61818SOL    HW287294   6.377  14.211   2.925
61819SOL     OW87295   4.924   9.783   7.770
61819SOL    HW187296   4.839   9.771   7.728
61819SOL    HW287297   4.931   9.878   7.782
61820SOL     OW87298   2.671   5.005   4.990
61820SOL    HW187299   2.721   4.976   5.066
61820SOL    HW287300   2.737   5.039   4.930
61821SOL     OW87301  13.423  11.861   3.956
61821SOL    HW187302  13.506  11.819   3.933
61821SOL    HW287303  13.416  11.849   4.051
61822SOL     OW87304   2.676   4.109   5.071
61822SOL    HW187305   2.652   4.137   4.982
61822SOL    HW287306   2.734   4.034   5.058
61823SOL     OW87307   6.114   1.132  10.966
61823SOL    HW187308   6.129   1.210  11.020
61823SOL    HW287309   6.042   1.086  11.010
61824SOL     OW87310  12.793  11.389   4.136
61824SOL    HW187311  12.776  11.354   4.223
61824SOL    HW287312  12.709  11.426   4.108
61825SOL     OW87313   9.261   3.147   8.822
61825SOL    HW187314   9.181   3.195   8.803
61825SOL    HW287315   9.312   3.153   8.740
61826SOL     OW87316   3.219   2.961   3.293
61826SOL    HW187317   3.266   2.892   3.244
61826SOL    HW287318   3.230   3.040   3.240
61827SOL     OW87319   5.889   9.982   8.879
61827SOL    HW187320   5.853  10.051   8.823
61827SOL    HW287321   5.947  10.028   8.939
61828SOL     OW87322   6.628   2.134  14.506
61828SOL    HW187323   6.628   2.182  14.423
61828SOL    HW287324   6.601   2.198  14.571
61829SOL     OW87325  12.779  13.299  13.536
61829SOL    HW187326  12.847  13.234  13.524
61829SOL    HW287327  12.777  13.315  13.631
61830SOL     OW87328   5.631  13.879   8.091
61830SOL    HW187329   5.603  13.850   8.004
61830SOL    HW287330   5.726  13.881   8.087
61831SOL     OW87331   9.160  11.811  13.935
61831SOL    HW187332   9.170  11.791  13.842
61831SOL    HW287333   9.103  11.742  13.969
61832SOL     OW87334  10.743   9.033  14.103
61832SOL    HW187335  10.776   9.090  14.034
61832SOL    HW287336  10.649   9.049  14.106
61833SOL     OW87337   8.040   1.280   5.232
61833SOL    HW187338   7.973   1.260   5.298
61833SOL    HW287339   8.015   1.366   5.198
61834SOL     OW87340  14.214   3.009   8.260
61834SOL    HW187341  14.238   2.980   8.172
61834SOL    HW287342  14.260   3.091   8.272
61835SOL     OW87343   8.769  12.367  12.954
61835SOL    HW187344   8.687  12.412  12.933
61835SOL    HW287345   8.757  12.336  13.044
61836SOL     OW87346  12.641  14.295  14.882
61836SOL    HW187347  12.560  14.325   0.041
61836SOL    HW287348  12.708  14.309   0.067
61837SOL     OW87349   9.532  14.571   6.272
61837SOL    HW187350   9.553  14.556   6.180
61837SOL    HW287351   9.437  14.585   6.273
61838SOL     OW87352  10.134   1.219   0.781
61838SOL    HW187353  10.052   1.170   0.778
61838SOL    HW287354  10.165   1.218   0.690
61839SOL     OW87355  10.691  13.995   5.176
61839SOL    HW187356  10.724  13.910   5.145
61839SOL    HW287357  10.770  14.043   5.201
61840SOL     OW87358   3.015   4.231   2.265
61840SOL    HW187359   3.100   4.238   2.310
61840SOL    HW287360   2.997   4.319   2.234
61841SOL     OW87361   1.987  12.951   3.807
61841SOL    HW187362   2.053  12.893   3.843
61841SOL    HW287363   2.030  12.994   3.733
61842SOL     OW87364   2.124   7.063   0.766
61842SOL    HW187365   2.044   7.089   0.810
61842SOL    HW287366   2.188   7.129   0.792
61843SOL     OW87367   6.437   2.044   4.935
61843SOL    HW187368   6.361   1.999   4.897
61843SOL    HW287369   6.414   2.136   4.934
61844SOL     OW87370   7.678  14.312   4.314
61844SOL    HW187371   7.687  14.221   4.287
61844SOL    HW287372   7.727  14.362   4.249
61845SOL     OW87373   0.908   5.044  11.194
61845SOL    HW187374   0.935   5.066  11.283
61845SOL    HW287375   0.833   5.101  11.177
61846SOL     OW87376  13.423   2.307   2.121
61846SOL    HW187377  13.397   2.229   2.169
61846SOL    HW287378  13.362   2.312   2.047
61847SOL     OW87379   7.702   3.546   2.038
61847SOL    HW187380   7.677   3.512   2.124
61847SOL    HW287381   7.619   3.569   1.996
61848SOL     OW87382   9.391   9.237  11.162
61848SOL    HW187383   9.454   9.258  11.092
61848SOL    HW287384   9.377   9.321  11.206
61849SOL     OW87385   2.123   9.863   0.155
61849SOL    HW187386   2.037   9.859   0.198
61849SOL    HW287387   2.130   9.780   0.107
61850SOL     OW87388   1.093   6.272   8.341
61850SOL    HW187389   1.008   6.304   8.371
61850SOL    HW287390   1.143   6.351   8.322
61851SOL     OW87391   6.593  12.269  13.595
61851SOL    HW187392   6.615  12.299  13.506
61851SOL    HW287393   6.617  12.176  13.595
61852SOL     OW87394   4.355  10.582   3.400
61852SOL    HW187395   4.406  10.662   3.412
61852SOL    HW287396   4.315  10.591   3.314
61853SOL     OW87397   3.171   4.029   6.568
61853SOL    HW187398   3.117   4.072   6.634
61853SOL    HW287399   3.251   4.082   6.564
61854SOL     OW87400  11.335   3.465  12.777
61854SOL    HW187401  11.289   3.389  12.812
61854SOL    HW287402  11.428   3.445  12.790
61855SOL     OW87403   7.275  10.156   7.467
61855SOL    HW187404   7.354  10.178   7.418
61855SOL    HW287405   7.302  10.089   7.529
61856SOL     OW87406   8.272   3.560   3.378
61856SOL    HW187407   8.260   3.531   3.288
61856SOL    HW287408   8.354   3.519   3.406
61857SOL     OW87409   9.698   8.102   8.828
61857SOL    HW187410   9.685   8.050   8.749
61857SOL    HW287411   9.789   8.084   8.853
61858SOL     OW87412  10.992   5.913   1.190
61858SOL    HW187413  11.066   5.858   1.164
61858SOL    HW287414  10.919   5.851   1.201
61859SOL     OW87415  14.560   4.310  12.121
61859SOL    HW187416  14.510   4.342  12.196
61859SOL    HW287417  14.556   4.381  12.057
61860SOL     OW87418   3.721   2.609   5.331
61860SOL    HW187419   3.778   2.563   5.393
61860SOL    HW287420   3.726   2.701   5.357
61861SOL     OW87421   7.568  10.451   2.827
61861SOL    HW187422   7.490  10.407   2.792
61861SOL    HW287423   7.559  10.542   2.798
61862SOL     OW87424   0.232   2.064  14.595
61862SOL    HW187425   0.324   2.068  14.620
61862SOL    HW287426   0.223   1.982  14.547
61863SOL     OW87427  12.710  13.790  10.862
61863SOL    HW187428  12.639  13.736  10.895
61863SOL    HW287429  12.741  13.744  10.783
61864SOL     OW87430   0.540  14.002  13.301
61864SOL    HW187431   0.463  14.060  13.298
61864SOL    HW287432   0.514  13.931  13.359
61865SOL     OW87433   8.013   8.663   1.579
61865SOL    HW187434   8.060   8.593   1.534
61865SOL    HW287435   7.982   8.623   1.661
61866SOL     OW87436  11.613   2.106  14.836
61866SOL    HW187437  11.518   2.093  14.837
61866SOL    HW287438  11.649   2.017  14.841
61867SOL     OW87439   3.688   0.409   7.693
61867SOL    HW187440   3.779   0.384   7.708
61867SOL    HW287441   3.694   0.492   7.646
61868SOL     OW87442  10.905   6.118   7.924
61868SOL    HW187443  10.842   6.149   7.989
61868SOL    HW287444  10.990   6.129   7.967
61869SOL     OW87445  13.810   0.745   8.580
61869SOL    HW187446  13.807   0.823   8.524
61869SOL    HW287447  13.726   0.744   8.626
61870SOL     OW87448   3.522  12.498   2.610
61870SOL    HW187449   3.534  12.410   2.574
61870SOL    HW287450   3.611  12.528   2.628
61871SOL     OW87451   0.753   9.075   8.625
61871SOL    HW187452   0.837   9.071   8.579
61871SOL    HW287453   0.710   9.153   8.589
61872SOL     OW87454  11.765   0.148   0.832
61872SOL    HW187455  11.778   0.242   0.815
61872SOL    HW287456  11.852   0.116   0.856
61873SOL     OW87457   8.125   8.122  14.196
61873SOL    HW187458   8.091   8.037  14.224
61873SOL    HW287459   8.193   8.143  14.259
61874SOL     OW87460  11.814  10.452   1.858
61874SOL    HW187461  11.844  10.363   1.840
61874SOL    HW287462  11.776  10.448   1.945
61875SOL     OW87463   2.971  11.876   9.450
61875SOL    HW187464   2.908  11.806   9.468
61875SOL    HW287465   2.989  11.868   9.356
61876SOL     OW87466   8.239  11.187  14.212
61876SOL    HW187467   8.193  11.104  14.194
61876SOL    HW287468   8.195  11.221  14.290
61877SOL     OW87469  10.928   8.296  11.612
61877SOL    HW187470  10.944   8.277  11.705
61877SOL    HW287471  11.012   8.280  11.570
61878SOL     OW87472  14.418  12.682   3.463
61878SOL    HW187473  14.409  12.588   3.482
61878SOL    HW287474  14.423  12.686   3.368
61879SOL     OW87475  14.654   9.347   4.233
61879SOL    HW187476  14.639   9.436   4.203
61879SOL    HW287477  14.581   9.328   4.292
61880SOL     OW87478   6.197   9.570   8.298
61880SOL    HW187479   6.230   9.565   8.388
61880SOL    HW287480   6.104   9.590   8.307
61881SOL     OW87481  13.536  11.805   9.967
61881SOL    HW187482  13.624  11.768   9.970
61881SOL    HW287483  13.541  11.885  10.020
61882SOL     OW87484  13.189  14.101   6.131
61882SOL    HW187485  13.282  14.103   6.109
61882SOL    HW287486  13.186  14.119   6.225
61883SOL     OW87487  10.575   9.675   4.692
61883SOL    HW187488  10.551   9.582   4.687
61883SOL    HW287489  10.579   9.704   4.601
61884SOL     OW87490  12.324   7.313   0.060
61884SOL    HW187491  12.254   7.306  14.877
61884SOL    HW287492  12.372   7.230   0.052
61885SOL     OW87493   4.117  13.722   3.738
61885SOL    HW187494   4.055  13.731   3.666
61885SOL    HW287495   4.104  13.800   3.792
61886SOL     OW87496  10.097   7.895  11.002
61886SOL    HW187497  10.073   7.967  11.061
61886SOL    HW287498  10.193   7.893  11.005
61887SOL     OW87499   9.164   5.354  13.146
61887SOL    HW187500   9.087   5.327  13.096
61887SOL    HW287501   9.131   5.417  13.210
61888SOL     OW87502  10.331  12.469   7.023
61888SOL    HW187503  10.331  12.549   6.971
61888SOL    HW287504  10.272  12.487   7.096
61889SOL     OW87505  11.173   9.792   3.315
61889SOL    HW187506  11.205   9.880   3.334
61889SOL    HW287507  11.186   9.781   3.221
61890SOL     OW87508   0.314   7.925  10.791
61890SOL    HW187509   0.287   7.836  10.769
61890SOL    HW287510   0.313   7.928  10.887
61891SOL     OW87511  11.555   2.378   2.174
61891SOL    HW187512  11.543   2.283   2.183
61891SOL    HW287513  11.599   2.388   2.090
61892SOL     OW87514   7.707  14.572   7.234
61892SOL    HW187515   7.710  14.499   7.172
61892SOL    HW287516   7.724  14.532   7.319
61893SOL     OW87517   0.085  10.048   3.928
61893SOL    HW187518   0.128  10.015   4.007
61893SOL    HW287519   0.094  10.144   3.934
61894SOL     OW87520  10.905   9.093   9.235
61894SOL    HW187521  10.855   9.159   9.283
61894SOL    HW287522  10.918   9.131   9.148
61895SOL     OW87523   3.821   3.605   2.780
61895SOL    HW187524   3.836   3.693   2.813
61895SOL    HW287525   3.902   3.558   2.798
61896SOL     OW87526   1.789   7.173  14.611
61896SOL    HW187527   1.798   7.264  14.585
61896SOL    HW287528   1.696   7.164  14.634
61897SOL     OW87529  12.756  13.761   9.693
61897SOL    HW187530  12.794  13.829   9.748
61897SOL    HW287531  12.809  13.764   9.613
61898SOL     OW87532  12.157   0.773   5.345
61898SOL    HW187533  12.189   0.847   5.396
61898SOL    HW287534  12.218   0.766   5.271
61899SOL     OW87535   6.665  10.534   7.328
61899SOL    HW187536   6.607  10.501   7.397
61899SOL    HW287537   6.752  10.504   7.353
61900SOL     OW87538   2.868  10.388   4.910
61900SOL    HW187539   2.945  10.338   4.882
61900SOL    HW287540   2.895  10.480   4.900
61901SOL     OW87541  10.280   8.207  10.897
61901SOL    HW187542  10.326   8.155  10.962
61901SOL    HW287543  10.213   8.149  10.862
61902SOL     OW87544   7.345  10.847   9.235
61902SOL    HW187545   7.386  10.779   9.289
61902SOL    HW287546   7.389  10.928   9.261
61903SOL     OW87547   9.604   7.369   9.024
61903SOL    HW187548   9.570   7.444   8.975
61903SOL    HW287549   9.536   7.348   9.087
61904SOL     OW87550   7.476  13.087   3.558
61904SOL    HW187551   7.462  13.158   3.620
61904SOL    HW287552   7.393  13.039   3.557
61905SOL     OW87553   5.951   0.952  13.651
61905SOL    HW187554   6.037   0.954  13.693
61905SOL    HW287555   5.907   1.031  13.682
61906SOL     OW87556   9.035   3.993  14.365
61906SOL    HW187557   9.002   4.034  14.285
61906SOL    HW287558   8.996   4.044  14.436
61907SOL     OW87559  11.868   9.152  10.025
61907SOL    HW187560  11.864   9.146  10.121
61907SOL    HW287561  11.847   9.243  10.006
61908SOL     OW87562   2.332   8.312   5.351
61908SOL    HW187563   2.375   8.378   5.296
61908SOL    HW287564   2.253   8.356   5.383
61909SOL     OW87565   2.183  14.558   0.832
61909SOL    HW187566   2.248  14.497   0.798
61909SOL    HW287567   2.220  14.589   0.914
61910SOL     OW87568  11.577   9.038   4.638
61910SOL    HW187569  11.643   9.081   4.692
61910SOL    HW287570  11.552   9.105   4.573
61911SOL     OW87571   1.784   4.489   2.165
61911SOL    HW187572   1.740   4.404   2.167
61911SOL    HW287573   1.713   4.553   2.173
61912SOL     OW87574   5.992   3.849   8.946
61912SOL    HW187575   6.087   3.859   8.958
61912SOL    HW287576   5.966   3.786   9.013
61913SOL     OW87577   5.994   2.391  13.260
61913SOL    HW187578   5.929   2.434  13.315
61913SOL    HW287579   5.948   2.316  13.222
61914SOL     OW87580   4.871   0.007   0.030
61914SOL    HW187581   4.831   0.093   0.015
61914SOL    HW287582   4.816  14.849   0.098
61915SOL     OW87583   5.317   9.590   4.875
61915SOL    HW187584   5.392   9.532   4.894
61915SOL    HW287585   5.259   9.579   4.951
61916SOL     OW87586   1.539  12.371   4.236
61916SOL    HW187587   1.473  12.372   4.304
61916SOL    HW287588   1.511  12.438   4.174
61917SOL     OW87589  13.930   0.328   4.811
61917SOL    HW187590  14.003   0.384   4.838
61917SOL    HW287591  13.863   0.389   4.781
61918SOL     OW87592   6.866  14.687   0.793
61918SOL    HW187593   6.891  14.618   0.733
61918SOL    HW287594   6.939  14.749   0.790
61919SOL     OW87595  10.218   8.435   3.001
61919SOL    HW187596  10.216   8.448   3.096
61919SOL    HW287597  10.129   8.410   2.979
61920SOL     OW87598  11.752  14.855  14.611
61920SOL    HW187599  11.703  14.790  14.561
61920SOL    HW287600  11.741   0.054  14.561
61921SOL     OW87601   5.523   5.373   6.501
61921SOL    HW187602   5.480   5.458   6.490
61921SOL    HW287603   5.600   5.378   6.445
61922SOL     OW87604  11.514  12.445   1.709
61922SOL    HW187605  11.576  12.508   1.673
61922SOL    HW287606  11.434  12.458   1.658
61923SOL     OW87607   3.505   4.204   5.035
61923SOL    HW187608   3.542   4.289   5.011
61923SOL    HW287609   3.482   4.163   4.952
61924SOL     OW87610   2.795  10.704  12.159
61924SOL    HW187611   2.879  10.692  12.114
61924SOL    HW287612   2.797  10.641  12.231
61925SOL     OW87613   1.880   1.026  10.330
61925SOL    HW187614   1.930   0.950  10.299
61925SOL    HW287615   1.930   1.058  10.405
61926SOL     OW87616   1.569   9.906  11.659
61926SOL    HW187617   1.476   9.929  11.665
61926SOL    HW287618   1.581   9.881  11.567
61927SOL     OW87619   7.169   7.066  13.989
61927SOL    HW187620   7.092   7.123  13.988
61927SOL    HW287621   7.201   7.066  13.899
61928SOL     OW87622   5.936  13.584  14.642
61928SOL    HW187623   5.841  13.574  14.641
61928SOL    HW287624   5.967  13.510  14.695
61929SOL     OW87625  14.257   8.026   2.312
61929SOL    HW187626  14.177   8.057   2.270
61929SOL    HW287627  14.233   8.015   2.404
61930SOL     OW87628   9.226  12.990   8.356
61930SOL    HW187629   9.184  12.905   8.366
61930SOL    HW287630   9.197  13.040   8.433
61931SOL     OW87631   4.307   7.957   4.683
61931SOL    HW187632   4.327   7.943   4.590
61931SOL    HW287633   4.275   7.872   4.713
61932SOL     OW87634  12.237   6.348   2.912
61932SOL    HW187635  12.146   6.333   2.885
61932SOL    HW287636  12.242   6.313   3.001
61933SOL     OW87637   7.376  11.688   8.917
61933SOL    HW187638   7.455  11.720   8.874
61933SOL    HW287639   7.386  11.592   8.917
61934SOL     OW87640   1.711   9.096   4.364
61934SOL    HW187641   1.643   9.122   4.302
61934SOL    HW287642   1.685   9.009   4.393
61935SOL     OW87643   5.441  13.869  14.437
61935SOL    HW187644   5.379  13.908  14.376
61935SOL    HW287645   5.404  13.784  14.459
61936SOL     OW87646   7.741   3.795  14.119
61936SOL    HW187647   7.696   3.745  14.051
61936SOL    HW287648   7.825   3.751  14.130
61937SOL     OW87649   5.302   8.326   1.030
61937SOL    HW187650   5.275   8.234   1.034
61937SOL    HW287651   5.310   8.353   1.122
61938SOL     OW87652   8.166   5.307  11.343
61938SOL    HW187653   8.162   5.394  11.384
61938SOL    HW287654   8.076   5.276  11.344
61939SOL     OW87655   3.627   3.350   5.344
61939SOL    HW187656   3.703   3.408   5.344
61939SOL    HW287657   3.650   3.280   5.406
61940SOL     OW87658   1.866  14.703   3.637
61940SOL    HW187659   1.838  14.612   3.626
61940SOL    HW287660   1.950  14.696   3.683
61941SOL     OW87661  13.298   0.109   5.449
61941SOL    HW187662  13.292   0.015   5.433
61941SOL    HW287663  13.229   0.127   5.512
61942SOL     OW87664   9.634   5.835  14.718
61942SOL    HW187665   9.617   5.742  14.736
61942SOL    HW287666   9.597   5.849  14.631
61943SOL     OW87667   9.206   0.040  13.811
61943SOL    HW187668   9.273   0.029  13.879
61943SOL    HW287669   9.123   0.036  13.858
61944SOL     OW87670   6.919  10.371   1.287
61944SOL    HW187671   6.869  10.447   1.318
61944SOL    HW287672   6.955  10.331   1.366
61945SOL     OW87673   8.369  13.955   0.754
61945SOL    HW187674   8.430  13.954   0.681
61945SOL    HW287675   8.291  13.909   0.721
61946SOL     OW87676  10.189   3.388  14.817
61946SOL    HW187677  10.098   3.358  14.821
61946SOL    HW287678  10.239   3.315  14.854
61947SOL     OW87679   3.184   3.708   3.764
61947SOL    HW187680   3.201   3.796   3.800
61947SOL    HW287681   3.215   3.648   3.831
61948SOL     OW87682   9.426   3.620  14.733
61948SOL    HW187683   9.470   3.586  14.812
61948SOL    HW287684   9.495   3.624  14.667
61949SOL     OW87685  13.272   6.168   9.004
61949SOL    HW187686  13.278   6.190   8.911
61949SOL    HW287687  13.223   6.241   9.043
61950SOL     OW87688   1.111   9.517  13.051
61950SOL    HW187689   1.082   9.575  12.981
61950SOL    HW287690   1.089   9.429  13.020
61951SOL     OW87691   9.299   2.384  11.059
61951SOL    HW187692   9.330   2.396  11.148
61951SOL    HW287693   9.204   2.399  11.064
61952SOL     OW87694  13.597   0.278   6.329
61952SOL    HW187695  13.508   0.302   6.301
61952SOL    HW287696  13.615   0.196   6.284
61953SOL     OW87697   2.440  11.512   8.393
61953SOL    HW187698   2.389  11.573   8.340
61953SOL    HW287699   2.382  11.437   8.406
61954SOL     OW87700  11.921   2.509   9.931
61954SOL    HW187701  11.868   2.555   9.996
61954SOL    HW287702  11.998   2.479   9.981
61955SOL     OW87703  14.365  11.675   1.958
61955SOL    HW187704  14.441  11.733   1.962
61955SOL    HW287705  14.340  11.661   2.049
61956SOL     OW87706   3.480   4.671  13.015
61956SOL    HW187707   3.448   4.640  12.930
61956SOL    HW287708   3.422   4.631  13.079
61957SOL     OW87709  10.866  14.583   8.068
61957SOL    HW187710  10.799  14.534   8.115
61957SOL    HW287711  10.943  14.579   8.124
61958SOL     OW87712   4.632  12.029   4.596
61958SOL    HW187713   4.670  12.019   4.509
61958SOL    HW287714   4.706  12.052   4.652
61959SOL     OW87715   4.744   0.281   5.455
61959SOL    HW187716   4.740   0.185   5.450
61959SOL    HW287717   4.798   0.298   5.533
61960SOL     OW87718   0.910   3.038  12.006
61960SOL    HW187719   0.963   3.068  11.931
61960SOL    HW287720   0.897   3.117  12.059
61961SOL     OW87721   5.970   0.453   1.479
61961SOL    HW187722   5.924   0.537   1.481
61961SOL    HW287723   5.961   0.423   1.388
61962SOL     OW87724   7.187   7.302   3.899
61962SOL    HW187725   7.220   7.213   3.908
61962SOL    HW287726   7.152   7.324   3.985
61963SOL     OW87727   9.407   2.197   0.477
61963SOL    HW187728   9.429   2.284   0.444
61963SOL    HW287729   9.469   2.183   0.548
61964SOL     OW87730   8.320  10.440   9.440
61964SOL    HW187731   8.258  10.386   9.392
61964SOL    HW287732   8.295  10.430   9.532
61965SOL     OW87733   1.636   9.792   5.138
61965SOL    HW187734   1.641   9.816   5.046
61965SOL    HW287735   1.688   9.859   5.183
61966SOL     OW87736  11.074  10.219   9.581
61966SOL    HW187737  11.132  10.276   9.633
61966SOL    HW287738  11.101  10.234   9.491
61967SOL     OW87739   8.248   4.013   6.289
61967SOL    HW187740   8.210   4.043   6.206
61967SOL    HW287741   8.173   4.010   6.348
61968SOL     OW87742   5.495   9.209  10.280
61968SOL    HW187743   5.520   9.120  10.308
61968SOL    HW287744   5.399   9.209  10.285
61969SOL     OW87745  12.454   7.760  14.850
61969SOL    HW187746  12.359   7.767  14.839
61969SOL    HW287747  12.465   7.681   0.021
61970SOL     OW87748  11.953   7.653   3.177
61970SOL    HW187749  11.860   7.657   3.158
61970SOL    HW287750  11.995   7.698   3.104
61971SOL     OW87751   5.210   5.931  13.518
61971SOL    HW187752   5.181   5.909  13.430
61971SOL    HW287753   5.132   5.924  13.572
61972SOL     OW87754   5.461   1.806   6.853
61972SOL    HW187755   5.437   1.842   6.938
61972SOL    HW287756   5.540   1.756   6.869
61973SOL     OW87757   8.091   0.737   9.273
61973SOL    HW187758   8.153   0.794   9.228
61973SOL    HW287759   8.144   0.664   9.305
61974SOL     OW87760   8.052   4.882  11.624
61974SOL    HW187761   8.144   4.909  11.617
61974SOL    HW287762   8.029   4.854  11.535
61975SOL     OW87763  13.039   4.091   9.132
61975SOL    HW187764  13.064   4.036   9.206
61975SOL    HW287765  12.946   4.108   9.145
61976SOL     OW87766   8.299   3.000   8.061
61976SOL    HW187767   8.240   2.927   8.080
61976SOL    HW287768   8.243   3.066   8.021
61977SOL     OW87769   4.447  12.291   0.262
61977SOL    HW187770   4.396  12.242   0.327
61977SOL    HW287771   4.441  12.382   0.289
61978SOL     OW87772  14.285  14.723   1.711
61978SOL    HW187773  14.380  14.720   1.704
61978SOL    HW287774  14.255  14.725   1.620
61979SOL     OW87775  11.005  10.012   4.472
61979SOL    HW187776  10.996  10.032   4.379
61979SOL    HW287777  11.064   9.937   4.475
61980SOL     OW87778   8.191   4.191   9.875
61980SOL    HW187779   8.167   4.134   9.801
61980SOL    HW287780   8.152   4.275   9.853
61981SOL     OW87781  11.982  10.111   7.710
61981SOL    HW187782  11.978  10.179   7.643
61981SOL    HW287783  12.031  10.151   7.782
61982SOL     OW87784   7.129  13.813   6.941
61982SOL    HW187785   7.192  13.744   6.962
61982SOL    HW287786   7.168  13.861   6.869
61983SOL     OW87787  10.006  11.337   1.438
61983SOL    HW187788  10.019  11.307   1.528
61983SOL    HW287789  10.080  11.301   1.390
61984SOL     OW87790  13.296   2.143   5.637
61984SOL    HW187791  13.317   2.189   5.719
61984SOL    HW287792  13.219   2.189   5.603
61985SOL     OW87793  10.553   8.905   7.345
61985SOL    HW187794  10.520   8.949   7.266
61985SOL    HW287795  10.638   8.870   7.319
61986SOL     OW87796  14.149   5.563   0.648
61986SOL    HW187797  14.116   5.530   0.731
61986SOL    HW287798  14.244   5.559   0.657
61987SOL     OW87799  10.107   3.897  11.270
61987SOL    HW187800  10.136   3.988  11.271
61987SOL    HW287801  10.172   3.851  11.216
61988SOL     OW87802   7.040  14.794  11.982
61988SOL    HW187803   6.961  14.741  11.990
61988SOL    HW287804   7.030  14.863  12.048
61989SOL     OW87805   0.708   1.463  11.646
61989SOL    HW187806   0.710   1.399  11.718
61989SOL    HW287807   0.629   1.441  11.597
61990SOL     OW87808  14.030   5.610   6.061
61990SOL    HW187809  14.095   5.556   6.107
61990SOL    HW287810  14.059   5.700   6.077
61991SOL     OW87811  10.216  11.157  11.709
61991SOL    HW187812  10.221  11.190  11.798
61991SOL    HW287813  10.132  11.112  11.704
61992SOL     OW87814   5.068   0.855   8.192
61992SOL    HW187815   5.152   0.858   8.238
61992SOL    HW287816   5.030   0.770   8.217
61993SOL     OW87817   5.206  10.630   2.449
61993SOL    HW187818   5.203  10.537   2.472
61993SOL    HW287819   5.293  10.659   2.478
61994SOL     OW87820  11.469   7.464  10.953
61994SOL    HW187821  11.408   7.390  10.951
61994SOL    HW287822  11.412   7.541  10.959
61995SOL     OW87823   8.576   9.853   2.937
61995SOL    HW187824   8.495   9.894   2.907
61995SOL    HW287825   8.601   9.903   3.015
61996SOL     OW87826   0.293   7.151   0.792
61996SOL    HW187827   0.321   7.218   0.854
61996SOL    HW287828   0.353   7.161   0.718
61997SOL     OW87829   6.868  10.944   9.895
61997SOL    HW187830   6.887  10.949   9.802
61997SOL    HW287831   6.953  10.951   9.938
61998SOL     OW87832   1.038   8.276   5.452
61998SOL    HW187833   1.037   8.192   5.406
61998SOL    HW287834   0.954   8.317   5.430
61999SOL     OW87835   5.877   4.445   8.982
61999SOL    HW187836   5.883   4.444   9.077
61999SOL    HW287837   5.823   4.369   8.960
62000SOL     OW87838  14.836  13.880   8.502
62000SOL    HW187839  14.742  13.872   8.490
62000SOL    HW287840  14.870  13.791   8.494
62001SOL     OW87841   6.861  11.030  11.739
62001SOL    HW187842   6.766  11.017  11.732
62001SOL    HW287843   6.898  10.942  11.730
62002SOL     OW87844   6.840  13.967  13.004
62002SOL    HW187845   6.765  14.026  13.008
62002SOL    HW287846   6.801  13.880  13.004
62003SOL     OW87847   4.160   6.194   0.273
62003SOL    HW187848   4.181   6.106   0.304
62003SOL    HW287849   4.220   6.251   0.320
62004SOL     OW87850   0.602   7.291  10.954
62004SOL    HW187851   0.666   7.360  10.934
62004SOL    HW287852   0.520   7.337  10.970
62005SOL     OW87853   3.538   4.469   3.650
62005SOL    HW187854   3.452   4.502   3.677
62005SOL    HW287855   3.526   4.442   3.559
62006SOL     OW87856   3.452  11.533   0.831
62006SOL    HW187857   3.396  11.480   0.888
62006SOL    HW287858   3.496  11.470   0.775
62007SOL     OW87859   9.930  12.921   0.504
62007SOL    HW187860   9.890  12.850   0.555
62007SOL    HW287861   9.891  13.001   0.541
62008SOL     OW87862   7.938   2.782   3.742
62008SOL    HW187863   7.944   2.690   3.768
62008SOL    HW287864   7.930   2.779   3.647
62009SOL     OW87865  11.474   6.483  12.330
62009SOL    HW187866  11.401   6.497  12.390
62009SOL    HW287867  11.490   6.389  12.332
62010SOL     OW87868   3.139   9.791   9.134
62010SOL    HW187869   3.107   9.880   9.151
62010SOL    HW287870   3.202   9.774   9.203
62011SOL     OW87871   0.677   6.750   4.265
62011SOL    HW187872   0.655   6.741   4.173
62011SOL    HW287873   0.760   6.701   4.274
62012SOL     OW87874   6.275   5.636   1.425
62012SOL    HW187875   6.346   5.619   1.488
62012SOL    HW287876   6.223   5.706   1.465
62013SOL     OW87877   1.496   7.286  12.468
62013SOL    HW187878   1.503   7.198  12.504
62013SOL    HW287879   1.569   7.294  12.407
62014SOL     OW87880  12.188   0.226   9.010
62014SOL    HW187881  12.278   0.194   9.023
62014SOL    HW287882  12.159   0.249   9.098
62015SOL     OW87883   0.744  12.903   7.683
62015SOL    HW187884   0.694  12.913   7.602
62015SOL    HW287885   0.827  12.949   7.666
62016SOL     OW87886   7.331  13.810   2.456
62016SOL    HW187887   7.262  13.871   2.431
62016SOL    HW287888   7.287  13.744   2.510
62017SOL     OW87889  14.438   3.521   5.815
62017SOL    HW187890  14.404   3.433   5.827
62017SOL    HW287891  14.481   3.518   5.729
62018SOL     OW87892  10.510   3.651   1.829
62018SOL    HW187893  10.494   3.724   1.888
62018SOL    HW287894  10.589   3.610   1.862
62019SOL     OW87895   6.241   6.204   0.946
62019SOL    HW187896   6.153   6.197   0.910
62019SOL    HW287897   6.283   6.121   0.923
62020SOL     OW87898  10.796   3.918   5.897
62020SOL    HW187899  10.732   3.942   5.830
62020SOL    HW287900  10.825   4.001   5.934
62021SOL     OW87901   1.152  12.208   6.429
62021SOL    HW187902   1.225  12.164   6.385
62021SOL    HW287903   1.167  12.191   6.522
62022SOL     OW87904   9.238   3.194  11.551
62022SOL    HW187905   9.177   3.236  11.490
62022SOL    HW287906   9.293   3.265  11.582
62023SOL     OW87907  13.787   3.293   0.534
62023SOL    HW187908  13.831   3.341   0.604
62023SOL    HW287909  13.856   3.242   0.493
62024SOL     OW87910   5.202  12.439   9.800
62024SOL    HW187911   5.269  12.447   9.868
62024SOL    HW287912   5.125  12.482   9.838
62025SOL     OW87913   9.003  13.347  12.209
62025SOL    HW187914   9.099  13.354  12.216
62025SOL    HW287915   8.981  13.269  12.259
62026SOL     OW87916   6.325   0.384  10.427
62026SOL    HW187917   6.376   0.455  10.467
62026SOL    HW287918   6.260   0.361  10.494
62027SOL     OW87919  10.392   1.142  12.138
62027SOL    HW187920  10.380   1.067  12.196
62027SOL    HW287921  10.305   1.160  12.103
62028SOL     OW87922   4.170  14.136   7.715
62028SOL    HW187923   4.132  14.055   7.749
62028SOL    HW287924   4.194  14.116   7.625
62029SOL     OW87925  13.145  14.743   6.995
62029SOL    HW187926  13.151  14.839   7.004
62029SOL    HW287927  13.163  14.710   7.083
62030SOL     OW87928   5.425  12.003  13.444
62030SOL    HW187929   5.481  12.077  13.423
62030SOL    HW287930   5.485  11.936  13.477
62031SOL     OW87931   5.911   8.367   5.566
62031SOL    HW187932   5.845   8.433   5.589
62031SOL    HW287933   5.994   8.415   5.569
62032SOL     OW87934   2.006   1.437  11.620
62032SOL    HW187935   1.960   1.506  11.572
62032SOL    HW287936   1.949   1.360  11.611
62033SOL     OW87937   6.871  11.284   4.655
62033SOL    HW187938   6.882  11.235   4.573
62033SOL    HW287939   6.778  11.305   4.658
62034SOL     OW87940  10.748   9.610  10.638
62034SOL    HW187941  10.713   9.568  10.716
62034SOL    HW287942  10.751   9.703  10.660
62035SOL     OW87943   1.537   1.280   3.941
62035SOL    HW187944   1.601   1.225   3.987
62035SOL    HW287945   1.487   1.322   4.010
62036SOL     OW87946   8.527   2.767   0.931
62036SOL    HW187947   8.514   2.678   0.965
62036SOL    HW287948   8.596   2.757   0.865
62037SOL     OW87949  13.702  12.703   4.009
62037SOL    HW187950  13.711  12.671   4.099
62037SOL    HW287951  13.613  12.678   3.984
62038SOL     OW87952  12.515   3.147   6.730
62038SOL    HW187953  12.526   3.091   6.653
62038SOL    HW287954  12.597   3.139   6.778
62039SOL     OW87955  12.864  10.080   1.795
62039SOL    HW187956  12.777  10.057   1.762
62039SOL    HW287957  12.848  10.150   1.859
62040SOL     OW87958   5.775  12.212  12.294
62040SOL    HW187959   5.702  12.238  12.350
62040SOL    HW287960   5.741  12.138  12.243
62041SOL     OW87961   4.043   4.835  12.592
62041SOL    HW187962   3.978   4.859  12.658
62041SOL    HW287963   3.992   4.817  12.513
62042SOL     OW87964   7.380   8.801   6.907
62042SOL    HW187965   7.461   8.847   6.930
62042SOL    HW287966   7.398   8.709   6.928
62043SOL     OW87967   2.012  10.058  14.490
62043SOL    HW187968   2.027   9.992  14.422
62043SOL    HW287969   1.979  10.008  14.564
62044SOL     OW87970   9.099   6.955   7.937
62044SOL    HW187971   9.097   6.903   7.856
62044SOL    HW287972   9.059   6.897   8.003
62045SOL     OW87973   5.819   0.705   4.609
62045SOL    HW187974   5.834   0.792   4.646
62045SOL    HW287975   5.817   0.720   4.514
62046SOL     OW87976  11.437  13.939   5.992
62046SOL    HW187977  11.510  13.998   5.978
62046SOL    HW287978  11.359  13.994   5.984
62047SOL     OW87979  10.127   5.642  10.457
62047SOL    HW187980  10.165   5.590  10.386
62047SOL    HW287981  10.074   5.579  10.506
62048SOL     OW87982  10.839  13.253  14.831
62048SOL    HW187983  10.903  13.275  14.764
62048SOL    HW287984  10.827  13.158  14.823
62049SOL     OW87985   9.756   6.618  14.530
62049SOL    HW187986   9.703   6.621  14.610
62049SOL    HW287987   9.755   6.526  14.504
62050SOL     OW87988  10.055   2.538   3.926
62050SOL    HW187989  10.146   2.562   3.944
62050SOL    HW287990  10.059   2.485   3.847
62051SOL     OW87991   6.419  10.329  13.197
62051SOL    HW187992   6.470  10.257  13.235
62051SOL    HW287993   6.328  10.309  13.221
62052SOL     OW87994  12.535  14.269   2.853
62052SOL    HW187995  12.567  14.261   2.943
62052SOL    HW287996  12.614  14.277   2.800
62053SOL     OW87997  14.714   3.771   7.992
62053SOL    HW187998  14.645   3.713   7.960
62053SOL    HW287999  14.793   3.717   7.993
62054SOL     OW88000  12.068   7.478   7.271
62054SOL    HW188001  12.137   7.412   7.264
62054SOL    HW288002  12.031   7.484   7.183
62055SOL     OW88003   4.185   4.410  13.333
62055SOL    HW188004   4.119   4.361  13.285
62055SOL    HW288005   4.140   4.439  13.412
62056SOL     OW88006  12.060  10.862   8.759
62056SOL    HW188007  11.973  10.823   8.767
62056SOL    HW288008  12.115  10.810   8.818
62057SOL     OW88009   2.327  10.054   6.322
62057SOL    HW188010   2.303   9.970   6.284
62057SOL    HW288011   2.245  10.104   6.324
62058SOL     OW88012  10.404   4.714   2.352
62058SOL    HW188013  10.453   4.643   2.394
62058SOL    HW288014  10.419   4.701   2.258
62059SOL     OW88015   9.314   2.880  11.463
62059SOL    HW188016   9.278   2.798  11.430
62059SOL    HW288017   9.237   2.930  11.490
62060SOL     OW88018   1.460   0.715   5.460
62060SOL    HW188019   1.461   0.629   5.501
62060SOL    HW288020   1.466   0.777   5.533
62061SOL     OW88021  13.435   6.542  14.248
62061SOL    HW188022  13.494   6.483  14.203
62061SOL    HW288023  13.405   6.603  14.180
62062SOL     OW88024  13.975   3.533  14.430
62062SOL    HW188025  13.947   3.458  14.377
62062SOL    HW288026  14.052   3.567  14.385
62063SOL     OW88027   8.775   7.587  10.480
62063SOL    HW188028   8.762   7.670  10.525
62063SOL    HW288029   8.859   7.555  10.513
62064SOL     OW88030  11.046   9.680   0.609
62064SOL    HW188031  11.098   9.610   0.649
62064SOL    HW288032  10.981   9.702   0.675
62065SOL     OW88033  11.596   8.302   4.377
62065SOL    HW188034  11.615   8.333   4.289
62065SOL    HW288035  11.551   8.375   4.420
62066SOL     OW88036   1.480   8.581   3.472
62066SOL    HW188037   1.485   8.658   3.415
62066SOL    HW288038   1.430   8.517   3.421
62067SOL     OW88039  11.724  14.577  10.567
62067SOL    HW188040  11.637  14.570  10.528
62067SOL    HW288041  11.726  14.663  10.609
62068SOL     OW88042  10.541   8.657   8.564
62068SOL    HW188043  10.578   8.744   8.580
62068SOL    HW288044  10.578   8.602   8.633
62069SOL     OW88045  11.316  13.557   7.594
62069SOL    HW188046  11.376  13.526   7.662
62069SOL    HW288047  11.293  13.646   7.622
62070SOL     OW88048   1.404  11.822   7.691
62070SOL    HW188049   1.460  11.788   7.622
62070SOL    HW288050   1.318  11.832   7.650
62071SOL     OW88051   8.101  12.463   3.035
62071SOL    HW188052   8.064  12.381   3.070
62071SOL    HW288053   8.149  12.436   2.957
62072SOL     OW88054   6.695   7.585   0.842
62072SOL    HW188055   6.764   7.519   0.832
62072SOL    HW288056   6.733   7.649   0.903
62073SOL     OW88057  10.413   8.525   3.650
62073SOL    HW188058  10.358   8.541   3.573
62073SOL    HW288059  10.461   8.608   3.662
62074SOL     OW88060   5.076   0.891   4.222
62074SOL    HW188061   5.089   0.971   4.171
62074SOL    HW288062   4.990   0.859   4.193
62075SOL     OW88063   4.752  14.368   8.185
62075SOL    HW188064   4.683  14.418   8.229
62075SOL    HW288065   4.805  14.332   8.256
62076SOL     OW88066   0.336  14.690   3.524
62076SOL    HW188067   0.297  14.603   3.513
62076SOL    HW288068   0.368  14.713   3.437
62077SOL     OW88069   5.585   6.236   5.511
62077SOL    HW188070   5.540   6.321   5.507
62077SOL    HW288071   5.606   6.225   5.603
62078SOL     OW88072   7.838   6.764  11.844
62078SOL    HW188073   7.799   6.681  11.814
62078SOL    HW288074   7.794   6.831  11.792
62079SOL     OW88075   9.108  12.286  11.624
62079SOL    HW188076   9.136  12.359  11.568
62079SOL    HW288077   9.021  12.264  11.593
62080SOL     OW88078  11.687   9.452   8.851
62080SOL    HW188079  11.654   9.367   8.823
62080SOL    HW288080  11.688   9.448   8.946
62081SOL     OW88081   0.456  13.772  13.431
62081SOL    HW188082   0.436  13.797  13.521
62081SOL    HW288083   0.547  13.742  13.434
62082SOL     OW88084   9.752   1.056   2.785
62082SOL    HW188085   9.844   1.035   2.777
62082SOL    HW288086   9.730   1.038   2.876
62083SOL     OW88087   7.859  13.446  14.205
62083SOL    HW188088   7.860  13.424  14.112
62083SOL    HW288089   7.887  13.537  14.209
62084SOL     OW88090   2.669  10.281   5.068
62084SOL    HW188091   2.601  10.333   5.111
62084SOL    HW288092   2.725  10.345   5.025
62085SOL     OW88093  10.544   9.855  10.472
62085SOL    HW188094  10.592   9.799  10.411
62085SOL    HW288095  10.453   9.850  10.443
62086SOL     OW88096   4.378  11.848  13.679
62086SOL    HW188097   4.412  11.764  13.650
62086SOL    HW288098   4.312  11.827  13.745
62087SOL     OW88099   5.597  12.657   0.885
62087SOL    HW188100   5.533  12.594   0.918
62087SOL    HW288101   5.621  12.709   0.962
62088SOL     OW88102   1.947   8.142   6.013
62088SOL    HW188103   2.013   8.159   6.081
62088SOL    HW288104   1.899   8.066   6.045
62089SOL     OW88105   2.753   2.961   5.087
62089SOL    HW188106   2.841   2.999   5.091
62089SOL    HW288107   2.757   2.885   5.145
62090SOL     OW88108   2.404  12.945   7.514
62090SOL    HW188109   2.412  12.853   7.488
62090SOL    HW288110   2.332  12.979   7.460
62091SOL     OW88111   6.104  10.780   3.299
62091SOL    HW188112   6.106  10.873   3.277
62091SOL    HW288113   6.015  10.766   3.333
62092SOL     OW88114   2.657   4.228  11.376
62092SOL    HW188115   2.602   4.176  11.317
62092SOL    HW288116   2.737   4.245  11.325
62093SOL     OW88117   8.163  14.175  13.595
62093SOL    HW188118   8.195  14.085  13.603
62093SOL    HW288119   8.150  14.187  13.501
62094SOL     OW88120  11.897  12.411   8.432
62094SOL    HW188121  11.900  12.316   8.431
62094SOL    HW288122  11.818  12.434   8.384
62095SOL     OW88123   0.425  13.874   5.353
62095SOL    HW188124   0.389  13.960   5.332
62095SOL    HW288125   0.496  13.862   5.289
62096SOL     OW88126   0.926   5.578   7.501
62096SOL    HW188127   0.978   5.651   7.535
62096SOL    HW288128   0.919   5.596   7.407
62097SOL     OW88129   3.400   0.184  10.249
62097SOL    HW188130   3.443   0.150  10.328
62097SOL    HW288131   3.404   0.112  10.187
62098SOL     OW88132  13.182   0.442   3.749
62098SOL    HW188133  13.179   0.399   3.663
62098SOL    HW288134  13.251   0.396   3.797
62099SOL     OW88135  11.853   0.380  10.183
62099SOL    HW188136  11.900   0.462  10.171
62099SOL    HW288137  11.923   0.314  10.189
62100SOL     OW88138   2.562   5.565  14.522
62100SOL    HW188139   2.526   5.523  14.600
62100SOL    HW288140   2.491   5.621  14.490
62101SOL     OW88141   6.303   2.631   1.987
62101SOL    HW188142   6.236   2.637   1.919
62101SOL    HW288143   6.374   2.688   1.957
62102SOL     OW88144   4.146   5.599   1.639
62102SOL    HW188145   4.227   5.620   1.592
62102SOL    HW288146   4.175   5.575   1.727
62103SOL     OW88147   0.237   9.571  13.340
62103SOL    HW188148   0.296   9.574  13.416
62103SOL    HW288149   0.191   9.656  13.342
62104SOL     OW88150   4.600  13.304  12.464
62104SOL    HW188151   4.641  13.229  12.507
62104SOL    HW288152   4.646  13.380  12.499
62105SOL     OW88153   7.940  12.185  11.236
62105SOL    HW188154   7.885  12.156  11.163
62105SOL    HW288155   8.020  12.132  11.228
62106SOL     OW88156   4.266   9.666   2.152
62106SOL    HW188157   4.285   9.758   2.138
62106SOL    HW288158   4.246   9.659   2.246
62107SOL     OW88159  10.886   2.208   4.076
62107SOL    HW188160  10.923   2.126   4.044
62107SOL    HW288161  10.947   2.275   4.045
62108SOL     OW88162   1.432  13.484   2.116
62108SOL    HW188163   1.476  13.550   2.169
62108SOL    HW288164   1.339  13.508   2.119
62109SOL     OW88165   1.364   9.842   1.255
62109SOL    HW188166   1.337   9.882   1.173
62109SOL    HW288167   1.317   9.891   1.323
62110SOL     OW88168   5.012  11.127   8.198
62110SOL    HW188169   4.995  11.034   8.185
62110SOL    HW288170   5.108  11.135   8.197
62111SOL     OW88171  13.347   8.908   1.615
62111SOL    HW188172  13.271   8.850   1.610
62111SOL    HW288173  13.422   8.850   1.613
62112SOL     OW88174   5.204   1.014   5.546
62112SOL    HW188175   5.174   0.923   5.550
62112SOL    HW288176   5.194   1.039   5.454
62113SOL     OW88177  13.358   4.576  10.095
62113SOL    HW188178  13.282   4.531  10.133
62113SOL    HW288179  13.425   4.508  10.087
62114SOL     OW88180   2.525  12.501   9.484
62114SOL    HW188181   2.571  12.424   9.519
62114SOL    HW288182   2.434  12.489   9.512
62115SOL     OW88183   2.759   6.896  13.331
62115SOL    HW188184   2.744   6.945  13.249
62115SOL    HW288185   2.834   6.840  13.311
62116SOL     OW88186   0.247  11.572   3.522
62116SOL    HW188187   0.284  11.532   3.601
62116SOL    HW288188   0.163  11.608   3.551
62117SOL     OW88189  13.059   5.468  11.919
62117SOL    HW188190  13.145   5.507  11.936
62117SOL    HW288191  13.002   5.543  11.898
62118SOL     OW88192   8.221   4.991   7.497
62118SOL    HW188193   8.317   4.993   7.501
62118SOL    HW288194   8.199   5.047   7.423
62119SOL     OW88195  11.825   1.560  13.948
62119SOL    HW188196  11.823   1.577  13.853
62119SOL    HW288197  11.776   1.633  13.986
62120SOL     OW88198   0.678   5.627   0.223
62120SOL    HW188199   0.736   5.554   0.203
62120SOL    HW288200   0.591   5.598   0.195
62121SOL     OW88201   6.349  14.366   0.667
62121SOL    HW188202   6.413  14.416   0.719
62121SOL    HW288203   6.270  14.420   0.668
62122SOL     OW88204  12.117   1.667   9.130
62122SOL    HW188205  12.098   1.660   9.224
62122SOL    HW288206  12.193   1.610   9.116
62123SOL     OW88207   6.205  10.759  13.249
62123SOL    HW188208   6.190  10.773  13.156
62123SOL    HW288209   6.123  10.722  13.282
62124SOL     OW88210   1.440   8.021  11.643
62124SOL    HW188211   1.460   8.044  11.553
62124SOL    HW288212   1.513   8.056  11.694
62125SOL     OW88213   5.392   6.503   3.920
62125SOL    HW188214   5.481   6.532   3.899
62125SOL    HW288215   5.382   6.522   4.014
62126SOL     OW88216  13.120   9.153  10.228
62126SOL    HW188217  13.040   9.185  10.186
62126SOL    HW288218  13.118   9.192  10.316
62127SOL     OW88219   9.397   7.537   8.901
62127SOL    HW188220   9.453   7.611   8.877
62127SOL    HW288221   9.325   7.577   8.950
62128SOL     OW88222   9.123   8.477  13.040
62128SOL    HW188223   9.033   8.497  13.014
62128SOL    HW288224   9.120   8.473  13.136
62129SOL     OW88225   6.009  13.321   2.789
62129SOL    HW188226   5.985  13.314   2.697
62129SOL    HW288227   6.075  13.391   2.791
62130SOL     OW88228   7.341  12.441   6.253
62130SOL    HW188229   7.307  12.414   6.168
62130SOL    HW288230   7.363  12.533   6.241
62131SOL     OW88231   5.961   9.765   7.316
62131SOL    HW188232   5.870   9.750   7.292
62131SOL    HW288233   5.962   9.760   7.412
62132SOL     OW88234  13.368  11.976   0.902
62132SOL    HW188235  13.357  12.069   0.921
62132SOL    HW288236  13.290  11.951   0.852
62133SOL     OW88237   1.798  10.485   0.321
62133SOL    HW188238   1.824  10.571   0.353
62133SOL    HW288239   1.718  10.464   0.369
62134SOL     OW88240  10.435  13.467  11.130
62134SOL    HW188241  10.366  13.401  11.122
62134SOL    HW288242  10.491  13.452  11.053
62135SOL     OW88243   0.564   5.783  10.863
62135SOL    HW188244   0.545   5.838  10.939
62135SOL    HW288245   0.649   5.744  10.882
62136SOL     OW88246  13.254   6.557   7.907
62136SOL    HW188247  13.280   6.648   7.890
62136SOL    HW288248  13.164   6.552   7.875
62137SOL     OW88249   4.401   2.336  14.603
62137SOL    HW188250   4.312   2.303  14.619
62137SOL    HW288251   4.458   2.271  14.644
62138SOL     OW88252   9.225   3.526   7.682
62138SOL    HW188253   9.192   3.564   7.763
62138SOL    HW288254   9.316   3.555   7.677
62139SOL     OW88255   7.832   9.035  11.831
62139SOL    HW188256   7.826   9.111  11.888
62139SOL    HW288257   7.820   8.960  11.889
62140SOL     OW88258   2.612  11.748   3.661
62140SOL    HW188259   2.521  11.718   3.656
62140SOL    HW288260   2.626  11.765   3.754
62141SOL     OW88261  11.524   9.754  10.047
62141SOL    HW188262  11.590   9.738  10.114
62141SOL    HW288263  11.530   9.847  10.028
62142SOL     OW88264   1.702   7.395  11.047
62142SOL    HW188265   1.656   7.464  11.095
62142SOL    HW288266   1.677   7.314  11.091
62143SOL     OW88267   2.372  14.555   0.313
62143SOL    HW188268   2.307  14.557   0.242
62143SOL    HW288269   2.439  14.619   0.287
62144SOL     OW88270   6.290  11.769   2.091
62144SOL    HW188271   6.325  11.682   2.108
62144SOL    HW288272   6.322  11.822   2.165
62145SOL     OW88273   7.379   9.249   8.430
62145SOL    HW188274   7.449   9.216   8.373
62145SOL    HW288275   7.325   9.173   8.450
62146SOL     OW88276   2.030   9.673   3.581
62146SOL    HW188277   1.986   9.719   3.653
62146SOL    HW288278   2.123   9.688   3.597
62147SOL     OW88279   2.692  14.700   0.053
62147SOL    HW188280   2.777  14.715   0.011
62147SOL    HW288281   2.675  14.607   0.041
62148SOL     OW88282   3.510   1.884   4.090
62148SOL    HW188283   3.580   1.857   4.031
62148SOL    HW288284   3.436   1.904   4.033
62149SOL     OW88285   6.844  11.509   8.677
62149SOL    HW188286   6.779  11.566   8.636
62149SOL    HW288287   6.820  11.421   8.650
62150SOL     OW88288  12.755   4.618  14.501
62150SOL    HW188289  12.746   4.713  14.490
62150SOL    HW288290  12.736   4.583  14.414
62151SOL     OW88291  11.691   6.031   4.921
62151SOL    HW188292  11.713   5.997   5.007
62151SOL    HW288293  11.637   6.109   4.939
62152SOL     OW88294   0.214   7.739   7.466
62152SOL    HW188295   0.285   7.779   7.516
62152SOL    HW288296   0.203   7.652   7.506
62153SOL     OW88297  12.386   8.934  10.813
62153SOL    HW188298  12.308   8.954  10.865
62153SOL    HW288299  12.378   8.841  10.793
62154SOL     OW88300   0.398  12.030   5.821
62154SOL    HW188301   0.401  12.107   5.764
62154SOL    HW288302   0.454  11.966   5.777
62155SOL     OW88303   8.867  11.106  13.250
62155SOL    HW188304   8.849  11.191  13.291
62155SOL    HW288305   8.837  11.042  13.314
62156SOL     OW88306   7.560  12.947   8.584
62156SOL    HW188307   7.486  13.007   8.593
62156SOL    HW288308   7.552  12.912   8.496
62157SOL     OW88309  11.673   9.483  14.772
62157SOL    HW188310  11.592   9.457  14.815
62157SOL    HW288311  11.667   9.444  14.684
62158SOL     OW88312   2.137  11.170  12.782
62158SOL    HW188313   2.183  11.253  12.781
62158SOL    HW288314   2.184  11.115  12.719
62159SOL     OW88315   7.583  13.461  11.882
62159SOL    HW188316   7.613  13.411  11.958
62159SOL    HW288317   7.605  13.552  11.902
62160SOL     OW88318   4.764   4.171   4.975
62160SOL    HW188319   4.775   4.230   4.901
62160SOL    HW288320   4.803   4.088   4.947
62161SOL     OW88321   6.725   5.050   0.698
62161SOL    HW188322   6.642   5.015   0.664
62161SOL    HW288323   6.769   5.086   0.621
62162SOL     OW88324   3.293   6.698  12.737
62162SOL    HW188325   3.351   6.719  12.810
62162SOL    HW288326   3.348   6.706  12.659
62163SOL     OW88327   8.410   0.459   0.416
62163SOL    HW188328   8.394   0.406   0.338
62163SOL    HW288329   8.328   0.507   0.431
62164SOL     OW88330   4.033   3.979  11.040
62164SOL    HW188331   3.973   3.913  11.004
62164SOL    HW288332   4.117   3.933  11.049
62165SOL     OW88333   6.334  11.770   2.655
62165SOL    HW188334   6.318  11.694   2.599
62165SOL    HW288335   6.329  11.736   2.744
62166SOL     OW88336   7.102  12.889   9.869
62166SOL    HW188337   7.190  12.861   9.893
62166SOL    HW288338   7.045  12.819   9.900
62167SOL     OW88339   3.345   0.639   6.461
62167SOL    HW188340   3.378   0.688   6.386
62167SOL    HW288341   3.378   0.550   6.449
62168SOL     OW88342  11.044   7.381   1.026
62168SOL    HW188343  10.982   7.454   1.024
62168SOL    HW288344  11.086   7.388   1.111
62169SOL     OW88345   2.908   3.434  13.416
62169SOL    HW188346   2.879   3.441  13.324
62169SOL    HW288347   3.002   3.419  13.410
62170SOL     OW88348   2.274  12.359   2.225
62170SOL    HW188349   2.294  12.409   2.146
62170SOL    HW288350   2.205  12.409   2.268
62171SOL     OW88351   9.568   7.091   4.448
62171SOL    HW188352   9.523   7.127   4.371
62171SOL    HW288353   9.622   7.020   4.414
62172SOL     OW88354   8.643   7.104   5.553
62172SOL    HW188355   8.715   7.103   5.491
62172SOL    HW288356   8.682   7.076   5.636
62173SOL     OW88357  14.180   7.476   2.360
62173SOL    HW188358  14.137   7.562   2.364
62173SOL    HW288359  14.139   7.426   2.431
62174SOL     OW88360  14.166   2.492   3.741
62174SOL    HW188361  14.121   2.530   3.816
62174SOL    HW288362  14.248   2.540   3.734
62175SOL     OW88363  13.135   5.607   8.434
62175SOL    HW188364  13.097   5.649   8.357
62175SOL    HW288365  13.122   5.670   8.504
62176SOL     OW88366   1.802   7.052   3.527
62176SOL    HW188367   1.846   6.972   3.555
62176SOL    HW288368   1.709   7.032   3.531
62177SOL     OW88369   5.283   4.656   7.770
62177SOL    HW188370   5.307   4.609   7.690
62177SOL    HW288371   5.306   4.597   7.841
62178SOL     OW88372  14.248  10.491   7.630
62178SOL    HW188373  14.168  10.534   7.659
62178SOL    HW288374  14.287  10.455   7.710
62179SOL     OW88375  14.153   3.253  12.867
62179SOL    HW188376  14.110   3.168  12.874
62179SOL    HW288377  14.225   3.249  12.931
62180SOL     OW88378   6.064   8.511   1.699
62180SOL    HW188379   6.121   8.495   1.774
62180SOL    HW288380   6.022   8.595   1.718
62181SOL     OW88381  13.539   5.368   3.933
62181SOL    HW188382  13.619   5.419   3.931
62181SOL    HW288383  13.559   5.290   3.882
62182SOL     OW88384   1.992   7.107   7.033
62182SOL    HW188385   1.897   7.099   7.027
62182SOL    HW288386   2.024   7.072   6.949
62183SOL     OW88387  10.655   1.894  14.374
62183SOL    HW188388  10.643   1.929  14.286
62183SOL    HW288389  10.649   1.971  14.431
62184SOL     OW88390   0.348   1.108  13.719
62184SOL    HW188391   0.288   1.117  13.793
62184SOL    HW288392   0.308   1.160  13.649
62185SOL     OW88393  14.609   7.149  12.814
62185SOL    HW188394  14.524   7.128  12.852
62185SOL    HW288395  14.666   7.077  12.841
62186SOL     OW88396   1.758   0.038   1.241
62186SOL    HW188397   1.830   0.030   1.179
62186SOL    HW288398   1.685   0.071   1.189
62187SOL     OW88399   3.966   0.984   3.864
62187SOL    HW188400   3.960   1.071   3.825
62187SOL    HW288401   3.912   0.929   3.807
62188SOL     OW88402   0.855   1.954   8.697
62188SOL    HW188403   0.921   1.889   8.677
62188SOL    HW288404   0.786   1.906   8.744
62189SOL     OW88405   5.193  12.839  14.338
62189SOL    HW188406   5.146  12.922  14.347
62189SOL    HW288407   5.124  12.772  14.342
62190SOL     OW88408   5.566   8.796   9.057
62190SOL    HW188409   5.621   8.785   9.136
62190SOL    HW288410   5.609   8.865   9.008
62191SOL     OW88411   8.080   9.257  11.564
62191SOL    HW188412   8.121   9.340  11.589
62191SOL    HW288413   8.092   9.201  11.641
62192SOL     OW88414   2.985   2.704   0.797
62192SOL    HW188415   2.926   2.728   0.726
62192SOL    HW288416   2.945   2.626   0.836
62193SOL     OW88417   2.483  13.231  13.150
62193SOL    HW188418   2.554  13.169  13.132
62193SOL    HW288419   2.406  13.175  13.161
62194SOL     OW88420  12.165   1.773   7.736
62194SOL    HW188421  12.127   1.760   7.649
62194SOL    HW288422  12.214   1.692   7.753
62195SOL     OW88423   8.594  13.130  12.870
62195SOL    HW188424   8.630  13.050  12.908
62195SOL    HW288425   8.663  13.195  12.880
62196SOL     OW88426   9.406  10.882   4.821
62196SOL    HW188427   9.333  10.839   4.775
62196SOL    HW288428   9.374  10.971   4.837
62197SOL     OW88429  13.110   5.428  14.112
62197SOL    HW188430  13.155   5.512  14.105
62197SOL    HW288431  13.072   5.415  14.025
62198SOL     OW88432   0.614  11.825   0.874
62198SOL    HW188433   0.648  11.910   0.902
62198SOL    HW288434   0.682  11.789   0.818
62199SOL     OW88435  14.063   9.449   6.060
62199SOL    HW188436  14.115   9.413   5.988
62199SOL    HW288437  13.974   9.418   6.043
62200SOL     OW88438   0.663   0.798   3.868
62200SOL    HW188439   0.688   0.871   3.926
62200SOL    HW288440   0.691   0.720   3.915
62201SOL     OW88441   6.947   1.675   6.691
62201SOL    HW188442   7.028   1.630   6.712
62201SOL    HW288443   6.966   1.768   6.705
62202SOL     OW88444  13.605   1.815   1.761
62202SOL    HW188445  13.525   1.767   1.782
62202SOL    HW288446  13.587   1.855   1.676
62203SOL     OW88447   5.798   1.429  10.934
62203SOL    HW188448   5.739   1.371  10.886
62203SOL    HW288449   5.741   1.480  10.991
62204SOL     OW88450   9.531  12.724  10.480
62204SOL    HW188451   9.607  12.666  10.484
62204SOL    HW288452   9.456  12.667  10.494
62205SOL     OW88453   2.057   0.157   2.951
62205SOL    HW188454   2.047   0.213   3.029
62205SOL    HW288455   2.102   0.079   2.983
62206SOL     OW88456   3.073   1.260   1.916
62206SOL    HW188457   3.152   1.254   1.970
62206SOL    HW288458   3.054   1.353   1.910
62207SOL     OW88459   2.789  10.328   9.134
62207SOL    HW188460   2.764  10.263   9.068
62207SOL    HW288461   2.884  10.317   9.144
62208SOL     OW88462   5.216  10.768   4.208
62208SOL    HW188463   5.241  10.744   4.298
62208SOL    HW288464   5.122  10.789   4.214
62209SOL     OW88465  13.729   1.958   9.450
62209SOL    HW188466  13.797   1.965   9.517
62209SOL    HW288467  13.770   1.990   9.370
62210SOL     OW88468   2.306  13.615   2.124
62210SOL    HW188469   2.257  13.540   2.091
62210SOL    HW288470   2.252  13.691   2.102
62211SOL     OW88471  13.794  13.626  12.753
62211SOL    HW188472  13.748  13.678  12.688
62211SOL    HW288473  13.732  13.558  12.780
62212SOL     OW88474   0.407   2.794  10.311
62212SOL    HW188475   0.499   2.783  10.335
62212SOL    HW288476   0.387   2.718  10.257
62213SOL     OW88477   3.159   6.719   7.816
62213SOL    HW188478   3.239   6.751   7.858
62213SOL    HW288479   3.189   6.652   7.755
62214SOL     OW88480  10.012  13.398   6.919
62214SOL    HW188481  10.069  13.472   6.896
62214SOL    HW288482   9.928  13.418   6.877
62215SOL     OW88483  11.028   8.334  13.940
62215SOL    HW188484  11.038   8.385  14.020
62215SOL    HW288485  10.938   8.351  13.912
62216SOL     OW88486   2.439   6.533   2.005
62216SOL    HW188487   2.482   6.541   1.920
62216SOL    HW288488   2.401   6.445   2.003
62217SOL     OW88489   2.649   0.751  13.327
62217SOL    HW188490   2.702   0.750  13.407
62217SOL    HW288491   2.604   0.835  13.329
62218SOL     OW88492  11.677  13.457   8.693
62218SOL    HW188493  11.650  13.549   8.687
62218SOL    HW288494  11.619  13.419   8.758
62219SOL     OW88495   9.277   8.622  13.572
62219SOL    HW188496   9.194   8.669  13.560
62219SOL    HW288497   9.254   8.547  13.627
62220SOL     OW88498  11.367   7.185   2.981
62220SOL    HW188499  11.340   7.200   3.072
62220SOL    HW288500  11.334   7.097   2.961
62221SOL     OW88501   2.531  12.119  11.055
62221SOL    HW188502   2.621  12.096  11.080
62221SOL    HW288503   2.537  12.142  10.963
62222SOL     OW88504  10.252   2.220   9.050
62222SOL    HW188505  10.161   2.244   9.063
62222SOL    HW288506  10.300   2.302   9.059
62223SOL     OW88507   9.289  13.107  12.022
62223SOL    HW188508   9.331  13.164  12.087
62223SOL    HW288509   9.236  13.046  12.074
62224SOL     OW88510  14.846   5.776  12.409
62224SOL    HW188511  14.814   5.730  12.487
62224SOL    HW288512   0.007   5.709  12.357
62225SOL     OW88513  11.281  11.240  10.593
62225SOL    HW188514  11.243  11.152  10.582
62225SOL    HW288515  11.297  11.270  10.504
62226SOL     OW88516   3.358   9.226   0.868
62226SOL    HW188517   3.408   9.294   0.822
62226SOL    HW288518   3.306   9.274   0.932
62227SOL     OW88519   3.859   4.487  11.544
62227SOL    HW188520   3.837   4.581  11.540
62227SOL    HW288521   3.951   4.485  11.567
62228SOL     OW88522   2.838   5.987  12.969
62228SOL    HW188523   2.771   6.047  12.936
62228SOL    HW288524   2.919   6.019  12.930
62229SOL     OW88525   0.374   9.609  12.478
62229SOL    HW188526   0.468   9.629  12.479
62229SOL    HW288527   0.332   9.695  12.485
62230SOL     OW88528   2.950   8.143   3.838
62230SOL    HW188529   3.004   8.070   3.866
62230SOL    HW288530   2.932   8.192   3.918
62231SOL     OW88531   2.166   0.897   7.714
62231SOL    HW188532   2.201   0.944   7.638
62231SOL    HW288533   2.113   0.962   7.760
62232SOL     OW88534  10.421   2.116  10.939
62232SOL    HW188535  10.342   2.071  10.967
62232SOL    HW288536  10.391   2.202  10.911
62233SOL     OW88537   5.760   2.645  10.927
62233SOL    HW188538   5.825   2.693  10.875
62233SOL    HW288539   5.804   2.563  10.950
62234SOL     OW88540  14.648  12.234   5.679
62234SOL    HW188541  14.693  12.312   5.647
62234SOL    HW288542  14.711  12.193   5.738
62235SOL     OW88543  14.747   6.851   3.475
62235SOL    HW188544  14.838   6.879   3.466
62235SOL    HW288545  14.704   6.922   3.522
62236SOL     OW88546  10.017   0.994   2.799
62236SOL    HW188547  10.083   1.041   2.850
62236SOL    HW288548  10.067   0.932   2.747
62237SOL     OW88549   7.616   2.390   5.946
62237SOL    HW188550   7.680   2.370   6.015
62237SOL    HW288551   7.538   2.419   5.994
62238SOL     OW88552   5.111  13.238   1.477
62238SOL    HW188553   5.070  13.155   1.499
62238SOL    HW288554   5.045  13.304   1.495
62239SOL     OW88555  11.199   7.086   0.604
62239SOL    HW188556  11.242   7.082   0.690
62239SOL    HW288557  11.258   7.039   0.546
62240SOL     OW88558   2.437  10.529  10.117
62240SOL    HW188559   2.360  10.474  10.132
62240SOL    HW288560   2.456  10.568  10.202
62241SOL     OW88561   7.273  12.488  14.183
62241SOL    HW188562   7.315  12.550  14.242
62241SOL    HW288563   7.180  12.511  14.186
62242SOL     OW88564   3.223   5.675   2.165
62242SOL    HW188565   3.200   5.733   2.092
62242SOL    HW288566   3.311   5.645   2.145
62243SOL     OW88567   7.020   1.013  14.630
62243SOL    HW188568   6.990   0.937  14.681
62243SOL    HW288569   7.107   0.988  14.600
62244SOL     OW88570   6.184   3.555  11.952
62244SOL    HW188571   6.198   3.512  11.867
62244SOL    HW288572   6.224   3.495  12.015
62245SOL     OW88573   9.558  12.790  11.548
62245SOL    HW188574   9.556  12.695  11.557
62245SOL    HW288575   9.618  12.819  11.617
62246SOL     OW88576   1.377  14.707  10.234
62246SOL    HW188577   1.340  14.743  10.154
62246SOL    HW288578   1.389  14.614  10.215
62247SOL     OW88579   3.252   7.343  10.793
62247SOL    HW188580   3.282   7.432  10.773
62247SOL    HW288581   3.284   7.289  10.721
62248SOL     OW88582  11.137  14.536   5.031
62248SOL    HW188583  11.076  14.603   4.999
62248SOL    HW288584  11.088  14.489   5.099
62249SOL     OW88585   5.475  12.679   3.798
62249SOL    HW188586   5.458  12.746   3.865
62249SOL    HW288587   5.568  12.658   3.809
62250SOL     OW88588   4.889   2.877   4.116
62250SOL    HW188589   4.935   2.869   4.200
62250SOL    HW288590   4.799   2.902   4.140
62251SOL     OW88591  10.614  11.975   1.198
62251SOL    HW188592  10.694  11.995   1.148
62251SOL    HW288593  10.643  11.971   1.289
62252SOL     OW88594   8.722   1.143   5.216
62252SOL    HW188595   8.726   1.212   5.282
62252SOL    HW288596   8.702   1.188   5.134
62253SOL     OW88597  12.107   2.945   2.648
62253SOL    HW188598  12.049   2.967   2.721
62253SOL    HW288599  12.195   2.968   2.679
62254SOL     OW88600   1.932   3.466  14.251
62254SOL    HW188601   1.954   3.534  14.188
62254SOL    HW288602   1.859   3.502  14.301
62255SOL     OW88603   2.912  14.545  13.289
62255SOL    HW188604   2.979  14.612  13.303
62255SOL    HW288605   2.945  14.468  13.336
62256SOL     OW88606  12.050   2.239   0.509
62256SOL    HW188607  12.007   2.202   0.432
62256SOL    HW288608  12.142   2.212   0.499
62257SOL     OW88609   2.925   0.064  10.463
62257SOL    HW188610   3.016   0.068  10.433
62257SOL    HW288611   2.900   0.156  10.473
62258SOL     OW88612   4.711  10.594   8.594
62258SOL    HW188613   4.618  10.587   8.614
62258SOL    HW288614   4.745  10.657   8.657
62259SOL     OW88615   1.998  11.281   7.540
62259SOL    HW188616   2.093  11.293   7.551
62259SOL    HW288617   1.984  11.289   7.445
62260SOL     OW88618  12.374   3.467   8.752
62260SOL    HW188619  12.394   3.398   8.815
62260SOL    HW288620  12.307   3.520   8.795
62261SOL     OW88621  12.545   8.562  11.453
62261SOL    HW188622  12.568   8.512  11.374
62261SOL    HW288623  12.525   8.650  11.420
62262SOL     OW88624   7.013  13.651  11.421
62262SOL    HW188625   6.993  13.733  11.467
62262SOL    HW288626   7.003  13.672  11.329
62263SOL     OW88627  10.863   0.330   8.661
62263SOL    HW188628  10.802   0.385   8.711
62263SOL    HW288629  10.867   0.370   8.575
62264SOL     OW88630  13.142   1.056   9.328
62264SOL    HW188631  13.087   1.003   9.270
62264SOL    HW288632  13.210   1.091   9.271
62265SOL     OW88633   4.750  13.161  14.440
62265SOL    HW188634   4.807  13.125  14.372
62265SOL    HW288635   4.744  13.091  14.505
62266SOL     OW88636  14.233   6.826  14.083
62266SOL    HW188637  14.285   6.882  14.025
62266SOL    HW288638  14.160   6.797  14.030
62267SOL     OW88639   1.169  14.855  13.335
62267SOL    HW188640   1.230  14.782  13.346
62267SOL    HW288641   1.225   0.050  13.331
62268SOL     OW88642  14.616  13.313  12.895
62268SOL    HW188643  14.644  13.326  12.805
62268SOL    HW288644  14.554  13.384  12.912
62269SOL     OW88645  10.328   8.451   8.985
62269SOL    HW188646  10.249   8.409   8.952
62269SOL    HW288647  10.365   8.388   9.047
62270SOL     OW88648   3.738   2.370  14.005
62270SOL    HW188649   3.676   2.420  14.058
62270SOL    HW288650   3.815   2.427  13.998
62271SOL     OW88651  10.372  10.863   4.957
62271SOL    HW188652  10.385  10.956   4.944
62271SOL    HW288653  10.301  10.857   5.021
62272SOL     OW88654   2.629   4.180  10.968
62272SOL    HW188655   2.710   4.217  10.933
62272SOL    HW288656   2.560   4.215  10.912
62273SOL     OW88657   8.739   7.510  13.907
62273SOL    HW188658   8.789   7.545  13.981
62273SOL    HW288659   8.805   7.481  13.845
62274SOL     OW88660  13.112  13.472  12.986
62274SOL    HW188661  13.133  13.519  12.906
62274SOL    HW288662  13.021  13.443  12.973
62275SOL     OW88663  12.523   4.727  13.731
62275SOL    HW188664  12.545   4.660  13.795
62275SOL    HW288665  12.427   4.727  13.729
62276SOL     OW88666   8.062   4.661   1.116
62276SOL    HW188667   7.987   4.680   1.060
62276SOL    HW288668   8.053   4.721   1.190
62277SOL     OW88669   3.644   5.217   2.326
62277SOL    HW188670   3.556   5.186   2.304
62277SOL    HW288671   3.689   5.222   2.242
62278SOL     OW88672   8.292  11.309   2.875
62278SOL    HW188673   8.240  11.388   2.883
62278SOL    HW288674   8.376  11.338   2.841
62279SOL     OW88675  12.716   5.294   2.859
62279SOL    HW188676  12.626   5.325   2.846
62279SOL    HW288677  12.771   5.371   2.845
62280SOL     OW88678   9.269   2.254  13.166
62280SOL    HW188679   9.229   2.278  13.250
62280SOL    HW288680   9.356   2.294  13.169
62281SOL     OW88681   5.989   0.118   7.723
62281SOL    HW188682   6.004   0.134   7.630
62281SOL    HW288683   6.047   0.179   7.769
62282SOL     OW88684   3.039   6.512   5.033
62282SOL    HW188685   3.111   6.503   4.971
62282SOL    HW288686   3.045   6.434   5.088
62283SOL     OW88687   0.312   9.325   5.985
62283SOL    HW188688   0.331   9.232   5.975
62283SOL    HW288689   0.396   9.369   5.971
62284SOL     OW88690   3.873   7.196   3.722
62284SOL    HW188691   3.867   7.142   3.643
62284SOL    HW288692   3.909   7.279   3.691
62285SOL     OW88693   6.450   0.400   6.625
62285SOL    HW188694   6.504   0.333   6.583
62285SOL    HW288695   6.462   0.385   6.719
62286SOL     OW88696   7.140   6.669  11.492
62286SOL    HW188697   7.058   6.624  11.472
62286SOL    HW288698   7.140   6.744  11.433
62287SOL     OW88699   4.510   4.437   4.630
62287SOL    HW188700   4.573   4.504   4.657
62287SOL    HW288701   4.448   4.482   4.573
62288SOL     OW88702   2.838   7.894   0.039
62288SOL    HW188703   2.788   7.973   0.019
62288SOL    HW288704   2.812   7.831  14.854
62289SOL     OW88705   0.380  12.453   2.868
62289SOL    HW188706   0.292  12.421   2.850
62289SOL    HW288707   0.367  12.543   2.900
62290SOL     OW88708  13.023   0.804  14.705
62290SOL    HW188709  13.044   0.728  14.651
62290SOL    HW288710  13.016   0.768  14.794
62291SOL     OW88711  11.316   6.369  13.109
62291SOL    HW188712  11.293   6.462  13.118
62291SOL    HW288713  11.410   6.366  13.129
62292SOL     OW88714   2.590   1.162  11.475
62292SOL    HW188715   2.579   1.256  11.491
62292SOL    HW288716   2.683   1.145  11.492
62293SOL     OW88717   9.580  10.941  12.814
62293SOL    HW188718   9.663  10.905  12.845
62293SOL    HW288719   9.536  10.868  12.771
62294SOL     OW88720   5.761   1.604   2.336
62294SOL    HW188721   5.768   1.693   2.301
62294SOL    HW288722   5.667   1.586   2.337
62295SOL     OW88723  10.441  10.863   0.703
62295SOL    HW188724  10.355  10.824   0.690
62295SOL    HW288725  10.472  10.826   0.786
62296SOL     OW88726  12.542   8.441  11.209
62296SOL    HW188727  12.580   8.361  11.244
62296SOL    HW288728  12.486   8.412  11.138
62297SOL     OW88729   3.304   3.158   0.308
62297SOL    HW188730   3.395   3.171   0.281
62297SOL    HW288731   3.310   3.129   0.399
62298SOL     OW88732   9.568   4.238   5.716
62298SOL    HW188733   9.508   4.165   5.731
62298SOL    HW288734   9.580   4.240   5.621
62299SOL     OW88735   1.938   6.726   6.403
62299SOL    HW188736   1.950   6.655   6.341
62299SOL    HW288737   1.965   6.805   6.355
62300SOL     OW88738  11.621   1.756   5.799
62300SOL    HW188739  11.532   1.741   5.832
62300SOL    HW288740  11.625   1.851   5.785
62301SOL     OW88741   8.049   2.642   4.216
62301SOL    HW188742   7.966   2.623   4.171
62301SOL    HW288743   8.023   2.695   4.291
62302SOL     OW88744   8.304  10.663   6.319
62302SOL    HW188745   8.274  10.594   6.378
62302SOL    HW288746   8.290  10.744   6.367
62303SOL     OW88747   0.434   8.887   8.534
62303SOL    HW188748   0.529   8.876   8.539
62303SOL    HW288749   0.418   8.973   8.574
62304SOL     OW88750   5.058   4.458   4.495
62304SOL    HW188751   5.075   4.424   4.407
62304SOL    HW288752   4.964   4.476   4.496
62305SOL     OW88753   0.774   0.105   9.325
62305SOL    HW188754   0.791   0.159   9.402
62305SOL    HW288755   0.774   0.167   9.252
62306SOL     OW88756   1.325   4.916   3.941
62306SOL    HW188757   1.337   4.832   3.984
62306SOL    HW288758   1.321   4.979   4.012
62307SOL     OW88759   7.156  12.235   3.887
62307SOL    HW188760   7.062  12.224   3.873
62307SOL    HW288761   7.185  12.286   3.811
62308SOL     OW88762   5.956   0.488   2.550
62308SOL    HW188763   5.962   0.498   2.645
62308SOL    HW288764   5.970   0.577   2.516
62309SOL     OW88765   5.509   7.077   8.579
62309SOL    HW188766   5.414   7.084   8.586
62309SOL    HW288767   5.525   6.983   8.571
62310SOL     OW88768   9.965  12.042   4.010
62310SOL    HW188769   9.926  11.979   4.071
62310SOL    HW288770   9.893  12.067   3.952
62311SOL     OW88771   7.888  11.386   1.485
62311SOL    HW188772   7.930  11.471   1.474
62311SOL    HW288773   7.802  11.406   1.521
62312SOL     OW88774   7.675  13.035  12.002
62312SOL    HW188775   7.733  12.959  12.007
62312SOL    HW288776   7.620  13.018  11.925
62313SOL     OW88777   1.158   9.237   6.080
62313SOL    HW188778   1.113   9.191   6.151
62313SOL    HW288779   1.105   9.315   6.065
62314SOL     OW88780   8.463   8.555   0.771
62314SOL    HW188781   8.470   8.460   0.766
62314SOL    HW288782   8.509   8.578   0.852
62315SOL     OW88783   9.312   9.048   5.690
62315SOL    HW188784   9.367   9.077   5.617
62315SOL    HW288785   9.233   9.014   5.648
62316SOL     OW88786   9.904  11.077   1.670
62316SOL    HW188787   9.931  11.169   1.675
62316SOL    HW288788   9.905  11.047   1.761
62317SOL     OW88789   4.444   7.762   7.658
62317SOL    HW188790   4.449   7.755   7.754
62317SOL    HW288791   4.451   7.855   7.640
62318SOL     OW88792   5.981   7.238   8.489
62318SOL    HW188793   6.001   7.325   8.454
62318SOL    HW288794   5.889   7.242   8.513
62319SOL     OW88795  10.643   2.958   7.068
62319SOL    HW188796  10.710   3.013   7.108
62319SOL    HW288797  10.561   2.984   7.111
62320SOL     OW88798  10.923  11.882   3.530
62320SOL    HW188799  10.829  11.893   3.544
62320SOL    HW288800  10.934  11.888   3.436
62321SOL     OW88801   6.900   0.604  13.796
62321SOL    HW188802   6.806   0.616  13.780
62321SOL    HW288803   6.904   0.565  13.883
62322SOL     OW88804   9.404  10.352  12.484
62322SOL    HW188805   9.434  10.328  12.571
62322SOL    HW288806   9.469  10.415  12.452
62323SOL     OW88807   1.713  11.772   8.205
62323SOL    HW188808   1.650  11.727   8.149
62323SOL    HW288809   1.799  11.746   8.171
62324SOL     OW88810   2.427   1.780   0.602
62324SOL    HW188811   2.413   1.830   0.682
62324SOL    HW288812   2.509   1.733   0.617
62325SOL     OW88813   8.740   3.119   4.599
62325SOL    HW188814   8.714   3.055   4.666
62325SOL    HW288815   8.754   3.200   4.647
62326SOL     OW88816  11.989   3.594   6.746
62326SOL    HW188817  12.009   3.507   6.712
62326SOL    HW288818  12.056   3.610   6.812
62327SOL     OW88819   7.232  10.107   9.457
62327SOL    HW188820   7.171  10.035   9.475
62327SOL    HW288821   7.251  10.099   9.363
62328SOL     OW88822  11.954   1.164  11.685
62328SOL    HW188823  12.006   1.244  11.682
62328SOL    HW288824  11.995   1.106  11.622
62329SOL     OW88825   8.975  11.881   6.361
62329SOL    HW188826   9.011  11.849   6.278
62329SOL    HW288827   8.963  11.802   6.414
62330SOL     OW88828   3.475   2.553   8.031
62330SOL    HW188829   3.436   2.511   8.108
62330SOL    HW288830   3.404   2.558   7.968
62331SOL     OW88831   4.485   9.485   0.598
62331SOL    HW188832   4.580   9.484   0.586
62331SOL    HW288833   4.451   9.433   0.525
62332SOL     OW88834   1.350   8.092   9.659
62332SOL    HW188835   1.379   8.085   9.750
62332SOL    HW288836   1.257   8.070   9.662
62333SOL     OW88837   9.648  13.033  13.348
62333SOL    HW188838   9.557  13.050  13.322
62333SOL    HW288839   9.642  13.007  13.440
62334SOL     OW88840   7.703  11.966  14.242
62334SOL    HW188841   7.759  11.930  14.174
62334SOL    HW288842   7.760  12.026  14.291
62335SOL     OW88843   3.289   7.464  12.575
62335SOL    HW188844   3.300   7.395  12.641
62335SOL    HW288845   3.317   7.423  12.493
62336SOL     OW88846   2.336  14.659  10.604
62336SOL    HW188847   2.313  14.686  10.693
62336SOL    HW288848   2.266  14.598  10.579
62337SOL     OW88849  12.120   3.426   2.175
62337SOL    HW188850  12.044   3.408   2.119
62337SOL    HW288851  12.085   3.479   2.247
62338SOL     OW88852  12.521   7.629  14.605
62338SOL    HW188853  12.491   7.678  14.682
62338SOL    HW288854  12.465   7.551  14.604
62339SOL     OW88855   6.785   5.042   8.995
62339SOL    HW188856   6.788   4.997   9.079
62339SOL    HW288857   6.791   4.971   8.930
62340SOL     OW88858  12.176   9.210   2.771
62340SOL    HW188859  12.210   9.291   2.733
62340SOL    HW288860  12.084   9.230   2.791
62341SOL     OW88861   8.973   7.550   7.687
62341SOL    HW188862   8.884   7.525   7.711
62341SOL    HW288863   8.963   7.606   7.611
62342SOL     OW88864   1.735   1.600   8.919
62342SOL    HW188865   1.693   1.603   9.005
62342SOL    HW288866   1.812   1.544   8.932
62343SOL     OW88867   3.638  11.978  12.370
62343SOL    HW188868   3.592  11.991  12.453
62343SOL    HW288869   3.591  11.906  12.327
62344SOL     OW88870   0.517   4.777   8.441
62344SOL    HW188871   0.462   4.701   8.461
62344SOL    HW288872   0.544   4.764   8.350
62345SOL     OW88873  14.389  13.071   1.364
62345SOL    HW188874  14.335  13.146   1.388
62345SOL    HW288875  14.366  13.052   1.273
62346SOL     OW88876   9.695   8.819   2.573
62346SOL    HW188877   9.687   8.862   2.488
62346SOL    HW288878   9.744   8.739   2.555
62347SOL     OW88879   8.406   0.046  13.951
62347SOL    HW188880   8.441   0.020  14.036
62347SOL    HW288881   8.312   0.051  13.964
62348SOL     OW88882  11.805  14.839   4.013
62348SOL    HW188883  11.850  14.840   4.098
62348SOL    HW288884  11.844  14.766   3.966
62349SOL     OW88885   5.941  14.073   5.803
62349SOL    HW188886   5.974  14.143   5.746
62349SOL    HW288887   5.890  14.119   5.869
62350SOL     OW88888  13.365  14.374   1.560
62350SOL    HW188889  13.390  14.463   1.533
62350SOL    HW288890  13.309  14.342   1.489
62351SOL     OW88891  11.605   3.120  14.566
62351SOL    HW188892  11.700   3.108  14.573
62351SOL    HW288893  11.594   3.213  14.544
62352SOL     OW88894  13.758   3.728   7.897
62352SOL    HW188895  13.722   3.657   7.950
62352SOL    HW288896  13.842   3.747   7.937
62353SOL     OW88897  14.226   6.089   3.841
62353SOL    HW188898  14.148   6.138   3.815
62353SOL    HW288899  14.239   6.113   3.933
62354SOL     OW88900   0.167   8.064  12.898
62354SOL    HW188901   0.162   7.973  12.866
62354SOL    HW288902   0.260   8.083  12.904
62355SOL     OW88903   8.098   0.698   9.739
62355SOL    HW188904   8.190   0.694   9.713
62355SOL    HW288905   8.089   0.629   9.805
62356SOL     OW88906   2.790  13.377   4.293
62356SOL    HW188907   2.798  13.286   4.264
62356SOL    HW288908   2.732  13.418   4.229
62357SOL     OW88909   4.315  11.663   1.992
62357SOL    HW188910   4.265  11.743   1.977
62357SOL    HW288911   4.398  11.679   1.947
62358SOL     OW88912  13.310  11.489  11.668
62358SOL    HW188913  13.252  11.565  11.682
62358SOL    HW288914  13.255  11.426  11.620
62359SOL     OW88915  14.008   6.055  10.624
62359SOL    HW188916  14.074   5.993  10.593
62359SOL    HW288917  13.930   6.036  10.573
62360SOL     OW88918   7.344   4.173  14.583
62360SOL    HW188919   7.422   4.207  14.540
62360SOL    HW288920   7.366   4.082  14.603
62361SOL     OW88921  10.169  12.476   5.124
62361SOL    HW188922  10.175  12.432   5.039
62361SOL    HW288923  10.082  12.452   5.157
62362SOL     OW88924  11.099   1.234   6.136
62362SOL    HW188925  11.005   1.238   6.117
62362SOL    HW288926  11.141   1.236   6.049
62363SOL     OW88927  10.575  10.276  14.559
62363SOL    HW188928  10.604  10.367  14.560
62363SOL    HW288929  10.510  10.270  14.630
62364SOL     OW88930   0.086  14.231   2.332
62364SOL    HW188931   0.074  14.184   2.249
62364SOL    HW288932   0.127  14.167   2.390
62365SOL     OW88933   9.468  13.832  10.266
62365SOL    HW188934   9.484  13.749  10.311
62365SOL    HW288935   9.544  13.843  10.209
62366SOL     OW88936   8.877   7.399   5.302
62366SOL    HW188937   8.937   7.392   5.376
62366SOL    HW288938   8.820   7.472   5.325
62367SOL     OW88939  10.257   0.969   8.137
62367SOL    HW188940  10.271   1.027   8.061
62367SOL    HW288941  10.302   1.014   8.209
62368SOL     OW88942  12.900   3.613   5.200
62368SOL    HW188943  12.966   3.552   5.168
62368SOL    HW288944  12.839   3.623   5.127
62369SOL     OW88945  14.768   5.451   3.130
62369SOL    HW188946  14.816   5.514   3.184
62369SOL    HW288947  14.776   5.368   3.177
62370SOL     OW88948   9.762  12.741  11.026
62370SOL    HW188949   9.751  12.658  10.980
62370SOL    HW288950   9.713  12.805  10.973
62371SOL     OW88951  10.268   0.801  13.314
62371SOL    HW188952  10.207   0.775  13.244
62371SOL    HW288953  10.353   0.807  13.270
62372SOL     OW88954   0.081   1.645  13.964
62372SOL    HW188955   0.099   1.737  13.983
62372SOL    HW288956   0.155   1.616  13.911
62373SOL     OW88957  13.331  14.516   2.166
62373SOL    HW188958  13.407  14.478   2.124
62373SOL    HW288959  13.364  14.550   2.249
62374SOL     OW88960   5.110   3.206  11.093
62374SOL    HW188961   5.126   3.228  11.185
62374SOL    HW288962   5.153   3.277  11.044
62375SOL     OW88963   3.527  11.956  14.371
62375SOL    HW188964   3.599  11.894  14.387
62375SOL    HW288965   3.555  12.036  14.416
62376SOL     OW88966   6.223   0.171   9.530
62376SOL    HW188967   6.290   0.234   9.503
62376SOL    HW288968   6.154   0.181   9.464
62377SOL     OW88969   0.251  11.280  11.209
62377SOL    HW188970   0.300  11.206  11.243
62377SOL    HW288971   0.308  11.356  11.224
62378SOL     OW88972   6.193  10.779   5.784
62378SOL    HW188973   6.106  10.759   5.817
62378SOL    HW288974   6.197  10.874   5.780
62379SOL     OW88975   8.153  11.402   9.261
62379SOL    HW188976   8.174  11.370   9.173
62379SOL    HW288977   8.228  11.454   9.287
62380SOL     OW88978  11.656  11.577   5.753
62380SOL    HW188979  11.668  11.595   5.846
62380SOL    HW288980  11.561  11.568   5.742
62381SOL     OW88981  14.178  14.803   4.706
62381SOL    HW188982  14.151  14.712   4.719
62381SOL    HW288983  14.163  14.819   4.613
62382SOL     OW88984   8.949  14.004   7.390
62382SOL    HW188985   8.998  13.981   7.311
62382SOL    HW288986   8.945  14.100   7.388
62383SOL     OW88987  11.936   9.879   8.294
62383SOL    HW188988  11.981   9.795   8.295
62383SOL    HW288989  11.858   9.866   8.348
62384SOL     OW88990   2.353  10.454   3.483
62384SOL    HW188991   2.293  10.520   3.447
62384SOL    HW288992   2.437  10.500   3.490
62385SOL     OW88993  11.323  12.132  10.564
62385SOL    HW188994  11.228  12.143  10.563
62385SOL    HW288995  11.345  12.115  10.655
62386SOL     OW88996  11.207  13.032  12.946
62386SOL    HW188997  11.274  12.984  12.993
62386SOL    HW288998  11.160  12.965  12.896
62387SOL     OW88999  11.457  10.399  11.531
62387SOL    HW189000  11.385  10.368  11.587
62387SOL    HW289001  11.512  10.451  11.590
62388SOL     OW89002   8.108   5.472   2.817
62388SOL    HW189003   8.147   5.545   2.865
62388SOL    HW289004   8.171   5.451   2.748
62389SOL     OW89005   7.600   9.856   3.921
62389SOL    HW189006   7.665   9.922   3.948
62389SOL    HW289007   7.532   9.861   3.989
62390SOL     OW89008   4.733  13.158   0.659
62390SOL    HW189009   4.747  13.203   0.743
62390SOL    HW289010   4.715  13.229   0.597
62391SOL     OW89011   7.236   2.357   1.942
62391SOL    HW189012   7.153   2.403   1.955
62391SOL    HW289013   7.223   2.306   1.862
62392SOL     OW89014   6.702   9.698   7.505
62392SOL    HW189015   6.731   9.714   7.415
62392SOL    HW289016   6.780   9.666   7.550
62393SOL     OW89017  11.016   8.204  10.725
62393SOL    HW189018  11.065   8.142  10.672
62393SOL    HW289019  10.933   8.159  10.743
62394SOL     OW89020   5.309   3.491   2.202
62394SOL    HW189021   5.394   3.508   2.243
62394SOL    HW289022   5.283   3.575   2.164
62395SOL     OW89023   5.438  10.477   1.244
62395SOL    HW189024   5.434  10.468   1.339
62395SOL    HW289025   5.454  10.571   1.230
62396SOL     OW89026   1.316   7.561  10.278
62396SOL    HW189027   1.357   7.478  10.255
62396SOL    HW289028   1.389   7.616  10.308
62397SOL     OW89029  14.489   1.729  13.337
62397SOL    HW189030  14.483   1.743  13.243
62397SOL    HW289031  14.401   1.702  13.364
62398SOL     OW89032   2.455  12.713   1.135
62398SOL    HW189033   2.549  12.705   1.153
62398SOL    HW289034   2.425  12.623   1.128
62399SOL     OW89035   9.301   6.165  11.876
62399SOL    HW189036   9.384   6.163  11.827
62399SOL    HW289037   9.323   6.130  11.962
62400SOL     OW89038   1.230   0.366   4.392
62400SOL    HW189039   1.300   0.340   4.332
62400SOL    HW289040   1.248   0.316   4.472
62401SOL     OW89041   1.082   4.577  14.060
62401SOL    HW189042   1.083   4.485  14.084
62401SOL    HW289043   1.092   4.624  14.143
62402SOL     OW89044   8.259   3.297  10.209
62402SOL    HW189045   8.322   3.281  10.279
62402SOL    HW289046   8.303   3.271  10.129
62403SOL     OW89047   3.485   8.313   3.488
62403SOL    HW189048   3.402   8.322   3.535
62403SOL    HW289049   3.525   8.400   3.492
62404SOL     OW89050   4.185   5.544   3.494
62404SOL    HW189051   4.188   5.496   3.411
62404SOL    HW289052   4.260   5.603   3.491
62405SOL     OW89053   6.283   8.814   4.328
62405SOL    HW189054   6.374   8.789   4.310
62405SOL    HW289055   6.288   8.906   4.354
62406SOL     OW89056   6.044  10.450   7.970
62406SOL    HW189057   6.012  10.364   7.998
62406SOL    HW289058   6.137  10.450   7.995
62407SOL     OW89059  10.853  12.948   3.667
62407SOL    HW189060  10.937  12.938   3.710
62407SOL    HW289061  10.805  13.012   3.721
62408SOL     OW89062   9.758  11.107  13.070
62408SOL    HW189063   9.695  11.070  13.008
62408SOL    HW289064   9.764  11.199  13.047
62409SOL     OW89065  13.902   7.406   6.165
62409SOL    HW189066  13.913   7.397   6.259
62409SOL    HW289067  13.988   7.386   6.129
62410SOL     OW89068   7.063   5.711  10.323
62410SOL    HW189069   7.023   5.686  10.406
62410SOL    HW289070   7.026   5.648  10.260
62411SOL     OW89071   7.949  11.830   0.710
62411SOL    HW189072   7.924  11.752   0.662
62411SOL    HW289073   8.030  11.806   0.754
62412SOL     OW89074   8.727   4.350   6.614
62412SOL    HW189075   8.772   4.318   6.692
62412SOL    HW289076   8.740   4.445   6.616
62413SOL     OW89077   9.977   0.178   1.839
62413SOL    HW189078   9.994   0.272   1.827
62413SOL    HW289079   9.963   0.145   1.750
62414SOL     OW89080   2.069   1.288   7.383
62414SOL    HW189081   2.087   1.370   7.429
62414SOL    HW289082   2.155   1.255   7.358
62415SOL     OW89083   7.543  10.905   1.664
62415SOL    HW189084   7.466  10.886   1.610
62415SOL    HW289085   7.565  10.996   1.643
62416SOL     OW89086   4.093   8.617   7.711
62416SOL    HW189087   4.109   8.618   7.806
62416SOL    HW289088   4.179   8.634   7.672
62417SOL     OW89089  14.324   7.657   3.355
62417SOL    HW189090  14.328   7.752   3.347
62417SOL    HW289091  14.265   7.642   3.429
62418SOL     OW89092   6.647  12.004  13.572
62418SOL    HW189093   6.602  11.923  13.594
62418SOL    HW289094   6.667  11.996  13.479
62419SOL     OW89095   3.606   9.821  12.216
62419SOL    HW189096   3.675   9.774  12.263
62419SOL    HW289097   3.641   9.834  12.128
62420SOL     OW89098  14.045   1.665  12.101
62420SOL    HW189099  13.992   1.700  12.173
62420SOL    HW289100  14.064   1.741  12.046
62421SOL     OW89101   8.146  14.124   0.293
62421SOL    HW189102   8.163  14.108   0.386
62421SOL    HW289103   8.084  14.057   0.268
62422SOL     OW89104   3.715   0.795  11.859
62422SOL    HW189105   3.710   0.728  11.927
62422SOL    HW289106   3.786   0.853  11.887
62423SOL     OW89107   6.091  12.285   9.841
62423SOL    HW189108   6.105  12.373   9.877
62423SOL    HW289109   6.101  12.296   9.747
62424SOL     OW89110   0.444   1.883   3.218
62424SOL    HW189111   0.504   1.811   3.233
62424SOL    HW289112   0.424   1.917   3.306
62425SOL     OW89113   8.412   9.164  11.618
62425SOL    HW189114   8.436   9.102  11.687
62425SOL    HW289115   8.364   9.111  11.555
62426SOL     OW89116   8.220   5.028  12.891
62426SOL    HW189117   8.239   5.015  12.983
62426SOL    HW289118   8.202   4.940  12.857
62427SOL     OW89119  11.167  11.168  13.701
62427SOL    HW189120  11.227  11.168  13.775
62427SOL    HW289121  11.159  11.260  13.675
62428SOL     OW89122  14.546   6.801  13.913
62428SOL    HW189123  14.491   6.879  13.924
62428SOL    HW289124  14.609   6.806  13.985
62429SOL     OW89125  14.046  12.754  12.196
62429SOL    HW189126  14.072  12.746  12.104
62429SOL    HW289127  13.961  12.798  12.193
62430SOL     OW89128   5.056   0.252   7.921
62430SOL    HW189129   5.088   0.341   7.907
62430SOL    HW289130   4.969   0.250   7.882
62431SOL     OW89131   3.392   6.850  10.738
62431SOL    HW189132   3.459   6.872  10.673
62431SOL    HW289133   3.437   6.853  10.822
62432SOL     OW89134   1.101  10.490  14.643
62432SOL    HW189135   1.133  10.489  14.733
62432SOL    HW289136   1.180  10.488  14.589
62433SOL     OW89137   0.485  13.718  14.735
62433SOL    HW189138   0.472  13.812  14.721
62433SOL    HW289139   0.416  13.693  14.797
62434SOL     OW89140  10.642   4.496   8.758
62434SOL    HW189141  10.679   4.554   8.825
62434SOL    HW289142  10.548   4.496   8.775
62435SOL     OW89143  12.720   6.686  14.755
62435SOL    HW189144  12.683   6.622  14.694
62435SOL    HW289145  12.813   6.690  14.734
62436SOL     OW89146  11.269   2.988  13.088
62436SOL    HW189147  11.352   3.006  13.132
62436SOL    HW289148  11.202   3.010  13.153
62437SOL     OW89149  10.840  14.539   6.957
62437SOL    HW189150  10.847  14.634   6.949
62437SOL    HW289151  10.773  14.514   6.894
62438SOL     OW89152   6.165   4.847  13.095
62438SOL    HW189153   6.212   4.765  13.101
62438SOL    HW289154   6.077   4.822  13.067
62439SOL     OW89155   1.527   5.784   2.370
62439SOL    HW189156   1.527   5.864   2.423
62439SOL    HW289157   1.597   5.798   2.307
62440SOL     OW89158  11.679  14.352  14.200
62440SOL    HW189159  11.723  14.275  14.164
62440SOL    HW289160  11.730  14.427  14.168
62441SOL     OW89161  12.839  12.906   4.329
62441SOL    HW189162  12.795  12.825   4.356
62441SOL    HW289163  12.780  12.946   4.266
62442SOL     OW89164   3.247   1.931  13.365
62442SOL    HW189165   3.252   2.026  13.364
62442SOL    HW289166   3.162   1.911  13.325
62443SOL     OW89167   7.398   8.457   8.577
62443SOL    HW189168   7.363   8.461   8.666
62443SOL    HW289169   7.368   8.374   8.542
62444SOL     OW89170   9.875  14.186  10.105
62444SOL    HW189171   9.882  14.147  10.192
62444SOL    HW289172   9.892  14.280  10.119
62445SOL     OW89173  13.211   4.902   6.193
62445SOL    HW189174  13.258   4.822   6.169
62445SOL    HW289175  13.158   4.877   6.269
62446SOL     OW89176  11.754   6.233   7.331
62446SOL    HW189177  11.833   6.180   7.342
62446SOL    HW289178  11.709   6.194   7.256
62447SOL     OW89179   9.826  10.378   4.308
62447SOL    HW189180   9.745  10.332   4.330
62447SOL    HW289181   9.821  10.459   4.359
62448SOL     OW89182   6.593   9.348   4.621
62448SOL    HW189183   6.547   9.300   4.691
62448SOL    HW289184   6.599   9.285   4.549
62449SOL     OW89185  11.153   7.600   3.037
62449SOL    HW189186  11.216   7.557   2.980
62449SOL    HW289187  11.203   7.669   3.081
62450SOL     OW89188   7.686  13.577  10.669
62450SOL    HW189189   7.618  13.634  10.704
62450SOL    HW289190   7.639  13.501  10.635
62451SOL     OW89191   4.871   6.569   7.391
62451SOL    HW189192   4.783   6.570   7.355
62451SOL    HW289193   4.871   6.639   7.458
62452SOL     OW89194  10.000  12.466  10.232
62452SOL    HW189195  10.035  12.555  10.241
62452SOL    HW289196  10.030  12.421  10.311
62453SOL     OW89197   1.764   3.575   4.523
62453SOL    HW189198   1.734   3.489   4.492
62453SOL    HW289199   1.858   3.566   4.532
62454SOL     OW89200   3.190   8.248  14.401
62454SOL    HW189201   3.178   8.262  14.308
62454SOL    HW289202   3.203   8.153  14.410
62455SOL     OW89203   4.669   3.738   1.239
62455SOL    HW189204   4.669   3.652   1.197
62455SOL    HW289205   4.726   3.728   1.315
62456SOL     OW89206  13.079   6.433   9.408
62456SOL    HW189207  12.991   6.465   9.388
62456SOL    HW289208  13.103   6.379   9.333
62457SOL     OW89209  10.470   6.480   1.689
62457SOL    HW189210  10.537   6.429   1.735
62457SOL    HW289211  10.405   6.501   1.757
62458SOL     OW89212   4.665   3.964   1.460
62458SOL    HW189213   4.742   3.908   1.452
62458SOL    HW289214   4.665   4.016   1.380
62459SOL     OW89215   6.461  11.884   6.915
62459SOL    HW189216   6.443  11.943   6.988
62459SOL    HW289217   6.434  11.934   6.837
62460SOL     OW89218   4.680   9.406  13.601
62460SOL    HW189219   4.719   9.477  13.652
62460SOL    HW289220   4.752   9.346  13.584
62461SOL     OW89221   1.958   6.442  13.232
62461SOL    HW189222   1.949   6.371  13.296
62461SOL    HW289223   1.955   6.522  13.285
62462SOL     OW89224  13.008   6.096   8.424
62462SOL    HW189225  12.918   6.114   8.449
62462SOL    HW289226  13.056   6.091   8.507
62463SOL     OW89227  11.459   0.548   7.694
62463SOL    HW189228  11.400   0.478   7.722
62463SOL    HW289229  11.533   0.542   7.754
62464SOL     OW89230   7.235   0.120   5.982
62464SOL    HW189231   7.153   0.165   6.000
62464SOL    HW289232   7.301   0.172   6.029
62465SOL     OW89233   6.959   4.946   2.449
62465SOL    HW189234   6.931   4.990   2.530
62465SOL    HW289235   7.005   5.013   2.400
62466SOL     OW89236  14.382   0.291   0.954
62466SOL    HW189237  14.349   0.348   1.024
62466SOL    HW289238  14.320   0.302   0.882
62467SOL     OW89239  12.232   8.706   5.128
62467SOL    HW189240  12.294   8.764   5.083
62467SOL    HW289241  12.278   8.678   5.206
62468SOL     OW89242  11.340   4.811   2.844
62468SOL    HW189243  11.306   4.797   2.933
62468SOL    HW289244  11.309   4.736   2.795
62469SOL     OW89245  12.975  14.572   7.333
62469SOL    HW189246  13.055  14.610   7.369
62469SOL    HW289247  12.942  14.638   7.272
62470SOL     OW89248   1.537   4.421   7.175
62470SOL    HW189249   1.572   4.347   7.126
62470SOL    HW289250   1.467   4.384   7.229
62471SOL     OW89251  13.245  11.485   6.379
62471SOL    HW189252  13.215  11.403   6.418
62471SOL    HW289253  13.211  11.482   6.289
62472SOL     OW89254   7.320  11.781   0.623
62472SOL    HW189255   7.402  11.828   0.605
62472SOL    HW289256   7.273  11.782   0.540
62473SOL     OW89257   4.014   9.185  14.505
62473SOL    HW189258   4.038   9.148  14.590
62473SOL    HW289259   4.096   9.217  14.468
62474SOL     OW89260   4.958   2.088   7.696
62474SOL    HW189261   4.942   2.122   7.608
62474SOL    HW289262   4.928   2.157   7.754
62475SOL     OW89263   5.075   4.274  14.545
62475SOL    HW189264   5.115   4.195  14.508
62475SOL    HW289265   5.131   4.298  14.618
62476SOL     OW89266   8.934   4.672  12.544
62476SOL    HW189267   8.844   4.701  12.537
62476SOL    HW289268   8.938   4.623  12.626
62477SOL     OW89269   5.198   0.273   3.392
62477SOL    HW189270   5.123   0.308   3.440
62477SOL    HW289271   5.167   0.265   3.302
62478SOL     OW89272   6.940   1.268   7.369
62478SOL    HW189273   6.875   1.337   7.386
62478SOL    HW289274   6.934   1.210   7.445
62479SOL     OW89275   9.119  13.742  13.276
62479SOL    HW189276   9.103  13.720  13.184
62479SOL    HW289277   9.148  13.659  13.315
62480SOL     OW89278   7.520   1.471   4.872
62480SOL    HW189279   7.444   1.527   4.889
62480SOL    HW289280   7.501   1.429   4.789
62481SOL     OW89281   2.858   5.758   9.396
62481SOL    HW189282   2.820   5.723   9.315
62481SOL    HW289283   2.784   5.769   9.455
62482SOL     OW89284   5.550   2.117  12.336
62482SOL    HW189285   5.612   2.158  12.395
62482SOL    HW289286   5.572   2.024  12.337
62483SOL     OW89287   9.852   1.265  13.796
62483SOL    HW189288   9.892   1.203  13.736
62483SOL    HW289289   9.829   1.341  13.742
62484SOL     OW89290  10.108   6.877   1.625
62484SOL    HW189291  10.074   6.914   1.544
62484SOL    HW289292  10.179   6.819   1.598
62485SOL     OW89293   3.695   2.605   2.595
62485SOL    HW189294   3.717   2.660   2.519
62485SOL    HW289295   3.683   2.518   2.558
62486SOL     OW89296   3.881   1.988   4.953
62486SOL    HW189297   3.908   1.960   5.041
62486SOL    HW289298   3.936   1.936   4.894
62487SOL     OW89299   2.024   5.862  12.985
62487SOL    HW189300   2.081   5.913  13.043
62487SOL    HW289301   1.971   5.928  12.941
62488SOL     OW89302  12.294   2.408  13.626
62488SOL    HW189303  12.356   2.473  13.592
62488SOL    HW289304  12.307   2.410  13.721
62489SOL     OW89305  14.438   2.508   0.103
62489SOL    HW189306  14.460   2.454   0.027
62489SOL    HW289307  14.494   2.473   0.173
62490SOL     OW89308  11.274  12.517   8.981
62490SOL    HW189309  11.209  12.584   8.960
62490SOL    HW289310  11.248  12.441   8.928
62491SOL     OW89311   5.699   9.486  10.050
62491SOL    HW189312   5.638   9.412  10.040
62491SOL    HW289313   5.786   9.447  10.041
62492SOL     OW89314   1.958   5.890   0.785
62492SOL    HW189315   1.878   5.858   0.827
62492SOL    HW289316   2.026   5.827   0.809
62493SOL     OW89317   4.897  10.498   7.550
62493SOL    HW189318   4.854  10.431   7.604
62493SOL    HW289319   4.825  10.555   7.521
62494SOL     OW89320   0.012   3.647   3.352
62494SOL    HW189321   0.092   3.668   3.304
62494SOL    HW289322   0.006   3.713   3.420
62495SOL     OW89323   1.607  12.425   6.221
62495SOL    HW189324   1.591  12.463   6.308
62495SOL    HW289325   1.624  12.501   6.164
62496SOL     OW89326  14.178   0.930   4.830
62496SOL    HW189327  14.192   1.024   4.817
62496SOL    HW289328  14.247   0.888   4.779
62497SOL     OW89329   9.254   8.486  14.336
62497SOL    HW189330   9.340   8.478  14.295
62497SOL    HW289331   9.202   8.416  14.297
62498SOL     OW89332  14.400  10.785   9.313
62498SOL    HW189333  14.374  10.763   9.403
62498SOL    HW289334  14.317  10.794   9.266
62499SOL     OW89335  10.721  10.679   4.222
62499SOL    HW189336  10.683  10.613   4.280
62499SOL    HW289337  10.750  10.748   4.282
62500SOL     OW89338   5.422   0.832  13.438
62500SOL    HW189339   5.513   0.836  13.466
62500SOL    HW289340   5.374   0.806  13.516
62501SOL     OW89341   8.052  14.564   5.306
62501SOL    HW189342   8.118  14.547   5.239
62501SOL    HW289343   8.047  14.659   5.311
62502SOL     OW89344  10.310   5.924   9.337
62502SOL    HW189345  10.262   5.953   9.260
62502SOL    HW289346  10.243   5.920   9.406
62503SOL     OW89347   6.560   4.619   2.110
62503SOL    HW189348   6.598   4.531   2.105
62503SOL    HW289349   6.563   4.641   2.203
62504SOL     OW89350  12.934   4.043  11.974
62504SOL    HW189351  12.881   4.015  11.899
62504SOL    HW289352  12.977   4.123  11.943
62505SOL     OW89353  11.271   2.027  10.784
62505SOL    HW189354  11.311   2.111  10.763
62505SOL    HW289355  11.236   2.038  10.872
62506SOL     OW89356   6.985   0.510   2.327
62506SOL    HW189357   6.910   0.488   2.272
62506SOL    HW289358   6.948   0.558   2.401
62507SOL     OW89359   7.135  13.015  13.223
62507SOL    HW189360   7.168  13.048  13.140
62507SOL    HW289361   7.174  13.072  13.290
62508SOL     OW89362   0.062  10.200   8.737
62508SOL    HW189363  14.851  10.175   8.732
62508SOL    HW289364   0.071  10.272   8.674
62509SOL     OW89365  13.606  13.376  11.090
62509SOL    HW189366  13.543  13.341  11.027
62509SOL    HW289367  13.586  13.469  11.096
62510SOL     OW89368  13.044   0.101  11.695
62510SOL    HW189369  13.136   0.077  11.681
62510SOL    HW289370  13.043   0.196  11.693
62511SOL     OW89371  11.582   0.783   5.091
62511SOL    HW189372  11.650   0.836   5.049
62511SOL    HW289373  11.514   0.847   5.114
62512SOL     OW89374   3.628  13.518   8.227
62512SOL    HW189375   3.661  13.462   8.157
62512SOL    HW289376   3.642  13.467   8.307
62513SOL     OW89377   6.910   2.477   0.382
62513SOL    HW189378   6.997   2.515   0.393
62513SOL    HW289379   6.855   2.551   0.354
62514SOL     OW89380   6.088   4.540   8.031
62514SOL    HW189381   6.047   4.470   8.081
62514SOL    HW289382   6.111   4.606   8.097
62515SOL     OW89383   3.884  11.971   8.285
62515SOL    HW189384   3.955  11.914   8.314
62515SOL    HW289385   3.808  11.912   8.280
62516SOL     OW89386   4.903  10.186  10.274
62516SOL    HW189387   4.836  10.166  10.340
62516SOL    HW289388   4.888  10.279  10.253
62517SOL     OW89389  14.306  12.516   0.914
62517SOL    HW189390  14.306  12.442   0.974
62517SOL    HW289391  14.324  12.592   0.969
62518SOL     OW89392  11.482  13.290   3.667
62518SOL    HW189393  11.399  13.294   3.619
62518SOL    HW289394  11.458  13.271   3.757
62519SOL     OW89395   5.636  14.039   8.954
62519SOL    HW189396   5.621  14.128   8.985
62519SOL    HW289397   5.597  13.983   9.022
62520SOL     OW89398   6.138   1.867   9.020
62520SOL    HW189399   6.117   1.781   8.984
62520SOL    HW289400   6.213   1.897   8.968
62521SOL     OW89401   1.258   4.767   2.061
62521SOL    HW189402   1.252   4.851   2.108
62521SOL    HW289403   1.340   4.728   2.093
62522SOL     OW89404   8.637  12.958  10.960
62522SOL    HW189405   8.718  13.005  10.945
62522SOL    HW289406   8.597  12.950  10.873
62523SOL     OW89407   5.942   5.683   7.806
62523SOL    HW189408   5.877   5.641   7.862
62523SOL    HW289409   6.017   5.698   7.863
62524SOL     OW89410   6.950  10.206   4.282
62524SOL    HW189411   6.879  10.156   4.241
62524SOL    HW289412   7.025  10.146   4.281
62525SOL     OW89413   9.709  10.916   2.900
62525SOL    HW189414   9.684  10.939   2.990
62525SOL    HW289415   9.626  10.895   2.857
62526SOL     OW89416  10.227  11.925   0.793
62526SOL    HW189417  10.320  11.928   0.772
62526SOL    HW289418  10.184  11.901   0.710
62527SOL     OW89419   1.578  11.808  10.819
62527SOL    HW189420   1.674  11.807  10.826
62527SOL    HW289421   1.560  11.877  10.755
62528SOL     OW89422  12.733  11.058   0.639
62528SOL    HW189423  12.665  11.088   0.579
62528SOL    HW289424  12.694  10.982   0.683
62529SOL     OW89425   9.040   6.257  14.295
62529SOL    HW189426   9.004   6.336  14.336
62529SOL    HW289427   9.013   6.186  14.353
62530SOL     OW89428   4.966   7.008   8.459
62530SOL    HW189429   4.939   6.917   8.452
62530SOL    HW289430   4.989   7.020   8.551
62531SOL     OW89431  12.831   4.232  13.101
62531SOL    HW189432  12.817   4.155  13.157
62531SOL    HW289433  12.926   4.240  13.095
62532SOL     OW89434   8.533  11.743  12.900
62532SOL    HW189435   8.629  11.745  12.897
62532SOL    HW289436   8.510  11.657  12.865
62533SOL     OW89437  10.294  12.751  14.814
62533SOL    HW189438  10.273  12.841  14.841
62533SOL    HW289439  10.351  12.762  14.738
62534SOL     OW89440  11.499   9.413   6.070
62534SOL    HW189441  11.531   9.498   6.101
62534SOL    HW289442  11.461   9.432   5.985
62535SOL     OW89443   2.974   8.398   2.584
62535SOL    HW189444   3.050   8.375   2.530
62535SOL    HW289445   3.009   8.405   2.672
62536SOL     OW89446   8.258   6.418   7.603
62536SOL    HW189447   8.225   6.414   7.692
62536SOL    HW289448   8.349   6.448   7.612
62537SOL     OW89449  13.997  14.618   5.367
62537SOL    HW189450  13.924  14.661   5.411
62537SOL    HW289451  14.061  14.688   5.352
62538SOL     OW89452  10.219   5.978  10.845
62538SOL    HW189453  10.154   5.944  10.907
62538SOL    HW289454  10.214   5.919  10.770
62539SOL     OW89455  13.047  10.017  14.334
62539SOL    HW189456  13.125   9.988  14.286
62539SOL    HW289457  12.997  10.067  14.270
62540SOL     OW89458   6.586   0.680   0.199
62540SOL    HW189459   6.620   0.596   0.228
62540SOL    HW289460   6.644   0.745   0.240
62541SOL     OW89461  10.153  14.524   9.493
62541SOL    HW189462  10.162  14.619   9.487
62541SOL    HW289463  10.091  14.511   9.566
62542SOL     OW89464   7.967   0.696  11.996
62542SOL    HW189465   7.976   0.604  11.971
62542SOL    HW289466   7.933   0.694  12.085
62543SOL     OW89467  14.445   9.340   2.572
62543SOL    HW189468  14.359   9.363   2.536
62543SOL    HW289469  14.503   9.337   2.496
62544SOL     OW89470   3.317  10.523   8.977
62544SOL    HW189471   3.354  10.550   9.061
62544SOL    HW289472   3.310  10.428   8.983
62545SOL     OW89473   3.444   5.790  12.544
62545SOL    HW189474   3.491   5.717  12.585
62545SOL    HW289475   3.371   5.749  12.497
62546SOL     OW89476  12.002   2.785   1.248
62546SOL    HW189477  11.931   2.768   1.186
62546SOL    HW289478  12.024   2.698   1.283
62547SOL     OW89479   5.690  10.503   4.345
62547SOL    HW189480   5.673  10.525   4.436
62547SOL    HW289481   5.663  10.412   4.336
62548SOL     OW89482   9.369  10.143   9.123
62548SOL    HW189483   9.292  10.103   9.162
62548SOL    HW289484   9.362  10.236   9.146
62549SOL     OW89485   3.149   2.192  13.299
62549SOL    HW189486   3.069   2.231  13.333
62549SOL    HW289487   3.127   2.165  13.210
62550SOL     OW89488   3.081   9.922   1.288
62550SOL    HW189489   3.035   9.914   1.204
62550SOL    HW289490   3.065  10.012   1.316
62551SOL     OW89491  13.019  14.252  12.395
62551SOL    HW189492  12.953  14.321  12.386
62551SOL    HW289493  12.969  14.171  12.403
62552SOL     OW89494   3.950   7.005  14.623
62552SOL    HW189495   3.961   7.092  14.662
62552SOL    HW289496   3.960   7.020  14.528
62553SOL     OW89497   4.081   9.947   8.865
62553SOL    HW189498   4.060   9.862   8.904
62553SOL    HW289499   4.168   9.934   8.825
62554SOL     OW89500   8.348  13.706  10.344
62554SOL    HW189501   8.307  13.629  10.305
62554SOL    HW289502   8.385  13.674  10.426
62555SOL     OW89503   3.884   5.133   9.142
62555SOL    HW189504   3.851   5.043   9.148
62555SOL    HW289505   3.964   5.125   9.091
62556SOL     OW89506   6.640   9.678   1.180
62556SOL    HW189507   6.624   9.772   1.188
62556SOL    HW289508   6.720   9.672   1.127
62557SOL     OW89509   3.303   9.668   1.727
62557SOL    HW189510   3.215   9.701   1.712
62557SOL    HW289511   3.312   9.595   1.666
62558SOL     OW89512   6.565  11.600  12.496
62558SOL    HW189513   6.470  11.600  12.492
62558SOL    HW289514   6.588  11.691  12.515
62559SOL     OW89515  11.442   0.819   5.411
62559SOL    HW189516  11.367   0.851   5.461
62559SOL    HW289517  11.419   0.729   5.388
62560SOL     OW89518   9.561   2.289  13.517
62560SOL    HW189519   9.530   2.215  13.465
62560SOL    HW289520   9.628   2.330  13.462
62561SOL     OW89521   3.350   0.990   3.560
62561SOL    HW189522   3.284   0.921   3.550
62561SOL    HW289523   3.406   0.959   3.632
62562SOL     OW89524   3.166  10.942  10.939
62562SOL    HW189525   3.089  10.948  10.995
62562SOL    HW289526   3.221  11.016  10.966
62563SOL     OW89527   1.319   4.784  14.732
62563SOL    HW189528   1.317   4.784  14.637
62563SOL    HW289529   1.368   4.863  14.755
62564SOL     OW89530  13.456   2.866   0.957
62564SOL    HW189531  13.551   2.859   0.943
62564SOL    HW289532  13.442   2.959   0.974
62565SOL     OW89533   3.278   1.316  10.415
62565SOL    HW189534   3.208   1.369  10.455
62565SOL    HW289535   3.248   1.226  10.425
62566SOL     OW89536   0.173   9.128  10.170
62566SOL    HW189537   0.198   9.105  10.260
62566SOL    HW289538   0.150   9.221  10.175
62567SOL     OW89539  13.797  11.101   1.816
62567SOL    HW189540  13.778  11.184   1.860
62567SOL    HW289541  13.834  11.126   1.731
62568SOL     OW89542   3.837  12.405   0.672
62568SOL    HW189543   3.788  12.341   0.724
62568SOL    HW289544   3.915  12.358   0.642
62569SOL     OW89545   3.784   3.648   4.320
62569SOL    HW189546   3.841   3.640   4.396
62569SOL    HW289547   3.783   3.561   4.280
62570SOL     OW89548   5.811   3.804   4.811
62570SOL    HW189549   5.767   3.783   4.729
62570SOL    HW289550   5.865   3.881   4.790
62571SOL     OW89551   4.637  11.545   1.462
62571SOL    HW189552   4.726  11.558   1.493
62571SOL    HW289553   4.583  11.556   1.541
62572SOL     OW89554  12.242   4.619   4.814
62572SOL    HW189555  12.325   4.663   4.831
62572SOL    HW289556  12.177   4.669   4.863
62573SOL     OW89557   9.367  11.141   7.672
62573SOL    HW189558   9.290  11.183   7.708
62573SOL    HW289559   9.336  11.056   7.641
62574SOL     OW89560  14.514   5.952  13.473
62574SOL    HW189561  14.514   6.045  13.448
62574SOL    HW289562  14.424   5.934  13.499
62575SOL     OW89563   7.133   0.150   5.550
62575SOL    HW189564   7.086   0.181   5.473
62575SOL    HW289565   7.213   0.110   5.514
62576SOL     OW89566  11.987   8.438  12.977
62576SOL    HW189567  11.951   8.394  12.900
62576SOL    HW289568  12.021   8.368  13.032
62577SOL     OW89569   3.069  14.030   3.451
62577SOL    HW189570   2.988  14.064   3.487
62577SOL    HW289571   3.059  13.935   3.454
62578SOL     OW89572   5.360   3.116   0.263
62578SOL    HW189573   5.455   3.105   0.254
62578SOL    HW289574   5.323   3.033   0.233
62579SOL     OW89575   2.666  10.057   5.521
62579SOL    HW189576   2.651   9.971   5.482
62579SOL    HW289577   2.757  10.077   5.498
62580SOL     OW89578   1.879  14.179   5.265
62580SOL    HW189579   1.890  14.232   5.186
62580SOL    HW289580   1.787  14.152   5.264
62581SOL     OW89581   7.969   2.872  13.356
62581SOL    HW189582   8.009   2.945  13.308
62581SOL    HW289583   7.887   2.907  13.390
62582SOL     OW89584   6.845   2.434   0.968
62582SOL    HW189585   6.887   2.493   0.905
62582SOL    HW289586   6.912   2.369   0.988
62583SOL     OW89587  11.229   9.373   1.152
62583SOL    HW189588  11.227   9.277   1.157
62583SOL    HW289589  11.282   9.391   1.074
62584SOL     OW89590   0.170   3.779   5.439
62584SOL    HW189591   0.258   3.816   5.450
62584SOL    HW289592   0.186   3.690   5.407
62585SOL     OW89593   6.477   5.137   7.731
62585SOL    HW189594   6.415   5.088   7.677
62585SOL    HW289595   6.558   5.085   7.727
62586SOL     OW89596  10.926  11.894  12.039
62586SOL    HW189597  10.917  11.921  12.130
62586SOL    HW289598  10.860  11.944  11.992
62587SOL     OW89599   9.642   6.186   4.100
62587SOL    HW189600   9.643   6.280   4.084
62587SOL    HW289601   9.592   6.176   4.182
62588SOL     OW89602   2.183   5.239   3.809
62588SOL    HW189603   2.103   5.245   3.862
62588SOL    HW289604   2.206   5.146   3.812
62589SOL     OW89605   6.311   7.779  10.603
62589SOL    HW189606   6.285   7.703  10.550
62589SOL    HW289607   6.371   7.743  10.669
62590SOL     OW89608   7.924  13.012   8.856
62590SOL    HW189609   7.927  12.942   8.922
62590SOL    HW289610   7.926  12.966   8.772
62591SOL     OW89611   9.931  13.160   5.952
62591SOL    HW189612   9.958  13.078   5.993
62591SOL    HW289613   9.859  13.136   5.894
62592SOL     OW89614   9.263   5.687   2.814
62592SOL    HW189615   9.178   5.646   2.799
62592SOL    HW289616   9.244   5.781   2.813
62593SOL     OW89617  12.201   8.913  12.324
62593SOL    HW189618  12.116   8.905  12.368
62593SOL    HW289619  12.257   8.956  12.388
62594SOL     OW89620   3.698   7.591  14.611
62594SOL    HW189621   3.696   7.495  14.604
62594SOL    HW289622   3.758   7.607  14.685
62595SOL     OW89623   9.613   0.385  10.569
62595SOL    HW189624   9.680   0.331  10.526
62595SOL    HW289625   9.577   0.328  10.638
62596SOL     OW89626   5.263  10.226   9.580
62596SOL    HW189627   5.279  10.180   9.498
62596SOL    HW289628   5.213  10.304   9.555
62597SOL     OW89629   1.750   1.300   7.451
62597SOL    HW189630   1.778   1.382   7.410
62597SOL    HW289631   1.670   1.276   7.405
62598SOL     OW89632   9.495   3.319   9.361
62598SOL    HW189633   9.567   3.256   9.360
62598SOL    HW289634   9.525   3.390   9.304
62599SOL     OW89635   5.130   3.328  10.216
62599SOL    HW189636   5.062   3.283  10.266
62599SOL    HW289637   5.187   3.367  10.282
62600SOL     OW89638   5.684   8.922   4.681
62600SOL    HW189639   5.690   8.908   4.587
62600SOL    HW289640   5.594   8.900   4.703
62601SOL     OW89641  11.616   3.197  13.209
62601SOL    HW189642  11.707   3.172  13.199
62601SOL    HW289643  11.619   3.281  13.255
62602SOL     OW89644   2.603   5.593  10.887
62602SOL    HW189645   2.521   5.550  10.861
62602SOL    HW289646   2.586   5.623  10.977
62603SOL     OW89647  12.718  11.757   7.517
62603SOL    HW189648  12.766  11.675   7.516
62603SOL    HW289649  12.654  11.747   7.587
62604SOL     OW89650  10.700  13.598   1.644
62604SOL    HW189651  10.659  13.591   1.730
62604SOL    HW289652  10.790  13.568   1.657
62605SOL     OW89653  13.735   5.855   2.295
62605SOL    HW189654  13.747   5.797   2.370
62605SOL    HW289655  13.819   5.853   2.249
62606SOL     OW89656   4.654   6.365   7.277
62606SOL    HW189657   4.721   6.346   7.212
62606SOL    HW289658   4.688   6.328   7.359
62607SOL     OW89659   8.828   6.678   1.891
62607SOL    HW189660   8.786   6.739   1.951
62607SOL    HW289661   8.883   6.623   1.946
62608SOL     OW89662   0.375   5.328  11.547
62608SOL    HW189663   0.402   5.281  11.626
62608SOL    HW289664   0.344   5.413  11.580
62609SOL     OW89665   0.341   0.127   6.652
62609SOL    HW189666   0.350   0.071   6.729
62609SOL    HW289667   0.263   0.094   6.608
62610SOL     OW89668  14.169   2.865  10.225
62610SOL    HW189669  14.230   2.792  10.237
62610SOL    HW289670  14.224   2.939  10.201
62611SOL     OW89671   6.919  14.873   7.771
62611SOL    HW189672   6.867  14.798   7.744
62611SOL    HW289673   6.943   0.035   7.690
62612SOL     OW89674   4.999   6.850   3.468
62612SOL    HW189675   5.033   6.923   3.520
62612SOL    HW289676   5.065   6.833   3.402
62613SOL     OW89677   9.750  11.928  12.151
62613SOL    HW189678   9.664  11.902  12.117
62613SOL    HW289679   9.743  12.022  12.166
62614SOL     OW89680  12.961   3.133  14.722
62614SOL    HW189681  12.893   3.135  14.654
62614SOL    HW289682  12.918   3.169  14.800
62615SOL     OW89683  14.817   7.200  13.417
62615SOL    HW189684  14.767   7.119  13.402
62615SOL    HW289685  14.763   7.249  13.479
62616SOL     OW89686   8.954   0.190   8.723
62616SOL    HW189687   9.029   0.246   8.702
62616SOL    HW289688   8.885   0.217   8.663
62617SOL     OW89689  13.481   5.667   9.294
62617SOL    HW189690  13.436   5.686   9.376
62617SOL    HW289691  13.415   5.625   9.239
62618SOL     OW89692   7.689   4.626  12.515
62618SOL    HW189693   7.624   4.588  12.574
62618SOL    HW289694   7.643   4.636  12.432
62619SOL     OW89695   8.053  12.774   3.888
62619SOL    HW189696   8.082  12.684   3.873
62619SOL    HW289697   8.121  12.813   3.943
62620SOL     OW89698  12.764   3.095  13.662
62620SOL    HW189699  12.825   3.097  13.588
62620SOL    HW289700  12.690   3.148  13.633
62621SOL     OW89701  11.158   8.222   9.640
62621SOL    HW189702  11.239   8.254   9.681
62621SOL    HW289703  11.154   8.268   9.557
62622SOL     OW89704   8.073   7.962  11.532
62622SOL    HW189705   7.987   7.942  11.494
62622SOL    HW289706   8.104   8.037  11.481
62623SOL     OW89707  10.454  13.878  13.039
62623SOL    HW189708  10.398  13.803  13.057
62623SOL    HW289709  10.439  13.938  13.113
62624SOL     OW89710   2.955  11.681   8.825
62624SOL    HW189711   2.903  11.681   8.905
62624SOL    HW289712   3.031  11.735   8.845
62625SOL     OW89713   2.830   7.897   8.951
62625SOL    HW189714   2.851   7.866   9.039
62625SOL    HW289715   2.867   7.985   8.947
62626SOL     OW89716   5.221  13.700   4.627
62626SOL    HW189717   5.194  13.706   4.536
62626SOL    HW289718   5.307  13.657   4.625
62627SOL     OW89719  14.396   8.151   6.852
62627SOL    HW189720  14.312   8.161   6.808
62627SOL    HW289721  14.455   8.211   6.806
62628SOL     OW89722   4.380   7.120  14.262
62628SOL    HW189723   4.472   7.147  14.260
62628SOL    HW289724   4.334   7.199  14.293
62629SOL     OW89725   6.631  11.848  12.510
62629SOL    HW189726   6.721  11.852  12.477
62629SOL    HW289727   6.584  11.915  12.460
62630SOL     OW89728   8.298   6.400   3.915
62630SOL    HW189729   8.376   6.352   3.942
62630SOL    HW289730   8.229   6.367   3.972
62631SOL     OW89731   0.620   1.287  12.973
62631SOL    HW189732   0.705   1.318  12.942
62631SOL    HW289733   0.629   1.192  12.976
62632SOL     OW89734   5.636   5.105   5.529
62632SOL    HW189735   5.620   5.134   5.439
62632SOL    HW289736   5.717   5.055   5.525
62633SOL     OW89737   0.598  14.438   3.016
62633SOL    HW189738   0.554  14.368   2.967
62633SOL    HW289739   0.626  14.396   3.098
62634SOL     OW89740   5.641   5.656  13.472
62634SOL    HW189741   5.566   5.666  13.531
62634SOL    HW289742   5.613   5.591  13.408
62635SOL     OW89743   9.498   7.287   1.698
62635SOL    HW189744   9.448   7.296   1.617
62635SOL    HW289745   9.432   7.296   1.767
62636SOL     OW89746   7.791   9.842  13.094
62636SOL    HW189747   7.713   9.804  13.053
62636SOL    HW289748   7.834   9.890  13.023
62637SOL     OW89749   8.152   9.708   2.037
62637SOL    HW189750   8.124   9.730   2.126
62637SOL    HW289751   8.076   9.664   1.998
62638SOL     OW89752  10.698   8.590  10.210
62638SOL    HW189753  10.701   8.536  10.289
62638SOL    HW289754  10.614   8.566  10.169
62639SOL     OW89755   8.390   6.083  14.510
62639SOL    HW189756   8.416   6.102  14.600
62639SOL    HW289757   8.314   6.139  14.495
62640SOL     OW89758   3.673   2.332  12.572
62640SOL    HW189759   3.739   2.334  12.641
62640SOL    HW289760   3.723   2.340  12.491
62641SOL     OW89761   6.469   5.235   1.168
62641SOL    HW189762   6.520   5.167   1.211
62641SOL    HW289763   6.402   5.187   1.119
62642SOL     OW89764   7.128   2.976  11.957
62642SOL    HW189765   7.195   2.984  11.889
62642SOL    HW289766   7.111   2.882  11.962
62643SOL     OW89767   9.668   2.261   6.947
62643SOL    HW189768   9.697   2.174   6.976
62643SOL    HW289769   9.602   2.243   6.879
62644SOL     OW89770   5.974   1.966   5.881
62644SOL    HW189771   6.037   2.003   5.943
62644SOL    HW289772   6.009   1.989   5.795
62645SOL     OW89773  10.932   9.055  13.226
62645SOL    HW189774  10.869   9.128  13.227
62645SOL    HW289775  10.883   8.981  13.261
62646SOL     OW89776  13.581   3.502  10.199
62646SOL    HW189777  13.537   3.543  10.125
62646SOL    HW289778  13.594   3.411  10.171
62647SOL     OW89779  13.495   6.150   3.878
62647SOL    HW189780  13.485   6.063   3.838
62647SOL    HW289781  13.574   6.143   3.931
62648SOL     OW89782   0.278   3.604  14.021
62648SOL    HW189783   0.299   3.513  14.001
62648SOL    HW289784   0.362   3.643  14.045
62649SOL     OW89785  10.287   2.026   5.776
62649SOL    HW189786  10.291   2.060   5.687
62649SOL    HW289787  10.375   2.042   5.811
62650SOL     OW89788   5.979   2.889   8.860
62650SOL    HW189789   5.950   2.814   8.913
62650SOL    HW289790   6.064   2.912   8.895
62651SOL     OW89791   2.431  12.680   7.333
62651SOL    HW189792   2.351  12.658   7.286
62651SOL    HW289793   2.478  12.597   7.340
62652SOL     OW89794   5.219   7.164  10.921
62652SOL    HW189795   5.277   7.227  10.879
62652SOL    HW289796   5.133   7.206  10.922
62653SOL     OW89797   9.386   9.310   3.347
62653SOL    HW189798   9.398   9.242   3.413
62653SOL    HW289799   9.425   9.273   3.267
62654SOL     OW89800  12.904  12.775   2.705
62654SOL    HW189801  12.812  12.790   2.681
62654SOL    HW289802  12.914  12.819   2.789
62655SOL     OW89803  14.036   0.452   5.480
62655SOL    HW189804  14.063   0.407   5.560
62655SOL    HW289805  14.062   0.393   5.409
62656SOL     OW89806   8.131   8.715   7.383
62656SOL    HW189807   8.130   8.803   7.346
62656SOL    HW289808   8.093   8.660   7.314
62657SOL     OW89809   6.654  12.447   9.296
62657SOL    HW189810   6.748  12.455   9.281
62657SOL    HW289811   6.625  12.383   9.231
62658SOL     OW89812  11.568   0.899   8.185
62658SOL    HW189813  11.650   0.866   8.220
62658SOL    HW289814  11.532   0.826   8.134
62659SOL     OW89815  11.793   8.559  14.029
62659SOL    HW189816  11.877   8.521  14.002
62659SOL    HW289817  11.762   8.606  13.952
62660SOL     OW89818   6.953   1.646   7.288
62660SOL    HW189819   6.915   1.732   7.304
62660SOL    HW289820   7.046   1.664   7.273
62661SOL     OW89821   7.351   9.811   1.084
62661SOL    HW189822   7.366   9.778   1.173
62661SOL    HW289823   7.344   9.732   1.030
62662SOL     OW89824  11.409   4.149  10.734
62662SOL    HW189825  11.353   4.217  10.772
62662SOL    HW289826  11.348   4.078  10.712
62663SOL     OW89827   2.385   5.365   6.274
62663SOL    HW189828   2.450   5.322   6.329
62663SOL    HW289829   2.358   5.298   6.212
62664SOL     OW89830   7.663  11.803   7.021
62664SOL    HW189831   7.637  11.823   7.111
62664SOL    HW289832   7.660  11.708   7.015
62665SOL     OW89833  10.529   5.806  11.306
62665SOL    HW189834  10.625   5.804  11.311
62665SOL    HW289835  10.510   5.853  11.225
62666SOL     OW89836   4.222  10.636  11.831
62666SOL    HW189837   4.283  10.618  11.759
62666SOL    HW289838   4.222  10.732  11.839
62667SOL     OW89839  13.640  14.091  13.290
62667SOL    HW189840  13.658  14.126  13.377
62667SOL    HW289841  13.682  14.152  13.230
62668SOL     OW89842  14.343   3.800   4.863
62668SOL    HW189843  14.260   3.770   4.825
62668SOL    HW289844  14.391   3.836   4.789
62669SOL     OW89845   6.901  12.009   0.144
62669SOL    HW189846   6.809  12.012   0.168
62669SOL    HW289847   6.901  12.017   0.048
62670SOL     OW89848  12.555   7.817   7.847
62670SOL    HW189849  12.579   7.864   7.927
62670SOL    HW289850  12.471   7.775   7.867
62671SOL     OW89851   2.106  14.220  11.223
62671SOL    HW189852   2.011  14.228  11.234
62671SOL    HW289853   2.136  14.173  11.301
62672SOL     OW89854  11.949   7.141   2.615
62672SOL    HW189855  11.983   7.052   2.618
62672SOL    HW289856  11.925   7.161   2.706
62673SOL     OW89857  10.271  13.156   7.406
62673SOL    HW189858  10.186  13.111   7.409
62673SOL    HW289859  10.333  13.089   7.376
62674SOL     OW89860  12.529   0.389   1.375
62674SOL    HW189861  12.542   0.337   1.296
62674SOL    HW289862  12.617   0.404   1.409
62675SOL     OW89863   8.159  12.061   5.006
62675SOL    HW189864   8.064  12.071   5.009
62675SOL    HW289865   8.176  12.032   4.916
62676SOL     OW89866  13.238   8.481   2.857
62676SOL    HW189867  13.171   8.480   2.789
62676SOL    HW289868  13.221   8.562   2.906
62677SOL     OW89869  14.245   7.916  14.190
62677SOL    HW189870  14.277   7.933  14.278
62677SOL    HW289871  14.324   7.915  14.136
62678SOL     OW89872   1.300  11.852   5.301
62678SOL    HW189873   1.224  11.810   5.262
62678SOL    HW289874   1.266  11.896   5.379
62679SOL     OW89875  11.256   8.267  12.519
62679SOL    HW189876  11.176   8.255  12.467
62679SOL    HW289877  11.237   8.341  12.576
62680SOL     OW89878   8.484   8.938  13.693
62680SOL    HW189879   8.458   8.855  13.654
62680SOL    HW289880   8.526   8.987  13.622
62681SOL     OW89881   2.608  14.566   2.939
62681SOL    HW189882   2.602  14.488   2.883
62681SOL    HW289883   2.699  14.594   2.931
62682SOL     OW89884  12.173  11.783   7.433
62682SOL    HW189885  12.181  11.716   7.366
62682SOL    HW289886  12.080  11.787   7.454
62683SOL     OW89887  12.870   6.532   1.116
62683SOL    HW189888  12.860   6.468   1.045
62683SOL    HW289889  12.911   6.483   1.187
62684SOL     OW89890   0.692   8.156  12.902
62684SOL    HW189891   0.707   8.250  12.916
62684SOL    HW289892   0.779   8.116  12.912
62685SOL     OW89893  10.588   3.756   2.155
62685SOL    HW189894  10.556   3.786   2.240
62685SOL    HW289895  10.672   3.715   2.174
62686SOL     OW89896  11.698  14.575   3.856
62686SOL    HW189897  11.753  14.548   3.930
62686SOL    HW289898  11.646  14.497   3.837
62687SOL     OW89899   6.492   9.872   0.123
62687SOL    HW189900   6.576   9.854   0.165
62687SOL    HW289901   6.512   9.938   0.057
62688SOL     OW89902   7.655   7.573  13.060
62688SOL    HW189903   7.671   7.499  13.119
62688SOL    HW289904   7.682   7.541  12.974
62689SOL     OW89905   1.664  11.505  14.315
62689SOL    HW189906   1.760  11.503  14.321
62689SOL    HW289907   1.635  11.443  14.383
62690SOL     OW89908   6.279   3.856   7.712
62690SOL    HW189909   6.294   3.840   7.618
62690SOL    HW289910   6.189   3.827   7.726
62691SOL     OW89911  13.870   8.172   2.494
62691SOL    HW189912  13.914   8.192   2.411
62691SOL    HW289913  13.867   8.255   2.540
62692SOL     OW89914  11.826   8.007   3.618
62692SOL    HW189915  11.781   8.051   3.690
62692SOL    HW289916  11.756   7.985   3.556
62693SOL     OW89917   9.210  10.050   7.868
62693SOL    HW189918   9.218   9.957   7.843
62693SOL    HW289919   9.117  10.069   7.860
62694SOL     OW89920  10.655  11.524   4.991
62694SOL    HW189921  10.635  11.578   4.915
62694SOL    HW289922  10.575  11.527   5.044
62695SOL     OW89923   0.802   5.121   2.611
62695SOL    HW189924   0.743   5.074   2.670
62695SOL    HW289925   0.828   5.199   2.660
62696SOL     OW89926   8.902  12.038   7.184
62696SOL    HW189927   8.942  12.119   7.154
62696SOL    HW289928   8.899  11.982   7.107
62697SOL     OW89929   9.886  13.935  12.738
62697SOL    HW189930   9.857  14.016  12.780
62697SOL    HW289931   9.850  13.940  12.649
62698SOL     OW89932   3.293  13.093   2.389
62698SOL    HW189933   3.283  13.000   2.406
62698SOL    HW289934   3.262  13.105   2.299
62699SOL     OW89935   6.641  14.321   6.318
62699SOL    HW189936   6.697  14.244   6.324
62699SOL    HW289937   6.701  14.394   6.303
62700SOL     OW89938   9.984   6.677   8.194
62700SOL    HW189939   9.999   6.585   8.172
62700SOL    HW289940  10.016   6.686   8.283
62701SOL     OW89941   2.398   6.156   9.897
62701SOL    HW189942   2.393   6.214   9.973
62701SOL    HW289943   2.307   6.129   9.882
62702SOL     OW89944  10.538  10.277   7.647
62702SOL    HW189945  10.560  10.343   7.712
62702SOL    HW289946  10.566  10.194   7.687
62703SOL     OW89947   6.046   6.809   4.767
62703SOL    HW189948   5.998   6.846   4.841
62703SOL    HW289949   6.097   6.883   4.733
62704SOL     OW89950  12.331  11.436   3.042
62704SOL    HW189951  12.348  11.344   3.064
62704SOL    HW289952  12.343  11.440   2.947
62705SOL     OW89953   4.074   5.126  14.298
62705SOL    HW189954   4.049   5.098  14.386
62705SOL    HW289955   3.993   5.118  14.247
62706SOL     OW89956  13.677   3.446   4.336
62706SOL    HW189957  13.694   3.509   4.267
62706SOL    HW289958  13.590   3.411   4.316
62707SOL     OW89959   4.969  12.207   0.762
62707SOL    HW189960   5.031  12.202   0.689
62707SOL    HW289961   4.889  12.166   0.729
62708SOL     OW89962  13.508  12.581   3.585
62708SOL    HW189963  13.519  12.641   3.658
62708SOL    HW289964  13.553  12.501   3.612
62709SOL     OW89965  12.399   0.358   8.807
62709SOL    HW189966  12.487   0.344   8.842
62709SOL    HW289967  12.341   0.315   8.870
62710SOL     OW89968   1.963   9.259   4.995
62710SOL    HW189969   1.899   9.211   4.943
62710SOL    HW289970   2.006   9.192   5.048
62711SOL     OW89971   8.757   0.756   0.774
62711SOL    HW189972   8.769   0.850   0.770
62711SOL    HW289973   8.777   0.733   0.865
62712SOL     OW89974   0.406  10.025  11.647
62712SOL    HW189975   0.376   9.938  11.672
62712SOL    HW289976   0.339  10.085  11.682
62713SOL     OW89977   4.550   1.963   0.017
62713SOL    HW189978   4.526   1.878  14.861
62713SOL    HW289979   4.602   1.941   0.094
62714SOL     OW89980  13.731   8.240   6.746
62714SOL    HW189981  13.694   8.263   6.831
62714SOL    HW289982  13.805   8.300   6.735
62715SOL     OW89983   4.525   1.193  12.222
62715SOL    HW189984   4.513   1.231  12.135
62715SOL    HW289985   4.455   1.232  12.275
62716SOL     OW89986  10.977   6.552  11.973
62716SOL    HW189987  10.961   6.511  12.058
62716SOL    HW289988  10.987   6.645  11.993
62717SOL     OW89989   0.435  11.925  10.681
62717SOL    HW189990   0.372  11.996  10.666
62717SOL    HW289991   0.396  11.873  10.751
62718SOL     OW89992  14.358  10.386  10.138
62718SOL    HW189993  14.374  10.432  10.220
62718SOL    HW289994  14.326  10.453  10.078
62719SOL     OW89995   6.140  10.299   6.730
62719SOL    HW189996   6.126  10.243   6.652
62719SOL    HW289997   6.129  10.239   6.804
62720SOL     OW89998   0.099   0.928   0.396
62720SOL    HW189999   0.086   0.928   0.301
62720SOL    HW290000   0.023   0.881   0.430
62721SOL     OW90001   2.171   5.653   7.197
62721SOL    HW190002   2.178   5.748   7.194
62721SOL    HW290003   2.135   5.629   7.112
62722SOL     OW90004   5.691   4.761   3.580
62722SOL    HW190005   5.598   4.778   3.561
62722SOL    HW290006   5.736   4.839   3.549
62723SOL     OW90007  11.639   1.912  10.355
62723SOL    HW190008  11.726   1.919  10.314
62723SOL    HW290009  11.650   1.950  10.442
62724SOL     OW90010  10.453   8.824  12.323
62724SOL    HW190011  10.450   8.731  12.305
62724SOL    HW290012  10.378   8.840  12.381
62725SOL     OW90013  10.176   2.436   6.760
62725SOL    HW190014  10.240   2.424   6.690
62725SOL    HW290015  10.224   2.417   6.840
62726SOL     OW90016   5.748   2.079   3.765
62726SOL    HW190017   5.834   2.038   3.771
62726SOL    HW290018   5.689   2.018   3.809
62727SOL     OW90019   1.511   1.623   4.916
62727SOL    HW190020   1.572   1.585   4.853
62727SOL    HW290021   1.433   1.644   4.864
62728SOL     OW90022   7.464  10.617  10.012
62728SOL    HW190023   7.443  10.605  10.105
62728SOL    HW290024   7.484  10.528   9.981
62729SOL     OW90025  13.066   5.511   7.851
62729SOL    HW190026  13.144   5.458   7.834
62729SOL    HW290027  13.083   5.594   7.807
62730SOL     OW90028  13.327  11.476   6.707
62730SOL    HW190029  13.403  11.526   6.738
62730SOL    HW290030  13.272  11.541   6.663
62731SOL     OW90031  13.000   8.283  14.294
62731SOL    HW190032  12.906   8.282  14.316
62731SOL    HW290033  13.034   8.204  14.335
62732SOL     OW90034   1.859   7.950   3.454
62732SOL    HW190035   1.772   7.989   3.443
62732SOL    HW290036   1.918   8.026   3.463
62733SOL     OW90037   8.644  10.482   9.208
62733SOL    HW190038   8.693  10.553   9.166
62733SOL    HW290039   8.659  10.406   9.152
62734SOL     OW90040   8.273   5.717  12.620
62734SOL    HW190041   8.270   5.744  12.528
62734SOL    HW290042   8.364   5.694  12.635
62735SOL     OW90043   9.264   8.115   8.109
62735SOL    HW190044   9.225   8.157   8.033
62735SOL    HW290045   9.297   8.032   8.076
62736SOL     OW90046   6.233  14.259   1.043
62736SOL    HW190047   6.264  14.347   1.065
62736SOL    HW290048   6.310  14.204   1.052
62737SOL     OW90049   8.267  10.157   6.697
62737SOL    HW190050   8.348  10.174   6.649
62737SOL    HW290051   8.229  10.080   6.653
62738SOL     OW90052   6.300  10.397   4.550
62738SOL    HW190053   6.229  10.399   4.613
62738SOL    HW290054   6.269  10.447   4.475
62739SOL     OW90055  11.999  13.587  11.013
62739SOL    HW190056  12.028  13.525  11.079
62739SOL    HW290057  11.906  13.569  11.001
62740SOL     OW90058  10.582   0.612  11.099
62740SOL    HW190059  10.652   0.650  11.152
62740SOL    HW290060  10.565   0.678  11.031
62741SOL     OW90061   6.692  12.527   1.936
62741SOL    HW190062   6.734  12.594   1.990
62741SOL    HW290063   6.653  12.466   1.998
62742SOL     OW90064   8.480  14.398   3.485
62742SOL    HW190065   8.531  14.337   3.431
62742SOL    HW290066   8.515  14.484   3.462
62743SOL     OW90067  13.039  12.874   8.433
62743SOL    HW190068  13.035  12.932   8.357
62743SOL    HW290069  13.108  12.911   8.488
62744SOL     OW90070   1.873   4.124   2.832
62744SOL    HW190071   1.937   4.121   2.902
62744SOL    HW290072   1.914   4.177   2.764
62745SOL     OW90073   6.308   5.312   2.656
62745SOL    HW190074   6.321   5.303   2.562
62745SOL    HW290075   6.220   5.349   2.665
62746SOL     OW90076  13.590  10.961  10.444
62746SOL    HW190077  13.604  10.895  10.376
62746SOL    HW290078  13.656  10.942  10.510
62747SOL     OW90079   5.425   2.299   1.987
62747SOL    HW190080   5.407   2.309   1.893
62747SOL    HW290081   5.361   2.356   2.029
62748SOL     OW90082  13.029  14.649   9.282
62748SOL    HW190083  12.998  14.559   9.271
62748SOL    HW290084  13.121  14.647   9.255
62749SOL     OW90085   5.893  12.087   9.689
62749SOL    HW190086   5.910  12.156   9.753
62749SOL    HW290087   5.974  12.083   9.637
62750SOL     OW90088   0.031  13.571   7.388
62750SOL    HW190089   0.113  13.541   7.425
62750SOL    HW290090   0.047  13.574   7.293
62751SOL     OW90091  13.091   1.351   0.335
62751SOL    HW190092  13.097   1.315   0.423
62751SOL    HW290093  13.120   1.280   0.277
62752SOL     OW90094   7.266   1.631  12.332
62752SOL    HW190095   7.181   1.674  12.341
62752SOL    HW290096   7.310   1.645  12.416
62753SOL     OW90097   5.400   3.393   9.398
62753SOL    HW190098   5.351   3.472   9.374
62753SOL    HW290099   5.488   3.424   9.416
62754SOL     OW90100  11.866   7.766  12.414
62754SOL    HW190101  11.923   7.830  12.372
62754SOL    HW290102  11.785   7.769  12.363
62755SOL     OW90103   1.717   9.456   0.730
62755SOL    HW190104   1.662   9.425   0.802
62755SOL    HW290105   1.770   9.525   0.768
62756SOL     OW90106   5.373  12.430   3.888
62756SOL    HW190107   5.371  12.384   3.804
62756SOL    HW290108   5.411  12.516   3.869
62757SOL     OW90109   5.135   4.852   7.892
62757SOL    HW190110   5.172   4.781   7.840
62757SOL    HW290111   5.047   4.865   7.855
62758SOL     OW90112   7.689  12.233   8.974
62758SOL    HW190113   7.756  12.225   9.042
62758SOL    HW290114   7.732  12.202   8.894
62759SOL     OW90115  14.381   5.425   8.978
62759SOL    HW190116  14.292   5.441   8.947
62759SOL    HW290117  14.434   5.493   8.936
62760SOL     OW90118  13.297   3.486  11.151
62760SOL    HW190119  13.383   3.458  11.183
62760SOL    HW290120  13.308   3.579  11.133
62761SOL     OW90121  14.464  13.347  11.573
62761SOL    HW190122  14.397  13.369  11.638
62761SOL    HW290123  14.467  13.424  11.516
62762SOL     OW90124   1.175   8.792   8.374
62762SOL    HW190125   1.250   8.849   8.393
62762SOL    HW290126   1.157   8.806   8.281
62763SOL     OW90127   0.610   9.257  13.096
62763SOL    HW190128   0.577   9.338  13.056
62763SOL    HW290129   0.652   9.210  13.023
62764SOL     OW90130   4.487   5.162  11.224
62764SOL    HW190131   4.549   5.172  11.296
62764SOL    HW290132   4.539   5.125  11.152
62765SOL     OW90133  12.626  11.873   6.323
62765SOL    HW190134  12.539  11.886   6.361
62765SOL    HW290135  12.686  11.913   6.385
62766SOL     OW90136   6.609   3.873   0.677
62766SOL    HW190137   6.653   3.947   0.720
62766SOL    HW290138   6.678   3.809   0.661
62767SOL     OW90139   0.107   4.900   8.404
62767SOL    HW190140   0.090   4.960   8.477
62767SOL    HW290141   0.097   4.813   8.442
62768SOL     OW90142   8.136   4.878   8.613
62768SOL    HW190143   8.077   4.817   8.658
62768SOL    HW290144   8.185   4.823   8.552
62769SOL     OW90145   1.570  11.089  14.705
62769SOL    HW190146   1.589  11.182  14.711
62769SOL    HW290147   1.479  11.081  14.733
62770SOL     OW90148   7.369  11.498  11.986
62770SOL    HW190149   7.307  11.535  11.924
62770SOL    HW290150   7.315  11.454  12.052
62771SOL     OW90151   6.727   8.162   8.676
62771SOL    HW190152   6.736   8.066   8.673
62771SOL    HW290153   6.635   8.177   8.698
62772SOL     OW90154   4.888  10.464   4.190
62772SOL    HW190155   4.889  10.505   4.276
62772SOL    HW290156   4.832  10.520   4.137
62773SOL     OW90157   6.303  11.675   2.897
62773SOL    HW190158   6.321  11.581   2.900
62773SOL    HW290159   6.357  11.712   2.967
62774SOL     OW90160   0.537  10.462   7.497
62774SOL    HW190161   0.628  10.449   7.522
62774SOL    HW290162   0.522  10.556   7.508
62775SOL     OW90163   2.176   0.143   1.416
62775SOL    HW190164   2.100   0.098   1.453
62775SOL    HW290165   2.138   0.216   1.366
62776SOL     OW90166  10.475   9.782   0.406
62776SOL    HW190167  10.487   9.792   0.312
62776SOL    HW290168  10.403   9.720   0.415
62777SOL     OW90169   0.637   8.603   7.000
62777SOL    HW190170   0.565   8.608   6.937
62777SOL    HW290171   0.615   8.528   7.055
62778SOL     OW90172  12.013  10.193   6.886
62778SOL    HW190173  11.977  10.177   6.973
62778SOL    HW290174  12.039  10.106   6.855
62779SOL     OW90175   2.383   1.727   4.645
62779SOL    HW190176   2.402   1.641   4.681
62779SOL    HW290177   2.288   1.737   4.653
62780SOL     OW90178  13.113  10.365   8.380
62780SOL    HW190179  13.136  10.432   8.316
62780SOL    HW290180  13.196  10.335   8.416
62781SOL     OW90181   1.234   9.113   2.374
62781SOL    HW190182   1.237   9.019   2.393
62781SOL    HW290183   1.188   9.119   2.290
62782SOL     OW90184   7.874   2.736   1.928
62782SOL    HW190185   7.818   2.813   1.921
62782SOL    HW290186   7.963   2.770   1.920
62783SOL     OW90187   9.815   2.699   3.882
62783SOL    HW190188   9.824   2.760   3.956
62783SOL    HW290189   9.894   2.646   3.885
62784SOL     OW90190   9.979  10.177   9.824
62784SOL    HW190191   9.923  10.130   9.762
62784SOL    HW290192  10.002  10.112   9.891
62785SOL     OW90193  12.675  13.000   0.586
62785SOL    HW190194  12.728  13.074   0.556
62785SOL    HW290195  12.720  12.923   0.553
62786SOL     OW90196   7.430   9.395  12.756
62786SOL    HW190197   7.440   9.326  12.691
62786SOL    HW290198   7.499   9.377  12.821
62787SOL     OW90199  10.850  10.745   6.636
62787SOL    HW190200  10.839  10.804   6.561
62787SOL    HW290201  10.944  10.739   6.649
62788SOL     OW90202   0.202   2.735   0.745
62788SOL    HW190203   0.197   2.817   0.795
62788SOL    HW290204   0.247   2.759   0.664
62789SOL     OW90205  10.023  12.802   0.277
62789SOL    HW190206  10.105  12.846   0.256
62789SOL    HW290207   9.979  12.862   0.338
62790SOL     OW90208  14.219  11.779   9.947
62790SOL    HW190209  14.181  11.797   9.861
62790SOL    HW290210  14.169  11.834  10.007
62791SOL     OW90211   4.515   1.173   4.630
62791SOL    HW190212   4.542   1.100   4.576
62791SOL    HW290213   4.578   1.243   4.611
62792SOL     OW90214  10.991   8.698   6.068
62792SOL    HW190215  10.898   8.716   6.050
62792SOL    HW290216  11.025   8.664   5.985
62793SOL     OW90217   1.393  12.873   6.934
62793SOL    HW190218   1.446  12.867   7.013
62793SOL    HW290219   1.406  12.789   6.890
62794SOL     OW90220  11.186   7.085  10.784
62794SOL    HW190221  11.191   7.064  10.691
62794SOL    HW290222  11.096   7.062  10.810
62795SOL     OW90223   5.386  10.922   9.098
62795SOL    HW190224   5.373  10.862   9.026
62795SOL    HW290225   5.406  10.866   9.173
62796SOL     OW90226  13.846   1.131   0.547
62796SOL    HW190227  13.873   1.049   0.507
62796SOL    HW290228  13.776   1.164   0.490
62797SOL     OW90229  14.018   1.175  11.352
62797SOL    HW190230  13.956   1.222  11.297
62797SOL    HW290231  13.966   1.108  11.396
62798SOL     OW90232   5.647   9.037   6.425
62798SOL    HW190233   5.567   8.986   6.430
62798SOL    HW290234   5.618   9.127   6.414
62799SOL     OW90235   5.281   7.188   7.836
62799SOL    HW190236   5.197   7.227   7.860
62799SOL    HW290237   5.345   7.231   7.893
62800SOL     OW90238  14.306  11.947   5.918
62800SOL    HW190239  14.255  11.971   5.996
62800SOL    HW290240  14.397  11.954   5.946
62801SOL     OW90241  10.574   5.128   9.495
62801SOL    HW190242  10.508   5.058   9.500
62801SOL    HW290243  10.599   5.144   9.586
62802SOL     OW90244  11.216   1.204   4.819
62802SOL    HW190245  11.295   1.150   4.821
62802SOL    HW290246  11.215   1.249   4.903
62803SOL     OW90247   0.037   2.125   2.359
62803SOL    HW190248   0.014   2.071   2.434
62803SOL    HW290249   0.129   2.147   2.372
62804SOL     OW90250   9.233  14.762  12.351
62804SOL    HW190251   9.156  14.794  12.304
62804SOL    HW290252   9.299  14.747  12.284
62805SOL     OW90253   2.488  12.171  10.779
62805SOL    HW190254   2.425  12.132  10.719
62805SOL    HW290255   2.503  12.259  10.745
62806SOL     OW90256   5.941   7.553  12.248
62806SOL    HW190257   5.913   7.462  12.253
62806SOL    HW290258   5.869   7.602  12.289
62807SOL     OW90259   2.142   8.865   1.738
62807SOL    HW190260   2.222   8.844   1.689
62807SOL    HW290261   2.164   8.945   1.786
62808SOL     OW90262   6.710   0.583  13.370
62808SOL    HW190263   6.797   0.545  13.355
62808SOL    HW290264   6.653   0.537  13.309
62809SOL     OW90265   6.954   0.988   9.595
62809SOL    HW190266   6.981   1.006   9.505
62809SOL    HW290267   7.032   1.003   9.647
62810SOL     OW90268  13.318  14.193  11.061
62810SOL    HW190269  13.413  14.192  11.050
62810SOL    HW290270  13.305  14.220  11.151
62811SOL     OW90271  10.418   3.576   4.105
62811SOL    HW190272  10.329   3.559   4.073
62811SOL    HW290273  10.473   3.571   4.027
62812SOL     OW90274   6.199  10.144   7.563
62812SOL    HW190275   6.155  10.060   7.580
62812SOL    HW290276   6.142  10.209   7.603
62813SOL     OW90277   5.676   4.053  10.697
62813SOL    HW190278   5.723   4.072  10.778
62813SOL    HW290279   5.704   4.121  10.636
62814SOL     OW90280   9.275  12.483   1.405
62814SOL    HW190281   9.308  12.440   1.325
62814SOL    HW290282   9.296  12.421   1.475
62815SOL     OW90283  11.436   6.583   8.453
62815SOL    HW190284  11.399   6.609   8.537
62815SOL    HW290285  11.448   6.666   8.406
62816SOL     OW90286  13.668  14.415   9.670
62816SOL    HW190287  13.627  14.334   9.641
62816SOL    HW290288  13.755  14.389   9.699
62817SOL     OW90289   1.841  10.012  13.723
62817SOL    HW190290   1.762   9.961  13.707
62817SOL    HW290291   1.822  10.063  13.802
62818SOL     OW90292   5.170   9.038   4.610
62818SOL    HW190293   5.251   9.035   4.559
62818SOL    HW290294   5.104   9.002   4.551
62819SOL     OW90295   8.227  13.780   5.965
62819SOL    HW190296   8.199  13.853   5.910
62819SOL    HW290297   8.174  13.788   6.044
62820SOL     OW90298  12.677   2.825  14.020
62820SOL    HW190299  12.635   2.855  14.100
62820SOL    HW290300  12.747   2.766  14.050
62821SOL     OW90301  11.245   7.876   7.830
62821SOL    HW190302  11.330   7.860   7.872
62821SOL    HW290303  11.190   7.803   7.859
62822SOL     OW90304   7.347   0.863  11.047
62822SOL    HW190305   7.262   0.907  11.053
62822SOL    HW290306   7.378   0.857  11.137
62823SOL     OW90307   5.415   0.558   0.339
62823SOL    HW190308   5.500   0.591   0.308
62823SOL    HW290309   5.398   0.481   0.284
62824SOL     OW90310  13.139   1.111  12.949
62824SOL    HW190311  13.234   1.118  12.952
62824SOL    HW290312  13.121   1.021  12.978
62825SOL     OW90313   2.601  11.862   1.039
62825SOL    HW190314   2.535  11.932   1.043
62825SOL    HW290315   2.553  11.786   1.006
62826SOL     OW90316   2.236   5.947  12.219
62826SOL    HW190317   2.272   6.002  12.289
62826SOL    HW290318   2.145   5.933  12.244
62827SOL     OW90319   4.364  11.036   2.366
62827SOL    HW190320   4.379  11.032   2.272
62827SOL    HW290321   4.429  10.976   2.404
62828SOL     OW90322  13.823   2.761  14.381
62828SOL    HW190323  13.840   2.736  14.472
62828SOL    HW290324  13.867   2.694  14.329
62829SOL     OW90325   3.665  12.769   1.893
62829SOL    HW190326   3.600  12.753   1.825
62829SOL    HW290327   3.683  12.863   1.888
62830SOL     OW90328   0.669   2.347  14.764
62830SOL    HW190329   0.580   2.364  14.733
62830SOL    HW290330   0.680   2.407  14.838
62831SOL     OW90331   9.611   9.217   0.723
62831SOL    HW190332   9.593   9.184   0.635
62831SOL    HW290333   9.702   9.246   0.720
62832SOL     OW90334  12.429   0.582   9.438
62832SOL    HW190335  12.334   0.583   9.422
62832SOL    HW290336  12.465   0.539   9.361
62833SOL     OW90337   3.912   4.467  12.905
62833SOL    HW190338   3.818   4.463  12.926
62833SOL    HW290339   3.941   4.376  12.911
62834SOL     OW90340  13.751   2.555  12.937
62834SOL    HW190341  13.673   2.501  12.953
62834SOL    HW290342  13.824   2.495  12.950
62835SOL     OW90343   1.482   8.300   2.348
62835SOL    HW190344   1.392   8.291   2.379
62835SOL    HW290345   1.523   8.360   2.412
62836SOL     OW90346   8.870   0.627  11.557
62836SOL    HW190347   8.781   0.640  11.587
62836SOL    HW290348   8.918   0.596  11.634
62837SOL     OW90349  11.476   8.744   2.175
62837SOL    HW190350  11.559   8.702   2.197
62837SOL    HW290351  11.412   8.673   2.176
62838SOL     OW90352   3.781  10.152   3.901
62838SOL    HW190353   3.836  10.136   3.824
62838SOL    HW290354   3.771  10.247   3.903
62839SOL     OW90355  12.293  12.585   9.547
62839SOL    HW190356  12.321  12.631   9.626
62839SOL    HW290357  12.276  12.654   9.483
62840SOL     OW90358   8.680  14.699  12.383
62840SOL    HW190359   8.659  14.639  12.454
62840SOL    HW290360   8.737  14.765  12.423
62841SOL     OW90361   9.994   3.297   7.735
62841SOL    HW190362  10.058   3.245   7.687
62841SOL    HW290363   9.962   3.238   7.803
62842SOL     OW90364  14.779   8.521   3.272
62842SOL    HW190365  14.701   8.530   3.218
62842SOL    HW290366  14.778   8.597   3.330
62843SOL     OW90367   2.743   5.690  10.640
62843SOL    HW190368   2.793   5.637  10.702
62843SOL    HW290369   2.655   5.693  10.676
62844SOL     OW90370   6.911   3.376   3.241
62844SOL    HW190371   6.870   3.331   3.315
62844SOL    HW290372   7.002   3.388   3.268
62845SOL     OW90373   2.906   6.375   3.938
62845SOL    HW190374   2.942   6.463   3.954
62845SOL    HW290375   2.898   6.336   4.025
62846SOL     OW90376   5.152   5.524   1.042
62846SOL    HW190377   5.109   5.445   1.012
62846SOL    HW290378   5.167   5.509   1.135
62847SOL     OW90379  12.587  10.900   4.821
62847SOL    HW190380  12.648  10.952   4.873
62847SOL    HW290381  12.500  10.928   4.850
62848SOL     OW90382   4.491  12.161   9.406
62848SOL    HW190383   4.492  12.173   9.501
62848SOL    HW290384   4.574  12.200   9.376
62849SOL     OW90385   0.152   1.573  11.930
62849SOL    HW190386   0.109   1.658  11.941
62849SOL    HW290387   0.244   1.595  11.916
62850SOL     OW90388   8.959  10.299   0.005
62850SOL    HW190389   8.897  10.363   0.042
62850SOL    HW290390   8.960  10.319  14.793
62851SOL     OW90391   9.298   6.357  14.276
62851SOL    HW190392   9.214   6.312  14.286
62851SOL    HW290393   9.332   6.363  14.365
62852SOL     OW90394   7.880   0.123   1.024
62852SOL    HW190395   7.869   0.171   1.106
62852SOL    HW290396   7.804   0.148   0.971
62853SOL     OW90397  13.382   1.111  11.724
62853SOL    HW190398  13.336   1.122  11.806
62853SOL    HW290399  13.317   1.074  11.664
62854SOL     OW90400  12.721   6.769   9.738
62854SOL    HW190401  12.628   6.783   9.720
62854SOL    HW290402  12.725   6.748   9.831
62855SOL     OW90403   0.710   8.615   2.725
62855SOL    HW190404   0.684   8.697   2.767
62855SOL    HW290405   0.638   8.555   2.743
62856SOL     OW90406   4.271  12.462  12.576
62856SOL    HW190407   4.298  12.399  12.643
62856SOL    HW290408   4.182  12.438  12.554
62857SOL     OW90409   9.775  11.973  10.957
62857SOL    HW190410   9.845  11.921  10.917
62857SOL    HW290411   9.821  12.043  11.004
62858SOL     OW90412   8.386  14.296  13.417
62858SOL    HW190413   8.337  14.218  13.390
62858SOL    HW290414   8.437  14.267  13.493
62859SOL     OW90415  12.331   6.905   0.303
62859SOL    HW190416  12.404   6.846   0.287
62859SOL    HW290417  12.336   6.924   0.397
62860SOL     OW90418   8.624   1.651  13.833
62860SOL    HW190419   8.627   1.745  13.848
62860SOL    HW290420   8.538   1.624  13.864
62861SOL     OW90421   3.289   4.818  13.567
62861SOL    HW190422   3.249   4.754  13.508
62861SOL    HW290423   3.234   4.896  13.558
62862SOL     OW90424  11.089  11.030   3.248
62862SOL    HW190425  11.083  11.069   3.161
62862SOL    HW290426  11.055  10.941   3.237
62863SOL     OW90427   4.502   3.525   6.222
62863SOL    HW190428   4.582   3.540   6.171
62863SOL    HW290429   4.498   3.599   6.283
62864SOL     OW90430   2.629  14.852   3.137
62864SOL    HW190431   2.587   0.043   3.183
62864SOL    HW290432   2.628  14.780   3.200
62865SOL     OW90433   3.650   3.937   6.941
62865SOL    HW190434   3.561   3.970   6.957
62865SOL    HW290435   3.677   3.979   6.860
62866SOL     OW90436   0.250   2.902  13.372
62866SOL    HW190437   0.319   2.931  13.312
62866SOL    HW290438   0.289   2.828  13.419
62867SOL     OW90439  12.857  11.977  12.886
62867SOL    HW190440  12.868  11.885  12.909
62867SOL    HW290441  12.767  11.982  12.853
62868SOL     OW90442   8.354   6.816   0.833
62868SOL    HW190443   8.325   6.825   0.742
62868SOL    HW290444   8.343   6.722   0.852
62869SOL     OW90445   4.186   3.419   1.925
62869SOL    HW190446   4.193   3.364   2.003
62869SOL    HW290447   4.180   3.508   1.959
62870SOL     OW90448  11.429  12.705  10.226
62870SOL    HW190449  11.427  12.707  10.130
62870SOL    HW290450  11.519  12.682  10.248
62871SOL     OW90451   4.551   5.975   9.959
62871SOL    HW190452   4.565   5.912  10.030
62871SOL    HW290453   4.574   6.060   9.997
62872SOL     OW90454   1.623  10.819   5.303
62872SOL    HW190455   1.646  10.756   5.235
62872SOL    HW290456   1.706  10.863   5.324
62873SOL     OW90457  12.287   0.086  11.902
62873SOL    HW190458  12.361   0.094  11.843
62873SOL    HW290459  12.221   0.145  11.867
62874SOL     OW90460   9.801  12.006   7.645
62874SOL    HW190461   9.861  11.938   7.616
62874SOL    HW290462   9.858  12.077   7.674
62875SOL     OW90463  11.953   4.452  14.785
62875SOL    HW190464  12.043   4.423  14.799
62875SOL    HW290465  11.922   4.401  14.710
62876SOL     OW90466   9.072  14.845  10.406
62876SOL    HW190467   9.106  14.756  10.390
62876SOL    HW290468   8.997  14.832  10.464
62877SOL     OW90469   7.970  13.052   4.110
62877SOL    HW190470   7.890  13.015   4.074
62877SOL    HW290471   7.961  13.146   4.096
62878SOL     OW90472   1.536   3.625   3.947
62878SOL    HW190473   1.613   3.633   3.891
62878SOL    HW290474   1.489   3.549   3.912
62879SOL     OW90475  11.410   0.566   5.308
62879SOL    HW190476  11.502   0.571   5.285
62879SOL    HW290477  11.401   0.484   5.356
62880SOL     OW90478   6.587   6.122  10.151
62880SOL    HW190479   6.506   6.151  10.109
62880SOL    HW290480   6.620   6.053  10.093
62881SOL     OW90481   8.841   6.624   7.199
62881SOL    HW190482   8.832   6.711   7.236
62881SOL    HW290483   8.814   6.634   7.108
62882SOL     OW90484  10.842   6.688   6.332
62882SOL    HW190485  10.908   6.742   6.376
62882SOL    HW290486  10.840   6.607   6.383
62883SOL     OW90487   4.470   6.453   1.681
62883SOL    HW190488   4.455   6.360   1.697
62883SOL    HW290489   4.439   6.467   1.591
62884SOL     OW90490   0.435  10.969  12.010
62884SOL    HW190491   0.468  10.923  11.932
62884SOL    HW290492   0.493  10.941  12.080
62885SOL     OW90493  14.841  10.525   5.765
62885SOL    HW190494  14.763  10.479   5.793
62885SOL    HW290495   0.007  10.460   5.712
62886SOL     OW90496   5.406   3.791   7.632
62886SOL    HW190497   5.440   3.772   7.545
62886SOL    HW290498   5.480   3.832   7.678
62887SOL     OW90499   7.092   8.350   5.017
62887SOL    HW190500   7.171   8.296   5.016
62887SOL    HW290501   7.075   8.365   5.110
62888SOL     OW90502   9.582  14.149  11.725
62888SOL    HW190503   9.660  14.169  11.776
62888SOL    HW290504   9.567  14.055  11.739
62889SOL     OW90505  14.475   4.242   3.376
62889SOL    HW190506  14.502   4.252   3.467
62889SOL    HW290507  14.381   4.256   3.376
62890SOL     OW90508   4.768  14.414   1.807
62890SOL    HW190509   4.811  14.339   1.764
62890SOL    HW290510   4.692  14.433   1.753
62891SOL     OW90511  10.613   3.250   2.667
62891SOL    HW190512  10.522   3.267   2.643
62891SOL    HW290513  10.664   3.293   2.597
62892SOL     OW90514   6.945   2.294   6.040
62892SOL    HW190515   6.869   2.295   5.980
62892SOL    HW290516   7.019   2.319   5.984
62893SOL     OW90517   9.391  11.505   1.967
62893SOL    HW190518   9.393  11.421   1.921
62893SOL    HW290519   9.479  11.541   1.955
62894SOL     OW90520   4.823  12.393   5.648
62894SOL    HW190521   4.741  12.437   5.626
62894SOL    HW290522   4.881  12.463   5.678
62895SOL     OW90523   1.672  11.810   6.012
62895SOL    HW190524   1.606  11.799   5.944
62895SOL    HW290525   1.733  11.874   5.975
62896SOL     OW90526  10.028  11.875   9.404
62896SOL    HW190527  10.025  11.966   9.378
62896SOL    HW290528  10.025  11.826   9.322
62897SOL     OW90529   1.066  14.815  13.619
62897SOL    HW190530   1.107  14.731  13.638
62897SOL    HW290531   1.089  14.832  13.527
62898SOL     OW90532   6.273   4.578   3.733
62898SOL    HW190533   6.183   4.584   3.764
62898SOL    HW290534   6.266   4.545   3.644
62899SOL     OW90535   1.262   6.150   5.099
62899SOL    HW190536   1.233   6.236   5.069
62899SOL    HW290537   1.357   6.154   5.097
62900SOL     OW90538   1.945   3.398  12.949
62900SOL    HW190539   1.979   3.417  12.861
62900SOL    HW290540   1.850   3.409  12.940
62901SOL     OW90541  11.173   2.555   6.334
62901SOL    HW190542  11.139   2.466   6.348
62901SOL    HW290543  11.122   2.589   6.261
62902SOL     OW90544  13.674  12.099   0.121
62902SOL    HW190545  13.674  12.186   0.082
62902SOL    HW290546  13.689  12.114   0.214
62903SOL     OW90547  13.506   1.357  11.792
62903SOL    HW190548  13.516   1.398  11.707
62903SOL    HW290549  13.491   1.264  11.773
62904SOL     OW90550   2.787   9.891  13.013
62904SOL    HW190551   2.850   9.832  13.053
62904SOL    HW290552   2.829   9.920  12.931
62905SOL     OW90553   1.727   2.042  11.612
62905SOL    HW190554   1.633   2.053  11.627
62905SOL    HW290555   1.736   1.951  11.582
62906SOL     OW90556  12.026  11.125  10.978
62906SOL    HW190557  12.027  11.157  11.068
62906SOL    HW290558  11.962  11.053  10.979
62907SOL     OW90559   1.308  13.101   9.222
62907SOL    HW190560   1.298  13.156   9.145
62907SOL    HW290561   1.291  13.012   9.191
62908SOL     OW90562  12.399   3.243  11.324
62908SOL    HW190563  12.486   3.279  11.339
62908SOL    HW290564  12.344   3.320  11.307
62909SOL     OW90565   6.319   1.704   9.180
62909SOL    HW190566   6.312   1.799   9.187
62909SOL    HW290567   6.238   1.677   9.137
62910SOL     OW90568   0.143   6.445   7.990
62910SOL    HW190569   0.233   6.464   7.965
62910SOL    HW290570   0.138   6.350   7.996
62911SOL     OW90571   0.615   8.367   9.854
62911SOL    HW190572   0.576   8.437   9.906
62911SOL    HW290573   0.540   8.312   9.828
62912SOL     OW90574   8.271  11.478   0.540
62912SOL    HW190575   8.285  11.563   0.498
62912SOL    HW290576   8.176  11.469   0.545
62913SOL     OW90577  11.539   6.280   1.422
62913SOL    HW190578  11.480   6.331   1.366
62913SOL    HW290579  11.598   6.236   1.361
62914SOL     OW90580   0.955   6.135   5.347
62914SOL    HW190581   0.957   6.228   5.369
62914SOL    HW290582   1.044   6.104   5.367
62915SOL     OW90583   7.613  12.921   7.909
62915SOL    HW190584   7.571  13.002   7.881
62915SOL    HW290585   7.545  12.874   7.958
62916SOL     OW90586   6.300   7.368   2.856
62916SOL    HW190587   6.219   7.419   2.860
62916SOL    HW290588   6.285   7.294   2.915
62917SOL     OW90589   4.122  12.322   7.648
62917SOL    HW190590   4.195  12.304   7.588
62917SOL    HW290591   4.164  12.355   7.727
62918SOL     OW90592  13.236  10.957   5.010
62918SOL    HW190593  13.260  10.865   5.004
62918SOL    HW290594  13.238  10.989   4.920
62919SOL     OW90595   0.153   7.483   9.636
62919SOL    HW190596   0.149   7.410   9.574
62919SOL    HW290597   0.131   7.560   9.584
62920SOL     OW90598  11.640   2.811   2.554
62920SOL    HW190599  11.646   2.724   2.592
62920SOL    HW290600  11.620   2.869   2.628
62921SOL     OW90601   3.004   7.223  12.273
62921SOL    HW190602   3.031   7.234  12.364
62921SOL    HW290603   2.909   7.234  12.274
62922SOL     OW90604   0.365  11.265   3.832
62922SOL    HW190605   0.376  11.358   3.854
62922SOL    HW290606   0.274  11.245   3.855
62923SOL     OW90607  10.155  12.405  10.997
62923SOL    HW190608  10.219  12.413  11.067
62923SOL    HW290609  10.141  12.494  10.966
62924SOL     OW90610  14.530   5.324  10.985
62924SOL    HW190611  14.513   5.268  11.061
62924SOL    HW290612  14.536   5.412  11.021
62925SOL     OW90613   4.744   9.015   3.533
62925SOL    HW190614   4.740   8.922   3.511
62925SOL    HW290615   4.789   9.018   3.618
62926SOL     OW90616  10.158   0.118   2.743
62926SOL    HW190617  10.219   0.172   2.792
62926SOL    HW290618  10.073   0.137   2.781
62927SOL     OW90619   0.457  13.889   8.845
62927SOL    HW190620   0.525  13.827   8.871
62927SOL    HW290621   0.421  13.920   8.928
62928SOL     OW90622   2.971  14.824   4.383
62928SOL    HW190623   2.990  14.881   4.308
62928SOL    HW290624   3.050  14.829   4.437
62929SOL     OW90625   9.656   7.749   2.541
62929SOL    HW190626   9.642   7.820   2.604
62929SOL    HW290627   9.707   7.684   2.590
62930SOL     OW90628   5.796   1.710   3.989
62930SOL    HW190629   5.729   1.690   3.925
62930SOL    HW290630   5.778   1.799   4.017
62931SOL     OW90631   6.932  11.548  12.800
62931SOL    HW190632   6.851  11.535  12.850
62931SOL    HW290633   6.997  11.572  12.866
62932SOL     OW90634  11.725   0.491   0.952
62932SOL    HW190635  11.740   0.416   1.009
62932SOL    HW290636  11.661   0.459   0.887
62933SOL     OW90637   2.902  14.651   0.498
62933SOL    HW190638   2.872  14.582   0.557
62933SOL    HW290639   2.841  14.723   0.512
62934SOL     OW90640  14.749   4.666  12.528
62934SOL    HW190641  14.834   4.681  12.486
62934SOL    HW290642  14.689   4.725  12.484
62935SOL     OW90643   5.772   2.958  12.405
62935SOL    HW190644   5.848   2.940  12.461
62935SOL    HW290645   5.797   2.925  12.319
62936SOL     OW90646  13.172   0.915  11.315
62936SOL    HW190647  13.118   0.915  11.394
62936SOL    HW290648  13.120   0.867  11.251
62937SOL     OW90649  12.064   5.054   6.975
62937SOL    HW190650  12.154   5.086   6.962
62937SOL    HW290651  12.067   4.964   6.943
62938SOL     OW90652   7.850   7.460   0.394
62938SOL    HW190653   7.911   7.468   0.467
62938SOL    HW290654   7.876   7.528   0.333
62939SOL     OW90655   6.725   5.422  11.776
62939SOL    HW190656   6.728   5.481  11.851
62939SOL    HW290657   6.678   5.345  11.807
62940SOL     OW90658  12.445  13.036   7.900
62940SOL    HW190659  12.508  13.105   7.923
62940SOL    HW290660  12.365  13.084   7.877
62941SOL     OW90661   0.658   6.574  14.701
62941SOL    HW190662   0.588   6.640  14.706
62941SOL    HW290663   0.739   6.626  14.691
62942SOL     OW90664   6.230  10.544  14.133
62942SOL    HW190665   6.264  10.463  14.170
62942SOL    HW290666   6.259  10.543  14.042
62943SOL     OW90667   3.423   2.239   2.867
62943SOL    HW190668   3.331   2.241   2.895
62943SOL    HW290669   3.456   2.327   2.885
62944SOL     OW90670  14.489   0.990   5.498
62944SOL    HW190671  14.433   1.025   5.429
62944SOL    HW290672  14.539   1.065   5.530
62945SOL     OW90673  12.010   8.232  14.253
62945SOL    HW190674  11.995   8.325  14.240
62945SOL    HW290675  11.992   8.192  14.168
62946SOL     OW90676  11.941   7.413   2.017
62946SOL    HW190677  12.017   7.445   2.065
62946SOL    HW290678  11.967   7.326   1.986
62947SOL     OW90679   0.807   8.174  14.168
62947SOL    HW190680   0.836   8.263  14.189
62947SOL    HW290681   0.802   8.129  14.253
62948SOL     OW90682   1.118   0.888  13.990
62948SOL    HW190683   1.081   0.948  14.054
62948SOL    HW290684   1.053   0.884  13.920
62949SOL     OW90685   3.283   0.106   3.903
62949SOL    HW190686   3.308   0.041   3.837
62949SOL    HW290687   3.316   0.189   3.868
62950SOL     OW90688   1.405   6.904   9.243
62950SOL    HW190689   1.315   6.875   9.252
62950SOL    HW290690   1.409   6.985   9.295
62951SOL     OW90691   6.117  13.101   0.671
62951SOL    HW190692   6.116  13.111   0.576
62951SOL    HW290693   6.119  13.006   0.685
62952SOL     OW90694   7.046  14.045  13.410
62952SOL    HW190695   6.982  14.106  13.446
62952SOL    HW290696   7.014  13.958  13.436
62953SOL     OW90697   6.229   2.010   9.911
62953SOL    HW190698   6.239   2.075   9.842
62953SOL    HW290699   6.205   2.060   9.989
62954SOL     OW90700  12.249   6.188   6.344
62954SOL    HW190701  12.248   6.093   6.356
62954SOL    HW290702  12.156   6.213   6.345
62955SOL     OW90703   2.743   5.537   6.213
62955SOL    HW190704   2.815   5.475   6.201
62955SOL    HW290705   2.783   5.623   6.204
62956SOL     OW90706   0.286   8.688  12.629
62956SOL    HW190707   0.263   8.620  12.565
62956SOL    HW290708   0.332   8.640  12.698
62957SOL     OW90709   1.696  14.207   0.754
62957SOL    HW190710   1.692  14.299   0.731
62957SOL    HW290711   1.688  14.206   0.850
62958SOL     OW90712  13.345   0.827   6.402
62958SOL    HW190713  13.367   0.744   6.446
62958SOL    HW290714  13.261   0.810   6.360
62959SOL     OW90715   3.816  11.600  11.105
62959SOL    HW190716   3.878  11.672  11.092
62959SOL    HW290717   3.872  11.522  11.106
62960SOL     OW90718   7.736   2.147   7.391
62960SOL    HW190719   7.766   2.106   7.310
62960SOL    HW290720   7.765   2.238   7.384
62961SOL     OW90721   0.058  12.852  10.698
62961SOL    HW190722   0.094  12.862  10.610
62961SOL    HW290723  14.877  12.924  10.707
62962SOL     OW90724   5.792   5.340  12.843
62962SOL    HW190725   5.790   5.246  12.824
62962SOL    HW290726   5.851   5.377  12.777
62963SOL     OW90727   3.676  10.068   0.144
62963SOL    HW190728   3.618  10.080   0.219
62963SOL    HW290729   3.756  10.115   0.168
62964SOL     OW90730   0.915   7.318   2.184
62964SOL    HW190731   0.937   7.411   2.175
62964SOL    HW290732   0.929   7.282   2.096
62965SOL     OW90733   6.140  13.312   5.917
62965SOL    HW190734   6.109  13.222   5.908
62965SOL    HW290735   6.091  13.361   5.852
62966SOL     OW90736   4.398   0.583   9.599
62966SOL    HW190737   4.355   0.552   9.520
62966SOL    HW290738   4.400   0.506   9.657
62967SOL     OW90739  14.217   3.551   0.601
62967SOL    HW190740  14.301   3.524   0.564
62967SOL    HW290741  14.198   3.486   0.669
62968SOL     OW90742   8.328  14.107   5.401
62968SOL    HW190743   8.422  14.111   5.419
62968SOL    HW290744   8.309  14.013   5.395
62969SOL     OW90745   4.962   5.411   6.353
62969SOL    HW190746   5.057   5.404   6.362
62969SOL    HW290747   4.930   5.322   6.364
62970SOL     OW90748   3.150  10.255  11.955
62970SOL    HW190749   3.214  10.311  11.998
62970SOL    HW290750   3.112  10.309  11.886
62971SOL     OW90751   8.249   9.494  11.511
62971SOL    HW190752   8.209   9.565  11.461
62971SOL    HW290753   8.331   9.531  11.544
62972SOL     OW90754  11.386  11.924   7.693
62972SOL    HW190755  11.354  12.009   7.725
62972SOL    HW290756  11.429  11.945   7.610
62973SOL     OW90757  11.825   1.137  10.237
62973SOL    HW190758  11.867   1.203  10.291
62973SOL    HW290759  11.886   1.122  10.165
62974SOL     OW90760   6.825   6.341  10.344
62974SOL    HW190761   6.909   6.387  10.344
62974SOL    HW290762   6.838   6.266  10.402
62975SOL     OW90763   3.874   5.226   8.716
62975SOL    HW190764   3.791   5.221   8.668
62975SOL    HW290765   3.866   5.306   8.768
62976SOL     OW90766   5.576  10.444   3.128
62976SOL    HW190767   5.501  10.397   3.164
62976SOL    HW290768   5.644  10.435   3.195
62977SOL     OW90769   1.154   6.466   2.144
62977SOL    HW190770   1.129   6.377   2.122
62977SOL    HW290771   1.073   6.516   2.140
62978SOL     OW90772  12.437   0.839   9.544
62978SOL    HW190773  12.440   0.750   9.509
62978SOL    HW290774  12.499   0.838   9.618
62979SOL     OW90775   1.461  14.433   9.630
62979SOL    HW190776   1.438  14.427   9.537
62979SOL    HW290777   1.547  14.475   9.630
62980SOL     OW90778   2.639  14.308   2.795
62980SOL    HW190779   2.553  14.287   2.831
62980SOL    HW290780   2.621  14.345   2.708
62981SOL     OW90781   9.291   0.734   6.223
62981SOL    HW190782   9.333   0.733   6.309
62981SOL    HW290783   9.362   0.722   6.160
62982SOL     OW90784   6.040   7.415   5.393
62982SOL    HW190785   6.134   7.429   5.388
62982SOL    HW290786   6.007   7.489   5.444
62983SOL     OW90787   2.662  14.256  10.283
62983SOL    HW190788   2.580  14.305  10.279
62983SOL    HW290789   2.730  14.324  10.285
62984SOL     OW90790   6.693   0.695   1.497
62984SOL    HW190791   6.633   0.648   1.440
62984SOL    HW290792   6.698   0.783   1.460
62985SOL     OW90793  12.909  12.646   8.029
62985SOL    HW190794  12.816  12.657   8.010
62985SOL    HW290795  12.912  12.631   8.123
62986SOL     OW90796   5.619  14.745   2.849
62986SOL    HW190797   5.692  14.793   2.889
62986SOL    HW290798   5.642  14.653   2.860
62987SOL     OW90799   6.559  11.475   9.112
62987SOL    HW190800   6.565  11.507   9.022
62987SOL    HW290801   6.498  11.536   9.155
62988SOL     OW90802  12.620  13.432   5.927
62988SOL    HW190803  12.686  13.470   5.868
62988SOL    HW290804  12.568  13.507   5.956
62989SOL     OW90805   4.025   1.509   3.617
62989SOL    HW190806   4.079   1.587   3.625
62989SOL    HW290807   3.958   1.533   3.553
62990SOL     OW90808  13.231   8.669   9.248
62990SOL    HW190809  13.180   8.590   9.262
62990SOL    HW290810  13.168   8.733   9.216
62991SOL     OW90811   0.758   1.666   0.198
62991SOL    HW190812   0.678   1.682   0.248
62991SOL    HW290813   0.753   1.573   0.175
62992SOL     OW90814   9.756   3.200   1.331
62992SOL    HW190815   9.809   3.273   1.299
62992SOL    HW290816   9.669   3.237   1.346
62993SOL     OW90817   8.391  13.159   9.099
62993SOL    HW190818   8.344  13.100   9.040
62993SOL    HW290819   8.325  13.219   9.132
62994SOL     OW90820   6.505   4.661   2.910
62994SOL    HW190821   6.526   4.578   2.867
62994SOL    HW290822   6.465   4.714   2.842
62995SOL     OW90823  10.888   1.706   7.028
62995SOL    HW190824  10.813   1.646   7.026
62995SOL    HW290825  10.926   1.693   7.114
62996SOL     OW90826   3.662   1.907   1.229
62996SOL    HW190827   3.733   1.893   1.167
62996SOL    HW290828   3.618   1.822   1.236
62997SOL     OW90829  10.456  11.998  14.753
62997SOL    HW190830  10.444  11.993  14.848
62997SOL    HW290831  10.426  11.912  14.722
62998SOL     OW90832  12.706   9.256   8.705
62998SOL    HW190833  12.756   9.287   8.780
62998SOL    HW290834  12.724   9.320   8.636
62999SOL     OW90835  11.765   9.279  10.996
62999SOL    HW190836  11.723   9.277  10.910
62999SOL    HW290837  11.780   9.372  11.013
63000SOL     OW90838   0.588   1.314   9.492
63000SOL    HW190839   0.563   1.281   9.579
63000SOL    HW290840   0.646   1.388   9.510
63001SOL     OW90841   7.083  14.793   5.707
63001SOL    HW190842   7.147  14.728   5.677
63001SOL    HW290843   7.112  14.875   5.667
63002SOL     OW90844  11.183   2.374   2.084
63002SOL    HW190845  11.241   2.357   2.010
63002SOL    HW290846  11.175   2.469   2.086
63003SOL     OW90847   2.157  11.740   0.876
63003SOL    HW190848   2.246  11.707   0.895
63003SOL    HW290849   2.171  11.824   0.834
63004SOL     OW90850   6.760  10.473   0.140
63004SOL    HW190851   6.666  10.459   0.139
63004SOL    HW290852   6.796  10.396   0.184
63005SOL     OW90853  12.044  13.816   0.434
63005SOL    HW190854  11.963  13.782   0.474
63005SOL    HW290855  12.026  13.908   0.418
63006SOL     OW90856   2.789   2.500   0.199
63006SOL    HW190857   2.698   2.531   0.196
63006SOL    HW290858   2.828   2.536   0.119
63007SOL     OW90859   0.499  11.593  13.012
63007SOL    HW190860   0.437  11.536  13.058
63007SOL    HW290861   0.560  11.533  12.969
63008SOL     OW90862   0.760   7.340  12.221
63008SOL    HW190863   0.750   7.252  12.256
63008SOL    HW290864   0.752   7.330  12.127
63009SOL     OW90865   8.797   9.946   5.774
63009SOL    HW190866   8.855   9.978   5.705
63009SOL    HW290867   8.834   9.980   5.855
63010SOL     OW90868  13.350   7.135   8.422
63010SOL    HW190869  13.258   7.112   8.432
63010SOL    HW290870  13.371   7.109   8.332
63011SOL     OW90871  12.212   1.528   2.382
63011SOL    HW190872  12.273   1.454   2.379
63011SOL    HW290873  12.136   1.495   2.429
63012SOL     OW90874  11.637  12.639   5.891
63012SOL    HW190875  11.698  12.619   5.820
63012SOL    HW290876  11.611  12.553   5.924
63013SOL     OW90877   9.375   7.674   8.344
63013SOL    HW190878   9.310   7.666   8.274
63013SOL    HW290879   9.325   7.664   8.425
63014SOL     OW90880   7.177   4.362   1.116
63014SOL    HW190881   7.233   4.433   1.148
63014SOL    HW290882   7.114   4.347   1.186
63015SOL     OW90883  11.442  11.251  11.043
63015SOL    HW190884  11.446  11.156  11.037
63015SOL    HW290885  11.373  11.276  10.982
63016SOL     OW90886   1.839   0.740   6.058
63016SOL    HW190887   1.763   0.772   6.106
63016SOL    HW290888   1.818   0.758   5.966
63017SOL     OW90889   6.824   5.153   4.427
63017SOL    HW190890   6.739   5.131   4.389
63017SOL    HW290891   6.857   5.070   4.461
63018SOL     OW90892   0.126   7.376   7.851
63018SOL    HW190893   0.123   7.293   7.899
63018SOL    HW290894   0.051   7.425   7.884
63019SOL     OW90895   2.426   0.262   0.886
63019SOL    HW190896   2.458   0.235   0.800
63019SOL    HW290897   2.337   0.294   0.869
63020SOL     OW90898   3.764  10.924   1.830
63020SOL    HW190899   3.712  10.874   1.893
63020SOL    HW290900   3.854  10.896   1.845
63021SOL     OW90901  10.280   9.628   8.219
63021SOL    HW190902  10.296   9.670   8.135
63021SOL    HW290903  10.184   9.623   8.226
63022SOL     OW90904   6.298  12.432   2.661
63022SOL    HW190905   6.222  12.381   2.634
63022SOL    HW290906   6.364  12.366   2.683
63023SOL     OW90907  14.318  12.375   6.771
63023SOL    HW190908  14.243  12.336   6.725
63023SOL    HW290909  14.310  12.469   6.755
63024SOL     OW90910   5.022   4.652   0.146
63024SOL    HW190911   5.072   4.571   0.133
63024SOL    HW290912   5.024   4.695   0.061
63025SOL     OW90913   8.156   2.769  12.110
63025SOL    HW190914   8.095   2.702  12.141
63025SOL    HW290915   8.137   2.845  12.165
63026SOL     OW90916   6.969  13.858  12.750
63026SOL    HW190917   6.884  13.814  12.737
63026SOL    HW290918   6.956  13.913  12.827
63027SOL     OW90919  12.988  11.286   3.368
63027SOL    HW190920  12.990  11.228   3.292
63027SOL    HW290921  13.070  11.335   3.363
63028SOL     OW90922   5.912  14.243  10.464
63028SOL    HW190923   5.928  14.260  10.557
63028SOL    HW290924   5.818  14.255  10.454
63029SOL     OW90925   6.111   6.569   9.137
63029SOL    HW190926   6.206   6.577   9.143
63029SOL    HW290927   6.081   6.659   9.121
63030SOL     OW90928   0.996  10.829  14.160
63030SOL    HW190929   0.920  10.779  14.190
63030SOL    HW290930   1.050  10.766  14.113
63031SOL     OW90931  11.288  13.745  11.291
63031SOL    HW190932  11.321  13.833  11.313
63031SOL    HW290933  11.195  13.758  11.275
63032SOL     OW90934  14.160  14.469   5.135
63032SOL    HW190935  14.135  14.515   5.215
63032SOL    HW290936  14.110  14.388   5.137
63033SOL     OW90937   9.308   9.409   6.690
63033SOL    HW190938   9.339   9.321   6.708
63033SOL    HW290939   9.321   9.457   6.772
63034SOL     OW90940  12.626   1.726   7.426
63034SOL    HW190941  12.656   1.811   7.394
63034SOL    HW290942  12.572   1.691   7.355
63035SOL     OW90943  14.056   0.274   2.278
63035SOL    HW190944  13.966   0.257   2.306
63035SOL    HW290945  14.095   0.320   2.353
63036SOL     OW90946  10.393   8.821   8.044
63036SOL    HW190947  10.449   8.836   8.120
63036SOL    HW290948  10.319   8.881   8.056
63037SOL     OW90949   1.594   9.747   0.017
63037SOL    HW190950   1.563   9.815  14.839
63037SOL    HW290951   1.671   9.710  14.856
63038SOL     OW90952  12.432   9.229  10.749
63038SOL    HW190953  12.415   9.139  10.778
63038SOL    HW290954  12.527   9.239  10.755
63039SOL     OW90955   4.133   9.565   8.191
63039SOL    HW190956   4.165   9.655   8.200
63039SOL    HW290957   4.038   9.574   8.177
63040SOL     OW90958   9.918   9.588   8.735
63040SOL    HW190959   9.825   9.564   8.730
63040SOL    HW290960   9.963   9.504   8.742
63041SOL     OW90961   0.285  13.079  10.697
63041SOL    HW190962   0.341  13.103  10.624
63041SOL    HW290963   0.254  12.991  10.675
63042SOL     OW90964   5.061  14.774  10.366
63042SOL    HW190965   4.983  14.719  10.363
63042SOL    HW290966   5.121  14.728  10.424
63043SOL     OW90967   7.790   5.976   2.461
63043SOL    HW190968   7.789   5.881   2.453
63043SOL    HW290969   7.876   5.998   2.495
63044SOL     OW90970   0.441   8.496   8.550
63044SOL    HW190971   0.400   8.412   8.529
63044SOL    HW290972   0.372   8.545   8.594
63045SOL     OW90973  14.771   5.949  10.844
63045SOL    HW190974  14.705   5.883  10.828
63045SOL    HW290975  14.722   6.031  10.851
63046SOL     OW90976   5.881   7.975   7.884
63046SOL    HW190977   5.877   8.052   7.827
63046SOL    HW290978   5.872   8.011   7.972
63047SOL     OW90979  10.736   0.427  10.456
63047SOL    HW190980  10.679   0.351  10.441
63047SOL    HW290981  10.736   0.439  10.551
63048SOL     OW90982  11.716  11.153   2.073
63048SOL    HW190983  11.800  11.119   2.102
63048SOL    HW290984  11.654  11.081   2.088
63049SOL     OW90985   5.709   9.720  10.403
63049SOL    HW190986   5.639   9.758  10.455
63049SOL    HW290987   5.750   9.656  10.461
63050SOL     OW90988  11.885   2.045   2.642
63050SOL    HW190989  11.891   1.964   2.693
63050SOL    HW290990  11.958   2.098   2.673
63051SOL     OW90991   7.297  12.633   0.330
63051SOL    HW190992   7.316  12.543   0.357
63051SOL    HW290993   7.339  12.641   0.244
63052SOL     OW90994   7.553  13.741   8.572
63052SOL    HW190995   7.634  13.775   8.610
63052SOL    HW290996   7.518  13.683   8.639
63053SOL     OW90997   0.446   4.256  12.886
63053SOL    HW190998   0.437   4.171  12.844
63053SOL    HW290999   0.531   4.288  12.856
63054SOL     OW91000  14.713   7.171   8.762
63054SOL    HW191001  14.621   7.200   8.758
63054SOL    HW291002  14.714   7.105   8.831
63055SOL     OW91003   0.662   2.401   8.441
63055SOL    HW191004   0.667   2.488   8.481
63055SOL    HW291005   0.723   2.348   8.492
63056SOL     OW91006  14.751   0.194   9.021
63056SOL    HW191007  14.719   0.105   9.008
63056SOL    HW291008  14.733   0.239   8.939
63057SOL     OW91009  11.764  11.768   7.908
63057SOL    HW191010  11.772  11.685   7.861
63057SOL    HW291011  11.785  11.746   7.999
63058SOL     OW91012   3.966   9.505   0.563
63058SOL    HW191013   4.009   9.515   0.648
63058SOL    HW291014   4.035   9.520   0.499
63059SOL     OW91015   1.630   9.350   4.180
63059SOL    HW191016   1.580   9.342   4.099
63059SOL    HW291017   1.714   9.308   4.160
63060SOL     OW91018   1.533   0.196   6.271
63060SOL    HW191019   1.502   0.207   6.180
63060SOL    HW291020   1.457   0.220   6.324
63061SOL     OW91021  10.376   6.329   6.247
63061SOL    HW191022  10.313   6.334   6.318
63061SOL    HW291023  10.419   6.414   6.247
63062SOL     OW91024   6.017   2.361   6.184
63062SOL    HW191025   5.959   2.412   6.239
63062SOL    HW291026   5.978   2.273   6.183
63063SOL     OW91027   9.574   2.443   6.517
63063SOL    HW191028   9.663   2.410   6.528
63063SOL    HW291029   9.559   2.438   6.422
63064SOL     OW91030  13.545   2.655   8.712
63064SOL    HW191031  13.457   2.642   8.747
63064SOL    HW291032  13.571   2.742   8.743
63065SOL     OW91033  12.563   8.958   8.876
63065SOL    HW191034  12.606   8.968   8.791
63065SOL    HW291035  12.618   9.008   8.936
63066SOL     OW91036   2.727  11.885   4.854
63066SOL    HW191037   2.818  11.887   4.827
63066SOL    HW291038   2.720  11.952   4.922
63067SOL     OW91039   1.356   7.153  12.922
63067SOL    HW191040   1.329   7.133  13.012
63067SOL    HW291041   1.439   7.200  12.932
63068SOL     OW91042   3.295   7.952  14.700
63068SOL    HW191043   3.314   7.982  14.789
63068SOL    HW291044   3.361   7.885  14.682
63069SOL     OW91045   8.747   7.008   3.856
63069SOL    HW191046   8.792   7.000   3.772
63069SOL    HW291047   8.728   6.918   3.882
63070SOL     OW91048  11.146   1.727  13.458
63070SOL    HW191049  11.165   1.640  13.424
63070SOL    HW291050  11.162   1.786  13.383
63071SOL     OW91051   3.030   3.718   9.987
63071SOL    HW191052   2.938   3.719  10.013
63071SOL    HW291053   3.050   3.809   9.964
63072SOL     OW91054   1.375   4.335   7.452
63072SOL    HW191055   1.347   4.420   7.483
63072SOL    HW291056   1.454   4.315   7.503
63073SOL     OW91057   4.095   2.123   7.059
63073SOL    HW191058   4.009   2.144   7.097
63073SOL    HW291059   4.157   2.136   7.130
63074SOL     OW91060   4.839  14.320   9.721
63074SOL    HW191061   4.787  14.284   9.649
63074SOL    HW291062   4.899  14.382   9.680
63075SOL     OW91063   6.709   3.609   4.815
63075SOL    HW191064   6.624   3.572   4.836
63075SOL    HW291065   6.724   3.675   4.883
63076SOL     OW91066  10.949  14.221   3.053
63076SOL    HW191067  10.875  14.230   3.114
63076SOL    HW291068  10.931  14.138   3.007
63077SOL     OW91069  12.951   1.939  14.197
63077SOL    HW191070  12.999   2.018  14.174
63077SOL    HW291071  12.982   1.915  14.284
63078SOL     OW91072  13.517   4.312   1.292
63078SOL    HW191073  13.488   4.398   1.261
63078SOL    HW291074  13.442   4.255   1.275
63079SOL     OW91075  12.997   9.688   8.449
63079SOL    HW191076  13.020   9.730   8.365
63079SOL    HW291077  12.981   9.597   8.426
63080SOL     OW91078   0.897  12.680   8.138
63080SOL    HW191079   0.978  12.653   8.182
63080SOL    HW291080   0.865  12.601   8.096
63081SOL     OW91081  11.876  12.568  10.892
63081SOL    HW191082  11.936  12.560  10.818
63081SOL    HW291083  11.907  12.501  10.954
63082SOL     OW91084  11.198   5.116   8.588
63082SOL    HW191085  11.219   5.025   8.568
63082SOL    HW291086  11.230   5.129   8.677
63083SOL     OW91087  13.004   8.542  12.154
63083SOL    HW191088  13.072   8.551  12.221
63083SOL    HW291089  12.923   8.567  12.198
63084SOL     OW91090   5.044   5.654  11.408
63084SOL    HW191091   5.060   5.678  11.317
63084SOL    HW291092   5.073   5.729  11.458
63085SOL     OW91093  11.408   1.127   8.202
63085SOL    HW191094  11.327   1.076   8.208
63085SOL    HW291095  11.478   1.062   8.211
63086SOL     OW91096   7.011   5.356   5.029
63086SOL    HW191097   7.047   5.366   4.941
63086SOL    HW291098   7.087   5.334   5.084
63087SOL     OW91099   5.538  14.221  11.255
63087SOL    HW191100   5.546  14.180  11.169
63087SOL    HW291101   5.467  14.172  11.297
63088SOL     OW91102   4.565   9.002   6.714
63088SOL    HW191103   4.563   8.934   6.647
63088SOL    HW291104   4.488   8.984   6.769
63089SOL     OW91105   8.759  14.212   9.416
63089SOL    HW191106   8.673  14.183   9.387
63089SOL    HW291107   8.818  14.141   9.394
63090SOL     OW91108  11.019  13.944  11.679
63090SOL    HW191109  11.064  13.877  11.628
63090SOL    HW291110  10.981  13.896  11.753
63091SOL     OW91111  12.309  11.598  11.156
63091SOL    HW191112  12.252  11.571  11.227
63091SOL    HW291113  12.284  11.542  11.082
63092SOL     OW91114   0.809   2.877  14.835
63092SOL    HW191115   0.745   2.805  14.837
63092SOL    HW291116   0.815   2.900  14.742
63093SOL     OW91117   0.269  11.560  11.071
63093SOL    HW191118   0.200  11.495  11.057
63093SOL    HW291119   0.351  11.512  11.056
63094SOL     OW91120  13.208   8.535   7.175
63094SOL    HW191121  13.128   8.582   7.198
63094SOL    HW291122  13.190   8.445   7.200
63095SOL     OW91123   6.446   3.910   5.015
63095SOL    HW191124   6.351   3.911   5.024
63095SOL    HW291125   6.479   3.935   5.102
63096SOL     OW91126   5.076   1.565  13.888
63096SOL    HW191127   4.994   1.557  13.935
63096SOL    HW291128   5.096   1.659  13.890
63097SOL     OW91129   0.012   9.121   8.944
63097SOL    HW191130  14.876   9.094   9.034
63097SOL    HW291131   0.045   9.041   8.902
63098SOL     OW91132   6.027   1.294  14.290
63098SOL    HW191133   6.056   1.216  14.243
63098SOL    HW291134   6.059   1.367  14.238
63099SOL     OW91135   1.659   1.856   6.018
63099SOL    HW191136   1.672   1.887   5.928
63099SOL    HW291137   1.739   1.808   6.038
63100SOL     OW91138   8.252   5.535   5.607
63100SOL    HW191139   8.325   5.556   5.666
63100SOL    HW291140   8.252   5.440   5.600
63101SOL     OW91141   0.850   6.033   8.554
63101SOL    HW191142   0.840   6.103   8.489
63101SOL    HW291143   0.942   6.007   8.547
63102SOL     OW91144   9.343  12.035   7.187
63102SOL    HW191145   9.250  12.016   7.200
63102SOL    HW291146   9.358  12.116   7.237
63103SOL     OW91147   8.506  11.966   1.262
63103SOL    HW191148   8.569  12.037   1.279
63103SOL    HW291149   8.497  11.965   1.167
63104SOL     OW91150  10.266  12.937  12.975
63104SOL    HW191151  10.200  12.886  12.928
63104SOL    HW291152  10.231  12.946  13.064
63105SOL     OW91153   7.554  12.775   8.825
63105SOL    HW191154   7.649  12.758   8.828
63105SOL    HW291155   7.542  12.829   8.747
63106SOL     OW91156   5.459   2.312   9.125
63106SOL    HW191157   5.405   2.328   9.047
63106SOL    HW291158   5.462   2.397   9.169
63107SOL     OW91159  11.285   5.691   3.081
63107SOL    HW191160  11.298   5.680   3.175
63107SOL    HW291161  11.255   5.605   3.051
63108SOL     OW91162   3.884   3.161  14.298
63108SOL    HW191163   3.894   3.256  14.311
63108SOL    HW291164   3.794   3.149  14.268
63109SOL     OW91165   2.248   7.068  12.793
63109SOL    HW191166   2.229   7.158  12.819
63109SOL    HW291167   2.162   7.025  12.793
63110SOL     OW91168   2.364   2.513   4.821
63110SOL    HW191169   2.368   2.590   4.878
63110SOL    HW291170   2.436   2.526   4.759
63111SOL     OW91171   5.156   0.791   7.077
63111SOL    HW191172   5.125   0.728   7.143
63111SOL    HW291173   5.085   0.855   7.071
63112SOL     OW91174  13.063   0.699   6.895
63112SOL    HW191175  13.113   0.678   6.973
63112SOL    HW291176  13.124   0.748   6.840
63113SOL     OW91177  14.475  10.125  11.764
63113SOL    HW191178  14.391  10.137  11.807
63113SOL    HW291179  14.536  10.180  11.813
63114SOL     OW91180   3.747  10.299   1.340
63114SOL    HW191181   3.699  10.358   1.281
63114SOL    HW291182   3.737  10.213   1.299
63115SOL     OW91183  10.117   4.720   5.937
63115SOL    HW191184  10.030   4.709   5.975
63115SOL    HW291185  10.177   4.710   6.011
63116SOL     OW91186   3.700   4.758   9.554
63116SOL    HW191187   3.648   4.720   9.484
63116SOL    HW291188   3.680   4.852   9.550
63117SOL     OW91189  12.757   0.663   1.642
63117SOL    HW191190  12.753   0.692   1.734
63117SOL    HW291191  12.825   0.718   1.603
63118SOL     OW91192   8.885  12.693   1.012
63118SOL    HW191193   8.971  12.652   1.027
63118SOL    HW291194   8.840  12.686   1.096
63119SOL     OW91195   2.449  10.044   0.370
63119SOL    HW191196   2.539  10.045   0.337
63119SOL    HW291197   2.453  10.093   0.452
63120SOL     OW91198   1.556   9.822  13.363
63120SOL    HW191199   1.480   9.848  13.415
63120SOL    HW291200   1.573   9.897  13.306
63121SOL     OW91201   8.782   7.397  12.603
63121SOL    HW191202   8.848   7.441  12.549
63121SOL    HW291203   8.804   7.304  12.597
63122SOL     OW91204   2.050  14.787   9.066
63122SOL    HW191205   2.126  14.837   9.038
63122SOL    HW291206   2.053  14.707   9.014
63123SOL     OW91207   9.069  12.178   0.956
63123SOL    HW191208   9.064  12.092   0.913
63123SOL    HW291209   9.090  12.239   0.885
63124SOL     OW91210  11.622  11.937   0.336
63124SOL    HW191211  11.663  11.957   0.252
63124SOL    HW291212  11.688  11.961   0.402
63125SOL     OW91213   8.166   4.158   5.800
63125SOL    HW191214   8.125   4.138   5.716
63125SOL    HW291215   8.104   4.217   5.843
63126SOL     OW91216   0.702  10.849   6.289
63126SOL    HW191217   0.754  10.883   6.216
63126SOL    HW291218   0.672  10.763   6.259
63127SOL     OW91219   4.522   1.100   7.156
63127SOL    HW191220   4.443   1.109   7.103
63127SOL    HW291221   4.491   1.100   7.246
63128SOL     OW91222   7.827  13.758   6.581
63128SOL    HW191223   7.801  13.683   6.634
63128SOL    HW291224   7.831  13.831   6.643
63129SOL     OW91225   4.387   6.898   6.161
63129SOL    HW191226   4.310   6.871   6.211
63129SOL    HW291227   4.445   6.936   6.227
63130SOL     OW91228  13.633   2.145   1.773
63130SOL    HW191229  13.658   2.200   1.698
63130SOL    HW291230  13.716   2.112   1.808
63131SOL     OW91231  12.666   4.350   2.445
63131SOL    HW191232  12.662   4.443   2.423
63131SOL    HW291233  12.670   4.349   2.541
63132SOL     OW91234  14.637   4.156   1.728
63132SOL    HW191235  14.572   4.132   1.661
63132SOL    HW291236  14.649   4.076   1.779
63133SOL     OW91237   2.811  11.618  12.516
63133SOL    HW191238   2.808  11.712  12.496
63133SOL    HW291239   2.823  11.576  12.431
63134SOL     OW91240   6.924  13.121   9.216
63134SOL    HW191241   7.008  13.152   9.250
63134SOL    HW291242   6.946  13.076   9.135
63135SOL     OW91243  12.783   2.024   1.125
63135SOL    HW191244  12.705   2.077   1.141
63135SOL    HW291245  12.749   1.938   1.098
63136SOL     OW91246  14.573  14.282  10.141
63136SOL    HW191247  14.623  14.346  10.191
63136SOL    HW291248  14.604  14.197  10.173
63137SOL     OW91249   5.727   0.137   1.190
63137SOL    HW191250   5.645   0.175   1.160
63137SOL    HW291251   5.711   0.113   1.281
63138SOL     OW91252   1.717   0.548   9.104
63138SOL    HW191253   1.731   0.619   9.167
63138SOL    HW291254   1.784   0.561   9.038
63139SOL     OW91255   2.156  12.527   9.295
63139SOL    HW191256   2.067  12.555   9.317
63139SOL    HW291257   2.145  12.473   9.217
63140SOL     OW91258   4.333  12.698  13.309
63140SOL    HW191259   4.261  12.639  13.327
63140SOL    HW291260   4.395  12.683  13.380
63141SOL     OW91261   8.134   4.785   3.826
63141SOL    HW191262   8.176   4.824   3.749
63141SOL    HW291263   8.198   4.797   3.896
63142SOL     OW91264   9.911   8.324   6.740
63142SOL    HW191265   9.943   8.236   6.759
63142SOL    HW291266   9.958   8.380   6.802
63143SOL     OW91267   3.573   0.434  14.731
63143SOL    HW191268   3.632   0.360  14.744
63143SOL    HW291269   3.488   0.401  14.759
63144SOL     OW91270  13.541  11.721  10.281
63144SOL    HW191271  13.627  11.722  10.323
63144SOL    HW291272  13.526  11.812  10.254
63145SOL     OW91273  12.348   9.732  11.832
63145SOL    HW191274  12.422   9.723  11.771
63145SOL    HW291275  12.281   9.779  11.782
63146SOL     OW91276   5.684  11.203   4.482
63146SOL    HW191277   5.692  11.276   4.420
63146SOL    HW291278   5.751  11.221   4.548
63147SOL     OW91279   0.769  10.177  13.704
63147SOL    HW191280   0.841  10.143  13.758
63147SOL    HW291281   0.693  10.127  13.733
63148SOL     OW91282   1.639   7.163  11.169
63148SOL    HW191283   1.581   7.090  11.145
63148SOL    HW291284   1.661   7.147  11.261
63149SOL     OW91285   2.220   1.115  11.541
63149SOL    HW191286   2.229   1.026  11.506
63149SOL    HW291287   2.248   1.108  11.632
63150SOL     OW91288  14.710   8.443   1.351
63150SOL    HW191289  14.681   8.491   1.429
63150SOL    HW291290  14.677   8.355   1.364
63151SOL     OW91291   4.079   0.850  13.765
63151SOL    HW191292   4.117   0.927  13.723
63151SOL    HW291293   4.111   0.777  13.713
63152SOL     OW91294   5.853  10.502   9.128
63152SOL    HW191295   5.827  10.411   9.138
63152SOL    HW291296   5.797  10.536   9.058
63153SOL     OW91297   1.774  13.659  11.732
63153SOL    HW191298   1.699  13.625  11.683
63153SOL    HW291299   1.773  13.609  11.814
63154SOL     OW91300   1.615   2.041   3.949
63154SOL    HW191301   1.684   2.084   4.000
63154SOL    HW291302   1.551   2.013   4.015
63155SOL     OW91303   6.870   9.220   2.568
63155SOL    HW191304   6.803   9.264   2.620
63155SOL    HW291305   6.952   9.243   2.610
63156SOL     OW91306  11.254   3.842   4.327
63156SOL    HW191307  11.332   3.796   4.358
63156SOL    HW291308  11.226   3.792   4.250
63157SOL     OW91309   5.671   9.963   1.473
63157SOL    HW191310   5.734  10.009   1.418
63157SOL    HW291311   5.723   9.927   1.545
63158SOL     OW91312  11.741   4.626  14.625
63158SOL    HW191313  11.745   4.709  14.671
63158SOL    HW291314  11.686   4.570  14.679
63159SOL     OW91315   6.836   2.298   2.858
63159SOL    HW191316   6.794   2.382   2.877
63159SOL    HW291317   6.914   2.297   2.912
63160SOL     OW91318   0.037   9.012   7.418
63160SOL    HW191319  14.824   9.027   7.423
63160SOL    HW291320   0.047   8.918   7.433
63161SOL     OW91321   9.018  10.713   5.524
63161SOL    HW191322   9.089  10.778   5.522
63161SOL    HW291323   9.062  10.629   5.511
63162SOL     OW91324   4.562   3.298  11.127
63162SOL    HW191325   4.579   3.389  11.102
63162SOL    HW291326   4.648   3.256  11.126
63163SOL     OW91327   9.959  13.555   2.488
63163SOL    HW191328  10.008  13.479   2.519
63163SOL    HW291329   9.873  13.546   2.530
63164SOL     OW91330   8.114   9.410   2.696
63164SOL    HW191331   8.062   9.383   2.620
63164SOL    HW291332   8.185   9.463   2.659
63165SOL     OW91333   5.315   9.526   9.750
63165SOL    HW191334   5.304   9.549   9.658
63165SOL    HW291335   5.399   9.564   9.775
63166SOL     OW91336  13.588   7.558  13.392
63166SOL    HW191337  13.632   7.482  13.431
63166SOL    HW291338  13.653   7.628  13.396
63167SOL     OW91339  11.334  14.005  12.437
63167SOL    HW191340  11.383  14.086  12.426
63167SOL    HW291341  11.243  14.033  12.449
63168SOL     OW91342  13.284   4.436   0.913
63168SOL    HW191343  13.206   4.387   0.938
63168SOL    HW291344  13.358   4.379   0.936
63169SOL     OW91345   6.833  11.754  14.824
63169SOL    HW191346   6.839  11.686   0.009
63169SOL    HW291347   6.913  11.743  14.772
63170SOL     OW91348  11.422  11.268  10.369
63170SOL    HW191349  11.428  11.354  10.326
63170SOL    HW291350  11.394  11.209  10.300
63171SOL     OW91351   7.779   1.494   9.812
63171SOL    HW191352   7.851   1.475   9.752
63171SOL    HW291353   7.800   1.579   9.849
63172SOL     OW91354  11.065   4.203   3.925
63172SOL    HW191355  11.057   4.141   3.998
63172SOL    HW291356  11.033   4.154   3.849
63173SOL     OW91357  10.139   0.273  14.671
63173SOL    HW191358  10.120   0.233  14.756
63173SOL    HW291359  10.068   0.336  14.658
63174SOL     OW91360  14.329  10.884   3.785
63174SOL    HW191361  14.337  10.980   3.782
63174SOL    HW291362  14.362  10.854   3.701
63175SOL     OW91363  11.116   8.896   7.221
63175SOL    HW191364  11.207   8.902   7.251
63175SOL    HW291365  11.103   8.803   7.202
63176SOL     OW91366   2.249   8.089  14.418
63176SOL    HW191367   2.295   8.154  14.366
63176SOL    HW291368   2.301   8.079  14.497
63177SOL     OW91369   7.855  12.549   4.581
63177SOL    HW191370   7.833  12.530   4.672
63177SOL    HW291371   7.950  12.565   4.582
63178SOL     OW91372   5.330   1.108  10.710
63178SOL    HW191373   5.303   1.070  10.626
63178SOL    HW291374   5.262   1.172  10.730
63179SOL     OW91375  12.302  12.669  13.127
63179SOL    HW191376  12.253  12.745  13.095
63179SOL    HW291377  12.234  12.608  13.157
63180SOL     OW91378   2.261  12.054   4.357
63180SOL    HW191379   2.174  12.094   4.347
63180SOL    HW291380   2.316  12.099   4.293
63181SOL     OW91381   8.819  11.037   2.668
63181SOL    HW191382   8.724  11.026   2.670
63181SOL    HW291383   8.846  10.995   2.586
63182SOL     OW91384  11.703   2.058   6.009
63182SOL    HW191385  11.654   2.070   5.927
63182SOL    HW291386  11.689   1.966   6.031
63183SOL     OW91387  12.030  12.026  13.797
63183SOL    HW191388  12.027  12.035  13.892
63183SOL    HW291389  12.038  12.116  13.765
63184SOL     OW91390   2.022   8.275   5.219
63184SOL    HW191391   2.075   8.351   5.241
63184SOL    HW291392   2.078   8.222   5.162
63185SOL     OW91393   2.295   9.580   3.259
63185SOL    HW191394   2.283   9.653   3.198
63185SOL    HW291395   2.206   9.559   3.289
63186SOL     OW91396  10.198  11.085   4.260
63186SOL    HW191397  10.274  11.084   4.201
63186SOL    HW291398  10.220  11.153   4.324
63187SOL     OW91399   8.106  13.871   1.020
63187SOL    HW191400   8.088  13.806   0.953
63187SOL    HW291401   8.086  13.955   0.979
63188SOL     OW91402   0.871   7.112   7.319
63188SOL    HW191403   0.824   7.028   7.319
63188SOL    HW291404   0.962   7.088   7.302
63189SOL     OW91405   8.042  13.223   9.258
63189SOL    HW191406   8.107  13.292   9.244
63189SOL    HW291407   8.041  13.175   9.175
63190SOL     OW91408   5.835   8.676  11.309
63190SOL    HW191409   5.747   8.639  11.316
63190SOL    HW291410   5.819   8.769  11.288
63191SOL     OW91411  12.176  10.392  11.871
63191SOL    HW191412  12.170  10.350  11.957
63191SOL    HW291413  12.238  10.464  11.883
63192SOL     OW91414   2.754  12.760   4.980
63192SOL    HW191415   2.789  12.824   4.918
63192SOL    HW291416   2.766  12.800   5.066
63193SOL     OW91417  14.863  14.635   7.545
63193SOL    HW191418  14.870  14.716   7.494
63193SOL    HW291419  14.769  14.624   7.559
63194SOL     OW91420   1.485   2.008   8.559
63194SOL    HW191421   1.575   2.040   8.558
63194SOL    HW291422   1.493   1.915   8.538
63195SOL     OW91423   0.288  13.724   2.667
63195SOL    HW191424   0.316  13.805   2.625
63195SOL    HW291425   0.313  13.655   2.606
63196SOL     OW91426   2.654  12.328  13.946
63196SOL    HW191427   2.612  12.355  14.028
63196SOL    HW291428   2.585  12.334  13.880
63197SOL     OW91429   5.545  11.315   2.685
63197SOL    HW191430   5.513  11.228   2.709
63197SOL    HW291431   5.492  11.340   2.610
63198SOL     OW91432   7.469  10.423  13.233
63198SOL    HW191433   7.502  10.333  13.228
63198SOL    HW291434   7.434  10.431  13.322
63199SOL     OW91435   0.140   5.188  11.085
63199SOL    HW191436   0.172   5.253  11.023
63199SOL    HW291437   0.045   5.194  11.080
63200SOL     OW91438  14.266   2.396   5.066
63200SOL    HW191439  14.265   2.397   5.162
63200SOL    HW291440  14.219   2.316   5.043
63201SOL     OW91441  11.693  14.489  13.446
63201SOL    HW191442  11.626  14.497  13.378
63201SOL    HW291443  11.742  14.410  13.423
63202SOL     OW91444   8.030   0.856   3.455
63202SOL    HW191445   8.060   0.787   3.397
63202SOL    HW291446   7.954   0.818   3.500
63203SOL     OW91447   0.699  14.041  11.441
63203SOL    HW191448   0.649  13.998  11.372
63203SOL    HW291449   0.665  14.002  11.522
63204SOL     OW91450   1.400   9.548   4.347
63204SOL    HW191451   1.441   9.625   4.385
63204SOL    HW291452   1.413   9.558   4.253
63205SOL     OW91453  10.353   4.572  13.703
63205SOL    HW191454  10.402   4.565  13.621
63205SOL    HW291455  10.265   4.542  13.680
63206SOL     OW91456   6.223  11.690   5.771
63206SOL    HW191457   6.177  11.616   5.731
63206SOL    HW291458   6.279  11.650   5.838
63207SOL     OW91459   2.441   5.222   9.767
63207SOL    HW191460   2.441   5.146   9.710
63207SOL    HW291461   2.349   5.238   9.787
63208SOL     OW91462  10.183   4.317  12.143
63208SOL    HW191463  10.167   4.298  12.051
63208SOL    HW291464  10.257   4.379  12.142
63209SOL     OW91465   9.065   7.790   3.774
63209SOL    HW191466   9.098   7.704   3.801
63209SOL    HW291467   9.120   7.815   3.700
63210SOL     OW91468  12.384   9.746   3.319
63210SOL    HW191469  12.459   9.783   3.365
63210SOL    HW291470  12.309   9.794   3.353
63211SOL     OW91471   0.729   5.544   7.216
63211SOL    HW191472   0.750   5.479   7.149
63211SOL    HW291473   0.650   5.509   7.259
63212SOL     OW91474   5.111  14.391   0.662
63212SOL    HW191475   5.147  14.404   0.575
63212SOL    HW291476   5.177  14.339   0.708
63213SOL     OW91477  12.429  14.263  12.101
63213SOL    HW191478  12.440  14.353  12.131
63213SOL    HW291479  12.433  14.210  12.180
63214SOL     OW91480  11.393   5.182  13.074
63214SOL    HW191481  11.476   5.167  13.029
63214SOL    HW291482  11.417   5.191  13.166
63215SOL     OW91483   3.766   4.370   1.964
63215SOL    HW191484   3.799   4.311   2.031
63215SOL    HW291485   3.844   4.399   1.916
63216SOL     OW91486   2.449  11.009  13.723
63216SOL    HW191487   2.451  10.923  13.764
63216SOL    HW291488   2.437  11.070  13.796
63217SOL     OW91489  13.882   4.865   7.777
63217SOL    HW191490  13.939   4.938   7.802
63217SOL    HW291491  13.896   4.855   7.683
63218SOL     OW91492   6.847   6.170   8.968
63218SOL    HW191493   6.869   6.227   9.041
63218SOL    HW291494   6.798   6.098   9.007
63219SOL     OW91495   9.404  10.733   6.515
63219SOL    HW191496   9.443  10.661   6.565
63219SOL    HW291497   9.373  10.794   6.582
63220SOL     OW91498   5.865   9.843  13.685
63220SOL    HW191499   5.856   9.824  13.592
63220SOL    HW291500   5.862   9.758  13.728
63221SOL     OW91501   8.623   5.316  12.596
63221SOL    HW191502   8.570   5.271  12.662
63221SOL    HW291503   8.564   5.381  12.558
63222SOL     OW91504  13.798  13.485   8.458
63222SOL    HW191505  13.718  13.533   8.434
63222SOL    HW291506  13.867  13.552   8.456
63223SOL     OW91507   2.299   0.570   6.525
63223SOL    HW191508   2.213   0.529   6.516
63223SOL    HW291509   2.314   0.614   6.441
63224SOL     OW91510  10.751   5.618   0.598
63224SOL    HW191511  10.677   5.654   0.550
63224SOL    HW291512  10.792   5.557   0.537
63225SOL     OW91513  10.815   0.063  12.602
63225SOL    HW191514  10.816   0.158  12.606
63225SOL    HW291515  10.723   0.040  12.589
63226SOL     OW91516   2.085   2.015  13.152
63226SOL    HW191517   2.059   2.052  13.236
63226SOL    HW291518   2.007   2.024  13.096
63227SOL     OW91519   5.279   8.752  12.611
63227SOL    HW191520   5.194   8.707  12.605
63227SOL    HW291521   5.313   8.753  12.522
63228SOL     OW91522   2.639   9.553   2.662
63228SOL    HW191523   2.730   9.560   2.692
63228SOL    HW291524   2.608   9.643   2.655
63229SOL     OW91525  12.750   8.870   5.928
63229SOL    HW191526  12.786   8.957   5.915
63229SOL    HW291527  12.817   8.810   5.897
63230SOL     OW91528   4.266   1.976   1.799
63230SOL    HW191529   4.234   2.053   1.752
63230SOL    HW291530   4.255   1.904   1.737
63231SOL     OW91531   0.906  12.773   3.109
63231SOL    HW191532   0.880  12.718   3.183
63231SOL    HW291533   0.885  12.862   3.136
63232SOL     OW91534   0.675   5.062   4.778
63232SOL    HW191535   0.675   5.020   4.864
63232SOL    HW291536   0.711   4.996   4.719
63233SOL     OW91537  14.423   5.023   2.124
63233SOL    HW191538  14.433   5.111   2.158
63233SOL    HW291539  14.493   4.972   2.165
63234SOL     OW91540   6.496   0.354  12.238
63234SOL    HW191541   6.582   0.369  12.200
63234SOL    HW291542   6.503   0.389  12.327
63235SOL     OW91543   5.894  13.934   3.393
63235SOL    HW191544   5.822  13.884   3.354
63235SOL    HW291545   5.864  14.025   3.391
63236SOL     OW91546  13.453   1.643   8.121
63236SOL    HW191547  13.416   1.709   8.063
63236SOL    HW291548  13.381   1.582   8.137
63237SOL     OW91549  13.182   4.088   0.402
63237SOL    HW191550  13.217   4.146   0.470
63237SOL    HW291551  13.115   4.141   0.359
63238SOL     OW91552   5.656   6.270  10.871
63238SOL    HW191553   5.650   6.190  10.818
63238SOL    HW291554   5.733   6.256  10.926
63239SOL     OW91555   6.698   9.376  11.511
63239SOL    HW191556   6.625   9.383  11.572
63239SOL    HW291557   6.729   9.466  11.500
63240SOL     OW91558   5.220   1.369   5.348
63240SOL    HW191559   5.246   1.306   5.415
63240SOL    HW291560   5.125   1.361   5.343
63241SOL     OW91561  14.369   7.942   2.750
63241SOL    HW191562  14.461   7.945   2.725
63241SOL    HW291563  14.364   7.994   2.830
63242SOL     OW91564   4.434  14.646   6.205
63242SOL    HW191565   4.427  14.644   6.301
63242SOL    HW291566   4.421  14.738   6.182
63243SOL     OW91567  10.397  14.165  12.362
63243SOL    HW191568  10.475  14.200  12.406
63243SOL    HW291569  10.372  14.089  12.415
63244SOL     OW91570  13.961   1.548   6.623
63244SOL    HW191571  13.933   1.487   6.555
63244SOL    HW291572  13.951   1.635   6.583
63245SOL     OW91573   6.855   5.564   2.373
63245SOL    HW191574   6.844   5.651   2.412
63245SOL    HW291575   6.767   5.528   2.371
63246SOL     OW91576   9.530   0.324  10.935
63246SOL    HW191577   9.464   0.392  10.926
63246SOL    HW291578   9.479   0.243  10.944
63247SOL     OW91579   7.186   3.756  12.256
63247SOL    HW191580   7.265   3.715  12.220
63247SOL    HW291581   7.219   3.812  12.327
63248SOL     OW91582   9.278   0.839   4.293
63248SOL    HW191583   9.201   0.787   4.267
63248SOL    HW291584   9.350   0.803   4.241
63249SOL     OW91585   9.408   3.137  12.454
63249SOL    HW191586   9.398   3.072  12.384
63249SOL    HW291587   9.334   3.197  12.442
63250SOL     OW91588   6.423   4.178   1.740
63250SOL    HW191589   6.470   4.233   1.677
63250SOL    HW291590   6.345   4.229   1.762
63251SOL     OW91591   8.812  14.386  13.605
63251SOL    HW191592   8.739  14.343  13.559
63251SOL    HW291593   8.837  14.458  13.547
63252SOL     OW91594   1.655   6.153  11.852
63252SOL    HW191595   1.722   6.215  11.823
63252SOL    HW291596   1.573   6.188  11.820
63253SOL     OW91597   1.630   7.656   5.735
63253SOL    HW191598   1.725   7.669   5.738
63253SOL    HW291599   1.602   7.703   5.657
63254SOL     OW91600   0.860   3.025   4.489
63254SOL    HW191601   0.788   2.988   4.438
63254SOL    HW291602   0.935   2.967   4.471
63255SOL     OW91603   5.982  11.129   6.622
63255SOL    HW191604   5.899  11.084   6.607
63255SOL    HW291605   6.042  11.060   6.650
63256SOL     OW91606   0.406  11.760   1.059
63256SOL    HW191607   0.355  11.839   1.079
63256SOL    HW291608   0.475  11.791   1.001
63257SOL     OW91609   8.200  12.349   4.381
63257SOL    HW191610   8.182  12.413   4.450
63257SOL    HW291611   8.215  12.401   4.303
63258SOL     OW91612   8.370   4.745   4.227
63258SOL    HW191613   8.382   4.661   4.271
63258SOL    HW291614   8.286   4.736   4.181
63259SOL     OW91615   5.570   7.083   6.440
63259SOL    HW191616   5.586   7.025   6.515
63259SOL    HW291617   5.550   7.168   6.479
63260SOL     OW91618  12.915   2.201  11.760
63260SOL    HW191619  12.922   2.275  11.821
63260SOL    HW291620  12.892   2.241  11.676
63261SOL     OW91621   7.521  10.721  11.801
63261SOL    HW191622   7.525  10.799  11.744
63261SOL    HW291623   7.470  10.657  11.750
63262SOL     OW91624   4.480   8.628   4.055
63262SOL    HW191625   4.440   8.544   4.075
63262SOL    HW291626   4.542   8.609   3.984
63263SOL     OW91627   4.666  11.544   7.025
63263SOL    HW191628   4.666  11.482   6.952
63263SOL    HW291629   4.647  11.490   7.102
63264SOL     OW91630   6.728   0.503   9.835
63264SOL    HW191631   6.703   0.523   9.925
63264SOL    HW291632   6.783   0.425   9.842
63265SOL     OW91633   6.449   4.828   9.841
63265SOL    HW191634   6.437   4.832   9.746
63265SOL    HW291635   6.383   4.889   9.876
63266SOL     OW91636   5.479   1.309  11.694
63266SOL    HW191637   5.386   1.329  11.681
63266SOL    HW291638   5.503   1.256  11.618
63267SOL     OW91639  13.311   0.036  13.473
63267SOL    HW191640  13.321   0.060  13.565
63267SOL    HW291641  13.395   0.060  13.434
63268SOL     OW91642   1.512   5.671  14.618
63268SOL    HW191643   1.449   5.666  14.690
63268SOL    HW291644   1.516   5.582  14.583
63269SOL     OW91645  11.433  12.549   8.218
63269SOL    HW191646  11.366  12.510   8.275
63269SOL    HW291647  11.384  12.580   8.142
63270SOL     OW91648  10.357  10.038   5.529
63270SOL    HW191649  10.397   9.961   5.490
63270SOL    HW291650  10.288  10.003   5.586
63271SOL     OW91651   1.054   2.039  10.886
63271SOL    HW191652   1.003   1.959  10.875
63271SOL    HW291653   1.145   2.012  10.872
63272SOL     OW91654   5.169  11.159   3.969
63272SOL    HW191655   5.234  11.089   3.970
63272SOL    HW291656   5.112  11.140   4.044
63273SOL     OW91657  11.533   5.941  13.240
63273SOL    HW191658  11.485   5.887  13.177
63273SOL    HW291659  11.466   5.977  13.297
63274SOL     OW91660   6.952  10.844   8.867
63274SOL    HW191661   6.945  10.766   8.921
63274SOL    HW291662   6.990  10.910   8.926
63275SOL     OW91663   8.029  12.157  13.405
63275SOL    HW191664   8.061  12.209  13.480
63275SOL    HW291665   8.044  12.066  13.431
63276SOL     OW91666   3.405   0.973   8.912
63276SOL    HW191667   3.429   0.954   8.821
63276SOL    HW291668   3.469   1.038   8.941
63277SOL     OW91669   1.658  10.036  12.090
63277SOL    HW191670   1.698   9.976  12.027
63277SOL    HW291671   1.659  10.121  12.046
63278SOL     OW91672  13.212   4.461   8.694
63278SOL    HW191673  13.270   4.512   8.751
63278SOL    HW291674  13.271   4.399   8.650
63279SOL     OW91675  11.016   4.840   0.903
63279SOL    HW191676  10.970   4.914   0.863
63279SOL    HW291677  11.014   4.772   0.836
63280SOL     OW91678   3.302  12.599   8.519
63280SOL    HW191679   3.328  12.626   8.607
63280SOL    HW291680   3.207  12.607   8.519
63281SOL     OW91681  14.708   7.389   3.056
63281SOL    HW191682  14.624   7.346   3.073
63281SOL    HW291683  14.684   7.480   3.036
63282SOL     OW91684   6.852   8.639  11.745
63282SOL    HW191685   6.885   8.561  11.789
63282SOL    HW291686   6.830   8.700  11.816
63283SOL     OW91687  11.687   5.862   2.069
63283SOL    HW191688  11.691   5.927   1.999
63283SOL    HW291689  11.654   5.783   2.027
63284SOL     OW91690  12.903  11.236   6.740
63284SOL    HW191691  12.899  11.318   6.692
63284SOL    HW291692  12.911  11.262   6.832
63285SOL     OW91693  12.890  13.188  10.449
63285SOL    HW191694  12.845  13.272  10.456
63285SOL    HW291695  12.881  13.148  10.535
63286SOL     OW91696   6.094   6.414   4.005
63286SOL    HW191697   6.009   6.389   4.041
63286SOL    HW291698   6.143   6.332   3.998
63287SOL     OW91699   9.689   3.978  10.154
63287SOL    HW191700   9.660   3.887  10.168
63287SOL    HW291701   9.785   3.973  10.159
63288SOL     OW91702  10.883   8.906   5.625
63288SOL    HW191703  10.916   8.995   5.641
63288SOL    HW291704  10.951   8.849   5.660
63289SOL     OW91705   2.918  10.434   6.729
63289SOL    HW191706   2.924  10.465   6.820
63289SOL    HW291707   2.836  10.386   6.725
63290SOL     OW91708   1.849   5.895   9.033
63290SOL    HW191709   1.811   5.950   8.965
63290SOL    HW291710   1.923   5.946   9.066
63291SOL     OW91711   4.059  10.305  14.728
63291SOL    HW191712   4.075  10.269  14.641
63291SOL    HW291713   4.146  10.332  14.759
63292SOL     OW91714  11.358   6.331  13.442
63292SOL    HW191715  11.325   6.411  13.401
63292SOL    HW291716  11.379   6.357  13.532
63293SOL     OW91717   1.577   9.629  10.912
63293SOL    HW191718   1.625   9.646  10.994
63293SOL    HW291719   1.550   9.716  10.882
63294SOL     OW91720  14.791  12.696   4.452
63294SOL    HW191721  14.707  12.700   4.407
63294SOL    HW291722  14.778  12.747   4.532
63295SOL     OW91723  14.430   9.546  12.218
63295SOL    HW191724  14.512   9.498  12.216
63295SOL    HW291725  14.410   9.556  12.311
63296SOL     OW91726  10.505   2.300  11.147
63296SOL    HW191727  10.515   2.264  11.059
63296SOL    HW291728  10.576   2.364  11.154
63297SOL     OW91729  10.473   7.353  10.199
63297SOL    HW191730  10.435   7.436  10.228
63297SOL    HW291731  10.491   7.365  10.106
63298SOL     OW91732   0.944  10.905   0.487
63298SOL    HW191733   0.855  10.937   0.504
63298SOL    HW291734   0.965  10.940   0.400
63299SOL     OW91735   1.926  12.951  13.282
63299SOL    HW191736   1.986  13.009  13.329
63299SOL    HW291737   1.982  12.879  13.252
63300SOL     OW91738   3.952  11.328   8.596
63300SOL    HW191739   4.020  11.316   8.662
63300SOL    HW291740   3.900  11.248   8.601
63301SOL     OW91741   7.242   0.146  10.157
63301SOL    HW191742   7.198   0.168  10.075
63301SOL    HW291743   7.333   0.169  10.142
63302SOL     OW91744   1.253   3.684   8.235
63302SOL    HW191745   1.206   3.731   8.302
63302SOL    HW291746   1.200   3.606   8.218
63303SOL     OW91747   8.352  10.502   5.596
63303SOL    HW191748   8.299  10.483   5.518
63303SOL    HW291749   8.438  10.465   5.576
63304SOL     OW91750  12.644   0.009  12.559
63304SOL    HW191751  12.560   0.004  12.604
63304SOL    HW291752  12.706  14.848  12.618
63305SOL     OW91753  10.544   3.481   8.710
63305SOL    HW191754  10.551   3.463   8.804
63305SOL    HW291755  10.597   3.414   8.668
63306SOL     OW91756   9.683   3.642   2.755
63306SOL    HW191757   9.655   3.683   2.673
63306SOL    HW291758   9.672   3.548   2.739
63307SOL     OW91759   7.989  13.056   1.335
63307SOL    HW191760   7.988  13.043   1.430
63307SOL    HW291761   7.932  13.132   1.321
63308SOL     OW91762  13.273   5.501   3.952
63308SOL    HW191763  13.231   5.430   3.903
63308SOL    HW291764  13.366   5.479   3.950
63309SOL     OW91765   9.100   2.341  13.360
63309SOL    HW191766   9.057   2.264  13.396
63309SOL    HW291767   9.049   2.415  13.395
63310SOL     OW91768   8.244   9.383   7.315
63310SOL    HW191769   8.281   9.310   7.264
63310SOL    HW291770   8.207   9.442   7.249
63311SOL     OW91771   7.377  14.194   1.035
63311SOL    HW191772   7.440  14.122   1.038
63311SOL    HW291773   7.423  14.265   0.991
63312SOL     OW91774   9.576   6.021   5.814
63312SOL    HW191775   9.643   6.055   5.755
63312SOL    HW291776   9.496   6.068   5.789
63313SOL     OW91777   0.125  11.339   0.161
63313SOL    HW191778   0.090  11.260   0.120
63313SOL    HW291779   0.086  11.411   0.111
63314SOL     OW91780   8.024  10.606   7.646
63314SOL    HW191781   8.047  10.699   7.638
63314SOL    HW291782   7.954  10.592   7.582
63315SOL     OW91783  13.324   4.647  12.346
63315SOL    HW191784  13.370   4.729  12.366
63315SOL    HW291785  13.316   4.603  12.430
63316SOL     OW91786   1.162  13.658   0.394
63316SOL    HW191787   1.115  13.595   0.448
63316SOL    HW291788   1.186  13.728   0.455
63317SOL     OW91789  12.748  10.668   8.458
63317SOL    HW191790  12.664  10.705   8.430
63317SOL    HW291791  12.725  10.606   8.527
63318SOL     OW91792   9.988   7.297   2.532
63318SOL    HW191793  10.023   7.275   2.618
63318SOL    HW291794  10.017   7.226   2.475
63319SOL     OW91795   7.589  11.948   0.135
63319SOL    HW191796   7.653  12.006   0.092
63319SOL    HW291797   7.637  11.866   0.148
63320SOL     OW91798   1.314  12.200   5.229
63320SOL    HW191799   1.318  12.260   5.303
63320SOL    HW291800   1.223  12.172   5.226
63321SOL     OW91801   1.032  10.915  10.327
63321SOL    HW191802   1.087  10.910  10.250
63321SOL    HW291803   1.071  10.854  10.389
63322SOL     OW91804   8.911  13.603   4.860
63322SOL    HW191805   8.847  13.624   4.929
63322SOL    HW291806   8.903  13.675   4.797
63323SOL     OW91807   8.345   5.144   9.574
63323SOL    HW191808   8.385   5.061   9.547
63323SOL    HW291809   8.287   5.120   9.646
63324SOL     OW91810  14.324   2.945   2.539
63324SOL    HW191811  14.270   2.891   2.596
63324SOL    HW291812  14.262   2.992   2.484
63325SOL     OW91813   1.255   3.622   2.820
63325SOL    HW191814   1.331   3.672   2.850
63325SOL    HW291815   1.277   3.595   2.731
63326SOL     OW91816  13.844   5.272   2.470
63326SOL    HW191817  13.844   5.201   2.534
63326SOL    HW291818  13.780   5.245   2.404
63327SOL     OW91819   6.347   2.867   2.901
63327SOL    HW191820   6.354   2.939   2.838
63327SOL    HW291821   6.364   2.788   2.849
63328SOL     OW91822   9.745  13.208   1.177
63328SOL    HW191823   9.713  13.142   1.115
63328SOL    HW291824   9.672  13.268   1.190
63329SOL     OW91825   9.881  14.154  11.530
63329SOL    HW191826   9.945  14.141  11.600
63329SOL    HW291827   9.857  14.065  11.503
63330SOL     OW91828  12.879   1.522  11.800
63330SOL    HW191829  12.945   1.552  11.738
63330SOL    HW291830  12.802   1.503  11.747
63331SOL     OW91831   2.668  12.253  11.922
63331SOL    HW191832   2.644  12.344  11.938
63331SOL    HW291833   2.720  12.228  11.998
63332SOL     OW91834   5.729  13.799   8.870
63332SOL    HW191835   5.823  13.814   8.868
63332SOL    HW291836   5.692  13.887   8.880
63333SOL     OW91837  10.382  10.295   3.098
63333SOL    HW191838  10.291  10.325   3.110
63333SOL    HW291839  10.413  10.277   3.186
63334SOL     OW91840   9.138   2.985  14.843
63334SOL    HW191841   9.115   3.055   0.023
63334SOL    HW291842   9.101   3.014  14.760
63335SOL     OW91843   9.221   8.718   2.531
63335SOL    HW191844   9.174   8.766   2.463
63335SOL    HW291845   9.197   8.626   2.516
63336SOL     OW91846   3.739   4.899   4.217
63336SOL    HW191847   3.660   4.915   4.166
63336SOL    HW291848   3.708   4.865   4.301
63337SOL     OW91849   5.520   9.011   1.568
63337SOL    HW191850   5.596   8.956   1.589
63337SOL    HW291851   5.474   8.963   1.499
63338SOL     OW91852   3.531   4.572   6.413
63338SOL    HW191853   3.590   4.647   6.405
63338SOL    HW291854   3.482   4.571   6.331
63339SOL     OW91855   4.364  14.084   6.236
63339SOL    HW191856   4.415  14.156   6.201
63339SOL    HW291857   4.293  14.071   6.173
63340SOL     OW91858  13.691  13.479   0.462
63340SOL    HW191859  13.739  13.397   0.453
63340SOL    HW291860  13.606  13.454   0.498
63341SOL     OW91861   7.177  14.645  13.175
63341SOL    HW191862   7.111  14.576  13.171
63341SOL    HW291863   7.129  14.721  13.210
63342SOL     OW91864   8.201  10.048  11.680
63342SOL    HW191865   8.121  10.073  11.726
63342SOL    HW291866   8.218  10.122  11.621
63343SOL     OW91867   7.593   0.486   6.878
63343SOL    HW191868   7.539   0.514   6.952
63343SOL    HW291869   7.600   0.563   6.822
63344SOL     OW91870  10.131   3.913   6.560
63344SOL    HW191871  10.129   3.822   6.531
63344SOL    HW291872  10.225   3.935   6.560
63345SOL     OW91873  12.240   7.422   3.872
63345SOL    HW191874  12.185   7.484   3.826
63345SOL    HW291875  12.183   7.348   3.891
63346SOL     OW91876   2.922   7.159  11.579
63346SOL    HW191877   2.961   7.163  11.491
63346SOL    HW291878   2.937   7.246  11.616
63347SOL     OW91879   6.313   4.836  11.131
63347SOL    HW191880   6.337   4.926  11.106
63347SOL    HW291881   6.231   4.846  11.179
63348SOL     OW91882   5.805   5.628  14.751
63348SOL    HW191883   5.728   5.676  14.781
63348SOL    HW291884   5.819   5.561  14.818
63349SOL     OW91885   7.323   7.617   0.307
63349SOL    HW191886   7.311   7.571   0.224
63349SOL    HW291887   7.344   7.707   0.283
63350SOL     OW91888   5.499   5.522   4.243
63350SOL    HW191889   5.504   5.455   4.310
63350SOL    HW291890   5.564   5.496   4.178
63351SOL     OW91891   8.555   6.619  12.988
63351SOL    HW191892   8.586   6.661  13.069
63351SOL    HW291893   8.538   6.692  12.928
63352SOL     OW91894   0.378   2.146  13.986
63352SOL    HW191895   0.299   2.091  13.986
63352SOL    HW291896   0.413   2.137  13.898
63353SOL     OW91897  10.178   4.493   0.760
63353SOL    HW191898  10.244   4.471   0.826
63353SOL    HW291899  10.136   4.572   0.794
63354SOL     OW91900   3.840   9.090  10.890
63354SOL    HW191901   3.857   9.184  10.883
63354SOL    HW291902   3.920   9.049  10.858
63355SOL     OW91903   2.008   5.700   6.049
63355SOL    HW191904   2.057   5.627   6.085
63355SOL    HW291905   2.025   5.773   6.109
63356SOL     OW91906  14.764   0.193  10.316
63356SOL    HW191907  14.754   0.108  10.274
63356SOL    HW291908  14.846   0.228  10.281
63357SOL     OW91909   8.451   6.745  12.094
63357SOL    HW191910   8.505   6.804  12.147
63357SOL    HW291911   8.364   6.750  12.134
63358SOL     OW91912   6.604   6.624  11.049
63358SOL    HW191913   6.679   6.612  10.990
63358SOL    HW291914   6.576   6.714  11.034
63359SOL     OW91915   3.682   2.480  11.784
63359SOL    HW191916   3.709   2.562  11.827
63359SOL    HW291917   3.716   2.488  11.695
63360SOL     OW91918   9.129   8.977   9.133
63360SOL    HW191919   9.183   8.933   9.067
63360SOL    HW291920   9.042   8.938   9.123
63361SOL     OW91921  13.310   0.048   6.837
63361SOL    HW191922  13.381   0.003   6.883
63361SOL    HW291923  13.286  14.870   6.766
63362SOL     OW91924   3.931   1.969   6.515
63362SOL    HW191925   3.877   1.971   6.435
63362SOL    HW291926   3.987   1.891   6.504
63363SOL     OW91927   6.112   0.552  12.588
63363SOL    HW191928   6.081   0.582  12.503
63363SOL    HW291929   6.195   0.598  12.601
63364SOL     OW91930   8.185  13.929  10.064
63364SOL    HW191931   8.189  13.837  10.038
63364SOL    HW291932   8.146  13.928  10.151
63365SOL     OW91933   1.104  13.154   2.786
63365SOL    HW191934   1.143  13.190   2.866
63365SOL    HW291935   1.160  13.079   2.764
63366SOL     OW91936  10.012   2.499  10.146
63366SOL    HW191937   9.988   2.539  10.063
63366SOL    HW291938  10.061   2.568  10.192
63367SOL     OW91939  10.381  13.140  12.209
63367SOL    HW191940  10.455  13.140  12.148
63367SOL    HW291941  10.351  13.231  12.211
63368SOL     OW91942   9.174   5.210   3.253
63368SOL    HW191943   9.216   5.124   3.260
63368SOL    HW291944   9.160   5.222   3.159
63369SOL     OW91945  14.137   0.186   0.573
63369SOL    HW191946  14.124   0.166   0.480
63369SOL    HW291947  14.144   0.101   0.616
63370SOL     OW91948   7.491  12.026   9.882
63370SOL    HW191949   7.513  12.019   9.789
63370SOL    HW291950   7.407  12.071   9.883
63371SOL     OW91951   2.705   8.045   2.913
63371SOL    HW191952   2.725   8.096   2.835
63371SOL    HW291953   2.773   8.070   2.976
63372SOL     OW91954  13.826   3.717  12.703
63372SOL    HW191955  13.858   3.655  12.768
63372SOL    HW291956  13.893   3.718  12.635
63373SOL     OW91957   7.943   0.933  13.807
63373SOL    HW191958   7.975   0.901  13.723
63373SOL    HW291959   7.853   0.901  13.812
63374SOL     OW91960   0.092   0.724   7.781
63374SOL    HW191961   0.033   0.663   7.737
63374SOL    HW291962   0.156   0.748   7.715
63375SOL     OW91963   4.675   8.116   9.252
63375SOL    HW191964   4.631   8.099   9.169
63375SOL    HW291965   4.618   8.180   9.297
63376SOL     OW91966   6.170   9.392  12.334
63376SOL    HW191967   6.234   9.400  12.405
63376SOL    HW291968   6.085   9.393  12.378
63377SOL     OW91969  12.706   1.177   5.243
63377SOL    HW191970  12.775   1.127   5.286
63377SOL    HW291971  12.729   1.269   5.259
63378SOL     OW91972   4.158  11.300   4.420
63378SOL    HW191973   4.153  11.237   4.493
63378SOL    HW291974   4.229  11.359   4.445
63379SOL     OW91975   0.551   7.928   3.591
63379SOL    HW191976   0.463   7.957   3.567
63379SOL    HW291977   0.605   8.007   3.587
63380SOL     OW91978   7.831   8.956  13.620
63380SOL    HW191979   7.790   8.904  13.551
63380SOL    HW291980   7.782   8.936  13.699
63381SOL     OW91981   0.633  10.794   8.081
63381SOL    HW191982   0.597  10.782   8.170
63381SOL    HW291983   0.720  10.831   8.096
63382SOL     OW91984   0.287   5.842  10.777
63382SOL    HW191985   0.248   5.895  10.847
63382SOL    HW291986   0.375   5.822  10.809
63383SOL     OW91987   4.575   8.762   0.394
63383SOL    HW191988   4.543   8.845   0.358
63383SOL    HW291989   4.662   8.783   0.428
63384SOL     OW91990  12.729   6.331  13.073
63384SOL    HW191991  12.712   6.253  13.020
63384SOL    HW291992  12.699   6.307  13.160
63385SOL     OW91993  10.674  10.760   7.384
63385SOL    HW191994  10.598  10.708   7.411
63385SOL    HW291995  10.648  10.798   7.300
63386SOL     OW91996   5.030   4.410   5.002
63386SOL    HW191997   4.955   4.448   5.048
63386SOL    HW291998   5.099   4.408   5.067
63387SOL     OW91999  12.251   9.182   9.340
63387SOL    HW192000  12.268   9.099   9.384
63387SOL    HW292001  12.321   9.240   9.371
63388SOL     OW92002  13.381   8.080  10.000
63388SOL    HW192003  13.292   8.101  10.028
63388SOL    HW292004  13.382   8.097   9.906
63389SOL     OW92005   3.609   9.038  14.693
63389SOL    HW192006   3.590   9.065  14.603
63389SOL    HW292007   3.701   9.060  14.706
63390SOL     OW92008   2.999  11.370  11.921
63390SOL    HW192009   2.942  11.385  11.997
63390SOL    HW292010   3.060  11.302  11.950
63391SOL     OW92011   8.319   7.861   9.127
63391SOL    HW192012   8.354   7.934   9.076
63391SOL    HW292013   8.317   7.788   9.066
63392SOL     OW92014   6.130   0.856  12.474
63392SOL    HW192015   6.067   0.795  12.436
63392SOL    HW292016   6.077   0.919  12.522
63393SOL     OW92017  13.702   9.633  13.717
63393SOL    HW192018  13.751   9.714  13.733
63393SOL    HW292019  13.741   9.569  13.777
63394SOL     OW92020  11.381   3.006  14.669
63394SOL    HW192021  11.369   3.061  14.746
63394SOL    HW292022  11.464   3.035  14.631
63395SOL     OW92023  11.597   9.029  13.166
63395SOL    HW192024  11.680   9.072  13.147
63395SOL    HW292025  11.621   8.948  13.211
63396SOL     OW92026   2.380  13.188   5.467
63396SOL    HW192027   2.426  13.104   5.475
63396SOL    HW292028   2.397  13.234   5.549
63397SOL     OW92029  14.275   5.419  10.122
63397SOL    HW192030  14.306   5.508  10.106
63397SOL    HW292031  14.345   5.377  10.171
63398SOL     OW92032   9.817   6.116   5.727
63398SOL    HW192033   9.850   6.040   5.680
63398SOL    HW292034   9.822   6.188   5.664
63399SOL     OW92035  10.226   9.152  14.087
63399SOL    HW192036  10.196   9.062  14.097
63399SOL    HW292037  10.146   9.205  14.091
63400SOL     OW92038   6.590   8.603   5.801
63400SOL    HW192039   6.540   8.629   5.878
63400SOL    HW292040   6.677   8.585   5.834
63401SOL     OW92041  14.303   9.272   6.817
63401SOL    HW192042  14.267   9.360   6.830
63401SOL    HW292043  14.305   9.261   6.722
63402SOL     OW92044  14.407  12.493   7.391
63402SOL    HW192045  14.459  12.417   7.419
63402SOL    HW292046  14.318  12.460   7.383
63403SOL     OW92047  11.861   5.757   5.613
63403SOL    HW192048  11.804   5.685   5.586
63403SOL    HW292049  11.917   5.719   5.681
63404SOL     OW92050   6.187   6.274   7.074
63404SOL    HW192051   6.103   6.320   7.082
63404SOL    HW292052   6.218   6.266   7.164
63405SOL     OW92053  14.641  14.734   3.499
63405SOL    HW192054  14.570  14.797   3.511
63405SOL    HW292055  14.632  14.704   3.409
63406SOL     OW92056   3.331   9.569  10.497
63406SOL    HW192057   3.349   9.652  10.453
63406SOL    HW292058   3.331   9.592  10.590
63407SOL     OW92059   9.939   4.914   6.504
63407SOL    HW192060   9.931   5.000   6.546
63407SOL    HW292061   9.936   4.933   6.410
63408SOL     OW92062  14.564   9.691   6.315
63408SOL    HW192063  14.493   9.719   6.257
63408SOL    HW292064  14.634   9.664   6.256
63409SOL     OW92065   0.769  12.434   6.140
63409SOL    HW192066   0.782  12.529   6.134
63409SOL    HW292067   0.816  12.408   6.219
63410SOL     OW92068  11.000   8.365   5.074
63410SOL    HW192069  10.938   8.294   5.058
63410SOL    HW292070  10.944   8.441   5.095
63411SOL     OW92071  13.274   4.846   7.938
63411SOL    HW192072  13.294   4.907   8.009
63411SOL    HW292073  13.184   4.819   7.956
63412SOL     OW92074   0.273   3.086  14.796
63412SOL    HW192075   0.322   3.052  14.721
63412SOL    HW292076   0.182   3.060  14.779
63413SOL     OW92077   5.393   2.001  12.804
63413SOL    HW192078   5.485   1.998  12.833
63413SOL    HW292079   5.393   1.955  12.721
63414SOL     OW92080  12.881  11.764   0.436
63414SOL    HW192081  12.823  11.781   0.511
63414SOL    HW292082  12.956  11.717   0.474
63415SOL     OW92083   7.501   1.028  14.022
63415SOL    HW192084   7.542   1.006  14.106
63415SOL    HW292085   7.439   0.957  14.007
63416SOL     OW92086   4.871   7.228   3.002
63416SOL    HW192087   4.959   7.210   2.969
63416SOL    HW292088   4.885   7.289   3.075
63417SOL     OW92089   8.569   3.335  11.823
63417SOL    HW192090   8.490   3.349  11.771
63417SOL    HW292091   8.556   3.389  11.901
63418SOL     OW92092   4.935   8.708  13.716
63418SOL    HW192093   4.926   8.617  13.747
63418SOL    HW292094   4.956   8.758  13.795
63419SOL     OW92095  12.030   7.691   0.700
63419SOL    HW192096  11.967   7.733   0.759
63419SOL    HW292097  12.042   7.754   0.628
63420SOL     OW92098   9.808   8.183  13.376
63420SOL    HW192099   9.795   8.151  13.465
63420SOL    HW292100   9.735   8.148  13.326
63421SOL     OW92101   4.429  13.390  14.652
63421SOL    HW192102   4.422  13.296  14.670
63421SOL    HW292103   4.506  13.398  14.595
63422SOL     OW92104   6.635   1.077  11.130
63422SOL    HW192105   6.651   0.983  11.130
63422SOL    HW292106   6.673   1.108  11.048
63423SOL     OW92107  12.279  10.751   6.120
63423SOL    HW192108  12.231  10.678   6.158
63423SOL    HW292109  12.213  10.802   6.073
63424SOL     OW92110   5.936   2.291   1.312
63424SOL    HW192111   5.944   2.203   1.275
63424SOL    HW292112   6.023   2.310   1.349
63425SOL     OW92113   0.019  12.853   2.573
63425SOL    HW192114   0.031  12.896   2.488
63425SOL    HW292115   0.065  12.770   2.566
63426SOL     OW92116  10.152  12.250  13.251
63426SOL    HW192117  10.201  12.171  13.230
63426SOL    HW292118  10.160  12.305  13.173
63427SOL     OW92119   6.217   7.280  12.160
63427SOL    HW192120   6.253   7.274  12.249
63427SOL    HW292121   6.188   7.190  12.140
63428SOL     OW92122  14.705   6.328  13.346
63428SOL    HW192123  14.725   6.421  13.337
63428SOL    HW292124  14.753   6.301  13.425
63429SOL     OW92125  10.022  14.159   7.566
63429SOL    HW192126   9.974  14.221   7.621
63429SOL    HW292127   9.984  14.170   7.479
63430SOL     OW92128  11.200   2.030   4.714
63430SOL    HW192129  11.260   1.987   4.654
63430SOL    HW292130  11.216   2.123   4.702
63431SOL     OW92131   6.554  13.520  12.535
63431SOL    HW192132   6.511  13.590  12.585
63431SOL    HW292133   6.481  13.474  12.493
63432SOL     OW92134   2.967  12.577  10.475
63432SOL    HW192135   3.014  12.509  10.523
63432SOL    HW292136   3.037  12.637  10.446
63433SOL     OW92137   8.478   8.207   6.045
63433SOL    HW192138   8.558   8.258   6.053
63433SOL    HW292139   8.465   8.198   5.950
63434SOL     OW92140   3.721   3.766   9.173
63434SOL    HW192141   3.799   3.817   9.194
63434SOL    HW292142   3.648   3.820   9.204
63435SOL     OW92143   3.766   2.431   6.713
63435SOL    HW192144   3.836   2.415   6.777
63435SOL    HW292145   3.761   2.349   6.663
63436SOL     OW92146   6.318   3.623  11.063
63436SOL    HW192147   6.345   3.533  11.042
63436SOL    HW292148   6.230   3.614  11.098
63437SOL     OW92149   2.697  11.233   6.992
63437SOL    HW192150   2.753  11.295   7.038
63437SOL    HW292151   2.608  11.260   7.013
63438SOL     OW92152   4.451   4.485  13.245
63438SOL    HW192153   4.425   4.568  13.206
63438SOL    HW292154   4.370   4.446  13.276
63439SOL     OW92155   4.442   9.032   4.018
63439SOL    HW192156   4.450   9.082   3.937
63439SOL    HW292157   4.387   9.085   4.075
63440SOL     OW92158   7.281   9.642   9.411
63440SOL    HW192159   7.203   9.589   9.423
63440SOL    HW292160   7.324   9.605   9.334
63441SOL     OW92161   0.332   7.328   4.198
63441SOL    HW192162   0.280   7.264   4.151
63441SOL    HW292163   0.400   7.276   4.242
63442SOL     OW92164   9.288  10.233   2.712
63442SOL    HW192165   9.213  10.177   2.733
63442SOL    HW292166   9.258  10.286   2.638
63443SOL     OW92167   8.782  11.882  10.636
63443SOL    HW192168   8.852  11.932  10.595
63443SOL    HW292169   8.719  11.947  10.665
63444SOL     OW92170   8.457   7.811   2.595
63444SOL    HW192171   8.422   7.820   2.506
63444SOL    HW292172   8.525   7.878   2.601
63445SOL     OW92173   0.397   9.482   5.641
63445SOL    HW192174   0.371   9.437   5.561
63445SOL    HW292175   0.425   9.569   5.612
63446SOL     OW92176  14.825   7.873   8.367
63446SOL    HW192177   0.006   7.846   8.300
63446SOL    HW292178  14.752   7.911   8.318
63447SOL     OW92179   8.984   3.472  12.019
63447SOL    HW192180   8.936   3.409  11.965
63447SOL    HW292181   8.965   3.557  11.981
63448SOL     OW92182   2.399   6.961   1.291
63448SOL    HW192183   2.454   6.896   1.247
63448SOL    HW292184   2.316   6.960   1.243
63449SOL     OW92185  14.182  10.893  12.539
63449SOL    HW192186  14.168  10.871  12.631
63449SOL    HW292187  14.144  10.980  12.529
63450SOL     OW92188   9.045   5.863   7.407
63450SOL    HW192189   9.058   5.954   7.435
63450SOL    HW292190   9.108   5.852   7.335
63451SOL     OW92191  14.623   1.939   0.114
63451SOL    HW192192  14.559   1.970   0.178
63451SOL    HW292193  14.667   1.866   0.158
63452SOL     OW92194   3.592  14.594   9.798
63452SOL    HW192195   3.529  14.539   9.847
63452SOL    HW292196   3.622  14.658   9.863
63453SOL     OW92197   2.425   8.497   3.659
63453SOL    HW192198   2.502   8.440   3.655
63453SOL    HW292199   2.445   8.569   3.599
63454SOL     OW92200  11.354   3.196   2.545
63454SOL    HW192201  11.380   3.187   2.636
63454SOL    HW292202  11.261   3.217   2.547
63455SOL     OW92203  14.244   8.430   4.819
63455SOL    HW192204  14.305   8.371   4.775
63455SOL    HW292205  14.270   8.427   4.911
63456SOL     OW92206  13.150   7.511   6.158
63456SOL    HW192207  13.194   7.538   6.077
63456SOL    HW292208  13.221   7.493   6.219
63457SOL     OW92209   6.041   1.717  13.795
63457SOL    HW192210   6.023   1.787  13.858
63457SOL    HW292211   6.134   1.697  13.806
63458SOL     OW92212   7.823   1.427   1.937
63458SOL    HW192213   7.775   1.459   1.861
63458SOL    HW292214   7.881   1.499   1.961
63459SOL     OW92215  10.992  12.760  11.327
63459SOL    HW192216  11.032  12.789  11.245
63459SOL    HW292217  10.900  12.745  11.305
63460SOL     OW92218   6.695   0.210  13.823
63460SOL    HW192219   6.674   0.122  13.855
63460SOL    HW292220   6.661   0.211  13.734
63461SOL     OW92221   6.768  12.644   9.488
63461SOL    HW192222   6.704  12.572   9.489
63461SOL    HW292223   6.770  12.675   9.578
63462SOL     OW92224   3.732   3.425  10.213
63462SOL    HW192225   3.714   3.348  10.159
63462SOL    HW292226   3.651   3.440  10.262
63463SOL     OW92227   0.978   9.472   7.943
63463SOL    HW192228   0.906   9.524   7.981
63463SOL    HW292229   0.948   9.450   7.855
63464SOL     OW92230   3.426  14.877   5.818
63464SOL    HW192231   3.418  14.784   5.798
63464SOL    HW292232   3.512   0.020   5.784
63465SOL     OW92233   9.927  12.122   0.297
63465SOL    HW192234   9.970  12.089   0.376
63465SOL    HW292235   9.942  12.054   0.231
63466SOL     OW92236   4.614   6.815  14.144
63466SOL    HW192237   4.640   6.863  14.064
63466SOL    HW292238   4.678   6.744  14.150
63467SOL     OW92239  10.951   0.011   9.200
63467SOL    HW192240  10.992  14.807   9.211
63467SOL    HW292241  10.859  14.873   9.184
63468SOL     OW92242  11.852   4.898   9.844
63468SOL    HW192243  11.872   4.987   9.817
63468SOL    HW292244  11.897   4.887   9.928
63469SOL     OW92245   0.351  13.776   0.615
63469SOL    HW192246   0.432  13.825   0.629
63469SOL    HW292247   0.332  13.736   0.700
63470SOL     OW92248   7.531   2.454   1.779
63470SOL    HW192249   7.505   2.514   1.849
63470SOL    HW292250   7.625   2.441   1.792
63471SOL     OW92251   6.703  13.830  11.665
63471SOL    HW192252   6.670  13.900  11.608
63471SOL    HW292253   6.765  13.781  11.611
63472SOL     OW92254  10.814  12.514  10.727
63472SOL    HW192255  10.802  12.503  10.633
63472SOL    HW292256  10.863  12.437  10.754
63473SOL     OW92257   1.931  10.831  11.546
63473SOL    HW192258   1.981  10.873  11.476
63473SOL    HW292259   1.872  10.900  11.578
63474SOL     OW92260   0.031  14.718  12.629
63474SOL    HW192261  14.844  14.781  12.610
63474SOL    HW292262  14.878  14.665  12.701
63475SOL     OW92263  11.605   9.644   0.265
63475SOL    HW192264  11.593   9.733   0.231
63475SOL    HW292265  11.629   9.657   0.357
63476SOL     OW92266  11.857   9.844   2.504
63476SOL    HW192267  11.844   9.762   2.458
63476SOL    HW292268  11.942   9.875   2.474
63477SOL     OW92269  11.387   8.427   7.587
63477SOL    HW192270  11.466   8.482   7.590
63477SOL    HW292271  11.329   8.466   7.652
63478SOL     OW92272   4.351   9.630   1.845
63478SOL    HW192273   4.435   9.627   1.890
63478SOL    HW292274   4.321   9.721   1.857
63479SOL     OW92275   1.329   8.512  12.468
63479SOL    HW192276   1.307   8.590  12.418
63479SOL    HW292277   1.244   8.474  12.492
63480SOL     OW92278  14.028   2.144   2.580
63480SOL    HW192279  14.092   2.204   2.542
63480SOL    HW292280  13.967   2.126   2.508
63481SOL     OW92281   0.095  13.381   1.879
63481SOL    HW192282   0.006  13.413   1.891
63481SOL    HW292283   0.125  13.361   1.968
63482SOL     OW92284  14.731  12.018  12.503
63482SOL    HW192285  14.636  12.014  12.503
63482SOL    HW292286  14.755  12.024  12.596
63483SOL     OW92287   8.273  14.081   7.826
63483SOL    HW192288   8.362  14.101   7.795
63483SOL    HW292289   8.253  14.152   7.888
63484SOL     OW92290   9.346   6.745   0.998
63484SOL    HW192291   9.291   6.667   0.999
63484SOL    HW292292   9.286   6.817   0.981
63485SOL     OW92293  11.442  12.229   1.865
63485SOL    HW192294  11.464  12.308   1.814
63485SOL    HW292295  11.380  12.181   1.809
63486SOL     OW92296  13.612  12.961   9.286
63486SOL    HW192297  13.607  12.876   9.331
63486SOL    HW292298  13.529  12.968   9.238
63487SOL     OW92299  13.370  14.830  14.240
63487SOL    HW192300  13.407  14.748  14.206
63487SOL    HW292301  13.320  14.865  14.167
63488SOL     OW92302   8.431  10.330   3.893
63488SOL    HW192303   8.496  10.284   3.945
63488SOL    HW292304   8.354  10.336   3.949
63489SOL     OW92305  13.294  14.408   7.269
63489SOL    HW192306  13.210  14.378   7.235
63489SOL    HW292307  13.303  14.497   7.235
63490SOL     OW92308   8.090   9.929   0.577
63490SOL    HW192309   8.005   9.954   0.612
63490SOL    HW292310   8.148  10.001   0.599
63491SOL     OW92311   0.864   4.073   3.993
63491SOL    HW192312   0.908   3.988   3.988
63491SOL    HW292313   0.834   4.079   4.084
63492SOL     OW92314  11.470   4.456   2.730
63492SOL    HW192315  11.531   4.503   2.673
63492SOL    HW292316  11.388   4.505   2.724
63493SOL     OW92317   7.763   6.909  12.076
63493SOL    HW192318   7.708   6.875  12.147
63493SOL    HW292319   7.743   6.852  12.002
63494SOL     OW92320   8.203   0.577   0.485
63494SOL    HW192321   8.147   0.588   0.408
63494SOL    HW292322   8.143   0.553   0.556
63495SOL     OW92323   2.360   2.329   6.241
63495SOL    HW192324   2.302   2.396   6.206
63495SOL    HW292325   2.372   2.354   6.333
63496SOL     OW92326   2.631  12.798  10.636
63496SOL    HW192327   2.578  12.746  10.576
63496SOL    HW292328   2.713  12.750  10.645
63497SOL     OW92329   8.206  13.645   0.121
63497SOL    HW192330   8.142  13.628   0.189
63497SOL    HW292331   8.202  13.569   0.064
63498SOL     OW92332  12.136  10.457   3.262
63498SOL    HW192333  12.093  10.536   3.230
63498SOL    HW292334  12.076  10.422   3.328
63499SOL     OW92335   5.337   2.427   2.343
63499SOL    HW192336   5.309   2.414   2.253
63499SOL    HW292337   5.432   2.439   2.338
63500SOL     OW92338   6.773  13.365   0.320
63500SOL    HW192339   6.779  13.434   0.386
63500SOL    HW292340   6.770  13.284   0.370
63501SOL     OW92341  14.575   5.382   1.535
63501SOL    HW192342  14.626   5.450   1.577
63501SOL    HW292343  14.622   5.364   1.453
63502SOL     OW92344   8.096  11.389  11.938
63502SOL    HW192345   8.039  11.341  11.877
63502SOL    HW292346   8.170  11.418  11.884
63503SOL     OW92347  14.011  11.469   7.710
63503SOL    HW192348  14.034  11.537   7.647
63503SOL    HW292349  14.087  11.462   7.768
63504SOL     OW92350   8.153   7.081   0.429
63504SOL    HW192351   8.190   7.160   0.468
63504SOL    HW292352   8.131   7.106   0.340
63505SOL     OW92353   7.270  14.710   8.625
63505SOL    HW192354   7.338  14.760   8.580
63505SOL    HW292355   7.194  14.716   8.566
63506SOL     OW92356   7.150   2.414   0.619
63506SOL    HW192357   7.159   2.454   0.532
63506SOL    HW292358   7.181   2.325   0.607
63507SOL     OW92359   7.169   7.963  14.846
63507SOL    HW192360   7.076   7.985  14.845
63507SOL    HW292361   7.209   8.023  14.782
63508SOL     OW92362   9.107   9.720   0.587
63508SOL    HW192363   9.093   9.652   0.652
63508SOL    HW292364   9.178   9.773   0.622
63509SOL     OW92365   8.494   3.565   1.870
63509SOL    HW192366   8.404   3.598   1.869
63509SOL    HW292367   8.548   3.643   1.867
63510SOL     OW92368   1.895   3.891  11.983
63510SOL    HW192369   1.960   3.942  11.935
63510SOL    HW292370   1.811   3.916  11.945
63511SOL     OW92371   9.896  10.389  12.460
63511SOL    HW192372   9.988  10.370  12.477
63511SOL    HW292373   9.897  10.456  12.392
63512SOL     OW92374   1.074   7.527   5.671
63512SOL    HW192375   1.167   7.516   5.690
63512SOL    HW292376   1.052   7.452   5.615
63513SOL     OW92377  13.912   9.326  11.227
63513SOL    HW192378  13.883   9.327  11.136
63513SOL    HW292379  14.002   9.358  11.224
63514SOL     OW92380   0.773  10.959   1.006
63514SOL    HW192381   0.805  11.028   1.064
63514SOL    HW292382   0.722  11.005   0.940
63515SOL     OW92383   1.276   2.768   0.594
63515SOL    HW192384   1.219   2.714   0.647
63515SOL    HW292385   1.365   2.743   0.620
63516SOL     OW92386  14.299  13.462   8.059
63516SOL    HW192387  14.326  13.408   8.133
63516SOL    HW292388  14.208  13.436   8.042
63517SOL     OW92389  13.529  10.172   5.177
63517SOL    HW192390  13.582  10.204   5.250
63517SOL    HW292391  13.594  10.147   5.110
63518SOL     OW92392   6.766   9.269   2.820
63518SOL    HW192393   6.748   9.324   2.896
63518SOL    HW292394   6.681   9.256   2.779
63519SOL     OW92395   1.331   0.876  11.645
63519SOL    HW192396   1.389   0.872  11.568
63519SOL    HW292397   1.246   0.902  11.609
63520SOL     OW92398   1.835   0.101   3.199
63520SOL    HW192399   1.911   0.159   3.193
63520SOL    HW292400   1.799   0.100   3.110
63521SOL     OW92401   1.594   6.223  13.298
63521SOL    HW192402   1.683   6.256  13.308
63521SOL    HW292403   1.604   6.135  13.262
63522SOL     OW92404   2.720   0.541  13.806
63522SOL    HW192405   2.678   0.623  13.780
63522SOL    HW292406   2.808   0.567  13.832
63523SOL     OW92407   4.243   6.958  14.561
63523SOL    HW192408   4.175   6.952  14.628
63523SOL    HW292409   4.324   6.938  14.607
63524SOL     OW92410   7.293   0.198   6.739
63524SOL    HW192411   7.264   0.284   6.709
63524SOL    HW292412   7.329   0.156   6.661
63525SOL     OW92413   7.336   7.767  14.010
63525SOL    HW192414   7.275   7.696  14.029
63525SOL    HW292415   7.280   7.845  14.004
63526SOL     OW92416   6.071   0.197  13.196
63526SOL    HW192417   6.021   0.124  13.160
63526SOL    HW292418   6.052   0.270  13.138
63527SOL     OW92419  10.929  14.877   5.507
63527SOL    HW192420  10.926  14.851   5.599
63527SOL    HW292421  10.985  14.812   5.465
63528SOL     OW92422   4.526   5.161   5.674
63528SOL    HW192423   4.576   5.124   5.747
63528SOL    HW292424   4.562   5.250   5.663
63529SOL     OW92425  12.510   1.353   8.345
63529SOL    HW192426  12.526   1.314   8.259
63529SOL    HW292427  12.436   1.412   8.332
63530SOL     OW92428  10.489   8.892   0.039
63530SOL    HW192429  10.507   8.976   0.082
63530SOL    HW292430  10.555   8.832   0.073
63531SOL     OW92431   7.474   9.484   0.347
63531SOL    HW192432   7.390   9.446   0.372
63531SOL    HW292433   7.471   9.490   0.252
63532SOL     OW92434   0.230  12.421  11.619
63532SOL    HW192435   0.254  12.341  11.667
63532SOL    HW292436   0.275  12.491  11.667
63533SOL     OW92437   8.533   1.610   0.836
63533SOL    HW192438   8.493   1.694   0.859
63533SOL    HW292439   8.471   1.570   0.775
63534SOL     OW92440   7.232   9.943   2.968
63534SOL    HW192441   7.283   9.873   2.927
63534SOL    HW292442   7.286  10.021   2.958
63535SOL     OW92443  11.203  13.628   5.440
63535SOL    HW192444  11.216  13.715   5.403
63535SOL    HW292445  11.275  13.576   5.404
63536SOL     OW92446   0.629  12.460  14.303
63536SOL    HW192447   0.624  12.404  14.225
63536SOL    HW292448   0.606  12.403  14.376
63537SOL     OW92449   4.034   4.154   3.505
63537SOL    HW192450   4.055   4.078   3.560
63537SOL    HW292451   4.119   4.193   3.485
63538SOL     OW92452   3.144   6.915   8.956
63538SOL    HW192453   3.188   6.831   8.942
63538SOL    HW292454   3.117   6.943   8.869
63539SOL     OW92455  14.634  12.180   0.526
63539SOL    HW192456  14.672  12.190   0.613
63539SOL    HW292457  14.570  12.109   0.535
63540SOL     OW92458  13.344   4.901   8.690
63540SOL    HW192459  13.259   4.877   8.653
63540SOL    HW292460  13.333   4.991   8.719
63541SOL     OW92461   8.241  10.498   3.456
63541SOL    HW192462   8.160  10.548   3.447
63541SOL    HW292463   8.269  10.513   3.546
63542SOL     OW92464   8.274  13.140  13.183
63542SOL    HW192465   8.194  13.184  13.154
63542SOL    HW292466   8.325  13.128  13.103
63543SOL     OW92467   7.557   0.526   5.309
63543SOL    HW192468   7.563   0.431   5.299
63543SOL    HW292469   7.616   0.546   5.381
63544SOL     OW92470  12.990  12.804   0.848
63544SOL    HW192471  12.927  12.751   0.798
63544SOL    HW292472  13.070  12.752   0.846
63545SOL     OW92473   3.321  14.261   1.120
63545SOL    HW192474   3.401  14.284   1.073
63545SOL    HW292475   3.325  14.166   1.129
63546SOL     OW92476   6.631   0.562   8.398
63546SOL    HW192477   6.612   0.627   8.466
63546SOL    HW292478   6.723   0.539   8.411
63547SOL     OW92479   1.626   1.626   2.263
63547SOL    HW192480   1.546   1.649   2.311
63547SOL    HW292481   1.598   1.621   2.171
63548SOL     OW92482   1.295   6.582  11.371
63548SOL    HW192483   1.369   6.521  11.366
63548SOL    HW292484   1.228   6.543  11.316
63549SOL     OW92485   9.478   1.331   7.358
63549SOL    HW192486   9.486   1.411   7.410
63549SOL    HW292487   9.418   1.276   7.408
63550SOL     OW92488   2.426   2.084  11.657
63550SOL    HW192489   2.341   2.044  11.643
63550SOL    HW292490   2.407   2.169  11.698
63551SOL     OW92491   0.132   5.523   1.477
63551SOL    HW192492   0.222   5.497   1.493
63551SOL    HW292493   0.089   5.443   1.446
63552SOL     OW92494  14.583   0.133  14.107
63552SOL    HW192495  14.648   0.184  14.060
63552SOL    HW292496  14.505   0.135  14.051
63553SOL     OW92497   8.353  10.662   5.274
63553SOL    HW192498   8.426  10.722   5.290
63553SOL    HW292499   8.392  10.589   5.227
63554SOL     OW92500  12.480   3.561  12.551
63554SOL    HW192501  12.557   3.600  12.591
63554SOL    HW292502  12.513   3.516  12.473
63555SOL     OW92503  13.454  13.742   9.672
63555SOL    HW192504  13.393  13.719   9.742
63555SOL    HW292505  13.529  13.685   9.686
63556SOL     OW92506   6.544   8.372   0.957
63556SOL    HW192507   6.572   8.455   0.996
63556SOL    HW292508   6.450   8.383   0.942
63557SOL     OW92509   5.084  13.354   9.604
63557SOL    HW192510   5.122  13.277   9.562
63557SOL    HW292511   5.125  13.357   9.691
63558SOL     OW92512   9.379   5.411  10.387
63558SOL    HW192513   9.333   5.486  10.350
63558SOL    HW292514   9.339   5.399  10.473
63559SOL     OW92515   6.665  14.142   5.929
63559SOL    HW192516   6.734  14.151   5.994
63559SOL    HW292517   6.683  14.210   5.865
63560SOL     OW92518  10.713   2.160   8.507
63560SOL    HW192519  10.763   2.079   8.499
63560SOL    HW292520  10.756   2.208   8.578
63561SOL     OW92521   9.010   6.437   4.942
63561SOL    HW192522   9.091   6.454   4.894
63561SOL    HW292523   9.004   6.508   5.006
63562SOL     OW92524   2.493  13.740   4.724
63562SOL    HW192525   2.439  13.670   4.759
63562SOL    HW292526   2.560  13.756   4.791
63563SOL     OW92527  14.567   5.957   9.862
63563SOL    HW192528  14.587   6.031   9.805
63563SOL    HW292529  14.579   5.880   9.808
63564SOL     OW92530   7.339   5.825   7.102
63564SOL    HW192531   7.335   5.760   7.172
63564SOL    HW292532   7.398   5.893   7.134
63565SOL     OW92533  13.730  10.086   6.349
63565SOL    HW192534  13.782  10.116   6.424
63565SOL    HW292535  13.776  10.008   6.317
63566SOL     OW92536   4.224   4.666   7.515
63566SOL    HW192537   4.290   4.598   7.518
63566SOL    HW292538   4.225   4.698   7.425
63567SOL     OW92539  12.318   0.671  13.158
63567SOL    HW192540  12.403   0.662  13.115
63567SOL    HW292541  12.323   0.755  13.205
63568SOL     OW92542   3.579   5.009   9.049
63568SOL    HW192543   3.562   5.103   9.051
63568SOL    HW292544   3.510   4.973   8.993
63569SOL     OW92545  12.380   5.759   9.451
63569SOL    HW192546  12.323   5.695   9.493
63569SOL    HW292547  12.321   5.818   9.405
63570SOL     OW92548   3.162   6.573  11.484
63570SOL    HW192549   3.134   6.647  11.430
63570SOL    HW292550   3.145   6.496  11.431
63571SOL     OW92551   3.591   4.767   7.178
63571SOL    HW192552   3.566   4.843   7.124
63571SOL    HW292553   3.515   4.710   7.175
63572SOL     OW92554  14.236   5.894   2.015
63572SOL    HW192555  14.169   5.917   1.951
63572SOL    HW292556  14.237   5.798   2.015
63573SOL     OW92557   3.565  10.307   7.946
63573SOL    HW192558   3.519  10.301   8.029
63573SOL    HW292559   3.637  10.244   7.953
63574SOL     OW92560   3.034  10.739   9.605
63574SOL    HW192561   2.948  10.774   9.586
63574SOL    HW292562   3.087  10.815   9.631
63575SOL     OW92563   8.846   3.527   5.533
63575SOL    HW192564   8.861   3.613   5.571
63575SOL    HW292565   8.751   3.521   5.522
63576SOL     OW92566  14.019   8.408  14.137
63576SOL    HW192567  14.024   8.475  14.204
63576SOL    HW292568  13.971   8.449  14.065
63577SOL     OW92569   0.567  13.086  12.620
63577SOL    HW192570   0.626  13.063  12.691
63577SOL    HW292571   0.480  13.089  12.660
63578SOL     OW92572   6.587   7.549   5.753
63578SOL    HW192573   6.647   7.585   5.818
63578SOL    HW292574   6.532   7.488   5.802
63579SOL     OW92575   3.701   2.434   7.142
63579SOL    HW192576   3.731   2.500   7.204
63579SOL    HW292577   3.627   2.475   7.098
63580SOL     OW92578   9.422   8.857   6.466
63580SOL    HW192579   9.418   8.807   6.547
63580SOL    HW292580   9.346   8.915   6.470
63581SOL     OW92581   3.062   3.539   1.743
63581SOL    HW192582   3.077   3.591   1.664
63581SOL    HW292583   3.079   3.448   1.716
63582SOL     OW92584   1.703   7.662   3.969
63582SOL    HW192585   1.740   7.579   3.999
63582SOL    HW292586   1.635   7.683   4.034
63583SOL     OW92587   3.441   4.763   4.310
63583SOL    HW192588   3.439   4.839   4.252
63583SOL    HW292589   3.448   4.800   4.398
63584SOL     OW92590   4.117   4.579   5.000
63584SOL    HW192591   4.032   4.594   5.040
63584SOL    HW292592   4.101   4.585   4.905
63585SOL     OW92593  10.104   8.328   3.272
63585SOL    HW192594  10.162   8.276   3.216
63585SOL    HW292595  10.047   8.264   3.315
63586SOL     OW92596   5.361   3.896   3.566
63586SOL    HW192597   5.330   3.916   3.654
63586SOL    HW292598   5.442   3.946   3.557
63587SOL     OW92599   3.569  12.593  14.154
63587SOL    HW192600   3.581  12.521  14.215
63587SOL    HW292601   3.534  12.552  14.075
63588SOL     OW92602   2.424   4.174   7.730
63588SOL    HW192603   2.387   4.150   7.815
63588SOL    HW292604   2.519   4.178   7.745
63589SOL     OW92605   2.218  14.297   8.140
63589SOL    HW192606   2.232  14.263   8.052
63589SOL    HW292607   2.126  14.326   8.140
63590SOL     OW92608   7.493   8.979  13.559
63590SOL    HW192609   7.468   8.988  13.467
63590SOL    HW292610   7.491   9.068  13.593
63591SOL     OW92611  11.361   3.564   2.681
63591SOL    HW192612  11.314   3.568   2.764
63591SOL    HW292613  11.429   3.498   2.694
63592SOL     OW92614   8.000  13.910   4.791
63592SOL    HW192615   8.001  13.846   4.863
63592SOL    HW292616   8.053  13.870   4.722
63593SOL     OW92617   5.593  13.064  13.605
63593SOL    HW192618   5.529  13.019  13.550
63593SOL    HW292619   5.678  13.037  13.570
63594SOL     OW92620   0.161  14.023   4.541
63594SOL    HW192621   0.123  14.035   4.628
63594SOL    HW292622   0.107  13.956   4.500
63595SOL     OW92623   9.698   4.849   3.059
63595SOL    HW192624   9.742   4.814   3.136
63595SOL    HW292625   9.619   4.892   3.093
63596SOL     OW92626  13.181   8.666   1.587
63596SOL    HW192627  13.100   8.636   1.628
63596SOL    HW292628  13.225   8.586   1.557
63597SOL     OW92629  14.576  13.396  13.477
63597SOL    HW192630  14.484  13.379  13.497
63597SOL    HW292631  14.611  13.311  13.451
63598SOL     OW92632   4.109  12.704   9.133
63598SOL    HW192633   4.180  12.695   9.069
63598SOL    HW292634   4.153  12.726   9.215
63599SOL     OW92635  13.102   6.975   7.886
63599SOL    HW192636  13.145   7.046   7.838
63599SOL    HW292637  13.138   6.895   7.849
63600SOL     OW92638   8.893   0.406   2.295
63600SOL    HW192639   8.921   0.320   2.264
63600SOL    HW292640   8.911   0.465   2.221
63601SOL     OW92641   4.181   0.397  13.015
63601SOL    HW192642   4.126   0.406  12.937
63601SOL    HW292643   4.135   0.334  13.070
63602SOL     OW92644   8.656   1.353   0.847
63602SOL    HW192645   8.717   1.348   0.773
63602SOL    HW292646   8.623   1.443   0.845
63603SOL     OW92647  10.022  13.299  10.166
63603SOL    HW192648   9.993  13.212  10.196
63603SOL    HW292649  10.045  13.286  10.074
63604SOL     OW92650   6.034  14.008  10.531
63604SOL    HW192651   5.977  13.931  10.522
63604SOL    HW292652   5.990  14.077  10.481
63605SOL     OW92653  11.542  11.499  14.024
63605SOL    HW192654  11.541  11.504  13.928
63605SOL    HW292655  11.571  11.585  14.052
63606SOL     OW92656  12.476   5.828   3.262
63606SOL    HW192657  12.521   5.753   3.301
63606SOL    HW292658  12.383   5.805   3.268
63607SOL     OW92659   1.558   4.599   3.911
63607SOL    HW192660   1.607   4.657   3.970
63607SOL    HW292661   1.623   4.534   3.883
63608SOL     OW92662   6.408   9.968  14.659
63608SOL    HW192663   6.451   9.981  14.574
63608SOL    HW292664   6.338   9.905  14.641
63609SOL     OW92665   3.130   8.724   7.674
63609SOL    HW192666   3.061   8.727   7.607
63609SOL    HW292667   3.203   8.679   7.631
63610SOL     OW92668  12.921   0.193   1.969
63610SOL    HW192669  12.990   0.167   1.908
63610SOL    HW292670  12.921   0.289   1.966
63611SOL     OW92671   7.993   5.112  12.179
63611SOL    HW192672   7.908   5.155  12.180
63611SOL    HW292673   8.044   5.159  12.245
63612SOL     OW92674   7.853   7.638  12.180
63612SOL    HW192675   7.929   7.660  12.126
63612SOL    HW292676   7.825   7.721  12.218
63613SOL     OW92677   2.340  12.520   0.224
63613SOL    HW192678   2.254  12.486   0.248
63613SOL    HW292679   2.356  12.591   0.287
63614SOL     OW92680  11.120   6.025   4.195
63614SOL    HW192681  11.179   6.079   4.142
63614SOL    HW292682  11.110   5.944   4.145
63615SOL     OW92683  12.416   2.967   6.497
63615SOL    HW192684  12.476   2.906   6.538
63615SOL    HW292685  12.329   2.933   6.516
63616SOL     OW92686  14.494   4.189   6.899
63616SOL    HW192687  14.477   4.280   6.873
63616SOL    HW292688  14.481   4.188   6.994
63617SOL     OW92689  11.956  10.102  10.877
63617SOL    HW192690  11.936  10.182  10.926
63617SOL    HW292691  11.939  10.031  10.939
63618SOL     OW92692   2.094   5.365   1.245
63618SOL    HW192693   2.113   5.426   1.173
63618SOL    HW292694   2.000   5.371   1.258
63619SOL     OW92695  12.733   2.993   7.743
63619SOL    HW192696  12.705   2.904   7.721
63619SOL    HW292697  12.809   2.981   7.800
63620SOL     OW92698  12.710  11.907   7.101
63620SOL    HW192699  12.725  11.813   7.088
63620SOL    HW292700  12.703  11.917   7.196
63621SOL     OW92701  12.911   0.929   0.275
63621SOL    HW192702  12.829   0.885   0.299
63621SOL    HW292703  12.965   0.924   0.354
63622SOL     OW92704   5.235  12.139   1.223
63622SOL    HW192705   5.191  12.123   1.140
63622SOL    HW292706   5.324  12.163   1.199
63623SOL     OW92707   9.484   4.820   4.195
63623SOL    HW192708   9.556   4.819   4.132
63623SOL    HW292709   9.493   4.737   4.242
63624SOL     OW92710  10.811   1.565   4.574
63624SOL    HW192711  10.734   1.620   4.564
63624SOL    HW292712  10.884   1.621   4.546
63625SOL     OW92713   4.259   3.395  12.590
63625SOL    HW192714   4.273   3.304  12.563
63625SOL    HW292715   4.216   3.436  12.515
63626SOL     OW92716   7.577   3.519  11.162
63626SOL    HW192717   7.540   3.585  11.220
63626SOL    HW292718   7.672   3.526  11.174
63627SOL     OW92719  13.098   0.387  11.705
63627SOL    HW192720  13.177   0.371  11.756
63627SOL    HW292721  13.118   0.463  11.651
63628SOL     OW92722   2.698   9.347   6.745
63628SOL    HW192723   2.740   9.405   6.809
63628SOL    HW292724   2.611   9.332   6.780
63629SOL     OW92725  14.136   2.826   3.474
63629SOL    HW192726  14.098   2.748   3.434
63629SOL    HW292727  14.117   2.817   3.568
63630SOL     OW92728   5.643   2.766   8.519
63630SOL    HW192729   5.649   2.715   8.438
63630SOL    HW292730   5.704   2.723   8.579
63631SOL     OW92731  10.965   1.655  14.787
63631SOL    HW192732  10.884   1.648  14.736
63631SOL    HW292733  10.956   1.738  14.834
63632SOL     OW92734   7.509   4.880  10.948
63632SOL    HW192735   7.573   4.892  10.878
63632SOL    HW292736   7.550   4.819  11.009
63633SOL     OW92737   2.463  13.101   0.725
63633SOL    HW192738   2.447  13.030   0.661
63633SOL    HW292739   2.402  13.082   0.797
63634SOL     OW92740  13.472   1.895   5.838
63634SOL    HW192741  13.455   1.989   5.843
63634SOL    HW292742  13.403   1.861   5.781
63635SOL     OW92743  14.404   0.309   4.320
63635SOL    HW192744  14.447   0.388   4.354
63635SOL    HW292745  14.476   0.254   4.290
63636SOL     OW92746   7.302   3.134   4.137
63636SOL    HW192747   7.274   3.087   4.058
63636SOL    HW292748   7.366   3.198   4.105
63637SOL     OW92749   4.504   0.755   3.998
63637SOL    HW192750   4.505   0.669   3.957
63637SOL    HW292751   4.493   0.817   3.926
63638SOL     OW92752   2.049  11.821  12.847
63638SOL    HW192753   1.983  11.752  12.846
63638SOL    HW292754   2.049  11.853  12.938
63639SOL     OW92755   0.449   0.144   7.983
63639SOL    HW192756   0.388   0.076   8.011
63639SOL    HW292757   0.535   0.101   7.986
63640SOL     OW92758   9.856   1.146   3.827
63640SOL    HW192759   9.803   1.225   3.812
63640SOL    HW292760   9.814   1.079   3.773
63641SOL     OW92761   1.725   7.024  12.404
63641SOL    HW192762   1.630   7.019  12.398
63641SOL    HW292763   1.755   6.934  12.393
63642SOL     OW92764  14.246  13.841   8.494
63642SOL    HW192765  14.180  13.863   8.428
63642SOL    HW292766  14.321  13.896   8.472
63643SOL     OW92767   4.647  14.262   1.385
63643SOL    HW192768   4.668  14.169   1.379
63643SOL    HW292769   4.715  14.306   1.335
63644SOL     OW92770   0.557   2.929   6.994
63644SOL    HW192771   0.632   2.870   6.989
63644SOL    HW292772   0.512   2.904   7.074
63645SOL     OW92773   8.130  10.269   9.343
63645SOL    HW192774   8.135  10.204   9.413
63645SOL    HW292775   8.196  10.241   9.279
63646SOL     OW92776  11.772   0.240  12.942
63646SOL    HW192777  11.842   0.257  13.005
63646SOL    HW292778  11.725   0.324  12.934
63647SOL     OW92779  11.688  11.006   0.611
63647SOL    HW192780  11.715  11.049   0.692
63647SOL    HW292781  11.595  11.028   0.603
63648SOL     OW92782   3.724   9.986   3.196
63648SOL    HW192783   3.782   9.991   3.120
63648SOL    HW292784   3.649   9.936   3.167
63649SOL     OW92785  12.591  12.939   5.363
63649SOL    HW192786  12.596  13.015   5.305
63649SOL    HW292787  12.506  12.948   5.406
63650SOL     OW92788   2.609  13.358   5.867
63650SOL    HW192789   2.628  13.279   5.817
63650SOL    HW292790   2.617  13.332   5.959
63651SOL     OW92791  11.123   1.968  10.154
63651SOL    HW192792  11.069   2.030  10.203
63651SOL    HW292793  11.211   1.978  10.191
63652SOL     OW92794   2.579   5.498   9.027
63652SOL    HW192795   2.500   5.544   9.053
63652SOL    HW292796   2.558   5.461   8.941
63653SOL     OW92797   2.622   7.007  10.734
63653SOL    HW192798   2.654   6.941  10.672
63653SOL    HW292799   2.649   6.973  10.820
63654SOL     OW92800   7.262   3.450   2.727
63654SOL    HW192801   7.339   3.505   2.711
63654SOL    HW292802   7.288   3.392   2.798
63655SOL     OW92803  13.328   7.645  11.711
63655SOL    HW192804  13.406   7.590  11.705
63655SOL    HW292805  13.361   7.734  11.726
63656SOL     OW92806   1.447   0.890   2.263
63656SOL    HW192807   1.383   0.931   2.320
63656SOL    HW292808   1.398   0.823   2.216
63657SOL     OW92809  13.932   4.004   2.041
63657SOL    HW192810  14.014   4.020   2.087
63657SOL    HW292811  13.879   4.082   2.060
63658SOL     OW92812   7.700   0.817  11.149
63658SOL    HW192813   7.689   0.739  11.204
63658SOL    HW292814   7.611   0.853  11.141
63659SOL     OW92815  11.481   5.510  12.835
63659SOL    HW192816  11.414   5.491  12.900
63659SOL    HW292817  11.561   5.523  12.885
63660SOL     OW92818   3.845   4.887   0.335
63660SOL    HW192819   3.935   4.875   0.367
63660SOL    HW292820   3.831   4.811   0.278
63661SOL     OW92821   3.962   0.425   0.650
63661SOL    HW192822   3.912   0.351   0.617
63661SOL    HW292823   3.985   0.401   0.740
63662SOL     OW92824  12.037   7.753   6.329
63662SOL    HW192825  12.121   7.785   6.296
63662SOL    HW292826  12.056   7.664   6.359
63663SOL     OW92827  14.000   2.318   1.708
63663SOL    HW192828  13.964   2.283   1.790
63663SOL    HW292829  14.008   2.412   1.723
63664SOL     OW92830   1.800  10.268   5.861
63664SOL    HW192831   1.789  10.224   5.946
63664SOL    HW292832   1.894  10.286   5.856
63665SOL     OW92833  14.352   5.911   2.262
63665SOL    HW192834  14.291   5.934   2.191
63665SOL    HW292835  14.403   5.838   2.226
63666SOL     OW92836  13.190   6.113  14.194
63666SOL    HW192837  13.240   6.150  14.267
63666SOL    HW292838  13.253   6.059  14.147
63667SOL     OW92839   8.104  10.362   3.717
63667SOL    HW192840   8.118  10.383   3.810
63667SOL    HW292841   8.126  10.269   3.710
63668SOL     OW92842   2.428  11.189  12.097
63668SOL    HW192843   2.494  11.221  12.035
63668SOL    HW292844   2.476  11.132  12.156
63669SOL     OW92845   9.808   4.610   9.888
63669SOL    HW192846   9.759   4.683   9.849
63669SOL    HW292847   9.764   4.532   9.855
63670SOL     OW92848   9.104  14.623   9.699
63670SOL    HW192849   9.012  14.619   9.672
63670SOL    HW292850   9.152  14.582   9.626
63671SOL     OW92851   6.655  12.230   3.702
63671SOL    HW192852   6.728  12.196   3.753
63671SOL    HW292853   6.586  12.245   3.766
63672SOL     OW92854   2.181   7.591  10.514
63672SOL    HW192855   2.225   7.612  10.597
63672SOL    HW292856   2.252   7.559  10.458
63673SOL     OW92857   1.453   8.030   8.768
63673SOL    HW192858   1.447   8.043   8.862
63673SOL    HW292859   1.520   8.092   8.739
63674SOL     OW92860   3.041  12.995   1.709
63674SOL    HW192861   3.061  13.034   1.624
63674SOL    HW292862   2.958  13.036   1.735
63675SOL     OW92863   1.929  10.206  14.132
63675SOL    HW192864   1.865  10.273  14.109
63675SOL    HW292865   1.962  10.233  14.218
63676SOL     OW92866   7.586   2.726   0.659
63676SOL    HW192867   7.511   2.774   0.692
63676SOL    HW292868   7.631   2.694   0.737
63677SOL     OW92869  10.583  10.549  14.544
63677SOL    HW192870  10.585  10.638  14.509
63677SOL    HW292871  10.624  10.555  14.630
63678SOL     OW92872   7.549  12.350   0.446
63678SOL    HW192873   7.461  12.325   0.416
63678SOL    HW292874   7.572  12.425   0.391
63679SOL     OW92875   2.690   3.314   6.737
63679SOL    HW192876   2.704   3.306   6.643
63679SOL    HW292877   2.625   3.247   6.758
63680SOL     OW92878  12.005   9.612   8.337
63680SOL    HW192879  11.990   9.522   8.308
63680SOL    HW292880  12.096   9.611   8.369
63681SOL     OW92881  10.996   0.836  12.613
63681SOL    HW192882  11.058   0.772  12.577
63681SOL    HW292883  11.050   0.910  12.640
63682SOL     OW92884   2.375   1.670  14.124
63682SOL    HW192885   2.467   1.650  14.106
63682SOL    HW292886   2.356   1.623  14.205
63683SOL     OW92887  13.181   7.164  13.571
63683SOL    HW192888  13.260   7.218  13.572
63683SOL    HW292889  13.201   7.090  13.629
63684SOL     OW92890  12.043  13.939  10.158
63684SOL    HW192891  12.073  13.895  10.238
63684SOL    HW292892  12.118  13.992  10.130
63685SOL     OW92893   3.827   7.610   3.459
63685SOL    HW192894   3.756   7.546   3.468
63685SOL    HW292895   3.831   7.653   3.544
63686SOL     OW92896   6.269   9.751   7.426
63686SOL    HW192897   6.317   9.670   7.442
63686SOL    HW292898   6.238   9.743   7.336
63687SOL     OW92899   9.665   0.434   6.428
63687SOL    HW192900   9.653   0.398   6.340
63687SOL    HW292901   9.577   0.437   6.465
63688SOL     OW92902  13.796   1.077  12.733
63688SOL    HW192903  13.718   1.023  12.746
63688SOL    HW292904  13.845   1.068  12.815
63689SOL     OW92905  13.552   9.340   1.362
63689SOL    HW192906  13.464   9.364   1.334
63689SOL    HW292907  13.544   9.252   1.397
63690SOL     OW92908   7.371  14.425  13.200
63690SOL    HW192909   7.333  14.389  13.280
63690SOL    HW292910   7.462  14.443  13.223
63691SOL     OW92911  13.362  10.721   4.957
63691SOL    HW192912  13.457  10.709   4.958
63691SOL    HW292913  13.328  10.646   5.006
63692SOL     OW92914   2.964  12.821   9.341
63692SOL    HW192915   2.907  12.807   9.265
63692SOL    HW292916   3.046  12.854   9.304
63693SOL     OW92917   2.699   5.063   2.026
63693SOL    HW192918   2.609   5.045   2.000
63693SOL    HW292919   2.705   5.158   2.029
63694SOL     OW92920   5.645  14.775   9.938
63694SOL    HW192921   5.691  14.854   9.968
63694SOL    HW292922   5.598  14.803   9.859
63695SOL     OW92923   7.244   0.243   4.915
63695SOL    HW192924   7.174   0.295   4.953
63695SOL    HW292925   7.200   0.181   4.858
63696SOL     OW92926  14.033   6.974   2.361
63696SOL    HW192927  14.056   6.923   2.283
63696SOL    HW292928  13.965   7.034   2.331
63697SOL     OW92929   2.893  14.795   6.156
63697SOL    HW192930   2.861  14.852   6.086
63697SOL    HW292931   2.815  14.766   6.203
63698SOL     OW92932   4.014   1.493   1.915
63698SOL    HW192933   4.078   1.476   1.846
63698SOL    HW292934   4.035   1.429   1.983
63699SOL     OW92935   4.452   5.351  12.833
63699SOL    HW192936   4.422   5.265  12.861
63699SOL    HW292937   4.450   5.348  12.737
63700SOL     OW92938  14.654  13.384   8.383
63700SOL    HW192939  14.560  13.375   8.369
63700SOL    HW292940  14.662  13.450   8.452
63701SOL     OW92941   7.503   7.923  11.466
63701SOL    HW192942   7.414   7.901  11.439
63701SOL    HW292943   7.492   7.997  11.526
63702SOL     OW92944   2.724   0.405   5.196
63702SOL    HW192945   2.731   0.500   5.207
63702SOL    HW292946   2.815   0.374   5.201
63703SOL     OW92947   8.744   8.425   2.545
63703SOL    HW192948   8.738   8.361   2.473
63703SOL    HW292949   8.654   8.434   2.577
63704SOL     OW92950   3.812   9.546  14.123
63704SOL    HW192951   3.862   9.610  14.174
63704SOL    HW292952   3.820   9.576  14.033
63705SOL     OW92953  10.774   8.729   1.106
63705SOL    HW192954  10.864   8.707   1.127
63705SOL    HW292955  10.732   8.644   1.091
63706SOL     OW92956  13.818   0.957   6.175
63706SOL    HW192957  13.816   0.981   6.082
63706SOL    HW292958  13.909   0.966   6.200
63707SOL     OW92959  14.698   6.752   8.383
63707SOL    HW192960  14.711   6.674   8.437
63707SOL    HW292961  14.651   6.812   8.440
63708SOL     OW92962   4.533   9.439   3.615
63708SOL    HW192963   4.455   9.488   3.588
63708SOL    HW292964   4.508   9.347   3.606
63709SOL     OW92965  10.715   3.787   3.324
63709SOL    HW192966  10.653   3.729   3.367
63709SOL    HW292967  10.780   3.729   3.285
63710SOL     OW92968  13.965   7.451  13.355
63710SOL    HW192969  13.907   7.527  13.354
63710SOL    HW292970  14.031   7.472  13.421
63711SOL     OW92971  14.825   1.130   5.184
63711SOL    HW192972  14.738   1.162   5.208
63711SOL    HW292973  14.852   1.187   5.112
63712SOL     OW92974  10.954   5.947   2.720
63712SOL    HW192975  10.887   6.003   2.758
63712SOL    HW292976  10.978   5.887   2.791
63713SOL     OW92977   8.586   2.048  10.889
63713SOL    HW192978   8.608   2.113  10.955
63713SOL    HW292979   8.493   2.065  10.870
63714SOL     OW92980   3.738  11.664  12.255
63714SOL    HW192981   3.644  11.665  12.237
63714SOL    HW292982   3.747  11.610  12.334
63715SOL     OW92983   9.943   8.974   2.665
63715SOL    HW192984   9.951   8.899   2.606
63715SOL    HW292985   9.925   9.048   2.607
63716SOL     OW92986   8.063   8.502   6.331
63716SOL    HW192987   8.074   8.408   6.345
63716SOL    HW292988   8.151   8.534   6.314
63717SOL     OW92989   0.273   3.319  12.685
63717SOL    HW192990   0.334   3.387  12.656
63717SOL    HW292991   0.244   3.349  12.771
63718SOL     OW92992   9.027   5.134  11.593
63718SOL    HW192993   8.933   5.150  11.599
63718SOL    HW292994   9.040   5.101  11.504
63719SOL     OW92995   8.266   2.403   2.222
63719SOL    HW192996   8.265   2.497   2.203
63719SOL    HW292997   8.185   2.370   2.184
63720SOL     OW92998   3.335   7.854   7.937
63720SOL    HW192999   3.370   7.778   7.889
63720SOL    HW293000   3.377   7.848   8.023
63721SOL     OW93001   4.541  13.892   5.817
63721SOL    HW193002   4.598  13.966   5.796
63721SOL    HW293003   4.565  13.867   5.906
63722SOL     OW93004   4.403   4.722   2.599
63722SOL    HW193005   4.336   4.728   2.532
63722SOL    HW293006   4.396   4.805   2.647
63723SOL     OW93007   6.244  12.775   4.918
63723SOL    HW193008   6.149  12.786   4.925
63723SOL    HW293009   6.280  12.857   4.953
63724SOL     OW93010   3.412   2.968   3.491
63724SOL    HW193011   3.348   2.964   3.420
63724SOL    HW293012   3.471   2.894   3.474
63725SOL     OW93013   9.934   7.361  12.856
63725SOL    HW193014  10.021   7.357  12.817
63725SOL    HW293015   9.881   7.300  12.804
63726SOL     OW93016   9.285   9.555  11.608
63726SOL    HW193017   9.272   9.474  11.559
63726SOL    HW293018   9.303   9.621  11.541
63727SOL     OW93019   7.690  13.818  14.271
63727SOL    HW193020   7.696  13.894  14.329
63727SOL    HW293021   7.738  13.845  14.192
63728SOL     OW93022  11.861   7.011   7.474
63728SOL    HW193023  11.884   6.972   7.558
63728SOL    HW293024  11.939   7.060   7.448
63729SOL     OW93025   2.685   7.616   4.936
63729SOL    HW193026   2.647   7.661   4.861
63729SOL    HW293027   2.615   7.611   5.000
63730SOL     OW93028  10.390  14.750  10.909
63730SOL    HW193029  10.459  14.758  10.975
63730SOL    HW293030  10.379  14.656  10.896
63731SOL     OW93031   5.988   4.360   2.321
63731SOL    HW193032   5.951   4.309   2.393
63731SOL    HW293033   5.993   4.298   2.248
63732SOL     OW93034  10.844   7.623   7.494
63732SOL    HW193035  10.895   7.688   7.446
63732SOL    HW293036  10.857   7.542   7.447
63733SOL     OW93037   4.202   2.103  12.139
63733SOL    HW193038   4.177   2.080  12.050
63733SOL    HW293039   4.298   2.098  12.140
63734SOL     OW93040   0.543  11.909   6.625
63734SOL    HW193041   0.501  11.993   6.644
63734SOL    HW293042   0.564  11.913   6.532
63735SOL     OW93043   6.474  13.207   1.735
63735SOL    HW193044   6.467  13.167   1.649
63735SOL    HW293045   6.566  13.197   1.760
63736SOL     OW93046   0.145   9.127  14.708
63736SOL    HW193047   0.190   9.210  14.695
63736SOL    HW293048   0.052   9.150  14.712
63737SOL     OW93049   3.170  13.316   7.140
63737SOL    HW193050   3.157  13.252   7.069
63737SOL    HW293051   3.244  13.281   7.190
63738SOL     OW93052   5.764   6.963   1.641
63738SOL    HW193053   5.677   7.001   1.629
63738SOL    HW293054   5.755   6.905   1.717
63739SOL     OW93055   3.874   8.938   6.162
63739SOL    HW193056   3.828   8.936   6.079
63739SOL    HW293057   3.933   9.013   6.156
63740SOL     OW93058   6.186   6.296   8.974
63740SOL    HW193059   6.151   6.296   9.064
63740SOL    HW293060   6.188   6.204   8.949
63741SOL     OW93061   2.275   7.103   7.802
63741SOL    HW193062   2.334   7.143   7.739
63741SOL    HW293063   2.228   7.176   7.841
63742SOL     OW93064   0.197   1.885   5.228
63742SOL    HW193065   0.265   1.925   5.173
63742SOL    HW293066   0.168   1.955   5.285
63743SOL     OW93067   5.903  10.692  13.613
63743SOL    HW193068   5.853  10.623  13.657
63743SOL    HW293069   5.838  10.744  13.567
63744SOL     OW93070  10.987   7.913   8.598
63744SOL    HW193071  11.002   7.841   8.659
63744SOL    HW293072  11.035   7.987   8.635
63745SOL     OW93073   7.586   7.484   2.421
63745SOL    HW193074   7.558   7.515   2.507
63745SOL    HW293075   7.629   7.559   2.381
63746SOL     OW93076   9.269   7.012   4.073
63746SOL    HW193077   9.216   7.089   4.096
63746SOL    HW293078   9.253   6.950   4.144
63747SOL     OW93079  13.346   5.022   3.651
63747SOL    HW193080  13.268   5.073   3.671
63747SOL    HW293081  13.365   4.973   3.731
63748SOL     OW93082   1.632   6.988  10.670
63748SOL    HW193083   1.692   7.022  10.737
63748SOL    HW293084   1.545   7.013  10.701
63749SOL     OW93085  12.097   5.215  12.816
63749SOL    HW193086  12.140   5.167  12.745
63749SOL    HW293087  12.014   5.169  12.828
63750SOL     OW93088   1.243   3.677  10.686
63750SOL    HW193089   1.237   3.689  10.591
63750SOL    HW293090   1.172   3.731  10.722
63751SOL     OW93091  11.889   4.000   5.893
63751SOL    HW193092  11.931   4.079   5.924
63751SOL    HW293093  11.799   4.027   5.873
63752SOL     OW93094   6.759  14.330   8.163
63752SOL    HW193095   6.727  14.307   8.075
63752SOL    HW293096   6.832  14.390   8.147
63753SOL     OW93097  14.098  10.855   5.738
63753SOL    HW193098  14.076  10.858   5.645
63753SOL    HW293099  14.164  10.786   5.745
63754SOL     OW93100  10.891   7.088  10.809
63754SOL    HW193101  10.826   7.019  10.809
63754SOL    HW293102  10.843   7.167  10.784
63755SOL     OW93103   0.339   1.638  14.530
63755SOL    HW193104   0.426   1.636  14.569
63755SOL    HW293105   0.280   1.606  14.598
63756SOL     OW93106  11.545   9.064  13.598
63756SOL    HW193107  11.500   9.045  13.680
63756SOL    HW293108  11.631   9.024  13.607
63757SOL     OW93109  14.043   6.779   4.447
63757SOL    HW193110  13.994   6.757   4.527
63757SOL    HW293111  14.002   6.725   4.379
63758SOL     OW93112   2.138  12.955  11.628
63758SOL    HW193113   2.199  13.028  11.643
63758SOL    HW293114   2.147  12.936  11.535
63759SOL     OW93115   3.065   2.301   9.611
63759SOL    HW193116   2.985   2.315   9.560
63759SOL    HW293117   3.041   2.322   9.701
63760SOL     OW93118   1.123  10.939   9.119
63760SOL    HW193119   1.162  10.881   9.185
63760SOL    HW293120   1.197  10.969   9.067
63761SOL     OW93121   7.540   1.043  10.853
63761SOL    HW193122   7.615   0.992  10.824
63761SOL    HW293123   7.480   0.978  10.891
63762SOL     OW93124  11.990   6.623   8.751
63762SOL    HW193125  12.065   6.678   8.730
63762SOL    HW293126  11.914   6.678   8.732
63763SOL     OW93127   1.128  13.049   4.107
63763SOL    HW193128   1.103  13.023   4.019
63763SOL    HW293129   1.046  13.047   4.157
63764SOL     OW93130   1.106   4.889   9.105
63764SOL    HW193131   1.126   4.971   9.149
63764SOL    HW293132   1.184   4.869   9.054
63765SOL     OW93133  13.557  13.936   8.127
63765SOL    HW193134  13.539  13.962   8.036
63765SOL    HW293135  13.481  13.967   8.176
63766SOL     OW93136   1.319  11.443   0.845
63766SOL    HW193137   1.272  11.489   0.775
63766SOL    HW293138   1.403  11.487   0.851
63767SOL     OW93139  11.734   4.195   9.292
63767SOL    HW193140  11.725   4.289   9.275
63767SOL    HW293141  11.676   4.154   9.227
63768SOL     OW93142   3.506   0.676  13.927
63768SOL    HW193143   3.566   0.641  13.862
63768SOL    HW293144   3.542   0.763  13.948
63769SOL     OW93145   1.890   6.371  11.467
63769SOL    HW193146   1.948   6.398  11.396
63769SOL    HW293147   1.866   6.453  11.510
63770SOL     OW93148  12.368   7.707   3.526
63770SOL    HW193149  12.458   7.707   3.493
63770SOL    HW293150  12.320   7.763   3.465
63771SOL     OW93151  12.791   2.155  12.184
63771SOL    HW193152  12.710   2.193  12.149
63771SOL    HW293153  12.808   2.078  12.130
63772SOL     OW93154  12.721   0.639   9.283
63772SOL    HW193155  12.737   0.576   9.354
63772SOL    HW293156  12.627   0.633   9.266
63773SOL     OW93157   9.087  13.625  11.169
63773SOL    HW193158   9.049  13.608  11.083
63773SOL    HW293159   9.088  13.721  11.177
63774SOL     OW93160   3.747   6.034   3.555
63774SOL    HW193161   3.751   6.040   3.650
63774SOL    HW293162   3.804   5.960   3.533
63775SOL     OW93163   3.565   9.793   3.078
63775SOL    HW193164   3.593   9.757   3.162
63775SOL    HW293165   3.550   9.716   3.023
63776SOL     OW93166  11.136   0.465   4.634
63776SOL    HW193167  11.133   0.415   4.715
63776SOL    HW293168  11.059   0.438   4.585
63777SOL     OW93169  14.796   3.000   3.378
63777SOL    HW193170  14.769   3.073   3.322
63777SOL    HW293171  14.867   3.035   3.431
63778SOL     OW93172   1.301   9.794  14.349
63778SOL    HW193173   1.363   9.748  14.293
63778SOL    HW293174   1.312   9.754  14.435
63779SOL     OW93175   3.002  12.983   3.281
63779SOL    HW193176   3.044  12.897   3.287
63779SOL    HW293177   3.057  13.040   3.335
63780SOL     OW93178  10.095   1.114   6.891
63780SOL    HW193179  10.103   1.206   6.916
63780SOL    HW293180  10.182   1.090   6.858
63781SOL     OW93181   8.505  12.072   5.066
63781SOL    HW193182   8.484  12.010   4.996
63781SOL    HW293183   8.497  12.021   5.146
63782SOL     OW93184   7.464  13.337  11.664
63782SOL    HW193185   7.418  13.415  11.632
63782SOL    HW293186   7.537  13.372  11.715
63783SOL     OW93187   1.488   5.679   7.834
63783SOL    HW193188   1.438   5.686   7.915
63783SOL    HW293189   1.579   5.696   7.860
63784SOL     OW93190  12.614   1.572  10.101
63784SOL    HW193191  12.580   1.520  10.174
63784SOL    HW293192  12.704   1.592  10.126
63785SOL     OW93193   1.685  11.552   8.550
63785SOL    HW193194   1.770  11.574   8.512
63785SOL    HW293195   1.706  11.509   8.633
63786SOL     OW93196   2.008  13.668  10.498
63786SOL    HW193197   1.988  13.586  10.452
63786SOL    HW293198   1.955  13.663  10.578
63787SOL     OW93199   4.263  11.756   1.548
63787SOL    HW193200   4.291  11.839   1.588
63787SOL    HW293201   4.301  11.689   1.604
63788SOL     OW93202  13.268   7.593  11.976
63788SOL    HW193203  13.285   7.584  11.883
63788SOL    HW293204  13.301   7.511  12.014
63789SOL     OW93205   7.484   5.550   9.537
63789SOL    HW193206   7.445   5.494   9.471
63789SOL    HW293207   7.572   5.568   9.505
63790SOL     OW93208  10.251   2.618   3.657
63790SOL    HW193209  10.208   2.698   3.627
63790SOL    HW293210  10.181   2.553   3.662
63791SOL     OW93211  10.679   5.906   4.335
63791SOL    HW193212  10.748   5.858   4.290
63791SOL    HW293213  10.644   5.966   4.269
63792SOL     OW93214  14.681   2.644  12.034
63792SOL    HW193215  14.626   2.723  12.040
63792SOL    HW293216  14.766   2.671  12.069
63793SOL     OW93217   3.307   8.134   3.324
63793SOL    HW193218   3.400   8.156   3.328
63793SOL    HW293219   3.302   8.063   3.260
63794SOL     OW93220   1.542   7.081   1.683
63794SOL    HW193221   1.469   7.143   1.673
63794SOL    HW293222   1.511   7.018   1.749
63795SOL     OW93223  10.675  13.539  11.885
63795SOL    HW193224  10.745  13.572  11.829
63795SOL    HW293225  10.594  13.566  11.841
63796SOL     OW93226   0.085  14.512   6.097
63796SOL    HW193227   0.119  14.597   6.071
63796SOL    HW293228   0.161  14.464   6.129
63797SOL     OW93229   9.650   2.619   7.605
63797SOL    HW193230   9.739   2.591   7.581
63797SOL    HW293231   9.664   2.704   7.648
63798SOL     OW93232   0.639   0.273  13.312
63798SOL    HW193233   0.621   0.251  13.403
63798SOL    HW293234   0.614   0.194  13.263
63799SOL     OW93235  11.385  12.202  10.029
63799SOL    HW193236  11.297  12.241  10.036
63799SOL    HW293237  11.424  12.218  10.115
63800SOL     OW93238   0.018  11.479   3.135
63800SOL    HW193239  14.823  11.536   3.128
63800SOL    HW293240   0.087  11.537   3.168
63801SOL     OW93241   2.588  13.889   6.983
63801SOL    HW193242   2.550  13.921   6.901
63801SOL    HW293243   2.557  13.799   6.991
63802SOL     OW93244  11.972   4.783   4.623
63802SOL    HW193245  11.886   4.806   4.656
63802SOL    HW293246  12.031   4.847   4.663
63803SOL     OW93247   0.510  10.174   8.400
63803SOL    HW193248   0.501  10.181   8.305
63803SOL    HW293249   0.429  10.210   8.435
63804SOL     OW93250   7.673   6.086   8.216
63804SOL    HW193251   7.729   6.040   8.154
63804SOL    HW293252   7.604   6.024   8.238
63805SOL     OW93253   8.688   8.090   4.628
63805SOL    HW193254   8.745   8.026   4.670
63805SOL    HW293255   8.601   8.048   4.628
63806SOL     OW93256  11.828   8.917   1.384
63806SOL    HW193257  11.772   8.993   1.402
63806SOL    HW293258  11.878   8.906   1.465
63807SOL     OW93259   1.302   4.659   4.102
63807SOL    HW193260   1.260   4.704   4.176
63807SOL    HW293261   1.392   4.645   4.131
63808SOL     OW93262   5.169  11.551   0.080
63808SOL    HW193263   5.099  11.614   0.065
63808SOL    HW293264   5.249  11.604   0.080
63809SOL     OW93265   0.435   1.928   8.864
63809SOL    HW193266   0.411   1.839   8.887
63809SOL    HW293267   0.354   1.966   8.829
63810SOL     OW93268  13.090  11.396   1.138
63810SOL    HW193269  13.067  11.303   1.136
63810SOL    HW293270  13.186  11.397   1.144
63811SOL     OW93271  13.628   2.762   8.241
63811SOL    HW193272  13.551   2.801   8.200
63811SOL    HW293273  13.606   2.757   8.334
63812SOL     OW93274  11.847  13.672   0.652
63812SOL    HW193275  11.834  13.646   0.743
63812SOL    HW293276  11.846  13.591   0.602
63813SOL     OW93277   5.108   1.427  11.534
63813SOL    HW193278   5.095   1.510  11.579
63813SOL    HW293279   5.181   1.445  11.474
63814SOL     OW93280   8.775  11.304   8.600
63814SOL    HW193281   8.751  11.291   8.692
63814SOL    HW293282   8.783  11.215   8.565
63815SOL     OW93283  14.492  10.994  11.156
63815SOL    HW193284  14.558  11.064  11.156
63815SOL    HW293285  14.543  10.914  11.143
63816SOL     OW93286   2.331  12.540   4.498
63816SOL    HW193287   2.307  12.512   4.586
63816SOL    HW293288   2.426  12.530   4.494
63817SOL     OW93289   8.238   5.360   8.136
63817SOL    HW193290   8.228   5.394   8.047
63817SOL    HW293291   8.181   5.283   8.139
63818SOL     OW93292  12.707   1.955  10.399
63818SOL    HW193293  12.766   2.026  10.427
63818SOL    HW293294  12.753   1.875  10.424
63819SOL     OW93295  10.043   8.849  13.002
63819SOL    HW193296  10.077   8.911  13.067
63819SOL    HW293297  10.092   8.768  13.018
63820SOL     OW93298  11.904  14.408   0.346
63820SOL    HW193299  11.873  14.498   0.347
63820SOL    HW293300  11.873  14.373   0.263
63821SOL     OW93301  12.828   6.123  13.988
63821SOL    HW193302  12.861   6.151  13.903
63821SOL    HW293303  12.836   6.200  14.043
63822SOL     OW93304  14.163  12.833   0.532
63822SOL    HW193305  14.203  12.767   0.588
63822SOL    HW293306  14.146  12.788   0.450
63823SOL     OW93307   0.076   6.658   9.729
63823SOL    HW193308   0.038   6.584   9.777
63823SOL    HW293309   0.050   6.644   9.638
63824SOL     OW93310  14.217  12.577  12.635
63824SOL    HW193311  14.257  12.492  12.653
63824SOL    HW293312  14.258  12.607  12.553
63825SOL     OW93313   2.212   3.518  10.533
63825SOL    HW193314   2.185   3.426  10.538
63825SOL    HW293315   2.303   3.518  10.563
63826SOL     OW93316  14.006  14.260  13.710
63826SOL    HW193317  14.070  14.221  13.770
63826SOL    HW293318  14.006  14.202  13.634
63827SOL     OW93319  11.620  11.605   6.967
63827SOL    HW193320  11.597  11.691   6.933
63827SOL    HW293321  11.600  11.610   7.061
63828SOL     OW93322   3.009   7.243   8.291
63828SOL    HW193323   2.999   7.305   8.363
63828SOL    HW293324   2.920   7.231   8.257
63829SOL     OW93325  13.414   5.056   6.102
63829SOL    HW193326  13.382   5.080   6.016
63829SOL    HW293327  13.337   5.022   6.148
63830SOL     OW93328  12.041   7.059   7.069
63830SOL    HW193329  12.080   7.110   6.997
63830SOL    HW293330  11.955   7.033   7.036
63831SOL     OW93331   7.864  10.496   1.006
63831SOL    HW193332   7.796  10.498   1.073
63831SOL    HW293333   7.836  10.561   0.942
63832SOL     OW93334   2.955  13.759  13.627
63832SOL    HW193335   3.013  13.831  13.651
63832SOL    HW293336   2.939  13.712  13.709
63833SOL     OW93337   2.979  13.365  14.606
63833SOL    HW193338   2.935  13.336  14.686
63833SOL    HW293339   2.996  13.284  14.557
63834SOL     OW93340   6.596   4.860   6.272
63834SOL    HW193341   6.661   4.806   6.316
63834SOL    HW293342   6.539   4.797   6.227
63835SOL     OW93343   1.378   3.268  13.036
63835SOL    HW193344   1.315   3.270  12.964
63835SOL    HW293345   1.459   3.234  12.996
63836SOL     OW93346   0.050   9.847   7.483
63836SOL    HW193347  14.843   9.870   7.511
63836SOL    HW293348   0.104   9.919   7.515
63837SOL     OW93349   0.347  12.594  13.963
63837SOL    HW193350   0.431  12.553  13.942
63837SOL    HW293351   0.352  12.616  14.056
63838SOL     OW93352  14.589   9.009   0.965
63838SOL    HW193353  14.642   8.937   0.929
63838SOL    HW293354  14.613   9.012   1.058
63839SOL     OW93355  12.881  13.038   5.866
63839SOL    HW193356  12.971  13.029   5.835
63839SOL    HW293357  12.827  13.017   5.789
63840SOL     OW93358   8.439   1.263   7.839
63840SOL    HW193359   8.383   1.341   7.841
63840SOL    HW293360   8.469   1.258   7.748
63841SOL     OW93361   5.528   8.096   3.543
63841SOL    HW193362   5.601   8.147   3.578
63841SOL    HW293363   5.554   8.005   3.553
63842SOL     OW93364  13.321   8.808  11.660
63842SOL    HW193365  13.412   8.786  11.680
63842SOL    HW293366  13.295   8.745  11.594
63843SOL     OW93367   7.808   7.109   3.064
63843SOL    HW193368   7.823   7.048   3.137
63843SOL    HW293369   7.891   7.155   3.054
63844SOL     OW93370   5.034   7.043   8.184
63844SOL    HW193371   4.989   7.082   8.109
63844SOL    HW293372   4.980   7.065   8.259
63845SOL     OW93373   9.735  13.816  13.971
63845SOL    HW193374   9.665  13.867  14.012
63845SOL    HW293375   9.811  13.832  14.026
63846SOL     OW93376   5.401   2.359   9.949
63846SOL    HW193377   5.475   2.305   9.921
63846SOL    HW293378   5.436   2.449   9.950
63847SOL     OW93379   2.125   8.841   7.482
63847SOL    HW193380   2.121   8.936   7.482
63847SOL    HW293381   2.051   8.813   7.536
63848SOL     OW93382   6.171   0.688  13.446
63848SOL    HW193383   6.143   0.631  13.518
63848SOL    HW293384   6.125   0.654  13.369
63849SOL     OW93385  11.539  13.067   7.728
63849SOL    HW193386  11.514  13.093   7.817
63849SOL    HW293387  11.491  13.129   7.671
63850SOL     OW93388  10.284   0.336   0.188
63850SOL    HW193389  10.346   0.408   0.170
63850SOL    HW293390  10.198   0.375   0.173
63851SOL     OW93391  14.580   5.779  12.224
63851SOL    HW193392  14.652   5.826  12.266
63851SOL    HW293393  14.588   5.690  12.258
63852SOL     OW93394  14.249   1.461   9.245
63852SOL    HW193395  14.253   1.366   9.232
63852SOL    HW293396  14.223   1.472   9.336
63853SOL     OW93397   5.921  14.591   1.920
63853SOL    HW193398   5.829  14.594   1.944
63853SOL    HW293399   5.962  14.662   1.971
63854SOL     OW93400  13.799  13.890  11.669
63854SOL    HW193401  13.731  13.836  11.708
63854SOL    HW293402  13.757  13.975  11.655
63855SOL     OW93403   9.030   8.428   6.118
63855SOL    HW193404   9.057   8.418   6.210
63855SOL    HW293405   9.064   8.514   6.093
63856SOL     OW93406  11.019   2.950   8.715
63856SOL    HW193407  11.028   2.874   8.657
63856SOL    HW293408  11.072   2.928   8.792
63857SOL     OW93409   2.947   0.068   2.420
63857SOL    HW193410   2.900   0.025   2.491
63857SOL    HW293411   2.959   0.158   2.450
63858SOL     OW93412  12.201  13.098   7.443
63858SOL    HW193413  12.265  13.080   7.513
63858SOL    HW293414  12.128  13.140   7.488
63859SOL     OW93415  11.707  13.449   2.612
63859SOL    HW193416  11.653  13.377   2.644
63859SOL    HW293417  11.663  13.528   2.643
63860SOL     OW93418   8.566   9.596   1.170
63860SOL    HW193419   8.567   9.592   1.075
63860SOL    HW293420   8.496   9.657   1.191
63861SOL     OW93421  14.021   3.508  11.833
63861SOL    HW193422  14.031   3.448  11.907
63861SOL    HW293423  14.106   3.508  11.789
63862SOL     OW93424   3.187  11.449   4.997
63862SOL    HW193425   3.214  11.459   4.905
63862SOL    HW293426   3.205  11.534   5.037
63863SOL     OW93427   8.275   0.811   5.418
63863SOL    HW193428   8.367   0.795   5.437
63863SOL    HW293429   8.274   0.837   5.326
63864SOL     OW93430  13.286   8.071   4.118
63864SOL    HW193431  13.303   7.978   4.129
63864SOL    HW293432  13.373   8.109   4.101
63865SOL     OW93433  12.278   5.553  10.587
63865SOL    HW193434  12.346   5.574  10.522
63865SOL    HW293435  12.200   5.596  10.555
63866SOL     OW93436   6.285   1.420   0.114
63866SOL    HW193437   6.303   1.511   0.139
63866SOL    HW293438   6.251   1.426   0.025
63867SOL     OW93439   8.707   0.468  11.381
63867SOL    HW193440   8.672   0.504  11.299
63867SOL    HW293441   8.758   0.539  11.419
63868SOL     OW93442  11.912   0.946  13.664
63868SOL    HW193443  11.840   0.994  13.624
63868SOL    HW293444  11.985   1.008  13.664
63869SOL     OW93445   7.042   2.766  11.265
63869SOL    HW193446   7.126   2.807  11.286
63869SOL    HW293447   7.063   2.697  11.203
63870SOL     OW93448  13.118   9.500   5.487
63870SOL    HW193449  13.194   9.508   5.544
63870SOL    HW293450  13.098   9.406   5.488
63871SOL     OW93451  12.663   7.925  13.852
63871SOL    HW193452  12.738   7.966  13.895
63871SOL    HW293453  12.702   7.873  13.781
63872SOL     OW93454   5.006   8.442  11.877
63872SOL    HW193455   4.933   8.493  11.844
63872SOL    HW293456   4.966   8.369  11.924
63873SOL     OW93457   9.230   5.510   0.013
63873SOL    HW193458   9.294   5.483  14.829
63873SOL    HW293459   9.229   5.439   0.076
63874SOL     OW93460   9.653   9.632   0.786
63874SOL    HW193461   9.590   9.588   0.844
63874SOL    HW293462   9.612   9.628   0.699
63875SOL     OW93463   2.698   0.398   3.587
63875SOL    HW193464   2.765   0.339   3.553
63875SOL    HW293465   2.625   0.389   3.526
63876SOL     OW93466   7.051   9.874   8.088
63876SOL    HW193467   7.027   9.963   8.113
63876SOL    HW293468   7.118   9.849   8.151
63877SOL     OW93469  10.455   0.415   9.203
63877SOL    HW193470  10.398   0.402   9.128
63877SOL    HW293471  10.517   0.342   9.200
63878SOL     OW93472  14.140   7.627   6.754
63878SOL    HW193473  14.192   7.707   6.753
63878SOL    HW293474  14.203   7.557   6.735
63879SOL     OW93475   6.590   3.336   2.338
63879SOL    HW193476   6.617   3.320   2.429
63879SOL    HW293477   6.524   3.405   2.345
63880SOL     OW93478  10.510   5.945   6.599
63880SOL    HW193479  10.599   5.923   6.623
63880SOL    HW293480  10.519   6.007   6.526
63881SOL     OW93481  12.665   0.359  12.327
63881SOL    HW193482  12.746   0.309  12.317
63881SOL    HW293483  12.603   0.318  12.266
63882SOL     OW93484   1.842  13.010   9.749
63882SOL    HW193485   1.910  12.989   9.685
63882SOL    HW293486   1.874  13.089   9.793
63883SOL     OW93487   0.382  13.136  13.792
63883SOL    HW193488   0.372  13.159  13.700
63883SOL    HW293489   0.474  13.113  13.801
63884SOL     OW93490   2.020   1.662   7.275
63884SOL    HW193491   2.037   1.754   7.292
63884SOL    HW293492   2.056   1.616   7.350
63885SOL     OW93493   2.208  11.327  13.773
63885SOL    HW193494   2.216  11.305  13.866
63885SOL    HW293495   2.291  11.299  13.734
63886SOL     OW93496  11.044  14.850  11.845
63886SOL    HW193497  11.076  14.773  11.892
63886SOL    HW293498  10.967  14.877  11.894
63887SOL     OW93499   0.665  12.112  11.320
63887SOL    HW193500   0.686  12.092  11.229
63887SOL    HW293501   0.709  12.044  11.371
63888SOL     OW93502   1.166   1.805  11.341
63888SOL    HW193503   1.216   1.880  11.309
63888SOL    HW293504   1.075   1.834  11.340
63889SOL     OW93505  13.906   0.983   3.069
63889SOL    HW193506  13.940   0.894   3.059
63889SOL    HW293507  13.819   0.981   3.031
63890SOL     OW93508  13.391   5.455  13.610
63890SOL    HW193509  13.384   5.500  13.526
63890SOL    HW293510  13.483   5.465  13.635
63891SOL     OW93511  11.237   2.072  11.696
63891SOL    HW193512  11.300   2.024  11.749
63891SOL    HW293513  11.174   2.107  11.760
63892SOL     OW93514  10.754   9.911  11.199
63892SOL    HW193515  10.815   9.896  11.127
63892SOL    HW293516  10.685   9.966  11.161
63893SOL     OW93517  11.769   4.502   8.242
63893SOL    HW193518  11.719   4.513   8.323
63893SOL    HW293519  11.709   4.530   8.173
63894SOL     OW93520   6.214   6.985   2.334
63894SOL    HW193521   6.181   7.036   2.260
63894SOL    HW293522   6.297   7.027   2.358
63895SOL     OW93523   4.822   3.588   2.966
63895SOL    HW193524   4.807   3.494   2.960
63895SOL    HW293525   4.851   3.613   2.878
63896SOL     OW93526   5.008   0.156  10.540
63896SOL    HW193527   5.033   0.073  10.498
63896SOL    HW293528   5.061   0.222  10.495
63897SOL     OW93529   9.535   4.860  12.531
63897SOL    HW193530   9.533   4.800  12.456
63897SOL    HW293531   9.575   4.940  12.497
63898SOL     OW93532   9.804   0.886   5.505
63898SOL    HW193533   9.841   0.877   5.593
63898SOL    HW293534   9.832   0.972   5.476
63899SOL     OW93535   2.373   9.366  11.661
63899SOL    HW193536   2.442   9.391  11.723
63899SOL    HW293537   2.377   9.434  11.594
63900SOL     OW93538   3.533   7.326   6.902
63900SOL    HW193539   3.561   7.244   6.861
63900SOL    HW293540   3.606   7.351   6.958
63901SOL     OW93541  10.269  12.234   3.341
63901SOL    HW193542  10.181  12.201   3.323
63901SOL    HW293543  10.274  12.317   3.292
63902SOL     OW93544   5.223   5.832   7.706
63902SOL    HW193545   5.150   5.784   7.668
63902SOL    HW293546   5.183   5.888   7.772
63903SOL     OW93547   8.389   9.851   9.120
63903SOL    HW193548   8.447   9.889   9.186
63903SOL    HW293549   8.445   9.788   9.074
63904SOL     OW93550   0.386   1.034  10.856
63904SOL    HW193551   0.436   1.101  10.809
63904SOL    HW293552   0.447   0.961  10.867
63905SOL     OW93553   2.103  12.150   5.803
63905SOL    HW193554   2.174  12.172   5.863
63905SOL    HW293555   2.101  12.054   5.802
63906SOL     OW93556   4.754  12.350  12.362
63906SOL    HW193557   4.685  12.386  12.418
63906SOL    HW293558   4.775  12.266  12.401
63907SOL     OW93559   3.581   1.112   7.249
63907SOL    HW193560   3.530   1.057   7.309
63907SOL    HW293561   3.527   1.117   7.169
63908SOL     OW93562  12.369   7.402   9.851
63908SOL    HW193563  12.292   7.450   9.821
63908SOL    HW293564  12.422   7.467   9.897
63909SOL     OW93565   4.519  13.289   4.498
63909SOL    HW193566   4.604  13.257   4.468
63909SOL    HW293567   4.540  13.368   4.549
63910SOL     OW93568   2.399  12.039   5.596
63910SOL    HW193569   2.369  12.129   5.585
63910SOL    HW293570   2.472  12.030   5.534
63911SOL     OW93571  12.671   9.836  13.856
63911SOL    HW193572  12.622   9.756  13.872
63911SOL    HW293573  12.649   9.894  13.929
63912SOL     OW93574   2.440   9.113  12.474
63912SOL    HW193575   2.364   9.070  12.434
63912SOL    HW293576   2.497   9.133  12.400
63913SOL     OW93577   4.749   0.611   6.510
63913SOL    HW193578   4.801   0.532   6.499
63913SOL    HW293579   4.737   0.644   6.421
63914SOL     OW93580   9.755   4.204  12.339
63914SOL    HW193581   9.698   4.225  12.413
63914SOL    HW293582   9.839   4.183  12.379
63915SOL     OW93583   6.387   8.237   7.096
63915SOL    HW193584   6.467   8.222   7.045
63915SOL    HW293585   6.408   8.313   7.151
63916SOL     OW93586  13.349  10.378   5.551
63916SOL    HW193587  13.384  10.344   5.634
63916SOL    HW293588  13.299  10.455   5.576
63917SOL     OW93589   2.070   6.819   6.918
63917SOL    HW193590   2.055   6.908   6.888
63917SOL    HW293591   2.069   6.767   6.838
63918SOL     OW93592   5.281   2.865   0.149
63918SOL    HW193593   5.331   2.829   0.076
63918SOL    HW293594   5.304   2.808   0.223
63919SOL     OW93595   1.061   3.646   1.627
63919SOL    HW193596   0.995   3.619   1.564
63919SOL    HW293597   1.041   3.598   1.707
63920SOL     OW93598   9.372  11.653   5.417
63920SOL    HW193599   9.429  11.579   5.395
63920SOL    HW293600   9.284  11.617   5.413
63921SOL     OW93601  11.595   0.397   5.705
63921SOL    HW193602  11.652   0.448   5.647
63921SOL    HW293603  11.510   0.399   5.663
63922SOL     OW93604   3.249   8.627   3.458
63922SOL    HW193605   3.322   8.689   3.450
63922SOL    HW293606   3.232   8.598   3.369
63923SOL     OW93607  14.464  12.438   0.488
63923SOL    HW193608  14.436  12.414   0.399
63923SOL    HW293609  14.486  12.354   0.529
63924SOL     OW93610   3.416   4.695  13.765
63924SOL    HW193611   3.365   4.696  13.846
63924SOL    HW293612   3.366   4.751  13.706
63925SOL     OW93613   9.133   5.251   3.755
63925SOL    HW193614   9.128   5.294   3.841
63925SOL    HW293615   9.167   5.318   3.697
63926SOL     OW93616  13.682  12.552   1.820
63926SOL    HW193617  13.690  12.528   1.728
63926SOL    HW293618  13.730  12.634   1.828
63927SOL     OW93619   8.595   7.769  11.551
63927SOL    HW193620   8.568   7.706  11.485
63927SOL    HW293621   8.641   7.838  11.502
63928SOL     OW93622   7.071   9.231   9.044
63928SOL    HW193623   7.081   9.183   9.126
63928SOL    HW293624   7.147   9.205   8.991
63929SOL     OW93625   8.971  10.438   5.361
63929SOL    HW193626   8.939  10.349   5.350
63929SOL    HW293627   9.030  10.433   5.436
63930SOL     OW93628  12.196   3.054  12.872
63930SOL    HW193629  12.135   3.121  12.841
63930SOL    HW293630  12.191   3.059  12.967
63931SOL     OW93631  13.355   7.118   1.109
63931SOL    HW193632  13.270   7.083   1.083
63931SOL    HW293633  13.342   7.144   1.201
63932SOL     OW93634  14.641  13.220  14.206
63932SOL    HW193635  14.566  13.258  14.162
63932SOL    HW293636  14.605  13.183  14.287
63933SOL     OW93637  13.749   2.348   0.526
63933SOL    HW193638  13.803   2.323   0.600
63933SOL    HW293639  13.769   2.441   0.512
63934SOL     OW93640   8.136   9.774   3.405
63934SOL    HW193641   8.174   9.804   3.322
63934SOL    HW293642   8.086   9.848   3.437
63935SOL     OW93643   5.898  11.421   0.761
63935SOL    HW193644   5.812  11.427   0.803
63935SOL    HW293645   5.940  11.345   0.801
63936SOL     OW93646   7.230  13.241   8.755
63936SOL    HW193647   7.176  13.319   8.756
63936SOL    HW293648   7.318  13.273   8.776
63937SOL     OW93649   5.138   4.706  14.414
63937SOL    HW193650   5.146   4.624  14.364
63937SOL    HW293651   5.112   4.771  14.349
63938SOL     OW93652  13.715  10.474   4.338
63938SOL    HW193653  13.655  10.538   4.298
63938SOL    HW293654  13.744  10.420   4.264
63939SOL     OW93655   5.178   7.925  14.331
63939SOL    HW193656   5.111   7.860  14.312
63939SOL    HW293657   5.261   7.879  14.317
63940SOL     OW93658   8.448   5.950  11.391
63940SOL    HW193659   8.500   6.027  11.365
63940SOL    HW293660   8.361   5.986  11.410
63941SOL     OW93661   7.237  10.135   8.161
63941SOL    HW193662   7.267  10.064   8.218
63941SOL    HW293663   7.171  10.181   8.213
63942SOL     OW93664   6.071   7.585  10.799
63942SOL    HW193665   6.121   7.531  10.738
63942SOL    HW293666   6.030   7.522  10.858
63943SOL     OW93667   2.009   5.017  12.654
63943SOL    HW193668   2.073   4.964  12.606
63943SOL    HW293669   2.046   5.028  12.741
63944SOL     OW93670   0.647  10.799  10.204
63944SOL    HW193671   0.702  10.722  10.192
63944SOL    HW293672   0.707  10.867  10.235
63945SOL     OW93673   0.467   7.039   1.436
63945SOL    HW193674   0.422   7.020   1.354
63945SOL    HW293675   0.560   7.030   1.414
63946SOL     OW93676   2.292  14.463   5.390
63946SOL    HW193677   2.237  14.533   5.356
63946SOL    HW293678   2.277  14.390   5.330
63947SOL     OW93679   0.796   6.621   4.726
63947SOL    HW193680   0.729   6.587   4.785
63947SOL    HW293681   0.777   6.714   4.719
63948SOL     OW93682  10.781   7.581   5.426
63948SOL    HW193683  10.750   7.663   5.466
63948SOL    HW293684  10.704   7.525   5.424
63949SOL     OW93685   0.925  11.603   6.558
63949SOL    HW193686   0.869  11.568   6.628
63949SOL    HW293687   0.886  11.570   6.478
63950SOL     OW93688   2.802   6.772   5.351
63950SOL    HW193689   2.813   6.678   5.358
63950SOL    HW293690   2.876   6.801   5.297
63951SOL     OW93691   8.785   8.438  13.948
63951SOL    HW193692   8.693   8.411  13.952
63951SOL    HW293693   8.782   8.530  13.923
63952SOL     OW93694  11.308   0.288   6.354
63952SOL    HW193695  11.382   0.283   6.294
63952SOL    HW293696  11.330   0.358   6.415
63953SOL     OW93697   8.165   9.255   6.198
63953SOL    HW193698   8.241   9.219   6.152
63953SOL    HW293699   8.122   9.178   6.236
63954SOL     OW93700   0.597   5.677  10.269
63954SOL    HW193701   0.621   5.599  10.219
63954SOL    HW293702   0.661   5.743  10.244
63955SOL     OW93703   3.154   0.180   9.319
63955SOL    HW193704   3.186   0.090   9.314
63955SOL    HW293705   3.092   0.187   9.247
63956SOL     OW93706   8.860   8.087  10.943
63956SOL    HW193707   8.769   8.057  10.944
63956SOL    HW293708   8.910   8.010  10.916
63957SOL     OW93709  13.880   1.971   4.066
63957SOL    HW193710  13.962   1.984   4.113
63957SOL    HW293711  13.858   1.879   4.082
63958SOL     OW93712   9.853  13.376   7.298
63958SOL    HW193713   9.933  13.373   7.245
63958SOL    HW293714   9.791  13.427   7.246
63959SOL     OW93715   1.398  12.895   1.398
63959SOL    HW193716   1.317  12.938   1.370
63959SOL    HW293717   1.464  12.924   1.335
63960SOL     OW93718   0.369  11.182   2.229
63960SOL    HW193719   0.368  11.118   2.300
63960SOL    HW293720   0.297  11.156   2.172
63961SOL     OW93721   3.367   0.973  13.972
63961SOL    HW193722   3.371   0.900  14.033
63961SOL    HW293723   3.400   1.048  14.023
63962SOL     OW93724   4.362  13.180   9.437
63962SOL    HW193725   4.320  13.108   9.390
63962SOL    HW293726   4.414  13.226   9.371
63963SOL     OW93727   7.849   4.632   0.933
63963SOL    HW193728   7.891   4.706   0.888
63963SOL    HW293729   7.755   4.645   0.918
63964SOL     OW93730  14.305   5.815   4.159
63964SOL    HW193731  14.353   5.861   4.228
63964SOL    HW293732  14.248   5.754   4.206
63965SOL     OW93733   7.892  13.826   5.670
63965SOL    HW193734   7.812  13.822   5.618
63965SOL    HW293735   7.915  13.919   5.670
63966SOL     OW93736  13.445   1.310   6.666
63966SOL    HW193737  13.386   1.290   6.593
63966SOL    HW293738  13.453   1.405   6.665
63967SOL     OW93739  14.050   0.261  10.950
63967SOL    HW193740  14.057   0.233  10.859
63967SOL    HW293741  14.132   0.307  10.968
63968SOL     OW93742  10.799   0.238  14.811
63968SOL    HW193743  10.867   0.208  14.871
63968SOL    HW293744  10.717   0.209  14.851
63969SOL     OW93745   8.391   7.958  11.413
63969SOL    HW193746   8.389   7.865  11.392
63969SOL    HW293747   8.370   8.002  11.330
63970SOL     OW93748   1.815   0.077   3.601
63970SOL    HW193749   1.902   0.115   3.615
63970SOL    HW293750   1.829  14.865   3.605
63971SOL     OW93751   5.332   6.519   4.584
63971SOL    HW193752   5.285   6.439   4.563
63971SOL    HW293753   5.419   6.489   4.612
63972SOL     OW93754   7.026   7.158  11.940
63972SOL    HW193755   7.001   7.169  11.848
63972SOL    HW293756   7.053   7.246  11.968
63973SOL     OW93757   1.212   7.282   4.406
63973SOL    HW193758   1.207   7.365   4.359
63973SOL    HW293759   1.225   7.216   4.338
63974SOL     OW93760   3.026   2.636  10.977
63974SOL    HW193761   2.972   2.679  11.044
63974SOL    HW293762   3.087   2.581  11.026
63975SOL     OW93763  10.205   3.960   7.836
63975SOL    HW193764  10.270   4.015   7.881
63975SOL    HW293765  10.124   4.010   7.841
63976SOL     OW93766   3.975   2.759   6.108
63976SOL    HW193767   4.065   2.747   6.076
63976SOL    HW293768   3.924   2.776   6.029
63977SOL     OW93769   1.084   2.073   3.321
63977SOL    HW193770   1.129   1.994   3.292
63977SOL    HW293771   0.991   2.053   3.314
63978SOL     OW93772   7.334  14.097   6.292
63978SOL    HW193773   7.395  14.076   6.362
63978SOL    HW293774   7.247  14.084   6.331
63979SOL     OW93775   3.887   2.007   1.593
63979SOL    HW193776   3.825   2.005   1.520
63979SOL    HW293777   3.970   2.031   1.552
63980SOL     OW93778   2.621  13.901   5.532
63980SOL    HW193779   2.664  13.855   5.460
63980SOL    HW293780   2.694  13.939   5.582
63981SOL     OW93781   0.201   2.963   3.417
63981SOL    HW193782   0.271   3.026   3.435
63981SOL    HW293783   0.241   2.878   3.434
63982SOL     OW93784   4.783  12.299   9.436
63982SOL    HW193785   4.802  12.239   9.508
63982SOL    HW293786   4.867  12.309   9.390
63983SOL     OW93787   6.344  10.862   2.453
63983SOL    HW193788   6.413  10.850   2.518
63983SOL    HW293789   6.271  10.809   2.485
63984SOL     OW93790  13.564   9.377   7.462
63984SOL    HW193791  13.554   9.282   7.463
63984SOL    HW293792  13.596   9.397   7.375
63985SOL     OW93793  12.718  14.641   6.625
63985SOL    HW193794  12.647  14.577   6.633
63985SOL    HW293795  12.745  14.658   6.716
63986SOL     OW93796   7.207   9.635   7.741
63986SOL    HW193797   7.141   9.687   7.786
63986SOL    HW293798   7.168   9.549   7.731
63987SOL     OW93799  14.274   9.051   7.526
63987SOL    HW193800  14.283   8.959   7.550
63987SOL    HW293801  14.324   9.060   7.445
63988SOL     OW93802   6.936  14.503  10.596
63988SOL    HW193803   6.892  14.421  10.620
63988SOL    HW293804   6.908  14.566  10.662
63989SOL     OW93805  13.819  12.366   7.428
63989SOL    HW193806  13.754  12.356   7.498
63989SOL    HW293807  13.830  12.278   7.394
63990SOL     OW93808  10.478   4.590   4.751
63990SOL    HW193809  10.497   4.502   4.785
63990SOL    HW293810  10.564   4.625   4.727
63991SOL     OW93811  14.172   1.379  14.543
63991SOL    HW193812  14.224   1.435  14.600
63991SOL    HW293813  14.135   1.313  14.601
63992SOL     OW93814   5.895  12.597   1.257
63992SOL    HW193815   5.804  12.596   1.287
63992SOL    HW293816   5.946  12.567   1.332
63993SOL     OW93817   1.651   6.533  12.083
63993SOL    HW193818   1.709   6.538  12.007
63993SOL    HW293819   1.652   6.621  12.120
63994SOL     OW93820  14.881   2.388   5.366
63994SOL    HW193821   0.002   2.412   5.459
63994SOL    HW293822  14.790   2.360   5.352
63995SOL     OW93823  13.661   7.941   8.380
63995SOL    HW193824  13.578   7.897   8.401
63995SOL    HW293825  13.711   7.876   8.331
63996SOL     OW93826   3.919  11.668   8.144
63996SOL    HW193827   3.942  11.651   8.235
63996SOL    HW293828   3.988  11.725   8.112
63997SOL     OW93829   1.145   8.345  14.755
63997SOL    HW193830   1.113   8.336  14.665
63997SOL    HW293831   1.240   8.329  14.748
63998SOL     OW93832   6.134   2.197   6.566
63998SOL    HW193833   6.076   2.127   6.597
63998SOL    HW293834   6.081   2.277   6.575
63999SOL     OW93835   0.642   2.169   5.165
63999SOL    HW193836   0.657   2.252   5.210
63999SOL    HW293837   0.552   2.146   5.189
64000SOL     OW93838   3.249   7.231  11.815
64000SOL    HW193839   3.171   7.197  11.859
64000SOL    HW293840   3.215   7.279  11.740
64001SOL     OW93841  10.167   3.793   8.097
64001SOL    HW193842  10.217   3.786   8.015
64001SOL    HW293843  10.233   3.802   8.165
64002SOL     OW93844   8.407   1.073   6.456
64002SOL    HW193845   8.437   1.163   6.462
64002SOL    HW293846   8.424   1.036   6.543
64003SOL     OW93847   5.861   3.081   2.904
64003SOL    HW193848   5.804   3.150   2.939
64003SOL    HW293849   5.866   3.016   2.975
64004SOL     OW93850   3.116   0.038   0.759
64004SOL    HW193851   3.154  14.879   0.837
64004SOL    HW293852   3.059   0.106   0.794
64005SOL     OW93853  12.805  10.673   4.533
64005SOL    HW193854  12.859  10.613   4.483
64005SOL    HW293855  12.851  10.683   4.617
64006SOL     OW93856  12.956   7.920   3.078
64006SOL    HW193857  12.873   7.967   3.079
64006SOL    HW293858  12.966   7.886   3.167
64007SOL     OW93859  13.556   3.157   6.219
64007SOL    HW193860  13.541   3.204   6.137
64007SOL    HW293861  13.638   3.193   6.252
64008SOL     OW93862   7.193   2.120   4.521
64008SOL    HW193863   7.251   2.157   4.454
64008SOL    HW293864   7.245   2.052   4.564
64009SOL     OW93865   1.503  14.152   9.642
64009SOL    HW193866   1.416  14.139   9.605
64009SOL    HW293867   1.529  14.239   9.611
64010SOL     OW93868  11.773   3.083   8.628
64010SOL    HW193869  11.850   3.026   8.636
64010SOL    HW293870  11.767   3.126   8.713
64011SOL     OW93871   2.405  14.681   8.912
64011SOL    HW193872   2.383  14.774   8.915
64011SOL    HW293873   2.500  14.679   8.906
64012SOL     OW93874   3.287   2.259  14.008
64012SOL    HW193875   3.333   2.176  13.995
64012SOL    HW293876   3.252   2.280  13.921
64013SOL     OW93877   6.122   2.645   1.739
64013SOL    HW193878   6.208   2.663   1.701
64013SOL    HW293879   6.067   2.623   1.664
64014SOL     OW93880  11.236   2.135   3.337
64014SOL    HW193881  11.184   2.065   3.297
64014SOL    HW293882  11.326   2.103   3.332
64015SOL     OW93883   1.082  11.834   0.821
64015SOL    HW193884   1.002  11.787   0.799
64015SOL    HW293885   1.121  11.855   0.736
64016SOL     OW93886   0.478   5.309   6.807
64016SOL    HW193887   0.443   5.221   6.798
64016SOL    HW293888   0.509   5.332   6.719
64017SOL     OW93889   1.040   8.818   1.901
64017SOL    HW193890   1.034   8.906   1.864
64017SOL    HW293891   1.133   8.796   1.896
64018SOL     OW93892   3.132   0.981  12.204
64018SOL    HW193893   3.194   0.907  12.206
64018SOL    HW293894   3.179   1.053  12.245
64019SOL     OW93895  10.231  10.401   6.139
64019SOL    HW193896  10.207  10.454   6.215
64019SOL    HW293897  10.302  10.450   6.098
64020SOL     OW93898   0.517   2.030   1.624
64020SOL    HW193899   0.607   2.013   1.598
64020SOL    HW293900   0.481   2.083   1.552
64021SOL     OW93901   2.239  12.200  14.678
64021SOL    HW193902   2.255  12.172  14.768
64021SOL    HW293903   2.255  12.295  14.679
64022SOL     OW93904   9.876  13.594   3.042
64022SOL    HW193905   9.833  13.517   3.006
64022SOL    HW293906   9.807  13.640   3.091
64023SOL     OW93907   1.078   1.352   2.719
64023SOL    HW193908   1.113   1.426   2.768
64023SOL    HW293909   1.150   1.323   2.664
64024SOL     OW93910   2.764   5.697   8.030
64024SOL    HW193911   2.714   5.759   8.084
64024SOL    HW293912   2.709   5.620   8.025
64025SOL     OW93913  13.947  12.762   2.774
64025SOL    HW193914  14.038  12.749   2.803
64025SOL    HW293915  13.894  12.730   2.846
64026SOL     OW93916   6.481   0.468   2.525
64026SOL    HW193917   6.401   0.417   2.513
64026SOL    HW293918   6.460   0.530   2.594
64027SOL     OW93919   9.727   2.801   2.402
64027SOL    HW193920   9.778   2.729   2.364
64027SOL    HW293921   9.682   2.840   2.327
64028SOL     OW93922   8.854   9.997  12.992
64028SOL    HW193923   8.766   9.972  13.022
64028SOL    HW293924   8.862   9.958  12.905
64029SOL     OW93925   7.637   6.289   6.654
64029SOL    HW193926   7.566   6.263   6.713
64029SOL    HW293927   7.688   6.209   6.641
64030SOL     OW93928   6.739  13.813   1.995
64030SOL    HW193929   6.747  13.724   2.027
64030SOL    HW293930   6.829  13.846   1.994
64031SOL     OW93931   5.286  14.525  14.453
64031SOL    HW193932   5.356  14.560  14.398
64031SOL    HW293933   5.209  14.579  14.432
64032SOL     OW93934  11.621   3.975   6.136
64032SOL    HW193935  11.685   3.930   6.081
64032SOL    HW293936  11.576   3.905   6.183
64033SOL     OW93937   7.840   4.581   4.763
64033SOL    HW193938   7.858   4.542   4.848
64033SOL    HW293939   7.825   4.506   4.705
64034SOL     OW93940   1.381  10.749  12.428
64034SOL    HW193941   1.411  10.839  12.421
64034SOL    HW293942   1.421  10.716  12.509
64035SOL     OW93943  11.968  11.529  12.285
64035SOL    HW193944  11.910  11.542  12.210
64035SOL    HW293945  11.972  11.434  12.296
64036SOL     OW93946   0.259  10.423   9.086
64036SOL    HW193947   0.238  10.355   9.150
64036SOL    HW293948   0.222  10.503   9.123
64037SOL     OW93949   7.610   0.095   5.033
64037SOL    HW193950   7.527   0.097   5.080
64037SOL    HW293951   7.585   0.092   4.940
64038SOL     OW93952   9.555   1.104   8.756
64038SOL    HW193953   9.575   1.182   8.705
64038SOL    HW293954   9.629   1.046   8.740
64039SOL     OW93955   6.541  13.501  11.238
64039SOL    HW193956   6.553  13.506  11.333
64039SOL    HW293957   6.450  13.527  11.224
64040SOL     OW93958   4.226   7.693   0.724
64040SOL    HW193959   4.291   7.634   0.685
64040SOL    HW293960   4.141   7.659   0.694
64041SOL     OW93961   4.371   9.074   5.311
64041SOL    HW193962   4.330   9.056   5.227
64041SOL    HW293963   4.353   8.996   5.364
64042SOL     OW93964   6.657   8.328  10.944
64042SOL    HW193965   6.675   8.421  10.954
64042SOL    HW293966   6.711   8.301  10.870
64043SOL     OW93967   8.647   5.861   6.333
64043SOL    HW193968   8.574   5.851   6.272
64043SOL    HW293969   8.642   5.784   6.390
64044SOL     OW93970  10.587   7.130   9.227
64044SOL    HW193971  10.667   7.093   9.189
64044SOL    HW293972  10.544   7.056   9.270
64045SOL     OW93973  11.708   9.359   5.652
64045SOL    HW193974  11.714   9.455   5.653
64045SOL    HW293975  11.718   9.333   5.743
64046SOL     OW93976  12.527  13.282   8.150
64046SOL    HW193977  12.604  13.339   8.150
64046SOL    HW293978  12.562  13.194   8.137
64047SOL     OW93979   0.585   9.482   6.332
64047SOL    HW193980   0.561   9.389   6.334
64047SOL    HW293981   0.661   9.488   6.390
64048SOL     OW93982  14.548   1.907   3.612
64048SOL    HW193983  14.593   1.939   3.534
64048SOL    HW293984  14.547   1.982   3.672
64049SOL     OW93985  14.682   1.768  12.620
64049SOL    HW193986  14.593   1.797  12.639
64049SOL    HW293987  14.708   1.818  12.543
64050SOL     OW93988   4.288   0.439   9.410
64050SOL    HW193989   4.315   0.347   9.411
64050SOL    HW293990   4.205   0.439   9.363
64051SOL     OW93991   8.333   2.240   7.762
64051SOL    HW193992   8.308   2.160   7.715
64051SOL    HW293993   8.304   2.311   7.704
64052SOL     OW93994   0.737   9.082   5.267
64052SOL    HW193995   0.646   9.082   5.298
64052SOL    HW293996   0.749   9.169   5.229
64053SOL     OW93997   9.712  13.431   3.296
64053SOL    HW193998   9.725  13.463   3.385
64053SOL    HW293999   9.700  13.510   3.244
64054SOL     OW94000  11.844   0.989   8.066
64054SOL    HW194001  11.913   1.047   8.034
64054SOL    HW294002  11.776   1.048   8.098
64055SOL     OW94003   8.223   3.454   8.896
64055SOL    HW194004   8.141   3.502   8.883
64055SOL    HW294005   8.203   3.392   8.966
64056SOL     OW94006   8.298   7.304   5.988
64056SOL    HW194007   8.393   7.293   5.983
64056SOL    HW294008   8.283   7.396   5.969
64057SOL     OW94009   3.453  10.978   6.619
64057SOL    HW194010   3.509  11.040   6.666
64057SOL    HW294011   3.427  11.024   6.540
64058SOL     OW94012  10.952  13.915  12.196
64058SOL    HW194013  10.953  13.867  12.279
64058SOL    HW294014  11.025  13.977  12.204
64059SOL     OW94015   1.781   5.446  11.387
64059SOL    HW194016   1.722   5.451  11.462
64059SOL    HW294017   1.809   5.355  11.385
64060SOL     OW94018   0.856  13.375   7.086
64060SOL    HW194019   0.879  13.291   7.045
64060SOL    HW294020   0.764  13.365   7.110
64061SOL     OW94021   6.458   2.652   3.293
64061SOL    HW194022   6.415   2.590   3.234
64061SOL    HW294023   6.525   2.600   3.337
64062SOL     OW94024  14.206  14.647   0.421
64062SOL    HW194025  14.236  14.670   0.508
64062SOL    HW294026  14.188  14.553   0.426
64063SOL     OW94027   1.237   6.814   6.803
64063SOL    HW194028   1.161   6.761   6.825
64063SOL    HW294029   1.240   6.814   6.707
64064SOL     OW94030  12.847   6.114   7.363
64064SOL    HW194031  12.918   6.104   7.427
64064SOL    HW294032  12.850   6.035   7.311
64065SOL     OW94033  12.067  10.462   0.230
64065SOL    HW194034  12.040  10.371   0.240
64065SOL    HW294035  12.120  10.463   0.151
64066SOL     OW94036   8.417   9.674   8.526
64066SOL    HW194037   8.473   9.621   8.469
64066SOL    HW294038   8.376   9.737   8.467
64067SOL     OW94039   2.960   6.686  14.703
64067SOL    HW194040   3.016   6.624  14.750
64067SOL    HW294041   3.012   6.713  14.627
64068SOL     OW94042   0.169   4.370   5.044
64068SOL    HW194043   0.122   4.362   5.126
64068SOL    HW294044   0.131   4.448   5.002
64069SOL     OW94045   8.534  11.621   4.931
64069SOL    HW194046   8.465  11.595   4.992
64069SOL    HW294047   8.616  11.601   4.977
64070SOL     OW94048   0.835   3.287   5.375
64070SOL    HW194049   0.901   3.255   5.437
64070SOL    HW294050   0.881   3.355   5.325
64071SOL     OW94051   9.171   8.962  14.365
64071SOL    HW194052   9.139   8.873  14.346
64071SOL    HW294053   9.171   9.005  14.279
64072SOL     OW94054  12.731   4.687  14.211
64072SOL    HW194055  12.822   4.663  14.227
64072SOL    HW294056  12.735   4.779  14.185
64073SOL     OW94057   9.738  10.792   8.866
64073SOL    HW194058   9.645  10.796   8.887
64073SOL    HW294059   9.748  10.709   8.819
64074SOL     OW94060   6.496   3.502   6.379
64074SOL    HW194061   6.451   3.524   6.460
64074SOL    HW294062   6.426   3.485   6.316
64075SOL     OW94063  10.535   5.735   7.612
64075SOL    HW194064  10.491   5.806   7.659
64075SOL    HW294065  10.626   5.739   7.642
64076SOL     OW94066  11.092   8.594   3.728
64076SOL    HW194067  11.048   8.553   3.652
64076SOL    HW294068  11.160   8.531   3.753
64077SOL     OW94069   5.693   8.451  13.436
64077SOL    HW194070   5.723   8.540  13.459
64077SOL    HW294071   5.598   8.455  13.445
64078SOL     OW94072   8.077   6.091   3.894
64078SOL    HW194073   8.039   6.116   3.978
64078SOL    HW294074   8.023   6.136   3.829
64079SOL     OW94075   6.417   4.710  13.993
64079SOL    HW194076   6.499   4.758  14.006
64079SOL    HW294077   6.418   4.686  13.900
64080SOL     OW94078   5.035  12.605   1.311
64080SOL    HW194079   4.972  12.569   1.249
64080SOL    HW294080   5.113  12.623   1.259
64081SOL     OW94081   2.023  12.226   2.003
64081SOL    HW194082   2.056  12.183   2.082
64081SOL    HW294083   1.971  12.300   2.036
64082SOL     OW94084   1.479  10.468  13.907
64082SOL    HW194085   1.520  10.439  13.826
64082SOL    HW294086   1.474  10.563  13.900
64083SOL     OW94087   8.233   4.491   1.725
64083SOL    HW194088   8.154   4.530   1.764
64083SOL    HW294089   8.210   4.477   1.633
64084SOL     OW94090   2.814   4.442   5.962
64084SOL    HW194091   2.731   4.464   5.919
64084SOL    HW294092   2.881   4.471   5.901
64085SOL     OW94093  14.163  11.365   3.743
64085SOL    HW194094  14.119  11.401   3.820
64085SOL    HW294095  14.092  11.343   3.683
64086SOL     OW94096   8.046   9.153   4.437
64086SOL    HW194097   7.980   9.087   4.419
64086SOL    HW294098   7.998   9.224   4.480
64087SOL     OW94099   4.132  11.951   0.506
64087SOL    HW194100   4.055  11.901   0.478
64087SOL    HW294101   4.174  11.896   0.573
64088SOL     OW94102  13.609   3.718  13.694
64088SOL    HW194103  13.558   3.772  13.754
64088SOL    HW294104  13.682   3.774  13.667
64089SOL     OW94105  13.168   5.133  13.355
64089SOL    HW194106  13.163   5.038  13.365
64089SOL    HW294107  13.090   5.166  13.400
64090SOL     OW94108   5.503   8.097  11.309
64090SOL    HW194109   5.449   8.169  11.341
64090SOL    HW294110   5.445   8.048  11.251
64091SOL     OW94111   3.034   1.894   5.606
64091SOL    HW194112   3.074   1.980   5.618
64091SOL    HW294113   3.032   1.856   5.693
64092SOL     OW94114   6.718   4.214  12.592
64092SOL    HW194115   6.673   4.213  12.508
64092SOL    HW294116   6.685   4.137  12.638
64093SOL     OW94117   0.344  11.161   0.573
64093SOL    HW194118   0.414  11.144   0.636
64093SOL    HW294119   0.387  11.209   0.502
64094SOL     OW94120   8.393   5.363  10.731
64094SOL    HW194121   8.344   5.392  10.654
64094SOL    HW294122   8.326   5.332  10.792
64095SOL     OW94123   6.050  14.430   8.960
64095SOL    HW194124   6.045  14.347   8.913
64095SOL    HW294125   5.990  14.488   8.913
64096SOL     OW94126   4.649   6.003   7.801
64096SOL    HW194127   4.682   6.049   7.724
64096SOL    HW294128   4.701   6.038   7.874
64097SOL     OW94129   5.891   0.518   5.138
64097SOL    HW194130   5.936   0.448   5.091
64097SOL    HW294131   5.921   0.598   5.095
64098SOL     OW94132   9.330   1.240  11.480
64098SOL    HW194133   9.367   1.152  11.479
64098SOL    HW294134   9.336   1.271  11.390
64099SOL     OW94135   5.696   9.966   5.183
64099SOL    HW194136   5.788   9.949   5.160
64099SOL    HW294137   5.653   9.881   5.173
64100SOL     OW94138  11.497  12.952  10.632
64100SOL    HW194139  11.457  12.913  10.554
64100SOL    HW294140  11.588  12.968  10.607
64101SOL     OW94141   0.908   1.709   8.070
64101SOL    HW194142   0.904   1.704   7.974
64101SOL    HW294143   0.817   1.718   8.097
64102SOL     OW94144   5.131  10.710  14.197
64102SOL    HW194145   5.189  10.693  14.271
64102SOL    HW294146   5.043  10.714  14.235
64103SOL     OW94147   4.515   1.133   1.750
64103SOL    HW194148   4.511   1.038   1.760
64103SOL    HW294149   4.607   1.155   1.763
64104SOL     OW94150   2.350   4.295  11.273
64104SOL    HW194151   2.331   4.385  11.301
64104SOL    HW294152   2.399   4.305  11.192
64105SOL     OW94153  14.386  13.973   2.692
64105SOL    HW194154  14.426  13.919   2.759
64105SOL    HW294155  14.339  14.041   2.741
64106SOL     OW94156  14.025  13.575   5.993
64106SOL    HW194157  13.994  13.649   5.940
64106SOL    HW294158  14.117  13.566   5.968
64107SOL     OW94159  12.612   4.218   7.960
64107SOL    HW194160  12.552   4.199   7.887
64107SOL    HW294161  12.587   4.156   8.029
64108SOL     OW94162   0.872  12.016  11.084
64108SOL    HW194163   0.902  11.940  11.035
64108SOL    HW294164   0.914  12.091  11.042
64109SOL     OW94165   0.625  10.656   5.466
64109SOL    HW194166   0.678  10.582   5.438
64109SOL    HW294167   0.586  10.628   5.549
64110SOL     OW94168  11.364   1.201   9.477
64110SOL    HW194169  11.381   1.204   9.383
64110SOL    HW294170  11.337   1.290   9.500
64111SOL     OW94171   1.614  11.414  12.035
64111SOL    HW194172   1.533  11.429  11.986
64111SOL    HW294173   1.586  11.393  12.124
64112SOL     OW94174   8.815  12.403   2.476
64112SOL    HW194175   8.815  12.369   2.565
64112SOL    HW294176   8.893  12.364   2.435
64113SOL     OW94177   2.771  14.379   1.990
64113SOL    HW194178   2.740  14.372   1.900
64113SOL    HW294179   2.698  14.420   2.037
64114SOL     OW94180  10.792  11.597   4.631
64114SOL    HW194181  10.840  11.668   4.675
64114SOL    HW294182  10.849  11.521   4.640
64115SOL     OW94183   4.998   2.357  10.441
64115SOL    HW194184   4.961   2.366  10.528
64115SOL    HW294185   4.952   2.423  10.389
64116SOL     OW94186   4.476   8.690   8.527
64116SOL    HW194187   4.488   8.778   8.564
64116SOL    HW294188   4.562   8.665   8.494
64117SOL     OW94189   4.328   2.581  11.726
64117SOL    HW194190   4.409   2.587  11.676
64117SOL    HW294191   4.280   2.509  11.685
64118SOL     OW94192   9.766   5.434   2.156
64118SOL    HW194193   9.844   5.388   2.187
64118SOL    HW294194   9.796   5.488   2.084
64119SOL     OW94195   2.243  13.720   8.534
64119SOL    HW194196   2.217  13.660   8.463
64119SOL    HW294197   2.324  13.683   8.568
64120SOL     OW94198  11.944   0.110   5.162
64120SOL    HW194199  11.870   0.164   5.189
64120SOL    HW294200  12.007   0.117   5.234
64121SOL     OW94201  12.380   4.263  10.909
64121SOL    HW194202  12.299   4.249  10.958
64121SOL    HW294203  12.435   4.316  10.966
64122SOL     OW94204  10.106   7.786   1.417
64122SOL    HW194205  10.056   7.705   1.405
64122SOL    HW294206  10.127   7.788   1.510
64123SOL     OW94207   9.782   7.423   6.714
64123SOL    HW194208   9.816   7.334   6.717
64123SOL    HW294209   9.694   7.414   6.677
64124SOL     OW94210   8.548   0.678   6.557
64124SOL    HW194211   8.601   0.619   6.504
64124SOL    HW294212   8.586   0.672   6.645
64125SOL     OW94213   6.972   9.323  11.017
64125SOL    HW194214   6.925   9.335  11.100
64125SOL    HW294215   6.945   9.397  10.963
64126SOL     OW94216   6.365   5.230   6.946
64126SOL    HW194217   6.397   5.320   6.934
64126SOL    HW294218   6.313   5.213   6.868
64127SOL     OW94219   7.654   3.221   5.370
64127SOL    HW194220   7.647   3.155   5.439
64127SOL    HW294221   7.597   3.189   5.300
64128SOL     OW94222   6.926   9.319  13.647
64128SOL    HW194223   6.892   9.405  13.670
64128SOL    HW294224   6.850   9.270  13.617
64129SOL     OW94225   2.275  14.243  14.310
64129SOL    HW194226   2.357  14.271  14.351
64129SOL    HW294227   2.290  14.255  14.216
64130SOL     OW94228  10.058   2.123  13.857
64130SOL    HW194229  10.010   2.053  13.814
64130SOL    HW294230   9.991   2.184  13.886
64131SOL     OW94231  10.998  12.763  14.595
64131SOL    HW194232  10.960  12.687  14.550
64131SOL    HW294233  10.923  12.813  14.626
64132SOL     OW94234   6.640  11.227  13.170
64132SOL    HW194235   6.695  11.242  13.093
64132SOL    HW294236   6.567  11.174  13.138
64133SOL     OW94237   1.782   9.909   2.749
64133SOL    HW194238   1.818   9.867   2.671
64133SOL    HW294239   1.771  10.000   2.724
64134SOL     OW94240  13.574   4.004   5.674
64134SOL    HW194241  13.643   3.953   5.718
64134SOL    HW294242  13.567   3.964   5.587
64135SOL     OW94243   8.566   4.459   3.668
64135SOL    HW194244   8.537   4.454   3.577
64135SOL    HW294245   8.545   4.548   3.695
64136SOL     OW94246   8.950  11.822   1.581
64136SOL    HW194247   9.019  11.776   1.630
64136SOL    HW294248   8.874  11.765   1.587
64137SOL     OW94249   3.431  13.155   4.511
64137SOL    HW194250   3.474  13.137   4.595
64137SOL    HW294251   3.490  13.118   4.446
64138SOL     OW94252  11.662   7.352   9.868
64138SOL    HW194253  11.582   7.344   9.818
64138SOL    HW294254  11.646   7.302   9.948
64139SOL     OW94255   5.162   6.510   2.384
64139SOL    HW194256   5.221   6.505   2.308
64139SOL    HW294257   5.085   6.557   2.350
64140SOL     OW94258  11.758   7.294   8.038
64140SOL    HW194259  11.822   7.236   7.997
64140SOL    HW294260  11.711   7.238   8.099
64141SOL     OW94261  14.031   9.297   9.716
64141SOL    HW194262  14.018   9.216   9.765
64141SOL    HW294263  13.961   9.298   9.651
64142SOL     OW94264   7.559   8.957  14.139
64142SOL    HW194265   7.470   8.927  14.152
64142SOL    HW294266   7.608   8.919  14.212
64143SOL     OW94267  11.287  10.958  14.808
64143SOL    HW194268  11.254  10.923   0.009
64143SOL    HW294269  11.227  11.029  14.787
64144SOL     OW94270  11.622   3.588   8.333
64144SOL    HW194271  11.699   3.640   8.310
64144SOL    HW294272  11.550   3.630   8.286
64145SOL     OW94273   4.868  12.729   4.252
64145SOL    HW194274   4.838  12.813   4.288
64145SOL    HW294275   4.895  12.678   4.328
64146SOL     OW94276   7.648   5.752   2.835
64146SOL    HW194277   7.720   5.693   2.809
64146SOL    HW294278   7.643   5.742   2.930
64147SOL     OW94279   0.045  13.742   7.811
64147SOL    HW194280   0.005  13.720   7.727
64147SOL    HW294281  14.854  13.743   7.873
64148SOL     OW94282  14.072   1.972   0.308
64148SOL    HW194283  14.029   2.038   0.362
64148SOL    HW294284  14.070   1.893   0.361
64149SOL     OW94285   0.134   7.960  11.841
64149SOL    HW194286   0.200   7.992  11.902
64149SOL    HW294287   0.102   7.879  11.880
64150SOL     OW94288  10.669   6.336   4.545
64150SOL    HW194289  10.739   6.276   4.521
64150SOL    HW294290  10.588   6.290   4.521
64151SOL     OW94291   2.146  14.472   7.600
64151SOL    HW194292   2.071  14.424   7.636
64151SOL    HW294293   2.213  14.465   7.668
64152SOL     OW94294   7.286  10.601   8.493
64152SOL    HW194295   7.314  10.608   8.584
64152SOL    HW294296   7.286  10.690   8.460
64153SOL     OW94297   7.936   2.417   5.041
64153SOL    HW194298   7.916   2.371   5.122
64153SOL    HW294299   8.027   2.444   5.052
64154SOL     OW94300   0.749   6.751   0.472
64154SOL    HW194301   0.751   6.720   0.563
64154SOL    HW294302   0.721   6.843   0.479
64155SOL     OW94303  13.155  13.998  12.539
64155SOL    HW194304  13.156  14.056  12.615
64155SOL    HW294305  13.062  13.991  12.516
64156SOL     OW94306   3.330   8.905  10.234
64156SOL    HW194307   3.338   8.948  10.319
64156SOL    HW294308   3.361   8.816  10.249
64157SOL     OW94309   9.845   1.536   4.914
64157SOL    HW194310   9.922   1.586   4.886
64157SOL    HW294311   9.798   1.596   4.972
64158SOL     OW94312   5.872   0.079   2.141
64158SOL    HW194313   5.842   0.031   2.218
64158SOL    HW294314   5.951   0.033   2.114
64159SOL     OW94315  11.217   3.553   6.020
64159SOL    HW194316  11.260   3.537   6.103
64159SOL    HW294317  11.127   3.575   6.043
64160SOL     OW94318  12.978  12.243   5.197
64160SOL    HW194319  12.936  12.164   5.232
64160SOL    HW294320  12.982  12.303   5.271
64161SOL     OW94321   7.639   9.137  12.358
64161SOL    HW194322   7.731   9.165  12.365
64161SOL    HW294323   7.588   9.212  12.388
64162SOL     OW94324  14.596   4.444   8.733
64162SOL    HW194325  14.547   4.523   8.756
64162SOL    HW294326  14.530   4.385   8.696
64163SOL     OW94327   4.890   0.114   9.646
64163SOL    HW194328   4.868   0.138   9.736
64163SOL    HW294329   4.888   0.018   9.646
64164SOL     OW94330   1.625   7.350   7.081
64164SOL    HW194331   1.605   7.363   7.174
64164SOL    HW294332   1.634   7.439   7.047
64165SOL     OW94333  14.157   8.364   5.587
64165SOL    HW194334  14.210   8.371   5.666
64165SOL    HW294335  14.101   8.441   5.588
64166SOL     OW94336  14.861   9.029   2.389
64166SOL    HW194337  14.791   9.069   2.337
64166SOL    HW294338  14.862   8.938   2.361
64167SOL     OW94339   3.642   8.036  14.597
64167SOL    HW194340   3.737   8.047  14.590
64167SOL    HW294341   3.606   8.107  14.543
64168SOL     OW94342   6.199   1.103  14.164
64168SOL    HW194343   6.273   1.049  14.191
64168SOL    HW294344   6.239   1.180  14.124
64169SOL     OW94345  12.859   5.228   3.088
64169SOL    HW194346  12.825   5.263   3.005
64169SOL    HW294347  12.942   5.274   3.100
64170SOL     OW94348  12.987  14.468   4.978
64170SOL    HW194349  13.057  14.462   5.043
64170SOL    HW294350  13.003  14.552   4.933
64171SOL     OW94351   2.827  13.446  13.102
64171SOL    HW194352   2.788  13.433  13.188
64171SOL    HW294353   2.899  13.508  13.117
64172SOL     OW94354   2.845  13.982   7.548
64172SOL    HW194355   2.893  13.925   7.609
64172SOL    HW294356   2.773  13.927   7.516
64173SOL     OW94357  14.657   0.997   4.890
64173SOL    HW194358  14.612   0.913   4.892
64173SOL    HW294359  14.747   0.978   4.916
64174SOL     OW94360   4.363   1.006   9.316
64174SOL    HW194361   4.386   1.069   9.384
64174SOL    HW294362   4.374   0.921   9.358
64175SOL     OW94363   9.247  12.207   3.998
64175SOL    HW194364   9.221  12.292   3.961
64175SOL    HW294365   9.184  12.190   4.067
64176SOL     OW94366  12.054  12.083   4.836
64176SOL    HW194367  12.117  12.083   4.764
64176SOL    HW294368  12.016  12.171   4.835
64177SOL     OW94369   9.764   5.471  11.461
64177SOL    HW194370   9.676   5.448  11.430
64177SOL    HW294371   9.822   5.406  11.421
64178SOL     OW94372   5.558   8.614   7.597
64178SOL    HW194373   5.570   8.594   7.690
64178SOL    HW294374   5.472   8.658   7.593
64179SOL     OW94375  11.574   7.188   2.234
64179SOL    HW194376  11.643   7.143   2.186
64179SOL    HW294377  11.541   7.253   2.173
64180SOL     OW94378  10.115  12.562   9.383
64180SOL    HW194379  10.152  12.541   9.469
64180SOL    HW294380  10.188  12.597   9.333
64181SOL     OW94381   8.162  11.860   0.187
64181SOL    HW194382   8.173  11.953   0.210
64181SOL    HW294383   8.089  11.831   0.241
64182SOL     OW94384   5.579   2.872   6.250
64182SOL    HW194385   5.607   2.887   6.341
64182SOL    HW294386   5.611   2.948   6.202
64183SOL     OW94387  13.260  14.231  12.165
64183SOL    HW194388  13.186  14.273  12.210
64183SOL    HW294389  13.319  14.204  12.235
64184SOL     OW94390   1.777   5.993   1.999
64184SOL    HW194391   1.813   5.992   1.910
64184SOL    HW294392   1.793   6.082   2.030
64185SOL     OW94393   3.960   8.883  12.889
64185SOL    HW194394   4.001   8.887  12.803
64185SOL    HW294395   4.030   8.855  12.948
64186SOL     OW94396   2.309   2.729   0.090
64186SOL    HW194397   2.321   2.815   0.051
64186SOL    HW294398   2.234   2.691   0.043
64187SOL     OW94399   8.185   1.362   8.802
64187SOL    HW194400   8.112   1.386   8.745
64187SOL    HW294401   8.232   1.294   8.753
64188SOL     OW94402   5.187   9.629   4.536
64188SOL    HW194403   5.238   9.572   4.593
64188SOL    HW294404   5.199   9.717   4.572
64189SOL     OW94405   1.680   0.197  13.479
64189SOL    HW194406   1.727   0.280  13.491
64189SOL    HW294407   1.745   0.129  13.498
64190SOL     OW94408   0.264  10.408   4.481
64190SOL    HW194409   0.213  10.335   4.518
64190SOL    HW294410   0.260  10.395   4.387
64191SOL     OW94411   7.373   1.742   2.534
64191SOL    HW194412   7.400   1.661   2.491
64191SOL    HW294413   7.407   1.811   2.477
64192SOL     OW94414   1.063  13.272   5.376
64192SOL    HW194415   1.142  13.325   5.364
64192SOL    HW294416   1.082  13.220   5.454
64193SOL     OW94417   9.828   2.527   9.396
64193SOL    HW194418   9.848   2.593   9.329
64193SOL    HW294419   9.855   2.567   9.478
64194SOL     OW94420   2.453  11.683   7.443
64194SOL    HW194421   2.541  11.645   7.441
64194SOL    HW294422   2.466  11.776   7.426
64195SOL     OW94423   0.707   9.087   9.316
64195SOL    HW194424   0.627   9.138   9.328
64195SOL    HW294425   0.748   9.124   9.238
64196SOL     OW94426  11.335   8.389   7.301
64196SOL    HW194427  11.364   8.298   7.305
64196SOL    HW294428  11.332   8.417   7.393
64197SOL     OW94429  13.692  13.749   9.925
64197SOL    HW194430  13.677  13.699   9.844
64197SOL    HW294431  13.627  13.716   9.986
64198SOL     OW94432  10.722   2.714   4.719
64198SOL    HW194433  10.787   2.772   4.759
64198SOL    HW294434  10.639   2.761   4.730
64199SOL     OW94435   1.829  13.194  14.026
64199SOL    HW194436   1.815  13.187  14.121
64199SOL    HW294437   1.786  13.117  13.989
64200SOL     OW94438   3.544   4.603   4.099
64200SOL    HW194439   3.526   4.648   4.181
64200SOL    HW294440   3.631   4.565   4.111
64201SOL     OW94441   6.590   2.160  11.383
64201SOL    HW194442   6.578   2.229  11.318
64201SOL    HW294443   6.619   2.084  11.333
64202SOL     OW94444   2.680  12.781   8.276
64202SOL    HW194445   2.642  12.835   8.206
64202SOL    HW294446   2.611  12.774   8.342
64203SOL     OW94447  12.586   2.156   1.544
64203SOL    HW194448  12.551   2.219   1.607
64203SOL    HW294449  12.678   2.146   1.570
64204SOL     OW94450   1.178   8.656   6.444
64204SOL    HW194451   1.259   8.707   6.441
64204SOL    HW294452   1.160   8.634   6.353
64205SOL     OW94453   9.150   0.095   7.904
64205SOL    HW194454   9.109   0.181   7.909
64205SOL    HW294455   9.211   0.092   7.979
64206SOL     OW94456  11.487   9.724   8.586
64206SOL    HW194457  11.417   9.742   8.524
64206SOL    HW294458  11.516   9.635   8.566
64207SOL     OW94459   6.966  10.679   5.801
64207SOL    HW194460   6.935  10.730   5.875
64207SOL    HW294461   7.061  10.676   5.812
64208SOL     OW94462   2.845   3.547   2.335
64208SOL    HW194463   2.776   3.602   2.373
64208SOL    HW294464   2.890   3.605   2.273
64209SOL     OW94465  11.165  11.178   6.854
64209SOL    HW194466  11.246  11.134   6.829
64209SOL    HW294467  11.160  11.166   6.949
64210SOL     OW94468   7.152   4.110   9.893
64210SOL    HW194469   7.229   4.166   9.908
64210SOL    HW294470   7.170   4.030   9.943
64211SOL     OW94471   9.796  10.240   1.432
64211SOL    HW194472   9.834  10.154   1.414
64211SOL    HW294473   9.871  10.298   1.445
64212SOL     OW94474  10.674   0.387  14.218
64212SOL    HW194475  10.593   0.418  14.178
64212SOL    HW294476  10.725   0.353  14.144
64213SOL     OW94477   3.650   0.253   6.265
64213SOL    HW194478   3.587   0.293   6.325
64213SOL    HW294479   3.700   0.193   6.319
64214SOL     OW94480  14.683   4.300   4.873
64214SOL    HW194481  14.649   4.212   4.890
64214SOL    HW294482  14.768   4.286   4.832
64215SOL     OW94483   5.984   5.761   7.347
64215SOL    HW194484   5.982   5.783   7.440
64215SOL    HW294485   5.991   5.845   7.303
64216SOL     OW94486   2.951   6.300   0.054
64216SOL    HW194487   2.863   6.299   0.015
64216SOL    HW294488   2.958   6.217   0.100
64217SOL     OW94489  13.844   3.661  12.322
64217SOL    HW194490  13.903   3.662  12.397
64217SOL    HW294491  13.898   3.629  12.250
64218SOL     OW94492  10.926   1.890   9.396
64218SOL    HW194493  10.909   1.880   9.303
64218SOL    HW294494  10.853   1.844   9.438
64219SOL     OW94495   9.290   2.752   3.402
64219SOL    HW194496   9.259   2.790   3.320
64219SOL    HW294497   9.384   2.771   3.404
64220SOL     OW94498   3.213   0.429   8.662
64220SOL    HW194499   3.244   0.388   8.581
64220SOL    HW294500   3.269   0.392   8.731
64221SOL     OW94501   6.102  10.161  11.648
64221SOL    HW194502   6.184  10.116  11.666
64221SOL    HW294503   6.073  10.125  11.564
64222SOL     OW94504  13.323  11.167   4.522
64222SOL    HW194505  13.341  11.255   4.554
64222SOL    HW294506  13.280  11.180   4.437
64223SOL     OW94507   1.179  10.831   4.798
64223SOL    HW194508   1.160  10.743   4.764
64223SOL    HW294509   1.187  10.885   4.719
64224SOL     OW94510   2.123   3.270  10.538
64224SOL    HW194511   2.188   3.221  10.490
64224SOL    HW294512   2.095   3.211  10.609
64225SOL     OW94513  10.362   1.699   2.858
64225SOL    HW194514  10.366   1.609   2.890
64225SOL    HW294515  10.430   1.705   2.792
64226SOL     OW94516   2.243  12.241   2.876
64226SOL    HW194517   2.174  12.175   2.883
64226SOL    HW294518   2.281  12.228   2.790
64227SOL     OW94519   2.547  14.387   9.041
64227SOL    HW194520   2.512  14.327   9.106
64227SOL    HW294521   2.473  14.406   8.982
64228SOL     OW94522   1.955  11.238  11.349
64228SOL    HW194523   1.958  11.254  11.443
64228SOL    HW294524   2.015  11.165  11.336
64229SOL     OW94525  14.452   4.207  13.883
64229SOL    HW194526  14.512   4.261  13.832
64229SOL    HW294527  14.436   4.130  13.829
64230SOL     OW94528   9.780   1.799  11.467
64230SOL    HW194529   9.733   1.842  11.537
64230SOL    HW294530   9.848   1.748  11.511
64231SOL     OW94531   4.735  14.809   0.245
64231SOL    HW194532   4.780  14.757   0.312
64231SOL    HW294533   4.646  14.819   0.278
64232SOL     OW94534   5.004  14.297  14.267
64232SOL    HW194535   4.963  14.353  14.333
64232SOL    HW294536   4.945  14.222  14.259
64233SOL     OW94537   1.775   3.802   0.422
64233SOL    HW194538   1.836   3.758   0.363
64233SOL    HW294539   1.828   3.869   0.466
64234SOL     OW94540  13.854   1.038   6.527
64234SOL    HW194541  13.792   1.090   6.577
64234SOL    HW294542  13.800   0.972   6.482
64235SOL     OW94543  10.028   1.301   1.972
64235SOL    HW194544   9.944   1.335   2.002
64235SOL    HW294545  10.092   1.364   2.005
64236SOL     OW94546   5.039  12.216  14.171
64236SOL    HW194547   5.045  12.199  14.265
64236SOL    HW294548   5.010  12.307  14.165
64237SOL     OW94549   5.661  11.108  11.111
64237SOL    HW194550   5.628  11.115  11.022
64237SOL    HW294551   5.705  11.191  11.127
64238SOL     OW94552   9.020   2.333   7.178
64238SOL    HW194553   8.956   2.394   7.214
64238SOL    HW294554   8.977   2.247   7.184
64239SOL     OW94555   9.382   6.841   1.914
64239SOL    HW194556   9.356   6.821   1.824
64239SOL    HW294557   9.310   6.806   1.968
64240SOL     OW94558   0.917   6.568  13.888
64240SOL    HW194559   0.987   6.504  13.872
64240SOL    HW294560   0.895   6.602  13.802
64241SOL     OW94561   8.378  10.988   6.192
64241SOL    HW194562   8.421  10.905   6.172
64241SOL    HW294563   8.328  10.970   6.272
64242SOL     OW94564  10.234   7.279  12.594
64242SOL    HW194565  10.198   7.230  12.668
64242SOL    HW294566  10.220   7.370  12.617
64243SOL     OW94567  14.006   3.673   8.215
64243SOL    HW194568  13.912   3.662   8.230
64243SOL    HW294569  14.034   3.590   8.177
64244SOL     OW94570  14.480   2.135   1.684
64244SOL    HW194571  14.510   2.100   1.768
64244SOL    HW294572  14.560   2.144   1.632
64245SOL     OW94573   5.514   1.967   9.921
64245SOL    HW194574   5.575   1.932   9.986
64245SOL    HW294575   5.433   1.984   9.970
64246SOL     OW94576   1.643   7.848  11.372
64246SOL    HW194577   1.680   7.849  11.284
64246SOL    HW294578   1.635   7.940  11.396
64247SOL     OW94579   1.398   5.233   9.916
64247SOL    HW194580   1.405   5.153   9.863
64247SOL    HW294581   1.397   5.201  10.006
64248SOL     OW94582   5.293   3.846   0.583
64248SOL    HW194583   5.296   3.893   0.500
64248SOL    HW294584   5.322   3.911   0.648
64249SOL     OW94585  10.705   7.856   5.206
64249SOL    HW194586  10.681   7.764   5.213
64249SOL    HW294587  10.795   7.855   5.173
64250SOL     OW94588   8.385   1.845   2.993
64250SOL    HW194589   8.324   1.772   2.983
64250SOL    HW294590   8.410   1.868   2.904
64251SOL     OW94591  13.186   3.313   2.180
64251SOL    HW194592  13.109   3.288   2.232
64251SOL    HW294593  13.200   3.238   2.122
64252SOL     OW94594   9.153  10.091   8.405
64252SOL    HW194595   9.101  10.158   8.360
64252SOL    HW294596   9.108  10.077   8.488
64253SOL     OW94597   5.845  11.806   2.204
64253SOL    HW194598   5.866  11.741   2.136
64253SOL    HW294599   5.762  11.776   2.240
64254SOL     OW94600  14.415   2.929   3.888
64254SOL    HW194601  14.363   2.953   3.812
64254SOL    HW294602  14.378   2.980   3.960
64255SOL     OW94603  14.763   4.482  14.732
64255SOL    HW194604  14.815   4.424  14.788
64255SOL    HW294605  14.821   4.501  14.658
64256SOL     OW94606   5.556  11.622   1.481
64256SOL    HW194607   5.490  11.584   1.423
64256SOL    HW294608   5.518  11.705   1.510
64257SOL     OW94609   8.167  10.575  10.323
64257SOL    HW194610   8.159  10.599  10.230
64257SOL    HW294611   8.183  10.480  10.322
64258SOL     OW94612   5.394   4.908   7.850
64258SOL    HW194613   5.300   4.924   7.860
64258SOL    HW294614   5.402   4.853   7.773
64259SOL     OW94615  14.650   0.570   1.784
64259SOL    HW194616  14.573   0.597   1.733
64259SOL    HW294617  14.620   0.573   1.875
64260SOL     OW94618   1.519   6.121  12.467
64260SOL    HW194619   1.558   6.205  12.442
64260SOL    HW294620   1.582   6.084  12.529
64261SOL     OW94621  12.297  12.540   0.046
64261SOL    HW194622  12.237  12.580   0.108
64261SOL    HW294623  12.382  12.541   0.090
64262SOL     OW94624   9.182  12.775  10.471
64262SOL    HW194625   9.105  12.789  10.526
64262SOL    HW294626   9.213  12.864  10.450
64263SOL     OW94627   4.985   6.919  11.618
64263SOL    HW194628   4.943   6.960  11.542
64263SOL    HW294629   5.023   6.992  11.667
64264SOL     OW94630  12.485   4.708   3.921
64264SOL    HW194631  12.456   4.617   3.923
64264SOL    HW294632  12.573   4.706   3.957
64265SOL     OW94633   4.387   5.140  11.960
64265SOL    HW194634   4.438   5.149  11.880
64265SOL    HW294635   4.316   5.203  11.950
64266SOL     OW94636   8.927   2.456  14.538
64266SOL    HW194637   8.948   2.445  14.445
64266SOL    HW294638   8.952   2.546  14.558
64267SOL     OW94639   3.193   5.444   7.976
64267SOL    HW194640   3.272   5.487   8.008
64267SOL    HW294641   3.217   5.351   7.973
64268SOL     OW94642   6.729   3.856  13.082
64268SOL    HW194643   6.797   3.852  13.150
64268SOL    HW294644   6.735   3.771  13.038
64269SOL     OW94645   7.204   6.434  11.625
64269SOL    HW194646   7.165   6.481  11.551
64269SOL    HW294647   7.208   6.343  11.597
64270SOL     OW94648   5.044  13.931  12.094
64270SOL    HW194649   5.119  13.890  12.137
64270SOL    HW294650   5.003  13.860  12.045
64271SOL     OW94651   4.279  11.981   4.726
64271SOL    HW194652   4.250  11.987   4.817
64271SOL    HW294653   4.356  11.924   4.729
64272SOL     OW94654   3.654   4.322   9.431
64272SOL    HW194655   3.727   4.292   9.485
64272SOL    HW294656   3.594   4.363   9.492
64273SOL     OW94657   6.141  11.922   8.542
64273SOL    HW194658   6.061  11.933   8.595
64273SOL    HW294659   6.112  11.872   8.466
64274SOL     OW94660   1.308  10.401   7.063
64274SOL    HW194661   1.216  10.428   7.061
64274SOL    HW294662   1.318  10.355   7.147
64275SOL     OW94663   1.405   8.452   8.258
64275SOL    HW194664   1.491   8.464   8.217
64275SOL    HW294665   1.402   8.520   8.326
64276SOL     OW94666   8.275  10.643  13.552
64276SOL    HW194667   8.262  10.559  13.595
64276SOL    HW294668   8.190  10.687  13.557
64277SOL     OW94669   0.266   4.508  14.796
64277SOL    HW194670   0.215   4.552  14.729
64277SOL    HW294671   0.347   4.483  14.752
64278SOL     OW94672  13.457  10.668  11.205
64278SOL    HW194673  13.512  10.637  11.133
64278SOL    HW294674  13.408  10.590  11.233
64279SOL     OW94675   3.210   0.941   9.846
64279SOL    HW194676   3.251   1.026   9.862
64279SOL    HW294677   3.139   0.960   9.784
64280SOL     OW94678  11.471  14.558   4.446
64280SOL    HW194679  11.553  14.567   4.398
64280SOL    HW294680  11.409  14.520   4.383
64281SOL     OW94681  12.590   1.542  14.726
64281SOL    HW194682  12.668   1.581  14.764
64281SOL    HW294683  12.598   1.560  14.632
64282SOL     OW94684   8.079   3.200  13.831
64282SOL    HW194685   8.049   3.129  13.774
64282SOL    HW294686   8.028   3.189  13.912
64283SOL     OW94687   7.905   9.893   8.619
64283SOL    HW194688   7.912   9.799   8.608
64283SOL    HW294689   7.821   9.916   8.580
64284SOL     OW94690  14.727   1.155  10.837
64284SOL    HW194691  14.637   1.125  10.847
64284SOL    HW294692  14.780   1.077  10.849
64285SOL     OW94693   7.212   9.515   0.134
64285SOL    HW194694   7.303   9.532   0.109
64285SOL    HW294695   7.202   9.420   0.126
64286SOL     OW94696  13.798   6.136  13.644
64286SOL    HW194697  13.703   6.121  13.654
64286SOL    HW294698  13.808   6.231  13.655
64287SOL     OW94699   8.372   4.364  10.106
64287SOL    HW194700   8.444   4.313  10.069
64287SOL    HW294701   8.302   4.356  10.041
64288SOL     OW94702  12.525   6.144   0.872
64288SOL    HW194703  12.559   6.055   0.879
64288SOL    HW294704  12.566   6.180   0.794
64289SOL     OW94705   6.821   8.216   9.105
64289SOL    HW194706   6.771   8.277   9.050
64289SOL    HW294707   6.762   8.198   9.178
64290SOL     OW94708  13.234  12.253   5.907
64290SOL    HW194709  13.282  12.305   5.971
64290SOL    HW294710  13.282  12.170   5.903
64291SOL     OW94711   8.477  13.872   6.763
64291SOL    HW194712   8.397  13.820   6.752
64291SOL    HW294713   8.496  13.869   6.857
64292SOL     OW94714   8.313   2.851   5.560
64292SOL    HW194715   8.228   2.892   5.546
64292SOL    HW294716   8.292   2.767   5.601
64293SOL     OW94717  10.934  11.742   5.562
64293SOL    HW194718  10.855  11.693   5.586
64293SOL    HW294719  10.998  11.716   5.629
64294SOL     OW94720  10.783   1.373   0.422
64294SOL    HW194721  10.796   1.461   0.456
64294SOL    HW294722  10.794   1.383   0.327
64295SOL     OW94723   0.340  13.643   5.709
64295SOL    HW194724   0.299  13.582   5.770
64295SOL    HW294725   0.305  13.619   5.623
64296SOL     OW94726  11.156   9.482   1.375
64296SOL    HW194727  11.183   9.458   1.286
64296SOL    HW294728  11.239   9.497   1.421
64297SOL     OW94729   4.307   7.045  11.840
64297SOL    HW194730   4.307   7.140  11.830
64297SOL    HW294731   4.300   7.011  11.751
64298SOL     OW94732  12.997   7.604  10.709
64298SOL    HW194733  13.041   7.636  10.630
64298SOL    HW294734  12.928   7.546  10.676
64299SOL     OW94735   2.264   6.672   9.741
64299SOL    HW194736   2.229   6.756   9.711
64299SOL    HW294737   2.359   6.687   9.746
64300SOL     OW94738   2.365   0.819   9.791
64300SOL    HW194739   2.342   0.736   9.832
64300SOL    HW294740   2.384   0.878   9.864
64301SOL     OW94741   6.159   8.480   2.593
64301SOL    HW194742   6.180   8.572   2.610
64301SOL    HW294743   6.236   8.432   2.623
64302SOL     OW94744  10.768   8.315   1.238
64302SOL    HW194745  10.768   8.219   1.234
64302SOL    HW294746  10.756   8.334   1.331
64303SOL     OW94747   6.143  11.181   2.312
64303SOL    HW194748   6.230  11.144   2.326
64303SOL    HW294749   6.156  11.248   2.245
64304SOL     OW94750  11.195   6.013   0.062
64304SOL    HW194751  11.165   6.015  14.853
64304SOL    HW294752  11.286   5.987   0.057
64305SOL     OW94753   9.887  13.297  11.012
64305SOL    HW194754   9.845  13.316  11.096
64305SOL    HW294755   9.855  13.210  10.988
64306SOL     OW94756   7.199  13.441   8.514
64306SOL    HW194757   7.206  13.536   8.506
64306SOL    HW294758   7.277  13.415   8.563
64307SOL     OW94759   9.764   3.242  12.607
64307SOL    HW194760   9.797   3.247  12.696
64307SOL    HW294761   9.783   3.153  12.579
64308SOL     OW94762   6.943   8.038  12.997
64308SOL    HW194763   6.935   7.956  12.948
64308SOL    HW294764   6.997   8.015  13.072
64309SOL     OW94765  13.842   8.766  11.702
64309SOL    HW194766  13.854   8.810  11.618
64309SOL    HW294767  13.863   8.674  11.685
64310SOL     OW94768   9.129   7.912   2.626
64310SOL    HW194769   9.207   7.968   2.631
64310SOL    HW294770   9.151   7.836   2.680
64311SOL     OW94771  13.698   4.663   5.269
64311SOL    HW194772  13.697   4.675   5.364
64311SOL    HW294773  13.614   4.699   5.240
64312SOL     OW94774   7.859   5.077   4.885
64312SOL    HW194775   7.871   5.001   4.828
64312SOL    HW294776   7.880   5.152   4.830
64313SOL     OW94777   9.158   6.770   2.092
64313SOL    HW194778   9.068   6.754   2.064
64313SOL    HW294779   9.154   6.856   2.135
64314SOL     OW94780   1.498   5.465   3.673
64314SOL    HW194781   1.550   5.482   3.594
64314SOL    HW294782   1.420   5.420   3.641
64315SOL     OW94783   9.588   5.329   2.895
64315SOL    HW194784   9.496   5.327   2.921
64315SOL    HW294785   9.602   5.419   2.866
64316SOL     OW94786   0.415   6.638   0.711
64316SOL    HW194787   0.368   6.661   0.791
64316SOL    HW294788   0.505   6.626   0.739
64317SOL     OW94789   2.166   3.798  13.225
64317SOL    HW194790   2.088   3.832  13.267
64317SOL    HW294791   2.146   3.706  13.207
64318SOL     OW94792   6.016  10.489   4.016
64318SOL    HW194793   5.923  10.471   3.998
64318SOL    HW294794   6.021  10.584   4.021
64319SOL     OW94795   7.200   6.083  13.951
64319SOL    HW194796   7.265   6.136  13.997
64319SOL    HW294797   7.192   6.125  13.865
64320SOL     OW94798  14.703  12.769   1.486
64320SOL    HW194799  14.617  12.810   1.480
64320SOL    HW294800  14.711  12.717   1.405
64321SOL     OW94801   4.756   2.249   1.397
64321SOL    HW194802   4.776   2.286   1.483
64321SOL    HW294803   4.766   2.154   1.408
64322SOL     OW94804   9.604   6.609   9.935
64322SOL    HW194805   9.615   6.692   9.887
64322SOL    HW294806   9.611   6.634  10.027
64323SOL     OW94807   9.434  10.069   4.571
64323SOL    HW194808   9.454  10.081   4.664
64323SOL    HW294809   9.490   9.997   4.543
64324SOL     OW94810  13.086  11.835   4.152
64324SOL    HW194811  13.180  11.821   4.147
64324SOL    HW294812  13.068  11.900   4.083
64325SOL     OW94813   9.460   8.251   9.881
64325SOL    HW194814   9.442   8.179   9.821
64325SOL    HW294815   9.547   8.231   9.916
64326SOL     OW94816  11.753   9.013  14.728
64326SOL    HW194817  11.668   8.971  14.721
64326SOL    HW294818  11.783   8.994  14.817
64327SOL     OW94819  13.189   6.040   7.730
64327SOL    HW194820  13.163   6.106   7.795
64327SOL    HW294821  13.161   6.076   7.646
64328SOL     OW94822  12.713   5.628   1.180
64328SOL    HW194823  12.754   5.544   1.160
64328SOL    HW294824  12.674   5.656   1.097
64329SOL     OW94825   9.731   5.855   0.795
64329SOL    HW194826   9.655   5.908   0.821
64329SOL    HW294827   9.698   5.765   0.796
64330SOL     OW94828   9.171   7.174   9.947
64330SOL    HW194829   9.180   7.242  10.014
64330SOL    HW294830   9.080   7.147   9.953
64331SOL     OW94831  10.275   3.201   6.531
64331SOL    HW194832  10.192   3.222   6.572
64331SOL    HW294833  10.271   3.242   6.444
64332SOL     OW94834  11.376   7.642   2.220
64332SOL    HW194835  11.330   7.593   2.288
64332SOL    HW294836  11.442   7.692   2.267
64333SOL     OW94837   4.332   4.633   4.014
64333SOL    HW194838   4.257   4.634   3.955
64333SOL    HW294839   4.385   4.559   3.985
64334SOL     OW94840   6.010   2.445   9.566
64334SOL    HW194841   6.029   2.364   9.519
64334SOL    HW294842   6.024   2.515   9.502
64335SOL     OW94843   4.535   7.586  12.176
64335SOL    HW194844   4.519   7.611  12.268
64335SOL    HW294845   4.573   7.499  12.182
64336SOL     OW94846  13.505   6.612   7.422
64336SOL    HW194847  13.476   6.566   7.501
64336SOL    HW294848  13.532   6.698   7.453
64337SOL     OW94849  14.046   9.761   6.465
64337SOL    HW194850  14.098   9.841   6.462
64337SOL    HW294851  14.062   9.725   6.552
64338SOL     OW94852   1.915  14.738   2.086
64338SOL    HW194853   1.951  14.671   2.028
64338SOL    HW294854   1.950  14.821   2.052
64339SOL     OW94855   5.594   1.230  14.880
64339SOL    HW194856   5.518   1.215  14.824
64339SOL    HW294857   5.659   1.269  14.821
64340SOL     OW94858   8.404   3.773  13.758
64340SOL    HW194859   8.314   3.790  13.785
64340SOL    HW294860   8.399   3.756  13.663
64341SOL     OW94861   4.215   5.862  11.617
64341SOL    HW194862   4.205   5.782  11.668
64341SOL    HW294863   4.140   5.863  11.557
64342SOL     OW94864   5.743   6.271   2.892
64342SOL    HW194865   5.760   6.364   2.907
64342SOL    HW294866   5.663   6.270   2.840
64343SOL     OW94867   8.627   4.307   4.214
64343SOL    HW194868   8.585   4.242   4.157
64343SOL    HW294869   8.673   4.365   4.154
64344SOL     OW94870  14.631   2.565   4.902
64344SOL    HW194871  14.658   2.595   4.815
64344SOL    HW294872  14.695   2.498   4.926
64345SOL     OW94873   5.909  13.442   0.536
64345SOL    HW194874   5.926  13.393   0.616
64345SOL    HW294875   5.824  13.411   0.506
64346SOL     OW94876   5.167  14.606   7.052
64346SOL    HW194877   5.121  14.630   6.971
64346SOL    HW294878   5.247  14.562   7.023
64347SOL     OW94879  13.541   6.156   0.976
64347SOL    HW194880  13.593   6.195   0.905
64347SOL    HW294881  13.605   6.127   1.040
64348SOL     OW94882   2.883   5.144   8.843
64348SOL    HW194883   2.858   5.169   8.932
64348SOL    HW294884   2.977   5.127   8.848
64349SOL     OW94885  13.067   0.153   9.383
64349SOL    HW194886  13.162   0.141   9.378
64349SOL    HW294887  13.055   0.216   9.454
64350SOL     OW94888   9.994  11.310  10.218
64350SOL    HW194889  10.011  11.223  10.255
64350SOL    HW294890   9.916  11.297  10.164
64351SOL     OW94891   2.076   8.587   1.319
64351SOL    HW194892   2.089   8.515   1.382
64351SOL    HW294893   2.025   8.548   1.248
64352SOL     OW94894   1.766  14.215   9.899
64352SOL    HW194895   1.762  14.235   9.805
64352SOL    HW294896   1.717  14.285   9.940
64353SOL     OW94897   1.384   3.263   5.887
64353SOL    HW194898   1.462   3.283   5.938
64353SOL    HW294899   1.402   3.177   5.849
64354SOL     OW94900   0.701   5.919  13.881
64354SOL    HW194901   0.760   5.860  13.835
64354SOL    HW294902   0.614   5.897  13.848
64355SOL     OW94903  13.001   4.546  13.194
64355SOL    HW194904  13.036   4.509  13.113
64355SOL    HW294905  13.071   4.535  13.258
64356SOL     OW94906   8.486   1.856   4.168
64356SOL    HW194907   8.393   1.840   4.185
64356SOL    HW294908   8.491   1.872   4.074
64357SOL     OW94909   5.108   3.584  11.229
64357SOL    HW194910   5.058   3.610  11.151
64357SOL    HW294911   5.199   3.597  11.205
64358SOL     OW94912   6.184   5.167   5.485
64358SOL    HW194913   6.271   5.203   5.502
64358SOL    HW294914   6.167   5.109   5.560
64359SOL     OW94915   3.948   3.171  11.099
64359SOL    HW194916   4.031   3.161  11.054
64359SOL    HW294917   3.895   3.226  11.041
64360SOL     OW94918  14.399  14.499   1.857
64360SOL    HW194919  14.335  14.431   1.835
64360SOL    HW294920  14.359  14.581   1.827
64361SOL     OW94921   1.515   1.548   2.022
64361SOL    HW194922   1.548   1.627   1.978
64361SOL    HW294923   1.547   1.475   1.969
64362SOL     OW94924  13.282  11.601   5.676
64362SOL    HW194925  13.223  11.671   5.650
64362SOL    HW294926  13.228  11.522   5.675
64363SOL     OW94927   7.873  13.420   5.785
64363SOL    HW194928   7.918  13.498   5.817
64363SOL    HW294929   7.790  13.419   5.832
64364SOL     OW94930  14.583   5.225  14.716
64364SOL    HW194931  14.660   5.282  14.726
64364SOL    HW294932  14.615   5.138  14.741
64365SOL     OW94933   0.435  11.648   8.140
64365SOL    HW194934   0.405  11.587   8.073
64365SOL    HW294935   0.444  11.732   8.094
64366SOL     OW94936  11.107   2.708  11.105
64366SOL    HW194937  11.017   2.718  11.074
64366SOL    HW294938  11.116   2.774  11.173
64367SOL     OW94939   9.998   6.225   2.719
64367SOL    HW194940   9.928   6.191   2.663
64367SOL    HW294941  10.026   6.150   2.772
64368SOL     OW94942  12.309  12.474  10.155
64368SOL    HW194943  12.288  12.386  10.123
64368SOL    HW294944  12.403  12.471  10.174
64369SOL     OW94945   2.976   3.239   8.588
64369SOL    HW194946   2.924   3.231   8.508
64369SOL    HW294947   2.958   3.159   8.637
64370SOL     OW94948  13.019  13.659  11.752
64370SOL    HW194949  12.943  13.622  11.797
64370SOL    HW294950  13.094  13.626  11.800
64371SOL     OW94951   7.959  13.590  14.762
64371SOL    HW194952   7.949  13.637  14.845
64371SOL    HW294953   7.959  13.658  14.695
64372SOL     OW94954  13.028   9.652  11.121
64372SOL    HW194955  13.079   9.708  11.179
64372SOL    HW294956  12.966   9.711  11.078
64373SOL     OW94957  10.460   5.814   5.247
64373SOL    HW194958  10.443   5.869   5.170
64373SOL    HW294959  10.532   5.757   5.222
64374SOL     OW94960   0.474   3.558  14.633
64374SOL    HW194961   0.468   3.476  14.683
64374SOL    HW294962   0.406   3.614  14.670
64375SOL     OW94963   8.197   2.596  12.561
64375SOL    HW194964   8.232   2.683  12.545
64375SOL    HW294965   8.262   2.536  12.523
64376SOL     OW94966  13.356   2.559   0.634
64376SOL    HW194967  13.355   2.616   0.711
64376SOL    HW294968  13.275   2.509   0.641
64377SOL     OW94969   3.395   3.418  10.275
64377SOL    HW194970   3.368   3.506  10.249
64377SOL    HW294971   3.355   3.405  10.361
64378SOL     OW94972   7.715   9.377   3.629
64378SOL    HW194973   7.667   9.451   3.668
64378SOL    HW294974   7.669   9.299   3.661
64379SOL     OW94975  12.901   6.541  12.264
64379SOL    HW194976  12.841   6.551  12.338
64379SOL    HW294977  12.981   6.584  12.293
64380SOL     OW94978   6.012   4.293   4.060
64380SOL    HW194979   5.956   4.220   4.034
64380SOL    HW294980   6.098   4.254   4.073
64381SOL     OW94981   8.170   4.069  11.263
64381SOL    HW194982   8.122   3.998  11.305
64381SOL    HW294983   8.117   4.147  11.278
64382SOL     OW94984   1.569   9.866   9.201
64382SOL    HW194985   1.490   9.842   9.248
64382SOL    HW294986   1.568   9.961   9.199
64383SOL     OW94987   7.168   6.808   0.604
64383SOL    HW194988   7.145   6.813   0.696
64383SOL    HW294989   7.257   6.772   0.603
64384SOL     OW94990   3.629  13.088   4.345
64384SOL    HW194991   3.702  13.080   4.405
64384SOL    HW294992   3.656  13.039   4.267
64385SOL     OW94993   4.169  14.588   6.129
64385SOL    HW194994   4.178  14.533   6.051
64385SOL    HW294995   4.259  14.609   6.154
64386SOL     OW94996   0.607   1.706   8.459
64386SOL    HW194997   0.610   1.748   8.544
64386SOL    HW294998   0.689   1.731   8.416
64387SOL     OW94999   7.791   3.634   2.407
64387SOL    HW195000   7.723   3.700   2.416
64387SOL    HW295001   7.841   3.640   2.489
64388SOL     OW95002   7.351  13.214  10.653
64388SOL    HW195003   7.257  13.194  10.655
64388SOL    HW295004   7.377  13.218  10.745
64389SOL     OW95005  13.505  12.787   3.768
64389SOL    HW195006  13.422  12.835   3.778
64389SOL    HW295007  13.572  12.855   3.773
64390SOL     OW95008   7.279   6.797   2.435
64390SOL    HW195009   7.368   6.773   2.408
64390SOL    HW295010   7.235   6.821   2.354
64391SOL     OW95011   1.878  11.165  12.130
64391SOL    HW195012   1.971  11.147  12.115
64391SOL    HW295013   1.852  11.098  12.194
64392SOL     OW95014   5.640   1.174   4.091
64392SOL    HW195015   5.713   1.215   4.045
64392SOL    HW295016   5.602   1.114   4.027
64393SOL     OW95017   9.660   1.502  13.647
64393SOL    HW195018   9.721   1.542  13.585
64393SOL    HW295019   9.574   1.538  13.623
64394SOL     OW95020   9.153   3.771   6.960
64394SOL    HW195021   9.097   3.823   7.017
64394SOL    HW295022   9.242   3.790   6.989
64395SOL     OW95023   1.096   0.752   9.724
64395SOL    HW195024   1.179   0.745   9.770
64395SOL    HW295025   1.048   0.672   9.748
64396SOL     OW95026  11.895   1.942   3.277
64396SOL    HW195027  11.953   2.015   3.253
64396SOL    HW295028  11.822   1.984   3.322
64397SOL     OW95029   9.213  13.447   2.201
64397SOL    HW195030   9.141  13.504   2.226
64397SOL    HW295031   9.171  13.362   2.184
64398SOL     OW95032   4.207   2.626   8.497
64398SOL    HW195033   4.208   2.670   8.412
64398SOL    HW295034   4.174   2.538   8.479
64399SOL     OW95035   1.419  12.847  10.627
64399SOL    HW195036   1.363  12.845  10.549
64399SOL    HW295037   1.394  12.927  10.673
64400SOL     OW95038   1.160  10.248  13.461
64400SOL    HW195039   1.071  10.214  13.460
64400SOL    HW295040   1.167  10.296  13.544
64401SOL     OW95041  11.819   8.531   7.154
64401SOL    HW195042  11.853   8.620   7.151
64401SOL    HW295043  11.877   8.481   7.097
64402SOL     OW95044   0.419  13.759   7.424
64402SOL    HW195045   0.408  13.721   7.337
64402SOL    HW295046   0.494  13.818   7.415
64403SOL     OW95047  11.792   4.252  14.638
64403SOL    HW195048  11.820   4.161  14.628
64403SOL    HW295049  11.800   4.289  14.550
64404SOL     OW95050  11.960   1.597   8.839
64404SOL    HW195051  11.920   1.626   8.922
64404SOL    HW295052  12.048   1.633   8.841
64405SOL     OW95053   6.333  12.402   6.329
64405SOL    HW195054   6.263  12.393   6.264
64405SOL    HW295055   6.409  12.363   6.286
64406SOL     OW95056   1.372  13.493   4.893
64406SOL    HW195057   1.362  13.580   4.854
64406SOL    HW295058   1.316  13.495   4.970
64407SOL     OW95059   3.022  14.551  12.481
64407SOL    HW195060   2.962  14.539  12.407
64407SOL    HW295061   3.041  14.462  12.511
64408SOL     OW95062   5.943   5.107  11.225
64408SOL    HW195063   5.850   5.120  11.240
64408SOL    HW295064   5.949   5.075  11.135
64409SOL     OW95065   0.491  11.687  11.770
64409SOL    HW195066   0.435  11.623  11.813
64409SOL    HW295067   0.575  11.641  11.758
64410SOL     OW95068  11.535   4.112   4.597
64410SOL    HW195069  11.587   4.129   4.676
64410SOL    HW295070  11.596   4.071   4.536
64411SOL     OW95071  12.439   0.760   2.424
64411SOL    HW195072  12.395   0.710   2.355
64411SOL    HW295073  12.532   0.752   2.404
64412SOL     OW95074  13.801   8.128   4.687
64412SOL    HW195075  13.870   8.195   4.687
64412SOL    HW295076  13.774   8.121   4.779
64413SOL     OW95077   3.832   0.895  10.189
64413SOL    HW195078   3.846   0.801  10.179
64413SOL    HW295079   3.768   0.917  10.122
64414SOL     OW95080   2.137   7.034  11.121
64414SOL    HW195081   2.168   7.069  11.204
64414SOL    HW295082   2.048   7.069  11.113
64415SOL     OW95083   2.327   5.193   5.432
64415SOL    HW195084   2.364   5.109   5.460
64415SOL    HW295085   2.403   5.245   5.406
64416SOL     OW95086   9.752  13.740   5.679
64416SOL    HW195087   9.691  13.742   5.606
64416SOL    HW295088   9.726  13.815   5.733
64417SOL     OW95089  12.699   7.017   8.742
64417SOL    HW195090  12.711   7.027   8.837
64417SOL    HW295091  12.774   7.063   8.704
64418SOL     OW95092   5.159   1.787   7.613
64418SOL    HW195093   5.073   1.825   7.594
64418SOL    HW295094   5.141   1.714   7.672
64419SOL     OW95095   2.909   7.876  10.152
64419SOL    HW195096   2.911   7.952  10.094
64419SOL    HW295097   2.978   7.893  10.216
64420SOL     OW95098   6.458  12.575   4.510
64420SOL    HW195099   6.418  12.571   4.597
64420SOL    HW295100   6.543  12.531   4.521
64421SOL     OW95101   1.968   4.349   8.741
64421SOL    HW195102   1.989   4.263   8.705
64421SOL    HW295103   2.052   4.385   8.768
64422SOL     OW95104  11.540   5.921  12.805
64422SOL    HW195105  11.569   5.866  12.733
64422SOL    HW295106  11.506   6.000  12.763
64423SOL     OW95107  11.112   8.626  13.440
64423SOL    HW195108  11.162   8.622  13.522
64423SOL    HW295109  11.179   8.635  13.372
64424SOL     OW95110  13.306   6.343   1.051
64424SOL    HW195111  13.343   6.310   0.969
64424SOL    HW295112  13.360   6.305   1.120
64425SOL     OW95113  11.274  11.234   6.132
64425SOL    HW195114  11.356  11.185   6.136
64425SOL    HW295115  11.263  11.270   6.220
64426SOL     OW95116   1.437   6.142   9.293
64426SOL    HW195117   1.504   6.090   9.248
64426SOL    HW295118   1.433   6.224   9.245
64427SOL     OW95119   7.154   4.481   3.939
64427SOL    HW195120   7.092   4.494   3.867
64427SOL    HW295121   7.218   4.419   3.904
64428SOL     OW95122  12.834   5.215   3.720
64428SOL    HW195123  12.764   5.270   3.756
64428SOL    HW295124  12.789   5.150   3.667
64429SOL     OW95125  10.421   7.613   5.740
64429SOL    HW195126  10.434   7.706   5.759
64429SOL    HW295127  10.427   7.607   5.645
64430SOL     OW95128   8.198  14.039   4.012
64430SOL    HW195129   8.292  14.044   3.996
64430SOL    HW295130   8.164  13.985   3.940
64431SOL     OW95131   4.406   9.871   4.818
64431SOL    HW195132   4.502   9.875   4.825
64431SOL    HW295133   4.389   9.791   4.768
64432SOL     OW95134   1.682   7.100   0.602
64432SOL    HW195135   1.718   7.013   0.619
64432SOL    HW295136   1.758   7.156   0.589
64433SOL     OW95137   8.311   4.639   9.435
64433SOL    HW195138   8.381   4.607   9.379
64433SOL    HW295139   8.248   4.567   9.439
64434SOL     OW95140   4.985  12.394  13.255
64434SOL    HW195141   4.906  12.340  13.262
64434SOL    HW295142   4.967  12.470  13.309
64435SOL     OW95143   2.687  11.563   8.447
64435SOL    HW195144   2.593  11.566   8.430
64435SOL    HW295145   2.719  11.650   8.423
64436SOL     OW95146  14.342  10.939  14.519
64436SOL    HW195147  14.322  11.025  14.557
64436SOL    HW295148  14.264  10.917  14.467
64437SOL     OW95149   3.699   0.337  13.681
64437SOL    HW195150   3.654   0.316  13.599
64437SOL    HW295151   3.763   0.266  13.692
64438SOL     OW95152   5.956   6.290  14.875
64438SOL    HW195153   5.970   6.245   0.076
64438SOL    HW295154   5.868   6.326  14.882
64439SOL     OW95155  10.281   6.439   1.365
64439SOL    HW195156  10.332   6.363   1.336
64439SOL    HW295157  10.217   6.452   1.294
64440SOL     OW95158   7.404   0.185  11.528
64440SOL    HW195159   7.464   0.125  11.485
64440SOL    HW295160   7.460   0.243  11.579
64441SOL     OW95161  12.676   0.048   8.585
64441SOL    HW195162  12.703   0.048   8.677
64441SOL    HW295163  12.758   0.055   8.536
64442SOL     OW95164   7.650   9.160   4.466
64442SOL    HW195165   7.564   9.120   4.449
64442SOL    HW295166   7.631   9.253   4.475
64443SOL     OW95167   2.681   7.499  11.851
64443SOL    HW195168   2.741   7.550  11.797
64443SOL    HW295169   2.733   7.471  11.926
64444SOL     OW95170   9.446   3.101   3.527
64444SOL    HW195171   9.492   3.019   3.510
64444SOL    HW295172   9.493   3.166   3.474
64445SOL     OW95173  14.231   1.645   8.832
64445SOL    HW195174  14.180   1.646   8.913
64445SOL    HW295175  14.271   1.558   8.830
64446SOL     OW95176   4.666   7.387   4.617
64446SOL    HW195177   4.662   7.397   4.712
64446SOL    HW295178   4.750   7.343   4.602
64447SOL     OW95179   5.976   2.505   2.512
64447SOL    HW195180   5.931   2.432   2.470
64447SOL    HW295181   5.912   2.540   2.574
64448SOL     OW95182   7.895   4.677  10.111
64448SOL    HW195183   7.979   4.684  10.066
64448SOL    HW295184   7.880   4.764  10.148
64449SOL     OW95185  12.646  12.695   8.667
64449SOL    HW195186  12.696  12.772   8.694
64449SOL    HW295187  12.684  12.623   8.719
64450SOL     OW95188  12.143   7.486  11.916
64450SOL    HW195189  12.131   7.392  11.931
64450SOL    HW295190  12.157   7.523  12.004
64451SOL     OW95191   3.134  10.854   6.232
64451SOL    HW195192   3.048  10.818   6.207
64451SOL    HW295193   3.118  10.896   6.317
64452SOL     OW95194  12.062  10.921   0.773
64452SOL    HW195195  12.027  11.006   0.748
64452SOL    HW295196  12.057  10.919   0.868
64453SOL     OW95197   3.598   0.599   1.370
64453SOL    HW195198   3.573   0.650   1.293
64453SOL    HW295199   3.595   0.661   1.442
64454SOL     OW95200   7.809   0.916  12.216
64454SOL    HW195201   7.831   0.876  12.300
64454SOL    HW295202   7.714   0.928  12.219
64455SOL     OW95203   2.159   1.758   3.883
64455SOL    HW195204   2.128   1.816   3.953
64455SOL    HW295205   2.123   1.796   3.803
64456SOL     OW95206  14.493   0.745  11.593
64456SOL    HW195207  14.458   0.750  11.504
64456SOL    HW295208  14.530   0.833  11.609
64457SOL     OW95209   5.605   2.869   9.330
64457SOL    HW195210   5.551   2.880   9.251
64457SOL    HW295211   5.542   2.867   9.402
64458SOL     OW95212   2.240   5.767  12.546
64458SOL    HW195213   2.192   5.727  12.474
64458SOL    HW295214   2.331   5.741  12.532
64459SOL     OW95215   6.228  14.371   3.815
64459SOL    HW195216   6.213  14.322   3.896
64459SOL    HW295217   6.167  14.332   3.752
64460SOL     OW95218   4.447  13.723   5.641
64460SOL    HW195219   4.475  13.775   5.716
64460SOL    HW295220   4.385  13.780   5.595
64461SOL     OW95221   7.178   0.824   3.355
64461SOL    HW195222   7.127   0.751   3.391
64461SOL    HW295223   7.269   0.800   3.372
64462SOL     OW95224  13.951  11.544   4.771
64462SOL    HW195225  14.017  11.560   4.838
64462SOL    HW295226  13.935  11.450   4.775
64463SOL     OW95227   4.545   5.677   7.085
64463SOL    HW195228   4.481   5.747   7.092
64463SOL    HW295229   4.628   5.722   7.072
64464SOL     OW95230  11.108  11.475  11.446
64464SOL    HW195231  11.145  11.387  11.444
64464SOL    HW295232  11.026  11.467  11.398
64465SOL     OW95233   8.978  11.390  13.531
64465SOL    HW195234   8.903  11.343  13.495
64465SOL    HW295235   9.022  11.325  13.587
64466SOL     OW95236  12.147   0.508  12.449
64466SOL    HW195237  12.195   0.582  12.487
64466SOL    HW295238  12.063   0.544  12.423
64467SOL     OW95239   3.868   0.577   3.342
64467SOL    HW195240   3.833   0.660   3.311
64467SOL    HW295241   3.829   0.565   3.429
64468SOL     OW95242   3.070   9.793   6.060
64468SOL    HW195243   3.047   9.885   6.055
64468SOL    HW295244   3.012   9.757   6.128
64469SOL     OW95245   7.270  10.586  14.290
64469SOL    HW195246   7.295  10.675  14.314
64469SOL    HW295247   7.346  10.533  14.314
64470SOL     OW95248   1.021   9.486   8.788
64470SOL    HW195249   1.047   9.517   8.701
64470SOL    HW295250   0.925   9.496   8.788
64471SOL     OW95251   0.530  10.577   6.559
64471SOL    HW195252   0.472  10.651   6.538
64471SOL    HW295253   0.486  10.501   6.522
64472SOL     OW95254   1.772   3.837   4.908
64472SOL    HW195255   1.771   3.799   4.996
64472SOL    HW295256   1.757   3.762   4.849
64473SOL     OW95257   6.959   8.167  10.208
64473SOL    HW195258   6.983   8.187  10.118
64473SOL    HW295259   7.004   8.085  10.227
64474SOL     OW95260   8.964   8.390  10.181
64474SOL    HW195261   8.892   8.345  10.137
64474SOL    HW295262   8.970   8.475  10.138
64475SOL     OW95263   4.102  14.842   7.794
64475SOL    HW195264   4.008  14.829   7.776
64475SOL    HW295265   4.138  14.754   7.796
64476SOL     OW95266  12.941   5.243   6.942
64476SOL    HW195267  12.923   5.306   7.011
64476SOL    HW295268  12.970   5.164   6.988
64477SOL     OW95269   2.713   4.253   2.699
64477SOL    HW195270   2.732   4.342   2.670
64477SOL    HW295271   2.623   4.258   2.733
64478SOL     OW95272   1.796   3.632  11.497
64478SOL    HW195273   1.730   3.653  11.563
64478SOL    HW295274   1.825   3.544  11.519
64479SOL     OW95275   2.457   3.649   3.566
64479SOL    HW195276   2.535   3.662   3.511
64479SOL    HW295277   2.491   3.619   3.650
64480SOL     OW95278   4.033   2.955   9.302
64480SOL    HW195279   4.104   2.975   9.363
64480SOL    HW295280   4.043   2.862   9.283
64481SOL     OW95281  12.694   6.181   7.858
64481SOL    HW195282  12.699   6.184   7.953
64481SOL    HW295283  12.712   6.090   7.835
64482SOL     OW95284   5.251   9.612   9.502
64482SOL    HW195285   5.267   9.705   9.518
64482SOL    HW295286   5.215   9.610   9.413
64483SOL     OW95287   5.601   0.177  10.047
64483SOL    HW195288   5.635   0.211   9.964
64483SOL    HW295289   5.663   0.208  10.113
64484SOL     OW95290   0.979   4.044   8.501
64484SOL    HW195291   0.899   4.022   8.550
64484SOL    HW295292   1.007   4.127   8.539
64485SOL     OW95293  13.659  14.261   4.916
64485SOL    HW195294  13.583  14.314   4.893
64485SOL    HW295295  13.717  14.322   4.962
64486SOL     OW95296   9.157  12.531   5.364
64486SOL    HW195297   9.185  12.573   5.282
64486SOL    HW295298   9.101  12.595   5.407
64487SOL     OW95299  11.387   0.070   7.022
64487SOL    HW195300  11.317   0.116   7.068
64487SOL    HW295301  11.401   0.120   6.942
64488SOL     OW95302   5.134   0.542  11.754
64488SOL    HW195303   5.170   0.514  11.838
64488SOL    HW295304   5.204   0.524  11.691
64489SOL     OW95305  13.763  11.321   7.187
64489SOL    HW195306  13.779  11.318   7.281
64489SOL    HW295307  13.848  11.302   7.148
64490SOL     OW95308   5.797   4.856  12.649
64490SOL    HW195309   5.886   4.873  12.617
64490SOL    HW295310   5.800   4.765  12.679
64491SOL     OW95311   7.657  14.441   8.568
64491SOL    HW195312   7.613  14.517   8.606
64491SOL    HW295313   7.697  14.474   8.488
64492SOL     OW95314   8.082   6.652   2.629
64492SOL    HW195315   8.049   6.624   2.545
64492SOL    HW295316   8.028   6.728   2.653
64493SOL     OW95317   7.974   8.115  10.519
64493SOL    HW195318   7.907   8.109  10.588
64493SOL    HW295319   7.925   8.129  10.439
64494SOL     OW95320   5.123  11.205   5.785
64494SOL    HW195321   5.069  11.174   5.857
64494SOL    HW295322   5.185  11.134   5.768
64495SOL     OW95323   5.200  14.387   9.408
64495SOL    HW195324   5.255  14.395   9.330
64495SOL    HW295325   5.114  14.360   9.375
64496SOL     OW95326   1.643   0.629   2.187
64496SOL    HW195327   1.574   0.569   2.159
64496SOL    HW295328   1.626   0.643   2.280
64497SOL     OW95329   7.650  11.384  14.036
64497SOL    HW195330   7.647  11.410  14.128
64497SOL    HW295331   7.594  11.449  13.992
64498SOL     OW95332  11.092  13.517  12.015
64498SOL    HW195333  11.083  13.426  12.044
64498SOL    HW295334  11.115  13.565  12.095
64499SOL     OW95335   0.402   6.084   3.690
64499SOL    HW195336   0.342   6.126   3.752
64499SOL    HW295337   0.377   6.121   3.605
64500SOL     OW95338   7.385  14.587   4.656
64500SOL    HW195339   7.421  14.518   4.711
64500SOL    HW295340   7.434  14.580   4.574
64501SOL     OW95341  12.727   4.485  12.214
64501SOL    HW195342  12.816   4.483  12.180
64501SOL    HW295343  12.730   4.547  12.287
64502SOL     OW95344   8.179   6.066   1.703
64502SOL    HW195345   8.147   6.051   1.614
64502SOL    HW295346   8.213   6.156   1.702
64503SOL     OW95347  14.650  10.289   6.350
64503SOL    HW195348  14.658  10.306   6.256
64503SOL    HW295349  14.608  10.367   6.385
64504SOL     OW95350  13.847   9.732   4.080
64504SOL    HW195351  13.877   9.644   4.103
64504SOL    HW295352  13.861   9.738   3.985
64505SOL     OW95353  13.472   1.021  13.697
64505SOL    HW195354  13.484   0.950  13.760
64505SOL    HW295355  13.525   0.996  13.621
64506SOL     OW95356  13.611  11.860  14.417
64506SOL    HW195357  13.701  11.828  14.414
64506SOL    HW295358  13.608  11.915  14.495
64507SOL     OW95359   9.794   1.404   0.259
64507SOL    HW195360   9.835   1.380   0.342
64507SOL    HW295361   9.868   1.419   0.200
64508SOL     OW95362  13.977  14.851   2.135
64508SOL    HW195363  13.942  14.859   2.047
64508SOL    HW295364  13.971  14.758   2.155
64509SOL     OW95365  12.635   1.061   4.357
64509SOL    HW195366  12.709   1.123   4.358
64509SOL    HW295367  12.559   1.115   4.338
64510SOL     OW95368  11.548   5.865  11.042
64510SOL    HW195369  11.535   5.928  10.972
64510SOL    HW295370  11.521   5.911  11.121
64511SOL     OW95371  12.334  10.914  12.702
64511SOL    HW195372  12.317  10.903  12.795
64511SOL    HW295373  12.262  10.967  12.670
64512SOL     OW95374   7.518   0.116   1.596
64512SOL    HW195375   7.606   0.148   1.615
64512SOL    HW295376   7.461   0.191   1.611
64513SOL     OW95377  11.281  12.686   8.522
64513SOL    HW195378  11.228  12.749   8.570
64513SOL    HW295379  11.370  12.702   8.553
64514SOL     OW95380   2.719  14.639   8.127
64514SOL    HW195381   2.629  14.653   8.155
64514SOL    HW295382   2.711  14.584   8.049
64515SOL     OW95383   4.245   9.343   1.435
64515SOL    HW195384   4.151   9.335   1.444
64515SOL    HW295385   4.263   9.435   1.457
64516SOL     OW95386   6.774   5.710   7.185
64516SOL    HW195387   6.764   5.804   7.173
64516SOL    HW295388   6.686   5.679   7.209
64517SOL     OW95389   9.443  13.303  11.811
64517SOL    HW195390   9.372  13.289  11.873
64517SOL    HW295391   9.516  13.334  11.864
64518SOL     OW95392  11.015   9.416   8.514
64518SOL    HW195393  10.928   9.431   8.553
64518SOL    HW295394  11.009   9.456   8.427
64519SOL     OW95395   4.263   6.774  11.930
64519SOL    HW195396   4.215   6.720  11.867
64519SOL    HW295397   4.268   6.860  11.888
64520SOL     OW95398   8.573   0.050   2.001
64520SOL    HW195399   8.564   0.033   2.094
64520SOL    HW295400   8.658   0.012   1.978
64521SOL     OW95401   2.338   0.329   0.111
64521SOL    HW195402   2.381   0.247   0.136
64521SOL    HW295403   2.411   0.391   0.099
64522SOL     OW95404  13.938   6.308  14.287
64522SOL    HW195405  13.980   6.223  14.273
64522SOL    HW295406  13.990   6.349  14.356
64523SOL     OW95407   5.468   2.567   2.702
64523SOL    HW195408   5.536   2.595   2.764
64523SOL    HW295409   5.482   2.473   2.693
64524SOL     OW95410  11.303   6.094  10.542
64524SOL    HW195411  11.338   6.023  10.488
64524SOL    HW295412  11.247   6.051  10.605
64525SOL     OW95413  13.495   7.643   3.915
64525SOL    HW195414  13.520   7.693   3.993
64525SOL    HW295415  13.455   7.707   3.857
64526SOL     OW95416   3.915   3.135  12.346
64526SOL    HW195417   3.841   3.074  12.349
64526SOL    HW295418   3.991   3.078  12.333
64527SOL     OW95419  13.885   0.994   7.876
64527SOL    HW195420  13.903   0.950   7.793
64527SOL    HW295421  13.882   0.923   7.940
64528SOL     OW95422   6.079  10.391   4.734
64528SOL    HW195423   6.129  10.386   4.816
64528SOL    HW295424   5.991  10.417   4.761
64529SOL     OW95425   3.039   4.137   1.256
64529SOL    HW195426   2.994   4.081   1.192
64529SOL    HW295427   2.972   4.157   1.322
64530SOL     OW95428   8.243  10.592   5.826
64530SOL    HW195429   8.270  10.561   5.740
64530SOL    HW295430   8.293  10.539   5.888
64531SOL     OW95431  13.697   1.142   1.064
64531SOL    HW195432  13.698   1.124   0.970
64531SOL    HW295433  13.789   1.137   1.091
64532SOL     OW95434  12.360   5.271  12.103
64532SOL    HW195435  12.331   5.277  12.194
64532SOL    HW295436  12.294   5.319  12.053
64533SOL     OW95437   0.789   7.329   0.587
64533SOL    HW195438   0.745   7.409   0.558
64533SOL    HW295439   0.871   7.328   0.538
64534SOL     OW95440   8.390   8.698   7.107
64534SOL    HW195441   8.342   8.618   7.128
64534SOL    HW295442   8.478   8.682   7.140
64535SOL     OW95443  10.648  12.044   6.014
64535SOL    HW195444  10.572  12.029   5.957
64535SOL    HW295445  10.616  12.103   6.081
64536SOL     OW95446   7.767   8.943   7.413
64536SOL    HW195447   7.846   8.946   7.359
64536SOL    HW295448   7.702   8.899   7.359
64537SOL     OW95449   0.878  13.213   8.190
64537SOL    HW195450   0.928  13.294   8.177
64537SOL    HW295451   0.794  13.229   8.146
64538SOL     OW95452  12.986   0.662   2.551
64538SOL    HW195453  13.001   0.568   2.539
64538SOL    HW295454  12.891   0.671   2.546
64539SOL     OW95455  13.627   1.836  14.020
64539SOL    HW195456  13.681   1.840  14.099
64539SOL    HW295457  13.653   1.754  13.978
64540SOL     OW95458   3.117  11.547   0.051
64540SOL    HW195459   3.176  11.519  14.863
64540SOL    HW295460   3.033  11.563   0.006
64541SOL     OW95461  10.975  10.056  13.360
64541SOL    HW195462  11.000  10.148  13.357
64541SOL    HW295463  11.057  10.008  13.372
64542SOL     OW95464  10.681   3.890   5.176
64542SOL    HW195465  10.750   3.838   5.135
64542SOL    HW295466  10.713   3.905   5.265
64543SOL     OW95467   4.860   5.300   8.066
64543SOL    HW195468   4.772   5.338   8.063
64543SOL    HW295469   4.900   5.327   7.984
64544SOL     OW95470   7.235   5.086  11.231
64544SOL    HW195471   7.330   5.090  11.219
64544SOL    HW295472   7.202   5.055  11.147
64545SOL     OW95473  10.700   5.620  12.689
64545SOL    HW195474  10.607   5.615  12.667
64545SOL    HW295475  10.714   5.548  12.750
64546SOL     OW95476   5.597  14.772  14.056
64546SOL    HW195477   5.660  14.839  14.079
64546SOL    HW295478   5.526  14.819  14.011
64547SOL     OW95479   2.680  11.411  11.861
64547SOL    HW195480   2.725  11.388  11.780
64547SOL    HW295481   2.739  11.381  11.930
64548SOL     OW95482   4.788  13.914  11.407
64548SOL    HW195483   4.752  13.847  11.466
64548SOL    HW295484   4.750  13.996  11.437
64549SOL     OW95485  10.172  14.076   0.037
64549SOL    HW195486  10.142  14.143  14.858
64549SOL    HW295487  10.093  14.027   0.060
64550SOL     OW95488   5.568   5.972   0.128
64550SOL    HW195489   5.568   6.049   0.184
64550SOL    HW295490   5.609   6.001   0.046
64551SOL     OW95491   0.830  14.836  12.498
64551SOL    HW195492   0.892  14.815  12.428
64551SOL    HW295493   0.777  14.757  12.507
64552SOL     OW95494   4.484  11.663  13.445
64552SOL    HW195495   4.571  11.703  13.453
64552SOL    HW295496   4.500  11.574  13.414
64553SOL     OW95497  13.172  12.097   5.046
64553SOL    HW195498  13.215  12.064   5.125
64553SOL    HW295499  13.096  12.145   5.079
64554SOL     OW95500  14.394   6.094  10.058
64554SOL    HW195501  14.435   6.039   9.991
64554SOL    HW295502  14.301   6.092  10.036
64555SOL     OW95503  12.348   3.027  11.098
64555SOL    HW195504  12.326   2.944  11.142
64555SOL    HW295505  12.420   3.063  11.150
64556SOL     OW95506  11.875   2.249   4.892
64556SOL    HW195507  11.825   2.169   4.876
64556SOL    HW295508  11.871   2.261   4.987
64557SOL     OW95509   7.496   0.595   0.762
64557SOL    HW195510   7.551   0.579   0.839
64557SOL    HW295511   7.449   0.675   0.782
64558SOL     OW95512   3.330   4.376  10.011
64558SOL    HW195513   3.416   4.405  10.042
64558SOL    HW295514   3.291   4.332  10.087
64559SOL     OW95515   2.490   8.546   9.936
64559SOL    HW195516   2.399   8.573   9.924
64559SOL    HW295517   2.540   8.599   9.874
64560SOL     OW95518   6.034   0.030   3.911
64560SOL    HW195519   6.000   0.077   3.987
64560SOL    HW295520   6.093  14.846   3.948
64561SOL     OW95521  11.706  10.088   5.587
64561SOL    HW195522  11.780  10.035   5.616
64561SOL    HW295523  11.697  10.068   5.494
64562SOL     OW95524   5.997   2.095  12.863
64562SOL    HW195525   6.086   2.120  12.887
64562SOL    HW295526   5.946   2.176  12.875
64563SOL     OW95527   4.909   7.510   2.368
64563SOL    HW195528   4.964   7.583   2.342
64563SOL    HW295529   4.851   7.545   2.436
64564SOL     OW95530   2.379   6.264   8.511
64564SOL    HW195531   2.433   6.255   8.432
64564SOL    HW295532   2.412   6.196   8.570
64565SOL     OW95533   6.202   3.569   7.842
64565SOL    HW195534   6.141   3.625   7.890
64565SOL    HW295535   6.274   3.554   7.903
64566SOL     OW95536   6.521   1.922  14.107
64566SOL    HW195537   6.470   1.983  14.161
64566SOL    HW295538   6.486   1.933  14.018
64567SOL     OW95539   0.021  14.529  12.015
64567SOL    HW195540  14.837  14.462  12.031
64567SOL    HW295541  14.860  14.590  11.954
64568SOL     OW95542  11.691   5.630  13.441
64568SOL    HW195543  11.690   5.551  13.387
64568SOL    HW295544  11.601   5.638  13.474
64569SOL     OW95545   8.679  10.605   0.379
64569SOL    HW195546   8.743  10.632   0.444
64569SOL    HW295547   8.640  10.687   0.348
64570SOL     OW95548  10.633   5.621  14.328
64570SOL    HW195549  10.583   5.701  14.311
64570SOL    HW295550  10.711   5.650  14.375
64571SOL     OW95551   2.338  11.537   8.672
64571SOL    HW195552   2.315  11.559   8.762
64571SOL    HW295553   2.432  11.553   8.666
64572SOL     OW95554   1.654  12.581   5.634
64572SOL    HW195555   1.564  12.562   5.662
64572SOL    HW295556   1.695  12.495   5.626
64573SOL     OW95557  13.451   4.600   9.686
64573SOL    HW195558  13.385   4.660   9.650
64573SOL    HW295559  13.469   4.633   9.774
64574SOL     OW95560  12.112   0.318   9.273
64574SOL    HW195561  12.103   0.409   9.301
64574SOL    HW295562  12.021   0.288   9.260
64575SOL     OW95563   9.555   9.848   2.058
64575SOL    HW195564   9.524   9.797   1.984
64575SOL    HW295565   9.551   9.788   2.132
64576SOL     OW95566  12.999   2.596   0.846
64576SOL    HW195567  12.951   2.656   0.789
64576SOL    HW295568  13.091   2.613   0.827
64577SOL     OW95569   5.614   7.905   2.319
64577SOL    HW195570   5.641   7.814   2.306
64577SOL    HW295571   5.526   7.910   2.282
64578SOL     OW95572  14.130  14.345  10.098
64578SOL    HW195573  14.135  14.349  10.194
64578SOL    HW295574  14.037  14.334  10.080
64579SOL     OW95575   3.050   1.521   1.699
64579SOL    HW195576   3.043   1.583   1.626
64579SOL    HW295577   3.035   1.435   1.660
64580SOL     OW95578   3.190   0.137   7.400
64580SOL    HW195579   3.280   0.131   7.368
64580SOL    HW295580   3.171   0.231   7.399
64581SOL     OW95581   4.998  10.052   5.616
64581SOL    HW195582   4.971  10.018   5.530
64581SOL    HW295583   5.091  10.074   5.604
64582SOL     OW95584   7.288   1.248   2.763
64582SOL    HW195585   7.331   1.191   2.699
64582SOL    HW295586   7.353   1.258   2.833
64583SOL     OW95587   6.421   7.378   8.398
64583SOL    HW195588   6.415   7.283   8.402
64583SOL    HW295589   6.368   7.409   8.471
64584SOL     OW95590   2.473   5.459  14.759
64584SOL    HW195591   2.485   5.489  14.849
64584SOL    HW295592   2.396   5.505  14.728
64585SOL     OW95593   9.481   3.010   9.410
64585SOL    HW195594   9.389   3.024   9.385
64585SOL    HW295595   9.528   3.010   9.327
64586SOL     OW95596  12.711   5.181   9.686
64586SOL    HW195597  12.640   5.198   9.624
64586SOL    HW295598  12.668   5.173   9.771
64587SOL     OW95599   3.680   1.971   9.172
64587SOL    HW195600   3.629   2.033   9.224
64587SOL    HW295601   3.619   1.900   9.152
64588SOL     OW95602  14.245   7.121   3.501
64588SOL    HW195603  14.181   7.151   3.566
64588SOL    HW295604  14.215   7.158   3.418
64589SOL     OW95605  13.833  13.822   9.590
64589SOL    HW195606  13.864  13.818   9.499
64589SOL    HW295607  13.880  13.897   9.628
64590SOL     OW95608   4.990   5.730   0.156
64590SOL    HW195609   5.077   5.747   0.120
64590SOL    HW295610   4.999   5.746   0.250
64591SOL     OW95611   7.889   0.628  12.270
64591SOL    HW195612   7.828   0.560  12.297
64591SOL    HW295613   7.887   0.692  12.341
64592SOL     OW95614   3.508  11.134  10.604
64592SOL    HW195615   3.589  11.087  10.622
64592SOL    HW295616   3.499  11.196  10.677
64593SOL     OW95617  10.248   9.417   5.018
64593SOL    HW195618  10.185   9.347   5.030
64593SOL    HW295619  10.235   9.445   4.927
64594SOL     OW95620  14.246   1.387   5.832
64594SOL    HW195621  14.333   1.412   5.800
64594SOL    HW295622  14.207   1.339   5.759
64595SOL     OW95623   7.012   3.703   1.828
64595SOL    HW195624   6.947   3.733   1.892
64595SOL    HW295625   7.022   3.777   1.768
64596SOL     OW95626   4.565   8.738  12.443
64596SOL    HW195627   4.595   8.757  12.532
64596SOL    HW295628   4.645   8.741  12.390
64597SOL     OW95629   0.241   7.079   9.812
64597SOL    HW195630   0.178   7.112   9.747
64597SOL    HW295631   0.327   7.093   9.771
64598SOL     OW95632  10.462   7.861   5.973
64598SOL    HW195633  10.405   7.803   6.024
64598SOL    HW295634  10.418   7.868   5.888
64599SOL     OW95635  12.438   3.822   3.338
64599SOL    HW195636  12.514   3.826   3.396
64599SOL    HW295637  12.406   3.912   3.334
64600SOL     OW95638  11.314   9.229  12.003
64600SOL    HW195639  11.323   9.151  12.057
64600SOL    HW295640  11.247   9.281  12.048
64601SOL     OW95641  11.833   6.864  12.474
64601SOL    HW195642  11.748   6.821  12.466
64601SOL    HW295643  11.867   6.869  12.385
64602SOL     OW95644  10.672  13.254   1.885
64602SOL    HW195645  10.676  13.342   1.847
64602SOL    HW295646  10.739  13.254   1.953
64603SOL     OW95647  12.780  11.748   4.100
64603SOL    HW195648  12.840  11.808   4.144
64603SOL    HW295649  12.758  11.792   4.018
64604SOL     OW95650   8.375  12.152  11.293
64604SOL    HW195651   8.389  12.162  11.387
64604SOL    HW295652   8.353  12.059  11.281
64605SOL     OW95653   0.616  13.936   7.389
64605SOL    HW195654   0.615  13.968   7.298
64605SOL    HW295655   0.598  14.014   7.442
64606SOL     OW95656   9.978   1.489   9.221
64606SOL    HW195657   9.963   1.552   9.151
64606SOL    HW295658   9.920   1.518   9.292
64607SOL     OW95659   6.577   1.764   4.972
64607SOL    HW195660   6.575   1.754   5.068
64607SOL    HW295661   6.515   1.834   4.954
64608SOL     OW95662   0.338  10.312   4.749
64608SOL    HW195663   0.347  10.351   4.662
64608SOL    HW295664   0.312  10.385   4.805
64609SOL     OW95665  13.001   6.833  11.537
64609SOL    HW195666  13.052   6.816  11.458
64609SOL    HW295667  13.063   6.874  11.597
64610SOL     OW95668  10.024   0.940  11.374
64610SOL    HW195669  10.046   1.030  11.399
64610SOL    HW295670   9.929   0.939  11.370
64611SOL     OW95671   5.447  12.722   9.963
64611SOL    HW195672   5.399  12.640   9.968
64611SOL    HW295673   5.503  12.723  10.041
64612SOL     OW95674   8.399   8.032   4.440
64612SOL    HW195675   8.407   8.118   4.481
64612SOL    HW295676   8.335   8.045   4.370
64613SOL     OW95677   8.527   8.617   7.464
64613SOL    HW195678   8.441   8.615   7.507
64613SOL    HW295679   8.542   8.709   7.445
64614SOL     OW95680   9.980   6.521  14.864
64614SOL    HW195681   9.971   6.615  14.847
64614SOL    HW295682   9.918   6.503   0.051
64615SOL     OW95683  11.484   8.916  14.827
64615SOL    HW195684  11.407   8.918  14.770
64615SOL    HW295685  11.483   8.828  14.865
64616SOL     OW95686   5.022   0.519   3.283
64616SOL    HW195687   4.998   0.502   3.374
64616SOL    HW295688   4.941   0.507   3.234
64617SOL     OW95689   7.397   1.265  14.175
64617SOL    HW195690   7.400   1.236  14.266
64617SOL    HW295691   7.448   1.199  14.127
64618SOL     OW95692  10.676   9.184   2.315
64618SOL    HW195693  10.647   9.161   2.404
64618SOL    HW295694  10.595   9.205   2.268
64619SOL     OW95695   6.615   2.054   6.252
64619SOL    HW195696   6.697   2.100   6.234
64619SOL    HW295697   6.558   2.079   6.179
64620SOL     OW95698   7.072  13.467  10.120
64620SOL    HW195699   7.120  13.400  10.072
64620SOL    HW295700   7.066  13.541  10.058
64621SOL     OW95701  10.695  10.865   0.449
64621SOL    HW195702  10.689  10.783   0.497
64621SOL    HW295703  10.606  10.901   0.452
64622SOL     OW95704  12.069  12.352   0.295
64622SOL    HW195705  12.157  12.317   0.276
64622SOL    HW295706  12.040  12.390   0.212
64623SOL     OW95707   7.168   6.185  12.335
64623SOL    HW195708   7.238   6.215  12.277
64623SOL    HW295709   7.162   6.091  12.319
64624SOL     OW95710  13.145   9.238   2.270
64624SOL    HW195711  13.174   9.231   2.179
64624SOL    HW295712  13.219   9.277   2.316
64625SOL     OW95713   0.283   9.019   0.684
64625SOL    HW195714   0.264   9.107   0.649
64625SOL    HW295715   0.339   8.979   0.618
64626SOL     OW95716   8.395   5.056   6.790
64626SOL    HW195717   8.471   5.052   6.732
64626SOL    HW295718   8.395   5.145   6.824
64627SOL     OW95719   3.842  12.188  13.884
64627SOL    HW195720   3.927  12.173  13.844
64627SOL    HW295721   3.812  12.100  13.908
64628SOL     OW95722   6.523   2.328  13.450
64628SOL    HW195723   6.482   2.402  13.496
64628SOL    HW295724   6.462   2.306  13.380
64629SOL     OW95725   8.676  12.778  11.302
64629SOL    HW195726   8.598  12.781  11.357
64629SOL    HW295727   8.648  12.730  11.224
64630SOL     OW95728   9.704   8.484   1.686
64630SOL    HW195729   9.724   8.571   1.721
64630SOL    HW295730   9.633   8.499   1.624
64631SOL     OW95731   1.793  11.460  11.289
64631SOL    HW195732   1.829  11.487  11.204
64631SOL    HW295733   1.845  11.384  11.314
64632SOL     OW95734  10.144  13.509   3.505
64632SOL    HW195735  10.184  13.558   3.433
64632SOL    HW295736  10.196  13.535   3.582
64633SOL     OW95737   6.709   3.205   9.646
64633SOL    HW195738   6.661   3.249   9.576
64633SOL    HW295739   6.663   3.121   9.657
64634SOL     OW95740   7.770  10.082   3.941
64634SOL    HW195741   7.793  10.086   4.034
64634SOL    HW295742   7.754  10.173   3.916
64635SOL     OW95743   8.697  14.532   0.978
64635SOL    HW195744   8.710  14.466   0.910
64635SOL    HW295745   8.754  14.605   0.952
64636SOL     OW95746   0.879  11.509  11.307
64636SOL    HW195747   0.969  11.526  11.280
64636SOL    HW295748   0.832  11.492  11.226
64637SOL     OW95749  13.432  11.350   1.575
64637SOL    HW195750  13.474  11.277   1.622
64637SOL    HW295751  13.398  11.406   1.645
64638SOL     OW95752   5.462   1.388  13.860
64638SOL    HW195753   5.420   1.354  13.940
64638SOL    HW295754   5.556   1.386  13.880
64639SOL     OW95755   3.545   3.548   8.814
64639SOL    HW195756   3.531   3.514   8.726
64639SOL    HW295757   3.579   3.473   8.864
64640SOL     OW95758   0.103  12.402  10.449
64640SOL    HW195759   0.051  12.453  10.387
64640SOL    HW295760   0.131  12.325  10.400
64641SOL     OW95761   7.605   1.761   8.295
64641SOL    HW195762   7.576   1.759   8.203
64641SOL    HW295763   7.527   1.789   8.343
64642SOL     OW95764   1.419  13.361  12.286
64642SOL    HW195765   1.381  13.417  12.354
64642SOL    HW295766   1.452  13.423  12.220
64643SOL     OW95767   7.525   0.400   5.715
64643SOL    HW195768   7.553   0.329   5.774
64643SOL    HW295769   7.483   0.463   5.773
64644SOL     OW95770  12.933   4.904   5.448
64644SOL    HW195771  12.989   4.934   5.376
64644SOL    HW295772  12.976   4.937   5.527
64645SOL     OW95773   4.284  13.491   5.626
64645SOL    HW195774   4.288  13.426   5.696
64645SOL    HW295775   4.352  13.554   5.648
64646SOL     OW95776  13.793   4.057   3.497
64646SOL    HW195777  13.848   4.017   3.565
64646SOL    HW295778  13.771   4.143   3.531
64647SOL     OW95779  13.248  14.879   0.433
64647SOL    HW195780  13.255  14.807   0.370
64647SOL    HW295781  13.281   0.073   0.385
64648SOL     OW95782  11.021  13.977   7.327
64648SOL    HW195783  10.969  13.919   7.273
64648SOL    HW295784  10.987  14.065   7.307
64649SOL     OW95785  14.645   7.072   2.529
64649SOL    HW195786  14.695   7.094   2.608
64649SOL    HW295787  14.581   7.008   2.558
64650SOL     OW95788  11.464  13.728  10.253
64650SOL    HW195789  11.535  13.790  10.272
64650SOL    HW295790  11.407  13.733  10.330
64651SOL     OW95791   2.549  10.729   8.124
64651SOL    HW195792   2.598  10.799   8.082
64651SOL    HW295793   2.489  10.698   8.057
64652SOL     OW95794   2.950   7.907   2.231
64652SOL    HW195795   2.920   7.818   2.249
64652SOL    HW295796   2.870   7.959   2.223
64653SOL     OW95797   4.216  13.680   1.919
64653SOL    HW195798   4.156  13.615   1.953
64653SOL    HW295799   4.243  13.731   1.996
64654SOL     OW95800   3.784  10.648   8.006
64654SOL    HW195801   3.764  10.741   8.011
64654SOL    HW295802   3.711  10.604   8.049
64655SOL     OW95803   8.968  13.145   3.647
64655SOL    HW195804   8.942  13.232   3.617
64655SOL    HW295805   8.991  13.098   3.568
64656SOL     OW95806   9.479   0.469   9.941
64656SOL    HW195807   9.390   0.504   9.935
64656SOL    HW295808   9.532   0.529   9.888
64657SOL     OW95809  11.331   1.968  10.376
64657SOL    HW195810  11.424   1.992  10.382
64657SOL    HW295811  11.326   1.882  10.416
64658SOL     OW95812   4.780   2.084  10.586
64658SOL    HW195813   4.819   1.997  10.577
64658SOL    HW295814   4.826   2.137  10.521
64659SOL     OW95815   2.858  11.044   6.146
64659SOL    HW195816   2.855  11.023   6.239
64659SOL    HW295817   2.897  11.131   6.141
64660SOL     OW95818  13.065  11.918   5.906
64660SOL    HW195819  13.116  11.918   5.987
64660SOL    HW295820  13.055  12.011   5.884
64661SOL     OW95821   3.495  13.449   2.414
64661SOL    HW195822   3.436  13.411   2.479
64661SOL    HW295823   3.552  13.376   2.388
64662SOL     OW95824  12.589   3.497  13.510
64662SOL    HW195825  12.525   3.525  13.444
64662SOL    HW295826  12.672   3.535  13.481
64663SOL     OW95827   6.139   2.866  12.898
64663SOL    HW195828   6.170   2.785  12.856
64663SOL    HW295829   6.054   2.842  12.936
64664SOL     OW95830  11.237   1.750   1.063
64664SOL    HW195831  11.172   1.716   1.125
64664SOL    HW295832  11.317   1.758   1.115
64665SOL     OW95833   2.763   6.694   2.151
64665SOL    HW195834   2.856   6.715   2.137
64665SOL    HW295835   2.755   6.604   2.121
64666SOL     OW95836   6.924  10.635   4.598
64666SOL    HW195837   6.863  10.561   4.598
64666SOL    HW295838   6.990  10.611   4.664
64667SOL     OW95839   0.298  13.518   1.435
64667SOL    HW195840   0.236  13.579   1.474
64667SOL    HW295841   0.250  13.435   1.431
64668SOL     OW95842   5.010  10.800   0.757
64668SOL    HW195843   5.003  10.893   0.777
64668SOL    HW295844   5.015  10.796   0.661
64669SOL     OW95845   1.850  10.988   4.592
64669SOL    HW195846   1.894  11.034   4.520
64669SOL    HW295847   1.893  11.021   4.671
64670SOL     OW95848  11.171  13.261   6.671
64670SOL    HW195849  11.123  13.183   6.699
64670SOL    HW295850  11.227  13.230   6.600
64671SOL     OW95851  10.633  14.564   8.511
64671SOL    HW195852  10.594  14.491   8.559
64671SOL    HW295853  10.589  14.564   8.426
64672SOL     OW95854   9.892  10.020  13.566
64672SOL    HW195855   9.901  10.044  13.474
64672SOL    HW295856   9.937  10.089  13.614
64673SOL     OW95857  12.377   7.340   5.899
64673SOL    HW195858  12.350   7.287   5.974
64673SOL    HW295859  12.307   7.403   5.887
64674SOL     OW95860   8.473   7.575  13.843
64674SOL    HW195861   8.477   7.666  13.813
64674SOL    HW295862   8.560   7.558  13.878
64675SOL     OW95863   9.437   5.974   9.501
64675SOL    HW195864   9.499   5.983   9.429
64675SOL    HW295865   9.459   5.890   9.541
64676SOL     OW95866  14.720  13.702   9.518
64676SOL    HW195867  14.702  13.793   9.541
64676SOL    HW295868  14.788  13.708   9.451
64677SOL     OW95869  10.557   0.743  11.782
64677SOL    HW195870  10.553   0.831  11.743
64677SOL    HW295871  10.645   0.737  11.818
64678SOL     OW95872  10.054  11.096  10.373
64678SOL    HW195873   9.972  11.077  10.417
64678SOL    HW295874  10.120  11.095  10.443
64679SOL     OW95875   2.664   0.196  11.771
64679SOL    HW195876   2.712   0.114  11.758
64679SOL    HW295877   2.592   0.172  11.830
64680SOL     OW95878   6.745  12.739   6.489
64680SOL    HW195879   6.667  12.793   6.478
64680SOL    HW295880   6.776  12.759   6.577
64681SOL     OW95881   4.251   3.898  11.758
64681SOL    HW195882   4.238   3.850  11.840
64681SOL    HW295883   4.329   3.952  11.773
64682SOL     OW95884   4.510   3.291   0.323
64682SOL    HW195885   4.475   3.379   0.333
64682SOL    HW295886   4.581   3.286   0.387
64683SOL     OW95887   9.078  12.290   2.637
64683SOL    HW195888   9.051  12.270   2.727
64683SOL    HW295889   9.084  12.205   2.594
64684SOL     OW95890   4.418  10.548   6.452
64684SOL    HW195891   4.352  10.564   6.520
64684SOL    HW295892   4.499  10.531   6.501
64685SOL     OW95893   2.968  11.664   0.874
64685SOL    HW195894   2.892  11.621   0.914
64685SOL    HW295895   2.948  11.758   0.880
64686SOL     OW95896   4.344   7.822   6.644
64686SOL    HW195897   4.254   7.851   6.628
64686SOL    HW295898   4.398   7.897   6.618
64687SOL     OW95899   7.316   3.707   4.758
64687SOL    HW195900   7.329   3.639   4.692
64687SOL    HW295901   7.223   3.699   4.782
64688SOL     OW95902  11.430  11.934  14.635
64688SOL    HW195903  11.345  11.978  14.625
64688SOL    HW295904  11.489  12.004  14.662
64689SOL     OW95905   2.165  10.157   1.566
64689SOL    HW195906   2.133  10.244   1.543
64689SOL    HW295907   2.256  10.158   1.538
64690SOL     OW95908   1.470  11.702   3.521
64690SOL    HW195909   1.469  11.720   3.427
64690SOL    HW295910   1.430  11.615   3.529
64691SOL     OW95911   7.504  13.741   1.355
64691SOL    HW195912   7.490  13.830   1.389
64691SOL    HW295913   7.543  13.694   1.429
64692SOL     OW95914   5.972   5.881   7.597
64692SOL    HW195915   5.948   5.819   7.665
64692SOL    HW295916   5.930   5.963   7.624
64693SOL     OW95917   3.011  14.221   3.170
64693SOL    HW195918   2.982  14.253   3.084
64693SOL    HW295919   2.935  14.175   3.204
64694SOL     OW95920   8.785  13.267   1.118
64694SOL    HW195921   8.813  13.334   1.180
64694SOL    HW295922   8.847  13.275   1.045
64695SOL     OW95923   8.192   3.508   9.549
64695SOL    HW195924   8.250   3.523   9.474
64695SOL    HW295925   8.110   3.479   9.510
64696SOL     OW95926   2.219  12.454   7.776
64696SOL    HW195927   2.147  12.434   7.835
64696SOL    HW295928   2.195  12.410   7.694
64697SOL     OW95929  12.974  10.044  10.216
64697SOL    HW195930  12.932  10.098  10.282
64697SOL    HW295931  13.038   9.992  10.264
64698SOL     OW95932   0.823   9.848   9.800
64698SOL    HW195933   0.766   9.773   9.780
64698SOL    HW295934   0.768   9.925   9.785
64699SOL     OW95935   4.646   3.965  12.565
64699SOL    HW195936   4.739   3.980  12.582
64699SOL    HW295937   4.641   3.949  12.471
64700SOL     OW95938   6.455  10.350   6.262
64700SOL    HW195939   6.364  10.356   6.233
64700SOL    HW295940   6.502  10.319   6.185
64701SOL     OW95941   6.865   8.145   1.351
64701SOL    HW195942   6.901   8.097   1.276
64701SOL    HW295943   6.793   8.195   1.314
64702SOL     OW95944   1.988   8.829  10.459
64702SOL    HW195945   2.019   8.785  10.380
64702SOL    HW295946   2.067   8.864  10.500
64703SOL     OW95947  10.531  12.330   9.975
64703SOL    HW195948  10.600  12.395   9.965
64703SOL    HW295949  10.494  12.319   9.888
64704SOL     OW95950  14.231   3.901  10.496
64704SOL    HW195951  14.168   3.965  10.528
64704SOL    HW295952  14.300   3.953  10.455
64705SOL     OW95953   9.862   1.337   7.174
64705SOL    HW195954   9.800   1.277   7.132
64705SOL    HW295955   9.925   1.279   7.218
64706SOL     OW95956   9.147   1.903   7.880
64706SOL    HW195957   9.077   1.884   7.817
64706SOL    HW295958   9.195   1.977   7.842
64707SOL     OW95959   3.247   9.148   1.487
64707SOL    HW195960   3.332   9.110   1.510
64707SOL    HW295961   3.236   9.127   1.395
64708SOL     OW95962   2.046  13.178   3.180
64708SOL    HW195963   2.082  13.230   3.253
64708SOL    HW295964   1.986  13.237   3.136
64709SOL     OW95965   5.615  12.376   1.155
64709SOL    HW195966   5.686  12.438   1.173
64709SOL    HW295967   5.660  12.293   1.137
64710SOL     OW95968  14.525  10.736  14.531
64710SOL    HW195969  14.474  10.815  14.549
64710SOL    HW295970  14.474  10.689  14.465
64711SOL     OW95971   9.820  11.508  12.369
64711SOL    HW195972   9.914  11.490  12.368
64711SOL    HW295973   9.810  11.581  12.430
64712SOL     OW95974  12.302   2.473  12.966
64712SOL    HW195975  12.300   2.504  13.057
64712SOL    HW295976  12.245   2.396  12.966
64713SOL     OW95977  11.644   8.102   0.235
64713SOL    HW195978  11.670   8.012   0.252
64713SOL    HW295979  11.581   8.096   0.163
64714SOL     OW95980   7.517   3.852   8.148
64714SOL    HW195981   7.454   3.898   8.092
64714SOL    HW295982   7.476   3.767   8.165
64715SOL     OW95983  13.702   0.415   7.325
64715SOL    HW195984  13.696   0.510   7.318
64715SOL    HW295985  13.796   0.398   7.334
64716SOL     OW95986   6.448   8.026   4.850
64716SOL    HW195987   6.511   7.957   4.836
64716SOL    HW295988   6.478   8.099   4.795
64717SOL     OW95989  13.991  14.738   1.692
64717SOL    HW195990  14.016  14.656   1.651
64717SOL    HW295991  14.074  14.779   1.717
64718SOL     OW95992   1.281   7.763   4.176
64718SOL    HW195993   1.190   7.766   4.203
64718SOL    HW295994   1.299   7.851   4.142
64719SOL     OW95995   1.722   0.278  10.733
64719SOL    HW195996   1.669   0.224  10.674
64719SOL    HW295997   1.749   0.217  10.802
64720SOL     OW95998   2.553  13.573   8.323
64720SOL    HW195999   2.526  13.505   8.385
64720SOL    HW296000   2.631  13.612   8.361
64721SOL     OW96001  13.403   5.745  11.766
64721SOL    HW196002  13.479   5.797  11.790
64721SOL    HW296003  13.342   5.808  11.728
64722SOL     OW96004   1.478   4.662   6.170
64722SOL    HW196005   1.465   4.653   6.265
64722SOL    HW296006   1.530   4.742   6.161
64723SOL     OW96007  13.634   1.639  12.234
64723SOL    HW196008  13.591   1.607  12.154
64723SOL    HW296009  13.622   1.569  12.298
64724SOL     OW96010  13.150   7.128   8.637
64724SOL    HW196011  13.225   7.184   8.659
64724SOL    HW296012  13.152   7.058   8.702
64725SOL     OW96013   4.625   3.675  12.272
64725SOL    HW196014   4.589   3.671  12.183
64725SOL    HW296015   4.624   3.768  12.294
64726SOL     OW96016   2.176   9.011   9.244
64726SOL    HW196017   2.123   9.071   9.296
64726SOL    HW296018   2.265   9.044   9.251
64727SOL     OW96019   3.633  11.167   0.121
64727SOL    HW196020   3.584  11.085   0.128
64727SOL    HW296021   3.565  11.233   0.103
64728SOL     OW96022  14.194   4.049   5.692
64728SOL    HW196023  14.189   3.968   5.642
64728SOL    HW296024  14.104   4.081   5.695
64729SOL     OW96025   7.451   1.441   9.642
64729SOL    HW196026   7.368   1.394   9.632
64729SOL    HW296027   7.480   1.421   9.731
64730SOL     OW96028   1.720   3.333   0.187
64730SOL    HW196029   1.703   3.385   0.265
64730SOL    HW296030   1.815   3.322   0.185
64731SOL     OW96031   0.699   8.717  12.034
64731SOL    HW196032   0.624   8.776  12.026
64731SOL    HW296033   0.769   8.760  11.985
64732SOL     OW96034   9.645  11.830   0.386
64732SOL    HW196035   9.555  11.809   0.412
64732SOL    HW296036   9.678  11.882   0.460
64733SOL     OW96037   2.805   2.908   6.619
64733SOL    HW196038   2.739   2.895   6.687
64733SOL    HW296039   2.886   2.874   6.657
64734SOL     OW96040  10.466  11.067   2.119
64734SOL    HW196041  10.389  11.024   2.157
64734SOL    HW296042  10.431  11.144   2.074
64735SOL     OW96043   6.294   6.203   7.324
64735SOL    HW196044   6.359   6.181   7.391
64735SOL    HW296045   6.215   6.154   7.350
64736SOL     OW96046   3.671   6.705   2.812
64736SOL    HW196047   3.628   6.715   2.897
64736SOL    HW296048   3.621   6.761   2.753
64737SOL     OW96049  11.940   5.136   1.259
64737SOL    HW196050  11.971   5.119   1.171
64737SOL    HW296051  12.010   5.103   1.316
64738SOL     OW96052   8.531   8.676   9.142
64738SOL    HW196053   8.488   8.603   9.097
64738SOL    HW296054   8.498   8.754   9.097
64739SOL     OW96055   0.741  12.593  10.354
64739SOL    HW196056   0.715  12.540  10.279
64739SOL    HW296057   0.715  12.682  10.331
64740SOL     OW96058   3.153  10.076   8.899
64740SOL    HW196059   3.115  10.121   8.824
64740SOL    HW296060   3.078  10.052   8.954
64741SOL     OW96061  12.309   3.260   2.463
64741SOL    HW196062  12.340   3.264   2.373
64741SOL    HW296063  12.284   3.169   2.476
64742SOL     OW96064  10.940   7.112  14.308
64742SOL    HW196065  10.931   7.017  14.299
64742SOL    HW296066  10.942   7.127  14.403
64743SOL     OW96067   8.936   8.281   4.191
64743SOL    HW196068   8.915   8.242   4.105
64743SOL    HW296069   8.876   8.238   4.252
64744SOL     OW96070   7.879  11.299  13.166
64744SOL    HW196071   7.922  11.339  13.090
64744SOL    HW296072   7.790  11.335  13.165
64745SOL     OW96073   7.007  11.987   7.254
64745SOL    HW196074   7.054  12.046   7.196
64745SOL    HW296075   7.033  11.899   7.226
64746SOL     OW96076   0.850   8.323   5.856
64746SOL    HW196077   0.943   8.303   5.843
64746SOL    HW296078   0.814   8.327   5.767
64747SOL     OW96079   5.627   1.252   6.763
64747SOL    HW196080   5.627   1.162   6.729
64747SOL    HW296081   5.718   1.267   6.789
64748SOL     OW96082   3.527   5.643   9.779
64748SOL    HW196083   3.442   5.674   9.810
64748SOL    HW296084   3.559   5.586   9.849
64749SOL     OW96085   0.276   7.610  12.977
64749SOL    HW196086   0.240   7.655  13.054
64749SOL    HW296087   0.370   7.604  12.994
64750SOL     OW96088  14.449   8.203   9.661
64750SOL    HW196089  14.457   8.109   9.650
64750SOL    HW296090  14.395   8.214   9.739
64751SOL     OW96091   9.224   4.917   0.373
64751SOL    HW196092   9.256   5.003   0.345
64751SOL    HW296093   9.195   4.875   0.291
64752SOL     OW96094  12.259   6.548   8.249
64752SOL    HW196095  12.291   6.605   8.320
64752SOL    HW296096  12.333   6.491   8.229
64753SOL     OW96097  14.044   9.046   7.119
64753SOL    HW196098  14.139   9.040   7.109
64753SOL    HW296099  14.013   8.956   7.111
64754SOL     OW96100  10.416  12.629   7.304
64754SOL    HW196101  10.478  12.700   7.316
64754SOL    HW296102  10.344  12.650   7.363
64755SOL     OW96103   8.469  10.698  10.766
64755SOL    HW196104   8.427  10.765  10.821
64755SOL    HW296105   8.413  10.692  10.689
64756SOL     OW96106   0.753  10.246   1.120
64756SOL    HW196107   0.724  10.225   1.209
64756SOL    HW296108   0.684  10.213   1.064
64757SOL     OW96109   4.888   3.040   2.346
64757SOL    HW196110   4.963   3.054   2.289
64757SOL    HW296111   4.813   3.072   2.297
64758SOL     OW96112  14.378   0.513   8.051
64758SOL    HW196113  14.313   0.582   8.041
64758SOL    HW296114  14.423   0.510   7.967
64759SOL     OW96115  12.234   7.668   2.856
64759SOL    HW196116  12.282   7.658   2.937
64759SOL    HW296117  12.299   7.698   2.792
64760SOL     OW96118   7.915   9.840   5.845
64760SOL    HW196119   7.877   9.898   5.779
64760SOL    HW296120   7.980   9.893   5.891
64761SOL     OW96121   2.393   5.893  11.261
64761SOL    HW196122   2.453   5.948  11.210
64761SOL    HW296123   2.306   5.921  11.234
64762SOL     OW96124   9.099  14.525   8.287
64762SOL    HW196125   9.175  14.526   8.230
64762SOL    HW296126   9.059  14.612   8.276
64763SOL     OW96127  11.963  12.921   1.228
64763SOL    HW196128  11.892  12.898   1.288
64763SOL    HW296129  12.004  12.837   1.205
64764SOL     OW96130   4.528   7.273   5.544
64764SOL    HW196131   4.493   7.251   5.630
64764SOL    HW296132   4.482   7.214   5.484
64765SOL     OW96133   2.873  13.958   5.984
64765SOL    HW196134   2.952  13.987   6.029
64765SOL    HW296135   2.801  14.001   6.031
64766SOL     OW96136   5.360  11.699  13.170
64766SOL    HW196137   5.365  11.687  13.075
64766SOL    HW296138   5.444  11.668  13.203
64767SOL     OW96139   1.686   2.388   6.771
64767SOL    HW196140   1.723   2.302   6.791
64767SOL    HW296141   1.725   2.447   6.835
64768SOL     OW96142   9.307  14.251  10.909
64768SOL    HW196143   9.303  14.202  10.992
64768SOL    HW296144   9.262  14.333  10.928
64769SOL     OW96145  11.091   1.692   7.247
64769SOL    HW196146  11.176   1.731   7.265
64769SOL    HW296147  11.033   1.728   7.315
64770SOL     OW96148  11.984   4.477   4.788
64770SOL    HW196149  11.928   4.507   4.860
64770SOL    HW296150  12.045   4.550   4.774
64771SOL     OW96151   8.033  12.682   2.335
64771SOL    HW196152   7.995  12.721   2.414
64771SOL    HW296153   7.957  12.655   2.283
64772SOL     OW96154   2.687   1.453   8.235
64772SOL    HW196155   2.705   1.547   8.235
64772SOL    HW296156   2.650   1.435   8.149
64773SOL     OW96157  12.710   9.470   6.827
64773SOL    HW196158  12.752   9.551   6.798
64773SOL    HW296159  12.687   9.486   6.919
64774SOL     OW96160  10.863  14.291   8.600
64774SOL    HW196161  10.804  14.242   8.657
64774SOL    HW296162  10.898  14.360   8.657
64775SOL     OW96163   9.921  10.775   3.009
64775SOL    HW196164   9.872  10.692   3.008
64775SOL    HW296165   9.866  10.836   2.961
64776SOL     OW96166   8.860  11.376  13.983
64776SOL    HW196167   8.802  11.400  13.911
64776SOL    HW296168   8.802  11.339  14.050
64777SOL     OW96169   0.573   7.890   6.931
64777SOL    HW196170   0.631   7.958   6.898
64777SOL    HW296171   0.537   7.926   7.012
64778SOL     OW96172   9.319  13.568  11.950
64778SOL    HW196173   9.317  13.664  11.955
64778SOL    HW296174   9.374  13.541  12.023
64779SOL     OW96175  10.796  10.698  13.293
64779SOL    HW196176  10.818  10.788  13.266
64779SOL    HW296177  10.708  10.684  13.258
64780SOL     OW96178  14.729   8.151   5.180
64780SOL    HW196179  14.790   8.129   5.250
64780SOL    HW296180  14.672   8.074   5.172
64781SOL     OW96181   3.582  13.402  14.776
64781SOL    HW196182   3.675  13.423  14.789
64781SOL    HW296183   3.536  13.454  14.841
64782SOL     OW96184  11.294   7.038   4.761
64782SOL    HW196185  11.236   7.049   4.686
64782SOL    HW296186  11.238   7.002   4.830
64783SOL     OW96187   4.808   1.959   8.311
64783SOL    HW196188   4.833   1.923   8.396
64783SOL    HW296189   4.749   2.032   8.332
64784SOL     OW96190   4.542   2.299   0.212
64784SOL    HW196191   4.620   2.293   0.157
64784SOL    HW296192   4.576   2.325   0.298
64785SOL     OW96193   7.538   7.797  10.406
64785SOL    HW196194   7.465   7.823  10.350
64785SOL    HW296195   7.607   7.772  10.345
64786SOL     OW96196  11.651  13.778   9.072
64786SOL    HW196197  11.599  13.858   9.068
64786SOL    HW296198  11.591  13.709   9.044
64787SOL     OW96199   3.656  12.374  14.287
64787SOL    HW196200   3.670  12.412  14.374
64787SOL    HW296201   3.566  12.340  14.291
64788SOL     OW96202  13.625   9.061   6.538
64788SOL    HW196203  13.549   9.118   6.530
64788SOL    HW296204  13.652   9.068   6.630
64789SOL     OW96205  13.168   3.298   8.423
64789SOL    HW196206  13.179   3.251   8.340
64789SOL    HW296207  13.094   3.255   8.465
64790SOL     OW96208   8.281   7.362  14.217
64790SOL    HW196209   8.202   7.317  14.246
64790SOL    HW296210   8.293   7.432  14.281
64791SOL     OW96211   2.635   7.051  13.094
64791SOL    HW196212   2.621   6.969  13.048
64791SOL    HW296213   2.692   7.102  13.035
64792SOL     OW96214  14.186   4.845  13.243
64792SOL    HW196215  14.263   4.900  13.259
64792SOL    HW296216  14.210   4.760  13.280
64793SOL     OW96217   9.550   3.378   2.765
64793SOL    HW196218   9.586   3.301   2.720
64793SOL    HW296219   9.554   3.355   2.858
64794SOL     OW96220   5.440   8.576  14.693
64794SOL    HW196221   5.533   8.586  14.673
64794SOL    HW296222   5.423   8.482  14.687
64795SOL     OW96223  11.707   4.285   1.461
64795SOL    HW196224  11.797   4.271   1.432
64795SOL    HW296225  11.715   4.308   1.553
64796SOL     OW96226   1.427   6.391   8.357
64796SOL    HW196227   1.494   6.360   8.296
64796SOL    HW296228   1.370   6.447   8.304
64797SOL     OW96229  11.778  10.475  12.633
64797SOL    HW196230  11.825  10.464  12.550
64797SOL    HW296231  11.846  10.484  12.698
64798SOL     OW96232  13.185   1.795   2.051
64798SOL    HW196233  13.151   1.738   1.982
64798SOL    HW296234  13.145   1.763   2.131
64799SOL     OW96235   7.803   9.357   6.785
64799SOL    HW196236   7.851   9.366   6.867
64799SOL    HW296237   7.803   9.446   6.749
64800SOL     OW96238   2.614   3.130   9.038
64800SOL    HW196239   2.578   3.215   9.012
64800SOL    HW296240   2.594   3.072   8.964
64801SOL     OW96241   5.165   9.222  11.847
64801SOL    HW196242   5.144   9.173  11.926
64801SOL    HW296243   5.179   9.155  11.780
64802SOL     OW96244   1.584  10.182   5.047
64802SOL    HW196245   1.612  10.183   4.955
64802SOL    HW296246   1.663  10.204   5.096
64803SOL     OW96247  14.292  10.737  12.354
64803SOL    HW196248  14.258  10.652  12.382
64803SOL    HW296249  14.265  10.798  12.422
64804SOL     OW96250  12.275  13.391   1.844
64804SOL    HW196251  12.327  13.471   1.841
64804SOL    HW296252  12.189  13.417   1.811
64805SOL     OW96253  13.719  12.150  12.731
64805SOL    HW196254  13.628  12.177  12.720
64805SOL    HW296255  13.715  12.064  12.771
64806SOL     OW96256   8.143   3.089   8.508
64806SOL    HW196257   8.164   3.157   8.443
64806SOL    HW296258   8.226   3.073   8.553
64807SOL     OW96259  11.430  13.550  11.094
64807SOL    HW196260  11.361  13.540  11.029
64807SOL    HW296261  11.393  13.610  11.159
64808SOL     OW96262   7.305   9.173   4.807
64808SOL    HW196263   7.296   9.083   4.775
64808SOL    HW296264   7.276   9.169   4.898
64809SOL     OW96265  13.111   1.374   2.917
64809SOL    HW196266  13.190   1.348   2.964
64809SOL    HW296267  13.136   1.372   2.825
64810SOL     OW96268  11.496   0.828   8.613
64810SOL    HW196269  11.567   0.815   8.676
64810SOL    HW296270  11.476   0.922   8.620
64811SOL     OW96271   8.404  13.799  12.505
64811SOL    HW196272   8.466  13.788  12.434
64811SOL    HW296273   8.385  13.893  12.506
64812SOL     OW96274  11.027  12.193   1.502
64812SOL    HW196275  10.986  12.116   1.541
64812SOL    HW296276  10.971  12.266   1.527
64813SOL     OW96277   0.028   1.855   3.875
64813SOL    HW196278  14.879   1.766   3.890
64813SOL    HW296279  14.830   1.907   3.866
64814SOL     OW96280  10.582   9.467   8.926
64814SOL    HW196281  10.646   9.455   8.996
64814SOL    HW296282  10.515   9.400   8.945
64815SOL     OW96283  12.891   7.731  11.416
64815SOL    HW196284  12.953   7.793  11.454
64815SOL    HW296285  12.945   7.664  11.375
64816SOL     OW96286   9.133   7.814   1.852
64816SOL    HW196287   9.156   7.734   1.805
64816SOL    HW296288   9.218   7.856   1.870
64817SOL     OW96289   3.961  12.778   8.124
64817SOL    HW196290   4.029  12.735   8.175
64817SOL    HW296291   3.883  12.775   8.181
64818SOL     OW96292   9.431   9.541   6.317
64818SOL    HW196293   9.515   9.553   6.273
64818SOL    HW296294   9.426   9.447   6.334
64819SOL     OW96295  14.792  10.707   8.767
64819SOL    HW196296  14.753  10.790   8.740
64819SOL    HW296297  14.723  10.642   8.751
64820SOL     OW96298   3.898  12.987  12.005
64820SOL    HW196299   3.918  12.910  12.058
64820SOL    HW296300   3.835  13.037  12.057
64821SOL     OW96301   9.706   1.269  12.032
64821SOL    HW196302   9.694   1.176  12.014
64821SOL    HW296303   9.686   1.312  11.949
64822SOL     OW96304   9.849  11.995  10.018
64822SOL    HW196305   9.932  11.964   9.983
64822SOL    HW296306   9.873  12.063  10.081
64823SOL     OW96307  10.225  13.637   2.209
64823SOL    HW196308  10.240  13.644   2.114
64823SOL    HW296309  10.218  13.728   2.238
64824SOL     OW96310  10.073   6.720  13.425
64824SOL    HW196311  10.038   6.667  13.498
64824SOL    HW296312  10.047   6.672  13.346
64825SOL     OW96313   3.860   1.801   7.113
64825SOL    HW196314   3.836   1.709   7.105
64825SOL    HW296315   3.801   1.836   7.180
64826SOL     OW96316  10.697  14.813   8.084
64826SOL    HW196317  10.717  14.720   8.094
64826SOL    HW296318  10.773  14.848   8.037
64827SOL     OW96319   6.517  12.878   6.447
64827SOL    HW196320   6.453  12.890   6.376
64827SOL    HW296321   6.563  12.962   6.451
64828SOL     OW96322  11.627   3.962   1.130
64828SOL    HW196323  11.575   3.936   1.055
64828SOL    HW296324  11.712   3.985   1.094
64829SOL     OW96325  11.316   2.984   5.944
64829SOL    HW196326  11.284   3.074   5.931
64829SOL    HW296327  11.401   2.983   5.899
64830SOL     OW96328  11.609  10.781   1.609
64830SOL    HW196329  11.686  10.746   1.564
64830SOL    HW296330  11.628  10.874   1.621
64831SOL     OW96331  12.894  12.760  10.780
64831SOL    HW196332  12.965  12.809  10.737
64831SOL    HW296333  12.846  12.719  10.708
64832SOL     OW96334   7.969  14.337   3.638
64832SOL    HW196335   8.026  14.361   3.565
64832SOL    HW296336   8.008  14.256   3.673
64833SOL     OW96337   9.764   3.072   5.922
64833SOL    HW196338   9.796   3.070   6.012
64833SOL    HW296339   9.782   3.162   5.893
64834SOL     OW96340   2.062   6.492   5.707
64834SOL    HW196341   2.028   6.531   5.787
64834SOL    HW296342   2.157   6.494   5.717
64835SOL     OW96343  10.319   5.317   0.141
64835SOL    HW196344  10.284   5.340   0.227
64835SOL    HW296345  10.248   5.337   0.080
64836SOL     OW96346  12.791   4.023  11.716
64836SOL    HW196347  12.785   3.969  11.637
64836SOL    HW296348  12.841   4.100  11.689
64837SOL     OW96349   7.123   8.329   7.337
64837SOL    HW196350   7.138   8.289   7.252
64837SOL    HW296351   7.156   8.264   7.400
64838SOL     OW96352   1.496   0.467   1.130
64838SOL    HW196353   1.463   0.378   1.128
64838SOL    HW296354   1.590   0.457   1.144
64839SOL     OW96355   1.311   4.759   0.950
64839SOL    HW196356   1.360   4.823   0.898
64839SOL    HW296357   1.371   4.686   0.962
64840SOL     OW96358   0.787  11.056  13.134
64840SOL    HW196359   0.749  10.973  13.164
64840SOL    HW296360   0.849  11.031  13.066
64841SOL     OW96361   0.479   9.564   1.909
64841SOL    HW196362   0.512   9.613   1.834
64841SOL    HW296363   0.528   9.482   1.908
64842SOL     OW96364   3.702  13.514  10.524
64842SOL    HW196365   3.750  13.433  10.543
64842SOL    HW296366   3.652  13.495  10.445
64843SOL     OW96367  12.283  14.578   9.386
64843SOL    HW196368  12.238  14.644   9.335
64843SOL    HW296369  12.314  14.514   9.321
64844SOL     OW96370  13.377   9.431  13.360
64844SOL    HW196371  13.309   9.498  13.350
64844SOL    HW296372  13.451   9.464  13.310
64845SOL     OW96373   4.560  11.922   3.229
64845SOL    HW196374   4.640  11.971   3.247
64845SOL    HW296375   4.527  11.898   3.316
64846SOL     OW96376   5.840   2.777   7.864
64846SOL    HW196377   5.911   2.713   7.860
64846SOL    HW296378   5.884   2.862   7.863
64847SOL     OW96379   8.916  12.188   0.157
64847SOL    HW196380   8.929  12.184   0.063
64847SOL    HW296381   8.830  12.227   0.168
64848SOL     OW96382   3.550   6.851   2.244
64848SOL    HW196383   3.455   6.840   2.243
64848SOL    HW296384   3.564   6.940   2.275
64849SOL     OW96385   5.025   7.416  13.782
64849SOL    HW196386   4.977   7.333  13.791
64849SOL    HW296387   5.018   7.458  13.867
64850SOL     OW96388   2.858   8.172   8.953
64850SOL    HW196389   2.933   8.220   8.989
64850SOL    HW296390   2.877   8.166   8.859
64851SOL     OW96391   4.740   2.058  14.228
64851SOL    HW196392   4.713   2.099  14.310
64851SOL    HW296393   4.809   2.115  14.194
64852SOL     OW96394  12.043  11.012   1.812
64852SOL    HW196395  12.120  10.974   1.770
64852SOL    HW296396  11.970  10.957   1.783
64853SOL     OW96397   1.630   8.141   0.097
64853SOL    HW196398   1.653   8.233   0.084
64853SOL    HW296399   1.699   8.106   0.154
64854SOL     OW96400   8.557   6.860   3.601
64854SOL    HW196401   8.504   6.859   3.522
64854SOL    HW296402   8.494   6.849   3.672
64855SOL     OW96403   5.250  10.240   4.474
64855SOL    HW196404   5.326  10.190   4.445
64855SOL    HW296405   5.268  10.330   4.446
64856SOL     OW96406   8.500   7.885   3.578
64856SOL    HW196407   8.452   7.961   3.547
64856SOL    HW296408   8.575   7.878   3.518
64857SOL     OW96409   9.011  14.290   1.974
64857SOL    HW196410   9.070  14.282   1.899
64857SOL    HW296411   9.069  14.294   2.050
64858SOL     OW96412   5.670   3.808  13.860
64858SOL    HW196413   5.728   3.744  13.818
64858SOL    HW296414   5.718   3.890  13.858
64859SOL     OW96415  13.772   8.064   7.295
64859SOL    HW196416  13.778   8.072   7.390
64859SOL    HW296417  13.691   8.110   7.272
64860SOL     OW96418   9.005   2.899   1.682
64860SOL    HW196419   9.072   2.855   1.735
64860SOL    HW296420   8.953   2.828   1.644
64861SOL     OW96421  12.032   1.975   4.507
64861SOL    HW196422  12.023   2.068   4.528
64861SOL    HW296423  12.126   1.963   4.490
64862SOL     OW96424   8.685   2.478  11.896
64862SOL    HW196425   8.711   2.553  11.842
64862SOL    HW296426   8.590   2.473  11.886
64863SOL     OW96427  10.202  10.638   3.966
64863SOL    HW196428  10.183  10.614   4.057
64863SOL    HW296429  10.203  10.554   3.920
64864SOL     OW96430   9.546  14.709   7.130
64864SOL    HW196431   9.591  14.725   7.213
64864SOL    HW296432   9.519  14.617   7.136
64865SOL     OW96433   2.076  11.842   9.846
64865SOL    HW196434   1.997  11.834   9.791
64865SOL    HW296435   2.074  11.932   9.877
64866SOL     OW96436  14.592   0.108   9.982
64866SOL    HW196437  14.619   0.018   9.999
64866SOL    HW296438  14.535   0.130  10.056
64867SOL     OW96439   9.686   3.399  14.786
64867SOL    HW196440   9.605   3.411  14.836
64867SOL    HW296441   9.729   3.484  14.791
64868SOL     OW96442  13.632  11.934  13.471
64868SOL    HW196443  13.715  11.901  13.436
64868SOL    HW296444  13.658  11.993  13.541
64869SOL     OW96445   7.377  14.403   6.436
64869SOL    HW196446   7.293  14.373   6.402
64869SOL    HW296447   7.362  14.414   6.530
64870SOL     OW96448   0.065   8.059   4.567
64870SOL    HW196449   0.084   8.010   4.648
64870SOL    HW296450   0.105   8.006   4.498
64871SOL     OW96451   2.719   9.378   1.748
64871SOL    HW196452   2.652   9.425   1.697
64871SOL    HW296453   2.699   9.286   1.734
64872SOL     OW96454   4.962   7.809   3.966
64872SOL    HW196455   5.011   7.732   3.994
64872SOL    HW296456   5.029   7.873   3.942
64873SOL     OW96457   9.707  14.832   6.555
64873SOL    HW196458   9.767  14.844   6.481
64873SOL    HW296459   9.680  14.741   6.550
64874SOL     OW96460   5.380   9.164   1.983
64874SOL    HW196461   5.319   9.101   2.023
64874SOL    HW296462   5.370   9.150   1.889
64875SOL     OW96463  14.878   8.847  10.659
64875SOL    HW196464   0.026   8.937  10.665
64875SOL    HW296465   0.037   8.813  10.579
64876SOL     OW96466  11.301   6.766   4.101
64876SOL    HW196467  11.237   6.819   4.054
64876SOL    HW296468  11.384   6.814   4.090
64877SOL     OW96469  11.130  13.026   9.759
64877SOL    HW196470  11.173  12.963   9.818
64877SOL    HW296471  11.203  13.076   9.722
64878SOL     OW96472  10.538  14.251   7.864
64878SOL    HW196473  10.524  14.157   7.875
64878SOL    HW296474  10.613  14.256   7.805
64879SOL     OW96475   9.303   5.020   4.756
64879SOL    HW196476   9.298   4.983   4.844
64879SOL    HW296477   9.218   5.001   4.717
64880SOL     OW96478  12.964  12.690  11.716
64880SOL    HW196479  12.991  12.684  11.808
64880SOL    HW296480  12.934  12.780  11.706
64881SOL     OW96481  11.732   5.065  12.027
64881SOL    HW196482  11.655   5.096  11.980
64881SOL    HW296483  11.715   4.972  12.043
64882SOL     OW96484   0.397   9.494   9.568
64882SOL    HW196485   0.324   9.481   9.628
64882SOL    HW296486   0.473   9.457   9.614
64883SOL     OW96487   0.364   2.824   8.819
64883SOL    HW196488   0.423   2.751   8.839
64883SOL    HW296489   0.324   2.846   8.903
64884SOL     OW96490  14.832  13.647   9.259
64884SOL    HW196491  14.782  13.570   9.234
64884SOL    HW296492  14.876  13.675   9.179
64885SOL     OW96493  10.418   3.630   1.575
64885SOL    HW196494  10.419   3.633   1.671
64885SOL    HW296495  10.352   3.564   1.554
64886SOL     OW96496   9.681   5.766   2.528
64886SOL    HW196497   9.698   5.797   2.439
64886SOL    HW296498   9.604   5.814   2.556
64887SOL     OW96499   6.112  10.178   6.980
64887SOL    HW196500   6.081  10.145   7.064
64887SOL    HW296501   6.177  10.244   7.003
64888SOL     OW96502   8.314   5.141   6.408
64888SOL    HW196503   8.407   5.162   6.412
64888SOL    HW296504   8.281   5.159   6.496
64889SOL     OW96505   9.191   3.829   8.576
64889SOL    HW196506   9.125   3.809   8.510
64889SOL    HW296507   9.271   3.846   8.525
64890SOL     OW96508   9.579   6.192   7.726
64890SOL    HW196509   9.498   6.203   7.775
64890SOL    HW296510   9.571   6.251   7.651
64891SOL     OW96511  11.280   4.213   1.302
64891SOL    HW196512  11.235   4.295   1.284
64891SOL    HW296513  11.367   4.224   1.264
64892SOL     OW96514  13.988   8.748   1.391
64892SOL    HW196515  14.000   8.843   1.391
64892SOL    HW296516  13.935   8.730   1.468
64893SOL     OW96517  11.863   8.115   7.972
64893SOL    HW196518  11.847   8.208   7.985
64893SOL    HW296519  11.792   8.072   8.020
64894SOL     OW96520   8.257  12.802   6.482
64894SOL    HW196521   8.193  12.733   6.462
64894SOL    HW296522   8.306  12.813   6.401
64895SOL     OW96523  12.036   5.766  13.690
64895SOL    HW196524  11.979   5.690  13.703
64895SOL    HW296525  11.976   5.840  13.685
64896SOL     OW96526   7.334  11.021  11.417
64896SOL    HW196527   7.356  10.973  11.337
64896SOL    HW296528   7.243  11.047  11.405
64897SOL     OW96529   1.500   5.632   5.420
64897SOL    HW196530   1.546   5.651   5.338
64897SOL    HW296531   1.495   5.537   5.423
64898SOL     OW96532   0.234   6.605   6.367
64898SOL    HW196533   0.140   6.620   6.358
64898SOL    HW296534   0.259   6.561   6.286
64899SOL     OW96535   9.140   4.450  10.686
64899SOL    HW196536   9.197   4.399  10.629
64899SOL    HW296537   9.114   4.388  10.755
64900SOL     OW96538   4.427   2.258  10.125
64900SOL    HW196539   4.430   2.322  10.196
64900SOL    HW296540   4.477   2.183  10.158
64901SOL     OW96541   8.569   2.394   9.195
64901SOL    HW196542   8.613   2.345   9.264
64901SOL    HW296543   8.532   2.327   9.137
64902SOL     OW96544  14.041   9.118   5.025
64902SOL    HW196545  14.083   9.170   5.093
64902SOL    HW296546  14.029   9.032   5.064
64903SOL     OW96547   7.401  14.840   4.591
64903SOL    HW196548   7.389  14.755   4.633
64903SOL    HW296549   7.458   0.006   4.651
64904SOL     OW96550   7.344   6.832   9.115
64904SOL    HW196551   7.290   6.818   9.193
64904SOL    HW296552   7.296   6.898   9.065
64905SOL     OW96553   5.611   6.379   6.847
64905SOL    HW196554   5.678   6.442   6.823
64905SOL    HW296555   5.618   6.310   6.780
64906SOL     OW96556   3.051   6.193   2.683
64906SOL    HW196557   2.967   6.150   2.667
64906SOL    HW296558   3.033   6.252   2.756
64907SOL     OW96559   2.193   4.852   9.311
64907SOL    HW196560   2.146   4.874   9.391
64907SOL    HW296561   2.231   4.935   9.282
64908SOL     OW96562   8.025  10.897   9.694
64908SOL    HW196563   8.070  10.903   9.778
64908SOL    HW296564   8.010  10.988   9.669
64909SOL     OW96565   4.517   2.198  12.168
64909SOL    HW196566   4.497   2.291  12.152
64909SOL    HW296567   4.612   2.195  12.173
64910SOL     OW96568  13.347  11.019  10.644
64910SOL    HW196569  13.416  11.010  10.578
64910SOL    HW296570  13.383  11.079  10.709
64911SOL     OW96571   2.189   2.154   3.979
64911SOL    HW196572   2.125   2.095   4.019
64911SOL    HW296573   2.219   2.107   3.900
64912SOL     OW96574   0.274  11.512   5.554
64912SOL    HW196575   0.314  11.474   5.632
64912SOL    HW296576   0.338  11.496   5.485
64913SOL     OW96577   5.907   1.800  14.593
64913SOL    HW196578   5.877   1.891  14.584
64913SOL    HW296579   5.851   1.750  14.533
64914SOL     OW96580   6.478   9.474  10.566
64914SOL    HW196581   6.536   9.403  10.541
64914SOL    HW296582   6.497   9.490  10.658
64915SOL     OW96583  10.575   6.267   0.277
64915SOL    HW196584  10.664   6.291   0.250
64915SOL    HW296585  10.534   6.350   0.302
64916SOL     OW96586   8.174   4.283   7.094
64916SOL    HW196587   8.239   4.241   7.151
64916SOL    HW296588   8.091   4.244   7.122
64917SOL     OW96589  12.924   5.573  10.281
64917SOL    HW196590  12.986   5.641  10.254
64917SOL    HW296591  12.845   5.620  10.306
64918SOL     OW96592  14.876   9.722  11.448
64918SOL    HW196593   0.045   9.643  11.465
64918SOL    HW296594  14.848   9.713  11.356
64919SOL     OW96595  12.079   9.297   6.335
64919SOL    HW196596  11.991   9.265   6.358
64919SOL    HW296597  12.121   9.312   6.419
64920SOL     OW96598   7.579   0.997   7.034
64920SOL    HW196599   7.631   1.053   6.976
64920SOL    HW296600   7.599   1.029   7.122
64921SOL     OW96601   5.236   1.958   1.718
64921SOL    HW196602   5.141   1.949   1.714
64921SOL    HW296603   5.260   1.996   1.634
64922SOL     OW96604   9.871   3.290   8.164
64922SOL    HW196605   9.896   3.238   8.087
64922SOL    HW296606   9.783   3.323   8.143
64923SOL     OW96607  12.647   1.597  10.944
64923SOL    HW196608  12.651   1.663  11.012
64923SOL    HW296609  12.640   1.647  10.862
64924SOL     OW96610   9.856   4.754   3.726
64924SOL    HW196611   9.773   4.711   3.749
64924SOL    HW296612   9.900   4.692   3.668
64925SOL     OW96613  12.136   8.724  10.221
64925SOL    HW196614  12.063   8.693  10.169
64925SOL    HW296615  12.212   8.717  10.163
64926SOL     OW96616   6.327   7.911  10.981
64926SOL    HW196617   6.367   7.995  11.003
64926SOL    HW296618   6.235   7.920  11.007
64927SOL     OW96619   3.507  10.506   0.077
64927SOL    HW196620   3.589  10.516   0.125
64927SOL    HW296621   3.515  10.565   0.002
64928SOL     OW96622   4.506   4.751   4.916
64928SOL    HW196623   4.498   4.661   4.945
64928SOL    HW296624   4.445   4.800   4.971
64929SOL     OW96625   1.754   9.020   3.267
64929SOL    HW196626   1.817   8.998   3.335
64929SOL    HW296627   1.669   8.993   3.303
64930SOL     OW96628   8.867  14.076  13.124
64930SOL    HW196629   8.870  14.160  13.169
64930SOL    HW296630   8.860  14.011  13.195
64931SOL     OW96631   2.394  14.845   7.365
64931SOL    HW196632   2.350  14.881   7.442
64931SOL    HW296633   2.466  14.794   7.401
64932SOL     OW96634  12.403   1.505   5.692
64932SOL    HW196635  12.313   1.530   5.716
64932SOL    HW296636  12.432   1.449   5.763
64933SOL     OW96637   6.325   1.076  14.872
64933SOL    HW196638   6.279   1.160  14.866
64933SOL    HW296639   6.256   1.010  14.864
64934SOL     OW96640   6.570  12.006   1.353
64934SOL    HW196641   6.510  11.981   1.423
64934SOL    HW296642   6.654  12.018   1.398
64935SOL     OW96643   8.288  12.638  13.022
64935SOL    HW196644   8.230  12.687  12.964
64935SOL    HW296645   8.305  12.698  13.094
64936SOL     OW96646   1.236   2.523   1.116
64936SOL    HW196647   1.208   2.544   1.027
64936SOL    HW296648   1.159   2.484   1.157
64937SOL     OW96649  13.201   6.762  10.339
64937SOL    HW196650  13.199   6.754  10.434
64937SOL    HW296651  13.294   6.769  10.317
64938SOL     OW96652  14.373  14.063   1.476
64938SOL    HW196653  14.405  14.000   1.540
64938SOL    HW296654  14.288  14.091   1.510
64939SOL     OW96655   1.507   5.782   9.833
64939SOL    HW196656   1.487   5.716   9.899
64939SOL    HW296657   1.463   5.751   9.754
64940SOL     OW96658   6.269   6.972  13.393
64940SOL    HW196659   6.217   6.905  13.437
64940SOL    HW296660   6.358   6.936  13.392
64941SOL     OW96661  13.442   1.174  14.122
64941SOL    HW196662  13.485   1.153  14.205
64941SOL    HW296663  13.505   1.148  14.055
64942SOL     OW96664  11.306   6.967   1.653
64942SOL    HW196665  11.251   6.948   1.728
64942SOL    HW296666  11.351   6.885   1.634
64943SOL     OW96667   1.912  12.689   5.414
64943SOL    HW196668   1.870  12.604   5.406
64943SOL    HW296669   1.981  12.687   5.348
64944SOL     OW96670  11.461   7.114   0.967
64944SOL    HW196671  11.388   7.169   0.938
64944SOL    HW296672  11.494   7.158   1.046
64945SOL     OW96673  14.658  10.402   3.464
64945SOL    HW196674  14.733  10.379   3.408
64945SOL    HW296675  14.646  10.326   3.520
64946SOL     OW96676   1.346   4.003  11.092
64946SOL    HW196677   1.373   4.026  11.181
64946SOL    HW296678   1.388   4.068  11.036
64947SOL     OW96679   5.367   9.631   3.909
64947SOL    HW196680   5.336   9.620   3.820
64947SOL    HW296681   5.289   9.621   3.964
64948SOL     OW96682   5.552   2.417   0.346
64948SOL    HW196683   5.600   2.334   0.353
64948SOL    HW296684   5.537   2.444   0.436
64949SOL     OW96685   7.783  12.634  11.666
64949SOL    HW196686   7.840  12.692  11.715
64949SOL    HW296687   7.824  12.547  11.673
64950SOL     OW96688   6.078   0.467   3.624
64950SOL    HW196689   6.074   0.371   3.627
64950SOL    HW296690   6.097   0.493   3.714
64951SOL     OW96691  10.716   1.122   7.667
64951SOL    HW196692  10.725   1.121   7.572
64951SOL    HW296693  10.794   1.076   7.699
64952SOL     OW96694  10.554   2.032   6.432
64952SOL    HW196695  10.614   2.077   6.491
64952SOL    HW296696  10.522   1.957   6.482
64953SOL     OW96697  10.351   0.900  11.142
64953SOL    HW196698  10.264   0.940  11.141
64953SOL    HW296699  10.407   0.965  11.184
64954SOL     OW96700   7.113  13.354   3.325
64954SOL    HW196701   7.164  13.278   3.298
64954SOL    HW296702   7.121  13.416   3.252
64955SOL     OW96703  11.971   4.496  11.450
64955SOL    HW196704  11.938   4.430  11.511
64955SOL    HW296705  12.013   4.561  11.506
64956SOL     OW96706  12.019   2.378  11.080
64956SOL    HW196707  12.104   2.377  11.037
64956SOL    HW296708  11.970   2.308  11.037
64957SOL     OW96709   1.467   3.027   5.783
64957SOL    HW196710   1.401   2.970   5.743
64957SOL    HW296711   1.523   3.054   5.710
64958SOL     OW96712  12.904  11.176   1.210
64958SOL    HW196713  12.820  11.136   1.234
64958SOL    HW296714  12.925  11.139   1.124
64959SOL     OW96715   9.314   1.066   3.342
64959SOL    HW196716   9.245   1.120   3.303
64959SOL    HW296717   9.341   1.007   3.272
64960SOL     OW96718   2.959  12.740   5.879
64960SOL    HW196719   3.022  12.696   5.821
64960SOL    HW296720   2.882  12.682   5.877
64961SOL     OW96721   8.109   8.799  10.698
64961SOL    HW196722   8.098   8.712  10.737
64961SOL    HW296723   8.082   8.789  10.607
64962SOL     OW96724   2.521   1.979  13.499
64962SOL    HW196725   2.456   2.032  13.545
64962SOL    HW296726   2.495   1.889  13.517
64963SOL     OW96727   5.707   6.571  10.450
64963SOL    HW196728   5.711   6.509  10.524
64963SOL    HW296729   5.614   6.590  10.440
64964SOL     OW96730   3.156   6.729  11.052
64964SOL    HW196731   3.249   6.722  11.073
64964SOL    HW296732   3.153   6.796  10.983
64965SOL     OW96733   7.318   0.547  12.548
64965SOL    HW196734   7.289   0.462  12.516
64965SOL    HW296735   7.388   0.573  12.489
64966SOL     OW96736   5.432   2.295   7.997
64966SOL    HW196737   5.355   2.328   7.950
64966SOL    HW296738   5.398   2.222   8.049
64967SOL     OW96739   9.665   0.604  13.840
64967SOL    HW196740   9.715   0.672  13.885
64967SOL    HW296741   9.689   0.613  13.748
64968SOL     OW96742  14.451   1.156   1.517
64968SOL    HW196743  14.391   1.229   1.534
64968SOL    HW296744  14.504   1.186   1.444
64969SOL     OW96745   1.216  11.006   4.572
64969SOL    HW196746   1.174  10.966   4.496
64969SOL    HW296747   1.279  11.067   4.534
64970SOL     OW96748   5.066   3.913   8.119
64970SOL    HW196749   5.030   3.870   8.041
64970SOL    HW296750   4.997   3.972   8.148
64971SOL     OW96751  14.101   7.666   6.083
64971SOL    HW196752  14.102   7.633   5.993
64971SOL    HW296753  14.122   7.590   6.137
64972SOL     OW96754   4.290  13.213  11.812
64972SOL    HW196755   4.375  13.209  11.856
64972SOL    HW296756   4.243  13.136  11.843
64973SOL     OW96757   0.140   2.173   6.289
64973SOL    HW196758   0.111   2.090   6.327
64973SOL    HW296759   0.206   2.149   6.225
64974SOL     OW96760  12.103   3.458   2.621
64974SOL    HW196761  12.189   3.423   2.646
64974SOL    HW296762  12.095   3.435   2.528
64975SOL     OW96763   5.698   1.064  12.380
64975SOL    HW196764   5.775   1.031  12.333
64975SOL    HW296765   5.734   1.123  12.446
64976SOL     OW96766   3.563   5.937  14.812
64976SOL    HW196767   3.502   5.915  14.741
64976SOL    HW296768   3.537   5.879   0.002
64977SOL     OW96769  12.124   8.024  13.290
64977SOL    HW196770  12.079   7.942  13.307
64977SOL    HW296771  12.128   8.067  13.376
64978SOL     OW96772   7.147  13.904   9.666
64978SOL    HW196773   7.054  13.881   9.660
64978SOL    HW296774   7.193  13.835   9.619
64979SOL     OW96775   6.630   9.745  13.003
64979SOL    HW196776   6.717   9.706  12.995
64979SOL    HW296777   6.583   9.690  13.065
64980SOL     OW96778  13.747  13.976   6.943
64980SOL    HW196779  13.811  13.914   6.908
64980SOL    HW296780  13.792  14.017   7.017
64981SOL     OW96781  13.355   9.876   4.696
64981SOL    HW196782  13.418   9.806   4.714
64981SOL    HW296783  13.366   9.937   4.769
64982SOL     OW96784   5.541   8.482  10.685
64982SOL    HW196785   5.595   8.414  10.725
64982SOL    HW296786   5.453   8.444  10.681
64983SOL     OW96787   4.389   7.699  11.736
64983SOL    HW196788   4.378   7.669  11.646
64983SOL    HW296789   4.421   7.789  11.728
64984SOL     OW96790   0.830   7.544   1.633
64984SOL    HW196791   0.794   7.569   1.548
64984SOL    HW296792   0.911   7.594   1.640
64985SOL     OW96793   0.826   7.698   9.088
64985SOL    HW196794   0.809   7.624   9.029
64985SOL    HW296795   0.845   7.771   9.030
64986SOL     OW96796   4.617  11.386   8.388
64986SOL    HW196797   4.614  11.436   8.306
64986SOL    HW296798   4.708  11.360   8.397
64987SOL     OW96799  13.549   3.172   9.648
64987SOL    HW196800  13.497   3.092   9.658
64987SOL    HW296801  13.498   3.227   9.589
64988SOL     OW96802   9.060   7.891   0.102
64988SOL    HW196803   9.130   7.864   0.043
64988SOL    HW296804   8.994   7.930   0.046
64989SOL     OW96805  14.871  14.496   1.970
64989SOL    HW196806  14.853  14.584   1.938
64989SOL    HW296807  14.877  14.505   2.065
64990SOL     OW96808  14.313  11.230  10.192
64990SOL    HW196809  14.323  11.189  10.106
64990SOL    HW296810  14.388  11.198  10.242
64991SOL     OW96811   4.106   9.839   0.110
64991SOL    HW196812   4.139   9.775   0.046
64991SOL    HW296813   4.178   9.852   0.171
64992SOL     OW96814   8.152   9.789   7.538
64992SOL    HW196815   8.174   9.872   7.495
64992SOL    HW296816   8.110   9.737   7.470
64993SOL     OW96817   3.536  13.410  13.549
64993SOL    HW196818   3.600  13.362  13.496
64993SOL    HW296819   3.512  13.485  13.494
64994SOL     OW96820   1.347   1.629   8.261
64994SOL    HW196821   1.286   1.610   8.189
64994SOL    HW296822   1.418   1.566   8.250
64995SOL     OW96823   9.418   5.972  14.144
64995SOL    HW196824   9.366   5.894  14.161
64995SOL    HW296825   9.508   5.939  14.134
64996SOL     OW96826   0.428   0.093   9.553
64996SOL    HW196827   0.413   0.176   9.507
64996SOL    HW296828   0.478   0.118   9.631
64997SOL     OW96829   0.673   7.462   5.540
64997SOL    HW196830   0.600   7.426   5.489
64997SOL    HW296831   0.700   7.391   5.597
64998SOL     OW96832   2.958   6.102   4.615
64998SOL    HW196833   2.884   6.051   4.647
64998SOL    HW296834   3.008   6.041   4.561
64999SOL     OW96835  14.604   5.856  13.207
64999SOL    HW196836  14.545   5.865  13.281
64999SOL    HW296837  14.614   5.945  13.173
65000SOL     OW96838   3.286   6.228  14.557
65000SOL    HW196839   3.293   6.306  14.503
65000SOL    HW296840   3.330   6.159  14.507
65001SOL     OW96841   0.955   9.464  12.570
65001SOL    HW196842   0.920   9.540  12.617
65001SOL    HW296843   1.024   9.430  12.627
65002SOL     OW96844   2.725  13.633   8.102
65002SOL    HW196845   2.800  13.573   8.096
65002SOL    HW296846   2.662  13.587   8.157
65003SOL     OW96847  14.522   7.946   1.274
65003SOL    HW196848  14.616   7.956   1.290
65003SOL    HW296849  14.514   7.951   1.179
65004SOL     OW96850   2.546  13.992   2.918
65004SOL    HW196851   2.490  14.068   2.936
65004SOL    HW296852   2.539  13.978   2.824
65005SOL     OW96853  11.314   3.557   7.985
65005SOL    HW196854  11.337   3.523   8.072
65005SOL    HW296855  11.278   3.481   7.939
65006SOL     OW96856   5.683  10.711   0.021
65006SOL    HW196857   5.738  10.685   0.095
65006SOL    HW296858   5.740  10.767  14.849
65007SOL     OW96859   4.689   5.992   4.046
65007SOL    HW196860   4.659   6.075   4.083
65007SOL    HW296861   4.683   6.004   3.951
65008SOL     OW96862   1.452   6.632   8.165
65008SOL    HW196863   1.371   6.606   8.122
65008SOL    HW296864   1.450   6.728   8.164
65009SOL     OW96865   1.906   1.305   7.137
65009SOL    HW196866   1.968   1.261   7.079
65009SOL    HW296867   1.942   1.291   7.225
65010SOL     OW96868  12.842   7.606   5.187
65010SOL    HW196869  12.932   7.577   5.201
65010SOL    HW296870  12.833   7.685   5.241
65011SOL     OW96871  14.566  13.214   1.699
65011SOL    HW196872  14.523  13.137   1.663
65011SOL    HW296873  14.660  13.196   1.691
65012SOL     OW96874   3.334  14.498   4.648
65012SOL    HW196875   3.410  14.517   4.703
65012SOL    HW296876   3.325  14.403   4.652
65013SOL     OW96877   4.309   4.030  14.621
65013SOL    HW196878   4.327   4.051  14.530
65013SOL    HW296879   4.382   4.069  14.670
65014SOL     OW96880   3.854   4.654   5.125
65014SOL    HW196881   3.788   4.614   5.182
65014SOL    HW296882   3.888   4.728   5.177
65015SOL     OW96883  12.572   2.670  11.205
65015SOL    HW196884  12.603   2.612  11.276
65015SOL    HW296885  12.632   2.744  11.207
65016SOL     OW96886   9.365   8.784   5.471
65016SOL    HW196887   9.277   8.754   5.452
65016SOL    HW296888   9.367   8.874   5.438
65017SOL     OW96889   2.465   5.623   1.190
65017SOL    HW196890   2.513   5.697   1.228
65017SOL    HW296891   2.439   5.571   1.266
65018SOL     OW96892  13.915  12.882   8.548
65018SOL    HW196893  14.009  12.889   8.565
65018SOL    HW296894  13.883  12.825   8.618
65019SOL     OW96895  12.541   2.085   8.975
65019SOL    HW196896  12.582   2.031   9.042
65019SOL    HW296897  12.608   2.148   8.950
65020SOL     OW96898   2.157  11.313   2.167
65020SOL    HW196899   2.109  11.314   2.084
65020SOL    HW296900   2.192  11.401   2.175
65021SOL     OW96901   9.391   1.440   5.093
65021SOL    HW196902   9.469   1.404   5.051
65021SOL    HW296903   9.339   1.363   5.117
65022SOL     OW96904  10.705   4.947   8.660
65022SOL    HW196905  10.750   5.000   8.726
65022SOL    HW296906  10.717   4.995   8.578
65023SOL     OW96907   7.860   0.815  12.476
65023SOL    HW196908   7.828   0.852  12.558
65023SOL    HW296909   7.951   0.790  12.494
65024SOL     OW96910  11.186   1.982   2.993
65024SOL    HW196911  11.206   1.944   3.079
65024SOL    HW296912  11.090   1.981   2.989
65025SOL     OW96913   9.074   6.434   2.522
65025SOL    HW196914   9.060   6.509   2.580
65025SOL    HW296915   9.070   6.471   2.434
65026SOL     OW96916   2.358  13.230   0.217
65026SOL    HW196917   2.420  13.254   0.285
65026SOL    HW296918   2.403  13.249   0.135
65027SOL     OW96919   3.705   3.888   9.515
65027SOL    HW196920   3.696   3.932   9.431
65027SOL    HW296921   3.660   3.804   9.503
65028SOL     OW96922   4.989  11.084   1.653
65028SOL    HW196923   4.896  11.063   1.656
65028SOL    HW296924   5.011  11.109   1.743
65029SOL     OW96925  13.862   9.487   7.949
65029SOL    HW196926  13.896   9.417   7.894
65029SOL    HW296927  13.914   9.483   8.029
65030SOL     OW96928   6.670  12.316   9.713
65030SOL    HW196929   6.745  12.315   9.655
65030SOL    HW296930   6.703  12.355   9.794
65031SOL     OW96931   3.850   6.669  13.661
65031SOL    HW196932   3.924   6.674  13.722
65031SOL    HW296933   3.780   6.626  13.712
65032SOL     OW96934   0.124  13.453  14.696
65032SOL    HW196935   0.050  13.454  14.635
65032SOL    HW296936   0.086  13.477  14.781
65033SOL     OW96937  13.697  13.956   8.405
65033SOL    HW196938  13.670  14.028   8.349
65033SOL    HW296939  13.721  13.998   8.488
65034SOL     OW96940   8.017  13.300   6.905
65034SOL    HW196941   8.091  13.337   6.953
65034SOL    HW296942   8.001  13.362   6.834
65035SOL     OW96943   9.582   7.381   9.740
65035SOL    HW196944   9.575   7.344   9.652
65035SOL    HW296945   9.558   7.309   9.798
65036SOL     OW96946   3.740  12.573   5.478
65036SOL    HW196947   3.786  12.629   5.540
65036SOL    HW296948   3.650  12.604   5.479
65037SOL     OW96949   0.189   1.276  12.403
65037SOL    HW196950   0.227   1.257  12.489
65037SOL    HW296951   0.253   1.244  12.340
65038SOL     OW96952  10.302   9.431  14.517
65038SOL    HW196953  10.366   9.420  14.447
65038SOL    HW296954  10.258   9.346  14.523
65039SOL     OW96955   4.236   2.676  14.418
65039SOL    HW196956   4.315   2.623  14.428
65039SOL    HW296957   4.173   2.637  14.478
65040SOL     OW96958   9.978   9.132   9.507
65040SOL    HW196959  10.000   9.039   9.508
65040SOL    HW296960   9.976   9.156   9.415
65041SOL     OW96961  12.309   2.898   3.090
65041SOL    HW196962  12.379   2.901   3.155
65041SOL    HW296963  12.261   2.980   3.103
65042SOL     OW96964   3.322   8.314   4.548
65042SOL    HW196965   3.400   8.369   4.560
65042SOL    HW296966   3.283   8.309   4.635
65043SOL     OW96967  12.050   5.245  11.444
65043SOL    HW196968  12.109   5.305  11.489
65043SOL    HW296969  11.988   5.217  11.512
65044SOL     OW96970  13.965   9.750   6.988
65044SOL    HW196971  14.024   9.682   7.020
65044SOL    HW296972  13.969   9.818   7.055
65045SOL     OW96973   5.527  13.041   6.254
65045SOL    HW196974   5.575  13.124   6.256
65045SOL    HW296975   5.501  13.027   6.345
65046SOL     OW96976   1.257  10.864  11.523
65046SOL    HW196977   1.339  10.837  11.482
65046SOL    HW296978   1.245  10.803  11.596
65047SOL     OW96979   3.798   3.010   1.246
65047SOL    HW196980   3.752   2.926   1.244
65047SOL    HW296981   3.729   3.075   1.263
65048SOL     OW96982  14.514  12.907   6.852
65048SOL    HW196983  14.574  12.912   6.926
65048SOL    HW296984  14.532  12.822   6.811
65049SOL     OW96985  14.297  13.457  11.734
65049SOL    HW196986  14.277  13.427  11.823
65049SOL    HW296987  14.213  13.490  11.701
65050SOL     OW96988   3.669  14.256  12.892
65050SOL    HW196989   3.722  14.185  12.856
65050SOL    HW296990   3.583  14.216  12.908
65051SOL     OW96991  14.134  11.642  12.945
65051SOL    HW196992  14.085  11.694  13.009
65051SOL    HW296993  14.226  11.663  12.962
65052SOL     OW96994   7.174  12.723  11.954
65052SOL    HW196995   7.082  12.698  11.963
65052SOL    HW296996   7.215  12.649  11.910
65053SOL     OW96997   7.716   6.929   2.004
65053SOL    HW196998   7.637   6.906   2.052
65053SOL    HW296999   7.765   6.985   2.065
65054SOL     OW97000   1.917   4.195  13.211
65054SOL    HW197001   1.883   4.279  13.180
65054SOL    HW297002   1.877   4.130  13.153
65055SOL     OW97003   0.723   0.783  13.686
65055SOL    HW197004   0.736   0.708  13.627
65055SOL    HW297005   0.637   0.818  13.662
65056SOL     OW97006   3.352   9.419   1.591
65056SOL    HW197007   3.290   9.353   1.562
65056SOL    HW297008   3.435   9.372   1.602
65057SOL     OW97009   5.576  13.833   7.484
65057SOL    HW197010   5.619  13.783   7.414
65057SOL    HW297011   5.648  13.864   7.539
65058SOL     OW97012  10.605   0.723   1.919
65058SOL    HW197013  10.683   0.719   1.865
65058SOL    HW297014  10.546   0.659   1.880
65059SOL     OW97015   4.017   6.908   1.329
65059SOL    HW197016   3.968   6.832   1.358
65059SOL    HW297017   4.090   6.872   1.278
65060SOL     OW97018  12.585  14.264   8.013
65060SOL    HW197019  12.599  14.223   7.928
65060SOL    HW297020  12.510  14.218   8.050
65061SOL     OW97021   0.143  11.620   5.882
65061SOL    HW197022   0.154  11.629   5.787
65061SOL    HW297023   0.064  11.567   5.892
65062SOL     OW97024   1.610   5.938   1.487
65062SOL    HW197025   1.586   5.875   1.419
65062SOL    HW297026   1.530   5.990   1.500
65063SOL     OW97027  10.880  12.435   5.025
65063SOL    HW197028  10.882  12.341   5.042
65063SOL    HW297029  10.967  12.466   5.050
65064SOL     OW97030   7.218   0.455   8.052
65064SOL    HW197031   7.251   0.520   8.114
65064SOL    HW297032   7.124   0.452   8.068
65065SOL     OW97033  12.835   6.815  13.999
65065SOL    HW197034  12.876   6.752  14.058
65065SOL    HW297035  12.861   6.786  13.911
65066SOL     OW97036   6.585   1.570   3.023
65066SOL    HW197037   6.632   1.568   3.107
65066SOL    HW297038   6.509   1.624   3.040
65067SOL     OW97039  10.559   4.345   0.729
65067SOL    HW197040  10.599   4.429   0.707
65067SOL    HW297041  10.485   4.338   0.669
65068SOL     OW97042   1.775   8.387   4.355
65068SOL    HW197043   1.840   8.345   4.411
65068SOL    HW297044   1.725   8.443   4.415
65069SOL     OW97045   1.495  13.074  11.050
65069SOL    HW197046   1.437  13.148  11.031
65069SOL    HW297047   1.476  13.011  10.980
65070SOL     OW97048   0.074  10.236   1.345
65070SOL    HW197049   0.144  10.197   1.293
65070SOL    HW297050   0.028  10.161   1.383
65071SOL     OW97051   6.692   3.533  10.381
65071SOL    HW197052   6.762   3.596  10.393
65071SOL    HW297053   6.632   3.550  10.454
65072SOL     OW97054   7.551   4.536   0.012
65072SOL    HW197055   7.553   4.491  14.810
65072SOL    HW297056   7.617   4.604   0.005
65073SOL     OW97057   1.508   7.762   0.707
65073SOL    HW197058   1.540   7.688   0.760
65073SOL    HW297059   1.442   7.723   0.649
65074SOL     OW97060   7.121   4.971   0.687
65074SOL    HW197061   7.113   5.059   0.652
65074SOL    HW297062   7.116   4.983   0.782
65075SOL     OW97063   8.416  12.236   2.552
65075SOL    HW197064   8.487  12.178   2.578
65075SOL    HW297065   8.357  12.182   2.500
65076SOL     OW97066   2.247   4.870   1.102
65076SOL    HW197067   2.219   4.858   1.193
65076SOL    HW297068   2.203   4.951   1.074
65077SOL     OW97069  12.264   7.206   1.299
65077SOL    HW197070  12.329   7.173   1.361
65077SOL    HW297071  12.193   7.141   1.302
65078SOL     OW97072   4.119   2.316  14.663
65078SOL    HW197073   4.077   2.351  14.585
65078SOL    HW297074   4.082   2.366  14.735
65079SOL     OW97075   5.999   5.601  14.427
65079SOL    HW197076   5.977   5.657  14.502
65079SOL    HW297077   5.998   5.512  14.462
65080SOL     OW97078  12.209  12.473   2.597
65080SOL    HW197079  12.208  12.385   2.559
65080SOL    HW297080  12.234  12.530   2.524
65081SOL     OW97081   8.145   5.128   9.773
65081SOL    HW197082   8.065   5.112   9.723
65081SOL    HW297083   8.167   5.043   9.811
65082SOL     OW97084   8.695   2.921  12.209
65082SOL    HW197085   8.664   2.887  12.125
65082SOL    HW297086   8.743   3.001  12.188
65083SOL     OW97087   5.149  12.901   7.135
65083SOL    HW197088   5.059  12.930   7.148
65083SOL    HW297089   5.141  12.816   7.090
65084SOL     OW97090   5.850   9.787   4.374
65084SOL    HW197091   5.789   9.719   4.400
65084SOL    HW297092   5.809   9.868   4.403
65085SOL     OW97093  14.189  14.422   7.494
65085SOL    HW197094  14.197  14.413   7.399
65085SOL    HW297095  14.130  14.496   7.507
65086SOL     OW97096   8.809   9.898   6.238
65086SOL    HW197097   8.800   9.838   6.312
65086SOL    HW297098   8.793   9.985   6.275
65087SOL     OW97099   0.593  14.065   3.844
65087SOL    HW197100   0.501  14.045   3.831
65087SOL    HW297101   0.612  14.134   3.780
65088SOL     OW97102   8.073  12.706  12.868
65088SOL    HW197103   7.991  12.755  12.869
65088SOL    HW297104   8.048  12.619  12.836
65089SOL     OW97105   5.771   0.580   8.932
65089SOL    HW197106   5.679   0.558   8.944
65089SOL    HW297107   5.797   0.533   8.852
65090SOL     OW97108   8.191   0.479  13.152
65090SOL    HW197109   8.244   0.541  13.101
65090SOL    HW297110   8.101   0.499  13.126
65091SOL     OW97111  13.742   8.296   1.420
65091SOL    HW197112  13.837   8.302   1.424
65091SOL    HW297113  13.721   8.221   1.476
65092SOL     OW97114  11.103   1.487   0.392
65092SOL    HW197115  11.171   1.420   0.385
65092SOL    HW297116  11.064   1.491   0.304
65093SOL     OW97117   7.741   7.840  13.165
65093SOL    HW197118   7.675   7.909  13.156
65093SOL    HW297119   7.694   7.759  13.146
65094SOL     OW97120  12.470  14.342   4.861
65094SOL    HW197121  12.521  14.405   4.912
65094SOL    HW297122  12.401  14.314   4.921
65095SOL     OW97123   7.204  10.058   9.897
65095SOL    HW197124   7.245  10.134   9.856
65095SOL    HW297125   7.271   9.990   9.893
65096SOL     OW97126   8.585   2.157   7.055
65096SOL    HW197127   8.582   2.061   7.061
65096SOL    HW297128   8.617   2.173   6.966
65097SOL     OW97129  13.777   8.358   6.383
65097SOL    HW197130  13.693   8.366   6.428
65097SOL    HW297131  13.757   8.311   6.302
65098SOL     OW97132  14.490   3.711  13.580
65098SOL    HW197133  14.451   3.721  13.493
65098SOL    HW297134  14.487   3.617  13.597
65099SOL     OW97135   8.997  11.673  12.192
65099SOL    HW197136   8.937  11.738  12.229
65099SOL    HW297137   8.941  11.620  12.135
65100SOL     OW97138   6.841   3.650   0.522
65100SOL    HW197139   6.901   3.588   0.480
65100SOL    HW297140   6.778   3.595   0.567
65101SOL     OW97141   8.597  12.417   4.670
65101SOL    HW197142   8.535  12.363   4.719
65101SOL    HW297143   8.683  12.385   4.696
65102SOL     OW97144   7.261  11.865   4.865
65102SOL    HW197145   7.195  11.813   4.910
65102SOL    HW297146   7.258  11.951   4.908
65103SOL     OW97147   5.255   3.968  13.424
65103SOL    HW197148   5.281   4.018  13.347
65103SOL    HW297149   5.337   3.933  13.459
65104SOL     OW97150  14.856  12.799   5.241
65104SOL    HW197151  14.789  12.830   5.301
65104SOL    HW297152   0.051  12.853   5.261
65105SOL     OW97153   3.406  13.969   2.522
65105SOL    HW197154   3.467  13.972   2.448
65105SOL    HW297155   3.387  14.061   2.541
65106SOL     OW97156  13.520   4.681   1.310
65106SOL    HW197157  13.441   4.663   1.258
65106SOL    HW297158  13.576   4.733   1.253
65107SOL     OW97159   7.585   6.788  13.089
65107SOL    HW197160   7.570   6.844  13.014
65107SOL    HW297161   7.680   6.773  13.089
65108SOL     OW97162  10.622   0.139   8.870
65108SOL    HW197163  10.558   0.078   8.835
65108SOL    HW297164  10.599   0.223   8.832
65109SOL     OW97165   7.335   9.790   5.401
65109SOL    HW197166   7.358   9.698   5.388
65109SOL    HW297167   7.283   9.790   5.482
65110SOL     OW97168  10.638  11.792   6.268
65110SOL    HW197169  10.623  11.799   6.174
65110SOL    HW297170  10.691  11.713   6.278
65111SOL     OW97171   4.760   2.043   4.460
65111SOL    HW197172   4.678   2.088   4.480
65111SOL    HW297173   4.743   1.951   4.482
65112SOL     OW97174   9.171  14.695   0.997
65112SOL    HW197175   9.137  14.627   1.055
65112SOL    HW297176   9.180  14.773   1.052
65113SOL     OW97177   8.656   5.802   0.776
65113SOL    HW197178   8.640   5.891   0.747
65113SOL    HW297179   8.569   5.762   0.779
65114SOL     OW97180   7.751  13.452  11.480
65114SOL    HW197181   7.792  13.416  11.560
65114SOL    HW297182   7.824  13.461  11.419
65115SOL     OW97183   8.705   6.171   7.856
65115SOL    HW197184   8.624   6.147   7.900
65115SOL    HW297185   8.723   6.260   7.888
65116SOL     OW97186  10.734   7.498   3.594
65116SOL    HW197187  10.706   7.427   3.652
65116SOL    HW297188  10.759   7.453   3.513
65117SOL     OW97189   5.850   1.696  12.299
65117SOL    HW197190   5.834   1.612  12.344
65117SOL    HW297191   5.899   1.672  12.220
65118SOL     OW97192  13.161   8.662   2.594
65118SOL    HW197193  13.211   8.619   2.524
65118SOL    HW297194  13.071   8.633   2.580
65119SOL     OW97195  10.275   3.565  13.142
65119SOL    HW197196  10.324   3.632  13.190
65119SOL    HW297197  10.229   3.613  13.074
65120SOL     OW97198   8.101   0.035  12.735
65120SOL    HW197199   8.148   0.083  12.667
65120SOL    HW297200   8.013   0.073  12.734
65121SOL     OW97201  14.500  12.535  13.815
65121SOL    HW197202  14.582  12.582  13.826
65121SOL    HW297203  14.434  12.603  13.808
65122SOL     OW97204   2.574   0.925   5.596
65122SOL    HW197205   2.613   0.849   5.552
65122SOL    HW297206   2.644   0.959   5.652
65123SOL     OW97207   6.474   5.985   0.103
65123SOL    HW197208   6.495   6.071   0.067
65123SOL    HW297209   6.446   6.004   0.193
65124SOL     OW97210   4.833   3.305   4.215
65124SOL    HW197211   4.775   3.291   4.290
65124SOL    HW297212   4.921   3.300   4.253
65125SOL     OW97213   5.107  10.734   3.284
65125SOL    HW197214   5.192  10.700   3.313
65125SOL    HW297215   5.043  10.685   3.335
65126SOL     OW97216  13.677   9.203   4.752
65126SOL    HW197217  13.614   9.222   4.683
65126SOL    HW297218  13.666   9.273   4.816
65127SOL     OW97219   7.581   1.525  13.214
65127SOL    HW197220   7.515   1.518  13.145
65127SOL    HW297221   7.593   1.436  13.246
65128SOL     OW97222   9.924   5.020   3.081
65128SOL    HW197223   9.831   5.001   3.075
65128SOL    HW297224   9.941   5.079   3.007
65129SOL     OW97225   7.948   3.681   6.479
65129SOL    HW197226   8.000   3.609   6.441
65129SOL    HW297227   7.865   3.678   6.431
65130SOL     OW97228  10.374   0.095   8.741
65130SOL    HW197229  10.379   0.178   8.695
65130SOL    HW297230  10.281   0.071   8.738
65131SOL     OW97231   3.965   8.549   1.210
65131SOL    HW197232   4.028   8.607   1.252
65131SOL    HW297233   4.006   8.463   1.212
65132SOL     OW97234   1.356   8.189   8.262
65132SOL    HW197235   1.375   8.275   8.297
65132SOL    HW297236   1.423   8.175   8.195
65133SOL     OW97237   2.490   0.873   7.795
65133SOL    HW197238   2.562   0.895   7.854
65133SOL    HW297239   2.420   0.933   7.819
65134SOL     OW97240  11.533  14.102  11.214
65134SOL    HW197241  11.622  14.122  11.186
65134SOL    HW297242  11.491  14.063  11.137
65135SOL     OW97243   0.348   2.606   5.417
65135SOL    HW197244   0.300   2.618   5.335
65135SOL    HW297245   0.376   2.694   5.441
65136SOL     OW97246   8.335   8.481  12.942
65136SOL    HW197247   8.260   8.539  12.929
65136SOL    HW297248   8.398   8.508  12.875
65137SOL     OW97249  10.795   5.779   7.649
65137SOL    HW197250  10.831   5.819   7.570
65137SOL    HW297251  10.868   5.777   7.711
65138SOL     OW97252   7.784   5.455   6.388
65138SOL    HW197253   7.786   5.478   6.481
65138SOL    HW297254   7.746   5.367   6.385
65139SOL     OW97255  10.813  11.846  14.878
65139SOL    HW197256  10.785  11.933   0.025
65139SOL    HW297257  10.847  11.804   0.075
65140SOL     OW97258  11.861   2.150   0.698
65140SOL    HW197259  11.943   2.159   0.649
65140SOL    HW297260  11.792   2.161   0.632
65141SOL     OW97261   7.825   2.202  13.755
65141SOL    HW197262   7.856   2.217  13.665
65141SOL    HW297263   7.831   2.107  13.766
65142SOL     OW97264   5.710   1.045   9.374
65142SOL    HW197265   5.766   1.090   9.436
65142SOL    HW297266   5.630   1.098   9.371
65143SOL     OW97267  14.150   5.536   4.905
65143SOL    HW197268  14.226   5.587   4.934
65143SOL    HW297269  14.186   5.466   4.851
65144SOL     OW97270   4.192   6.138   5.202
65144SOL    HW197271   4.276   6.101   5.229
65144SOL    HW297272   4.130   6.106   5.267
65145SOL     OW97273   5.302   3.816   1.512
65145SOL    HW197274   5.248   3.786   1.585
65145SOL    HW297275   5.358   3.742   1.491
65146SOL     OW97276   7.554   9.898   6.322
65146SOL    HW197277   7.639   9.855   6.336
65146SOL    HW297278   7.570   9.963   6.254
65147SOL     OW97279  14.229   9.216  12.853
65147SOL    HW197280  14.233   9.258  12.939
65147SOL    HW297281  14.298   9.151  12.854
65148SOL     OW97282   7.906   1.421   6.333
65148SOL    HW197283   7.900   1.489   6.399
65148SOL    HW297284   7.991   1.380   6.347
65149SOL     OW97285   2.893  10.693  12.768
65149SOL    HW197286   2.865  10.784  12.757
65149SOL    HW297287   2.988  10.699  12.783
65150SOL     OW97288   3.696   2.703   6.724
65150SOL    HW197289   3.674   2.727   6.814
65150SOL    HW297290   3.710   2.608   6.726
65151SOL     OW97291  14.155   5.326   3.020
65151SOL    HW197292  14.137   5.381   2.944
65151SOL    HW297293  14.165   5.238   2.985
65152SOL     OW97294   4.100   7.663   6.235
65152SOL    HW197295   4.096   7.620   6.320
65152SOL    HW297296   4.014   7.704   6.225
65153SOL     OW97297  12.319   2.449   8.989
65153SOL    HW197298  12.331   2.368   9.039
65153SOL    HW297299  12.249   2.495   9.035
65154SOL     OW97300   3.915   7.731   7.711
65154SOL    HW197301   3.836   7.780   7.690
65154SOL    HW297302   3.885   7.662   7.771
65155SOL     OW97303   8.578  10.901   5.000
65155SOL    HW197304   8.602  10.936   5.086
65155SOL    HW297305   8.596  10.973   4.939
65156SOL     OW97306   6.464   2.517   7.256
65156SOL    HW197307   6.503   2.493   7.340
65156SOL    HW297308   6.519   2.474   7.191
65157SOL     OW97309   6.103   6.785  13.087
65157SOL    HW197310   6.062   6.870  13.070
65157SOL    HW297311   6.079   6.730  13.012
65158SOL     OW97312   6.013   2.932   2.710
65158SOL    HW197313   5.963   3.006   2.745
65158SOL    HW297314   5.993   2.932   2.617
65159SOL     OW97315   5.940   6.900   7.061
65159SOL    HW197316   5.964   6.844   6.986
65159SOL    HW297317   6.016   6.896   7.118
65160SOL     OW97318  10.282  12.041   6.926
65160SOL    HW197319  10.299  11.950   6.952
65160SOL    HW297320  10.285  12.039   6.831
65161SOL     OW97321   6.513  14.264   9.837
65161SOL    HW197322   6.540  14.331   9.900
65161SOL    HW297323   6.418  14.260   9.845
65162SOL     OW97324   8.689   9.103  11.373
65162SOL    HW197325   8.649   9.020  11.347
65162SOL    HW297326   8.742   9.081  11.449
65163SOL     OW97327  10.549  13.038   1.318
65163SOL    HW197328  10.587  13.053   1.404
65163SOL    HW297329  10.549  13.124   1.277
65164SOL     OW97330   7.917   2.946   7.696
65164SOL    HW197331   7.982   2.879   7.675
65164SOL    HW297332   7.839   2.898   7.721
65165SOL     OW97333   2.945   7.364   4.737
65165SOL    HW197334   3.013   7.297   4.748
65165SOL    HW297335   2.972   7.435   4.796
65166SOL     OW97336   6.386   1.919  11.430
65166SOL    HW197337   6.410   1.961  11.348
65166SOL    HW297338   6.328   1.847  11.405
65167SOL     OW97339   7.236  13.155   4.443
65167SOL    HW197340   7.308  13.111   4.398
65167SOL    HW297341   7.193  13.086   4.494
65168SOL     OW97342   0.038  11.867   4.007
65168SOL    HW197343  14.873  11.811   4.068
65168SOL    HW297344   0.109  11.811   3.973
65169SOL     OW97345  12.478  10.430   9.948
65169SOL    HW197346  12.382  10.426   9.947
65169SOL    HW297347  12.505  10.348   9.988
65170SOL     OW97348   9.321   3.731   2.532
65170SOL    HW197349   9.279   3.817   2.533
65170SOL    HW297350   9.264   3.677   2.478
65171SOL     OW97351   4.997  11.682   3.525
65171SOL    HW197352   5.084  11.684   3.485
65171SOL    HW297353   4.980  11.774   3.549
65172SOL     OW97354  10.113   4.198   0.886
65172SOL    HW197355  10.121   4.167   0.796
65172SOL    HW297356  10.167   4.277   0.889
65173SOL     OW97357  11.482   7.478  10.425
65173SOL    HW197358  11.489   7.533  10.503
65173SOL    HW297359  11.556   7.418  10.431
65174SOL     OW97360   4.289   9.846   9.735
65174SOL    HW197361   4.339   9.799   9.668
65174SOL    HW297362   4.346   9.845   9.812
65175SOL     OW97363   3.213   5.176   4.226
65175SOL    HW197364   3.154   5.122   4.173
65175SOL    HW297365   3.298   5.170   4.182
65176SOL     OW97366   8.448   0.181  12.854
65176SOL    HW197367   8.360   0.218  12.840
65176SOL    HW297368   8.466   0.131  12.774
65177SOL     OW97369   9.627   3.554   8.923
65177SOL    HW197370   9.616   3.536   9.016
65177SOL    HW297371   9.720   3.537   8.906
65178SOL     OW97372   2.608   5.689   6.892
65178SOL    HW197373   2.526   5.727   6.860
65178SOL    HW297374   2.582   5.606   6.933
65179SOL     OW97375   1.157   5.109   3.837
65179SOL    HW197376   1.102   5.132   3.912
65179SOL    HW297377   1.215   5.041   3.870
65180SOL     OW97378   8.269  11.614   1.076
65180SOL    HW197379   8.290  11.678   1.008
65180SOL    HW297380   8.193  11.568   1.044
65181SOL     OW97381   8.552  13.238   8.003
65181SOL    HW197382   8.570  13.227   7.910
65181SOL    HW297383   8.470  13.190   8.018
65182SOL     OW97384   0.742  11.763   4.267
65182SOL    HW197385   0.780  11.850   4.279
65182SOL    HW297386   0.789  11.708   4.330
65183SOL     OW97387   0.626   0.785   7.884
65183SOL    HW197388   0.567   0.767   7.957
65183SOL    HW297389   0.594   0.867   7.847
65184SOL     OW97390  13.861   2.192  10.728
65184SOL    HW197391  13.776   2.211  10.768
65184SOL    HW297392  13.908   2.276  10.732
65185SOL     OW97393  12.724   7.996   3.593
65185SOL    HW197394  12.675   8.044   3.660
65185SOL    HW297395  12.805   8.047   3.582
65186SOL     OW97396   9.098   4.062   8.746
65186SOL    HW197397   9.040   4.021   8.681
65186SOL    HW297398   9.086   4.156   8.733
65187SOL     OW97399   9.646   1.362   3.807
65187SOL    HW197400   9.707   1.403   3.869
65187SOL    HW297401   9.618   1.434   3.750
65188SOL     OW97402   9.043   6.631   6.085
65188SOL    HW197403   8.965   6.624   6.030
65188SOL    HW297404   9.084   6.714   6.058
65189SOL     OW97405   2.631   6.861   8.897
65189SOL    HW197406   2.560   6.797   8.895
65189SOL    HW297407   2.612   6.915   8.974
65190SOL     OW97408   5.149   9.018   6.856
65190SOL    HW197409   5.194   8.938   6.882
65190SOL    HW297410   5.059   8.991   6.839
65191SOL     OW97411   8.050   4.639   5.866
65191SOL    HW197412   7.995   4.665   5.792
65191SOL    HW297413   8.138   4.668   5.843
65192SOL     OW97414   3.199   2.878  10.992
65192SOL    HW197415   3.291   2.856  10.979
65192SOL    HW297416   3.151   2.804  10.955
65193SOL     OW97417  12.248   6.131   0.455
65193SOL    HW197418  12.313   6.093   0.514
65193SOL    HW297419  12.273   6.224   0.449
65194SOL     OW97420   4.182  13.859  11.775
65194SOL    HW197421   4.244  13.907  11.830
65194SOL    HW297422   4.190  13.900  11.689
65195SOL     OW97423   1.659   5.177   3.915
65195SOL    HW197424   1.711   5.097   3.915
65195SOL    HW297425   1.645   5.196   3.822
65196SOL     OW97426   2.059   5.848   3.554
65196SOL    HW197427   2.071   5.910   3.627
65196SOL    HW297428   1.970   5.815   3.565
65197SOL     OW97429   6.243  14.350  11.729
65197SOL    HW197430   6.207  14.346  11.818
65197SOL    HW297431   6.230  14.262  11.693
65198SOL     OW97432  12.262  14.012   9.602
65198SOL    HW197433  12.202  14.058   9.660
65198SOL    HW297434  12.215  13.932   9.578
65199SOL     OW97435  10.356   8.177   9.945
65199SOL    HW197436  10.397   8.090   9.946
65199SOL    HW297437  10.407   8.226   9.881
65200SOL     OW97438  14.610   2.758  14.246
65200SOL    HW197439  14.701   2.728  14.244
65200SOL    HW297440  14.561   2.685  14.283
65201SOL     OW97441   5.242   3.289  13.555
65201SOL    HW197442   5.159   3.242  13.559
65201SOL    HW297443   5.288   3.264  13.636
65202SOL     OW97444   1.735   7.294  14.242
65202SOL    HW197445   1.734   7.261  14.152
65202SOL    HW297446   1.828   7.307  14.261
65203SOL     OW97447  10.480   9.207   6.506
65203SOL    HW197448  10.412   9.218   6.440
65203SOL    HW297449  10.530   9.288   6.503
65204SOL     OW97450   2.646   6.802   3.449
65204SOL    HW197451   2.638   6.813   3.544
65204SOL    HW297452   2.572   6.850   3.413
65205SOL     OW97453  13.560   0.942   7.412
65205SOL    HW197454  13.478   0.964   7.457
65205SOL    HW297455  13.547   0.972   7.322
65206SOL     OW97456   7.425  14.265   5.072
65206SOL    HW197457   7.387  14.216   4.999
65206SOL    HW297458   7.515  14.284   5.043
65207SOL     OW97459   4.673  13.011   9.878
65207SOL    HW197460   4.664  13.103   9.850
65207SOL    HW297461   4.613  12.963   9.821
65208SOL     OW97462   5.854  12.043  10.003
65208SOL    HW197463   5.947  12.034  10.023
65208SOL    HW297464   5.815  12.073  10.085
65209SOL     OW97465   7.301  12.451   5.191
65209SOL    HW197466   7.311  12.369   5.144
65209SOL    HW297467   7.215  12.445   5.232
65210SOL     OW97468   5.281  13.614  13.422
65210SOL    HW197469   5.190  13.634  13.403
65210SOL    HW297470   5.281  13.587  13.514
65211SOL     OW97471   3.606   6.758   6.608
65211SOL    HW197472   3.558   6.830   6.567
65211SOL    HW297473   3.554   6.680   6.589
65212SOL     OW97474  12.942  11.314   8.747
65212SOL    HW197475  12.948  11.392   8.802
65212SOL    HW297476  12.965  11.344   8.659
65213SOL     OW97477   0.078   2.333  10.428
65213SOL    HW197478   0.102   2.420  10.394
65213SOL    HW297479  14.880   2.349  10.480
65214SOL     OW97480   6.160   8.327  11.785
65214SOL    HW197481   6.117   8.347  11.701
65214SOL    HW297482   6.118   8.246  11.814
65215SOL     OW97483  12.653  13.364   1.645
65215SOL    HW197484  12.588  13.377   1.576
65215SOL    HW297485  12.683  13.453   1.668
65216SOL     OW97486   4.619   2.228   0.732
65216SOL    HW197487   4.607   2.255   0.823
65216SOL    HW297488   4.671   2.299   0.693
65217SOL     OW97489  11.131   0.233   4.369
65217SOL    HW197490  11.214   0.278   4.354
65217SOL    HW297491  11.067   0.304   4.380
65218SOL     OW97492   9.305   5.674  14.598
65218SOL    HW197493   9.222   5.626  14.610
65218SOL    HW297494   9.372   5.607  14.602
65219SOL     OW97495   6.403   1.225   4.423
65219SOL    HW197496   6.475   1.231   4.485
65219SOL    HW297497   6.421   1.294   4.358
65220SOL     OW97498  10.965  11.360   9.011
65220SOL    HW197499  10.889  11.417   9.005
65220SOL    HW297500  10.937  11.289   9.069
65221SOL     OW97501   6.090   9.053   2.091
65221SOL    HW197502   6.164   8.996   2.068
65221SOL    HW297503   6.096   9.126   2.030
65222SOL     OW97504   4.619   4.172   7.294
65222SOL    HW197505   4.586   4.224   7.220
65222SOL    HW297506   4.687   4.227   7.333
65223SOL     OW97507   5.228   6.101   8.603
65223SOL    HW197508   5.202   6.049   8.526
65223SOL    HW297509   5.155   6.093   8.663
65224SOL     OW97510   8.088  13.643   0.800
65224SOL    HW197511   8.126  13.558   0.823
65224SOL    HW297512   8.133  13.668   0.719
65225SOL     OW97513  14.882  14.483   8.130
65225SOL    HW197514   0.083  14.490   8.177
65225SOL    HW297515  14.861  14.573   8.105
65226SOL     OW97516  11.101  14.664   3.932
65226SOL    HW197517  11.094  14.760   3.928
65226SOL    HW297518  11.083  14.643   4.024
65227SOL     OW97519  14.723   1.621  10.084
65227SOL    HW197520  14.633   1.650  10.093
65227SOL    HW297521  14.731   1.546  10.143
65228SOL     OW97522  14.471  10.991   3.201
65228SOL    HW197523  14.393  10.969   3.252
65228SOL    HW297524  14.524  11.044   3.261
65229SOL     OW97525   3.505   6.974  11.794
65229SOL    HW197526   3.438   7.038  11.771
65229SOL    HW297527   3.469   6.890  11.766
65230SOL     OW97528   0.236  11.745   0.144
65230SOL    HW197529   0.286  11.827   0.139
65230SOL    HW297530   0.303  11.677   0.153
65231SOL     OW97531  14.038   4.615  14.684
65231SOL    HW197532  14.110   4.586  14.739
65231SOL    HW297533  14.030   4.709  14.702
65232SOL     OW97534   3.956   0.825  10.419
65232SOL    HW197535   3.944   0.876  10.339
65232SOL    HW297536   4.040   0.781  10.408
65233SOL     OW97537   4.828  10.793   4.509
65233SOL    HW197538   4.741  10.833   4.514
65233SOL    HW297539   4.866  10.808   4.595
65234SOL     OW97540   6.587   1.296  10.399
65234SOL    HW197541   6.527   1.222  10.412
65234SOL    HW297542   6.662   1.276  10.455
65235SOL     OW97543   4.031   5.973   1.651
65235SOL    HW197544   3.992   5.891   1.620
65235SOL    HW297545   4.016   5.972   1.746
65236SOL     OW97546   3.090   9.292  14.460
65236SOL    HW197547   3.124   9.379  14.438
65236SOL    HW297548   3.019   9.279  14.397
65237SOL     OW97549   8.261   7.639   6.465
65237SOL    HW197550   8.228   7.705   6.527
65237SOL    HW297551   8.302   7.573   6.521
65238SOL     OW97552   1.366   5.062  14.405
65238SOL    HW197553   1.436   5.081  14.342
65238SOL    HW297554   1.289   5.105  14.370
65239SOL     OW97555   3.643   9.364   2.024
65239SOL    HW197556   3.576   9.421   1.987
65239SOL    HW297557   3.699   9.340   1.950
65240SOL     OW97558   3.660  14.457  11.211
65240SOL    HW197559   3.662  14.364  11.236
65240SOL    HW297560   3.717  14.500  11.275
65241SOL     OW97561  12.673   0.492   8.703
65241SOL    HW197562  12.639   0.410   8.737
65241SOL    HW297563  12.765   0.492   8.726
65242SOL     OW97564   9.634   5.871   0.466
65242SOL    HW197565   9.594   5.800   0.516
65242SOL    HW297566   9.562   5.931   0.448
65243SOL     OW97567  10.131   9.310   9.064
65243SOL    HW197568  10.181   9.392   9.062
65243SOL    HW297569  10.101   9.299   8.974
65244SOL     OW97570  10.600  11.824  11.465
65244SOL    HW197571  10.653  11.878  11.407
65244SOL    HW297572  10.547  11.771  11.406
65245SOL     OW97573   7.915   3.015   5.251
65245SOL    HW197574   7.821   3.008   5.267
65245SOL    HW297575   7.940   2.928   5.220
65246SOL     OW97576  12.162   1.224   7.835
65246SOL    HW197577  12.170   1.228   7.930
65246SOL    HW297578  12.127   1.137   7.817
65247SOL     OW97579   6.924   3.333  12.164
65247SOL    HW197580   7.014   3.357  12.184
65247SOL    HW297581   6.929   3.289  12.079
65248SOL     OW97582  12.396   4.852   2.897
65248SOL    HW197583  12.482   4.812   2.904
65248SOL    HW297584  12.413   4.944   2.880
65249SOL     OW97585   2.948   6.376  12.845
65249SOL    HW197586   2.916   6.346  12.930
65249SOL    HW297587   2.987   6.462  12.864
65250SOL     OW97588   6.601  13.656   3.452
65250SOL    HW197589   6.632  13.745   3.471
65250SOL    HW297590   6.506  13.664   3.443
65251SOL     OW97591   5.102  14.554   2.722
65251SOL    HW197592   5.016  14.594   2.710
65251SOL    HW297593   5.161  14.627   2.742
65252SOL     OW97594   0.790   0.008   1.958
65252SOL    HW197595   0.730  14.853   2.023
65252SOL    HW297596   0.801  14.820   1.894
65253SOL     OW97597   8.240  14.782   6.031
65253SOL    HW197598   8.293  14.853   5.994
65253SOL    HW297599   8.234  14.718   5.961
65254SOL     OW97600   7.692   9.313   6.538
65254SOL    HW197601   7.598   9.303   6.528
65254SOL    HW297602   7.706   9.323   6.632
65255SOL     OW97603   6.713   4.617   5.109
65255SOL    HW197604   6.713   4.643   5.017
65255SOL    HW297605   6.624   4.587   5.125
65256SOL     OW97606   6.469  11.915   6.016
65256SOL    HW197607   6.550  11.957   6.047
65256SOL    HW297608   6.485  11.821   6.025
65257SOL     OW97609   1.251   6.062   2.873
65257SOL    HW197610   1.271   6.013   2.953
65257SOL    HW297611   1.210   5.999   2.815
65258SOL     OW97612  10.432   3.353   3.106
65258SOL    HW197613  10.393   3.391   3.185
65258SOL    HW297614  10.372   3.380   3.036
65259SOL     OW97615   6.013   0.405   0.264
65259SOL    HW197616   5.964   0.371   0.339
65259SOL    HW297617   6.096   0.435   0.302
65260SOL     OW97618   6.984  11.749  12.612
65260SOL    HW197619   7.074  11.745  12.642
65260SOL    HW297620   6.940  11.676  12.657
65261SOL     OW97621  10.457  14.800   6.640
65261SOL    HW197622  10.425  14.758   6.561
65261SOL    HW297623  10.413   0.003   6.643
65262SOL     OW97624   3.984   6.000  11.770
65262SOL    HW197625   3.899   6.033  11.798
65262SOL    HW297626   3.972   5.974  11.679
65263SOL     OW97627   9.652   0.635  10.613
65263SOL    HW197628   9.634   0.542  10.599
65263SOL    HW297629   9.570   0.670  10.648
65264SOL     OW97630   4.900  12.852   5.347
65264SOL    HW197631   4.866  12.829   5.260
65264SOL    HW297632   4.993  12.830   5.343
65265SOL     OW97633  13.307   3.323  12.537
65265SOL    HW197634  13.325   3.372  12.457
65265SOL    HW297635  13.389   3.279  12.558
65266SOL     OW97636  14.105   1.155  13.295
65266SOL    HW197637  14.156   1.234  13.316
65266SOL    HW297638  14.163   1.082  13.319
65267SOL     OW97639   7.362   8.088   5.472
65267SOL    HW197640   7.393   8.000   5.449
65267SOL    HW297641   7.404   8.107   5.555
65268SOL     OW97642  10.400   5.749   4.377
65268SOL    HW197643  10.496   5.749   4.371
65268SOL    HW297644  10.371   5.749   4.285
65269SOL     OW97645  10.433  11.871   8.319
65269SOL    HW197646  10.463  11.927   8.390
65269SOL    HW297647  10.499  11.802   8.313
65270SOL     OW97648   2.976   8.983   5.745
65270SOL    HW197649   2.884   8.956   5.741
65270SOL    HW297650   2.983   9.028   5.830
65271SOL     OW97651   2.460   8.952  11.344
65271SOL    HW197652   2.427   9.038  11.370
65271SOL    HW297653   2.536   8.936  11.401
65272SOL     OW97654   3.741   4.690  12.984
65272SOL    HW197655   3.653   4.660  13.007
65272SOL    HW297656   3.799   4.642  13.043
65273SOL     OW97657   8.280   2.098  13.507
65273SOL    HW197658   8.192   2.099  13.470
65273SOL    HW297659   8.338   2.082  13.433
65274SOL     OW97660  12.366   6.346  10.679
65274SOL    HW197661  12.293   6.358  10.740
65274SOL    HW297662  12.331   6.374  10.594
65275SOL     OW97663  11.632  13.496   7.114
65275SOL    HW197664  11.706  13.441   7.089
65275SOL    HW297665  11.571  13.435   7.157
65276SOL     OW97666   7.186   1.751   2.267
65276SOL    HW197667   7.194   1.846   2.274
65276SOL    HW297668   7.277   1.720   2.270
65277SOL     OW97669   5.249   4.912  13.898
65277SOL    HW197670   5.216   4.870  13.819
65277SOL    HW297671   5.316   4.852  13.931
65278SOL     OW97672   0.065   7.328   8.615
65278SOL    HW197673   0.036   7.243   8.646
65278SOL    HW297674   0.025   7.337   8.528
65279SOL     OW97675   1.345   3.248   9.628
65279SOL    HW197676   1.315   3.163   9.661
65279SOL    HW297677   1.296   3.261   9.547
65280SOL     OW97678   6.978  11.568   2.043
65280SOL    HW197679   6.910  11.594   1.981
65280SOL    HW297680   7.038  11.643   2.044
65281SOL     OW97681   2.127   7.321   1.408
65281SOL    HW197682   2.199   7.267   1.443
65281SOL    HW297683   2.171   7.390   1.358
65282SOL     OW97684   0.108   8.841   1.155
65282SOL    HW197685   0.043   8.911   1.162
65282SOL    HW297686   0.179   8.868   1.213
65283SOL     OW97687   2.301   9.336  10.553
65283SOL    HW197688   2.380   9.387  10.538
65283SOL    HW297689   2.235   9.377  10.497
65284SOL     OW97690   3.848   0.348   8.273
65284SOL    HW197691   3.823   0.339   8.364
65284SOL    HW297692   3.767   0.372   8.228
65285SOL     OW97693   0.098   4.228   5.969
65285SOL    HW197694   0.181   4.192   6.000
65285SOL    HW297695   0.108   4.323   5.980
65286SOL     OW97696   2.330  13.298   2.277
65286SOL    HW197697   2.295  13.357   2.210
65286SOL    HW297698   2.297  13.212   2.251
65287SOL     OW97699   6.245   5.109   3.822
65287SOL    HW197700   6.170   5.063   3.784
65287SOL    HW297701   6.304   5.123   3.748
65288SOL     OW97702   1.402  13.764  11.779
65288SOL    HW197703   1.363  13.821  11.713
65288SOL    HW297704   1.438  13.823  11.845
65289SOL     OW97705   5.601   6.681   5.823
65289SOL    HW197706   5.516   6.722   5.804
65289SOL    HW297707   5.577   6.599   5.867
65290SOL     OW97708  12.223  13.838   4.619
65290SOL    HW197709  12.255  13.872   4.536
65290SOL    HW297710  12.131  13.816   4.603
65291SOL     OW97711   8.438   1.743  11.183
65291SOL    HW197712   8.374   1.812  11.203
65291SOL    HW297713   8.470   1.714  11.268
65292SOL     OW97714   6.162   2.098  13.112
65292SOL    HW197715   6.070   2.075  13.127
65292SOL    HW297716   6.209   2.015  13.120
65293SOL     OW97717   6.192  10.903   9.146
65293SOL    HW197718   6.285  10.882   9.154
65293SOL    HW297719   6.150  10.819   9.125
65294SOL     OW97720   4.493  14.157  13.339
65294SOL    HW197721   4.481  14.068  13.307
65294SOL    HW297722   4.560  14.194  13.282
65295SOL     OW97723   3.960   5.390  10.912
65295SOL    HW197724   3.995   5.471  10.950
65295SOL    HW297725   3.969   5.325  10.982
65296SOL     OW97726  13.871  13.961  14.152
65296SOL    HW197727  13.776  13.950  14.161
65296SOL    HW297728  13.904  13.954  14.242
65297SOL     OW97729  14.608   1.026   7.497
65297SOL    HW197730  14.646   1.101   7.542
65297SOL    HW297731  14.642   0.950   7.544
65298SOL     OW97732  11.135   9.056  10.092
65298SOL    HW197733  11.087   9.119  10.037
65298SOL    HW297734  11.099   9.069  10.180
65299SOL     OW97735  10.310   6.644  12.834
65299SOL    HW197736  10.353   6.559  12.831
65299SOL    HW297737  10.298   6.668  12.742
65300SOL     OW97738   6.060   6.415   7.372
65300SOL    HW197739   6.035   6.494   7.324
65300SOL    HW297740   6.020   6.344   7.323
65301SOL     OW97741   1.474   4.094   4.775
65301SOL    HW197742   1.491   4.166   4.836
65301SOL    HW297743   1.461   4.137   4.690
65302SOL     OW97744   0.647  10.397   0.398
65302SOL    HW197745   0.707  10.468   0.374
65302SOL    HW297746   0.629  10.411   0.491
65303SOL     OW97747  12.086   9.748   7.504
65303SOL    HW197748  12.090   9.687   7.578
65303SOL    HW297749  12.012   9.718   7.452
65304SOL     OW97750   6.131   6.614  12.834
65304SOL    HW197751   6.214   6.620  12.788
65304SOL    HW297752   6.074   6.676  12.788
65305SOL     OW97753   4.917   8.457   9.417
65305SOL    HW197754   4.970   8.378   9.415
65305SOL    HW297755   4.858   8.445   9.492
65306SOL     OW97756   4.593  13.555   3.833
65306SOL    HW197757   4.552  13.548   3.920
65306SOL    HW297758   4.519  13.572   3.774
65307SOL     OW97759   9.821   6.592  10.773
65307SOL    HW197760   9.902   6.545  10.754
65307SOL    HW297761   9.754   6.549  10.719
65308SOL     OW97762   6.552   8.768  14.177
65308SOL    HW197763   6.506   8.716  14.243
65308SOL    HW297764   6.526   8.730  14.094
65309SOL     OW97765  12.477   4.875  12.673
65309SOL    HW197766  12.455   4.880  12.580
65309SOL    HW297767  12.554   4.931  12.683
65310SOL     OW97768   4.700   9.041   4.629
65310SOL    HW197769   4.786   9.044   4.587
65310SOL    HW297770   4.682   8.947   4.640
65311SOL     OW97771   8.803   7.428  14.629
65311SOL    HW197772   8.754   7.482  14.692
65311SOL    HW297773   8.763   7.341  14.636
65312SOL     OW97774   9.764  10.825  14.313
65312SOL    HW197775   9.830  10.832  14.243
65312SOL    HW297776   9.703  10.897  14.295
65313SOL     OW97777  13.659  12.100   4.640
65313SOL    HW197778  13.673  12.016   4.683
65313SOL    HW297779  13.659  12.164   4.711
65314SOL     OW97780   4.925   2.205   3.935
65314SOL    HW197781   4.852   2.254   3.897
65314SOL    HW297782   4.913   2.214   4.029
65315SOL     OW97783   0.744  10.849   4.547
65315SOL    HW197784   0.681  10.919   4.530
65315SOL    HW297785   0.746  10.799   4.466
65316SOL     OW97786  12.305  10.967   4.282
65316SOL    HW197787  12.260  10.975   4.198
65316SOL    HW297788  12.240  10.997   4.347
65317SOL     OW97789  10.947   6.268   2.890
65317SOL    HW197790  10.930   6.362   2.893
65317SOL    HW297791  10.866   6.230   2.857
65318SOL     OW97792  10.263   4.642   8.090
65318SOL    HW197793  10.300   4.560   8.122
65318SOL    HW297794  10.236   4.688   8.170
65319SOL     OW97795   7.362   7.100   6.340
65319SOL    HW197796   7.400   7.057   6.416
65319SOL    HW297797   7.366   7.034   6.271
65320SOL     OW97798   2.396   8.158   9.423
65320SOL    HW197799   2.355   8.085   9.376
65320SOL    HW297800   2.488   8.155   9.397
65321SOL     OW97801   2.646  12.155   8.519
65321SOL    HW197802   2.636  12.081   8.578
65321SOL    HW297803   2.559  12.168   8.481
65322SOL     OW97804  10.779   7.718  13.023
65322SOL    HW197805  10.801   7.793  13.079
65322SOL    HW297806  10.688   7.698  13.046
65323SOL     OW97807   7.760  14.053   1.807
65323SOL    HW197808   7.729  13.995   1.876
65323SOL    HW297809   7.838  14.095   1.843
65324SOL     OW97810  11.330   3.441   0.737
65324SOL    HW197811  11.365   3.392   0.811
65324SOL    HW297812  11.378   3.409   0.661
65325SOL     OW97813  14.806   8.364  14.081
65325SOL    HW197814  14.770   8.446  14.046
65325SOL    HW297815  14.779   8.364  14.172
65326SOL     OW97816  13.040  11.737  12.194
65326SOL    HW197817  13.034  11.809  12.132
65326SOL    HW297818  13.129  11.705  12.186
65327SOL     OW97819   1.841   0.621   1.410
65327SOL    HW197820   1.763   0.666   1.378
65327SOL    HW297821   1.823   0.606   1.503
65328SOL     OW97822  13.832  10.912   6.791
65328SOL    HW197823  13.758  10.872   6.746
65328SOL    HW297824  13.812  11.006   6.791
65329SOL     OW97825   5.892   3.090  11.926
65329SOL    HW197826   5.848   3.030  11.865
65329SOL    HW297827   5.820   3.138  11.968
65330SOL     OW97828   1.112  13.608   3.497
65330SOL    HW197829   1.177  13.567   3.554
65330SOL    HW297830   1.158  13.621   3.414
65331SOL     OW97831   3.290   6.665   6.124
65331SOL    HW197832   3.305   6.613   6.045
65331SOL    HW297833   3.209   6.630   6.161
65332SOL     OW97834   6.928   0.502   3.033
65332SOL    HW197835   6.897   0.460   3.113
65332SOL    HW297836   6.871   0.578   3.022
65333SOL     OW97837   9.545   6.985  13.082
65333SOL    HW197838   9.553   6.932  13.003
65333SOL    HW297839   9.528   7.073  13.051
65334SOL     OW97840   0.517   7.460   8.963
65334SOL    HW197841   0.491   7.392   8.901
65334SOL    HW297842   0.575   7.518   8.914
65335SOL     OW97843   9.647   5.367  12.491
65335SOL    HW197844   9.577   5.361  12.426
65335SOL    HW297845   9.654   5.278  12.527
65336SOL     OW97846   1.917   9.691   6.687
65336SOL    HW197847   1.898   9.781   6.658
65336SOL    HW297848   1.865   9.680   6.766
65337SOL     OW97849   1.103   1.688   3.564
65337SOL    HW197850   1.163   1.618   3.591
65337SOL    HW297851   1.035   1.643   3.513
65338SOL     OW97852  12.934   9.635  10.146
65338SOL    HW197853  12.893   9.648  10.060
65338SOL    HW297854  13.008   9.578  10.129
65339SOL     OW97855   1.319   3.679   5.161
65339SOL    HW197856   1.264   3.625   5.218
65339SOL    HW297857   1.393   3.703   5.216
65340SOL     OW97858   7.896   3.664  10.717
65340SOL    HW197859   7.889   3.578  10.675
65340SOL    HW297860   7.901   3.725  10.644
65341SOL     OW97861   6.822   6.769   2.032
65341SOL    HW197862   6.747   6.749   1.976
65341SOL    HW297863   6.816   6.708   2.105
65342SOL     OW97864   0.810   6.263   8.424
65342SOL    HW197865   0.804   6.322   8.349
65342SOL    HW297866   0.765   6.309   8.495
65343SOL     OW97867   6.996  11.114   3.807
65343SOL    HW197868   6.914  11.125   3.759
65343SOL    HW297869   6.970  11.068   3.887
65344SOL     OW97870   6.467   9.025   3.044
65344SOL    HW197871   6.502   9.114   3.054
65344SOL    HW297872   6.436   9.022   2.953
65345SOL     OW97873   5.714   1.109   3.014
65345SOL    HW197874   5.782   1.115   2.947
65345SOL    HW297875   5.671   1.195   3.012
65346SOL     OW97876   1.142  14.702   3.454
65346SOL    HW197877   1.210  14.667   3.396
65346SOL    HW297878   1.144  14.645   3.531
65347SOL     OW97879   0.951   7.270  12.766
65347SOL    HW197880   0.863   7.306  12.753
65347SOL    HW297881   0.957   7.254  12.860
65348SOL     OW97882   2.013   4.152   6.478
65348SOL    HW197883   1.946   4.154   6.546
65348SOL    HW297884   2.074   4.083   6.506
65349SOL     OW97885   7.277   8.621  10.875
65349SOL    HW197886   7.253   8.532  10.900
65349SOL    HW297887   7.224   8.677  10.932
65350SOL     OW97888   4.841   9.944   8.137
65350SOL    HW197889   4.805   9.964   8.224
65350SOL    HW297890   4.823   9.851   8.124
65351SOL     OW97891   1.613  10.445   4.325
65351SOL    HW197892   1.519  10.460   4.309
65351SOL    HW297893   1.636  10.506   4.395
65352SOL     OW97894   3.126  12.403   9.188
65352SOL    HW197895   3.058  12.446   9.240
65352SOL    HW297896   3.204  12.455   9.203
65353SOL     OW97897   6.676  12.503   6.394
65353SOL    HW197898   6.612  12.508   6.323
65353SOL    HW297899   6.706  12.593   6.406
65354SOL     OW97900   1.139  13.311   7.871
65354SOL    HW197901   1.094  13.229   7.853
65354SOL    HW297902   1.226  13.285   7.901
65355SOL     OW97903   8.477  12.600   8.653
65355SOL    HW197904   8.523  12.556   8.582
65355SOL    HW297905   8.422  12.665   8.610
65356SOL     OW97906  14.494  10.415   0.298
65356SOL    HW197907  14.442  10.415   0.218
65356SOL    HW297908  14.461  10.341   0.349
65357SOL     OW97909   0.021   7.238   7.299
65357SOL    HW197910   0.049   7.212   7.211
65357SOL    HW297911   0.081   7.191   7.358
65358SOL     OW97912  13.287   1.106   6.861
65358SOL    HW197913  13.312   1.151   6.780
65358SOL    HW297914  13.275   1.176   6.925
65359SOL     OW97915  14.864  11.681  14.410
65359SOL    HW197916   0.064  11.714  14.447
65359SOL    HW297917  14.798  11.745  14.436
65360SOL     OW97918   7.941   3.961  11.985
65360SOL    HW197919   7.978   4.035  11.938
65360SOL    HW297920   7.940   3.988  12.077
65361SOL     OW97921   7.128   1.085   0.340
65361SOL    HW197922   7.168   1.000   0.362
65361SOL    HW297923   7.151   1.099   0.249
65362SOL     OW97924  14.635   9.074   3.200
65362SOL    HW197925  14.638   9.136   3.127
65362SOL    HW297926  14.693   9.003   3.173
65363SOL     OW97927   4.482   5.656   0.214
65363SOL    HW197928   4.571   5.641   0.247
65363SOL    HW297929   4.463   5.747   0.238
65364SOL     OW97930   8.722  11.742   3.607
65364SOL    HW197931   8.674  11.695   3.676
65364SOL    HW297932   8.655  11.796   3.565
65365SOL     OW97933   9.806  10.561   3.575
65365SOL    HW197934   9.730  10.589   3.626
65365SOL    HW297935   9.870  10.631   3.589
65366SOL     OW97936  10.303  13.539   3.729
65366SOL    HW197937  10.275  13.590   3.805
65366SOL    HW297938  10.389  13.505   3.754
65367SOL     OW97939   9.511  14.873  10.198
65367SOL    HW197940   9.469   0.063  10.152
65367SOL    HW297941   9.582  14.844  10.140
65368SOL     OW97942   0.118   0.377  12.196
65368SOL    HW197943   0.027   0.400  12.215
65368SOL    HW297944   0.133   0.410  12.108
65369SOL     OW97945   5.866   2.196   0.812
65369SOL    HW197946   5.883   2.108   0.845
65369SOL    HW297947   5.932   2.208   0.743
65370SOL     OW97948   6.586  14.254   5.546
65370SOL    HW197949   6.633  14.282   5.624
65370SOL    HW297950   6.546  14.335   5.512
65371SOL     OW97951  12.242   2.002   2.302
65371SOL    HW197952  12.234   1.988   2.396
65371SOL    HW297953  12.258   1.915   2.266
65372SOL     OW97954  14.603  10.935   2.102
65372SOL    HW197955  14.652  11.016   2.118
65372SOL    HW297956  14.587  10.899   2.189
65373SOL     OW97957   5.128   2.630   0.993
65373SOL    HW197958   5.194   2.699   0.995
65373SOL    HW297959   5.064   2.656   1.060
65374SOL     OW97960   1.807   2.679   0.247
65374SOL    HW197961   1.720   2.710   0.274
65374SOL    HW297962   1.857   2.758   0.230
65375SOL     OW97963   5.966   5.926   2.042
65375SOL    HW197964   6.057   5.898   2.049
65375SOL    HW297965   5.970   6.017   2.012
65376SOL     OW97966   4.653   0.742   8.034
65376SOL    HW197967   4.701   0.789   7.966
65376SOL    HW297968   4.561   0.759   8.014
65377SOL     OW97969  10.121   9.307  11.692
65377SOL    HW197970  10.186   9.242  11.717
65377SOL    HW297971  10.163   9.357  11.622
65378SOL     OW97972   3.829   1.368  14.180
65378SOL    HW197973   3.794   1.297  14.235
65378SOL    HW297974   3.784   1.358  14.096
65379SOL     OW97975   3.935   5.707   8.588
65379SOL    HW197976   3.874   5.636   8.571
65379SOL    HW297977   3.922   5.769   8.516
65380SOL     OW97978   7.356  11.141   5.320
65380SOL    HW197979   7.423  11.118   5.256
65380SOL    HW297980   7.339  11.060   5.367
65381SOL     OW97981   2.059   4.418   4.787
65381SOL    HW197982   2.118   4.425   4.712
65381SOL    HW297983   1.973   4.402   4.748
65382SOL     OW97984   4.869   0.455  11.777
65382SOL    HW197985   4.950   0.500  11.753
65382SOL    HW297986   4.854   0.393  11.705
65383SOL     OW97987   6.947   7.028   5.347
65383SOL    HW197988   6.997   7.098   5.306
65383SOL    HW297989   7.005   6.952   5.345
65384SOL     OW97990  13.842  14.124  12.122
65384SOL    HW197991  13.778  14.083  12.065
65384SOL    HW297992  13.870  14.054  12.182
65385SOL     OW97993   7.443   6.190  12.742
65385SOL    HW197994   7.384   6.235  12.683
65385SOL    HW297995   7.479   6.259  12.798
65386SOL     OW97996   3.515   1.208   2.276
65386SOL    HW197997   3.544   1.219   2.186
65386SOL    HW297998   3.595   1.214   2.328
65387SOL     OW97999  10.825   9.949   9.356
65387SOL    HW198000  10.875   9.995   9.424
65387SOL    HW298001  10.740   9.933   9.396
65388SOL     OW98002  10.179   2.242  12.604
65388SOL    HW198003  10.200   2.328  12.566
65388SOL    HW298004  10.109   2.208  12.548
65389SOL     OW98005  13.730   2.004   7.814
65389SOL    HW198006  13.754   2.082   7.865
65389SOL    HW298007  13.638   2.018   7.792
65390SOL     OW98008   0.361  11.399   8.588
65390SOL    HW198009   0.285  11.443   8.551
65390SOL    HW298010   0.436  11.444   8.550
65391SOL     OW98011   8.395   5.889  10.192
65391SOL    HW198012   8.379   5.965  10.136
65391SOL    HW298013   8.387   5.924  10.281
65392SOL     OW98014   6.672   7.619   4.938
65392SOL    HW198015   6.590   7.632   4.986
65392SOL    HW298016   6.737   7.669   4.987
65393SOL     OW98017   8.044  12.601   6.563
65393SOL    HW198018   7.971  12.648   6.524
65393SOL    HW298019   8.069  12.654   6.639
65394SOL     OW98020   8.826  12.937   8.543
65394SOL    HW198021   8.874  12.943   8.625
65394SOL    HW298022   8.805  13.027   8.521
65395SOL     OW98023   3.224   2.700   2.038
65395SOL    HW198024   3.162   2.725   2.106
65395SOL    HW298025   3.263   2.618   2.068
65396SOL     OW98026   1.013  13.111   0.230
65396SOL    HW198027   1.072  13.186   0.219
65396SOL    HW298028   0.947  13.142   0.292
65397SOL     OW98029   9.327  13.064   4.217
65397SOL    HW198030   9.386  13.067   4.293
65397SOL    HW298031   9.364  12.996   4.161
65398SOL     OW98032   2.269  10.322   5.115
65398SOL    HW198033   2.280  10.373   5.195
65398SOL    HW298034   2.186  10.353   5.078
65399SOL     OW98035   0.457   7.542   6.882
65399SOL    HW198036   0.366   7.515   6.887
65399SOL    HW298037   0.486   7.547   6.974
65400SOL     OW98038   0.997   0.236   1.319
65400SOL    HW198039   1.011   0.172   1.250
65400SOL    HW298040   0.961   0.186   1.392
65401SOL     OW98041   5.269  12.862  11.509
65401SOL    HW198042   5.235  12.946  11.538
65401SOL    HW298043   5.269  12.869  11.413
65402SOL     OW98044   1.883   5.025   7.119
65402SOL    HW198045   1.910   5.028   7.211
65402SOL    HW298046   1.950   4.973   7.076
65403SOL     OW98047   6.889  10.045  14.092
65403SOL    HW198048   6.865   9.953  14.090
65403SOL    HW298049   6.938  10.059  14.010
65404SOL     OW98050   1.657   9.866  12.543
65404SOL    HW198051   1.670   9.923  12.619
65404SOL    HW298052   1.657   9.777  12.580
65405SOL     OW98053   1.362   2.515   8.991
65405SOL    HW198054   1.339   2.506   9.083
65405SOL    HW298055   1.318   2.595   8.963
65406SOL     OW98056   9.469  11.336   9.192
65406SOL    HW198057   9.489  11.312   9.102
65406SOL    HW298058   9.468  11.432   9.192
65407SOL     OW98059   5.563  10.194  10.557
65407SOL    HW198060   5.529  10.145  10.632
65407SOL    HW298061   5.492  10.253  10.532
65408SOL     OW98062  14.731   5.109  11.208
65408SOL    HW198063  14.732   5.035  11.146
65408SOL    HW298064  14.797   5.086  11.273
65409SOL     OW98065  12.313  14.151   7.233
65409SOL    HW198066  12.257  14.187   7.301
65409SOL    HW298067  12.399  14.191   7.250
65410SOL     OW98068   4.806   5.238   6.968
65410SOL    HW198069   4.891   5.267   6.999
65410SOL    HW298070   4.803   5.267   6.877
65411SOL     OW98071   0.780  10.443   0.905
65411SOL    HW198072   0.782  10.381   0.978
65411SOL    HW298073   0.836  10.515   0.933
65412SOL     OW98074   9.771   0.197  14.182
65412SOL    HW198075   9.805   0.228  14.099
65412SOL    HW298076   9.676   0.203  14.173
65413SOL     OW98077   2.582  10.623  11.203
65413SOL    HW198078   2.488  10.608  11.209
65413SOL    HW298079   2.620  10.535  11.201
65414SOL     OW98080   1.745   9.412   5.097
65414SOL    HW198081   1.800   9.347   5.053
65414SOL    HW298082   1.676   9.432   5.034
65415SOL     OW98083   4.402   0.540   8.156
65415SOL    HW198084   4.419   0.561   8.064
65415SOL    HW298085   4.315   0.576   8.174
65416SOL     OW98086   5.610   0.462   2.788
65416SOL    HW198087   5.654   0.464   2.873
65416SOL    HW298088   5.525   0.502   2.805
65417SOL     OW98089   8.107  14.350   8.886
65417SOL    HW198090   8.159  14.285   8.837
65417SOL    HW298091   8.016  14.327   8.867
65418SOL     OW98092  11.875   3.755   3.332
65418SOL    HW198093  11.953   3.699   3.339
65418SOL    HW298094  11.888   3.822   3.399
65419SOL     OW98095  13.283   7.463   6.598
65419SOL    HW198096  13.192   7.462   6.630
65419SOL    HW298097  13.329   7.518   6.662
65420SOL     OW98098   9.062  13.913   3.275
65420SOL    HW198099   9.108  13.935   3.356
65420SOL    HW298100   9.007  13.838   3.299
65421SOL     OW98101   3.628   3.672   0.704
65421SOL    HW198102   3.670   3.635   0.781
65421SOL    HW298103   3.600   3.596   0.653
65422SOL     OW98104  10.510   2.322   7.409
65422SOL    HW198105  10.502   2.401   7.463
65422SOL    HW298106  10.590   2.335   7.358
65423SOL     OW98107  11.915   8.698   2.778
65423SOL    HW198108  11.899   8.647   2.699
65423SOL    HW298109  11.976   8.767   2.750
65424SOL     OW98110  11.122  14.032  13.638
65424SOL    HW198111  11.210  14.007  13.609
65424SOL    HW298112  11.120  14.010  13.731
65425SOL     OW98113   8.056  12.602   0.432
65425SOL    HW198114   7.989  12.655   0.388
65425SOL    HW298115   8.068  12.526   0.375
65426SOL     OW98116   9.504   0.309   8.733
65426SOL    HW198117   9.549   0.231   8.765
65426SOL    HW298118   9.465   0.281   8.650
65427SOL     OW98119   9.164   9.769   2.671
65427SOL    HW198120   9.106   9.704   2.709
65427SOL    HW298121   9.114   9.807   2.599
65428SOL     OW98122   1.151   9.606   0.205
65428SOL    HW198123   1.246   9.598   0.197
65428SOL    HW298124   1.132   9.695   0.176
65429SOL     OW98125  12.554  11.094   2.393
65429SOL    HW198126  12.484  11.119   2.453
65429SOL    HW298127  12.559  10.999   2.400
65430SOL     OW98128   2.908   1.341  13.716
65430SOL    HW198129   2.838   1.287  13.751
65430SOL    HW298130   2.970   1.349  13.789
65431SOL     OW98131   2.715   3.173   8.105
65431SOL    HW198132   2.737   3.227   8.030
65431SOL    HW298133   2.669   3.232   8.165
65432SOL     OW98134   4.792   0.849  14.436
65432SOL    HW198135   4.880   0.886  14.447
65432SOL    HW298136   4.792   0.770  14.491
65433SOL     OW98137   8.173   9.524   9.967
65433SOL    HW198138   8.210   9.569  10.043
65433SOL    HW298139   8.239   9.458   9.944
65434SOL     OW98140   3.371  12.898   5.890
65434SOL    HW198141   3.297  12.926   5.943
65434SOL    HW298142   3.448  12.927   5.940
65435SOL     OW98143  10.217   9.489  13.761
65435SOL    HW198144  10.187   9.487  13.670
65435SOL    HW298145  10.309   9.514  13.756
65436SOL     OW98146   4.234   8.455  12.158
65436SOL    HW198147   4.147   8.440  12.195
65436SOL    HW298148   4.229   8.543  12.120
65437SOL     OW98149  14.029   4.846  12.408
65437SOL    HW198150  14.123   4.851  12.392
65437SOL    HW298151  14.021   4.804  12.493
65438SOL     OW98152  13.164   7.821   4.876
65438SOL    HW198153  13.108   7.745   4.890
65438SOL    HW298154  13.105   7.896   4.876
65439SOL     OW98155   7.983  10.652   4.378
65439SOL    HW198156   8.006  10.743   4.392
65439SOL    HW298157   8.025  10.604   4.449
65440SOL     OW98158   2.266   4.954   9.950
65440SOL    HW198159   2.178   4.985   9.930
65440SOL    HW298160   2.280   4.881   9.890
65441SOL     OW98161   6.038  14.342   3.551
65441SOL    HW198162   6.072  14.431   3.562
65441SOL    HW298163   6.094  14.303   3.485
65442SOL     OW98164  14.746   7.735  14.417
65442SOL    HW198165  14.731   7.721  14.323
65442SOL    HW298166  14.659   7.750  14.453
65443SOL     OW98167  11.249  10.034  13.787
65443SOL    HW198168  11.310   9.963  13.766
65443SOL    HW298169  11.198  10.001  13.861
65444SOL     OW98170   9.287   2.899   8.524
65444SOL    HW198171   9.228   2.909   8.599
65444SOL    HW298172   9.303   2.988   8.494
65445SOL     OW98173   2.578   9.918   0.747
65445SOL    HW198174   2.660   9.907   0.700
65445SOL    HW298175   2.598   9.897   0.838
65446SOL     OW98176  12.174   1.759  11.908
65446SOL    HW198177  12.083   1.773  11.934
65446SOL    HW298178  12.223   1.823  11.959
65447SOL     OW98179   8.333  12.801   7.929
65447SOL    HW198180   8.241  12.775   7.942
65447SOL    HW298181   8.334  12.844   7.844
65448SOL     OW98182  12.921   4.508   0.535
65448SOL    HW198183  12.964   4.593   0.528
65448SOL    HW298184  12.990   4.448   0.564
65449SOL     OW98185   9.093   4.029  10.763
65449SOL    HW198186   9.007   4.056  10.732
65449SOL    HW298187   9.087   3.933  10.768
65450SOL     OW98188   2.357  12.137   3.897
65450SOL    HW198189   2.358  12.096   3.810
65450SOL    HW298190   2.347  12.064   3.958
65451SOL     OW98191  14.035   6.584   0.844
65451SOL    HW198192  13.955   6.566   0.893
65451SOL    HW298193  14.102   6.533   0.890
65452SOL     OW98194   1.620   7.982   1.247
65452SOL    HW198195   1.535   8.019   1.222
65452SOL    HW298196   1.626   7.899   1.199
65453SOL     OW98197   7.352  10.941  10.282
65453SOL    HW198198   7.405  10.862  10.279
65453SOL    HW298199   7.401  11.006  10.232
65454SOL     OW98200  12.645   0.758   4.550
65454SOL    HW198201  12.639   0.816   4.474
65454SOL    HW298202  12.713   0.798   4.605
65455SOL     OW98203   5.221  10.072   2.630
65455SOL    HW198204   5.301  10.064   2.579
65455SOL    HW298205   5.243  10.134   2.700
65456SOL     OW98206  10.225  11.206   8.432
65456SOL    HW198207  10.173  11.126   8.442
65456SOL    HW298208  10.211  11.234   8.342
65457SOL     OW98209   2.813   2.790   2.664
65457SOL    HW198210   2.753   2.856   2.699
65457SOL    HW298211   2.756   2.715   2.645
65458SOL     OW98212   0.715   0.565  13.511
65458SOL    HW198213   0.669   0.621  13.448
65458SOL    HW298214   0.807   0.586  13.499
65459SOL     OW98215   9.892   3.561  14.538
65459SOL    HW198216   9.940   3.611  14.603
65459SOL    HW298217   9.817   3.524  14.586
65460SOL     OW98218   3.787   7.910  12.315
65460SOL    HW198219   3.844   7.835  12.297
65460SOL    HW298220   3.825   7.951  12.393
65461SOL     OW98221   8.371  12.577  13.936
65461SOL    HW198222   8.410  12.664  13.938
65461SOL    HW298223   8.387  12.541  14.023
65462SOL     OW98224   2.213   9.726   1.162
65462SOL    HW198225   2.139   9.748   1.219
65462SOL    HW298226   2.234   9.635   1.184
65463SOL     OW98227   7.141   0.462   9.564
65463SOL    HW198228   7.161   0.481   9.656
65463SOL    HW298229   7.221   0.421   9.531
65464SOL     OW98230  10.803   0.002  12.034
65464SOL    HW198231  10.730   0.058  12.060
65464SOL    HW298232  10.762  14.798  12.019
65465SOL     OW98233  11.335   7.340  12.870
65465SOL    HW198234  11.339   7.432  12.896
65465SOL    HW298235  11.371   7.292  12.945
65466SOL     OW98236   2.414  11.006  10.552
65466SOL    HW198237   2.479  11.046  10.610
65466SOL    HW298238   2.465  10.970  10.480
65467SOL     OW98239   6.048   3.227   0.484
65467SOL    HW198240   6.079   3.206   0.396
65467SOL    HW298241   6.092   3.163   0.541
65468SOL     OW98242   8.032   5.784   1.347
65468SOL    HW198243   7.982   5.703   1.352
65468SOL    HW298244   8.115   5.758   1.306
65469SOL     OW98245   7.878  13.693   7.789
65469SOL    HW198246   7.846  13.720   7.875
65469SOL    HW298247   7.919  13.608   7.805
65470SOL     OW98248   8.637   6.990  11.347
65470SOL    HW198249   8.625   6.966  11.438
65470SOL    HW298250   8.725   7.027  11.343
65471SOL     OW98251   5.019   2.320   1.843
65471SOL    HW198252   5.082   2.273   1.897
65471SOL    HW298253   5.049   2.411   1.844
65472SOL     OW98254   2.726  10.126  14.355
65472SOL    HW198255   2.683  10.186  14.416
65472SOL    HW298256   2.671  10.047  14.356
65473SOL     OW98257  11.609   2.543   1.260
65473SOL    HW198258  11.668   2.590   1.319
65473SOL    HW298259  11.582   2.608   1.195
65474SOL     OW98260   8.863   8.808   1.705
65474SOL    HW198261   8.828   8.839   1.788
65474SOL    HW298262   8.874   8.887   1.652
65475SOL     OW98263  13.625   1.616   9.835
65475SOL    HW198264  13.713   1.578   9.833
65475SOL    HW298265  13.588   1.588   9.918
65476SOL     OW98266   0.369   0.957  14.204
65476SOL    HW198267   0.279   0.948  14.235
65476SOL    HW298268   0.373   0.901  14.127
65477SOL     OW98269   7.067   7.406   4.446
65477SOL    HW198270   7.010   7.449   4.510
65477SOL    HW298271   7.155   7.439   4.467
65478SOL     OW98272   9.055   8.487   3.845
65478SOL    HW198273   9.008   8.406   3.826
65478SOL    HW298274   9.011   8.553   3.792
65479SOL     OW98275  13.095   2.522   7.883
65479SOL    HW198276  13.054   2.494   7.802
65479SOL    HW298277  13.034   2.585   7.921
65480SOL     OW98278  13.552  13.014   4.628
65480SOL    HW198279  13.482  13.049   4.683
65480SOL    HW298280  13.525  12.924   4.609
65481SOL     OW98281  11.031   4.574  14.808
65481SOL    HW198282  11.062   4.581   0.016
65481SOL    HW298283  10.964   4.641  14.800
65482SOL     OW98284   0.443   0.729   9.712
65482SOL    HW198285   0.525   0.690   9.741
65482SOL    HW298286   0.378   0.697   9.775
65483SOL     OW98287  10.839  14.065   0.547
65483SOL    HW198288  10.891  14.053   0.468
65483SOL    HW298289  10.848  14.158   0.568
65484SOL     OW98290  10.448   6.203   4.440
65484SOL    HW198291  10.389   6.201   4.515
65484SOL    HW298292  10.398   6.247   4.371
65485SOL     OW98293   9.463   3.270   5.756
65485SOL    HW198294   9.370   3.246   5.759
65485SOL    HW298295   9.491   3.269   5.848
65486SOL     OW98296  11.246   6.124   6.133
65486SOL    HW198297  11.177   6.188   6.149
65486SOL    HW298298  11.210   6.042   6.167
65487SOL     OW98299  11.932   7.381   5.077
65487SOL    HW198300  11.924   7.458   5.133
65487SOL    HW298301  11.881   7.313   5.122
65488SOL     OW98302   3.868   1.845   3.386
65488SOL    HW198303   3.799   1.880   3.329
65488SOL    HW298304   3.825   1.834   3.471
65489SOL     OW98305   4.740   7.918  14.626
65489SOL    HW198306   4.722   8.011  14.641
65489SOL    HW298307   4.707   7.901  14.538
65490SOL     OW98308   9.185  11.774   2.605
65490SOL    HW198309   9.100  11.731   2.610
65490SOL    HW298310   9.248  11.702   2.593
65491SOL     OW98311  13.117   5.351   6.753
65491SOL    HW198312  13.065   5.291   6.806
65491SOL    HW298313  13.054   5.390   6.693
65492SOL     OW98314  13.445   8.242   1.026
65492SOL    HW198315  13.422   8.334   1.044
65492SOL    HW298316  13.540   8.241   1.023
65493SOL     OW98317  10.252   8.069   0.512
65493SOL    HW198318  10.201   8.020   0.576
65493SOL    HW298319  10.300   8.133   0.563
65494SOL     OW98320  13.653   6.680  13.859
65494SOL    HW198321  13.568   6.723  13.849
65494SOL    HW298322  13.632   6.591  13.888
65495SOL     OW98323  12.795   8.041   4.659
65495SOL    HW198324  12.742   7.971   4.697
65495SOL    HW298325  12.857   7.995   4.601
65496SOL     OW98326   6.326  11.927   2.335
65496SOL    HW198327   6.321  11.994   2.403
65496SOL    HW298328   6.248  11.873   2.349
65497SOL     OW98329  14.425  10.897   1.841
65497SOL    HW198330  14.418  10.843   1.762
65497SOL    HW298331  14.485  10.849   1.897
65498SOL     OW98332  11.397   7.380   8.074
65498SOL    HW198333  11.490   7.362   8.065
65498SOL    HW298334  11.354   7.316   8.017
65499SOL     OW98335   1.660   1.539   1.413
65499SOL    HW198336   1.660   1.527   1.508
65499SOL    HW298337   1.631   1.629   1.400
65500SOL     OW98338   9.437   9.233   2.672
65500SOL    HW198339   9.483   9.191   2.746
65500SOL    HW298340   9.498   9.299   2.641
65501SOL     OW98341   6.574   6.725   4.634
65501SOL    HW198342   6.518   6.750   4.560
65501SOL    HW298343   6.558   6.792   4.700
65502SOL     OW98344   3.873   1.669   0.007
65502SOL    HW198345   3.959   1.699   0.035
65502SOL    HW298346   3.832   1.746  14.850
65503SOL     OW98347   8.410  11.189  10.082
65503SOL    HW198348   8.474  11.159  10.017
65503SOL    HW298349   8.366  11.263  10.039
65504SOL     OW98350   8.145  10.703   1.000
65504SOL    HW198351   8.103  10.695   1.085
65504SOL    HW298352   8.118  10.789   0.968
65505SOL     OW98353   6.839   3.662   4.027
65505SOL    HW198354   6.783   3.624   4.095
65505SOL    HW298355   6.844   3.595   3.959
65506SOL     OW98356  14.177   9.893   8.947
65506SOL    HW198357  14.097   9.853   8.913
65506SOL    HW298358  14.211   9.829   9.009
65507SOL     OW98359   8.562  11.080   0.831
65507SOL    HW198360   8.466  11.083   0.826
65507SOL    HW298361   8.582  10.989   0.856
65508SOL     OW98362   6.747   0.400   7.983
65508SOL    HW198363   6.692   0.391   7.905
65508SOL    HW298364   6.802   0.322   7.983
65509SOL     OW98365  13.562   3.291  11.895
65509SOL    HW198366  13.636   3.278  11.954
65509SOL    HW298367  13.599   3.339  11.821
65510SOL     OW98368   4.745   2.478   1.227
65510SOL    HW198369   4.664   2.522   1.254
65510SOL    HW298370   4.750   2.401   1.283
65511SOL     OW98371  12.288   0.559   1.071
65511SOL    HW198372  12.282   0.574   1.165
65511SOL    HW298373  12.375   0.522   1.058
65512SOL     OW98374   8.654   8.381   9.420
65512SOL    HW198375   8.593   8.377   9.494
65512SOL    HW298376   8.729   8.431   9.453
65513SOL     OW98377   6.843   7.788   2.963
65513SOL    HW198378   6.820   7.753   2.877
65513SOL    HW298379   6.787   7.741   3.024
65514SOL     OW98380  12.512   1.807   2.337
65514SOL    HW198381  12.512   1.757   2.419
65514SOL    HW298382  12.428   1.785   2.296
65515SOL     OW98383  14.682   4.676   0.029
65515SOL    HW198384  14.723   4.614  14.850
65515SOL    HW298385  14.689   4.760  14.866
65516SOL     OW98386  13.053  14.388  12.631
65516SOL    HW198387  13.063  14.322  12.562
65516SOL    HW298388  13.083  14.343  12.710
65517SOL     OW98389  10.916  12.347   8.544
65517SOL    HW198390  10.943  12.357   8.453
65517SOL    HW298391  10.941  12.257   8.566
65518SOL     OW98392  13.622   4.479   7.952
65518SOL    HW198393  13.702   4.531   7.952
65518SOL    HW298394  13.555   4.538   7.917
65519SOL     OW98395   1.118   4.793   2.441
65519SOL    HW198396   1.188   4.816   2.503
65519SOL    HW298397   1.038   4.796   2.493
65520SOL     OW98398  11.088   9.566   2.851
65520SOL    HW198399  11.083   9.548   2.945
65520SOL    HW298400  11.176   9.601   2.837
65521SOL     OW98401   2.496  10.199   7.059
65521SOL    HW198402   2.520  10.162   7.144
65521SOL    HW298403   2.558  10.160   6.997
65522SOL     OW98404  10.000   9.009   7.358
65522SOL    HW198405  10.073   9.055   7.400
65522SOL    HW298406   9.931   9.075   7.352
65523SOL     OW98407  12.554   6.975   5.744
65523SOL    HW198408  12.639   6.985   5.702
65523SOL    HW298409  12.574   6.941   5.831
65524SOL     OW98410  10.176  14.533   1.328
65524SOL    HW198411  10.216  14.464   1.274
65524SOL    HW298412  10.246  14.562   1.386
65525SOL     OW98413   9.664   8.862   0.588
65525SOL    HW198414   9.669   8.955   0.565
65525SOL    HW298415   9.669   8.816   0.504
65526SOL     OW98416   8.610   3.289   5.731
65526SOL    HW198417   8.538   3.248   5.684
65526SOL    HW298418   8.597   3.264   5.823
65527SOL     OW98419  10.963  11.393  14.295
65527SOL    HW198420  10.963  11.400  14.200
65527SOL    HW298421  11.053  11.370  14.317
65528SOL     OW98422  13.010   2.728  10.012
65528SOL    HW198423  12.981   2.777   9.935
65528SOL    HW298424  12.945   2.659  10.022
65529SOL     OW98425   6.102  10.621   3.069
65529SOL    HW198426   6.011  10.590   3.074
65529SOL    HW298427   6.119  10.660   3.155
65530SOL     OW98428   9.081   5.131   5.345
65530SOL    HW198429   9.019   5.177   5.402
65530SOL    HW298430   9.080   5.040   5.376
65531SOL     OW98431  13.723   6.343   4.879
65531SOL    HW198432  13.673   6.358   4.959
65531SOL    HW298433  13.809   6.314   4.910
65532SOL     OW98434  11.455  13.279   6.801
65532SOL    HW198435  11.452  13.186   6.821
65532SOL    HW298436  11.376  13.315   6.842
65533SOL     OW98437   9.182   2.806   3.707
65533SOL    HW198438   9.165   2.860   3.629
65533SOL    HW298439   9.265   2.762   3.688
65534SOL     OW98440   9.654   8.608   6.509
65534SOL    HW198441   9.564   8.631   6.532
65534SOL    HW298442   9.660   8.514   6.526
65535SOL     OW98443   6.281   8.224   1.528
65535SOL    HW198444   6.256   8.187   1.612
65535SOL    HW298445   6.279   8.149   1.468
65536SOL     OW98446   5.246  12.346   5.563
65536SOL    HW198447   5.269  12.348   5.656
65536SOL    HW298448   5.318  12.297   5.522
65537SOL     OW98449  12.035   0.121   5.948
65537SOL    HW198450  11.940   0.109   5.955
65537SOL    HW298451  12.062   0.059   5.880
65538SOL     OW98452  12.140  13.449   5.852
65538SOL    HW198453  12.114  13.539   5.872
65538SOL    HW298454  12.108  13.398   5.926
65539SOL     OW98455  10.072  12.860  12.518
65539SOL    HW198456  10.139  12.801  12.484
65539SOL    HW298457  10.090  12.944  12.476
65540SOL     OW98458   8.135   1.872   8.892
65540SOL    HW198459   8.071   1.899   8.958
65540SOL    HW298460   8.135   1.945   8.829
65541SOL     OW98461   8.189   7.184   1.952
65541SOL    HW198462   8.253   7.202   1.883
65541SOL    HW298463   8.156   7.096   1.931
65542SOL     OW98464  11.311   9.949   8.486
65542SOL    HW198465  11.359  10.016   8.534
65542SOL    HW298466  11.270   9.895   8.553
65543SOL     OW98467   6.591  11.358  14.403
65543SOL    HW198468   6.598  11.270  14.366
65543SOL    HW298469   6.499  11.367  14.427
65544SOL     OW98470   6.949   0.124   0.574
65544SOL    HW198471   6.871   0.127   0.630
65544SOL    HW298472   6.932   0.052   0.513
65545SOL     OW98473   0.527  13.353  11.910
65545SOL    HW198474   0.609  13.335  11.955
65545SOL    HW298475   0.550  13.357  11.818
65546SOL     OW98476  13.483  14.269   4.514
65546SOL    HW198477  13.426  14.214   4.460
65546SOL    HW298478  13.457  14.251   4.604
65547SOL     OW98479   8.134  13.704  11.706
65547SOL    HW198480   8.175  13.786  11.733
65547SOL    HW298481   8.072  13.728  11.637
65548SOL     OW98482   3.992   3.348  14.549
65548SOL    HW198483   4.030   3.373  14.634
65548SOL    HW298484   3.967   3.256  14.560
65549SOL     OW98485   3.395  12.088   4.793
65549SOL    HW198486   3.344  12.007   4.780
65549SOL    HW298487   3.335  12.147   4.838
65550SOL     OW98488   4.256   5.555  11.447
65550SOL    HW198489   4.236   5.550  11.540
65550SOL    HW298490   4.178   5.519  11.404
65551SOL     OW98491   3.522   6.025  13.507
65551SOL    HW198492   3.575   5.946  13.495
65551SOL    HW298493   3.585   6.092  13.532
65552SOL     OW98494   7.660  10.906  13.341
65552SOL    HW198495   7.719  10.844  13.297
65552SOL    HW298496   7.607  10.943  13.270
65553SOL     OW98497   4.328  11.977   3.013
65553SOL    HW198498   4.398  11.917   3.038
65553SOL    HW298499   4.277  11.990   3.093
65554SOL     OW98500  10.067  14.138   2.116
65554SOL    HW198501   9.982  14.095   2.109
65554SOL    HW298502  10.061  14.190   2.196
65555SOL     OW98503   2.359   2.603   9.912
65555SOL    HW198504   2.283   2.639   9.867
65555SOL    HW298505   2.360   2.647   9.997
65556SOL     OW98506   1.850  10.044  11.298
65556SOL    HW198507   1.849  10.126  11.249
65556SOL    HW298508   1.766  10.003  11.279
65557SOL     OW98509  11.161   6.861   0.822
65557SOL    HW198510  11.157   6.771   0.853
65557SOL    HW298511  11.079   6.901   0.852
65558SOL     OW98512   1.444   5.932   6.486
65558SOL    HW198513   1.455   6.027   6.495
65558SOL    HW298514   1.468   5.897   6.571
65559SOL     OW98515  13.003  12.984   1.466
65559SOL    HW198516  12.999  12.967   1.372
65559SOL    HW298517  13.023  13.077   1.472
65560SOL     OW98518  11.757   9.543   7.582
65560SOL    HW198519  11.815   9.467   7.578
65560SOL    HW298520  11.792   9.603   7.516
65561SOL     OW98521   6.298  13.892   9.323
65561SOL    HW198522   6.302  13.917   9.415
65561SOL    HW298523   6.370  13.830   9.312
65562SOL     OW98524  12.080   8.684   8.570
65562SOL    HW198525  12.069   8.664   8.663
65562SOL    HW298526  12.080   8.598   8.527
65563SOL     OW98527  11.541   1.051  14.563
65563SOL    HW198528  11.445   1.043  14.569
65563SOL    HW298529  11.556   1.085  14.474
65564SOL     OW98530  11.743  12.486   7.907
65564SOL    HW198531  11.656  12.487   7.868
65564SOL    HW298532  11.733  12.537   7.988
65565SOL     OW98533   0.826   0.276  14.233
65565SOL    HW198534   0.765   0.203  14.224
65565SOL    HW298535   0.871   0.279  14.148
65566SOL     OW98536  14.739  13.937   1.103
65566SOL    HW198537  14.647  13.962   1.106
65566SOL    HW298538  14.748  13.887   1.022
65567SOL     OW98539   2.203   4.898   2.415
65567SOL    HW198540   2.122   4.862   2.378
65567SOL    HW298541   2.188   4.898   2.509
65568SOL     OW98542  10.326   2.098   5.466
65568SOL    HW198543  10.236   2.103   5.498
65568SOL    HW298544  10.317   2.081   5.372
65569SOL     OW98545   9.339  12.186  11.271
65569SOL    HW198546   9.369  12.276  11.287
65569SOL    HW298547   9.245  12.196  11.254
65570SOL     OW98548   2.961  14.748   9.474
65570SOL    HW198549   2.946  14.678   9.411
65570SOL    HW298550   3.048  14.782   9.453
65571SOL     OW98551   2.433  10.701   0.391
65571SOL    HW198552   2.495  10.670   0.457
65571SOL    HW298553   2.356  10.727   0.442
65572SOL     OW98554  13.931   4.804   6.046
65572SOL    HW198555  13.943   4.758   6.129
65572SOL    HW298556  13.846   4.775   6.014
65573SOL     OW98557   5.889  11.067   3.256
65573SOL    HW198558   5.929  11.110   3.331
65573SOL    HW298559   5.962  11.051   3.196
65574SOL     OW98560  10.038   7.395   1.176
65574SOL    HW198561  10.040   7.366   1.085
65574SOL    HW298562  10.127   7.381   1.207
65575SOL     OW98563   7.780   0.720   7.661
65575SOL    HW198564   7.756   0.812   7.650
65575SOL    HW298565   7.836   0.701   7.586
65576SOL     OW98566  14.033  12.830   5.050
65576SOL    HW198567  13.950  12.868   5.079
65576SOL    HW298568  14.100  12.886   5.089
65577SOL     OW98569   8.087   2.790   3.015
65577SOL    HW198570   8.008   2.759   2.971
65577SOL    HW298571   8.129   2.847   2.951
65578SOL     OW98572  13.778   5.796   8.636
65578SOL    HW198573  13.707   5.736   8.658
65578SOL    HW298574  13.853   5.740   8.619
65579SOL     OW98575   6.118   5.560   9.069
65579SOL    HW198576   6.118   5.482   9.013
65579SOL    HW298577   6.026   5.578   9.086
65580SOL     OW98578   0.384   9.776   8.407
65580SOL    HW198579   0.306   9.817   8.445
65580SOL    HW298580   0.457   9.813   8.456
65581SOL     OW98581   4.378   5.889   5.007
65581SOL    HW198582   4.359   5.981   5.022
65581SOL    HW298583   4.468   5.888   4.974
65582SOL     OW98584  11.167   2.243   5.820
65582SOL    HW198585  11.127   2.270   5.738
65582SOL    HW298586  11.142   2.310   5.883
65583SOL     OW98587   9.862   6.318   1.548
65583SOL    HW198588   9.883   6.365   1.628
65583SOL    HW298589   9.772   6.341   1.529
65584SOL     OW98590   7.111   1.732   1.389
65584SOL    HW198591   7.070   1.654   1.428
65584SOL    HW298592   7.075   1.805   1.440
65585SOL     OW98593   3.268   3.195   0.893
65585SOL    HW198594   3.330   3.122   0.896
65585SOL    HW298595   3.184   3.156   0.918
65586SOL     OW98596   7.669   2.640  10.542
65586SOL    HW198597   7.736   2.663  10.607
65586SOL    HW298598   7.586   2.664  10.582
65587SOL     OW98599   3.493  12.128   3.231
65587SOL    HW198600   3.568  12.187   3.230
65587SOL    HW298601   3.423  12.179   3.190
65588SOL     OW98602   4.971   4.060   7.751
65588SOL    HW198603   5.061   4.035   7.732
65588SOL    HW298604   4.975   4.154   7.767
65589SOL     OW98605  14.624  12.097  11.826
65589SOL    HW198606  14.685  12.037  11.869
65589SOL    HW298607  14.543  12.088  11.875
65590SOL     OW98608  14.347   3.337  12.482
65590SOL    HW198609  14.398   3.377  12.411
65590SOL    HW298610  14.403   3.267  12.514
65591SOL     OW98611  11.148   6.110   8.047
65591SOL    HW198612  11.140   6.205   8.049
65591SOL    HW298613  11.202   6.088   8.123
65592SOL     OW98614  10.132   8.956  14.648
65592SOL    HW198615  10.201   8.891  14.650
65592SOL    HW298616  10.067   8.924  14.710
65593SOL     OW98617  10.587   6.835   1.864
65593SOL    HW198618  10.595   6.915   1.812
65593SOL    HW298619  10.549   6.771   1.804
65594SOL     OW98620   5.330   3.173   6.210
65594SOL    HW198621   5.239   3.200   6.226
65594SOL    HW298622   5.358   3.133   6.293
65595SOL     OW98623  12.021   8.530   9.826
65595SOL    HW198624  11.984   8.556   9.910
65595SOL    HW298625  11.960   8.464   9.792
65596SOL     OW98626   2.631   7.078   9.592
65596SOL    HW198627   2.655   7.163   9.554
65596SOL    HW298628   2.701   7.019   9.564
65597SOL     OW98629  14.658  10.377  10.489
65597SOL    HW198630  14.641  10.389  10.582
65597SOL    HW298631  14.647  10.283  10.474
65598SOL     OW98632   7.807   9.411   9.755
65598SOL    HW198633   7.831   9.435   9.665
65598SOL    HW298634   7.837   9.485   9.808
65599SOL     OW98635  14.041  13.822  13.331
65599SOL    HW198636  13.949  13.827  13.305
65599SOL    HW298637  14.088  13.809  13.249
65600SOL     OW98638   9.851  13.839   0.553
65600SOL    HW198639   9.914  13.882   0.494
65600SOL    HW298640   9.821  13.909   0.610
65601SOL     OW98641  10.579  14.157  14.396
65601SOL    HW198642  10.564  14.233  14.452
65601SOL    HW298643  10.572  14.190  14.307
65602SOL     OW98644  11.762  10.136   0.156
65602SOL    HW198645  11.837  10.087   0.123
65602SOL    HW298646  11.801  10.205   0.210
65603SOL     OW98647   4.529   3.853   9.810
65603SOL    HW198648   4.529   3.808   9.726
65603SOL    HW298649   4.607   3.821   9.855
65604SOL     OW98650   4.638  12.928  12.875
65604SOL    HW198651   4.551  12.959  12.849
65604SOL    HW298652   4.621  12.867  12.947
65605SOL     OW98653   6.178  12.374  13.428
65605SOL    HW198654   6.170  12.343  13.338
65605SOL    HW298655   6.228  12.306  13.473
65606SOL     OW98656   5.463   7.599  13.310
65606SOL    HW198657   5.399   7.542  13.353
65606SOL    HW298658   5.476   7.558  13.225
65607SOL     OW98659   7.750   7.394   2.899
65607SOL    HW198660   7.734   7.397   2.993
65607SOL    HW298661   7.841   7.367   2.891
65608SOL     OW98662  11.133  14.220   5.700
65608SOL    HW198663  11.205  14.261   5.654
65608SOL    HW298664  11.064  14.209   5.634
65609SOL     OW98665  12.088   7.159  11.420
65609SOL    HW198666  12.081   7.188  11.511
65609SOL    HW298667  12.028   7.215  11.372
65610SOL     OW98668   7.281  12.138  11.430
65610SOL    HW198669   7.369  12.162  11.460
65610SOL    HW298670   7.262  12.057  11.477
65611SOL     OW98671   0.109   0.595  10.570
65611SOL    HW198672   0.102   0.682  10.608
65611SOL    HW298673   0.198   0.567  10.589
65612SOL     OW98674  14.159   5.343   2.740
65612SOL    HW198675  14.068   5.322   2.758
65612SOL    HW298676  14.185   5.280   2.672
65613SOL     OW98677  10.458   7.931   9.958
65613SOL    HW198678  10.437   7.843   9.990
65613SOL    HW298679  10.509   7.916   9.879
65614SOL     OW98680  13.785  14.247   7.235
65614SOL    HW198681  13.831  14.240   7.151
65614SOL    HW298682  13.694  14.265   7.211
65615SOL     OW98683  12.692   7.216  10.949
65615SOL    HW198684  12.771   7.163  10.941
65615SOL    HW298685  12.669   7.212  11.042
65616SOL     OW98686   1.939   5.069   3.230
65616SOL    HW198687   1.881   4.999   3.200
65616SOL    HW298688   1.890   5.149   3.213
65617SOL     OW98689   8.115  13.463  13.761
65617SOL    HW198690   8.042  13.515  13.794
65617SOL    HW298691   8.077  13.378  13.741
65618SOL     OW98692   8.127   2.869   0.177
65618SOL    HW198693   8.121   2.780   0.144
65618SOL    HW298694   8.067   2.920   0.121
65619SOL     OW98695  12.950   6.788  14.544
65619SOL    HW198696  13.024   6.847  14.535
65619SOL    HW298697  12.875   6.839  14.514
65620SOL     OW98698   9.801  13.427   5.706
65620SOL    HW198699   9.768  13.433   5.796
65620SOL    HW298700   9.777  13.510   5.666
65621SOL     OW98701  10.966   9.222   3.931
65621SOL    HW198702  10.947   9.258   3.844
65621SOL    HW298703  11.006   9.137   3.913
65622SOL     OW98704   1.154   0.656  11.012
65622SOL    HW198705   1.226   0.677  10.952
65622SOL    HW298706   1.113   0.578  10.974
65623SOL     OW98707  13.300   9.505   7.393
65623SOL    HW198708  13.264   9.427   7.349
65623SOL    HW298709  13.386   9.477   7.425
65624SOL     OW98710  10.870   3.031   6.103
65624SOL    HW198711  10.779   3.049   6.125
65624SOL    HW298712  10.918   3.108   6.134
65625SOL     OW98713   2.692   2.096   0.016
65625SOL    HW198714   2.748   2.120   0.089
65625SOL    HW298715   2.751   2.096  14.822
65626SOL     OW98716   4.244  13.984  13.546
65626SOL    HW198717   4.202  14.060  13.505
65626SOL    HW298718   4.333  13.984  13.511
65627SOL     OW98719   9.353   8.398   9.110
65627SOL    HW198720   9.257   8.403   9.103
65627SOL    HW298721   9.385   8.464   9.049
65628SOL     OW98722   5.024   0.156  12.062
65628SOL    HW198723   4.947   0.194  12.020
65628SOL    HW298724   5.033   0.070  12.020
65629SOL     OW98725  10.681   9.415   9.952
65629SOL    HW198726  10.631   9.338   9.924
65629SOL    HW298727  10.649   9.486   9.896
65630SOL     OW98728  11.639   5.666   6.399
65630SOL    HW198729  11.648   5.624   6.485
65630SOL    HW298730  11.602   5.598   6.343
65631SOL     OW98731   9.883  13.596   8.862
65631SOL    HW198732   9.939  13.656   8.911
65631SOL    HW298733   9.815  13.570   8.923
65632SOL     OW98734   5.115  14.391   8.783
65632SOL    HW198735   5.176  14.335   8.833
65632SOL    HW298736   5.081  14.334   8.714
65633SOL     OW98737   8.638   9.352   9.608
65633SOL    HW198738   8.711   9.399   9.568
65633SOL    HW298739   8.574   9.420   9.630
65634SOL     OW98740   0.273   0.048  14.169
65634SOL    HW198741   0.188   0.092  14.164
65634SOL    HW298742   0.279   0.019  14.260
65635SOL     OW98743   8.862   3.282  11.571
65635SOL    HW198744   8.824   3.368  11.554
65635SOL    HW298745   8.925   3.270  11.500
65636SOL     OW98746   8.968   7.853   9.564
65636SOL    HW198747   9.033   7.783   9.557
65636SOL    HW298748   9.000   7.921   9.506
65637SOL     OW98749   4.395   9.020   4.488
65637SOL    HW198750   4.330   9.082   4.454
65637SOL    HW298751   4.441   9.068   4.557
65638SOL     OW98752   7.550   4.516  14.147
65638SOL    HW198753   7.518   4.595  14.192
65638SOL    HW298754   7.505   4.518  14.062
65639SOL     OW98755   2.711   9.694   2.264
65639SOL    HW198756   2.642   9.632   2.289
65639SOL    HW298757   2.792   9.650   2.289
65640SOL     OW98758   9.019   0.352   5.062
65640SOL    HW198759   9.071   0.401   5.125
65640SOL    HW298760   9.053   0.378   4.976
65641SOL     OW98761  12.315   4.816  13.233
65641SOL    HW198762  12.224   4.790  13.247
65641SOL    HW298763  12.317   4.852  13.145
65642SOL     OW98764   1.979   8.480   4.795
65642SOL    HW198765   1.973   8.385   4.796
65642SOL    HW298766   2.068   8.499   4.767
65643SOL     OW98767   7.016   9.169   4.546
65643SOL    HW198768   7.048   9.113   4.616
65643SOL    HW298769   6.939   9.123   4.511
65644SOL     OW98770   0.209  10.146  12.582
65644SOL    HW198771   0.160  10.225  12.603
65644SOL    HW298772   0.174  10.080  12.642
65645SOL     OW98773  12.274  10.010   3.979
65645SOL    HW198774  12.222  10.076   4.025
65645SOL    HW298775  12.364  10.044   3.982
65646SOL     OW98776  12.525  14.456   0.225
65646SOL    HW198777  12.530  14.552   0.233
65646SOL    HW298778  12.458  14.430   0.288
65647SOL     OW98779   5.288   3.855   3.962
65647SOL    HW198780   5.371   3.901   3.976
65647SOL    HW298781   5.313   3.762   3.958
65648SOL     OW98782   8.600   7.750   3.236
65648SOL    HW198783   8.587   7.805   3.314
65648SOL    HW298784   8.593   7.811   3.163
65649SOL     OW98785   2.868   8.191   7.364
65649SOL    HW198786   2.953   8.152   7.388
65649SOL    HW298787   2.849   8.154   7.278
65650SOL     OW98788   2.099   0.600  12.710
65650SOL    HW198789   2.027   0.656  12.740
65650SOL    HW298790   2.172   0.660  12.694
65651SOL     OW98791   0.456   8.041  10.147
65651SOL    HW198792   0.501   7.970  10.193
65651SOL    HW298793   0.527   8.093  10.108
65652SOL     OW98794   1.410  10.622   7.918
65652SOL    HW198795   1.475  10.577   7.971
65652SOL    HW298796   1.438  10.713   7.917
65653SOL     OW98797   0.941  13.822  12.107
65653SOL    HW198798   0.975  13.911  12.112
65653SOL    HW298799   0.856  13.832  12.063
65654SOL     OW98800   5.230   8.630  10.003
65654SOL    HW198801   5.197   8.713  10.037
65654SOL    HW298802   5.232   8.641   9.908
65655SOL     OW98803   2.031   9.927   9.496
65655SOL    HW198804   2.031   9.913   9.401
65655SOL    HW298805   1.985   9.852   9.532
65656SOL     OW98806   1.650   9.116   3.996
65656SOL    HW198807   1.611   9.086   4.078
65656SOL    HW298808   1.729   9.063   3.987
65657SOL     OW98809  12.213   6.708   5.467
65657SOL    HW198810  12.302   6.741   5.455
65657SOL    HW298811  12.157   6.785   5.461
65658SOL     OW98812   8.473  12.453  12.942
65658SOL    HW198813   8.404  12.501  12.988
65658SOL    HW298814   8.436  12.366  12.927
65659SOL     OW98815  10.084   7.784   4.292
65659SOL    HW198816  10.062   7.769   4.200
65659SOL    HW298817  10.150   7.718   4.311
65660SOL     OW98818   1.566   2.543  14.061
65660SOL    HW198819   1.529   2.485  13.994
65660SOL    HW298820   1.553   2.495  14.143
65661SOL     OW98821   5.306   8.540   6.386
65661SOL    HW198822   5.294   8.464   6.444
65661SOL    HW298823   5.279   8.615   6.440
65662SOL     OW98824  14.713  12.730   6.326
65662SOL    HW198825  14.732  12.823   6.311
65662SOL    HW298826  14.799  12.690   6.338
65663SOL     OW98827   6.725  12.894   9.165
65663SOL    HW198828   6.667  12.940   9.105
65663SOL    HW298829   6.724  12.946   9.245
65664SOL     OW98830   9.274   9.731   9.372
65664SOL    HW198831   9.308   9.706   9.286
65664SOL    HW298832   9.301   9.822   9.383
65665SOL     OW98833   5.424   7.226  12.383
65665SOL    HW198834   5.345   7.258  12.338
65665SOL    HW298835   5.439   7.139  12.348
65666SOL     OW98836   9.780   2.149   5.439
65666SOL    HW198837   9.822   2.201   5.371
65666SOL    HW298838   9.743   2.214   5.500
65667SOL     OW98839   0.579   6.879  12.383
65667SOL    HW198840   0.484   6.888  12.371
65667SOL    HW298841   0.612   6.968  12.373
65668SOL     OW98842   0.737  12.078   0.932
65668SOL    HW198843   0.805  12.066   0.998
65668SOL    HW298844   0.785  12.093   0.851
65669SOL     OW98845  11.128  12.491  12.011
65669SOL    HW198846  11.211  12.534  11.992
65669SOL    HW298847  11.117  12.499  12.105
65670SOL     OW98848   6.378   0.801   9.426
65670SOL    HW198849   6.396   0.846   9.508
65670SOL    HW298850   6.298   0.840   9.393
65671SOL     OW98851  10.754  13.499   3.659
65671SOL    HW198852  10.773  13.580   3.612
65671SOL    HW298853  10.788  13.513   3.747
65672SOL     OW98854   3.629  14.027   6.261
65672SOL    HW198855   3.702  13.976   6.226
65672SOL    HW298856   3.640  14.114   6.223
65673SOL     OW98857   7.100   6.417  10.330
65673SOL    HW198858   7.168   6.470  10.372
65673SOL    HW298859   7.134   6.327  10.332
65674SOL     OW98860  10.323  13.344   3.259
65674SOL    HW198861  10.327  13.439   3.269
65674SOL    HW298862  10.284  13.312   3.341
65675SOL     OW98863   3.763  13.484   2.051
65675SOL    HW198864   3.785  13.392   2.065
65675SOL    HW298865   3.832  13.517   1.993
65676SOL     OW98866   9.435  14.727  13.115
65676SOL    HW198867   9.399  14.676  13.187
65676SOL    HW298868   9.456  14.812  13.153
65677SOL     OW98869   3.069   3.364   2.620
65677SOL    HW198870   3.129   3.308   2.570
65677SOL    HW298871   3.116   3.448   2.629
65678SOL     OW98872   1.460   2.299   4.726
65678SOL    HW198873   1.529   2.284   4.791
65678SOL    HW298874   1.381   2.263   4.767
65679SOL     OW98875  14.324   3.489  14.332
65679SOL    HW198876  14.255   3.549  14.303
65679SOL    HW298877  14.405   3.527  14.299
65680SOL     OW98878   7.332   5.665   2.277
65680SOL    HW198879   7.420   5.642   2.249
65680SOL    HW298880   7.317   5.612   2.355
65681SOL     OW98881  12.110   7.975   7.641
65681SOL    HW198882  12.053   8.050   7.656
65681SOL    HW298883  12.069   7.928   7.568
65682SOL     OW98884   8.302  10.569  11.106
65682SOL    HW198885   8.238  10.596  11.040
65682SOL    HW298886   8.278  10.618  11.184
65683SOL     OW98887   6.401  11.750   0.575
65683SOL    HW198888   6.480  11.757   0.628
65683SOL    HW298889   6.345  11.689   0.623
65684SOL     OW98890   8.444   3.841   0.157
65684SOL    HW198891   8.475   3.926   0.127
65684SOL    HW298892   8.363   3.862   0.204
65685SOL     OW98893   2.197  12.442   5.359
65685SOL    HW198894   2.243  12.516   5.319
65685SOL    HW298895   2.150  12.402   5.286
65686SOL     OW98896  10.270   1.854   0.823
65686SOL    HW198897  10.264   1.876   0.730
65686SOL    HW298898  10.321   1.773   0.826
65687SOL     OW98899  11.226   7.160   5.429
65687SOL    HW198900  11.170   7.194   5.359
65687SOL    HW298901  11.295   7.111   5.384
65688SOL     OW98902   5.051   6.944   0.571
65688SOL    HW198903   5.119   7.009   0.555
65688SOL    HW298904   5.093   6.878   0.626
65689SOL     OW98905   8.312   8.670  14.824
65689SOL    HW198906   8.259   8.591  14.831
65689SOL    HW298907   8.274   8.731   0.004
65690SOL     OW98908   5.924   3.727   1.266
65690SOL    HW198909   5.958   3.791   1.203
65690SOL    HW298910   5.948   3.763   1.352
65691SOL     OW98911   9.588  14.053  13.016
65691SOL    HW198912   9.636  13.972  13.031
65691SOL    HW298913   9.634  14.095  12.944
65692SOL     OW98914   0.697   0.542   1.394
65692SOL    HW198915   0.704   0.453   1.358
65692SOL    HW298916   0.699   0.530   1.489
65693SOL     OW98917  11.666  12.691   2.069
65693SOL    HW198918  11.612  12.617   2.095
65693SOL    HW298919  11.737  12.694   2.133
65694SOL     OW98920   8.484   5.201   2.540
65694SOL    HW198921   8.563   5.255   2.527
65694SOL    HW298922   8.458   5.175   2.452
65695SOL     OW98923   1.373  12.643   4.931
65695SOL    HW198924   1.290  12.645   4.978
65695SOL    HW298925   1.357  12.588   4.854
65696SOL     OW98926  11.213   5.984   4.886
65696SOL    HW198927  11.124   5.982   4.850
65696SOL    HW298928  11.249   6.067   4.856
65697SOL     OW98929   1.236   8.047  14.655
65697SOL    HW198930   1.322   8.089  14.653
65697SOL    HW298931   1.176   8.117  14.681
65698SOL     OW98932  13.920  11.493   9.110
65698SOL    HW198933  13.831  11.519   9.084
65698SOL    HW298934  13.907  11.440   9.189
65699SOL     OW98935   5.604   5.360  10.075
65699SOL    HW198936   5.564   5.419  10.140
65699SOL    HW298937   5.530   5.312  10.038
65700SOL     OW98938  10.396   7.118  11.878
65700SOL    HW198939  10.324   7.057  11.890
65700SOL    HW298940  10.419   7.110  11.786
65701SOL     OW98941   3.113   3.960  13.624
65701SOL    HW198942   3.180   3.899  13.655
65701SOL    HW298943   3.049   3.963  13.694
65702SOL     OW98944   2.262  14.846   6.195
65702SOL    HW198945   2.279  14.818   6.105
65702SOL    HW298946   2.230  14.766   6.238
65703SOL     OW98947   8.167   3.543   0.182
65703SOL    HW198948   8.182   3.636   0.197
65703SOL    HW298949   8.072   3.533   0.185
65704SOL     OW98950  13.528   8.641   9.660
65704SOL    HW198951  13.480   8.706   9.611
65704SOL    HW298952  13.511   8.558   9.614
65705SOL     OW98953   5.292  10.850   8.086
65705SOL    HW198954   5.383  10.829   8.106
65705SOL    HW298955   5.264  10.908   8.157
65706SOL     OW98956   2.789  10.255  13.477
65706SOL    HW198957   2.865  10.291  13.522
65706SOL    HW298958   2.741  10.332  13.446
65707SOL     OW98959  11.363  14.371  14.858
65707SOL    HW198960  11.357  14.275  14.850
65707SOL    HW298961  11.360  14.402  14.767
65708SOL     OW98962   6.092   5.304   2.933
65708SOL    HW198963   6.184   5.321   2.950
65708SOL    HW298964   6.072   5.355   2.854
65709SOL     OW98965  14.106   0.497  14.102
65709SOL    HW198966  14.179   0.498  14.040
65709SOL    HW298967  14.120   0.417  14.153
65710SOL     OW98968  12.501  12.915   6.863
65710SOL    HW198969  12.592  12.886   6.874
65710SOL    HW298970  12.507  13.010   6.852
65711SOL     OW98971   8.334   6.389   5.609
65711SOL    HW198972   8.277   6.443   5.664
65711SOL    HW298973   8.274   6.350   5.545
65712SOL     OW98974   7.548  12.750  12.183
65712SOL    HW198975   7.568  12.691  12.256
65712SOL    HW298976   7.559  12.695  12.105
65713SOL     OW98977   0.978   8.675  13.128
65713SOL    HW198978   1.040   8.740  13.099
65713SOL    HW298979   0.907   8.679  13.065
65714SOL     OW98980  11.540   5.558   5.037
65714SOL    HW198981  11.541   5.637   5.091
65714SOL    HW298982  11.523   5.591   4.948
65715SOL     OW98983  14.793  10.819   5.683
65715SOL    HW198984  14.801  10.728   5.712
65715SOL    HW298985  14.880  10.856   5.698
65716SOL     OW98986   7.400  10.235   8.484
65716SOL    HW198987   7.436  10.308   8.433
65716SOL    HW298988   7.476  10.181   8.505
65717SOL     OW98989   8.785  10.393   7.007
65717SOL    HW198990   8.872  10.433   6.998
65717SOL    HW298991   8.756  10.418   7.094
65718SOL     OW98992  11.345   2.467  14.382
65718SOL    HW198993  11.397   2.525  14.327
65718SOL    HW298994  11.410   2.422  14.436
65719SOL     OW98995  14.230   0.872   9.148
65719SOL    HW198996  14.293   0.802   9.165
65719SOL    HW298997  14.200   0.900   9.234
65720SOL     OW98998   1.858   7.469   1.298
65720SOL    HW198999   1.935   7.524   1.286
65720SOL    HW299000   1.835   7.479   1.390
65721SOL     OW99001   5.902   5.742   1.036
65721SOL    HW199002   5.908   5.686   1.114
65721SOL    HW299003   5.892   5.680   0.964
65722SOL     OW99004  10.086   1.206  12.140
65722SOL    HW199005  10.064   1.264  12.068
65722SOL    HW299006  10.068   1.118  12.107
65723SOL     OW99007   3.532  13.449  12.887
65723SOL    HW199008   3.544  13.496  12.804
65723SOL    HW299009   3.621  13.437  12.921
65724SOL     OW99010  11.897  10.054   0.494
65724SOL    HW199011  11.815  10.103   0.486
65724SOL    HW299012  11.882   9.993   0.566
65725SOL     OW99013  13.863   3.782  10.596
65725SOL    HW199014  13.845   3.856  10.538
65725SOL    HW299015  13.930   3.814  10.656
65726SOL     OW99016   7.766   6.411  12.841
65726SOL    HW199017   7.771   6.320  12.813
65726SOL    HW299018   7.848   6.427  12.888
65727SOL     OW99019   6.684   6.478   9.810
65727SOL    HW199020   6.758   6.417   9.815
65727SOL    HW299021   6.679   6.518   9.896
65728SOL     OW99022  12.131   1.794   9.704
65728SOL    HW199023  12.186   1.807   9.626
65728SOL    HW299024  12.046   1.830   9.679
65729SOL     OW99025  11.107   8.400   4.299
65729SOL    HW199026  11.040   8.400   4.368
65729SOL    HW299027  11.185   8.437   4.342
65730SOL     OW99028   8.188   9.738   8.664
65730SOL    HW199029   8.102   9.714   8.630
65730SOL    HW299030   8.250   9.696   8.605
65731SOL     OW99031  13.527   4.170   8.846
65731SOL    HW199032  13.434   4.193   8.853
65731SOL    HW299033  13.556   4.215   8.767
65732SOL     OW99034   9.736  12.943  14.667
65732SOL    HW199035   9.693  12.935  14.752
65732SOL    HW299036   9.677  12.897  14.606
65733SOL     OW99037   6.719   9.447   1.624
65733SOL    HW199038   6.711   9.500   1.545
65733SOL    HW299039   6.790   9.489   1.674
65734SOL     OW99040   5.893  14.101  14.807
65734SOL    HW199041   5.945  14.171  14.767
65734SOL    HW299042   5.811  14.101  14.758
65735SOL     OW99043   0.688  14.324  14.761
65735SOL    HW199044   0.685  14.399  14.703
65735SOL    HW299045   0.678  14.361  14.849
65736SOL     OW99046  13.648   3.551  14.794
65736SOL    HW199047  13.638   3.630  14.742
65736SOL    HW299048  13.736   3.519  14.773
65737SOL     OW99049   1.195   9.961   8.426
65737SOL    HW199050   1.272   9.986   8.376
65737SOL    HW299051   1.130   9.937   8.360
65738SOL     OW99052  13.995   0.622   2.724
65738SOL    HW199053  13.943   0.542   2.732
65738SOL    HW299054  13.932   0.691   2.704
65739SOL     OW99055  12.844  12.108   0.384
65739SOL    HW199056  12.910  12.165   0.344
65739SOL    HW299057  12.806  12.060   0.310
65740SOL     OW99058   4.325   3.006  10.497
65740SOL    HW199059   4.393   2.955  10.453
65740SOL    HW299060   4.255   2.944  10.515
65741SOL     OW99061   0.295   0.917   9.501
65741SOL    HW199062   0.370   0.896   9.556
65741SOL    HW299063   0.319   0.998   9.457
65742SOL     OW99064  11.994   3.247  12.757
65742SOL    HW199065  11.914   3.234  12.705
65742SOL    HW299066  12.056   3.285  12.695
65743SOL     OW99067  12.359   8.054   1.908
65743SOL    HW199068  12.333   7.962   1.911
65743SOL    HW299069  12.398   8.071   1.993
65744SOL     OW99070   3.363   2.800  11.239
65744SOL    HW199071   3.423   2.855  11.188
65744SOL    HW299072   3.377   2.827  11.330
65745SOL     OW99073   7.786   7.760   3.684
65745SOL    HW199074   7.817   7.705   3.613
65745SOL    HW299075   7.859   7.765   3.745
65746SOL     OW99076   4.940   5.847  13.892
65746SOL    HW199077   5.032   5.875  13.891
65746SOL    HW299078   4.944   5.753  13.908
65747SOL     OW99079  12.253  13.675  13.767
65747SOL    HW199080  12.287  13.764  13.777
65747SOL    HW299081  12.271  13.653  13.676
65748SOL     OW99082   0.941   4.665  12.530
65748SOL    HW199083   1.002   4.606  12.572
65748SOL    HW299084   0.977   4.753  12.545
65749SOL     OW99085   0.303  10.319  12.311
65749SOL    HW199086   0.209  10.306  12.318
65749SOL    HW299087   0.338  10.232  12.295
65750SOL     OW99088  11.235  13.560  10.872
65750SOL    HW199089  11.182  13.632  10.836
65750SOL    HW299090  11.312  13.557  10.816
65751SOL     OW99091  13.124   0.805   8.697
65751SOL    HW199092  13.179   0.729   8.678
65751SOL    HW299093  13.136   0.820   8.791
65752SOL     OW99094   7.532  13.582   4.851
65752SOL    HW199095   7.589  13.653   4.879
65752SOL    HW299096   7.568  13.554   4.767
65753SOL     OW99097  11.479  13.269   2.391
65753SOL    HW199098  11.457  13.181   2.423
65753SOL    HW299099  11.549  13.300   2.449
65754SOL     OW99100   9.175   6.216   4.250
65754SOL    HW199101   9.171   6.125   4.219
65754SOL    HW299102   9.083   6.239   4.267
65755SOL     OW99103   3.941   6.665  13.402
65755SOL    HW199104   3.894   6.655  13.485
65755SOL    HW299105   4.033   6.663  13.427
65756SOL     OW99106   0.758   8.746   7.873
65756SOL    HW199107   0.766   8.768   7.966
65756SOL    HW299108   0.848   8.738   7.842
65757SOL     OW99109   0.554   6.716   7.684
65757SOL    HW199110   0.561   6.772   7.761
65757SOL    HW299111   0.566   6.775   7.610
65758SOL     OW99112   8.195   1.103  10.746
65758SOL    HW199113   8.136   1.179  10.748
65758SOL    HW299114   8.190   1.068  10.835
65759SOL     OW99115   9.910  12.717   1.271
65759SOL    HW199116   9.937  12.727   1.180
65759SOL    HW299117   9.836  12.777   1.281
65760SOL     OW99118   4.987   8.157  11.333
65760SOL    HW199119   4.973   8.065  11.310
65760SOL    HW299120   4.899   8.191  11.348
65761SOL     OW99121   2.988   2.520   9.261
65761SOL    HW199122   3.055   2.474   9.210
65761SOL    HW299123   2.938   2.450   9.303
65762SOL     OW99124  13.876  14.565  11.491
65762SOL    HW199125  13.935  14.577  11.416
65762SOL    HW299126  13.800  14.519  11.455
65763SOL     OW99127   7.459   6.761  12.664
65763SOL    HW199128   7.491   6.717  12.585
65763SOL    HW299129   7.366   6.742  12.666
65764SOL     OW99130  13.782   2.189   0.934
65764SOL    HW199131  13.692   2.215   0.910
65764SOL    HW299132  13.792   2.217   1.025
65765SOL     OW99133   9.884   5.787   9.216
65765SOL    HW199134   9.879   5.768   9.123
65765SOL    HW299135   9.793   5.797   9.244
65766SOL     OW99136   8.886   2.149   3.870
65766SOL    HW199137   8.796   2.131   3.899
65766SOL    HW299138   8.879   2.156   3.775
65767SOL     OW99139   8.543   9.845   7.734
65767SOL    HW199140   8.455   9.813   7.756
65767SOL    HW299141   8.530   9.904   7.660
65768SOL     OW99142   8.169   0.339  13.842
65768SOL    HW199143   8.139   0.411  13.787
65768SOL    HW299144   8.244   0.374  13.889
65769SOL     OW99145   7.802   9.208  13.240
65769SOL    HW199146   7.894   9.227  13.220
65769SOL    HW299147   7.804   9.170  13.327
65770SOL     OW99148  10.170  11.095   1.435
65770SOL    HW199149  10.097  11.042   1.469
65770SOL    HW299150  10.210  11.039   1.368
65771SOL     OW99151   3.482  10.054  14.382
65771SOL    HW199152   3.389  10.069  14.362
65771SOL    HW299153   3.485  10.054  14.477
65772SOL     OW99154   7.802  14.779   6.643
65772SOL    HW199155   7.719  14.732   6.635
65772SOL    HW299156   7.858  14.721   6.695
65773SOL     OW99157   7.845   8.767  12.605
65773SOL    HW199158   7.895   8.781  12.525
65773SOL    HW299159   7.760   8.808  12.587
65774SOL     OW99160   3.192   6.447   9.060
65774SOL    HW199161   3.190   6.543   9.065
65774SOL    HW299162   3.256   6.421   9.126
65775SOL     OW99163  13.577  10.899  12.127
65775SOL    HW199164  13.663  10.891  12.167
65775SOL    HW299165  13.595  10.906  12.033
65776SOL     OW99166   3.483  11.968   2.916
65776SOL    HW199167   3.399  12.010   2.933
65776SOL    HW299168   3.459  11.880   2.885
65777SOL     OW99169  14.506   0.627  11.947
65777SOL    HW199170  14.536   0.667  12.028
65777SOL    HW299171  14.510   0.697  11.882
65778SOL     OW99172  13.909   7.432  11.251
65778SOL    HW199173  13.840   7.405  11.191
65778SOL    HW299174  13.943   7.350  11.288
65779SOL     OW99175   4.707  14.494   6.181
65779SOL    HW199176   4.784  14.550   6.168
65779SOL    HW299177   4.636  14.555   6.201
65780SOL     OW99178   9.242  12.554   2.541
65780SOL    HW199179   9.186  12.569   2.465
65780SOL    HW299180   9.198  12.485   2.590
65781SOL     OW99181   4.064   4.978   9.539
65781SOL    HW199182   3.995   4.997   9.475
65781SOL    HW299183   4.099   5.064   9.563
65782SOL     OW99184   3.952   3.957   9.571
65782SOL    HW199185   3.863   3.925   9.554
65782SOL    HW299186   3.961   3.954   9.666
65783SOL     OW99187   5.585  13.320   4.613
65783SOL    HW199188   5.572  13.316   4.518
65783SOL    HW299189   5.678  13.338   4.624
65784SOL     OW99190   9.090   0.655   8.077
65784SOL    HW199191   9.078   0.746   8.049
65784SOL    HW299192   9.183   0.637   8.064
65785SOL     OW99193   0.530  11.804   5.743
65785SOL    HW199194   0.524  11.810   5.648
65785SOL    HW299195   0.568  11.718   5.759
65786SOL     OW99196   2.055   8.766   9.215
65786SOL    HW199197   2.090   8.848   9.248
65786SOL    HW299198   2.132   8.712   9.197
65787SOL     OW99199   5.522   6.328  13.379
65787SOL    HW199200   5.457   6.293  13.440
65787SOL    HW299201   5.482   6.409  13.346
65788SOL     OW99202  14.148   4.635   0.668
65788SOL    HW199203  14.104   4.647   0.752
65788SOL    HW299204  14.108   4.557   0.630
65789SOL     OW99205   1.336   5.345  13.576
65789SOL    HW199206   1.354   5.439  13.576
65789SOL    HW299207   1.274   5.332  13.504
65790SOL     OW99208   1.569  10.763   9.684
65790SOL    HW199209   1.608  10.850   9.685
65790SOL    HW299210   1.554  10.744   9.592
65791SOL     OW99211  14.539   3.242   2.517
65791SOL    HW199212  14.552   3.324   2.469
65791SOL    HW299213  14.447   3.220   2.501
65792SOL     OW99214   4.123   1.791   3.545
65792SOL    HW199215   4.130   1.870   3.598
65792SOL    HW299216   4.064   1.816   3.473
65793SOL     OW99217   5.387  11.744  14.517
65793SOL    HW199218   5.391  11.837  14.540
65793SOL    HW299219   5.448  11.735  14.444
65794SOL     OW99220   1.130   8.418   9.681
65794SOL    HW199221   1.128   8.376   9.767
65794SOL    HW299222   1.116   8.347   9.619
65795SOL     OW99223   6.913   8.324   0.204
65795SOL    HW199224   6.937   8.309   0.112
65795SOL    HW299225   6.865   8.245   0.229
65796SOL     OW99226   9.134   3.296   3.291
65796SOL    HW199227   9.145   3.201   3.284
65796SOL    HW299228   9.164   3.330   3.207
65797SOL     OW99229  14.017   7.571   9.967
65797SOL    HW199230  14.056   7.546  10.051
65797SOL    HW299231  13.939   7.621   9.991
65798SOL     OW99232  10.375   6.179   3.983
65798SOL    HW199233  10.429   6.135   4.048
65798SOL    HW299234  10.311   6.114   3.955
65799SOL     OW99235   9.115   3.357  10.194
65799SOL    HW199236   9.123   3.299  10.118
65799SOL    HW299237   9.183   3.328  10.254
65800SOL     OW99238   5.405   8.359  13.560
65800SOL    HW199239   5.407   8.292  13.491
65800SOL    HW299240   5.381   8.312  13.639
65801SOL     OW99241   5.750   9.821  14.670
65801SOL    HW199242   5.720   9.827  14.760
65801SOL    HW299243   5.842   9.797  14.677
65802SOL     OW99244  12.799   8.617  12.300
65802SOL    HW199245  12.715   8.585  12.335
65802SOL    HW299246  12.823   8.689  12.358
65803SOL     OW99247   8.906   2.256   5.520
65803SOL    HW199248   8.979   2.193   5.514
65803SOL    HW299249   8.947   2.341   5.508
65804SOL     OW99250   9.089  12.775   7.796
65804SOL    HW199251   9.126  12.863   7.805
65804SOL    HW299252   9.164  12.719   7.778
65805SOL     OW99253   6.187   5.537   4.826
65805SOL    HW199254   6.265   5.573   4.784
65805SOL    HW299255   6.114   5.566   4.770
65806SOL     OW99256   2.789   4.222   1.085
65806SOL    HW199257   2.799   4.280   1.160
65806SOL    HW299258   2.699   4.234   1.056
65807SOL     OW99259   1.723   0.342   0.378
65807SOL    HW199260   1.783   0.330   0.451
65807SOL    HW299261   1.757   0.285   0.309
65808SOL     OW99262  13.271   2.951   6.377
65808SOL    HW199263  13.215   3.016   6.419
65808SOL    HW299264  13.237   2.946   6.287
65809SOL     OW99265   0.296   1.413   5.833
65809SOL    HW199266   0.274   1.464   5.911
65809SOL    HW299267   0.388   1.390   5.845
65810SOL     OW99268  10.604   3.540  13.323
65810SOL    HW199269  10.646   3.500  13.246
65810SOL    HW299270  10.615   3.634  13.309
65811SOL     OW99271   0.518   7.798  12.292
65811SOL    HW199272   0.607   7.834  12.287
65811SOL    HW299273   0.531   7.708  12.322
65812SOL     OW99274  10.160  11.883  14.266
65812SOL    HW199275  10.131  11.844  14.348
65812SOL    HW299276  10.232  11.941  14.292
65813SOL     OW99277  14.295   3.798  14.000
65813SOL    HW199278  14.242   3.719  14.008
65813SOL    HW299279  14.233   3.867  13.977
65814SOL     OW99280  13.115   4.219   7.437
65814SOL    HW199281  13.042   4.245   7.493
65814SOL    HW299282  13.081   4.224   7.348
65815SOL     OW99283  10.933  10.164   4.677
65815SOL    HW199284  10.959  10.115   4.599
65815SOL    HW299285  11.015  10.180   4.723
65816SOL     OW99286   5.488  11.142   5.040
65816SOL    HW199287   5.554  11.174   5.101
65816SOL    HW299288   5.408  11.189   5.064
65817SOL     OW99289   5.443   3.730  12.015
65817SOL    HW199290   5.359   3.722  12.059
65817SOL    HW299291   5.465   3.823  12.021
65818SOL     OW99292   7.244   1.322   1.860
65818SOL    HW199293   7.239   1.276   1.944
65818SOL    HW299294   7.333   1.303   1.828
65819SOL     OW99295   3.420  13.966   6.622
65819SOL    HW199296   3.490  14.022   6.587
65819SOL    HW299297   3.401  13.905   6.550
65820SOL     OW99298   7.768   5.864  10.298
65820SOL    HW199299   7.683   5.853  10.256
65820SOL    HW299300   7.765   5.952  10.335
65821SOL     OW99301   8.673   6.876   8.166
65821SOL    HW199302   8.607   6.811   8.189
65821SOL    HW299303   8.754   6.825   8.155
65822SOL     OW99304  10.753  12.401   6.065
65822SOL    HW199305  10.842  12.434   6.078
65822SOL    HW299306  10.740  12.402   5.970
65823SOL     OW99307   7.519  14.569  12.239
65823SOL    HW199308   7.488  14.514  12.311
65823SOL    HW299309   7.609  14.590  12.262
65824SOL     OW99310  13.014   0.923   9.130
65824SOL    HW199311  12.934   0.880   9.099
65824SOL    HW299312  13.013   1.009   9.090
65825SOL     OW99313   8.824   5.313   7.899
65825SOL    HW199314   8.785   5.342   7.981
65825SOL    HW299315   8.798   5.222   7.890
65826SOL     OW99316  10.285  11.227  14.188
65826SOL    HW199317  10.376  11.250  14.205
65826SOL    HW299318  10.241  11.239  14.273
65827SOL     OW99319   4.264   7.145   7.017
65827SOL    HW199320   4.325   7.151   7.091
65827SOL    HW299321   4.228   7.057   7.022
65828SOL     OW99322   7.496   5.027   0.316
65828SOL    HW199323   7.443   4.956   0.280
65828SOL    HW299324   7.470   5.034   0.407
65829SOL     OW99325   7.201  10.624  10.435
65829SOL    HW199326   7.136  10.621  10.365
65829SOL    HW299327   7.281  10.654  10.393
65830SOL     OW99328  11.546   3.820   2.109
65830SOL    HW199329  11.518   3.737   2.070
65830SOL    HW299330  11.518   3.814   2.201
65831SOL     OW99331   8.519   2.078  13.676
65831SOL    HW199332   8.433   2.099  13.638
65831SOL    HW299333   8.565   2.032  13.606
65832SOL     OW99334  12.436   1.458  11.111
65832SOL    HW199335  12.343   1.476  11.092
65832SOL    HW299336  12.484   1.514  11.050
65833SOL     OW99337   6.847   7.219   9.924
65833SOL    HW199338   6.840   7.233   9.830
65833SOL    HW299339   6.768   7.170   9.947
65834SOL     OW99340  12.353   7.928   6.753
65834SOL    HW199341  12.426   7.893   6.803
65834SOL    HW299342  12.289   7.857   6.750
65835SOL     OW99343   4.927  10.631   6.286
65835SOL    HW199344   4.898  10.637   6.377
65835SOL    HW299345   4.920  10.721   6.253
65836SOL     OW99346   8.775   7.080   6.513
65836SOL    HW199347   8.843   7.019   6.484
65836SOL    HW299348   8.772   7.147   6.444
65837SOL     OW99349   8.542   3.922   9.225
65837SOL    HW199350   8.552   3.881   9.139
65837SOL    HW299351   8.618   3.978   9.234
65838SOL     OW99352   6.034   2.160  11.567
65838SOL    HW199353   6.118   2.124  11.539
65838SOL    HW299354   6.055   2.246  11.604
65839SOL     OW99355   0.145  13.955  14.095
65839SOL    HW199356   0.072  14.008  14.127
65839SOL    HW299357   0.197  13.936  14.174
65840SOL     OW99358   0.594  13.766   3.607
65840SOL    HW199359   0.636  13.709   3.542
65840SOL    HW299360   0.500  13.757   3.589
65841SOL     OW99361   8.255   7.688   8.667
65841SOL    HW199362   8.268   7.725   8.580
65841SOL    HW299363   8.224   7.598   8.651
65842SOL     OW99364   9.593   3.099   2.380
65842SOL    HW199365   9.682   3.095   2.347
65842SOL    HW299366   9.602   3.125   2.472
65843SOL     OW99367   4.853   7.548  10.604
65843SOL    HW199368   4.791   7.488  10.645
65843SOL    HW299369   4.855   7.624  10.663
65844SOL     OW99370   0.562   5.362  13.475
65844SOL    HW199371   0.499   5.431  13.494
65844SOL    HW299372   0.627   5.369  13.545
65845SOL     OW99373   8.427  12.548  12.111
65845SOL    HW199374   8.427  12.490  12.035
65845SOL    HW299375   8.411  12.635  12.075
65846SOL     OW99376   6.240   1.664   5.089
65846SOL    HW199377   6.298   1.592   5.114
65846SOL    HW299378   6.273   1.739   5.136
65847SOL     OW99379   1.458   5.175   8.354
65847SOL    HW199380   1.541   5.211   8.323
65847SOL    HW299381   1.410   5.251   8.386
65848SOL     OW99382  11.244   1.566  12.060
65848SOL    HW199383  11.290   1.567  12.144
65848SOL    HW299384  11.212   1.655  12.049
65849SOL     OW99385   9.218   1.033   4.846
65849SOL    HW199386   9.127   1.039   4.817
65849SOL    HW299387   9.268   1.014   4.766
65850SOL     OW99388   0.347  14.368   2.356
65850SOL    HW199389   0.349  14.415   2.439
65850SOL    HW299390   0.256  14.342   2.345
65851SOL     OW99391   2.569   7.519  14.705
65851SOL    HW199392   2.511   7.540  14.632
65851SOL    HW299393   2.552   7.426  14.723
65852SOL     OW99394  13.068   2.288   6.646
65852SOL    HW199395  12.988   2.272   6.596
65852SOL    HW299396  13.111   2.360   6.599
65853SOL     OW99397   6.947   2.250   8.255
65853SOL    HW199398   6.937   2.334   8.210
65853SOL    HW299399   7.032   2.217   8.224
65854SOL     OW99400   9.284  14.599   1.679
65854SOL    HW199401   9.375  14.596   1.710
65854SOL    HW299402   9.290  14.581   1.585
65855SOL     OW99403   4.373   1.463  12.610
65855SOL    HW199404   4.283   1.485  12.587
65855SOL    HW299405   4.365   1.382  12.661
65856SOL     OW99406  11.026   5.706  12.332
65856SOL    HW199407  11.093   5.763  12.294
65856SOL    HW299408  11.034   5.624  12.283
65857SOL     OW99409  13.586   4.963   6.366
65857SOL    HW199410  13.516   4.993   6.307
65857SOL    HW299411  13.568   5.007   6.448
65858SOL     OW99412   8.911   8.862   9.886
65858SOL    HW199413   8.976   8.919   9.844
65858SOL    HW299414   8.869   8.918   9.951
65859SOL     OW99415   3.598   0.130   7.081
65859SOL    HW199416   3.588   0.126   7.176
65859SOL    HW299417   3.626   0.042   7.056
65860SOL     OW99418   3.632   0.867  14.803
65860SOL    HW199419   3.576   0.840  14.876
65860SOL    HW299420   3.719   0.875  14.841
65861SOL     OW99421   5.117  11.723   7.214
65861SOL    HW199422   5.073  11.654   7.164
65861SOL    HW299423   5.174  11.676   7.275
65862SOL     OW99424   6.948   9.350   1.142
65862SOL    HW199425   7.024   9.369   1.197
65862SOL    HW299426   6.978   9.280   1.084
65863SOL     OW99427  14.339   4.940   7.981
65863SOL    HW199428  14.319   4.971   8.069
65863SOL    HW299429  14.416   4.990   7.954
65864SOL     OW99430   7.568  10.191   3.311
65864SOL    HW199431   7.568  10.244   3.232
65864SOL    HW299432   7.476  10.190   3.338
65865SOL     OW99433  14.471   6.085  14.319
65865SOL    HW199434  14.502   6.174  14.302
65865SOL    HW299435  14.498   6.035  14.242
65866SOL     OW99436   1.861  14.326   7.406
65866SOL    HW199437   1.945  14.282   7.421
65866SOL    HW299438   1.799  14.277   7.460
65867SOL     OW99439  12.601   2.575  14.779
65867SOL    HW199440  12.513   2.548  14.752
65867SOL    HW299441  12.656   2.555  14.703
65868SOL     OW99442  12.388  12.884  11.093
65868SOL    HW199443  12.458  12.914  11.035
65868SOL    HW299444  12.371  12.960  11.149
65869SOL     OW99445   4.134   2.819   5.752
65869SOL    HW199446   4.152   2.893   5.811
65869SOL    HW299447   4.095   2.860   5.675
65870SOL     OW99448   0.165   1.958  12.368
65870SOL    HW199449   0.243   1.974  12.421
65870SOL    HW299450   0.143   1.866  12.382
65871SOL     OW99451   2.843   0.908   9.990
65871SOL    HW199452   2.893   0.988   9.977
65871SOL    HW299453   2.754   0.938  10.009
65872SOL     OW99454   7.175  11.711   3.403
65872SOL    HW199455   7.123  11.715   3.483
65872SOL    HW299456   7.207  11.621   3.399
65873SOL     OW99457   2.416   4.061   7.483
65873SOL    HW199458   2.360   4.071   7.559
65873SOL    HW299459   2.358   4.030   7.414
65874SOL     OW99460   2.114  13.452   8.020
65874SOL    HW199461   2.198  13.497   8.010
65874SOL    HW299462   2.136  13.359   8.014
65875SOL     OW99463  11.877  14.527   1.235
65875SOL    HW199464  11.787  14.504   1.259
65875SOL    HW299465  11.876  14.622   1.229
65876SOL     OW99466   1.072   0.228  14.095
65876SOL    HW199467   1.081   0.171  14.018
65876SOL    HW299468   1.148   0.287  14.089
65877SOL     OW99469   9.750  13.462   0.106
65877SOL    HW199470   9.812  13.535   0.109
65877SOL    HW299471   9.798  13.388   0.143
65878SOL     OW99472   2.101  13.953   2.202
65878SOL    HW199473   2.075  13.870   2.163
65878SOL    HW299474   2.140  13.929   2.286
65879SOL     OW99475  10.202   9.182   8.803
65879SOL    HW199476  10.153   9.104   8.829
65879SOL    HW299477  10.285   9.176   8.849
65880SOL     OW99478  14.168  12.614  10.291
65880SOL    HW199479  14.118  12.556  10.349
65880SOL    HW299480  14.102  12.651  10.232
65881SOL     OW99481   7.678   7.976   3.551
65881SOL    HW199482   7.583   7.967   3.565
65881SOL    HW299483   7.716   7.917   3.616
65882SOL     OW99484  12.235   8.342   9.833
65882SOL    HW199485  12.184   8.421   9.847
65882SOL    HW299486  12.172   8.280   9.795
65883SOL     OW99487  10.100   8.900   9.407
65883SOL    HW199488  10.128   8.817   9.445
65883SOL    HW299489  10.179   8.937   9.368
65884SOL     OW99490   3.951  13.358  12.175
65884SOL    HW199491   3.937  13.325  12.087
65884SOL    HW299492   3.883  13.424  12.188
65885SOL     OW99493  10.984   0.594   9.690
65885SOL    HW199494  10.931   0.528   9.644
65885SOL    HW299495  11.068   0.594   9.644
65886SOL     OW99496   8.721   8.213   6.310
65886SOL    HW199497   8.630   8.185   6.303
65886SOL    HW299498   8.743   8.242   6.222
65887SOL     OW99499   6.306   0.718   1.476
65887SOL    HW199500   6.295   0.715   1.381
65887SOL    HW299501   6.289   0.628   1.505
65888SOL     OW99502   5.474   8.451   0.848
65888SOL    HW199503   5.423   8.396   0.909
65888SOL    HW299504   5.437   8.432   0.762
65889SOL     OW99505   6.076   4.913  12.609
65889SOL    HW199506   6.144   4.867  12.658
65889SOL    HW299507   6.071   5.000  12.649
65890SOL     OW99508   9.176   7.400  11.427
65890SOL    HW199509   9.234   7.324  11.429
65890SOL    HW299510   9.235   7.475  11.414
65891SOL     OW99511   0.111  14.700  11.646
65891SOL    HW199512   0.206  14.705  11.660
65891SOL    HW299513   0.096  14.752  11.567
65892SOL     OW99514   5.816  11.512   3.497
65892SOL    HW199515   5.835  11.461   3.418
65892SOL    HW299516   5.763  11.585   3.467
65893SOL     OW99517   2.815   5.798   8.764
65893SOL    HW199518   2.896   5.790   8.713
65893SOL    HW299519   2.817   5.887   8.798
65894SOL     OW99520  13.268   4.794  11.248
65894SOL    HW199521  13.234   4.716  11.206
65894SOL    HW299522  13.283   4.767  11.339
65895SOL     OW99523   3.394   4.198  13.809
65895SOL    HW199524   3.447   4.126  13.842
65895SOL    HW299525   3.399   4.265  13.877
65896SOL     OW99526   1.839   9.314   1.931
65896SOL    HW199527   1.815   9.222   1.938
65896SOL    HW299528   1.869   9.326   1.841
65897SOL     OW99529   1.605   4.833  11.859
65897SOL    HW199530   1.523   4.877  11.879
65897SOL    HW299531   1.630   4.790  11.941
65898SOL     OW99532  12.532  14.175  11.558
65898SOL    HW199533  12.469  14.246  11.568
65898SOL    HW299534  12.482  14.103  11.521
65899SOL     OW99535   3.687  10.193  10.771
65899SOL    HW199536   3.777  10.209  10.742
65899SOL    HW299537   3.636  10.265  10.734
65900SOL     OW99538  13.286   1.675   7.484
65900SOL    HW199539  13.277   1.671   7.388
65900SOL    HW299540  13.308   1.767   7.501
65901SOL     OW99541  12.577  13.020   3.193
65901SOL    HW199542  12.658  13.067   3.174
65901SOL    HW299543  12.586  12.993   3.284
65902SOL     OW99544   8.847  12.685   5.690
65902SOL    HW199545   8.792  12.643   5.756
65902SOL    HW299546   8.786  12.711   5.621
65903SOL     OW99547  11.144   3.321   2.942
65903SOL    HW199548  11.234   3.322   2.975
65903SOL    HW299549  11.130   3.231   2.913
65904SOL     OW99550  13.772  12.265  11.572
65904SOL    HW199551  13.778  12.234  11.662
65904SOL    HW299552  13.842  12.218  11.526
65905SOL     OW99553   2.561  12.363   0.869
65905SOL    HW199554   2.649  12.387   0.899
65905SOL    HW299555   2.502  12.413   0.926
65906SOL     OW99556  12.355   7.057  10.226
65906SOL    HW199557  12.297   7.013  10.164
65906SOL    HW299558  12.386   7.134  10.179
65907SOL     OW99559  13.641   8.073  11.570
65907SOL    HW199560  13.727   8.052  11.607
65907SOL    HW299561  13.596   8.121  11.640
65908SOL     OW99562   3.880  11.513   5.831
65908SOL    HW199563   3.856  11.420   5.829
65908SOL    HW299564   3.802  11.559   5.801
65909SOL     OW99565   5.623   4.417   3.606
65909SOL    HW199566   5.673   4.454   3.679
65909SOL    HW299567   5.537   4.397   3.643
65910SOL     OW99568   3.366   2.118  12.105
65910SOL    HW199569   3.416   2.193  12.073
65910SOL    HW299570   3.407   2.096  12.189
65911SOL     OW99571   0.464  10.610   3.092
65911SOL    HW199572   0.428  10.634   3.006
65911SOL    HW299573   0.441  10.518   3.103
65912SOL     OW99574  11.627   2.899   4.332
65912SOL    HW199575  11.635   2.990   4.300
65912SOL    HW299576  11.713   2.861   4.318
65913SOL     OW99577   5.880   9.530   0.936
65913SOL    HW199578   5.938   9.585   0.884
65913SOL    HW299579   5.854   9.459   0.877
65914SOL     OW99580  10.852   5.504  14.065
65914SOL    HW199581  10.903   5.585  14.061
65914SOL    HW299582  10.776   5.525  14.119
65915SOL     OW99583   6.774  10.423   7.014
65915SOL    HW199584   6.769  10.350   7.076
65915SOL    HW299585   6.683  10.445   6.996
65916SOL     OW99586   2.870   5.095   4.795
65916SOL    HW199587   2.950   5.078   4.845
65916SOL    HW299588   2.868   5.026   4.728
65917SOL     OW99589  12.589  11.564   9.881
65917SOL    HW199590  12.641  11.574   9.801
65917SOL    HW299591  12.502  11.597   9.857
65918SOL     OW99592  14.506   1.456  13.018
65918SOL    HW199593  14.523   1.458  12.924
65918SOL    HW299594  14.516   1.364  13.043
65919SOL     OW99595   5.046  11.269   3.301
65919SOL    HW199596   5.027  11.177   3.321
65919SOL    HW299597   5.133  11.268   3.261
65920SOL     OW99598   8.489   4.878   4.932
65920SOL    HW199599   8.496   4.932   4.854
65920SOL    HW299600   8.395   4.859   4.939
65921SOL     OW99601   4.476  12.794   5.040
65921SOL    HW199602   4.505  12.885   5.044
65921SOL    HW299603   4.381  12.798   5.039
65922SOL     OW99604   2.714   3.577   1.473
65922SOL    HW199605   2.703   3.484   1.492
65922SOL    HW299606   2.710   3.619   1.559
65923SOL     OW99607   7.804   4.462  13.199
65923SOL    HW199608   7.823   4.424  13.285
65923SOL    HW299609   7.875   4.432  13.143
65924SOL     OW99610   8.121   6.347  11.344
65924SOL    HW199611   8.143   6.415  11.280
65924SOL    HW299612   8.163   6.376  11.425
65925SOL     OW99613  12.155   8.069  10.251
65925SOL    HW199614  12.209   8.109  10.183
65925SOL    HW299615  12.083   8.130  10.263
65926SOL     OW99616   2.742   8.652   7.802
65926SOL    HW199617   2.754   8.600   7.881
65926SOL    HW299618   2.652   8.636   7.776
65927SOL     OW99619   8.756   9.511   8.750
65927SOL    HW199620   8.815   9.472   8.815
65927SOL    HW299621   8.806   9.584   8.714
65928SOL     OW99622   8.942   6.204   2.428
65928SOL    HW199623   8.955   6.158   2.511
65928SOL    HW299624   8.981   6.290   2.443
65929SOL     OW99625  12.541   4.543  13.937
65929SOL    HW199626  12.476   4.534  14.007
65929SOL    HW299627  12.615   4.490  13.966
65930SOL     OW99628   2.589   3.296   9.260
65930SOL    HW199629   2.625   3.235   9.323
65930SOL    HW299630   2.524   3.246   9.211
65931SOL     OW99631   8.110   9.849  11.109
65931SOL    HW199632   8.070   9.853  11.196
65931SOL    HW299633   8.108   9.939  11.078
65932SOL     OW99634  10.822  12.391  11.997
65932SOL    HW199635  10.846  12.440  12.075
65932SOL    HW299636  10.777  12.454  11.941
65933SOL     OW99637  13.832  10.576   9.536
65933SOL    HW199638  13.868  10.552   9.621
65933SOL    HW299639  13.760  10.635   9.557
65934SOL     OW99640  12.306   2.674   3.310
65934SOL    HW199641  12.239   2.737   3.282
65934SOL    HW299642  12.260   2.613   3.367
65935SOL     OW99643  14.422   1.461   1.982
65935SOL    HW199644  14.371   1.446   2.062
65935SOL    HW299645  14.394   1.391   1.923
65936SOL     OW99646   0.006   4.301   2.380
65936SOL    HW199647  14.848   4.266   2.301
65936SOL    HW299648   0.037   4.388   2.355
65937SOL     OW99649   2.763   1.639   4.697
65937SOL    HW199650   2.727   1.597   4.775
65937SOL    HW299651   2.736   1.731   4.704
65938SOL     OW99652   4.287  14.624   7.048
65938SOL    HW199653   4.347  14.604   6.976
65938SOL    HW299654   4.201  14.628   7.007
65939SOL     OW99655   5.512  12.007  11.284
65939SOL    HW199656   5.512  12.096  11.250
65939SOL    HW299657   5.423  11.975  11.266
65940SOL     OW99658   9.251  11.560  11.159
65940SOL    HW199659   9.271  11.477  11.116
65940SOL    HW299660   9.327  11.578  11.214
65941SOL     OW99661   3.452  11.602   2.068
65941SOL    HW199662   3.436  11.696   2.070
65941SOL    HW299663   3.546  11.593   2.081
65942SOL     OW99664   5.018  11.259   9.489
65942SOL    HW199665   5.104  11.288   9.458
65942SOL    HW299666   4.956  11.321   9.452
65943SOL     OW99667   5.678  14.729   8.924
65943SOL    HW199668   5.698  14.700   8.834
65943SOL    HW299669   5.689  14.824   8.921
65944SOL     OW99670   8.538   7.122   2.573
65944SOL    HW199671   8.609   7.107   2.510
65944SOL    HW299672   8.581   7.125   2.658
65945SOL     OW99673   4.759  14.821   3.965
65945SOL    HW199674   4.785  14.862   3.882
65945SOL    HW299675   4.666  14.803   3.954
65946SOL     OW99676  10.234  11.998   7.250
65946SOL    HW199677  10.261  12.025   7.338
65946SOL    HW299678  10.300  12.035   7.192
65947SOL     OW99679  10.201   0.314   8.272
65947SOL    HW199680  10.170   0.401   8.248
65947SOL    HW299681  10.194   0.311   8.367
65948SOL     OW99682  11.840   1.758   4.953
65948SOL    HW199683  11.754   1.720   4.970
65948SOL    HW299684  11.897   1.682   4.939
65949SOL     OW99685  10.970   4.225   8.788
65949SOL    HW199686  10.978   4.255   8.878
65949SOL    HW299687  10.875   4.214   8.775
65950SOL     OW99688   0.654   2.079   0.154
65950SOL    HW199689   0.741   2.059   0.189
65950SOL    HW299690   0.660   2.169   0.122
65951SOL     OW99691  14.344   7.616   8.051
65951SOL    HW199692  14.362   7.689   8.110
65951SOL    HW299693  14.254   7.630   8.022
65952SOL     OW99694   8.003   4.587   4.033
65952SOL    HW199695   8.000   4.639   3.953
65952SOL    HW299696   8.040   4.646   4.099
65953SOL     OW99697   8.400  11.943  12.790
65953SOL    HW199698   8.443  11.873  12.838
65953SOL    HW299699   8.454  11.955  12.712
65954SOL     OW99700   3.289   8.056   4.815
65954SOL    HW199701   3.312   8.039   4.724
65954SOL    HW299702   3.269   8.150   4.818
65955SOL     OW99703   6.774   8.533  12.447
65955SOL    HW199704   6.807   8.461  12.393
65955SOL    HW299705   6.679   8.523  12.446
65956SOL     OW99706   4.550   8.429   9.761
65956SOL    HW199707   4.570   8.433   9.855
65956SOL    HW299708   4.499   8.349   9.751
65957SOL     OW99709  14.643   8.081  12.064
65957SOL    HW199710  14.555   8.117  12.072
65957SOL    HW299711  14.638   7.996  12.107
65958SOL     OW99712   9.427  10.836   5.095
65958SOL    HW199713   9.503  10.779   5.079
65958SOL    HW299714   9.397  10.861   5.008
65959SOL     OW99715  11.169   2.204   1.427
65959SOL    HW199716  11.256   2.185   1.391
65959SOL    HW299717  11.127   2.119   1.434
65960SOL     OW99718  13.991   2.791  11.394
65960SOL    HW199719  13.966   2.808  11.303
65960SOL    HW299720  14.029   2.703  11.392
65961SOL     OW99721   0.058   0.202  14.236
65961SOL    HW199722   0.006   0.169  14.309
65961SOL    HW299723   0.092   0.286  14.268
65962SOL     OW99724  14.153  11.229  10.436
65962SOL    HW199725  14.182  11.266  10.519
65962SOL    HW299726  14.227  11.241  10.377
65963SOL     OW99727   1.316  10.141   9.085
65963SOL    HW199728   1.312  10.174   8.995
65963SOL    HW299729   1.409  10.130   9.102
65964SOL     OW99730   2.776  12.524   8.288
65964SOL    HW199731   2.731  12.564   8.214
65964SOL    HW299732   2.775  12.592   8.356
65965SOL     OW99733   8.912  11.470   6.669
65965SOL    HW199734   8.957  11.501   6.748
65965SOL    HW299735   8.839  11.418   6.703
65966SOL     OW99736  12.184  12.140  14.644
65966SOL    HW199737  12.182  12.053  14.683
65966SOL    HW299738  12.146  12.198  14.711
65967SOL     OW99739   4.256   4.348   3.729
65967SOL    HW199740   4.293   4.304   3.805
65967SOL    HW299741   4.259   4.441   3.751
65968SOL     OW99742   5.121   6.941   4.415
65968SOL    HW199743   5.098   7.022   4.369
65968SOL    HW299744   5.187   6.969   4.479
65969SOL     OW99745   2.001   9.707  12.576
65969SOL    HW199746   2.049   9.788  12.595
65969SOL    HW299747   1.963   9.682  12.660
65970SOL     OW99748   0.519  12.692  12.891
65970SOL    HW199749   0.507  12.668  12.799
65970SOL    HW299750   0.562  12.616  12.930
65971SOL     OW99751  12.395  10.262   2.020
65971SOL    HW199752  12.314  10.276   1.970
65971SOL    HW299753  12.396  10.334   2.084
65972SOL     OW99754  14.182  11.313  11.059
65972SOL    HW199755  14.223  11.227  11.048
65972SOL    HW299756  14.192  11.333  11.152
65973SOL     OW99757   0.518  10.457   9.815
65973SOL    HW199758   0.505  10.427   9.905
65973SOL    HW299759   0.473  10.541   9.811
65974SOL     OW99760   1.074   7.860  12.537
65974SOL    HW199761   1.045   7.864  12.629
65974SOL    HW299762   1.151   7.804  12.540
65975SOL     OW99763   4.738   1.676   3.116
65975SOL    HW199764   4.746   1.614   3.189
65975SOL    HW299765   4.772   1.759   3.151
65976SOL     OW99766   2.131   3.417   4.066
65976SOL    HW199767   2.183   3.490   4.098
65976SOL    HW299768   2.044   3.454   4.051
65977SOL     OW99769   3.944   2.924   7.708
65977SOL    HW199770   3.960   2.860   7.778
65977SOL    HW299771   3.982   3.005   7.740
65978SOL     OW99772   3.963  12.391   9.751
65978SOL    HW199773   4.035  12.329   9.749
65978SOL    HW299774   3.906  12.359   9.821
65979SOL     OW99775   7.869   9.403   2.128
65979SOL    HW199776   7.801   9.372   2.188
65979SOL    HW299777   7.872   9.337   2.059
65980SOL     OW99778   6.238  10.327  12.260
65980SOL    HW199779   6.324  10.343  12.222
65980SOL    HW299780   6.242  10.366  12.347
65981SOL     OW99781  13.850  12.743   4.853
65981SOL    HW199782  13.919  12.779   4.909
65981SOL    HW299783  13.803  12.682   4.910
65982SOL     OW99784   6.800   5.350   7.288
65982SOL    HW199785   6.852   5.285   7.241
65982SOL    HW299786   6.850   5.432   7.277
65983SOL     OW99787  13.212   0.057   3.345
65983SOL    HW199788  13.129   0.016   3.320
65983SOL    HW299789  13.256  14.873   3.398
65984SOL     OW99790  11.017   3.427   6.853
65984SOL    HW199791  11.026   3.381   6.769
65984SOL    HW299792  11.013   3.519   6.828
65985SOL     OW99793   8.657   7.994   2.616
65985SOL    HW199794   8.673   8.056   2.688
65985SOL    HW299795   8.745   7.970   2.586
65986SOL     OW99796   4.585   4.844  13.968
65986SOL    HW199797   4.629   4.759  13.968
65986SOL    HW299798   4.495   4.824  13.992
65987SOL     OW99799   2.001   9.098   4.387
65987SOL    HW199800   2.016   9.005   4.405
65987SOL    HW299801   1.907   9.110   4.401
65988SOL     OW99802   6.508  13.014   7.511
65988SOL    HW199803   6.573  13.038   7.577
65988SOL    HW299804   6.545  12.938   7.466
65989SOL     OW99805  11.056   0.433   8.246
65989SOL    HW199806  11.108   0.511   8.264
65989SOL    HW299807  10.971   0.467   8.219
65990SOL     OW99808   5.505  10.686   1.726
65990SOL    HW199809   5.599  10.690   1.743
65990SOL    HW299810   5.481  10.596   1.745
65991SOL     OW99811   7.154   1.686   2.805
65991SOL    HW199812   7.124   1.606   2.761
65991SOL    HW299813   7.218   1.724   2.744
65992SOL     OW99814   8.832   9.746  13.329
65992SOL    HW199815   8.777   9.678  13.367
65992SOL    HW299816   8.781   9.826  13.337
65993SOL     OW99817   0.657  12.349   5.425
65993SOL    HW199818   0.749  12.337   5.449
65993SOL    HW299819   0.627  12.262   5.399
65994SOL     OW99820   8.403   5.316   7.476
65994SOL    HW199821   8.474   5.298   7.538
65994SOL    HW299822   8.426   5.400   7.437
65995SOL     OW99823   0.573  11.751   3.655
65995SOL    HW199824   0.605  11.669   3.618
65995SOL    HW299825   0.643  11.814   3.639
65996SOL     OW99826  14.292  10.458   0.083
65996SOL    HW199827  14.344  10.471   0.003
65996SOL    HW299828  14.230  10.531   0.083
65997SOL     OW99829   7.601  14.354   6.031
65997SOL    HW199830   7.522  14.301   6.032
65997SOL    HW299831   7.673  14.290   6.033
65998SOL     OW99832   7.618   4.212  10.244
65998SOL    HW199833   7.670   4.265  10.304
65998SOL    HW299834   7.527   4.235  10.264
65999SOL     OW99835  13.617   8.908   1.217
65999SOL    HW199836  13.562   8.933   1.143
65999SOL    HW299837  13.600   8.815   1.230
66000SOL     OW99838  12.709  11.422  13.985
66000SOL    HW199839  12.749  11.432  14.071
66000SOL    HW299840  12.652  11.345  13.994
66001SOL     OW99841  14.099  10.045   3.939
66001SOL    HW199842  14.141  10.076   3.859
66001SOL    HW299843  14.139   9.959   3.955
66002SOL     OW99844   1.081  14.340   1.759
66002SOL    HW199845   1.087  14.278   1.832
66002SOL    HW299846   1.171  14.370   1.747
66003SOL     OW99847  12.478   1.066  13.350
66003SOL    HW199848  12.455   0.985  13.396
66003SOL    HW299849  12.453   1.136  13.411
66004SOL     OW99850   7.874   9.558   4.367
66004SOL    HW199851   7.956   9.565   4.317
66004SOL    HW299852   7.890   9.611   4.445
66005SOL     OW99853   2.967   6.886   8.366
66005SOL    HW199854   2.938   6.961   8.315
66005SOL    HW299855   2.902   6.878   8.436
66006SOL     OW99856  11.150  11.597   6.216
66006SOL    HW199857  11.214  11.668   6.212
66006SOL    HW299858  11.107  11.608   6.300
66007SOL     OW99859   6.897   7.784  11.543
66007SOL    HW199860   6.826   7.847  11.539
66007SOL    HW299861   6.872   7.715  11.481
66008SOL     OW99862  13.634  11.071   7.404
66008SOL    HW199863  13.631  11.041   7.313
66008SOL    HW299864  13.726  11.062   7.429
66009SOL     OW99865   9.642   7.962   1.636
66009SOL    HW199866   9.641   7.995   1.546
66009SOL    HW299867   9.634   7.867   1.628
66010SOL     OW99868   6.097  14.267   7.509
66010SOL    HW199869   6.154  14.342   7.524
66010SOL    HW299870   6.057  14.250   7.594
66011SOL     OW99871  11.958   0.098   1.424
66011SOL    HW199872  11.937   0.104   1.517
66011SOL    HW299873  11.923   0.013   1.397
66012SOL     OW99874   2.028   2.276   7.108
66012SOL    HW199875   2.076   2.212   7.159
66012SOL    HW299876   1.968   2.224   7.054
66013SOL     OW99877   1.228   8.086   6.952
66013SOL    HW199878   1.214   8.181   6.950
66013SOL    HW299879   1.237   8.066   7.045
66014SOL     OW99880   9.003   4.063   6.039
66014SOL    HW199881   9.083   4.114   6.031
66014SOL    HW299882   8.933   4.125   6.017
66015SOL     OW99883  12.649   0.616   9.876
66015SOL    HW199884  12.567   0.569   9.860
66015SOL    HW299885  12.703   0.553   9.924
66016SOL     OW99886   8.238  14.302  10.072
66016SOL    HW199887   8.246  14.239  10.143
66016SOL    HW299888   8.184  14.372  10.108
66017SOL     OW99889  11.319  12.933   9.460
66017SOL    HW199890  11.371  12.958   9.384
66017SOL    HW299891  11.312  13.013   9.512
66018SOL     OW99892   5.996   4.802   2.091
66018SOL    HW199893   5.947   4.794   2.172
66018SOL    HW299894   6.084   4.770   2.113
66019SOL     OW99895  10.314   5.956   0.479
66019SOL    HW199896  10.254   6.014   0.524
66019SOL    HW299897  10.259   5.907   0.418
66020SOL     OW99898  12.753   2.864  11.446
66020SOL    HW199899  12.680   2.922  11.469
66020SOL    HW299900  12.822   2.887  11.509
66021SOL     OW99901  12.093   4.454   9.224
66021SOL    HW199902  12.054   4.406   9.296
66021SOL    HW299903  12.064   4.407   9.145
66022SOL     OW99904  14.164  13.538  14.665
66022SOL    HW199905  14.073  13.546  14.692
66022SOL    HW299906  14.211  13.602  14.719
66023SOL     OW99907   2.490   4.552  11.705
66023SOL    HW199908   2.578   4.538  11.739
66023SOL    HW299909   2.463   4.636  11.741
66024SOL     OW99910   1.512   5.949   3.123
66024SOL    HW199911   1.583   5.949   3.187
66024SOL    HW299912   1.495   6.042   3.106
66025SOL     OW99913  11.057   4.456   3.702
66025SOL    HW199914  10.975   4.407   3.697
66025SOL    HW299915  11.061   4.488   3.793
66026SOL     OW99916   3.654   2.806   7.789
66026SOL    HW199917   3.737   2.846   7.765
66026SOL    HW299918   3.674   2.712   7.799
66027SOL     OW99919   5.084   8.005  12.177
66027SOL    HW199920   5.002   8.023  12.223
66027SOL    HW299921   5.113   8.090  12.145
66028SOL     OW99922  14.406  12.762   1.769
66028SOL    HW199923  14.313  12.739   1.764
66028SOL    HW299924  14.443  12.700   1.832
66029SOL     OW99925  12.281   0.426   7.319
66029SOL    HW199926  12.277   0.370   7.242
66029SOL    HW299927  12.322   0.507   7.288
66030SOL     OW99928  12.093   0.385   5.830
66030SOL    HW199929  12.083   0.292   5.849
66030SOL    HW299930  12.112   0.387   5.736
66031SOL     OW99931   3.162  11.000  13.234
66031SOL    HW199932   3.210  10.932  13.186
66031SOL    HW299933   3.073  10.965  13.243
66032SOL     OW99934   1.073   0.227   0.744
66032SOL    HW199935   1.156   0.184   0.768
66032SOL    HW299936   1.055   0.194   0.655
66033SOL     OW99937   3.315   8.999   3.265
66033SOL    HW199938   3.352   8.992   3.177
66033SOL    HW299939   3.229   9.039   3.253
66034SOL     OW99940  11.988   4.655   2.219
66034SOL    HW199941  11.908   4.707   2.211
66034SOL    HW299942  11.971   4.576   2.168
66035SOL     OW99943   4.162  13.062  13.940
66035SOL    HW199944   4.143  12.993  13.876
66035SOL    HW299945   4.224  13.021  14.001
66036SOL     OW99946   1.822   7.876  12.729
66036SOL    HW199947   1.914   7.902  12.717
66036SOL    HW299948   1.784   7.946  12.781
66037SOL     OW99949   3.846   6.893  10.897
66037SOL    HW199950   3.862   6.819  10.956
66037SOL    HW299951   3.872   6.970  10.948
66038SOL     OW99952  13.605   0.040   6.147
66038SOL    HW199953  13.629   0.099   6.076
66038SOL    HW299954  13.609  14.834   6.109
66039SOL     OW99955   7.245   3.217   2.388
66039SOL    HW199956   7.282   3.213   2.300
66039SOL    HW299957   7.208   3.306   2.394
66040SOL     OW99958   3.020  10.627   7.394
66040SOL    HW199959   3.082  10.630   7.321
66040SOL    HW299960   3.003  10.718   7.415
66041SOL     OW99961   6.961   7.660   9.795
66041SOL    HW199962   7.005   7.661   9.710
66041SOL    HW299963   6.891   7.725   9.786
66042SOL     OW99964   1.863   5.332   8.525
66042SOL    HW199965   1.897   5.422   8.520
66042SOL    HW299966   1.797   5.328   8.456
66043SOL     OW99967   5.205   0.759  14.534
66043SOL    HW199968   5.141   0.828  14.520
66043SOL    HW299969   5.289   0.801  14.515
66044SOL     OW99970  13.975  11.972   7.330
66044SOL    HW199971  14.058  11.925   7.337
66044SOL    HW299972  13.970  12.025   7.410
66045SOL     OW99973   0.858   9.136  10.681
66045SOL    HW199974   0.855   9.043  10.703
66045SOL    HW299975   0.904   9.176  10.754
66046SOL     OW99976   8.751  10.233   9.112
66046SOL    HW199977   8.828  10.242   9.056
66046SOL    HW299978   8.786  10.210   9.198
66047SOL     OW99979  12.486  11.610   0.433
66047SOL    HW199980  12.518  11.660   0.508
66047SOL    HW299981  12.543  11.636   0.361
66048SOL     OW99982   9.876   9.492  14.827
66048SOL    HW199983   9.926   9.561  14.872
66048SOL    HW299984   9.937   9.419  14.821
66049SOL     OW99985   2.502  10.716   1.951
66049SOL    HW199986   2.533  10.791   2.002
66049SOL    HW299987   2.408  10.728   1.945
66050SOL     OW99988   2.783  10.461  11.546
66050SOL    HW199989   2.861  10.407  11.542
66050SOL    HW299990   2.812  10.548  11.518
66051SOL     OW99991   9.328   1.315  11.214
66051SOL    HW199992   9.343   1.232  11.169
66051SOL    HW299993   9.311   1.378  11.145
66052SOL     OW99994   2.444   6.669  10.716
66052SOL    HW199995   2.359   6.712  10.715
66052SOL    HW299996   2.464   6.654  10.623
66053SOL     OW99997   2.175   8.419   6.530
66053SOL    HW199998   2.198   8.460   6.613
66053SOL    HW299999   2.104   8.473   6.495
66054SOL     OW    0  13.610   3.117   7.662
66054SOL    HW1    1  13.622   3.034   7.708
66054SOL    HW2    2  13.673   3.114   7.590
66055SOL     OW    3   8.603  10.048   0.865
66055SOL    HW1    4   8.642  10.018   0.783
66055SOL    HW2    5   8.678  10.072   0.920
66056SOL     OW    6  12.030   7.638   9.192
66056SOL    HW1    7  12.036   7.719   9.244
66056SOL    HW2    8  12.020   7.668   9.102
66057SOL     OW    9  13.700   8.052   0.708
66057SOL    HW1   10  13.776   8.074   0.655
66057SOL    HW2   11  13.668   8.136   0.741
66058SOL     OW   12   0.807   9.408   2.945
66058SOL    HW1   13   0.725   9.403   2.994
66058SOL    HW2   14   0.862   9.467   2.996
66059SOL     OW   15   3.422  14.082  13.306
66059SOL    HW1   16   3.384  13.994  13.302
66059SOL    HW2   17   3.412  14.109  13.397
66060SOL     OW   18   0.801  13.865   3.734
66060SOL    HW1   19   0.730  13.852   3.671
66060SOL    HW2   20   0.757  13.893   3.814
66061SOL     OW   21  10.777  10.261   7.903
66061SOL    HW1   22  10.794  10.181   7.854
66061SOL    HW2   23  10.831  10.328   7.860
66062SOL     OW   24  11.724   7.368   2.609
66062SOL    HW1   25  11.640   7.411   2.591
66062SOL    HW2   26  11.724   7.291   2.552
66063SOL     OW   27  12.596  13.918   4.965
66063SOL    HW1   28  12.524  13.934   4.904
66063SOL    HW2   29  12.598  13.997   5.020
66064SOL     OW   30   1.490   4.035   1.000
66064SOL    HW1   31   1.531   4.099   0.941
66064SOL    HW2   32   1.559   3.971   1.016
66065SOL     OW   33   7.740   0.213   1.693
66065SOL    HW1   34   7.762   0.203   1.785
66065SOL    HW2   35   7.809   0.269   1.657
66066SOL     OW   36   4.500   1.285  13.920
66066SOL    HW1   37   4.451   1.335  13.854
66066SOL    HW2   38   4.436   1.267  13.989
66067SOL     OW   39  11.762   0.827   8.359
66067SOL    HW1   40  11.706   0.768   8.410
66067SOL    HW2   41  11.733   0.915   8.384
66068SOL     OW   42   0.253  14.043   2.934
66068SOL    HW1   43   0.334  14.066   2.980
66068SOL    HW2   44   0.261  14.087   2.849
66069SOL     OW   45   8.031   6.953  10.684
66069SOL    HW1   46   7.950   6.994  10.715
66069SOL    HW2   47   8.006   6.863  10.664
66070SOL     OW   48   2.295   6.298  14.240
66070SOL    HW1   49   2.311   6.379  14.289
66070SOL    HW2   50   2.266   6.327  14.154
66071SOL     OW   51   9.640   9.082  12.388
66071SOL    HW1   52   9.659   9.123  12.303
66071SOL    HW2   53   9.547   9.060  12.384
66072SOL     OW   54   3.717   3.472  11.101
66072SOL    HW1   55   3.648   3.539  11.107
66072SOL    HW2   56   3.783   3.510  11.042
66073SOL     OW   57  14.354   2.257  14.384
66073SOL    HW1   58  14.338   2.212  14.301
66073SOL    HW2   59  14.448   2.246  14.399
66074SOL     OW   60  10.220   5.912  12.970
66074SOL    HW1   61  10.134   5.936  12.935
66074SOL    HW2   62  10.275   5.989  12.951
66075SOL     OW   63   5.418   2.164   3.322
66075SOL    HW1   64   5.341   2.113   3.346
66075SOL    HW2   65   5.482   2.144   3.389
66076SOL     OW   66   3.993  12.155   0.670
66076SOL    HW1   67   4.057  12.103   0.622
66076SOL    HW2   68   3.939  12.091   0.717
66077SOL     OW   69   9.247   9.941  10.003
66077SOL    HW1   70   9.207   9.882  10.066
66077SOL    HW2   71   9.176  10.001   9.978
66078SOL     OW   72  11.373   7.652   0.978
66078SOL    HW1   73  11.303   7.704   0.937
66078SOL    HW2   74  11.372   7.569   0.930
66079SOL     OW   75  10.800   3.778  10.810
66079SOL    HW1   76  10.763   3.690  10.799
66079SOL    HW2   77  10.778   3.824  10.729
66080SOL     OW   78  13.312  12.279   2.660
66080SOL    HW1   79  13.375  12.289   2.731
66080SOL    HW2   80  13.256  12.207   2.688
66081SOL     OW   81   9.941  14.864   8.342
66081SOL    HW1   82   9.873  14.821   8.290
66081SOL    HW2   83   9.942   0.072   8.310
66082SOL     OW   84   6.830  13.954   8.574
66082SOL    HW1   85   6.755  13.961   8.633
66082SOL    HW2   86   6.897  14.009   8.613
66083SOL     OW   87   4.699   6.451   0.151
66083SOL    HW1   88   4.756   6.447   0.228
66083SOL    HW2   89   4.728   6.379   0.095
66084SOL     OW   90  14.044   8.494   3.526
66084SOL    HW1   91  14.060   8.449   3.609
66084SOL    HW2   92  14.125   8.542   3.509
66085SOL     OW   93   0.453   3.936   7.160
66085SOL    HW1   94   0.371   3.978   7.185
66085SOL    HW2   95   0.513   4.008   7.143
66086SOL     OW   96  11.154   6.238  11.879
66086SOL    HW1   97  11.180   6.284  11.959
66086SOL    HW2   98  11.091   6.297  11.837
66087SOL     OW   99   4.075   3.553   1.499
66087SOL    HW1  100   4.158   3.597   1.478
66087SOL    HW2  101   4.009   3.600   1.448
66088SOL     OW  102   8.811  13.616   7.573
66088SOL    HW1  103   8.838  13.694   7.622
66088SOL    HW2  104   8.718  13.630   7.555
66089SOL     OW  105  11.396   7.905  10.738
66089SOL    HW1  106  11.447   7.835  10.697
66089SOL    HW2  107  11.320   7.916  10.680
66090SOL     OW  108   5.966   2.367   3.618
66090SOL    HW1  109   6.021   2.290   3.631
66090SOL    HW2  110   5.950   2.369   3.524
66091SOL     OW  111  11.137   3.144   1.195
66091SOL    HW1  112  11.171   3.194   1.120
66091SOL    HW2  113  11.054   3.185   1.216
66092SOL     OW  114   8.832  12.618  11.557
66092SOL    HW1  115   8.895  12.690  11.554
66092SOL    HW2  116   8.847  12.570  11.475
66093SOL     OW  117   0.635   3.609  11.767
66093SOL    HW1  118   0.595   3.522  11.757
66093SOL    HW2  119   0.586   3.651  11.837
66094SOL     OW  120  13.554   8.462  11.352
66094SOL    HW1  121  13.591   8.528  11.294
66094SOL    HW2  122  13.629   8.409  11.379
66095SOL     OW  123   4.686  13.849   7.773
66095SOL    HW1  124   4.601  13.883   7.744
66095SOL    HW2  125   4.708  13.901   7.850
66096SOL     OW  126   0.586   9.678   3.434
66096SOL    HW1  127   0.647   9.626   3.382
66096SOL    HW2  128   0.563   9.621   3.508
66097SOL     OW  129  12.148   3.013   1.364
66097SOL    HW1  130  12.225   2.964   1.392
66097SOL    HW2  131  12.110   2.961   1.293
66098SOL     OW  132   7.850   0.663   8.077
66098SOL    HW1  133   7.872   0.617   8.159
66098SOL    HW2  134   7.784   0.608   8.035
66099SOL     OW  135  11.014   0.186  10.405
66099SOL    HW1  136  10.983   0.225  10.322
66099SOL    HW2  137  11.092   0.136  10.380
66100SOL     OW  138   0.792  13.028   3.132
66100SOL    HW1  139   0.767  13.026   3.040
66100SOL    HW2  140   0.712  13.005   3.179
66101SOL     OW  141   2.059  13.575  14.687
66101SOL    HW1  142   2.009  13.496  14.708
66101SOL    HW2  143   2.102  13.555  14.605
66102SOL     OW  144   1.085   5.633  12.106
66102SOL    HW1  145   1.020   5.664  12.043
66102SOL    HW2  146   1.037   5.569  12.160
66103SOL     OW  147   2.341   5.439  10.833
66103SOL    HW1  148   2.318   5.473  10.920
66103SOL    HW2  149   2.360   5.346  10.847
66104SOL     OW  150   9.403  13.354   6.162
66104SOL    HW1  151   9.349  13.327   6.088
66104SOL    HW2  152   9.491  13.360   6.126
66105SOL     OW  153  14.499   2.352   6.633
66105SOL    HW1  154  14.508   2.370   6.539
66105SOL    HW2  155  14.460   2.264   6.637
66106SOL     OW  156  13.920   2.938   3.157
66106SOL    HW1  157  14.010   2.935   3.189
66106SOL    HW2  158  13.870   2.888   3.220
66107SOL     OW  159  13.011   2.064   8.963
66107SOL    HW1  160  13.066   2.066   8.885
66107SOL    HW2  161  12.966   1.979   8.958
66108SOL     OW  162  13.535   3.214   1.220
66108SOL    HW1  163  13.536   3.208   1.125
66108SOL    HW2  164  13.613   3.264   1.242
66109SOL     OW  165   7.866  10.706   0.811
66109SOL    HW1  166   7.906  10.762   0.877
66109SOL    HW2  167   7.889  10.746   0.728
66110SOL     OW  168   7.483  12.070  11.666
66110SOL    HW1  169   7.460  12.061  11.759
66110SOL    HW2  170   7.539  11.996  11.648
66111SOL     OW  171   2.954  14.026   9.436
66111SOL    HW1  172   3.011  14.059   9.506
66111SOL    HW2  173   2.878  13.990   9.483
66112SOL     OW  174   5.770   0.743   6.858
66112SOL    HW1  175   5.784   0.721   6.766
66112SOL    HW2  176   5.684   0.784   6.860
66113SOL     OW  177  11.574  10.399   8.514
66113SOL    HW1  178  11.654  10.370   8.559
66113SOL    HW2  179  11.604  10.428   8.428
66114SOL     OW  180   0.568   3.433   3.896
66114SOL    HW1  181   0.542   3.501   3.958
66114SOL    HW2  182   0.663   3.427   3.904
66115SOL     OW  183  12.430   2.977   3.756
66115SOL    HW1  184  12.444   2.883   3.767
66115SOL    HW2  185  12.471   2.998   3.672
66116SOL     OW  186   6.865   2.955   9.567
66116SOL    HW1  187   6.926   3.010   9.618
66116SOL    HW2  188   6.850   3.005   9.487
66117SOL     OW  189   5.591   8.009   5.833
66117SOL    HW1  190   5.679   8.007   5.871
66117SOL    HW2  191   5.545   8.075   5.884
66118SOL     OW  192  14.295  14.054   0.347
66118SOL    HW1  193  14.289  14.097   0.261
66118SOL    HW2  194  14.219  14.085   0.395
66119SOL     OW  195  11.168   2.984  11.535
66119SOL    HW1  196  11.177   2.924  11.609
66119SOL    HW2  197  11.075   3.007  11.535
66120SOL     OW  198   4.362   4.900   6.881
66120SOL    HW1  199   4.386   4.965   6.815
66120SOL    HW2  200   4.439   4.895   6.939
66121SOL     OW  201  13.769  11.765   7.185
66121SOL    HW1  202  13.804  11.826   7.121
66121SOL    HW2  203  13.829  11.772   7.260
66122SOL     OW  204   3.064  13.110  14.512
66122SOL    HW1  205   3.084  13.050  14.440
66122SOL    HW2  206   3.056  13.054  14.588
66123SOL     OW  207   9.533  11.212   5.270
66123SOL    HW1  208   9.535  11.129   5.318
66123SOL    HW2  209   9.603  11.205   5.205
66124SOL     OW  210  14.772   4.243   3.469
66124SOL    HW1  211  14.696   4.270   3.418
66124SOL    HW2  212  14.843   4.299   3.438
66125SOL     OW  213  11.736   5.742   5.885
66125SOL    HW1  214  11.652   5.754   5.931
66125SOL    HW2  215  11.743   5.818   5.828
66126SOL     OW  216   0.424   0.646   3.238
66126SOL    HW1  217   0.358   0.699   3.284
66126SOL    HW2  218   0.476   0.709   3.189
66127SOL     OW  219  13.406   3.014   5.336
66127SOL    HW1  220  13.418   3.070   5.259
66127SOL    HW2  221  13.372   3.073   5.404
66128SOL     OW  222  11.006   2.894   2.045
66128SOL    HW1  223  10.991   2.820   1.986
66128SOL    HW2  224  11.020   2.969   1.987
66129SOL     OW  225  12.763   8.082   2.930
66129SOL    HW1  226  12.833   8.070   2.865
66129SOL    HW2  227  12.685   8.044   2.888
66130SOL     OW  228   8.412   7.193   9.260
66130SOL    HW1  229   8.319   7.175   9.249
66130SOL    HW2  230   8.427   7.191   9.354
66131SOL     OW  231   4.545  14.098  12.247
66131SOL    HW1  232   4.620  14.125  12.300
66131SOL    HW2  233   4.522  14.176  12.196
66132SOL     OW  234   0.943  13.028   8.365
66132SOL    HW1  235   0.873  12.964   8.353
66132SOL    HW2  236   0.922  13.098   8.304
66133SOL     OW  237  11.383  14.855   6.521
66133SOL    HW1  238  11.371   0.025   6.601
66133SOL    HW2  239  11.471  14.818   6.529
66134SOL     OW  240   9.438  13.767   2.079
66134SOL    HW1  241   9.462  13.682   2.117
66134SOL    HW2  242   9.344  13.775   2.095
66135SOL     OW  243   6.167   9.930   2.335
66135SOL    HW1  244   6.141   9.847   2.377
66135SOL    HW2  245   6.245   9.958   2.384
66136SOL     OW  246   0.129   5.732  13.580
66136SOL    HW1  247   0.153   5.680  13.657
66136SOL    HW2  248   0.037   5.755  13.595
66137SOL     OW  249  13.182   7.442   5.502
66137SOL    HW1  250  13.244   7.385   5.458
66137SOL    HW2  251  13.204   7.531   5.472
66138SOL     OW  252   0.665   8.081   7.559
66138SOL    HW1  253   0.598   8.017   7.537
66138SOL    HW2  254   0.748   8.035   7.546
66139SOL     OW  255   7.241  12.012   9.145
66139SOL    HW1  256   7.201  12.045   9.064
66139SOL    HW2  257   7.334  12.031   9.135
66140SOL     OW  258  12.575  10.534   6.331
66140SOL    HW1  259  12.637  10.482   6.280
66140SOL    HW2  260  12.555  10.481   6.407
66141SOL     OW  261   2.470   6.810   0.643
66141SOL    HW1  262   2.540   6.751   0.670
66141SOL    HW2  263   2.472   6.881   0.708
66142SOL     OW  264  13.510  11.908   6.816
66142SOL    HW1  265  13.447  11.981   6.816
66142SOL    HW2  266  13.547  11.909   6.728
66143SOL     OW  267  14.454   4.336   6.256
66143SOL    HW1  268  14.491   4.337   6.345
66143SOL    HW2  269  14.482   4.419   6.218
66144SOL     OW  270   5.110  10.951  14.566
66144SOL    HW1  271   5.186  10.894  14.579
66144SOL    HW2  272   5.139  11.015  14.500
66145SOL     OW  273   1.773   8.517   7.267
66145SOL    HW1  274   1.693   8.465   7.282
66145SOL    HW2  275   1.751   8.575   7.195
66146SOL     OW  276  10.502  14.375   2.184
66146SOL    HW1  277  10.503  14.440   2.253
66146SOL    HW2  278  10.572  14.401   2.125
66147SOL     OW  279   9.809   6.512  13.771
66147SOL    HW1  280   9.839   6.538  13.858
66147SOL    HW2  281   9.878   6.541  13.711
66148SOL     OW  282   3.428  13.556  11.827
66148SOL    HW1  283   3.519  13.580  11.846
66148SOL    HW2  284   3.431  13.461  11.812
66149SOL     OW  285   8.251   0.120   2.248
66149SOL    HW1  286   8.331   0.067   2.247
66149SOL    HW2  287   8.210   0.099   2.332
66150SOL     OW  288  10.458   6.972  11.125
66150SOL    HW1  289  10.363   6.964  11.115
66150SOL    HW2  290  10.488   7.013  11.044
66151SOL     OW  291   2.517  11.189   9.763
66151SOL    HW1  292   2.594  11.181   9.707
66151SOL    HW2  293   2.505  11.101   9.800
66152SOL     OW  294   6.046   8.615   7.721
66152SOL    HW1  295   6.077   8.576   7.803
66152SOL    HW2  296   5.966   8.661   7.745
66153SOL     OW  297   0.652   3.785   0.929
66153SOL    HW1  298   0.614   3.827   0.852
66153SOL    HW2  299   0.726   3.840   0.953
66154SOL     OW  300  11.987  12.411   0.852
66154SOL    HW1  301  11.999  12.387   0.944
66154SOL    HW2  302  11.898  12.381   0.831
66155SOL     OW  303  10.930  12.938   0.990
66155SOL    HW1  304  10.916  13.020   1.037
66155SOL    HW2  305  10.873  12.875   1.034
66156SOL     OW  306   4.812  10.889   4.832
66156SOL    HW1  307   4.899  10.861   4.805
66156SOL    HW2  308   4.797  10.845   4.915
66157SOL     OW  309   5.829   3.263   9.242
66157SOL    HW1  310   5.881   3.197   9.195
66157SOL    HW2  311   5.743   3.259   9.202
66158SOL     OW  312   5.926  14.314   2.021
66158SOL    HW1  313   5.941  14.405   2.045
66158SOL    HW2  314   5.926  14.314   1.925
66159SOL     OW  315  13.608   5.017   0.638
66159SOL    HW1  316  13.517   5.027   0.667
66159SOL    HW2  317  13.658   5.074   0.695
66160SOL     OW  318   8.823  11.331   2.371
66160SOL    HW1  319   8.841  11.307   2.280
66160SOL    HW2  320   8.727  11.337   2.375
66161SOL     OW  321   0.946  14.593   2.122
66161SOL    HW1  322   0.860  14.586   2.164
66161SOL    HW2  323   0.939  14.538   2.044
66162SOL     OW  324  11.385  12.183   6.111
66162SOL    HW1  325  11.377  12.100   6.064
66162SOL    HW2  326  11.343  12.247   6.053
66163SOL     OW  327   0.993   6.599   0.941
66163SOL    HW1  328   1.085   6.596   0.969
66163SOL    HW2  329   0.960   6.681   0.977
66164SOL     OW  330   1.697   8.492   9.482
66164SOL    HW1  331   1.661   8.466   9.397
66164SOL    HW2  332   1.629   8.465   9.545
66165SOL     OW  333   9.262   2.562   6.041
66165SOL    HW1  334   9.223   2.581   5.955
66165SOL    HW2  335   9.340   2.618   6.044
66166SOL     OW  336   3.995   1.026   9.022
66166SOL    HW1  337   4.086   1.043   9.042
66166SOL    HW2  338   3.997   0.982   8.937
66167SOL     OW  339   4.006   2.388   1.437
66167SOL    HW1  340   4.059   2.452   1.485
66167SOL    HW2  341   3.948   2.350   1.504
66168SOL     OW  342  13.525  10.087  13.960
66168SOL    HW1  343  13.477  10.007  13.941
66168SOL    HW2  344  13.540  10.127  13.874
66169SOL     OW  345   6.048  14.305  13.752
66169SOL    HW1  346   5.961  14.338  13.728
66169SOL    HW2  347   6.100  14.383  13.768
66170SOL     OW  348   0.915  10.616   3.134
66170SOL    HW1  349   0.904  10.699   3.086
66170SOL    HW2  350   1.003  10.586   3.111
66171SOL     OW  351  11.105  12.789   5.007
66171SOL    HW1  352  11.088  12.788   5.102
66171SOL    HW2  353  11.172  12.722   4.994
66172SOL     OW  354   6.551  12.461   0.786
66172SOL    HW1  355   6.551  12.395   0.856
66172SOL    HW2  356   6.491  12.426   0.720
66173SOL     OW  357   2.547   5.691  13.019
66173SOL    HW1  358   2.610   5.630  13.056
66173SOL    HW2  359   2.482   5.704  13.088
66174SOL     OW  360   8.944   8.844   6.366
66174SOL    HW1  361   8.891   8.765   6.375
66174SOL    HW2  362   8.908   8.905   6.430
66175SOL     OW  363   1.500  13.059   2.406
66175SOL    HW1  364   1.500  13.143   2.453
66175SOL    HW2  365   1.415  13.057   2.361
66176SOL     OW  366  12.534  10.353  11.198
66176SOL    HW1  367  12.516  10.297  11.123
66176SOL    HW2  368  12.467  10.330  11.262
66177SOL     OW  369   4.429   6.430   3.496
66177SOL    HW1  370   4.499   6.372   3.527
66177SOL    HW2  371   4.469   6.482   3.427
66178SOL     OW  372   3.118   7.555   0.407
66178SOL    HW1  373   3.187   7.587   0.466
66178SOL    HW2  374   3.165   7.521   0.331
66179SOL     OW  375  12.547   6.047  13.227
66179SOL    HW1  376  12.547   6.107  13.302
66179SOL    HW2  377  12.490   6.089  13.163
66180SOL     OW  378   2.472   6.895   7.621
66180SOL    HW1  379   2.523   6.814   7.627
66180SOL    HW2  380   2.467   6.927   7.712
66181SOL     OW  381   9.610  10.671   3.257
66181SOL    HW1  382   9.571  10.667   3.170
66181SOL    HW2  383   9.546  10.718   3.310
66182SOL     OW  384   8.452   7.202  11.285
66182SOL    HW1  385   8.415   7.114  11.292
66182SOL    HW2  386   8.544   7.192  11.307
66183SOL     OW  387  13.338   7.522  13.498
66183SOL    HW1  388  13.420   7.551  13.457
66183SOL    HW2  389  13.269   7.562  13.445
66184SOL     OW  390   6.729   5.251  13.311
66184SOL    HW1  391   6.726   5.241  13.216
66184SOL    HW2  392   6.642   5.284  13.334
66185SOL     OW  393   6.316  12.428  14.424
66185SOL    HW1  394   6.299  12.372  14.500
66185SOL    HW2  395   6.258  12.503  14.436
66186SOL     OW  396  12.897  12.607  10.201
66186SOL    HW1  397  12.841  12.684  10.208
66186SOL    HW2  398  12.978  12.640  10.164
66187SOL     OW  399   7.807  14.509  10.513
66187SOL    HW1  400   7.789  14.483  10.422
66187SOL    HW2  401   7.855  14.435  10.551
66188SOL     OW  402   4.343   3.027  13.153
66188SOL    HW1  403   4.376   3.114  13.129
66188SOL    HW2  404   4.417   2.986  13.198
66189SOL     OW  405  11.701   0.729  14.275
66189SOL    HW1  406  11.641   0.715  14.201
66189SOL    HW2  407  11.788   0.716  14.237
66190SOL     OW  408   1.164   0.481   2.092
66190SOL    HW1  409   1.130   0.404   2.136
66190SOL    HW2  410   1.087   0.528   2.062
66191SOL     OW  411  11.229   6.637  10.514
66191SOL    HW1  412  11.157   6.700  10.519
66191SOL    HW2  413  11.265   6.635  10.603
66192SOL     OW  414   8.028   3.427  10.235
66192SOL    HW1  415   8.116   3.395  10.216
66192SOL    HW2  416   7.977   3.349  10.254
66193SOL     OW  417   2.113  13.185  12.368
66193SOL    HW1  418   2.114  13.090  12.384
66193SOL    HW2  419   2.097  13.224  12.453
66194SOL     OW  420   3.375   6.675   4.020
66194SOL    HW1  421   3.466   6.660   3.994
66194SOL    HW2  422   3.379   6.691   4.115
66195SOL     OW  423   5.167  11.695   7.668
66195SOL    HW1  424   5.207  11.761   7.725
66195SOL    HW2  425   5.221  11.618   7.678
66196SOL     OW  426   2.280  13.559   7.520
66196SOL    HW1  427   2.214  13.565   7.589
66196SOL    HW2  428   2.249  13.618   7.452
66197SOL     OW  429   8.212  12.079  14.521
66197SOL    HW1  430   8.167  12.009  14.474
66197SOL    HW2  431   8.292  12.094  14.471
66198SOL     OW  432   6.437   8.598  14.371
66198SOL    HW1  433   6.454   8.515  14.416
66198SOL    HW2  434   6.353   8.585  14.329
66199SOL     OW  435   3.154  13.222   6.575
66199SOL    HW1  436   3.068  13.259   6.557
66199SOL    HW2  437   3.140  13.159   6.645
66200SOL     OW  438   5.486  14.566  12.682
66200SOL    HW1  439   5.533  14.532  12.605
66200SOL    HW2  440   5.515  14.511  12.754
66201SOL     OW  441   9.067  10.707   9.568
66201SOL    HW1  442   9.027  10.628   9.604
66201SOL    HW2  443   9.093  10.759   9.644
66202SOL     OW  444   3.122  11.161   8.356
66202SOL    HW1  445   3.046  11.130   8.307
66202SOL    HW2  446   3.156  11.083   8.400
66203SOL     OW  447  14.642   8.436   6.294
66203SOL    HW1  448  14.607   8.348   6.308
66203SOL    HW2  449  14.606   8.488   6.365
66204SOL     OW  450   6.023   9.157   1.613
66204SOL    HW1  451   5.957   9.094   1.584
66204SOL    HW2  452   6.099   9.140   1.557
66205SOL     OW  453  12.786   8.810   9.379
66205SOL    HW1  454  12.816   8.732   9.333
66205SOL    HW2  455  12.759   8.778   9.465
66206SOL     OW  456  13.604   2.130  14.438
66206SOL    HW1  457  13.573   2.216  14.409
66206SOL    HW2  458  13.590   2.073  14.363
66207SOL     OW  459   8.368   8.943  14.686
66207SOL    HW1  460   8.307   8.885  14.641
66207SOL    HW2  461   8.412   8.887  14.750
66208SOL     OW  462   0.366   9.147   4.334
66208SOL    HW1  463   0.457   9.115   4.335
66208SOL    HW2  464   0.322   9.091   4.271
66209SOL     OW  465   7.580   2.153  12.895
66209SOL    HW1  466   7.517   2.153  12.823
66209SOL    HW2  467   7.579   2.243  12.927
66210SOL     OW  468   1.449  10.467  10.065
66210SOL    HW1  469   1.543  10.481  10.061
66210SOL    HW2  470   1.437  10.373  10.056
66211SOL     OW  471   6.010  14.242   4.981
66211SOL    HW1  472   6.100  14.276   4.973
66211SOL    HW2  473   5.978  14.280   5.063
66212SOL     OW  474  12.238   5.174   2.266
66212SOL    HW1  475  12.160   5.230   2.267
66212SOL    HW2  476  12.206   5.088   2.294
66213SOL     OW  477   0.598   8.156   7.827
66213SOL    HW1  478   0.590   8.143   7.733
66213SOL    HW2  479   0.589   8.068   7.864
66214SOL     OW  480  10.114  11.645   5.634
66214SOL    HW1  481  10.054  11.698   5.582
66214SOL    HW2  482  10.132  11.698   5.712
66215SOL     OW  483   8.235   8.503  14.462
66215SOL    HW1  484   8.208   8.595  14.466
66215SOL    HW2  485   8.191   8.463  14.537
66216SOL     OW  486   2.322   7.154  11.644
66216SOL    HW1  487   2.390   7.114  11.590
66216SOL    HW2  488   2.362   7.233  11.679
66217SOL     OW  489   3.495   4.177  12.197
66217SOL    HW1  490   3.520   4.120  12.124
66217SOL    HW2  491   3.571   4.176  12.255
66218SOL     OW  492   2.430   9.220   0.962
66218SOL    HW1  493   2.408   9.141   0.911
66218SOL    HW2  494   2.525   9.225   0.959
66219SOL     OW  495   6.107   5.862   1.481
66219SOL    HW1  496   6.152   5.903   1.554
66219SOL    HW2  497   6.014   5.871   1.501
66220SOL     OW  498  10.841   4.111   0.974
66220SOL    HW1  499  10.806   4.165   1.045
66220SOL    HW2  500  10.862   4.174   0.905
66221SOL     OW  501   8.643  14.167   5.486
66221SOL    HW1  502   8.683  14.080   5.488
66221SOL    HW2  503   8.708  14.224   5.527
66222SOL     OW  504   7.268  13.845   0.685
66222SOL    HW1  505   7.235  13.935   0.691
66222SOL    HW2  506   7.362  13.854   0.671
66223SOL     OW  507   0.367   8.882  10.396
66223SOL    HW1  508   0.342   8.974  10.397
66223SOL    HW2  509   0.434   8.874  10.464
66224SOL     OW  510  12.850  10.779   8.003
66224SOL    HW1  511  12.894  10.835   7.939
66224SOL    HW2  512  12.853  10.692   7.964
66225SOL     OW  513   1.378   8.175   0.080
66225SOL    HW1  514   1.383   8.223   0.162
66225SOL    HW2  515   1.466   8.137   0.069
66226SOL     OW  516  11.997   4.490   5.164
66226SOL    HW1  517  12.063   4.450   5.220
66226SOL    HW2  518  11.965   4.418   5.109
66227SOL     OW  519   0.328  12.024  11.371
66227SOL    HW1  520   0.361  11.944  11.412
66227SOL    HW2  521   0.402  12.085  11.376
66228SOL     OW  522   4.641  12.261   0.871
66228SOL    HW1  523   4.734  12.283   0.869
66228SOL    HW2  524   4.633  12.200   0.945
66229SOL     OW  525   1.476  12.319   3.701
66229SOL    HW1  526   1.536  12.376   3.749
66229SOL    HW2  527   1.532  12.275   3.636
66230SOL     OW  528   5.775   9.547   7.148
66230SOL    HW1  529   5.817   9.609   7.088
66230SOL    HW2  530   5.726   9.488   7.091
66231SOL     OW  531  10.867   6.953   2.274
66231SOL    HW1  532  10.796   6.921   2.219
66231SOL    HW2  533  10.860   7.048   2.271
66232SOL     OW  534  14.775   4.398  10.428
66232SOL    HW1  535  14.748   4.344  10.353
66232SOL    HW2  536  14.756   4.488  10.399
66233SOL     OW  537   8.599   6.045   0.463
66233SOL    HW1  538   8.522   5.989   0.471
66233SOL    HW2  539   8.614   6.079   0.552
66234SOL     OW  540   0.968   6.671   9.832
66234SOL    HW1  541   0.983   6.613   9.907
66234SOL    HW2  542   0.873   6.686   9.832
66235SOL     OW  543   2.332   0.938  10.031
66235SOL    HW1  544   2.328   0.904  10.120
66235SOL    HW2  545   2.401   1.004  10.033
66236SOL     OW  546   6.925  13.962  10.839
66236SOL    HW1  547   6.982  13.953  10.915
66236SOL    HW2  548   6.969  13.912  10.770
66237SOL     OW  549  14.674   0.051   8.687
66237SOL    HW1  550  14.657   0.136   8.728
66237SOL    HW2  551  14.749   0.016   8.735
66238SOL     OW  552   9.783  14.287   2.146
66238SOL    HW1  553   9.772  14.336   2.064
66238SOL    HW2  554   9.710  14.316   2.201
66239SOL     OW  555  14.254   5.047   4.986
66239SOL    HW1  556  14.201   4.992   5.044
66239SOL    HW2  557  14.314   5.094   5.045
66240SOL     OW  558   7.310   5.678   1.225
66240SOL    HW1  559   7.385   5.683   1.284
66240SOL    HW2  560   7.267   5.763   1.234
66241SOL     OW  561  13.220   3.512  11.860
66241SOL    HW1  562  13.293   3.550  11.811
66241SOL    HW2  563  13.261   3.462  11.931
66242SOL     OW  564   5.745  10.004  12.689
66242SOL    HW1  565   5.787  10.023  12.773
66242SOL    HW2  566   5.730   9.909  12.690
66243SOL     OW  567   1.490  10.569  11.075
66243SOL    HW1  568   1.572  10.616  11.067
66243SOL    HW2  569   1.464  10.550  10.985
66244SOL     OW  570   9.549   6.642  10.936
66244SOL    HW1  571   9.503   6.603  10.862
66244SOL    HW2  572   9.610   6.704  10.897
66245SOL     OW  573   3.164   0.234  11.169
66245SOL    HW1  574   3.085   0.186  11.143
66245SOL    HW2  575   3.153   0.249  11.262
66246SOL     OW  576  10.155   0.521   3.143
66246SOL    HW1  577  10.177   0.614   3.135
66246SOL    HW2  578  10.227   0.476   3.099
66247SOL     OW  579   8.687  13.653  10.311
66247SOL    HW1  580   8.704  13.746  10.292
66247SOL    HW2  581   8.616  13.654  10.375
66248SOL     OW  582   0.432  12.464  12.450
66248SOL    HW1  583   0.481  12.421  12.520
66248SOL    HW2  584   0.417  12.553  12.481
66249SOL     OW  585  10.323  10.210   7.536
66249SOL    HW1  586  10.368  10.173   7.460
66249SOL    HW2  587  10.380  10.280   7.566
66250SOL     OW  588  11.422  11.347  12.802
66250SOL    HW1  589  11.494  11.384  12.853
66250SOL    HW2  590  11.375  11.291  12.864
66251SOL     OW  591   9.913  12.828   1.878
66251SOL    HW1  592   9.916  12.783   1.793
66251SOL    HW2  593   9.838  12.887   1.871
66252SOL     OW  594   8.539  10.861   3.894
66252SOL    HW1  595   8.565  10.771   3.876
66252SOL    HW2  596   8.558  10.874   3.987
66253SOL     OW  597   9.044   0.335   0.996
66253SOL    HW1  598   9.093   0.412   1.025
66253SOL    HW2  599   8.957   0.368   0.975
66254SOL     OW  600   0.201  13.718   6.700
66254SOL    HW1  601   0.180  13.641   6.752
66254SOL    HW2  602   0.182  13.792   6.758
66255SOL     OW  603   0.131  14.533   4.097
66255SOL    HW1  604   0.147  14.486   4.178
66255SOL    HW2  605   0.096  14.618   4.125
66256SOL     OW  606   5.467   0.632   5.670
66256SOL    HW1  607   5.409   0.623   5.594
66256SOL    HW2  608   5.523   0.707   5.648
66257SOL     OW  609  14.196   8.103   2.565
66257SOL    HW1  610  14.249   8.059   2.632
66257SOL    HW2  611  14.204   8.196   2.585
66258SOL     OW  612  12.670   7.254  13.487
66258SOL    HW1  613  12.657   7.213  13.573
66258SOL    HW2  614  12.696   7.181  13.430
66259SOL     OW  615   2.616   6.571   0.787
66259SOL    HW1  616   2.583   6.511   0.721
66259SOL    HW2  617   2.565   6.551   0.865
66260SOL     OW  618  13.083   8.795   4.220
66260SOL    HW1  619  13.172   8.759   4.218
66260SOL    HW2  620  13.081   8.857   4.146
66261SOL     OW  621  10.263  13.714  13.154
66261SOL    HW1  622  10.290  13.623  13.142
66261SOL    HW2  623  10.270  13.730  13.248
66262SOL     OW  624  13.338  14.379  10.244
66262SOL    HW1  625  13.313  14.314  10.178
66262SOL    HW2  626  13.257  14.397  10.292
66263SOL     OW  627  12.285  11.779   4.496
66263SOL    HW1  628  12.300  11.774   4.591
66263SOL    HW2  629  12.241  11.863   4.483
66264SOL     OW  630   6.036  11.238   2.559
66264SOL    HW1  631   5.943  11.218   2.565
66264SOL    HW2  632   6.063  11.200   2.475
66265SOL     OW  633   9.393   6.701  11.194
66265SOL    HW1  634   9.468   6.717  11.136
66265SOL    HW2  635   9.390   6.606  11.203
66266SOL     OW  636  13.168   1.283   4.569
66266SOL    HW1  637  13.211   1.333   4.638
66266SOL    HW2  638  13.085   1.329   4.554
66267SOL     OW  639   9.447  12.755  14.129
66267SOL    HW1  640   9.525  12.809  14.132
66267SOL    HW2  641   9.456  12.703  14.049
66268SOL     OW  642   0.673   7.325   9.943
66268SOL    HW1  643   0.595   7.350   9.993
66268SOL    HW2  644   0.646   7.332   9.851
66269SOL     OW  645   9.632   4.724  12.194
66269SOL    HW1  646   9.558   4.722  12.255
66269SOL    HW2  647   9.625   4.641  12.146
66270SOL     OW  648   1.267  13.351   9.625
66270SOL    HW1  649   1.316  13.352   9.543
66270SOL    HW2  650   1.308  13.418   9.679
66271SOL     OW  651  10.622   1.473   2.722
66271SOL    HW1  652  10.645   1.565   2.710
66271SOL    HW2  653  10.687   1.424   2.671
66272SOL     OW  654  12.471   7.990   6.056
66272SOL    HW1  655  12.501   8.079   6.041
66272SOL    HW2  656  12.428   7.964   5.975
66273SOL     OW  657   0.898  10.554   7.826
66273SOL    HW1  658   0.970  10.590   7.879
66273SOL    HW2  659   0.939  10.535   7.741
66274SOL     OW  660   5.809   3.589   4.354
66274SOL    HW1  661   5.722   3.625   4.369
66274SOL    HW2  662   5.824   3.530   4.427
66275SOL     OW  663   2.848   3.940  11.041
66275SOL    HW1  664   2.793   4.017  11.035
66275SOL    HW2  665   2.847   3.902  10.953
66276SOL     OW  666   6.344   9.032  14.019
66276SOL    HW1  667   6.300   9.115  13.998
66276SOL    HW2  668   6.358   9.036  14.113
66277SOL     OW  669   7.355  12.678   3.183
66277SOL    HW1  670   7.435  12.729   3.195
66277SOL    HW2  671   7.374  12.594   3.225
66278SOL     OW  672  10.959  13.496   6.898
66278SOL    HW1  673  10.906  13.425   6.935
66278SOL    HW2  674  10.912  13.576   6.925
66279SOL     OW  675   5.673  10.109   2.379
66279SOL    HW1  676   5.726  10.076   2.451
66279SOL    HW2  677   5.648  10.198   2.406
66280SOL     OW  678   2.294   1.863   8.396
66280SOL    HW1  679   2.214   1.835   8.440
66280SOL    HW2  680   2.356   1.881   8.466
66281SOL     OW  681  13.136   4.406  14.266
66281SOL    HW1  682  13.103   4.316  14.264
66281SOL    HW2  683  13.225   4.400  14.232
66282SOL     OW  684   7.335  13.266   9.639
66282SOL    HW1  685   7.291  13.324   9.702
66282SOL    HW2  686   7.406  13.319   9.603
66283SOL     OW  687   4.523   0.853   8.562
66283SOL    HW1  688   4.611   0.881   8.587
66283SOL    HW2  689   4.514   0.766   8.602
66284SOL     OW  690   7.937  11.189  13.660
66284SOL    HW1  691   7.914  11.230  13.744
66284SOL    HW2  692   8.027  11.159  13.672
66285SOL     OW  693  12.374   8.223   6.296
66285SOL    HW1  694  12.386   8.158   6.365
66285SOL    HW2  695  12.460   8.232   6.256
66286SOL     OW  696  14.317  10.416  11.779
66286SOL    HW1  697  14.240  10.447  11.827
66286SOL    HW2  698  14.379  10.391  11.848
66287SOL     OW  699   7.504   5.542  13.658
66287SOL    HW1  700   7.594   5.523  13.631
66287SOL    HW2  701   7.466   5.588  13.582
66288SOL     OW  702  14.740   7.719   9.114
66288SOL    HW1  703  14.753   7.779   9.187
66288SOL    HW2  704  14.810   7.740   9.052
66289SOL     OW  705   8.257   3.324   7.769
66289SOL    HW1  706   8.345   3.361   7.757
66289SOL    HW2  707   8.205   3.365   7.700
66290SOL     OW  708   9.376  13.158   6.899
66290SOL    HW1  709   9.292  13.163   6.852
66290SOL    HW2  710   9.368  13.079   6.953
66291SOL     OW  711  14.643   9.619   2.638
66291SOL    HW1  712  14.596   9.580   2.564
66291SOL    HW2  713  14.677   9.544   2.686
66292SOL     OW  714   1.110  13.738   2.711
66292SOL    HW1  715   1.089  13.794   2.786
66292SOL    HW2  716   1.191  13.694   2.736
66293SOL     OW  717  10.907   5.354   8.967
66293SOL    HW1  718  10.824   5.338   9.012
66293SOL    HW2  719  10.884   5.358   8.874
66294SOL     OW  720   1.395   5.242   9.240
66294SOL    HW1  721   1.451   5.308   9.200
66294SOL    HW2  722   1.345   5.290   9.306
66295SOL     OW  723   9.997   8.407  10.230
66295SOL    HW1  724  10.068   8.440  10.284
66295SOL    HW2  725  10.040   8.364  10.157
66296SOL     OW  726  10.982   6.355   2.302
66296SOL    HW1  727  11.017   6.337   2.390
66296SOL    HW2  728  10.951   6.270   2.271
66297SOL     OW  729   0.204   6.960   5.655
66297SOL    HW1  730   0.211   7.054   5.675
66297SOL    HW2  731   0.196   6.957   5.559
66298SOL     OW  732   4.001   2.998  14.862
66298SOL    HW1  733   3.951   2.951   0.047
66298SOL    HW2  734   4.078   2.943  14.846
66299SOL     OW  735  10.619   0.867  13.803
66299SOL    HW1  736  10.690   0.931  13.795
66299SOL    HW2  737  10.566   0.880  13.725
66300SOL     OW  738   3.329   5.551   5.715
66300SOL    HW1  739   3.347   5.585   5.627
66300SOL    HW2  740   3.319   5.457   5.702
66301SOL     OW  741  10.571   6.192  12.027
66301SOL    HW1  742  10.616   6.274  12.009
66301SOL    HW2  743  10.498   6.190  11.965
66302SOL     OW  744  11.117   3.328  14.204
66302SOL    HW1  745  11.171   3.259  14.242
66302SOL    HW2  746  11.027   3.303  14.227
66303SOL     OW  747   4.467   5.764  12.104
66303SOL    HW1  748   4.553   5.792  12.071
66303SOL    HW2  749   4.457   5.811  12.186
66304SOL     OW  750  10.522   4.298   4.919
66304SOL    HW1  751  10.573   4.218   4.922
66304SOL    HW2  752  10.431   4.268   4.920
66305SOL     OW  753  13.969   0.522   7.323
66305SOL    HW1  754  14.043   0.503   7.265
66305SOL    HW2  755  13.967   0.618   7.326
66306SOL     OW  756   4.489  10.728   5.537
66306SOL    HW1  757   4.397  10.756   5.535
66306SOL    HW2  758   4.496  10.666   5.464
66307SOL     OW  759   0.449   7.551  13.431
66307SOL    HW1  760   0.368   7.601  13.429
66307SOL    HW2  761   0.422   7.462  13.450
66308SOL     OW  762   6.777   7.957   8.965
66308SOL    HW1  763   6.814   8.029   9.016
66308SOL    HW2  764   6.700   7.995   8.923
66309SOL     OW  765  12.348  13.605   3.332
66309SOL    HW1  766  12.273  13.662   3.315
66309SOL    HW2  767  12.332  13.570   3.420
66310SOL     OW  768   4.650   1.212   6.711
66310SOL    HW1  769   4.702   1.241   6.786
66310SOL    HW2  770   4.700   1.138   6.675
66311SOL     OW  771   4.637   8.565   5.970
66311SOL    HW1  772   4.589   8.504   5.915
66311SOL    HW2  773   4.712   8.515   6.003
66312SOL     OW  774   3.760   3.933   6.695
66312SOL    HW1  775   3.709   3.961   6.619
66312SOL    HW2  776   3.768   3.838   6.686
66313SOL     OW  777   8.105   0.180   7.479
66313SOL    HW1  778   8.077   0.209   7.566
66313SOL    HW2  779   8.078   0.089   7.474
66314SOL     OW  780   9.888  13.557   8.467
66314SOL    HW1  781   9.952  13.525   8.530
66314SOL    HW2  782   9.911  13.649   8.454
66315SOL     OW  783  14.307   0.878   4.173
66315SOL    HW1  784  14.304   0.950   4.109
66315SOL    HW2  785  14.359   0.810   4.130
66316SOL     OW  786  11.773   4.135   7.066
66316SOL    HW1  787  11.677   4.140   7.059
66316SOL    HW2  788  11.795   4.050   7.028
66317SOL     OW  789   6.381   5.560   9.181
66317SOL    HW1  790   6.421   5.473   9.184
66317SOL    HW2  791   6.309   5.551   9.118
66318SOL     OW  792   6.560   1.936   9.665
66318SOL    HW1  793   6.524   1.896   9.586
66318SOL    HW2  794   6.537   1.876   9.736
66319SOL     OW  795   2.172   1.795  11.956
66319SOL    HW1  796   2.104   1.729  11.941
66319SOL    HW2  797   2.164   1.817  12.049
66320SOL     OW  798   1.493   7.294   0.648
66320SOL    HW1  799   1.505   7.346   0.727
66320SOL    HW2  800   1.576   7.247   0.637
66321SOL     OW  801   4.729   3.348   8.005
66321SOL    HW1  802   4.773   3.408   7.945
66321SOL    HW2  803   4.672   3.295   7.949
66322SOL     OW  804  12.925   8.561   5.250
66322SOL    HW1  805  12.880   8.542   5.168
66322SOL    HW2  806  12.855   8.588   5.310
66323SOL     OW  807   8.713   4.339   4.942
66323SOL    HW1  808   8.638   4.318   4.997
66323SOL    HW2  809   8.785   4.290   4.980
66324SOL     OW  810   9.839   9.770   3.460
66324SOL    HW1  811   9.876   9.704   3.519
66324SOL    HW2  812   9.807   9.839   3.518
66325SOL     OW  813   2.028   3.630  11.967
66325SOL    HW1  814   2.105   3.686  11.972
66325SOL    HW2  815   1.958   3.684  12.005
66326SOL     OW  816   6.080   8.181   0.232
66326SOL    HW1  817   6.160   8.159   0.185
66326SOL    HW2  818   6.011   8.177   0.166
66327SOL     OW  819   0.981   1.610   6.130
66327SOL    HW1  820   0.951   1.523   6.105
66327SOL    HW2  821   0.932   1.670   6.074
66328SOL     OW  822  11.005   9.165  14.221
66328SOL    HW1  823  11.073   9.231  14.237
66328SOL    HW2  824  10.926   9.202  14.262
66329SOL     OW  825   0.020   9.404   9.287
66329SOL    HW1  826   0.082   9.466   9.325
66329SOL    HW2  827  14.857   9.453   9.219
66330SOL     OW  828  12.171   9.392  10.396
66330SOL    HW1  829  12.142   9.475  10.360
66330SOL    HW2  830  12.092   9.353  10.434
66331SOL     OW  831   8.134  10.452   9.987
66331SOL    HW1  832   8.128  10.358  10.005
66331SOL    HW2  833   8.077  10.466   9.911
66332SOL     OW  834   6.315   5.240  12.202
66332SOL    HW1  835   6.313   5.328  12.238
66332SOL    HW2  836   6.408   5.219  12.195
66333SOL     OW  837   6.644   6.540   1.515
66333SOL    HW1  838   6.676   6.450   1.514
66333SOL    HW2  839   6.553   6.533   1.544
66334SOL     OW  840   5.599  12.618   9.397
66334SOL    HW1  841   5.562  12.620   9.309
66334SOL    HW2  842   5.690  12.644   9.386
66335SOL     OW  843   6.162   1.252  12.943
66335SOL    HW1  844   6.079   1.256  12.991
66335SOL    HW2  845   6.226   1.223  13.008
66336SOL     OW  846   3.172   6.693  11.723
66336SOL    HW1  847   3.153   6.783  11.695
66336SOL    HW2  848   3.180   6.644  11.642
66337SOL     OW  849  13.551  12.096   9.637
66337SOL    HW1  850  13.584  12.117   9.724
66337SOL    HW2  851  13.614  12.033   9.601
66338SOL     OW  852  12.511   1.365   3.386
66338SOL    HW1  853  12.535   1.317   3.306
66338SOL    HW2  854  12.449   1.307   3.431
66339SOL     OW  855   7.372  13.953   0.046
66339SOL    HW1  856   7.447  13.893   0.048
66339SOL    HW2  857   7.348  13.958  14.836
66340SOL     OW  858  12.245  13.159   5.564
66340SOL    HW1  859  12.207  13.166   5.651
66340SOL    HW2  860  12.310  13.089   5.571
66341SOL     OW  861  12.303   8.347   0.160
66341SOL    HW1  862  12.346   8.300   0.232
66341SOL    HW2  863  12.339   8.435   0.164
66342SOL     OW  864   3.658   2.598   0.511
66342SOL    HW1  865   3.576   2.645   0.525
66342SOL    HW2  866   3.726   2.660   0.537
66343SOL     OW  867   2.284   3.667   4.803
66343SOL    HW1  868   2.353   3.605   4.781
66343SOL    HW2  869   2.311   3.749   4.762
66344SOL     OW  870   0.157   3.602  13.435
66344SOL    HW1  871   0.230   3.662  13.451
66344SOL    HW2  872   0.126   3.626  13.348
66345SOL     OW  873  11.921   9.061  13.188
66345SOL    HW1  874  11.930   9.049  13.094
66345SOL    HW2  875  12.011   9.057  13.222
66346SOL     OW  876  12.227   8.735   8.325
66346SOL    HW1  877  12.207   8.816   8.277
66346SOL    HW2  878  12.190   8.750   8.412
66347SOL     OW  879  14.820   7.645   7.981
66347SOL    HW1  880  14.785   7.733   7.969
66347SOL    HW2  881  14.795   7.598   7.901
66348SOL     OW  882   3.178  13.322  14.191
66348SOL    HW1  883   3.183  13.403  14.241
66348SOL    HW2  884   3.243  13.264  14.231
66349SOL     OW  885   5.082   6.785   8.269
66349SOL    HW1  886   5.051   6.862   8.222
66349SOL    HW2  887   5.149   6.819   8.329
66350SOL     OW  888   2.932  10.064   0.028
66350SOL    HW1  889   2.963  10.154   0.019
66350SOL    HW2  890   2.843  10.066  14.872
66351SOL     OW  891  10.255   9.893   4.721
66351SOL    HW1  892  10.193   9.961   4.694
66351SOL    HW2  893  10.328   9.900   4.659
66352SOL     OW  894   2.610   7.105  14.582
66352SOL    HW1  895   2.685   7.154  14.550
66352SOL    HW2  896   2.643   7.056  14.657
66353SOL     OW  897   5.080   4.199   0.243
66353SOL    HW1  898   5.141   4.273   0.242
66353SOL    HW2  899   4.994   4.239   0.239
66354SOL     OW  900  12.139   7.696   7.710
66354SOL    HW1  901  12.116   7.768   7.651
66354SOL    HW2  902  12.094   7.620   7.674
66355SOL     OW  903   8.197  12.020  10.926
66355SOL    HW1  904   8.217  12.113  10.924
66355SOL    HW2  905   8.132  12.007  10.858
66356SOL     OW  906   1.103   8.524  11.744
66356SOL    HW1  907   1.098   8.492  11.834
66356SOL    HW2  908   1.102   8.444  11.691
66357SOL     OW  909  13.239  14.282   3.459
66357SOL    HW1  910  13.145  14.286   3.476
66357SOL    HW2  911  13.258  14.363   3.410
66358SOL     OW  912  10.452   3.970  13.917
66358SOL    HW1  913  10.526   3.909  13.912
66358SOL    HW2  914  10.376   3.914  13.933
66359SOL     OW  915  12.215   6.173   9.033
66359SOL    HW1  916  12.133   6.124   9.023
66359SOL    HW2  917  12.278   6.107   9.063
66360SOL     OW  918   8.636   6.871   9.622
66360SOL    HW1  919   8.665   6.883   9.532
66360SOL    HW2  920   8.716   6.872   9.674
66361SOL     OW  921  14.638  13.784  13.741
66361SOL    HW1  922  14.679  13.699  13.725
66361SOL    HW2  923  14.583  13.799  13.664
66362SOL     OW  924  13.354   9.220   4.744
66362SOL    HW1  925  13.274   9.217   4.691
66362SOL    HW2  926  13.388   9.131   4.741
66363SOL     OW  927  11.357   5.272  11.850
66363SOL    HW1  928  11.337   5.364  11.832
66363SOL    HW2  929  11.311   5.224  11.781
66364SOL     OW  930  13.271   6.465   1.376
66364SOL    HW1  931  13.360   6.482   1.345
66364SOL    HW2  932  13.279   6.463   1.471
66365SOL     OW  933  10.731  11.441   8.383
66365SOL    HW1  934  10.822  11.434   8.411
66365SOL    HW2  935  10.682  11.395   8.451
66366SOL     OW  936  14.648  12.489   5.937
66366SOL    HW1  937  14.583  12.538   5.987
66366SOL    HW2  938  14.613  12.485   5.848
66367SOL     OW  939   6.524  11.683   7.081
66367SOL    HW1  940   6.510  11.763   7.031
66367SOL    HW2  941   6.545  11.617   7.014
66368SOL     OW  942   7.269   8.684  14.614
66368SOL    HW1  943   7.184   8.695  14.657
66368SOL    HW2  944   7.287   8.770  14.576
66369SOL     OW  945  13.840   0.664   2.118
66369SOL    HW1  946  13.830   0.628   2.206
66369SOL    HW2  947  13.855   0.587   2.063
66370SOL     OW  948   6.284   7.537   7.539
66370SOL    HW1  949   6.241   7.622   7.538
66370SOL    HW2  950   6.269   7.504   7.627
66371SOL     OW  951   5.676   7.855  13.967
66371SOL    HW1  952   5.700   7.806  13.888
66371SOL    HW2  953   5.724   7.938  13.960
66372SOL     OW  954   8.931  11.867  13.748
66372SOL    HW1  955   8.935  11.847  13.655
66372SOL    HW2  956   8.900  11.957  13.753
66373SOL     OW  957   1.962   7.806   3.656
66373SOL    HW1  958   1.953   7.851   3.572
66373SOL    HW2  959   1.876   7.811   3.696
66374SOL     OW  960   3.947  14.530   2.702
66374SOL    HW1  961   3.877  14.467   2.688
66374SOL    HW2  962   3.902  14.610   2.731
66375SOL     OW  963   1.340  12.186  10.131
66375SOL    HW1  964   1.393  12.256  10.169
66375SOL    HW2  965   1.253  12.197  10.169
66376SOL     OW  966  12.361   1.140  11.909
66376SOL    HW1  967  12.383   1.072  11.846
66376SOL    HW2  968  12.440   1.193  11.918
66377SOL     OW  969  10.321   9.450   7.531
66377SOL    HW1  970  10.240   9.488   7.565
66377SOL    HW2  971  10.347   9.508   7.460
66378SOL     OW  972   4.648   2.379   0.463
66378SOL    HW1  973   4.726   2.371   0.408
66378SOL    HW2  974   4.681   2.410   0.547
66379SOL     OW  975   2.471   4.227   2.795
66379SOL    HW1  976   2.390   4.178   2.782
66379SOL    HW2  977   2.454   4.281   2.872
66380SOL     OW  978   7.029   1.373   2.875
66380SOL    HW1  979   7.113   1.337   2.846
66380SOL    HW2  980   6.964   1.332   2.819
66381SOL     OW  981   6.719   1.745   2.879
66381SOL    HW1  982   6.657   1.690   2.928
66381SOL    HW2  983   6.666   1.784   2.809
66382SOL     OW  984   4.472   1.676  14.871
66382SOL    HW1  985   4.383   1.668  14.837
66382SOL    HW2  986   4.462   1.670   0.084
66383SOL     OW  987  10.699   2.338   1.233
66383SOL    HW1  988  10.734   2.415   1.189
66383SOL    HW2  989  10.630   2.306   1.176
66384SOL     OW  990   2.858  11.489   3.990
66384SOL    HW1  991   2.770  11.508   3.957
66384SOL    HW2  992   2.916  11.542   3.935
66385SOL     OW  993  10.432  10.829   9.291
66385SOL    HW1  994  10.374  10.818   9.366
66385SOL    HW2  995  10.401  10.764   9.228
66386SOL     OW  996   4.510   1.298  10.311
66386SOL    HW1  997   4.491   1.308  10.217
66386SOL    HW2  998   4.502   1.387  10.346
66387SOL     OW  999  14.379   7.047   7.575
66387SOL    HW1 1000  14.315   7.118   7.582
66387SOL    HW2 1001  14.457   7.082   7.619
66388SOL     OW 1002   4.149   4.441  11.555
66388SOL    HW1 1003   4.186   4.425  11.642
66388SOL    HW2 1004   4.161   4.358  11.508
66389SOL     OW 1005  10.313   0.835   9.952
66389SOL    HW1 1006  10.243   0.771   9.943
66389SOL    HW2 1007  10.354   0.816  10.036
66390SOL     OW 1008   6.108   0.445   2.175
66390SOL    HW1 1009   6.060   0.391   2.238
66390SOL    HW2 1010   6.041   0.474   2.113
66391SOL     OW 1011  11.738   6.614  14.842
66391SOL    HW1 1012  11.714   6.665   0.038
66391SOL    HW2 1013  11.705   6.665  14.769
66392SOL     OW 1014   4.070  12.151   3.524
66392SOL    HW1 1015   4.013  12.074   3.529
66392SOL    HW2 1016   4.132  12.131   3.454
66393SOL     OW 1017  11.044  13.247   5.368
66393SOL    HW1 1018  10.980  13.176   5.377
66393SOL    HW2 1019  11.044  13.290   5.453
66394SOL     OW 1020  12.629   6.304   2.599
66394SOL    HW1 1021  12.556   6.353   2.638
66394SOL    HW2 1022  12.621   6.216   2.636
66395SOL     OW 1023  13.487   5.620  11.045
66395SOL    HW1 1024  13.553   5.614  10.976
66395SOL    HW2 1025  13.530   5.582  11.122
66396SOL     OW 1026   6.166   6.773  13.538
66396SOL    HW1 1027   6.135   6.713  13.471
66396SOL    HW2 1028   6.135   6.735  13.620
66397SOL     OW 1029  10.488   8.334   4.719
66397SOL    HW1 1030  10.473   8.239   4.727
66397SOL    HW2 1031  10.577   8.347   4.751
66398SOL     OW 1032   0.355   3.079   5.347
66398SOL    HW1 1033   0.370   3.005   5.406
66398SOL    HW2 1034   0.443   3.113   5.328
66399SOL     OW 1035   4.224   6.666   7.236
66399SOL    HW1 1036   4.278   6.698   7.164
66399SOL    HW2 1037   4.242   6.725   7.309
66400SOL     OW 1038   2.246   2.635   1.868
66400SOL    HW1 1039   2.184   2.579   1.821
66400SOL    HW2 1040   2.255   2.712   1.813
66401SOL     OW 1041  14.453  11.864   7.031
66401SOL    HW1 1042  14.368  11.892   7.065
66401SOL    HW2 1043  14.434  11.828   6.945
66402SOL     OW 1044   6.395  11.935   3.775
66402SOL    HW1 1045   6.435  11.971   3.696
66402SOL    HW2 1046   6.362  11.849   3.748
66403SOL     OW 1047  10.513   1.074  10.252
66403SOL    HW1 1048  10.562   1.122  10.185
66403SOL    HW2 1049  10.421   1.094  10.233
66404SOL     OW 1050  12.845   1.001  11.168
66404SOL    HW1 1051  12.752   1.008  11.147
66404SOL    HW2 1052  12.849   0.938  11.240
66405SOL     OW 1053   1.152  13.908  13.098
66405SOL    HW1 1054   1.104  13.974  13.048
66405SOL    HW2 1055   1.097  13.830  13.092
66406SOL     OW 1056   6.090   3.672   3.414
66406SOL    HW1 1057   6.008   3.699   3.454
66406SOL    HW2 1058   6.094   3.578   3.429
66407SOL     OW 1059  12.030   3.578   5.782
66407SOL    HW1 1060  12.008   3.535   5.864
66407SOL    HW2 1061  12.036   3.671   5.805
66408SOL     OW 1062  14.548   4.643   8.271
66408SOL    HW1 1063  14.587   4.562   8.305
66408SOL    HW2 1064  14.622   4.700   8.254
66409SOL     OW 1065   3.955  12.133  12.551
66409SOL    HW1 1066   4.032  12.085  12.579
66409SOL    HW2 1067   3.942  12.108  12.459
66410SOL     OW 1068   3.656   8.699  13.482
66410SOL    HW1 1069   3.566   8.726  13.500
66410SOL    HW2 1070   3.668   8.718  13.389
66411SOL     OW 1071   1.416  11.429  10.015
66411SOL    HW1 1072   1.485  11.466  10.070
66411SOL    HW2 1073   1.424  11.334  10.026
66412SOL     OW 1074  13.930   8.176   9.418
66412SOL    HW1 1075  13.965   8.112   9.356
66412SOL    HW2 1076  13.953   8.141   9.504
66413SOL     OW 1077  12.741   8.305  14.395
66413SOL    HW1 1078  12.653   8.288  14.427
66413SOL    HW2 1079  12.752   8.400  14.405
66414SOL     OW 1080   9.903  13.324  13.254
66414SOL    HW1 1081   9.879  13.385  13.185
66414SOL    HW2 1082   9.989  13.353  13.284
66415SOL     OW 1083  13.453   2.253  10.147
66415SOL    HW1 1084  13.448   2.346  10.170
66415SOL    HW2 1085  13.488   2.210  10.225
66416SOL     OW 1086  12.259   7.724   7.041
66416SOL    HW1 1087  12.206   7.739   7.120
66416SOL    HW2 1088  12.236   7.635   7.013
66417SOL     OW 1089   4.151   0.152   4.197
66417SOL    HW1 1090   4.232   0.114   4.163
66417SOL    HW2 1091   4.094   0.077   4.215
66418SOL     OW 1092   8.877  13.575   4.465
66418SOL    HW1 1093   8.918  13.662   4.468
66418SOL    HW2 1094   8.935  13.523   4.410
66419SOL     OW 1095   4.103  12.134  14.214
66419SOL    HW1 1096   4.197  12.130  14.236
66419SOL    HW2 1097   4.097  12.205  14.151
66420SOL     OW 1098  14.693   1.278   0.878
66420SOL    HW1 1099  14.714   1.335   0.804
66420SOL    HW2 1100  14.776   1.238   0.902
66421SOL     OW 1101   9.235   3.631   2.263
66421SOL    HW1 1102   9.153   3.601   2.223
66421SOL    HW2 1103   9.303   3.588   2.212
66422SOL     OW 1104   8.758   5.552   8.842
66422SOL    HW1 1105   8.691   5.576   8.906
66422SOL    HW2 1106   8.712   5.499   8.777
66423SOL     OW 1107   0.225   1.344   3.249
66423SOL    HW1 1108   0.284   1.275   3.218
66423SOL    HW2 1109   0.138   1.310   3.229
66424SOL     OW 1110  12.791   8.779   0.804
66424SOL    HW1 1111  12.848   8.836   0.753
66424SOL    HW2 1112  12.785   8.821   0.890
66425SOL     OW 1113  13.316   4.933   9.213
66425SOL    HW1 1114  13.316   4.858   9.154
66425SOL    HW2 1115  13.389   4.917   9.273
66426SOL     OW 1116   6.841  12.964  12.992
66426SOL    HW1 1117   6.851  12.870  13.007
66426SOL    HW2 1118   6.922  12.990  12.947
66427SOL     OW 1119  10.520   3.872   3.994
66427SOL    HW1 1120  10.574   3.884   4.073
66427SOL    HW2 1121  10.580   3.836   3.929
66428SOL     OW 1122   6.128   8.713   0.347
66428SOL    HW1 1123   6.095   8.799   0.370
66428SOL    HW2 1124   6.065   8.680   0.282
66429SOL     OW 1125   2.924  12.659   0.944
66429SOL    HW1 1126   2.858  12.631   0.881
66429SOL    HW2 1127   3.008  12.637   0.902
66430SOL     OW 1128   5.920   3.008  14.229
66430SOL    HW1 1129   5.856   3.075  14.256
66430SOL    HW2 1130   5.873   2.925  14.240
66431SOL     OW 1131   8.863   5.729   0.641
66431SOL    HW1 1132   8.780   5.745   0.685
66431SOL    HW2 1133   8.848   5.754   0.550
66432SOL     OW 1134   4.889   5.703  12.671
66432SOL    HW1 1135   4.925   5.715  12.583
66432SOL    HW2 1136   4.929   5.774  12.722
66433SOL     OW 1137   3.317   2.716  13.744
66433SOL    HW1 1138   3.323   2.792  13.685
66433SOL    HW2 1139   3.405   2.679  13.743
66434SOL     OW 1140   4.205  10.715   9.061
66434SOL    HW1 1141   4.235  10.804   9.081
66434SOL    HW2 1142   4.229  10.665   9.139
66435SOL     OW 1143   7.109  13.104   0.695
66435SOL    HW1 1144   7.092  13.076   0.605
66435SOL    HW2 1145   7.126  13.198   0.688
66436SOL     OW 1146   6.265  14.134   8.763
66436SOL    HW1 1147   6.328  14.171   8.701
66436SOL    HW2 1148   6.312  14.132   8.847
66437SOL     OW 1149   0.877   5.897   7.861
66437SOL    HW1 1150   0.932   5.837   7.913
66437SOL    HW2 1151   0.908   5.886   7.771
66438SOL     OW 1152   0.470   5.056   5.231
66438SOL    HW1 1153   0.466   5.150   5.215
66438SOL    HW2 1154   0.489   5.048   5.324
66439SOL     OW 1155   7.160  10.735   6.707
66439SOL    HW1 1156   7.083  10.762   6.656
66439SOL    HW2 1157   7.191  10.656   6.663
66440SOL     OW 1158   2.177   2.667  12.945
66440SOL    HW1 1159   2.193   2.726  13.018
66440SOL    HW2 1160   2.082   2.669  12.933
66441SOL     OW 1161  13.130   9.973   6.755
66441SOL    HW1 1162  13.094  10.014   6.833
66441SOL    HW2 1163  13.224   9.967   6.772
66442SOL     OW 1164  10.745   1.353   8.040
66442SOL    HW1 1165  10.687   1.287   8.002
66442SOL    HW2 1166  10.688   1.403   8.099
66443SOL     OW 1167   7.137   1.001   1.265
66443SOL    HW1 1168   7.132   1.086   1.221
66443SOL    HW2 1169   7.066   1.003   1.330
66444SOL     OW 1170   7.098   5.686   9.775
66444SOL    HW1 1171   7.142   5.631   9.839
66444SOL    HW2 1172   7.125   5.650   9.690
66445SOL     OW 1173  11.057   4.629  13.981
66445SOL    HW1 1174  11.135   4.683  13.969
66445SOL    HW2 1175  10.988   4.691  14.004
66446SOL     OW 1176  13.261   1.609  13.150
66446SOL    HW1 1177  13.225   1.647  13.231
66446SOL    HW2 1178  13.184   1.590  13.096
66447SOL     OW 1179   5.892   3.817   0.480
66447SOL    HW1 1180   5.859   3.771   0.403
66447SOL    HW2 1181   5.817   3.865   0.514
66448SOL     OW 1182  13.827  10.503  10.168
66448SOL    HW1 1183  13.876  10.439  10.221
66448SOL    HW2 1184  13.888  10.575  10.155
66449SOL     OW 1185  14.198   0.876   7.509
66449SOL    HW1 1186  14.277   0.851   7.558
66449SOL    HW2 1187  14.217   0.964   7.477
66450SOL     OW 1188   2.453   2.193   1.990
66450SOL    HW1 1189   2.443   2.287   2.005
66450SOL    HW2 1190   2.364   2.162   1.976
66451SOL     OW 1191   1.948  14.487  14.317
66451SOL    HW1 1192   1.980  14.411  14.365
66451SOL    HW2 1193   1.967  14.561  14.374
66452SOL     OW 1194   7.684  10.926   6.893
66452SOL    HW1 1195   7.679  10.842   6.847
66452SOL    HW2 1196   7.592  10.951   6.906
66453SOL     OW 1197  12.329   0.869   0.014
66453SOL    HW1 1198  12.306   0.951   0.057
66453SOL    HW2 1199  12.412   0.844   0.054
66454SOL     OW 1200  14.304   2.607   7.911
66454SOL    HW1 1201  14.317   2.614   8.006
66454SOL    HW2 1202  14.362   2.673   7.874
66455SOL     OW 1203   6.948  13.700   3.086
66455SOL    HW1 1204   6.965  13.792   3.062
66455SOL    HW2 1205   6.892  13.667   3.016
66456SOL     OW 1206   6.270   9.222  10.960
66456SOL    HW1 1207   6.344   9.228  11.020
66456SOL    HW2 1208   6.193   9.213  11.017
66457SOL     OW 1209   2.119  13.165  13.971
66457SOL    HW1 1210   2.128  13.164  13.876
66457SOL    HW2 1211   2.025  13.174  13.986
66458SOL     OW 1212   8.122   8.267   1.323
66458SOL    HW1 1213   8.110   8.213   1.401
66458SOL    HW2 1214   8.137   8.205   1.252
66459SOL     OW 1215   8.846   4.690   4.405
66459SOL    HW1 1216   8.802   4.609   4.428
66459SOL    HW2 1217   8.780   4.741   4.358
66460SOL     OW 1218   9.409   9.999  10.621
66460SOL    HW1 1219   9.504  10.005  10.631
66460SOL    HW2 1220   9.394  10.002  10.527
66461SOL     OW 1221   7.962   9.029   7.252
66461SOL    HW1 1222   7.955   9.123   7.271
66461SOL    HW2 1223   8.056   9.016   7.235
66462SOL     OW 1224   3.533   5.719   9.408
66462SOL    HW1 1225   3.616   5.672   9.409
66462SOL    HW2 1226   3.537   5.772   9.328
66463SOL     OW 1227  12.892  13.644   7.118
66463SOL    HW1 1228  12.881  13.633   7.212
66463SOL    HW2 1229  12.876  13.557   7.082
66464SOL     OW 1230  13.362  13.519   7.841
66464SOL    HW1 1231  13.415  13.466   7.780
66464SOL    HW2 1232  13.426  13.560   7.898
66465SOL     OW 1233   4.411   4.465   9.387
66465SOL    HW1 1234   4.488   4.413   9.407
66465SOL    HW2 1235   4.351   4.404   9.344
66466SOL     OW 1236   5.955  14.150   8.492
66466SOL    HW1 1237   6.033  14.175   8.441
66466SOL    HW2 1238   5.884  14.200   8.452
66467SOL     OW 1239   6.635   9.938  10.141
66467SOL    HW1 1240   6.579   9.885  10.198
66467SOL    HW2 1241   6.627  10.027  10.176
66468SOL     OW 1242   1.373  12.994   8.864
66468SOL    HW1 1243   1.329  12.966   8.784
66468SOL    HW2 1244   1.363  13.089   8.864
66469SOL     OW 1245   4.614  11.168   7.935
66469SOL    HW1 1246   4.653  11.109   7.999
66469SOL    HW2 1247   4.685  11.230   7.914
66470SOL     OW 1248  11.971   7.354   9.863
66470SOL    HW1 1249  11.980   7.292   9.791
66470SOL    HW2 1250  11.877   7.354   9.883
66471SOL     OW 1251   3.156   0.490   3.806
66471SOL    HW1 1252   3.100   0.419   3.775
66471SOL    HW2 1253   3.132   0.501   3.898
66472SOL     OW 1254  11.563   9.522   4.834
66472SOL    HW1 1255  11.545   9.509   4.741
66472SOL    HW2 1256  11.480   9.502   4.878
66473SOL     OW 1257   8.301   9.202   0.998
66473SOL    HW1 1258   8.319   9.214   0.905
66473SOL    HW2 1259   8.315   9.108   1.013
66474SOL     OW 1260   7.426   2.044  12.384
66474SOL    HW1 1261   7.418   1.953  12.353
66474SOL    HW2 1262   7.492   2.083  12.327
66475SOL     OW 1263   3.579   5.489  12.689
66475SOL    HW1 1264   3.579   5.447  12.603
66475SOL    HW2 1265   3.501   5.455  12.733
66476SOL     OW 1266   5.982   9.166  13.563
66476SOL    HW1 1267   5.905   9.210  13.598
66476SOL    HW2 1268   5.958   9.073  13.563
66477SOL     OW 1269   7.544   3.539   5.777
66477SOL    HW1 1270   7.577   3.561   5.690
66477SOL    HW2 1271   7.541   3.622   5.824
66478SOL     OW 1272  10.190   6.096   7.070
66478SOL    HW1 1273  10.129   6.160   7.032
66478SOL    HW2 1274  10.135   6.035   7.119
66479SOL     OW 1275   5.062  14.264  13.050
66479SOL    HW1 1276   5.094  14.208  12.979
66479SOL    HW2 1277   5.131  14.260  13.117
66480SOL     OW 1278   8.257   6.421   3.640
66480SOL    HW1 1279   8.200   6.355   3.601
66480SOL    HW2 1280   8.252   6.404   3.734
66481SOL     OW 1281  14.152   2.538  10.068
66481SOL    HW1 1282  14.073   2.572  10.111
66481SOL    HW2 1283  14.169   2.599   9.997
66482SOL     OW 1284  13.834   6.088   0.305
66482SOL    HW1 1285  13.830   6.042   0.388
66482SOL    HW2 1286  13.910   6.051   0.260
66483SOL     OW 1287  14.637  10.159  12.607
66483SOL    HW1 1288  14.557  10.122  12.643
66483SOL    HW2 1289  14.668  10.094  12.545
66484SOL     OW 1290   2.721   6.527  11.814
66484SOL    HW1 1291   2.785   6.591  11.782
66484SOL    HW2 1292   2.684   6.567  11.892
66485SOL     OW 1293   7.984  13.676   4.937
66485SOL    HW1 1294   7.967  13.654   5.029
66485SOL    HW2 1295   8.070  13.637   4.919
66486SOL     OW 1296  10.688   5.359   9.139
66486SOL    HW1 1297  10.621   5.401   9.193
66486SOL    HW2 1298  10.648   5.351   9.053
66487SOL     OW 1299  10.301  12.945  12.361
66487SOL    HW1 1300  10.372  12.938  12.425
66487SOL    HW2 1301  10.331  13.011  12.298
66488SOL     OW 1302  14.723  11.879  14.518
66488SOL    HW1 1303  14.696  11.862  14.609
66488SOL    HW2 1304  14.675  11.959  14.494
66489SOL     OW 1305  13.926   6.318  11.574
66489SOL    HW1 1306  13.837   6.290  11.595
66489SOL    HW2 1307  13.979   6.239  11.583
66490SOL     OW 1308  14.718  11.247  10.518
66490SOL    HW1 1309  14.639  11.214  10.477
66490SOL    HW2 1310  14.687  11.306  10.587
66491SOL     OW 1311   0.429  11.328   2.633
66491SOL    HW1 1312   0.431  11.417   2.670
66491SOL    HW2 1313   0.522  11.307   2.619
66492SOL     OW 1314   4.155  13.505  12.239
66492SOL    HW1 1315   4.225  13.441  12.254
66492SOL    HW2 1316   4.075  13.453  12.243
66493SOL     OW 1317   2.742   7.229   0.091
66493SOL    HW1 1318   2.703   7.144   0.114
66493SOL    HW2 1319   2.775   7.218   0.002
66494SOL     OW 1320   8.427   2.246   4.195
66494SOL    HW1 1321   8.376   2.319   4.228
66494SOL    HW2 1322   8.405   2.239   4.103
66495SOL     OW 1323   6.626   0.056  10.367
66495SOL    HW1 1324   6.701   0.037  10.311
66495SOL    HW2 1325   6.601  14.853  10.403
66496SOL     OW 1326  12.418  12.820  13.850
66496SOL    HW1 1327  12.352  12.784  13.909
66496SOL    HW2 1328  12.406  12.770  13.769
66497SOL     OW 1329   8.484  14.561  14.808
66497SOL    HW1 1330   8.536  14.570   0.005
66497SOL    HW2 1331   8.541  14.514  14.747
66498SOL     OW 1332  12.808   4.295   1.681
66498SOL    HW1 1333  12.799   4.290   1.776
66498SOL    HW2 1334  12.742   4.359   1.654
66499SOL     OW 1335  11.106  11.481  10.463
66499SOL    HW1 1336  11.033  11.420  10.474
66499SOL    HW2 1337  11.102  11.505  10.370
66500SOL     OW 1338   9.143   3.914   0.227
66500SOL    HW1 1339   9.223   3.863   0.224
66500SOL    HW2 1340   9.173   4.005   0.236
66501SOL     OW 1341   1.591   1.088   2.087
66501SOL    HW1 1342   1.608   1.043   2.004
66501SOL    HW2 1343   1.549   1.022   2.142
66502SOL     OW 1344  13.076   4.080   9.977
66502SOL    HW1 1345  13.032   4.157   9.940
66502SOL    HW2 1346  13.163   4.112  10.002
66503SOL     OW 1347   9.978  11.383   6.783
66503SOL    HW1 1348   9.924  11.350   6.855
66503SOL    HW2 1349  10.048  11.432   6.826
66504SOL     OW 1350   3.845   8.471   6.476
66504SOL    HW1 1351   3.940   8.481   6.480
66504SOL    HW2 1352   3.831   8.382   6.445
66505SOL     OW 1353   5.653   3.313   4.728
66505SOL    HW1 1354   5.709   3.303   4.652
66505SOL    HW2 1355   5.666   3.403   4.757
66506SOL     OW 1356   5.210   2.970   1.960
66506SOL    HW1 1357   5.268   3.046   1.961
66506SOL    HW2 1358   5.261   2.902   1.915
66507SOL     OW 1359   2.224   8.999   0.158
66507SOL    HW1 1360   2.238   8.990   0.064
66507SOL    HW2 1361   2.135   9.032   0.167
66508SOL     OW 1362   3.938   9.985   9.573
66508SOL    HW1 1363   4.017  10.039   9.584
66508SOL    HW2 1364   3.878  10.040   9.522
66509SOL     OW 1365  10.006   5.887   7.436
66509SOL    HW1 1366   9.993   5.969   7.390
66509SOL    HW2 1367  10.099   5.887   7.460
66510SOL     OW 1368   9.051   9.929   2.203
66510SOL    HW1 1369   9.106   9.988   2.152
66510SOL    HW2 1370   9.112   9.863   2.237
66511SOL     OW 1371   3.907  12.721  12.475
66511SOL    HW1 1372   3.936  12.709  12.566
66511SOL    HW2 1373   3.911  12.815  12.460
66512SOL     OW 1374   5.140  12.902   9.191
66512SOL    HW1 1375   5.095  12.927   9.110
66512SOL    HW2 1376   5.162  12.985   9.233
66513SOL     OW 1377   0.403   2.317  11.846
66513SOL    HW1 1378   0.463   2.357  11.908
66513SOL    HW2 1379   0.322   2.304  11.897
66514SOL     OW 1380   9.877  10.872  13.192
66514SOL    HW1 1381   9.861  10.884  13.286
66514SOL    HW2 1382   9.852  10.955  13.152
66515SOL     OW 1383  11.146   1.334   6.790
66515SOL    HW1 1384  11.201   1.394   6.840
66515SOL    HW2 1385  11.190   1.326   6.705
66516SOL     OW 1386   0.795   5.559  14.243
66516SOL    HW1 1387   0.885   5.576  14.270
66516SOL    HW2 1388   0.787   5.603  14.158
66517SOL     OW 1389   2.573  11.995   1.579
66517SOL    HW1 1390   2.607  12.002   1.489
66517SOL    HW2 1391   2.510  12.067   1.586
66518SOL     OW 1392   4.386   1.354   0.531
66518SOL    HW1 1393   4.342   1.423   0.481
66518SOL    HW2 1394   4.339   1.351   0.615
66519SOL     OW 1395   6.151   5.256   5.200
66519SOL    HW1 1396   6.155   5.160   5.197
66519SOL    HW2 1397   6.138   5.277   5.292
66520SOL     OW 1398   9.854   0.073  14.746
66520SOL    HW1 1399   9.843   0.124  14.827
66520SOL    HW2 1400   9.865  14.865  14.776
66521SOL     OW 1401   9.507   6.756  12.929
66521SOL    HW1 1402   9.517   6.661  12.932
66521SOL    HW2 1403   9.482   6.775  12.839
66522SOL     OW 1404   9.663   7.028   3.865
66522SOL    HW1 1405   9.634   6.951   3.817
66522SOL    HW2 1406   9.683   6.996   3.953
66523SOL     OW 1407   4.329  13.209   3.453
66523SOL    HW1 1408   4.352  13.199   3.545
66523SOL    HW2 1409   4.245  13.164   3.444
66524SOL     OW 1410   3.775   9.447   2.761
66524SOL    HW1 1411   3.741   9.470   2.675
66524SOL    HW2 1412   3.821   9.526   2.791
66525SOL     OW 1413   8.246   7.389   7.213
66525SOL    HW1 1414   8.270   7.368   7.304
66525SOL    HW2 1415   8.261   7.483   7.206
66526SOL     OW 1416  10.801   5.940  14.264
66526SOL    HW1 1417  10.833   5.885  14.336
66526SOL    HW2 1418  10.713   5.966  14.293
66527SOL     OW 1419  10.968  14.131   4.951
66527SOL    HW1 1420  11.038  14.162   4.893
66527SOL    HW2 1421  10.895  14.112   4.892
66528SOL     OW 1422  10.942   0.633   4.943
66528SOL    HW1 1423  10.884   0.692   4.893
66528SOL    HW2 1424  11.030   0.655   4.912
66529SOL     OW 1425   1.907   7.651  11.850
66529SOL    HW1 1426   1.881   7.609  11.932
66529SOL    HW2 1427   1.833   7.708  11.827
66530SOL     OW 1428  11.074   6.736   8.946
66530SOL    HW1 1429  11.165   6.764   8.955
66530SOL    HW2 1430  11.051   6.701   9.032
66531SOL     OW 1431  12.985  12.532   1.252
66531SOL    HW1 1432  12.978  12.539   1.347
66531SOL    HW2 1433  13.023  12.446   1.237
66532SOL     OW 1434  11.494  10.638  14.443
66532SOL    HW1 1435  11.539  10.579  14.503
66532SOL    HW2 1436  11.465  10.583  14.371
66533SOL     OW 1437  14.388   6.049   3.347
66533SOL    HW1 1438  14.328   6.091   3.285
66533SOL    HW2 1439  14.437   6.122   3.386
66534SOL     OW 1440   2.464  13.689  12.917
66534SOL    HW1 1441   2.415  13.703  12.836
66534SOL    HW2 1442   2.483  13.778  12.949
66535SOL     OW 1443  14.024   7.663  14.321
66535SOL    HW1 1444  14.079   7.716  14.263
66535SOL    HW2 1445  13.956   7.724  14.351
66536SOL     OW 1446   6.245   6.129  10.319
66536SOL    HW1 1447   6.268   6.188  10.247
66536SOL    HW2 1448   6.170   6.079  10.286
66537SOL     OW 1449   9.314   2.389   1.970
66537SOL    HW1 1450   9.318   2.362   1.878
66537SOL    HW2 1451   9.264   2.471   1.968
66538SOL     OW 1452   7.814   7.924   5.490
66538SOL    HW1 1453   7.894   7.963   5.525
66538SOL    HW2 1454   7.795   7.851   5.549
66539SOL     OW 1455   6.595   7.917   6.534
66539SOL    HW1 1456   6.555   7.982   6.591
66539SOL    HW2 1457   6.533   7.844   6.532
66540SOL     OW 1458   5.307   4.085   8.077
66540SOL    HW1 1459   5.238   4.022   8.056
66540SOL    HW2 1460   5.264   4.148   8.135
66541SOL     OW 1461   0.358  11.482  13.226
66541SOL    HW1 1462   0.271  11.516  13.206
66541SOL    HW2 1463   0.358  11.393  13.194
66542SOL     OW 1464  11.071   6.083  13.708
66542SOL    HW1 1465  11.113   6.105  13.791
66542SOL    HW2 1466  11.130   6.018  13.668
66543SOL     OW 1467   8.561   2.197  13.085
66543SOL    HW1 1468   8.624   2.266  13.063
66543SOL    HW2 1469   8.555   2.145  13.004
66544SOL     OW 1470  10.090   0.820  10.775
66544SOL    HW1 1471  10.166   0.764  10.756
66544SOL    HW2 1472  10.054   0.784  10.856
66545SOL     OW 1473   4.394   3.881   2.074
66545SOL    HW1 1474   4.390   3.959   2.020
66545SOL    HW2 1475   4.394   3.914   2.164
66546SOL     OW 1476  14.045  13.253  14.338
66546SOL    HW1 1477  13.962  13.277  14.297
66546SOL    HW2 1478  14.043  13.157  14.342
66547SOL     OW 1479   6.814   6.583  10.513
66547SOL    HW1 1480   6.892   6.637  10.531
66547SOL    HW2 1481   6.845   6.516  10.452
66548SOL     OW 1482   3.383  11.031  12.756
66548SOL    HW1 1483   3.429  11.113  12.778
66548SOL    HW2 1484   3.440  10.962  12.790
66549SOL     OW 1485   8.595   4.300  12.271
66549SOL    HW1 1486   8.608   4.354  12.349
66549SOL    HW2 1487   8.673   4.316  12.217
66550SOL     OW 1488   0.197   8.637   6.408
66550SOL    HW1 1489   0.244   8.691   6.344
66550SOL    HW2 1490   0.146   8.576   6.356
66551SOL     OW 1491   8.418  11.995   1.003
66551SOL    HW1 1492   8.358  11.929   0.969
66551SOL    HW2 1493   8.399  12.073   0.950
66552SOL     OW 1494   3.620   9.540   7.052
66552SOL    HW1 1495   3.550   9.488   7.091
66552SOL    HW2 1496   3.676   9.564   7.125
66553SOL     OW 1497   1.155  11.345  10.060
66553SOL    HW1 1498   1.154  11.256  10.023
66553SOL    HW2 1499   1.227  11.389  10.015
66554SOL     OW 1500   4.089  10.741   0.584
66554SOL    HW1 1501   4.003  10.734   0.626
66554SOL    HW2 1502   4.108  10.835   0.584
66555SOL     OW 1503   2.486   1.907   8.579
66555SOL    HW1 1504   2.461   1.877   8.666
66555SOL    HW2 1505   2.569   1.864   8.562
66556SOL     OW 1506  14.319   5.071   1.639
66556SOL    HW1 1507  14.414   5.071   1.634
66556SOL    HW2 1508  14.296   5.162   1.658
66557SOL     OW 1509   1.629   2.872  13.225
66557SOL    HW1 1510   1.655   2.964  13.229
66557SOL    HW2 1511   1.607   2.858  13.133
66558SOL     OW 1512   4.329  13.547   8.692
66558SOL    HW1 1513   4.362  13.504   8.613
66558SOL    HW2 1514   4.297  13.476   8.747
66559SOL     OW 1515   3.507   8.133  13.161
66559SOL    HW1 1516   3.600   8.156  13.161
66559SOL    HW2 1517   3.497   8.074  13.236
66560SOL     OW 1518   0.880  10.189   1.938
66560SOL    HW1 1519   0.914  10.235   2.015
66560SOL    HW2 1520   0.930  10.108   1.934
66561SOL     OW 1521   7.311   4.832   7.452
66561SOL    HW1 1522   7.244   4.864   7.391
66561SOL    HW2 1523   7.391   4.828   7.399
66562SOL     OW 1524   2.053   8.796   4.669
66562SOL    HW1 1525   1.997   8.843   4.730
66562SOL    HW2 1526   2.113   8.745   4.725
66563SOL     OW 1527   7.300   8.327   7.133
66563SOL    HW1 1528   7.369   8.260   7.133
66563SOL    HW2 1529   7.328   8.391   7.069
66564SOL     OW 1530  10.689   3.871   7.949
66564SOL    HW1 1531  10.716   3.828   8.030
66564SOL    HW2 1532  10.727   3.959   7.955
66565SOL     OW 1533  11.680  14.377   9.798
66565SOL    HW1 1534  11.682  14.288   9.761
66565SOL    HW2 1535  11.719  14.432   9.730
66566SOL     OW 1536  12.646   7.238   0.769
66566SOL    HW1 1537  12.624   7.311   0.827
66566SOL    HW2 1538  12.640   7.161   0.825
66567SOL     OW 1539  14.531   3.091   6.934
66567SOL    HW1 1540  14.565   3.146   7.005
66567SOL    HW2 1541  14.568   3.004   6.951
66568SOL     OW 1542  12.934   8.719   3.706
66568SOL    HW1 1543  12.844   8.748   3.695
66568SOL    HW2 1544  12.983   8.799   3.726
66569SOL     OW 1545   8.501  10.382  14.061
66569SOL    HW1 1546   8.568  10.350  14.122
66569SOL    HW2 1547   8.448  10.442  14.114
66570SOL     OW 1548   9.860   1.459   5.636
66570SOL    HW1 1549   9.824   1.427   5.718
66570SOL    HW2 1550   9.878   1.380   5.585
66571SOL     OW 1551   7.801   1.869  14.136
66571SOL    HW1 1552   7.892   1.851  14.113
66571SOL    HW2 1553   7.806   1.942  14.198
66572SOL     OW 1554  14.053   0.173  12.354
66572SOL    HW1 1555  14.039   0.133  12.269
66572SOL    HW2 1556  13.997   0.251  12.354
66573SOL     OW 1557  12.703   8.757   6.735
66573SOL    HW1 1558  12.787   8.710   6.730
66573SOL    HW2 1559  12.726   8.842   6.774
66574SOL     OW 1560   6.263   3.659   3.998
66574SOL    HW1 1561   6.243   3.668   4.092
66574SOL    HW2 1562   6.352   3.692   3.989
66575SOL     OW 1563   0.785   7.023  12.986
66575SOL    HW1 1564   0.849   6.953  12.969
66575SOL    HW2 1565   0.714   7.005  12.924
66576SOL     OW 1566   3.884  14.378   3.846
66576SOL    HW1 1567   3.914  14.414   3.762
66576SOL    HW2 1568   3.816  14.315   3.822
66577SOL     OW 1569   4.875   4.108  11.266
66577SOL    HW1 1570   4.896   4.185  11.213
66577SOL    HW2 1571   4.782   4.093  11.251
66578SOL     OW 1572   8.817  12.736  12.035
66578SOL    HW1 1573   8.785  12.795  12.102
66578SOL    HW2 1574   8.877  12.789  11.982
66579SOL     OW 1575   5.183  10.148   3.408
66579SOL    HW1 1576   5.149  10.092   3.338
66579SOL    HW2 1577   5.252  10.096   3.448
66580SOL     OW 1578   8.050   5.171   4.445
66580SOL    HW1 1579   8.140   5.203   4.439
66580SOL    HW2 1580   8.051   5.087   4.400
66581SOL     OW 1581  14.271   8.685   9.600
66581SOL    HW1 1582  14.284   8.656   9.690
66581SOL    HW2 1583  14.360   8.689   9.564
66582SOL     OW 1584   7.933  11.859   4.477
66582SOL    HW1 1585   7.915  11.949   4.449
66582SOL    HW2 1586   7.872  11.844   4.550
66583SOL     OW 1587  13.570   5.787   2.102
66583SOL    HW1 1588  13.631   5.817   2.171
66583SOL    HW2 1589  13.512   5.862   2.088
66584SOL     OW 1590   2.089   2.104  11.926
66584SOL    HW1 1591   2.004   2.062  11.912
66584SOL    HW2 1592   2.139   2.085  11.846
66585SOL     OW 1593   9.275   3.549  10.385
66585SOL    HW1 1594   9.297   3.546  10.292
66585SOL    HW2 1595   9.292   3.460  10.417
66586SOL     OW 1596  11.659   0.770   7.672
66586SOL    HW1 1597  11.744   0.727   7.687
66586SOL    HW2 1598  11.597   0.698   7.663
66587SOL     OW 1599   0.343  14.266   4.185
66587SOL    HW1 1600   0.356  14.288   4.277
66587SOL    HW2 1601   0.378  14.342   4.137
66588SOL     OW 1602   7.336  13.383  13.469
66588SOL    HW1 1603   7.282  13.462  13.478
66588SOL    HW2 1604   7.350  13.375  13.375
66589SOL     OW 1605   2.626   8.815   6.807
66589SOL    HW1 1606   2.554   8.868   6.775
66589SOL    HW2 1607   2.702   8.843   6.756
66590SOL     OW 1608   6.772  14.549   5.471
66590SOL    HW1 1609   6.783  14.619   5.406
66590SOL    HW2 1610   6.859  14.542   5.512
66591SOL     OW 1611  13.311   8.056  11.619
66591SOL    HW1 1612  13.405   8.040  11.619
66591SOL    HW2 1613  13.301   8.139  11.664
66592SOL     OW 1614   4.229   0.461   1.306
66592SOL    HW1 1615   4.164   0.530   1.302
66592SOL    HW2 1616   4.264   0.465   1.395
66593SOL     OW 1617   6.721   8.555  13.311
66593SOL    HW1 1618   6.630   8.528  13.297
66593SOL    HW2 1619   6.738   8.534  13.403
66594SOL     OW 1620   1.317   0.749   3.021
66594SOL    HW1 1621   1.327   0.842   3.000
66594SOL    HW2 1622   1.368   0.737   3.101
66595SOL     OW 1623  11.514   1.264  14.381
66595SOL    HW1 1624  11.593   1.303  14.419
66595SOL    HW2 1625  11.445   1.281  14.445
66596SOL     OW 1626   7.926   8.441   1.231
66596SOL    HW1 1627   7.995   8.384   1.264
66596SOL    HW2 1628   7.845   8.394   1.251
66597SOL     OW 1629  10.402   8.684   8.893
66597SOL    HW1 1630  10.371   8.698   8.803
66597SOL    HW2 1631  10.385   8.591   8.909
66598SOL     OW 1632   6.667   9.264  10.546
66598SOL    HW1 1633   6.626   9.233  10.627
66598SOL    HW2 1634   6.619   9.218  10.476
66599SOL     OW 1635   3.550   2.286   4.432
66599SOL    HW1 1636   3.504   2.203   4.416
66599SOL    HW2 1637   3.549   2.330   4.347
66600SOL     OW 1638  10.567   6.610  12.609
66600SOL    HW1 1639  10.520   6.529  12.590
66600SOL    HW2 1640  10.605   6.595  12.696
66601SOL     OW 1641   1.009   0.208   3.559
66601SOL    HW1 1642   0.933   0.238   3.509
66601SOL    HW2 1643   1.082   0.216   3.498
66602SOL     OW 1644  13.950  11.208   8.995
66602SOL    HW1 1645  13.949  11.246   9.083
66602SOL    HW2 1646  14.035  11.164   8.989
66603SOL     OW 1647   1.489  11.513   8.795
66603SOL    HW1 1648   1.580  11.491   8.818
66603SOL    HW2 1649   1.491  11.607   8.777
66604SOL     OW 1650  13.426   5.315   0.590
66604SOL    HW1 1651  13.342   5.360   0.578
66604SOL    HW2 1652  13.448   5.282   0.502
66605SOL     OW 1653   9.392  12.463  11.291
66605SOL    HW1 1654   9.485  12.475  11.309
66605SOL    HW2 1655   9.373  12.528  11.224
66606SOL     OW 1656   9.342   9.164   6.817
66606SOL    HW1 1657   9.323   9.173   6.910
66606SOL    HW2 1658   9.301   9.082   6.791
66607SOL     OW 1659  12.144   6.140   4.698
66607SOL    HW1 1660  12.201   6.074   4.738
66607SOL    HW2 1661  12.066   6.142   4.752
66608SOL     OW 1662   4.118   1.724   5.282
66608SOL    HW1 1663   4.211   1.706   5.266
66608SOL    HW2 1664   4.089   1.651   5.338
66609SOL     OW 1665   3.275   9.480   5.134
66609SOL    HW1 1666   3.220   9.402   5.121
66609SOL    HW2 1667   3.365   9.448   5.125
66610SOL     OW 1668  10.262   7.957   4.463
66610SOL    HW1 1669  10.218   7.921   4.385
66610SOL    HW2 1670  10.335   8.008   4.427
66611SOL     OW 1671  11.659   2.377   5.970
66611SOL    HW1 1672  11.616   2.459   5.992
66611SOL    HW2 1673  11.588   2.317   5.947
66612SOL     OW 1674  11.542   8.023   9.602
66612SOL    HW1 1675  11.552   7.967   9.679
66612SOL    HW2 1676  11.485   8.093   9.631
66613SOL     OW 1677   2.805  10.593   9.035
66613SOL    HW1 1678   2.820  10.581   8.942
66613SOL    HW2 1679   2.763  10.512   9.064
66614SOL     OW 1680   4.694  13.709   1.411
66614SOL    HW1 1681   4.690  13.616   1.389
66614SOL    HW2 1682   4.710  13.711   1.505
66615SOL     OW 1683  13.130   8.674   1.947
66615SOL    HW1 1684  13.039   8.654   1.924
66615SOL    HW2 1685  13.160   8.597   1.996
66616SOL     OW 1686   2.629  10.790   3.737
66616SOL    HW1 1687   2.707  10.786   3.792
66616SOL    HW2 1688   2.609  10.883   3.730
66617SOL     OW 1689  14.732  12.582  11.444
66617SOL    HW1 1690  14.762  12.670  11.470
66617SOL    HW2 1691  14.790  12.522  11.491
66618SOL     OW 1692   2.972   3.683   7.246
66618SOL    HW1 1693   2.960   3.668   7.340
66618SOL    HW2 1694   3.025   3.762   7.241
66619SOL     OW 1695   4.539   3.182   7.891
66619SOL    HW1 1696   4.542   3.132   7.809
66619SOL    HW2 1697   4.569   3.121   7.958
66620SOL     OW 1698  12.595   2.702  11.689
66620SOL    HW1 1699  12.585   2.796  11.698
66620SOL    HW2 1700  12.627   2.688  11.600
66621SOL     OW 1701  11.377   2.985   2.378
66621SOL    HW1 1702  11.323   2.999   2.301
66621SOL    HW2 1703  11.394   3.073   2.412
66622SOL     OW 1704  14.246   1.790  14.581
66622SOL    HW1 1705  14.152   1.800  14.598
66622SOL    HW2 1706  14.287   1.861  14.631
66623SOL     OW 1707   3.647  10.832   1.582
66623SOL    HW1 1708   3.713  10.846   1.650
66623SOL    HW2 1709   3.674  10.751   1.539
66624SOL     OW 1710   3.150   0.784   3.251
66624SOL    HW1 1711   3.087   0.756   3.317
66624SOL    HW2 1712   3.167   0.876   3.272
66625SOL     OW 1713  12.858  13.592   5.286
66625SOL    HW1 1714  12.831  13.684   5.287
66625SOL    HW2 1715  12.779  13.544   5.313
66626SOL     OW 1716   8.225   1.512   1.972
66626SOL    HW1 1717   8.132   1.536   1.974
66626SOL    HW2 1718   8.271   1.593   1.951
66627SOL     OW 1719  11.179   7.417   1.905
66627SOL    HW1 1720  11.198   7.418   1.811
66627SOL    HW2 1721  11.186   7.508   1.932
66628SOL     OW 1722   3.634   4.161   1.634
66628SOL    HW1 1723   3.667   4.084   1.588
66628SOL    HW2 1724   3.541   4.165   1.611
66629SOL     OW 1725   9.430   9.686   8.112
66629SOL    HW1 1726   9.394   9.759   8.163
66629SOL    HW2 1727   9.362   9.667   8.048
66630SOL     OW 1728   4.479   4.730  10.774
66630SOL    HW1 1729   4.546   4.660  10.773
66630SOL    HW2 1730   4.396   4.683  10.784
66631SOL     OW 1731   4.230  11.215   2.548
66631SOL    HW1 1732   4.243  11.168   2.630
66631SOL    HW2 1733   4.259  11.154   2.480
66632SOL     OW 1734   1.807   4.057  12.770
66632SOL    HW1 1735   1.897   4.089  12.761
66632SOL    HW2 1736   1.753   4.128  12.733
66633SOL     OW 1737   9.837   7.680  12.861
66633SOL    HW1 1738   9.758   7.719  12.823
66633SOL    HW2 1739   9.850   7.599  12.812
66634SOL     OW 1740   9.149   9.635   4.757
66634SOL    HW1 1741   9.142   9.540   4.746
66634SOL    HW2 1742   9.117   9.651   4.846
66635SOL     OW 1743  14.429   3.684   2.859
66635SOL    HW1 1744  14.342   3.724   2.865
66635SOL    HW2 1745  14.414   3.599   2.816
66636SOL     OW 1746   9.836   9.186   8.240
66636SOL    HW1 1747   9.821   9.094   8.218
66636SOL    HW2 1748   9.779   9.203   8.315
66637SOL     OW 1749   8.939   8.599   2.579
66637SOL    HW1 1750   8.874   8.529   2.572
66637SOL    HW2 1751   8.898   8.674   2.536
66638SOL     OW 1752   1.249   3.770   6.245
66638SOL    HW1 1753   1.264   3.799   6.335
66638SOL    HW2 1754   1.283   3.841   6.191
66639SOL     OW 1755   1.109  12.165   0.911
66639SOL    HW1 1756   1.089  12.076   0.882
66639SOL    HW2 1757   1.023  12.202   0.932
66640SOL     OW 1758  14.810   6.814   5.194
66640SOL    HW1 1759  14.837   6.889   5.140
66640SOL    HW2 1760   0.009   6.765   5.208
66641SOL     OW 1761   6.946   7.234   7.612
66641SOL    HW1 1762   6.920   7.289   7.537
66641SOL    HW2 1763   6.994   7.161   7.572
66642SOL     OW 1764   0.492   2.624   6.329
66642SOL    HW1 1765   0.400   2.607   6.312
66642SOL    HW2 1766   0.505   2.715   6.305
66643SOL     OW 1767  12.806   4.084   0.835
66643SOL    HW1 1768  12.714   4.067   0.854
66643SOL    HW2 1769  12.848   3.998   0.838
66644SOL     OW 1770  13.635   1.252   2.459
66644SOL    HW1 1771  13.548   1.247   2.420
66644SOL    HW2 1772  13.676   1.327   2.415
66645SOL     OW 1773   7.527  12.613  10.964
66645SOL    HW1 1774   7.480  12.696  10.958
66645SOL    HW2 1775   7.600  12.631  11.023
66646SOL     OW 1776  14.337   7.649  13.927
66646SOL    HW1 1777  14.248   7.636  13.895
66646SOL    HW2 1778  14.336   7.737  13.965
66647SOL     OW 1779   3.011   8.663   2.995
66647SOL    HW1 1780   2.936   8.720   3.009
66647SOL    HW2 1781   3.028   8.669   2.901
66648SOL     OW 1782  10.242  12.624  11.232
66648SOL    HW1 1783  10.175  12.562  11.263
66648SOL    HW2 1784  10.226  12.703  11.282
66649SOL     OW 1785   7.979   4.851  13.099
66649SOL    HW1 1786   7.968   4.772  13.046
66649SOL    HW2 1787   8.073   4.856  13.114
66650SOL     OW 1788  12.241  13.048   4.734
66650SOL    HW1 1789  12.328  13.084   4.714
66650SOL    HW2 1790  12.181  13.122   4.722
66651SOL     OW 1791  10.026  14.657  11.408
66651SOL    HW1 1792  10.022  14.739  11.458
66651SOL    HW2 1793  10.089  14.603  11.455
66652SOL     OW 1794   0.269  13.191   9.856
66652SOL    HW1 1795   0.282  13.097   9.865
66652SOL    HW2 1796   0.311  13.214   9.773
66653SOL     OW 1797  11.570  14.234  10.049
66653SOL    HW1 1798  11.620  14.262   9.972
66653SOL    HW2 1799  11.635  14.192  10.105
66654SOL     OW 1800   7.677  13.546   8.091
66654SOL    HW1 1801   7.591  13.542   8.131
66654SOL    HW2 1802   7.720  13.621   8.134
66655SOL     OW 1803   7.585   9.664   1.231
66655SOL    HW1 1804   7.535   9.604   1.285
66655SOL    HW2 1805   7.673   9.626   1.228
66656SOL     OW 1806  10.856   0.283  13.366
66656SOL    HW1 1807  10.833   0.196  13.335
66656SOL    HW2 1808  10.920   0.268  13.435
66657SOL     OW 1809  11.513  11.431   2.751
66657SOL    HW1 1810  11.466  11.360   2.794
66657SOL    HW2 1811  11.469  11.510   2.781
66658SOL     OW 1812  11.890   8.324  13.309
66658SOL    HW1 1813  11.819   8.313  13.246
66658SOL    HW2 1814  11.885   8.246  13.364
66659SOL     OW 1815  13.512   1.882  13.603
66659SOL    HW1 1816  13.521   1.787  13.612
66659SOL    HW2 1817  13.553   1.918  13.681
66660SOL     OW 1818  13.568  13.644   5.462
66660SOL    HW1 1819  13.542  13.731   5.493
66660SOL    HW2 1820  13.486  13.595   5.460
66661SOL     OW 1821   8.568  10.304  13.348
66661SOL    HW1 1822   8.529  10.239  13.407
66661SOL    HW2 1823   8.598  10.254  13.273
66662SOL     OW 1824   9.628  10.484   2.265
66662SOL    HW1 1825   9.670  10.435   2.195
66662SOL    HW2 1826   9.682  10.468   2.342
66663SOL     OW 1827  11.971   5.660   9.264
66663SOL    HW1 1828  11.963   5.572   9.300
66663SOL    HW2 1829  11.891   5.673   9.213
66664SOL     OW 1830  14.695   1.405  10.254
66664SOL    HW1 1831  14.745   1.385  10.334
66664SOL    HW2 1832  14.650   1.323  10.233
66665SOL     OW 1833  12.269   8.377   6.014
66665SOL    HW1 1834  12.279   8.324   6.093
66665SOL    HW2 1835  12.213   8.450   6.041
66666SOL     OW 1836   5.572  11.049   3.746
66666SOL    HW1 1837   5.494  11.102   3.765
66666SOL    HW2 1838   5.561  11.020   3.656
66667SOL     OW 1839  13.044  14.771  11.529
66667SOL    HW1 1840  13.003  14.851  11.561
66667SOL    HW2 1841  13.032  14.775  11.434
66668SOL     OW 1842   8.836   0.963   2.010
66668SOL    HW1 1843   8.899   1.035   2.019
66668SOL    HW2 1844   8.832   0.924   2.097
66669SOL     OW 1845   0.955   6.899  10.928
66669SOL    HW1 1846   0.925   6.857  11.009
66669SOL    HW2 1847   0.951   6.830  10.862
66670SOL     OW 1848   8.515  13.447   9.168
66670SOL    HW1 1849   8.537  13.382   9.101
66670SOL    HW2 1850   8.567  13.524   9.146
66671SOL     OW 1851  13.139   4.074   1.047
66671SOL    HW1 1852  13.057   4.041   1.085
66671SOL    HW2 1853  13.138   4.168   1.066
66672SOL     OW 1854   9.361   0.253  12.723
66672SOL    HW1 1855   9.368   0.198  12.645
66672SOL    HW2 1856   9.301   0.323  12.697
66673SOL     OW 1857   9.847   1.492   8.653
66673SOL    HW1 1858   9.872   1.472   8.563
66673SOL    HW2 1859   9.781   1.561   8.646
66674SOL     OW 1860   6.443   7.939  13.561
66674SOL    HW1 1861   6.458   7.952  13.654
66674SOL    HW2 1862   6.398   7.855  13.555
66675SOL     OW 1863   5.161   6.595  13.226
66675SOL    HW1 1864   5.173   6.501  13.236
66675SOL    HW2 1865   5.137   6.606  13.134
66676SOL     OW 1866   2.092   6.700   0.076
66676SOL    HW1 1867   2.039   6.753   0.017
66676SOL    HW2 1868   2.090   6.747   0.160
66677SOL     OW 1869   0.740   7.207   4.322
66677SOL    HW1 1870   0.650   7.224   4.351
66677SOL    HW2 1871   0.782   7.293   4.323
66678SOL     OW 1872   5.362   4.541  11.096
66678SOL    HW1 1873   5.354   4.636  11.089
66678SOL    HW2 1874   5.411   4.527  11.177
66679SOL     OW 1875   3.652   4.918   0.064
66679SOL    HW1 1876   3.664   5.013   0.062
66679SOL    HW2 1877   3.676   4.893   0.154
66680SOL     OW 1878   9.283  11.939  14.139
66680SOL    HW1 1879   9.259  11.887  14.063
66680SOL    HW2 1880   9.207  11.995  14.155
66681SOL     OW 1881  12.964   0.228  14.749
66681SOL    HW1 1882  12.979   0.246  14.841
66681SOL    HW2 1883  12.905   0.153  14.748
66682SOL     OW 1884   9.578   7.800   8.909
66682SOL    HW1 1885   9.629   7.875   8.939
66682SOL    HW2 1886   9.507   7.793   8.973
66683SOL     OW 1887  11.209  11.954   4.591
66683SOL    HW1 1888  11.216  11.923   4.501
66683SOL    HW2 1889  11.248  11.885   4.644
66684SOL     OW 1890  10.815  11.958   7.622
66684SOL    HW1 1891  10.781  11.869   7.612
66684SOL    HW2 1892  10.907  11.946   7.647
66685SOL     OW 1893  14.248   2.434   2.857
66685SOL    HW1 1894  14.233   2.350   2.813
66685SOL    HW2 1895  14.279   2.411   2.944
66686SOL     OW 1896   1.483  11.062  10.514
66686SOL    HW1 1897   1.503  11.152  10.490
66686SOL    HW2 1898   1.565  11.014  10.500
66687SOL     OW 1899   4.655   4.901  10.137
66687SOL    HW1 1900   4.620   4.850  10.210
66687SOL    HW2 1901   4.681   4.985  10.177
66688SOL     OW 1902   8.845   2.992   4.981
66688SOL    HW1 1903   8.913   2.958   4.922
66688SOL    HW2 1904   8.894   3.037   5.050
66689SOL     OW 1905  10.469  11.292   1.158
66689SOL    HW1 1906  10.455  11.279   1.065
66689SOL    HW2 1907  10.435  11.379   1.176
66690SOL     OW 1908   6.940  12.670  11.396
66690SOL    HW1 1909   6.875  12.740  11.409
66690SOL    HW2 1910   6.989  12.667  11.478
66691SOL     OW 1911   9.910   7.111   0.586
66691SOL    HW1 1912   9.939   7.088   0.675
66691SOL    HW2 1913   9.959   7.051   0.529
66692SOL     OW 1914   3.075   1.291   1.086
66692SOL    HW1 1915   3.056   1.359   1.150
66692SOL    HW2 1916   3.100   1.215   1.138
66693SOL     OW 1917  11.387  12.323  11.121
66693SOL    HW1 1918  11.396  12.327  11.216
66693SOL    HW2 1919  11.439  12.396  11.088
66694SOL     OW 1920  13.482  12.125   0.403
66694SOL    HW1 1921  13.578  12.129   0.405
66694SOL    HW2 1922  13.454  12.201   0.453
66695SOL     OW 1923  10.947   6.491  12.240
66695SOL    HW1 1924  10.895   6.555  12.289
66695SOL    HW2 1925  10.996   6.444  12.307
66696SOL     OW 1926   6.887   2.726   4.178
66696SOL    HW1 1927   6.816   2.778   4.140
66696SOL    HW2 1928   6.845   2.645   4.206
66697SOL     OW 1929  12.834   2.585  10.740
66697SOL    HW1 1930  12.929   2.581  10.734
66697SOL    HW2 1931  12.813   2.534  10.818
66698SOL     OW 1932   8.108   3.605   4.480
66698SOL    HW1 1933   8.082   3.513   4.476
66698SOL    HW2 1934   8.094   3.630   4.572
66699SOL     OW 1935  14.497   0.119   0.436
66699SOL    HW1 1936  14.495   0.127   0.531
66699SOL    HW2 1937  14.445   0.193   0.404
66700SOL     OW 1938  11.142  11.330   6.386
66700SOL    HW1 1939  11.106  11.267   6.450
66700SOL    HW2 1940  11.065  11.379   6.356
66701SOL     OW 1941  10.570   4.115   5.838
66701SOL    HW1 1942  10.618   4.195   5.859
66701SOL    HW2 1943  10.515   4.139   5.763
66702SOL     OW 1944   5.304   8.429   1.876
66702SOL    HW1 1945   5.286   8.343   1.913
66702SOL    HW2 1946   5.329   8.412   1.785
66703SOL     OW 1947   1.414   3.032   2.819
66703SOL    HW1 1948   1.465   2.981   2.756
66703SOL    HW2 1949   1.329   3.046   2.776
66704SOL     OW 1950   5.567  13.057   1.381
66704SOL    HW1 1951   5.531  13.033   1.295
66704SOL    HW2 1952   5.505  13.121   1.415
66705SOL     OW 1953   2.178  11.860   5.864
66705SOL    HW1 1954   2.264  11.834   5.831
66705SOL    HW2 1955   2.129  11.779   5.871
66706SOL     OW 1956  11.926   5.837   4.300
66706SOL    HW1 1957  11.966   5.828   4.387
66706SOL    HW2 1958  11.910   5.931   4.291
66707SOL     OW 1959   0.979   9.245  11.289
66707SOL    HW1 1960   0.915   9.271  11.223
66707SOL    HW2 1961   0.976   9.149  11.287
66708SOL     OW 1962   7.961   5.389  10.622
66708SOL    HW1 1963   7.990   5.411  10.710
66708SOL    HW2 1964   7.878   5.436  10.612
66709SOL     OW 1965   0.261   5.923   5.178
66709SOL    HW1 1966   0.241   5.970   5.097
66709SOL    HW2 1967   0.356   5.931   5.188
66710SOL     OW 1968   2.836  13.661  14.562
66710SOL    HW1 1969   2.873  13.574  14.581
66710SOL    HW2 1970   2.876  13.719  14.627
66711SOL     OW 1971   9.505   0.720   6.062
66711SOL    HW1 1972   9.579   0.777   6.085
66711SOL    HW2 1973   9.531   0.678   5.980
66712SOL     OW 1974  14.106   3.297   4.883
66712SOL    HW1 1975  14.060   3.322   4.803
66712SOL    HW2 1976  14.091   3.202   4.891
66713SOL     OW 1977   6.414   0.045  13.948
66713SOL    HW1 1978   6.332   0.082  13.916
66713SOL    HW2 1979   6.420  14.841  13.905
66714SOL     OW 1980  10.848  12.709   8.381
66714SOL    HW1 1981  10.879  12.786   8.335
66714SOL    HW2 1982  10.753  12.710   8.369
66715SOL     OW 1983   4.721   3.487  11.915
66715SOL    HW1 1984   4.787   3.429  11.952
66715SOL    HW2 1985   4.744   3.493  11.822
66716SOL     OW 1986   9.787   7.803  13.782
66716SOL    HW1 1987   9.763   7.737  13.717
66716SOL    HW2 1988   9.880   7.818  13.767
66717SOL     OW 1989  14.088  13.393   0.493
66717SOL    HW1 1990  14.080  13.486   0.469
66717SOL    HW2 1991  14.167  13.389   0.547
66718SOL     OW 1992   6.374   5.094   4.907
66718SOL    HW1 1993   6.452   5.115   4.856
66718SOL    HW2 1994   6.404   5.029   4.971
66719SOL     OW 1995  11.938   4.825  14.756
66719SOL    HW1 1996  11.904   4.897  14.808
66719SOL    HW2 1997  11.921   4.747  14.809
66720SOL     OW 1998   6.925  14.107   4.651
66720SOL    HW1 1999   6.964  14.178   4.702
66720SOL    HW2 2000   6.992  14.038   4.651
66721SOL     OW 2001   2.321   8.604   0.603
66721SOL    HW1 2002   2.392   8.541   0.597
66721SOL    HW2 2003   2.364   8.689   0.598
66722SOL     OW 2004   1.496   7.828   8.291
66722SOL    HW1 2005   1.471   7.870   8.374
66722SOL    HW2 2006   1.424   7.768   8.272
66723SOL     OW 2007  11.357  14.326   9.900
66723SOL    HW1 2008  11.347  14.265   9.827
66723SOL    HW2 2009  11.426  14.288   9.954
66724SOL     OW 2010   2.971   5.276  11.494
66724SOL    HW1 2011   3.042   5.212  11.498
66724SOL    HW2 2012   3.014   5.358  11.468
66725SOL     OW 2013   7.233  13.543   3.911
66725SOL    HW1 2014   7.176  13.585   3.976
66725SOL    HW2 2015   7.184  13.550   3.829
66726SOL     OW 2016   2.977   2.009  12.742
66726SOL    HW1 2017   2.936   1.952  12.807
66726SOL    HW2 2018   2.904   2.060  12.705
66727SOL     OW 2019   5.155  13.250  11.776
66727SOL    HW1 2020   5.144  13.193  11.700
66727SOL    HW2 2021   5.249  13.267  11.778
66728SOL     OW 2022   6.435   6.251   9.120
66728SOL    HW1 2023   6.366   6.232   9.058
66728SOL    HW2 2024   6.486   6.322   9.078
66729SOL     OW 2025   8.216  11.680   1.347
66729SOL    HW1 2026   8.238  11.770   1.372
66729SOL    HW2 2027   8.231  11.677   1.252
66730SOL     OW 2028  14.292   0.892  12.186
66730SOL    HW1 2029  14.361   0.832  12.157
66730SOL    HW2 2030  14.272   0.865  12.275
66731SOL     OW 2031   9.260   8.714  12.989
66731SOL    HW1 2032   9.348   8.678  12.975
66731SOL    HW2 2033   9.202   8.639  12.976
66732SOL     OW 2034   5.880   3.219   6.280
66732SOL    HW1 2035   5.856   3.207   6.372
66732SOL    HW2 2036   5.805   3.186   6.231
66733SOL     OW 2037  12.803  10.541   9.115
66733SOL    HW1 2038  12.839  10.492   9.041
66733SOL    HW2 2039  12.834  10.630   9.103
66734SOL     OW 2040   0.964  13.925   3.428
66734SOL    HW1 2041   0.873  13.929   3.459
66734SOL    HW2 2042   1.016  13.928   3.508
66735SOL     OW 2043   8.684   1.426  11.682
66735SOL    HW1 2044   8.639   1.440  11.599
66735SOL    HW2 2045   8.754   1.364  11.661
66736SOL     OW 2046   9.913   6.144   3.395
66736SOL    HW1 2047   9.828   6.174   3.363
66736SOL    HW2 2048   9.894   6.096   3.475
66737SOL     OW 2049   1.119   4.913   3.443
66737SOL    HW1 2050   1.158   4.831   3.472
66737SOL    HW2 2051   1.027   4.893   3.430
66738SOL     OW 2052   6.810  14.655  11.984
66738SOL    HW1 2053   6.752  14.605  12.042
66738SOL    HW2 2054   6.831  14.595  11.914
66739SOL     OW 2055   1.385  12.298  13.012
66739SOL    HW1 2056   1.399  12.332  12.924
66739SOL    HW2 2057   1.469  12.260  13.037
66740SOL     OW 2058   3.783   2.066   4.399
66740SOL    HW1 2059   3.837   1.996   4.435
66740SOL    HW2 2060   3.784   2.135   4.465
66741SOL     OW 2061  10.153  11.178   3.497
66741SOL    HW1 2062  10.164  11.257   3.550
66741SOL    HW2 2063  10.070  11.141   3.526
66742SOL     OW 2064   1.488  12.198   0.062
66742SOL    HW1 2065   1.426  12.131   0.035
66742SOL    HW2 2066   1.503  12.251  14.866
66743SOL     OW 2067   0.160   9.912  10.702
66743SOL    HW1 2068   0.105   9.923  10.624
66743SOL    HW2 2069   0.148   9.993  10.751
66744SOL     OW 2070   8.080   7.900  14.394
66744SOL    HW1 2071   8.036   7.835  14.448
66744SOL    HW2 2072   8.101   7.854  14.313
66745SOL     OW 2073   3.907  12.415   5.991
66745SOL    HW1 2074   3.859  12.366   5.925
66745SOL    HW2 2075   3.953  12.483   5.941
66746SOL     OW 2076  10.816   7.802   7.855
66746SOL    HW1 2077  10.742   7.751   7.890
66746SOL    HW2 2078  10.830   7.871   7.920
66747SOL     OW 2079   2.587   8.842   0.120
66747SOL    HW1 2080   2.651   8.778   0.153
66747SOL    HW2 2081   2.521   8.848   0.189
66748SOL     OW 2082  10.689   6.774   0.210
66748SOL    HW1 2083  10.696   6.680   0.225
66748SOL    HW2 2084  10.628   6.805   0.278
66749SOL     OW 2085   1.595   2.859   0.336
66749SOL    HW1 2086   1.499   2.864   0.345
66749SOL    HW2 2087   1.622   2.950   0.325
66750SOL     OW 2088   8.544  14.006  14.837
66750SOL    HW1 2089   8.575  13.986   0.043
66750SOL    HW2 2090   8.455  14.040  14.849
66751SOL     OW 2091   3.007   1.535  11.503
66751SOL    HW1 2092   2.943   1.490  11.559
66751SOL    HW2 2093   2.963   1.615  11.476
66752SOL     OW 2094   0.105   4.150  11.444
66752SOL    HW1 2095   0.146   4.237  11.442
66752SOL    HW2 2096   0.017   4.164  11.409
66753SOL     OW 2097   2.724   6.244  12.384
66753SOL    HW1 2098   2.650   6.295  12.351
66753SOL    HW2 2099   2.745   6.184  12.312
66754SOL     OW 2100   3.109   9.405   9.413
66754SOL    HW1 2101   3.015   9.406   9.394
66754SOL    HW2 2102   3.144   9.336   9.357
66755SOL     OW 2103   1.692   8.154   8.590
66755SOL    HW1 2104   1.697   8.062   8.564
66755SOL    HW2 2105   1.727   8.202   8.514
66756SOL     OW 2106  13.462   3.367   6.642
66756SOL    HW1 2107  13.420   3.335   6.722
66756SOL    HW2 2108  13.485   3.288   6.593
66757SOL     OW 2109  10.455   8.236   5.122
66757SOL    HW1 2110  10.373   8.211   5.165
66757SOL    HW2 2111  10.521   8.177   5.158
66758SOL     OW 2112   6.954   9.685   0.836
66758SOL    HW1 2113   6.875   9.635   0.858
66758SOL    HW2 2114   6.941   9.711   0.745
66759SOL     OW 2115  12.081   5.031   7.823
66759SOL    HW1 2116  12.176   5.032   7.838
66759SOL    HW2 2117  12.043   5.053   7.908
66760SOL     OW 2118   1.907  13.675   2.677
66760SOL    HW1 2119   1.910  13.643   2.767
66760SOL    HW2 2120   1.998  13.675   2.648
66761SOL     OW 2121   6.304  12.405  10.682
66761SOL    HW1 2122   6.340  12.472  10.739
66761SOL    HW2 2123   6.376  12.382  10.624
66762SOL     OW 2124   7.157   8.632   7.062
66762SOL    HW1 2125   7.110   8.556   7.097
66762SOL    HW2 2126   7.089   8.695   7.041
66763SOL     OW 2127   9.419  14.253   3.902
66763SOL    HW1 2128   9.446  14.211   3.820
66763SOL    HW2 2129   9.392  14.179   3.958
66764SOL     OW 2130  12.665  13.629  12.757
66764SOL    HW1 2131  12.650  13.635  12.852
66764SOL    HW2 2132  12.678  13.536  12.740
66765SOL     OW 2133  10.709  14.360  11.094
66765SOL    HW1 2134  10.799  14.329  11.103
66765SOL    HW2 2135  10.657  14.296  11.142
66766SOL     OW 2136   9.260   8.989   2.071
66766SOL    HW1 2137   9.175   8.946   2.067
66766SOL    HW2 2138   9.287   9.000   1.980
66767SOL     OW 2139  11.361  13.022   4.922
66767SOL    HW1 2140  11.443  13.069   4.910
66767SOL    HW2 2141  11.376  12.936   4.883
66768SOL     OW 2142   7.305  14.844   3.915
66768SOL    HW1 2143   7.221   0.005   3.902
66768SOL    HW2 2144   7.314  14.784   3.841
66769SOL     OW 2145   5.790  11.163   4.159
66769SOL    HW1 2146   5.739  11.111   4.097
66769SOL    HW2 2147   5.730  11.229   4.191
66770SOL     OW 2148   7.327   1.378  11.620
66770SOL    HW1 2149   7.417   1.387  11.653
66770SOL    HW2 2150   7.300   1.468  11.602
66771SOL     OW 2151   1.265  10.725   4.177
66771SOL    HW1 2152   1.233  10.780   4.249
66771SOL    HW2 2153   1.335  10.777   4.137
66772SOL     OW 2154   8.884   4.797  10.130
66772SOL    HW1 2155   8.814   4.829  10.187
66772SOL    HW2 2156   8.839   4.740  10.067
66773SOL     OW 2157   7.152  10.766   7.443
66773SOL    HW1 2158   7.235  10.720   7.435
66773SOL    HW2 2159   7.165  10.848   7.395
66774SOL     OW 2160  10.730   4.949   9.933
66774SOL    HW1 2161  10.712   5.026   9.879
66774SOL    HW2 2162  10.752   4.880   9.870
66775SOL     OW 2163   1.020  11.885   2.710
66775SOL    HW1 2164   0.975  11.808   2.677
66775SOL    HW2 2165   1.041  11.864   2.801
66776SOL     OW 2166   4.762   0.826   1.623
66776SOL    HW1 2167   4.794   0.915   1.641
66776SOL    HW2 2168   4.835   0.770   1.649
66777SOL     OW 2169   5.754   0.811   7.682
66777SOL    HW1 2170   5.810   0.851   7.748
66777SOL    HW2 2171   5.694   0.756   7.731
66778SOL     OW 2172   0.376  14.653  11.743
66778SOL    HW1 2173   0.392  14.570  11.699
66778SOL    HW2 2174   0.437  14.655  11.816
66779SOL     OW 2175  10.558  10.597   9.555
66779SOL    HW1 2176  10.477  10.562   9.516
66779SOL    HW2 2177  10.628  10.558   9.503
66780SOL     OW 2178   7.242   7.616   6.374
66780SOL    HW1 2179   7.163   7.588   6.327
66780SOL    HW2 2180   7.250   7.709   6.353
66781SOL     OW 2181   2.573   2.332  10.527
66781SOL    HW1 2182   2.510   2.386  10.574
66781SOL    HW2 2183   2.551   2.343  10.434
66782SOL     OW 2184   2.238   5.841   8.915
66782SOL    HW1 2185   2.216   5.934   8.912
66782SOL    HW2 2186   2.190   5.807   8.990
66783SOL     OW 2187  12.021  12.754  10.370
66783SOL    HW1 2188  12.095  12.810  10.394
66783SOL    HW2 2189  11.973  12.805  10.305
66784SOL     OW 2190  13.328   0.568  11.234
66784SOL    HW1 2191  13.359   0.658  11.224
66784SOL    HW2 2192  13.273   0.570  11.313
66785SOL     OW 2193   3.747  13.628   9.344
66785SOL    HW1 2194   3.748  13.591   9.433
66785SOL    HW2 2195   3.659  13.609   9.311
66786SOL     OW 2196  12.521  13.915   9.545
66786SOL    HW1 2197  12.555  13.854   9.611
66786SOL    HW2 2198  12.443  13.953   9.585
66787SOL     OW 2199  10.931  10.123  12.236
66787SOL    HW1 2200  10.913  10.194  12.175
66787SOL    HW2 2201  10.931  10.165  12.322
66788SOL     OW 2202   0.066   0.024   8.829
66788SOL    HW1 2203   0.101  14.881   8.914
66788SOL    HW2 2204   0.118  14.856   8.766
66789SOL     OW 2205   3.253   0.770  14.531
66789SOL    HW1 2206   3.255   0.682  14.568
66789SOL    HW2 2207   3.241   0.757  14.437
66790SOL     OW 2208  12.545   5.521   6.376
66790SOL    HW1 2209  12.477   5.550   6.314
66790SOL    HW2 2210  12.544   5.587   6.445
66791SOL     OW 2211  10.932  12.173   5.373
66791SOL    HW1 2212  10.881  12.153   5.295
66791SOL    HW2 2213  11.017  12.203   5.340
66792SOL     OW 2214   9.750   3.793   6.472
66792SOL    HW1 2215   9.725   3.806   6.564
66792SOL    HW2 2216   9.746   3.880   6.433
66793SOL     OW 2217  11.851  13.287  11.346
66793SOL    HW1 2218  11.812  13.370  11.374
66793SOL    HW2 2219  11.781  13.223  11.361
66794SOL     OW 2220  12.281  13.599   6.860
66794SOL    HW1 2221  12.278  13.504   6.873
66794SOL    HW2 2222  12.215  13.633   6.920
66795SOL     OW 2223   2.061   0.709   5.344
66795SOL    HW1 2224   2.040   0.626   5.385
66795SOL    HW2 2225   2.101   0.685   5.260
66796SOL     OW 2226   2.544  12.154   7.163
66796SOL    HW1 2227   2.630  12.153   7.121
66796SOL    HW2 2228   2.483  12.130   7.093
66797SOL     OW 2229   2.511   5.450   4.044
66797SOL    HW1 2230   2.479   5.453   3.954
66797SOL    HW2 2231   2.505   5.541   4.075
66798SOL     OW 2232   3.238  13.565  12.072
66798SOL    HW1 2233   3.290  13.594  11.997
66798SOL    HW2 2234   3.198  13.484  12.043
66799SOL     OW 2235   3.195   7.583  11.107
66799SOL    HW1 2236   3.127   7.629  11.058
66799SOL    HW2 2237   3.166   7.587  11.198
66800SOL     OW 2238   6.142   4.194   8.912
66800SOL    HW1 2239   6.057   4.180   8.953
66800SOL    HW2 2240   6.205   4.177   8.982
66801SOL     OW 2241   1.081   7.478   0.910
66801SOL    HW1 2242   1.087   7.536   0.986
66801SOL    HW2 2243   1.111   7.393   0.943
66802SOL     OW 2244   1.082  14.870   9.455
66802SOL    HW1 2245   1.150  14.847   9.519
66802SOL    HW2 2246   1.122   0.055   9.400
66803SOL     OW 2247  10.958   3.647   1.357
66803SOL    HW1 2248  10.914   3.694   1.287
66803SOL    HW2 2249  10.956   3.708   1.431
66804SOL     OW 2250   0.150   1.487   2.815
66804SOL    HW1 2251   0.244   1.470   2.829
66804SOL    HW2 2252   0.113   1.402   2.792
66805SOL     OW 2253   7.898  12.836  13.131
66805SOL    HW1 2254   7.893  12.742  13.152
66805SOL    HW2 2255   7.858  12.842  13.044
66806SOL     OW 2256   4.745   0.937  13.972
66806SOL    HW1 2257   4.706   0.935  14.059
66806SOL    HW2 2258   4.757   0.845  13.949
66807SOL     OW 2259  12.866  11.880   8.166
66807SOL    HW1 2260  12.884  11.853   8.076
66807SOL    HW2 2261  12.878  11.975   8.164
66808SOL     OW 2262   7.646   0.525   1.545
66808SOL    HW1 2263   7.717   0.462   1.543
66808SOL    HW2 2264   7.681   0.600   1.594
66809SOL     OW 2265   9.325  14.747   0.185
66809SOL    HW1 2266   9.381  14.732   0.262
66809SOL    HW2 2267   9.281  14.663   0.171
66810SOL     OW 2268   7.625   3.044   9.624
66810SOL    HW1 2269   7.639   2.977   9.691
66810SOL    HW2 2270   7.626   2.996   9.541
66811SOL     OW 2271   8.286   0.363   3.203
66811SOL    HW1 2272   8.306   0.445   3.248
66811SOL    HW2 2273   8.239   0.311   3.269
66812SOL     OW 2274   7.618   3.294   1.641
66812SOL    HW1 2275   7.713   3.284   1.644
66812SOL    HW2 2276   7.584   3.204   1.636
66813SOL     OW 2277  14.244   0.932   1.272
66813SOL    HW1 2278  14.327   0.888   1.294
66813SOL    HW2 2279  14.195   0.866   1.223
66814SOL     OW 2280   0.937   2.216   5.944
66814SOL    HW1 2281   0.993   2.147   5.979
66814SOL    HW2 2282   0.997   2.285   5.917
66815SOL     OW 2283   6.179   2.215  10.132
66815SOL    HW1 2284   6.178   2.293  10.076
66815SOL    HW2 2285   6.267   2.214  10.170
66816SOL     OW 2286   8.892   4.677   1.125
66816SOL    HW1 2287   8.963   4.656   1.065
66816SOL    HW2 2288   8.813   4.675   1.071
66817SOL     OW 2289   2.959   4.996  13.196
66817SOL    HW1 2290   2.982   4.903  13.203
66817SOL    HW2 2291   3.043   5.041  13.184
66818SOL     OW 2292   1.210   1.859   0.126
66818SOL    HW1 2293   1.147   1.796   0.160
66818SOL    HW2 2294   1.238   1.822   0.043
66819SOL     OW 2295  14.530   4.932   4.124
66819SOL    HW1 2296  14.530   4.927   4.029
66819SOL    HW2 2297  14.479   5.010   4.145
66820SOL     OW 2298   0.236   0.953   7.058
66820SOL    HW1 2299   0.205   0.893   6.990
66820SOL    HW2 2300   0.265   1.030   7.010
66821SOL     OW 2301   8.961  14.121  12.346
66821SOL    HW1 2302   8.884  14.138  12.399
66821SOL    HW2 2303   9.031  14.172  12.388
66822SOL     OW 2304  10.687  11.602   5.599
66822SOL    HW1 2305  10.685  11.511   5.630
66822SOL    HW2 2306  10.648  11.597   5.512
66823SOL     OW 2307   8.750   1.177   2.239
66823SOL    HW1 2308   8.655   1.162   2.247
66823SOL    HW2 2309   8.789   1.124   2.308
66824SOL     OW 2310   9.997   0.874   8.225
66824SOL    HW1 2311   9.949   0.897   8.304
66824SOL    HW2 2312  10.075   0.930   8.226
66825SOL     OW 2313   9.451   7.305  11.137
66825SOL    HW1 2314   9.544   7.299  11.115
66825SOL    HW2 2315   9.409   7.237  11.084
66826SOL     OW 2316   7.966   1.900   1.333
66826SOL    HW1 2317   7.966   1.996   1.329
66826SOL    HW2 2318   7.874   1.876   1.342
66827SOL     OW 2319   5.819   2.353   3.847
66827SOL    HW1 2320   5.880   2.334   3.775
66827SOL    HW2 2321   5.869   2.333   3.926
66828SOL     OW 2322   3.635  11.596  13.201
66828SOL    HW1 2323   3.721  11.565  13.171
66828SOL    HW2 2324   3.654  11.678  13.246
66829SOL     OW 2325   1.534  13.974  12.772
66829SOL    HW1 2326   1.508  14.037  12.839
66829SOL    HW2 2327   1.623  13.948  12.798
66830SOL     OW 2328   1.698   2.468  14.565
66830SOL    HW1 2329   1.789   2.454  14.537
66830SOL    HW2 2330   1.678   2.392  14.620
66831SOL     OW 2331  10.627   5.984   5.770
66831SOL    HW1 2332  10.647   6.039   5.694
66831SOL    HW2 2333  10.626   6.044   5.844
66832SOL     OW 2334   3.011   5.639   5.974
66832SOL    HW1 2335   3.027   5.732   5.990
66832SOL    HW2 2336   3.021   5.630   5.879
66833SOL     OW 2337   7.634   6.025   4.199
66833SOL    HW1 2338   7.673   5.993   4.281
66833SOL    HW2 2339   7.614   6.117   4.217
66834SOL     OW 2340  11.014  11.879  10.744
66834SOL    HW1 2341  11.024  11.784  10.733
66834SOL    HW2 2342  11.056  11.917  10.666
66835SOL     OW 2343   4.640   6.180   8.566
66835SOL    HW1 2344   4.596   6.263   8.585
66835SOL    HW2 2345   4.578   6.132   8.510
66836SOL     OW 2346   3.122   3.949  14.169
66836SOL    HW1 2347   3.120   4.024  14.109
66836SOL    HW2 2348   3.145   3.987  14.254
66837SOL     OW 2349   9.957   6.466   9.232
66837SOL    HW1 2350  10.034   6.519   9.253
66837SOL    HW2 2351   9.931   6.429   9.316
66838SOL     OW 2352   8.498   6.641   1.830
66838SOL    HW1 2353   8.591   6.628   1.849
66838SOL    HW2 2354   8.471   6.712   1.888
66839SOL     OW 2355   1.460  10.429   5.140
66839SOL    HW1 2356   1.486  10.423   5.232
66839SOL    HW2 2357   1.486  10.345   5.102
66840SOL     OW 2358   8.302   6.616   3.434
66840SOL    HW1 2359   8.206   6.611   3.437
66840SOL    HW2 2360   8.331   6.570   3.513
66841SOL     OW 2361  12.239  12.966  14.035
66841SOL    HW1 2362  12.152  12.925  14.027
66841SOL    HW2 2363  12.285  12.939  13.956
66842SOL     OW 2364   2.595   9.689   1.351
66842SOL    HW1 2365   2.664   9.705   1.287
66842SOL    HW2 2366   2.539   9.623   1.310
66843SOL     OW 2367   1.529  11.317  12.281
66843SOL    HW1 2368   1.571  11.311  12.367
66843SOL    HW2 2369   1.526  11.227  12.250
66844SOL     OW 2370   1.696   7.719   1.416
66844SOL    HW1 2371   1.646   7.800   1.408
66844SOL    HW2 2372   1.697   7.682   1.328
66845SOL     OW 2373  12.755  10.119  13.108
66845SOL    HW1 2374  12.742  10.213  13.091
66845SOL    HW2 2375  12.773  10.115  13.202
66846SOL     OW 2376   9.233   7.298  14.286
66846SOL    HW1 2377   9.203   7.276  14.198
66846SOL    HW2 2378   9.189   7.381  14.306
66847SOL     OW 2379   5.376   3.240   3.840
66847SOL    HW1 2380   5.385   3.329   3.807
66847SOL    HW2 2381   5.462   3.220   3.878
66848SOL     OW 2382   5.052   5.840   9.103
66848SOL    HW1 2383   5.091   5.813   9.187
66848SOL    HW2 2384   4.958   5.828   9.115
66849SOL     OW 2385  10.947   1.488   0.141
66849SOL    HW1 2386  10.864   1.483   0.094
66849SOL    HW2 2387  10.987   1.569   0.111
66850SOL     OW 2388  13.224   4.024   6.488
66850SOL    HW1 2389  13.148   4.015   6.546
66850SOL    HW2 2390  13.265   3.937   6.491
66851SOL     OW 2391  12.462   0.167   9.037
66851SOL    HW1 2392  12.532   0.207   8.985
66851SOL    HW2 2393  12.465   0.074   9.015
66852SOL     OW 2394   6.530  10.665  14.202
66852SOL    HW1 2395   6.438  10.654  14.224
66852SOL    HW2 2396   6.550  10.594  14.142
66853SOL     OW 2397  14.341  11.896   9.304
66853SOL    HW1 2398  14.428  11.924   9.332
66853SOL    HW2 2399  14.305  11.852   9.381
66854SOL     OW 2400   0.147  11.159  13.841
66854SOL    HW1 2401   0.134  11.207  13.923
66854SOL    HW2 2402   0.113  11.218  13.774
66855SOL     OW 2403  11.842   5.282  14.572
66855SOL    HW1 2404  11.890   5.345  14.626
66855SOL    HW2 2405  11.750   5.300  14.588
66856SOL     OW 2406   0.537   4.742  11.069
66856SOL    HW1 2407   0.481   4.768  10.996
66856SOL    HW2 2408   0.626   4.766  11.041
66857SOL     OW 2409  12.353   0.077  12.578
66857SOL    HW1 2410  12.381   0.148  12.636
66857SOL    HW2 2411  12.282   0.115  12.526
66858SOL     OW 2412  13.885   8.333  13.125
66858SOL    HW1 2413  13.938   8.399  13.080
66858SOL    HW2 2414  13.794   8.355  13.102
66859SOL     OW 2415   4.815  12.028   3.261
66859SOL    HW1 2416   4.809  12.106   3.316
66859SOL    HW2 2417   4.894  11.982   3.293
66860SOL     OW 2418  13.766   8.622   3.184
66860SOL    HW1 2419  13.765   8.606   3.278
66860SOL    HW2 2420  13.674   8.617   3.158
66861SOL     OW 2421   6.967  12.957  12.080
66861SOL    HW1 2422   7.030  13.025  12.104
66861SOL    HW2 2423   6.996  12.926  11.994
66862SOL     OW 2424  11.775   4.671  14.067
66862SOL    HW1 2425  11.725   4.729  14.124
66862SOL    HW2 2426  11.710   4.631  14.009
66863SOL     OW 2427   0.030  12.354  10.021
66863SOL    HW1 2428  14.845  12.346  10.089
66863SOL    HW2 2429  14.880  12.425   9.965
66864SOL     OW 2430   1.332  11.690  14.299
66864SOL    HW1 2431   1.407  11.746  14.321
66864SOL    HW2 2432   1.291  11.734  14.224
66865SOL     OW 2433  10.932   2.603   6.156
66865SOL    HW1 2434  10.905   2.673   6.216
66865SOL    HW2 2435  10.856   2.592   6.098
66866SOL     OW 2436   7.991   0.177   3.598
66866SOL    HW1 2437   7.975   0.096   3.647
66866SOL    HW2 2438   7.955   0.246   3.654
66867SOL     OW 2439   6.344  10.677  12.277
66867SOL    HW1 2440   6.418  10.640  12.229
66867SOL    HW2 2441   6.351  10.639  12.365
66868SOL     OW 2442   5.786   3.417  11.086
66868SOL    HW1 2443   5.706   3.377  11.052
66868SOL    HW2 2444   5.798   3.379  11.173
66869SOL     OW 2445  13.371   1.643   5.430
66869SOL    HW1 2446  13.459   1.671   5.457
66869SOL    HW2 2447  13.381   1.550   5.409
66870SOL     OW 2448   1.545   6.456   0.251
66870SOL    HW1 2449   1.613   6.466   0.185
66870SOL    HW2 2450   1.580   6.390   0.311
66871SOL     OW 2451   9.489   2.414   0.287
66871SOL    HW1 2452   9.516   2.332   0.245
66871SOL    HW2 2453   9.568   2.467   0.289
66872SOL     OW 2454   0.477  12.320   2.458
66872SOL    HW1 2455   0.514  12.236   2.431
66872SOL    HW2 2456   0.383  12.309   2.449
66873SOL     OW 2457   4.635   3.651  13.077
66873SOL    HW1 2458   4.669   3.677  13.163
66873SOL    HW2 2459   4.668   3.719  13.017
66874SOL     OW 2460   2.096   0.988  14.561
66874SOL    HW1 2461   2.123   0.903  14.526
66874SOL    HW2 2462   2.175   1.041  14.558
66875SOL     OW 2463   7.170   7.631  11.348
66875SOL    HW1 2464   7.262   7.639  11.373
66875SOL    HW2 2465   7.133   7.718  11.362
66876SOL     OW 2466  13.055  14.701  12.881
66876SOL    HW1 2467  13.059  14.634  12.949
66876SOL    HW2 2468  13.139  14.746  12.886
66877SOL     OW 2469   9.755  11.624   0.946
66877SOL    HW1 2470   9.706  11.586   1.019
66877SOL    HW2 2471   9.780  11.548   0.893
66878SOL     OW 2472  14.423  11.833  10.511
66878SOL    HW1 2473  14.374  11.839  10.429
66878SOL    HW2 2474  14.368  11.778  10.567
66879SOL     OW 2475   8.062   7.548  14.441
66879SOL    HW1 2476   7.986   7.530  14.386
66879SOL    HW2 2477   8.052   7.489  14.516
66880SOL     OW 2478  11.433   4.380  12.204
66880SOL    HW1 2479  11.384   4.398  12.124
66880SOL    HW2 2480  11.495   4.312  12.179
66881SOL     OW 2481   6.202   4.280   3.845
66881SOL    HW1 2482   6.129   4.315   3.895
66881SOL    HW2 2483   6.161   4.222   3.781
66882SOL     OW 2484   9.603   7.571   2.316
66882SOL    HW1 2485   9.649   7.652   2.338
66882SOL    HW2 2486   9.631   7.508   2.383
66883SOL     OW 2487   9.362  13.815   6.955
66883SOL    HW1 2488   9.367  13.828   6.860
66883SOL    HW2 2489   9.436  13.864   6.989
66884SOL     OW 2490   1.915  11.523   3.813
66884SOL    HW1 2491   1.958  11.492   3.733
66884SOL    HW2 2492   1.959  11.475   3.884
66885SOL     OW 2493   4.652  12.977   2.903
66885SOL    HW1 2494   4.703  12.911   2.856
66885SOL    HW2 2495   4.663  12.954   2.995
66886SOL     OW 2496   0.091   7.649   2.951
66886SOL    HW1 2497   0.093   7.652   3.047
66886SOL    HW2 2498   0.169   7.600   2.927
66887SOL     OW 2499   2.950  12.975   4.433
66887SOL    HW1 2500   2.896  13.045   4.397
66887SOL    HW2 2501   3.039  12.996   4.406
66888SOL     OW 2502  14.252  12.918   6.535
66888SOL    HW1 2503  14.315  12.859   6.495
66888SOL    HW2 2504  14.281  12.927   6.626
66889SOL     OW 2505   8.015  10.782  11.584
66889SOL    HW1 2506   8.012  10.807  11.677
66889SOL    HW2 2507   8.064  10.700  11.583
66890SOL     OW 2508   9.911   8.202   3.760
66890SOL    HW1 2509   9.919   8.265   3.832
66890SOL    HW2 2510  10.000   8.194   3.725
66891SOL     OW 2511   4.712   8.993  11.084
66891SOL    HW1 2512   4.710   8.903  11.052
66891SOL    HW2 2513   4.624   9.009  11.119
66892SOL     OW 2514   1.768  11.239   8.539
66892SOL    HW1 2515   1.742  11.153   8.573
66892SOL    HW2 2516   1.830  11.218   8.469
66893SOL     OW 2517  13.800   5.651   2.478
66893SOL    HW1 2518  13.747   5.579   2.512
66893SOL    HW2 2519  13.881   5.647   2.528
66894SOL     OW 2520   7.931   2.315  13.288
66894SOL    HW1 2521   8.009   2.362  13.259
66894SOL    HW2 2522   7.874   2.383  13.325
66895SOL     OW 2523  10.367   8.778  10.380
66895SOL    HW1 2524  10.275   8.770  10.354
66895SOL    HW2 2525  10.385   8.700  10.432
66896SOL     OW 2526   1.598   9.230   7.401
66896SOL    HW1 2527   1.564   9.316   7.424
66896SOL    HW2 2528   1.623   9.237   7.308
66897SOL     OW 2529  10.057  11.898   4.288
66897SOL    HW1 2530  10.010  11.981   4.296
66897SOL    HW2 2531  10.020  11.842   4.357
66898SOL     OW 2532   9.998  10.324   2.495
66898SOL    HW1 2533  10.069  10.383   2.521
66898SOL    HW2 2534  10.035  10.273   2.422
66899SOL     OW 2535  14.815   8.381  11.319
66899SOL    HW1 2536  14.737   8.331  11.341
66899SOL    HW2 2537  14.837   8.353  11.230
66900SOL     OW 2538   4.361  14.174  10.100
66900SOL    HW1 2539   4.333  14.199  10.012
66900SOL    HW2 2540   4.410  14.250  10.132
66901SOL     OW 2541   7.959   7.503   7.355
66901SOL    HW1 2542   8.013   7.498   7.277
66901SOL    HW2 2543   7.930   7.595   7.358
66902SOL     OW 2544  12.189   3.054   9.948
66902SOL    HW1 2545  12.108   3.091   9.914
66902SOL    HW2 2546  12.246   3.129   9.963
66903SOL     OW 2547  12.852   1.763  14.846
66903SOL    HW1 2548  12.903   1.741  14.767
66903SOL    HW2 2549  12.862   1.686   0.020
66904SOL     OW 2550   1.009   9.772   7.777
66904SOL    HW1 2551   0.962   9.696   7.743
66904SOL    HW2 2552   1.074   9.792   7.710
66905SOL     OW 2553   9.807  11.326   0.262
66905SOL    HW1 2554   9.736  11.364   0.314
66905SOL    HW2 2555   9.851  11.401   0.223
66906SOL     OW 2556  11.072   7.326  10.143
66906SOL    HW1 2557  11.027   7.395  10.094
66906SOL    HW2 2558  11.110   7.270  10.076
66907SOL     OW 2559   3.376   4.019   6.307
66907SOL    HW1 2560   3.298   4.066   6.278
66907SOL    HW2 2561   3.439   4.087   6.329
66908SOL     OW 2562   3.384   4.685  11.998
66908SOL    HW1 2563   3.349   4.729  11.920
66908SOL    HW2 2564   3.448   4.623  11.964
66909SOL     OW 2565   3.563  14.814  13.781
66909SOL    HW1 2566   3.606  14.826  13.866
66909SOL    HW2 2567   3.586  14.725  13.756
66910SOL     OW 2568   2.604  11.966   9.693
66910SOL    HW1 2569   2.598  11.874   9.721
66910SOL    HW2 2570   2.693  11.992   9.715
66911SOL     OW 2571   6.456   9.054   1.722
66911SOL    HW1 2572   6.500   9.062   1.807
66911SOL    HW2 2573   6.466   9.140   1.682
66912SOL     OW 2574   3.758   8.431   2.724
66912SOL    HW1 2575   3.807   8.473   2.653
66912SOL    HW2 2576   3.750   8.340   2.696
66913SOL     OW 2577   5.100   7.237   8.951
66913SOL    HW1 2578   5.143   7.246   9.036
66913SOL    HW2 2579   5.049   7.157   8.958
66914SOL     OW 2580   6.639  13.594   7.384
66914SOL    HW1 2581   6.678  13.622   7.301
66914SOL    HW2 2582   6.628  13.500   7.375
66915SOL     OW 2583   6.097   8.519  10.646
66915SOL    HW1 2584   6.093   8.588  10.712
66915SOL    HW2 2585   6.189   8.517  10.618
66916SOL     OW 2586   2.603   1.650   0.797
66916SOL    HW1 2587   2.674   1.713   0.798
66916SOL    HW2 2588   2.639   1.573   0.754
66917SOL     OW 2589   8.068  12.977  11.548
66917SOL    HW1 2590   7.994  13.037  11.542
66917SOL    HW2 2591   8.066  12.928  11.466
66918SOL     OW 2592   7.982   3.431  11.781
66918SOL    HW1 2593   8.058   3.385  11.746
66918SOL    HW2 2594   7.908   3.373  11.762
66919SOL     OW 2595   1.065   8.578   6.195
66919SOL    HW1 2596   1.109   8.611   6.117
66919SOL    HW2 2597   0.992   8.638   6.210
66920SOL     OW 2598  14.672   3.083  13.680
66920SOL    HW1 2599  14.687   3.164  13.730
66920SOL    HW2 2600  14.736   3.087  13.608
66921SOL     OW 2601  14.219  11.539  11.730
66921SOL    HW1 2602  14.170  11.553  11.811
66921SOL    HW2 2603  14.198  11.615  11.676
66922SOL     OW 2604   8.460   7.468   9.813
66922SOL    HW1 2605   8.371   7.438   9.828
66922SOL    HW2 2606   8.468   7.474   9.718
66923SOL     OW 2607  11.831   5.850   2.364
66923SOL    HW1 2608  11.864   5.810   2.284
66923SOL    HW2 2609  11.815   5.942   2.341
66924SOL     OW 2610   1.569   5.913   8.427
66924SOL    HW1 2611   1.492   5.900   8.481
66924SOL    HW2 2612   1.638   5.938   8.489
66925SOL     OW 2613  11.752   5.454   5.888
66925SOL    HW1 2614  11.751   5.427   5.979
66925SOL    HW2 2615  11.757   5.550   5.890
66926SOL     OW 2616  14.589  10.531   1.082
66926SOL    HW1 2617  14.660  10.596   1.080
66926SOL    HW2 2618  14.611  10.470   1.011
66927SOL     OW 2619   2.025  14.667   3.877
66927SOL    HW1 2620   1.950  14.708   3.920
66927SOL    HW2 2621   2.097  14.680   3.938
66928SOL     OW 2622   1.146   6.284   2.699
66928SOL    HW1 2623   1.202   6.220   2.742
66928SOL    HW2 2624   1.204   6.358   2.681
66929SOL     OW 2625   7.255   4.013   2.953
66929SOL    HW1 2626   7.174   4.012   3.004
66929SOL    HW2 2627   7.264   4.104   2.925
66930SOL     OW 2628  13.614   2.840   7.729
66930SOL    HW1 2629  13.596   2.834   7.635
66930SOL    HW2 2630  13.593   2.753   7.763
66931SOL     OW 2631  12.452   3.397  10.798
66931SOL    HW1 2632  12.368   3.431  10.769
66931SOL    HW2 2633  12.463   3.431  10.887
66932SOL     OW 2634   1.071  12.537  11.206
66932SOL    HW1 2635   1.070  12.483  11.127
66932SOL    HW2 2636   1.163  12.556  11.222
66933SOL     OW 2637   6.756   9.474  14.031
66933SOL    HW1 2638   6.681   9.488  13.973
66933SOL    HW2 2639   6.724   9.411  14.096
66934SOL     OW 2640   2.318   6.160  11.576
66934SOL    HW1 2641   2.234   6.203  11.590
66934SOL    HW2 2642   2.381   6.214  11.623
66935SOL     OW 2643   4.236   0.461   7.750
66935SOL    HW1 2644   4.278   0.376   7.755
66935SOL    HW2 2645   4.290   0.518   7.805
66936SOL     OW 2646   8.645   9.586   4.769
66936SOL    HW1 2647   8.617   9.553   4.855
66936SOL    HW2 2648   8.679   9.674   4.787
66937SOL     OW 2649   1.678   1.941   5.770
66937SOL    HW1 2650   1.744   2.003   5.739
66937SOL    HW2 2651   1.696   1.861   5.720
66938SOL     OW 2652  13.089   0.511   5.794
66938SOL    HW1 2653  13.121   0.597   5.767
66938SOL    HW2 2654  13.167   0.455   5.788
66939SOL     OW 2655   3.565   5.424  12.429
66939SOL    HW1 2656   3.640   5.393  12.377
66939SOL    HW2 2657   3.548   5.512  12.395
66940SOL     OW 2658   9.505   5.350   1.205
66940SOL    HW1 2659   9.515   5.388   1.292
66940SOL    HW2 2660   9.531   5.420   1.145
66941SOL     OW 2661   2.747   4.177   9.466
66941SOL    HW1 2662   2.763   4.243   9.399
66941SOL    HW2 2663   2.662   4.140   9.442
66942SOL     OW 2664   1.845  10.161   1.603
66942SOL    HW1 2665   1.913  10.209   1.651
66942SOL    HW2 2666   1.862  10.181   1.511
66943SOL     OW 2667  12.633  14.329  14.240
66943SOL    HW1 2668  12.671  14.403  14.287
66943SOL    HW2 2669  12.573  14.288  14.302
66944SOL     OW 2670  11.118   8.287  13.118
66944SOL    HW1 2671  11.116   8.382  13.109
66944SOL    HW2 2672  11.190   8.259  13.062
66945SOL     OW 2673  13.130  10.831  12.956
66945SOL    HW1 2674  13.114  10.753  12.902
66945SOL    HW2 2675  13.046  10.848  12.998
66946SOL     OW 2676   7.703   3.527   8.228
66946SOL    HW1 2677   7.673   3.490   8.145
66946SOL    HW2 2678   7.722   3.618   8.207
66947SOL     OW 2679   8.462   6.559   8.557
66947SOL    HW1 2680   8.534   6.504   8.526
66947SOL    HW2 2681   8.394   6.497   8.583
66948SOL     OW 2682   6.070   8.367   7.030
66948SOL    HW1 2683   6.059   8.331   7.117
66948SOL    HW2 2684   6.063   8.462   7.042
66949SOL     OW 2685   6.069   1.774   1.356
66949SOL    HW1 2686   6.051   1.703   1.293
66949SOL    HW2 2687   6.016   1.752   1.433
66950SOL     OW 2688   0.114   7.314  13.668
66950SOL    HW1 2689   0.041   7.339  13.611
66950SOL    HW2 2690   0.078   7.319  13.756
66951SOL     OW 2691   2.667  13.139   4.847
66951SOL    HW1 2692   2.630  13.196   4.779
66951SOL    HW2 2693   2.719  13.076   4.799
66952SOL     OW 2694   3.437  14.267   2.526
66952SOL    HW1 2695   3.438  14.339   2.589
66952SOL    HW2 2696   3.528  14.260   2.497
66953SOL     OW 2697   5.400   8.319   3.408
66953SOL    HW1 2698   5.463   8.391   3.410
66953SOL    HW2 2699   5.443   8.248   3.455
66954SOL     OW 2700  11.972   3.723   1.798
66954SOL    HW1 2701  11.900   3.661   1.784
66954SOL    HW2 2702  12.008   3.738   1.711
66955SOL     OW 2703   4.487   0.692  13.892
66955SOL    HW1 2704   4.446   0.765  13.938
66955SOL    HW2 2705   4.565   0.730  13.852
66956SOL     OW 2706  11.772   3.288   6.919
66956SOL    HW1 2707  11.835   3.304   6.848
66956SOL    HW2 2708  11.823   3.243   6.985
66957SOL     OW 2709   3.709  14.858   6.521
66957SOL    HW1 2710   3.696  14.775   6.566
66957SOL    HW2 2711   3.784   0.016   6.564
66958SOL     OW 2712   2.076   9.043   1.007
66958SOL    HW1 2713   2.082   8.988   0.929
66958SOL    HW2 2714   2.148   9.105   0.997
66959SOL     OW 2715   0.258  12.984  13.984
66959SOL    HW1 2716   0.314  13.042  13.932
66959SOL    HW2 2717   0.188  12.958  13.924
66960SOL     OW 2718   9.422   9.255   9.038
66960SOL    HW1 2719   9.362   9.294   9.101
66960SOL    HW2 2720   9.507   9.294   9.058
66961SOL     OW 2721  13.204   3.548  10.645
66961SOL    HW1 2722  13.255   3.524  10.567
66961SOL    HW2 2723  13.149   3.621  10.615
66962SOL     OW 2724  10.124  13.527   9.960
66962SOL    HW1 2725  10.193  13.554  10.021
66962SOL    HW2 2726  10.170  13.490   9.885
66963SOL     OW 2727  14.692  10.691  10.856
66963SOL    HW1 2728  14.784  10.677  10.833
66963SOL    HW2 2729  14.672  10.621  10.918
66964SOL     OW 2730  13.057   4.636  11.491
66964SOL    HW1 2731  13.033   4.559  11.439
66964SOL    HW2 2732  13.149   4.624  11.511
66965SOL     OW 2733  13.377  12.202  10.224
66965SOL    HW1 2734  13.412  12.291  10.235
66965SOL    HW2 2735  13.308  12.212  10.158
66966SOL     OW 2736   0.811   9.408   3.555
66966SOL    HW1 2737   0.822   9.464   3.478
66966SOL    HW2 2738   0.720   9.424   3.583
66967SOL     OW 2739   9.824   6.588   3.360
66967SOL    HW1 2740   9.882   6.535   3.415
66967SOL    HW2 2741   9.795   6.529   3.291
66968SOL     OW 2742  11.277   3.353   0.064
66968SOL    HW1 2743  11.240   3.366  14.858
66968SOL    HW2 2744  11.252   3.432   0.112
66969SOL     OW 2745   4.666  10.420  14.326
66969SOL    HW1 2746   4.659  10.497  14.270
66969SOL    HW2 2747   4.704  10.353  14.270
66970SOL     OW 2748  14.402  13.602  10.684
66970SOL    HW1 2749  14.492  13.569  10.674
66970SOL    HW2 2750  14.413  13.687  10.728
66971SOL     OW 2751   3.499   0.572  11.777
66971SOL    HW1 2752   3.523   0.664  11.788
66971SOL    HW2 2753   3.499   0.536  11.866
66972SOL     OW 2754   7.223   3.823   7.369
66972SOL    HW1 2755   7.215   3.778   7.452
66972SOL    HW2 2756   7.133   3.838   7.340
66973SOL     OW 2757   5.508   6.532   8.581
66973SOL    HW1 2758   5.600   6.507   8.581
66973SOL    HW2 2759   5.462   6.457   8.544
66974SOL     OW 2760   1.845   9.850   0.170
66974SOL    HW1 2761   1.770   9.851   0.110
66974SOL    HW2 2762   1.850   9.760   0.201
66975SOL     OW 2763  14.317   3.903  14.697
66975SOL    HW1 2764  14.371   3.975  14.728
66975SOL    HW2 2765  14.380   3.837  14.669
66976SOL     OW 2766   4.991   8.580  13.184
66976SOL    HW1 2767   5.027   8.636  13.252
66976SOL    HW2 2768   4.998   8.631  13.103
66977SOL     OW 2769   7.691   5.660   7.657
66977SOL    HW1 2770   7.677   5.611   7.738
66977SOL    HW2 2771   7.739   5.598   7.601
66978SOL     OW 2772  14.504   1.749   7.371
66978SOL    HW1 2773  14.585   1.797   7.358
66978SOL    HW2 2774  14.452   1.804   7.428
66979SOL     OW 2775   0.059   6.879   8.828
66979SOL    HW1 2776   0.003   6.919   8.894
66979SOL    HW2 2777   0.053   6.938   8.752
66980SOL     OW 2778   5.747  11.005   3.005
66980SOL    HW1 2779   5.827  10.989   2.954
66980SOL    HW2 2780   5.776  11.004   3.096
66981SOL     OW 2781   4.749  10.026   0.520
66981SOL    HW1 2782   4.657  10.025   0.496
66981SOL    HW2 2783   4.757  10.099   0.582
66982SOL     OW 2784   3.954   4.817   3.919
66982SOL    HW1 2785   3.923   4.821   4.010
66982SOL    HW2 2786   3.888   4.764   3.874
66983SOL     OW 2787   9.190  12.000   1.283
66983SOL    HW1 2788   9.100  11.995   1.316
66983SOL    HW2 2789   9.221  11.909   1.283
66984SOL     OW 2790  13.544   2.816   2.256
66984SOL    HW1 2791  13.482   2.824   2.329
66984SOL    HW2 2792  13.625   2.855   2.288
66985SOL     OW 2793  12.199   8.988   3.547
66985SOL    HW1 2794  12.127   8.968   3.607
66985SOL    HW2 2795  12.257   9.046   3.597
66986SOL     OW 2796   4.976  12.951  13.139
66986SOL    HW1 2797   4.952  13.034  13.098
66986SOL    HW2 2798   4.902  12.929  13.194
66987SOL     OW 2799   2.857   9.194   3.596
66987SOL    HW1 2800   2.877   9.143   3.674
66987SOL    HW2 2801   2.893   9.281   3.614
66988SOL     OW 2802  12.516   4.364   5.383
66988SOL    HW1 2803  12.575   4.322   5.445
66988SOL    HW2 2804  12.532   4.458   5.393
66989SOL     OW 2805   2.457   0.219  10.372
66989SOL    HW1 2806   2.447   0.221  10.467
66989SOL    HW2 2807   2.428   0.131  10.346
66990SOL     OW 2808   5.754  13.742   9.520
66990SOL    HW1 2809   5.693  13.724   9.449
66990SOL    HW2 2810   5.757  13.838   9.526
66991SOL     OW 2811   5.458   4.987  11.850
66991SOL    HW1 2812   5.507   5.065  11.878
66991SOL    HW2 2813   5.462   4.989  11.755
66992SOL     OW 2814  13.074   7.930   5.955
66992SOL    HW1 2815  13.039   7.859   5.902
66992SOL    HW2 2816  13.056   7.903   6.046
66993SOL     OW 2817   1.853   4.791  11.426
66993SOL    HW1 2818   1.850   4.845  11.504
66993SOL    HW2 2819   1.814   4.845  11.357
66994SOL     OW 2820   5.620   1.590   0.936
66994SOL    HW1 2821   5.621   1.638   1.019
66994SOL    HW2 2822   5.589   1.503   0.959
66995SOL     OW 2823   5.300   5.453  10.911
66995SOL    HW1 2824   5.287   5.532  10.858
66995SOL    HW2 2825   5.229   5.394  10.885
66996SOL     OW 2826  11.774   6.159   2.311
66996SOL    HW1 2827  11.741   6.249   2.310
66996SOL    HW2 2828  11.835   6.154   2.238
66997SOL     OW 2829  11.672   7.644   5.980
66997SOL    HW1 2830  11.696   7.642   5.888
66997SOL    HW2 2831  11.743   7.691   6.023
66998SOL     OW 2832   5.119  10.543   4.722
66998SOL    HW1 2833   5.064  10.534   4.799
66998SOL    HW2 2834   5.208  10.538   4.755
66999SOL     OW 2835  14.495   3.711   9.737
66999SOL    HW1 2836  14.536   3.797   9.731
66999SOL    HW2 2837  14.567   3.649   9.731
67000SOL     OW 2838  13.219  11.244   8.283
67000SOL    HW1 2839  13.134  11.201   8.276
67000SOL    HW2 2840  13.252  11.249   8.193
67001SOL     OW 2841  10.920   4.285   0.203
67001SOL    HW1 2842  10.836   4.328   0.218
67001SOL    HW2 2843  10.911   4.246   0.116
67002SOL     OW 2844   5.681   5.860   7.976
67002SOL    HW1 2845   5.711   5.779   8.018
67002SOL    HW2 2846   5.588   5.865   7.999
67003SOL     OW 2847   9.357  14.664   0.743
67003SOL    HW1 2848   9.339  14.754   0.716
67003SOL    HW2 2849   9.354  14.666   0.838
67004SOL     OW 2850   5.773   2.718   7.588
67004SOL    HW1 2851   5.742   2.636   7.625
67004SOL    HW2 2852   5.869   2.711   7.590
67005SOL     OW 2853  11.467   5.947   0.259
67005SOL    HW1 2854  11.424   6.020   0.302
67005SOL    HW2 2855  11.484   5.979   0.170
67006SOL     OW 2856   2.043  11.351   3.994
67006SOL    HW1 2857   2.072  11.305   4.073
67006SOL    HW2 2858   2.063  11.291   3.923
67007SOL     OW 2859  12.557   3.355   6.428
67007SOL    HW1 2860  12.541   3.406   6.508
67007SOL    HW2 2861  12.631   3.398   6.386
67008SOL     OW 2862   4.550   1.726   9.170
67008SOL    HW1 2863   4.547   1.771   9.255
67008SOL    HW2 2864   4.521   1.791   9.107
67009SOL     OW 2865   9.857   3.157  14.140
67009SOL    HW1 2866   9.818   3.223  14.197
67009SOL    HW2 2867   9.783   3.113  14.099
67010SOL     OW 2868   5.177  14.104   5.027
67010SOL    HW1 2869   5.130  14.185   5.007
67010SOL    HW2 2870   5.213  14.076   4.943
67011SOL     OW 2871   9.218   5.911   0.855
67011SOL    HW1 2872   9.164   5.848   0.807
67011SOL    HW2 2873   9.308   5.883   0.837
67012SOL     OW 2874   7.264  13.835   8.053
67012SOL    HW1 2875   7.220  13.765   8.004
67012SOL    HW2 2876   7.249  13.812   8.145
67013SOL     OW 2877  13.800   7.576   2.403
67013SOL    HW1 2878  13.791   7.496   2.454
67013SOL    HW2 2879  13.893   7.599   2.411
67014SOL     OW 2880   9.087  12.020  11.989
67014SOL    HW1 2881   9.121  11.983  12.070
67014SOL    HW2 2882   9.090  11.947  11.927
67015SOL     OW 2883   9.167   6.995  13.779
67015SOL    HW1 2884   9.106   6.929  13.746
67015SOL    HW2 2885   9.188   7.049  13.702
67016SOL     OW 2886   2.181  12.498   0.580
67016SOL    HW1 2887   2.159  12.479   0.671
67016SOL    HW2 2888   2.273  12.473   0.573
67017SOL     OW 2889  12.838  12.234   7.354
67017SOL    HW1 2890  12.928  12.241   7.323
67017SOL    HW2 2891  12.785  12.243   7.275
67018SOL     OW 2892   5.313   7.667   7.643
67018SOL    HW1 2893   5.227   7.634   7.667
67018SOL    HW2 2894   5.351   7.697   7.725
67019SOL     OW 2895   0.742   7.944   5.740
67019SOL    HW1 2896   0.743   7.850   5.756
67019SOL    HW2 2897   0.689   7.955   5.661
67020SOL     OW 2898   3.234  11.364  11.740
67020SOL    HW1 2899   3.141  11.382  11.732
67020SOL    HW2 2900   3.266  11.430  11.802
67021SOL     OW 2901  12.290   7.273   0.543
67021SOL    HW1 2902  12.228   7.339   0.574
67021SOL    HW2 2903  12.254   7.243   0.460
67022SOL     OW 2904  14.699   1.679  14.049
67022SOL    HW1 2905  14.670   1.693  13.959
67022SOL    HW2 2906  14.789   1.648  14.040
67023SOL     OW 2907   2.328   9.498   5.353
67023SOL    HW1 2908   2.257   9.562   5.341
67023SOL    HW2 2909   2.369   9.523   5.436
67024SOL     OW 2910  10.299   5.504   3.695
67024SOL    HW1 2911  10.326   5.494   3.604
67024SOL    HW2 2912  10.253   5.423   3.716
67025SOL     OW 2913  10.008   9.845  13.851
67025SOL    HW1 2914   9.983   9.877  13.764
67025SOL    HW2 2915  10.016   9.923  13.904
67026SOL     OW 2916   3.903   7.587  12.272
67026SOL    HW1 2917   3.965   7.514  12.272
67026SOL    HW2 2918   3.930   7.643  12.200
67027SOL     OW 2919   6.672   4.055  14.479
67027SOL    HW1 2920   6.675   3.972  14.525
67027SOL    HW2 2921   6.753   4.100  14.503
67028SOL     OW 2922   9.447  11.458  12.835
67028SOL    HW1 2923   9.468  11.504  12.754
67028SOL    HW2 2924   9.443  11.365  12.810
67029SOL     OW 2925   7.253   8.810   7.469
67029SOL    HW1 2926   7.298   8.883   7.512
67029SOL    HW2 2927   7.231   8.751   7.541
67030SOL     OW 2928  14.699   5.996  12.347
67030SOL    HW1 2929  14.755   6.064  12.311
67030SOL    HW2 2930  14.757   5.921  12.358
67031SOL     OW 2931   6.251   7.299   8.872
67031SOL    HW1 2932   6.226   7.271   8.784
67031SOL    HW2 2933   6.284   7.220   8.915
67032SOL     OW 2934  12.953   2.944   7.896
67032SOL    HW1 2935  13.008   2.919   7.822
67032SOL    HW2 2936  12.958   3.040   7.898
67033SOL     OW 2937   3.334   9.853   7.764
67033SOL    HW1 2938   3.284   9.869   7.844
67033SOL    HW2 2939   3.268   9.838   7.696
67034SOL     OW 2940  13.006  10.453   5.107
67034SOL    HW1 2941  13.078  10.473   5.047
67034SOL    HW2 2942  13.050  10.418   5.185
67035SOL     OW 2943   1.888  13.796   8.630
67035SOL    HW1 2944   1.964  13.854   8.621
67035SOL    HW2 2945   1.918  13.711   8.597
67036SOL     OW 2946   1.966   3.973  10.631
67036SOL    HW1 2947   1.883   4.019  10.634
67036SOL    HW2 2948   2.009   3.996  10.714
67037SOL     OW 2949  13.868   8.140  10.525
67037SOL    HW1 2950  13.822   8.223  10.517
67037SOL    HW2 2951  13.940   8.159  10.586
67038SOL     OW 2952   9.487   4.102   7.101
67038SOL    HW1 2953   9.475   4.163   7.028
67038SOL    HW2 2954   9.451   4.148   7.177
67039SOL     OW 2955   7.865   3.368   5.304
67039SOL    HW1 2956   7.898   3.293   5.254
67039SOL    HW2 2957   7.780   3.339   5.337
67040SOL     OW 2958   1.546   0.639  11.994
67040SOL    HW1 2959   1.469   0.667  11.945
67040SOL    HW2 2960   1.529   0.548  12.018
67041SOL     OW 2961   1.201  11.487   0.309
67041SOL    HW1 2962   1.129  11.470   0.249
67041SOL    HW2 2963   1.194  11.579   0.331
67042SOL     OW 2964   6.568  12.038  14.046
67042SOL    HW1 2965   6.585  12.130  14.029
67042SOL    HW2 2966   6.478  12.024  14.017
67043SOL     OW 2967   7.021   4.587  13.465
67043SOL    HW1 2968   7.020   4.531  13.543
67043SOL    HW2 2969   6.947   4.646  13.478
67044SOL     OW 2970  11.212  10.864   9.722
67044SOL    HW1 2971  11.121  10.883   9.701
67044SOL    HW2 2972  11.214  10.770   9.739
67045SOL     OW 2973  11.284   5.451   2.329
67045SOL    HW1 2974  11.338   5.524   2.300
67045SOL    HW2 2975  11.224   5.435   2.256
67046SOL     OW 2976   4.990   8.130   5.558
67046SOL    HW1 2977   5.067   8.138   5.502
67046SOL    HW2 2978   5.000   8.200   5.623
67047SOL     OW 2979   5.749   6.533   1.223
67047SOL    HW1 2980   5.661   6.517   1.256
67047SOL    HW2 2981   5.743   6.618   1.179
67048SOL     OW 2982   6.248  10.832   6.111
67048SOL    HW1 2983   6.168  10.778   6.116
67048SOL    HW2 2984   6.316  10.777   6.150
67049SOL     OW 2985   7.881   7.763   1.227
67049SOL    HW1 2986   7.951   7.778   1.291
67049SOL    HW2 2987   7.923   7.717   1.155
67050SOL     OW 2988  12.230   9.144   8.299
67050SOL    HW1 2989  12.170   9.100   8.361
67050SOL    HW2 2990  12.314   9.102   8.314
67051SOL     OW 2991  14.200   3.661   8.641
67051SOL    HW1 2992  14.116   3.641   8.683
67051SOL    HW2 2993  14.176   3.716   8.566
67052SOL     OW 2994   4.586  13.763   0.155
67052SOL    HW1 2995   4.665  13.716   0.126
67052SOL    HW2 2996   4.513  13.712   0.119
67053SOL     OW 2997  13.902   1.472   8.800
67053SOL    HW1 2998  13.950   1.455   8.719
67053SOL    HW2 2999  13.819   1.510   8.771
67054SOL     OW 3000  14.272   3.004   7.128
67054SOL    HW1 3001  14.192   3.054   7.146
67054SOL    HW2 3002  14.336   3.038   7.189
67055SOL     OW 3003   6.788  11.098  12.683
67055SOL    HW1 3004   6.700  11.136  12.687
67055SOL    HW2 3005   6.803  11.082  12.590
67056SOL     OW 3006   3.872   3.545   7.276
67056SOL    HW1 3007   3.957   3.587   7.289
67056SOL    HW2 3008   3.818   3.612   7.234
67057SOL     OW 3009   7.542   6.087   2.329
67057SOL    HW1 3010   7.497   6.145   2.390
67057SOL    HW2 3011   7.615   6.052   2.378
67058SOL     OW 3012   8.043   9.306   1.057
67058SOL    HW1 3013   8.041   9.363   1.133
67058SOL    HW2 3014   8.115   9.246   1.073
67059SOL     OW 3015   0.407  10.710   1.500
67059SOL    HW1 3016   0.417  10.723   1.594
67059SOL    HW2 3017   0.432  10.619   1.486
67060SOL     OW 3018   7.193   6.639   6.787
67060SOL    HW1 3019   7.222   6.688   6.710
67060SOL    HW2 3020   7.223   6.550   6.772
67061SOL     OW 3021  11.317  12.402   0.189
67061SOL    HW1 3022  11.394  12.459   0.190
67061SOL    HW2 3023  11.243  12.461   0.202
67062SOL     OW 3024   5.275  12.512  11.836
67062SOL    HW1 3025   5.286  12.478  11.925
67062SOL    HW2 3026   5.267  12.434  11.782
67063SOL     OW 3027   1.541   9.430   8.322
67063SOL    HW1 3028   1.573   9.515   8.352
67063SOL    HW2 3029   1.615   9.391   8.276
67064SOL     OW 3030   5.760  13.002   9.730
67064SOL    HW1 3031   5.745  12.975   9.821
67064SOL    HW2 3032   5.755  12.921   9.680
67065SOL     OW 3033   1.572   9.137  10.372
67065SOL    HW1 3034   1.499   9.088  10.335
67065SOL    HW2 3035   1.639   9.071  10.390
67066SOL     OW 3036   7.078   0.477   6.437
67066SOL    HW1 3037   7.049   0.394   6.400
67066SOL    HW2 3038   6.997   0.523   6.461
67067SOL     OW 3039   0.392   0.824  10.613
67067SOL    HW1 3040   0.362   0.915  10.605
67067SOL    HW2 3041   0.476   0.831  10.659
67068SOL     OW 3042   5.353  14.459   7.929
67068SOL    HW1 3043   5.392  14.514   7.997
67068SOL    HW2 3044   5.276  14.420   7.970
67069SOL     OW 3045   2.191  11.602   2.232
67069SOL    HW1 3046   2.261  11.549   2.268
67069SOL    HW2 3047   2.217  11.692   2.251
67070SOL     OW 3048  10.904   2.712   4.486
67070SOL    HW1 3049  10.878   2.664   4.565
67070SOL    HW2 3050  10.948   2.646   4.432
67071SOL     OW 3051   0.915   0.932   4.765
67071SOL    HW1 3052   0.826   0.941   4.731
67071SOL    HW2 3053   0.925   0.839   4.782
67072SOL     OW 3054   8.836  13.743   1.329
67072SOL    HW1 3055   8.910  13.766   1.385
67072SOL    HW2 3056   8.826  13.818   1.271
67073SOL     OW 3057   5.753  10.704  10.838
67073SOL    HW1 3058   5.667  10.719  10.877
67073SOL    HW2 3059   5.815  10.716  10.910
67074SOL     OW 3060   0.071  10.029   2.252
67074SOL    HW1 3061   0.142  10.089   2.231
67074SOL    HW2 3062   0.052  10.046   2.344
67075SOL     OW 3063  10.093   4.011  10.880
67075SOL    HW1 3064  10.064   4.056  10.801
67075SOL    HW2 3065  10.073   4.071  10.951
67076SOL     OW 3066   6.840  14.833   2.598
67076SOL    HW1 3067   6.885  14.827   2.513
67076SOL    HW2 3068   6.831   0.045   2.614
67077SOL     OW 3069   0.526   1.137   0.670
67077SOL    HW1 3070   0.479   1.131   0.753
67077SOL    HW2 3071   0.485   1.070   0.614
67078SOL     OW 3072   0.622  11.429   5.618
67078SOL    HW1 3073   0.550  11.386   5.664
67078SOL    HW2 3074   0.595  11.429   5.526
67079SOL     OW 3075  14.863   4.821   8.857
67079SOL    HW1 3076   0.057   4.811   8.800
67079SOL    HW2 3077   0.013   4.874   8.930
67080SOL     OW 3078   8.155  12.790   7.250
67080SOL    HW1 3079   8.232  12.766   7.198
67080SOL    HW2 3080   8.084  12.737   7.214
67081SOL     OW 3081  13.407  11.791   8.445
67081SOL    HW1 3082  13.431  11.785   8.352
67081SOL    HW2 3083  13.446  11.713   8.484
67082SOL     OW 3084   5.899   1.370   6.789
67082SOL    HW1 3085   5.878   1.462   6.801
67082SOL    HW2 3086   5.990   1.370   6.759
67083SOL     OW 3087   1.880  11.744  10.086
67083SOL    HW1 3088   1.802  11.761  10.033
67083SOL    HW2 3089   1.945  11.805  10.052
67084SOL     OW 3090   5.831  14.111   0.918
67084SOL    HW1 3091   5.841  14.048   0.989
67084SOL    HW2 3092   5.780  14.182   0.955
67085SOL     OW 3093  14.458  13.674  11.718
67085SOL    HW1 3094  14.454  13.692  11.624
67085SOL    HW2 3095  14.413  13.590  11.728
67086SOL     OW 3096  12.564  12.844   1.879
67086SOL    HW1 3097  12.644  12.897   1.883
67086SOL    HW2 3098  12.556  12.819   1.787
67087SOL     OW 3099   3.114   8.269   7.089
67087SOL    HW1 3100   3.036   8.216   7.105
67087SOL    HW2 3101   3.186   8.217   7.123
67088SOL     OW 3102   4.578   2.349   6.898
67088SOL    HW1 3103   4.494   2.305   6.885
67088SOL    HW2 3104   4.570   2.432   6.852
67089SOL     OW 3105   3.916   1.757   8.487
67089SOL    HW1 3106   3.854   1.819   8.525
67089SOL    HW2 3107   3.944   1.703   8.561
67090SOL     OW 3108  11.267  14.848   7.355
67090SOL    HW1 3109  11.275   0.002   7.443
67090SOL    HW2 3110  11.317  14.766   7.358
67091SOL     OW 3111   7.302  14.735   6.141
67091SOL    HW1 3112   7.378  14.689   6.175
67091SOL    HW2 3113   7.232  14.718   6.204
67092SOL     OW 3114  10.107  11.420   4.028
67092SOL    HW1 3115  10.081  11.511   4.014
67092SOL    HW2 3116  10.196  11.426   4.064
67093SOL     OW 3117   8.509   0.628  10.550
67093SOL    HW1 3118   8.433   0.602  10.602
67093SOL    HW2 3119   8.484   0.712  10.511
67094SOL     OW 3120  11.626   1.297  12.204
67094SOL    HW1 3121  11.601   1.298  12.112
67094SOL    HW2 3122  11.646   1.389  12.224
67095SOL     OW 3123   4.501   4.099   8.632
67095SOL    HW1 3124   4.573   4.044   8.603
67095SOL    HW2 3125   4.510   4.105   8.727
67096SOL     OW 3126  14.794   6.895   3.827
67096SOL    HW1 3127  14.758   6.950   3.897
67096SOL    HW2 3128  14.765   6.937   3.746
67097SOL     OW 3129   6.714   5.009   6.998
67097SOL    HW1 3130   6.777   5.054   6.941
67097SOL    HW2 3131   6.766   4.982   7.074
67098SOL     OW 3132   0.968   9.158   5.842
67098SOL    HW1 3133   0.957   9.160   5.747
67098SOL    HW2 3134   0.954   9.248   5.870
67099SOL     OW 3135   3.524   3.441   3.322
67099SOL    HW1 3136   3.438   3.476   3.346
67099SOL    HW2 3137   3.553   3.498   3.250
67100SOL     OW 3138   0.261   4.752  12.449
67100SOL    HW1 3139   0.224   4.701  12.521
67100SOL    HW2 3140   0.240   4.702  12.371
67101SOL     OW 3141   5.616   3.021  10.435
67101SOL    HW1 3142   5.632   3.083  10.506
67101SOL    HW2 3143   5.665   2.943  10.459
67102SOL     OW 3144   9.955   0.601   9.698
67102SOL    HW1 3145   9.953   0.627   9.606
67102SOL    HW2 3146   9.873   0.554   9.711
67103SOL     OW 3147   9.776   0.866   3.771
67103SOL    HW1 3148   9.854   0.817   3.744
67103SOL    HW2 3149   9.756   0.922   3.696
67104SOL     OW 3150  14.824   1.644   1.289
67104SOL    HW1 3151  14.800   1.585   1.360
67104SOL    HW2 3152  14.768   1.720   1.300
67105SOL     OW 3153  13.146  10.972   8.520
67105SOL    HW1 3154  13.108  11.039   8.577
67105SOL    HW2 3155  13.093  10.894   8.536
67106SOL     OW 3156   9.827   7.603   5.790
67106SOL    HW1 3157   9.811   7.671   5.724
67106SOL    HW2 3158   9.923   7.601   5.800
67107SOL     OW 3159   9.076   4.694  14.008
67107SOL    HW1 3160   9.050   4.690  14.100
67107SOL    HW2 3161   9.159   4.646  14.004
67108SOL     OW 3162   8.572   3.783  14.477
67108SOL    HW1 3163   8.484   3.746  14.463
67108SOL    HW2 3164   8.613   3.722  14.539
67109SOL     OW 3165   7.232   6.722  10.807
67109SOL    HW1 3166   7.260   6.802  10.763
67109SOL    HW2 3167   7.312   6.670  10.814
67110SOL     OW 3168  14.649  10.367   4.464
67110SOL    HW1 3169  14.563  10.407   4.474
67110SOL    HW2 3170  14.710  10.441   4.459
67111SOL     OW 3171  10.436   1.502   2.038
67111SOL    HW1 3172  10.345   1.504   2.065
67111SOL    HW2 3173  10.457   1.409   2.027
67112SOL     OW 3174   6.394   5.155   6.031
67112SOL    HW1 3175   6.423   5.192   6.114
67112SOL    HW2 3176   6.381   5.230   5.973
67113SOL     OW 3177   7.025  10.434  10.619
67113SOL    HW1 3178   7.053  10.515  10.577
67113SOL    HW2 3179   6.938  10.417  10.584
67114SOL     OW 3180  14.199   2.812  13.822
67114SOL    HW1 3181  14.182   2.804  13.916
67114SOL    HW2 3182  14.124   2.862  13.788
67115SOL     OW 3183   5.189  13.872   3.207
67115SOL    HW1 3184   5.227  13.941   3.152
67115SOL    HW2 3185   5.170  13.801   3.146
67116SOL     OW 3186   4.892  14.781   1.442
67116SOL    HW1 3187   4.848  14.808   1.523
67116SOL    HW2 3188   4.966  14.840   1.434
67117SOL     OW 3189   2.263  12.637   3.178
67117SOL    HW1 3190   2.346  12.675   3.148
67117SOL    HW2 3191   2.226  12.597   3.099
67118SOL     OW 3192   0.572  10.682   6.127
67118SOL    HW1 3193   0.549  10.755   6.070
67118SOL    HW2 3194   0.613  10.618   6.070
67119SOL     OW 3195  14.294   1.615   9.844
67119SOL    HW1 3196  14.344   1.562   9.781
67119SOL    HW2 3197  14.214   1.565   9.859
67120SOL     OW 3198   5.955   7.948  13.352
67120SOL    HW1 3199   5.975   8.012  13.420
67120SOL    HW2 3200   5.897   7.885  13.395
67121SOL     OW 3201   1.463   4.809   3.381
67121SOL    HW1 3202   1.507   4.756   3.447
67121SOL    HW2 3203   1.466   4.898   3.415
67122SOL     OW 3204   8.647   0.131   8.103
67122SOL    HW1 3205   8.700   0.168   8.173
67122SOL    HW2 3206   8.707   0.120   8.029
67123SOL     OW 3207   5.028  11.887   7.515
67123SOL    HW1 3208   5.091  11.828   7.557
67123SOL    HW2 3209   5.077  11.929   7.445
67124SOL     OW 3210   1.428  14.466   4.779
67124SOL    HW1 3211   1.434  14.561   4.783
67124SOL    HW2 3212   1.502  14.439   4.724
67125SOL     OW 3213  13.777  10.778   4.050
67125SOL    HW1 3214  13.745  10.696   4.011
67125SOL    HW2 3215  13.719  10.845   4.016
67126SOL     OW 3216   8.448   3.347   3.996
67126SOL    HW1 3217   8.424   3.257   3.974
67126SOL    HW2 3218   8.501   3.377   3.922
67127SOL     OW 3219   3.024   8.899  13.162
67127SOL    HW1 3220   2.946   8.845  13.182
67127SOL    HW2 3221   2.989   8.973  13.112
67128SOL     OW 3222  14.856   4.306   9.329
67128SOL    HW1 3223   0.052   4.353   9.300
67128SOL    HW2 3224  14.791   4.375   9.343
67129SOL     OW 3225  10.556   2.606   0.934
67129SOL    HW1 3226  10.489   2.653   0.883
67129SOL    HW2 3227  10.639   2.636   0.897
67130SOL     OW 3228   3.030   0.292   1.806
67130SOL    HW1 3229   3.028   0.209   1.759
67130SOL    HW2 3230   3.122   0.319   1.805
67131SOL     OW 3231   8.249   1.028  12.417
67131SOL    HW1 3232   8.319   0.963  12.414
67131SOL    HW2 3233   8.196   1.003  12.493
67132SOL     OW 3234   3.909   8.383  13.380
67132SOL    HW1 3235   3.922   8.417  13.292
67132SOL    HW2 3236   3.991   8.340  13.402
67133SOL     OW 3237   9.679  12.351   7.350
67133SOL    HW1 3238   9.732  12.347   7.271
67133SOL    HW2 3239   9.695  12.439   7.386
67134SOL     OW 3240  10.147   8.476   8.010
67134SOL    HW1 3241  10.220   8.419   8.032
67134SOL    HW2 3242  10.187   8.554   7.971
67135SOL     OW 3243  12.333  13.806   3.651
67135SOL    HW1 3244  12.373  13.732   3.606
67135SOL    HW2 3245  12.245  13.775   3.674
67136SOL     OW 3246  14.856   9.538  10.797
67136SOL    HW1 3247   0.062   9.567  10.819
67136SOL    HW2 3248  14.859   9.519  10.703
67137SOL     OW 3249   9.573   9.338   6.082
67137SOL    HW1 3250   9.547   9.291   6.162
67137SOL    HW2 3251   9.534   9.287   6.011
67138SOL     OW 3252  11.120   9.415  13.617
67138SOL    HW1 3253  11.148   9.417  13.526
67138SOL    HW2 3254  11.038   9.366  13.617
67139SOL     OW 3255   1.850   5.009   5.483
67139SOL    HW1 3256   1.944   5.026   5.496
67139SOL    HW2 3257   1.837   4.921   5.518
67140SOL     OW 3258   8.069   7.148   5.236
67140SOL    HW1 3259   8.152   7.178   5.273
67140SOL    HW2 3260   8.018   7.228   5.223
67141SOL     OW 3261  11.019  12.312   9.058
67141SOL    HW1 3262  10.969  12.387   9.089
67141SOL    HW2 3263  11.087  12.299   9.125
67142SOL     OW 3264   1.054   1.863   2.674
67142SOL    HW1 3265   1.083   1.855   2.765
67142SOL    HW2 3266   1.104   1.795   2.627
67143SOL     OW 3267   8.512   2.876  11.958
67143SOL    HW1 3268   8.549   2.880  11.870
67143SOL    HW2 3269   8.427   2.921  11.951
67144SOL     OW 3270   3.918   6.233   1.845
67144SOL    HW1 3271   3.842   6.280   1.812
67144SOL    HW2 3272   3.886   6.187   1.923
67145SOL     OW 3273  11.848   2.815   9.986
67145SOL    HW1 3274  11.822   2.782  10.072
67145SOL    HW2 3275  11.811   2.903   9.981
67146SOL     OW 3276   7.143   9.270  14.566
67146SOL    HW1 3277   7.093   9.333  14.618
67146SOL    HW2 3278   7.234   9.296  14.577
67147SOL     OW 3279  14.190  10.304  11.024
67147SOL    HW1 3280  14.194  10.265  11.112
67147SOL    HW2 3281  14.277  10.343  11.011
67148SOL     OW 3282   0.628  12.494   9.782
67148SOL    HW1 3283   0.627  12.437   9.706
67148SOL    HW2 3284   0.667  12.442   9.852
67149SOL     OW 3285   6.156  14.870  14.193
67149SOL    HW1 3286   6.249  14.866  14.216
67149SOL    HW2 3287   6.111  14.844  14.274
67150SOL     OW 3288  11.154   8.305   0.730
67150SOL    HW1 3289  11.063   8.294   0.759
67150SOL    HW2 3290  11.147   8.344   0.643
67151SOL     OW 3291   9.662  10.716   5.028
67151SOL    HW1 3292   9.671  10.623   5.051
67151SOL    HW2 3293   9.732  10.759   5.076
67152SOL     OW 3294   5.056  10.448   3.347
67152SOL    HW1 3295   5.100  10.435   3.263
67152SOL    HW2 3296   5.123  10.430   3.413
67153SOL     OW 3297  12.402   7.162   1.052
67153SOL    HW1 3298  12.447   7.109   1.118
67153SOL    HW2 3299  12.390   7.247   1.093
67154SOL     OW 3300   0.380  11.978   9.806
67154SOL    HW1 3301   0.296  11.987   9.762
67154SOL    HW2 3302   0.360  11.935   9.889
67155SOL     OW 3303   9.017  10.732   6.463
67155SOL    HW1 3304   9.019  10.826   6.483
67155SOL    HW2 3305   8.929  10.704   6.487
67156SOL     OW 3306   9.975   3.951   8.266
67156SOL    HW1 3307   9.891   3.911   8.244
67156SOL    HW2 3308  10.032   3.930   8.192
67157SOL     OW 3309   7.755   8.446   8.799
67157SOL    HW1 3310   7.709   8.525   8.769
67157SOL    HW2 3311   7.719   8.429   8.886
67158SOL     OW 3312  11.297   5.905   7.286
67158SOL    HW1 3313  11.281   5.948   7.370
67158SOL    HW2 3314  11.297   5.812   7.307
67159SOL     OW 3315   0.005  10.355   5.091
67159SOL    HW1 3316  14.829  10.279   5.094
67159SOL    HW2 3317  14.848  10.412   5.024
67160SOL     OW 3318   0.799   1.929  10.157
67160SOL    HW1 3319   0.723   1.892  10.201
67160SOL    HW2 3320   0.791   2.024  10.171
67161SOL     OW 3321  10.313   2.913  11.165
67161SOL    HW1 3322  10.271   2.914  11.251
67161SOL    HW2 3323  10.406   2.907  11.184
67162SOL     OW 3324   3.290   7.884  13.561
67162SOL    HW1 3325   3.226   7.824  13.600
67162SOL    HW2 3326   3.311   7.944  13.633
67163SOL     OW 3327   8.696  12.177   1.740
67163SOL    HW1 3328   8.663  12.105   1.688
67163SOL    HW2 3329   8.662  12.160   1.828
67164SOL     OW 3330  12.793   2.226   6.202
67164SOL    HW1 3331  12.761   2.136   6.213
67164SOL    HW2 3332  12.853   2.239   6.276
67165SOL     OW 3333  12.374   9.287  14.031
67165SOL    HW1 3334  12.467   9.306  14.028
67165SOL    HW2 3335  12.367   9.209  14.087
67166SOL     OW 3336   0.117   0.369  10.722
67166SOL    HW1 3337   0.143   0.424  10.796
67166SOL    HW2 3338   0.104   0.431  10.650
67167SOL     OW 3339   2.712  12.944   0.921
67167SOL    HW1 3340   2.642  12.896   0.878
67167SOL    HW2 3341   2.668  13.015   0.968
67168SOL     OW 3342   9.079   5.412   5.214
67168SOL    HW1 3343   9.087   5.331   5.163
67168SOL    HW2 3344   8.984   5.424   5.224
67169SOL     OW 3345  10.311   2.997   6.796
67169SOL    HW1 3346  10.247   2.934   6.830
67169SOL    HW2 3347  10.262   3.080   6.792
67170SOL     OW 3348   7.062   0.707   5.051
67170SOL    HW1 3349   7.146   0.689   5.009
67170SOL    HW2 3350   7.036   0.793   5.018
67171SOL     OW 3351  13.750  10.907  13.276
67171SOL    HW1 3352  13.655  10.905  13.292
67171SOL    HW2 3353  13.758  10.928  13.183
67172SOL     OW 3354  10.142   1.095  10.709
67172SOL    HW1 3355  10.062   1.124  10.754
67172SOL    HW2 3356  10.138   0.999  10.713
67173SOL     OW 3357   2.238   1.292  12.929
67173SOL    HW1 3358   2.189   1.372  12.945
67173SOL    HW2 3359   2.303   1.288  13.000
67174SOL     OW 3360  12.250  12.223   6.934
67174SOL    HW1 3361  12.324  12.169   6.908
67174SOL    HW2 3362  12.289  12.309   6.953
67175SOL     OW 3363   7.849   7.976   9.362
67175SOL    HW1 3364   7.925   7.943   9.314
67175SOL    HW2 3365   7.886   8.029   9.432
67176SOL     OW 3366  14.770   1.150   1.170
67176SOL    HW1 3367  14.832   1.114   1.235
67176SOL    HW2 3368  14.805   1.236   1.149
67177SOL     OW 3369   5.434   6.567   1.194
67177SOL    HW1 3370   5.471   6.639   1.144
67177SOL    HW2 3371   5.462   6.583   1.285
67178SOL     OW 3372   0.551   9.524   3.656
67178SOL    HW1 3373   0.558   9.553   3.748
67178SOL    HW2 3374   0.488   9.453   3.658
67179SOL     OW 3375   1.552  10.346  12.763
67179SOL    HW1 3376   1.595  10.421  12.805
67179SOL    HW2 3377   1.509  10.384  12.686
67180SOL     OW 3378   2.001  14.783   6.776
67180SOL    HW1 3379   2.067  14.838   6.734
67180SOL    HW2 3380   1.983  14.715   6.711
67181SOL     OW 3381   7.916  11.439  12.178
67181SOL    HW1 3382   7.974  11.394  12.116
67181SOL    HW2 3383   7.850  11.373  12.200
67182SOL     OW 3384   6.186   4.422   8.785
67182SOL    HW1 3385   6.228   4.480   8.849
67182SOL    HW2 3386   6.170   4.342   8.834
67183SOL     OW 3387   9.909   0.719   2.963
67183SOL    HW1 3388   9.923   0.812   2.947
67183SOL    HW2 3389   9.824   0.715   3.007
67184SOL     OW 3390  14.630  11.404  11.039
67184SOL    HW1 3391  14.724  11.388  11.053
67184SOL    HW2 3392  14.626  11.493  11.003
67185SOL     OW 3393   4.679   0.825   4.828
67185SOL    HW1 3394   4.767   0.861   4.833
67185SOL    HW2 3395   4.692   0.737   4.791
67186SOL     OW 3396  13.396   2.777  13.741
67186SOL    HW1 3397  13.380   2.730  13.659
67186SOL    HW2 3398  13.312   2.774  13.787
67187SOL     OW 3399   4.839   4.581   1.759
67187SOL    HW1 3400   4.829   4.631   1.840
67187SOL    HW2 3401   4.805   4.494   1.780
67188SOL     OW 3402   5.558   7.912   7.550
67188SOL    HW1 3403   5.542   7.914   7.456
67188SOL    HW2 3404   5.516   7.991   7.583
67189SOL     OW 3405   7.996  13.483  11.360
67189SOL    HW1 3406   7.983  13.397  11.322
67189SOL    HW2 3407   8.089  13.502  11.347
67190SOL     OW 3408   0.745   8.306   2.346
67190SOL    HW1 3409   0.781   8.242   2.407
67190SOL    HW2 3410   0.678   8.257   2.298
67191SOL     OW 3411   2.205  10.369  13.374
67191SOL    HW1 3412   2.148  10.426  13.424
67191SOL    HW2 3413   2.257  10.323  13.440
67192SOL     OW 3414   4.615   4.138   7.743
67192SOL    HW1 3415   4.569   4.216   7.711
67192SOL    HW2 3416   4.706   4.152   7.717
67193SOL     OW 3417   2.810   2.229   5.684
67193SOL    HW1 3418   2.881   2.173   5.653
67193SOL    HW2 3419   2.799   2.294   5.616
67194SOL     OW 3420   7.674   9.433   7.452
67194SOL    HW1 3421   7.643   9.387   7.374
67194SOL    HW2 3422   7.645   9.378   7.525
67195SOL     OW 3423  13.544   2.604   7.826
67195SOL    HW1 3424  13.566   2.524   7.778
67195SOL    HW2 3425  13.472   2.579   7.884
67196SOL     OW 3426  11.834  14.265  10.354
67196SOL    HW1 3427  11.754  14.316  10.362
67196SOL    HW2 3428  11.816  14.202  10.284
67197SOL     OW 3429  11.815   2.066   9.151
67197SOL    HW1 3430  11.907   2.040   9.156
67197SOL    HW2 3431  11.816   2.148   9.102
67198SOL     OW 3432  11.990   3.836  12.137
67198SOL    HW1 3433  12.059   3.900  12.121
67198SOL    HW2 3434  11.929   3.880  12.196
67199SOL     OW 3435   1.668   1.698   6.902
67199SOL    HW1 3436   1.717   1.727   6.979
67199SOL    HW2 3437   1.702   1.611   6.883
67200SOL     OW 3438   8.016   2.945   2.795
67200SOL    HW1 3439   8.055   3.015   2.742
67200SOL    HW2 3440   8.006   2.983   2.882
67201SOL     OW 3441   7.600  11.198  11.299
67201SOL    HW1 3442   7.556  11.223  11.381
67201SOL    HW2 3443   7.549  11.241  11.231
67202SOL     OW 3444  14.233   7.646   9.821
67202SOL    HW1 3445  14.301   7.578   9.825
67202SOL    HW2 3446  14.161   7.610   9.872
67203SOL     OW 3447  14.707   8.524  11.592
67203SOL    HW1 3448  14.756   8.453  11.634
67203SOL    HW2 3449  14.770   8.595  11.583
67204SOL     OW 3450   9.024  11.236   1.068
67204SOL    HW1 3451   9.104  11.185   1.059
67204SOL    HW2 3452   9.048  11.325   1.040
67205SOL     OW 3453   0.013   6.402   4.900
67205SOL    HW1 3454   0.005   6.379   4.807
67205SOL    HW2 3455  14.805   6.412   4.930
67206SOL     OW 3456   7.600   7.030  11.398
67206SOL    HW1 3457   7.577   6.949  11.444
67206SOL    HW2 3458   7.516   7.067  11.371
67207SOL     OW 3459   9.393   1.979   8.501
67207SOL    HW1 3460   9.394   2.057   8.446
67207SOL    HW2 3461   9.308   1.980   8.543
67208SOL     OW 3462  12.736   5.111   4.001
67208SOL    HW1 3463  12.783   5.190   4.027
67208SOL    HW2 3464  12.769   5.091   3.914
67209SOL     OW 3465  13.698   6.466  10.764
67209SOL    HW1 3466  13.692   6.371  10.773
67209SOL    HW2 3467  13.792   6.484  10.762
67210SOL     OW 3468   7.937   4.259  13.724
67210SOL    HW1 3469   7.881   4.327  13.761
67210SOL    HW2 3470   7.960   4.203  13.798
67211SOL     OW 3471   1.289  14.309   6.731
67211SOL    HW1 3472   1.266  14.363   6.656
67211SOL    HW2 3473   1.343  14.366   6.786
67212SOL     OW 3474   2.195   4.235   6.870
67212SOL    HW1 3475   2.273   4.231   6.815
67212SOL    HW2 3476   2.146   4.311   6.837
67213SOL     OW 3477   2.876   5.555   3.323
67213SOL    HW1 3478   2.966   5.560   3.291
67213SOL    HW2 3479   2.860   5.641   3.362
67214SOL     OW 3480   8.310  10.732  14.831
67214SOL    HW1 3481   8.342  10.782   0.024
67214SOL    HW2 3482   8.227  10.694  14.861
67215SOL     OW 3483   1.535   8.672   6.129
67215SOL    HW1 3484   1.579   8.623   6.059
67215SOL    HW2 3485   1.598   8.739   6.155
67216SOL     OW 3486  13.539  11.137   1.690
67216SOL    HW1 3487  13.616  11.116   1.743
67216SOL    HW2 3488  13.474  11.071   1.713
67217SOL     OW 3489  11.478   6.055   3.384
67217SOL    HW1 3490  11.405   6.064   3.323
67217SOL    HW2 3491  11.483   6.139   3.429
67218SOL     OW 3492   2.136  13.506   5.122
67218SOL    HW1 3493   2.092  13.569   5.178
67218SOL    HW2 3494   2.139  13.426   5.174
67219SOL     OW 3495   1.060   1.911  13.088
67219SOL    HW1 3496   1.032   1.945  13.003
67219SOL    HW2 3497   1.077   1.818  13.072
67220SOL     OW 3498   3.040   6.520   9.317
67220SOL    HW1 3499   3.050   6.584   9.248
67220SOL    HW2 3500   2.945   6.507   9.324
67221SOL     OW 3501  11.721  11.654  11.196
67221SOL    HW1 3502  11.644  11.701  11.162
67221SOL    HW2 3503  11.720  11.673  11.290
67222SOL     OW 3504   4.698   8.041   0.134
67222SOL    HW1 3505   4.702   8.136   0.133
67222SOL    HW2 3506   4.764   8.014   0.070
67223SOL     OW 3507   2.984  12.982   1.041
67223SOL    HW1 3508   2.891  12.976   1.022
67223SOL    HW2 3509   2.996  13.069   1.078
67224SOL     OW 3510   1.382  12.797   0.643
67224SOL    HW1 3511   1.462  12.777   0.594
67224SOL    HW2 3512   1.311  12.778   0.581
67225SOL     OW 3513   0.163   8.327   4.623
67225SOL    HW1 3514   0.069   8.313   4.639
67225SOL    HW2 3515   0.167   8.355   4.532
67226SOL     OW 3516   0.077  11.753   1.303
67226SOL    HW1 3517   0.021  11.751   1.226
67226SOL    HW2 3518   0.127  11.834   1.294
67227SOL     OW 3519   5.166  14.824   2.081
67227SOL    HW1 3520   5.120  14.786   2.007
67227SOL    HW2 3521   5.206  14.749   2.125
67228SOL     OW 3522   0.857   5.004   5.376
67228SOL    HW1 3523   0.939   5.054   5.382
67228SOL    HW2 3524   0.814   5.040   5.298
67229SOL     OW 3525  10.672   3.012   6.471
67229SOL    HW1 3526  10.580   2.997   6.490
67229SOL    HW2 3527  10.718   2.941   6.515
67230SOL     OW 3528   9.840  10.145   0.662
67230SOL    HW1 3529   9.916  10.192   0.628
67230SOL    HW2 3530   9.870  10.054   0.670
67231SOL     OW 3531   3.402   1.482  11.051
67231SOL    HW1 3532   3.371   1.553  11.108
67231SOL    HW2 3533   3.328   1.422  11.045
67232SOL     OW 3534  11.295   9.899   7.645
67232SOL    HW1 3535  11.309   9.965   7.576
67232SOL    HW2 3536  11.242   9.832   7.604
67233SOL     OW 3537   7.129   9.649   1.363
67233SOL    HW1 3538   7.074   9.669   1.287
67233SOL    HW2 3539   7.123   9.554   1.373
67234SOL     OW 3540  11.827   1.930   4.334
67234SOL    HW1 3541  11.897   1.940   4.398
67234SOL    HW2 3542  11.824   2.015   4.289
67235SOL     OW 3543   9.245   1.895   6.694
67235SOL    HW1 3544   9.325   1.946   6.709
67235SOL    HW2 3545   9.223   1.912   6.602
67236SOL     OW 3546  14.315   2.376   3.993
67236SOL    HW1 3547  14.303   2.406   4.083
67236SOL    HW2 3548  14.330   2.457   3.943
67237SOL     OW 3549  12.719  14.663   0.005
67237SOL    HW1 3550  12.809  14.633   0.021
67237SOL    HW2 3551  12.685  14.684   0.092
67238SOL     OW 3552  11.751   7.363   5.761
67238SOL    HW1 3553  11.731   7.271   5.742
67238SOL    HW2 3554  11.685   7.389   5.825
67239SOL     OW 3555   8.564   5.213  10.203
67239SOL    HW1 3556   8.536   5.173  10.121
67239SOL    HW2 3557   8.495   5.190  10.266
67240SOL     OW 3558   3.428   3.902   8.637
67240SOL    HW1 3559   3.464   3.922   8.550
67240SOL    HW2 3560   3.504   3.905   8.695
67241SOL     OW 3561   0.670   2.646  14.792
67241SOL    HW1 3562   0.594   2.619  14.843
67241SOL    HW2 3563   0.641   2.638  14.701
67242SOL     OW 3564   6.229   3.697  12.880
67242SOL    HW1 3565   6.136   3.676  12.874
67242SOL    HW2 3566   6.266   3.626  12.934
67243SOL     OW 3567  10.897   5.907   5.595
67243SOL    HW1 3568  10.839   5.980   5.575
67243SOL    HW2 3569  10.918   5.917   5.687
67244SOL     OW 3570  10.939   1.049  13.176
67244SOL    HW1 3571  10.889   1.100  13.239
67244SOL    HW2 3572  11.026   1.090  13.177
67245SOL     OW 3573   3.189  10.977  10.145
67245SOL    HW1 3574   3.146  10.920  10.208
67245SOL    HW2 3575   3.278  10.988  10.179
67246SOL     OW 3576   9.650   6.756   1.927
67246SOL    HW1 3577   9.707   6.792   1.859
67246SOL    HW2 3578   9.565   6.797   1.911
67247SOL     OW 3579  10.996  13.500  12.744
67247SOL    HW1 3580  10.938  13.447  12.689
67247SOL    HW2 3581  11.077  13.507  12.695
67248SOL     OW 3582   8.364   5.454   2.310
67248SOL    HW1 3583   8.427   5.521   2.336
67248SOL    HW2 3584   8.393   5.427   2.223
67249SOL     OW 3585   0.871   8.593   1.998
67249SOL    HW1 3586   0.923   8.665   1.963
67249SOL    HW2 3587   0.922   8.559   2.071
67250SOL     OW 3588   3.326  10.896   2.822
67250SOL    HW1 3589   3.411  10.936   2.841
67250SOL    HW2 3590   3.288  10.952   2.753
67251SOL     OW 3591  12.076   9.983   7.322
67251SOL    HW1 3592  12.081   9.919   7.393
67251SOL    HW2 3593  11.982  10.001   7.313
67252SOL     OW 3594   2.487   4.069  13.374
67252SOL    HW1 3595   2.550   4.029  13.314
67252SOL    HW2 3596   2.402   4.057  13.330
67253SOL     OW 3597   4.213   6.959   9.574
67253SOL    HW1 3598   4.295   6.978   9.529
67253SOL    HW2 3599   4.213   7.018   9.650
67254SOL     OW 3600  13.363  14.768   9.424
67254SOL    HW1 3601  13.320  14.715   9.356
67254SOL    HW2 3602  13.444  14.722   9.443
67255SOL     OW 3603   8.354  13.362   5.269
67255SOL    HW1 3604   8.425  13.401   5.320
67255SOL    HW2 3605   8.278  13.416   5.289
67256SOL     OW 3606  14.045   8.297   6.925
67256SOL    HW1 3607  14.071   8.281   7.016
67256SOL    HW2 3608  13.988   8.373   6.930
67257SOL     OW 3609   5.257   9.835   6.212
67257SOL    HW1 3610   5.173   9.879   6.202
67257SOL    HW2 3611   5.255   9.765   6.147
67258SOL     OW 3612   0.134   6.989   3.175
67258SOL    HW1 3613   0.117   7.075   3.135
67258SOL    HW2 3614   0.206   6.953   3.123
67259SOL     OW 3615  14.860  11.618   2.636
67259SOL    HW1 3616  14.828  11.684   2.575
67259SOL    HW2 3617   0.008  11.668   2.712
67260SOL     OW 3618   1.526  12.559   5.354
67260SOL    HW1 3619   1.614  12.522   5.356
67260SOL    HW2 3620   1.511  12.592   5.442
67261SOL     OW 3621   1.892   7.200   0.864
67261SOL    HW1 3622   1.839   7.120   0.860
67261SOL    HW2 3623   1.839   7.261   0.914
67262SOL     OW 3624   5.952   3.082   5.837
67262SOL    HW1 3625   5.896   3.019   5.790
67262SOL    HW2 3626   5.892   3.152   5.864
67263SOL     OW 3627  11.761  14.585  12.891
67263SOL    HW1 3628  11.714  14.514  12.846
67263SOL    HW2 3629  11.815  14.540  12.956
67264SOL     OW 3630   9.298   1.498   0.158
67264SOL    HW1 3631   9.272   1.414   0.119
67264SOL    HW2 3632   9.382   1.480   0.200
67265SOL     OW 3633  11.638  12.427   2.588
67265SOL    HW1 3634  11.621  12.334   2.597
67265SOL    HW2 3635  11.601  12.450   2.502
67266SOL     OW 3636  12.016  13.420   1.775
67266SOL    HW1 3637  11.962  13.492   1.744
67266SOL    HW2 3638  12.047  13.377   1.695
67267SOL     OW 3639  12.531   4.259   6.879
67267SOL    HW1 3640  12.588   4.330   6.909
67267SOL    HW2 3641  12.527   4.199   6.954
67268SOL     OW 3642   8.931   9.086   5.367
67268SOL    HW1 3643   8.866   9.156   5.375
67268SOL    HW2 3644   8.924   9.057   5.276
67269SOL     OW 3645   9.667   9.021   0.192
67269SOL    HW1 3646   9.693   9.103   0.150
67269SOL    HW2 3647   9.623   8.971   0.123
67270SOL     OW 3648  11.960  12.354   7.921
67270SOL    HW1 3649  11.873  12.392   7.916
67270SOL    HW2 3650  12.019  12.429   7.923
67271SOL     OW 3651  11.079   1.196  10.320
67271SOL    HW1 3652  11.165   1.236  10.332
67271SOL    HW2 3653  11.071   1.135  10.394
67272SOL     OW 3654  13.442   7.821  13.449
67272SOL    HW1 3655  13.518   7.824  13.507
67272SOL    HW2 3656  13.460   7.748  13.390
67273SOL     OW 3657   1.408   5.447  14.217
67273SOL    HW1 3658   1.456   5.421  14.139
67273SOL    HW2 3659   1.316   5.449  14.188
67274SOL     OW 3660   8.605   7.842  12.949
67274SOL    HW1 3661   8.546   7.819  13.020
67274SOL    HW2 3662   8.688   7.801  12.972
67275SOL     OW 3663   2.523  12.383   1.428
67275SOL    HW1 3664   2.532  12.334   1.346
67275SOL    HW2 3665   2.608  12.375   1.470
67276SOL     OW 3666  10.744   6.481   2.319
67276SOL    HW1 3667  10.727   6.473   2.412
67276SOL    HW2 3668  10.837   6.458   2.309
67277SOL     OW 3669   1.685   5.385   5.109
67277SOL    HW1 3670   1.719   5.318   5.167
67277SOL    HW2 3671   1.591   5.388   5.127
67278SOL     OW 3672   8.445   6.666   9.588
67278SOL    HW1 3673   8.488   6.650   9.504
67278SOL    HW2 3674   8.486   6.746   9.621
67279SOL     OW 3675   1.839   6.824   5.555
67279SOL    HW1 3676   1.842   6.915   5.586
67279SOL    HW2 3677   1.924   6.788   5.577
67280SOL     OW 3678   1.454   6.803   1.842
67280SOL    HW1 3679   1.511   6.874   1.872
67280SOL    HW2 3680   1.367   6.830   1.869
67281SOL     OW 3681   9.493   3.152  11.352
67281SOL    HW1 3682   9.422   3.215  11.338
67281SOL    HW2 3683   9.450   3.068  11.361
67282SOL     OW 3684  14.694   4.568   2.265
67282SOL    HW1 3685  14.756   4.624   2.312
67282SOL    HW2 3686  14.622   4.555   2.326
67283SOL     OW 3687   4.920  10.849   2.211
67283SOL    HW1 3688   4.829  10.880   2.207
67283SOL    HW2 3689   4.954  10.864   2.122
67284SOL     OW 3690  10.116   2.141   8.437
67284SOL    HW1 3691  10.201   2.152   8.478
67284SOL    HW2 3692  10.054   2.134   8.510
67285SOL     OW 3693   2.529   9.941  12.842
67285SOL    HW1 3694   2.562   9.862  12.800
67285SOL    HW2 3695   2.606   9.998  12.849
67286SOL     OW 3696  10.329   6.125   2.505
67286SOL    HW1 3697  10.347   6.113   2.412
67286SOL    HW2 3698  10.236   6.106   2.515
67287SOL     OW 3699  11.865  14.475   6.426
67287SOL    HW1 3700  11.821  14.403   6.380
67287SOL    HW2 3701  11.834  14.467   6.517
67288SOL     OW 3702   6.098   7.029  12.279
67288SOL    HW1 3703   6.079   7.104  12.336
67288SOL    HW2 3704   6.140   6.966  12.337
67289SOL     OW 3705  11.935   4.320   2.327
67289SOL    HW1 3706  11.977   4.241   2.360
67289SOL    HW2 3707  11.853   4.326   2.375
67290SOL     OW 3708   1.073  14.706   5.607
67290SOL    HW1 3709   1.016  14.720   5.683
67290SOL    HW2 3710   1.145  14.652   5.641
67291SOL     OW 3711  14.445  10.683   6.757
67291SOL    HW1 3712  14.423  10.767   6.717
67291SOL    HW2 3713  14.470  10.704   6.847
67292SOL     OW 3714   9.485   1.252  10.853
67292SOL    HW1 3715   9.449   1.191  10.917
67292SOL    HW2 3716   9.533   1.316  10.906
67293SOL     OW 3717   8.972   6.726   9.702
67293SOL    HW1 3718   8.912   6.694   9.635
67293SOL    HW2 3719   8.951   6.819   9.711
67294SOL     OW 3720   2.901  10.610   1.208
67294SOL    HW1 3721   2.941  10.537   1.161
67294SOL    HW2 3722   2.813  10.579   1.229
67295SOL     OW 3723   6.735   0.566   1.154
67295SOL    HW1 3724   6.786   0.512   1.093
67295SOL    HW2 3725   6.799   0.626   1.192
67296SOL     OW 3726  12.377  13.169   1.650
67296SOL    HW1 3727  12.389  13.181   1.556
67296SOL    HW2 3728  12.401  13.254   1.688
67297SOL     OW 3729  10.633   5.579   2.391
67297SOL    HW1 3730  10.672   5.605   2.475
67297SOL    HW2 3731  10.697   5.607   2.326
67298SOL     OW 3732   1.198  14.778   1.453
67298SOL    HW1 3733   1.152  14.720   1.392
67298SOL    HW2 3734   1.158  14.760   1.538
67299SOL     OW 3735   7.288  13.973   6.738
67299SOL    HW1 3736   7.347  13.980   6.662
67299SOL    HW2 3737   7.300  14.055   6.785
67300SOL     OW 3738   0.999   1.188   0.030
67300SOL    HW1 3739   1.031   1.177  14.822
67300SOL    HW2 3740   0.906   1.164   0.025
67301SOL     OW 3741   3.899  14.566   8.766
67301SOL    HW1 3742   3.913  14.580   8.860
67301SOL    HW2 3743   3.979  14.600   8.725
67302SOL     OW 3744   7.989   7.249  10.967
67302SOL    HW1 3745   8.017   7.311  11.035
67302SOL    HW2 3746   8.054   7.258  10.898
67303SOL     OW 3747  13.784   6.137   4.337
67303SOL    HW1 3748  13.843   6.193   4.388
67303SOL    HW2 3749  13.839   6.065   4.308
67304SOL     OW 3750   9.127   4.177   5.254
67304SOL    HW1 3751   9.213   4.199   5.220
67304SOL    HW2 3752   9.102   4.253   5.306
67305SOL     OW 3753  14.804  14.457  14.323
67305SOL    HW1 3754  14.721  14.415  14.348
67305SOL    HW2 3755  14.808  14.446  14.228
67306SOL     OW 3756   5.770   0.375   7.722
67306SOL    HW1 3757   5.694   0.374   7.664
67306SOL    HW2 3758   5.764   0.293   7.771
67307SOL     OW 3759   7.527   0.445   9.156
67307SOL    HW1 3760   7.487   0.359   9.170
67307SOL    HW2 3761   7.526   0.456   9.061
67308SOL     OW 3762   9.181   7.532   8.202
67308SOL    HW1 3763   9.162   7.445   8.238
67308SOL    HW2 3764   9.166   7.522   8.108
67309SOL     OW 3765   1.397   7.725  11.334
67309SOL    HW1 3766   1.359   7.758  11.253
67309SOL    HW2 3767   1.491   7.743  11.326
67310SOL     OW 3768   4.287  10.818  11.489
67310SOL    HW1 3769   4.305  10.749  11.552
67310SOL    HW2 3770   4.347  10.889  11.512
67311SOL     OW 3771   2.361   9.999   0.006
67311SOL    HW1 3772   2.310  10.068  14.847
67311SOL    HW2 3773   2.300   9.957   0.067
67312SOL     OW 3774   8.368   5.827   1.698
67312SOL    HW1 3775   8.449   5.853   1.655
67312SOL    HW2 3776   8.314   5.905   1.699
67313SOL     OW 3777   2.687   7.331   2.154
67313SOL    HW1 3778   2.773   7.328   2.196
67313SOL    HW2 3779   2.655   7.419   2.170
67314SOL     OW 3780  12.980  13.117  13.548
67314SOL    HW1 3781  13.038  13.151  13.617
67314SOL    HW2 3782  13.034  13.054  13.500
67315SOL     OW 3783  10.132  11.089  14.014
67315SOL    HW1 3784  10.141  11.166  14.071
67315SOL    HW2 3785  10.164  11.016  14.067
67316SOL     OW 3786  13.328  11.976  14.707
67316SOL    HW1 3787  13.265  11.985  14.779
67316SOL    HW2 3788  13.277  11.938  14.636
67317SOL     OW 3789   8.769   4.061   3.380
67317SOL    HW1 3790   8.812   3.995   3.326
67317SOL    HW2 3791   8.676   4.037   3.379
67318SOL     OW 3792   4.566   2.523   8.705
67318SOL    HW1 3793   4.585   2.550   8.615
67318SOL    HW2 3794   4.518   2.597   8.743
67319SOL     OW 3795  12.257   4.509   8.667
67319SOL    HW1 3796  12.217   4.578   8.614
67319SOL    HW2 3797  12.189   4.442   8.675
67320SOL     OW 3798   4.297   8.059  11.974
67320SOL    HW1 3799   4.230   8.127  11.984
67320SOL    HW2 3800   4.249   7.984  11.937
67321SOL     OW 3801   9.032  12.614   2.760
67321SOL    HW1 3802   8.943  12.582   2.776
67321SOL    HW2 3803   9.086  12.568   2.825
67322SOL     OW 3804   0.623  11.263   1.672
67322SOL    HW1 3805   0.623  11.170   1.651
67322SOL    HW2 3806   0.576  11.269   1.754
67323SOL     OW 3807  11.217   9.684  10.941
67323SOL    HW1 3808  11.236   9.666  11.033
67323SOL    HW2 3809  11.123   9.698  10.937
67324SOL     OW 3810   1.845   7.029  14.376
67324SOL    HW1 3811   1.799   6.954  14.413
67324SOL    HW2 3812   1.829   7.100  14.438
67325SOL     OW 3813  14.407  10.001   1.965
67325SOL    HW1 3814  14.500  10.009   1.989
67325SOL    HW2 3815  14.376   9.927   2.017
67326SOL     OW 3816   5.514   1.080  13.284
67326SOL    HW1 3817   5.473   1.123  13.359
67326SOL    HW2 3818   5.591   1.036  13.320
67327SOL     OW 3819   2.199   6.974   4.077
67327SOL    HW1 3820   2.243   6.985   3.993
67327SOL    HW2 3821   2.263   6.926   4.131
67328SOL     OW 3822   1.974   4.682   0.183
67328SOL    HW1 3823   2.061   4.696   0.221
67328SOL    HW2 3824   1.988   4.616   0.115
67329SOL     OW 3825  11.375   8.636   4.248
67329SOL    HW1 3826  11.310   8.703   4.227
67329SOL    HW2 3827  11.356   8.613   4.339
67330SOL     OW 3828  11.067   7.192   4.897
67330SOL    HW1 3829  11.111   7.260   4.846
67330SOL    HW2 3830  11.079   7.112   4.847
67331SOL     OW 3831  13.891   9.235   6.544
67331SOL    HW1 3832  13.934   9.218   6.460
67331SOL    HW2 3833  13.799   9.217   6.528
67332SOL     OW 3834   4.327   4.514   1.108
67332SOL    HW1 3835   4.321   4.418   1.105
67332SOL    HW2 3836   4.412   4.534   1.068
67333SOL     OW 3837  10.725  11.664   8.129
67333SOL    HW1 3838  10.749  11.756   8.139
67333SOL    HW2 3839  10.709  11.632   8.218
67334SOL     OW 3840   5.156   7.597   4.013
67334SOL    HW1 3841   5.235   7.648   4.032
67334SOL    HW2 3842   5.187   7.525   3.957
67335SOL     OW 3843   7.142   5.165  13.159
67335SOL    HW1 3844   7.119   5.247  13.115
67335SOL    HW2 3845   7.111   5.097  13.099
67336SOL     OW 3846   7.205   7.306   7.154
67336SOL    HW1 3847   7.118   7.268   7.164
67336SOL    HW2 3848   7.199   7.391   7.198
67337SOL     OW 3849  14.554   6.233   5.889
67337SOL    HW1 3850  14.611   6.158   5.906
67337SOL    HW2 3851  14.527   6.262   5.976
67338SOL     OW 3852  13.396  14.672   4.790
67338SOL    HW1 3853  13.310  14.711   4.778
67338SOL    HW2 3854  13.428  14.707   4.873
67339SOL     OW 3855   1.485   3.268   8.412
67339SOL    HW1 3856   1.476   3.173   8.421
67339SOL    HW2 3857   1.554   3.279   8.347
67340SOL     OW 3858  10.640  11.293   7.150
67340SOL    HW1 3859  10.557  11.246   7.154
67340SOL    HW2 3860  10.644  11.328   7.061
67341SOL     OW 3861   4.874   9.235  14.827
67341SOL    HW1 3862   4.909   9.147  14.815
67341SOL    HW2 3863   4.814   9.248  14.754
67342SOL     OW 3864   8.326  14.248   0.986
67342SOL    HW1 3865   8.252  14.261   1.045
67342SOL    HW2 3866   8.352  14.158   1.000
67343SOL     OW 3867  11.970   3.169   9.844
67343SOL    HW1 3868  11.887   3.128   9.868
67343SOL    HW2 3869  11.961   3.189   9.751
67344SOL     OW 3870  12.690  14.186   9.225
67344SOL    HW1 3871  12.707  14.197   9.132
67344SOL    HW2 3872  12.617  14.124   9.229
67345SOL     OW 3873  11.872   3.016  11.172
67345SOL    HW1 3874  11.901   3.084  11.233
67345SOL    HW2 3875  11.835   3.064  11.098
67346SOL     OW 3876  10.463  10.156   6.902
67346SOL    HW1 3877  10.478  10.238   6.855
67346SOL    HW2 3878  10.423  10.182   6.985
67347SOL     OW 3879  11.438  10.661  11.630
67347SOL    HW1 3880  11.429  10.678  11.723
67347SOL    HW2 3881  11.530  10.639  11.618
67348SOL     OW 3882   6.804  12.940   4.324
67348SOL    HW1 3883   6.862  12.942   4.248
67348SOL    HW2 3884   6.795  13.032   4.349
67349SOL     OW 3885  10.789   5.248   5.942
67349SOL    HW1 3886  10.825   5.279   5.858
67349SOL    HW2 3887  10.724   5.182   5.917
67350SOL     OW 3888  14.395   9.347   5.118
67350SOL    HW1 3889  14.380   9.266   5.069
67350SOL    HW2 3890  14.484   9.373   5.093
67351SOL     OW 3891   1.093  13.041   5.175
67351SOL    HW1 3892   1.180  13.029   5.214
67351SOL    HW2 3893   1.055  13.114   5.224
67352SOL     OW 3894  14.315   8.205   4.323
67352SOL    HW1 3895  14.311   8.252   4.406
67352SOL    HW2 3896  14.377   8.133   4.338
67353SOL     OW 3897  12.822   4.141   9.448
67353SOL    HW1 3898  12.770   4.220   9.441
67353SOL    HW2 3899  12.819   4.118   9.541
67354SOL     OW 3900   8.767  14.187   8.402
67354SOL    HW1 3901   8.747  14.281   8.404
67354SOL    HW2 3902   8.725  14.152   8.480
67355SOL     OW 3903   7.510   6.836   6.437
67355SOL    HW1 3904   7.544   6.782   6.366
67355SOL    HW2 3905   7.584   6.846   6.497
67356SOL     OW 3906  14.229   6.303   8.080
67356SOL    HW1 3907  14.232   6.218   8.037
67356SOL    HW2 3908  14.315   6.342   8.061
67357SOL     OW 3909   7.960   6.429  13.439
67357SOL    HW1 3910   7.957   6.372  13.362
67357SOL    HW2 3911   7.974   6.517  13.404
67358SOL     OW 3912  14.010   0.792  10.635
67358SOL    HW1 3913  13.982   0.863  10.692
67358SOL    HW2 3914  14.106   0.792  10.642
67359SOL     OW 3915   1.495   3.774   8.931
67359SOL    HW1 3916   1.515   3.867   8.922
67359SOL    HW2 3917   1.403   3.766   8.907
67360SOL     OW 3918   1.977   6.304  14.362
67360SOL    HW1 3919   2.027   6.381  14.390
67360SOL    HW2 3920   1.958   6.320  14.270
67361SOL     OW 3921   2.876   7.655   5.532
67361SOL    HW1 3922   2.828   7.731   5.498
67361SOL    HW2 3923   2.902   7.680   5.621
67362SOL     OW 3924  10.871   8.524   7.070
67362SOL    HW1 3925  10.910   8.566   7.147
67362SOL    HW2 3926  10.941   8.467   7.036
67363SOL     OW 3927  14.532   9.369  12.857
67363SOL    HW1 3928  14.478   9.305  12.810
67363SOL    HW2 3929  14.468   9.432  12.892
67364SOL     OW 3930   0.162   3.078   3.014
67364SOL    HW1 3931   0.085   3.108   3.063
67364SOL    HW2 3932   0.166   3.136   2.938
67365SOL     OW 3933   0.618   0.953  11.781
67365SOL    HW1 3934   0.586   0.865  11.763
67365SOL    HW2 3935   0.704   0.940  11.821
67366SOL     OW 3936  12.008   0.561   7.173
67366SOL    HW1 3937  12.045   0.594   7.091
67366SOL    HW2 3938  12.030   0.467   7.173
67367SOL     OW 3939   8.052  13.741   3.480
67367SOL    HW1 3940   8.009  13.655   3.481
67367SOL    HW2 3941   7.981  13.804   3.493
67368SOL     OW 3942   8.116   2.987   2.498
67368SOL    HW1 3943   8.184   2.938   2.545
67368SOL    HW2 3944   8.115   3.072   2.541
67369SOL     OW 3945  12.573   3.027   9.648
67369SOL    HW1 3946  12.501   2.989   9.597
67369SOL    HW2 3947  12.579   2.972   9.726
67370SOL     OW 3948   7.339   6.601   7.071
67370SOL    HW1 3949   7.272   6.563   7.014
67370SOL    HW2 3950   7.306   6.587   7.160
67371SOL     OW 3951   0.270   7.831   8.438
67371SOL    HW1 3952   0.198   7.779   8.403
67371SOL    HW2 3953   0.302   7.882   8.363
67372SOL     OW 3954   9.261  11.446   9.450
67372SOL    HW1 3955   9.185  11.424   9.503
67372SOL    HW2 3956   9.231  11.438   9.360
67373SOL     OW 3957   1.153   7.210   7.458
67373SOL    HW1 3958   1.171   7.184   7.368
67373SOL    HW2 3959   1.239   7.232   7.494
67374SOL     OW 3960   5.829   6.516  11.092
67374SOL    HW1 3961   5.903   6.475  11.136
67374SOL    HW2 3962   5.764   6.447  11.084
67375SOL     OW 3963   7.760  10.211   8.272
67375SOL    HW1 3964   7.841  10.177   8.235
67375SOL    HW2 3965   7.699  10.137   8.267
67376SOL     OW 3966  12.225   1.018   7.099
67376SOL    HW1 3967  12.149   1.047   7.048
67376SOL    HW2 3968  12.264   0.948   7.046
67377SOL     OW 3969   2.734  11.977  10.567
67377SOL    HW1 3970   2.730  12.048  10.503
67377SOL    HW2 3971   2.721  11.897  10.516
67378SOL     OW 3972  10.519  13.643   4.315
67378SOL    HW1 3973  10.438  13.626   4.363
67378SOL    HW2 3974  10.587  13.647   4.383
67379SOL     OW 3975  14.294   7.903   9.919
67379SOL    HW1 3976  14.280   7.813   9.889
67379SOL    HW2 3977  14.224   7.920   9.981
67380SOL     OW 3978   5.634  11.447   9.548
67380SOL    HW1 3979   5.704  11.479   9.491
67380SOL    HW2 3980   5.600  11.369   9.503
67381SOL     OW 3981  10.598   3.485   9.533
67381SOL    HW1 3982  10.517   3.534   9.544
67381SOL    HW2 3983  10.653   3.540   9.478
67382SOL     OW 3984  14.809  11.792   8.661
67382SOL    HW1 3985  14.756  11.860   8.702
67382SOL    HW2 3986  14.751  11.716   8.655
67383SOL     OW 3987   0.053   9.919   7.852
67383SOL    HW1 3988   0.063   9.833   7.810
67383SOL    HW2 3989   0.127   9.925   7.913
67384SOL     OW 3990   3.155   5.033   3.056
67384SOL    HW1 3991   3.214   4.991   3.118
67384SOL    HW2 3992   3.069   5.030   3.098
67385SOL     OW 3993   7.420   5.128  13.206
67385SOL    HW1 3994   7.388   5.130  13.297
67385SOL    HW2 3995   7.340   5.132  13.153
67386SOL     OW 3996   7.556   4.835  11.710
67386SOL    HW1 3997   7.465   4.831  11.679
67386SOL    HW2 3998   7.608   4.803  11.637
67387SOL     OW 3999  13.602   7.769   6.694
67387SOL    HW1 4000  13.688   7.746   6.727
67387SOL    HW2 4001  13.591   7.715   6.616
67388SOL     OW 4002   0.533  12.024  11.014
67388SOL    HW1 4003   0.578  11.946  11.047
67388SOL    HW2 4004   0.448  11.992  10.982
67389SOL     OW 4005   9.359  12.186   1.123
67389SOL    HW1 4006   9.295  12.145   1.181
67389SOL    HW2 4007   9.346  12.280   1.134
67390SOL     OW 4008  12.618   0.149   2.983
67390SOL    HW1 4009  12.575   0.064   2.998
67390SOL    HW2 4010  12.552   0.201   2.936
67391SOL     OW 4011   9.110  10.048  13.397
67391SOL    HW1 4012   9.062  10.060  13.479
67391SOL    HW2 4013   9.198  10.022  13.423
67392SOL     OW 4014  14.609  13.263   4.675
67392SOL    HW1 4015  14.660  13.312   4.740
67392SOL    HW2 4016  14.584  13.329   4.610
67393SOL     OW 4017  14.418   3.884  11.675
67393SOL    HW1 4018  14.385   3.970  11.700
67393SOL    HW2 4019  14.505   3.879  11.716
67394SOL     OW 4020  14.366   2.375   5.891
67394SOL    HW1 4021  14.444   2.336   5.853
67394SOL    HW2 4022  14.313   2.402   5.816
67395SOL     OW 4023   9.869  13.099  13.930
67395SOL    HW1 4024   9.920  13.147  13.994
67395SOL    HW2 4025   9.809  13.164  13.893
67396SOL     OW 4026  10.739  12.512   0.288
67396SOL    HW1 4027  10.703  12.458   0.359
67396SOL    HW2 4028  10.744  12.600   0.326
67397SOL     OW 4029   5.695   1.887   6.446
67397SOL    HW1 4030   5.644   1.955   6.490
67397SOL    HW2 4031   5.706   1.819   6.513
67398SOL     OW 4032   8.199  10.629   7.283
67398SOL    HW1 4033   8.169  10.719   7.276
67398SOL    HW2 4034   8.120  10.576   7.274
67399SOL     OW 4035  10.856   4.512   7.388
67399SOL    HW1 4036  10.890   4.435   7.343
67399SOL    HW2 4037  10.761   4.507   7.376
67400SOL     OW 4038   1.740   2.460   5.433
67400SOL    HW1 4039   1.796   2.474   5.356
67400SOL    HW2 4040   1.676   2.531   5.429
67401SOL     OW 4041  10.614   0.461   3.372
67401SOL    HW1 4042  10.667   0.436   3.448
67401SOL    HW2 4043  10.672   0.445   3.297
67402SOL     OW 4044   4.285  13.599   6.389
67402SOL    HW1 4045   4.287  13.579   6.482
67402SOL    HW2 4046   4.308  13.517   6.346
67403SOL     OW 4047  13.929   9.452   7.048
67403SOL    HW1 4048  13.919   9.428   7.141
67403SOL    HW2 4049  13.859   9.516   7.033
67404SOL     OW 4050  10.195  13.516   0.516
67404SOL    HW1 4051  10.124  13.527   0.453
67404SOL    HW2 4052  10.270  13.559   0.475
67405SOL     OW 4053   3.528  13.797  13.517
67405SOL    HW1 4054   3.611  13.768  13.555
67405SOL    HW2 4055   3.500  13.723  13.463
67406SOL     OW 4056  14.715   6.029  12.810
67406SOL    HW1 4057  14.682   6.086  12.740
67406SOL    HW2 4058  14.670   5.946  12.796
67407SOL     OW 4059   5.210  14.265   1.079
67407SOL    HW1 4060   5.145  14.224   1.022
67407SOL    HW2 4061   5.176  14.250   1.168
67408SOL     OW 4062  10.451   5.177   6.263
67408SOL    HW1 4063  10.498   5.213   6.339
67408SOL    HW2 4064  10.430   5.254   6.210
67409SOL     OW 4065   3.883  11.430   9.199
67409SOL    HW1 4066   3.915  11.458   9.113
67409SOL    HW2 4067   3.791  11.411   9.184
67410SOL     OW 4068   4.123   9.527  11.670
67410SOL    HW1 4069   4.096   9.587  11.601
67410SOL    HW2 4070   4.218   9.523  11.663
67411SOL     OW 4071   0.622  10.345  13.157
67411SOL    HW1 4072   0.712  10.363  13.184
67411SOL    HW2 4073   0.620  10.251  13.139
67412SOL     OW 4074  11.014   6.509  14.495
67412SOL    HW1 4075  10.926   6.473  14.481
67412SOL    HW2 4076  11.044   6.533  14.408
67413SOL     OW 4077   5.817   0.441  11.754
67413SOL    HW1 4078   5.827   0.507  11.823
67413SOL    HW2 4079   5.832   0.358  11.798
67414SOL     OW 4080   9.048  12.818   8.405
67414SOL    HW1 4081   9.018  12.737   8.365
67414SOL    HW2 4082   8.968  12.861   8.436
67415SOL     OW 4083  10.534  12.657  10.018
67415SOL    HW1 4084  10.449  12.621   9.994
67415SOL    HW2 4085  10.591  12.635   9.944
67416SOL     OW 4086   2.845   8.105   6.792
67416SOL    HW1 4087   2.783   8.175   6.814
67416SOL    HW2 4088   2.790   8.031   6.767
67417SOL     OW 4089   5.756   5.355   4.323
67417SOL    HW1 4090   5.826   5.416   4.300
67417SOL    HW2 4091   5.800   5.285   4.371
67418SOL     OW 4092   6.897   3.283   8.876
67418SOL    HW1 4093   6.964   3.271   8.809
67418SOL    HW2 4094   6.821   3.235   8.843
67419SOL     OW 4095   5.156   1.307  11.015
67419SOL    HW1 4096   5.147   1.378  11.078
67419SOL    HW2 4097   5.149   1.227  11.067
67420SOL     OW 4098   5.203  10.994   7.802
67420SOL    HW1 4099   5.170  10.929   7.864
67420SOL    HW2 4100   5.135  11.062   7.800
67421SOL     OW 4101  12.651   0.145   6.393
67421SOL    HW1 4102  12.656   0.221   6.334
67421SOL    HW2 4103  12.690   0.074   6.343
67422SOL     OW 4104   9.714   1.676   6.337
67422SOL    HW1 4105   9.635   1.713   6.376
67422SOL    HW2 4106   9.785   1.727   6.375
67423SOL     OW 4107  11.325  10.525  13.416
67423SOL    HW1 4108  11.378  10.590  13.368
67423SOL    HW2 4109  11.248  10.574  13.444
67424SOL     OW 4110   1.131   3.341  14.619
67424SOL    HW1 4111   1.142   3.250  14.643
67424SOL    HW2 4112   1.149   3.390  14.699
67425SOL     OW 4113   7.684  14.694   2.754
67425SOL    HW1 4114   7.647  14.735   2.676
67425SOL    HW2 4115   7.619  14.628   2.779
67426SOL     OW 4116   4.842   2.312   9.154
67426SOL    HW1 4117   4.882   2.257   9.086
67426SOL    HW2 4118   4.912   2.373   9.180
67427SOL     OW 4119   5.167  14.120  10.205
67427SOL    HW1 4120   5.222  14.053  10.165
67427SOL    HW2 4121   5.078  14.090  10.192
67428SOL     OW 4122  12.848   5.079   6.749
67428SOL    HW1 4123  12.872   5.151   6.805
67428SOL    HW2 4124  12.929   5.055   6.703
67429SOL     OW 4125   1.762   8.960   5.742
67429SOL    HW1 4126   1.832   9.001   5.691
67429SOL    HW2 4127   1.708   8.915   5.676
67430SOL     OW 4128  13.789   1.051   3.396
67430SOL    HW1 4129  13.879   1.027   3.375
67430SOL    HW2 4130  13.742   0.967   3.400
67431SOL     OW 4131  12.761  10.573   0.993
67431SOL    HW1 4132  12.800  10.486   0.998
67431SOL    HW2 4133  12.695  10.574   1.063
67432SOL     OW 4134   1.203   7.245  12.175
67432SOL    HW1 4135   1.167   7.290  12.252
67432SOL    HW2 4136   1.289   7.284  12.163
67433SOL     OW 4137  11.284   0.144   2.411
67433SOL    HW1 4138  11.325   0.057   2.412
67433SOL    HW2 4139  11.252   0.154   2.321
67434SOL     OW 4140   8.676   9.235  13.283
67434SOL    HW1 4141   8.683   9.267  13.193
67434SOL    HW2 4142   8.765   9.208  13.306
67435SOL     OW 4143   5.778   9.189   0.224
67435SOL    HW1 4144   5.811   9.102   0.245
67435SOL    HW2 4145   5.740   9.221   0.306
67436SOL     OW 4146  10.635   5.036   2.636
67436SOL    HW1 4147  10.618   5.130   2.633
67436SOL    HW2 4148  10.593   5.001   2.558
67437SOL     OW 4149  13.227  10.485   9.036
67437SOL    HW1 4150  13.316  10.450   9.036
67437SOL    HW2 4151  13.230  10.557   9.098
67438SOL     OW 4152  11.595  12.645   2.763
67438SOL    HW1 4153  11.575  12.582   2.695
67438SOL    HW2 4154  11.563  12.604   2.844
67439SOL     OW 4155  12.289  14.286  12.830
67439SOL    HW1 4156  12.193  14.283  12.829
67439SOL    HW2 4157  12.309  14.377  12.851
67440SOL     OW 4158  11.571   9.518   6.726
67440SOL    HW1 4159  11.648   9.531   6.671
67440SOL    HW2 4160  11.498   9.508   6.664
67441SOL     OW 4161   2.846   5.825   6.168
67441SOL    HW1 4162   2.921   5.875   6.136
67441SOL    HW2 4163   2.783   5.826   6.096
67442SOL     OW 4164   1.263   4.654   9.222
67442SOL    HW1 4165   1.233   4.742   9.200
67442SOL    HW2 4166   1.352   4.649   9.186
67443SOL     OW 4167   6.980   4.615   8.708
67443SOL    HW1 4168   7.030   4.624   8.627
67443SOL    HW2 4169   6.892   4.589   8.679
67444SOL     OW 4170  14.608   3.247   0.986
67444SOL    HW1 4171  14.696   3.224   0.953
67444SOL    HW2 4172  14.586   3.328   0.940
67445SOL     OW 4173   5.072   9.990  10.656
67445SOL    HW1 4174   5.085   9.941  10.738
67445SOL    HW2 4175   5.094  10.080  10.679
67446SOL     OW 4176   6.063  12.856   4.634
67446SOL    HW1 4177   6.155  12.833   4.644
67446SOL    HW2 4178   6.041  12.829   4.545
67447SOL     OW 4179   8.371   5.261   8.363
67447SOL    HW1 4180   8.338   5.303   8.283
67447SOL    HW2 4181   8.310   5.287   8.431
67448SOL     OW 4182   0.315   2.249   1.162
67448SOL    HW1 4183   0.236   2.220   1.116
67448SOL    HW2 4184   0.361   2.304   1.099
67449SOL     OW 4185  13.295  12.961   7.424
67449SOL    HW1 4186  13.324  12.921   7.505
67449SOL    HW2 4187  13.270  12.888   7.367
67450SOL     OW 4188   6.169   7.580   3.692
67450SOL    HW1 4189   6.261   7.579   3.667
67450SOL    HW2 4190   6.125   7.526   3.626
67451SOL     OW 4191   6.973   4.654   3.312
67451SOL    HW1 4192   7.060   4.640   3.275
67451SOL    HW2 4193   6.979   4.737   3.358
67452SOL     OW 4194   4.938   4.609   5.895
67452SOL    HW1 4195   5.010   4.671   5.909
67452SOL    HW2 4196   4.886   4.649   5.825
67453SOL     OW 4197   8.094   9.063   1.206
67453SOL    HW1 4198   8.148   9.116   1.265
67453SOL    HW2 4199   8.131   8.975   1.213
67454SOL     OW 4200   7.824   4.289  12.349
67454SOL    HW1 4201   7.732   4.274  12.373
67454SOL    HW2 4202   7.826   4.378  12.315
67455SOL     OW 4203   9.391   4.590   0.305
67455SOL    HW1 4204   9.303   4.628   0.306
67455SOL    HW2 4205   9.409   4.568   0.396
67456SOL     OW 4206   9.216   2.442   8.702
67456SOL    HW1 4207   9.182   2.531   8.716
67456SOL    HW2 4208   9.165   2.408   8.630
67457SOL     OW 4209  13.585   9.612   6.774
67457SOL    HW1 4210  13.528   9.682   6.807
67457SOL    HW2 4211  13.525   9.543   6.746
67458SOL     OW 4212   1.299   3.557   7.704
67458SOL    HW1 4213   1.356   3.499   7.652
67458SOL    HW2 4214   1.359   3.616   7.749
67459SOL     OW 4215  14.644  10.254   2.943
67459SOL    HW1 4216  14.685  10.324   2.893
67459SOL    HW2 4217  14.554  10.285   2.958
67460SOL     OW 4218   6.435   8.986  14.309
67460SOL    HW1 4219   6.510   8.937  14.276
67460SOL    HW2 4220   6.405   8.937  14.385
67461SOL     OW 4221   2.518  13.939  14.760
67461SOL    HW1 4222   2.512  13.934  14.664
67461SOL    HW2 4223   2.482  14.024  14.782
67462SOL     OW 4224   0.161  14.715   9.069
67462SOL    HW1 4225   0.102  14.760   9.129
67462SOL    HW2 4226   0.109  14.643   9.033
67463SOL     OW 4227   6.073   6.261   9.788
67463SOL    HW1 4228   6.066   6.258   9.693
67463SOL    HW2 4229   6.127   6.185   9.811
67464SOL     OW 4230   7.519  13.587   1.116
67464SOL    HW1 4231   7.504  13.629   1.201
67464SOL    HW2 4232   7.611  13.561   1.118
67465SOL     OW 4233   1.997   3.230   4.617
67465SOL    HW1 4234   2.036   3.245   4.531
67465SOL    HW2 4235   1.903   3.223   4.599
67466SOL     OW 4236   0.117   2.380   4.053
67466SOL    HW1 4237   0.101   2.409   4.143
67466SOL    HW2 4238   0.180   2.443   4.018
67467SOL     OW 4239   5.501  12.263   2.961
67467SOL    HW1 4240   5.537  12.194   2.904
67467SOL    HW2 4241   5.576  12.320   2.979
67468SOL     OW 4242   4.324  12.155   7.865
67468SOL    HW1 4243   4.298  12.246   7.883
67468SOL    HW2 4244   4.419  12.159   7.855
67469SOL     OW 4245   3.408  10.971   6.174
67469SOL    HW1 4246   3.315  10.952   6.160
67469SOL    HW2 4247   3.446  10.887   6.197
67470SOL     OW 4248  10.609   5.337   2.226
67470SOL    HW1 4249  10.622   5.425   2.262
67470SOL    HW2 4250  10.667   5.281   2.277
67471SOL     OW 4251   6.359  10.782  12.648
67471SOL    HW1 4252   6.269  10.774  12.618
67471SOL    HW2 4253   6.405  10.825  12.576
67472SOL     OW 4254   6.102   9.853   9.784
67472SOL    HW1 4255   6.040   9.794   9.826
67472SOL    HW2 4256   6.185   9.838   9.829
67473SOL     OW 4257   5.192   1.478   1.013
67473SOL    HW1 4258   5.183   1.524   0.929
67473SOL    HW2 4259   5.234   1.395   0.990
67474SOL     OW 4260   3.750   2.390   2.297
67474SOL    HW1 4261   3.716   2.390   2.387
67474SOL    HW2 4262   3.810   2.316   2.293
67475SOL     OW 4263  14.014   0.584   8.509
67475SOL    HW1 4264  14.089   0.600   8.567
67475SOL    HW2 4265  13.943   0.635   8.547
67476SOL     OW 4266   6.554   5.089   4.332
67476SOL    HW1 4267   6.499   5.150   4.382
67476SOL    HW2 4268   6.510   5.005   4.340
67477SOL     OW 4269   7.622   5.036   3.673
67477SOL    HW1 4270   7.573   5.071   3.747
67477SOL    HW2 4271   7.598   4.944   3.668
67478SOL     OW 4272  13.427   7.854   7.690
67478SOL    HW1 4273  13.407   7.920   7.625
67478SOL    HW2 4274  13.347   7.845   7.742
67479SOL     OW 4275   8.827   8.671   2.029
67479SOL    HW1 4276   8.813   8.605   1.961
67479SOL    HW2 4277   8.750   8.664   2.085
67480SOL     OW 4278  13.929   9.968   9.973
67480SOL    HW1 4279  14.016   9.940   9.944
67480SOL    HW2 4280  13.873   9.892   9.957
67481SOL     OW 4281   4.215   5.982   2.777
67481SOL    HW1 4282   4.269   5.907   2.755
67481SOL    HW2 4283   4.138   5.974   2.720
67482SOL     OW 4284   1.850  10.484   9.724
67482SOL    HW1 4285   1.851  10.428   9.802
67482SOL    HW2 4286   1.760  10.478   9.691
67483SOL     OW 4287  10.369  13.029  14.830
67483SOL    HW1 4288  10.380  13.123  14.841
67483SOL    HW2 4289  10.420  13.008  14.751
67484SOL     OW 4290   7.696  14.088  11.771
67484SOL    HW1 4291   7.617  14.141  11.766
67484SOL    HW2 4292   7.767  14.151  11.785
67485SOL     OW 4293   1.484   0.585   2.526
67485SOL    HW1 4294   1.391   0.603   2.540
67485SOL    HW2 4295   1.499   0.501   2.569
67486SOL     OW 4296  11.329   1.550   7.549
67486SOL    HW1 4297  11.419   1.581   7.557
67486SOL    HW2 4298  11.326   1.507   7.464
67487SOL     OW 4299   1.374  11.935  12.916
67487SOL    HW1 4300   1.455  11.928  12.866
67487SOL    HW2 4301   1.308  11.894  12.860
67488SOL     OW 4302   4.763   3.196   4.933
67488SOL    HW1 4303   4.838   3.152   4.892
67488SOL    HW2 4304   4.802   3.257   4.996
67489SOL     OW 4305   7.787  12.798  12.880
67489SOL    HW1 4306   7.738  12.821  12.801
67489SOL    HW2 4307   7.733  12.733  12.924
67490SOL     OW 4308   9.227  14.675   4.201
67490SOL    HW1 4309   9.221  14.597   4.146
67490SOL    HW2 4310   9.298  14.726   4.162
67491SOL     OW 4311   0.741   1.741   5.484
67491SOL    HW1 4312   0.712   1.798   5.413
67491SOL    HW2 4313   0.771   1.661   5.441
67492SOL     OW 4314  10.196   0.998   5.131
67492SOL    HW1 4315  10.115   1.049   5.131
67492SOL    HW2 4316  10.167   0.908   5.150
67493SOL     OW 4317   2.248   0.628  11.205
67493SOL    HW1 4318   2.295   0.608  11.124
67493SOL    HW2 4319   2.300   0.586  11.273
67494SOL     OW 4320  11.616   0.404   2.252
67494SOL    HW1 4321  11.656   0.424   2.168
67494SOL    HW2 4322  11.596   0.310   2.248
67495SOL     OW 4323   1.250   7.690   3.688
67495SOL    HW1 4324   1.308   7.614   3.688
67495SOL    HW2 4325   1.218   7.695   3.598
67496SOL     OW 4326   3.979   9.451   4.505
67496SOL    HW1 4327   3.885   9.471   4.506
67496SOL    HW2 4328   4.016   9.517   4.446
67497SOL     OW 4329   5.802   5.039   3.547
67497SOL    HW1 4330   5.764   5.127   3.549
67497SOL    HW2 4331   5.782   5.006   3.460
67498SOL     OW 4332   7.220   6.522   8.061
67498SOL    HW1 4333   7.218   6.439   8.109
67498SOL    HW2 4334   7.301   6.563   8.089
67499SOL     OW 4335   6.236   4.193  14.819
67499SOL    HW1 4336   6.243   4.288  14.822
67499SOL    HW2 4337   6.319   4.164  14.781
67500SOL     OW 4338   8.138  11.836   9.185
67500SOL    HW1 4339   8.090  11.755   9.166
67500SOL    HW2 4340   8.114  11.857   9.275
67501SOL     OW 4341   3.999  13.470  13.178
67501SOL    HW1 4342   4.033  13.392  13.222
67501SOL    HW2 4343   3.934  13.506  13.238
67502SOL     OW 4344  11.662  10.354   5.219
67502SOL    HW1 4345  11.605  10.400   5.282
67502SOL    HW2 4346  11.740  10.409   5.214
67503SOL     OW 4347   4.434  11.111   4.008
67503SOL    HW1 4348   4.369  11.071   3.950
67503SOL    HW2 4349   4.473  11.037   4.054
67504SOL     OW 4350   7.254  14.748   2.729
67504SOL    HW1 4351   7.231  14.663   2.768
67504SOL    HW2 4352   7.280  14.727   2.639
67505SOL     OW 4353   1.587   0.155  13.170
67505SOL    HW1 4354   1.515   0.200  13.215
67505SOL    HW2 4355   1.655   0.145  13.237
67506SOL     OW 4356   3.497  10.639   0.811
67506SOL    HW1 4357   3.462  10.721   0.777
67506SOL    HW2 4358   3.458  10.631   0.898
67507SOL     OW 4359   4.922  10.577   7.925
67507SOL    HW1 4360   5.015  10.588   7.904
67507SOL    HW2 4361   4.879  10.647   7.875
67508SOL     OW 4362  10.752   1.217   1.131
67508SOL    HW1 4363  10.706   1.155   1.187
67508SOL    HW2 4364  10.845   1.197   1.145
67509SOL     OW 4365   0.355  14.784   0.678
67509SOL    HW1 4366   0.369  14.700   0.721
67509SOL    HW2 4367   0.383  14.849   0.743
67510SOL     OW 4368   5.125  11.885  11.499
67510SOL    HW1 4369   5.078  11.811  11.462
67510SOL    HW2 4370   5.174  11.922  11.425
67511SOL     OW 4371  13.379  14.130  13.803
67511SOL    HW1 4372  13.351  14.042  13.828
67511SOL    HW2 4373  13.460  14.144  13.852
67512SOL     OW 4374   9.900  12.703  13.143
67512SOL    HW1 4375   9.966  12.745  13.198
67512SOL    HW2 4376   9.828  12.766  13.140
67513SOL     OW 4377  14.742   8.375  14.349
67513SOL    HW1 4378  14.834   8.385  14.371
67513SOL    HW2 4379  14.695   8.422  14.418
67514SOL     OW 4380  10.595  10.094   9.754
67514SOL    HW1 4381  10.546  10.161   9.802
67514SOL    HW2 4382  10.679  10.136   9.734
67515SOL     OW 4383  13.618  12.943  12.735
67515SOL    HW1 4384  13.674  13.017  12.758
67515SOL    HW2 4385  13.537  12.959  12.784
67516SOL     OW 4386   0.848  14.011   9.274
67516SOL    HW1 4387   0.790  14.051   9.338
67516SOL    HW2 4388   0.872  14.083   9.215
67517SOL     OW 4389   5.415  14.592   3.082
67517SOL    HW1 4390   5.429  14.676   3.037
67517SOL    HW2 4391   5.372  14.615   3.164
67518SOL     OW 4392   6.389   5.025   7.498
67518SOL    HW1 4393   6.365   4.960   7.433
67518SOL    HW2 4394   6.445   5.088   7.451
67519SOL     OW 4395  13.719   4.926   3.871
67519SOL    HW1 4396  13.664   4.874   3.930
67519SOL    HW2 4397  13.809   4.907   3.899
67520SOL     OW 4398   5.533   0.399   4.910
67520SOL    HW1 4399   5.574   0.456   4.845
67520SOL    HW2 4400   5.501   0.324   4.858
67521SOL     OW 4401   8.158   5.998   4.793
67521SOL    HW1 4402   8.159   6.035   4.882
67521SOL    HW2 4403   8.124   6.069   4.738
67522SOL     OW 4404   0.518   5.963   5.193
67522SOL    HW1 4405   0.573   5.891   5.226
67522SOL    HW2 4406   0.538   6.037   5.251
67523SOL     OW 4407   8.588   8.789   2.708
67523SOL    HW1 4408   8.674   8.770   2.669
67523SOL    HW2 4409   8.594   8.880   2.735
67524SOL     OW 4410   1.416   8.430   1.503
67524SOL    HW1 4411   1.499   8.476   1.518
67524SOL    HW2 4412   1.359   8.460   1.573
67525SOL     OW 4413  11.739   8.474   3.901
67525SOL    HW1 4414  11.745   8.387   3.862
67525SOL    HW2 4415  11.779   8.465   3.987
67526SOL     OW 4416   4.102  14.418   1.234
67526SOL    HW1 4417   4.139  14.335   1.204
67526SOL    HW2 4418   4.146  14.434   1.318
67527SOL     OW 4419   0.886   9.648  14.815
67527SOL    HW1 4420   0.873   9.553  14.817
67527SOL    HW2 4421   0.973   9.660  14.777
67528SOL     OW 4422   2.659   0.434   1.573
67528SOL    HW1 4423   2.604   0.428   1.651
67528SOL    HW2 4424   2.627   0.512   1.527
67529SOL     OW 4425  13.306   8.264   3.005
67529SOL    HW1 4426  13.274   8.348   2.972
67529SOL    HW2 4427  13.249   8.199   2.963
67530SOL     OW 4428  12.089   1.416   7.254
67530SOL    HW1 4429  12.154   1.365   7.302
67530SOL    HW2 4430  12.118   1.414   7.163
67531SOL     OW 4431   7.376   4.154   6.749
67531SOL    HW1 4432   7.385   4.062   6.725
67531SOL    HW2 4433   7.311   4.188   6.687
67532SOL     OW 4434   5.286  11.004   1.206
67532SOL    HW1 4435   5.229  11.010   1.282
67532SOL    HW2 4436   5.353  11.071   1.221
67533SOL     OW 4437   5.488   2.504   5.822
67533SOL    HW1 4438   5.564   2.544   5.863
67533SOL    HW2 4439   5.499   2.410   5.837
67534SOL     OW 4440   5.813  14.631   9.331
67534SOL    HW1 4441   5.861  14.713   9.320
67534SOL    HW2 4442   5.873  14.564   9.297
67535SOL     OW 4443   3.456  11.650   2.481
67535SOL    HW1 4444   3.401  11.629   2.556
67535SOL    HW2 4445   3.456  11.745   2.477
67536SOL     OW 4446   1.649   1.532   7.763
67536SOL    HW1 4447   1.638   1.577   7.847
67536SOL    HW2 4448   1.583   1.463   7.764
67537SOL     OW 4449   3.037  10.071  11.040
67537SOL    HW1 4450   3.068  10.031  11.121
67537SOL    HW2 4451   2.941  10.064  11.045
67538SOL     OW 4452   6.546  11.054   1.601
67538SOL    HW1 4453   6.612  11.027   1.664
67538SOL    HW2 4454   6.472  10.996   1.618
67539SOL     OW 4455  11.507  11.869   5.712
67539SOL    HW1 4456  11.433  11.865   5.651
67539SOL    HW2 4457  11.530  11.962   5.716
67540SOL     OW 4458   4.566  14.781  10.412
67540SOL    HW1 4459   4.647  14.829  10.395
67540SOL    HW2 4460   4.529  14.821  10.491
67541SOL     OW 4461   3.998  10.131  13.382
67541SOL    HW1 4462   4.018  10.188  13.308
67541SOL    HW2 4463   4.038  10.174  13.457
67542SOL     OW 4464   7.257  11.274   4.529
67542SOL    HW1 4465   7.203  11.263   4.607
67542SOL    HW2 4466   7.312  11.350   4.549
67543SOL     OW 4467  14.661   7.801  14.722
67543SOL    HW1 4468  14.698   7.713  14.709
67543SOL    HW2 4469  14.567   7.788  14.712
67544SOL     OW 4470   5.645   7.254  14.282
67544SOL    HW1 4471   5.688   7.332  14.318
67544SOL    HW2 4472   5.552   7.266  14.303
67545SOL     OW 4473   1.326  11.925   0.216
67545SOL    HW1 4474   1.299  12.003   0.264
67545SOL    HW2 4475   1.300  11.943   0.126
67546SOL     OW 4476   9.140  10.355   4.177
67546SOL    HW1 4477   9.129  10.440   4.220
67546SOL    HW2 4478   9.234  10.349   4.160
67547SOL     OW 4479   6.307   6.776  14.420
67547SOL    HW1 4480   6.279   6.685  14.433
67547SOL    HW2 4481   6.396   6.778  14.455
67548SOL     OW 4482   6.992  13.581  14.597
67548SOL    HW1 4483   7.013  13.488  14.587
67548SOL    HW2 4484   6.897  13.584  14.604
67549SOL     OW 4485  11.212   8.611   5.420
67549SOL    HW1 4486  11.223   8.631   5.327
67549SOL    HW2 4487  11.205   8.515   5.423
67550SOL     OW 4488   5.942   8.797   0.051
67550SOL    HW1 4489   5.873   8.740   0.086
67550SOL    HW2 4490   5.924   8.802  14.840
67551SOL     OW 4491   9.338   5.374   4.362
67551SOL    HW1 4492   9.348   5.310   4.291
67551SOL    HW2 4493   9.290   5.326   4.430
67552SOL     OW 4494   0.373   9.037   5.994
67552SOL    HW1 4495   0.410   8.959   6.035
67552SOL    HW2 4496   0.379   9.020   5.900
67553SOL     OW 4497  14.677   1.348   2.932
67553SOL    HW1 4498  14.670   1.438   2.900
67553SOL    HW2 4499  14.757   1.315   2.892
67554SOL     OW 4500   7.910   5.007  14.490
67554SOL    HW1 4501   7.958   4.926  14.505
67554SOL    HW2 4502   7.942   5.068  14.556
67555SOL     OW 4503   1.989   3.552  10.857
67555SOL    HW1 4504   1.906   3.570  10.902
67555SOL    HW2 4505   2.010   3.634  10.812
67556SOL     OW 4506   4.231   6.246   4.579
67556SOL    HW1 4507   4.237   6.301   4.501
67556SOL    HW2 4508   4.287   6.289   4.643
67557SOL     OW 4509   7.417   3.658   2.126
67557SOL    HW1 4510   7.412   3.708   2.207
67557SOL    HW2 4511   7.366   3.579   2.144
67558SOL     OW 4512  10.141  13.654   6.893
67558SOL    HW1 4513  10.230  13.689   6.891
67558SOL    HW2 4514  10.089  13.721   6.936
67559SOL     OW 4515   5.813  12.882   0.450
67559SOL    HW1 4516   5.739  12.821   0.441
67559SOL    HW2 4517   5.774  12.963   0.483
67560SOL     OW 4518   5.767   8.655  13.820
67560SOL    HW1 4519   5.739   8.686  13.906
67560SOL    HW2 4520   5.685   8.640  13.772
67561SOL     OW 4521  10.540  12.843  12.474
67561SOL    HW1 4522  10.483  12.770  12.501
67561SOL    HW2 4523  10.536  12.904  12.547
67562SOL     OW 4524   2.381   0.859   3.757
67562SOL    HW1 4525   2.380   0.866   3.661
67562SOL    HW2 4526   2.311   0.916   3.786
67563SOL     OW 4527   9.030   3.194   4.670
67563SOL    HW1 4528   8.945   3.238   4.670
67563SOL    HW2 4529   9.018   3.121   4.609
67564SOL     OW 4530   1.044   7.593   2.399
67564SOL    HW1 4531   0.987   7.545   2.459
67564SOL    HW2 4532   1.123   7.540   2.392
67565SOL     OW 4533   7.217   4.269   5.349
67565SOL    HW1 4534   7.286   4.299   5.290
67565SOL    HW2 4535   7.183   4.349   5.390
67566SOL     OW 4536   5.315  10.685  14.408
67566SOL    HW1 4537   5.310  10.596  14.442
67566SOL    HW2 4538   5.328  10.740  14.485
67567SOL     OW 4539   5.660   4.072   7.450
67567SOL    HW1 4540   5.633   4.161   7.428
67567SOL    HW2 4541   5.752   4.068   7.424
67568SOL     OW 4542   9.027   6.531  11.429
67568SOL    HW1 4543   8.939   6.532  11.391
67568SOL    HW2 4544   9.060   6.620  11.415
67569SOL     OW 4545  12.961   9.002   9.737
67569SOL    HW1 4546  13.014   9.004   9.816
67569SOL    HW2 4547  12.953   8.909   9.716
67570SOL     OW 4548   0.303   0.394   6.760
67570SOL    HW1 4549   0.302   0.457   6.688
67570SOL    HW2 4550   0.318   0.310   6.717
67571SOL     OW 4551   5.878  12.416   2.844
67571SOL    HW1 4552   5.961  12.379   2.877
67571SOL    HW2 4553   5.811  12.379   2.902
67572SOL     OW 4554   6.433  13.583   9.745
67572SOL    HW1 4555   6.384  13.540   9.814
67572SOL    HW2 4556   6.373  13.650   9.711
67573SOL     OW 4557   7.010   5.352  12.986
67573SOL    HW1 4558   7.004   5.270  12.937
67573SOL    HW2 4559   6.930   5.399  12.966
67574SOL     OW 4560   5.725   7.867   9.858
67574SOL    HW1 4561   5.787   7.914   9.913
67574SOL    HW2 4562   5.739   7.775   9.879
67575SOL     OW 4563   9.401   0.426   5.066
67575SOL    HW1 4564   9.453   0.415   5.146
67575SOL    HW2 4565   9.330   0.484   5.092
67576SOL     OW 4566   2.950   0.424  13.331
67576SOL    HW1 4567   3.030   0.467  13.361
67576SOL    HW2 4568   2.879   0.466  13.380
67577SOL     OW 4569   4.901   1.783   7.522
67577SOL    HW1 4570   4.849   1.825   7.590
67577SOL    HW2 4571   4.905   1.847   7.451
67578SOL     OW 4572  13.637  11.305  11.944
67578SOL    HW1 4573  13.710  11.248  11.968
67578SOL    HW2 4574  13.675  11.393  11.943
67579SOL     OW 4575   3.164   8.034  10.158
67579SOL    HW1 4576   3.253   8.024  10.125
67579SOL    HW2 4577   3.139   8.123  10.133
67580SOL     OW 4578   4.163   2.882   8.983
67580SOL    HW1 4579   4.117   2.800   8.966
67580SOL    HW2 4580   4.252   2.855   9.007
67581SOL     OW 4581   5.657   4.192   8.201
67581SOL    HW1 4582   5.657   4.279   8.241
67581SOL    HW2 4583   5.596   4.199   8.128
67582SOL     OW 4584  13.846   6.564  11.007
67582SOL    HW1 4585  13.894   6.620  11.067
67582SOL    HW2 4586  13.792   6.624  10.955
67583SOL     OW 4587   6.503   3.746  12.775
67583SOL    HW1 4588   6.433   3.749  12.709
67583SOL    HW2 4589   6.552   3.666  12.754
67584SOL     OW 4590   4.123   6.233   5.987
67584SOL    HW1 4591   4.085   6.168   6.046
67584SOL    HW2 4592   4.194   6.273   6.037
67585SOL     OW 4593   7.146   8.046   4.795
67585SOL    HW1 4594   7.065   8.057   4.846
67585SOL    HW2 4595   7.157   8.129   4.750
67586SOL     OW 4596  11.266  14.527  12.470
67586SOL    HW1 4597  11.245  14.615  12.440
67586SOL    HW2 4598  11.240  14.526  12.562
67587SOL     OW 4599  12.189   7.728   7.354
67587SOL    HW1 4600  12.150   7.645   7.328
67587SOL    HW2 4601  12.120   7.774   7.402
67588SOL     OW 4602   0.300   4.912   1.172
67588SOL    HW1 4603   0.303   4.838   1.112
67588SOL    HW2 4604   0.374   4.967   1.147
67589SOL     OW 4605   4.090  13.900  13.801
67589SOL    HW1 4606   4.164  13.929  13.748
67589SOL    HW2 4607   4.119  13.912  13.891
67590SOL     OW 4608   1.100   5.844   0.504
67590SOL    HW1 4609   1.084   5.762   0.459
67590SOL    HW2 4610   1.075   5.912   0.441
67591SOL     OW 4611  12.441  13.475   1.451
67591SOL    HW1 4612  12.457  13.569   1.461
67591SOL    HW2 4613  12.490  13.451   1.372
67592SOL     OW 4614   9.204  13.253   3.670
67592SOL    HW1 4615   9.262  13.228   3.598
67592SOL    HW2 4616   9.128  13.195   3.660
67593SOL     OW 4617  13.792  13.180   8.541
67593SOL    HW1 4618  13.823  13.091   8.523
67593SOL    HW2 4619  13.872  13.230   8.560
67594SOL     OW 4620   9.128   1.060   8.937
67594SOL    HW1 4621   9.130   0.999   9.010
67594SOL    HW2 4622   9.185   1.021   8.871
67595SOL     OW 4623   4.124   3.818  13.112
67595SOL    HW1 4624   4.169   3.829  13.195
67595SOL    HW2 4625   4.192   3.829  13.046
67596SOL     OW 4626   9.193   9.922   7.361
67596SOL    HW1 4627   9.265   9.973   7.324
67596SOL    HW2 4628   9.173   9.856   7.295
67597SOL     OW 4629   4.630  13.551  11.464
67597SOL    HW1 4630   4.655  13.622  11.523
67597SOL    HW2 4631   4.591  13.485  11.520
67598SOL     OW 4632  10.957   5.551  12.595
67598SOL    HW1 4633  10.968   5.646  12.602
67598SOL    HW2 4634  10.862   5.539  12.586
67599SOL     OW 4635   2.975   4.285   5.342
67599SOL    HW1 4636   2.924   4.246   5.413
67599SOL    HW2 4637   2.921   4.359   5.312
67600SOL     OW 4638   2.200   9.029  11.704
67600SOL    HW1 4639   2.197   8.980  11.786
67600SOL    HW2 4640   2.200   8.962  11.635
67601SOL     OW 4641  10.372   0.738  14.318
67601SOL    HW1 4642  10.431   0.725  14.244
67601SOL    HW2 4643  10.292   0.772  14.279
67602SOL     OW 4644   6.887   5.902   6.630
67602SOL    HW1 4645   6.891   5.964   6.558
67602SOL    HW2 4646   6.797   5.909   6.662
67603SOL     OW 4647  13.812   7.261  10.133
67603SOL    HW1 4648  13.718   7.252  10.119
67603SOL    HW2 4649  13.821   7.344  10.179
67604SOL     OW 4650   0.551   6.945   7.125
67604SOL    HW1 4651   0.577   6.928   7.215
67604SOL    HW2 4652   0.457   6.925   7.123
67605SOL     OW 4653  13.317   2.504  10.694
67605SOL    HW1 4654  13.404   2.542  10.685
67605SOL    HW2 4655  13.318   2.427  10.637
67606SOL     OW 4656   0.526   7.154  12.358
67606SOL    HW1 4657   0.461   7.166  12.427
67606SOL    HW2 4658   0.606   7.190  12.394
67607SOL     OW 4659   7.548   6.803  11.541
67607SOL    HW1 4660   7.460   6.833  11.565
67607SOL    HW2 4661   7.536   6.759  11.457
67608SOL     OW 4662  13.171   7.776  10.562
67608SOL    HW1 4663  13.178   7.796  10.468
67608SOL    HW2 4664  13.149   7.859  10.603
67609SOL     OW 4665   6.111  13.584   3.244
67609SOL    HW1 4666   6.137  13.492   3.248
67609SOL    HW2 4667   6.023  13.582   3.207
67610SOL     OW 4668  11.810   0.743   3.952
67610SOL    HW1 4669  11.841   0.669   3.899
67610SOL    HW2 4670  11.790   0.812   3.889
67611SOL     OW 4671  13.270  12.317  14.179
67611SOL    HW1 4672  13.242  12.311  14.270
67611SOL    HW2 4673  13.233  12.239  14.137
67612SOL     OW 4674   8.801   7.183   9.541
67612SOL    HW1 4675   8.857   7.254   9.510
67612SOL    HW2 4676   8.821   7.109   9.483
67613SOL     OW 4677   4.040  14.015   4.834
67613SOL    HW1 4678   4.020  14.017   4.927
67613SOL    HW2 4679   4.133  14.036   4.828
67614SOL     OW 4680   2.701   9.799   5.216
67614SOL    HW1 4681   2.699   9.895   5.213
67614SOL    HW2 4682   2.616   9.772   5.181
67615SOL     OW 4683   1.324  10.939   1.449
67615SOL    HW1 4684   1.358  11.017   1.492
67615SOL    HW2 4685   1.377  10.867   1.485
67616SOL     OW 4686  13.511   6.983   6.699
67616SOL    HW1 4687  13.441   6.973   6.764
67616SOL    HW2 4688  13.509   7.076   6.676
67617SOL     OW 4689   2.922  12.888  13.270
67617SOL    HW1 4690   2.973  12.818  13.228
67617SOL    HW2 4691   2.951  12.968  13.226
67618SOL     OW 4692   8.598   6.673  13.733
67618SOL    HW1 4693   8.609   6.642  13.823
67618SOL    HW2 4694   8.617   6.767  13.738
67619SOL     OW 4695   0.361   2.398   0.894
67619SOL    HW1 4696   0.270   2.421   0.874
67619SOL    HW2 4697   0.403   2.389   0.809
67620SOL     OW 4698   6.665   5.538   9.003
67620SOL    HW1 4699   6.623   5.614   8.963
67620SOL    HW2 4700   6.611   5.464   8.975
67621SOL     OW 4701   7.286   4.961  12.764
67621SOL    HW1 4702   7.220   5.007  12.816
67621SOL    HW2 4703   7.251   4.960  12.675
67622SOL     OW 4704   4.213   1.815   9.337
67622SOL    HW1 4705   4.249   1.888   9.387
67622SOL    HW2 4706   4.118   1.825   9.343
67623SOL     OW 4707   4.127   7.728  13.710
67623SOL    HW1 4708   4.033   7.713  13.725
67623SOL    HW2 4709   4.167   7.642  13.721
67624SOL     OW 4710   5.378   6.316   2.349
67624SOL    HW1 4711   5.379   6.274   2.262
67624SOL    HW2 4712   5.470   6.335   2.366
67625SOL     OW 4713   9.876   6.816   5.097
67625SOL    HW1 4714   9.853   6.741   5.042
67625SOL    HW2 4715   9.907   6.882   5.035
67626SOL     OW 4716   6.937   3.687   6.346
67626SOL    HW1 4717   6.927   3.596   6.374
67626SOL    HW2 4718   7.021   3.689   6.300
67627SOL     OW 4719  12.099  13.379   0.356
67627SOL    HW1 4720  12.161  13.396   0.285
67627SOL    HW2 4721  12.122  13.293   0.389
67628SOL     OW 4722   0.935   4.863   6.312
67628SOL    HW1 4723   0.871   4.930   6.287
67628SOL    HW2 4724   0.902   4.827   6.394
67629SOL     OW 4725   3.346   4.898   3.235
67629SOL    HW1 4726   3.323   4.860   3.320
67629SOL    HW2 4727   3.352   4.822   3.176
67630SOL     OW 4728   2.010   9.131   3.935
67630SOL    HW1 4729   1.941   9.187   3.900
67630SOL    HW2 4730   1.983   9.042   3.910
67631SOL     OW 4731   2.473   5.543   1.464
67631SOL    HW1 4732   2.438   5.548   1.553
67631SOL    HW2 4733   2.422   5.475   1.421
67632SOL     OW 4734  14.741  14.670  11.801
67632SOL    HW1 4735  14.788  14.709  11.727
67632SOL    HW2 4736  14.649  14.673  11.776
67633SOL     OW 4737   7.099   4.947   9.411
67633SOL    HW1 4738   7.172   4.890   9.436
67633SOL    HW2 4739   7.066   4.909   9.329
67634SOL     OW 4740   6.046  14.167   5.385
67634SOL    HW1 4741   6.131  14.185   5.426
67634SOL    HW2 4742   6.005  14.103   5.442
67635SOL     OW 4743  13.174   2.146   2.259
67635SOL    HW1 4744  13.092   2.103   2.237
67635SOL    HW2 4745  13.229   2.076   2.295
67636SOL     OW 4746   6.389   4.873   3.950
67636SOL    HW1 4747   6.323   4.904   3.888
67636SOL    HW2 4748   6.430   4.799   3.906
67637SOL     OW 4749   3.675   4.276  11.536
67637SOL    HW1 4750   3.665   4.246  11.626
67637SOL    HW2 4751   3.743   4.344  11.541
67638SOL     OW 4752   3.927  11.375   2.648
67638SOL    HW1 4753   3.936  11.305   2.584
67638SOL    HW2 4754   3.836  11.404   2.639
67639SOL     OW 4755  12.667  10.570  11.090
67639SOL    HW1 4756  12.696  10.525  11.011
67639SOL    HW2 4757  12.607  10.508  11.131
67640SOL     OW 4758  10.193  13.658  12.031
67640SOL    HW1 4759  10.229  13.669  12.119
67640SOL    HW2 4760  10.256  13.700  11.973
67641SOL     OW 4761   2.078   4.404   2.921
67641SOL    HW1 4762   2.009   4.391   2.857
67641SOL    HW2 4763   2.040   4.375   3.004
67642SOL     OW 4764  13.615   9.391   7.201
67642SOL    HW1 4765  13.658   9.321   7.152
67642SOL    HW2 4766  13.619   9.467   7.142
67643SOL     OW 4767   9.187  12.919   7.020
67643SOL    HW1 4768   9.192  12.873   7.103
67643SOL    HW2 4769   9.106  12.887   6.979
67644SOL     OW 4770  11.802  10.616  14.862
67644SOL    HW1 4771  11.776  10.611   0.072
67644SOL    HW2 4772  11.838  10.530  14.842
67645SOL     OW 4773   4.993   9.348   1.926
67645SOL    HW1 4774   4.961   9.276   1.871
67645SOL    HW2 4775   5.035   9.304   2.000
67646SOL     OW 4776   9.986   6.989   1.376
67646SOL    HW1 4777   9.906   6.958   1.333
67646SOL    HW2 4778   9.960   7.071   1.417
67647SOL     OW 4779   2.559   3.418  13.345
67647SOL    HW1 4780   2.647   3.420  13.306
67647SOL    HW2 4781   2.557   3.494  13.404
67648SOL     OW 4782  11.901  14.799   7.970
67648SOL    HW1 4783  11.841  14.864   7.931
67648SOL    HW2 4784  11.881  14.801   8.063
67649SOL     OW 4785  11.918   3.402  11.215
67649SOL    HW1 4786  11.966   3.320  11.220
67649SOL    HW2 4787  11.952   3.445  11.136
67650SOL     OW 4788  12.461   9.386   6.773
67650SOL    HW1 4789  12.446   9.395   6.679
67650SOL    HW2 4790  12.551   9.418   6.785
67651SOL     OW 4791  14.666   4.369  11.268
67651SOL    HW1 4792  14.748   4.348  11.224
67651SOL    HW2 4793  14.663   4.309  11.343
67652SOL     OW 4794   7.763   9.660   5.479
67652SOL    HW1 4795   7.832   9.603   5.512
67652SOL    HW2 4796   7.728   9.612   5.403
67653SOL     OW 4797  13.324   8.528   8.191
67653SOL    HW1 4798  13.229   8.521   8.199
67653SOL    HW2 4799  13.342   8.621   8.203
67654SOL     OW 4800  10.291   6.982   7.495
67654SOL    HW1 4801  10.312   6.955   7.406
67654SOL    HW2 4802  10.366   6.954   7.547
67655SOL     OW 4803   6.669   1.145   1.961
67655SOL    HW1 4804   6.755   1.144   2.003
67655SOL    HW2 4805   6.636   1.234   1.976
67656SOL     OW 4806  14.839   5.991  14.201
67656SOL    HW1 4807  14.808   5.965  14.114
67656SOL    HW2 4808  14.860   6.084  14.193
67657SOL     OW 4809   6.167   1.939  10.291
67657SOL    HW1 4810   6.255   1.904  10.305
67657SOL    HW2 4811   6.180   2.019  10.241
67658SOL     OW 4812   5.603  13.239   3.883
67658SOL    HW1 4813   5.651  13.197   3.954
67658SOL    HW2 4814   5.511  13.218   3.901
67659SOL     OW 4815   4.059   4.224   7.438
67659SOL    HW1 4816   4.057   4.306   7.489
67659SOL    HW2 4817   4.038   4.251   7.349
67660SOL     OW 4818   4.476   6.388   2.109
67660SOL    HW1 4819   4.463   6.300   2.145
67660SOL    HW2 4820   4.468   6.377   2.014
67661SOL     OW 4821   3.959  12.762   9.529
67661SOL    HW1 4822   3.886  12.704   9.504
67661SOL    HW2 4823   4.037  12.713   9.505
67662SOL     OW 4824   8.644   1.481   5.803
67662SOL    HW1 4825   8.663   1.404   5.858
67662SOL    HW2 4826   8.700   1.550   5.838
67663SOL     OW 4827   9.986  10.764   3.611
67663SOL    HW1 4828   9.982  10.771   3.706
67663SOL    HW2 4829  10.080  10.769   3.590
67664SOL     OW 4830   9.744   6.799   0.245
67664SOL    HW1 4831   9.800   6.870   0.275
67664SOL    HW2 4832   9.696   6.836   0.171
67665SOL     OW 4833   2.366  13.853   5.471
67665SOL    HW1 4834   2.401  13.797   5.402
67665SOL    HW2 4835   2.444  13.886   5.516
67666SOL     OW 4836   4.497   5.061  12.635
67666SOL    HW1 4837   4.467   5.151  12.631
67666SOL    HW2 4838   4.535   5.045  12.548
67667SOL     OW 4839   2.424   5.031   1.986
67667SOL    HW1 4840   2.365   5.050   1.914
67667SOL    HW2 4841   2.391   5.082   2.059
67668SOL     OW 4842   6.343  11.534   6.794
67668SOL    HW1 4843   6.346  11.490   6.879
67668SOL    HW2 4844   6.310  11.468   6.733
67669SOL     OW 4845   5.506   4.737  13.560
67669SOL    HW1 4846   5.469   4.825  13.554
67669SOL    HW2 4847   5.448   4.691  13.621
67670SOL     OW 4848  14.528   7.839  10.663
67670SOL    HW1 4849  14.614   7.850  10.621
67670SOL    HW2 4850  14.476   7.791  10.599
67671SOL     OW 4851  11.854   3.462   4.744
67671SOL    HW1 4852  11.920   3.424   4.686
67671SOL    HW2 4853  11.772   3.421   4.718
67672SOL     OW 4854  10.619   9.970   6.624
67672SOL    HW1 4855  10.692   9.940   6.679
67672SOL    HW2 4856  10.661  10.021   6.554
67673SOL     OW 4857  11.143  10.208   3.924
67673SOL    HW1 4858  11.156  10.301   3.940
67673SOL    HW2 4859  11.222  10.180   3.877
67674SOL     OW 4860   2.599   3.945   1.119
67674SOL    HW1 4861   2.581   4.014   1.055
67674SOL    HW2 4862   2.594   3.990   1.204
67675SOL     OW 4863   2.797   5.733  11.673
67675SOL    HW1 4864   2.787   5.822  11.641
67675SOL    HW2 4865   2.891   5.721  11.681
67676SOL     OW 4866   2.147  14.292   5.601
67676SOL    HW1 4867   2.077  14.336   5.552
67676SOL    HW2 4868   2.228  14.324   5.562
67677SOL     OW 4869   5.370  13.161  14.095
67677SOL    HW1 4870   5.365  13.090  14.031
67677SOL    HW2 4871   5.307  13.226  14.064
67678SOL     OW 4872  10.400   8.844  12.748
67678SOL    HW1 4873  10.332   8.890  12.700
67678SOL    HW2 4874  10.360   8.761  12.774
67679SOL     OW 4875  10.529  11.634   8.892
67679SOL    HW1 4876  10.467  11.571   8.930
67679SOL    HW2 4877  10.487  11.719   8.906
67680SOL     OW 4878  10.299   7.428   6.961
67680SOL    HW1 4879  10.303   7.463   6.872
67680SOL    HW2 4880  10.215   7.382   6.966
67681SOL     OW 4881   5.191   2.826   7.364
67681SOL    HW1 4882   5.226   2.781   7.286
67681SOL    HW2 4883   5.253   2.897   7.380
67682SOL     OW 4884   9.508  13.911   5.224
67682SOL    HW1 4885   9.451  13.923   5.148
67682SOL    HW2 4886   9.582  13.970   5.208
67683SOL     OW 4887  10.419   7.652  10.206
67683SOL    HW1 4888  10.513   7.657  10.185
67683SOL    HW2 4889  10.406   7.716  10.276
67684SOL     OW 4890   6.039   8.305  11.362
67684SOL    HW1 4891   5.984   8.227  11.353
67684SOL    HW2 4892   6.008   8.348  11.442
67685SOL     OW 4893   0.606  12.043   4.017
67685SOL    HW1 4894   0.605  12.045   3.922
67685SOL    HW2 4895   0.689  12.001   4.040
67686SOL     OW 4896  11.850   8.538   9.258
67686SOL    HW1 4897  11.813   8.599   9.322
67686SOL    HW2 4898  11.804   8.559   9.176
67687SOL     OW 4899   8.105   8.563   5.947
67687SOL    HW1 4900   8.163   8.638   5.964
67687SOL    HW2 4901   8.090   8.566   5.853
67688SOL     OW 4902  10.544   9.047  11.125
67688SOL    HW1 4903  10.599   9.005  11.191
67688SOL    HW2 4904  10.454   9.029  11.153
67689SOL     OW 4905   5.397   5.775   0.639
67689SOL    HW1 4906   5.351   5.697   0.673
67689SOL    HW2 4907   5.490   5.756   0.653
67690SOL     OW 4908   2.078   8.401  10.157
67690SOL    HW1 4909   2.134   8.327  10.138
67690SOL    HW2 4910   2.080   8.454  10.077
67691SOL     OW 4911   0.141   1.533   6.022
67691SOL    HW1 4912   0.064   1.496   6.065
67691SOL    HW2 4913   0.105   1.590   5.954
67692SOL     OW 4914   2.626   0.851   9.704
67692SOL    HW1 4915   2.552   0.816   9.753
67692SOL    HW2 4916   2.623   0.807   9.619
67693SOL     OW 4917   6.766   9.829   9.053
67693SOL    HW1 4918   6.708   9.903   9.071
67693SOL    HW2 4919   6.735   9.794   8.969
67694SOL     OW 4920   6.310  14.087   1.816
67694SOL    HW1 4921   6.229  14.125   1.783
67694SOL    HW2 4922   6.341  14.030   1.746
67695SOL     OW 4923  13.746   9.115   8.200
67695SOL    HW1 4924  13.784   9.030   8.179
67695SOL    HW2 4925  13.809   9.155   8.260
67696SOL     OW 4926   0.949  10.395   7.273
67696SOL    HW1 4927   1.021  10.370   7.215
67696SOL    HW2 4928   0.916  10.312   7.308
67697SOL     OW 4929   1.571   6.779   3.865
67697SOL    HW1 4930   1.662   6.796   3.840
67697SOL    HW2 4931   1.521   6.794   3.785
67698SOL     OW 4932   1.367  14.170   1.622
67698SOL    HW1 4933   1.329  14.236   1.565
67698SOL    HW2 4934   1.459  14.194   1.629
67699SOL     OW 4935   0.450  14.378  13.638
67699SOL    HW1 4936   0.521  14.415  13.691
67699SOL    HW2 4937   0.416  14.307  13.692
67700SOL     OW 4938   6.817  12.680   5.711
67700SOL    HW1 4939   6.816  12.720   5.624
67700SOL    HW2 4940   6.861  12.744   5.767
67701SOL     OW 4941  10.571   0.840   7.870
67701SOL    HW1 4942  10.526   0.767   7.912
67701SOL    HW2 4943  10.519   0.858   7.792
67702SOL     OW 4944  13.214   2.867  11.905
67702SOL    HW1 4945  13.302   2.860  11.868
67702SOL    HW2 4946  13.189   2.958  11.892
67703SOL     OW 4947   9.033   0.907   5.870
67703SOL    HW1 4948   9.121   0.933   5.895
67703SOL    HW2 4949   9.030   0.918   5.775
67704SOL     OW 4950  12.158  10.300   8.184
67704SOL    HW1 4951  12.203  10.346   8.113
67704SOL    HW2 4952  12.226  10.244   8.223
67705SOL     OW 4953   7.291  11.895  14.149
67705SOL    HW1 4954   7.264  11.810  14.115
67705SOL    HW2 4955   7.257  11.959  14.086
67706SOL     OW 4956   4.293   4.049   0.462
67706SOL    HW1 4957   4.259   4.136   0.445
67706SOL    HW2 4958   4.345   4.058   0.542
67707SOL     OW 4959  14.508  11.563   7.332
67707SOL    HW1 4960  14.431  11.520   7.368
67707SOL    HW2 4961  14.522  11.639   7.389
67708SOL     OW 4962   0.161   4.403  12.142
67708SOL    HW1 4963   0.216   4.325  12.154
67708SOL    HW2 4964   0.093   4.374  12.081
67709SOL     OW 4965   6.197   9.300  13.737
67709SOL    HW1 4966   6.142   9.290  13.659
67709SOL    HW2 4967   6.281   9.331  13.703
67710SOL     OW 4968   7.675   7.026   4.501
67710SOL    HW1 4969   7.684   6.946   4.448
67710SOL    HW2 4970   7.698   6.998   4.590
67711SOL     OW 4971   7.575   2.149   9.263
67711SOL    HW1 4972   7.593   2.139   9.356
67711SOL    HW2 4973   7.657   2.125   9.220
67712SOL     OW 4974  14.142   9.093   9.096
67712SOL    HW1 4975  14.218   9.063   9.045
67712SOL    HW2 4976  14.150   9.188   9.098
67713SOL     OW 4977   3.487  10.504   7.280
67713SOL    HW1 4978   3.425  10.435   7.299
67713SOL    HW2 4979   3.514  10.537   7.365
67714SOL     OW 4980   5.457   4.826   8.118
67714SOL    HW1 4981   5.527   4.891   8.112
67714SOL    HW2 4982   5.439   4.801   8.027
67715SOL     OW 4983   4.384   7.835  14.623
67715SOL    HW1 4984   4.360   7.916  14.578
67715SOL    HW2 4985   4.415   7.864  14.709
67716SOL     OW 4986  13.551  14.441  11.784
67716SOL    HW1 4987  13.552  14.531  11.818
67716SOL    HW2 4988  13.588  14.448  11.696
67717SOL     OW 4989   7.864   8.810  10.921
67717SOL    HW1 4990   7.825   8.809  10.834
67717SOL    HW2 4991   7.943   8.864  10.912
67718SOL     OW 4992   9.139   1.226   3.652
67718SOL    HW1 4993   9.096   1.250   3.571
67718SOL    HW2 4994   9.162   1.309   3.694
67719SOL     OW 4995  13.739   2.431  12.099
67719SOL    HW1 4996  13.648   2.409  12.120
67719SOL    HW2 4997  13.767   2.363  12.038
67720SOL     OW 4998   4.538   0.803   6.568
67720SOL    HW1 4999   4.626   0.821   6.601
67720SOL    HW2 5000   4.551   0.773   6.478
67721SOL     OW 5001   2.109   1.437   8.065
67721SOL    HW1 5002   2.204   1.445   8.059
67721SOL    HW2 5003   2.083   1.506   8.126
67722SOL     OW 5004  10.496   1.708   3.433
67722SOL    HW1 5005  10.511   1.788   3.382
67722SOL    HW2 5006  10.467   1.740   3.518
67723SOL     OW 5007   6.459  11.170   6.251
67723SOL    HW1 5008   6.519  11.128   6.190
67723SOL    HW2 5009   6.511  11.237   6.295
67724SOL     OW 5010   5.072   0.403   4.743
67724SOL    HW1 5011   5.098   0.463   4.814
67724SOL    HW2 5012   5.019   0.336   4.787
67725SOL     OW 5013   3.129  10.907   8.442
67725SOL    HW1 5014   3.200  10.861   8.398
67725SOL    HW2 5015   3.050  10.861   8.414
67726SOL     OW 5016   9.749   1.499   2.714
67726SOL    HW1 5017   9.782   1.501   2.625
67726SOL    HW2 5018   9.825   1.472   2.767
67727SOL     OW 5019  13.342  10.766   1.529
67727SOL    HW1 5020  13.397  10.759   1.451
67727SOL    HW2 5021  13.255  10.736   1.500
67728SOL     OW 5022  14.661   7.369  13.553
67728SOL    HW1 5023  14.597   7.367  13.482
67728SOL    HW2 5024  14.609   7.390  13.631
67729SOL     OW 5025   7.702   4.157   9.153
67729SOL    HW1 5026   7.789   4.186   9.182
67729SOL    HW2 5027   7.662   4.236   9.117
67730SOL     OW 5028   8.587   2.997   9.399
67730SOL    HW1 5029   8.595   3.091   9.385
67730SOL    HW2 5030   8.578   2.960   9.311
67731SOL     OW 5031   4.178  13.183  13.036
67731SOL    HW1 5032   4.214  13.252  13.091
67731SOL    HW2 5033   4.101  13.152  13.084
67732SOL     OW 5034  12.187   2.270  14.058
67732SOL    HW1 5035  12.100   2.296  14.027
67732SOL    HW2 5036  12.172   2.236  14.146
67733SOL     OW 5037   1.495   8.802   6.860
67733SOL    HW1 5038   1.417   8.852   6.885
67733SOL    HW2 5039   1.568   8.863   6.871
67734SOL     OW 5040  11.052   7.679   8.776
67734SOL    HW1 5041  11.041   7.586   8.758
67734SOL    HW2 5042  11.145   7.689   8.794
67735SOL     OW 5043   5.709  12.920   7.544
67735SOL    HW1 5044   5.691  12.831   7.574
67735SOL    HW2 5045   5.728  12.969   7.624
67736SOL     OW 5046   0.231   0.617   2.967
67736SOL    HW1 5047   0.230   0.523   2.950
67736SOL    HW2 5048   0.273   0.625   3.052
67737SOL     OW 5049  10.162   0.910   5.601
67737SOL    HW1 5050  10.216   0.898   5.523
67737SOL    HW2 5051  10.103   0.834   5.600
67738SOL     OW 5052  13.811   3.407  13.267
67738SOL    HW1 5053  13.870   3.480  13.281
67738SOL    HW2 5054  13.745   3.441  13.207
67739SOL     OW 5055   8.841  10.707   3.137
67739SOL    HW1 5056   8.912  10.709   3.072
67739SOL    HW2 5057   8.803  10.795   3.133
67740SOL     OW 5058  13.811  13.636  12.160
67740SOL    HW1 5059  13.839  13.675  12.078
67740SOL    HW2 5060  13.772  13.552  12.134
67741SOL     OW 5061   7.615   5.243   6.913
67741SOL    HW1 5062   7.637   5.151   6.933
67741SOL    HW2 5063   7.674   5.294   6.969
67742SOL     OW 5064  11.407   1.579   6.679
67742SOL    HW1 5065  11.369   1.519   6.614
67742SOL    HW2 5066  11.367   1.551   6.762
67743SOL     OW 5067   1.746   8.869  10.071
67743SOL    HW1 5068   1.810   8.938  10.089
67743SOL    HW2 5069   1.746   8.814  10.149
67744SOL     OW 5070   9.100  11.415   2.409
67744SOL    HW1 5071   9.103  11.487   2.472
67744SOL    HW2 5072   9.007  11.392   2.403
67745SOL     OW 5073   3.591   9.213  12.252
67745SOL    HW1 5074   3.559   9.256  12.172
67745SOL    HW2 5075   3.591   9.283  12.317
67746SOL     OW 5076  13.681   3.617   1.798
67746SOL    HW1 5077  13.652   3.652   1.714
67746SOL    HW2 5078  13.682   3.693   1.856
67747SOL     OW 5079  13.669   0.923  11.036
67747SOL    HW1 5080  13.677   0.876  10.952
67747SOL    HW2 5081  13.616   1.000  11.015
67748SOL     OW 5082   5.954   3.778   6.862
67748SOL    HW1 5083   6.015   3.734   6.921
67748SOL    HW2 5084   5.948   3.721   6.786
67749SOL     OW 5085   4.532   1.486   6.638
67749SOL    HW1 5086   4.562   1.444   6.719
67749SOL    HW2 5087   4.613   1.497   6.587
67750SOL     OW 5088   6.253   3.943   6.528
67750SOL    HW1 5089   6.217   3.998   6.597
67750SOL    HW2 5090   6.250   3.854   6.564
67751SOL     OW 5091  14.153   5.654   1.094
67751SOL    HW1 5092  14.245   5.667   1.115
67751SOL    HW2 5093  14.113   5.630   1.178
67752SOL     OW 5094  13.712  10.951   0.544
67752SOL    HW1 5095  13.673  10.937   0.631
67752SOL    HW2 5096  13.775  11.022   0.557
67753SOL     OW 5097  13.371   8.071   8.720
67753SOL    HW1 5098  13.463   8.093   8.707
67753SOL    HW2 5099  13.323   8.134   8.667
67754SOL     OW 5100   8.121   8.836   4.651
67754SOL    HW1 5101   8.038   8.882   4.661
67754SOL    HW2 5102   8.110   8.785   4.570
67755SOL     OW 5103  13.048   9.222   6.573
67755SOL    HW1 5104  12.972   9.245   6.627
67755SOL    HW2 5105  13.060   9.298   6.515
67756SOL     OW 5106   5.668   9.940  14.275
67756SOL    HW1 5107   5.626  10.025  14.291
67756SOL    HW2 5108   5.751   9.962  14.232
67757SOL     OW 5109   4.816   4.957   0.347
67757SOL    HW1 5110   4.757   4.883   0.331
67757SOL    HW2 5111   4.842   4.948   0.439
67758SOL     OW 5112   4.710   0.977   2.258
67758SOL    HW1 5113   4.674   0.971   2.170
67758SOL    HW2 5114   4.741   1.067   2.266
67759SOL     OW 5115   2.215   7.332  13.170
67759SOL    HW1 5116   2.193   7.378  13.251
67759SOL    HW2 5117   2.246   7.401  13.111
67760SOL     OW 5118  10.870   4.132   4.808
67760SOL    HW1 5119  10.934   4.171   4.748
67760SOL    HW2 5120  10.850   4.046   4.771
67761SOL     OW 5121   6.898  10.926  12.873
67761SOL    HW1 5122   6.818  10.875  12.887
67761SOL    HW2 5123   6.875  10.989  12.805
67762SOL     OW 5124   9.778   0.699  13.585
67762SOL    HW1 5125   9.737   0.786  13.579
67762SOL    HW2 5126   9.872   0.716  13.583
67763SOL     OW 5127   2.228   4.531   7.182
67763SOL    HW1 5128   2.175   4.451   7.182
67763SOL    HW2 5129   2.182   4.589   7.122
67764SOL     OW 5130   6.704   8.018   3.453
67764SOL    HW1 5131   6.756   7.997   3.375
67764SOL    HW2 5132   6.707   7.939   3.506
67765SOL     OW 5133   0.271   4.145   5.403
67765SOL    HW1 5134   0.303   4.189   5.482
67765SOL    HW2 5135   0.337   4.078   5.385
67766SOL     OW 5136   0.262  11.060   9.669
67766SOL    HW1 5137   0.199  11.003   9.713
67766SOL    HW2 5138   0.259  11.033   9.578
67767SOL     OW 5139  11.922   1.902  11.427
67767SOL    HW1 5140  11.891   1.923  11.338
67767SOL    HW2 5141  12.005   1.857  11.413
67768SOL     OW 5142   7.521  11.152  13.935
67768SOL    HW1 5143   7.556  11.219  13.994
67768SOL    HW2 5144   7.599  11.105  13.904
67769SOL     OW 5145   2.964  13.947   6.765
67769SOL    HW1 5146   2.930  13.873   6.715
67769SOL    HW2 5147   2.896  14.015   6.756
67770SOL     OW 5148  14.746  11.490  13.711
67770SOL    HW1 5149  14.741  11.583  13.729
67770SOL    HW2 5150  14.744  11.448  13.797
67771SOL     OW 5151   2.750   2.604   9.614
67771SOL    HW1 5152   2.726   2.524   9.566
67771SOL    HW2 5153   2.720   2.588   9.703
67772SOL     OW 5154  13.377  10.591  12.854
67772SOL    HW1 5155  13.389  10.520  12.791
67772SOL    HW2 5156  13.285  10.616  12.845
67773SOL     OW 5157   3.458   6.286  10.710
67773SOL    HW1 5158   3.422   6.197  10.717
67773SOL    HW2 5159   3.421   6.320  10.629
67774SOL     OW 5160   3.856   0.734   0.283
67774SOL    HW1 5161   3.912   0.671   0.237
67774SOL    HW2 5162   3.882   0.727   0.375
67775SOL     OW 5163  14.725   6.305  11.398
67775SOL    HW1 5164  14.698   6.392  11.368
67775SOL    HW2 5165  14.650   6.248  11.377
67776SOL     OW 5166   3.129   5.219  14.843
67776SOL    HW1 5167   3.093   5.162   0.028
67776SOL    HW2 5168   3.066   5.217  14.772
67777SOL     OW 5169   4.132   0.032   6.783
67777SOL    HW1 5170   4.201   0.096   6.767
67777SOL    HW2 5171   4.142   0.009   6.876
67778SOL     OW 5172   7.135   3.658  10.015
67778SOL    HW1 5173   7.114   3.713   9.939
67778SOL    HW2 5174   7.086   3.697  10.087
67779SOL     OW 5175   6.924   7.633  14.254
67779SOL    HW1 5176   7.003   7.673  14.291
67779SOL    HW2 5177   6.857   7.701  14.261
67780SOL     OW 5178   5.212  11.881   0.108
67780SOL    HW1 5179   5.122  11.877   0.141
67780SOL    HW2 5180   5.206  11.932   0.028
67781SOL     OW 5181  10.049   8.147   2.148
67781SOL    HW1 5182  10.102   8.224   2.170
67781SOL    HW2 5183  10.070   8.084   2.216
67782SOL     OW 5184   5.804   6.660   3.416
67782SOL    HW1 5185   5.780   6.674   3.508
67782SOL    HW2 5186   5.899   6.653   3.418
67783SOL     OW 5187  14.704   6.185   4.227
67783SOL    HW1 5188  14.692   6.102   4.182
67783SOL    HW2 5189  14.797   6.206   4.214
67784SOL     OW 5190   6.916  12.195   5.136
67784SOL    HW1 5191   6.823  12.216   5.129
67784SOL    HW2 5192   6.918  12.104   5.166
67785SOL     OW 5193   3.991   6.679  12.899
67785SOL    HW1 5194   4.050   6.754  12.896
67785SOL    HW2 5195   3.985   6.657  12.992
67786SOL     OW 5196   3.260  10.294   4.961
67786SOL    HW1 5197   3.322  10.221   4.959
67786SOL    HW2 5198   3.240  10.306   5.054
67787SOL     OW 5199   0.911   2.021   4.637
67787SOL    HW1 5200   0.823   1.991   4.613
67787SOL    HW2 5201   0.901   2.115   4.652
67788SOL     OW 5202   4.972   3.446   5.505
67788SOL    HW1 5203   5.051   3.497   5.486
67788SOL    HW2 5204   5.002   3.355   5.510
67789SOL     OW 5205  12.082   1.868   8.596
67789SOL    HW1 5206  12.071   1.928   8.523
67789SOL    HW2 5207  12.007   1.808   8.589
67790SOL     OW 5208  13.203   4.217   6.746
67790SOL    HW1 5209  13.174   4.127   6.738
67790SOL    HW2 5210  13.163   4.249   6.827
67791SOL     OW 5211   2.504   2.344   7.112
67791SOL    HW1 5212   2.497   2.248   7.115
67791SOL    HW2 5213   2.414   2.373   7.096
67792SOL     OW 5214   3.066  10.637  13.584
67792SOL    HW1 5215   3.157  10.665  13.586
67792SOL    HW2 5216   3.018  10.705  13.632
67793SOL     OW 5217   3.916   2.166  11.999
67793SOL    HW1 5218   3.911   2.070  12.004
67793SOL    HW2 5219   3.827   2.194  11.981
67794SOL     OW 5220   2.577   6.109  13.683
67794SOL    HW1 5221   2.644   6.075  13.624
67794SOL    HW2 5222   2.627   6.159  13.748
67795SOL     OW 5223  13.803   4.476  14.646
67795SOL    HW1 5224  13.883   4.525  14.661
67795SOL    HW2 5225  13.763   4.467  14.733
67796SOL     OW 5226   7.998   1.269  10.821
67796SOL    HW1 5227   7.970   1.202  10.884
67796SOL    HW2 5228   7.970   1.352  10.860
67797SOL     OW 5229   2.648   0.093   1.997
67797SOL    HW1 5230   2.635   0.092   2.091
67797SOL    HW2 5231   2.668   0.002   1.974
67798SOL     OW 5232   0.675   5.757   5.310
67798SOL    HW1 5233   0.663   5.723   5.399
67798SOL    HW2 5234   0.765   5.791   5.309
67799SOL     OW 5235   2.093   6.842   0.636
67799SOL    HW1 5236   2.123   6.931   0.655
67799SOL    HW2 5237   2.107   6.794   0.718
67800SOL     OW 5238  13.013   7.823   1.485
67800SOL    HW1 5239  13.087   7.786   1.436
67800SOL    HW2 5240  12.945   7.756   1.478
67801SOL     OW 5241   1.049   2.132  14.736
67801SOL    HW1 5242   1.050   2.161  14.828
67801SOL    HW2 5243   0.987   2.191  14.694
67802SOL     OW 5244   2.816   8.543   2.414
67802SOL    HW1 5245   2.878   8.494   2.468
67802SOL    HW2 5246   2.838   8.518   2.324
67803SOL     OW 5247   1.838   9.418  11.772
67803SOL    HW1 5248   1.865   9.489  11.829
67803SOL    HW2 5249   1.882   9.435  11.689
67804SOL     OW 5250   3.681  11.944   2.236
67804SOL    HW1 5251   3.749  11.884   2.266
67804SOL    HW2 5252   3.680  12.014   2.302
67805SOL     OW 5253   6.551   7.175   8.050
67805SOL    HW1 5254   6.576   7.264   8.072
67805SOL    HW2 5255   6.588   7.160   7.963
67806SOL     OW 5256  10.091   2.613   8.860
67806SOL    HW1 5257  10.096   2.707   8.844
67806SOL    HW2 5258  10.031   2.581   8.793
67807SOL     OW 5259   2.451   0.753   7.085
67807SOL    HW1 5260   2.451   0.660   7.062
67807SOL    HW2 5261   2.483   0.797   7.006
67808SOL     OW 5262   9.695   2.103   2.902
67808SOL    HW1 5263   9.692   2.091   2.807
67808SOL    HW2 5264   9.631   2.172   2.919
67809SOL     OW 5265   7.083   5.815   7.353
67809SOL    HW1 5266   7.153   5.872   7.384
67809SOL    HW2 5267   7.002   5.859   7.380
67810SOL     OW 5268   2.115   9.853   1.584
67810SOL    HW1 5269   2.173   9.922   1.552
67810SOL    HW2 5270   2.049   9.899   1.636
67811SOL     OW 5271   2.398   8.814   1.607
67811SOL    HW1 5272   2.426   8.729   1.641
67811SOL    HW2 5273   2.474   8.871   1.618
67812SOL     OW 5274   9.597  13.932  12.219
67812SOL    HW1 5275   9.510  13.893  12.231
67812SOL    HW2 5276   9.580  14.019  12.185
67813SOL     OW 5277  14.084  14.130   0.482
67813SOL    HW1 5278  14.030  14.075   0.538
67813SOL    HW2 5279  14.027  14.152   0.408
67814SOL     OW 5280   0.100   2.636   7.914
67814SOL    HW1 5281   0.072   2.603   7.829
67814SOL    HW2 5282   0.044   2.591   7.977
67815SOL     OW 5283  12.420   4.583   7.345
67815SOL    HW1 5284  12.368   4.523   7.398
67815SOL    HW2 5285  12.380   4.669   7.359
67816SOL     OW 5286   3.343   5.446  10.168
67816SOL    HW1 5287   3.348   5.532  10.126
67816SOL    HW2 5288   3.434   5.421  10.181
67817SOL     OW 5289  11.259   1.823   9.373
67817SOL    HW1 5290  11.168   1.792   9.371
67817SOL    HW2 5291  11.301   1.780   9.298
67818SOL     OW 5292   9.518   6.045   0.879
67818SOL    HW1 5293   9.476   6.130   0.866
67818SOL    HW2 5294   9.562   6.051   0.963
67819SOL     OW 5295   6.160  10.223   8.409
67819SOL    HW1 5296   6.184  10.203   8.499
67819SOL    HW2 5297   6.129  10.314   8.411
67820SOL     OW 5298   0.908  11.153   0.038
67820SOL    HW1 5299   0.813  11.167   0.042
67820SOL    HW2 5300   0.926  11.129  14.829
67821SOL     OW 5301  10.439   4.138   6.325
67821SOL    HW1 5302  10.508   4.073   6.319
67821SOL    HW2 5303  10.391   4.115   6.404
67822SOL     OW 5304  11.816   1.283  12.704
67822SOL    HW1 5305  11.897   1.241  12.675
67822SOL    HW2 5306  11.755   1.268  12.632
67823SOL     OW 5307  10.827   1.004   2.114
67823SOL    HW1 5308  10.743   0.966   2.089
67823SOL    HW2 5309  10.825   1.009   2.209
67824SOL     OW 5310   3.693   6.646  12.261
67824SOL    HW1 5311   3.787   6.644  12.247
67824SOL    HW2 5312   3.674   6.735  12.288
67825SOL     OW 5313  14.622   3.314   4.455
67825SOL    HW1 5314  14.700   3.368   4.451
67825SOL    HW2 5315  14.561   3.365   4.509
67826SOL     OW 5316  13.946   9.019  13.746
67826SOL    HW1 5317  13.983   8.948  13.695
67826SOL    HW2 5318  13.892   9.068  13.684
67827SOL     OW 5319  14.066  12.850   7.485
67827SOL    HW1 5320  14.077  12.831   7.392
67827SOL    HW2 5321  13.999  12.789   7.514
67828SOL     OW 5322  14.833   1.351  12.665
67828SOL    HW1 5323  14.844   1.442  12.636
67828SOL    HW2 5324  14.812   1.302  12.586
67829SOL     OW 5325  14.306   5.975   7.328
67829SOL    HW1 5326  14.256   5.956   7.408
67829SOL    HW2 5327  14.239   6.004   7.266
67830SOL     OW 5328  14.132  10.035  14.024
67830SOL    HW1 5329  14.167  10.064  14.108
67830SOL    HW2 5330  14.066  10.101  14.001
67831SOL     OW 5331  14.480   4.544  14.416
67831SOL    HW1 5332  14.492   4.505  14.502
67831SOL    HW2 5333  14.391   4.580  14.418
67832SOL     OW 5334   2.075   7.495   9.821
67832SOL    HW1 5335   2.136   7.490   9.895
67832SOL    HW2 5336   2.125   7.461   9.747
67833SOL     OW 5337  13.616   1.980  10.571
67833SOL    HW1 5338  13.550   1.931  10.521
67833SOL    HW2 5339  13.576   2.065  10.588
67834SOL     OW 5340   4.130  14.148  11.552
67834SOL    HW1 5341   4.128  14.079  11.485
67834SOL    HW2 5342   4.147  14.228  11.503
67835SOL     OW 5343   2.340   8.669  12.640
67835SOL    HW1 5344   2.310   8.614  12.712
67835SOL    HW2 5345   2.435   8.664  12.644
67836SOL     OW 5346   4.726  12.396  13.781
67836SOL    HW1 5347   4.731  12.304  13.754
67836SOL    HW2 5348   4.735  12.394  13.876
67837SOL     OW 5349  10.430   5.136   1.266
67837SOL    HW1 5350  10.356   5.197   1.267
67837SOL    HW2 5351  10.394   5.053   1.298
67838SOL     OW 5352   5.417   8.901   2.360
67838SOL    HW1 5353   5.381   8.847   2.430
67838SOL    HW2 5354   5.432   8.986   2.401
67839SOL     OW 5355  10.340  14.221   2.757
67839SOL    HW1 5356  10.258  14.178   2.782
67839SOL    HW2 5357  10.361  14.277   2.831
67840SOL     OW 5358   8.283   6.830   7.094
67840SOL    HW1 5359   8.318   6.865   7.012
67840SOL    HW2 5360   8.235   6.903   7.133
67841SOL     OW 5361   7.081   3.246   8.691
67841SOL    HW1 5362   7.164   3.231   8.737
67841SOL    HW2 5363   7.061   3.161   8.650
67842SOL     OW 5364   7.643  10.713   3.656
67842SOL    HW1 5365   7.707  10.783   3.668
67842SOL    HW2 5366   7.650  10.660   3.736
67843SOL     OW 5367   8.438   2.009   1.146
67843SOL    HW1 5368   8.488   1.934   1.177
67843SOL    HW2 5369   8.469   2.082   1.199
67844SOL     OW 5370   2.019   8.548  10.865
67844SOL    HW1 5371   2.098   8.600  10.849
67844SOL    HW2 5372   2.002   8.504  10.782
67845SOL     OW 5373   8.486   2.726   2.460
67845SOL    HW1 5374   8.480   2.778   2.540
67845SOL    HW2 5375   8.537   2.649   2.485
67846SOL     OW 5376   6.284  12.845   9.903
67846SOL    HW1 5377   6.211  12.861   9.963
67846SOL    HW2 5378   6.322  12.763   9.935
67847SOL     OW 5379   0.390   2.207  13.130
67847SOL    HW1 5380   0.404   2.123  13.086
67847SOL    HW2 5381   0.405   2.273  13.063
67848SOL     OW 5382   1.939   0.150  11.134
67848SOL    HW1 5383   1.901   0.211  11.197
67848SOL    HW2 5384   2.030   0.138  11.164
67849SOL     OW 5385   3.608  13.569   4.428
67849SOL    HW1 5386   3.513  13.580   4.423
67849SOL    HW2 5387   3.621  13.503   4.496
67850SOL     OW 5388  13.968   5.202  12.754
67850SOL    HW1 5389  13.926   5.118  12.773
67850SOL    HW2 5390  14.060   5.180  12.738
67851SOL     OW 5391   0.614  12.823  11.228
67851SOL    HW1 5392   0.581  12.893  11.171
67851SOL    HW2 5393   0.615  12.745  11.172
67852SOL     OW 5394   6.565  13.881   9.534
67852SOL    HW1 5395   6.636  13.829   9.572
67852SOL    HW2 5396   6.602  13.919   9.454
67853SOL     OW 5397  14.866   6.566   8.184
67853SOL    HW1 5398   0.010   6.551   8.275
67853SOL    HW2 5399   0.053   6.525   8.132
67854SOL     OW 5400   6.035  14.127   0.575
67854SOL    HW1 5401   6.076  14.187   0.637
67854SOL    HW2 5402   5.968  14.082   0.625
67855SOL     OW 5403  12.090   1.551   8.184
67855SOL    HW1 5404  12.000   1.547   8.218
67855SOL    HW2 5405  12.098   1.473   8.129
67856SOL     OW 5406   5.474   5.070   8.509
67856SOL    HW1 5407   5.449   4.979   8.493
67856SOL    HW2 5408   5.391   5.118   8.504
67857SOL     OW 5409   2.877   3.651   4.519
67857SOL    HW1 5410   2.839   3.732   4.486
67857SOL    HW2 5411   2.803   3.602   4.555
67858SOL     OW 5412   5.216   6.131   6.191
67858SOL    HW1 5413   5.153   6.194   6.154
67858SOL    HW2 5414   5.270   6.184   6.250
67859SOL     OW 5415   8.983   9.721   9.358
67859SOL    HW1 5416   9.064   9.732   9.408
67859SOL    HW2 5417   8.925   9.790   9.390
67860SOL     OW 5418  13.605   9.731   5.841
67860SOL    HW1 5419  13.599   9.710   5.748
67860SOL    HW2 5420  13.513   9.734   5.871
67861SOL     OW 5421  10.328  13.469   8.801
67861SOL    HW1 5422  10.237  13.475   8.773
67861SOL    HW2 5423  10.323  13.442   8.893
67862SOL     OW 5424   9.659   0.679  11.483
67862SOL    HW1 5425   9.682   0.616  11.415
67862SOL    HW2 5426   9.625   0.625  11.555
67863SOL     OW 5427   1.234   9.934   7.245
67863SOL    HW1 5428   1.278   9.949   7.162
67863SOL    HW2 5429   1.256   9.844   7.269
67864SOL     OW 5430  12.741  12.721   5.637
67864SOL    HW1 5431  12.755  12.657   5.707
67864SOL    HW2 5432  12.681  12.677   5.576
67865SOL     OW 5433   3.718   5.747   2.551
67865SOL    HW1 5434   3.690   5.726   2.640
67865SOL    HW2 5435   3.807   5.712   2.545
67866SOL     OW 5436   2.658  11.733  13.955
67866SOL    HW1 5437   2.704  11.803  14.003
67866SOL    HW2 5438   2.571  11.769  13.938
67867SOL     OW 5439   3.718  10.093   4.746
67867SOL    HW1 5440   3.666  10.013   4.742
67867SOL    HW2 5441   3.771  10.091   4.667
67868SOL     OW 5442   1.305   1.227  11.377
67868SOL    HW1 5443   1.284   1.317  11.401
67868SOL    HW2 5444   1.395   1.214  11.409
67869SOL     OW 5445   7.229  12.804  10.824
67869SOL    HW1 5446   7.287  12.844  10.888
67869SOL    HW2 5447   7.173  12.745  10.875
67870SOL     OW 5448  13.642   6.841   0.820
67870SOL    HW1 5449  13.605   6.908   0.876
67870SOL    HW2 5450  13.587   6.764   0.834
67871SOL     OW 5451   9.614  12.198   0.414
67871SOL    HW1 5452   9.659  12.212   0.331
67871SOL    HW2 5453   9.680  12.159   0.471
67872SOL     OW 5454   4.446   1.564   1.503
67872SOL    HW1 5455   4.532   1.586   1.468
67872SOL    HW2 5456   4.454   1.472   1.529
67873SOL     OW 5457   3.749   8.505  13.023
67873SOL    HW1 5458   3.835   8.523  13.061
67873SOL    HW2 5459   3.737   8.575  12.958
67874SOL     OW 5460   7.385   8.182  14.237
67874SOL    HW1 5461   7.420   8.108  14.286
67874SOL    HW2 5462   7.291   8.177  14.251
67875SOL     OW 5463   6.824   0.876   1.043
67875SOL    HW1 5464   6.876   0.955   1.032
67875SOL    HW2 5465   6.864   0.832   1.119
67876SOL     OW 5466  11.762   7.733   3.789
67876SOL    HW1 5467  11.732   7.662   3.731
67876SOL    HW2 5468  11.750   7.813   3.738
67877SOL     OW 5469   5.498  14.401  12.070
67877SOL    HW1 5470   5.425  14.460  12.091
67877SOL    HW2 5471   5.565  14.421  12.136
67878SOL     OW 5472   9.237   4.959   4.202
67878SOL    HW1 5473   9.256   4.977   4.294
67878SOL    HW2 5474   9.307   4.900   4.174
67879SOL     OW 5475  11.647  14.531   8.778
67879SOL    HW1 5476  11.637  14.626   8.792
67879SOL    HW2 5477  11.579  14.492   8.832
67880SOL     OW 5478   5.312  10.426   1.752
67880SOL    HW1 5479   5.298  10.335   1.779
67880SOL    HW2 5480   5.401  10.426   1.716
67881SOL     OW 5481   6.421   1.332   1.428
67881SOL    HW1 5482   6.445   1.240   1.421
67881SOL    HW2 5483   6.328   1.331   1.453
67882SOL     OW 5484   6.044   4.651  10.554
67882SOL    HW1 5485   6.041   4.669  10.460
67882SOL    HW2 5486   5.985   4.716  10.593
67883SOL     OW 5487   2.661   0.634  13.085
67883SOL    HW1 5488   2.622   0.551  13.112
67883SOL    HW2 5489   2.687   0.676  13.167
67884SOL     OW 5490  13.008  13.404   6.239
67884SOL    HW1 5491  13.087  13.450   6.209
67884SOL    HW2 5492  12.991  13.339   6.171
67885SOL     OW 5493   5.311   8.691  11.981
67885SOL    HW1 5494   5.294   8.612  11.929
67885SOL    HW2 5495   5.235   8.699  12.038
67886SOL     OW 5496   6.972   1.011   1.494
67886SOL    HW1 5497   7.023   1.087   1.521
67886SOL    HW2 5498   6.998   0.942   1.555
67887SOL     OW 5499  13.635  13.867  12.827
67887SOL    HW1 5500  13.723  13.880  12.791
67887SOL    HW2 5501  13.576  13.892  12.756
67888SOL     OW 5502   3.414   1.709  10.604
67888SOL    HW1 5503   3.505   1.697  10.632
67888SOL    HW2 5504   3.362   1.659  10.666
67889SOL     OW 5505   7.745   0.727   2.020
67889SOL    HW1 5506   7.834   0.691   2.024
67889SOL    HW2 5507   7.710   0.713   2.108
67890SOL     OW 5508   2.066   9.814  12.183
67890SOL    HW1 5509   1.983   9.848  12.215
67890SOL    HW2 5510   2.099   9.759  12.255
67891SOL     OW 5511   3.852   1.923   0.980
67891SOL    HW1 5512   3.827   1.833   1.000
67891SOL    HW2 5513   3.829   1.934   0.888
67892SOL     OW 5514   6.164   7.908  13.638
67892SOL    HW1 5515   6.134   7.957  13.561
67892SOL    HW2 5516   6.148   7.968  13.711
67893SOL     OW 5517   5.513   8.578   0.152
67893SOL    HW1 5518   5.464   8.503   0.118
67893SOL    HW2 5519   5.464   8.654   0.121
67894SOL     OW 5520  10.420   5.749   1.236
67894SOL    HW1 5521  10.450   5.839   1.225
67894SOL    HW2 5522  10.457   5.702   1.161
67895SOL     OW 5523   6.288   0.589   7.213
67895SOL    HW1 5524   6.375   0.604   7.249
67895SOL    HW2 5525   6.230   0.645   7.266
67896SOL     OW 5526   4.142  14.131  14.428
67896SOL    HW1 5527   4.077  14.194  14.395
67896SOL    HW2 5528   4.226  14.168  14.402
67897SOL     OW 5529  14.302   6.953  11.416
67897SOL    HW1 5530  14.277   6.871  11.460
67897SOL    HW2 5531  14.304   7.017  11.487
67898SOL     OW 5532  14.855   4.612   9.328
67898SOL    HW1 5533  14.840   4.702   9.357
67898SOL    HW2 5534  14.843   4.615   9.233
67899SOL     OW 5535  12.178   8.753   1.490
67899SOL    HW1 5536  12.082   8.756   1.483
67899SOL    HW2 5537  12.207   8.714   1.407
67900SOL     OW 5538   9.089   4.784   1.787
67900SOL    HW1 5539   9.045   4.797   1.871
67900SOL    HW2 5540   9.031   4.725   1.739
67901SOL     OW 5541  14.162   2.581  11.141
67901SOL    HW1 5542  14.147   2.500  11.093
67901SOL    HW2 5543  14.121   2.649  11.088
67902SOL     OW 5544   8.404   0.712   8.046
67902SOL    HW1 5545   8.428   0.779   7.981
67902SOL    HW2 5546   8.404   0.759   8.129
67903SOL     OW 5547   1.244  10.304   2.791
67903SOL    HW1 5548   1.192  10.355   2.730
67903SOL    HW2 5549   1.335  10.326   2.770
67904SOL     OW 5550  13.426   1.588  14.025
67904SOL    HW1 5551  13.372   1.667  14.026
67904SOL    HW2 5552  13.506   1.614  13.979
67905SOL     OW 5553   1.550   3.685   7.806
67905SOL    HW1 5554   1.520   3.644   7.886
67905SOL    HW2 5555   1.645   3.689   7.815
67906SOL     OW 5556   6.881  13.552  10.548
67906SOL    HW1 5557   6.845  13.639  10.530
67906SOL    HW2 5558   6.858  13.535  10.640
67907SOL     OW 5559   8.058   8.103   9.663
67907SOL    HW1 5560   8.141   8.126   9.706
67907SOL    HW2 5561   7.991   8.122   9.728
67908SOL     OW 5562  12.161   1.880   8.843
67908SOL    HW1 5563  12.221   1.954   8.841
67908SOL    HW2 5564  12.131   1.870   8.752
67909SOL     OW 5565   7.624  12.189   2.525
67909SOL    HW1 5566   7.705  12.225   2.489
67909SOL    HW2 5567   7.559  12.258   2.515
67910SOL     OW 5568  12.869   8.487  12.858
67910SOL    HW1 5569  12.874   8.567  12.911
67910SOL    HW2 5570  12.960   8.465  12.838
67911SOL     OW 5571   4.397   2.453   0.602
67911SOL    HW1 5572   4.468   2.428   0.544
67911SOL    HW2 5573   4.340   2.376   0.608
67912SOL     OW 5574  13.387   6.026   5.403
67912SOL    HW1 5575  13.405   6.020   5.497
67912SOL    HW2 5576  13.305   6.074   5.398
67913SOL     OW 5577   8.636   3.886   0.565
67913SOL    HW1 5578   8.712   3.939   0.539
67913SOL    HW2 5579   8.563   3.948   0.564
67914SOL     OW 5580   4.409   4.770   1.344
67914SOL    HW1 5581   4.406   4.710   1.418
67914SOL    HW2 5582   4.394   4.713   1.267
67915SOL     OW 5583   2.849   3.154  10.478
67915SOL    HW1 5584   2.935   3.185  10.507
67915SOL    HW2 5585   2.857   3.146  10.383
67916SOL     OW 5586  12.400  13.072   9.429
67916SOL    HW1 5587  12.492  13.053   9.445
67916SOL    HW2 5588  12.386  13.047   9.338
67917SOL     OW 5589   3.990   1.710   9.683
67917SOL    HW1 5590   4.079   1.690   9.712
67917SOL    HW2 5591   3.941   1.726   9.763
67918SOL     OW 5592   7.059  13.334   7.104
67918SOL    HW1 5593   6.971  13.372   7.103
67918SOL    HW2 5594   7.074  13.314   7.197
67919SOL     OW 5595  13.122   2.680   5.702
67919SOL    HW1 5596  13.060   2.632   5.758
67919SOL    HW2 5597  13.098   2.655   5.613
67920SOL     OW 5598   1.796   0.649   8.275
67920SOL    HW1 5599   1.715   0.618   8.235
67920SOL    HW2 5600   1.785   0.744   8.281
67921SOL     OW 5601   5.821   8.507  12.530
67921SOL    HW1 5602   5.847   8.548  12.447
67921SOL    HW2 5603   5.761   8.570  12.569
67922SOL     OW 5604  12.210  13.181  12.947
67922SOL    HW1 5605  12.214  13.174  12.852
67922SOL    HW2 5606  12.299  13.200  12.974
67923SOL     OW 5607   3.333  14.491   5.563
67923SOL    HW1 5608   3.270  14.431   5.603
67923SOL    HW2 5609   3.394  14.434   5.516
67924SOL     OW 5610   1.863   9.268   9.016
67924SOL    HW1 5611   1.792   9.322   9.051
67924SOL    HW2 5612   1.933   9.331   8.998
67925SOL     OW 5613   7.821   3.364  12.029
67925SOL    HW1 5614   7.858   3.335  12.113
67925SOL    HW2 5615   7.889   3.420  11.991
67926SOL     OW 5616  14.216   8.815   6.284
67926SOL    HW1 5617  14.138   8.812   6.341
67926SOL    HW2 5618  14.233   8.723   6.264
67927SOL     OW 5619   0.656   1.243   3.593
67927SOL    HW1 5620   0.651   1.306   3.664
67927SOL    HW2 5621   0.750   1.224   3.585
67928SOL     OW 5622   7.880   7.454  12.605
67928SOL    HW1 5623   7.814   7.470  12.537
67928SOL    HW2 5624   7.960   7.438  12.556
67929SOL     OW 5625   1.968  14.128   4.039
67929SOL    HW1 5626   1.980  14.106   4.131
67929SOL    HW2 5627   1.928  14.215   4.039
67930SOL     OW 5628   1.099   7.308   5.530
67930SOL    HW1 5629   1.081   7.334   5.440
67930SOL    HW2 5630   1.078   7.215   5.534
67931SOL     OW 5631   2.705   3.823  13.307
67931SOL    HW1 5632   2.741   3.768  13.377
67931SOL    HW2 5633   2.612   3.802  13.306
67932SOL     OW 5634   0.286   8.180  14.198
67932SOL    HW1 5635   0.300   8.170  14.293
67932SOL    HW2 5636   0.374   8.178  14.161
67933SOL     OW 5637   8.730   9.376  13.048
67933SOL    HW1 5638   8.734   9.373  12.953
67933SOL    HW2 5639   8.762   9.463  13.071
67934SOL     OW 5640   9.231   0.330   0.537
67934SOL    HW1 5641   9.153   0.318   0.591
67934SOL    HW2 5642   9.221   0.265   0.467
67935SOL     OW 5643   7.797   2.611   4.090
67935SOL    HW1 5644   7.728   2.585   4.151
67935SOL    HW2 5645   7.772   2.571   4.007
67936SOL     OW 5646  11.058  11.618   0.069
67936SOL    HW1 5647  10.996  11.579   0.007
67936SOL    HW2 5648  11.083  11.702   0.029
67937SOL     OW 5649  13.159  11.462  10.073
67937SOL    HW1 5650  13.229  11.475  10.137
67937SOL    HW2 5651  13.148  11.367  10.068
67938SOL     OW 5652   4.630  11.166  13.020
67938SOL    HW1 5653   4.663  11.099  12.961
67938SOL    HW2 5654   4.584  11.117  13.089
67939SOL     OW 5655   4.626  10.894   8.407
67939SOL    HW1 5656   4.682  10.949   8.463
67939SOL    HW2 5657   4.547  10.946   8.395
67940SOL     OW 5658   4.079  12.330   2.990
67940SOL    HW1 5659   4.138  12.328   3.065
67940SOL    HW2 5660   4.105  12.408   2.941
67941SOL     OW 5661  12.248   6.087   0.845
67941SOL    HW1 5662  12.260   5.996   0.872
67941SOL    HW2 5663  12.335   6.125   0.848
67942SOL     OW 5664  12.814  13.232  11.547
67942SOL    HW1 5665  12.744  13.193  11.600
67942SOL    HW2 5666  12.785  13.219  11.456
67943SOL     OW 5667   3.628   0.314   9.929
67943SOL    HW1 5668   3.706   0.326   9.983
67943SOL    HW2 5669   3.562   0.369   9.972
67944SOL     OW 5670  13.535  10.248   4.480
67944SOL    HW1 5671  13.579  10.316   4.532
67944SOL    HW2 5672  13.603  10.212   4.424
67945SOL     OW 5673   3.224  11.899   6.114
67945SOL    HW1 5674   3.180  11.971   6.159
67945SOL    HW2 5675   3.155  11.856   6.063
67946SOL     OW 5676   8.765   0.280   7.367
67946SOL    HW1 5677   8.791   0.355   7.314
67946SOL    HW2 5678   8.838   0.218   7.358
67947SOL     OW 5679   7.437   5.138  10.924
67947SOL    HW1 5680   7.465   5.047  10.914
67947SOL    HW2 5681   7.343   5.136  10.907
67948SOL     OW 5682   7.620  10.370   4.209
67948SOL    HW1 5683   7.620  10.303   4.279
67948SOL    HW2 5684   7.658  10.447   4.250
67949SOL     OW 5685   8.303   1.921  14.832
67949SOL    HW1 5686   8.328   1.961  14.749
67949SOL    HW2 5687   8.319   1.989   0.016
67950SOL     OW 5688  10.612   3.651   2.847
67950SOL    HW1 5689  10.664   3.677   2.771
67950SOL    HW2 5690  10.636   3.713   2.916
67951SOL     OW 5691   5.694   6.326   3.674
67951SOL    HW1 5692   5.748   6.347   3.751
67951SOL    HW2 5693   5.615   6.285   3.710
67952SOL     OW 5694   8.332   1.633  14.745
67952SOL    HW1 5695   8.306   1.607  14.657
67952SOL    HW2 5696   8.253   1.670  14.784
67953SOL     OW 5697   1.094   9.598   0.768
67953SOL    HW1 5698   1.183   9.611   0.798
67953SOL    HW2 5699   1.042   9.661   0.817
67954SOL     OW 5700   6.702  14.569   3.492
67954SOL    HW1 5701   6.679  14.592   3.582
67954SOL    HW2 5702   6.796  14.551   3.496
67955SOL     OW 5703   4.416   5.857   7.635
67955SOL    HW1 5704   4.510   5.848   7.650
67955SOL    HW2 5705   4.402   5.826   7.546
67956SOL     OW 5706   3.771   3.167  11.546
67956SOL    HW1 5707   3.788   3.074  11.535
67956SOL    HW2 5708   3.676   3.176  11.537
67957SOL     OW 5709   1.155   7.165   2.553
67957SOL    HW1 5710   1.140   7.127   2.640
67957SOL    HW2 5711   1.078   7.219   2.536
67958SOL     OW 5712   3.141   4.836   6.043
67958SOL    HW1 5713   3.102   4.923   6.057
67958SOL    HW2 5714   3.166   4.807   6.131
67959SOL     OW 5715   5.739   3.424   0.261
67959SOL    HW1 5716   5.701   3.344   0.296
67959SOL    HW2 5717   5.816   3.440   0.315
67960SOL     OW 5718  11.955  12.839   8.581
67960SOL    HW1 5719  11.926  12.881   8.501
67960SOL    HW2 5720  11.885  12.778   8.604
67961SOL     OW 5721  12.685  12.960   3.880
67961SOL    HW1 5722  12.630  12.978   3.804
67961SOL    HW2 5723  12.739  12.886   3.854
67962SOL     OW 5724   4.534  10.739   8.956
67962SOL    HW1 5725   4.618  10.719   8.998
67962SOL    HW2 5726   4.480  10.662   8.970
67963SOL     OW 5727  14.777   1.558   8.799
67963SOL    HW1 5728  14.716   1.623   8.834
67963SOL    HW2 5729  14.854   1.609   8.772
67964SOL     OW 5730  14.215   3.795   6.705
67964SOL    HW1 5731  14.280   3.864   6.695
67964SOL    HW2 5732  14.155   3.828   6.773
67965SOL     OW 5733   5.100   2.995   3.438
67965SOL    HW1 5734   5.053   3.047   3.374
67965SOL    HW2 5735   5.108   3.052   3.514
67966SOL     OW 5736   6.426   5.024  12.535
67966SOL    HW1 5737   6.384   5.108  12.513
67966SOL    HW2 5738   6.380   4.994  12.614
67967SOL     OW 5739  14.780   2.869  13.810
67967SOL    HW1 5740  14.712   2.804  13.789
67967SOL    HW2 5741  14.742   2.952  13.784
67968SOL     OW 5742   2.301   1.833  14.836
67968SOL    HW1 5743   2.389   1.797  14.824
67968SOL    HW2 5744   2.315   1.915   0.002
67969SOL     OW 5745   9.484  11.051   7.228
67969SOL    HW1 5746   9.511  11.053   7.136
67969SOL    HW2 5747   9.450  10.963   7.241
67970SOL     OW 5748  12.562  12.264   5.222
67970SOL    HW1 5749  12.520  12.180   5.201
67970SOL    HW2 5750  12.602  12.250   5.308
67971SOL     OW 5751  14.772  11.745  13.788
67971SOL    HW1 5752  14.776  11.831  13.830
67971SOL    HW2 5753  14.863  11.724  13.767
67972SOL     OW 5754  12.762  10.370  11.382
67972SOL    HW1 5755  12.690  10.357  11.320
67972SOL    HW2 5756  12.718  10.392  11.465
67973SOL     OW 5757   9.135   8.677   9.547
67973SOL    HW1 5758   9.146   8.629   9.629
67973SOL    HW2 5759   9.207   8.739   9.546
67974SOL     OW 5760   6.381  13.928   0.649
67974SOL    HW1 5761   6.357  13.995   0.584
67974SOL    HW2 5762   6.455  13.965   0.695
67975SOL     OW 5763   8.504  11.370   8.208
67975SOL    HW1 5764   8.596  11.346   8.204
67975SOL    HW2 5765   8.500  11.441   8.273
67976SOL     OW 5766  11.461   4.498   7.875
67976SOL    HW1 5767  11.408   4.548   7.813
67976SOL    HW2 5768  11.499   4.563   7.933
67977SOL     OW 5769   0.166   2.621   3.766
67977SOL    HW1 5770   0.080   2.583   3.784
67977SOL    HW2 5771   0.188   2.589   3.678
67978SOL     OW 5772   8.984  11.524   7.118
67978SOL    HW1 5773   8.932  11.444   7.121
67978SOL    HW2 5774   9.015  11.530   7.028
67979SOL     OW 5775  14.258   2.343   1.946
67979SOL    HW1 5776  14.353   2.350   1.958
67979SOL    HW2 5777  14.244   2.252   1.918
67980SOL     OW 5778   5.604  14.395   3.170
67980SOL    HW1 5779   5.543  14.465   3.148
67980SOL    HW2 5780   5.660  14.386   3.093
67981SOL     OW 5781  10.020  11.859  13.180
67981SOL    HW1 5782  10.096  11.816  13.142
67981SOL    HW2 5783  10.017  11.826  13.270
67982SOL     OW 5784   5.349   1.256   1.532
67982SOL    HW1 5785   5.409   1.329   1.548
67982SOL    HW2 5786   5.375   1.223   1.446
67983SOL     OW 5787   4.682   3.407   7.247
67983SOL    HW1 5788   4.767   3.429   7.210
67983SOL    HW2 5789   4.630   3.487   7.240
67984SOL     OW 5790   2.155   9.430   7.739
67984SOL    HW1 5791   2.231   9.484   7.759
67984SOL    HW2 5792   2.080   9.481   7.771
67985SOL     OW 5793  11.584   9.397  12.278
67985SOL    HW1 5794  11.622   9.485  12.277
67985SOL    HW2 5795  11.528   9.396  12.356
67986SOL     OW 5796   2.764  11.029   0.281
67986SOL    HW1 5797   2.726  10.948   0.247
67986SOL    HW2 5798   2.690  11.077   0.318
67987SOL     OW 5799   6.790  10.776   0.190
67987SOL    HW1 5800   6.724  10.807   0.129
67987SOL    HW2 5801   6.809  10.686   0.162
67988SOL     OW 5802   1.734   2.197   0.091
67988SOL    HW1 5803   1.805   2.248   0.131
67988SOL    HW2 5804   1.765   2.178   0.002
67989SOL     OW 5805   9.308  14.701   2.631
67989SOL    HW1 5806   9.270  14.662   2.710
67989SOL    HW2 5807   9.327  14.791   2.656
67990SOL     OW 5808   2.135  13.712   7.328
67990SOL    HW1 5809   2.109  13.736   7.239
67990SOL    HW2 5810   2.202  13.776   7.351
67991SOL     OW 5811  10.221  13.283  11.114
67991SOL    HW1 5812  10.264  13.234  11.184
67991SOL    HW2 5813  10.128  13.264  11.125
67992SOL     OW 5814   9.632   4.309  14.426
67992SOL    HW1 5815   9.557   4.364  14.447
67992SOL    HW2 5816   9.706   4.355  14.466
67993SOL     OW 5817   0.305   7.700   2.051
67993SOL    HW1 5818   0.284   7.710   1.959
67993SOL    HW2 5819   0.231   7.652   2.088
67994SOL     OW 5820   4.644   8.177   3.493
67994SOL    HW1 5821   4.646   8.270   3.517
67994SOL    HW2 5822   4.570   8.141   3.541
67995SOL     OW 5823   3.904   3.684   6.064
67995SOL    HW1 5824   3.969   3.736   6.111
67995SOL    HW2 5825   3.930   3.691   5.972
67996SOL     OW 5826   1.174   0.982   5.805
67996SOL    HW1 5827   1.148   0.908   5.860
67996SOL    HW2 5828   1.189   1.054   5.866
67997SOL     OW 5829   0.082   1.178   9.332
67997SOL    HW1 5830   0.025   1.250   9.360
67997SOL    HW2 5831   0.159   1.185   9.388
67998SOL     OW 5832   6.433   9.968   8.672
67998SOL    HW1 5833   6.397  10.056   8.679
67998SOL    HW2 5834   6.418   9.928   8.758
67999SOL     OW 5835  13.246   1.999  11.366
67999SOL    HW1 5836  13.188   2.012  11.291
67999SOL    HW2 5837  13.297   1.920  11.344
68000SOL     OW 5838  14.347  14.621  13.310
68000SOL    HW1 5839  14.305  14.706  13.295
68000SOL    HW2 5840  14.438  14.633  13.284
68001SOL     OW 5841  11.831   5.422   3.207
68001SOL    HW1 5842  11.923   5.427   3.235
68001SOL    HW2 5843  11.790   5.499   3.245
68002SOL     OW 5844   9.633  10.736   9.436
68002SOL    HW1 5845   9.610  10.787   9.514
68002SOL    HW2 5846   9.685  10.797   9.383
68003SOL     OW 5847  13.800  13.044  10.020
68003SOL    HW1 5848  13.809  13.139  10.026
68003SOL    HW2 5849  13.856  13.019   9.947
68004SOL     OW 5850   1.531   7.092   5.051
68004SOL    HW1 5851   1.525   7.122   5.142
68004SOL    HW2 5852   1.500   7.167   4.999
68005SOL     OW 5853   1.351   3.541   4.615
68005SOL    HW1 5854   1.316   3.582   4.694
68005SOL    HW2 5855   1.335   3.606   4.545
68006SOL     OW 5856  12.665   0.352   6.622
68006SOL    HW1 5857  12.642   0.260   6.634
68006SOL    HW2 5858  12.584   0.400   6.640
68007SOL     OW 5859  13.314   6.624   2.533
68007SOL    HW1 5860  13.391   6.625   2.590
68007SOL    HW2 5861  13.255   6.689   2.570
68008SOL     OW 5862   7.381   5.542   0.003
68008SOL    HW1 5863   7.395   5.578  14.797
68008SOL    HW2 5864   7.412   5.452  14.879
68009SOL     OW 5865   3.144   8.549  14.840
68009SOL    HW1 5866   3.082   8.609  14.798
68009SOL    HW2 5867   3.230   8.579  14.811
68010SOL     OW 5868  10.841   1.063   8.403
68010SOL    HW1 5869  10.829   1.026   8.316
68010SOL    HW2 5870  10.911   1.128   8.391
68011SOL     OW 5871   9.455   9.466  11.784
68011SOL    HW1 5872   9.440   9.372  11.776
68011SOL    HW2 5873   9.399   9.505  11.716
68012SOL     OW 5874   6.002   8.788   2.168
68012SOL    HW1 5875   6.068   8.719   2.156
68012SOL    HW2 5876   6.025   8.854   2.104
68013SOL     OW 5877   7.253  11.707   6.416
68013SOL    HW1 5878   7.338  11.743   6.394
68013SOL    HW2 5879   7.234  11.741   6.503
68014SOL     OW 5880   5.381   1.533   3.029
68014SOL    HW1 5881   5.289   1.512   3.047
68014SOL    HW2 5882   5.378   1.611   2.975
68015SOL     OW 5883   6.359   9.219   8.926
68015SOL    HW1 5884   6.266   9.205   8.942
68015SOL    HW2 5885   6.400   9.203   9.011
68016SOL     OW 5886   3.168   5.142   7.915
68016SOL    HW1 5887   3.113   5.082   7.966
68016SOL    HW2 5888   3.140   5.131   7.825
68017SOL     OW 5889   7.310  11.058  13.308
68017SOL    HW1 5890   7.332  11.122  13.241
68017SOL    HW2 5891   7.287  10.979  13.260
68018SOL     OW 5892   7.963  14.089  14.227
68018SOL    HW1 5893   8.014  14.131  14.295
68018SOL    HW2 5894   7.983  14.139  14.147
68019SOL     OW 5895   1.241   5.070   7.342
68019SOL    HW1 5896   1.153   5.034   7.355
68019SOL    HW2 5897   1.296   4.994   7.324
68020SOL     OW 5898   8.670  13.567  12.034
68020SOL    HW1 5899   8.640  13.477  12.018
68020SOL    HW2 5900   8.630  13.617  11.963
68021SOL     OW 5901  13.198   1.657   9.891
68021SOL    HW1 5902  13.238   1.615   9.815
68021SOL    HW2 5903  13.124   1.705   9.855
68022SOL     OW 5904  12.812   3.989  14.277
68022SOL    HW1 5905  12.794   4.002  14.370
68022SOL    HW2 5906  12.734   4.023  14.233
68023SOL     OW 5907   3.214   9.367   4.741
68023SOL    HW1 5908   3.184   9.441   4.794
68023SOL    HW2 5909   3.251   9.408   4.662
68024SOL     OW 5910   0.554   3.139  13.333
68024SOL    HW1 5911   0.588   3.218  13.289
68024SOL    HW2 5912   0.620   3.072  13.315
68025SOL     OW 5913   7.369   1.353   5.495
68025SOL    HW1 5914   7.451   1.394   5.524
68025SOL    HW2 5915   7.389   1.316   5.409
68026SOL     OW 5916   4.358  13.131   4.690
68026SOL    HW1 5917   4.401  13.205   4.647
68026SOL    HW2 5918   4.283  13.110   4.635
68027SOL     OW 5919   8.293   5.400  14.278
68027SOL    HW1 5920   8.266   5.364  14.363
68027SOL    HW2 5921   8.212   5.433  14.240
68028SOL     OW 5922   2.524   7.190  10.359
68028SOL    HW1 5923   2.480   7.220  10.439
68028SOL    HW2 5924   2.607   7.237  10.358
68029SOL     OW 5925   2.381   5.447   5.146
68029SOL    HW1 5926   2.453   5.509   5.146
68029SOL    HW2 5927   2.412   5.373   5.198
68030SOL     OW 5928   7.035   1.577  14.244
68030SOL    HW1 5929   7.017   1.494  14.288
68030SOL    HW2 5930   7.119   1.606  14.279
68031SOL     OW 5931  14.779  12.194   8.286
68031SOL    HW1 5932  14.856  12.149   8.252
68031SOL    HW2 5933  14.735  12.128   8.340
68032SOL     OW 5934  10.933   9.464   6.619
68032SOL    HW1 5935  10.969   9.551   6.605
68032SOL    HW2 5936  10.996   9.420   6.676
68033SOL     OW 5937   8.171  12.538   4.571
68033SOL    HW1 5938   8.185  12.631   4.554
68033SOL    HW2 5939   8.238  12.514   4.635
68034SOL     OW 5940  11.107   3.757   7.939
68034SOL    HW1 5941  11.157   3.682   7.974
68034SOL    HW2 5942  11.163   3.792   7.870
68035SOL     OW 5943   1.141   5.291  13.782
68035SOL    HW1 5944   1.090   5.230  13.728
68035SOL    HW2 5945   1.213   5.319  13.725
68036SOL     OW 5946   7.802  13.044  10.055
68036SOL    HW1 5947   7.830  12.974   9.996
68036SOL    HW2 5948   7.707  13.032  10.063
68037SOL     OW 5949  11.745   1.478  10.145
68037SOL    HW1 5950  11.829   1.459  10.104
68037SOL    HW2 5951  11.700   1.535  10.082
68038SOL     OW 5952  11.758  13.675   9.559
68038SOL    HW1 5953  11.810  13.640   9.631
68038SOL    HW2 5954  11.676  13.626   9.562
68039SOL     OW 5955  14.409  11.588   2.238
68039SOL    HW1 5956  14.500  11.594   2.209
68039SOL    HW2 5957  14.403  11.649   2.311
68040SOL     OW 5958   3.855   5.435   4.608
68040SOL    HW1 5959   3.942   5.471   4.627
68040SOL    HW2 5960   3.808   5.508   4.566
68041SOL     OW 5961   8.216   7.770   3.865
68041SOL    HW1 5962   8.203   7.678   3.888
68041SOL    HW2 5963   8.130   7.810   3.876
68042SOL     OW 5964  14.538   9.963   0.217
68042SOL    HW1 5965  14.610   9.908   0.185
68042SOL    HW2 5966  14.518  10.021   0.144
68043SOL     OW 5967  10.768   3.557   1.903
68043SOL    HW1 5968  10.820   3.563   1.823
68043SOL    HW2 5969  10.821   3.603   1.969
68044SOL     OW 5970  13.522   9.586   3.974
68044SOL    HW1 5971  13.567   9.654   3.923
68044SOL    HW2 5972  13.492   9.523   3.908
68045SOL     OW 5973   5.602   5.905   0.432
68045SOL    HW1 5974   5.630   5.995   0.416
68045SOL    HW2 5975   5.683   5.854   0.426
68046SOL     OW 5976  12.581   3.088   2.437
68046SOL    HW1 5977  12.574   3.114   2.529
68046SOL    HW2 5978  12.623   3.162   2.394
68047SOL     OW 5979  10.532   5.367   4.075
68047SOL    HW1 5980  10.441   5.356   4.101
68047SOL    HW2 5981  10.533   5.447   4.022
68048SOL     OW 5982   7.122   9.152   7.071
68048SOL    HW1 5983   7.178   9.212   7.021
68048SOL    HW2 5984   7.166   9.067   7.065
68049SOL     OW 5985  12.005   9.889   3.635
68049SOL    HW1 5986  12.038   9.878   3.725
68049SOL    HW2 5987  11.960   9.807   3.616
68050SOL     OW 5988  14.723  10.930   6.869
68050SOL    HW1 5989  14.650  10.884   6.910
68050SOL    HW2 5990  14.742  11.003   6.928
68051SOL     OW 5991   3.451   4.720   0.601
68051SOL    HW1 5992   3.497   4.645   0.564
68051SOL    HW2 5993   3.485   4.795   0.553
68052SOL     OW 5994   9.079   3.481  13.987
68052SOL    HW1 5995   9.097   3.387  13.991
68052SOL    HW2 5996   9.032   3.492  13.904
68053SOL     OW 5997   2.840   0.850   7.758
68053SOL    HW1 5998   2.844   0.946   7.760
68053SOL    HW2 5999   2.798   0.829   7.675
68054SOL     OW 6000   8.741   7.104   2.313
68054SOL    HW1 6001   8.743   7.191   2.353
68054SOL    HW2 6002   8.824   7.063   2.339
68055SOL     OW 6003  13.484  14.758   5.565
68055SOL    HW1 6004  13.512  14.675   5.526
68055SOL    HW2 6005  13.388  14.758   5.555
68056SOL     OW 6006  12.140   8.992  13.810
68056SOL    HW1 6007  12.148   8.941  13.891
68056SOL    HW2 6008  12.194   9.069  13.824
68057SOL     OW 6009   1.983   0.410   8.470
68057SOL    HW1 6010   1.987   0.402   8.565
68057SOL    HW2 6011   1.896   0.376   8.446
68058SOL     OW 6012   6.074   3.581   5.821
68058SOL    HW1 6013   6.082   3.572   5.916
68058SOL    HW2 6014   6.164   3.576   5.788
68059SOL     OW 6015   5.166   4.337   7.964
68059SOL    HW1 6016   5.088   4.387   7.988
68059SOL    HW2 6017   5.234   4.369   8.023
68060SOL     OW 6018   0.016   8.865  13.859
68060SOL    HW1 6019   0.033   8.794  13.921
68060SOL    HW2 6020   0.061   8.941  13.898
68061SOL     OW 6021   9.491  13.845  10.601
68061SOL    HW1 6022   9.471  13.923  10.652
68061SOL    HW2 6023   9.549  13.876  10.531
68062SOL     OW 6024   2.715  10.064   5.227
68062SOL    HW1 6025   2.787  10.074   5.290
68062SOL    HW2 6026   2.719  10.143   5.173
68063SOL     OW 6027  13.612   1.726   7.628
68063SOL    HW1 6028  13.676   1.700   7.562
68063SOL    HW2 6029  13.550   1.783   7.582
68064SOL     OW 6030   0.514   2.767   7.918
68064SOL    HW1 6031   0.470   2.847   7.946
68064SOL    HW2 6032   0.453   2.696   7.939
68065SOL     OW 6033  11.742   8.056   6.014
68065SOL    HW1 6034  11.750   7.992   5.944
68065SOL    HW2 6035  11.663   8.032   6.061
68066SOL     OW 6036  11.171  12.755  14.057
68066SOL    HW1 6037  11.198  12.802  13.978
68066SOL    HW2 6038  11.212  12.803  14.129
68067SOL     OW 6039   6.939   5.215   4.151
68067SOL    HW1 6040   6.901   5.245   4.233
68067SOL    HW2 6041   6.865   5.176   4.103
68068SOL     OW 6042  10.121   1.867  12.562
68068SOL    HW1 6043  10.046   1.895  12.614
68068SOL    HW2 6044  10.196   1.883  12.619
68069SOL     OW 6045   3.434   4.122  11.274
68069SOL    HW1 6046   3.413   4.047  11.218
68069SOL    HW2 6047   3.410   4.199  11.223
68070SOL     OW 6048   6.936   5.510   8.969
68070SOL    HW1 6049   6.846   5.522   8.998
68070SOL    HW2 6050   6.928   5.491   8.875
68071SOL     OW 6051   3.812   9.433   5.301
68071SOL    HW1 6052   3.903   9.440   5.331
68071SOL    HW2 6053   3.760   9.442   5.380
68072SOL     OW 6054   0.258   4.487   0.387
68072SOL    HW1 6055   0.211   4.555   0.339
68072SOL    HW2 6056   0.289   4.427   0.320
68073SOL     OW 6057   6.118  11.648  13.030
68073SOL    HW1 6058   6.177  11.701  12.976
68073SOL    HW2 6059   6.045  11.706  13.050
68074SOL     OW 6060  13.047  14.232   7.073
68074SOL    HW1 6061  12.954  14.243   7.053
68074SOL    HW2 6062  13.091  14.293   7.014
68075SOL     OW 6063  10.826  13.976  11.335
68075SOL    HW1 6064  10.789  14.026  11.408
68075SOL    HW2 6065  10.753  13.925  11.301
68076SOL     OW 6066  14.549   5.544   8.014
68076SOL    HW1 6067  14.512   5.508   8.095
68076SOL    HW2 6068  14.479   5.598   7.978
68077SOL     OW 6069   5.853   0.516   4.174
68077SOL    HW1 6070   5.791   0.570   4.224
68077SOL    HW2 6071   5.930   0.509   4.231
68078SOL     OW 6072   8.586  11.588   4.179
68078SOL    HW1 6073   8.503  11.552   4.210
68078SOL    HW2 6074   8.596  11.554   4.090
68079SOL     OW 6075  14.810   8.541  10.472
68079SOL    HW1 6076  14.839   8.632  10.462
68079SOL    HW2 6077  14.860   8.492  10.407
68080SOL     OW 6078   5.428   0.374   9.463
68080SOL    HW1 6079   5.436   0.405   9.373
68080SOL    HW2 6080   5.438   0.279   9.456
68081SOL     OW 6081   4.062   4.727   9.117
68081SOL    HW1 6082   4.052   4.664   9.046
68081SOL    HW2 6083   3.991   4.790   9.104
68082SOL     OW 6084  12.308   6.285  14.617
68082SOL    HW1 6085  12.324   6.346  14.545
68082SOL    HW2 6086  12.215   6.263  14.609
68083SOL     OW 6087   3.840   7.186   5.395
68083SOL    HW1 6088   3.745   7.177   5.385
68083SOL    HW2 6089   3.875   7.102   5.365
68084SOL     OW 6090   3.174   5.100   8.456
68084SOL    HW1 6091   3.233   5.033   8.491
68084SOL    HW2 6092   3.183   5.174   8.516
68085SOL     OW 6093  14.614   8.384   5.474
68085SOL    HW1 6094  14.680   8.326   5.512
68085SOL    HW2 6095  14.536   8.328   5.465
68086SOL     OW 6096   6.729   6.660   8.446
68086SOL    HW1 6097   6.723   6.625   8.357
68086SOL    HW2 6098   6.811   6.625   8.480
68087SOL     OW 6099   9.403   1.600  13.642
68087SOL    HW1 6100   9.339   1.587  13.711
68087SOL    HW2 6101   9.387   1.529  13.580
68088SOL     OW 6102   1.853   3.262  10.436
68088SOL    HW1 6103   1.815   3.197  10.495
68088SOL    HW2 6104   1.939   3.282  10.473
68089SOL     OW 6105   4.867   4.865   3.255
68089SOL    HW1 6106   4.888   4.957   3.237
68089SOL    HW2 6107   4.895   4.819   3.176
68090SOL     OW 6108   8.228  13.805  12.797
68090SOL    HW1 6109   8.288  13.779  12.867
68090SOL    HW2 6110   8.194  13.723  12.762
68091SOL     OW 6111   6.912   8.915  13.295
68091SOL    HW1 6112   6.906   8.834  13.246
68091SOL    HW2 6113   6.830   8.961  13.276
68092SOL     OW 6114   6.165   4.135   6.681
68092SOL    HW1 6115   6.096   4.172   6.627
68092SOL    HW2 6116   6.232   4.203   6.686
68093SOL     OW 6117  10.074   6.679   4.316
68093SOL    HW1 6118  10.047   6.758   4.363
68093SOL    HW2 6119   9.992   6.640   4.286
68094SOL     OW 6120   2.016  10.824   3.084
68094SOL    HW1 6121   2.069  10.815   3.005
68094SOL    HW2 6122   2.023  10.739   3.127
68095SOL     OW 6123  10.742   5.963   4.605
68095SOL    HW1 6124  10.834   5.956   4.580
68095SOL    HW2 6125  10.694   5.940   4.525
68096SOL     OW 6126  10.496  11.048   0.412
68096SOL    HW1 6127  10.568  11.089   0.460
68096SOL    HW2 6128  10.420  11.103   0.432
68097SOL     OW 6129   4.895   8.595  14.506
68097SOL    HW1 6130   4.886   8.500  14.503
68097SOL    HW2 6131   4.808   8.628  14.483
68098SOL     OW 6132   7.770  14.550   3.634
68098SOL    HW1 6133   7.793  14.566   3.542
68098SOL    HW2 6134   7.841  14.496   3.667
68099SOL     OW 6135   2.424   7.570   6.490
68099SOL    HW1 6136   2.405   7.588   6.582
68099SOL    HW2 6137   2.375   7.636   6.442
68100SOL     OW 6138   3.700   7.373   5.755
68100SOL    HW1 6139   3.771   7.365   5.691
68100SOL    HW2 6140   3.700   7.289   5.801
68101SOL     OW 6141  11.676  12.580   0.765
68101SOL    HW1 6142  11.699  12.487   0.771
68101SOL    HW2 6143  11.641  12.602   0.851
68102SOL     OW 6144  13.414   6.423  11.447
68102SOL    HW1 6145  13.398   6.401  11.539
68102SOL    HW2 6146  13.492   6.479  11.449
68103SOL     OW 6147   8.673   9.471   9.206
68103SOL    HW1 6148   8.751   9.476   9.262
68103SOL    HW2 6149   8.607   9.522   9.252
68104SOL     OW 6150   4.577   6.881  11.957
68104SOL    HW1 6151   4.501   6.936  11.938
68104SOL    HW2 6152   4.641   6.940  11.996
68105SOL     OW 6153   5.554   3.982   4.014
68105SOL    HW1 6154   5.599   3.962   4.096
68105SOL    HW2 6155   5.603   4.056   3.978
68106SOL     OW 6156  11.911   6.625   6.044
68106SOL    HW1 6157  11.884   6.554   5.986
68106SOL    HW2 6158  11.918   6.585   6.130
68107SOL     OW 6159   3.709   7.297  13.110
68107SOL    HW1 6160   3.737   7.233  13.175
68107SOL    HW2 6161   3.788   7.348  13.091
68108SOL     OW 6162   0.275  11.665   3.271
68108SOL    HW1 6163   0.276  11.614   3.353
68108SOL    HW2 6164   0.362  11.650   3.234
68109SOL     OW 6165   7.123   6.295   4.846
68109SOL    HW1 6166   7.045   6.252   4.883
68109SOL    HW2 6167   7.142   6.366   4.907
68110SOL     OW 6168   3.130  12.224  11.602
68110SOL    HW1 6169   3.193  12.153  11.614
68110SOL    HW2 6170   3.045  12.181  11.607
68111SOL     OW 6171  11.010   8.996  13.618
68111SOL    HW1 6172  11.080   9.022  13.558
68111SOL    HW2 6173  10.942   9.062  13.604
68112SOL     OW 6174   2.300   2.238   6.716
68112SOL    HW1 6175   2.388   2.201   6.717
68112SOL    HW2 6176   2.274   2.236   6.624
68113SOL     OW 6177   8.428   2.395   8.897
68113SOL    HW1 6178   8.408   2.302   8.901
68113SOL    HW2 6179   8.345   2.439   8.917
68114SOL     OW 6180  14.494  12.397  14.051
68114SOL    HW1 6181  14.402  12.383  14.071
68114SOL    HW2 6182  14.493  12.459  13.978
68115SOL     OW 6183   4.355   4.277  12.208
68115SOL    HW1 6184   4.311   4.362  12.204
68115SOL    HW2 6185   4.434   4.293  12.260
68116SOL     OW 6186  13.074   7.921   7.109
68116SOL    HW1 6187  13.031   7.850   7.157
68116SOL    HW2 6188  13.031   8.000   7.139
68117SOL     OW 6189  13.982   8.496  12.286
68117SOL    HW1 6190  14.017   8.559  12.349
68117SOL    HW2 6191  14.060   8.455  12.248
68118SOL     OW 6192  11.535   3.561  13.868
68118SOL    HW1 6193  11.614   3.611  13.887
68118SOL    HW2 6194  11.534   3.551  13.773
68119SOL     OW 6195   2.664  14.508   5.932
68119SOL    HW1 6196   2.704  14.421   5.931
68119SOL    HW2 6197   2.697  14.550   5.853
68120SOL     OW 6198   2.834  13.157   7.405
68120SOL    HW1 6199   2.818  13.184   7.496
68120SOL    HW2 6200   2.750  13.172   7.361
68121SOL     OW 6201   1.773   0.119   8.541
68121SOL    HW1 6202   1.700   0.096   8.599
68121SOL    HW2 6203   1.744   0.199   8.497
68122SOL     OW 6204   8.482   7.743   2.146
68122SOL    HW1 6205   8.409   7.753   2.085
68122SOL    HW2 6206   8.559   7.731   2.091
68123SOL     OW 6207  14.025   9.526  10.870
68123SOL    HW1 6208  14.088   9.520  10.942
68123SOL    HW2 6209  14.022   9.619  10.849
68124SOL     OW 6210   0.352  10.453   8.102
68124SOL    HW1 6211   0.348  10.496   8.187
68124SOL    HW2 6212   0.444  10.430   8.091
68125SOL     OW 6213  10.466   1.533  14.177
68125SOL    HW1 6214  10.453   1.586  14.256
68125SOL    HW2 6215  10.439   1.591  14.105
68126SOL     OW 6216   8.656   1.852  10.217
68126SOL    HW1 6217   8.595   1.925  10.221
68126SOL    HW2 6218   8.740   1.891  10.192
68127SOL     OW 6219   9.183   1.978   3.325
68127SOL    HW1 6220   9.138   1.918   3.385
68127SOL    HW2 6221   9.151   1.954   3.238
68128SOL     OW 6222  13.247  12.541   4.553
68128SOL    HW1 6223  13.238  12.501   4.466
68128SOL    HW2 6224  13.236  12.468   4.614
68129SOL     OW 6225  14.773  11.895   6.789
68129SOL    HW1 6226  14.749  11.871   6.699
68129SOL    HW2 6227  14.691  11.926   6.827
68130SOL     OW 6228   0.132   9.907  12.746
68130SOL    HW1 6229   0.178   9.827  12.769
68130SOL    HW2 6230   0.051   9.903  12.795
68131SOL     OW 6231  13.912   4.608   3.767
68131SOL    HW1 6232  13.949   4.685   3.810
68131SOL    HW2 6233  13.929   4.622   3.674
68132SOL     OW 6234   6.258   4.511  11.607
68132SOL    HW1 6235   6.214   4.457  11.541
68132SOL    HW2 6236   6.250   4.601  11.574
68133SOL     OW 6237   4.438   4.970   2.720
68133SOL    HW1 6238   4.502   4.979   2.790
68133SOL    HW2 6239   4.458   5.042   2.660
68134SOL     OW 6240  14.137   7.277   0.960
68134SOL    HW1 6241  14.193   7.199   0.965
68134SOL    HW2 6242  14.194   7.348   0.990
68135SOL     OW 6243   8.309   0.262  10.924
68135SOL    HW1 6244   8.343   0.181  10.886
68135SOL    HW2 6245   8.336   0.258  11.016
68136SOL     OW 6246  12.975   5.243   9.620
68136SOL    HW1 6247  12.882   5.257   9.636
68136SOL    HW2 6248  12.995   5.160   9.663
68137SOL     OW 6249  14.074   5.096  12.113
68137SOL    HW1 6250  14.071   5.010  12.071
68137SOL    HW2 6251  14.013   5.089  12.186
68138SOL     OW 6252   0.280   5.630  14.518
68138SOL    HW1 6253   0.336   5.697  14.558
68138SOL    HW2 6254   0.304   5.631  14.425
68139SOL     OW 6255   8.310   2.671   3.544
68139SOL    HW1 6256   8.350   2.659   3.457
68139SOL    HW2 6257   8.220   2.696   3.526
68140SOL     OW 6258   9.576   6.649  13.337
68140SOL    HW1 6259   9.602   6.604  13.417
68140SOL    HW2 6260   9.547   6.579  13.279
68141SOL     OW 6261   9.565   2.021   3.425
68141SOL    HW1 6262   9.524   2.049   3.343
68141SOL    HW2 6263   9.629   1.955   3.399
68142SOL     OW 6264  11.315  13.050  11.160
68142SOL    HW1 6265  11.343  12.964  11.193
68142SOL    HW2 6266  11.370  13.112  11.208
68143SOL     OW 6267   6.236   6.010   0.628
68143SOL    HW1 6268   6.173   5.976   0.564
68143SOL    HW2 6269   6.232   6.105   0.616
68144SOL     OW 6270   3.398  10.342  13.061
68144SOL    HW1 6271   3.326  10.336  13.125
68144SOL    HW2 6272   3.354  10.354  12.977
68145SOL     OW 6273   0.619   3.563   4.599
68145SOL    HW1 6274   0.543   3.507   4.584
68145SOL    HW2 6275   0.606   3.598   4.687
68146SOL     OW 6276   2.152   5.633   5.469
68146SOL    HW1 6277   2.075   5.687   5.485
68146SOL    HW2 6278   2.157   5.627   5.373
68147SOL     OW 6279  10.197  11.095   3.232
68147SOL    HW1 6280  10.283  11.054   3.236
68147SOL    HW2 6281  10.191  11.147   3.312
68148SOL     OW 6282   2.344   2.891   5.862
68148SOL    HW1 6283   2.382   2.946   5.930
68148SOL    HW2 6284   2.319   2.952   5.792
68149SOL     OW 6285  10.506   5.826   9.969
68149SOL    HW1 6286  10.534   5.734   9.968
68149SOL    HW2 6287  10.445   5.833   9.896
68150SOL     OW 6288   9.583   3.294   3.384
68150SOL    HW1 6289   9.649   3.327   3.323
68150SOL    HW2 6290   9.517   3.364   3.387
68151SOL     OW 6291   4.343   7.472   5.346
68151SOL    HW1 6292   4.259   7.498   5.308
68151SOL    HW2 6293   4.320   7.416   5.419
68152SOL     OW 6294   7.554   9.224   0.311
68152SOL    HW1 6295   7.538   9.315   0.336
68152SOL    HW2 6296   7.634   9.228   0.258
68153SOL     OW 6297   3.985   4.530   1.939
68153SOL    HW1 6298   4.075   4.530   1.905
68153SOL    HW2 6299   3.981   4.608   1.994
68154SOL     OW 6300  13.545   4.503  12.547
68154SOL    HW1 6301  13.638   4.506  12.524
68154SOL    HW2 6302  13.534   4.576  12.609
68155SOL     OW 6303   9.462  12.215  12.828
68155SOL    HW1 6304   9.473  12.139  12.884
68155SOL    HW2 6305   9.511  12.285  12.872
68156SOL     OW 6306  12.674   4.044   2.392
68156SOL    HW1 6307  12.680   4.127   2.345
68156SOL    HW2 6308  12.754   3.998   2.367
68157SOL     OW 6309   4.521   5.706   8.936
68157SOL    HW1 6310   4.499   5.682   9.026
68157SOL    HW2 6311   4.437   5.705   8.889
68158SOL     OW 6312   2.168   8.200   4.592
68158SOL    HW1 6313   2.073   8.211   4.604
68158SOL    HW2 6314   2.187   8.244   4.510
68159SOL     OW 6315  12.105   0.513   4.603
68159SOL    HW1 6316  12.150   0.584   4.557
68159SOL    HW2 6317  12.111   0.438   4.544
68160SOL     OW 6318   0.291   3.816   1.181
68160SOL    HW1 6319   0.209   3.767   1.177
68160SOL    HW2 6320   0.358   3.752   1.157
68161SOL     OW 6321   9.162   7.880   4.248
68161SOL    HW1 6322   9.082   7.895   4.299
68161SOL    HW2 6323   9.130   7.860   4.160
68162SOL     OW 6324  13.761   1.200  14.622
68162SOL    HW1 6325  13.703   1.125  14.606
68162SOL    HW2 6326  13.735   1.233  14.708
68163SOL     OW 6327   1.319   5.326  10.389
68163SOL    HW1 6328   1.408   5.343  10.418
68163SOL    HW2 6329   1.323   5.241  10.347
68164SOL     OW 6330   9.020   2.461  11.113
68164SOL    HW1 6331   8.939   2.454  11.164
68164SOL    HW2 6332   9.019   2.386  11.054
68165SOL     OW 6333  13.517   7.843   0.597
68165SOL    HW1 6334  13.447   7.886   0.548
68165SOL    HW2 6335  13.580   7.912   0.615
68166SOL     OW 6336  11.044  11.951  13.387
68166SOL    HW1 6337  11.042  11.944  13.483
68166SOL    HW2 6338  11.057  11.861  13.357
68167SOL     OW 6339   7.093  12.085   8.908
68167SOL    HW1 6340   7.000  12.086   8.928
68167SOL    HW2 6341   7.106  12.002   8.862
68168SOL     OW 6342   9.067  11.049  10.027
68168SOL    HW1 6343   8.987  11.088   9.992
68168SOL    HW2 6344   9.073  11.082  10.116
68169SOL     OW 6345   7.179   2.628   5.604
68169SOL    HW1 6346   7.177   2.561   5.536
68169SOL    HW2 6347   7.250   2.602   5.662
68170SOL     OW 6348   6.190  10.750  10.159
68170SOL    HW1 6349   6.263  10.755  10.222
68170SOL    HW2 6350   6.113  10.773  10.211
68171SOL     OW 6351   0.811   9.107   6.344
68171SOL    HW1 6352   0.734   9.143   6.300
68171SOL    HW2 6353   0.779   9.026   6.385
68172SOL     OW 6354   5.542  14.457  11.054
68172SOL    HW1 6355   5.559  14.398  11.127
68172SOL    HW2 6356   5.450  14.482  11.065
68173SOL     OW 6357   9.318   2.484   1.266
68173SOL    HW1 6358   9.358   2.570   1.280
68173SOL    HW2 6359   9.385   2.422   1.296
68174SOL     OW 6360  10.823   4.614   3.272
68174SOL    HW1 6361  10.820   4.597   3.366
68174SOL    HW2 6362  10.804   4.707   3.263
68175SOL     OW 6363   3.886   2.134  14.173
68175SOL    HW1 6364   3.821   2.090  14.118
68175SOL    HW2 6365   3.880   2.226  14.148
68176SOL     OW 6366  13.373  11.056  12.027
68176SOL    HW1 6367  13.389  11.062  11.932
68176SOL    HW2 6368  13.458  11.032  12.064
68177SOL     OW 6369   7.078   2.211  14.109
68177SOL    HW1 6370   7.120   2.292  14.137
68177SOL    HW2 6371   7.149   2.159  14.070
68178SOL     OW 6372   6.768   2.195   7.843
68178SOL    HW1 6373   6.696   2.185   7.905
68178SOL    HW2 6374   6.829   2.254   7.886
68179SOL     OW 6375   9.118  10.247  11.791
68179SOL    HW1 6376   9.212  10.259  11.785
68179SOL    HW2 6377   9.100  10.245  11.885
68180SOL     OW 6378   1.579   9.970  14.443
68180SOL    HW1 6379   1.604   9.987  14.534
68180SOL    HW2 6380   1.568   9.876  14.438
68181SOL     OW 6381  11.895   9.188   2.517
68181SOL    HW1 6382  11.985   9.208   2.493
68181SOL    HW2 6383  11.855   9.159   2.435
68182SOL     OW 6384   9.432   9.350   1.030
68182SOL    HW1 6385   9.380   9.410   0.977
68182SOL    HW2 6386   9.432   9.267   0.982
68183SOL     OW 6387   7.961  14.360   5.890
68183SOL    HW1 6388   8.023  14.298   5.853
68183SOL    HW2 6389   7.945  14.423   5.819
68184SOL     OW 6390  11.529  13.163   1.981
68184SOL    HW1 6391  11.618  13.194   1.994
68184SOL    HW2 6392  11.525  13.079   2.028
68185SOL     OW 6393  12.915  13.616   9.992
68185SOL    HW1 6394  12.944  13.571  10.071
68185SOL    HW2 6395  12.820  13.627  10.004
68186SOL     OW 6396  14.879  10.542   0.890
68186SOL    HW1 6397   0.079  10.538   0.841
68186SOL    HW2 6398  14.881  10.627   0.934
68187SOL     OW 6399  10.800   1.720   1.394
68187SOL    HW1 6400  10.787   1.779   1.469
68187SOL    HW2 6401  10.764   1.636   1.424
68188SOL     OW 6402   4.369   1.347   8.206
68188SOL    HW1 6403   4.298   1.283   8.202
68188SOL    HW2 6404   4.328   1.431   8.186
68189SOL     OW 6405   9.310   4.344  12.680
68189SOL    HW1 6406   9.221   4.326  12.708
68189SOL    HW2 6407   9.363   4.337  12.759
68190SOL     OW 6408   0.618  14.420   7.125
68190SOL    HW1 6409   0.554  14.442   7.192
68190SOL    HW2 6410   0.693  14.477   7.144
68191SOL     OW 6411   7.103  14.584   5.276
68191SOL    HW1 6412   7.083  14.528   5.202
68191SOL    HW2 6413   7.178  14.637   5.247
68192SOL     OW 6414   8.277   0.571   4.826
68192SOL    HW1 6415   8.344   0.597   4.889
68192SOL    HW2 6416   8.305   0.612   4.744
68193SOL     OW 6417   7.922   5.436   0.627
68193SOL    HW1 6418   7.928   5.451   0.533
68193SOL    HW2 6419   8.013   5.421   0.654
68194SOL     OW 6420  10.355  12.870   6.050
68194SOL    HW1 6421  10.429  12.810   6.060
68194SOL    HW2 6422  10.287  12.819   6.006
68195SOL     OW 6423   3.120  12.349  14.866
68195SOL    HW1 6424   3.059  12.403   0.036
68195SOL    HW2 6425   3.063  12.289  14.818
68196SOL     OW 6426   8.773   1.677   0.956
68196SOL    HW1 6427   8.825   1.732   0.897
68196SOL    HW2 6428   8.693   1.658   0.908
68197SOL     OW 6429   1.240   8.085   0.348
68197SOL    HW1 6430   1.177   8.102   0.278
68197SOL    HW2 6431   1.302   8.157   0.342
68198SOL     OW 6432   9.087   4.337   8.892
68198SOL    HW1 6433   9.044   4.409   8.938
68198SOL    HW2 6434   9.066   4.351   8.800
68199SOL     OW 6435   3.542   6.516   3.430
68199SOL    HW1 6436   3.555   6.423   3.448
68199SOL    HW2 6437   3.532   6.521   3.335
68200SOL     OW 6438  12.386   5.712   2.910
68200SOL    HW1 6439  12.322   5.783   2.903
68200SOL    HW2 6440  12.426   5.724   2.996
68201SOL     OW 6441  10.944   8.409   3.155
68201SOL    HW1 6442  10.868   8.351   3.143
68201SOL    HW2 6443  10.911   8.480   3.211
68202SOL     OW 6444   0.636   6.796  10.011
68202SOL    HW1 6445   0.709   6.761  10.062
68202SOL    HW2 6446   0.647   6.891  10.016
68203SOL     OW 6447   3.153  14.655   4.262
68203SOL    HW1 6448   3.079  14.696   4.307
68203SOL    HW2 6449   3.188  14.723   4.205
68204SOL     OW 6450  13.561   0.702   2.815
68204SOL    HW1 6451  13.615   0.775   2.847
68204SOL    HW2 6452  13.625   0.635   2.790
68205SOL     OW 6453   8.220  13.404   5.562
68205SOL    HW1 6454   8.288  13.343   5.590
68205SOL    HW2 6455   8.185  13.440   5.643
68206SOL     OW 6456  13.687   9.834   1.069
68206SOL    HW1 6457  13.618   9.847   1.133
68206SOL    HW2 6458  13.754   9.898   1.092
68207SOL     OW 6459   8.962   1.610   5.558
68207SOL    HW1 6460   8.925   1.565   5.482
68207SOL    HW2 6461   8.887   1.648   5.603
68208SOL     OW 6462   7.010  10.225  11.585
68208SOL    HW1 6463   7.095  10.181  11.582
68208SOL    HW2 6464   6.962  10.180  11.655
68209SOL     OW 6465   6.440   7.549   8.171
68209SOL    HW1 6466   6.490   7.514   8.097
68209SOL    HW2 6467   6.468   7.497   8.246
68210SOL     OW 6468   9.669  12.544   0.568
68210SOL    HW1 6469   9.739  12.480   0.559
68210SOL    HW2 6470   9.605  12.519   0.501
68211SOL     OW 6471  14.794   8.700   3.856
68211SOL    HW1 6472  14.864   8.656   3.904
68211SOL    HW2 6473  14.743   8.628   3.818
68212SOL     OW 6474   8.862   7.262   7.502
68212SOL    HW1 6475   8.934   7.313   7.541
68212SOL    HW2 6476   8.788   7.279   7.560
68213SOL     OW 6477   8.863   2.383  12.664
68213SOL    HW1 6478   8.823   2.299  12.686
68213SOL    HW2 6479   8.950   2.359  12.630
68214SOL     OW 6480  12.030  13.013  14.245
68214SOL    HW1 6481  12.095  13.055  14.301
68214SOL    HW2 6482  11.980  13.085  14.207
68215SOL     OW 6483   0.142   0.038   4.097
68215SOL    HW1 6484   0.071   0.092   4.131
68215SOL    HW2 6485   0.129   0.039   4.002
68216SOL     OW 6486   9.536   2.347   8.019
68216SOL    HW1 6487   9.606   2.286   8.042
68216SOL    HW2 6488   9.525   2.401   8.097
68217SOL     OW 6489  11.896   5.728   6.680
68217SOL    HW1 6490  11.930   5.809   6.642
68217SOL    HW2 6491  11.901   5.664   6.609
68218SOL     OW 6492  11.771   2.136   9.996
68218SOL    HW1 6493  11.761   2.120   9.903
68218SOL    HW2 6494  11.717   2.214  10.013
68219SOL     OW 6495   3.929  12.065   2.831
68219SOL    HW1 6496   3.859  12.084   2.894
68219SOL    HW2 6497   4.004  12.116   2.862
68220SOL     OW 6498  14.410   1.837   6.539
68220SOL    HW1 6499  14.319   1.856   6.518
68220SOL    HW2 6500  14.456   1.846   6.455
68221SOL     OW 6501   3.363   6.636  13.288
68221SOL    HW1 6502   3.318   6.661  13.368
68221SOL    HW2 6503   3.304   6.572  13.247
68222SOL     OW 6504   1.114  12.125   7.435
68222SOL    HW1 6505   1.169  12.200   7.456
68222SOL    HW2 6506   1.168  12.070   7.378
68223SOL     OW 6507  12.824  10.724   6.639
68223SOL    HW1 6508  12.766  10.795   6.611
68223SOL    HW2 6509  12.765  10.654   6.666
68224SOL     OW 6510   8.740   8.318   0.261
68224SOL    HW1 6511   8.712   8.353   0.345
68224SOL    HW2 6512   8.674   8.350   0.199
68225SOL     OW 6513   8.568  13.480  11.695
68225SOL    HW1 6514   8.548  13.389  11.715
68225SOL    HW2 6515   8.646  13.476  11.639
68226SOL     OW 6516  11.536   6.654   2.230
68226SOL    HW1 6517  11.599   6.689   2.292
68226SOL    HW2 6518  11.548   6.559   2.234
68227SOL     OW 6519   8.579  10.438   0.979
68227SOL    HW1 6520   8.484  10.437   0.966
68227SOL    HW2 6521   8.597  10.522   1.020
68228SOL     OW 6522   0.361   3.904   8.269
68228SOL    HW1 6523   0.268   3.886   8.254
68228SOL    HW2 6524   0.372   3.896   8.364
68229SOL     OW 6525   3.050   3.843   1.354
68229SOL    HW1 6526   3.107   3.842   1.277
68229SOL    HW2 6527   2.962   3.826   1.319
68230SOL     OW 6528  13.910  10.009   9.177
68230SOL    HW1 6529  13.975  10.075   9.200
68230SOL    HW2 6530  13.830  10.058   9.162
68231SOL     OW 6531   8.860  11.081   9.393
68231SOL    HW1 6532   8.776  11.103   9.432
68231SOL    HW2 6533   8.896  11.013   9.450
68232SOL     OW 6534   1.095  11.065   2.058
68232SOL    HW1 6535   1.145  11.020   1.990
68232SOL    HW2 6536   1.045  11.132   2.010
68233SOL     OW 6537   3.390   3.791  12.545
68233SOL    HW1 6538   3.329   3.744  12.487
68233SOL    HW2 6539   3.335   3.819  12.619
68234SOL     OW 6540  13.421   3.434  12.311
68234SOL    HW1 6541  13.491   3.437  12.376
68234SOL    HW2 6542  13.419   3.522  12.273
68235SOL     OW 6543   5.517  11.606   3.643
68235SOL    HW1 6544   5.557  11.678   3.593
68235SOL    HW2 6545   5.473  11.553   3.576
68236SOL     OW 6546   8.917   4.334   0.203
68236SOL    HW1 6547   8.914   4.406   0.139
68236SOL    HW2 6548   9.010   4.322   0.220
68237SOL     OW 6549  14.675   5.606  10.979
68237SOL    HW1 6550  14.751   5.658  11.005
68237SOL    HW2 6551  14.625   5.663  10.921
68238SOL     OW 6552   3.882   0.015  13.990
68238SOL    HW1 6553   3.937  14.820  14.000
68238SOL    HW2 6554   3.795  14.862  13.971
68239SOL     OW 6555  13.435   0.078   4.519
68239SOL    HW1 6556  13.357   0.115   4.479
68239SOL    HW2 6557  13.508   0.129   4.482
68240SOL     OW 6558   7.969  14.859   3.325
68240SOL    HW1 6559   7.961   0.023   3.242
68240SOL    HW2 6560   7.964   0.046   3.391
68241SOL     OW 6561  12.317   5.309   0.695
68241SOL    HW1 6562  12.241   5.310   0.754
68241SOL    HW2 6563  12.371   5.237   0.727
68242SOL     OW 6564   5.740  10.346   7.868
68242SOL    HW1 6565   5.694  10.399   7.933
68242SOL    HW2 6566   5.815  10.310   7.915
68243SOL     OW 6567   3.426   2.286  11.142
68243SOL    HW1 6568   3.516   2.255  11.146
68243SOL    HW2 6569   3.430   2.378  11.167
68244SOL     OW 6570   1.397  10.183  14.492
68244SOL    HW1 6571   1.306  10.155  14.479
68244SOL    HW2 6572   1.449  10.108  14.463
68245SOL     OW 6573  11.201  10.389   5.775
68245SOL    HW1 6574  11.209  10.370   5.869
68245SOL    HW2 6575  11.113  10.361   5.751
68246SOL     OW 6576   9.537   7.130   2.184
68246SOL    HW1 6577   9.569   7.095   2.267
68246SOL    HW2 6578   9.509   7.052   2.135
68247SOL     OW 6579   7.881   3.741  13.344
68247SOL    HW1 6580   7.829   3.782  13.413
68247SOL    HW2 6581   7.855   3.649  13.345
68248SOL     OW 6582   9.365  11.054  10.462
68248SOL    HW1 6583   9.345  11.007  10.542
68248SOL    HW2 6584   9.411  11.133  10.491
68249SOL     OW 6585   6.888   7.942   3.235
68249SOL    HW1 6586   6.868   7.904   3.149
68249SOL    HW2 6587   6.881   8.036   3.221
68250SOL     OW 6588  13.224   8.039  14.263
68250SOL    HW1 6589  13.208   8.130  14.289
68250SOL    HW2 6590  13.259   7.997  14.341
68251SOL     OW 6591  12.849   7.064  11.131
68251SOL    HW1 6592  12.917   7.044  11.195
68251SOL    HW2 6593  12.776   7.098  11.182
68252SOL     OW 6594   6.747  13.583  12.042
68252SOL    HW1 6595   6.795  13.524  11.984
68252SOL    HW2 6596   6.773  13.556  12.130
68253SOL     OW 6597   8.603  12.721   9.938
68253SOL    HW1 6598   8.633  12.790   9.878
68253SOL    HW2 6599   8.627  12.639   9.894
68254SOL     OW 6600   7.521   8.955  12.183
68254SOL    HW1 6601   7.575   8.993  12.252
68254SOL    HW2 6602   7.556   8.867  12.170
68255SOL     OW 6603   9.828   3.490   2.520
68255SOL    HW1 6604   9.747   3.508   2.473
68255SOL    HW2 6605   9.855   3.575   2.554
68256SOL     OW 6606  11.868  12.909  14.477
68256SOL    HW1 6607  11.844  12.823  14.443
68256SOL    HW2 6608  11.928  12.945  14.413
68257SOL     OW 6609   4.575   6.578   5.524
68257SOL    HW1 6610   4.510   6.508   5.515
68257SOL    HW2 6611   4.630   6.570   5.447
68258SOL     OW 6612   1.826   2.914   5.342
68258SOL    HW1 6613   1.920   2.923   5.329
68258SOL    HW2 6614   1.806   2.974   5.413
68259SOL     OW 6615   9.316   7.507   7.415
68259SOL    HW1 6616   9.338   7.572   7.482
68259SOL    HW2 6617   9.278   7.559   7.344
68260SOL     OW 6618  13.722  14.060  12.622
68260SOL    HW1 6619  13.806  14.086  12.583
68260SOL    HW2 6620  13.656  14.095  12.563
68261SOL     OW 6621   7.173  10.336   7.199
68261SOL    HW1 6622   7.096  10.386   7.171
68261SOL    HW2 6623   7.150  10.245   7.182
68262SOL     OW 6624   6.624   0.009   5.250
68262SOL    HW1 6625   6.635   0.008   5.155
68262SOL    HW2 6626   6.701  14.846   5.284
68263SOL     OW 6627   5.598   9.890   0.827
68263SOL    HW1 6628   5.539   9.965   0.816
68263SOL    HW2 6629   5.583   9.860   0.916
68264SOL     OW 6630   1.123  10.610   9.997
68264SOL    HW1 6631   1.190  10.545  10.017
68264SOL    HW2 6632   1.088  10.583   9.912
68265SOL     OW 6633   6.972   6.626   6.547
68265SOL    HW1 6634   7.039   6.689   6.572
68265SOL    HW2 6635   6.922   6.610   6.627
68266SOL     OW 6636   0.062  13.879   3.036
68266SOL    HW1 6637   0.135  13.937   3.014
68266SOL    HW2 6638   0.102  13.795   3.056
68267SOL     OW 6639  14.588   5.712   4.455
68267SOL    HW1 6640  14.542   5.787   4.419
68267SOL    HW2 6641  14.620   5.663   4.379
68268SOL     OW 6642   5.427  14.103   2.684
68268SOL    HW1 6643   5.422  14.196   2.703
68268SOL    HW2 6644   5.508  14.074   2.726
68269SOL     OW 6645   8.247   0.557   0.081
68269SOL    HW1 6646   8.309   0.497   0.120
68269SOL    HW2 6647   8.180   0.501   0.042
68270SOL     OW 6648   7.227   4.961  12.477
68270SOL    HW1 6649   7.140   4.921  12.470
68270SOL    HW2 6650   7.261   4.960  12.387
68271SOL     OW 6651   4.230   0.349   4.524
68271SOL    HW1 6652   4.293   0.281   4.500
68271SOL    HW2 6653   4.278   0.431   4.514
68272SOL     OW 6654  13.491  14.129   3.862
68272SOL    HW1 6655  13.540  14.160   3.938
68272SOL    HW2 6656  13.548  14.064   3.821
68273SOL     OW 6657  10.703   4.577  12.845
68273SOL    HW1 6658  10.675   4.486  12.833
68273SOL    HW2 6659  10.623   4.623  12.871
68274SOL     OW 6660   8.696   8.170   4.327
68274SOL    HW1 6661   8.640   8.208   4.259
68274SOL    HW2 6662   8.647   8.183   4.409
68275SOL     OW 6663   1.581   3.742   9.421
68275SOL    HW1 6664   1.502   3.792   9.404
68275SOL    HW2 6665   1.630   3.746   9.339
68276SOL     OW 6666  10.659   9.335  13.898
68276SOL    HW1 6667  10.743   9.293  13.879
68276SOL    HW2 6668  10.635   9.378  13.816
68277SOL     OW 6669   7.858  12.351  11.565
68277SOL    HW1 6670   7.929  12.301  11.524
68277SOL    HW2 6671   7.830  12.297  11.638
68278SOL     OW 6672  13.839   6.745  10.160
68278SOL    HW1 6673  13.832   6.654  10.131
68278SOL    HW2 6674  13.838   6.740  10.256
68279SOL     OW 6675   2.068   6.959   7.381
68279SOL    HW1 6676   2.100   7.030   7.324
68279SOL    HW2 6677   2.071   6.996   7.469
68280SOL     OW 6678   9.745   8.218  11.363
68280SOL    HW1 6679   9.817   8.167  11.326
68280SOL    HW2 6680   9.778   8.308  11.365
68281SOL     OW 6681   6.382   1.521   5.469
68281SOL    HW1 6682   6.474   1.500   5.450
68281SOL    HW2 6683   6.338   1.513   5.384
68282SOL     OW 6684  10.055  13.674   0.315
68282SOL    HW1 6685  10.005  13.679   0.233
68282SOL    HW2 6686  10.047  13.762   0.352
68283SOL     OW 6687   5.295  11.841   5.702
68283SOL    HW1 6688   5.292  11.746   5.689
68283SOL    HW2 6689   5.388  11.860   5.712
68284SOL     OW 6690  13.216   6.574   0.985
68284SOL    HW1 6691  13.252   6.491   1.016
68284SOL    HW2 6692  13.121   6.564   0.993
68285SOL     OW 6693   5.528   7.158   1.983
68285SOL    HW1 6694   5.444   7.178   1.943
68285SOL    HW2 6695   5.586   7.227   1.952
68286SOL     OW 6696  10.168   3.026   4.576
68286SOL    HW1 6697  10.156   2.979   4.659
68286SOL    HW2 6698  10.260   3.051   4.576
68287SOL     OW 6699   3.938   8.712  14.645
68287SOL    HW1 6700   3.943   8.616  14.652
68287SOL    HW2 6701   3.849   8.733  14.672
68288SOL     OW 6702   7.454  11.282   5.539
68288SOL    HW1 6703   7.411  11.250   5.459
68288SOL    HW2 6704   7.409  11.238   5.610
68289SOL     OW 6705   3.915  11.614   6.110
68289SOL    HW1 6706   3.899  11.707   6.094
68289SOL    HW2 6707   3.946  11.581   6.026
68290SOL     OW 6708   2.592   1.905   4.751
68290SOL    HW1 6709   2.538   1.832   4.720
68290SOL    HW2 6710   2.565   1.918   4.842
68291SOL     OW 6711   7.005   0.760  10.253
68291SOL    HW1 6712   7.013   0.665  10.250
68291SOL    HW2 6713   7.012   0.781  10.346
68292SOL     OW 6714   9.233   1.590  12.009
68292SOL    HW1 6715   9.273   1.503  12.004
68292SOL    HW2 6716   9.217   1.614  11.918
68293SOL     OW 6717  13.496   3.837  11.120
68293SOL    HW1 6718  13.516   3.905  11.183
68293SOL    HW2 6719  13.581   3.799  11.097
68294SOL     OW 6720   1.959   9.643   8.342
68294SOL    HW1 6721   1.866   9.636   8.364
68294SOL    HW2 6722   1.970   9.733   8.312
68295SOL     OW 6723   9.215  13.483   5.619
68295SOL    HW1 6724   9.237  13.392   5.598
68295SOL    HW2 6725   9.228  13.530   5.537
68296SOL     OW 6726   5.338   4.797  11.205
68296SOL    HW1 6727   5.313   4.787  11.297
68296SOL    HW2 6728   5.389   4.878  11.203
68297SOL     OW 6729   9.430   2.226   3.890
68297SOL    HW1 6730   9.395   2.263   3.809
68297SOL    HW2 6731   9.464   2.140   3.864
68298SOL     OW 6732   2.231  10.129  10.258
68298SOL    HW1 6733   2.214  10.192  10.328
68298SOL    HW2 6734   2.149  10.080  10.249
68299SOL     OW 6735   2.678   7.480  13.385
68299SOL    HW1 6736   2.647   7.401  13.342
68299SOL    HW2 6737   2.740   7.518  13.323
68300SOL     OW 6738   7.966  14.575   2.783
68300SOL    HW1 6739   7.887  14.627   2.797
68300SOL    HW2 6740   7.983  14.581   2.689
68301SOL     OW 6741   8.218   3.704   9.097
68301SOL    HW1 6742   8.167   3.726   9.174
68301SOL    HW2 6743   8.243   3.613   9.110
68302SOL     OW 6744  12.239   0.873   1.694
68302SOL    HW1 6745  12.264   0.821   1.618
68302SOL    HW2 6746  12.247   0.964   1.664
68303SOL     OW 6747   0.847   8.947   4.875
68303SOL    HW1 6748   0.760   8.908   4.880
68303SOL    HW2 6749   0.907   8.874   4.892
68304SOL     OW 6750   8.872   3.826   9.057
68304SOL    HW1 6751   8.928   3.776   8.997
68304SOL    HW2 6752   8.915   3.911   9.064
68305SOL     OW 6753   7.088  11.622   5.287
68305SOL    HW1 6754   7.028  11.582   5.350
68305SOL    HW2 6755   7.161  11.560   5.280
68306SOL     OW 6756   1.975  13.121   1.047
68306SOL    HW1 6757   1.978  13.029   1.020
68306SOL    HW2 6758   1.882  13.143   1.047
68307SOL     OW 6759   3.500  13.172   8.814
68307SOL    HW1 6760   3.582  13.169   8.863
68307SOL    HW2 6761   3.520  13.128   8.732
68308SOL     OW 6762   3.208  14.790   9.314
68308SOL    HW1 6763   3.297  14.756   9.302
68308SOL    HW2 6764   3.152  14.729   9.267
68309SOL     OW 6765   0.419  14.494  11.078
68309SOL    HW1 6766   0.451  14.517  10.991
68309SOL    HW2 6767   0.325  14.480  11.066
68310SOL     OW 6768   7.183   1.308   9.578
68310SOL    HW1 6769   7.195   1.215   9.563
68310SOL    HW2 6770   7.114   1.334   9.518
68311SOL     OW 6771   9.348  13.418   3.830
68311SOL    HW1 6772   9.301  13.369   3.763
68311SOL    HW2 6773   9.312  13.386   3.913
68312SOL     OW 6774  12.662   9.424   3.120
68312SOL    HW1 6775  12.648   9.358   3.053
68312SOL    HW2 6776  12.737   9.392   3.170
68313SOL     OW 6777   6.503  14.729  11.014
68313SOL    HW1 6778   6.548  14.813  11.020
68313SOL    HW2 6779   6.516  14.701  10.924
68314SOL     OW 6780   6.273  13.934   5.376
68314SOL    HW1 6781   6.331  13.986   5.321
68314SOL    HW2 6782   6.201  13.908   5.318
68315SOL     OW 6783  10.863   6.378  14.222
68315SOL    HW1 6784  10.829   6.413  14.304
68315SOL    HW2 6785  10.925   6.310  14.248
68316SOL     OW 6786  13.816   0.550  13.016
68316SOL    HW1 6787  13.795   0.613  12.948
68316SOL    HW2 6788  13.886   0.497  12.979
68317SOL     OW 6789  11.261   6.461   3.345
68317SOL    HW1 6790  11.284   6.380   3.300
68317SOL    HW2 6791  11.189   6.436   3.404
68318SOL     OW 6792   0.773   9.930   8.257
68318SOL    HW1 6793   0.861   9.952   8.225
68318SOL    HW2 6794   0.789   9.863   8.324
68319SOL     OW 6795  14.552  12.999   5.027
68319SOL    HW1 6796  14.519  13.088   5.040
68319SOL    HW2 6797  14.645  13.004   5.048
68320SOL     OW 6798  10.240   0.175   3.356
68320SOL    HW1 6799  10.293   0.176   3.277
68320SOL    HW2 6800  10.261   0.257   3.401
68321SOL     OW 6801  11.399   2.208   5.932
68321SOL    HW1 6802  11.311   2.218   5.896
68321SOL    HW2 6803  11.385   2.172   6.019
68322SOL     OW 6804   0.353  14.123   6.342
68322SOL    HW1 6805   0.341  14.075   6.260
68322SOL    HW2 6806   0.336  14.059   6.410
68323SOL     OW 6807  13.783   6.431  13.695
68323SOL    HW1 6808  13.823   6.463  13.776
68323SOL    HW2 6809  13.851   6.441  13.629
68324SOL     OW 6810   1.900   6.841   2.989
68324SOL    HW1 6811   1.952   6.766   3.016
68324SOL    HW2 6812   1.904   6.841   2.894
68325SOL     OW 6813  12.944   9.436   9.853
68325SOL    HW1 6814  12.901   9.521   9.845
68325SOL    HW2 6815  12.950   9.403   9.764
68326SOL     OW 6816   0.644   5.783   7.969
68326SOL    HW1 6817   0.677   5.856   7.917
68326SOL    HW2 6818   0.719   5.724   7.979
68327SOL     OW 6819   6.879  13.407   9.641
68327SOL    HW1 6820   6.811  13.401   9.574
68327SOL    HW2 6821   6.961  13.403   9.593
68328SOL     OW 6822   1.532   7.359   6.312
68328SOL    HW1 6823   1.493   7.418   6.377
68328SOL    HW2 6824   1.626   7.363   6.329
68329SOL     OW 6825   7.822   2.312   6.368
68329SOL    HW1 6826   7.812   2.331   6.274
68329SOL    HW2 6827   7.913   2.283   6.376
68330SOL     OW 6828  12.899   1.001  14.594
68330SOL    HW1 6829  12.944   0.937  14.650
68330SOL    HW2 6830  12.937   0.989  14.508
68331SOL     OW 6831   0.510   5.125   1.957
68331SOL    HW1 6832   0.510   5.201   1.899
68331SOL    HW2 6833   0.422   5.088   1.947
68332SOL     OW 6834   9.743   8.456   3.039
68332SOL    HW1 6835   9.721   8.525   3.102
68332SOL    HW2 6836   9.703   8.485   2.957
68333SOL     OW 6837  10.598   5.916   8.420
68333SOL    HW1 6838  10.513   5.885   8.389
68333SOL    HW2 6839  10.608   5.878   8.507
68334SOL     OW 6840  11.682   8.544   7.384
68334SOL    HW1 6841  11.740   8.563   7.310
68334SOL    HW2 6842  11.729   8.478   7.435
68335SOL     OW 6843  10.789   3.591   4.014
68335SOL    HW1 6844  10.854   3.618   3.949
68335SOL    HW2 6845  10.785   3.496   4.005
68336SOL     OW 6846   6.826   8.914   0.667
68336SOL    HW1 6847   6.892   8.934   0.600
68336SOL    HW2 6848   6.780   8.997   0.681
68337SOL     OW 6849   3.714  14.404   2.649
68337SOL    HW1 6850   3.628  14.444   2.667
68337SOL    HW2 6851   3.714  14.324   2.701
68338SOL     OW 6852   5.851   5.182  12.073
68338SOL    HW1 6853   5.930   5.131  12.094
68338SOL    HW2 6854   5.869   5.270  12.106
68339SOL     OW 6855   6.226   4.901  13.757
68339SOL    HW1 6856   6.196   4.865  13.841
68339SOL    HW2 6857   6.288   4.970  13.780
68340SOL     OW 6858   3.574   9.752  10.059
68340SOL    HW1 6859   3.637   9.700  10.108
68340SOL    HW2 6860   3.608   9.754   9.970
68341SOL     OW 6861  11.988   9.772   1.087
68341SOL    HW1 6862  12.045   9.752   1.162
68341SOL    HW2 6863  11.927   9.838   1.120
68342SOL     OW 6864   5.650   2.562   7.781
68342SOL    HW1 6865   5.706   2.617   7.835
68342SOL    HW2 6866   5.570   2.550   7.833
68343SOL     OW 6867   3.734   6.101   3.839
68343SOL    HW1 6868   3.763   6.165   3.904
68343SOL    HW2 6869   3.796   6.028   3.847
68344SOL     OW 6870  12.726   5.880   9.970
68344SOL    HW1 6871  12.693   5.882   9.880
68344SOL    HW2 6872  12.727   5.787   9.993
68345SOL     OW 6873  10.952  11.239   0.898
68345SOL    HW1 6874  10.982  11.324   0.930
68345SOL    HW2 6875  10.983  11.235   0.808
68346SOL     OW 6876   0.784  10.675   1.671
68346SOL    HW1 6877   0.757  10.652   1.582
68346SOL    HW2 6878   0.750  10.605   1.726
68347SOL     OW 6879   5.062   8.037  14.864
68347SOL    HW1 6880   4.998   7.968  14.844
68347SOL    HW2 6881   5.130   8.026  14.799
68348SOL     OW 6882  13.448   4.558   1.770
68348SOL    HW1 6883  13.523   4.499   1.762
68348SOL    HW2 6884  13.475   4.624   1.834
68349SOL     OW 6885   8.338   6.110  10.047
68349SOL    HW1 6886   8.286   6.114   9.967
68349SOL    HW2 6887   8.369   6.200  10.060
68350SOL     OW 6888   9.034   7.991  12.657
68350SOL    HW1 6889   9.028   8.080  12.623
68350SOL    HW2 6890   9.043   7.936  12.579
68351SOL     OW 6891   5.260   9.739  10.061
68351SOL    HW1 6892   5.347   9.734  10.101
68351SOL    HW2 6893   5.214   9.661  10.093
68352SOL     OW 6894   0.540  10.636   1.907
68352SOL    HW1 6895   0.461  10.590   1.876
68352SOL    HW2 6896   0.609  10.570   1.905
68353SOL     OW 6897  14.169   0.643   3.172
68353SOL    HW1 6898  14.173   0.659   3.266
68353SOL    HW2 6899  14.260   0.625   3.147
68354SOL     OW 6900  14.174  11.656   8.375
68354SOL    HW1 6901  14.221  11.573   8.361
68354SOL    HW2 6902  14.197  11.682   8.464
68355SOL     OW 6903   4.942  13.709   8.023
68355SOL    HW1 6904   5.004  13.742   7.958
68355SOL    HW2 6905   4.909  13.787   8.067
68356SOL     OW 6906   7.145   6.293  10.679
68356SOL    HW1 6907   7.224   6.239  10.671
68356SOL    HW2 6908   7.107   6.294  10.592
68357SOL     OW 6909  12.266   3.755   2.403
68357SOL    HW1 6910  12.206   3.817   2.361
68357SOL    HW2 6911  12.250   3.765   2.497
68358SOL     OW 6912   0.237  12.365   3.407
68358SOL    HW1 6913   0.208  12.287   3.455
68358SOL    HW2 6914   0.312  12.335   3.356
68359SOL     OW 6915  12.568   7.041   9.176
68359SOL    HW1 6916  12.570   7.136   9.188
68359SOL    HW2 6917  12.657   7.012   9.196
68360SOL     OW 6918   5.729   3.512   0.580
68360SOL    HW1 6919   5.718   3.552   0.667
68360SOL    HW2 6920   5.668   3.560   0.524
68361SOL     OW 6921   5.963   1.647  11.475
68361SOL    HW1 6922   5.950   1.601  11.392
68361SOL    HW2 6923   5.918   1.731  11.464
68362SOL     OW 6924   2.080   9.825   4.313
68362SOL    HW1 6925   2.136   9.794   4.242
68362SOL    HW2 6926   2.124   9.795   4.392
68363SOL     OW 6927   6.320  10.943  11.070
68363SOL    HW1 6928   6.415  10.939  11.064
68363SOL    HW2 6929   6.290  10.952  10.979
68364SOL     OW 6930   3.492   3.216  11.611
68364SOL    HW1 6931   3.428   3.275  11.653
68364SOL    HW2 6932   3.444   3.179  11.536
68365SOL     OW 6933  12.455   1.137   8.770
68365SOL    HW1 6934  12.425   1.072   8.707
68365SOL    HW2 6935  12.435   1.221   8.730
68366SOL     OW 6936   4.910   8.499  11.174
68366SOL    HW1 6937   4.928   8.504  11.268
68366SOL    HW2 6938   4.834   8.441  11.167
68367SOL     OW 6939   4.494  14.499   8.754
68367SOL    HW1 6940   4.427  14.430   8.752
68367SOL    HW2 6941   4.515  14.515   8.662
68368SOL     OW 6942   2.754   4.578   3.151
68368SOL    HW1 6943   2.829   4.520   3.139
68368SOL    HW2 6944   2.744   4.622   3.067
68369SOL     OW 6945   2.074   4.334   5.073
68369SOL    HW1 6946   2.061   4.376   4.987
68369SOL    HW2 6947   2.127   4.257   5.054
68370SOL     OW 6948   6.971  11.295   0.084
68370SOL    HW1 6949   6.939  11.279   0.173
68370SOL    HW2 6950   6.908  11.251   0.027
68371SOL     OW 6951   5.108   7.149   0.880
68371SOL    HW1 6952   5.133   7.057   0.884
68371SOL    HW2 6953   5.015   7.149   0.901
68372SOL     OW 6954   7.571   0.369   4.723
68372SOL    HW1 6955   7.645   0.402   4.773
68372SOL    HW2 6956   7.583   0.404   4.635
68373SOL     OW 6957   0.200   0.689   9.354
68373SOL    HW1 6958   0.172   0.623   9.418
68373SOL    HW2 6959   0.270   0.737   9.398
68374SOL     OW 6960   8.374  14.179   4.650
68374SOL    HW1 6961   8.317  14.127   4.594
68374SOL    HW2 6962   8.451  14.124   4.664
68375SOL     OW 6963   3.762   2.334   5.060
68375SOL    HW1 6964   3.672   2.358   5.080
68375SOL    HW2 6965   3.797   2.411   5.015
68376SOL     OW 6966  14.100   8.802  11.159
68376SOL    HW1 6967  14.079   8.846  11.076
68376SOL    HW2 6968  14.189   8.831  11.180
68377SOL     OW 6969   9.183  13.897   0.728
68377SOL    HW1 6970   9.128  13.899   0.806
68377SOL    HW2 6971   9.125  13.864   0.659
68378SOL     OW 6972   4.239   3.604   9.528
68378SOL    HW1 6973   4.225   3.569   9.440
68378SOL    HW2 6974   4.299   3.543   9.570
68379SOL     OW 6975   8.414  11.167   2.167
68379SOL    HW1 6976   8.413  11.079   2.202
68379SOL    HW2 6977   8.377  11.222   2.236
68380SOL     OW 6978   2.747   5.969  12.647
68380SOL    HW1 6979   2.715   5.897  12.592
68380SOL    HW2 6980   2.702   5.958  12.730
68381SOL     OW 6981   7.558   0.016   6.758
68381SOL    HW1 6982   7.539   0.089   6.817
68381SOL    HW2 6983   7.573  14.823   6.816
68382SOL     OW 6984   7.705   8.252  11.116
68382SOL    HW1 6985   7.752   8.308  11.178
68382SOL    HW2 6986   7.667   8.183  11.171
68383SOL     OW 6987   8.910   9.674   6.027
68383SOL    HW1 6988   8.814   9.673   6.017
68383SOL    HW2 6989   8.924   9.722   6.109
68384SOL     OW 6990   9.849  12.576   4.270
68384SOL    HW1 6991   9.938  12.575   4.234
68384SOL    HW2 6992   9.792  12.572   4.193
68385SOL     OW 6993   6.885  10.031  11.723
68385SOL    HW1 6994   6.858   9.951  11.678
68385SOL    HW2 6995   6.968  10.008  11.765
68386SOL     OW 6996  12.444   7.260   4.473
68386SOL    HW1 6997  12.522   7.312   4.458
68386SOL    HW2 6998  12.405   7.248   4.387
68387SOL     OW 6999  10.589   6.534   2.641
68387SOL    HW1 7000  10.566   6.518   2.733
68387SOL    HW2 7001  10.675   6.493   2.630
68388SOL     OW 7002  10.524   4.012  10.544
68388SOL    HW1 7003  10.533   4.107  10.531
68388SOL    HW2 7004  10.475   4.004  10.626
68389SOL     OW 7005   3.264   0.667   3.970
68389SOL    HW1 7006   3.226   0.748   3.936
68389SOL    HW2 7007   3.234   0.599   3.909
68390SOL     OW 7008  11.311   2.359   5.324
68390SOL    HW1 7009  11.228   2.353   5.276
68390SOL    HW2 7010  11.375   2.384   5.257
68391SOL     OW 7011  10.141   3.480   4.388
68391SOL    HW1 7012  10.064   3.533   4.407
68391SOL    HW2 7013  10.126   3.398   4.434
68392SOL     OW 7014   7.724   8.840   6.637
68392SOL    HW1 7015   7.647   8.894   6.621
68392SOL    HW2 7016   7.781   8.857   6.562
68393SOL     OW 7017   3.488  14.852   4.114
68393SOL    HW1 7018   3.463  14.800   4.038
68393SOL    HW2 7019   3.477   0.061   4.086
68394SOL     OW 7020   7.828   7.025  13.936
68394SOL    HW1 7021   7.784   7.009  14.019
68394SOL    HW2 7022   7.903   7.080  13.958
68395SOL     OW 7023   2.702   6.470   3.677
68395SOL    HW1 7024   2.789   6.489   3.644
68395SOL    HW2 7025   2.697   6.516   3.761
68396SOL     OW 7026   1.642   0.866   8.035
68396SOL    HW1 7027   1.663   0.906   8.120
68396SOL    HW2 7028   1.726   0.835   8.001
68397SOL     OW 7029   9.322   7.924   2.902
68397SOL    HW1 7030   9.334   7.910   2.995
68397SOL    HW2 7031   9.287   7.841   2.870
68398SOL     OW 7032   6.497  11.641   0.976
68398SOL    HW1 7033   6.515  11.608   1.064
68398SOL    HW2 7034   6.419  11.696   0.987
68399SOL     OW 7035   8.003   4.146   4.170
68399SOL    HW1 7036   7.982   4.218   4.110
68399SOL    HW2 7037   7.952   4.164   4.248
68400SOL     OW 7038   5.804   7.381   4.936
68400SOL    HW1 7039   5.796   7.395   5.031
68400SOL    HW2 7040   5.766   7.459   4.897
68401SOL     OW 7041  13.862   5.582   2.884
68401SOL    HW1 7042  13.868   5.487   2.873
68401SOL    HW2 7043  13.854   5.595   2.978
68402SOL     OW 7044   7.055  11.604   6.830
68402SOL    HW1 7045   7.055  11.659   6.752
68402SOL    HW2 7046   7.010  11.524   6.804
68403SOL     OW 7047   0.036  11.477  11.460
68403SOL    HW1 7048   0.114  11.496  11.512
68403SOL    HW2 7049   0.042  11.534  11.384
68404SOL     OW 7050   3.588  11.529  11.842
68404SOL    HW1 7051   3.530  11.585  11.791
68404SOL    HW2 7052   3.675  11.569  11.832
68405SOL     OW 7053   6.846   6.300   7.987
68405SOL    HW1 7054   6.833   6.371   7.924
68405SOL    HW2 7055   6.890   6.232   7.936
68406SOL     OW 7056   9.814   4.740   1.278
68406SOL    HW1 7057   9.768   4.665   1.318
68406SOL    HW2 7058   9.767   4.817   1.312
68407SOL     OW 7059   4.945   5.105   4.302
68407SOL    HW1 7060   4.890   5.112   4.224
68407SOL    HW2 7061   4.888   5.063   4.367
68408SOL     OW 7062  11.373   2.531  13.745
68408SOL    HW1 7063  11.405   2.607  13.695
68408SOL    HW2 7064  11.392   2.553  13.836
68409SOL     OW 7065   6.075   4.417   4.465
68409SOL    HW1 7066   6.081   4.427   4.370
68409SOL    HW2 7067   6.146   4.472   4.498
68410SOL     OW 7068   4.379  11.289  13.979
68410SOL    HW1 7069   4.403  11.357  14.041
68410SOL    HW2 7070   4.299  11.322  13.937
68411SOL     OW 7071   5.174  12.751   7.382
68411SOL    HW1 7072   5.146  12.789   7.298
68411SOL    HW2 7073   5.175  12.657   7.365
68412SOL     OW 7074  12.627  10.300   1.124
68412SOL    HW1 7075  12.664  10.323   1.209
68412SOL    HW2 7076  12.701  10.308   1.063
68413SOL     OW 7077  11.900  13.197  14.115
68413SOL    HW1 7078  11.975  13.180  14.058
68413SOL    HW2 7079  11.846  13.259  14.067
68414SOL     OW 7080   5.030  10.061   2.138
68414SOL    HW1 7081   4.985  10.017   2.065
68414SOL    HW2 7082   5.013  10.006   2.214
68415SOL     OW 7083   0.782  12.082   6.235
68415SOL    HW1 7084   0.708  12.102   6.178
68415SOL    HW2 7085   0.847  12.043   6.176
68416SOL     OW 7086   3.139  12.839   0.119
68416SOL    HW1 7087   3.175  12.926   0.132
68416SOL    HW2 7088   3.181  12.808   0.038
68417SOL     OW 7089   7.460   5.480   0.747
68417SOL    HW1 7090   7.450   5.559   0.800
68417SOL    HW2 7091   7.420   5.411   0.800
68418SOL     OW 7092  13.689   7.471   4.528
68418SOL    HW1 7093  13.748   7.467   4.604
68418SOL    HW2 7094  13.604   7.493   4.566
68419SOL     OW 7095  14.165   6.034   4.330
68419SOL    HW1 7096  14.119   6.104   4.376
68419SOL    HW2 7097  14.102   5.962   4.326
68420SOL     OW 7098   7.263   9.214  14.223
68420SOL    HW1 7099   7.293   9.143  14.280
68420SOL    HW2 7100   7.217   9.169  14.152
68421SOL     OW 7101  10.832  11.467  11.319
68421SOL    HW1 7102  10.845  11.492  11.228
68421SOL    HW2 7103  10.737  11.469  11.332
68422SOL     OW 7104   3.964   1.002   3.075
68422SOL    HW1 7105   3.977   1.060   3.149
68422SOL    HW2 7106   4.035   0.938   3.082
68423SOL     OW 7107   3.217   4.572   5.254
68423SOL    HW1 7108   3.285   4.563   5.320
68423SOL    HW2 7109   3.160   4.496   5.268
68424SOL     OW 7110   9.520  12.668   9.263
68424SOL    HW1 7111   9.446  12.610   9.248
68424SOL    HW2 7112   9.575  12.622   9.327
68425SOL     OW 7113  14.251   4.496   6.614
68425SOL    HW1 7114  14.266   4.408   6.578
68425SOL    HW2 7115  14.199   4.480   6.693
68426SOL     OW 7116  13.606  14.053  14.169
68426SOL    HW1 7117  13.552  13.992  14.220
68426SOL    HW2 7118  13.552  14.132  14.162
68427SOL     OW 7119   3.414   3.392  13.179
68427SOL    HW1 7120   3.389   3.412  13.089
68427SOL    HW2 7121   3.346   3.331  13.209
68428SOL     OW 7122   2.211  13.952   2.643
68428SOL    HW1 7123   2.240  13.963   2.734
68428SOL    HW2 7124   2.148  14.023   2.629
68429SOL     OW 7125   4.857   5.125   1.210
68429SOL    HW1 7126   4.779   5.073   1.230
68429SOL    HW2 7127   4.906   5.073   1.147
68430SOL     OW 7128   1.895  12.151  14.509
68430SOL    HW1 7129   1.911  12.131  14.417
68430SOL    HW2 7130   1.888  12.246  14.513
68431SOL     OW 7131   7.443   6.697   3.380
68431SOL    HW1 7132   7.481   6.784   3.370
68431SOL    HW2 7133   7.518   6.639   3.392
68432SOL     OW 7134   2.713   9.517   9.117
68432SOL    HW1 7135   2.799   9.520   9.158
68432SOL    HW2 7136   2.661   9.460   9.174
68433SOL     OW 7137  14.114   5.078   8.160
68433SOL    HW1 7138  14.139   4.986   8.163
68433SOL    HW2 7139  14.032   5.080   8.109
68434SOL     OW 7140  12.483   6.799   0.572
68434SOL    HW1 7141  12.397   6.758   0.584
68434SOL    HW2 7142  12.506   6.829   0.660
68435SOL     OW 7143   5.151   7.084  11.397
68435SOL    HW1 7144   5.188   7.068  11.310
68435SOL    HW2 7145   5.224   7.068  11.457
68436SOL     OW 7146  11.352   2.323   8.876
68436SOL    HW1 7147  11.289   2.356   8.812
68436SOL    HW2 7148  11.415   2.394   8.885
68437SOL     OW 7149  12.739   5.019   5.260
68437SOL    HW1 7150  12.653   4.979   5.250
68437SOL    HW2 7151  12.788   4.960   5.317
68438SOL     OW 7152   0.393  12.099   6.809
68438SOL    HW1 7153   0.371  12.159   6.738
68438SOL    HW2 7154   0.319  12.104   6.869
68439SOL     OW 7155  11.364   1.779   4.183
68439SOL    HW1 7156  11.283   1.800   4.229
68439SOL    HW2 7157  11.414   1.727   4.246
68440SOL     OW 7158  10.987  11.775  13.950
68440SOL    HW1 7159  10.983  11.859  13.995
68440SOL    HW2 7160  10.897  11.758  13.923
68441SOL     OW 7161  13.659   6.784   5.346
68441SOL    HW1 7162  13.744   6.799   5.304
68441SOL    HW2 7163  13.682   6.748   5.432
68442SOL     OW 7164   1.608   9.866  13.759
68442SOL    HW1 7165   1.652   9.785  13.732
68442SOL    HW2 7166   1.526   9.866  13.709
68443SOL     OW 7167   3.752   9.683   1.876
68443SOL    HW1 7168   3.815   9.657   1.943
68443SOL    HW2 7169   3.686   9.733   1.923
68444SOL     OW 7170   3.129   6.107  13.754
68444SOL    HW1 7171   3.209   6.069  13.790
68444SOL    HW2 7172   3.112   6.057  13.675
68445SOL     OW 7173   3.960   7.766  12.080
68445SOL    HW1 7174   4.011   7.805  12.008
68445SOL    HW2 7175   3.913   7.693  12.040
68446SOL     OW 7176  14.393  10.319   7.258
68446SOL    HW1 7177  14.304  10.326   7.222
68446SOL    HW2 7178  14.411  10.226   7.257
68447SOL     OW 7179   9.400   2.726   9.581
68447SOL    HW1 7180   9.377   2.680   9.500
68447SOL    HW2 7181   9.398   2.657   9.648
68448SOL     OW 7182   5.180   7.529  12.891
68448SOL    HW1 7183   5.265   7.493  12.917
68448SOL    HW2 7184   5.140   7.460  12.838
68449SOL     OW 7185   7.880  11.115   8.419
68449SOL    HW1 7186   7.897  11.173   8.493
68449SOL    HW2 7187   7.787  11.093   8.427
68450SOL     OW 7188   3.639  12.279   0.355
68450SOL    HW1 7189   3.602  12.367   0.358
68450SOL    HW2 7190   3.568  12.223   0.325
68451SOL     OW 7191   7.134   2.475  14.150
68451SOL    HW1 7192   7.104   2.565  14.157
68451SOL    HW2 7193   7.221   2.481  14.109
68452SOL     OW 7194  10.223  12.028   0.366
68452SOL    HW1 7195  10.246  12.099   0.426
68452SOL    HW2 7196  10.214  11.951   0.423
68453SOL     OW 7197  13.998   3.653   7.574
68453SOL    HW1 7198  13.904   3.647   7.555
68453SOL    HW2 7199  14.037   3.681   7.492
68454SOL     OW 7200  12.245  14.694   2.864
68454SOL    HW1 7201  12.283  14.754   2.928
68454SOL    HW2 7202  12.289  14.610   2.881
68455SOL     OW 7203   1.327   7.233   8.009
68455SOL    HW1 7204   1.403   7.283   7.979
68455SOL    HW2 7205   1.364   7.153   8.047
68456SOL     OW 7206  13.908  11.653  11.671
68456SOL    HW1 7207  13.953  11.703  11.738
68456SOL    HW2 7208  13.919  11.704  11.591
68457SOL     OW 7209   2.199   1.901   5.938
68457SOL    HW1 7210   2.292   1.924   5.926
68457SOL    HW2 7211   2.184   1.830   5.875
68458SOL     OW 7212   1.196   1.716   5.238
68458SOL    HW1 7213   1.283   1.683   5.216
68458SOL    HW2 7214   1.159   1.745   5.155
68459SOL     OW 7215   5.120   8.593   9.530
68459SOL    HW1 7216   5.035   8.565   9.496
68459SOL    HW2 7217   5.183   8.551   9.472
68460SOL     OW 7218  13.149   2.942   7.696
68460SOL    HW1 7219  13.195   3.014   7.653
68460SOL    HW2 7220  13.210   2.869   7.692
68461SOL     OW 7221  14.250   3.732   5.327
68461SOL    HW1 7222  14.263   3.824   5.304
68461SOL    HW2 7223  14.296   3.683   5.259
68462SOL     OW 7224  14.618  14.365  11.658
68462SOL    HW1 7225  14.696  14.362  11.714
68462SOL    HW2 7226  14.569  14.440  11.690
68463SOL     OW 7227   9.813  11.172   4.545
68463SOL    HW1 7228   9.799  11.233   4.472
68463SOL    HW2 7229   9.853  11.095   4.505
68464SOL     OW 7230   8.321   9.671   4.435
68464SOL    HW1 7231   8.320   9.588   4.482
68464SOL    HW2 7232   8.270   9.654   4.356
68465SOL     OW 7233  14.457   1.965   1.036
68465SOL    HW1 7234  14.370   1.990   1.002
68465SOL    HW2 7235  14.441   1.887   1.088
68466SOL     OW 7236   4.292   3.934   4.564
68466SOL    HW1 7237   4.295   3.954   4.471
68466SOL    HW2 7238   4.230   3.997   4.601
68467SOL     OW 7239   1.135   9.027   7.667
68467SOL    HW1 7240   1.091   9.009   7.584
68467SOL    HW2 7241   1.154   9.121   7.664
68468SOL     OW 7242  12.111   1.950   9.103
68468SOL    HW1 7243  12.158   1.876   9.141
68468SOL    HW2 7244  12.132   1.945   9.009
68469SOL     OW 7245   3.349  11.836   8.252
68469SOL    HW1 7246   3.347  11.761   8.311
68469SOL    HW2 7247   3.295  11.809   8.177
68470SOL     OW 7248   6.088  14.542   8.386
68470SOL    HW1 7249   6.054  14.504   8.305
68470SOL    HW2 7250   6.015  14.592   8.421
68471SOL     OW 7251  11.979  10.229   2.871
68471SOL    HW1 7252  12.075  10.236   2.871
68471SOL    HW2 7253  11.959  10.177   2.794
68472SOL     OW 7254   9.262   9.518   7.394
68472SOL    HW1 7255   9.216   9.538   7.475
68472SOL    HW2 7256   9.354   9.508   7.420
68473SOL     OW 7257  14.066   5.193   4.854
68473SOL    HW1 7258  14.142   5.225   4.805
68473SOL    HW2 7259  14.095   5.110   4.892
68474SOL     OW 7260  11.660   3.756  12.987
68474SOL    HW1 7261  11.725   3.699  12.948
68474SOL    HW2 7262  11.684   3.844  12.957
68475SOL     OW 7263  12.084   5.547   3.225
68475SOL    HW1 7264  12.086   5.641   3.239
68475SOL    HW2 7265  12.174   5.525   3.199
68476SOL     OW 7266   0.155   1.064   2.018
68476SOL    HW1 7267   0.081   1.025   2.064
68476SOL    HW2 7268   0.185   1.134   2.076
68477SOL     OW 7269   7.820   1.980   0.367
68477SOL    HW1 7270   7.822   1.885   0.369
68477SOL    HW2 7271   7.834   2.003   0.275
68478SOL     OW 7272  13.778   3.541   1.023
68478SOL    HW1 7273  13.731   3.514   0.944
68478SOL    HW2 7274  13.767   3.636   1.026
68479SOL     OW 7275  11.056  10.252   3.585
68479SOL    HW1 7276  11.138  10.209   3.611
68479SOL    HW2 7277  11.073  10.345   3.595
68480SOL     OW 7278  12.141   9.878   0.762
68480SOL    HW1 7279  12.129   9.796   0.810
68480SOL    HW2 7280  12.105   9.946   0.819
68481SOL     OW 7281   6.695   7.809   5.381
68481SOL    HW1 7282   6.769   7.749   5.375
68481SOL    HW2 7283   6.659   7.795   5.468
68482SOL     OW 7284   2.214   5.044  11.661
68482SOL    HW1 7285   2.149   5.038  11.731
68482SOL    HW2 7286   2.187   4.978  11.597
68483SOL     OW 7287   0.796  12.574  11.253
68483SOL    HW1 7288   0.889  12.564  11.273
68483SOL    HW2 7289   0.789  12.553  11.160
68484SOL     OW 7290   0.570   5.087   8.191
68484SOL    HW1 7291   0.547   5.048   8.275
68484SOL    HW2 7292   0.662   5.064   8.179
68485SOL     OW 7293  11.881   6.536  11.958
68485SOL    HW1 7294  11.821   6.567  12.025
68485SOL    HW2 7295  11.937   6.611  11.938
68486SOL     OW 7296   4.581  11.926  12.226
68486SOL    HW1 7297   4.521  11.945  12.298
68486SOL    HW2 7298   4.573  11.831  12.214
68487SOL     OW 7299   8.494   9.005   9.929
68487SOL    HW1 7300   8.589   8.996   9.929
68487SOL    HW2 7301   8.462   8.918   9.906
68488SOL     OW 7302   5.582   6.238  14.071
68488SOL    HW1 7303   5.621   6.314  14.026
68488SOL    HW2 7304   5.506   6.215  14.017
68489SOL     OW 7305   5.731   4.132  14.423
68489SOL    HW1 7306   5.658   4.181  14.384
68489SOL    HW2 7307   5.748   4.176  14.506
68490SOL     OW 7308  10.085   1.553   0.639
68490SOL    HW1 7309  10.023   1.579   0.707
68490SOL    HW2 7310  10.165   1.529   0.686
68491SOL     OW 7311   4.846   8.779  10.041
68491SOL    HW1 7312   4.848   8.874  10.051
68491SOL    HW2 7313   4.887   8.746  10.121
68492SOL     OW 7314  12.020   4.861  13.665
68492SOL    HW1 7315  12.055   4.950  13.665
68492SOL    HW2 7316  12.097   4.804  13.667
68493SOL     OW 7317  10.373   4.944   9.566
68493SOL    HW1 7318  10.395   4.867   9.619
68493SOL    HW2 7319  10.318   4.997   9.623
68494SOL     OW 7320  12.505  11.859   0.977
68494SOL    HW1 7321  12.599  11.840   0.980
68494SOL    HW2 7322  12.465  11.787   1.027
68495SOL     OW 7323   3.467  12.224   1.076
68495SOL    HW1 7324   3.549  12.182   1.102
68495SOL    HW2 7325   3.491  12.281   1.002
68496SOL     OW 7326   8.523   7.187  12.020
68496SOL    HW1 7327   8.443   7.164  11.972
68496SOL    HW2 7328   8.498   7.261  12.075
68497SOL     OW 7329   1.354   8.419   2.668
68497SOL    HW1 7330   1.277   8.473   2.653
68497SOL    HW2 7331   1.420   8.480   2.703
68498SOL     OW 7332   6.916   9.582  12.036
68498SOL    HW1 7333   7.008   9.558  12.043
68498SOL    HW2 7334   6.873   9.531  12.104
68499SOL     OW 7335  10.661   6.203  13.701
68499SOL    HW1 7336  10.714   6.124  13.707
68499SOL    HW2 7337  10.594   6.193  13.769
68500SOL     OW 7338  13.836   3.085   8.902
68500SOL    HW1 7339  13.876   3.011   8.946
68500SOL    HW2 7340  13.812   3.146   8.972
68501SOL     OW 7341   5.808   3.996   6.019
68501SOL    HW1 7342   5.853   3.911   6.022
68501SOL    HW2 7343   5.715   3.975   6.025
68502SOL     OW 7344  11.968  11.291   2.797
68502SOL    HW1 7345  11.880  11.268   2.768
68502SOL    HW2 7346  11.975  11.254   2.885
68503SOL     OW 7347  12.028   3.116   0.494
68503SOL    HW1 7348  11.987   3.104   0.408
68503SOL    HW2 7349  11.955   3.132   0.554
68504SOL     OW 7350  10.992   1.056   5.053
68504SOL    HW1 7351  10.940   1.018   4.982
68504SOL    HW2 7352  10.926   1.088   5.115
68505SOL     OW 7353  13.270   9.493   2.039
68505SOL    HW1 7354  13.312   9.526   2.119
68505SOL    HW2 7355  13.341   9.490   1.974
68506SOL     OW 7356   7.060   0.297  13.084
68506SOL    HW1 7357   7.081   0.316  13.175
68506SOL    HW2 7358   6.977   0.250  13.088
68507SOL     OW 7359   3.663  14.657   0.553
68507SOL    HW1 7360   3.666  14.749   0.526
68507SOL    HW2 7361   3.572  14.630   0.537
68508SOL     OW 7362  11.940  11.902   4.398
68508SOL    HW1 7363  11.918  11.832   4.336
68508SOL    HW2 7364  11.861  11.912   4.451
68509SOL     OW 7365  12.369   3.073   8.603
68509SOL    HW1 7366  12.434   3.110   8.663
68509SOL    HW2 7367  12.409   3.083   8.516
68510SOL     OW 7368   1.586   7.125   2.578
68510SOL    HW1 7369   1.664   7.176   2.601
68510SOL    HW2 7370   1.589   7.120   2.482
68511SOL     OW 7371   3.174  11.650   5.595
68511SOL    HW1 7372   3.251  11.593   5.604
68511SOL    HW2 7373   3.202  11.720   5.536
68512SOL     OW 7374   2.193   8.683   5.113
68512SOL    HW1 7375   2.102   8.654   5.114
68512SOL    HW2 7376   2.207   8.716   5.024
68513SOL     OW 7377  14.253  12.788   2.210
68513SOL    HW1 7378  14.317  12.852   2.240
68513SOL    HW2 7379  14.227  12.818   2.123
68514SOL     OW 7380   9.188  13.489   1.181
68514SOL    HW1 7381   9.181  13.470   1.087
68514SOL    HW2 7382   9.273  13.532   1.190
68515SOL     OW 7383   2.616   7.600   2.825
68515SOL    HW1 7384   2.664   7.523   2.854
68515SOL    HW2 7385   2.675   7.643   2.763
68516SOL     OW 7386   4.734   1.841  12.767
68516SOL    HW1 7387   4.721   1.783  12.842
68516SOL    HW2 7388   4.826   1.831  12.744
68517SOL     OW 7389   8.583   8.928   0.837
68517SOL    HW1 7390   8.501   8.890   0.806
68517SOL    HW2 7391   8.583   9.017   0.803
68518SOL     OW 7392  11.818   7.291   9.605
68518SOL    HW1 7393  11.778   7.370   9.569
68518SOL    HW2 7394  11.744   7.232   9.619
68519SOL     OW 7395   0.657   5.717   1.042
68519SOL    HW1 7396   0.743   5.711   1.085
68519SOL    HW2 7397   0.677   5.723   0.949
68520SOL     OW 7398   5.773   1.769  10.363
68520SOL    HW1 7399   5.742   1.846  10.411
68520SOL    HW2 7400   5.869   1.775  10.368
68521SOL     OW 7401  12.600  10.635  11.989
68521SOL    HW1 7402  12.625  10.698  12.056
68521SOL    HW2 7403  12.663  10.648  11.918
68522SOL     OW 7404   7.251   3.299   7.628
68522SOL    HW1 7405   7.190   3.294   7.554
68522SOL    HW2 7406   7.215   3.238   7.693
68523SOL     OW 7407   6.555  14.613  13.991
68523SOL    HW1 7408   6.615  14.544  14.018
68523SOL    HW2 7409   6.472  14.567  13.976
68524SOL     OW 7410  11.910  12.518   3.806
68524SOL    HW1 7411  11.887  12.437   3.852
68524SOL    HW2 7412  11.852  12.520   3.730
68525SOL     OW 7413   1.392   4.272   9.470
68525SOL    HW1 7414   1.402   4.202   9.534
68525SOL    HW2 7415   1.309   4.252   9.426
68526SOL     OW 7416   6.107   6.690  10.972
68526SOL    HW1 7417   6.152   6.772  10.951
68526SOL    HW2 7418   6.032   6.717  11.025
68527SOL     OW 7419   0.402  10.074   5.929
68527SOL    HW1 7420   0.373  10.017   6.000
68527SOL    HW2 7421   0.424  10.156   5.973
68528SOL     OW 7422   7.385   4.069   8.638
68528SOL    HW1 7423   7.351   4.153   8.606
68528SOL    HW2 7424   7.449   4.042   8.571
68529SOL     OW 7425  14.128   8.427   3.901
68529SOL    HW1 7426  14.135   8.511   3.854
68529SOL    HW2 7427  14.094   8.451   3.987
68530SOL     OW 7428  14.822   7.918   5.591
68530SOL    HW1 7429  14.766   7.882   5.522
68530SOL    HW2 7430  14.769   7.910   5.671
68531SOL     OW 7431   2.486   8.977   1.932
68531SOL    HW1 7432   2.470   9.036   2.005
68531SOL    HW2 7433   2.553   8.917   1.963
68532SOL     OW 7434  13.034   1.163   3.386
68532SOL    HW1 7435  13.115   1.173   3.437
68532SOL    HW2 7436  13.017   1.251   3.351
68533SOL     OW 7437  11.886   1.879  10.669
68533SOL    HW1 7438  11.895   1.785  10.657
68533SOL    HW2 7439  11.794   1.892  10.690
68534SOL     OW 7440   7.466   3.836  13.264
68534SOL    HW1 7441   7.456   3.749  13.303
68534SOL    HW2 7442   7.472   3.818  13.170
68535SOL     OW 7443   1.942  14.553   5.949
68535SOL    HW1 7444   1.875  14.523   5.889
68535SOL    HW2 7445   1.949  14.648   5.933
68536SOL     OW 7446   1.267   4.968   1.161
68536SOL    HW1 7447   1.253   4.886   1.113
68536SOL    HW2 7448   1.183   5.014   1.154
68537SOL     OW 7449  13.565   1.226  11.379
68537SOL    HW1 7450  13.559   1.186  11.466
68537SOL    HW2 7451  13.485   1.199  11.334
68538SOL     OW 7452   1.004   7.326   5.247
68538SOL    HW1 7453   0.977   7.234   5.256
68538SOL    HW2 7454   1.059   7.327   5.168
68539SOL     OW 7455   6.050   9.109   8.575
68539SOL    HW1 7456   6.093   9.190   8.604
68539SOL    HW2 7457   6.081   9.096   8.486
68540SOL     OW 7458  12.494   8.947  11.642
68540SOL    HW1 7459  12.541   9.008  11.586
68540SOL    HW2 7460  12.407   8.986  11.654
68541SOL     OW 7461  12.359   9.715   6.754
68541SOL    HW1 7462  12.424   9.746   6.690
68541SOL    HW2 7463  12.367   9.776   6.827
68542SOL     OW 7464   1.977   9.884   8.261
68542SOL    HW1 7465   2.003   9.850   8.175
68542SOL    HW2 7466   2.039   9.955   8.278
68543SOL     OW 7467   0.621   4.480  13.069
68543SOL    HW1 7468   0.663   4.551  13.118
68543SOL    HW2 7469   0.529   4.505  13.065
68544SOL     OW 7470   3.843   9.756  14.592
68544SOL    HW1 7471   3.778   9.690  14.570
68544SOL    HW2 7472   3.793   9.837  14.602
68545SOL     OW 7473   3.699   0.985   9.754
68545SOL    HW1 7474   3.675   1.077   9.741
68545SOL    HW2 7475   3.661   0.962   9.838
68546SOL     OW 7476   5.478   5.357  12.455
68546SOL    HW1 7477   5.457   5.361  12.548
68546SOL    HW2 7478   5.484   5.264  12.435
68547SOL     OW 7479   4.028  11.902  13.510
68547SOL    HW1 7480   4.087  11.976  13.506
68547SOL    HW2 7481   3.941  11.939  13.491
68548SOL     OW 7482   2.602   4.872   5.389
68548SOL    HW1 7483   2.685   4.901   5.352
68548SOL    HW2 7484   2.535   4.907   5.330
68549SOL     OW 7485  10.632   4.213  13.581
68549SOL    HW1 7486  10.568   4.219  13.652
68549SOL    HW2 7487  10.712   4.182  13.624
68550SOL     OW 7488   9.629   8.650  14.413
68550SOL    HW1 7489   9.667   8.562  14.416
68550SOL    HW2 7490   9.651   8.683  14.326
68551SOL     OW 7491  10.783   0.757   1.187
68551SOL    HW1 7492  10.809   0.728   1.100
68551SOL    HW2 7493  10.689   0.768   1.182
68552SOL     OW 7494   7.927   0.970   0.842
68552SOL    HW1 7495   7.988   0.898   0.856
68552SOL    HW2 7496   7.846   0.941   0.883
68553SOL     OW 7497  11.132   2.417  11.835
68553SOL    HW1 7498  11.168   2.442  11.749
68553SOL    HW2 7499  11.142   2.496  11.889
68554SOL     OW 7500  14.472   0.719  13.639
68554SOL    HW1 7501  14.423   0.796  13.669
68554SOL    HW2 7502  14.498   0.674  13.719
68555SOL     OW 7503   9.588  14.156   1.382
68555SOL    HW1 7504   9.536  14.189   1.455
68555SOL    HW2 7505   9.543  14.077   1.354
68556SOL     OW 7506   3.195   5.628   7.070
68556SOL    HW1 7507   3.136   5.606   6.998
68556SOL    HW2 7508   3.147   5.606   7.149
68557SOL     OW 7509   7.579  13.308  12.365
68557SOL    HW1 7510   7.611  13.260  12.441
68557SOL    HW2 7511   7.496  13.346  12.393
68558SOL     OW 7512  12.970   8.100   6.695
68558SOL    HW1 7513  12.901   8.113   6.760
68558SOL    HW2 7514  13.036   8.047   6.740
68559SOL     OW 7515  12.711  11.066   1.393
68559SOL    HW1 7516  12.773  10.994   1.380
68559SOL    HW2 7517  12.681  11.055   1.483
68560SOL     OW 7518   3.793   6.325  12.002
68560SOL    HW1 7519   3.841   6.385  12.058
68560SOL    HW2 7520   3.814   6.238  12.036
68561SOL     OW 7521   7.343   0.300  13.520
68561SOL    HW1 7522   7.254   0.304  13.486
68561SOL    HW2 7523   7.363   0.206  13.526
68562SOL     OW 7524   1.793   6.713   4.102
68562SOL    HW1 7525   1.731   6.687   4.171
68562SOL    HW2 7526   1.878   6.681   4.133
68563SOL     OW 7527  10.277   3.360   6.277
68563SOL    HW1 7528  10.330   3.435   6.303
68563SOL    HW2 7529  10.187   3.385   6.298
68564SOL     OW 7530  14.163   8.111   0.535
68564SOL    HW1 7531  14.193   8.178   0.597
68564SOL    HW2 7532  14.241   8.090   0.484
68565SOL     OW 7533  10.736  13.038   5.046
68565SOL    HW1 7534  10.769  13.025   5.135
68565SOL    HW2 7535  10.669  12.971   5.035
68566SOL     OW 7536  13.959  14.648   2.690
68566SOL    HW1 7537  13.892  14.703   2.650
68566SOL    HW2 7538  14.039  14.700   2.683
68567SOL     OW 7539  12.759  13.180  11.290
68567SOL    HW1 7540  12.690  13.241  11.264
68567SOL    HW2 7541  12.830  13.195  11.227
68568SOL     OW 7542   7.685   9.234   0.664
68568SOL    HW1 7543   7.729   9.319   0.666
68568SOL    HW2 7544   7.680   9.208   0.755
68569SOL     OW 7545   7.255   8.067   9.159
68569SOL    HW1 7546   7.290   8.147   9.199
68569SOL    HW2 7547   7.198   8.030   9.227
68570SOL     OW 7548   7.161   7.736  14.660
68570SOL    HW1 7549   7.134   7.802  14.724
68570SOL    HW2 7550   7.250   7.713  14.685
68571SOL     OW 7551   9.497  12.271  11.590
68571SOL    HW1 7552   9.438  12.198  11.605
68571SOL    HW2 7553   9.472  12.337  11.655
68572SOL     OW 7554   1.038   3.483  14.264
68572SOL    HW1 7555   1.089   3.402  14.264
68572SOL    HW2 7556   0.990   3.481  14.181
68573SOL     OW 7557   9.150   3.016   6.495
68573SOL    HW1 7558   9.144   3.067   6.414
68573SOL    HW2 7559   9.180   3.079   6.560
68574SOL     OW 7560  10.729  14.049   0.825
68574SOL    HW1 7561  10.719  14.138   0.859
68574SOL    HW2 7562  10.758  14.062   0.734
68575SOL     OW 7563   2.534   3.822  14.860
68575SOL    HW1 7564   2.571   3.789  14.778
68575SOL    HW2 7565   2.556   3.916  14.859
68576SOL     OW 7566  10.491   6.723   9.830
68576SOL    HW1 7567  10.419   6.783   9.808
68576SOL    HW2 7568  10.522   6.754   9.915
68577SOL     OW 7569   1.818   8.298   2.401
68577SOL    HW1 7570   1.794   8.336   2.485
68577SOL    HW2 7571   1.762   8.220   2.393
68578SOL     OW 7572   6.883   0.205   1.563
68578SOL    HW1 7573   6.798   0.237   1.592
68578SOL    HW2 7574   6.882   0.217   1.468
68579SOL     OW 7575   4.772   4.948  11.620
68579SOL    HW1 7576   4.680   4.929  11.642
68579SOL    HW2 7577   4.813   4.971  11.703
68580SOL     OW 7578  13.376  13.348  12.269
68580SOL    HW1 7579  13.462  13.330  12.308
68580SOL    HW2 7580  13.316  13.290  12.317
68581SOL     OW 7581   8.804  14.537  11.113
68581SOL    HW1 7582   8.840  14.568  11.030
68581SOL    HW2 7583   8.799  14.442  11.102
68582SOL     OW 7584   6.544   9.503   8.092
68582SOL    HW1 7585   6.505   9.417   8.109
68582SOL    HW2 7586   6.528   9.552   8.172
68583SOL     OW 7587   9.363   5.073   1.293
68583SOL    HW1 7588   9.422   5.131   1.246
68583SOL    HW2 7589   9.375   5.095   1.386
68584SOL     OW 7590   8.587   4.113   1.798
68584SOL    HW1 7591   8.589   4.026   1.756
68584SOL    HW2 7592   8.510   4.155   1.760
68585SOL     OW 7593   3.870  10.092  14.407
68585SOL    HW1 7594   3.853   9.999  14.419
68585SOL    HW2 7595   3.964  10.097  14.391
68586SOL     OW 7596   7.958   9.416   5.495
68586SOL    HW1 7597   8.022   9.394   5.562
68586SOL    HW2 7598   7.873   9.397   5.535
68587SOL     OW 7599  10.867  14.391   2.850
68587SOL    HW1 7600  10.831  14.320   2.902
68587SOL    HW2 7601  10.918  14.348   2.781
68588SOL     OW 7602   7.293   6.120   3.191
68588SOL    HW1 7603   7.362   6.173   3.151
68588SOL    HW2 7604   7.217   6.177   3.194
68589SOL     OW 7605  13.914   5.448   9.876
68589SOL    HW1 7606  13.970   5.523   9.858
68589SOL    HW2 7607  13.933   5.427   9.968
68590SOL     OW 7608   9.458   7.271   7.354
68590SOL    HW1 7609   9.455   7.365   7.369
68590SOL    HW2 7610   9.423   7.233   7.434
68591SOL     OW 7611  14.610   8.740   7.407
68591SOL    HW1 7612  14.526   8.711   7.371
68591SOL    HW2 7613  14.675   8.689   7.359
68592SOL     OW 7614   5.362  11.042   0.828
68592SOL    HW1 7615   5.341  11.134   0.813
68592SOL    HW2 7616   5.328  10.996   0.751
68593SOL     OW 7617   2.509   8.769   6.017
68593SOL    HW1 7618   2.572   8.710   5.976
68593SOL    HW2 7619   2.554   8.854   6.019
68594SOL     OW 7620   4.375   4.544   5.100
68594SOL    HW1 7621   4.410   4.457   5.081
68594SOL    HW2 7622   4.288   4.544   5.058
68595SOL     OW 7623   4.010  14.296   3.090
68595SOL    HW1 7624   3.937  14.348   3.055
68595SOL    HW2 7625   4.001  14.302   3.185
68596SOL     OW 7626  11.993   1.636   5.234
68596SOL    HW1 7627  12.055   1.579   5.281
68596SOL    HW2 7628  12.042   1.664   5.156
68597SOL     OW 7629   0.844  10.715  13.188
68597SOL    HW1 7630   0.884  10.777  13.250
68597SOL    HW2 7631   0.898  10.636  13.197
68598SOL     OW 7632   0.742  10.600   1.422
68598SOL    HW1 7633   0.746  10.662   1.349
68598SOL    HW2 7634   0.815  10.540   1.406
68599SOL     OW 7635   3.422   3.477  11.415
68599SOL    HW1 7636   3.477   3.482  11.494
68599SOL    HW2 7637   3.393   3.567  11.401
68600SOL     OW 7638   4.765   3.707   6.383
68600SOL    HW1 7639   4.677   3.744   6.395
68600SOL    HW2 7640   4.823   3.782   6.382
68601SOL     OW 7641   8.624  11.479   7.048
68601SOL    HW1 7642   8.618  11.412   6.979
68601SOL    HW2 7643   8.543  11.471   7.097
68602SOL     OW 7644   3.651   4.353  12.631
68602SOL    HW1 7645   3.667   4.261  12.651
68602SOL    HW2 7646   3.706   4.371  12.555
68603SOL     OW 7647  12.217   8.880   2.675
68603SOL    HW1 7648  12.198   8.853   2.765
68603SOL    HW2 7649  12.137   8.924   2.646
68604SOL     OW 7650   6.507   8.341  12.783
68604SOL    HW1 7651   6.549   8.400  12.845
68604SOL    HW2 7652   6.431   8.390  12.751
68605SOL     OW 7653  10.631   6.685  12.038
68605SOL    HW1 7654  10.678   6.668  12.119
68605SOL    HW2 7655  10.596   6.774  12.049
68606SOL     OW 7656   8.939   3.313  10.566
68606SOL    HW1 7657   9.026   3.302  10.604
68606SOL    HW2 7658   8.939   3.404  10.534
68607SOL     OW 7659   1.217   4.324   5.236
68607SOL    HW1 7660   1.232   4.236   5.269
68607SOL    HW2 7661   1.141   4.355   5.285
68608SOL     OW 7662   4.239  13.130  10.748
68608SOL    HW1 7663   4.303  13.201  10.742
68608SOL    HW2 7664   4.157  13.175  10.768
68609SOL     OW 7665   5.230   7.918   1.431
68609SOL    HW1 7666   5.277   7.992   1.394
68609SOL    HW2 7667   5.187   7.877   1.356
68610SOL     OW 7668   8.063  13.888  10.685
68610SOL    HW1 7669   7.988  13.878  10.744
68610SOL    HW2 7670   8.075  13.801  10.647
68611SOL     OW 7671   6.581  14.763  14.265
68611SOL    HW1 7672   6.561  14.752  14.172
68611SOL    HW2 7673   6.571  14.675  14.302
68612SOL     OW 7674   8.019   6.145   7.822
68612SOL    HW1 7675   8.047   6.236   7.814
68612SOL    HW2 7676   7.992   6.120   7.734
68613SOL     OW 7677  13.555   8.918   3.048
68613SOL    HW1 7678  13.460   8.926   3.041
68613SOL    HW2 7679  13.584   8.902   2.958
68614SOL     OW 7680  12.048   6.053  14.590
68614SOL    HW1 7681  11.998   6.024  14.667
68614SOL    HW2 7682  11.986   6.048  14.518
68615SOL     OW 7683   6.448   3.047  11.626
68615SOL    HW1 7684   6.384   3.020  11.559
68615SOL    HW2 7685   6.395   3.085  11.696
68616SOL     OW 7686   4.936   0.822   6.189
68616SOL    HW1 7687   4.979   0.741   6.163
68616SOL    HW2 7688   4.973   0.843   6.275
68617SOL     OW 7689   1.729  13.970   4.557
68617SOL    HW1 7690   1.762  13.994   4.644
68617SOL    HW2 7691   1.711  13.876   4.563
68618SOL     OW 7692  13.202   9.117   1.366
68618SOL    HW1 7693  13.169   9.128   1.455
68618SOL    HW2 7694  13.166   9.033   1.338
68619SOL     OW 7695  12.810  11.998   3.029
68619SOL    HW1 7696  12.807  11.902   3.027
68619SOL    HW2 7697  12.822  12.024   2.938
68620SOL     OW 7698   0.475   8.626   4.537
68620SOL    HW1 7699   0.539   8.570   4.494
68620SOL    HW2 7700   0.488   8.712   4.499
68621SOL     OW 7701   5.948   3.807  10.307
68621SOL    HW1 7702   5.978   3.743  10.243
68621SOL    HW2 7703   5.861   3.777  10.333
68622SOL     OW 7704   6.357   4.998  10.646
68622SOL    HW1 7705   6.444   4.957  10.650
68622SOL    HW2 7706   6.375   5.091  10.636
68623SOL     OW 7707   6.992  10.874   6.010
68623SOL    HW1 7708   6.968  10.859   6.101
68623SOL    HW2 7709   6.923  10.932   5.977
68624SOL     OW 7710   7.708   1.226   3.541
68624SOL    HW1 7711   7.709   1.225   3.637
68624SOL    HW2 7712   7.800   1.221   3.516
68625SOL     OW 7713  13.589   4.046   0.053
68625SOL    HW1 7714  13.633   4.044  14.850
68625SOL    HW2 7715  13.512   3.989   0.042
68626SOL     OW 7716   5.987   2.018   7.116
68626SOL    HW1 7717   5.972   2.111   7.098
68626SOL    HW2 7718   6.082   2.010   7.122
68627SOL     OW 7719   9.996  12.297   5.216
68627SOL    HW1 7720  10.061  12.266   5.279
68627SOL    HW2 7721   9.912  12.278   5.256
68628SOL     OW 7722  13.760  10.604   1.723
68628SOL    HW1 7723  13.773  10.509   1.717
68628SOL    HW2 7724  13.774  10.624   1.816
68629SOL     OW 7725   0.164   8.102   3.242
68629SOL    HW1 7726   0.237   8.156   3.213
68629SOL    HW2 7727   0.087   8.158   3.234
68630SOL     OW 7728  14.304  10.623   6.245
68630SOL    HW1 7729  14.227  10.658   6.290
68630SOL    HW2 7730  14.272  10.599   6.158
68631SOL     OW 7731  11.133   0.483  13.085
68631SOL    HW1 7732  11.087   0.483  13.169
68631SOL    HW2 7733  11.109   0.400  13.044
68632SOL     OW 7734   0.713  13.024  10.828
68632SOL    HW1 7735   0.667  12.953  10.782
68632SOL    HW2 7736   0.767  12.979  10.894
68633SOL     OW 7737  13.094  10.181   5.947
68633SOL    HW1 7738  13.165  10.152   6.004
68633SOL    HW2 7739  13.023  10.119   5.964
68634SOL     OW 7740   8.675   5.262   9.015
68634SOL    HW1 7741   8.764   5.229   9.022
68634SOL    HW2 7742   8.646   5.234   8.928
68635SOL     OW 7743   2.754   8.548   1.278
68635SOL    HW1 7744   2.803   8.577   1.355
68635SOL    HW2 7745   2.810   8.571   1.204
68636SOL     OW 7746   4.163   5.109   0.723
68636SOL    HW1 7747   4.109   5.144   0.794
68636SOL    HW2 7748   4.121   5.027   0.699
68637SOL     OW 7749   3.746  14.310   8.692
68637SOL    HW1 7750   3.797  14.385   8.662
68637SOL    HW2 7751   3.684  14.346   8.755
68638SOL     OW 7752  10.696  10.804   9.687
68638SOL    HW1 7753  10.627  10.757   9.640
68638SOL    HW2 7754  10.754  10.837   9.618
68639SOL     OW 7755  11.677  12.335   9.541
68639SOL    HW1 7756  11.675  12.303   9.631
68639SOL    HW2 7757  11.753  12.291   9.502
68640SOL     OW 7758   5.368  13.839   1.606
68640SOL    HW1 7759   5.301  13.841   1.674
68640SOL    HW2 7760   5.451  13.831   1.654
68641SOL     OW 7761  10.138   0.575   1.066
68641SOL    HW1 7762  10.076   0.526   1.120
68641SOL    HW2 7763  10.168   0.512   1.001
68642SOL     OW 7764   1.696  14.745   5.191
68642SOL    HW1 7765   1.704  14.737   5.286
68642SOL    HW2 7766   1.693  14.840   5.175
68643SOL     OW 7767   2.894   5.972  14.801
68643SOL    HW1 7768   2.821   6.018  14.760
68643SOL    HW2 7769   2.972   6.010  14.761
68644SOL     OW 7770   4.730   9.193  14.602
68644SOL    HW1 7771   4.774   9.178  14.518
68644SOL    HW2 7772   4.679   9.113  14.617
68645SOL     OW 7773   0.230   7.850  11.605
68645SOL    HW1 7774   0.195   7.891  11.684
68645SOL    HW2 7775   0.317   7.887  11.594
68646SOL     OW 7776   8.182  11.170   7.813
68646SOL    HW1 7777   8.205  11.161   7.906
68646SOL    HW2 7778   8.231  11.247   7.784
68647SOL     OW 7779  12.171  12.544   3.707
68647SOL    HW1 7780  12.080  12.542   3.738
68647SOL    HW2 7781  12.200  12.453   3.712
68648SOL     OW 7782   2.459   6.854   4.134
68648SOL    HW1 7783   2.448   6.812   4.220
68648SOL    HW2 7784   2.540   6.905   4.142
68649SOL     OW 7785  14.836   5.576  14.815
68649SOL    HW1 7786  14.847   5.502  14.875
68649SOL    HW2 7787   0.043   5.595  14.784
68650SOL     OW 7788   4.927  11.172   1.333
68650SOL    HW1 7789   4.853  11.111   1.330
68650SOL    HW2 7790   4.952  11.175   1.426
68651SOL     OW 7791  14.848   9.294   2.493
68651SOL    HW1 7792  14.837   9.199   2.494
68651SOL    HW2 7793  14.835   9.320   2.584
68652SOL     OW 7794  10.860   5.965   6.174
68652SOL    HW1 7795  10.954   5.953   6.164
68652SOL    HW2 7796  10.844   5.950   6.267
68653SOL     OW 7797   9.491   3.343  12.613
68653SOL    HW1 7798   9.457   3.273  12.557
68653SOL    HW2 7799   9.585   3.331  12.614
68654SOL     OW 7800   1.442   2.863   3.051
68654SOL    HW1 7801   1.373   2.852   3.115
68654SOL    HW2 7802   1.404   2.921   2.984
68655SOL     OW 7803   4.368   9.742   3.563
68655SOL    HW1 7804   4.314   9.821   3.570
68655SOL    HW2 7805   4.317   9.674   3.606
68656SOL     OW 7806  12.324   5.697   5.654
68656SOL    HW1 7807  12.354   5.750   5.729
68656SOL    HW2 7808  12.360   5.610   5.671
68657SOL     OW 7809   1.172   6.885   2.653
68657SOL    HW1 7810   1.205   6.799   2.675
68657SOL    HW2 7811   1.160   6.883   2.558
68658SOL     OW 7812  11.167  10.368   8.683
68658SOL    HW1 7813  11.161  10.275   8.659
68658SOL    HW2 7814  11.152  10.414   8.600
68659SOL     OW 7815   5.860   7.973   6.579
68659SOL    HW1 7816   5.859   7.885   6.616
68659SOL    HW2 7817   5.807   7.967   6.500
68660SOL     OW 7818   2.491  12.180  14.453
68660SOL    HW1 7819   2.515  12.093  14.484
68660SOL    HW2 7820   2.420  12.208  14.511
68661SOL     OW 7821   2.757  13.986   9.025
68661SOL    HW1 7822   2.773  13.930   8.948
68661SOL    HW2 7823   2.662  13.979   9.039
68662SOL     OW 7824  13.822   3.880   9.972
68662SOL    HW1 7825  13.808   3.931   9.893
68662SOL    HW2 7826  13.910   3.843   9.961
68663SOL     OW 7827  12.813  14.250   6.039
68663SOL    HW1 7828  12.857  14.276   6.120
68663SOL    HW2 7829  12.861  14.297   5.970
68664SOL     OW 7830   7.623   1.235   9.786
68664SOL    HW1 7831   7.639   1.225   9.880
68664SOL    HW2 7832   7.673   1.312   9.761
68665SOL     OW 7833   9.111  14.278  11.929
68665SOL    HW1 7834   9.103  14.320  12.014
68665SOL    HW2 7835   9.021  14.260  11.902
68666SOL     OW 7836   0.926   1.137   5.216
68666SOL    HW1 7837   0.927   1.225   5.179
68666SOL    HW2 7838   1.004   1.132   5.271
68667SOL     OW 7839   1.076   0.561   1.675
68667SOL    HW1 7840   1.052   0.653   1.668
68667SOL    HW2 7841   1.010   0.514   1.624
68668SOL     OW 7842   6.603   6.315  10.671
68668SOL    HW1 7843   6.567   6.392  10.627
68668SOL    HW2 7844   6.668   6.281  10.610
68669SOL     OW 7845   9.570   4.951  14.816
68669SOL    HW1 7846   9.502   4.974  14.880
68669SOL    HW2 7847   9.635   4.902  14.866
68670SOL     OW 7848   2.119   3.598  12.465
68670SOL    HW1 7849   2.032   3.568  12.439
68670SOL    HW2 7850   2.101   3.670  12.526
68671SOL     OW 7851  11.503  14.774   0.279
68671SOL    HW1 7852  11.463  14.849   0.323
68671SOL    HW2 7853  11.500  14.796   0.186
68672SOL     OW 7854   3.982   6.358   2.105
68672SOL    HW1 7855   4.060   6.363   2.051
68672SOL    HW2 7856   3.929   6.434   2.078
68673SOL     OW 7857   5.014   3.017   8.237
68673SOL    HW1 7858   4.988   2.934   8.276
68673SOL    HW2 7859   4.948   3.079   8.265
68674SOL     OW 7860   0.856   7.704   5.444
68674SOL    HW1 7861   0.817   7.623   5.475
68674SOL    HW2 7862   0.787   7.770   5.454
68675SOL     OW 7863   1.518   0.168  12.849
68675SOL    HW1 7864   1.574   0.090  12.851
68675SOL    HW2 7865   1.569   0.234  12.895
68676SOL     OW 7866   0.732   4.328   2.561
68676SOL    HW1 7867   0.816   4.374   2.552
68676SOL    HW2 7868   0.709   4.304   2.472
68677SOL     OW 7869   4.901  13.413   6.945
68677SOL    HW1 7870   4.973  13.414   7.009
68677SOL    HW2 7871   4.889  13.320   6.924
68678SOL     OW 7872   4.105   0.539   2.837
68678SOL    HW1 7873   4.147   0.623   2.816
68678SOL    HW2 7874   4.047   0.522   2.763
68679SOL     OW 7875   3.082  13.723   4.478
68679SOL    HW1 7876   3.164  13.694   4.439
68679SOL    HW2 7877   3.074  13.815   4.452
68680SOL     OW 7878   2.605  13.644  10.584
68680SOL    HW1 7879   2.631  13.571  10.527
68680SOL    HW2 7880   2.560  13.704  10.525
68681SOL     OW 7881  13.470   4.694   7.840
68681SOL    HW1 7882  13.387   4.728   7.872
68681SOL    HW2 7883  13.536   4.747   7.885
68682SOL     OW 7884   9.519   1.362   8.599
68682SOL    HW1 7885   9.551   1.433   8.656
68682SOL    HW2 7886   9.431   1.343   8.631
68683SOL     OW 7887   5.167   1.889   2.183
68683SOL    HW1 7888   5.188   1.954   2.116
68683SOL    HW2 7889   5.139   1.940   2.258
68684SOL     OW 7890  13.700   5.700   8.006
68684SOL    HW1 7891  13.616   5.687   8.051
68684SOL    HW2 7892  13.733   5.783   8.041
68685SOL     OW 7893   3.293   8.592   1.394
68685SOL    HW1 7894   3.321   8.585   1.303
68685SOL    HW2 7895   3.337   8.670   1.427
68686SOL     OW 7896  10.911  12.342   3.841
68686SOL    HW1 7897  10.855  12.285   3.788
68686SOL    HW2 7898  10.922  12.421   3.789
68687SOL     OW 7899   3.188  10.669   0.726
68687SOL    HW1 7900   3.127  10.596   0.732
68687SOL    HW2 7901   3.270  10.630   0.698
68688SOL     OW 7902   5.599   7.501   0.731
68688SOL    HW1 7903   5.654   7.484   0.654
68688SOL    HW2 7904   5.510   7.490   0.700
68689SOL     OW 7905   5.290  12.628   0.331
68689SOL    HW1 7906   5.308  12.624   0.425
68689SOL    HW2 7907   5.196  12.611   0.323
68690SOL     OW 7908   3.122   6.217  13.404
68690SOL    HW1 7909   3.132   6.289  13.467
68690SOL    HW2 7910   3.035   6.182  13.421
68691SOL     OW 7911  11.362   3.733   7.220
68691SOL    HW1 7912  11.297   3.667   7.241
68691SOL    HW2 7913  11.321   3.787   7.152
68692SOL     OW 7914  13.729  14.108   4.435
68692SOL    HW1 7915  13.779  14.188   4.416
68692SOL    HW2 7916  13.646  14.120   4.388
68693SOL     OW 7917  13.089   0.643   4.725
68693SOL    HW1 7918  13.184   0.636   4.715
68693SOL    HW2 7919  13.054   0.618   4.639
68694SOL     OW 7920   1.887  13.260   6.120
68694SOL    HW1 7921   1.848  13.339   6.083
68694SOL    HW2 7922   1.981  13.277   6.120
68695SOL     OW 7923   3.468   7.269   2.200
68695SOL    HW1 7924   3.556   7.233   2.197
68695SOL    HW2 7925   3.454   7.306   2.113
68696SOL     OW 7926   4.878   1.415   5.966
68696SOL    HW1 7927   4.811   1.429   6.033
68696SOL    HW2 7928   4.830   1.418   5.883
68697SOL     OW 7929  12.745   3.124   0.573
68697SOL    HW1 7930  12.685   3.064   0.529
68697SOL    HW2 7931  12.710   3.131   0.662
68698SOL     OW 7932   4.569  10.440   1.181
68698SOL    HW1 7933   4.595  10.432   1.090
68698SOL    HW2 7934   4.530  10.355   1.202
68699SOL     OW 7935   4.990   5.015   6.752
68699SOL    HW1 7936   5.030   4.944   6.702
68699SOL    HW2 7937   4.915   5.044   6.700
68700SOL     OW 7938   9.147   4.722   0.175
68700SOL    HW1 7939   9.206   4.680   0.113
68700SOL    HW2 7940   9.062   4.680   0.160
68701SOL     OW 7941   9.732   7.633   9.865
68701SOL    HW1 7942   9.765   7.594   9.946
68701SOL    HW2 7943   9.686   7.561   9.821
68702SOL     OW 7944   9.719   8.714   6.110
68702SOL    HW1 7945   9.704   8.651   6.039
68702SOL    HW2 7946   9.727   8.798   6.067
68703SOL     OW 7947   2.172   8.825   9.541
68703SOL    HW1 7948   2.085   8.842   9.505
68703SOL    HW2 7949   2.172   8.871   9.625
68704SOL     OW 7950  10.861   5.749   9.975
68704SOL    HW1 7951  10.889   5.658   9.975
68704SOL    HW2 7952  10.781   5.749  10.027
68705SOL     OW 7953  14.320   6.920   8.902
68705SOL    HW1 7954  14.253   6.987   8.885
68705SOL    HW2 7955  14.286   6.842   8.858
68706SOL     OW 7956   1.613   9.122   4.693
68706SOL    HW1 7957   1.592   9.034   4.661
68706SOL    HW2 7958   1.563   9.181   4.636
68707SOL     OW 7959  14.409   3.668   5.104
68707SOL    HW1 7960  14.488   3.720   5.114
68707SOL    HW2 7961  14.374   3.692   5.018
68708SOL     OW 7962   8.810   6.142  14.479
68708SOL    HW1 7963   8.812   6.211  14.412
68708SOL    HW2 7964   8.753   6.075  14.442
68709SOL     OW 7965   1.515   6.443  12.835
68709SOL    HW1 7966   1.468   6.515  12.878
68709SOL    HW2 7967   1.454   6.413  12.768
68710SOL     OW 7968   3.749  10.260  10.453
68710SOL    HW1 7969   3.700  10.335  10.487
68710SOL    HW2 7970   3.816  10.242  10.519
68711SOL     OW 7971   4.341   8.074  12.653
68711SOL    HW1 7972   4.348   8.112  12.741
68711SOL    HW2 7973   4.323   7.981  12.669
68712SOL     OW 7974   7.685   4.315   8.214
68712SOL    HW1 7975   7.590   4.318   8.204
68712SOL    HW2 7976   7.715   4.399   8.182
68713SOL     OW 7977   2.477   8.420   7.075
68713SOL    HW1 7978   2.500   8.455   6.989
68713SOL    HW2 7979   2.457   8.328   7.058
68714SOL     OW 7980   0.972   1.844  14.619
68714SOL    HW1 7981   0.891   1.852  14.669
68714SOL    HW2 7982   1.038   1.891  14.671
68715SOL     OW 7983   9.759  10.225   2.167
68715SOL    HW1 7984   9.830  10.163   2.178
68715SOL    HW2 7985   9.719  10.233   2.254
68716SOL     OW 7986   2.100   9.388  13.600
68716SOL    HW1 7987   2.081   9.456  13.665
68716SOL    HW2 7988   2.026   9.392  13.539
68717SOL     OW 7989   0.859   9.476   4.577
68717SOL    HW1 7990   0.796   9.532   4.534
68717SOL    HW2 7991   0.943   9.521   4.565
68718SOL     OW 7992   5.071   1.669   4.352
68718SOL    HW1 7993   5.009   1.737   4.327
68718SOL    HW2 7994   5.152   1.715   4.371
68719SOL     OW 7995   5.745   2.846   2.072
68719SOL    HW1 7996   5.778   2.779   2.013
68719SOL    HW2 7997   5.731   2.801   2.155
68720SOL     OW 7998   6.524   2.322   1.259
68720SOL    HW1 7999   6.541   2.342   1.167
68720SOL    HW2 8000   6.608   2.338   1.303
68721SOL     OW 8001  10.254   5.808   2.255
68721SOL    HW1 8002  10.342   5.812   2.217
68721SOL    HW2 8003  10.204   5.874   2.206
68722SOL     OW 8004   2.873   2.053   5.400
68722SOL    HW1 8005   2.917   2.007   5.471
68722SOL    HW2 8006   2.939   2.113   5.365
68723SOL     OW 8007  13.296   2.482  12.165
68723SOL    HW1 8008  13.234   2.418  12.130
68723SOL    HW2 8009  13.292   2.470  12.260
68724SOL     OW 8010   5.438   7.174  10.458
68724SOL    HW1 8011   5.471   7.212  10.540
68724SOL    HW2 8012   5.446   7.245  10.394
68725SOL     OW 8013   6.338   3.962  11.553
68725SOL    HW1 8014   6.269   3.895  11.554
68725SOL    HW2 8015   6.333   4.003  11.639
68726SOL     OW 8016  12.801   0.696   7.593
68726SOL    HW1 8017  12.747   0.731   7.664
68726SOL    HW2 8018  12.741   0.642   7.542
68727SOL     OW 8019   1.232   9.513   1.833
68727SOL    HW1 8020   1.314   9.541   1.791
68727SOL    HW2 8021   1.186   9.594   1.852
68728SOL     OW 8022   8.765   3.241   7.681
68728SOL    HW1 8023   8.854   3.245   7.648
68728SOL    HW2 8024   8.773   3.197   7.766
68729SOL     OW 8025  12.344   6.494  10.385
68729SOL    HW1 8026  12.283   6.534  10.322
68729SOL    HW2 8027  12.401   6.439  10.332
68730SOL     OW 8028   0.386  11.030  13.269
68730SOL    HW1 8029   0.389  11.017  13.364
68730SOL    HW2 8030   0.474  11.008  13.239
68731SOL     OW 8031   8.734  11.629   7.643
68731SOL    HW1 8032   8.684  11.696   7.690
68731SOL    HW2 8033   8.667  11.568   7.611
68732SOL     OW 8034   9.230  11.726   1.245
68732SOL    HW1 8035   9.255  11.715   1.153
68732SOL    HW2 8036   9.257  11.645   1.287
68733SOL     OW 8037  10.660   5.896   3.969
68733SOL    HW1 8038  10.625   5.868   4.054
68733SOL    HW2 8039  10.741   5.847   3.960
68734SOL     OW 8040   8.527   7.238   6.216
68734SOL    HW1 8041   8.546   7.272   6.303
68734SOL    HW2 8042   8.613   7.219   6.178
68735SOL     OW 8043   0.244  10.852  11.544
68735SOL    HW1 8044   0.182  10.830  11.474
68735SOL    HW2 8045   0.223  10.790  11.614
68736SOL     OW 8046   2.903   9.233   5.179
68736SOL    HW1 8047   2.886   9.325   5.197
68736SOL    HW2 8048   2.987   9.215   5.222
68737SOL     OW 8049   8.436  14.020   3.169
68737SOL    HW1 8050   8.373  14.087   3.142
68737SOL    HW2 8051   8.511  14.034   3.111
68738SOL     OW 8052   3.038   8.817   8.931
68738SOL    HW1 8053   2.948   8.808   8.901
68738SOL    HW2 8054   3.035   8.887   8.996
68739SOL     OW 8055  11.637   9.519  11.713
68739SOL    HW1 8056  11.693   9.468  11.655
68739SOL    HW2 8057  11.610   9.458  11.782
68740SOL     OW 8058  12.441   9.513  11.990
68740SOL    HW1 8059  12.521   9.508  11.938
68740SOL    HW2 8060  12.381   9.567  11.938
68741SOL     OW 8061  14.295   1.416   5.556
68741SOL    HW1 8062  14.341   1.353   5.501
68741SOL    HW2 8063  14.364   1.457   5.609
68742SOL     OW 8064   5.723   8.148   9.368
68742SOL    HW1 8065   5.646   8.106   9.330
68742SOL    HW2 8066   5.705   8.153   9.462
68743SOL     OW 8067   9.952   1.948   8.212
68743SOL    HW1 8068   9.983   1.901   8.135
68743SOL    HW2 8069  10.023   2.009   8.233
68744SOL     OW 8070  14.642   8.580   4.087
68744SOL    HW1 8071  14.620   8.670   4.061
68744SOL    HW2 8072  14.737   8.575   4.076
68745SOL     OW 8073  12.683  11.371   8.001
68745SOL    HW1 8074  12.655  11.312   7.931
68745SOL    HW2 8075  12.769  11.339   8.027
68746SOL     OW 8076  10.590   4.467   2.346
68746SOL    HW1 8077  10.654   4.403   2.377
68746SOL    HW2 8078  10.527   4.415   2.295
68747SOL     OW 8079   1.389   3.336   4.791
68747SOL    HW1 8080   1.368   3.395   4.719
68747SOL    HW2 8081   1.420   3.394   4.861
68748SOL     OW 8082  12.712   6.111   2.969
68748SOL    HW1 8083  12.730   6.194   2.925
68748SOL    HW2 8084  12.639   6.131   3.028
68749SOL     OW 8085  14.673   7.567  11.049
68749SOL    HW1 8086  14.615   7.627  11.002
68749SOL    HW2 8087  14.728   7.624  11.102
68750SOL     OW 8088  14.564   3.048   5.032
68750SOL    HW1 8089  14.648   3.068   5.073
68750SOL    HW2 8090  14.586   3.016   4.945
68751SOL     OW 8091  12.137  10.765   3.948
68751SOL    HW1 8092  12.107  10.794   4.034
68751SOL    HW2 8093  12.231  10.782   3.949
68752SOL     OW 8094   3.633   1.159   6.222
68752SOL    HW1 8095   3.711   1.132   6.172
68752SOL    HW2 8096   3.640   1.112   6.305
68753SOL     OW 8097  13.397  10.209   4.099
68753SOL    HW1 8098  13.409  10.180   4.189
68753SOL    HW2 8099  13.481  10.247   4.074
68754SOL     OW 8100   2.834   2.889  10.158
68754SOL    HW1 8101   2.845   2.826  10.230
68754SOL    HW2 8102   2.891   2.856  10.089
68755SOL     OW 8103   4.835  11.525  10.398
68755SOL    HW1 8104   4.917  11.574  10.404
68755SOL    HW2 8105   4.800  11.526  10.488
68756SOL     OW 8106   2.828   4.559   4.238
68756SOL    HW1 8107   2.879   4.629   4.197
68756SOL    HW2 8108   2.788   4.600   4.315
68757SOL     OW 8109   7.164   4.279   1.860
68757SOL    HW1 8110   7.101   4.207   1.858
68757SOL    HW2 8111   7.124   4.348   1.807
68758SOL     OW 8112  13.500   3.226   4.276
68758SOL    HW1 8113  13.545   3.203   4.195
68758SOL    HW2 8114  13.411   3.194   4.265
68759SOL     OW 8115  10.806   2.889   4.293
68759SOL    HW1 8116  10.833   2.832   4.365
68759SOL    HW2 8117  10.766   2.829   4.230
68760SOL     OW 8118   6.307  13.244   6.540
68760SOL    HW1 8119   6.384  13.298   6.524
68760SOL    HW2 8120   6.309  13.226   6.634
68761SOL     OW 8121   2.654   0.899  10.893
68761SOL    HW1 8122   2.647   0.925  10.985
68761SOL    HW2 8123   2.573   0.850  10.876
68762SOL     OW 8124   6.645   3.574   9.482
68762SOL    HW1 8125   6.661   3.514   9.410
68762SOL    HW2 8126   6.667   3.660   9.446
68763SOL     OW 8127   6.883   1.547  13.788
68763SOL    HW1 8128   6.953   1.481  13.785
68763SOL    HW2 8129   6.846   1.539  13.876
68764SOL     OW 8130  12.568   3.947   8.875
68764SOL    HW1 8131  12.492   3.999   8.904
68764SOL    HW2 8132  12.553   3.933   8.782
68765SOL     OW 8133   3.292  14.259   9.802
68765SOL    HW1 8134   3.357  14.212   9.854
68765SOL    HW2 8135   3.335  14.278   9.719
68766SOL     OW 8136  13.715   0.820   6.395
68766SOL    HW1 8137  13.746   0.879   6.327
68766SOL    HW2 8138  13.743   0.733   6.365
68767SOL     OW 8139   3.005  11.846  12.672
68767SOL    HW1 8140   3.084  11.809  12.631
68767SOL    HW2 8141   3.017  11.830  12.766
68768SOL     OW 8142   3.496   8.494   7.813
68768SOL    HW1 8143   3.439   8.418   7.812
68768SOL    HW2 8144   3.437   8.569   7.816
68769SOL     OW 8145  14.339   2.698   8.616
68769SOL    HW1 8146  14.376   2.611   8.608
68769SOL    HW2 8147  14.413   2.757   8.601
68770SOL     OW 8148   2.951   8.598  10.934
68770SOL    HW1 8149   3.037   8.634  10.916
68770SOL    HW2 8150   2.962   8.503  10.930
68771SOL     OW 8151   0.670   1.017   5.288
68771SOL    HW1 8152   0.751   1.034   5.240
68771SOL    HW2 8153   0.601   1.041   5.226
68772SOL     OW 8154  12.344   1.620  14.829
68772SOL    HW1 8155  12.330   1.714  14.830
68772SOL    HW2 8156  12.426   1.608  14.781
68773SOL     OW 8157   7.208   9.772  10.540
68773SOL    HW1 8158   7.257   9.759  10.621
68773SOL    HW2 8159   7.263   9.732  10.472
68774SOL     OW 8160   4.418   9.491   0.142
68774SOL    HW1 8161   4.402   9.581   0.115
68774SOL    HW2 8162   4.492   9.498   0.203
68775SOL     OW 8163   6.828   8.440   1.791
68775SOL    HW1 8164   6.797   8.515   1.841
68775SOL    HW2 8165   6.749   8.405   1.750
68776SOL     OW 8166  14.673   0.344   4.979
68776SOL    HW1 8167  14.767   0.353   4.963
68776SOL    HW2 8168  14.663   0.362   5.073
68777SOL     OW 8169   0.093   7.107   7.916
68777SOL    HW1 8170   0.061   7.023   7.882
68777SOL    HW2 8171   0.022   7.138   7.972
68778SOL     OW 8172   6.342   6.547   9.794
68778SOL    HW1 8173   6.275   6.514   9.854
68778SOL    HW2 8174   6.395   6.470   9.773
68779SOL     OW 8175   1.417   1.869   6.205
68779SOL    HW1 8176   1.341   1.861   6.148
68779SOL    HW2 8177   1.492   1.860   6.146
68780SOL     OW 8178  10.658   1.530   0.913
68780SOL    HW1 8179  10.657   1.544   1.007
68780SOL    HW2 8180  10.739   1.571   0.883
68781SOL     OW 8181   9.821   4.956  14.674
68781SOL    HW1 8182   9.890   4.969  14.739
68781SOL    HW2 8183   9.744   5.001  14.710
68782SOL     OW 8184   0.145   8.758   4.852
68782SOL    HW1 8185   0.198   8.836   4.835
68782SOL    HW2 8186   0.204   8.685   4.834
68783SOL     OW 8187   3.117  11.054   3.427
68783SOL    HW1 8188   3.170  11.124   3.390
68783SOL    HW2 8189   3.174  11.013   3.493
68784SOL     OW 8190   4.165   5.466   5.815
68784SOL    HW1 8191   4.096   5.408   5.849
68784SOL    HW2 8192   4.236   5.406   5.790
68785SOL     OW 8193   2.812   7.034   4.722
68785SOL    HW1 8194   2.762   7.116   4.720
68785SOL    HW2 8195   2.801   7.001   4.811
68786SOL     OW 8196   0.093   7.561   1.243
68786SOL    HW1 8197   0.130   7.491   1.296
68786SOL    HW2 8198   0.116   7.538   1.153
68787SOL     OW 8199  13.649   7.037  13.673
68787SOL    HW1 8200  13.595   7.079  13.605
68787SOL    HW2 8201  13.637   6.943  13.658
68788SOL     OW 8202   2.042  12.173   4.983
68788SOL    HW1 8203   1.969  12.209   5.032
68788SOL    HW2 8204   2.082  12.109   5.042
68789SOL     OW 8205   9.543   6.587   5.044
68789SOL    HW1 8206   9.554   6.646   4.970
68789SOL    HW2 8207   9.463   6.538   5.025
68790SOL     OW 8208   9.398  10.941  13.321
68790SOL    HW1 8209   9.442  10.959  13.238
68790SOL    HW2 8210   9.359  10.855  13.310
68791SOL     OW 8211   0.626   0.371  13.936
68791SOL    HW1 8212   0.564   0.442  13.919
68791SOL    HW2 8213   0.579   0.291  13.912
68792SOL     OW 8214   6.540  14.206   2.546
68792SOL    HW1 8215   6.511  14.252   2.467
68792SOL    HW2 8216   6.473  14.140   2.563
68793SOL     OW 8217   3.752   8.056   7.703
68793SOL    HW1 8218   3.846   8.041   7.698
68793SOL    HW2 8219   3.717   7.976   7.741
68794SOL     OW 8220  10.714  11.883   4.849
68794SOL    HW1 8221  10.791  11.856   4.798
68794SOL    HW2 8222  10.708  11.817   4.919
68795SOL     OW 8223   1.663   9.668  14.529
68795SOL    HW1 8224   1.745   9.699  14.566
68795SOL    HW2 8225   1.671   9.572  14.530
68796SOL     OW 8226  13.971   9.510  11.562
68796SOL    HW1 8227  13.957   9.429  11.612
68796SOL    HW2 8228  13.962   9.579  11.627
68797SOL     OW 8229  10.616   1.101   6.060
68797SOL    HW1 8230  10.633   1.118   6.153
68797SOL    HW2 8231  10.584   1.011   6.058
68798SOL     OW 8232  12.919   1.344   2.558
68798SOL    HW1 8233  12.883   1.429   2.533
68798SOL    HW2 8234  12.842   1.289   2.574
68799SOL     OW 8235  11.533   1.045  13.272
68799SOL    HW1 8236  11.537   0.993  13.191
68799SOL    HW2 8237  11.551   1.134  13.244
68800SOL     OW 8238  12.850   2.860   2.491
68800SOL    HW1 8239  12.796   2.819   2.559
68800SOL    HW2 8240  12.820   2.820   2.410
68801SOL     OW 8241   4.802   5.319   7.661
68801SOL    HW1 8242   4.731   5.351   7.717
68801SOL    HW2 8243   4.765   5.319   7.573
68802SOL     OW 8244  13.616   8.636   2.855
68802SOL    HW1 8245  13.565   8.662   2.932
68802SOL    HW2 8246  13.655   8.718   2.823
68803SOL     OW 8247   5.641   7.721   7.337
68803SOL    HW1 8248   5.594   7.661   7.396
68803SOL    HW2 8249   5.590   7.720   7.256
68804SOL     OW 8250   3.258   3.123  12.259
68804SOL    HW1 8251   3.346   3.156  12.278
68804SOL    HW2 8252   3.270   3.030  12.242
68805SOL     OW 8253  10.788  14.571   2.478
68805SOL    HW1 8254  10.772  14.564   2.384
68805SOL    HW2 8255  10.771  14.483   2.512
68806SOL     OW 8256  10.861   9.119   8.323
68806SOL    HW1 8257  10.801   9.191   8.344
68806SOL    HW2 8258  10.888   9.136   8.233
68807SOL     OW 8259  12.950  13.965  10.725
68807SOL    HW1 8260  12.885  13.898  10.746
68807SOL    HW2 8261  12.968  14.008  10.809
68808SOL     OW 8262  10.378   7.179  11.365
68808SOL    HW1 8263  10.327   7.098  11.371
68808SOL    HW2 8264  10.417   7.177  11.278
68809SOL     OW 8265   9.171   9.229   4.935
68809SOL    HW1 8266   9.131   9.259   4.854
68809SOL    HW2 8267   9.224   9.304   4.964
68810SOL     OW 8268   7.331   1.410  10.680
68810SOL    HW1 8269   7.381   1.386  10.758
68810SOL    HW2 8270   7.294   1.496  10.701
68811SOL     OW 8271   9.488   9.099   9.656
68811SOL    HW1 8272   9.508   9.022   9.709
68811SOL    HW2 8273   9.446   9.160   9.718
68812SOL     OW 8274  12.021  10.175  12.300
68812SOL    HW1 8275  12.045  10.248  12.356
68812SOL    HW2 8276  12.071  10.101  12.334
68813SOL     OW 8277   0.845   6.963  12.657
68813SOL    HW1 8278   0.885   7.026  12.717
68813SOL    HW2 8279   0.771   6.927  12.705
68814SOL     OW 8280  12.132  14.475  13.704
68814SOL    HW1 8281  12.103  14.546  13.761
68814SOL    HW2 8282  12.051  14.438  13.668
68815SOL     OW 8283   5.818   3.382   4.175
68815SOL    HW1 8284   5.823   3.452   4.240
68815SOL    HW2 8285   5.759   3.318   4.214
68816SOL     OW 8286   7.915   6.923   7.598
68816SOL    HW1 8287   7.945   6.832   7.590
68816SOL    HW2 8288   7.971   6.972   7.538
68817SOL     OW 8289   5.221  12.710   4.455
68817SOL    HW1 8290   5.301  12.701   4.506
68817SOL    HW2 8291   5.234  12.789   4.402
68818SOL     OW 8292  12.837  10.190   4.296
68818SOL    HW1 8293  12.757  10.210   4.343
68818SOL    HW2 8294  12.873  10.113   4.340
68819SOL     OW 8295   3.886  13.982   7.009
68819SOL    HW1 8296   3.813  13.953   7.062
68819SOL    HW2 8297   3.846  14.040   6.943
68820SOL     OW 8298  12.151  13.422   1.518
68820SOL    HW1 8299  12.240  13.390   1.499
68820SOL    HW2 8300  12.098  13.387   1.446
68821SOL     OW 8301   0.883  12.067   6.701
68821SOL    HW1 8302   0.832  12.107   6.630
68821SOL    HW2 8303   0.935  12.000   6.658
68822SOL     OW 8304  10.374   6.311   6.850
68822SOL    HW1 8305  10.312   6.364   6.901
68822SOL    HW2 8306  10.442   6.288   6.914
68823SOL     OW 8307  11.965   5.748   1.440
68823SOL    HW1 8308  11.909   5.825   1.439
68823SOL    HW2 8309  11.905   5.674   1.438
68824SOL     OW 8310   9.102  11.064   6.208
68824SOL    HW1 8311   9.016  11.093   6.180
68824SOL    HW2 8312   9.085  11.011   6.287
68825SOL     OW 8313   3.127  10.960  12.719
68825SOL    HW1 8314   3.101  10.905  12.793
68825SOL    HW2 8315   3.221  10.975  12.733
68826SOL     OW 8316  12.301  10.756  12.981
68826SOL    HW1 8317  12.388  10.795  12.978
68826SOL    HW2 8318  12.294  10.720  13.070
68827SOL     OW 8319  12.139   8.775  13.369
68827SOL    HW1 8320  12.178   8.688  13.365
68827SOL    HW2 8321  12.099   8.787  13.282
68828SOL     OW 8322   3.712   0.479  13.314
68828SOL    HW1 8323   3.754   0.486  13.400
68828SOL    HW2 8324   3.750   0.400  13.275
68829SOL     OW 8325   9.666   6.671  11.330
68829SOL    HW1 8326   9.643   6.593  11.380
68829SOL    HW2 8327   9.691   6.637  11.244
68830SOL     OW 8328   7.817   3.177  13.615
68830SOL    HW1 8329   7.785   3.267  13.618
68830SOL    HW2 8330   7.893   3.181  13.557
68831SOL     OW 8331   6.119   9.964   7.925
68831SOL    HW1 8332   6.112   9.926   7.838
68831SOL    HW2 8333   6.173   9.902   7.974
68832SOL     OW 8334   4.702  13.837  14.330
68832SOL    HW1 8335   4.608  13.853  14.332
68832SOL    HW2 8336   4.721  13.817  14.238
68833SOL     OW 8337  14.562  11.504   7.048
68833SOL    HW1 8338  14.551  11.527   7.140
68833SOL    HW2 8339  14.601  11.582   7.008
68834SOL     OW 8340  12.061  12.172   8.248
68834SOL    HW1 8341  12.140  12.129   8.282
68834SOL    HW2 8342  11.995  12.157   8.316
68835SOL     OW 8343   5.174  11.273   0.741
68835SOL    HW1 8344   5.124  11.309   0.669
68835SOL    HW2 8345   5.266  11.280   0.713
68836SOL     OW 8346  10.862   1.052  11.792
68836SOL    HW1 8347  10.825   1.058  11.704
68836SOL    HW2 8348  10.891   1.142  11.811
68837SOL     OW 8349   3.996   9.792  10.180
68837SOL    HW1 8350   4.008   9.823  10.270
68837SOL    HW2 8351   3.903   9.809  10.161
68838SOL     OW 8352   7.595  11.390  10.892
68838SOL    HW1 8353   7.619  11.316  10.837
68838SOL    HW2 8354   7.511  11.365  10.931
68839SOL     OW 8355   5.764  10.031  10.516
68839SOL    HW1 8356   5.701  10.102  10.510
68839SOL    HW2 8357   5.715   9.953  10.490
68840SOL     OW 8358   5.933   0.992  10.415
68840SOL    HW1 8359   5.882   1.056  10.464
68840SOL    HW2 8360   5.982   0.944  10.482
68841SOL     OW 8361   7.088   3.811   9.807
68841SOL    HW1 8362   7.147   3.842   9.738
68841SOL    HW2 8363   7.007   3.860   9.793
68842SOL     OW 8364   5.123   4.067  14.770
68842SOL    HW1 8365   5.204   4.023  14.745
68842SOL    HW2 8366   5.101   4.030  14.855
68843SOL     OW 8367   2.723  12.807  11.258
68843SOL    HW1 8368   2.674  12.771  11.332
68843SOL    HW2 8369   2.709  12.901  11.264
68844SOL     OW 8370   2.217   7.485  13.510
68844SOL    HW1 8371   2.192   7.510  13.599
68844SOL    HW2 8372   2.303   7.524  13.497
68845SOL     OW 8373   2.845   0.051   3.725
68845SOL    HW1 8374   2.927   0.002   3.716
68845SOL    HW2 8375   2.871   0.135   3.763
68846SOL     OW 8376   5.238  14.705   1.650
68846SOL    HW1 8377   5.265  14.613   1.660
68846SOL    HW2 8378   5.142  14.702   1.653
68847SOL     OW 8379   3.758   3.783  10.308
68847SOL    HW1 8380   3.817   3.719  10.348
68847SOL    HW2 8381   3.671   3.746  10.319
68848SOL     OW 8382  14.724   1.469   7.919
68848SOL    HW1 8383  14.674   1.427   7.989
68848SOL    HW2 8384  14.710   1.562   7.932
68849SOL     OW 8385   4.381   1.976   1.203
68849SOL    HW1 8386   4.395   2.058   1.250
68849SOL    HW2 8387   4.407   1.996   1.113
68850SOL     OW 8388   8.930  12.127   4.470
68850SOL    HW1 8389   8.997  12.101   4.533
68850SOL    HW2 8390   8.849  12.088   4.503
68851SOL     OW 8391   2.593  14.398   3.692
68851SOL    HW1 8392   2.685  14.385   3.715
68851SOL    HW2 8393   2.554  14.439   3.769
68852SOL     OW 8394   9.332  13.548   5.855
68852SOL    HW1 8395   9.261  13.565   5.792
68852SOL    HW2 8396   9.334  13.453   5.864
68853SOL     OW 8397   7.003  11.495  12.130
68853SOL    HW1 8398   7.080  11.444  12.154
68853SOL    HW2 8399   7.037  11.565  12.075
68854SOL     OW 8400   6.803  12.791   6.761
68854SOL    HW1 8401   6.891  12.797   6.798
68854SOL    HW2 8402   6.768  12.709   6.795
68855SOL     OW 8403  10.175  12.788   4.465
68855SOL    HW1 8404  10.169  12.734   4.544
68855SOL    HW2 8405  10.216  12.731   4.400
68856SOL     OW 8406   9.833   4.674  14.191
68856SOL    HW1 8407   9.894   4.733  14.236
68856SOL    HW2 8408   9.752   4.724  14.183
68857SOL     OW 8409   1.148  10.332  13.136
68857SOL    HW1 8410   1.171  10.313  13.227
68857SOL    HW2 8411   1.226  10.309  13.086
68858SOL     OW 8412   7.737   4.136   1.447
68858SOL    HW1 8413   7.672   4.076   1.410
68858SOL    HW2 8414   7.821   4.094   1.428
68859SOL     OW 8415   0.693   1.089  12.315
68859SOL    HW1 8416   0.745   1.160  12.355
68859SOL    HW2 8417   0.708   1.014  12.373
68860SOL     OW 8418  10.982   4.604  12.329
68860SOL    HW1 8419  10.899   4.649  12.345
68860SOL    HW2 8420  10.987   4.537  12.397
68861SOL     OW 8421  12.954  12.121  13.818
68861SOL    HW1 8422  12.991  12.036  13.839
68861SOL    HW2 8423  12.981  12.178  13.889
68862SOL     OW 8424  12.779   7.818  13.604
68862SOL    HW1 8425  12.745   7.732  13.629
68862SOL    HW2 8426  12.781   7.817  13.509
68863SOL     OW 8427  12.207   6.037  12.041
68863SOL    HW1 8428  12.131   6.045  12.099
68863SOL    HW2 8429  12.212   6.121  11.997
68864SOL     OW 8430   0.198  12.936   7.758
68864SOL    HW1 8431   0.223  12.868   7.695
68864SOL    HW2 8432   0.134  12.989   7.710
68865SOL     OW 8433   2.301  10.917   9.399
68865SOL    HW1 8434   2.374  10.978   9.400
68865SOL    HW2 8435   2.328  10.849   9.337
68866SOL     OW 8436  11.114   8.380   5.345
68866SOL    HW1 8437  11.081   8.384   5.255
68866SOL    HW2 8438  11.038   8.399   5.399
68867SOL     OW 8439   5.584  13.164   9.165
68867SOL    HW1 8440   5.638  13.185   9.241
68867SOL    HW2 8441   5.549  13.248   9.136
68868SOL     OW 8442   1.245  12.573   5.312
68868SOL    HW1 8443   1.192  12.619   5.377
68868SOL    HW2 8444   1.336  12.590   5.338
68869SOL     OW 8445   7.232  14.446   9.547
68869SOL    HW1 8446   7.212  14.383   9.617
68869SOL    HW2 8447   7.201  14.403   9.467
68870SOL     OW 8448   0.127  14.527  10.515
68870SOL    HW1 8449   0.104  14.436  10.535
68870SOL    HW2 8450   0.221  14.524  10.496
68871SOL     OW 8451  11.533  14.136  13.296
68871SOL    HW1 8452  11.563  14.217  13.254
68871SOL    HW2 8453  11.524  14.074  13.224
68872SOL     OW 8454   8.840  11.200   9.137
68872SOL    HW1 8455   8.830  11.147   9.216
68872SOL    HW2 8456   8.903  11.268   9.161
68873SOL     OW 8457   8.015   5.311   3.017
68873SOL    HW1 8458   8.049   5.344   2.934
68873SOL    HW2 8459   8.092   5.293   3.070
68874SOL     OW 8460   0.146   5.569   0.282
68874SOL    HW1 8461   0.132   5.590   0.374
68874SOL    HW2 8462   0.140   5.473   0.278
68875SOL     OW 8463   4.031   4.241   1.032
68875SOL    HW1 8464   4.005   4.319   0.984
68875SOL    HW2 8465   3.964   4.176   1.010
68876SOL     OW 8466  13.607   6.466   6.652
68876SOL    HW1 8467  13.654   6.389   6.683
68876SOL    HW2 8468  13.587   6.516   6.731
68877SOL     OW 8469   8.707   5.558   7.074
68877SOL    HW1 8470   8.728   5.560   6.981
68877SOL    HW2 8471   8.774   5.502   7.114
68878SOL     OW 8472  12.966   2.915   9.786
68878SOL    HW1 8473  12.921   2.894   9.704
68878SOL    HW2 8474  12.999   3.004   9.773
68879SOL     OW 8475   6.326  11.341   5.592
68879SOL    HW1 8476   6.244  11.383   5.616
68879SOL    HW2 8477   6.372  11.406   5.539
68880SOL     OW 8478   0.497   7.347  11.677
68880SOL    HW1 8479   0.567   7.283  11.690
68880SOL    HW2 8480   0.541   7.432  11.678
68881SOL     OW 8481   6.602  11.426   4.958
68881SOL    HW1 8482   6.677  11.365   4.955
68881SOL    HW2 8483   6.525  11.369   4.956
68882SOL     OW 8484   2.181  14.625   6.947
68882SOL    HW1 8485   2.132  14.684   6.889
68882SOL    HW2 8486   2.237  14.684   6.998
68883SOL     OW 8487   7.818  12.409   7.105
68883SOL    HW1 8488   7.820  12.352   7.027
68883SOL    HW2 8489   7.725  12.421   7.123
68884SOL     OW 8490   3.177  12.385   9.778
68884SOL    HW1 8491   3.171  12.368   9.684
68884SOL    HW2 8492   3.247  12.327   9.808
68885SOL     OW 8493   2.862   6.451   6.826
68885SOL    HW1 8494   2.802   6.471   6.897
68885SOL    HW2 8495   2.937   6.410   6.868
68886SOL     OW 8496  14.179   4.917  11.891
68886SOL    HW1 8497  14.270   4.890  11.904
68886SOL    HW2 8498  14.184   5.012  11.883
68887SOL     OW 8499   4.633   8.221  13.249
68887SOL    HW1 8500   4.705   8.280  13.270
68887SOL    HW2 8501   4.665   8.134  13.274
68888SOL     OW 8502   6.872   1.384   1.291
68888SOL    HW1 8503   6.829   1.330   1.357
68888SOL    HW2 8504   6.820   1.372   1.212
68889SOL     OW 8505  13.167   1.413  11.676
68889SOL    HW1 8506  13.256   1.378  11.682
68889SOL    HW2 8507  13.124   1.360  11.609
68890SOL     OW 8508   7.824  14.021   1.381
68890SOL    HW1 8509   7.893  14.074   1.420
68890SOL    HW2 8510   7.787  13.973   1.455
68891SOL     OW 8511   2.753   3.760  10.838
68891SOL    HW1 8512   2.801   3.707  10.902
68891SOL    HW2 8513   2.664   3.726  10.840
68892SOL     OW 8514   1.027  14.631   8.220
68892SOL    HW1 8515   1.057  14.602   8.306
68892SOL    HW2 8516   0.950  14.685   8.239
68893SOL     OW 8517   0.756   6.873   7.324
68893SOL    HW1 8518   0.707   6.799   7.360
68893SOL    HW2 8519   0.846   6.842   7.318
68894SOL     OW 8520   2.830   2.299  10.063
68894SOL    HW1 8521   2.764   2.363  10.090
68894SOL    HW2 8522   2.868   2.336   9.984
68895SOL     OW 8523   5.602   5.851  13.003
68895SOL    HW1 8524   5.542   5.777  13.000
68895SOL    HW2 8525   5.656   5.835  13.081
68896SOL     OW 8526  10.220  11.937   7.629
68896SOL    HW1 8527  10.281  12.005   7.601
68896SOL    HW2 8528  10.163  11.981   7.692
68897SOL     OW 8529  10.934   9.202  10.555
68897SOL    HW1 8530  10.847   9.224  10.589
68897SOL    HW2 8531  10.966   9.134  10.614
68898SOL     OW 8532   8.598   2.851  13.001
68898SOL    HW1 8533   8.691   2.860  13.019
68898SOL    HW2 8534   8.556   2.914  13.060
68899SOL     OW 8535  13.038   7.688   0.725
68899SOL    HW1 8536  13.061   7.603   0.762
68899SOL    HW2 8537  12.961   7.716   0.774
68900SOL     OW 8538   1.077   5.820   1.222
68900SOL    HW1 8539   1.001   5.764   1.203
68900SOL    HW2 8540   1.098   5.801   1.313
68901SOL     OW 8541   2.617   6.032   9.734
68901SOL    HW1 8542   2.568   6.071   9.806
68901SOL    HW2 8543   2.709   6.036   9.762
68902SOL     OW 8544   8.434   1.736   9.450
68902SOL    HW1 8545   8.430   1.658   9.396
68902SOL    HW2 8546   8.458   1.704   9.537
68903SOL     OW 8547   4.791   2.463   6.661
68903SOL    HW1 8548   4.699   2.454   6.634
68903SOL    HW2 8549   4.840   2.464   6.579
68904SOL     OW 8550   6.041   3.168   7.979
68904SOL    HW1 8551   5.952   3.144   8.006
68904SOL    HW2 8552   6.073   3.225   8.048
68905SOL     OW 8553   1.082   2.060   6.832
68905SOL    HW1 8554   1.110   2.146   6.864
68905SOL    HW2 8555   1.070   2.073   6.738
68906SOL     OW 8556   3.674   0.594  11.408
68906SOL    HW1 8557   3.632   0.638  11.334
68906SOL    HW2 8558   3.767   0.595  11.386
68907SOL     OW 8559   5.778   3.658   2.836
68907SOL    HW1 8560   5.805   3.586   2.894
68907SOL    HW2 8561   5.705   3.700   2.882
68908SOL     OW 8562  14.310  10.257   3.254
68908SOL    HW1 8563  14.220  10.227   3.240
68908SOL    HW2 8564  14.348  10.262   3.166
68909SOL     OW 8565   8.169  12.219  13.892
68909SOL    HW1 8566   8.187  12.226  13.986
68909SOL    HW2 8567   8.107  12.290  13.874
68910SOL     OW 8568  11.907  14.064   1.329
68910SOL    HW1 8569  11.845  14.124   1.369
68910SOL    HW2 8570  11.921  13.995   1.394
68911SOL     OW 8571  14.391  11.868  11.680
68911SOL    HW1 8572  14.460  11.932  11.699
68911SOL    HW2 8573  14.313  11.905  11.722
68912SOL     OW 8574   8.861  14.440   9.906
68912SOL    HW1 8575   8.900  14.353   9.918
68912SOL    HW2 8576   8.766  14.424   9.904
68913SOL     OW 8577   1.060   4.256  13.795
68913SOL    HW1 8578   0.974   4.214  13.791
68913SOL    HW2 8579   1.065   4.292  13.884
68914SOL     OW 8580  11.787  13.018   7.998
68914SOL    HW1 8581  11.840  13.061   7.931
68914SOL    HW2 8582  11.793  13.075   8.075
68915SOL     OW 8583  13.469  12.272   6.263
68915SOL    HW1 8584  13.544  12.331   6.256
68915SOL    HW2 8585  13.453  12.264   6.358
68916SOL     OW 8586  13.240  14.383   4.425
68916SOL    HW1 8587  13.289  14.413   4.349
68916SOL    HW2 8588  13.293  14.410   4.500
68917SOL     OW 8589  14.155   5.419   3.591
68917SOL    HW1 8590  14.225   5.449   3.533
68917SOL    HW2 8591  14.189   5.432   3.679
68918SOL     OW 8592   9.571  10.571  12.461
68918SOL    HW1 8593   9.557  10.647  12.405
68918SOL    HW2 8594   9.652  10.532  12.430
68919SOL     OW 8595   6.255  10.391  11.626
68919SOL    HW1 8596   6.231  10.396  11.533
68919SOL    HW2 8597   6.195  10.326  11.663
68920SOL     OW 8598   8.361   5.966   1.415
68920SOL    HW1 8599   8.407   6.045   1.388
68920SOL    HW2 8600   8.390   5.899   1.353
68921SOL     OW 8601  14.457   4.937  14.869
68921SOL    HW1 8602  14.420   4.877  14.805
68921SOL    HW2 8603  14.395   4.935   0.060
68922SOL     OW 8604   4.025   5.795  12.600
68922SOL    HW1 8605   4.015   5.860  12.669
68922SOL    HW2 8606   4.028   5.711  12.646
68923SOL     OW 8607   6.994  10.096   5.479
68923SOL    HW1 8608   7.052  10.155   5.431
68923SOL    HW2 8609   6.951  10.151   5.544
68924SOL     OW 8610   3.379  10.871  10.350
68924SOL    HW1 8611   3.376  10.778  10.330
68924SOL    HW2 8612   3.470  10.896  10.334
68925SOL     OW 8613  13.958  11.807   3.663
68925SOL    HW1 8614  13.939  11.786   3.572
68925SOL    HW2 8615  13.958  11.722   3.708
68926SOL     OW 8616   3.126  12.414   0.930
68926SOL    HW1 8617   3.185  12.340   0.917
68926SOL    HW2 8618   3.172  12.488   0.890
68927SOL     OW 8619  11.986   4.830  11.194
68927SOL    HW1 8620  12.072   4.868  11.174
68927SOL    HW2 8621  11.968   4.772  11.121
68928SOL     OW 8622  11.489   7.820   0.114
68928SOL    HW1 8623  11.474   7.737   0.070
68928SOL    HW2 8624  11.580   7.817   0.141
68929SOL     OW 8625   5.875   6.160   7.681
68929SOL    HW1 8626   5.786   6.195   7.685
68929SOL    HW2 8627   5.931   6.237   7.672
68930SOL     OW 8628  11.813   3.600   3.721
68930SOL    HW1 8629  11.723   3.629   3.703
68930SOL    HW2 8630  11.865   3.636   3.649
68931SOL     OW 8631   4.736  13.466   0.254
68931SOL    HW1 8632   4.818  13.419   0.239
68931SOL    HW2 8633   4.738  13.539   0.192
68932SOL     OW 8634   9.619   5.114   4.001
68932SOL    HW1 8635   9.571   5.102   4.083
68932SOL    HW2 8636   9.616   5.028   3.959
68933SOL     OW 8637  12.755   8.053   1.100
68933SOL    HW1 8638  12.757   8.044   1.195
68933SOL    HW2 8639  12.843   8.083   1.077
68934SOL     OW 8640   3.799   8.255   1.304
68934SOL    HW1 8641   3.864   8.262   1.234
68934SOL    HW2 8642   3.806   8.165   1.335
68935SOL     OW 8643   2.199   6.329   9.496
68935SOL    HW1 8644   2.167   6.418   9.509
68935SOL    HW2 8645   2.282   6.326   9.544
68936SOL     OW 8646   7.375   6.207   5.752
68936SOL    HW1 8647   7.408   6.120   5.728
68936SOL    HW2 8648   7.331   6.238   5.673
68937SOL     OW 8649  11.803   5.457  11.783
68937SOL    HW1 8650  11.785   5.435  11.691
68937SOL    HW2 8651  11.828   5.373  11.823
68938SOL     OW 8652   6.153   4.754   5.036
68938SOL    HW1 8653   6.172   4.718   4.949
68938SOL    HW2 8654   6.068   4.715   5.059
68939SOL     OW 8655   2.857   5.299   3.063
68939SOL    HW1 8656   2.837   5.390   3.043
68939SOL    HW2 8657   2.953   5.295   3.063
68940SOL     OW 8658   8.046   9.008   5.272
68940SOL    HW1 8659   8.049   9.095   5.231
68940SOL    HW2 8660   8.103   9.016   5.348
68941SOL     OW 8661  12.954  10.639  11.169
68941SOL    HW1 8662  12.863  10.608  11.169
68941SOL    HW2 8663  12.978  10.641  11.077
68942SOL     OW 8664  12.616   1.155  12.766
68942SOL    HW1 8665  12.666   1.150  12.684
68942SOL    HW2 8666  12.673   1.114  12.831
68943SOL     OW 8667   8.245   1.589   2.871
68943SOL    HW1 8668   8.227   1.518   2.809
68943SOL    HW2 8669   8.340   1.588   2.882
68944SOL     OW 8670  11.932   2.481   6.378
68944SOL    HW1 8671  12.024   2.481   6.352
68944SOL    HW2 8672  11.935   2.472   6.473
68945SOL     OW 8673   2.184   5.445   8.009
68945SOL    HW1 8674   2.214   5.355   8.019
68945SOL    HW2 8675   2.247   5.496   8.061
68946SOL     OW 8676   6.467  13.710   3.845
68946SOL    HW1 8677   6.500  13.649   3.779
68946SOL    HW2 8678   6.400  13.760   3.799
68947SOL     OW 8679   3.838   2.994   2.606
68947SOL    HW1 8680   3.789   2.924   2.563
68947SOL    HW2 8681   3.915   3.007   2.551
68948SOL     OW 8682   6.174   4.910  14.360
68948SOL    HW1 8683   6.176   4.848  14.288
68948SOL    HW2 8684   6.081   4.928  14.375
68949SOL     OW 8685   9.974   3.241  11.092
68949SOL    HW1 8686   9.938   3.209  11.175
68949SOL    HW2 8687   9.965   3.336  11.097
68950SOL     OW 8688   9.940   7.143   1.759
68950SOL    HW1 8689   9.893   7.144   1.675
68950SOL    HW2 8690  10.018   7.196   1.743
68951SOL     OW 8691   2.987  12.363   1.216
68951SOL    HW1 8692   3.037  12.376   1.297
68951SOL    HW2 8693   3.046  12.394   1.147
68952SOL     OW 8694   2.445   2.224   7.787
68952SOL    HW1 8695   2.419   2.313   7.763
68952SOL    HW2 8696   2.502   2.236   7.864
68953SOL     OW 8697   7.433   6.720   0.672
68953SOL    HW1 8698   7.488   6.700   0.597
68953SOL    HW2 8699   7.466   6.803   0.705
68954SOL     OW 8700  11.780   3.760  13.329
68954SOL    HW1 8701  11.782   3.728  13.238
68954SOL    HW2 8702  11.801   3.683  13.382
68955SOL     OW 8703  12.897   2.288  13.437
68955SOL    HW1 8704  12.832   2.219  13.447
68955SOL    HW2 8705  12.875   2.330  13.354
68956SOL     OW 8706  12.490  11.015  14.374
68956SOL    HW1 8707  12.435  11.093  14.371
68956SOL    HW2 8708  12.576  11.045  14.345
68957SOL     OW 8709   7.100   9.461   9.515
68957SOL    HW1 8710   7.090   9.368   9.498
68957SOL    HW2 8711   7.088   9.470   9.609
68958SOL     OW 8712   6.583   3.874   6.556
68958SOL    HW1 8713   6.663   3.919   6.584
68958SOL    HW2 8714   6.555   3.922   6.478
68959SOL     OW 8715   8.515  10.543  14.610
68959SOL    HW1 8716   8.518  10.483  14.685
68959SOL    HW2 8717   8.519  10.630  14.649
68960SOL     OW 8718   7.387   8.261  11.380
68960SOL    HW1 8719   7.324   8.299  11.319
68960SOL    HW2 8720   7.345   8.179  11.409
68961SOL     OW 8721  13.391   7.352   4.248
68961SOL    HW1 8722  13.384   7.406   4.327
68961SOL    HW2 8723  13.359   7.408   4.178
68962SOL     OW 8724   9.432   1.866   4.298
68962SOL    HW1 8725   9.445   1.834   4.387
68962SOL    HW2 8726   9.394   1.953   4.310
68963SOL     OW 8727  13.549   6.501   1.364
68963SOL    HW1 8728  13.550   6.525   1.457
68963SOL    HW2 8729  13.589   6.576   1.320
68964SOL     OW 8730  10.511  12.801   4.579
68964SOL    HW1 8731  10.535  12.892   4.564
68964SOL    HW2 8732  10.494  12.795   4.673
68965SOL     OW 8733   0.210   0.088  12.443
68965SOL    HW1 8734   0.157   0.068  12.366
68965SOL    HW2 8735   0.174   0.170  12.477
68966SOL     OW 8736   8.717  11.287   5.870
68966SOL    HW1 8737   8.776  11.235   5.816
68966SOL    HW2 8738   8.647  11.226   5.893
68967SOL     OW 8739  11.035   6.721   2.674
68967SOL    HW1 8740  10.964   6.772   2.637
68967SOL    HW2 8741  11.024   6.730   2.769
68968SOL     OW 8742   6.218   0.029   1.811
68968SOL    HW1 8743   6.309  14.882   1.823
68968SOL    HW2 8744   6.224   0.125   1.808
68969SOL     OW 8745   0.042   7.772   2.136
68969SOL    HW1 8746   0.085   7.828   2.200
68969SOL    HW2 8747  14.874   7.709   2.189
68970SOL     OW 8748   1.624   5.305  12.451
68970SOL    HW1 8749   1.596   5.296  12.360
68970SOL    HW2 8750   1.585   5.229  12.495
68971SOL     OW 8751   7.103   0.783   6.344
68971SOL    HW1 8752   7.071   0.698   6.313
68971SOL    HW2 8753   7.199   0.775   6.339
68972SOL     OW 8754  12.161   3.617   4.073
68972SOL    HW1 8755  12.164   3.692   4.133
68972SOL    HW2 8756  12.197   3.544   4.125
68973SOL     OW 8757  10.445   1.632   0.785
68973SOL    HW1 8758  10.530   1.620   0.828
68973SOL    HW2 8759  10.401   1.548   0.794
68974SOL     OW 8760   2.275  11.600   9.901
68974SOL    HW1 8761   2.210  11.669   9.901
68974SOL    HW2 8762   2.344  11.632   9.959
68975SOL     OW 8763   0.774  14.325   5.101
68975SOL    HW1 8764   0.846  14.328   5.164
68975SOL    HW2 8765   0.705  14.379   5.140
68976SOL     OW 8766   8.776   1.256   8.708
68976SOL    HW1 8767   8.808   1.327   8.653
68976SOL    HW2 8768   8.825   1.179   8.678
68977SOL     OW 8769   3.308   3.593   0.562
68977SOL    HW1 8770   3.375   3.544   0.609
68977SOL    HW2 8771   3.225   3.550   0.585
68978SOL     OW 8772   2.950   8.699  14.663
68978SOL    HW1 8773   2.867   8.711  14.709
68978SOL    HW2 8774   2.929   8.637  14.593
68979SOL     OW 8775   0.811   4.297  11.095
68979SOL    HW1 8776   0.753   4.325  11.024
68979SOL    HW2 8777   0.873   4.238  11.054
68980SOL     OW 8778   8.129  13.973   7.203
68980SOL    HW1 8779   8.058  14.003   7.260
68980SOL    HW2 8780   8.138  13.880   7.222
68981SOL     OW 8781   0.517   0.306  14.621
68981SOL    HW1 8782   0.606   0.270  14.629
68981SOL    HW2 8783   0.504   0.317  14.527
68982SOL     OW 8784   5.000   1.285  14.685
68982SOL    HW1 8785   5.028   1.313  14.598
68982SOL    HW2 8786   4.905   1.282  14.680
68983SOL     OW 8787   7.101   4.458  12.171
68983SOL    HW1 8788   7.059   4.429  12.252
68983SOL    HW2 8789   7.152   4.382  12.142
68984SOL     OW 8790   3.325   5.304  13.565
68984SOL    HW1 8791   3.263   5.235  13.540
68984SOL    HW2 8792   3.410   5.270  13.537
68985SOL     OW 8793  11.579   8.484   5.186
68985SOL    HW1 8794  11.656   8.430   5.166
68985SOL    HW2 8795  11.516   8.422   5.223
68986SOL     OW 8796   8.094   1.982   3.412
68986SOL    HW1 8797   8.106   1.968   3.318
68986SOL    HW2 8798   8.097   2.077   3.422
68987SOL     OW 8799  12.197   9.773   9.736
68987SOL    HW1 8800  12.262   9.716   9.778
68987SOL    HW2 8801  12.136   9.795   9.806
68988SOL     OW 8802   1.756   4.406   9.572
68988SOL    HW1 8803   1.772   4.498   9.591
68988SOL    HW2 8804   1.679   4.406   9.515
68989SOL     OW 8805   6.147   2.774  11.320
68989SOL    HW1 8806   6.144   2.686  11.283
68989SOL    HW2 8807   6.067   2.816  11.289
68990SOL     OW 8808   0.440   1.896   9.482
68990SOL    HW1 8809   0.417   1.823   9.426
68990SOL    HW2 8810   0.527   1.923   9.452
68991SOL     OW 8811   7.312   5.455   6.357
68991SOL    HW1 8812   7.347   5.428   6.271
68991SOL    HW2 8813   7.372   5.524   6.386
68992SOL     OW 8814  13.902  11.293   5.742
68992SOL    HW1 8815  13.875  11.266   5.654
68992SOL    HW2 8816  13.821  11.292   5.793
68993SOL     OW 8817  12.611  11.375   8.789
68993SOL    HW1 8818  12.630  11.282   8.779
68993SOL    HW2 8819  12.595  11.386   8.883
68994SOL     OW 8820  12.790  12.859   7.422
68994SOL    HW1 8821  12.724  12.862   7.492
68994SOL    HW2 8822  12.749  12.905   7.348
68995SOL     OW 8823   0.122  11.122   5.698
68995SOL    HW1 8824   0.059  11.112   5.769
68995SOL    HW2 8825   0.098  11.204   5.655
68996SOL     OW 8826  12.200   6.226  12.296
68996SOL    HW1 8827  12.168   6.301  12.246
68996SOL    HW2 8828  12.294   6.224  12.279
68997SOL     OW 8829  14.348  14.147  14.671
68997SOL    HW1 8830  14.324  14.055  14.683
68997SOL    HW2 8831  14.320  14.167  14.582
68998SOL     OW 8832   6.567  10.663   1.267
68998SOL    HW1 8833   6.606  10.705   1.344
68998SOL    HW2 8834   6.606  10.709   1.192
68999SOL     OW 8835   2.073  12.982   6.181
68999SOL    HW1 8836   2.118  13.036   6.246
68999SOL    HW2 8837   2.050  12.902   6.228
69000SOL     OW 8838   2.633   2.866   1.537
69000SOL    HW1 8839   2.653   2.959   1.533
69000SOL    HW2 8840   2.572   2.851   1.465
69001SOL     OW 8841   8.985   7.009   7.519
69001SOL    HW1 8842   9.053   7.007   7.452
69001SOL    HW2 8843   8.939   7.092   7.504
69002SOL     OW 8844  10.683  11.961   4.550
69002SOL    HW1 8845  10.776  11.938   4.554
69002SOL    HW2 8846  10.682  12.057   4.556
69003SOL     OW 8847   8.009  10.723   3.979
69003SOL    HW1 8848   8.103  10.716   3.963
69003SOL    HW2 8849   7.998  10.810   4.017
69004SOL     OW 8850   8.278   1.491   0.759
69004SOL    HW1 8851   8.222   1.445   0.697
69004SOL    HW2 8852   8.218   1.527   0.824
69005SOL     OW 8853  12.102   2.453  12.034
69005SOL    HW1 8854  12.036   2.391  12.067
69005SOL    HW2 8855  12.051   2.530  12.006
69006SOL     OW 8856   5.222  12.486   2.238
69006SOL    HW1 8857   5.189  12.485   2.148
69006SOL    HW2 8858   5.160  12.431   2.287
69007SOL     OW 8859   8.456   8.692   4.198
69007SOL    HW1 8860   8.479   8.601   4.216
69007SOL    HW2 8861   8.531   8.726   4.149
69008SOL     OW 8862  11.433   1.869   6.054
69008SOL    HW1 8863  11.401   1.779   6.058
69008SOL    HW2 8864  11.358   1.922   6.081
69009SOL     OW 8865   0.527  14.473  14.382
69009SOL    HW1 8866   0.500  14.491  14.292
69009SOL    HW2 8867   0.476  14.534  14.435
69010SOL     OW 8868   6.602  14.400   7.846
69010SOL    HW1 8869   6.617  14.482   7.892
69010SOL    HW2 8870   6.529  14.418   7.787
69011SOL     OW 8871  14.504   0.970   9.474
69011SOL    HW1 8872  14.534   0.971   9.383
69011SOL    HW2 8873  14.580   0.999   9.525
69012SOL     OW 8874   9.262   7.259  12.472
69012SOL    HW1 8875   9.321   7.226  12.404
69012SOL    HW2 8876   9.201   7.186  12.489
69013SOL     OW 8877   3.641  13.421  10.015
69013SOL    HW1 8878   3.593  13.339  10.032
69013SOL    HW2 8879   3.725  13.392   9.981
69014SOL     OW 8880   7.921   6.539  12.142
69014SOL    HW1 8881   7.991   6.603  12.151
69014SOL    HW2 8882   7.866   6.573  12.072
69015SOL     OW 8883   9.710   9.821   9.307
69015SOL    HW1 8884   9.713   9.884   9.234
69015SOL    HW2 8885   9.753   9.743   9.272
69016SOL     OW 8886   7.169   2.400   7.296
69016SOL    HW1 8887   7.239   2.369   7.237
69016SOL    HW2 8888   7.141   2.322   7.343
69017SOL     OW 8889   4.571   2.970  10.341
69017SOL    HW1 8890   4.556   3.064  10.337
69017SOL    HW2 8891   4.665   2.960  10.333
69018SOL     OW 8892   2.487  11.326  11.005
69018SOL    HW1 8893   2.498  11.233  10.984
69018SOL    HW2 8894   2.553  11.343  11.073
69019SOL     OW 8895   4.706   3.667   4.680
69019SOL    HW1 8896   4.676   3.576   4.684
69019SOL    HW2 8897   4.626   3.719   4.685
69020SOL     OW 8898  12.181   9.498   6.791
69020SOL    HW1 8899  12.216   9.454   6.868
69020SOL    HW2 8900  12.250   9.558   6.763
69021SOL     OW 8901   1.851   6.731  11.117
69021SOL    HW1 8902   1.890   6.649  11.147
69021SOL    HW2 8903   1.895   6.749  11.034
69022SOL     OW 8904   2.707   2.413   8.547
69022SOL    HW1 8905   2.625   2.455   8.572
69022SOL    HW2 8906   2.681   2.325   8.520
69023SOL     OW 8907  13.199   9.123   1.083
69023SOL    HW1 8908  13.163   9.130   1.172
69023SOL    HW2 8909  13.289   9.152   1.092
69024SOL     OW 8910  12.999   4.499   4.175
69024SOL    HW1 8911  13.057   4.439   4.221
69024SOL    HW2 8912  13.019   4.585   4.212
69025SOL     OW 8913   3.127   8.249  13.552
69025SOL    HW1 8914   3.107   8.177  13.611
69025SOL    HW2 8915   3.044   8.269  13.509
69026SOL     OW 8916   8.304   2.014   4.335
69026SOL    HW1 8917   8.338   1.986   4.420
69026SOL    HW2 8918   8.355   2.091   4.312
69027SOL     OW 8919   5.675   3.974   1.088
69027SOL    HW1 8920   5.603   4.036   1.099
69027SOL    HW2 8921   5.632   3.894   1.058
69028SOL     OW 8922  11.390  12.623   9.389
69028SOL    HW1 8923  11.310  12.667   9.419
69028SOL    HW2 8924  11.445  12.694   9.355
69029SOL     OW 8925   6.747  14.025   7.331
69029SOL    HW1 8926   6.834  14.049   7.299
69029SOL    HW2 8927   6.709  14.108   7.360
69030SOL     OW 8928   2.196   2.316   9.308
69030SOL    HW1 8929   2.271   2.354   9.262
69030SOL    HW2 8930   2.156   2.258   9.243
69031SOL     OW 8931   2.995  12.014   7.055
69031SOL    HW1 8932   3.025  11.925   7.037
69031SOL    HW2 8933   3.076  12.064   7.070
69032SOL     OW 8934  11.975   7.783  12.700
69032SOL    HW1 8935  11.959   7.725  12.774
69032SOL    HW2 8936  11.939   7.737  12.625
69033SOL     OW 8937   2.721   9.480   8.364
69033SOL    HW1 8938   2.750   9.389   8.368
69033SOL    HW2 8939   2.625   9.475   8.361
69034SOL     OW 8940   1.619   2.434   1.039
69034SOL    HW1 8941   1.713   2.419   1.031
69034SOL    HW2 8942   1.611   2.493   1.115
69035SOL     OW 8943   0.166   8.129  11.006
69035SOL    HW1 8944   0.203   8.041  10.997
69035SOL    HW2 8945   0.168   8.147  11.100
69036SOL     OW 8946  11.050  12.262   0.058
69036SOL    HW1 8947  11.125  12.279   0.002
69036SOL    HW2 8948  11.036  12.344   0.106
69037SOL     OW 8949   2.574   0.192   9.920
69037SOL    HW1 8950   2.625   0.270   9.941
69037SOL    HW2 8951   2.596   0.130   9.990
69038SOL     OW 8952   9.846  12.718  12.465
69038SOL    HW1 8953   9.899  12.640  12.457
69038SOL    HW2 8954   9.906  12.786  12.496
69039SOL     OW 8955  10.823  13.956  13.008
69039SOL    HW1 8956  10.768  13.967  12.930
69039SOL    HW2 8957  10.897  13.904  12.978
69040SOL     OW 8958   3.992   4.037  12.516
69040SOL    HW1 8959   4.071   3.991  12.544
69040SOL    HW2 8960   4.005   4.051  12.422
69041SOL     OW 8961   0.624   0.842   3.386
69041SOL    HW1 8962   0.644   0.800   3.302
69041SOL    HW2 8963   0.621   0.935   3.366
69042SOL     OW 8964  12.290  11.543   4.044
69042SOL    HW1 8965  12.199  11.537   4.017
69042SOL    HW2 8966  12.297  11.628   4.086
69043SOL     OW 8967   5.573  11.245   3.067
69043SOL    HW1 8968   5.608  11.156   3.061
69043SOL    HW2 8969   5.644  11.301   3.036
69044SOL     OW 8970   0.851   9.491   5.081
69044SOL    HW1 8971   0.841   9.504   4.987
69044SOL    HW2 8972   0.932   9.441   5.090
69045SOL     OW 8973  10.150  11.956   3.509
69045SOL    HW1 8974  10.153  12.052   3.517
69045SOL    HW2 8975  10.063  11.932   3.542
69046SOL     OW 8976   3.025   1.458   6.939
69046SOL    HW1 8977   3.064   1.509   7.010
69046SOL    HW2 8978   2.988   1.524   6.879
69047SOL     OW 8979  10.182  13.648   5.408
69047SOL    HW1 8980  10.253  13.614   5.353
69047SOL    HW2 8981  10.202  13.741   5.418
69048SOL     OW 8982   3.937   5.550  14.576
69048SOL    HW1 8983   3.991   5.473  14.555
69048SOL    HW2 8984   3.992   5.624  14.550
69049SOL     OW 8985   0.316   8.663   0.429
69049SOL    HW1 8986   0.379   8.723   0.467
69049SOL    HW2 8987   0.248   8.719   0.392
69050SOL     OW 8988   3.686   0.208   3.634
69050SOL    HW1 8989   3.742   0.191   3.710
69050SOL    HW2 8990   3.690   0.128   3.583
69051SOL     OW 8991   4.483   3.820  14.487
69051SOL    HW1 8992   4.448   3.909  14.484
69051SOL    HW2 8993   4.437   3.773  14.418
69052SOL     OW 8994   8.457  14.168  11.556
69052SOL    HW1 8995   8.421  14.170  11.645
69052SOL    HW2 8996   8.437  14.079  11.525
69053SOL     OW 8997   3.999  14.058  11.318
69053SOL    HW1 8998   3.928  14.083  11.259
69053SOL    HW2 8999   4.023  13.970  11.290
69054SOL     OW 9000  14.720   2.584   0.663
69054SOL    HW1 9001  14.739   2.543   0.579
69054SOL    HW2 9002  14.758   2.672   0.655
69055SOL     OW 9003  11.615   4.749   9.865
69055SOL    HW1 9004  11.552   4.803   9.816
69055SOL    HW2 9005  11.696   4.799   9.864
69056SOL     OW 9006   3.937  14.782  11.544
69056SOL    HW1 9007   3.949  14.871  11.576
69056SOL    HW2 9008   3.853  14.755  11.579
69057SOL     OW 9009   7.356   7.915   4.915
69057SOL    HW1 9010   7.397   7.935   4.831
69057SOL    HW2 9011   7.272   7.959   4.912
69058SOL     OW 9012   4.123   7.557   7.125
69058SOL    HW1 9013   4.053   7.613   7.157
69058SOL    HW2 9014   4.139   7.587   7.035
69059SOL     OW 9015   2.062  12.344   7.125
69059SOL    HW1 9016   2.014  12.311   7.201
69059SOL    HW2 9017   2.020  12.301   7.050
69060SOL     OW 9018  12.271   1.128  14.589
69060SOL    HW1 9019  12.335   1.143  14.659
69060SOL    HW2 9020  12.276   1.207  14.536
69061SOL     OW 9021   5.093  11.441   1.585
69061SOL    HW1 9022   5.172  11.423   1.636
69061SOL    HW2 9023   5.022  11.402   1.637
69062SOL     OW 9024   8.962  13.377   6.349
69062SOL    HW1 9025   8.922  13.443   6.405
69062SOL    HW2 9026   9.051  13.410   6.333
69063SOL     OW 9027   2.839  14.055   4.800
69063SOL    HW1 9028   2.923  14.018   4.772
69063SOL    HW2 9029   2.785  14.056   4.721
69064SOL     OW 9030   4.365   2.672  13.881
69064SOL    HW1 9031   4.406   2.614  13.945
69064SOL    HW2 9032   4.288   2.623  13.851
69065SOL     OW 9033  11.980   5.873   2.609
69065SOL    HW1 9034  11.940   5.833   2.532
69065SOL    HW2 9035  11.968   5.808   2.679
69066SOL     OW 9036   4.660   9.729  14.808
69066SOL    HW1 9037   4.667   9.757  14.716
69066SOL    HW2 9038   4.639   9.636  14.802
69067SOL     OW 9039  13.208   6.117   6.016
69067SOL    HW1 9040  13.149   6.164   5.957
69067SOL    HW2 9041  13.161   6.036   6.038
69068SOL     OW 9042   0.157   3.901  14.606
69068SOL    HW1 9043   0.092   3.967  14.629
69068SOL    HW2 9044   0.112   3.845  14.542
69069SOL     OW 9045  13.932   2.771  12.283
69069SOL    HW1 9046  13.933   2.678  12.260
69069SOL    HW2 9047  13.841   2.788  12.307
69070SOL     OW 9048   2.014  12.615  12.947
69070SOL    HW1 9049   2.042  12.614  13.038
69070SOL    HW2 9050   2.090  12.647  12.898
69071SOL     OW 9051   3.770  13.312   4.277
69071SOL    HW1 9052   3.679  13.282   4.282
69071SOL    HW2 9053   3.821  13.235   4.302
69072SOL     OW 9054   4.232   3.827   1.192
69072SOL    HW1 9055   4.319   3.828   1.153
69072SOL    HW2 9056   4.230   3.903   1.249
69073SOL     OW 9057  14.414  11.421  13.671
69073SOL    HW1 9058  14.369  11.394  13.591
69073SOL    HW2 9059  14.451  11.507  13.650
69074SOL     OW 9060   2.744   9.608  11.530
69074SOL    HW1 9061   2.781   9.533  11.484
69074SOL    HW2 9062   2.765   9.683  11.476
69075SOL     OW 9063   9.298  12.711   1.103
69075SOL    HW1 9064   9.340  12.747   1.024
69075SOL    HW2 9065   9.300  12.782   1.166
69076SOL     OW 9066  12.480   2.989  14.131
69076SOL    HW1 9067  12.415   3.015  14.197
69076SOL    HW2 9068  12.547   3.057  14.135
69077SOL     OW 9069   2.481  11.529  14.817
69077SOL    HW1 9070   2.528  11.560  14.740
69077SOL    HW2 9071   2.479  11.605  14.876
69078SOL     OW 9072  11.829  10.106   3.583
69078SOL    HW1 9073  11.870  10.111   3.670
69078SOL    HW2 9074  11.843  10.016   3.555
69079SOL     OW 9075   5.385   3.455   1.898
69079SOL    HW1 9076   5.437   3.391   1.849
69079SOL    HW2 9077   5.427   3.539   1.881
69080SOL     OW 9078   8.253  13.484  13.298
69080SOL    HW1 9079   8.223  13.554  13.241
69080SOL    HW2 9080   8.269  13.410  13.239
69081SOL     OW 9081  13.230   8.446  10.518
69081SOL    HW1 9082  13.220   8.467  10.425
69081SOL    HW2 9083  13.144   8.412  10.544
69082SOL     OW 9084   3.208   4.770   9.681
69082SOL    HW1 9085   3.242   4.729   9.601
69082SOL    HW2 9086   3.121   4.733   9.693
69083SOL     OW 9087   3.229   6.695  13.542
69083SOL    HW1 9088   3.152   6.747  13.565
69083SOL    HW2 9089   3.297   6.725  13.603
69084SOL     OW 9090   0.571   7.481   1.957
69084SOL    HW1 9091   0.541   7.460   2.045
69084SOL    HW2 9092   0.658   7.517   1.969
69085SOL     OW 9093  11.791  14.013  12.072
69085SOL    HW1 9094  11.878  13.977  12.052
69085SOL    HW2 9095  11.808  14.087  12.130
69086SOL     OW 9096   4.213   1.976  13.823
69086SOL    HW1 9097   4.297   1.971  13.776
69086SOL    HW2 9098   4.232   2.031  13.899
69087SOL     OW 9099   9.307  13.393  14.402
69087SOL    HW1 9100   9.288  13.486  14.409
69087SOL    HW2 9101   9.348  13.383  14.316
69088SOL     OW 9102   4.744   0.951   7.072
69088SOL    HW1 9103   4.712   0.910   7.152
69088SOL    HW2 9104   4.681   1.021   7.053
69089SOL     OW 9105  12.856  14.277   1.726
69089SOL    HW1 9106  12.877  14.331   1.650
69089SOL    HW2 9107  12.921  14.207   1.724
69090SOL     OW 9108  13.582  11.544  12.161
69090SOL    HW1 9109  13.587  11.472  12.224
69090SOL    HW2 9110  13.657  11.529  12.102
69091SOL     OW 9111  13.049  10.799   2.164
69091SOL    HW1 9112  12.998  10.728   2.203
69091SOL    HW2 9113  13.014  10.878   2.204
69092SOL     OW 9114  14.167   4.070   2.191
69092SOL    HW1 9115  14.128   4.133   2.251
69092SOL    HW2 9116  14.214   4.123   2.127
69093SOL     OW 9117   0.986   9.450   3.152
69093SOL    HW1 9118   1.030   9.366   3.160
69093SOL    HW2 9119   1.057   9.513   3.136
69094SOL     OW 9120   0.452   4.936  13.618
69094SOL    HW1 9121   0.454   4.859  13.674
69094SOL    HW2 9122   0.419   4.903  13.534
69095SOL     OW 9123  10.550  11.884  10.587
69095SOL    HW1 9124  10.580  11.818  10.524
69095SOL    HW2 9125  10.469  11.919  10.549
69096SOL     OW 9126   8.819  14.000   5.872
69096SOL    HW1 9127   8.900  13.964   5.836
69096SOL    HW2 9128   8.776  13.925   5.914
69097SOL     OW 9129   4.628   7.894  12.048
69097SOL    HW1 9130   4.588   7.898  11.961
69097SOL    HW2 9131   4.559   7.858  12.104
69098SOL     OW 9132   5.655   5.621  12.698
69098SOL    HW1 9133   5.672   5.585  12.611
69098SOL    HW2 9134   5.692   5.557  12.758
69099SOL     OW 9135   3.081  13.625  13.388
69099SOL    HW1 9136   3.017  13.647  13.455
69099SOL    HW2 9137   3.097  13.531  13.399
69100SOL     OW 9138   2.905  12.384   2.080
69100SOL    HW1 9139   2.938  12.304   2.038
69100SOL    HW2 9140   2.812  12.365   2.096
69101SOL     OW 9141  11.686  10.082   5.334
69101SOL    HW1 9142  11.607  10.119   5.294
69101SOL    HW2 9143  11.751  10.151   5.328
69102SOL     OW 9144   9.102  13.895  11.169
69102SOL    HW1 9145   9.022  13.946  11.175
69102SOL    HW2 9146   9.152  13.919  11.247
69103SOL     OW 9147   8.580   9.976  12.257
69103SOL    HW1 9148   8.627   9.945  12.179
69103SOL    HW2 9149   8.515  10.038  12.222
69104SOL     OW 9150   0.789   4.342  10.611
69104SOL    HW1 9151   0.830   4.392  10.539
69104SOL    HW2 9152   0.710   4.305  10.572
69105SOL     OW 9153  12.368  14.109  13.443
69105SOL    HW1 9154  12.290  14.126  13.496
69105SOL    HW2 9155  12.441  14.108  13.506
69106SOL     OW 9156   0.809   3.487   3.050
69106SOL    HW1 9157   0.898   3.468   3.019
69106SOL    HW2 9158   0.764   3.523   2.973
69107SOL     OW 9159   3.449   8.817   4.321
69107SOL    HW1 9160   3.465   8.888   4.382
69107SOL    HW2 9161   3.413   8.747   4.375
69108SOL     OW 9162  10.575   7.290  12.042
69108SOL    HW1 9163  10.513   7.225  12.008
69108SOL    HW2 9164  10.523   7.341  12.104
69109SOL     OW 9165   3.704   0.467   9.188
69109SOL    HW1 9166   3.753   0.503   9.262
69109SOL    HW2 9167   3.614   0.497   9.201
69110SOL     OW 9168  10.985   7.955   2.644
69110SOL    HW1 9169  10.901   8.000   2.639
69110SOL    HW2 9170  11.025   7.988   2.725
69111SOL     OW 9171  14.145  13.362  10.090
69111SOL    HW1 9172  14.092  13.320  10.158
69111SOL    HW2 9173  14.162  13.292  10.027
69112SOL     OW 9174  11.687  11.358  11.454
69112SOL    HW1 9175  11.664  11.414  11.380
69112SOL    HW2 9176  11.690  11.270  11.416
69113SOL     OW 9177   9.722  12.061   8.212
69113SOL    HW1 9178   9.732  12.075   8.306
69113SOL    HW2 9179   9.759  11.974   8.197
69114SOL     OW 9180   8.445   5.927   2.359
69114SOL    HW1 9181   8.502   5.990   2.405
69114SOL    HW2 9182   8.382   5.981   2.312
69115SOL     OW 9183  13.876  10.696   9.265
69115SOL    HW1 9184  13.898  10.653   9.348
69115SOL    HW2 9185  13.799  10.748   9.285
69116SOL     OW 9186   0.694   9.792  10.126
69116SOL    HW1 9187   0.647   9.708  10.125
69116SOL    HW2 9188   0.631   9.855  10.089
69117SOL     OW 9189   2.019   6.257  11.998
69117SOL    HW1 9190   2.091   6.286  11.942
69117SOL    HW2 9191   2.042   6.288  12.085
69118SOL     OW 9192  12.197   4.621   1.433
69118SOL    HW1 9193  12.171   4.534   1.464
69118SOL    HW2 9194  12.175   4.622   1.340
69119SOL     OW 9195  12.132  13.491   0.702
69119SOL    HW1 9196  12.138  13.397   0.719
69119SOL    HW2 9197  12.060  13.500   0.639
69120SOL     OW 9198  13.432   2.902   1.992
69120SOL    HW1 9199  13.507   2.899   1.933
69120SOL    HW2 9200  13.470   2.884   2.079
69121SOL     OW 9201   9.095   5.032   0.129
69121SOL    HW1 9202   9.052   5.117   0.129
69121SOL    HW2 9203   9.024   4.968   0.129
69122SOL     OW 9204   6.846  14.232  13.475
69122SOL    HW1 9205   6.875  14.203  13.561
69122SOL    HW2 9206   6.852  14.327  13.478
69123SOL     OW 9207   6.626   7.541  14.493
69123SOL    HW1 9208   6.610   7.455  14.454
69123SOL    HW2 9209   6.612   7.603  14.421
69124SOL     OW 9210  12.456   7.893   3.799
69124SOL    HW1 9211  12.369   7.923   3.826
69124SOL    HW2 9212  12.443   7.858   3.711
69125SOL     OW 9213   6.921   2.997   3.441
69125SOL    HW1 9214   6.830   2.984   3.414
69125SOL    HW2 9215   6.920   3.083   3.484
69126SOL     OW 9216  10.707   6.203   6.216
69126SOL    HW1 9217  10.738   6.125   6.171
69126SOL    HW2 9218  10.643   6.172   6.280
69127SOL     OW 9219   5.081  10.682   7.002
69127SOL    HW1 9220   5.084  10.754   6.939
69127SOL    HW2 9221   5.167  10.640   6.994
69128SOL     OW 9222  10.204   1.939   6.258
69128SOL    HW1 9223  10.129   1.889   6.292
69128SOL    HW2 9224  10.244   1.881   6.193
69129SOL     OW 9225  13.337   2.873  11.044
69129SOL    HW1 9226  13.330   2.917  11.129
69129SOL    HW2 9227  13.285   2.927  10.984
69130SOL     OW 9228   5.855   9.524  11.817
69130SOL    HW1 9229   5.861   9.555  11.908
69130SOL    HW2 9230   5.944   9.499  11.794
69131SOL     OW 9231  14.462   5.957   8.759
69131SOL    HW1 9232  14.395   5.917   8.814
69131SOL    HW2 9233  14.529   5.986   8.820
69132SOL     OW 9234  14.414   9.553   4.436
69132SOL    HW1 9235  14.427   9.634   4.486
69132SOL    HW2 9236  14.340   9.572   4.379
69133SOL     OW 9237   0.042   9.559  14.878
69133SOL    HW1 9238   0.094   9.512  14.813
69133SOL    HW2 9239   0.107   9.601   0.053
69134SOL     OW 9240  10.382   7.738   6.620
69134SOL    HW1 9241  10.420   7.666   6.670
69134SOL    HW2 9242  10.349   7.696   6.540
69135SOL     OW 9243   0.798   2.734   6.942
69135SOL    HW1 9244   0.876   2.788   6.956
69135SOL    HW2 9245   0.809   2.697   6.855
69136SOL     OW 9246  13.637  10.880  11.838
69136SOL    HW1 9247  13.728  10.904  11.820
69136SOL    HW2 9248  13.643  10.792  11.875
69137SOL     OW 9249   0.564  10.362  12.386
69137SOL    HW1 9250   0.537  10.323  12.469
69137SOL    HW2 9251   0.482  10.387  12.344
69138SOL     OW 9252  11.038  14.724   3.013
69138SOL    HW1 9253  11.121  14.682   2.989
69138SOL    HW2 9254  10.994  14.741   2.930
69139SOL     OW 9255  10.708  10.338   6.658
69139SOL    HW1 9256  10.614  10.347   6.645
69139SOL    HW2 9257  10.736  10.272   6.594
69140SOL     OW 9258  10.604  12.949   0.797
69140SOL    HW1 9259  10.545  12.934   0.723
69140SOL    HW2 9260  10.617  13.044   0.798
69141SOL     OW 9261   9.739   8.239   1.520
69141SOL    HW1 9262   9.713   8.331   1.525
69141SOL    HW2 9263   9.828   8.237   1.555
69142SOL     OW 9264  12.618  11.261  13.382
69142SOL    HW1 9265  12.557  11.295  13.315
69142SOL    HW2 9266  12.631  11.170  13.358
69143SOL     OW 9267   2.496   1.302   0.798
69143SOL    HW1 9268   2.459   1.347   0.874
69143SOL    HW2 9269   2.582   1.271   0.828
69144SOL     OW 9270   1.882   0.303  12.366
69144SOL    HW1 9271   1.925   0.301  12.451
69144SOL    HW2 9272   1.792   0.331  12.385
69145SOL     OW 9273   1.560   0.228  11.505
69145SOL    HW1 9274   1.615   0.232  11.583
69145SOL    HW2 9275   1.560   0.317  11.470
69146SOL     OW 9276  14.600   3.431   6.694
69146SOL    HW1 9277  14.534   3.491   6.729
69146SOL    HW2 9278  14.578   3.422   6.601
69147SOL     OW 9279   6.492   9.232  12.831
69147SOL    HW1 9280   6.457   9.208  12.917
69147SOL    HW2 9281   6.448   9.314  12.810
69148SOL     OW 9282   7.626   9.139   3.718
69148SOL    HW1 9283   7.645   9.159   3.809
69148SOL    HW2 9284   7.708   9.107   3.682
69149SOL     OW 9285   8.039   3.309   3.043
69149SOL    HW1 9286   8.116   3.255   3.057
69149SOL    HW2 9287   8.067   3.374   2.978
69150SOL     OW 9288   2.651   2.331   2.190
69150SOL    HW1 9289   2.572   2.373   2.157
69150SOL    HW2 9290   2.618   2.260   2.246
69151SOL     OW 9291   4.521  14.466   2.374
69151SOL    HW1 9292   4.502  14.529   2.444
69151SOL    HW2 9293   4.597  14.503   2.329
69152SOL     OW 9294   0.985   8.345   8.815
69152SOL    HW1 9295   1.022   8.406   8.880
69152SOL    HW2 9296   1.056   8.334   8.751
69153SOL     OW 9297   6.387   1.295  11.433
69153SOL    HW1 9298   6.324   1.367  11.430
69153SOL    HW2 9299   6.349   1.233  11.496
69154SOL     OW 9300  10.897   7.609   0.980
69154SOL    HW1 9301  10.875   7.601   0.888
69154SOL    HW2 9302  10.856   7.691   1.008
69155SOL     OW 9303   1.615  14.349   4.609
69155SOL    HW1 9304   1.598  14.293   4.534
69155SOL    HW2 9305   1.635  14.435   4.570
69156SOL     OW 9306   1.174   2.902   3.176
69156SOL    HW1 9307   1.106   2.965   3.152
69156SOL    HW2 9308   1.128   2.835   3.226
69157SOL     OW 9309   8.373   0.096   5.867
69157SOL    HW1 9310   8.298   0.077   5.812
69157SOL    HW2 9311   8.389   0.190   5.855
69158SOL     OW 9312  11.768   9.354   7.871
69158SOL    HW1 9313  11.701   9.418   7.847
69158SOL    HW2 9314  11.798   9.318   7.787
69159SOL     OW 9315  13.950   5.183   9.838
69159SOL    HW1 9316  13.900   5.264   9.853
69159SOL    HW2 9317  14.000   5.171   9.919
69160SOL     OW 9318   7.359   1.418  13.940
69160SOL    HW1 9319   7.368   1.508  13.971
69160SOL    HW2 9320   7.348   1.367  14.020
69161SOL     OW 9321   6.746   1.652  10.121
69161SOL    HW1 9322   6.751   1.703  10.203
69161SOL    HW2 9323   6.658   1.668  10.088
69162SOL     OW 9324   6.218   4.779   8.743
69162SOL    HW1 9325   6.165   4.736   8.811
69162SOL    HW2 9326   6.305   4.788   8.782
69163SOL     OW 9327   2.240   7.575   0.822
69163SOL    HW1 9328   2.323   7.532   0.801
69163SOL    HW2 9329   2.265   7.664   0.848
69164SOL     OW 9330   0.578  11.386  10.829
69164SOL    HW1 9331   0.511  11.410  10.764
69164SOL    HW2 9332   0.660  11.418  10.792
69165SOL     OW 9333   2.380   5.187  10.887
69165SOL    HW1 9334   2.328   5.106  10.884
69165SOL    HW2 9335   2.467   5.158  10.915
69166SOL     OW 9336   9.525  13.792   4.785
69166SOL    HW1 9337   9.433  13.785   4.757
69166SOL    HW2 9338   9.547  13.704   4.816
69167SOL     OW 9339  12.037   9.587  12.438
69167SOL    HW1 9340  12.032   9.634  12.354
69167SOL    HW2 9341  11.973   9.517  12.429
69168SOL     OW 9342   1.755   5.334  10.817
69168SOL    HW1 9343   1.813   5.277  10.867
69168SOL    HW2 9344   1.768   5.307  10.726
69169SOL     OW 9345   0.616   2.510  10.689
69169SOL    HW1 9346   0.567   2.466  10.620
69169SOL    HW2 9347   0.708   2.491  10.670
69170SOL     OW 9348  11.344   2.349   2.605
69170SOL    HW1 9349  11.280   2.292   2.648
69170SOL    HW2 9350  11.317   2.349   2.513
69171SOL     OW 9351   8.101   9.346   6.452
69171SOL    HW1 9352   8.135   9.270   6.500
69171SOL    HW2 9353   8.135   9.334   6.363
69172SOL     OW 9354  13.355  11.898  14.252
69172SOL    HW1 9355  13.339  11.804  14.255
69172SOL    HW2 9356  13.437  11.911  14.298
69173SOL     OW 9357   6.475  12.807   5.530
69173SOL    HW1 9358   6.450  12.778   5.618
69173SOL    HW2 9359   6.393  12.805   5.480
69174SOL     OW 9360   5.686   0.461  11.506
69174SOL    HW1 9361   5.752   0.459  11.575
69174SOL    HW2 9362   5.631   0.537  11.527
69175SOL     OW 9363   1.881  13.151  14.487
69175SOL    HW1 9364   1.955  13.182  14.540
69175SOL    HW2 9365   1.863  13.224  14.427
69176SOL     OW 9366   6.213   2.928   9.734
69176SOL    HW1 9367   6.277   2.955   9.800
69176SOL    HW2 9368   6.130   2.961   9.768
69177SOL     OW 9369   3.809   6.531  10.838
69177SOL    HW1 9370   3.807   6.559  10.930
69177SOL    HW2 9371   3.871   6.590  10.796
69178SOL     OW 9372   0.707   4.401   0.328
69178SOL    HW1 9373   0.791   4.382   0.369
69178SOL    HW2 9374   0.717   4.488   0.289
69179SOL     OW 9375   2.975  13.695   0.359
69179SOL    HW1 9376   3.023  13.677   0.439
69179SOL    HW2 9377   2.940  13.610   0.332
69180SOL     OW 9378   3.784   6.158   2.091
69180SOL    HW1 9379   3.694   6.127   2.098
69180SOL    HW2 9380   3.777   6.243   2.048
69181SOL     OW 9381   3.188   0.963  14.881
69181SOL    HW1 9382   3.270   0.988  14.839
69181SOL    HW2 9383   3.134   1.042  14.876
69182SOL     OW 9384   3.626  11.520   4.082
69182SOL    HW1 9385   3.651  11.493   3.993
69182SOL    HW2 9386   3.709  11.532   4.127
69183SOL     OW 9387   2.697  12.016   5.953
69183SOL    HW1 9388   2.618  12.047   5.997
69183SOL    HW2 9389   2.717  11.932   5.996
69184SOL     OW 9390   9.757   6.271  13.483
69184SOL    HW1 9391   9.789   6.184  13.508
69184SOL    HW2 9392   9.712   6.304  13.561
69185SOL     OW 9393   5.717   7.418   0.959
69185SOL    HW1 9394   5.812   7.410   0.954
69185SOL    HW2 9395   5.693   7.463   0.878
69186SOL     OW 9396   3.731   4.403   4.116
69186SOL    HW1 9397   3.757   4.438   4.201
69186SOL    HW2 9398   3.682   4.324   4.137
69187SOL     OW 9399   2.566   2.251   3.950
69187SOL    HW1 9400   2.539   2.321   3.890
69187SOL    HW2 9401   2.610   2.187   3.894
69188SOL     OW 9402   2.810   0.963   3.582
69188SOL    HW1 9403   2.830   0.958   3.489
69188SOL    HW2 9404   2.748   0.892   3.598
69189SOL     OW 9405  10.127   4.658  12.915
69189SOL    HW1 9406  10.156   4.631  13.002
69189SOL    HW2 9407  10.143   4.752  12.913
69190SOL     OW 9408  11.671   9.988  11.884
69190SOL    HW1 9409  11.633   9.982  11.971
69190SOL    HW2 9410  11.698   9.898  11.864
69191SOL     OW 9411  12.331   5.980   4.806
69191SOL    HW1 9412  12.360   5.912   4.745
69191SOL    HW2 9413  12.372   5.956   4.889
69192SOL     OW 9414   8.591   4.276   8.435
69192SOL    HW1 9415   8.681   4.305   8.454
69192SOL    HW2 9416   8.558   4.342   8.374
69193SOL     OW 9417   7.181  12.121  10.997
69193SOL    HW1 9418   7.123  12.049  11.019
69193SOL    HW2 9419   7.262  12.102  11.044
69194SOL     OW 9420  12.728   5.431  13.382
69194SOL    HW1 9421  12.676   5.352  13.395
69194SOL    HW2 9422  12.687   5.474  13.306
69195SOL     OW 9423  13.249   3.437   7.382
69195SOL    HW1 9424  13.256   3.372   7.312
69195SOL    HW2 9425  13.337   3.442   7.419
69196SOL     OW 9426   2.032   8.473   6.108
69196SOL    HW1 9427   2.124   8.499   6.112
69196SOL    HW2 9428   2.026   8.397   6.166
69197SOL     OW 9429   0.237  14.696  13.369
69197SOL    HW1 9430   0.270  14.620  13.320
69197SOL    HW2 9431   0.166  14.661  13.423
69198SOL     OW 9432   7.757   6.286   0.391
69198SOL    HW1 9433   7.809   6.336   0.328
69198SOL    HW2 9434   7.697   6.235   0.337
69199SOL     OW 9435   0.010   1.994   8.318
69199SOL    HW1 9436  14.828   1.991   8.247
69199SOL    HW2 9437  14.850   1.948   8.391
69200SOL     OW 9438  10.202  13.206  11.856
69200SOL    HW1 9439  10.258  13.227  11.781
69200SOL    HW2 9440  10.239  13.125  11.891
69201SOL     OW 9441   3.486   7.844  11.149
69201SOL    HW1 9442   3.484   7.766  11.094
69201SOL    HW2 9443   3.478   7.917  11.088
69202SOL     OW 9444   8.890   0.313  12.692
69202SOL    HW1 9445   8.807   0.360  12.683
69202SOL    HW2 9446   8.872   0.245  12.758
69203SOL     OW 9447   4.175  10.458  13.945
69203SOL    HW1 9448   4.098  10.421  13.989
69203SOL    HW2 9449   4.197  10.393  13.877
69204SOL     OW 9450   4.666   1.322   5.372
69204SOL    HW1 9451   4.740   1.377   5.348
69204SOL    HW2 9452   4.685   1.294   5.462
69205SOL     OW 9453   9.881   0.473  10.124
69205SOL    HW1 9454   9.950   0.425  10.171
69205SOL    HW2 9455   9.803   0.419  10.133
69206SOL     OW 9456  12.705  12.349   0.461
69206SOL    HW1 9457  12.648  12.304   0.523
69206SOL    HW2 9458  12.736  12.280   0.403
69207SOL     OW 9459  13.637   8.449  14.039
69207SOL    HW1 9460  13.616   8.419  13.951
69207SOL    HW2 9461  13.719   8.498  14.030
69208SOL     OW 9462   7.805  14.468  10.223
69208SOL    HW1 9463   7.807  14.404  10.152
69208SOL    HW2 9464   7.799  14.553  10.179
69209SOL     OW 9465  10.488   5.372  10.439
69209SOL    HW1 9466  10.477   5.330  10.524
69209SOL    HW2 9467  10.576   5.408  10.441
69210SOL     OW 9468   7.950  11.626  13.150
69210SOL    HW1 9469   8.039  11.608  13.121
69210SOL    HW2 9470   7.895  11.604  13.075
69211SOL     OW 9471   2.177   5.442   3.605
69211SOL    HW1 9472   2.166   5.347   3.604
69211SOL    HW2 9473   2.229   5.461   3.683
69212SOL     OW 9474   5.485  13.814  13.637
69212SOL    HW1 9475   5.563  13.787  13.588
69212SOL    HW2 9476   5.448  13.886  13.586
69213SOL     OW 9477   1.167  12.668   8.232
69213SOL    HW1 9478   1.185  12.574   8.238
69213SOL    HW2 9479   1.252  12.709   8.244
69214SOL     OW 9480   7.494  10.850   4.715
69214SOL    HW1 9481   7.487  10.945   4.727
69214SOL    HW2 9482   7.584  10.837   4.685
69215SOL     OW 9483   9.612  11.082   6.247
69215SOL    HW1 9484   9.613  11.043   6.160
69215SOL    HW2 9485   9.695  11.131   6.252
69216SOL     OW 9486   4.143   1.599  11.676
69216SOL    HW1 9487   4.205   1.661  11.639
69216SOL    HW2 9488   4.057   1.634  11.653
69217SOL     OW 9489   6.919   2.624  14.520
69217SOL    HW1 9490   6.920   2.633  14.615
69217SOL    HW2 9491   7.004   2.659  14.492
69218SOL     OW 9492  10.735   8.045   1.286
69218SOL    HW1 9493  10.715   8.033   1.379
69218SOL    HW2 9494  10.792   7.971   1.264
69219SOL     OW 9495  11.625  10.926   6.136
69219SOL    HW1 9496  11.696  10.961   6.082
69219SOL    HW2 9497  11.649  10.948   6.226
69220SOL     OW 9498   5.695   4.331   0.962
69220SOL    HW1 9499   5.671   4.238   0.962
69220SOL    HW2 9500   5.689   4.358   0.870
69221SOL     OW 9501   6.624  11.729  11.275
69221SOL    HW1 9502   6.566  11.783  11.330
69221SOL    HW2 9503   6.565  11.681  11.218
69222SOL     OW 9504   5.811   6.954  12.187
69222SOL    HW1 9505   5.901   6.961  12.221
69222SOL    HW2 9506   5.803   7.027  12.126
69223SOL     OW 9507   2.406   7.751   9.729
69223SOL    HW1 9508   2.486   7.751   9.676
69223SOL    HW2 9509   2.377   7.842   9.727
69224SOL     OW 9510   7.479   5.948  10.983
69224SOL    HW1 9511   7.454   6.038  11.003
69224SOL    HW2 9512   7.403   5.912  10.936
69225SOL     OW 9513   4.502   9.248   5.492
69225SOL    HW1 9514   4.554   9.314   5.445
69225SOL    HW2 9515   4.471   9.189   5.423
69226SOL     OW 9516  12.047   1.564   6.555
69226SOL    HW1 9517  12.139   1.548   6.576
69226SOL    HW2 9518  12.002   1.485   6.583
69227SOL     OW 9519  12.745   4.356   4.143
69227SOL    HW1 9520  12.814   4.422   4.130
69227SOL    HW2 9521  12.789   4.284   4.188
69228SOL     OW 9522   3.511   8.670  12.164
69228SOL    HW1 9523   3.531   8.763  12.180
69228SOL    HW2 9524   3.419   8.670  12.137
69229SOL     OW 9525  11.975  10.046   4.200
69229SOL    HW1 9526  11.981   9.952   4.184
69229SOL    HW2 9527  11.997  10.056   4.292
69230SOL     OW 9528  12.619   7.778   1.347
69230SOL    HW1 9529  12.638   7.772   1.441
69230SOL    HW2 9530  12.702   7.758   1.304
69231SOL     OW 9531   3.344  11.240   3.888
69231SOL    HW1 9532   3.259  11.262   3.849
69231SOL    HW2 9533   3.346  11.290   3.970
69232SOL     OW 9534   7.631   8.757   3.902
69232SOL    HW1 9535   7.720   8.733   3.876
69232SOL    HW2 9536   7.582   8.761   3.820
69233SOL     OW 9537   2.110  13.948   3.724
69233SOL    HW1 9538   2.161  13.986   3.795
69233SOL    HW2 9539   2.118  13.854   3.735
69234SOL     OW 9540  11.083   8.524  12.451
69234SOL    HW1 9541  11.170   8.559  12.433
69234SOL    HW2 9542  11.058   8.566  12.533
69235SOL     OW 9543  14.369   0.961  11.326
69235SOL    HW1 9544  14.340   0.877  11.291
69235SOL    HW2 9545  14.388   1.014  11.249
69236SOL     OW 9546  12.761   1.307  10.961
69236SOL    HW1 9547  12.740   1.396  10.932
69236SOL    HW2 9548  12.757   1.312  11.056
69237SOL     OW 9549  10.842  13.816   4.855
69237SOL    HW1 9550  10.879  13.742   4.808
69237SOL    HW2 9551  10.913  13.881   4.857
69238SOL     OW 9552   6.474   4.407  12.110
69238SOL    HW1 9553   6.434   4.475  12.163
69238SOL    HW2 9554   6.402   4.348  12.087
69239SOL     OW 9555   7.269  13.831   4.185
69239SOL    HW1 9556   7.202  13.767   4.163
69239SOL    HW2 9557   7.342  13.810   4.126
69240SOL     OW 9558   1.150   3.324  10.948
69240SOL    HW1 9559   1.199   3.265  11.005
69240SOL    HW2 9560   1.209   3.397  10.933
69241SOL     OW 9561   6.683  13.184   4.340
69241SOL    HW1 9562   6.611  13.123   4.326
69241SOL    HW2 9563   6.640  13.269   4.350
69242SOL     OW 9564   9.564  11.872   1.760
69242SOL    HW1 9565   9.614  11.888   1.680
69242SOL    HW2 9566   9.562  11.956   1.805
69243SOL     OW 9567   4.842  11.550   7.497
69243SOL    HW1 9568   4.831  11.643   7.475
69243SOL    HW2 9569   4.842  11.548   7.592
69244SOL     OW 9570   0.450   7.522  10.848
69244SOL    HW1 9571   0.448   7.606  10.803
69244SOL    HW2 9572   0.357   7.499  10.858
69245SOL     OW 9573  11.650   0.633  10.240
69245SOL    HW1 9574  11.637   0.664  10.150
69245SOL    HW2 9575  11.705   0.701  10.280
69246SOL     OW 9576  12.966  11.183   4.397
69246SOL    HW1 9577  13.039  11.126   4.374
69246SOL    HW2 9578  12.905  11.127   4.444
69247SOL     OW 9579  14.813   1.556   6.219
69247SOL    HW1 9580  14.840   1.589   6.305
69247SOL    HW2 9581  14.724   1.591   6.207
69248SOL     OW 9582   8.855   6.208   4.215
69248SOL    HW1 9583   8.867   6.291   4.262
69248SOL    HW2 9584   8.893   6.223   4.129
69249SOL     OW 9585   7.081  12.281   6.454
69249SOL    HW1 9586   7.080  12.231   6.373
69249SOL    HW2 9587   7.171  12.275   6.485
69250SOL     OW 9588  11.739   2.133   7.356
69250SOL    HW1 9589  11.699   2.190   7.422
69250SOL    HW2 9590  11.780   2.063   7.405
69251SOL     OW 9591   5.382  13.435   2.950
69251SOL    HW1 9592   5.471  13.404   2.971
69251SOL    HW2 9593   5.393  13.482   2.867
69252SOL     OW 9594   4.108  14.708  14.074
69252SOL    HW1 9595   4.124  14.646  14.146
69252SOL    HW2 9596   4.118  14.794  14.115
69253SOL     OW 9597  12.073  14.706  14.109
69253SOL    HW1 9598  12.104  14.689  14.198
69253SOL    HW2 9599  12.123  14.782  14.080
69254SOL     OW 9600  13.766   0.654   7.622
69254SOL    HW1 9601  13.678   0.662   7.584
69254SOL    HW2 9602  13.784   0.560   7.621
69255SOL     OW 9603   0.550  11.660   9.406
69255SOL    HW1 9604   0.556  11.698   9.493
69255SOL    HW2 9605   0.640  11.661   9.373
69256SOL     OW 9606   4.428   3.521   7.587
69256SOL    HW1 9607   4.356   3.466   7.558
69256SOL    HW2 9608   4.507   3.474   7.561
69257SOL     OW 9609   7.681   5.070  12.245
69257SOL    HW1 9610   7.715   5.158  12.229
69257SOL    HW2 9611   7.587   5.078  12.234
69258SOL     OW 9612   0.782   5.564   5.787
69258SOL    HW1 9613   0.807   5.590   5.876
69258SOL    HW2 9614   0.695   5.525   5.798
69259SOL     OW 9615   6.132   4.432   5.057
69259SOL    HW1 9616   6.155   4.467   5.143
69259SOL    HW2 9617   6.049   4.387   5.071
69260SOL     OW 9618  10.444  11.551  14.290
69260SOL    HW1 9619  10.466  11.634  14.248
69260SOL    HW2 9620  10.354  11.564  14.321
69261SOL     OW 9621   2.492   8.048   7.268
69261SOL    HW1 9622   2.492   8.005   7.183
69261SOL    HW2 9623   2.416   8.108   7.265
69262SOL     OW 9624  13.165   3.540   8.158
69262SOL    HW1 9625  13.120   3.571   8.236
69262SOL    HW2 9626  13.096   3.515   8.098
69263SOL     OW 9627  10.012  13.498  11.300
69263SOL    HW1 9628  10.082  13.531  11.245
69263SOL    HW2 9629   9.932  13.521  11.253
69264SOL     OW 9630   1.087   6.032  12.841
69264SOL    HW1 9631   1.138   6.096  12.892
69264SOL    HW2 9632   1.151   5.967  12.813
69265SOL     OW 9633   4.902  12.177   5.073
69265SOL    HW1 9634   4.972  12.136   5.022
69265SOL    HW2 9635   4.906  12.134   5.158
69266SOL     OW 9636   8.917   0.875   3.571
69266SOL    HW1 9637   8.958   0.812   3.512
69266SOL    HW2 9638   8.990   0.920   3.613
69267SOL     OW 9639   0.647   7.658   8.730
69267SOL    HW1 9640   0.693   7.659   8.646
69267SOL    HW2 9641   0.678   7.736   8.775
69268SOL     OW 9642   6.300   3.689  10.811
69268SOL    HW1 9643   6.298   3.601  10.772
69268SOL    HW2 9644   6.313   3.674  10.904
69269SOL     OW 9645  13.700  10.518   1.106
69269SOL    HW1 9646  13.760  10.515   1.031
69269SOL    HW2 9647  13.754  10.549   1.179
69270SOL     OW 9648   9.164   2.773   5.893
69270SOL    HW1 9649   9.099   2.759   5.825
69270SOL    HW2 9650   9.190   2.865   5.883
69271SOL     OW 9651  10.257   6.603  13.765
69271SOL    HW1 9652  10.351   6.613  13.750
69271SOL    HW2 9653  10.249   6.586  13.859
69272SOL     OW 9654   7.828  13.531   7.047
69272SOL    HW1 9655   7.825  13.437   7.026
69272SOL    HW2 9656   7.768  13.541   7.121
69273SOL     OW 9657   1.974   5.470  14.227
69273SOL    HW1 9658   2.016   5.555  14.217
69273SOL    HW2 9659   1.980   5.451  14.321
69274SOL     OW 9660   6.783  11.782  11.769
69274SOL    HW1 9661   6.811  11.726  11.697
69274SOL    HW2 9662   6.844  11.856  11.767
69275SOL     OW 9663   3.579  14.087  10.371
69275SOL    HW1 9664   3.501  14.137  10.346
69275SOL    HW2 9665   3.544  14.006  10.408
69276SOL     OW 9666   7.836   0.109  14.597
69276SOL    HW1 9667   7.900   0.042  14.621
69276SOL    HW2 9668   7.777   0.064  14.536
69277SOL     OW 9669   1.696  14.841  13.992
69277SOL    HW1 9670   1.639  14.777  13.950
69277SOL    HW2 9671   1.734  14.793  14.066
69278SOL     OW 9672   5.108   6.999   7.671
69278SOL    HW1 9673   5.039   6.973   7.732
69278SOL    HW2 9674   5.162   7.060   7.721
69279SOL     OW 9675   9.776  10.812   5.397
69279SOL    HW1 9676   9.855  10.758   5.396
69279SOL    HW2 9677   9.777  10.854   5.483
69280SOL     OW 9678   3.390   2.968   4.070
69280SOL    HW1 9679   3.336   2.923   4.005
69280SOL    HW2 9680   3.407   2.901   4.136
69281SOL     OW 9681   3.514   2.767   2.160
69281SOL    HW1 9682   3.436   2.816   2.183
69281SOL    HW2 9683   3.561   2.824   2.099
69282SOL     OW 9684  14.702   4.732   5.012
69282SOL    HW1 9685  14.611   4.727   4.982
69282SOL    HW2 9686  14.729   4.822   4.993
69283SOL     OW 9687   0.404  13.900  11.392
69283SOL    HW1 9688   0.345  13.850  11.336
69283SOL    HW2 9689   0.356  13.912  11.473
69284SOL     OW 9690  12.074   4.783  14.522
69284SOL    HW1 9691  12.023   4.826  14.453
69284SOL    HW2 9692  12.021   4.792  14.601
69285SOL     OW 9693  10.115  10.360   7.449
69285SOL    HW1 9694  10.071  10.281   7.417
69285SOL    HW2 9695  10.207  10.335   7.457
69286SOL     OW 9696  13.422  10.585  12.505
69286SOL    HW1 9697  13.455  10.519  12.566
69286SOL    HW2 9698  13.500  10.624  12.467
69287SOL     OW 9699  11.639   5.041   0.490
69287SOL    HW1 9700  11.718   5.058   0.439
69287SOL    HW2 9701  11.625   4.947   0.483
69288SOL     OW 9702  13.622   1.538   8.630
69288SOL    HW1 9703  13.532   1.558   8.655
69288SOL    HW2 9704  13.635   1.586   8.548
69289SOL     OW 9705  14.256  14.136  13.147
69289SOL    HW1 9706  14.185  14.083  13.110
69289SOL    HW2 9707  14.331  14.119  13.090
69290SOL     OW 9708   6.821   3.899   4.344
69290SOL    HW1 9709   6.863   3.819   4.313
69290SOL    HW2 9710   6.834   3.963   4.274
69291SOL     OW 9711   5.206   3.978   4.192
69291SOL    HW1 9712   5.236   3.954   4.104
69291SOL    HW2 9713   5.284   3.972   4.246
69292SOL     OW 9714  11.577  13.408   7.359
69292SOL    HW1 9715  11.666  13.441   7.371
69292SOL    HW2 9716  11.520  13.483   7.378
69293SOL     OW 9717  12.352  14.480   7.982
69293SOL    HW1 9718  12.308  14.408   7.937
69293SOL    HW2 9719  12.437  14.444   8.008
69294SOL     OW 9720  10.797  10.284   2.923
69294SOL    HW1 9721  10.724  10.335   2.957
69294SOL    HW2 9722  10.835  10.339   2.854
69295SOL     OW 9723   6.193  10.973  12.860
69295SOL    HW1 9724   6.155  10.940  12.941
69295SOL    HW2 9725   6.181  10.903  12.796
69296SOL     OW 9726  13.236   6.369  10.633
69296SOL    HW1 9727  13.187   6.326  10.703
69296SOL    HW2 9728  13.207   6.460  10.637
69297SOL     OW 9729   2.118  12.170  12.306
69297SOL    HW1 9730   2.161  12.102  12.358
69297SOL    HW2 9731   2.099  12.128  12.223
69298SOL     OW 9732   1.722   9.110   8.016
69298SOL    HW1 9733   1.689   9.052   8.084
69298SOL    HW2 9734   1.693   9.071   7.934
69299SOL     OW 9735   4.179   0.618   1.557
69299SOL    HW1 9736   4.185   0.675   1.480
69299SOL    HW2 9737   4.086   0.615   1.578
69300SOL     OW 9738  13.780   7.667  11.275
69300SOL    HW1 9739  13.843   7.597  11.257
69300SOL    HW2 9740  13.708   7.651  11.214
69301SOL     OW 9741  10.854   7.214   2.238
69301SOL    HW1 9742  10.880   7.222   2.146
69301SOL    HW2 9743  10.771   7.262   2.244
69302SOL     OW 9744   2.005   7.356  11.196
69302SOL    HW1 9745   1.969   7.422  11.256
69302SOL    HW2 9746   1.929   7.318  11.153
69303SOL     OW 9747   6.781  12.945   8.233
69303SOL    HW1 9748   6.743  12.937   8.320
69303SOL    HW2 9749   6.856  12.886   8.234
69304SOL     OW 9750  13.524  14.536   5.202
69304SOL    HW1 9751  13.486  14.522   5.289
69304SOL    HW2 9752  13.615  14.509   5.211
69305SOL     OW 9753   0.294   9.568   9.945
69305SOL    HW1 9754   0.270   9.488   9.899
69305SOL    HW2 9755   0.336   9.622   9.878
69306SOL     OW 9756   2.602  13.115   5.735
69306SOL    HW1 9757   2.564  13.030   5.714
69306SOL    HW2 9758   2.696  13.100   5.736
69307SOL     OW 9759  13.623   5.422   5.741
69307SOL    HW1 9760  13.568   5.490   5.702
69307SOL    HW2 9761  13.712   5.456   5.734
69308SOL     OW 9762   4.735   6.546   1.685
69308SOL    HW1 9763   4.734   6.633   1.645
69308SOL    HW2 9764   4.642   6.523   1.694
69309SOL     OW 9765  14.807   8.801   3.452
69309SOL    HW1 9766  14.753   8.743   3.505
69309SOL    HW2 9767  14.789   8.888   3.486
69310SOL     OW 9768   8.831   1.901   3.669
69310SOL    HW1 9769   8.895   1.829   3.665
69310SOL    HW2 9770   8.850   1.954   3.592
69311SOL     OW 9771   7.109   0.281   0.938
69311SOL    HW1 9772   7.119   0.353   1.000
69311SOL    HW2 9773   7.143   0.315   0.855
69312SOL     OW 9774  13.493   9.858   8.027
69312SOL    HW1 9775  13.465   9.792   8.090
69312SOL    HW2 9776  13.575   9.824   7.992
69313SOL     OW 9777   6.616   0.626   4.723
69313SOL    HW1 9778   6.594   0.693   4.657
69313SOL    HW2 9779   6.711   0.615   4.715
69314SOL     OW 9780   5.567   9.187   7.874
69314SOL    HW1 9781   5.529   9.272   7.850
69314SOL    HW2 9782   5.524   9.164   7.956
69315SOL     OW 9783   2.667   2.131   0.920
69315SOL    HW1 9784   2.696   2.123   0.829
69315SOL    HW2 9785   2.742   2.102   0.972
69316SOL     OW 9786  10.367   8.057   9.597
69316SOL    HW1 9787  10.374   8.148   9.627
69316SOL    HW2 9788  10.393   8.060   9.505
69317SOL     OW 9789   0.461   7.174   4.490
69317SOL    HW1 9790   0.368   7.176   4.467
69317SOL    HW2 9791   0.490   7.086   4.468
69318SOL     OW 9792  13.888  14.485   8.477
69318SOL    HW1 9793  13.880  14.549   8.547
69318SOL    HW2 9794  13.977  14.451   8.485
69319SOL     OW 9795   8.863   3.981  14.698
69319SOL    HW1 9796   8.878   4.041  14.625
69319SOL    HW2 9797   8.905   3.899  14.671
69320SOL     OW 9798   9.059  10.364   7.852
69320SOL    HW1 9799   9.109  10.345   7.931
69320SOL    HW2 9800   9.011  10.444   7.872
69321SOL     OW 9801   1.822   1.271   0.345
69321SOL    HW1 9802   1.903   1.227   0.371
69321SOL    HW2 9803   1.753   1.206   0.360
69322SOL     OW 9804   1.341   9.890   9.356
69322SOL    HW1 9805   1.364   9.808   9.399
69322SOL    HW2 9806   1.250   9.878   9.328
69323SOL     OW 9807   6.469   3.873  13.166
69323SOL    HW1 9808   6.486   3.787  13.129
69323SOL    HW2 9809   6.556   3.910  13.182
69324SOL     OW 9810   4.852   3.355   4.620
69324SOL    HW1 9811   4.770   3.362   4.670
69324SOL    HW2 9812   4.843   3.420   4.550
69325SOL     OW 9813   9.155   1.734   1.645
69325SOL    HW1 9814   9.156   1.826   1.672
69325SOL    HW2 9815   9.150   1.736   1.550
69326SOL     OW 9816  12.685  14.492   5.029
69326SOL    HW1 9817  12.772  14.454   5.020
69326SOL    HW2 9818  12.669  14.495   5.123
69327SOL     OW 9819   9.893  11.992  11.302
69327SOL    HW1 9820   9.988  12.002  11.289
69327SOL    HW2 9821   9.875  12.040  11.383
69328SOL     OW 9822   0.929   7.053   6.155
69328SOL    HW1 9823   1.016   7.024   6.130
69328SOL    HW2 9824   0.891   6.979   6.202
69329SOL     OW 9825  14.202   9.147   8.608
69329SOL    HW1 9826  14.293   9.171   8.591
69329SOL    HW2 9827  14.151   9.197   8.544
69330SOL     OW 9828   0.513   7.644   1.425
69330SOL    HW1 9829   0.526   7.658   1.519
69330SOL    HW2 9830   0.442   7.705   1.402
69331SOL     OW 9831  12.013  11.743   1.692
69331SOL    HW1 9832  11.953  11.766   1.764
69331SOL    HW2 9833  12.041  11.827   1.657
69332SOL     OW 9834   8.038   6.627  11.542
69332SOL    HW1 9835   7.949   6.594  11.553
69332SOL    HW2 9836   8.093   6.563  11.587
69333SOL     OW 9837   0.835   9.200  11.044
69333SOL    HW1 9838   0.793   9.120  11.077
69333SOL    HW2 9839   0.899   9.169  10.980
69334SOL     OW 9840   1.300  14.554   5.707
69334SOL    HW1 9841   1.336  14.503   5.635
69334SOL    HW2 9842   1.248  14.491   5.758
69335SOL     OW 9843   2.206  10.450  10.000
69335SOL    HW1 9844   2.298  10.460   9.977
69335SOL    HW2 9845   2.182  10.364   9.964
69336SOL     OW 9846   2.655   5.718  12.497
69336SOL    HW1 9847   2.598   5.665  12.441
69336SOL    HW2 9848   2.656   5.672  12.581
69337SOL     OW 9849  14.083   5.653   7.376
69337SOL    HW1 9850  14.003   5.609   7.407
69337SOL    HW2 9851  14.056   5.697   7.295
69338SOL     OW 9852  12.084  11.536   7.261
69338SOL    HW1 9853  12.005  11.498   7.224
69338SOL    HW2 9854  12.156  11.487   7.222
69339SOL     OW 9855   5.633   4.355  11.200
69339SOL    HW1 9856   5.631   4.373  11.294
69339SOL    HW2 9857   5.664   4.436  11.160
69340SOL     OW 9858  12.657   7.440   8.112
69340SOL    HW1 9859  12.562   7.450   8.122
69340SOL    HW2 9860  12.668   7.349   8.088
69341SOL     OW 9861  14.217   9.855   1.712
69341SOL    HW1 9862  14.311   9.863   1.726
69341SOL    HW2 9863  14.208   9.827   1.621
69342SOL     OW 9864  12.495   2.730   6.171
69342SOL    HW1 9865  12.535   2.681   6.099
69342SOL    HW2 9866  12.507   2.822   6.147
69343SOL     OW 9867  13.476   2.400   6.686
69343SOL    HW1 9868  13.468   2.305   6.687
69343SOL    HW2 9869  13.569   2.417   6.670
69344SOL     OW 9870   9.274  12.027   8.677
69344SOL    HW1 9871   9.231  12.104   8.716
69344SOL    HW2 9872   9.221  12.006   8.600
69345SOL     OW 9873  12.950   6.804   5.234
69345SOL    HW1 9874  12.951   6.897   5.259
69345SOL    HW2 9875  12.980   6.758   5.312
69346SOL     OW 9876   5.756   8.392   2.248
69346SOL    HW1 9877   5.720   8.327   2.309
69346SOL    HW2 9878   5.702   8.383   2.169
69347SOL     OW 9879   7.076  12.961   6.828
69347SOL    HW1 9880   7.125  13.042   6.840
69347SOL    HW2 9881   7.052  12.934   6.917
69348SOL     OW 9882   8.533   5.669   2.298
69348SOL    HW1 9883   8.602   5.708   2.244
69348SOL    HW2 9884   8.471   5.741   2.312
69349SOL     OW 9885  14.088   6.549   5.201
69349SOL    HW1 9886  14.063   6.457   5.192
69349SOL    HW2 9887  14.168   6.557   5.148
69350SOL     OW 9888   8.966   5.752  12.101
69350SOL    HW1 9889   8.898   5.812  12.130
69350SOL    HW2 9890   9.046   5.785  12.141
69351SOL     OW 9891   2.307   1.503  11.145
69351SOL    HW1 9892   2.297   1.408  11.144
69351SOL    HW2 9893   2.328   1.526  11.054
69352SOL     OW 9894  13.085  11.149   9.060
69352SOL    HW1 9895  12.990  11.160   9.068
69352SOL    HW2 9896  13.100  11.137   8.966
69353SOL     OW 9897  10.013   2.282   4.636
69353SOL    HW1 9898   9.973   2.358   4.595
69353SOL    HW2 9899   9.960   2.265   4.714
69354SOL     OW 9900   4.442   5.172  14.296
69354SOL    HW1 9901   4.431   5.221  14.377
69354SOL    HW2 9902   4.405   5.085  14.315
69355SOL     OW 9903   2.785  11.349   1.227
69355SOL    HW1 9904   2.833  11.403   1.290
69355SOL    HW2 9905   2.820  11.261   1.241
69356SOL     OW 9906  13.086  11.718  11.152
69356SOL    HW1 9907  13.118  11.670  11.228
69356SOL    HW2 9908  13.007  11.671  11.125
69357SOL     OW 9909   4.120   5.969   8.673
69357SOL    HW1 9910   4.026   5.981   8.670
69357SOL    HW2 9911   4.155   6.056   8.694
69358SOL     OW 9912   8.662   0.858   8.571
69358SOL    HW1 9913   8.693   0.939   8.531
69358SOL    HW2 9914   8.567   0.864   8.567
69359SOL     OW 9915   0.760   1.057   8.538
69359SOL    HW1 9916   0.780   1.095   8.624
69359SOL    HW2 9917   0.842   1.018   8.510
69360SOL     OW 9918   8.055   4.613   7.839
69360SOL    HW1 9919   8.027   4.601   7.749
69360SOL    HW2 9920   8.136   4.664   7.832
69361SOL     OW 9921   4.373   4.530   0.624
69361SOL    HW1 9922   4.398   4.489   0.541
69361SOL    HW2 9923   4.345   4.457   0.680
69362SOL     OW 9924   5.435  12.095   4.981
69362SOL    HW1 9925   5.356  12.138   4.948
69362SOL    HW2 9926   5.412  12.002   4.985
69363SOL     OW 9927  13.566  14.298  12.833
69363SOL    HW1 9928  13.503  14.315  12.763
69363SOL    HW2 9929  13.554  14.206  12.855
69364SOL     OW 9930  11.431   8.505  11.650
69364SOL    HW1 9931  11.461   8.419  11.677
69364SOL    HW2 9932  11.511   8.557  11.642
69365SOL     OW 9933   1.275   0.711   6.848
69365SOL    HW1 9934   1.325   0.792   6.857
69365SOL    HW2 9935   1.327   0.646   6.896
69366SOL     OW 9936   3.060   0.955   1.517
69366SOL    HW1 9937   2.971   0.922   1.511
69366SOL    HW2 9938   3.091   0.926   1.603
69367SOL     OW 9939   7.752   4.075  14.143
69367SOL    HW1 9940   7.757   3.980  14.157
69367SOL    HW2 9941   7.668   4.088  14.098
69368SOL     OW 9942   4.848  13.970   1.838
69368SOL    HW1 9943   4.858  13.981   1.932
69368SOL    HW2 9944   4.795  13.890   1.828
69369SOL     OW 9945   7.227   6.040   0.390
69369SOL    HW1 9946   7.245   5.946   0.388
69369SOL    HW2 9947   7.145   6.047   0.440
69370SOL     OW 9948   4.538  10.028   0.349
69370SOL    HW1 9949   4.466  10.050   0.290
69370SOL    HW2 9950   4.606   9.993   0.292
69371SOL     OW 9951  11.968   2.234   6.808
69371SOL    HW1 9952  11.877   2.210   6.793
69371SOL    HW2 9953  12.012   2.151   6.826
69372SOL     OW 9954  12.155   3.999  11.972
69372SOL    HW1 9955  12.210   4.063  12.018
69372SOL    HW2 9956  12.193   3.994  11.884
69373SOL     OW 9957  13.132   7.005   1.050
69373SOL    HW1 9958  13.100   6.921   1.081
69373SOL    HW2 9959  13.170   6.986   0.964
69374SOL     OW 9960  11.499   3.733   4.395
69374SOL    HW1 9961  11.530   3.788   4.467
69374SOL    HW2 9962  11.578   3.706   4.349
69375SOL     OW 9963  14.648  10.512  13.992
69375SOL    HW1 9964  14.723  10.490  14.047
69375SOL    HW2 9965  14.577  10.456  14.022
69376SOL     OW 9966   4.394  14.790  10.831
69376SOL    HW1 9967   4.379  14.828  10.918
69376SOL    HW2 9968   4.447  14.713  10.848
69377SOL     OW 9969   3.628  10.895  13.595
69377SOL    HW1 9970   3.629  10.823  13.532
69377SOL    HW2 9971   3.680  10.964  13.553
69378SOL     OW 9972   9.508   0.917   0.470
69378SOL    HW1 9973   9.580   0.854   0.467
69378SOL    HW2 9974   9.450   0.883   0.539
69379SOL     OW 9975   2.913   1.607  11.881
69379SOL    HW1 9976   2.980   1.667  11.912
69379SOL    HW2 9977   2.876   1.569  11.961
69380SOL     OW 9978   2.355  12.464   1.035
69380SOL    HW1 9979   2.272  12.503   1.010
69380SOL    HW2 9980   2.332  12.376   1.066
69381SOL     OW 9981  12.133   3.369  14.112
69381SOL    HW1 9982  12.039   3.356  14.119
69381SOL    HW2 9983  12.164   3.292  14.063
69382SOL     OW 9984   1.216   1.623   9.955
69382SOL    HW1 9985   1.306   1.599   9.934
69382SOL    HW2 9986   1.173   1.632   9.870
69383SOL     OW 9987   6.593  10.239   8.257
69383SOL    HW1 9988   6.562  10.315   8.307
69383SOL    HW2 9989   6.591  10.267   8.166
69384SOL     OW 9990   1.577   9.024  12.531
69384SOL    HW1 9991   1.637   8.971  12.479
69384SOL    HW2 9992   1.633   9.090  12.572
69385SOL     OW 9993  10.899   7.887   9.588
69385SOL    HW1 9994  10.837   7.959   9.584
69385SOL    HW2 9995  10.965   7.908   9.521
69386SOL     OW 9996   0.498  11.806   5.436
69386SOL    HW1 9997   0.502  11.901   5.432
69386SOL    HW2 9998   0.406  11.785   5.425
69387SOL     OW 9999   8.860  10.316  11.087
69387SOL    HW110000   8.883  10.409  11.092
69387SOL    HW210001   8.866  10.295  10.994
69388SOL     OW10002   9.952   4.219  13.185
69388SOL    HW110003   9.954   4.267  13.102
69388SOL    HW210004  10.038   4.177  13.190
69389SOL     OW10005  13.997   1.571   2.431
69389SOL    HW110006  13.998   1.537   2.520
69389SOL    HW210007  13.922   1.529   2.390
69390SOL     OW10008  13.496   9.091   1.459
69390SOL    HW110009  13.576   9.038   1.451
69390SOL    HW210010  13.432   9.032   1.499
69391SOL     OW10011   9.782  10.290   4.848
69391SOL    HW110012   9.711  10.353   4.836
69391SOL    HW210013   9.754  10.237   4.923
69392SOL     OW10014  13.418   9.213   6.361
69392SOL    HW110015  13.500   9.181   6.323
69392SOL    HW210016  13.350   9.165   6.314
69393SOL     OW10017  12.600   8.023  14.592
69393SOL    HW110018  12.657   8.001  14.665
69393SOL    HW210019  12.561   8.107  14.616
69394SOL     OW10020  13.539   9.639  11.508
69394SOL    HW110021  13.561   9.611  11.419
69394SOL    HW210022  13.531   9.557  11.557
69395SOL     OW10023  10.867  13.481  14.082
69395SOL    HW110024  10.913  13.472  14.166
69395SOL    HW210025  10.864  13.393  14.046
69396SOL     OW10026  13.521   7.771   2.362
69396SOL    HW110027  13.612   7.743   2.350
69396SOL    HW210028  13.484   7.771   2.274
69397SOL     OW10029   9.747   1.954  14.466
69397SOL    HW110030   9.663   1.988  14.435
69397SOL    HW210031   9.738   1.947  14.561
69398SOL     OW10032   2.946   7.583  14.489
69398SOL    HW110033   2.994   7.538  14.558
69398SOL    HW210034   3.005   7.651  14.458
69399SOL     OW10035  10.423  12.128   7.539
69399SOL    HW110036  10.491  12.183   7.500
69399SOL    HW210037  10.471  12.061   7.587
69400SOL     OW10038   0.059  14.304   9.947
69400SOL    HW110039   0.057  14.229   9.888
69400SOL    HW210040   0.135  14.355   9.917
69401SOL     OW10041   9.754   4.928  10.983
69401SOL    HW110042   9.675   4.884  10.950
69401SOL    HW210043   9.789   4.866  11.047
69402SOL     OW10044   0.687   9.963  10.514
69402SOL    HW110045   0.613   9.909  10.542
69402SOL    HW210046   0.672   9.977  10.420
69403SOL     OW10047  14.183  14.419  13.584
69403SOL    HW110048  14.110  14.387  13.637
69403SOL    HW210049  14.162  14.390  13.495
69404SOL     OW10050  12.208   7.488   3.566
69404SOL    HW110051  12.172   7.489   3.478
69404SOL    HW210052  12.242   7.576   3.579
69405SOL     OW10053   4.345   5.004   2.995
69405SOL    HW110054   4.309   4.970   2.913
69405SOL    HW210055   4.427   5.047   2.970
69406SOL     OW10056  11.702   8.072  14.565
69406SOL    HW110057  11.702   8.165  14.584
69406SOL    HW210058  11.793   8.051  14.544
69407SOL     OW10059  13.042   6.073  12.993
69407SOL    HW110060  13.020   6.000  13.050
69407SOL    HW210061  13.135   6.090  13.009
69408SOL     OW10062   0.589  13.367  12.297
69408SOL    HW110063   0.598  13.363  12.392
69408SOL    HW210064   0.673  13.335  12.264
69409SOL     OW10065  10.498   4.772   3.530
69409SOL    HW110066  10.501   4.731   3.443
69409SOL    HW210067  10.421   4.732   3.572
69410SOL     OW10068   4.176   8.098   7.997
69410SOL    HW110069   4.120   8.149   8.055
69410SOL    HW210070   4.185   8.014   8.041
69411SOL     OW10071  12.078   4.007  10.570
69411SOL    HW110072  12.042   4.035  10.654
69411SOL    HW210073  12.120   3.923  10.589
69412SOL     OW10074   2.208  11.439   4.670
69412SOL    HW110075   2.292  11.441   4.716
69412SOL    HW210076   2.148  11.487   4.728
69413SOL     OW10077  13.509   6.970   2.802
69413SOL    HW110078  13.595   7.013   2.800
69413SOL    HW210079  13.455   7.026   2.857
69414SOL     OW10080   2.619  14.251  12.978
69414SOL    HW110081   2.588  14.308  13.048
69414SOL    HW210082   2.703  14.289  12.951
69415SOL     OW10083   3.185  10.963   9.643
69415SOL    HW110084   3.179  10.976   9.737
69415SOL    HW210085   3.142  11.040   9.605
69416SOL     OW10086  12.872   9.562  13.948
69416SOL    HW110087  12.877   9.608  13.864
69416SOL    HW210088  12.791   9.593  13.989
69417SOL     OW10089   7.681   9.859  11.170
69417SOL    HW110090   7.707   9.792  11.106
69417SOL    HW210091   7.716   9.941  11.134
69418SOL     OW10092   5.976   0.796   7.112
69418SOL    HW110093   5.936   0.877   7.142
69418SOL    HW210094   6.023   0.820   7.032
69419SOL     OW10095   7.666  11.603  12.282
69419SOL    HW110096   7.701  11.686  12.249
69419SOL    HW210097   7.711  11.536  12.231
69420SOL     OW10098  10.169   8.966   8.994
69420SOL    HW110099  10.205   8.903   9.056
69420SOL    HW210100  10.077   8.976   9.019
69421SOL     OW10101   9.302   0.884   1.380
69421SOL    HW110102   9.236   0.932   1.329
69421SOL    HW210103   9.317   0.939   1.457
69422SOL     OW10104  14.446  12.885   7.550
69422SOL    HW110105  14.530  12.901   7.593
69422SOL    HW210106  14.380  12.914   7.613
69423SOL     OW10107   8.365   9.581   6.752
69423SOL    HW110108   8.273   9.558   6.744
69423SOL    HW210109   8.395   9.532   6.829
69424SOL     OW10110   8.160   6.224  14.541
69424SOL    HW110111   8.095   6.213  14.611
69424SOL    HW210112   8.166   6.318  14.529
69425SOL     OW10113   8.446   8.297   5.513
69425SOL    HW110114   8.479   8.208   5.502
69425SOL    HW210115   8.465   8.340   5.430
69426SOL     OW10116   0.869   8.791   0.847
69426SOL    HW110117   0.906   8.746   0.772
69426SOL    HW210118   0.821   8.865   0.809
69427SOL     OW10119   4.010   3.140   8.312
69427SOL    HW110120   4.096   3.131   8.272
69427SOL    HW210121   3.951   3.095   8.250
69428SOL     OW10122  13.148   2.458  11.800
69428SOL    HW110123  13.110   2.457  11.712
69428SOL    HW210124  13.072   2.460  11.859
69429SOL     OW10125   7.011   5.778  12.886
69429SOL    HW110126   7.035   5.780  12.979
69429SOL    HW210127   7.016   5.686  12.862
69430SOL     OW10128  11.767   0.320  11.571
69430SOL    HW110129  11.846   0.267  11.577
69430SOL    HW210130  11.761   0.363  11.657
69431SOL     OW10131  13.812   3.546   7.286
69431SOL    HW110132  13.769   3.606   7.348
69431SOL    HW210133  13.809   3.592   7.202
69432SOL     OW10134   6.155  11.310   7.658
69432SOL    HW110135   6.169  11.403   7.678
69432SOL    HW210136   6.068  11.306   7.620
69433SOL     OW10137  13.615  14.709   0.365
69433SOL    HW110138  13.552  14.693   0.435
69433SOL    HW210139  13.692  14.746   0.409
69434SOL     OW10140  14.841  10.473   2.641
69434SOL    HW110141  14.874  10.386   2.663
69434SOL    HW210142  14.835  10.519   2.724
69435SOL     OW10143   9.959   2.424  10.686
69435SOL    HW110144   9.918   2.508  10.709
69435SOL    HW210145   9.994   2.391  10.768
69436SOL     OW10146  11.987   8.610   5.051
69436SOL    HW110147  12.061   8.671   5.056
69436SOL    HW210148  12.012   8.548   4.982
69437SOL     OW10149   4.883   4.016  11.836
69437SOL    HW110150   4.977   4.025  11.824
69437SOL    HW210151   4.845   4.073  11.769
69438SOL     OW10152   6.447  12.045   4.123
69438SOL    HW110153   6.407  12.072   4.040
69438SOL    HW210154   6.537  12.076   4.117
69439SOL     OW10155  10.142   3.383   9.480
69439SOL    HW110156  10.185   3.388   9.395
69439SOL    HW210157  10.210   3.355   9.540
69440SOL     OW10158  12.405  14.574   6.140
69440SOL    HW110159  12.442  14.500   6.091
69440SOL    HW210160  12.331  14.537   6.187
69441SOL     OW10161   3.088   7.945   3.064
69441SOL    HW110162   3.007   7.988   3.089
69441SOL    HW210163   3.123   7.998   2.993
69442SOL     OW10164  14.321  10.517   8.335
69442SOL    HW110165  14.349  10.429   8.359
69442SOL    HW210166  14.399  10.558   8.298
69443SOL     OW10167  11.420   4.174   4.189
69443SOL    HW110168  11.380   4.249   4.146
69443SOL    HW210169  11.435   4.202   4.279
69444SOL     OW10170  13.002   0.582   8.327
69444SOL    HW110171  12.962   0.567   8.242
69444SOL    HW210172  13.088   0.618   8.306
69445SOL     OW10173   3.631   0.939  12.953
69445SOL    HW110174   3.579   1.013  12.921
69445SOL    HW210175   3.574   0.894  13.015
69446SOL     OW10176   2.558  12.709   4.368
69446SOL    HW110177   2.602  12.783   4.410
69446SOL    HW210178   2.560  12.639   4.433
69447SOL     OW10179  14.882   1.727   9.886
69447SOL    HW110180  14.827   1.685   9.953
69447SOL    HW210181  14.824   1.792   9.845
69448SOL     OW10182   5.831   3.420   4.530
69448SOL    HW110183   5.890   3.345   4.525
69448SOL    HW210184   5.868   3.475   4.599
69449SOL     OW10185   1.975   6.306   8.670
69449SOL    HW110186   1.975   6.271   8.581
69449SOL    HW210187   1.890   6.280   8.706
69450SOL     OW10188  12.302   9.383   5.507
69450SOL    HW110189  12.392   9.351   5.499
69450SOL    HW210190  12.250   9.325   5.452
69451SOL     OW10191   2.918  12.066   5.291
69451SOL    HW110192   2.840  12.081   5.345
69451SOL    HW210193   2.983  12.031   5.351
69452SOL     OW10194   3.549   7.983   7.042
69452SOL    HW110195   3.514   7.940   6.964
69452SOL    HW210196   3.490   7.956   7.112
69453SOL     OW10197  13.670  14.170  13.548
69453SOL    HW110198  13.664  14.266  13.544
69453SOL    HW210199  13.664  14.150  13.641
69454SOL     OW10200  13.979   5.668   3.872
69454SOL    HW110201  13.927   5.707   3.802
69454SOL    HW210202  14.066   5.708   3.863
69455SOL     OW10203  12.385   7.573  11.782
69455SOL    HW110204  12.447   7.591  11.853
69455SOL    HW210205  12.312   7.528  11.824
69456SOL     OW10206   9.464  10.370   2.922
69456SOL    HW110207   9.407  10.294   2.930
69456SOL    HW210208   9.503  10.380   3.008
69457SOL     OW10209   1.969  11.800   6.119
69457SOL    HW110210   1.900  11.759   6.170
69457SOL    HW210211   1.928  11.876   6.078
69458SOL     OW10212   3.303  10.575  11.165
69458SOL    HW110213   3.384  10.579  11.216
69458SOL    HW210214   3.244  10.521  11.217
69459SOL     OW10215   7.904   6.385   4.407
69459SOL    HW110216   7.923   6.305   4.454
69459SOL    HW210217   7.974   6.445   4.430
69460SOL     OW10218  14.735  12.605  12.994
69460SOL    HW110219  14.723  12.698  12.977
69460SOL    HW210220  14.826  12.587  12.968
69461SOL     OW10221   7.259   9.241   6.841
69461SOL    HW110222   7.197   9.287   6.783
69461SOL    HW210223   7.265   9.153   6.804
69462SOL     OW10224   6.525   6.200   6.993
69462SOL    HW110225   6.457   6.147   7.033
69462SOL    HW210226   6.606   6.151   7.007
69463SOL     OW10227   2.240   4.883   8.364
69463SOL    HW110228   2.148   4.895   8.386
69463SOL    HW210229   2.266   4.806   8.415
69464SOL     OW10230  10.251   3.105   9.387
69464SOL    HW110231  10.343   3.128   9.374
69464SOL    HW210232  10.253   3.011   9.403
69465SOL     OW10233  10.025   6.017   5.442
69465SOL    HW110234   9.990   5.964   5.513
69465SOL    HW210235  10.120   6.009   5.451
69466SOL     OW10236   8.371  11.869  11.280
69466SOL    HW110237   8.460  11.857  11.248
69466SOL    HW210238   8.362  11.807  11.352
69467SOL     OW10239  11.018   6.154   5.932
69467SOL    HW110240  11.002   6.229   5.988
69467SOL    HW210241  11.089   6.182   5.873
69468SOL     OW10242   8.456   8.153   2.535
69468SOL    HW110243   8.529   8.103   2.571
69468SOL    HW210244   8.474   8.244   2.561
69469SOL     OW10245   6.591   0.690   9.294
69469SOL    HW110246   6.564   0.670   9.205
69469SOL    HW210247   6.510   0.711   9.341
69470SOL     OW10248   5.851  13.720   8.435
69470SOL    HW110249   5.842  13.735   8.529
69470SOL    HW210250   5.864  13.626   8.427
69471SOL     OW10251  14.798   2.347   8.333
69471SOL    HW110252  14.737   2.274   8.343
69471SOL    HW210253  14.768   2.413   8.396
69472SOL     OW10254  10.585  14.809  14.440
69472SOL    HW110255  10.666  14.829  14.485
69472SOL    HW210256  10.578  14.876  14.372
69473SOL     OW10257   9.063   4.404  13.600
69473SOL    HW110258   9.130   4.438  13.659
69473SOL    HW210259   9.099   4.418  13.513
69474SOL     OW10260   9.749   6.671   5.529
69474SOL    HW110261   9.677   6.646   5.471
69474SOL    HW210262   9.824   6.679   5.470
69475SOL     OW10263   7.049  10.255   6.441
69475SOL    HW110264   6.964  10.221   6.414
69475SOL    HW210265   7.031  10.346   6.466
69476SOL     OW10266   6.256   5.772   9.747
69476SOL    HW110267   6.297   5.691   9.715
69476SOL    HW210268   6.163   5.752   9.748
69477SOL     OW10269  12.629  10.945  11.985
69477SOL    HW110270  12.715  10.904  11.991
69477SOL    HW210271  12.621  10.995  12.067
69478SOL     OW10272   8.335   8.844  12.425
69478SOL    HW110273   8.278   8.920  12.423
69478SOL    HW210274   8.339   8.820  12.518
69479SOL     OW10275   2.935  10.651  11.418
69479SOL    HW110276   3.026  10.680  11.429
69479SOL    HW210277   2.939  10.590  11.344
69480SOL     OW10278  11.652   4.355   2.417
69480SOL    HW110279  11.622   4.264   2.409
69480SOL    HW210280  11.620   4.397   2.337
69481SOL     OW10281   5.659   7.082   2.465
69481SOL    HW110282   5.565   7.071   2.450
69481SOL    HW210283   5.695   7.104   2.380
69482SOL     OW10284   1.090   9.600   3.962
69482SOL    HW110285   1.135   9.516   3.970
69482SOL    HW210286   1.161   9.665   3.963
69483SOL     OW10287  13.933   0.751   6.838
69483SOL    HW110288  13.871   0.752   6.765
69483SOL    HW210289  13.890   0.700   6.905
69484SOL     OW10290   7.261   9.989   3.269
69484SOL    HW110291   7.306   9.908   3.293
69484SOL    HW210292   7.253   9.985   3.174
69485SOL     OW10293  14.756   0.701   5.704
69485SOL    HW110294  14.697   0.674   5.774
69485SOL    HW210295  14.799   0.620   5.676
69486SOL     OW10296   5.463   3.216  13.007
69486SOL    HW110297   5.456   3.131  13.051
69486SOL    HW210298   5.556   3.236  13.007
69487SOL     OW10299   4.415   4.106  11.370
69487SOL    HW110300   4.395   4.030  11.424
69487SOL    HW210301   4.346   4.107  11.303
69488SOL     OW10302  11.550   9.208  11.472
69488SOL    HW110303  11.520   9.122  11.443
69488SOL    HW210304  11.474   9.265  11.460
69489SOL     OW10305   1.902  10.879  11.991
69489SOL    HW110306   1.825  10.920  11.953
69489SOL    HW210307   1.937  10.824  11.921
69490SOL     OW10308   1.902   5.633  12.911
69490SOL    HW110309   1.955   5.711  12.895
69490SOL    HW210310   1.939   5.567  12.853
69491SOL     OW10311  12.137   8.845  10.974
69491SOL    HW110312  12.121   8.755  10.947
69491SOL    HW210313  12.055   8.891  10.956
69492SOL     OW10314  10.004   3.906   0.502
69492SOL    HW110315  10.079   3.850   0.523
69492SOL    HW210316  10.003   3.911   0.407
69493SOL     OW10317   4.485  12.083   5.679
69493SOL    HW110318   4.556  12.104   5.619
69493SOL    HW210319   4.526  12.035   5.750
69494SOL     OW10320   9.949   5.806  10.063
69494SOL    HW110321   9.950   5.844  10.151
69494SOL    HW210322   9.991   5.721  10.072
69495SOL     OW10323   8.838   8.343   6.498
69495SOL    HW110324   8.778   8.298   6.438
69495SOL    HW210325   8.807   8.434   6.499
69496SOL     OW10326   1.079  11.548   9.550
69496SOL    HW110327   1.098  11.495   9.627
69496SOL    HW210328   1.166  11.571   9.516
69497SOL     OW10329   0.840   9.741   8.866
69497SOL    HW110330   0.776   9.716   8.933
69497SOL    HW210331   0.917   9.770   8.915
69498SOL     OW10332  10.356   4.880  12.993
69498SOL    HW110333  10.303   4.917  13.063
69498SOL    HW210334  10.354   4.947  12.924
69499SOL     OW10335   9.070   4.325  14.797
69499SOL    HW110336   9.002   4.258  14.796
69499SOL    HW210337   9.148   4.281  14.832
69500SOL     OW10338   7.531   4.369  13.012
69500SOL    HW110339   7.487   4.415  13.084
69500SOL    HW210340   7.614   4.339  13.051
69501SOL     OW10341  12.107  11.876   9.588
69501SOL    HW110342  12.066  11.802   9.544
69501SOL    HW210343  12.198  11.876   9.557
69502SOL     OW10344  10.741   0.004   1.976
69502SOL    HW110345  10.701   0.017   2.062
69502SOL    HW210346  10.724  14.794   1.956
69503SOL     OW10347  14.526   7.328   3.832
69503SOL    HW110348  14.508   7.313   3.739
69503SOL    HW210349  14.441   7.348   3.870
69504SOL     OW10350   8.588  10.642  11.181
69504SOL    HW110351   8.542  10.699  11.242
69504SOL    HW210352   8.524  10.574  11.159
69505SOL     OW10353   0.303   3.098   0.234
69505SOL    HW110354   0.209   3.115   0.228
69505SOL    HW210355   0.338   3.124   0.149
69506SOL     OW10356   6.061   0.893   4.768
69506SOL    HW110357   5.996   0.942   4.718
69506SOL    HW210358   6.117   0.853   4.702
69507SOL     OW10359   8.135   9.025   6.829
69507SOL    HW110360   8.051   8.984   6.849
69507SOL    HW210361   8.201   8.961   6.857
69508SOL     OW10362  10.637  11.525  11.597
69508SOL    HW110363  10.584  11.539  11.676
69508SOL    HW210364  10.583  11.556  11.525
69509SOL     OW10365   8.089  11.417   9.686
69509SOL    HW110366   8.055  11.489   9.740
69509SOL    HW210367   8.164  11.454   9.640
69510SOL     OW10368   2.104   2.464   1.695
69510SOL    HW110369   2.012   2.465   1.721
69510SOL    HW210370   2.120   2.374   1.667
69511SOL     OW10371   6.463  14.473  12.512
69511SOL    HW110372   6.546  14.509  12.545
69511SOL    HW210373   6.406  14.469  12.589
69512SOL     OW10374   6.329   8.819   2.469
69512SOL    HW110375   6.237   8.820   2.445
69512SOL    HW210376   6.369   8.885   2.412
69513SOL     OW10377   3.038  11.622  10.777
69513SOL    HW110378   2.970  11.689  10.783
69513SOL    HW210379   3.003  11.557  10.716
69514SOL     OW10380  10.449   5.107   0.034
69514SOL    HW110381  10.408   5.186   0.069
69514SOL    HW210382  10.376   5.057  14.879
69515SOL     OW10383   9.896   8.134  12.312
69515SOL    HW110384   9.826   8.078  12.344
69515SOL    HW210385   9.969   8.118  12.371
69516SOL     OW10386   8.788  14.057   6.961
69516SOL    HW110387   8.852  13.987   6.972
69516SOL    HW210388   8.703  14.014   6.966
69517SOL     OW10389  14.438   7.475   9.835
69517SOL    HW110390  14.415   7.386   9.861
69517SOL    HW210391  14.518   7.465   9.783
69518SOL     OW10392  14.163  11.850   5.422
69518SOL    HW110393  14.138  11.812   5.507
69518SOL    HW210394  14.084  11.845   5.369
69519SOL     OW10395   8.565  14.408  11.471
69519SOL    HW110396   8.528  14.328  11.507
69519SOL    HW210397   8.658  14.403  11.492
69520SOL     OW10398   4.451   1.089  14.475
69520SOL    HW110399   4.460   1.133  14.559
69520SOL    HW210400   4.406   1.152  14.419
69521SOL     OW10401   0.597   9.055  10.160
69521SOL    HW110402   0.573   8.963  10.173
69521SOL    HW210403   0.606   9.089  10.249
69522SOL     OW10404   1.117   5.363  10.588
69522SOL    HW110405   1.162   5.380  10.505
69522SOL    HW210406   1.050   5.431  10.593
69523SOL     OW10407  11.249  13.290  11.477
69523SOL    HW110408  11.309  13.275  11.403
69523SOL    HW210409  11.189  13.216  11.474
69524SOL     OW10410  14.160  13.631   5.610
69524SOL    HW110411  14.155  13.684   5.530
69524SOL    HW210412  14.137  13.691   5.680
69525SOL     OW10413   3.886  14.115  14.775
69525SOL    HW110414   3.913  14.204  14.797
69525SOL    HW210415   3.967  14.067  14.759
69526SOL     OW10416   6.949   4.375   4.825
69526SOL    HW110417   6.946   4.397   4.918
69526SOL    HW210418   6.867   4.329   4.809
69527SOL     OW10419   0.451   0.239  10.710
69527SOL    HW110420   0.530   0.199  10.748
69527SOL    HW210421   0.419   0.175  10.647
69528SOL     OW10422   0.447   3.581   2.723
69528SOL    HW110423   0.384   3.546   2.786
69528SOL    HW210424   0.409   3.664   2.694
69529SOL     OW10425   4.038   8.355   7.098
69529SOL    HW110426   3.998   8.375   7.013
69529SOL    HW210427   3.975   8.387   7.162
69530SOL     OW10428  12.746   8.589  11.045
69530SOL    HW110429  12.675   8.581  11.109
69530SOL    HW210430  12.826   8.572  11.096
69531SOL     OW10431  13.391   8.136   1.847
69531SOL    HW110432  13.439   8.090   1.916
69531SOL    HW210433  13.305   8.154   1.886
69532SOL     OW10434   3.259  12.142   7.093
69532SOL    HW110435   3.299  12.055   7.102
69532SOL    HW210436   3.317  12.188   7.033
69533SOL     OW10437   1.492   8.071  14.435
69533SOL    HW110438   1.558   8.139  14.449
69533SOL    HW210439   1.529   8.015  14.367
69534SOL     OW10440  12.311  13.768   0.581
69534SOL    HW110441  12.250  13.762   0.507
69534SOL    HW210442  12.369  13.692   0.571
69535SOL     OW10443  13.149  12.014   8.681
69535SOL    HW110444  13.232  11.982   8.717
69535SOL    HW210445  13.167  12.105   8.657
69536SOL     OW10446  13.261   6.571   5.514
69536SOL    HW110447  13.299   6.632   5.451
69536SOL    HW210448  13.186   6.532   5.469
69537SOL     OW10449  10.872  13.659   8.724
69537SOL    HW110450  10.847  13.580   8.676
69537SOL    HW210451  10.817  13.728   8.686
69538SOL     OW10452  12.513   9.635   0.830
69538SOL    HW110453  12.439   9.675   0.876
69538SOL    HW210454  12.590   9.661   0.880
69539SOL     OW10455   5.929   9.386   7.308
69539SOL    HW110456   5.882   9.302   7.315
69539SOL    HW210457   5.877   9.437   7.246
69540SOL     OW10458   1.508   7.241   2.017
69540SOL    HW110459   1.537   7.332   2.024
69540SOL    HW210460   1.435   7.235   2.079
69541SOL     OW10461  14.163   6.701   7.008
69541SOL    HW110462  14.103   6.771   7.032
69541SOL    HW210463  14.174   6.650   7.089
69542SOL     OW10464   6.668  13.791   7.795
69542SOL    HW110465   6.655  13.871   7.745
69542SOL    HW210466   6.585  13.743   7.785
69543SOL     OW10467   0.131   5.860  14.637
69543SOL    HW110468   0.136   5.924  14.566
69543SOL    HW210469   0.199   5.796  14.616
69544SOL     OW10470  11.760  12.610  13.258
69544SOL    HW110471  11.782  12.690  13.211
69544SOL    HW210472  11.806  12.541  13.210
69545SOL     OW10473   4.745   3.865  12.954
69545SOL    HW110474   4.669   3.924  12.958
69545SOL    HW210475   4.813   3.909  13.005
69546SOL     OW10476  10.023   2.248   2.203
69546SOL    HW110477   9.935   2.213   2.215
69546SOL    HW210478  10.038   2.246   2.108
69547SOL     OW10479  10.548   7.436  13.541
69547SOL    HW110480  10.490   7.361  13.541
69547SOL    HW210481  10.514   7.493  13.610
69548SOL     OW10482  11.931   7.488   2.486
69548SOL    HW110483  11.854   7.481   2.543
69548SOL    HW210484  11.932   7.405   2.439
69549SOL     OW10485  10.040  10.098   2.226
69549SOL    HW110486  10.057  10.004   2.218
69549SOL    HW210487  10.110  10.139   2.174
69550SOL     OW10488  14.178   4.867   7.773
69550SOL    HW110489  14.208   4.900   7.857
69550SOL    HW210490  14.236   4.906   7.708
69551SOL     OW10491  11.151   5.658   8.008
69551SOL    HW110492  11.094   5.705   7.947
69551SOL    HW210493  11.238   5.696   7.994
69552SOL     OW10494   2.091   5.532   7.763
69552SOL    HW110495   2.126   5.611   7.720
69552SOL    HW210496   2.149   5.519   7.839
69553SOL     OW10497  12.386   7.792  13.408
69553SOL    HW110498  12.336   7.782  13.327
69553SOL    HW210499  12.388   7.705  13.447
69554SOL     OW10500  11.868   0.273  13.496
69554SOL    HW110501  11.900   0.352  13.451
69554SOL    HW210502  11.807   0.234  13.433
69555SOL     OW10503   5.023  10.827   6.534
69555SOL    HW110504   5.024  10.911   6.489
69555SOL    HW210505   5.105  10.785   6.508
69556SOL     OW10506   6.841  11.904   3.646
69556SOL    HW110507   6.784  11.933   3.717
69556SOL    HW210508   6.785  11.851   3.589
69557SOL     OW10509   6.019   0.305  12.046
69557SOL    HW110510   6.071   0.355  12.109
69557SOL    HW210511   6.078   0.238  12.014
69558SOL     OW10512  13.322   1.975   1.468
69558SOL    HW110513  13.332   2.070   1.479
69558SOL    HW210514  13.389   1.952   1.403
69559SOL     OW10515   7.784   7.324   8.603
69559SOL    HW110516   7.864   7.280   8.574
69559SOL    HW210517   7.718   7.297   8.539
69560SOL     OW10518  12.127   7.070  12.988
69560SOL    HW110519  12.219   7.060  12.963
69560SOL    HW210520  12.094   6.980  12.992
69561SOL     OW10521  14.492   5.542   9.464
69561SOL    HW110522  14.540   5.461   9.446
69561SOL    HW210523  14.414   5.513   9.511
69562SOL     OW10524   8.815  12.295  13.559
69562SOL    HW110525   8.863  12.248  13.627
69562SOL    HW210526   8.825  12.240  13.481
69563SOL     OW10527  11.695   0.682   2.135
69563SOL    HW110528  11.636   0.640   2.198
69563SOL    HW210529  11.728   0.610   2.082
69564SOL     OW10530  12.205   8.871   7.443
69564SOL    HW110531  12.196   8.957   7.400
69564SOL    HW210532  12.115   8.837   7.446
69565SOL     OW10533  13.710  14.192   6.287
69565SOL    HW110534  13.725  14.286   6.290
69565SOL    HW210535  13.729  14.162   6.376
69566SOL     OW10536   5.084   9.087   9.811
69566SOL    HW110537   5.021   9.014   9.809
69566SOL    HW210538   5.094   9.112   9.719
69567SOL     OW10539   0.902   2.307  11.205
69567SOL    HW110540   0.889   2.222  11.164
69567SOL    HW210541   0.837   2.311  11.276
69568SOL     OW10542   6.792   5.802   2.487
69568SOL    HW110543   6.861   5.868   2.488
69568SOL    HW210544   6.773   5.786   2.579
69569SOL     OW10545   7.778  14.449  12.992
69569SOL    HW110546   7.836  14.507  12.944
69569SOL    HW210547   7.694  14.456  12.947
69570SOL     OW10548   3.324  12.196  13.078
69570SOL    HW110549   3.400  12.237  13.038
69570SOL    HW210550   3.352  12.106  13.094
69571SOL     OW10551   1.520  10.178   4.323
69571SOL    HW110552   1.564  10.257   4.355
69571SOL    HW210553   1.585  10.134   4.270
69572SOL     OW10554   1.686  10.833   0.259
69572SOL    HW110555   1.736  10.806   0.335
69572SOL    HW210556   1.630  10.904   0.291
69573SOL     OW10557   5.774   5.727  11.129
69573SOL    HW110558   5.797   5.726  11.221
69573SOL    HW210559   5.834   5.791  11.090
69574SOL     OW10560  14.110   1.082  13.036
69574SOL    HW110561  14.029   1.073  12.985
69574SOL    HW210562  14.080   1.103  13.124
69575SOL     OW10563  11.633  12.145   4.707
69575SOL    HW110564  11.648  12.163   4.800
69575SOL    HW210565  11.664  12.225   4.663
69576SOL     OW10566  11.268  12.127   9.780
69576SOL    HW110567  11.319  12.184   9.722
69576SOL    HW210568  11.312  12.133   9.865
69577SOL     OW10569  10.853   0.689   1.784
69577SOL    HW110570  10.830   0.749   1.713
69577SOL    HW210571  10.948   0.678   1.776
69578SOL     OW10572   2.300  12.733  12.560
69578SOL    HW110573   2.261  12.698  12.480
69578SOL    HW210574   2.294  12.828  12.550
69579SOL     OW10575  12.198   0.606   2.756
69579SOL    HW110576  12.174   0.699   2.753
69579SOL    HW210577  12.197   0.584   2.849
69580SOL     OW10578   2.364   7.861  11.334
69580SOL    HW110579   2.404   7.947  11.343
69580SOL    HW210580   2.436   7.804  11.305
69581SOL     OW10581  12.782  12.966   6.917
69581SOL    HW110582  12.751  12.931   7.000
69581SOL    HW210583  12.871  12.997   6.935
69582SOL     OW10584   5.537   1.542  10.985
69582SOL    HW110585   5.484   1.520  11.061
69582SOL    HW210586   5.489   1.505  10.911
69583SOL     OW10587   2.812   2.783   0.614
69583SOL    HW110588   2.811   2.702   0.563
69583SOL    HW210589   2.763   2.846   0.561
69584SOL     OW10590  13.613   7.146   0.026
69584SOL    HW110591  13.594   7.202  14.833
69584SOL    HW210592  13.538   7.087   0.031
69585SOL     OW10593  11.753  13.262  11.911
69585SOL    HW110594  11.785  13.172  11.912
69585SOL    HW210595  11.703  13.269  11.830
69586SOL     OW10596   9.936  10.351   4.623
69586SOL    HW110597   9.881  10.322   4.696
69586SOL    HW210598   9.884  10.419   4.579
69587SOL     OW10599  10.602   5.248   6.518
69587SOL    HW110600  10.563   5.327   6.481
69587SOL    HW210601  10.694   5.252   6.492
69588SOL     OW10602   8.902   5.556  11.060
69588SOL    HW110603   8.927   5.464  11.049
69588SOL    HW210604   8.915   5.573  11.153
69589SOL     OW10605   8.716   4.367   2.850
69589SOL    HW110606   8.695   4.345   2.941
69589SOL    HW210607   8.770   4.446   2.856
69590SOL     OW10608  13.755   4.510   7.195
69590SOL    HW110609  13.799   4.442   7.144
69590SOL    HW210610  13.662   4.498   7.175
69591SOL     OW10611  11.306   4.640   4.077
69591SOL    HW110612  11.307   4.646   3.982
69591SOL    HW210613  11.399   4.638   4.102
69592SOL     OW10614   7.884   7.221   1.709
69592SOL    HW110615   7.910   7.259   1.625
69592SOL    HW210616   7.939   7.266   1.773
69593SOL     OW10617  12.992   7.212   0.858
69593SOL    HW110618  12.982   7.174   0.770
69593SOL    HW210619  13.004   7.136   0.915
69594SOL     OW10620   8.583  10.599   3.894
69594SOL    HW110621   8.626  10.586   3.979
69594SOL    HW210622   8.496  10.562   3.905
69595SOL     OW10623   6.143  14.543   6.813
69595SOL    HW110624   6.096  14.462   6.796
69595SOL    HW210625   6.223  14.536   6.761
69596SOL     OW10626   1.303  14.414   1.483
69596SOL    HW110627   1.232  14.441   1.424
69596SOL    HW210628   1.382  14.451   1.444
69597SOL     OW10629   7.005  12.787   8.207
69597SOL    HW110630   6.969  12.713   8.255
69597SOL    HW210631   7.096  12.794   8.237
69598SOL     OW10632  10.447   4.764   0.233
69598SOL    HW110633  10.362   4.719   0.224
69598SOL    HW210634  10.470   4.753   0.326
69599SOL     OW10635   7.160   8.073   3.270
69599SOL    HW110636   7.168   8.038   3.181
69599SOL    HW210637   7.069   8.104   3.275
69600SOL     OW10638   1.331   2.912   1.942
69600SOL    HW110639   1.355   2.904   1.850
69600SOL    HW210640   1.239   2.885   1.946
69601SOL     OW10641   0.772   9.799  14.106
69601SOL    HW110642   0.739   9.713  14.133
69601SOL    HW210643   0.862   9.800  14.139
69602SOL     OW10644   8.007   3.047  12.952
69602SOL    HW110645   8.010   3.094  12.868
69602SOL    HW210646   7.999   2.955  12.928
69603SOL     OW10647   6.588   7.052   3.710
69603SOL    HW110648   6.592   6.958   3.692
69603SOL    HW210649   6.504   7.065   3.754
69604SOL     OW10650   5.773   5.697   1.439
69604SOL    HW110651   5.781   5.631   1.508
69604SOL    HW210652   5.811   5.655   1.362
69605SOL     OW10653  13.731   1.640   3.215
69605SOL    HW110654  13.808   1.583   3.225
69605SOL    HW210655  13.684   1.631   3.298
69606SOL     OW10656   2.956   9.755  10.819
69606SOL    HW110657   3.024   9.808  10.777
69606SOL    HW210658   2.878   9.810  10.816
69607SOL     OW10659   6.318  10.700  11.954
69607SOL    HW110660   6.284  10.638  11.889
69607SOL    HW210661   6.413  10.688  11.951
69608SOL     OW10662   8.577  10.854   6.536
69608SOL    HW110663   8.485  10.877   6.546
69608SOL    HW210664   8.585  10.767   6.577
69609SOL     OW10665   9.397   6.290  12.504
69609SOL    HW110666   9.366   6.203  12.530
69609SOL    HW210667   9.326   6.325  12.451
69610SOL     OW10668  13.169  12.745  10.104
69610SOL    HW110669  13.156  12.840  10.110
69610SOL    HW210670  13.218  12.733  10.023
69611SOL     OW10671   9.850   7.830   6.586
69611SOL    HW110672   9.941   7.837   6.615
69611SOL    HW210673   9.833   7.912   6.541
69612SOL     OW10674  11.540  11.149  14.336
69612SOL    HW110675  11.490  11.182  14.261
69612SOL    HW210676  11.500  11.064  14.356
69613SOL     OW10677   6.317  12.141  12.506
69613SOL    HW110678   6.401  12.168  12.543
69613SOL    HW210679   6.269  12.106  12.581
69614SOL     OW10680   6.901  13.966   8.131
69614SOL    HW110681   6.943  14.046   8.162
69614SOL    HW210682   6.899  13.908   8.207
69615SOL     OW10683  13.558   0.897   4.380
69615SOL    HW110684  13.621   0.896   4.453
69615SOL    HW210685  13.500   0.823   4.397
69616SOL     OW10686   1.834   3.480   1.945
69616SOL    HW110687   1.850   3.527   2.026
69616SOL    HW210688   1.807   3.547   1.882
69617SOL     OW10689   8.509  12.331   2.157
69617SOL    HW110690   8.540  12.272   2.225
69617SOL    HW210691   8.542  12.417   2.183
69618SOL     OW10692   2.617   4.502  13.531
69618SOL    HW110693   2.708   4.527  13.550
69618SOL    HW210694   2.600   4.538  13.444
69619SOL     OW10695  10.555   9.795   2.896
69619SOL    HW110696  10.650   9.787   2.905
69619SOL    HW210697  10.534   9.879   2.936
69620SOL     OW10698  12.029   5.994   8.127
69620SOL    HW110699  12.009   5.907   8.092
69620SOL    HW210700  12.104   5.979   8.185
69621SOL     OW10701  13.382  11.888   8.710
69621SOL    HW110702  13.454  11.843   8.753
69621SOL    HW210703  13.389  11.861   8.618
69622SOL     OW10704   7.007   4.087  10.838
69622SOL    HW110705   6.928   4.058  10.792
69622SOL    HW210706   6.975   4.118  10.923
69623SOL     OW10707   6.311  10.859   5.469
69623SOL    HW110708   6.253  10.891   5.538
69623SOL    HW210709   6.396  10.846   5.513
69624SOL     OW10710  13.557  11.245   5.389
69624SOL    HW110711  13.522  11.300   5.459
69624SOL    HW210712  13.484  11.233   5.329
69625SOL     OW10713   7.090   0.308  11.021
69625SOL    HW110714   7.174   0.265  11.033
69625SOL    HW210715   7.036   0.277  11.094
69626SOL     OW10716  10.875  14.723   8.855
69626SOL    HW110717  10.812  14.795   8.850
69626SOL    HW210718  10.865  14.689   8.943
69627SOL     OW10719   8.557   8.374  12.072
69627SOL    HW110720   8.479   8.365  12.017
69627SOL    HW210721   8.527   8.354  12.160
69628SOL     OW10722   4.382  11.213  11.187
69628SOL    HW110723   4.454  11.248  11.239
69628SOL    HW210724   4.424  11.153  11.125
69629SOL     OW10725   0.719   3.997  10.265
69629SOL    HW110726   0.635   4.031  10.294
69629SOL    HW210727   0.759   3.960  10.344
69630SOL     OW10728   3.760  10.400  12.028
69630SOL    HW110729   3.694  10.331  12.028
69630SOL    HW210730   3.769  10.425  11.936
69631SOL     OW10731   3.902  13.215  13.399
69631SOL    HW110732   3.924  13.211  13.492
69631SOL    HW210733   3.979  13.178  13.355
69632SOL     OW10734   9.037  10.887  11.907
69632SOL    HW110735   8.987  10.873  11.826
69632SOL    HW210736   9.097  10.812  11.911
69633SOL     OW10737  14.280   7.694  12.521
69633SOL    HW110738  14.251   7.612  12.562
69633SOL    HW210739  14.295   7.671  12.429
69634SOL     OW10740   2.334   1.657   5.126
69634SOL    HW110741   2.298   1.608   5.201
69634SOL    HW210742   2.402   1.600   5.091
69635SOL     OW10743   7.137   1.624  12.674
69635SOL    HW110744   7.052   1.610  12.633
69635SOL    HW210745   7.160   1.539  12.712
69636SOL     OW10746   7.473   6.374   0.111
69636SOL    HW110747   7.382   6.366   0.082
69636SOL    HW210748   7.475   6.325   0.194
69637SOL     OW10749   7.837   0.819   4.280
69637SOL    HW110750   7.875   0.903   4.253
69637SOL    HW210751   7.832   0.825   4.376
69638SOL     OW10752   7.384   6.579  13.117
69638SOL    HW110753   7.421   6.522  13.184
69638SOL    HW210754   7.451   6.645  13.100
69639SOL     OW10755   3.343   6.957   2.927
69639SOL    HW110756   3.273   6.954   2.992
69639SOL    HW210757   3.349   6.867   2.895
69640SOL     OW10758   6.125   9.785  11.525
69640SOL    HW110759   6.041   9.793  11.571
69640SOL    HW210760   6.143   9.873  11.492
69641SOL     OW10761   1.986   7.590   3.911
69641SOL    HW110762   1.940   7.508   3.925
69641SOL    HW210763   2.008   7.591   3.818
69642SOL     OW10764  12.053   4.163   6.058
69642SOL    HW110765  12.140   4.148   6.021
69642SOL    HW210766  12.027   4.248   6.025
69643SOL     OW10767  11.699  11.859   1.278
69643SOL    HW110768  11.625  11.806   1.305
69643SOL    HW210769  11.768  11.796   1.258
69644SOL     OW10770   7.447   7.381   5.193
69644SOL    HW110771   7.498   7.437   5.133
69644SOL    HW210772   7.512   7.323   5.232
69645SOL     OW10773   0.355   1.722  11.695
69645SOL    HW110774   0.287   1.697  11.633
69645SOL    HW210775   0.334   1.813  11.719
69646SOL     OW10776   4.143   1.760   6.467
69646SOL    HW110777   4.201   1.828   6.502
69646SOL    HW210778   4.135   1.782   6.374
69647SOL     OW10779   0.022   2.617   2.047
69647SOL    HW110780  14.875   2.644   1.960
69647SOL    HW210781   0.105   2.570   2.031
69648SOL     OW10782   0.037   2.712  12.089
69648SOL    HW110783   0.107   2.778  12.086
69648SOL    HW210784   0.009   2.710  12.180
69649SOL     OW10785   7.892  12.606  10.031
69649SOL    HW110786   7.968  12.577  10.082
69649SOL    HW210787   7.820  12.550  10.062
69650SOL     OW10788   5.286   8.068   0.701
69650SOL    HW110789   5.256   8.005   0.635
69650SOL    HW210790   5.256   8.153   0.669
69651SOL     OW10791  13.866  13.885  10.217
69651SOL    HW110792  13.893  13.833  10.292
69651SOL    HW210793  13.947  13.901  10.168
69652SOL     OW10794  14.155   7.547  11.218
69652SOL    HW110795  14.065   7.530  11.245
69652SOL    HW210796  14.205   7.474  11.255
69653SOL     OW10797   7.422   9.442   4.822
69653SOL    HW110798   7.376   9.379   4.767
69653SOL    HW210799   7.363   9.457   4.895
69654SOL     OW10800   3.209   1.928   2.776
69654SOL    HW110801   3.222   1.859   2.841
69654SOL    HW210802   3.189   2.006   2.828
69655SOL     OW10803   6.648  14.540  11.451
69655SOL    HW110804   6.654  14.564  11.358
69655SOL    HW210805   6.588  14.466  11.452
69656SOL     OW10806   2.679   5.754   2.288
69656SOL    HW110807   2.720   5.749   2.374
69656SOL    HW210808   2.752   5.766   2.227
69657SOL     OW10809  14.754   1.417   9.055
69657SOL    HW110810  14.834   1.456   9.091
69657SOL    HW210811  14.752   1.448   8.964
69658SOL     OW10812  12.426   5.011  13.755
69658SOL    HW110813  12.454   4.932  13.708
69658SOL    HW210814  12.505   5.064  13.761
69659SOL     OW10815   6.787  14.469  14.056
69659SOL    HW110816   6.811  14.383  14.023
69659SOL    HW210817   6.831  14.530  13.997
69660SOL     OW10818   9.660   2.467  12.579
69660SOL    HW110819   9.580   2.423  12.550
69660SOL    HW210820   9.634   2.514  12.658
69661SOL     OW10821   1.063   0.783   7.012
69661SOL    HW110822   1.092   0.846   7.078
69661SOL    HW210823   1.130   0.786   6.944
69662SOL     OW10824   4.246  11.287   0.632
69662SOL    HW110825   4.207  11.360   0.680
69662SOL    HW210826   4.278  11.227   0.700
69663SOL     OW10827  10.464  13.513   9.331
69663SOL    HW110828  10.486  13.420   9.330
69663SOL    HW210829  10.483  13.543   9.242
69664SOL     OW10830  13.694  10.354  14.723
69664SOL    HW110831  13.706  10.334  14.631
69664SOL    HW210832  13.611  10.402  14.727
69665SOL     OW10833  10.949  10.022   3.430
69665SOL    HW110834  11.041   9.994   3.435
69665SOL    HW210835  10.947  10.103   3.481
69666SOL     OW10836   8.168   0.074   6.539
69666SOL    HW110837   8.259   0.087   6.511
69666SOL    HW210838   8.125   0.035   6.462
69667SOL     OW10839   3.532   0.492   0.198
69667SOL    HW110840   3.613   0.450   0.226
69667SOL    HW210841   3.464   0.427   0.215
69668SOL     OW10842  14.676   4.505  11.520
69668SOL    HW110843  14.761   4.505  11.565
69668SOL    HW210844  14.698   4.493  11.427
69669SOL     OW10845  11.765   6.420   2.734
69669SOL    HW110846  11.723   6.345   2.777
69669SOL    HW210847  11.828   6.451   2.799
69670SOL     OW10848   2.268  14.615  11.737
69670SOL    HW110849   2.173  14.614  11.748
69670SOL    HW210850   2.299  14.550  11.801
69671SOL     OW10851  13.397   5.658  13.167
69671SOL    HW110852  13.457   5.595  13.128
69671SOL    HW210853  13.329   5.671  13.100
69672SOL     OW10854   7.575  11.470   7.251
69672SOL    HW110855   7.651  11.511   7.293
69672SOL    HW210856   7.518  11.543   7.227
69673SOL     OW10857   8.785   7.717   4.500
69673SOL    HW110858   8.694   7.735   4.521
69673SOL    HW210859   8.784   7.688   4.409
69674SOL     OW10860   5.928  12.056   2.314
69674SOL    HW110861   6.018  12.023   2.319
69674SOL    HW210862   5.879  11.985   2.272
69675SOL     OW10863   8.939   6.978   9.727
69675SOL    HW110864   8.948   7.018   9.813
69675SOL    HW210865   8.923   7.051   9.667
69676SOL     OW10866   2.445   6.906   1.588
69676SOL    HW110867   2.424   6.892   1.495
69676SOL    HW210868   2.517   6.969   1.587
69677SOL     OW10869   5.229  11.843  13.385
69677SOL    HW110870   5.255  11.785  13.313
69677SOL    HW210871   5.306  11.898  13.400
69678SOL     OW10872  12.593   5.728   6.638
69678SOL    HW110873  12.602   5.653   6.696
69678SOL    HW210874  12.554   5.797   6.693
69679SOL     OW10875   8.925   2.715  12.488
69679SOL    HW110876   8.938   2.763  12.406
69679SOL    HW210877   8.995   2.650  12.490
69680SOL     OW10878   9.079   0.274  10.663
69680SOL    HW110879   9.034   0.329  10.727
69680SOL    HW210880   9.052   0.185  10.684
69681SOL     OW10881   1.386  13.440   8.812
69681SOL    HW110882   1.376  13.535   8.805
69681SOL    HW210883   1.361  13.407   8.727
69682SOL     OW10884   6.148  10.848   1.884
69682SOL    HW110885   6.177  10.757   1.886
69682SOL    HW210886   6.113  10.861   1.796
69683SOL     OW10887   5.284   7.661  12.611
69683SOL    HW110888   5.265   7.687  12.521
69683SOL    HW210889   5.199   7.665  12.656
69684SOL     OW10890  11.840  13.083   4.483
69684SOL    HW110891  11.786  13.150   4.524
69684SOL    HW210892  11.869  13.027   4.555
69685SOL     OW10893   1.793   3.984   1.814
69685SOL    HW110894   1.868   3.982   1.873
69685SOL    HW210895   1.744   4.062   1.840
69686SOL     OW10896  12.687  12.819  13.830
69686SOL    HW110897  12.679  12.830  13.735
69686SOL    HW210898  12.598  12.802  13.860
69687SOL     OW10899  12.037   4.029   4.096
69687SOL    HW110900  12.133   4.023   4.087
69687SOL    HW210901  12.018   4.122   4.081
69688SOL     OW10902   3.202  12.665  12.247
69688SOL    HW110903   3.131  12.641  12.307
69688SOL    HW210904   3.253  12.585  12.236
69689SOL     OW10905   8.490   2.005   1.628
69689SOL    HW110906   8.402   2.018   1.664
69689SOL    HW210907   8.549   2.031   1.698
69690SOL     OW10908  10.940   3.812  11.211
69690SOL    HW110909  10.960   3.905  11.202
69690SOL    HW210910  10.960   3.775  11.125
69691SOL     OW10911   8.522  10.566   1.652
69691SOL    HW110912   8.544  10.642   1.597
69691SOL    HW210913   8.600  10.550   1.704
69692SOL     OW10914   0.856  14.153  14.614
69692SOL    HW110915   0.792  14.208  14.658
69692SOL    HW210916   0.940  14.177  14.654
69693SOL     OW10917   2.579  13.749  11.892
69693SOL    HW110918   2.607  13.662  11.867
69693SOL    HW210919   2.595  13.803  11.814
69694SOL     OW10920  10.934   3.818   7.732
69694SOL    HW110921  10.983   3.782   7.805
69694SOL    HW210922  10.854   3.853   7.772
69695SOL     OW10923   0.663   0.115  12.305
69695SOL    HW110924   0.694   0.074  12.385
69695SOL    HW210925   0.721   0.081  12.237
69696SOL     OW10926   4.667   6.858  13.871
69696SOL    HW110927   4.660   6.843  13.777
69696SOL    HW210928   4.722   6.935  13.880
69697SOL     OW10929   5.068   1.807   9.838
69697SOL    HW110930   4.983   1.850   9.831
69697SOL    HW210931   5.076   1.784   9.931
69698SOL     OW10932   3.489  13.227   5.386
69698SOL    HW110933   3.445  13.143   5.396
69698SOL    HW210934   3.436  13.274   5.321
69699SOL     OW10935   6.386  11.162   8.910
69699SOL    HW110936   6.432  11.185   8.991
69699SOL    HW210937   6.438  11.202   8.841
69700SOL     OW10938   9.458   1.816   3.531
69700SOL    HW110939   9.498   1.891   3.488
69700SOL    HW210940   9.449   1.750   3.462
69701SOL     OW10941   6.728   6.254  13.367
69701SOL    HW110942   6.685   6.294  13.443
69701SOL    HW210943   6.684   6.292  13.291
69702SOL     OW10944  14.317   1.897   1.352
69702SOL    HW110945  14.356   1.842   1.284
69702SOL    HW210946  14.393   1.932   1.400
69703SOL     OW10947   8.169   3.509  10.610
69703SOL    HW110948   8.206   3.425  10.584
69703SOL    HW210949   8.091   3.519  10.555
69704SOL     OW10950  13.423  10.421  13.869
69704SOL    HW110951  13.402  10.491  13.931
69704SOL    HW210952  13.518  10.415  13.871
69705SOL     OW10953   1.707  10.760   2.296
69705SOL    HW110954   1.726  10.792   2.208
69705SOL    HW210955   1.647  10.687   2.283
69706SOL     OW10956   4.421   1.345   2.626
69706SOL    HW110957   4.440   1.405   2.554
69706SOL    HW210958   4.404   1.402   2.701
69707SOL     OW10959   5.131   9.217   1.633
69707SOL    HW110960   5.093   9.295   1.594
69707SOL    HW210961   5.058   9.174   1.677
69708SOL     OW10962   5.111   0.957   3.428
69708SOL    HW110963   5.027   0.912   3.434
69708SOL    HW210964   5.096   1.027   3.365
69709SOL     OW10965   7.437   3.643   3.282
69709SOL    HW110966   7.383   3.718   3.258
69709SOL    HW210967   7.467   3.607   3.199
69710SOL     OW10968   1.619  14.456   2.618
69710SOL    HW110969   1.701  14.441   2.666
69710SOL    HW210970   1.564  14.503   2.680
69711SOL     OW10971   9.132   2.607   1.455
69711SOL    HW110972   9.046   2.619   1.495
69711SOL    HW210973   9.128   2.520   1.414
69712SOL     OW10974   8.625   2.634   3.581
69712SOL    HW110975   8.529   2.637   3.582
69712SOL    HW210976   8.651   2.714   3.536
69713SOL     OW10977   4.281   7.333  10.618
69713SOL    HW110978   4.268   7.356  10.710
69713SOL    HW210979   4.222   7.259  10.604
69714SOL     OW10980  10.330   8.919   1.061
69714SOL    HW110981  10.393   8.902   1.131
69714SOL    HW210982  10.245   8.923   1.106
69715SOL     OW10983   4.870  14.265  13.268
69715SOL    HW110984   4.914  14.292  13.187
69715SOL    HW210985   4.779  14.292  13.256
69716SOL     OW10986  13.670  10.089  14.589
69716SOL    HW110987  13.658  10.171  14.541
69716SOL    HW210988  13.604  10.092  14.658
69717SOL     OW10989   6.512  10.930  13.054
69717SOL    HW110990   6.547  10.911  13.141
69717SOL    HW210991   6.459  10.853  13.032
69718SOL     OW10992   1.539   7.488   0.859
69718SOL    HW110993   1.634   7.483   0.850
69718SOL    HW210994   1.524   7.514   0.950
69719SOL     OW10995  11.924  10.334   8.909
69719SOL    HW110996  11.911  10.304   8.999
69719SOL    HW210997  11.987  10.273   8.871
69720SOL     OW10998   8.187   4.069  12.150
69720SOL    HW110999   8.189   4.159  12.118
69720SOL    HW211000   8.228   4.073  12.236
69721SOL     OW11001   9.524  11.538  12.387
69721SOL    HW111002   9.514  11.531  12.292
69721SOL    HW211003   9.617  11.522  12.402
69722SOL     OW11004   2.822  11.216  13.806
69722SOL    HW111005   2.863  11.214  13.893
69722SOL    HW211006   2.807  11.309  13.790
69723SOL     OW11007   1.063   8.161   3.124
69723SOL    HW111008   0.976   8.122   3.116
69723SOL    HW211009   1.095   8.131   3.208
69724SOL     OW11010   5.403  11.208  12.983
69724SOL    HW111011   5.323  11.260  12.989
69724SOL    HW211012   5.374  11.124  12.948
69725SOL     OW11013   7.529   0.907   8.746
69725SOL    HW111014   7.536   0.932   8.653
69725SOL    HW211015   7.618   0.916   8.780
69726SOL     OW11016  11.558   2.375  14.631
69726SOL    HW111017  11.523   2.429  14.702
69726SOL    HW211018  11.495   2.304  14.622
69727SOL     OW11019   5.805   4.415   7.027
69727SOL    HW111020   5.799   4.395   6.934
69727SOL    HW211021   5.743   4.488   7.039
69728SOL     OW11022  13.027   2.258   5.676
69728SOL    HW111023  12.999   2.198   5.746
69728SOL    HW211024  12.955   2.256   5.613
69729SOL     OW11025  13.068  12.622  11.974
69729SOL    HW111026  13.129  12.587  12.039
69729SOL    HW211027  13.038  12.545  11.925
69730SOL     OW11028   2.787   4.293   8.214
69730SOL    HW111029   2.856   4.279   8.149
69730SOL    HW211030   2.706   4.271   8.168
69731SOL     OW11031   4.356   3.250   8.243
69731SOL    HW111032   4.318   3.195   8.174
69731SOL    HW211033   4.448   3.259   8.218
69732SOL     OW11034  11.375   8.937  13.297
69732SOL    HW111035  11.421   8.972  13.220
69732SOL    HW211036  11.439   8.880  13.339
69733SOL     OW11037  11.197   5.120   6.329
69733SOL    HW111038  11.273   5.121   6.271
69733SOL    HW211039  11.161   5.209   6.324
69734SOL     OW11040   9.448  13.993   9.173
69734SOL    HW111041   9.479  13.903   9.183
69734SOL    HW211042   9.353  13.986   9.178
69735SOL     OW11043  10.248  10.326  13.448
69735SOL    HW111044  10.312  10.369  13.392
69735SOL    HW211045  10.164  10.367  13.426
69736SOL     OW11046   8.235   9.711   9.647
69736SOL    HW111047   8.210   9.632   9.599
69736SOL    HW211048   8.158   9.767   9.645
69737SOL     OW11049   8.185   6.564  12.683
69737SOL    HW111050   8.274   6.542  12.655
69737SOL    HW211051   8.137   6.481  12.681
69738SOL     OW11052  10.945  14.477   2.025
69738SOL    HW111053  10.984  14.436   1.948
69738SOL    HW211054  10.984  14.430   2.099
69739SOL     OW11055   1.386   8.323   0.323
69739SOL    HW111056   1.353   8.399   0.371
69739SOL    HW211057   1.471   8.351   0.288
69740SOL     OW11058  11.775   4.700   0.601
69740SOL    HW111059  11.817   4.786   0.595
69740SOL    HW211060  11.846   4.638   0.583
69741SOL     OW11061   0.807  12.626   5.349
69741SOL    HW111062   0.862  12.681   5.293
69741SOL    HW211063   0.868  12.586   5.410
69742SOL     OW11064   3.775   7.968   8.024
69742SOL    HW111065   3.797   7.881   8.057
69742SOL    HW211066   3.830   8.027   8.075
69743SOL     OW11067   1.073  10.413   3.597
69743SOL    HW111068   1.047  10.420   3.689
69743SOL    HW211069   1.002  10.454   3.549
69744SOL     OW11070   6.399   7.865  14.527
69744SOL    HW111071   6.479   7.877  14.476
69744SOL    HW211072   6.359   7.786  14.491
69745SOL     OW11073   8.053  10.792   8.956
69745SOL    HW111074   8.037  10.887   8.953
69745SOL    HW211075   8.144  10.785   8.985
69746SOL     OW11076   9.693  12.963   5.345
69746SOL    HW111077   9.673  12.966   5.251
69746SOL    HW211078   9.613  12.994   5.388
69747SOL     OW11079   9.566   8.349  11.046
69747SOL    HW111080   9.549   8.262  11.082
69747SOL    HW211081   9.661   8.361  11.058
69748SOL     OW11082  14.421   2.051  10.005
69748SOL    HW111083  14.473   2.013   9.934
69748SOL    HW211084  14.486   2.077  10.071
69749SOL     OW11085   6.239   8.121   4.246
69749SOL    HW111086   6.315   8.103   4.191
69749SOL    HW211087   6.205   8.034   4.269
69750SOL     OW11088   0.834   5.860  13.439
69750SOL    HW111089   0.810   5.791  13.377
69750SOL    HW211090   0.910   5.825  13.485
69751SOL     OW11091  10.743  10.072   7.670
69751SOL    HW111092  10.825  10.025   7.680
69751SOL    HW211093  10.680  10.023   7.723
69752SOL     OW11094   5.522   9.048  10.889
69752SOL    HW111095   5.470   8.970  10.907
69752SOL    HW211096   5.519   9.099  10.970
69753SOL     OW11097  14.820   0.719   0.441
69753SOL    HW111098  14.801   0.627   0.422
69753SOL    HW211099  14.848   0.719   0.533
69754SOL     OW11100   0.363  13.886  14.295
69754SOL    HW111101   0.337  13.939  14.371
69754SOL    HW211102   0.417  13.816  14.331
69755SOL     OW11103   3.412  12.673   7.073
69755SOL    HW111104   3.489  12.632   7.034
69755SOL    HW211105   3.404  12.757   7.027
69756SOL     OW11106   7.654  10.051  12.418
69756SOL    HW111107   7.677  10.123  12.476
69756SOL    HW211108   7.559  10.059  12.406
69757SOL     OW11109   0.280  11.067   8.601
69757SOL    HW111110   0.218  11.105   8.539
69757SOL    HW211111   0.322  11.142   8.642
69758SOL     OW11112   7.655   7.579  11.022
69758SOL    HW111113   7.688   7.591  11.111
69758SOL    HW211114   7.680   7.489  11.000
69759SOL     OW11115  13.173   3.188   9.450
69759SOL    HW111116  13.186   3.204   9.357
69759SOL    HW211117  13.083   3.216   9.467
69760SOL     OW11118   2.630  11.243   2.238
69760SOL    HW111119   2.699  11.178   2.221
69760SOL    HW211120   2.658  11.287   2.318
69761SOL     OW11121   8.835  10.824   9.544
69761SOL    HW111122   8.785  10.773   9.481
69761SOL    HW211123   8.926  10.803   9.525
69762SOL     OW11124  13.891   4.096   7.765
69762SOL    HW111125  13.947   4.123   7.838
69762SOL    HW211126  13.828   4.168   7.756
69763SOL     OW11127  11.769   3.768   6.819
69763SOL    HW111128  11.792   3.796   6.908
69763SOL    HW211129  11.833   3.701   6.797
69764SOL     OW11130   8.438   9.283   7.850
69764SOL    HW111131   8.358   9.232   7.842
69764SOL    HW211132   8.430   9.329   7.933
69765SOL     OW11133   9.653   8.055   0.422
69765SOL    HW111134   9.577   8.005   0.450
69765SOL    HW211135   9.724   7.990   0.420
69766SOL     OW11136   7.682   0.764  13.915
69766SOL    HW111137   7.698   0.673  13.889
69766SOL    HW211138   7.618   0.796  13.851
69767SOL     OW11139   9.968   1.638   2.896
69767SOL    HW111140   9.919   1.684   2.827
69767SOL    HW211141   9.974   1.548   2.865
69768SOL     OW11142   5.057  13.175  14.425
69768SOL    HW111143   5.152  13.179  14.425
69768SOL    HW211144   5.032  13.198  14.514
69769SOL     OW11145   3.061   0.182   8.873
69769SOL    HW111146   3.139   0.164   8.820
69769SOL    HW211147   3.021   0.096   8.888
69770SOL     OW11148   1.201   0.812   8.513
69770SOL    HW111149   1.161   0.733   8.476
69770SOL    HW211150   1.161   0.820   8.600
69771SOL     OW11151  13.776   6.719   2.224
69771SOL    HW111152  13.792   6.662   2.299
69771SOL    HW211153  13.863   6.736   2.188
69772SOL     OW11154   2.659   1.730   8.491
69772SOL    HW111155   2.709   1.712   8.571
69772SOL    HW211156   2.719   1.710   8.420
69773SOL     OW11157   0.530   8.981   2.171
69773SOL    HW111158   0.542   9.069   2.133
69773SOL    HW211159   0.475   8.936   2.107
69774SOL     OW11160   2.884   4.148   0.311
69774SOL    HW111161   2.956   4.088   0.292
69774SOL    HW211162   2.899   4.223   0.254
69775SOL     OW11163   7.147  11.225  11.144
69775SOL    HW111164   7.103  11.164  11.202
69775SOL    HW211165   7.138  11.188  11.056
69776SOL     OW11166   2.237  10.672   1.741
69776SOL    HW111167   2.226  10.723   1.822
69776SOL    HW211168   2.154  10.625   1.731
69777SOL     OW11169  11.230  13.120   0.599
69777SOL    HW111170  11.197  13.149   0.684
69777SOL    HW211171  11.169  13.157   0.536
69778SOL     OW11172   1.848   4.130   1.182
69778SOL    HW111173   1.887   4.159   1.265
69778SOL    HW211174   1.798   4.206   1.151
69779SOL     OW11175   9.399  11.205   4.845
69779SOL    HW111176   9.358  11.290   4.832
69779SOL    HW211177   9.493  11.223   4.846
69780SOL     OW11178   1.635   4.980  13.325
69780SOL    HW111179   1.554   4.930  13.321
69780SOL    HW211180   1.625   5.037  13.402
69781SOL     OW11181   4.096   3.303   3.296
69781SOL    HW111182   4.075   3.216   3.261
69781SOL    HW211183   4.119   3.354   3.218
69782SOL     OW11184   6.524   7.138  10.861
69782SOL    HW111185   6.471   7.202  10.812
69782SOL    HW211186   6.491   7.053  10.834
69783SOL     OW11187  13.658   1.343  10.867
69783SOL    HW111188  13.704   1.418  10.830
69783SOL    HW211189  13.700   1.329  10.952
69784SOL     OW11190  13.914   5.132   7.991
69784SOL    HW111191  13.893   5.182   7.912
69784SOL    HW211192  13.902   5.193   8.063
69785SOL     OW11193   7.455   2.809   6.974
69785SOL    HW111194   7.523   2.746   6.952
69785SOL    HW211195   7.498   2.871   7.034
69786SOL     OW11196  13.600  13.699   6.651
69786SOL    HW111197  13.648  13.676   6.731
69786SOL    HW211198  13.547  13.622   6.632
69787SOL     OW11199   6.962  13.754   4.396
69787SOL    HW111200   6.934  13.678   4.448
69787SOL    HW211201   7.055  13.764   4.418
69788SOL     OW11202   2.301  10.294  10.540
69788SOL    HW111203   2.351  10.224  10.498
69788SOL    HW211204   2.269  10.347  10.468
69789SOL     OW11205  14.640  10.430   8.438
69789SOL    HW111206  14.625  10.508   8.385
69789SOL    HW211207  14.595  10.360   8.391
69790SOL     OW11208   3.458  14.785   5.395
69790SOL    HW111209   3.374  14.775   5.438
69790SOL    HW211210   3.438  14.827   5.312
69791SOL     OW11211   2.070   5.579  13.258
69791SOL    HW111212   2.122   5.582  13.178
69791SOL    HW211213   2.132   5.550  13.325
69792SOL     OW11214   8.101  13.036  12.109
69792SOL    HW111215   8.104  12.950  12.151
69792SOL    HW211216   8.177  13.082  12.143
69793SOL     OW11217   6.536   6.019   5.157
69793SOL    HW111218   6.603   5.969   5.204
69793SOL    HW211219   6.529   5.977   5.072
69794SOL     OW11220   9.467   0.644  13.454
69794SOL    HW111221   9.498   0.564  13.413
69794SOL    HW211222   9.377   0.625  13.480
69795SOL     OW11223   0.941   4.553  12.972
69795SOL    HW111224   0.958   4.460  12.962
69795SOL    HW211225   0.904   4.561  13.061
69796SOL     OW11226   1.031   8.832   6.639
69796SOL    HW111227   1.050   8.768   6.570
69796SOL    HW211228   0.950   8.800   6.679
69797SOL     OW11229   2.739  14.815  14.568
69797SOL    HW111230   2.650  14.815  14.534
69797SOL    HW211231   2.763  14.723  14.574
69798SOL     OW11232  14.468   8.291  14.840
69798SOL    HW111233  14.539   8.271   0.019
69798SOL    HW211234  14.503   8.268  14.754
69799SOL     OW11235   2.643   2.275   7.968
69799SOL    HW111236   2.699   2.200   7.988
69799SOL    HW211237   2.631   2.319   8.053
69800SOL     OW11238   6.308   8.031   5.100
69800SOL    HW111239   6.369   7.985   5.158
69800SOL    HW211240   6.358   8.047   5.020
69801SOL     OW11241   5.689  12.853  11.426
69801SOL    HW111242   5.765  12.808  11.462
69801SOL    HW211243   5.642  12.887  11.503
69802SOL     OW11244  11.887   2.231  12.011
69802SOL    HW111245  11.851   2.272  11.933
69802SOL    HW211246  11.842   2.273  12.084
69803SOL     OW11247   0.120  12.535  12.935
69803SOL    HW111248   0.145  12.514  12.845
69803SOL    HW211249   0.201  12.527  12.985
69804SOL     OW11250   0.352   1.059  12.839
69804SOL    HW111251   0.432   1.050  12.787
69804SOL    HW211252   0.382   1.055  12.930
69805SOL     OW11253   6.455   6.775   4.967
69805SOL    HW111254   6.393   6.779   5.040
69805SOL    HW211255   6.510   6.700   4.987
69806SOL     OW11256  13.160  12.754   2.578
69806SOL    HW111257  13.073  12.737   2.613
69806SOL    HW211258  13.207  12.671   2.589
69807SOL     OW11259   7.392  10.955   1.907
69807SOL    HW111260   7.345  11.039   1.898
69807SOL    HW211261   7.430  10.939   1.821
69808SOL     OW11262  12.369   5.493   3.230
69808SOL    HW111263  12.408   5.504   3.317
69808SOL    HW211264  12.332   5.405   3.231
69809SOL     OW11265  11.910   2.325  14.092
69809SOL    HW111266  11.833   2.382  14.089
69809SOL    HW211267  11.939   2.329  14.183
69810SOL     OW11268   9.334   4.602  14.007
69810SOL    HW111269   9.385   4.522  14.005
69810SOL    HW211270   9.350   4.643  13.922
69811SOL     OW11271   7.785  10.195   7.401
69811SOL    HW111272   7.788  10.105   7.432
69811SOL    HW211273   7.853  10.240   7.451
69812SOL     OW11274  13.089   7.185   0.354
69812SOL    HW111275  13.064   7.261   0.406
69812SOL    HW211276  13.010   7.161   0.306
69813SOL     OW11277  11.270  11.901   5.580
69813SOL    HW111278  11.182  11.931   5.604
69813SOL    HW211279  11.256  11.845   5.504
69814SOL     OW11280   7.664   8.247  14.800
69814SOL    HW111281   7.616   8.327  14.824
69814SOL    HW211282   7.615   8.211  14.726
69815SOL     OW11283  13.462   0.818  11.300
69815SOL    HW111284  13.377   0.855  11.323
69815SOL    HW211285  13.497   0.878  11.234
69816SOL     OW11286   6.840   0.596   4.074
69816SOL    HW111287   6.766   0.537   4.062
69816SOL    HW211288   6.826   0.666   4.010
69817SOL     OW11289   0.577   1.352   2.898
69817SOL    HW111290   0.499   1.387   2.855
69817SOL    HW211291   0.651   1.391   2.850
69818SOL     OW11292   4.329   8.811   3.922
69818SOL    HW111293   4.354   8.744   3.985
69818SOL    HW211294   4.383   8.887   3.945
69819SOL     OW11295  11.207   5.895  12.260
69819SOL    HW111296  11.277   5.830  12.252
69819SOL    HW211297  11.239   5.955  12.328
69820SOL     OW11298   8.398   4.859  10.341
69820SOL    HW111299   8.451   4.800  10.395
69820SOL    HW211300   8.323   4.806  10.314
69821SOL     OW11301   2.820   6.447   7.117
69821SOL    HW111302   2.754   6.454   7.186
69821SOL    HW211303   2.885   6.386   7.153
69822SOL     OW11304   3.001   6.096  12.809
69822SOL    HW111305   3.016   6.191  12.812
69822SOL    HW211306   3.016   6.073  12.717
69823SOL     OW11307  12.233   5.049   0.186
69823SOL    HW111308  12.161   5.096   0.144
69823SOL    HW211309  12.249   4.973   0.130
69824SOL     OW11310  11.669  12.870   4.778
69824SOL    HW111311  11.664  12.877   4.873
69824SOL    HW211312  11.762  12.878   4.758
69825SOL     OW11313   0.497   2.024   2.238
69825SOL    HW111314   0.457   1.941   2.264
69825SOL    HW211315   0.517   2.069   2.320
69826SOL     OW11316   0.193  11.110   1.133
69826SOL    HW111317   0.117  11.056   1.152
69826SOL    HW211318   0.234  11.068   1.056
69827SOL     OW11319  10.601  10.644   6.786
69827SOL    HW111320  10.621  10.604   6.871
69827SOL    HW211321  10.686  10.648   6.742
69828SOL     OW11322   4.934   3.866   4.646
69828SOL    HW111323   4.844   3.849   4.621
69828SOL    HW211324   4.962   3.939   4.590
69829SOL     OW11325   1.765   7.312  13.740
69829SOL    HW111326   1.792   7.252  13.670
69829SOL    HW211327   1.789   7.398  13.708
69830SOL     OW11328  12.929   5.216  13.454
69830SOL    HW111329  12.918   5.212  13.549
69830SOL    HW211330  12.966   5.303  13.437
69831SOL     OW11331  12.739  11.155  14.779
69831SOL    HW111332  12.824  11.199  14.787
69831SOL    HW211333  12.710  11.175  14.690
69832SOL     OW11334   0.427   4.449   8.909
69832SOL    HW111335   0.422   4.455   9.004
69832SOL    HW211336   0.364   4.381   8.886
69833SOL     OW11337  11.998   6.090   1.040
69833SOL    HW111338  12.053   6.048   0.974
69833SOL    HW211339  11.923   6.125   0.991
69834SOL     OW11340   6.610  10.085  10.783
69834SOL    HW111341   6.557  10.163  10.765
69834SOL    HW211342   6.638  10.095  10.874
69835SOL     OW11343   0.286  10.570  12.541
69835SOL    HW111344   0.353  10.595  12.477
69835SOL    HW211345   0.329  10.579  12.626
69836SOL     OW11346  13.553   4.845  14.519
69836SOL    HW111347  13.528   4.870  14.608
69836SOL    HW211348  13.469   4.826  14.476
69837SOL     OW11349   0.829  13.697   8.632
69837SOL    HW111350   0.856  13.780   8.592
69837SOL    HW211351   0.862  13.630   8.572
69838SOL     OW11352   7.518   9.962  10.387
69838SOL    HW111353   7.542  10.009  10.467
69838SOL    HW211354   7.450  10.015  10.346
69839SOL     OW11355  11.412   0.848  11.874
69839SOL    HW111356  11.335   0.891  11.912
69839SOL    HW211357  11.376   0.790  11.807
69840SOL     OW11358   5.004   4.518  10.568
69840SOL    HW111359   4.970   4.495  10.481
69840SOL    HW211360   5.063   4.447  10.591
69841SOL     OW11361   6.077  10.290   0.439
69841SOL    HW111362   6.136  10.269   0.511
69841SOL    HW211363   6.007  10.225   0.445
69842SOL     OW11364   5.273   2.150   0.888
69842SOL    HW111365   5.340   2.206   0.849
69842SOL    HW211366   5.215   2.211   0.934
69843SOL     OW11367   9.701   6.000   1.108
69843SOL    HW111368   9.767   6.024   1.043
69843SOL    HW211369   9.739   5.926   1.155
69844SOL     OW11370  13.065  13.361   7.380
69844SOL    HW111371  13.075  13.398   7.468
69844SOL    HW211372  13.020  13.278   7.393
69845SOL     OW11373   0.211  14.857   4.525
69845SOL    HW111374   0.234  14.811   4.443
69845SOL    HW211375   0.280   0.040   4.535
69846SOL     OW11376   6.276  10.931  11.443
69846SOL    HW111377   6.308  11.021  11.435
69846SOL    HW211378   6.301  10.904  11.531
69847SOL     OW11379   2.885   7.618   7.397
69847SOL    HW111380   2.808   7.604   7.342
69847SOL    HW211381   2.885   7.713   7.413
69848SOL     OW11382   1.104   5.263   9.812
69848SOL    HW111383   1.111   5.221   9.898
69848SOL    HW211384   1.017   5.239   9.781
69849SOL     OW11385   3.061  14.428  10.722
69849SOL    HW111386   2.971  14.429  10.752
69849SOL    HW211387   3.055  14.400  10.630
69850SOL     OW11388   6.435  12.414   1.310
69850SOL    HW111389   6.492  12.343   1.279
69850SOL    HW211390   6.367  12.420   1.242
69851SOL     OW11391  10.267   1.149   4.722
69851SOL    HW111392  10.285   1.077   4.662
69851SOL    HW211393  10.295   1.116   4.808
69852SOL     OW11394  10.340   3.394   5.565
69852SOL    HW111395  10.314   3.415   5.475
69852SOL    HW211396  10.259   3.371   5.609
69853SOL     OW11397   5.783   8.737   6.800
69853SOL    HW111398   5.860   8.776   6.842
69853SOL    HW211399   5.781   8.778   6.713
69854SOL     OW11400   2.719   8.361   9.714
69854SOL    HW111401   2.748   8.407   9.793
69854SOL    HW211402   2.702   8.431   9.650
69855SOL     OW11403   0.981  11.368   8.895
69855SOL    HW111404   1.060  11.411   8.865
69855SOL    HW211405   0.956  11.416   8.975
69856SOL     OW11406   3.191   3.941   3.894
69856SOL    HW111407   3.112   3.976   3.936
69856SOL    HW211408   3.263   3.973   3.948
69857SOL     OW11409  12.341   1.624  13.249
69857SOL    HW111410  12.370   1.638  13.339
69857SOL    HW211411  12.415   1.582  13.205
69858SOL     OW11412  13.770   1.499   3.869
69858SOL    HW111413  13.860   1.468   3.884
69858SOL    HW211414  13.717   1.447   3.929
69859SOL     OW11415  10.936   6.220  12.680
69859SOL    HW111416  11.027   6.192  12.688
69859SOL    HW211417  10.940   6.314  12.663
69860SOL     OW11418   7.684   1.144  10.038
69860SOL    HW111419   7.656   1.065  10.084
69860SOL    HW211420   7.778   1.132  10.026
69861SOL     OW11421   4.245  11.358   4.752
69861SOL    HW111422   4.225  11.437   4.802
69861SOL    HW211423   4.293  11.389   4.676
69862SOL     OW11424  12.257  10.673  13.827
69862SOL    HW111425  12.250  10.579  13.847
69862SOL    HW211426  12.222  10.717  13.904
69863SOL     OW11427   2.913   9.949   6.437
69863SOL    HW111428   2.967  10.026   6.456
69863SOL    HW211429   2.825   9.974   6.462
69864SOL     OW11430   6.811   7.255   2.265
69864SOL    HW111431   6.753   7.323   2.231
69864SOL    HW211432   6.771   7.172   2.240
69865SOL     OW11433  14.155   4.872   5.886
69865SOL    HW111434  14.078   4.841   5.933
69865SOL    HW211435  14.125   4.952   5.842
69866SOL     OW11436  10.638  12.028   9.763
69866SOL    HW111437  10.726  12.053   9.738
69866SOL    HW211438  10.626  11.941   9.726
69867SOL     OW11439   6.082   9.231  12.776
69867SOL    HW111440   6.051   9.286  12.849
69867SOL    HW211441   6.006   9.222  12.719
69868SOL     OW11442   2.747   6.564   3.364
69868SOL    HW111443   2.722   6.635   3.422
69868SOL    HW211444   2.667   6.511   3.355
69869SOL     OW11445  13.317  10.332  11.361
69869SOL    HW111446  13.224  10.315  11.377
69869SOL    HW211447  13.339  10.404  11.421
69870SOL     OW11448  14.536   7.272   3.561
69870SOL    HW111449  14.445   7.252   3.539
69870SOL    HW211450  14.563   7.338   3.497
69871SOL     OW11451   5.683   4.582   4.111
69871SOL    HW111452   5.626   4.644   4.156
69871SOL    HW211453   5.718   4.526   4.181
69872SOL     OW11454  10.361   6.346   3.588
69872SOL    HW111455  10.282   6.296   3.608
69872SOL    HW211456  10.357   6.422   3.645
69873SOL     OW11457   1.118   1.753   4.978
69873SOL    HW111458   1.043   1.736   4.920
69873SOL    HW211459   1.194   1.727   4.926
69874SOL     OW11460   4.667   2.833   2.331
69874SOL    HW111461   4.669   2.741   2.303
69874SOL    HW211462   4.697   2.832   2.421
69875SOL     OW11463   5.334  12.312   9.031
69875SOL    HW111464   5.421  12.273   9.033
69875SOL    HW211465   5.332  12.370   9.107
69876SOL     OW11466   3.768   9.703   6.739
69876SOL    HW111467   3.849   9.741   6.704
69876SOL    HW211468   3.742   9.763   6.809
69877SOL     OW11469   1.475   0.332   4.053
69877SOL    HW111470   1.431   0.405   4.010
69877SOL    HW211471   1.561   0.328   4.012
69878SOL     OW11472  13.775  12.175   8.393
69878SOL    HW111473  13.754  12.082   8.389
69878SOL    HW211474  13.697  12.219   8.359
69879SOL     OW11475   1.458  12.399   0.455
69879SOL    HW111476   1.504  12.374   0.375
69879SOL    HW211477   1.415  12.482   0.433
69880SOL     OW11478  13.122   0.230   1.002
69880SOL    HW111479  13.098   0.182   1.081
69880SOL    HW211480  13.041   0.270   0.971
69881SOL     OW11481   8.515   1.132  12.353
69881SOL    HW111482   8.555   1.064  12.297
69881SOL    HW211483   8.420   1.117  12.344
69882SOL     OW11484   2.462  13.053   1.430
69882SOL    HW111485   2.405  13.030   1.357
69882SOL    HW211486   2.420  13.128   1.470
69883SOL     OW11487   0.772  12.948  11.729
69883SOL    HW111488   0.817  13.027  11.699
69883SOL    HW211489   0.737  12.909  11.649
69884SOL     OW11490   5.310  12.908   7.572
69884SOL    HW111491   5.269  12.842   7.516
69884SOL    HW211492   5.291  12.878   7.661
69885SOL     OW11493   1.817  10.303   3.971
69885SOL    HW111494   1.890  10.320   4.030
69885SOL    HW211495   1.857  10.287   3.886
69886SOL     OW11496   0.905   1.096   3.613
69886SOL    HW111497   0.976   1.084   3.675
69886SOL    HW211498   0.871   1.007   3.597
69887SOL     OW11499  13.014  11.836   9.695
69887SOL    HW111500  12.998  11.812   9.786
69887SOL    HW211501  13.082  11.776   9.666
69888SOL     OW11502  14.880  10.915   1.761
69888SOL    HW111503   0.027  10.970   1.834
69888SOL    HW211504   0.005  10.972   1.685
69889SOL     OW11505   1.677   5.641  12.091
69889SOL    HW111506   1.635   5.662  12.174
69889SOL    HW211507   1.613   5.666  12.025
69890SOL     OW11508   0.089   4.632  14.086
69890SOL    HW111509   0.130   4.573  14.023
69890SOL    HW211510   0.151   4.637  14.159
69891SOL     OW11511   6.517   3.982   0.445
69891SOL    HW111512   6.557   3.956   0.528
69891SOL    HW211513   6.539   3.910   0.385
69892SOL     OW11514   9.846   2.684  10.745
69892SOL    HW111515   9.847   2.767  10.698
69892SOL    HW211516   9.753   2.662  10.753
69893SOL     OW11517  12.393   2.052  14.608
69893SOL    HW111518  12.463   1.987  14.603
69893SOL    HW211519  12.318   2.009  14.566
69894SOL     OW11520  13.826   7.372   7.665
69894SOL    HW111521  13.733   7.357   7.644
69894SOL    HW211522  13.825   7.445   7.725
69895SOL     OW11523  13.499  12.709   5.756
69895SOL    HW111524  13.408  12.682   5.747
69895SOL    HW211525  13.525  12.737   5.668
69896SOL     OW11526  12.606  13.885   2.318
69896SOL    HW111527  12.574  13.800   2.346
69896SOL    HW211528  12.561  13.902   2.235
69897SOL     OW11529   9.497   4.679   4.969
69897SOL    HW111530   9.538   4.605   5.014
69897SOL    HW211531   9.553   4.694   4.892
69898SOL     OW11532  11.185   0.357   0.269
69898SOL    HW111533  11.208   0.401   0.351
69898SOL    HW211534  11.177   0.428   0.205
69899SOL     OW11535   5.374   4.138   2.367
69899SOL    HW111536   5.358   4.049   2.336
69899SOL    HW211537   5.348   4.136   2.459
69900SOL     OW11538  11.720  11.967   8.220
69900SOL    HW111539  11.745  12.036   8.158
69900SOL    HW211540  11.744  11.886   8.176
69901SOL     OW11541   9.429  13.548   7.815
69901SOL    HW111542   9.337  13.548   7.842
69901SOL    HW211543   9.474  13.598   7.883
69902SOL     OW11544  13.504  12.201   8.040
69902SOL    HW111545  13.528  12.108   8.039
69902SOL    HW211546  13.510  12.226   8.132
69903SOL     OW11547   3.371   8.151   0.718
69903SOL    HW111548   3.382   8.225   0.778
69903SOL    HW211549   3.396   8.186   0.633
69904SOL     OW11550  14.569   5.343   8.678
69904SOL    HW111551  14.634   5.364   8.611
69904SOL    HW211552  14.593   5.256   8.708
69905SOL     OW11553   9.673  14.106   9.359
69905SOL    HW111554   9.752  14.148   9.393
69905SOL    HW211555   9.673  14.127   9.266
69906SOL     OW11556   8.369   8.830   6.481
69906SOL    HW111557   8.289   8.849   6.531
69906SOL    HW211558   8.440   8.865   6.534
69907SOL     OW11559  13.668   0.077   1.626
69907SOL    HW111560  13.682   0.048   1.536
69907SOL    HW211561  13.625   0.162   1.617
69908SOL     OW11562   3.191   7.603  11.943
69908SOL    HW111563   3.277   7.572  11.914
69908SOL    HW211564   3.175   7.554  12.024
69909SOL     OW11565   5.138  14.244  10.866
69909SOL    HW111566   5.207  14.213  10.925
69909SOL    HW211567   5.148  14.190  10.788
69910SOL     OW11568   9.411   3.531   9.676
69910SOL    HW111569   9.336   3.533   9.616
69910SOL    HW211570   9.402   3.611   9.728
69911SOL     OW11571  13.699   3.862   4.396
69911SOL    HW111572  13.730   3.781   4.436
69911SOL    HW211573  13.625   3.834   4.341
69912SOL     OW11574   4.191  12.028  12.325
69912SOL    HW111575   4.202  11.951  12.269
69912SOL    HW211576   4.101  12.057  12.309
69913SOL     OW11577   8.839  10.477  13.976
69913SOL    HW111578   8.750  10.503  13.950
69913SOL    HW211579   8.891  10.489  13.897
69914SOL     OW11580  11.619   8.339  13.752
69914SOL    HW111581  11.587   8.270  13.810
69914SOL    HW211582  11.585   8.420  13.790
69915SOL     OW11583   5.725  11.154   0.649
69915SOL    HW111584   5.727  11.059   0.660
69915SOL    HW211585   5.798  11.186   0.702
69916SOL     OW11586  11.976   8.223   2.807
69916SOL    HW111587  12.036   8.243   2.879
69916SOL    HW211588  12.022   8.159   2.753
69917SOL     OW11589   1.723  11.697   0.289
69917SOL    HW111590   1.706  11.791   0.284
69917SOL    HW211591   1.637  11.656   0.277
69918SOL     OW11592   6.937   0.192   7.967
69918SOL    HW111593   6.931   0.111   7.915
69918SOL    HW211594   6.988   0.167   8.044
69919SOL     OW11595   8.647   8.085   5.288
69919SOL    HW111596   8.589   8.060   5.216
69919SOL    HW211597   8.700   8.008   5.304
69920SOL     OW11598   5.707   1.928  11.922
69920SOL    HW111599   5.751   1.911  12.005
69920SOL    HW211600   5.614   1.930  11.945
69921SOL     OW11601   9.809  13.546  11.913
69921SOL    HW111602   9.900  13.519  11.910
69921SOL    HW211603   9.766  13.482  11.970
69922SOL     OW11604   7.157   4.668  10.841
69922SOL    HW111605   7.102   4.726  10.789
69922SOL    HW211606   7.095   4.614  10.891
69923SOL     OW11607  13.528   7.454  10.720
69923SOL    HW111608  13.586   7.496  10.784
69923SOL    HW211609  13.537   7.507  10.641
69924SOL     OW11610   8.998   5.907   2.250
69924SOL    HW111611   9.053   5.877   2.178
69924SOL    HW211612   8.908   5.897   2.218
69925SOL     OW11613   9.502   4.865  10.898
69925SOL    HW111614   9.415   4.892  10.926
69925SOL    HW211615   9.487   4.794  10.835
69926SOL     OW11616  13.783  13.864  13.266
69926SOL    HW111617  13.736  13.938  13.304
69926SOL    HW211618  13.718  13.821  13.210
69927SOL     OW11619  13.687   6.273  11.685
69927SOL    HW111620  13.659   6.188  11.651
69927SOL    HW211621  13.649   6.278  11.772
69928SOL     OW11622  10.931   7.898   0.032
69928SOL    HW111623  10.904   7.989   0.043
69928SOL    HW211624  10.866   7.847   0.080
69929SOL     OW11625  10.240   7.843   8.213
69929SOL    HW111626  10.295   7.825   8.137
69929SOL    HW211627  10.278   7.922   8.252
69930SOL     OW11628   8.747   7.973  11.421
69930SOL    HW111629   8.787   7.987  11.507
69930SOL    HW211630   8.814   7.927  11.371
69931SOL     OW11631   6.094   3.728   2.591
69931SOL    HW111632   6.103   3.636   2.567
69931SOL    HW211633   6.181   3.754   2.621
69932SOL     OW11634   1.248   5.814   7.764
69932SOL    HW111635   1.328   5.764   7.748
69932SOL    HW211636   1.212   5.776   7.844
69933SOL     OW11637   5.337   6.745   8.898
69933SOL    HW111638   5.289   6.779   8.973
69933SOL    HW211639   5.424   6.784   8.905
69934SOL     OW11640   4.496   8.428   4.534
69934SOL    HW111641   4.435   8.435   4.608
69934SOL    HW211642   4.453   8.477   4.464
69935SOL     OW11643   0.050  11.194   4.934
69935SOL    HW111644   0.084  11.186   5.023
69935SOL    HW211645   0.066  11.108   4.894
69936SOL     OW11646   2.064   6.001   1.721
69936SOL    HW111647   2.095   5.946   1.793
69936SOL    HW211648   2.117   5.975   1.646
69937SOL     OW11649   4.539   1.353   6.403
69937SOL    HW111650   4.506   1.273   6.361
69937SOL    HW211651   4.500   1.352   6.491
69938SOL     OW11652  10.163   4.144  12.348
69938SOL    HW111653  10.258   4.135  12.341
69938SOL    HW211654  10.141   4.215  12.288
69939SOL     OW11655   0.739   7.239   8.338
69939SOL    HW111656   0.790   7.300   8.285
69939SOL    HW211657   0.665   7.290   8.369
69940SOL     OW11658   4.997   8.586  14.174
69940SOL    HW111659   5.028   8.497  14.157
69940SOL    HW211660   5.012   8.599  14.268
69941SOL     OW11661  14.185   1.236  12.802
69941SOL    HW111662  14.185   1.207  12.893
69941SOL    HW211663  14.133   1.317  12.802
69942SOL     OW11664   4.075   5.725   5.190
69942SOL    HW111665   4.146   5.738   5.253
69942SOL    HW211666   4.093   5.639   5.151
69943SOL     OW11667   8.795  13.334   9.810
69943SOL    HW111668   8.749  13.274   9.868
69943SOL    HW211669   8.882  13.296   9.800
69944SOL     OW11670  14.365   6.216   6.294
69944SOL    HW111671  14.422   6.162   6.348
69944SOL    HW211672  14.298   6.248   6.354
69945SOL     OW11673   7.588   2.784   3.491
69945SOL    HW111674   7.506   2.784   3.441
69945SOL    HW211675   7.633   2.704   3.462
69946SOL     OW11676   7.850  12.938  11.129
69946SOL    HW111677   7.945  12.935  11.119
69946SOL    HW211678   7.834  12.904  11.217
69947SOL     OW11679   8.650   4.775   6.366
69947SOL    HW111680   8.702   4.844   6.407
69947SOL    HW211681   8.634   4.712   6.437
69948SOL     OW11682  13.224   6.866   2.117
69948SOL    HW111683  13.139   6.904   2.095
69948SOL    HW211684  13.280   6.889   2.043
69949SOL     OW11685   1.780   0.667  11.763
69949SOL    HW111686   1.696   0.662  11.717
69949SOL    HW211687   1.756   0.686  11.854
69950SOL     OW11688  10.935   1.887   0.637
69950SOL    HW111689  10.950   1.851   0.549
69950SOL    HW211690  11.015   1.867   0.685
69951SOL     OW11691   5.981  14.533   2.225
69951SOL    HW111692   5.965  14.623   2.254
69951SOL    HW211693   5.932  14.479   2.287
69952SOL     OW11694   9.361  11.821  12.720
69952SOL    HW111695   9.293  11.757  12.697
69952SOL    HW211696   9.331  11.903  12.679
69953SOL     OW11697   7.092   9.951   2.664
69953SOL    HW111698   7.102   9.870   2.714
69953SOL    HW211699   7.181   9.980   2.645
69954SOL     OW11700   7.010  11.876  10.486
69954SOL    HW111701   7.097  11.861  10.524
69954SOL    HW211702   6.996  11.801  10.428
69955SOL     OW11703   2.925  12.796   8.796
69955SOL    HW111704   2.886  12.711   8.774
69955SOL    HW211705   2.863  12.860   8.762
69956SOL     OW11706  13.746   1.579  11.849
69956SOL    HW111707  13.756   1.501  11.905
69956SOL    HW211708  13.836   1.607  11.831
69957SOL     OW11709  14.512   7.883  13.697
69957SOL    HW111710  14.533   7.973  13.674
69957SOL    HW211711  14.595   7.836  13.687
69958SOL     OW11712   5.091   8.328   3.862
69958SOL    HW111713   5.101   8.323   3.957
69958SOL    HW211714   4.998   8.313   3.846
69959SOL     OW11715  10.560  12.120   1.605
69959SOL    HW111716  10.503  12.177   1.554
69959SOL    HW211717  10.565  12.162   1.690
69960SOL     OW11718   2.800   9.298  12.519
69960SOL    HW111719   2.730   9.359  12.545
69960SOL    HW211720   2.881   9.348  12.533
69961SOL     OW11721  10.061   2.139   1.095
69961SOL    HW111722  10.053   2.044   1.104
69961SOL    HW211723  10.150   2.153   1.062
69962SOL     OW11724  11.036   0.268  13.563
69962SOL    HW111725  11.080   0.333  13.617
69962SOL    HW211726  11.106   0.231  13.509
69963SOL     OW11727  13.837   2.302   5.685
69963SOL    HW111728  13.896   2.348   5.626
69963SOL    HW211729  13.818   2.220   5.640
69964SOL     OW11730   8.110   0.895   8.476
69964SOL    HW111731   8.091   0.945   8.556
69964SOL    HW211732   8.024   0.872   8.441
69965SOL     OW11733   1.429  11.671   1.675
69965SOL    HW111734   1.365  11.668   1.604
69965SOL    HW211735   1.513  11.687   1.630
69966SOL     OW11736   2.015   3.563   8.031
69966SOL    HW111737   2.064   3.560   7.949
69966SOL    HW211738   2.052   3.491   8.083
69967SOL     OW11739  10.420   5.172   2.124
69967SOL    HW111740  10.478   5.236   2.167
69967SOL    HW211741  10.334   5.188   2.162
69968SOL     OW11742   8.533  10.227   1.616
69968SOL    HW111743   8.528  10.206   1.523
69968SOL    HW211744   8.447  10.263   1.637
69969SOL     OW11745   9.902  13.984   0.043
69969SOL    HW111746   9.827  14.015  14.873
69969SOL    HW211747   9.876  13.998   0.134
69970SOL     OW11748  14.133  14.622  11.362
69970SOL    HW111749  14.168  14.704  11.328
69970SOL    HW211750  14.202  14.557  11.344
69971SOL     OW11751   1.018   6.065  14.448
69971SOL    HW111752   1.106   6.061  14.487
69971SOL    HW211753   0.980   5.979  14.467
69972SOL     OW11754   6.303   7.442   6.946
69972SOL    HW111755   6.220   7.473   6.981
69972SOL    HW211756   6.285   7.353   6.916
69973SOL     OW11757  14.353   0.759   7.185
69973SOL    HW111758  14.314   0.847   7.181
69973SOL    HW211759  14.439   0.772   7.224
69974SOL     OW11760   8.032  13.050   7.979
69974SOL    HW111761   8.059  12.962   8.004
69974SOL    HW211762   8.068  13.063   7.891
69975SOL     OW11763   9.890   1.530   1.305
69975SOL    HW111764   9.917   1.451   1.352
69975SOL    HW211765   9.795   1.532   1.314
69976SOL     OW11766   1.166   6.895   3.263
69976SOL    HW111767   1.197   6.951   3.192
69976SOL    HW211768   1.186   6.806   3.235
69977SOL     OW11769   1.757   5.278   2.525
69977SOL    HW111770   1.746   5.238   2.612
69977SOL    HW211771   1.794   5.364   2.544
69978SOL     OW11772   1.018   7.767   1.945
69978SOL    HW111773   1.095   7.808   1.906
69978SOL    HW211774   0.978   7.835   1.999
69979SOL     OW11775   0.331   2.526  11.483
69979SOL    HW111776   0.248   2.535  11.529
69979SOL    HW211777   0.342   2.432  11.470
69980SOL     OW11778   6.341  12.653   5.301
69980SOL    HW111779   6.383  12.653   5.215
69980SOL    HW211780   6.291  12.734   5.304
69981SOL     OW11781   2.300   7.982   4.418
69981SOL    HW111782   2.321   7.983   4.511
69981SOL    HW211783   2.210   7.950   4.415
69982SOL     OW11784   5.070   3.016   7.636
69982SOL    HW111785   5.014   3.004   7.559
69982SOL    HW211786   5.049   2.941   7.693
69983SOL     OW11787  10.561   4.387   7.555
69983SOL    HW111788  10.523   4.370   7.469
69983SOL    HW211789  10.642   4.336   7.556
69984SOL     OW11790   3.013   6.498   4.336
69984SOL    HW111791   2.970   6.445   4.403
69984SOL    HW211792   3.065   6.435   4.287
69985SOL     OW11793  12.109   3.609   0.917
69985SOL    HW111794  12.173   3.543   0.889
69985SOL    HW211795  12.076   3.646   0.835
69986SOL     OW11796   0.875   4.834   7.164
69986SOL    HW111797   0.822   4.870   7.093
69986SOL    HW211798   0.944   4.785   7.120
69987SOL     OW11799   3.809  14.696   3.152
69987SOL    HW111800   3.861  14.761   3.105
69987SOL    HW211801   3.738  14.746   3.192
69988SOL     OW11802  13.178  13.602  12.748
69988SOL    HW111803  13.128  13.671  12.705
69988SOL    HW211804  13.227  13.560  12.677
69989SOL     OW11805   0.352  13.484  12.459
69989SOL    HW111806   0.268  13.528  12.471
69989SOL    HW211807   0.414  13.539  12.506
69990SOL     OW11808   1.078   8.720   1.167
69990SOL    HW111809   1.161   8.686   1.202
69990SOL    HW211810   1.027   8.641   1.146
69991SOL     OW11811   7.118   1.693   3.195
69991SOL    HW111812   7.210   1.709   3.172
69991SOL    HW211813   7.082   1.648   3.119
69992SOL     OW11814   2.109  11.789   3.518
69992SOL    HW111815   2.068  11.730   3.454
69992SOL    HW211816   2.038  11.809   3.579
69993SOL     OW11817   1.177   3.286   3.152
69993SOL    HW111818   1.246   3.231   3.117
69993SOL    HW211819   1.130   3.318   3.075
69994SOL     OW11820  13.837  12.934  12.137
69994SOL    HW111821  13.876  13.011  12.094
69994SOL    HW211822  13.748  12.931  12.103
69995SOL     OW11823  14.397  13.103   0.288
69995SOL    HW111824  14.415  13.012   0.315
69995SOL    HW211825  14.471  13.125   0.231
69996SOL     OW11826  13.186   9.658  11.724
69996SOL    HW111827  13.204   9.749  11.700
69996SOL    HW211828  13.257   9.634  11.784
69997SOL     OW11829   2.045   3.777   1.254
69997SOL    HW111830   2.004   3.716   1.316
69997SOL    HW211831   2.114   3.820   1.304
69998SOL     OW11832   0.242   1.380  14.072
69998SOL    HW111833   0.251   1.432  13.992
69998SOL    HW211834   0.308   1.416  14.131
69999SOL     OW11835   2.580   2.779   8.220
69999SOL    HW111836   2.636   2.766   8.296
69999SOL    HW211837   2.638   2.820   8.155
70000SOL     OW11838  11.136   2.741   6.843
70000SOL    HW111839  11.230   2.738   6.861
70000SOL    HW211840  11.129   2.734   6.748
70001SOL     OW11841   5.293  11.936  10.758
70001SOL    HW111842   5.340  11.983  10.689
70001SOL    HW211843   5.253  11.862  10.713
70002SOL     OW11844   3.300   7.584  14.530
70002SOL    HW111845   3.267   7.635  14.604
70002SOL    HW211846   3.384   7.625  14.509
70003SOL     OW11847   0.081   6.240  12.638
70003SOL    HW111848   0.112   6.269  12.724
70003SOL    HW211849   0.108   6.309  12.578
70004SOL     OW11850   0.854  13.950  13.310
70004SOL    HW111851   0.765  13.961  13.276
70004SOL    HW211852   0.844  13.886  13.381
70005SOL     OW11853  13.855  12.070   6.000
70005SOL    HW111854  13.844  12.140   5.935
70005SOL    HW211855  13.859  12.116   6.084
70006SOL     OW11856   3.588   7.266   4.416
70006SOL    HW111857   3.498   7.271   4.383
70006SOL    HW211858   3.638   7.227   4.345
70007SOL     OW11859   7.330   2.644   6.464
70007SOL    HW111860   7.353   2.578   6.529
70007SOL    HW211861   7.367   2.725   6.497
70008SOL     OW11862  13.915  11.806   6.643
70008SOL    HW111863  13.955  11.887   6.613
70008SOL    HW211864  13.849  11.834   6.707
70009SOL     OW11865   5.945  10.622  14.190
70009SOL    HW111866   6.037  10.604  14.172
70009SOL    HW211867   5.915  10.546  14.240
70010SOL     OW11868  10.777   8.196   3.194
70010SOL    HW111869  10.815   8.121   3.149
70010SOL    HW211870  10.758   8.164   3.283
70011SOL     OW11871   0.739  14.490   9.303
70011SOL    HW111872   0.655  14.481   9.259
70011SOL    HW211873   0.744  14.583   9.326
70012SOL     OW11874   9.261  14.177  14.260
70012SOL    HW111875   9.307  14.112  14.314
70012SOL    HW211876   9.171  14.144  14.255
70013SOL     OW11877  12.326   8.968   1.972
70013SOL    HW111878  12.332   8.900   1.905
70013SOL    HW211879  12.386   8.939   2.041
70014SOL     OW11880  11.394   4.553   9.845
70014SOL    HW111881  11.471   4.604   9.871
70014SOL    HW211882  11.427   4.463   9.840
70015SOL     OW11883   4.087   5.913   0.146
70015SOL    HW111884   4.120   5.986   0.093
70015SOL    HW211885   3.996   5.904   0.120
70016SOL     OW11886   5.722  11.630  12.832
70016SOL    HW111887   5.754  11.690  12.900
70016SOL    HW211888   5.750  11.544  12.862
70017SOL     OW11889  12.013   8.135   6.003
70017SOL    HW111890  11.920   8.140   5.985
70017SOL    HW211891  12.019   8.132   6.099
70018SOL     OW11892   1.327   0.149  11.382
70018SOL    HW111893   1.422   0.159  11.388
70018SOL    HW211894   1.295   0.172  11.470
70019SOL     OW11895  12.350   6.904  12.600
70019SOL    HW111896  12.287   6.862  12.657
70019SOL    HW211897  12.394   6.831  12.555
70020SOL     OW11898   5.842  13.806  10.909
70020SOL    HW111899   5.877  13.852  10.985
70020SOL    HW211900   5.756  13.844  10.894
70021SOL     OW11901   7.288   5.986   6.901
70021SOL    HW111902   7.373   5.969   6.862
70021SOL    HW211903   7.275   5.914   6.963
70022SOL     OW11904  12.605   5.390  13.957
70022SOL    HW111905  12.588   5.453  13.886
70022SOL    HW211906  12.521   5.382  14.002
70023SOL     OW11907  10.974   1.515  11.974
70023SOL    HW111908  10.909   1.547  12.037
70023SOL    HW211909  11.058   1.538  12.013
70024SOL     OW11910   4.164   7.473   0.392
70024SOL    HW111911   4.141   7.465   0.485
70024SOL    HW211912   4.082   7.499   0.350
70025SOL     OW11913  12.813   8.191   6.469
70025SOL    HW111914  12.886   8.185   6.531
70025SOL    HW211915  12.760   8.263   6.502
70026SOL     OW11916   4.133   5.196   3.118
70026SOL    HW111917   4.045   5.182   3.082
70026SOL    HW211918   4.190   5.146   3.060
70027SOL     OW11919  13.277  12.122  11.003
70027SOL    HW111920  13.328  12.047  11.034
70027SOL    HW211921  13.306  12.136  10.913
70028SOL     OW11922   7.101   6.543   3.288
70028SOL    HW111923   7.028   6.603   3.273
70028SOL    HW211924   7.171   6.599   3.322
70029SOL     OW11925   7.540   3.244  11.275
70029SOL    HW111926   7.546   3.325  11.223
70029SOL    HW211927   7.581   3.177  11.221
70030SOL     OW11928   1.909   2.542   8.219
70030SOL    HW111929   1.854   2.555   8.141
70030SOL    HW211930   1.992   2.585   8.198
70031SOL     OW11931   0.354  10.440   7.717
70031SOL    HW111932   0.378  10.470   7.630
70031SOL    HW211933   0.384  10.510   7.776
70032SOL     OW11934  10.035   2.744  13.150
70032SOL    HW111935  10.055   2.697  13.069
70032SOL    HW211936   9.970   2.809  13.126
70033SOL     OW11937  12.602  11.231   2.078
70033SOL    HW111938  12.651  11.279   2.146
70033SOL    HW211939  12.669  11.205   2.015
70034SOL     OW11940  12.142   0.532  14.056
70034SOL    HW111941  12.145   0.601  13.990
70034SOL    HW211942  12.212   0.553  14.117
70035SOL     OW11943   1.799  14.496   1.530
70035SOL    HW111944   1.727  14.529   1.583
70035SOL    HW211945   1.816  14.566   1.467
70036SOL     OW11946   5.596   4.590  12.426
70036SOL    HW111947   5.637   4.643  12.357
70036SOL    HW211948   5.564   4.654  12.489
70037SOL     OW11949   5.643   0.289   3.433
70037SOL    HW111950   5.578   0.219   3.433
70037SOL    HW211951   5.692   0.277   3.514
70038SOL     OW11952   9.692  14.115   5.080
70038SOL    HW111953   9.686  14.140   4.988
70038SOL    HW211954   9.766  14.055   5.084
70039SOL     OW11955  12.775   2.769   2.244
70039SOL    HW111956  12.717   2.811   2.180
70039SOL    HW211957  12.793   2.682   2.208
70040SOL     OW11958   9.138   6.371   8.797
70040SOL    HW111959   9.200   6.430   8.840
70040SOL    HW211960   9.073   6.352   8.864
70041SOL     OW11961  14.318   3.414   2.011
70041SOL    HW111962  14.228   3.439   1.990
70041SOL    HW211963  14.370   3.444   1.936
70042SOL     OW11964  10.207   0.047   4.799
70042SOL    HW111965  10.151   0.122   4.815
70042SOL    HW211966  10.166  14.858   4.848
70043SOL     OW11967   2.214   5.785   4.219
70043SOL    HW111968   2.191   5.693   4.233
70043SOL    HW211969   2.290   5.782   4.161
70044SOL     OW11970  10.284   1.836   6.824
70044SOL    HW111971  10.200   1.878   6.847
70044SOL    HW211972  10.321   1.810   6.908
70045SOL     OW11973   3.707   3.660   4.747
70045SOL    HW111974   3.737   3.719   4.677
70045SOL    HW211975   3.787   3.639   4.795
70046SOL     OW11976   7.073   1.877  14.267
70046SOL    HW111977   7.016   1.826  14.209
70046SOL    HW211978   7.101   1.816  14.334
70047SOL     OW11979  10.159   5.981  12.297
70047SOL    HW111980  10.174   5.923  12.223
70047SOL    HW211981  10.155   6.069  12.259
70048SOL     OW11982  10.054   1.717   3.522
70048SOL    HW111983  10.077   1.640   3.574
70048SOL    HW211984  10.114   1.715   3.448
70049SOL     OW11985   1.983  10.004  10.275
70049SOL    HW111986   1.903  10.033  10.318
70049SOL    HW211987   1.991   9.912  10.298
70050SOL     OW11988  14.224   3.007  11.291
70050SOL    HW111989  14.130   3.023  11.288
70050SOL    HW211990  14.242   2.953  11.215
70051SOL     OW11991   3.324  10.149   3.598
70051SOL    HW111992   3.340  10.224   3.656
70051SOL    HW211993   3.278  10.187   3.523
70052SOL     OW11994   7.426   5.594  11.804
70052SOL    HW111995   7.351   5.554  11.849
70052SOL    HW211996   7.458   5.526  11.745
70053SOL     OW11997   0.478   2.315   5.421
70053SOL    HW111998   0.473   2.407   5.446
70053SOL    HW211999   0.531   2.274   5.490
70054SOL     OW12000   5.708  10.410   0.222
70054SOL    HW112001   5.711  10.334   0.164
70054SOL    HW212002   5.800  10.431   0.237
70055SOL     OW12003  11.558   3.865   7.041
70055SOL    HW112004  11.506   3.811   7.101
70055SOL    HW212005  11.648   3.857   7.074
70056SOL     OW12006   5.587  10.861  13.633
70056SOL    HW112007   5.649  10.930  13.658
70056SOL    HW212008   5.515  10.908  13.592
70057SOL     OW12009   6.039   7.172   3.397
70057SOL    HW112010   6.117   7.133   3.435
70057SOL    HW212011   6.035   7.260   3.435
70058SOL     OW12012   8.322  12.010   2.434
70058SOL    HW112013   8.249  12.037   2.379
70058SOL    HW212014   8.384  11.970   2.374
70059SOL     OW12015   1.747   0.032  11.394
70059SOL    HW112016   1.655   0.008  11.408
70059SOL    HW212017   1.745   0.127  11.384
70060SOL     OW12018   7.015   5.995   4.685
70060SOL    HW112019   6.961   5.918   4.704
70060SOL    HW212020   7.003   6.011   4.592
70061SOL     OW12021   7.475   5.627   9.149
70061SOL    HW112022   7.380   5.625   9.148
70061SOL    HW212023   7.498   5.693   9.084
70062SOL     OW12024   0.618   0.603   6.861
70062SOL    HW112025   0.710   0.617   6.883
70062SOL    HW212026   0.569   0.654   6.925
70063SOL     OW12027  10.432   7.934   1.448
70063SOL    HW112028  10.407   7.888   1.529
70063SOL    HW212029  10.371   8.007   1.443
70064SOL     OW12030   2.301   7.836   1.596
70064SOL    HW112031   2.382   7.786   1.609
70064SOL    HW212032   2.231   7.776   1.620
70065SOL     OW12033   3.672  13.864   5.302
70065SOL    HW112034   3.767  13.874   5.291
70065SOL    HW212035   3.635  13.938   5.255
70066SOL     OW12036   1.918   2.180   1.227
70066SOL    HW112037   2.000   2.219   1.257
70066SOL    HW212038   1.932   2.086   1.235
70067SOL     OW12039  11.712   3.667  11.143
70067SOL    HW112040  11.746   3.736  11.199
70067SOL    HW212041  11.690   3.595  11.203
70068SOL     OW12042   7.143   6.351   9.543
70068SOL    HW112043   7.219   6.294   9.558
70068SOL    HW212044   7.181   6.437   9.527
70069SOL     OW12045   9.244  11.479  14.812
70069SOL    HW112046   9.228  11.526  14.730
70069SOL    HW212047   9.333  11.445  14.804
70070SOL     OW12048   7.192   1.903   4.029
70070SOL    HW112049   7.156   1.868   3.948
70070SOL    HW212050   7.121   1.895   4.093
70071SOL     OW12051   6.029   3.364   3.213
70071SOL    HW112052   6.031   3.328   3.124
70071SOL    HW212053   6.115   3.404   3.225
70072SOL     OW12054   1.121   7.735   0.478
70072SOL    HW112055   1.179   7.736   0.401
70072SOL    HW212056   1.033   7.731   0.441
70073SOL     OW12057  11.147   8.962   3.074
70073SOL    HW112058  11.206   9.004   3.137
70073SOL    HW212059  11.131   8.875   3.109
70074SOL     OW12060   6.889   1.381  14.729
70074SOL    HW112061   6.851   1.423  14.806
70074SOL    HW212062   6.813   1.349  14.679
70075SOL     OW12063  10.151  12.627   2.095
70075SOL    HW112064  10.195  12.700   2.051
70075SOL    HW212065  10.128  12.661   2.181
70076SOL     OW12066   8.125   8.661  12.715
70076SOL    HW112067   8.054   8.715  12.681
70076SOL    HW212068   8.205   8.709  12.691
70077SOL     OW12069  14.290   6.959   4.464
70077SOL    HW112070  14.278   7.052   4.444
70077SOL    HW212071  14.202   6.922   4.459
70078SOL     OW12072  14.511   4.431   6.709
70078SOL    HW112073  14.515   4.451   6.803
70078SOL    HW212074  14.427   4.466   6.681
70079SOL     OW12075   3.103   3.632  10.241
70079SOL    HW112076   3.095   3.673  10.154
70079SOL    HW212077   3.028   3.573  10.246
70080SOL     OW12078   0.830   3.293  13.551
70080SOL    HW112079   0.763   3.228  13.574
70080SOL    HW212080   0.875   3.255  13.475
70081SOL     OW12081   5.884   8.154   0.034
70081SOL    HW112082   5.829   8.086  14.877
70081SOL    HW212083   5.910   8.209  14.842
70082SOL     OW12084   9.324   7.014   1.576
70082SOL    HW112085   9.287   6.934   1.614
70082SOL    HW212086   9.409   7.023   1.619
70083SOL     OW12087  13.632  11.317  13.222
70083SOL    HW112088  13.596  11.369  13.151
70083SOL    HW212089  13.692  11.256  13.179
70084SOL     OW12090   6.829   3.540   1.581
70084SOL    HW112091   6.839   3.632   1.606
70084SOL    HW212092   6.918   3.505   1.578
70085SOL     OW12093   8.740   6.473  12.218
70085SOL    HW112094   8.713   6.427  12.138
70085SOL    HW212095   8.827   6.439  12.236
70086SOL     OW12096   7.773   2.710   9.443
70086SOL    HW112097   7.825   2.705   9.523
70086SOL    HW212098   7.722   2.629   9.443
70087SOL     OW12099  11.838  12.067  11.404
70087SOL    HW112100  11.869  11.988  11.449
70087SOL    HW212101  11.821  12.038  11.314
70088SOL     OW12102  14.011   7.886   2.587
70088SOL    HW112103  14.075   7.957   2.589
70088SOL    HW212104  13.945   7.912   2.652
70089SOL     OW12105   6.118   2.538  14.481
70089SOL    HW112106   6.029   2.503  14.479
70089SOL    HW212107   6.115   2.615  14.424
70090SOL     OW12108   2.518  12.606  10.167
70090SOL    HW112109   2.601  12.579  10.206
70090SOL    HW212110   2.540  12.628  10.077
70091SOL     OW12111   0.950   2.559   6.619
70091SOL    HW112112   0.886   2.488   6.628
70091SOL    HW212113   0.972   2.583   6.709
70092SOL     OW12114   8.201   0.002  12.978
70092SOL    HW112115   8.181   0.074  13.038
70092SOL    HW212116   8.166   0.031  12.893
70093SOL     OW12117  11.619   1.165  12.493
70093SOL    HW112118  11.524   1.165  12.505
70093SOL    HW212119  11.631   1.177  12.399
70094SOL     OW12120   0.487   4.069  13.864
70094SOL    HW112121   0.543   3.994  13.887
70094SOL    HW212122   0.536   4.115  13.796
70095SOL     OW12123   6.672   8.526   2.566
70095SOL    HW112124   6.759   8.525   2.526
70095SOL    HW212125   6.612   8.517   2.492
70096SOL     OW12126   9.961  13.539   1.415
70096SOL    HW112127   9.930  13.471   1.475
70096SOL    HW212128  10.043  13.570   1.453
70097SOL     OW12129   8.855   4.030   0.466
70097SOL    HW112130   8.873   4.114   0.508
70097SOL    HW212131   8.941   3.998   0.438
70098SOL     OW12132   2.704   2.110   1.904
70098SOL    HW112133   2.688   2.110   1.810
70098SOL    HW212134   2.625   2.151   1.942
70099SOL     OW12135   3.060  11.669   8.455
70099SOL    HW112136   3.036  11.606   8.522
70099SOL    HW212137   3.082  11.749   8.504
70100SOL     OW12138  14.477   9.578  13.105
70100SOL    HW112139  14.564   9.538  13.106
70100SOL    HW212140  14.492   9.666  13.071
70101SOL     OW12141  13.878  10.979  11.831
70101SOL    HW112142  13.944  10.975  11.763
70101SOL    HW212143  13.914  11.039  11.897
70102SOL     OW12144   1.671   8.495  13.540
70102SOL    HW112145   1.759   8.523  13.512
70102SOL    HW212146   1.685   8.409  13.580
70103SOL     OW12147   0.652  13.984  10.254
70103SOL    HW112148   0.681  13.953  10.340
70103SOL    HW212149   0.732  14.015  10.211
70104SOL     OW12150   9.004  11.128  10.675
70104SOL    HW112151   9.043  11.167  10.753
70104SOL    HW212152   8.965  11.201  10.628
70105SOL     OW12153  14.538   2.175   7.120
70105SOL    HW112154  14.502   2.261   7.144
70105SOL    HW212155  14.595   2.151   7.193
70106SOL     OW12156   5.179  12.810   1.855
70106SOL    HW112157   5.167  12.855   1.939
70106SOL    HW212158   5.212  12.877   1.796
70107SOL     OW12159  14.426   7.479  13.014
70107SOL    HW112160  14.369   7.455  13.087
70107SOL    HW212161  14.513   7.485  13.053
70108SOL     OW12162   9.779  14.787  11.343
70108SOL    HW112163   9.861  14.738  11.347
70108SOL    HW212164   9.713  14.727  11.376
70109SOL     OW12165   1.516   5.517   3.924
70109SOL    HW112166   1.534   5.605   3.957
70109SOL    HW212167   1.523   5.525   3.829
70110SOL     OW12168   3.406   2.605   6.456
70110SOL    HW112169   3.484   2.652   6.425
70110SOL    HW212170   3.437   2.554   6.531
70111SOL     OW12171   5.209   7.543  14.512
70111SOL    HW112172   5.225   7.498  14.429
70111SOL    HW212173   5.261   7.623  14.506
70112SOL     OW12174  10.767   8.995   1.446
70112SOL    HW112175  10.693   9.053   1.465
70112SOL    HW212176  10.728   8.920   1.400
70113SOL     OW12177   4.814   5.322   4.823
70113SOL    HW112178   4.739   5.285   4.777
70113SOL    HW212179   4.792   5.415   4.834
70114SOL     OW12180   7.300   2.028  14.236
70114SOL    HW112181   7.350   1.950  14.261
70114SOL    HW212182   7.209   1.997  14.233
70115SOL     OW12183  14.544  12.107  14.549
70115SOL    HW112184  14.534  12.082  14.641
70115SOL    HW212185  14.460  12.147  14.526
70116SOL     OW12186   8.166  12.016   9.852
70116SOL    HW112187   8.125  12.031   9.767
70116SOL    HW212188   8.228  11.944   9.837
70117SOL     OW12189   5.601  13.684   6.628
70117SOL    HW112190   5.610  13.624   6.555
70117SOL    HW212191   5.510  13.673   6.657
70118SOL     OW12192  14.717   9.766  12.017
70118SOL    HW112193  14.701   9.838  12.078
70118SOL    HW212194  14.672   9.793  11.936
70119SOL     OW12195   9.408   1.613   1.700
70119SOL    HW112196   9.330   1.664   1.676
70119SOL    HW212197   9.382   1.564   1.778
70120SOL     OW12198  11.853   8.669  14.279
70120SOL    HW112199  11.782   8.733  14.272
70120SOL    HW212200  11.846   8.617  14.199
70121SOL     OW12201   9.370   8.847   3.825
70121SOL    HW112202   9.337   8.910   3.889
70121SOL    HW212203   9.461   8.832   3.851
70122SOL     OW12204   5.888  13.721  11.517
70122SOL    HW112205   5.930  13.647  11.561
70122SOL    HW212206   5.916  13.715  11.426
70123SOL     OW12207   9.277  13.400   2.941
70123SOL    HW112208   9.205  13.392   3.003
70123SOL    HW212209   9.355  13.375   2.991
70124SOL     OW12210  10.319   0.836  12.670
70124SOL    HW112211  10.283   0.849  12.758
70124SOL    HW212212  10.338   0.925  12.639
70125SOL     OW12213  14.266   0.912  13.364
70125SOL    HW112214  14.269   0.832  13.311
70125SOL    HW212215  14.357   0.934  13.381
70126SOL     OW12216   0.083   6.383  10.973
70126SOL    HW112217   0.165   6.430  10.991
70126SOL    HW212218   0.101   6.333  10.893
70127SOL     OW12219  11.256  13.362   9.101
70127SOL    HW112220  11.246  13.309   9.022
70127SOL    HW212221  11.346  13.345   9.130
70128SOL     OW12222  12.782  14.859   9.631
70128SOL    HW112223  12.698  14.815   9.642
70128SOL    HW212224  12.795  14.864   9.536
70129SOL     OW12225   9.679   2.487   9.089
70129SOL    HW112226   9.711   2.569   9.127
70129SOL    HW212227   9.636   2.513   9.008
70130SOL     OW12228   0.152   0.845   3.753
70130SOL    HW112229   0.148   0.928   3.800
70130SOL    HW212230   0.197   0.865   3.671
70131SOL     OW12231  13.504  12.841   2.063
70131SOL    HW112232  13.590  12.853   2.022
70131SOL    HW212233  13.492  12.746   2.066
70132SOL     OW12234   5.959   4.188   8.571
70132SOL    HW112235   5.893   4.207   8.637
70132SOL    HW212236   5.921   4.119   8.518
70133SOL     OW12237  12.522  11.606  13.831
70133SOL    HW112238  12.601  11.555  13.846
70133SOL    HW212239  12.450  11.544  13.846
70134SOL     OW12240   0.606   6.991   0.641
70134SOL    HW112241   0.594   7.058   0.573
70134SOL    HW212242   0.518   6.957   0.656
70135SOL     OW12243   8.178   6.451  14.817
70135SOL    HW112244   8.273   6.464  14.824
70135SOL    HW212245   8.146   6.461   0.025
70136SOL     OW12246   8.154   9.147  11.045
70136SOL    HW112247   8.119   9.081  11.105
70136SOL    HW212248   8.178   9.221  11.101
70137SOL     OW12249   2.831   1.784   0.071
70137SOL    HW112250   2.756   1.810   0.124
70137SOL    HW212251   2.845   1.692   0.093
70138SOL     OW12252   7.519  14.713   1.530
70138SOL    HW112253   7.511  14.808   1.543
70138SOL    HW212254   7.605  14.691   1.568
70139SOL     OW12255   3.647   7.389  13.731
70139SOL    HW112256   3.666   7.297  13.714
70139SOL    HW212257   3.598   7.418  13.654
70140SOL     OW12258   6.016  10.877   2.943
70140SOL    HW112259   6.061  10.843   3.020
70140SOL    HW212260   6.086  10.893   2.880
70141SOL     OW12261   5.909   9.714   8.313
70141SOL    HW112262   5.833   9.671   8.354
70141SOL    HW212263   5.873   9.753   8.233
70142SOL     OW12264   4.009   1.346   0.187
70142SOL    HW112265   3.967   1.265   0.213
70142SOL    HW212266   3.947   1.387   0.126
70143SOL     OW12267   2.335   0.851  11.981
70143SOL    HW112268   2.311   0.870  12.072
70143SOL    HW212269   2.429   0.834  11.984
70144SOL     OW12270   9.886   3.156  10.842
70144SOL    HW112271   9.917   3.169  10.931
70144SOL    HW212272   9.897   3.242  10.800
70145SOL     OW12273   9.367  14.401   1.042
70145SOL    HW112274   9.297  14.353   1.087
70145SOL    HW212275   9.325  14.436   0.963
70146SOL     OW12276  11.681  13.019  11.002
70146SOL    HW112277  11.738  12.947  10.976
70146SOL    HW212278  11.724  13.058  11.079
70147SOL     OW12279  10.278  13.354   4.589
70147SOL    HW112280  10.333  13.276   4.581
70147SOL    HW212281  10.208  13.328   4.648
70148SOL     OW12282   7.655  12.415   1.905
70148SOL    HW112283   7.739  12.392   1.944
70148SOL    HW212284   7.603  12.448   1.979
70149SOL     OW12285   8.903  13.139   5.439
70149SOL    HW112286   8.864  13.080   5.375
70149SOL    HW212287   8.870  13.109   5.523
70150SOL     OW12288  13.917   6.924   5.459
70150SOL    HW112289  13.849   6.899   5.521
70150SOL    HW212290  13.908   6.863   5.387
70151SOL     OW12291   7.145   1.950   9.319
70151SOL    HW112292   7.127   1.924   9.229
70151SOL    HW212293   7.062   1.935   9.365
70152SOL     OW12294   3.308  14.586   0.764
70152SOL    HW112295   3.278  14.497   0.780
70152SOL    HW212296   3.316  14.593   0.669
70153SOL     OW12297   0.765   2.036   0.488
70153SOL    HW112298   0.749   1.970   0.555
70153SOL    HW212299   0.792   2.114   0.536
70154SOL     OW12300   9.378   6.058   9.096
70154SOL    HW112301   9.354   6.031   9.008
70154SOL    HW212302   9.431   5.985   9.130
70155SOL     OW12303   7.572   8.277   6.266
70155SOL    HW112304   7.637   8.219   6.305
70155SOL    HW212305   7.604   8.366   6.285
70156SOL     OW12306   7.193  13.639   8.775
70156SOL    HW112307   7.222  13.684   8.854
70156SOL    HW212308   7.129  13.575   8.806
70157SOL     OW12309   6.820  14.166   1.354
70157SOL    HW112310   6.744  14.163   1.296
70157SOL    HW212311   6.852  14.256   1.347
70158SOL     OW12312   8.317   7.344   5.024
70158SOL    HW112313   8.274   7.383   5.100
70158SOL    HW212314   8.400   7.311   5.056
70159SOL     OW12315   3.285   7.025  12.286
70159SOL    HW112316   3.238   6.945  12.262
70159SOL    HW212317   3.363   7.025  12.232
70160SOL     OW12318  14.163  11.037   7.693
70160SOL    HW112319  14.093  11.061   7.754
70160SOL    HW212320  14.165  10.941   7.695
70161SOL     OW12321   8.884   7.948   4.356
70161SOL    HW112322   8.821   8.005   4.312
70161SOL    HW212323   8.829   7.884   4.402
70162SOL     OW12324   3.328  10.784  14.567
70162SOL    HW112325   3.353  10.783  14.474
70162SOL    HW212326   3.232  10.780  14.565
70163SOL     OW12327  10.949  10.562  10.787
70163SOL    HW112328  10.990  10.514  10.716
70163SOL    HW212329  10.863  10.522  10.798
70164SOL     OW12330  14.849   9.780  10.510
70164SOL    HW112331  14.871   9.858  10.459
70164SOL    HW212332  14.756   9.765  10.492
70165SOL     OW12333   6.021   4.933   1.047
70165SOL    HW112334   5.993   4.973   1.129
70165SOL    HW212335   5.940   4.902   1.007
70166SOL     OW12336   1.119   6.841   7.584
70166SOL    HW112337   1.048   6.881   7.635
70166SOL    HW212338   1.075   6.800   7.510
70167SOL     OW12339  11.037   7.939   5.975
70167SOL    HW112340  11.072   7.856   5.942
70167SOL    HW212341  10.944   7.923   5.987
70168SOL     OW12342   6.668  14.654   6.183
70168SOL    HW112343   6.574  14.650   6.199
70168SOL    HW212344   6.677  14.642   6.089
70169SOL     OW12345   7.577   5.547  11.165
70169SOL    HW112346   7.598   5.640  11.162
70169SOL    HW212347   7.537   5.529  11.080
70170SOL     OW12348   5.921  13.686   1.506
70170SOL    HW112349   5.873  13.721   1.431
70170SOL    HW212350   5.885  13.732   1.582
70171SOL     OW12351   7.132   7.677  10.140
70171SOL    HW112352   7.073   7.729  10.086
70171SOL    HW212353   7.086   7.594  10.154
70172SOL     OW12354   3.793   3.903   7.446
70172SOL    HW112355   3.818   3.971   7.509
70172SOL    HW212356   3.844   3.922   7.367
70173SOL     OW12357  11.753   1.050  12.156
70173SOL    HW112358  11.714   1.023  12.073
70173SOL    HW212359  11.755   1.146  12.152
70174SOL     OW12360   8.429   9.278  12.275
70174SOL    HW112361   8.352   9.292  12.221
70174SOL    HW212362   8.448   9.365  12.312
70175SOL     OW12363   2.226  11.848   1.569
70175SOL    HW112364   2.313  11.887   1.557
70175SOL    HW212365   2.165  11.918   1.542
70176SOL     OW12366   7.568   4.067   5.663
70176SOL    HW112367   7.568   4.049   5.569
70176SOL    HW212368   7.503   4.137   5.673
70177SOL     OW12369  11.176   5.980  11.915
70177SOL    HW112370  11.156   6.073  11.901
70177SOL    HW212371  11.092   5.935  11.903
70178SOL     OW12372   4.691  13.913   8.358
70178SOL    HW112373   4.619  13.963   8.319
70178SOL    HW212374   4.649  13.834   8.392
70179SOL     OW12375   2.956   5.640   0.460
70179SOL    HW112376   2.902   5.679   0.529
70179SOL    HW212377   3.034   5.607   0.506
70180SOL     OW12378   3.563  10.582   9.400
70180SOL    HW112379   3.506  10.515   9.439
70180SOL    HW212380   3.538  10.663   9.444
70181SOL     OW12381  11.735   3.563   5.357
70181SOL    HW112382  11.659   3.550   5.301
70181SOL    HW212383  11.726   3.497   5.426
70182SOL     OW12384  11.200   0.681   8.677
70182SOL    HW112385  11.226   0.594   8.708
70182SOL    HW212386  11.253   0.696   8.599
70183SOL     OW12387  10.978   6.446   9.745
70183SOL    HW112388  10.933   6.369   9.711
70183SOL    HW212389  10.908   6.503   9.776
70184SOL     OW12390   0.400   4.035   7.988
70184SOL    HW112391   0.306   4.017   7.980
70184SOL    HW212392   0.429   3.979   8.060
70185SOL     OW12393   4.145   9.308   1.791
70185SOL    HW112394   4.119   9.288   1.701
70185SOL    HW212395   4.122   9.400   1.803
70186SOL     OW12396   0.084  10.488   2.080
70186SOL    HW112397   0.099  10.400   2.045
70186SOL    HW212398   0.126  10.546   2.017
70187SOL     OW12399   5.175  14.146   2.292
70187SOL    HW112400   5.237  14.109   2.230
70187SOL    HW212401   5.173  14.084   2.365
70188SOL     OW12402  13.468  14.297   9.407
70188SOL    HW112403  13.547  14.344   9.381
70188SOL    HW212404  13.442  14.248   9.328
70189SOL     OW12405   7.852   0.020   8.383
70189SOL    HW112406   7.849  14.851   8.465
70189SOL    HW212407   7.779  14.868   8.331
70190SOL     OW12408   9.367  12.065   9.438
70190SOL    HW112409   9.311  11.998   9.476
70190SOL    HW212410   9.444  12.067   9.495
70191SOL     OW12411  12.898   1.541   0.167
70191SOL    HW112412  12.939   1.578   0.246
70191SOL    HW212413  12.916   1.447   0.173
70192SOL     OW12414  10.071   4.871   2.845
70192SOL    HW112415  10.063   4.878   2.940
70192SOL    HW212416  10.164   4.856   2.830
70193SOL     OW12417   9.235   9.092   6.542
70193SOL    HW112418   9.215   9.167   6.485
70193SOL    HW212419   9.253   9.131   6.627
70194SOL     OW12420  13.918   3.783  14.785
70194SOL    HW112421  13.849   3.809  14.724
70194SOL    HW212422  13.957   3.866  14.813
70195SOL     OW12423   0.438  13.084  11.516
70195SOL    HW112424   0.422  13.048  11.604
70195SOL    HW212425   0.356  13.070  11.469
70196SOL     OW12426   8.708   1.354  14.823
70196SOL    HW112427   8.771   1.368   0.012
70196SOL    HW212428   8.650   1.430  14.829
70197SOL     OW12429  12.043   8.571   0.485
70197SOL    HW112430  11.982   8.519   0.432
70197SOL    HW212431  12.035   8.660   0.451
70198SOL     OW12432   5.756   2.972  10.941
70198SOL    HW112433   5.821   2.939  10.879
70198SOL    HW212434   5.694   2.900  10.952
70199SOL     OW12435   2.255   5.242  11.168
70199SOL    HW112436   2.305   5.162  11.154
70199SOL    HW212437   2.170   5.211  11.201
70200SOL     OW12438   2.698  11.477   5.676
70200SOL    HW112439   2.638  11.457   5.604
70200SOL    HW212440   2.782  11.496   5.632
70201SOL     OW12441   6.535   6.769   7.031
70201SOL    HW112442   6.513   6.688   7.077
70201SOL    HW212443   6.612   6.803   7.077
70202SOL     OW12444   6.296   1.492  14.688
70202SOL    HW112445   6.320   1.583  14.671
70202SOL    HW212446   6.251   1.464  14.609
70203SOL     OW12447   8.216  13.808   1.912
70203SOL    HW112448   8.130  13.814   1.871
70203SOL    HW212449   8.230  13.894   1.951
70204SOL     OW12450   5.320  11.442   7.740
70204SOL    HW112451   5.354  11.386   7.810
70204SOL    HW212452   5.269  11.382   7.685
70205SOL     OW12453   0.428   3.132  13.590
70205SOL    HW112454   0.465   3.128  13.502
70205SOL    HW212455   0.394   3.221  13.599
70206SOL     OW12456   1.564   3.608   0.895
70206SOL    HW112457   1.626   3.670   0.857
70206SOL    HW212458   1.606   3.579   0.976
70207SOL     OW12459   2.763   3.511   7.091
70207SOL    HW112460   2.717   3.525   7.008
70207SOL    HW212461   2.846   3.471   7.066
70208SOL     OW12462   8.391   0.727   1.703
70208SOL    HW112463   8.311   0.742   1.653
70208SOL    HW212464   8.372   0.762   1.790
70209SOL     OW12465   2.055   4.357   3.450
70209SOL    HW112466   2.116   4.294   3.490
70209SOL    HW212467   2.110   4.432   3.428
70210SOL     OW12468   1.666  13.433   6.001
70210SOL    HW112469   1.692  13.414   5.911
70210SOL    HW212470   1.580  13.474   5.993
70211SOL     OW12471   1.015   3.801   4.561
70211SOL    HW112472   1.021   3.707   4.543
70211SOL    HW212473   0.962   3.836   4.489
70212SOL     OW12474  11.486   2.000  11.818
70212SOL    HW112475  11.449   2.078  11.860
70212SOL    HW212476  11.580   2.015  11.820
70213SOL     OW12477   7.766   1.833   5.783
70213SOL    HW112478   7.686   1.862   5.826
70213SOL    HW212479   7.758   1.864   5.693
70214SOL     OW12480   4.236   9.909   9.142
70214SOL    HW112481   4.306   9.974   9.139
70214SOL    HW212482   4.270   9.840   9.200
70215SOL     OW12483   3.145   3.787   3.515
70215SOL    HW112484   3.162   3.726   3.587
70215SOL    HW212485   3.152   3.874   3.555
70216SOL     OW12486  12.872  10.991   4.661
70216SOL    HW112487  12.827  10.946   4.589
70216SOL    HW212488  12.901  10.921   4.718
70217SOL     OW12489   4.550   8.917   2.894
70217SOL    HW112490   4.523   8.895   2.983
70217SOL    HW212491   4.549   8.834   2.847
70218SOL     OW12492   2.137   4.385   1.359
70218SOL    HW112493   2.202   4.453   1.344
70218SOL    HW212494   2.066   4.429   1.406
70219SOL     OW12495   3.603   0.553   0.557
70219SOL    HW112496   3.660   0.547   0.481
70219SOL    HW212497   3.571   0.643   0.557
70220SOL     OW12498   3.149   1.704   6.533
70220SOL    HW112499   3.072   1.658   6.499
70220SOL    HW212500   3.222   1.666   6.484
70221SOL     OW12501  11.606   4.274   2.088
70221SOL    HW112502  11.550   4.328   2.031
70221SOL    HW212503  11.639   4.205   2.031
70222SOL     OW12504   7.191   0.422   5.612
70222SOL    HW112505   7.264   0.460   5.562
70222SOL    HW212506   7.177   0.336   5.572
70223SOL     OW12507   8.455   8.097   0.831
70223SOL    HW112508   8.432   8.008   0.805
70223SOL    HW212509   8.373   8.146   0.823
70224SOL     OW12510   2.053   3.017   8.204
70224SOL    HW112511   1.998   3.025   8.126
70224SOL    HW212512   2.009   3.071   8.270
70225SOL     OW12513  11.767   5.995   5.531
70225SOL    HW112514  11.677   5.967   5.513
70225SOL    HW212515  11.799   5.932   5.596
70226SOL     OW12516   4.574   1.090   1.048
70226SOL    HW112517   4.498   1.121   1.098
70226SOL    HW212518   4.642   1.156   1.065
70227SOL     OW12519   6.200  12.639   3.587
70227SOL    HW112520   6.206  12.550   3.552
70227SOL    HW212521   6.286  12.678   3.571
70228SOL     OW12522  12.213   8.811   2.190
70228SOL    HW112523  12.306   8.826   2.204
70228SOL    HW212524  12.170   8.879   2.241
70229SOL     OW12525   1.562  12.703   4.351
70229SOL    HW112526   1.577  12.793   4.381
70229SOL    HW212527   1.532  12.657   4.429
70230SOL     OW12528   5.058   5.714   6.717
70230SOL    HW112529   5.115   5.673   6.782
70230SOL    HW212530   4.983   5.655   6.710
70231SOL     OW12531  13.274   7.923   6.517
70231SOL    HW112532  13.233   7.986   6.457
70231SOL    HW212533  13.275   7.967   6.602
70232SOL     OW12534   0.988  13.481  10.703
70232SOL    HW112535   0.973  13.553  10.642
70232SOL    HW212536   0.908  13.427  10.696
70233SOL     OW12537   0.891   2.757  14.273
70233SOL    HW112538   0.969   2.702  14.268
70233SOL    HW212539   0.835   2.713  14.337
70234SOL     OW12540   3.031  10.114  12.381
70234SOL    HW112541   3.007  10.115  12.289
70234SOL    HW212542   3.122  10.146  12.382
70235SOL     OW12543   1.420   1.561   5.968
70235SOL    HW112544   1.454   1.612   5.894
70235SOL    HW212545   1.346   1.513   5.932
70236SOL     OW12546   3.337   0.695   8.027
70236SOL    HW112547   3.345   0.665   7.937
70236SOL    HW212548   3.299   0.782   8.020
70237SOL     OW12549  11.353  11.594   9.599
70237SOL    HW112550  11.437  11.636   9.614
70237SOL    HW212551  11.355  11.567   9.507
70238SOL     OW12552  14.263   1.027   0.956
70238SOL    HW112553  14.351   1.041   0.921
70238SOL    HW212554  14.255   1.093   1.025
70239SOL     OW12555   1.741   6.936   0.901
70239SOL    HW112556   1.747   6.843   0.880
70239SOL    HW212557   1.647   6.952   0.913
70240SOL     OW12558   9.896  12.496  13.378
70240SOL    HW112559   9.985  12.521  13.349
70240SOL    HW212560   9.895  12.401  13.372
70241SOL     OW12561  12.187  14.481   2.156
70241SOL    HW112562  12.106  14.451   2.197
70241SOL    HW212563  12.183  14.576   2.162
70242SOL     OW12564   9.963   2.086   1.698
70242SOL    HW112565   9.883   2.058   1.742
70242SOL    HW212566  10.015   2.006   1.691
70243SOL     OW12567  12.534  11.312  12.351
70243SOL    HW112568  12.515  11.405  12.357
70243SOL    HW212569  12.551  11.286  12.442
70244SOL     OW12570   0.859   8.103   0.338
70244SOL    HW112571   0.926   8.068   0.397
70244SOL    HW212572   0.828   8.182   0.383
70245SOL     OW12573   6.423   2.523  10.711
70245SOL    HW112574   6.401   2.451  10.770
70245SOL    HW212575   6.519   2.524  10.710
70246SOL     OW12576   1.351  12.577  12.371
70246SOL    HW112577   1.279  12.530  12.329
70246SOL    HW212578   1.417  12.587  12.302
70247SOL     OW12579  11.545  12.598  12.992
70247SOL    HW112580  11.586  12.593  12.905
70247SOL    HW212581  11.524  12.691  13.002
70248SOL     OW12582  13.660   9.919  12.186
70248SOL    HW112583  13.573   9.958  12.184
70248SOL    HW212584  13.717   9.991  12.213
70249SOL     OW12585  12.473   5.895   6.805
70249SOL    HW112586  12.396   5.848   6.839
70249SOL    HW212587  12.539   5.885   6.873
70250SOL     OW12588  10.153  11.644   5.048
70250SOL    HW112589  10.121  11.602   5.128
70250SOL    HW212590  10.091  11.714   5.030
70251SOL     OW12591  14.103   9.962   2.168
70251SOL    HW112592  14.127   9.925   2.083
70251SOL    HW212593  14.017   9.925   2.187
70252SOL     OW12594   2.998  14.740  13.841
70252SOL    HW112595   3.090  14.740  13.815
70252SOL    HW212596   2.959  14.812  13.791
70253SOL     OW12597   9.688   5.497   7.945
70253SOL    HW112598   9.764   5.498   7.887
70253SOL    HW212599   9.653   5.586   7.939
70254SOL     OW12600   4.522   9.744   1.227
70254SOL    HW112601   4.430   9.758   1.203
70254SOL    HW212602   4.558   9.695   1.153
70255SOL     OW12603   8.199  13.614   5.201
70255SOL    HW112604   8.118  13.565   5.215
70255SOL    HW212605   8.182  13.700   5.239
70256SOL     OW12606   9.197   0.324  11.282
70256SOL    HW112607   9.291   0.305  11.286
70256SOL    HW212608   9.191   0.419  11.293
70257SOL     OW12609   0.609   4.657  12.031
70257SOL    HW112610   0.650   4.579  11.994
70257SOL    HW212611   0.655   4.670  12.114
70258SOL     OW12612   4.289   6.213  12.038
70258SOL    HW112613   4.383   6.230  12.038
70258SOL    HW212614   4.275   6.150  11.969
70259SOL     OW12615  11.291   2.202   5.037
70259SOL    HW112616  11.271   2.229   4.947
70259SOL    HW212617  11.209   2.213   5.085
70260SOL     OW12618   2.936   1.162   2.503
70260SOL    HW112619   2.911   1.079   2.463
70260SOL    HW212620   2.855   1.194   2.544
70261SOL     OW12621  13.295   4.373   3.006
70261SOL    HW112622  13.216   4.321   3.015
70261SOL    HW212623  13.265   4.458   2.974
70262SOL     OW12624  13.279   1.786   5.689
70262SOL    HW112625  13.291   1.691   5.696
70262SOL    HW212626  13.187   1.800   5.709
70263SOL     OW12627   1.008   0.086   0.535
70263SOL    HW112628   1.070   0.059   0.468
70263SOL    HW212629   0.922   0.061   0.501
70264SOL     OW12630   4.383   3.197   8.514
70264SOL    HW112631   4.438   3.257   8.565
70264SOL    HW212632   4.380   3.236   8.426
70265SOL     OW12633  12.051   7.957  10.534
70265SOL    HW112634  12.114   8.006  10.481
70265SOL    HW212635  12.069   7.983  10.624
70266SOL     OW12636   4.002   2.984  11.314
70266SOL    HW112637   4.054   3.045  11.365
70266SOL    HW212638   3.973   3.034  11.238
70267SOL     OW12639  11.097  13.478  12.416
70267SOL    HW112640  11.186  13.486  12.382
70267SOL    HW212641  11.057  13.408  12.364
70268SOL     OW12642  13.373  13.845   7.050
70268SOL    HW112643  13.369  13.924   6.996
70268SOL    HW212644  13.342  13.874   7.136
70269SOL     OW12645   0.480   3.577  14.373
70269SOL    HW112646   0.494   3.489  14.340
70269SOL    HW212647   0.492   3.570  14.468
70270SOL     OW12648   6.651  12.828   4.513
70270SOL    HW112649   6.667  12.736   4.492
70270SOL    HW212650   6.695  12.877   4.444
70271SOL     OW12651   9.203   5.878   7.912
70271SOL    HW112652   9.226   5.881   7.819
70271SOL    HW212653   9.288   5.882   7.957
70272SOL     OW12654   9.678   8.678   4.556
70272SOL    HW112655   9.592   8.715   4.540
70272SOL    HW212656   9.713   8.660   4.469
70273SOL     OW12657  13.304  13.357  10.708
70273SOL    HW112658  13.339  13.328  10.624
70273SOL    HW212659  13.334  13.448  10.717
70274SOL     OW12660   9.916   3.096   1.984
70274SOL    HW112661   9.959   3.098   1.898
70274SOL    HW212662   9.924   3.005   2.012
70275SOL     OW12663   8.845   9.480   0.876
70275SOL    HW112664   8.877   9.569   0.858
70275SOL    HW212665   8.766   9.472   0.823
70276SOL     OW12666  10.121   0.881   2.551
70276SOL    HW112667  10.042   0.922   2.514
70276SOL    HW212668  10.143   0.811   2.490
70277SOL     OW12669   9.475  12.624   3.851
70277SOL    HW112670   9.409  12.674   3.899
70277SOL    HW212671   9.485  12.672   3.768
70278SOL     OW12672   1.645   3.757   6.116
70278SOL    HW112673   1.600   3.712   6.045
70278SOL    HW212674   1.707   3.816   6.072
70279SOL     OW12675   5.525   8.233   5.997
70279SOL    HW112676   5.563   8.294   5.934
70279SOL    HW212677   5.480   8.290   6.060
70280SOL     OW12678   5.311   8.126   5.304
70280SOL    HW112679   5.379   8.064   5.279
70280SOL    HW212680   5.344   8.166   5.385
70281SOL     OW12681   7.935   1.708   8.408
70281SOL    HW112682   7.879   1.632   8.392
70281SOL    HW212683   8.006   1.674   8.463
70282SOL     OW12684   9.100   8.989  12.414
70282SOL    HW112685   9.176   9.027  12.458
70282SOL    HW212686   9.099   8.898  12.443
70283SOL     OW12687  12.433   7.821   8.713
70283SOL    HW112688  12.341   7.833   8.688
70283SOL    HW212689  12.483   7.857   8.640
70284SOL     OW12690  11.799   3.605  11.686
70284SOL    HW112691  11.826   3.513  11.683
70284SOL    HW212692  11.831   3.636  11.770
70285SOL     OW12693   1.538   2.823   6.477
70285SOL    HW112694   1.496   2.901   6.443
70285SOL    HW212695   1.577   2.781   6.400
70286SOL     OW12696   1.796   7.404   1.026
70286SOL    HW112697   1.867   7.460   0.993
70286SOL    HW212698   1.802   7.411   1.122
70287SOL     OW12699   7.094  11.048  10.043
70287SOL    HW112700   7.185  11.030  10.023
70287SOL    HW212701   7.085  11.143  10.032
70288SOL     OW12702   5.383   5.241  14.720
70288SOL    HW112703   5.298   5.220  14.759
70288SOL    HW212704   5.363   5.293  14.643
70289SOL     OW12705  11.325   6.971  10.176
70289SOL    HW112706  11.311   6.883  10.142
70289SOL    HW212707  11.419   6.976  10.193
70290SOL     OW12708   2.631   6.005   9.449
70290SOL    HW112709   2.591   6.086   9.416
70290SOL    HW212710   2.634   6.018   9.544
70291SOL     OW12711   8.592   5.511   0.896
70291SOL    HW112712   8.686   5.502   0.909
70291SOL    HW212713   8.568   5.585   0.951
70292SOL     OW12714   5.733  12.298   3.413
70292SOL    HW112715   5.825  12.306   3.388
70292SOL    HW212716   5.709  12.386   3.441
70293SOL     OW12717   2.410   2.842  13.265
70293SOL    HW112718   2.444   2.866  13.351
70293SOL    HW212719   2.470   2.774  13.234
70294SOL     OW12720   8.426   1.061   7.123
70294SOL    HW112721   8.429   1.156   7.134
70294SOL    HW212722   8.405   1.027   7.210
70295SOL     OW12723   4.889   1.544  12.984
70295SOL    HW112724   4.856   1.483  12.918
70295SOL    HW212725   4.812   1.593  13.012
70296SOL     OW12726   2.453   7.473   5.034
70296SOL    HW112727   2.486   7.419   4.962
70296SOL    HW212728   2.358   7.468   5.027
70297SOL     OW12729   2.790   6.562   8.804
70297SOL    HW112730   2.787   6.575   8.709
70297SOL    HW212731   2.772   6.648   8.841
70298SOL     OW12732  12.791   9.252   4.538
70298SOL    HW112733  12.718   9.292   4.491
70298SOL    HW212734  12.781   9.283   4.628
70299SOL     OW12735  13.163  11.680  10.858
70299SOL    HW112736  13.135  11.590  10.846
70299SOL    HW212737  13.248  11.674  10.900
70300SOL     OW12738   0.536   0.712  13.104
70300SOL    HW112739   0.450   0.700  13.064
70300SOL    HW212740   0.597   0.714  13.029
70301SOL     OW12741   2.910   6.068   0.195
70301SOL    HW112742   2.866   6.012   0.259
70301SOL    HW212743   2.883   6.034   0.110
70302SOL     OW12744   0.487  11.791  11.435
70302SOL    HW112745   0.503  11.721  11.372
70302SOL    HW212746   0.573  11.807  11.476
70303SOL     OW12747   2.417   5.335  11.386
70303SOL    HW112748   2.335   5.287  11.377
70303SOL    HW212749   2.419   5.363  11.478
70304SOL     OW12750   7.730   7.257   0.697
70304SOL    HW112751   7.731   7.234   0.604
70304SOL    HW212752   7.820   7.239   0.726
70305SOL     OW12753  10.992   5.851   2.990
70305SOL    HW112754  10.944   5.900   3.057
70305SOL    HW212755  10.977   5.759   3.013
70306SOL     OW12756   0.003  13.375  14.221
70306SOL    HW112757   0.093  13.354  14.197
70306SOL    HW212758  14.835  13.297  14.201
70307SOL     OW12759  12.566   3.209   7.748
70307SOL    HW112760  12.485   3.172   7.786
70307SOL    HW212761  12.620   3.133   7.728
70308SOL     OW12762   9.031   4.915  13.591
70308SOL    HW112763   9.057   4.888  13.504
70308SOL    HW212764   8.963   4.981  13.577
70309SOL     OW12765   4.492   0.910  12.317
70309SOL    HW112766   4.496   0.937  12.225
70309SOL    HW212767   4.568   0.854  12.330
70310SOL     OW12768   9.501   4.733   6.928
70310SOL    HW112769   9.551   4.797   6.877
70310SOL    HW212770   9.532   4.745   7.018
70311SOL     OW12771   2.946   6.140  10.718
70311SOL    HW112772   2.916   6.077  10.652
70311SOL    HW212773   2.931   6.097  10.802
70312SOL     OW12774   0.081  11.043   1.454
70312SOL    HW112775   0.123  11.089   1.526
70312SOL    HW212776   0.011  11.102   1.425
70313SOL     OW12777   5.564   8.676   8.166
70313SOL    HW112778   5.571   8.685   8.071
70313SOL    HW212779   5.655   8.682   8.197
70314SOL     OW12780   3.568   5.659   3.325
70314SOL    HW112781   3.605   5.650   3.238
70314SOL    HW212782   3.553   5.569   3.354
70315SOL     OW12783  12.262  11.297   1.892
70315SOL    HW112784  12.333  11.359   1.878
70315SOL    HW212785  12.197  11.318   1.825
70316SOL     OW12786  10.312   6.993  13.074
70316SOL    HW112787  10.273   7.049  13.141
70316SOL    HW212788  10.244   6.929  13.053
70317SOL     OW12789   6.114  14.271   2.941
70317SOL    HW112790   6.181  14.306   2.882
70317SOL    HW212791   6.097  14.342   3.003
70318SOL     OW12792   0.014  10.386   7.708
70318SOL    HW112793   0.049  10.413   7.623
70318SOL    HW212794   0.088  10.392   7.768
70319SOL     OW12795   2.636   5.907  14.076
70319SOL    HW112796   2.704   5.900  14.143
70319SOL    HW212797   2.594   5.991  14.093
70320SOL     OW12798   0.743  11.964   7.292
70320SOL    HW112799   0.780  11.998   7.373
70320SOL    HW212800   0.683  12.032   7.261
70321SOL     OW12801  13.469   2.764   2.870
70321SOL    HW112802  13.560   2.757   2.899
70321SOL    HW212803  13.468   2.720   2.785
70322SOL     OW12804  11.312   8.329   1.694
70322SOL    HW112805  11.267   8.379   1.626
70322SOL    HW212806  11.398   8.310   1.658
70323SOL     OW12807  12.954   9.668   4.656
70323SOL    HW112808  12.862   9.648   4.641
70323SOL    HW212809  12.997   9.582   4.657
70324SOL     OW12810   3.466   9.213   3.393
70324SOL    HW112811   3.444   9.121   3.378
70324SOL    HW212812   3.389   9.249   3.437
70325SOL     OW12813   4.654  13.934   8.749
70325SOL    HW112814   4.689  13.947   8.837
70325SOL    HW212815   4.563  13.908   8.763
70326SOL     OW12816  11.032   5.282   8.439
70326SOL    HW112817  11.072   5.212   8.490
70326SOL    HW212818  11.009   5.242   8.355
70327SOL     OW12819   1.099   2.066  12.522
70327SOL    HW112820   1.011   2.104  12.534
70327SOL    HW212821   1.082   1.976  12.495
70328SOL     OW12822   7.244   3.283   1.935
70328SOL    HW112823   7.289   3.358   1.895
70328SOL    HW212824   7.184   3.323   1.999
70329SOL     OW12825   8.055   3.432  13.265
70329SOL    HW112826   8.013   3.361  13.217
70329SOL    HW212827   8.138   3.448  13.219
70330SOL     OW12828   7.420   1.425   0.547
70330SOL    HW112829   7.346   1.419   0.607
70330SOL    HW212830   7.404   1.504   0.497
70331SOL     OW12831   1.488   3.816   4.779
70331SOL    HW112832   1.563   3.798   4.722
70331SOL    HW212833   1.483   3.912   4.783
70332SOL     OW12834   6.681  12.961  14.017
70332SOL    HW112835   6.601  12.998  14.053
70332SOL    HW212836   6.748  12.983  14.082
70333SOL     OW12837  10.208   6.144  14.744
70333SOL    HW112838  10.135   6.117  14.800
70333SOL    HW212839  10.285   6.133  14.800
70334SOL     OW12840  11.349   2.930   4.926
70334SOL    HW112841  11.396   2.846   4.930
70334SOL    HW212842  11.287   2.919   4.854
70335SOL     OW12843   2.093   1.880  10.766
70335SOL    HW112844   2.020   1.884  10.705
70335SOL    HW212845   2.097   1.788  10.792
70336SOL     OW12846  10.348   1.908  14.504
70336SOL    HW112847  10.397   1.982  14.468
70336SOL    HW212848  10.268   1.905  14.451
70337SOL     OW12849   1.777  14.746   7.599
70337SOL    HW112850   1.762  14.732   7.506
70337SOL    HW212851   1.729  14.827   7.619
70338SOL     OW12852  12.619   3.957   9.661
70338SOL    HW112853  12.559   4.006   9.717
70338SOL    HW212854  12.703   3.961   9.707
70339SOL     OW12855  12.580   0.664  13.422
70339SOL    HW112856  12.494   0.697  13.394
70339SOL    HW212857  12.602   0.596  13.358
70340SOL     OW12858   0.325   8.012  13.798
70340SOL    HW112859   0.238   8.052  13.784
70340SOL    HW212860   0.330   7.943  13.732
70341SOL     OW12861   3.979  13.454   4.383
70341SOL    HW112862   3.911  13.396   4.349
70341SOL    HW212863   3.939  13.541   4.385
70342SOL     OW12864   5.209   3.969   7.660
70342SOL    HW112865   5.191   3.986   7.567
70342SOL    HW212866   5.252   3.883   7.660
70343SOL     OW12867  12.479   8.668  14.499
70343SOL    HW112868  12.387   8.675  14.474
70343SOL    HW212869  12.500   8.754  14.537
70344SOL     OW12870  12.488   0.674  14.469
70344SOL    HW112871  12.445   0.755  14.493
70344SOL    HW212872  12.483   0.619  14.547
70345SOL     OW12873  14.858   8.735   4.627
70345SOL    HW112874  14.873   8.676   4.701
70345SOL    HW212875  14.880   8.822   4.661
70346SOL     OW12876  13.321   4.798  14.365
70346SOL    HW112877  13.245   4.822  14.419
70346SOL    HW212878  13.304   4.838  14.280
70347SOL     OW12879   3.162   9.222   7.081
70347SOL    HW112880   3.216   9.166   7.025
70347SOL    HW212881   3.082   9.172   7.095
70348SOL     OW12882   4.500   4.900   0.272
70348SOL    HW112883   4.446   4.862   0.342
70348SOL    HW212884   4.437   4.938   0.211
70349SOL     OW12885  14.554   9.163   9.320
70349SOL    HW112886  14.523   9.095   9.260
70349SOL    HW212887  14.509   9.242   9.292
70350SOL     OW12888   8.573   2.894   1.171
70350SOL    HW112889   8.620   2.848   1.240
70350SOL    HW212890   8.575   2.834   1.096
70351SOL     OW12891   3.094   1.505   5.172
70351SOL    HW112892   3.109   1.420   5.214
70351SOL    HW212893   3.148   1.502   5.093
70352SOL     OW12894  14.432   6.396  10.860
70352SOL    HW112895  14.519   6.431  10.841
70352SOL    HW212896  14.390   6.388  10.775
70353SOL     OW12897   8.902  13.983  11.860
70353SOL    HW112898   8.823  13.954  11.906
70353SOL    HW212899   8.972  13.927  11.894
70354SOL     OW12900   8.453  11.246   8.991
70354SOL    HW112901   8.518  11.192   8.945
70354SOL    HW212902   8.503  11.296   9.054
70355SOL     OW12903   7.585   8.869  12.547
70355SOL    HW112904   7.491   8.856  12.541
70355SOL    HW212905   7.596   8.963  12.556
70356SOL     OW12906   5.127   6.393   6.791
70356SOL    HW112907   5.080   6.313   6.813
70356SOL    HW212908   5.213   6.382   6.832
70357SOL     OW12909   9.847   3.983   5.479
70357SOL    HW112910   9.760   3.971   5.517
70357SOL    HW212911   9.907   3.973   5.553
70358SOL     OW12912   8.550  14.460   9.416
70358SOL    HW112913   8.622  14.399   9.400
70358SOL    HW212914   8.480  14.429   9.359
70359SOL     OW12915   2.935  14.086  12.916
70359SOL    HW112916   2.929  14.065  13.009
70359SOL    HW212917   2.923  14.180  12.911
70360SOL     OW12918   5.288  14.073   1.804
70360SOL    HW112919   5.244  13.989   1.800
70360SOL    HW212920   5.292  14.095   1.897
70361SOL     OW12921   4.063   6.347   2.996
70361SOL    HW112922   4.087   6.256   3.013
70361SOL    HW212923   3.972   6.354   3.025
70362SOL     OW12924   1.233  11.982   8.824
70362SOL    HW112925   1.167  12.032   8.776
70362SOL    HW212926   1.316  12.005   8.783
70363SOL     OW12927  10.707   1.199  10.094
70363SOL    HW112928  10.781   1.140  10.077
70363SOL    HW212929  10.740   1.260  10.160
70364SOL     OW12930   9.373  10.382   0.808
70364SOL    HW112931   9.308  10.428   0.861
70364SOL    HW212932   9.323  10.348   0.733
70365SOL     OW12933   3.181   7.591   5.078
70365SOL    HW112934   3.090   7.583   5.048
70365SOL    HW212935   3.174   7.614   5.171
70366SOL     OW12936  13.478   4.819   9.396
70366SOL    HW112937  13.522   4.741   9.362
70366SOL    HW212938  13.504   4.822   9.488
70367SOL     OW12939  11.671  13.195  13.437
70367SOL    HW112940  11.710  13.108  13.448
70367SOL    HW212941  11.589  13.180  13.390
70368SOL     OW12942  14.854   8.827  10.960
70368SOL    HW112943   0.019   8.777  10.893
70368SOL    HW212944  14.772   8.780  10.972
70369SOL     OW12945   4.229   3.657   2.066
70369SOL    HW112946   4.202   3.671   2.156
70369SOL    HW212947   4.292   3.727   2.048
70370SOL     OW12948  11.386   2.819   4.546
70370SOL    HW112949  11.428   2.733   4.541
70370SOL    HW212950  11.458   2.880   4.564
70371SOL     OW12951   0.573  12.162   4.276
70371SOL    HW112952   0.660  12.201   4.292
70371SOL    HW212953   0.581  12.121   4.189
70372SOL     OW12954   2.143   9.380   3.613
70372SOL    HW112955   2.176   9.469   3.601
70372SOL    HW212956   2.183   9.330   3.542
70373SOL     OW12957   7.796  10.826   6.367
70373SOL    HW112958   7.754  10.782   6.293
70373SOL    HW212959   7.876  10.863   6.330
70374SOL     OW12960   3.358   1.261   3.466
70374SOL    HW112961   3.445   1.300   3.466
70374SOL    HW212962   3.363   1.191   3.532
70375SOL     OW12963   8.776   1.302  10.603
70375SOL    HW112964   8.699   1.356  10.617
70375SOL    HW212965   8.829   1.316  10.682
70376SOL     OW12966   2.124  13.925  13.159
70376SOL    HW112967   2.141  13.973  13.240
70376SOL    HW212968   2.195  13.951  13.100
70377SOL     OW12969  13.326   2.928  14.554
70377SOL    HW112970  13.414   2.898  14.532
70377SOL    HW212971  13.327   2.937  14.649
70378SOL     OW12972  14.714   6.506   4.184
70378SOL    HW112973  14.735   6.575   4.121
70378SOL    HW212974  14.769   6.432   4.157
70379SOL     OW12975   7.114   9.562   3.353
70379SOL    HW112976   7.119   9.612   3.434
70379SOL    HW212977   7.184   9.596   3.298
70380SOL     OW12978   8.481  11.922   4.848
70380SOL    HW112979   8.520  11.835   4.859
70380SOL    HW212980   8.387  11.907   4.849
70381SOL     OW12981  13.905  12.855   1.471
70381SOL    HW112982  13.857  12.787   1.424
70381SOL    HW212983  13.996  12.842   1.447
70382SOL     OW12984   3.767  10.037   3.491
70382SOL    HW112985   3.764  10.053   3.397
70382SOL    HW212986   3.778  10.125   3.530
70383SOL     OW12987  12.906   2.953  14.186
70383SOL    HW112988  12.880   3.001  14.107
70383SOL    HW212989  12.894   2.860  14.163
70384SOL     OW12990   4.128  11.107  13.349
70384SOL    HW112991   4.212  11.134  13.312
70384SOL    HW212992   4.083  11.064  13.277
70385SOL     OW12993   3.184   5.131   9.915
70385SOL    HW112994   3.158   5.116  10.006
70385SOL    HW212995   3.268   5.177   9.922
70386SOL     OW12996   6.673  10.742   1.521
70386SOL    HW112997   6.580  10.742   1.545
70386SOL    HW212998   6.716  10.788   1.594
70387SOL     OW12999  10.256   1.509   4.319
70387SOL    HW113000  10.335   1.456   4.312
70387SOL    HW213001  10.215   1.482   4.401
70388SOL     OW13002  12.298   2.561   4.490
70388SOL    HW113003  12.388   2.592   4.498
70388SOL    HW213004  12.248   2.639   4.467
70389SOL     OW13005   8.268  13.470   9.596
70389SOL    HW113006   8.203  13.400   9.601
70389SOL    HW213007   8.237  13.536   9.658
70390SOL     OW13008   0.169   5.872   2.115
70390SOL    HW113009   0.090   5.822   2.131
70390SOL    HW213010   0.142   5.942   2.056
70391SOL     OW13011   1.954   6.390   8.399
70391SOL    HW113012   1.968   6.483   8.414
70391SOL    HW213013   1.860   6.382   8.386
70392SOL     OW13014   3.640   7.744   4.441
70392SOL    HW113015   3.570   7.718   4.501
70392SOL    HW213016   3.629   7.839   4.431
70393SOL     OW13017   5.150   2.984   2.585
70393SOL    HW113018   5.222   2.983   2.522
70393SOL    HW213019   5.089   2.917   2.552
70394SOL     OW13020   1.153   2.780   2.655
70394SOL    HW113021   1.198   2.864   2.648
70394SOL    HW213022   1.132   2.772   2.748
70395SOL     OW13023  13.389   0.862   6.992
70395SOL    HW113024  13.480   0.890   6.986
70395SOL    HW213025  13.338   0.938   6.964
70396SOL     OW13026  12.078  10.093   1.713
70396SOL    HW113027  12.128  10.175   1.717
70396SOL    HW213028  12.004  10.107   1.772
70397SOL     OW13029   3.093  12.259  13.692
70397SOL    HW113030   3.136  12.245  13.777
70397SOL    HW213031   3.001  12.272  13.713
70398SOL     OW13032   7.226  14.325  13.804
70398SOL    HW113033   7.275  14.251  13.769
70398SOL    HW213034   7.135  14.301  13.793
70399SOL     OW13035  13.293  12.378  11.901
70399SOL    HW113036  13.238  12.387  11.823
70399SOL    HW213037  13.374  12.340  11.868
70400SOL     OW13038  11.901   7.275  13.617
70400SOL    HW113039  11.983   7.306  13.578
70400SOL    HW213040  11.861   7.354  13.654
70401SOL     OW13041   9.343  14.333  14.043
70401SOL    HW113042   9.298  14.291  14.116
70401SOL    HW213043   9.320  14.280  13.967
70402SOL     OW13044   4.051   8.740  12.088
70402SOL    HW113045   3.972   8.748  12.142
70402SOL    HW213046   4.018   8.714  12.002
70403SOL     OW13047   4.096   3.102   4.927
70403SOL    HW113048   4.047   3.028   4.892
70403SOL    HW213049   4.101   3.086   5.021
70404SOL     OW13050   5.976  11.381   1.492
70404SOL    HW113051   6.064  11.417   1.503
70404SOL    HW213052   5.917  11.455   1.505
70405SOL     OW13053   9.341   6.858  12.389
70405SOL    HW113054   9.435   6.878  12.394
70405SOL    HW213055   9.298   6.942  12.407
70406SOL     OW13056   4.583   8.056  11.124
70406SOL    HW113057   4.588   8.127  11.061
70406SOL    HW213058   4.496   8.017  11.111
70407SOL     OW13059   8.639   4.364   0.027
70407SOL    HW113060   8.572   4.299   0.050
70407SOL    HW213061   8.721   4.326   0.059
70408SOL     OW13062  14.627   2.149   5.922
70408SOL    HW113063  14.632   2.054   5.911
70408SOL    HW213064  14.704   2.183   5.875
70409SOL     OW13065  12.169   0.589   9.335
70409SOL    HW113066  12.081   0.623   9.352
70409SOL    HW213067  12.204   0.648   9.268
70410SOL     OW13068  11.392   1.281  13.357
70410SOL    HW113069  11.410   1.373  13.377
70410SOL    HW213070  11.454   1.232  13.412
70411SOL     OW13071   2.952   8.830  12.782
70411SOL    HW113072   3.025   8.864  12.833
70411SOL    HW213073   2.881   8.821  12.846
70412SOL     OW13074   7.400   1.296   1.430
70412SOL    HW113075   7.450   1.218   1.453
70412SOL    HW213076   7.320   1.262   1.390
70413SOL     OW13077   6.073  12.650   1.821
70413SOL    HW113078   6.036  12.602   1.895
70413SOL    HW213079   6.019  12.729   1.813
70414SOL     OW13080   7.588  11.480   0.012
70414SOL    HW113081   7.556  11.441  14.812
70414SOL    HW213082   7.596  11.406   0.072
70415SOL     OW13083  10.195   2.853   0.387
70415SOL    HW113084  10.286   2.838   0.360
70415SOL    HW213085  10.202   2.877   0.479
70416SOL     OW13086   7.413  10.890   3.190
70416SOL    HW113087   7.331  10.938   3.179
70416SOL    HW213088   7.441  10.869   3.100
70417SOL     OW13089   3.562  14.185   3.530
70417SOL    HW113090   3.474  14.170   3.495
70417SOL    HW213091   3.590  14.267   3.488
70418SOL     OW13092  12.362  13.436  10.762
70418SOL    HW113093  12.283  13.490  10.773
70418SOL    HW213094  12.385  13.447  10.669
70419SOL     OW13095   5.717   7.909   6.859
70419SOL    HW113096   5.755   7.858   6.788
70419SOL    HW213097   5.741   7.862   6.938
70420SOL     OW13098   4.836   9.000  12.574
70420SOL    HW113099   4.863   8.970  12.660
70420SOL    HW213100   4.798   9.087  12.590
70421SOL     OW13101  12.079   2.533   9.155
70421SOL    HW113102  12.070   2.626   9.136
70421SOL    HW213103  12.047   2.524   9.245
70422SOL     OW13104   9.995   6.396  10.689
70422SOL    HW113105  10.005   6.348  10.607
70422SOL    HW213106   9.969   6.329  10.753
70423SOL     OW13107   3.063   2.203   2.590
70423SOL    HW113108   2.988   2.161   2.549
70423SOL    HW213109   3.032   2.233   2.675
70424SOL     OW13110  11.242   7.735   5.091
70424SOL    HW113111  11.185   7.661   5.070
70424SOL    HW213112  11.236   7.744   5.186
70425SOL     OW13113   3.481  12.749   1.667
70425SOL    HW113114   3.409  12.790   1.715
70425SOL    HW213115   3.476  12.787   1.580
70426SOL     OW13116  11.879   4.340   1.673
70426SOL    HW113117  11.875   4.433   1.696
70426SOL    HW213118  11.972   4.323   1.660
70427SOL     OW13119  12.158  13.393  13.840
70427SOL    HW113120  12.065  13.385  13.863
70427SOL    HW213121  12.200  13.320  13.887
70428SOL     OW13122   5.468  12.936   5.972
70428SOL    HW113123   5.380  12.961   5.999
70428SOL    HW213124   5.522  12.954   6.049
70429SOL     OW13125   1.192   1.574   0.043
70429SOL    HW113126   1.219   1.485   0.020
70429SOL    HW213127   1.246   1.631  14.869
70430SOL     OW13128  14.290   5.434  14.532
70430SOL    HW113129  14.233   5.510  14.519
70430SOL    HW213130  14.363   5.449  14.471
70431SOL     OW13131  12.531   8.821  11.378
70431SOL    HW113132  12.459   8.823  11.316
70431SOL    HW213133  12.513   8.893  11.439
70432SOL     OW13134  13.362   9.625  11.947
70432SOL    HW113135  13.442   9.668  11.979
70432SOL    HW213136  13.308   9.615  12.025
70433SOL     OW13137   9.299   6.862  11.846
70433SOL    HW113138   9.290   6.844  11.939
70433SOL    HW213139   9.212   6.848  11.810
70434SOL     OW13140   2.331   4.185   6.357
70434SOL    HW113141   2.346   4.094   6.382
70434SOL    HW213142   2.247   4.184   6.312
70435SOL     OW13143   8.588   0.637   3.002
70435SOL    HW113144   8.616   0.630   3.094
70435SOL    HW213145   8.493   0.649   3.007
70436SOL     OW13146   1.001  13.713   4.773
70436SOL    HW113147   0.970  13.763   4.849
70436SOL    HW213148   0.958  13.627   4.783
70437SOL     OW13149   1.105   7.909  14.237
70437SOL    HW113150   1.102   8.004  14.227
70437SOL    HW213151   1.063   7.892  14.321
70438SOL     OW13152   1.708  14.471   1.158
70438SOL    HW113153   1.639  14.499   1.218
70438SOL    HW213154   1.770  14.424   1.213
70439SOL     OW13155  12.116   0.404  14.740
70439SOL    HW113156  12.146   0.490  14.771
70439SOL    HW213157  12.161   0.393  14.655
70440SOL     OW13158  10.909   2.477   5.284
70440SOL    HW113159  10.940   2.561   5.320
70440SOL    HW213160  10.870   2.500   5.200
70441SOL     OW13161   5.022   9.970   3.554
70441SOL    HW113162   4.940   9.962   3.505
70441SOL    HW213163   5.070  10.040   3.511
70442SOL     OW13164  12.841   3.363   9.897
70442SOL    HW113165  12.925   3.319   9.910
70442SOL    HW213166  12.813   3.386   9.986
70443SOL     OW13167   3.093   6.993   8.675
70443SOL    HW113168   3.113   6.899   8.670
70443SOL    HW213169   3.126   7.028   8.592
70444SOL     OW13170   8.717  10.947   0.128
70444SOL    HW113171   8.713  10.954   0.224
70444SOL    HW213172   8.735  11.037   0.099
70445SOL     OW13173  14.487  11.762   4.203
70445SOL    HW113174  14.417  11.704   4.231
70445SOL    HW213175  14.482  11.837   4.262
70446SOL     OW13176   0.786  11.610   7.405
70446SOL    HW113177   0.782  11.547   7.477
70446SOL    HW213178   0.875  11.646   7.409
70447SOL     OW13179   4.748  10.211   6.710
70447SOL    HW113180   4.822  10.254   6.753
70447SOL    HW213181   4.732  10.132   6.762
70448SOL     OW13182   2.482   8.167  11.616
70448SOL    HW113183   2.549   8.227  11.581
70448SOL    HW213184   2.519   8.136  11.698
70449SOL     OW13185  11.380   8.211   5.122
70449SOL    HW113186  11.315   8.239   5.057
70449SOL    HW213187  11.386   8.117   5.110
70450SOL     OW13188   7.444  13.398   8.636
70450SOL    HW113189   7.520  13.341   8.624
70450SOL    HW213190   7.439  13.412   8.731
70451SOL     OW13191   4.138  11.898   6.113
70451SOL    HW113192   4.199  11.828   6.139
70451SOL    HW213193   4.072  11.898   6.182
70452SOL     OW13194  11.286  10.046   9.864
70452SOL    HW113195  11.350  10.094   9.812
70452SOL    HW213196  11.246  10.112   9.921
70453SOL     OW13197   4.974  11.539   2.637
70453SOL    HW113198   5.011  11.624   2.661
70453SOL    HW213199   4.893  11.533   2.687
70454SOL     OW13200   9.942   9.176   7.828
70454SOL    HW113201   9.952   9.081   7.834
70454SOL    HW213202   9.957   9.195   7.735
70455SOL     OW13203   9.874   4.685   6.620
70455SOL    HW113204   9.880   4.700   6.715
70455SOL    HW213205   9.900   4.769   6.581
70456SOL     OW13206   4.870   0.731   6.948
70456SOL    HW113207   4.830   0.806   6.992
70456SOL    HW213208   4.800   0.694   6.895
70457SOL     OW13209   2.216   1.924  11.720
70457SOL    HW113210   2.262   1.859  11.668
70457SOL    HW213211   2.215   1.887  11.809
70458SOL     OW13212   4.972  12.402  11.959
70458SOL    HW113213   4.929  12.317  11.946
70458SOL    HW213214   5.062  12.380  11.979
70459SOL     OW13215   5.132  12.080   2.870
70459SOL    HW113216   5.172  12.013   2.815
70459SOL    HW213217   5.177  12.161   2.846
70460SOL     OW13218  12.028   2.344   1.578
70460SOL    HW113219  11.976   2.334   1.657
70460SOL    HW213220  11.966   2.333   1.506
70461SOL     OW13221   2.991   1.694   9.302
70461SOL    HW113222   3.049   1.755   9.348
70461SOL    HW213223   3.007   1.610   9.344
70462SOL     OW13224  11.058   0.640   0.837
70462SOL    HW113225  10.968   0.607   0.842
70462SOL    HW213226  11.098   0.612   0.920
70463SOL     OW13227  10.784  13.099  12.949
70463SOL    HW113228  10.709  13.042  12.931
70463SOL    HW213229  10.811  13.132  12.863
70464SOL     OW13230   8.042   5.184  13.609
70464SOL    HW113231   8.061   5.091  13.602
70464SOL    HW213232   7.948   5.191  13.596
70465SOL     OW13233   3.988   7.768  13.464
70465SOL    HW113234   3.923   7.698  13.477
70465SOL    HW213235   4.017   7.789  13.553
70466SOL     OW13236  10.438  13.134   4.632
70466SOL    HW113237  10.389  13.093   4.703
70466SOL    HW213238  10.522  13.089   4.631
70467SOL     OW13239   6.490  14.243  14.716
70467SOL    HW113240   6.401  14.214  14.698
70467SOL    HW213241   6.533  14.167  14.755
70468SOL     OW13242  11.154   0.537  11.535
70468SOL    HW113243  11.087   0.470  11.524
70468SOL    HW213244  11.217   0.520  11.464
70469SOL     OW13245   3.618   0.160  13.033
70469SOL    HW113246   3.556   0.124  12.969
70469SOL    HW213247   3.694   0.185  12.980
70470SOL     OW13248   0.139   3.098   7.845
70470SOL    HW113249   0.223   3.112   7.888
70470SOL    HW213250   0.090   3.042   7.905
70471SOL     OW13251  13.494   3.237  13.478
70471SOL    HW113252  13.581   3.273  13.494
70471SOL    HW213253  13.497   3.149  13.515
70472SOL     OW13254   0.424  11.711   7.655
70472SOL    HW113255   0.501  11.682   7.704
70472SOL    HW213256   0.430  11.664   7.572
70473SOL     OW13257   4.643  10.057   1.073
70473SOL    HW113258   4.553  10.032   1.055
70473SOL    HW213259   4.691   9.974   1.079
70474SOL     OW13260  10.193  13.056   1.195
70474SOL    HW113261  10.118  13.103   1.161
70474SOL    HW213262  10.227  13.007   1.120
70475SOL     OW13263   6.736   3.567   1.263
70475SOL    HW113264   6.780   3.618   1.331
70475SOL    HW213265   6.656   3.615   1.246
70476SOL     OW13266  10.047   0.638  14.087
70476SOL    HW113267  10.090   0.573  14.141
70476SOL    HW213268   9.972   0.667  14.139
70477SOL     OW13269   0.236  13.876  12.188
70477SOL    HW113270   0.173  13.896  12.119
70477SOL    HW213271   0.257  13.961  12.226
70478SOL     OW13272   8.075  11.086  10.607
70478SOL    HW113273   8.030  11.106  10.689
70478SOL    HW213274   8.012  11.110  10.538
70479SOL     OW13275   2.499   5.555   1.881
70479SOL    HW113276   2.427   5.575   1.821
70479SOL    HW213277   2.459   5.556   1.968
70480SOL     OW13278   2.073  12.648   5.193
70480SOL    HW113279   2.090  12.723   5.136
70480SOL    HW213280   1.998  12.604   5.152
70481SOL     OW13281   2.802  14.706  11.928
70481SOL    HW113282   2.782  14.744  11.843
70481SOL    HW213283   2.725  14.655  11.951
70482SOL     OW13284   4.947   4.815   7.084
70482SOL    HW113285   4.936   4.733   7.132
70482SOL    HW213286   4.923   4.793   6.994
70483SOL     OW13287   1.333   1.374   5.481
70483SOL    HW113288   1.309   1.338   5.566
70483SOL    HW213289   1.262   1.434   5.459
70484SOL     OW13290  12.485  11.834  13.370
70484SOL    HW113291  12.579  11.822  13.383
70484SOL    HW213292  12.448  11.747  13.380
70485SOL     OW13293  10.601   9.132   8.127
70485SOL    HW113294  10.598   9.218   8.085
70485SOL    HW213295  10.572   9.148   8.217
70486SOL     OW13296   6.138   9.259  10.191
70486SOL    HW113297   6.108   9.184  10.241
70486SOL    HW213298   6.232   9.245  10.178
70487SOL     OW13299  10.435   6.826   4.692
70487SOL    HW113300  10.472   6.754   4.640
70487SOL    HW213301  10.375   6.870   4.632
70488SOL     OW13302   1.046   1.467   9.538
70488SOL    HW113303   1.102   1.413   9.594
70488SOL    HW213304   1.107   1.511   9.478
70489SOL     OW13305   8.321  11.638   4.248
70489SOL    HW113306   8.376  11.675   4.179
70489SOL    HW213307   8.239  11.686   4.242
70490SOL     OW13308   6.947   1.825  13.072
70490SOL    HW113309   6.879   1.846  13.008
70490SOL    HW213310   6.946   1.899  13.133
70491SOL     OW13311   5.160   5.836   8.839
70491SOL    HW113312   5.105   5.822   8.916
70491SOL    HW213313   5.231   5.773   8.847
70492SOL     OW13314   1.450   3.039   6.238
70492SOL    HW113315   1.512   3.047   6.166
70492SOL    HW213316   1.425   3.129   6.259
70493SOL     OW13317   5.348   7.332  12.652
70493SOL    HW113318   5.397   7.283  12.586
70493SOL    HW213319   5.353   7.423  12.622
70494SOL     OW13320   1.166   6.199   5.638
70494SOL    HW113321   1.218   6.266   5.683
70494SOL    HW213322   1.156   6.233   5.549
70495SOL     OW13323  11.445   5.490  10.423
70495SOL    HW113324  11.456   5.497  10.329
70495SOL    HW213325  11.513   5.546  10.460
70496SOL     OW13326  14.625   3.047  14.246
70496SOL    HW113327  14.719   3.062  14.255
70496SOL    HW213328  14.617   2.954  14.225
70497SOL     OW13329  13.817  12.196  11.294
70497SOL    HW113330  13.828  12.180  11.200
70497SOL    HW213331  13.896  12.243  11.320
70498SOL     OW13332   0.343   4.402  14.493
70498SOL    HW113333   0.398   4.445  14.559
70498SOL    HW213334   0.345   4.310  14.518
70499SOL     OW13335   3.321   5.402  12.806
70499SOL    HW113336   3.306   5.481  12.857
70499SOL    HW213337   3.258   5.338  12.840
70500SOL     OW13338  10.148   3.396   5.753
70500SOL    HW113339  10.170   3.489   5.759
70500SOL    HW213340  10.154   3.364   5.843
70501SOL     OW13341  13.955  14.123   2.563
70501SOL    HW113342  13.960  14.184   2.489
70501SOL    HW213343  13.897  14.053   2.532
70502SOL     OW13344   3.984   0.818   2.156
70502SOL    HW113345   3.994   0.809   2.251
70502SOL    HW213346   3.904   0.870   2.146
70503SOL     OW13347   5.578   0.287   4.438
70503SOL    HW113348   5.504   0.326   4.391
70503SOL    HW213349   5.546   0.276   4.528
70504SOL     OW13350   6.252  10.509   1.492
70504SOL    HW113351   6.322  10.456   1.530
70504SOL    HW213352   6.196  10.447   1.446
70505SOL     OW13353   2.027   3.406   9.099
70505SOL    HW113354   1.982   3.429   9.018
70505SOL    HW213355   2.085   3.334   9.075
70506SOL     OW13356   7.372  11.049   3.568
70506SOL    HW113357   7.308  11.056   3.639
70506SOL    HW213358   7.397  10.956   3.568
70507SOL     OW13359   4.071   4.524  11.276
70507SOL    HW113360   4.163   4.540  11.293
70507SOL    HW213361   4.038   4.486  11.358
70508SOL     OW13362   6.998   0.019   4.081
70508SOL    HW113363   6.991   0.001   3.987
70508SOL    HW213364   6.910   0.048   4.106
70509SOL     OW13365   8.407   7.407   8.079
70509SOL    HW113366   8.441   7.483   8.126
70509SOL    HW213367   8.312   7.418   8.079
70510SOL     OW13368   5.595   8.071  10.901
70510SOL    HW113369   5.515   8.103  10.943
70510SOL    HW213370   5.657   8.058  10.973
70511SOL     OW13371   6.499  13.275   8.138
70511SOL    HW113372   6.572  13.332   8.113
70511SOL    HW213373   6.434  13.288   8.069
70512SOL     OW13374   9.976  13.288   1.565
70512SOL    HW113375  10.063  13.266   1.599
70512SOL    HW213376   9.960  13.223   1.496
70513SOL     OW13377  10.895   4.800   9.746
70513SOL    HW113378  10.958   4.789   9.817
70513SOL    HW213379  10.908   4.724   9.690
70514SOL     OW13380  10.672  12.959   8.630
70514SOL    HW113381  10.694  13.051   8.618
70514SOL    HW213382  10.615  12.958   8.707
70515SOL     OW13383  11.158  14.579   8.120
70515SOL    HW113384  11.153  14.484   8.119
70515SOL    HW213385  11.119  14.607   8.037
70516SOL     OW13386   4.119   4.149   9.439
70516SOL    HW113387   4.076   4.086   9.496
70516SOL    HW213388   4.063   4.226   9.442
70517SOL     OW13389   7.054   7.999  13.302
70517SOL    HW113390   7.050   8.065  13.371
70517SOL    HW213391   6.970   7.954  13.306
70518SOL     OW13392  14.787   2.778   1.408
70518SOL    HW113393  14.736   2.706   1.446
70518SOL    HW213394  14.842   2.808   1.480
70519SOL     OW13395   9.535  13.659   6.155
70519SOL    HW113396   9.581  13.730   6.199
70519SOL    HW213397   9.481  13.619   6.223
70520SOL     OW13398  10.042  13.822  13.034
70520SOL    HW113399  10.111  13.779  13.085
70520SOL    HW213400  10.020  13.899  13.085
70521SOL     OW13401  11.160   9.812   8.723
70521SOL    HW113402  11.069   9.798   8.696
70521SOL    HW213403  11.202   9.726   8.713
70522SOL     OW13404   3.707  12.911   6.740
70522SOL    HW113405   3.781  12.954   6.784
70522SOL    HW213406   3.747  12.865   6.666
70523SOL     OW13407  13.803  10.705   1.329
70523SOL    HW113408  13.802  10.755   1.410
70523SOL    HW213409  13.749  10.755   1.268
70524SOL     OW13410   3.295  10.112  12.715
70524SOL    HW113411   3.321  10.204  12.708
70524SOL    HW213412   3.374  10.067  12.746
70525SOL     OW13413   0.759   7.425   4.778
70525SOL    HW113414   0.791   7.429   4.868
70525SOL    HW213415   0.785   7.338   4.747
70526SOL     OW13416   9.068   2.297   2.486
70526SOL    HW113417   9.015   2.310   2.408
70526SOL    HW213418   9.131   2.370   2.485
70527SOL     OW13419  13.668  13.073   9.538
70527SOL    HW113420  13.754  13.032   9.546
70527SOL    HW213421  13.640  13.054   9.449
70528SOL     OW13422  14.049   9.459   4.725
70528SOL    HW113423  14.035   9.373   4.764
70528SOL    HW213424  14.023   9.521   4.794
70529SOL     OW13425   3.515   7.518   2.339
70529SOL    HW113426   3.512   7.501   2.433
70529SOL    HW213427   3.491   7.434   2.299
70530SOL     OW13428  13.775   9.527   5.957
70530SOL    HW113429  13.715   9.582   5.907
70530SOL    HW213430  13.718   9.477   6.016
70531SOL     OW13431   8.394   8.105   6.819
70531SOL    HW113432   8.367   8.182   6.869
70531SOL    HW213433   8.481   8.128   6.785
70532SOL     OW13434  13.217   5.344   3.475
70532SOL    HW113435  13.228   5.256   3.438
70532SOL    HW213436  13.182   5.328   3.563
70533SOL     OW13437   6.156   8.131   4.822
70533SOL    HW113438   6.127   8.124   4.731
70533SOL    HW213439   6.228   8.068   4.829
70534SOL     OW13440   7.857   1.483   0.837
70534SOL    HW113441   7.810   1.549   0.786
70534SOL    HW213442   7.948   1.513   0.835
70535SOL     OW13443   1.909   5.938  10.679
70535SOL    HW113444   1.874   5.985  10.603
70535SOL    HW213445   1.848   5.866  10.694
70536SOL     OW13446  10.313   9.138   3.009
70536SOL    HW113447  10.247   9.149   2.941
70536SOL    HW213448  10.288   9.200   3.078
70537SOL     OW13449   7.241   2.074   6.025
70537SOL    HW113450   7.223   2.053   6.116
70537SOL    HW213451   7.259   2.168   6.025
70538SOL     OW13452  13.648   6.895   3.254
70538SOL    HW113453  13.717   6.955   3.283
70538SOL    HW213454  13.673   6.870   3.165
70539SOL     OW13455  14.478  14.588   4.254
70539SOL    HW113456  14.468  14.493   4.261
70539SOL    HW213457  14.552  14.609   4.311
70540SOL     OW13458  10.544   1.659   8.899
70540SOL    HW113459  10.532   1.656   8.994
70540SOL    HW213460  10.583   1.575   8.877
70541SOL     OW13461   1.383   6.371   2.023
70541SOL    HW113462   1.433   6.450   2.005
70541SOL    HW213463   1.302   6.403   2.063
70542SOL     OW13464   1.532   9.824   2.870
70542SOL    HW113465   1.516   9.912   2.836
70542SOL    HW213466   1.603   9.790   2.816
70543SOL     OW13467   8.505   3.005   7.444
70543SOL    HW113468   8.586   2.957   7.423
70543SOL    HW213469   8.494   2.993   7.538
70544SOL     OW13470   2.769  11.714  11.589
70544SOL    HW113471   2.824  11.640  11.616
70544SOL    HW213472   2.680  11.683  11.603
70545SOL     OW13473   6.280   3.858   9.711
70545SOL    HW113474   6.286   3.789   9.645
70545SOL    HW213475   6.257   3.812   9.792
70546SOL     OW13476   5.979  14.113   2.205
70546SOL    HW113477   5.985  14.194   2.153
70546SOL    HW213478   5.960  14.143   2.294
70547SOL     OW13479  11.201  12.956  14.548
70547SOL    HW113480  11.264  12.917  14.609
70547SOL    HW213481  11.118  12.913  14.568
70548SOL     OW13482   8.643  13.341   4.348
70548SOL    HW113483   8.550  13.323   4.338
70548SOL    HW213484   8.647  13.415   4.409
70549SOL     OW13485   2.849   0.563  12.214
70549SOL    HW113486   2.875   0.655  12.209
70549SOL    HW213487   2.764   0.564  12.259
70550SOL     OW13488   5.972   5.357  14.212
70550SOL    HW113489   6.052   5.307  14.231
70550SOL    HW213490   5.983   5.439  14.260
70551SOL     OW13491   1.100   1.916   1.269
70551SOL    HW113492   1.129   1.896   1.180
70551SOL    HW213493   1.048   1.841   1.296
70552SOL     OW13494   8.900   8.334  14.371
70552SOL    HW113495   8.823   8.285  14.343
70552SOL    HW213496   8.885   8.352  14.464
70553SOL     OW13497   2.392  12.962  13.198
70553SOL    HW113498   2.474  12.928  13.161
70553SOL    HW213499   2.325  12.900  13.168
70554SOL     OW13500   6.172   8.642   4.523
70554SOL    HW113501   6.105   8.667   4.587
70554SOL    HW213502   6.201   8.725   4.485
70555SOL     OW13503   6.075  13.063   8.032
70555SOL    HW113504   6.098  13.151   8.062
70555SOL    HW213505   5.998  13.039   8.083
70556SOL     OW13506  10.518   4.648   6.475
70556SOL    HW113507  10.591   4.707   6.458
70556SOL    HW213508  10.552   4.583   6.537
70557SOL     OW13509   4.463   5.348   2.779
70557SOL    HW113510   4.505   5.423   2.736
70557SOL    HW213511   4.427   5.296   2.707
70558SOL     OW13512   2.632  10.118   3.028
70558SOL    HW113513   2.560  10.148   3.084
70558SOL    HW213514   2.592  10.106   2.942
70559SOL     OW13515   5.157   1.104   9.215
70559SOL    HW113516   5.117   1.080   9.132
70559SOL    HW213517   5.149   1.199   9.219
70560SOL     OW13518  11.018  11.045   6.090
70560SOL    HW113519  11.028  11.049   6.185
70560SOL    HW213520  11.108  11.052   6.056
70561SOL     OW13521   5.016  12.984   2.665
70561SOL    HW113522   5.063  12.968   2.747
70561SOL    HW213523   5.055  13.064   2.630
70562SOL     OW13524   7.268   3.083   1.126
70562SOL    HW113525   7.193   3.027   1.146
70562SOL    HW213526   7.252   3.113   1.037
70563SOL     OW13527   3.202   0.344  10.621
70563SOL    HW113528   3.230   0.405  10.552
70563SOL    HW213529   3.209   0.258  10.580
70564SOL     OW13530   9.540   4.901   9.233
70564SOL    HW113531   9.584   4.865   9.309
70564SOL    HW213532   9.567   4.845   9.160
70565SOL     OW13533   1.609   1.043  14.661
70565SOL    HW113534   1.531   1.068  14.611
70565SOL    HW213535   1.633   1.122  14.709
70566SOL     OW13536  11.793   9.750   4.580
70566SOL    HW113537  11.711   9.705   4.599
70566SOL    HW213538  11.826   9.778   4.666
70567SOL     OW13539  14.726  13.843  14.630
70567SOL    HW113540  14.752  13.815  14.542
70567SOL    HW213541  14.631  13.837  14.630
70568SOL     OW13542  10.041   8.093  10.733
70568SOL    HW113543  10.016   8.147  10.658
70568SOL    HW213544  10.113   8.039  10.701
70569SOL     OW13545   0.787   6.882   4.806
70569SOL    HW113546   0.776   6.929   4.723
70569SOL    HW213547   0.795   6.952   4.872
70570SOL     OW13548   4.885   5.698   3.722
70570SOL    HW113549   4.945   5.637   3.766
70570SOL    HW213550   4.801   5.653   3.720
70571SOL     OW13551   4.678   7.042  11.621
70571SOL    HW113552   4.753   7.083  11.579
70571SOL    HW213553   4.603   7.066  11.566
70572SOL     OW13554   2.415   1.212  10.887
70572SOL    HW113555   2.424   1.247  10.976
70572SOL    HW213556   2.504   1.205  10.855
70573SOL     OW13557   3.318   0.998   2.311
70573SOL    HW113558   3.360   1.075   2.273
70573SOL    HW213559   3.225   1.012   2.294
70574SOL     OW13560  14.042  10.792  10.777
70574SOL    HW113561  13.985  10.793  10.700
70574SOL    HW213562  14.114  10.852  10.755
70575SOL     OW13563   5.078   7.525  10.844
70575SOL    HW113564   5.126   7.573  10.912
70575SOL    HW213565   5.005   7.583  10.822
70576SOL     OW13566   3.027   3.546   7.503
70576SOL    HW113567   3.105   3.579   7.459
70576SOL    HW213568   3.053   3.460   7.537
70577SOL     OW13569  12.188  11.305   8.518
70577SOL    HW113570  12.188  11.304   8.614
70577SOL    HW213571  12.220  11.392   8.495
70578SOL     OW13572   2.444  11.963   7.295
70578SOL    HW113573   2.476  12.045   7.259
70578SOL    HW213574   2.357  11.951   7.257
70579SOL     OW13575   6.726   5.723   7.698
70579SOL    HW113576   6.653   5.758   7.646
70579SOL    HW213577   6.692   5.721   7.788
70580SOL     OW13578  14.315   3.099  10.151
70580SOL    HW113579  14.335   3.107  10.058
70580SOL    HW213580  14.288   3.187  10.177
70581SOL     OW13581   5.164   1.944   8.933
70581SOL    HW113582   5.170   1.911   9.023
70581SOL    HW213583   5.147   1.866   8.880
70582SOL     OW13584   3.720  12.017   5.704
70582SOL    HW113585   3.651  12.033   5.768
70582SOL    HW213586   3.676  12.026   5.619
70583SOL     OW13587   9.161  13.716   2.069
70583SOL    HW113588   9.107  13.638   2.084
70583SOL    HW213589   9.138  13.744   1.980
70584SOL     OW13590  10.091   9.641   7.116
70584SOL    HW113591  10.117   9.643   7.024
70584SOL    HW213592  10.065   9.550   7.132
70585SOL     OW13593   5.008   2.613   4.382
70585SOL    HW113594   5.018   2.706   4.406
70585SOL    HW213595   5.072   2.599   4.313
70586SOL     OW13596   4.240   4.940  14.732
70586SOL    HW113597   4.170   4.909  14.791
70586SOL    HW213598   4.205   5.021  14.695
70587SOL     OW13599  10.232   5.888   8.641
70587SOL    HW113600  10.214   5.887   8.735
70587SOL    HW213601  10.183   5.964   8.609
70588SOL     OW13602   8.520   0.902  12.674
70588SOL    HW113603   8.564   0.822  12.703
70588SOL    HW213604   8.584   0.972  12.690
70589SOL     OW13605   4.923   7.689   0.331
70589SOL    HW113606   4.863   7.756   0.362
70589SOL    HW213607   4.928   7.626   0.404
70590SOL     OW13608  11.789   2.614   5.552
70590SOL    HW113609  11.869   2.582   5.510
70590SOL    HW213610  11.788   2.570   5.637
70591SOL     OW13611   4.887   9.618   4.879
70591SOL    HW113612   4.897   9.541   4.824
70591SOL    HW213613   4.806   9.604   4.927
70592SOL     OW13614  13.811  13.454   2.859
70592SOL    HW113615  13.903  13.442   2.882
70592SOL    HW213616  13.805  13.545   2.829
70593SOL     OW13617   2.553   5.519   0.124
70593SOL    HW113618   2.599   5.562   0.196
70593SOL    HW213619   2.481   5.472   0.167
70594SOL     OW13620  11.730   1.164  10.937
70594SOL    HW113621  11.802   1.226  10.943
70594SOL    HW213622  11.668   1.192  11.005
70595SOL     OW13623   9.473  13.695   9.146
70595SOL    HW113624   9.442  13.644   9.221
70595SOL    HW213625   9.408  13.679   9.077
70596SOL     OW13626   4.896   9.320   5.586
70596SOL    HW113627   4.929   9.336   5.497
70596SOL    HW213628   4.817   9.373   5.592
70597SOL     OW13629   3.432   1.904   3.021
70597SOL    HW113630   3.371   1.880   3.091
70597SOL    HW213631   3.400   1.989   2.991
70598SOL     OW13632  10.373   7.846  12.995
70598SOL    HW113633  10.290   7.799  12.986
70598SOL    HW213634  10.359   7.927  12.945
70599SOL     OW13635   7.993  10.467  11.061
70599SOL    HW113636   8.040  10.529  11.005
70599SOL    HW213637   8.004  10.382  11.018
70600SOL     OW13638  11.628  13.352  11.669
70600SOL    HW113639  11.588  13.422  11.721
70600SOL    HW213640  11.675  13.397  11.599
70601SOL     OW13641   7.389  10.005   0.466
70601SOL    HW113642   7.406  10.043   0.552
70601SOL    HW213643   7.350   9.920   0.485
70602SOL     OW13644   9.725   1.015   3.560
70602SOL    HW113645   9.633   1.033   3.541
70602SOL    HW213646   9.767   1.013   3.474
70603SOL     OW13647   9.835  11.349   3.608
70603SOL    HW113648   9.900  11.316   3.670
70603SOL    HW213649   9.816  11.274   3.551
70604SOL     OW13650   7.553   8.531   2.941
70604SOL    HW113651   7.567   8.564   2.852
70604SOL    HW213652   7.492   8.594   2.979
70605SOL     OW13653   5.589  11.497   5.187
70605SOL    HW113654   5.631  11.415   5.212
70605SOL    HW213655   5.636  11.525   5.108
70606SOL     OW13656   0.838   9.238   6.831
70606SOL    HW113657   0.763   9.294   6.814
70606SOL    HW213658   0.826   9.163   6.772
70607SOL     OW13659   9.539   5.625   5.259
70607SOL    HW113660   9.579   5.567   5.195
70607SOL    HW213661   9.445   5.609   5.252
70608SOL     OW13662   5.345  13.561   7.445
70608SOL    HW113663   5.313  13.641   7.403
70608SOL    HW213664   5.344  13.495   7.376
70609SOL     OW13665  14.566   3.483   3.626
70609SOL    HW113666  14.508   3.531   3.567
70609SOL    HW213667  14.570   3.394   3.590
70610SOL     OW13668   8.348  11.196   0.300
70610SOL    HW113669   8.396  11.120   0.266
70610SOL    HW213670   8.257  11.165   0.306
70611SOL     OW13671  14.826  14.066   9.523
70611SOL    HW113672  14.755  14.126   9.500
70611SOL    HW213673  14.881  14.062   9.445
70612SOL     OW13674   7.095  14.526  10.148
70612SOL    HW113675   7.190  14.514  10.153
70612SOL    HW213676   7.083  14.598  10.086
70613SOL     OW13677  14.203  12.105   9.216
70613SOL    HW113678  14.167  12.151   9.291
70613SOL    HW213679  14.269  12.047   9.253
70614SOL     OW13680  13.879   1.756   8.306
70614SOL    HW113681  13.856   1.766   8.214
70614SOL    HW213682  13.922   1.838   8.329
70615SOL     OW13683   6.050   8.173   6.466
70615SOL    HW113684   5.996   8.104   6.505
70615SOL    HW213685   6.139   8.140   6.471
70616SOL     OW13686  13.444   3.622   2.119
70616SOL    HW113687  13.430   3.704   2.071
70616SOL    HW213688  13.527   3.589   2.085
70617SOL     OW13689   2.542   8.568   8.271
70617SOL    HW113690   2.547   8.477   8.242
70617SOL    HW213691   2.542   8.564   8.366
70618SOL     OW13692   3.631   2.111   9.600
70618SOL    HW113693   3.625   2.126   9.695
70618SOL    HW213694   3.597   2.191   9.561
70619SOL     OW13695  11.259  10.374   6.050
70619SOL    HW113696  11.328  10.434   6.080
70619SOL    HW213697  11.183  10.397   6.104
70620SOL     OW13698  10.969   5.390   2.578
70620SOL    HW113699  11.048   5.387   2.524
70620SOL    HW213700  10.962   5.301   2.613
70621SOL     OW13701   8.552   0.412   7.683
70621SOL    HW113702   8.495   0.394   7.608
70621SOL    HW213703   8.517   0.358   7.754
70622SOL     OW13704  11.888   4.206   1.918
70622SOL    HW113705  11.934   4.122   1.924
70622SOL    HW213706  11.900   4.234   1.827
70623SOL     OW13707   4.462  11.024   2.109
70623SOL    HW113708   4.483  10.944   2.060
70623SOL    HW213709   4.386  11.059   2.063
70624SOL     OW13710  11.190   5.643  13.841
70624SOL    HW113711  11.103   5.644  13.802
70624SOL    HW213712  11.214   5.736  13.847
70625SOL     OW13713  13.168  14.588   1.415
70625SOL    HW113714  13.252  14.611   1.455
70625SOL    HW213715  13.185  14.585   1.321
70626SOL     OW13716   5.016  11.989   1.450
70626SOL    HW113717   5.047  12.072   1.486
70626SOL    HW213718   5.073  11.923   1.489
70627SOL     OW13719  11.943   5.626  13.207
70627SOL    HW113720  11.892   5.683  13.264
70627SOL    HW213721  11.894   5.623  13.125
70628SOL     OW13722  14.448   2.846   5.175
70628SOL    HW113723  14.485   2.916   5.121
70628SOL    HW213724  14.438   2.773   5.114
70629SOL     OW13725   6.896   0.867  10.005
70629SOL    HW113726   6.923   0.959  10.012
70629SOL    HW213727   6.906   0.832  10.094
70630SOL     OW13728   0.205   3.363  13.623
70630SOL    HW113729   0.184   3.455  13.637
70630SOL    HW213730   0.147   3.315  13.683
70631SOL     OW13731   6.204  12.413   1.698
70631SOL    HW113732   6.243  12.453   1.620
70631SOL    HW213733   6.192  12.486   1.758
70632SOL     OW13734  10.053  12.852   6.849
70632SOL    HW113735  10.123  12.800   6.888
70632SOL    HW213736  10.076  12.943   6.871
70633SOL     OW13737   5.549  11.982   5.490
70633SOL    HW113738   5.574  11.931   5.566
70633SOL    HW213739   5.554  11.921   5.417
70634SOL     OW13740   8.585  12.873   6.758
70634SOL    HW113741   8.609  12.951   6.708
70634SOL    HW213742   8.668  12.836   6.787
70635SOL     OW13743   7.412   3.431   0.406
70635SOL    HW113744   7.449   3.402   0.323
70635SOL    HW213745   7.443   3.367   0.470
70636SOL     OW13746   9.098  12.818  13.078
70636SOL    HW113747   9.047  12.899  13.079
70636SOL    HW213748   9.125  12.808  12.987
70637SOL     OW13749   4.482   2.449  12.648
70637SOL    HW113750   4.463   2.379  12.586
70637SOL    HW213751   4.414   2.514  12.633
70638SOL     OW13752   1.491   1.766  13.265
70638SOL    HW113753   1.466   1.675  13.249
70638SOL    HW213754   1.408   1.814  13.267
70639SOL     OW13755   9.132   0.095  13.294
70639SOL    HW113756   9.227   0.090  13.304
70639SOL    HW213757   9.110   0.186  13.316
70640SOL     OW13758  13.345   3.058   8.426
70640SOL    HW113759  13.404   3.068   8.352
70640SOL    HW213760  13.327   3.148   8.454
70641SOL     OW13761   6.247   7.260   9.884
70641SOL    HW113762   6.340   7.267   9.862
70641SOL    HW213763   6.209   7.209   9.812
70642SOL     OW13764   5.524   5.219   3.752
70642SOL    HW113765   5.511   5.146   3.814
70642SOL    HW213766   5.436   5.257   3.743
70643SOL     OW13767   1.253   8.202   2.931
70643SOL    HW113768   1.193   8.176   3.001
70643SOL    HW213769   1.220   8.287   2.901
70644SOL     OW13770   2.122  10.693  12.223
70644SOL    HW113771   2.060  10.647  12.167
70644SOL    HW213772   2.147  10.770  12.173
70645SOL     OW13773  13.412  11.585   7.803
70645SOL    HW113774  13.402  11.494   7.778
70645SOL    HW213775  13.427  11.582   7.898
70646SOL     OW13776  11.069   5.863   1.545
70646SOL    HW113777  11.004   5.801   1.514
70646SOL    HW213778  11.107   5.822   1.622
70647SOL     OW13779  12.520   5.495   1.632
70647SOL    HW113780  12.544   5.493   1.540
70647SOL    HW213781  12.454   5.564   1.638
70648SOL     OW13782   7.954  13.895  13.666
70648SOL    HW113783   7.869  13.939  13.669
70648SOL    HW213784   7.958  13.844  13.747
70649SOL     OW13785   4.346   6.743   2.865
70649SOL    HW113786   4.377   6.664   2.820
70649SOL    HW213787   4.257   6.721   2.893
70650SOL     OW13788  10.875  11.596   9.980
70650SOL    HW113789  10.874  11.566   9.889
70650SOL    HW213790  10.883  11.515  10.031
70651SOL     OW13791   4.383   6.971   3.013
70651SOL    HW113792   4.406   6.889   2.970
70651SOL    HW213793   4.437   6.973   3.092
70652SOL     OW13794  12.199   6.488  13.996
70652SOL    HW113795  12.256   6.565  14.007
70652SOL    HW213796  12.192   6.477  13.901
70653SOL     OW13797   8.885  10.128   3.307
70653SOL    HW113798   8.879  10.057   3.371
70653SOL    HW213799   8.843  10.203   3.350
70654SOL     OW13800   0.137   0.014  11.861
70654SOL    HW113801   0.118  14.803  11.853
70654SOL    HW213802   0.142   0.029  11.956
70655SOL     OW13803   2.504   5.613   6.072
70655SOL    HW113804   2.533   5.696   6.035
70655SOL    HW213805   2.581   5.580   6.120
70656SOL     OW13806   8.043  10.177  14.468
70656SOL    HW113807   7.972  10.213  14.416
70656SOL    HW213808   8.018  10.195  14.559
70657SOL     OW13809   0.287  10.285   8.463
70657SOL    HW113810   0.339  10.327   8.532
70657SOL    HW213811   0.197  10.305   8.486
70658SOL     OW13812  12.732   4.537   8.484
70658SOL    HW113813  12.682   4.575   8.556
70658SOL    HW213814  12.731   4.604   8.416
70659SOL     OW13815   0.496   0.993   2.319
70659SOL    HW113816   0.417   0.958   2.277
70659SOL    HW213817   0.464   1.062   2.377
70660SOL     OW13818   6.338   1.061   8.432
70660SOL    HW113819   6.318   1.137   8.486
70660SOL    HW213820   6.367   1.097   8.348
70661SOL     OW13821   5.223   7.130   0.038
70661SOL    HW113822   5.173   7.167  14.848
70661SOL    HW213823   5.157   7.086   0.093
70662SOL     OW13824   2.862  10.760  14.814
70662SOL    HW113825   2.835  10.716  14.734
70662SOL    HW213826   2.839  10.852  14.800
70663SOL     OW13827   1.412   1.012   9.037
70663SOL    HW113828   1.360   1.044   8.963
70663SOL    HW213829   1.373   1.055   9.113
70664SOL     OW13830   6.780   4.171   4.246
70664SOL    HW113831   6.815   4.163   4.335
70664SOL    HW213832   6.852   4.209   4.196
70665SOL     OW13833   4.715   4.188   8.397
70665SOL    HW113834   4.754   4.273   8.379
70665SOL    HW213835   4.767   4.153   8.470
70666SOL     OW13836   3.622   2.238   5.849
70666SOL    HW113837   3.668   2.208   5.928
70666SOL    HW213838   3.642   2.332   5.844
70667SOL     OW13839   8.362  12.340   9.222
70667SOL    HW113840   8.305  12.266   9.203
70667SOL    HW213841   8.303  12.409   9.254
70668SOL     OW13842   0.428   8.053  11.593
70668SOL    HW113843   0.392   8.112  11.659
70668SOL    HW213844   0.516   8.031  11.624
70669SOL     OW13845   9.373  10.542   5.154
70669SOL    HW113846   9.375  10.502   5.241
70669SOL    HW213847   9.463  10.571   5.139
70670SOL     OW13848  13.077   9.563   0.469
70670SOL    HW113849  13.108   9.474   0.486
70670SOL    HW213850  12.992   9.568   0.514
70671SOL     OW13851   6.457   7.570   5.088
70671SOL    HW113852   6.492   7.522   5.163
70671SOL    HW213853   6.378   7.521   5.063
70672SOL     OW13854  14.193   0.259   9.133
70672SOL    HW113855  14.141   0.266   9.213
70672SOL    HW213856  14.283   0.250   9.164
70673SOL     OW13857   3.638   7.881  13.653
70673SOL    HW113858   3.598   7.804  13.692
70673SOL    HW213859   3.582   7.954  13.680
70674SOL     OW13860   5.587   3.844   6.973
70674SOL    HW113861   5.581   3.939   6.986
70674SOL    HW213862   5.668   3.819   7.016
70675SOL     OW13863   9.743   5.739   2.257
70675SOL    HW113864   9.826   5.708   2.294
70675SOL    HW213865   9.764   5.761   2.166
70676SOL     OW13866   4.524   2.343   0.984
70676SOL    HW113867   4.610   2.383   0.972
70676SOL    HW213868   4.465   2.417   1.000
70677SOL     OW13869   7.771   5.529  13.565
70677SOL    HW113870   7.823   5.561  13.639
70677SOL    HW213871   7.807   5.575  13.490
70678SOL     OW13872   9.931  11.457   3.279
70678SOL    HW113873   9.951  11.429   3.190
70678SOL    HW213874   9.857  11.403   3.305
70679SOL     OW13875   6.026   1.392   2.719
70679SOL    HW113876   6.004   1.447   2.794
70679SOL    HW213877   6.015   1.450   2.643
70680SOL     OW13878   4.161  14.161   5.440
70680SOL    HW113879   4.184  14.205   5.358
70680SOL    HW213880   4.173  14.228   5.507
70681SOL     OW13881   0.157  10.855   5.812
70681SOL    HW113882   0.165  10.922   5.879
70681SOL    HW213883   0.173  10.773   5.858
70682SOL     OW13884   4.713   2.986   1.292
70682SOL    HW113885   4.682   2.936   1.216
70682SOL    HW213886   4.662   2.953   1.365
70683SOL     OW13887  13.010   6.064  12.054
70683SOL    HW113888  13.075   6.030  11.993
70683SOL    HW213889  12.925   6.043  12.015
70684SOL     OW13890   3.474   1.245   7.593
70684SOL    HW113891   3.463   1.333   7.557
70684SOL    HW213892   3.555   1.213   7.553
70685SOL     OW13893   0.914   5.463  13.848
70685SOL    HW113894   0.973   5.394  13.817
70685SOL    HW213895   0.932   5.469  13.942
70686SOL     OW13896   6.020   6.236  13.201
70686SOL    HW113897   5.952   6.266  13.261
70686SOL    HW213898   5.971   6.196  13.128
70687SOL     OW13899   2.483   8.263   1.301
70687SOL    HW113900   2.456   8.354   1.287
70687SOL    HW213901   2.486   8.225   1.213
70688SOL     OW13902  14.414   2.656  11.203
70688SOL    HW113903  14.434   2.678  11.294
70688SOL    HW213904  14.322   2.631  11.204
70689SOL     OW13905   0.116   9.414  10.115
70689SOL    HW113906   0.190   9.473  10.098
70689SOL    HW213907   0.084   9.390  10.028
70690SOL     OW13908  12.298   9.356   8.529
70690SOL    HW113909  12.203   9.348   8.525
70690SOL    HW213910  12.330   9.266   8.531
70691SOL     OW13911   3.003  11.365   4.205
70691SOL    HW113912   2.946  11.288   4.203
70691SOL    HW213913   2.967  11.423   4.139
70692SOL     OW13914  14.221   7.604   0.638
70692SOL    HW113915  14.162   7.662   0.591
70692SOL    HW213916  14.303   7.607   0.589
70693SOL     OW13917   2.790   5.959   9.187
70693SOL    HW113918   2.737   5.936   9.264
70693SOL    HW213919   2.880   5.938   9.214
70694SOL     OW13920   5.382   0.065  12.602
70694SOL    HW113921   5.320   0.081  12.531
70694SOL    HW213922   5.343   0.108  12.678
70695SOL     OW13923  14.130  14.547   4.697
70695SOL    HW113924  14.193  14.511   4.636
70695SOL    HW213925  14.045  14.528   4.658
70696SOL     OW13926   1.384   8.856   2.808
70696SOL    HW113927   1.390   8.927   2.872
70696SOL    HW213928   1.420   8.893   2.727
70697SOL     OW13929   9.549   5.871  12.017
70697SOL    HW113930   9.505   5.838  12.096
70697SOL    HW213931   9.558   5.965  12.033
70698SOL     OW13932  14.029  13.660   1.763
70698SOL    HW113933  14.025  13.755   1.750
70698SOL    HW213934  14.009  13.624   1.676
70699SOL     OW13935   7.522   8.650   1.383
70699SOL    HW113936   7.577   8.642   1.462
70699SOL    HW213937   7.432   8.643   1.415
70700SOL     OW13938   0.407   0.564   4.476
70700SOL    HW113939   0.314   0.560   4.498
70700SOL    HW213940   0.439   0.475   4.491
70701SOL     OW13941   7.324   8.208  14.717
70701SOL    HW113942   7.400   8.194  14.660
70701SOL    HW213943   7.271   8.272  14.670
70702SOL     OW13944   7.564   2.566  10.194
70702SOL    HW113945   7.617   2.592  10.119
70702SOL    HW213946   7.614   2.496  10.236
70703SOL     OW13947  10.802   5.878  11.195
70703SOL    HW113948  10.879   5.896  11.250
70703SOL    HW213949  10.804   5.784  11.182
70704SOL     OW13950   5.231   1.312  13.427
70704SOL    HW113951   5.228   1.390  13.483
70704SOL    HW213952   5.261   1.345  13.342
70705SOL     OW13953   4.446   1.567   9.945
70705SOL    HW113954   4.419   1.586  10.035
70705SOL    HW213955   4.469   1.474   9.946
70706SOL     OW13956   9.326   6.631   5.973
70706SOL    HW113957   9.311   6.561   5.909
70706SOL    HW213958   9.414   6.614   6.007
70707SOL     OW13959   2.594   0.680   1.448
70707SOL    HW113960   2.610   0.720   1.363
70707SOL    HW213961   2.539   0.743   1.494
70708SOL     OW13962   1.809   9.705   1.836
70708SOL    HW113963   1.734   9.703   1.776
70708SOL    HW213964   1.770   9.718   1.923
70709SOL     OW13965  12.675   6.224   0.668
70709SOL    HW113966  12.596   6.268   0.635
70709SOL    HW213967  12.747   6.266   0.621
70710SOL     OW13968   0.852   1.033  10.518
70710SOL    HW113969   0.914   1.029  10.591
70710SOL    HW213970   0.799   0.954  10.526
70711SOL     OW13971   9.703   8.474   0.347
70711SOL    HW113972   9.649   8.408   0.390
70711SOL    HW213973   9.654   8.556   0.357
70712SOL     OW13974  11.404   4.293   4.853
70712SOL    HW113975  11.492   4.323   4.878
70712SOL    HW213976  11.360   4.276   4.936
70713SOL     OW13977   6.531  10.152  14.842
70713SOL    HW113978   6.538  10.242  14.813
70713SOL    HW213979   6.459  10.115  14.790
70714SOL     OW13980  10.193   6.205   0.566
70714SOL    HW113981  10.141   6.278   0.599
70714SOL    HW213982  10.275   6.210   0.615
70715SOL     OW13983  14.790   0.351  11.599
70715SOL    HW113984  14.791   0.396  11.684
70715SOL    HW213985  14.743   0.411  11.541
70716SOL     OW13986   9.752  10.917   7.558
70716SOL    HW113987   9.757  10.881   7.470
70716SOL    HW213988   9.731  11.009   7.546
70717SOL     OW13989   9.632  11.105   6.996
70717SOL    HW113990   9.570  11.176   6.984
70717SOL    HW213991   9.616  11.046   6.922
70718SOL     OW13992  12.760   1.829   2.707
70718SOL    HW113993  12.779   1.780   2.787
70718SOL    HW213994  12.678   1.875   2.726
70719SOL     OW13995   2.806   0.868   1.535
70719SOL    HW113996   2.729   0.904   1.492
70719SOL    HW213997   2.791   0.774   1.539
70720SOL     OW13998   6.877   9.492   0.425
70720SOL    HW113999   6.788   9.525   0.411
70720SOL    HW214000   6.928   9.570   0.448
70721SOL     OW14001  10.542   7.661  13.127
70721SOL    HW114002  10.525   7.692  13.216
70721SOL    HW214003  10.475   7.704  13.074
70722SOL     OW14004   7.696  11.968   2.256
70722SOL    HW114005   7.790  11.951   2.256
70722SOL    HW214006   7.656  11.886   2.228
70723SOL     OW14007   9.626  13.880  11.041
70723SOL    HW114008   9.617  13.925  10.957
70723SOL    HW214009   9.537  13.853  11.063
70724SOL     OW14010  11.317   0.108  12.675
70724SOL    HW114011  11.327   0.200  12.696
70724SOL    HW214012  11.228   0.100  12.640
70725SOL     OW14013   7.823   5.918   1.613
70725SOL    HW114014   7.874   5.837   1.617
70725SOL    HW214015   7.734   5.889   1.593
70726SOL     OW14016   2.037   7.424  11.748
70726SOL    HW114017   2.109   7.457  11.695
70726SOL    HW214018   1.985   7.502  11.769
70727SOL     OW14019  14.732   3.422   3.275
70727SOL    HW114020  14.778   3.391   3.197
70727SOL    HW214021  14.790   3.488   3.312
70728SOL     OW14022  14.213  11.924  13.104
70728SOL    HW114023  14.279  11.856  13.097
70728SOL    HW214024  14.227  11.962  13.191
70729SOL     OW14025  11.595  12.310   6.740
70729SOL    HW114026  11.519  12.325   6.797
70729SOL    HW214027  11.661  12.274   6.799
70730SOL     OW14028   6.623   8.141   6.994
70730SOL    HW114029   6.701   8.106   6.951
70730SOL    HW214030   6.633   8.115   7.086
70731SOL     OW14031   7.682   1.955   0.602
70731SOL    HW114032   7.724   1.921   0.523
70731SOL    HW214033   7.702   2.048   0.600
70732SOL     OW14034  14.592  10.847   3.981
70732SOL    HW114035  14.625  10.892   4.059
70732SOL    HW214036  14.497  10.856   3.987
70733SOL     OW14037   2.578   9.530   4.300
70733SOL    HW114038   2.572   9.490   4.214
70733SOL    HW214039   2.578   9.457   4.361
70734SOL     OW14040  10.417  14.473   9.702
70734SOL    HW114041  10.409  14.493   9.608
70734SOL    HW214042  10.339  14.513   9.741
70735SOL     OW14043  12.305   0.973   2.286
70735SOL    HW114044  12.315   0.902   2.349
70735SOL    HW214045  12.266   0.931   2.209
70736SOL     OW14046   2.440   5.869   7.756
70736SOL    HW114047   2.446   5.889   7.849
70736SOL    HW214048   2.526   5.891   7.720
70737SOL     OW14049   5.803  12.410   0.619
70737SOL    HW114050   5.804  12.501   0.650
70737SOL    HW214051   5.812  12.417   0.524
70738SOL     OW14052   5.357   3.003  11.560
70738SOL    HW114053   5.387   2.912  11.559
70738SOL    HW214054   5.279   3.002  11.505
70739SOL     OW14055  12.223   1.595  13.774
70739SOL    HW114056  12.138   1.619  13.737
70739SOL    HW214057  12.286   1.618  13.706
70740SOL     OW14058   3.505  14.574  13.658
70740SOL    HW114059   3.468  14.524  13.731
70740SOL    HW214060   3.471  14.530  13.580
70741SOL     OW14061   9.495   5.676  12.199
70741SOL    HW114062   9.411   5.636  12.177
70741SOL    HW214063   9.557   5.634  12.140
70742SOL     OW14064   0.999   0.460   4.325
70742SOL    HW114065   1.088   0.428   4.342
70742SOL    HW214066   0.993   0.461   4.229
70743SOL     OW14067  10.399   7.668   3.414
70743SOL    HW114068  10.481   7.694   3.454
70743SOL    HW214069  10.333   7.685   3.481
70744SOL     OW14070  12.076  14.446   8.754
70744SOL    HW114071  12.028  14.434   8.672
70744SOL    HW214072  12.009  14.465   8.819
70745SOL     OW14073  11.487   8.291   9.141
70745SOL    HW114074  11.422   8.248   9.086
70745SOL    HW214075  11.560   8.229   9.147
70746SOL     OW14076   7.144   7.746  14.372
70746SOL    HW114077   7.129   7.776  14.461
70746SOL    HW214078   7.233   7.710  14.373
70747SOL     OW14079   7.713   6.956  11.694
70747SOL    HW114080   7.648   7.018  11.726
70747SOL    HW214081   7.672   6.914  11.619
70748SOL     OW14082  12.367  10.492   3.965
70748SOL    HW114083  12.445  10.436   3.970
70748SOL    HW214084  12.350  10.516   4.056
70749SOL     OW14085   3.343   1.437   0.130
70749SOL    HW114086   3.375   1.350   0.107
70749SOL    HW214087   3.356   1.443   0.225
70750SOL     OW14088   0.901   0.597  14.460
70750SOL    HW114089   0.983   0.618  14.415
70750SOL    HW214090   0.908   0.641  14.545
70751SOL     OW14091   9.807  13.737   6.452
70751SOL    HW114092   9.807  13.733   6.548
70751SOL    HW214093   9.863  13.664   6.425
70752SOL     OW14094   2.330   1.756   4.226
70752SOL    HW114095   2.341   1.850   4.211
70752SOL    HW214096   2.405   1.716   4.181
70753SOL     OW14097   7.845   4.106   8.199
70753SOL    HW114098   7.903   4.147   8.263
70753SOL    HW214099   7.772   4.167   8.190
70754SOL     OW14100   3.188   3.698  11.846
70754SOL    HW114101   3.237   3.766  11.892
70754SOL    HW214102   3.244   3.621  11.850
70755SOL     OW14103   2.770  11.114   5.032
70755SOL    HW114104   2.818  11.196   5.038
70755SOL    HW214105   2.836  11.046   5.045
70756SOL     OW14106   6.969   2.429   2.342
70756SOL    HW114107   6.952   2.343   2.381
70756SOL    HW214108   7.062   2.445   2.358
70757SOL     OW14109   3.923   4.060   5.245
70757SOL    HW114110   4.013   4.034   5.263
70757SOL    HW214111   3.880   3.979   5.217
70758SOL     OW14112  11.682  14.530   0.879
70758SOL    HW114113  11.704  14.620   0.853
70758SOL    HW214114  11.767  14.488   0.893
70759SOL     OW14115   7.194  10.253   0.708
70759SOL    HW114116   7.278  10.206   0.714
70759SOL    HW214117   7.163  10.234   0.619
70760SOL     OW14118  11.608  10.924  12.691
70760SOL    HW114119  11.653  10.861  12.748
70760SOL    HW214120  11.527  10.944  12.737
70761SOL     OW14121   0.179  12.970   5.256
70761SOL    HW114122   0.232  13.016   5.322
70761SOL    HW214123   0.237  12.902   5.222
70762SOL     OW14124  11.582   6.911   4.058
70762SOL    HW114125  11.640   6.905   4.134
70762SOL    HW214126  11.533   6.993   4.072
70763SOL     OW14127  12.077   4.713  13.365
70763SOL    HW114128  11.995   4.670  13.340
70763SOL    HW214129  12.140   4.641  13.372
70764SOL     OW14130  14.170   5.102   0.238
70764SOL    HW114131  14.114   5.088   0.162
70764SOL    HW214132  14.111   5.140   0.304
70765SOL     OW14133   7.075  13.328   4.867
70765SOL    HW114134   7.061  13.312   4.960
70765SOL    HW214135   7.140  13.398   4.864
70766SOL     OW14136  14.276   7.497  14.158
70766SOL    HW114137  14.186   7.466  14.166
70766SOL    HW214138  14.278   7.547  14.077
70767SOL     OW14139   5.271  11.957  11.721
70767SOL    HW114140   5.346  11.942  11.664
70767SOL    HW214141   5.195  11.929  11.670
70768SOL     OW14142   1.095   9.486   7.467
70768SOL    HW114143   1.140   9.562   7.504
70768SOL    HW214144   1.044   9.522   7.394
70769SOL     OW14145  11.917  12.166   1.983
70769SOL    HW114146  11.833  12.123   1.996
70769SOL    HW214147  11.961  12.113   1.916
70770SOL     OW14148   3.055   7.324   4.158
70770SOL    HW114149   3.129   7.375   4.192
70770SOL    HW214150   2.978   7.370   4.191
70771SOL     OW14151   4.717   1.315   1.261
70771SOL    HW114152   4.657   1.248   1.295
70771SOL    HW214153   4.706   1.389   1.321
70772SOL     OW14154  12.542   3.665   8.978
70772SOL    HW114155  12.523   3.632   8.890
70772SOL    HW214156  12.607   3.734   8.964
70773SOL     OW14157  10.603   1.953  10.828
70773SOL    HW114158  10.520   1.999  10.841
70773SOL    HW214159  10.631   1.928  10.916
70774SOL     OW14160  12.779  12.393   3.317
70774SOL    HW114161  12.738  12.475   3.287
70774SOL    HW214162  12.864  12.421   3.352
70775SOL     OW14163   9.944  14.458   9.994
70775SOL    HW114164   9.857  14.498   9.994
70775SOL    HW214165   9.963  14.443   9.901
70776SOL     OW14166   2.600   2.500   9.396
70776SOL    HW114167   2.622   2.483   9.304
70776SOL    HW214168   2.520   2.553   9.392
70777SOL     OW14169  12.967   0.320   6.609
70777SOL    HW114170  12.985   0.333   6.516
70777SOL    HW214171  12.876   0.347   6.621
70778SOL     OW14172  13.292   5.268   9.701
70778SOL    HW114173  13.362   5.247   9.639
70778SOL    HW214174  13.251   5.183   9.720
70779SOL     OW14175   7.836   1.635  10.243
70779SOL    HW114176   7.786   1.555  10.226
70779SOL    HW214177   7.776   1.690  10.294
70780SOL     OW14178   1.676  11.628   4.070
70780SOL    HW114179   1.730  11.605   4.146
70780SOL    HW214180   1.711  11.574   3.999
70781SOL     OW14181  10.978   3.825   9.316
70781SOL    HW114182  10.952   3.762   9.383
70781SOL    HW214183  10.920   3.807   9.242
70782SOL     OW14184   7.880   8.774   6.397
70782SOL    HW114185   7.825   8.770   6.319
70782SOL    HW214186   7.902   8.682   6.415
70783SOL     OW14187   9.148  11.924   9.621
70783SOL    HW114188   9.120  11.839   9.656
70783SOL    HW214189   9.189  11.969   9.695
70784SOL     OW14190  11.130  11.592   7.639
70784SOL    HW114191  11.215  11.602   7.682
70784SOL    HW214192  11.068  11.579   7.710
70785SOL     OW14193   8.443   3.546   8.702
70785SOL    HW114194   8.364   3.517   8.747
70785SOL    HW214195   8.437   3.642   8.702
70786SOL     OW14196   2.214   6.892  11.995
70786SOL    HW114197   2.209   6.800  12.021
70786SOL    HW214198   2.308   6.909  11.983
70787SOL     OW14199  10.587  10.007   4.315
70787SOL    HW114200  10.647  10.080   4.296
70787SOL    HW214201  10.605   9.942   4.247
70788SOL     OW14202   2.123  11.406  14.795
70788SOL    HW114203   2.044  11.379  14.841
70788SOL    HW214204   2.190  11.412  14.864
70789SOL     OW14205  13.279   3.578   2.500
70789SOL    HW114206  13.289   3.493   2.543
70789SOL    HW214207  13.369   3.609   2.487
70790SOL     OW14208  11.355  10.857  10.323
70790SOL    HW114209  11.354  10.824  10.412
70790SOL    HW214210  11.439  10.902  10.314
70791SOL     OW14211   9.691   6.248   3.254
70791SOL    HW114212   9.625   6.316   3.263
70791SOL    HW214213   9.722   6.256   3.164
70792SOL     OW14214   6.518  14.465   3.291
70792SOL    HW114215   6.571  14.441   3.215
70792SOL    HW214216   6.582  14.485   3.359
70793SOL     OW14217  13.389   8.352  12.906
70793SOL    HW114218  13.425   8.276  12.859
70793SOL    HW214219  13.440   8.356  12.987
70794SOL     OW14220  11.752   7.019   3.848
70794SOL    HW114221  11.748   7.094   3.907
70794SOL    HW214222  11.662   6.989   3.840
70795SOL     OW14223  12.278   5.605   5.979
70795SOL    HW114224  12.268   5.629   6.071
70795SOL    HW214225  12.342   5.667   5.944
70796SOL     OW14226   6.768  13.433  14.484
70796SOL    HW114227   6.779  13.355  14.539
70796SOL    HW214228   6.753  13.504  14.547
70797SOL     OW14229  13.639   8.886  10.605
70797SOL    HW114230  13.544   8.890  10.605
70797SOL    HW214231  13.661   8.841  10.687
70798SOL     OW14232   6.000   8.445   9.100
70798SOL    HW114233   5.982   8.533   9.065
70798SOL    HW214234   5.925   8.426   9.156
70799SOL     OW14235   4.437  11.158   1.782
70799SOL    HW114236   4.406  11.122   1.699
70799SOL    HW214237   4.371  11.132   1.846
70800SOL     OW14238   4.937   1.744   2.639
70800SOL    HW114239   4.883   1.749   2.718
70800SOL    HW214240   4.928   1.653   2.609
70801SOL     OW14241  11.670  12.003   9.957
70801SOL    HW114242  11.745  11.944   9.962
70801SOL    HW214243  11.663  12.041  10.045
70802SOL     OW14244  13.050   4.365   3.220
70802SOL    HW114245  13.132   4.318   3.228
70802SOL    HW214246  12.985   4.310   3.264
70803SOL     OW14247   7.603   7.235   8.435
70803SOL    HW114248   7.572   7.230   8.345
70803SOL    HW214249   7.528   7.271   8.484
70804SOL     OW14250  11.475   6.266   9.017
70804SOL    HW114251  11.439   6.227   8.937
70804SOL    HW214252  11.401   6.307   9.060
70805SOL     OW14253  12.609   4.849   9.265
70805SOL    HW114254  12.702   4.832   9.254
70805SOL    HW214255  12.586   4.905   9.190
70806SOL     OW14256   4.242   4.703  13.800
70806SOL    HW114257   4.234   4.743  13.714
70806SOL    HW214258   4.156   4.716  13.841
70807SOL     OW14259  12.384   0.643   4.194
70807SOL    HW114260  12.301   0.688   4.181
70807SOL    HW214261  12.379   0.567   4.136
70808SOL     OW14262   0.530  12.833   1.580
70808SOL    HW114263   0.472  12.770   1.536
70808SOL    HW214264   0.534  12.907   1.520
70809SOL     OW14265  13.370   4.163   9.131
70809SOL    HW114266  13.297   4.114   9.093
70809SOL    HW214267  13.332   4.247   9.156
70810SOL     OW14268   4.992   1.566  12.217
70810SOL    HW114269   4.937   1.518  12.279
70810SOL    HW214270   4.979   1.658  12.239
70811SOL     OW14271   5.575   7.641   9.053
70811SOL    HW114272   5.663   7.618   9.085
70811SOL    HW214273   5.519   7.571   9.087
70812SOL     OW14274   7.906   5.145   1.850
70812SOL    HW114275   7.935   5.236   1.854
70812SOL    HW214276   7.821   5.145   1.893
70813SOL     OW14277   8.613   4.897   8.214
70813SOL    HW114278   8.667   4.879   8.291
70813SOL    HW214279   8.524   4.908   8.249
70814SOL     OW14280   6.306   7.602   9.182
70814SOL    HW114281   6.321   7.597   9.087
70814SOL    HW214282   6.293   7.695   9.199
70815SOL     OW14283   7.155  13.900  10.267
70815SOL    HW114284   7.084  13.844  10.296
70815SOL    HW214285   7.203  13.848  10.203
70816SOL     OW14286  14.750   6.661   1.015
70816SOL    HW114287  14.690   6.587   1.011
70816SOL    HW214288  14.704   6.732   0.971
70817SOL     OW14289   1.139   6.180   0.844
70817SOL    HW114290   1.181   6.200   0.927
70817SOL    HW214291   1.105   6.092   0.855
70818SOL     OW14292  14.798   6.684   0.301
70818SOL    HW114293  14.775   6.763   0.350
70818SOL    HW214294  14.822   6.620   0.368
70819SOL     OW14295  14.239   6.779   4.908
70819SOL    HW114296  14.329   6.803   4.888
70819SOL    HW214297  14.209   6.844   4.971
70820SOL     OW14298   2.924   4.773   7.793
70820SOL    HW114299   2.865   4.704   7.761
70820SOL    HW214300   2.868   4.829   7.847
70821SOL     OW14301   2.676   8.683  13.952
70821SOL    HW114302   2.681   8.622  14.024
70821SOL    HW214303   2.653   8.767  13.992
70822SOL     OW14304   6.863   5.833   0.997
70822SOL    HW114305   6.828   5.892   0.930
70822SOL    HW214306   6.790   5.773   1.017
70823SOL     OW14307  13.050   5.083   7.884
70823SOL    HW114308  13.108   5.136   7.938
70823SOL    HW214309  12.974   5.067   7.940
70824SOL     OW14310  11.243   1.474   5.298
70824SOL    HW114311  11.219   1.521   5.378
70824SOL    HW214312  11.250   1.382   5.325
70825SOL     OW14313   3.902   1.816   5.177
70825SOL    HW114314   3.981   1.797   5.226
70825SOL    HW214315   3.888   1.739   5.122
70826SOL     OW14316   2.775   8.944  12.260
70826SOL    HW114317   2.852   8.900  12.296
70826SOL    HW214318   2.800   8.970  12.172
70827SOL     OW14319   7.251  14.180   0.478
70827SOL    HW114320   7.259  14.275   0.463
70827SOL    HW214321   7.258  14.170   0.573
70828SOL     OW14322   6.203   0.252   8.783
70828SOL    HW114323   6.288   0.220   8.816
70828SOL    HW214324   6.157   0.284   8.860
70829SOL     OW14325   7.879   6.214  11.982
70829SOL    HW114326   7.907   6.302  12.008
70829SOL    HW214327   7.849   6.224  11.892
70830SOL     OW14328   9.605   9.674   0.245
70830SOL    HW114329   9.598   9.663   0.150
70830SOL    HW214330   9.525   9.720   0.270
70831SOL     OW14331   7.090   0.807   1.670
70831SOL    HW114332   7.090   0.872   1.740
70831SOL    HW214333   7.131   0.730   1.709
70832SOL     OW14334   3.528  11.362   3.374
70832SOL    HW114335   3.544  11.445   3.419
70832SOL    HW214336   3.595  11.358   3.305
70833SOL     OW14337  13.412   9.888   4.250
70833SOL    HW114338  13.497   9.889   4.294
70833SOL    HW214339  13.353   9.931   4.313
70834SOL     OW14340  14.045   3.076  14.052
70834SOL    HW114341  14.068   3.100  13.962
70834SOL    HW214342  13.949   3.078  14.053
70835SOL     OW14343   8.762   9.869   2.043
70835SOL    HW114344   8.713   9.817   1.980
70835SOL    HW214345   8.836   9.814   2.068
70836SOL     OW14346   4.926  10.268  11.260
70836SOL    HW114347   4.931  10.343  11.319
70836SOL    HW214348   4.922  10.192  11.318
70837SOL     OW14349   0.464  10.138  12.032
70837SOL    HW114350   0.549  10.121  12.071
70837SOL    HW214351   0.484  10.182  11.949
70838SOL     OW14352   6.196   1.075  12.024
70838SOL    HW114353   6.199   1.045  12.114
70838SOL    HW214354   6.109   1.051  11.993
70839SOL     OW14355   6.019  14.319   9.703
70839SOL    HW114356   6.005  14.396   9.758
70839SOL    HW214357   5.934  14.274   9.702
70840SOL     OW14358  14.459   0.967   2.104
70840SOL    HW114359  14.531   1.029   2.099
70840SOL    HW214360  14.472   0.909   2.028
70841SOL     OW14361   8.300  13.089   3.138
70841SOL    HW114362   8.262  13.162   3.089
70841SOL    HW214363   8.262  13.096   3.225
70842SOL     OW14364   4.041   5.185   2.172
70842SOL    HW114365   4.109   5.153   2.231
70842SOL    HW214366   3.959   5.161   2.215
70843SOL     OW14367   7.761   3.955   7.195
70843SOL    HW114368   7.737   3.869   7.159
70843SOL    HW214369   7.694   3.972   7.262
70844SOL     OW14370  11.000   4.755  10.146
70844SOL    HW114371  11.046   4.688  10.095
70844SOL    HW214372  10.910   4.754  10.113
70845SOL     OW14373   9.400  14.233  12.798
70845SOL    HW114374   9.457  14.294  12.844
70845SOL    HW214375   9.311  14.265  12.816
70846SOL     OW14376   2.558   6.847   5.854
70846SOL    HW114377   2.587   6.766   5.896
70846SOL    HW214378   2.635   6.904   5.855
70847SOL     OW14379  14.704  14.767   5.006
70847SOL    HW114380  14.688  14.839   5.067
70847SOL    HW214381  14.726  14.811   4.923
70848SOL     OW14382   6.685   7.973  13.767
70848SOL    HW114383   6.765   7.943  13.809
70848SOL    HW214384   6.616   7.920  13.806
70849SOL     OW14385   3.542   4.689  13.328
70849SOL    HW114386   3.458   4.736  13.330
70849SOL    HW214387   3.517   4.597  13.323
70850SOL     OW14388   3.247   0.297   1.211
70850SOL    HW114389   3.340   0.277   1.214
70850SOL    HW214390   3.212   0.262   1.292
70851SOL     OW14391   6.504   1.163   4.716
70851SOL    HW114392   6.419   1.149   4.757
70851SOL    HW214393   6.533   1.247   4.749
70852SOL     OW14394  14.193   6.646   3.925
70852SOL    HW114395  14.184   6.674   3.834
70852SOL    HW214396  14.127   6.578   3.936
70853SOL     OW14397   2.754  10.444   5.418
70853SOL    HW114398   2.701  10.455   5.497
70853SOL    HW214399   2.728  10.516   5.361
70854SOL     OW14400   5.068   9.414   9.341
70854SOL    HW114401   5.126   9.489   9.326
70854SOL    HW214402   5.127   9.340   9.355
70855SOL     OW14403  14.482   8.349  11.188
70855SOL    HW114404  14.437   8.297  11.254
70855SOL    HW214405  14.501   8.432  11.232
70856SOL     OW14406   1.078  14.333   7.027
70856SOL    HW114407   1.073  14.243   6.995
70856SOL    HW214408   1.171  14.348   7.045
70857SOL     OW14409  12.061   2.520   4.084
70857SOL    HW114410  12.110   2.486   4.009
70857SOL    HW214411  11.969   2.502   4.062
70858SOL     OW14412   8.170   4.380  12.840
70858SOL    HW114413   8.106   4.387  12.911
70858SOL    HW214414   8.243   4.435  12.868
70859SOL     OW14415   4.070   4.533  14.586
70859SOL    HW114416   4.025   4.467  14.534
70859SOL    HW214417   4.097   4.599  14.523
70860SOL     OW14418   2.921   2.999  11.005
70860SOL    HW114419   3.011   2.997  10.971
70860SOL    HW214420   2.866   2.997  10.927
70861SOL     OW14421   6.127   8.522  12.195
70861SOL    HW114422   6.049   8.496  12.243
70861SOL    HW214423   6.149   8.446  12.141
70862SOL     OW14424  14.204   8.199   4.058
70862SOL    HW114425  14.141   8.253   4.010
70862SOL    HW214426  14.270   8.261   4.089
70863SOL     OW14427   5.340  11.868  10.276
70863SOL    HW114428   5.360  11.776  10.291
70863SOL    HW214429   5.403  11.896  10.210
70864SOL     OW14430   2.756  14.864  13.238
70864SOL    HW114431   2.720  14.795  13.294
70864SOL    HW214432   2.834  14.825  13.199
70865SOL     OW14433   7.753   9.581   9.230
70865SOL    HW114434   7.842   9.614   9.239
70865SOL    HW214435   7.705   9.620   9.303
70866SOL     OW14436   9.790   8.134  13.642
70866SOL    HW114437   9.714   8.191  13.656
70866SOL    HW214438   9.782   8.067  13.710
70867SOL     OW14439   2.083  10.248   2.766
70867SOL    HW114440   2.077  10.182   2.696
70867SOL    HW214441   2.177  10.260   2.778
70868SOL     OW14442   8.222   6.237   2.673
70868SOL    HW114443   8.133   6.271   2.681
70868SOL    HW214444   8.237   6.191   2.755
70869SOL     OW14445   8.147   9.881  13.356
70869SOL    HW114446   8.153   9.844  13.268
70869SOL    HW214447   8.098   9.816  13.407
70870SOL     OW14448   6.287   4.363  13.562
70870SOL    HW114449   6.224   4.302  13.523
70870SOL    HW214450   6.269   4.446  13.518
70871SOL     OW14451   4.622  11.921  11.689
70871SOL    HW114452   4.622  11.857  11.617
70871SOL    HW214453   4.649  11.871  11.766
70872SOL     OW14454   7.067   7.301  13.658
70872SOL    HW114455   7.095   7.372  13.717
70872SOL    HW214456   7.115   7.318  13.577
70873SOL     OW14457  14.399  11.251  13.165
70873SOL    HW114458  14.376  11.165  13.129
70873SOL    HW214459  14.413  11.235  13.258
70874SOL     OW14460   2.578   9.170   3.557
70874SOL    HW114461   2.665   9.133   3.571
70874SOL    HW214462   2.592   9.265   3.557
70875SOL     OW14463   6.985  11.427   8.039
70875SOL    HW114464   7.016  11.516   8.024
70875SOL    HW214465   6.933  11.406   7.961
70876SOL     OW14466   1.443  12.995  14.209
70876SOL    HW114467   1.390  13.010  14.287
70876SOL    HW214468   1.533  12.997  14.240
70877SOL     OW14469   0.175   6.060   2.929
70877SOL    HW114470   0.185   6.127   2.998
70877SOL    HW214471   0.256   6.009   2.934
70878SOL     OW14472   2.577   2.412   3.735
70878SOL    HW114473   2.658   2.392   3.687
70878SOL    HW214474   2.588   2.503   3.763
70879SOL     OW14475   5.112   7.750   8.775
70879SOL    HW114476   5.031   7.701   8.787
70879SOL    HW214477   5.130   7.744   8.681
70880SOL     OW14478   8.253   9.026   2.039
70880SOL    HW114479   8.206   8.943   2.053
70880SOL    HW214480   8.264   9.031   1.944
70881SOL     OW14481   5.937  13.418   5.756
70881SOL    HW114482   5.923  13.512   5.750
70881SOL    HW214483   5.850  13.380   5.750
70882SOL     OW14484   7.948   5.743  13.623
70882SOL    HW114485   8.025   5.719  13.572
70882SOL    HW214486   7.983   5.769  13.709
70883SOL     OW14487   1.919   4.255  12.520
70883SOL    HW114488   1.844   4.313  12.515
70883SOL    HW214489   1.903   4.188  12.454
70884SOL     OW14490   1.880  14.503  11.889
70884SOL    HW114491   1.898  14.567  11.821
70884SOL    HW214492   1.792  14.472  11.870
70885SOL     OW14493  10.344  11.484  12.849
70885SOL    HW114494  10.385  11.570  12.858
70885SOL    HW214495  10.275  11.483  12.914
70886SOL     OW14496   6.755   8.762   7.283
70886SOL    HW114497   6.843   8.797   7.264
70886SOL    HW214498   6.767   8.668   7.287
70887SOL     OW14499   5.261   4.560  12.625
70887SOL    HW114500   5.262   4.613  12.545
70887SOL    HW214501   5.306   4.479  12.600
70888SOL     OW14502  14.369   3.492  11.861
70888SOL    HW114503  14.377   3.529  11.773
70888SOL    HW214504  14.332   3.405  11.848
70889SOL     OW14505   3.016   6.895  10.063
70889SOL    HW114506   3.039   6.845   9.984
70889SOL    HW214507   3.010   6.829  10.132
70890SOL     OW14508   3.453   9.051   3.028
70890SOL    HW114509   3.496   8.991   2.966
70890SOL    HW214510   3.522   9.113   3.053
70891SOL     OW14511   9.433   1.780   4.550
70891SOL    HW114512   9.439   1.689   4.579
70891SOL    HW214513   9.342   1.805   4.566
70892SOL     OW14514   4.165   5.185   1.169
70892SOL    HW114515   4.201   5.122   1.231
70892SOL    HW214516   4.171   5.269   1.213
70893SOL     OW14517   3.521   5.753  11.960
70893SOL    HW114518   3.547   5.843  11.978
70893SOL    HW214519   3.502   5.716  12.046
70894SOL     OW14520   9.302   7.796   1.558
70894SOL    HW114521   9.240   7.724   1.548
70894SOL    HW214522   9.247   7.873   1.571
70895SOL     OW14523  13.743   9.881   6.613
70895SOL    HW114524  13.810   9.933   6.658
70895SOL    HW214525  13.713   9.818   6.678
70896SOL     OW14526   7.216  11.430  13.277
70896SOL    HW114527   7.239  11.395  13.363
70896SOL    HW214528   7.291  11.408  13.221
70897SOL     OW14529   3.134  12.762   3.325
70897SOL    HW114530   3.204  12.779   3.261
70897SOL    HW214531   3.180  12.730   3.403
70898SOL     OW14532   9.803   1.157   8.585
70898SOL    HW114533   9.837   1.230   8.535
70898SOL    HW214534   9.732   1.121   8.531
70899SOL     OW14535   6.923  10.635   1.416
70899SOL    HW114536   6.927  10.671   1.327
70899SOL    HW214537   6.844  10.674   1.454
70900SOL     OW14538   6.584   1.655   6.072
70900SOL    HW114539   6.596   1.567   6.107
70900SOL    HW214540   6.595   1.713   6.147
70901SOL     OW14541   8.785   6.465  11.042
70901SOL    HW114542   8.766   6.425  10.957
70901SOL    HW214543   8.707   6.446  11.094
70902SOL     OW14544  13.855   0.544   2.413
70902SOL    HW114545  13.800   0.468   2.431
70902SOL    HW214546  13.945   0.513   2.424
70903SOL     OW14547   3.876   9.108   4.314
70903SOL    HW114548   3.881   9.174   4.245
70903SOL    HW214549   3.789   9.070   4.305
70904SOL     OW14550  10.417   6.199   7.554
70904SOL    HW114551  10.477   6.177   7.483
70904SOL    HW214552  10.470   6.252   7.614
70905SOL     OW14553   5.597  12.919   8.943
70905SOL    HW114554   5.585  12.930   9.038
70905SOL    HW214555   5.592  13.008   8.908
70906SOL     OW14556  10.618   6.233   8.665
70906SOL    HW114557  10.667   6.199   8.590
70906SOL    HW214558  10.679   6.225   8.739
70907SOL     OW14559   9.068   4.915   6.643
70907SOL    HW114560   9.157   4.945   6.664
70907SOL    HW214561   9.073   4.820   6.647
70908SOL     OW14562  12.893   7.364   9.665
70908SOL    HW114563  12.864   7.275   9.687
70908SOL    HW214564  12.872   7.375   9.573
70909SOL     OW14565   8.077  10.877   7.251
70909SOL    HW114566   8.040  10.841   7.170
70909SOL    HW214567   8.037  10.964   7.259
70910SOL     OW14568   7.556  12.917  14.154
70910SOL    HW114569   7.597  12.885  14.235
70910SOL    HW214570   7.628  12.949  14.101
70911SOL     OW14571   3.713  12.348  13.351
70911SOL    HW114572   3.768  12.414  13.308
70911SOL    HW214573   3.658  12.399  13.411
70912SOL     OW14574   6.625   2.917  14.724
70912SOL    HW114575   6.605   3.010  14.725
70912SOL    HW214576   6.636   2.896  14.631
70913SOL     OW14577   3.165   9.794   8.245
70913SOL    HW114578   3.235   9.797   8.180
70913SOL    HW214579   3.128   9.706   8.237
70914SOL     OW14580  13.513   3.925   9.540
70914SOL    HW114581  13.595   3.888   9.571
70914SOL    HW214582  13.537   4.011   9.504
70915SOL     OW14583  11.217   6.655   9.885
70915SOL    HW114584  11.144   6.715   9.901
70915SOL    HW214585  11.184   6.569   9.912
70916SOL     OW14586   5.063  12.170   9.373
70916SOL    HW114587   5.143  12.191   9.421
70916SOL    HW214588   5.030  12.091   9.414
70917SOL     OW14589  10.139   8.223  12.059
70917SOL    HW114590  10.206   8.182  12.113
70917SOL    HW214591  10.075   8.257  12.121
70918SOL     OW14592   0.699   3.652   1.521
70918SOL    HW114593   0.696   3.677   1.614
70918SOL    HW214594   0.786   3.681   1.492
70919SOL     OW14595  10.749   9.227   0.592
70919SOL    HW114596  10.762   9.212   0.498
70919SOL    HW214597  10.666   9.183   0.612
70920SOL     OW14598  14.774   0.084  11.679
70920SOL    HW114599  14.854   0.031  11.681
70920SOL    HW214600  14.805   0.172  11.656
70921SOL     OW14601  11.887   2.537   4.532
70921SOL    HW114602  11.800   2.565   4.503
70921SOL    HW214603  11.887   2.551   4.626
70922SOL     OW14604   0.173   6.776   3.850
70922SOL    HW114605   0.088   6.818   3.840
70922SOL    HW214606   0.211   6.777   3.762
70923SOL     OW14607  11.585   6.832   7.785
70923SOL    HW114608  11.635   6.767   7.834
70923SOL    HW214609  11.494   6.817   7.811
70924SOL     OW14610   5.056  11.393   1.957
70924SOL    HW114611   5.109  11.472   1.959
70924SOL    HW214612   5.045  11.368   2.048
70925SOL     OW14613  11.130   4.091   2.594
70925SOL    HW114614  11.221   4.092   2.623
70925SOL    HW214615  11.094   4.175   2.621
70926SOL     OW14616   6.207  13.919   2.186
70926SOL    HW114617   6.281  13.968   2.148
70926SOL    HW214618   6.138  13.984   2.195
70927SOL     OW14619  13.852  13.096   1.553
70927SOL    HW114620  13.790  13.121   1.485
70927SOL    HW214621  13.872  13.005   1.535
70928SOL     OW14622  12.281   7.767  12.692
70928SOL    HW114623  12.198   7.779  12.739
70928SOL    HW214624  12.345   7.748  12.761
70929SOL     OW14625   1.039   5.923   0.788
70929SOL    HW114626   1.081   5.837   0.789
70929SOL    HW214627   1.027   5.942   0.695
70930SOL     OW14628   4.799  13.020   0.387
70930SOL    HW114629   4.861  12.947   0.388
70930SOL    HW214630   4.775  13.032   0.479
70931SOL     OW14631   3.789   2.325   8.440
70931SOL    HW114632   3.879   2.304   8.413
70931SOL    HW214633   3.793   2.417   8.467
70932SOL     OW14634  12.982   5.694   1.730
70932SOL    HW114635  13.047   5.655   1.789
70932SOL    HW214636  12.899   5.686   1.778
70933SOL     OW14637   2.642   2.966   0.534
70933SOL    HW114638   2.701   3.042   0.525
70933SOL    HW214639   2.568   2.999   0.584
70934SOL     OW14640   8.318  14.608  11.128
70934SOL    HW114641   8.409  14.625  11.106
70934SOL    HW214642   8.321  14.539  11.195
70935SOL     OW14643  11.694   3.130   6.640
70935SOL    HW114644  11.644   3.050   6.627
70935SOL    HW214645  11.678   3.155   6.731
70936SOL     OW14646   2.650  10.011   0.017
70936SOL    HW114647   2.672  10.094   0.061
70936SOL    HW214648   2.554  10.013   0.010
70937SOL     OW14649  12.435  11.677   6.191
70937SOL    HW114650  12.485  11.756   6.212
70937SOL    HW214651  12.501  11.616   6.157
70938SOL     OW14652   8.006   5.111   0.325
70938SOL    HW114653   7.919   5.152   0.324
70938SOL    HW214654   7.989   5.020   0.347
70939SOL     OW14655   5.211   6.356   5.270
70939SOL    HW114656   5.180   6.272   5.235
70939SOL    HW214657   5.135   6.392   5.315
70940SOL     OW14658   4.668   2.617  10.511
70940SOL    HW114659   4.741   2.591  10.454
70940SOL    HW214660   4.599   2.644  10.451
70941SOL     OW14661  12.946  12.773   9.808
70941SOL    HW114662  13.036  12.783   9.777
70941SOL    HW214663  12.894  12.761   9.729
70942SOL     OW14664   3.238   0.688   8.845
70942SOL    HW114665   3.148   0.656   8.842
70942SOL    HW214666   3.271   0.677   8.756
70943SOL     OW14667   2.719   0.410  11.951
70943SOL    HW114668   2.648   0.436  12.010
70943SOL    HW214669   2.714   0.315  11.949
70944SOL     OW14670  10.432   4.062   2.406
70944SOL    HW114671  10.495   3.991   2.395
70944SOL    HW214672  10.371   4.029   2.471
70945SOL     OW14673   1.969   7.785   2.783
70945SOL    HW114674   1.985   7.860   2.727
70945SOL    HW214675   1.946   7.714   2.723
70946SOL     OW14676   8.336  10.198  12.407
70946SOL    HW114677   8.263  10.175  12.464
70946SOL    HW214678   8.324  10.142  12.330
70947SOL     OW14679   6.314  11.375   3.011
70947SOL    HW114680   6.290  11.338   3.095
70947SOL    HW214681   6.234  11.372   2.959
70948SOL     OW14682  13.031   2.957   8.719
70948SOL    HW114683  13.014   2.995   8.633
70948SOL    HW214684  13.111   2.905   8.708
70949SOL     OW14685  12.858   3.953   8.152
70949SOL    HW114686  12.865   4.048   8.162
70949SOL    HW214687  12.906   3.917   8.227
70950SOL     OW14688  12.101   8.145   8.269
70950SOL    HW114689  12.065   8.112   8.187
70950SOL    HW214690  12.188   8.178   8.247
70951SOL     OW14691   1.600   8.447   2.802
70951SOL    HW114692   1.691   8.458   2.829
70951SOL    HW214693   1.575   8.362   2.837
70952SOL     OW14694   5.071  11.943   5.568
70952SOL    HW114695   5.061  12.033   5.599
70952SOL    HW214696   5.155  11.915   5.604
70953SOL     OW14697  10.610   2.932   3.402
70953SOL    HW114698  10.651   2.853   3.436
70953SOL    HW214699  10.662   3.004   3.438
70954SOL     OW14700   8.363  10.576   7.531
70954SOL    HW114701   8.363  10.590   7.437
70954SOL    HW214702   8.326  10.657   7.568
70955SOL     OW14703   1.766   0.715   5.714
70955SOL    HW114704   1.787   0.623   5.726
70955SOL    HW214705   1.751   0.725   5.620
70956SOL     OW14706   6.633  10.243  13.623
70956SOL    HW114707   6.560  10.210  13.571
70956SOL    HW214708   6.701  10.262  13.558
70957SOL     OW14709   0.457   1.476   8.461
70957SOL    HW114710   0.519   1.407   8.482
70957SOL    HW214711   0.509   1.556   8.461
70958SOL     OW14712  11.857   4.775   4.205
70958SOL    HW114713  11.831   4.769   4.113
70958SOL    HW214714  11.799   4.841   4.242
70959SOL     OW14715   6.992  12.999   4.983
70959SOL    HW114716   7.058  13.066   4.967
70959SOL    HW214717   6.965  13.012   5.074
70960SOL     OW14718   2.228   4.944  10.895
70960SOL    HW114719   2.132   4.945  10.896
70960SOL    HW214720   2.251   4.852  10.901
70961SOL     OW14721   6.290   7.269  10.407
70961SOL    HW114722   6.218   7.229  10.457
70961SOL    HW214723   6.290   7.222  10.323
70962SOL     OW14724  10.168   7.209   7.595
70962SOL    HW114725  10.213   7.147   7.538
70962SOL    HW214726  10.175   7.170   7.682
70963SOL     OW14727  12.729   3.104   1.225
70963SOL    HW114728  12.804   3.120   1.168
70963SOL    HW214729  12.680   3.185   1.223
70964SOL     OW14730   0.947   2.307   0.071
70964SOL    HW114731   0.963   2.279   0.161
70964SOL    HW214732   0.863   2.353   0.075
70965SOL     OW14733   9.872   0.933   4.317
70965SOL    HW114734   9.815   0.973   4.251
70965SOL    HW214735   9.939   0.887   4.266
70966SOL     OW14736   6.523   8.841   2.679
70966SOL    HW114737   6.603   8.874   2.637
70966SOL    HW214738   6.467   8.813   2.606
70967SOL     OW14739   4.647   8.469   1.069
70967SOL    HW114740   4.600   8.386   1.061
70967SOL    HW214741   4.607   8.511   1.145
70968SOL     OW14742   6.441  11.870   5.732
70968SOL    HW114743   6.386  11.793   5.717
70968SOL    HW214744   6.477  11.857   5.820
70969SOL     OW14745   8.176   7.118   4.962
70969SOL    HW114746   8.245   7.183   4.970
70969SOL    HW214747   8.145   7.104   5.052
70970SOL     OW14748   9.681   9.659   8.498
70970SOL    HW114749   9.654   9.593   8.435
70970SOL    HW214750   9.673   9.615   8.583
70971SOL     OW14751  12.089   1.440   9.475
70971SOL    HW114752  12.128   1.369   9.425
70971SOL    HW214753  12.040   1.397   9.544
70972SOL     OW14754   4.294   1.036   5.108
70972SOL    HW114755   4.294   1.025   5.013
70972SOL    HW214756   4.205   1.013   5.135
70973SOL     OW14757   9.748   0.378   8.510
70973SOL    HW114758   9.712   0.455   8.467
70973SOL    HW214759   9.717   0.383   8.600
70974SOL     OW14760   6.909  14.183   6.454
70974SOL    HW114761   6.877  14.101   6.416
70974SOL    HW214762   6.990  14.159   6.498
70975SOL     OW14763   4.298  11.513  14.770
70975SOL    HW114764   4.259  11.600  14.774
70975SOL    HW214765   4.277  11.481  14.683
70976SOL     OW14766   7.258   1.203   6.668
70976SOL    HW114767   7.318   1.147   6.717
70976SOL    HW214768   7.253   1.164   6.581
70977SOL     OW14769   4.293  11.392  13.032
70977SOL    HW114770   4.310  11.363  13.121
70977SOL    HW214771   4.290  11.487  13.037
70978SOL     OW14772   3.813  14.118   4.675
70978SOL    HW114773   3.865  14.040   4.694
70978SOL    HW214774   3.869  14.170   4.616
70979SOL     OW14775   8.660  10.166   1.856
70979SOL    HW114776   8.596  10.175   1.785
70979SOL    HW214777   8.606  10.159   1.935
70980SOL     OW14778   2.030   8.966   4.903
70980SOL    HW114779   2.001   9.039   4.849
70980SOL    HW214780   2.048   9.005   4.988
70981SOL     OW14781  10.949  10.894  12.821
70981SOL    HW114782  10.971  10.807  12.787
70981SOL    HW214783  10.906  10.938  12.747
70982SOL     OW14784   6.933   7.113  10.886
70982SOL    HW114785   6.938   7.127  10.791
70982SOL    HW214786   6.938   7.018  10.896
70983SOL     OW14787   8.564  12.883   6.265
70983SOL    HW114788   8.651  12.883   6.225
70983SOL    HW214789   8.569  12.819   6.335
70984SOL     OW14790  13.439   7.178   4.655
70984SOL    HW114791  13.480   7.140   4.577
70984SOL    HW214792  13.345   7.175   4.637
70985SOL     OW14793   5.990   8.912   4.211
70985SOL    HW114794   6.076   8.954   4.203
70985SOL    HW214795   6.007   8.819   4.194
70986SOL     OW14796   1.022   9.996   9.692
70986SOL    HW114797   1.005  10.035   9.606
70986SOL    HW214798   0.954   9.930   9.702
70987SOL     OW14799  13.118   3.495   5.861
70987SOL    HW114800  13.095   3.460   5.947
70987SOL    HW214801  13.039   3.541   5.832
70988SOL     OW14802   5.182   5.281   6.502
70988SOL    HW114803   5.236   5.206   6.526
70988SOL    HW214804   5.092   5.251   6.514
70989SOL     OW14805  12.365   1.652  13.529
70989SOL    HW114806  12.353   1.745  13.511
70989SOL    HW214807  12.460   1.642  13.541
70990SOL     OW14808   5.603   5.046   0.087
70990SOL    HW114809   5.558   4.962   0.100
70990SOL    HW214810   5.621   5.077   0.176
70991SOL     OW14811   0.003   1.284   2.701
70991SOL    HW114812  14.792   1.297   2.683
70991SOL    HW214813   0.044   1.278   2.615
70992SOL     OW14814   2.549   1.034   8.718
70992SOL    HW114815   2.632   1.010   8.677
70992SOL    HW214816   2.485   0.976   8.677
70993SOL     OW14817  13.213   3.078   2.042
70993SOL    HW114818  13.303   3.046   2.040
70993SOL    HW214819  13.173   3.039   1.964
70994SOL     OW14820   1.573   4.653  10.607
70994SOL    HW114821   1.578   4.655  10.512
70994SOL    HW214822   1.482   4.675  10.627
70995SOL     OW14823   6.222  10.699  13.749
70995SOL    HW114824   6.304  10.698  13.699
70995SOL    HW214825   6.186  10.610  13.738
70996SOL     OW14826  14.066   2.906   7.503
70996SOL    HW114827  14.023   2.835   7.551
70996SOL    HW214828  14.041   2.891   7.412
70997SOL     OW14829   2.420   3.473  12.716
70997SOL    HW114830   2.501   3.440  12.679
70997SOL    HW214831   2.444   3.557  12.755
70998SOL     OW14832   7.890   6.313  14.416
70998SOL    HW114833   7.823   6.275  14.473
70998SOL    HW214834   7.868   6.406  14.413
70999SOL     OW14835   7.390   0.256   2.248
70999SOL    HW114836   7.420   0.229   2.161
70999SOL    HW214837   7.361   0.175   2.290
71000SOL     OW14838   4.327   6.346   3.964
71000SOL    HW114839   4.315   6.316   4.054
71000SOL    HW214840   4.257   6.303   3.915
71001SOL     OW14841   4.654  12.487   7.152
71001SOL    HW114842   4.732  12.530   7.118
71001SOL    HW214843   4.644  12.524   7.240
71002SOL     OW14844  12.157  11.606   9.998
71002SOL    HW114845  12.178  11.700   9.996
71002SOL    HW214846  12.207  11.572  10.072
71003SOL     OW14847  10.948   4.189  14.040
71003SOL    HW114848  10.990   4.110  14.074
71003SOL    HW214849  10.880   4.209  14.104
71004SOL     OW14850   5.809   1.307  11.228
71004SOL    HW114851   5.830   1.237  11.290
71004SOL    HW214852   5.841   1.274  11.143
71005SOL     OW14853   0.376   7.879   5.901
71005SOL    HW114854   0.387   7.946   5.834
71005SOL    HW214855   0.310   7.820   5.866
71006SOL     OW14856  14.504  14.243  12.553
71006SOL    HW114857  14.558  14.164  12.553
71006SOL    HW214858  14.513  14.278  12.642
71007SOL     OW14859  13.968   8.745   7.866
71007SOL    HW114860  14.027   8.731   7.940
71007SOL    HW214861  13.937   8.835   7.877
71008SOL     OW14862   8.031  12.618   3.245
71008SOL    HW114863   8.107  12.668   3.275
71008SOL    HW214864   8.068  12.550   3.188
71009SOL     OW14865   9.130  11.558   5.912
71009SOL    HW114866   9.089  11.490   5.965
71009SOL    HW214867   9.166  11.621   5.975
71010SOL     OW14868  12.150  13.594   3.993
71010SOL    HW114869  12.136  13.677   4.039
71010SOL    HW214870  12.129  13.527   4.059
71011SOL     OW14871  11.893  10.964  12.865
71011SOL    HW114872  11.839  11.032  12.825
71011SOL    HW214873  11.844  10.883  12.850
71012SOL     OW14874   3.842   2.794   8.660
71012SOL    HW114875   3.896   2.852   8.606
71012SOL    HW214876   3.777   2.852   8.699
71013SOL     OW14877  13.900   0.508   1.868
71013SOL    HW114878  13.947   0.587   1.840
71013SOL    HW214879  13.853   0.479   1.790
71014SOL     OW14880   6.603   3.512   4.092
71014SOL    HW114881   6.543   3.438   4.089
71014SOL    HW214882   6.571   3.566   4.165
71015SOL     OW14883   3.778   7.064   3.499
71015SOL    HW114884   3.732   7.065   3.415
71015SOL    HW214885   3.864   7.027   3.480
71016SOL     OW14886   4.460   2.005   5.900
71016SOL    HW114887   4.388   1.970   5.952
71016SOL    HW214888   4.418   2.063   5.836
71017SOL     OW14889   7.359   0.530  10.469
71017SOL    HW114890   7.443   0.576  10.479
71017SOL    HW214891   7.311   0.552  10.549
71018SOL     OW14892   9.236   5.618   5.794
71018SOL    HW114893   9.294   5.630   5.719
71018SOL    HW214894   9.169   5.685   5.783
71019SOL     OW14895  11.523   1.580   6.307
71019SOL    HW114896  11.592   1.568   6.242
71019SOL    HW214897  11.569   1.578   6.391
71020SOL     OW14898   6.991   5.417   5.945
71020SOL    HW114899   6.906   5.390   5.979
71020SOL    HW214900   7.036   5.335   5.925
71021SOL     OW14901   0.916   9.409   5.952
71021SOL    HW114902   0.845   9.412   6.016
71021SOL    HW214903   0.980   9.472   5.984
71022SOL     OW14904  10.134   9.628   9.357
71022SOL    HW114905  10.112   9.588   9.441
71022SOL    HW214906  10.173   9.713   9.381
71023SOL     OW14907   4.526   8.319   7.662
71023SOL    HW114908   4.466   8.261   7.615
71023SOL    HW214909   4.477   8.348   7.738
71024SOL     OW14910  12.727   9.881   9.987
71024SOL    HW114911  12.730   9.805   9.930
71024SOL    HW214912  12.819   9.905  10.001
71025SOL     OW14913   7.615  12.458   1.481
71025SOL    HW114914   7.616  12.544   1.440
71025SOL    HW214915   7.523  12.445   1.506
71026SOL     OW14916  10.423  10.996  13.649
71026SOL    HW114917  10.332  11.021  13.665
71026SOL    HW214918  10.449  11.047  13.572
71027SOL     OW14919   5.008   7.170   5.879
71027SOL    HW114920   5.034   7.110   5.950
71027SOL    HW214921   4.976   7.248   5.925
71028SOL     OW14922  10.714   9.300   1.594
71028SOL    HW114923  10.802   9.289   1.558
71028SOL    HW214924  10.716   9.256   1.679
71029SOL     OW14925  11.175  10.239  14.244
71029SOL    HW114926  11.235  10.168  14.219
71029SOL    HW214927  11.139  10.211  14.328
71030SOL     OW14928   5.743  12.705  12.872
71030SOL    HW114929   5.670  12.733  12.817
71030SOL    HW214930   5.740  12.609  12.870
71031SOL     OW14931  11.984   0.746   0.011
71031SOL    HW114932  11.939   0.784   0.086
71031SOL    HW214933  11.914   0.711  14.838
71032SOL     OW14934   7.498   2.426  12.922
71032SOL    HW114935   7.450   2.449  12.843
71032SOL    HW214936   7.515   2.509  12.965
71033SOL     OW14937   2.153   8.835  11.517
71033SOL    HW114938   2.117   8.879  11.439
71033SOL    HW214939   2.189   8.753  11.484
71034SOL     OW14940  13.777  14.235  10.759
71034SOL    HW114941  13.687  14.203  10.754
71034SOL    HW214942  13.822  14.172  10.815
71035SOL     OW14943   9.470   1.696   5.108
71035SOL    HW114944   9.408   1.735   5.170
71035SOL    HW214945   9.448   1.603   5.107
71036SOL     OW14946  12.320   3.823   1.002
71036SOL    HW114947  12.276   3.795   0.921
71036SOL    HW214948  12.377   3.751   1.025
71037SOL     OW14949   1.385  10.276   8.143
71037SOL    HW114950   1.331  10.347   8.179
71037SOL    HW214951   1.359  10.270   8.051
71038SOL     OW14952   0.324  13.485   4.484
71038SOL    HW114953   0.334  13.556   4.547
71038SOL    HW214954   0.413  13.458   4.463
71039SOL     OW14955  10.406   2.679  14.830
71039SOL    HW114956  10.338   2.637   0.001
71039SOL    HW214957  10.360   2.742  14.776
71040SOL     OW14958   0.255   8.856   9.954
71040SOL    HW114959   0.231   8.767   9.926
71040SOL    HW214960   0.328   8.842  10.014
71041SOL     OW14961  11.242   3.787   9.179
71041SOL    HW114962  11.154   3.759   9.205
71041SOL    HW214963  11.300   3.747   9.244
71042SOL     OW14964  14.018   7.718   7.035
71042SOL    HW114965  14.070   7.788   6.996
71042SOL    HW214966  13.938   7.761   7.065
71043SOL     OW14967   6.444   5.703   6.131
71043SOL    HW114968   6.507   5.733   6.197
71043SOL    HW214969   6.497   5.687   6.053
71044SOL     OW14970   4.717   7.286  10.866
71044SOL    HW114971   4.642   7.230  10.884
71044SOL    HW214972   4.695   7.331  10.785
71045SOL     OW14973  12.480  11.816   8.047
71045SOL    HW114974  12.542  11.858   7.987
71045SOL    HW214975  12.446  11.887   8.100
71046SOL     OW14976  14.423   8.680  10.609
71046SOL    HW114977  14.478   8.646  10.679
71046SOL    HW214978  14.408   8.606  10.551
71047SOL     OW14979  12.932   8.133   0.768
71047SOL    HW114980  12.854   8.089   0.802
71047SOL    HW214981  12.985   8.063   0.729
71048SOL     OW14982  10.630  12.349  13.102
71048SOL    HW114983  10.712  12.376  13.060
71048SOL    HW214984  10.598  12.277  13.047
71049SOL     OW14985   8.040   0.948   6.635
71049SOL    HW114986   8.080   1.034   6.649
71049SOL    HW214987   8.052   0.932   6.541
71050SOL     OW14988   7.971   7.602   2.983
71050SOL    HW114989   8.049   7.651   2.958
71050SOL    HW214990   7.953   7.546   2.907
71051SOL     OW14991   8.565   9.252  10.113
71051SOL    HW114992   8.634   9.286  10.056
71051SOL    HW214993   8.500   9.217  10.054
71052SOL     OW14994  12.654  14.384  13.149
71052SOL    HW114995  12.678  14.314  13.210
71052SOL    HW214996  12.695  14.462  13.185
71053SOL     OW14997  12.182  14.089  10.770
71053SOL    HW114998  12.201  14.001  10.739
71053SOL    HW214999  12.265  14.122  10.803
71054SOL     OW15000  11.819  14.421   3.653
71054SOL    HW115001  11.794  14.483   3.721
71054SOL    HW215002  11.899  14.459   3.614
71055SOL     OW15003   7.796   0.330   8.606
71055SOL    HW115004   7.877   0.338   8.555
71055SOL    HW215005   7.752   0.414   8.595
71056SOL     OW15006   0.400   7.689   5.272
71056SOL    HW115007   0.364   7.635   5.202
71056SOL    HW215008   0.495   7.688   5.258
71057SOL     OW15009   6.038   0.266  14.429
71057SOL    HW115010   6.038   0.171  14.420
71057SOL    HW215011   6.052   0.281  14.522
71058SOL     OW15012   1.042  12.744   6.574
71058SOL    HW115013   1.066  12.740   6.667
71058SOL    HW215014   1.006  12.657   6.555
71059SOL     OW15015   2.489   9.831   7.126
71059SOL    HW115016   2.444   9.763   7.076
71059SOL    HW215017   2.468   9.913   7.080
71060SOL     OW15018   0.378   9.409   7.561
71060SOL    HW115019   0.302   9.404   7.504
71060SOL    HW215020   0.362   9.345   7.630
71061SOL     OW15021  10.875   6.848   5.637
71061SOL    HW115022  10.821   6.906   5.691
71061SOL    HW215023  10.959   6.844   5.683
71062SOL     OW15024  14.730  11.185   2.138
71062SOL    HW115025  14.689  11.254   2.086
71062SOL    HW215026  14.806  11.227   2.179
71063SOL     OW15027   8.169  13.359   7.472
71063SOL    HW115028   8.215  13.309   7.539
71063SOL    HW215029   8.184  13.450   7.496
71064SOL     OW15030  14.697   3.044   2.643
71064SOL    HW115031  14.723   2.999   2.563
71064SOL    HW215032  14.639   3.114   2.613
71065SOL     OW15033   2.613   2.192  12.424
71065SOL    HW115034   2.644   2.154  12.506
71065SOL    HW215035   2.682   2.171  12.360
71066SOL     OW15036   4.902   7.112  11.441
71066SOL    HW115037   4.990   7.103  11.404
71066SOL    HW215038   4.869   7.194  11.406
71067SOL     OW15039   4.844  11.815   9.370
71067SOL    HW115040   4.857  11.893   9.316
71067SOL    HW215041   4.790  11.757   9.316
71068SOL     OW15042   4.891   6.422   7.620
71068SOL    HW115043   4.961   6.448   7.679
71068SOL    HW215044   4.904   6.476   7.542
71069SOL     OW15045   8.771  14.427   2.679
71069SOL    HW115046   8.751  14.346   2.726
71069SOL    HW215047   8.793  14.399   2.590
71070SOL     OW15048   9.500   4.893   7.736
71070SOL    HW115049   9.432   4.950   7.771
71070SOL    HW215050   9.535   4.942   7.662
71071SOL     OW15051   5.604  10.483   4.995
71071SOL    HW115052   5.542  10.544   5.034
71071SOL    HW215053   5.586  10.399   5.038
71072SOL     OW15054  14.275   9.377  13.075
71072SOL    HW115055  14.229   9.456  13.045
71072SOL    HW215056  14.352   9.410  13.121
71073SOL     OW15057   5.125   3.737   1.719
71073SOL    HW115058   5.064   3.790   1.770
71073SOL    HW215059   5.127   3.653   1.764
71074SOL     OW15060   2.000   9.543   1.695
71074SOL    HW115061   1.943   9.484   1.645
71074SOL    HW215062   1.941   9.606   1.735
71075SOL     OW15063  13.938  13.385   1.770
71075SOL    HW115064  13.969  13.471   1.798
71075SOL    HW215065  13.881  13.403   1.695
71076SOL     OW15066   9.299   0.698  12.737
71076SOL    HW115067   9.342   0.648  12.806
71076SOL    HW215068   9.370   0.742  12.691
71077SOL     OW15069   1.731   3.614   2.243
71077SOL    HW115070   1.792   3.540   2.245
71077SOL    HW215071   1.759   3.670   2.316
71078SOL     OW15072  11.309   7.289  14.750
71078SOL    HW115073  11.281   7.232  14.679
71078SOL    HW215074  11.337   7.230  14.820
71079SOL     OW15075   3.967   0.027  10.198
71079SOL    HW115076   4.013   0.095  10.247
71079SOL    HW215077   3.962  14.835  10.259
71080SOL     OW15078  14.583   0.743   8.172
71080SOL    HW115079  14.491   0.731   8.198
71080SOL    HW215080  14.628   0.665   8.206
71081SOL     OW15081   0.636  14.715   0.559
71081SOL    HW115082   0.568  14.762   0.608
71081SOL    HW215083   0.682  14.784   0.511
71082SOL     OW15084  13.324   9.295   5.887
71082SOL    HW115085  13.362   9.269   5.803
71082SOL    HW215086  13.278   9.218   5.918
71083SOL     OW15087  14.844   5.500  11.433
71083SOL    HW115088  14.798   5.527  11.512
71083SOL    HW215089   0.054   5.521  11.451
71084SOL     OW15090  12.011   0.937   5.771
71084SOL    HW115091  12.024   0.874   5.700
71084SOL    HW215092  11.950   1.001   5.736
71085SOL     OW15093  12.492  12.527   1.027
71085SOL    HW115094  12.401  12.515   1.055
71085SOL    HW215095  12.544  12.491   1.099
71086SOL     OW15096   3.151  11.862  13.361
71086SOL    HW115097   3.240  11.877  13.327
71086SOL    HW215098   3.165  11.817  13.444
71087SOL     OW15099  14.291   0.003  13.220
71087SOL    HW115100  14.286   0.070  13.152
71087SOL    HW215101  14.207   0.009  13.266
71088SOL     OW15102   8.699   1.513   1.474
71088SOL    HW115103   8.642   1.586   1.451
71088SOL    HW215104   8.777   1.555   1.510
71089SOL     OW15105  12.215   6.248   3.191
71089SOL    HW115106  12.128   6.209   3.205
71089SOL    HW215107  12.224   6.312   3.261
71090SOL     OW15108   4.787   0.119   4.692
71090SOL    HW115109   4.841   0.159   4.760
71090SOL    HW215110   4.845   0.110   4.617
71091SOL     OW15111   3.881   2.154   2.238
71091SOL    HW115112   3.806   2.127   2.291
71091SOL    HW215113   3.872   2.104   2.157
71092SOL     OW15114   8.874   8.577   9.477
71092SOL    HW115115   8.962   8.607   9.457
71092SOL    HW215116   8.822   8.657   9.486
71093SOL     OW15117  10.507   1.723   0.004
71093SOL    HW115118  10.480   1.635  14.860
71093SOL    HW215119  10.558   1.710   0.085
71094SOL     OW15120  14.379   4.169   4.405
71094SOL    HW115121  14.357   4.236   4.470
71094SOL    HW215122  14.294   4.131   4.381
71095SOL     OW15123   6.350  13.992   6.326
71095SOL    HW115124   6.402  13.997   6.246
71095SOL    HW215125   6.336  13.899   6.341
71096SOL     OW15126   2.414   6.922   3.370
71096SOL    HW115127   2.423   6.956   3.280
71096SOL    HW215128   2.355   6.983   3.413
71097SOL     OW15129  10.284   5.099   5.523
71097SOL    HW115130  10.375   5.072   5.512
71097SOL    HW215131  10.252   5.047   5.596
71098SOL     OW15132   8.544   0.455   2.129
71098SOL    HW115133   8.510   0.404   2.055
71098SOL    HW215134   8.546   0.545   2.096
71099SOL     OW15135   8.652  10.965  12.843
71099SOL    HW115136   8.713  11.007  12.782
71099SOL    HW215137   8.684  10.989  12.929
71100SOL     OW15138   3.335   1.878  10.358
71100SOL    HW115139   3.374   1.928  10.430
71100SOL    HW215140   3.269   1.823  10.400
71101SOL     OW15141   1.898  14.415   3.591
71101SOL    HW115142   1.899  14.374   3.505
71101SOL    HW215143   1.859  14.349   3.649
71102SOL     OW15144  12.568   3.549   9.436
71102SOL    HW115145  12.577   3.483   9.504
71102SOL    HW215146  12.525   3.623   9.479
71103SOL     OW15147   3.008   4.218   6.710
71103SOL    HW115148   3.006   4.191   6.802
71103SOL    HW215149   2.940   4.285   6.703
71104SOL     OW15150   6.318   1.246  11.728
71104SOL    HW115151   6.337   1.331  11.767
71104SOL    HW215152   6.247   1.210  11.782
71105SOL     OW15153   7.246   1.693   8.222
71105SOL    HW115154   7.224   1.603   8.201
71105SOL    HW215155   7.166   1.742   8.205
71106SOL     OW15156   6.818   1.520  14.040
71106SOL    HW115157   6.905   1.542  14.074
71106SOL    HW215158   6.761   1.588  14.074
71107SOL     OW15159   8.170   2.026   0.811
71107SOL    HW115160   8.246   2.075   0.779
71107SOL    HW215161   8.110   2.024   0.736
71108SOL     OW15162   8.160  13.193   2.531
71108SOL    HW115163   8.089  13.158   2.477
71108SOL    HW215164   8.217  13.239   2.470
71109SOL     OW15165  10.267   0.748   0.435
71109SOL    HW115166  10.267   0.781   0.345
71109SOL    HW215167  10.294   0.823   0.488
71110SOL     OW15168  13.847  13.478   1.078
71110SOL    HW115169  13.882  13.440   1.159
71110SOL    HW215170  13.808  13.405   1.032
71111SOL     OW15171   0.583   3.032   9.338
71111SOL    HW115172   0.580   2.945   9.299
71111SOL    HW215173   0.626   3.086   9.272
71112SOL     OW15174   7.641   3.031  14.412
71112SOL    HW115175   7.648   3.123  14.438
71112SOL    HW215176   7.729   2.995  14.424
71113SOL     OW15177   9.239   6.654   9.677
71113SOL    HW115178   9.252   6.620   9.766
71113SOL    HW215179   9.153   6.695   9.680
71114SOL     OW15180   6.312   0.792   1.894
71114SOL    HW115181   6.218   0.804   1.908
71114SOL    HW215182   6.353   0.833   1.970
71115SOL     OW15183   1.485   6.263   1.423
71115SOL    HW115184   1.425   6.323   1.379
71115SOL    HW215185   1.568   6.273   1.375
71116SOL     OW15186   9.465  12.220   8.965
71116SOL    HW115187   9.379  12.263   8.957
71116SOL    HW215188   9.503  12.258   9.044
71117SOL     OW15189   3.083   2.847   2.246
71117SOL    HW115190   3.004   2.901   2.245
71117SOL    HW215191   3.076   2.795   2.327
71118SOL     OW15192  10.702  11.426  12.824
71118SOL    HW115193  10.643  11.393  12.892
71118SOL    HW215194  10.726  11.349  12.773
71119SOL     OW15195   1.747  13.717   1.506
71119SOL    HW115196   1.703  13.688   1.427
71119SOL    HW215197   1.713  13.805   1.521
71120SOL     OW15198   7.434   2.851  14.415
71120SOL    HW115199   7.438   2.828  14.508
71120SOL    HW215200   7.506   2.912  14.402
71121SOL     OW15201   6.838   3.863  13.828
71121SOL    HW115202   6.929   3.893  13.830
71121SOL    HW215203   6.817   3.855  13.735
71122SOL     OW15204   1.838   6.000  14.225
71122SOL    HW115205   1.873   5.996  14.314
71122SOL    HW215206   1.904   6.047  14.175
71123SOL     OW15207  12.172  13.972   1.841
71123SOL    HW115208  12.169  13.911   1.914
71123SOL    HW215209  12.106  14.039   1.863
71124SOL     OW15210   0.362   2.281   0.177
71124SOL    HW115211   0.293   2.258   0.114
71124SOL    HW215212   0.406   2.198   0.194
71125SOL     OW15213  14.658   3.032   0.069
71125SOL    HW115214  14.681   2.945   0.037
71125SOL    HW215215  14.615   3.075  14.877
71126SOL     OW15216   0.173   7.017   9.465
71126SOL    HW115217   0.122   7.070   9.526
71126SOL    HW215218   0.113   6.999   9.393
71127SOL     OW15219   9.436  11.253   0.572
71127SOL    HW115220   9.438  11.260   0.667
71127SOL    HW215221   9.355  11.296   0.546
71128SOL     OW15222   9.668   5.628   1.095
71128SOL    HW115223   9.740   5.688   1.114
71128SOL    HW215224   9.589   5.681   1.103
71129SOL     OW15225  12.990   9.246   9.606
71129SOL    HW115226  12.985   9.164   9.657
71129SOL    HW215227  12.957   9.223   9.520
71130SOL     OW15228   0.709   7.103   7.569
71130SOL    HW115229   0.748   7.152   7.496
71130SOL    HW215230   0.778   7.099   7.635
71131SOL     OW15231   6.011   1.302   0.904
71131SOL    HW115232   5.936   1.361   0.906
71131SOL    HW215233   6.065   1.329   0.979
71132SOL     OW15234  11.762   5.177  10.038
71132SOL    HW115235  11.723   5.172   9.951
71132SOL    HW215236  11.856   5.181  10.022
71133SOL     OW15237   4.935   7.334   8.466
71133SOL    HW115238   4.857   7.388   8.454
71133SOL    HW215239   4.908   7.266   8.527
71134SOL     OW15240   1.831  12.652   3.587
71134SOL    HW115241   1.874  12.681   3.506
71134SOL    HW215242   1.765  12.589   3.558
71135SOL     OW15243   0.225   6.801   8.201
71135SOL    HW115244   0.305   6.817   8.250
71135SOL    HW215245   0.254   6.784   8.111
71136SOL     OW15246   6.256   1.152   3.462
71136SOL    HW115247   6.182   1.186   3.512
71136SOL    HW215248   6.289   1.227   3.413
71137SOL     OW15249   8.517   3.372  13.605
71137SOL    HW115250   8.485   3.409  13.687
71137SOL    HW215251   8.547   3.284  13.628
71138SOL     OW15252   7.125  12.038   2.184
71138SOL    HW115253   7.045  11.994   2.155
71138SOL    HW215254   7.192  11.969   2.183
71139SOL     OW15255  12.348   2.032  13.967
71139SOL    HW115256  12.288   2.088  13.917
71139SOL    HW215257  12.329   2.052  14.059
71140SOL     OW15258   8.274   1.330   8.052
71140SOL    HW115259   8.355   1.302   8.009
71140SOL    HW215260   8.228   1.249   8.070
71141SOL     OW15261  14.480  13.947   3.016
71141SOL    HW115262  14.547  14.014   3.030
71141SOL    HW215263  14.530  13.866   3.006
71142SOL     OW15264  10.850   9.301   5.571
71142SOL    HW115265  10.867   9.310   5.477
71142SOL    HW215266  10.763   9.261   5.575
71143SOL     OW15267  10.038   7.785  13.698
71143SOL    HW115268  10.097   7.743  13.761
71143SOL    HW215269  10.017   7.717  13.634
71144SOL     OW15270  12.322   3.355   7.042
71144SOL    HW115271  12.398   3.321   6.993
71144SOL    HW215272  12.262   3.281   7.046
71145SOL     OW15273   5.258   2.509   1.455
71145SOL    HW115274   5.182   2.559   1.485
71145SOL    HW215275   5.220   2.431   1.414
71146SOL     OW15276  11.472   4.957  12.304
71146SOL    HW115277  11.413   5.029  12.325
71146SOL    HW215278  11.415   4.881  12.296
71147SOL     OW15279   6.265   3.820  10.031
71147SOL    HW115280   6.333   3.841  10.096
71147SOL    HW215281   6.231   3.735  10.059
71148SOL     OW15282   5.841   3.563   5.606
71148SOL    HW115283   5.801   3.650   5.611
71148SOL    HW215284   5.924   3.572   5.653
71149SOL     OW15285   9.729   8.608   7.608
71149SOL    HW115286   9.735   8.512   7.602
71149SOL    HW215287   9.749   8.627   7.700
71150SOL     OW15288   7.565   4.228   7.414
71150SOL    HW115289   7.483   4.185   7.392
71150SOL    HW215290   7.626   4.157   7.432
71151SOL     OW15291   7.161  13.665  14.044
71151SOL    HW115292   7.189  13.701  14.128
71151SOL    HW215293   7.074  13.629  14.061
71152SOL     OW15294  10.861   5.304   5.089
71152SOL    HW115295  10.856   5.210   5.072
71152SOL    HW215296  10.903   5.311   5.175
71153SOL     OW15297   1.891   0.173   3.927
71153SOL    HW115298   1.877   0.126   3.845
71153SOL    HW215299   1.895   0.104   3.993
71154SOL     OW15300   9.515  14.100   3.688
71154SOL    HW115301   9.463  14.144   3.621
71154SOL    HW215302   9.561  14.031   3.641
71155SOL     OW15303  12.591   6.600   1.409
71155SOL    HW115304  12.562   6.516   1.373
71155SOL    HW215305  12.515   6.633   1.458
71156SOL     OW15306   7.315  13.241   8.343
71156SOL    HW115307   7.322  13.260   8.250
71156SOL    HW215308   7.244  13.296   8.374
71157SOL     OW15309   3.148   4.691   9.173
71157SOL    HW115310   3.066   4.654   9.139
71157SOL    HW215311   3.128   4.783   9.190
71158SOL     OW15312  12.073  12.064   0.791
71158SOL    HW115313  12.106  12.109   0.868
71158SOL    HW215314  12.068  11.972   0.817
71159SOL     OW15315   0.352   1.696   9.304
71159SOL    HW115316   0.271   1.744   9.285
71159SOL    HW215317   0.331   1.605   9.284
71160SOL     OW15318   4.918  10.365   6.240
71160SOL    HW115319   4.824  10.377   6.239
71160SOL    HW215320   4.952  10.446   6.277
71161SOL     OW15321   8.938   6.503  14.374
71161SOL    HW115322   8.970   6.570  14.314
71161SOL    HW215323   8.854   6.537  14.405
71162SOL     OW15324  12.039   7.003   0.174
71162SOL    HW115325  12.070   7.038   0.257
71162SOL    HW215326  12.011   7.080   0.124
71163SOL     OW15327  12.382   9.152   3.690
71163SOL    HW115328  12.452   9.194   3.739
71163SOL    HW215329  12.401   9.173   3.598
71164SOL     OW15330   3.109   1.492  10.563
71164SOL    HW115331   3.033   1.500  10.506
71164SOL    HW215332   3.072   1.479  10.651
71165SOL     OW15333   1.379   9.499   5.186
71165SOL    HW115334   1.417   9.458   5.108
71165SOL    HW215335   1.301   9.545   5.153
71166SOL     OW15336   9.996   0.245   4.813
71166SOL    HW115337   9.967   0.316   4.755
71166SOL    HW215338   9.919   0.188   4.821
71167SOL     OW15339  14.638   0.251   9.397
71167SOL    HW115340  14.614   0.164   9.429
71167SOL    HW215341  14.590   0.262   9.316
71168SOL     OW15342   5.892   6.107   0.604
71168SOL    HW115343   5.886   6.012   0.610
71168SOL    HW215344   5.806   6.138   0.633
71169SOL     OW15345  10.659  11.101  10.947
71169SOL    HW115346  10.618  11.100  10.861
71169SOL    HW215347  10.617  11.173  10.993
71170SOL     OW15348   3.828   2.793  14.564
71170SOL    HW115349   3.847   2.885  14.543
71170SOL    HW215350   3.776   2.797  14.644
71171SOL     OW15351  11.787   6.616   1.188
71171SOL    HW115352  11.826   6.598   1.102
71171SOL    HW215353  11.692   6.612   1.173
71172SOL     OW15354   5.755   5.990  10.829
71172SOL    HW115355   5.686   5.930  10.856
71172SOL    HW215356   5.821   5.934  10.787
71173SOL     OW15357   7.271  10.145  12.682
71173SOL    HW115358   7.351  10.151  12.734
71173SOL    HW215359   7.300  10.112  12.597
71174SOL     OW15360   8.368   6.341  11.996
71174SOL    HW115361   8.311   6.286  11.941
71174SOL    HW215362   8.328   6.337  12.083
71175SOL     OW15363   3.902   1.517  12.476
71175SOL    HW115364   3.933   1.599  12.516
71175SOL    HW215365   3.865   1.545  12.392
71176SOL     OW15366   1.408  12.918   4.888
71176SOL    HW115367   1.479  12.980   4.905
71176SOL    HW215368   1.432  12.840   4.939
71177SOL     OW15369   6.500   8.365   8.957
71177SOL    HW115370   6.478   8.408   9.040
71177SOL    HW215371   6.590   8.391   8.940
71178SOL     OW15372   3.296  12.827   3.120
71178SOL    HW115373   3.380  12.870   3.135
71178SOL    HW215374   3.307  12.781   3.037
71179SOL     OW15375  13.478  13.829  14.250
71179SOL    HW115376  13.563  13.793  14.275
71179SOL    HW215377  13.423  13.752  14.236
71180SOL     OW15378   7.701   4.885   9.215
71180SOL    HW115379   7.637   4.819   9.188
71180SOL    HW215380   7.660   4.928   9.291
71181SOL     OW15381   7.447   3.594   6.279
71181SOL    HW115382   7.537   3.626   6.274
71181SOL    HW215383   7.401   3.639   6.209
71182SOL     OW15384  14.367   6.738  14.430
71182SOL    HW115385  14.444   6.701  14.473
71182SOL    HW215386  14.396   6.824  14.400
71183SOL     OW15387   1.448   4.944   5.718
71183SOL    HW115388   1.407   4.912   5.798
71183SOL    HW215389   1.510   5.011   5.747
71184SOL     OW15390   0.866   3.665  10.034
71184SOL    HW115391   0.801   3.678   9.965
71184SOL    HW215392   0.821   3.613  10.100
71185SOL     OW15393   0.804   9.623   1.328
71185SOL    HW115394   0.774   9.704   1.369
71185SOL    HW215395   0.846   9.574   1.399
71186SOL     OW15396   6.000   9.971   1.551
71186SOL    HW115397   5.942  10.007   1.618
71186SOL    HW215398   5.962   9.887   1.528
71187SOL     OW15399  11.019   7.003  14.554
71187SOL    HW115400  11.106   7.038  14.536
71187SOL    HW215401  11.006   6.934  14.490
71188SOL     OW15402  14.157   5.598   1.972
71188SOL    HW115403  14.098   5.544   1.919
71188SOL    HW215404  14.188   5.540   2.041
71189SOL     OW15405   5.655  11.596   8.013
71189SOL    HW115406   5.590  11.526   8.021
71189SOL    HW215407   5.728  11.567   8.069
71190SOL     OW15408   6.169   6.940   7.251
71190SOL    HW115409   6.216   6.868   7.293
71190SOL    HW215410   6.084   6.943   7.295
71191SOL     OW15411   9.876  10.398   0.074
71191SOL    HW115412   9.814  10.385   0.002
71191SOL    HW215413   9.825  10.383   0.153
71192SOL     OW15414   9.285  10.469  13.973
71192SOL    HW115415   9.195  10.469  13.939
71192SOL    HW215416   9.330  10.537  13.923
71193SOL     OW15417   1.317   9.830   6.589
71193SOL    HW115418   1.293   9.763   6.652
71193SOL    HW215419   1.242   9.835   6.529
71194SOL     OW15420  14.660   1.982   3.372
71194SOL    HW115421  14.736   1.993   3.314
71194SOL    HW215422  14.596   1.934   3.319
71195SOL     OW15423   8.145  14.039   6.511
71195SOL    HW115424   8.074  14.101   6.529
71195SOL    HW215425   8.204  14.047   6.586
71196SOL     OW15426   8.141   0.743   1.589
71196SOL    HW115427   8.081   0.737   1.515
71196SOL    HW215428   8.099   0.804   1.650
71197SOL     OW15429   1.200  12.103   3.102
71197SOL    HW115430   1.242  12.182   3.137
71197SOL    HW215431   1.273  12.043   3.086
71198SOL     OW15432   6.570  14.095  13.556
71198SOL    HW115433   6.475  14.104  13.563
71198SOL    HW215434   6.593  14.144  13.478
71199SOL     OW15435   6.563  14.012  10.292
71199SOL    HW115436   6.601  14.007  10.204
71199SOL    HW215437   6.474  13.977  10.282
71200SOL     OW15438   5.581   6.055   9.504
71200SOL    HW115439   5.611   5.975   9.460
71200SOL    HW215440   5.623   6.126   9.456
71201SOL     OW15441   3.650  12.936   5.518
71201SOL    HW115442   3.729  12.985   5.495
71201SOL    HW215443   3.679  12.874   5.586
71202SOL     OW15444   4.800  10.813  10.550
71202SOL    HW115445   4.804  10.744  10.484
71202SOL    HW215446   4.761  10.770  10.627
71203SOL     OW15447   9.383   8.289   3.772
71203SOL    HW115448   9.363   8.353   3.705
71203SOL    HW215449   9.359   8.331   3.855
71204SOL     OW15450   3.664  13.226   2.342
71204SOL    HW115451   3.622  13.168   2.278
71204SOL    HW215452   3.747  13.183   2.363
71205SOL     OW15453   8.614   0.009  11.916
71205SOL    HW115454   8.596  14.842  11.996
71205SOL    HW215455   8.677   0.076  11.942
71206SOL     OW15456   8.785   1.726   3.373
71206SOL    HW115457   8.739   1.780   3.309
71206SOL    HW215458   8.735   1.644   3.377
71207SOL     OW15459  10.220   4.027  12.912
71207SOL    HW115460  10.190   3.967  12.980
71207SOL    HW215461  10.167   4.106  12.925
71208SOL     OW15462  13.016  10.062  11.925
71208SOL    HW115463  13.051  10.151  11.929
71208SOL    HW215464  12.993  10.049  11.834
71209SOL     OW15465   1.273   0.644  12.822
71209SOL    HW115466   1.275   0.562  12.870
71209SOL    HW215467   1.223   0.703  12.877
71210SOL     OW15468   0.337   1.779   2.236
71210SOL    HW115469   0.399   1.735   2.178
71210SOL    HW215470   0.266   1.808   2.178
71211SOL     OW15471   4.071   6.413   9.367
71211SOL    HW115472   3.995   6.455   9.326
71211SOL    HW215473   4.063   6.321   9.343
71212SOL     OW15474  10.840   5.089   9.697
71212SOL    HW115475  10.863   4.999   9.677
71212SOL    HW215476  10.908   5.141   9.654
71213SOL     OW15477  10.827  10.137  13.654
71213SOL    HW115478  10.871  10.106  13.574
71213SOL    HW215479  10.894  10.132  13.721
71214SOL     OW15480   2.035   4.025   1.955
71214SOL    HW115481   1.996   4.104   1.994
71214SOL    HW215482   2.064   3.973   2.030
71215SOL     OW15483   0.866  13.162   6.299
71215SOL    HW115484   0.777  13.181   6.330
71215SOL    HW215485   0.870  13.202   6.213
71216SOL     OW15486   3.566   7.787   1.454
71216SOL    HW115487   3.580   7.757   1.544
71216SOL    HW215488   3.613   7.871   1.449
71217SOL     OW15489   2.490   5.296  14.367
71217SOL    HW115490   2.420   5.359  14.352
71217SOL    HW215491   2.566   5.349  14.388
71218SOL     OW15492  13.359   5.160   5.604
71218SOL    HW115493  13.287   5.097   5.607
71218SOL    HW215494  13.335   5.227   5.666
71219SOL     OW15495   4.382   8.247   6.865
71219SOL    HW115496   4.358   8.183   6.932
71219SOL    HW215497   4.299   8.272   6.825
71220SOL     OW15498  10.677   6.914  10.855
71220SOL    HW115499  10.713   6.942  10.939
71220SOL    HW215500  10.673   6.819  10.860
71221SOL     OW15501   5.619   8.601   1.196
71221SOL    HW115502   5.654   8.515   1.219
71221SOL    HW215503   5.697   8.653   1.174
71222SOL     OW15504   9.186   7.394   7.606
71222SOL    HW115505   9.148   7.468   7.653
71222SOL    HW215506   9.217   7.432   7.523
71223SOL     OW15507   6.876  14.087   9.145
71223SOL    HW115508   6.959  14.134   9.156
71223SOL    HW215509   6.812  14.155   9.125
71224SOL     OW15510   0.283   8.643   7.308
71224SOL    HW115511   0.344   8.716   7.322
71224SOL    HW215512   0.335   8.576   7.265
71225SOL     OW15513  12.835   4.717   5.000
71225SOL    HW115514  12.839   4.764   4.916
71225SOL    HW215515  12.923   4.726   5.036
71226SOL     OW15516   9.112  10.439   1.657
71226SOL    HW115517   9.017  10.435   1.670
71226SOL    HW215518   9.127  10.389   1.577
71227SOL     OW15519  12.472   7.035   2.007
71227SOL    HW115520  12.383   7.006   1.989
71227SOL    HW215521  12.484   7.113   1.953
71228SOL     OW15522  14.380  13.790   1.309
71228SOL    HW115523  14.334  13.771   1.391
71228SOL    HW215524  14.388  13.885   1.308
71229SOL     OW15525   6.403   5.183  13.502
71229SOL    HW115526   6.419   5.268  13.461
71229SOL    HW215527   6.343   5.139  13.442
71230SOL     OW15528   5.811  10.018   4.207
71230SOL    HW115529   5.783  10.104   4.176
71230SOL    HW215530   5.793  10.019   4.301
71231SOL     OW15531   9.728  10.246   2.824
71231SOL    HW115532   9.824  10.238   2.824
71231SOL    HW215533   9.712  10.340   2.822
71232SOL     OW15534  14.615  11.982  10.359
71232SOL    HW115535  14.651  11.960  10.273
71232SOL    HW215536  14.605  11.897  10.402
71233SOL     OW15537   8.090   9.700   8.076
71233SOL    HW115538   8.104   9.790   8.106
71233SOL    HW215539   8.157   9.687   8.008
71234SOL     OW15540   5.802  14.115  13.286
71234SOL    HW115541   5.775  14.145  13.373
71234SOL    HW215542   5.859  14.040  13.303
71235SOL     OW15543  14.625  14.591   5.571
71235SOL    HW115544  14.663  14.650   5.507
71235SOL    HW215545  14.654  14.504   5.544
71236SOL     OW15546  10.673   2.487  11.426
71236SOL    HW115547  10.716   2.515  11.345
71236SOL    HW215548  10.742   2.444  11.476
71237SOL     OW15549   8.149   6.401   0.458
71237SOL    HW115550   8.176   6.445   0.378
71237SOL    HW215551   8.097   6.465   0.505
71238SOL     OW15552   3.128   7.259   6.051
71238SOL    HW115553   3.156   7.176   6.088
71238SOL    HW215554   3.205   7.293   6.006
71239SOL     OW15555  12.627  10.430  12.750
71239SOL    HW115556  12.601  10.364  12.814
71239SOL    HW215557  12.573  10.507  12.773
71240SOL     OW15558   4.588   8.542   1.806
71240SOL    HW115559   4.520   8.580   1.861
71240SOL    HW215560   4.670   8.557   1.854
71241SOL     OW15561   3.072  13.585   3.655
71241SOL    HW115562   3.117  13.544   3.582
71241SOL    HW215563   3.098  13.534   3.732
71242SOL     OW15564   4.156   6.642   1.441
71242SOL    HW115565   4.213   6.716   1.422
71242SOL    HW215566   4.071   6.667   1.407
71243SOL     OW15567   4.954  13.651   1.633
71243SOL    HW115568   4.862  13.646   1.659
71243SOL    HW215569   4.961  13.589   1.560
71244SOL     OW15570   8.245   0.303   7.270
71244SOL    HW115571   8.204   0.245   7.334
71244SOL    HW215572   8.180   0.372   7.255
71245SOL     OW15573   1.796   5.011  14.391
71245SOL    HW115574   1.861   5.081  14.381
71245SOL    HW215575   1.733   5.027  14.320
71246SOL     OW15576   4.590  12.758  13.178
71246SOL    HW115577   4.497  12.736  13.175
71246SOL    HW215578   4.629  12.689  13.231
71247SOL     OW15579   0.742  13.269   9.134
71247SOL    HW115580   0.748  13.194   9.193
71247SOL    HW215581   0.808  13.252   9.067
71248SOL     OW15582  12.503   3.592   6.888
71248SOL    HW115583  12.534   3.510   6.926
71248SOL    HW215584  12.563   3.609   6.816
71249SOL     OW15585   5.471  13.563   1.916
71249SOL    HW115586   5.393  13.563   1.971
71249SOL    HW215587   5.463  13.483   1.863
71250SOL     OW15588   7.826   4.737   7.943
71250SOL    HW115589   7.863   4.823   7.964
71250SOL    HW215590   7.898   4.689   7.903
71251SOL     OW15591   9.024   5.299  12.838
71251SOL    HW115592   9.094   5.261  12.785
71251SOL    HW215593   8.971   5.349  12.776
71252SOL     OW15594  11.447   7.444   9.061
71252SOL    HW115595  11.525   7.484   9.022
71252SOL    HW215596  11.481   7.385   9.128
71253SOL     OW15597   3.838  11.061   6.577
71253SOL    HW115598   3.776  11.084   6.647
71253SOL    HW215599   3.886  10.986   6.612
71254SOL     OW15600   7.318  12.828   4.953
71254SOL    HW115601   7.354  12.917   4.950
71254SOL    HW215602   7.276  12.816   4.868
71255SOL     OW15603   1.428  10.616  11.517
71255SOL    HW115604   1.355  10.562  11.487
71255SOL    HW215605   1.495  10.553  11.543
71256SOL     OW15606   7.658   6.986   7.714
71256SOL    HW115607   7.621   6.925   7.778
71256SOL    HW215608   7.753   6.983   7.731
71257SOL     OW15609   4.958   2.106   3.003
71257SOL    HW115610   4.968   2.078   2.912
71257SOL    HW215611   5.036   2.159   3.020
71258SOL     OW15612  13.675   4.889  12.220
71258SOL    HW115613  13.732   4.964  12.236
71258SOL    HW215614  13.736   4.815  12.213
71259SOL     OW15615   0.534   9.163   0.296
71259SOL    HW115616   0.534   9.239   0.354
71259SOL    HW215617   0.474   9.186   0.226
71260SOL     OW15618   8.290  13.911   5.083
71260SOL    HW115619   8.309  13.990   5.033
71260SOL    HW215620   8.276  13.942   5.172
71261SOL     OW15621   5.682   3.584  13.001
71261SOL    HW115622   5.743   3.650  13.034
71261SOL    HW215623   5.610   3.583  13.064
71262SOL     OW15624   2.140   9.327   7.477
71262SOL    HW115625   2.201   9.381   7.426
71262SOL    HW215626   2.123   9.379   7.556
71263SOL     OW15627   5.421   5.956  13.309
71263SOL    HW115628   5.440   5.963  13.402
71263SOL    HW215629   5.481   6.018  13.267
71264SOL     OW15630   4.746   2.933   7.841
71264SOL    HW115631   4.758   2.839   7.829
71264SOL    HW215632   4.713   2.942   7.931
71265SOL     OW15633  11.274   4.036   6.864
71265SOL    HW115634  11.339   4.093   6.823
71265SOL    HW215635  11.189   4.074   6.837
71266SOL     OW15636  10.633   2.021   1.815
71266SOL    HW115637  10.683   2.102   1.811
71266SOL    HW215638  10.550   2.042   1.772
71267SOL     OW15639  10.488   5.092   9.966
71267SOL    HW115640  10.563   5.148   9.951
71267SOL    HW215641  10.420   5.150  10.001
71268SOL     OW15642  11.777  11.226   7.763
71268SOL    HW115643  11.711  11.165   7.797
71268SOL    HW215644  11.726  11.301   7.733
71269SOL     OW15645   0.388   0.504  10.988
71269SOL    HW115646   0.332   0.550  10.925
71269SOL    HW215647   0.408   0.570  11.055
71270SOL     OW15648   1.087   9.832  13.409
71270SOL    HW115649   1.102   9.892  13.482
71270SOL    HW215650   0.997   9.801  13.421
71271SOL     OW15651   1.347  12.670   7.342
71271SOL    HW115652   1.351  12.761   7.313
71271SOL    HW215653   1.334  12.676   7.437
71272SOL     OW15654   2.025  10.126  13.575
71272SOL    HW115655   1.954  10.086  13.625
71272SOL    HW215656   2.098  10.132  13.638
71273SOL     OW15657   1.732   8.194  13.324
71273SOL    HW115658   1.649   8.159  13.358
71273SOL    HW215659   1.721   8.289  13.329
71274SOL     OW15660  10.032  12.879  11.820
71274SOL    HW115661   9.945  12.899  11.785
71274SOL    HW215662  10.029  12.909  11.911
71275SOL     OW15663   1.666   3.025  12.393
71275SOL    HW115664   1.692   3.074  12.315
71275SOL    HW215665   1.577   2.994  12.373
71276SOL     OW15666   5.663   3.866  12.417
71276SOL    HW115667   5.741   3.811  12.405
71276SOL    HW215668   5.690   3.952  12.385
71277SOL     OW15669  10.781  13.261   4.394
71277SOL    HW115670  10.805  13.182   4.344
71277SOL    HW215671  10.699  13.238   4.437
71278SOL     OW15672   3.795   2.484  13.340
71278SOL    HW115673   3.748   2.534  13.407
71278SOL    HW215674   3.886   2.483  13.370
71279SOL     OW15675  11.112   6.666   4.919
71279SOL    HW115676  11.157   6.647   4.836
71279SOL    HW215677  11.174   6.640   4.987
71280SOL     OW15678   5.339   8.570   5.221
71280SOL    HW115679   5.324   8.490   5.171
71280SOL    HW215680   5.321   8.546   5.311
71281SOL     OW15681   6.251  12.491   9.198
71281SOL    HW115682   6.295  12.559   9.148
71281SOL    HW215683   6.255  12.521   9.288
71282SOL     OW15684   7.890   8.531   9.097
71282SOL    HW115685   7.960   8.590   9.126
71282SOL    HW215686   7.932   8.445   9.092
71283SOL     OW15687  12.134   2.992   6.489
71283SOL    HW115688  12.065   2.963   6.430
71283SOL    HW215689  12.111   2.952   6.573
71284SOL     OW15690   6.093   1.318   4.810
71284SOL    HW115691   6.064   1.324   4.901
71284SOL    HW215692   6.157   1.388   4.801
71285SOL     OW15693  11.121   7.103   1.515
71285SOL    HW115694  11.181   7.061   1.576
71285SOL    HW215695  11.158   7.085   1.428
71286SOL     OW15696   3.967  14.609   6.652
71286SOL    HW115697   3.953  14.671   6.581
71286SOL    HW215698   4.012  14.535   6.610
71287SOL     OW15699   4.616   8.745   1.005
71287SOL    HW115700   4.647   8.656   1.023
71287SOL    HW215701   4.649   8.797   1.078
71288SOL     OW15702   9.396   4.067  10.123
71288SOL    HW115703   9.394   4.081  10.028
71288SOL    HW215704   9.474   4.013  10.138
71289SOL     OW15705  12.212   7.648   8.455
71289SOL    HW115706  12.251   7.563   8.476
71289SOL    HW215707  12.137   7.655   8.515
71290SOL     OW15708  13.203   6.297   2.355
71290SOL    HW115709  13.159   6.306   2.440
71290SOL    HW215710  13.218   6.387   2.326
71291SOL     OW15711   3.515   7.590   4.625
71291SOL    HW115712   3.449   7.583   4.695
71291SOL    HW215713   3.549   7.501   4.615
71292SOL     OW15714   6.918  10.948   9.628
71292SOL    HW115715   6.855  10.891   9.584
71292SOL    HW215716   6.936  11.019   9.566
71293SOL     OW15717   0.417   0.225   7.588
71293SOL    HW115718   0.511   0.238   7.576
71293SOL    HW215719   0.380   0.226   7.500
71294SOL     OW15720  13.598  11.721   9.281
71294SOL    HW115721  13.673  11.768   9.246
71294SOL    HW215722  13.603  11.633   9.242
71295SOL     OW15723   9.224  13.264  11.356
71295SOL    HW115724   9.282  13.330  11.395
71295SOL    HW215725   9.210  13.200  11.425
71296SOL     OW15726  14.232  14.789   5.348
71296SOL    HW115727  14.264  14.791   5.257
71296SOL    HW215728  14.290  14.847   5.396
71297SOL     OW15729  11.898   7.185   4.831
71297SOL    HW115730  11.882   7.228   4.915
71297SOL    HW215731  11.857   7.099   4.840
71298SOL     OW15732   5.581   5.845   9.973
71298SOL    HW115733   5.601   5.919   9.915
71298SOL    HW215734   5.589   5.768   9.917
71299SOL     OW15735   9.431   2.941   7.932
71299SOL    HW115736   9.492   3.011   7.956
71299SOL    HW215737   9.399   2.907   8.016
71300SOL     OW15738   3.576   8.380  14.695
71300SOL    HW115739   3.590   8.467  14.658
71300SOL    HW215740   3.564   8.323  14.619
71301SOL     OW15741   0.789   8.864   9.055
71301SOL    HW115742   0.835   8.943   9.028
71301SOL    HW215743   0.852   8.818   9.112
71302SOL     OW15744   0.282   2.702   8.303
71302SOL    HW115745   0.328   2.700   8.386
71302SOL    HW215746   0.274   2.795   8.282
71303SOL     OW15747  12.801  10.915   4.383
71303SOL    HW115748  12.781  10.824   4.408
71303SOL    HW215749  12.856  10.907   4.305
71304SOL     OW15750   3.288   7.552   2.681
71304SOL    HW115751   3.348   7.478   2.668
71304SOL    HW215752   3.319   7.593   2.762
71305SOL     OW15753   3.027  10.187   6.613
71305SOL    HW115754   3.068  10.254   6.558
71305SOL    HW215755   3.020  10.228   6.699
71306SOL     OW15756   3.102  10.393  10.288
71306SOL    HW115757   3.091  10.486  10.265
71306SOL    HW215758   3.055  10.345  10.220
71307SOL     OW15759   0.940   8.546   8.141
71307SOL    HW115760   0.999   8.472   8.157
71307SOL    HW215761   0.996   8.623   8.144
71308SOL     OW15762   5.145   7.697   4.552
71308SOL    HW115763   5.197   7.763   4.598
71308SOL    HW215764   5.106   7.644   4.621
71309SOL     OW15765   3.889  12.717  13.611
71309SOL    HW115766   3.850  12.668  13.683
71309SOL    HW215767   3.983  12.717  13.630
71310SOL     OW15768   7.520   2.159   8.194
71310SOL    HW115769   7.467   2.084   8.221
71310SOL    HW215770   7.610   2.134   8.215
71311SOL     OW15771   5.259   0.889   7.486
71311SOL    HW115772   5.313   0.841   7.550
71311SOL    HW215773   5.179   0.837   7.478
71312SOL     OW15774  14.460   8.072   8.593
71312SOL    HW115775  14.422   8.105   8.675
71312SOL    HW215776  14.508   7.994   8.619
71313SOL     OW15777   2.321   1.239   7.648
71313SOL    HW115778   2.389   1.286   7.697
71313SOL    HW215779   2.240   1.258   7.695
71314SOL     OW15780   0.593   6.067   7.414
71314SOL    HW115781   0.526   6.054   7.347
71314SOL    HW215782   0.628   5.979   7.430
71315SOL     OW15783  10.123   4.996   1.158
71315SOL    HW115784  10.081   5.045   1.229
71315SOL    HW215785  10.073   4.915   1.152
71316SOL     OW15786   7.756  13.343   6.648
71316SOL    HW115787   7.821  13.320   6.582
71316SOL    HW215788   7.672  13.331   6.604
71317SOL     OW15789  12.328  13.531   9.360
71317SOL    HW115790  12.308  13.520   9.453
71317SOL    HW215791  12.413  13.576   9.359
71318SOL     OW15792   5.527   9.356   3.200
71318SOL    HW115793   5.602   9.413   3.218
71318SOL    HW215794   5.564   9.268   3.196
71319SOL     OW15795   6.757  13.281   8.706
71319SOL    HW115796   6.737  13.196   8.666
71319SOL    HW215797   6.804  13.259   8.787
71320SOL     OW15798  11.810   1.323   2.946
71320SOL    HW115799  11.717   1.324   2.970
71320SOL    HW215800  11.810   1.334   2.851
71321SOL     OW15801   9.631   3.123  11.577
71321SOL    HW115802   9.683   3.201  11.597
71321SOL    HW215803   9.606   3.135  11.485
71322SOL     OW15804  10.376  14.328   6.724
71322SOL    HW115805  10.315  14.401   6.713
71322SOL    HW215806  10.325  14.250   6.703
71323SOL     OW15807   6.525  12.529  11.384
71323SOL    HW115808   6.598  12.568  11.432
71323SOL    HW215809   6.560  12.445  11.353
71324SOL     OW15810   5.178  11.667   8.698
71324SOL    HW115811   5.173  11.712   8.782
71324SOL    HW215812   5.233  11.591   8.715
71325SOL     OW15813  11.349   2.894   3.322
71325SOL    HW115814  11.313   2.806   3.318
71325SOL    HW215815  11.306   2.934   3.398
71326SOL     OW15816   4.623  12.735  14.113
71326SOL    HW115817   4.570  12.696  14.043
71326SOL    HW215818   4.713  12.732  14.079
71327SOL     OW15819   4.383  11.242  13.243
71327SOL    HW115820   4.391  11.156  13.202
71327SOL    HW215821   4.443  11.238  13.318
71328SOL     OW15822  10.217   0.378   0.875
71328SOL    HW115823  10.183   0.299   0.833
71328SOL    HW215824  10.246   0.434   0.802
71329SOL     OW15825   0.603  11.378   4.482
71329SOL    HW115826   0.572  11.442   4.545
71329SOL    HW215827   0.533  11.371   4.417
71330SOL     OW15828   1.480  14.626   0.513
71330SOL    HW115829   1.548  14.559   0.500
71330SOL    HW215830   1.462  14.623   0.607
71331SOL     OW15831  11.432   3.994   5.251
71331SOL    HW115832  11.480   4.014   5.332
71331SOL    HW215833  11.357   4.053   5.252
71332SOL     OW15834   4.986   7.571  11.912
71332SOL    HW115835   4.944   7.650  11.877
71332SOL    HW215836   5.017   7.598  11.999
71333SOL     OW15837   0.215   6.396   6.621
71333SOL    HW115838   0.261   6.320   6.584
71333SOL    HW215839   0.224   6.464   6.554
71334SOL     OW15840   4.478   5.211  10.498
71334SOL    HW115841   4.514   5.219  10.587
71334SOL    HW215842   4.395   5.164  10.510
71335SOL     OW15843   6.525   7.533  13.073
71335SOL    HW115844   6.547   7.494  13.157
71335SOL    HW215845   6.493   7.460  13.020
71336SOL     OW15846   8.013  12.362  14.089
71336SOL    HW115847   7.943  12.305  14.056
71336SOL    HW215848   8.060  12.307  14.152
71337SOL     OW15849   4.164  10.668   4.611
71337SOL    HW115850   4.172  10.667   4.707
71337SOL    HW215851   4.111  10.591   4.591
71338SOL     OW15852   9.258  13.587   5.368
71338SOL    HW115853   9.337  13.616   5.324
71338SOL    HW215854   9.211  13.535   5.303
71339SOL     OW15855   7.953   8.397   8.080
71339SOL    HW115856   8.001   8.318   8.053
71339SOL    HW215857   7.861   8.375   8.066
71340SOL     OW15858  11.196  11.034   8.169
71340SOL    HW115859  11.172  10.942   8.182
71340SOL    HW215860  11.202  11.045   8.074
71341SOL     OW15861   5.915   3.958  14.496
71341SOL    HW115862   5.926   3.991  14.585
71341SOL    HW215863   5.840   4.007  14.461
71342SOL     OW15864  11.897  14.772   6.505
71342SOL    HW115865  11.928  14.732   6.586
71342SOL    HW215866  11.854  14.701   6.458
71343SOL     OW15867   0.153   0.376  14.784
71343SOL    HW115868   0.172   0.423  14.703
71343SOL    HW215869   0.227   0.395  14.842
71344SOL     OW15870   2.308   6.528   6.696
71344SOL    HW115871   2.278   6.438   6.682
71344SOL    HW215872   2.396   6.519   6.733
71345SOL     OW15873   6.976   8.809   6.448
71345SOL    HW115874   7.015   8.808   6.536
71345SOL    HW215875   7.008   8.729   6.407
71346SOL     OW15876   2.018   4.723  13.959
71346SOL    HW115877   2.029   4.818  13.970
71346SOL    HW215878   2.008   4.712  13.864
71347SOL     OW15879   5.883  10.075   7.663
71347SOL    HW115880   5.871  10.084   7.568
71347SOL    HW215881   5.941  10.147   7.687
71348SOL     OW15882   6.245   7.953   2.129
71348SOL    HW115883   6.183   8.008   2.177
71348SOL    HW215884   6.248   7.871   2.179
71349SOL     OW15885   2.924   8.398   2.142
71349SOL    HW115886   2.917   8.381   2.048
71349SOL    HW215887   2.847   8.355   2.180
71350SOL     OW15888  12.486   4.224   1.140
71350SOL    HW115889  12.525   4.307   1.111
71350SOL    HW215890  12.506   4.220   1.234
71351SOL     OW15891   0.770   8.860  13.291
71351SOL    HW115892   0.774   8.771  13.326
71351SOL    HW215893   0.861   8.880  13.266
71352SOL     OW15894   6.731   7.300  10.857
71352SOL    HW115895   6.664   7.233  10.868
71352SOL    HW215896   6.813   7.255  10.878
71353SOL     OW15897   2.520   9.217   6.487
71353SOL    HW115898   2.456   9.282   6.458
71353SOL    HW215899   2.494   9.137   6.442
71354SOL     OW15900   7.001  10.142  10.837
71354SOL    HW115901   7.026  10.110  10.750
71354SOL    HW215902   7.005  10.064  10.892
71355SOL     OW15903   8.257   0.549   9.391
71355SOL    HW115904   8.346   0.525   9.365
71355SOL    HW215905   8.202   0.480   9.354
71356SOL     OW15906   3.065   5.665   5.174
71356SOL    HW115907   3.049   5.601   5.105
71356SOL    HW215908   3.071   5.749   5.128
71357SOL     OW15909  10.867   7.971   3.017
71357SOL    HW115910  10.888   7.878   3.019
71357SOL    HW215911  10.806   7.981   2.944
71358SOL     OW15912   8.794   5.101   8.764
71358SOL    HW115913   8.841   5.130   8.843
71358SOL    HW215914   8.830   5.154   8.694
71359SOL     OW15915   5.726  12.631  11.707
71359SOL    HW115916   5.724  12.569  11.633
71359SOL    HW215917   5.801  12.688  11.688
71360SOL     OW15918   0.286   9.403  10.727
71360SOL    HW115919   0.267   9.482  10.777
71360SOL    HW215920   0.340   9.350  10.785
71361SOL     OW15921   7.028   7.657   3.276
71361SOL    HW115922   7.022   7.696   3.363
71361SOL    HW215923   6.948   7.686   3.231
71362SOL     OW15924   8.164   1.337   6.419
71362SOL    HW115925   8.240   1.288   6.452
71362SOL    HW215926   8.199   1.392   6.349
71363SOL     OW15927   7.633  13.811   5.552
71363SOL    HW115928   7.543  13.779   5.557
71363SOL    HW215929   7.624  13.907   5.551
71364SOL     OW15930   7.094  12.224  13.671
71364SOL    HW115931   7.045  12.146  13.647
71364SOL    HW215932   7.027  12.290  13.691
71365SOL     OW15933   3.705   2.478   3.940
71365SOL    HW115934   3.641   2.548   3.954
71365SOL    HW215935   3.785   2.523   3.914
71366SOL     OW15936   3.332   9.444   4.498
71366SOL    HW115937   3.389   9.491   4.438
71366SOL    HW215938   3.288   9.378   4.443
71367SOL     OW15939   2.020   5.484  12.180
71367SOL    HW115940   1.998   5.446  12.095
71367SOL    HW215941   2.025   5.578  12.163
71368SOL     OW15942   6.284   8.137   0.099
71368SOL    HW115943   6.355   8.097   0.050
71368SOL    HW215944   6.317   8.225   0.121
71369SOL     OW15945   9.466   7.756  11.422
71369SOL    HW115946   9.381   7.801  11.428
71369SOL    HW215947   9.530   7.827  11.412
71370SOL     OW15948   4.558  12.286  14.507
71370SOL    HW115949   4.515  12.329  14.581
71370SOL    HW215950   4.646  12.324  14.506
71371SOL     OW15951   2.190   3.417   7.295
71371SOL    HW115952   2.159   3.499   7.258
71371SOL    HW215953   2.169   3.351   7.229
71372SOL     OW15954   5.353   5.242   8.041
71372SOL    HW115955   5.421   5.243   7.974
71372SOL    HW215956   5.394   5.203   8.117
71373SOL     OW15957   2.223  11.966   7.641
71373SOL    HW115958   2.262  11.923   7.565
71373SOL    HW215959   2.146  11.913   7.662
71374SOL     OW15960   7.078  12.535   2.885
71374SOL    HW115961   7.081  12.616   2.936
71374SOL    HW215962   7.155  12.486   2.912
71375SOL     OW15963   3.116  12.511   1.410
71375SOL    HW115964   3.113  12.578   1.479
71375SOL    HW215965   3.120  12.560   1.328
71376SOL     OW15966   4.860   6.622  10.889
71376SOL    HW115967   4.921   6.572  10.835
71376SOL    HW215968   4.775   6.608  10.848
71377SOL     OW15969   5.443   9.962   6.412
71377SOL    HW115970   5.514   9.900   6.429
71377SOL    HW215971   5.391   9.920   6.343
71378SOL     OW15972   9.912   4.904   8.914
71378SOL    HW115973   9.859   4.980   8.937
71378SOL    HW215974   9.891   4.839   8.980
71379SOL     OW15975   8.263   1.506  14.523
71379SOL    HW115976   8.206   1.510  14.446
71379SOL    HW215977   8.291   1.415  14.528
71380SOL     OW15978   1.985   0.923  14.297
71380SOL    HW115979   1.904   0.930  14.349
71380SOL    HW215980   2.047   0.981  14.342
71381SOL     OW15981   5.480  10.896   8.648
71381SOL    HW115982   5.416  10.863   8.586
71381SOL    HW215983   5.565  10.872   8.611
71382SOL     OW15984  10.272   6.176   4.691
71382SOL    HW115985  10.256   6.200   4.783
71382SOL    HW215986  10.217   6.237   4.641
71383SOL     OW15987  10.188   0.576   7.884
71383SOL    HW115988  10.167   0.607   7.972
71383SOL    HW215989  10.175   0.653   7.828
71384SOL     OW15990   3.854   2.591  10.987
71384SOL    HW115991   3.837   2.612  11.079
71384SOL    HW215992   3.769   2.565  10.951
71385SOL     OW15993  11.950  12.213   9.305
71385SOL    HW115994  12.023  12.247   9.253
71385SOL    HW215995  11.875  12.214   9.245
71386SOL     OW15996   5.854  14.705   3.009
71386SOL    HW115997   5.844  14.611   2.990
71386SOL    HW215998   5.901  14.707   3.093
71387SOL     OW15999  12.118   8.147   0.369
71387SOL    HW116000  12.212   8.130   0.374
71387SOL    HW216001  12.110   8.211   0.298
71388SOL     OW16002   6.197   4.099  10.533
71388SOL    HW116003   6.243   4.161  10.477
71388SOL    HW216004   6.106   4.103  10.505
71389SOL     OW16005  12.580  12.031  12.053
71389SOL    HW116006  12.572  12.126  12.043
71389SOL    HW216007  12.615  12.020  12.142
71390SOL     OW16008   8.617   4.423   1.016
71390SOL    HW116009   8.599   4.434   1.109
71390SOL    HW216010   8.580   4.501   0.975
71391SOL     OW16011   4.861   1.927   3.185
71391SOL    HW116012   4.904   1.990   3.127
71391SOL    HW216013   4.827   1.980   3.257
71392SOL     OW16014   5.608   1.625  13.035
71392SOL    HW116015   5.551   1.702  13.036
71392SOL    HW216016   5.616   1.602  12.943
71393SOL     OW16017   2.737  12.581   5.924
71393SOL    HW116018   2.784  12.498   5.928
71393SOL    HW216019   2.645  12.557   5.916
71394SOL     OW16020   3.810   6.958   1.028
71394SOL    HW116021   3.899   6.942   1.059
71394SOL    HW216022   3.813   7.046   0.989
71395SOL     OW16023  12.922   3.373  13.468
71395SOL    HW116024  12.897   3.286  13.437
71395SOL    HW216025  12.933   3.363  13.563
71396SOL     OW16026   2.476   6.560  10.482
71396SOL    HW116027   2.458   6.467  10.465
71396SOL    HW216028   2.493   6.597  10.396
71397SOL     OW16029   9.455  14.740   7.987
71397SOL    HW116030   9.507  14.790   8.049
71397SOL    HW216031   9.515  14.723   7.914
71398SOL     OW16032   1.756   4.226   9.151
71398SOL    HW116033   1.692   4.285   9.189
71398SOL    HW216034   1.840   4.271   9.163
71399SOL     OW16035   6.398   4.299   6.681
71399SOL    HW116036   6.474   4.261   6.724
71399SOL    HW216037   6.342   4.329   6.753
71400SOL     OW16038   0.429   5.145  13.348
71400SOL    HW116039   0.427   5.188  13.262
71400SOL    HW216040   0.454   5.214  13.409
71401SOL     OW16041   0.930  14.796   5.396
71401SOL    HW116042   0.980  14.743   5.459
71401SOL    HW216043   0.839  14.781   5.420
71402SOL     OW16044   6.233   4.201   4.244
71402SOL    HW116045   6.304   4.245   4.291
71402SOL    HW216046   6.277   4.150   4.176
71403SOL     OW16047   9.338  14.175  14.872
71403SOL    HW116048   9.291  14.202  14.793
71403SOL    HW216049   9.342  14.080  14.866
71404SOL     OW16050  10.162   0.629   4.360
71404SOL    HW116051  10.172   0.644   4.454
71404SOL    HW216052  10.117   0.706   4.328
71405SOL     OW16053   2.100   9.827   4.645
71405SOL    HW116054   2.036   9.864   4.583
71405SOL    HW216055   2.175   9.885   4.639
71406SOL     OW16056  13.380   2.983  12.448
71406SOL    HW116057  13.383   2.908  12.507
71406SOL    HW216058  13.396   3.058  12.505
71407SOL     OW16059  11.706   1.052   1.484
71407SOL    HW116060  11.714   1.043   1.390
71407SOL    HW216061  11.614   1.075   1.498
71408SOL     OW16062   6.384  12.848  12.365
71408SOL    HW116063   6.435  12.819  12.290
71408SOL    HW216064   6.447  12.890  12.424
71409SOL     OW16065   3.976   5.256   5.910
71409SOL    HW116066   3.994   5.200   5.834
71409SOL    HW216067   3.923   5.201   5.968
71410SOL     OW16068   9.215  11.406   8.447
71410SOL    HW116069   9.241  11.498   8.436
71410SOL    HW216070   9.150  11.408   8.517
71411SOL     OW16071  11.147  12.806   0.874
71411SOL    HW116072  11.214  12.821   0.941
71411SOL    HW216073  11.064  12.830   0.916
71412SOL     OW16074   5.269  14.459   9.154
71412SOL    HW116075   5.196  14.435   9.098
71412SOL    HW216076   5.310  14.533   9.110
71413SOL     OW16077  13.676  12.717   9.041
71413SOL    HW116078  13.639  12.634   9.073
71413SOL    HW216079  13.766  12.716   9.073
71414SOL     OW16080   2.876   2.564  14.554
71414SOL    HW116081   2.818   2.632  14.520
71414SOL    HW216082   2.963   2.589  14.524
71415SOL     OW16083  10.171   4.247  14.427
71415SOL    HW116084  10.148   4.340  14.422
71415SOL    HW216085  10.248   4.238  14.372
71416SOL     OW16086   0.883  10.762   9.068
71416SOL    HW116087   0.945  10.835   9.062
71416SOL    HW216088   0.799  10.802   9.088
71417SOL     OW16089   9.822   2.721   3.209
71417SOL    HW116090   9.791   2.768   3.131
71417SOL    HW216091   9.913   2.751   3.220
71418SOL     OW16092   2.103   0.399   0.322
71418SOL    HW116093   2.151   0.372   0.244
71418SOL    HW216094   2.128   0.490   0.335
71419SOL     OW16095   0.339   2.788   7.588
71419SOL    HW116096   0.360   2.740   7.668
71419SOL    HW216097   0.400   2.754   7.523
71420SOL     OW16098   0.728  12.650   6.791
71420SOL    HW116099   0.773  12.578   6.747
71420SOL    HW216100   0.753  12.727   6.741
71421SOL     OW16101   8.843   7.307   0.108
71421SOL    HW116102   8.919   7.250   0.100
71421SOL    HW216103   8.870   7.389   0.067
71422SOL     OW16104   1.118  10.306  11.635
71422SOL    HW116105   1.077  10.377  11.684
71422SOL    HW216106   1.045  10.261  11.592
71423SOL     OW16107  12.171   4.116   6.873
71423SOL    HW116108  12.180   4.203   6.834
71423SOL    HW216109  12.086   4.084   6.842
71424SOL     OW16110   3.321   0.461  10.867
71424SOL    HW116111   3.296   0.380  10.823
71424SOL    HW216112   3.239   0.510  10.876
71425SOL     OW16113   6.218   7.577   5.760
71425SOL    HW116114   6.287   7.524   5.800
71425SOL    HW216115   6.145   7.517   5.748
71426SOL     OW16116   5.026  14.379  12.576
71426SOL    HW116117   4.990  14.329  12.649
71426SOL    HW216118   5.004  14.470  12.595
71427SOL     OW16119   7.396  11.206   0.617
71427SOL    HW116120   7.306  11.205   0.649
71427SOL    HW216121   7.413  11.298   0.596
71428SOL     OW16122  13.572  10.720  14.786
71428SOL    HW116123  13.533  10.632  14.791
71428SOL    HW216124  13.663  10.708  14.813
71429SOL     OW16125   1.685   6.593   3.522
71429SOL    HW116126   1.591   6.581   3.537
71429SOL    HW216127   1.726   6.523   3.571
71430SOL     OW16128  13.373   7.972   9.656
71430SOL    HW116129  13.439   8.041   9.666
71430SOL    HW216130  13.296   8.016   9.621
71431SOL     OW16131   8.909   3.985   6.344
71431SOL    HW116132   8.923   3.910   6.402
71431SOL    HW216133   8.865   3.948   6.267
71432SOL     OW16134   9.889   9.592   9.947
71432SOL    HW116135   9.905   9.668   9.892
71432SOL    HW216136   9.948   9.525   9.912
71433SOL     OW16137  13.508   6.303   3.310
71433SOL    HW116138  13.413   6.304   3.324
71433SOL    HW216139  13.532   6.396   3.308
71434SOL     OW16140   6.684   1.799   6.291
71434SOL    HW116141   6.664   1.893   6.288
71434SOL    HW216142   6.779   1.795   6.291
71435SOL     OW16143   2.780   4.855  11.096
71435SOL    HW116144   2.822   4.933  11.134
71435SOL    HW216145   2.742   4.810  11.171
71436SOL     OW16146   3.607   3.001   9.005
71436SOL    HW116147   3.535   3.030   9.061
71436SOL    HW216148   3.685   3.009   9.059
71437SOL     OW16149   3.295   9.752  10.079
71437SOL    HW116150   3.288   9.767   9.985
71437SOL    HW216151   3.388   9.741  10.095
71438SOL     OW16152  12.348  11.084  11.945
71438SOL    HW116153  12.398  11.160  11.974
71438SOL    HW216154  12.270  11.120  11.903
71439SOL     OW16155   1.711   8.586   1.126
71439SOL    HW116156   1.644   8.537   1.175
71439SOL    HW216157   1.672   8.601   1.040
71440SOL     OW16158   0.939   8.882  11.936
71440SOL    HW116159   0.916   8.963  11.981
71440SOL    HW216160   0.928   8.902  11.843
71441SOL     OW16161  10.187   5.826   9.839
71441SOL    HW116162  10.170   5.749   9.785
71441SOL    HW216163  10.170   5.797   9.928
71442SOL     OW16164  11.348   2.177   3.758
71442SOL    HW116165  11.300   2.099   3.731
71442SOL    HW216166  11.280   2.242   3.776
71443SOL     OW16167   7.331   9.814   3.713
71443SOL    HW116168   7.382   9.773   3.784
71443SOL    HW216169   7.396   9.835   3.646
71444SOL     OW16170   3.889   4.124   6.842
71444SOL    HW116171   3.848   4.058   6.786
71444SOL    HW216172   3.820   4.149   6.904
71445SOL     OW16173  14.754   3.658   3.065
71445SOL    HW116174  14.822   3.634   3.001
71445SOL    HW216175  14.796   3.647   3.150
71446SOL     OW16176   6.937   8.680  13.173
71446SOL    HW116177   6.847   8.646  13.180
71446SOL    HW216178   6.976   8.661  13.258
71447SOL     OW16179   2.618   8.621   8.554
71447SOL    HW116180   2.641   8.693   8.496
71447SOL    HW216181   2.702   8.593   8.591
71448SOL     OW16182   7.215  13.017   1.533
71448SOL    HW116183   7.258  12.977   1.458
71448SOL    HW216184   7.279  13.079   1.568
71449SOL     OW16185   8.271  12.711   0.205
71449SOL    HW116186   8.222  12.792   0.220
71449SOL    HW216187   8.208  12.652   0.164
71450SOL     OW16188  13.035  14.099  11.758
71450SOL    HW116189  12.941  14.108  11.773
71450SOL    HW216190  13.070  14.072  11.843
71451SOL     OW16191   4.964  11.531   7.080
71451SOL    HW116192   4.890  11.471   7.074
71451SOL    HW216193   5.003  11.530   6.992
71452SOL     OW16194   4.387  14.798   3.171
71452SOL    HW116195   4.470  14.763   3.203
71452SOL    HW216196   4.360  14.737   3.103
71453SOL     OW16197   7.591  13.320   8.398
71453SOL    HW116198   7.497  13.304   8.384
71453SOL    HW216199   7.635  13.250   8.350
71454SOL     OW16200  10.014   0.008   2.080
71454SOL    HW116201  10.094  14.864   2.034
71454SOL    HW216202   9.990   0.091   2.040
71455SOL     OW16203   0.982  10.125  12.560
71455SOL    HW116204   1.072  10.096  12.546
71455SOL    HW216205   0.953  10.159  12.475
71456SOL     OW16206  11.446   6.912  10.441
71456SOL    HW116207  11.512   6.843  10.443
71456SOL    HW216208  11.422   6.919  10.348
71457SOL     OW16209   5.841   7.248  12.078
71457SOL    HW116210   5.890   7.308  12.021
71457SOL    HW216211   5.783   7.201  12.018
71458SOL     OW16212   0.392  10.676  10.966
71458SOL    HW116213   0.359  10.591  10.936
71458SOL    HW216214   0.365  10.738  10.898
71459SOL     OW16215   7.698   0.181   6.307
71459SOL    HW116216   7.743   0.207   6.387
71459SOL    HW216217   7.749   0.220   6.236
71460SOL     OW16218  12.490   7.750   1.113
71460SOL    HW116219  12.528   7.764   1.200
71460SOL    HW216220  12.559   7.707   1.063
71461SOL     OW16221  13.768  12.114   6.328
71461SOL    HW116222  13.762  12.101   6.423
71461SOL    HW216223  13.812  12.198   6.318
71462SOL     OW16224  14.864   9.067   8.407
71462SOL    HW116225  14.807   9.009   8.456
71462SOL    HW216226   0.066   9.022   8.403
71463SOL     OW16227   9.691   8.690   8.183
71463SOL    HW116228   9.619   8.650   8.231
71463SOL    HW216229   9.734   8.617   8.139
71464SOL     OW16230   9.806   1.374   9.636
71464SOL    HW116231   9.875   1.326   9.591
71464SOL    HW216232   9.737   1.383   9.570
71465SOL     OW16233   4.881  10.744   8.802
71465SOL    HW116234   4.927  10.810   8.854
71465SOL    HW216235   4.834  10.692   8.867
71466SOL     OW16236  12.266   8.752   6.243
71466SOL    HW116237  12.231   8.663   6.248
71466SOL    HW216238  12.324   8.751   6.168
71467SOL     OW16239   5.006   5.402   7.782
71467SOL    HW116240   5.063   5.326   7.790
71467SOL    HW216241   4.924   5.367   7.746
71468SOL     OW16242   8.000   6.773   8.916
71468SOL    HW116243   7.966   6.728   8.838
71468SOL    HW216244   7.966   6.722   8.990
71469SOL     OW16245  12.667   9.629   4.374
71469SOL    HW116246  12.668   9.534   4.384
71469SOL    HW216247  12.747   9.649   4.326
71470SOL     OW16248  11.146   8.023   5.243
71470SOL    HW116249  11.154   7.946   5.298
71470SOL    HW216250  11.229   8.069   5.252
71471SOL     OW16251   3.111  12.805   6.399
71471SOL    HW116252   3.055  12.741   6.443
71471SOL    HW216253   3.051  12.875   6.372
71472SOL     OW16254  14.599   7.535   6.878
71472SOL    HW116255  14.545   7.610   6.854
71472SOL    HW216256  14.688   7.560   6.854
71473SOL     OW16257   7.421  13.899  13.992
71473SOL    HW116258   7.386  13.880  13.905
71473SOL    HW216259   7.382  13.983  14.016
71474SOL     OW16260   7.334  13.759  10.083
71474SOL    HW116261   7.409  13.704  10.105
71474SOL    HW216262   7.349  13.784   9.992
71475SOL     OW16263   7.529  13.916   5.162
71475SOL    HW116264   7.542  13.999   5.206
71475SOL    HW216265   7.438  13.919   5.132
71476SOL     OW16266  14.173   3.398   5.649
71476SOL    HW116267  14.198   3.415   5.558
71476SOL    HW216268  14.084   3.364   5.643
71477SOL     OW16269  14.198   1.371  12.100
71477SOL    HW116270  14.139   1.414  12.038
71477SOL    HW216271  14.141   1.332  12.165
71478SOL     OW16272   4.711   5.831   0.478
71478SOL    HW116273   4.750   5.915   0.457
71478SOL    HW216274   4.620   5.851   0.498
71479SOL     OW16275  11.289   0.495   9.260
71479SOL    HW116276  11.269   0.565   9.198
71479SOL    HW216277  11.205   0.457   9.283
71480SOL     OW16278   3.806   8.932   4.725
71480SOL    HW116279   3.879   8.871   4.734
71480SOL    HW216280   3.841   9.006   4.677
71481SOL     OW16281   2.380  10.026  14.215
71481SOL    HW116282   2.364  10.035  14.121
71481SOL    HW216283   2.338  10.103  14.254
71482SOL     OW16284   6.466   9.690   1.506
71482SOL    HW116285   6.431   9.649   1.586
71482SOL    HW216286   6.555   9.718   1.531
71483SOL     OW16287   8.235  12.861  13.157
71483SOL    HW116288   8.163  12.857  13.093
71483SOL    HW216289   8.245  12.954  13.175
71484SOL     OW16290   9.102   5.164  10.862
71484SOL    HW116291   9.087   5.078  10.822
71484SOL    HW216292   9.039   5.222  10.819
71485SOL     OW16293   7.009   7.404   5.415
71485SOL    HW116294   7.081   7.457   5.378
71485SOL    HW216295   7.033   7.314   5.394
71486SOL     OW16296   5.906  11.810  14.822
71486SOL    HW116297   5.981  11.753  14.802
71486SOL    HW216298   5.859  11.819  14.740
71487SOL     OW16299  12.050   4.747   9.223
71487SOL    HW116300  12.081   4.657   9.231
71487SOL    HW216301  12.125   4.801   9.246
71488SOL     OW16302   6.106   6.622   5.750
71488SOL    HW116303   6.173   6.558   5.725
71488SOL    HW216304   6.070   6.587   5.832
71489SOL     OW16305   5.499   6.105  11.125
71489SOL    HW116306   5.465   6.109  11.036
71489SOL    HW216307   5.429   6.143  11.179
71490SOL     OW16308   7.097   6.390  11.178
71490SOL    HW116309   7.112   6.399  11.084
71490SOL    HW216310   7.016   6.340  11.185
71491SOL     OW16311  13.112   0.605   2.960
71491SOL    HW116312  13.102   0.541   2.890
71491SOL    HW216313  13.027   0.649   2.965
71492SOL     OW16314  10.522  10.581   5.746
71492SOL    HW116315  10.536  10.658   5.801
71492SOL    HW216316  10.519  10.616   5.657
71493SOL     OW16317  11.714   5.653  14.437
71493SOL    HW116318  11.692   5.711  14.509
71493SOL    HW216319  11.663   5.573  14.454
71494SOL     OW16320  13.630  11.711  13.201
71494SOL    HW116321  13.625  11.672  13.288
71494SOL    HW216322  13.569  11.660  13.147
71495SOL     OW16323  13.612  11.659  11.270
71495SOL    HW116324  13.591  11.662  11.363
71495SOL    HW216325  13.699  11.699  11.265
71496SOL     OW16326   9.542   2.199  14.559
71496SOL    HW116327   9.516   2.169  14.472
71496SOL    HW216328   9.472   2.169  14.617
71497SOL     OW16329  10.729   2.135  12.669
71497SOL    HW116330  10.733   2.082  12.748
71497SOL    HW216331  10.802   2.195  12.676
71498SOL     OW16332   5.211   5.353  13.620
71498SOL    HW116333   5.163   5.281  13.662
71498SOL    HW216334   5.152   5.428  13.628
71499SOL     OW16335   6.077   4.766  12.310
71499SOL    HW116336   6.116   4.701  12.252
71499SOL    HW216337   6.093   4.732  12.398
71500SOL     OW16338   2.691   6.260   5.458
71500SOL    HW116339   2.704   6.197   5.388
71500SOL    HW216340   2.737   6.223   5.533
71501SOL     OW16341   9.406   0.829  12.294
71501SOL    HW116342   9.408   0.734  12.305
71501SOL    HW216343   9.315   0.853  12.310
71502SOL     OW16344   2.520   8.039  13.613
71502SOL    HW116345   2.558   7.981  13.546
71502SOL    HW216346   2.546   8.127  13.586
71503SOL     OW16347   8.878   3.037   0.497
71503SOL    HW116348   8.832   2.958   0.527
71503SOL    HW216349   8.859   3.041   0.403
71504SOL     OW16350  14.035  12.169   2.981
71504SOL    HW116351  14.050  12.260   3.004
71504SOL    HW216352  13.942  12.164   2.959
71505SOL     OW16353  14.827   7.791  13.186
71505SOL    HW116354  14.831   7.852  13.113
71505SOL    HW216355  14.761   7.727  13.161
71506SOL     OW16356   2.146   7.494   6.828
71506SOL    HW116357   2.135   7.485   6.922
71506SOL    HW216358   2.183   7.411   6.800
71507SOL     OW16359   9.619   6.902   3.172
71507SOL    HW116360   9.591   6.893   3.263
71507SOL    HW216361   9.691   6.965   3.175
71508SOL     OW16362   5.216   3.024  13.878
71508SOL    HW116363   5.290   2.963  13.882
71508SOL    HW216364   5.188   3.021  13.786
71509SOL     OW16365   1.728   7.844   8.606
71509SOL    HW116366   1.782   7.844   8.527
71509SOL    HW216367   1.791   7.842   8.678
71510SOL     OW16368   5.649   1.845  11.666
71510SOL    HW116369   5.619   1.757  11.687
71510SOL    HW216370   5.668   1.884  11.752
71511SOL     OW16371  13.318  10.296   3.448
71511SOL    HW116372  13.223  10.291   3.455
71511SOL    HW216373  13.348  10.206   3.458
71512SOL     OW16374   0.127   6.605   4.516
71512SOL    HW116375   0.141   6.637   4.605
71512SOL    HW216376   0.031   6.603   4.506
71513SOL     OW16377  13.244  11.304  14.313
71513SOL    HW116378  13.321  11.254  14.340
71513SOL    HW216379  13.176  11.279  14.375
71514SOL     OW16380  10.824   8.745  12.505
71514SOL    HW116381  10.775   8.670  12.469
71514SOL    HW216382  10.756   8.803  12.539
71515SOL     OW16383   9.335  13.097  13.267
71515SOL    HW116384   9.262  13.157  13.283
71515SOL    HW216385   9.303  13.012  13.297
71516SOL     OW16386  12.153  10.324   5.488
71516SOL    HW116387  12.109  10.273   5.556
71516SOL    HW216388  12.087  10.332   5.419
71517SOL     OW16389  14.113  10.426  13.112
71517SOL    HW116390  14.100  10.417  13.206
71517SOL    HW216391  14.196  10.381  13.095
71518SOL     OW16392   3.246   7.014  11.217
71518SOL    HW116393   3.300   7.039  11.142
71518SOL    HW216394   3.253   6.918  11.221
71519SOL     OW16395  10.504   0.714  14.020
71519SOL    HW116396  10.442   0.725  13.948
71519SOL    HW216397  10.589   0.699  13.977
71520SOL     OW16398  12.533  11.179  13.032
71520SOL    HW116399  12.497  11.110  13.088
71520SOL    HW216400  12.555  11.134  12.950
71521SOL     OW16401   8.362   0.538   1.033
71521SOL    HW116402   8.377   0.602   0.963
71521SOL    HW216403   8.278   0.563   1.071
71522SOL     OW16404   5.719   1.053  11.843
71522SOL    HW116405   5.671   1.041  11.925
71522SOL    HW216406   5.688   0.983  11.787
71523SOL     OW16407   7.825   9.655   6.016
71523SOL    HW116408   7.891   9.587   6.001
71523SOL    HW216409   7.855   9.730   5.965
71524SOL     OW16410   2.569  11.148   5.603
71524SOL    HW116411   2.532  11.236   5.591
71524SOL    HW216412   2.646  11.147   5.547
71525SOL     OW16413   4.023  13.319   8.213
71525SOL    HW116414   4.066  13.329   8.128
71525SOL    HW216415   4.004  13.226   8.220
71526SOL     OW16416  11.166   0.707   8.240
71526SOL    HW116417  11.087   0.720   8.291
71526SOL    HW216418  11.234   0.691   8.306
71527SOL     OW16419   2.004  14.772   2.608
71527SOL    HW116420   2.094  14.745   2.591
71527SOL    HW216421   1.950  14.711   2.558
71528SOL     OW16422   7.609  12.705   2.684
71528SOL    HW116423   7.544  12.676   2.747
71528SOL    HW216424   7.692  12.696   2.729
71529SOL     OW16425  13.612   6.951   2.207
71529SOL    HW116426  13.567   6.972   2.289
71529SOL    HW216427  13.643   6.862   2.218
71530SOL     OW16428  11.516  11.797   4.997
71530SOL    HW116429  11.608  11.794   5.022
71530SOL    HW216430  11.510  11.738   4.922
71531SOL     OW16431   2.145  12.516  14.468
71531SOL    HW116432   2.174  12.556  14.386
71531SOL    HW216433   2.126  12.425  14.445
71532SOL     OW16434   8.873   5.715   1.768
71532SOL    HW116435   8.817   5.719   1.690
71532SOL    HW216436   8.871   5.623   1.794
71533SOL     OW16437  14.862   3.374   0.295
71533SOL    HW116438   0.018   3.461   0.286
71533SOL    HW216439  14.769   3.386   0.273
71534SOL     OW16440   9.729  13.860   7.984
71534SOL    HW116441   9.805  13.849   7.928
71534SOL    HW216442   9.654  13.859   7.924
71535SOL     OW16443  11.413  12.302  12.694
71535SOL    HW116444  11.500  12.281  12.728
71535SOL    HW216445  11.389  12.225  12.642
71536SOL     OW16446  14.774   8.282   2.531
71536SOL    HW116447  14.821   8.285   2.447
71536SOL    HW216448  14.682   8.267   2.506
71537SOL     OW16449   9.666   5.447   5.062
71537SOL    HW116450   9.610   5.373   5.040
71537SOL    HW216451   9.754   5.411   5.063
71538SOL     OW16452   4.770   4.758   1.417
71538SOL    HW116453   4.804   4.807   1.343
71538SOL    HW216454   4.742   4.674   1.380
71539SOL     OW16455   0.459   0.422   7.809
71539SOL    HW116456   0.442   0.358   7.740
71539SOL    HW216457   0.524   0.380   7.865
71540SOL     OW16458  11.326  14.341   5.526
71540SOL    HW116459  11.398  14.403   5.526
71540SOL    HW216460  11.362  14.262   5.484
71541SOL     OW16461   5.103   0.073  10.984
71541SOL    HW116462   5.181   0.021  10.964
71541SOL    HW216463   5.095   0.068  11.079
71542SOL     OW16464   3.355  11.328  11.184
71542SOL    HW116465   3.372  11.282  11.102
71542SOL    HW216466   3.402  11.277  11.250
71543SOL     OW16467   1.061  14.468   4.704
71543SOL    HW116468   1.013  14.458   4.621
71543SOL    HW216469   1.104  14.383   4.716
71544SOL     OW16470  10.608   9.240   3.768
71544SOL    HW116471  10.608   9.204   3.856
71544SOL    HW216472  10.568   9.327   3.778
71545SOL     OW16473   7.242   3.093  10.711
71545SOL    HW116474   7.239   3.081  10.616
71545SOL    HW216475   7.297   3.170  10.723
71546SOL     OW16476  14.711  14.465   4.048
71546SOL    HW116477  14.714  14.459   4.144
71546SOL    HW216478  14.802  14.461   4.021
71547SOL     OW16479   4.838   7.203  13.854
71547SOL    HW116480   4.770   7.245  13.906
71547SOL    HW216481   4.802   7.201  13.765
71548SOL     OW16482   5.763   7.857  12.013
71548SOL    HW116483   5.777   7.924  12.079
71548SOL    HW216484   5.762   7.905  11.930
71549SOL     OW16485   4.110   0.412   8.445
71549SOL    HW116486   4.024   0.427   8.483
71549SOL    HW216487   4.125   0.486   8.386
71550SOL     OW16488   3.694   7.046  13.310
71550SOL    HW116489   3.665   6.987  13.379
71550SOL    HW216490   3.625   7.042  13.244
71551SOL     OW16491  10.098   6.394   9.859
71551SOL    HW116492  10.092   6.375   9.953
71551SOL    HW216493  10.191   6.407   9.843
71552SOL     OW16494  13.586   4.052   5.370
71552SOL    HW116495  13.670   4.090   5.396
71552SOL    HW216496  13.529   4.128   5.356
71553SOL     OW16497   9.341   7.367   9.250
71553SOL    HW116498   9.315   7.459   9.253
71553SOL    HW216499   9.343   7.340   9.342
71554SOL     OW16500   3.098   3.874  14.782
71554SOL    HW116501   3.093   3.821  14.702
71554SOL    HW216502   3.081   3.812  14.853
71555SOL     OW16503   3.617   2.314   6.409
71555SOL    HW116504   3.654   2.233   6.443
71555SOL    HW216505   3.576   2.289   6.326
71556SOL     OW16506   5.744  12.515   9.170
71556SOL    HW116507   5.687  12.588   9.143
71556SOL    HW216508   5.807  12.555   9.230
71557SOL     OW16509   9.104   9.440   4.378
71557SOL    HW116510   9.133   9.354   4.410
71557SOL    HW216511   9.034   9.420   4.317
71558SOL     OW16512  10.964  12.581   0.734
71558SOL    HW116513  11.035  12.643   0.749
71558SOL    HW216514  10.891  12.616   0.784
71559SOL     OW16515  14.857   6.091   3.621
71559SOL    HW116516   0.033   6.094   3.545
71559SOL    HW216517  14.838   6.183   3.640
71560SOL     OW16518  10.127  11.646   7.837
71560SOL    HW116519  10.187  11.686   7.900
71560SOL    HW216520  10.153  11.682   7.752
71561SOL     OW16521  10.779  10.619   1.924
71561SOL    HW116522  10.734  10.534   1.919
71561SOL    HW216523  10.708  10.683   1.927
71562SOL     OW16524  10.611   0.084   7.098
71562SOL    HW116525  10.669   0.160   7.101
71562SOL    HW216526  10.543   0.108   7.034
71563SOL     OW16527   6.914   8.539   4.880
71563SOL    HW116528   6.992   8.544   4.935
71563SOL    HW216529   6.862   8.468   4.918
71564SOL     OW16530   0.461   5.560   3.771
71564SOL    HW116531   0.382   5.528   3.816
71564SOL    HW216532   0.451   5.655   3.771
71565SOL     OW16533   3.783   7.218   7.000
71565SOL    HW116534   3.739   7.275   7.064
71565SOL    HW216535   3.876   7.222   7.025
71566SOL     OW16536  12.350  12.474   8.973
71566SOL    HW116537  12.292  12.413   8.929
71566SOL    HW216538  12.438  12.444   8.951
71567SOL     OW16539   3.833   4.630   3.743
71567SOL    HW116540   3.860   4.551   3.790
71567SOL    HW216541   3.790   4.598   3.664
71568SOL     OW16542  12.745   2.512  10.476
71568SOL    HW116543  12.830   2.532  10.436
71568SOL    HW216544  12.751   2.546  10.565
71569SOL     OW16545   3.950   4.574   1.353
71569SOL    HW116546   3.990   4.620   1.279
71569SOL    HW216547   3.885   4.517   1.314
71570SOL     OW16548   0.989   4.388   7.985
71570SOL    HW116549   0.962   4.364   8.073
71570SOL    HW216550   0.932   4.337   7.928
71571SOL     OW16551  14.371   3.161  13.007
71571SOL    HW116552  14.438   3.106  12.967
71571SOL    HW216553  14.376   3.140  13.100
71572SOL     OW16554   2.121   2.562  10.565
71572SOL    HW116555   2.147   2.565  10.473
71572SOL    HW216556   2.069   2.482  10.572
71573SOL     OW16557   6.758  13.519   8.541
71573SOL    HW116558   6.707  13.593   8.508
71573SOL    HW216559   6.693  13.452   8.561
71574SOL     OW16560   8.670   6.516  10.443
71574SOL    HW116561   8.607   6.506  10.515
71574SOL    HW216562   8.678   6.610  10.431
71575SOL     OW16563   6.089   8.489  14.863
71575SOL    HW116564   6.143   8.457   0.054
71575SOL    HW216565   6.004   8.507   0.021
71576SOL     OW16566   0.091  12.835   1.516
71576SOL    HW116567  14.878  12.837   1.528
71576SOL    HW216568   0.125  12.795   1.596
71577SOL     OW16569  13.713   9.087   8.541
71577SOL    HW116570  13.639   9.091   8.481
71577SOL    HW216571  13.788   9.117   8.489
71578SOL     OW16572   9.529   7.790  10.424
71578SOL    HW116573   9.582   7.743  10.487
71578SOL    HW216574   9.495   7.865  10.472
71579SOL     OW16575  14.352   2.857   2.834
71579SOL    HW116576  14.407   2.795   2.786
71579SOL    HW216577  14.364   2.834   2.926
71580SOL     OW16578   5.623   7.436   7.653
71580SOL    HW116579   5.699   7.381   7.668
71580SOL    HW216580   5.549   7.375   7.649
71581SOL     OW16581   0.071   3.759   4.971
71581SOL    HW116582   0.040   3.805   5.049
71581SOL    HW216583   0.154   3.801   4.949
71582SOL     OW16584   6.996   7.436  10.045
71582SOL    HW116585   6.935   7.510  10.051
71582SOL    HW216586   6.948   7.370   9.994
71583SOL     OW16587  12.275   1.580   0.986
71583SOL    HW116588  12.214   1.652   0.970
71583SOL    HW216589  12.238   1.506   0.939
71584SOL     OW16590   2.953   8.194  12.360
71584SOL    HW116591   2.920   8.238  12.282
71584SOL    HW216592   3.002   8.262  12.407
71585SOL     OW16593   3.812   9.249   0.856
71585SOL    HW116594   3.825   9.221   0.766
71585SOL    HW216595   3.767   9.333   0.850
71586SOL     OW16596   7.829  11.351   9.948
71586SOL    HW116597   7.849  11.421  10.010
71586SOL    HW216598   7.910  11.301   9.941
71587SOL     OW16599  14.234  13.867  14.690
71587SOL    HW116600  14.313  13.861  14.636
71587SOL    HW216601  14.253  13.812  14.766
71588SOL     OW16602   9.681   0.911   6.175
71588SOL    HW116603   9.605   0.948   6.219
71588SOL    HW216604   9.753   0.969   6.199
71589SOL     OW16605   9.601   6.135  12.016
71589SOL    HW116606   9.604   6.219  11.971
71589SOL    HW216607   9.639   6.152  12.102
71590SOL     OW16608   8.635   1.081   6.965
71590SOL    HW116609   8.695   1.030   7.019
71590SOL    HW216610   8.551   1.073   7.009
71591SOL     OW16611   0.289   7.477  11.192
71591SOL    HW116612   0.329   7.552  11.148
71591SOL    HW216613   0.280   7.505  11.283
71592SOL     OW16614   1.570   2.760  13.007
71592SOL    HW116615   1.604   2.768  12.918
71592SOL    HW216616   1.586   2.668  13.031
71593SOL     OW16617   6.739  14.257   1.031
71593SOL    HW116618   6.719  14.285   0.942
71593SOL    HW216619   6.684  14.313   1.087
71594SOL     OW16620   9.003  10.255   0.827
71594SOL    HW116621   8.955  10.239   0.908
71594SOL    HW216622   8.935  10.257   0.759
71595SOL     OW16623   6.988   8.249   8.728
71595SOL    HW116624   7.003   8.221   8.819
71595SOL    HW216625   6.912   8.199   8.699
71596SOL     OW16626  10.256   4.584   0.190
71596SOL    HW116627  10.212   4.581   0.275
71596SOL    HW216628  10.257   4.493   0.161
71597SOL     OW16629  13.882   5.396   7.042
71597SOL    HW116630  13.843   5.428   6.961
71597SOL    HW216631  13.893   5.302   7.028
71598SOL     OW16632   4.709   8.729  14.328
71598SOL    HW116633   4.751   8.777  14.258
71598SOL    HW216634   4.728   8.637  14.310
71599SOL     OW16635   5.506  12.872   7.091
71599SOL    HW116636   5.572  12.930   7.128
71599SOL    HW216637   5.445  12.929   7.045
71600SOL     OW16638   6.680   5.045   1.361
71600SOL    HW116639   6.742   5.036   1.433
71600SOL    HW216640   6.594   5.040   1.403
71601SOL     OW16641   3.268   1.264   2.109
71601SOL    HW116642   3.349   1.237   2.067
71601SOL    HW216643   3.294   1.332   2.171
71602SOL     OW16644   9.040  14.697   6.715
71602SOL    HW116645   9.029  14.646   6.796
71602SOL    HW216646   9.080  14.779   6.744
71603SOL     OW16647   9.799   0.561   7.956
71603SOL    HW116648   9.818   0.472   7.926
71603SOL    HW216649   9.796   0.613   7.876
71604SOL     OW16650   8.544  11.662  13.166
71604SOL    HW116651   8.623  11.706  13.198
71604SOL    HW216652   8.525  11.704  13.083
71605SOL     OW16653   9.213   3.033  13.749
71605SOL    HW116654   9.199   3.073  13.664
71605SOL    HW216655   9.163   2.952  13.747
71606SOL     OW16656   4.045  14.385  13.481
71606SOL    HW116657   4.094  14.331  13.419
71606SOL    HW216658   4.061  14.344  13.566
71607SOL     OW16659   2.165   8.438   4.376
71607SOL    HW116660   2.105   8.466   4.306
71607SOL    HW216661   2.200   8.355   4.345
71608SOL     OW16662   2.019   5.729   0.360
71608SOL    HW116663   2.097   5.701   0.312
71608SOL    HW216664   2.042   5.815   0.395
71609SOL     OW16665  11.805  10.855   1.846
71609SOL    HW116666  11.849  10.809   1.775
71609SOL    HW216667  11.736  10.905   1.803
71610SOL     OW16668   9.810  14.557  14.394
71610SOL    HW116669   9.812  14.567  14.298
71610SOL    HW216670   9.890  14.600  14.424
71611SOL     OW16671  13.188  12.677   1.843
71611SOL    HW116672  13.254  12.620   1.884
71611SOL    HW216673  13.190  12.654   1.750
71612SOL     OW16674   5.619   6.136  13.215
71612SOL    HW116675   5.594   6.217  13.260
71612SOL    HW216676   5.616   6.159  13.122
71613SOL     OW16677   7.717   9.093   1.596
71613SOL    HW116678   7.724   9.003   1.628
71613SOL    HW216679   7.772   9.094   1.517
71614SOL     OW16680   7.658   1.114   7.374
71614SOL    HW116681   7.670   1.119   7.469
71614SOL    HW216682   7.575   1.069   7.362
71615SOL     OW16683   3.283   4.850   0.931
71615SOL    HW116684   3.263   4.863   0.838
71615SOL    HW216685   3.379   4.854   0.936
71616SOL     OW16686   8.278   2.899   1.626
71616SOL    HW116687   8.289   2.943   1.710
71616SOL    HW216688   8.297   2.967   1.561
71617SOL     OW16689   6.866   4.082   5.313
71617SOL    HW116690   6.833   4.003   5.357
71617SOL    HW216691   6.844   4.154   5.373
71618SOL     OW16692  10.464   7.817  10.420
71618SOL    HW116693  10.377   7.838  10.452
71618SOL    HW216694  10.509   7.778  10.495
71619SOL     OW16695  14.835   5.822  12.030
71619SOL    HW116696  14.808   5.732  12.016
71619SOL    HW216697   0.047   5.817  12.047
71620SOL     OW16698   6.410  10.528   2.546
71620SOL    HW116699   6.322  10.541   2.512
71620SOL    HW216700   6.433  10.612   2.586
71621SOL     OW16701  11.023  13.580   6.616
71621SOL    HW116702  10.958  13.537   6.561
71621SOL    HW216703  10.994  13.564   6.706
71622SOL     OW16704   4.300   7.974   3.022
71622SOL    HW116705   4.220   7.994   2.974
71622SOL    HW216706   4.272   7.915   3.092
71623SOL     OW16707   0.813   1.627   2.506
71623SOL    HW116708   0.878   1.667   2.565
71623SOL    HW216709   0.847   1.540   2.488
71624SOL     OW16710   0.452  11.860   2.052
71624SOL    HW116711   0.516  11.884   2.119
71624SOL    HW216712   0.380  11.821   2.101
71625SOL     OW16713   5.200   3.005   2.972
71625SOL    HW116714   5.124   2.994   2.914
71625SOL    HW216715   5.162   3.023   3.058
71626SOL     OW16716  13.260   1.101  10.817
71626SOL    HW116717  13.188   1.110  10.755
71626SOL    HW216718  13.218   1.080  10.900
71627SOL     OW16719   9.857  10.843   9.287
71627SOL    HW116720   9.940  10.795   9.289
71627SOL    HW216721   9.858  10.887   9.202
71628SOL     OW16722   8.847   9.352  12.783
71628SOL    HW116723   8.918   9.411  12.808
71628SOL    HW216724   8.839   9.363  12.688
71629SOL     OW16725  12.203  11.801   8.089
71629SOL    HW116726  12.165  11.757   8.013
71629SOL    HW216727  12.294  11.770   8.092
71630SOL     OW16728  12.604  10.025  14.118
71630SOL    HW116729  12.514  10.055  14.103
71630SOL    HW216730  12.618  10.038  14.212
71631SOL     OW16731  13.349   7.403   8.402
71631SOL    HW116732  13.287   7.434   8.468
71631SOL    HW216733  13.360   7.310   8.421
71632SOL     OW16734  14.150  14.641  14.547
71632SOL    HW116735  14.235  14.600  14.563
71632SOL    HW216736  14.154  14.671  14.457
71633SOL     OW16737  11.570   4.892   7.964
71633SOL    HW116738  11.588   4.985   7.969
71633SOL    HW216739  11.474   4.886   7.967
71634SOL     OW16740   5.317   7.116  14.596
71634SOL    HW116741   5.362   7.090  14.677
71634SOL    HW216742   5.228   7.138  14.624
71635SOL     OW16743  13.582   6.022   7.562
71635SOL    HW116744  13.653   5.960   7.542
71635SOL    HW216745  13.586   6.033   7.657
71636SOL     OW16746   2.985   4.407   9.625
71636SOL    HW116747   2.955   4.316   9.630
71636SOL    HW216748   3.077   4.403   9.654
71637SOL     OW16749   2.623  10.266   0.992
71637SOL    HW116750   2.583  10.184   0.962
71637SOL    HW216751   2.562  10.300   1.057
71638SOL     OW16752   0.462   3.742   2.173
71638SOL    HW116753   0.384   3.741   2.228
71638SOL    HW216754   0.471   3.652   2.142
71639SOL     OW16755  11.287   1.030   5.069
71639SOL    HW116756  11.282   1.068   5.156
71639SOL    HW216757  11.197   1.031   5.037
71640SOL     OW16758   6.472   9.319   5.243
71640SOL    HW116759   6.544   9.296   5.183
71640SOL    HW216760   6.450   9.237   5.287
71641SOL     OW16761  11.969   0.427  13.288
71641SOL    HW116762  12.059   0.456  13.300
71641SOL    HW216763  11.975   0.358  13.221
71642SOL     OW16764   7.714   1.470   4.114
71642SOL    HW116765   7.648   1.422   4.065
71642SOL    HW216766   7.717   1.556   4.072
71643SOL     OW16767  12.549   4.231  10.698
71643SOL    HW116768  12.483   4.228  10.767
71643SOL    HW216769  12.604   4.306  10.721
71644SOL     OW16770   2.077   6.733   6.637
71644SOL    HW116771   2.076   6.640   6.663
71644SOL    HW216772   2.013   6.738   6.566
71645SOL     OW16773   9.662   4.170   4.403
71645SOL    HW116774   9.682   4.155   4.495
71645SOL    HW216775   9.723   4.238   4.375
71646SOL     OW16776   4.299   3.016   1.204
71646SOL    HW116777   4.241   3.092   1.206
71646SOL    HW216778   4.268   2.966   1.128
71647SOL     OW16779   9.319   6.298   2.629
71647SOL    HW116780   9.231   6.311   2.593
71647SOL    HW216781   9.373   6.275   2.553
71648SOL     OW16782   8.047   3.154   0.448
71648SOL    HW116783   8.052   3.155   0.353
71648SOL    HW216784   8.110   3.220   0.476
71649SOL     OW16785   3.363   3.815   6.624
71649SOL    HW116786   3.304   3.887   6.601
71649SOL    HW216787   3.305   3.741   6.641
71650SOL     OW16788  10.961   2.127   9.105
71650SOL    HW116789  11.031   2.108   9.168
71650SOL    HW216790  11.005   2.131   9.021
71651SOL     OW16791   1.114   1.832  12.345
71651SOL    HW116792   1.062   1.764  12.304
71651SOL    HW216793   1.162   1.873  12.273
71652SOL     OW16794   9.981   6.255   6.133
71652SOL    HW116795   9.897   6.272   6.175
71652SOL    HW216796   9.967   6.174   6.085
71653SOL     OW16797   2.300  11.334  13.007
71653SOL    HW116798   2.288  11.260  13.067
71653SOL    HW216799   2.341  11.296  12.930
71654SOL     OW16800   4.783   3.379  10.193
71654SOL    HW116801   4.793   3.321  10.269
71654SOL    HW216802   4.765   3.465  10.230
71655SOL     OW16803  10.390  10.145   2.305
71655SOL    HW116804  10.458  10.078   2.300
71655SOL    HW216805  10.347  10.142   2.219
71656SOL     OW16806  13.500  14.616   0.584
71656SOL    HW116807  13.539  14.553   0.644
71656SOL    HW216808  13.446  14.563   0.525
71657SOL     OW16809   3.173   4.589   1.956
71657SOL    HW116810   3.091   4.628   1.926
71657SOL    HW216811   3.151   4.547   2.039
71658SOL     OW16812  12.438   4.406  12.212
71658SOL    HW116813  12.491   4.481  12.241
71658SOL    HW216814  12.457   4.398  12.119
71659SOL     OW16815  13.266  12.994   2.757
71659SOL    HW116816  13.254  12.952   2.671
71659SOL    HW216817  13.285  13.085   2.737
71660SOL     OW16818  12.381  11.809   8.529
71660SOL    HW116819  12.450  11.767   8.477
71660SOL    HW216820  12.378  11.758   8.610
71661SOL     OW16821   4.793  10.937  12.982
71661SOL    HW116822   4.823  10.990  13.056
71661SOL    HW216823   4.845  10.857  12.988
71662SOL     OW16824   8.989   1.345  11.247
71662SOL    HW116825   8.932   1.289  11.194
71662SOL    HW216826   8.970   1.434  11.217
71663SOL     OW16827   5.001   5.401   0.053
71663SOL    HW116828   4.975   5.492   0.066
71663SOL    HW216829   5.094   5.399   0.075
71664SOL     OW16830  10.289   2.796   1.054
71664SOL    HW116831  10.362   2.856   1.037
71664SOL    HW216832  10.311   2.755   1.138
71665SOL     OW16833   2.312  13.291  12.199
71665SOL    HW116834   2.357  13.334  12.271
71665SOL    HW216835   2.242  13.240  12.241
71666SOL     OW16836   8.690  11.255  12.429
71666SOL    HW116837   8.596  11.255  12.445
71666SOL    HW216838   8.729  11.291  12.509
71667SOL     OW16839   6.737   5.341  10.536
71667SOL    HW116840   6.751   5.360  10.443
71667SOL    HW216841   6.689   5.417  10.569
71668SOL     OW16842   0.230   7.700  13.595
71668SOL    HW116843   0.143   7.663  13.577
71668SOL    HW216844   0.247   7.675  13.686
71669SOL     OW16845   8.609   6.151  11.275
71669SOL    HW116846   8.703   6.155  11.254
71669SOL    HW216847   8.579   6.241  11.265
71670SOL     OW16848   9.936  10.428   9.579
71670SOL    HW116849   9.848  10.442   9.546
71670SOL    HW216850   9.926  10.427   9.674
71671SOL     OW16851   7.946  11.026   4.057
71671SOL    HW116852   7.985  11.107   4.025
71671SOL    HW216853   7.852  11.035   4.038
71672SOL     OW16854   7.257   6.760   6.533
71672SOL    HW116855   7.259   6.667   6.511
71672SOL    HW216856   7.329   6.798   6.481
71673SOL     OW16857  12.882   2.698  14.101
71673SOL    HW116858  12.975   2.677  14.096
71673SOL    HW216859  12.838   2.614  14.099
71674SOL     OW16860  11.418   5.338   2.847
71674SOL    HW116861  11.369   5.347   2.765
71674SOL    HW216862  11.493   5.396   2.836
71675SOL     OW16863   1.094  14.495  10.782
71675SOL    HW116864   1.063  14.525  10.867
71675SOL    HW216865   1.091  14.573  10.726
71676SOL     OW16866   2.411   1.344   2.803
71676SOL    HW116867   2.316   1.353   2.811
71676SOL    HW216868   2.439   1.423   2.758
71677SOL     OW16869  10.314   0.592   2.048
71677SOL    HW116870  10.385   0.642   2.088
71677SOL    HW216871  10.293   0.525   2.112
71678SOL     OW16872   1.617   5.968   0.290
71678SOL    HW116873   1.608   5.962   0.385
71678SOL    HW216874   1.589   6.057   0.269
71679SOL     OW16875   1.659  14.614   8.101
71679SOL    HW116876   1.591  14.662   8.149
71679SOL    HW216877   1.698  14.679   8.042
71680SOL     OW16878  13.875  13.003   5.286
71680SOL    HW116879  13.962  12.989   5.322
71680SOL    HW216880  13.891  13.047   5.203
71681SOL     OW16881   7.215   1.933  11.035
71681SOL    HW116882   7.184   1.891  11.115
71681SOL    HW216883   7.278   1.999  11.065
71682SOL     OW16884   0.684   5.159   0.325
71682SOL    HW116885   0.662   5.192   0.238
71682SOL    HW216886   0.691   5.064   0.314
71683SOL     OW16887   7.445  14.098  11.494
71683SOL    HW116888   7.539  14.103  11.476
71683SOL    HW216889   7.419  14.011  11.463
71684SOL     OW16890  12.527   7.624   6.416
71684SOL    HW116891  12.536   7.719   6.421
71684SOL    HW216892  12.468   7.602   6.488
71685SOL     OW16893   6.391   9.765   4.902
71685SOL    HW116894   6.360   9.726   4.821
71685SOL    HW216895   6.376   9.859   4.891
71686SOL     OW16896   3.126  10.035   4.125
71686SOL    HW116897   3.035  10.025   4.154
71686SOL    HW216898   3.138   9.964   4.062
71687SOL     OW16899  11.670   4.469   3.066
71687SOL    HW116900  11.665   4.552   3.018
71687SOL    HW216901  11.725   4.414   3.011
71688SOL     OW16902  12.791  14.585   0.297
71688SOL    HW116903  12.859  14.525   0.265
71688SOL    HW216904  12.708  14.540   0.278
71689SOL     OW16905  14.391   3.054  14.420
71689SOL    HW116906  14.306   3.080  14.383
71689SOL    HW216907  14.455   3.098  14.364
71690SOL     OW16908  10.762   7.430  11.918
71690SOL    HW116909  10.716   7.437  11.835
71690SOL    HW216910  10.701   7.382  11.975
71691SOL     OW16911   4.306   1.182   3.842
71691SOL    HW116912   4.243   1.203   3.774
71691SOL    HW216913   4.370   1.253   3.838
71692SOL     OW16914   4.075   2.630   6.329
71692SOL    HW116915   4.039   2.654   6.243
71692SOL    HW216916   4.024   2.553   6.356
71693SOL     OW16917   3.709   4.609   6.840
71693SOL    HW116918   3.752   4.687   6.805
71693SOL    HW216919   3.680   4.560   6.763
71694SOL     OW16920  12.472   5.990   0.569
71694SOL    HW116921  12.548   6.022   0.519
71694SOL    HW216922  12.509   5.927   0.630
71695SOL     OW16923   2.908   9.609   9.294
71695SOL    HW116924   2.968   9.672   9.254
71695SOL    HW216925   2.873   9.656   9.370
71696SOL     OW16926  10.955  10.703   2.126
71696SOL    HW116927  10.902  10.632   2.091
71696SOL    HW216928  10.919  10.782   2.086
71697SOL     OW16929   0.868   2.740  13.280
71697SOL    HW116930   0.884   2.743  13.375
71697SOL    HW216931   0.938   2.684  13.246
71698SOL     OW16932   4.004   1.957  11.323
71698SOL    HW116933   4.088   1.958  11.278
71698SOL    HW216934   3.940   1.945  11.253
71699SOL     OW16935   9.837   7.449  14.398
71699SOL    HW116936   9.820   7.377  14.337
71699SOL    HW216937   9.866   7.521  14.343
71700SOL     OW16938   5.030  14.343   4.967
71700SOL    HW116939   5.063  14.411   5.026
71700SOL    HW216940   5.051  14.375   4.880
71701SOL     OW16941   4.853  13.523   9.824
71701SOL    HW116942   4.909  13.538   9.747
71701SOL    HW216943   4.764  13.530   9.789
71702SOL     OW16944  12.254   9.309   2.152
71702SOL    HW116945  12.210   9.229   2.182
71702SOL    HW216946  12.314   9.331   2.223
71703SOL     OW16947  11.295   5.463   0.533
71703SOL    HW116948  11.296   5.538   0.473
71703SOL    HW216949  11.250   5.394   0.483
71704SOL     OW16950   8.269   1.845  10.923
71704SOL    HW116951   8.271   1.820  11.016
71704SOL    HW216952   8.252   1.763  10.877
71705SOL     OW16953   6.795   3.355  10.745
71705SOL    HW116954   6.705   3.367  10.775
71705SOL    HW216955   6.845   3.420  10.793
71706SOL     OW16956   6.829   5.413   1.561
71706SOL    HW116957   6.839   5.508   1.554
71706SOL    HW216958   6.882   5.378   1.490
71707SOL     OW16959  13.366   2.394  14.857
71707SOL    HW116960  13.360   2.408   0.070
71707SOL    HW216961  13.284   2.349  14.835
71708SOL     OW16962   1.727  10.958  14.036
71708SOL    HW116963   1.683  11.031  14.080
71708SOL    HW216964   1.779  11.000  13.967
71709SOL     OW16965   9.493   3.934   8.117
71709SOL    HW116966   9.507   3.884   8.037
71709SOL    HW216967   9.399   3.955   8.116
71710SOL     OW16968   1.682   1.629   8.291
71710SOL    HW116969   1.746   1.583   8.345
71710SOL    HW216970   1.672   1.714   8.332
71711SOL     OW16971   0.940  11.620   0.946
71711SOL    HW116972   1.031  11.602   0.970
71711SOL    HW216973   0.889  11.555   0.993
71712SOL     OW16974   6.072   9.479   7.534
71712SOL    HW116975   6.014   9.552   7.554
71712SOL    HW216976   6.020   9.420   7.479
71713SOL     OW16977  11.336   6.091   8.251
71713SOL    HW116978  11.356   6.176   8.290
71713SOL    HW216979  11.367   6.028   8.315
71714SOL     OW16980   0.883   5.492  10.565
71714SOL    HW116981   0.866   5.435  10.640
71714SOL    HW216982   0.796   5.520  10.536
71715SOL     OW16983   6.488  10.607   7.620
71715SOL    HW116984   6.493  10.518   7.584
71715SOL    HW216985   6.579  10.633   7.633
71716SOL     OW16986   1.260   7.464   2.820
71716SOL    HW116987   1.305   7.541   2.854
71716SOL    HW216988   1.228   7.418   2.897
71717SOL     OW16989   9.442   4.967   0.592
71717SOL    HW116990   9.517   5.013   0.630
71717SOL    HW216991   9.440   4.994   0.501
71718SOL     OW16992  13.868   1.593   0.509
71718SOL    HW116993  13.796   1.561   0.563
71718SOL    HW216994  13.886   1.522   0.447
71719SOL     OW16995   9.516  11.971   2.618
71719SOL    HW116996   9.559  11.892   2.584
71719SOL    HW216997   9.452  11.938   2.682
71720SOL     OW16998   4.224   2.778   2.803
71720SOL    HW116999   4.304   2.740   2.766
71720SOL    HW217000   4.247   2.870   2.820
71721SOL     OW17001  13.841   1.407   7.734
71721SOL    HW117002  13.904   1.397   7.806
71721SOL    HW217003  13.800   1.492   7.749
71722SOL     OW17004   7.446   7.184   8.745
71722SOL    HW117005   7.456   7.279   8.742
71722SOL    HW217006   7.534   7.151   8.764
71723SOL     OW17007   1.297   6.294   4.263
71723SOL    HW117008   1.285   6.359   4.194
71723SOL    HW217009   1.315   6.213   4.217
71724SOL     OW17010   8.548   8.130   0.396
71724SOL    HW117011   8.488   8.055   0.392
71724SOL    HW217012   8.622   8.105   0.341
71725SOL     OW17013   9.728   8.480  12.703
71725SOL    HW117014   9.734   8.427  12.782
71725SOL    HW217015   9.637   8.468  12.674
71726SOL     OW17016  11.775   4.124   8.953
71726SOL    HW117017  11.779   4.043   9.004
71726SOL    HW217018  11.682   4.148   8.953
71727SOL     OW17019   3.876   6.419   0.498
71727SOL    HW117020   3.920   6.395   0.579
71727SOL    HW217021   3.806   6.355   0.487
71728SOL     OW17022   1.575   7.457   2.409
71728SOL    HW117023   1.515   7.384   2.417
71728SOL    HW217024   1.520   7.532   2.385
71729SOL     OW17025   0.542   1.471   0.781
71729SOL    HW117026   0.565   1.553   0.826
71729SOL    HW217027   0.447   1.462   0.795
71730SOL     OW17028   0.543   6.815  14.834
71730SOL    HW117029   0.554   6.869   0.030
71730SOL    HW217030   0.471   6.856  14.786
71731SOL     OW17031  12.801   6.385  10.687
71731SOL    HW117032  12.765   6.329  10.619
71731SOL    HW217033  12.806   6.472  10.647
71732SOL     OW17034   1.413   1.271   7.013
71732SOL    HW117035   1.488   1.254   6.955
71732SOL    HW217036   1.368   1.345   6.972
71733SOL     OW17037   4.238   7.804  13.323
71733SOL    HW117038   4.149   7.794  13.355
71733SOL    HW217039   4.291   7.813  13.402
71734SOL     OW17040   4.844   6.515  13.477
71734SOL    HW117041   4.909   6.515  13.406
71734SOL    HW217042   4.890   6.557  13.550
71735SOL     OW17043   0.721   1.868   9.427
71735SOL    HW117044   0.751   1.779   9.407
71735SOL    HW217045   0.773   1.924   9.370
71736SOL     OW17046   6.996   1.412   0.220
71736SOL    HW117047   6.966   1.321   0.221
71736SOL    HW217048   6.932   1.457   0.165
71737SOL     OW17049  12.394  13.159  10.072
71737SOL    HW117050  12.438  13.126  10.150
71737SOL    HW217051  12.465  13.189  10.015
71738SOL     OW17052  14.092   7.741   9.595
71738SOL    HW117053  14.128   7.687   9.666
71738SOL    HW217054  14.099   7.687   9.517
71739SOL     OW17055   1.767   4.018  13.039
71739SOL    HW117056   1.671   4.021  13.038
71739SOL    HW217057   1.792   4.011  12.947
71740SOL     OW17058   4.205   1.206  11.145
71740SOL    HW117059   4.281   1.250  11.107
71740SOL    HW217060   4.179   1.262  11.218
71741SOL     OW17061   9.737  13.615   5.113
71741SOL    HW117062   9.757  13.562   5.190
71741SOL    HW217063   9.822  13.645   5.080
71742SOL     OW17064   9.475   3.014  10.507
71742SOL    HW117065   9.543   3.070  10.469
71742SOL    HW217066   9.444   3.063  10.583
71743SOL     OW17067   8.742  11.280   1.091
71743SOL    HW117068   8.835  11.259   1.097
71743SOL    HW217069   8.732  11.323   1.006
71744SOL     OW17070   9.679   9.401   5.050
71744SOL    HW117071   9.737   9.357   4.988
71744SOL    HW217072   9.709   9.492   5.052
71745SOL     OW17073   4.753   7.866   9.368
71745SOL    HW117074   4.830   7.833   9.322
71745SOL    HW217075   4.696   7.900   9.299
71746SOL     OW17076  12.358   2.499  13.231
71746SOL    HW117077  12.376   2.447  13.310
71746SOL    HW217078  12.439   2.547  13.216
71747SOL     OW17079   1.057   8.018   9.199
71747SOL    HW117080   0.980   8.054   9.243
71747SOL    HW217081   1.026   7.989   9.114
71748SOL     OW17082   5.239   7.304   7.237
71748SOL    HW117083   5.208   7.214   7.249
71748SOL    HW217084   5.182   7.357   7.294
71749SOL     OW17085  12.119   0.911   9.848
71749SOL    HW117086  12.180   0.984   9.840
71749SOL    HW217087  12.123   0.867   9.763
71750SOL     OW17088   9.321   3.144  12.080
71750SOL    HW117089   9.348   3.128  11.990
71750SOL    HW217090   9.333   3.238  12.093
71751SOL     OW17091   4.626   1.796  12.014
71751SOL    HW117092   4.696   1.812  12.078
71751SOL    HW217093   4.634   1.703  11.992
71752SOL     OW17094  11.193  10.063  12.173
71752SOL    HW117095  11.180   9.972  12.148
71752SOL    HW217096  11.106  10.103  12.163
71753SOL     OW17097  11.463   4.881   5.978
71753SOL    HW117098  11.472   4.826   6.056
71753SOL    HW217099  11.506   4.964   6.002
71754SOL     OW17100   8.181   1.439   2.323
71754SOL    HW117101   8.244   1.390   2.271
71754SOL    HW217102   8.095   1.406   2.295
71755SOL     OW17103   5.306  14.748   4.889
71755SOL    HW117104   5.247  14.694   4.941
71755SOL    HW217105   5.394  14.719   4.915
71756SOL     OW17106   5.277   7.481   1.633
71756SOL    HW117107   5.359   7.524   1.607
71756SOL    HW217108   5.243   7.535   1.704
71757SOL     OW17109   5.265   2.383  14.507
71757SOL    HW117110   5.275   2.467  14.462
71757SOL    HW217111   5.276   2.317  14.438
71758SOL     OW17112   9.466  10.108   0.892
71758SOL    HW117113   9.439  10.200   0.880
71758SOL    HW217114   9.472  10.073   0.804
71759SOL     OW17115   1.137  12.592   6.815
71759SOL    HW117116   1.150  12.596   6.910
71759SOL    HW217117   1.191  12.519   6.787
71760SOL     OW17118   4.552   2.133   7.296
71760SOL    HW117119   4.592   2.055   7.257
71760SOL    HW217120   4.580   2.205   7.240
71761SOL     OW17121  14.497   3.392   1.466
71761SOL    HW117122  14.544   3.365   1.387
71761SOL    HW217123  14.423   3.332   1.471
71762SOL     OW17124   4.866   5.762  12.051
71762SOL    HW117125   4.795   5.781  11.989
71762SOL    HW217126   4.943   5.803  12.012
71763SOL     OW17127  10.885  13.043   5.397
71763SOL    HW117128  10.943  12.969   5.379
71763SOL    HW217129  10.805  13.003   5.432
71764SOL     OW17130   7.783  13.604   1.217
71764SOL    HW117131   7.870  13.565   1.207
71764SOL    HW217132   7.797  13.698   1.204
71765SOL     OW17133   0.839   4.016   0.314
71765SOL    HW117134   0.934   4.024   0.322
71765SOL    HW217135   0.805   4.047   0.398
71766SOL     OW17136   4.972  11.446   9.782
71766SOL    HW117137   4.960  11.497   9.702
71766SOL    HW217138   5.066  11.454   9.801
71767SOL     OW17139   1.897  13.951  12.663
71767SOL    HW117140   1.938  14.031  12.697
71767SOL    HW217141   1.851  13.914  12.738
71768SOL     OW17142   7.999   2.026   1.698
71768SOL    HW117143   8.024   1.947   1.746
71768SOL    HW217144   7.909   2.044   1.726
71769SOL     OW17145   4.969   1.969  14.376
71769SOL    HW117146   5.021   2.050  14.386
71769SOL    HW217147   4.878   1.998  14.386
71770SOL     OW17148   4.074  13.773   1.575
71770SOL    HW117149   4.057  13.849   1.520
71770SOL    HW217150   4.170  13.764   1.574
71771SOL     OW17151  14.419  10.846   3.484
71771SOL    HW117152  14.361  10.829   3.409
71771SOL    HW217153  14.486  10.778   3.479
71772SOL     OW17154  14.155   0.430  10.576
71772SOL    HW117155  14.097   0.503  10.553
71772SOL    HW217156  14.096   0.354  10.584
71773SOL     OW17157   6.682   4.313  10.903
71773SOL    HW117158   6.754   4.314  10.840
71773SOL    HW217159   6.676   4.221  10.930
71774SOL     OW17160   1.282   3.991   7.041
71774SOL    HW117161   1.318   3.967   7.127
71774SOL    HW217162   1.191   4.015   7.059
71775SOL     OW17163  13.861   6.257  14.015
71775SOL    HW117164  13.877   6.221  14.102
71775SOL    HW217165  13.816   6.187  13.968
71776SOL     OW17166  10.774   3.890   3.886
71776SOL    HW117167  10.734   3.937   3.813
71776SOL    HW217168  10.778   3.799   3.857
71777SOL     OW17169   9.813   1.797   6.791
71777SOL    HW117170   9.859   1.880   6.777
71777SOL    HW217171   9.794   1.795   6.884
71778SOL     OW17172  12.212   6.769   8.685
71778SOL    HW117173  12.241   6.796   8.597
71778SOL    HW217174  12.186   6.851   8.727
71779SOL     OW17175   0.671  14.014   4.094
71779SOL    HW117176   0.625  14.015   4.010
71779SOL    HW217177   0.675  14.106   4.120
71780SOL     OW17178  12.707   2.470   2.900
71780SOL    HW117179  12.790   2.516   2.913
71780SOL    HW217180  12.712   2.434   2.812
71781SOL     OW17181   2.531   3.519   9.430
71781SOL    HW117182   2.439   3.510   9.453
71781SOL    HW217183   2.540   3.472   9.347
71782SOL     OW17184   1.645  10.566   2.078
71782SOL    HW117185   1.588  10.501   2.119
71782SOL    HW217186   1.642  10.544   1.985
71783SOL     OW17187   8.792   3.896  12.081
71783SOL    HW117188   8.744   3.850  12.150
71783SOL    HW217189   8.732   3.900  12.007
71784SOL     OW17190  13.462   1.374   2.112
71784SOL    HW117191  13.473   1.466   2.091
71784SOL    HW217192  13.541   1.332   2.080
71785SOL     OW17193   0.109  10.979   2.386
71785SOL    HW117194   0.148  11.063   2.407
71785SOL    HW217195   0.146  10.955   2.302
71786SOL     OW17196  10.875  11.982   8.325
71786SOL    HW117197  10.970  11.973   8.311
71786SOL    HW217198  10.837  11.974   8.238
71787SOL     OW17199   0.102  13.585   2.816
71787SOL    HW117200   0.025  13.580   2.760
71787SOL    HW217201   0.161  13.645   2.770
71788SOL     OW17202   6.434   3.290   7.510
71788SOL    HW117203   6.422   3.357   7.577
71788SOL    HW217204   6.350   3.285   7.465
71789SOL     OW17205  13.359   1.943   6.203
71789SOL    HW117206  13.291   2.009   6.217
71789SOL    HW217207  13.414   1.948   6.282
71790SOL     OW17208   3.821   3.323   1.439
71790SOL    HW117209   3.909   3.317   1.475
71790SOL    HW217210   3.834   3.342   1.346
71791SOL     OW17211   6.895   3.210  10.544
71791SOL    HW117212   6.902   3.279  10.478
71791SOL    HW217213   6.846   3.250  10.616
71792SOL     OW17214  13.675  11.045   3.610
71792SOL    HW117215  13.637  11.115   3.663
71792SOL    HW217216  13.602  11.011   3.558
71793SOL     OW17217  12.961  12.521   8.702
71793SOL    HW117218  12.967  12.426   8.713
71793SOL    HW217219  12.975  12.535   8.609
71794SOL     OW17220   0.895   7.677  12.453
71794SOL    HW117221   0.949   7.609  12.415
71794SOL    HW217222   0.955   7.730  12.505
71795SOL     OW17223   5.295   7.072   4.921
71795SOL    HW117224   5.204   7.099   4.911
71795SOL    HW217225   5.302   7.040   5.011
71796SOL     OW17226   8.465   0.167   1.363
71796SOL    HW117227   8.483   0.084   1.320
71796SOL    HW217228   8.523   0.230   1.320
71797SOL     OW17229   7.376  10.167   2.994
71797SOL    HW117230   7.306  10.209   2.944
71797SOL    HW217231   7.430  10.240   3.025
71798SOL     OW17232   6.743   2.794  13.272
71798SOL    HW117233   6.734   2.837  13.187
71798SOL    HW217234   6.658   2.752  13.286
71799SOL     OW17235   1.076  13.382   5.861
71799SOL    HW117236   1.069  13.429   5.777
71799SOL    HW217237   1.157  13.333   5.854
71800SOL     OW17238   2.970  10.028   9.095
71800SOL    HW117239   2.919   9.953   9.065
71800SOL    HW217240   2.909  10.077   9.150
71801SOL     OW17241   5.288  10.167   0.008
71801SOL    HW117242   5.215  10.205  14.839
71801SOL    HW217243   5.288  10.074  14.866
71802SOL     OW17244   4.307   8.390   7.433
71802SOL    HW117245   4.332   8.298   7.426
71802SOL    HW217246   4.365   8.436   7.372
71803SOL     OW17247   7.666  11.454   9.701
71803SOL    HW117248   7.738  11.420   9.754
71803SOL    HW217249   7.590  11.449   9.758
71804SOL     OW17250   2.177   2.696   6.289
71804SOL    HW117251   2.254   2.751   6.270
71804SOL    HW217252   2.180   2.627   6.223
71805SOL     OW17253   1.673   1.729  10.319
71805SOL    HW117254   1.684   1.806  10.374
71805SOL    HW217255   1.691   1.761  10.230
71806SOL     OW17256  10.078   0.457   3.426
71806SOL    HW117257  10.160   0.484   3.385
71806SOL    HW217258  10.052   0.532   3.480
71807SOL     OW17259  14.667  11.958   3.573
71807SOL    HW117260  14.627  12.037   3.610
71807SOL    HW217261  14.716  11.919   3.646
71808SOL     OW17262   2.511   2.591   0.486
71808SOL    HW117263   2.479   2.596   0.396
71808SOL    HW217264   2.606   2.587   0.477
71809SOL     OW17265   1.321   2.128   4.505
71809SOL    HW117266   1.239   2.121   4.554
71809SOL    HW217267   1.333   2.222   4.492
71810SOL     OW17268   6.803   2.662   8.898
71810SOL    HW117269   6.746   2.663   8.821
71810SOL    HW217270   6.890   2.680   8.863
71811SOL     OW17271  14.583   6.618  14.580
71811SOL    HW117272  14.673   6.639  14.603
71811SOL    HW217273  14.531   6.643  14.656
71812SOL     OW17274   3.431   2.466   0.250
71812SOL    HW117275   3.471   2.438   0.332
71812SOL    HW217276   3.393   2.386   0.214
71813SOL     OW17277   8.785   3.572   1.727
71813SOL    HW117278   8.763   3.662   1.701
71813SOL    HW217279   8.833   3.536   1.653
71814SOL     OW17280  13.666   3.913   3.969
71814SOL    HW117281  13.688   4.000   3.937
71814SOL    HW217282  13.692   3.914   4.061
71815SOL     OW17283   6.145   2.137  12.304
71815SOL    HW117284   6.130   2.096  12.390
71815SOL    HW217285   6.156   2.063  12.244
71816SOL     OW17286   4.180  12.477  13.405
71816SOL    HW117287   4.199  12.482  13.499
71816SOL    HW217288   4.243  12.414  13.371
71817SOL     OW17289   9.433  12.996   5.279
71817SOL    HW117290   9.409  13.088   5.290
71817SOL    HW217291   9.362  12.947   5.322
71818SOL     OW17292   5.144   6.318   2.024
71818SOL    HW117293   5.232   6.349   2.005
71818SOL    HW217294   5.091   6.397   2.030
71819SOL     OW17295  12.637  12.766   2.744
71819SOL    HW117296  12.591  12.763   2.828
71819SOL    HW217297  12.583  12.713   2.685
71820SOL     OW17298   4.680  10.365   3.673
71820SOL    HW117299   4.738  10.409   3.734
71820SOL    HW217300   4.714  10.388   3.586
71821SOL     OW17301  10.393   6.699   9.205
71821SOL    HW117302  10.422   6.639   9.136
71821SOL    HW217303  10.306   6.667   9.229
71822SOL     OW17304  11.482  11.466   2.463
71822SOL    HW117305  11.486  11.562   2.455
71822SOL    HW217306  11.480  11.450   2.557
71823SOL     OW17307   0.032  14.606   3.330
71823SOL    HW117308   0.072  14.689   3.354
71823SOL    HW217309  14.873  14.575   3.411
71824SOL     OW17310   0.583   2.263  11.226
71824SOL    HW117311   0.537   2.201  11.283
71824SOL    HW217312   0.602   2.338  11.282
71825SOL     OW17313  13.789   6.155  12.592
71825SOL    HW117314  13.795   6.250  12.584
71825SOL    HW217315  13.788   6.123  12.501
71826SOL     OW17316   6.408  12.725   3.161
71826SOL    HW117317   6.336  12.685   3.111
71826SOL    HW217318   6.451  12.783   3.098
71827SOL     OW17319   3.735   4.951   1.599
71827SOL    HW117320   3.775   4.909   1.675
71827SOL    HW217321   3.691   4.880   1.552
71828SOL     OW17322   7.550   3.190  10.445
71828SOL    HW117323   7.553   3.191  10.349
71828SOL    HW217324   7.458   3.204  10.467
71829SOL     OW17325  11.257  13.018   3.469
71829SOL    HW117326  11.276  13.101   3.425
71829SOL    HW217327  11.336  12.965   3.456
71830SOL     OW17328   2.088  12.404  11.648
71830SOL    HW117329   1.997  12.401  11.678
71830SOL    HW217330   2.094  12.488  11.602
71831SOL     OW17331   5.266   1.043   1.869
71831SOL    HW117332   5.348   1.064   1.912
71831SOL    HW217333   5.231   0.969   1.918
71832SOL     OW17334   1.395  10.796  11.266
71832SOL    HW117335   1.300  10.803  11.253
71832SOL    HW217336   1.413  10.702  11.259
71833SOL     OW17337   3.752   4.682   8.059
71833SOL    HW117338   3.694   4.747   8.018
71833SOL    HW217339   3.731   4.687   8.153
71834SOL     OW17340   0.285   9.388   5.392
71834SOL    HW117341   0.341   9.425   5.324
71834SOL    HW217342   0.200   9.376   5.348
71835SOL     OW17343  12.168   9.971   8.051
71835SOL    HW117344  12.088   9.940   8.009
71835SOL    HW217345  12.213   9.892   8.080
71836SOL     OW17346  10.541   9.196   9.889
71836SOL    HW117347  10.562   9.209   9.796
71836SOL    HW217348  10.576   9.109   9.909
71837SOL     OW17349  14.676   6.917   4.776
71837SOL    HW117350  14.713   6.955   4.856
71837SOL    HW217351  14.607   6.978   4.750
71838SOL     OW17352   6.185   6.090   2.975
71838SOL    HW117353   6.142   6.115   3.056
71838SOL    HW217354   6.278   6.087   2.997
71839SOL     OW17355   6.518   4.824  11.489
71839SOL    HW117356   6.583   4.891  11.509
71839SOL    HW217357   6.434   4.865  11.509
71840SOL     OW17358  14.252  14.350  12.979
71840SOL    HW117359  14.208  14.425  13.019
71840SOL    HW217360  14.247  14.281  13.045
71841SOL     OW17361   4.988   7.817   5.371
71841SOL    HW117362   5.042   7.807   5.449
71841SOL    HW217363   4.900   7.831   5.404
71842SOL     OW17364   7.410   9.022   4.375
71842SOL    HW117365   7.317   9.000   4.383
71842SOL    HW217366   7.418   9.054   4.285
71843SOL     OW17367   0.214   1.495   1.403
71843SOL    HW117368   0.227   1.584   1.437
71843SOL    HW217369   0.300   1.453   1.410
71844SOL     OW17370  11.159   1.870   5.631
71844SOL    HW117371  11.096   1.874   5.703
71844SOL    HW217372  11.140   1.948   5.579
71845SOL     OW17373  13.039  12.279   3.878
71845SOL    HW117374  12.944  12.281   3.865
71845SOL    HW217375  13.052  12.323   3.962
71846SOL     OW17376   2.680  12.182  13.549
71846SOL    HW117377   2.762  12.198  13.503
71846SOL    HW217378   2.631  12.122  13.493
71847SOL     OW17379   8.799   5.799  14.076
71847SOL    HW117380   8.805   5.745  14.154
71847SOL    HW217381   8.719   5.770  14.032
71848SOL     OW17382   3.317  10.769   7.351
71848SOL    HW117383   3.388  10.813   7.304
71848SOL    HW217384   3.255  10.744   7.283
71849SOL     OW17385   2.167   1.231   9.234
71849SOL    HW117386   2.203   1.299   9.176
71849SOL    HW217387   2.240   1.208   9.291
71850SOL     OW17388   2.684   1.859   1.696
71850SOL    HW117389   2.709   1.903   1.777
71850SOL    HW217390   2.672   1.930   1.633
71851SOL     OW17391  14.722   9.918   4.085
71851SOL    HW117392  14.724   9.866   4.165
71851SOL    HW217393  14.709   9.854   4.015
71852SOL     OW17394  12.802  12.971   4.761
71852SOL    HW117395  12.808  12.876   4.769
71852SOL    HW217396  12.809  13.003   4.850
71853SOL     OW17397   4.706   6.704  10.264
71853SOL    HW117398   4.623   6.744  10.291
71853SOL    HW217399   4.710   6.622  10.313
71854SOL     OW17400   7.754  11.551   3.815
71854SOL    HW117401   7.802  11.502   3.882
71854SOL    HW217402   7.709  11.484   3.764
71855SOL     OW17403  10.634  12.635   1.555
71855SOL    HW117404  10.582  12.699   1.506
71855SOL    HW217405  10.602  12.550   1.523
71856SOL     OW17406  11.550  12.562  14.670
71856SOL    HW117407  11.520  12.590  14.583
71856SOL    HW217408  11.486  12.499  14.699
71857SOL     OW17409  13.028  12.753   6.856
71857SOL    HW117410  13.113  12.709   6.856
71857SOL    HW217411  13.048  12.845   6.840
71858SOL     OW17412   9.539  13.821   0.216
71858SOL    HW117413   9.598  13.773   0.274
71858SOL    HW217414   9.509  13.895   0.270
71859SOL     OW17415  11.214  12.189   5.906
71859SOL    HW117416  11.234  12.099   5.879
71859SOL    HW217417  11.138  12.180   5.963
71860SOL     OW17418  10.356   1.813  11.814
71860SOL    HW117419  10.409   1.794  11.891
71860SOL    HW217420  10.298   1.884  11.842
71861SOL     OW17421   6.785  10.247   7.222
71861SOL    HW117422   6.843  10.291   7.284
71861SOL    HW217423   6.735  10.185   7.276
71862SOL     OW17424  10.360   9.986   4.487
71862SOL    HW117425  10.422   9.993   4.414
71862SOL    HW217426  10.397  10.043   4.555
71863SOL     OW17427  11.953   8.064  14.467
71863SOL    HW117428  11.956   8.131  14.399
71863SOL    HW217429  12.027   8.086  14.524
71864SOL     OW17430   1.587   4.023   9.064
71864SOL    HW117431   1.516   4.049   9.006
71864SOL    HW217432   1.623   4.106   9.096
71865SOL     OW17433   9.266   6.735   7.513
71865SOL    HW117434   9.333   6.800   7.491
71865SOL    HW217435   9.213   6.728   7.435
71866SOL     OW17436   1.298   0.134   0.833
71866SOL    HW117437   1.341   0.219   0.843
71866SOL    HW217438   1.367   0.075   0.805
71867SOL     OW17439   4.248   2.942  14.499
71867SOL    HW117440   4.227   2.859  14.456
71867SOL    HW217441   4.331   2.969  14.460
71868SOL     OW17442   4.595   3.005   8.428
71868SOL    HW117443   4.571   2.922   8.385
71868SOL    HW217444   4.511   3.050   8.440
71869SOL     OW17445   3.170   3.133   5.787
71869SOL    HW117446   3.192   3.225   5.805
71869SOL    HW217447   3.134   3.134   5.699
71870SOL     OW17448  14.755  11.629   2.307
71870SOL    HW117449  14.705  11.583   2.375
71870SOL    HW217450  14.725  11.720   2.313
71871SOL     OW17451   7.633   3.045   4.508
71871SOL    HW117452   7.596   3.131   4.487
71871SOL    HW217453   7.635   3.000   4.423
71872SOL     OW17454   5.439   4.854   5.508
71872SOL    HW117455   5.502   4.794   5.470
71872SOL    HW217456   5.424   4.920   5.440
71873SOL     OW17457  11.438   2.350   6.793
71873SOL    HW117458  11.487   2.361   6.711
71873SOL    HW217459  11.392   2.266   6.782
71874SOL     OW17460  11.866   8.473   0.330
71874SOL    HW117461  11.783   8.470   0.283
71874SOL    HW217462  11.929   8.431   0.272
71875SOL     OW17463  11.599   4.955   6.301
71875SOL    HW117464  11.609   4.908   6.384
71875SOL    HW217465  11.663   4.914   6.243
71876SOL     OW17466   9.057  11.491   2.683
71876SOL    HW117467   8.987  11.427   2.699
71876SOL    HW217468   9.068  11.536   2.767
71877SOL     OW17469  10.207   1.062   1.116
71877SOL    HW117470  10.112   1.058   1.108
71877SOL    HW217471  10.235   0.970   1.116
71878SOL     OW17472   7.235  14.312  12.185
71878SOL    HW117473   7.215  14.404  12.169
71878SOL    HW217474   7.272  14.281  12.102
71879SOL     OW17475   7.099  14.376   8.705
71879SOL    HW117476   7.186  14.354   8.739
71879SOL    HW217477   7.077  14.459   8.747
71880SOL     OW17478   5.229  14.668  10.559
71880SOL    HW117479   5.323  14.682  10.553
71880SOL    HW217480   5.202  14.715  10.638
71881SOL     OW17481  11.218   6.291   1.361
71881SOL    HW117482  11.235   6.361   1.424
71881SOL    HW217483  11.165   6.227   1.409
71882SOL     OW17484   0.404   7.561   5.937
71882SOL    HW117485   0.434   7.592   6.022
71882SOL    HW217486   0.309   7.554   5.946
71883SOL     OW17487  13.439  12.897   4.334
71883SOL    HW117488  13.522  12.918   4.290
71883SOL    HW217489  13.464  12.875   4.424
71884SOL     OW17490   8.144   6.824  12.729
71884SOL    HW117491   8.227   6.835  12.682
71884SOL    HW217492   8.122   6.732  12.717
71885SOL     OW17493   2.522  14.583  10.980
71885SOL    HW117494   2.553  14.558  11.067
71885SOL    HW217495   2.586  14.646  10.949
71886SOL     OW17496  10.128  14.187   3.349
71886SOL    HW117497  10.107  14.260   3.408
71886SOL    HW217498  10.223  14.177   3.356
71887SOL     OW17499  11.072   0.973  10.152
71887SOL    HW117500  11.101   0.907  10.215
71887SOL    HW217501  11.067   1.054  10.203
71888SOL     OW17502   6.232   2.629  12.219
71888SOL    HW117503   6.324   2.603  12.221
71888SOL    HW217504   6.184   2.548  12.239
71889SOL     OW17505  14.096   8.431  12.687
71889SOL    HW117506  14.109   8.492  12.614
71889SOL    HW217507  14.154   8.463  12.756
71890SOL     OW17508   2.093   4.410   2.243
71890SOL    HW117509   2.166   4.412   2.306
71890SOL    HW217510   2.020   4.372   2.292
71891SOL     OW17511   6.809   1.020  12.126
71891SOL    HW117512   6.745   1.013  12.055
71891SOL    HW217513   6.876   0.954  12.105
71892SOL     OW17514  10.250  13.374  10.739
71892SOL    HW117515  10.257  13.279  10.748
71892SOL    HW217516  10.168  13.396  10.782
71893SOL     OW17517  12.484   1.800   1.282
71893SOL    HW117518  12.468   1.870   1.346
71893SOL    HW217519  12.579   1.791   1.280
71894SOL     OW17520  12.712   0.490   5.768
71894SOL    HW117521  12.745   0.553   5.833
71894SOL    HW217522  12.622   0.472   5.795
71895SOL     OW17523  13.555  14.224   2.353
71895SOL    HW117524  13.514  14.249   2.270
71895SOL    HW217525  13.640  14.267   2.351
71896SOL     OW17526   0.210   1.033   5.724
71896SOL    HW117527   0.136   0.993   5.771
71896SOL    HW217528   0.170   1.104   5.674
71897SOL     OW17529   9.045  11.626  11.887
71897SOL    HW117530   9.113  11.694  11.880
71897SOL    HW217531   9.082  11.562  11.947
71898SOL     OW17532  10.724   1.743   2.426
71898SOL    HW117533  10.734   1.653   2.457
71898SOL    HW217534  10.804   1.761   2.377
71899SOL     OW17535   8.106  13.017  11.143
71899SOL    HW117536   8.127  12.945  11.202
71899SOL    HW217537   8.145  12.991  11.059
71900SOL     OW17538   0.452   8.308   0.500
71900SOL    HW117539   0.487   8.342   0.583
71900SOL    HW217540   0.529   8.274   0.455
71901SOL     OW17541   0.385   1.279   6.128
71901SOL    HW117542   0.294   1.247   6.131
71901SOL    HW217543   0.377   1.374   6.138
71902SOL     OW17544  11.795  12.355   6.547
71902SOL    HW117545  11.710  12.310   6.540
71902SOL    HW217546  11.821  12.371   6.457
71903SOL     OW17547   0.345   8.947   6.935
71903SOL    HW117548   0.287   8.924   7.008
71903SOL    HW217549   0.285   8.973   6.865
71904SOL     OW17550  12.677  14.789   5.046
71904SOL    HW117551  12.702  14.699   5.067
71904SOL    HW217552  12.690  14.796   4.951
71905SOL     OW17553   9.324   8.255   0.672
71905SOL    HW117554   9.319   8.309   0.750
71905SOL    HW217555   9.242   8.205   0.671
71906SOL     OW17556  13.046   7.673  10.319
71906SOL    HW117557  13.024   7.599  10.376
71906SOL    HW217558  13.048   7.635  10.231
71907SOL     OW17559   4.070  13.735   0.587
71907SOL    HW117560   3.998  13.693   0.539
71907SOL    HW217561   4.135  13.666   0.599
71908SOL     OW17562   2.504  12.630   3.887
71908SOL    HW117563   2.452  12.604   3.811
71908SOL    HW217564   2.592  12.595   3.869
71909SOL     OW17565   6.436  12.897  10.202
71909SOL    HW117566   6.531  12.911  10.198
71909SOL    HW217567   6.398  12.978  10.166
71910SOL     OW17568   8.960   0.117   5.187
71910SOL    HW117569   8.973   0.202   5.144
71910SOL    HW217570   8.975   0.135   5.280
71911SOL     OW17571   2.270   2.690  14.203
71911SOL    HW117572   2.340   2.739  14.160
71911SOL    HW217573   2.315   2.628  14.260
71912SOL     OW17574   7.416   9.712   5.160
71912SOL    HW117575   7.352   9.710   5.088
71912SOL    HW217576   7.373   9.765   5.227
71913SOL     OW17577   5.893  11.127   8.686
71913SOL    HW117578   5.988  11.134   8.686
71913SOL    HW217579   5.863  11.204   8.637
71914SOL     OW17580   8.415  14.595   6.464
71914SOL    HW117581   8.440  14.597   6.556
71914SOL    HW217582   8.324  14.567   6.464
71915SOL     OW17583  11.878   6.818   7.130
71915SOL    HW117584  11.946   6.830   7.196
71915SOL    HW217585  11.897   6.733   7.090
71916SOL     OW17586  14.768  13.235  13.119
71916SOL    HW117587  14.744  13.270  13.033
71916SOL    HW217588  14.702  13.169  13.138
71917SOL     OW17589  14.267   6.771   0.229
71917SOL    HW117590  14.319   6.851   0.227
71917SOL    HW217591  14.329   6.701   0.208
71918SOL     OW17592   8.194   5.705   7.144
71918SOL    HW117593   8.176   5.611   7.153
71918SOL    HW217594   8.230   5.730   7.229
71919SOL     OW17595  14.381   6.129   4.866
71919SOL    HW117596  14.471   6.111   4.891
71919SOL    HW217597  14.374   6.224   4.868
71920SOL     OW17598   7.898   1.889  13.372
71920SOL    HW117599   7.976   1.839  13.392
71920SOL    HW217600   7.885   1.876  13.278
71921SOL     OW17601   8.943   6.154   6.931
71921SOL    HW117602   8.857   6.195   6.922
71921SOL    HW217603   8.991   6.180   6.853
71922SOL     OW17604  14.444  10.304  14.028
71922SOL    HW117605  14.475  10.249  14.099
71922SOL    HW217606  14.430  10.244  13.955
71923SOL     OW17607  10.381   4.119   4.230
71923SOL    HW117608  10.430   4.041   4.202
71923SOL    HW217609  10.312   4.084   4.287
71924SOL     OW17610   0.806   1.023  11.549
71924SOL    HW117611   0.755   0.965  11.492
71924SOL    HW217612   0.768   1.010  11.636
71925SOL     OW17613   1.272   6.610  13.904
71925SOL    HW117614   1.234   6.697  13.898
71925SOL    HW217615   1.265   6.587  13.996
71926SOL     OW17616   6.066  11.230  11.632
71926SOL    HW117617   6.024  11.295  11.575
71926SOL    HW217618   6.021  11.148  11.611
71927SOL     OW17619   4.065  11.259   2.995
71927SOL    HW117620   4.091  11.168   2.979
71927SOL    HW217621   4.123  11.311   2.939
71928SOL     OW17622  13.225   5.698  14.580
71928SOL    HW117623  13.165   5.652  14.522
71928SOL    HW217624  13.259   5.771  14.528
71929SOL     OW17625   5.570   5.071   1.200
71929SOL    HW117626   5.599   5.162   1.199
71929SOL    HW217627   5.528   5.061   1.286
71930SOL     OW17628   8.774   7.530  11.436
71930SOL    HW117629   8.683   7.511  11.461
71930SOL    HW217630   8.766   7.594  11.365
71931SOL     OW17631  10.204   3.453   2.858
71931SOL    HW117632  10.242   3.397   2.791
71931SOL    HW217633  10.270   3.521   2.874
71932SOL     OW17634   6.732   6.125   2.204
71932SOL    HW117635   6.696   6.210   2.230
71932SOL    HW217636   6.811   6.146   2.155
71933SOL     OW17637   9.000  11.024   6.468
71933SOL    HW117638   8.917  11.022   6.514
71933SOL    HW217639   9.047  11.098   6.507
71934SOL     OW17640   3.076   9.526  10.879
71934SOL    HW117641   3.037   9.610  10.859
71934SOL    HW217642   3.155   9.547  10.928
71935SOL     OW17643  13.797   4.628  14.061
71935SOL    HW117644  13.773   4.721  14.057
71935SOL    HW217645  13.827   4.615  14.151
71936SOL     OW17646   4.711   6.239  11.148
71936SOL    HW117647   4.652   6.312  11.164
71936SOL    HW217648   4.676   6.198  11.068
71937SOL     OW17649  11.465   2.506   8.551
71937SOL    HW117650  11.412   2.537   8.624
71937SOL    HW217651  11.537   2.569   8.545
71938SOL     OW17652   2.370  14.483  14.486
71938SOL    HW117653   2.319  14.546  14.537
71938SOL    HW217654   2.362  14.511  14.395
71939SOL     OW17655   0.045   9.753   0.721
71939SOL    HW117656  14.880   9.671   0.732
71939SOL    HW217657  14.881   9.815   0.779
71940SOL     OW17658   6.130   8.772   8.447
71940SOL    HW117659   6.163   8.692   8.486
71940SOL    HW217660   6.118   8.751   8.354
71941SOL     OW17661   9.675   6.003   9.357
71941SOL    HW117662   9.739   5.976   9.423
71941SOL    HW217663   9.676   6.098   9.360
71942SOL     OW17664   7.196   8.931   3.794
71942SOL    HW117665   7.275   8.883   3.818
71942SOL    HW217666   7.177   8.904   3.704
71943SOL     OW17667  10.339   5.061   8.591
71943SOL    HW117668  10.258   5.105   8.564
71943SOL    HW217669  10.407   5.126   8.574
71944SOL     OW17670   4.116  11.764   2.190
71944SOL    HW117671   4.193  11.712   2.215
71944SOL    HW217672   4.150  11.826   2.125
71945SOL     OW17673   7.845  14.038   5.383
71945SOL    HW117674   7.886  14.052   5.298
71945SOL    HW217675   7.763  13.994   5.363
71946SOL     OW17676   4.993   2.831  13.854
71946SOL    HW117677   4.998   2.830  13.759
71946SOL    HW217678   5.043   2.909  13.880
71947SOL     OW17679  14.370   5.245  12.365
71947SOL    HW117680  14.464   5.250  12.383
71947SOL    HW217681  14.365   5.203  12.279
71948SOL     OW17682   7.904  12.667   0.199
71948SOL    HW117683   7.843  12.716   0.144
71948SOL    HW217684   7.862  12.583   0.213
71949SOL     OW17685  11.851  13.743  11.279
71949SOL    HW117686  11.931  13.711  11.320
71949SOL    HW217687  11.855  13.838  11.290
71950SOL     OW17688  11.887  10.132   1.889
71950SOL    HW117689  11.801  10.125   1.931
71950SOL    HW217690  11.945  10.162   1.960
71951SOL     OW17691  11.932  13.214  12.677
71951SOL    HW117692  12.022  13.227  12.648
71951SOL    HW217693  11.879  13.259  12.612
71952SOL     OW17694   8.527  10.413  12.406
71952SOL    HW117695   8.575  10.389  12.327
71952SOL    HW217696   8.474  10.336  12.426
71953SOL     OW17697   0.537   8.014   4.997
71953SOL    HW117698   0.479   8.056   5.060
71953SOL    HW217699   0.592   8.085   4.963
71954SOL     OW17700   4.769   6.273   5.388
71954SOL    HW117701   4.703   6.257   5.455
71954SOL    HW217702   4.771   6.192   5.337
71955SOL     OW17703  10.650   8.248   1.946
71955SOL    HW117704  10.635   8.154   1.941
71955SOL    HW217705  10.707   8.268   1.872
71956SOL     OW17706   2.011   2.562   2.417
71956SOL    HW117707   2.096   2.557   2.459
71956SOL    HW217708   2.030   2.585   2.326
71957SOL     OW17709  12.978   5.890   2.492
71957SOL    HW117710  13.002   5.912   2.583
71957SOL    HW217711  12.950   5.799   2.496
71958SOL     OW17712  10.360  11.079   4.754
71958SOL    HW117713  10.393  11.106   4.668
71958SOL    HW217714  10.341  11.161   4.800
71959SOL     OW17715   4.708  12.877   0.160
71959SOL    HW117716   4.724  12.946   0.224
71959SOL    HW217717   4.612  12.871   0.155
71960SOL     OW17718  10.034   9.282   8.430
71960SOL    HW117719  10.033   9.370   8.392
71960SOL    HW217720   9.978   9.230   8.372
71961SOL     OW17721   6.091   3.332   1.605
71961SOL    HW117722   6.133   3.385   1.673
71961SOL    HW217723   6.162   3.311   1.544
71962SOL     OW17724  14.808   9.848   6.361
71962SOL    HW117725  14.725   9.807   6.337
71962SOL    HW217726  14.800   9.939   6.331
71963SOL     OW17727  13.191   4.568   5.222
71963SOL    HW117728  13.209   4.493   5.164
71963SOL    HW217729  13.162   4.528   5.304
71964SOL     OW17730  10.725   8.759   0.380
71964SOL    HW117731  10.697   8.684   0.432
71964SOL    HW217732  10.645   8.811   0.368
71965SOL     OW17733   8.141  10.095   3.700
71965SOL    HW117734   8.083  10.104   3.624
71965SOL    HW217735   8.206  10.030   3.673
71966SOL     OW17736   6.062   1.929   2.604
71966SOL    HW117737   6.133   1.882   2.648
71966SOL    HW217738   5.986   1.915   2.661
71967SOL     OW17739   4.211   7.775   3.206
71967SOL    HW117740   4.240   7.779   3.297
71967SOL    HW217741   4.120   7.746   3.211
71968SOL     OW17742   0.231   0.640   6.559
71968SOL    HW117743   0.233   0.725   6.601
71968SOL    HW217744   0.309   0.638   6.504
71969SOL     OW17745   0.156   1.846   2.045
71969SOL    HW117746   0.081   1.882   1.998
71969SOL    HW217747   0.148   1.751   2.035
71970SOL     OW17748   8.470  13.669   6.463
71970SOL    HW117749   8.526  13.745   6.479
71970SOL    HW217750   8.473  13.657   6.368
71971SOL     OW17751   0.336  12.564   4.307
71971SOL    HW117752   0.307  12.606   4.388
71971SOL    HW217753   0.400  12.498   4.336
71972SOL     OW17754   9.445   7.260  11.557
71972SOL    HW117755   9.382   7.188  11.560
71972SOL    HW217756   9.454   7.289  11.648
71973SOL     OW17757   3.629   3.382  12.226
71973SOL    HW117758   3.568   3.337  12.284
71973SOL    HW217759   3.695   3.420  12.285
71974SOL     OW17760   2.557   1.257   6.560
71974SOL    HW117761   2.619   1.328   6.578
71974SOL    HW217762   2.534   1.268   6.468
71975SOL     OW17763  11.603   9.595   1.139
71975SOL    HW117764  11.579   9.502   1.141
71975SOL    HW217765  11.542   9.634   1.077
71976SOL     OW17766  11.775   9.170   4.778
71976SOL    HW117767  11.806   9.260   4.790
71976SOL    HW217768  11.825   9.118   4.840
71977SOL     OW17769   2.962   0.220   0.622
71977SOL    HW117770   3.032   0.277   0.656
71977SOL    HW217771   3.008   0.154   0.570
71978SOL     OW17772   0.505   3.494   7.470
71978SOL    HW117773   0.497   3.581   7.508
71978SOL    HW217774   0.590   3.462   7.500
71979SOL     OW17775   9.093   4.599  10.234
71979SOL    HW117776   9.047   4.532  10.284
71979SOL    HW217777   9.031   4.625  10.166
71980SOL     OW17778   4.101   8.536   4.720
71980SOL    HW117779   4.049   8.516   4.798
71980SOL    HW217780   4.179   8.580   4.754
71981SOL     OW17781   8.088  12.994   8.274
71981SOL    HW117782   8.055  13.047   8.202
71981SOL    HW217783   8.148  13.052   8.321
71982SOL     OW17784   3.120   0.752   3.525
71982SOL    HW117785   3.051   0.690   3.502
71982SOL    HW217786   3.106   0.770   3.618
71983SOL     OW17787  10.602   5.000   6.658
71983SOL    HW117788  10.639   4.947   6.587
71983SOL    HW217789  10.607   5.090   6.626
71984SOL     OW17790   6.353   6.224   1.761
71984SOL    HW117791   6.437   6.231   1.806
71984SOL    HW217792   6.344   6.307   1.714
71985SOL     OW17793  11.607   2.638  11.884
71985SOL    HW117794  11.674   2.677  11.828
71985SOL    HW217795  11.595   2.701  11.954
71986SOL     OW17796   0.818  12.525   2.943
71986SOL    HW117797   0.839  12.615   2.969
71986SOL    HW217798   0.731  12.510   2.978
71987SOL     OW17799  14.099   4.295  10.407
71987SOL    HW117800  14.020   4.335  10.371
71987SOL    HW217801  14.135   4.362  10.465
71988SOL     OW17802   2.810  14.344   8.627
71988SOL    HW117803   2.729  14.375   8.667
71988SOL    HW217804   2.806  14.249   8.635
71989SOL     OW17805  11.181   4.243   3.523
71989SOL    HW117806  11.184   4.338   3.537
71989SOL    HW217807  11.208   4.231   3.432
71990SOL     OW17808  11.455  13.068  12.460
71990SOL    HW117809  11.418  13.063  12.372
71990SOL    HW217810  11.486  13.158  12.467
71991SOL     OW17811  12.300   0.411   6.023
71991SOL    HW117812  12.284   0.331   6.073
71991SOL    HW217813  12.235   0.408   5.952
71992SOL     OW17814   8.672   7.436   4.841
71992SOL    HW117815   8.633   7.351   4.823
71992SOL    HW217816   8.734   7.420   4.912
71993SOL     OW17817  10.120   6.622  11.989
71993SOL    HW117818  10.129   6.717  11.995
71993SOL    HW217819  10.209   6.589  11.998
71994SOL     OW17820   2.557   4.733   3.568
71994SOL    HW117821   2.551   4.827   3.588
71994SOL    HW217822   2.646   4.722   3.534
71995SOL     OW17823   8.385  10.554   0.668
71995SOL    HW117824   8.451  10.611   0.707
71995SOL    HW217825   8.332  10.524   0.742
71996SOL     OW17826   6.537   9.548   7.185
71996SOL    HW117827   6.465   9.591   7.232
71996SOL    HW217828   6.600   9.618   7.168
71997SOL     OW17829   0.845   5.790  11.652
71997SOL    HW117830   0.936   5.798  11.681
71997SOL    HW217831   0.807   5.877  11.669
71998SOL     OW17832   4.379   7.915   4.429
71998SOL    HW117833   4.407   7.828   4.400
71998SOL    HW217834   4.454   7.971   4.409
71999SOL     OW17835   0.310   6.467   9.643
71999SOL    HW117836   0.222   6.479   9.678
71999SOL    HW217837   0.296   6.441   9.552
72000SOL     OW17838  11.874   4.244   7.564
72000SOL    HW117839  11.832   4.328   7.581
72000SOL    HW217840  11.901   4.249   7.472
72001SOL     OW17841   0.110   6.780   2.937
72001SOL    HW117842   0.203   6.797   2.920
72001SOL    HW217843   0.110   6.720   3.012
72002SOL     OW17844   4.607  10.974  14.377
72002SOL    HW117845   4.588  11.019  14.294
72002SOL    HW217846   4.521  10.947  14.409
72003SOL     OW17847  13.676   9.711   3.787
72003SOL    HW117848  13.619   9.652   3.738
72003SOL    HW217849  13.761   9.667   3.787
72004SOL     OW17850   5.327   5.306  11.956
72004SOL    HW117851   5.287   5.241  12.013
72004SOL    HW217852   5.416   5.317  11.991
72005SOL     OW17853   0.967   4.597   8.880
72005SOL    HW117854   1.001   4.673   8.832
72005SOL    HW217855   1.044   4.543   8.898
72006SOL     OW17856  13.706  13.156  12.877
72006SOL    HW117857  13.713  13.239  12.831
72006SOL    HW217858  13.635  13.170  12.940
72007SOL     OW17859  11.030   5.970   9.254
72007SOL    HW117860  11.031   6.066   9.253
72007SOL    HW217861  11.039   5.947   9.346
72008SOL     OW17862   1.269   4.634   1.401
72008SOL    HW117863   1.199   4.684   1.443
72008SOL    HW217864   1.341   4.635   1.465
72009SOL     OW17865   8.415   3.406   4.782
72009SOL    HW117866   8.416   3.417   4.877
72009SOL    HW217867   8.325   3.379   4.762
72010SOL     OW17868  14.009  13.861   6.983
72010SOL    HW117869  14.100  13.854   7.012
72010SOL    HW217870  14.014  13.851   6.888
72011SOL     OW17871  10.521   4.876   8.849
72011SOL    HW117872  10.564   4.899   8.932
72011SOL    HW217873  10.579   4.910   8.782
72012SOL     OW17874   7.732   5.866  13.458
72012SOL    HW117875   7.815   5.843  13.498
72012SOL    HW217876   7.703   5.944  13.505
72013SOL     OW17877  10.153   6.051  11.832
72013SOL    HW117878  10.071   6.097  11.853
72013SOL    HW217879  10.143   6.025  11.741
72014SOL     OW17880   4.351  13.636  12.864
72014SOL    HW117881   4.389  13.592  12.788
72014SOL    HW217882   4.307  13.565  12.912
72015SOL     OW17883  11.517  10.527   0.757
72015SOL    HW117884  11.578  10.564   0.694
72015SOL    HW217885  11.447  10.591   0.764
72016SOL     OW17886   5.608   6.792   9.186
72016SOL    HW117887   5.637   6.852   9.118
72016SOL    HW217888   5.641   6.706   9.158
72017SOL     OW17889  11.080  14.711   9.878
72017SOL    HW117890  11.145  14.778   9.857
72017SOL    HW217891  11.041  14.687   9.794
72018SOL     OW17892  14.081   2.258  12.656
72018SOL    HW117893  14.046   2.346  12.651
72018SOL    HW217894  14.006   2.203  12.678
72019SOL     OW17895   2.418   0.151  13.413
72019SOL    HW117896   2.398   0.244  13.423
72019SOL    HW217897   2.401   0.113  13.499
72020SOL     OW17898   1.438  14.662   2.554
72020SOL    HW117899   1.466  14.709   2.633
72020SOL    HW217900   1.347  14.690   2.541
72021SOL     OW17901   4.507  10.259   4.332
72021SOL    HW117902   4.592  10.226   4.303
72021SOL    HW217903   4.514  10.354   4.323
72022SOL     OW17904   9.090   5.076  11.846
72022SOL    HW117905   9.066   5.114  11.762
72022SOL    HW217906   9.051   5.135  11.911
72023SOL     OW17907   7.292   0.216  14.682
72023SOL    HW117908   7.234   0.142  14.700
72023SOL    HW217909   7.367   0.177  14.637
72024SOL     OW17910   9.538   1.904   2.346
72024SOL    HW117911   9.545   1.981   2.403
72024SOL    HW217912   9.629   1.881   2.326
72025SOL     OW17913   9.913   1.847   6.434
72025SOL    HW117914   9.877   1.922   6.481
72025SOL    HW217915   9.994   1.827   6.480
72026SOL     OW17916   4.474  12.477   1.560
72026SOL    HW117917   4.491  12.388   1.590
72026SOL    HW217918   4.408  12.466   1.491
72027SOL     OW17919  12.169  10.839   7.574
72027SOL    HW117920  12.230  10.851   7.501
72027SOL    HW217921  12.085  10.871   7.541
72028SOL     OW17922  11.850  10.055   9.016
72028SOL    HW117923  11.932  10.007   9.008
72028SOL    HW217924  11.871  10.130   9.072
72029SOL     OW17925   6.309   8.428   6.910
72029SOL    HW117926   6.235   8.367   6.903
72029SOL    HW217927   6.350   8.405   6.993
72030SOL     OW17928  12.283  11.675   5.348
72030SOL    HW117929  12.256  11.679   5.257
72030SOL    HW217930  12.212  11.718   5.396
72031SOL     OW17931   3.339  12.713  12.691
72031SOL    HW117932   3.250  12.749  12.692
72031SOL    HW217933   3.379  12.749  12.612
72032SOL     OW17934   7.274  14.012   7.567
72032SOL    HW117935   7.296  14.009   7.661
72032SOL    HW217936   7.194  13.960   7.560
72033SOL     OW17937   5.552  10.873   9.956
72033SOL    HW117938   5.556  10.895  10.049
72033SOL    HW217939   5.574  10.780   9.953
72034SOL     OW17940   9.122   2.915   8.768
72034SOL    HW117941   9.178   2.987   8.799
72034SOL    HW217942   9.038   2.930   8.813
72035SOL     OW17943   8.969  13.527  10.920
72035SOL    HW117944   9.034  13.459  10.940
72035SOL    HW217945   8.932  13.501  10.836
72036SOL     OW17946  10.656   0.734  14.607
72036SOL    HW117947  10.578   0.684  14.582
72036SOL    HW217948  10.668   0.713  14.700
72037SOL     OW17949   6.372  10.828   0.573
72037SOL    HW117950   6.383  10.739   0.605
72037SOL    HW217951   6.282  10.851   0.596
72038SOL     OW17952   5.206   7.317   6.457
72038SOL    HW117953   5.211   7.305   6.363
72038SOL    HW217954   5.131   7.264   6.485
72039SOL     OW17955   8.499   8.614  12.393
72039SOL    HW117956   8.448   8.695  12.383
72039SOL    HW217957   8.502   8.599  12.487
72040SOL     OW17958   3.051   5.037  11.732
72040SOL    HW117959   2.972   5.026  11.679
72040SOL    HW217960   3.089   5.119  11.701
72041SOL     OW17961   5.689   9.120  13.623
72041SOL    HW117962   5.709   9.049  13.684
72041SOL    HW217963   5.611   9.161  13.659
72042SOL     OW17964   7.962   0.647   8.663
72042SOL    HW117965   7.977   0.577   8.599
72042SOL    HW217966   7.914   0.714   8.614
72043SOL     OW17967   7.621   6.776   5.428
72043SOL    HW117968   7.538   6.732   5.448
72043SOL    HW217969   7.688   6.716   5.462
72044SOL     OW17970  10.104  13.678   3.860
72044SOL    HW117971  10.096  13.756   3.805
72044SOL    HW217972  10.014  13.655   3.882
72045SOL     OW17973  11.388  12.323  13.924
72045SOL    HW117974  11.342  12.356  14.001
72045SOL    HW217975  11.331  12.255  13.889
72046SOL     OW17976   3.262   5.873  11.025
72046SOL    HW117977   3.330   5.844  10.965
72046SOL    HW217978   3.180   5.840  10.987
72047SOL     OW17979  10.706   4.202   8.752
72047SOL    HW117980  10.634   4.179   8.694
72047SOL    HW217981  10.709   4.297   8.751
72048SOL     OW17982   3.456  13.961  12.618
72048SOL    HW117983   3.466  13.898  12.689
72048SOL    HW217984   3.476  14.046  12.657
72049SOL     OW17985  12.548   5.120   1.336
72049SOL    HW117986  12.515   5.091   1.250
72049SOL    HW217987  12.536   5.215   1.336
72050SOL     OW17988   0.446   5.574   2.741
72050SOL    HW117989   0.378   5.539   2.798
72050SOL    HW217990   0.408   5.653   2.704
72051SOL     OW17991   3.245  14.799   5.535
72051SOL    HW117992   3.245  14.881   5.584
72051SOL    HW217993   3.201  14.737   5.593
72052SOL     OW17994   6.534   6.478   8.663
72052SOL    HW117995   6.605   6.495   8.601
72052SOL    HW217996   6.457   6.466   8.608
72053SOL     OW17997  11.098   4.646   9.268
72053SOL    HW117998  11.191   4.651   9.287
72053SOL    HW217999  11.055   4.675   9.348
72054SOL     OW18000   8.979  10.861   7.510
72054SOL    HW118001   8.910  10.913   7.551
72054SOL    HW218002   9.037  10.925   7.469
72055SOL     OW18003   3.823   1.715   3.061
72055SOL    HW118004   3.878   1.760   2.997
72055SOL    HW218005   3.824   1.771   3.138
72056SOL     OW18006  13.955  13.028   9.519
72056SOL    HW118007  14.024  12.975   9.480
72056SOL    HW218008  13.995  13.113   9.536
72057SOL     OW18009   0.953   5.637  12.774
72057SOL    HW118010   0.943   5.691  12.853
72057SOL    HW218011   0.955   5.701  12.703
72058SOL     OW18012   5.369  12.109  12.772
72058SOL    HW118013   5.338  12.018  12.770
72058SOL    HW218014   5.404  12.124  12.684
72059SOL     OW18015  11.030  14.617  13.230
72059SOL    HW118016  10.936  14.628  13.214
72059SOL    HW218017  11.064  14.706  13.239
72060SOL     OW18018   4.723   7.753   6.772
72060SOL    HW118019   4.671   7.721   6.846
72060SOL    HW218020   4.695   7.844   6.761
72061SOL     OW18021  10.760  11.234  12.383
72061SOL    HW118022  10.814  11.239  12.462
72061SOL    HW218023  10.707  11.155  12.395
72062SOL     OW18024   9.695   1.192   0.111
72062SOL    HW118025   9.727   1.264   0.164
72062SOL    HW218026   9.714   1.113   0.163
72063SOL     OW18027   6.075   3.708   2.128
72063SOL    HW118028   6.084   3.647   2.201
72063SOL    HW218029   5.987   3.692   2.095
72064SOL     OW18030   0.077   7.686   3.208
72064SOL    HW118031   0.054   7.610   3.263
72064SOL    HW218032  14.881   7.742   3.212
72065SOL     OW18033  11.002   9.435   9.693
72065SOL    HW118034  11.020   9.514   9.744
72065SOL    HW218035  11.085   9.415   9.649
72066SOL     OW18036  14.823  12.728   5.681
72066SOL    HW118037  14.797  12.736   5.773
72066SOL    HW218038  14.844  12.636   5.669
72067SOL     OW18039   5.859   7.736   6.681
72067SOL    HW118040   5.941   7.702   6.717
72067SOL    HW218041   5.809   7.657   6.660
72068SOL     OW18042  14.414  10.959   0.738
72068SOL    HW118043  14.402  10.971   0.832
72068SOL    HW218044  14.327  10.936   0.705
72069SOL     OW18045  12.486   3.361  11.065
72069SOL    HW118046  12.469   3.424  11.135
72069SOL    HW218047  12.548   3.299  11.103
72070SOL     OW18048   2.928  11.517  11.658
72070SOL    HW118049   2.962  11.464  11.731
72070SOL    HW218050   2.873  11.457  11.608
72071SOL     OW18051   2.367   5.348   1.309
72071SOL    HW118052   2.278   5.338   1.277
72071SOL    HW218053   2.380   5.273   1.368
72072SOL     OW18054   9.285   9.542   6.058
72072SOL    HW118055   9.304   9.448   6.049
72072SOL    HW218056   9.334   9.569   6.135
72073SOL     OW18057   6.342   9.106  13.309
72073SOL    HW118058   6.254   9.072  13.323
72073SOL    HW218059   6.362   9.157  13.387
72074SOL     OW18060   0.197  10.664   8.675
72074SOL    HW118061   0.203  10.575   8.711
72074SOL    HW218062   0.118  10.700   8.714
72075SOL     OW18063   4.092   1.225   7.466
72075SOL    HW118064   4.144   1.233   7.386
72075SOL    HW218065   4.042   1.307   7.470
72076SOL     OW18066   5.646   5.414   4.040
72076SOL    HW118067   5.717   5.357   4.069
72076SOL    HW218068   5.598   5.362   3.975
72077SOL     OW18069   4.880  10.719   2.996
72077SOL    HW118070   4.797  10.733   2.950
72077SOL    HW218071   4.864  10.645   3.054
72078SOL     OW18072   7.743   7.208  14.427
72078SOL    HW118073   7.684   7.178  14.358
72078SOL    HW218074   7.758   7.130  14.481
72079SOL     OW18075  14.825   7.717  10.608
72079SOL    HW118076  14.793   7.761  10.687
72079SOL    HW218077  14.803   7.776  10.536
72080SOL     OW18078   6.458  11.886  10.568
72080SOL    HW118079   6.465  11.878  10.663
72080SOL    HW218080   6.537  11.842  10.535
72081SOL     OW18081   1.866  13.514   6.877
72081SOL    HW118082   1.785  13.553   6.845
72081SOL    HW218083   1.903  13.580   6.937
72082SOL     OW18084  10.305   6.099   8.137
72082SOL    HW118085  10.373   6.131   8.077
72082SOL    HW218086  10.336   6.125   8.224
72083SOL     OW18087   0.229   6.453   9.143
72083SOL    HW118088   0.160   6.494   9.091
72083SOL    HW218089   0.293   6.422   9.078
72084SOL     OW18090   1.190  10.907   3.748
72084SOL    HW118091   1.122  10.931   3.811
72084SOL    HW218092   1.250  10.851   3.797
72085SOL     OW18093   9.684   2.411  14.631
72085SOL    HW118094   9.614   2.360  14.590
72085SOL    HW218095   9.727   2.349  14.691
72086SOL     OW18096   6.047   4.391  12.238
72086SOL    HW118097   6.000   4.441  12.305
72086SOL    HW218098   6.056   4.303  12.277
72087SOL     OW18099   9.699  13.596  13.228
72087SOL    HW118100   9.636  13.668  13.218
72087SOL    HW218101   9.679  13.560  13.315
72088SOL     OW18102   4.908   7.103  12.448
72088SOL    HW118103   4.901   7.186  12.495
72088SOL    HW218104   4.855   7.042  12.500
72089SOL     OW18105   4.746   7.643   2.548
72089SOL    HW118106   4.653   7.647   2.572
72089SOL    HW218107   4.776   7.734   2.555
72090SOL     OW18108   9.260   7.471   4.307
72090SOL    HW118109   9.168   7.447   4.321
72090SOL    HW218110   9.266   7.494   4.215
72091SOL     OW18111   3.944   4.609   9.562
72091SOL    HW118112   3.985   4.599   9.476
72091SOL    HW218113   3.862   4.654   9.544
72092SOL     OW18114   6.355  12.013   4.981
72092SOL    HW118115   6.437  11.982   5.020
72092SOL    HW218116   6.372  12.017   4.887
72093SOL     OW18117  13.769   0.608   0.023
72093SOL    HW118118  13.783   0.701   0.003
72093SOL    HW218119  13.753   0.568  14.819
72094SOL     OW18120  13.522   0.467   5.567
72094SOL    HW118121  13.572   0.505   5.640
72094SOL    HW218122  13.498   0.541   5.512
72095SOL     OW18123   2.559   2.163   6.740
72095SOL    HW118124   2.546   2.091   6.678
72095SOL    HW218125   2.651   2.185   6.732
72096SOL     OW18126   4.209   4.166   9.803
72096SOL    HW118127   4.138   4.103   9.797
72096SOL    HW218128   4.261   4.137   9.878
72097SOL     OW18129  11.962   1.244   5.836
72097SOL    HW118130  11.986   1.152   5.827
72097SOL    HW218131  11.944   1.273   5.746
72098SOL     OW18132   4.877   0.613  10.665
72098SOL    HW118133   4.819   0.538  10.679
72098SOL    HW218134   4.956   0.575  10.627
72099SOL     OW18135  10.393   5.301   8.260
72099SOL    HW118136  10.480   5.327   8.290
72099SOL    HW218137  10.337   5.375   8.283
72100SOL     OW18138  14.686  10.837  12.065
72100SOL    HW118139  14.772  10.812  12.100
72100SOL    HW218140  14.706  10.887  11.987
72101SOL     OW18141   3.831  14.230   7.844
72101SOL    HW118142   3.739  14.247   7.865
72101SOL    HW218143   3.843  14.269   7.758
72102SOL     OW18144   3.482   7.582  11.077
72102SOL    HW118145   3.390   7.572  11.101
72102SOL    HW218146   3.521   7.496  11.091
72103SOL     OW18147   0.508   5.746  13.687
72103SOL    HW118148   0.491   5.694  13.608
72103SOL    HW218149   0.544   5.828  13.653
72104SOL     OW18150  12.009   0.095  10.775
72104SOL    HW118151  12.019   0.167  10.713
72104SOL    HW218152  11.988   0.019  10.721
72105SOL     OW18153  12.993   4.105   6.343
72105SOL    HW118154  12.928   4.114   6.413
72105SOL    HW218155  13.076   4.093   6.389
72106SOL     OW18156   1.298   9.309   0.785
72106SOL    HW118157   1.222   9.361   0.758
72106SOL    HW218158   1.261   9.239   0.839
72107SOL     OW18159   6.304   8.230   6.183
72107SOL    HW118160   6.211   8.237   6.204
72107SOL    HW218161   6.319   8.136   6.174
72108SOL     OW18162   6.923   2.134  11.349
72108SOL    HW118163   7.012   2.121  11.317
72108SOL    HW218164   6.900   2.223  11.322
72109SOL     OW18165   8.189   6.823  10.881
72109SOL    HW118166   8.149   6.894  10.832
72109SOL    HW218167   8.276   6.855  10.905
72110SOL     OW18168   5.869  13.362  12.776
72110SOL    HW118169   5.844  13.292  12.717
72110SOL    HW218170   5.955  13.337  12.810
72111SOL     OW18171   2.805   5.956  14.326
72111SOL    HW118172   2.805   5.887  14.394
72111SOL    HW218173   2.894   5.955  14.291
72112SOL     OW18174   9.652   7.225  11.381
72112SOL    HW118175   9.578   7.279  11.409
72112SOL    HW218176   9.614   7.139  11.364
72113SOL     OW18177  10.436  12.284   9.694
72113SOL    HW118178  10.351  12.316   9.724
72113SOL    HW218179  10.424  12.190   9.685
72114SOL     OW18180   2.273   1.709  13.395
72114SOL    HW118181   2.259   1.695  13.489
72114SOL    HW218182   2.245   1.800  13.381
72115SOL     OW18183   2.359  12.230   0.310
72115SOL    HW118184   2.376  12.324   0.309
72115SOL    HW218185   2.441  12.190   0.337
72116SOL     OW18186   8.882   1.191  11.612
72116SOL    HW118187   8.958   1.222  11.562
72116SOL    HW218188   8.915   1.179  11.701
72117SOL     OW18189   7.325  12.020   3.388
72117SOL    HW118190   7.258  11.967   3.344
72117SOL    HW218191   7.306  12.009   3.481
72118SOL     OW18192   3.940  12.429  10.502
72118SOL    HW118193   3.887  12.481  10.442
72118SOL    HW218194   3.989  12.494  10.553
72119SOL     OW18195   4.389   6.647  14.688
72119SOL    HW118196   4.313   6.601  14.651
72119SOL    HW218197   4.454   6.578  14.703
72120SOL     OW18198   7.913   4.786  13.808
72120SOL    HW118199   7.822   4.755  13.804
72120SOL    HW218200   7.908   4.868  13.857
72121SOL     OW18201   9.586   2.415   6.249
72121SOL    HW118202   9.678   2.412   6.226
72121SOL    HW218203   9.552   2.494   6.208
72122SOL     OW18204   7.942  10.796  13.872
72122SOL    HW118205   8.026  10.813  13.914
72122SOL    HW218206   7.964  10.784  13.780
72123SOL     OW18207   5.446   7.398  10.280
72123SOL    HW118208   5.499   7.442  10.345
72123SOL    HW218209   5.444   7.458  10.205
72124SOL     OW18210   3.904   1.862  10.875
72124SOL    HW118211   3.946   1.863  10.789
72124SOL    HW218212   3.810   1.857  10.856
72125SOL     OW18213   0.296  13.335   6.276
72125SOL    HW118214   0.281  13.377   6.361
72125SOL    HW218215   0.316  13.408   6.217
72126SOL     OW18216   3.483   9.167  10.103
72126SOL    HW118217   3.515   9.255  10.120
72126SOL    HW218218   3.403   9.180  10.053
72127SOL     OW18219  13.097   5.298  12.125
72127SOL    HW118220  13.096   5.359  12.051
72127SOL    HW218221  13.054   5.220  12.091
72128SOL     OW18222   9.872  12.937   7.815
72128SOL    HW118223   9.943  12.910   7.873
72128SOL    HW218224   9.848  13.025   7.846
72129SOL     OW18225   7.908  11.674   2.510
72129SOL    HW118226   7.911  11.612   2.437
72129SOL    HW218227   7.817  11.676   2.537
72130SOL     OW18228   9.076   4.406   4.542
72130SOL    HW118229   9.122   4.413   4.458
72130SOL    HW218230   9.050   4.314   4.546
72131SOL     OW18231  13.228   2.942  14.801
72131SOL    HW118232  13.294   2.876  14.822
72131SOL    HW218233  13.250   3.017  14.856
72132SOL     OW18234  13.339   5.535  12.674
72132SOL    HW118235  13.315   5.510  12.764
72132SOL    HW218236  13.430   5.506  12.665
72133SOL     OW18237   6.533   9.513   3.024
72133SOL    HW118238   6.542   9.420   3.045
72133SOL    HW218239   6.441   9.523   2.997
72134SOL     OW18240   3.457  14.725   9.217
72134SOL    HW118241   3.405  14.793   9.173
72134SOL    HW218242   3.534  14.772   9.250
72135SOL     OW18243   6.721   4.418   8.742
72135SOL    HW118244   6.656   4.458   8.684
72135SOL    HW218245   6.676   4.412   8.827
72136SOL     OW18246   7.079   6.556   7.573
72136SOL    HW118247   7.112   6.473   7.608
72136SOL    HW218248   7.107   6.621   7.636
72137SOL     OW18249   5.141   8.004  10.611
72137SOL    HW118250   5.136   8.084  10.663
72137SOL    HW218251   5.150   8.034  10.520
72138SOL     OW18252   8.054  14.564  12.100
72138SOL    HW118253   8.069  14.601  12.012
72138SOL    HW218254   8.142  14.541  12.131
72139SOL     OW18255   5.248   3.383   7.852
72139SOL    HW118256   5.271   3.474   7.833
72139SOL    HW218257   5.328   3.345   7.887
72140SOL     OW18258   7.895   0.370   1.914
72140SOL    HW118259   7.964   0.311   1.945
72140SOL    HW218260   7.837   0.381   1.989
72141SOL     OW18261   5.728   2.607  12.577
72141SOL    HW118262   5.771   2.553  12.511
72141SOL    HW218263   5.665   2.660  12.528
72142SOL     OW18264   5.199   4.741   6.773
72142SOL    HW118265   5.103   4.737   6.775
72142SOL    HW218266   5.223   4.793   6.849
72143SOL     OW18267   1.764   4.745  14.669
72143SOL    HW118268   1.814   4.669  14.641
72143SOL    HW218269   1.699   4.710  14.731
72144SOL     OW18270  12.622   8.252  11.378
72144SOL    HW118271  12.687   8.194  11.338
72144SOL    HW218272  12.672   8.304  11.441
72145SOL     OW18273  11.138   2.562  14.527
72145SOL    HW118274  11.188   2.532  14.451
72145SOL    HW218275  11.163   2.653  14.538
72146SOL     OW18276   3.986  12.462  13.909
72146SOL    HW118277   3.908  12.513  13.889
72146SOL    HW218278   3.969  12.424  13.995
72147SOL     OW18279   9.211   0.564   0.071
72147SOL    HW118280   9.236   0.539  14.864
72147SOL    HW218281   9.132   0.513   0.090
72148SOL     OW18282   3.010   8.397   2.850
72148SOL    HW118283   2.994   8.409   2.943
72148SOL    HW218284   3.080   8.331   2.846
72149SOL     OW18285  10.404   7.721  13.601
72149SOL    HW118286  10.403   7.815  13.586
72149SOL    HW218287  10.435   7.685  13.518
72150SOL     OW18288  11.838  11.624   8.861
72150SOL    HW118289  11.799  11.538   8.844
72150SOL    HW218290  11.842  11.666   8.775
72151SOL     OW18291  10.601   7.749   3.581
72151SOL    HW118292  10.675   7.810   3.579
72151SOL    HW218293  10.642   7.663   3.585
72152SOL     OW18294  11.025  11.357   8.700
72152SOL    HW118295  11.114  11.321   8.698
72152SOL    HW218296  11.006  11.370   8.793
72153SOL     OW18297   6.655   6.439  12.214
72153SOL    HW118298   6.689   6.528  12.214
72153SOL    HW218299   6.563   6.448  12.238
72154SOL     OW18300   1.613   7.132   4.221
72154SOL    HW118301   1.522   7.153   4.203
72154SOL    HW218302   1.649   7.212   4.260
72155SOL     OW18303   1.386   7.361   8.718
72155SOL    HW118304   1.405   7.279   8.764
72155SOL    HW218305   1.378   7.426   8.787
72156SOL     OW18306  11.193   6.905  12.719
72156SOL    HW118307  11.223   6.857  12.643
72156SOL    HW218308  11.098   6.892  12.720
72157SOL     OW18309   3.766   8.348  12.563
72157SOL    HW118310   3.697   8.311  12.618
72157SOL    HW218311   3.825   8.391  12.625
72158SOL     OW18312   5.202  10.668   5.521
72158SOL    HW118313   5.226  10.578   5.545
72158SOL    HW218314   5.106  10.669   5.522
72159SOL     OW18315   5.170  10.379   4.143
72159SOL    HW118316   5.134  10.453   4.094
72159SOL    HW218317   5.098  10.349   4.199
72160SOL     OW18318   1.597   6.016  10.829
72160SOL    HW118319   1.628   5.940  10.780
72160SOL    HW218320   1.530   6.055  10.773
72161SOL     OW18321  14.871   2.404   5.635
72161SOL    HW118322  14.873   2.323   5.687
72161SOL    HW218323  14.827   2.467   5.691
72162SOL     OW18324   1.007  12.445  13.961
72162SOL    HW118325   1.026  12.395  13.881
72162SOL    HW218326   1.066  12.409  14.026
72163SOL     OW18327  11.829  11.212   0.096
72163SOL    HW118328  11.864  11.233   0.009
72163SOL    HW218329  11.788  11.126   0.085
72164SOL     OW18330   8.313   1.689   6.804
72164SOL    HW118331   8.279   1.626   6.741
72164SOL    HW218332   8.359   1.753   6.749
72165SOL     OW18333   4.857   0.402  14.222
72165SOL    HW118334   4.866   0.415  14.317
72165SOL    HW218335   4.763   0.412  14.206
72166SOL     OW18336   2.954   8.574   1.081
72166SOL    HW118337   3.005   8.496   1.103
72166SOL    HW218338   2.927   8.561   0.991
72167SOL     OW18339   9.438   5.971   6.195
72167SOL    HW118340   9.441   6.064   6.173
72167SOL    HW218341   9.494   5.964   6.273
72168SOL     OW18342   0.642   4.251   9.264
72168SOL    HW118343   0.733   4.261   9.294
72168SOL    HW218344   0.634   4.159   9.239
72169SOL     OW18345   9.899   9.423   5.835
72169SOL    HW118346   9.899   9.372   5.916
72169SOL    HW218347   9.862   9.364   5.770
72170SOL     OW18348   5.646   1.611   7.536
72170SOL    HW118349   5.731   1.627   7.575
72170SOL    HW218350   5.584   1.617   7.610
72171SOL     OW18351   4.084   9.109   1.996
72171SOL    HW118352   4.031   9.156   2.060
72171SOL    HW218353   4.106   9.174   1.930
72172SOL     OW18354   1.766   0.631   4.677
72172SOL    HW118355   1.673   0.612   4.688
72172SOL    HW218356   1.802   0.552   4.636
72173SOL     OW18357   8.816  12.411   8.552
72173SOL    HW118358   8.891  12.370   8.596
72173SOL    HW218359   8.854  12.479   8.497
72174SOL     OW18360   4.095   8.627   3.609
72174SOL    HW118361   4.043   8.655   3.684
72174SOL    HW218362   4.034   8.577   3.555
72175SOL     OW18363   6.740  10.628  11.421
72175SOL    HW118364   6.798  10.578  11.478
72175SOL    HW218365   6.666  10.653  11.478
72176SOL     OW18366   4.126   3.117   6.333
72176SOL    HW118367   4.211   3.097   6.294
72176SOL    HW218368   4.107   3.040   6.387
72177SOL     OW18369  10.240   4.777   4.803
72177SOL    HW118370  10.315   4.726   4.836
72177SOL    HW218371  10.173   4.711   4.785
72178SOL     OW18372  12.131   3.952   1.456
72178SOL    HW118373  12.138   3.966   1.361
72178SOL    HW218374  12.137   4.040   1.493
72179SOL     OW18375  10.433   6.150  14.541
72179SOL    HW118376  10.398   6.145  14.452
72179SOL    HW218377  10.359   6.125  14.597
72180SOL     OW18378   5.643   1.844   9.488
72180SOL    HW118379   5.726   1.854   9.441
72180SOL    HW218380   5.666   1.855   9.580
72181SOL     OW18381   5.353  11.972   0.930
72181SOL    HW118382   5.310  11.947   0.849
72181SOL    HW218383   5.328  11.904   0.993
72182SOL     OW18384   3.718   7.042   1.935
72182SOL    HW118385   3.634   6.997   1.941
72182SOL    HW218386   3.769   6.990   1.873
72183SOL     OW18387  11.145   0.076   6.381
72183SOL    HW118388  11.216   0.014   6.399
72183SOL    HW218389  11.185   0.162   6.396
72184SOL     OW18390   4.763   8.659   7.417
72184SOL    HW118391   4.670   8.677   7.401
72184SOL    HW218392   4.787   8.596   7.348
72185SOL     OW18393  13.751   8.143   4.372
72185SOL    HW118394  13.663   8.161   4.340
72185SOL    HW218395  13.739   8.080   4.443
72186SOL     OW18396  10.179  10.312  14.448
72186SOL    HW118397  10.198  10.344  14.537
72186SOL    HW218398  10.255  10.340  14.396
72187SOL     OW18399  10.833   0.840   6.558
72187SOL    HW118400  10.836   0.766   6.618
72187SOL    HW218401  10.819   0.800   6.472
72188SOL     OW18402  10.302  14.865   0.415
72188SOL    HW118403  10.336  14.799   0.475
72188SOL    HW218404  10.215  14.834   0.391
72189SOL     OW18405   3.463   4.107   3.505
72189SOL    HW118406   3.404   4.154   3.445
72189SOL    HW218407   3.550   4.118   3.466
72190SOL     OW18408   4.367   2.092   3.475
72190SOL    HW118409   4.287   2.113   3.523
72190SOL    HW218410   4.372   2.157   3.405
72191SOL     OW18411   5.048   6.137   0.747
72191SOL    HW118412   5.049   6.112   0.840
72191SOL    HW218413   5.086   6.225   0.746
72192SOL     OW18414   2.355  13.933   4.215
72192SOL    HW118415   2.375  13.840   4.223
72192SOL    HW218416   2.365  13.967   4.303
72193SOL     OW18417   9.994   7.767   7.322
72193SOL    HW118418   9.975   7.680   7.355
72193SOL    HW218419  10.088   7.779   7.335
72194SOL     OW18420  13.098   0.124  11.256
72194SOL    HW118421  13.029   0.175  11.297
72194SOL    HW218422  13.115   0.169  11.173
72195SOL     OW18423   3.956  10.341  14.056
72195SOL    HW118424   3.866  10.367  14.035
72195SOL    HW218425   3.973  10.382  14.141
72196SOL     OW18426   4.219   0.844   3.076
72196SOL    HW118427   4.199   0.815   3.165
72196SOL    HW218428   4.312   0.822   3.064
72197SOL     OW18429  10.875   8.928   8.917
72197SOL    HW118430  10.792   8.893   8.885
72197SOL    HW218431  10.935   8.853   8.914
72198SOL     OW18432   5.498  14.471   5.793
72198SOL    HW118433   5.486  14.564   5.776
72198SOL    HW218434   5.414  14.431   5.771
72199SOL     OW18435   1.788  12.136   8.262
72199SOL    HW118436   1.854  12.076   8.297
72199SOL    HW218437   1.705  12.102   8.295
72200SOL     OW18438  14.591  12.031   9.379
72200SOL    HW118439  14.678  12.029   9.340
72200SOL    HW218440  14.589  12.113   9.429
72201SOL     OW18441   6.031   3.506  11.517
72201SOL    HW118442   6.056   3.597  11.533
72201SOL    HW218443   5.937   3.504  11.538
72202SOL     OW18444  10.233   7.595   9.121
72202SOL    HW118445  10.199   7.664   9.064
72202SOL    HW218446  10.209   7.622   9.209
72203SOL     OW18447   8.559   9.466   5.013
72203SOL    HW118448   8.594   9.383   5.045
72203SOL    HW218449   8.590   9.531   5.076
72204SOL     OW18450   2.158   2.505  14.016
72204SOL    HW118451   2.226   2.522  13.951
72204SOL    HW218452   2.173   2.570  14.084
72205SOL     OW18453   0.653   6.294   7.168
72205SOL    HW118454   0.591   6.223   7.150
72205SOL    HW218455   0.652   6.304   7.263
72206SOL     OW18456   9.874   3.316   5.861
72206SOL    HW118457   9.845   3.365   5.939
72206SOL    HW218458   9.966   3.339   5.852
72207SOL     OW18459  10.331   1.967   7.260
72207SOL    HW118460  10.393   2.032   7.226
72207SOL    HW218461  10.378   1.884   7.258
72208SOL     OW18462   3.320   7.950   1.320
72208SOL    HW118463   3.412   7.944   1.295
72208SOL    HW218464   3.309   8.041   1.349
72209SOL     OW18465   6.116   3.232   2.983
72209SOL    HW118466   6.157   3.296   2.925
72209SOL    HW218467   6.055   3.185   2.927
72210SOL     OW18468   8.526  12.831   3.949
72210SOL    HW118469   8.563  12.901   3.896
72210SOL    HW218470   8.601  12.790   3.992
72211SOL     OW18471   2.970   4.901   4.413
72211SOL    HW118472   2.917   4.876   4.489
72211SOL    HW218473   3.033   4.964   4.449
72212SOL     OW18474   9.337   1.647   8.685
72212SOL    HW118475   9.320   1.738   8.711
72212SOL    HW218476   9.399   1.615   8.749
72213SOL     OW18477   6.985   4.805   2.871
72213SOL    HW118478   6.893   4.808   2.898
72213SOL    HW218479   6.993   4.874   2.805
72214SOL     OW18480   9.487  10.985  11.433
72214SOL    HW118481   9.440  11.068  11.419
72214SOL    HW218482   9.550  10.982  11.361
72215SOL     OW18483   4.056   0.968   6.339
72215SOL    HW118484   4.111   1.001   6.268
72215SOL    HW218485   4.106   0.985   6.419
72216SOL     OW18486  11.519   3.125   4.820
72216SOL    HW118487  11.431   3.133   4.858
72216SOL    HW218488  11.522   3.036   4.785
72217SOL     OW18489   1.033   1.862   4.107
72217SOL    HW118490   0.944   1.896   4.115
72217SOL    HW218491   1.043   1.804   4.183
72218SOL     OW18492   2.918  13.403  10.550
72218SOL    HW118493   2.990  13.441  10.601
72218SOL    HW218494   2.876  13.341  10.609
72219SOL     OW18495   5.301   4.189   7.779
72219SOL    HW118496   5.252   4.231   7.849
72219SOL    HW218497   5.245   4.117   7.750
72220SOL     OW18498   9.868   6.023   4.419
72220SOL    HW118499   9.914   5.939   4.421
72220SOL    HW218500   9.807   6.018   4.493
72221SOL     OW18501   5.316   0.868   2.100
72221SOL    HW118502   5.370   0.938   2.138
72221SOL    HW218503   5.375   0.823   2.039
72222SOL     OW18504  13.958   6.420   2.874
72222SOL    HW118505  13.919   6.357   2.813
72222SOL    HW218506  13.906   6.410   2.954
72223SOL     OW18507   4.959  14.051  11.721
72223SOL    HW118508   4.990  14.127  11.772
72223SOL    HW218509   4.880  14.082  11.678
72224SOL     OW18510  11.160   1.165   7.398
72224SOL    HW118511  11.205   1.134   7.477
72224SOL    HW218512  11.214   1.134   7.326
72225SOL     OW18513   7.883  12.054  12.706
72225SOL    HW118514   7.808  12.007  12.742
72225SOL    HW218515   7.923  12.098  12.781
72226SOL     OW18516   4.411   1.835   3.020
72226SOL    HW118517   4.338   1.889   2.988
72226SOL    HW218518   4.486   1.895   3.021
72227SOL     OW18519   8.018   8.122  11.251
72227SOL    HW118520   8.050   8.154  11.167
72227SOL    HW218521   7.998   8.201  11.301
72228SOL     OW18522  10.691  13.458   8.937
72228SOL    HW118523  10.657  13.388   8.992
72228SOL    HW218524  10.760  13.416   8.885
72229SOL     OW18525   3.175   9.940   3.456
72229SOL    HW118526   3.237   9.939   3.383
72229SOL    HW218527   3.206  10.009   3.514
72230SOL     OW18528   9.607   6.379   3.625
72230SOL    HW118529   9.569   6.439   3.560
72230SOL    HW218530   9.695   6.361   3.592
72231SOL     OW18531   3.747  14.166  14.310
72231SOL    HW118532   3.668  14.193  14.264
72231SOL    HW218533   3.715  14.123  14.390
72232SOL     OW18534  12.532   8.050   2.762
72232SOL    HW118535  12.522   7.955   2.758
72232SOL    HW218536  12.465   8.080   2.824
72233SOL     OW18537   8.847  10.531  10.197
72233SOL    HW118538   8.811  10.489  10.119
72233SOL    HW218539   8.916  10.472  10.226
72234SOL     OW18540  10.172  11.582  14.351
72234SOL    HW118541  10.146  11.636  14.425
72234SOL    HW218542  10.094  11.576  14.296
72235SOL     OW18543  13.380   1.090   6.364
72235SOL    HW118544  13.386   0.998   6.390
72235SOL    HW218545  13.466   1.126   6.385
72236SOL     OW18546   3.705   1.187   0.053
72236SOL    HW118547   3.759   1.261   0.026
72236SOL    HW218548   3.765   1.131   0.103
72237SOL     OW18549  11.602   5.272   4.563
72237SOL    HW118550  11.656   5.194   4.578
72237SOL    HW218551  11.664   5.340   4.538
72238SOL     OW18552  10.676   4.735  12.553
72238SOL    HW118553  10.688   4.679  12.630
72238SOL    HW218554  10.593   4.779  12.568
72239SOL     OW18555   6.907   1.600   3.011
72239SOL    HW118556   6.823   1.581   2.970
72239SOL    HW218557   6.972   1.568   2.949
72240SOL     OW18558   5.142   7.150   6.922
72240SOL    HW118559   5.092   7.107   6.991
72240SOL    HW218560   5.143   7.242   6.947
72241SOL     OW18561  11.582  13.380   3.173
72241SOL    HW118562  11.570  13.298   3.125
72241SOL    HW218563  11.571  13.449   3.107
72242SOL     OW18564   8.560   0.471   8.124
72242SOL    HW118565   8.632   0.532   8.115
72242SOL    HW218566   8.482   0.521   8.099
72243SOL     OW18567   3.851   0.226   6.448
72243SOL    HW118568   3.929   0.184   6.411
72243SOL    HW218569   3.881   0.313   6.475
72244SOL     OW18570   7.130   4.618  13.878
72244SOL    HW118571   7.116   4.701  13.831
72244SOL    HW218572   7.058   4.562  13.850
72245SOL     OW18573   1.567  11.286  12.762
72245SOL    HW118574   1.544  11.375  12.787
72245SOL    HW218575   1.543  11.233  12.838
72246SOL     OW18576  12.249  12.658  13.999
72246SOL    HW118577  12.168  12.608  14.005
72246SOL    HW218578  12.288  12.653  14.086
72247SOL     OW18579  11.721  13.632  11.050
72247SOL    HW118580  11.626  13.628  11.062
72247SOL    HW218581  11.754  13.673  11.129
72248SOL     OW18582   4.469  14.716   8.929
72248SOL    HW118583   4.414  14.671   8.993
72248SOL    HW218584   4.525  14.648   8.893
72249SOL     OW18585  12.342   9.874  13.203
72249SOL    HW118586  12.327   9.896  13.295
72249SOL    HW218587  12.438   9.871  13.195
72250SOL     OW18588   9.195   9.889   4.597
72250SOL    HW118589   9.248   9.820   4.637
72250SOL    HW218590   9.244   9.969   4.614
72251SOL     OW18591  11.982  12.256   7.639
72251SOL    HW118592  11.955  12.276   7.729
72251SOL    HW218593  12.030  12.333   7.610
72252SOL     OW18594   6.074   8.112   7.387
72252SOL    HW118595   6.097   8.022   7.413
72252SOL    HW218596   6.106   8.120   7.297
72253SOL     OW18597   7.245  13.983  10.652
72253SOL    HW118598   7.175  14.013  10.593
72253SOL    HW218599   7.326  14.009  10.608
72254SOL     OW18600   4.709   9.351   0.813
72254SOL    HW118601   4.762   9.369   0.890
72254SOL    HW218602   4.730   9.422   0.752
72255SOL     OW18603   8.067  11.849  14.456
72255SOL    HW118604   8.137  11.813  14.511
72255SOL    HW218605   7.989  11.801  14.484
72256SOL     OW18606  14.040   1.730  13.827
72256SOL    HW118607  14.080   1.643  13.823
72256SOL    HW218608  14.113   1.789  13.847
72257SOL     OW18609   1.091   9.736   4.515
72257SOL    HW118610   1.033   9.797   4.560
72257SOL    HW218611   1.174   9.783   4.505
72258SOL     OW18612   5.830  10.980   9.858
72258SOL    HW118613   5.903  11.005   9.914
72258SOL    HW218614   5.753  10.989   9.913
72259SOL     OW18615   4.509   0.249   7.609
72259SOL    HW118616   4.420   0.227   7.639
72259SOL    HW218617   4.566   0.196   7.665
72260SOL     OW18618   0.607   9.558  14.133
72260SOL    HW118619   0.540   9.548  14.200
72260SOL    HW218620   0.560   9.590  14.056
72261SOL     OW18621   5.122  14.292  11.500
72261SOL    HW118622   5.035  14.317  11.468
72261SOL    HW218623   5.116  14.298  11.595
72262SOL     OW18624  11.965   7.179   0.641
72262SOL    HW118625  12.019   7.225   0.705
72262SOL    HW218626  11.918   7.248   0.595
72263SOL     OW18627   1.239  13.299   9.014
72263SOL    HW118628   1.197  13.367   9.066
72263SOL    HW218629   1.287  13.347   8.946
72264SOL     OW18630   4.225  10.992   3.896
72264SOL    HW118631   4.157  11.007   3.962
72264SOL    HW218632   4.207  10.905   3.862
72265SOL     OW18633   2.608   2.225  13.127
72265SOL    HW118634   2.518   2.255  13.140
72265SOL    HW218635   2.661   2.304  13.134
72266SOL     OW18636   9.730   4.049   6.356
72266SOL    HW118637   9.793   4.121   6.340
72266SOL    HW218638   9.646   4.093   6.366
72267SOL     OW18639   8.742   4.616   7.806
72267SOL    HW118640   8.832   4.631   7.779
72267SOL    HW218641   8.748   4.587   7.897
72268SOL     OW18642   4.853   2.914   9.974
72268SOL    HW118643   4.873   3.003   9.947
72268SOL    HW218644   4.770   2.894   9.931
72269SOL     OW18645   9.384   1.861  13.806
72269SOL    HW118646   9.397   1.845  13.713
72269SOL    HW218647   9.314   1.926  13.810
72270SOL     OW18648   1.741   7.114  11.425
72270SOL    HW118649   1.810   7.169  11.462
72270SOL    HW218650   1.660   7.154  11.456
72271SOL     OW18651   7.947   5.330   6.219
72271SOL    HW118652   7.887   5.385   6.269
72271SOL    HW218653   7.904   5.318   6.135
72272SOL     OW18654  14.535  11.231   4.786
72272SOL    HW118655  14.516  11.274   4.870
72272SOL    HW218656  14.630  11.240   4.777
72273SOL     OW18657   4.925   6.674   9.904
72273SOL    HW118658   4.970   6.694   9.822
72273SOL    HW218659   4.914   6.578   9.903
72274SOL     OW18660  13.700   3.100   4.106
72274SOL    HW118661  13.710   3.079   4.199
72274SOL    HW218662  13.721   3.018   4.061
72275SOL     OW18663  13.035  13.789   7.725
72275SOL    HW118664  13.119  13.771   7.767
72275SOL    HW218665  13.038  13.882   7.702
72276SOL     OW18666   6.309  10.031   0.266
72276SOL    HW118667   6.299  10.123   0.243
72276SOL    HW218668   6.369   9.996   0.199
72277SOL     OW18669   2.124   4.446  13.343
72277SOL    HW118670   2.171   4.445  13.261
72277SOL    HW218671   2.177   4.501  13.401
72278SOL     OW18672  11.369  11.591  10.511
72278SOL    HW118673  11.283  11.552  10.528
72278SOL    HW218674  11.431  11.530  10.552
72279SOL     OW18675   9.543   2.769   3.830
72279SOL    HW118676   9.630   2.741   3.857
72279SOL    HW218677   9.553   2.863   3.812
72280SOL     OW18678  10.349  12.443   0.514
72280SOL    HW118679  10.366  12.403   0.600
72280SOL    HW218680  10.254  12.450   0.509
72281SOL     OW18681   4.986   2.592   4.784
72281SOL    HW118682   5.000   2.674   4.831
72281SOL    HW218683   4.933   2.539   4.843
72282SOL     OW18684   7.132   8.334   9.264
72282SOL    HW118685   7.114   8.381   9.182
72282SOL    HW218686   7.047   8.327   9.306
72283SOL     OW18687  14.219   3.732   7.371
72283SOL    HW118688  14.244   3.820   7.400
72283SOL    HW218689  14.156   3.748   7.300
72284SOL     OW18690   6.963   6.650   1.645
72284SOL    HW118691   7.047   6.667   1.601
72284SOL    HW218692   6.926   6.576   1.597
72285SOL     OW18693  13.784  10.191   0.099
72285SOL    HW118694  13.854  10.241   0.141
72285SOL    HW218695  13.781  10.225   0.009
72286SOL     OW18696   3.260  14.418   7.380
72286SOL    HW118697   3.170  14.448   7.366
72286SOL    HW218698   3.252  14.324   7.398
72287SOL     OW18699   9.790  12.079  10.351
72287SOL    HW118700   9.777  12.174  10.358
72287SOL    HW218701   9.792  12.049  10.442
72288SOL     OW18702   5.707   8.132   9.625
72288SOL    HW118703   5.783   8.143   9.682
72288SOL    HW218704   5.647   8.078   9.676
72289SOL     OW18705   9.852   7.710   3.406
72289SOL    HW118706   9.766   7.750   3.394
72289SOL    HW218707   9.890   7.755   3.482
72290SOL     OW18708  13.578   2.723  10.093
72290SOL    HW118709  13.506   2.687  10.042
72290SOL    HW218710  13.600   2.655  10.155
72291SOL     OW18711  11.204  14.662   3.401
72291SOL    HW118712  11.290  14.692   3.372
72291SOL    HW218713  11.184  14.715   3.478
72292SOL     OW18714   5.580  10.953   4.498
72292SOL    HW118715   5.593  10.897   4.421
72292SOL    HW218716   5.626  11.034   4.476
72293SOL     OW18717   2.094   8.451   3.017
72293SOL    HW118718   2.128   8.440   2.929
72293SOL    HW218719   2.092   8.546   3.030
72294SOL     OW18720   1.314   0.839  13.716
72294SOL    HW118721   1.326   0.854  13.622
72294SOL    HW218722   1.377   0.771  13.738
72295SOL     OW18723   1.533   5.325   0.972
72295SOL    HW118724   1.463   5.346   0.910
72295SOL    HW218725   1.495   5.344   1.058
72296SOL     OW18726  13.119   6.048  10.094
72296SOL    HW118727  13.040   6.078  10.139
72296SOL    HW218728  13.149   6.123  10.044
72297SOL     OW18729  14.530   9.248   7.010
72297SOL    HW118730  14.465   9.263   6.941
72297SOL    HW218731  14.523   9.325   7.067
72298SOL     OW18732  10.097  13.579   3.189
72298SOL    HW118733  10.139  13.664   3.180
72298SOL    HW218734  10.036  13.573   3.115
72299SOL     OW18735   4.800   4.463   9.559
72299SOL    HW118736   4.774   4.555   9.566
72299SOL    HW218737   4.812   4.434   9.650
72300SOL     OW18738   8.976   1.523  14.540
72300SOL    HW118739   8.917   1.590  14.505
72300SOL    HW218740   9.041   1.509  14.471
72301SOL     OW18741   3.058  14.768   3.710
72301SOL    HW118742   3.005  14.706   3.759
72301SOL    HW218743   3.148  14.735   3.718
72302SOL     OW18744   5.683   1.311   2.181
72302SOL    HW118745   5.749   1.378   2.198
72302SOL    HW218746   5.671   1.313   2.087
72303SOL     OW18747  12.138   0.805  10.984
72303SOL    HW118748  12.203   0.834  10.919
72303SOL    HW218749  12.191   0.766  11.054
72304SOL     OW18750   6.962  11.763   8.957
72304SOL    HW118751   6.931  11.680   8.992
72304SOL    HW218752   7.048  11.775   8.997
72305SOL     OW18753   8.823   2.315   1.175
72305SOL    HW118754   8.732   2.296   1.154
72305SOL    HW218755   8.872   2.281   1.100
72306SOL     OW18756  10.220  11.325   4.381
72306SOL    HW118757  10.252  11.357   4.465
72306SOL    HW218758  10.151  11.387   4.356
72307SOL     OW18759   3.225   0.707   5.988
72307SOL    HW118760   3.249   0.795   6.017
72307SOL    HW218761   3.196   0.662   6.067
72308SOL     OW18762   4.822  11.213  10.718
72308SOL    HW118763   4.782  11.167  10.644
72308SOL    HW218764   4.861  11.143  10.771
72309SOL     OW18765   0.277  12.635   7.634
72309SOL    HW118766   0.363  12.600   7.654
72309SOL    HW218767   0.266  12.623   7.540
72310SOL     OW18768  13.327   9.063   8.854
72310SOL    HW118769  13.344   8.968   8.853
72310SOL    HW218770  13.278   9.077   8.934
72311SOL     OW18771   9.927   9.106  11.052
72311SOL    HW118772   9.994   9.041  11.072
72311SOL    HW218773   9.973   9.175  11.004
72312SOL     OW18774  10.606   1.553  13.698
72312SOL    HW118775  10.576   1.495  13.768
72312SOL    HW218776  10.571   1.515  13.618
72313SOL     OW18777   1.411  10.706   5.431
72313SOL    HW118778   1.481  10.758   5.394
72313SOL    HW218779   1.347  10.696   5.360
72314SOL     OW18780   5.716  14.269   9.623
72314SOL    HW118781   5.635  14.285   9.673
72314SOL    HW218782   5.724  14.345   9.566
72315SOL     OW18783   1.459  11.064   0.761
72315SOL    HW118784   1.402  11.100   0.829
72315SOL    HW218785   1.543  11.050   0.805
72316SOL     OW18786  13.127   9.750   4.316
72316SOL    HW118787  13.171   9.718   4.394
72316SOL    HW218788  13.177   9.713   4.243
72317SOL     OW18789   0.906  12.364  10.131
72317SOL    HW118790   0.924  12.403  10.046
72317SOL    HW218791   0.820  12.325  10.123
72318SOL     OW18792   0.554  14.153   7.551
72318SOL    HW118793   0.634  14.206   7.563
72318SOL    HW218794   0.499  14.176   7.626
72319SOL     OW18795   5.990   8.984  12.278
72319SOL    HW118796   6.014   9.058  12.222
72319SOL    HW218797   6.064   8.924  12.272
72320SOL     OW18798   6.226  14.231   0.229
72320SOL    HW118799   6.153  14.170   0.231
72320SOL    HW218800   6.288  14.198   0.294
72321SOL     OW18801   3.893   3.911  14.653
72321SOL    HW118802   3.948   3.982  14.686
72321SOL    HW218803   3.945   3.832  14.667
72322SOL     OW18804   0.889   2.057   9.270
72322SOL    HW118805   0.941   2.032   9.193
72322SOL    HW218806   0.863   2.148   9.253
72323SOL     OW18807   8.078   8.989  10.393
72323SOL    HW118808   8.071   8.896  10.418
72323SOL    HW218809   7.987   9.016  10.379
72324SOL     OW18810  12.225   3.716   1.968
72324SOL    HW118811  12.150   3.721   1.909
72324SOL    HW218812  12.299   3.692   1.912
72325SOL     OW18813   8.865  10.635  12.414
72325SOL    HW118814   8.786  10.653  12.362
72325SOL    HW218815   8.937  10.646  12.352
72326SOL     OW18816   9.551  10.105   2.691
72326SOL    HW118817   9.468  10.151   2.702
72326SOL    HW218818   9.613  10.154   2.745
72327SOL     OW18819  11.814  12.769   6.484
72327SOL    HW118820  11.799  12.680   6.451
72327SOL    HW218821  11.898  12.763   6.530
72328SOL     OW18822   8.485  13.938  14.326
72328SOL    HW118823   8.474  13.844  14.314
72328SOL    HW218824   8.506  13.949  14.418
72329SOL     OW18825   0.301   8.838   6.214
72329SOL    HW118826   0.388   8.858   6.248
72329SOL    HW218827   0.277   8.916   6.163
72330SOL     OW18828  13.508   2.435  11.873
72330SOL    HW118829  13.501   2.476  11.959
72330SOL    HW218830  13.443   2.364  11.875
72331SOL     OW18831  13.541   2.789   5.416
72331SOL    HW118832  13.616   2.808   5.361
72331SOL    HW218833  13.476   2.855   5.390
72332SOL     OW18834  11.779   5.477   5.306
72332SOL    HW118835  11.734   5.437   5.380
72332SOL    HW218836  11.772   5.413   5.235
72333SOL     OW18837   2.804   6.044  13.450
72333SOL    HW118838   2.809   6.139  13.438
72333SOL    HW218839   2.754   6.013  13.374
72334SOL     OW18840   2.580   6.622   7.593
72334SOL    HW118841   2.649   6.624   7.528
72334SOL    HW218842   2.626   6.622   7.677
72335SOL     OW18843   5.931   0.202   4.660
72335SOL    HW118844   6.021   0.170   4.663
72335SOL    HW218845   5.897   0.187   4.748
72336SOL     OW18846   7.578   3.018   8.660
72336SOL    HW118847   7.667   3.013   8.693
72336SOL    HW218848   7.526   2.973   8.727
72337SOL     OW18849   1.322   3.395   3.665
72337SOL    HW118850   1.381   3.325   3.694
72337SOL    HW218851   1.354   3.418   3.578
72338SOL     OW18852  14.460  14.500   8.965
72338SOL    HW118853  14.416  14.433   9.018
72338SOL    HW218854  14.551  14.471   8.961
72339SOL     OW18855   5.765   7.470  12.597
72339SOL    HW118856   5.711   7.547  12.613
72339SOL    HW218857   5.759   7.456  12.503
72340SOL     OW18858  13.332   9.896  12.365
72340SOL    HW118859  13.314   9.980  12.323
72340SOL    HW218860  13.336   9.833  12.294
72341SOL     OW18861   8.311  11.664  11.479
72341SOL    HW118862   8.257  11.683  11.556
72341SOL    HW218863   8.253  11.619  11.418
72342SOL     OW18864  13.519  12.995   8.711
72342SOL    HW118865  13.593  13.026   8.659
72342SOL    HW218866  13.550  12.998   8.802
72343SOL     OW18867   2.394   1.623   3.780
72343SOL    HW118868   2.344   1.558   3.732
72343SOL    HW218869   2.328   1.671   3.830
72344SOL     OW18870   1.249   4.083   2.376
72344SOL    HW118871   1.327   4.055   2.328
72344SOL    HW218872   1.232   4.172   2.344
72345SOL     OW18873   6.984   7.182  10.598
72345SOL    HW118874   6.898   7.167  10.559
72345SOL    HW218875   7.046   7.137  10.540
72346SOL     OW18876  11.862   3.701  10.415
72346SOL    HW118877  11.775   3.713  10.452
72346SOL    HW218878  11.868   3.608  10.397
72347SOL     OW18879   2.113   0.080   6.581
72347SOL    HW118880   2.181   0.014   6.577
72347SOL    HW218881   2.156   0.157   6.619
72348SOL     OW18882  12.142   9.850   1.815
72348SOL    HW118883  12.124   9.930   1.766
72348SOL    HW218884  12.143   9.878   1.907
72349SOL     OW18885  14.602   6.994   7.991
72349SOL    HW118886  14.613   6.903   8.021
72349SOL    HW218887  14.651   6.997   7.908
72350SOL     OW18888   9.716  13.946  10.465
72350SOL    HW118889   9.789  13.886  10.480
72350SOL    HW218890   9.751  14.011  10.404
72351SOL     OW18891   8.214   3.801   0.545
72351SOL    HW118892   8.225   3.760   0.632
72351SOL    HW218893   8.215   3.895   0.563
72352SOL     OW18894  10.024   1.198   2.623
72352SOL    HW118895  10.011   1.109   2.656
72352SOL    HW218896   9.943   1.218   2.576
72353SOL     OW18897  12.421   8.968   7.205
72353SOL    HW118898  12.481   8.894   7.206
72353SOL    HW218899  12.475   9.044   7.183
72354SOL     OW18900   6.810   9.252   9.910
72354SOL    HW118901   6.749   9.206   9.853
72354SOL    HW218902   6.765   9.335   9.931
72355SOL     OW18903   8.517   1.166  11.548
72355SOL    HW118904   8.533   1.127  11.634
72355SOL    HW218905   8.472   1.248  11.567
72356SOL     OW18906   9.326   2.084  14.701
72356SOL    HW118907   9.238   2.072  14.738
72356SOL    HW218908   9.359   1.995  14.689
72357SOL     OW18909   6.898   3.884  10.337
72357SOL    HW118910   6.819   3.932  10.312
72357SOL    HW218911   6.875   3.838  10.417
72358SOL     OW18912  11.872   3.115  13.162
72358SOL    HW118913  11.950   3.088  13.211
72358SOL    HW218914  11.899   3.197  13.119
72359SOL     OW18915   1.167  13.485   2.064
72359SOL    HW118916   1.161  13.438   1.981
72359SOL    HW218917   1.162  13.577   2.041
72360SOL     OW18918   4.588   4.307  12.379
72360SOL    HW118919   4.670   4.352  12.360
72360SOL    HW218920   4.609   4.214  12.367
72361SOL     OW18921  12.330   7.107  14.551
72361SOL    HW118922  12.295   7.073  14.468
72361SOL    HW218923  12.424   7.113  14.536
72362SOL     OW18924   6.759   0.330   0.024
72362SOL    HW118925   6.744   0.304  14.815
72362SOL    HW218926   6.787   0.421   0.019
72363SOL     OW18927   0.184   6.076   4.095
72363SOL    HW118928   0.158   6.076   4.003
72363SOL    HW218929   0.226   5.991   4.109
72364SOL     OW18930   8.692   4.974   2.387
72364SOL    HW118931   8.680   5.056   2.338
72364SOL    HW218932   8.611   4.926   2.374
72365SOL     OW18933   8.534   8.714  10.786
72365SOL    HW118934   8.525   8.777  10.715
72365SOL    HW218935   8.526   8.628  10.743
72366SOL     OW18936   4.306   3.095   3.062
72366SOL    HW118937   4.369   3.057   3.001
72366SOL    HW218938   4.335   3.067   3.148
72367SOL     OW18939   9.270   1.711   0.807
72367SOL    HW118940   9.175   1.721   0.818
72367SOL    HW218941   9.297   1.786   0.754
72368SOL     OW18942   7.463  13.550   9.313
72368SOL    HW118943   7.453  13.462   9.277
72368SOL    HW218944   7.494  13.603   9.239
72369SOL     OW18945   8.100  10.170   2.167
72369SOL    HW118946   8.103  10.226   2.245
72369SOL    HW218947   8.149  10.092   2.193
72370SOL     OW18948   9.342   2.029  11.898
72370SOL    HW118949   9.356   2.121  11.873
72370SOL    HW218950   9.430   1.991  11.897
72371SOL     OW18951   9.966   6.270   7.022
72371SOL    HW118952   9.907   6.322   7.077
72371SOL    HW218953   9.926   6.272   6.935
72372SOL     OW18954   6.978  11.713   0.841
72372SOL    HW118955   6.986  11.789   0.898
72372SOL    HW218956   7.067  11.695   0.812
72373SOL     OW18957   3.986   5.166  10.162
72373SOL    HW118958   4.031   5.224  10.101
72373SOL    HW218959   3.895   5.164  10.132
72374SOL     OW18960   6.945  14.576   5.822
72374SOL    HW118961   6.983  14.563   5.735
72374SOL    HW218962   6.936  14.671   5.829
72375SOL     OW18963   2.136   6.276   6.006
72375SOL    HW118964   2.174   6.349   5.957
72375SOL    HW218965   2.052   6.309   6.038
72376SOL     OW18966   2.944   1.839  14.704
72376SOL    HW118967   3.036   1.860  14.723
72376SOL    HW218968   2.912   1.797  14.783
72377SOL     OW18969   1.068  11.186   3.481
72377SOL    HW118970   0.989  11.193   3.534
72377SOL    HW218971   1.125  11.255   3.514
72378SOL     OW18972   2.440  13.861  10.513
72378SOL    HW118973   2.471  13.951  10.507
72378SOL    HW218974   2.384  13.850  10.436
72379SOL     OW18975   5.818   3.559  10.617
72379SOL    HW118976   5.897   3.608  10.638
72379SOL    HW218977   5.850   3.477  10.579
72380SOL     OW18978   8.719   4.504  10.739
72380SOL    HW118979   8.770   4.488  10.818
72380SOL    HW218980   8.628   4.499  10.767
72381SOL     OW18981   0.141   2.422   6.813
72381SOL    HW118982   0.095   2.360   6.870
72381SOL    HW218983   0.231   2.421   6.845
72382SOL     OW18984   9.737   5.277  14.768
72382SOL    HW118985   9.723   5.372  14.760
72382SOL    HW218986   9.798   5.268  14.841
72383SOL     OW18987  10.343  14.590   6.464
72383SOL    HW118988  10.266  14.623   6.418
72383SOL    HW218989  10.410  14.582   6.396
72384SOL     OW18990   3.038   6.976   0.258
72384SOL    HW118991   3.132   6.958   0.252
72384SOL    HW218992   2.997   6.890   0.254
72385SOL     OW18993  10.125  10.142   7.994
72385SOL    HW118994  10.127  10.046   7.995
72385SOL    HW218995  10.081  10.164   7.912
72386SOL     OW18996   7.044  12.777   6.126
72386SOL    HW118997   7.134  12.809   6.118
72386SOL    HW218998   7.048  12.714   6.199
72387SOL     OW18999   2.451  10.478   0.627
72387SOL    HW119000   2.480  10.394   0.592
72387SOL    HW219001   2.512  10.496   0.699
72388SOL     OW19002  13.001   1.842   3.492
72388SOL    HW119003  13.030   1.905   3.427
72388SOL    HW219004  12.976   1.765   3.441
72389SOL     OW19005  10.243   2.938   0.663
72389SOL    HW119006  10.159   2.981   0.676
72389SOL    HW219007  10.304   2.986   0.719
72390SOL     OW19008   8.500   0.638   5.026
72390SOL    HW119009   8.574   0.580   5.007
72390SOL    HW219010   8.461   0.602   5.105
72391SOL     OW19011   4.394   5.517   1.527
72391SOL    HW119012   4.418   5.597   1.480
72391SOL    HW219013   4.472   5.496   1.579
72392SOL     OW19014   2.892  13.832  10.520
72392SOL    HW119015   2.976  13.804  10.486
72392SOL    HW219016   2.869  13.767  10.586
72393SOL     OW19017  12.712   6.500  10.021
72393SOL    HW119018  12.795   6.549  10.025
72393SOL    HW219019  12.704   6.476   9.929
72394SOL     OW19020  13.668   2.825   1.218
72394SOL    HW119021  13.763   2.835   1.226
72394SOL    HW219022  13.657   2.749   1.161
72395SOL     OW19023   0.217  11.322   4.612
72395SOL    HW119024   0.187  11.320   4.521
72395SOL    HW219025   0.238  11.414   4.628
72396SOL     OW19026   0.769  12.639   7.709
72396SOL    HW119027   0.856  12.622   7.671
72396SOL    HW219028   0.767  12.734   7.720
72397SOL     OW19029   4.665  14.034  10.025
72397SOL    HW119030   4.570  14.041  10.016
72397SOL    HW219031   4.692  13.973   9.956
72398SOL     OW19032   9.474   6.093   0.464
72398SOL    HW119033   9.482   6.188   0.463
72398SOL    HW219034   9.381   6.077   0.484
72399SOL     OW19035  11.056   3.640  11.692
72399SOL    HW119036  11.048   3.548  11.664
72399SOL    HW219037  11.019   3.690  11.620
72400SOL     OW19038  10.900   1.415   6.735
72400SOL    HW119039  10.883   1.325   6.763
72400SOL    HW219040  10.986   1.436   6.773
72401SOL     OW19041   7.766   7.322   2.590
72401SOL    HW119042   7.697   7.389   2.590
72401SOL    HW219043   7.764   7.285   2.678
72402SOL     OW19044   3.973  10.417   3.635
72402SOL    HW119045   3.963  10.463   3.718
72402SOL    HW219046   4.035  10.470   3.584
72403SOL     OW19047   1.159   2.404   4.565
72403SOL    HW119048   1.199   2.369   4.645
72403SOL    HW219049   1.232   2.416   4.505
72404SOL     OW19050  11.911   6.980   5.842
72404SOL    HW119051  11.855   7.010   5.914
72404SOL    HW219052  11.959   7.058   5.814
72405SOL     OW19053  11.815  11.338   4.559
72405SOL    HW119054  11.724  11.367   4.558
72405SOL    HW219055  11.864  11.415   4.590
72406SOL     OW19056   1.638  12.444  11.192
72406SOL    HW119057   1.683  12.528  11.179
72406SOL    HW219058   1.688  12.382  11.138
72407SOL     OW19059  10.200   2.630   1.273
72407SOL    HW119060  10.295   2.626   1.271
72407SOL    HW219061  10.178   2.650   1.364
72408SOL     OW19062  14.826   1.317  13.516
72408SOL    HW119063  14.816   1.314  13.612
72408SOL    HW219064  14.803   1.229  13.487
72409SOL     OW19065  12.879   4.792   9.671
72409SOL    HW119066  12.900   4.732   9.743
72409SOL    HW219067  12.931   4.870   9.689
72410SOL     OW19068   6.382   6.007   5.829
72410SOL    HW119069   6.419   6.062   5.760
72410SOL    HW219070   6.312   5.958   5.787
72411SOL     OW19071   6.922  14.628  11.397
72411SOL    HW119072   6.919  14.585  11.312
72411SOL    HW219073   6.837  14.610  11.436
72412SOL     OW19074   1.733   9.369   0.222
72412SOL    HW119075   1.739   9.278   0.191
72412SOL    HW219076   1.693   9.362   0.308
72413SOL     OW19077   0.194   4.033   9.552
72413SOL    HW119078   0.120   4.094   9.550
72413SOL    HW219079   0.270   4.088   9.569
72414SOL     OW19080  13.316  14.520   1.161
72414SOL    HW119081  13.289  14.571   1.085
72414SOL    HW219082  13.394  14.473   1.133
72415SOL     OW19083   7.026  13.032   2.686
72415SOL    HW119084   6.972  13.023   2.764
72415SOL    HW219085   7.070  12.948   2.678
72416SOL     OW19086   2.297   1.576   5.755
72416SOL    HW119087   2.328   1.663   5.777
72416SOL    HW219088   2.358   1.517   5.800
72417SOL     OW19089   9.192   4.865   9.381
72417SOL    HW119090   9.251   4.930   9.344
72417SOL    HW219091   9.243   4.783   9.380
72418SOL     OW19092   2.126  13.938   7.575
72418SOL    HW119093   2.140  13.898   7.661
72418SOL    HW219094   2.195  13.900   7.520
72419SOL     OW19095  11.172   2.039   8.698
72419SOL    HW119096  11.184   1.960   8.646
72419SOL    HW219097  11.158   2.006   8.787
72420SOL     OW19098   7.073   0.780  11.523
72420SOL    HW119099   7.133   0.854  11.523
72420SOL    HW219100   7.023   0.790  11.604
72421SOL     OW19101   6.690   8.256   3.834
72421SOL    HW119102   6.766   8.313   3.845
72421SOL    HW219103   6.617   8.316   3.822
72422SOL     OW19104  14.832   4.056   9.892
72422SOL    HW119105  14.833   4.026   9.983
72422SOL    HW219106  14.752   4.109   9.885
72423SOL     OW19107   8.215   9.124   7.664
72423SOL    HW119108   8.156   9.193   7.636
72423SOL    HW219109   8.285   9.123   7.599
72424SOL     OW19110   2.640  14.482   4.176
72424SOL    HW119111   2.611  14.423   4.245
72424SOL    HW219112   2.735  14.489   4.189
72425SOL     OW19113  11.835  12.062   2.984
72425SOL    HW119114  11.825  12.128   3.053
72425SOL    HW219115  11.751  12.018   2.982
72426SOL     OW19116   7.109  11.689   4.999
72426SOL    HW119117   7.038  11.625   5.008
72426SOL    HW219118   7.129  11.715   5.088
72427SOL     OW19119   4.407   2.349   7.513
72427SOL    HW119120   4.465   2.422   7.489
72427SOL    HW219121   4.450   2.309   7.588
72428SOL     OW19122  11.975   0.533   0.483
72428SOL    HW119123  12.007   0.623   0.481
72428SOL    HW219124  11.960   0.511   0.391
72429SOL     OW19125  10.983  13.278  13.745
72429SOL    HW119126  10.995  13.373  13.737
72429SOL    HW219127  10.935  13.254  13.666
72430SOL     OW19128   8.187  13.701   4.085
72430SOL    HW119129   8.178  13.624   4.142
72430SOL    HW219130   8.274  13.692   4.048
72431SOL     OW19131   8.036  12.051   7.139
72431SOL    HW119132   8.064  11.978   7.084
72431SOL    HW219133   8.029  12.125   7.078
72432SOL     OW19134  14.145  10.799  13.231
72432SOL    HW119135  14.220  10.747  13.260
72432SOL    HW219136  14.069  10.745  13.252
72433SOL     OW19137   4.721  11.082   8.162
72433SOL    HW119138   4.651  11.044   8.215
72433SOL    HW219139   4.747  11.160   8.211
72434SOL     OW19140   2.534   1.248  11.144
72434SOL    HW119141   2.560   1.156  11.143
72434SOL    HW219142   2.462   1.252  11.207
72435SOL     OW19143   9.321   0.719   0.588
72435SOL    HW119144   9.273   0.736   0.670
72435SOL    HW219145   9.253   0.706   0.523
72436SOL     OW19146  13.296  12.341   8.688
72436SOL    HW119147  13.248  12.364   8.609
72436SOL    HW219148  13.375  12.296   8.656
72437SOL     OW19149   4.617   7.428  13.679
72437SOL    HW119150   4.626   7.365  13.607
72437SOL    HW219151   4.584   7.376  13.752
72438SOL     OW19152  12.970   4.494  13.542
72438SOL    HW119153  12.897   4.475  13.484
72438SOL    HW219154  12.930   4.503  13.629
72439SOL     OW19155  13.981   5.608   5.555
72439SOL    HW119156  13.954   5.575   5.641
72439SOL    HW219157  13.930   5.687   5.542
72440SOL     OW19158  11.291   7.988   1.241
72440SOL    HW119159  11.322   8.050   1.307
72440SOL    HW219160  11.351   8.001   1.167
72441SOL     OW19161   9.388   6.110   6.906
72441SOL    HW119162   9.353   6.196   6.928
72441SOL    HW219163   9.431   6.080   6.986
72442SOL     OW19164   4.746   9.125   2.989
72442SOL    HW119165   4.702   9.048   2.951
72442SOL    HW219166   4.833   9.093   3.013
72443SOL     OW19167  14.370  12.219   5.705
72443SOL    HW119168  14.331  12.160   5.639
72443SOL    HW219169  14.463  12.219   5.685
72444SOL     OW19170   6.930  14.640   9.079
72444SOL    HW119171   6.910  14.592   9.161
72444SOL    HW219172   6.881  14.592   9.012
72445SOL     OW19173   3.455   8.796   3.417
72445SOL    HW119174   3.539   8.839   3.404
72445SOL    HW219175   3.395   8.844   3.360
72446SOL     OW19176   7.706   2.114  11.169
72446SOL    HW119177   7.711   2.058  11.092
72446SOL    HW219178   7.791   2.158  11.172
72447SOL     OW19179   0.770   9.455   6.550
72447SOL    HW119180   0.835   9.473   6.618
72447SOL    HW219181   0.703   9.402   6.594
72448SOL     OW19182   7.372   0.520   7.113
72448SOL    HW119183   7.313   0.488   7.045
72448SOL    HW219184   7.366   0.615   7.107
72449SOL     OW19185   3.590  11.234   5.420
72449SOL    HW119186   3.684  11.252   5.412
72449SOL    HW219187   3.576  11.217   5.513
72450SOL     OW19188   4.543  11.065   0.856
72450SOL    HW119189   4.623  11.044   0.807
72450SOL    HW219190   4.569  11.134   0.916
72451SOL     OW19191   8.303   4.078   5.494
72451SOL    HW119192   8.218   4.093   5.454
72451SOL    HW219193   8.352   4.029   5.428
72452SOL     OW19194   1.589  11.827   4.986
72452SOL    HW119195   1.661  11.810   5.047
72452SOL    HW219196   1.526  11.877   5.037
72453SOL     OW19197  11.161   4.016  11.451
72453SOL    HW119198  11.249   3.981  11.435
72453SOL    HW219199  11.138   3.984  11.538
72454SOL     OW19200   5.947   1.548  11.220
72454SOL    HW119201   5.901   1.463  11.222
72454SOL    HW219202   6.010   1.538  11.149
72455SOL     OW19203   2.744  10.612   1.981
72455SOL    HW119204   2.658  10.649   1.959
72455SOL    HW219205   2.736  10.519   1.959
72456SOL     OW19206   4.311   7.208   2.568
72456SOL    HW119207   4.365   7.277   2.531
72456SOL    HW219208   4.373   7.147   2.608
72457SOL     OW19209  10.275   8.152   1.462
72457SOL    HW119210  10.198   8.094   1.466
72457SOL    HW219211  10.240   8.237   1.435
72458SOL     OW19212  12.240   6.947   1.883
72458SOL    HW119213  12.159   6.900   1.902
72458SOL    HW219214  12.234   6.969   1.790
72459SOL     OW19215   3.365   7.151  10.963
72459SOL    HW119216   3.453   7.187  10.952
72459SOL    HW219217   3.308   7.212  10.917
72460SOL     OW19218  11.881  12.844   8.926
72460SOL    HW119219  11.790  12.871   8.941
72460SOL    HW219220  11.885  12.754   8.957
72461SOL     OW19221   0.312   1.208   6.952
72461SOL    HW119222   0.359   1.278   6.998
72461SOL    HW219223   0.259   1.253   6.886
72462SOL     OW19224  13.897   4.878  13.248
72462SOL    HW119225  13.845   4.846  13.321
72462SOL    HW219226  13.968   4.927  13.289
72463SOL     OW19227   4.836   3.190  10.918
72463SOL    HW119228   4.838   3.285  10.901
72463SOL    HW219229   4.901   3.177  10.987
72464SOL     OW19230   0.600   5.048   5.497
72464SOL    HW119231   0.605   5.132   5.542
72464SOL    HW219232   0.688   5.034   5.461
72465SOL     OW19233   7.228   7.903   5.777
72465SOL    HW119234   7.204   7.843   5.707
72465SOL    HW219235   7.197   7.989   5.748
72466SOL     OW19236   1.722   8.951   8.251
72466SOL    HW119237   1.805   8.910   8.227
72466SOL    HW219238   1.721   8.949   8.346
72467SOL     OW19239   0.293   0.999  14.506
72467SOL    HW119240   0.226   0.977  14.571
72467SOL    HW219241   0.355   1.055  14.554
72468SOL     OW19242  11.396   1.920   4.544
72468SOL    HW119243  11.472   1.865   4.524
72468SOL    HW219244  11.402   1.993   4.483
72469SOL     OW19245   1.779   9.241   1.310
72469SOL    HW119246   1.816   9.220   1.225
72469SOL    HW219247   1.712   9.173   1.324
72470SOL     OW19248  13.135  13.281   4.250
72470SOL    HW119249  13.191  13.236   4.314
72470SOL    HW219250  13.073  13.330   4.304
72471SOL     OW19251   1.255   3.880  11.615
72471SOL    HW119252   1.263   3.968  11.651
72471SOL    HW219253   1.164   3.872  11.588
72472SOL     OW19254   2.590   7.846   1.320
72472SOL    HW119255   2.673   7.799   1.313
72472SOL    HW219256   2.599   7.920   1.259
72473SOL     OW19257   8.348   8.282   4.549
72473SOL    HW119258   8.320   8.357   4.600
72473SOL    HW219259   8.316   8.300   4.460
72474SOL     OW19260  13.119   5.994   4.393
72474SOL    HW119261  13.162   5.967   4.312
72474SOL    HW219262  13.121   5.916   4.449
72475SOL     OW19263   4.351  12.252  12.138
72475SOL    HW119264   4.263  12.258  12.102
72475SOL    HW219265   4.344  12.189  12.210
72476SOL     OW19266  10.691   7.394  14.126
72476SOL    HW119267  10.770   7.384  14.072
72476SOL    HW219268  10.669   7.487  14.119
72477SOL     OW19269   8.116   1.618   0.930
72477SOL    HW119270   8.164   1.618   1.012
72477SOL    HW219271   8.068   1.700   0.929
72478SOL     OW19272   3.036   4.610   4.560
72478SOL    HW119273   3.052   4.634   4.469
72478SOL    HW219274   3.110   4.648   4.608
72479SOL     OW19275   0.211  11.795  14.521
72479SOL    HW119276   0.255  11.864  14.571
72479SOL    HW219277   0.188  11.729  14.587
72480SOL     OW19278   8.996   9.691   4.156
72480SOL    HW119279   9.068   9.674   4.095
72480SOL    HW219280   8.972   9.605   4.190
72481SOL     OW19281   2.799   9.605   6.332
72481SOL    HW119282   2.751   9.529   6.363
72481SOL    HW219283   2.738   9.678   6.339
72482SOL     OW19284   0.822   4.895  10.294
72482SOL    HW119285   0.775   4.896  10.211
72482SOL    HW219286   0.777   4.960  10.348
72483SOL     OW19287  12.586   2.159   3.850
72483SOL    HW119288  12.646   2.086   3.836
72483SOL    HW219289  12.594   2.212   3.770
72484SOL     OW19290  11.942   6.184   2.080
72484SOL    HW119291  11.953   6.104   2.028
72484SOL    HW219292  11.936   6.254   2.016
72485SOL     OW19293   5.194   0.494   6.809
72485SOL    HW119294   5.138   0.561   6.769
72485SOL    HW219295   5.185   0.418   6.752
72486SOL     OW19296   8.418  10.488  11.560
72486SOL    HW119297   8.425  10.543  11.483
72486SOL    HW219298   8.493  10.513  11.615
72487SOL     OW19299  11.763   7.639  10.788
72487SOL    HW119300  11.836   7.622  10.847
72487SOL    HW219301  11.737   7.553  10.755
72488SOL     OW19302   5.947   8.299  10.716
72488SOL    HW119303   5.984   8.373  10.668
72488SOL    HW219304   5.887   8.339  10.779
72489SOL     OW19305   3.843  13.533  14.012
72489SOL    HW119306   3.882  13.553  14.097
72489SOL    HW219307   3.860  13.440  13.998
72490SOL     OW19308   4.409   7.678   6.250
72490SOL    HW119309   4.324   7.634   6.244
72490SOL    HW219310   4.455   7.630   6.319
72491SOL     OW19311   4.755   1.350   4.555
72491SOL    HW119312   4.700   1.414   4.599
72491SOL    HW219313   4.825   1.401   4.515
72492SOL     OW19314  12.461   1.711   6.462
72492SOL    HW119315  12.503   1.789   6.426
72492SOL    HW219316  12.533   1.653   6.487
72493SOL     OW19317  13.020   7.861   7.528
72493SOL    HW119318  12.961   7.830   7.597
72493SOL    HW219319  13.004   7.802   7.455
72494SOL     OW19320  10.519   6.414  14.533
72494SOL    HW119321  10.472   6.464  14.599
72494SOL    HW219322  10.502   6.323  14.555
72495SOL     OW19323   7.430   2.105   2.970
72495SOL    HW119324   7.395   2.118   3.058
72495SOL    HW219325   7.369   2.043   2.929
72496SOL     OW19326  12.982   0.184   5.418
72496SOL    HW119327  12.894   0.212   5.442
72496SOL    HW219328  12.985   0.091   5.440
72497SOL     OW19329   5.685   3.654   0.808
72497SOL    HW119330   5.592   3.674   0.816
72497SOL    HW219331   5.729   3.735   0.832
72498SOL     OW19332  14.880   1.514   7.656
72498SOL    HW119333  14.871   1.518   7.751
72498SOL    HW219334   0.074   1.458   7.641
72499SOL     OW19335   0.093   5.644   4.429
72499SOL    HW119336   0.081   5.703   4.503
72499SOL    HW219337   0.095   5.556   4.468
72500SOL     OW19338   8.564  10.682  11.717
72500SOL    HW119339   8.654  10.672  11.684
72500SOL    HW219340   8.566  10.647  11.805
72501SOL     OW19341   1.814  12.771   8.439
72501SOL    HW119342   1.773  12.686   8.454
72501SOL    HW219343   1.802  12.818   8.522
72502SOL     OW19344   1.810   9.416  12.131
72502SOL    HW119345   1.844   9.503  12.108
72502SOL    HW219346   1.888   9.365  12.152
72503SOL     OW19347  11.418   1.118   8.592
72503SOL    HW119348  11.409   1.203   8.550
72503SOL    HW219349  11.342   1.112   8.650
72504SOL     OW19350  12.231  14.071   9.296
72504SOL    HW119351  12.318  14.034   9.280
72504SOL    HW219352  12.241  14.124   9.376
72505SOL     OW19353   5.017   8.121   6.369
72505SOL    HW119354   5.086   8.062   6.398
72505SOL    HW219355   5.052   8.163   6.290
72506SOL     OW19356   8.412  12.312   3.802
72506SOL    HW119357   8.401  12.324   3.896
72506SOL    HW219358   8.323  12.312   3.767
72507SOL     OW19359  11.788   6.804   2.737
72507SOL    HW119360  11.855   6.740   2.759
72507SOL    HW219361  11.707   6.769   2.775
72508SOL     OW19362   6.607   5.501  14.634
72508SOL    HW119363   6.548   5.459  14.571
72508SOL    HW219364   6.569   5.587  14.649
72509SOL     OW19365   7.034  11.784   6.270
72509SOL    HW119366   7.106  11.760   6.328
72509SOL    HW219367   6.969  11.823   6.328
72510SOL     OW19368   5.967   3.226  11.695
72510SOL    HW119369   5.927   3.310  11.715
72510SOL    HW219370   5.968   3.179  11.779
72511SOL     OW19371   7.882   0.582   1.118
72511SOL    HW119372   7.856   0.558   1.029
72511SOL    HW219373   7.855   0.507   1.171
72512SOL     OW19374   0.249   8.984   3.312
72512SOL    HW119375   0.207   9.003   3.396
72512SOL    HW219376   0.222   9.056   3.254
72513SOL     OW19377   0.334  12.587   0.284
72513SOL    HW119378   0.351  12.568   0.377
72513SOL    HW219379   0.265  12.525   0.259
72514SOL     OW19380  14.669   3.652  12.910
72514SOL    HW119381  14.615   3.576  12.932
72514SOL    HW219382  14.642   3.718  12.974
72515SOL     OW19383   8.487   9.952   0.501
72515SOL    HW119384   8.411   9.922   0.453
72515SOL    HW219385   8.487  10.047   0.489
72516SOL     OW19386  14.165   5.082   7.346
72516SOL    HW119387  14.114   5.004   7.325
72516SOL    HW219388  14.154   5.093   7.440
72517SOL     OW19389   8.794   2.413   1.427
72517SOL    HW119390   8.874   2.456   1.456
72517SOL    HW219391   8.818   2.369   1.345
72518SOL     OW19392   6.785  10.370   7.831
72518SOL    HW119393   6.762  10.441   7.772
72518SOL    HW219394   6.792  10.293   7.775
72519SOL     OW19395   8.662  14.049   3.017
72519SOL    HW119396   8.690  14.134   2.983
72519SOL    HW219397   8.702  13.986   2.958
72520SOL     OW19398  12.566   0.375  11.387
72520SOL    HW119399  12.514   0.335  11.456
72520SOL    HW219400  12.635   0.312  11.369
72521SOL     OW19401  11.292   6.160   0.340
72521SOL    HW119402  11.281   6.240   0.392
72521SOL    HW219403  11.319   6.191   0.253
72522SOL     OW19404  11.525   0.042   8.627
72522SOL    HW119405  11.544  14.865   8.700
72522SOL    HW219406  11.557   0.128   8.656
72523SOL     OW19407   4.706   0.396  13.864
72523SOL    HW119408   4.700   0.301  13.868
72523SOL    HW219409   4.695   0.418  13.772
72524SOL     OW19410  10.031   4.703  12.573
72524SOL    HW119411  10.017   4.798  12.574
72524SOL    HW219412  10.019   4.678  12.482
72525SOL     OW19413   3.090   9.993   0.786
72525SOL    HW119414   3.146  10.036   0.721
72525SOL    HW219415   3.026  10.060   0.811
72526SOL     OW19416  12.126  13.813   8.241
72526SOL    HW119417  12.088  13.900   8.229
72526SOL    HW219418  12.075  13.773   8.311
72527SOL     OW19419  10.302   4.922   6.251
72527SOL    HW119420  10.378   4.979   6.259
72527SOL    HW219421  10.290   4.884   6.338
72528SOL     OW19422   9.018   8.884   2.395
72528SOL    HW119423   9.013   8.974   2.427
72528SOL    HW219424   8.935   8.844   2.420
72529SOL     OW19425   8.931   7.998   0.389
72529SOL    HW119426   8.969   8.057   0.324
72529SOL    HW219427   8.992   7.924   0.392
72530SOL     OW19428  12.863   4.666   2.147
72530SOL    HW119429  12.844   4.578   2.115
72530SOL    HW219430  12.869   4.720   2.068
72531SOL     OW19431   9.948  10.345   3.633
72531SOL    HW119432   9.892  10.413   3.595
72531SOL    HW219433   9.900  10.315   3.710
72532SOL     OW19434   8.692   6.034   4.891
72532SOL    HW119435   8.711   6.119   4.932
72532SOL    HW219436   8.760   6.024   4.824
72533SOL     OW19437   5.991  12.016   0.153
72533SOL    HW119438   6.070  11.967   0.177
72533SOL    HW219439   5.958  11.971   0.075
72534SOL     OW19440   2.708   1.308  13.185
72534SOL    HW119441   2.760   1.375  13.142
72534SOL    HW219442   2.719   1.230  13.130
72535SOL     OW19443   2.862   3.978   2.317
72535SOL    HW119444   2.784   3.987   2.372
72535SOL    HW219445   2.874   4.065   2.278
72536SOL     OW19446   7.167   4.347   6.185
72536SOL    HW119447   7.229   4.288   6.141
72536SOL    HW219448   7.210   4.432   6.182
72537SOL     OW19449   9.975  11.726   9.109
72537SOL    HW119450   9.991  11.643   9.063
72537SOL    HW219451   9.933  11.782   9.043
72538SOL     OW19452   7.198   4.692   7.652
72538SOL    HW119453   7.243   4.728   7.576
72538SOL    HW219454   7.134   4.759   7.676
72539SOL     OW19455  11.207  14.330  14.242
72539SOL    HW119456  11.117  14.360  14.239
72539SOL    HW219457  11.209  14.265  14.312
72540SOL     OW19458   6.780   7.272  12.066
72540SOL    HW119459   6.832   7.250  11.989
72540SOL    HW219460   6.845   7.291  12.134
72541SOL     OW19461   3.668  14.224  11.517
72541SOL    HW119462   3.680  14.317  11.535
72541SOL    HW219463   3.610  14.193  11.586
72542SOL     OW19464   2.286   3.750  11.976
72542SOL    HW119465   2.377   3.723  11.964
72542SOL    HW219466   2.272   3.818  11.910
72543SOL     OW19467  13.514   7.750   9.541
72543SOL    HW119468  13.475   7.832   9.572
72543SOL    HW219469  13.581   7.730   9.605
72544SOL     OW19470   6.903   7.380   0.867
72544SOL    HW119471   6.840   7.340   0.927
72544SOL    HW219472   6.942   7.307   0.820
72545SOL     OW19473   8.673   2.462   2.821
72545SOL    HW119474   8.596   2.502   2.860
72545SOL    HW219475   8.715   2.415   2.893
72546SOL     OW19476   9.827  12.735   0.716
72546SOL    HW119477   9.769  12.661   0.700
72546SOL    HW219478   9.807  12.763   0.805
72547SOL     OW19479  14.369  12.329  12.737
72547SOL    HW119480  14.365  12.269  12.812
72547SOL    HW219481  14.459  12.322  12.706
72548SOL     OW19482   1.982   9.219  14.396
72548SOL    HW119483   1.988   9.155  14.467
72548SOL    HW219484   2.064   9.210  14.348
72549SOL     OW19485  13.770  12.616   9.790
72549SOL    HW119486  13.760  12.628   9.884
72549SOL    HW219487  13.695  12.563   9.764
72550SOL     OW19488   5.197   3.939   4.977
72550SOL    HW119489   5.189   3.989   4.895
72550SOL    HW219490   5.285   3.900   4.973
72551SOL     OW19491   4.746   8.007   5.233
72551SOL    HW119492   4.655   8.028   5.250
72551SOL    HW219493   4.746   7.914   5.209
72552SOL     OW19494   3.165  12.939  13.076
72552SOL    HW119495   3.156  12.996  13.152
72552SOL    HW219496   3.260  12.935  13.060
72553SOL     OW19497  14.506   4.142   0.991
72553SOL    HW119498  14.542   4.148   0.903
72553SOL    HW219499  14.411   4.150   0.978
72554SOL     OW19500   2.211   4.864   8.086
72554SOL    HW119501   2.182   4.876   8.177
72554SOL    HW219502   2.307   4.862   8.092
72555SOL     OW19503   5.442   9.486   0.156
72555SOL    HW119504   5.402   9.526   0.078
72555SOL    HW219505   5.423   9.393   0.147
72556SOL     OW19506  12.101  13.777   7.119
72556SOL    HW119507  12.067  13.715   7.054
72556SOL    HW219508  12.062  13.861   7.094
72557SOL     OW19509   4.745   4.788   2.319
72557SOL    HW119510   4.686   4.737   2.264
72557SOL    HW219511   4.697   4.868   2.339
72558SOL     OW19512   3.799  10.001  14.789
72558SOL    HW119513   3.765  10.077  14.742
72558SOL    HW219514   3.735   9.985  14.858
72559SOL     OW19515   4.974  10.897   5.213
72559SOL    HW119516   4.923  10.816   5.207
72559SOL    HW219517   4.964  10.926   5.304
72560SOL     OW19518  12.438   1.058   5.328
72560SOL    HW119519  12.509   1.089   5.271
72560SOL    HW219520  12.481   1.038   5.411
72561SOL     OW19521   4.145   0.368  13.369
72561SOL    HW119522   4.217   0.431  13.376
72561SOL    HW219523   4.177   0.289  13.413
72562SOL     OW19524  13.788   3.600   6.211
72562SOL    HW119525  13.825   3.664   6.271
72562SOL    HW219526  13.772   3.648   6.130
72563SOL     OW19527   2.397  11.278   8.642
72563SOL    HW119528   2.343  11.252   8.567
72563SOL    HW219529   2.374  11.369   8.658
72564SOL     OW19530   4.145   7.593   7.934
72564SOL    HW119531   4.191   7.578   8.016
72564SOL    HW219532   4.185   7.531   7.873
72565SOL     OW19533   9.376  13.022   0.088
72565SOL    HW119534   9.363  13.082   0.161
72565SOL    HW219535   9.414  13.077   0.019
72566SOL     OW19536   9.114   8.949   5.534
72566SOL    HW119537   9.110   8.894   5.456
72566SOL    HW219538   9.044   9.013   5.522
72567SOL     OW19539   8.011   0.786   6.044
72567SOL    HW119540   8.032   0.827   6.128
72567SOL    HW219541   8.069   0.710   6.040
72568SOL     OW19542   9.290  13.378   4.290
72568SOL    HW119543   9.379  13.352   4.310
72568SOL    HW219544   9.273  13.342   4.202
72569SOL     OW19545   7.570  11.907   0.560
72569SOL    HW119546   7.612  11.930   0.643
72569SOL    HW219547   7.550  11.992   0.520
72570SOL     OW19548   5.554   2.581   4.412
72570SOL    HW119549   5.486   2.516   4.429
72570SOL    HW219550   5.636   2.531   4.417
72571SOL     OW19551   2.443   7.877   8.528
72571SOL    HW119552   2.487   7.927   8.459
72571SOL    HW219553   2.465   7.786   8.509
72572SOL     OW19554   5.530   6.881   0.548
72572SOL    HW119555   5.519   6.957   0.605
72572SOL    HW219556   5.497   6.807   0.599
72573SOL     OW19557   3.413   0.294  14.017
72573SOL    HW119558   3.439   0.257  13.933
72573SOL    HW219559   3.351   0.363  13.994
72574SOL     OW19560   9.403   3.139   4.383
72574SOL    HW119561   9.322   3.104   4.347
72574SOL    HW219562   9.379   3.167   4.472
72575SOL     OW19563   4.210   8.448   0.936
72575SOL    HW119564   4.220   8.543   0.931
72575SOL    HW219565   4.221   8.428   1.029
72576SOL     OW19566  12.442   3.613   1.065
72576SOL    HW119567  12.382   3.539   1.077
72576SOL    HW219568  12.482   3.625   1.152
72577SOL     OW19569   6.936   3.892   0.814
72577SOL    HW119570   6.874   3.952   0.856
72577SOL    HW219571   6.988   3.856   0.886
72578SOL     OW19572   4.268   5.537   1.918
72578SOL    HW119573   4.272   5.449   1.956
72578SOL    HW219574   4.358   5.568   1.920
72579SOL     OW19575  11.938  12.872   2.748
72579SOL    HW119576  11.955  12.784   2.713
72579SOL    HW219577  12.014  12.924   2.722
72580SOL     OW19578  13.859   8.205   4.107
72580SOL    HW119579  13.813   8.177   4.186
72580SOL    HW219580  13.923   8.269   4.138
72581SOL     OW19581   9.039   4.327   3.747
72581SOL    HW119582   8.946   4.306   3.756
72581SOL    HW219583   9.043   4.387   3.673
72582SOL     OW19584  11.636  11.468   3.289
72582SOL    HW119585  11.682  11.394   3.249
72582SOL    HW219586  11.702  11.508   3.346
72583SOL     OW19587   9.828  11.893   2.280
72583SOL    HW119588   9.854  11.972   2.328
72583SOL    HW219589   9.820  11.922   2.189
72584SOL     OW19590  13.353  11.014   6.403
72584SOL    HW119591  13.367  11.072   6.328
72584SOL    HW219592  13.291  10.949   6.372
72585SOL     OW19593   1.932  11.297   1.070
72585SOL    HW119594   1.999  11.332   1.011
72585SOL    HW219595   1.965  11.211   1.094
72586SOL     OW19596   9.467   5.879   4.251
72586SOL    HW119597   9.422   5.802   4.286
72586SOL    HW219598   9.557   5.851   4.239
72587SOL     OW19599   0.305   8.310   3.602
72587SOL    HW119600   0.235   8.306   3.537
72587SOL    HW219601   0.321   8.404   3.614
72588SOL     OW19602   9.583   8.094  11.149
72588SOL    HW119603   9.489   8.087  11.168
72588SOL    HW219604   9.624   8.110  11.234
72589SOL     OW19605   1.235  11.244  12.906
72589SOL    HW119606   1.208  11.334  12.885
72589SOL    HW219607   1.253  11.246  13.000
72590SOL     OW19608   6.375   8.615   3.627
72590SOL    HW119609   6.409   8.692   3.673
72590SOL    HW219610   6.357   8.647   3.539
72591SOL     OW19611   0.657   2.177  10.881
72591SOL    HW119612   0.730   2.227  10.844
72591SOL    HW219613   0.600   2.243  10.921
72592SOL     OW19614   1.075  12.532   3.972
72592SOL    HW119615   1.064  12.589   3.895
72592SOL    HW219616   0.999  12.473   3.969
72593SOL     OW19617   1.834  12.036   5.934
72593SOL    HW119618   1.893  12.078   5.871
72593SOL    HW219619   1.808  12.107   5.993
72594SOL     OW19620   4.652   6.203   9.692
72594SOL    HW119621   4.663   6.145   9.616
72594SOL    HW219622   4.605   6.279   9.658
72595SOL     OW19623  13.508   1.814   9.724
72595SOL    HW119624  13.512   1.883   9.790
72595SOL    HW219625  13.552   1.739   9.765
72596SOL     OW19626   7.720  13.027  13.974
72596SOL    HW119627   7.707  12.974  13.894
72596SOL    HW219628   7.706  13.117  13.945
72597SOL     OW19629  10.473   5.711   1.604
72597SOL    HW119630  10.557   5.679   1.571
72597SOL    HW219631  10.477   5.806   1.594
72598SOL     OW19632  13.254   3.368  14.049
72598SOL    HW119633  13.273   3.397  13.960
72598SOL    HW219634  13.164   3.397  14.065
72599SOL     OW19635  14.432   3.413   3.904
72599SOL    HW119636  14.369   3.402   3.834
72599SOL    HW219637  14.412   3.499   3.942
72600SOL     OW19638   4.956  10.698   2.445
72600SOL    HW119639   5.051  10.697   2.434
72600SOL    HW219640   4.923  10.742   2.367
72601SOL     OW19641   7.058   0.920   0.767
72601SOL    HW119642   7.106   0.870   0.833
72601SOL    HW219643   7.029   0.854   0.704
72602SOL     OW19644  12.581   7.385   2.872
72602SOL    HW119645  12.589   7.396   2.966
72602SOL    HW219646  12.525   7.309   2.861
72603SOL     OW19647   1.338  12.045   1.537
72603SOL    HW119648   1.262  11.988   1.539
72603SOL    HW219649   1.320  12.108   1.467
72604SOL     OW19650   8.729   8.302   8.035
72604SOL    HW119651   8.769   8.290   7.949
72604SOL    HW219652   8.766   8.385   8.067
72605SOL     OW19653   7.694  12.223   2.161
72605SOL    HW119654   7.782  12.243   2.194
72605SOL    HW219655   7.673  12.138   2.199
72606SOL     OW19656   2.811   9.091   0.242
72606SOL    HW119657   2.819   9.150   0.167
72606SOL    HW219658   2.718   9.097   0.268
72607SOL     OW19659   7.801  10.565   1.594
72607SOL    HW119660   7.862  10.517   1.538
72607SOL    HW219661   7.714  10.535   1.567
72608SOL     OW19662   5.366   0.795   1.168
72608SOL    HW119663   5.395   0.739   1.241
72608SOL    HW219664   5.439   0.794   1.107
72609SOL     OW19665   8.627  12.298   8.227
72609SOL    HW119666   8.616  12.216   8.179
72609SOL    HW219667   8.683  12.351   8.170
72610SOL     OW19668   8.363   9.700   0.223
72610SOL    HW119669   8.444   9.712   0.174
72610SOL    HW219670   8.335   9.789   0.245
72611SOL     OW19671  11.810  11.089   5.569
72611SOL    HW119672  11.861  11.097   5.488
72611SOL    HW219673  11.774  11.177   5.583
72612SOL     OW19674   7.382   7.179   6.998
72612SOL    HW119675   7.349   7.090   7.011
72612SOL    HW219676   7.320   7.235   7.045
72613SOL     OW19677   5.986   5.909  11.347
72613SOL    HW119678   5.994   5.997  11.383
72613SOL    HW219679   5.938   5.860  11.413
72614SOL     OW19680  12.006   5.677   5.091
72614SOL    HW119681  11.933   5.668   5.153
72614SOL    HW219682  12.054   5.754   5.122
72615SOL     OW19683   5.704   7.259   4.546
72615SOL    HW119684   5.628   7.214   4.585
72615SOL    HW219685   5.673   7.349   4.531
72616SOL     OW19686   3.378   7.090  13.801
72616SOL    HW119687   3.313   7.138  13.749
72616SOL    HW219688   3.456   7.145  13.799
72617SOL     OW19689   7.698   6.569   7.374
72617SOL    HW119690   7.609   6.535   7.359
72617SOL    HW219691   7.688   6.664   7.369
72618SOL     OW19692   4.150  14.405  10.777
72618SOL    HW119693   4.152  14.499  10.758
72618SOL    HW219694   4.233  14.372  10.745
72619SOL     OW19695   7.429  14.505  11.977
72619SOL    HW119696   7.448  14.507  12.071
72619SOL    HW219697   7.450  14.592  11.946
72620SOL     OW19698  11.773  11.700   8.592
72620SOL    HW119699  11.721  11.631   8.552
72620SOL    HW219700  11.718  11.778   8.585
72621SOL     OW19701   4.052  14.032  12.046
72621SOL    HW119702   4.006  14.053  11.964
72621SOL    HW219703   4.014  14.091  12.111
72622SOL     OW19704   5.657   3.372   5.496
72622SOL    HW119705   5.716   3.429   5.545
72622SOL    HW219706   5.710   3.339   5.423
72623SOL     OW19707   6.669   6.384  13.125
72623SOL    HW119708   6.658   6.319  13.055
72623SOL    HW219709   6.581   6.416  13.141
72624SOL     OW19710   7.907   4.719   5.664
72624SOL    HW119711   7.823   4.763   5.667
72624SOL    HW219712   7.945   4.746   5.580
72625SOL     OW19713  14.028  11.052  12.084
72625SOL    HW119714  14.064  11.137  12.056
72625SOL    HW219715  14.104  10.994  12.086
72626SOL     OW19716   7.902   9.124  14.328
72626SOL    HW119717   7.813   9.158  14.321
72626SOL    HW219718   7.956   9.186  14.279
72627SOL     OW19719   2.506  10.097  14.544
72627SOL    HW119720   2.467  10.029  14.598
72627SOL    HW219721   2.433  10.131  14.492
72628SOL     OW19722  14.018   9.443   8.464
72628SOL    HW119723  14.099   9.489   8.483
72628SOL    HW219724  13.977   9.493   8.394
72629SOL     OW19725  14.563   6.960  11.232
72629SOL    HW119726  14.486   6.944  11.286
72629SOL    HW219727  14.530   7.013  11.159
72630SOL     OW19728   4.296   5.545   8.642
72630SOL    HW119729   4.296   5.520   8.735
72630SOL    HW219730   4.356   5.484   8.600
72631SOL     OW19731   0.365   3.099   8.819
72631SOL    HW119732   0.371   3.003   8.814
72631SOL    HW219733   0.337   3.116   8.909
72632SOL     OW19734  10.871  12.756  14.227
72632SOL    HW119735  10.962  12.784  14.221
72632SOL    HW219736  10.870  12.692  14.299
72633SOL     OW19737   5.789  13.009  12.150
72633SOL    HW119738   5.835  12.941  12.199
72633SOL    HW219739   5.713  13.030  12.203
72634SOL     OW19740   5.352  10.078   0.883
72634SOL    HW119741   5.336  10.172   0.880
72634SOL    HW219742   5.267  10.039   0.905
72635SOL     OW19743  11.034  10.965  13.561
72635SOL    HW119744  10.954  10.986  13.514
72635SOL    HW219745  11.060  11.048  13.601
72636SOL     OW19746   5.648  11.711  10.590
72636SOL    HW119747   5.554  11.699  10.605
72636SOL    HW219748   5.654  11.796  10.547
72637SOL     OW19749  11.605  10.580   4.033
72637SOL    HW119750  11.638  10.670   4.031
72637SOL    HW219751  11.577  10.567   4.124
72638SOL     OW19752   9.141  13.866   7.240
72638SOL    HW119753   9.211  13.848   7.302
72638SOL    HW219754   9.179  13.848   7.154
72639SOL     OW19755   0.618   6.272   5.065
72639SOL    HW119756   0.595   6.182   5.039
72639SOL    HW219757   0.653   6.311   4.985
72640SOL     OW19758  10.970  10.826  11.722
72640SOL    HW119759  10.992  10.858  11.635
72640SOL    HW219760  10.905  10.888  11.755
72641SOL     OW19761   5.005   7.782   1.338
72641SOL    HW119762   4.923   7.761   1.381
72641SOL    HW219763   5.064   7.710   1.360
72642SOL     OW19764   5.622  11.831  13.549
72642SOL    HW119765   5.717  11.831  13.553
72642SOL    HW219766   5.598  11.739  13.539
72643SOL     OW19767  11.714   3.145  12.265
72643SOL    HW119768  11.797   3.113  12.228
72643SOL    HW219769  11.656   3.070  12.261
72644SOL     OW19770   4.924   7.459   7.491
72644SOL    HW119771   4.872   7.505   7.558
72644SOL    HW219772   4.961   7.529   7.438
72645SOL     OW19773  12.179  13.693  12.369
72645SOL    HW119774  12.133  13.713  12.450
72645SOL    HW219775  12.143  13.609  12.341
72646SOL     OW19776   1.152   0.494   4.875
72646SOL    HW119777   1.111   0.410   4.895
72646SOL    HW219778   1.228   0.499   4.933
72647SOL     OW19779   0.206  13.103   6.166
72647SOL    HW119780   0.223  13.191   6.200
72647SOL    HW219781   0.292  13.064   6.157
72648SOL     OW19782  10.940   0.841  14.202
72648SOL    HW119783  10.970   0.763  14.155
72648SOL    HW219784  11.006   0.908  14.181
72649SOL     OW19785   6.771  11.130   8.816
72649SOL    HW119786   6.771  11.092   8.903
72649SOL    HW219787   6.798  11.059   8.758
72650SOL     OW19788  14.225   3.471   5.388
72650SOL    HW119789  14.222   3.446   5.296
72650SOL    HW219790  14.221   3.567   5.387
72651SOL     OW19791   0.646  13.866  13.077
72651SOL    HW119792   0.625  13.773  13.088
72651SOL    HW219793   0.583  13.911  13.134
72652SOL     OW19794   5.638   5.813   0.987
72652SOL    HW119795   5.594   5.737   1.024
72652SOL    HW219796   5.728   5.807   1.017
72653SOL     OW19797   1.416   3.932  10.608
72653SOL    HW119798   1.340   3.970  10.652
72653SOL    HW219799   1.489   3.950  10.667
72654SOL     OW19800  12.437   0.012   6.798
72654SOL    HW119801  12.466   0.002   6.707
72654SOL    HW219802  12.508   0.059   6.841
72655SOL     OW19803  14.208   3.966   1.760
72655SOL    HW119804  14.285   3.932   1.715
72655SOL    HW219805  14.236   3.974   1.852
72656SOL     OW19806  10.494   0.716   4.489
72656SOL    HW119807  10.400   0.699   4.500
72656SOL    HW219808  10.537   0.650   4.542
72657SOL     OW19809  10.232   7.163   7.175
72657SOL    HW119810  10.301   7.217   7.137
72657SOL    HW219811  10.274   7.080   7.195
72658SOL     OW19812   3.919  11.352   9.594
72658SOL    HW119813   3.957  11.409   9.527
72658SOL    HW219814   3.921  11.405   9.674
72659SOL     OW19815   6.207   0.228  12.922
72659SOL    HW119816   6.122   0.271  12.932
72659SOL    HW219817   6.206   0.159  12.988
72660SOL     OW19818   2.064  10.299   4.510
72660SOL    HW119819   2.131  10.364   4.488
72660SOL    HW219820   1.988  10.325   4.456
72661SOL     OW19821  10.611   6.680   8.229
72661SOL    HW119822  10.604   6.689   8.324
72661SOL    HW219823  10.655   6.760   8.201
72662SOL     OW19824   5.348  10.533   8.445
72662SOL    HW119825   5.274  10.484   8.409
72662SOL    HW219826   5.401  10.466   8.489
72663SOL     OW19827   9.386   3.073  10.779
72663SOL    HW119828   9.413   3.105  10.865
72663SOL    HW219829   9.302   3.030  10.794
72664SOL     OW19830   0.970  13.935  13.565
72664SOL    HW119831   1.062  13.955  13.583
72664SOL    HW219832   0.928  14.021  13.561
72665SOL     OW19833   5.397   5.656   2.145
72665SOL    HW119834   5.378   5.563   2.144
72665SOL    HW219835   5.476   5.665   2.092
72666SOL     OW19836   6.133   2.145   8.092
72666SOL    HW119837   6.061   2.154   8.154
72666SOL    HW219838   6.090   2.138   8.006
72667SOL     OW19839  14.073  13.771   7.416
72667SOL    HW119840  14.011  13.752   7.345
72667SOL    HW219841  14.137  13.830   7.377
72668SOL     OW19842   0.405  10.432   1.292
72668SOL    HW119843   0.369  10.355   1.249
72668SOL    HW219844   0.385  10.504   1.233
72669SOL     OW19845   1.911   6.288   4.511
72669SOL    HW119846   2.005   6.299   4.499
72669SOL    HW219847   1.881   6.245   4.431
72670SOL     OW19848  10.228   7.374   6.687
72670SOL    HW119849  10.161   7.331   6.740
72670SOL    HW219850  10.187   7.455   6.657
72671SOL     OW19851  12.450   5.728  13.329
72671SOL    HW119852  12.385   5.704  13.395
72671SOL    HW219853  12.499   5.800  13.369
72672SOL     OW19854   0.309   0.026   6.347
72672SOL    HW119855   0.316   0.022   6.251
72672SOL    HW219856   0.395  14.882   6.378
72673SOL     OW19857  11.160   1.141   6.400
72673SOL    HW119858  11.166   1.171   6.309
72673SOL    HW219859  11.067   1.149   6.421
72674SOL     OW19860  13.803   7.725  10.106
72674SOL    HW119861  13.713   7.736  10.075
72674SOL    HW219862  13.835   7.814  10.120
72675SOL     OW19863   2.160  14.138   1.782
72675SOL    HW119864   2.122  14.107   1.864
72675SOL    HW219865   2.084  14.153   1.725
72676SOL     OW19866  11.854  11.425   6.772
72676SOL    HW119867  11.944  11.417   6.803
72676SOL    HW219868  11.818  11.498   6.822
72677SOL     OW19869   0.975   0.909  11.327
72677SOL    HW119870   0.928   0.913  11.410
72677SOL    HW219871   0.910   0.935  11.261
72678SOL     OW19872  10.027  10.349  10.558
72678SOL    HW119873  10.109  10.398  10.549
72678SOL    HW219874   9.965  10.396  10.502
72679SOL     OW19875   1.801  14.844   7.979
72679SOL    HW119876   1.818  14.817   7.888
72679SOL    HW219877   1.875   0.018   8.002
72680SOL     OW19878   9.128  14.870   9.917
72680SOL    HW119879   9.059  14.804   9.912
72680SOL    HW219880   9.138   0.005  10.011
72681SOL     OW19881   7.921   8.351   3.092
72681SOL    HW119882   7.923   8.316   3.002
72681SOL    HW219883   7.870   8.432   3.085
72682SOL     OW19884  12.275   9.475   2.754
72682SOL    HW119885  12.273   9.540   2.683
72682SOL    HW219886  12.258   9.526   2.833
72683SOL     OW19887   1.513   9.419   9.377
72683SOL    HW119888   1.449   9.360   9.337
72683SOL    HW219889   1.552   9.367   9.447
72684SOL     OW19890   8.434   5.728   6.684
72684SOL    HW119891   8.419   5.672   6.760
72684SOL    HW219892   8.354   5.721   6.632
72685SOL     OW19893  13.477   2.090  14.167
72685SOL    HW119894  13.408   2.124  14.225
72685SOL    HW219895  13.496   2.163  14.108
72686SOL     OW19896   5.652   2.189  11.680
72686SOL    HW119897   5.587   2.119  11.683
72686SOL    HW219898   5.720   2.162  11.742
72687SOL     OW19899   0.423   1.767   9.731
72687SOL    HW119900   0.489   1.699   9.729
72687SOL    HW219901   0.441   1.821   9.654
72688SOL     OW19902  11.788   3.975   3.173
72688SOL    HW119903  11.727   3.902   3.163
72688SOL    HW219904  11.873   3.934   3.186
72689SOL     OW19905   3.578   4.041   2.452
72689SOL    HW119906   3.535   4.103   2.510
72689SOL    HW219907   3.509   3.982   2.423
72690SOL     OW19908   6.378  10.042   5.125
72690SOL    HW119909   6.376  10.043   5.029
72690SOL    HW219910   6.448  10.102   5.148
72691SOL     OW19911   6.110  11.921   7.222
72691SOL    HW119912   6.204  11.908   7.233
72691SOL    HW219913   6.103  11.981   7.147
72692SOL     OW19914   0.306  11.804   2.500
72692SOL    HW119915   0.286  11.780   2.591
72692SOL    HW219916   0.340  11.894   2.506
72693SOL     OW19917  12.746  13.391   4.185
72693SOL    HW119918  12.658  13.368   4.156
72693SOL    HW219919  12.784  13.438   4.111
72694SOL     OW19920   0.769  14.033   5.323
72694SOL    HW119921   0.861  14.026   5.300
72694SOL    HW219922   0.761  14.119   5.365
72695SOL     OW19923   0.936   7.854  12.794
72695SOL    HW119924   0.942   7.923  12.860
72695SOL    HW219925   0.931   7.773  12.846
72696SOL     OW19926   7.843  14.568   4.482
72696SOL    HW119927   7.847  14.617   4.400
72696SOL    HW219928   7.901  14.493   4.469
72697SOL     OW19929   0.024  10.524  12.489
72697SOL    HW119930   0.002  10.459  12.556
72697SOL    HW219931   0.117  10.540  12.500
72698SOL     OW19932  11.951   2.699   2.666
72698SOL    HW119933  12.026   2.760   2.663
72698SOL    HW219934  11.903   2.726   2.745
72699SOL     OW19935   9.244   6.742   5.127
72699SOL    HW119936   9.169   6.796   5.101
72699SOL    HW219937   9.319   6.783   5.084
72700SOL     OW19938   4.267   9.256  14.447
72700SOL    HW119939   4.325   9.323  14.483
72700SOL    HW219940   4.268   9.272  14.352
72701SOL     OW19941   6.063   9.076   9.729
72701SOL    HW119942   6.139   9.112   9.776
72701SOL    HW219943   6.006   9.152   9.714
72702SOL     OW19944   9.235   0.126  11.717
72702SOL    HW119945   9.267   0.162  11.635
72702SOL    HW219946   9.140   0.136  11.713
72703SOL     OW19947   0.370   8.527  14.322
72703SOL    HW119948   0.393   8.557  14.409
72703SOL    HW219949   0.417   8.444  14.312
72704SOL     OW19950  13.047  14.219   8.101
72704SOL    HW119951  13.094  14.137   8.119
72704SOL    HW219952  12.955  14.196   8.109
72705SOL     OW19953  14.654   9.457   8.179
72705SOL    HW119954  14.692   9.394   8.117
72705SOL    HW219955  14.659   9.541   8.134
72706SOL     OW19956  13.242   4.991  11.055
72706SOL    HW119957  13.321   5.037  11.027
72706SOL    HW219958  13.263   4.955  11.141
72707SOL     OW19959   7.264  12.368   4.106
72707SOL    HW119960   7.247  12.298   4.043
72707SOL    HW219961   7.310  12.435   4.056
72708SOL     OW19962   3.144   4.629   0.686
72708SOL    HW119963   3.109   4.687   0.618
72708SOL    HW219964   3.224   4.593   0.647
72709SOL     OW19965  13.622  14.277  11.352
72709SOL    HW119966  13.535  14.277  11.313
72709SOL    HW219967  13.670  14.345  11.305
72710SOL     OW19968   8.566   8.052  13.839
72710SOL    HW119969   8.539   7.963  13.820
72710SOL    HW219970   8.488   8.105  13.822
72711SOL     OW19971  13.461  10.918   4.549
72711SOL    HW119972  13.420  10.999   4.517
72711SOL    HW219973  13.512  10.886   4.474
72712SOL     OW19974   4.517   5.353   4.669
72712SOL    HW119975   4.519   5.259   4.651
72712SOL    HW219976   4.576   5.391   4.604
72713SOL     OW19977  10.183   8.196   6.234
72713SOL    HW119978  10.148   8.233   6.315
72713SOL    HW219979  10.192   8.103   6.252
72714SOL     OW19980   7.728   5.519  10.688
72714SOL    HW119981   7.769   5.595  10.647
72714SOL    HW219982   7.692   5.552  10.770
72715SOL     OW19983   3.706  12.680   8.192
72715SOL    HW119984   3.688  12.774   8.188
72715SOL    HW219985   3.624  12.641   8.222
72716SOL     OW19986  11.834   8.373   5.090
72716SOL    HW119987  11.868   8.419   5.013
72716SOL    HW219988  11.782   8.301   5.053
72717SOL     OW19989   8.654   6.611   2.202
72717SOL    HW119990   8.581   6.555   2.173
72717SOL    HW219991   8.612   6.683   2.248
72718SOL     OW19992   2.008   0.290   4.855
72718SOL    HW119993   1.961   0.260   4.778
72718SOL    HW219994   2.086   0.333   4.820
72719SOL     OW19995  10.121   5.768   1.820
72719SOL    HW119996  10.159   5.701   1.763
72719SOL    HW219997  10.180   5.771   1.896
72720SOL     OW19998  13.462  14.175   2.590
72720SOL    HW119999  13.523  14.234   2.636
72720SOL    HW220000  13.483  14.187   2.498
72721SOL     OW20001   8.168   0.220   0.593
72721SOL    HW120002   8.151   0.314   0.600
72721SOL    HW220003   8.150   0.198   0.502
72722SOL     OW20004  10.089   9.228   6.305
72722SOL    HW120005  10.047   9.142   6.298
72722SOL    HW220006  10.017   9.290   6.298
72723SOL     OW20007   3.708   2.930   3.585
72723SOL    HW120008   3.694   2.997   3.518
72723SOL    HW220009   3.766   2.971   3.649
72724SOL     OW20010  13.128  10.074   8.274
72724SOL    HW120011  13.128  10.148   8.334
72724SOL    HW220012  13.191  10.098   8.206
72725SOL     OW20013   7.568  13.792   0.392
72725SOL    HW120014   7.516  13.719   0.426
72725SOL    HW220015   7.564  13.858   0.462
72726SOL     OW20016   1.032  13.443  13.731
72726SOL    HW120017   1.083  13.455  13.651
72726SOL    HW220018   1.073  13.369  13.775
72727SOL     OW20019   0.802   0.864   3.580
72727SOL    HW120020   0.752   0.848   3.660
72727SOL    HW220021   0.741   0.844   3.509
72728SOL     OW20022   0.141   8.236   3.911
72728SOL    HW120023   0.092   8.248   3.830
72728SOL    HW220024   0.208   8.305   3.910
72729SOL     OW20025   8.634   7.740   4.740
72729SOL    HW120026   8.594   7.769   4.658
72729SOL    HW220027   8.576   7.669   4.771
72730SOL     OW20028  10.759   7.813   0.707
72730SOL    HW120029  10.721   7.829   0.793
72730SOL    HW220030  10.845   7.855   0.711
72731SOL     OW20031  10.971  14.782   5.773
72731SOL    HW120032  10.905  14.743   5.830
72731SOL    HW220033  11.047  14.725   5.782
72732SOL     OW20034   9.336  14.082  12.501
72732SOL    HW120035   9.296  13.998  12.478
72732SOL    HW220036   9.344  14.080  12.596
72733SOL     OW20037   8.372   6.682  11.799
72733SOL    HW120038   8.299   6.707  11.855
72733SOL    HW220039   8.446   6.674  11.859
72734SOL     OW20040  10.819   2.185   3.778
72734SOL    HW120041  10.911   2.211   3.786
72734SOL    HW220042  10.770   2.266   3.795
72735SOL     OW20043  10.744  13.528   0.943
72735SOL    HW120044  10.734  13.623   0.949
72735SOL    HW220045  10.780  13.514   0.855
72736SOL     OW20046  10.122   1.346   4.528
72736SOL    HW120047  10.034   1.372   4.501
72736SOL    HW220048  10.114   1.252   4.545
72737SOL     OW20049   8.474   9.823   9.545
72737SOL    HW120050   8.385   9.798   9.569
72737SOL    HW220051   8.466   9.914   9.515
72738SOL     OW20052   0.060   1.949   2.869
72738SOL    HW120053   0.099   1.864   2.849
72738SOL    HW220054  14.851   1.929   2.890
72739SOL     OW20055   2.721  11.360  11.602
72739SOL    HW120056   2.746  11.271  11.627
72739SOL    HW220057   2.653  11.348  11.535
72740SOL     OW20058   1.568   4.329   0.840
72740SOL    HW120059   1.474   4.339   0.825
72740SOL    HW220060   1.608   4.361   0.759
72741SOL     OW20061  12.589   4.098   0.097
72741SOL    HW120062  12.537   4.025   0.063
72741SOL    HW220063  12.546   4.122   0.179
72742SOL     OW20064   3.054   6.311  11.776
72742SOL    HW120065   3.084   6.362  11.701
72742SOL    HW220066   2.975   6.267  11.746
72743SOL     OW20067   6.432  10.066   4.080
72743SOL    HW120068   6.363  10.111   4.130
72743SOL    HW220069   6.511  10.079   4.132
72744SOL     OW20070   7.189   7.521   8.965
72744SOL    HW120071   7.193   7.548   9.057
72744SOL    HW220072   7.145   7.593   8.921
72745SOL     OW20073  11.413   4.141   6.043
72745SOL    HW120074  11.326   4.106   6.025
72745SOL    HW220075  11.462   4.066   6.077
72746SOL     OW20076   2.368   2.110  12.451
72746SOL    HW120077   2.455   2.148  12.456
72746SOL    HW220078   2.309   2.181  12.474
72747SOL     OW20079  11.358   3.579  11.642
72747SOL    HW120080  11.334   3.669  11.663
72747SOL    HW220081  11.304   3.526  11.701
72748SOL     OW20082   4.089   0.168  12.284
72748SOL    HW120083   4.093   0.142  12.376
72748SOL    HW220084   4.011   0.125  12.249
72749SOL     OW20085   1.632   1.065   0.414
72749SOL    HW120086   1.544   1.028   0.405
72749SOL    HW220087   1.690   0.989   0.411
72750SOL     OW20088   3.766   9.073  13.292
72750SOL    HW120089   3.735   8.988  13.322
72750SOL    HW220090   3.818   9.107  13.364
72751SOL     OW20091  10.436   9.534   3.156
72751SOL    HW120092  10.443   9.536   3.060
72751SOL    HW220093  10.497   9.600   3.186
72752SOL     OW20094  14.269  13.873   5.719
72752SOL    HW120095  14.301  13.904   5.634
72752SOL    HW220096  14.344  13.830   5.759
72753SOL     OW20097   9.873   2.890   0.114
72753SOL    HW120098   9.925   2.826   0.065
72753SOL    HW220099   9.930   2.917   0.186
72754SOL     OW20100   4.237  12.294   0.734
72754SOL    HW120101   4.156  12.243   0.727
72754SOL    HW220102   4.283  12.256   0.809
72755SOL     OW20103   5.985   4.266   3.051
72755SOL    HW120104   5.924   4.334   3.081
72755SOL    HW220105   6.072   4.300   3.075
72756SOL     OW20106   6.831  12.425   0.753
72756SOL    HW120107   6.751  12.456   0.795
72756SOL    HW220108   6.891  12.405   0.825
72757SOL     OW20109   3.628  14.597   5.502
72757SOL    HW120110   3.645  14.548   5.421
72757SOL    HW220111   3.564  14.664   5.476
72758SOL     OW20112   0.674   0.878  10.672
72758SOL    HW120113   0.625   0.954  10.703
72758SOL    HW220114   0.747   0.870  10.732
72759SOL     OW20115   9.905   1.445   6.326
72759SOL    HW120116   9.854   1.523   6.304
72759SOL    HW220117   9.870   1.376   6.269
72760SOL     OW20118   9.031  10.036   3.091
72760SOL    HW120119   8.961  10.053   3.029
72760SOL    HW220120   8.998  10.067   3.175
72761SOL     OW20121  10.455   2.031   4.767
72761SOL    HW120122  10.385   1.983   4.723
72761SOL    HW220123  10.531   2.021   4.709
72762SOL     OW20124  10.172   5.719   5.235
72762SOL    HW120125  10.163   5.814   5.223
72762SOL    HW220126  10.266   5.705   5.248
72763SOL     OW20127   8.320   8.173   9.773
72763SOL    HW120128   8.308   8.222   9.854
72763SOL    HW220129   8.402   8.126   9.784
72764SOL     OW20130   0.026   2.893  14.702
72764SOL    HW120131  14.835   2.922  14.646
72764SOL    HW220132  14.866   2.838  14.768
72765SOL     OW20133  11.987  12.847  13.946
72765SOL    HW120134  11.893  12.830  13.938
72765SOL    HW220135  11.997  12.939  13.922
72766SOL     OW20136  13.343   0.801  14.782
72766SOL    HW120137  13.403   0.865  14.820
72766SOL    HW220138  13.317   0.840  14.698
72767SOL     OW20139  14.173   2.420   4.704
72767SOL    HW120140  14.121   2.438   4.782
72767SOL    HW220141  14.262   2.407   4.737
72768SOL     OW20142   4.552   8.201  12.029
72768SOL    HW120143   4.485   8.137  12.005
72768SOL    HW220144   4.577   8.241  11.946
72769SOL     OW20145  12.932   5.841  14.023
72769SOL    HW120146  12.880   5.788  13.963
72769SOL    HW220147  12.884   5.924  14.028
72770SOL     OW20148   9.353   2.658   4.785
72770SOL    HW120149   9.362   2.607   4.704
72770SOL    HW220150   9.369   2.748   4.758
72771SOL     OW20151   2.916  12.489   7.199
72771SOL    HW120152   2.907  12.394   7.211
72771SOL    HW220153   2.826  12.520   7.190
72772SOL     OW20154   0.691   5.115   0.687
72772SOL    HW120155   0.743   5.037   0.705
72772SOL    HW220156   0.755   5.181   0.660
72773SOL     OW20157   5.980   4.826   0.613
72773SOL    HW120158   5.995   4.788   0.527
72773SOL    HW220159   5.979   4.920   0.599
72774SOL     OW20160  11.391  13.301  13.665
72774SOL    HW120161  11.311  13.248  13.666
72774SOL    HW220162  11.462  13.236  13.665
72775SOL     OW20163   9.366  12.191   6.758
72775SOL    HW120164   9.429  12.184   6.686
72775SOL    HW220165   9.415  12.160   6.835
72776SOL     OW20166   6.344   1.481   6.403
72776SOL    HW120167   6.358   1.490   6.309
72776SOL    HW220168   6.394   1.552   6.442
72777SOL     OW20169  13.289   7.986   0.533
72777SOL    HW120170  13.195   7.972   0.540
72777SOL    HW220171  13.307   8.056   0.596
72778SOL     OW20172   5.769   4.274   9.539
72778SOL    HW120173   5.725   4.203   9.585
72778SOL    HW220174   5.852   4.285   9.586
72779SOL     OW20175   2.940   4.529   5.736
72779SOL    HW120176   2.953   4.623   5.750
72779SOL    HW220177   2.873   4.523   5.668
72780SOL     OW20178   3.857   0.124  13.529
72780SOL    HW120179   3.844   0.090  13.440
72780SOL    HW220180   3.892   0.049  13.578
72781SOL     OW20181   4.755   2.577   2.359
72781SOL    HW120182   4.836   2.533   2.335
72781SOL    HW220183   4.780   2.643   2.423
72782SOL     OW20184   5.412   6.471  12.994
72782SOL    HW120185   5.500   6.507  13.000
72782SOL    HW220186   5.355   6.548  12.990
72783SOL     OW20187  13.684   9.736  11.948
72783SOL    HW120188  13.636   9.792  11.887
72783SOL    HW220189  13.723   9.797  12.011
72784SOL     OW20190  12.720   6.308   5.627
72784SOL    HW120191  12.665   6.287   5.703
72784SOL    HW220192  12.769   6.227   5.611
72785SOL     OW20193  14.333  12.801   4.177
72785SOL    HW120194  14.304  12.713   4.152
72785SOL    HW220195  14.261  12.835   4.229
72786SOL     OW20196   9.942  12.216  11.046
72786SOL    HW120197  10.012  12.204  11.110
72786SOL    HW220198   9.964  12.297  11.001
72787SOL     OW20199   4.108   1.932   7.692
72787SOL    HW120200   4.201   1.909   7.691
72787SOL    HW220201   4.062   1.849   7.702
72788SOL     OW20202  10.717   9.938  14.822
72788SOL    HW120203  10.700   9.848  14.848
72788SOL    HW220204  10.661   9.991  14.879
72789SOL     OW20205   7.569  13.200   1.236
72789SOL    HW120206   7.577  13.144   1.314
72789SOL    HW220207   7.617  13.279   1.258
72790SOL     OW20208   7.821   2.384  14.762
72790SOL    HW120209   7.808   2.289  14.766
72790SOL    HW220210   7.915   2.395  14.751
72791SOL     OW20211  13.282  12.263   5.639
72791SOL    HW120212  13.224  12.313   5.698
72791SOL    HW220213  13.369  12.297   5.658
72792SOL     OW20214   8.409   1.801   5.196
72792SOL    HW120215   8.404   1.725   5.137
72792SOL    HW220216   8.499   1.832   5.188
72793SOL     OW20217   1.337   0.592  12.275
72793SOL    HW120218   1.248   0.565  12.251
72793SOL    HW220219   1.383   0.510  12.293
72794SOL     OW20220   1.637  11.394   2.362
72794SOL    HW120221   1.732  11.386   2.359
72794SOL    HW220222   1.606  11.341   2.288
72795SOL     OW20223   8.700   2.557   5.582
72795SOL    HW120224   8.709   2.533   5.675
72795SOL    HW220225   8.647   2.487   5.544
72796SOL     OW20226  12.296  10.082   5.848
72796SOL    HW120227  12.222  10.123   5.893
72796SOL    HW220228  12.262  10.060   5.761
72797SOL     OW20229   0.072  11.006   3.867
72797SOL    HW120230   0.070  10.999   3.962
72797SOL    HW220231   0.071  11.100   3.849
72798SOL     OW20232  14.348  11.237   5.761
72798SOL    HW120233  14.298  11.315   5.738
72798SOL    HW220234  14.289  11.185   5.816
72799SOL     OW20235   4.304   2.100   5.665
72799SOL    HW120236   4.262   2.168   5.717
72799SOL    HW220237   4.335   2.145   5.587
72800SOL     OW20238  10.017  14.824   3.099
72800SOL    HW120239  10.092  14.856   3.050
72800SOL    HW220240  10.013  14.881   3.176
72801SOL     OW20241   9.867   8.992  11.878
72801SOL    HW120242   9.886   8.998  11.971
72801SOL    HW220243   9.793   8.932  11.872
72802SOL     OW20244  13.862   1.490   8.349
72802SOL    HW120245  13.810   1.474   8.270
72802SOL    HW220246  13.859   1.585   8.361
72803SOL     OW20247   9.247   5.465   1.993
72803SOL    HW120248   9.224   5.407   1.920
72803SOL    HW220249   9.169   5.517   2.008
72804SOL     OW20250  11.418   4.663   0.707
72804SOL    HW120251  11.336   4.665   0.757
72804SOL    HW220252  11.461   4.746   0.727
72805SOL     OW20253   3.341   6.702   8.069
72805SOL    HW120254   3.278   6.643   8.111
72805SOL    HW220255   3.342   6.779   8.126
72806SOL     OW20256  12.245   0.940  14.352
72806SOL    HW120257  12.250   0.878  14.425
72806SOL    HW220258  12.157   0.978  14.359
72807SOL     OW20259  14.653   6.101  13.080
72807SOL    HW120260  14.656   6.196  13.067
72807SOL    HW220261  14.685   6.064  12.998
72808SOL     OW20262   6.595  10.852  14.466
72808SOL    HW120263   6.688  10.875  14.469
72808SOL    HW220264   6.593  10.769  14.418
72809SOL     OW20265   1.657   8.537   1.511
72809SOL    HW120266   1.718   8.597   1.470
72809SOL    HW220267   1.658   8.562   1.604
72810SOL     OW20268  13.138  13.713  14.159
72810SOL    HW120269  13.097  13.655  14.223
72810SOL    HW220270  13.087  13.701  14.079
72811SOL     OW20271  14.162  11.476   5.426
72811SOL    HW120272  14.083  11.423   5.422
72811SOL    HW220273  14.134  11.556   5.472
72812SOL     OW20274  14.671  10.994   3.757
72812SOL    HW120275  14.744  10.954   3.709
72812SOL    HW220276  14.638  10.923   3.813
72813SOL     OW20277  12.602  13.266   2.286
72813SOL    HW120278  12.620  13.253   2.193
72813SOL    HW220279  12.508  13.286   2.289
72814SOL     OW20280   6.785   7.094   9.607
72814SOL    HW120281   6.797   7.154   9.533
72814SOL    HW220282   6.853   7.027   9.595
72815SOL     OW20283   9.060  13.835  14.812
72815SOL    HW120284   9.009  13.895  14.866
72815SOL    HW220285   9.028  13.748  14.834
72816SOL     OW20286   9.013   0.240   1.998
72816SOL    HW120287   8.963   0.274   1.924
72816SOL    HW220288   9.101   0.276   1.986
72817SOL     OW20289   6.946  14.560  13.853
72817SOL    HW120290   7.041  14.576  13.856
72817SOL    HW220291   6.923  14.574  13.761
72818SOL     OW20292   7.961  11.674   8.249
72818SOL    HW120293   7.905  11.752   8.245
72818SOL    HW220294   7.900  11.601   8.259
72819SOL     OW20295   1.720   2.948   8.498
72819SOL    HW120296   1.807   2.984   8.518
72819SOL    HW220297   1.711   2.959   8.403
72820SOL     OW20298   1.645  12.493   1.810
72820SOL    HW120299   1.567  12.473   1.759
72820SOL    HW220300   1.695  12.412   1.811
72821SOL     OW20301   8.057   9.576   5.289
72821SOL    HW120302   8.020   9.519   5.356
72821SOL    HW220303   7.983   9.601   5.235
72822SOL     OW20304  14.111   4.031  14.020
72822SOL    HW120305  14.110   4.096  13.951
72822SOL    HW220306  14.030   4.045  14.068
72823SOL     OW20307   5.107  11.039  10.357
72823SOL    HW120308   5.177  10.995  10.311
72823SOL    HW220309   5.088  10.983  10.433
72824SOL     OW20310   8.114   9.286  11.858
72824SOL    HW120311   8.138   9.375  11.833
72824SOL    HW220312   8.197   9.239  11.860
72825SOL     OW20313  12.490   3.730   4.493
72825SOL    HW120314  12.457   3.816   4.464
72825SOL    HW220315  12.542   3.750   4.571
72826SOL     OW20316   0.258   8.288   1.206
72826SOL    HW120317   0.258   8.249   1.294
72826SOL    HW220318   0.329   8.351   1.207
72827SOL     OW20319  11.873   7.237   2.388
72827SOL    HW120320  11.899   7.194   2.470
72827SOL    HW220321  11.856   7.165   2.328
72828SOL     OW20322   0.848  14.774   6.600
72828SOL    HW120323   0.820  14.856   6.559
72828SOL    HW220324   0.834  14.788   6.694
72829SOL     OW20325  12.617  12.491  14.626
72829SOL    HW120326  12.626  12.575  14.580
72829SOL    HW220327  12.579  12.513  14.710
72830SOL     OW20328   9.856  12.150   2.411
72830SOL    HW120329   9.880  12.147   2.503
72830SOL    HW220330   9.760  12.146   2.411
72831SOL     OW20331   6.059   6.819  10.467
72831SOL    HW120332   6.045   6.808  10.561
72831SOL    HW220333   6.021   6.741  10.427
72832SOL     OW20334   5.377   6.667   2.534
72832SOL    HW120335   5.324   6.709   2.467
72832SOL    HW220336   5.338   6.580   2.545
72833SOL     OW20337   0.449  13.416   9.886
72833SOL    HW120338   0.528  13.466   9.907
72833SOL    HW220339   0.476  13.356   9.817
72834SOL     OW20340   7.676   6.964   5.234
72834SOL    HW120341   7.651   6.912   5.157
72834SOL    HW220342   7.661   6.906   5.308
72835SOL     OW20343   5.728  14.606   1.408
72835SOL    HW120344   5.773  14.565   1.481
72835SOL    HW220345   5.723  14.699   1.431
72836SOL     OW20346   3.072   2.197   4.282
72836SOL    HW120347   2.979   2.201   4.259
72836SOL    HW220348   3.117   2.219   4.200
72837SOL     OW20349   3.853  14.668   4.684
72837SOL    HW120350   3.901  14.750   4.676
72837SOL    HW220351   3.851  14.632   4.596
72838SOL     OW20352   2.883  13.978   3.868
72838SOL    HW120353   2.856  14.033   3.941
72838SOL    HW220354   2.946  14.032   3.820
72839SOL     OW20355  10.494   1.093   0.132
72839SOL    HW120356  10.511   1.046   0.214
72839SOL    HW220357  10.553   1.168   0.135
72840SOL     OW20358  13.131   9.709   2.354
72840SOL    HW120359  13.201   9.644   2.349
72840SOL    HW220360  13.131   9.751   2.268
72841SOL     OW20361   6.562   4.896  12.336
72841SOL    HW120362   6.489   4.858  12.285
72841SOL    HW220363   6.521   4.929  12.416
72842SOL     OW20364   9.711   8.401   4.005
72842SOL    HW120365   9.769   8.387   4.079
72842SOL    HW220366   9.694   8.314   3.970
72843SOL     OW20367   0.606  12.292  14.088
72843SOL    HW120368   0.699  12.274  14.081
72843SOL    HW220369   0.588  12.353  14.016
72844SOL     OW20370   0.160   7.003  13.034
72844SOL    HW120371   0.118   7.078  13.078
72844SOL    HW220372   0.196   6.951  13.106
72845SOL     OW20373   0.841   0.405  13.174
72845SOL    HW120374   0.922   0.358  13.157
72845SOL    HW220375   0.797   0.353  13.241
72846SOL     OW20376  11.209   7.452   9.235
72846SOL    HW120377  11.249   7.436   9.149
72846SOL    HW220378  11.178   7.366   9.263
72847SOL     OW20379  13.280   9.897  14.198
72847SOL    HW120380  13.372   9.903  14.222
72847SOL    HW220381  13.281   9.864  14.108
72848SOL     OW20382   7.020   0.861  12.715
72848SOL    HW120383   7.060   0.879  12.630
72848SOL    HW220384   7.008   0.766  12.717
72849SOL     OW20385   3.636   1.027  10.030
72849SOL    HW120386   3.619   1.120  10.014
72849SOL    HW220387   3.575   1.004  10.100
72850SOL     OW20388   2.278  10.013   4.601
72850SOL    HW120389   2.261  10.059   4.683
72850SOL    HW220390   2.309  10.082   4.542
72851SOL     OW20391  14.431  10.402   7.832
72851SOL    HW120392  14.437  10.332   7.767
72851SOL    HW220393  14.508  10.457   7.816
72852SOL     OW20394   1.002  13.996   5.191
72852SOL    HW120395   1.097  13.996   5.186
72852SOL    HW220396   0.974  14.061   5.127
72853SOL     OW20397   6.044   3.599  10.157
72853SOL    HW120398   5.970   3.550  10.193
72853SOL    HW220399   6.067   3.551  10.077
72854SOL     OW20400  14.062  13.569   3.904
72854SOL    HW120401  14.107  13.574   3.819
72854SOL    HW220402  14.126  13.600   3.968
72855SOL     OW20403   2.331   2.042   3.743
72855SOL    HW120404   2.400   1.991   3.785
72855SOL    HW220405   2.268   1.976   3.712
72856SOL     OW20406  13.002   3.101   6.128
72856SOL    HW120407  13.022   3.009   6.116
72856SOL    HW220408  12.922   3.115   6.077
72857SOL     OW20409  13.974  10.690  12.409
72857SOL    HW120410  14.036  10.748  12.453
72857SOL    HW220411  13.985  10.605  12.452
72858SOL     OW20412   9.581   7.262  12.133
72858SOL    HW120413   9.548   7.175  12.111
72858SOL    HW220414   9.612   7.255  12.223
72859SOL     OW20415   4.932  10.415   6.811
72859SOL    HW120416   4.975  10.484   6.761
72859SOL    HW220417   4.989  10.400   6.886
72860SOL     OW20418   4.621   5.630   2.768
72860SOL    HW120419   4.573   5.712   2.776
72860SOL    HW220420   4.713   5.656   2.764
72861SOL     OW20421   5.837  10.427  14.367
72861SOL    HW120422   5.746  10.414  14.393
72861SOL    HW220423   5.875  10.477  14.439
72862SOL     OW20424   3.139   0.832   0.522
72862SOL    HW120425   3.197   0.764   0.556
72862SOL    HW220426   3.185   0.866   0.445
72863SOL     OW20427  13.037  13.022   7.863
72863SOL    HW120428  13.014  12.968   7.787
72863SOL    HW220429  13.049  13.110   7.827
72864SOL     OW20430   6.797   9.592  10.630
72864SOL    HW120431   6.768   9.661  10.571
72864SOL    HW220432   6.717   9.551  10.660
72865SOL     OW20433   4.205   9.791   6.366
72865SOL    HW120434   4.279   9.811   6.423
72865SOL    HW220435   4.174   9.705   6.395
72866SOL     OW20436   6.635  12.608   5.343
72866SOL    HW120437   6.640  12.678   5.409
72866SOL    HW220438   6.557  12.630   5.292
72867SOL     OW20439  13.966   5.040  13.817
72867SOL    HW120440  13.923   5.125  13.802
72867SOL    HW220441  13.903   4.975  13.786
72868SOL     OW20442   3.728  14.499   2.365
72868SOL    HW120443   3.757  14.469   2.451
72868SOL    HW220444   3.716  14.419   2.314
72869SOL     OW20445  14.836   4.509   6.781
72869SOL    HW120446  14.830   4.571   6.854
72869SOL    HW220447  14.757   4.524   6.730
72870SOL     OW20448  10.126   4.491  12.681
72870SOL    HW120449  10.126   4.527  12.770
72870SOL    HW220450  10.085   4.558  12.628
72871SOL     OW20451   3.195   7.309  11.201
72871SOL    HW120452   3.168   7.247  11.133
72871SOL    HW220453   3.197   7.394  11.158
72872SOL     OW20454   7.336  14.052  10.909
72872SOL    HW120455   7.349  13.991  10.837
72872SOL    HW220456   7.250  14.029  10.945
72873SOL     OW20457   9.970  14.440  13.396
72873SOL    HW120458   9.930  14.431  13.310
72873SOL    HW220459   9.973  14.350  13.431
72874SOL     OW20460   4.133   4.149   4.651
72874SOL    HW120461   4.163   4.130   4.740
72874SOL    HW220462   4.139   4.244   4.643
72875SOL     OW20463  14.328   3.694  10.974
72875SOL    HW120464  14.350   3.787  10.982
72875SOL    HW220465  14.372   3.666  10.893
72876SOL     OW20466  12.166   1.241   2.180
72876SOL    HW120467  12.222   1.218   2.106
72876SOL    HW220468  12.085   1.271   2.141
72877SOL     OW20469   8.163   9.666   3.972
72877SOL    HW120470   8.184   9.663   3.879
72877SOL    HW220471   8.127   9.753   3.987
72878SOL     OW20472   3.472   5.633   8.142
72878SOL    HW120473   3.408   5.653   8.074
72878SOL    HW220474   3.512   5.717   8.163
72879SOL     OW20475   7.628   4.124  14.534
72879SOL    HW120476   7.703   4.151  14.587
72879SOL    HW220477   7.638   4.030  14.523
72880SOL     OW20478   1.805  14.323   3.930
72880SOL    HW120479   1.720  14.283   3.945
72880SOL    HW220480   1.835  14.287   3.847
72881SOL     OW20481  10.083   0.895   9.448
72881SOL    HW120482  10.025   0.949   9.502
72881SOL    HW220483  10.171   0.919   9.476
72882SOL     OW20484  10.337  13.634   3.367
72882SOL    HW120485  10.398  13.677   3.307
72882SOL    HW220486  10.363  13.665   3.453
72883SOL     OW20487   1.230   2.104  11.279
72883SOL    HW120488   1.173   2.123  11.354
72883SOL    HW220489   1.246   2.190  11.240
72884SOL     OW20490  14.039   8.535   2.229
72884SOL    HW120491  14.062   8.553   2.137
72884SOL    HW220492  13.971   8.599   2.250
72885SOL     OW20493  13.371   1.692   8.671
72885SOL    HW120494  13.364   1.713   8.578
72885SOL    HW220495  13.281   1.696   8.704
72886SOL     OW20496   3.533  11.440   5.201
72886SOL    HW120497   3.563  11.465   5.114
72886SOL    HW220498   3.526  11.344   5.198
72887SOL     OW20499   0.422   3.451  13.483
72887SOL    HW120500   0.395   3.521  13.424
72887SOL    HW220501   0.341   3.418  13.521
72888SOL     OW20502   8.073   6.948   1.981
72888SOL    HW120503   8.004   6.970   2.044
72888SOL    HW220504   8.101   6.860   2.006
72889SOL     OW20505   2.410   0.220  13.970
72889SOL    HW120506   2.490   0.168  13.974
72889SOL    HW220507   2.340   0.159  13.992
72890SOL     OW20508   6.066   2.534  11.269
72890SOL    HW120509   5.976   2.533  11.300
72890SOL    HW220510   6.097   2.445  11.283
72891SOL     OW20511  11.941   5.207   0.662
72891SOL    HW120512  11.920   5.242   0.576
72891SOL    HW220513  11.961   5.284   0.715
72892SOL     OW20514   8.265   5.774   8.803
72892SOL    HW120515   8.199   5.729   8.751
72892SOL    HW220516   8.348   5.733   8.779
72893SOL     OW20517   1.066   7.089  13.401
72893SOL    HW120518   0.972   7.093  13.383
72893SOL    HW220519   1.075   7.119  13.492
72894SOL     OW20520   1.964   5.267   0.245
72894SOL    HW120521   1.998   5.178   0.259
72894SOL    HW220522   1.946   5.271   0.151
72895SOL     OW20523  13.510  11.856   7.774
72895SOL    HW120524  13.588  11.857   7.719
72895SOL    HW220525  13.513  11.772   7.820
72896SOL     OW20526   2.773   9.221   0.958
72896SOL    HW120527   2.736   9.287   0.900
72896SOL    HW220528   2.857   9.198   0.917
72897SOL     OW20529   3.102   4.954  12.874
72897SOL    HW120530   3.083   5.036  12.919
72897SOL    HW220531   3.151   4.902  12.937
72898SOL     OW20532  12.775   9.621   8.907
72898SOL    HW120533  12.708   9.640   8.973
72898SOL    HW220534  12.725   9.592   8.830
72899SOL     OW20535   7.707   2.392   6.617
72899SOL    HW120536   7.759   2.367   6.692
72899SOL    HW220537   7.759   2.365   6.541
72900SOL     OW20538  13.231  14.108   2.284
72900SOL    HW120539  13.173  14.139   2.354
72900SOL    HW220540  13.283  14.039   2.325
72901SOL     OW20541   7.132   5.198   5.883
72901SOL    HW120542   7.154   5.246   5.803
72901SOL    HW220543   7.093   5.116   5.852
72902SOL     OW20544   7.394   2.117  14.845
72902SOL    HW120545   7.353   2.061  14.779
72902SOL    HW220546   7.472   2.152  14.801
72903SOL     OW20547   9.705  13.816  10.096
72903SOL    HW120548   9.696  13.721  10.096
72903SOL    HW220549   9.766  13.835  10.024
72904SOL     OW20550   4.611   8.989   9.199
72904SOL    HW120551   4.657   8.909   9.225
72904SOL    HW220552   4.531   8.990   9.251
72905SOL     OW20553   0.617  12.866   5.563
72905SOL    HW120554   0.584  12.790   5.516
72905SOL    HW220555   0.638  12.930   5.494
72906SOL     OW20556  11.623  11.690   1.716
72906SOL    HW120557  11.555  11.687   1.649
72906SOL    HW220558  11.576  11.678   1.798
72907SOL     OW20559  13.365   9.060  10.920
72907SOL    HW120560  13.332   9.145  10.949
72907SOL    HW220561  13.455   9.057  10.951
72908SOL     OW20562   1.449   4.710   1.670
72908SOL    HW120563   1.507   4.771   1.716
72908SOL    HW220564   1.361   4.730   1.703
72909SOL     OW20565  13.863   6.617   6.887
72909SOL    HW120566  13.906   6.564   6.820
72909SOL    HW220567  13.908   6.702   6.882
72910SOL     OW20568   3.601   4.405   8.932
72910SOL    HW120569   3.546   4.414   9.010
72910SOL    HW220570   3.540   4.374   8.864
72911SOL     OW20571   0.031   8.657  12.317
72911SOL    HW120572   0.013   8.717  12.245
72911SOL    HW220573   0.013   8.570  12.281
72912SOL     OW20574  11.049   8.122   0.357
72912SOL    HW120575  11.022   8.166   0.438
72912SOL    HW220576  11.062   8.031   0.382
72913SOL     OW20577   7.949  14.475  13.195
72913SOL    HW120578   7.993  14.553  13.162
72913SOL    HW220579   7.876  14.461  13.134
72914SOL     OW20580   5.065  10.913  10.826
72914SOL    HW120581   4.983  10.928  10.872
72914SOL    HW220582   5.131  10.954  10.881
72915SOL     OW20583  12.543   6.210   2.332
72915SOL    HW120584  12.583   6.138   2.380
72915SOL    HW220585  12.598   6.286   2.352
72916SOL     OW20586  14.110   6.965  13.524
72916SOL    HW120587  14.128   7.055  13.550
72916SOL    HW220588  14.176   6.913  13.570
72917SOL     OW20589   5.266   9.091   3.765
72917SOL    HW120590   5.266   9.008   3.813
72917SOL    HW220591   5.331   9.079   3.696
72918SOL     OW20592   0.186  13.893   1.861
72918SOL    HW120593   0.148  13.873   1.947
72918SOL    HW220594   0.178  13.811   1.812
72919SOL     OW20595  12.685   1.536   1.799
72919SOL    HW120596  12.642   1.500   1.722
72919SOL    HW220597  12.752   1.472   1.822
72920SOL     OW20598   5.996  12.375   9.292
72920SOL    HW120599   6.020  12.285   9.273
72920SOL    HW220600   6.060  12.427   9.244
72921SOL     OW20601  14.263   9.976   7.003
72921SOL    HW120602  14.330  10.036   6.971
72921SOL    HW220603  14.204   9.964   6.929
72922SOL     OW20604   2.538  11.106   2.982
72922SOL    HW120605   2.502  11.186   2.942
72922SOL    HW220606   2.488  11.094   3.062
72923SOL     OW20607  13.258   9.502  10.756
72923SOL    HW120608  13.258   9.407  10.743
72923SOL    HW220609  13.166   9.525  10.760
72924SOL     OW20610   9.687  11.987   5.088
72924SOL    HW120611   9.762  12.003   5.031
72924SOL    HW220612   9.676  11.892   5.089
72925SOL     OW20613  10.125   6.433   6.358
72925SOL    HW120614  10.104   6.347   6.394
72925SOL    HW220615  10.175   6.476   6.427
72926SOL     OW20616   5.475   3.087   4.778
72926SOL    HW120617   5.521   3.167   4.751
72926SOL    HW220618   5.404   3.119   4.834
72927SOL     OW20619  13.823   4.582  14.326
72927SOL    HW120620  13.734   4.559  14.354
72927SOL    HW220621  13.837   4.670  14.360
72928SOL     OW20622   5.762  11.629   5.023
72928SOL    HW120623   5.749  11.713   4.979
72928SOL    HW220624   5.857  11.620   5.030
72929SOL     OW20625  12.709  14.111   8.625
72929SOL    HW120626  12.746  14.063   8.551
72929SOL    HW220627  12.687  14.043   8.689
72930SOL     OW20628   7.093  13.115  11.095
72930SOL    HW120629   7.091  13.120  10.999
72930SOL    HW220630   7.124  13.201  11.123
72931SOL     OW20631  12.478  10.714   7.824
72931SOL    HW120632  12.559  10.704   7.874
72931SOL    HW220633  12.409  10.691   7.885
72932SOL     OW20634   3.083   7.785  11.787
72932SOL    HW120635   3.127   7.726  11.847
72932SOL    HW220636   3.117   7.872  11.809
72933SOL     OW20637  11.114   2.953   0.785
72933SOL    HW120638  11.208   2.940   0.800
72933SOL    HW220639  11.078   2.864   0.782
72934SOL     OW20640   5.465  14.161  14.224
72934SOL    HW120641   5.503  14.118  14.147
72934SOL    HW220642   5.408  14.094  14.262
72935SOL     OW20643   6.061   4.636  13.805
72935SOL    HW120644   6.061   4.712  13.863
72935SOL    HW220645   6.045   4.672  13.718
72936SOL     OW20646  10.324   7.777   7.978
72936SOL    HW120647  10.325   7.716   7.905
72936SOL    HW220648  10.259   7.843   7.954
72937SOL     OW20649   7.437  14.378   0.853
72937SOL    HW120650   7.530  14.361   0.839
72937SOL    HW220651   7.431  14.474   0.861
72938SOL     OW20652   8.014  13.812   9.832
72938SOL    HW120653   8.099  13.768   9.824
72938SOL    HW220654   7.953  13.742   9.854
72939SOL     OW20655   9.214  10.531   1.042
72939SOL    HW120656   9.179  10.544   0.954
72939SOL    HW220657   9.143  10.554   1.101
72940SOL     OW20658  12.052   3.602   4.461
72940SOL    HW120659  12.107   3.645   4.526
72940SOL    HW220660  12.097   3.616   4.378
72941SOL     OW20661   9.242  10.460  11.371
72941SOL    HW120662   9.216  10.368  11.365
72941SOL    HW220663   9.182  10.498  11.435
72942SOL     OW20664   6.050   6.106   7.385
72942SOL    HW120665   6.047   6.065   7.471
72942SOL    HW220666   5.967   6.081   7.343
72943SOL     OW20667  10.533   8.412   7.123
72943SOL    HW120668  10.612   8.404   7.069
72943SOL    HW220669  10.567   8.416   7.213
72944SOL     OW20670   6.367  14.153   0.456
72944SOL    HW120671   6.357  14.228   0.514
72944SOL    HW220672   6.457  14.159   0.424
72945SOL     OW20673   1.270   7.556   4.367
72945SOL    HW120674   1.279   7.637   4.316
72945SOL    HW220675   1.202   7.577   4.431
72946SOL     OW20676  14.150  12.597  10.623
72946SOL    HW120677  14.089  12.538  10.578
72946SOL    HW220678  14.237  12.564  10.598
72947SOL     OW20679  11.323  13.341   1.982
72947SOL    HW120680  11.377  13.264   1.961
72947SOL    HW220681  11.280  13.318   2.064
72948SOL     OW20682  12.450  14.135  14.112
72948SOL    HW120683  12.424  14.043  14.108
72948SOL    HW220684  12.438  14.160  14.204
72949SOL     OW20685   3.736   7.338   2.687
72949SOL    HW120686   3.817   7.387   2.672
72949SOL    HW220687   3.763   7.264   2.743
72950SOL     OW20688   4.006  13.828   5.916
72950SOL    HW120689   3.997  13.733   5.905
72950SOL    HW220690   4.099  13.845   5.904
72951SOL     OW20691   4.535  11.132   2.681
72951SOL    HW120692   4.601  11.126   2.611
72951SOL    HW220693   4.496  11.219   2.670
72952SOL     OW20694   7.359   6.652   5.509
72952SOL    HW120695   7.328   6.659   5.600
72952SOL    HW220696   7.296   6.593   5.467
72953SOL     OW20697  12.793   5.361   1.173
72953SOL    HW120698  12.839   5.278   1.182
72953SOL    HW220699  12.726   5.344   1.107
72954SOL     OW20700   6.257   3.108   4.915
72954SOL    HW120701   6.235   3.015   4.922
72954SOL    HW220702   6.225   3.147   4.997
72955SOL     OW20703  11.575   7.108   7.089
72955SOL    HW120704  11.627   7.112   7.170
72955SOL    HW220705  11.636   7.079   7.022
72956SOL     OW20706   5.341   0.998   6.774
72956SOL    HW120707   5.329   0.906   6.799
72956SOL    HW220708   5.376   0.994   6.685
72957SOL     OW20709  12.029   5.255  12.097
72957SOL    HW120710  11.996   5.220  12.014
72957SOL    HW220711  12.054   5.177  12.148
72958SOL     OW20712   2.669   3.179   5.517
72958SOL    HW120713   2.677   3.227   5.600
72958SOL    HW220714   2.601   3.114   5.533
72959SOL     OW20715   6.177   7.043   5.511
72959SOL    HW120716   6.100   7.017   5.461
72959SOL    HW220717   6.187   6.974   5.577
72960SOL     OW20718   0.520   6.329   4.015
72960SOL    HW120719   0.584   6.372   3.959
72960SOL    HW220720   0.477   6.401   4.062
72961SOL     OW20721   5.097   7.551   1.852
72961SOL    HW120722   5.009   7.580   1.876
72961SOL    HW220723   5.090   7.456   1.848
72962SOL     OW20724   5.328   7.593   1.203
72962SOL    HW120725   5.302   7.569   1.292
72962SOL    HW220726   5.423   7.588   1.204
72963SOL     OW20727   2.847   3.683  13.494
72963SOL    HW120728   2.867   3.591  13.478
72963SOL    HW220729   2.847   3.691  13.589
72964SOL     OW20730   2.774  11.540  13.805
72964SOL    HW120731   2.725  11.611  13.845
72964SOL    HW220732   2.723  11.516  13.727
72965SOL     OW20733   3.857  12.119   7.396
72965SOL    HW120734   3.878  12.196   7.449
72965SOL    HW220735   3.847  12.154   7.307
72966SOL     OW20736   8.417   0.290  14.493
72966SOL    HW120737   8.413   0.356  14.424
72966SOL    HW220738   8.367   0.217  14.459
72967SOL     OW20739   7.234   4.721   8.209
72967SOL    HW120740   7.145   4.700   8.237
72967SOL    HW220741   7.241   4.816   8.219
72968SOL     OW20742   1.245   4.539   8.833
72968SOL    HW120743   1.338   4.525   8.816
72968SOL    HW220744   1.204   4.456   8.812
72969SOL     OW20745  12.688   7.038  10.293
72969SOL    HW120746  12.781   7.018  10.282
72969SOL    HW220747  12.649   6.954  10.319
72970SOL     OW20748   2.462  10.209  12.986
72970SOL    HW120749   2.536  10.187  13.043
72970SOL    HW220750   2.423  10.286  13.026
72971SOL     OW20751   6.160  12.118   9.538
72971SOL    HW120752   6.138  12.211   9.548
72971SOL    HW220753   6.208  12.113   9.456
72972SOL     OW20754   6.684  11.499  14.615
72972SOL    HW120755   6.641  11.443  14.550
72972SOL    HW220756   6.778  11.481  14.603
72973SOL     OW20757  12.623   4.884  13.116
72973SOL    HW120758  12.594   4.945  13.048
72973SOL    HW220759  12.690   4.932  13.165
72974SOL     OW20760   5.480   4.921   1.793
72974SOL    HW120761   5.503   4.834   1.762
72974SOL    HW220762   5.433   4.961   1.720
72975SOL     OW20763   6.934   4.401   5.598
72975SOL    HW120764   7.018   4.446   5.612
72975SOL    HW220765   6.871   4.451   5.650
72976SOL     OW20766   1.405  11.983   5.100
72976SOL    HW120767   1.387  12.070   5.133
72976SOL    HW220768   1.350  11.925   5.153
72977SOL     OW20769  13.946   5.954  10.239
72977SOL    HW120770  13.937   6.026  10.177
72977SOL    HW220771  13.870   5.960  10.296
72978SOL     OW20772   7.188   9.731   5.675
72978SOL    HW120773   7.162   9.650   5.718
72978SOL    HW220774   7.159   9.800   5.734
72979SOL     OW20775   2.099   2.934   5.278
72979SOL    HW120776   2.144   2.998   5.222
72979SOL    HW220777   2.160   2.917   5.350
72980SOL     OW20778   3.506   6.400   0.236
72980SOL    HW120779   3.442   6.465   0.264
72980SOL    HW220780   3.582   6.451   0.208
72981SOL     OW20781  13.852  14.483  13.611
72981SOL    HW120782  13.763  14.453  13.630
72981SOL    HW220783  13.909  14.414  13.647
72982SOL     OW20784  11.917   5.408   5.647
72982SOL    HW120785  11.890   5.447   5.730
72982SOL    HW220786  11.992   5.352   5.669
72983SOL     OW20787  11.106   1.019  10.542
72983SOL    HW120788  11.046   0.995  10.613
72983SOL    HW220789  11.106   0.943  10.483
72984SOL     OW20790  13.282  12.116   7.077
72984SOL    HW120791  13.286  12.029   7.038
72984SOL    HW220792  13.292  12.176   7.003
72985SOL     OW20793  13.212  13.333  14.375
72985SOL    HW120794  13.211  13.328  14.279
72985SOL    HW220795  13.255  13.252  14.403
72986SOL     OW20796   9.064   7.233   7.987
72986SOL    HW120797   9.073   7.233   8.082
72986SOL    HW220798   9.093   7.145   7.961
72987SOL     OW20799   4.607   8.708   0.712
72987SOL    HW120800   4.684   8.744   0.666
72987SOL    HW220801   4.625   8.725   0.804
72988SOL     OW20802   8.599   2.892  14.192
72988SOL    HW120803   8.628   2.980  14.216
72988SOL    HW220804   8.659   2.833  14.238
72989SOL     OW20805   8.731  11.664   3.143
72989SOL    HW120806   8.762  11.646   3.232
72989SOL    HW220807   8.798  11.722   3.106
72990SOL     OW20808   9.036  11.666   1.798
72990SOL    HW120809   8.968  11.709   1.850
72990SOL    HW220810   9.118  11.702   1.830
72991SOL     OW20811  13.317  13.459  12.566
72991SOL    HW120812  13.399  13.457  12.517
72991SOL    HW220813  13.330  13.397  12.638
72992SOL     OW20814   9.885   0.250   0.426
72992SOL    HW120815   9.894   0.175   0.367
72992SOL    HW220816   9.800   0.288   0.403
72993SOL     OW20817   3.438   6.845  14.743
72993SOL    HW120818   3.528   6.869  14.766
72993SOL    HW220819   3.440   6.749  14.736
72994SOL     OW20820   4.751   3.877  14.389
72994SOL    HW120821   4.713   3.888  14.302
72994SOL    HW220822   4.695   3.813  14.432
72995SOL     OW20823   0.140   0.692   0.928
72995SOL    HW120824   0.084   0.735   0.992
72995SOL    HW220825   0.203   0.759   0.902
72996SOL     OW20826   9.857   6.406   6.435
72996SOL    HW120827   9.789   6.472   6.427
72996SOL    HW220828   9.939   6.453   6.419
72997SOL     OW20829   4.004  14.662  14.705
72997SOL    HW120830   4.002  14.612  14.623
72997SOL    HW220831   4.094  14.655  14.735
72998SOL     OW20832   0.914   7.399   4.401
72998SOL    HW120833   0.970   7.458   4.452
72998SOL    HW220834   0.955   7.396   4.315
72999SOL     OW20835  11.659   0.265  10.040
72999SOL    HW120836  11.569   0.282  10.066
72999SOL    HW220837  11.712   0.306  10.108
73000SOL     OW20838   0.713   9.337   9.937
73000SOL    HW120839   0.621   9.318   9.958
73000SOL    HW220840   0.753   9.353  10.023
73001SOL     OW20841   7.540   6.912   1.711
73001SOL    HW120842   7.493   6.854   1.771
73001SOL    HW220843   7.627   6.873   1.703
73002SOL     OW20844   6.872  14.744  14.142
73002SOL    HW120845   6.809  14.708  14.204
73002SOL    HW220846   6.957  14.715  14.174
73003SOL     OW20847   8.021  10.204  10.699
73003SOL    HW120848   7.942  10.221  10.750
73003SOL    HW220849   8.091  10.202  10.763
73004SOL     OW20850  11.134   2.050   9.321
73004SOL    HW120851  11.210   1.991   9.320
73004SOL    HW220852  11.065   2.000   9.365
73005SOL     OW20853  12.450   2.212  11.294
73005SOL    HW120854  12.435   2.140  11.354
73005SOL    HW220855  12.429   2.176  11.208
73006SOL     OW20856   4.224   7.731   1.013
73006SOL    HW120857   4.240   7.724   0.919
73006SOL    HW220858   4.282   7.800   1.043
73007SOL     OW20859   6.010   2.978   8.584
73007SOL    HW120860   6.073   3.046   8.611
73007SOL    HW220861   5.987   2.934   8.665
73008SOL     OW20862   4.190   8.721  14.004
73008SOL    HW120863   4.193   8.786  14.074
73008SOL    HW220864   4.257   8.657  14.028
73009SOL     OW20865  14.620   2.544  11.765
73009SOL    HW120866  14.610   2.611  11.697
73009SOL    HW220867  14.631   2.593  11.846
73010SOL     OW20868  13.091   1.503   1.268
73010SOL    HW120869  13.179   1.477   1.241
73010SOL    HW220870  13.033   1.439   1.225
73011SOL     OW20871   7.605   1.432   0.004
73011SOL    HW120872   7.553   1.412   0.082
73011SOL    HW220873   7.668   1.498   0.035
73012SOL     OW20874   0.834  11.748  14.697
73012SOL    HW120875   0.776  11.720  14.626
73012SOL    HW220876   0.887  11.671  14.717
73013SOL     OW20877  13.308  10.018   0.733
73013SOL    HW120878  13.335   9.944   0.678
73013SOL    HW220879  13.215  10.003   0.749
73014SOL     OW20880   3.012   9.352   6.392
73014SOL    HW120881   3.062   9.320   6.467
73014SOL    HW220882   2.921   9.333   6.414
73015SOL     OW20883   4.277   0.620   4.794
73015SOL    HW120884   4.355   0.670   4.770
73015SOL    HW220885   4.292   0.592   4.884
73016SOL     OW20886   9.823   8.636   8.519
73016SOL    HW120887   9.742   8.604   8.480
73016SOL    HW220888   9.809   8.629   8.613
73017SOL     OW20889   6.836  14.313  11.998
73017SOL    HW120890   6.846  14.327  12.093
73017SOL    HW220891   6.807  14.222  11.991
73018SOL     OW20892   0.577   6.723   2.282
73018SOL    HW120893   0.590   6.662   2.210
73018SOL    HW220894   0.517   6.789   2.248
73019SOL     OW20895  11.152   4.945   5.421
73019SOL    HW120896  11.157   4.892   5.501
73019SOL    HW220897  11.232   4.925   5.374
73020SOL     OW20898  10.126  12.199  12.217
73020SOL    HW120899  10.133  12.292  12.195
73020SOL    HW220900  10.047  12.169  12.171
73021SOL     OW20901   0.167  14.751   7.747
73021SOL    HW120902   0.154  14.738   7.841
73021SOL    HW220903   0.109  14.687   7.706
73022SOL     OW20904   3.133   4.867   2.534
73022SOL    HW120905   3.190   4.887   2.608
73022SOL    HW220906   3.121   4.950   2.489
73023SOL     OW20907   4.337   0.731   7.565
73023SOL    HW120908   4.251   0.693   7.545
73023SOL    HW220909   4.397   0.655   7.563
73024SOL     OW20910   2.059   7.453  10.183
73024SOL    HW120911   1.971   7.479  10.154
73024SOL    HW220912   2.112   7.532  10.175
73025SOL     OW20913   5.172   8.333  14.190
73025SOL    HW120914   5.230   8.385  14.134
73025SOL    HW220915   5.153   8.255  14.138
73026SOL     OW20916  14.426  12.809   0.042
73026SOL    HW120917  14.435  12.837   0.133
73026SOL    HW220918  14.512  12.828   0.003
73027SOL     OW20919   0.298  12.275   6.636
73027SOL    HW120920   0.222  12.254   6.582
73027SOL    HW220921   0.293  12.370   6.649
73028SOL     OW20922   9.137   0.244   6.467
73028SOL    HW120923   9.075   0.185   6.424
73028SOL    HW220924   9.083   0.296   6.527
73029SOL     OW20925  10.095  12.758   7.226
73029SOL    HW120926  10.149  12.813   7.170
73029SOL    HW220927  10.158  12.711   7.281
73030SOL     OW20928   7.327   7.782   9.818
73030SOL    HW120929   7.334   7.872   9.786
73030SOL    HW220930   7.416   7.759   9.846
73031SOL     OW20931  10.743  12.661   5.485
73031SOL    HW120932  10.746  12.565   5.486
73031SOL    HW220933  10.685  12.682   5.412
73032SOL     OW20934   7.500   0.546   0.356
73032SOL    HW120935   7.529   0.458   0.381
73032SOL    HW220936   7.444   0.532   0.280
73033SOL     OW20937  14.438   4.393  13.423
73033SOL    HW120938  14.492   4.446  13.481
73033SOL    HW220939  14.388   4.457  13.372
73034SOL     OW20940   6.280   6.263  11.383
73034SOL    HW120941   6.285   6.265  11.287
73034SOL    HW220942   6.276   6.355  11.409
73035SOL     OW20943  13.146  11.912  10.708
73035SOL    HW120944  13.177  11.849  10.773
73035SOL    HW220945  13.183  11.880  10.625
73036SOL     OW20946  13.114   2.396  11.128
73036SOL    HW120947  13.060   2.412  11.050
73036SOL    HW220948  13.165   2.476  11.138
73037SOL     OW20949   9.056  11.928   0.842
73037SOL    HW120950   8.982  11.894   0.893
73037SOL    HW220951   9.034  11.910   0.751
73038SOL     OW20952   4.966   1.061   5.702
73038SOL    HW120953   5.054   1.051   5.668
73038SOL    HW220954   4.958   0.992   5.768
73039SOL     OW20955   2.451   5.975   7.159
73039SOL    HW120956   2.473   5.898   7.213
73039SOL    HW220957   2.536   6.005   7.126
73040SOL     OW20958   1.262   2.811  11.593
73040SOL    HW120959   1.168   2.821  11.603
73040SOL    HW220960   1.297   2.827  11.681
73041SOL     OW20961   1.971   4.305  13.543
73041SOL    HW120962   1.886   4.261  13.552
73041SOL    HW220963   1.967   4.346  13.456
73042SOL     OW20964  13.857   1.050  13.345
73042SOL    HW120965  13.886   1.032  13.434
73042SOL    HW220966  13.929   1.098  13.305
73043SOL     OW20967  11.498   8.086   2.179
73043SOL    HW120968  11.472   8.068   2.089
73043SOL    HW220969  11.464   8.011   2.229
73044SOL     OW20970   4.308   6.618   5.060
73044SOL    HW120971   4.274   6.683   4.998
73044SOL    HW220972   4.251   6.542   5.049
73045SOL     OW20973   4.898  12.042  12.722
73045SOL    HW120974   4.959  12.025  12.649
73045SOL    HW220975   4.946  12.102  12.779
73046SOL     OW20976   0.468  10.681   8.697
73046SOL    HW120977   0.374  10.697   8.688
73046SOL    HW220978   0.508  10.733   8.627
73047SOL     OW20979  11.259   7.182  14.142
73047SOL    HW120980  11.170   7.216  14.136
73047SOL    HW220981  11.265   7.118  14.071
73048SOL     OW20982  12.523   7.102   9.518
73048SOL    HW120983  12.444   7.104   9.572
73048SOL    HW220984  12.542   7.194   9.501
73049SOL     OW20985   9.804  11.222  10.022
73049SOL    HW120986   9.823  11.136   9.984
73049SOL    HW220987   9.803  11.282   9.947
73050SOL     OW20988   0.101  12.491   4.156
73050SOL    HW120989   0.064  12.577   4.136
73050SOL    HW220990   0.176  12.511   4.213
73051SOL     OW20991  10.460  14.121   5.043
73051SOL    HW120992  10.460  14.213   5.068
73051SOL    HW220993  10.533  14.082   5.092
73052SOL     OW20994  13.470  10.394   7.370
73052SOL    HW120995  13.480  10.305   7.336
73052SOL    HW220996  13.471  10.450   7.293
73053SOL     OW20997   0.673   6.805  10.876
73053SOL    HW120998   0.664   6.816  10.781
73053SOL    HW220999   0.620   6.875  10.914
73054SOL     OW21000  10.019   8.124  11.149
73054SOL    HW121001  10.010   8.093  11.239
73054SOL    HW221002  10.038   8.218  11.158
73055SOL     OW21003   9.315  11.359   6.616
73055SOL    HW121004   9.373  11.330   6.545
73055SOL    HW221005   9.349  11.444   6.643
73056SOL     OW21006   1.103   9.988   2.002
73056SOL    HW121007   1.191   9.981   2.040
73056SOL    HW221008   1.044   9.967   2.074
73057SOL     OW21009   1.480   3.212  10.838
73057SOL    HW121010   1.479   3.283  10.902
73057SOL    HW221011   1.455   3.254  10.756
73058SOL     OW21012  13.091   8.094   7.864
73058SOL    HW121013  13.033   8.167   7.888
73058SOL    HW221014  13.148   8.131   7.796
73059SOL     OW21015   5.668  11.823  11.062
73059SOL    HW121016   5.653  11.918  11.065
73059SOL    HW221017   5.745  11.809  11.118
73060SOL     OW21018   8.238   8.224   3.644
73060SOL    HW121019   8.162   8.165   3.643
73060SOL    HW221020   8.223   8.284   3.571
73061SOL     OW21021   5.740   6.847  13.027
73061SOL    HW121022   5.719   6.772  13.084
73061SOL    HW221023   5.658   6.896  13.021
73062SOL     OW21024   4.573  13.097   2.431
73062SOL    HW121025   4.491  13.061   2.464
73062SOL    HW221026   4.574  13.187   2.463
73063SOL     OW21027  11.664   6.244  10.064
73063SOL    HW121028  11.598   6.288  10.117
73063SOL    HW221029  11.688   6.166  10.114
73064SOL     OW21030   9.292   5.516   9.354
73064SOL    HW121031   9.383   5.545   9.356
73064SOL    HW221032   9.243   5.594   9.327
73065SOL     OW21033  14.552   1.505   2.304
73065SOL    HW121034  14.507   1.580   2.264
73065SOL    HW221035  14.505   1.429   2.271
73066SOL     OW21036   5.235   6.174   9.852
73066SOL    HW121037   5.304   6.140   9.909
73066SOL    HW221038   5.226   6.266   9.877
73067SOL     OW21039   7.746  10.847   4.606
73067SOL    HW121040   7.826  10.885   4.642
73067SOL    HW221041   7.760  10.753   4.611
73068SOL     OW21042  10.762  13.442   3.355
73068SOL    HW121043  10.731  13.515   3.409
73068SOL    HW221044  10.776  13.370   3.416
73069SOL     OW21045   3.944  12.087   4.255
73069SOL    HW121046   4.019  12.090   4.315
73069SOL    HW221047   3.968  12.148   4.185
73070SOL     OW21048  12.693   5.934   7.700
73070SOL    HW121049  12.657   5.907   7.615
73070SOL    HW221050  12.787   5.940   7.685
73071SOL     OW21051  12.229   6.892  10.783
73071SOL    HW121052  12.318   6.925  10.796
73071SOL    HW221053  12.237   6.829  10.712
73072SOL     OW21054  13.951   9.437  10.253
73072SOL    HW121055  14.038   9.470  10.228
73072SOL    HW221056  13.912   9.410  10.170
73073SOL     OW21057   0.947   5.009   0.481
73073SOL    HW121058   0.944   5.105   0.485
73073SOL    HW221059   0.972   4.983   0.570
73074SOL     OW21060   4.342  13.926   2.555
73074SOL    HW121061   4.339  13.965   2.468
73074SOL    HW221062   4.271  13.862   2.555
73075SOL     OW21063   4.306   7.304   8.621
73075SOL    HW121064   4.302   7.389   8.665
73075SOL    HW221065   4.218   7.291   8.587
73076SOL     OW21066  10.966   1.653   3.339
73076SOL    HW121067  10.977   1.609   3.423
73076SOL    HW221068  11.029   1.609   3.282
73077SOL     OW21069   4.725  11.134  14.542
73077SOL    HW121070   4.693  11.076  14.472
73077SOL    HW221071   4.776  11.076  14.599
73078SOL     OW21072   2.275   5.469  12.669
73078SOL    HW121073   2.278   5.416  12.749
73078SOL    HW221074   2.308   5.555  12.695
73079SOL     OW21075   5.800   0.288   9.177
73079SOL    HW121076   5.767   0.364   9.223
73079SOL    HW221077   5.751   0.214   9.214
73080SOL     OW21078  14.648  12.645   2.408
73080SOL    HW121079  14.624  12.735   2.433
73080SOL    HW221080  14.591  12.625   2.333
73081SOL     OW21081  14.847  12.803   9.670
73081SOL    HW121082  14.841  12.828   9.578
73081SOL    HW221083   0.043  12.850   9.702
73082SOL     OW21084   0.020   7.089   1.203
73082SOL    HW121085  14.815   7.123   1.222
73082SOL    HW221086   0.023   7.003   1.245
73083SOL     OW21087   2.620   4.887   5.788
73083SOL    HW121088   2.683   4.901   5.858
73083SOL    HW221089   2.661   4.925   5.710
73084SOL     OW21090  12.478  11.213  12.660
73084SOL    HW121091  12.428  11.132  12.668
73084SOL    HW221092  12.429  11.277  12.713
73085SOL     OW21093  11.567   9.001   3.114
73085SOL    HW121094  11.537   8.929   3.058
73085SOL    HW221095  11.569   9.077   3.055
73086SOL     OW21096   1.302   6.152  13.251
73086SOL    HW121097   1.382   6.157  13.304
73086SOL    HW221098   1.268   6.065  13.267
73087SOL     OW21099   4.940   5.844   7.302
73087SOL    HW121100   4.947   5.772   7.364
73087SOL    HW221101   4.925   5.801   7.217
73088SOL     OW21102  13.626   9.149   9.040
73088SOL    HW121103  13.643   9.205   9.116
73088SOL    HW221104  13.675   9.190   8.969
73089SOL     OW21105   9.744   3.129   6.664
73089SOL    HW121106   9.737   3.057   6.726
73089SOL    HW221107   9.750   3.086   6.578
73090SOL     OW21108  10.505   9.445   9.221
73090SOL    HW121109  10.554   9.503   9.164
73090SOL    HW221110  10.459   9.504   9.281
73091SOL     OW21111  14.199   1.993   6.983
73091SOL    HW121112  14.183   1.899   6.990
73091SOL    HW221113  14.216   2.021   7.073
73092SOL     OW21114   2.060   8.060  10.267
73092SOL    HW121115   2.096   7.989  10.322
73092SOL    HW221116   2.129   8.080  10.205
73093SOL     OW21117   1.521   6.667   9.267
73093SOL    HW121118   1.488   6.755   9.251
73093SOL    HW221119   1.446   6.610   9.251
73094SOL     OW21120   5.016   7.931   7.805
73094SOL    HW121121   5.006   7.973   7.719
73094SOL    HW221122   5.027   8.004   7.866
73095SOL     OW21123   6.474   2.044   6.494
73095SOL    HW121124   6.410   2.115   6.488
73095SOL    HW221125   6.532   2.058   6.419
73096SOL     OW21126   1.813   4.512  14.360
73096SOL    HW121127   1.902   4.491  14.387
73096SOL    HW221128   1.757   4.468  14.424
73097SOL     OW21129   5.444   6.980  14.815
73097SOL    HW121130   5.414   7.050  14.874
73097SOL    HW221131   5.383   6.908  14.831
73098SOL     OW21132   3.927  14.751  12.626
73098SOL    HW121133   3.943  14.746  12.720
73098SOL    HW221134   4.001  14.705  12.587
73099SOL     OW21135   3.121  13.702   0.076
73099SOL    HW121136   3.125  13.659   0.161
73099SOL    HW221137   3.137  13.795   0.095
73100SOL     OW21138  14.874  14.688   9.730
73100SOL    HW121139   0.002  14.603   9.688
73100SOL    HW221140  14.872  14.751   9.658
73101SOL     OW21141   6.744  12.215   7.791
73101SOL    HW121142   6.720  12.215   7.884
73101SOL    HW221143   6.677  12.270   7.750
73102SOL     OW21144   1.825   7.408   6.277
73102SOL    HW121145   1.877   7.462   6.338
73102SOL    HW221146   1.834   7.453   6.193
73103SOL     OW21147   6.889   0.547   4.831
73103SOL    HW121148   6.841   0.465   4.823
73103SOL    HW221149   6.852   0.589   4.909
73104SOL     OW21150   4.675  13.440   1.357
73104SOL    HW121151   4.689  13.405   1.269
73104SOL    HW221152   4.582  13.428   1.373
73105SOL     OW21153  13.630   9.908   3.573
73105SOL    HW121154  13.639   9.878   3.664
73105SOL    HW221155  13.668   9.838   3.520
73106SOL     OW21156  14.087  11.444   8.007
73106SOL    HW121157  14.047  11.363   8.039
73106SOL    HW221158  14.033  11.514   8.044
73107SOL     OW21159   6.128  13.643   9.701
73107SOL    HW121160   6.121  13.685   9.615
73107SOL    HW221161   6.044  13.659   9.743
73108SOL     OW21162  11.349  11.383  12.110
73108SOL    HW121163  11.346  11.451  12.042
73108SOL    HW221164  11.318  11.304  12.066
73109SOL     OW21165   8.048  14.522  14.234
73109SOL    HW121166   8.058  14.557  14.145
73109SOL    HW221167   8.131  14.477  14.251
73110SOL     OW21168   0.496  14.457   8.303
73110SOL    HW121169   0.443  14.396   8.356
73110SOL    HW221170   0.537  14.514   8.368
73111SOL     OW21171   1.100   7.166  13.658
73111SOL    HW121172   1.117   7.251  13.697
73111SOL    HW221173   1.026   7.131  13.709
73112SOL     OW21174   7.768   2.453  14.040
73112SOL    HW121175   7.724   2.368  14.042
73112SOL    HW221176   7.738   2.498  14.119
73113SOL     OW21177  11.707   7.870   4.674
73113SOL    HW121178  11.778   7.828   4.627
73113SOL    HW221179  11.713   7.963   4.650
73114SOL     OW21180  12.332  13.317   0.976
73114SOL    HW121181  12.348  13.257   1.049
73114SOL    HW221182  12.296  13.261   0.907
73115SOL     OW21183   1.321   6.536   4.056
73115SOL    HW121184   1.345   6.616   4.102
73115SOL    HW221185   1.404   6.492   4.039
73116SOL     OW21186  14.617   0.275  12.115
73116SOL    HW121187  14.657   0.351  12.156
73116SOL    HW221188  14.663   0.200  12.153
73117SOL     OW21189   6.916  13.726   0.060
73117SOL    HW121190   6.996  13.690   0.022
73117SOL    HW221191   6.918  13.819   0.037
73118SOL     OW21192   6.300   4.062  14.491
73118SOL    HW121193   6.328   3.972  14.475
73118SOL    HW221194   6.239   4.081  14.421
73119SOL     OW21195   7.297   4.921   2.224
73119SOL    HW121196   7.270   4.829   2.224
73119SOL    HW221197   7.214   4.970   2.224
73120SOL     OW21198   2.424  11.412   4.078
73120SOL    HW121199   2.436  11.484   4.141
73120SOL    HW221200   2.468  11.443   3.999
73121SOL     OW21201   6.013  13.512  11.630
73121SOL    HW121202   6.010  13.515  11.725
73121SOL    HW221203   6.070  13.437  11.610
73122SOL     OW21204  14.238  10.895  12.130
73122SOL    HW121205  14.289  10.881  12.050
73122SOL    HW221206  14.252  10.816  12.182
73123SOL     OW21207   9.283   7.548  10.128
73123SOL    HW121208   9.225   7.612  10.087
73123SOL    HW221209   9.232   7.467  10.131
73124SOL     OW21210   6.028  10.178   4.504
73124SOL    HW121211   6.029  10.250   4.566
73124SOL    HW221212   6.105  10.125   4.527
73125SOL     OW21213   9.939   0.379  11.637
73125SOL    HW121214   9.904   0.299  11.597
73125SOL    HW221215   9.930   0.446  11.568
73126SOL     OW21216  11.662   7.995   8.615
73126SOL    HW121217  11.684   8.076   8.568
73126SOL    HW221218  11.594   8.022   8.677
73127SOL     OW21219   1.072   5.906   3.280
73127SOL    HW121220   1.092   5.998   3.300
73127SOL    HW221221   0.981   5.895   3.308
73128SOL     OW21222  11.124   1.486   4.364
73128SOL    HW121223  11.183   1.521   4.430
73128SOL    HW221224  11.068   1.424   4.411
73129SOL     OW21225   1.560  10.413   0.457
73129SOL    HW121226   1.478  10.396   0.410
73129SOL    HW221227   1.586  10.327   0.491
73130SOL     OW21228   7.130   3.780   9.183
73130SOL    HW121229   7.153   3.864   9.223
73130SOL    HW221230   7.097   3.802   9.096
73131SOL     OW21231   3.554   0.308  11.199
73131SOL    HW121232   3.593   0.221  11.187
73131SOL    HW221233   3.551   0.345  11.111
73132SOL     OW21234   5.268  14.225  13.221
73132SOL    HW121235   5.269  14.135  13.255
73132SOL    HW221236   5.353  14.261  13.245
73133SOL     OW21237   4.607   5.214   3.578
73133SOL    HW121238   4.532   5.274   3.585
73133SOL    HW221239   4.576   5.142   3.523
73134SOL     OW21240   2.667   8.169   1.910
73134SOL    HW121241   2.713   8.186   1.828
73134SOL    HW221242   2.644   8.076   1.905
73135SOL     OW21243  10.336   8.534   6.821
73135SOL    HW121244  10.285   8.614   6.814
73135SOL    HW221245  10.425   8.563   6.843
73136SOL     OW21246   8.675  13.938   6.344
73136SOL    HW121247   8.633  14.023   6.351
73136SOL    HW221248   8.691  13.911   6.435
73137SOL     OW21249   4.362   3.526   4.765
73137SOL    HW121250   4.393   3.616   4.769
73137SOL    HW221251   4.335   3.506   4.855
73138SOL     OW21252   0.132   6.360   0.388
73138SOL    HW121253   0.179   6.393   0.465
73138SOL    HW221254   0.160   6.417   0.316
73139SOL     OW21255  13.369  10.055   3.164
73139SOL    HW121256  13.400   9.978   3.116
73139SOL    HW221257  13.377  10.031   3.256
73140SOL     OW21258   4.442  12.459  10.914
73140SOL    HW121259   4.488  12.375  10.903
73140SOL    HW221260   4.352  12.434  10.935
73141SOL     OW21261   0.464   2.620   7.335
73141SOL    HW121262   0.384   2.591   7.290
73141SOL    HW221263   0.514   2.540   7.348
73142SOL     OW21264  11.601   3.426   0.104
73142SOL    HW121265  11.557   3.386   0.029
73142SOL    HW221266  11.638   3.352   0.152
73143SOL     OW21267   5.833   1.381  12.216
73143SOL    HW121268   5.753   1.377  12.268
73143SOL    HW221269   5.810   1.337  12.134
73144SOL     OW21270   2.404   6.284   5.226
73144SOL    HW121271   2.467   6.254   5.160
73144SOL    HW221272   2.372   6.203   5.266
73145SOL     OW21273  10.174   3.325   6.002
73145SOL    HW121274  10.179   3.229   5.997
73145SOL    HW221275  10.198   3.346   6.092
73146SOL     OW21276   2.454   6.945   7.286
73146SOL    HW121277   2.412   6.989   7.360
73146SOL    HW221278   2.381   6.910   7.234
73147SOL     OW21279   3.522   1.354  14.658
73147SOL    HW121280   3.572   1.288  14.705
73147SOL    HW221281   3.587   1.405  14.610
73148SOL     OW21282   4.622  14.474   4.411
73148SOL    HW121283   4.645  14.426   4.491
73148SOL    HW221284   4.629  14.566   4.435
73149SOL     OW21285   1.175   5.127  12.586
73149SOL    HW121286   1.221   5.126  12.501
73149SOL    HW221287   1.183   5.217  12.617
73150SOL     OW21288   1.266   6.167  10.015
73150SOL    HW121289   1.299   6.257  10.011
73150SOL    HW221290   1.290   6.136  10.102
73151SOL     OW21291   1.550   7.383   4.101
73151SOL    HW121292   1.585   7.385   4.190
73151SOL    HW221293   1.626   7.362   4.046
73152SOL     OW21294   2.499   8.206  10.298
73152SOL    HW121295   2.526   8.207  10.206
73152SOL    HW221296   2.480   8.298  10.319
73153SOL     OW21297  10.975   7.169  11.165
73153SOL    HW121298  10.954   7.221  11.087
73153SOL    HW221299  11.068   7.149  11.155
73154SOL     OW21300   5.267   0.986   1.392
73154SOL    HW121301   5.310   0.941   1.319
73154SOL    HW221302   5.188   1.023   1.353
73155SOL     OW21303   4.110  14.806   0.944
73155SOL    HW121304   4.065  14.738   0.994
73155SOL    HW221305   4.197  14.771   0.928
73156SOL     OW21306   3.746   5.198   4.699
73156SOL    HW121307   3.781   5.273   4.651
73156SOL    HW221308   3.651   5.203   4.685
73157SOL     OW21309   7.697   6.093   7.556
73157SOL    HW121310   7.750   6.014   7.563
73157SOL    HW221311   7.639   6.090   7.632
73158SOL     OW21312   8.391   6.604   3.069
73158SOL    HW121313   8.307   6.608   3.114
73158SOL    HW221314   8.429   6.691   3.083
73159SOL     OW21315   4.791  14.050   5.990
73159SOL    HW121316   4.798  13.963   5.949
73159SOL    HW221317   4.836  14.109   5.929
73160SOL     OW21318   3.947   8.154   8.183
73160SOL    HW121319   3.860   8.192   8.178
73160SOL    HW221320   3.946   8.101   8.262
73161SOL     OW21321  11.454  13.192   8.812
73161SOL    HW121322  11.366  13.157   8.826
73161SOL    HW221323  11.440  13.279   8.777
73162SOL     OW21324   5.725   0.196   9.635
73162SOL    HW121325   5.820   0.193   9.623
73162SOL    HW221326   5.696   0.105   9.626
73163SOL     OW21327   8.266   1.864   5.435
73163SOL    HW121328   8.213   1.944   5.433
73163SOL    HW221329   8.312   1.864   5.351
73164SOL     OW21330  13.428   6.592  12.927
73164SOL    HW121331  13.375   6.617  13.002
73164SOL    HW221332  13.417   6.663  12.864
73165SOL     OW21333   1.352   3.823   6.493
73165SOL    HW121334   1.447   3.835   6.494
73165SOL    HW221335   1.328   3.808   6.585
73166SOL     OW21336  14.443   8.344   3.792
73166SOL    HW121337  14.443   8.379   3.882
73166SOL    HW221338  14.434   8.421   3.737
73167SOL     OW21339  11.071  11.137  14.749
73167SOL    HW121340  10.982  11.107  14.765
73167SOL    HW221341  11.062  11.228  14.722
73168SOL     OW21342   6.325  12.068  12.230
73168SOL    HW121343   6.235  12.049  12.205
73168SOL    HW221344   6.318  12.119  12.310
73169SOL     OW21345   9.363   6.405   2.095
73169SOL    HW121346   9.442   6.351   2.087
73169SOL    HW221347   9.327   6.407   2.006
73170SOL     OW21348   6.491   5.499   6.919
73170SOL    HW121349   6.566   5.536   6.873
73170SOL    HW221350   6.525   5.476   7.005
73171SOL     OW21351   2.302   9.733   5.904
73171SOL    HW121352   2.343   9.676   5.969
73171SOL    HW221353   2.237   9.782   5.955
73172SOL     OW21354  11.434  13.654   8.403
73172SOL    HW121355  11.404  13.736   8.362
73172SOL    HW221356  11.401  13.659   8.493
73173SOL     OW21357   0.597  13.777   2.330
73173SOL    HW121358   0.656  13.810   2.262
73173SOL    HW221359   0.592  13.848   2.394
73174SOL     OW21360   4.291   7.302   5.034
73174SOL    HW121361   4.351   7.376   5.045
73174SOL    HW221362   4.301   7.251   5.114
73175SOL     OW21363   1.681   9.745  12.256
73175SOL    HW121364   1.649   9.663  12.293
73175SOL    HW221365   1.775   9.744  12.273
73176SOL     OW21366   9.226  11.002   2.750
73176SOL    HW121367   9.227  11.081   2.697
73176SOL    HW221368   9.133  10.976   2.752
73177SOL     OW21369  13.738   6.213  12.920
73177SOL    HW121370  13.821   6.224  12.874
73177SOL    HW221371  13.701   6.301  12.924
73178SOL     OW21372  10.961   8.984  10.751
73178SOL    HW121373  10.898   8.941  10.694
73178SOL    HW221374  11.011   8.912  10.789
73179SOL     OW21375   8.648   5.044  11.873
73179SOL    HW121376   8.690   5.093  11.944
73179SOL    HW221377   8.555   5.061  11.884
73180SOL     OW21378   9.390   7.622   3.639
73180SOL    HW121379   9.395   7.554   3.705
73180SOL    HW221380   9.396   7.575   3.555
73181SOL     OW21381   4.008   5.306  12.626
73181SOL    HW121382   4.063   5.336  12.553
73181SOL    HW221383   4.046   5.223  12.652
73182SOL     OW21384  10.871   1.292   8.985
73182SOL    HW121385  10.814   1.326   8.916
73182SOL    HW221386  10.813   1.284   9.061
73183SOL     OW21387  14.829  14.440   2.785
73183SOL    HW121388  14.817  14.491   2.865
73183SOL    HW221389  14.869  14.358   2.815
73184SOL     OW21390  13.131   8.029   1.177
73184SOL    HW121391  13.129   7.940   1.142
73184SOL    HW221392  13.224   8.053   1.176
73185SOL     OW21393  14.638  11.817   1.369
73185SOL    HW121394  14.706  11.799   1.434
73185SOL    HW221395  14.637  11.740   1.312
73186SOL     OW21396  10.621   5.471   5.681
73186SOL    HW121397  10.647   5.563   5.692
73186SOL    HW221398  10.532   5.466   5.715
73187SOL     OW21399   2.399   3.630  11.420
73187SOL    HW121400   2.389   3.562  11.487
73187SOL    HW221401   2.481   3.609  11.376
73188SOL     OW21402  10.157   9.573   1.316
73188SOL    HW121403  10.190   9.497   1.364
73188SOL    HW221404  10.068   9.586   1.350
73189SOL     OW21405  13.722  12.090   7.305
73189SOL    HW121406  13.653  12.064   7.367
73189SOL    HW221407  13.790  12.025   7.317
73190SOL     OW21408   1.135   4.673   3.060
73190SOL    HW121409   1.133   4.578   3.052
73190SOL    HW221410   1.226   4.694   3.081
73191SOL     OW21411   0.675   7.562   5.230
73191SOL    HW121412   0.761   7.557   5.271
73191SOL    HW221413   0.656   7.656   5.225
73192SOL     OW21414   0.278   0.461  14.564
73192SOL    HW121415   0.360   0.414  14.554
73192SOL    HW221416   0.235   0.451  14.479
73193SOL     OW21417   0.453   9.327  10.245
73193SOL    HW121418   0.407   9.366  10.319
73193SOL    HW221419   0.513   9.263  10.285
73194SOL     OW21420  13.474  13.765   0.265
73194SOL    HW121421  13.429  13.794   0.344
73194SOL    HW221422  13.433  13.814   0.194
73195SOL     OW21423   5.767  10.141  11.375
73195SOL    HW121424   5.759  10.124  11.281
73195SOL    HW221425   5.819  10.221  11.380
73196SOL     OW21426   5.496   5.024   9.637
73196SOL    HW121427   5.578   5.009   9.591
73196SOL    HW221428   5.442   4.948   9.617
73197SOL     OW21429   2.105   5.893   8.562
73197SOL    HW121430   2.118   5.942   8.644
73197SOL    HW221431   2.137   5.804   8.583
73198SOL     OW21432  12.792   8.998  12.235
73198SOL    HW121433  12.697   8.994  12.237
73198SOL    HW221434  12.814   8.994  12.142
73199SOL     OW21435  10.885   8.459  12.694
73199SOL    HW121436  10.831   8.437  12.770
73199SOL    HW221437  10.845   8.412  12.621
73200SOL     OW21438   2.336   1.943   6.206
73200SOL    HW121439   2.272   1.909   6.268
73200SOL    HW221440   2.296   1.931   6.120
73201SOL     OW21441   0.638   7.151   1.213
73201SOL    HW121442   0.619   7.099   1.135
73201SOL    HW221443   0.566   7.215   1.217
73202SOL     OW21444   6.699  10.330   5.862
73202SOL    HW121445   6.713  10.304   5.771
73202SOL    HW221446   6.605  10.318   5.877
73203SOL     OW21447   4.296   3.423   6.072
73203SOL    HW121448   4.307   3.490   6.004
73203SOL    HW221449   4.328   3.465   6.152
73204SOL     OW21450   1.424   8.610   7.279
73204SOL    HW121451   1.383   8.605   7.365
73204SOL    HW221452   1.423   8.703   7.256
73205SOL     OW21453   4.020  12.695  11.528
73205SOL    HW121454   4.019  12.639  11.450
73205SOL    HW221455   4.111  12.695  11.556
73206SOL     OW21456  13.151  12.338  11.674
73206SOL    HW121457  13.136  12.267  11.613
73206SOL    HW221458  13.160  12.416  11.619
73207SOL     OW21459   0.116   0.248   2.404
73207SOL    HW121460   0.196   0.197   2.395
73207SOL    HW221461   0.140   0.336   2.375
73208SOL     OW21462   8.896   2.729  10.253
73208SOL    HW121463   8.877   2.650  10.303
73208SOL    HW221464   8.849   2.718  10.170
73209SOL     OW21465  11.084   4.772  11.670
73209SOL    HW121466  11.131   4.755  11.751
73209SOL    HW221467  10.994   4.744  11.688
73210SOL     OW21468   6.054   9.795   0.072
73210SOL    HW121469   6.013   9.712   0.094
73210SOL    HW221470   6.027   9.854   0.143
73211SOL     OW21471  10.728   2.926   8.271
73211SOL    HW121472  10.808   2.898   8.225
73211SOL    HW221473  10.752   2.923   8.364
73212SOL     OW21474  13.885  11.640   2.296
73212SOL    HW121475  13.928  11.720   2.265
73212SOL    HW221476  13.800  11.640   2.252
73213SOL     OW21477  13.811   0.439   5.142
73213SOL    HW121478  13.863   0.361   5.122
73213SOL    HW221479  13.851   0.509   5.092
73214SOL     OW21480   7.142   0.026   2.021
73214SOL    HW121481   7.226   0.063   1.996
73214SOL    HW221482   7.152  14.814   2.006
73215SOL     OW21483   9.010   5.298   3.461
73215SOL    HW121484   9.065   5.274   3.387
73215SOL    HW221485   9.056   5.372   3.502
73216SOL     OW21486   6.358  12.245   8.423
73216SOL    HW121487   6.369  12.340   8.430
73216SOL    HW221488   6.316  12.220   8.506
73217SOL     OW21489   1.670  14.702  10.963
73217SOL    HW121490   1.725  14.631  10.997
73217SOL    HW221491   1.589  14.658  10.935
73218SOL     OW21492   0.042   1.481   8.430
73218SOL    HW121493   0.109   1.546   8.452
73218SOL    HW221494  14.866   1.527   8.369
73219SOL     OW21495  11.248   3.734  14.873
73219SOL    HW121496  11.217   3.671  14.807
73219SOL    HW221497  11.319   3.780  14.829
73220SOL     OW21498   9.670   8.893   2.040
73220SOL    HW121499   9.612   8.896   2.117
73220SOL    HW221500   9.754   8.864   2.075
73221SOL     OW21501   6.435  13.096  14.672
73221SOL    HW121502   6.401  13.010  14.648
73221SOL    HW221503   6.387  13.120  14.751
73222SOL     OW21504   3.835   2.330   1.650
73222SOL    HW121505   3.757   2.348   1.597
73222SOL    HW221506   3.858   2.415   1.688
73223SOL     OW21507  14.124   4.139  10.163
73223SOL    HW121508  14.127   4.193  10.242
73223SOL    HW221509  14.066   4.067  10.186
73224SOL     OW21510  12.750   0.437   0.212
73224SOL    HW121511  12.806   0.366   0.182
73224SOL    HW221512  12.735   0.491   0.133
73225SOL     OW21513   5.288   8.617   3.023
73225SOL    HW121514   5.235   8.647   3.097
73225SOL    HW221515   5.373   8.595   3.062
73226SOL     OW21516   6.790  14.812   5.869
73226SOL    HW121517   6.723  14.745   5.880
73226SOL    HW221518   6.851  14.797   5.941
73227SOL     OW21519   0.020   3.329  10.432
73227SOL    HW121520   0.107   3.361  10.457
73227SOL    HW221521   0.013   3.347  10.339
73228SOL     OW21522   9.746   3.776   4.998
73228SOL    HW121523   9.653   3.776   4.973
73228SOL    HW221524   9.748   3.817   5.084
73229SOL     OW21525   1.365  11.412   3.355
73229SOL    HW121526   1.385  11.370   3.271
73229SOL    HW221527   1.449  11.413   3.401
73230SOL     OW21528  13.461  10.866   6.632
73230SOL    HW121529  13.550  10.839   6.610
73230SOL    HW221530  13.434  10.921   6.559
73231SOL     OW21531   5.136   2.447  14.114
73231SOL    HW121532   5.195   2.522  14.109
73231SOL    HW221533   5.125   2.419  14.023
73232SOL     OW21534   8.776  10.842   5.613
73232SOL    HW121535   8.850  10.784   5.600
73232SOL    HW221536   8.753  10.832   5.705
73233SOL     OW21537   4.916   9.587   4.521
73233SOL    HW121538   4.895   9.515   4.581
73233SOL    HW221539   5.012   9.591   4.521
73234SOL     OW21540   2.959   6.257   8.295
73234SOL    HW121541   2.927   6.219   8.213
73234SOL    HW221542   2.879   6.275   8.345
73235SOL     OW21543   6.052   8.830   2.432
73235SOL    HW121544   6.031   8.813   2.340
73235SOL    HW221545   6.000   8.766   2.481
73236SOL     OW21546  14.452  11.354  14.660
73236SOL    HW121547  14.514  11.319  14.597
73236SOL    HW221548  14.405  11.423  14.611
73237SOL     OW21549   1.887   2.321   3.933
73237SOL    HW121550   1.797   2.319   3.901
73237SOL    HW221551   1.940   2.338   3.855
73238SOL     OW21552   0.264   8.864  14.048
73238SOL    HW121553   0.198   8.827  14.107
73238SOL    HW221554   0.328   8.906  14.105
73239SOL     OW21555   0.653   2.256   1.281
73239SOL    HW121556   0.628   2.277   1.192
73239SOL    HW221557   0.646   2.339   1.329
73240SOL     OW21558   3.084   8.568   0.352
73240SOL    HW121559   3.098   8.635   0.284
73240SOL    HW221560   3.012   8.515   0.317
73241SOL     OW21561   5.136   5.295   0.361
73241SOL    HW121562   5.198   5.330   0.297
73241SOL    HW221563   5.053   5.291   0.314
73242SOL     OW21564  12.361  10.143  11.927
73242SOL    HW121565  12.297  10.182  11.986
73242SOL    HW221566  12.425  10.211  11.912
73243SOL     OW21567   5.850   9.017  10.527
73243SOL    HW121568   5.794   8.939  10.518
73243SOL    HW221569   5.854   9.033  10.622
73244SOL     OW21570   5.103   7.407  10.515
73244SOL    HW121571   5.016   7.444  10.531
73244SOL    HW221572   5.163   7.474  10.548
73245SOL     OW21573   0.210   1.605   9.751
73245SOL    HW121574   0.156   1.656   9.812
73245SOL    HW221575   0.298   1.643   9.760
73246SOL     OW21576   8.455   6.080   3.167
73246SOL    HW121577   8.420   6.148   3.224
73246SOL    HW221578   8.541   6.113   3.140
73247SOL     OW21579   2.976   8.518   8.935
73247SOL    HW121580   2.894   8.543   8.977
73247SOL    HW221581   3.016   8.600   8.907
73248SOL     OW21582   9.104   8.596  11.884
73248SOL    HW121583   9.194   8.618  11.861
73248SOL    HW221584   9.112   8.529  11.952
73249SOL     OW21585   5.664   3.606   1.616
73249SOL    HW121586   5.656   3.695   1.651
73249SOL    HW221587   5.718   3.560   1.681
73250SOL     OW21588   2.783   3.407   5.979
73250SOL    HW121589   2.721   3.336   5.999
73250SOL    HW221590   2.869   3.369   6.000
73251SOL     OW21591   7.368  12.556   1.134
73251SOL    HW121592   7.364  12.647   1.105
73251SOL    HW221593   7.462  12.535   1.135
73252SOL     OW21594   4.724   9.176  13.915
73252SOL    HW121595   4.677   9.259  13.909
73252SOL    HW221596   4.731   9.145  13.824
73253SOL     OW21597  12.321   2.179  10.997
73253SOL    HW121598  12.232   2.155  11.023
73253SOL    HW221599  12.332   2.268  11.030
73254SOL     OW21600   2.627   5.734   3.092
73254SOL    HW121601   2.542   5.754   3.051
73254SOL    HW221602   2.686   5.800   3.057
73255SOL     OW21603   1.020   2.160   6.550
73255SOL    HW121604   0.962   2.208   6.491
73255SOL    HW221605   1.049   2.226   6.613
73256SOL     OW21606   7.296   8.596  10.219
73256SOL    HW121607   7.374   8.561  10.176
73256SOL    HW221608   7.274   8.530  10.285
73257SOL     OW21609   0.638  14.033   2.444
73257SOL    HW121610   0.708  14.004   2.503
73257SOL    HW221611   0.682  14.087   2.378
73258SOL     OW21612   4.551   7.650   9.853
73258SOL    HW121613   4.575   7.663   9.762
73258SOL    HW221614   4.462   7.686   9.860
73259SOL     OW21615   7.960  13.809  14.626
73259SOL    HW121616   7.924  13.893  14.657
73259SOL    HW221617   8.013  13.833  14.550
73260SOL     OW21618   9.514   3.582  12.950
73260SOL    HW121619   9.494   3.676  12.954
73260SOL    HW221620   9.535   3.558  13.041
73261SOL     OW21621   3.920   8.999   5.687
73261SOL    HW121622   3.942   9.092   5.678
73261SOL    HW221623   4.003   8.956   5.707
73262SOL     OW21624  13.136  14.260   1.873
73262SOL    HW121625  13.069  14.329   1.881
73262SOL    HW221626  13.112  14.196   1.940
73263SOL     OW21627   3.124   8.253   2.246
73263SOL    HW121628   3.092   8.164   2.234
73263SOL    HW221629   3.072   8.306   2.185
73264SOL     OW21630  11.475   0.869   9.171
73264SOL    HW121631  11.447   0.862   9.080
73264SOL    HW221632  11.393   0.875   9.220
73265SOL     OW21633   8.247   8.302   0.829
73265SOL    HW121634   8.243   8.302   0.734
73265SOL    HW221635   8.211   8.387   0.855
73266SOL     OW21636   4.258  10.105  14.725
73266SOL    HW121637   4.329  10.043  14.710
73266SOL    HW221638   4.179  10.058  14.696
73267SOL     OW21639   8.628  11.625   4.676
73267SOL    HW121640   8.599  11.593   4.761
73267SOL    HW221641   8.550  11.661   4.636
73268SOL     OW21642   3.810   1.414  10.152
73268SOL    HW121643   3.816   1.321  10.176
73268SOL    HW221644   3.824   1.461  10.234
73269SOL     OW21645   7.458   2.261  14.386
73269SOL    HW121646   7.447   2.356  14.374
73269SOL    HW221647   7.394   2.222  14.327
73270SOL     OW21648   7.578   7.756  14.123
73270SOL    HW121649   7.491   7.757  14.084
73270SOL    HW221650   7.630   7.815  14.069
73271SOL     OW21651  10.132  13.401  13.350
73271SOL    HW121652  10.184  13.414  13.271
73271SOL    HW221653  10.178  13.452  13.418
73272SOL     OW21654   1.371   2.395  13.014
73272SOL    HW121655   1.296   2.422  12.960
73272SOL    HW221656   1.345   2.311  13.050
73273SOL     OW21657  10.649   5.080   1.073
73273SOL    HW121658  10.646   5.132   0.993
73273SOL    HW221659  10.565   5.096   1.116
73274SOL     OW21660  14.801   9.199  13.657
73274SOL    HW121661  14.855   9.178  13.581
73274SOL    HW221662  14.760   9.283  13.634
73275SOL     OW21663   1.466   0.983   3.231
73275SOL    HW121664   1.379   1.020   3.220
73275SOL    HW221665   1.512   1.006   3.150
73276SOL     OW21666   4.768   9.741  10.785
73276SOL    HW121667   4.800   9.656  10.755
73276SOL    HW221668   4.717   9.722  10.863
73277SOL     OW21669   1.466   4.373   0.235
73277SOL    HW121670   1.446   4.385   0.328
73277SOL    HW221671   1.464   4.278   0.222
73278SOL     OW21672   5.814   7.503   7.069
73278SOL    HW121673   5.759   7.464   7.002
73278SOL    HW221674   5.818   7.437   7.139
73279SOL     OW21675  10.355  11.445   8.071
73279SOL    HW121676  10.444  11.427   8.104
73279SOL    HW221677  10.303  11.371   8.104
73280SOL     OW21678   6.421   1.929   3.340
73280SOL    HW121679   6.489   1.864   3.360
73280SOL    HW221680   6.449   1.969   3.258
73281SOL     OW21681   8.171  11.368  12.769
73281SOL    HW121682   8.239  11.368  12.701
73281SOL    HW221683   8.220  11.370  12.851
73282SOL     OW21684  11.871   4.989  14.092
73282SOL    HW121685  11.906   5.061  14.038
73282SOL    HW221686  11.843   4.923  14.029
73283SOL     OW21687   6.316   0.647   6.391
73283SOL    HW121688   6.396   0.600   6.416
73283SOL    HW221689   6.245   0.585   6.407
73284SOL     OW21690  14.404   2.953   8.799
73284SOL    HW121691  14.318   2.932   8.763
73284SOL    HW221692  14.401   2.919   8.889
73285SOL     OW21693  13.801  13.042   2.778
73285SOL    HW121694  13.747  12.963   2.774
73285SOL    HW221695  13.887  13.013   2.750
73286SOL     OW21696   0.956   2.965  12.638
73286SOL    HW121697   0.865   2.944  12.617
73286SOL    HW221698   0.999   2.976  12.553
73287SOL     OW21699  10.678   0.271   9.239
73287SOL    HW121700  10.713   0.268   9.328
73287SOL    HW221701  10.681   0.180   9.209
73288SOL     OW21702   9.169   9.008  10.119
73288SOL    HW121703   9.138   8.945  10.183
73288SOL    HW221704   9.236   9.059  10.165
73289SOL     OW21705  13.052   3.198  12.584
73289SOL    HW121706  13.113   3.254  12.536
73289SOL    HW221707  13.082   3.201  12.674
73290SOL     OW21708   3.388  13.039  10.350
73290SOL    HW121709   3.410  12.957  10.307
73290SOL    HW221710   3.319  13.077  10.297
73291SOL     OW21711   1.782  14.868  11.788
73291SOL    HW121712   1.836   0.064  11.801
73291SOL    HW221713   1.740  14.882  11.703
73292SOL     OW21714   0.510  12.945   3.772
73292SOL    HW121715   0.471  13.030   3.794
73292SOL    HW221716   0.562  12.921   3.849
73293SOL     OW21717   6.471   9.912   7.017
73293SOL    HW121718   6.554   9.875   7.046
73293SOL    HW221719   6.426   9.937   7.098
73294SOL     OW21720  14.579   2.666  12.836
73294SOL    HW121721  14.561   2.625  12.752
73294SOL    HW221722  14.650   2.615  12.874
73295SOL     OW21723   0.419   0.381   7.094
73295SOL    HW121724   0.331   0.414   7.077
73295SOL    HW221725   0.477   0.455   7.076
73296SOL     OW21726   9.645   2.642  11.021
73296SOL    HW121727   9.611   2.684  10.943
73296SOL    HW221728   9.722   2.694  11.044
73297SOL     OW21729   0.017   3.233  12.005
73297SOL    HW121730   0.008   3.140  12.027
73297SOL    HW221731   0.093   3.263  12.056
73298SOL     OW21732   0.098  12.912  11.656
73298SOL    HW121733   0.016  12.869  11.680
73298SOL    HW221734   0.091  13.000  11.694
73299SOL     OW21735   9.239   5.379   9.589
73299SOL    HW121736   9.238   5.418   9.502
73299SOL    HW221737   9.205   5.448   9.646
73300SOL     OW21738   2.071   7.303   8.881
73300SOL    HW121739   2.159   7.293   8.845
73300SOL    HW221740   2.012   7.288   8.807
73301SOL     OW21741   9.264   0.464   4.452
73301SOL    HW121742   9.345   0.424   4.485
73301SOL    HW221743   9.238   0.408   4.379
73302SOL     OW21744   5.917   4.310  13.344
73302SOL    HW121745   5.855   4.242  13.319
73302SOL    HW221746   5.936   4.292  13.436
73303SOL     OW21747   1.448   6.814   2.552
73303SOL    HW121748   1.454   6.864   2.471
73303SOL    HW221749   1.465   6.878   2.621
73304SOL     OW21750   8.821   4.853   3.704
73304SOL    HW121751   8.862   4.930   3.664
73304SOL    HW221752   8.749   4.830   3.645
73305SOL     OW21753   4.750  13.586   7.685
73305SOL    HW121754   4.834  13.595   7.640
73305SOL    HW221755   4.723  13.676   7.704
73306SOL     OW21756   8.323   3.965   2.744
73306SOL    HW121757   8.297   4.035   2.683
73306SOL    HW221758   8.366   4.011   2.816
73307SOL     OW21759   5.140  10.029   0.314
73307SOL    HW121760   5.061  10.082   0.326
73307SOL    HW221761   5.110   9.955   0.261
73308SOL     OW21762   7.971  10.459   2.060
73308SOL    HW121763   7.945  10.426   2.146
73308SOL    HW221764   7.904  10.426   2.000
73309SOL     OW21765   4.782   5.468   4.375
73309SOL    HW121766   4.857   5.451   4.319
73309SOL    HW221767   4.741   5.383   4.388
73310SOL     OW21768  13.407   4.079   1.142
73310SOL    HW121769  13.435   3.988   1.151
73310SOL    HW221770  13.313   4.074   1.123
73311SOL     OW21771   2.716   7.589  10.627
73311SOL    HW121772   2.767   7.657  10.584
73311SOL    HW221773   2.760   7.576  10.711
73312SOL     OW21774   2.078   4.099   3.047
73312SOL    HW121775   2.064   4.024   3.105
73312SOL    HW221776   2.069   4.175   3.105
73313SOL     OW21777  11.054   5.912  13.280
73313SOL    HW121778  10.973   5.949  13.313
73313SOL    HW221779  11.102   5.986  13.244
73314SOL     OW21780  14.807   5.050   4.429
73314SOL    HW121781   0.019   5.051   4.410
73314SOL    HW221782  14.773   4.978   4.376
73315SOL     OW21783   6.501   5.149   0.008
73315SOL    HW121784   6.489   5.112   0.096
73315SOL    HW221785   6.418   5.131  14.845
73316SOL     OW21786   8.044   9.431  11.160
73316SOL    HW121787   7.962   9.474  11.183
73316SOL    HW221788   8.073   9.388  11.240
73317SOL     OW21789   8.624   6.975  13.726
73317SOL    HW121790   8.580   6.958  13.809
73317SOL    HW221791   8.708   7.013  13.752
73318SOL     OW21792  13.499   2.870  10.533
73318SOL    HW121793  13.591   2.898  10.535
73318SOL    HW221794  13.453   2.932  10.589
73319SOL     OW21795   2.846   1.336   4.903
73319SOL    HW121796   2.930   1.362   4.865
73319SOL    HW221797   2.868   1.303   4.990
73320SOL     OW21798  11.676   8.394  12.884
73320SOL    HW121799  11.737   8.350  12.826
73320SOL    HW221800  11.723   8.406  12.966
73321SOL     OW21801   2.198  11.982   7.169
73321SOL    HW121802   2.147  12.036   7.229
73321SOL    HW221803   2.144  11.904   7.154
73322SOL     OW21804   0.335   7.127   6.016
73322SOL    HW121805   0.358   7.211   5.977
73322SOL    HW221806   0.384   7.123   6.098
73323SOL     OW21807  13.070   6.302  12.171
73323SOL    HW121808  13.028   6.218  12.187
73323SOL    HW221809  13.004   6.367  12.196
73324SOL     OW21810   0.397   0.242   4.494
73324SOL    HW121811   0.347   0.273   4.570
73324SOL    HW221812   0.483   0.220   4.530
73325SOL     OW21813  11.802   3.766   5.998
73325SOL    HW121814  11.857   3.834   5.961
73325SOL    HW221815  11.863   3.696   6.022
73326SOL     OW21816   0.808   5.107   1.607
73326SOL    HW121817   0.826   5.199   1.629
73326SOL    HW221818   0.722   5.108   1.566
73327SOL     OW21819  13.153  14.775   0.134
73327SOL    HW121820  13.245  14.752   0.151
73327SOL    HW221821  13.158  14.856   0.083
73328SOL     OW21822   7.193   4.214  11.806
73328SOL    HW121823   7.198   4.180  11.895
73328SOL    HW221824   7.222   4.141  11.751
73329SOL     OW21825   9.951  13.805   7.761
73329SOL    HW121826  10.040  13.806   7.726
73329SOL    HW221827   9.895  13.782   7.687
73330SOL     OW21828  12.024   4.369  13.785
73330SOL    HW121829  11.998   4.431  13.716
73330SOL    HW221830  12.031   4.285  13.740
73331SOL     OW21831  11.951   7.008   4.396
73331SOL    HW121832  11.973   7.099   4.416
73331SOL    HW221833  11.991   6.958   4.467
73332SOL     OW21834   9.198   1.810  11.403
73332SOL    HW121835   9.194   1.736  11.343
73332SOL    HW221836   9.116   1.806  11.453
73333SOL     OW21837   2.381   7.336   3.577
73333SOL    HW121838   2.294   7.300   3.592
73333SOL    HW221839   2.405   7.306   3.489
73334SOL     OW21840  12.583  11.355   4.371
73334SOL    HW121841  12.607  11.262   4.379
73334SOL    HW221842  12.490  11.354   4.349
73335SOL     OW21843   0.342  13.733   2.234
73335SOL    HW121844   0.332  13.681   2.154
73335SOL    HW221845   0.436  13.742   2.245
73336SOL     OW21846   4.727   4.127   4.606
73336SOL    HW121847   4.651   4.127   4.665
73336SOL    HW221848   4.768   4.212   4.620
73337SOL     OW21849  10.021   3.203   9.159
73337SOL    HW121850  10.068   3.154   9.092
73337SOL    HW221851  10.088   3.257   9.201
73338SOL     OW21852   6.275   0.720  14.203
73338SOL    HW121853   6.264   0.696  14.111
73338SOL    HW221854   6.253   0.640  14.251
73339SOL     OW21855   1.645  10.794  10.393
73339SOL    HW121856   1.693  10.720  10.431
73339SOL    HW221857   1.692  10.815  10.312
73340SOL     OW21858   2.921   0.729   5.620
73340SOL    HW121859   2.921   0.796   5.688
73340SOL    HW221860   2.841   0.679   5.635
73341SOL     OW21861  13.689  12.978   3.637
73341SOL    HW121862  13.644  13.058   3.666
73341SOL    HW221863  13.755  12.961   3.705
73342SOL     OW21864   4.842   3.518  14.368
73342SOL    HW121865   4.854   3.427  14.342
73342SOL    HW221866   4.773   3.551  14.311
73343SOL     OW21867  11.794   8.333  14.736
73343SOL    HW121868  11.888   8.322  14.747
73343SOL    HW221869  11.755   8.292  14.813
73344SOL     OW21870   0.901   3.713   1.345
73344SOL    HW121871   0.911   3.728   1.251
73344SOL    HW221872   0.979   3.752   1.384
73345SOL     OW21873   9.327  14.374   0.715
73345SOL    HW121874   9.412  14.329   0.710
73345SOL    HW221875   9.349  14.467   0.718
73346SOL     OW21876   9.340   0.191   7.575
73346SOL    HW121877   9.403   0.256   7.605
73346SOL    HW221878   9.275   0.185   7.645
73347SOL     OW21879  12.402  10.340  14.801
73347SOL    HW121880  12.395  10.247  14.823
73347SOL    HW221881  12.457  10.342  14.723
73348SOL     OW21882   0.823   9.188   3.224
73348SOL    HW121883   0.838   9.275   3.260
73348SOL    HW221884   0.730   9.171   3.240
73349SOL     OW21885  10.727   5.208   6.201
73349SOL    HW121886  10.750   5.228   6.110
73349SOL    HW221887  10.639   5.171   6.197
73350SOL     OW21888   0.129   4.225  10.102
73350SOL    HW121889   0.044   4.269  10.094
73350SOL    HW221890   0.107   4.134  10.125
73351SOL     OW21891  12.056   0.691  13.825
73351SOL    HW121892  11.987   0.718  13.886
73351SOL    HW221893  12.008   0.648  13.753
73352SOL     OW21894  10.648   1.778  12.731
73352SOL    HW121895  10.639   1.794  12.637
73352SOL    HW221896  10.721   1.716  12.739
73353SOL     OW21897   6.120   2.416   9.043
73353SOL    HW121898   6.211   2.435   9.022
73353SOL    HW221899   6.096   2.344   8.984
73354SOL     OW21900  13.905  10.021   9.514
73354SOL    HW121901  13.859  10.085   9.568
73354SOL    HW221902  13.992  10.059   9.499
73355SOL     OW21903   5.013  12.419  14.431
73355SOL    HW121904   5.098  12.435  14.473
73355SOL    HW221905   5.021  12.461  14.345
73356SOL     OW21906  10.368  14.747  10.475
73356SOL    HW121907  10.429  14.768  10.545
73356SOL    HW221908  10.355  14.830  10.428
73357SOL     OW21909   7.471   5.982   3.363
73357SOL    HW121910   7.547   6.036   3.345
73357SOL    HW221911   7.398   6.028   3.322
73358SOL     OW21912  13.095   0.925   3.265
73358SOL    HW121913  13.069   1.004   3.312
73358SOL    HW221914  13.082   0.947   3.173
73359SOL     OW21915   5.784   2.756   6.669
73359SOL    HW121916   5.834   2.679   6.696
73359SOL    HW221917   5.698   2.743   6.709
73360SOL     OW21918  10.076  13.908  11.286
73360SOL    HW121919  10.009  13.925  11.219
73360SOL    HW221920  10.137  13.982  11.278
73361SOL     OW21921   2.803  13.180  13.069
73361SOL    HW121922   2.802  13.275  13.060
73361SOL    HW221923   2.815  13.148  12.979
73362SOL     OW21924   9.273   4.350   6.544
73362SOL    HW121925   9.195   4.347   6.488
73362SOL    HW221926   9.238   4.347   6.633
73363SOL     OW21927  14.221   3.922   4.453
73363SOL    HW121928  14.309   3.928   4.491
73363SOL    HW221929  14.193   3.833   4.474
73364SOL     OW21930   1.898   1.243   1.862
73364SOL    HW121931   1.955   1.176   1.824
73364SOL    HW221932   1.926   1.248   1.954
73365SOL     OW21933   5.314  12.103   7.991
73365SOL    HW121934   5.247  12.057   8.042
73365SOL    HW221935   5.283  12.193   7.986
73366SOL     OW21936   8.187  12.733   8.731
73366SOL    HW121937   8.247  12.791   8.684
73366SOL    HW221938   8.215  12.740   8.823
73367SOL     OW21939  10.185   8.556   5.955
73367SOL    HW121940  10.101   8.600   5.944
73367SOL    HW221941  10.249   8.618   5.919
73368SOL     OW21942   5.322   4.964   3.755
73368SOL    HW121943   5.291   5.044   3.711
73368SOL    HW221944   5.359   4.911   3.685
73369SOL     OW21945   7.586   3.671   1.832
73369SOL    HW121946   7.614   3.647   1.744
73369SOL    HW221947   7.606   3.765   1.839
73370SOL     OW21948   6.266   9.542   3.006
73370SOL    HW121949   6.191   9.503   3.051
73370SOL    HW221950   6.246   9.635   3.001
73371SOL     OW21951   7.823   5.962   6.121
73371SOL    HW121952   7.782   6.032   6.171
73371SOL    HW221953   7.760   5.943   6.050
73372SOL     OW21954   1.139   2.680   8.450
73372SOL    HW121955   1.144   2.595   8.494
73372SOL    HW221956   1.185   2.667   8.367
73373SOL     OW21957  11.755  10.526   9.439
73373SOL    HW121958  11.736  10.603   9.492
73373SOL    HW221959  11.811  10.558   9.368
73374SOL     OW21960   1.885   0.572   4.159
73374SOL    HW121961   1.915   0.487   4.128
73374SOL    HW221962   1.827   0.604   4.090
73375SOL     OW21963   8.825   6.646   0.636
73375SOL    HW121964   8.768   6.628   0.562
73375SOL    HW221965   8.849   6.560   0.671
73376SOL     OW21966   7.078  10.155   7.836
73376SOL    HW121967   6.992  10.113   7.843
73376SOL    HW221968   7.140  10.088   7.864
73377SOL     OW21969  14.277  11.395  10.620
73377SOL    HW121970  14.272  11.433  10.708
73377SOL    HW221971  14.247  11.465  10.562
73378SOL     OW21972   1.362   5.761   8.063
73378SOL    HW121973   1.390   5.826   8.128
73378SOL    HW221974   1.269   5.779   8.050
73379SOL     OW21975  11.327   3.428   1.315
73379SOL    HW121976  11.371   3.343   1.321
73379SOL    HW221977  11.261   3.416   1.247
73380SOL     OW21978  13.011   1.046  14.054
73380SOL    HW121979  12.954   1.018  13.982
73380SOL    HW221980  13.078   0.977  14.059
73381SOL     OW21981   1.197   7.934  12.155
73381SOL    HW121982   1.178   7.892  12.071
73381SOL    HW221983   1.291   7.949  12.154
73382SOL     OW21984  13.152  13.818   5.486
73382SOL    HW121985  13.240  13.797   5.518
73382SOL    HW221986  13.156  13.800   5.392
73383SOL     OW21987  14.361  12.853  13.319
73383SOL    HW121988  14.336  12.798  13.394
73383SOL    HW221989  14.282  12.859  13.266
73384SOL     OW21990  11.460   3.982   7.787
73384SOL    HW121991  11.524   4.020   7.848
73384SOL    HW221992  11.513   3.927   7.728
73385SOL     OW21993   5.886  11.833  13.616
73385SOL    HW121994   5.968  11.785  13.605
73385SOL    HW221995   5.913  11.923  13.637
73386SOL     OW21996   3.022   7.241   1.023
73386SOL    HW121997   3.063   7.155   1.020
73386SOL    HW221998   2.930   7.226   1.000
73387SOL     OW21999   5.488   7.862   9.750
73387SOL    HW122000   5.445   7.850   9.834
73387SOL    HW222001   5.581   7.858   9.769
73388SOL     OW22002   2.805   0.331   9.622
73388SOL    HW122003   2.799   0.413   9.574
73388SOL    HW222004   2.896   0.326   9.651
73389SOL     OW22005   3.495   0.143   9.719
73389SOL    HW122006   3.441   0.177   9.648
73389SOL    HW222007   3.490   0.211   9.787
73390SOL     OW22008   0.558  12.113   7.983
73390SOL    HW122009   0.643  12.152   7.964
73390SOL    HW222010   0.494  12.173   7.945
73391SOL     OW22011   0.338   7.149   2.007
73391SOL    HW122012   0.262   7.091   2.005
73391SOL    HW222013   0.306   7.233   1.972
73392SOL     OW22014   3.696  13.895   8.707
73392SOL    HW122015   3.737  13.921   8.789
73392SOL    HW222016   3.712  13.801   8.702
73393SOL     OW22017   4.674  11.085   9.048
73393SOL    HW122018   4.590  11.045   9.025
73393SOL    HW222019   4.718  11.019   9.101
73394SOL     OW22020   7.216   2.950   3.950
73394SOL    HW122021   7.185   2.861   3.968
73394SOL    HW222022   7.301   2.937   3.908
73395SOL     OW22023  14.213   9.654  10.420
73395SOL    HW122024  14.268   9.575  10.424
73395SOL    HW222025  14.198   9.667  10.326
73396SOL     OW22026  10.249  13.693  11.693
73396SOL    HW122027  10.230  13.702  11.600
73396SOL    HW222028  10.312  13.620  11.697
73397SOL     OW22029   9.462   9.772   3.608
73397SOL    HW122030   9.503   9.705   3.662
73397SOL    HW222031   9.436   9.726   3.528
73398SOL     OW22032   8.863   9.722   3.552
73398SOL    HW122033   8.957   9.707   3.562
73398SOL    HW222034   8.831   9.731   3.641
73399SOL     OW22035  13.624   7.826   9.060
73399SOL    HW122036  13.661   7.741   9.084
73399SOL    HW222037  13.666   7.888   9.119
73400SOL     OW22038   8.036   7.562   4.549
73400SOL    HW122039   7.956   7.562   4.600
73400SOL    HW222040   8.094   7.624   4.594
73401SOL     OW22041   3.862  13.861   9.906
73401SOL    HW122042   3.928  13.884   9.840
73401SOL    HW222043   3.794  13.815   9.857
73402SOL     OW22044   2.861   4.202   1.929
73402SOL    HW122045   2.938   4.166   1.973
73402SOL    HW222046   2.787   4.162   1.973
73403SOL     OW22047  11.702  10.235   2.532
73403SOL    HW122048  11.724  10.319   2.572
73403SOL    HW222049  11.612  10.218   2.561
73404SOL     OW22050   7.558   8.855   3.196
73404SOL    HW122051   7.612   8.933   3.184
73404SOL    HW222052   7.570   8.832   3.288
73405SOL     OW22053  14.746  11.815  12.921
73405SOL    HW122054  14.738  11.902  12.882
73405SOL    HW222055  14.716  11.827  13.011
73406SOL     OW22056   2.292   4.974   7.226
73406SOL    HW122057   2.336   5.028   7.161
73406SOL    HW222058   2.358   4.962   7.295
73407SOL     OW22059   8.365   8.375   1.961
73407SOL    HW122060   8.393   8.376   2.052
73407SOL    HW222061   8.279   8.333   1.962
73408SOL     OW22062   7.619   2.472  11.371
73408SOL    HW122063   7.636   2.451  11.463
73408SOL    HW222064   7.706   2.470  11.330
73409SOL     OW22065  12.295  13.459   8.164
73409SOL    HW122066  12.382  13.439   8.132
73409SOL    HW222067  12.310  13.513   8.242
73410SOL     OW22068   6.722   9.386   3.410
73410SOL    HW122069   6.686   9.474   3.422
73410SOL    HW222070   6.717   9.346   3.497
73411SOL     OW22071  10.118  14.570  10.576
73411SOL    HW122072  10.126  14.649  10.630
73411SOL    HW222073  10.154  14.596  10.491
73412SOL     OW22074   3.291   4.782  13.303
73412SOL    HW122075   3.266   4.807  13.214
73412SOL    HW222076   3.244   4.700  13.319
73413SOL     OW22077  13.538   7.445   5.968
73413SOL    HW122078  13.489   7.486   5.897
73413SOL    HW222079  13.513   7.352   5.964
73414SOL     OW22080   4.504   2.211   7.735
73414SOL    HW122081   4.464   2.281   7.786
73414SOL    HW222082   4.499   2.134   7.791
73415SOL     OW22083   4.731   7.291  13.439
73415SOL    HW122084   4.741   7.243  13.357
73415SOL    HW222085   4.791   7.364  13.431
73416SOL     OW22086   0.216   9.087   4.555
73416SOL    HW122087   0.205   8.994   4.534
73416SOL    HW222088   0.282   9.118   4.492
73417SOL     OW22089   0.037   5.427   1.163
73417SOL    HW122090   0.041   5.504   1.107
73417SOL    HW222091   0.114   5.376   1.139
73418SOL     OW22092   6.289   3.440  11.705
73418SOL    HW122093   6.217   3.428  11.643
73418SOL    HW222094   6.302   3.353  11.744
73419SOL     OW22095  12.234  12.884   2.689
73419SOL    HW122096  12.312  12.936   2.705
73419SOL    HW222097  12.251  12.801   2.733
73420SOL     OW22098   4.199   9.484   9.678
73420SOL    HW122099   4.264   9.554   9.668
73420SOL    HW222100   4.205   9.460   9.771
73421SOL     OW22101   4.212   2.190   0.853
73421SOL    HW122102   4.207   2.256   0.923
73421SOL    HW222103   4.188   2.236   0.774
73422SOL     OW22104  11.238   0.381  12.214
73422SOL    HW122105  11.157   0.363  12.166
73422SOL    HW222106  11.212   0.442  12.283
73423SOL     OW22107  14.015   5.530   6.616
73423SOL    HW122108  14.036   5.445   6.655
73423SOL    HW222109  14.039   5.520   6.524
73424SOL     OW22110  13.708   5.666   9.805
73424SOL    HW122111  13.695   5.746   9.855
73424SOL    HW222112  13.738   5.601   9.869
73425SOL     OW22113   0.026  11.335  11.033
73425SOL    HW122114   0.091  11.292  11.088
73425SOL    HW222115   0.028  11.286  10.951
73426SOL     OW22116   5.175  14.603  11.337
73426SOL    HW122117   5.244  14.567  11.393
73426SOL    HW222118   5.094  14.575  11.379
73427SOL     OW22119  12.578  12.610   3.449
73427SOL    HW122120  12.502  12.665   3.431
73427SOL    HW222121  12.541  12.523   3.464
73428SOL     OW22122  12.152   8.971   6.343
73428SOL    HW122123  12.073   8.941   6.388
73428SOL    HW222124  12.203   8.891   6.328
73429SOL     OW22125   5.433   7.726  13.768
73429SOL    HW122126   5.475   7.681  13.841
73429SOL    HW222127   5.356   7.674  13.748
73430SOL     OW22128   3.071   3.317   2.953
73430SOL    HW122129   3.073   3.348   2.862
73430SOL    HW222130   3.107   3.390   3.003
73431SOL     OW22131   6.783   6.676   7.181
73431SOL    HW122132   6.765   6.590   7.220
73431SOL    HW222133   6.859   6.662   7.126
73432SOL     OW22134   5.647   7.802  13.338
73432SOL    HW122135   5.598   7.852  13.273
73432SOL    HW222136   5.613   7.713  13.330
73433SOL     OW22137   0.756   4.289  13.973
73433SOL    HW122138   0.763   4.199  14.005
73433SOL    HW222139   0.725   4.280  13.883
73434SOL     OW22140   8.494  14.855   4.403
73434SOL    HW122141   8.504  14.860   4.308
73434SOL    HW222142   8.520  14.765   4.425
73435SOL     OW22143   0.125  13.465  11.887
73435SOL    HW122144   0.200  13.458  11.946
73435SOL    HW222145   0.149  13.411  11.812
73436SOL     OW22146  12.346   0.950  12.859
73436SOL    HW122147  12.394   0.903  12.791
73436SOL    HW222148  12.402   0.944  12.937
73437SOL     OW22149   7.997   9.859   1.331
73437SOL    HW122150   8.040   9.801   1.394
73437SOL    HW222151   8.055   9.936   1.327
73438SOL     OW22152   2.849  13.266   7.099
73438SOL    HW122153   2.795  13.208   7.153
73438SOL    HW222154   2.931  13.218   7.086
73439SOL     OW22155   7.398  12.696   6.160
73439SOL    HW122156   7.334  12.767   6.159
73439SOL    HW222157   7.483  12.740   6.170
73440SOL     OW22158   0.568   1.209  13.775
73440SOL    HW122159   0.565   1.305  13.774
73440SOL    HW222160   0.484   1.182  13.739
73441SOL     OW22161   1.585   4.315   3.741
73441SOL    HW122162   1.512   4.344   3.687
73441SOL    HW222163   1.627   4.246   3.689
73442SOL     OW22164  11.451  12.810   6.113
73442SOL    HW122165  11.502  12.742   6.070
73442SOL    HW222166  11.414  12.768   6.191
73443SOL     OW22167   0.218   9.668  10.826
73443SOL    HW122168   0.216   9.758  10.792
73443SOL    HW222169   0.242   9.678  10.918
73444SOL     OW22170  11.143   9.027   2.085
73444SOL    HW122171  11.173   9.076   2.162
73444SOL    HW222172  11.223   8.997   2.043
73445SOL     OW22173   6.482   1.213   5.215
73445SOL    HW122174   6.491   1.177   5.303
73445SOL    HW222175   6.488   1.137   5.158
73446SOL     OW22176  11.442  10.486  13.700
73446SOL    HW122177  11.424  10.580  13.708
73446SOL    HW222178  11.429  10.467  13.608
73447SOL     OW22179  13.396  11.016   2.299
73447SOL    HW122180  13.345  10.935   2.310
73447SOL    HW222181  13.462  10.994   2.233
73448SOL     OW22182   6.096   0.368  10.924
73448SOL    HW122183   6.065   0.278  10.924
73448SOL    HW222184   6.068   0.402  11.010
73449SOL     OW22185   9.243   4.999   1.725
73449SOL    HW122186   9.296   5.000   1.805
73449SOL    HW222187   9.171   4.940   1.746
73450SOL     OW22188   9.901   9.378   5.441
73450SOL    HW122189   9.939   9.337   5.363
73450SOL    HW222190   9.898   9.471   5.420
73451SOL     OW22191   4.930   1.350  10.565
73451SOL    HW122192   5.013   1.345  10.613
73451SOL    HW222193   4.883   1.270  10.589
73452SOL     OW22194  11.594   6.612   6.382
73452SOL    HW122195  11.543   6.625   6.303
73452SOL    HW222196  11.643   6.694   6.393
73453SOL     OW22197   5.659  10.965   7.296
73453SOL    HW122198   5.716  11.009   7.359
73453SOL    HW222199   5.668  10.872   7.317
73454SOL     OW22200  13.662   5.290   5.974
73454SOL    HW122201  13.669   5.195   5.968
73454SOL    HW222202  13.657   5.320   5.883
73455SOL     OW22203   0.924  14.119  14.332
73455SOL    HW122204   0.900  14.137  14.423
73455SOL    HW222205   0.842  14.128  14.283
73456SOL     OW22206   7.863  11.364   8.630
73456SOL    HW122207   7.814  11.438   8.594
73456SOL    HW222208   7.829  11.354   8.719
73457SOL     OW22209   5.390   7.488  11.320
73457SOL    HW122210   5.434   7.568  11.348
73457SOL    HW222211   5.304   7.492  11.362
73458SOL     OW22212  13.482   0.353   0.606
73458SOL    HW122213  13.435   0.394   0.679
73458SOL    HW222214  13.533   0.284   0.647
73459SOL     OW22215  10.014  14.641  10.934
73459SOL    HW122216   9.931  14.601  10.908
73459SOL    HW222217  10.040  14.695  10.859
73460SOL     OW22218  13.161   0.915  11.974
73460SOL    HW122219  13.186   1.005  11.954
73460SOL    HW222220  13.238   0.878  12.018
73461SOL     OW22221   2.741   6.197   2.367
73461SOL    HW122222   2.735   6.120   2.312
73461SOL    HW222223   2.787   6.168   2.446
73462SOL     OW22224   9.919  10.030   8.928
73462SOL    HW122225   9.877  10.103   8.884
73462SOL    HW222226   9.887   9.952   8.881
73463SOL     OW22227  11.037   8.256   4.711
73463SOL    HW122228  11.107   8.319   4.730
73463SOL    HW222229  11.066   8.175   4.752
73464SOL     OW22230   5.898   9.701  10.220
73464SOL    HW122231   5.927   9.617  10.255
73464SOL    HW222232   5.825   9.726  10.277
73465SOL     OW22233   6.971   2.912   7.753
73465SOL    HW122234   7.055   2.896   7.711
73465SOL    HW222235   6.986   2.888   7.845
73466SOL     OW22236  13.777   2.884  10.534
73466SOL    HW122237  13.781   2.792  10.509
73466SOL    HW222238  13.851   2.925  10.489
73467SOL     OW22239   4.840  11.254   8.896
73467SOL    HW122240   4.809  11.341   8.919
73467SOL    HW222241   4.783  11.194   8.944
73468SOL     OW22242   5.229   6.667   1.884
73468SOL    HW122243   5.180   6.653   1.966
73468SOL    HW222244   5.207   6.592   1.830
73469SOL     OW22245  10.704   6.845  11.812
73469SOL    HW122246  10.680   6.781  11.878
73469SOL    HW222247  10.627   6.852  11.756
73470SOL     OW22248   3.343   1.472   7.772
73470SOL    HW122249   3.265   1.527   7.780
73470SOL    HW222250   3.372   1.484   7.682
73471SOL     OW22251   9.069   8.033   6.593
73471SOL    HW122252   9.152   8.005   6.554
73471SOL    HW222253   9.003   8.010   6.527
73472SOL     OW22254   9.926   7.034  13.282
73472SOL    HW122255   9.865   6.968  13.249
73472SOL    HW222256   9.885   7.067  13.362
73473SOL     OW22257  11.636  12.888   5.046
73473SOL    HW122258  11.616  12.863   5.136
73473SOL    HW222259  11.637  12.984   5.048
73474SOL     OW22260   7.163   1.656  13.095
73474SOL    HW122261   7.217   1.734  13.079
73474SOL    HW222262   7.074   1.685  13.078
73475SOL     OW22263  13.238   1.559   3.980
73475SOL    HW122264  13.145   1.556   4.003
73475SOL    HW222265  13.240   1.546   3.885
73476SOL     OW22266  14.220   9.876  13.242
73476SOL    HW122267  14.138   9.881  13.193
73476SOL    HW222268  14.204   9.930  13.320
73477SOL     OW22269   4.755   2.476   0.689
73477SOL    HW122270   4.833   2.523   0.662
73477SOL    HW222271   4.747   2.493   0.783
73478SOL     OW22272  13.936   9.848   1.206
73478SOL    HW122273  13.893   9.802   1.278
73478SOL    HW222274  13.971   9.928   1.246
73479SOL     OW22275   6.724   2.361   9.456
73479SOL    HW122276   6.786   2.298   9.418
73479SOL    HW222277   6.690   2.317   9.534
73480SOL     OW22278   5.626   0.178   2.691
73480SOL    HW122279   5.589   0.259   2.656
73480SOL    HW222280   5.598   0.176   2.782
73481SOL     OW22281   4.296   7.090  14.002
73481SOL    HW122282   4.323   7.086  14.094
73481SOL    HW222283   4.364   7.041  13.955
73482SOL     OW22284   3.080   9.109   4.966
73482SOL    HW122285   3.004   9.155   4.930
73482SOL    HW222286   3.068   9.113   5.061
73483SOL     OW22287  14.252   5.669  13.666
73483SOL    HW122288  14.251   5.630  13.753
73483SOL    HW222289  14.271   5.595  13.607
73484SOL     OW22290  13.499   2.745  13.226
73484SOL    HW122291  13.467   2.825  13.269
73484SOL    HW222292  13.443   2.675  13.260
73485SOL     OW22293   0.583   3.979   4.551
73485SOL    HW122294   0.621   3.965   4.464
73485SOL    HW222295   0.513   3.914   4.558
73486SOL     OW22296   1.998  13.657   4.643
73486SOL    HW122297   1.936  13.723   4.611
73486SOL    HW222298   2.022  13.607   4.566
73487SOL     OW22299  13.619   5.477   2.534
73487SOL    HW122300  13.588   5.388   2.551
73487SOL    HW222301  13.543   5.532   2.551
73488SOL     OW22302  13.677  12.658  12.010
73488SOL    HW122303  13.688  12.654  12.105
73488SOL    HW222304  13.707  12.573  11.979
73489SOL     OW22305  11.057   0.812   5.272
73489SOL    HW122306  11.092   0.874   5.209
73489SOL    HW222307  11.077   0.850   5.357
73490SOL     OW22308  14.855  11.110   0.355
73490SOL    HW122309   0.015  11.193   0.375
73490SOL    HW222310  14.768  11.117   0.394
73491SOL     OW22311   5.503   5.733  13.907
73491SOL    HW122312   5.544   5.659  13.862
73491SOL    HW222313   5.552   5.741  13.989
73492SOL     OW22314   8.373   2.800  10.348
73492SOL    HW122315   8.382   2.788  10.443
73492SOL    HW222316   8.354   2.711  10.316
73493SOL     OW22317   2.973  14.863  14.339
73493SOL    HW122318   2.933  14.807  14.404
73493SOL    HW222319   2.965  14.815  14.257
73494SOL     OW22320  12.776  14.252   2.686
73494SOL    HW122321  12.780  14.276   2.593
73494SOL    HW222322  12.818  14.325   2.731
73495SOL     OW22323   5.701   0.380  13.080
73495SOL    HW122324   5.704   0.451  13.143
73495SOL    HW222325   5.623   0.330  13.103
73496SOL     OW22326   5.477   9.189  12.058
73496SOL    HW122327   5.387   9.158  12.066
73496SOL    HW222328   5.520   9.122  12.004
73497SOL     OW22329   1.857  11.908   2.177
73497SOL    HW122330   1.815  11.895   2.262
73497SOL    HW222331   1.925  11.973   2.194
73498SOL     OW22332  11.937   4.296   6.526
73498SOL    HW122333  11.853   4.321   6.488
73498SOL    HW222334  11.971   4.229   6.467
73499SOL     OW22335   3.186   5.492   1.336
73499SOL    HW122336   3.102   5.472   1.379
73499SOL    HW222337   3.167   5.481   1.243
73500SOL     OW22338   0.604  12.322   3.796
73500SOL    HW122339   0.580  12.244   3.746
73500SOL    HW222340   0.572  12.395   3.744
73501SOL     OW22341   8.701  10.194   0.245
73501SOL    HW122342   8.667  10.280   0.224
73501SOL    HW222343   8.659  10.171   0.328
73502SOL     OW22344  10.784  13.796   0.643
73502SOL    HW122345  10.817  13.884   0.625
73502SOL    HW222346  10.689  13.804   0.641
73503SOL     OW22347   1.619  10.299  14.379
73503SOL    HW122348   1.587  10.239  14.311
73503SOL    HW222349   1.589  10.261  14.461
73504SOL     OW22350  13.536  14.169   7.935
73504SOL    HW122351  13.613  14.203   7.890
73504SOL    HW222352  13.530  14.221   8.015
73505SOL     OW22353   0.560  11.322  14.707
73505SOL    HW122354   0.584  11.395  14.764
73505SOL    HW222355   0.485  11.354  14.657
73506SOL     OW22356  12.149  12.003  11.574
73506SOL    HW122357  12.132  12.081  11.521
73506SOL    HW222358  12.100  11.934  11.530
73507SOL     OW22359   6.822  12.857   7.055
73507SOL    HW122360   6.831  12.853   7.150
73507SOL    HW222361   6.897  12.807   7.021
73508SOL     OW22362   0.600  13.946   6.060
73508SOL    HW122363   0.506  13.930   6.048
73508SOL    HW222364   0.609  13.964   6.154
73509SOL     OW22365   9.609   5.381  10.926
73509SOL    HW122366   9.666   5.442  10.878
73509SOL    HW222367   9.558   5.338  10.857
73510SOL     OW22368   6.622   2.208   3.512
73510SOL    HW122369   6.678   2.276   3.550
73510SOL    HW222370   6.629   2.221   3.417
73511SOL     OW22371   2.770   5.836  11.078
73511SOL    HW122372   2.694   5.781  11.059
73511SOL    HW222373   2.791   5.816  11.169
73512SOL     OW22374   4.949  11.613   9.564
73512SOL    HW122375   4.895  11.687   9.536
73512SOL    HW222376   4.975  11.570   9.483
73513SOL     OW22377  13.280  14.113  10.105
73513SOL    HW122378  13.301  14.144  10.017
73513SOL    HW222379  13.187  14.135  10.117
73514SOL     OW22380   1.320   9.293  14.610
73514SOL    HW122381   1.250   9.303  14.674
73514SOL    HW222382   1.395   9.335  14.650
73515SOL     OW22383  11.850  13.081   0.258
73515SOL    HW122384  11.871  13.024   0.184
73515SOL    HW222385  11.899  13.044   0.331
73516SOL     OW22386   0.143  12.435  11.303
73516SOL    HW122387   0.207  12.441  11.374
73516SOL    HW222388   0.178  12.492  11.235
73517SOL     OW22389  12.000   5.791  12.493
73517SOL    HW122390  11.941   5.811  12.420
73517SOL    HW222391  12.045   5.874  12.510
73518SOL     OW22392   9.659   2.799   9.537
73518SOL    HW122393   9.630   2.879   9.493
73518SOL    HW222394   9.578   2.755   9.563
73519SOL     OW22395   8.139   1.787  11.456
73519SOL    HW122396   8.109   1.724  11.522
73519SOL    HW222397   8.116   1.872  11.494
73520SOL     OW22398  14.438  14.834   7.780
73520SOL    HW122399  14.473  14.865   7.863
73520SOL    HW222400  14.363  14.780   7.804
73521SOL     OW22401  13.488   1.650   0.916
73521SOL    HW122402  13.564   1.678   0.968
73521SOL    HW222403  13.489   1.707   0.839
73522SOL     OW22404  12.059  12.926   3.018
73522SOL    HW122405  12.054  12.988   2.946
73522SOL    HW222406  11.983  12.946   3.073
73523SOL     OW22407  14.152  11.876   5.720
73523SOL    HW122408  14.167  11.957   5.672
73523SOL    HW222409  14.210  11.881   5.796
73524SOL     OW22410   0.997  10.031   7.565
73524SOL    HW122411   1.039  10.103   7.519
73524SOL    HW222412   0.997  10.059   7.657
73525SOL     OW22413  11.210   6.622  12.148
73525SOL    HW122414  11.181   6.640  12.059
73525SOL    HW222415  11.188   6.701  12.197
73526SOL     OW22416  10.269   0.202   7.566
73526SOL    HW122417  10.209   0.133   7.593
73526SOL    HW222418  10.353   0.157   7.552
73527SOL     OW22419  10.375  10.586   1.177
73527SOL    HW122420  10.302  10.591   1.115
73527SOL    HW222421  10.343  10.632   1.255
73528SOL     OW22422   9.123   7.007  12.511
73528SOL    HW122423   9.060   6.946  12.471
73528SOL    HW222424   9.143   6.968  12.596
73529SOL     OW22425   4.226   9.365   3.829
73529SOL    HW122426   4.152   9.304   3.818
73529SOL    HW222427   4.205   9.415   3.907
73530SOL     OW22428  11.077  14.240  10.981
73530SOL    HW122429  11.052  14.276  11.066
73530SOL    HW222430  11.031  14.294  10.917
73531SOL     OW22431   6.860   4.547   1.900
73531SOL    HW122432   6.853   4.477   1.964
73531SOL    HW222433   6.953   4.555   1.883
73532SOL     OW22434  14.461  10.026   0.609
73532SOL    HW122435  14.399   9.955   0.626
73532SOL    HW222436  14.492  10.052   0.696
73533SOL     OW22437   8.004   4.961   7.910
73533SOL    HW122438   8.082   4.921   7.872
73533SOL    HW222439   7.990   5.041   7.860
73534SOL     OW22440   6.112   2.135  11.070
73534SOL    HW122441   6.125   2.128  10.975
73534SOL    HW222442   6.017   2.142  11.081
73535SOL     OW22443   5.246   7.804  10.773
73535SOL    HW122444   5.185   7.876  10.757
73535SOL    HW222445   5.262   7.767  10.687
73536SOL     OW22446   5.719   6.618  14.426
73536SOL    HW122447   5.739   6.654  14.340
73536SOL    HW222448   5.629   6.587  14.419
73537SOL     OW22449   1.750   3.718  14.793
73537SOL    HW122450   1.694   3.640  14.794
73537SOL    HW222451   1.704   3.780  14.737
73538SOL     OW22452   3.628   7.352  11.152
73538SOL    HW122453   3.720   7.340  11.176
73538SOL    HW222454   3.581   7.340  11.234
73539SOL     OW22455   2.710   0.342   8.171
73539SOL    HW122456   2.719   0.347   8.266
73539SOL    HW222457   2.717   0.249   8.151
73540SOL     OW22458  12.122  13.787   9.571
73540SOL    HW122459  12.176  13.708   9.568
73540SOL    HW222460  12.068  13.783   9.492
73541SOL     OW22461   4.983   0.843   8.830
73541SOL    HW122462   5.058   0.846   8.771
73541SOL    HW222463   4.944   0.758   8.814
73542SOL     OW22464   6.529   6.190   3.901
73542SOL    HW122465   6.624   6.204   3.892
73542SOL    HW222466   6.519   6.096   3.909
73543SOL     OW22467   9.554   5.011   5.951
73543SOL    HW122468   9.552   4.950   6.024
73543SOL    HW222469   9.612   5.081   5.979
73544SOL     OW22470   5.172   6.458   3.309
73544SOL    HW122471   5.160   6.500   3.394
73544SOL    HW222472   5.246   6.505   3.269
73545SOL     OW22473   6.784   7.636   7.568
73545SOL    HW122474   6.827   7.705   7.619
73545SOL    HW222475   6.694   7.667   7.555
73546SOL     OW22476   3.844   2.494   6.405
73546SOL    HW122477   3.804   2.580   6.397
73546SOL    HW222478   3.771   2.433   6.392
73547SOL     OW22479   2.240  14.747  10.117
73547SOL    HW122480   2.202  14.798  10.045
73547SOL    HW222481   2.199  14.661  10.108
73548SOL     OW22482  10.641   4.047   4.938
73548SOL    HW122483  10.728   4.059   4.899
73548SOL    HW222484  10.658   3.999   5.019
73549SOL     OW22485   5.582   4.020   0.793
73549SOL    HW122486   5.612   3.976   0.713
73549SOL    HW222487   5.646   3.995   0.859
73550SOL     OW22488   5.496   5.259  14.064
73550SOL    HW122489   5.430   5.253  14.133
73550SOL    HW222490   5.493   5.350  14.034
73551SOL     OW22491   7.103   3.347  14.014
73551SOL    HW122492   7.182   3.328  13.963
73551SOL    HW222493   7.047   3.395  13.953
73552SOL     OW22494   5.651   5.380   0.203
73552SOL    HW122495   5.613   5.357   0.288
73552SOL    HW222496   5.615   5.467   0.184
73553SOL     OW22497   7.900  10.661  12.118
73553SOL    HW122498   7.861  10.731  12.066
73553SOL    HW222499   7.992  10.686  12.127
73554SOL     OW22500   4.124  14.659   2.140
73554SOL    HW122501   4.098  14.706   2.061
73554SOL    HW222502   4.212  14.691   2.159
73555SOL     OW22503   0.103   4.197   7.441
73555SOL    HW122504   0.135   4.285   7.418
73555SOL    HW222505   0.021   4.213   7.488
73556SOL     OW22506   7.905  10.190   7.068
73556SOL    HW122507   7.816  10.195   7.032
73556SOL    HW222508   7.909  10.105   7.112
73557SOL     OW22509   2.410  12.470   9.846
73557SOL    HW122510   2.496  12.486   9.884
73557SOL    HW222511   2.385  12.553   9.805
73558SOL     OW22512   9.338   0.659   8.180
73558SOL    HW122513   9.314   0.746   8.149
73558SOL    HW222514   9.432   0.652   8.161
73559SOL     OW22515   2.607   9.274   1.430
73559SOL    HW122516   2.615   9.196   1.375
73559SOL    HW222517   2.516   9.274   1.459
73560SOL     OW22518   4.180   9.723   2.812
73560SOL    HW122519   4.204   9.630   2.816
73560SOL    HW222520   4.213   9.760   2.894
73561SOL     OW22521   6.287  11.423  13.003
73561SOL    HW122522   6.224  11.351  13.005
73561SOL    HW222523   6.233  11.502  13.011
73562SOL     OW22524   7.125  12.838   0.323
73562SOL    HW122525   7.178  12.760   0.341
73562SOL    HW222526   7.100  12.828   0.231
73563SOL     OW22527  11.169   0.209  10.134
73563SOL    HW122528  11.122   0.144  10.187
73563SOL    HW222529  11.129   0.202  10.048
73564SOL     OW22530   9.213  12.304   4.402
73564SOL    HW122531   9.275  12.327   4.471
73564SOL    HW222532   9.221  12.208   4.395
73565SOL     OW22533  14.131   1.592   6.838
73565SOL    HW122534  14.070   1.584   6.765
73565SOL    HW222535  14.190   1.663   6.813
73566SOL     OW22536   1.750   3.709   8.529
73566SOL    HW122537   1.722   3.799   8.544
73566SOL    HW222538   1.752   3.670   8.616
73567SOL     OW22539  13.447  13.601  10.699
73567SOL    HW122540  13.398  13.670  10.743
73567SOL    HW222541  13.526  13.590  10.752
73568SOL     OW22542  12.915   3.603   5.746
73568SOL    HW122543  12.830   3.630   5.780
73568SOL    HW222544  12.894   3.541   5.676
73569SOL     OW22545   1.148  10.624   8.533
73569SOL    HW122546   1.207  10.562   8.491
73569SOL    HW222547   1.060  10.595   8.507
73570SOL     OW22548   4.797   7.951  12.270
73570SOL    HW122549   4.723   7.908  12.227
73570SOL    HW222550   4.790   7.925  12.362
73571SOL     OW22551   9.664  10.153  11.893
73571SOL    HW122552   9.686  10.135  11.802
73571SOL    HW222553   9.739  10.123  11.943
73572SOL     OW22554   9.576   8.414   7.889
73572SOL    HW122555   9.578   8.348   7.959
73572SOL    HW222556   9.651   8.392   7.834
73573SOL     OW22557   7.689   6.986   2.789
73573SOL    HW122558   7.638   7.027   2.720
73573SOL    HW222559   7.692   7.051   2.860
73574SOL     OW22560   0.898  12.623   7.233
73574SOL    HW122561   0.815  12.653   7.196
73574SOL    HW222562   0.881  12.532   7.258
73575SOL     OW22563   0.901   2.227  12.405
73575SOL    HW122564   0.978   2.263  12.361
73575SOL    HW222565   0.888   2.141  12.364
73576SOL     OW22566  10.057   8.803   9.872
73576SOL    HW122567   9.995   8.733   9.850
73576SOL    HW222568  10.021   8.841   9.953
73577SOL     OW22569   1.838  12.803  14.542
73577SOL    HW122570   1.927  12.827  14.566
73577SOL    HW222571   1.848  12.750  14.462
73578SOL     OW22572   4.812   6.663  12.412
73578SOL    HW122573   4.868   6.699  12.343
73578SOL    HW222574   4.772   6.586  12.372
73579SOL     OW22575   3.411   2.396   9.187
73579SOL    HW122576   3.393   2.469   9.247
73579SOL    HW222577   3.324   2.366   9.160
73580SOL     OW22578   3.093   4.437  10.844
73580SOL    HW122579   3.148   4.507  10.880
73580SOL    HW222580   3.113   4.437  10.750
73581SOL     OW22581   6.122   9.790   6.457
73581SOL    HW122582   6.081   9.704   6.468
73581SOL    HW222583   6.209   9.771   6.421
73582SOL     OW22584   4.034   5.847   0.666
73582SOL    HW122585   4.089   5.924   0.654
73582SOL    HW222586   3.945   5.877   0.645
73583SOL     OW22587   5.921   5.941   9.319
73583SOL    HW122588   6.011   5.941   9.350
73583SOL    HW222589   5.897   6.033   9.311
73584SOL     OW22590   9.580   2.635  13.531
73584SOL    HW122591   9.598   2.709  13.589
73584SOL    HW222592   9.666   2.595  13.517
73585SOL     OW22593   7.590   6.708   9.334
73585SOL    HW122594   7.520   6.758   9.376
73585SOL    HW222595   7.546   6.657   9.266
73586SOL     OW22596  11.121   0.897  11.002
73586SOL    HW122597  11.150   0.984  10.975
73586SOL    HW222598  11.191   0.839  10.972
73587SOL     OW22599  12.333   4.336  13.341
73587SOL    HW122600  12.398   4.298  13.400
73587SOL    HW222601  12.355   4.429  13.336
73588SOL     OW22602   2.926   2.803   3.089
73588SOL    HW122603   3.016   2.775   3.105
73588SOL    HW222604   2.933   2.894   3.062
73589SOL     OW22605   8.318  12.793  11.985
73589SOL    HW122606   8.345  12.884  11.970
73589SOL    HW222607   8.228  12.801  12.017
73590SOL     OW22608   1.283   8.812   9.312
73590SOL    HW122609   1.258   8.721   9.326
73590SOL    HW222610   1.378   8.812   9.326
73591SOL     OW22611   3.205   6.987   6.089
73591SOL    HW122612   3.211   7.002   6.184
73591SOL    HW222613   3.216   6.893   6.079
73592SOL     OW22614   6.350  13.333  14.107
73592SOL    HW122615   6.315  13.394  14.173
73592SOL    HW222616   6.382  13.389  14.037
73593SOL     OW22617   2.354   7.565   2.846
73593SOL    HW122618   2.335   7.526   2.760
73593SOL    HW222619   2.446   7.592   2.840
73594SOL     OW22620  12.479   2.594  13.537
73594SOL    HW122621  12.493   2.682  13.502
73594SOL    HW222622  12.522   2.595  13.623
73595SOL     OW22623   7.796  11.088   9.263
73595SOL    HW122624   7.740  11.041   9.201
73595SOL    HW222625   7.769  11.056   9.349
73596SOL     OW22626  12.889  10.098  11.115
73596SOL    HW122627  12.888  10.044  11.036
73596SOL    HW222628  12.930  10.180  11.087
73597SOL     OW22629   1.542   9.314  12.973
73597SOL    HW122630   1.621   9.334  12.924
73597SOL    HW222631   1.573   9.290  13.060
73598SOL     OW22632  14.353   1.880   2.376
73598SOL    HW122633  14.397   1.959   2.408
73598SOL    HW222634  14.273   1.875   2.427
73599SOL     OW22635   0.240  14.093  14.474
73599SOL    HW122636   0.276  14.177  14.502
73599SOL    HW222637   0.218  14.047  14.555
73600SOL     OW22638   1.092   8.165  11.129
73600SOL    HW122639   1.039   8.121  11.062
73600SOL    HW222640   1.075   8.116  11.209
73601SOL     OW22641   4.831  13.756   5.259
73601SOL    HW122642   4.880  13.759   5.176
73601SOL    HW222643   4.890  13.795   5.323
73602SOL     OW22644   0.716   0.019  10.494
73602SOL    HW122645   0.785   0.055  10.550
73602SOL    HW222646   0.741  14.810  10.479
73603SOL     OW22647   5.415  10.772   9.310
73603SOL    HW122648   5.373  10.760   9.395
73603SOL    HW222649   5.499  10.815   9.331
73604SOL     OW22650  14.718   3.711  10.090
73604SOL    HW122651  14.749   3.711  10.181
73604SOL    HW222652  14.777   3.652  10.044
73605SOL     OW22653   4.890  13.083   3.918
73605SOL    HW122654   4.918  13.110   3.830
73605SOL    HW222655   4.837  13.005   3.904
73606SOL     OW22656   3.858   6.241  10.479
73606SOL    HW122657   3.797   6.282  10.418
73606SOL    HW222658   3.831   6.273  10.565
73607SOL     OW22659  10.489   3.486   7.326
73607SOL    HW122660  10.423   3.432   7.368
73607SOL    HW222661  10.450   3.511   7.242
73608SOL     OW22662  11.493   4.225   6.387
73608SOL    HW122663  11.566   4.251   6.330
73608SOL    HW222664  11.526   4.149   6.435
73609SOL     OW22665   7.438   4.847   1.201
73609SOL    HW122666   7.364   4.872   1.256
73609SOL    HW222667   7.404   4.853   1.111
73610SOL     OW22668   7.681  12.394   3.273
73610SOL    HW122669   7.760  12.348   3.302
73610SOL    HW222670   7.687  12.394   3.177
73611SOL     OW22671   4.380   5.882   7.068
73611SOL    HW122672   4.286   5.896   7.074
73611SOL    HW222673   4.419   5.966   7.092
73612SOL     OW22674   7.864   3.230   4.544
73612SOL    HW122675   7.816   3.168   4.490
73612SOL    HW222676   7.848   3.315   4.503
73613SOL     OW22677   7.639  13.627  13.502
73613SOL    HW122678   7.598  13.546  13.533
73613SOL    HW222679   7.727  13.601  13.476
73614SOL     OW22680   3.632  10.973   0.416
73614SOL    HW122681   3.571  10.906   0.448
73614SOL    HW222682   3.575  11.043   0.385
73615SOL     OW22683  10.711  14.041  11.873
73615SOL    HW122684  10.633  13.987  11.863
73615SOL    HW222685  10.783  13.979  11.881
73616SOL     OW22686   9.191   7.511   4.984
73616SOL    HW122687   9.151   7.573   4.923
73616SOL    HW222688   9.270   7.480   4.940
73617SOL     OW22689   0.514   5.533   8.481
73617SOL    HW122690   0.494   5.570   8.394
73617SOL    HW222691   0.493   5.441   8.473
73618SOL     OW22692  12.996   5.965  12.748
73618SOL    HW122693  13.087   5.968  12.717
73618SOL    HW222694  13.000   5.999  12.837
73619SOL     OW22695  12.549   7.805   9.592
73619SOL    HW122696  12.625   7.823   9.647
73619SOL    HW222697  12.488   7.759   9.650
73620SOL     OW22698   0.513   6.546   8.490
73620SOL    HW122699   0.443   6.520   8.431
73620SOL    HW222700   0.492   6.637   8.514
73621SOL     OW22701  13.312  12.971  10.882
73621SOL    HW122702  13.248  12.936  10.820
73621SOL    HW222703  13.377  12.901  10.892
73622SOL     OW22704   4.679  11.007   3.441
73622SOL    HW122705   4.668  11.044   3.353
73622SOL    HW222706   4.737  11.070   3.485
73623SOL     OW22707  13.521   3.688  10.812
73623SOL    HW122708  13.609   3.655  10.831
73623SOL    HW222709  13.493   3.638  10.735
73624SOL     OW22710  12.760   7.106   1.138
73624SOL    HW122711  12.703   7.054   1.082
73624SOL    HW222712  12.796   7.043   1.201
73625SOL     OW22713   1.278   8.034   4.139
73625SOL    HW122714   1.205   8.090   4.167
73625SOL    HW222715   1.301   8.068   4.052
73626SOL     OW22716   1.365   5.216  13.246
73626SOL    HW122717   1.354   5.124  13.273
73626SOL    HW222718   1.459   5.226  13.234
73627SOL     OW22719  12.458   6.313   5.505
73627SOL    HW122720  12.471   6.241   5.443
73627SOL    HW222721  12.535   6.310   5.563
73628SOL     OW22722   3.149   1.358   4.255
73628SOL    HW122723   3.132   1.435   4.309
73628SOL    HW222724   3.062   1.329   4.228
73629SOL     OW22725   1.544   5.030  12.189
73629SOL    HW122726   1.585   4.977  12.121
73629SOL    HW222727   1.617   5.068  12.237
73630SOL     OW22728   1.098   2.639   1.923
73630SOL    HW122729   1.062   2.576   1.985
73630SOL    HW222730   1.177   2.597   1.889
73631SOL     OW22731   7.309   8.200   2.161
73631SOL    HW122732   7.268   8.124   2.203
73631SOL    HW222733   7.352   8.247   2.232
73632SOL     OW22734   2.217   6.383  13.996
73632SOL    HW122735   2.145   6.412  14.052
73632SOL    HW222736   2.209   6.437  13.918
73633SOL     OW22737   1.981  11.804   7.573
73633SOL    HW122738   1.900  11.808   7.623
73633SOL    HW222739   2.009  11.712   7.580
73634SOL     OW22740   4.960   9.298  13.558
73634SOL    HW122741   5.018   9.283  13.632
73634SOL    HW222742   5.019   9.327  13.487
73635SOL     OW22743   6.449   1.583   7.442
73635SOL    HW122744   6.417   1.495   7.421
73635SOL    HW222745   6.507   1.606   7.369
73636SOL     OW22746   9.216   4.948   7.501
73636SOL    HW122747   9.217   4.959   7.406
73636SOL    HW222748   9.259   4.864   7.516
73637SOL     OW22749   7.667  13.862   6.393
73637SOL    HW122750   7.627  13.774   6.398
73637SOL    HW222751   7.733  13.862   6.462
73638SOL     OW22752  13.762  12.216   3.167
73638SOL    HW122753  13.823  12.193   3.238
73638SOL    HW222754  13.696  12.270   3.210
73639SOL     OW22755   7.087   7.450  14.651
73639SOL    HW122756   7.004   7.437  14.697
73639SOL    HW222757   7.094   7.546  14.642
73640SOL     OW22758  12.628   9.254   5.008
73640SOL    HW122759  12.697   9.319   4.997
73640SOL    HW222760  12.638   9.195   4.933
73641SOL     OW22761   7.635   2.193  10.427
73641SOL    HW122762   7.694   2.160  10.495
73641SOL    HW222763   7.559   2.135  10.431
73642SOL     OW22764   8.288   7.012   2.563
73642SOL    HW122765   8.375   7.049   2.576
73642SOL    HW222766   8.239   7.081   2.517
73643SOL     OW22767   6.124   9.410   0.349
73643SOL    HW122768   6.132   9.351   0.424
73643SOL    HW222769   6.143   9.355   0.273
73644SOL     OW22770   0.009   8.423   8.341
73644SOL    HW122771   0.103   8.404   8.350
73644SOL    HW222772  14.852   8.387   8.420
73645SOL     OW22773   3.386  13.297  10.818
73645SOL    HW122774   3.460  13.268  10.872
73645SOL    HW222775   3.340  13.360  10.872
73646SOL     OW22776   0.437   5.877   0.164
73646SOL    HW122777   0.524   5.874   0.126
73646SOL    HW222778   0.403   5.964   0.141
73647SOL     OW22779   7.121  14.174  11.882
73647SOL    HW122780   7.178  14.116  11.830
73647SOL    HW222781   7.149  14.262  11.859
73648SOL     OW22782   7.177  13.060   1.170
73648SOL    HW122783   7.235  13.000   1.123
73648SOL    HW222784   7.225  13.142   1.174
73649SOL     OW22785   3.935   7.032   6.571
73649SOL    HW122786   3.899   6.946   6.551
73649SOL    HW222787   4.028   7.016   6.586
73650SOL     OW22788   9.085  12.543   2.291
73650SOL    HW122789   9.132  12.563   2.210
73650SOL    HW222790   9.032  12.466   2.269
73651SOL     OW22791  14.213  11.251   0.543
73651SOL    HW122792  14.128  11.291   0.527
73651SOL    HW222793  14.207  11.164   0.503
73652SOL     OW22794   8.033   5.539  12.327
73652SOL    HW122795   7.988   5.500  12.401
73652SOL    HW222796   7.963   5.566  12.268
73653SOL     OW22797   1.106   1.032   4.388
73653SOL    HW122798   1.057   0.951   4.402
73653SOL    HW222799   1.165   1.039   4.463
73654SOL     OW22800   9.262  13.825   3.488
73654SOL    HW122801   9.264  13.915   3.520
73654SOL    HW222802   9.342  13.786   3.523
73655SOL     OW22803   3.565   6.417   9.696
73655SOL    HW122804   3.511   6.374   9.762
73655SOL    HW222805   3.511   6.490   9.664
73656SOL     OW22806   3.523   1.654  13.888
73656SOL    HW122807   3.501   1.633  13.979
73656SOL    HW222808   3.617   1.637  13.881
73657SOL     OW22809   2.585   1.676   5.847
73657SOL    HW122810   2.567   1.645   5.758
73657SOL    HW222811   2.680   1.676   5.854
73658SOL     OW22812   6.570   7.252   8.757
73658SOL    HW122813   6.549   7.213   8.672
73658SOL    HW222814   6.548   7.345   8.746
73659SOL     OW22815  10.768   1.642   2.126
73659SOL    HW122816  10.721   1.722   2.101
73659SOL    HW222817  10.737   1.623   2.215
73660SOL     OW22818  10.937   5.242   3.415
73660SOL    HW122819  10.899   5.292   3.344
73660SOL    HW222820  10.946   5.153   3.381
73661SOL     OW22821  12.248  10.282   2.883
73661SOL    HW122822  12.319  10.269   2.820
73661SOL    HW222823  12.292  10.302   2.966
73662SOL     OW22824   9.149   4.501  11.533
73662SOL    HW122825   9.142   4.518  11.627
73662SOL    HW222826   9.242   4.514  11.514
73663SOL     OW22827  14.059   1.003   1.445
73663SOL    HW122828  14.025   0.914   1.451
73663SOL    HW222829  14.128   0.998   1.379
73664SOL     OW22830   3.251  10.284   9.341
73664SOL    HW122831   3.264  10.314   9.431
73664SOL    HW222832   3.321  10.222   9.325
73665SOL     OW22833   1.910   2.360  13.127
73665SOL    HW122834   1.964   2.361  13.048
73665SOL    HW222835   1.926   2.274  13.166
73666SOL     OW22836   2.024   9.543  10.151
73666SOL    HW122837   2.087   9.614  10.151
73666SOL    HW222838   1.964   9.563  10.078
73667SOL     OW22839   1.310   1.083   1.834
73667SOL    HW122840   1.249   1.150   1.805
73667SOL    HW222841   1.282   1.063   1.924
73668SOL     OW22842   4.310   3.762   0.467
73668SOL    HW122843   4.223   3.740   0.499
73668SOL    HW222844   4.310   3.858   0.461
73669SOL     OW22845   8.709   7.086  11.851
73669SOL    HW122846   8.653   7.122  11.919
73669SOL    HW222847   8.718   7.156  11.787
73670SOL     OW22848   7.710   6.663  13.746
73670SOL    HW122849   7.668   6.740  13.707
73670SOL    HW222850   7.797   6.695  13.773
73671SOL     OW22851  10.802   6.380  10.935
73671SOL    HW122852  10.774   6.440  11.004
73671SOL    HW222853  10.898   6.391  10.931
73672SOL     OW22854  12.193  12.902  13.000
73672SOL    HW122855  12.126  12.945  12.947
73672SOL    HW222856  12.266  12.963  13.001
73673SOL     OW22857   6.687   3.091  10.989
73673SOL    HW122858   6.745   3.057  11.058
73673SOL    HW222859   6.689   3.024  10.921
73674SOL     OW22860   4.680   0.668   4.189
73674SOL    HW122861   4.727   0.752   4.195
73674SOL    HW222862   4.609   0.684   4.127
73675SOL     OW22863   9.828   3.254   8.469
73675SOL    HW122864   9.847   3.309   8.393
73675SOL    HW222865   9.914   3.239   8.509
73676SOL     OW22866   1.854   6.712  14.164
73676SOL    HW122867   1.813   6.781  14.217
73676SOL    HW222868   1.803   6.711  14.083
73677SOL     OW22869   6.526   3.456   8.434
73677SOL    HW122870   6.513   3.516   8.360
73677SOL    HW222871   6.596   3.497   8.485
73678SOL     OW22872   6.480   8.862   6.734
73678SOL    HW122873   6.568   8.873   6.698
73678SOL    HW222874   6.464   8.767   6.729
73679SOL     OW22875   7.500   0.556  11.037
73679SOL    HW122876   7.542   0.550  10.951
73679SOL    HW222877   7.418   0.602  11.020
73680SOL     OW22878   5.513   2.466  13.377
73680SOL    HW122879   5.608   2.468  13.372
73680SOL    HW222880   5.492   2.378  13.409
73681SOL     OW22881  13.334   3.321  13.275
73681SOL    HW122882  13.271   3.385  13.308
73681SOL    HW222883  13.387   3.299  13.352
73682SOL     OW22884  12.680  12.169   6.201
73682SOL    HW122885  12.770  12.138   6.214
73682SOL    HW222886  12.627  12.089   6.197
73683SOL     OW22887   7.213   1.760   8.631
73683SOL    HW122888   7.202   1.829   8.566
73683SOL    HW222889   7.242   1.806   8.710
73684SOL     OW22890   9.459   2.727   1.271
73684SOL    HW122891   9.539   2.767   1.305
73684SOL    HW222892   9.392   2.796   1.279
73685SOL     OW22893  10.367   9.220  10.703
73685SOL    HW122894  10.319   9.287  10.655
73685SOL    HW222895  10.405   9.163  10.636
73686SOL     OW22896   6.935   0.807  13.202
73686SOL    HW122897   6.938   0.903  13.204
73686SOL    HW222898   6.876   0.787  13.130
73687SOL     OW22899   2.646   6.764  13.004
73687SOL    HW122900   2.551   6.770  12.997
73687SOL    HW222901   2.675   6.750  12.913
73688SOL     OW22902  10.235  10.018   8.679
73688SOL    HW122903  10.315  10.006   8.628
73688SOL    HW222904  10.195   9.932   8.682
73689SOL     OW22905   0.089  11.349  13.658
73689SOL    HW122906   0.002  11.389  13.661
73689SOL    HW222907   0.135  11.398  13.590
73690SOL     OW22908   7.536  11.482  13.446
73690SOL    HW122909   7.522  11.576  13.455
73690SOL    HW222910   7.459  11.442  13.486
73691SOL     OW22911   7.890   9.506   0.480
73691SOL    HW122912   7.952   9.552   0.536
73691SOL    HW222913   7.805   9.542   0.504
73692SOL     OW22914   0.344  14.707   5.240
73692SOL    HW122915   0.314  14.660   5.162
73692SOL    HW222916   0.292  14.788   5.241
73693SOL     OW22917   7.906   8.182   3.312
73693SOL    HW122918   7.848   8.107   3.306
73693SOL    HW222919   7.897   8.226   3.227
73694SOL     OW22920   0.760   5.284  12.933
73694SOL    HW122921   0.798   5.313  12.850
73694SOL    HW222922   0.703   5.211  12.908
73695SOL     OW22923  14.857   3.666   0.931
73695SOL    HW122924   0.054   3.637   0.978
73695SOL    HW222925  14.852   3.760   0.948
73696SOL     OW22926  13.101   7.928  10.310
73696SOL    HW122927  13.195   7.911  10.302
73696SOL    HW222928  13.060   7.841  10.305
73697SOL     OW22929   3.274   4.119   8.662
73697SOL    HW122930   3.347   4.181   8.669
73697SOL    HW222931   3.316   4.033   8.663
73698SOL     OW22932  14.453   4.760  10.819
73698SOL    HW122933  14.431   4.668  10.835
73698SOL    HW222934  14.487   4.760  10.729
73699SOL     OW22935   3.873   1.592   9.036
73699SOL    HW122936   3.865   1.501   9.065
73699SOL    HW222937   3.783   1.624   9.032
73700SOL     OW22938   4.677   7.703   5.505
73700SOL    HW122939   4.716   7.790   5.514
73700SOL    HW222940   4.680   7.665   5.593
73701SOL     OW22941  12.711  13.073   2.448
73701SOL    HW122942  12.806  13.082   2.449
73701SOL    HW222943  12.687  13.087   2.357
73702SOL     OW22944  14.729   8.885   8.579
73702SOL    HW122945  14.728   8.839   8.663
73702SOL    HW222946  14.715   8.817   8.514
73703SOL     OW22947   1.731   5.497   9.342
73703SOL    HW122948   1.724   5.540   9.257
73703SOL    HW222949   1.670   5.546   9.398
73704SOL     OW22950   3.827   3.938  14.386
73704SOL    HW122951   3.790   3.857  14.351
73704SOL    HW222952   3.850   3.917  14.476
73705SOL     OW22953   1.613  11.959   0.177
73705SOL    HW122954   1.598  12.052   0.159
73705SOL    HW222955   1.526  11.919   0.171
73706SOL     OW22956  13.238  12.767   7.245
73706SOL    HW122957  13.247  12.683   7.200
73706SOL    HW222958  13.249  12.832   7.175
73707SOL     OW22959   0.498   2.125   2.490
73707SOL    HW122960   0.593   2.127   2.496
73707SOL    HW222961   0.470   2.087   2.573
73708SOL     OW22962   1.532   2.864   2.611
73708SOL    HW122963   1.600   2.804   2.582
73708SOL    HW222964   1.466   2.861   2.541
73709SOL     OW22965   5.774  13.464   3.837
73709SOL    HW122966   5.745  13.488   3.749
73709SOL    HW222967   5.699  13.419   3.876
73710SOL     OW22968  12.431   1.124   9.663
73710SOL    HW122969  12.450   1.104   9.571
73710SOL    HW222970  12.493   1.070   9.712
73711SOL     OW22971  11.429  14.236  12.678
73711SOL    HW122972  11.476  14.262  12.757
73711SOL    HW222973  11.371  14.166  12.706
73712SOL     OW22974   8.517   0.329  12.426
73712SOL    HW122975   8.499   0.247  12.380
73712SOL    HW222976   8.601   0.358  12.391
73713SOL     OW22977   9.998   6.014   6.817
73713SOL    HW122978   9.940   6.090   6.819
73713SOL    HW222979  10.080   6.046   6.778
73714SOL     OW22980   2.388  14.048   2.162
73714SOL    HW122981   2.467  14.084   2.202
73714SOL    HW222982   2.340  14.009   2.236
73715SOL     OW22983  13.262  12.236   3.312
73715SOL    HW122984  13.202  12.168   3.281
73715SOL    HW222985  13.260  12.303   3.243
73716SOL     OW22986   3.871   5.354   4.913
73716SOL    HW122987   3.920   5.409   4.852
73716SOL    HW222988   3.808   5.306   4.858
73717SOL     OW22989  10.527   2.816   9.883
73717SOL    HW122990  10.565   2.735   9.917
73717SOL    HW222991  10.470   2.847   9.953
73718SOL     OW22992   0.879   1.759   1.073
73718SOL    HW122993   0.943   1.723   1.135
73718SOL    HW222994   0.885   1.703   0.997
73719SOL     OW22995   3.673   3.024   0.864
73719SOL    HW122996   3.745   2.962   0.852
73719SOL    HW222997   3.638   3.039   0.776
73720SOL     OW22998  12.999   2.521   9.523
73720SOL    HW122999  12.986   2.554   9.434
73720SOL    HW223000  12.931   2.565   9.575
73721SOL     OW23001  11.931   9.587  13.307
73721SOL    HW123002  11.845   9.581  13.348
73721SOL    HW223003  11.917   9.639  13.228
73722SOL     OW23004  12.497   4.473   2.045
73722SOL    HW123005  12.502   4.402   2.109
73722SOL    HW223006  12.405   4.475   2.019
73723SOL     OW23007   8.637   7.015   5.018
73723SOL    HW123008   8.585   7.017   5.099
73723SOL    HW223009   8.723   7.048   5.045
73724SOL     OW23010  14.255  14.460   1.229
73724SOL    HW123011  14.318  14.453   1.301
73724SOL    HW223012  14.191  14.391   1.246
73725SOL     OW23013   9.190  12.022  13.725
73725SOL    HW123014   9.129  11.965  13.772
73725SOL    HW223015   9.191  12.103  13.776
73726SOL     OW23016  12.904   0.471  14.639
73726SOL    HW123017  12.836   0.435  14.583
73726SOL    HW223018  12.957   0.396  14.665
73727SOL     OW23019   4.826   5.208   0.780
73727SOL    HW123020   4.748   5.154   0.795
73727SOL    HW223021   4.829   5.221   0.686
73728SOL     OW23022  13.451   0.257   8.488
73728SOL    HW123023  13.536   0.215   8.495
73728SOL    HW223024  13.388   0.185   8.484
73729SOL     OW23025   3.295   4.325   4.154
73729SOL    HW123026   3.210   4.342   4.195
73729SOL    HW223027   3.299   4.385   4.080
73730SOL     OW23028  14.059  13.250   6.151
73730SOL    HW123029  14.090  13.171   6.195
73730SOL    HW223030  13.965  13.252   6.169
73731SOL     OW23031  13.949   5.278  13.021
73731SOL    HW123032  14.030   5.260  13.068
73731SOL    HW223033  13.971   5.265  12.929
73732SOL     OW23034   3.800  12.932   9.221
73732SOL    HW123035   3.840  12.908   9.138
73732SOL    HW223036   3.869  12.977   9.269
73733SOL     OW23037  14.587   4.981   0.651
73733SOL    HW123038  14.520   5.030   0.605
73733SOL    HW223039  14.591   4.897   0.606
73734SOL     OW23040  12.457   3.202   5.413
73734SOL    HW123041  12.478   3.122   5.364
73734SOL    HW223042  12.395   3.249   5.358
73735SOL     OW23043  11.611   7.936   6.899
73735SOL    HW123044  11.693   7.941   6.849
73735SOL    HW223045  11.606   8.020   6.944
73736SOL     OW23046  13.702   6.817   7.410
73736SOL    HW123047  13.690   6.874   7.334
73736SOL    HW223048  13.757   6.745   7.377
73737SOL     OW23049   7.092   4.261   7.289
73737SOL    HW123050   7.179   4.233   7.314
73737SOL    HW223051   7.098   4.277   7.195
73738SOL     OW23052   0.557   9.108  11.293
73738SOL    HW123053   0.617   9.064  11.353
73738SOL    HW223054   0.532   9.040  11.230
73739SOL     OW23055   1.300  13.462   5.371
73739SOL    HW123056   1.385  13.472   5.327
73739SOL    HW223057   1.314  13.496   5.459
73740SOL     OW23058   4.004  13.770   4.154
73740SOL    HW123059   3.964  13.791   4.238
73740SOL    HW223060   3.930  13.744   4.099
73741SOL     OW23061   1.573  13.916   2.498
73741SOL    HW123062   1.566  13.988   2.435
73741SOL    HW223063   1.512  13.850   2.466
73742SOL     OW23064   2.236   0.267  10.997
73742SOL    HW123065   2.225   0.208  11.072
73742SOL    HW223066   2.154   0.258  10.948
73743SOL     OW23067  10.581   0.158   4.705
73743SOL    HW123068  10.508   0.218   4.716
73743SOL    HW223069  10.596   0.156   4.610
73744SOL     OW23070  13.881   5.452   9.053
73744SOL    HW123071  13.826   5.529   9.061
73744SOL    HW223072  13.841   5.387   9.110
73745SOL     OW23073  14.734   5.024   2.470
73745SOL    HW123074  14.665   4.977   2.422
73745SOL    HW223075  14.782   5.072   2.403
73746SOL     OW23076  13.132   8.617   0.974
73746SOL    HW123077  13.089   8.532   0.965
73746SOL    HW223078  13.076   8.666   1.034
73747SOL     OW23079  13.122  13.527   1.603
73747SOL    HW123080  13.077  13.526   1.687
73747SOL    HW223081  13.188  13.597   1.612
73748SOL     OW23082  12.710  14.425  12.883
73748SOL    HW123083  12.678  14.379  12.960
73748SOL    HW223084  12.725  14.515  12.912
73749SOL     OW23085  14.413   8.143   2.927
73749SOL    HW123086  14.454   8.225   2.899
73749SOL    HW223087  14.453   8.124   3.012
73750SOL     OW23088  13.382  13.994   0.394
73750SOL    HW123089  13.417  14.081   0.374
73750SOL    HW223090  13.287  14.003   0.381
73751SOL     OW23091   9.440  10.046   6.713
73751SOL    HW123092   9.423   9.952   6.711
73751SOL    HW223093   9.438  10.073   6.621
73752SOL     OW23094   9.258  10.758  14.209
73752SOL    HW123095   9.279  10.825  14.143
73752SOL    HW223096   9.175  10.721  14.180
73753SOL     OW23097  10.184   2.568   0.077
73753SOL    HW123098  10.141   2.490   0.040
73753SOL    HW223099  10.113   2.616   0.119
73754SOL     OW23100  13.905  12.172  10.016
73754SOL    HW123101  13.870  12.260  10.007
73754SOL    HW223102  13.873  12.141  10.101
73755SOL     OW23103  10.676   7.410   6.178
73755SOL    HW123104  10.691   7.461   6.258
73755SOL    HW223105  10.710   7.465   6.108
73756SOL     OW23106  14.650  11.128   5.497
73756SOL    HW123107  14.656  11.104   5.590
73756SOL    HW223108  14.647  11.224   5.497
73757SOL     OW23109   8.869  11.173   4.871
73757SOL    HW123110   8.782  11.137   4.855
73757SOL    HW223111   8.929  11.110   4.830
73758SOL     OW23112   1.232  14.157   3.042
73758SOL    HW123113   1.158  14.216   3.027
73758SOL    HW223114   1.192  14.075   3.072
73759SOL     OW23115  11.198   7.723   2.016
73759SOL    HW123116  11.274   7.755   1.969
73759SOL    HW223117  11.234   7.672   2.088
73760SOL     OW23118   7.272   2.348   6.066
73760SOL    HW123119   7.324   2.406   6.010
73760SOL    HW223120   7.324   2.340   6.147
73761SOL     OW23121   3.788   2.216   1.899
73761SOL    HW123122   3.817   2.294   1.946
73761SOL    HW223123   3.792   2.241   1.807
73762SOL     OW23124  12.643   3.680   6.653
73762SOL    HW123125  12.594   3.761   6.663
73762SOL    HW223126  12.668   3.678   6.560
73763SOL     OW23127   6.970   7.890   6.086
73763SOL    HW123128   6.942   7.882   5.995
73763SOL    HW223129   7.065   7.898   6.081
73764SOL     OW23130   5.052   6.256  14.010
73764SOL    HW123131   5.036   6.220  14.097
73764SOL    HW223132   5.144   6.236  13.992
73765SOL     OW23133  10.338   6.948  13.711
73765SOL    HW123134  10.381   6.864  13.696
73765SOL    HW223135  10.300   6.940  13.799
73766SOL     OW23136   7.175   8.783   9.328
73766SOL    HW123137   7.132   8.764   9.412
73766SOL    HW223138   7.262   8.814   9.352
73767SOL     OW23139   6.394   2.897   0.087
73767SOL    HW123140   6.411   2.863  14.881
73767SOL    HW223141   6.480   2.922   0.120
73768SOL     OW23142   0.463   8.819   8.905
73768SOL    HW123143   0.485   8.738   8.859
73768SOL    HW223144   0.533   8.880   8.881
73769SOL     OW23145   1.495   7.251   3.029
73769SOL    HW123146   1.589   7.239   3.039
73769SOL    HW223147   1.484   7.282   2.940
73770SOL     OW23148   2.638   7.458  14.084
73770SOL    HW123149   2.579   7.394  14.045
73770SOL    HW223150   2.590   7.489  14.162
73771SOL     OW23151  12.294   7.658  13.855
73771SOL    HW123152  12.335   7.743  13.842
73771SOL    HW223153  12.200   7.677  13.860
73772SOL     OW23154  12.290   9.216   0.922
73772SOL    HW123155  12.306   9.228   0.828
73772SOL    HW223156  12.343   9.283   0.965
73773SOL     OW23157  11.465   5.586  13.835
73773SOL    HW123158  11.370   5.587  13.846
73773SOL    HW223159  11.478   5.580  13.741
73774SOL     OW23160   9.451   2.156   9.129
73774SOL    HW123161   9.394   2.234   9.132
73774SOL    HW223162   9.533   2.188   9.091
73775SOL     OW23163  11.059  12.846  12.126
73775SOL    HW123164  10.971  12.833  12.092
73775SOL    HW223165  11.111  12.871  12.049
73776SOL     OW23166   0.412   8.078   4.407
73776SOL    HW123167   0.478   8.013   4.381
73776SOL    HW223168   0.337   8.026   4.436
73777SOL     OW23169   4.430   3.557   0.318
73777SOL    HW123170   4.522   3.584   0.312
73777SOL    HW223171   4.393   3.613   0.386
73778SOL     OW23172   1.063   0.043  14.279
73778SOL    HW123173   1.059   0.088  14.194
73778SOL    HW223174   1.077   0.114  14.342
73779SOL     OW23175  11.301  11.568   0.950
73779SOL    HW123176  11.374  11.566   0.888
73779SOL    HW223177  11.264  11.655   0.941
73780SOL     OW23178   1.507   3.656   5.872
73780SOL    HW123179   1.494   3.738   5.825
73780SOL    HW223180   1.512   3.589   5.804
73781SOL     OW23181   3.590  11.301  14.725
73781SOL    HW123182   3.510  11.351  14.712
73781SOL    HW223183   3.600  11.250  14.644
73782SOL     OW23184   0.208  13.678  10.406
73782SOL    HW123185   0.196  13.586  10.431
73782SOL    HW223186   0.302  13.687  10.390
73783SOL     OW23187   2.882   5.003  13.457
73783SOL    HW123188   2.880   4.994  13.362
73783SOL    HW223189   2.904   4.916  13.490
73784SOL     OW23190  11.827   4.280   2.940
73784SOL    HW123191  11.892   4.230   2.890
73784SOL    HW223192  11.866   4.290   3.027
73785SOL     OW23193   4.248   0.825  12.227
73785SOL    HW123194   4.337   0.860  12.232
73785SOL    HW223195   4.259   0.730  12.225
73786SOL     OW23196  13.686  10.772   2.885
73786SOL    HW123197  13.673  10.685   2.923
73786SOL    HW223198  13.739  10.757   2.807
73787SOL     OW23199   0.514  11.494   5.380
73787SOL    HW123200   0.515  11.458   5.291
73787SOL    HW223201   0.529  11.588   5.368
73788SOL     OW23202  12.443   1.847   9.717
73788SOL    HW123203  12.537   1.858   9.729
73788SOL    HW223204  12.434   1.807   9.631
73789SOL     OW23205   5.831  10.897   6.047
73789SOL    HW123206   5.854  10.970   5.989
73789SOL    HW223207   5.851  10.929   6.135
73790SOL     OW23208   0.208   6.698   5.580
73790SOL    HW123209   0.292   6.706   5.535
73790SOL    HW223210   0.184   6.788   5.601
73791SOL     OW23211   2.936   6.843   0.577
73791SOL    HW123212   2.865   6.882   0.526
73791SOL    HW223213   2.998   6.915   0.590
73792SOL     OW23214  14.799  11.347   6.802
73792SOL    HW123215  14.785  11.441   6.791
73792SOL    HW223216  14.881  11.330   6.756
73793SOL     OW23217  11.703   2.839   8.053
73793SOL    HW123218  11.690   2.820   8.146
73793SOL    HW223219  11.737   2.928   8.051
73794SOL     OW23220  14.559   3.488   2.358
73794SOL    HW123221  14.467   3.510   2.372
73794SOL    HW223222  14.594   3.562   2.309
73795SOL     OW23223   5.787   7.876   9.029
73795SOL    HW123224   5.700   7.858   8.992
73795SOL    HW223225   5.837   7.911   8.956
73796SOL     OW23226   9.175   0.547   5.211
73796SOL    HW123227   9.237   0.523   5.280
73796SOL    HW223228   9.142   0.632   5.238
73797SOL     OW23229  10.840   7.478   9.138
73797SOL    HW123230  10.833   7.431   9.221
73797SOL    HW223231  10.796   7.562   9.154
73798SOL     OW23232   5.227   2.028   8.529
73798SOL    HW123233   5.188   1.954   8.576
73798SOL    HW223234   5.154   2.065   8.479
73799SOL     OW23235   5.187  14.236   6.729
73799SOL    HW123236   5.223  14.162   6.779
73799SOL    HW223237   5.097  14.245   6.760
73800SOL     OW23238   6.579   9.390  14.413
73800SOL    HW123239   6.595   9.472  14.458
73800SOL    HW223240   6.634   9.326  14.459
73801SOL     OW23241   4.232   5.366   0.025
73801SOL    HW123242   4.188   5.444   0.060
73801SOL    HW223243   4.161   5.312  14.873
73802SOL     OW23244  14.674   7.335   5.766
73802SOL    HW123245  14.744   7.271   5.763
73802SOL    HW223246  14.594   7.283   5.763
73803SOL     OW23247  10.352   7.215   0.706
73803SOL    HW123248  10.305   7.248   0.629
73803SOL    HW223249  10.283   7.194   0.768
73804SOL     OW23250   2.666   8.330   5.883
73804SOL    HW123251   2.584   8.282   5.873
73804SOL    HW223252   2.734   8.265   5.861
73805SOL     OW23253  12.858  11.785   8.409
73805SOL    HW123254  12.893  11.842   8.341
73805SOL    HW223255  12.768  11.767   8.381
73806SOL     OW23256  14.032   2.476   9.587
73806SOL    HW123257  13.958   2.418   9.571
73806SOL    HW223258  14.010   2.520   9.669
73807SOL     OW23259   3.238   8.330   4.808
73807SOL    HW123260   3.326   8.364   4.822
73807SOL    HW223261   3.185   8.368   4.879
73808SOL     OW23262   2.779  10.229  12.137
73808SOL    HW123263   2.697  10.187  12.162
73808SOL    HW223264   2.839  10.156  12.119
73809SOL     OW23265   1.074  10.023   4.675
73809SOL    HW123266   1.130   9.983   4.742
73809SOL    HW223267   0.998  10.056   4.724
73810SOL     OW23268   7.776   0.824   5.251
73810SOL    HW123269   7.835   0.834   5.325
73810SOL    HW223270   7.795   0.900   5.195
73811SOL     OW23271  11.727  10.475  10.086
73811SOL    HW123272  11.789  10.485  10.158
73811SOL    HW223273  11.641  10.472  10.129
73812SOL     OW23274   6.182   9.488   4.124
73812SOL    HW123275   6.111   9.487   4.189
73812SOL    HW223276   6.262   9.491   4.175
73813SOL     OW23277   4.051   3.274   3.744
73813SOL    HW123278   4.064   3.365   3.772
73813SOL    HW223279   4.015   3.231   3.821
73814SOL     OW23280   6.997  11.166   8.443
73814SOL    HW123281   6.912  11.174   8.486
73814SOL    HW223282   6.977  11.128   8.357
73815SOL     OW23283   3.877  10.424   9.915
73815SOL    HW123284   3.880  10.373   9.996
73815SOL    HW223285   3.824  10.501   9.936
73816SOL     OW23286   1.039   0.472   9.800
73816SOL    HW123287   1.046   0.425   9.883
73816SOL    HW223288   1.118   0.446   9.751
73817SOL     OW23289   5.665   6.853   0.799
73817SOL    HW123290   5.750   6.893   0.783
73817SOL    HW223291   5.674   6.764   0.764
73818SOL     OW23292   5.614   7.078   0.373
73818SOL    HW123293   5.579   7.005   0.423
73818SOL    HW223294   5.537   7.124   0.339
73819SOL     OW23295   6.477  10.217   1.867
73819SOL    HW123296   6.444  10.130   1.847
73819SOL    HW223297   6.569  10.214   1.838
73820SOL     OW23298   6.818   3.581  13.899
73820SOL    HW123299   6.777   3.570  13.985
73820SOL    HW223300   6.860   3.667  13.904
73821SOL     OW23301  10.626  11.645   1.500
73821SOL    HW123302  10.544  11.598   1.486
73821SOL    HW223303  10.644  11.634   1.593
73822SOL     OW23304  10.875  13.403   7.408
73822SOL    HW123305  10.855  13.463   7.480
73822SOL    HW223306  10.948  13.350   7.440
73823SOL     OW23307   6.220  13.151  13.905
73823SOL    HW123308   6.213  13.246  13.915
73823SOL    HW223309   6.182  13.134  13.819
73824SOL     OW23310   1.810   4.740  12.747
73824SOL    HW123311   1.897   4.721  12.712
73824SOL    HW223312   1.802   4.835  12.741
73825SOL     OW23313  14.429  10.031   2.339
73825SOL    HW123314  14.524  10.026   2.344
73825SOL    HW223315  14.411  10.120   2.308
73826SOL     OW23316  10.657  14.216   6.640
73826SOL    HW123317  10.726  14.282   6.637
73826SOL    HW223318  10.590  14.254   6.696
73827SOL     OW23319   9.031   0.501   6.583
73827SOL    HW123320   9.082   0.581   6.575
73827SOL    HW223321   8.941   0.529   6.572
73828SOL     OW23322   7.745  12.801   0.003
73828SOL    HW123323   7.702  12.844   0.077
73828SOL    HW223324   7.744  12.866  14.815
73829SOL     OW23325   5.071   7.241  13.249
73829SOL    HW123326   5.100   7.192  13.171
73829SOL    HW223327   4.976   7.246  13.239
73830SOL     OW23328   0.362  13.507  11.654
73830SOL    HW123329   0.317  13.427  11.629
73830SOL    HW223330   0.454  13.482  11.660
73831SOL     OW23331   2.006   3.726   7.585
73831SOL    HW123332   2.029   3.729   7.493
73831SOL    HW223333   1.968   3.639   7.599
73832SOL     OW23334  12.088  10.146   6.003
73832SOL    HW123335  12.080  10.215   6.068
73832SOL    HW223336  12.030  10.077   6.034
73833SOL     OW23337   2.138   5.079   6.827
73833SOL    HW123338   2.233   5.066   6.828
73833SOL    HW223339   2.105   5.015   6.890
73834SOL     OW23340  13.140   6.174  14.797
73834SOL    HW123341  13.123   6.163  14.704
73834SOL    HW223342  13.211   6.238  14.801
73835SOL     OW23343   9.940  14.755   4.597
73835SOL    HW123344   9.989  14.829   4.560
73835SOL    HW223345   9.860  14.794   4.631
73836SOL     OW23346  10.538   7.430   2.147
73836SOL    HW123347  10.498   7.347   2.123
73836SOL    HW223348  10.503   7.492   2.083
73837SOL     OW23349   2.901   8.797   2.524
73837SOL    HW123350   2.880   8.751   2.442
73837SOL    HW223351   2.822   8.846   2.545
73838SOL     OW23352   7.013   1.744   4.455
73838SOL    HW123353   6.963   1.664   4.436
73838SOL    HW223354   6.984   1.807   4.389
73839SOL     OW23355   5.568  12.083   7.567
73839SOL    HW123356   5.649  12.033   7.569
73839SOL    HW223357   5.502  12.021   7.537
73840SOL     OW23358  10.279  14.360   8.138
73840SOL    HW123359  10.284  14.299   8.211
73840SOL    HW223360  10.214  14.424   8.164
73841SOL     OW23361   4.730   3.041   8.675
73841SOL    HW123362   4.772   2.965   8.716
73841SOL    HW223363   4.691   3.007   8.595
73842SOL     OW23364   8.898  13.556  14.852
73842SOL    HW123365   8.833  13.527  14.789
73842SOL    HW223366   8.849  13.567   0.052
73843SOL     OW23367  10.046   1.611  11.132
73843SOL    HW123368  10.020   1.523  11.157
73843SOL    HW223369  10.140   1.604  11.113
73844SOL     OW23370   0.580   5.738   9.725
73844SOL    HW123371   0.535   5.704   9.647
73844SOL    HW223372   0.661   5.775   9.692
73845SOL     OW23373   4.019  10.056   9.941
73845SOL    HW123374   4.088  10.023   9.999
73845SOL    HW223375   3.988   9.979   9.894
73846SOL     OW23376   9.921  10.510  14.612
73846SOL    HW123377   9.868  10.574  14.565
73846SOL    HW223378   9.862  10.435  14.625
73847SOL     OW23379  11.207   0.960   4.579
73847SOL    HW123380  11.289   0.911   4.589
73847SOL    HW223381  11.139   0.898   4.605
73848SOL     OW23382   7.138   8.786  11.045
73848SOL    HW123383   7.069   8.762  11.107
73848SOL    HW223384   7.134   8.882  11.041
73849SOL     OW23385  11.635  13.928   9.398
73849SOL    HW123386  11.648  13.877   9.478
73849SOL    HW223387  11.582  14.003   9.425
73850SOL     OW23388   0.617   6.994   1.729
73850SOL    HW123389   0.595   7.006   1.822
73850SOL    HW223390   0.533   6.991   1.684
73851SOL     OW23391   0.273   9.291   8.516
73851SOL    HW123392   0.183   9.312   8.540
73851SOL    HW223393   0.273   9.195   8.507
73852SOL     OW23394   7.203  11.600   3.973
73852SOL    HW123395   7.263  11.600   3.899
73852SOL    HW223396   7.128  11.547   3.944
73853SOL     OW23397  11.245   3.590   7.561
73853SOL    HW123398  11.173   3.528   7.575
73853SOL    HW223399  11.214   3.649   7.493
73854SOL     OW23400  14.791  14.679   4.704
73854SOL    HW123401  14.744  14.642   4.779
73854SOL    HW223402  14.794  14.608   4.640
73855SOL     OW23403   0.756   4.317  11.351
73855SOL    HW123404   0.778   4.251  11.416
73855SOL    HW223405   0.790   4.282  11.268
73856SOL     OW23406   6.566   4.616  11.877
73856SOL    HW123407   6.643   4.570  11.912
73856SOL    HW223408   6.530   4.663  11.952
73857SOL     OW23409   2.940   7.493   8.567
73857SOL    HW123410   3.030   7.476   8.593
73857SOL    HW223411   2.921   7.581   8.602
73858SOL     OW23412  14.802   9.539   9.023
73858SOL    HW123413  14.863   9.598   9.068
73858SOL    HW223414  14.858   9.487   8.964
73859SOL     OW23415   3.648  11.068   6.364
73859SOL    HW123416   3.635  10.977   6.338
73859SOL    HW223417   3.714  11.064   6.434
73860SOL     OW23418  10.899  10.276  12.016
73860SOL    HW123419  10.982  10.323  12.005
73860SOL    HW223420  10.891  10.224  11.936
73861SOL     OW23421   3.241   2.853   8.340
73861SOL    HW123422   3.204   2.795   8.407
73861SOL    HW223423   3.293   2.795   8.284
73862SOL     OW23424  12.151   4.551  11.136
73862SOL    HW123425  12.078   4.608  11.113
73862SOL    HW223426  12.205   4.604  11.195
73863SOL     OW23427  11.403   9.370   7.169
73863SOL    HW123428  11.377   9.333   7.253
73863SOL    HW223429  11.448   9.451   7.192
73864SOL     OW23430   3.109   2.480   3.934
73864SOL    HW123431   3.096   2.458   4.026
73864SOL    HW223432   3.021   2.477   3.897
73865SOL     OW23433   2.476   4.225   9.039
73865SOL    HW123434   2.395   4.173   9.048
73865SOL    HW223435   2.455   4.308   9.081
73866SOL     OW23436   5.745   1.825   4.856
73866SOL    HW123437   5.685   1.763   4.897
73866SOL    HW223438   5.832   1.797   4.886
73867SOL     OW23439   0.797   0.825   7.471
73867SOL    HW123440   0.708   0.795   7.489
73867SOL    HW223441   0.786   0.903   7.417
73868SOL     OW23442  10.685  13.926   1.222
73868SOL    HW123443  10.600  13.969   1.235
73868SOL    HW223444  10.686  13.856   1.287
73869SOL     OW23445  13.838   1.620  13.624
73869SOL    HW123446  13.855   1.530  13.598
73869SOL    HW223447  13.871   1.626  13.713
73870SOL     OW23448  11.680  12.053  10.250
73870SOL    HW123449  11.618  12.101  10.305
73870SOL    HW223450  11.765  12.091  10.270
73871SOL     OW23451  12.205  11.007  14.303
73871SOL    HW123452  12.181  11.055  14.382
73871SOL    HW223453  12.122  10.977  14.266
73872SOL     OW23454   9.414  12.952   9.970
73872SOL    HW123455   9.425  12.951  10.065
73872SOL    HW223456   9.375  13.037   9.952
73873SOL     OW23457   1.922   2.475   3.020
73873SOL    HW123458   1.836   2.516   3.034
73873SOL    HW223459   1.977   2.512   3.089
73874SOL     OW23460   9.766   0.639   8.899
73874SOL    HW123461   9.696   0.574   8.911
73874SOL    HW223462   9.838   0.589   8.860
73875SOL     OW23463  13.727  13.864   9.030
73875SOL    HW123464  13.673  13.883   8.953
73875SOL    HW223465  13.670  13.882   9.104
73876SOL     OW23466   8.427  12.598   1.740
73876SOL    HW123467   8.354  12.545   1.772
73876SOL    HW223468   8.495  12.535   1.718
73877SOL     OW23469  11.604   5.211   8.497
73877SOL    HW123470  11.530   5.242   8.444
73877SOL    HW223471  11.681   5.244   8.451
73878SOL     OW23472   6.545  13.484  10.230
73878SOL    HW123473   6.591  13.480  10.146
73878SOL    HW223474   6.598  13.543  10.283
73879SOL     OW23475   8.977  12.291   9.731
73879SOL    HW123476   8.917  12.278   9.804
73879SOL    HW223477   9.064  12.284   9.769
73880SOL     OW23478  10.008  11.082  11.167
73880SOL    HW123479   9.918  11.106  11.188
73880SOL    HW223480  10.000  11.002  11.115
73881SOL     OW23481   0.888   2.097   2.175
73881SOL    HW123482   0.970   2.140   2.150
73881SOL    HW223483   0.822   2.138   2.120
73882SOL     OW23484   6.675   1.702   6.736
73882SOL    HW123485   6.764   1.682   6.708
73882SOL    HW223486   6.661   1.649   6.814
73883SOL     OW23487   8.876  10.205  10.829
73883SOL    HW123488   8.958  10.162  10.852
73883SOL    HW223489   8.810  10.137  10.839
73884SOL     OW23490   2.452   5.320   2.413
73884SOL    HW123491   2.463   5.311   2.319
73884SOL    HW223492   2.439   5.231   2.445
73885SOL     OW23493   2.276   9.937   5.025
73885SOL    HW123494   2.204   9.997   5.005
73885SOL    HW223495   2.233   9.858   5.057
73886SOL     OW23496   7.872   5.631   1.088
73886SOL    HW123497   7.925   5.618   1.009
73886SOL    HW223498   7.861   5.543   1.124
73887SOL     OW23499   1.136   5.146   2.574
73887SOL    HW123500   1.164   5.232   2.543
73887SOL    HW223501   1.056   5.128   2.524
73888SOL     OW23502   6.685   3.328   7.456
73888SOL    HW123503   6.596   3.301   7.480
73888SOL    HW223504   6.673   3.380   7.377
73889SOL     OW23505   5.094   9.246   0.953
73889SOL    HW123506   5.003   9.246   0.985
73889SOL    HW223507   5.105   9.159   0.916
73890SOL     OW23508   8.953   7.030  14.102
73890SOL    HW123509   9.009   6.959  14.071
73890SOL    HW223510   8.875   6.986  14.136
73891SOL     OW23511  14.059   6.857   4.066
73891SOL    HW123512  14.140   6.808   4.050
73891SOL    HW223513  13.991   6.806   4.021
73892SOL     OW23514   8.643  13.212  11.587
73892SOL    HW123515   8.642  13.178  11.677
73892SOL    HW223516   8.707  13.158  11.541
73893SOL     OW23517   7.428  13.061   1.820
73893SOL    HW123518   7.455  12.978   1.858
73893SOL    HW223519   7.415  13.119   1.895
73894SOL     OW23520   5.012   2.069   6.277
73894SOL    HW123521   4.967   2.009   6.217
73894SOL    HW223522   4.943   2.098   6.337
73895SOL     OW23523   3.749  10.482   6.643
73895SOL    HW123524   3.698  10.560   6.666
73895SOL    HW223525   3.765  10.438   6.727
73896SOL     OW23526   0.148  12.241   8.552
73896SOL    HW123527   0.208  12.308   8.520
73896SOL    HW223528   0.123  12.192   8.473
73897SOL     OW23529   0.664   3.176   1.235
73897SOL    HW123530   0.665   3.089   1.195
73897SOL    HW223531   0.684   3.235   1.163
73898SOL     OW23532   7.930  10.977   4.757
73898SOL    HW123533   7.899  11.029   4.831
73898SOL    HW223534   7.989  11.036   4.710
73899SOL     OW23535   7.349  11.978  10.406
73899SOL    HW123536   7.302  11.952  10.326
73899SOL    HW223537   7.322  12.069  10.420
73900SOL     OW23538   6.756   0.168  12.505
73900SOL    HW123539   6.832   0.129  12.549
73900SOL    HW223540   6.700   0.093  12.485
73901SOL     OW23541  13.126   1.102   0.192
73901SOL    HW123542  13.207   1.052   0.182
73901SOL    HW223543  13.066   1.042   0.237
73902SOL     OW23544   1.497  11.674   5.335
73902SOL    HW123545   1.578  11.723   5.350
73902SOL    HW223546   1.429  11.742   5.329
73903SOL     OW23547   8.519  13.597   6.210
73903SOL    HW123548   8.589  13.642   6.163
73903SOL    HW223549   8.440  13.620   6.162
73904SOL     OW23550   0.718   6.179  14.162
73904SOL    HW123551   0.788   6.232  14.201
73904SOL    HW223552   0.643   6.238  14.155
73905SOL     OW23553   7.811   8.318   5.656
73905SOL    HW123554   7.837   8.305   5.748
73905SOL    HW223555   7.893   8.330   5.609
73906SOL     OW23556  12.013   1.060   6.474
73906SOL    HW123557  12.078   0.990   6.473
73906SOL    HW223558  11.930   1.016   6.459
73907SOL     OW23559   1.012  11.143   9.261
73907SOL    HW123560   0.947  11.101   9.317
73907SOL    HW223561   1.047  11.072   9.207
73908SOL     OW23562   8.327  14.208  11.797
73908SOL    HW123563   8.332  14.242  11.886
73908SOL    HW223564   8.239  14.232  11.768
73909SOL     OW23565   1.396  10.911  14.170
73909SOL    HW123566   1.452  10.973  14.216
73909SOL    HW223567   1.336  10.966  14.119
73910SOL     OW23568   4.005   9.929  10.676
73910SOL    HW123569   4.030  10.021  10.667
73910SOL    HW223570   4.036   9.888  10.595
73911SOL     OW23571   0.900   7.524  14.393
73911SOL    HW123572   0.994   7.522  14.377
73911SOL    HW223573   0.881   7.440  14.435
73912SOL     OW23574   7.752  10.571  11.847
73912SOL    HW123575   7.761  10.522  11.928
73912SOL    HW223576   7.676  10.628  11.861
73913SOL     OW23577   6.794   6.428   1.870
73913SOL    HW123578   6.759   6.506   1.826
73913SOL    HW223579   6.887   6.448   1.884
73914SOL     OW23580  10.767   8.775   2.297
73914SOL    HW123581  10.837   8.839   2.281
73914SOL    HW223582  10.689   8.828   2.314
73915SOL     OW23583  14.355   9.739   7.790
73915SOL    HW123584  14.397   9.753   7.705
73915SOL    HW223585  14.427   9.747   7.853
73916SOL     OW23586  13.729  14.138   9.396
73916SOL    HW123587  13.725  14.220   9.445
73916SOL    HW223588  13.656  14.086   9.431
73917SOL     OW23589   2.554   5.507   7.969
73917SOL    HW123590   2.491   5.507   8.041
73917SOL    HW223591   2.501   5.520   7.891
73918SOL     OW23592   4.821   4.274   5.824
73918SOL    HW123593   4.830   4.258   5.918
73918SOL    HW223594   4.798   4.189   5.787
73919SOL     OW23595   8.688  13.726   3.206
73919SOL    HW123596   8.736  13.736   3.124
73919SOL    HW223597   8.705  13.807   3.255
73920SOL     OW23598  10.419  12.152   2.194
73920SOL    HW123599  10.482  12.115   2.131
73920SOL    HW223600  10.422  12.247   2.177
73921SOL     OW23601  11.363   6.057   5.904
73921SOL    HW123602  11.322   6.079   5.988
73921SOL    HW223603  11.369   6.141   5.858
73922SOL     OW23604   8.767   1.800   5.654
73922SOL    HW123605   8.687   1.764   5.691
73922SOL    HW223606   8.738   1.876   5.604
73923SOL     OW23607   2.907   0.920   2.378
73923SOL    HW123608   2.870   0.838   2.345
73923SOL    HW223609   2.965   0.950   2.308
73924SOL     OW23610  10.862   9.861  12.572
73924SOL    HW123611  10.795   9.852  12.639
73924SOL    HW223612  10.926   9.921  12.611
73925SOL     OW23613  14.440   4.734   5.388
73925SOL    HW123614  14.500   4.781   5.445
73925SOL    HW223615  14.488   4.654   5.364
73926SOL     OW23616   0.823   3.418  14.079
73926SOL    HW123617   0.768   3.458  14.011
73926SOL    HW223618   0.872   3.350  14.033
73927SOL     OW23619   5.848   6.705   8.095
73927SOL    HW123620   5.920   6.755   8.133
73927SOL    HW223621   5.878   6.614   8.098
73928SOL     OW23622   3.492  14.060   9.851
73928SOL    HW123623   3.570  14.111   9.831
73928SOL    HW223624   3.495  14.046   9.946
73929SOL     OW23625  13.225  13.031   3.594
73929SOL    HW123626  13.174  13.094   3.646
73929SOL    HW223627  13.258  12.968   3.658
73930SOL     OW23628  13.938  12.083   3.688
73930SOL    HW123629  13.846  12.070   3.712
73930SOL    HW223630  13.979  11.999   3.704
73931SOL     OW23631  14.242   7.322  10.006
73931SOL    HW123632  14.268   7.276  10.085
73931SOL    HW223633  14.184   7.392  10.037
73932SOL     OW23634   8.070   5.097   4.712
73932SOL    HW123635   8.120   5.016   4.711
73932SOL    HW223636   8.059   5.120   4.620
73933SOL     OW23637   8.978   7.482   4.328
73933SOL    HW123638   8.928   7.548   4.281
73933SOL    HW223639   8.926   7.402   4.320
73934SOL     OW23640   0.819  13.761   8.170
73934SOL    HW123641   0.756  13.729   8.235
73934SOL    HW223642   0.810  13.700   8.096
73935SOL     OW23643   2.524  10.164  12.210
73935SOL    HW123644   2.533  10.118  12.294
73935SOL    HW223645   2.432  10.190  12.207
73936SOL     OW23646  12.701   7.047  11.844
73936SOL    HW123647  12.649   7.015  11.770
73936SOL    HW223648  12.741   7.127  11.812
73937SOL     OW23649  13.055  11.290  12.135
73937SOL    HW123650  13.097  11.215  12.095
73937SOL    HW223651  13.126  11.352  12.152
73938SOL     OW23652   3.032   9.220  13.744
73938SOL    HW123653   2.965   9.201  13.809
73938SOL    HW223654   3.112   9.183  13.780
73939SOL     OW23655  10.102   9.777   6.212
73939SOL    HW123656  10.135   9.688   6.204
73939SOL    HW223657  10.179   9.829   6.236
73940SOL     OW23658  10.110   7.013   3.211
73940SOL    HW123659  10.079   7.058   3.290
73940SOL    HW223660  10.116   6.921   3.237
73941SOL     OW23661   9.812   8.233   1.035
73941SOL    HW123662   9.774   8.212   0.950
73941SOL    HW223663   9.764   8.310   1.065
73942SOL     OW23664   0.760   3.665   1.818
73942SOL    HW123665   0.673   3.663   1.858
73942SOL    HW223666   0.805   3.737   1.861
73943SOL     OW23667   7.069   3.336   9.463
73943SOL    HW123668   7.020   3.376   9.534
73943SOL    HW223669   7.155   3.379   9.467
73944SOL     OW23670   7.119  11.776  13.129
73944SOL    HW123671   7.024  11.764  13.119
73944SOL    HW223672   7.131  11.789  13.223
73945SOL     OW23673  12.604   1.561   3.751
73945SOL    HW123674  12.632   1.500   3.683
73945SOL    HW223675  12.577   1.505   3.824
73946SOL     OW23676   3.497   8.536   0.296
73946SOL    HW123677   3.489   8.628   0.320
73946SOL    HW223678   3.412   8.514   0.256
73947SOL     OW23679   3.043  10.223   4.344
73947SOL    HW123680   3.102  10.174   4.287
73947SOL    HW223681   2.997  10.156   4.394
73948SOL     OW23682  10.434   9.124  13.733
73948SOL    HW123683  10.508   9.068  13.710
73948SOL    HW223684  10.433   9.191  13.665
73949SOL     OW23685  13.643   1.125  11.651
73949SOL    HW123686  13.671   1.167  11.732
73949SOL    HW223687  13.557   1.088  11.670
73950SOL     OW23688   4.292  11.779  13.929
73950SOL    HW123689   4.204  11.747  13.946
73950SOL    HW223690   4.323  11.810  14.014
73951SOL     OW23691   3.635   9.027  12.462
73951SOL    HW123692   3.561   9.043  12.520
73951SOL    HW223693   3.622   9.087  12.389
73952SOL     OW23694  12.400   1.407  13.904
73952SOL    HW123695  12.477   1.462  13.911
73952SOL    HW223696  12.332   1.464  13.868
73953SOL     OW23697   5.562  11.015   2.039
73953SOL    HW123698   5.509  10.953   2.089
73953SOL    HW223699   5.544  10.994   1.947
73954SOL     OW23700  12.320   6.085   7.627
73954SOL    HW123701  12.411   6.103   7.603
73954SOL    HW223702  12.325   6.059   7.719
73955SOL     OW23703  10.807   9.873   7.147
73955SOL    HW123704  10.742   9.829   7.092
73955SOL    HW223705  10.884   9.881   7.091
73956SOL     OW23706   9.927   6.037   9.818
73956SOL    HW123707   9.892   5.947   9.821
73956SOL    HW223708  10.022   6.026   9.833
73957SOL     OW23709  13.621   6.433  14.003
73957SOL    HW123710  13.549   6.395  13.953
73957SOL    HW223711  13.695   6.375  13.985
73958SOL     OW23712   6.761   2.773   5.255
73958SOL    HW123713   6.819   2.699   5.270
73958SOL    HW223714   6.732   2.764   5.164
73959SOL     OW23715   2.469   2.812  11.646
73959SOL    HW123716   2.395   2.757  11.672
73959SOL    HW223717   2.465   2.887  11.706
73960SOL     OW23718  14.606  11.993  14.778
73960SOL    HW123719  14.600  11.918  14.837
73960SOL    HW223720  14.557  12.062  14.822
73961SOL     OW23721   4.870   2.707   6.092
73961SOL    HW123722   4.800   2.680   6.151
73961SOL    HW223723   4.941   2.645   6.107
73962SOL     OW23724   4.903   3.004   7.438
73962SOL    HW123725   4.944   3.029   7.355
73962SOL    HW223726   4.848   2.929   7.416
73963SOL     OW23727   4.809  14.095   2.093
73963SOL    HW123728   4.855  14.178   2.108
73963SOL    HW223729   4.717  14.119   2.085
73964SOL     OW23730  14.210  12.126   5.493
73964SOL    HW123731  14.268  12.171   5.432
73964SOL    HW223732  14.184  12.046   5.446
73965SOL     OW23733   1.183  12.306   2.066
73965SOL    HW123734   1.255  12.352   2.109
73965SOL    HW223735   1.214  12.290   1.977
73966SOL     OW23736   2.272   3.671   6.199
73966SOL    HW123737   2.270   3.576   6.183
73966SOL    HW223738   2.252   3.679   6.293
73967SOL     OW23739   1.560  10.185   8.825
73967SOL    HW123740   1.575  10.194   8.731
73967SOL    HW223741   1.476  10.228   8.841
73968SOL     OW23742   2.530   3.540   8.029
73968SOL    HW123743   2.477   3.509   8.101
73968SOL    HW223744   2.516   3.476   7.959
73969SOL     OW23745   7.927  14.144   4.910
73969SOL    HW123746   7.928  14.055   4.876
73969SOL    HW223747   8.010  14.182   4.883
73970SOL     OW23748   6.297   2.151   5.248
73970SOL    HW123749   6.345   2.209   5.189
73970SOL    HW223750   6.363   2.115   5.307
73971SOL     OW23751   9.930   1.297   1.476
73971SOL    HW123752  10.003   1.238   1.495
73971SOL    HW223753   9.892   1.263   1.395
73972SOL     OW23754   3.469  11.551   6.885
73972SOL    HW123755   3.458  11.461   6.917
73972SOL    HW223756   3.415  11.555   6.807
73973SOL     OW23757   6.992  14.406   4.170
73973SOL    HW123758   7.042  14.447   4.241
73973SOL    HW223759   6.930  14.348   4.214
73974SOL     OW23760   3.140  12.454  13.515
73974SOL    HW123761   3.148  12.377  13.571
73974SOL    HW223762   3.142  12.419  13.426
73975SOL     OW23763   2.900  11.944  10.103
73975SOL    HW123764   2.972  11.940  10.165
73975SOL    HW223765   2.941  11.972  10.021
73976SOL     OW23766   0.820  13.345   4.079
73976SOL    HW123767   0.782  13.291   4.009
73976SOL    HW223768   0.749  13.404   4.105
73977SOL     OW23769   5.898  13.500   8.990
73977SOL    HW123770   5.987  13.521   9.020
73977SOL    HW223771   5.841  13.556   9.042
73978SOL     OW23772   6.130  11.699   4.934
73978SOL    HW123773   6.179  11.632   4.982
73978SOL    HW223774   6.194  11.739   4.876
73979SOL     OW23775  14.735   1.459   0.687
73979SOL    HW123776  14.808   1.506   0.647
73979SOL    HW223777  14.667   1.459   0.619
73980SOL     OW23778   9.973   8.848   6.508
73980SOL    HW123779  10.057   8.801   6.506
73980SOL    HW223780   9.924   8.811   6.434
73981SOL     OW23781   1.303   5.766   1.724
73981SOL    HW123782   1.346   5.684   1.701
73981SOL    HW223783   1.372   5.820   1.763
73982SOL     OW23784  12.060   3.407   6.354
73982SOL    HW123785  12.136   3.362   6.318
73982SOL    HW223786  12.005   3.338   6.390
73983SOL     OW23787   6.926  10.359   9.238
73983SOL    HW123788   7.022  10.368   9.242
73983SOL    HW223789   6.900  10.411   9.163
73984SOL     OW23790   7.663   8.675   6.065
73984SOL    HW123791   7.745   8.632   6.090
73984SOL    HW223792   7.687   8.767   6.054
73985SOL     OW23793   9.967   7.863   3.629
73985SOL    HW123794   9.962   7.892   3.721
73985SOL    HW223795  10.053   7.891   3.599
73986SOL     OW23796  11.778   6.976   0.595
73986SOL    HW123797  11.838   7.037   0.637
73986SOL    HW223798  11.715   7.031   0.550
73987SOL     OW23799  13.944   1.410   5.944
73987SOL    HW123800  13.946   1.323   5.904
73987SOL    HW223801  13.988   1.398   6.028
73988SOL     OW23802   8.768   0.522   4.719
73988SOL    HW123803   8.679   0.496   4.695
73988SOL    HW223804   8.766   0.530   4.814
73989SOL     OW23805   3.882   6.303  13.791
73989SOL    HW123806   3.944   6.315  13.719
73989SOL    HW223807   3.801   6.275  13.748
73990SOL     OW23808   6.573  10.521  10.914
73990SOL    HW123809   6.645  10.474  10.872
73990SOL    HW223810   6.596  10.522  11.007
73991SOL     OW23811   5.089   0.505   1.900
73991SOL    HW123812   5.014   0.461   1.940
73991SOL    HW223813   5.161   0.487   1.960
73992SOL     OW23814  13.362   1.247   0.593
73992SOL    HW123815  13.344   1.334   0.557
73992SOL    HW223816  13.436   1.261   0.653
73993SOL     OW23817   9.629  12.444   1.694
73993SOL    HW123818   9.541  12.408   1.681
73993SOL    HW223819   9.662  12.399   1.772
73994SOL     OW23820   1.026   7.448   1.333
73994SOL    HW123821   0.982   7.367   1.307
73994SOL    HW223822   0.959   7.498   1.379
73995SOL     OW23823   0.915  11.716   7.789
73995SOL    HW123824   0.907  11.639   7.845
73995SOL    HW223825   0.851  11.778   7.824
73996SOL     OW23826  12.887   8.780  10.865
73996SOL    HW123827  12.840   8.727  10.928
73996SOL    HW223828  12.844   8.865  10.867
73997SOL     OW23829   5.503  10.132  14.466
73997SOL    HW123830   5.425  10.185  14.482
73997SOL    HW223831   5.552  10.180  14.400
73998SOL     OW23832   9.520  10.111   2.024
73998SOL    HW123833   9.515  10.030   2.075
73998SOL    HW223834   9.588  10.163   2.067
73999SOL     OW23835   9.154  10.335   0.199
73999SOL    HW123836   9.213  10.391   0.149
73999SOL    HW223837   9.083  10.314   0.138
74000SOL     OW23838   1.242  13.114  10.448
74000SOL    HW123839   1.299  13.164  10.389
74000SOL    HW223840   1.239  13.026  10.410
74001SOL     OW23841   2.744   5.854   8.448
74001SOL    HW123842   2.788   5.784   8.400
74001SOL    HW223843   2.812   5.890   8.505
74002SOL     OW23844   4.138   8.182   6.048
74002SOL    HW123845   4.117   8.126   6.123
74002SOL    HW223846   4.053   8.204   6.010
74003SOL     OW23847   6.836   2.369  10.347
74003SOL    HW123848   6.794   2.283  10.338
74003SOL    HW223849   6.924   2.357  10.312
74004SOL     OW23850  11.534   5.224   6.986
74004SOL    HW123851  11.564   5.136   7.009
74004SOL    HW223852  11.502   5.216   6.896
74005SOL     OW23853   8.806   7.830   5.730
74005SOL    HW123854   8.778   7.861   5.816
74005SOL    HW223855   8.890   7.874   5.715
74006SOL     OW23856  10.011   8.590   0.893
74006SOL    HW123857   9.996   8.668   0.946
74006SOL    HW223858   9.943   8.594   0.825
74007SOL     OW23859   9.784  12.329   6.084
74007SOL    HW123860   9.773  12.296   5.995
74007SOL    HW223861   9.836  12.262   6.129
74008SOL     OW23862  14.720  10.453  11.027
74008SOL    HW123863  14.800  10.404  11.006
74008SOL    HW223864  14.726  10.470  11.120
74009SOL     OW23865   1.663   8.247  13.867
74009SOL    HW123866   1.585   8.193  13.879
74009SOL    HW223867   1.636   8.335  13.894
74010SOL     OW23868   9.228  13.440   7.038
74010SOL    HW123869   9.290  13.439   7.111
74010SOL    HW223870   9.142  13.435   7.079
74011SOL     OW23871  10.299  13.806   7.858
74011SOL    HW123872  10.374  13.755   7.889
74011SOL    HW223873  10.290  13.782   7.766
74012SOL     OW23874  13.386  10.305   6.696
74012SOL    HW123875  13.363  10.335   6.608
74012SOL    HW223876  13.424  10.382   6.738
74013SOL     OW23877   2.099   5.645  13.646
74013SOL    HW123878   2.080   5.553  13.627
74013SOL    HW223879   2.157   5.673  13.575
74014SOL     OW23880   5.716   6.308   8.090
74014SOL    HW123881   5.794   6.363   8.079
74014SOL    HW223882   5.744   6.220   8.065
74015SOL     OW23883   9.581   6.205   8.447
74015SOL    HW123884   9.572   6.247   8.532
74015SOL    HW223885   9.601   6.277   8.387
74016SOL     OW23886   8.917  11.715   2.527
74016SOL    HW123887   8.952  11.632   2.562
74016SOL    HW223888   8.829  11.721   2.563
74017SOL     OW23889   4.094   1.027   6.776
74017SOL    HW123890   4.017   1.072   6.742
74017SOL    HW223891   4.076   1.016   6.869
74018SOL     OW23892   8.381   6.190   4.452
74018SOL    HW123893   8.426   6.156   4.530
74018SOL    HW223894   8.317   6.252   4.487
74019SOL     OW23895   3.134  12.483  10.863
74019SOL    HW123896   3.073  12.555  10.880
74019SOL    HW223897   3.141  12.438  10.947
74020SOL     OW23898   1.237   3.645  14.420
74020SOL    HW123899   1.162   3.593  14.390
74020SOL    HW223900   1.304   3.580  14.441
74021SOL     OW23901   4.370   2.657   4.526
74021SOL    HW123902   4.300   2.708   4.567
74021SOL    HW223903   4.431   2.723   4.494
74022SOL     OW23904   7.241  13.988   8.693
74022SOL    HW123905   7.170  14.047   8.668
74022SOL    HW223906   7.225  13.970   8.786
74023SOL     OW23907   5.602   9.395  14.333
74023SOL    HW123908   5.511   9.424  14.331
74023SOL    HW223909   5.645   9.450  14.267
74024SOL     OW23910   0.392   2.399  12.935
74024SOL    HW123911   0.434   2.480  12.906
74024SOL    HW223912   0.331   2.427  13.003
74025SOL     OW23913   7.447   9.754   1.981
74025SOL    HW123914   7.366   9.803   1.991
74025SOL    HW223915   7.469   9.762   1.888
74026SOL     OW23916   1.912   9.509   3.804
74026SOL    HW123917   1.892   9.416   3.792
74026SOL    HW223918   1.983   9.525   3.742
74027SOL     OW23919   8.645   0.884   5.224
74027SOL    HW123920   8.665   0.976   5.209
74027SOL    HW223921   8.559   0.871   5.186
74028SOL     OW23922   6.346   4.642  13.209
74028SOL    HW123923   6.379   4.552  13.210
74028SOL    HW223924   6.292   4.648  13.288
74029SOL     OW23925   5.923   1.248   5.021
74029SOL    HW123926   5.842   1.213   5.058
74029SOL    HW223927   5.917   1.230   4.927
74030SOL     OW23928   4.681  13.859   3.114
74030SOL    HW123929   4.656  13.834   3.025
74030SOL    HW223930   4.761  13.810   3.131
74031SOL     OW23931  10.085   3.813  11.798
74031SOL    HW123932  10.048   3.726  11.786
74031SOL    HW223933  10.097   3.846  11.709
74032SOL     OW23934   5.442   9.754   4.214
74032SOL    HW123935   5.364   9.790   4.171
74032SOL    HW223936   5.470   9.822   4.275
74033SOL     OW23937   4.256  11.885  13.051
74033SOL    HW123938   4.194  11.851  12.986
74033SOL    HW223939   4.337  11.897  13.003
74034SOL     OW23940  10.511   3.246  13.013
74034SOL    HW123941  10.556   3.326  13.040
74034SOL    HW223942  10.485   3.263  12.923
74035SOL     OW23943   2.319  12.475  11.177
74035SOL    HW123944   2.259  12.544  11.204
74035SOL    HW223945   2.402  12.497  11.221
74036SOL     OW23946  10.875  10.500  10.371
74036SOL    HW123947  10.809  10.444  10.330
74036SOL    HW223948  10.940  10.514  10.303
74037SOL     OW23949   9.980  10.152  13.894
74037SOL    HW123950  10.060  10.189  13.931
74037SOL    HW223951   9.964  10.204  13.815
74038SOL     OW23952   5.265   3.289   0.459
74038SOL    HW123953   5.308   3.233   0.395
74038SOL    HW223954   5.334   3.314   0.520
74039SOL     OW23955  13.049  12.045   6.491
74039SOL    HW123956  13.040  12.031   6.585
74039SOL    HW223957  13.144  12.039   6.475
74040SOL     OW23958  10.499   8.353   2.606
74040SOL    HW123959  10.452   8.409   2.667
74040SOL    HW223960  10.584   8.339   2.648
74041SOL     OW23961   2.789   3.431  11.378
74041SOL    HW123962   2.772   3.339  11.401
74041SOL    HW223963   2.747   3.481  11.449
74042SOL     OW23964   1.111   7.068   6.815
74042SOL    HW123965   1.167   7.133   6.860
74042SOL    HW223966   1.164   6.988   6.814
74043SOL     OW23967   0.760  12.646  11.921
74043SOL    HW123968   0.757  12.710  11.850
74043SOL    HW223969   0.738  12.562  11.878
74044SOL     OW23970  13.406   5.629   9.814
74044SOL    HW123971  13.371   5.695   9.873
74044SOL    HW223972  13.501   5.641   9.817
74045SOL     OW23973  11.536   3.822   4.692
74045SOL    HW123974  11.510   3.906   4.731
74045SOL    HW223975  11.621   3.802   4.732
74046SOL     OW23976   7.117  14.365   6.363
74046SOL    HW123977   7.063  14.435   6.325
74046SOL    HW223978   7.055  14.297   6.388
74047SOL     OW23979   9.925  14.299   9.375
74047SOL    HW123980   9.879  14.383   9.362
74047SOL    HW223981  10.013  14.315   9.342
74048SOL     OW23982  12.432   6.754  10.143
74048SOL    HW123983  12.346   6.715  10.157
74048SOL    HW223984  12.418   6.818  10.073
74049SOL     OW23985   0.894   9.256  13.339
74049SOL    HW123986   0.987   9.274  13.325
74049SOL    HW223987   0.891   9.162  13.359
74050SOL     OW23988   8.994  10.735   5.842
74050SOL    HW123989   9.029  10.652   5.873
74050SOL    HW223990   9.011  10.734   5.748
74051SOL     OW23991  14.544   1.157  10.233
74051SOL    HW123992  14.460   1.115  10.249
74051SOL    HW223993  14.524   1.230  10.174
74052SOL     OW23994   9.032  14.860   3.043
74052SOL    HW123995   9.067   0.041   3.106
74052SOL    HW223996   9.102  14.851   2.977
74053SOL     OW23997  13.499   3.680   5.901
74053SOL    HW123998  13.497   3.675   5.997
74053SOL    HW223999  13.584   3.641   5.877
74054SOL     OW24000  11.938   9.164  10.298
74054SOL    HW124001  12.023   9.121  10.297
74054SOL    HW224002  11.934   9.209  10.383
74055SOL     OW24003   6.213   1.775  12.643
74055SOL    HW124004   6.273   1.760  12.716
74055SOL    HW224005   6.253   1.727  12.570
74056SOL     OW24006  11.548  12.177   3.959
74056SOL    HW124007  11.556  12.270   3.937
74056SOL    HW224008  11.479  12.145   3.901
74057SOL     OW24009  12.411   4.702  10.968
74057SOL    HW124010  12.437   4.740  11.052
74057SOL    HW224011  12.418   4.773  10.905
74058SOL     OW24012   7.512   0.050   4.365
74058SOL    HW124013   7.471   0.015   4.444
74058SOL    HW224014   7.539  14.855   4.315
74059SOL     OW24015   4.733   6.987  12.635
74059SOL    HW124016   4.767   6.987  12.724
74059SOL    HW224017   4.641   7.012  12.645
74060SOL     OW24018   3.897  13.334  11.907
74060SOL    HW124019   3.824  13.333  11.845
74060SOL    HW224020   3.972  13.304  11.856
74061SOL     OW24021  11.620   1.504   6.995
74061SOL    HW124022  11.635   1.444   6.922
74061SOL    HW224023  11.699   1.558   6.998
74062SOL     OW24024   7.142   1.993   8.482
74062SOL    HW124025   7.055   1.956   8.469
74062SOL    HW224026   7.126   2.081   8.516
74063SOL     OW24027   2.390   3.348   3.229
74063SOL    HW124028   2.425   3.436   3.243
74063SOL    HW224029   2.338   3.331   3.307
74064SOL     OW24030   5.210  12.520   4.087
74064SOL    HW124031   5.253  12.485   4.009
74064SOL    HW224032   5.249  12.470   4.159
74065SOL     OW24033   5.911   9.314   6.552
74065SOL    HW124034   5.870   9.337   6.636
74065SOL    HW224035   5.849   9.344   6.486
74066SOL     OW24036   0.379   5.938   2.295
74066SOL    HW124037   0.442   5.866   2.288
74066SOL    HW224038   0.310   5.916   2.233
74067SOL     OW24039  11.467  14.556   2.602
74067SOL    HW124040  11.546  14.590   2.644
74067SOL    HW224041  11.500  14.495   2.536
74068SOL     OW24042   5.426   2.024   8.216
74068SOL    HW124043   5.439   1.960   8.286
74068SOL    HW224044   5.431   1.973   8.135
74069SOL     OW24045   7.530  12.910   6.942
74069SOL    HW124046   7.539  12.961   6.862
74069SOL    HW224047   7.511  12.975   7.010
74070SOL     OW24048  11.305   3.831   3.224
74070SOL    HW124049  11.223   3.881   3.225
74070SOL    HW224050  11.373   3.895   3.246
74071SOL     OW24051   5.198   7.396   2.691
74071SOL    HW124052   5.144   7.362   2.619
74071SOL    HW224053   5.165   7.350   2.768
74072SOL     OW24054   9.198   2.046   5.223
74072SOL    HW124055   9.216   2.138   5.204
74072SOL    HW224056   9.144   2.048   5.302
74073SOL     OW24057  13.280   8.414   4.467
74073SOL    HW124058  13.231   8.487   4.505
74073SOL    HW224059  13.371   8.443   4.469
74074SOL     OW24060   8.874   7.120  11.482
74074SOL    HW124061   8.828   7.149  11.560
74074SOL    HW224062   8.897   7.201  11.437
74075SOL     OW24063  14.605   7.250   5.308
74075SOL    HW124064  14.647   7.237   5.393
74075SOL    HW224065  14.536   7.315   5.325
74076SOL     OW24066   1.129   7.401  13.286
74076SOL    HW124067   1.122   7.482  13.337
74076SOL    HW224068   1.211   7.362  13.314
74077SOL     OW24069   8.354  13.657   4.979
74077SOL    HW124070   8.316  13.610   5.052
74077SOL    HW224071   8.323  13.747   4.990
74078SOL     OW24072  10.454   2.519   7.557
74078SOL    HW124073  10.409   2.444   7.596
74078SOL    HW224074  10.497   2.563   7.631
74079SOL     OW24075  11.221   0.614  13.790
74079SOL    HW124076  11.209   0.645  13.700
74079SOL    HW224077  11.258   0.688  13.837
74080SOL     OW24078  11.545   4.004   3.632
74080SOL    HW124079  11.608   4.061   3.676
74080SOL    HW224080  11.460   4.031   3.666
74081SOL     OW24081   5.332  13.644   6.742
74081SOL    HW124082   5.379  13.560   6.746
74081SOL    HW224083   5.240  13.620   6.740
74082SOL     OW24084   0.148  10.921  11.986
74082SOL    HW124085   0.233  10.963  11.977
74082SOL    HW224086   0.103  10.972  12.054
74083SOL     OW24087   0.604   5.158   4.222
74083SOL    HW124088   0.651   5.242   4.227
74083SOL    HW224089   0.663   5.101   4.172
74084SOL     OW24090   0.003   9.119   6.546
74084SOL    HW124091  14.874   9.159   6.632
74084SOL    HW224092  14.798   9.087   6.522
74085SOL     OW24093   8.550  11.392   2.771
74085SOL    HW124094   8.607  11.349   2.707
74085SOL    HW224095   8.610  11.438   2.829
74086SOL     OW24096   2.637   8.680   9.761
74086SOL    HW124097   2.577   8.695   9.688
74086SOL    HW224098   2.710   8.631   9.723
74087SOL     OW24099   4.471   5.414  10.333
74087SOL    HW124100   4.480   5.346  10.399
74087SOL    HW224101   4.402   5.381  10.274
74088SOL     OW24102   7.659   6.745   5.010
74088SOL    HW124103   7.692   6.683   4.945
74088SOL    HW224104   7.587   6.699   5.053
74089SOL     OW24105   4.017   0.193   5.700
74089SOL    HW124106   3.940   0.178   5.644
74089SOL    HW224107   3.989   0.262   5.760
74090SOL     OW24108  14.443   9.069  12.890
74090SOL    HW124109  14.499   8.999  12.857
74090SOL    HW224110  14.470   9.080  12.981
74091SOL     OW24111   3.408   7.991   5.241
74091SOL    HW124112   3.420   7.899   5.217
74091SOL    HW224113   3.465   8.039   5.181
74092SOL     OW24114  12.513   4.171  12.061
74092SOL    HW124115  12.584   4.190  12.122
74092SOL    HW224116  12.520   4.238  11.993
74093SOL     OW24117  11.392  11.491   9.342
74093SOL    HW124118  11.445  11.558   9.299
74093SOL    HW224119  11.316  11.480   9.285
74094SOL     OW24120  13.310  10.263   2.316
74094SOL    HW124121  13.404  10.247   2.310
74094SOL    HW224122  13.279  10.259   2.226
74095SOL     OW24123  11.529   4.679  13.688
74095SOL    HW124124  11.608   4.714  13.647
74095SOL    HW224125  11.559   4.650  13.775
74096SOL     OW24126   5.931   0.856   3.843
74096SOL    HW124127   5.849   0.874   3.798
74096SOL    HW224128   5.982   0.803   3.782
74097SOL     OW24129   9.918  10.843   4.523
74097SOL    HW124130   9.962  10.853   4.438
74097SOL    HW224131   9.988  10.849   4.588
74098SOL     OW24132   3.560  10.750  10.633
74098SOL    HW124133   3.491  10.747  10.698
74098SOL    HW224134   3.572  10.659  10.605
74099SOL     OW24135  10.356   0.463   3.434
74099SOL    HW124136  10.365   0.555   3.458
74099SOL    HW224137  10.445   0.434   3.416
74100SOL     OW24138  13.434   6.497   7.695
74100SOL    HW124139  13.506   6.553   7.725
74100SOL    HW224140  13.387   6.473   7.775
74101SOL     OW24141   0.666   3.321   9.969
74101SOL    HW124142   0.724   3.338   9.895
74101SOL    HW224143   0.725   3.295  10.040
74102SOL     OW24144   6.255   5.717  14.639
74102SOL    HW124145   6.253   5.646  14.703
74102SOL    HW224146   6.210   5.790  14.682
74103SOL     OW24147   5.994   7.443   3.869
74103SOL    HW124148   6.058   7.479   3.809
74103SOL    HW224149   6.045   7.392   3.932
74104SOL     OW24150   2.057  10.574  10.629
74104SOL    HW124151   2.053  10.639  10.699
74104SOL    HW224152   2.072  10.491  10.673
74105SOL     OW24153   4.060   7.153   2.694
74105SOL    HW124154   4.145   7.178   2.658
74105SOL    HW224155   4.015   7.236   2.708
74106SOL     OW24156   3.241   6.828   1.733
74106SOL    HW124157   3.326   6.843   1.693
74106SOL    HW224158   3.253   6.750   1.787
74107SOL     OW24159   1.697   3.442   6.584
74107SOL    HW124160   1.729   3.389   6.511
74107SOL    HW224161   1.776   3.464   6.634
74108SOL     OW24162   9.035   4.101   2.876
74108SOL    HW124163   9.104   4.035   2.874
74108SOL    HW224164   9.061   4.165   2.809
74109SOL     OW24165   9.342   4.589   0.001
74109SOL    HW124166   9.418   4.550  14.841
74109SOL    HW224167   9.356   4.575   0.095
74110SOL     OW24168   4.023  10.102   6.661
74110SOL    HW124169   3.929  10.085   6.656
74110SOL    HW224170   4.043  10.095   6.755
74111SOL     OW24171   0.198   3.690  11.536
74111SOL    HW124172   0.256   3.726  11.469
74111SOL    HW224173   0.202   3.754  11.607
74112SOL     OW24174   7.169   4.348   7.892
74112SOL    HW124175   7.257   4.385   7.882
74112SOL    HW224176   7.113   4.408   7.842
74113SOL     OW24177  10.968   2.395   9.406
74113SOL    HW124178  10.900   2.376   9.342
74113SOL    HW224179  10.979   2.313   9.455
74114SOL     OW24180   9.790   4.102   0.729
74114SOL    HW124181   9.816   4.164   0.798
74114SOL    HW224182   9.703   4.073   0.755
74115SOL     OW24183  14.426   5.852  10.190
74115SOL    HW124184  14.342   5.837  10.233
74115SOL    HW224185  14.416   5.936  10.146
74116SOL     OW24186   8.004   7.826   0.294
74116SOL    HW124187   7.975   7.761   0.230
74116SOL    HW224188   7.972   7.909   0.259
74117SOL     OW24189  14.240  12.436   9.960
74117SOL    HW124190  14.215  12.400  10.045
74117SOL    HW224191  14.336  12.444   9.964
74118SOL     OW24192  13.890   2.283   8.233
74118SOL    HW124193  13.915   2.344   8.303
74118SOL    HW224194  13.805   2.249   8.260
74119SOL     OW24195   6.855   9.462   5.040
74119SOL    HW124196   6.856   9.389   4.979
74119SOL    HW224197   6.817   9.425   5.121
74120SOL     OW24198   4.596   0.264  13.440
74120SOL    HW124199   4.610   0.260  13.346
74120SOL    HW224200   4.502   0.246  13.451
74121SOL     OW24201   0.445   4.215   2.775
74121SOL    HW124202   0.369   4.164   2.803
74121SOL    HW224203   0.492   4.156   2.716
74122SOL     OW24204   6.933   9.923  12.479
74122SOL    HW124205   6.910  10.016  12.474
74122SOL    HW224206   6.911   9.888  12.393
74123SOL     OW24207  12.441   4.730  14.676
74123SOL    HW124208  12.527   4.730  14.634
74123SOL    HW224209  12.399   4.651  14.642
74124SOL     OW24210   9.887   7.181   8.414
74124SOL    HW124211   9.899   7.273   8.391
74124SOL    HW224212   9.802   7.178   8.457
74125SOL     OW24213   8.663   7.742  10.985
74125SOL    HW124214   8.667   7.837  10.982
74125SOL    HW224215   8.743   7.712  10.942
74126SOL     OW24216   6.195   2.837   4.903
74126SOL    HW124217   6.109   2.795   4.897
74126SOL    HW224218   6.242   2.786   4.969
74127SOL     OW24219  11.869   7.960   3.244
74127SOL    HW124220  11.947   7.910   3.270
74127SOL    HW224221  11.843   8.007   3.324
74128SOL     OW24222  14.831   1.308   3.189
74128SOL    HW124223  14.766   1.339   3.126
74128SOL    HW224224  14.802   1.342   3.273
74129SOL     OW24225   3.884   7.312   4.653
74129SOL    HW124226   3.866   7.364   4.574
74129SOL    HW224227   3.945   7.365   4.704
74130SOL     OW24228   2.400   9.291  14.862
74130SOL    HW124229   2.481   9.306  14.813
74130SOL    HW224230   2.423   9.313   0.071
74131SOL     OW24231   8.397   9.429  11.942
74131SOL    HW124232   8.442   9.345  11.948
74131SOL    HW224233   8.344   9.433  12.022
74132SOL     OW24234   5.243   0.437  14.852
74132SOL    HW124235   5.259   0.360  14.798
74132SOL    HW224236   5.305   0.502  14.821
74133SOL     OW24237   2.993   7.804   8.269
74133SOL    HW124238   3.016   7.800   8.177
74133SOL    HW224239   3.007   7.896   8.293
74134SOL     OW24240  13.031   3.610   1.378
74134SOL    HW124241  13.002   3.528   1.418
74134SOL    HW224242  12.966   3.627   1.309
74135SOL     OW24243   7.650   2.866   9.840
74135SOL    HW124244   7.742   2.850   9.819
74135SOL    HW224245   7.650   2.894   9.931
74136SOL     OW24246   6.166   0.699   7.871
74136SOL    HW124247   6.207   0.656   7.946
74136SOL    HW224248   6.088   0.646   7.852
74137SOL     OW24249  10.324   5.068  10.994
74137SOL    HW124250  10.283   5.079  10.909
74137SOL    HW224251  10.412   5.036  10.975
74138SOL     OW24252   5.992   3.442   6.804
74138SOL    HW124253   5.917   3.483   6.762
74138SOL    HW224254   5.956   3.364   6.847
74139SOL     OW24255  12.704  10.102  10.577
74139SOL    HW124256  12.640  10.033  10.559
74139SOL    HW224257  12.691  10.165  10.507
74140SOL     OW24258   1.364   1.160   8.816
74140SOL    HW124259   1.354   1.198   8.729
74140SOL    HW224260   1.412   1.226   8.866
74141SOL     OW24261   6.171   8.397   1.927
74141SOL    HW124262   6.252   8.386   1.978
74141SOL    HW224263   6.107   8.343   1.972
74142SOL     OW24264   9.085  10.637   0.137
74142SOL    HW124265   9.144  10.713   0.139
74142SOL    HW224266   9.047  10.638   0.049
74143SOL     OW24267   4.712  13.388   8.927
74143SOL    HW124268   4.732  13.294   8.935
74143SOL    HW224269   4.735  13.409   8.836
74144SOL     OW24270   0.326   4.914   3.449
74144SOL    HW124271   0.401   4.860   3.425
74144SOL    HW224272   0.272   4.857   3.504
74145SOL     OW24273   4.646  14.164  11.188
74145SOL    HW124274   4.567  14.205  11.223
74145SOL    HW224275   4.616  14.078  11.157
74146SOL     OW24276   9.968   8.054   9.721
74146SOL    HW124277   9.892   7.997   9.730
74146SOL    HW224278  10.043   8.000   9.747
74147SOL     OW24279   5.680   1.962   5.498
74147SOL    HW124280   5.729   2.005   5.428
74147SOL    HW224281   5.600   1.930   5.454
74148SOL     OW24282  11.090   1.638   2.963
74148SOL    HW124283  11.038   1.701   2.914
74148SOL    HW224284  11.158   1.691   3.005
74149SOL     OW24285  13.215  11.595  11.363
74149SOL    HW124286  13.271  11.672  11.368
74149SOL    HW224287  13.213  11.561  11.452
74150SOL     OW24288   8.596  10.501   1.345
74150SOL    HW124289   8.669  10.439   1.339
74150SOL    HW224290   8.518  10.446   1.343
74151SOL     OW24291   4.498   9.949  14.808
74151SOL    HW124292   4.528   9.999  14.731
74151SOL    HW224293   4.549   9.869  14.806
74152SOL     OW24294   4.464  12.139   1.855
74152SOL    HW124295   4.517  12.140   1.776
74152SOL    HW224296   4.524  12.111   1.924
74153SOL     OW24297   4.532  12.666   5.674
74153SOL    HW124298   4.611  12.658   5.621
74153SOL    HW224299   4.466  12.697   5.613
74154SOL     OW24300  13.456  14.571   7.585
74154SOL    HW124301  13.435  14.664   7.597
74154SOL    HW224302  13.534  14.557   7.639
74155SOL     OW24303   6.005   9.508   4.832
74155SOL    HW124304   6.043   9.440   4.776
74155SOL    HW224305   5.922   9.529   4.789
74156SOL     OW24306   4.573   6.777   9.402
74156SOL    HW124307   4.590   6.686   9.377
74156SOL    HW224308   4.654   6.824   9.380
74157SOL     OW24309   2.994   1.330  12.273
74157SOL    HW124310   3.005   1.283  12.190
74157SOL    HW224311   3.082   1.355  12.299
74158SOL     OW24312  10.493   2.140   8.323
74158SOL    HW124313  10.584   2.151   8.348
74158SOL    HW224314  10.488   2.051   8.287
74159SOL     OW24315   9.484   8.203   1.756
74159SOL    HW124316   9.537   8.142   1.703
74159SOL    HW224317   9.521   8.289   1.736
74160SOL     OW24318  10.577   5.365  14.277
74160SOL    HW124319  10.636   5.440  14.280
74160SOL    HW224320  10.499   5.394  14.325
74161SOL     OW24321  10.180   5.508  11.481
74161SOL    HW124322  10.187   5.414  11.469
74161SOL    HW224323  10.168   5.520  11.575
74162SOL     OW24324  13.651  11.876  12.752
74162SOL    HW124325  13.559  11.863  12.733
74162SOL    HW224326  13.697  11.819  12.690
74163SOL     OW24327  11.552  14.713   1.931
74163SOL    HW124328  11.557  14.676   1.843
74163SOL    HW224329  11.630  14.769   1.937
74164SOL     OW24330   6.482   1.458   8.329
74164SOL    HW124331   6.431   1.540   8.328
74164SOL    HW224332   6.492   1.436   8.236
74165SOL     OW24333   9.309  13.276   5.928
74165SOL    HW124334   9.216  13.255   5.926
74165SOL    HW224335   9.352  13.196   5.897
74166SOL     OW24336   4.244   0.754  13.340
74166SOL    HW124337   4.219   0.804  13.262
74166SOL    HW224338   4.161   0.727  13.380
74167SOL     OW24339   7.785  10.266  10.825
74167SOL    HW124340   7.756  10.349  10.862
74167SOL    HW224341   7.761  10.201  10.891
74168SOL     OW24342   4.412  10.528  13.666
74168SOL    HW124343   4.452  10.466  13.728
74168SOL    HW224344   4.332  10.485  13.637
74169SOL     OW24345  12.522   1.441  10.311
74169SOL    HW124346  12.464   1.517  10.314
74169SOL    HW224347  12.554   1.432  10.401
74170SOL     OW24348  13.814   1.261   4.747
74170SOL    HW124349  13.825   1.222   4.660
74170SOL    HW224350  13.807   1.355   4.731
74171SOL     OW24351   3.435   9.998   5.595
74171SOL    HW124352   3.518   9.991   5.641
74171SOL    HW224353   3.410   9.907   5.577
74172SOL     OW24354   6.500   0.497   3.760
74172SOL    HW124355   6.464   0.540   3.838
74172SOL    HW224356   6.539   0.416   3.793
74173SOL     OW24357  14.181   3.041  12.427
74173SOL    HW124358  14.156   2.968  12.371
74173SOL    HW224359  14.130   3.115  12.395
74174SOL     OW24360  14.781   9.167  14.084
74174SOL    HW124361  14.850   9.166  14.017
74174SOL    HW224362  14.807   9.237  14.144
74175SOL     OW24363   8.378  13.129  10.888
74175SOL    HW124364   8.391  13.037  10.909
74175SOL    HW224365   8.386  13.175  10.971
74176SOL     OW24366  13.813  14.235   3.293
74176SOL    HW124367  13.732  14.265   3.335
74176SOL    HW224368  13.853  14.177   3.358
74177SOL     OW24369   6.974  11.813   4.155
74177SOL    HW124370   7.010  11.847   4.073
74177SOL    HW224371   6.888  11.853   4.162
74178SOL     OW24372   6.854   1.948   1.033
74178SOL    HW124373   6.864   1.935   0.939
74178SOL    HW224374   6.922   1.892   1.073
74179SOL     OW24375   3.615   0.763   8.385
74179SOL    HW124376   3.601   0.785   8.293
74179SOL    HW224377   3.561   0.684   8.398
74180SOL     OW24378  11.643   5.073   3.207
74180SOL    HW124379  11.615   5.007   3.270
74180SOL    HW224380  11.577   5.070   3.138
74181SOL     OW24381   9.004  10.442   9.602
74181SOL    HW124382   9.095  10.430   9.627
74181SOL    HW224383   9.001  10.416   9.510
74182SOL     OW24384  12.561   4.283  10.433
74182SOL    HW124385  12.534   4.251  10.519
74182SOL    HW224386  12.586   4.374  10.449
74183SOL     OW24387  11.901   4.805   6.019
74183SOL    HW124388  11.843   4.866   5.974
74183SOL    HW224389  11.989   4.839   6.001
74184SOL     OW24390   5.425   4.175  10.721
74184SOL    HW124391   5.492   4.128  10.771
74184SOL    HW224392   5.466   4.258  10.697
74185SOL     OW24393   3.122   5.425  10.686
74185SOL    HW124394   3.111   5.438  10.780
74185SOL    HW224395   3.084   5.503  10.646
74186SOL     OW24396   7.260  11.654   0.853
74186SOL    HW124397   7.317  11.698   0.916
74186SOL    HW224398   7.290  11.686   0.767
74187SOL     OW24399  10.334   0.164  14.530
74187SOL    HW124400  10.258   0.202  14.574
74187SOL    HW224401  10.386   0.125  14.600
74188SOL     OW24402   6.978  12.232   9.228
74188SOL    HW124403   6.941  12.161   9.280
74188SOL    HW224404   6.916  12.245   9.156
74189SOL     OW24405   6.468  10.815   5.677
74189SOL    HW124406   6.425  10.833   5.761
74189SOL    HW224407   6.477  10.720   5.674
74190SOL     OW24408   0.574  12.488   1.666
74190SOL    HW124409   0.550  12.396   1.670
74190SOL    HW224410   0.511  12.526   1.604
74191SOL     OW24411   1.223   9.562   9.216
74191SOL    HW124412   1.278   9.565   9.138
74191SOL    HW224413   1.216   9.468   9.236
74192SOL     OW24414   8.064   6.851  10.395
74192SOL    HW124415   8.060   6.798  10.475
74192SOL    HW224416   8.146   6.900  10.403
74193SOL     OW24417  11.568  12.044   7.113
74193SOL    HW124418  11.630  12.106   7.074
74193SOL    HW224419  11.601  12.030   7.202
74194SOL     OW24420   7.590   4.014   0.635
74194SOL    HW124421   7.629   3.946   0.689
74194SOL    HW224422   7.563   4.082   0.696
74195SOL     OW24423   8.145   2.572   2.719
74195SOL    HW124424   8.238   2.587   2.736
74195SOL    HW224425   8.143   2.542   2.628
74196SOL     OW24426   7.684  11.688   0.416
74196SOL    HW124427   7.598  11.685   0.375
74196SOL    HW224428   7.680  11.764   0.475
74197SOL     OW24429   7.353   6.208   9.618
74197SOL    HW124430   7.355   6.241   9.708
74197SOL    HW224431   7.435   6.161   9.608
74198SOL     OW24432   3.168   0.527   6.871
74198SOL    HW124433   3.258   0.498   6.860
74198SOL    HW224434   3.173   0.600   6.933
74199SOL     OW24435   3.181   9.852   4.529
74199SOL    HW124436   3.247   9.807   4.477
74199SOL    HW224437   3.106   9.861   4.470
74200SOL     OW24438   5.039   7.656   7.362
74200SOL    HW124439   5.089   7.723   7.408
74200SOL    HW224440   5.008   7.700   7.282
74201SOL     OW24441  10.509   8.741   4.455
74201SOL    HW124442  10.566   8.704   4.522
74201SOL    HW224443  10.463   8.813   4.498
74202SOL     OW24444  14.480   7.715  10.896
74202SOL    HW124445  14.462   7.631  10.852
74202SOL    HW224446  14.470   7.780  10.827
74203SOL     OW24447   5.685  14.159   0.606
74203SOL    HW124448   5.721  14.094   0.666
74203SOL    HW224449   5.714  14.243   0.643
74204SOL     OW24450   4.275   0.505  11.063
74204SOL    HW124451   4.209   0.436  11.070
74204SOL    HW224452   4.229   0.585  11.090
74205SOL     OW24453   0.235   4.715  11.029
74205SOL    HW124454   0.281   4.695  10.947
74205SOL    HW224455   0.143   4.720  11.005
74206SOL     OW24456   6.398   8.649   7.949
74206SOL    HW124457   6.476   8.636   8.003
74206SOL    HW224458   6.385   8.743   7.948
74207SOL     OW24459  14.344  14.591  10.050
74207SOL    HW124460  14.280  14.520  10.060
74207SOL    HW224461  14.385  14.597  10.136
74208SOL     OW24462  11.863  11.603   9.893
74208SOL    HW124463  11.810  11.522   9.892
74208SOL    HW224464  11.945  11.577   9.934
74209SOL     OW24465   3.165  13.405   3.828
74209SOL    HW124466   3.214  13.410   3.910
74209SOL    HW224467   3.212  13.340   3.776
74210SOL     OW24468   1.621  11.500   7.765
74210SOL    HW124469   1.701  11.499   7.714
74210SOL    HW224470   1.624  11.419   7.817
74211SOL     OW24471   5.539  12.557   1.795
74211SOL    HW124472   5.479  12.609   1.741
74211SOL    HW224473   5.576  12.492   1.735
74212SOL     OW24474   8.473   8.402   5.243
74212SOL    HW124475   8.455   8.496   5.242
74212SOL    HW224476   8.427   8.368   5.167
74213SOL     OW24477  12.525   6.347   5.846
74213SOL    HW124478  12.448   6.392   5.883
74213SOL    HW224479  12.592   6.355   5.914
74214SOL     OW24480  10.871   7.231   2.713
74214SOL    HW124481  10.821   7.247   2.633
74214SOL    HW224482  10.950   7.187   2.683
74215SOL     OW24483   9.016   1.689   9.650
74215SOL    HW124484   8.984   1.601   9.667
74215SOL    HW224485   8.937   1.741   9.636
74216SOL     OW24486   9.922  14.706   0.038
74216SOL    HW124487  10.011  14.740   0.024
74216SOL    HW224488   9.931  14.648   0.114
74217SOL     OW24489  13.099   6.912   8.329
74217SOL    HW124490  13.068   6.881   8.414
74217SOL    HW224491  13.113   6.832   8.277
74218SOL     OW24492   1.022   3.439   5.138
74218SOL    HW124493   1.082   3.481   5.201
74218SOL    HW224494   1.075   3.370   5.098
74219SOL     OW24495   7.656   1.094   5.562
74219SOL    HW124496   7.609   1.026   5.513
74219SOL    HW224497   7.692   1.048   5.637
74220SOL     OW24498   6.145  13.081   2.014
74220SOL    HW124499   6.170  13.154   1.958
74220SOL    HW224500   6.203  13.010   1.988
74221SOL     OW24501   9.818   8.492   1.939
74221SOL    HW124502   9.777   8.553   2.001
74221SOL    HW224503   9.760   8.491   1.864
74222SOL     OW24504   7.590   5.271   1.907
74222SOL    HW124505   7.554   5.236   1.825
74222SOL    HW224506   7.531   5.343   1.930
74223SOL     OW24507  12.523   3.819   2.342
74223SOL    HW124508  12.547   3.904   2.379
74223SOL    HW224509  12.435   3.803   2.375
74224SOL     OW24510  14.241   6.481  11.772
74224SOL    HW124511  14.156   6.445  11.797
74224SOL    HW224512  14.304   6.433  11.827
74225SOL     OW24513  10.787   0.831   3.505
74225SOL    HW124514  10.877   0.847   3.477
74225SOL    HW224515  10.756   0.760   3.448
74226SOL     OW24516  10.060   8.236   6.510
74226SOL    HW124517  10.147   8.253   6.545
74226SOL    HW224518  10.003   8.297   6.557
74227SOL     OW24519  11.958   9.190   5.918
74227SOL    HW124520  11.952   9.113   5.974
74227SOL    HW224521  11.874   9.235   5.932
74228SOL     OW24522   5.306   7.941  12.745
74228SOL    HW124523   5.343   7.925  12.659
74228SOL    HW224524   5.341   8.026  12.771
74229SOL     OW24525   4.850  12.907   7.605
74229SOL    HW124526   4.777  12.962   7.579
74229SOL    HW224527   4.922  12.968   7.621
74230SOL     OW24528   4.535   2.049   9.040
74230SOL    HW124529   4.490   2.080   9.119
74230SOL    HW224530   4.618   2.014   9.072
74231SOL     OW24531  13.392  13.868  12.638
74231SOL    HW124532  13.308  13.838  12.601
74231SOL    HW224533  13.381  13.962  12.651
74232SOL     OW24534   7.756   3.434  13.650
74232SOL    HW124535   7.816   3.494  13.694
74232SOL    HW224536   7.676   3.438  13.702
74233SOL     OW24537   6.965   8.086  11.778
74233SOL    HW124538   6.918   8.042  11.707
74233SOL    HW224539   7.055   8.056  11.769
74234SOL     OW24540   4.240   4.276   4.383
74234SOL    HW124541   4.260   4.213   4.453
74234SOL    HW224542   4.274   4.235   4.303
74235SOL     OW24543  12.281   7.710  11.193
74235SOL    HW124544  12.345   7.639  11.179
74235SOL    HW224545  12.229   7.681  11.268
74236SOL     OW24546   3.511   2.139  12.694
74236SOL    HW124547   3.527   2.215  12.637
74236SOL    HW224548   3.597   2.119  12.732
74237SOL     OW24549   6.311  11.440  13.625
74237SOL    HW124550   6.258  11.365  13.599
74237SOL    HW224551   6.400  11.406  13.630
74238SOL     OW24552   0.836   5.656   5.527
74238SOL    HW124553   0.826   5.638   5.621
74238SOL    HW224554   0.899   5.728   5.523
74239SOL     OW24555   5.044   0.690  11.540
74239SOL    HW124556   5.124   0.714  11.494
74239SOL    HW224557   5.074   0.645  11.619
74240SOL     OW24558  13.921   6.576  11.710
74240SOL    HW124559  13.915   6.492  11.664
74240SOL    HW224560  13.888   6.640  11.648
74241SOL     OW24561   7.449   8.459   0.650
74241SOL    HW124562   7.503   8.413   0.585
74241SOL    HW224563   7.500   8.538   0.671
74242SOL     OW24564  14.298  13.866  13.779
74242SOL    HW124565  14.333  13.813  13.708
74242SOL    HW224566  14.222  13.817  13.811
74243SOL     OW24567   9.281   9.498  10.615
74243SOL    HW124568   9.337   9.536  10.547
74243SOL    HW224569   9.260   9.411  10.582
74244SOL     OW24570  10.610   2.892   9.619
74244SOL    HW124571  10.586   2.864   9.708
74244SOL    HW224572  10.673   2.963   9.633
74245SOL     OW24573   1.783  10.062  10.461
74245SOL    HW124574   1.722   9.989  10.454
74245SOL    HW224575   1.731  10.132  10.502
74246SOL     OW24576  13.944   1.623   1.556
74246SOL    HW124577  13.924   1.572   1.477
74246SOL    HW224578  13.888   1.586   1.624
74247SOL     OW24579   1.673   9.808   4.842
74247SOL    HW124580   1.753   9.760   4.819
74247SOL    HW224581   1.603   9.744   4.832
74248SOL     OW24582   7.564  12.267   5.769
74248SOL    HW124583   7.627  12.293   5.701
74248SOL    HW224584   7.619  12.237   5.841
74249SOL     OW24585   9.128   2.658   7.859
74249SOL    HW124586   9.202   2.680   7.803
74249SOL    HW224587   9.164   2.600   7.926
74250SOL     OW24588  10.533   5.061   4.098
74250SOL    HW124589  10.594   5.134   4.086
74250SOL    HW224590  10.495   5.047   4.012
74251SOL     OW24591   0.287   3.039   1.374
74251SOL    HW124592   0.299   2.983   1.451
74251SOL    HW224593   0.347   3.113   1.388
74252SOL     OW24594   1.411  13.573   5.617
74252SOL    HW124595   1.493  13.622   5.621
74252SOL    HW224596   1.374  13.580   5.705
74253SOL     OW24597  11.751   3.687   9.547
74253SOL    HW124598  11.751   3.775   9.511
74253SOL    HW224599  11.758   3.699   9.641
74254SOL     OW24600   3.295  11.969  11.225
74254SOL    HW124601   3.305  12.038  11.160
74254SOL    HW224602   3.222  11.916  11.193
74255SOL     OW24603  12.292   4.233   3.945
74255SOL    HW124604  12.238   4.270   4.015
74255SOL    HW224605  12.273   4.139   3.947
74256SOL     OW24606  11.200   2.664   3.339
74256SOL    HW124607  11.113   2.702   3.351
74256SOL    HW224608  11.191   2.574   3.370
74257SOL     OW24609   5.684   2.752  11.372
74257SOL    HW124610   5.644   2.740  11.285
74257SOL    HW224611   5.741   2.676  11.382
74258SOL     OW24612   1.794   1.375  12.992
74258SOL    HW124613   1.854   1.449  12.998
74258SOL    HW224614   1.710   1.409  13.023
74259SOL     OW24615   0.124   8.404  13.212
74259SOL    HW124616   0.096   8.318  13.243
74259SOL    HW224617   0.220   8.402  13.219
74260SOL     OW24618  12.815  13.960  14.799
74260SOL    HW124619  12.892  14.018  14.793
74260SOL    HW224620  12.822  13.920   0.003
74261SOL     OW24621  14.014   6.825  13.797
74261SOL    HW124622  14.001   6.918  13.776
74261SOL    HW224623  13.969   6.813  13.881
74262SOL     OW24624   7.098   7.413   8.215
74262SOL    HW124625   7.069   7.411   8.307
74262SOL    HW224626   7.063   7.333   8.177
74263SOL     OW24627   7.300   8.866  10.201
74263SOL    HW124628   7.224   8.875  10.257
74263SOL    HW224629   7.321   8.773  10.203
74264SOL     OW24630   8.780  10.275   1.015
74264SOL    HW124631   8.707  10.337   1.018
74264SOL    HW224632   8.799  10.256   1.107
74265SOL     OW24633  14.020   1.515   5.228
74265SOL    HW124634  13.942   1.564   5.200
74265SOL    HW224635  14.021   1.438   5.172
74266SOL     OW24636   1.030  12.175   5.155
74266SOL    HW124637   1.045  12.201   5.064
74266SOL    HW224638   0.977  12.095   5.148
74267SOL     OW24639   3.006   3.295   7.310
74267SOL    HW124640   3.093   3.260   7.290
74267SOL    HW224641   3.012   3.324   7.401
74268SOL     OW24642   6.791   8.233  10.724
74268SOL    HW124643   6.849   8.309  10.715
74268SOL    HW224644   6.801   8.186  10.641
74269SOL     OW24645   6.322   1.589   6.784
74269SOL    HW124646   6.388   1.585   6.854
74269SOL    HW224647   6.281   1.674   6.795
74270SOL     OW24648  13.407   1.514   0.376
74270SOL    HW124649  13.317   1.543   0.359
74270SOL    HW224650  13.462   1.575   0.327
74271SOL     OW24651   2.212   3.225   1.034
74271SOL    HW124652   2.228   3.179   1.117
74271SOL    HW224653   2.149   3.170   0.988
74272SOL     OW24654   3.636   3.548   5.995
74272SOL    HW124655   3.710   3.590   6.038
74272SOL    HW224656   3.652   3.558   5.902
74273SOL     OW24657   3.091  11.208   9.595
74273SOL    HW124658   3.164  11.270   9.602
74273SOL    HW224659   3.047  11.213   9.680
74274SOL     OW24660   0.802   7.403   5.061
74274SOL    HW124661   0.863   7.381   5.132
74274SOL    HW224662   0.731   7.449   5.105
74275SOL     OW24663   8.794   8.312  11.218
74275SOL    HW124664   8.725   8.248  11.237
74275SOL    HW224665   8.797   8.316  11.122
74276SOL     OW24666   2.402   8.528   5.204
74276SOL    HW124667   2.329   8.573   5.160
74276SOL    HW224668   2.467   8.515   5.135
74277SOL     OW24669  12.916  10.452   4.414
74277SOL    HW124670  12.948  10.381   4.469
74277SOL    HW224671  12.912  10.415   4.326
74278SOL     OW24672  11.166   9.293  14.556
74278SOL    HW124673  11.256   9.269  14.535
74278SOL    HW224674  11.174   9.352  14.631
74279SOL     OW24675  10.460   3.596  14.113
74279SOL    HW124676  10.411   3.642  14.045
74279SOL    HW224677  10.431   3.636  14.195
74280SOL     OW24678   1.569   3.603  12.138
74280SOL    HW124679   1.552   3.660  12.062
74280SOL    HW224680   1.646   3.552  12.112
74281SOL     OW24681   2.002  13.916   0.911
74281SOL    HW124682   1.975  13.984   0.849
74281SOL    HW224683   2.088  13.888   0.880
74282SOL     OW24684   0.313   2.963   4.379
74282SOL    HW124685   0.292   2.971   4.473
74282SOL    HW224686   0.231   2.934   4.339
74283SOL     OW24687   3.893  10.475  13.404
74283SOL    HW124688   3.947  10.496  13.328
74283SOL    HW224689   3.849  10.394  13.380
74284SOL     OW24690   9.340   0.445  14.742
74284SOL    HW124691   9.425   0.474  14.710
74284SOL    HW224692   9.285   0.443  14.665
74285SOL     OW24693  10.219   4.521   8.430
74285SOL    HW124694  10.178   4.505   8.515
74285SOL    HW224695  10.213   4.616   8.419
74286SOL     OW24696  14.651  14.472   8.295
74286SOL    HW124697  14.601  14.547   8.261
74286SOL    HW224698  14.720  14.458   8.230
74287SOL     OW24699  10.566  13.438   9.988
74287SOL    HW124700  10.635  13.441   9.923
74287SOL    HW224701  10.498  13.383   9.949
74288SOL     OW24702   9.605   6.609   7.340
74288SOL    HW124703   9.680   6.635   7.285
74288SOL    HW224704   9.559   6.690   7.357
74289SOL     OW24705   2.168   2.056   0.285
74289SOL    HW124706   2.124   1.974   0.309
74289SOL    HW224707   2.216   2.035   0.205
74290SOL     OW24708   1.622   0.287  14.831
74290SOL    HW124709   1.620   0.199  14.867
74290SOL    HW224710   1.714   0.313  14.833
74291SOL     OW24711   8.131  14.022  11.585
74291SOL    HW124712   8.037  14.030  11.568
74291SOL    HW224713   8.171  14.017  11.498
74292SOL     OW24714  13.773   7.587   3.946
74292SOL    HW124715  13.709   7.615   3.881
74292SOL    HW224716  13.721   7.545   4.014
74293SOL     OW24717   4.428  13.699  13.602
74293SOL    HW124718   4.475  13.635  13.549
74293SOL    HW224719   4.337  13.672  13.599
74294SOL     OW24720   1.770  12.747   1.166
74294SOL    HW124721   1.837  12.804   1.204
74294SOL    HW224722   1.783  12.662   1.210
74295SOL     OW24723  14.624   4.885  14.175
74295SOL    HW124724  14.643   4.905  14.083
74295SOL    HW224725  14.710   4.869  14.214
74296SOL     OW24726  13.961   8.902  12.109
74296SOL    HW124727  13.954   8.826  12.166
74296SOL    HW224728  14.050   8.935  12.124
74297SOL     OW24729   0.248  12.845  12.101
74297SOL    HW124730   0.343  12.841  12.112
74297SOL    HW224731   0.232  12.808  12.014
74298SOL     OW24732  11.687   9.838   1.605
74298SOL    HW124733  11.659   9.787   1.681
74298SOL    HW224734  11.657   9.787   1.530
74299SOL     OW24735   2.767   9.304   5.852
74299SOL    HW124736   2.743   9.386   5.895
74299SOL    HW224737   2.854   9.321   5.817
74300SOL     OW24738  11.877   5.256  13.007
74300SOL    HW124739  11.952   5.217  13.052
74300SOL    HW224740  11.886   5.350  13.023
74301SOL     OW24741   6.305  14.165  10.165
74301SOL    HW124742   6.251  14.087  10.152
74301SOL    HW224743   6.299  14.213  10.082
74302SOL     OW24744   6.379  10.292   9.040
74302SOL    HW124745   6.435  10.240   9.099
74302SOL    HW224746   6.399  10.383   9.063
74303SOL     OW24747   8.532  12.037   0.243
74303SOL    HW124748   8.451  12.074   0.277
74303SOL    HW224749   8.505  11.991   0.163
74304SOL     OW24750   8.899   4.662   3.881
74304SOL    HW124751   8.988   4.675   3.915
74304SOL    HW224752   8.892   4.723   3.809
74305SOL     OW24753  14.165   3.026  10.636
74305SOL    HW124754  14.187   3.090  10.704
74305SOL    HW224755  14.249   2.990  10.608
74306SOL     OW24756   0.029   4.693   5.235
74306SOL    HW124757  14.837   4.696   5.174
74306SOL    HW224758  14.873   4.715   5.320
74307SOL     OW24759   2.863  13.531   5.929
74307SOL    HW124760   2.845  13.446   5.890
74307SOL    HW224761   2.933  13.515   5.991
74308SOL     OW24762  11.632  10.734  10.172
74308SOL    HW124763  11.570  10.666  10.198
74308SOL    HW224764  11.677  10.758  10.253
74309SOL     OW24765   8.641  13.775  13.015
74309SOL    HW124766   8.670  13.737  13.098
74309SOL    HW224767   8.602  13.859  13.040
74310SOL     OW24768   6.031   4.725  10.306
74310SOL    HW124769   6.060   4.716  10.215
74310SOL    HW224770   6.073   4.805  10.337
74311SOL     OW24771  14.293   5.106  11.480
74311SOL    HW124772  14.240   5.043  11.529
74311SOL    HW224773  14.250   5.190  11.494
74312SOL     OW24774  13.240  13.612   4.937
74312SOL    HW124775  13.225  13.597   4.843
74312SOL    HW224776  13.306  13.681   4.940
74313SOL     OW24777   6.606   8.779  11.062
74313SOL    HW124778   6.523   8.825  11.053
74313SOL    HW224779   6.600   8.735  11.146
74314SOL     OW24780   9.789   5.635  11.144
74314SOL    HW124781   9.778   5.699  11.214
74314SOL    HW224782   9.713   5.648  11.087
74315SOL     OW24783   3.486   2.475   6.671
74315SOL    HW124784   3.582   2.470   6.670
74315SOL    HW224785   3.460   2.428   6.750
74316SOL     OW24786   8.009   6.219   4.120
74316SOL    HW124787   7.972   6.162   4.187
74316SOL    HW224788   7.959   6.301   4.127
74317SOL     OW24789  10.636   3.118   3.711
74317SOL    HW124790  10.723   3.144   3.681
74317SOL    HW224791  10.646   3.028   3.742
74318SOL     OW24792   0.027   0.247   8.505
74318SOL    HW124793  14.822   0.278   8.529
74318SOL    HW224794   0.078   0.253   8.585
74319SOL     OW24795  14.781   7.548   7.121
74319SOL    HW124796  14.742   7.556   7.034
74319SOL    HW224797  14.753   7.463   7.153
74320SOL     OW24798   0.811   2.131   4.952
74320SOL    HW124799   0.750   2.128   5.026
74320SOL    HW224800   0.775   2.199   4.894
74321SOL     OW24801  12.610  13.934   1.850
74321SOL    HW124802  12.558  13.975   1.781
74321SOL    HW224803  12.555  13.943   1.929
74322SOL     OW24804   3.358   8.598  12.900
74322SOL    HW124805   3.264   8.588  12.892
74322SOL    HW224806   3.385   8.526  12.958
74323SOL     OW24807   2.965   5.141   5.392
74323SOL    HW124808   2.934   5.094   5.469
74323SOL    HW224809   3.060   5.134   5.396
74324SOL     OW24810   3.541   3.767   4.362
74324SOL    HW124811   3.633   3.740   4.357
74324SOL    HW224812   3.542   3.843   4.421
74325SOL     OW24813   8.520   3.582   0.132
74325SOL    HW124814   8.538   3.551   0.221
74325SOL    HW224815   8.473   3.665   0.145
74326SOL     OW24816   5.975   6.141   8.250
74326SOL    HW124817   5.917   6.112   8.180
74326SOL    HW224818   5.917   6.152   8.326
74327SOL     OW24819   9.416   3.060  12.733
74327SOL    HW124820   9.401   3.082  12.642
74327SOL    HW224821   9.457   2.973  12.731
74328SOL     OW24822   7.131   8.362  13.237
74328SOL    HW124823   7.159   8.381  13.148
74328SOL    HW224824   7.079   8.438  13.263
74329SOL     OW24825   9.959  13.309   3.247
74329SOL    HW124826   9.871  13.345   3.246
74329SOL    HW224827  10.017  13.385   3.235
74330SOL     OW24828   5.803  14.115   7.916
74330SOL    HW124829   5.849  14.105   7.999
74330SOL    HW224830   5.742  14.187   7.931
74331SOL     OW24831   0.784  13.329   0.896
74331SOL    HW124832   0.701  13.366   0.926
74331SOL    HW224833   0.771  13.316   0.802
74332SOL     OW24834  14.817   0.059  13.178
74332SOL    HW124835  14.739   0.064  13.232
74332SOL    HW224836  14.823  14.849  13.152
74333SOL     OW24837   6.880  10.676   9.277
74333SOL    HW124838   6.927  10.619   9.216
74333SOL    HW224839   6.947  10.707   9.338
74334SOL     OW24840   3.446   4.587  14.160
74334SOL    HW124841   3.417   4.518  14.101
74334SOL    HW224842   3.539   4.567  14.177
74335SOL     OW24843  14.776   0.892   5.499
74335SOL    HW124844  14.701   0.896   5.439
74335SOL    HW224845  14.749   0.831   5.567
74336SOL     OW24846   6.005  12.793   8.293
74336SOL    HW124847   5.926  12.818   8.341
74336SOL    HW224848   5.978  12.795   8.201
74337SOL     OW24849   4.730   7.902   4.629
74337SOL    HW124850   4.692   7.926   4.544
74337SOL    HW224851   4.721   7.980   4.683
74338SOL     OW24852  13.675  11.506   6.026
74338SOL    HW124853  13.754  11.476   5.981
74338SOL    HW224854  13.676  11.460   6.109
74339SOL     OW24855   3.134   0.819   4.639
74339SOL    HW124856   3.167   0.891   4.586
74339SOL    HW224857   3.132   0.744   4.579
74340SOL     OW24858   7.323   0.630   2.792
74340SOL    HW124859   7.351   0.557   2.737
74340SOL    HW224860   7.288   0.695   2.730
74341SOL     OW24861   3.245   5.126  13.859
74341SOL    HW124862   3.330   5.158  13.830
74341SOL    HW224863   3.241   5.036  13.826
74342SOL     OW24864  11.971   5.120   9.546
74342SOL    HW124865  11.954   5.080   9.461
74342SOL    HW224866  11.892   5.170   9.566
74343SOL     OW24867   3.981   2.067   0.121
74343SOL    HW124868   3.995   2.052   0.215
74343SOL    HW224869   3.893   2.034   0.104
74344SOL     OW24870   3.558   9.704   8.148
74344SOL    HW124871   3.589   9.691   8.238
74344SOL    HW224872   3.604   9.784   8.119
74345SOL     OW24873   0.247  13.936  13.608
74345SOL    HW124874   0.191  13.964  13.536
74345SOL    HW224875   0.197  13.867  13.652
74346SOL     OW24876   6.066   8.177  14.692
74346SOL    HW124877   6.100   8.092  14.667
74346SOL    HW224878   6.128   8.210  14.757
74347SOL     OW24879   9.589   2.399   0.904
74347SOL    HW124880   9.671   2.366   0.940
74347SOL    HW224881   9.552   2.324   0.857
74348SOL     OW24882   7.784   3.666   5.334
74348SOL    HW124883   7.822   3.580   5.315
74348SOL    HW224884   7.818   3.722   5.265
74349SOL     OW24885   6.683  10.142  11.873
74349SOL    HW124886   6.641  10.104  11.950
74349SOL    HW224887   6.761  10.088  11.859
74350SOL     OW24888  12.609   4.960  11.111
74350SOL    HW124889  12.670   4.900  11.067
74350SOL    HW224890  12.643   5.047  11.092
74351SOL     OW24891  14.332  11.867  12.207
74351SOL    HW124892  14.383  11.918  12.270
74351SOL    HW224893  14.398  11.818  12.157
74352SOL     OW24894   8.887   9.742  11.395
74352SOL    HW124895   8.877   9.669  11.456
74352SOL    HW224896   8.841   9.714  11.316
74353SOL     OW24897   2.357   3.851   8.032
74353SOL    HW124898   2.291   3.820   8.094
74353SOL    HW224899   2.434   3.798   8.050
74354SOL     OW24900   8.690   1.142   2.747
74354SOL    HW124901   8.606   1.158   2.703
74354SOL    HW224902   8.693   1.047   2.758
74355SOL     OW24903   8.136   6.335  12.151
74355SOL    HW124904   8.139   6.274  12.225
74355SOL    HW224905   8.064   6.394  12.172
74356SOL     OW24906   2.051  13.326   7.522
74356SOL    HW124907   2.065  13.311   7.429
74356SOL    HW224908   1.955  13.322   7.532
74357SOL     OW24909   9.567   4.024  14.478
74357SOL    HW124910   9.659   4.044  14.497
74357SOL    HW224911   9.529   4.108  14.453
74358SOL     OW24912  13.343   3.581  14.610
74358SOL    HW124913  13.321   3.668  14.643
74358SOL    HW224914  13.429   3.592  14.568
74359SOL     OW24915   7.513   8.075   4.720
74359SOL    HW124916   7.559   8.145   4.675
74359SOL    HW224917   7.489   8.014   4.650
74360SOL     OW24918   5.970  14.078   7.329
74360SOL    HW124919   6.027  14.096   7.405
74360SOL    HW224920   5.931  14.163   7.309
74361SOL     OW24921   3.610  13.071   6.037
74361SOL    HW124922   3.573  13.099   6.121
74361SOL    HW224923   3.645  12.984   6.053
74362SOL     OW24924   3.773   3.760  11.662
74362SOL    HW124925   3.768   3.673  11.623
74362SOL    HW224926   3.852   3.757  11.716
74363SOL     OW24927  11.146  13.482   8.127
74363SOL    HW124928  11.206  13.411   8.104
74363SOL    HW224929  11.202  13.558   8.136
74364SOL     OW24930   3.524  12.168  13.494
74364SOL    HW124931   3.518  12.263  13.501
74364SOL    HW224932   3.433  12.138  13.490
74365SOL     OW24933   4.048   5.337  11.263
74365SOL    HW124934   4.042   5.242  11.277
74365SOL    HW224935   4.140   5.353  11.241
74366SOL     OW24936  12.598   2.264   4.100
74366SOL    HW124937  12.597   2.350   4.058
74366SOL    HW224938  12.594   2.202   4.028
74367SOL     OW24939  13.747   2.859   5.204
74367SOL    HW124940  13.748   2.778   5.154
74367SOL    HW224941  13.781   2.925   5.144
74368SOL     OW24942  11.919   8.633   8.847
74368SOL    HW124943  11.969   8.711   8.868
74368SOL    HW224944  11.847   8.632   8.910
74369SOL     OW24945   0.959  10.457   3.825
74369SOL    HW124946   0.886  10.497   3.872
74369SOL    HW224947   1.025  10.440   3.893
74370SOL     OW24948  14.723   5.329   6.154
74370SOL    HW124949  14.650   5.346   6.094
74370SOL    HW224950  14.754   5.415   6.180
74371SOL     OW24951  10.031   1.897   9.137
74371SOL    HW124952  10.126   1.909   9.135
74371SOL    HW224953  10.018   1.804   9.120
74372SOL     OW24954   2.357  13.278   7.841
74372SOL    HW124955   2.401  13.349   7.794
74372SOL    HW224956   2.336  13.213   7.774
74373SOL     OW24957   6.341  10.014  13.218
74373SOL    HW124958   6.315   9.958  13.144
74373SOL    HW224959   6.436  10.022  13.210
74374SOL     OW24960  11.346   4.657   1.483
74374SOL    HW124961  11.417   4.704   1.439
74374SOL    HW224962  11.382   4.635   1.569
74375SOL     OW24963  11.082  14.678   5.377
74375SOL    HW124964  11.013  14.643   5.321
74375SOL    HW224965  11.159  14.623   5.358
74376SOL     OW24966  11.098   0.740  11.979
74376SOL    HW124967  11.002   0.738  11.977
74376SOL    HW224968  11.122   0.788  11.900
74377SOL     OW24969  13.771   5.905  14.796
74377SOL    HW124970  13.709   5.893  14.868
74377SOL    HW224971  13.757   5.995  14.767
74378SOL     OW24972   7.821   1.155   9.477
74378SOL    HW124973   7.797   1.088   9.541
74378SOL    HW224974   7.865   1.106   9.407
74379SOL     OW24975   5.003   7.192   3.589
74379SOL    HW124976   5.043   7.116   3.632
74379SOL    HW224977   5.071   7.224   3.530
74380SOL     OW24978   5.697  10.088  12.440
74380SOL    HW124979   5.668  10.080  12.530
74380SOL    HW224980   5.781  10.043  12.437
74381SOL     OW24981  12.528   9.614   5.950
74381SOL    HW124982  12.599   9.597   5.887
74381SOL    HW224983  12.452   9.568   5.913
74382SOL     OW24984   7.631   1.390  12.863
74382SOL    HW124985   7.599   1.357  12.779
74382SOL    HW224986   7.555   1.383  12.921
74383SOL     OW24987  13.504   4.870  13.772
74383SOL    HW124988  13.497   4.888  13.678
74383SOL    HW224989  13.420   4.833  13.796
74384SOL     OW24990  10.574   2.891   3.130
74384SOL    HW124991  10.569   2.798   3.107
74384SOL    HW224992  10.607   2.891   3.220
74385SOL     OW24993  11.656  14.094   4.106
74385SOL    HW124994  11.654  14.161   4.175
74385SOL    HW224995  11.564  14.080   4.084
74386SOL     OW24996   6.469   1.919  13.836
74386SOL    HW124997   6.514   1.839  13.811
74386SOL    HW224998   6.516   1.989  13.790
74387SOL     OW24999   0.559  10.720   4.849
74387SOL    HW125000   0.480  10.671   4.869
74387SOL    HW225001   0.547  10.804   4.893
74388SOL     OW25002   4.649   9.656   1.960
74388SOL    HW125003   4.743   9.644   1.944
74388SOL    HW225004   4.631   9.602   2.036
74389SOL     OW25005  11.046  10.597  11.073
74389SOL    HW125006  11.061  10.647  10.993
74389SOL    HW225007  10.997  10.520  11.044
74390SOL     OW25008  12.296   4.495   4.241
74390SOL    HW125009  12.361   4.564   4.226
74390SOL    HW225010  12.300   4.477   4.335
74391SOL     OW25011   1.112   4.218   4.994
74391SOL    HW125012   1.133   4.125   4.985
74391SOL    HW225013   1.153   4.243   5.077
74392SOL     OW25014   9.633  10.250   5.522
74392SOL    HW125015   9.594  10.246   5.609
74392SOL    HW225016   9.704  10.186   5.525
74393SOL     OW25017   8.035   5.131  10.756
74393SOL    HW125018   7.968   5.133  10.688
74393SOL    HW225019   8.021   5.211  10.806
74394SOL     OW25020   9.619   4.150   2.996
74394SOL    HW125021   9.707   4.172   2.966
74394SOL    HW225022   9.577   4.235   3.009
74395SOL     OW25023   2.940   8.075   9.351
74395SOL    HW125024   3.027   8.107   9.376
74395SOL    HW225025   2.953   7.982   9.333
74396SOL     OW25026   3.872   2.991  10.300
74396SOL    HW125027   3.967   2.984  10.305
74396SOL    HW225028   3.841   2.900  10.301
74397SOL     OW25029  10.298   5.707  13.208
74397SOL    HW125030  10.273   5.765  13.135
74397SOL    HW225031  10.307   5.621  13.169
74398SOL     OW25032   9.411   3.482  14.050
74398SOL    HW125033   9.489   3.531  14.025
74398SOL    HW225034   9.439   3.390  14.053
74399SOL     OW25035   3.867   9.176  13.529
74399SOL    HW125036   3.804   9.175  13.600
74399SOL    HW225037   3.912   9.261  13.538
74400SOL     OW25038   4.648   9.162   4.864
74400SOL    HW125039   4.635   9.115   4.782
74400SOL    HW225040   4.594   9.241   4.855
74401SOL     OW25041   4.368   6.602   1.850
74401SOL    HW125042   4.412   6.559   1.777
74401SOL    HW225043   4.319   6.533   1.894
74402SOL     OW25044  13.768   5.153   0.800
74402SOL    HW125045  13.803   5.074   0.842
74402SOL    HW225046  13.845   5.207   0.782
74403SOL     OW25047   4.319   1.322   4.487
74403SOL    HW125048   4.382   1.267   4.534
74403SOL    HW225049   4.333   1.301   4.394
74404SOL     OW25050  12.490  11.994   5.195
74404SOL    HW125051  12.484  11.899   5.183
74404SOL    HW225052  12.443  12.011   5.277
74405SOL     OW25053  12.205   6.188  11.719
74405SOL    HW125054  12.191   6.211  11.627
74405SOL    HW225055  12.122   6.210  11.761
74406SOL     OW25056   6.785  13.575   2.872
74406SOL    HW125057   6.705  13.528   2.896
74406SOL    HW225058   6.808  13.540   2.786
74407SOL     OW25059   8.703   8.601  13.623
74407SOL    HW125060   8.783   8.561  13.590
74407SOL    HW225061   8.708   8.593  13.718
74408SOL     OW25062  11.590   0.699   2.762
74408SOL    HW125063  11.629   0.613   2.773
74408SOL    HW225064  11.560   0.701   2.670
74409SOL     OW25065  10.591   1.068   1.282
74409SOL    HW125066  10.578   0.975   1.265
74409SOL    HW225067  10.561   1.081   1.372
74410SOL     OW25068   3.190  11.068   4.730
74410SOL    HW125069   3.198  11.000   4.796
74410SOL    HW225070   3.123  11.127   4.764
74411SOL     OW25071   3.503   5.249   1.883
74411SOL    HW125072   3.586   5.262   1.929
74411SOL    HW225073   3.437   5.286   1.942
74412SOL     OW25074  14.071   0.890  11.596
74412SOL    HW125075  14.070   0.856  11.685
74412SOL    HW225076  13.981   0.921  11.581
74413SOL     OW25077  14.273   4.344   9.255
74413SOL    HW125078  14.355   4.298   9.238
74413SOL    HW225079  14.292   4.400   9.330
74414SOL     OW25080   9.908   2.279   8.329
74414SOL    HW125081   9.993   2.242   8.351
74414SOL    HW225082   9.845   2.211   8.352
74415SOL     OW25083   8.441   4.612   5.089
74415SOL    HW125084   8.459   4.524   5.058
74415SOL    HW225085   8.428   4.664   5.009
74416SOL     OW25086  13.627   5.922   0.155
74416SOL    HW125087  13.683   5.985   0.200
74416SOL    HW225088  13.606   5.857   0.222
74417SOL     OW25089   1.544   9.355   0.901
74417SOL    HW125090   1.460   9.330   0.865
74417SOL    HW225091   1.566   9.285   0.962
74418SOL     OW25092  13.767   1.210  12.480
74418SOL    HW125093  13.847   1.261  12.488
74418SOL    HW225094  13.755   1.170  12.566
74419SOL     OW25095   3.951   6.954   1.794
74419SOL    HW125096   3.936   7.003   1.714
74419SOL    HW225097   4.045   6.963   1.811
74420SOL     OW25098   5.130   3.552  13.298
74420SOL    HW125099   5.094   3.634  13.331
74420SOL    HW225100   5.089   3.540  13.212
74421SOL     OW25101   5.276   1.062  14.605
74421SOL    HW125102   5.278   1.087  14.698
74421SOL    HW225103   5.250   1.142  14.559
74422SOL     OW25104   5.747  13.127   0.810
74422SOL    HW125105   5.745  13.084   0.724
74422SOL    HW225106   5.743  13.054   0.873
74423SOL     OW25107   5.918   4.712  11.625
74423SOL    HW125108   5.935   4.662  11.705
74423SOL    HW225109   5.844   4.769  11.648
74424SOL     OW25110  11.435  10.930  11.234
74424SOL    HW125111  11.410  10.886  11.315
74424SOL    HW225112  11.369  10.902  11.170
74425SOL     OW25113   9.286  12.278   5.123
74425SOL    HW125114   9.316  12.190   5.101
74425SOL    HW225115   9.257  12.271   5.214
74426SOL     OW25116  11.332   7.322   3.236
74426SOL    HW125117  11.240   7.346   3.230
74426SOL    HW225118  11.356   7.344   3.326
74427SOL     OW25119  12.639   3.740   3.741
74427SOL    HW125120  12.717   3.743   3.684
74427SOL    HW225121  12.668   3.780   3.823
74428SOL     OW25122   3.182   9.035   8.236
74428SOL    HW125123   3.122   8.986   8.292
74428SOL    HW225124   3.158   9.010   8.147
74429SOL     OW25125   6.272   6.325   4.300
74429SOL    HW125126   6.190   6.367   4.325
74429SOL    HW225127   6.245   6.247   4.251
74430SOL     OW25128  10.615   2.550   9.972
74430SOL    HW125129  10.612   2.572  10.066
74430SOL    HW225130  10.589   2.458   9.968
74431SOL     OW25131   4.819  14.278   5.805
74431SOL    HW125132   4.777  14.343   5.748
74431SOL    HW225133   4.903  14.318   5.827
74432SOL     OW25134  12.128   0.637   6.085
74432SOL    HW125135  12.177   0.713   6.052
74432SOL    HW225136  12.195   0.571   6.104
74433SOL     OW25137   5.902   5.491   0.904
74433SOL    HW125138   5.992   5.492   0.870
74433SOL    HW225139   5.902   5.422   0.970
74434SOL     OW25140  10.621   9.878   2.100
74434SOL    HW125141  10.574   9.828   2.166
74434SOL    HW225142  10.553   9.911   2.042
74435SOL     OW25143  12.436   9.000  13.766
74435SOL    HW125144  12.426   8.986  13.860
74435SOL    HW225145  12.404   9.088  13.751
74436SOL     OW25146   4.670   3.343  11.533
74436SOL    HW125147   4.754   3.303  11.512
74436SOL    HW225148   4.613   3.270  11.558
74437SOL     OW25149   0.082   5.369   4.514
74437SOL    HW125150   0.023   5.354   4.439
74437SOL    HW225151   0.104   5.281   4.545
74438SOL     OW25152  11.601  13.422   5.663
74438SOL    HW125153  11.557  13.506   5.678
74438SOL    HW225154  11.656  13.410   5.740
74439SOL     OW25155   8.939  13.801   8.823
74439SOL    HW125156   8.994  13.852   8.763
74439SOL    HW225157   8.955  13.710   8.798
74440SOL     OW25158  10.117   6.532   2.405
74440SOL    HW125159  10.065   6.543   2.484
74440SOL    HW225160  10.147   6.621   2.384
74441SOL     OW25161  11.721  11.481   0.111
74441SOL    HW125162  11.733  11.530   0.192
74441SOL    HW225163  11.745  11.391   0.133
74442SOL     OW25164   1.033  11.138  12.306
74442SOL    HW125165   1.060  11.152  12.216
74442SOL    HW225166   1.071  11.213  12.354
74443SOL     OW25167   5.155   0.452  10.091
74443SOL    HW125168   5.153   0.539  10.050
74443SOL    HW225169   5.205   0.399  10.029
74444SOL     OW25170  11.277  12.053  13.870
74444SOL    HW125171  11.344  11.985  13.863
74444SOL    HW225172  11.234  12.035  13.954
74445SOL     OW25173  10.867   1.731   5.419
74445SOL    HW125174  10.946   1.768   5.459
74445SOL    HW225175  10.800   1.741   5.487
74446SOL     OW25176   3.904   6.898   9.376
74446SOL    HW125177   3.872   6.988   9.365
74446SOL    HW225178   3.948   6.877   9.293
74447SOL     OW25179  12.501   4.455   8.065
74447SOL    HW125180  12.408   4.440   8.052
74447SOL    HW225181  12.538   4.367   8.078
74448SOL     OW25182  12.392   9.979  12.773
74448SOL    HW125183  12.462   9.920  12.802
74448SOL    HW225184  12.369   9.946  12.686
74449SOL     OW25185   6.535   0.481   1.374
74449SOL    HW125186   6.586   0.485   1.293
74449SOL    HW225187   6.456   0.433   1.350
74450SOL     OW25188  13.630   8.199  14.299
74450SOL    HW125189  13.596   8.186  14.210
74450SOL    HW225190  13.594   8.283  14.327
74451SOL     OW25191   3.663  14.112  13.687
74451SOL    HW125192   3.751  14.074  13.684
74451SOL    HW225193   3.615  14.056  13.749
74452SOL     OW25194   1.336   8.263   4.852
74452SOL    HW125195   1.362   8.183   4.896
74452SOL    HW225196   1.245   8.248   4.826
74453SOL     OW25197   3.247   3.822   8.394
74453SOL    HW125198   3.247   3.877   8.315
74453SOL    HW225199   3.336   3.829   8.428
74454SOL     OW25200  10.007  10.490   9.256
74454SOL    HW125201  10.090  10.534   9.238
74454SOL    HW225202  10.032  10.411   9.304
74455SOL     OW25203   6.605   3.497   7.288
74455SOL    HW125204   6.673   3.549   7.329
74455SOL    HW225205   6.529   3.556   7.284
74456SOL     OW25206  13.556   9.107   7.407
74456SOL    HW125207  13.611   9.068   7.338
74456SOL    HW225208  13.568   9.049   7.482
74457SOL     OW25209   8.447   4.989   4.683
74457SOL    HW125210   8.465   4.895   4.688
74457SOL    HW225211   8.534   5.029   4.679
74458SOL     OW25212   7.249   6.136   1.111
74458SOL    HW125213   7.322   6.074   1.107
74458SOL    HW225214   7.208   6.129   1.025
74459SOL     OW25215   1.779   3.776   7.355
74459SOL    HW125216   1.724   3.730   7.419
74459SOL    HW225217   1.823   3.705   7.308
74460SOL     OW25218   3.129   8.058   5.204
74460SOL    HW125219   3.208   8.014   5.238
74460SOL    HW225220   3.152   8.151   5.205
74461SOL     OW25221  10.342   9.902   6.160
74461SOL    HW125222  10.415   9.851   6.123
74461SOL    HW225223  10.300   9.942   6.085
74462SOL     OW25224   5.510  10.212   9.244
74462SOL    HW125225   5.562  10.185   9.320
74462SOL    HW225226   5.421  10.186   9.265
74463SOL     OW25227   9.823   2.944  10.633
74463SOL    HW125228   9.912   2.953  10.598
74463SOL    HW225229   9.822   3.002  10.710
74464SOL     OW25230   4.536   7.965   2.312
74464SOL    HW125231   4.555   7.877   2.280
74464SOL    HW225232   4.477   7.951   2.386
74465SOL     OW25233  11.602   0.219   0.025
74465SOL    HW125234  11.610   0.127  14.881
74465SOL    HW225235  11.518   0.247  14.870
74466SOL     OW25236   8.177   9.623  12.557
74466SOL    HW125237   8.126   9.542  12.549
74466SOL    HW225238   8.162   9.652  12.647
74467SOL     OW25239   7.668  12.997   4.988
74467SOL    HW125240   7.703  12.974   5.074
74467SOL    HW225241   7.573  12.990   4.999
74468SOL     OW25242   4.843   7.259   4.109
74468SOL    HW125243   4.770   7.211   4.068
74468SOL    HW225244   4.812   7.279   4.197
74469SOL     OW25245   4.736   7.084   1.367
74469SOL    HW125246   4.700   7.022   1.305
74469SOL    HW225247   4.801   7.134   1.316
74470SOL     OW25248   2.584  13.361   6.143
74470SOL    HW125249   2.564  13.453   6.157
74470SOL    HW225250   2.650  13.340   6.209
74471SOL     OW25251  11.845   0.078   9.044
74471SOL    HW125252  11.878   0.115   9.126
74471SOL    HW225253  11.835   0.153   8.986
74472SOL     OW25254   7.763  13.577  12.926
74472SOL    HW125255   7.681  13.599  12.883
74472SOL    HW225256   7.809  13.661  12.935
74473SOL     OW25257  13.678  10.120   4.295
74473SOL    HW125258  13.692  10.027   4.275
74473SOL    HW225259  13.736  10.166   4.234
74474SOL     OW25260  13.228  12.436   8.446
74474SOL    HW125261  13.231  12.396   8.359
74474SOL    HW225262  13.151  12.493   8.443
74475SOL     OW25263  14.779   3.137   3.116
74475SOL    HW125264  14.791   3.047   3.084
74475SOL    HW225265  14.693   3.163   3.084
74476SOL     OW25266  12.510   5.885  12.190
74476SOL    HW125267  12.563   5.947  12.241
74476SOL    HW225268  12.494   5.812  12.249
74477SOL     OW25269   7.565  13.611  10.080
74477SOL    HW125270   7.627  13.613  10.153
74477SOL    HW225271   7.602  13.546  10.020
74478SOL     OW25272   4.698   3.338   3.351
74478SOL    HW125273   4.648   3.264   3.385
74478SOL    HW225274   4.633   3.404   3.328
74479SOL     OW25275   4.452   3.997  10.877
74479SOL    HW125276   4.412   4.057  10.815
74479SOL    HW225277   4.522   4.047  10.918
74480SOL     OW25278  10.110   3.888  12.398
74480SOL    HW125279  10.118   3.983  12.387
74480SOL    HW225280  10.076   3.877  12.487
74481SOL     OW25281  10.486   3.744   8.789
74481SOL    HW125282  10.511   3.670   8.734
74481SOL    HW225283  10.407   3.716   8.833
74482SOL     OW25284  12.975   4.193   4.601
74482SOL    HW125285  12.894   4.237   4.577
74482SOL    HW225286  12.955   4.099   4.594
74483SOL     OW25287   7.038   4.365   1.358
74483SOL    HW125288   7.121   4.385   1.401
74483SOL    HW225289   6.994   4.306   1.419
74484SOL     OW25290  10.397   9.184   6.027
74484SOL    HW125291  10.343   9.187   5.947
74484SOL    HW225292  10.363   9.110   6.076
74485SOL     OW25293   2.821  12.057   0.704
74485SOL    HW125294   2.892  12.121   0.706
74485SOL    HW225295   2.816  12.023   0.794
74486SOL     OW25296   4.693  11.612  10.633
74486SOL    HW125297   4.759  11.670  10.669
74486SOL    HW225298   4.683  11.543  10.698
74487SOL     OW25299   7.454   4.257   1.886
74487SOL    HW125300   7.379   4.244   1.828
74487SOL    HW225301   7.500   4.173   1.885
74488SOL     OW25302   4.521  12.908  10.759
74488SOL    HW125303   4.432  12.877  10.747
74488SOL    HW225304   4.516  12.966  10.836
74489SOL     OW25305   8.398  14.501  12.840
74489SOL    HW125306   8.432  14.572  12.894
74489SOL    HW225307   8.311  14.483  12.876
74490SOL     OW25308   0.541   6.621   0.283
74490SOL    HW125309   0.564   6.695   0.227
74490SOL    HW225310   0.587   6.638   0.365
74491SOL     OW25311   8.682   6.812   7.712
74491SOL    HW125312   8.670   6.887   7.771
74491SOL    HW225313   8.751   6.760   7.754
74492SOL     OW25314   9.008   9.072   0.066
74492SOL    HW125315   8.959   9.105  14.873
74492SOL    HW225316   9.013   9.145   0.126
74493SOL     OW25317   0.840  12.118  12.374
74493SOL    HW125318   0.921  12.119  12.425
74493SOL    HW225319   0.787  12.049  12.415
74494SOL     OW25320   9.166  11.400  11.353
74494SOL    HW125321   9.073  11.383  11.363
74494SOL    HW225322   9.172  11.456  11.275
74495SOL     OW25323   7.415  13.841   1.069
74495SOL    HW125324   7.435  13.750   1.092
74495SOL    HW225325   7.439  13.890   1.148
74496SOL     OW25326   4.153   5.339   0.593
74496SOL    HW125327   4.172   5.248   0.618
74496SOL    HW225328   4.220   5.360   0.528
74497SOL     OW25329   2.731   8.970  11.421
74497SOL    HW125330   2.806   9.011  11.465
74497SOL    HW225331   2.749   8.980  11.328
74498SOL     OW25332   5.075   0.652  14.781
74498SOL    HW125333   5.112   0.586  14.840
74498SOL    HW225334   5.146   0.672  14.721
74499SOL     OW25335   6.376   5.223  11.553
74499SOL    HW125336   6.349   5.176  11.632
74499SOL    HW225337   6.308   5.203  11.489
74500SOL     OW25338  13.555   8.220   7.253
74500SOL    HW125339  13.537   8.211   7.347
74500SOL    HW225340  13.468   8.217   7.213
74501SOL     OW25341   8.471  14.655   0.744
74501SOL    HW125342   8.432  14.712   0.810
74501SOL    HW225343   8.564  14.676   0.746
74502SOL     OW25344   7.673  10.885  14.688
74502SOL    HW125345   7.663  10.920  14.599
74502SOL    HW225346   7.749  10.930  14.724
74503SOL     OW25347   8.851  10.629  11.730
74503SOL    HW125348   8.891  10.565  11.672
74503SOL    HW225349   8.865  10.593  11.818
74504SOL     OW25350   9.435   2.831  14.429
74504SOL    HW125351   9.345   2.861  14.418
74504SOL    HW225352   9.458   2.853  14.519
74505SOL     OW25353   2.751  14.502   7.867
74505SOL    HW125354   2.714  14.567   7.808
74505SOL    HW225355   2.803  14.445   7.811
74506SOL     OW25356   2.654   6.279   6.943
74506SOL    HW125357   2.601   6.202   6.920
74506SOL    HW225358   2.596   6.330   7.000
74507SOL     OW25359   6.750   8.262  12.674
74507SOL    HW125360   6.677   8.311  12.713
74507SOL    HW225361   6.828   8.300  12.713
74508SOL     OW25362   4.879  13.982  14.573
74508SOL    HW125363   4.854  14.073  14.592
74508SOL    HW225364   4.818  13.955  14.504
74509SOL     OW25365   5.859  13.221  13.042
74509SOL    HW125366   5.797  13.262  12.981
74509SOL    HW225367   5.880  13.137  13.001
74510SOL     OW25368   0.452  11.677   7.123
74510SOL    HW125369   0.370  11.642   7.090
74510SOL    HW225370   0.514  11.665   7.052
74511SOL     OW25371  11.770   5.148  10.908
74511SOL    HW125372  11.814   5.115  10.987
74511SOL    HW225373  11.723   5.225  10.938
74512SOL     OW25374   9.020   1.890   8.426
74512SOL    HW125375   8.933   1.861   8.399
74512SOL    HW225376   9.080   1.824   8.391
74513SOL     OW25377   9.703   9.468   1.087
74513SOL    HW125378   9.650   9.390   1.074
74513SOL    HW225379   9.644   9.532   1.126
74514SOL     OW25380   6.178   9.232   6.643
74514SOL    HW125381   6.134   9.246   6.559
74514SOL    HW225382   6.107   9.230   6.707
74515SOL     OW25383   8.439   7.744  14.780
74515SOL    HW125384   8.491   7.820  14.804
74515SOL    HW225385   8.352   7.779  14.760
74516SOL     OW25386  13.542   5.611   4.782
74516SOL    HW125387  13.536   5.704   4.805
74516SOL    HW225388  13.595   5.573   4.851
74517SOL     OW25389   7.864  14.374   8.363
74517SOL    HW125390   7.841  14.466   8.348
74517SOL    HW225391   7.904  14.373   8.450
74518SOL     OW25392   7.129   0.384   2.138
74518SOL    HW125393   7.070   0.428   2.199
74518SOL    HW225394   7.194   0.341   2.194
74519SOL     OW25395  10.674  13.012   7.040
74519SOL    HW125396  10.664  12.924   7.076
74519SOL    HW225397  10.698  12.999   6.948
74520SOL     OW25398  11.878   3.200   6.454
74520SOL    HW125399  11.864   3.177   6.362
74520SOL    HW225400  11.813   3.149   6.502
74521SOL     OW25401   4.228  12.982  13.594
74521SOL    HW125402   4.301  13.033  13.629
74521SOL    HW225403   4.236  12.992  13.499
74522SOL     OW25404   1.130   4.292  10.342
74522SOL    HW125405   1.138   4.203  10.377
74522SOL    HW225406   1.110   4.279  10.249
74523SOL     OW25407   9.752   1.706   0.314
74523SOL    HW125408   9.811   1.732   0.385
74523SOL    HW225409   9.786   1.622   0.284
74524SOL     OW25410   5.185   6.230   2.910
74524SOL    HW125411   5.220   6.271   2.990
74524SOL    HW225412   5.092   6.218   2.928
74525SOL     OW25413   1.695  11.544   4.352
74525SOL    HW125414   1.638  11.479   4.312
74525SOL    HW225415   1.709  11.513   4.441
74526SOL     OW25416   2.085  12.698  10.090
74526SOL    HW125417   2.018  12.753  10.131
74526SOL    HW225418   2.119  12.644  10.161
74527SOL     OW25419   0.212  10.693   1.271
74527SOL    HW125420   0.140  10.633   1.289
74527SOL    HW225421   0.246  10.716   1.357
74528SOL     OW25422   9.001   6.718   3.124
74528SOL    HW125423   9.027   6.658   3.054
74528SOL    HW225424   8.956   6.662   3.188
74529SOL     OW25425   1.401   7.389  11.710
74529SOL    HW125426   1.420   7.308  11.758
74529SOL    HW225427   1.452   7.456  11.755
74530SOL     OW25428   3.271   4.522  13.157
74530SOL    HW125429   3.309   4.473  13.229
74530SOL    HW225430   3.242   4.456  13.094
74531SOL     OW25431   9.434   6.559  10.713
74531SOL    HW125432   9.483   6.503  10.654
74531SOL    HW225433   9.342   6.543  10.691
74532SOL     OW25434   5.498   6.668   1.735
74532SOL    HW125435   5.537   6.750   1.705
74532SOL    HW225436   5.411   6.693   1.766
74533SOL     OW25437   9.352   9.957   2.564
74533SOL    HW125438   9.421   9.965   2.629
74533SOL    HW225439   9.284   9.906   2.607
74534SOL     OW25440   7.812   6.499  12.559
74534SOL    HW125441   7.894   6.450  12.560
74534SOL    HW225442   7.764   6.467  12.635
74535SOL     OW25443  13.353   0.148   9.458
74535SOL    HW125444  13.370   0.054   9.450
74535SOL    HW225445  13.386   0.172   9.545
74536SOL     OW25446   2.568   5.931  12.256
74536SOL    HW125447   2.643   5.986  12.236
74536SOL    HW225448   2.596   5.876  12.329
74537SOL     OW25449   1.334  14.421   5.058
74537SOL    HW125450   1.239  14.411   5.050
74537SOL    HW225451   1.365  14.431   4.968
74538SOL     OW25452   5.716   1.155   8.466
74538SOL    HW125453   5.634   1.120   8.502
74538SOL    HW225454   5.702   1.249   8.463
74539SOL     OW25455  11.431   2.665  12.744
74539SOL    HW125456  11.509   2.670  12.798
74539SOL    HW225457  11.359   2.687  12.803
74540SOL     OW25458  12.985   9.234  13.798
74540SOL    HW125459  12.902   9.275  13.774
74540SOL    HW225460  12.961   9.164  13.859
74541SOL     OW25461   0.511   5.953   8.510
74541SOL    HW125462   0.536   5.895   8.582
74541SOL    HW225463   0.593   5.990   8.479
74542SOL     OW25464  13.257   8.358   3.506
74542SOL    HW125465  13.220   8.343   3.419
74542SOL    HW225466  13.321   8.428   3.493
74543SOL     OW25467   4.552   7.652  13.795
74543SOL    HW125468   4.570   7.573  13.743
74543SOL    HW225469   4.606   7.642  13.873
74544SOL     OW25470  14.315   8.514  13.333
74544SOL    HW125471  14.220   8.513  13.344
74544SOL    HW225472  14.330   8.476  13.246
74545SOL     OW25473   1.555   7.515   9.639
74545SOL    HW125474   1.585   7.447   9.580
74545SOL    HW225475   1.622   7.583   9.635
74546SOL     OW25476   5.226   1.160   6.354
74546SOL    HW125477   5.278   1.115   6.287
74546SOL    HW225478   5.290   1.209   6.405
74547SOL     OW25479   8.589   0.670   7.375
74547SOL    HW125480   8.575   0.581   7.341
74547SOL    HW225481   8.557   0.727   7.305
74548SOL     OW25482   6.531   0.059   4.769
74548SOL    HW125483   6.576   0.100   4.695
74548SOL    HW225484   6.497  14.859   4.733
74549SOL     OW25485   3.079   6.770   9.835
74549SOL    HW125486   3.089   6.840   9.770
74549SOL    HW225487   3.168   6.756   9.868
74550SOL     OW25488   9.683   4.286   4.872
74550SOL    HW125489   9.721   4.287   4.960
74550SOL    HW225490   9.589   4.300   4.886
74551SOL     OW25491   6.023  14.288   4.591
74551SOL    HW125492   6.097  14.250   4.544
74551SOL    HW225493   5.979  14.213   4.631
74552SOL     OW25494  11.437  11.366   7.395
74552SOL    HW125495  11.342  11.367   7.381
74552SOL    HW225496  11.451  11.297   7.459
74553SOL     OW25497  10.681   7.483  12.760
74553SOL    HW125498  10.704   7.433  12.839
74553SOL    HW225499  10.633   7.558  12.793
74554SOL     OW25500  11.777   5.958   5.182
74554SOL    HW125501  11.743   5.868   5.183
74554SOL    HW225502  11.846   5.959   5.248
74555SOL     OW25503   4.384  12.809   2.582
74555SOL    HW125504   4.451  12.745   2.608
74555SOL    HW225505   4.356  12.848   2.665
74556SOL     OW25506   5.979   2.030   7.705
74556SOL    HW125507   6.005   1.961   7.644
74556SOL    HW225508   5.977   2.110   7.652
74557SOL     OW25509  12.687   0.586  13.647
74557SOL    HW125510  12.741   0.511  13.626
74557SOL    HW225511  12.640   0.606  13.566
74558SOL     OW25512   4.912   0.782   7.758
74558SOL    HW125513   4.833   0.739   7.726
74558SOL    HW225514   4.892   0.875   7.755
74559SOL     OW25515  13.785   4.388   4.651
74559SOL    HW125516  13.748   4.409   4.737
74559SOL    HW225517  13.822   4.300   4.662
74560SOL     OW25518   9.602  11.777   0.117
74560SOL    HW125519   9.654  11.806   0.192
74560SOL    HW225520   9.512  11.774   0.150
74561SOL     OW25521   3.852   2.568   1.228
74561SOL    HW125522   3.918   2.605   1.169
74561SOL    HW225523   3.902   2.508   1.284
74562SOL     OW25524   3.439   2.404  12.065
74562SOL    HW125525   3.469   2.490  12.094
74562SOL    HW225526   3.385   2.372  12.138
74563SOL     OW25527   5.415   2.907   8.577
74563SOL    HW125528   5.483   2.866   8.523
74563SOL    HW225529   5.400   2.992   8.537
74564SOL     OW25530   9.822   2.138  12.764
74564SOL    HW125531   9.904   2.099  12.796
74564SOL    HW225532   9.806   2.212  12.822
74565SOL     OW25533  14.801  14.549   3.584
74565SOL    HW125534  14.736  14.478   3.588
74565SOL    HW225535  14.750  14.626   3.560
74566SOL     OW25536   1.783  12.317   8.061
74566SOL    HW125537   1.762  12.256   8.132
74566SOL    HW225538   1.743  12.400   8.088
74567SOL     OW25539   7.093   8.583  10.544
74567SOL    HW125540   7.008   8.564  10.504
74567SOL    HW225541   7.152   8.520  10.503
74568SOL     OW25542  14.748  10.520   4.930
74568SOL    HW125543  14.683  10.514   4.860
74568SOL    HW225544  14.745  10.611   4.958
74569SOL     OW25545   8.678   9.077   0.292
74569SOL    HW125546   8.737   9.144   0.326
74569SOL    HW225547   8.598   9.125   0.269
74570SOL     OW25548   5.757   3.837   8.662
74570SOL    HW125549   5.691   3.772   8.642
74570SOL    HW225550   5.780   3.875   8.577
74571SOL     OW25551   4.127  14.217  14.031
74571SOL    HW125552   4.088  14.134  14.004
74571SOL    HW225553   4.083  14.239  14.113
74572SOL     OW25554   2.428  10.133  13.925
74572SOL    HW125555   2.392  10.217  13.955
74572SOL    HW225556   2.475  10.154  13.845
74573SOL     OW25557   9.569  13.415  13.014
74573SOL    HW125558   9.622  13.381  13.086
74573SOL    HW225559   9.559  13.508  13.033
74574SOL     OW25560  11.479  13.003   4.598
74574SOL    HW125561  11.482  12.938   4.527
74574SOL    HW225562  11.548  12.975   4.659
74575SOL     OW25563   5.035   4.984   2.417
74575SOL    HW125564   4.986   5.006   2.496
74575SOL    HW225565   4.990   4.906   2.383
74576SOL     OW25566  13.746   0.479   8.711
74576SOL    HW125567  13.826   0.527   8.693
74576SOL    HW225568  13.701   0.531   8.778
74577SOL     OW25569  11.927  12.295   4.048
74577SOL    HW125570  11.944  12.224   4.110
74577SOL    HW225571  11.966  12.266   3.966
74578SOL     OW25572   1.045   3.420   2.908
74578SOL    HW125573   1.122   3.476   2.896
74578SOL    HW225574   1.050   3.358   2.835
74579SOL     OW25575   0.223   3.956   8.991
74579SOL    HW125576   0.129   3.950   9.009
74579SOL    HW225577   0.257   4.015   9.058
74580SOL     OW25578   2.365  12.186   1.633
74580SOL    HW125579   2.278  12.207   1.668
74580SOL    HW225580   2.425  12.234   1.689
74581SOL     OW25581  13.465   7.969   7.026
74581SOL    HW125582  13.558   7.983   7.010
74581SOL    HW225583  13.436   8.049   7.070
74582SOL     OW25584   6.990  12.387  13.413
74582SOL    HW125585   6.901  12.360  13.394
74582SOL    HW225586   7.031  12.311  13.454
74583SOL     OW25587  11.826   6.872  10.626
74583SOL    HW125588  11.765   6.843  10.694
74583SOL    HW225589  11.899   6.811  10.631
74584SOL     OW25590   8.249  10.696  14.532
74584SOL    HW125591   8.324  10.647  14.565
74584SOL    HW225592   8.287  10.763  14.475
74585SOL     OW25593  10.575  13.289   6.468
74585SOL    HW125594  10.603  13.204   6.434
74585SOL    HW225595  10.591  13.350   6.396
74586SOL     OW25596   8.494   6.177   9.020
74586SOL    HW125597   8.456   6.262   9.001
74586SOL    HW225598   8.578   6.197   9.060
74587SOL     OW25599   6.022   8.886   5.561
74587SOL    HW125600   5.942   8.929   5.594
74587SOL    HW225601   6.038   8.930   5.477
74588SOL     OW25602   1.416   8.040   1.077
74588SOL    HW125603   1.321   8.042   1.065
74588SOL    HW225604   1.450   8.009   0.993
74589SOL     OW25605  10.350   5.388   9.457
74589SOL    HW125606  10.433   5.422   9.424
74589SOL    HW225607  10.361   5.388   9.553
74590SOL     OW25608   1.971  13.457   9.187
74590SOL    HW125609   1.899  13.511   9.221
74590SOL    HW225610   1.984  13.389   9.254
74591SOL     OW25611   0.386   0.745  10.344
74591SOL    HW125612   0.389   0.764  10.438
74591SOL    HW225613   0.298   0.773  10.317
74592SOL     OW25614   8.342   4.002  13.383
74592SOL    HW125615   8.258   3.987  13.425
74592SOL    HW225616   8.389   3.919  13.392
74593SOL     OW25617   8.629   5.255   9.496
74593SOL    HW125618   8.581   5.316   9.553
74593SOL    HW225619   8.599   5.277   9.407
74594SOL     OW25620  12.342   1.005   8.062
74594SOL    HW125621  12.361   0.970   7.975
74594SOL    HW225622  12.310   0.931   8.112
74595SOL     OW25623   9.914   2.677   6.800
74595SOL    HW125624   9.909   2.590   6.839
74595SOL    HW225625  10.007   2.698   6.800
74596SOL     OW25626   3.261   9.299  13.288
74596SOL    HW125627   3.281   9.220  13.338
74596SOL    HW225628   3.173   9.323  13.317
74597SOL     OW25629   2.380  11.926   1.238
74597SOL    HW125630   2.348  11.980   1.310
74597SOL    HW225631   2.301  11.886   1.201
74598SOL     OW25632   8.561  10.338   6.149
74598SOL    HW125633   8.555  10.333   6.244
74598SOL    HW225634   8.635  10.281   6.126
74599SOL     OW25635  14.176   0.075   6.295
74599SOL    HW125636  14.229   0.103   6.220
74599SOL    HW225637  14.086   0.095   6.269
74600SOL     OW25638  11.917  13.762   5.014
74600SOL    HW125639  11.983  13.697   4.990
74600SOL    HW225640  11.967  13.835   5.051
74601SOL     OW25641  14.583   9.767   7.956
74601SOL    HW125642  14.620   9.701   7.898
74601SOL    HW225643  14.618   9.746   8.043
74602SOL     OW25644   0.547   5.974   7.736
74602SOL    HW125645   0.457   5.948   7.719
74602SOL    HW225646   0.594   5.951   7.656
74603SOL     OW25647  10.423  14.508  13.027
74603SOL    HW125648  10.391  14.598  13.027
74603SOL    HW225649  10.516  14.516  13.006
74604SOL     OW25650   1.245   7.909   6.587
74604SOL    HW125651   1.167   7.963   6.576
74604SOL    HW225652   1.213   7.819   6.584
74605SOL     OW25653   1.437   2.815   5.536
74605SOL    HW125654   1.359   2.828   5.589
74605SOL    HW225655   1.413   2.845   5.449
74606SOL     OW25656   3.240  14.536   3.798
74606SOL    HW125657   3.207  14.520   3.709
74606SOL    HW225658   3.161  14.544   3.851
74607SOL     OW25659   2.797   9.352  10.367
74607SOL    HW125660   2.854   9.428  10.381
74607SOL    HW225661   2.856   9.282  10.340
74608SOL     OW25662   2.607  10.498  14.427
74608SOL    HW125663   2.538  10.554  14.463
74608SOL    HW225664   2.561  10.438  14.368
74609SOL     OW25665   1.839   6.297  10.654
74609SOL    HW125666   1.929   6.329  10.657
74609SOL    HW225667   1.838   6.234  10.581
74610SOL     OW25668  14.650  12.933  14.790
74610SOL    HW125669  14.585  12.970  14.730
74610SOL    HW225670  14.734  12.955  14.751
74611SOL     OW25671  12.657   0.809   7.794
74611SOL    HW125672  12.588   0.743   7.783
74611SOL    HW225673  12.635   0.878   7.731
74612SOL     OW25674   5.257   8.656   0.024
74612SOL    HW125675   5.302   8.624  14.828
74612SOL    HW225676   5.205   8.581   0.054
74613SOL     OW25677   0.605   6.733  11.423
74613SOL    HW125678   0.691   6.750  11.462
74613SOL    HW225679   0.620   6.743  11.329
74614SOL     OW25680   7.175  10.753   5.122
74614SOL    HW125681   7.213  10.681   5.174
74614SOL    HW225682   7.250  10.794   5.080
74615SOL     OW25683  13.480  12.193   2.868
74615SOL    HW125684  13.559  12.241   2.895
74615SOL    HW225685  13.434  12.174   2.950
74616SOL     OW25686   8.266   4.887   9.743
74616SOL    HW125687   8.350   4.866   9.701
74616SOL    HW225688   8.241   4.805   9.787
74617SOL     OW25689  10.881   0.563  12.781
74617SOL    HW125690  10.928   0.639  12.815
74617SOL    HW225691  10.789   0.585  12.794
74618SOL     OW25692   3.119   8.601  13.383
74618SOL    HW125693   3.203   8.610  13.337
74618SOL    HW225694   3.082   8.519  13.350
74619SOL     OW25695  11.703  11.052   8.335
74619SOL    HW125696  11.681  10.998   8.411
74619SOL    HW225697  11.795  11.031   8.317
74620SOL     OW25698   0.202   6.514  14.832
74620SOL    HW125699   0.224   6.535  14.741
74620SOL    HW225700   0.126   6.570  14.852
74621SOL     OW25701   7.583   8.161  10.093
74621SOL    HW125702   7.633   8.105  10.034
74621SOL    HW225703   7.618   8.142  10.180
74622SOL     OW25704   1.385  14.398   5.494
74622SOL    HW125705   1.399  14.448   5.414
74622SOL    HW225706   1.307  14.344   5.476
74623SOL     OW25707   7.194  14.073   4.279
74623SOL    HW125708   7.241  14.008   4.227
74623SOL    HW225709   7.102  14.046   4.273
74624SOL     OW25710   7.054  12.632  14.368
74624SOL    HW125711   6.994  12.576  14.417
74624SOL    HW225712   7.033  12.615  14.277
74625SOL     OW25713   2.611   3.085  10.151
74625SOL    HW125714   2.699   3.054  10.129
74625SOL    HW225715   2.604   3.074  10.246
74626SOL     OW25716   7.718  14.537   0.106
74626SOL    HW125717   7.768  14.482   0.166
74626SOL    HW225718   7.635  14.490   0.094
74627SOL     OW25719   4.503   8.332  12.287
74627SOL    HW125720   4.513   8.278  12.208
74627SOL    HW225721   4.441   8.400  12.262
74628SOL     OW25722  11.499   2.741   9.063
74628SOL    HW125723  11.518   2.650   9.040
74628SOL    HW225724  11.426   2.765   9.007
74629SOL     OW25725   6.776   8.210   9.808
74629SOL    HW125726   6.703   8.149   9.812
74629SOL    HW225727   6.770   8.260   9.890
74630SOL     OW25728   1.579   6.296   7.221
74630SOL    HW125729   1.618   6.228   7.276
74630SOL    HW225730   1.613   6.279   7.134
74631SOL     OW25731  10.747   8.441  14.325
74631SOL    HW125732  10.735   8.529  14.362
74631SOL    HW225733  10.723   8.450  14.233
74632SOL     OW25734   7.153  14.690   3.076
74632SOL    HW125735   7.111  14.776   3.081
74632SOL    HW225736   7.101  14.641   3.013
74633SOL     OW25737   7.953  14.621   4.892
74633SOL    HW125738   7.871  14.655   4.929
74633SOL    HW225739   7.929  14.536   4.856
74634SOL     OW25740  12.576   3.057  13.271
74634SOL    HW125741  12.552   2.995  13.340
74634SOL    HW225742  12.529   3.137  13.294
74635SOL     OW25743   3.182   3.515   3.115
74635SOL    HW125744   3.269   3.494   3.082
74635SOL    HW225745   3.198   3.554   3.201
74636SOL     OW25746  10.032  11.061   2.536
74636SOL    HW125747  10.021  11.153   2.560
74636SOL    HW225748  10.008  11.058   2.443
74637SOL     OW25749  10.864   2.268   7.667
74637SOL    HW125750  10.854   2.349   7.618
74637SOL    HW225751  10.948   2.277   7.712
74638SOL     OW25752  11.404   9.577   3.334
74638SOL    HW125753  11.345   9.505   3.312
74638SOL    HW225754  11.381   9.646   3.273
74639SOL     OW25755   9.118   7.230   3.743
74639SOL    HW125756   9.183   7.160   3.743
74639SOL    HW225757   9.085   7.232   3.653
74640SOL     OW25758   6.971   8.328  14.375
74640SOL    HW125759   6.950   8.252  14.430
74640SOL    HW225760   6.985   8.292  14.288
74641SOL     OW25761   9.471   1.419   7.712
74641SOL    HW125762   9.439   1.485   7.773
74641SOL    HW225763   9.400   1.354   7.707
74642SOL     OW25764   0.612   4.471  14.113
74642SOL    HW125765   0.679   4.422  14.067
74642SOL    HW225766   0.600   4.423  14.196
74643SOL     OW25767   8.925   4.609   7.355
74643SOL    HW125768   8.963   4.646   7.275
74643SOL    HW225769   8.897   4.686   7.405
74644SOL     OW25770   2.525   5.455  10.563
74644SOL    HW125771   2.592   5.497  10.508
74644SOL    HW225772   2.453   5.517  10.565
74645SOL     OW25773   9.897   4.766   8.050
74645SOL    HW125774   9.828   4.754   7.985
74645SOL    HW225775   9.973   4.795   7.999
74646SOL     OW25776  10.813   3.357   5.463
74646SOL    HW125777  10.818   3.288   5.397
74646SOL    HW225778  10.811   3.439   5.412
74647SOL     OW25779   9.754  11.660   9.322
74647SOL    HW125780   9.829  11.710   9.291
74647SOL    HW225781   9.790  11.573   9.342
74648SOL     OW25782   3.422   2.949   3.086
74648SOL    HW125783   3.373   2.909   3.014
74648SOL    HW225784   3.438   3.038   3.057
74649SOL     OW25785  14.812   8.244   3.201
74649SOL    HW125786  14.793   8.333   3.228
74649SOL    HW225787  14.730   8.212   3.163
74650SOL     OW25788   1.692   5.975  13.239
74650SOL    HW125789   1.770   5.934  13.275
74650SOL    HW225790   1.642   5.903  13.201
74651SOL     OW25791   4.966  12.265   4.180
74651SOL    HW125792   4.923  12.348   4.164
74651SOL    HW225793   5.020  12.250   4.102
74652SOL     OW25794   7.535  11.427  14.568
74652SOL    HW125795   7.484  11.382  14.635
74652SOL    HW225796   7.477  11.496  14.536
74653SOL     OW25797   2.938   9.427   0.290
74653SOL    HW125798   2.963   9.364   0.358
74653SOL    HW225799   2.943   9.378   0.208
74654SOL     OW25800   5.525  12.929   3.915
74654SOL    HW125801   5.454  12.991   3.932
74654SOL    HW225802   5.605  12.978   3.935
74655SOL     OW25803   8.493   7.970   9.871
74655SOL    HW125804   8.500   8.017   9.954
74655SOL    HW225805   8.410   7.923   9.877
74656SOL     OW25806   7.125   1.917  12.771
74656SOL    HW125807   7.192   1.918  12.703
74656SOL    HW225808   7.094   1.826  12.773
74657SOL     OW25809   7.377   0.790   8.928
74657SOL    HW125810   7.322   0.866   8.948
74657SOL    HW225811   7.439   0.821   8.863
74658SOL     OW25812   2.931   8.999   4.617
74658SOL    HW125813   2.884   9.059   4.675
74658SOL    HW225814   2.940   9.047   4.535
74659SOL     OW25815   3.674  13.879   7.130
74659SOL    HW125816   3.603  13.888   7.066
74659SOL    HW225817   3.636  13.829   7.201
74660SOL     OW25818   4.932   5.660  12.296
74660SOL    HW125819   4.928   5.734  12.357
74660SOL    HW225820   4.908   5.698  12.211
74661SOL     OW25821   6.060  12.139   8.883
74661SOL    HW125822   6.148  12.176   8.889
74661SOL    HW225823   6.036  12.117   8.973
74662SOL     OW25824   4.642   0.469  13.593
74662SOL    HW125825   4.556   0.507  13.611
74662SOL    HW225826   4.624   0.394  13.536
74663SOL     OW25827   2.926  12.008  14.866
74663SOL    HW125828   2.971  11.963  14.794
74663SOL    HW225829   2.945  12.101  14.852
74664SOL     OW25830  12.456   6.690   6.236
74664SOL    HW125831  12.550   6.704   6.240
74664SOL    HW225832  12.435   6.693   6.143
74665SOL     OW25833   2.884   5.642  13.865
74665SOL    HW125834   2.848   5.561  13.829
74665SOL    HW225835   2.807   5.695  13.886
74666SOL     OW25836   4.591  14.623   3.252
74666SOL    HW125837   4.661  14.593   3.309
74666SOL    HW225838   4.608  14.582   3.168
74667SOL     OW25839   5.307   5.537   6.451
74667SOL    HW125840   5.284   5.451   6.486
74667SOL    HW225841   5.331   5.519   6.360
74668SOL     OW25842  12.411   7.159  14.208
74668SOL    HW125843  12.359   7.233  14.240
74668SOL    HW225844  12.366   7.081  14.242
74669SOL     OW25845  11.012   4.588   9.629
74669SOL    HW125846  11.095   4.559   9.591
74669SOL    HW225847  11.006   4.540   9.711
74670SOL     OW25848  13.774  12.729  10.052
74670SOL    HW125849  13.710  12.799  10.043
74670SOL    HW225850  13.858  12.772  10.036
74671SOL     OW25851   4.279   7.163   3.673
74671SOL    HW125852   4.304   7.087   3.727
74671SOL    HW225853   4.359   7.184   3.624
74672SOL     OW25854   4.352   5.675   9.744
74672SOL    HW125855   4.291   5.749   9.754
74672SOL    HW225856   4.395   5.667   9.829
74673SOL     OW25857   7.030  11.699  14.664
74673SOL    HW125858   7.059  11.609  14.677
74673SOL    HW225859   7.021  11.708  14.569
74674SOL     OW25860   1.719  14.633   8.499
74674SOL    HW125861   1.746  14.621   8.590
74674SOL    HW225862   1.716  14.545   8.462
74675SOL     OW25863   4.112   4.712  12.199
74675SOL    HW125864   4.172   4.694  12.272
74675SOL    HW225865   4.127   4.641  12.137
74676SOL     OW25866   1.138  10.276   1.798
74676SOL    HW125867   1.157  10.271   1.704
74676SOL    HW225868   1.066  10.215   1.812
74677SOL     OW25869   8.489   4.324  13.078
74677SOL    HW125870   8.495   4.378  13.157
74677SOL    HW225871   8.398   4.294  13.075
74678SOL     OW25872   9.039  14.529   2.538
74678SOL    HW125873   9.023  14.452   2.484
74678SOL    HW225874   9.024  14.603   2.478
74679SOL     OW25875   2.840   3.677   0.068
74679SOL    HW125876   2.825   3.771   0.061
74679SOL    HW225877   2.840   3.646  14.860
74680SOL     OW25878  13.742  12.636   6.973
74680SOL    HW125879  13.694  12.712   6.941
74680SOL    HW225880  13.690  12.603   7.046
74681SOL     OW25881  10.682   0.864   5.765
74681SOL    HW125882  10.685   0.945   5.715
74681SOL    HW225883  10.703   0.890   5.854
74682SOL     OW25884   4.982   4.539  10.858
74682SOL    HW125885   4.987   4.557  10.764
74682SOL    HW225886   5.037   4.606  10.898
74683SOL     OW25887   1.309   3.824   1.629
74683SOL    HW125888   1.329   3.751   1.571
74683SOL    HW225889   1.215   3.814   1.648
74684SOL     OW25890   6.695   1.473   2.357
74684SOL    HW125891   6.767   1.469   2.295
74684SOL    HW225892   6.630   1.530   2.315
74685SOL     OW25893  14.323  14.135   2.026
74685SOL    HW125894  14.372  14.193   2.084
74685SOL    HW225895  14.342  14.168   1.938
74686SOL     OW25896   4.329   9.318   0.400
74686SOL    HW125897   4.370   9.245   0.446
74686SOL    HW225898   4.360   9.310   0.310
74687SOL     OW25899   4.105   1.388  12.656
74687SOL    HW125900   4.056   1.353  12.581
74687SOL    HW225901   4.115   1.313  12.715
74688SOL     OW25902   9.192  10.781   5.234
74688SOL    HW125903   9.262  10.824   5.185
74688SOL    HW225904   9.212  10.688   5.226
74689SOL     OW25905   0.803   1.571   6.406
74689SOL    HW125906   0.840   1.629   6.340
74689SOL    HW225907   0.765   1.630   6.471
74690SOL     OW25908   2.324  14.484   7.787
74690SOL    HW125909   2.376  14.440   7.855
74690SOL    HW225910   2.386  14.544   7.745
74691SOL     OW25911   2.906   8.081   7.114
74691SOL    HW125912   2.941   7.992   7.111
74691SOL    HW225913   2.843   8.085   7.042
74692SOL     OW25914   1.074   7.937   4.511
74692SOL    HW125915   1.048   7.892   4.430
74692SOL    HW225916   0.995   7.936   4.565
74693SOL     OW25917   0.022   6.885   6.627
74693SOL    HW125918  14.810   6.901   6.627
74693SOL    HW225919   0.033   6.802   6.674
74694SOL     OW25920   0.921   2.289   4.554
74694SOL    HW125921   0.867   2.326   4.484
74694SOL    HW225922   1.002   2.339   4.551
74695SOL     OW25923  13.130   2.089   8.462
74695SOL    HW125924  13.125   2.168   8.516
74695SOL    HW225925  13.222   2.062   8.469
74696SOL     OW25926   6.498   2.440  11.873
74696SOL    HW125927   6.477   2.501  11.802
74696SOL    HW225928   6.423   2.445  11.932
74697SOL     OW25929   6.438   0.474  13.325
74697SOL    HW125930   6.493   0.400  13.298
74697SOL    HW225931   6.390   0.442  13.401
74698SOL     OW25932   3.010  11.149  11.405
74698SOL    HW125933   2.946  11.164  11.335
74698SOL    HW225934   2.958  11.141  11.485
74699SOL     OW25935   0.727   6.568  13.364
74699SOL    HW125936   0.663   6.586  13.433
74699SOL    HW225937   0.812   6.582  13.406
74700SOL     OW25938  14.216   4.129   2.794
74700SOL    HW125939  14.265   4.147   2.874
74700SOL    HW225940  14.125   4.151   2.815
74701SOL     OW25941   0.251   8.552  10.581
74701SOL    HW125942   0.285   8.608  10.650
74701SOL    HW225943   0.251   8.464  10.618
74702SOL     OW25944   0.026   6.300  14.622
74702SOL    HW125945  14.827   6.347  14.640
74702SOL    HW225946  14.879   6.213  14.593
74703SOL     OW25947   5.299  10.795   7.247
74703SOL    HW125948   5.361  10.768   7.315
74703SOL    HW225949   5.216  10.756   7.275
74704SOL     OW25950   4.518  10.299  11.128
74704SOL    HW125951   4.511  10.259  11.215
74704SOL    HW225952   4.519  10.224  11.068
74705SOL     OW25953   6.826  13.899  14.649
74705SOL    HW125954   6.891  13.917  14.717
74705SOL    HW225955   6.874  13.911  14.567
74706SOL     OW25956   4.034   1.159   4.673
74706SOL    HW125957   4.105   1.181   4.734
74706SOL    HW225958   4.005   1.073   4.700
74707SOL     OW25959   6.963   3.183  10.947
74707SOL    HW125960   6.982   3.161  10.856
74707SOL    HW225961   6.879   3.229  10.943
74708SOL     OW25962   5.889  11.145  14.633
74708SOL    HW125963   5.978  11.144  14.598
74708SOL    HW225964   5.853  11.229  14.605
74709SOL     OW25965   6.808  11.988  14.504
74709SOL    HW125966   6.803  11.971  14.598
74709SOL    HW225967   6.818  11.901  14.465
74710SOL     OW25968  11.280   7.795   7.196
74710SOL    HW125969  11.229   7.859   7.147
74710SOL    HW225970  11.354   7.773   7.139
74711SOL     OW25971   0.893   9.998   8.600
74711SOL    HW125972   0.849  10.055   8.663
74711SOL    HW225973   0.984   9.995   8.629
74712SOL     OW25974   0.516   8.638  13.224
74712SOL    HW125975   0.580   8.654  13.293
74712SOL    HW225976   0.545   8.692  13.151
74713SOL     OW25977  11.933   5.263   4.218
74713SOL    HW125978  11.970   5.181   4.253
74713SOL    HW225979  11.974   5.332   4.270
74714SOL     OW25980  10.864   9.242   3.635
74714SOL    HW125981  10.777   9.237   3.674
74714SOL    HW225982  10.882   9.154   3.603
74715SOL     OW25983   1.813   5.800   7.401
74715SOL    HW125984   1.892   5.752   7.426
74715SOL    HW225985   1.754   5.788   7.475
74716SOL     OW25986   7.830   2.946   3.284
74716SOL    HW125987   7.815   2.977   3.373
74716SOL    HW225988   7.884   2.868   3.293
74717SOL     OW25989  13.219   5.661   9.131
74717SOL    HW125990  13.207   5.754   9.114
74717SOL    HW225991  13.146   5.638   9.189
74718SOL     OW25992   2.673  14.833  12.360
74718SOL    HW125993   2.749   0.007  12.342
74718SOL    HW225994   2.599  14.881  12.322
74719SOL     OW25995   1.665   5.750  10.767
74719SOL    HW125996   1.644   5.684  10.702
74719SOL    HW225997   1.680   5.701  10.848
74720SOL     OW25998  12.067  11.325   2.088
74720SOL    HW125999  12.044  11.232   2.083
74720SOL    HW226000  12.157  11.326   2.121
74721SOL     OW26001   0.573  12.432   7.334
74721SOL    HW126002   0.663  12.458   7.317
74721SOL    HW226003   0.569  12.341   7.304
74722SOL     OW26004   4.193  11.769   4.572
74722SOL    HW126005   4.269  11.744   4.520
74722SOL    HW226006   4.212  11.858   4.602
74723SOL     OW26007   0.126   0.441   0.937
74723SOL    HW126008   0.031   0.434   0.946
74723SOL    HW226009   0.141   0.533   0.916
74724SOL     OW26010   6.381   5.853   1.917
74724SOL    HW126011   6.380   5.940   1.956
74724SOL    HW226012   6.459   5.811   1.954
74725SOL     OW26013  13.092   6.576  10.733
74725SOL    HW126014  13.057   6.590  10.821
74725SOL    HW226015  13.019   6.597  10.675
74726SOL     OW26016   4.880  14.043   8.658
74726SOL    HW126017   4.925  13.998   8.586
74726SOL    HW226018   4.803  13.989   8.675
74727SOL     OW26019   4.923   9.278   3.785
74727SOL    HW126020   4.928   9.182   3.779
74727SOL    HW226021   4.959   9.309   3.702
74728SOL     OW26022  12.952  13.990   6.110
74728SOL    HW126023  12.896  14.068   6.111
74728SOL    HW226024  13.041  14.025   6.110
74729SOL     OW26025   2.862   1.041   6.100
74729SOL    HW126026   2.895   0.958   6.135
74729SOL    HW226027   2.892   1.107   6.164
74730SOL     OW26028  13.442   4.287  12.697
74730SOL    HW126029  13.508   4.350  12.668
74730SOL    HW226030  13.488   4.203  12.698
74731SOL     OW26031   1.432  10.848   6.215
74731SOL    HW126032   1.449  10.942   6.223
74731SOL    HW226033   1.387  10.839   6.131
74732SOL     OW26034   8.638  11.952  12.118
74732SOL    HW126035   8.552  11.911  12.111
74732SOL    HW226036   8.687  11.895  12.177
74733SOL     OW26037   6.820   5.283  12.024
74733SOL    HW126038   6.903   5.236  12.016
74733SOL    HW226039   6.769   5.255  11.948
74734SOL     OW26040   8.978   8.120   2.267
74734SOL    HW126041   9.026   8.185   2.319
74734SOL    HW226042   9.032   8.041   2.270
74735SOL     OW26043  12.657   7.530  13.509
74735SOL    HW126044  12.712   7.553  13.584
74735SOL    HW226045  12.670   7.436  13.498
74736SOL     OW26046  14.294  12.754   7.940
74736SOL    HW126047  14.281  12.763   7.846
74736SOL    HW226048  14.212  12.785   7.979
74737SOL     OW26049   1.533   6.108   5.320
74737SOL    HW126050   1.602   6.049   5.349
74737SOL    HW226051   1.574   6.158   5.249
74738SOL     OW26052   9.281   8.566   4.909
74738SOL    HW126053   9.357   8.614   4.942
74738SOL    HW226054   9.313   8.521   4.831
74739SOL     OW26055  10.166  10.804   3.152
74739SOL    HW126056  10.099  10.783   3.088
74739SOL    HW226057  10.126  10.869   3.209
74740SOL     OW26058   1.004  12.662   1.983
74740SOL    HW126059   0.924  12.715   1.976
74740SOL    HW226060   1.073  12.725   1.999
74741SOL     OW26061   4.351   1.882   7.436
74741SOL    HW126062   4.433   1.876   7.386
74741SOL    HW226063   4.374   1.846   7.522
74742SOL     OW26064   8.494   5.227  11.471
74742SOL    HW126065   8.413   5.206  11.425
74742SOL    HW226066   8.512   5.150  11.524
74743SOL     OW26067   7.558   8.550   1.114
74743SOL    HW126068   7.495   8.482   1.139
74743SOL    HW226069   7.573   8.600   1.194
74744SOL     OW26070   8.988   7.959  14.273
74744SOL    HW126071   8.956   8.011  14.346
74744SOL    HW226072   9.074   7.927  14.301
74745SOL     OW26073   5.636  11.377   7.698
74745SOL    HW126074   5.675  11.319   7.763
74745SOL    HW226075   5.542  11.360   7.705
74746SOL     OW26076   2.688  12.167   9.316
74746SOL    HW126077   2.653  12.084   9.348
74746SOL    HW226078   2.630  12.234   9.354
74747SOL     OW26079  11.146   2.288   8.254
74747SOL    HW126080  11.193   2.231   8.315
74747SOL    HW226081  11.088   2.229   8.206
74748SOL     OW26082  14.643   5.958  11.907
74748SOL    HW126083  14.709   5.917  11.964
74748SOL    HW226084  14.688   5.971  11.824
74749SOL     OW26085   2.637  11.065  14.214
74749SOL    HW126086   2.709  11.096  14.159
74749SOL    HW226087   2.564  11.122  14.192
74750SOL     OW26088   6.449   3.532   0.358
74750SOL    HW126089   6.399   3.487   0.426
74750SOL    HW226090   6.411   3.501   0.276
74751SOL     OW26091   5.792   9.809   2.455
74751SOL    HW126092   5.810   9.895   2.492
74751SOL    HW226093   5.816   9.817   2.363
74752SOL     OW26094  11.445  13.809  11.626
74752SOL    HW126095  11.444  13.880  11.562
74752SOL    HW226096  11.516  13.832  11.687
74753SOL     OW26097  12.522   4.163   7.187
74753SOL    HW126098  12.490   4.115   7.264
74753SOL    HW226099  12.452   4.225   7.167
74754SOL     OW26100   0.917   7.690   0.298
74754SOL    HW126101   0.955   7.615   0.253
74754SOL    HW226102   0.829   7.698   0.261
74755SOL     OW26103  12.162   5.496   4.064
74755SOL    HW126104  12.213   5.575   4.078
74755SOL    HW226105  12.118   5.481   4.147
74756SOL     OW26106   1.350   6.418  12.489
74756SOL    HW126107   1.301   6.499  12.473
74756SOL    HW226108   1.338   6.367  12.409
74757SOL     OW26109  13.004   6.480   0.788
74757SOL    HW126110  13.086   6.460   0.742
74757SOL    HW226111  12.984   6.401   0.839
74758SOL     OW26112   3.105   8.661   0.674
74758SOL    HW126113   3.015   8.652   0.705
74758SOL    HW226114   3.103   8.737   0.615
74759SOL     OW26115   5.466   3.376   0.661
74759SOL    HW126116   5.508   3.430   0.594
74759SOL    HW226117   5.427   3.439   0.722
74760SOL     OW26118   7.219   8.974   3.257
74760SOL    HW126119   7.159   9.045   3.235
74760SOL    HW226120   7.300   9.019   3.281
74761SOL     OW26121   8.110   7.309  13.677
74761SOL    HW126122   8.054   7.374  13.634
74761SOL    HW226123   8.198   7.327  13.643
74762SOL     OW26124   9.278  10.544   7.862
74762SOL    HW126125   9.204  10.490   7.888
74762SOL    HW226126   9.243  10.601   7.793
74763SOL     OW26127   7.565   3.679   7.862
74763SOL    HW126128   7.592   3.597   7.903
74763SOL    HW226129   7.511   3.723   7.928
74764SOL     OW26130   1.373  12.940   7.272
74764SOL    HW126131   1.323  12.960   7.193
74764SOL    HW226132   1.411  13.024   7.298
74765SOL     OW26133  14.457  10.024   4.251
74765SOL    HW126134  14.446  10.034   4.346
74765SOL    HW226135  14.519   9.951   4.242
74766SOL     OW26136   7.863   5.785   1.926
74766SOL    HW126137   7.775   5.794   1.891
74766SOL    HW226138   7.895   5.875   1.936
74767SOL     OW26139   0.526  13.363  10.439
74767SOL    HW126140   0.566  13.446  10.466
74767SOL    HW226141   0.475  13.385  10.362
74768SOL     OW26142   3.409   7.625   7.827
74768SOL    HW126143   3.451   7.557   7.880
74768SOL    HW226144   3.376   7.579   7.750
74769SOL     OW26145   3.759   0.517   1.046
74769SOL    HW126146   3.713   0.518   0.962
74769SOL    HW226147   3.769   0.610   1.069
74770SOL     OW26148   7.224   6.412   3.552
74770SOL    HW126149   7.153   6.457   3.507
74770SOL    HW226150   7.291   6.401   3.485
74771SOL     OW26151  13.192   1.978   9.499
74771SOL    HW126152  13.281   1.948   9.478
74771SOL    HW226153  13.161   2.017   9.417
74772SOL     OW26154   3.607   1.501   6.451
74772SOL    HW126155   3.557   1.431   6.494
74772SOL    HW226156   3.678   1.456   6.407
74773SOL     OW26157   5.016   7.749   2.342
74773SOL    HW126158   4.976   7.826   2.300
74773SOL    HW226159   4.993   7.758   2.434
74774SOL     OW26160   0.313   6.328  13.780
74774SOL    HW126161   0.400   6.359  13.803
74774SOL    HW226162   0.326   6.281  13.697
74775SOL     OW26163  13.457   0.459  10.205
74775SOL    HW126164  13.392   0.525  10.225
74775SOL    HW226165  13.413   0.376  10.221
74776SOL     OW26166   9.863   5.787   1.182
74776SOL    HW126167   9.891   5.810   1.270
74776SOL    HW226168   9.941   5.754   1.139
74777SOL     OW26169   0.670  12.210  10.793
74777SOL    HW126170   0.652  12.142  10.859
74777SOL    HW226171   0.762  12.233  10.807
74778SOL     OW26172  10.704   8.812   5.876
74778SOL    HW126173  10.710   8.893   5.927
74778SOL    HW226174  10.705   8.743   5.941
74779SOL     OW26175   9.685   3.861   6.741
74779SOL    HW126176   9.771   3.833   6.771
74779SOL    HW226177   9.681   3.954   6.762
74780SOL     OW26178   9.040  10.644   0.395
74780SOL    HW126179   9.114  10.595   0.433
74780SOL    HW226180   9.057  10.644   0.301
74781SOL     OW26181   8.359   8.200   1.495
74781SOL    HW126182   8.285   8.140   1.494
74781SOL    HW226183   8.365   8.228   1.587
74782SOL     OW26184   8.171  10.817   9.387
74782SOL    HW126185   8.114  10.764   9.332
74782SOL    HW226186   8.142  10.907   9.373
74783SOL     OW26187   0.598   6.797  12.082
74783SOL    HW126188   0.557   6.711  12.080
74783SOL    HW226189   0.616   6.812  12.175
74784SOL     OW26190  13.587  13.396  14.492
74784SOL    HW126191  13.567  13.319  14.545
74784SOL    HW226192  13.682  13.403  14.495
74785SOL     OW26193   0.974  13.222   1.087
74785SOL    HW126194   0.907  13.223   1.019
74785SOL    HW226195   1.012  13.134   1.083
74786SOL     OW26196   1.344   8.706   7.598
74786SOL    HW126197   1.278   8.680   7.533
74786SOL    HW226198   1.308   8.675   7.681
74787SOL     OW26199   3.342   3.453  11.040
74787SOL    HW126200   3.271   3.509  11.069
74787SOL    HW226201   3.421   3.506  11.053
74788SOL     OW26202  13.402  11.328   7.696
74788SOL    HW126203  13.312  11.299   7.713
74788SOL    HW226204  13.411  11.324   7.601
74789SOL     OW26205  10.031   0.018   5.079
74789SOL    HW126206   9.946  14.862   5.102
74789SOL    HW226207  10.044   0.088   5.143
74790SOL     OW26208   4.347   1.023   8.695
74790SOL    HW126209   4.409   1.005   8.765
74790SOL    HW226210   4.381   0.974   8.620
74791SOL     OW26211  12.981  12.192  12.539
74791SOL    HW126212  13.023  12.172  12.622
74791SOL    HW226213  12.893  12.223  12.563
74792SOL     OW26214  12.464   5.814   5.852
74792SOL    HW126215  12.536   5.803   5.791
74792SOL    HW226216  12.495   5.880   5.914
74793SOL     OW26217  12.573   4.265   7.502
74793SOL    HW126218  12.602   4.182   7.465
74793SOL    HW226219  12.532   4.242   7.585
74794SOL     OW26220   8.628   5.472  10.280
74794SOL    HW126221   8.604   5.387  10.244
74794SOL    HW226222   8.721   5.482  10.258
74795SOL     OW26223  11.863   2.020  10.244
74795SOL    HW126224  11.913   1.955  10.193
74795SOL    HW226225  11.839   2.087  10.180
74796SOL     OW26226  13.481   1.394   2.748
74796SOL    HW126227  13.467   1.465   2.810
74796SOL    HW226228  13.393   1.370   2.718
74797SOL     OW26229  13.875   7.997   6.854
74797SOL    HW126230  13.877   7.908   6.819
74797SOL    HW226231  13.836   8.049   6.784
74798SOL     OW26232   4.523   7.564   1.771
74798SOL    HW126233   4.509   7.500   1.702
74798SOL    HW226234   4.500   7.518   1.852
74799SOL     OW26235  11.257   6.652  13.080
74799SOL    HW126236  11.314   6.711  13.030
74799SOL    HW226237  11.170   6.690  13.069
74800SOL     OW26238   7.939   1.387   4.247
74800SOL    HW126239   7.855   1.391   4.200
74800SOL    HW226240   7.918   1.415   4.336
74801SOL     OW26241   0.204   6.501   8.840
74801SOL    HW126242   0.230   6.589   8.813
74801SOL    HW226243   0.184   6.455   8.759
74802SOL     OW26244   0.942   0.331   2.189
74802SOL    HW126245   0.916   0.298   2.103
74802SOL    HW226246   0.874   0.394   2.212
74803SOL     OW26247   1.493   9.333  12.601
74803SOL    HW126248   1.584   9.309  12.620
74803SOL    HW226249   1.445   9.251  12.606
74804SOL     OW26250  14.358   3.233   8.335
74804SOL    HW126251  14.438   3.281   8.314
74804SOL    HW226252  14.326   3.273   8.415
74805SOL     OW26253   5.759   3.454  11.827
74805SOL    HW126254   5.760   3.550  11.826
74805SOL    HW226255   5.669   3.430  11.807
74806SOL     OW26256   1.833   9.234   2.445
74806SOL    HW126257   1.818   9.160   2.387
74806SOL    HW226258   1.904   9.205   2.503
74807SOL     OW26259   3.301  13.766   3.946
74807SOL    HW126260   3.396  13.766   3.956
74807SOL    HW226261   3.286  13.728   3.859
74808SOL     OW26262  13.036  12.363  10.983
74808SOL    HW126263  12.942  12.346  10.988
74808SOL    HW226264  13.072  12.329  11.065
74809SOL     OW26265   9.090  11.317   9.801
74809SOL    HW126266   9.026  11.304   9.730
74809SOL    HW226267   9.038  11.353   9.873
74810SOL     OW26268   9.622   9.207  10.267
74810SOL    HW126269   9.631   9.242  10.178
74810SOL    HW226270   9.711   9.185  10.294
74811SOL     OW26271   8.751  10.062   7.282
74811SOL    HW126272   8.746  10.087   7.374
74811SOL    HW226273   8.692  10.122   7.236
74812SOL     OW26274   0.065   6.928   8.345
74812SOL    HW126275  14.872   6.873   8.367
74812SOL    HW226276   0.117   6.875   8.285
74813SOL     OW26277  10.532   9.006  10.598
74813SOL    HW126278  10.588   8.951  10.544
74813SOL    HW226279  10.583   9.086  10.611
74814SOL     OW26280   1.418   2.378   7.935
74814SOL    HW126281   1.334   2.390   7.978
74814SOL    HW226282   1.480   2.359   8.005
74815SOL     OW26283   3.127   2.494  12.931
74815SOL    HW126284   3.112   2.409  12.890
74815SOL    HW226285   3.040   2.527  12.952
74816SOL     OW26286  14.216   2.646   6.002
74816SOL    HW126287  14.299   2.687   6.025
74816SOL    HW226288  14.241   2.563   5.961
74817SOL     OW26289  14.210  13.822   6.334
74817SOL    HW126290  14.135  13.767   6.357
74817SOL    HW226291  14.179  13.874   6.260
74818SOL     OW26292  10.323   1.555   8.429
74818SOL    HW126293  10.339   1.625   8.492
74818SOL    HW226294  10.319   1.599   8.344
74819SOL     OW26295   9.296   6.205  10.659
74819SOL    HW126296   9.333   6.208  10.747
74819SOL    HW226297   9.224   6.141  10.666
74820SOL     OW26298   9.867   5.877   5.612
74820SOL    HW126299   9.843   5.806   5.552
74820SOL    HW226300   9.867   5.836   5.698
74821SOL     OW26301   1.891   6.140   0.442
74821SOL    HW126302   1.968   6.088   0.421
74821SOL    HW226303   1.926   6.218   0.485
74822SOL     OW26304   8.280   3.536  13.180
74822SOL    HW126305   8.344   3.504  13.244
74822SOL    HW226306   8.330   3.589  13.119
74823SOL     OW26307   3.482   5.265   4.659
74823SOL    HW126308   3.430   5.224   4.727
74823SOL    HW226309   3.425   5.333   4.623
74824SOL     OW26310  12.401   3.262  12.041
74824SOL    HW126311  12.423   3.317  12.117
74824SOL    HW226312  12.481   3.213  12.022
74825SOL     OW26313   1.721   8.363   4.088
74825SOL    HW126314   1.697   8.363   4.180
74825SOL    HW226315   1.787   8.295   4.080
74826SOL     OW26316   6.291   1.131   3.111
74826SOL    HW126317   6.327   1.044   3.096
74826SOL    HW226318   6.368   1.187   3.123
74827SOL     OW26319   5.070   6.542   9.109
74827SOL    HW126320   5.145   6.540   9.167
74827SOL    HW226321   4.994   6.531   9.166
74828SOL     OW26322  12.112   9.035   1.731
74828SOL    HW126323  12.142   8.944   1.727
74828SOL    HW226324  12.184   9.084   1.770
74829SOL     OW26325   2.756   9.644   0.752
74829SOL    HW126326   2.843   9.675   0.725
74829SOL    HW226327   2.700   9.660   0.676
74830SOL     OW26328   3.966   2.276  11.191
74830SOL    HW126329   3.882   2.281  11.236
74830SOL    HW226330   3.963   2.193  11.143
74831SOL     OW26331  11.385  10.910   0.701
74831SOL    HW126332  11.351  10.823   0.721
74831SOL    HW226333  11.350  10.929   0.614
74832SOL     OW26334   9.517   8.467   1.462
74832SOL    HW126335   9.477   8.531   1.404
74832SOL    HW226336   9.450   8.450   1.529
74833SOL     OW26337  13.777   4.665  12.533
74833SOL    HW126338  13.742   4.747  12.568
74833SOL    HW226339  13.865   4.659  12.569
74834SOL     OW26340   3.409   5.929   0.357
74834SOL    HW126341   3.481   5.876   0.390
74834SOL    HW226342   3.450   6.003   0.313
74835SOL     OW26343   0.716   2.465  13.639
74835SOL    HW126344   0.687   2.383  13.679
74835SOL    HW226345   0.804   2.446  13.608
74836SOL     OW26346   0.285   0.702   1.209
74836SOL    HW126347   0.228   0.690   1.133
74836SOL    HW226348   0.374   0.692   1.174
74837SOL     OW26349  10.377  14.706   7.469
74837SOL    HW126350  10.292  14.750   7.473
74837SOL    HW226351  10.437  14.766   7.511
74838SOL     OW26352   4.957  12.600   5.737
74838SOL    HW126353   5.029  12.605   5.799
74838SOL    HW226354   4.898  12.672   5.761
74839SOL     OW26355   7.593   2.940   9.353
74839SOL    HW126356   7.622   2.849   9.363
74839SOL    HW226357   7.521   2.935   9.289
74840SOL     OW26358  13.609  11.037  10.066
74840SOL    HW126359  13.595  11.131  10.079
74840SOL    HW226360  13.703  11.029  10.051
74841SOL     OW26361   3.824  10.823  11.623
74841SOL    HW126362   3.898  10.786  11.576
74841SOL    HW226363   3.835  10.918  11.614
74842SOL     OW26364   7.328   6.375  11.350
74842SOL    HW126365   7.241   6.388  11.313
74842SOL    HW226366   7.315   6.313  11.422
74843SOL     OW26367  12.125   0.457   7.905
74843SOL    HW126368  12.064   0.406   7.852
74843SOL    HW226369  12.205   0.405   7.907
74844SOL     OW26370   8.091   2.825   3.478
74844SOL    HW126371   8.117   2.915   3.459
74844SOL    HW226372   8.051   2.794   3.397
74845SOL     OW26373   8.740  12.817  12.548
74845SOL    HW126374   8.655  12.837  12.588
74845SOL    HW226375   8.734  12.725  12.524
74846SOL     OW26376   1.014   0.837   7.305
74846SOL    HW126377   0.940   0.795   7.349
74846SOL    HW226378   1.055   0.890   7.373
74847SOL     OW26379   6.545   3.520   3.132
74847SOL    HW126380   6.492   3.558   3.202
74847SOL    HW226381   6.634   3.551   3.150
74848SOL     OW26382   0.242   4.761   8.722
74848SOL    HW126383   0.257   4.687   8.663
74848SOL    HW226384   0.307   4.826   8.696
74849SOL     OW26385   6.786   2.772   3.169
74849SOL    HW126386   6.735   2.779   3.088
74849SOL    HW226387   6.784   2.860   3.207
74850SOL     OW26388   9.184  13.819   5.521
74850SOL    HW126389   9.169  13.886   5.453
74850SOL    HW226390   9.178  13.736   5.474
74851SOL     OW26391   2.221   8.727   4.243
74851SOL    HW126392   2.231   8.757   4.153
74851SOL    HW226393   2.247   8.635   4.240
74852SOL     OW26394  11.188   7.908  13.449
74852SOL    HW126395  11.149   7.980  13.399
74852SOL    HW226396  11.270   7.943  13.483
74853SOL     OW26397   2.570   5.095   0.619
74853SOL    HW126398   2.572   5.080   0.714
74853SOL    HW226399   2.636   5.035   0.585
74854SOL     OW26400   1.659  13.293   5.023
74854SOL    HW126401   1.595  13.222   5.030
74854SOL    HW226402   1.725  13.272   5.089
74855SOL     OW26403  10.675   5.166   8.484
74855SOL    HW126404  10.631   5.131   8.407
74855SOL    HW226405  10.698   5.256   8.459
74856SOL     OW26406   8.607   5.989   1.623
74856SOL    HW126407   8.604   6.062   1.685
74856SOL    HW226408   8.557   6.020   1.548
74857SOL     OW26409   8.734   0.443   7.000
74857SOL    HW126410   8.672   0.504   6.959
74857SOL    HW226411   8.732   0.466   7.093
74858SOL     OW26412   4.775  12.267   3.402
74858SOL    HW126413   4.762  12.358   3.375
74858SOL    HW226414   4.860  12.266   3.444
74859SOL     OW26415   5.285   5.632   6.864
74859SOL    HW126416   5.302   5.703   6.926
74859SOL    HW226417   5.363   5.628   6.809
74860SOL     OW26418  10.693   3.285  10.735
74860SOL    HW126419  10.778   3.242  10.741
74860SOL    HW226420  10.634   3.230  10.786
74861SOL     OW26421   0.002   2.417   7.127
74861SOL    HW126422  14.806   2.396   7.179
74861SOL    HW226423  14.860   2.497   7.080
74862SOL     OW26424   6.695   7.668   8.908
74862SOL    HW126425   6.699   7.762   8.924
74862SOL    HW226426   6.771   7.649   8.852
74863SOL     OW26427  11.025  14.009   2.756
74863SOL    HW126428  11.077  14.089   2.766
74863SOL    HW226429  11.025  13.993   2.661
74864SOL     OW26430   9.757   3.259   9.153
74864SOL    HW126431   9.849   3.237   9.172
74864SOL    HW226432   9.758   3.352   9.131
74865SOL     OW26433   0.196   5.256   1.423
74865SOL    HW126434   0.169   5.185   1.364
74865SOL    HW226435   0.263   5.303   1.374
74866SOL     OW26436   4.620   5.473   8.830
74866SOL    HW126437   4.601   5.468   8.924
74866SOL    HW226438   4.603   5.564   8.806
74867SOL     OW26439  12.596  14.230  10.736
74867SOL    HW126440  12.579  14.299  10.672
74867SOL    HW226441  12.579  14.271  10.821
74868SOL     OW26442  10.180   2.701   1.547
74868SOL    HW126443  10.221   2.787   1.536
74868SOL    HW226444  10.226   2.662   1.621
74869SOL     OW26445  11.252   9.767   6.686
74869SOL    HW126446  11.198   9.728   6.617
74869SOL    HW226447  11.203   9.751   6.767
74870SOL     OW26448   9.548  13.300  13.271
74870SOL    HW126449   9.625  13.254  13.305
74870SOL    HW226450   9.478  13.236  13.274
74871SOL     OW26451  12.254   8.593   6.542
74871SOL    HW126452  12.168   8.632   6.555
74871SOL    HW226453  12.312   8.668   6.527
74872SOL     OW26454   7.545   7.992   8.360
74872SOL    HW126455   7.580   8.008   8.448
74872SOL    HW226456   7.457   7.957   8.375
74873SOL     OW26457   1.885  14.382   1.797
74873SOL    HW126458   1.798  14.342   1.797
74873SOL    HW226459   1.894  14.419   1.709
74874SOL     OW26460  14.208   1.213   3.959
74874SOL    HW126461  14.275   1.172   3.904
74874SOL    HW226462  14.137   1.149   3.962
74875SOL     OW26463   0.751  10.844   6.786
74875SOL    HW126464   0.706  10.761   6.802
74875SOL    HW226465   0.778  10.840   6.694
74876SOL     OW26466   3.531   2.242   9.886
74876SOL    HW126467   3.443   2.216   9.911
74876SOL    HW226468   3.543   2.329   9.925
74877SOL     OW26469  10.282  13.207   3.993
74877SOL    HW126470  10.194  13.181   3.966
74877SOL    HW226471  10.272  13.234   4.084
74878SOL     OW26472   9.555  13.843  12.639
74878SOL    HW126473   9.580  13.894  12.562
74878SOL    HW226474   9.622  13.862  12.704
74879SOL     OW26475  13.394   6.737  11.569
74879SOL    HW126476  13.475   6.750  11.618
74879SOL    HW226477  13.382   6.642  11.565
74880SOL     OW26478   5.767   6.916  13.968
74880SOL    HW126479   5.763   6.907  13.873
74880SOL    HW226480   5.760   7.011  13.983
74881SOL     OW26481  12.943   8.092   6.259
74881SOL    HW126482  12.884   8.031   6.215
74881SOL    HW226483  12.896   8.116   6.339
74882SOL     OW26484   1.363   5.501   0.563
74882SOL    HW126485   1.376   5.553   0.484
74882SOL    HW226486   1.448   5.501   0.607
74883SOL     OW26487   1.295   0.047   8.621
74883SOL    HW126488   1.224   0.036   8.558
74883SOL    HW226489   1.257   0.098   8.692
74884SOL     OW26490   3.259   1.112   2.804
74884SOL    HW126491   3.268   1.193   2.854
74884SOL    HW226492   3.331   1.114   2.741
74885SOL     OW26493   5.511  14.246   7.051
74885SOL    HW126494   5.577  14.267   6.985
74885SOL    HW226495   5.524  14.152   7.069
74886SOL     OW26496  14.849  10.537   4.488
74886SOL    HW126497   0.036  10.592   4.526
74886SOL    HW226498  14.789  10.599   4.446
74887SOL     OW26499   0.084   7.019   0.925
74887SOL    HW126500   0.145   7.083   0.887
74887SOL    HW226501   0.096   7.029   1.019
74888SOL     OW26502   3.274   8.632   7.016
74888SOL    HW126503   3.239   8.662   6.932
74888SOL    HW226504   3.328   8.556   6.993
74889SOL     OW26505   7.118   9.891   4.046
74889SOL    HW126506   7.035   9.920   4.085
74889SOL    HW226507   7.130   9.949   3.971
74890SOL     OW26508   0.849   2.008  12.236
74890SOL    HW126509   0.759   2.022  12.207
74890SOL    HW226510   0.857   1.914  12.249
74891SOL     OW26511   8.246   0.081   0.290
74891SOL    HW126512   8.305   0.023   0.339
74891SOL    HW226513   8.188   0.021   0.243
74892SOL     OW26514   0.226   5.442  11.982
74892SOL    HW126515   0.275   5.383  11.924
74892SOL    HW226516   0.187   5.506  11.923
74893SOL     OW26517   2.325   2.749   2.630
74893SOL    HW126518   2.308   2.655   2.640
74893SOL    HW226519   2.367   2.755   2.544
74894SOL     OW26520   2.123   3.791  11.118
74894SOL    HW126521   2.163   3.877  11.135
74894SOL    HW226522   2.189   3.743  11.069
74895SOL     OW26523   8.146   5.943  14.772
74895SOL    HW126524   8.159   5.930  14.678
74895SOL    HW226525   8.076   6.008  14.777
74896SOL     OW26526   5.079   3.303   9.956
74896SOL    HW126527   5.110   3.328  10.044
74896SOL    HW226528   4.989   3.275   9.970
74897SOL     OW26529   8.262   7.816  11.040
74897SOL    HW126530   8.289   7.850  10.955
74897SOL    HW226531   8.174   7.850  11.052
74898SOL     OW26532  13.752   3.400   1.939
74898SOL    HW126533  13.751   3.467   1.871
74898SOL    HW226534  13.841   3.366   1.938
74899SOL     OW26535   8.765  11.797  12.283
74899SOL    HW126536   8.807  11.839  12.358
74899SOL    HW226537   8.726  11.717  12.318
74900SOL     OW26538  14.617  14.426   3.180
74900SOL    HW126539  14.635  14.345   3.228
74900SOL    HW226540  14.537  14.461   3.220
74901SOL     OW26541   5.330   9.396   5.345
74901SOL    HW126542   5.372   9.481   5.357
74901SOL    HW226543   5.237   9.415   5.348
74902SOL     OW26544   3.557  11.586   9.896
74902SOL    HW126545   3.513  11.561   9.815
74902SOL    HW226546   3.566  11.681   9.891
74903SOL     OW26547   4.240   7.981   8.652
74903SOL    HW126548   4.315   7.978   8.711
74903SOL    HW226549   4.278   7.974   8.564
74904SOL     OW26550  13.737   4.236  11.377
74904SOL    HW126551  13.737   4.229  11.472
74904SOL    HW226552  13.822   4.275  11.356
74905SOL     OW26553   3.065  11.164   8.846
74905SOL    HW126554   3.059  11.073   8.817
74905SOL    HW226555   3.067  11.215   8.766
74906SOL     OW26556  10.304   6.999  12.518
74906SOL    HW126557  10.286   7.029  12.429
74906SOL    HW226558  10.302   7.078  12.572
74907SOL     OW26559   6.331  12.530  11.581
74907SOL    HW126560   6.371  12.490  11.658
74907SOL    HW226561   6.403  12.542  11.520
74908SOL     OW26562  10.210   3.645   7.236
74908SOL    HW126563  10.241   3.578   7.176
74908SOL    HW226564  10.115   3.637   7.234
74909SOL     OW26565   6.612   9.757   5.062
74909SOL    HW126566   6.658   9.702   4.998
74909SOL    HW226567   6.519   9.736   5.048
74910SOL     OW26568   0.266   5.353   8.453
74910SOL    HW126569   0.316   5.376   8.374
74910SOL    HW226570   0.234   5.436   8.487
74911SOL     OW26571   1.353   9.838   5.193
74911SOL    HW126572   1.326   9.837   5.285
74911SOL    HW226573   1.443   9.805   5.194
74912SOL     OW26574   8.094   6.443  14.284
74912SOL    HW126575   8.035   6.385  14.331
74912SOL    HW226576   8.037   6.508  14.242
74913SOL     OW26577  12.432   1.227  10.067
74913SOL    HW126578  12.337   1.239  10.075
74913SOL    HW226579  12.469   1.312  10.091
74914SOL     OW26580   9.841   8.455  10.017
74914SOL    HW126581   9.777   8.524  10.037
74914SOL    HW226582   9.877   8.430  10.102
74915SOL     OW26583   7.261   0.110   6.306
74915SOL    HW126584   7.280   0.078   6.218
74915SOL    HW226585   7.306   0.050   6.365
74916SOL     OW26586   7.037   3.856   6.585
74916SOL    HW126587   7.085   3.776   6.605
74916SOL    HW226588   6.984   3.834   6.508
74917SOL     OW26589  13.002  13.742   8.088
74917SOL    HW126590  12.931  13.700   8.137
74917SOL    HW226591  12.959  13.780   8.012
74918SOL     OW26592   9.164   7.718  13.184
74918SOL    HW126593   9.159   7.707  13.089
74918SOL    HW226594   9.238   7.663  13.210
74919SOL     OW26595   9.883   6.172  10.833
74919SOL    HW126596   9.795   6.163  10.869
74919SOL    HW226597   9.877   6.134  10.745
74920SOL     OW26598   3.718   9.622  11.694
74920SOL    HW126599   3.639   9.586  11.735
74920SOL    HW226600   3.705   9.717  11.696
74921SOL     OW26601   4.643   0.906  13.626
74921SOL    HW126602   4.641   0.980  13.687
74921SOL    HW226603   4.735   0.899  13.600
74922SOL     OW26604  11.644   5.852   8.669
74922SOL    HW126605  11.649   5.868   8.763
74922SOL    HW226606  11.588   5.775   8.660
74923SOL     OW26607  13.896   3.120   8.617
74923SOL    HW126608  13.989   3.140   8.603
74923SOL    HW226609  13.884   3.129   8.711
74924SOL     OW26610   9.304   0.570   3.907
74924SOL    HW126611   9.369   0.542   3.842
74924SOL    HW226612   9.349   0.564   3.991
74925SOL     OW26613  14.049  10.727   4.797
74925SOL    HW126614  13.973  10.784   4.790
74925SOL    HW226615  14.051  10.701   4.889
74926SOL     OW26616   5.119  14.152  12.430
74926SOL    HW126617   5.026  14.132  12.425
74926SOL    HW226618   5.125  14.222  12.495
74927SOL     OW26619  11.132   3.989   4.718
74927SOL    HW126620  11.172   4.075   4.711
74927SOL    HW226621  11.076   3.982   4.641
74928SOL     OW26622   7.691  11.313   8.070
74928SOL    HW126623   7.596  11.319   8.067
74928SOL    HW226624   7.713  11.243   8.009
74929SOL     OW26625   2.226   0.398   9.544
74929SOL    HW126626   2.194   0.315   9.508
74929SOL    HW226627   2.288   0.372   9.612
74930SOL     OW26628  13.008   5.968   5.278
74930SOL    HW126629  13.025   5.896   5.338
74930SOL    HW226630  13.049   5.941   5.196
74931SOL     OW26631   3.114   0.129  12.069
74931SOL    HW126632   3.150   0.121  11.980
74931SOL    HW226633   3.068   0.213  12.068
74932SOL     OW26634   9.453   7.861   9.784
74932SOL    HW126635   9.413   7.778   9.812
74932SOL    HW226636   9.378   7.919   9.768
74933SOL     OW26637   1.111  10.445  10.693
74933SOL    HW126638   1.119  10.443  10.789
74933SOL    HW226639   1.045  10.378  10.674
74934SOL     OW26640   5.602   3.830   2.338
74934SOL    HW126641   5.506   3.828   2.335
74934SOL    HW226642   5.623   3.921   2.359
74935SOL     OW26643   1.181   7.471  11.088
74935SOL    HW126644   1.189   7.538  11.156
74935SOL    HW226645   1.096   7.429  11.105
74936SOL     OW26646   0.089  11.343   9.074
74936SOL    HW126647   0.143  11.348   8.995
74936SOL    HW226648   0.148  11.309   9.141
74937SOL     OW26649   5.122  13.376   8.909
74937SOL    HW126650   5.119  13.402   9.001
74937SOL    HW226651   5.146  13.456   8.862
74938SOL     OW26652   2.955   6.773  14.345
74938SOL    HW126653   2.903   6.694  14.364
74938SOL    HW226654   3.037   6.760  14.391
74939SOL     OW26655  11.838   1.216  11.917
74939SOL    HW126656  11.873   1.187  11.832
74939SOL    HW226657  11.749   1.183  11.918
74940SOL     OW26658   6.408   7.611  12.171
74940SOL    HW126659   6.383   7.519  12.180
74940SOL    HW226660   6.494   7.609  12.129
74941SOL     OW26661   8.879  10.270  12.993
74941SOL    HW126662   8.895  10.280  12.900
74941SOL    HW226663   8.855  10.178  13.004
74942SOL     OW26664   7.664  13.389   9.975
74942SOL    HW126665   7.577  13.354   9.960
74942SOL    HW226666   7.722  13.333   9.924
74943SOL     OW26667   6.973  13.890  11.522
74943SOL    HW126668   6.907  13.929  11.465
74943SOL    HW226669   7.026  13.964  11.551
74944SOL     OW26670  11.551   8.150  14.857
74944SOL    HW126671  11.599   8.122  14.780
74944SOL    HW226672  11.469   8.188  14.823
74945SOL     OW26673   7.927  11.359   7.383
74945SOL    HW126674   7.955  11.324   7.468
74945SOL    HW226675   7.861  11.425   7.405
74946SOL     OW26676   4.129  14.828   9.994
74946SOL    HW126677   4.215  14.868  10.003
74946SOL    HW226678   4.082  14.853  10.074
74947SOL     OW26679   7.834   0.917   9.924
74947SOL    HW126680   7.920   0.957   9.920
74947SOL    HW226681   7.799   0.924   9.835
74948SOL     OW26682   8.983   3.750  14.639
74948SOL    HW126683   9.009   3.701  14.561
74948SOL    HW226684   9.061   3.752  14.694
74949SOL     OW26685   3.587   3.486  14.035
74949SOL    HW126686   3.589   3.494  14.130
74949SOL    HW226687   3.512   3.429  14.017
74950SOL     OW26688   7.913   4.913   9.853
74950SOL    HW126689   7.948   4.890   9.939
74950SOL    HW226690   7.842   4.974   9.872
74951SOL     OW26691  14.260   2.292   1.332
74951SOL    HW126692  14.257   2.304   1.427
74951SOL    HW226693  14.267   2.380   1.297
74952SOL     OW26694  10.984   4.352   6.530
74952SOL    HW126695  10.987   4.299   6.450
74952SOL    HW226696  11.063   4.406   6.527
74953SOL     OW26697   4.193   8.789  13.471
74953SOL    HW126698   4.106   8.830  13.473
74953SOL    HW226699   4.229   8.807  13.558
74954SOL     OW26700  11.069   6.326  12.401
74954SOL    HW126701  11.163   6.340  12.405
74954SOL    HW226702  11.060   6.233  12.380
74955SOL     OW26703  12.236   8.341   5.752
74955SOL    HW126704  12.257   8.344   5.846
74955SOL    HW226705  12.217   8.432   5.730
74956SOL     OW26706  12.551  14.324   8.380
74956SOL    HW126707  12.632  14.301   8.334
74956SOL    HW226708  12.568  14.410   8.417
74957SOL     OW26709  13.668   6.735   1.258
74957SOL    HW126710  13.678   6.822   1.220
74957SOL    HW226711  13.620   6.749   1.339
74958SOL     OW26712   8.928   1.189   9.054
74958SOL    HW126713   8.976   1.149   8.981
74958SOL    HW226714   8.909   1.278   9.025
74959SOL     OW26715   9.113   6.404   5.644
74959SOL    HW126716   9.085   6.496   5.643
74959SOL    HW226717   9.207   6.408   5.663
74960SOL     OW26718   4.248   7.949   3.894
74960SOL    HW126719   4.309   7.898   3.947
74960SOL    HW226720   4.231   7.893   3.818
74961SOL     OW26721   5.329   7.477   5.416
74961SOL    HW126722   5.400   7.540   5.424
74961SOL    HW226723   5.309   7.452   5.506
74962SOL     OW26724  14.055   9.227  11.654
74962SOL    HW126725  14.058   9.167  11.729
74962SOL    HW226726  14.132   9.282  11.664
74963SOL     OW26727   0.533  12.163   7.212
74963SOL    HW126728   0.517  12.203   7.126
74963SOL    HW226729   0.466  12.095   7.219
74964SOL     OW26730  13.941   8.199   8.233
74964SOL    HW126731  13.846   8.206   8.219
74964SOL    HW226732  13.959   8.106   8.227
74965SOL     OW26733   9.793   3.596   1.054
74965SOL    HW126734   9.753   3.656   1.117
74965SOL    HW226735   9.833   3.652   0.988
74966SOL     OW26736  12.114   9.359   6.057
74966SOL    HW126737  12.075   9.342   6.142
74966SOL    HW226738  12.078   9.292   5.999
74967SOL     OW26739   8.888   4.295   0.547
74967SOL    HW126740   8.885   4.386   0.518
74967SOL    HW226741   8.965   4.258   0.503
74968SOL     OW26742  12.048   5.459   2.257
74968SOL    HW126743  11.991   5.470   2.181
74968SOL    HW226744  12.101   5.539   2.259
74969SOL     OW26745   6.918   1.093  13.218
74969SOL    HW126746   6.829   1.066  13.242
74969SOL    HW226747   6.908   1.138  13.135
74970SOL     OW26748   7.312   2.593   8.566
74970SOL    HW126749   7.235   2.545   8.536
74970SOL    HW226750   7.315   2.577   8.660
74971SOL     OW26751   5.165  14.858  13.289
74971SOL    HW126752   5.185   0.063  13.324
74971SOL    HW226753   5.182  14.798  13.361
74972SOL     OW26754  14.329   8.893  11.538
74972SOL    HW126755  14.399   8.942  11.582
74972SOL    HW226756  14.297   8.952  11.470
74973SOL     OW26757   4.809   1.137  12.266
74973SOL    HW126758   4.715   1.156  12.272
74973SOL    HW226759   4.813   1.057  12.213
74974SOL     OW26760   6.284   6.560   8.825
74974SOL    HW126761   6.220   6.497   8.858
74974SOL    HW226762   6.360   6.506   8.802
74975SOL     OW26763   6.763   2.952  12.514
74975SOL    HW126764   6.767   2.874  12.459
74975SOL    HW226765   6.801   3.022  12.461
74976SOL     OW26766   8.688   9.563  13.821
74976SOL    HW126767   8.766   9.603  13.860
74976SOL    HW226768   8.616   9.591  13.878
74977SOL     OW26769   6.618   0.763   6.721
74977SOL    HW126770   6.533   0.761   6.678
74977SOL    HW226771   6.617   0.686   6.779
74978SOL     OW26772   0.231  11.732   7.845
74978SOL    HW126773   0.184  11.816   7.843
74978SOL    HW226774   0.286  11.734   7.767
74979SOL     OW26775   6.640   4.930  11.726
74979SOL    HW126776   6.561   4.936  11.780
74979SOL    HW226777   6.710   4.912  11.789
74980SOL     OW26778   3.808   4.011   3.065
74980SOL    HW126779   3.887   3.961   3.086
74980SOL    HW226780   3.764   3.959   2.999
74981SOL     OW26781   5.999   0.627  11.616
74981SOL    HW126782   6.060   0.582  11.557
74981SOL    HW226783   5.957   0.557  11.665
74982SOL     OW26784   4.996  10.341   8.773
74982SOL    HW126785   5.070  10.294   8.810
74982SOL    HW226786   4.961  10.283   8.706
74983SOL     OW26787   0.683   9.489   7.218
74983SOL    HW126788   0.618   9.527   7.278
74983SOL    HW226789   0.730   9.425   7.271
74984SOL     OW26790  12.022   9.687   9.528
74984SOL    HW126791  12.094   9.721   9.581
74984SOL    HW226792  12.030   9.592   9.536
74985SOL     OW26793  14.823  14.758   0.203
74985SOL    HW126794  14.869  14.680   0.171
74985SOL    HW226795  14.859  14.830   0.151
74986SOL     OW26796  11.993   4.194   9.112
74986SOL    HW126797  11.919   4.222   9.166
74986SOL    HW226798  11.954   4.170   9.028
74987SOL     OW26799   0.001   0.196  11.268
74987SOL    HW126800   0.035   0.162  11.186
74987SOL    HW226801  14.789   0.204  11.253
74988SOL     OW26802   2.511   2.947   2.995
74988SOL    HW126803   2.428   2.943   2.948
74988SOL    HW226804   2.509   3.031   3.041
74989SOL     OW26805  14.391  14.764   1.323
74989SOL    HW126806  14.450  14.817   1.378
74989SOL    HW226807  14.445  14.735   1.251
74990SOL     OW26808   1.062   2.636  10.152
74990SOL    HW126809   0.992   2.608  10.211
74990SOL    HW226810   1.079   2.560  10.097
74991SOL     OW26811   6.015   8.883   2.747
74991SOL    HW126812   5.964   8.830   2.687
74991SOL    HW226813   6.052   8.952   2.693
74992SOL     OW26814   5.157  14.130  13.937
74992SOL    HW126815   5.219  14.134  14.009
74992SOL    HW226816   5.087  14.191  13.961
74993SOL     OW26817   1.176   5.894   4.360
74993SOL    HW126818   1.166   5.816   4.416
74993SOL    HW226819   1.134   5.870   4.278
74994SOL     OW26820   1.824   3.222   4.314
74994SOL    HW126821   1.803   3.160   4.384
74994SOL    HW226822   1.761   3.294   4.326
74995SOL     OW26823   7.523   9.876   2.556
74995SOL    HW126824   7.445   9.866   2.501
74995SOL    HW226825   7.530   9.792   2.602
74996SOL     OW26826   9.799   1.914   2.284
74996SOL    HW126827   9.858   1.879   2.217
74996SOL    HW226828   9.853   1.976   2.333
74997SOL     OW26829  13.627  13.404   3.095
74997SOL    HW126830  13.686  13.340   3.134
74997SOL    HW226831  13.657  13.412   3.004
74998SOL     OW26832  14.040   0.482   9.117
74998SOL    HW126833  14.089   0.404   9.090
74998SOL    HW226834  13.961   0.480   9.063
74999SOL     OW26835   9.629  14.851   2.324
74999SOL    HW126836   9.684  14.805   2.261
74999SOL    HW226837   9.565  14.786   2.352
75000SOL     OW26838   6.802   3.965   3.767
75000SOL    HW126839   6.864   3.921   3.708
75000SOL    HW226840   6.746   4.016   3.709
75001SOL     OW26841   9.723  10.778   6.374
75001SOL    HW126842   9.772  10.809   6.298
75001SOL    HW226843   9.656  10.721   6.337
75002SOL     OW26844   3.376   5.964  12.287
75002SOL    HW126845   3.344   5.917  12.364
75002SOL    HW226846   3.418   6.043  12.322
75003SOL     OW26847  10.468   7.693   9.596
75003SOL    HW126848  10.520   7.765   9.632
75003SOL    HW226849  10.378   7.714   9.620
75004SOL     OW26850   2.055   9.022   8.976
75004SOL    HW126851   2.094   8.941   9.009
75004SOL    HW226852   2.029   9.070   9.054
75005SOL     OW26853   9.736   7.939   9.113
75005SOL    HW126854   9.766   7.944   9.204
75005SOL    HW226855   9.675   8.012   9.104
75006SOL     OW26856   7.801  11.820  10.173
75006SOL    HW126857   7.856  11.856  10.103
75006SOL    HW226858   7.717  11.864  10.163
75007SOL     OW26859   5.619   1.639   8.417
75007SOL    HW126860   5.574   1.716   8.452
75007SOL    HW226861   5.586   1.632   8.327
75008SOL     OW26862  10.537  14.520  14.820
75008SOL    HW126863  10.465  14.561  14.866
75008SOL    HW226864  10.535  14.428  14.848
75009SOL     OW26865   7.373  10.024   4.488
75009SOL    HW126866   7.347   9.934   4.508
75009SOL    HW226867   7.369  10.070   4.572
75010SOL     OW26868   3.802   0.550  12.404
75010SOL    HW126869   3.749   0.477  12.373
75010SOL    HW226870   3.791   0.549  12.500
75011SOL     OW26871   3.326   5.712   9.914
75011SOL    HW126872   3.333   5.753  10.001
75011SOL    HW226873   3.263   5.641   9.926
75012SOL     OW26874   9.621   5.495   1.425
75012SOL    HW126875   9.648   5.491   1.517
75012SOL    HW226876   9.675   5.564   1.387
75013SOL     OW26877   6.396   4.197   4.646
75013SOL    HW126878   6.442   4.272   4.683
75013SOL    HW226879   6.441   4.180   4.563
75014SOL     OW26880   7.630   1.073   6.560
75014SOL    HW126881   7.633   1.167   6.539
75014SOL    HW226882   7.563   1.067   6.628
75015SOL     OW26883   4.721  11.713   1.068
75015SOL    HW126884   4.802  11.662   1.074
75015SOL    HW226885   4.749  11.799   1.035
75016SOL     OW26886   6.231  11.156  14.624
75016SOL    HW126887   6.290  11.223  14.591
75016SOL    HW226888   6.283  11.075  14.622
75017SOL     OW26889   3.354  13.541   0.723
75017SOL    HW126890   3.402  13.566   0.802
75017SOL    HW226891   3.418  13.552   0.652
75018SOL     OW26892   0.883   0.483  13.733
75018SOL    HW126893   0.821   0.524  13.794
75018SOL    HW226894   0.964   0.474  13.783
75019SOL     OW26895   9.078  14.058  10.882
75019SOL    HW126896   9.142  14.128  10.875
75019SOL    HW226897   9.127  13.983  10.918
75020SOL     OW26898   4.799   7.041   2.818
75020SOL    HW126899   4.812   6.953   2.853
75020SOL    HW226900   4.798   7.098   2.895
75021SOL     OW26901   6.322   2.180   7.831
75021SOL    HW126902   6.373   2.125   7.891
75021SOL    HW226903   6.326   2.134   7.748
75022SOL     OW26904   0.001   9.718  14.423
75022SOL    HW126905  14.814   9.776  14.456
75022SOL    HW226906   0.076   9.736  14.479
75023SOL     OW26907  13.070   1.547  11.031
75023SOL    HW126908  13.011   1.616  11.000
75023SOL    HW226909  13.019   1.499  11.096
75024SOL     OW26910   2.636  14.556  14.500
75024SOL    HW126911   2.673  14.505  14.572
75024SOL    HW226912   2.552  14.514  14.482
75025SOL     OW26913  13.156   1.826   1.327
75025SOL    HW126914  13.101   1.874   1.266
75025SOL    HW226915  13.206   1.894   1.374
75026SOL     OW26916  12.863   5.297   0.844
75026SOL    HW126917  12.953   5.271   0.862
75026SOL    HW226918  12.863   5.392   0.855
75027SOL     OW26919  11.113   9.936   0.997
75027SOL    HW126920  11.058  10.014   0.982
75027SOL    HW226921  11.161   9.926   0.915
75028SOL     OW26922  11.648   7.668  12.552
75028SOL    HW126923  11.732   7.704  12.523
75028SOL    HW226924  11.645   7.580  12.514
75029SOL     OW26925   4.808  11.629  12.308
75029SOL    HW126926   4.725  11.634  12.260
75029SOL    HW226927   4.794  11.560  12.373
75030SOL     OW26928   0.941   1.419   5.191
75030SOL    HW126929   0.863   1.473   5.201
75030SOL    HW226930   1.009   1.480   5.164
75031SOL     OW26931  13.869  14.487  13.317
75031SOL    HW126932  13.871  14.468  13.411
75031SOL    HW226933  13.807  14.560  13.309
75032SOL     OW26934  10.718   8.380   6.140
75032SOL    HW126935  10.770   8.354   6.064
75032SOL    HW226936  10.628   8.356   6.116
75033SOL     OW26937   2.596   3.681   8.484
75033SOL    HW126938   2.528   3.614   8.473
75033SOL    HW226939   2.626   3.698   8.394
75034SOL     OW26940   6.073   1.675   4.008
75034SOL    HW126941   5.979   1.696   4.002
75034SOL    HW226942   6.107   1.738   4.071
75035SOL     OW26943   5.477   0.529   8.895
75035SOL    HW126944   5.406   0.487   8.846
75035SOL    HW226945   5.456   0.622   8.892
75036SOL     OW26946   5.678  12.489   5.112
75036SOL    HW126947   5.669  12.397   5.135
75036SOL    HW226948   5.610  12.533   5.163
75037SOL     OW26949   0.508   9.113   2.699
75037SOL    HW126950   0.539   9.203   2.711
75037SOL    HW226951   0.546   9.086   2.616
75038SOL     OW26952  10.610  14.701   9.525
75038SOL    HW126953  10.551  14.772   9.547
75038SOL    HW226954  10.650  14.675   9.608
75039SOL     OW26955   2.513  14.120  10.491
75039SOL    HW126956   2.600  14.131  10.452
75039SOL    HW226957   2.453  14.147  10.421
75040SOL     OW26958  13.124   7.407   4.478
75040SOL    HW126959  13.112   7.382   4.570
75040SOL    HW226960  13.198   7.469   4.480
75041SOL     OW26961   4.734  11.086  10.474
75041SOL    HW126962   4.802  11.109  10.411
75041SOL    HW226963   4.743  10.992  10.487
75042SOL     OW26964  10.761   7.438   7.831
75042SOL    HW126965  10.851   7.423   7.803
75042SOL    HW226966  10.710   7.437   7.750
75043SOL     OW26967   9.571  14.517   0.343
75043SOL    HW126968   9.513  14.591   0.363
75043SOL    HW226969   9.513  14.450   0.306
75044SOL     OW26970   5.880   2.481  14.671
75044SOL    HW126971   5.857   2.449  14.584
75044SOL    HW226972   5.883   2.402  14.725
75045SOL     OW26973   4.046   2.483   3.353
75045SOL    HW126974   4.122   2.540   3.338
75045SOL    HW226975   3.979   2.516   3.293
75046SOL     OW26976   5.254  13.459  14.418
75046SOL    HW126977   5.282  13.520  14.486
75046SOL    HW226978   5.285  13.374  14.448
75047SOL     OW26979   0.129   1.747   4.481
75047SOL    HW126980   0.118   1.652   4.482
75047SOL    HW226981   0.054   1.779   4.432
75048SOL     OW26982  12.640   6.090   9.158
75048SOL    HW126983  12.721   6.064   9.113
75048SOL    HW226984  12.644   6.186   9.160
75049SOL     OW26985   7.591   1.368   6.394
75049SOL    HW126986   7.612   1.366   6.487
75049SOL    HW226987   7.667   1.410   6.353
75050SOL     OW26988  10.060   7.610  12.531
75050SOL    HW126989  10.052   7.699  12.565
75050SOL    HW226990  10.130   7.615  12.466
75051SOL     OW26991   1.540   6.315   2.617
75051SOL    HW126992   1.520   6.409   2.612
75051SOL    HW226993   1.608   6.309   2.684
75052SOL     OW26994  14.078   7.012   4.721
75052SOL    HW126995  14.103   7.056   4.801
75052SOL    HW226996  14.112   6.923   4.731
75053SOL     OW26997   0.151   6.014  14.414
75053SOL    HW126998   0.224   5.994  14.355
75053SOL    HW226999   0.073   6.004  14.360
75054SOL     OW27000   2.162  10.766   8.861
75054SOL    HW127001   2.254  10.770   8.885
75054SOL    HW227002   2.124  10.700   8.919
75055SOL     OW27003   8.118   9.422   2.274
75055SOL    HW127004   8.062   9.432   2.352
75055SOL    HW227005   8.058   9.436   2.200
75056SOL     OW27006  10.235   9.684   9.829
75056SOL    HW127007  10.261   9.743   9.758
75056SOL    HW227008  10.140   9.679   9.823
75057SOL     OW27009   1.495   2.474   2.914
75057SOL    HW127010   1.456   2.499   2.830
75057SOL    HW227011   1.540   2.552   2.944
75058SOL     OW27012  11.459   8.585   3.369
75058SOL    HW127013  11.468   8.680   3.376
75058SOL    HW227014  11.518   8.561   3.297
75059SOL     OW27015   6.210   5.164  11.337
75059SOL    HW127016   6.120   5.134  11.324
75059SOL    HW227017   6.253   5.147  11.253
75060SOL     OW27018   6.415   7.064  11.928
75060SOL    HW127019   6.320   7.053  11.920
75060SOL    HW227020   6.443   6.990  11.981
75061SOL     OW27021   3.043  12.791   8.489
75061SOL    HW127022   3.027  12.783   8.395
75061SOL    HW227023   2.971  12.743   8.529
75062SOL     OW27024   8.636   2.160   8.871
75062SOL    HW127025   8.708   2.200   8.921
75062SOL    HW227026   8.666   2.071   8.854
75063SOL     OW27027  14.252  11.202  12.856
75063SOL    HW127028  14.300  11.285  12.846
75063SOL    HW227029  14.195  11.217  12.932
75064SOL     OW27030   4.866   3.396   7.046
75064SOL    HW127031   4.788   3.394   6.990
75064SOL    HW227032   4.898   3.485   7.039
75065SOL     OW27033   1.342  13.721   6.413
75065SOL    HW127034   1.333  13.781   6.339
75065SOL    HW227035   1.254  13.715   6.450
75066SOL     OW27036   3.074   4.163   2.626
75066SOL    HW127037   3.154   4.177   2.676
75066SOL    HW227038   3.041   4.251   2.608
75067SOL     OW27039  14.654   9.052  12.114
75067SOL    HW127040  14.638   8.958  12.117
75067SOL    HW227041  14.744   9.062  12.145
75068SOL     OW27042   0.030  12.012   0.978
75068SOL    HW127043   0.118  12.006   1.017
75068SOL    HW227044  14.868  11.931   1.006
75069SOL     OW27045   3.982   4.780   3.022
75069SOL    HW127046   3.904   4.812   2.976
75069SOL    HW227047   3.964   4.687   3.036
75070SOL     OW27048  10.655   2.000   1.051
75070SOL    HW127049  10.619   1.924   1.096
75070SOL    HW227050  10.686   1.966   0.967
75071SOL     OW27051   1.089   7.282  11.424
75071SOL    HW127052   1.104   7.215  11.490
75071SOL    HW227053   1.152   7.351  11.445
75072SOL     OW27054   1.551   4.684  14.346
75072SOL    HW127055   1.643   4.711  14.342
75072SOL    HW227056   1.525   4.675  14.255
75073SOL     OW27057   1.649  12.541   8.097
75073SOL    HW127058   1.679  12.603   8.031
75073SOL    HW227059   1.614  12.596   8.167
75074SOL     OW27060   2.861  11.794   7.945
75074SOL    HW127061   2.872  11.888   7.952
75074SOL    HW227062   2.873  11.762   8.035
75075SOL     OW27063   1.768   4.337   3.411
75075SOL    HW127064   1.813   4.253   3.402
75075SOL    HW227065   1.828   4.391   3.463
75076SOL     OW27066   7.804   0.454  10.006
75076SOL    HW127067   7.817   0.389   9.938
75076SOL    HW227068   7.714   0.482   9.996
75077SOL     OW27069   0.203  13.659   3.067
75077SOL    HW127070   0.285  13.669   3.018
75077SOL    HW227071   0.150  13.601   3.012
75078SOL     OW27072  14.353   4.507   9.794
75078SOL    HW127073  14.371   4.529   9.702
75078SOL    HW227074  14.298   4.429   9.789
75079SOL     OW27075   4.552   2.938   0.669
75079SOL    HW127076   4.622   2.984   0.717
75079SOL    HW227077   4.569   2.957   0.577
75080SOL     OW27078   2.181   4.548  14.094
75080SOL    HW127079   2.146   4.558  14.183
75080SOL    HW227080   2.129   4.609  14.041
75081SOL     OW27081   5.529   1.865  14.810
75081SOL    HW127082   5.475   1.878  14.732
75081SOL    HW227083   5.593   1.937  14.807
75082SOL     OW27084  13.605  14.429  13.689
75082SOL    HW127085  13.519  14.470  13.674
75082SOL    HW227086  13.609  14.415  13.783
75083SOL     OW27087   1.987   1.528  11.052
75083SOL    HW127088   1.901   1.557  11.021
75083SOL    HW227089   2.003   1.581  11.130
75084SOL     OW27090   4.726   7.147   9.363
75084SOL    HW127091   4.773   7.065   9.350
75084SOL    HW227092   4.784   7.214   9.328
75085SOL     OW27093   9.592   5.739   4.570
75085SOL    HW127094   9.629   5.690   4.496
75085SOL    HW227095   9.523   5.683   4.604
75086SOL     OW27096   9.408   3.011   6.579
75086SOL    HW127097   9.328   2.973   6.542
75086SOL    HW227098   9.402   3.105   6.561
75087SOL     OW27099  11.909  10.321   4.357
75087SOL    HW127100  11.918  10.416   4.365
75087SOL    HW227101  12.000  10.290   4.349
75088SOL     OW27102   5.141   7.898   9.159
75088SOL    HW127103   5.108   7.935   9.077
75088SOL    HW227104   5.133   7.804   9.148
75089SOL     OW27105  14.791   1.948   3.115
75089SOL    HW127106  14.719   1.886   3.109
75089SOL    HW227107  14.861   1.898   3.158
75090SOL     OW27108   3.415   3.663   7.711
75090SOL    HW127109   3.475   3.690   7.642
75090SOL    HW227110   3.346   3.614   7.665
75091SOL     OW27111   3.548   8.896   1.212
75091SOL    HW127112   3.588   8.881   1.127
75091SOL    HW227113   3.622   8.915   1.270
75092SOL     OW27114   1.584   5.322  10.476
75092SOL    HW127115   1.644   5.266  10.526
75092SOL    HW227116   1.633   5.347  10.398
75093SOL     OW27117  10.162   5.655  10.149
75093SOL    HW127118  10.241   5.609  10.179
75093SOL    HW227119  10.096   5.587  10.143
75094SOL     OW27120  14.122   2.686   9.064
75094SOL    HW127121  14.050   2.699   9.001
75094SOL    HW227122  14.136   2.592   9.065
75095SOL     OW27123   3.590   9.806   4.781
75095SOL    HW127124   3.508   9.806   4.832
75095SOL    HW227125   3.562   9.810   4.690
75096SOL     OW27126   3.407   1.377   1.334
75096SOL    HW127127   3.339   1.310   1.333
75096SOL    HW227128   3.445   1.375   1.247
75097SOL     OW27129   0.822   6.458  12.230
75097SOL    HW127130   0.769   6.388  12.191
75097SOL    HW227131   0.767   6.494  12.299
75098SOL     OW27132   0.718  11.869   7.934
75098SOL    HW127133   0.708  11.782   7.974
75098SOL    HW227134   0.629  11.904   7.932
75099SOL     OW27135  10.019  11.925  10.343
75099SOL    HW127136  10.052  11.921  10.254
75099SOL    HW227137   9.936  11.972  10.336
75100SOL     OW27138   0.897   0.639  13.003
75100SOL    HW127139   0.845   0.605  13.076
75100SOL    HW227140   0.948   0.564  12.974
75101SOL     OW27141  12.416   9.199   3.421
75101SOL    HW127142  12.438   9.138   3.351
75101SOL    HW227143  12.333   9.238   3.394
75102SOL     OW27144  10.151  11.393   5.748
75102SOL    HW127145  10.211  11.394   5.823
75102SOL    HW227146  10.153  11.483   5.715
75103SOL     OW27147   7.651   8.427  11.789
75103SOL    HW127148   7.660   8.348  11.844
75103SOL    HW227149   7.558   8.428  11.765
75104SOL     OW27150  13.144  14.709   4.437
75104SOL    HW127151  13.056  14.731   4.406
75104SOL    HW227152  13.189  14.675   4.360
75105SOL     OW27153   3.549  14.834   8.870
75105SOL    HW127154   3.473  14.786   8.904
75105SOL    HW227155   3.612  14.833   8.941
75106SOL     OW27156  13.586   8.266   5.668
75106SOL    HW127157  13.561   8.175   5.684
75106SOL    HW227158  13.662   8.261   5.610
75107SOL     OW27159   9.794  10.674   4.798
75107SOL    HW127160   9.875  10.643   4.839
75107SOL    HW227161   9.745  10.714   4.870
75108SOL     OW27162  10.831   3.058  10.827
75108SOL    HW127163  10.831   3.009  10.909
75108SOL    HW227164  10.891   3.010  10.770
75109SOL     OW27165  11.637   0.487   1.966
75109SOL    HW127166  11.678   0.439   1.894
75109SOL    HW227167  11.584   0.555   1.923
75110SOL     OW27168   2.586  11.608  11.067
75110SOL    HW127169   2.580  11.597  11.162
75110SOL    HW227170   2.677  11.634  11.052
75111SOL     OW27171  12.533   3.210  14.704
75111SOL    HW127172  12.443   3.210  14.737
75111SOL    HW227173  12.567   3.123  14.727
75112SOL     OW27174   4.992   1.694   9.288
75112SOL    HW127175   5.026   1.630   9.351
75112SOL    HW227176   4.915   1.651   9.250
75113SOL     OW27177   6.867  11.122   7.676
75113SOL    HW127178   6.916  11.039   7.675
75113SOL    HW227179   6.792  11.105   7.619
75114SOL     OW27180   8.123   1.513  12.644
75114SOL    HW127181   8.081   1.531  12.729
75114SOL    HW227182   8.050   1.505  12.583
75115SOL     OW27183  13.931  14.383   1.753
75115SOL    HW127184  13.854  14.330   1.733
75115SOL    HW227185  13.896  14.458   1.802
75116SOL     OW27186  14.049  11.283   7.186
75116SOL    HW127187  14.139  11.314   7.172
75116SOL    HW227188  14.059  11.205   7.240
75117SOL     OW27189  10.593   6.203  11.070
75117SOL    HW127190  10.635   6.245  10.996
75117SOL    HW227191  10.664   6.187  11.132
75118SOL     OW27192   2.504   0.992   7.307
75118SOL    HW127193   2.509   0.901   7.278
75118SOL    HW227194   2.563   1.039   7.249
75119SOL     OW27195  12.004   6.834  11.205
75119SOL    HW127196  12.006   6.834  11.110
75119SOL    HW227197  12.021   6.925  11.230
75120SOL     OW27198   0.438  10.353   0.237
75120SOL    HW127199   0.363  10.306   0.273
75120SOL    HW227200   0.509  10.336   0.298
75121SOL     OW27201   8.502   2.405   5.533
75121SOL    HW127202   8.455   2.367   5.607
75121SOL    HW227203   8.514   2.331   5.472
75122SOL     OW27204   7.915   6.993   2.200
75122SOL    HW127205   7.849   7.055   2.233
75122SOL    HW227206   7.930   6.933   2.273
75123SOL     OW27207  14.257   4.624   7.115
75123SOL    HW127208  14.279   4.716   7.126
75123SOL    HW227209  14.200   4.604   7.190
75124SOL     OW27210  10.573   5.986   3.235
75124SOL    HW127211  10.630   5.915   3.264
75124SOL    HW227212  10.495   5.978   3.289
75125SOL     OW27213   5.846  12.151  11.660
75125SOL    HW127214   5.886  12.097  11.591
75125SOL    HW227215   5.919  12.198  11.699
75126SOL     OW27216  14.176   2.769  14.586
75126SOL    HW127217  14.187   2.762  14.491
75126SOL    HW227218  14.260   2.804  14.617
75127SOL     OW27219  13.210   7.033   7.204
75127SOL    HW127220  13.267   6.957   7.219
75127SOL    HW227221  13.191   7.066   7.292
75128SOL     OW27222   8.354   0.773   6.065
75128SOL    HW127223   8.404   0.691   6.067
75128SOL    HW227224   8.349   0.796   5.973
75129SOL     OW27225   8.512   2.527   3.824
75129SOL    HW127226   8.566   2.597   3.786
75129SOL    HW227227   8.569   2.484   3.887
75130SOL     OW27228   9.921   9.333  13.235
75130SOL    HW127229   9.913   9.392  13.310
75130SOL    HW227230   9.833   9.299  13.221
75131SOL     OW27231   8.554   3.184   3.685
75131SOL    HW127232   8.613   3.123   3.730
75131SOL    HW227233   8.609   3.227   3.620
75132SOL     OW27234  14.802   9.578  12.888
75132SOL    HW127235  14.794   9.518  12.813
75132SOL    HW227236  14.785   9.522  12.964
75133SOL     OW27237   3.729  12.601   9.903
75133SOL    HW127238   3.741  12.506   9.901
75133SOL    HW227239   3.810  12.637   9.868
75134SOL     OW27240   9.743  11.176   5.502
75134SOL    HW127241   9.727  11.249   5.442
75134SOL    HW227242   9.837  11.159   5.494
75135SOL     OW27243   0.503   9.437   4.965
75135SOL    HW127244   0.568   9.480   4.910
75135SOL    HW227245   0.462   9.372   4.907
75136SOL     OW27246  13.680   7.026   8.965
75136SOL    HW127247  13.681   7.107   8.914
75136SOL    HW227248  13.609   6.974   8.926
75137SOL     OW27249   4.176  14.512  14.325
75137SOL    HW127250   4.185  14.418  14.308
75137SOL    HW227251   4.265  14.546  14.319
75138SOL     OW27252   3.082   5.568   2.381
75138SOL    HW127253   3.102   5.598   2.292
75138SOL    HW227254   3.117   5.479   2.384
75139SOL     OW27255   1.539   8.936  14.757
75139SOL    HW127256   1.503   8.935  14.668
75139SOL    HW227257   1.465   8.909  14.813
75140SOL     OW27258  11.867   2.792   1.944
75140SOL    HW127259  11.946   2.811   1.893
75140SOL    HW227260  11.795   2.827   1.892
75141SOL     OW27261  11.036   8.665   1.544
75141SOL    HW127262  10.944   8.651   1.568
75141SOL    HW227263  11.074   8.706   1.622
75142SOL     OW27264   5.689   7.356   3.356
75142SOL    HW127265   5.741   7.371   3.434
75142SOL    HW227266   5.692   7.261   3.343
75143SOL     OW27267  14.837   4.500  12.968
75143SOL    HW127268  14.872   4.414  12.945
75143SOL    HW227269  14.830   4.498  13.064
75144SOL     OW27270   8.503   0.041   8.324
75144SOL    HW127271   8.533   0.040   8.233
75144SOL    HW227272   8.464   0.128   8.336
75145SOL     OW27273  13.315   9.994  10.945
75145SOL    HW127274  13.316  10.069  11.005
75145SOL    HW227275  13.399   9.952  10.958
75146SOL     OW27276   6.822  10.041  14.881
75146SOL    HW127277   6.735  10.073  14.859
75146SOL    HW227278   6.845   9.982  14.809
75147SOL     OW27279   5.619  11.773   3.180
75147SOL    HW127280   5.582  11.730   3.104
75147SOL    HW227281   5.606  11.867   3.164
75148SOL     OW27282   5.589   1.887   7.441
75148SOL    HW127283   5.649   1.935   7.383
75148SOL    HW227284   5.638   1.810   7.468
75149SOL     OW27285  12.104  10.186   8.794
75149SOL    HW127286  12.098  10.226   8.707
75149SOL    HW227287  12.130  10.095   8.776
75150SOL     OW27288   9.291  10.740   4.379
75150SOL    HW127289   9.303  10.775   4.291
75150SOL    HW227290   9.203  10.769   4.404
75151SOL     OW27291   1.126   8.757   2.699
75151SOL    HW127292   1.107   8.828   2.637
75151SOL    HW227293   1.215   8.775   2.728
75152SOL     OW27294   7.360   3.877   1.965
75152SOL    HW127295   7.445   3.906   1.931
75152SOL    HW227296   7.380   3.797   2.013
75153SOL     OW27297  13.147   2.302   8.637
75153SOL    HW127298  13.201   2.372   8.601
75153SOL    HW227299  13.064   2.345   8.659
75154SOL     OW27300  10.193   6.217   2.006
75154SOL    HW127301  10.156   6.204   1.918
75154SOL    HW227302  10.288   6.218   1.992
75155SOL     OW27303  11.620  12.458   3.601
75155SOL    HW127304  11.527  12.454   3.577
75155SOL    HW227305  11.666  12.471   3.518
75156SOL     OW27306  13.290   3.003   0.559
75156SOL    HW127307  13.346   3.077   0.535
75156SOL    HW227308  13.247   3.031   0.640
75157SOL     OW27309   5.233  11.015   8.316
75157SOL    HW127310   5.152  11.026   8.367
75157SOL    HW227311   5.270  10.933   8.348
75158SOL     OW27312   1.102   2.051   0.578
75158SOL    HW127313   1.188   2.036   0.616
75158SOL    HW227314   1.099   1.993   0.501
75159SOL     OW27315   7.773   4.784  10.998
75159SOL    HW127316   7.855   4.826  10.970
75159SOL    HW227317   7.773   4.699  10.953
75160SOL     OW27318   2.327   6.475  13.371
75160SOL    HW127319   2.362   6.539  13.433
75160SOL    HW227320   2.232   6.476  13.387
75161SOL     OW27321   7.467   9.508   7.693
75161SOL    HW127322   7.383   9.539   7.727
75161SOL    HW227323   7.514   9.588   7.670
75162SOL     OW27324   0.875  13.842   0.416
75162SOL    HW127325   0.787  13.872   0.395
75162SOL    HW227326   0.876  13.750   0.388
75163SOL     OW27327   4.404   6.432   5.748
75163SOL    HW127328   4.410   6.524   5.777
75163SOL    HW227329   4.310   6.415   5.745
75164SOL     OW27330   8.643  13.172   8.252
75164SOL    HW127331   8.729  13.134   8.239
75164SOL    HW227332   8.618  13.206   8.166
75165SOL     OW27333   8.836   9.807   3.968
75165SOL    HW127334   8.748   9.828   3.997
75165SOL    HW227335   8.886   9.797   4.049
75166SOL     OW27336   8.426   3.458  12.478
75166SOL    HW127337   8.512   3.496  12.463
75166SOL    HW227338   8.439   3.364  12.470
75167SOL     OW27339   0.741   3.552   2.224
75167SOL    HW127340   0.647   3.536   2.236
75167SOL    HW227341   0.760   3.519   2.137
75168SOL     OW27342   0.847   9.695   5.838
75168SOL    HW127343   0.799   9.668   5.916
75168SOL    HW227344   0.848   9.617   5.782
75169SOL     OW27345   3.576  13.804  12.803
75169SOL    HW127346   3.605  13.807  12.894
75169SOL    HW227347   3.591  13.714  12.775
75170SOL     OW27348  12.654   2.624   8.385
75170SOL    HW127349  12.574   2.674   8.369
75170SOL    HW227350  12.638   2.579   8.468
75171SOL     OW27351   0.595   8.537  13.561
75171SOL    HW127352   0.501   8.516  13.564
75171SOL    HW227353   0.601   8.626  13.597
75172SOL     OW27354  11.289   1.599  10.087
75172SOL    HW127355  11.274   1.677  10.034
75172SOL    HW227356  11.334   1.538  10.028
75173SOL     OW27357   0.218  14.538   8.315
75173SOL    HW127358   0.280  14.599   8.275
75173SOL    HW227359   0.235  14.543   8.409
75174SOL     OW27360   7.620   1.237   3.914
75174SOL    HW127361   7.532   1.199   3.904
75174SOL    HW227362   7.609   1.329   3.887
75175SOL     OW27363   9.310   2.542   5.202
75175SOL    HW127364   9.373   2.536   5.130
75175SOL    HW227365   9.248   2.609   5.174
75176SOL     OW27366   7.266   2.609   7.682
75176SOL    HW127367   7.279   2.526   7.726
75176SOL    HW227368   7.293   2.593   7.591
75177SOL     OW27369   3.387   0.260   5.444
75177SOL    HW127370   3.383   0.244   5.350
75177SOL    HW227371   3.472   0.225   5.471
75178SOL     OW27372   9.287  10.344   6.222
75178SOL    HW127373   9.221  10.413   6.222
75178SOL    HW227374   9.292  10.314   6.313
75179SOL     OW27375  13.537   7.703  10.038
75179SOL    HW127376  13.495   7.735  10.118
75179SOL    HW227377  13.476   7.726   9.968
75180SOL     OW27378  13.817   5.229   4.022
75180SOL    HW127379  13.745   5.278   4.061
75180SOL    HW227380  13.777   5.180   3.950
75181SOL     OW27381  11.639  12.427   4.677
75181SOL    HW127382  11.548  12.455   4.672
75181SOL    HW227383  11.671  12.463   4.760
75182SOL     OW27384  10.819   3.118  13.363
75182SOL    HW127385  10.799   3.211  13.377
75182SOL    HW227386  10.813   3.078  13.449
75183SOL     OW27387   6.909  12.941   3.551
75183SOL    HW127388   6.902  13.016   3.610
75183SOL    HW227389   6.859  12.967   3.473
75184SOL     OW27390  10.562   4.664  11.588
75184SOL    HW127391  10.552   4.745  11.638
75184SOL    HW227392  10.565   4.692  11.497
75185SOL     OW27393   3.840  11.092  11.625
75185SOL    HW127394   3.920  11.113  11.674
75185SOL    HW227395   3.829  11.166  11.565
75186SOL     OW27396   3.015   5.675  14.107
75186SOL    HW127397   3.029   5.593  14.155
75186SOL    HW227398   2.985   5.647  14.021
75187SOL     OW27399  14.823   8.397   1.735
75187SOL    HW127400  14.860   8.327   1.682
75187SOL    HW227401  14.761   8.354   1.793
75188SOL     OW27402   8.850  13.160   6.267
75188SOL    HW127403   8.920  13.098   6.286
75188SOL    HW227404   8.876  13.240   6.314
75189SOL     OW27405  14.605   5.540  12.313
75189SOL    HW127406  14.638   5.451  12.326
75189SOL    HW227407  14.515   5.537  12.345
75190SOL     OW27408   7.620  14.327   0.549
75190SOL    HW127409   7.695  14.293   0.500
75190SOL    HW227410   7.637  14.302   0.640
75191SOL     OW27411  10.271  10.759   3.579
75191SOL    HW127412  10.353  10.712   3.564
75191SOL    HW227413  10.284  10.844   3.536
75192SOL     OW27414   0.379   2.497   3.878
75192SOL    HW127415   0.432   2.574   3.896
75192SOL    HW227416   0.310   2.528   3.819
75193SOL     OW27417   0.194   1.464   9.495
75193SOL    HW127418   0.198   1.521   9.572
75193SOL    HW227419   0.103   1.468   9.466
75194SOL     OW27420   9.655   8.478  11.985
75194SOL    HW127421   9.692   8.523  12.061
75194SOL    HW227422   9.724   8.481  11.919
75195SOL     OW27423  14.039   5.380   5.102
75195SOL    HW127424  14.131   5.402   5.087
75195SOL    HW227425  14.003   5.367   5.014
75196SOL     OW27426  11.940  11.488   5.258
75196SOL    HW127427  11.951  11.578   5.289
75196SOL    HW227428  11.992  11.484   5.177
75197SOL     OW27429   3.760   7.138  12.682
75197SOL    HW127430   3.710   7.065  12.645
75197SOL    HW227431   3.722   7.216  12.642
75198SOL     OW27432   8.574   6.891   0.466
75198SOL    HW127433   8.644   6.859   0.409
75198SOL    HW227434   8.497   6.894   0.410
75199SOL     OW27435   9.085   7.926  10.636
75199SOL    HW127436   9.164   7.883  10.602
75199SOL    HW227437   9.034   7.947  10.558
75200SOL     OW27438   4.692   9.355   4.397
75200SOL    HW127439   4.611   9.307   4.380
75200SOL    HW227440   4.710   9.401   4.315
75201SOL     OW27441   1.685   0.441  14.000
75201SOL    HW127442   1.667   0.462  13.908
75201SOL    HW227443   1.612   0.386  14.027
75202SOL     OW27444   2.733   6.813   2.685
75202SOL    HW127445   2.746   6.806   2.591
75202SOL    HW227446   2.762   6.902   2.707
75203SOL     OW27447   6.576   8.669   7.697
75203SOL    HW127448   6.607   8.745   7.746
75203SOL    HW227449   6.511   8.629   7.755
75204SOL     OW27450   0.941   6.969   2.077
75204SOL    HW127451   1.031   6.963   2.047
75204SOL    HW227452   0.911   7.055   2.049
75205SOL     OW27453   2.105   1.754   0.715
75205SOL    HW127454   2.062   1.824   0.764
75205SOL    HW227455   2.187   1.793   0.684
75206SOL     OW27456  14.877   3.931   3.076
75206SOL    HW127457   0.066   3.892   3.025
75206SOL    HW227458  14.804   3.870   3.067
75207SOL     OW27459  13.403   0.102   5.185
75207SOL    HW127460  13.476   0.135   5.238
75207SOL    HW227461  13.325   0.130   5.233
75208SOL     OW27462   6.260  14.856   1.155
75208SOL    HW127463   6.299  14.801   1.222
75208SOL    HW227464   6.169  14.828   1.151
75209SOL     OW27465  12.042   6.818  12.956
75209SOL    HW127466  12.087   6.735  12.976
75209SOL    HW227467  12.036   6.820  12.861
75210SOL     OW27468  10.953   3.668  12.460
75210SOL    HW127469  11.018   3.627  12.517
75210SOL    HW227470  10.982   3.644  12.371
75211SOL     OW27471  13.045   1.853   4.967
75211SOL    HW127472  12.952   1.859   4.988
75211SOL    HW227473  13.087   1.915   5.028
75212SOL     OW27474  11.947   7.346  11.575
75212SOL    HW127475  11.890   7.361  11.499
75212SOL    HW227476  11.925   7.416  11.636
75213SOL     OW27477   2.099  10.729   6.797
75213SOL    HW127478   2.083  10.757   6.887
75213SOL    HW227479   2.143  10.803   6.756
75214SOL     OW27480   5.623   1.305   3.353
75214SOL    HW127481   5.553   1.355   3.394
75214SOL    HW227482   5.588   1.216   3.348
75215SOL     OW27483   0.545  14.772   4.097
75215SOL    HW127484   0.526  14.845   4.039
75215SOL    HW227485   0.634  14.789   4.129
75216SOL     OW27486   3.434   2.871  12.776
75216SOL    HW127487   3.477   2.794  12.813
75216SOL    HW227488   3.360   2.888  12.834
75217SOL     OW27489  11.451   6.026  10.157
75217SOL    HW127490  11.428   5.968  10.230
75217SOL    HW227491  11.474   6.109  10.199
75218SOL     OW27492   5.977   6.073  12.024
75218SOL    HW127493   5.997   6.067  11.930
75218SOL    HW227494   5.938   6.160  12.035
75219SOL     OW27495   7.780  13.722   1.811
75219SOL    HW127496   7.784  13.745   1.903
75219SOL    HW227497   7.760  13.629   1.810
75220SOL     OW27498   3.774  12.674  11.068
75220SOL    HW127499   3.698  12.716  11.107
75220SOL    HW227500   3.838  12.744  11.058
75221SOL     OW27501  12.538   7.521   7.684
75221SOL    HW127502  12.504   7.433   7.668
75221SOL    HW227503  12.558   7.555   7.597
75222SOL     OW27504   0.470   5.710  12.971
75222SOL    HW127505   0.560   5.689  12.947
75222SOL    HW227506   0.436   5.759  12.896
75223SOL     OW27507   7.917   1.024   9.214
75223SOL    HW127508   7.994   1.076   9.237
75223SOL    HW227509   7.947   0.933   9.218
75224SOL     OW27510   4.849   2.416   3.482
75224SOL    HW127511   4.807   2.354   3.541
75224SOL    HW227512   4.776   2.458   3.435
75225SOL     OW27513   0.409   1.677   1.192
75225SOL    HW127514   0.354   1.625   1.135
75225SOL    HW227515   0.391   1.768   1.167
75226SOL     OW27516   9.765   1.169  14.151
75226SOL    HW127517   9.839   1.224  14.178
75226SOL    HW227518   9.692   1.199  14.205
75227SOL     OW27519   0.499   3.635  11.411
75227SOL    HW127520   0.505   3.540  11.396
75227SOL    HW227521   0.494   3.673  11.324
75228SOL     OW27522   6.172  11.215   8.514
75228SOL    HW127523   6.257  11.257   8.529
75228SOL    HW227524   6.147  11.243   8.426
75229SOL     OW27525  12.852  12.112  10.791
75229SOL    HW127526  12.894  12.100  10.705
75229SOL    HW227527  12.901  12.055  10.850
75230SOL     OW27528   4.384   4.050  12.597
75230SOL    HW127529   4.466   4.007  12.622
75230SOL    HW227530   4.404   4.143  12.601
75231SOL     OW27531  10.621  12.963  10.651
75231SOL    HW127532  10.584  13.001  10.572
75231SOL    HW227533  10.713  12.947  10.629
75232SOL     OW27534  12.195   1.533   3.013
75232SOL    HW127535  12.112   1.553   3.056
75232SOL    HW227536  12.180   1.553   2.921
75233SOL     OW27537  13.968   2.826   7.276
75233SOL    HW127538  13.965   2.909   7.228
75233SOL    HW227539  13.911   2.767   7.226
75234SOL     OW27540   5.236   3.420  10.970
75234SOL    HW127541   5.263   3.461  11.053
75234SOL    HW227542   5.201   3.493  10.918
75235SOL     OW27543   8.496   6.392   9.814
75235SOL    HW127544   8.572   6.441   9.785
75235SOL    HW227545   8.422   6.436   9.773
75236SOL     OW27546   8.166   5.945   1.956
75236SOL    HW127547   8.247   5.995   1.967
75236SOL    HW227548   8.152   5.942   1.862
75237SOL     OW27549  11.264   3.721  10.469
75237SOL    HW127550  11.336   3.688  10.416
75237SOL    HW227551  11.233   3.646  10.519
75238SOL     OW27552   2.370   3.991   2.215
75238SOL    HW127553   2.318   3.911   2.213
75238SOL    HW227554   2.319   4.051   2.270
75239SOL     OW27555   5.788  11.721   4.489
75239SOL    HW127556   5.830  11.747   4.571
75239SOL    HW227557   5.787  11.801   4.437
75240SOL     OW27558  11.685  11.036   3.886
75240SOL    HW127559  11.774  11.072   3.887
75240SOL    HW227560  11.682  10.980   3.809
75241SOL     OW27561  12.566   0.964   2.076
75241SOL    HW127562  12.532   0.910   2.005
75241SOL    HW227563  12.630   1.022   2.034
75242SOL     OW27564   2.314   3.908   4.634
75242SOL    HW127565   2.288   3.981   4.579
75242SOL    HW227566   2.399   3.934   4.670
75243SOL     OW27567  13.693   3.063  11.645
75243SOL    HW127568  13.655   3.107  11.569
75243SOL    HW227569  13.787   3.069  11.631
75244SOL     OW27570   5.988   1.955   3.841
75244SOL    HW127571   6.061   1.910   3.798
75244SOL    HW227572   6.022   1.980   3.926
75245SOL     OW27573   0.952   3.800   6.328
75245SOL    HW127574   1.046   3.785   6.319
75245SOL    HW227575   0.911   3.737   6.269
75246SOL     OW27576  12.233   8.985   2.410
75246SOL    HW127577  12.248   8.949   2.497
75246SOL    HW227578  12.209   9.077   2.426
75247SOL     OW27579  12.883  13.416   2.125
75247SOL    HW127580  12.925  13.336   2.092
75247SOL    HW227581  12.874  13.402   2.219
75248SOL     OW27582   1.689   9.838  11.912
75248SOL    HW127583   1.633   9.772  11.954
75248SOL    HW227584   1.652   9.847  11.824
75249SOL     OW27585   2.972  14.157   7.378
75249SOL    HW127586   2.959  14.089   7.445
75249SOL    HW227587   2.949  14.114   7.296
75250SOL     OW27588  11.891   9.185  12.163
75250SOL    HW127589  11.888   9.253  12.095
75250SOL    HW227590  11.803   9.146  12.161
75251SOL     OW27591  10.239  10.523   8.046
75251SOL    HW127592  10.216  10.466   8.119
75251SOL    HW227593  10.171  10.590   8.045
75252SOL     OW27594   5.716   9.210   7.352
75252SOL    HW127595   5.750   9.146   7.414
75252SOL    HW227596   5.663   9.269   7.406
75253SOL     OW27597  11.755   3.239   1.809
75253SOL    HW127598  11.776   3.275   1.894
75253SOL    HW227599  11.761   3.144   1.821
75254SOL     OW27600   9.402   5.493   1.614
75254SOL    HW127601   9.489   5.479   1.651
75254SOL    HW227602   9.404   5.451   1.528
75255SOL     OW27603   3.566  11.807   7.841
75255SOL    HW127604   3.562  11.903   7.838
75255SOL    HW227605   3.607  11.788   7.925
75256SOL     OW27606  14.832  13.479   3.937
75256SOL    HW127607   0.008  13.403   3.934
75256SOL    HW227608  14.872  13.541   3.876
75257SOL     OW27609  11.512   4.015   1.938
75257SOL    HW127610  11.546   3.936   1.980
75257SOL    HW227611  11.561   4.022   1.856
75258SOL     OW27612   6.046   0.859  11.759
75258SOL    HW127613   6.134   0.895  11.774
75258SOL    HW227614   6.058   0.799  11.685
75259SOL     OW27615   9.583   7.973   5.993
75259SOL    HW127616   9.655   7.954   5.933
75259SOL    HW227617   9.559   8.064   5.975
75260SOL     OW27618   0.257  14.321  14.651
75260SOL    HW127619   0.176  14.303  14.700
75260SOL    HW227620   0.229  14.376  14.578
75261SOL     OW27621  12.188  13.034   9.899
75261SOL    HW127622  12.205  13.115   9.850
75261SOL    HW227623  12.255  13.032   9.967
75262SOL     OW27624   3.080   6.720   8.743
75262SOL    HW127625   3.176   6.715   8.751
75262SOL    HW227626   3.058   6.647   8.686
75263SOL     OW27627   6.223   4.014   6.276
75263SOL    HW127628   6.226   3.991   6.369
75263SOL    HW227629   6.314   4.015   6.248
75264SOL     OW27630   7.708  13.766   5.282
75264SOL    HW127631   7.643  13.808   5.226
75264SOL    HW227632   7.662  13.754   5.366
75265SOL     OW27633   1.446   0.994  11.094
75265SOL    HW127634   1.434   0.986  11.000
75265SOL    HW227635   1.369   0.952  11.133
75266SOL     OW27636  11.137   2.859   4.395
75266SOL    HW127637  11.057   2.841   4.444
75266SOL    HW227638  11.207   2.854   4.460
75267SOL     OW27639  14.095  10.649   0.092
75267SOL    HW127640  14.089  10.627   0.185
75267SOL    HW227641  14.135  10.736   0.091
75268SOL     OW27642   8.070   1.073  14.564
75268SOL    HW127643   8.024   1.072  14.480
75268SOL    HW227644   8.005   1.106  14.626
75269SOL     OW27645  14.052   3.774  10.787
75269SOL    HW127646  14.142   3.747  10.805
75269SOL    HW227647  14.002   3.693  10.783
75270SOL     OW27648   8.996  14.166   5.154
75270SOL    HW127649   8.936  14.239   5.137
75270SOL    HW227650   8.958  14.092   5.105
75271SOL     OW27651   1.877   4.639   2.606
75271SOL    HW127652   1.866   4.696   2.683
75271SOL    HW227653   1.791   4.597   2.596
75272SOL     OW27654  11.133  12.727   5.539
75272SOL    HW127655  11.169  12.795   5.596
75272SOL    HW227656  11.112  12.654   5.597
75273SOL     OW27657  13.488   7.173  11.862
75273SOL    HW127658  13.467   7.086  11.827
75273SOL    HW227659  13.583   7.181  11.849
75274SOL     OW27660  12.237  12.909  12.610
75274SOL    HW127661  12.200  12.844  12.669
75274SOL    HW227662  12.233  12.868  12.523
75275SOL     OW27663   3.084   1.902   7.164
75275SOL    HW127664   3.049   1.945   7.085
75275SOL    HW227665   3.141   1.968   7.203
75276SOL     OW27666  10.115   9.250   4.556
75276SOL    HW127667  10.023   9.271   4.538
75276SOL    HW227668  10.156   9.248   4.469
75277SOL     OW27669  14.624   9.192   4.650
75277SOL    HW127670  14.627   9.162   4.741
75277SOL    HW227671  14.582   9.120   4.602
75278SOL     OW27672   5.014  14.620   1.749
75278SOL    HW127673   4.946  14.560   1.778
75278SOL    HW227674   4.984  14.706   1.778
75279SOL     OW27675  12.311   6.779   2.150
75279SOL    HW127676  12.351   6.783   2.064
75279SOL    HW227677  12.364   6.716   2.199
75280SOL     OW27678  12.130   7.005   8.800
75280SOL    HW127679  12.081   7.038   8.875
75280SOL    HW227680  12.091   7.048   8.724
75281SOL     OW27681   3.158   9.882   6.855
75281SOL    HW127682   3.215   9.820   6.901
75281SOL    HW227683   3.208   9.908   6.778
75282SOL     OW27684   8.020  14.542   3.858
75282SOL    HW127685   7.995  14.462   3.813
75282SOL    HW227686   7.941  14.570   3.903
75283SOL     OW27687  13.884  13.408   4.838
75283SOL    HW127688  13.820  13.435   4.772
75283SOL    HW227689  13.885  13.312   4.832
75284SOL     OW27690  13.909   8.831  14.834
75284SOL    HW127691  13.917   8.750   0.002
75284SOL    HW227692  13.923   8.900   0.017
75285SOL     OW27693   5.810   7.982   3.121
75285SOL    HW127694   5.789   7.969   3.213
75285SOL    HW227695   5.796   8.076   3.106
75286SOL     OW27696   6.822   9.844   2.173
75286SOL    HW127697   6.789   9.930   2.199
75286SOL    HW227698   6.915   9.859   2.153
75287SOL     OW27699   8.027   9.261   4.790
75287SOL    HW127700   7.971   9.275   4.714
75287SOL    HW227701   7.967   9.239   4.860
75288SOL     OW27702   5.854   2.290   0.081
75288SOL    HW127703   5.846   2.298   0.176
75288SOL    HW227704   5.915   2.360   0.057
75289SOL     OW27705   0.342   2.161   9.526
75289SOL    HW127706   0.412   2.206   9.481
75289SOL    HW227707   0.371   2.070   9.531
75290SOL     OW27708   4.110   5.555   9.980
75290SOL    HW127709   4.059   5.490   9.932
75290SOL    HW227710   4.182   5.577   9.922
75291SOL     OW27711   1.385   6.324   4.650
75291SOL    HW127712   1.310   6.363   4.696
75291SOL    HW227713   1.352   6.239   4.620
75292SOL     OW27714   1.661   9.342   0.484
75292SOL    HW127715   1.688   9.383   0.567
75292SOL    HW227716   1.565   9.341   0.488
75293SOL     OW27717   4.616   1.277   3.080
75293SOL    HW127718   4.686   1.329   3.040
75293SOL    HW227719   4.615   1.305   3.171
75294SOL     OW27720   6.307  12.239   6.533
75294SOL    HW127721   6.361  12.180   6.480
75294SOL    HW227722   6.302  12.320   6.482
75295SOL     OW27723   2.275   4.182  14.679
75295SOL    HW127724   2.182   4.163  14.696
75295SOL    HW227725   2.313   4.097  14.658
75296SOL     OW27726   6.353   7.130   7.255
75296SOL    HW127727   6.315   7.050   7.218
75296SOL    HW227728   6.341   7.121   7.350
75297SOL     OW27729   5.132  12.740  12.412
75297SOL    HW127730   5.115  12.757  12.319
75297SOL    HW227731   5.187  12.662  12.412
75298SOL     OW27732   9.597  12.230   2.701
75298SOL    HW127733   9.692  12.237   2.705
75298SOL    HW227734   9.581  12.163   2.635
75299SOL     OW27735  13.765   4.805   0.579
75299SOL    HW127736  13.710   4.879   0.602
75299SOL    HW227737  13.852   4.828   0.610
75300SOL     OW27738   0.842  11.608   8.772
75300SOL    HW127739   0.881  11.525   8.743
75300SOL    HW227740   0.898  11.675   8.734
75301SOL     OW27741   2.970  10.327  14.825
75301SOL    HW127742   2.933  10.333  14.737
75301SOL    HW227743   3.063  10.310  14.811
75302SOL     OW27744   8.764   8.932   1.907
75302SOL    HW127745   8.794   9.016   1.941
75302SOL    HW227746   8.804   8.867   1.965
75303SOL     OW27747   4.316  10.844  11.200
75303SOL    HW127748   4.249  10.902  11.237
75303SOL    HW227749   4.299  10.759  11.241
75304SOL     OW27750   0.251  12.711  14.456
75304SOL    HW127751   0.272  12.793  14.501
75304SOL    HW227752   0.202  12.738  14.378
75305SOL     OW27753  14.868   9.643   8.503
75305SOL    HW127754  14.851   9.664   8.595
75305SOL    HW227755  14.794   9.587   8.478
75306SOL     OW27756  11.923  13.974   9.764
75306SOL    HW127757  11.908  13.884   9.792
75306SOL    HW227758  12.003  14.000   9.808
75307SOL     OW27759   2.951   8.961   0.775
75307SOL    HW127760   2.963   9.054   0.793
75307SOL    HW227761   3.022   8.918   0.823
75308SOL     OW27762  11.078   5.274   5.332
75308SOL    HW127763  11.007   5.215   5.356
75308SOL    HW227764  11.041   5.362   5.341
75309SOL     OW27765  12.901   1.770  10.992
75309SOL    HW127766  12.889   1.757  11.086
75309SOL    HW227767  12.837   1.837  10.969
75310SOL     OW27768   1.808  14.815  13.435
75310SOL    HW127769   1.836  14.848  13.350
75310SOL    HW227770   1.883  14.765  13.468
75311SOL     OW27771   0.209  14.096   8.718
75311SOL    HW127772   0.119  14.128   8.712
75311SOL    HW227773   0.206  14.009   8.678
75312SOL     OW27774   0.665   2.533  10.246
75312SOL    HW127775   0.741   2.488  10.283
75312SOL    HW227776   0.669   2.621  10.284
75313SOL     OW27777   1.795   5.660   3.217
75313SOL    HW127778   1.721   5.661   3.156
75313SOL    HW227779   1.823   5.751   3.222
75314SOL     OW27780  14.210   7.413   9.523
75314SOL    HW127781  14.177   7.404   9.612
75314SOL    HW227782  14.283   7.351   9.517
75315SOL     OW27783  10.665   4.901   2.224
75315SOL    HW127784  10.717   4.834   2.268
75315SOL    HW227785  10.721   4.979   2.226
75316SOL     OW27786   8.401   8.278   3.873
75316SOL    HW127787   8.309   8.301   3.885
75316SOL    HW227788   8.405   8.240   3.785
75317SOL     OW27789  10.046   4.165   4.565
75317SOL    HW127790  10.132   4.207   4.558
75317SOL    HW227791  10.055   4.107   4.640
75318SOL     OW27792  11.118  13.225   2.845
75318SOL    HW127793  11.071  13.143   2.862
75318SOL    HW227794  11.065  13.292   2.888
75319SOL     OW27795  13.526  13.196   5.957
75319SOL    HW127796  13.533  13.101   5.961
75319SOL    HW227797  13.443  13.216   6.000
75320SOL     OW27798   1.933   8.391   3.287
75320SOL    HW127799   1.989   8.427   3.218
75320SOL    HW227800   1.874   8.331   3.242
75321SOL     OW27801  12.262   2.822   2.225
75321SOL    HW127802  12.279   2.898   2.170
75321SOL    HW227803  12.187   2.848   2.279
75322SOL     OW27804   5.089  13.080  11.571
75322SOL    HW127805   5.063  13.074  11.480
75322SOL    HW227806   5.047  13.005  11.614
75323SOL     OW27807   5.532   4.575  14.371
75323SOL    HW127808   5.462   4.609  14.316
75323SOL    HW227809   5.543   4.640  14.440
75324SOL     OW27810  10.690   3.311   7.871
75324SOL    HW127811  10.613   3.283   7.919
75324SOL    HW227812  10.669   3.400   7.842
75325SOL     OW27813   7.413   0.900  11.307
75325SOL    HW127814   7.408   0.830  11.371
75325SOL    HW227815   7.427   0.979  11.359
75326SOL     OW27816   4.771  12.357  11.496
75326SOL    HW127817   4.759  12.447  11.464
75326SOL    HW227818   4.864  12.352  11.519
75327SOL     OW27819  12.103   9.400   5.214
75327SOL    HW127820  12.045   9.327   5.192
75327SOL    HW227821  12.088   9.415   5.308
75328SOL     OW27822  12.576   2.880   9.883
75328SOL    HW127823  12.647   2.836   9.929
75328SOL    HW227824  12.499   2.826   9.902
75329SOL     OW27825   7.847   6.995   5.554
75329SOL    HW127826   7.844   7.090   5.566
75329SOL    HW227827   7.764   6.974   5.512
75330SOL     OW27828  10.257  14.672   8.160
75330SOL    HW127829  10.272  14.765   8.146
75330SOL    HW227830  10.163  14.660   8.144
75331SOL     OW27831   3.673  12.513   1.205
75331SOL    HW127832   3.670  12.606   1.228
75331SOL    HW227833   3.661  12.467   1.288
75332SOL     OW27834   9.937   2.597   8.610
75332SOL    HW127835   9.856   2.566   8.567
75332SOL    HW227836   9.986   2.640   8.540
75333SOL     OW27837   4.782   1.970   8.025
75333SOL    HW127838   4.737   1.887   8.007
75333SOL    HW227839   4.782   1.977   8.120
75334SOL     OW27840   5.178  14.077  11.124
75334SOL    HW127841   5.091  14.059  11.160
75334SOL    HW227842   5.239  14.045  11.191
75335SOL     OW27843  10.392   4.285   2.267
75335SOL    HW127844  10.348   4.283   2.183
75335SOL    HW227845  10.411   4.194   2.288
75336SOL     OW27846  10.652   3.652   0.424
75336SOL    HW127847  10.609   3.667   0.340
75336SOL    HW227848  10.654   3.557   0.433
75337SOL     OW27849  12.184   6.443   9.898
75337SOL    HW127850  12.140   6.502   9.836
75337SOL    HW227851  12.270   6.429   9.860
75338SOL     OW27852   0.737   2.854   5.089
75338SOL    HW127853   0.662   2.818   5.041
75338SOL    HW227854   0.723   2.948   5.089
75339SOL     OW27855   2.168   7.887   8.709
75339SOL    HW127856   2.188   7.889   8.802
75339SOL    HW227857   2.251   7.866   8.667
75340SOL     OW27858   8.140   9.867   7.814
75340SOL    HW127859   8.163   9.852   7.723
75340SOL    HW227860   8.051   9.833   7.823
75341SOL     OW27861  12.340  14.018   0.287
75341SOL    HW127862  12.274  14.069   0.240
75341SOL    HW227863  12.294  13.940   0.316
75342SOL     OW27864   8.486  13.883   4.650
75342SOL    HW127865   8.529  13.844   4.726
75342SOL    HW227866   8.534  13.847   4.575
75343SOL     OW27867   0.820  10.677  12.902
75343SOL    HW127868   0.840  10.754  12.850
75343SOL    HW227869   0.830  10.706  12.993
75344SOL     OW27870  13.171  10.182  14.046
75344SOL    HW127871  13.080  10.153  14.052
75344SOL    HW227872  13.197  10.158  13.957
75345SOL     OW27873   9.718   1.086   1.436
75345SOL    HW127874   9.639   1.108   1.386
75345SOL    HW227875   9.746   1.169   1.474
75346SOL     OW27876  10.819   3.885   4.725
75346SOL    HW127877  10.751   3.921   4.668
75346SOL    HW227878  10.851   3.808   4.679
75347SOL     OW27879  14.156  14.032  10.355
75347SOL    HW127880  14.153  13.998  10.265
75347SOL    HW227881  14.206  13.967  10.404
75348SOL     OW27882  12.790   8.516   3.791
75348SOL    HW127883  12.842   8.591   3.763
75348SOL    HW227884  12.851   8.442   3.789
75349SOL     OW27885  11.449   1.732  11.023
75349SOL    HW127886  11.536   1.724  11.061
75349SOL    HW227887  11.419   1.642  11.013
75350SOL     OW27888  13.743   3.574   7.603
75350SOL    HW127889  13.725   3.501   7.662
75350SOL    HW227890  13.728   3.652   7.657
75351SOL     OW27891  10.106   4.591  10.503
75351SOL    HW127892  10.012   4.600  10.521
75351SOL    HW227893  10.131   4.510  10.548
75352SOL     OW27894  12.374   0.852   8.578
75352SOL    HW127895  12.334   0.899   8.505
75352SOL    HW227896  12.428   0.785   8.537
75353SOL     OW27897   1.513   4.363  10.506
75353SOL    HW127898   1.501   4.446  10.461
75353SOL    HW227899   1.509   4.297  10.437
75354SOL     OW27900   2.668   0.412   6.500
75354SOL    HW127901   2.623   0.340   6.545
75354SOL    HW227902   2.737   0.368   6.450
75355SOL     OW27903  13.726  12.847   0.655
75355SOL    HW127904  13.655  12.853   0.720
75355SOL    HW227905  13.689  12.793   0.585
75356SOL     OW27906   9.319   5.631   3.262
75356SOL    HW127907   9.357   5.550   3.296
75356SOL    HW227908   9.336   5.629   3.168
75357SOL     OW27909  12.579  10.459  13.043
75357SOL    HW127910  12.486  10.457  13.019
75357SOL    HW227911  12.580  10.445  13.138
75358SOL     OW27912   8.998   5.545   4.480
75358SOL    HW127913   8.972   5.591   4.559
75358SOL    HW227914   9.012   5.455   4.508
75359SOL     OW27915   2.183   3.931   7.666
75359SOL    HW127916   2.270   3.894   7.680
75359SOL    HW227917   2.135   3.864   7.618
75360SOL     OW27918   9.887   9.903   6.382
75360SOL    HW127919   9.949   9.877   6.314
75360SOL    HW227920   9.903   9.841   6.453
75361SOL     OW27921   9.893   1.620  12.744
75361SOL    HW127922   9.938   1.557  12.688
75361SOL    HW227923   9.937   1.614  12.828
75362SOL     OW27924  14.257   7.807   9.327
75362SOL    HW127925  14.317   7.841   9.393
75362SOL    HW227926  14.173   7.848   9.348
75363SOL     OW27927   0.095   5.329   9.709
75363SOL    HW127928   0.037   5.400   9.734
75363SOL    HW227929   0.077   5.314   9.616
75364SOL     OW27930   9.292   8.713  10.054
75364SOL    HW127931   9.337   8.629  10.050
75364SOL    HW227932   9.363   8.778  10.057
75365SOL     OW27933  13.606   3.605   5.050
75365SOL    HW127934  13.544   3.579   5.118
75365SOL    HW227935  13.630   3.522   5.007
75366SOL     OW27936  14.093   1.561  11.573
75366SOL    HW127937  14.086   1.470  11.599
75366SOL    HW227938  14.007   1.598  11.593
75367SOL     OW27939   7.705   6.561   0.751
75367SOL    HW127940   7.614   6.532   0.748
75367SOL    HW227941   7.718   6.593   0.840
75368SOL     OW27942  13.062   1.543   7.522
75368SOL    HW127943  13.080   1.492   7.601
75368SOL    HW227944  13.138   1.599   7.511
75369SOL     OW27945   8.291   1.827   8.320
75369SOL    HW127946   8.265   1.742   8.357
75369SOL    HW227947   8.288   1.814   8.225
75370SOL     OW27948   0.558   7.845   7.433
75370SOL    HW127949   0.623   7.781   7.404
75370SOL    HW227950   0.519   7.877   7.351
75371SOL     OW27951   1.990   5.688   1.492
75371SOL    HW127952   2.041   5.612   1.518
75371SOL    HW227953   1.929   5.701   1.565
75372SOL     OW27954  14.564   6.112   2.170
75372SOL    HW127955  14.526   6.196   2.198
75372SOL    HW227956  14.496   6.048   2.191
75373SOL     OW27957  11.629   8.769  11.369
75373SOL    HW127958  11.630   8.680  11.405
75373SOL    HW227959  11.716   8.782  11.333
75374SOL     OW27960  13.218   7.645   0.517
75374SOL    HW127961  13.269   7.724   0.497
75374SOL    HW227962  13.173   7.665   0.598
75375SOL     OW27963   4.911   7.122  10.590
75375SOL    HW127964   5.001   7.149  10.570
75375SOL    HW227965   4.920   7.032  10.620
75376SOL     OW27966  14.438  11.048  12.734
75376SOL    HW127967  14.526  11.085  12.730
75376SOL    HW227968  14.389  11.108  12.790
75377SOL     OW27969   6.271  11.416   1.436
75377SOL    HW127970   6.351  11.468   1.434
75377SOL    HW227971   6.287  11.350   1.505
75378SOL     OW27972   4.780   7.922  13.282
75378SOL    HW127973   4.752   7.858  13.348
75378SOL    HW227974   4.873   7.904  13.269
75379SOL     OW27975  10.395  12.239   3.936
75379SOL    HW127976  10.312  12.206   3.900
75379SOL    HW227977  10.406  12.191   4.018
75380SOL     OW27978  13.496  12.598   2.184
75380SOL    HW127979  13.589  12.579   2.174
75380SOL    HW227980  13.482  12.601   2.278
75381SOL     OW27981   9.609   0.237   7.970
75381SOL    HW127982   9.569   0.233   7.883
75381SOL    HW227983   9.700   0.260   7.953
75382SOL     OW27984  13.912   9.963   0.003
75382SOL    HW127985  13.840  10.018   0.035
75382SOL    HW227986  13.881   9.874   0.012
75383SOL     OW27987   9.465  13.415   6.859
75383SOL    HW127988   9.386  13.453   6.897
75383SOL    HW227989   9.469  13.327   6.897
75384SOL     OW27990   5.421   9.097  13.898
75384SOL    HW127991   5.502   9.080  13.947
75384SOL    HW227992   5.392   9.183  13.929
75385SOL     OW27993   8.983   3.076   3.069
75385SOL    HW127994   9.034   3.043   3.143
75385SOL    HW227995   8.930   3.147   3.106
75386SOL     OW27996   3.315   6.484   5.376
75386SOL    HW127997   3.325   6.493   5.281
75386SOL    HW227998   3.324   6.390   5.392
75387SOL     OW27999   5.592   0.733  12.551
75387SOL    HW128000   5.603   0.709  12.643
75387SOL    HW228001   5.634   0.663  12.502
75388SOL     OW28002   3.208  14.168   2.406
75388SOL    HW128003   3.254  14.094   2.366
75388SOL    HW228004   3.278  14.225   2.439
75389SOL     OW28005   8.555   6.288   7.211
75389SOL    HW128006   8.468   6.282   7.171
75389SOL    HW228007   8.595   6.202   7.195
75390SOL     OW28008  10.047   9.301  14.793
75390SOL    HW128009  10.086   9.227  14.746
75390SOL    HW228010  10.110   9.322  14.862
75391SOL     OW28011  13.218   2.889   3.385
75391SOL    HW128012  13.225   2.967   3.331
75391SOL    HW228013  13.287   2.899   3.451
75392SOL     OW28014   6.212   6.411   7.868
75392SOL    HW128015   6.296   6.445   7.839
75392SOL    HW228016   6.160   6.405   7.788
75393SOL     OW28017   2.305   1.165  14.797
75393SOL    HW128018   2.380   1.146  14.741
75393SOL    HW228019   2.238   1.200  14.738
75394SOL     OW28020  13.918   8.242  12.458
75394SOL    HW128021  13.828   8.274  12.472
75394SOL    HW228022  13.949   8.290  12.382
75395SOL     OW28023   7.645   1.980  13.688
75395SOL    HW128024   7.621   2.012  13.601
75395SOL    HW228025   7.675   1.890  13.673
75396SOL     OW28026   2.254  13.047   0.941
75396SOL    HW128027   2.301  13.047   1.024
75396SOL    HW228028   2.209  13.131   0.939
75397SOL     OW28029   5.878   5.597   3.388
75397SOL    HW128030   5.793   5.619   3.351
75397SOL    HW228031   5.928   5.560   3.315
75398SOL     OW28032   4.034  12.817  14.334
75398SOL    HW128033   4.084  12.899  14.330
75398SOL    HW228034   4.039  12.782  14.245
75399SOL     OW28035   1.857  10.362  13.517
75399SOL    HW128036   1.782  10.353  13.458
75399SOL    HW228037   1.909  10.283  13.503
75400SOL     OW28038  14.260  12.253   8.528
75400SOL    HW128039  14.199  12.324   8.546
75400SOL    HW228040  14.344  12.285   8.561
75401SOL     OW28041  12.239   4.694   7.068
75401SOL    HW128042  12.318   4.714   7.017
75401SOL    HW228043  12.167   4.716   7.009
75402SOL     OW28044   1.905   3.956   3.832
75402SOL    HW128045   1.847   3.957   3.908
75402SOL    HW228046   1.915   3.863   3.811
75403SOL     OW28047   0.118   8.192  14.582
75403SOL    HW128048   0.092   8.220  14.670
75403SOL    HW228049   0.074   8.108  14.570
75404SOL     OW28050   2.916   3.853  10.465
75404SOL    HW128051   2.919   3.773  10.413
75404SOL    HW228052   2.997   3.898  10.445
75405SOL     OW28053  12.072   7.585  13.334
75405SOL    HW128054  12.071   7.663  13.391
75405SOL    HW228055  12.115   7.518  13.387
75406SOL     OW28056   9.965   0.129   3.311
75406SOL    HW128057  10.059   0.135   3.330
75406SOL    HW228058   9.943   0.212   3.270
75407SOL     OW28059   5.601   3.149   6.133
75407SOL    HW128060   5.512   3.167   6.162
75407SOL    HW228061   5.590   3.084   6.063
75408SOL     OW28062  12.040   9.603  11.026
75408SOL    HW128063  12.087   9.647  11.097
75408SOL    HW228064  12.101   9.536  10.995
75409SOL     OW28065   1.151  11.683   8.379
75409SOL    HW128066   1.118  11.651   8.296
75409SOL    HW228067   1.127  11.615   8.442
75410SOL     OW28068   7.491   2.837  13.374
75410SOL    HW128069   7.417   2.892  13.399
75410SOL    HW228070   7.525   2.803  13.456
75411SOL     OW28071  12.901   8.778   8.599
75411SOL    HW128072  12.882   8.872   8.593
75411SOL    HW228073  12.991   8.774   8.631
75412SOL     OW28074  13.370   0.298  10.611
75412SOL    HW128075  13.445   0.263  10.659
75412SOL    HW228076  13.356   0.385  10.648
75413SOL     OW28077   3.076   4.350  13.407
75413SOL    HW128078   3.124   4.394  13.337
75413SOL    HW228079   3.144   4.306  13.458
75414SOL     OW28080   4.731  14.707   5.809
75414SOL    HW128081   4.819  14.743   5.819
75414SOL    HW228082   4.673  14.784   5.813
75415SOL     OW28083  12.264   2.985   6.241
75415SOL    HW128084  12.238   2.988   6.333
75415SOL    HW228085  12.194   2.937   6.197
75416SOL     OW28086   2.886   6.166   6.707
75416SOL    HW128087   2.856   6.226   6.775
75416SOL    HW228088   2.982   6.169   6.714
75417SOL     OW28089  14.602   3.280  10.020
75417SOL    HW128090  14.590   3.185  10.022
75417SOL    HW228091  14.522   3.313   9.978
75418SOL     OW28092   5.296  10.273   6.871
75418SOL    HW128093   5.366  10.229   6.919
75418SOL    HW228094   5.337  10.304   6.791
75419SOL     OW28095  10.513  14.662   5.134
75419SOL    HW128096  10.566  14.685   5.058
75419SOL    HW228097  10.427  14.699   5.115
75420SOL     OW28098   0.726  10.543   4.054
75420SOL    HW128099   0.635  10.524   4.032
75420SOL    HW228100   0.762  10.460   4.083
75421SOL     OW28101   8.470   4.489   0.561
75421SOL    HW128102   8.518   4.442   0.493
75421SOL    HW228103   8.507   4.458   0.643
75422SOL     OW28104   8.597   7.409  11.062
75422SOL    HW128105   8.517   7.461  11.056
75422SOL    HW228106   8.664   7.462  11.018
75423SOL     OW28107  14.522   8.240  12.790
75423SOL    HW128108  14.595   8.301  12.803
75423SOL    HW228109  14.548   8.187  12.715
75424SOL     OW28110   4.921   0.895   0.560
75424SOL    HW128111   4.846   0.869   0.612
75424SOL    HW228112   4.944   0.817   0.509
75425SOL     OW28113   0.155   0.326   6.130
75425SOL    HW128114   0.136   0.392   6.197
75425SOL    HW228115   0.123   0.244   6.168
75426SOL     OW28116   6.070   0.313   9.009
75426SOL    HW128117   5.979   0.295   9.035
75426SOL    HW228118   6.088   0.400   9.044
75427SOL     OW28119  10.256   1.238   7.225
75427SOL    HW128120  10.179   1.184   7.241
75427SOL    HW228121  10.330   1.185   7.255
75428SOL     OW28122   9.868   4.705  11.104
75428SOL    HW128123   9.862   4.681  11.011
75428SOL    HW228124   9.962   4.710  11.120
75429SOL     OW28125   2.501   5.912   9.230
75429SOL    HW128126   2.446   5.986   9.206
75429SOL    HW228127   2.539   5.936   9.315
75430SOL     OW28128  11.974   3.856   7.853
75430SOL    HW128129  11.886   3.868   7.889
75430SOL    HW228130  11.968   3.888   7.763
75431SOL     OW28131   3.320  12.831   4.453
75431SOL    HW128132   3.378  12.873   4.516
75431SOL    HW228133   3.274  12.764   4.504
75432SOL     OW28134   3.349  12.586   7.510
75432SOL    HW128135   3.307  12.548   7.587
75432SOL    HW228136   3.354  12.514   7.447
75433SOL     OW28137   0.333   3.302   3.357
75433SOL    HW128138   0.257   3.357   3.340
75433SOL    HW228139   0.388   3.354   3.415
75434SOL     OW28140   5.211   6.699   9.971
75434SOL    HW128141   5.130   6.675  10.016
75434SOL    HW228142   5.182   6.732   9.886
75435SOL     OW28143   8.682   5.073   9.689
75435SOL    HW128144   8.686   5.145   9.626
75435SOL    HW228145   8.616   5.014   9.655
75436SOL     OW28146   0.730   5.174   7.644
75436SOL    HW128147   0.721   5.124   7.725
75436SOL    HW228148   0.760   5.260   7.672
75437SOL     OW28149   4.237  12.897   9.373
75437SOL    HW128150   4.232  12.802   9.386
75437SOL    HW228151   4.307  12.908   9.308
75438SOL     OW28152   9.769   4.360   7.190
75438SOL    HW128153   9.685   4.353   7.145
75438SOL    HW228154   9.769   4.286   7.252
75439SOL     OW28155   6.859  11.359   2.542
75439SOL    HW128156   6.892  11.381   2.629
75439SOL    HW228157   6.851  11.263   2.542
75440SOL     OW28158   2.716   7.197  12.261
75440SOL    HW128159   2.693   7.289  12.246
75440SOL    HW228160   2.633   7.156  12.286
75441SOL     OW28161   2.823   9.667   0.276
75441SOL    HW128162   2.856   9.577   0.274
75441SOL    HW228163   2.896   9.718   0.312
75442SOL     OW28164  10.216   6.182   5.722
75442SOL    HW128165  10.311   6.192   5.714
75442SOL    HW228166  10.179   6.261   5.682
75443SOL     OW28167   6.053   3.624   0.641
75443SOL    HW128168   5.964   3.643   0.611
75443SOL    HW228169   6.107   3.634   0.563
75444SOL     OW28170  14.390   0.630   4.068
75444SOL    HW128171  14.344   0.620   4.152
75444SOL    HW228172  14.468   0.576   4.078
75445SOL     OW28173   2.267  11.380   7.597
75445SOL    HW128174   2.336  11.341   7.651
75445SOL    HW228175   2.303  11.381   7.509
75446SOL     OW28176   3.094  13.736   6.477
75446SOL    HW128177   3.003  13.712   6.492
75446SOL    HW228178   3.101  13.746   6.382
75447SOL     OW28179  10.788   5.016   7.743
75447SOL    HW128180  10.704   5.049   7.712
75447SOL    HW228181  10.782   4.921   7.732
75448SOL     OW28182   7.668   1.287  14.237
75448SOL    HW128183   7.681   1.331  14.153
75448SOL    HW228184   7.691   1.196  14.221
75449SOL     OW28185   4.537  12.409  11.306
75449SOL    HW128186   4.443  12.408  11.290
75449SOL    HW228187   4.549  12.349  11.380
75450SOL     OW28188  14.120   5.633   9.891
75450SOL    HW128189  14.188   5.646   9.957
75450SOL    HW228190  14.158   5.669   9.811
75451SOL     OW28191  10.886   3.034   3.447
75451SOL    HW128192  10.953   3.087   3.490
75451SOL    HW228193  10.869   3.080   3.364
75452SOL     OW28194   8.835   1.977   3.269
75452SOL    HW128195   8.873   2.060   3.298
75452SOL    HW228196   8.879   1.910   3.321
75453SOL     OW28197   7.079  11.656  10.257
75453SOL    HW128198   6.993  11.682  10.225
75453SOL    HW228199   7.088  11.564  10.230
75454SOL     OW28200   9.730   7.995   3.234
75454SOL    HW128201   9.709   8.088   3.230
75454SOL    HW228202   9.789   7.981   3.160
75455SOL     OW28203   8.988   7.025  11.933
75455SOL    HW128204   8.993   6.989  11.844
75455SOL    HW228205   8.900   7.063  11.938
75456SOL     OW28206   1.520  10.098   1.261
75456SOL    HW128207   1.468  10.033   1.212
75456SOL    HW228208   1.600  10.107   1.209
75457SOL     OW28209   0.322   6.519  10.983
75457SOL    HW128210   0.328   6.571  11.063
75457SOL    HW228211   0.338   6.582  10.912
75458SOL     OW28212   5.465   0.840   4.551
75458SOL    HW128213   5.544   0.786   4.544
75458SOL    HW228214   5.408   0.808   4.481
75459SOL     OW28215   2.464   1.024   2.302
75459SOL    HW128216   2.534   0.989   2.357
75459SOL    HW228217   2.442   1.108   2.341
75460SOL     OW28218   9.063  12.011   9.997
75460SOL    HW128219   9.079  11.956   9.920
75460SOL    HW228220   9.149  12.046  10.020
75461SOL     OW28221   4.152  10.903   6.447
75461SOL    HW128222   4.074  10.849   6.460
75461SOL    HW228223   4.121  10.979   6.398
75462SOL     OW28224   7.785   3.774   5.773
75462SOL    HW128225   7.694   3.802   5.781
75462SOL    HW228226   7.780   3.679   5.762
75463SOL     OW28227  14.795   1.315   6.819
75463SOL    HW128228  14.752   1.279   6.897
75463SOL    HW228229  14.878   1.350   6.851
75464SOL     OW28230   2.667  13.464   4.014
75464SOL    HW128231   2.716  13.545   4.002
75464SOL    HW228232   2.734  13.397   4.025
75465SOL     OW28233   0.523   1.038   4.756
75465SOL    HW128234   0.607   1.084   4.747
75465SOL    HW228235   0.542   0.949   4.726
75466SOL     OW28236  10.464   6.240  13.877
75466SOL    HW128237  10.452   6.169  13.940
75466SOL    HW228238  10.487   6.315  13.931
75467SOL     OW28239   2.625   8.255  13.881
75467SOL    HW128240   2.697   8.306  13.916
75467SOL    HW228241   2.546   8.291  13.923
75468SOL     OW28242  11.878  14.051   1.779
75468SOL    HW128243  11.805  14.097   1.738
75468SOL    HW228244  11.889  13.972   1.726
75469SOL     OW28245   6.044  14.042   3.109
75469SOL    HW128246   6.085  13.957   3.122
75469SOL    HW228247   6.101  14.087   3.046
75470SOL     OW28248  14.332   4.755   0.529
75470SOL    HW128249  14.273   4.692   0.572
75470SOL    HW228250  14.417   4.710   0.528
75471SOL     OW28251   2.223   1.497   6.665
75471SOL    HW128252   2.283   1.444   6.718
75471SOL    HW228253   2.137   1.482   6.704
75472SOL     OW28254  12.949   0.153  12.730
75472SOL    HW128255  12.910   0.073  12.694
75472SOL    HW228256  12.973   0.129  12.820
75473SOL     OW28257   0.214   3.253   1.002
75473SOL    HW128258   0.228   3.347   1.007
75473SOL    HW228259   0.299   3.215   1.024
75474SOL     OW28260   2.575  11.989   2.695
75474SOL    HW128261   2.535  11.990   2.782
75474SOL    HW228262   2.557  12.076   2.659
75475SOL     OW28263  12.861  14.650  14.424
75475SOL    HW128264  12.925  14.584  14.397
75475SOL    HW228265  12.906  14.734  14.413
75476SOL     OW28266   3.419   6.670  11.082
75476SOL    HW128267   3.496   6.721  11.058
75476SOL    HW228268   3.407   6.609  11.009
75477SOL     OW28269   2.164  12.560   0.876
75477SOL    HW128270   2.072  12.537   0.888
75477SOL    HW228271   2.162  12.649   0.841
75478SOL     OW28272   7.089   2.600  11.061
75478SOL    HW128273   7.165   2.549  11.034
75478SOL    HW228274   7.058   2.641  10.980
75479SOL     OW28275   5.918   5.173   4.446
75479SOL    HW128276   5.936   5.118   4.522
75479SOL    HW228277   5.939   5.117   4.371
75480SOL     OW28278   9.251  13.450   6.659
75480SOL    HW128279   9.175  13.493   6.698
75480SOL    HW228280   9.230  13.357   6.663
75481SOL     OW28281   6.302   3.570   1.206
75481SOL    HW128282   6.329   3.514   1.134
75481SOL    HW228283   6.343   3.655   1.188
75482SOL     OW28284   0.328  13.959  14.847
75482SOL    HW128285   0.263  13.941  14.780
75482SOL    HW228286   0.369  14.041  14.818
75483SOL     OW28287  13.952   2.922   6.127
75483SOL    HW128288  13.957   2.853   6.062
75483SOL    HW228289  13.971   3.003   6.079
75484SOL     OW28290  12.552  13.961   2.579
75484SOL    HW128291  12.519  13.874   2.601
75484SOL    HW228292  12.587  13.952   2.491
75485SOL     OW28293   6.725   1.274   9.961
75485SOL    HW128294   6.710   1.293  10.054
75485SOL    HW228295   6.667   1.335   9.914
75486SOL     OW28296   3.049   6.531   6.201
75486SOL    HW128297   3.027   6.524   6.109
75486SOL    HW228298   3.004   6.457   6.243
75487SOL     OW28299   6.993   4.390   5.936
75487SOL    HW128300   6.978   4.485   5.939
75487SOL    HW228301   7.028   4.369   6.023
75488SOL     OW28302   7.967  10.732  14.622
75488SOL    HW128303   7.896  10.681  14.581
75488SOL    HW228304   8.047  10.692  14.587
75489SOL     OW28305  13.571   3.588   8.444
75489SOL    HW128306  13.653   3.544   8.470
75489SOL    HW228307  13.509   3.566   8.514
75490SOL     OW28308   2.807   3.753   2.696
75490SOL    HW128309   2.847   3.671   2.725
75490SOL    HW228310   2.874   3.793   2.640
75491SOL     OW28311   8.596   7.912   4.144
75491SOL    HW128312   8.519   7.890   4.196
75491SOL    HW228313   8.621   7.999   4.174
75492SOL     OW28314  10.732  14.137   8.232
75492SOL    HW128315  10.674  14.123   8.306
75492SOL    HW228316  10.735  14.053   8.186
75493SOL     OW28317  12.100   2.347   3.881
75493SOL    HW128318  12.022   2.324   3.831
75493SOL    HW228319  12.143   2.263   3.899
75494SOL     OW28320  13.863   7.210  12.421
75494SOL    HW128321  13.947   7.252  12.438
75494SOL    HW228322  13.807   7.240  12.493
75495SOL     OW28323   6.703   8.419   2.918
75495SOL    HW128324   6.638   8.357   2.952
75495SOL    HW228325   6.650   8.485   2.872
75496SOL     OW28326   0.659   3.732  13.404
75496SOL    HW128327   0.731   3.679  13.440
75496SOL    HW228328   0.701   3.790  13.341
75497SOL     OW28329  14.879   1.355  11.938
75497SOL    HW128330   0.058   1.428  11.922
75497SOL    HW228331   0.030   1.314  12.018
75498SOL     OW28332  14.499   5.556  14.011
75498SOL    HW128333  14.593   5.565  14.025
75498SOL    HW228334  14.478   5.626  13.949
75499SOL     OW28335   6.489   2.002   7.006
75499SOL    HW128336   6.448   1.976   6.924
75499SOL    HW228337   6.582   2.011   6.985
75500SOL     OW28338   9.749  14.431  12.677
75500SOL    HW128339   9.818  14.436  12.743
75500SOL    HW228340   9.789  14.385  12.603
75501SOL     OW28341  13.880  11.570  14.504
75501SOL    HW128342  13.810  11.506  14.518
75501SOL    HW228343  13.890  11.612  14.589
75502SOL     OW28344   9.099  12.877  14.393
75502SOL    HW128345   9.036  12.813  14.426
75502SOL    HW228346   9.132  12.921  14.472
75503SOL     OW28347  10.385  11.834  13.559
75503SOL    HW128348  10.324  11.796  13.495
75503SOL    HW228349  10.449  11.882  13.506
75504SOL     OW28350  12.750   5.815   0.016
75504SOL    HW128351  12.802   5.892   0.038
75504SOL    HW228352  12.815   5.744   0.008
75505SOL     OW28353   4.257   4.610   0.258
75505SOL    HW128354   4.337   4.569   0.226
75505SOL    HW228355   4.286   4.666   0.331
75506SOL     OW28356   3.282  14.032   9.283
75506SOL    HW128357   3.225  14.104   9.258
75506SOL    HW228358   3.370  14.060   9.259
75507SOL     OW28359   3.277   2.183   4.096
75507SOL    HW128360   3.341   2.247   4.126
75507SOL    HW228361   3.315   2.147   4.016
75508SOL     OW28362   5.661   8.658   6.326
75508SOL    HW128363   5.684   8.653   6.419
75508SOL    HW228364   5.571   8.691   6.325
75509SOL     OW28365   8.649   5.046   5.171
75509SOL    HW128366   8.629   5.053   5.077
75509SOL    HW228367   8.606   4.965   5.198
75510SOL     OW28368  12.357   1.885   7.493
75510SOL    HW128369  12.297   1.813   7.474
75510SOL    HW228370  12.444   1.846   7.484
75511SOL     OW28371   8.345   4.915   3.976
75511SOL    HW128372   8.404   4.845   4.005
75511SOL    HW228373   8.400   4.972   3.922
75512SOL     OW28374   1.234   4.084   6.326
75512SOL    HW128375   1.213   4.100   6.234
75512SOL    HW228376   1.149   4.076   6.369
75513SOL     OW28377   4.546   1.513   8.480
75513SOL    HW128378   4.454   1.511   8.504
75513SOL    HW228379   4.560   1.431   8.432
75514SOL     OW28380  13.994  13.631   1.485
75514SOL    HW128381  13.979  13.694   1.415
75514SOL    HW228382  13.950  13.551   1.455
75515SOL     OW28383   9.716  10.158   2.451
75515SOL    HW128384   9.680  10.137   2.537
75515SOL    HW228385   9.767  10.238   2.465
75516SOL     OW28386   5.369   5.751   4.337
75516SOL    HW128387   5.384   5.845   4.332
75516SOL    HW228388   5.434   5.713   4.277
75517SOL     OW28389   4.386   2.443   3.710
75517SOL    HW128390   4.412   2.491   3.631
75517SOL    HW228391   4.451   2.468   3.776
75518SOL     OW28392  11.740   0.516   6.286
75518SOL    HW128393  11.727   0.571   6.209
75518SOL    HW228394  11.829   0.482   6.277
75519SOL     OW28395   6.230   2.238   4.200
75519SOL    HW128396   6.251   2.323   4.238
75519SOL    HW228397   6.311   2.208   4.160
75520SOL     OW28398  12.949   3.388   5.489
75520SOL    HW128399  12.854   3.396   5.475
75520SOL    HW228400  12.958   3.363   5.581
75521SOL     OW28401  13.972  12.952   0.894
75521SOL    HW128402  14.053  12.981   0.937
75521SOL    HW228403  13.988  12.966   0.801
75522SOL     OW28404   5.523  11.701   9.176
75522SOL    HW128405   5.464  11.638   9.217
75522SOL    HW228406   5.544  11.763   9.246
75523SOL     OW28407   8.627  14.029   8.242
75523SOL    HW128408   8.681  14.086   8.296
75523SOL    HW228409   8.537  14.057   8.259
75524SOL     OW28410   7.979   8.656  13.874
75524SOL    HW128411   8.055   8.697  13.913
75524SOL    HW228412   7.910   8.665  13.939
75525SOL     OW28413   5.456   5.723   1.377
75525SOL    HW128414   5.521   5.770   1.430
75525SOL    HW228415   5.374   5.732   1.427
75526SOL     OW28416   2.678   7.274   4.554
75526SOL    HW128417   2.736   7.340   4.593
75526SOL    HW228418   2.734   7.229   4.490
75527SOL     OW28419   4.930  14.161   5.257
75527SOL    HW128420   4.927  14.247   5.299
75527SOL    HW228421   4.999  14.114   5.303
75528SOL     OW28422  12.085   5.018   2.445
75528SOL    HW128423  12.134   4.982   2.520
75528SOL    HW228424  12.057   4.940   2.396
75529SOL     OW28425  14.658   2.162   1.488
75529SOL    HW128426  14.747   2.166   1.456
75529SOL    HW228427  14.603   2.185   1.413
75530SOL     OW28428   1.496   2.787   2.126
75530SOL    HW128429   1.442   2.838   2.066
75530SOL    HW228430   1.478   2.695   2.104
75531SOL     OW28431   7.838  13.742   0.126
75531SOL    HW128432   7.854  13.654   0.158
75531SOL    HW228433   7.743  13.753   0.129
75532SOL     OW28434   0.699   7.314  11.250
75532SOL    HW128435   0.669   7.394  11.293
75532SOL    HW228436   0.619   7.267  11.228
75533SOL     OW28437   0.321  13.291   0.805
75533SOL    HW128438   0.371  13.283   0.723
75533SOL    HW228439   0.250  13.226   0.796
75534SOL     OW28440   8.151   7.431   8.580
75534SOL    HW128441   8.178   7.369   8.648
75534SOL    HW228442   8.102   7.378   8.518
75535SOL     OW28443   2.893   2.498   5.209
75535SOL    HW128444   2.829   2.564   5.181
75535SOL    HW228445   2.909   2.446   5.130
75536SOL     OW28446   1.033   0.985  10.734
75536SOL    HW128447   1.003   0.938  10.812
75536SOL    HW228448   1.114   0.939  10.709
75537SOL     OW28449   1.531  10.422   7.717
75537SOL    HW128450   1.513  10.352   7.780
75537SOL    HW228451   1.520  10.503   7.767
75538SOL     OW28452   6.518   2.384   6.399
75538SOL    HW128453   6.594   2.442   6.395
75538SOL    HW228454   6.480   2.387   6.311
75539SOL     OW28455   6.472  14.011   6.103
75539SOL    HW128456   6.524  14.053   6.035
75539SOL    HW228457   6.395  13.977   6.058
75540SOL     OW28458   8.335   7.204   1.722
75540SOL    HW128459   8.271   7.215   1.651
75540SOL    HW228460   8.411   7.254   1.693
75541SOL     OW28461  11.526   3.434   3.898
75541SOL    HW128462  11.458   3.390   3.949
75541SOL    HW228463  11.555   3.506   3.953
75542SOL     OW28464  14.782   0.610   3.306
75542SOL    HW128465  14.704   0.590   3.358
75542SOL    HW228466  14.805   0.699   3.331
75543SOL     OW28467  13.138   4.433  10.186
75543SOL    HW128468  13.049   4.432  10.151
75543SOL    HW228469  13.126   4.445  10.281
75544SOL     OW28470   1.561   3.142   0.001
75544SOL    HW128471   1.581   3.070   0.061
75544SOL    HW228472   1.469   3.161   0.017
75545SOL     OW28473  10.148   0.266   3.648
75545SOL    HW128474  10.115   0.321   3.577
75545SOL    HW228475  10.093   0.187   3.646
75546SOL     OW28476  13.049   4.743   0.505
75546SOL    HW128477  13.026   4.836   0.495
75546SOL    HW228478  13.142   4.739   0.484
75547SOL     OW28479  12.113  10.596   3.721
75547SOL    HW128480  12.167  10.666   3.760
75547SOL    HW228481  12.173  10.522   3.714
75548SOL     OW28482   9.760  12.831   2.904
75548SOL    HW128483   9.842  12.878   2.917
75548SOL    HW228484   9.760  12.764   2.973
75549SOL     OW28485  14.153   5.846   6.159
75549SOL    HW128486  14.240   5.833   6.198
75549SOL    HW228487  14.099   5.879   6.231
75550SOL     OW28488  13.296   8.760   2.292
75550SOL    HW128489  13.359   8.712   2.238
75550SOL    HW228490  13.258   8.824   2.232
75551SOL     OW28491  10.625   6.774   8.496
75551SOL    HW128492  10.587   6.858   8.521
75551SOL    HW228493  10.713   6.774   8.534
75552SOL     OW28494   4.558  10.556   0.902
75552SOL    HW128495   4.611  10.528   0.827
75552SOL    HW228496   4.569  10.652   0.904
75553SOL     OW28497   5.555  13.448  12.327
75553SOL    HW128498   5.540  13.524  12.271
75553SOL    HW228499   5.552  13.373  12.267
75554SOL     OW28500   8.194   7.753   4.743
75554SOL    HW128501   8.251   7.679   4.764
75554SOL    HW228502   8.204   7.813   4.817
75555SOL     OW28503   5.868  14.689   0.734
75555SOL    HW128504   5.899  14.656   0.649
75555SOL    HW228505   5.831  14.612   0.777
75556SOL     OW28506   8.437   3.145   1.125
75556SOL    HW128507   8.377   3.136   1.052
75556SOL    HW228508   8.501   3.075   1.112
75557SOL     OW28509  14.238  11.366   6.093
75557SOL    HW128510  14.179  11.416   6.150
75557SOL    HW228511  14.195  11.282   6.083
75558SOL     OW28512  12.804   6.730   7.678
75558SOL    HW128513  12.743   6.680   7.732
75558SOL    HW228514  12.795   6.693   7.590
75559SOL     OW28515  11.834  12.831   0.125
75559SOL    HW128516  11.784  12.773   0.068
75559SOL    HW228517  11.791  12.824   0.210
75560SOL     OW28518   4.379   9.469   7.140
75560SOL    HW128519   4.293   9.427   7.137
75560SOL    HW228520   4.418   9.451   7.054
75561SOL     OW28521   0.788   6.262   9.137
75561SOL    HW128522   0.845   6.339   9.123
75561SOL    HW228523   0.778   6.257   9.232
75562SOL     OW28524   8.086   1.291   9.283
75562SOL    HW128525   8.002   1.333   9.264
75562SOL    HW228526   8.143   1.318   9.211
75563SOL     OW28527   1.035  11.831   5.644
75563SOL    HW128528   1.109  11.833   5.583
75563SOL    HW228529   0.983  11.756   5.615
75564SOL     OW28530   5.186   0.743   1.791
75564SOL    HW128531   5.278   0.737   1.816
75564SOL    HW228532   5.139   0.696   1.859
75565SOL     OW28533   3.713   6.533   2.629
75565SOL    HW128534   3.804   6.509   2.645
75565SOL    HW228535   3.692   6.596   2.699
75566SOL     OW28536   6.019   7.020   1.655
75566SOL    HW128537   6.034   6.987   1.566
75566SOL    HW228538   5.924   7.016   1.666
75567SOL     OW28539   4.747   0.991   6.503
75567SOL    HW128540   4.838   1.013   6.521
75567SOL    HW228541   4.737   1.008   6.409
75568SOL     OW28542   2.737   4.534   0.700
75568SOL    HW128543   2.681   4.605   0.669
75568SOL    HW228544   2.739   4.471   0.628
75569SOL     OW28545   5.679   0.716   0.438
75569SOL    HW128546   5.707   0.639   0.390
75569SOL    HW228547   5.698   0.696   0.530
75570SOL     OW28548  12.437   4.121   9.846
75570SOL    HW128549  12.522   4.135   9.888
75570SOL    HW228550  12.374   4.158   9.907
75571SOL     OW28551   2.126  12.462   5.760
75571SOL    HW128552   2.126  12.533   5.697
75571SOL    HW228553   2.151  12.385   5.709
75572SOL     OW28554   3.702   8.343   3.797
75572SOL    HW128555   3.700   8.248   3.806
75572SOL    HW228556   3.655   8.375   3.874
75573SOL     OW28557   6.667   6.574  13.509
75573SOL    HW128558   6.667   6.615  13.423
75573SOL    HW228559   6.578   6.588  13.543
75574SOL     OW28560   3.923   1.418   4.825
75574SOL    HW128561   4.003   1.432   4.773
75574SOL    HW228562   3.879   1.345   4.782
75575SOL     OW28563   0.578   2.460   6.124
75575SOL    HW128564   0.665   2.420   6.121
75575SOL    HW228565   0.571   2.496   6.212
75576SOL     OW28566  13.117  13.578   3.451
75576SOL    HW128567  13.031  13.538   3.461
75576SOL    HW228568  13.171  13.536   3.517
75577SOL     OW28569  13.184  10.884   5.524
75577SOL    HW128570  13.272  10.922   5.527
75577SOL    HW228571  13.178  10.831   5.604
75578SOL     OW28572  12.773   0.867  14.157
75578SOL    HW128573  12.848   0.922  14.133
75578SOL    HW228574  12.696   0.921  14.136
75579SOL     OW28575   8.979   7.779   4.038
75579SOL    HW128576   8.885   7.766   4.032
75579SOL    HW228577   9.007   7.792   3.948
75580SOL     OW28578  13.278   9.451   3.599
75580SOL    HW128579  13.185   9.443   3.618
75580SOL    HW228580  13.287   9.425   3.508
75581SOL     OW28581   5.894   5.220   1.483
75581SOL    HW128582   5.965   5.281   1.461
75581SOL    HW228583   5.915   5.189   1.571
75582SOL     OW28584  14.617  12.916   2.349
75582SOL    HW128585  14.620  13.010   2.366
75582SOL    HW228586  14.700  12.897   2.305
75583SOL     OW28587  12.244   8.622  11.426
75583SOL    HW128588  12.286   8.543  11.460
75583SOL    HW228589  12.226   8.603  11.334
75584SOL     OW28590  10.264   9.598   1.952
75584SOL    HW128591  10.321   9.597   1.875
75584SOL    HW228592  10.268   9.508   1.986
75585SOL     OW28593   4.201  12.912  11.756
75585SOL    HW128594   4.269  12.920  11.689
75585SOL    HW228595   4.212  12.825  11.793
75586SOL     OW28596   1.924   0.556   7.992
75586SOL    HW128597   2.017   0.540   8.006
75586SOL    HW228598   1.918   0.585   7.901
75587SOL     OW28599   2.821   0.773   8.831
75587SOL    HW128600   2.891   0.766   8.767
75587SOL    HW228601   2.817   0.687   8.872
75588SOL     OW28602  12.671   7.396   4.384
75588SOL    HW128603  12.628   7.479   4.404
75588SOL    HW228604  12.764   7.414   4.398
75589SOL     OW28605  12.106  12.416  12.737
75589SOL    HW128606  12.117  12.508  12.762
75589SOL    HW228607  12.150  12.367  12.807
75590SOL     OW28608   2.520  14.201   4.236
75590SOL    HW128609   2.448  14.141   4.216
75590SOL    HW228610   2.492  14.247   4.316
75591SOL     OW28611   1.476   6.796   5.576
75591SOL    HW128612   1.507   6.770   5.489
75591SOL    HW228613   1.495   6.890   5.581
75592SOL     OW28614  12.347  13.927  13.798
75592SOL    HW128615  12.425  13.983  13.792
75592SOL    HW228616  12.277  13.979  13.758
75593SOL     OW28617  12.651   8.275  13.171
75593SOL    HW128618  12.602   8.199  13.139
75593SOL    HW228619  12.705   8.302  13.097
75594SOL     OW28620   4.419   1.160   5.662
75594SOL    HW128621   4.406   1.250   5.632
75594SOL    HW228622   4.478   1.122   5.597
75595SOL     OW28623   2.443   8.159   5.889
75595SOL    HW128624   2.417   8.084   5.836
75595SOL    HW228625   2.446   8.126   5.978
75596SOL     OW28626   5.272  10.890  10.209
75596SOL    HW128627   5.243  10.802  10.233
75596SOL    HW228628   5.224  10.910  10.129
75597SOL     OW28629   0.666  11.819   4.544
75597SOL    HW128630   0.707  11.882   4.484
75597SOL    HW228631   0.608  11.767   4.488
75598SOL     OW28632   4.332   2.796  10.983
75598SOL    HW128633   4.239   2.797  11.007
75598SOL    HW228634   4.365   2.880  11.014
75599SOL     OW28635   8.585   2.058   3.374
75599SOL    HW128636   8.662   2.021   3.331
75599SOL    HW228637   8.511   2.010   3.335
75600SOL     OW28638   1.323   3.203   4.400
75600SOL    HW128639   1.392   3.148   4.436
75600SOL    HW228640   1.254   3.201   4.467
75601SOL     OW28641   8.722  11.759   9.823
75601SOL    HW128642   8.672  11.827   9.869
75601SOL    HW228643   8.767  11.806   9.753
75602SOL     OW28644  10.599   8.075   5.293
75602SOL    HW128645  10.681   8.110   5.328
75602SOL    HW228646  10.623   7.991   5.253
75603SOL     OW28647  11.189   5.342   3.250
75603SOL    HW128648  11.265   5.365   3.303
75603SOL    HW228649  11.120   5.323   3.314
75604SOL     OW28650   9.178  10.063   9.631
75604SOL    HW128651   9.099  10.108   9.598
75604SOL    HW228652   9.191  10.100   9.719
75605SOL     OW28653  14.556   7.477  14.643
75605SOL    HW128654  14.606   7.491  14.562
75605SOL    HW228655  14.465   7.472  14.615
75606SOL     OW28656   3.501   4.714  11.095
75606SOL    HW128657   3.469   4.785  11.040
75606SOL    HW228658   3.533   4.648  11.033
75607SOL     OW28659   5.262  13.278   6.093
75607SOL    HW128660   5.205  13.323   6.155
75607SOL    HW228661   5.349  13.315   6.108
75608SOL     OW28662   3.347   6.891   3.837
75608SOL    HW128663   3.392   6.853   3.761
75608SOL    HW228664   3.368   6.831   3.909
75609SOL     OW28665   4.802  12.050   1.769
75609SOL    HW128666   4.806  12.040   1.673
75609SOL    HW228667   4.842  11.970   1.803
75610SOL     OW28668   8.395   5.460   5.042
75610SOL    HW128669   8.312   5.419   5.018
75610SOL    HW228670   8.449   5.388   5.073
75611SOL     OW28671  13.912   1.447  12.104
75611SOL    HW128672  13.904   1.446  12.199
75611SOL    HW228673  13.961   1.527  12.085
75612SOL     OW28674  12.025  14.209   2.489
75612SOL    HW128675  12.109  14.228   2.447
75612SOL    HW228676  11.970  14.284   2.467
75613SOL     OW28677   7.452  10.452   8.327
75613SOL    HW128678   7.459  10.514   8.254
75613SOL    HW228679   7.387  10.492   8.386
75614SOL     OW28680   4.438   0.982  12.583
75614SOL    HW128681   4.486   0.910  12.623
75614SOL    HW228682   4.461   0.978  12.490
75615SOL     OW28683  10.250  14.381  13.804
75615SOL    HW128684  10.237  14.431  13.723
75615SOL    HW228685  10.246  14.289  13.776
75616SOL     OW28686  12.061   5.535  12.089
75616SOL    HW128687  12.054   5.440  12.090
75616SOL    HW228688  12.072   5.560  12.181
75617SOL     OW28689   9.152   8.058  11.650
75617SOL    HW128690   9.242   8.067  11.620
75617SOL    HW228691   9.130   8.143  11.688
75618SOL     OW28692  11.568  10.346   3.306
75618SOL    HW128693  11.624  10.303   3.370
75618SOL    HW228694  11.505  10.279   3.279
75619SOL     OW28695   9.193   0.975  11.638
75619SOL    HW128696   9.143   1.046  11.680
75619SOL    HW228697   9.139   0.950  11.563
75620SOL     OW28698  14.377   8.164   9.924
75620SOL    HW128699  14.291   8.188   9.889
75620SOL    HW228700  14.369   8.071   9.945
75621SOL     OW28701  10.015   8.269  13.253
75621SOL    HW128702   9.945   8.225  13.301
75621SOL    HW228703   9.974   8.350  13.221
75622SOL     OW28704  10.307   0.380   4.353
75622SOL    HW128705  10.256   0.453   4.387
75622SOL    HW228706  10.301   0.313   4.422
75623SOL     OW28707   3.374   6.722   4.301
75623SOL    HW128708   3.355   6.812   4.326
75623SOL    HW228709   3.309   6.670   4.348
75624SOL     OW28710  11.169   9.932  13.061
75624SOL    HW128711  11.244   9.989  13.076
75624SOL    HW228712  11.145   9.949  12.970
75625SOL     OW28713   3.295   0.435   2.023
75625SOL    HW128714   3.361   0.502   2.009
75625SOL    HW228715   3.284   0.394   1.937
75626SOL     OW28716   8.223   7.480   9.085
75626SOL    HW128717   8.220   7.481   9.181
75626SOL    HW228718   8.150   7.424   9.059
75627SOL     OW28719   3.289   4.474   0.410
75627SOL    HW128720   3.385   4.479   0.409
75627SOL    HW228721   3.260   4.565   0.403
75628SOL     OW28722   4.002  11.750   1.146
75628SOL    HW128723   3.936  11.695   1.187
75628SOL    HW228724   4.045  11.794   1.219
75629SOL     OW28725  13.640   5.004   5.947
75629SOL    HW128726  13.589   5.015   6.028
75629SOL    HW228727  13.599   4.930   5.903
75630SOL     OW28728   8.046  11.202   9.983
75630SOL    HW128729   8.076  11.171  10.069
75630SOL    HW228730   8.069  11.132   9.923
75631SOL     OW28731   2.904  13.502   4.788
75631SOL    HW128732   2.879  13.570   4.726
75631SOL    HW228733   2.825  13.486   4.840
75632SOL     OW28734   7.098  13.292   2.795
75632SOL    HW128735   7.063  13.225   2.736
75632SOL    HW228736   7.020  13.341   2.824
75633SOL     OW28737  10.726  14.064   9.173
75633SOL    HW128738  10.669  14.120   9.225
75633SOL    HW228739  10.774  14.124   9.116
75634SOL     OW28740   6.392   0.761  12.821
75634SOL    HW128741   6.417   0.728  12.907
75634SOL    HW228742   6.337   0.838  12.840
75635SOL     OW28743   3.859   4.127   4.695
75635SOL    HW128744   3.952   4.118   4.675
75635SOL    HW228745   3.831   4.204   4.646
75636SOL     OW28746   5.969  13.720   5.425
75636SOL    HW128747   5.956  13.810   5.457
75636SOL    HW228748   5.913  13.714   5.347
75637SOL     OW28749   2.911  11.373  14.336
75637SOL    HW128750   2.895  11.333  14.422
75637SOL    HW228751   2.994  11.419  14.347
75638SOL     OW28752   8.834  14.586   9.638
75638SOL    HW128753   8.770  14.651   9.669
75638SOL    HW228754   8.801  14.502   9.672
75639SOL     OW28755   8.819   7.635   3.095
75639SOL    HW128756   8.736   7.638   3.142
75639SOL    HW228757   8.855   7.723   3.104
75640SOL     OW28758   2.449   4.504  14.748
75640SOL    HW128759   2.441   4.459  14.832
75640SOL    HW228760   2.425   4.595  14.767
75641SOL     OW28761  10.681   0.588  13.542
75641SOL    HW128762  10.761   0.629  13.511
75641SOL    HW228763  10.616   0.658  13.542
75642SOL     OW28764   0.993  11.014   3.922
75642SOL    HW128765   0.968  11.107   3.921
75642SOL    HW228766   1.062  11.009   3.988
75643SOL     OW28767   2.104   7.919  12.705
75643SOL    HW128768   2.181   7.949  12.656
75643SOL    HW228769   2.115   7.959  12.792
75644SOL     OW28770   1.573   5.431   4.289
75644SOL    HW128771   1.605   5.375   4.360
75644SOL    HW228772   1.550   5.370   4.219
75645SOL     OW28773   2.765   8.666   3.757
75645SOL    HW128774   2.837   8.613   3.723
75645SOL    HW228775   2.718   8.606   3.816
75646SOL     OW28776   2.341   2.292   5.568
75646SOL    HW128777   2.385   2.237   5.502
75646SOL    HW228778   2.249   2.289   5.543
75647SOL     OW28779   9.546  11.515  13.966
75647SOL    HW128780   9.557  11.510  13.871
75647SOL    HW228781   9.586  11.598  13.990
75648SOL     OW28782  11.638   1.031   5.995
75648SOL    HW128783  11.568   1.032   6.060
75648SOL    HW228784  11.598   0.990   5.918
75649SOL     OW28785   3.191  10.054  11.294
75649SOL    HW128786   3.277  10.078  11.260
75649SOL    HW228787   3.168  10.125  11.354
75650SOL     OW28788   1.623  11.356  14.711
75650SOL    HW128789   1.718  11.361  14.699
75650SOL    HW228790   1.603  11.427  14.772
75651SOL     OW28791   4.911  14.444   5.334
75651SOL    HW128792   4.922  14.489   5.418
75651SOL    HW228793   4.966  14.494   5.273
75652SOL     OW28794   3.594   2.236  10.884
75652SOL    HW128795   3.599   2.215  10.977
75652SOL    HW228796   3.645   2.168  10.841
75653SOL     OW28797   1.349   6.510   2.932
75653SOL    HW128798   1.427   6.566   2.938
75653SOL    HW228799   1.304   6.540   2.853
75654SOL     OW28800  12.357  14.868   0.458
75654SOL    HW128801  12.382   0.056   0.518
75654SOL    HW228802  12.302   0.029   0.393
75655SOL     OW28803  13.035   6.121   6.704
75655SOL    HW128804  13.009   6.095   6.615
75655SOL    HW228805  13.028   6.217   6.703
75656SOL     OW28806   4.892  13.441   6.236
75656SOL    HW128807   4.885  13.454   6.141
75656SOL    HW228808   4.985  13.452   6.255
75657SOL     OW28809  10.066   2.870   2.081
75657SOL    HW128810  10.155   2.868   2.046
75657SOL    HW228811  10.071   2.928   2.157
75658SOL     OW28812   3.623   0.514   4.287
75658SOL    HW128813   3.581   0.464   4.358
75658SOL    HW228814   3.551   0.559   4.244
75659SOL     OW28815  14.351   0.175   6.879
75659SOL    HW128816  14.279   0.204   6.935
75659SOL    HW228817  14.408   0.124   6.937
75660SOL     OW28818   1.566   0.690   1.438
75660SOL    HW128819   1.474   0.713   1.451
75660SOL    HW228820   1.608   0.712   1.521
75661SOL     OW28821   4.635   3.484   1.088
75661SOL    HW128822   4.645   3.503   0.994
75661SOL    HW228823   4.683   3.403   1.101
75662SOL     OW28824   0.820  10.994   9.414
75662SOL    HW128825   0.847  10.918   9.465
75662SOL    HW228826   0.753  11.036   9.468
75663SOL     OW28827   7.711  12.104   3.755
75663SOL    HW128828   7.659  12.100   3.836
75663SOL    HW228829   7.649  12.080   3.686
75664SOL     OW28830   4.304   2.457  12.965
75664SOL    HW128831   4.239   2.478  12.898
75664SOL    HW228832   4.387   2.450  12.916
75665SOL     OW28833   5.167   2.298   2.790
75665SOL    HW128834   5.172   2.316   2.884
75665SOL    HW228835   5.140   2.207   2.784
75666SOL     OW28836   2.201   2.158   7.355
75666SOL    HW128837   2.236   2.118   7.275
75666SOL    HW228838   2.277   2.172   7.411
75667SOL     OW28839   2.382   8.681  14.715
75667SOL    HW128840   2.336   8.669  14.798
75667SOL    HW228841   2.446   8.611  14.712
75668SOL     OW28842  11.236   5.248  11.442
75668SOL    HW128843  11.228   5.343  11.449
75668SOL    HW228844  11.186   5.225  11.364
75669SOL     OW28845   2.422   5.396  12.895
75669SOL    HW128846   2.492   5.461  12.891
75669SOL    HW228847   2.430   5.357  12.982
75670SOL     OW28848   5.388  10.488  11.800
75670SOL    HW128849   5.440  10.420  11.843
75670SOL    HW228850   5.304  10.486  11.847
75671SOL     OW28851  10.102  10.155   6.117
75671SOL    HW128852  10.135  10.095   6.051
75671SOL    HW228853  10.167  10.226   6.119
75672SOL     OW28854   6.576  12.773   4.142
75672SOL    HW128855   6.538  12.795   4.057
75672SOL    HW228856   6.545  12.843   4.201
75673SOL     OW28857   3.802  10.797  14.872
75673SOL    HW128858   3.884  10.746  14.875
75673SOL    HW228859   3.734  10.732  14.856
75674SOL     OW28860   1.160  13.906   0.092
75674SOL    HW128861   1.209  13.833   0.130
75674SOL    HW228862   1.132  13.958   0.167
75675SOL     OW28863   5.025  13.184   9.278
75675SOL    HW128864   4.939  13.166   9.240
75675SOL    HW228865   5.014  13.170   9.372
75676SOL     OW28866  12.442  13.211   6.347
75676SOL    HW128867  12.480  13.141   6.400
75676SOL    HW228868  12.506  13.225   6.277
75677SOL     OW28869  10.345  11.733  13.814
75677SOL    HW128870  10.337  11.813  13.867
75677SOL    HW228871  10.381  11.763  13.731
75678SOL     OW28872  12.048  14.715   2.514
75678SOL    HW128873  12.006  14.794   2.481
75678SOL    HW228874  12.140  14.724   2.489
75679SOL     OW28875   2.650   1.537   1.342
75679SOL    HW128876   2.685   1.448   1.348
75679SOL    HW228877   2.689   1.583   1.417
75680SOL     OW28878   9.484  12.151   7.893
75680SOL    HW128879   9.425  12.084   7.857
75680SOL    HW228880   9.569  12.108   7.895
75681SOL     OW28881   1.402   8.683  11.630
75681SOL    HW128882   1.362   8.769  11.627
75681SOL    HW228883   1.340   8.628  11.678
75682SOL     OW28884   4.939   7.591  12.626
75682SOL    HW128885   4.954   7.646  12.703
75682SOL    HW228886   4.968   7.645  12.552
75683SOL     OW28887   2.931  10.379   2.280
75683SOL    HW128888   2.877  10.458   2.275
75683SOL    HW228889   2.869  10.307   2.268
75684SOL     OW28890   6.970   0.807   6.595
75684SOL    HW128891   6.958   0.900   6.616
75684SOL    HW228892   7.060   0.800   6.563
75685SOL     OW28893   3.743   6.716  12.787
75685SOL    HW128894   3.824   6.719  12.837
75685SOL    HW228895   3.759   6.651  12.718
75686SOL     OW28896  12.259   5.891   6.160
75686SOL    HW128897  12.223   5.891   6.248
75686SOL    HW228898  12.184   5.879   6.102
75687SOL     OW28899   0.754   2.398  14.133
75687SOL    HW128900   0.680   2.459  14.135
75687SOL    HW228901   0.818   2.440  14.076
75688SOL     OW28902   0.255  11.802   8.343
75688SOL    HW128903   0.228  11.807   8.434
75688SOL    HW228904   0.350  11.788   8.347
75689SOL     OW28905  12.851   1.713  10.471
75689SOL    HW128906  12.833   1.623  10.444
75689SOL    HW228907  12.904   1.749  10.400
75690SOL     OW28908  11.437   7.374   2.083
75690SOL    HW128909  11.447   7.460   2.124
75690SOL    HW228910  11.342   7.366   2.069
75691SOL     OW28911   4.428  12.758   1.191
75691SOL    HW128912   4.508  12.795   1.153
75691SOL    HW228913   4.367  12.753   1.118
75692SOL     OW28914   7.035   5.501   2.896
75692SOL    HW128915   6.959   5.446   2.914
75692SOL    HW228916   7.110   5.444   2.912
75693SOL     OW28917   5.114   0.507   4.990
75693SOL    HW128918   5.022   0.488   5.009
75693SOL    HW228919   5.163   0.455   5.054
75694SOL     OW28920   7.259   9.039   2.463
75694SOL    HW128921   7.173   9.051   2.422
75694SOL    HW228922   7.296   8.963   2.419
75695SOL     OW28923   2.046   6.496   1.106
75695SOL    HW128924   2.065   6.429   1.172
75695SOL    HW228925   2.009   6.568   1.157
75696SOL     OW28926   0.995   6.445   9.039
75696SOL    HW128927   0.985   6.531   8.998
75696SOL    HW228928   1.026   6.389   8.968
75697SOL     OW28929   3.055  14.261   9.276
75697SOL    HW128930   3.004  14.205   9.335
75697SOL    HW228931   2.996  14.278   9.203
75698SOL     OW28932  12.997   8.383   0.914
75698SOL    HW128933  12.999   8.301   0.865
75698SOL    HW228934  12.919   8.428   0.881
75699SOL     OW28935   4.728   9.704   7.202
75699SOL    HW128936   4.813   9.716   7.160
75699SOL    HW228937   4.744   9.637   7.269
75700SOL     OW28938   6.615   3.958   3.149
75700SOL    HW128939   6.563   3.878   3.140
75700SOL    HW228940   6.651   3.954   3.237
75701SOL     OW28941   2.426   7.838   3.172
75701SOL    HW128942   2.460   7.837   3.082
75701SOL    HW228943   2.340   7.798   3.165
75702SOL     OW28944   5.946  11.611   2.565
75702SOL    HW128945   5.905  11.632   2.648
75702SOL    HW228946   5.874  11.582   2.509
75703SOL     OW28947   1.337  14.205   1.914
75703SOL    HW128948   1.374  14.158   1.839
75703SOL    HW228949   1.324  14.138   1.981
75704SOL     OW28950  10.538   1.892   4.113
75704SOL    HW128951  10.499   1.925   4.032
75704SOL    HW228952  10.463   1.869   4.168
75705SOL     OW28953   0.512   6.374  14.128
75705SOL    HW128954   0.519   6.406  14.038
75705SOL    HW228955   0.449   6.433  14.169
75706SOL     OW28956   2.234   9.617   9.416
75706SOL    HW128957   2.192   9.610   9.502
75706SOL    HW228958   2.324   9.591   9.432
75707SOL     OW28959  13.398  14.163   9.189
75707SOL    HW128960  13.334  14.093   9.182
75707SOL    HW228961  13.479  14.126   9.154
75708SOL     OW28962   0.405   3.355  10.108
75708SOL    HW128963   0.487   3.360  10.058
75708SOL    HW228964   0.365   3.441  10.096
75709SOL     OW28965   9.407  14.085   1.853
75709SOL    HW128966   9.469  14.051   1.789
75709SOL    HW228967   9.321  14.065   1.816
75710SOL     OW28968   2.082   2.354   5.514
75710SOL    HW128969   2.041   2.351   5.428
75710SOL    HW228970   2.010   2.378   5.574
75711SOL     OW28971   9.092   3.443  13.649
75711SOL    HW128972   9.133   3.372  13.600
75711SOL    HW228973   9.012   3.404  13.685
75712SOL     OW28974   5.585   1.280  10.773
75712SOL    HW128975   5.529   1.356  10.755
75712SOL    HW228976   5.529   1.204  10.755
75713SOL     OW28977  13.189   5.531   7.080
75713SOL    HW128978  13.229   5.600   7.027
75713SOL    HW228979  13.111   5.505   7.030
75714SOL     OW28980   7.463   6.771   8.324
75714SOL    HW128981   7.403   6.837   8.289
75714SOL    HW228982   7.489   6.720   8.248
75715SOL     OW28983   3.040   9.975   8.043
75715SOL    HW128984   3.003   9.926   8.116
75715SOL    HW228985   3.135   9.968   8.056
75716SOL     OW28986   3.911  11.415   1.031
75716SOL    HW128987   3.833  11.471   1.033
75716SOL    HW228988   3.938  11.409   1.123
75717SOL     OW28989   7.675   7.028  13.330
75717SOL    HW128990   7.720   7.021  13.245
75717SOL    HW228991   7.742   7.006  13.394
75718SOL     OW28992   6.548   1.554   6.962
75718SOL    HW128993   6.577   1.472   6.922
75718SOL    HW228994   6.484   1.528   7.028
75719SOL     OW28995  11.162   6.079   3.298
75719SOL    HW128996  11.074   6.073   3.262
75719SOL    HW228997  11.211   6.129   3.232
75720SOL     OW28998   5.995   7.630   3.168
75720SOL    HW128999   6.064   7.669   3.222
75720SOL    HW229000   5.992   7.684   3.090
75721SOL     OW29001   8.903  14.865  14.768
75721SOL    HW129002   8.850  14.843  14.845
75721SOL    HW229003   8.957   0.056  14.797
75722SOL     OW29004   6.622   2.786   8.363
75722SOL    HW129005   6.619   2.758   8.272
75722SOL    HW229006   6.639   2.880   8.359
75723SOL     OW29007   4.810   4.191   6.085
75723SOL    HW129008   4.850   4.244   6.153
75723SOL    HW229009   4.720   4.176   6.115
75724SOL     OW29010   4.150   6.317   1.557
75724SOL    HW129011   4.080   6.259   1.586
75724SOL    HW229012   4.137   6.397   1.609
75725SOL     OW29013   5.108   5.451  12.681
75725SOL    HW129014   5.147   5.527  12.638
75725SOL    HW229015   5.073   5.485  12.763
75726SOL     OW29016   6.735  10.021   7.370
75726SOL    HW129017   6.644   9.994   7.359
75726SOL    HW229018   6.786   9.951   7.330
75727SOL     OW29019   7.092   3.261   5.464
75727SOL    HW129020   6.999   3.258   5.488
75727SOL    HW229021   7.131   3.320   5.528
75728SOL     OW29022  12.466  14.282   8.676
75728SOL    HW129023  12.473  14.316   8.766
75728SOL    HW229024  12.544  14.228   8.665
75729SOL     OW29025  14.795   2.447  11.163
75729SOL    HW129026   0.008   2.449  11.175
75729SOL    HW229027  14.764   2.386  11.230
75730SOL     OW29028  10.436   8.688  11.406
75730SOL    HW129029  10.370   8.750  11.436
75730SOL    HW229030  10.481   8.733  11.335
75731SOL     OW29031  13.950   4.752   5.599
75731SOL    HW129032  14.000   4.690   5.652
75731SOL    HW229033  14.004   4.765   5.521
75732SOL     OW29034   2.813   4.353  10.109
75732SOL    HW129035   2.771   4.327  10.027
75732SOL    HW229036   2.746   4.340  10.176
75733SOL     OW29037   2.618   8.801  10.482
75733SOL    HW129038   2.617   8.864  10.410
75733SOL    HW229039   2.646   8.851  10.558
75734SOL     OW29040   7.692  11.655   2.073
75734SOL    HW129041   7.639  11.589   2.028
75734SOL    HW229042   7.642  11.674   2.153
75735SOL     OW29043   5.559   5.368   9.417
75735SOL    HW129044   5.531   5.443   9.364
75735SOL    HW229045   5.495   5.299   9.397
75736SOL     OW29046  12.799   0.458   1.439
75736SOL    HW129047  12.853   0.406   1.499
75736SOL    HW229048  12.772   0.534   1.491
75737SOL     OW29049   0.919   9.691   2.949
75737SOL    HW129050   0.983   9.696   3.021
75737SOL    HW229051   0.838   9.662   2.990
75738SOL     OW29052   3.706  11.581   1.048
75738SOL    HW129053   3.672  11.647   1.109
75738SOL    HW229054   3.688  11.617   0.962
75739SOL     OW29055   8.447  10.696   2.397
75739SOL    HW129056   8.384  10.681   2.467
75739SOL    HW229057   8.516  10.631   2.412
75740SOL     OW29058   6.686  13.223   2.142
75740SOL    HW129059   6.611  13.268   2.104
75740SOL    HW229060   6.754  13.229   2.075
75741SOL     OW29061  11.948   9.203   1.484
75741SOL    HW129062  11.931   9.281   1.536
75741SOL    HW229063  12.033   9.218   1.443
75742SOL     OW29064   8.116   8.149   8.029
75742SOL    HW129065   8.053   8.079   8.010
75742SOL    HW229066   8.181   8.142   7.959
75743SOL     OW29067   7.517  14.850  11.983
75743SOL    HW129068   7.516  14.853  11.888
75743SOL    HW229069   7.426  14.867  12.009
75744SOL     OW29070   6.205  12.227   2.395
75744SOL    HW129071   6.122  12.250   2.437
75744SOL    HW229072   6.246  12.164   2.455
75745SOL     OW29073  11.750   6.557   9.371
75745SOL    HW129074  11.826   6.544   9.314
75745SOL    HW229075  11.684   6.498   9.337
75746SOL     OW29076  13.481   9.964   9.307
75746SOL    HW129077  13.483   9.869   9.308
75746SOL    HW229078  13.509   9.990   9.394
75747SOL     OW29079   1.841   1.483   8.468
75747SOL    HW129080   1.825   1.510   8.558
75747SOL    HW229081   1.936   1.471   8.463
75748SOL     OW29082   9.715   2.749   1.678
75748SOL    HW129083   9.777   2.734   1.607
75748SOL    HW229084   9.749   2.697   1.751
75749SOL     OW29085   5.285   1.727   7.909
75749SOL    HW129086   5.284   1.647   7.962
75749SOL    HW229087   5.217   1.781   7.947
75750SOL     OW29088  13.509  10.289   4.913
75750SOL    HW129089  13.454  10.234   4.969
75750SOL    HW229090  13.596  10.281   4.950
75751SOL     OW29091   2.835   6.981   7.478
75751SOL    HW129092   2.803   6.935   7.555
75751SOL    HW229093   2.927   6.957   7.472
75752SOL     OW29094  12.545   5.650   0.939
75752SOL    HW129095  12.513   5.599   1.014
75752SOL    HW229096  12.495   5.617   0.865
75753SOL     OW29097   7.529   8.052   9.084
75753SOL    HW129098   7.530   8.130   9.029
75753SOL    HW229099   7.436   8.037   9.103
75754SOL     OW29100   7.168   1.065   4.323
75754SOL    HW129101   7.116   1.144   4.342
75754SOL    HW229102   7.150   1.047   4.231
75755SOL     OW29103  14.503  10.667   7.628
75755SOL    HW129104  14.583  10.634   7.669
75755SOL    HW229105  14.458  10.589   7.595
75756SOL     OW29106   6.523  13.555  14.055
75756SOL    HW129107   6.525  13.642  14.095
75756SOL    HW229108   6.576  13.501  14.114
75757SOL     OW29109   5.852   1.973  13.610
75757SOL    HW129110   5.867   2.058  13.570
75757SOL    HW229111   5.939   1.935  13.620
75758SOL     OW29112   1.332  14.292  13.158
75758SOL    HW129113   1.247  14.317  13.121
75758SOL    HW229114   1.373  14.375  13.182
75759SOL     OW29115   3.220   8.118   1.562
75759SOL    HW129116   3.257   8.047   1.614
75759SOL    HW229117   3.297   8.167   1.531
75760SOL     OW29118   2.851   4.705   7.479
75760SOL    HW129119   2.925   4.644   7.491
75760SOL    HW229120   2.893   4.789   7.458
75761SOL     OW29121   2.268   0.820  13.793
75761SOL    HW129122   2.256   0.899  13.740
75761SOL    HW229123   2.361   0.821  13.817
75762SOL     OW29124  10.207  10.840   3.800
75762SOL    HW129125  10.237  10.810   3.714
75762SOL    HW229126  10.220  10.765   3.858
75763SOL     OW29127   5.224  14.527  10.273
75763SOL    HW129128   5.183  14.553  10.191
75763SOL    HW229129   5.291  14.593  10.289
75764SOL     OW29130   6.710   1.103   5.999
75764SOL    HW129131   6.755   1.092   6.083
75764SOL    HW229132   6.702   1.015   5.964
75765SOL     OW29133  13.782   5.114   6.261
75765SOL    HW129134  13.699   5.162   6.262
75765SOL    HW229135  13.759   5.027   6.294
75766SOL     OW29136   0.453   9.758   6.909
75766SOL    HW129137   0.487   9.730   6.824
75766SOL    HW229138   0.359   9.741   6.904
75767SOL     OW29139  13.165   4.321   1.157
75767SOL    HW129140  13.114   4.399   1.135
75767SOL    HW229141  13.147   4.305   1.249
75768SOL     OW29142   9.949   6.443   7.681
75768SOL    HW129143   9.921   6.393   7.758
75768SOL    HW229144   9.953   6.378   7.610
75769SOL     OW29145   3.567   9.362   4.635
75769SOL    HW129146   3.611   9.283   4.604
75769SOL    HW229147   3.484   9.363   4.588
75770SOL     OW29148   1.509   9.008  13.411
75770SOL    HW129149   1.572   8.936  13.418
75770SOL    HW229150   1.440   8.973  13.354
75771SOL     OW29151   9.692   8.808   5.453
75771SOL    HW129152   9.600   8.780   5.450
75771SOL    HW229153   9.742   8.728   5.435
75772SOL     OW29154   0.803   2.050   2.823
75772SOL    HW129155   0.822   2.081   2.735
75772SOL    HW229156   0.751   1.971   2.809
75773SOL     OW29157   8.846   7.532  13.294
75773SOL    HW129158   8.848   7.438  13.279
75773SOL    HW229159   8.923   7.550  13.349
75774SOL     OW29160   2.694   3.441   7.387
75774SOL    HW129161   2.784   3.447   7.355
75774SOL    HW229162   2.649   3.387   7.323
75775SOL     OW29163  10.124   0.837  13.911
75775SOL    HW129164  10.090   0.766  13.965
75775SOL    HW229165  10.051   0.898  13.901
75776SOL     OW29166   1.485  14.142  13.001
75776SOL    HW129167   1.567  14.117  13.045
75776SOL    HW229168   1.424  14.160  13.073
75777SOL     OW29169   9.779   9.749  13.584
75777SOL    HW129170   9.843   9.820  13.571
75777SOL    HW229171   9.832   9.670  13.587
75778SOL     OW29172  14.597   8.271   0.553
75778SOL    HW129173  14.575   8.239   0.640
75778SOL    HW229174  14.648   8.350   0.568
75779SOL     OW29175   5.469   0.163  11.865
75779SOL    HW129176   5.512   0.224  11.924
75779SOL    HW229177   5.483   0.201  11.778
75780SOL     OW29178  11.932   8.595  10.100
75780SOL    HW129179  11.842   8.624  10.090
75780SOL    HW229180  11.929   8.530  10.170
75781SOL     OW29181   1.914   0.035  10.036
75781SOL    HW129182   1.828   0.077  10.027
75781SOL    HW229183   1.957   0.052   9.952
75782SOL     OW29184   0.003   8.733   2.289
75782SOL    HW129185   0.039   8.750   2.202
75782SOL    HW229186   0.074   8.687   2.335
75783SOL     OW29187   8.391   5.174   5.048
75783SOL    HW129188   8.300   5.190   5.026
75783SOL    HW229189   8.393   5.169   5.143
75784SOL     OW29190  10.021  11.221   4.904
75784SOL    HW129191  10.104  11.260   4.932
75784SOL    HW229192   9.965  11.296   4.884
75785SOL     OW29193   1.665   6.768  12.430
75785SOL    HW129194   1.686   6.686  12.385
75785SOL    HW229195   1.574   6.785  12.409
75786SOL     OW29196   3.593   3.033   5.935
75786SOL    HW129197   3.616   3.116   5.979
75786SOL    HW229198   3.594   3.054   5.842
75787SOL     OW29199  12.671   2.160   9.659
75787SOL    HW129200  12.716   2.092   9.608
75787SOL    HW229201  12.731   2.234   9.658
75788SOL     OW29202  13.808   1.002   5.905
75788SOL    HW129203  13.801   0.941   5.832
75788SOL    HW229204  13.849   1.080   5.867
75789SOL     OW29205   3.408  14.823   9.934
75789SOL    HW129206   3.320  14.852   9.958
75789SOL    HW229207   3.427  14.870   9.852
75790SOL     OW29208  13.515   3.903   0.791
75790SOL    HW129209  13.423   3.905   0.763
75790SOL    HW229210  13.517   3.836   0.860
75791SOL     OW29211  10.438  11.805   6.529
75791SOL    HW129212  10.433  11.898   6.550
75791SOL    HW229213  10.452  11.802   6.435
75792SOL     OW29214  10.746  11.286   6.652
75792SOL    HW129215  10.695  11.298   6.732
75792SOL    HW229216  10.686  11.243   6.591
75793SOL     OW29217   0.632  12.518  13.927
75793SOL    HW129218   0.724  12.539  13.945
75793SOL    HW229219   0.631  12.488  13.836
75794SOL     OW29220  13.190   7.342  10.353
75794SOL    HW129221  13.232   7.306  10.431
75794SOL    HW229222  13.253   7.407  10.321
75795SOL     OW29223  11.151   7.725  14.502
75795SOL    HW129224  11.221   7.715  14.436
75795SOL    HW229225  11.161   7.648  14.558
75796SOL     OW29226  12.099  14.672  12.303
75796SOL    HW129227  12.116  14.701  12.393
75796SOL    HW229228  12.111  14.750  12.250
75797SOL     OW29229  14.476   9.369   2.831
75797SOL    HW129230  14.482   9.363   2.736
75797SOL    HW229231  14.389   9.407   2.847
75798SOL     OW29232   1.068  11.175   5.448
75798SOL    HW129233   1.048  11.082   5.432
75798SOL    HW229234   0.995  11.207   5.500
75799SOL     OW29235   3.349  11.149   2.308
75799SOL    HW129236   3.291  11.194   2.370
75799SOL    HW229237   3.298  11.143   2.227
75800SOL     OW29238   6.111   5.158  10.459
75800SOL    HW129239   6.018   5.138  10.452
75800SOL    HW229240   6.122   5.189  10.548
75801SOL     OW29241  14.443  11.997  13.894
75801SOL    HW129242  14.529  11.983  13.933
75801SOL    HW229243  14.410  12.076  13.937
75802SOL     OW29244  14.681   2.960  14.548
75802SOL    HW129245  14.657   3.050  14.568
75802SOL    HW229246  14.673   2.953  14.453
75803SOL     OW29247   3.155  14.536   2.265
75803SOL    HW129248   3.241  14.573   2.243
75803SOL    HW229249   3.111  14.527   2.181
75804SOL     OW29250   2.050   2.656   4.564
75804SOL    HW129251   2.002   2.703   4.632
75804SOL    HW229252   1.984   2.604   4.519
75805SOL     OW29253  12.007  14.028   5.939
75805SOL    HW129254  12.085  14.034   5.994
75805SOL    HW229255  11.935  14.017   6.002
75806SOL     OW29256   5.853  12.022   7.277
75806SOL    HW129257   5.936  11.988   7.242
75806SOL    HW229258   5.814  11.947   7.323
75807SOL     OW29259   6.852  11.023   5.222
75807SOL    HW129260   6.936  11.016   5.268
75807SOL    HW229261   6.863  10.967   5.145
75808SOL     OW29262  12.752   3.749   0.695
75808SOL    HW129263  12.803   3.732   0.616
75808SOL    HW229264  12.815   3.786   0.756
75809SOL     OW29265  14.599   1.850   1.516
75809SOL    HW129266  14.658   1.796   1.568
75809SOL    HW229267  14.656   1.914   1.474
75810SOL     OW29268   3.265   7.050   6.619
75810SOL    HW129269   3.225   6.965   6.638
75810SOL    HW229270   3.259   7.099   6.701
75811SOL     OW29271   9.802   9.027   6.790
75811SOL    HW129272   9.839   8.942   6.768
75811SOL    HW229273   9.731   9.008   6.851
75812SOL     OW29274   0.491  10.579   3.467
75812SOL    HW129275   0.567  10.603   3.413
75812SOL    HW229276   0.530  10.538   3.545
75813SOL     OW29277   5.454   1.351   5.545
75813SOL    HW129278   5.539   1.384   5.518
75813SOL    HW229279   5.408   1.428   5.579
75814SOL     OW29280   1.473  13.360   8.369
75814SOL    HW129281   1.415  13.377   8.295
75814SOL    HW229282   1.560  13.384   8.337
75815SOL     OW29283   1.949   4.517  12.360
75815SOL    HW129284   1.976   4.436  12.405
75815SOL    HW229285   1.860   4.532  12.391
75816SOL     OW29286   2.913  14.319   2.924
75816SOL    HW129287   2.834  14.268   2.903
75816SOL    HW229288   2.901  14.402   2.878
75817SOL     OW29289   2.414   5.469   0.797
75817SOL    HW129290   2.429   5.417   0.876
75817SOL    HW229291   2.349   5.418   0.748
75818SOL     OW29292  12.592  12.914   4.167
75818SOL    HW129293  12.521  12.850   4.177
75818SOL    HW229294  12.604  12.921   4.072
75819SOL     OW29295   0.138  10.902   9.241
75819SOL    HW129296   0.079  10.955   9.188
75819SOL    HW229297   0.190  10.853   9.178
75820SOL     OW29298   0.059  10.424   3.368
75820SOL    HW129299   0.098  10.511   3.361
75820SOL    HW229300   0.070  10.400   3.460
75821SOL     OW29301   9.561  14.035  14.540
75821SOL    HW129302   9.531  13.954  14.582
75821SOL    HW229303   9.482  14.072  14.501
75822SOL     OW29304   3.659   7.108   5.878
75822SOL    HW129305   3.565   7.090   5.872
75822SOL    HW229306   3.700   7.039   5.826
75823SOL     OW29307  11.788   4.363  14.353
75823SOL    HW129308  11.821   4.353  14.264
75823SOL    HW229309  11.733   4.442  14.350
75824SOL     OW29310   4.378   6.661  14.229
75824SOL    HW129311   4.459   6.701  14.198
75824SOL    HW229312   4.341   6.725  14.290
75825SOL     OW29313  13.284   5.919   0.502
75825SOL    HW129314  13.212   5.880   0.454
75825SOL    HW229315  13.363   5.891   0.456
75826SOL     OW29316  11.979   5.440   1.517
75826SOL    HW129317  11.914   5.451   1.587
75826SOL    HW229318  12.043   5.378   1.552
75827SOL     OW29319   8.082  10.693   5.283
75827SOL    HW129320   8.176  10.691   5.269
75827SOL    HW229321   8.064  10.781   5.319
75828SOL     OW29322   4.935   3.330  11.463
75828SOL    HW129323   4.908   3.381  11.539
75828SOL    HW229324   5.030   3.318  11.475
75829SOL     OW29325   7.420  12.519   3.961
75829SOL    HW129326   7.376  12.578   3.900
75829SOL    HW229327   7.495  12.486   3.912
75830SOL     OW29328  13.095   2.115  10.891
75830SOL    HW129329  13.129   2.025  10.890
75830SOL    HW229330  13.169   2.169  10.863
75831SOL     OW29331   4.904   6.082   6.564
75831SOL    HW129332   4.874   6.173   6.560
75831SOL    HW229333   4.924   6.060   6.473
75832SOL     OW29334   8.733   6.763   4.815
75832SOL    HW129335   8.687   6.704   4.875
75832SOL    HW229336   8.731   6.848   4.858
75833SOL     OW29337   4.263   9.706   4.221
75833SOL    HW129338   4.305   9.750   4.148
75833SOL    HW229339   4.335   9.671   4.274
75834SOL     OW29340  11.410  11.778   2.515
75834SOL    HW129341  11.345  11.715   2.546
75834SOL    HW229342  11.366  11.826   2.445
75835SOL     OW29343  11.580   6.305   3.235
75835SOL    HW129344  11.602   6.394   3.265
75835SOL    HW229345  11.638   6.248   3.286
75836SOL     OW29346   5.731   3.208   7.544
75836SOL    HW129347   5.786   3.135   7.513
75836SOL    HW229348   5.665   3.219   7.475
75837SOL     OW29349  14.195   6.720   8.767
75837SOL    HW129350  14.217   6.717   8.673
75837SOL    HW229351  14.192   6.628   8.794
75838SOL     OW29352   2.054   1.679   8.209
75838SOL    HW129353   2.080   1.714   8.295
75838SOL    HW229354   2.018   1.754   8.163
75839SOL     OW29355  14.541   7.945   2.123
75839SOL    HW129356  14.546   7.861   2.168
75839SOL    HW229357  14.512   8.007   2.190
75840SOL     OW29358   4.785   5.941   4.989
75840SOL    HW129359   4.720   6.008   4.965
75840SOL    HW229360   4.782   5.879   4.917
75841SOL     OW29361   4.453   0.772   0.177
75841SOL    HW129362   4.541   0.796   0.206
75841SOL    HW229363   4.442   0.680   0.205
75842SOL     OW29364  11.884  11.552   4.107
75842SOL    HW129365  11.875  11.647   4.108
75842SOL    HW229366  11.823  11.522   4.175
75843SOL     OW29367   0.668  14.304  10.091
75843SOL    HW129368   0.584  14.335  10.125
75843SOL    HW229369   0.699  14.241  10.157
75844SOL     OW29370   1.000   0.034   8.015
75844SOL    HW129371   0.947   0.023   8.094
75844SOL    HW229372   1.016   0.128   8.010
75845SOL     OW29373   2.854  14.343  12.857
75845SOL    HW129374   2.906  14.418  12.885
75845SOL    HW229375   2.828  14.364  12.767
75846SOL     OW29376  12.683   6.557  14.320
75846SOL    HW129377  12.599   6.528  14.284
75846SOL    HW229378  12.714   6.483  14.371
75847SOL     OW29379  11.186   0.706  13.530
75847SOL    HW129380  11.174   0.785  13.582
75847SOL    HW229381  11.187   0.737  13.439
75848SOL     OW29382  13.025  13.446  13.894
75848SOL    HW129383  13.069  13.436  13.810
75848SOL    HW229384  12.985  13.533  13.891
75849SOL     OW29385   3.644  13.916  11.911
75849SOL    HW129386   3.559  13.926  11.869
75849SOL    HW229387   3.658  13.821  11.916
75850SOL     OW29388  14.748  12.792   4.733
75850SOL    HW129389  14.696  12.872   4.725
75850SOL    HW229390  14.790  12.800   4.818
75851SOL     OW29391   1.992  14.578   4.727
75851SOL    HW129392   2.051  14.569   4.653
75851SOL    HW229393   1.959  14.490   4.743
75852SOL     OW29394   4.545   1.396  14.794
75852SOL    HW129395   4.561   1.405   0.006
75852SOL    HW229396   4.525   1.484  14.764
75853SOL     OW29397   6.521   5.246  13.070
75853SOL    HW129398   6.489   5.329  13.033
75853SOL    HW229399   6.445   5.188  13.067
75854SOL     OW29400   1.049   2.993   9.127
75854SOL    HW129401   1.060   2.918   9.186
75854SOL    HW229402   1.048   3.069   9.185
75855SOL     OW29403  10.943  13.163  12.733
75855SOL    HW129404  11.000  13.087  12.726
75855SOL    HW229405  10.943  13.202  12.646
75856SOL     OW29406   7.566   4.230   3.641
75856SOL    HW129407   7.649   4.277   3.633
75856SOL    HW229408   7.542   4.208   3.551
75857SOL     OW29409  14.262  14.363   2.564
75857SOL    HW129410  14.198  14.394   2.501
75857SOL    HW229411  14.214  14.357   2.646
75858SOL     OW29412   4.446   5.555  10.942
75858SOL    HW129413   4.435   5.473  10.895
75858SOL    HW229414   4.502   5.532  11.017
75859SOL     OW29415   4.116   6.414  13.619
75859SOL    HW129416   4.118   6.507  13.594
75859SOL    HW229417   4.173   6.409  13.696
75860SOL     OW29418  13.669  14.611  10.490
75860SOL    HW129419  13.602  14.550  10.519
75860SOL    HW229420  13.748  14.558  10.480
75861SOL     OW29421   2.568   8.468  12.795
75861SOL    HW129422   2.584   8.535  12.729
75861SOL    HW229423   2.647   8.469  12.850
75862SOL     OW29424   3.131  12.656   1.869
75862SOL    HW129425   3.059  12.670   1.930
75862SOL    HW229426   3.156  12.564   1.881
75863SOL     OW29427   7.078   0.656  10.697
75863SOL    HW129428   7.060   0.640  10.789
75863SOL    HW229429   7.100   0.570  10.662
75864SOL     OW29430   9.310   1.785   0.067
75864SOL    HW129431   9.311   1.697   0.105
75864SOL    HW229432   9.239   1.781   0.003
75865SOL     OW29433  11.259  14.494  13.229
75865SOL    HW129434  11.178  14.546  13.231
75865SOL    HW229435  11.318  14.541  13.288
75866SOL     OW29436   2.753   2.913   8.040
75866SOL    HW129437   2.839   2.907   7.998
75866SOL    HW229438   2.742   3.007   8.058
75867SOL     OW29439  12.733   4.265  11.247
75867SOL    HW129440  12.668   4.216  11.298
75867SOL    HW229441  12.687   4.289  11.167
75868SOL     OW29442  10.083  14.861  12.678
75868SOL    HW129443  10.060  14.778  12.636
75868SOL    HW229444  10.028  14.864  12.756
75869SOL     OW29445   9.797   4.888   4.516
75869SOL    HW129446   9.741   4.956   4.553
75869SOL    HW229447   9.743   4.809   4.516
75870SOL     OW29448   7.430  12.248  13.407
75870SOL    HW129449   7.411  12.258  13.500
75870SOL    HW229450   7.356  12.198  13.373
75871SOL     OW29451   3.036  10.191  11.516
75871SOL    HW129452   3.118  10.144  11.528
75871SOL    HW229453   2.971  10.123  11.496
75872SOL     OW29454  11.957  10.157   3.153
75872SOL    HW129455  11.924  10.216   3.220
75872SOL    HW229456  11.976  10.215   3.078
75873SOL     OW29457   5.248   3.653   7.841
75873SOL    HW129458   5.294   3.665   7.925
75873SOL    HW229459   5.312   3.682   7.776
75874SOL     OW29460   1.762   2.728   1.701
75874SOL    HW129461   1.740   2.821   1.695
75874SOL    HW229462   1.679   2.682   1.686
75875SOL     OW29463   0.659  11.742   6.935
75875SOL    HW129464   0.583  11.721   6.880
75875SOL    HW229465   0.686  11.829   6.907
75876SOL     OW29466   4.974   6.872   1.811
75876SOL    HW129467   4.956   6.946   1.753
75876SOL    HW229468   5.053   6.897   1.858
75877SOL     OW29469   5.138  13.072   6.688
75877SOL    HW129470   5.092  13.054   6.770
75877SOL    HW229471   5.104  13.157   6.660
75878SOL     OW29472   1.340   0.891   3.538
75878SOL    HW129473   1.360   0.904   3.445
75878SOL    HW229474   1.424   0.866   3.576
75879SOL     OW29475  14.043   3.675   4.529
75879SOL    HW129476  14.044   3.687   4.624
75879SOL    HW229477  13.950   3.682   4.505
75880SOL     OW29478   2.799  14.371   4.538
75880SOL    HW129479   2.704  14.363   4.537
75880SOL    HW229480   2.816  14.462   4.511
75881SOL     OW29481  12.608   3.488  12.106
75881SOL    HW129482  12.568   3.444  12.181
75881SOL    HW229483  12.694   3.448  12.097
75882SOL     OW29484   3.859  11.585  14.313
75882SOL    HW129485   3.875  11.511  14.371
75882SOL    HW229486   3.941  11.597  14.265
75883SOL     OW29487   5.560   7.294   8.783
75883SOL    HW129488   5.512   7.306   8.701
75883SOL    HW229489   5.620   7.222   8.765
75884SOL     OW29490   2.471   7.654   1.991
75884SOL    HW129491   2.517   7.639   2.074
75884SOL    HW229492   2.450   7.566   1.960
75885SOL     OW29493   1.555   9.451   3.004
75885SOL    HW129494   1.557   9.482   2.913
75885SOL    HW229495   1.614   9.376   3.005
75886SOL     OW29496  12.302   4.200   1.865
75886SOL    HW129497  12.256   4.264   1.919
75886SOL    HW229498  12.287   4.116   1.909
75887SOL     OW29499  10.418   2.263  10.073
75887SOL    HW129500  10.418   2.169  10.061
75887SOL    HW229501  10.351   2.279  10.139
75888SOL     OW29502  14.594   4.263  14.398
75888SOL    HW129503  14.597   4.244  14.305
75888SOL    HW229504  14.552   4.349  14.404
75889SOL     OW29505   5.439  12.933  13.423
75889SOL    HW129506   5.435  12.837  13.426
75889SOL    HW229507   5.364  12.958  13.368
75890SOL     OW29508   9.571  12.268  12.529
75890SOL    HW129509   9.553  12.200  12.594
75890SOL    HW229510   9.648  12.314  12.562
75891SOL     OW29511   1.318   6.708  10.804
75891SOL    HW129512   1.237   6.685  10.758
75891SOL    HW229513   1.293   6.781  10.861
75892SOL     OW29514  14.626  14.481   1.698
75892SOL    HW129515  14.553  14.498   1.758
75892SOL    HW229516  14.672  14.565   1.691
75893SOL     OW29517   0.816  11.949   0.011
75893SOL    HW129518   0.807  11.877  14.831
75893SOL    HW229519   0.871  11.913   0.081
75894SOL     OW29520  13.366   4.440   0.410
75894SOL    HW129521  13.405   4.357   0.439
75894SOL    HW229522  13.320   4.473   0.487
75895SOL     OW29523  10.545  11.136  11.682
75895SOL    HW129524  10.602  11.197  11.634
75895SOL    HW229525  10.602  11.100  11.750
75896SOL     OW29526   2.687   5.139   9.596
75896SOL    HW129527   2.750   5.092   9.650
75896SOL    HW229528   2.664   5.216   9.647
75897SOL     OW29529   3.063   0.413   9.000
75897SOL    HW129530   3.044   0.327   8.963
75897SOL    HW229531   3.159   0.418   9.002
75898SOL     OW29532  10.535  12.397   1.115
75898SOL    HW129533  10.456  12.426   1.160
75898SOL    HW229534  10.605  12.450   1.155
75899SOL     OW29535   5.847   9.207  14.087
75899SOL    HW129536   5.907   9.274  14.119
75899SOL    HW229537   5.787   9.255  14.030
75900SOL     OW29538  14.365   0.336   0.328
75900SOL    HW129539  14.358   0.431   0.335
75900SOL    HW229540  14.277   0.308   0.302
75901SOL     OW29541   2.936   0.563   0.176
75901SOL    HW129542   2.866   0.617   0.213
75901SOL    HW229543   2.904   0.473   0.185
75902SOL     OW29544   9.202   5.408  11.484
75902SOL    HW129545   9.219   5.323  11.524
75902SOL    HW229546   9.127   5.393  11.426
75903SOL     OW29547   0.588   7.509  10.622
75903SOL    HW129548   0.554   7.503  10.711
75903SOL    HW229549   0.565   7.598  10.594
75904SOL     OW29550   6.276   3.399  10.713
75904SOL    HW129551   6.224   3.368  10.787
75904SOL    HW229552   6.253   3.341  10.641
75905SOL     OW29553   0.156   8.916   9.220
75905SOL    HW129554   0.226   8.901   9.156
75905SOL    HW229555   0.163   9.008   9.243
75906SOL     OW29556   0.059  13.136  12.939
75906SOL    HW129557   0.032  13.167  13.026
75906SOL    HW229558   0.008  13.057  12.925
75907SOL     OW29559  10.480   4.113   9.162
75907SOL    HW129560  10.385   4.106   9.169
75907SOL    HW229561  10.507   4.033   9.118
75908SOL     OW29562  11.639  11.750  12.400
75908SOL    HW129563  11.587  11.829  12.383
75908SOL    HW229564  11.625  11.695  12.323
75909SOL     OW29565   4.310   0.292   6.042
75909SOL    HW129566   4.382   0.354   6.037
75909SOL    HW229567   4.251   0.317   5.971
75910SOL     OW29568   1.580   9.003   0.757
75910SOL    HW129569   1.655   8.945   0.740
75910SOL    HW229570   1.589   9.028   0.848
75911SOL     OW29571   8.713   4.618   0.246
75911SOL    HW129572   8.794   4.608   0.197
75911SOL    HW229573   8.718   4.550   0.314
75912SOL     OW29574  12.822   9.201   4.061
75912SOL    HW129575  12.881   9.206   4.137
75912SOL    HW229576  12.748   9.149   4.091
75913SOL     OW29577  11.020   6.426   0.951
75913SOL    HW129578  11.084   6.456   0.887
75913SOL    HW229579  11.053   6.341   0.980
75914SOL     OW29580   9.704   0.157   4.586
75914SOL    HW129581   9.695   0.252   4.594
75914SOL    HW229582   9.728   0.128   4.674
75915SOL     OW29583   4.503  10.484   6.029
75915SOL    HW129584   4.527  10.577   6.030
75915SOL    HW229585   4.554  10.446   5.958
75916SOL     OW29586   7.047  10.911   1.920
75916SOL    HW129587   7.093  10.890   1.838
75916SOL    HW229588   6.988  10.837   1.934
75917SOL     OW29589   3.727   8.135   5.726
75917SOL    HW129590   3.637   8.168   5.731
75917SOL    HW229591   3.724   8.064   5.662
75918SOL     OW29592   4.881   3.294   9.687
75918SOL    HW129593   4.821   3.285   9.761
75918SOL    HW229594   4.968   3.299   9.727
75919SOL     OW29595   7.765   7.296  13.409
75919SOL    HW129596   7.746   7.220  13.352
75919SOL    HW229597   7.692   7.299  13.470
75920SOL     OW29598   5.695   2.792   3.840
75920SOL    HW129599   5.650   2.785   3.925
75920SOL    HW229600   5.675   2.710   3.796
75921SOL     OW29601   9.439   6.534   7.728
75921SOL    HW129602   9.386   6.613   7.735
75921SOL    HW229603   9.521   6.564   7.689
75922SOL     OW29604   4.232   2.172   2.085
75922SOL    HW129605   4.181   2.091   2.082
75922SOL    HW229606   4.320   2.146   2.057
75923SOL     OW29607   4.607  11.606  12.951
75923SOL    HW129608   4.643  11.610  12.863
75923SOL    HW229609   4.648  11.529  12.991
75924SOL     OW29610   1.753  10.012   6.827
75924SOL    HW129611   1.808  10.069   6.772
75924SOL    HW229612   1.667  10.015   6.786
75925SOL     OW29613  12.685   6.896   4.200
75925SOL    HW129614  12.670   6.986   4.229
75925SOL    HW229615  12.780   6.891   4.185
75926SOL     OW29616   7.793  12.474  11.325
75926SOL    HW129617   7.814  12.436  11.410
75926SOL    HW229618   7.772  12.398  11.270
75927SOL     OW29619  12.867   1.091   3.602
75927SOL    HW129620  12.915   1.036   3.663
75927SOL    HW229621  12.926   1.102   3.527
75928SOL     OW29622   0.637   9.001   8.843
75928SOL    HW129623   0.696   8.988   8.918
75928SOL    HW229624   0.696   9.020   8.770
75929SOL     OW29625   8.286   6.801   3.833
75929SOL    HW129626   8.199   6.790   3.871
75929SOL    HW229627   8.273   6.859   3.758
75930SOL     OW29628  12.590   6.047   7.115
75930SOL    HW129629  12.628   6.124   7.073
75930SOL    HW229630  12.656   5.978   7.103
75931SOL     OW29631  13.018   1.564   9.503
75931SOL    HW129632  12.982   1.517   9.578
75931SOL    HW229633  13.096   1.513   9.478
75932SOL     OW29634  10.031   8.216   1.172
75932SOL    HW129635   9.951   8.230   1.120
75932SOL    HW229636  10.063   8.131   1.145
75933SOL     OW29637   6.483   8.752   9.740
75933SOL    HW129638   6.567   8.716   9.713
75933SOL    HW229639   6.421   8.680   9.729
75934SOL     OW29640   5.256   6.317  13.188
75934SOL    HW129641   5.306   6.358  13.117
75934SOL    HW229642   5.247   6.226  13.161
75935SOL     OW29643   8.057   0.718  14.539
75935SOL    HW129644   8.151   0.720  14.523
75935SOL    HW229645   8.018   0.743  14.456
75936SOL     OW29646   6.126  14.598   7.660
75936SOL    HW129647   6.184  14.670   7.684
75936SOL    HW229648   6.052  14.641   7.617
75937SOL     OW29649   7.081   6.808   7.199
75937SOL    HW129650   7.018   6.828   7.129
75937SOL    HW229651   7.154   6.867   7.182
75938SOL     OW29652  10.549   0.269   9.600
75938SOL    HW129653  10.576   0.185   9.563
75938SOL    HW229654  10.575   0.334   9.534
75939SOL     OW29655   9.982   5.557  13.070
75939SOL    HW129656  10.024   5.544  13.155
75939SOL    HW229657   9.925   5.481  13.060
75940SOL     OW29658   1.539   7.545  10.560
75940SOL    HW129659   1.572   7.590  10.482
75940SOL    HW229660   1.507   7.615  10.616
75941SOL     OW29661  10.564   2.888  10.315
75941SOL    HW129662  10.571   2.796  10.292
75941SOL    HW229663  10.530   2.931  10.237
75942SOL     OW29664  11.855   2.890   5.012
75942SOL    HW129665  11.786   2.873   5.077
75942SOL    HW229666  11.937   2.881   5.061
75943SOL     OW29667  13.463   6.190   1.568
75943SOL    HW129668  13.454   6.113   1.623
75943SOL    HW229669  13.538   6.238   1.605
75944SOL     OW29670   6.876   8.667   6.092
75944SOL    HW129671   6.812   8.596   6.089
75944SOL    HW229672   6.959   8.624   6.111
75945SOL     OW29673  13.499  14.240  14.394
75945SOL    HW129674  13.517  14.162  14.446
75945SOL    HW229675  13.404  14.245  14.389
75946SOL     OW29676  11.004   5.473  12.137
75946SOL    HW129677  10.934   5.538  12.140
75946SOL    HW229678  10.962   5.391  12.161
75947SOL     OW29679  11.681  12.173   4.974
75947SOL    HW129680  11.760  12.123   4.996
75947SOL    HW229681  11.652  12.208   5.058
75948SOL     OW29682  11.324  14.206   4.422
75948SOL    HW129683  11.241  14.250   4.405
75948SOL    HW229684  11.338  14.216   4.517
75949SOL     OW29685  11.212   3.094  14.454
75949SOL    HW129686  11.254   3.046  14.383
75949SOL    HW229687  11.262   3.071  14.532
75950SOL     OW29688  13.796  11.209   2.537
75950SOL    HW129689  13.800  11.273   2.609
75950SOL    HW229690  13.777  11.126   2.581
75951SOL     OW29691   5.798   9.245  12.001
75951SOL    HW129692   5.731   9.220  12.065
75951SOL    HW229693   5.749   9.286  11.930
75952SOL     OW29694  14.714   6.004   5.983
75952SOL    HW129695  14.699   5.937   6.050
75952SOL    HW229696  14.784   5.968   5.928
75953SOL     OW29697   8.240   8.907   7.222
75953SOL    HW129698   8.301   8.981   7.227
75953SOL    HW229699   8.288   8.840   7.174
75954SOL     OW29700   5.975  11.966   1.080
75954SOL    HW129701   6.064  11.931   1.072
75954SOL    HW229702   5.974  12.041   1.021
75955SOL     OW29703   5.509  13.219  11.532
75955SOL    HW129704   5.471  13.158  11.469
75955SOL    HW229705   5.600  13.229  11.504
75956SOL     OW29706  10.371  10.054   6.465
75956SOL    HW129707  10.414   9.986   6.413
75956SOL    HW229708  10.317  10.005   6.527
75957SOL     OW29709   3.631  11.498   6.621
75957SOL    HW129710   3.536  11.499   6.618
75957SOL    HW229711   3.653  11.542   6.703
75958SOL     OW29712   7.732   9.936  10.777
75958SOL    HW129713   7.637   9.929  10.771
75958SOL    HW229714   7.755   9.886  10.855
75959SOL     OW29715   8.859  14.632   5.223
75959SOL    HW129716   8.881  14.659   5.312
75959SOL    HW229717   8.900  14.698   5.167
75960SOL     OW29718  10.700   8.022  12.877
75960SOL    HW129719  10.737   8.084  12.940
75960SOL    HW229720  10.766   7.953  12.868
75961SOL     OW29721   4.626  10.642  10.687
75961SOL    HW129722   4.621  10.547  10.691
75961SOL    HW229723   4.565  10.673  10.754
75962SOL     OW29724  10.433  13.205  10.492
75962SOL    HW129725  10.433  13.173  10.401
75962SOL    HW229726  10.354  13.259  10.498
75963SOL     OW29727   1.071   8.233   9.479
75963SOL    HW129728   1.144   8.183   9.443
75963SOL    HW229729   0.996   8.175   9.472
75964SOL     OW29730  12.848   3.681   9.695
75964SOL    HW129731  12.755   3.683   9.672
75964SOL    HW229732  12.864   3.591   9.726
75965SOL     OW29733   3.283  14.722  13.753
75965SOL    HW129734   3.308  14.651  13.694
75965SOL    HW229735   3.361  14.776  13.762
75966SOL     OW29736   8.516   8.974  10.509
75966SOL    HW129737   8.605   8.950  10.534
75966SOL    HW229738   8.468   8.892  10.509
75967SOL     OW29739   8.248   4.950   9.337
75967SOL    HW129740   8.225   5.009   9.409
75967SOL    HW229741   8.174   4.957   9.276
75968SOL     OW29742   7.491   2.934  11.020
75968SOL    HW129743   7.511   3.000  10.953
75968SOL    HW229744   7.397   2.919  11.011
75969SOL     OW29745   5.379   6.320   6.982
75969SOL    HW129746   5.374   6.225   6.993
75969SOL    HW229747   5.465   6.336   6.945
75970SOL     OW29748   9.573  12.148   4.529
75970SOL    HW129749   9.588  12.196   4.448
75970SOL    HW229750   9.565  12.216   4.596
75971SOL     OW29751   6.501   9.793  10.827
75971SOL    HW129752   6.537   9.878  10.802
75971SOL    HW229753   6.456   9.809  10.910
75972SOL     OW29754  14.268   4.502   6.138
75972SOL    HW129755  14.234   4.448   6.067
75972SOL    HW229756  14.363   4.504   6.124
75973SOL     OW29757   1.339   2.423  10.049
75973SOL    HW129758   1.258   2.436  10.000
75973SOL    HW229759   1.398   2.491  10.016
75974SOL     OW29760   9.216  10.200   2.208
75974SOL    HW129761   9.182  10.187   2.119
75974SOL    HW229762   9.311  10.193   2.199
75975SOL     OW29763  10.413   2.183   6.093
75975SOL    HW129764  10.397   2.224   6.178
75975SOL    HW229765  10.506   2.160   6.096
75976SOL     OW29766   3.847   1.716   2.618
75976SOL    HW129767   3.766   1.664   2.610
75976SOL    HW229768   3.858   1.755   2.531
75977SOL     OW29769  14.649   1.837   8.398
75977SOL    HW129770  14.573   1.893   8.409
75977SOL    HW229771  14.697   1.845   8.481
75978SOL     OW29772   3.217  13.035  13.972
75978SOL    HW129773   3.303  13.060  14.005
75978SOL    HW229774   3.233  13.011  13.880
75979SOL     OW29775   9.193   0.016  14.227
75979SOL    HW129776   9.187  14.804  14.212
75979SOL    HW229777   9.268   0.026  14.287
75980SOL     OW29778  10.872  10.809  14.832
75980SOL    HW129779  10.820  10.866   0.007
75980SOL    HW229780  10.962  10.836  14.847
75981SOL     OW29781  10.390   2.211   8.566
75981SOL    HW129782  10.439   2.209   8.484
75981SOL    HW229783  10.381   2.304   8.587
75982SOL     OW29784   1.459  14.713   8.249
75982SOL    HW129785   1.482  14.708   8.342
75982SOL    HW229786   1.418  14.799   8.240
75983SOL     OW29787  10.602   8.758   1.617
75983SOL    HW129788  10.626   8.849   1.633
75983SOL    HW229789  10.514   8.762   1.580
75984SOL     OW29790   6.354   0.385  13.899
75984SOL    HW129791   6.378   0.319  13.964
75984SOL    HW229792   6.438   0.420  13.869
75985SOL     OW29793   4.165  11.245   8.773
75985SOL    HW129794   4.133  11.157   8.793
75985SOL    HW229795   4.225  11.265   8.845
75986SOL     OW29796  13.441  10.413   0.531
75986SOL    HW129797  13.407  10.485   0.479
75986SOL    HW229798  13.390  10.337   0.503
75987SOL     OW29799   6.206  13.217   3.553
75987SOL    HW129800   6.272  13.257   3.610
75987SOL    HW229801   6.123  13.238   3.597
75988SOL     OW29802   0.820   1.052   7.219
75988SOL    HW129803   0.892   0.990   7.231
75988SOL    HW229804   0.864   1.137   7.210
75989SOL     OW29805   0.498   1.809   4.877
75989SOL    HW129806   0.575   1.813   4.934
75989SOL    HW229807   0.508   1.883   4.817
75990SOL     OW29808   9.679   6.610  11.945
75990SOL    HW129809   9.765   6.588  11.908
75990SOL    HW229810   9.670   6.704  11.929
75991SOL     OW29811   0.558   5.368  12.165
75991SOL    HW129812   0.535   5.281  12.132
75991SOL    HW229813   0.618   5.352  12.237
75992SOL     OW29814  14.312  10.773  11.875
75992SOL    HW129815  14.403  10.792  11.850
75992SOL    HW229816  14.261  10.837  11.826
75993SOL     OW29817  11.012  13.358  14.610
75993SOL    HW129818  11.093  13.310  14.626
75993SOL    HW229819  11.032  13.448  14.632
75994SOL     OW29820  11.875   1.892   0.394
75994SOL    HW129821  11.865   1.920   0.486
75994SOL    HW229822  11.789   1.859   0.369
75995SOL     OW29823   9.692   4.903   6.810
75995SOL    HW129824   9.708   4.991   6.844
75995SOL    HW229825   9.779   4.862   6.805
75996SOL     OW29826   6.468  10.087   7.612
75996SOL    HW129827   6.469   9.995   7.638
75996SOL    HW229828   6.376  10.109   7.603
75997SOL     OW29829   2.051  14.573  12.292
75997SOL    HW129830   2.120  14.537  12.348
75997SOL    HW229831   1.998  14.498  12.268
75998SOL     OW29832   0.624   4.239   4.018
75998SOL    HW129833   0.664   4.205   3.939
75998SOL    HW229834   0.686   4.303   4.052
75999SOL     OW29835   7.587   2.832  11.805
75999SOL    HW129836   7.492   2.830  11.788
75999SOL    HW229837   7.594   2.857  11.897
76000SOL     OW29838   3.942  10.861   3.210
76000SOL    HW129839   3.876  10.918   3.250
76000SOL    HW229840   3.892  10.785   3.178
76001SOL     OW29841  13.558   3.172   4.630
76001SOL    HW129842  13.493   3.235   4.598
76001SOL    HW229843  13.532   3.089   4.590
76002SOL     OW29844   7.961   6.324  13.187
76002SOL    HW129845   7.887   6.267  13.165
76002SOL    HW229846   7.985   6.366  13.104
76003SOL     OW29847  10.242  14.133  11.223
76003SOL    HW129848  10.273  14.224  11.223
76003SOL    HW229849  10.309  14.085  11.273
76004SOL     OW29850   3.477  14.548   1.147
76004SOL    HW129851   3.547  14.603   1.113
76004SOL    HW229852   3.467  14.478   1.082
76005SOL     OW29853   7.662   3.659   9.834
76005SOL    HW129854   7.665   3.749   9.867
76005SOL    HW229855   7.607   3.612   9.897
76006SOL     OW29856   7.802   0.860  10.855
76006SOL    HW129857   7.808   0.786  10.915
76006SOL    HW229858   7.880   0.852  10.799
76007SOL     OW29859   2.106   8.608   0.820
76007SOL    HW129860   2.191   8.646   0.842
76007SOL    HW229861   2.114   8.583   0.728
76008SOL     OW29862   5.639  13.887   9.845
76008SOL    HW129863   5.651  13.938   9.926
76008SOL    HW229864   5.670  13.945   9.776
76009SOL     OW29865   8.463  11.324   4.855
76009SOL    HW129866   8.473  11.363   4.768
76009SOL    HW229867   8.427  11.394   4.909
76010SOL     OW29868   3.374   9.987   5.995
76010SOL    HW129869   3.364   9.897   6.026
76010SOL    HW229870   3.285  10.021   5.989
76011SOL     OW29871   7.906   1.178  10.239
76011SOL    HW129872   7.940   1.263  10.209
76011SOL    HW229873   7.975   1.116  10.218
76012SOL     OW29874   5.868   5.355   2.515
76012SOL    HW129875   5.821   5.432   2.484
76012SOL    HW229876   5.898   5.311   2.436
76013SOL     OW29877   5.202   6.778   8.659
76013SOL    HW129878   5.247   6.758   8.741
76013SOL    HW229879   5.161   6.863   8.675
76014SOL     OW29880   5.484   0.226  13.171
76014SOL    HW129881   5.502   0.207  13.263
76014SOL    HW229882   5.401   0.182  13.152
76015SOL     OW29883   2.655  10.025   9.021
76015SOL    HW129884   2.718   9.958   8.995
76015SOL    HW229885   2.675  10.100   8.965
76016SOL     OW29886   2.052  11.429   3.583
76016SOL    HW129887   2.057  11.450   3.490
76016SOL    HW229888   2.143  11.413   3.609
76017SOL     OW29889   4.639   7.329   1.036
76017SOL    HW129890   4.647   7.339   0.941
76017SOL    HW229891   4.579   7.256   1.048
76018SOL     OW29892   1.575   1.831  10.817
76018SOL    HW129893   1.523   1.751  10.830
76018SOL    HW229894   1.634   1.811  10.745
76019SOL     OW29895   9.353   4.267  14.469
76019SOL    HW129896   9.305   4.323  14.531
76019SOL    HW229897   9.315   4.288  14.384
76020SOL     OW29898  14.531  13.361   2.653
76020SOL    HW129899  14.488  13.415   2.720
76020SOL    HW229900  14.542  13.420   2.579
76021SOL     OW29901   2.259   3.077   1.243
76021SOL    HW129902   2.290   3.100   1.331
76021SOL    HW229903   2.209   2.997   1.256
76022SOL     OW29904   4.340  12.314  11.521
76022SOL    HW129905   4.316  12.221  11.521
76022SOL    HW229906   4.421  12.318  11.572
76023SOL     OW29907   4.034   1.018  13.405
76023SOL    HW129908   4.013   0.926  13.394
76023SOL    HW229909   4.089   1.039  13.330
76024SOL     OW29910   5.291   6.699   7.864
76024SOL    HW129911   5.317   6.784   7.828
76024SOL    HW229912   5.361   6.640   7.839
76025SOL     OW29913  13.900   4.949  12.858
76025SOL    HW129914  13.851   4.999  12.922
76025SOL    HW229915  13.920   4.866  12.901
76026SOL     OW29916   5.533   6.784   9.698
76026SOL    HW129917   5.595   6.811   9.631
76026SOL    HW229918   5.448   6.813   9.665
76027SOL     OW29919   9.262   8.415  13.317
76027SOL    HW129920   9.202   8.486  13.339
76027SOL    HW229921   9.348   8.446  13.346
76028SOL     OW29922   3.087   8.853  10.899
76028SOL    HW129923   3.101   8.854  10.994
76028SOL    HW229924   3.027   8.925  10.883
76029SOL     OW29925   7.823  10.804   1.092
76029SOL    HW129926   7.865  10.746   1.155
76029SOL    HW229927   7.729  10.790   1.105
76030SOL     OW29928   2.207   9.438   1.829
76030SOL    HW129929   2.132   9.476   1.783
76030SOL    HW229930   2.175   9.424   1.918
76031SOL     OW29931  11.018  10.543  13.376
76031SOL    HW129932  11.025  10.534  13.471
76031SOL    HW229933  10.945  10.604  13.363
76032SOL     OW29934  10.971  10.756   6.169
76032SOL    HW129935  10.925  10.838   6.189
76032SOL    HW229936  11.056  10.784   6.135
76033SOL     OW29937   6.587   1.236   2.398
76033SOL    HW129938   6.502   1.221   2.357
76033SOL    HW229939   6.610   1.326   2.372
76034SOL     OW29940  14.240  13.005   2.024
76034SOL    HW129941  14.208  13.089   2.056
76034SOL    HW229942  14.186  12.985   1.948
76035SOL     OW29943   9.873   2.876  10.232
76035SOL    HW129944   9.949   2.820  10.215
76035SOL    HW229945   9.828   2.833  10.305
76036SOL     OW29946  14.500   8.409   2.781
76036SOL    HW129947  14.490   8.501   2.802
76036SOL    HW229948  14.521   8.408   2.687
76037SOL     OW29949   0.978   4.044   7.858
76037SOL    HW129950   0.981   3.963   7.908
76037SOL    HW229951   1.068   4.058   7.829
76038SOL     OW29952   3.512   7.125   2.448
76038SOL    HW129953   3.485   7.188   2.380
76038SOL    HW229954   3.552   7.180   2.515
76039SOL     OW29955  14.302   0.440   9.356
76039SOL    HW129956  14.365   0.392   9.303
76039SOL    HW229957  14.308   0.400   9.443
76040SOL     OW29958   0.460  11.249  12.011
76040SOL    HW129959   0.437  11.158  11.994
76040SOL    HW229960   0.467  11.256  12.106
76041SOL     OW29961   3.375   5.817  14.608
76041SOL    HW129962   3.330   5.733  14.598
76041SOL    HW229963   3.418   5.832  14.524
76042SOL     OW29964   3.764   2.652   4.427
76042SOL    HW129965   3.688   2.664   4.370
76042SOL    HW229966   3.837   2.638   4.367
76043SOL     OW29967  14.042   5.824   8.106
76043SOL    HW129968  14.058   5.781   8.190
76043SOL    HW229969  13.964   5.878   8.121
76044SOL     OW29970   7.169  13.536   3.118
76044SOL    HW129971   7.085  13.582   3.108
76044SOL    HW229972   7.235  13.604   3.110
76045SOL     OW29973   8.862  11.758   8.826
76045SOL    HW129974   8.957  11.761   8.839
76045SOL    HW229975   8.833  11.848   8.835
76046SOL     OW29976   2.145  12.753   1.452
76046SOL    HW129977   2.104  12.712   1.528
76046SOL    HW229978   2.230  12.711   1.444
76047SOL     OW29979   3.855   9.827   6.182
76047SOL    HW129980   3.769   9.794   6.157
76047SOL    HW229981   3.860   9.812   6.277
76048SOL     OW29982   3.511   2.246  11.530
76048SOL    HW129983   3.574   2.214  11.595
76048SOL    HW229984   3.458   2.169  11.509
76049SOL     OW29985   3.973   8.402   1.890
76049SOL    HW129986   3.879   8.381   1.890
76049SOL    HW229987   3.995   8.411   1.797
76050SOL     OW29988  10.523   2.159   7.111
76050SOL    HW129989  10.567   2.215   7.175
76050SOL    HW229990  10.587   2.091   7.091
76051SOL     OW29991   0.441  14.415   9.222
76051SOL    HW129992   0.415  14.490   9.168
76051SOL    HW229993   0.376  14.412   9.292
76052SOL     OW29994  14.813  11.419  14.428
76052SOL    HW129995  14.881  11.387  14.487
76052SOL    HW229996  14.819  11.514  14.435
76053SOL     OW29997  13.900   0.134   9.996
76053SOL    HW129998  13.812   0.152   9.964
76053SOL    HW229999  13.957   0.156   9.922
76054SOL     OW30000   4.788   6.700   1.968
76054SOL    HW130001   4.700   6.738   1.971
76054SOL    HW230002   4.836   6.756   1.906
76055SOL     OW30003  13.039   2.661   5.265
76055SOL    HW130004  13.079   2.748   5.257
76055SOL    HW230005  13.065   2.615   5.185
76056SOL     OW30006   9.718   0.698   6.954
76056SOL    HW130007   9.709   0.789   6.927
76056SOL    HW230008   9.789   0.663   6.901
76057SOL     OW30009   6.093   1.363   8.719
76057SOL    HW130010   6.123   1.431   8.659
76057SOL    HW230011   6.045   1.301   8.664
76058SOL     OW30012   5.458   1.622  11.821
76058SOL    HW130013   5.395   1.659  11.883
76058SOL    HW230014   5.497   1.548  11.868
76059SOL     OW30015   1.044  10.509   9.325
76059SOL    HW130016   0.983  10.527   9.397
76059SOL    HW230017   1.073  10.420   9.341
76060SOL     OW30018   0.412   2.491   2.176
76060SOL    HW130019   0.461   2.522   2.251
76060SOL    HW230020   0.356   2.421   2.211
76061SOL     OW30021  14.580   3.257   5.827
76061SOL    HW130022  14.645   3.289   5.764
76061SOL    HW230023  14.630   3.202   5.888
76062SOL     OW30024   1.510   5.407  13.944
76062SOL    HW130025   1.513   5.344  13.872
76062SOL    HW230026   1.507   5.493  13.901
76063SOL     OW30027   8.415   5.014  10.864
76063SOL    HW130028   8.434   5.087  10.923
76063SOL    HW230029   8.485   4.951  10.880
76064SOL     OW30030   7.614   9.971   3.109
76064SOL    HW130031   7.636  10.041   3.169
76064SOL    HW230032   7.631  10.007   3.022
76065SOL     OW30033  14.825  14.471   8.818
76065SOL    HW130034  14.860  14.513   8.740
76065SOL    HW230035  14.813  14.379   8.792
76066SOL     OW30036  13.117   2.165  12.070
76066SOL    HW130037  13.197   2.195  12.026
76066SOL    HW230038  13.046   2.205  12.019
76067SOL     OW30039   4.696  13.520  13.203
76067SOL    HW130040   4.791  13.515  13.190
76067SOL    HW230041   4.662  13.444  13.155
76068SOL     OW30042   1.526   4.061   6.290
76068SOL    HW130043   1.432   4.048   6.278
76068SOL    HW230044   1.556   4.099   6.207
76069SOL     OW30045   2.195  10.495   5.691
76069SOL    HW130046   2.276  10.536   5.721
76069SOL    HW230047   2.187  10.415   5.742
76070SOL     OW30048  14.654   5.342   2.710
76070SOL    HW130049  14.725   5.343   2.774
76070SOL    HW230050  14.613   5.428   2.718
76071SOL     OW30051   2.073   0.157   5.767
76071SOL    HW130052   2.044   0.235   5.814
76071SOL    HW230053   2.166   0.174   5.749
76072SOL     OW30054   2.721   9.786   5.496
76072SOL    HW130055   2.647   9.734   5.530
76072SOL    HW230056   2.716   9.774   5.401
76073SOL     OW30057   4.019   8.503   5.952
76073SOL    HW130058   3.929   8.535   5.962
76073SOL    HW230059   4.016   8.446   5.876
76074SOL     OW30060  10.125   7.913   6.710
76074SOL    HW130061  10.204   7.900   6.763
76074SOL    HW230062  10.098   8.003   6.729
76075SOL     OW30063  13.040  13.269   7.719
76075SOL    HW130064  12.952  13.304   7.734
76075SOL    HW230065  13.096  13.347   7.713
76076SOL     OW30066   7.993   7.210   5.799
76076SOL    HW130067   7.908   7.165   5.798
76076SOL    HW230068   8.031   7.187   5.883
76077SOL     OW30069   9.807   0.249  10.432
76077SOL    HW130070   9.820   0.154  10.432
76077SOL    HW230071   9.785   0.270  10.341
76078SOL     OW30072  14.275   4.012   7.411
76078SOL    HW130073  14.221   4.068   7.467
76078SOL    HW230074  14.362   4.017   7.450
76079SOL     OW30075   0.640   3.154   3.378
76079SOL    HW130076   0.602   3.212   3.444
76079SOL    HW230077   0.636   3.204   3.297
76080SOL     OW30078  10.666   5.006  14.785
76080SOL    HW130079  10.581   5.019  14.827
76080SOL    HW230080  10.689   5.093  14.751
76081SOL     OW30081  13.376   2.997   9.499
76081SOL    HW130082  13.419   3.000   9.413
76081SOL    HW230083  13.308   3.064   9.494
76082SOL     OW30084  10.018   2.620   7.382
76082SOL    HW130085   9.978   2.612   7.295
76082SOL    HW230086  10.112   2.622   7.364
76083SOL     OW30087   4.490  13.981   3.934
76083SOL    HW130088   4.517  14.070   3.913
76083SOL    HW230089   4.395  13.986   3.943
76084SOL     OW30090   3.452  10.379   8.481
76084SOL    HW130091   3.481  10.435   8.553
76084SOL    HW230092   3.523  10.315   8.470
76085SOL     OW30093  10.802   0.742   0.003
76085SOL    HW130094  10.799   0.646   0.003
76085SOL    HW230095  10.895   0.763   0.003
76086SOL     OW30096   5.533   3.872  10.085
76086SOL    HW130097   5.488   3.957  10.089
76086SOL    HW230098   5.597   3.882  10.015
76087SOL     OW30099  13.238   6.883  14.464
76087SOL    HW130100  13.187   6.941  14.407
76087SOL    HW230101  13.306   6.939  14.501
76088SOL     OW30102   0.681   6.529  14.270
76088SOL    HW130103   0.640   6.463  14.214
76088SOL    HW230104   0.633   6.523  14.353
76089SOL     OW30105  14.415  10.327   2.662
76089SOL    HW130106  14.433  10.414   2.698
76089SOL    HW230107  14.393  10.344   2.570
76090SOL     OW30108   3.160   9.536   7.855
76090SOL    HW130109   3.248   9.500   7.860
76090SOL    HW230110   3.158   9.583   7.771
76091SOL     OW30111  10.459   8.951   2.863
76091SOL    HW130112  10.421   8.935   2.777
76091SOL    HW230113  10.407   9.022   2.900
76092SOL     OW30114  13.570   0.616  11.914
76092SOL    HW130115  13.505   0.685  11.924
76092SOL    HW230116  13.632   0.629  11.986
76093SOL     OW30117   0.351   9.921   9.116
76093SOL    HW130118   0.281   9.985   9.103
76093SOL    HW230119   0.348   9.865   9.039
76094SOL     OW30120   0.801   8.503  14.217
76094SOL    HW130121   0.719   8.552  14.212
76094SOL    HW230122   0.859   8.558  14.269
76095SOL     OW30123   4.480   2.104  14.156
76095SOL    HW130124   4.435   2.043  14.214
76095SOL    HW230125   4.571   2.104  14.186
76096SOL     OW30126   7.027   7.989   5.412
76096SOL    HW130127   6.980   8.069   5.389
76096SOL    HW230128   7.073   7.965   5.332
76097SOL     OW30129   5.907  12.699  11.472
76097SOL    HW130130   5.973  12.637  11.442
76097SOL    HW230131   5.956  12.777  11.495
76098SOL     OW30132  14.036   0.049   0.336
76098SOL    HW130133  13.985   0.100   0.273
76098SOL    HW230134  14.091  14.874   0.283
76099SOL     OW30135  11.961  12.697   0.980
76099SOL    HW130136  11.986  12.618   0.932
76099SOL    HW230137  12.042  12.725   1.023
76100SOL     OW30138   0.469   0.987   7.790
76100SOL    HW130139   0.437   1.062   7.739
76100SOL    HW230140   0.488   1.023   7.876
76101SOL     OW30141   3.418   3.266  14.074
76101SOL    HW130142   3.340   3.309  14.108
76101SOL    HW230143   3.391   3.231  13.989
76102SOL     OW30144   4.973   0.803  12.455
76102SOL    HW130145   4.999   0.851  12.376
76102SOL    HW230146   5.049   0.808  12.513
76103SOL     OW30147  12.224   4.328   2.826
76103SOL    HW130148  12.158   4.259   2.828
76103SOL    HW230149  12.244   4.339   2.733
76104SOL     OW30150  13.754   0.865   9.313
76104SOL    HW130151  13.659   0.874   9.319
76104SOL    HW230152  13.786   0.955   9.311
76105SOL     OW30153   8.435   8.328  10.361
76105SOL    HW130154   8.475   8.369  10.284
76105SOL    HW230155   8.341   8.340  10.349
76106SOL     OW30156   3.555   5.440   0.382
76106SOL    HW130157   3.623   5.490   0.426
76106SOL    HW230158   3.498   5.410   0.453
76107SOL     OW30159   8.593   6.469  11.236
76107SOL    HW130160   8.516   6.466  11.293
76107SOL    HW230161   8.649   6.535  11.275
76108SOL     OW30162  10.002   3.398   2.026
76108SOL    HW130163  10.001   3.307   1.998
76108SOL    HW230164  10.095   3.419   2.039
76109SOL     OW30165  11.545   8.500   8.969
76109SOL    HW130166  11.563   8.439   9.041
76109SOL    HW230167  11.623   8.555   8.963
76110SOL     OW30168   4.721  11.124   2.483
76110SOL    HW130169   4.733  11.209   2.441
76110SOL    HW230170   4.800  11.112   2.536
76111SOL     OW30171   9.215  14.323   5.229
76111SOL    HW130172   9.297  14.305   5.185
76111SOL    HW230173   9.155  14.255   5.198
76112SOL     OW30174   3.842   2.213   5.665
76112SOL    HW130175   3.764   2.165   5.634
76112SOL    HW230176   3.830   2.301   5.632
76113SOL     OW30177   6.671   0.166   4.562
76113SOL    HW130178   6.616   0.106   4.511
76113SOL    HW230179   6.749   0.178   4.508
76114SOL     OW30180  13.291   6.642   9.413
76114SOL    HW130181  13.219   6.580   9.428
76114SOL    HW230182  13.276   6.673   9.324
76115SOL     OW30183  13.606  11.995   4.990
76115SOL    HW130184  13.583  11.936   5.062
76115SOL    HW230185  13.691  12.030   5.016
76116SOL     OW30186  10.911   6.201  11.570
76116SOL    HW130187  10.817   6.200  11.587
76116SOL    HW230188  10.946   6.261  11.636
76117SOL     OW30189   4.106  13.349   8.770
76117SOL    HW130190   4.061  13.270   8.800
76117SOL    HW230191   4.076  13.360   8.680
76118SOL     OW30192  10.755   2.236   0.430
76118SOL    HW130193  10.680   2.214   0.375
76118SOL    HW230194  10.718   2.274   0.509
76119SOL     OW30195   4.612   3.360   4.753
76119SOL    HW130196   4.521   3.389   4.757
76119SOL    HW230197   4.634   3.338   4.844
76120SOL     OW30198   9.768  11.993   9.471
76120SOL    HW130199   9.740  12.024   9.386
76120SOL    HW230200   9.859  11.966   9.459
76121SOL     OW30201   9.571   2.964   5.305
76121SOL    HW130202   9.555   2.874   5.336
76121SOL    HW230203   9.549   3.019   5.380
76122SOL     OW30204  10.906  13.046   1.351
76122SOL    HW130205  10.965  13.099   1.403
76122SOL    HW230206  10.820  13.059   1.390
76123SOL     OW30207   5.131   0.087  13.956
76123SOL    HW130208   5.098   0.159  14.010
76123SOL    HW230209   5.076   0.089  13.878
76124SOL     OW30210  12.015   8.865   3.700
76124SOL    HW130211  12.042   8.831   3.785
76124SOL    HW230212  11.966   8.793   3.660
76125SOL     OW30213   3.703   1.710  12.884
76125SOL    HW130214   3.639   1.677  12.821
76125SOL    HW230215   3.676   1.675  12.968
76126SOL     OW30216   5.086   3.691   4.260
76126SOL    HW130217   5.125   3.771   4.223
76126SOL    HW230218   5.048   3.646   4.184
76127SOL     OW30219   6.795   1.607   1.416
76127SOL    HW130220   6.740   1.647   1.348
76127SOL    HW230221   6.847   1.542   1.369
76128SOL     OW30222   8.527   9.408  11.528
76128SOL    HW130223   8.467   9.334  11.541
76128SOL    HW230224   8.507   9.441  11.441
76129SOL     OW30225   3.965   0.450   7.177
76129SOL    HW130226   3.956   0.370   7.125
76129SOL    HW230227   4.041   0.495   7.139
76130SOL     OW30228   8.767   8.316   6.069
76130SOL    HW130229   8.851   8.352   6.096
76130SOL    HW230230   8.784   8.281   5.981
76131SOL     OW30231   6.051   2.122   8.448
76131SOL    HW130232   6.057   2.216   8.432
76131SOL    HW230233   5.973   2.112   8.503
76132SOL     OW30234  12.131   4.445   3.595
76132SOL    HW130235  12.137   4.470   3.687
76132SOL    HW230236  12.090   4.521   3.552
76133SOL     OW30237  13.674   1.162   8.392
76133SOL    HW130238  13.678   1.217   8.313
76133SOL    HW230239  13.581   1.140   8.401
76134SOL     OW30240   7.481   8.843   8.056
76134SOL    HW130241   7.499   8.796   8.138
76134SOL    HW230242   7.522   8.790   7.988
76135SOL     OW30243   1.198   4.670  12.630
76135SOL    HW130244   1.199   4.751  12.682
76135SOL    HW230245   1.224   4.602  12.692
76136SOL     OW30246   6.776   2.428  12.219
76136SOL    HW130247   6.744   2.341  12.197
76136SOL    HW230248   6.856   2.413  12.268
76137SOL     OW30249   1.966  10.571  11.619
76137SOL    HW130250   1.904  10.557  11.691
76137SOL    HW230251   1.959  10.665  11.600
76138SOL     OW30252   2.544   1.776   4.436
76138SOL    HW130253   2.531   1.870   4.445
76138SOL    HW230254   2.483   1.737   4.499
76139SOL     OW30255  13.454   9.795   5.116
76139SOL    HW130256  13.412   9.830   5.194
76139SOL    HW230257  13.439   9.701   5.120
76140SOL     OW30258  13.326   4.499   6.936
76140SOL    HW130259  13.398   4.477   6.995
76140SOL    HW230260  13.249   4.457   6.974
76141SOL     OW30261   9.405   8.787   5.864
76141SOL    HW130262   9.387   8.817   5.953
76141SOL    HW230263   9.372   8.858   5.808
76142SOL     OW30264  12.458   6.302   7.900
76142SOL    HW130265  12.390   6.244   7.933
76142SOL    HW230266  12.532   6.244   7.880
76143SOL     OW30267   5.559   3.324   0.053
76143SOL    HW130268   5.610   3.250   0.086
76143SOL    HW230269   5.584   3.397   0.109
76144SOL     OW30270  10.643  13.268  13.295
76144SOL    HW130271  10.571  13.231  13.244
76144SOL    HW230272  10.720  13.256  13.241
76145SOL     OW30273   1.159   5.404   6.565
76145SOL    HW130274   1.152   5.323   6.515
76145SOL    HW230275   1.253   5.420   6.573
76146SOL     OW30276  11.520  13.380   9.604
76146SOL    HW130277  11.571  13.302   9.625
76146SOL    HW230278  11.557  13.448   9.661
76147SOL     OW30279   6.426   8.292   3.024
76147SOL    HW130280   6.430   8.201   3.052
76147SOL    HW230281   6.466   8.342   3.095
76148SOL     OW30282  14.633   5.088   0.288
76148SOL    HW130283  14.637   5.184   0.293
76148SOL    HW230284  14.546   5.066   0.321
76149SOL     OW30285  13.700   8.609  13.447
76149SOL    HW130286  13.695   8.515  13.430
76149SOL    HW230287  13.612   8.642  13.429
76150SOL     OW30288   1.039  10.461   9.748
76150SOL    HW130289   1.088  10.398   9.695
76150SOL    HW230290   0.969  10.492   9.689
76151SOL     OW30291   7.207   3.134  11.495
76151SOL    HW130292   7.193   3.105  11.405
76151SOL    HW230293   7.129   3.185  11.516
76152SOL     OW30294  10.551  11.299  10.716
76152SOL    HW130295  10.582  11.283  10.627
76152SOL    HW230296  10.505  11.383  10.711
76153SOL     OW30297   7.006  13.868   2.018
76153SOL    HW130298   7.037  13.790   2.063
76153SOL    HW230299   7.072  13.883   1.950
76154SOL     OW30300  14.048   7.574  12.146
76154SOL    HW130301  14.050   7.576  12.050
76154SOL    HW230302  14.041   7.666  12.171
76155SOL     OW30303   1.496  10.780   1.901
76155SOL    HW130304   1.575  10.833   1.914
76155SOL    HW230305   1.525  10.690   1.915
76156SOL     OW30306  12.400  11.787   7.590
76156SOL    HW130307  12.336  11.831   7.646
76156SOL    HW230308  12.354  11.771   7.508
76157SOL     OW30309   2.829   2.075   7.899
76157SOL    HW130310   2.848   2.032   7.815
76157SOL    HW230311   2.868   2.162   7.891
76158SOL     OW30312  10.532   1.488   1.201
76158SOL    HW130313  10.573   1.448   1.277
76158SOL    HW230314  10.485   1.417   1.159
76159SOL     OW30315   5.276   9.189   7.482
76159SOL    HW130316   5.205   9.128   7.505
76159SOL    HW230317   5.258   9.267   7.533
76160SOL     OW30318   6.583   0.470   1.894
76160SOL    HW130319   6.627   0.552   1.873
76160SOL    HW230320   6.489   0.488   1.883
76161SOL     OW30321   0.761   6.394   9.851
76161SOL    HW130322   0.795   6.409   9.762
76161SOL    HW230323   0.667   6.412   9.844
76162SOL     OW30324   3.775   7.711   0.898
76162SOL    HW130325   3.761   7.705   0.993
76162SOL    HW230326   3.785   7.620   0.870
76163SOL     OW30327  10.250   7.695   0.100
76163SOL    HW130328  10.222   7.720   0.188
76163SOL    HW230329  10.336   7.655   0.113
76164SOL     OW30330   1.911   9.712  10.350
76164SOL    HW130331   1.837   9.669  10.392
76164SOL    HW230332   1.944   9.647  10.288
76165SOL     OW30333   3.152   7.360   6.392
76165SOL    HW130334   3.176   7.281   6.343
76165SOL    HW230335   3.236   7.393   6.426
76166SOL     OW30336   4.544   3.358   8.657
76166SOL    HW130337   4.504   3.373   8.743
76166SOL    HW230338   4.638   3.363   8.673
76167SOL     OW30339  10.490   2.023   3.295
76167SOL    HW130340  10.409   2.066   3.323
76167SOL    HW230341  10.559   2.065   3.346
76168SOL     OW30342   7.309   4.141   1.021
76168SOL    HW130343   7.288   4.227   1.056
76168SOL    HW230344   7.325   4.087   1.098
76169SOL     OW30345   0.681   7.906  10.529
76169SOL    HW130346   0.768   7.919  10.564
76169SOL    HW230347   0.687   7.931  10.437
76170SOL     OW30348   5.960   5.621   2.927
76170SOL    HW130349   5.867   5.646   2.922
76170SOL    HW230350   5.979   5.585   2.841
76171SOL     OW30351  10.872  11.184   9.530
76171SOL    HW130352  10.906  11.266   9.497
76171SOL    HW230353  10.778  11.187   9.511
76172SOL     OW30354   5.560   3.569   7.150
76172SOL    HW130355   5.466   3.582   7.140
76172SOL    HW230356   5.595   3.658   7.155
76173SOL     OW30357   4.224   4.356   5.979
76173SOL    HW130358   4.311   4.327   6.008
76173SOL    HW230359   4.241   4.403   5.898
76174SOL     OW30360  13.007  13.296  11.899
76174SOL    HW130361  13.090  13.300  11.946
76174SOL    HW230362  13.029  13.320  11.809
76175SOL     OW30363   3.708   1.239  14.423
76175SOL    HW130364   3.714   1.152  14.384
76175SOL    HW230365   3.687   1.223  14.515
76176SOL     OW30366  12.517   8.114   0.049
76176SOL    HW130367  12.542   8.204   0.027
76176SOL    HW230368  12.575   8.059  14.878
76177SOL     OW30369   7.021   7.600  13.693
76177SOL    HW130370   7.108   7.613  13.656
76177SOL    HW230371   6.961   7.611  13.619
76178SOL     OW30372   0.697   1.388   0.546
76178SOL    HW130373   0.680   1.293   0.543
76178SOL    HW230374   0.656   1.417   0.627
76179SOL     OW30375  10.543   8.458  13.285
76179SOL    HW130376  10.483   8.386  13.268
76179SOL    HW230377  10.564   8.493  13.198
76180SOL     OW30378   3.502  13.631   0.517
76180SOL    HW130379   3.452  13.602   0.441
76180SOL    HW230380   3.594  13.626   0.488
76181SOL     OW30381   2.992   0.804   8.128
76181SOL    HW130382   2.911   0.853   8.138
76181SOL    HW230383   3.051   0.864   8.082
76182SOL     OW30384   0.839   2.244   0.900
76182SOL    HW130385   0.844   2.166   0.955
76182SOL    HW230386   0.774   2.300   0.944
76183SOL     OW30387   4.194  12.650   9.409
76183SOL    HW130388   4.242  12.605   9.478
76183SOL    HW230389   4.160  12.580   9.354
76184SOL     OW30390   6.284   6.295   6.141
76184SOL    HW130391   6.255   6.384   6.124
76184SOL    HW230392   6.378   6.302   6.157
76185SOL     OW30393   8.711   9.556   0.589
76185SOL    HW130394   8.656   9.549   0.667
76185SOL    HW230395   8.693   9.643   0.555
76186SOL     OW30396  10.504   9.510   5.107
76186SOL    HW130397  10.409   9.509   5.094
76186SOL    HW230398  10.522   9.598   5.139
76187SOL     OW30399   3.173   2.708   8.550
76187SOL    HW130400   3.127   2.741   8.627
76187SOL    HW230401   3.175   2.613   8.561
76188SOL     OW30402   2.936   5.061   8.057
76188SOL    HW130403   2.904   5.147   8.084
76188SOL    HW230404   2.861   5.019   8.015
76189SOL     OW30405   9.324  14.655   8.462
76189SOL    HW130406   9.312  14.612   8.377
76189SOL    HW230407   9.413  14.690   8.459
76190SOL     OW30408   9.397   2.775   9.122
76190SOL    HW130409   9.489   2.788   9.145
76190SOL    HW230410   9.371   2.857   9.080
76191SOL     OW30411   6.964   2.072   4.659
76191SOL    HW130412   7.050   2.090   4.621
76191SOL    HW230413   6.965   1.978   4.676
76192SOL     OW30414   3.005   2.947   7.402
76192SOL    HW130415   2.981   2.875   7.343
76192SOL    HW230416   3.077   2.992   7.357
76193SOL     OW30417  12.784   6.701   1.923
76193SOL    HW130418  12.784   6.643   2.000
76193SOL    HW230419  12.876   6.725   1.911
76194SOL     OW30420   2.313   5.482   6.692
76194SOL    HW130421   2.345   5.570   6.712
76194SOL    HW230422   2.265   5.456   6.771
76195SOL     OW30423  14.083   9.344  14.082
76195SOL    HW130424  14.043   9.264  14.049
76195SOL    HW230425  14.158   9.314  14.133
76196SOL     OW30426   4.584   4.410   7.840
76196SOL    HW130427   4.594   4.418   7.934
76196SOL    HW230428   4.519   4.476   7.816
76197SOL     OW30429   3.400   1.409   8.886
76197SOL    HW130430   3.437   1.491   8.919
76197SOL    HW230431   3.422   1.409   8.793
76198SOL     OW30432  10.567  12.785  11.595
76198SOL    HW130433  10.531  12.871  11.575
76198SOL    HW230434  10.491  12.726  11.593
76199SOL     OW30435   8.045   9.682  14.516
76199SOL    HW130436   7.997   9.757  14.481
76199SOL    HW230437   7.986   9.644  14.582
76200SOL     OW30438  10.083   8.948  13.861
76200SOL    HW130439  10.118   8.909  13.781
76200SOL    HW230440  10.087   9.043  13.845
76201SOL     OW30441   7.098  13.064   9.624
76201SOL    HW130442   7.088  13.015   9.705
76201SOL    HW230443   7.168  13.126   9.642
76202SOL     OW30444  10.733  14.668  13.162
76202SOL    HW130445  10.736  14.635  13.252
76202SOL    HW230446  10.641  14.661  13.137
76203SOL     OW30447  11.377  11.189  13.859
76203SOL    HW130448  11.453  11.131  13.857
76203SOL    HW230449  11.337  11.174  13.945
76204SOL     OW30450   3.131   3.624   9.676
76204SOL    HW130451   3.095   3.567   9.608
76204SOL    HW230452   3.181   3.690   9.629
76205SOL     OW30453   0.214   1.389   5.283
76205SOL    HW130454   0.258   1.420   5.363
76205SOL    HW230455   0.207   1.294   5.295
76206SOL     OW30456   9.368   6.569   5.549
76206SOL    HW130457   9.424   6.634   5.506
76206SOL    HW230458   9.425   6.493   5.560
76207SOL     OW30459   6.982  10.162   7.042
76207SOL    HW130460   6.941  10.123   6.965
76207SOL    HW230461   6.910  10.182   7.101
76208SOL     OW30462   1.798   7.178  12.883
76208SOL    HW130463   1.820   7.218  12.799
76208SOL    HW230464   1.883   7.160  12.924
76209SOL     OW30465   4.343   5.208   4.994
76209SOL    HW130466   4.251   5.188   5.010
76209SOL    HW230467   4.342   5.298   4.960
76210SOL     OW30468   6.246  10.879  13.520
76210SOL    HW130469   6.192  10.818  13.571
76210SOL    HW230470   6.268  10.831  13.440
76211SOL     OW30471  10.036  13.377  14.369
76211SOL    HW130472  10.052  13.471  14.369
76211SOL    HW230473  10.119  13.338  14.343
76212SOL     OW30474   6.348  13.631   6.691
76212SOL    HW130475   6.418  13.628   6.626
76212SOL    HW230476   6.278  13.682   6.650
76213SOL     OW30477   5.174   7.386   8.613
76213SOL    HW130478   5.118   7.359   8.540
76213SOL    HW230479   5.222   7.307   8.636
76214SOL     OW30480   8.006   3.811   7.387
76214SOL    HW130481   8.022   3.898   7.351
76214SOL    HW230482   8.049   3.812   7.472
76215SOL     OW30483  14.469   3.483  14.579
76215SOL    HW130484  14.424   3.483  14.664
76215SOL    HW230485  14.398   3.470  14.515
76216SOL     OW30486  13.986   5.270   0.703
76216SOL    HW130487  14.019   5.348   0.748
76216SOL    HW230488  13.990   5.293   0.610
76217SOL     OW30489  11.711   7.637   9.040
76217SOL    HW130490  11.642   7.680   8.989
76217SOL    HW230491  11.751   7.708   9.091
76218SOL     OW30492   8.470   2.755   9.263
76218SOL    HW130493   8.461   2.660   9.269
76218SOL    HW230494   8.540   2.776   9.326
76219SOL     OW30495   6.484  14.729   3.604
76219SOL    HW130496   6.490  14.639   3.574
76219SOL    HW230497   6.520  14.728   3.693
76220SOL     OW30498  12.809   1.237  12.572
76220SOL    HW130499  12.822   1.236  12.667
76220SOL    HW230500  12.797   1.330  12.551
76221SOL     OW30501   9.055  11.568   4.091
76221SOL    HW130502   9.141  11.537   4.121
76221SOL    HW230503   9.042  11.650   4.138
76222SOL     OW30504  13.754  12.942  13.916
76222SOL    HW130505  13.789  12.981  13.836
76222SOL    HW230506  13.681  12.999  13.940
76223SOL     OW30507  10.203   2.641   4.948
76223SOL    HW130508  10.135   2.600   4.894
76223SOL    HW230509  10.216   2.727   4.909
76224SOL     OW30510   9.082   4.027   4.861
76224SOL    HW130511   9.054   3.958   4.922
76224SOL    HW230512   9.039   4.004   4.779
76225SOL     OW30513   7.493  10.811   8.607
76225SOL    HW130514   7.556  10.881   8.626
76225SOL    HW230515   7.542  10.730   8.617
76226SOL     OW30516   8.103   5.675   6.305
76226SOL    HW130517   8.130   5.760   6.271
76226SOL    HW230518   8.009   5.684   6.321
76227SOL     OW30519   0.288   3.759  11.199
76227SOL    HW130520   0.345   3.763  11.122
76227SOL    HW230521   0.199   3.763  11.165
76228SOL     OW30522   4.190   3.833   0.765
76228SOL    HW130523   4.179   3.925   0.787
76228SOL    HW230524   4.101   3.803   0.746
76229SOL     OW30525   4.999   5.071   7.528
76229SOL    HW130526   4.956   5.144   7.482
76229SOL    HW230527   5.091   5.096   7.531
76230SOL     OW30528   2.443   9.205  13.225
76230SOL    HW130529   2.489   9.261  13.164
76230SOL    HW230530   2.404   9.266  13.288
76231SOL     OW30531  10.899   0.930  10.762
76231SOL    HW130532  10.832   0.861  10.756
76231SOL    HW230533  10.879   0.975  10.845
76232SOL     OW30534   4.828   6.287  14.860
76232SOL    HW130535   4.827   6.295  14.764
76232SOL    HW230536   4.807   6.195  14.876
76233SOL     OW30537   4.487   5.900  12.347
76233SOL    HW130538   4.558   5.951  12.388
76233SOL    HW230539   4.418   5.964  12.332
76234SOL     OW30540   2.586   9.724   3.773
76234SOL    HW130541   2.676   9.754   3.784
76234SOL    HW230542   2.591   9.628   3.781
76235SOL     OW30543  10.896   1.432   3.015
76235SOL    HW130544  10.957   1.503   2.994
76235SOL    HW230545  10.931   1.356   2.969
76236SOL     OW30546  13.049   0.109   4.494
76236SOL    HW130547  13.049   0.155   4.410
76236SOL    HW230548  12.982   0.042   4.484
76237SOL     OW30549   4.969  13.642   1.166
76237SOL    HW130550   4.964  13.736   1.153
76237SOL    HW230551   5.016  13.632   1.250
76238SOL     OW30552  12.721  14.189   8.969
76238SOL    HW130553  12.659  14.128   8.928
76238SOL    HW230554  12.705  14.272   8.925
76239SOL     OW30555   5.509   6.319   5.210
76239SOL    HW130556   5.419   6.330   5.240
76239SOL    HW230557   5.508   6.235   5.163
76240SOL     OW30558   8.068   8.636  11.068
76240SOL    HW130559   8.033   8.659  11.154
76240SOL    HW230560   8.089   8.719  11.027
76241SOL     OW30561  14.518  10.554   2.710
76241SOL    HW130562  14.586  10.530   2.773
76241SOL    HW230563  14.522  10.650   2.706
76242SOL     OW30564   4.917  14.094  10.081
76242SOL    HW130565   4.845  14.035  10.057
76242SOL    HW230566   4.979  14.088  10.008
76243SOL     OW30567  13.615  11.764   5.943
76243SOL    HW130568  13.603  11.824   6.016
76243SOL    HW230569  13.645  11.683   5.984
76244SOL     OW30570  10.264   6.935  14.366
76244SOL    HW130571  10.239   6.849  14.332
76244SOL    HW230572  10.310   6.977  14.293
76245SOL     OW30573  12.003   4.634   3.407
76245SOL    HW130574  12.001   4.729   3.396
76245SOL    HW230575  11.914   4.606   3.387
76246SOL     OW30576   8.016   8.500   2.475
76246SOL    HW130577   7.921   8.492   2.471
76246SOL    HW230578   8.033   8.593   2.466
76247SOL     OW30579   0.833   8.420   0.002
76247SOL    HW130580   0.837   8.452  14.794
76247SOL    HW230581   0.820   8.326  14.875
76248SOL     OW30582  13.708   0.416  12.505
76248SOL    HW130583  13.752   0.395  12.423
76248SOL    HW230584  13.775   0.405  12.572
76249SOL     OW30585   6.202  12.266  10.327
76249SOL    HW130586   6.230  12.202  10.261
76249SOL    HW230587   6.245  12.238  10.408
76250SOL     OW30588  13.829   1.854  14.203
76250SOL    HW130589  13.888   1.905  14.258
76250SOL    HW230590  13.879   1.775  14.180
76251SOL     OW30591  10.796   2.834  14.634
76251SOL    HW130592  10.859   2.892  14.590
76251SOL    HW230593  10.780   2.764  14.570
76252SOL     OW30594   6.327   0.609   2.167
76252SOL    HW130595   6.336   0.680   2.104
76252SOL    HW230596   6.241   0.570   2.147
76253SOL     OW30597   1.123   3.450  12.116
76253SOL    HW130598   1.203   3.471  12.164
76253SOL    HW230599   1.090   3.534  12.085
76254SOL     OW30600  13.792  11.344  12.842
76254SOL    HW130601  13.826  11.433  12.837
76254SOL    HW230602  13.758  11.327  12.754
76255SOL     OW30603  13.099  12.134  11.503
76255SOL    HW130604  13.116  12.139  11.410
76255SOL    HW230605  13.080  12.042  11.520
76256SOL     OW30606   0.701  12.379   9.557
76256SOL    HW130607   0.672  12.411   9.472
76256SOL    HW230608   0.671  12.288   9.560
76257SOL     OW30609   8.994  14.332   9.403
76257SOL    HW130610   8.905  14.313   9.432
76257SOL    HW230611   9.023  14.251   9.360
76258SOL     OW30612  13.893  10.833   2.067
76258SOL    HW130613  13.988  10.832   2.079
76258SOL    HW230614  13.869  10.925   2.073
76259SOL     OW30615  10.047   2.398   5.028
76259SOL    HW130616  10.004   2.459   4.969
76259SOL    HW230617  10.117   2.448   5.069
76260SOL     OW30618  11.804   0.903   1.212
76260SOL    HW130619  11.888   0.948   1.202
76260SOL    HW230620  11.780   0.880   1.122
76261SOL     OW30621   6.020   2.028  12.603
76261SOL    HW130622   6.100   1.977  12.611
76261SOL    HW230623   5.994   2.045  12.694
76262SOL     OW30624   3.985  12.059   6.842
76262SOL    HW130625   4.046  12.125   6.808
76262SOL    HW230626   4.031  11.976   6.830
76263SOL     OW30627   7.973   4.244   7.984
76263SOL    HW130628   7.927   4.173   8.029
76263SOL    HW230629   7.934   4.245   7.897
76264SOL     OW30630   6.043  13.725   7.904
76264SOL    HW130631   5.990  13.679   7.839
76264SOL    HW230632   6.027  13.818   7.887
76265SOL     OW30633   4.180   3.371  14.136
76265SOL    HW130634   4.169   3.287  14.181
76265SOL    HW230635   4.132   3.362  14.054
76266SOL     OW30636  12.453   3.250  13.037
76266SOL    HW130637  12.524   3.202  12.994
76266SOL    HW230638  12.445   3.331  12.987
76267SOL     OW30639   0.976  13.328   3.759
76267SOL    HW130640   0.941  13.416   3.765
76267SOL    HW230641   1.046  13.325   3.824
76268SOL     OW30642   0.263   1.143   4.808
76268SOL    HW130643   0.292   1.233   4.823
76268SOL    HW230644   0.342   1.096   4.781
76269SOL     OW30645   3.449  14.749   0.068
76269SOL    HW130646   3.510  14.676   0.071
76269SOL    HW230647   3.471  14.797  14.870
76270SOL     OW30648   4.095   8.709   9.452
76270SOL    HW130649   4.039   8.732   9.377
76270SOL    HW230650   4.155   8.642   9.418
76271SOL     OW30651   9.686   0.442   4.675
76271SOL    HW130652   9.676   0.504   4.603
76271SOL    HW230653   9.649   0.488   4.751
76272SOL     OW30654  10.200   8.932   0.451
76272SOL    HW130655  10.217   8.900   0.540
76272SOL    HW230656  10.157   8.858   0.407
76273SOL     OW30657   1.908   7.617   5.803
76273SOL    HW130658   1.947   7.574   5.727
76273SOL    HW230659   1.908   7.550   5.871
76274SOL     OW30660   0.089   6.940  13.900
76274SOL    HW130661   0.150   7.002  13.940
76274SOL    HW230662   0.056   6.888  13.973
76275SOL     OW30663  11.992   2.224   8.593
76275SOL    HW130664  12.057   2.237   8.663
76275SOL    HW230665  12.030   2.268   8.517
76276SOL     OW30666   3.520   5.787  14.382
76276SOL    HW130667   3.593   5.725  14.384
76276SOL    HW230668   3.467   5.759  14.308
76277SOL     OW30669  14.439   5.252   3.724
76277SOL    HW130670  14.378   5.306   3.774
76277SOL    HW230671  14.507   5.312   3.695
76278SOL     OW30672   4.023   0.504   6.225
76278SOL    HW130673   3.932   0.503   6.195
76278SOL    HW230674   4.048   0.411   6.227
76279SOL     OW30675  10.441  11.288   0.896
76279SOL    HW130676  10.455  11.373   0.854
76279SOL    HW230677  10.373  11.246   0.844
76280SOL     OW30678   0.418  14.533   4.418
76280SOL    HW130679   0.369  14.596   4.366
76280SOL    HW230680   0.382  14.448   4.394
76281SOL     OW30681   8.742   5.166   3.403
76281SOL    HW130682   8.744   5.152   3.498
76281SOL    HW230683   8.810   5.231   3.386
76282SOL     OW30684   2.666  13.460  10.393
76282SOL    HW130685   2.685  13.395  10.460
76282SOL    HW230686   2.732  13.445  10.326
76283SOL     OW30687   7.799  12.821   8.069
76283SOL    HW130688   7.792  12.869   7.987
76283SOL    HW230689   7.746  12.742   8.056
76284SOL     OW30690   3.665   8.321   4.517
76284SOL    HW130691   3.663   8.405   4.563
76284SOL    HW230692   3.623   8.260   4.577
76285SOL     OW30693  12.603   3.514  10.585
76285SOL    HW130694  12.644   3.573  10.648
76285SOL    HW230695  12.565   3.445  10.639
76286SOL     OW30696  10.349   9.422   7.910
76286SOL    HW130697  10.267   9.382   7.882
76286SOL    HW230698  10.338   9.515   7.892
76287SOL     OW30699   9.580   7.028  14.239
76287SOL    HW130700   9.600   6.981  14.321
76287SOL    HW230701   9.572   7.119  14.265
76288SOL     OW30702   5.291   0.327   0.451
76288SOL    HW130703   5.338   0.406   0.427
76288SOL    HW230704   5.328   0.301   0.536
76289SOL     OW30705  14.699  11.622   0.436
76289SOL    HW130706  14.653  11.581   0.362
76289SOL    HW230707  14.768  11.675   0.395
76290SOL     OW30708   6.111   6.031  13.667
76290SOL    HW130709   6.064   6.109  13.638
76290SOL    HW230710   6.132   5.984  13.586
76291SOL     OW30711   8.831  11.378  11.261
76291SOL    HW130712   8.761  11.343  11.206
76291SOL    HW230713   8.833  11.321  11.338
76292SOL     OW30714   1.167  10.607  12.633
76292SOL    HW130715   1.126  10.521  12.625
76292SOL    HW230716   1.156  10.647  12.546
76293SOL     OW30717   1.033   6.397   8.074
76293SOL    HW130718   0.959   6.420   8.018
76293SOL    HW230719   1.003   6.414   8.163
76294SOL     OW30720  14.748  12.729  10.896
76294SOL    HW130721  14.767  12.674  10.973
76294SOL    HW230722  14.807  12.696  10.828
76295SOL     OW30723   6.362  13.701   6.367
76295SOL    HW130724   6.284  13.671   6.414
76295SOL    HW230725   6.389  13.625   6.315
76296SOL     OW30726  13.553  12.161   5.292
76296SOL    HW130727  13.636  12.179   5.248
76296SOL    HW230728  13.490  12.153   5.220
76297SOL     OW30729  12.398  12.824   3.346
76297SOL    HW130730  12.424  12.883   3.275
76297SOL    HW230731  12.366  12.883   3.414
76298SOL     OW30732  11.507   0.817  11.518
76298SOL    HW130733  11.597   0.847  11.507
76298SOL    HW230734  11.504   0.732  11.474
76299SOL     OW30735   7.893   9.418   8.374
76299SOL    HW130736   7.833   9.344   8.363
76299SOL    HW230737   7.964   9.400   8.312
76300SOL     OW30738   2.076  12.696  14.637
76300SOL    HW130739   2.139  12.758  14.600
76300SOL    HW230740   2.091  12.615  14.588
76301SOL     OW30741  13.667   1.189   3.625
76301SOL    HW130742  13.698   1.166   3.713
76301SOL    HW230743  13.707   1.124   3.567
76302SOL     OW30744  13.822   3.970  13.729
76302SOL    HW130745  13.762   3.944  13.799
76302SOL    HW230746  13.791   4.056  13.700
76303SOL     OW30747   6.779  14.585   4.130
76303SOL    HW130748   6.701  14.539   4.100
76303SOL    HW230749   6.851  14.541   4.086
76304SOL     OW30750  13.947   4.836   1.271
76304SOL    HW130751  13.992   4.791   1.342
76304SOL    HW230752  14.005   4.909   1.247
76305SOL     OW30753   7.007   4.359   4.138
76305SOL    HW130754   7.047   4.398   4.060
76305SOL    HW230755   7.080   4.321   4.186
76306SOL     OW30756  11.041  12.530   2.472
76306SOL    HW130757  11.096  12.554   2.398
76306SOL    HW230758  10.979  12.467   2.436
76307SOL     OW30759   3.186   1.469   9.312
76307SOL    HW130760   3.255   1.533   9.328
76307SOL    HW230761   3.231   1.396   9.270
76308SOL     OW30762   7.576   3.290   4.349
76308SOL    HW130763   7.627   3.367   4.373
76308SOL    HW230764   7.488   3.324   4.332
76309SOL     OW30765   1.952  10.154  12.228
76309SOL    HW130766   1.932  10.067  12.261
76309SOL    HW230767   1.950  10.211  12.305
76310SOL     OW30768   6.087   9.866  13.339
76310SOL    HW130769   6.174   9.878  13.301
76310SOL    HW230770   6.026   9.878  13.267
76311SOL     OW30771  11.440   3.095   0.077
76311SOL    HW130772  11.406   3.182   0.052
76311SOL    HW230773  11.442   3.097   0.172
76312SOL     OW30774   7.225   5.710   8.413
76312SOL    HW130775   7.314   5.689   8.384
76312SOL    HW230776   7.177   5.627   8.406
76313SOL     OW30777   0.160   6.278  11.734
76313SOL    HW130778   0.211   6.210  11.778
76313SOL    HW230779   0.156   6.350  11.797
76314SOL     OW30780  11.894  14.160   7.305
76314SOL    HW130781  11.823  14.214   7.270
76314SOL    HW230782  11.938  14.126   7.227
76315SOL     OW30783  13.650   6.081   5.662
76315SOL    HW130784  13.711   6.069   5.735
76315SOL    HW230785  13.567   6.104   5.703
76316SOL     OW30786   4.294   6.065  14.342
76316SOL    HW130787   4.377   6.095  14.304
76316SOL    HW230788   4.271   5.988  14.290
76317SOL     OW30789  10.556   2.798  10.561
76317SOL    HW130790  10.608   2.719  10.551
76317SOL    HW230791  10.544   2.831  10.472
76318SOL     OW30792  11.858   1.148   4.044
76318SOL    HW130793  11.899   1.159   3.958
76318SOL    HW230794  11.764   1.146   4.026
76319SOL     OW30795  10.386   6.117   9.045
76319SOL    HW130796  10.325   6.190   9.050
76319SOL    HW230797  10.448   6.132   9.116
76320SOL     OW30798   5.732   8.702  10.742
76320SOL    HW130799   5.669   8.630  10.741
76320SOL    HW230800   5.684   8.776  10.704
76321SOL     OW30801   3.768   3.839   5.157
76321SOL    HW130802   3.675   3.822   5.149
76321SOL    HW230803   3.791   3.885   5.077
76322SOL     OW30804   4.869   0.516  12.679
76322SOL    HW130805   4.831   0.547  12.761
76322SOL    HW230806   4.940   0.577  12.660
76323SOL     OW30807   6.681   2.874   3.509
76323SOL    HW130808   6.662   2.928   3.586
76323SOL    HW230809   6.603   2.883   3.454
76324SOL     OW30810   8.816  11.349   4.324
76324SOL    HW130811   8.834  11.406   4.250
76324SOL    HW230812   8.889  11.363   4.385
76325SOL     OW30813  10.877  11.899   6.085
76325SOL    HW130814  10.791  11.937   6.065
76325SOL    HW230815  10.877  11.816   6.038
76326SOL     OW30816   3.651  13.832   3.778
76326SOL    HW130817   3.610  13.751   3.749
76326SOL    HW230818   3.583  13.899   3.767
76327SOL     OW30819  12.203   2.537   0.366
76327SOL    HW130820  12.143   2.542   0.441
76327SOL    HW230821  12.285   2.504   0.403
76328SOL     OW30822  11.273   8.053  10.953
76328SOL    HW130823  11.208   8.017  10.893
76328SOL    HW230824  11.298   8.137  10.913
76329SOL     OW30825   9.723   2.960  12.569
76329SOL    HW130826   9.634   2.925  12.580
76329SOL    HW230827   9.775   2.914  12.635
76330SOL     OW30828   3.234   8.194   0.059
76330SOL    HW130829   3.322   8.177   0.024
76330SOL    HW230830   3.243   8.179   0.153
76331SOL     OW30831  13.545  11.088   9.409
76331SOL    HW130832  13.482  11.080   9.338
76331SOL    HW230833  13.598  11.008   9.404
76332SOL     OW30834  14.362   6.709   5.956
76332SOL    HW130835  14.368   6.624   5.911
76332SOL    HW230836  14.270   6.717   5.978
76333SOL     OW30837  12.875   4.747  13.340
76333SOL    HW130838  12.864   4.656  13.313
76333SOL    HW230839  12.880   4.796  13.258
76334SOL     OW30840  13.066   5.648   7.500
76334SOL    HW130841  13.117   5.584   7.451
76334SOL    HW230842  12.982   5.605   7.516
76335SOL     OW30843  14.604  13.333  12.110
76335SOL    HW130844  14.577  13.382  12.032
76335SOL    HW230845  14.700  13.335  12.107
76336SOL     OW30846   8.032   9.583  10.360
76336SOL    HW130847   7.961   9.570  10.298
76336SOL    HW230848   8.031   9.504  10.415
76337SOL     OW30849   1.182   1.373   1.946
76337SOL    HW130850   1.244   1.383   2.018
76337SOL    HW230851   1.120   1.445   1.956
76338SOL     OW30852   3.562   1.675  11.261
76338SOL    HW130853   3.579   1.592  11.305
76338SOL    HW230854   3.467   1.677  11.249
76339SOL     OW30855   9.498   5.510   4.714
76339SOL    HW130856   9.543   5.464   4.643
76339SOL    HW230857   9.470   5.440   4.773
76340SOL     OW30858   8.044   3.982   5.352
76340SOL    HW130859   7.973   4.040   5.379
76340SOL    HW230860   8.035   3.905   5.407
76341SOL     OW30861  12.242   9.631   2.965
76341SOL    HW130862  12.177   9.698   2.988
76341SOL    HW230863  12.312   9.642   3.030
76342SOL     OW30864   9.067   9.774  10.504
76342SOL    HW130865   8.975   9.784  10.531
76342SOL    HW230866   9.084   9.680  10.512
76343SOL     OW30867   2.986   6.222   1.314
76343SOL    HW130868   2.922   6.258   1.374
76343SOL    HW230869   2.986   6.128   1.331
76344SOL     OW30870   0.927   6.254   3.039
76344SOL    HW130871   1.013   6.245   2.999
76344SOL    HW230872   0.876   6.180   3.006
76345SOL     OW30873   1.741   2.464   2.068
76345SOL    HW130874   1.814   2.418   2.109
76345SOL    HW230875   1.715   2.408   1.995
76346SOL     OW30876   2.709   3.288  11.787
76346SOL    HW130877   2.763   3.350  11.835
76346SOL    HW230878   2.758   3.206  11.787
76347SOL     OW30879  13.481   3.121   6.496
76347SOL    HW130880  13.511   3.131   6.406
76347SOL    HW230881  13.418   3.049   6.493
76348SOL     OW30882   5.727  13.516   1.647
76348SOL    HW130883   5.806  13.561   1.616
76348SOL    HW230884   5.739  13.511   1.742
76349SOL     OW30885  11.029  11.600  10.702
76349SOL    HW130886  10.937  11.578  10.687
76349SOL    HW230887  11.069  11.593  10.615
76350SOL     OW30888   7.955  10.976  13.411
76350SOL    HW130889   7.872  11.015  13.437
76350SOL    HW230890   8.007  11.050  13.379
76351SOL     OW30891   8.093   6.436  11.838
76351SOL    HW130892   8.076   6.522  11.877
76351SOL    HW230893   8.153   6.393  11.899
76352SOL     OW30894  13.177   9.489   8.168
76352SOL    HW130895  13.206   9.419   8.109
76352SOL    HW230896  13.118   9.446   8.229
76353SOL     OW30897  13.036  11.951  12.022
76353SOL    HW130898  13.055  12.026  11.965
76353SOL    HW230899  12.998  11.886  11.964
76354SOL     OW30900  10.415   6.927   7.756
76354SOL    HW130901  10.452   6.971   7.833
76354SOL    HW230902  10.321   6.930   7.770
76355SOL     OW30903   3.768   0.886   5.339
76355SOL    HW130904   3.778   0.796   5.306
76355SOL    HW230905   3.784   0.941   5.262
76356SOL     OW30906   7.406   0.594   1.404
76356SOL    HW130907   7.498   0.578   1.422
76356SOL    HW230908   7.372   0.637   1.483
76357SOL     OW30909   2.230  10.282   7.131
76357SOL    HW130910   2.314  10.239   7.114
76357SOL    HW230911   2.234  10.308   7.223
76358SOL     OW30912  10.065   2.165  10.449
76358SOL    HW130913   9.999   2.153  10.517
76358SOL    HW230914  10.016   2.166  10.367
76359SOL     OW30915   9.640   5.857  12.473
76359SOL    HW130916   9.622   5.800  12.549
76359SOL    HW230917   9.554   5.873  12.434
76360SOL     OW30918  10.735   9.982   3.847
76360SOL    HW130919  10.825   9.961   3.824
76360SOL    HW230920  10.741  10.034   3.927
76361SOL     OW30921  13.878   7.892   5.853
76361SOL    HW130922  13.843   7.859   5.935
76361SOL    HW230923  13.802   7.931   5.809
76362SOL     OW30924  10.838   8.120   4.945
76362SOL    HW130925  10.764   8.065   4.919
76362SOL    HW230926  10.902   8.059   4.982
76363SOL     OW30927  14.434  10.662   4.242
76363SOL    HW130928  14.390  10.661   4.157
76363SOL    HW230929  14.412  10.748   4.278
76364SOL     OW30930   1.791   8.660   2.505
76364SOL    HW130931   1.769   8.706   2.586
76364SOL    HW230932   1.736   8.702   2.438
76365SOL     OW30933   3.937   5.586  12.997
76365SOL    HW130934   4.001   5.629  12.941
76365SOL    HW230935   3.877   5.544  12.936
76366SOL     OW30936   8.851  14.553   1.492
76366SOL    HW130937   8.930  14.598   1.461
76366SOL    HW230938   8.830  14.491   1.422
76367SOL     OW30939   0.034   4.649   8.493
76367SOL    HW130940  14.855   4.635   8.420
76367SOL    HW230941   0.021   4.574   8.550
76368SOL     OW30942   7.158  11.952  12.863
76368SOL    HW130943   7.214  12.013  12.912
76368SOL    HW230944   7.166  11.869  12.910
76369SOL     OW30945   8.004   3.795   6.722
76369SOL    HW130946   7.986   3.724   6.783
76369SOL    HW230947   7.973   3.762   6.637
76370SOL     OW30948  12.822   9.508  11.461
76370SOL    HW130949  12.898   9.452  11.477
76370SOL    HW230950  12.804   9.549  11.545
76371SOL     OW30951  12.941   0.873   3.747
76371SOL    HW130952  12.871   0.852   3.808
76371SOL    HW230953  12.968   0.788   3.711
76372SOL     OW30954   0.036   5.058   3.497
76372SOL    HW130955   0.026   5.036   3.404
76372SOL    HW230956   0.103   4.998   3.528
76373SOL     OW30957   8.203   8.007   3.139
76373SOL    HW130958   8.205   7.912   3.132
76373SOL    HW230959   8.112   8.031   3.123
76374SOL     OW30960   2.284   5.661   7.585
76374SOL    HW130961   2.297   5.754   7.568
76374SOL    HW230962   2.366   5.632   7.625
76375SOL     OW30963   8.382  13.077  11.918
76375SOL    HW130964   8.472  13.078  11.886
76375SOL    HW230965   8.330  13.109  11.844
76376SOL     OW30966   3.648   9.793   2.604
76376SOL    HW130967   3.569   9.787   2.658
76376SOL    HW230968   3.682   9.703   2.603
76377SOL     OW30969   7.093   3.185  10.219
76377SOL    HW130970   7.091   3.146  10.132
76377SOL    HW230971   7.178   3.228  10.225
76378SOL     OW30972   0.711  12.512  13.485
76378SOL    HW130973   0.764  12.438  13.456
76378SOL    HW230974   0.774  12.581  13.506
76379SOL     OW30975  11.307   7.929  11.186
76379SOL    HW130976  11.298   7.964  11.098
76379SOL    HW230977  11.231   7.962  11.234
76380SOL     OW30978   7.871   6.406   5.754
76380SOL    HW130979   7.800   6.346   5.778
76380SOL    HW230980   7.837   6.493   5.774
76381SOL     OW30981  13.723   0.066   1.882
76381SOL    HW130982  13.683   0.054   1.796
76381SOL    HW230983  13.804   0.113   1.865
76382SOL     OW30984   8.714  12.949   3.391
76382SOL    HW130985   8.689  13.033   3.430
76382SOL    HW230986   8.776  12.911   3.453
76383SOL     OW30987   5.671   8.617   1.859
76383SOL    HW130988   5.637   8.589   1.774
76383SOL    HW230989   5.626   8.699   1.877
76384SOL     OW30990   3.348  12.448  10.712
76384SOL    HW130991   3.268  12.492  10.739
76384SOL    HW230992   3.400  12.441  10.793
76385SOL     OW30993   1.555  13.195  14.598
76385SOL    HW130994   1.609  13.121  14.627
76385SOL    HW230995   1.512  13.225  14.678
76386SOL     OW30996   2.242   4.195   4.550
76386SOL    HW130997   2.279   4.229   4.631
76386SOL    HW230998   2.181   4.262   4.521
76387SOL     OW30999   5.690   5.698   5.514
76387SOL    HW131000   5.597   5.711   5.533
76387SOL    HW231001   5.734   5.713   5.598
76388SOL     OW31002   1.307   0.270   6.420
76388SOL    HW131003   1.266   0.316   6.493
76388SOL    HW231004   1.243   0.275   6.349
76389SOL     OW31005   3.550   6.661   0.507
76389SOL    HW131006   3.498   6.615   0.441
76389SOL    HW231007   3.495   6.734   0.535
76390SOL     OW31008   6.566  13.070   5.604
76390SOL    HW131009   6.595  12.986   5.641
76390SOL    HW231010   6.472  13.072   5.618
76391SOL     OW31011   1.304  10.311  12.491
76391SOL    HW131012   1.323  10.307  12.397
76391SOL    HW231013   1.270  10.224  12.512
76392SOL     OW31014  12.833   5.049   4.512
76392SOL    HW131015  12.816   4.970   4.461
76392SOL    HW231016  12.805   5.121   4.455
76393SOL     OW31017   5.113   9.649   3.528
76393SOL    HW131018   5.118   9.716   3.596
76393SOL    HW231019   5.199   9.649   3.486
76394SOL     OW31020   0.615  10.427   4.989
76394SOL    HW131021   0.697  10.397   4.951
76394SOL    HW231022   0.551  10.420   4.918
76395SOL     OW31023  13.118   6.999  11.746
76395SOL    HW131024  13.212   6.989  11.761
76395SOL    HW231025  13.077   6.943  11.812
76396SOL     OW31026   9.793  10.025  10.866
76396SOL    HW131027   9.783  10.107  10.915
76396SOL    HW231028   9.780  10.050  10.774
76397SOL     OW31029  13.956  10.726   8.102
76397SOL    HW131030  13.977  10.714   8.195
76397SOL    HW231031  14.041  10.744   8.061
76398SOL     OW31032   7.621   9.229   9.825
76398SOL    HW131033   7.540   9.280   9.822
76398SOL    HW231034   7.690   9.290   9.799
76399SOL     OW31035   3.164  10.636   7.135
76399SOL    HW131036   3.222  10.646   7.060
76399SOL    HW231037   3.077  10.651   7.100
76400SOL     OW31038   4.275   5.041  10.603
76400SOL    HW131039   4.231   5.108  10.656
76400SOL    HW231040   4.215   4.966  10.604
76401SOL     OW31041   7.623  12.767   0.556
76401SOL    HW131042   7.625  12.862   0.561
76401SOL    HW231043   7.712  12.740   0.576
76402SOL     OW31044  13.418  10.542  12.188
76402SOL    HW131045  13.367  10.609  12.142
76402SOL    HW231046  13.400  10.558  12.281
76403SOL     OW31047   3.886   3.357   8.425
76403SOL    HW131048   3.965   3.410   8.421
76403SOL    HW231049   3.912   3.272   8.388
76404SOL     OW31050   4.150   6.944   3.224
76404SOL    HW131051   4.120   6.956   3.134
76404SOL    HW231052   4.208   7.019   3.241
76405SOL     OW31053   9.681   0.302  10.156
76405SOL    HW131054   9.600   0.335  10.195
76405SOL    HW231055   9.655   0.225  10.106
76406SOL     OW31056   8.682   8.973   9.354
76406SOL    HW131057   8.727   8.936   9.429
76406SOL    HW231058   8.719   9.061   9.345
76407SOL     OW31059  10.010   2.026   3.891
76407SOL    HW131060   9.936   2.060   3.840
76407SOL    HW231061  10.000   1.931   3.889
76408SOL     OW31062   9.285   0.276  13.709
76408SOL    HW131063   9.196   0.299  13.681
76408SOL    HW231064   9.280   0.183  13.731
76409SOL     OW31065   4.027  12.418   4.481
76409SOL    HW131066   4.012  12.497   4.430
76409SOL    HW231067   3.946  12.367   4.472
76410SOL     OW31068   1.495   9.152   0.292
76410SOL    HW131069   1.485   9.059   0.313
76410SOL    HW231070   1.470   9.198   0.372
76411SOL     OW31071   3.674   3.938   1.451
76411SOL    HW131072   3.682   3.844   1.470
76411SOL    HW231073   3.600   3.944   1.392
76412SOL     OW31074   1.004   1.579  13.007
76412SOL    HW131075   0.910   1.592  12.999
76412SOL    HW231076   1.038   1.597  12.920
76413SOL     OW31077   0.553  13.311   8.773
76413SOL    HW131078   0.499  13.327   8.696
76413SOL    HW231079   0.637  13.353   8.754
76414SOL     OW31080   9.520   1.396   0.262
76414SOL    HW131081   9.497   1.329   0.327
76414SOL    HW231082   9.612   1.416   0.280
76415SOL     OW31083   1.644   0.359   8.856
76415SOL    HW131084   1.679   0.272   8.873
76415SOL    HW231085   1.571   0.345   8.796
76416SOL     OW31086   9.389   9.550  13.857
76416SOL    HW131087   9.469   9.593  13.827
76416SOL    HW231088   9.345   9.616  13.910
76417SOL     OW31089   3.198  13.123  10.139
76417SOL    HW131090   3.146  13.090  10.065
76417SOL    HW231091   3.198  13.218  10.128
76418SOL     OW31092   3.489   6.172  11.015
76418SOL    HW131093   3.448   6.188  10.930
76418SOL    HW231094   3.560   6.111  10.996
76419SOL     OW31095   0.483   5.833  14.612
76419SOL    HW131096   0.534   5.842  14.531
76419SOL    HW231097   0.432   5.913  14.618
76420SOL     OW31098   4.320   0.157   2.683
76420SOL    HW131099   4.329   0.252   2.685
76420SOL    HW231100   4.232   0.140   2.717
76421SOL     OW31101   3.180   9.376  13.005
76421SOL    HW131102   3.204   9.382  13.097
76421SOL    HW231103   3.188   9.465  12.972
76422SOL     OW31104   4.680   9.353   2.857
76422SOL    HW131105   4.590   9.366   2.888
76422SOL    HW231106   4.707   9.270   2.895
76423SOL     OW31107   6.008   7.775   1.817
76423SOL    HW131108   5.947   7.822   1.874
76423SOL    HW231109   6.094   7.811   1.840
76424SOL     OW31110   1.219   9.287   1.964
76424SOL    HW131111   1.207   9.353   1.896
76424SOL    HW231112   1.131   9.266   1.994
76425SOL     OW31113  12.326   7.569   4.098
76425SOL    HW131114  12.318   7.526   4.013
76425SOL    HW231115  12.380   7.510   4.151
76426SOL     OW31116  13.605  11.816   0.383
76426SOL    HW131117  13.590  11.722   0.396
76426SOL    HW231118  13.583  11.855   0.467
76427SOL     OW31119  13.386  11.476   0.831
76427SOL    HW131120  13.329  11.412   0.788
76427SOL    HW231121  13.402  11.440   0.918
76428SOL     OW31122  12.754  13.345   2.513
76428SOL    HW131123  12.693  13.314   2.447
76428SOL    HW231124  12.816  13.273   2.526
76429SOL     OW31125   0.208  10.870   8.005
76429SOL    HW131126   0.211  10.922   8.085
76429SOL    HW231127   0.176  10.784   8.034
76430SOL     OW31128   2.357   4.216   4.790
76430SOL    HW131129   2.324   4.171   4.867
76430SOL    HW231130   2.446   4.182   4.778
76431SOL     OW31131  13.406   5.666   3.564
76431SOL    HW131132  13.481   5.724   3.552
76431SOL    HW231133  13.441   5.579   3.545
76432SOL     OW31134   6.320   0.891  11.018
76432SOL    HW131135   6.305   0.981  10.990
76432SOL    HW231136   6.270   0.838  10.956
76433SOL     OW31137  14.604   9.396   3.898
76433SOL    HW131138  14.539   9.437   3.956
76433SOL    HW231139  14.558   9.387   3.814
76434SOL     OW31140   6.604   4.235  14.791
76434SOL    HW131141   6.576   4.282  14.712
76434SOL    HW231142   6.648   4.301  14.844
76435SOL     OW31143   5.672   3.828  14.346
76435SOL    HW131144   5.735   3.892  14.378
76435SOL    HW231145   5.656   3.854  14.255
76436SOL     OW31146   5.074  13.536  14.228
76436SOL    HW131147   5.107  13.499  14.310
76436SOL    HW231148   5.002  13.478  14.203
76437SOL     OW31149   8.757   0.921   0.043
76437SOL    HW131150   8.733   0.843  14.875
76437SOL    HW231151   8.849   0.935   0.024
76438SOL     OW31152   7.198   5.926  10.917
76438SOL    HW131153   7.127   5.982  10.885
76438SOL    HW231154   7.163   5.837  10.912
76439SOL     OW31155  10.962   1.884   0.001
76439SOL    HW131156  11.039   1.912   0.051
76439SOL    HW231157  10.946   1.956  14.822
76440SOL     OW31158   1.536  14.743  11.891
76440SOL    HW131159   1.619  14.791  11.892
76440SOL    HW231160   1.549  14.670  11.950
76441SOL     OW31161  11.485   5.424   9.866
76441SOL    HW131162  11.552   5.481   9.903
76441SOL    HW231163  11.434   5.395   9.941
76442SOL     OW31164   8.378   3.456  11.315
76442SOL    HW131165   8.320   3.399  11.264
76442SOL    HW231166   8.346   3.545  11.296
76443SOL     OW31167   9.906   7.034  10.563
76443SOL    HW131168   9.950   7.036  10.647
76443SOL    HW231169   9.858   6.952  10.562
76444SOL     OW31170   4.608   4.185  13.341
76444SOL    HW131171   4.540   4.232  13.389
76444SOL    HW231172   4.585   4.196  13.249
76445SOL     OW31173   2.713   9.201   9.524
76445SOL    HW131174   2.632   9.177   9.568
76445SOL    HW231175   2.766   9.121   9.527
76446SOL     OW31176   6.685   3.587   8.596
76446SOL    HW131177   6.697   3.529   8.672
76446SOL    HW231178   6.754   3.652   8.604
76447SOL     OW31179  13.308  10.595   8.236
76447SOL    HW131180  13.301  10.606   8.331
76447SOL    HW231181  13.392  10.635   8.213
76448SOL     OW31182   1.590   7.015   2.843
76448SOL    HW131183   1.522   7.073   2.810
76448SOL    HW231184   1.658   7.073   2.877
76449SOL     OW31185  13.534   4.965   9.627
76449SOL    HW131186  13.597   4.975   9.699
76449SOL    HW231187  13.519   5.054   9.596
76450SOL     OW31188   9.560   5.055  13.494
76450SOL    HW131189   9.506   5.100  13.429
76450SOL    HW231190   9.538   5.098  13.577
76451SOL     OW31191  11.759   0.597  13.259
76451SOL    HW131192  11.824   0.527  13.269
76451SOL    HW231193  11.772   0.629  13.170
76452SOL     OW31194  10.709   0.744  10.663
76452SOL    HW131195  10.634   0.780  10.711
76452SOL    HW231196  10.701   0.782  10.575
76453SOL     OW31197   8.094   9.659  12.205
76453SOL    HW131198   8.163   9.711  12.247
76453SOL    HW231199   8.095   9.688  12.114
76454SOL     OW31200   0.960   4.891  10.745
76454SOL    HW131201   1.040   4.903  10.694
76454SOL    HW231202   0.896   4.950  10.704
76455SOL     OW31203   0.818   6.425  13.166
76455SOL    HW131204   0.900   6.471  13.150
76455SOL    HW231205   0.777   6.473  13.238
76456SOL     OW31206   6.171   8.984  12.804
76456SOL    HW131207   6.147   8.952  12.718
76456SOL    HW231208   6.162   9.079  12.798
76457SOL     OW31209  14.329   9.818   2.197
76457SOL    HW131210  14.236   9.813   2.219
76457SOL    HW231211  14.368   9.872   2.265
76458SOL     OW31212  14.603   3.015   0.599
76458SOL    HW131213  14.604   2.988   0.507
76458SOL    HW231214  14.694   3.006   0.627
76459SOL     OW31215   4.077   4.612   4.190
76459SOL    HW131216   4.051   4.526   4.158
76459SOL    HW231217   4.160   4.631   4.144
76460SOL     OW31218   1.103   0.458  12.962
76460SOL    HW131219   1.068   0.376  12.927
76460SOL    HW231220   1.162   0.431  13.032
76461SOL     OW31221  11.630   7.964   2.513
76461SOL    HW131222  11.612   7.973   2.607
76461SOL    HW231223  11.608   8.049   2.476
76462SOL     OW31224  10.025  12.442   3.497
76462SOL    HW131225  10.079  12.514   3.466
76462SOL    HW231226   9.967  12.421   3.424
76463SOL     OW31227  10.946   5.476   2.871
76463SOL    HW131228  10.984   5.474   2.783
76463SOL    HW231229  11.021   5.468   2.930
76464SOL     OW31230   8.239   2.774   4.027
76464SOL    HW131231   8.227   2.868   4.038
76464SOL    HW231232   8.171   2.734   4.080
76465SOL     OW31233   0.992   0.546   3.054
76465SOL    HW131234   1.065   0.488   3.075
76465SOL    HW231235   0.915   0.499   3.085
76466SOL     OW31236   8.443   1.431  13.525
76466SOL    HW131237   8.372   1.426  13.589
76466SOL    HW231238   8.399   1.441  13.441
76467SOL     OW31239   2.465   1.619   3.095
76467SOL    HW131240   2.494   1.681   3.027
76467SOL    HW231241   2.517   1.540   3.079
76468SOL     OW31242  11.339   8.304  14.744
76468SOL    HW131243  11.364   8.359  14.669
76468SOL    HW231244  11.268   8.250  14.711
76469SOL     OW31245   5.682   7.294   4.019
76469SOL    HW131246   5.639   7.237   3.955
76469SOL    HW231247   5.702   7.373   3.970
76470SOL     OW31248  10.198  11.436  13.679
76470SOL    HW131249  10.166  11.432  13.769
76470SOL    HW231250  10.210  11.530  13.662
76471SOL     OW31251   9.881  11.617   4.274
76471SOL    HW131252   9.895  11.662   4.190
76471SOL    HW231253   9.793  11.582   4.268
76472SOL     OW31254   4.839   7.576   6.997
76472SOL    HW131255   4.877   7.538   6.919
76472SOL    HW231256   4.751   7.601   6.971
76473SOL     OW31257  10.949   1.548   2.468
76473SOL    HW131258  10.986   1.527   2.554
76473SOL    HW231259  11.025   1.569   2.414
76474SOL     OW31260   5.691  10.563   4.662
76474SOL    HW131261   5.751  10.568   4.736
76474SOL    HW231262   5.624  10.629   4.679
76475SOL     OW31263   6.111   1.007  10.717
76475SOL    HW131264   6.158   1.071  10.664
76475SOL    HW231265   6.113   1.043  10.806
76476SOL     OW31266   6.037   3.357   4.832
76476SOL    HW131267   6.061   3.363   4.924
76476SOL    HW231268   6.020   3.448   4.806
76477SOL     OW31269   5.278   4.688  12.996
76477SOL    HW131270   5.223   4.725  13.065
76477SOL    HW231271   5.354   4.746  12.991
76478SOL     OW31272   9.374   4.226   1.144
76478SOL    HW131273   9.399   4.281   1.069
76478SOL    HW231274   9.279   4.231   1.147
76479SOL     OW31275  13.143   1.669   2.560
76479SOL    HW131276  13.093   1.748   2.539
76479SOL    HW231277  13.220   1.701   2.607
76480SOL     OW31278   6.285   2.422  14.262
76480SOL    HW131279   6.317   2.441  14.350
76480SOL    HW231280   6.280   2.507  14.219
76481SOL     OW31281   7.733   3.722   3.074
76481SOL    HW131282   7.646   3.680   3.074
76481SOL    HW231283   7.719   3.805   3.120
76482SOL     OW31284  10.079   7.885   3.279
76482SOL    HW131285  10.025   7.957   3.246
76482SOL    HW231286  10.113   7.917   3.363
76483SOL     OW31287  10.464   0.454  11.991
76483SOL    HW131288  10.508   0.376  11.957
76483SOL    HW231289  10.460   0.440  12.085
76484SOL     OW31290   8.772   5.009  13.062
76484SOL    HW131291   8.773   5.025  12.967
76484SOL    HW231292   8.687   4.969  13.079
76485SOL     OW31293   1.963   1.464   4.227
76485SOL    HW131294   1.974   1.516   4.307
76485SOL    HW231295   2.038   1.486   4.173
76486SOL     OW31296   3.568   1.252  10.422
76486SOL    HW131297   3.478   1.277  10.403
76486SOL    HW231298   3.563   1.208  10.507
76487SOL     OW31299   2.590   4.985  14.423
76487SOL    HW131300   2.526   4.914  14.421
76487SOL    HW231301   2.538   5.063  14.401
76488SOL     OW31302   9.742   3.313   6.914
76488SOL    HW131303   9.714   3.247   6.851
76488SOL    HW231304   9.668   3.374   6.919
76489SOL     OW31305  13.781   9.833   4.703
76489SOL    HW131306  13.717   9.766   4.727
76489SOL    HW231307  13.770   9.902   4.768
76490SOL     OW31308   6.123   9.758  11.052
76490SOL    HW131309   6.132   9.673  11.008
76490SOL    HW231310   6.038   9.753  11.096
76491SOL     OW31311   2.046   9.261  10.023
76491SOL    HW131312   2.045   9.346  10.067
76491SOL    HW231313   2.132   9.225  10.044
76492SOL     OW31314  10.868  13.213   9.987
76492SOL    HW131315  10.839  13.274   9.919
76492SOL    HW231316  10.942  13.256  10.029
76493SOL     OW31317   4.826   3.289  12.827
76493SOL    HW131318   4.915   3.321  12.840
76493SOL    HW231319   4.802   3.249  12.911
76494SOL     OW31320   6.771   1.057  14.545
76494SOL    HW131321   6.695   1.032  14.598
76494SOL    HW231322   6.845   1.047  14.604
76495SOL     OW31323  12.932   1.035  13.752
76495SOL    HW131324  12.902   0.955  13.796
76495SOL    HW231325  12.856   1.066  13.703
76496SOL     OW31326  14.546  13.853   8.564
76496SOL    HW131327  14.571  13.945   8.570
76496SOL    HW231328  14.478  13.843   8.631
76497SOL     OW31329  10.492   1.444   2.962
76497SOL    HW131330  10.559   1.460   2.895
76497SOL    HW231331  10.538   1.451   3.045
76498SOL     OW31332   9.938  12.359  14.803
76498SOL    HW131333   9.883  12.308  14.862
76498SOL    HW231334  10.021  12.370  14.851
76499SOL     OW31335   2.748   9.347   6.466
76499SOL    HW131336   2.670   9.292   6.473
76499SOL    HW231337   2.767   9.373   6.557
76500SOL     OW31338   4.526   1.818  13.410
76500SOL    HW131339   4.454   1.840  13.352
76500SOL    HW231340   4.552   1.901  13.449
76501SOL     OW31341  12.645   5.614   3.386
76501SOL    HW131342  12.692   5.531   3.379
76501SOL    HW231343  12.712   5.677   3.412
76502SOL     OW31344   4.610  13.838  11.902
76502SOL    HW131345   4.658  13.822  11.984
76502SOL    HW231346   4.554  13.761  11.893
76503SOL     OW31347   4.037  14.320  14.863
76503SOL    HW131348   4.047  14.401  14.813
76503SOL    HW231349   4.125  14.282  14.864
76504SOL     OW31350   6.282   5.490   5.215
76504SOL    HW131351   6.248   5.402   5.198
76504SOL    HW231352   6.226   5.548   5.163
76505SOL     OW31353   3.033  13.770   5.246
76505SOL    HW131354   3.076  13.829   5.309
76505SOL    HW231355   2.975  13.828   5.196
76506SOL     OW31356  14.720  11.693  11.195
76506SOL    HW131357  14.677  11.660  11.273
76506SOL    HW231358  14.810  11.710  11.223
76507SOL     OW31359  10.601  13.768  11.610
76507SOL    HW131360  10.681  13.717  11.621
76507SOL    HW231361  10.562  13.735  11.529
76508SOL     OW31362  11.175   4.089   5.264
76508SOL    HW131363  11.157   4.059   5.176
76508SOL    HW231364  11.134   4.024   5.321
76509SOL     OW31365   9.086  11.453   3.265
76509SOL    HW131366   9.128  11.538   3.248
76509SOL    HW231367   9.019  11.446   3.198
76510SOL     OW31368   6.768   7.669   1.484
76510SOL    HW131369   6.686   7.672   1.532
76510SOL    HW231370   6.745   7.631   1.399
76511SOL     OW31371  13.204   9.503   9.434
76511SOL    HW131372  13.149   9.577   9.458
76511SOL    HW231373  13.221   9.457   9.516
76512SOL     OW31374  12.918   5.322   6.401
76512SOL    HW131375  12.825   5.344   6.395
76512SOL    HW231376  12.920   5.226   6.392
76513SOL     OW31377   9.520   4.006   7.593
76513SOL    HW131378   9.556   3.920   7.614
76513SOL    HW231379   9.520   4.053   7.677
76514SOL     OW31380   7.027   0.268   5.084
76514SOL    HW131381   6.932   0.273   5.075
76514SOL    HW231382   7.045   0.298   5.173
76515SOL     OW31383  10.903  13.252   8.981
76515SOL    HW131384  10.864  13.165   8.977
76515SOL    HW231385  10.931  13.262   9.072
76516SOL     OW31386   2.867   3.503  11.891
76516SOL    HW131387   2.921   3.543  11.823
76516SOL    HW231388   2.884   3.555  11.970
76517SOL     OW31389  12.154  14.371   6.225
76517SOL    HW131390  12.149  14.467   6.225
76517SOL    HW231391  12.154  14.347   6.318
76518SOL     OW31392  12.265   5.848  14.566
76518SOL    HW131393  12.224   5.932  14.587
76518SOL    HW231394  12.328   5.869  14.497
76519SOL     OW31395   3.653   2.015   6.826
76519SOL    HW131396   3.730   2.028   6.881
76519SOL    HW231397   3.606   2.098   6.830
76520SOL     OW31398  11.618   4.663   2.515
76520SOL    HW131399  11.635   4.628   2.427
76520SOL    HW231400  11.534   4.708   2.506
76521SOL     OW31401   7.982   7.801   7.716
76521SOL    HW131402   8.060   7.833   7.669
76521SOL    HW231403   7.910   7.855   7.683
76522SOL     OW31404   1.119   6.468  11.199
76522SOL    HW131405   1.153   6.387  11.161
76522SOL    HW231406   1.031   6.445  11.229
76523SOL     OW31407  13.452   0.075   3.867
76523SOL    HW131408  13.481  14.877   3.823
76523SOL    HW231409  13.504   0.078   3.948
76524SOL     OW31410  11.749   2.989   0.081
76524SOL    HW131411  11.653   2.999   0.075
76524SOL    HW231412  11.784   3.060   0.027
76525SOL     OW31413   0.031   7.898   3.682
76525SOL    HW131414   0.010   7.945   3.601
76525SOL    HW231415  14.879   7.810   3.667
76526SOL     OW31416  12.612  14.412   8.893
76526SOL    HW131417  12.518  14.429   8.898
76526SOL    HW231418  12.652  14.492   8.930
76527SOL     OW31419   5.300   5.198  14.226
76527SOL    HW131420   5.284   5.109  14.258
76527SOL    HW231421   5.310   5.251  14.306
76528SOL     OW31422  10.202   7.964  13.563
76528SOL    HW131423  10.125   7.936  13.612
76528SOL    HW231424  10.274   7.960  13.626
76529SOL     OW31425  14.184   2.683   0.351
76529SOL    HW131426  14.171   2.668   0.258
76529SOL    HW231427  14.137   2.765   0.369
76530SOL     OW31428   5.007   0.515   1.238
76530SOL    HW131429   4.944   0.447   1.215
76530SOL    HW231430   4.953   0.584   1.277
76531SOL     OW31431   8.148   8.779   5.166
76531SOL    HW131432   8.102   8.856   5.199
76531SOL    HW231433   8.114   8.707   5.219
76532SOL     OW31434   9.460  11.589   0.693
76532SOL    HW131435   9.430  11.673   0.659
76532SOL    HW231436   9.554  11.586   0.672
76533SOL     OW31437  11.657  14.119   8.850
76533SOL    HW131438  11.575  14.162   8.875
76533SOL    HW231439  11.705  14.109   8.932
76534SOL     OW31440   1.768  12.828   6.736
76534SOL    HW131441   1.856  12.812   6.769
76534SOL    HW231442   1.781  12.862   6.648
76535SOL     OW31443   2.100   0.412   6.396
76535SOL    HW131444   2.092   0.380   6.486
76535SOL    HW231445   2.084   0.335   6.342
76536SOL     OW31446  10.615  10.959   4.784
76536SOL    HW131447  10.519  10.953   4.788
76536SOL    HW231448  10.641  10.976   4.875
76537SOL     OW31449   0.249   0.851   3.280
76537SOL    HW131450   0.168   0.893   3.309
76537SOL    HW231451   0.282   0.907   3.210
76538SOL     OW31452   7.473   6.327   3.895
76538SOL    HW131453   7.495   6.245   3.851
76538SOL    HW231454   7.457   6.302   3.986
76539SOL     OW31455   2.739  13.183   3.584
76539SOL    HW131456   2.743  13.215   3.494
76539SOL    HW231457   2.718  13.261   3.637
76540SOL     OW31458   9.939   8.786   7.530
76540SOL    HW131459   9.954   8.849   7.460
76540SOL    HW231460   9.855   8.745   7.509
76541SOL     OW31461   6.151  13.572   9.121
76541SOL    HW131462   6.218  13.551   9.186
76541SOL    HW231463   6.142  13.667   9.125
76542SOL     OW31464   2.136  12.850   5.015
76542SOL    HW131465   2.180  12.932   4.992
76542SOL    HW231466   2.157  12.790   4.944
76543SOL     OW31467  14.083  14.185   3.731
76543SOL    HW131468  14.053  14.108   3.779
76543SOL    HW231469  14.112  14.151   3.646
76544SOL     OW31470  14.540   3.889   9.963
76544SOL    HW131471  14.623   3.850   9.988
76544SOL    HW231472  14.560   3.938   9.884
76545SOL     OW31473   6.016   5.071   8.379
76545SOL    HW131474   6.080   5.023   8.327
76545SOL    HW231475   6.040   5.163   8.367
76546SOL     OW31476   0.005  10.762  11.429
76546SOL    HW131477  14.865  10.709  11.353
76546SOL    HW231478  14.810  10.755  11.486
76547SOL     OW31479  12.704   4.862   8.949
76547SOL    HW131480  12.741   4.923   8.886
76547SOL    HW231481  12.754   4.875   9.029
76548SOL     OW31482  12.104   7.512   0.060
76548SOL    HW131483  12.169   7.522   0.129
76548SOL    HW231484  12.024   7.550   0.097
76549SOL     OW31485   7.955   0.401   1.497
76549SOL    HW131486   7.969   0.316   1.540
76549SOL    HW231487   8.040   0.444   1.502
76550SOL     OW31488  13.549   5.476   3.106
76550SOL    HW131489  13.543   5.544   3.038
76550SOL    HW231490  13.491   5.507   3.175
76551SOL     OW31491   3.435   1.108  12.865
76551SOL    HW131492   3.343   1.086  12.875
76551SOL    HW231493   3.442   1.141  12.776
76552SOL     OW31494  14.511   7.643   9.250
76552SOL    HW131495  14.470   7.690   9.177
76552SOL    HW231496  14.604   7.668   9.245
76553SOL     OW31497  14.040   9.086  13.989
76553SOL    HW131498  14.000   9.010  14.031
76553SOL    HW231499  14.041   9.065  13.896
76554SOL     OW31500   7.080  10.110   8.785
76554SOL    HW131501   7.087  10.147   8.697
76554SOL    HW231502   6.991  10.133   8.813
76555SOL     OW31503   9.540  14.500   0.005
76555SOL    HW131504   9.576  14.424   0.050
76555SOL    HW231505   9.611  14.530  14.830
76556SOL     OW31506   4.384  10.731   2.922
76556SOL    HW131507   4.332  10.674   2.866
76556SOL    HW231508   4.329  10.748   2.998
76557SOL     OW31509   2.089   7.982  10.745
76557SOL    HW131510   2.111   7.889  10.744
76557SOL    HW231511   2.121   8.015  10.661
76558SOL     OW31512   9.377   7.550  13.076
76558SOL    HW131513   9.378   7.544  12.981
76558SOL    HW231514   9.436   7.481  13.106
76559SOL     OW31515   2.038   9.486   9.168
76559SOL    HW131516   2.107   9.428   9.136
76559SOL    HW231517   1.985   9.431   9.225
76560SOL     OW31518   5.004   8.232   3.111
76560SOL    HW131519   4.995   8.173   3.036
76560SOL    HW231520   5.086   8.207   3.153
76561SOL     OW31521   7.877   8.288   0.072
76561SOL    HW131522   7.889   8.380   0.049
76561SOL    HW231523   7.811   8.256   0.011
76562SOL     OW31524   7.483   8.525   4.898
76562SOL    HW131525   7.436   8.452   4.857
76562SOL    HW231526   7.432   8.546   4.976
76563SOL     OW31527   1.180  14.193   1.275
76563SOL    HW131528   1.268  14.223   1.298
76563SOL    HW231529   1.190  14.099   1.258
76564SOL     OW31530   6.512  12.593  13.442
76564SOL    HW131531   6.601  12.615  13.414
76564SOL    HW231532   6.492  12.658  13.510
76565SOL     OW31533   4.587   5.430   5.691
76565SOL    HW131534   4.648   5.480   5.745
76565SOL    HW231535   4.621   5.439   5.602
76566SOL     OW31536   2.421  11.132   2.078
76566SOL    HW131537   2.469  11.051   2.093
76566SOL    HW231538   2.458  11.194   2.142
76567SOL     OW31539   8.702  14.467   8.299
76567SOL    HW131540   8.648  14.504   8.230
76567SOL    HW231541   8.693  14.529   8.372
76568SOL     OW31542  14.629   2.163   8.577
76568SOL    HW131543  14.555   2.152   8.637
76568SOL    HW231544  14.593   2.216   8.505
76569SOL     OW31545  14.234  14.808  14.772
76569SOL    HW131546  14.174  14.749  14.727
76569SOL    HW231547  14.213   0.013  14.738
76570SOL     OW31548  11.511   9.507   4.564
76570SOL    HW131549  11.432   9.472   4.524
76570SOL    HW231550  11.505   9.602   4.550
76571SOL     OW31551   8.677   7.890  10.536
76571SOL    HW131552   8.618   7.948  10.583
76571SOL    HW231553   8.627   7.809  10.524
76572SOL     OW31554   4.911  11.001   9.970
76572SOL    HW131555   4.900  11.046  10.055
76572SOL    HW231556   4.850  11.046   9.912
76573SOL     OW31557   8.257   1.630   8.813
76573SOL    HW131558   8.188   1.682   8.854
76573SOL    HW231559   8.229   1.539   8.825
76574SOL     OW31560  14.738   0.541   7.671
76574SOL    HW131561  14.811   0.555   7.611
76574SOL    HW231562  14.676   0.488   7.622
76575SOL     OW31563   0.358   7.995  12.190
76575SOL    HW131564   0.373   8.010  12.097
76575SOL    HW231565   0.433   7.944  12.219
76576SOL     OW31566   9.933   9.243   2.141
76576SOL    HW131567   9.995   9.205   2.204
76576SOL    HW231568   9.962   9.210   2.056
76577SOL     OW31569  11.621   9.973   7.115
76577SOL    HW131570  11.534   9.941   7.092
76577SOL    HW231571  11.680   9.927   7.055
76578SOL     OW31572   2.857   6.273  10.256
76578SOL    HW131573   2.936   6.224  10.276
76578SOL    HW231574   2.792   6.207  10.234
76579SOL     OW31575   0.705  11.542   4.950
76579SOL    HW131576   0.776  11.561   5.012
76579SOL    HW231577   0.709  11.448   4.936
76580SOL     OW31578   5.163   1.520   8.107
76580SOL    HW131579   5.095   1.513   8.174
76580SOL    HW231580   5.121   1.489   8.027
76581SOL     OW31581   2.276   2.957   7.068
76581SOL    HW131582   2.290   2.937   7.160
76581SOL    HW231583   2.311   2.881   7.021
76582SOL     OW31584   7.726   8.325  13.447
76582SOL    HW131585   7.708   8.405  13.497
76582SOL    HW231586   7.652   8.268  13.466
76583SOL     OW31587  10.503  10.744   0.115
76583SOL    HW131588  10.519  10.684   0.188
76583SOL    HW231589  10.411  10.729   0.091
76584SOL     OW31590   3.377   0.265   7.031
76584SOL    HW131591   3.360   0.210   6.954
76584SOL    HW231592   3.467   0.243   7.057
76585SOL     OW31593   5.210   7.755   7.935
76585SOL    HW131594   5.303   7.775   7.942
76585SOL    HW231595   5.176   7.820   7.873
76586SOL     OW31596   6.349   5.328  10.322
76586SOL    HW131597   6.329   5.265  10.252
76586SOL    HW231598   6.377   5.407  10.275
76587SOL     OW31599   6.033   8.782  13.451
76587SOL    HW131600   6.095   8.803  13.520
76587SOL    HW231601   6.087   8.771  13.373
76588SOL     OW31602   5.895   5.831  11.646
76588SOL    HW131603   5.812   5.859  11.684
76588SOL    HW231604   5.956   5.903  11.665
76589SOL     OW31605   0.397  12.667   0.776
76589SOL    HW131606   0.492  12.677   0.777
76589SOL    HW231607   0.370  12.705   0.692
76590SOL     OW31608   6.270   5.935  11.165
76590SOL    HW131609   6.250   5.996  11.094
76590SOL    HW231610   6.212   5.961  11.236
76591SOL     OW31611   8.522   7.087   7.643
76591SOL    HW131612   8.438   7.085   7.688
76591SOL    HW231613   8.581   7.037   7.700
76592SOL     OW31614   6.226  12.615   9.441
76592SOL    HW131615   6.160  12.663   9.491
76592SOL    HW231616   6.309  12.657   9.465
76593SOL     OW31617   3.004   7.445   2.779
76593SOL    HW131618   2.932   7.404   2.827
76593SOL    HW231619   3.082   7.397   2.807
76594SOL     OW31620   4.625   8.702   7.673
76594SOL    HW131621   4.697   8.696   7.611
76594SOL    HW231622   4.660   8.752   7.746
76595SOL     OW31623  10.340   2.190  13.747
76595SOL    HW131624  10.254   2.186  13.790
76595SOL    HW231625  10.329   2.258  13.680
76596SOL     OW31626   8.791   1.398   9.322
76596SOL    HW131627   8.835   1.474   9.283
76596SOL    HW231628   8.729   1.369   9.255
76597SOL     OW31629   7.195  13.656  12.509
76597SOL    HW131630   7.240  13.577  12.540
76597SOL    HW231631   7.249  13.728  12.542
76598SOL     OW31632   6.954  13.336  10.340
76598SOL    HW131633   6.914  13.384  10.413
76598SOL    HW231634   7.019  13.397  10.304
76599SOL     OW31635  12.840   6.609   4.168
76599SOL    HW131636  12.866   6.517   4.163
76599SOL    HW231637  12.750   6.611   4.137
76600SOL     OW31638  12.438  14.521  12.913
76600SOL    HW131639  12.459  14.562  12.829
76600SOL    HW231640  12.519  14.527  12.963
76601SOL     OW31641   2.803   9.655   3.261
76601SOL    HW131642   2.819   9.738   3.306
76601SOL    HW231643   2.707   9.647   3.259
76602SOL     OW31644   6.379   9.507   5.854
76602SOL    HW131645   6.451   9.466   5.901
76602SOL    HW231646   6.377   9.597   5.886
76603SOL     OW31647   7.961   7.813   9.731
76603SOL    HW131648   8.040   7.841   9.685
76603SOL    HW231649   7.992   7.789   9.819
76604SOL     OW31650   7.680   5.097   3.008
76604SOL    HW131651   7.613   5.029   3.009
76604SOL    HW231652   7.661   5.151   3.085
76605SOL     OW31653   6.478   0.954   4.366
76605SOL    HW131654   6.537   0.951   4.291
76605SOL    HW231655   6.432   1.037   4.358
76606SOL     OW31656   8.478  14.123   3.976
76606SOL    HW131657   8.561  14.138   4.020
76606SOL    HW231658   8.486  14.035   3.938
76607SOL     OW31659   2.130   4.127   0.934
76607SOL    HW131660   2.035   4.125   0.945
76607SOL    HW231661   2.163   4.152   1.020
76608SOL     OW31662   1.518  11.125   4.886
76608SOL    HW131663   1.549  11.145   4.974
76608SOL    HW231664   1.426  11.151   4.886
76609SOL     OW31665   7.964  14.141   4.625
76609SOL    HW131666   7.999  14.057   4.656
76609SOL    HW231667   7.877  14.120   4.591
76610SOL     OW31668  13.390   9.209  14.332
76610SOL    HW131669  13.377   9.174  14.244
76610SOL    HW231670  13.401   9.303  14.319
76611SOL     OW31671  14.131  12.950  13.859
76611SOL    HW131672  14.081  12.902  13.925
76611SOL    HW231673  14.102  13.041  13.869
76612SOL     OW31674   9.043   5.781   5.733
76612SOL    HW131675   9.017   5.865   5.771
76612SOL    HW231676   8.983   5.768   5.659
76613SOL     OW31677   6.859   9.746  14.486
76613SOL    HW131678   6.868   9.761  14.392
76613SOL    HW231679   6.840   9.833  14.522
76614SOL     OW31680   4.563  11.111   3.222
76614SOL    HW131681   4.536  11.171   3.291
76614SOL    HW231682   4.486  11.105   3.164
76615SOL     OW31683   0.431   8.170  10.651
76615SOL    HW131684   0.372   8.234  10.691
76615SOL    HW231685   0.386   8.087  10.659
76616SOL     OW31686   4.278   7.410  14.299
76616SOL    HW131687   4.231   7.431  14.380
76616SOL    HW231688   4.249   7.477  14.237
76617SOL     OW31689   6.820   1.289   3.111
76617SOL    HW131690   6.892   1.335   3.069
76617SOL    HW231691   6.858   1.205   3.139
76618SOL     OW31692   1.512  14.137   8.945
76618SOL    HW131693   1.422  14.159   8.971
76618SOL    HW231694   1.518  14.164   8.854
76619SOL     OW31695  14.036  10.618   4.027
76619SOL    HW131696  13.960  10.673   4.049
76619SOL    HW231697  14.072  10.592   4.111
76620SOL     OW31698  11.388  13.486   5.312
76620SOL    HW131699  11.468  13.450   5.351
76620SOL    HW231700  11.415  13.570   5.275
76621SOL     OW31701   3.410   5.083  14.258
76621SOL    HW131702   3.447   4.995  14.250
76621SOL    HW231703   3.358   5.080  14.338
76622SOL     OW31704   1.352   2.930  12.564
76622SOL    HW131705   1.411   2.987  12.613
76622SOL    HW231706   1.359   2.961  12.474
76623SOL     OW31707   3.565   6.468  12.641
76623SOL    HW131708   3.659   6.467  12.657
76623SOL    HW231709   3.529   6.407  12.705
76624SOL     OW31710   8.846  12.042   7.813
76624SOL    HW131711   8.794  12.122   7.814
76624SOL    HW231712   8.879  12.036   7.724
76625SOL     OW31713   5.867  10.008   3.342
76625SOL    HW131714   5.810  10.085   3.348
76625SOL    HW231715   5.832   9.958   3.269
76626SOL     OW31716   6.388   3.606   6.607
76626SOL    HW131717   6.444   3.684   6.604
76626SOL    HW231718   6.356   3.604   6.697
76627SOL     OW31719   0.786  14.142   3.091
76627SOL    HW131720   0.732  14.071   3.127
76627SOL    HW231721   0.749  14.222   3.127
76628SOL     OW31722   8.075   9.029  11.285
76628SOL    HW131723   8.100   9.116  11.316
76628SOL    HW231724   7.982   9.023  11.306
76629SOL     OW31725   5.176   2.608   7.592
76629SOL    HW131726   5.125   2.659   7.655
76629SOL    HW231727   5.188   2.667   7.517
76630SOL     OW31728   3.729  10.788   7.635
76630SOL    HW131729   3.795  10.762   7.570
76630SOL    HW231730   3.742  10.882   7.647
76631SOL     OW31731   5.571   9.457   3.498
76631SOL    HW131732   5.592   9.534   3.551
76631SOL    HW231733   5.585   9.383   3.558
76632SOL     OW31734  12.872  11.305   0.758
76632SOL    HW131735  12.870  11.274   0.667
76632SOL    HW231736  12.828  11.236   0.807
76633SOL     OW31737   0.817   2.634  12.703
76633SOL    HW131738   0.808   2.728  12.719
76633SOL    HW231739   0.727   2.602  12.692
76634SOL     OW31740  10.836   0.848   9.643
76634SOL    HW131741  10.852   0.758   9.671
76634SOL    HW231742  10.867   0.902   9.715
76635SOL     OW31743  12.862   4.792   9.167
76635SOL    HW131744  12.949   4.803   9.129
76635SOL    HW231745  12.863   4.704   9.206
76636SOL     OW31746   5.915   7.335   9.915
76636SOL    HW131747   5.907   7.296  10.002
76636SOL    HW231748   5.951   7.266   9.861
76637SOL     OW31749   8.680   8.235   9.128
76637SOL    HW131750   8.773   8.214   9.137
76637SOL    HW231751   8.661   8.290   9.204
76638SOL     OW31752  10.382  14.184   9.647
76638SOL    HW131753  10.306  14.160   9.595
76638SOL    HW231754  10.402  14.274   9.622
76639SOL     OW31755   9.574   3.066  10.143
76639SOL    HW131756   9.599   2.974  10.153
76639SOL    HW231757   9.492   3.063  10.093
76640SOL     OW31758   7.142   6.718   9.262
76640SOL    HW131759   7.149   6.704   9.356
76640SOL    HW231760   7.050   6.737   9.246
76641SOL     OW31761   6.560   0.531   6.312
76641SOL    HW131762   6.629   0.512   6.375
76641SOL    HW231763   6.594   0.603   6.259
76642SOL     OW31764   2.479   6.385  11.984
76642SOL    HW131765   2.433   6.334  12.051
76642SOL    HW231766   2.473   6.476  12.015
76643SOL     OW31767   5.359   9.942   1.267
76643SOL    HW131768   5.342   9.988   1.349
76643SOL    HW231769   5.277   9.946   1.219
76644SOL     OW31770  14.813  12.113   1.413
76644SOL    HW131771  14.722  12.114   1.385
76644SOL    HW231772  14.842  12.204   1.407
76645SOL     OW31773   4.554   2.109  13.109
76645SOL    HW131774   4.509   2.157  13.040
76645SOL    HW231775   4.494   2.112  13.183
76646SOL     OW31776   6.618  12.360  12.946
76646SOL    HW131777   6.595  12.432  13.004
76646SOL    HW231778   6.654  12.402  12.868
76647SOL     OW31779   7.549   4.287   4.325
76647SOL    HW131780   7.469   4.308   4.373
76647SOL    HW231781   7.520   4.236   4.250
76648SOL     OW31782   6.929  13.279   3.519
76648SOL    HW131783   6.997  13.270   3.452
76648SOL    HW231784   6.849  13.250   3.476
76649SOL     OW31785   1.871   5.516   2.637
76649SOL    HW131786   1.781   5.548   2.636
76649SOL    HW231787   1.920   5.582   2.588
76650SOL     OW31788   9.915   3.689  14.082
76650SOL    HW131789   9.981   3.620  14.094
76650SOL    HW231790   9.966   3.767  14.062
76651SOL     OW31791   1.117   3.317  11.539
76651SOL    HW131792   1.060   3.269  11.479
76651SOL    HW231793   1.200   3.270  11.538
76652SOL     OW31794  13.186   0.787  12.698
76652SOL    HW131795  13.112   0.842  12.722
76652SOL    HW231796  13.259   0.848  12.687
76653SOL     OW31797   1.380  11.000   8.226
76653SOL    HW131798   1.319  11.003   8.152
76653SOL    HW231799   1.330  11.037   8.299
76654SOL     OW31800  11.805  10.021   7.326
76654SOL    HW131801  11.735  10.001   7.265
76654SOL    HW231802  11.761  10.032   7.410
76655SOL     OW31803   9.572  14.284   8.439
76655SOL    HW131804   9.499  14.262   8.381
76655SOL    HW231805   9.558  14.229   8.517
76656SOL     OW31806   9.494  13.528   0.474
76656SOL    HW131807   9.567  13.575   0.434
76656SOL    HW231808   9.481  13.451   0.419
76657SOL     OW31809  11.511   0.664   9.471
76657SOL    HW131810  11.593   0.713   9.473
76657SOL    HW231811  11.538   0.573   9.462
76658SOL     OW31812  12.739   3.871  12.209
76658SOL    HW131813  12.799   3.846  12.280
76658SOL    HW231814  12.763   3.962  12.189
76659SOL     OW31815   5.457   4.475   1.844
76659SOL    HW131816   5.420   4.408   1.786
76659SOL    HW231817   5.382   4.509   1.892
76660SOL     OW31818  14.714  10.803  14.370
76660SOL    HW131819  14.659  10.780  14.445
76660SOL    HW231820  14.670  10.878  14.330
76661SOL     OW31821   2.229   1.060   2.101
76661SOL    HW131822   2.284   1.108   2.040
76661SOL    HW231823   2.290   1.033   2.170
76662SOL     OW31824  13.559   1.928  12.729
76662SOL    HW131825  13.521   1.983  12.661
76662SOL    HW231826  13.635   1.888  12.688
76663SOL     OW31827   1.827   3.611  12.751
76663SOL    HW131828   1.895   3.671  12.779
76663SOL    HW231829   1.760   3.668  12.712
76664SOL     OW31830   6.415   2.845  12.752
76664SOL    HW131831   6.445   2.754  12.748
76664SOL    HW231832   6.441   2.875  12.839
76665SOL     OW31833   0.319   5.004  12.911
76665SOL    HW131834   0.359   4.939  12.853
76665SOL    HW231835   0.281   4.952  12.982
76666SOL     OW31836   3.546   1.563   7.919
76666SOL    HW131837   3.503   1.508   7.853
76666SOL    HW231838   3.521   1.652   7.897
76667SOL     OW31839   5.356   6.245   6.368
76667SOL    HW131840   5.451   6.242   6.383
76667SOL    HW231841   5.324   6.305   6.435
76668SOL     OW31842  13.157   1.648   5.265
76668SOL    HW131843  13.121   1.737   5.264
76668SOL    HW231844  13.234   1.654   5.322
76669SOL     OW31845  11.672   1.744   1.388
76669SOL    HW131846  11.762   1.735   1.359
76669SOL    HW231847  11.666   1.688   1.466
76670SOL     OW31848   9.793   6.524   3.070
76670SOL    HW131849   9.721   6.477   3.027
76670SOL    HW231850   9.805   6.603   3.019
76671SOL     OW31851  14.234   6.592   3.288
76671SOL    HW131852  14.196   6.665   3.239
76671SOL    HW231853  14.170   6.521   3.279
76672SOL     OW31854   5.186  11.297   8.649
76672SOL    HW131855   5.271  11.271   8.684
76672SOL    HW231856   5.132  11.218   8.658
76673SOL     OW31857   4.009   0.415   2.350
76673SOL    HW131858   4.088   0.367   2.375
76673SOL    HW231859   3.972   0.363   2.278
76674SOL     OW31860   8.316   7.846   2.338
76674SOL    HW131861   8.367   7.806   2.267
76674SOL    HW231862   8.301   7.936   2.308
76675SOL     OW31863  12.061   4.688   5.000
76675SOL    HW131864  12.081   4.754   5.066
76675SOL    HW231865  12.033   4.612   5.050
76676SOL     OW31866   1.634  10.661   6.102
76676SOL    HW131867   1.624  10.567   6.114
76676SOL    HW231868   1.546  10.696   6.118
76677SOL     OW31869   4.800  11.018  11.228
76677SOL    HW131870   4.865  11.042  11.294
76677SOL    HW231871   4.719  11.007  11.278
76678SOL     OW31872  13.708   7.082   3.974
76678SOL    HW131873  13.741   7.129   4.051
76678SOL    HW231874  13.652   7.013   4.010
76679SOL     OW31875   6.925   5.877  12.410
76679SOL    HW131876   6.989   5.871  12.481
76679SOL    HW231877   6.972   5.920  12.338
76680SOL     OW31878  11.480  11.479  11.243
76680SOL    HW131879  11.390  11.489  11.273
76680SOL    HW231880  11.474  11.425  11.164
76681SOL     OW31881   1.978   9.199  11.376
76681SOL    HW131882   1.884   9.187  11.389
76681SOL    HW231883   2.008   9.241  11.457
76682SOL     OW31884  11.721   2.081  11.551
76682SOL    HW131885  11.698   2.090  11.644
76682SOL    HW231886  11.782   2.007  11.548
76683SOL     OW31887   7.585   0.201  10.815
76683SOL    HW131888   7.509   0.164  10.769
76683SOL    HW231889   7.657   0.191  10.753
76684SOL     OW31890  13.617   7.411   2.273
76684SOL    HW131891  13.698   7.402   2.323
76684SOL    HW231892  13.592   7.503   2.284
76685SOL     OW31893   2.257  11.193   5.893
76685SOL    HW131894   2.164  11.196   5.916
76685SOL    HW231895   2.302  11.223   5.972
76686SOL     OW31896  11.962   9.016   2.940
76686SOL    HW131897  11.947   9.024   3.035
76686SOL    HW231898  11.959   9.106   2.908
76687SOL     OW31899  11.900   4.133   9.971
76687SOL    HW131900  11.903   4.062   9.907
76687SOL    HW231901  11.883   4.212   9.920
76688SOL     OW31902  11.909   1.527   7.752
76688SOL    HW131903  11.990   1.481   7.731
76688SOL    HW231904  11.877   1.486   7.832
76689SOL     OW31905   0.180   5.666  11.825
76689SOL    HW131906   0.190   5.759  11.806
76689SOL    HW231907   0.251   5.623  11.778
76690SOL     OW31908  13.231   1.156   5.058
76690SOL    HW131909  13.326   1.147   5.060
76690SOL    HW231910  13.212   1.215   5.131
76691SOL     OW31911   4.152  13.900  14.053
76691SOL    HW131912   4.092  13.920  14.125
76691SOL    HW231913   4.156  13.804  14.051
76692SOL     OW31914  14.550   2.712  13.584
76692SOL    HW131915  14.497   2.757  13.519
76692SOL    HW231916  14.637   2.750  13.574
76693SOL     OW31917   4.280  12.079  11.024
76693SOL    HW131918   4.318  11.991  11.026
76693SOL    HW231919   4.342  12.130  10.972
76694SOL     OW31920   1.705  11.118   2.440
76694SOL    HW131921   1.690  11.211   2.424
76694SOL    HW231922   1.654  11.098   2.518
76695SOL     OW31923  10.708   0.123   6.589
76695SOL    HW131924  10.743   0.057   6.648
76695SOL    HW231925  10.769   0.125   6.516
76696SOL     OW31926   6.902   9.816   2.497
76696SOL    HW131927   6.821   9.866   2.507
76696SOL    HW231928   6.960   9.851   2.564
76697SOL     OW31929   3.004   3.103   3.576
76697SOL    HW131930   3.036   3.071   3.660
76697SOL    HW231931   3.075   3.159   3.542
76698SOL     OW31932   8.532  14.824  14.193
76698SOL    HW131933   8.488  14.861  14.270
76698SOL    HW231934   8.624  14.843  14.206
76699SOL     OW31935   6.284  12.495   8.638
76699SOL    HW131936   6.228  12.482   8.714
76699SOL    HW231937   6.245  12.568   8.591
76700SOL     OW31938   6.091   3.726   5.032
76700SOL    HW131939   6.086   3.806   5.084
76700SOL    HW231940   6.111   3.756   4.944
76701SOL     OW31941  13.745   6.806   5.618
76701SOL    HW131942  13.783   6.719   5.629
76701SOL    HW231943  13.668   6.805   5.676
76702SOL     OW31944   4.735   7.018   8.305
76702SOL    HW131945   4.807   7.019   8.368
76702SOL    HW231946   4.757   6.948   8.244
76703SOL     OW31947   9.800   1.690  13.869
76703SOL    HW131948   9.711   1.680  13.901
76703SOL    HW231949   9.808   1.626  13.798
76704SOL     OW31950   9.268   5.593   7.037
76704SOL    HW131951   9.347   5.541   7.025
76704SOL    HW231952   9.214   5.572   6.960
76705SOL     OW31953   2.681   7.195   3.464
76705SOL    HW131954   2.642   7.161   3.545
76705SOL    HW231955   2.740   7.264   3.493
76706SOL     OW31956   2.256   2.989   6.758
76706SOL    HW131957   2.192   2.957   6.822
76706SOL    HW231958   2.288   2.911   6.714
76707SOL     OW31959  13.082   5.787   0.331
76707SOL    HW131960  13.037   5.721   0.383
76707SOL    HW231961  13.077   5.756   0.241
76708SOL     OW31962   2.741  13.400  11.009
76708SOL    HW131963   2.739  13.352  10.926
76708SOL    HW231964   2.671  13.465  11.000
76709SOL     OW31965   6.337   8.151   9.477
76709SOL    HW131966   6.355   8.190   9.562
76709SOL    HW231967   6.246   8.122   9.482
76710SOL     OW31968  12.884   3.802   8.945
76710SOL    HW131969  12.818   3.867   8.969
76710SOL    HW231970  12.906   3.758   9.027
76711SOL     OW31971  11.158   7.440   6.396
76711SOL    HW131972  11.090   7.477   6.451
76711SOL    HW231973  11.135   7.348   6.387
76712SOL     OW31974  11.099   3.098   7.781
76712SOL    HW131975  11.128   3.077   7.692
76712SOL    HW231976  11.101   3.014   7.828
76713SOL     OW31977  10.536   8.816   9.341
76713SOL    HW131978  10.560   8.804   9.433
76713SOL    HW231979  10.465   8.752   9.327
76714SOL     OW31980  13.353   8.427   9.023
76714SOL    HW131981  13.410   8.366   9.070
76714SOL    HW231982  13.390   8.513   9.042
76715SOL     OW31983  11.450  11.661   4.681
76715SOL    HW131984  11.511  11.735   4.682
76715SOL    HW231985  11.506  11.583   4.687
76716SOL     OW31986  11.303  13.821  12.627
76716SOL    HW131987  11.333  13.885  12.561
76716SOL    HW231988  11.210  13.810  12.608
76717SOL     OW31989   4.450  13.117  14.659
76717SOL    HW131990   4.541  13.105  14.686
76717SOL    HW231991   4.400  13.056  14.713
76718SOL     OW31992   8.522  14.528   9.119
76718SOL    HW131993   8.601  14.505   9.167
76718SOL    HW231994   8.552  14.582   9.046
76719SOL     OW31995   4.776  14.629  14.212
76719SOL    HW131996   4.863  14.657  14.182
76719SOL    HW231997   4.734  14.595  14.133
76720SOL     OW31998   0.895   4.718   5.878
76720SOL    HW131999   0.842   4.774   5.822
76720SOL    HW232000   0.907   4.768   5.959
76721SOL     OW32001   5.718   2.945   6.493
76721SOL    HW132002   5.746   3.027   6.535
76721SOL    HW232003   5.734   2.878   6.559
76722SOL     OW32004  10.756  10.957   3.488
76722SOL    HW132005  10.743  11.048   3.517
76722SOL    HW232006  10.836  10.961   3.435
76723SOL     OW32007  10.800   1.561   9.796
76723SOL    HW132008  10.728   1.603   9.748
76723SOL    HW232009  10.756   1.513   9.866
76724SOL     OW32010   0.265  14.258   1.930
76724SOL    HW132011   0.203  14.305   1.873
76724SOL    HW232012   0.209  14.212   1.992
76725SOL     OW32013  11.503   3.876  13.845
76725SOL    HW132014  11.544   3.851  13.762
76725SOL    HW232015  11.559   3.837  13.912
76726SOL     OW32016   2.593   7.773  12.022
76726SOL    HW132017   2.640   7.853  12.000
76726SOL    HW232018   2.649   7.730  12.087
76727SOL     OW32019  13.914  13.911   6.699
76727SOL    HW132020  13.874  13.877   6.618
76727SOL    HW232021  13.906  14.006   6.692
76728SOL     OW32022  14.030   3.740   4.775
76728SOL    HW132023  13.998   3.677   4.839
76728SOL    HW232024  14.009   3.826   4.812
76729SOL     OW32025  11.137  14.760  12.399
76729SOL    HW132026  11.079  14.820  12.445
76729SOL    HW232027  11.193  14.816  12.346
76730SOL     OW32028   8.553   5.334   9.254
76730SOL    HW132029   8.611   5.296   9.188
76730SOL    HW232030   8.466   5.300   9.233
76731SOL     OW32031   5.706   1.236  14.022
76731SOL    HW132032   5.741   1.212  14.107
76731SOL    HW232033   5.720   1.159  13.967
76732SOL     OW32034   9.635   8.265   3.208
76732SOL    HW132035   9.656   8.299   3.295
76732SOL    HW232036   9.673   8.328   3.148
76733SOL     OW32037  11.966  14.406   4.338
76733SOL    HW132038  11.943  14.344   4.269
76733SOL    HW232039  12.056  14.431   4.319
76734SOL     OW32040   2.186   8.180   4.296
76734SOL    HW132041   2.239   8.114   4.340
76734SOL    HW232042   2.151   8.135   4.219
76735SOL     OW32043   3.661  10.856   5.329
76735SOL    HW132044   3.730  10.871   5.393
76735SOL    HW232045   3.657  10.761   5.320
76736SOL     OW32046   9.741   9.527   7.749
76736SOL    HW132047   9.724   9.578   7.828
76736SOL    HW232048   9.807   9.463   7.775
76737SOL     OW32049  10.847   3.384  12.863
76737SOL    HW132050  10.909   3.453  12.886
76737SOL    HW232051  10.803   3.417  12.784
76738SOL     OW32052  10.607   5.039  14.352
76738SOL    HW132053  10.555   4.999  14.282
76738SOL    HW232054  10.651   5.113  14.310
76739SOL     OW32055   3.520  13.847   9.477
76739SOL    HW132056   3.426  13.860   9.474
76739SOL    HW232057   3.556  13.932   9.502
76740SOL     OW32058   1.302  14.558  14.496
76740SOL    HW132059   1.272  14.594  14.580
76740SOL    HW232060   1.371  14.618  14.468
76741SOL     OW32061   1.163   4.096   9.816
76741SOL    HW132062   1.119   4.124   9.736
76741SOL    HW232063   1.171   4.001   9.808
76742SOL     OW32064  12.282   1.312  14.149
76742SOL    HW132065  12.344   1.353  14.089
76742SOL    HW232066  12.247   1.237  14.101
76743SOL     OW32067   1.212  12.533  14.802
76743SOL    HW132068   1.168  12.614  14.777
76743SOL    HW232069   1.299  12.540  14.761
76744SOL     OW32070  12.788  14.063   2.246
76744SOL    HW132071  12.836  14.038   2.325
76744SOL    HW232072  12.728  13.990   2.230
76745SOL     OW32073   7.633  12.428  14.777
76745SOL    HW132074   7.705  12.419  14.716
76745SOL    HW232075   7.556  12.400  14.728
76746SOL     OW32076   6.676  11.138  14.303
76746SOL    HW132077   6.640  11.075  14.241
76746SOL    HW232078   6.755  11.096  14.337
76747SOL     OW32079   1.238   0.679   2.600
76747SOL    HW132080   1.211   0.646   2.686
76747SOL    HW232081   1.216   0.772   2.602
76748SOL     OW32082  12.600   8.250   9.145
76748SOL    HW132083  12.564   8.336   9.124
76748SOL    HW232084  12.689   8.252   9.108
76749SOL     OW32085   7.733   6.593   4.482
76749SOL    HW132086   7.760   6.664   4.423
76749SOL    HW232087   7.761   6.513   4.437
76750SOL     OW32088   0.192   5.357   5.480
76750SOL    HW132089   0.270   5.413   5.478
76750SOL    HW232090   0.193   5.311   5.396
76751SOL     OW32091   1.132   1.210   8.304
76751SOL    HW132092   1.226   1.203   8.293
76751SOL    HW232093   1.117   1.299   8.336
76752SOL     OW32094   9.581   0.734   9.910
76752SOL    HW132095   9.656   0.768   9.959
76752SOL    HW232096   9.525   0.695   9.977
76753SOL     OW32097  12.753  10.284   2.600
76753SOL    HW132098  12.840  10.322   2.614
76753SOL    HW232099  12.770  10.191   2.586
76754SOL     OW32100   5.067  10.833   4.758
76754SOL    HW132101   5.149  10.878   4.772
76754SOL    HW232102   5.088  10.740   4.769
76755SOL     OW32103  14.269  10.681   9.557
76755SOL    HW132104  14.192  10.702   9.611
76755SOL    HW232105  14.331  10.644   9.619
76756SOL     OW32106   4.105  13.039   5.654
76756SOL    HW132107   4.092  13.050   5.560
76756SOL    HW232108   4.147  12.953   5.664
76757SOL     OW32109   8.578   2.405   4.683
76757SOL    HW132110   8.647   2.374   4.741
76757SOL    HW232111   8.616   2.398   4.596
76758SOL     OW32112  13.478   3.827   3.536
76758SOL    HW132113  13.470   3.880   3.457
76758SOL    HW232114  13.572   3.828   3.556
76759SOL     OW32115   2.028   0.483   7.469
76759SOL    HW132116   1.988   0.431   7.400
76759SOL    HW232117   1.954   0.512   7.523
76760SOL     OW32118  10.494   0.053   3.627
76760SOL    HW132119  10.445   0.003   3.562
76760SOL    HW232120  10.576   0.075   3.582
76761SOL     OW32121   3.563   4.211   6.493
76761SOL    HW132122   3.596   4.230   6.405
76761SOL    HW232123   3.558   4.115   6.497
76762SOL     OW32124   6.667   9.075   6.424
76762SOL    HW132125   6.712   9.135   6.484
76762SOL    HW232126   6.702   8.989   6.446
76763SOL     OW32127  12.654   0.107  11.355
76763SOL    HW132128  12.672   0.018  11.385
76763SOL    HW232129  12.614   0.096  11.269
76764SOL     OW32130   3.557   7.071   6.534
76764SOL    HW132131   3.614   7.125   6.589
76764SOL    HW232132   3.480   7.054   6.588
76765SOL     OW32133   6.479  13.702   9.271
76765SOL    HW132134   6.547  13.755   9.230
76765SOL    HW232135   6.459  13.634   9.206
76766SOL     OW32136  10.081   0.734   2.004
76766SOL    HW132137  10.165   0.696   2.026
76766SOL    HW232138  10.099   0.827   1.991
76767SOL     OW32139   4.446   5.243   5.993
76767SOL    HW132140   4.541   5.238   5.979
76767SOL    HW232141   4.423   5.334   5.978
76768SOL     OW32142  11.272   0.963  11.577
76768SOL    HW132143  11.229   1.009  11.505
76768SOL    HW232144  11.341   0.911  11.535
76769SOL     OW32145  10.924  11.538  13.082
76769SOL    HW132146  10.881  11.481  13.146
76769SOL    HW232147  10.906  11.497  12.998
76770SOL     OW32148   5.980   4.767   8.921
76770SOL    HW132149   5.908   4.827   8.938
76770SOL    HW232150   5.939   4.682   8.907
76771SOL     OW32151  10.900   1.157   5.450
76771SOL    HW132152  10.832   1.097   5.421
76771SOL    HW232153  10.910   1.139   5.544
76772SOL     OW32154  11.001   0.257   9.116
76772SOL    HW132155  10.970   0.168   9.128
76772SOL    HW232156  11.012   0.266   9.022
76773SOL     OW32157   5.089   9.883   2.484
76773SOL    HW132158   5.000   9.886   2.448
76773SOL    HW232159   5.114   9.975   2.492
76774SOL     OW32160  14.725  13.079  11.466
76774SOL    HW132161  14.684  13.068  11.551
76774SOL    HW232162  14.694  13.005  11.414
76775SOL     OW32163  11.474   8.683  12.290
76775SOL    HW132164  11.421   8.603  12.288
76775SOL    HW232165  11.412   8.754  12.276
76776SOL     OW32166   1.193   5.405  10.130
76776SOL    HW132167   1.216   5.424  10.039
76776SOL    HW232168   1.250   5.332  10.154
76777SOL     OW32169   5.390   2.391  10.710
76777SOL    HW132170   5.339   2.373  10.631
76777SOL    HW232171   5.334   2.362  10.782
76778SOL     OW32172  10.033   3.235   7.404
76778SOL    HW132173  10.061   3.171   7.469
76778SOL    HW232174   9.979   3.185   7.343
76779SOL     OW32175   7.295  13.688   9.046
76779SOL    HW132176   7.388  13.667   9.039
76779SOL    HW232177   7.277  13.688   9.140
76780SOL     OW32178   3.745   7.489   4.034
76780SOL    HW132179   3.700   7.557   4.084
76780SOL    HW232180   3.835   7.493   4.065
76781SOL     OW32181   2.905   6.047   2.133
76781SOL    HW132182   2.835   6.082   2.078
76781SOL    HW232183   2.903   5.953   2.117
76782SOL     OW32184  10.043   8.166  13.797
76782SOL    HW132185  10.116   8.205  13.748
76782SOL    HW232186   9.974   8.155  13.733
76783SOL     OW32187   1.886   9.859   3.743
76783SOL    HW132188   1.802   9.849   3.788
76783SOL    HW232189   1.869   9.921   3.672
76784SOL     OW32190   8.071   2.731   4.762
76784SOL    HW132191   8.008   2.787   4.807
76784SOL    HW232192   8.025   2.649   4.748
76785SOL     OW32193  12.778  13.754   4.513
76785SOL    HW132194  12.854  13.781   4.565
76785SOL    HW232195  12.707  13.810   4.543
76786SOL     OW32196  14.127   5.952  11.398
76786SOL    HW132197  14.139   6.018  11.330
76786SOL    HW232198  14.208   5.954  11.448
76787SOL     OW32199   2.614   7.310  13.170
76787SOL    HW132200   2.535   7.333  13.121
76787SOL    HW232201   2.616   7.215  13.169
76788SOL     OW32202  12.316   8.226  10.088
76788SOL    HW132203  12.296   8.230   9.994
76788SOL    HW232204  12.408   8.251  10.093
76789SOL     OW32205   6.627  11.798  14.194
76789SOL    HW132206   6.616  11.881  14.148
76789SOL    HW232207   6.558  11.798  14.261
76790SOL     OW32208   2.971  10.861   1.129
76790SOL    HW132209   2.946  10.772   1.152
76790SOL    HW232210   3.050  10.852   1.076
76791SOL     OW32211   2.294   6.062   5.371
76791SOL    HW132212   2.199   6.076   5.378
76791SOL    HW232213   2.319   6.026   5.456
76792SOL     OW32214   9.265  11.856  14.591
76792SOL    HW132215   9.314  11.882  14.670
76792SOL    HW232216   9.316  11.893  14.519
76793SOL     OW32217   8.117   1.512  11.886
76793SOL    HW132218   8.150   1.423  11.876
76793SOL    HW232219   8.022   1.504  11.880
76794SOL     OW32220   3.750   2.596  13.062
76794SOL    HW132221   3.825   2.654  13.074
76794SOL    HW232222   3.759   2.530  13.130
76795SOL     OW32223   8.720   4.376   9.100
76795SOL    HW132224   8.652   4.351   9.163
76795SOL    HW232225   8.753   4.460   9.133
76796SOL     OW32226   8.628   3.147   1.617
76796SOL    HW132227   8.552   3.189   1.577
76796SOL    HW232228   8.654   3.207   1.688
76797SOL     OW32229   1.240   8.261  12.031
76797SOL    HW132230   1.275   8.273  12.119
76797SOL    HW232231   1.160   8.312  12.030
76798SOL     OW32232  14.658  13.167   1.157
76798SOL    HW132233  14.613  13.248   1.180
76798SOL    HW232234  14.680  13.127   1.242
76799SOL     OW32235   4.320   6.813  13.860
76799SOL    HW132236   4.387   6.866  13.816
76799SOL    HW232237   4.351   6.723  13.852
76800SOL     OW32238  11.867  10.484   3.773
76800SOL    HW132239  11.945  10.538   3.780
76800SOL    HW232240  11.878  10.417   3.841
76801SOL     OW32241  11.515  14.021   7.165
76801SOL    HW132242  11.470  13.996   7.084
76801SOL    HW232243  11.547  13.938   7.201
76802SOL     OW32244  13.826   5.225   4.723
76802SOL    HW132245  13.838   5.295   4.787
76802SOL    HW232246  13.895   5.162   4.743
76803SOL     OW32247   9.568   6.322   1.533
76803SOL    HW132248   9.493   6.379   1.517
76803SOL    HW232249   9.578   6.272   1.452
76804SOL     OW32250   8.793   0.787  13.695
76804SOL    HW132251   8.815   0.720  13.631
76804SOL    HW232252   8.720   0.835  13.656
76805SOL     OW32253   1.083   0.649   6.651
76805SOL    HW132254   1.151   0.683   6.709
76805SOL    HW232255   1.026   0.724   6.634
76806SOL     OW32256   3.739  10.309   3.141
76806SOL    HW132257   3.760  10.234   3.085
76806SOL    HW232258   3.644  10.307   3.150
76807SOL     OW32259   0.722   3.552   2.794
76807SOL    HW132260   0.630   3.578   2.784
76807SOL    HW232261   0.752   3.533   2.705
76808SOL     OW32262   3.711  13.010   8.060
76808SOL    HW132263   3.637  12.952   8.039
76808SOL    HW232264   3.770  13.001   7.985
76809SOL     OW32265  14.349  10.279   4.229
76809SOL    HW132266  14.375  10.188   4.220
76809SOL    HW232267  14.402  10.326   4.165
76810SOL     OW32268   0.949   9.036  13.548
76810SOL    HW132269   1.001   8.959  13.527
76810SOL    HW232270   0.858   9.006  13.545
76811SOL     OW32271  13.521  10.417  10.735
76811SOL    HW132272  13.522  10.490  10.673
76811SOL    HW232273  13.510  10.339  10.680
76812SOL     OW32274   9.847  10.590  12.287
76812SOL    HW132275   9.797  10.658  12.242
76812SOL    HW232276   9.928  10.634  12.312
76813SOL     OW32277   3.935   3.188   5.322
76813SOL    HW132278   3.869   3.154   5.382
76813SOL    HW232279   3.889   3.198   5.239
76814SOL     OW32280  13.535   6.560   9.425
76814SOL    HW132281  13.536   6.490   9.360
76814SOL    HW232282  13.450   6.603   9.413
76815SOL     OW32283   3.973   3.711   5.522
76815SOL    HW132284   4.033   3.763   5.469
76815SOL    HW232285   3.893   3.763   5.525
76816SOL     OW32286   0.841  11.527  10.744
76816SOL    HW132287   0.786  11.600  10.775
76816SOL    HW232288   0.930  11.563  10.742
76817SOL     OW32289   5.443  12.362   1.968
76817SOL    HW132290   5.498  12.423   1.919
76817SOL    HW232291   5.492  12.345   2.048
76818SOL     OW32292   7.106   8.286  11.653
76818SOL    HW132293   7.086   8.378  11.666
76818SOL    HW232294   7.058   8.241  11.723
76819SOL     OW32295  11.721   4.839   3.967
76819SOL    HW132296  11.640   4.871   3.926
76819SOL    HW232297  11.790   4.861   3.905
76820SOL     OW32298  13.070   9.410   8.412
76820SOL    HW132299  13.155   9.368   8.428
76820SOL    HW232300  13.006   9.340   8.427
76821SOL     OW32301  13.553   6.412  14.531
76821SOL    HW132302  13.513   6.441  14.449
76821SOL    HW232303  13.636   6.460  14.536
76822SOL     OW32304   5.003   0.244  14.670
76822SOL    HW132305   5.089   0.241  14.629
76822SOL    HW232306   5.021   0.237  14.764
76823SOL     OW32307   1.455   4.802  12.542
76823SOL    HW132308   1.380   4.820  12.598
76823SOL    HW232309   1.420   4.748  12.470
76824SOL     OW32310   0.588   3.210  12.394
76824SOL    HW132311   0.589   3.232  12.301
76824SOL    HW232312   0.552   3.121  12.396
76825SOL     OW32313   8.566   3.413   9.557
76825SOL    HW132314   8.513   3.344   9.598
76825SOL    HW232315   8.642   3.367   9.522
76826SOL     OW32316  11.106  13.295   9.524
76826SOL    HW132317  11.078  13.253   9.443
76826SOL    HW232318  11.024  13.307   9.573
76827SOL     OW32319   8.079   9.658   0.637
76827SOL    HW132320   8.095   9.746   0.602
76827SOL    HW232321   8.075   9.670   0.732
76828SOL     OW32322   3.973   8.162  12.817
76828SOL    HW132323   4.036   8.122  12.877
76828SOL    HW232324   3.915   8.091  12.791
76829SOL     OW32325   5.164   1.949   0.713
76829SOL    HW132326   5.179   1.862   0.750
76829SOL    HW232327   5.190   2.010   0.782
76830SOL     OW32328   0.055   0.911   8.394
76830SOL    HW132329   0.012   0.915   8.309
76830SOL    HW232330  14.880   0.961   8.452
76831SOL     OW32331   3.401  12.609  11.309
76831SOL    HW132332   3.463  12.546  11.273
76831SOL    HW232333   3.368  12.567  11.389
76832SOL     OW32334   2.042   8.899   1.238
76832SOL    HW132335   2.021   8.830   1.175
76832SOL    HW232336   2.063   8.975   1.183
76833SOL     OW32337  14.819   2.675  10.239
76833SOL    HW132338  14.787   2.710  10.322
76833SOL    HW232339   0.026   2.646  10.259
76834SOL     OW32340   9.727   0.342   8.956
76834SOL    HW132341   9.720   0.267   8.898
76834SOL    HW232342   9.811   0.329   9.001
76835SOL     OW32343   4.858   4.306   7.734
76835SOL    HW132344   4.801   4.348   7.798
76835SOL    HW232345   4.895   4.378   7.683
76836SOL     OW32346   6.312   4.566   3.294
76836SOL    HW132347   6.245   4.624   3.255
76836SOL    HW232348   6.263   4.513   3.357
76837SOL     OW32349  12.081   5.293   7.366
76837SOL    HW132350  12.040   5.374   7.335
76837SOL    HW232351  12.008   5.233   7.380
76838SOL     OW32352   0.945  12.074   7.639
76838SOL    HW132353   1.005  12.098   7.568
76838SOL    HW232354   0.862  12.116   7.615
76839SOL     OW32355   9.051   1.777   0.238
76839SOL    HW132356   9.128   1.724   0.259
76839SOL    HW232357   9.001   1.722   0.178
76840SOL     OW32358   5.655   6.271  14.653
76840SOL    HW132359   5.670   6.293  14.745
76840SOL    HW232360   5.591   6.336  14.623
76841SOL     OW32361   5.262   5.029   7.212
76841SOL    HW132362   5.324   5.095   7.181
76841SOL    HW232363   5.290   5.009   7.301
76842SOL     OW32364   9.256   7.094   8.192
76842SOL    HW132365   9.332   7.148   8.172
76842SOL    HW232366   9.187   7.157   8.213
76843SOL     OW32367   2.856   7.637   2.125
76843SOL    HW132368   2.874   7.647   2.031
76843SOL    HW232369   2.936   7.599   2.161
76844SOL     OW32370   1.958   1.591  11.831
76844SOL    HW132371   1.986   1.538  11.756
76844SOL    HW232372   1.973   1.535  11.907
76845SOL     OW32373   6.414  10.118   5.499
76845SOL    HW132374   6.326  10.082   5.507
76845SOL    HW232375   6.472  10.041   5.499
76846SOL     OW32376   6.434   6.543   4.270
76846SOL    HW132377   6.402   6.453   4.263
76846SOL    HW232378   6.457   6.567   4.180
76847SOL     OW32379  11.304   7.920   9.040
76847SOL    HW132380  11.237   7.899   9.106
76847SOL    HW232381  11.293   8.013   9.023
76848SOL     OW32382   6.903  14.409   7.734
76848SOL    HW132383   6.824  14.394   7.785
76848SOL    HW232384   6.972  14.421   7.800
76849SOL     OW32385   1.381  12.785   5.516
76849SOL    HW132386   1.397  12.840   5.593
76849SOL    HW232387   1.288  12.763   5.522
76850SOL     OW32388  13.944  13.103   7.152
76850SOL    HW132389  13.948  13.168   7.222
76850SOL    HW232390  13.991  13.028   7.187
76851SOL     OW32391   6.306   9.989  11.200
76851SOL    HW132392   6.321  10.059  11.264
76851SOL    HW232393   6.290  10.035  11.118
76852SOL     OW32394  11.084   4.052   9.459
76852SOL    HW132395  11.078   3.964   9.422
76852SOL    HW232396  11.040   4.108   9.395
76853SOL     OW32397  14.799  13.017  10.217
76853SOL    HW132398  14.865  12.948  10.210
76853SOL    HW232399  14.724  12.982  10.169
76854SOL     OW32400   6.277   5.683   7.381
76854SOL    HW132401   6.220   5.760   7.374
76854SOL    HW232402   6.222   5.615   7.418
76855SOL     OW32403   9.004   6.619  11.068
76855SOL    HW132404   8.934   6.676  11.035
76855SOL    HW232405   8.960   6.536  11.087
76856SOL     OW32406   5.710   2.393   1.950
76856SOL    HW132407   5.646   2.364   2.015
76856SOL    HW232408   5.658   2.436   1.882
76857SOL     OW32409  14.612   7.518   8.927
76857SOL    HW132410  14.631   7.588   8.989
76857SOL    HW232411  14.686   7.458   8.934
76858SOL     OW32412   7.305   9.522   6.328
76858SOL    HW132413   7.256   9.556   6.403
76858SOL    HW232414   7.395   9.550   6.345
76859SOL     OW32415   6.009  14.472   6.388
76859SOL    HW132416   5.915  14.489   6.389
76859SOL    HW232417   6.016  14.377   6.400
76860SOL     OW32418  14.323   1.887   5.351
76860SOL    HW132419  14.299   1.905   5.260
76860SOL    HW232420  14.277   1.806   5.373
76861SOL     OW32421  10.122   5.268  11.119
76861SOL    HW132422  10.072   5.334  11.071
76861SOL    HW232423  10.123   5.192  11.060
76862SOL     OW32424   3.615   8.420   7.512
76862SOL    HW132425   3.663   8.438   7.594
76862SOL    HW232426   3.670   8.357   7.466
76863SOL     OW32427   8.811   1.971  13.248
76863SOL    HW132428   8.746   2.019  13.198
76863SOL    HW232429   8.858   2.038  13.297
76864SOL     OW32430   5.059   8.851   0.374
76864SOL    HW132431   5.045   8.872   0.282
76864SOL    HW232432   5.128   8.911   0.402
76865SOL     OW32433   4.923   0.468   2.811
76865SOL    HW132434   4.982   0.458   2.737
76865SOL    HW232435   4.972   0.433   2.885
76866SOL     OW32436   2.981  11.885  13.758
76866SOL    HW132437   2.934  11.848  13.683
76866SOL    HW232438   2.937  11.967  13.776
76867SOL     OW32439   9.104  14.638  11.632
76867SOL    HW132440   9.144  14.636  11.719
76867SOL    HW232441   9.176  14.618  11.572
76868SOL     OW32442  14.206   5.092  14.733
76868SOL    HW132443  14.252   5.086  14.649
76868SOL    HW232444  14.265   5.051  14.796
76869SOL     OW32445  12.823   8.610   7.996
76869SOL    HW132446  12.891   8.606   8.063
76869SOL    HW232447  12.746   8.570   8.037
76870SOL     OW32448   0.998   6.219  10.487
76870SOL    HW132449   1.041   6.152  10.433
76870SOL    HW232450   0.940   6.170  10.545
76871SOL     OW32451   2.651   4.608  13.003
76871SOL    HW132452   2.712   4.589  12.932
76871SOL    HW232453   2.586   4.667  12.964
76872SOL     OW32454   7.645   9.558   5.269
76872SOL    HW132455   7.717   9.577   5.208
76872SOL    HW232456   7.566   9.583   5.221
76873SOL     OW32457   6.055   9.853   6.092
76873SOL    HW132458   5.973   9.861   6.141
76873SOL    HW232459   6.071   9.758   6.089
76874SOL     OW32460   4.547   8.824   6.990
76874SOL    HW132461   4.520   8.804   7.080
76874SOL    HW232462   4.632   8.867   6.999
76875SOL     OW32463   8.111  12.791   1.146
76875SOL    HW132464   8.128  12.798   1.052
76875SOL    HW232465   8.186  12.836   1.186
76876SOL     OW32466   1.201   4.614   5.704
76876SOL    HW132467   1.168   4.690   5.753
76876SOL    HW232468   1.154   4.539   5.741
76877SOL     OW32469   7.670   9.925   6.703
76877SOL    HW132470   7.586   9.938   6.658
76877SOL    HW232471   7.646   9.920   6.796
76878SOL     OW32472  10.772  11.231   2.361
76878SOL    HW132473  10.852  11.180   2.345
76878SOL    HW232474  10.717  11.172   2.413
76879SOL     OW32475  11.751  13.362   0.195
76879SOL    HW132476  11.768  13.268   0.202
76879SOL    HW232477  11.838  13.402   0.189
76880SOL     OW32478  12.592   0.741  10.683
76880SOL    HW132479  12.616   0.829  10.655
76880SOL    HW232480  12.674   0.692  10.678
76881SOL     OW32481   4.407  12.793   3.840
76881SOL    HW132482   4.340  12.793   3.772
76881SOL    HW232483   4.458  12.713   3.824
76882SOL     OW32484   4.974   6.920  10.190
76882SOL    HW132485   5.030   6.997  10.184
76882SOL    HW232486   4.919   6.936  10.267
76883SOL     OW32487   6.202   1.696  12.315
76883SOL    HW132488   6.176   1.611  12.281
76883SOL    HW232489   6.251   1.675  12.395
76884SOL     OW32490   8.287   2.513   7.278
76884SOL    HW132491   8.276   2.607   7.289
76884SOL    HW232492   8.215   2.487   7.221
76885SOL     OW32493  13.428   0.086   1.211
76885SOL    HW132494  13.392   0.043   1.134
76885SOL    HW232495  13.368   0.063   1.282
76886SOL     OW32496   0.625   0.876   9.971
76886SOL    HW132497   0.695   0.864  10.035
76886SOL    HW232498   0.631   0.800   9.914
76887SOL     OW32499   1.419  11.980   1.908
76887SOL    HW132500   1.444  12.026   1.988
76887SOL    HW232501   1.323  11.978   1.911
76888SOL     OW32502  11.441   2.310   7.245
76888SOL    HW132503  11.508   2.375   7.226
76888SOL    HW232504  11.365   2.338   7.193
76889SOL     OW32505  10.558   1.361  12.287
76889SOL    HW132506  10.616   1.340  12.214
76889SOL    HW232507  10.469   1.349  12.251
76890SOL     OW32508   0.209   0.700  12.069
76890SOL    HW132509   0.146   0.643  12.024
76890SOL    HW232510   0.252   0.643  12.132
76891SOL     OW32511   7.509   3.919   4.738
76891SOL    HW132512   7.476   3.992   4.685
76891SOL    HW232513   7.443   3.851   4.729
76892SOL     OW32514   0.945   1.224   9.402
76892SOL    HW132515   0.967   1.315   9.423
76892SOL    HW232516   0.928   1.183   9.488
76893SOL     OW32517  14.497   1.093   6.679
76893SOL    HW132518  14.423   1.145   6.647
76893SOL    HW232519  14.457   1.021   6.727
76894SOL     OW32520  13.548   3.040   2.742
76894SOL    HW132521  13.546   3.135   2.754
76894SOL    HW232522  13.606   3.008   2.811
76895SOL     OW32523  12.251  14.739  14.335
76895SOL    HW132524  12.327  14.749  14.278
76895SOL    HW232525  12.283  14.684  14.407
76896SOL     OW32526   8.762   9.955  14.169
76896SOL    HW132527   8.738  10.045  14.193
76896SOL    HW232528   8.729   9.944  14.080
76897SOL     OW32529   9.148   4.027   4.228
76897SOL    HW132530   9.053   4.035   4.231
76897SOL    HW232531   9.166   3.939   4.260
76898SOL     OW32532  12.177   7.462   6.932
76898SOL    HW132533  12.189   7.368   6.922
76898SOL    HW232534  12.126   7.488   6.855
76899SOL     OW32535   4.414   5.669   9.180
76899SOL    HW132536   4.420   5.670   9.276
76899SOL    HW232537   4.329   5.708   9.161
76900SOL     OW32538  11.293   9.947   9.537
76900SOL    HW132539  11.331   9.861   9.555
76900SOL    HW232540  11.281   9.987   9.624
76901SOL     OW32541  10.429   9.658  13.737
76901SOL    HW132542  10.375   9.736  13.724
76901SOL    HW232543  10.509   9.691  13.779
76902SOL     OW32544   0.823   8.380   7.205
76902SOL    HW132545   0.829   8.287   7.182
76902SOL    HW232546   0.913   8.404   7.227
76903SOL     OW32547   2.992   1.179   2.781
76903SOL    HW132548   3.086   1.169   2.795
76903SOL    HW232549   2.982   1.183   2.686
76904SOL     OW32550   9.566  12.009   9.629
76904SOL    HW132551   9.638  11.995   9.567
76904SOL    HW232552   9.605  12.059   9.700
76905SOL     OW32553   4.275   1.877   8.638
76905SOL    HW132554   4.338   1.810   8.664
76905SOL    HW232555   4.228   1.899   8.718
76906SOL     OW32556  10.364   3.713  13.394
76906SOL    HW132557  10.411   3.690  13.474
76906SOL    HW232558  10.273   3.691  13.413
76907SOL     OW32559   1.817  12.658   1.934
76907SOL    HW132560   1.731  12.635   1.897
76907SOL    HW232561   1.796  12.691   2.022
76908SOL     OW32562   3.853   1.150   7.200
76908SOL    HW132563   3.763   1.122   7.186
76908SOL    HW232564   3.878   1.110   7.283
76909SOL     OW32565  10.881  11.371   5.619
76909SOL    HW132566  10.961  11.404   5.658
76909SOL    HW232567  10.851  11.302   5.678
76910SOL     OW32568   7.359   3.078   9.682
76910SOL    HW132569   7.454   3.064   9.682
76910SOL    HW232570   7.347   3.157   9.735
76911SOL     OW32571   0.204  11.142   6.316
76911SOL    HW132572   0.298  11.149   6.298
76911SOL    HW232573   0.198  11.075   6.385
76912SOL     OW32574  12.571   5.179  11.959
76912SOL    HW132575  12.588   5.112  12.026
76912SOL    HW232576  12.506   5.237  12.000
76913SOL     OW32577  11.026   0.391   2.851
76913SOL    HW132578  10.938   0.416   2.820
76913SOL    HW232579  11.079   0.389   2.772
76914SOL     OW32580   0.048   9.381   8.794
76914SOL    HW132581   0.014   9.350   8.710
76914SOL    HW232582   0.049   9.302   8.849
76915SOL     OW32583   5.598  10.558   9.360
76915SOL    HW132584   5.668  10.609   9.401
76915SOL    HW232585   5.637  10.473   9.341
76916SOL     OW32586  13.709   4.819   7.970
76916SOL    HW132587  13.780   4.849   7.913
76916SOL    HW232588  13.718   4.873   8.049
76917SOL     OW32589   1.649   5.955   9.295
76917SOL    HW132590   1.735   5.996   9.284
76917SOL    HW232591   1.643   5.937   9.389
76918SOL     OW32592  10.695   8.010   2.801
76918SOL    HW132593  10.614   8.055   2.824
76918SOL    HW232594  10.688   7.993   2.707
76919SOL     OW32595   3.116  14.605   2.773
76919SOL    HW132596   3.172  14.601   2.695
76919SOL    HW232597   3.177  14.603   2.846
76920SOL     OW32598  10.863   7.320   2.984
76920SOL    HW132599  10.856   7.328   2.889
76920SOL    HW232600  10.803   7.249   3.006
76921SOL     OW32601   1.063   2.623   3.559
76921SOL    HW132602   1.039   2.582   3.642
76921SOL    HW232603   1.145   2.668   3.577
76922SOL     OW32604   2.632   1.424   1.737
76922SOL    HW132605   2.695   1.353   1.741
76922SOL    HW232606   2.669   1.487   1.675
76923SOL     OW32607   2.534   6.969   5.508
76923SOL    HW132608   2.572   7.053   5.533
76923SOL    HW232609   2.499   6.985   5.420
76924SOL     OW32610   2.034  12.187   4.329
76924SOL    HW132611   1.940  12.175   4.342
76924SOL    HW232612   2.057  12.259   4.388
76925SOL     OW32613   6.660   3.065   4.764
76925SOL    HW132614   6.565   3.061   4.753
76925SOL    HW232615   6.673   3.092   4.854
76926SOL     OW32616  12.545  14.765   8.419
76926SOL    HW132617  12.622  14.767   8.363
76926SOL    HW232618  12.567  14.824   8.492
76927SOL     OW32619   9.659  12.350  10.352
76927SOL    HW132620   9.684  12.442  10.338
76927SOL    HW232621   9.564  12.353  10.365
76928SOL     OW32622   2.439  10.812   3.405
76928SOL    HW132623   2.353  10.770   3.416
76928SOL    HW232624   2.492  10.746   3.361
76929SOL     OW32625  10.568   2.608  10.853
76929SOL    HW132626  10.497   2.667  10.880
76929SOL    HW232627  10.559   2.532  10.910
76930SOL     OW32628   6.368   0.858   2.867
76930SOL    HW132629   6.406   0.840   2.781
76930SOL    HW232630   6.324   0.943   2.856
76931SOL     OW32631   1.436   6.601   8.557
76931SOL    HW132632   1.413   6.527   8.501
76931SOL    HW232633   1.531   6.610   8.549
76932SOL     OW32634   3.128   6.252   8.535
76932SOL    HW132635   3.109   6.159   8.547
76932SOL    HW232636   3.094   6.272   8.447
76933SOL     OW32637   6.965   7.587  12.450
76933SOL    HW132638   7.027   7.545  12.509
76933SOL    HW232639   6.997   7.566  12.362
76934SOL     OW32640   0.589  13.596   5.192
76934SOL    HW132641   0.631  13.642   5.265
76934SOL    HW232642   0.521  13.542   5.234
76935SOL     OW32643   2.237   1.817   2.390
76935SOL    HW132644   2.255   1.846   2.301
76935SOL    HW232645   2.185   1.889   2.429
76936SOL     OW32646   6.044  12.576   1.547
76936SOL    HW132647   6.048  12.583   1.642
76936SOL    HW232648   6.052  12.667   1.516
76937SOL     OW32649   2.689   6.867  10.970
76937SOL    HW132650   2.691   6.872  11.066
76937SOL    HW232651   2.613   6.813  10.950
76938SOL     OW32652   9.310   8.349   8.680
76938SOL    HW132653   9.353   8.320   8.600
76938SOL    HW232654   9.226   8.384   8.650
76939SOL     OW32655   4.019   2.067  11.024
76939SOL    HW132656   4.112   2.047  11.032
76939SOL    HW232657   3.986   2.001  10.963
76940SOL     OW32658  13.822   0.133   9.413
76940SOL    HW132659  13.761   0.151   9.484
76940SOL    HW232660  13.802   0.200   9.347
76941SOL     OW32661   9.740   8.577   3.816
76941SOL    HW132662   9.719   8.513   3.884
76941SOL    HW232663   9.797   8.529   3.756
76942SOL     OW32664   8.629   4.759   3.230
76942SOL    HW132665   8.562   4.770   3.162
76942SOL    HW232666   8.653   4.666   3.224
76943SOL     OW32667  14.358   7.420   1.451
76943SOL    HW132668  14.334   7.328   1.456
76943SOL    HW232669  14.313   7.452   1.372
76944SOL     OW32670  10.067   3.316   3.320
76944SOL    HW132671  10.101   3.273   3.242
76944SOL    HW232672  10.071   3.409   3.300
76945SOL     OW32673   7.895  14.712   4.250
76945SOL    HW132674   7.985  14.727   4.280
76945SOL    HW232675   7.879  14.782   4.187
76946SOL     OW32676  10.662   8.814   2.997
76946SOL    HW132677  10.638   8.725   3.022
76946SOL    HW232678  10.579   8.854   2.969
76947SOL     OW32679   4.876   6.760   5.984
76947SOL    HW132680   4.927   6.767   5.903
76947SOL    HW232681   4.797   6.713   5.959
76948SOL     OW32682   5.719  12.058  13.115
76948SOL    HW132683   5.624  12.052  13.104
76948SOL    HW232684   5.737  12.006  13.194
76949SOL     OW32685  13.876   7.053   9.603
76949SOL    HW132686  13.809   7.115   9.631
76949SOL    HW232687  13.942   7.055   9.672
76950SOL     OW32688  10.113   5.134   3.306
76950SOL    HW132689  10.046   5.089   3.254
76950SOL    HW232690  10.144   5.067   3.368
76951SOL     OW32691  14.091   9.993   8.008
76951SOL    HW132692  14.085  10.086   8.027
76951SOL    HW232693  14.121   9.989   7.917
76952SOL     OW32694  10.706   7.818   7.599
76952SOL    HW132695  10.717   7.811   7.694
76952SOL    HW232696  10.751   7.741   7.564
76953SOL     OW32697   6.079   1.524   0.669
76953SOL    HW132698   6.016   1.478   0.724
76953SOL    HW232699   6.069   1.483   0.583
76954SOL     OW32700   0.158   8.524   9.914
76954SOL    HW132701   0.109   8.524   9.832
76954SOL    HW232702   0.097   8.559   9.979
76955SOL     OW32703   2.627   9.291  13.854
76955SOL    HW132704   2.612   9.379  13.818
76955SOL    HW232705   2.565   9.235  13.807
76956SOL     OW32706   9.310   0.451   8.868
76956SOL    HW132707   9.247   0.381   8.884
76956SOL    HW232708   9.389   0.407   8.837
76957SOL     OW32709  13.207   8.856   0.783
76957SOL    HW132710  13.176   8.790   0.845
76957SOL    HW232711  13.213   8.810   0.699
76958SOL     OW32712   6.567  14.049  14.433
76958SOL    HW132713   6.604  13.964  14.457
76958SOL    HW232714   6.483  14.053  14.478
76959SOL     OW32715  13.139   3.423  14.559
76959SOL    HW132716  13.165   3.332  14.570
76959SOL    HW232717  13.221   3.472  14.560
76960SOL     OW32718   3.128   6.290   4.149
76960SOL    HW132719   3.159   6.301   4.060
76960SOL    HW232720   3.195   6.236   4.192
76961SOL     OW32721  13.006   3.286  13.726
76961SOL    HW132722  12.989   3.341  13.802
76961SOL    HW232723  13.087   3.240  13.748
76962SOL     OW32724   6.805   0.221  13.093
76962SOL    HW132725   6.726   0.243  13.142
76962SOL    HW232726   6.785   0.138  13.050
76963SOL     OW32727   2.026   9.599   3.334
76963SOL    HW132728   2.022   9.640   3.420
76963SOL    HW232729   1.936   9.605   3.301
76964SOL     OW32730   1.936   3.243   7.982
76964SOL    HW132731   2.030   3.259   7.993
76964SOL    HW232732   1.931   3.171   7.919
76965SOL     OW32733   6.106   0.223   0.073
76965SOL    HW132734   6.058   0.141   0.073
76965SOL    HW232735   6.079   0.268   0.153
76966SOL     OW32736   9.918   6.588  11.809
76966SOL    HW132737   9.973   6.567  11.733
76966SOL    HW232738   9.975   6.575  11.885
76967SOL     OW32739  12.843   2.753  11.006
76967SOL    HW132740  12.847   2.833  11.058
76967SOL    HW232741  12.924   2.753  10.955
76968SOL     OW32742   5.450   5.311   5.950
76968SOL    HW132743   5.487   5.227   5.923
76968SOL    HW232744   5.404   5.342   5.872
76969SOL     OW32745  11.382   4.885  10.623
76969SOL    HW132746  11.410   4.912  10.536
76969SOL    HW232747  11.426   4.946  10.682
76970SOL     OW32748  12.050   5.709   5.823
76970SOL    HW132749  11.996   5.755   5.887
76970SOL    HW232750  12.120   5.669   5.874
76971SOL     OW32751   7.073   0.418  11.982
76971SOL    HW132752   7.011   0.470  11.930
76971SOL    HW232753   7.085   0.338  11.931
76972SOL     OW32754  10.601   0.088   2.221
76972SOL    HW132755  10.555   0.016   2.264
76972SOL    HW232756  10.570   0.167   2.265
76973SOL     OW32757  13.176  12.342   7.811
76973SOL    HW132758  13.248  12.362   7.751
76973SOL    HW232759  13.163  12.422   7.861
76974SOL     OW32760  13.631   5.114  12.837
76974SOL    HW132761  13.657   5.063  12.914
76974SOL    HW232762  13.681   5.195  12.844
76975SOL     OW32763   2.179  14.679  11.209
76975SOL    HW132764   2.147  14.657  11.297
76975SOL    HW232765   2.177  14.596  11.161
76976SOL     OW32766   8.037   2.196   2.839
76976SOL    HW132767   7.962   2.204   2.898
76976SOL    HW232768   8.098   2.265   2.868
76977SOL     OW32769   0.850   8.962   7.154
76977SOL    HW132770   0.817   8.879   7.189
76977SOL    HW232771   0.775   8.998   7.106
76978SOL     OW32772  13.230   3.639   9.242
76978SOL    HW132773  13.145   3.595   9.239
76978SOL    HW232774  13.262   3.625   9.331
76979SOL     OW32775  11.904   0.047   6.296
76979SOL    HW132776  11.920  14.866   6.366
76979SOL    HW232777  11.821   0.089   6.319
76980SOL     OW32778  12.269   9.075   8.771
76980SOL    HW132779  12.339   9.116   8.720
76980SOL    HW232780  12.298   9.085   8.862
76981SOL     OW32781   2.954   1.918   8.587
76981SOL    HW132782   2.893   1.983   8.553
76981SOL    HW232783   2.899   1.849   8.624
76982SOL     OW32784  12.752   3.568   4.076
76982SOL    HW132785  12.776   3.534   4.162
76982SOL    HW232786  12.787   3.657   4.074
76983SOL     OW32787  11.211   8.303   2.133
76983SOL    HW132788  11.152   8.280   2.061
76983SOL    HW232789  11.297   8.272   2.104
76984SOL     OW32790  10.839   7.501  14.800
76984SOL    HW132791  10.764   7.446  14.776
76984SOL    HW232792  10.834   7.575  14.739
76985SOL     OW32793  12.166   9.928   1.450
76985SOL    HW132794  12.191   9.961   1.536
76985SOL    HW232795  12.071   9.931   1.449
76986SOL     OW32796   4.640   9.246   9.310
76986SOL    HW132797   4.645   9.214   9.400
76986SOL    HW232798   4.625   9.168   9.258
76987SOL     OW32799   6.604   5.343   0.859
76987SOL    HW132800   6.637   5.257   0.883
76987SOL    HW232801   6.682   5.397   0.847
76988SOL     OW32802   8.193   1.625  10.730
76988SOL    HW132803   8.106   1.612  10.692
76988SOL    HW232804   8.241   1.676  10.664
76989SOL     OW32805   1.936   3.538   0.011
76989SOL    HW132806   2.009   3.565   0.067
76989SOL    HW232807   1.874   3.611   0.016
76990SOL     OW32808  13.188   9.760   7.280
76990SOL    HW132809  13.226   9.814   7.349
76990SOL    HW232810  13.233   9.676   7.287
76991SOL     OW32811   9.757  13.983   3.094
76991SOL    HW132812   9.796  14.035   3.164
76991SOL    HW232813   9.668  14.018   3.085
76992SOL     OW32814   3.685   8.816  11.316
76992SOL    HW132815   3.728   8.880  11.258
76992SOL    HW232816   3.683   8.859  11.401
76993SOL     OW32817   9.298  10.170  11.238
76993SOL    HW132818   9.370  10.113  11.210
76993SOL    HW232819   9.225  10.144  11.183
76994SOL     OW32820  14.046   5.911   9.574
76994SOL    HW132821  14.057   5.959   9.491
76994SOL    HW232822  13.974   5.851   9.557
76995SOL     OW32823  10.494   4.099   8.608
76995SOL    HW132824  10.479   4.164   8.540
76995SOL    HW232825  10.532   4.025   8.562
76996SOL     OW32826  13.304   9.678   4.514
76996SOL    HW132827  13.327   9.744   4.579
76996SOL    HW232828  13.388   9.642   4.486
76997SOL     OW32829   7.079   2.730  11.854
76997SOL    HW132830   6.987   2.738  11.830
76997SOL    HW232831   7.121   2.694  11.776
76998SOL     OW32832   2.333  13.167  10.996
76998SOL    HW132833   2.260  13.208  10.950
76998SOL    HW232834   2.371  13.107  10.932
76999SOL     OW32835   2.016  14.029  14.335
76999SOL    HW132836   1.926  14.029  14.302
76999SOL    HW232837   2.031  14.118  14.366
77000SOL     OW32838   9.849   4.387  11.024
77000SOL    HW132839   9.778   4.404  11.086
77000SOL    HW232840   9.879   4.474  10.997
77001SOL     OW32841   1.113  10.080   2.876
77001SOL    HW132842   1.128  10.000   2.826
77001SOL    HW232843   1.167  10.146   2.832
77002SOL     OW32844  12.684  10.031  14.407
77002SOL    HW132845  12.600  10.038  14.452
77002SOL    HW232846  12.748  10.012  14.476
77003SOL     OW32847   1.733   7.579  12.086
77003SOL    HW132848   1.814   7.577  12.136
77003SOL    HW232849   1.729   7.669  12.051
77004SOL     OW32850   8.181   9.479   4.686
77004SOL    HW132851   8.215   9.501   4.772
77004SOL    HW232852   8.110   9.417   4.703
77005SOL     OW32853   9.166   3.872  11.671
77005SOL    HW132854   9.164   3.808  11.743
77005SOL    HW232855   9.114   3.831  11.602
77006SOL     OW32856  14.831   4.617   0.270
77006SOL    HW132857  14.765   4.638   0.204
77006SOL    HW232858   0.033   4.629   0.226
77007SOL     OW32859  14.756  12.161   6.111
77007SOL    HW132860  14.692  12.224   6.143
77007SOL    HW232861  14.824  12.160   6.179
77008SOL     OW32862   3.367  13.442   8.271
77008SOL    HW132863   3.440  13.493   8.237
77008SOL    HW232864   3.397  13.408   8.355
77009SOL     OW32865   9.559   7.891  12.184
77009SOL    HW132866   9.492   7.890  12.116
77009SOL    HW232867   9.582   7.798  12.197
77010SOL     OW32868  12.779  13.338   7.233
77010SOL    HW132869  12.862  13.352   7.187
77010SOL    HW232870  12.798  13.362   7.323
77011SOL     OW32871  11.800   0.225   5.638
77011SOL    HW132872  11.712   0.228   5.676
77011SOL    HW232873  11.813   0.312   5.600
77012SOL     OW32874  12.963   9.964   4.416
77012SOL    HW132875  12.968   9.957   4.511
77012SOL    HW232876  13.000   9.882   4.384
77013SOL     OW32877  11.517   8.162   7.932
77013SOL    HW132878  11.486   8.240   7.977
77013SOL    HW232879  11.519   8.094   7.999
77014SOL     OW32880   2.039   4.679   2.203
77014SOL    HW132881   1.989   4.597   2.208
77014SOL    HW232882   2.130   4.653   2.214
77015SOL     OW32883   2.247   4.465  10.426
77015SOL    HW132884   2.322   4.481  10.483
77015SOL    HW232885   2.178   4.436  10.485
77016SOL     OW32886   0.427   6.183   9.236
77016SOL    HW132887   0.405   6.204   9.145
77016SOL    HW232888   0.384   6.251   9.287
77017SOL     OW32889   4.088   0.833   4.883
77017SOL    HW132890   4.067   0.742   4.905
77017SOL    HW232891   4.140   0.827   4.803
77018SOL     OW32892   8.171  12.199  14.237
77018SOL    HW132893   8.167  12.104  14.225
77018SOL    HW232894   8.264  12.218  14.248
77019SOL     OW32895   4.266   9.210   3.137
77019SOL    HW132896   4.217   9.129   3.153
77019SOL    HW232897   4.283   9.245   3.224
77020SOL     OW32898   8.144  10.592   8.792
77020SOL    HW132899   8.064  10.542   8.776
77020SOL    HW232900   8.121  10.651   8.865
77021SOL     OW32901  14.657  10.616   0.366
77021SOL    HW132902  14.590  10.551   0.346
77021SOL    HW232903  14.723  10.604   0.299
77022SOL     OW32904   8.113   0.394  14.790
77022SOL    HW132905   8.080   0.320  14.840
77022SOL    HW232906   8.062   0.393  14.709
77023SOL     OW32907   8.001   4.261   1.731
77023SOL    HW132908   7.936   4.192   1.741
77023SOL    HW232909   7.966   4.316   1.661
77024SOL     OW32910  10.752  13.076   7.406
77024SOL    HW132911  10.822  13.012   7.394
77024SOL    HW232912  10.759  13.103   7.498
77025SOL     OW32913  12.498  12.669  12.056
77025SOL    HW132914  12.415  12.623  12.070
77025SOL    HW232915  12.480  12.728  11.982
77026SOL     OW32916  13.874   9.291   5.834
77026SOL    HW132917  13.899   9.336   5.753
77026SOL    HW232918  13.818   9.355   5.879
77027SOL     OW32919   4.697   3.021   8.087
77027SOL    HW132920   4.737   3.083   8.147
77027SOL    HW232921   4.690   2.940   8.137
77028SOL     OW32922   0.263   5.071   1.650
77028SOL    HW132923   0.288   4.992   1.601
77028SOL    HW232924   0.247   5.137   1.583
77029SOL     OW32925   7.933   7.980   6.654
77029SOL    HW132926   7.949   8.064   6.697
77029SOL    HW232927   8.010   7.928   6.672
77030SOL     OW32928   2.997  12.040  10.697
77030SOL    HW132929   2.925  12.104  10.700
77030SOL    HW232930   2.953  11.956  10.688
77031SOL     OW32931   6.646   1.636   9.649
77031SOL    HW132932   6.669   1.637   9.556
77031SOL    HW232933   6.730   1.647   9.694
77032SOL     OW32934  14.534   3.137   7.494
77032SOL    HW132935  14.439   3.135   7.487
77032SOL    HW232936  14.562   3.197   7.425
77033SOL     OW32937  11.912  13.423   5.703
77033SOL    HW132938  11.998  13.431   5.745
77033SOL    HW232939  11.850  13.414   5.776
77034SOL     OW32940  13.880   1.785   6.523
77034SOL    HW132941  13.903   1.874   6.549
77034SOL    HW232942  13.854   1.793   6.432
77035SOL     OW32943   7.420  12.789   1.976
77035SOL    HW132944   7.403  12.764   2.067
77035SOL    HW232945   7.372  12.725   1.925
77036SOL     OW32946  14.342   9.584   6.442
77036SOL    HW132947  14.305   9.554   6.359
77036SOL    HW232948  14.436   9.593   6.425
77037SOL     OW32949   6.474   0.420   7.481
77037SOL    HW132950   6.519   0.343   7.516
77037SOL    HW232951   6.382   0.393   7.474
77038SOL     OW32952   7.057   1.766   3.851
77038SOL    HW132953   7.028   1.719   3.772
77038SOL    HW232954   6.977   1.776   3.903
77039SOL     OW32955   6.369   8.729   5.670
77039SOL    HW132956   6.453   8.718   5.715
77039SOL    HW232957   6.303   8.710   5.737
77040SOL     OW32958  14.842   1.624   2.524
77040SOL    HW132959  14.882   1.692   2.579
77040SOL    HW232960  14.750   1.623   2.550
77041SOL     OW32961   9.980   3.058   3.670
77041SOL    HW132962   9.960   3.012   3.751
77041SOL    HW232963   9.895   3.075   3.630
77042SOL     OW32964  11.364  13.750   3.996
77042SOL    HW132965  11.269  13.734   3.997
77042SOL    HW232966  11.399  13.683   3.938
77043SOL     OW32967  14.846  11.056   6.623
77043SOL    HW132968  14.824  11.024   6.710
77043SOL    HW232969  14.765  11.097   6.591
77044SOL     OW32970   5.657   3.830   3.292
77044SOL    HW132971   5.589   3.764   3.305
77044SOL    HW232972   5.676   3.863   3.379
77045SOL     OW32973  12.110   6.509   0.219
77045SOL    HW132974  12.122   6.593   0.176
77045SOL    HW232975  12.109   6.445   0.148
77046SOL     OW32976   9.472  11.272   5.633
77046SOL    HW132977   9.490  11.242   5.544
77046SOL    HW232978   9.376  11.273   5.639
77047SOL     OW32979  10.952   4.887   4.751
77047SOL    HW132980  10.878   4.832   4.777
77047SOL    HW232981  10.950   4.886   4.656
77048SOL     OW32982  10.924   3.535  10.649
77048SOL    HW132983  10.914   3.460  10.590
77048SOL    HW232984  10.835   3.569  10.659
77049SOL     OW32985  11.599   8.178  13.981
77049SOL    HW132986  11.569   8.108  14.039
77049SOL    HW232987  11.636   8.243  14.041
77050SOL     OW32988   0.122   3.032  12.824
77050SOL    HW132989   0.211   3.066  12.822
77050SOL    HW232990   0.099   3.032  12.917
77051SOL     OW32991  14.420   2.886   3.123
77051SOL    HW132992  14.366   2.827   3.175
77051SOL    HW232993  14.510   2.855   3.138
77052SOL     OW32994   5.117   1.389   9.144
77052SOL    HW132995   5.203   1.412   9.179
77052SOL    HW232996   5.119   1.422   9.054
77053SOL     OW32997   0.179   4.956   9.848
77053SOL    HW132998   0.175   4.916   9.761
77053SOL    HW232999   0.268   4.990   9.855
77054SOL     OW33000   5.745   4.781  10.333
77054SOL    HW133001   5.839   4.766  10.323
77054SOL    HW233002   5.706   4.694  10.327
77055SOL     OW33003   4.460  10.293  12.189
77055SOL    HW133004   4.467  10.276  12.095
77055SOL    HW233005   4.372  10.329  12.200
77056SOL     OW33006   7.900   0.150   6.606
77056SOL    HW133007   7.861   0.065   6.626
77056SOL    HW233008   7.990   0.130   6.580
77057SOL     OW33009   5.109   7.129   2.088
77057SOL    HW133010   5.151   7.067   2.029
77057SOL    HW233011   5.173   7.141   2.159
77058SOL     OW33012   2.255   0.292   8.624
77058SOL    HW133013   2.192   0.226   8.651
77058SOL    HW233014   2.296   0.256   8.546
77059SOL     OW33015   6.524   7.984   4.162
77059SOL    HW133016   6.540   7.969   4.255
77059SOL    HW233017   6.583   7.925   4.117
77060SOL     OW33018   6.574   4.716   9.059
77060SOL    HW133019   6.531   4.770   9.125
77060SOL    HW233020   6.625   4.652   9.109
77061SOL     OW33021   7.691  14.082   8.978
77061SOL    HW133022   7.715  14.105   9.067
77061SOL    HW233023   7.660  14.163   8.939
77062SOL     OW33024  11.052  10.504   4.860
77062SOL    HW133025  11.060  10.492   4.765
77062SOL    HW233026  11.056  10.599   4.872
77063SOL     OW33027   3.991  11.654   4.415
77063SOL    HW133028   4.054  11.707   4.463
77063SOL    HW233029   4.014  11.563   4.437
77064SOL     OW33030   6.621   7.358  10.608
77064SOL    HW133031   6.661   7.286  10.558
77064SOL    HW233032   6.651   7.344  10.698
77065SOL     OW33033  13.534   9.355  11.575
77065SOL    HW133034  13.600   9.288  11.594
77065SOL    HW233035  13.481   9.359  11.655
77066SOL     OW33036   1.639  13.147  10.635
77066SOL    HW133037   1.691  13.155  10.715
77066SOL    HW233038   1.663  13.061  10.600
77067SOL     OW33039   3.597  10.023  12.467
77067SOL    HW133040   3.538   9.948  12.475
77067SOL    HW233041   3.648  10.023  12.548
77068SOL     OW33042   7.940  13.454   0.564
77068SOL    HW133043   7.879  13.516   0.524
77068SOL    HW233044   8.005  13.436   0.496
77069SOL     OW33045  12.299  13.413   7.685
77069SOL    HW133046  12.264  13.500   7.663
77069SOL    HW233047  12.225  13.354   7.674
77070SOL     OW33048   7.729  10.787   1.405
77070SOL    HW133049   7.718  10.744   1.489
77070SOL    HW233050   7.657  10.851   1.401
77071SOL     OW33051  13.380   9.267  10.602
77071SOL    HW133052  13.363   9.323  10.526
77071SOL    HW233053  13.475   9.270  10.614
77072SOL     OW33054   7.115   7.836   3.472
77072SOL    HW133055   7.050   7.898   3.440
77072SOL    HW233056   7.090   7.820   3.563
77073SOL     OW33057   0.418  10.133   5.629
77073SOL    HW133058   0.325  10.113   5.632
77073SOL    HW233059   0.454  10.071   5.565
77074SOL     OW33060  13.959   6.852   9.929
77074SOL    HW133061  14.053   6.832   9.929
77074SOL    HW233062  13.929   6.826  10.017
77075SOL     OW33063   5.565   4.001   2.838
77075SOL    HW133064   5.601   4.083   2.872
77075SOL    HW233065   5.592   3.935   2.902
77076SOL     OW33066   4.829  13.641   4.554
77076SOL    HW133067   4.820  13.734   4.536
77076SOL    HW233068   4.811  13.598   4.470
77077SOL     OW33069  14.633   8.223  14.620
77077SOL    HW133070  14.592   8.221  14.534
77077SOL    HW233071  14.716   8.177  14.608
77078SOL     OW33072   6.422  11.274   6.640
77078SOL    HW133073   6.440  11.191   6.595
77078SOL    HW233074   6.327  11.277   6.649
77079SOL     OW33075   8.115   5.183   7.728
77079SOL    HW133076   8.197   5.133   7.728
77079SOL    HW233077   8.072   5.159   7.646
77080SOL     OW33078   1.276  14.691   3.822
77080SOL    HW133079   1.335  14.628   3.780
77080SOL    HW233080   1.315  14.776   3.803
77081SOL     OW33081   7.849  12.306   5.813
77081SOL    HW133082   7.892  12.390   5.828
77081SOL    HW233083   7.907  12.259   5.754
77082SOL     OW33084  10.602  14.474   8.832
77082SOL    HW133085  10.524  14.431   8.868
77082SOL    HW233086  10.651  14.404   8.791
77083SOL     OW33087   5.454  11.769   4.333
77083SOL    HW133088   5.516  11.841   4.338
77083SOL    HW233089   5.427  11.754   4.424
77084SOL     OW33090   2.639   6.624   6.352
77084SOL    HW133091   2.630   6.677   6.431
77084SOL    HW233092   2.628   6.533   6.382
77085SOL     OW33093  14.044   6.663   8.306
77085SOL    HW133094  14.060   6.569   8.316
77085SOL    HW233095  13.953   6.669   8.276
77086SOL     OW33096   2.526  12.150   4.671
77086SOL    HW133097   2.537  12.179   4.580
77086SOL    HW233098   2.614  12.129   4.700
77087SOL     OW33099  10.088   4.678   9.364
77087SOL    HW133100  10.053   4.669   9.452
77087SOL    HW233101  10.088   4.772   9.347
77088SOL     OW33102   9.569   0.580   8.617
77088SOL    HW133103   9.492   0.634   8.630
77088SOL    HW233104   9.546   0.495   8.656
77089SOL     OW33105   1.304  11.344   7.996
77089SOL    HW133106   1.331  11.408   7.930
77089SOL    HW233107   1.320  11.388   8.080
77090SOL     OW33108   3.328  11.094   9.249
77090SOL    HW133109   3.349  11.146   9.327
77090SOL    HW233110   3.381  11.132   9.180
77091SOL     OW33111   0.456   7.997   7.182
77091SOL    HW133112   0.428   8.082   7.148
77091SOL    HW233113   0.375   7.956   7.212
77092SOL     OW33114   3.630   3.972  11.545
77092SOL    HW133115   3.686   3.896  11.560
77092SOL    HW233116   3.556   3.960  11.604
77093SOL     OW33117   9.481   5.177   5.077
77093SOL    HW133118   9.498   5.203   5.167
77093SOL    HW233119   9.506   5.084   5.073
77094SOL     OW33120   1.122   7.060  11.589
77094SOL    HW133121   1.093   7.030  11.675
77094SOL    HW233122   1.184   6.994  11.560
77095SOL     OW33123   7.610  11.695   2.850
77095SOL    HW133124   7.518  11.677   2.868
77095SOL    HW233125   7.630  11.773   2.901
77096SOL     OW33126   5.189   4.436  11.578
77096SOL    HW133127   5.102   4.396  11.575
77096SOL    HW233128   5.181   4.504  11.645
77097SOL     OW33129   9.115  10.079   1.981
77097SOL    HW133130   9.040  10.057   1.926
77097SOL    HW233131   9.174  10.128   1.923
77098SOL     OW33132   3.879  10.564   3.923
77098SOL    HW133133   3.850  10.560   4.014
77098SOL    HW233134   3.960  10.514   3.922
77099SOL     OW33135   2.774   5.508   1.588
77099SOL    HW133136   2.679   5.526   1.585
77099SOL    HW233137   2.781   5.425   1.634
77100SOL     OW33138  12.422   3.535  11.282
77100SOL    HW133139  12.501   3.589  11.281
77100SOL    HW233140  12.355   3.589  11.242
77101SOL     OW33141   2.896   0.298   6.047
77101SOL    HW133142   2.934   0.333   5.966
77101SOL    HW233143   2.849   0.219   6.020
77102SOL     OW33144   0.721  14.665   2.491
77102SOL    HW133145   0.651  14.726   2.470
77102SOL    HW233146   0.799  14.704   2.452
77103SOL     OW33147   0.840   4.570   1.571
77103SOL    HW133148   0.861   4.515   1.496
77103SOL    HW233149   0.744   4.571   1.574
77104SOL     OW33150  13.898   3.336   5.580
77104SOL    HW133151  13.866   3.323   5.669
77104SOL    HW233152  13.821   3.360   5.530
77105SOL     OW33153   1.119   6.290   0.606
77105SOL    HW133154   1.032   6.252   0.595
77105SOL    HW233155   1.155   6.245   0.682
77106SOL     OW33156  14.212   5.489   9.530
77106SOL    HW133157  14.119   5.499   9.509
77106SOL    HW233158  14.212   5.439   9.612
77107SOL     OW33159  12.942   3.024   5.540
77107SOL    HW133160  12.895   2.958   5.591
77107SOL    HW233161  13.012   3.055   5.598
77108SOL     OW33162   0.551   4.341   5.062
77108SOL    HW133163   0.641   4.311   5.072
77108SOL    HW233164   0.526   4.371   5.149
77109SOL     OW33165   8.508   0.860  14.012
77109SOL    HW133166   8.571   0.931  14.024
77109SOL    HW233167   8.458   0.858  14.094
77110SOL     OW33168  11.819   1.603   0.552
77110SOL    HW133169  11.821   1.541   0.480
77110SOL    HW233170  11.808   1.549   0.630
77111SOL     OW33171   5.815   0.599   1.164
77111SOL    HW133172   5.772   0.539   1.224
77111SOL    HW233173   5.793   0.566   1.077
77112SOL     OW33174   0.377   8.256   3.151
77112SOL    HW133175   0.391   8.347   3.179
77112SOL    HW233176   0.396   8.257   3.057
77113SOL     OW33177  10.433   6.454  14.247
77113SOL    HW133178  10.496   6.418  14.310
77113SOL    HW233179  10.348   6.439  14.288
77114SOL     OW33180   6.700   9.687   9.673
77114SOL    HW133181   6.675   9.740   9.597
77114SOL    HW233182   6.662   9.734   9.748
77115SOL     OW33183  14.848  14.589  13.748
77115SOL    HW133184  14.881  14.535  13.677
77115SOL    HW233185  14.767  14.627  13.715
77116SOL     OW33186  13.956   3.214  10.197
77116SOL    HW133187  13.990   3.195  10.109
77116SOL    HW233188  13.974   3.134  10.247
77117SOL     OW33189  12.438   7.294   7.040
77117SOL    HW133190  12.530   7.267   7.039
77117SOL    HW233191  12.422   7.328   6.952
77118SOL     OW33192   2.574   1.269   4.824
77118SOL    HW133193   2.663   1.292   4.797
77118SOL    HW233194   2.520   1.342   4.793
77119SOL     OW33195   3.790  12.990   5.236
77119SOL    HW133196   3.708  13.022   5.197
77119SOL    HW233197   3.801  13.043   5.315
77120SOL     OW33198   6.116   8.465  14.598
77120SOL    HW133199   6.121   8.560  14.590
77120SOL    HW233200   6.102   8.449  14.691
77121SOL     OW33201   5.848   1.299  11.881
77121SOL    HW133202   5.842   1.366  11.813
77121SOL    HW233203   5.831   1.217  11.836
77122SOL     OW33204  11.874   9.700   3.343
77122SOL    HW133205  11.908   9.762   3.279
77122SOL    HW233206  11.949   9.646   3.367
77123SOL     OW33207   8.356   4.354   4.059
77123SOL    HW133208   8.334   4.267   4.093
77123SOL    HW233209   8.315   4.356   3.972
77124SOL     OW33210   2.889   6.166  11.405
77124SOL    HW133211   2.886   6.116  11.486
77124SOL    HW233212   2.803   6.152  11.365
77125SOL     OW33213   7.287   8.504   8.829
77125SOL    HW133214   7.327   8.583   8.865
77125SOL    HW233215   7.204   8.495   8.877
77126SOL     OW33216   3.704  13.321   7.073
77126SOL    HW133217   3.642  13.394   7.060
77126SOL    HW233218   3.710  13.280   6.987
77127SOL     OW33219   5.696   9.855   0.529
77127SOL    HW133220   5.778   9.806   0.519
77127SOL    HW233221   5.632   9.790   0.557
77128SOL     OW33222   6.540   4.587   9.494
77128SOL    HW133223   6.509   4.629   9.574
77128SOL    HW233224   6.463   4.544   9.458
77129SOL     OW33225  12.167   4.553   5.390
77129SOL    HW133226  12.211   4.492   5.331
77129SOL    HW233227  12.184   4.518   5.478
77130SOL     OW33228   1.164  11.048   5.830
77130SOL    HW133229   1.096  10.997   5.786
77130SOL    HW233230   1.143  11.139   5.810
77131SOL     OW33231   0.561   2.845   1.550
77131SOL    HW133232   0.539   2.812   1.463
77131SOL    HW233233   0.479   2.840   1.599
77132SOL     OW33234   8.977  11.652  10.649
77132SOL    HW133235   8.913  11.713  10.687
77132SOL    HW233236   9.004  11.692  10.567
77133SOL     OW33237  14.250   0.275   5.667
77133SOL    HW133238  14.276   0.319   5.748
77133SOL    HW233239  14.202   0.197   5.697
77134SOL     OW33240   6.610   7.957   1.570
77134SOL    HW133241   6.586   7.992   1.655
77134SOL    HW233242   6.700   7.985   1.557
77135SOL     OW33243   5.460  12.351  12.838
77135SOL    HW133244   5.427  12.262  12.828
77135SOL    HW233245   5.406  12.403  12.779
77136SOL     OW33246   7.200   5.573   9.555
77136SOL    HW133247   7.224   5.628   9.481
77136SOL    HW233248   7.283   5.537   9.586
77137SOL     OW33249  11.672   1.115   2.167
77137SOL    HW133250  11.645   1.197   2.208
77137SOL    HW233251  11.619   1.048   2.210
77138SOL     OW33252   5.745  14.092   5.122
77138SOL    HW133253   5.815  14.156   5.109
77138SOL    HW233254   5.746  14.039   5.043
77139SOL     OW33255   8.683  12.237   0.950
77139SOL    HW133256   8.755  12.247   1.012
77139SOL    HW233257   8.605  12.265   0.998
77140SOL     OW33258   4.674   7.413  13.009
77140SOL    HW133259   4.724   7.491  13.034
77140SOL    HW233260   4.610   7.445  12.946
77141SOL     OW33261   3.660  12.690   4.362
77141SOL    HW133262   3.603  12.735   4.425
77141SOL    HW233263   3.614  12.609   4.342
77142SOL     OW33264   7.941   3.439   4.151
77142SOL    HW133265   7.915   3.495   4.077
77142SOL    HW233266   8.036   3.437   4.147
77143SOL     OW33267  13.317   8.007  14.025
77143SOL    HW133268  13.276   8.031  14.108
77143SOL    HW233269  13.317   7.911  14.025
77144SOL     OW33270  12.801   6.101  12.590
77144SOL    HW133271  12.845   6.056  12.662
77144SOL    HW233272  12.845   6.186  12.584
77145SOL     OW33273  12.701  13.984   5.584
77145SOL    HW133274  12.773  13.921   5.574
77145SOL    HW233275  12.740  14.059   5.629
77146SOL     OW33276   5.848  11.886  10.746
77146SOL    HW133277   5.821  11.950  10.812
77146SOL    HW233278   5.767  11.865  10.699
77147SOL     OW33279   9.252   3.547   8.632
77147SOL    HW133280   9.215   3.518   8.549
77147SOL    HW233281   9.229   3.639   8.639
77148SOL     OW33282  14.030   9.052   5.870
77148SOL    HW133283  14.076   9.034   5.789
77148SOL    HW233284  13.982   9.133   5.853
77149SOL     OW33285   6.475   7.411   6.387
77149SOL    HW133286   6.397   7.403   6.442
77149SOL    HW233287   6.444   7.396   6.298
77150SOL     OW33288   5.205   4.348  10.626
77150SOL    HW133289   5.264   4.272  10.624
77150SOL    HW233290   5.254   4.415  10.673
77151SOL     OW33291   7.004   0.714   9.378
77151SOL    HW133292   7.074   0.663   9.419
77151SOL    HW233293   6.924   0.680   9.418
77152SOL     OW33294   2.934   5.682   3.737
77152SOL    HW133295   2.972   5.631   3.665
77152SOL    HW233296   2.962   5.635   3.816
77153SOL     OW33297   2.127  12.790  13.386
77153SOL    HW133298   2.202  12.744  13.422
77153SOL    HW233299   2.055  12.726  13.392
77154SOL     OW33300   0.003   4.466   2.982
77154SOL    HW133301   0.097   4.468   2.996
77154SOL    HW233302  14.862   4.373   2.984
77155SOL     OW33303   2.944  12.199   9.394
77155SOL    HW133304   2.854  12.203   9.360
77155SOL    HW233305   2.996  12.165   9.320
77156SOL     OW33306  12.420  11.760  10.058
77156SOL    HW133307  12.340  11.806  10.031
77156SOL    HW233308  12.484  11.781   9.990
77157SOL     OW33309   6.787  13.067   6.723
77157SOL    HW133310   6.761  13.084   6.813
77157SOL    HW233311   6.801  12.972   6.720
77158SOL     OW33312  14.600   8.416   9.210
77158SOL    HW133313  14.539   8.348   9.238
77158SOL    HW233314  14.643   8.379   9.132
77159SOL     OW33315   9.958   0.098   8.029
77159SOL    HW133316   9.894   0.122   8.096
77159SOL    HW233317  10.040   0.088   8.077
77160SOL     OW33318   8.792   4.347   1.700
77160SOL    HW133319   8.780   4.309   1.788
77160SOL    HW233320   8.710   4.325   1.654
77161SOL     OW33321  13.200   4.256  11.435
77161SOL    HW133322  13.203   4.269  11.530
77161SOL    HW233323  13.279   4.206  11.415
77162SOL     OW33324  10.628   2.146  10.599
77162SOL    HW133325  10.695   2.211  10.575
77162SOL    HW233326  10.670   2.093  10.666
77163SOL     OW33327   6.695   8.357  10.058
77163SOL    HW133328   6.657   8.299  10.123
77163SOL    HW233329   6.718   8.437  10.106
77164SOL     OW33330  12.323  11.428   5.846
77164SOL    HW133331  12.282  11.377   5.916
77164SOL    HW233332  12.303  11.519   5.868
77165SOL     OW33333   5.137  10.087   1.657
77165SOL    HW133334   5.160  10.100   1.565
77165SOL    HW233335   5.221  10.072   1.701
77166SOL     OW33336   6.808   8.286   5.557
77166SOL    HW133337   6.752   8.360   5.533
77166SOL    HW233338   6.865   8.320   5.626
77167SOL     OW33339   0.894   9.939  11.285
77167SOL    HW133340   0.936   9.960  11.202
77167SOL    HW233341   0.910   9.845  11.296
77168SOL     OW33342  12.563  14.398  12.623
77168SOL    HW133343  12.510  14.474  12.600
77168SOL    HW233344  12.617  14.428  12.696
77169SOL     OW33345   9.829   4.445   1.146
77169SOL    HW133346   9.772   4.447   1.224
77169SOL    HW233347   9.863   4.534   1.139
77170SOL     OW33348   3.359  12.699  11.933
77170SOL    HW133349   3.429  12.723  11.873
77170SOL    HW233350   3.398  12.711  12.020
77171SOL     OW33351   5.208   8.945   0.915
77171SOL    HW133352   5.115   8.924   0.920
77171SOL    HW233353   5.252   8.860   0.910
77172SOL     OW33354  14.166  13.084   7.354
77172SOL    HW133355  14.113  13.122   7.423
77172SOL    HW233356  14.163  12.990   7.371
77173SOL     OW33357   6.985  14.205  13.024
77173SOL    HW133358   6.958  14.116  13.048
77173SOL    HW233359   6.976  14.208  12.929
77174SOL     OW33360  13.219   9.572   3.050
77174SOL    HW133361  13.229   9.518   2.972
77174SOL    HW233362  13.128   9.602   3.047
77175SOL     OW33363   0.662   0.357   6.737
77175SOL    HW133364   0.613   0.294   6.791
77175SOL    HW233365   0.648   0.441   6.780
77176SOL     OW33366   4.150   2.775   8.284
77176SOL    HW133367   4.121   2.700   8.233
77176SOL    HW233368   4.069   2.823   8.303
77177SOL     OW33369  10.580   0.943   3.652
77177SOL    HW133370  10.629   0.937   3.570
77177SOL    HW233371  10.641   0.911   3.719
77178SOL     OW33372   6.338   1.564  12.513
77178SOL    HW133373   6.312   1.472  12.507
77178SOL    HW233374   6.431   1.565  12.491
77179SOL     OW33375   5.382  11.535  14.302
77179SOL    HW133376   5.348  11.618  14.335
77179SOL    HW233377   5.317  11.505  14.239
77180SOL     OW33378  11.908   8.553   2.557
77180SOL    HW133379  11.879   8.503   2.481
77180SOL    HW233380  11.992   8.591   2.530
77181SOL     OW33381  14.701   2.058   1.046
77181SOL    HW133382  14.613   2.029   1.024
77181SOL    HW233383  14.715   2.136   0.992
77182SOL     OW33384   8.340  12.188  13.063
77182SOL    HW133385   8.250  12.211  13.087
77182SOL    HW233386   8.369  12.128  13.132
77183SOL     OW33387   0.480   9.357   2.468
77183SOL    HW133388   0.401   9.326   2.513
77183SOL    HW233389   0.548   9.296   2.494
77184SOL     OW33390   1.889   8.099   0.550
77184SOL    HW133391   1.979   8.093   0.583
77184SOL    HW233392   1.836   8.114   0.628
77185SOL     OW33393   3.606  12.135   6.226
77185SOL    HW133394   3.591  12.047   6.262
77185SOL    HW233395   3.697  12.134   6.199
77186SOL     OW33396   0.902  10.870   9.895
77186SOL    HW133397   0.995  10.856   9.915
77186SOL    HW233398   0.859  10.866   9.980
77187SOL     OW33399  12.813  13.599   5.769
77187SOL    HW133400  12.867  13.522   5.747
77187SOL    HW233401  12.873  13.657   5.815
77188SOL     OW33402   8.698   3.699   9.622
77188SOL    HW133403   8.772   3.654   9.581
77188SOL    HW233404   8.646   3.629   9.662
77189SOL     OW33405  12.806   4.282   3.398
77189SOL    HW133406  12.793   4.344   3.470
77189SOL    HW233407  12.726   4.291   3.345
77190SOL     OW33408   0.229  12.132  13.619
77190SOL    HW133409   0.243  12.217  13.662
77190SOL    HW233410   0.182  12.080  13.684
77191SOL     OW33411   2.015  12.494  10.678
77191SOL    HW133412   2.025  12.409  10.635
77191SOL    HW233413   1.921  12.502  10.692
77192SOL     OW33414   2.915   3.281   0.787
77192SOL    HW133415   2.924   3.216   0.858
77192SOL    HW233416   2.846   3.340   0.817
77193SOL     OW33417   2.365   7.448   8.080
77193SOL    HW133418   2.404   7.384   8.020
77193SOL    HW233419   2.345   7.398   8.159
77194SOL     OW33420   7.048  10.651   3.266
77194SOL    HW133421   6.985  10.713   3.228
77194SOL    HW233422   7.000  10.609   3.338
77195SOL     OW33423  13.773   3.629  14.094
77195SOL    HW133424  13.756   3.663  14.182
77195SOL    HW233425  13.739   3.697  14.036
77196SOL     OW33426   4.459   8.342   4.104
77196SOL    HW133427   4.430   8.293   4.181
77196SOL    HW233428   4.420   8.296   4.030
77197SOL     OW33429   0.723  10.469  12.733
77197SOL    HW133430   0.743  10.539  12.795
77197SOL    HW233431   0.785  10.482  12.661
77198SOL     OW33432   5.949   2.361   6.650
77198SOL    HW133433   5.859   2.392   6.655
77198SOL    HW233434   5.994   2.407   6.721
77199SOL     OW33435  11.276  12.286   3.195
77199SOL    HW133436  11.295  12.199   3.231
77199SOL    HW233437  11.191  12.310   3.232
77200SOL     OW33438   3.698  12.902  14.729
77200SOL    HW133439   3.669  12.882  14.818
77200SOL    HW233440   3.620  12.938  14.686
77201SOL     OW33441  10.953  11.685  12.734
77201SOL    HW133442  11.003  11.676  12.652
77201SOL    HW233443  10.993  11.621  12.793
77202SOL     OW33444  12.856  11.565  11.116
77202SOL    HW133445  12.906  11.484  11.126
77202SOL    HW233446  12.779  11.540  11.066
77203SOL     OW33447   2.722  14.070   4.078
77203SOL    HW133448   2.658  14.123   4.125
77203SOL    HW233449   2.742  13.998   4.138
77204SOL     OW33450   8.574  10.326   8.412
77204SOL    HW133451   8.666  10.347   8.423
77204SOL    HW233452   8.543  10.388   8.346
77205SOL     OW33453   2.638   7.169   1.283
77205SOL    HW133454   2.553   7.136   1.254
77205SOL    HW233455   2.699   7.099   1.260
77206SOL     OW33456  10.656   3.931   8.423
77206SOL    HW133457  10.737   3.952   8.377
77206SOL    HW233458  10.638   3.840   8.399
77207SOL     OW33459   7.683   3.721   6.252
77207SOL    HW133460   7.749   3.653   6.239
77207SOL    HW233461   7.733   3.802   6.261
77208SOL     OW33462   5.848   4.940   5.463
77208SOL    HW133463   5.876   4.852   5.489
77208SOL    HW233464   5.858   4.940   5.368
77209SOL     OW33465   0.899  11.727  11.494
77209SOL    HW133466   0.927  11.652  11.441
77209SOL    HW233467   0.942  11.714  11.578
77210SOL     OW33468  12.911   9.202  12.376
77210SOL    HW133469  12.925   9.119  12.332
77210SOL    HW233470  12.819   9.224  12.358
77211SOL     OW33471   5.545   2.048   3.984
77211SOL    HW133472   5.632   2.023   4.015
77211SOL    HW233473   5.541   2.143   3.997
77212SOL     OW33474   9.802   4.319   6.604
77212SOL    HW133475   9.859   4.257   6.649
77212SOL    HW233476   9.841   4.328   6.517
77213SOL     OW33477   0.809   7.034   8.693
77213SOL    HW133478   0.855   6.988   8.764
77213SOL    HW233479   0.781   7.117   8.733
77214SOL     OW33480  12.606   9.493   1.728
77214SOL    HW133481  12.528   9.440   1.742
77214SOL    HW233482  12.588   9.576   1.772
77215SOL     OW33483   5.307   7.282   9.928
77215SOL    HW133484   5.358   7.203   9.946
77215SOL    HW233485   5.353   7.351   9.976
77216SOL     OW33486   1.913  11.068   3.151
77216SOL    HW133487   1.947  11.104   3.069
77216SOL    HW233488   1.904  10.974   3.135
77217SOL     OW33489   1.222   0.126   2.054
77217SOL    HW133490   1.164   0.055   2.079
77217SOL    HW233491   1.239   0.173   2.137
77218SOL     OW33492  10.652   9.664   6.291
77218SOL    HW133493  10.604   9.729   6.342
77218SOL    HW233494  10.655   9.702   6.203
77219SOL     OW33495   0.998   2.162   8.784
77219SOL    HW133496   0.935   2.092   8.769
77219SOL    HW233497   1.076   2.136   8.735
77220SOL     OW33498   1.517  12.278   2.821
77220SOL    HW133499   1.514  12.265   2.726
77220SOL    HW233500   1.558  12.364   2.832
77221SOL     OW33501  13.940  10.869   3.023
77221SOL    HW133502  13.873  10.832   3.080
77221SOL    HW233503  13.891  10.907   2.950
77222SOL     OW33504   7.777   6.581  14.429
77222SOL    HW133505   7.812   6.663  14.462
77222SOL    HW233506   7.736   6.604  14.346
77223SOL     OW33507   6.497   5.616   7.196
77223SOL    HW133508   6.479   5.669   7.118
77223SOL    HW233509   6.421   5.630   7.252
77224SOL     OW33510  13.973  13.960   9.356
77224SOL    HW133511  13.885  13.997   9.350
77224SOL    HW233512  14.020  14.018   9.416
77225SOL     OW33513  12.104   1.816   1.053
77225SOL    HW133514  12.021   1.815   1.007
77225SOL    HW233515  12.081   1.830   1.145
77226SOL     OW33516  12.190   0.580   1.881
77226SOL    HW133517  12.146   0.499   1.908
77226SOL    HW233518  12.137   0.649   1.920
77227SOL     OW33519  10.053  14.648   9.075
77227SOL    HW133520  10.001  14.582   9.029
77227SOL    HW233521  10.130  14.660   9.019
77228SOL     OW33522   6.315  11.056   0.060
77228SOL    HW133523   6.378  10.983   0.064
77228SOL    HW233524   6.232  11.017   0.087
77229SOL     OW33525  11.112   0.463  10.504
77229SOL    HW133526  11.127   0.493  10.415
77229SOL    HW233527  11.076   0.375  10.494
77230SOL     OW33528  14.797  11.057   2.918
77230SOL    HW133529  14.790  11.152   2.928
77230SOL    HW233530  14.710  11.029   2.887
77231SOL     OW33531  13.587   1.425   9.376
77231SOL    HW133532  13.583   1.501   9.433
77231SOL    HW233533  13.609   1.460   9.290
77232SOL     OW33534   4.111  14.523   5.061
77232SOL    HW133535   4.057  14.544   5.137
77232SOL    HW233536   4.051  14.483   4.999
77233SOL     OW33537  12.828  13.120  10.043
77233SOL    HW133538  12.750  13.158  10.084
77233SOL    HW233539  12.863  13.190   9.988
77234SOL     OW33540   9.697   0.085  10.713
77234SOL    HW133541   9.765   0.151  10.699
77234SOL    HW233542   9.651   0.081  10.629
77235SOL     OW33543   8.665   2.674   4.907
77235SOL    HW133544   8.705   2.631   4.831
77235SOL    HW233545   8.586   2.624   4.925
77236SOL     OW33546   7.073   3.064   2.094
77236SOL    HW133547   7.006   3.099   2.036
77236SOL    HW233548   7.155   3.077   2.047
77237SOL     OW33549   2.270  11.921   0.528
77237SOL    HW133550   2.282  11.974   0.607
77237SOL    HW233551   2.177  11.899   0.527
77238SOL     OW33552   4.927   0.556   8.818
77238SOL    HW133553   4.953   0.530   8.729
77238SOL    HW233554   5.010   0.565   8.865
77239SOL     OW33555   0.512   7.244   0.122
77239SOL    HW133556   0.448   7.316   0.125
77239SOL    HW233557   0.468   7.171   0.164
77240SOL     OW33558   6.819  13.672   5.966
77240SOL    HW133559   6.807  13.762   5.936
77240SOL    HW233560   6.891  13.677   6.029
77241SOL     OW33561   9.543  11.731   9.481
77241SOL    HW133562   9.587  11.716   9.397
77241SOL    HW233563   9.519  11.824   9.480
77242SOL     OW33564   6.943   1.175   9.164
77242SOL    HW133565   6.872   1.110   9.161
77242SOL    HW233566   7.012   1.133   9.215
77243SOL     OW33567  14.707   7.144  10.075
77243SOL    HW133568  14.723   7.229  10.033
77243SOL    HW233569  14.764   7.144  10.152
77244SOL     OW33570  12.802  13.210   0.492
77244SOL    HW133571  12.808  13.258   0.409
77244SOL    HW233572  12.892  13.208   0.525
77245SOL     OW33573   8.156  10.076   1.302
77245SOL    HW133574   8.197  10.107   1.382
77245SOL    HW233575   8.119  10.155   1.262
77246SOL     OW33576  13.968   2.174   5.256
77246SOL    HW133577  14.005   2.255   5.291
77246SOL    HW233578  13.965   2.114   5.331
77247SOL     OW33579  13.988   6.051  12.749
77247SOL    HW133580  14.037   6.062  12.667
77247SOL    HW233581  13.897   6.040  12.721
77248SOL     OW33582   2.735  10.963   7.002
77248SOL    HW133583   2.700  11.046   6.971
77248SOL    HW233584   2.830  10.974   6.999
77249SOL     OW33585   3.140   0.194   0.405
77249SOL    HW133586   3.093   0.202   0.322
77249SOL    HW233587   3.206   0.262   0.403
77250SOL     OW33588  12.560   6.647   2.515
77250SOL    HW133589  12.533   6.736   2.539
77250SOL    HW233590  12.635   6.629   2.571
77251SOL     OW33591   7.775  14.157   8.260
77251SOL    HW133592   7.681  14.167   8.252
77251SOL    HW233593   7.805  14.238   8.302
77252SOL     OW33594   1.617   5.047  12.540
77252SOL    HW133595   1.638   5.028  12.631
77252SOL    HW233596   1.539   4.995  12.521
77253SOL     OW33597   1.325   9.617   8.420
77253SOL    HW133598   1.315   9.703   8.380
77253SOL    HW233599   1.307   9.555   8.350
77254SOL     OW33600   8.345   4.060   8.484
77254SOL    HW133601   8.401   4.133   8.459
77254SOL    HW233602   8.384   3.984   8.441
77255SOL     OW33603  11.415   2.462  13.345
77255SOL    HW133604  11.439   2.511  13.267
77255SOL    HW233605  11.348   2.515  13.387
77256SOL     OW33606   4.106  11.959   3.210
77256SOL    HW133607   4.100  11.918   3.296
77256SOL    HW233608   4.071  11.894   3.150
77257SOL     OW33609   6.989   3.231  13.729
77257SOL    HW133610   6.908   3.222  13.679
77257SOL    HW233611   6.991   3.154  13.786
77258SOL     OW33612  10.372   2.800  13.203
77258SOL    HW133613  10.319   2.850  13.142
77258SOL    HW233614  10.311   2.774  13.272
77259SOL     OW33615   7.851  11.656   1.079
77259SOL    HW133616   7.772  11.663   1.026
77259SOL    HW233617   7.877  11.746   1.097
77260SOL     OW33618  10.460   3.499   2.086
77260SOL    HW133619  10.427   3.568   2.143
77260SOL    HW233620  10.389   3.483   2.024
77261SOL     OW33621  11.394   3.261   4.088
77261SOL    HW133622  11.338   3.232   4.160
77261SOL    HW233623  11.413   3.181   4.039
77262SOL     OW33624   1.732  14.705   4.896
77262SOL    HW133625   1.687  14.719   4.979
77262SOL    HW233626   1.728  14.611   4.881
77263SOL     OW33627   8.945   8.479   2.226
77263SOL    HW133628   8.863   8.448   2.188
77263SOL    HW233629   8.984   8.402   2.267
77264SOL     OW33630   7.214   6.043  12.780
77264SOL    HW133631   7.307   6.057  12.765
77264SOL    HW233632   7.178   6.131  12.793
77265SOL     OW33633  13.317   8.414   5.480
77265SOL    HW133634  13.301   8.356   5.555
77265SOL    HW233635  13.287   8.500   5.510
77266SOL     OW33636  14.857   1.157  11.336
77266SOL    HW133637  14.765   1.185  11.335
77266SOL    HW233638   0.015   1.207  11.407
77267SOL     OW33639  12.866   2.025  14.815
77267SOL    HW133640  12.855   1.932  14.836
77267SOL    HW233641  12.923   2.025  14.738
77268SOL     OW33642   8.961   2.969   0.917
77268SOL    HW133643   9.006   3.005   0.839
77268SOL    HW233644   8.975   2.875   0.910
77269SOL     OW33645  10.352   4.383   4.237
77269SOL    HW133646  10.357   4.287   4.234
77269SOL    HW233647  10.276   4.402   4.293
77270SOL     OW33648   6.936   0.367   9.041
77270SOL    HW133649   6.891   0.429   9.098
77270SOL    HW233650   7.006   0.418   9.001
77271SOL     OW33651  10.067   5.156  10.261
77271SOL    HW133652  10.037   5.066  10.273
77271SOL    HW233653  10.141   5.149  10.200
77272SOL     OW33654  12.377   0.243   9.891
77272SOL    HW133655  12.419   0.160   9.870
77272SOL    HW233656  12.286   0.232   9.862
77273SOL     OW33657   2.172  14.475   2.817
77273SOL    HW133658   2.092  14.513   2.853
77273SOL    HW233659   2.169  14.383   2.844
77274SOL     OW33660  11.050  11.753   5.800
77274SOL    HW133661  10.994  11.734   5.874
77274SOL    HW233662  11.139  11.746   5.834
77275SOL     OW33663  13.114   3.673  10.908
77275SOL    HW133664  13.042   3.644  10.851
77275SOL    HW233665  13.189   3.682  10.849
77276SOL     OW33666   7.338  14.085   3.638
77276SOL    HW133667   7.265  14.144   3.654
77276SOL    HW233668   7.403  14.108   3.704
77277SOL     OW33669  10.053   7.142   2.118
77277SOL    HW133670  10.048   7.117   2.210
77277SOL    HW233671  10.081   7.063   2.073
77278SOL     OW33672  14.646   0.126   5.508
77278SOL    HW133673  14.564   0.089   5.478
77278SOL    HW233674  14.629   0.220   5.513
77279SOL     OW33675   2.882  11.710  13.542
77279SOL    HW133676   2.940  11.636  13.524
77279SOL    HW233677   2.853  11.739  13.455
77280SOL     OW33678  13.520   7.490   7.850
77280SOL    HW133679  13.531   7.440   7.770
77280SOL    HW233680  13.588   7.557   7.846
77281SOL     OW33681   8.454  12.728  12.363
77281SOL    HW133682   8.381  12.789  12.371
77281SOL    HW233683   8.431  12.672  12.289
77282SOL     OW33684   0.063  12.477   5.641
77282SOL    HW133685   0.115  12.539   5.590
77282SOL    HW233686   0.061  12.397   5.588
77283SOL     OW33687  10.966   5.276  13.666
77283SOL    HW133688  10.960   5.181  13.671
77283SOL    HW233689  11.053   5.297  13.700
77284SOL     OW33690   7.441  11.772   5.163
77284SOL    HW133691   7.352  11.805   5.175
77284SOL    HW233692   7.455  11.712   5.236
77285SOL     OW33693  12.396   4.674   9.283
77285SOL    HW133694  12.388   4.611   9.355
77285SOL    HW233695  12.481   4.715   9.296
77286SOL     OW33696  13.323   1.386   8.139
77286SOL    HW133697  13.346   1.357   8.227
77286SOL    HW233698  13.264   1.318   8.106
77287SOL     OW33699  10.893   8.471   5.498
77287SOL    HW133700  10.880   8.488   5.591
77287SOL    HW233701  10.813   8.505   5.456
77288SOL     OW33702   7.273  13.944  12.195
77288SOL    HW133703   7.295  14.020  12.140
77288SOL    HW233704   7.178  13.947  12.202
77289SOL     OW33705   1.117   8.926  12.740
77289SOL    HW133706   1.147   8.944  12.651
77289SOL    HW233707   1.037   8.978  12.750
77290SOL     OW33708  10.142   1.596  13.967
77290SOL    HW133709  10.097   1.514  13.985
77290SOL    HW233710  10.105   1.658  14.031
77291SOL     OW33711   1.529   3.860   0.556
77291SOL    HW133712   1.610   3.850   0.504
77291SOL    HW233713   1.485   3.776   0.546
77292SOL     OW33714   9.058  11.834  10.449
77292SOL    HW133715   8.993  11.837  10.379
77292SOL    HW233716   9.141  11.816  10.404
77293SOL     OW33717  13.710   4.017  14.452
77293SOL    HW133718  13.644   4.066  14.402
77293SOL    HW233719  13.778   4.081  14.471
77294SOL     OW33720  12.280   4.253  13.094
77294SOL    HW133721  12.190   4.222  13.088
77294SOL    HW233722  12.296   4.260  13.188
77295SOL     OW33723   7.381   4.386   3.395
77295SOL    HW133724   7.335   4.351   3.319
77295SOL    HW233725   7.315   4.387   3.465
77296SOL     OW33726  10.670   0.362   7.986
77296SOL    HW133727  10.637   0.286   8.034
77296SOL    HW233728  10.657   0.339   7.893
77297SOL     OW33729  13.974   3.531   2.252
77297SOL    HW133730  14.016   3.616   2.257
77297SOL    HW233731  13.992   3.500   2.164
77298SOL     OW33732   5.183   5.421   4.645
77298SOL    HW133733   5.183   5.470   4.563
77298SOL    HW233734   5.130   5.473   4.705
77299SOL     OW33735  10.308   3.780   0.525
77299SOL    HW133736  10.302   3.687   0.506
77299SOL    HW233737  10.335   3.820   0.442
77300SOL     OW33738  10.410  11.379   5.294
77300SOL    HW133739  10.452  11.439   5.355
77300SOL    HW233740  10.416  11.424   5.209
77301SOL     OW33741   5.190   4.925   3.103
77301SOL    HW133742   5.279   4.926   3.067
77301SOL    HW233743   5.171   4.832   3.117
77302SOL     OW33744  14.798   7.260   2.710
77302SOL    HW133745  14.876   7.205   2.722
77302SOL    HW233746  14.729   7.215   2.759
77303SOL     OW33747  12.730  13.352  12.451
77303SOL    HW133748  12.709  13.262  12.426
77303SOL    HW233749  12.806  13.374  12.397
77304SOL     OW33750  12.306   8.691  10.724
77304SOL    HW133751  12.287   8.673  10.632
77304SOL    HW233752  12.228   8.664  10.772
77305SOL     OW33753  11.956  14.734   8.978
77305SOL    HW133754  11.928  14.818   9.013
77305SOL    HW233755  12.005  14.756   8.899
77306SOL     OW33756   7.779   8.526  10.679
77306SOL    HW133757   7.830   8.603  10.655
77306SOL    HW233758   7.700   8.562  10.719
77307SOL     OW33759   9.810  11.930   5.705
77307SOL    HW133760   9.801  11.835   5.714
77307SOL    HW233761   9.781  11.965   5.790
77308SOL     OW33762   3.838   1.202   3.750
77308SOL    HW133763   3.854   1.265   3.820
77308SOL    HW233764   3.744   1.186   3.752
77309SOL     OW33765  10.460   2.535   2.270
77309SOL    HW133766  10.519   2.477   2.317
77309SOL    HW233767  10.395   2.561   2.336
77310SOL     OW33768   5.075  11.517   3.980
77310SOL    HW133769   5.122  11.523   3.896
77310SOL    HW233770   5.113  11.585   4.035
77311SOL     OW33771  14.275   0.762  10.628
77311SOL    HW133772  14.274   0.738  10.721
77311SOL    HW233773  14.344   0.709  10.590
77312SOL     OW33774   0.866   2.676   5.252
77312SOL    HW133775   0.813   2.743   5.209
77312SOL    HW233776   0.931   2.725   5.302
77313SOL     OW33777   3.144  10.565   9.229
77313SOL    HW133778   3.117  10.482   9.189
77313SOL    HW233779   3.213  10.542   9.291
77314SOL     OW33780   6.818  13.476   7.802
77314SOL    HW133781   6.804  13.555   7.853
77314SOL    HW233782   6.888  13.429   7.848
77315SOL     OW33783   7.482   3.326   6.191
77315SOL    HW133784   7.563   3.298   6.233
77315SOL    HW233785   7.477   3.420   6.209
77316SOL     OW33786   1.412  14.419   6.015
77316SOL    HW133787   1.339  14.410   5.954
77316SOL    HW233788   1.373  14.455   6.095
77317SOL     OW33789  12.266  10.583   5.432
77317SOL    HW133790  12.359  10.562   5.424
77317SOL    HW233791  12.225  10.500   5.457
77318SOL     OW33792   2.185   8.008  12.359
77318SOL    HW133793   2.101   8.032  12.397
77318SOL    HW233794   2.248   8.018  12.431
77319SOL     OW33795   0.667   2.094   3.185
77319SOL    HW133796   0.659   2.186   3.210
77319SOL    HW233797   0.579   2.071   3.155
77320SOL     OW33798   0.535   9.293  11.578
77320SOL    HW133799   0.522   9.388  11.571
77320SOL    HW233800   0.582   9.270  11.498
77321SOL     OW33801   6.563   0.900   4.604
77321SOL    HW133802   6.529   0.975   4.653
77321SOL    HW233803   6.540   0.917   4.513
77322SOL     OW33804  14.188   8.749   0.808
77322SOL    HW133805  14.181   8.801   0.888
77322SOL    HW233806  14.099   8.719   0.791
77323SOL     OW33807   1.048   5.536  14.628
77323SOL    HW133808   1.037   5.510  14.719
77323SOL    HW233809   1.058   5.453  14.581
77324SOL     OW33810   5.852   9.283   3.536
77324SOL    HW133811   5.814   9.346   3.475
77324SOL    HW233812   5.862   9.331   3.618
77325SOL     OW33813   7.535   5.330  12.548
77325SOL    HW133814   7.605   5.270  12.575
77325SOL    HW233815   7.456   5.275  12.545
77326SOL     OW33816  10.360   8.566  12.053
77326SOL    HW133817  10.350   8.478  12.016
77326SOL    HW233818  10.388   8.551  12.143
77327SOL     OW33819  13.988   8.701   4.164
77327SOL    HW133820  13.999   8.763   4.093
77327SOL    HW233821  14.062   8.717   4.222
77328SOL     OW33822   2.690   4.593  10.237
77328SOL    HW133823   2.673   4.501  10.257
77328SOL    HW233824   2.737   4.591  10.153
77329SOL     OW33825  14.604   4.618  13.490
77329SOL    HW133826  14.592   4.664  13.407
77329SOL    HW233827  14.679   4.661  13.531
77330SOL     OW33828  10.504  10.127   5.926
77330SOL    HW133829  10.578  10.077   5.961
77330SOL    HW233830  10.542  10.212   5.903
77331SOL     OW33831   6.754   4.947   0.280
77331SOL    HW133832   6.728   4.874   0.336
77331SOL    HW233833   6.846   4.964   0.303
77332SOL     OW33834  13.460   6.784   5.019
77332SOL    HW133835  13.366   6.781   5.036
77332SOL    HW233836  13.469   6.768   4.925
77333SOL     OW33837  11.276   9.637   2.462
77333SOL    HW133838  11.255   9.729   2.449
77333SOL    HW233839  11.212   9.606   2.526
77334SOL     OW33840   0.263   8.932   7.712
77334SOL    HW133841   0.175   8.970   7.703
77334SOL    HW233842   0.265   8.896   7.801
77335SOL     OW33843  11.834  11.655   9.369
77335SOL    HW133844  11.918  11.628   9.406
77335SOL    HW233845  11.856  11.711   9.295
77336SOL     OW33846   0.252  12.735   6.464
77336SOL    HW133847   0.329  12.784   6.435
77336SOL    HW233848   0.187  12.802   6.486
77337SOL     OW33849  13.070  14.056   7.325
77337SOL    HW133850  13.147  14.098   7.363
77337SOL    HW233851  13.057  14.101   7.241
77338SOL     OW33852   9.780   4.675  14.693
77338SOL    HW133853   9.764   4.766  14.667
77338SOL    HW233854   9.839   4.682  14.768
77339SOL     OW33855   7.210  12.748  12.992
77339SOL    HW133856   7.185  12.687  12.922
77339SOL    HW233857   7.191  12.835  12.956
77340SOL     OW33858   3.122   3.232  11.254
77340SOL    HW133859   3.094   3.141  11.267
77340SOL    HW233860   3.151   3.235  11.163
77341SOL     OW33861   3.980   2.413   3.699
77341SOL    HW133862   3.928   2.369   3.632
77341SOL    HW233863   3.938   2.498   3.710
77342SOL     OW33864  10.440   2.482   8.325
77342SOL    HW133865  10.485   2.494   8.241
77342SOL    HW233866  10.348   2.501   8.306
77343SOL     OW33867   0.534   9.364   8.299
77343SOL    HW133868   0.615   9.394   8.340
77343SOL    HW233869   0.492   9.443   8.266
77344SOL     OW33870  13.917   5.754   4.486
77344SOL    HW133871  13.881   5.667   4.504
77344SOL    HW233872  13.884   5.809   4.557
77345SOL     OW33873   7.400   3.590   8.120
77345SOL    HW133874   7.365   3.534   8.190
77345SOL    HW233875   7.340   3.578   8.047
77346SOL     OW33876   7.000   7.950   2.582
77346SOL    HW133877   7.085   7.995   2.574
77346SOL    HW233878   7.016   7.878   2.643
77347SOL     OW33879   0.337   9.373   2.118
77347SOL    HW133880   0.416   9.398   2.167
77347SOL    HW233881   0.315   9.450   2.067
77348SOL     OW33882   4.935  13.604  11.708
77348SOL    HW133883   5.018  13.602  11.661
77348SOL    HW233884   4.909  13.513  11.716
77349SOL     OW33885  10.359  10.616   4.818
77349SOL    HW133886  10.264  10.613   4.810
77349SOL    HW233887  10.377  10.702   4.858
77350SOL     OW33888   0.228   7.840   7.224
77350SOL    HW133889   0.221   7.808   7.314
77350SOL    HW233890   0.229   7.761   7.170
77351SOL     OW33891  11.355   4.124   3.311
77351SOL    HW133892  11.447   4.098   3.315
77351SOL    HW233893  11.358   4.218   3.292
77352SOL     OW33894   4.605   7.867   3.172
77352SOL    HW133895   4.685   7.828   3.138
77352SOL    HW233896   4.619   7.875   3.266
77353SOL     OW33897   4.270   7.119   4.451
77353SOL    HW133898   4.213   7.192   4.429
77353SOL    HW233899   4.286   7.128   4.545
77354SOL     OW33900   9.510   9.307  13.892
77354SOL    HW133901   9.479   9.395  13.871
77354SOL    HW233902   9.595   9.299  13.848
77355SOL     OW33903   8.314  12.782  11.570
77355SOL    HW133904   8.364  12.707  11.539
77355SOL    HW233905   8.369  12.858  11.551
77356SOL     OW33906   4.983  12.507   0.896
77356SOL    HW133907   5.070  12.469   0.914
77356SOL    HW233908   4.963  12.558   0.974
77357SOL     OW33909   3.793   5.128   4.102
77357SOL    HW133910   3.799   5.051   4.158
77357SOL    HW233911   3.772   5.200   4.162
77358SOL     OW33912   8.230   9.057   8.684
77358SOL    HW133913   8.251   8.964   8.696
77358SOL    HW233914   8.305   9.093   8.636
77359SOL     OW33915  10.279   8.851   9.716
77359SOL    HW133916  10.282   8.765   9.675
77359SOL    HW233917  10.201   8.849   9.772
77360SOL     OW33918  12.066  10.818   5.977
77360SOL    HW133919  12.077  10.814   5.882
77360SOL    HW233920  11.991  10.762   5.995
77361SOL     OW33921   8.666   9.594  14.879
77361SOL    HW133922   8.635   9.638  14.800
77361SOL    HW233923   8.589   9.545   0.028
77362SOL     OW33924   8.571  13.680   9.091
77362SOL    HW133925   8.590  13.773   9.081
77362SOL    HW233926   8.493  13.677   9.146
77363SOL     OW33927  10.479   4.458   6.275
77363SOL    HW133928  10.449   4.519   6.207
77363SOL    HW233929  10.496   4.514   6.351
77364SOL     OW33930   1.737  12.328  13.361
77364SOL    HW133931   1.724  12.262  13.429
77364SOL    HW233932   1.831  12.327  13.345
77365SOL     OW33933   7.121   6.477  10.886
77365SOL    HW133934   7.144   6.568  10.866
77365SOL    HW233935   7.143   6.429  10.806
77366SOL     OW33936  12.615   2.586   5.970
77366SOL    HW133937  12.654   2.498   5.972
77366SOL    HW233938  12.547   2.581   5.903
77367SOL     OW33939   0.935   5.041   2.168
77367SOL    HW133940   0.904   4.955   2.197
77367SOL    HW233941   0.856   5.087   2.139
77368SOL     OW33942   7.447   6.604  12.137
77368SOL    HW133943   7.457   6.678  12.078
77368SOL    HW233944   7.490   6.531  12.092
77369SOL     OW33945  12.277   3.242  14.759
77369SOL    HW133946  12.263   3.196  14.676
77369SOL    HW233947  12.194   3.232  14.807
77370SOL     OW33948   3.831   3.194   6.032
77370SOL    HW133949   3.814   3.190   6.126
77370SOL    HW233950   3.917   3.235   6.025
77371SOL     OW33951   3.667   5.530  13.199
77371SOL    HW133952   3.648   5.612  13.153
77371SOL    HW233953   3.725   5.482  13.140
77372SOL     OW33954  11.844   9.480   0.814
77372SOL    HW133955  11.908   9.422   0.854
77372SOL    HW233956  11.771   9.423   0.792
77373SOL     OW33957   9.536   3.776   4.766
77373SOL    HW133958   9.498   3.831   4.834
77373SOL    HW233959   9.499   3.810   4.684
77374SOL     OW33960   1.430   1.906   7.260
77374SOL    HW133961   1.517   1.926   7.295
77374SOL    HW233962   1.448   1.860   7.178
77375SOL     OW33963   0.589   0.715   8.744
77375SOL    HW133964   0.601   0.623   8.768
77375SOL    HW233965   0.571   0.713   8.650
77376SOL     OW33966   9.036   3.947  12.898
77376SOL    HW133967   9.072   4.032  12.876
77376SOL    HW233968   8.945   3.950  12.869
77377SOL     OW33969  13.964   1.594   7.911
77377SOL    HW133970  13.940   1.686   7.905
77377SOL    HW233971  14.037   1.591   7.973
77378SOL     OW33972   6.319   4.436   5.317
77378SOL    HW133973   6.256   4.501   5.349
77378SOL    HW233974   6.343   4.466   5.230
77379SOL     OW33975  14.531  11.381   6.673
77379SOL    HW133976  14.593  11.443   6.712
77379SOL    HW233977  14.554  11.379   6.580
77380SOL     OW33978  14.008   4.247   1.347
77380SOL    HW133979  14.091   4.292   1.364
77380SOL    HW233980  13.989   4.199   1.428
77381SOL     OW33981  13.937   7.372   4.685
77381SOL    HW133982  13.956   7.301   4.623
77381SOL    HW233983  13.977   7.449   4.645
77382SOL     OW33984   1.658   7.302   3.802
77382SOL    HW133985   1.721   7.230   3.788
77382SOL    HW233986   1.706   7.381   3.776
77383SOL     OW33987   8.072   3.419  11.380
77383SOL    HW133988   7.979   3.401  11.391
77383SOL    HW233989   8.111   3.394  11.463
77384SOL     OW33990   2.672   9.811   6.821
77384SOL    HW133991   2.611   9.876   6.786
77384SOL    HW233992   2.759   9.845   6.796
77385SOL     OW33993  14.608   9.341   6.605
77385SOL    HW133994  14.627   9.375   6.692
77385SOL    HW233995  14.519   9.307   6.612
77386SOL     OW33996  13.698   7.502  10.985
77386SOL    HW133997  13.614   7.513  11.030
77386SOL    HW233998  13.730   7.416  11.012
77387SOL     OW33999   3.215  13.206   8.842
77387SOL    HW134000   3.304  13.177   8.863
77387SOL    HW234001   3.168  13.125   8.822
77388SOL     OW34002   1.483   3.087  14.622
77388SOL    HW134003   1.509   3.088  14.714
77388SOL    HW234004   1.560   3.056  14.575
77389SOL     OW34005   5.335   6.432   9.276
77389SOL    HW134006   5.271   6.399   9.339
77389SOL    HW234007   5.405   6.469   9.330
77390SOL     OW34008   3.947   0.275   3.373
77390SOL    HW134009   4.011   0.331   3.330
77390SOL    HW234010   3.976   0.270   3.464
77391SOL     OW34011   4.409   6.689   8.418
77391SOL    HW134012   4.447   6.619   8.364
77391SOL    HW234013   4.342   6.729   8.362
77392SOL     OW34014   2.957  14.032   6.454
77392SOL    HW134015   3.047  14.063   6.441
77392SOL    HW234016   2.959  13.941   6.424
77393SOL     OW34017   5.277   5.598  14.015
77393SOL    HW134018   5.317   5.534  13.956
77393SOL    HW234019   5.342   5.668  14.022
77394SOL     OW34020   8.990   2.583   6.137
77394SOL    HW134021   9.008   2.642   6.210
77394SOL    HW234022   9.072   2.581   6.088
77395SOL     OW34023   8.611   7.234  10.405
77395SOL    HW134024   8.562   7.313  10.426
77395SOL    HW234025   8.553   7.185  10.347
77396SOL     OW34026   4.455  10.795   7.360
77396SOL    HW134027   4.395  10.816   7.288
77396SOL    HW234028   4.427  10.708   7.388
77397SOL     OW34029   8.854  11.965  14.114
77397SOL    HW134030   8.867  11.912  14.035
77397SOL    HW234031   8.941  11.996  14.136
77398SOL     OW34032  10.433  12.150   8.624
77398SOL    HW134033  10.471  12.174   8.539
77398SOL    HW234034  10.488  12.193   8.689
77399SOL     OW34035   8.592  11.482  11.830
77399SOL    HW134036   8.545  11.479  11.747
77399SOL    HW234037   8.656  11.553  11.819
77400SOL     OW34038   3.787   4.125  13.172
77400SOL    HW134039   3.736   4.079  13.105
77400SOL    HW234040   3.775   4.072  13.251
77401SOL     OW34041   2.847  11.893  11.057
77401SOL    HW134042   2.792  11.887  11.135
77401SOL    HW234043   2.869  11.986  11.051
77402SOL     OW34044   2.524   8.365   9.151
77402SOL    HW134045   2.611   8.368   9.191
77402SOL    HW234046   2.541   8.350   9.058
77403SOL     OW34047   8.181   7.081  12.395
77403SOL    HW134048   8.170   7.145  12.325
77403SOL    HW234049   8.103   7.025  12.388
77404SOL     OW34050   0.729   6.941   2.365
77404SOL    HW134051   0.679   6.864   2.338
77404SOL    HW234052   0.819   6.910   2.372
77405SOL     OW34053  14.138   4.823   8.179
77405SOL    HW134054  14.091   4.785   8.254
77405SOL    HW234055  14.148   4.751   8.117
77406SOL     OW34056  10.978   1.948  11.909
77406SOL    HW134057  10.891   1.909  11.907
77406SOL    HW234058  10.962   2.042  11.901
77407SOL     OW34059   2.176  13.803   7.825
77407SOL    HW134060   2.250  13.826   7.881
77407SOL    HW234061   2.168  13.708   7.833
77408SOL     OW34062  13.907  10.901   5.295
77408SOL    HW134063  13.967  10.891   5.369
77408SOL    HW234064  13.964  10.899   5.218
77409SOL     OW34065   2.163  12.417  12.207
77409SOL    HW134066   2.239  12.398  12.151
77409SOL    HW234067   2.123  12.331  12.222
77410SOL     OW34068  11.677   8.622   2.906
77410SOL    HW134069  11.757   8.645   2.858
77410SOL    HW234070  11.621   8.699   2.897
77411SOL     OW34071   1.584   5.751  13.100
77411SOL    HW134072   1.603   5.662  13.129
77411SOL    HW234073   1.603   5.749  13.006
77412SOL     OW34074   8.935  13.690   3.386
77412SOL    HW134075   8.867  13.625   3.369
77412SOL    HW234076   8.992  13.648   3.450
77413SOL     OW34077  11.605   2.562   4.475
77413SOL    HW134078  11.575   2.592   4.390
77413SOL    HW234079  11.551   2.484   4.493
77414SOL     OW34080   5.241  12.550   9.510
77414SOL    HW134081   5.196  12.529   9.591
77414SOL    HW234082   5.329  12.576   9.537
77415SOL     OW34083   1.886   5.906   3.091
77415SOL    HW134084   1.905   5.831   3.034
77415SOL    HW234085   1.969   5.923   3.136
77416SOL     OW34086   4.865  14.574   3.301
77416SOL    HW134087   4.922  14.517   3.249
77416SOL    HW234088   4.870  14.540   3.390
77417SOL     OW34089   8.090  14.730   7.135
77417SOL    HW134090   8.169  14.740   7.083
77417SOL    HW234091   8.037  14.807   7.113
77418SOL     OW34092   0.761  12.314   6.955
77418SOL    HW134093   0.726  12.225   6.945
77418SOL    HW234094   0.813  12.327   6.875
77419SOL     OW34095   2.540   4.175   6.094
77419SOL    HW134096   2.469   4.162   6.156
77419SOL    HW234097   2.539   4.269   6.075
77420SOL     OW34098   5.722  13.709   3.542
77420SOL    HW134099   5.757  13.770   3.608
77420SOL    HW234100   5.672  13.645   3.593
77421SOL     OW34101   0.810   8.072   7.137
77421SOL    HW134102   0.833   8.059   7.045
77421SOL    HW234103   0.858   8.004   7.184
77422SOL     OW34104   8.987  10.141   7.134
77422SOL    HW134105   9.059  10.182   7.181
77422SOL    HW234106   8.919  10.127   7.200
77423SOL     OW34107   0.576   8.288   0.196
77423SOL    HW134108   0.503   8.233   0.225
77423SOL    HW234109   0.622   8.236   0.130
77424SOL     OW34110  12.630   2.396   5.328
77424SOL    HW134111  12.568   2.468   5.317
77424SOL    HW234112  12.709   2.424   5.282
77425SOL     OW34113   5.439   4.338   2.783
77425SOL    HW134114   5.462   4.375   2.868
77425SOL    HW234115   5.438   4.414   2.724
77426SOL     OW34116   3.799   6.367  10.079
77426SOL    HW134117   3.790   6.294  10.018
77426SOL    HW234118   3.840   6.436  10.026
77427SOL     OW34119   9.760   2.918   6.823
77427SOL    HW134120   9.805   2.834   6.819
77427SOL    HW234121   9.678   2.900   6.867
77428SOL     OW34122   2.762   7.441  11.293
77428SOL    HW134123   2.758   7.399  11.207
77428SOL    HW234124   2.711   7.384  11.350
77429SOL     OW34125  13.545   9.744  11.189
77429SOL    HW134126  13.517   9.655  11.168
77429SOL    HW234127  13.634   9.750  11.155
77430SOL     OW34128   7.386   4.623  10.671
77430SOL    HW134129   7.325   4.625  10.745
77430SOL    HW234130   7.386   4.712  10.637
77431SOL     OW34131   4.225  11.611   6.936
77431SOL    HW134132   4.307  11.650   6.907
77431SOL    HW234133   4.239  11.517   6.925
77432SOL     OW34134  12.559   0.280  12.554
77432SOL    HW134135  12.581   0.187  12.551
77432SOL    HW234136  12.587   0.314  12.470
77433SOL     OW34137   0.904   2.580   5.908
77433SOL    HW134138   0.998   2.567   5.920
77433SOL    HW234139   0.890   2.673   5.923
77434SOL     OW34140   2.793  12.581   4.771
77434SOL    HW134141   2.840  12.600   4.689
77434SOL    HW234142   2.815  12.655   4.829
77435SOL     OW34143   9.335   9.672   5.809
77435SOL    HW134144   9.421   9.712   5.822
77435SOL    HW234145   9.318   9.626   5.892
77436SOL     OW34146   5.116  11.387   4.223
77436SOL    HW134147   5.083  11.432   4.145
77436SOL    HW234148   5.071  11.430   4.296
77437SOL     OW34149   3.777  12.526   2.306
77437SOL    HW134150   3.765  12.620   2.294
77437SOL    HW234151   3.744  12.487   2.225
77438SOL     OW34152  12.204   2.643   6.743
77438SOL    HW134153  12.247   2.665   6.826
77438SOL    HW234154  12.144   2.716   6.727
77439SOL     OW34155  13.415  11.376   1.076
77439SOL    HW134156  13.482  11.421   1.128
77439SOL    HW234157  13.417  11.285   1.106
77440SOL     OW34158   7.178   9.561   2.062
77440SOL    HW134159   7.246   9.533   2.001
77440SOL    HW234160   7.224   9.613   2.128
77441SOL     OW34161   0.764   6.724   3.980
77441SOL    HW134162   0.751   6.772   3.898
77441SOL    HW234163   0.780   6.634   3.953
77442SOL     OW34164   4.392  14.316   8.137
77442SOL    HW134165   4.468  14.304   8.194
77442SOL    HW234166   4.378  14.411   8.136
77443SOL     OW34167  12.607   6.590   5.129
77443SOL    HW134168  12.656   6.666   5.097
77443SOL    HW234169  12.536   6.579   5.066
77444SOL     OW34170   7.242  13.699   6.402
77444SOL    HW134171   7.283  13.614   6.416
77444SOL    HW234172   7.180  13.708   6.475
77445SOL     OW34173   7.351   5.836  11.328
77445SOL    HW134174   7.283   5.821  11.394
77445SOL    HW234175   7.312   5.900  11.268
77446SOL     OW34176   5.630   0.431  10.944
77446SOL    HW134177   5.598   0.343  10.927
77446SOL    HW234178   5.552   0.486  10.945
77447SOL     OW34179   4.015  12.401  12.546
77447SOL    HW134180   3.977  12.316  12.570
77447SOL    HW234181   3.942  12.451  12.511
77448SOL     OW34182   2.198  10.180   3.600
77448SOL    HW134183   2.156  10.177   3.514
77448SOL    HW234184   2.198  10.273   3.623
77449SOL     OW34185   0.830   2.201  14.601
77449SOL    HW134186   0.771   2.138  14.560
77449SOL    HW234187   0.775   2.247  14.665
77450SOL     OW34188   2.352  10.399  13.146
77450SOL    HW134189   2.426  10.438  13.192
77450SOL    HW234190   2.296  10.364  13.215
77451SOL     OW34191  12.954   1.937  10.649
77451SOL    HW134192  12.893   1.864  10.639
77451SOL    HW234193  12.899   2.010  10.678
77452SOL     OW34194   9.858   7.247   7.063
77452SOL    HW134195   9.899   7.191   7.128
77452SOL    HW234196   9.814   7.315   7.113
77453SOL     OW34197   4.832   1.337  10.872
77453SOL    HW134198   4.841   1.241  10.870
77453SOL    HW234199   4.741   1.351  10.901
77454SOL     OW34200   5.909   3.123   0.820
77454SOL    HW134201   5.908   3.191   0.887
77454SOL    HW234202   5.841   3.151   0.757
77455SOL     OW34203   0.490   2.640   6.731
77455SOL    HW134204   0.438   2.697   6.673
77455SOL    HW234205   0.578   2.676   6.727
77456SOL     OW34206   2.179  10.552   1.277
77456SOL    HW134207   2.093  10.591   1.292
77456SOL    HW234208   2.231  10.578   1.353
77457SOL     OW34209   1.809   9.438   8.539
77457SOL    HW134210   1.880   9.436   8.603
77457SOL    HW234211   1.827   9.366   8.480
77458SOL     OW34212   9.074  11.700   9.934
77458SOL    HW134213   9.102  11.705  10.025
77458SOL    HW234214   9.015  11.624   9.931
77459SOL     OW34215  10.192   7.808   5.351
77459SOL    HW134216  10.206   7.764   5.267
77459SOL    HW234217  10.261   7.874   5.355
77460SOL     OW34218   5.375   7.254   1.419
77460SOL    HW134219   5.446   7.285   1.363
77460SOL    HW234220   5.408   7.266   1.508
77461SOL     OW34221  12.331  11.135   2.561
77461SOL    HW134222  12.245  11.173   2.581
77461SOL    HW234223  12.315  11.040   2.559
77462SOL     OW34224   7.197   3.127  12.210
77462SOL    HW134225   7.193   3.223  12.210
77462SOL    HW234226   7.169   3.102  12.122
77463SOL     OW34227   2.119  11.225   1.464
77463SOL    HW134228   2.112  11.165   1.539
77463SOL    HW234229   2.212  11.226   1.443
77464SOL     OW34230   9.148   3.741  13.569
77464SOL    HW134231   9.233   3.780  13.591
77464SOL    HW234232   9.147   3.659  13.618
77465SOL     OW34233   3.909  13.368  10.005
77465SOL    HW134234   3.904  13.288   9.952
77465SOL    HW234235   4.002  13.374  10.029
77466SOL     OW34236   9.279  11.404   0.233
77466SOL    HW134237   9.225  11.396   0.155
77466SOL    HW234238   9.230  11.358   0.301
77467SOL     OW34239   8.644  14.796   2.598
77467SOL    HW134240   8.571  14.852   2.624
77467SOL    HW234241   8.656  14.736   2.671
77468SOL     OW34242   3.827  11.160   1.482
77468SOL    HW134243   3.904  11.114   1.517
77468SOL    HW234244   3.764  11.160   1.554
77469SOL     OW34245   6.324   8.705   5.106
77469SOL    HW134246   6.386   8.779   5.107
77469SOL    HW234247   6.293   8.699   5.196
77470SOL     OW34248   2.779   1.295  14.296
77470SOL    HW134249   2.783   1.200  14.297
77470SOL    HW234250   2.866   1.322  14.266
77471SOL     OW34251   0.749   6.251   9.414
77471SOL    HW134252   0.791   6.303   9.483
77471SOL    HW234253   0.664   6.227   9.450
77472SOL     OW34254   0.666   2.717   7.714
77472SOL    HW134255   0.615   2.745   7.790
77472SOL    HW234256   0.697   2.629   7.736
77473SOL     OW34257  10.090   2.144   4.278
77473SOL    HW134258  10.004   2.180   4.299
77473SOL    HW234259  10.140   2.217   4.242
77474SOL     OW34260   6.610   6.413   1.209
77474SOL    HW134261   6.590   6.372   1.125
77474SOL    HW234262   6.669   6.350   1.253
77475SOL     OW34263   1.447   1.783   7.027
77475SOL    HW134264   1.516   1.739   6.978
77475SOL    HW234265   1.372   1.785   6.967
77476SOL     OW34266  10.846   2.468  13.150
77476SOL    HW134267  10.921   2.527  13.156
77476SOL    HW234268  10.773   2.525  13.127
77477SOL     OW34269   4.395   1.009   8.097
77477SOL    HW134270   4.452   1.086   8.092
77477SOL    HW234271   4.430   0.949   8.031
77478SOL     OW34272  11.504   4.842  10.374
77478SOL    HW134273  11.579   4.840  10.314
77478SOL    HW234274  11.519   4.767  10.433
77479SOL     OW34275  13.720   6.262   4.624
77479SOL    HW134276  13.644   6.303   4.583
77479SOL    HW234277  13.710   6.280   4.717
77480SOL     OW34278  11.940  14.150  10.841
77480SOL    HW134279  11.889  14.105  10.774
77480SOL    HW234280  12.031  14.128  10.821
77481SOL     OW34281   2.208   5.519   6.423
77481SOL    HW134282   2.235   5.498   6.513
77481SOL    HW234283   2.278   5.485   6.368
77482SOL     OW34284   0.590   5.456  11.306
77482SOL    HW134285   0.632   5.379  11.345
77482SOL    HW234286   0.579   5.432  11.214
77483SOL     OW34287   0.327   9.482  14.844
77483SOL    HW134288   0.395   9.449  14.785
77483SOL    HW234289   0.323   9.576  14.826
77484SOL     OW34290   6.994  14.125   8.713
77484SOL    HW134291   6.996  14.106   8.807
77484SOL    HW234292   7.016  14.218   8.707
77485SOL     OW34293   3.118  13.363   1.227
77485SOL    HW134294   3.097  13.454   1.247
77485SOL    HW234295   3.035  13.316   1.234
77486SOL     OW34296   5.997  10.377   8.711
77486SOL    HW134297   5.983  10.472   8.708
77486SOL    HW234298   6.030  10.361   8.800
77487SOL     OW34299   4.657   8.993   2.202
77487SOL    HW134300   4.710   9.065   2.236
77487SOL    HW234301   4.601   8.967   2.275
77488SOL     OW34302  10.558  10.829   1.950
77488SOL    HW134303  10.522  10.757   2.002
77488SOL    HW234304  10.481  10.872   1.913
77489SOL     OW34305  10.332   7.927   6.294
77489SOL    HW134306  10.287   7.858   6.244
77489SOL    HW234307  10.425   7.912   6.277
77490SOL     OW34308   6.443   5.766   5.607
77490SOL    HW134309   6.394   5.821   5.668
77490SOL    HW234310   6.507   5.826   5.567
77491SOL     OW34311  14.286  13.254  13.071
77491SOL    HW134312  14.192  13.252  13.089
77491SOL    HW234313  14.302  13.342  13.035
77492SOL     OW34314   0.864   6.007   0.959
77492SOL    HW134315   0.950   5.975   0.934
77492SOL    HW234316   0.827   6.043   0.879
77493SOL     OW34317   2.091  11.409  11.650
77493SOL    HW134318   1.996  11.404  11.634
77493SOL    HW234319   2.118  11.317  11.654
77494SOL     OW34320   5.407   4.440  12.965
77494SOL    HW134321   5.370   4.418  12.879
77494SOL    HW234322   5.368   4.525  12.987
77495SOL     OW34323  11.732  14.219  13.807
77495SOL    HW134324  11.751  14.246  13.896
77495SOL    HW234325  11.721  14.124  13.812
77496SOL     OW34326   7.550  11.083   5.149
77496SOL    HW134327   7.638  11.060   5.176
77496SOL    HW234328   7.557  11.172   5.116
77497SOL     OW34329   1.134   1.370  10.116
77497SOL    HW134330   1.145   1.327  10.031
77497SOL    HW234331   1.152   1.462  10.099
77498SOL     OW34332   0.875   5.238  11.847
77498SOL    HW134333   0.829   5.154  11.852
77498SOL    HW234334   0.872   5.262  11.755
77499SOL     OW34335  11.196   3.513   3.812
77499SOL    HW134336  11.216   3.420   3.818
77499SOL    HW234337  11.238   3.542   3.731
77500SOL     OW34338   2.860  11.779   4.441
77500SOL    HW134339   2.796  11.834   4.395
77500SOL    HW234340   2.929  11.764   4.376
77501SOL     OW34341  12.847   7.243   8.657
77501SOL    HW134342  12.862   7.244   8.752
77501SOL    HW234343  12.933   7.263   8.619
77502SOL     OW34344  12.894   1.855   7.857
77502SOL    HW134345  12.832   1.903   7.803
77502SOL    HW234346  12.874   1.763   7.840
77503SOL     OW34347  12.099  10.973  13.654
77503SOL    HW134348  12.067  11.053  13.612
77503SOL    HW234349  12.084  10.988  13.748
77504SOL     OW34350   7.956   1.877  10.452
77504SOL    HW134351   7.975   1.792  10.489
77504SOL    HW234352   7.866   1.870  10.420
77505SOL     OW34353   6.070  14.635  13.121
77505SOL    HW134354   6.029  14.561  13.076
77505SOL    HW234355   6.029  14.637  13.207
77506SOL     OW34356  10.969  11.395   9.387
77506SOL    HW134357  11.013  11.398   9.472
77506SOL    HW234358  10.968  11.486   9.358
77507SOL     OW34359   9.814   4.498   0.588
77507SOL    HW134360   9.848   4.529   0.505
77507SOL    HW234361   9.756   4.568   0.618
77508SOL     OW34362   9.589   5.215   3.348
77508SOL    HW134363   9.629   5.264   3.420
77508SOL    HW234364   9.583   5.125   3.382
77509SOL     OW34365   7.111  13.081  10.816
77509SOL    HW134366   7.074  13.117  10.736
77509SOL    HW234367   7.134  12.991  10.794
77510SOL     OW34368   9.959  14.722   9.323
77510SOL    HW134369  10.004  14.703   9.241
77510SOL    HW234370   9.881  14.666   9.322
77511SOL     OW34371   2.407   0.145   1.560
77511SOL    HW134372   2.322   0.157   1.518
77511SOL    HW234373   2.422   0.226   1.608
77512SOL     OW34374   9.827   8.992  11.437
77512SOL    HW134375   9.764   9.009  11.367
77512SOL    HW234376   9.835   9.075  11.483
77513SOL     OW34377   7.693   9.483   1.655
77513SOL    HW134378   7.657   9.435   1.730
77513SOL    HW234379   7.691   9.420   1.583
77514SOL     OW34380   2.879   9.027   9.089
77514SOL    HW134381   2.919   9.090   9.029
77514SOL    HW234382   2.792   9.010   9.053
77515SOL     OW34383   6.954  12.470   3.931
77515SOL    HW134384   6.908  12.536   3.982
77515SOL    HW234385   6.960  12.394   3.990
77516SOL     OW34386  11.378  10.119  13.170
77516SOL    HW134387  11.406  10.205  13.199
77516SOL    HW234388  11.338  10.079  13.247
77517SOL     OW34389   0.666   5.264   3.428
77517SOL    HW134390   0.695   5.298   3.344
77517SOL    HW234391   0.645   5.342   3.480
77518SOL     OW34392   9.734   3.843   0.159
77518SOL    HW134393   9.745   3.917   0.218
77518SOL    HW234394   9.753   3.766   0.213
77519SOL     OW34395  13.077   5.985   4.005
77519SOL    HW134396  13.074   6.075   4.038
77519SOL    HW234397  13.146   5.943   4.056
77520SOL     OW34398   3.156   8.793   1.680
77520SOL    HW134399   3.086   8.832   1.733
77520SOL    HW234400   3.131   8.812   1.590
77521SOL     OW34401   9.197  12.666   9.794
77521SOL    HW134402   9.187  12.744   9.740
77521SOL    HW234403   9.123  12.667   9.854
77522SOL     OW34404   0.095   8.673  11.624
77522SOL    HW134405   0.061   8.762  11.612
77522SOL    HW234406   0.097   8.661  11.719
77523SOL     OW34407  10.963  10.170  12.698
77523SOL    HW134408  10.913  10.199  12.622
77523SOL    HW234409  10.896  10.155  12.765
77524SOL     OW34410  10.332  10.689   2.734
77524SOL    HW134411  10.349  10.717   2.824
77524SOL    HW234412  10.378  10.606   2.725
77525SOL     OW34413   9.785   9.822   9.603
77525SOL    HW134414   9.740   9.889   9.654
77525SOL    HW234415   9.735   9.815   9.522
77526SOL     OW34416   0.143  10.426   2.976
77526SOL    HW134417   0.160  10.520   2.975
77526SOL    HW234418   0.096  10.411   3.059
77527SOL     OW34419  11.860   3.931   9.391
77527SOL    HW134420  11.804   4.008   9.387
77527SOL    HW234421  11.909   3.932   9.309
77528SOL     OW34422   1.333   6.317  12.231
77528SOL    HW134423   1.286   6.246  12.187
77528SOL    HW234424   1.425   6.291  12.225
77529SOL     OW34425   6.284   6.018   4.646
77529SOL    HW134426   6.253   6.069   4.720
77529SOL    HW234427   6.323   6.082   4.587
77530SOL     OW34428  14.065  10.637  10.398
77530SOL    HW134429  14.121  10.680  10.462
77530SOL    HW234430  14.040  10.554  10.439
77531SOL     OW34431   4.239   5.727  13.408
77531SOL    HW134432   4.168   5.689  13.357
77531SOL    HW234433   4.198   5.754  13.491
77532SOL     OW34434   0.888   2.129  11.756
77532SOL    HW134435   0.908   2.201  11.816
77532SOL    HW234436   0.859   2.058  11.813
77533SOL     OW34437   6.151   9.249  13.988
77533SOL    HW134438   6.186   9.280  13.905
77533SOL    HW234439   6.101   9.323  14.023
77534SOL     OW34440   6.585   0.905   3.846
77534SOL    HW134441   6.524   0.928   3.915
77534SOL    HW234442   6.538   0.923   3.765
77535SOL     OW34443   2.561   9.520   2.419
77535SOL    HW134444   2.606   9.524   2.504
77535SOL    HW234445   2.504   9.443   2.426
77536SOL     OW34446  13.007   7.495   0.170
77536SOL    HW134447  12.942   7.431   0.140
77536SOL    HW234448  13.016   7.557   0.097
77537SOL     OW34449   2.172   7.902   9.522
77537SOL    HW134450   2.246   7.860   9.479
77537SOL    HW234451   2.211   7.961   9.586
77538SOL     OW34452   4.779   1.047   9.856
77538SOL    HW134453   4.812   0.976   9.911
77538SOL    HW234454   4.768   1.007   9.769
77539SOL     OW34455   0.285  13.179  13.486
77539SOL    HW134456   0.201  13.156  13.445
77539SOL    HW234457   0.313  13.258  13.440
77540SOL     OW34458   6.813   9.889  13.338
77540SOL    HW134459   6.795   9.980  13.312
77540SOL    HW234460   6.861   9.852  13.264
77541SOL     OW34461   4.202   1.021   2.658
77541SOL    HW134462   4.130   1.083   2.657
77541SOL    HW234463   4.246   1.033   2.573
77542SOL     OW34464   5.400   5.282   4.769
77542SOL    HW134465   5.408   5.328   4.852
77542SOL    HW234466   5.328   5.326   4.724
77543SOL     OW34467   3.513   2.967  11.084
77543SOL    HW134468   3.498   2.987  10.991
77543SOL    HW234469   3.575   3.033  11.113
77544SOL     OW34470   3.532   4.346   4.314
77544SOL    HW134471   3.531   4.378   4.404
77544SOL    HW234472   3.444   4.366   4.281
77545SOL     OW34473   5.394  12.676  11.682
77545SOL    HW134474   5.331  12.728  11.631
77545SOL    HW234475   5.340  12.632  11.748
77546SOL     OW34476  13.692   5.518   7.806
77546SOL    HW134477  13.683   5.573   7.884
77546SOL    HW234478  13.639   5.562   7.740
77547SOL     OW34479   5.879   8.403   1.888
77547SOL    HW134480   5.946   8.429   1.825
77547SOL    HW234481   5.822   8.480   1.895
77548SOL     OW34482  12.864   7.877   7.975
77548SOL    HW134483  12.891   7.818   8.045
77548SOL    HW234484  12.883   7.828   7.895
77549SOL     OW34485   6.655   5.932   0.567
77549SOL    HW134486   6.588   5.868   0.592
77549SOL    HW234487   6.703   5.890   0.496
77550SOL     OW34488   4.829   6.393   3.858
77550SOL    HW134489   4.733   6.386   3.851
77550SOL    HW234490   4.849   6.363   3.947
77551SOL     OW34491   4.823  13.988   5.693
77551SOL    HW134492   4.906  13.963   5.735
77551SOL    HW234493   4.824  14.084   5.694
77552SOL     OW34494  10.714  14.561   0.958
77552SOL    HW134495  10.719  14.613   1.038
77552SOL    HW234496  10.788  14.590   0.906
77553SOL     OW34497  11.822   6.627   7.807
77553SOL    HW134498  11.777   6.628   7.891
77553SOL    HW234499  11.869   6.543   7.806
77554SOL     OW34500   1.352  14.495   2.013
77554SOL    HW134501   1.382  14.413   1.976
77554SOL    HW234502   1.337  14.476   2.106
77555SOL     OW34503  12.865   8.298   9.108
77555SOL    HW134504  12.946   8.331   9.069
77555SOL    HW234505  12.893   8.223   9.161
77556SOL     OW34506   5.414  10.580   2.161
77556SOL    HW134507   5.353  10.507   2.175
77556SOL    HW234508   5.495  10.537   2.133
77557SOL     OW34509   0.896   0.205   5.862
77557SOL    HW134510   0.881   0.288   5.906
77557SOL    HW234511   0.980   0.215   5.817
77558SOL     OW34512  13.749   9.221   1.177
77558SOL    HW134513  13.700   9.154   1.130
77558SOL    HW234514  13.682   9.282   1.208
77559SOL     OW34515   9.126  13.684   7.796
77559SOL    HW134516   9.070  13.760   7.780
77559SOL    HW234517   9.146  13.689   7.890
77560SOL     OW34518   3.122   7.092   8.109
77560SOL    HW134519   3.161   7.175   8.083
77560SOL    HW234520   3.054   7.116   8.172
77561SOL     OW34521  14.757   1.164   0.437
77561SOL    HW134522  14.811   1.114   0.498
77561SOL    HW234523  14.815   1.233   0.405
77562SOL     OW34524   3.252   2.084   7.553
77562SOL    HW134525   3.330   2.132   7.583
77562SOL    HW234526   3.248   2.102   7.459
77563SOL     OW34527   3.229   1.902   0.700
77563SOL    HW134528   3.242   1.877   0.609
77563SOL    HW234529   3.137   1.926   0.706
77564SOL     OW34530   9.024   6.715   4.865
77564SOL    HW134531   8.929   6.713   4.868
77564SOL    HW234532   9.049   6.785   4.925
77565SOL     OW34533  13.362  13.874   6.337
77565SOL    HW134534  13.407  13.906   6.414
77565SOL    HW234535  13.274  13.912   6.342
77566SOL     OW34536   5.665  10.160   3.637
77566SOL    HW134537   5.681  10.188   3.547
77566SOL    HW234538   5.745  10.115   3.663
77567SOL     OW34539  10.322  13.170   0.933
77567SOL    HW134540  10.411  13.205   0.932
77567SOL    HW234541  10.270  13.238   0.976
77568SOL     OW34542   3.182   2.386   4.467
77568SOL    HW134543   3.132   2.316   4.426
77568SOL    HW234544   3.117   2.449   4.496
77569SOL     OW34545  10.430   9.559   8.468
77569SOL    HW134546  10.373   9.584   8.396
77569SOL    HW234547  10.375   9.509   8.527
77570SOL     OW34548  10.573   6.729   7.401
77570SOL    HW134549  10.480   6.710   7.391
77570SOL    HW234550  10.614   6.644   7.411
77571SOL     OW34551   8.887   7.502   5.668
77571SOL    HW134552   8.879   7.435   5.735
77571SOL    HW234553   8.845   7.579   5.706
77572SOL     OW34554  12.695  14.240  14.621
77572SOL    HW134555  12.662  14.271  14.705
77572SOL    HW234556  12.657  14.153  14.610
77573SOL     OW34557   5.811  13.566   2.209
77573SOL    HW134558   5.819  13.621   2.287
77573SOL    HW234559   5.815  13.476   2.242
77574SOL     OW34560   4.871   5.212  11.048
77574SOL    HW134561   4.964   5.190  11.035
77574SOL    HW234562   4.860   5.295  11.002
77575SOL     OW34563   1.717  12.332  11.449
77575SOL    HW134564   1.779  12.267  11.414
77575SOL    HW234565   1.707  12.396  11.379
77576SOL     OW34566   7.984   4.263  11.330
77576SOL    HW134567   7.909   4.320  11.313
77576SOL    HW234568   7.975   4.239  11.423
77577SOL     OW34569  10.615  12.200   3.488
77577SOL    HW134570  10.558  12.277   3.483
77577SOL    HW234571  10.576  12.146   3.556
77578SOL     OW34572   9.144  12.376   7.079
77578SOL    HW134573   9.223  12.417   7.113
77578SOL    HW234574   9.153  12.381   6.984
77579SOL     OW34575  11.519   8.895   6.451
77579SOL    HW134576  11.562   8.810   6.441
77579SOL    HW234577  11.540   8.941   6.370
77580SOL     OW34578   2.999  10.551  10.114
77580SOL    HW134579   2.926  10.607  10.138
77580SOL    HW234580   2.970  10.507  10.034
77581SOL     OW34581  12.383   7.643   2.492
77581SOL    HW134582  12.290   7.633   2.511
77581SOL    HW234583  12.386   7.682   2.404
77582SOL     OW34584   1.915   7.790   5.305
77582SOL    HW134585   1.856   7.748   5.243
77582SOL    HW234586   1.884   7.881   5.310
77583SOL     OW34587   3.886   3.950  13.411
77583SOL    HW134588   3.878   3.868  13.362
77583SOL    HW234589   3.795   3.976  13.430
77584SOL     OW34590   8.727   8.228   2.751
77584SOL    HW134591   8.734   8.295   2.684
77584SOL    HW234592   8.700   8.275   2.830
77585SOL     OW34593   4.044   7.199  12.066
77585SOL    HW134594   4.092   7.116  12.065
77585SOL    HW234595   4.095   7.258  12.010
77586SOL     OW34596   2.930  10.995   1.478
77586SOL    HW134597   2.884  11.068   1.436
77586SOL    HW234598   3.005  11.036   1.521
77587SOL     OW34599   5.052   4.949   4.026
77587SOL    HW134600   4.997   4.889   3.976
77587SOL    HW234601   4.998   5.027   4.040
77588SOL     OW34602   7.933   1.250   1.679
77588SOL    HW134603   8.010   1.254   1.736
77588SOL    HW234604   7.934   1.333   1.631
77589SOL     OW34605   0.546   7.491  13.766
77589SOL    HW134606   0.530   7.513  13.858
77589SOL    HW234607   0.499   7.409  13.752
77590SOL     OW34608  12.555   1.668   7.684
77590SOL    HW134609  12.589   1.696   7.599
77590SOL    HW234610  12.632   1.659   7.739
77591SOL     OW34611  11.489  11.420   9.988
77591SOL    HW134612  11.439  11.340  10.006
77591SOL    HW234613  11.490  11.466  10.071
77592SOL     OW34614   6.762   4.883   9.238
77592SOL    HW134615   6.767   4.887   9.333
77592SOL    HW234616   6.848   4.848   9.211
77593SOL     OW34617   9.873   3.041  10.006
77593SOL    HW134618   9.794   3.039   9.951
77593SOL    HW234619   9.841   3.032  10.095
77594SOL     OW34620   3.862   6.526   9.262
77594SOL    HW134621   3.775   6.493   9.282
77594SOL    HW234622   3.869   6.521   9.166
77595SOL     OW34623  12.978   9.411   6.351
77595SOL    HW134624  13.046   9.473   6.324
77595SOL    HW234625  12.897   9.463   6.350
77596SOL     OW34626  13.164  11.044   6.178
77596SOL    HW134627  13.177  11.128   6.133
77596SOL    HW234628  13.095  11.061   6.241
77597SOL     OW34629   6.347   6.283  11.102
77597SOL    HW134630   6.427   6.290  11.049
77597SOL    HW234631   6.291   6.222  11.054
77598SOL     OW34632  10.940  14.104  14.380
77598SOL    HW134633  10.937  14.191  14.340
77598SOL    HW234634  11.027  14.070  14.358
77599SOL     OW34635   7.505   9.945   4.897
77599SOL    HW134636   7.520   9.852   4.881
77599SOL    HW234637   7.417   9.961   4.863
77600SOL     OW34638   8.855  12.868   7.110
77600SOL    HW134639   8.870  12.774   7.100
77600SOL    HW234640   8.881  12.906   7.027
77601SOL     OW34641   3.211  14.148   7.120
77601SOL    HW134642   3.224  14.093   7.197
77601SOL    HW234643   3.136  14.109   7.075
77602SOL     OW34644   3.064   7.810  14.430
77602SOL    HW134645   3.138   7.867  14.410
77602SOL    HW234646   3.020   7.852  14.503
77603SOL     OW34647  12.165  11.685   2.497
77603SOL    HW134648  12.173  11.660   2.589
77603SOL    HW234649  12.208  11.613   2.450
77604SOL     OW34650   1.697   8.118  10.758
77604SOL    HW134651   1.752   8.103  10.835
77604SOL    HW234652   1.656   8.203  10.775
77605SOL     OW34653  14.134   7.421   7.309
77605SOL    HW134654  14.052   7.409   7.356
77605SOL    HW234655  14.108   7.446   7.221
77606SOL     OW34656   1.438   1.245   5.883
77606SOL    HW134657   1.469   1.245   5.973
77606SOL    HW234658   1.347   1.216   5.889
77607SOL     OW34659  10.787  14.121   4.756
77607SOL    HW134660  10.846  14.192   4.732
77607SOL    HW234661  10.707  14.138   4.706
77608SOL     OW34662  10.553   8.037  14.794
77608SOL    HW134663  10.589   8.069  14.711
77608SOL    HW234664  10.514   8.115  14.834
77609SOL     OW34665   6.289   4.559   4.584
77609SOL    HW134666   6.377   4.530   4.563
77609SOL    HW234667   6.294   4.655   4.584
77610SOL     OW34668   2.977   0.619   4.395
77610SOL    HW134669   2.889   0.602   4.428
77610SOL    HW234670   2.964   0.673   4.318
77611SOL     OW34671  14.195   9.519   2.759
77611SOL    HW134672  14.117   9.489   2.712
77611SOL    HW234673  14.169   9.520   2.851
77612SOL     OW34674   9.771   7.803   1.996
77612SOL    HW134675   9.812   7.717   1.992
77612SOL    HW234676   9.679   7.785   2.013
77613SOL     OW34677  12.634  14.453   3.454
77613SOL    HW134678  12.574  14.410   3.393
77613SOL    HW234679  12.693  14.383   3.483
77614SOL     OW34680   8.940  10.194   9.601
77614SOL    HW134681   8.919  10.283   9.629
77614SOL    HW234682   8.896  10.138   9.665
77615SOL     OW34683   4.060  13.084   8.893
77615SOL    HW134684   4.024  13.013   8.840
77615SOL    HW234685   4.007  13.085   8.972
77616SOL     OW34686   7.363   0.114  10.480
77616SOL    HW134687   7.421   0.164  10.423
77616SOL    HW234688   7.355   0.028  10.437
77617SOL     OW34689   2.335  13.699   9.657
77617SOL    HW134690   2.267  13.762   9.678
77617SOL    HW234691   2.291  13.632   9.605
77618SOL     OW34692   6.002   7.883  14.583
77618SOL    HW134693   5.982   7.929  14.501
77618SOL    HW234694   5.931   7.908  14.642
77619SOL     OW34695   9.549   7.762  14.160
77619SOL    HW134696   9.595   7.712  14.092
77619SOL    HW234697   9.585   7.851  14.153
77620SOL     OW34698   0.138   3.581   4.679
77620SOL    HW134699   0.058   3.540   4.713
77620SOL    HW234700   0.177   3.622   4.756
77621SOL     OW34701   9.525   3.809   1.694
77621SOL    HW134702   9.472   3.763   1.759
77621SOL    HW234703   9.536   3.746   1.623
77622SOL     OW34704   8.830   7.251  12.958
77622SOL    HW134705   8.743   7.282  12.983
77622SOL    HW234706   8.869   7.324  12.911
77623SOL     OW34707   5.373   1.173  14.138
77623SOL    HW134708   5.394   1.264  14.158
77623SOL    HW234709   5.442   1.123  14.182
77624SOL     OW34710   5.639  10.395   7.419
77624SOL    HW134711   5.683  10.476   7.445
77624SOL    HW234712   5.586  10.371   7.496
77625SOL     OW34713   2.250   9.459   6.895
77625SOL    HW134714   2.204   9.538   6.869
77625SOL    HW234715   2.233   9.449   6.988
77626SOL     OW34716   7.267  11.117   6.230
77626SOL    HW134717   7.223  11.133   6.313
77626SOL    HW234718   7.217  11.047   6.189
77627SOL     OW34719   2.520   4.809   8.087
77627SOL    HW134720   2.481   4.777   8.168
77627SOL    HW234721   2.536   4.902   8.102
77628SOL     OW34722   3.266   4.131  11.512
77628SOL    HW134723   3.333   4.143  11.445
77628SOL    HW234724   3.201   4.198  11.493
77629SOL     OW34725  13.844  12.381  10.839
77629SOL    HW134726  13.828  12.351  10.750
77629SOL    HW234727  13.757  12.394  10.876
77630SOL     OW34728   6.598   1.036  13.567
77630SOL    HW134729   6.666   1.062  13.629
77630SOL    HW234730   6.526   1.097  13.584
77631SOL     OW34731   9.780   0.464   1.180
77631SOL    HW134732   9.753   0.417   1.101
77631SOL    HW234733   9.842   0.406   1.223
77632SOL     OW34734   9.320   9.093   7.596
77632SOL    HW134735   9.408   9.128   7.591
77632SOL    HW234736   9.266   9.166   7.626
77633SOL     OW34737   3.796   7.653  11.048
77633SOL    HW134738   3.780   7.656  10.953
77633SOL    HW234739   3.710   7.633  11.086
77634SOL     OW34740   1.434   4.700   6.997
77634SOL    HW134741   1.355   4.688   6.946
77634SOL    HW234742   1.506   4.695   6.933
77635SOL     OW34743   1.234   5.230   2.096
77635SOL    HW134744   1.287   5.155   2.122
77635SOL    HW234745   1.236   5.288   2.172
77636SOL     OW34746  14.467  13.498  11.306
77636SOL    HW134747  14.550  13.455  11.289
77636SOL    HW234748  14.421  13.497  11.222
77637SOL     OW34749   7.158   8.688   4.009
77637SOL    HW134750   7.178   8.658   4.098
77637SOL    HW234751   7.206   8.628   3.952
77638SOL     OW34752   4.118   8.382   0.347
77638SOL    HW134753   4.183   8.448   0.325
77638SOL    HW234754   4.053   8.429   0.399
77639SOL     OW34755  11.086  12.176  11.097
77639SOL    HW134756  11.123  12.117  11.031
77639SOL    HW234757  11.151  12.245  11.108
77640SOL     OW34758  10.423   4.316   8.430
77640SOL    HW134759  10.495   4.375   8.407
77640SOL    HW234760  10.345   4.371   8.426
77641SOL     OW34761  14.813  13.030   9.153
77641SOL    HW134762  14.808  13.083   9.233
77641SOL    HW234763  14.844  13.090   9.086
77642SOL     OW34764  11.286  11.512   0.159
77642SOL    HW134765  11.197  11.536   0.131
77642SOL    HW234766  11.273  11.453   0.233
77643SOL     OW34767   7.670   0.784   5.840
77643SOL    HW134768   7.723   0.719   5.885
77643SOL    HW234769   7.703   0.785   5.750
77644SOL     OW34770  10.688   7.177   9.830
77644SOL    HW134771  10.744   7.101   9.844
77644SOL    HW234772  10.619   7.146   9.771
77645SOL     OW34773  14.458   3.993  13.714
77645SOL    HW134774  14.486   3.904  13.739
77645SOL    HW234775  14.377   3.980  13.665
77646SOL     OW34776  11.978   4.477   6.212
77646SOL    HW134777  12.022   4.450   6.292
77646SOL    HW234778  12.041   4.534   6.167
77647SOL     OW34779   4.864  13.568   0.743
77647SOL    HW134780   4.828  13.565   0.832
77647SOL    HW234781   4.959  13.572   0.757
77648SOL     OW34782  14.057   4.615   7.370
77648SOL    HW134783  14.070   4.631   7.463
77648SOL    HW234784  14.044   4.521   7.363
77649SOL     OW34785   9.975   1.486   9.867
77649SOL    HW134786  10.058   1.439   9.861
77649SOL    HW234787   9.916   1.439   9.807
77650SOL     OW34788   1.366   6.800   4.488
77650SOL    HW134789   1.277   6.815   4.456
77650SOL    HW234790   1.382   6.707   4.472
77651SOL     OW34791   8.599   1.586  10.303
77651SOL    HW134792   8.623   1.629  10.385
77651SOL    HW234793   8.636   1.642  10.235
77652SOL     OW34794   7.824   7.912   4.643
77652SOL    HW134795   7.791   7.856   4.573
77652SOL    HW234796   7.908   7.945   4.610
77653SOL     OW34797   2.264  11.903  10.238
77653SOL    HW134798   2.187  11.852  10.266
77653SOL    HW234799   2.251  11.917  10.144
77654SOL     OW34800   2.067   2.903  10.354
77654SOL    HW134801   2.110   2.846  10.290
77654SOL    HW234802   1.974   2.881  10.347
77655SOL     OW34803   2.039  11.246   9.146
77655SOL    HW134804   2.021  11.330   9.190
77655SOL    HW234805   2.063  11.187   9.217
77656SOL     OW34806   2.348   2.503   7.312
77656SOL    HW134807   2.430   2.455   7.320
77656SOL    HW234808   2.343   2.527   7.219
77657SOL     OW34809  14.390   1.736   5.746
77657SOL    HW134810  14.345   1.768   5.824
77657SOL    HW234811  14.353   1.788   5.674
77658SOL     OW34812  13.283   8.733  10.031
77658SOL    HW134813  13.191   8.714  10.011
77658SOL    HW234814  13.304   8.807   9.975
77659SOL     OW34815   2.804   7.880   4.326
77659SOL    HW134816   2.741   7.949   4.305
77659SOL    HW234817   2.756   7.799   4.310
77660SOL     OW34818  14.327  12.956   3.033
77660SOL    HW134819  14.232  12.953   3.047
77660SOL    HW234820  14.336  12.969   2.938
77661SOL     OW34821   1.382   4.099   6.646
77661SOL    HW134822   1.445   4.062   6.708
77661SOL    HW234823   1.302   4.050   6.661
77662SOL     OW34824   0.008   1.662  13.083
77662SOL    HW134825  14.822   1.725  13.105
77662SOL    HW234826   0.086   1.693  13.130
77663SOL     OW34827  14.431   1.056   2.617
77663SOL    HW134828  14.370   1.076   2.687
77663SOL    HW234829  14.376   1.035   2.541
77664SOL     OW34830   7.023   0.876   6.069
77664SOL    HW134831   7.102   0.841   6.027
77664SOL    HW234832   7.044   0.877   6.162
77665SOL     OW34833   3.366  11.072   5.764
77665SOL    HW134834   3.401  11.018   5.694
77665SOL    HW234835   3.440  11.085   5.824
77666SOL     OW34836  10.854   8.953  14.371
77666SOL    HW134837  10.854   8.996  14.285
77666SOL    HW234838  10.787   8.999  14.421
77667SOL     OW34839   0.060   0.122   8.265
77667SOL    HW134840   0.045   0.170   8.346
77667SOL    HW234841   0.012   0.171   8.199
77668SOL     OW34842   5.170   8.523  14.434
77668SOL    HW134843   5.090   8.555  14.477
77668SOL    HW234844   5.211   8.467  14.500
77669SOL     OW34845   4.726   4.562   1.216
77669SOL    HW134846   4.811   4.570   1.173
77669SOL    HW234847   4.664   4.597   1.151
77670SOL     OW34848   8.714  12.996  10.189
77670SOL    HW134849   8.624  12.965  10.198
77670SOL    HW234850   8.715  13.080  10.236
77671SOL     OW34851   9.355   6.700   4.040
77671SOL    HW134852   9.275   6.647   4.044
77671SOL    HW234853   9.393   6.681   3.955
77672SOL     OW34854  14.485   8.968  13.719
77672SOL    HW134855  14.535   9.032  13.669
77672SOL    HW234856  14.445   9.019  13.790
77673SOL     OW34857  14.021   5.934   1.828
77673SOL    HW134858  13.971   5.855   1.810
77673SOL    HW234859  14.072   5.949   1.748
77674SOL     OW34860   2.787  12.302   1.395
77674SOL    HW134861   2.799  12.325   1.302
77674SOL    HW234862   2.782  12.207   1.396
77675SOL     OW34863  13.964  10.496   0.897
77675SOL    HW134864  14.039  10.475   0.953
77675SOL    HW234865  13.916  10.413   0.891
77676SOL     OW34866   6.518   0.124  14.508
77676SOL    HW134867   6.424   0.131  14.524
77676SOL    HW234868   6.539   0.033  14.527
77677SOL     OW34869  11.835  11.307   6.497
77677SOL    HW134870  11.851  11.215   6.516
77677SOL    HW234871  11.863  11.353   6.576
77678SOL     OW34872  13.067  11.481  14.573
77678SOL    HW134873  13.089  11.390  14.553
77678SOL    HW234874  13.100  11.495  14.662
77679SOL     OW34875  14.052   9.037   1.317
77679SOL    HW134876  14.097   9.104   1.368
77679SOL    HW234877  14.042   9.077   1.230
77680SOL     OW34878  12.431  14.595   0.572
77680SOL    HW134879  12.382  14.538   0.513
77680SOL    HW234880  12.393  14.682   0.558
77681SOL     OW34881   8.267   8.288   8.842
77681SOL    HW134882   8.212   8.365   8.831
77681SOL    HW234883   8.235   8.226   8.776
77682SOL     OW34884  13.531   5.730  14.055
77682SOL    HW134885  13.612   5.683  14.074
77682SOL    HW234886  13.547   5.768  13.968
77683SOL     OW34887   7.598   7.239   7.180
77683SOL    HW134888   7.541   7.297   7.229
77683SOL    HW234889   7.578   7.257   7.088
77684SOL     OW34890  11.720   9.796   0.480
77684SOL    HW134891  11.689   9.864   0.539
77684SOL    HW234892  11.791   9.837   0.431
77685SOL     OW34893  10.631  12.284  14.190
77685SOL    HW134894  10.595  12.220  14.251
77685SOL    HW234895  10.631  12.367  14.238
77686SOL     OW34896   6.000   2.602   3.322
77686SOL    HW134897   6.029   2.510   3.323
77686SOL    HW234898   6.039   2.638   3.243
77687SOL     OW34899   1.625   1.022   4.999
77687SOL    HW134900   1.648   0.929   5.007
77687SOL    HW234901   1.596   1.047   5.087
77688SOL     OW34902   1.064  12.063   2.490
77688SOL    HW134903   1.078  12.004   2.564
77688SOL    HW234904   0.994  12.122   2.519
77689SOL     OW34905   3.651  12.345   2.992
77689SOL    HW134906   3.572  12.395   3.014
77689SOL    HW234907   3.703  12.405   2.938
77690SOL     OW34908  14.275  13.391   9.305
77690SOL    HW134909  14.358  13.416   9.346
77690SOL    HW234910  14.209  13.442   9.352
77691SOL     OW34911   4.016   0.576   5.131
77691SOL    HW134912   3.936   0.598   5.179
77691SOL    HW234913   3.998   0.600   5.041
77692SOL     OW34914   0.348   5.038   5.810
77692SOL    HW134915   0.396   4.959   5.785
77692SOL    HW234916   0.259   5.008   5.828
77693SOL     OW34917  12.619   6.992   7.552
77693SOL    HW134918  12.669   7.069   7.526
77693SOL    HW234919  12.644   6.977   7.643
77694SOL     OW34920  11.646  13.649  10.517
77694SOL    HW134921  11.708  13.699  10.464
77694SOL    HW234922  11.668  13.673  10.608
77695SOL     OW34923   1.431   7.158  10.775
77695SOL    HW134924   1.348   7.129  10.735
77695SOL    HW234925   1.404   7.223  10.840
77696SOL     OW34926   4.996   3.388   0.244
77696SOL    HW134927   5.027   3.435   0.321
77696SOL    HW234928   5.036   3.434   0.170
77697SOL     OW34929   4.642  11.469   9.022
77697SOL    HW134930   4.621  11.387   9.066
77697SOL    HW234931   4.600  11.461   8.936
77698SOL     OW34932   4.909   5.425   2.757
77698SOL    HW134933   4.855   5.415   2.835
77698SOL    HW234934   4.948   5.338   2.743
77699SOL     OW34935   8.417   3.751  13.458
77699SOL    HW134936   8.336   3.703  13.443
77699SOL    HW234937   8.481   3.708  13.402
77700SOL     OW34938   3.737   9.339  11.985
77700SOL    HW134939   3.807   9.370  11.928
77700SOL    HW234940   3.659   9.389  11.958
77701SOL     OW34941  11.369   5.402   6.332
77701SOL    HW134942  11.385   5.410   6.426
77701SOL    HW234943  11.279   5.432   6.321
77702SOL     OW34944   9.980   4.349  10.053
77702SOL    HW134945   9.944   4.422  10.103
77702SOL    HW234946   9.905   4.294  10.034
77703SOL     OW34947   0.935   4.240   8.998
77703SOL    HW134948   0.885   4.311   9.039
77703SOL    HW234949   0.960   4.274   8.912
77704SOL     OW34950   2.821  13.475   3.696
77704SOL    HW134951   2.915  13.492   3.691
77704SOL    HW234952   2.798  13.494   3.787
77705SOL     OW34953   3.721  13.622   8.656
77705SOL    HW134954   3.762  13.629   8.570
77705SOL    HW234955   3.641  13.572   8.641
77706SOL     OW34956   0.447  13.431   7.346
77706SOL    HW134957   0.390  13.497   7.307
77706SOL    HW234958   0.412  13.418   7.434
77707SOL     OW34959  13.192   3.813   7.148
77707SOL    HW134960  13.280   3.781   7.129
77707SOL    HW234961  13.187   3.814   7.244
77708SOL     OW34962   3.177   3.389  14.117
77708SOL    HW134963   3.121   3.315  14.140
77708SOL    HW234964   3.118   3.465  14.114
77709SOL     OW34965   0.353  13.185   8.289
77709SOL    HW134966   0.444  13.154   8.280
77709SOL    HW234967   0.302  13.123   8.236
77710SOL     OW34968   0.542  12.919  10.012
77710SOL    HW134969   0.569  12.838   9.968
77710SOL    HW234970   0.581  12.988   9.958
77711SOL     OW34971   4.906   4.790   4.938
77711SOL    HW134972   4.948   4.859   4.886
77711SOL    HW234973   4.863   4.837   5.009
77712SOL     OW34974   6.296  14.429  12.724
77712SOL    HW134975   6.230  14.431  12.655
77712SOL    HW234976   6.265  14.492  12.789
77713SOL     OW34977   9.552  10.466   5.753
77713SOL    HW134978   9.570  10.550   5.712
77713SOL    HW234979   9.509  10.488   5.836
77714SOL     OW34980   9.471   9.126   5.930
77714SOL    HW134981   9.447   9.093   5.843
77714SOL    HW234982   9.421   9.073   5.991
77715SOL     OW34983  11.453   9.853   8.994
77715SOL    HW134984  11.507   9.862   8.916
77715SOL    HW234985  11.399   9.775   8.977
77716SOL     OW34986  13.077   3.169  10.020
77716SOL    HW134987  13.170   3.185  10.035
77716SOL    HW234988  13.076   3.102   9.951
77717SOL     OW34989   6.449   8.342   5.617
77717SOL    HW134990   6.455   8.337   5.712
77717SOL    HW234991   6.509   8.413   5.592
77718SOL     OW34992   9.950  14.675  12.006
77718SOL    HW134993   9.954  14.770  12.007
77718SOL    HW234994   9.902  14.653  11.927
77719SOL     OW34995   0.212   9.036   6.683
77719SOL    HW134996   0.134   9.046   6.629
77719SOL    HW234997   0.235   9.125   6.709
77720SOL     OW34998  12.061  11.256  12.301
77720SOL    HW134999  12.142  11.218  12.336
77720SOL    HW235000  12.001  11.257  12.376
77721SOL     OW35001   0.556   7.380   9.692
77721SOL    HW135002   0.505   7.458   9.713
77721SOL    HW235003   0.580   7.392   9.600
77722SOL     OW35004   2.924   0.777  12.957
77722SOL    HW135005   3.000   0.730  12.922
77722SOL    HW235006   2.929   0.864  12.917
77723SOL     OW35007   6.440   9.163   4.790
77723SOL    HW135008   6.366   9.107   4.769
77723SOL    HW235009   6.450   9.155   4.885
77724SOL     OW35010   7.978  10.875   0.187
77724SOL    HW135011   8.031  10.901   0.263
77724SOL    HW235012   7.888  10.875   0.219
77725SOL     OW35013   3.731  14.212   5.443
77725SOL    HW135014   3.708  14.127   5.480
77725SOL    HW235015   3.784  14.255   5.511
77726SOL     OW35016   3.454   9.663  14.102
77726SOL    HW135017   3.491   9.577  14.124
77726SOL    HW235018   3.488   9.682  14.014
77727SOL     OW35019   8.869   1.647   2.494
77727SOL    HW135020   8.943   1.598   2.458
77727SOL    HW235021   8.893   1.662   2.585
77728SOL     OW35022  13.018   2.056  11.150
77728SOL    HW135023  12.924   2.066  11.139
77728SOL    HW235024  13.056   2.103  11.076
77729SOL     OW35025   3.234   9.725  14.210
77729SOL    HW135026   3.324   9.701  14.185
77729SOL    HW235027   3.179   9.684  14.143
77730SOL     OW35028   4.475  11.076  14.155
77730SOL    HW135029   4.513  11.163  14.161
77730SOL    HW235030   4.385  11.090  14.126
77731SOL     OW35031  10.661  11.973   7.262
77731SOL    HW135032  10.595  12.037   7.235
77731SOL    HW235033  10.722  12.023   7.316
77732SOL     OW35034   7.823   8.238   8.583
77732SOL    HW135035   7.771   8.163   8.611
77732SOL    HW235036   7.808   8.304   8.650
77733SOL     OW35037   9.160  14.718   8.874
77733SOL    HW135038   9.072  14.755   8.862
77733SOL    HW235039   9.145  14.636   8.920
77734SOL     OW35040   8.081  12.817  14.190
77734SOL    HW135041   8.033  12.893  14.158
77734SOL    HW235042   8.172  12.846  14.194
77735SOL     OW35043   5.109   1.532   9.494
77735SOL    HW135044   5.062   1.590   9.555
77735SOL    HW235045   5.187   1.582   9.470
77736SOL     OW35046   8.351  14.389   7.477
77736SOL    HW135047   8.290  14.342   7.420
77736SOL    HW235048   8.437  14.349   7.458
77737SOL     OW35049   1.172  14.879  12.207
77737SOL    HW135050   1.240  14.876  12.140
77737SOL    HW235051   1.220  14.879  12.290
77738SOL     OW35052  14.663  14.398  12.389
77738SOL    HW135053  14.750  14.358  12.396
77738SOL    HW235054  14.606  14.339  12.438
77739SOL     OW35055   4.908   4.193   8.120
77739SOL    HW135056   4.891   4.132   8.049
77739SOL    HW235057   4.902   4.279   8.080
77740SOL     OW35058   1.909  12.178  11.224
77740SOL    HW135059   1.881  12.234  11.152
77740SOL    HW235060   2.002  12.160  11.206
77741SOL     OW35061   8.400   2.807  10.630
77741SOL    HW135062   8.413   2.733  10.690
77741SOL    HW235063   8.356   2.873  10.683
77742SOL     OW35064  10.745   4.651   8.951
77742SOL    HW135065  10.789   4.641   9.036
77742SOL    HW235066  10.678   4.718   8.965
77743SOL     OW35067  10.945   3.628   3.798
77743SOL    HW135068  11.025   3.576   3.806
77743SOL    HW235069  10.975   3.710   3.758
77744SOL     OW35070  11.229   4.929  10.054
77744SOL    HW135071  11.278   4.980  10.118
77744SOL    HW235072  11.179   4.866  10.107
77745SOL     OW35073  10.521  11.960  12.000
77745SOL    HW135074  10.438  11.947  11.953
77745SOL    HW235075  10.499  12.021  12.070
77746SOL     OW35076   2.398  10.869   1.265
77746SOL    HW135077   2.440  10.803   1.320
77746SOL    HW235078   2.466  10.893   1.202
77747SOL     OW35079  11.494   7.602   8.302
77747SOL    HW135080  11.579   7.597   8.259
77747SOL    HW235081  11.498   7.679   8.357
77748SOL     OW35082   2.828  14.460  10.837
77748SOL    HW135083   2.767  14.386  10.843
77748SOL    HW235084   2.807  14.514  10.913
77749SOL     OW35085   7.271   4.617   6.149
77749SOL    HW135086   7.227   4.671   6.215
77749SOL    HW235087   7.268   4.669   6.069
77750SOL     OW35088   8.246  13.120  11.710
77750SOL    HW135089   8.197  13.061  11.653
77750SOL    HW235090   8.222  13.208  11.679
77751SOL     OW35091   6.493  13.295  13.422
77751SOL    HW135092   6.433  13.252  13.360
77751SOL    HW235093   6.569  13.237  13.426
77752SOL     OW35094   2.467   9.711  13.989
77752SOL    HW135095   2.408   9.742  13.920
77752SOL    HW235096   2.552   9.746  13.964
77753SOL     OW35097  14.196   8.453   7.360
77753SOL    HW135098  14.152   8.472   7.278
77753SOL    HW235099  14.126   8.421   7.418
77754SOL     OW35100  14.066  12.020  11.189
77754SOL    HW135101  14.140  11.961  11.207
77754SOL    HW235102  14.014  11.973  11.124
77755SOL     OW35103  10.567  12.277   4.992
77755SOL    HW135104  10.573  12.371   4.975
77755SOL    HW235105  10.631  12.238   4.932
77756SOL     OW35106   2.544  10.435   6.145
77756SOL    HW135107   2.629  10.449   6.186
77756SOL    HW235108   2.488  10.404   6.217
77757SOL     OW35109  12.774  12.313   3.869
77757SOL    HW135110  12.735  12.266   3.795
77757SOL    HW235111  12.699  12.344   3.920
77758SOL     OW35112  13.771   3.640   4.528
77758SOL    HW135113  13.759   3.551   4.494
77758SOL    HW235114  13.736   3.637   4.617
77759SOL     OW35115   3.259   7.767   8.330
77759SOL    HW135116   3.169   7.734   8.319
77759SOL    HW235117   3.274   7.767   8.424
77760SOL     OW35118   6.395   0.720  10.242
77760SOL    HW135119   6.384   0.660  10.168
77760SOL    HW235120   6.445   0.669  10.306
77761SOL     OW35121   7.055   3.433   0.771
77761SOL    HW135122   7.138   3.468   0.740
77761SOL    HW235123   6.989   3.470   0.712
77762SOL     OW35124   1.881   6.359   3.245
77762SOL    HW135125   1.927   6.354   3.161
77762SOL    HW235126   1.847   6.270   3.259
77763SOL     OW35127   0.845   4.398   0.874
77763SOL    HW135128   0.765   4.415   0.825
77763SOL    HW235129   0.866   4.306   0.855
77764SOL     OW35130   4.220  11.581   4.908
77764SOL    HW135131   4.220  11.628   4.991
77764SOL    HW235132   4.312  11.582   4.880
77765SOL     OW35133   2.340   8.307  13.990
77765SOL    HW135134   2.334   8.393  13.948
77765SOL    HW235135   2.330   8.325  14.083
77766SOL     OW35136   1.445   9.899   2.455
77766SOL    HW135137   1.399   9.978   2.484
77766SOL    HW235138   1.378   9.848   2.410
77767SOL     OW35139   7.542   7.715  13.392
77767SOL    HW135140   7.594   7.790  13.423
77767SOL    HW235141   7.569   7.642  13.449
77768SOL     OW35142   0.472   2.694   4.726
77768SOL    HW135143   0.506   2.745   4.799
77768SOL    HW235144   0.409   2.634   4.765
77769SOL     OW35145   7.940   3.860   9.198
77769SOL    HW135146   7.934   3.768   9.223
77769SOL    HW235147   7.860   3.877   9.148
77770SOL     OW35148   7.075   4.843  13.741
77770SOL    HW135149   7.022   4.858  13.663
77770SOL    HW235150   7.030   4.890  13.811
77771SOL     OW35151   1.119   8.154   0.070
77771SOL    HW135152   1.099   8.200  14.870
77771SOL    HW235153   1.215   8.154   0.075
77772SOL     OW35154   1.620   3.840  11.208
77772SOL    HW135155   1.601   3.929  11.239
77772SOL    HW235156   1.715   3.838  11.198
77773SOL     OW35157   5.144  14.138   8.410
77773SOL    HW135158   5.238  14.141   8.427
77773SOL    HW235159   5.125  14.045   8.396
77774SOL     OW35160  12.107   7.506   4.538
77774SOL    HW135161  12.115   7.444   4.611
77774SOL    HW235162  12.094   7.450   4.461
77775SOL     OW35163   1.700   0.479   5.225
77775SOL    HW135164   1.725   0.572   5.221
77775SOL    HW235165   1.683   0.455   5.134
77776SOL     OW35166   9.653   8.627  10.182
77776SOL    HW135167   9.591   8.555  10.172
77776SOL    HW235168   9.616   8.698  10.130
77777SOL     OW35169  13.842  14.593  11.855
77777SOL    HW135170  13.872  14.511  11.896
77777SOL    HW235171  13.914  14.619  11.798
77778SOL     OW35172  14.767   4.219   5.303
77778SOL    HW135173  14.743   4.262   5.221
77778SOL    HW235174  14.825   4.282   5.346
77779SOL     OW35175   7.211   3.634  14.648
77779SOL    HW135176   7.173   3.700  14.706
77779SOL    HW235177   7.206   3.672  14.561
77780SOL     OW35178  13.647   4.954   9.999
77780SOL    HW135179  13.715   4.942   9.933
77780SOL    HW235180  13.589   4.879   9.987
77781SOL     OW35181  10.408  14.678   9.989
77781SOL    HW135182  10.333  14.628   9.958
77781SOL    HW235183  10.381  14.713  10.073
77782SOL     OW35184  10.795   8.596   7.899
77782SOL    HW135185  10.744   8.573   7.821
77782SOL    HW235186  10.794   8.692   7.901
77783SOL     OW35187   4.888  14.648   0.407
77783SOL    HW135188   4.963  14.690   0.365
77783SOL    HW235189   4.912  14.555   0.413
77784SOL     OW35190   5.223   4.494   1.970
77784SOL    HW135191   5.190   4.581   1.990
77784SOL    HW235192   5.261   4.463   2.052
77785SOL     OW35193  11.859  11.042   6.302
77785SOL    HW135194  11.863  11.130   6.266
77785SOL    HW235195  11.890  11.051   6.392
77786SOL     OW35196  13.927  14.177   9.678
77786SOL    HW135197  13.877  14.132   9.746
77786SOL    HW235198  13.955  14.259   9.719
77787SOL     OW35199  14.554   2.377  10.453
77787SOL    HW135200  14.635   2.416  10.487
77787SOL    HW235201  14.550   2.404  10.362
77788SOL     OW35202   2.089   5.989   3.269
77788SOL    HW135203   2.080   5.981   3.364
77788SOL    HW235204   2.132   6.074   3.256
77789SOL     OW35205   6.620   5.975  14.284
77789SOL    HW135206   6.641   5.938  14.198
77789SOL    HW235207   6.664   6.060  14.285
77790SOL     OW35208   3.073  14.235  13.179
77790SOL    HW135209   3.091  14.141  13.176
77790SOL    HW235210   3.114  14.270  13.100
77791SOL     OW35211  14.275  12.675  13.806
77791SOL    HW135212  14.182  12.655  13.821
77791SOL    HW235213  14.280  12.770  13.811
77792SOL     OW35214   3.735   0.194  10.834
77792SOL    HW135215   3.812   0.138  10.828
77792SOL    HW235216   3.771   0.281  10.852
77793SOL     OW35217   9.439  13.553   8.651
77793SOL    HW135218   9.524  13.515   8.627
77793SOL    HW235219   9.403  13.491   8.714
77794SOL     OW35220   0.635   6.474   3.825
77794SOL    HW135221   0.579   6.548   3.848
77794SOL    HW235222   0.719   6.514   3.801
77795SOL     OW35223   1.931  14.833   5.911
77795SOL    HW135224   1.973   0.025   5.868
77795SOL    HW235225   1.940  14.852   6.005
77796SOL     OW35226   7.934   7.243  12.755
77796SOL    HW135227   7.923   7.281  12.843
77796SOL    HW235228   7.914   7.315  12.696
77797SOL     OW35229   9.008  10.806   4.586
77797SOL    HW135230   8.925  10.760   4.576
77797SOL    HW235231   9.010  10.867   4.511
77798SOL     OW35232   7.534  13.706   3.796
77798SOL    HW135233   7.504  13.738   3.881
77798SOL    HW235234   7.455  13.699   3.743
77799SOL     OW35235   9.589   1.786   0.096
77799SOL    HW135236   9.496   1.777   0.113
77799SOL    HW235237   9.630   1.769   0.181
77800SOL     OW35238  10.252   2.482   4.624
77800SOL    HW135239  10.341   2.463   4.655
77800SOL    HW235240  10.200   2.407   4.653
77801SOL     OW35241   6.604   0.680   4.436
77801SOL    HW135242   6.698   0.679   4.419
77801SOL    HW235243   6.588   0.764   4.479
77802SOL     OW35244   4.345   5.929   4.177
77802SOL    HW135245   4.384   5.911   4.091
77802SOL    HW235246   4.395   5.874   4.238
77803SOL     OW35247   4.396   0.101   6.403
77803SOL    HW135248   4.457   0.080   6.473
77803SOL    HW235249   4.313   0.117   6.448
77804SOL     OW35250   8.935   4.767  13.149
77804SOL    HW135251   8.942   4.718  13.067
77804SOL    HW235252   8.869   4.835  13.131
77805SOL     OW35253   5.858  13.868   2.154
77805SOL    HW135254   5.885  13.797   2.096
77805SOL    HW235255   5.919  13.940   2.135
77806SOL     OW35256   0.844   3.782   4.348
77806SOL    HW135257   0.810   3.698   4.379
77806SOL    HW235258   0.781   3.811   4.282
77807SOL     OW35259   0.650   0.861  11.397
77807SOL    HW135260   0.656   0.766  11.400
77807SOL    HW235261   0.558   0.880  11.416
77808SOL     OW35262   9.668   7.600  11.008
77808SOL    HW135263   9.705   7.689  11.013
77808SOL    HW235264   9.578   7.611  11.039
77809SOL     OW35265   1.711  11.012  11.037
77809SOL    HW135266   1.687  11.068  11.112
77809SOL    HW235267   1.629  10.972  11.010
77810SOL     OW35268   9.325   9.175   0.533
77810SOL    HW135269   9.292   9.137   0.452
77810SOL    HW235270   9.416   9.197   0.515
77811SOL     OW35271   5.483  12.936  12.382
77811SOL    HW135272   5.524  12.868  12.329
77811SOL    HW235273   5.551  12.963  12.444
77812SOL     OW35274   2.258  11.226   4.493
77812SOL    HW135275   2.353  11.216   4.498
77812SOL    HW235276   2.240  11.311   4.535
77813SOL     OW35277   4.829   3.177   7.694
77813SOL    HW135278   4.828   3.140   7.606
77813SOL    HW235279   4.794   3.108   7.750
77814SOL     OW35280  10.005  10.785  10.067
77814SOL    HW135281   9.982  10.692  10.065
77814SOL    HW235282  10.028  10.806   9.977
77815SOL     OW35283   6.674  13.240  10.394
77815SOL    HW135284   6.687  13.319  10.341
77815SOL    HW235285   6.589  13.253  10.435
77816SOL     OW35286  10.555   4.938   7.580
77816SOL    HW135287  10.529   5.030   7.579
77816SOL    HW235288  10.529   4.905   7.494
77817SOL     OW35289   3.216   6.562   0.549
77817SOL    HW135290   3.283   6.494   0.563
77817SOL    HW235291   3.194   6.556   0.456
77818SOL     OW35292   8.828  10.512  11.334
77818SOL    HW135293   8.781  10.575  11.280
77818SOL    HW235294   8.790  10.427  11.311
77819SOL     OW35295   1.152   3.788   5.579
77819SOL    HW135296   1.067   3.788   5.535
77819SOL    HW235297   1.149   3.713   5.638
77820SOL     OW35298   0.992  12.898   3.406
77820SOL    HW135299   0.901  12.876   3.422
77820SOL    HW235300   1.016  12.954   3.480
77821SOL     OW35301   0.458   1.974  10.847
77821SOL    HW135302   0.511   2.053  10.854
77821SOL    HW235303   0.480   1.923  10.924
77822SOL     OW35304   5.149   7.453  14.878
77822SOL    HW135305   5.237   7.419  14.858
77822SOL    HW235306   5.165   7.535   0.042
77823SOL     OW35307   2.978  10.668  13.125
77823SOL    HW135308   2.941  10.757  13.134
77823SOL    HW235309   2.912  10.620  13.075
77824SOL     OW35310  11.595  12.959  13.143
77824SOL    HW135311  11.674  12.951  13.196
77824SOL    HW235312  11.535  12.894  13.179
77825SOL     OW35313   0.317  11.700  12.314
77825SOL    HW135314   0.288  11.626  12.261
77825SOL    HW235315   0.243  11.719  12.371
77826SOL     OW35316  14.557  10.317  13.657
77826SOL    HW135317  14.532  10.233  13.696
77826SOL    HW235318  14.632  10.297  13.602
77827SOL     OW35319  12.166   2.258   8.820
77827SOL    HW135320  12.214   2.332   8.859
77827SOL    HW235321  12.232   2.189   8.811
77828SOL     OW35322  14.071   1.748   8.597
77828SOL    HW135323  14.100   1.689   8.527
77828SOL    HW235324  14.093   1.702   8.678
77829SOL     OW35325   2.709  10.154   6.372
77829SOL    HW135326   2.666  10.118   6.294
77829SOL    HW235327   2.721  10.247   6.353
77830SOL     OW35328   8.790   6.252   9.416
77830SOL    HW135329   8.768   6.161   9.436
77830SOL    HW235330   8.883   6.259   9.435
77831SOL     OW35331  13.959  13.444   4.446
77831SOL    HW135332  13.994  13.357   4.463
77831SOL    HW235333  13.961  13.454   4.351
77832SOL     OW35334   1.020   5.326   7.569
77832SOL    HW135335   0.948   5.295   7.514
77832SOL    HW235336   0.982   5.398   7.619
77833SOL     OW35337   6.959   7.450  11.800
77833SOL    HW135338   6.897   7.516  11.830
77833SOL    HW235339   6.931   7.431  11.710
77834SOL     OW35340   4.411   9.692   9.286
77834SOL    HW135341   4.449   9.613   9.325
77834SOL    HW235342   4.354   9.727   9.354
77835SOL     OW35343   4.885   5.271   0.250
77835SOL    HW135344   4.918   5.308   0.168
77835SOL    HW235345   4.839   5.192   0.223
77836SOL     OW35346   1.046   9.450   3.703
77836SOL    HW135347   1.114   9.511   3.730
77836SOL    HW235348   0.972   9.505   3.680
77837SOL     OW35349   9.981  12.056   8.399
77837SOL    HW135350   9.992  11.974   8.351
77837SOL    HW235351   9.898  12.046   8.445
77838SOL     OW35352   7.020   8.394   3.414
77838SOL    HW135353   6.960   8.333   3.458
77838SOL    HW235354   6.990   8.396   3.323
77839SOL     OW35355   5.934   3.001   7.259
77839SOL    HW135356   6.030   2.999   7.252
77839SOL    HW235357   5.911   2.914   7.292
77840SOL     OW35358   8.213  12.012  10.504
77840SOL    HW135359   8.175  11.942  10.450
77840SOL    HW235360   8.170  12.002  10.589
77841SOL     OW35361   9.920   2.104   0.386
77841SOL    HW135362   9.889   2.182   0.432
77841SOL    HW235363   9.918   2.035   0.453
77842SOL     OW35364   6.234  12.901   7.206
77842SOL    HW135365   6.290  12.973   7.235
77842SOL    HW235366   6.259  12.887   7.114
77843SOL     OW35367  10.902  10.734   2.795
77843SOL    HW135368  10.988  10.777   2.793
77843SOL    HW235369  10.869  10.744   2.705
77844SOL     OW35370  10.648   8.923   6.300
77844SOL    HW135371  10.739   8.900   6.317
77844SOL    HW235372  10.613   8.949   6.386
77845SOL     OW35373  11.476  14.641  10.489
77845SOL    HW135374  11.396  14.610  10.445
77845SOL    HW235375  11.495  14.725  10.447
77846SOL     OW35376   9.054  12.012   2.549
77846SOL    HW135377   9.098  11.927   2.548
77846SOL    HW235378   9.030  12.028   2.458
77847SOL     OW35379   3.221   3.862   5.378
77847SOL    HW135380   3.138   3.819   5.359
77847SOL    HW235381   3.201   3.924   5.448
77848SOL     OW35382   0.316   0.370  10.088
77848SOL    HW135383   0.320   0.387  10.182
77848SOL    HW235384   0.226   0.342  10.072
77849SOL     OW35385   5.212   9.997   6.555
77849SOL    HW135386   5.298   9.984   6.514
77849SOL    HW235387   5.183   9.908   6.575
77850SOL     OW35388  11.055   4.288   7.762
77850SOL    HW135389  11.057   4.212   7.821
77850SOL    HW235390  11.091   4.254   7.680
77851SOL     OW35391   8.032  14.848   9.529
77851SOL    HW135392   8.037  14.793   9.451
77851SOL    HW235393   8.106   0.026   9.522
77852SOL     OW35394   7.832  11.389   1.207
77852SOL    HW135395   7.833  11.483   1.193
77852SOL    HW235396   7.859  11.379   1.299
77853SOL     OW35397   3.807  11.762   7.678
77853SOL    HW135398   3.838  11.781   7.590
77853SOL    HW235399   3.745  11.832   7.697
77854SOL     OW35400   2.251   7.448  11.325
77854SOL    HW135401   2.259   7.423  11.417
77854SOL    HW235402   2.158   7.441  11.306
77855SOL     OW35403   4.931  13.097  10.624
77855SOL    HW135404   4.839  13.093  10.650
77855SOL    HW235405   4.968  13.168  10.678
77856SOL     OW35406  12.583   8.909   8.579
77856SOL    HW135407  12.577   8.817   8.554
77856SOL    HW235408  12.631   8.950   8.507
77857SOL     OW35409   7.579   0.839   8.386
77857SOL    HW135410   7.635   0.865   8.313
77857SOL    HW235411   7.535   0.920   8.412
77858SOL     OW35412   4.960   0.367   0.688
77858SOL    HW135413   5.013   0.447   0.694
77858SOL    HW235414   5.022   0.299   0.663
77859SOL     OW35415   3.474  10.314   6.503
77859SOL    HW135416   3.467  10.271   6.588
77859SOL    HW235417   3.565  10.299   6.476
77860SOL     OW35418   7.576   2.512   4.956
77860SOL    HW135419   7.625   2.433   4.978
77860SOL    HW235420   7.577   2.515   4.860
77861SOL     OW35421   3.920   7.240  14.736
77861SOL    HW135422   3.894   7.224  14.827
77861SOL    HW235423   3.977   7.317  14.741
77862SOL     OW35424  11.100   1.669   9.858
77862SOL    HW135425  11.035   1.712   9.913
77862SOL    HW235426  11.050   1.600   9.814
77863SOL     OW35427  11.434   9.092   3.540
77863SOL    HW135428  11.457   9.184   3.552
77863SOL    HW235429  11.338   9.092   3.539
77864SOL     OW35430   1.860   7.007   2.740
77864SOL    HW135431   1.766   7.005   2.720
77864SOL    HW235432   1.901   7.040   2.661
77865SOL     OW35433   1.119  11.812  14.433
77865SOL    HW135434   1.024  11.808  14.421
77865SOL    HW235435   1.155  11.785  14.348
77866SOL     OW35436   4.693   2.149   3.348
77866SOL    HW135437   4.647   2.205   3.286
77866SOL    HW235438   4.651   2.064   3.340
77867SOL     OW35439   8.894   2.595   4.211
77867SOL    HW135440   8.947   2.670   4.183
77867SOL    HW235441   8.918   2.524   4.152
77868SOL     OW35442  14.870   1.830   8.841
77868SOL    HW135443   0.064   1.872   8.882
77868SOL    HW235444  14.801   1.838   8.906
77869SOL     OW35445   3.587  12.833   9.055
77869SOL    HW135446   3.553  12.909   9.101
77869SOL    HW235447   3.662  12.805   9.108
77870SOL     OW35448  11.092   5.065  10.905
77870SOL    HW135449  11.111   5.010  10.981
77870SOL    HW235450  11.109   5.009  10.829
77871SOL     OW35451   9.977  14.650  14.580
77871SOL    HW135452   9.982  14.746  14.580
77871SOL    HW235453  10.067  14.621  14.591
77872SOL     OW35454   8.871   9.840  11.749
77872SOL    HW135455   8.935   9.903  11.716
77872SOL    HW235456   8.912   9.755  11.736
77873SOL     OW35457  11.908   1.506   0.295
77873SOL    HW135458  11.896   1.417   0.261
77873SOL    HW235459  11.999   1.528   0.273
77874SOL     OW35460   3.618   6.493   9.045
77874SOL    HW135461   3.589   6.578   9.078
77874SOL    HW235462   3.583   6.430   9.108
77875SOL     OW35463   8.969   7.040  12.868
77875SOL    HW135464   9.054   7.073  12.898
77875SOL    HW235465   8.908   7.112  12.888
77876SOL     OW35466   9.567   1.186   7.898
77876SOL    HW135467   9.555   1.239   7.819
77876SOL    HW235468   9.564   1.248   7.970
77877SOL     OW35469   4.500  14.528   9.896
77877SOL    HW135470   4.434  14.560   9.835
77877SOL    HW235471   4.517  14.438   9.867
77878SOL     OW35472  11.355   1.996  14.710
77878SOL    HW135473  11.391   1.929  14.769
77878SOL    HW235474  11.290   1.949  14.657
77879SOL     OW35475   9.063   7.532   1.809
77879SOL    HW135476   9.003   7.488   1.748
77879SOL    HW235477   9.017   7.532   1.893
77880SOL     OW35478   6.020  12.665   1.020
77880SOL    HW135479   5.972  12.634   1.097
77880SOL    HW235480   6.091  12.718   1.056
77881SOL     OW35481   8.269  10.436   3.191
77881SOL    HW135482   8.275  10.457   3.284
77881SOL    HW235483   8.350  10.388   3.172
77882SOL     OW35484   7.198   4.566   8.895
77882SOL    HW135485   7.118   4.576   8.842
77882SOL    HW235486   7.209   4.472   8.904
77883SOL     OW35487   4.621   4.717  14.870
77883SOL    HW135488   4.675   4.793  14.847
77883SOL    HW235489   4.543   4.725  14.816
77884SOL     OW35490   2.908   3.687   7.915
77884SOL    HW135491   2.890   3.604   7.960
77884SOL    HW235492   2.892   3.668   7.823
77885SOL     OW35493  10.380   2.071   1.305
77885SOL    HW135494  10.350   2.029   1.225
77885SOL    HW235495  10.322   2.147   1.315
77886SOL     OW35496   1.000   2.471   2.088
77886SOL    HW135497   0.922   2.451   2.036
77886SOL    HW235498   1.062   2.401   2.066
77887SOL     OW35499   9.524   2.415   3.256
77887SOL    HW135500   9.589   2.430   3.325
77887SOL    HW235501   9.464   2.351   3.293
77888SOL     OW35502   5.798   7.420   5.215
77888SOL    HW135503   5.790   7.395   5.307
77888SOL    HW235504   5.870   7.483   5.213
77889SOL     OW35505  12.919   3.536   3.103
77889SOL    HW135506  12.926   3.564   3.012
77889SOL    HW235507  12.914   3.618   3.153
77890SOL     OW35508   7.842  10.226   4.165
77890SOL    HW135509   7.915  10.287   4.151
77890SOL    HW235510   7.764  10.279   4.152
77891SOL     OW35511  13.437  11.150   8.872
77891SOL    HW135512  13.383  11.072   8.891
77891SOL    HW235513  13.525  11.125   8.898
77892SOL     OW35514  12.107  12.590   6.350
77892SOL    HW135515  12.183  12.546   6.389
77892SOL    HW235516  12.122  12.683   6.368
77893SOL     OW35517   9.619   6.492   0.737
77893SOL    HW135518   9.587   6.558   0.675
77893SOL    HW235519   9.642   6.543   0.815
77894SOL     OW35520  12.446   7.489   4.640
77894SOL    HW135521  12.477   7.543   4.568
77894SOL    HW235522  12.433   7.402   4.601
77895SOL     OW35523   9.915   3.765   9.034
77895SOL    HW135524   9.909   3.678   8.995
77895SOL    HW235525  10.003   3.796   9.010
77896SOL     OW35526   8.780   8.935   5.129
77896SOL    HW135527   8.812   8.991   5.058
77896SOL    HW235528   8.833   8.855   5.122
77897SOL     OW35529   7.461  13.185   1.592
77897SOL    HW135530   7.522  13.132   1.541
77897SOL    HW235531   7.469  13.152   1.681
77898SOL     OW35532  13.774   3.596  10.422
77898SOL    HW135533  13.742   3.532  10.486
77898SOL    HW235534  13.828   3.656  10.473
77899SOL     OW35535   8.092   7.631   1.544
77899SOL    HW135536   8.160   7.565   1.526
77899SOL    HW235537   8.094   7.642   1.639
77900SOL     OW35538   8.241  10.131   1.566
77900SOL    HW135539   8.237  10.224   1.590
77900SOL    HW235540   8.239  10.084   1.649
77901SOL     OW35541   0.719   4.110   4.745
77901SOL    HW135542   0.700   4.203   4.733
77901SOL    HW235543   0.661   4.065   4.685
77902SOL     OW35544   3.409   6.231   5.445
77902SOL    HW135545   3.498   6.252   5.417
77902SOL    HW235546   3.414   6.222   5.540
77903SOL     OW35547   7.774   0.282   8.277
77903SOL    HW135548   7.800   0.219   8.345
77903SOL    HW235549   7.815   0.249   8.197
77904SOL     OW35550   3.097   9.770  13.526
77904SOL    HW135551   3.134   9.834  13.466
77904SOL    HW235552   3.166   9.703  13.536
77905SOL     OW35553   3.336   1.984   0.110
77905SOL    HW135554   3.394   2.059   0.096
77905SOL    HW235555   3.253   2.024   0.138
77906SOL     OW35556   2.874   8.541   5.113
77906SOL    HW135557   2.855   8.635   5.116
77906SOL    HW235558   2.866   8.512   5.204
77907SOL     OW35559   3.400   8.694  14.220
77907SOL    HW135560   3.340   8.682  14.293
77907SOL    HW235561   3.343   8.705  14.143
77908SOL     OW35562   5.931   1.855   2.350
77908SOL    HW135563   5.909   1.915   2.422
77908SOL    HW235564   5.853   1.854   2.295
77909SOL     OW35565   1.745   4.046   7.828
77909SOL    HW135566   1.738   4.044   7.732
77909SOL    HW235567   1.663   4.007   7.859
77910SOL     OW35568  12.491   0.936   5.584
77910SOL    HW135569  12.532   1.017   5.615
77910SOL    HW235570  12.552   0.867   5.608
77911SOL     OW35571  11.820  13.755   3.793
77911SOL    HW135572  11.761  13.680   3.792
77911SOL    HW235573  11.800  13.801   3.875
77912SOL     OW35574  13.136   3.402   1.808
77912SOL    HW135575  13.094   3.470   1.755
77912SOL    HW235576  13.074   3.329   1.808
77913SOL     OW35577   2.425   1.146   1.937
77913SOL    HW135578   2.463   1.085   1.874
77913SOL    HW235579   2.498   1.171   1.993
77914SOL     OW35580   7.339   8.369   5.449
77914SOL    HW135581   7.418   8.405   5.488
77914SOL    HW235582   7.348   8.274   5.458
77915SOL     OW35583   2.337   6.321   2.968
77915SOL    HW135584   2.372   6.404   2.999
77915SOL    HW235585   2.395   6.255   3.005
77916SOL     OW35586   0.272   0.976   2.787
77916SOL    HW135587   0.215   1.046   2.819
77916SOL    HW235588   0.225   0.940   2.712
77917SOL     OW35589   1.565  11.660   4.754
77917SOL    HW135590   1.554  11.723   4.825
77917SOL    HW235591   1.478  11.653   4.714
77918SOL     OW35592   7.956   4.756   5.008
77918SOL    HW135593   7.958   4.786   5.099
77918SOL    HW235594   7.870   4.717   4.998
77919SOL     OW35595  11.101   9.368   2.102
77919SOL    HW135596  11.022   9.419   2.089
77919SOL    HW235597  11.102   9.347   2.195
77920SOL     OW35598   9.480  12.465   2.815
77920SOL    HW135599   9.389  12.441   2.829
77920SOL    HW235600   9.516  12.393   2.762
77921SOL     OW35601   4.974  13.732   6.764
77921SOL    HW135602   5.027  13.721   6.843
77921SOL    HW235603   4.953  13.825   6.762
77922SOL     OW35604   1.790   0.428  12.773
77922SOL    HW135605   1.725   0.416  12.842
77922SOL    HW235606   1.797   0.523  12.762
77923SOL     OW35607   8.189   1.253   0.341
77923SOL    HW135608   8.214   1.280   0.253
77923SOL    HW235609   8.113   1.196   0.328
77924SOL     OW35610   0.420   0.112   8.813
77924SOL    HW135611   0.468   0.091   8.733
77924SOL    HW235612   0.482   0.163   8.866
77925SOL     OW35613   9.234   3.863   2.800
77925SOL    HW135614   9.178   3.849   2.723
77925SOL    HW235615   9.322   3.843   2.769
77926SOL     OW35616   4.213  12.099   9.654
77926SOL    HW135617   4.252  12.012   9.648
77926SOL    HW235618   4.163  12.096   9.735
77927SOL     OW35619  13.430   9.778   1.474
77927SOL    HW135620  13.485   9.828   1.413
77927SOL    HW235621  13.340   9.800   1.449
77928SOL     OW35622   7.081  12.568  10.895
77928SOL    HW135623   7.048  12.562  10.984
77928SOL    HW235624   7.061  12.483  10.856
77929SOL     OW35625  12.906   8.447   5.849
77929SOL    HW135626  12.961   8.495   5.911
77929SOL    HW235627  12.952   8.365   5.834
77930SOL     OW35628   4.838   4.774   0.860
77930SOL    HW135629   4.828   4.769   0.765
77930SOL    HW235630   4.777   4.842   0.887
77931SOL     OW35631  12.658   6.683  10.250
77931SOL    HW135632  12.565   6.695  10.228
77931SOL    HW235633  12.687   6.613  10.191
77932SOL     OW35634  12.611   1.339   1.554
77932SOL    HW135635  12.571   1.264   1.510
77932SOL    HW235636  12.591   1.413   1.497
77933SOL     OW35637   8.097  10.243   2.433
77933SOL    HW135638   8.057  10.164   2.468
77933SOL    HW235639   8.024  10.304   2.419
77934SOL     OW35640   1.181   1.063   3.193
77934SOL    HW135641   1.107   1.005   3.214
77934SOL    HW235642   1.152   1.150   3.220
77935SOL     OW35643   0.363   5.086   3.057
77935SOL    HW135644   0.403   5.100   3.144
77935SOL    HW235645   0.393   4.999   3.031
77936SOL     OW35646   1.101   4.351   5.780
77936SOL    HW135647   1.047   4.321   5.707
77936SOL    HW235648   1.182   4.300   5.772
77937SOL     OW35649   1.628   8.874   8.508
77937SOL    HW135650   1.608   8.891   8.601
77937SOL    HW235651   1.573   8.937   8.461
77938SOL     OW35652  13.504   7.550   4.728
77938SOL    HW135653  13.576   7.586   4.780
77938SOL    HW235654  13.477   7.472   4.777
77939SOL     OW35655  11.743   8.622  13.757
77939SOL    HW135656  11.673   8.626  13.691
77939SOL    HW235657  11.821   8.652  13.712
77940SOL     OW35658   2.513   3.037   8.657
77940SOL    HW135659   2.454   3.001   8.590
77940SOL    HW235660   2.593   2.985   8.649
77941SOL     OW35661  13.537   7.191   3.793
77941SOL    HW135662  13.595   7.162   3.864
77941SOL    HW235663  13.484   7.114   3.773
77942SOL     OW35664   6.974  14.489   6.079
77942SOL    HW135665   6.904  14.507   6.016
77942SOL    HW235666   7.040  14.557   6.061
77943SOL     OW35667  11.227   1.316  13.606
77943SOL    HW135668  11.302   1.272  13.645
77943SOL    HW235669  11.183   1.249  13.554
77944SOL     OW35670   6.035  12.379   3.605
77944SOL    HW135671   6.033  12.386   3.509
77944SOL    HW235672   6.060  12.289   3.622
77945SOL     OW35673  14.110  13.471  10.373
77945SOL    HW135674  14.199  13.460  10.405
77945SOL    HW235675  14.084  13.384  10.343
77946SOL     OW35676  14.289   2.668   3.187
77946SOL    HW135677  14.195   2.675   3.198
77946SOL    HW235678  14.304   2.576   3.165
77947SOL     OW35679  12.238   2.511  10.347
77947SOL    HW135680  12.323   2.548  10.327
77947SOL    HW235681  12.253   2.417  10.353
77948SOL     OW35682  10.832   6.828   0.621
77948SOL    HW135683  10.739   6.807   0.620
77948SOL    HW235684  10.841   6.903   0.562
77949SOL     OW35685   8.471  11.490  11.593
77949SOL    HW135686   8.409  11.553  11.557
77949SOL    HW235687   8.471  11.418  11.531
77950SOL     OW35688   7.600   5.297  13.393
77950SOL    HW135689   7.580   5.323  13.303
77950SOL    HW235690   7.666   5.360  13.422
77951SOL     OW35691   5.332  13.928  10.111
77951SOL    HW135692   5.293  13.841  10.126
77951SOL    HW235693   5.339  13.934  10.015
77952SOL     OW35694  11.158   0.714   4.771
77952SOL    HW135695  11.170   0.629   4.730
77952SOL    HW235696  11.235   0.725   4.827
77953SOL     OW35697   8.768   7.615  11.731
77953SOL    HW135698   8.732   7.685  11.675
77953SOL    HW235699   8.811   7.555  11.670
77954SOL     OW35700   3.400   0.630   4.190
77954SOL    HW135701   3.364   0.678   4.265
77954SOL    HW235702   3.328   0.625   4.127
77955SOL     OW35703   1.541  11.945   1.668
77955SOL    HW135704   1.507  11.967   1.754
77955SOL    HW235705   1.472  11.973   1.607
77956SOL     OW35706   2.901   8.814   5.114
77956SOL    HW135707   2.994   8.804   5.092
77956SOL    HW235708   2.901   8.871   5.191
77957SOL     OW35709  13.817  11.340   4.321
77957SOL    HW135710  13.768  11.299   4.249
77957SOL    HW235711  13.764  11.324   4.398
77958SOL     OW35712   2.448  13.675   5.283
77958SOL    HW135713   2.543  13.681   5.294
77958SOL    HW235714   2.433  13.586   5.253
77959SOL     OW35715  11.672   8.108   3.825
77959SOL    HW135716  11.663   8.048   3.899
77959SOL    HW235717  11.582   8.123   3.795
77960SOL     OW35718  12.951   7.143  10.031
77960SOL    HW135719  12.949   7.113  10.122
77960SOL    HW235720  13.041   7.173  10.018
77961SOL     OW35721   4.393  13.527   1.429
77961SOL    HW135722   4.405  13.476   1.509
77961SOL    HW235723   4.403  13.618   1.457
77962SOL     OW35724  10.718  13.992  12.438
77962SOL    HW135725  10.704  14.051  12.513
77962SOL    HW235726  10.720  14.049  12.362
77963SOL     OW35727  12.502  14.413  11.833
77963SOL    HW135728  12.547  14.337  11.798
77963SOL    HW235729  12.571  14.478  11.847
77964SOL     OW35730   4.767   1.584  10.518
77964SOL    HW135731   4.820   1.513  10.552
77964SOL    HW235732   4.786   1.586  10.424
77965SOL     OW35733  11.323   8.631  13.271
77965SOL    HW135734  11.338   8.726  13.267
77965SOL    HW235735  11.409   8.593  13.257
77966SOL     OW35736   3.378  10.586  10.290
77966SOL    HW135737   3.316  10.513  10.286
77966SOL    HW235738   3.415  10.590  10.202
77967SOL     OW35739   1.030   2.769   7.299
77967SOL    HW135740   1.101   2.708   7.323
77967SOL    HW235741   0.951   2.728   7.334
77968SOL     OW35742   4.777   5.979   2.252
77968SOL    HW135743   4.713   6.012   2.315
77968SOL    HW235744   4.727   5.920   2.196
77969SOL     OW35745  14.629   7.851   9.851
77969SOL    HW135746  14.673   7.863   9.935
77969SOL    HW235747  14.538   7.875   9.867
77970SOL     OW35748  11.824   7.574  12.877
77970SOL    HW135749  11.747   7.536  12.835
77970SOL    HW235750  11.844   7.514  12.949
77971SOL     OW35751   5.735  10.712   6.685
77971SOL    HW135752   5.643  10.703   6.711
77971SOL    HW235753   5.784  10.701   6.767
77972SOL     OW35754   0.319   7.895   3.088
77972SOL    HW135755   0.262   7.947   3.145
77972SOL    HW235756   0.369   7.840   3.148
77973SOL     OW35757   1.984   6.969   5.173
77973SOL    HW135758   2.067   6.953   5.128
77973SOL    HW235759   1.922   6.990   5.103
77974SOL     OW35760  14.191   1.124   6.944
77974SOL    HW135761  14.136   1.087   6.874
77974SOL    HW235762  14.220   1.208   6.909
77975SOL     OW35763  11.459  13.539   3.847
77975SOL    HW135764  11.398  13.547   3.773
77975SOL    HW235765  11.527  13.480   3.816
77976SOL     OW35766  14.588   7.153  14.514
77976SOL    HW135767  14.649   7.220  14.484
77976SOL    HW235768  14.504   7.179  14.475
77977SOL     OW35769   0.552  11.545  12.136
77977SOL    HW135770   0.538  11.626  12.088
77977SOL    HW235771   0.647  11.540  12.147
77978SOL     OW35772  12.503   9.480  14.615
77978SOL    HW135773  12.483   9.440  14.699
77978SOL    HW235774  12.553   9.559  14.637
77979SOL     OW35775  11.468  13.964   8.400
77979SOL    HW135776  11.525  14.040   8.399
77979SOL    HW235777  11.387  13.993   8.357
77980SOL     OW35778   8.967   0.450  10.321
77980SOL    HW135779   8.925   0.498  10.392
77980SOL    HW235780   8.940   0.360  10.333
77981SOL     OW35781   3.022   0.577  12.582
77981SOL    HW135782   3.039   0.521  12.506
77981SOL    HW235783   2.931   0.605  12.571
77982SOL     OW35784  10.980   5.728   0.954
77982SOL    HW135785  10.933   5.658   0.909
77982SOL    HW235786  10.929   5.807   0.935
77983SOL     OW35787   5.112   9.634  13.586
77983SOL    HW135788   5.139   9.574  13.655
77983SOL    HW235789   5.193   9.651  13.537
77984SOL     OW35790   2.141  12.303   3.948
77984SOL    HW135791   2.123  12.349   3.867
77984SOL    HW235792   2.233  12.275   3.940
77985SOL     OW35793   0.642   4.199   8.880
77985SOL    HW135794   0.714   4.154   8.923
77985SOL    HW235795   0.652   4.291   8.908
77986SOL     OW35796   0.990   4.925  12.541
77986SOL    HW135797   1.058   4.989  12.564
77986SOL    HW235798   0.913   4.955  12.589
77987SOL     OW35799   6.082   5.446   1.415
77987SOL    HW135800   6.067   5.515   1.480
77987SOL    HW235801   6.166   5.468   1.374
77988SOL     OW35802   8.425  12.714   2.213
77988SOL    HW135803   8.475  12.641   2.250
77988SOL    HW235804   8.473  12.740   2.135
77989SOL     OW35805   9.884   8.526  14.683
77989SOL    HW135806   9.819   8.595  14.692
77989SOL    HW235807   9.867   8.467  14.756
77990SOL     OW35808   9.965   1.249   9.445
77990SOL    HW135809   9.916   1.223   9.367
77990SOL    HW235810  10.054   1.262   9.414
77991SOL     OW35811   9.425   1.246  13.070
77991SOL    HW135812   9.339   1.270  13.035
77991SOL    HW235813   9.430   1.151  13.058
77992SOL     OW35814   9.603  11.578   3.220
77992SOL    HW135815   9.633  11.539   3.138
77992SOL    HW235816   9.540  11.515   3.255
77993SOL     OW35817   2.363  12.868   4.796
77993SOL    HW135818   2.408  12.923   4.732
77993SOL    HW235819   2.432  12.836   4.854
77994SOL     OW35820   9.381   4.175   6.839
77994SOL    HW135821   9.302   4.136   6.878
77994SOL    HW235822   9.358   4.268   6.827
77995SOL     OW35823   4.345   5.988   9.498
77995SOL    HW135824   4.272   5.968   9.441
77995SOL    HW235825   4.307   6.039   9.570
77996SOL     OW35826  13.362  11.058  10.280
77996SOL    HW135827  13.414  11.086  10.356
77996SOL    HW235828  13.421  11.000  10.231
77997SOL     OW35829  10.321  11.293   2.159
77997SOL    HW135830  10.276  11.309   2.242
77997SOL    HW235831  10.412  11.314   2.178
77998SOL     OW35832   6.331   3.874   3.045
77998SOL    HW135833   6.266   3.885   3.114
77998SOL    HW235834   6.319   3.950   2.988
77999SOL     OW35835   1.104   5.406   7.133
77999SOL    HW135836   1.183   5.365   7.167
77999SOL    HW235837   1.034   5.345   7.155
78000SOL     OW35838   7.530   1.330   2.547
78000SOL    HW135839   7.594   1.272   2.587
78000SOL    HW235840   7.579   1.409   2.525
78001SOL     OW35841   5.120   0.752   6.508
78001SOL    HW135842   5.085   0.715   6.589
78001SOL    HW235843   5.079   0.701   6.438
78002SOL     OW35844   8.662   0.546   9.868
78002SOL    HW135845   8.703   0.501   9.942
78002SOL    HW235846   8.691   0.496   9.791
78003SOL     OW35847  12.141  10.763   5.603
78003SOL    HW135848  12.183  10.690   5.558
78003SOL    HW235849  12.212  10.809   5.647
78004SOL     OW35850   7.220  10.979   4.539
78004SOL    HW135851   7.204  11.004   4.630
78004SOL    HW235852   7.262  11.055   4.500
78005SOL     OW35853   8.179   8.391   0.139
78005SOL    HW135854   8.126   8.390   0.218
78005SOL    HW235855   8.269   8.377   0.170
78006SOL     OW35856   2.596  13.175   7.291
78006SOL    HW135857   2.525  13.218   7.338
78006SOL    HW235858   2.554  13.139   7.213
78007SOL     OW35859   7.868   9.947   4.318
78007SOL    HW135860   7.860   9.951   4.413
78007SOL    HW235861   7.882  10.037   4.291
78008SOL     OW35862   1.486   7.017   3.224
78008SOL    HW135863   1.572   6.989   3.190
78008SOL    HW235864   1.445   7.062   3.150
78009SOL     OW35865   7.240   6.045   1.692
78009SOL    HW135866   7.324   6.064   1.733
78009SOL    HW235867   7.213   5.961   1.729
78010SOL     OW35868  13.946   0.749   1.401
78010SOL    HW135869  13.869   0.695   1.383
78010SOL    HW235870  14.016   0.687   1.420
78011SOL     OW35871   9.309   4.633  11.209
78011SOL    HW135872   9.371   4.572  11.248
78011SOL    HW235873   9.305   4.608  11.117
78012SOL     OW35874   7.163   8.345   2.819
78012SOL    HW135875   7.080   8.328   2.865
78012SOL    HW235876   7.156   8.294   2.738
78013SOL     OW35877   5.626  14.458   9.424
78013SOL    HW135878   5.680  14.533   9.398
78013SOL    HW235879   5.640  14.393   9.354
78014SOL     OW35880   7.129   7.257   1.088
78014SOL    HW135881   7.212   7.305   1.083
78014SOL    HW235882   7.068   7.310   1.036
78015SOL     OW35883   6.442   7.099   8.464
78015SOL    HW135884   6.536   7.109   8.482
78015SOL    HW235885   6.435   7.012   8.423
78016SOL     OW35886  11.653   8.346   5.825
78016SOL    HW135887  11.578   8.348   5.765
78016SOL    HW235888  11.654   8.256   5.858
78017SOL     OW35889   4.125   0.505   2.033
78017SOL    HW135890   4.033   0.520   2.057
78017SOL    HW235891   4.166   0.592   2.041
78018SOL     OW35892   1.931   6.854  11.492
78018SOL    HW135893   1.876   6.931  11.507
78018SOL    HW235894   2.011   6.873  11.540
78019SOL     OW35895   4.364  13.302   8.520
78019SOL    HW135896   4.270  13.287   8.514
78019SOL    HW235897   4.397  13.286   8.432
78020SOL     OW35898  11.635  12.389   5.669
78020SOL    HW135899  11.659  12.353   5.584
78020SOL    HW235900  11.704  12.453   5.687
78021SOL     OW35901  10.462   2.486   6.870
78021SOL    HW135902  10.526   2.426   6.832
78021SOL    HW235903  10.509   2.569   6.877
78022SOL     OW35904   1.437   4.031   1.465
78022SOL    HW135905   1.529   4.012   1.480
78022SOL    HW235906   1.390   3.972   1.524
78023SOL     OW35907   9.402  11.606   2.937
78023SOL    HW135908   9.450  11.685   2.960
78023SOL    HW235909   9.465  11.535   2.947
78024SOL     OW35910   7.258  13.581   4.927
78024SOL    HW135911   7.351  13.575   4.904
78024SOL    HW235912   7.258  13.601   5.020
78025SOL     OW35913   2.787  14.517  12.381
78025SOL    HW135914   2.697  14.547  12.390
78025SOL    HW235915   2.784  14.424  12.406
78026SOL     OW35916  10.079  13.098  12.346
78026SOL    HW135917  10.169  13.073  12.324
78026SOL    HW235918  10.066  13.182  12.302
78027SOL     OW35919   2.196   4.328   1.744
78027SOL    HW135920   2.189   4.388   1.818
78027SOL    HW235921   2.110   4.285   1.739
78028SOL     OW35922  13.907  13.620  10.317
78028SOL    HW135923  13.825  13.585  10.353
78028SOL    HW235924  13.975  13.565  10.357
78029SOL     OW35925   0.970   0.195   5.454
78029SOL    HW135926   0.891   0.224   5.408
78029SOL    HW235927   0.981   0.103   5.428
78030SOL     OW35928  13.389   4.761   0.411
78030SOL    HW135929  13.336   4.714   0.347
78030SOL    HW235930  13.480   4.747   0.381
78031SOL     OW35931  13.643  12.418   1.601
78031SOL    HW135932  13.575  12.369   1.647
78031SOL    HW235933  13.602  12.443   1.518
78032SOL     OW35934   2.975   2.343  10.342
78032SOL    HW135935   2.921   2.321  10.418
78032SOL    HW235936   2.932   2.299  10.268
78033SOL     OW35937   9.272   3.040   5.679
78033SOL    HW135938   9.249   2.979   5.609
78033SOL    HW235939   9.353   3.081   5.649
78034SOL     OW35940   8.628  10.733  12.299
78034SOL    HW135941   8.636  10.826  12.277
78034SOL    HW235942   8.541  10.725  12.339
78035SOL     OW35943   5.634  11.874   6.113
78035SOL    HW135944   5.672  11.801   6.062
78035SOL    HW235945   5.661  11.857   6.203
78036SOL     OW35946   8.170   3.837   0.264
78036SOL    HW135947   8.187   3.819   0.357
78036SOL    HW235948   8.081   3.872   0.262
78037SOL     OW35949   9.967   2.685   9.948
78037SOL    HW135950   9.899   2.727   9.896
78037SOL    HW235951  10.040   2.748   9.948
78038SOL     OW35952   6.698  13.732   8.219
78038SOL    HW135953   6.712  13.655   8.165
78038SOL    HW235954   6.704  13.700   8.309
78039SOL     OW35955   6.574  14.881   7.840
78039SOL    HW135956   6.624  14.854   7.917
78039SOL    HW235957   6.553  14.798   7.796
78040SOL     OW35958   9.235   0.259  12.971
78040SOL    HW135959   9.152   0.305  12.957
78040SOL    HW235960   9.271   0.249  12.883
78041SOL     OW35961   7.431   8.087   8.664
78041SOL    HW135962   7.441   7.992   8.670
78041SOL    HW235963   7.509   8.122   8.707
78042SOL     OW35964   8.587   7.658   9.017
78042SOL    HW135965   8.498   7.669   8.982
78042SOL    HW235966   8.613   7.746   9.044
78043SOL     OW35967   6.452   5.682   7.646
78043SOL    HW135968   6.377   5.731   7.611
78043SOL    HW235969   6.464   5.609   7.586
78044SOL     OW35970   9.093  12.632  13.879
78044SOL    HW135971   9.121  12.723  13.886
78044SOL    HW235972   9.124  12.590  13.959
78045SOL     OW35973   0.735   7.197   0.839
78045SOL    HW135974   0.729   7.238   0.753
78045SOL    HW235975   0.829   7.187   0.854
78046SOL     OW35976   4.508   8.778   6.077
78046SOL    HW135977   4.551   8.695   6.053
78046SOL    HW235978   4.548   8.842   6.019
78047SOL     OW35979   7.211   5.506  14.538
78047SOL    HW135980   7.118   5.482  14.528
78047SOL    HW235981   7.256   5.423  14.552
78048SOL     OW35982   1.296   0.885   9.377
78048SOL    HW135983   1.283   0.974   9.344
78048SOL    HW235984   1.240   0.880   9.455
78049SOL     OW35985  11.053   3.843  12.903
78049SOL    HW135986  11.133   3.891  12.883
78049SOL    HW235987  11.060   3.821  12.996
78050SOL     OW35988  13.530  10.947  14.581
78050SOL    HW135989  13.485  10.877  14.628
78050SOL    HW235990  13.618  10.949  14.621
78051SOL     OW35991   8.852   9.202   5.797
78051SOL    HW135992   8.819   9.128   5.848
78051SOL    HW235993   8.944   9.211   5.824
78052SOL     OW35994   7.378   7.491  10.126
78052SOL    HW135995   7.313   7.561  10.127
78052SOL    HW235996   7.461   7.536  10.111
78053SOL     OW35997   8.042   1.141   3.074
78053SOL    HW135998   8.004   1.114   3.158
78053SOL    HW235999   8.062   1.234   3.086
78054SOL     OW36000  14.720   8.396  12.925
78054SOL    HW136001  14.704   8.364  13.014
78054SOL    HW236002  14.667   8.475  12.918
78055SOL     OW36003  11.176   6.455   7.073
78055SOL    HW136004  11.110   6.491   7.013
78055SOL    HW236005  11.258   6.459   7.024
78056SOL     OW36006   4.934   5.579   5.557
78056SOL    HW136007   4.940   5.486   5.534
78056SOL    HW236008   4.907   5.579   5.649
78057SOL     OW36009   6.726   1.398  10.194
78057SOL    HW136010   6.674   1.380  10.273
78057SOL    HW236011   6.737   1.493  10.193
78058SOL     OW36012  14.864  10.080  12.006
78058SOL    HW136013   0.067  10.051  12.038
78058SOL    HW236014  14.800  10.039  12.064
78059SOL     OW36015  14.622  14.855   6.794
78059SOL    HW136016  14.568  14.847   6.873
78059SOL    HW236017  14.609   0.064   6.766
78060SOL     OW36018   8.668   9.508  14.496
78060SOL    HW136019   8.601   9.515  14.564
78060SOL    HW236020   8.648   9.579  14.436
78061SOL     OW36021   2.352   1.677  10.767
78061SOL    HW136022   2.265   1.650  10.797
78061SOL    HW236023   2.412   1.615  10.808
78062SOL     OW36024  10.290   9.352   8.185
78062SOL    HW136025  10.275   9.427   8.242
78062SOL    HW236026  10.264   9.382   8.098
78063SOL     OW36027   7.703   5.629  14.786
78063SOL    HW136028   7.794   5.608  14.764
78063SOL    HW236029   7.680   5.568  14.856
78064SOL     OW36030   5.604   0.206   7.897
78064SOL    HW136031   5.638   0.144   7.832
78064SOL    HW236032   5.513   0.221   7.871
78065SOL     OW36033   1.674   3.338   7.399
78065SOL    HW136034   1.603   3.296   7.350
78065SOL    HW236035   1.738   3.362   7.332
78066SOL     OW36036  11.116  14.112   1.298
78066SOL    HW136037  11.189  14.168   1.271
78066SOL    HW236038  11.124  14.035   1.242
78067SOL     OW36039  12.601   9.058  13.988
78067SOL    HW136040  12.616   9.152  13.994
78067SOL    HW236041  12.637   9.022  14.069
78068SOL     OW36042   1.691   3.998  13.330
78068SOL    HW136043   1.606   3.957  13.344
78068SOL    HW236044   1.692   4.020  13.237
78069SOL     OW36045   9.686   5.223   6.723
78069SOL    HW136046   9.650   5.301   6.764
78069SOL    HW236047   9.723   5.255   6.640
78070SOL     OW36048  14.332  14.228   9.902
78070SOL    HW136049  14.255  14.263   9.946
78070SOL    HW236050  14.392  14.205   9.973
78071SOL     OW36051   5.047   3.938  12.267
78071SOL    HW136052   4.961   3.895  12.270
78071SOL    HW236053   5.077   3.938  12.358
78072SOL     OW36054   9.884   2.484   1.320
78072SOL    HW136055   9.833   2.523   1.249
78072SOL    HW236056   9.898   2.555   1.382
78073SOL     OW36057  11.371   2.070   6.852
78073SOL    HW136058  11.400   2.113   6.933
78073SOL    HW236059  11.439   2.006   6.833
78074SOL     OW36060   5.843   3.055  13.333
78074SOL    HW136061   5.882   3.091  13.254
78074SOL    HW236062   5.847   3.127  13.396
78075SOL     OW36063   9.653  12.947  13.611
78075SOL    HW136064   9.711  12.902  13.672
78075SOL    HW236065   9.565  12.928  13.642
78076SOL     OW36066   4.491   2.640  13.133
78076SOL    HW136067   4.432   2.569  13.107
78076SOL    HW236068   4.577   2.614  13.098
78077SOL     OW36069  13.478   4.787  11.882
78077SOL    HW136070  13.451   4.807  11.972
78077SOL    HW236071  13.502   4.694  11.884
78078SOL     OW36072   0.824   0.328  12.344
78078SOL    HW136073   0.771   0.393  12.389
78078SOL    HW236074   0.760   0.265  12.310
78079SOL     OW36075   9.227   5.134  14.234
78079SOL    HW136076   9.302   5.094  14.277
78079SOL    HW236077   9.243   5.228  14.240
78080SOL     OW36078   3.135   8.285  14.134
78080SOL    HW136079   3.059   8.333  14.166
78080SOL    HW236080   3.175   8.344  14.069
78081SOL     OW36081   3.566   9.810   5.356
78081SOL    HW136082   3.640   9.843   5.304
78081SOL    HW236083   3.602   9.739   5.408
78082SOL     OW36084  12.505   5.059   9.105
78082SOL    HW136085  12.582   5.113   9.125
78082SOL    HW236086  12.465   5.102   9.029
78083SOL     OW36087   5.861   6.075   7.993
78083SOL    HW136088   5.814   5.993   7.975
78083SOL    HW236089   5.895   6.101   7.907
78084SOL     OW36090  12.656   0.362   6.220
78084SOL    HW136091  12.649   0.321   6.134
78084SOL    HW236092  12.736   0.415   6.214
78085SOL     OW36093   5.926   6.009   1.084
78085SOL    HW136094   6.004   6.015   1.139
78085SOL    HW236095   5.913   5.915   1.071
78086SOL     OW36096   9.620   3.027   0.049
78086SOL    HW136097   9.695   2.967   0.057
78086SOL    HW236098   9.646   3.104   0.100
78087SOL     OW36099   5.867  14.586   5.390
78087SOL    HW136100   5.858  14.626   5.304
78087SOL    HW236101   5.877  14.660   5.450
78088SOL     OW36102   2.178  10.056   8.307
78088SOL    HW136103   2.164  10.140   8.352
78088SOL    HW236104   2.224  10.080   8.226
78089SOL     OW36105  11.578   1.887  11.325
78089SOL    HW136106  11.543   1.854  11.407
78089SOL    HW236107  11.547   1.977  11.319
78090SOL     OW36108  10.427   4.533  14.471
78090SOL    HW136109  10.504   4.477  14.459
78090SOL    HW236110  10.421   4.545  14.566
78091SOL     OW36111  13.932   9.043  10.062
78091SOL    HW136112  13.863   9.109  10.071
78091SOL    HW236113  13.885   8.960  10.059
78092SOL     OW36114  12.528   5.180   5.875
78092SOL    HW136115  12.569   5.262   5.848
78092SOL    HW236116  12.586   5.112   5.842
78093SOL     OW36117   2.511   6.580   2.398
78093SOL    HW136118   2.442   6.585   2.331
78093SOL    HW236119   2.578   6.523   2.360
78094SOL     OW36120   1.050  14.412   3.044
78094SOL    HW136121   0.983  14.393   2.979
78094SOL    HW236122   1.037  14.504   3.067
78095SOL     OW36123  10.013   2.651   0.310
78095SOL    HW136124   9.940   2.661   0.371
78095SOL    HW236125  10.069   2.727   0.326
78096SOL     OW36126   7.617   2.415  11.654
78096SOL    HW136127   7.564   2.374  11.722
78096SOL    HW236128   7.707   2.391  11.676
78097SOL     OW36129  14.607   0.678   8.619
78097SOL    HW136130  14.664   0.654   8.693
78097SOL    HW236131  14.666   0.684   8.544
78098SOL     OW36132   2.044   0.134  12.937
78098SOL    HW136133   2.072   0.209  12.991
78098SOL    HW236134   2.104   0.064  12.960
78099SOL     OW36135   8.015   8.312   0.351
78099SOL    HW136136   7.963   8.284   0.426
78099SOL    HW236137   7.960   8.293   0.275
78100SOL     OW36138   4.834   9.658   8.110
78100SOL    HW136139   4.927   9.640   8.103
78100SOL    HW236140   4.792   9.590   8.058
78101SOL     OW36141   0.305   8.871  14.619
78101SOL    HW136142   0.292   8.930  14.544
78101SOL    HW236143   0.285   8.926  14.695
78102SOL     OW36144  11.852   9.727   2.042
78102SOL    HW136145  11.854   9.726   1.946
78102SOL    HW236146  11.768   9.685   2.064
78103SOL     OW36147  10.636  12.226   6.242
78103SOL    HW136148  10.685  12.259   6.318
78103SOL    HW236149  10.658  12.287   6.171
78104SOL     OW36150   2.017  14.109   4.606
78104SOL    HW136151   2.028  14.015   4.615
78104SOL    HW236152   2.100  14.140   4.570
78105SOL     OW36153  10.208   3.242  11.403
78105SOL    HW136154  10.202   3.243  11.307
78105SOL    HW236155  10.183   3.331  11.429
78106SOL     OW36156  12.536  10.187   5.855
78106SOL    HW136157  12.601  10.119   5.872
78106SOL    HW236158  12.452  10.142   5.864
78107SOL     OW36159  14.228  11.177   9.068
78107SOL    HW136160  14.298  11.124   9.030
78107SOL    HW236161  14.251  11.187   9.160
78108SOL     OW36162  11.537   9.703   1.797
78108SOL    HW136163  11.449   9.710   1.760
78108SOL    HW236164  11.532   9.753   1.879
78109SOL     OW36165   1.203  14.175  14.261
78109SOL    HW136166   1.243  14.207  14.342
78109SOL    HW236167   1.114  14.152  14.285
78110SOL     OW36168  11.710   7.057  14.870
78110SOL    HW136169  11.670   7.101   0.064
78110SOL    HW236170  11.801   7.088  14.870
78111SOL     OW36171   1.092   9.313   8.990
78111SOL    HW136172   1.078   9.380   8.923
78111SOL    HW236173   1.186   9.298   8.990
78112SOL     OW36174  12.922  11.594   8.788
78112SOL    HW136175  12.828  11.602   8.775
78112SOL    HW236176  12.956  11.682   8.769
78113SOL     OW36177   3.903   3.181  13.280
78113SOL    HW136178   3.830   3.236  13.251
78113SOL    HW236179   3.911   3.200  13.374
78114SOL     OW36180   9.312   0.822   5.025
78114SOL    HW136181   9.305   0.893   4.961
78114SOL    HW236182   9.270   0.747   4.983
78115SOL     OW36183   2.486  11.691   4.844
78115SOL    HW136184   2.418  11.746   4.882
78115SOL    HW236185   2.566  11.742   4.852
78116SOL     OW36186   6.957   3.740  11.239
78116SOL    HW136187   6.928   3.713  11.326
78116SOL    HW236188   7.045   3.775  11.252
78117SOL     OW36189   0.519  12.817  14.530
78117SOL    HW136190   0.449  12.795  14.468
78117SOL    HW236191   0.548  12.904  14.505
78118SOL     OW36192  11.851  12.838  10.917
78118SOL    HW136193  11.839  12.743  10.929
78118SOL    HW236194  11.852  12.850  10.822
78119SOL     OW36195   2.178  11.040   5.233
78119SOL    HW136196   2.195  11.030   5.139
78119SOL    HW236197   2.084  11.021   5.242
78120SOL     OW36198   7.805   7.290  10.166
78120SOL    HW136199   7.854   7.261  10.243
78120SOL    HW236200   7.795   7.211  10.113
78121SOL     OW36201   0.997   8.966   6.021
78121SOL    HW136202   0.980   9.045   5.970
78121SOL    HW236203   1.076   8.929   5.981
78122SOL     OW36204   1.840   1.353  14.731
78122SOL    HW136205   1.828   1.366  14.825
78122SOL    HW236206   1.780   1.415  14.690
78123SOL     OW36207   7.292   4.151  11.422
78123SOL    HW136208   7.272   4.245  11.415
78123SOL    HW236209   7.213   4.112  11.458
78124SOL     OW36210  14.100  11.513   0.684
78124SOL    HW136211  14.144  11.598   0.678
78124SOL    HW236212  14.083  11.501   0.778
78125SOL     OW36213   4.365  10.043   2.545
78125SOL    HW136214   4.364  10.088   2.460
78125SOL    HW236215   4.457  10.040   2.569
78126SOL     OW36216  10.755   5.749  11.725
78126SOL    HW136217  10.751   5.688  11.798
78126SOL    HW236218  10.673   5.797  11.730
78127SOL     OW36219  11.799  10.785   8.873
78127SOL    HW136220  11.770  10.695   8.855
78127SOL    HW236221  11.757  10.807   8.956
78128SOL     OW36222   7.471  10.704   5.952
78128SOL    HW136223   7.471  10.698   5.856
78128SOL    HW236224   7.560  10.682   5.978
78129SOL     OW36225  12.711   3.703   2.994
78129SOL    HW136226  12.648   3.639   2.960
78129SOL    HW236227  12.789   3.690   2.940
78130SOL     OW36228   3.577  14.468  10.848
78130SOL    HW136229   3.502  14.416  10.822
78130SOL    HW236230   3.576  14.544  10.791
78131SOL     OW36231  14.240  10.144  12.508
78131SOL    HW136232  14.259  10.197  12.430
78131SOL    HW236233  14.153  10.173  12.536
78132SOL     OW36234   8.834   9.072   4.869
78132SOL    HW136235   8.899   9.018   4.824
78132SOL    HW236236   8.760   9.075   4.809
78133SOL     OW36237  10.049  14.565   3.791
78133SOL    HW136238   9.968  14.615   3.802
78133SOL    HW236239  10.109  14.626   3.747
78134SOL     OW36240   3.373   2.286   0.727
78134SOL    HW136241   3.281   2.279   0.752
78134SOL    HW236242   3.415   2.210   0.766
78135SOL     OW36243   0.772   9.978   0.771
78135SOL    HW136244   0.692   9.944   0.730
78135SOL    HW236245   0.753   9.976   0.865
78136SOL     OW36246   5.187   6.170   4.130
78136SOL    HW136247   5.195   6.264   4.144
78136SOL    HW236248   5.096   6.151   4.154
78137SOL     OW36249   9.730   2.394  10.266
78137SOL    HW136250   9.824   2.413  10.259
78137SOL    HW236251   9.718   2.364  10.356
78138SOL     OW36252  13.992   0.239   5.058
78138SOL    HW136253  13.977   0.269   4.969
78138SOL    HW236254  13.979   0.144   5.054
78139SOL     OW36255  11.665  12.607  12.731
78139SOL    HW136256  11.589  12.585  12.677
78139SOL    HW236257  11.737  12.557  12.693
78140SOL     OW36258  13.077   6.457  11.815
78140SOL    HW136259  12.995   6.422  11.849
78140SOL    HW236260  13.051   6.531  11.760
78141SOL     OW36261  14.820  14.134   6.304
78141SOL    HW136262  14.804  14.133   6.210
78141SOL    HW236263  14.734  14.120   6.343
78142SOL     OW36264   0.066   3.023  13.128
78142SOL    HW136265   0.107   3.085  13.188
78142SOL    HW236266  14.867   2.998  13.171
78143SOL     OW36267   1.842   4.613   3.511
78143SOL    HW136268   1.831   4.706   3.490
78143SOL    HW236269   1.936   4.598   3.504
78144SOL     OW36270  11.259  10.955  10.008
78144SOL    HW136271  11.232  10.936   9.918
78144SOL    HW236272  11.326  10.890  10.026
78145SOL     OW36273   1.777  13.155   7.981
78145SOL    HW136274   1.791  13.250   7.984
78145SOL    HW236275   1.865  13.117   7.980
78146SOL     OW36276  12.095   8.308  10.784
78146SOL    HW136277  12.112   8.218  10.813
78146SOL    HW236278  12.177   8.335  10.742
78147SOL     OW36279  10.753   8.555   3.298
78147SOL    HW136280  10.687   8.620   3.324
78147SOL    HW236281  10.707   8.471   3.302
78148SOL     OW36282  14.301   4.865  12.288
78148SOL    HW136283  14.297   4.807  12.213
78148SOL    HW236284  14.328   4.950  12.252
78149SOL     OW36285   0.252   5.565   6.817
78149SOL    HW136286   0.288   5.534   6.734
78149SOL    HW236287   0.314   5.631   6.848
78150SOL     OW36288   1.039   9.917   8.192
78150SOL    HW136289   1.052   9.826   8.164
78150SOL    HW236290   1.088   9.969   8.130
78151SOL     OW36291   6.146   3.124   1.048
78151SOL    HW136292   6.056   3.155   1.043
78151SOL    HW236293   6.142   3.032   1.020
78152SOL     OW36294   0.256  11.995   1.553
78152SOL    HW136295   0.327  11.936   1.579
78152SOL    HW236296   0.266  12.071   1.610
78153SOL     OW36297   6.980   5.618  13.990
78153SOL    HW136298   7.007   5.643  14.079
78153SOL    HW236299   6.950   5.699  13.950
78154SOL     OW36300   0.553   1.026   3.737
78154SOL    HW136301   0.613   0.973   3.789
78154SOL    HW236302   0.608   1.093   3.697
78155SOL     OW36303   9.555  12.163   8.716
78155SOL    HW136304   9.523  12.217   8.789
78155SOL    HW236305   9.491  12.093   8.707
78156SOL     OW36306   4.701   5.110   5.881
78156SOL    HW136307   4.744   5.075   5.959
78156SOL    HW236308   4.774   5.132   5.822
78157SOL     OW36309   5.698   4.362  12.313
78157SOL    HW136310   5.693   4.438  12.370
78157SOL    HW236311   5.693   4.397  12.224
78158SOL     OW36312  11.899  10.833   7.523
78158SOL    HW136313  11.857  10.772   7.463
78158SOL    HW236314  11.880  10.799   7.610
78159SOL     OW36315  12.035  14.219   5.700
78159SOL    HW136316  12.124  14.193   5.677
78159SOL    HW236317  12.012  14.163   5.774
78160SOL     OW36318   1.139   5.217  11.905
78160SOL    HW136319   1.127   5.194  11.998
78160SOL    HW236320   1.050   5.212  11.868
78161SOL     OW36321   1.091   0.882   7.603
78161SOL    HW136322   1.026   0.812   7.600
78161SOL    HW236323   1.174   0.837   7.621
78162SOL     OW36324   7.141  13.303  11.660
78162SOL    HW136325   7.176  13.333  11.576
78162SOL    HW236326   7.155  13.377  11.719
78163SOL     OW36327  12.191   4.491  10.785
78163SOL    HW136328  12.243   4.556  10.833
78163SOL    HW236329  12.256   4.431  10.748
78164SOL     OW36330   0.270   4.794  13.112
78164SOL    HW136331   0.299   4.707  13.085
78164SOL    HW236332   0.327   4.817  13.185
78165SOL     OW36333  14.653   6.056   0.600
78165SOL    HW136334  14.576   6.092   0.642
78165SOL    HW236335  14.675   5.978   0.652
78166SOL     OW36336   2.833  14.801   1.629
78166SOL    HW136337   2.861   0.010   1.615
78166SOL    HW236338   2.742  14.799   1.599
78167SOL     OW36339   2.098   3.803   9.543
78167SOL    HW136340   2.113   3.755   9.461
78167SOL    HW236341   2.116   3.894   9.521
78168SOL     OW36342  11.023  12.578  12.546
78168SOL    HW136343  10.941  12.618  12.574
78168SOL    HW236344  11.078  12.578  12.625
78169SOL     OW36345  13.475   6.489   4.827
78169SOL    HW136346  13.478   6.573   4.780
78169SOL    HW236347  13.560   6.449   4.810
78170SOL     OW36348   2.717  10.514   0.952
78170SOL    HW136349   2.809  10.502   0.975
78170SOL    HW236350   2.685  10.425   0.938
78171SOL     OW36351   7.668  13.815   4.945
78171SOL    HW136352   7.638  13.861   5.023
78171SOL    HW236353   7.763  13.823   4.948
78172SOL     OW36354   7.969  11.645  13.413
78172SOL    HW136355   7.976  11.628  13.319
78172SOL    HW236356   7.914  11.574  13.446
78173SOL     OW36357   8.633  13.922   3.413
78173SOL    HW136358   8.600  13.832   3.406
78173SOL    HW236359   8.582  13.961   3.484
78174SOL     OW36360   2.784   5.541   7.630
78174SOL    HW136361   2.772   5.625   7.675
78174SOL    HW236362   2.783   5.476   7.700
78175SOL     OW36363   7.060   8.454   0.703
78175SOL    HW136364   7.017   8.519   0.760
78175SOL    HW236365   7.151   8.453   0.732
78176SOL     OW36366   4.798   2.895   7.151
78176SOL    HW136367   4.742   2.972   7.156
78176SOL    HW236368   4.855   2.911   7.076
78177SOL     OW36369   1.276  10.047   9.748
78177SOL    HW136370   1.303  10.038   9.656
78177SOL    HW236371   1.182  10.030   9.747
78178SOL     OW36372   7.850   5.978  14.465
78178SOL    HW136373   7.913   5.940  14.526
78178SOL    HW236374   7.902   6.036  14.409
78179SOL     OW36375   2.366  10.997   7.780
78179SOL    HW136376   2.418  10.921   7.754
78179SOL    HW236377   2.303  10.963   7.843
78180SOL     OW36378  14.437   2.406   9.292
78180SOL    HW136379  14.483   2.355   9.225
78180SOL    HW236380  14.458   2.362   9.374
78181SOL     OW36381  10.843  10.117  13.087
78181SOL    HW136382  10.919  10.146  13.138
78181SOL    HW236383  10.830  10.185  13.022
78182SOL     OW36384   4.447   3.425   4.284
78182SOL    HW136385   4.531   3.391   4.313
78182SOL    HW236386   4.442   3.513   4.323
78183SOL     OW36387   2.658   8.118   4.091
78183SOL    HW136388   2.605   8.055   4.140
78183SOL    HW236389   2.622   8.203   4.116
78184SOL     OW36390   1.317   8.799  11.012
78184SOL    HW136391   1.388   8.773  10.953
78184SOL    HW236392   1.302   8.722  11.066
78185SOL     OW36393   2.083   5.073   6.556
78185SOL    HW136394   2.096   4.980   6.574
78185SOL    HW236395   2.089   5.115   6.642
78186SOL     OW36396   8.350  11.418   3.436
78186SOL    HW136397   8.366  11.344   3.377
78186SOL    HW236398   8.339  11.378   3.522
78187SOL     OW36399  12.661   7.653   3.079
78187SOL    HW136400  12.719   7.595   3.128
78187SOL    HW236401  12.718   7.699   3.018
78188SOL     OW36402  13.077   9.814   8.214
78188SOL    HW136403  13.157   9.800   8.164
78188SOL    HW236404  13.075   9.909   8.230
78189SOL     OW36405   1.452  14.169   5.798
78189SOL    HW136406   1.512  14.196   5.729
78189SOL    HW236407   1.470  14.229   5.871
78190SOL     OW36408  10.615  12.468   0.051
78190SOL    HW136409  10.679  12.472   0.122
78190SOL    HW236410  10.543  12.415   0.086
78191SOL     OW36411   3.083  14.417   1.383
78191SOL    HW136412   3.065  14.365   1.304
78191SOL    HW236413   3.178  14.423   1.386
78192SOL     OW36414   9.985   0.152  10.794
78192SOL    HW136415   9.956   0.242  10.775
78192SOL    HW236416   9.936   0.127  10.872
78193SOL     OW36417   3.951   0.942   7.790
78193SOL    HW136418   3.915   1.029   7.809
78193SOL    HW236419   3.879   0.896   7.747
78194SOL     OW36420  10.403   8.357   8.530
78194SOL    HW136421  10.489   8.373   8.492
78194SOL    HW236422  10.417   8.365   8.625
78195SOL     OW36423  10.774   5.316  12.727
78195SOL    HW136424  10.809   5.228  12.742
78195SOL    HW236425  10.773   5.356  12.814
78196SOL     OW36426  12.319   1.534   8.337
78196SOL    HW136427  12.231   1.518   8.303
78196SOL    HW236428  12.308   1.604   8.401
78197SOL     OW36429   5.654   8.649   8.647
78197SOL    HW136430   5.685   8.716   8.586
78197SOL    HW236431   5.667   8.566   8.601
78198SOL     OW36432   1.956   8.500  12.913
78198SOL    HW136433   2.046   8.527  12.929
78198SOL    HW236434   1.962   8.411  12.880
78199SOL     OW36435   8.932   7.489  12.331
78199SOL    HW136436   8.873   7.459  12.262
78199SOL    HW236437   9.014   7.442  12.316
78200SOL     OW36438  13.180  12.608   3.788
78200SOL    HW136439  13.187  12.611   3.692
78200SOL    HW236440  13.255  12.555   3.815
78201SOL     OW36441  10.930   8.520  14.648
78201SOL    HW136442  10.938   8.466  14.726
78201SOL    HW236443  10.929   8.610  14.681
78202SOL     OW36444   4.964   0.212   4.125
78202SOL    HW136445   4.899   0.142   4.138
78202SOL    HW236446   4.992   0.203   4.034
78203SOL     OW36447  13.275  14.144   7.887
78203SOL    HW136448  13.370  14.148   7.902
78203SOL    HW236449  13.246  14.067   7.935
78204SOL     OW36450   9.727   0.981  10.895
78204SOL    HW136451   9.707   0.986  10.801
78204SOL    HW236452   9.769   0.895  10.906
78205SOL     OW36453   9.127   1.054   7.700
78205SOL    HW136454   9.033   1.038   7.701
78205SOL    HW236455   9.164   0.976   7.660
78206SOL     OW36456  12.947   2.061   1.317
78206SOL    HW136457  12.876   2.028   1.262
78206SOL    HW236458  13.019   2.076   1.255
78207SOL     OW36459   9.443   9.553  12.584
78207SOL    HW136460   9.378   9.588  12.646
78207SOL    HW236461   9.517   9.613  12.592
78208SOL     OW36462   1.972  13.055   0.005
78208SOL    HW136463   2.008  13.072  14.800
78208SOL    HW236464   1.917  13.131   0.023
78209SOL     OW36465   6.501  11.973   1.068
78209SOL    HW136466   6.526  11.999   1.157
78209SOL    HW236467   6.440  11.901   1.080
78210SOL     OW36468   8.376  14.185   3.735
78210SOL    HW136469   8.381  14.278   3.714
78210SOL    HW236470   8.397  14.179   3.828
78211SOL     OW36471   8.607   4.194  10.025
78211SOL    HW136472   8.698   4.177  10.001
78211SOL    HW236473   8.555   4.153   9.955
78212SOL     OW36474  11.602  11.014  12.170
78212SOL    HW136475  11.589  10.926  12.135
78212SOL    HW236476  11.646  11.000  12.254
78213SOL     OW36477   7.925   2.683  14.061
78213SOL    HW136478   7.921   2.746  13.989
78213SOL    HW236479   7.910   2.598  14.020
78214SOL     OW36480   3.713  10.023   6.560
78214SOL    HW136481   3.749  10.108   6.535
78214SOL    HW236482   3.717  10.021   6.655
78215SOL     OW36483  13.021  12.631   5.302
78215SOL    HW136484  12.955  12.564   5.320
78215SOL    HW236485  13.073  12.594   5.231
78216SOL     OW36486   2.464  11.735   6.323
78216SOL    HW136487   2.371  11.720   6.308
78216SOL    HW236488   2.502  11.744   6.236
78217SOL     OW36489   2.862   8.714  13.437
78217SOL    HW136490   2.787   8.692  13.492
78217SOL    HW236491   2.937   8.676  13.482
78218SOL     OW36492   6.193  14.352   7.067
78218SOL    HW136493   6.263  14.377   7.127
78218SOL    HW236494   6.117  14.403   7.097
78219SOL     OW36495   4.690   3.329   2.249
78219SOL    HW136496   4.775   3.314   2.209
78219SOL    HW236497   4.637   3.370   2.181
78220SOL     OW36498   1.820   9.538   2.433
78220SOL    HW136499   1.816   9.557   2.339
78220SOL    HW236500   1.801   9.445   2.439
78221SOL     OW36501   6.301   8.595   3.334
78221SOL    HW136502   6.217   8.561   3.304
78221SOL    HW236503   6.365   8.557   3.274
78222SOL     OW36504   8.614   7.681  11.242
78222SOL    HW136505   8.625   7.700  11.148
78222SOL    HW236506   8.521   7.696  11.258
78223SOL     OW36507   0.449  10.970  12.408
78223SOL    HW136508   0.401  10.951  12.489
78223SOL    HW236509   0.455  10.885  12.364
78224SOL     OW36510  11.965  10.346  13.019
78224SOL    HW136511  12.039  10.292  13.047
78224SOL    HW236512  11.994  10.384  12.936
78225SOL     OW36513  10.427   5.418   9.732
78225SOL    HW136514  10.470   5.339   9.765
78225SOL    HW236515  10.463   5.489   9.785
78226SOL     OW36516   8.250   9.773  10.741
78226SOL    HW136517   8.208   9.819  10.814
78226SOL    HW236518   8.258   9.682  10.771
78227SOL     OW36519   2.666   5.819   5.952
78227SOL    HW136520   2.632   5.905   5.928
78227SOL    HW236521   2.685   5.777   5.868
78228SOL     OW36522   2.071   2.729   7.300
78228SOL    HW136523   2.072   2.820   7.270
78228SOL    HW236524   2.023   2.682   7.233
78229SOL     OW36525   1.924   4.307   0.034
78229SOL    HW136526   1.895   4.234   0.088
78229SOL    HW236527   1.845   4.359   0.019
78230SOL     OW36528  11.714   9.965   0.747
78230SOL    HW136529  11.689  10.021   0.819
78230SOL    HW236530  11.766   9.895   0.787
78231SOL     OW36531   8.977   6.984   3.231
78231SOL    HW136532   9.043   7.022   3.174
78231SOL    HW236533   8.959   6.898   3.193
78232SOL     OW36534  12.936   6.103   2.759
78232SOL    HW136535  13.025   6.086   2.791
78232SOL    HW236536  12.909   6.182   2.807
78233SOL     OW36537  11.650   3.626   4.099
78233SOL    HW136538  11.737   3.637   4.061
78233SOL    HW236539  11.655   3.541   4.144
78234SOL     OW36540   5.007   6.786  13.830
78234SOL    HW136541   5.020   6.795  13.735
78234SOL    HW236542   4.940   6.718  13.839
78235SOL     OW36543   9.379   8.375   2.890
78235SOL    HW136544   9.408   8.411   2.806
78235SOL    HW236545   9.396   8.281   2.882
78236SOL     OW36546  10.241   5.951  13.654
78236SOL    HW136547  10.257   5.911  13.568
78236SOL    HW236548  10.294   6.030  13.653
78237SOL     OW36549   9.431  10.108   5.265
78237SOL    HW136550   9.381  10.186   5.289
78237SOL    HW236551   9.364  10.039   5.253
78238SOL     OW36552  10.265   2.679   6.139
78238SOL    HW136553  10.351   2.681   6.096
78238SOL    HW236554  10.207   2.640   6.074
78239SOL     OW36555  13.801   6.336   1.208
78239SOL    HW136556  13.843   6.283   1.140
78239SOL    HW236557  13.756   6.406   1.160
78240SOL     OW36558   7.658  10.709  11.414
78240SOL    HW136559   7.617  10.626  11.390
78240SOL    HW236560   7.618  10.774  11.356
78241SOL     OW36561   5.667   6.013  14.545
78241SOL    HW136562   5.670   6.101  14.583
78241SOL    HW236563   5.711   6.022  14.460
78242SOL     OW36564  14.349   2.511  11.489
78242SOL    HW136565  14.313   2.576  11.550
78242SOL    HW236566  14.336   2.427  11.532
78243SOL     OW36567   4.899   0.657   9.238
78243SOL    HW136568   4.940   0.743   9.243
78243SOL    HW236569   4.807   0.675   9.223
78244SOL     OW36570   7.947   9.860  11.762
78244SOL    HW136571   7.883   9.803  11.804
78244SOL    HW236572   8.023   9.804  11.748
78245SOL     OW36573   8.516  13.453   5.460
78245SOL    HW136574   8.516  13.529   5.518
78245SOL    HW236575   8.608  13.440   5.437
78246SOL     OW36576   1.399   7.077   6.246
78246SOL    HW136577   1.372   7.154   6.196
78246SOL    HW236578   1.476   7.105   6.295
78247SOL     OW36579   4.491   9.482   8.377
78247SOL    HW136580   4.438   9.538   8.433
78247SOL    HW236581   4.479   9.517   8.289
78248SOL     OW36582  13.685   0.707  11.392
78248SOL    HW136583  13.600   0.747  11.375
78248SOL    HW236584  13.690   0.701  11.488
78249SOL     OW36585   8.287   5.797   0.346
78249SOL    HW136586   8.300   5.835   0.259
78249SOL    HW236587   8.263   5.871   0.401
78250SOL     OW36588  14.684  10.460  12.349
78250SOL    HW136589  14.658  10.495  12.264
78250SOL    HW236590  14.771  10.496  12.363
78251SOL     OW36591  13.963   1.792   1.067
78251SOL    HW136592  13.977   1.869   1.122
78251SOL    HW236593  13.985   1.821   0.978
78252SOL     OW36594   5.917  11.315  11.888
78252SOL    HW136595   5.870  11.232  11.882
78252SOL    HW236596   5.971  11.318  11.809
78253SOL     OW36597   6.297   1.069   9.544
78253SOL    HW136598   6.279   1.143   9.485
78253SOL    HW236599   6.372   1.098   9.597
78254SOL     OW36600  11.991  13.689  13.626
78254SOL    HW136601  11.958  13.774  13.599
78254SOL    HW236602  12.069  13.708  13.678
78255SOL     OW36603   5.794   3.337   7.790
78255SOL    HW136604   5.745   3.281   7.730
78255SOL    HW236605   5.885   3.328   7.763
78256SOL     OW36606  12.008   7.239   0.020
78256SOL    HW136607  12.037   7.225  14.811
78256SOL    HW236608  12.006   7.334   0.029
78257SOL     OW36609   1.342  11.058   9.703
78257SOL    HW136610   1.278  11.097   9.764
78257SOL    HW236611   1.296  11.055   9.619
78258SOL     OW36612  14.711   8.720   1.499
78258SOL    HW136613  14.788   8.726   1.443
78258SOL    HW236614  14.639   8.753   1.445
78259SOL     OW36615  13.618   6.996   4.539
78259SOL    HW136616  13.625   7.078   4.489
78259SOL    HW236617  13.653   7.018   4.625
78260SOL     OW36618  12.219   4.486   4.575
78260SOL    HW136619  12.238   4.545   4.648
78260SOL    HW236620  12.141   4.523   4.533
78261SOL     OW36621   1.190   0.688  14.366
78261SOL    HW136622   1.147   0.683  14.281
78261SOL    HW236623   1.280   0.663  14.350
78262SOL     OW36624   9.747   4.818   0.053
78262SOL    HW136625   9.839   4.825   0.077
78262SOL    HW236626   9.714   4.745   0.105
78263SOL     OW36627  10.119  11.623   0.197
78263SOL    HW136628  10.090  11.695   0.253
78263SOL    HW236629  10.040  11.593   0.153
78264SOL     OW36630  10.745  10.166   4.028
78264SOL    HW136631  10.716  10.239   3.973
78264SOL    HW236632  10.721  10.191   4.117
78265SOL     OW36633   6.649   2.407   5.624
78265SOL    HW136634   6.609   2.477   5.676
78265SOL    HW236635   6.595   2.403   5.545
78266SOL     OW36636   2.445  12.453   9.175
78266SOL    HW136637   2.421  12.392   9.245
78266SOL    HW236638   2.535  12.478   9.196
78267SOL     OW36639   2.938   2.284   5.049
78267SOL    HW136640   2.974   2.281   4.961
78267SOL    HW236641   2.844   2.268   5.037
78268SOL     OW36642   7.238   7.474   2.392
78268SOL    HW136643   7.203   7.449   2.306
78268SOL    HW236644   7.161   7.487   2.446
78269SOL     OW36645   9.545  11.766   6.333
78269SOL    HW136646   9.521  11.749   6.424
78269SOL    HW236647   9.521  11.857   6.318
78270SOL     OW36648   2.815   6.092   8.630
78270SOL    HW136649   2.903   6.059   8.609
78270SOL    HW236650   2.809   6.084   8.726
78271SOL     OW36651  10.768   7.289   0.735
78271SOL    HW136652  10.797   7.246   0.654
78271SOL    HW236653  10.692   7.341   0.709
78272SOL     OW36654  13.875   7.788  13.854
78272SOL    HW136655  13.785   7.759  13.869
78272SOL    HW236656  13.881   7.873  13.898
78273SOL     OW36657   0.339   1.015   4.280
78273SOL    HW136658   0.254   1.021   4.236
78273SOL    HW236659   0.391   1.084   4.239
78274SOL     OW36660  10.509   0.895   9.725
78274SOL    HW136661  10.574   0.839   9.684
78274SOL    HW236662  10.471   0.842   9.794
78275SOL     OW36663   2.780   6.711   8.142
78275SOL    HW136664   2.854   6.771   8.131
78275SOL    HW236665   2.758   6.717   8.235
78276SOL     OW36666   2.224  11.746  12.632
78276SOL    HW136667   2.143  11.762  12.682
78276SOL    HW236668   2.199  11.762  12.541
78277SOL     OW36669  12.634  10.208   9.070
78277SOL    HW136670  12.727  10.230   9.072
78277SOL    HW236671  12.631  10.114   9.056
78278SOL     OW36672  14.037   8.665   3.792
78278SOL    HW136673  13.967   8.664   3.727
78278SOL    HW236674  14.020   8.743   3.845
78279SOL     OW36675   0.923  13.592   3.769
78279SOL    HW136676   0.918  13.686   3.757
78279SOL    HW236677   0.832  13.562   3.760
78280SOL     OW36678   5.338   9.164  11.635
78280SOL    HW136679   5.355   9.086  11.687
78280SOL    HW236680   5.369   9.143  11.547
78281SOL     OW36681   5.925  14.261   6.555
78281SOL    HW136682   5.835  14.250   6.586
78281SOL    HW236683   5.979  14.255   6.633
78282SOL     OW36684   5.677  10.814  14.199
78282SOL    HW136685   5.769  10.797  14.219
78282SOL    HW236686   5.677  10.845  14.108
78283SOL     OW36687  12.274   0.001  13.986
78283SOL    HW136688  12.362  14.877  14.023
78283SOL    HW236689  12.241   0.086  14.015
78284SOL     OW36690   0.994   4.587  14.697
78284SOL    HW136691   1.024   4.497  14.686
78284SOL    HW236692   1.020   4.611  14.786
78285SOL     OW36693   0.939   6.111   2.309
78285SOL    HW136694   1.005   6.056   2.350
78285SOL    HW236695   0.866   6.110   2.371
78286SOL     OW36696  12.135   9.303   7.638
78286SOL    HW136697  12.125   9.209   7.654
78286SOL    HW236698  12.227   9.312   7.610
78287SOL     OW36699   6.453   2.790  13.981
78287SOL    HW136700   6.515   2.818  13.914
78287SOL    HW236701   6.507   2.762  14.054
78288SOL     OW36702   6.024  14.468   0.544
78288SOL    HW136703   6.048  14.490   0.634
78288SOL    HW236704   5.951  14.407   0.552
78289SOL     OW36705   5.548  14.154   3.641
78289SOL    HW136706   5.587  14.230   3.599
78289SOL    HW236707   5.491  14.115   3.574
78290SOL     OW36708  12.860  11.048   5.506
78290SOL    HW136709  12.864  10.966   5.457
78290SOL    HW236710  12.897  11.114   5.447
78291SOL     OW36711   2.209   9.163   7.784
78291SOL    HW136712   2.296   9.133   7.759
78291SOL    HW236713   2.200   9.248   7.741
78292SOL     OW36714  12.611   9.674  12.114
78292SOL    HW136715  12.589   9.761  12.081
78292SOL    HW236716  12.532   9.622  12.097
78293SOL     OW36717  12.780  10.215  10.343
78293SOL    HW136718  12.712  10.283  10.351
78293SOL    HW236719  12.735  10.142  10.299
78294SOL     OW36720  12.335  13.276   9.632
78294SOL    HW136721  12.352  13.204   9.572
78294SOL    HW236722  12.404  13.268   9.698
78295SOL     OW36723  11.206  12.544  11.213
78295SOL    HW136724  11.184  12.593  11.134
78295SOL    HW236725  11.268  12.477  11.185
78296SOL     OW36726   6.912  13.032  14.626
78296SOL    HW136727   6.893  12.961  14.564
78296SOL    HW236728   7.004  13.020  14.648
78297SOL     OW36729  13.793   9.896   5.740
78297SOL    HW136730  13.859   9.828   5.760
78297SOL    HW236731  13.713   9.864   5.781
78298SOL     OW36732   7.623  12.192  10.233
78298SOL    HW136733   7.681  12.174  10.307
78298SOL    HW236734   7.582  12.107  10.214
78299SOL     OW36735   0.580   3.221   6.327
78299SOL    HW136736   0.541   3.157   6.386
78299SOL    HW236737   0.525   3.219   6.249
78300SOL     OW36738   4.591   2.652   8.470
78300SOL    HW136739   4.519   2.706   8.439
78300SOL    HW236740   4.578   2.567   8.428
78301SOL     OW36741   6.375   3.646   5.785
78301SOL    HW136742   6.408   3.589   5.855
78301SOL    HW236743   6.452   3.664   5.731
78302SOL     OW36744  10.138   8.774  12.375
78302SOL    HW136745  10.048   8.794  12.401
78302SOL    HW236746  10.136   8.775  12.280
78303SOL     OW36747   8.034  11.492  10.840
78303SOL    HW136748   8.100  11.557  10.818
78303SOL    HW236749   7.950  11.537  10.826
78304SOL     OW36750   1.536   6.602   2.680
78304SOL    HW136751   1.499   6.656   2.610
78304SOL    HW236752   1.523   6.652   2.760
78305SOL     OW36753   9.031   1.269   9.295
78305SOL    HW136754   9.013   1.220   9.214
78305SOL    HW236755   8.948   1.314   9.314
78306SOL     OW36756   0.670   1.494   9.304
78306SOL    HW136757   0.707   1.437   9.237
78306SOL    HW236758   0.704   1.459   9.386
78307SOL     OW36759  11.132  14.529   1.420
78307SOL    HW136760  11.094  14.613   1.446
78307SOL    HW236761  11.062  14.483   1.375
78308SOL     OW36762   8.017  14.137  11.009
78308SOL    HW136763   8.068  14.167  10.934
78308SOL    HW236764   8.056  14.053  11.033
78309SOL     OW36765   1.745   6.935   8.813
78309SOL    HW136766   1.834   6.909   8.840
78309SOL    HW236767   1.697   6.943   8.896
78310SOL     OW36768   4.344   0.593   6.608
78310SOL    HW136769   4.261   0.636   6.629
78310SOL    HW236770   4.410   0.662   6.613
78311SOL     OW36771   9.192  14.760   1.907
78311SOL    HW136772   9.141  14.835   1.877
78311SOL    HW236773   9.200  14.703   1.831
78312SOL     OW36774  10.303   7.550   2.348
78312SOL    HW136775  10.285   7.472   2.401
78312SOL    HW236776  10.379   7.526   2.295
78313SOL     OW36777  13.527  10.168   0.689
78313SOL    HW136778  13.484  10.246   0.656
78313SOL    HW236779  13.459  10.101   0.691
78314SOL     OW36780  11.220   4.879   1.538
78314SOL    HW136781  11.251   4.795   1.503
78314SOL    HW236782  11.232   4.873   1.632
78315SOL     OW36783  13.129   1.222  13.785
78315SOL    HW136784  13.068   1.152  13.758
78315SOL    HW236785  13.179   1.184  13.856
78316SOL     OW36786   4.995   7.298   1.867
78316SOL    HW136787   4.982   7.288   1.961
78316SOL    HW236788   4.908   7.318   1.833
78317SOL     OW36789   3.701   6.102   4.984
78317SOL    HW136790   3.742   6.158   5.051
78317SOL    HW236791   3.774   6.055   4.945
78318SOL     OW36792  14.712  14.873  12.528
78318SOL    HW136793  14.648   0.053  12.493
78318SOL    HW236794  14.688  14.789  12.488
78319SOL     OW36795  11.288   8.434   4.090
78319SOL    HW136796  11.200   8.420   4.124
78319SOL    HW236797  11.325   8.503   4.146
78320SOL     OW36798   9.957   9.491   0.910
78320SOL    HW136799   9.873   9.505   0.953
78320SOL    HW236800   9.962   9.561   0.844
78321SOL     OW36801   7.016  13.113   8.310
78321SOL    HW136802   6.959  13.040   8.338
78321SOL    HW236803   7.023  13.168   8.388
78322SOL     OW36804  12.013  12.855   9.213
78322SOL    HW136805  11.918  12.853   9.224
78322SOL    HW236806  12.033  12.946   9.192
78323SOL     OW36807   7.292   5.106   1.113
78323SOL    HW136808   7.319   5.198   1.112
78323SOL    HW236809   7.316   5.074   1.026
78324SOL     OW36810  13.806   8.280   9.937
78324SOL    HW136811  13.763   8.350   9.987
78324SOL    HW236812  13.892   8.272   9.977
78325SOL     OW36813  13.256  11.228   7.340
78325SOL    HW136814  13.346  11.240   7.372
78325SOL    HW236815  13.220  11.316   7.333
78326SOL     OW36816  11.989   3.368   0.291
78326SOL    HW136817  11.976   3.460   0.266
78326SOL    HW236818  12.081   3.363   0.317
78327SOL     OW36819   5.927  14.640   7.495
78327SOL    HW136820   5.880  14.556   7.498
78327SOL    HW236821   5.866  14.702   7.534
78328SOL     OW36822   8.855   0.278   4.620
78328SOL    HW136823   8.774   0.247   4.580
78328SOL    HW236824   8.829   0.353   4.673
78329SOL     OW36825   3.471  14.060   8.695
78329SOL    HW136826   3.419  14.015   8.762
78329SOL    HW236827   3.559  14.026   8.707
78330SOL     OW36828  14.440   6.902   6.311
78330SOL    HW136829  14.415   6.832   6.372
78330SOL    HW236830  14.420   6.983   6.358
78331SOL     OW36831   4.975   0.084  11.586
78331SOL    HW136832   4.923   0.027  11.642
78331SOL    HW236833   5.044   0.118  11.643
78332SOL     OW36834  12.012  11.759  13.021
78332SOL    HW136835  11.947  11.688  13.019
78332SOL    HW236836  12.095  11.715  13.038
78333SOL     OW36837  13.182   1.921  12.534
78333SOL    HW136838  13.124   1.992  12.561
78333SOL    HW236839  13.217   1.886  12.615
78334SOL     OW36840  13.369   2.916  13.398
78334SOL    HW136841  13.287   2.934  13.444
78334SOL    HW236842  13.437   2.948  13.458
78335SOL     OW36843   7.406   1.500  10.348
78335SOL    HW136844   7.394   1.431  10.284
78335SOL    HW236845   7.480   1.471  10.402
78336SOL     OW36846   5.061  10.273   6.025
78336SOL    HW136847   5.020  10.320   6.097
78336SOL    HW236848   5.147  10.313   6.016
78337SOL     OW36849  13.696   8.805   3.978
78337SOL    HW136850  13.774   8.857   3.958
78337SOL    HW236851  13.730   8.724   4.015
78338SOL     OW36852   4.808   3.060   5.858
78338SOL    HW136853   4.818   2.977   5.813
78338SOL    HW236854   4.748   3.041   5.930
78339SOL     OW36855  13.918   0.120   6.716
78339SOL    HW136856  13.931   0.060   6.643
78339SOL    HW236857  13.826   0.111   6.738
78340SOL     OW36858   0.875   8.037   9.415
78340SOL    HW136859   0.833   7.974   9.472
78340SOL    HW236860   0.821   8.116   9.422
78341SOL     OW36861  10.530  12.938   8.086
78341SOL    HW136862  10.533  12.857   8.138
78341SOL    HW236863  10.452  12.929   8.032
78342SOL     OW36864   1.972   9.825   2.955
78342SOL    HW136865   1.932   9.846   2.871
78342SOL    HW236866   1.899   9.811   3.014
78343SOL     OW36867   7.103   9.546   8.522
78343SOL    HW136868   7.197   9.528   8.526
78343SOL    HW236869   7.089   9.579   8.434
78344SOL     OW36870   9.846   4.230   0.503
78344SOL    HW136871   9.842   4.313   0.549
78344SOL    HW236872   9.831   4.164   0.571
78345SOL     OW36873   3.212  10.334   5.218
78345SOL    HW136874   3.266  10.279   5.275
78345SOL    HW236875   3.128  10.340   5.264
78346SOL     OW36876   1.981   8.103  14.785
78346SOL    HW136877   1.986   8.152  14.703
78346SOL    HW236878   1.907   8.043  14.774
78347SOL     OW36879   6.846   4.971  11.979
78347SOL    HW136880   6.844   4.877  11.997
78347SOL    HW236881   6.911   5.005  12.041
78348SOL     OW36882  14.304   6.223   9.484
78348SOL    HW136883  14.234   6.267   9.437
78348SOL    HW236884  14.262   6.188   9.563
78349SOL     OW36885   4.960  11.658   8.312
78349SOL    HW136886   4.879  11.652   8.261
78349SOL    HW236887   4.977  11.568   8.339
78350SOL     OW36888   1.844   0.563   9.702
78350SOL    HW136889   1.862   0.646   9.745
78350SOL    HW236890   1.923   0.510   9.717
78351SOL     OW36891   0.532   4.897  13.264
78351SOL    HW136892   0.518   4.840  13.340
78351SOL    HW236893   0.507   4.984  13.295
78352SOL     OW36894   4.728   7.293   7.192
78352SOL    HW136895   4.642   7.255   7.207
78352SOL    HW236896   4.713   7.361   7.126
78353SOL     OW36897   2.963   6.374  12.304
78353SOL    HW136898   2.882   6.339  12.341
78353SOL    HW236899   3.016   6.297  12.286
78354SOL     OW36900   8.304   3.047  10.852
78354SOL    HW136901   8.290   2.967  10.903
78354SOL    HW236902   8.385   3.084  10.888
78355SOL     OW36903  10.747   4.575   5.787
78355SOL    HW136904  10.816   4.566   5.721
78355SOL    HW236905  10.789   4.622   5.859
78356SOL     OW36906   9.914  13.669  12.359
78356SOL    HW136907  10.006  13.695  12.366
78356SOL    HW236908   9.892  13.683  12.267
78357SOL     OW36909  12.992  13.456   0.650
78357SOL    HW136910  13.081  13.488   0.662
78357SOL    HW236911  12.997  13.396   0.576
78358SOL     OW36912   4.718   0.101  13.890
78358SOL    HW136913   4.776   0.073  13.961
78358SOL    HW236914   4.761   0.072  13.810
78359SOL     OW36915   3.411   0.179  13.764
78359SOL    HW136916   3.449   0.234  13.695
78359SOL    HW236917   3.476   0.110  13.777
78360SOL     OW36918   4.896   7.246   6.574
78360SOL    HW136919   4.928   7.159   6.549
78360SOL    HW236920   4.809   7.230   6.611
78361SOL     OW36921   3.228   5.775  13.168
78361SOL    HW136922   3.142   5.816  13.160
78361SOL    HW236923   3.274   5.829  13.233
78362SOL     OW36924   1.235   2.570   8.211
78362SOL    HW136925   1.294   2.494   8.213
78362SOL    HW236926   1.232   2.595   8.119
78363SOL     OW36927   0.742  11.405   7.602
78363SOL    HW136928   0.827  11.386   7.642
78363SOL    HW236929   0.708  11.320   7.575
78364SOL     OW36930   1.328   2.125  14.163
78364SOL    HW136931   1.359   2.132  14.254
78364SOL    HW236932   1.312   2.032  14.150
78365SOL     OW36933  12.057  13.308   8.250
78365SOL    HW136934  12.025  13.371   8.315
78365SOL    HW236935  12.128  13.354   8.206
78366SOL     OW36936  10.252   2.353  14.043
78366SOL    HW136937  10.313   2.384  14.110
78366SOL    HW236938  10.185   2.422  14.038
78367SOL     OW36939  10.986   8.861   3.612
78367SOL    HW136940  10.975   8.848   3.706
78367SOL    HW236941  10.997   8.773   3.576
78368SOL     OW36942  10.708   3.233  10.141
78368SOL    HW136943  10.668   3.252  10.056
78368SOL    HW236944  10.678   3.303  10.199
78369SOL     OW36945   5.428  12.034   8.772
78369SOL    HW136946   5.449  11.990   8.854
78369SOL    HW236947   5.507  12.085   8.752
78370SOL     OW36948   8.300  10.014   8.678
78370SOL    HW136949   8.235  10.044   8.614
78370SOL    HW236950   8.284   9.920   8.686
78371SOL     OW36951   5.862   7.103   2.636
78371SOL    HW136952   5.841   7.064   2.721
78371SOL    HW236953   5.777   7.124   2.598
78372SOL     OW36954  14.427   1.565   8.623
78372SOL    HW136955  14.365   1.496   8.600
78372SOL    HW236956  14.441   1.554   8.717
78373SOL     OW36957   5.830   7.477   5.765
78373SOL    HW136958   5.893   7.409   5.739
78373SOL    HW236959   5.745   7.433   5.760
78374SOL     OW36960  11.518   3.987  10.382
78374SOL    HW136961  11.466   3.909  10.363
78374SOL    HW236962  11.603   3.969  10.342
78375SOL     OW36963   6.274  14.824   0.388
78375SOL    HW136964   6.317  14.760   0.445
78375SOL    HW236965   6.345  14.862   0.336
78376SOL     OW36966   1.379  10.582   3.866
78376SOL    HW136967   1.445  10.540   3.922
78376SOL    HW236968   1.304  10.522   3.869
78377SOL     OW36969   4.685   0.865   2.523
78377SOL    HW136970   4.779   0.874   2.541
78377SOL    HW236971   4.676   0.891   2.432
78378SOL     OW36972   4.709   3.216   5.601
78378SOL    HW136973   4.800   3.185   5.605
78378SOL    HW236974   4.693   3.254   5.688
78379SOL     OW36975  11.790   7.500   6.221
78379SOL    HW136976  11.852   7.538   6.283
78379SOL    HW236977  11.843   7.473   6.146
78380SOL     OW36978   3.149   5.970   3.909
78380SOL    HW136979   3.232   6.010   3.885
78380SOL    HW236980   3.171   5.910   3.981
78381SOL     OW36981   5.065  10.281   5.176
78381SOL    HW136982   5.150  10.237   5.169
78381SOL    HW236983   5.012  10.243   5.106
78382SOL     OW36984  13.311   0.262  10.299
78382SOL    HW136985  13.341   0.258  10.390
78382SOL    HW236986  13.256   0.185  10.289
78383SOL     OW36987   7.959  11.869   2.272
78383SOL    HW136988   7.941  11.834   2.359
78383SOL    HW236989   7.959  11.793   2.214
78384SOL     OW36990   8.501   5.426   3.165
78384SOL    HW136991   8.517   5.345   3.213
78384SOL    HW236992   8.589   5.464   3.152
78385SOL     OW36993   5.351   4.451   9.909
78385SOL    HW136994   5.377   4.441   9.817
78385SOL    HW236995   5.409   4.393   9.957
78386SOL     OW36996   4.720   7.321   9.892
78386SOL    HW136997   4.731   7.249   9.829
78386SOL    HW236998   4.626   7.342   9.887
78387SOL     OW36999   9.648  12.538   6.659
78387SOL    HW137000   9.722  12.598   6.665
78387SOL    HW237001   9.671  12.479   6.587
78388SOL     OW37002   6.684   9.171  11.860
78388SOL    HW137003   6.692   9.262  11.831
78388SOL    HW237004   6.635   9.177  11.942
78389SOL     OW37005  11.756   1.987   5.501
78389SOL    HW137006  11.693   1.977   5.430
78389SOL    HW237007  11.779   1.897   5.525
78390SOL     OW37008   3.010  13.415   6.830
78390SOL    HW137009   3.007  13.320   6.823
78390SOL    HW237010   3.102  13.435   6.849
78391SOL     OW37011  12.146  12.878  13.300
78391SOL    HW137012  12.189  12.950  13.346
78391SOL    HW237013  12.135  12.911  13.210
78392SOL     OW37014  13.281   4.205   3.295
78392SOL    HW137015  13.257   4.140   3.361
78392SOL    HW237016  13.283   4.156   3.213
78393SOL     OW37017  10.494   0.582  13.108
78393SOL    HW137018  10.543   0.501  13.101
78393SOL    HW237019  10.403   0.557  13.092
78394SOL     OW37020   8.584   1.683   7.737
78394SOL    HW137021   8.635   1.717   7.810
78394SOL    HW237022   8.631   1.713   7.659
78395SOL     OW37023   8.041  10.391   0.058
78395SOL    HW137024   7.966  10.374   0.116
78395SOL    HW237025   8.033  10.483   0.035
78396SOL     OW37026  14.258   3.974  13.027
78396SOL    HW137027  14.202   3.897  13.016
78396SOL    HW237028  14.338   3.940  13.067
78397SOL     OW37029   8.624  12.649   8.873
78397SOL    HW137030   8.585  12.571   8.912
78397SOL    HW237031   8.595  12.648   8.782
78398SOL     OW37032  11.496   6.903   6.534
78398SOL    HW137033  11.591   6.902   6.522
78398SOL    HW237034  11.464   6.963   6.466
78399SOL     OW37035   6.835   0.358   9.392
78399SOL    HW137036   6.842   0.419   9.466
78399SOL    HW237037   6.921   0.317   9.387
78400SOL     OW37038   7.612   3.960   5.074
78400SOL    HW137039   7.638   3.912   4.995
78400SOL    HW237040   7.556   3.899   5.121
78401SOL     OW37041  12.804   6.628   1.629
78401SOL    HW137042  12.799   6.534   1.609
78401SOL    HW237043  12.748   6.639   1.706
78402SOL     OW37044   8.501   1.227   8.830
78402SOL    HW137045   8.583   1.255   8.789
78402SOL    HW237046   8.515   1.135   8.850
78403SOL     OW37047   2.410   7.983  12.018
78403SOL    HW137048   2.450   7.901  12.046
78403SOL    HW237049   2.449   8.002  11.933
78404SOL     OW37050   8.369  14.874  10.860
78404SOL    HW137051   8.442  14.842  10.808
78404SOL    HW237052   8.405   0.001  10.948
78405SOL     OW37053  12.461  11.658  14.524
78405SOL    HW137054  12.419  11.697  14.448
78405SOL    HW237055  12.549  11.695  14.525
78406SOL     OW37056  14.298  12.032   2.982
78406SOL    HW137057  14.217  12.067   2.945
78406SOL    HW237058  14.274  11.946   3.016
78407SOL     OW37059  14.142   7.212  12.814
78407SOL    HW137060  14.114   7.200  12.905
78407SOL    HW237061  14.083   7.280  12.780
78408SOL     OW37062   1.057   6.645   7.888
78408SOL    HW137063   1.013   6.592   7.822
78408SOL    HW237064   1.150   6.634   7.869
78409SOL     OW37065   9.537   8.128   9.060
78409SOL    HW137066   9.516   8.214   9.096
78409SOL    HW237067   9.572   8.147   8.973
78410SOL     OW37068   1.609   8.567  12.378
78410SOL    HW137069   1.514   8.570  12.386
78410SOL    HW237070   1.626   8.523  12.295
78411SOL     OW37071  12.444   0.604   6.152
78411SOL    HW137072  12.430   0.611   6.246
78411SOL    HW237073  12.413   0.516   6.129
78412SOL     OW37074   9.719  13.687   2.638
78412SOL    HW137075   9.701  13.755   2.573
78412SOL    HW237076   9.730  13.735   2.720
78413SOL     OW37077  14.039   0.866  14.255
78413SOL    HW137078  14.048   0.940  14.315
78413SOL    HW237079  13.976   0.808  14.298
78414SOL     OW37080   6.362  14.842   8.649
78414SOL    HW137081   6.431  14.779   8.671
78414SOL    HW237082   6.392   0.001   8.568
78415SOL     OW37083   9.093   5.573   1.180
78415SOL    HW137084   9.144   5.521   1.119
78415SOL    HW237085   9.098   5.662   1.146
78416SOL     OW37086   7.252   7.901   8.368
78416SOL    HW137087   7.199   7.979   8.380
78416SOL    HW237088   7.235   7.874   8.278
78417SOL     OW37089  11.125   2.385  13.087
78417SOL    HW137090  11.190   2.403  13.019
78417SOL    HW237091  11.156   2.434  13.164
78418SOL     OW37092   9.274   9.749   7.592
78418SOL    HW137093   9.365   9.775   7.579
78418SOL    HW237094   9.225   9.801   7.528
78419SOL     OW37095   3.505  11.232   1.024
78419SOL    HW137096   3.572  11.177   0.983
78419SOL    HW237097   3.430  11.175   1.035
78420SOL     OW37098  12.497   5.778   6.246
78420SOL    HW137099  12.416   5.819   6.218
78420SOL    HW237100  12.537   5.843   6.305
78421SOL     OW37101  13.809   1.083   7.426
78421SOL    HW137102  13.740   1.051   7.483
78421SOL    HW237103  13.800   1.031   7.346
78422SOL     OW37104   5.955   2.740   4.246
78422SOL    HW137105   5.931   2.658   4.204
78422SOL    HW237106   5.991   2.793   4.175
78423SOL     OW37107  12.139   1.308   0.897
78423SOL    HW137108  12.047   1.284   0.912
78423SOL    HW237109  12.148   1.312   0.802
78424SOL     OW37110   6.836  10.419  12.949
78424SOL    HW137111   6.744  10.447  12.957
78424SOL    HW237112   6.883  10.499  12.926
78425SOL     OW37113   5.438  11.592   7.445
78425SOL    HW137114   5.533  11.597   7.459
78425SOL    HW237115   5.419  11.498   7.445
78426SOL     OW37116  13.015  11.411  13.457
78426SOL    HW137117  13.062  11.486  13.421
78426SOL    HW237118  13.035  11.339  13.397
78427SOL     OW37119   0.199  14.735   8.015
78427SOL    HW137120   0.262  14.729   8.087
78427SOL    HW237121   0.115  14.746   8.058
78428SOL     OW37122  10.025   2.328   9.451
78428SOL    HW137123   9.994   2.246   9.411
78428SOL    HW237124   9.957   2.392   9.429
78429SOL     OW37125   9.270   9.499  13.619
78429SOL    HW137126   9.289   9.411  13.587
78429SOL    HW237127   9.304   9.499  13.709
78430SOL     OW37128  14.296   2.736   4.348
78430SOL    HW137129  14.324   2.816   4.392
78430SOL    HW237130  14.236   2.766   4.280
78431SOL     OW37131   8.095  10.303   0.903
78431SOL    HW137132   8.060  10.214   0.915
78431SOL    HW237133   8.022  10.353   0.867
78432SOL     OW37134   6.543   1.705   5.232
78432SOL    HW137135   6.589   1.720   5.315
78432SOL    HW237136   6.458   1.746   5.244
78433SOL     OW37137  11.564   4.235   8.138
78433SOL    HW137138  11.549   4.306   8.201
78433SOL    HW237139  11.602   4.278   8.062
78434SOL     OW37140  11.924   2.356   5.847
78434SOL    HW137141  11.836   2.365   5.884
78434SOL    HW237142  11.910   2.307   5.765
78435SOL     OW37143   4.592  10.688  14.738
78435SOL    HW137144   4.589  10.782  14.717
78435SOL    HW237145   4.531  10.679  14.812
78436SOL     OW37146   2.294   0.562   9.310
78436SOL    HW137147   2.254   0.511   9.381
78436SOL    HW237148   2.275   0.512   9.231
78437SOL     OW37149   9.403  10.211  10.804
78437SOL    HW137150   9.394  10.135  10.745
78437SOL    HW237151   9.491  10.243  10.788
78438SOL     OW37152   4.217   4.057   8.900
78438SOL    HW137153   4.172   4.140   8.892
78438SOL    HW237154   4.309   4.078   8.883
78439SOL     OW37155  10.270   7.827   3.854
78439SOL    HW137156  10.341   7.883   3.888
78439SOL    HW237157  10.190   7.874   3.875
78440SOL     OW37158  12.867   0.389   4.167
78440SOL    HW137159  12.888   0.395   4.260
78440SOL    HW237160  12.781   0.346   4.165
78441SOL     OW37161   5.462   0.490   6.647
78441SOL    HW137162   5.493   0.581   6.648
78441SOL    HW237163   5.468   0.461   6.738
78442SOL     OW37164   5.351   3.680  10.089
78442SOL    HW137165   5.277   3.728  10.052
78442SOL    HW237166   5.422   3.744  10.092
78443SOL     OW37167   9.010   2.628  13.169
78443SOL    HW137168   8.994   2.599  13.259
78443SOL    HW237169   8.984   2.553  13.115
78444SOL     OW37170   6.182   8.805  12.238
78444SOL    HW137171   6.152   8.721  12.203
78444SOL    HW237172   6.266   8.786  12.279
78445SOL     OW37173   5.087   9.011  14.679
78445SOL    HW137174   5.113   9.079  14.740
78445SOL    HW237175   5.161   8.951  14.676
78446SOL     OW37176  10.521   5.309  12.602
78446SOL    HW137177  10.488   5.397  12.579
78446SOL    HW237178  10.603   5.326  12.649
78447SOL     OW37179   4.092   0.461  11.357
78447SOL    HW137180   4.090   0.365  11.358
78447SOL    HW237181   4.143   0.484  11.435
78448SOL     OW37182   8.640  12.484   7.098
78448SOL    HW137183   8.650  12.464   7.191
78448SOL    HW237184   8.549  12.462   7.078
78449SOL     OW37185   9.397   7.290   5.851
78449SOL    HW137186   9.356   7.307   5.936
78449SOL    HW237187   9.422   7.376   5.819
78450SOL     OW37188  14.790   5.754   7.038
78450SOL    HW137189  14.836   5.670   7.044
78450SOL    HW237190  14.823   5.793   6.957
78451SOL     OW37191   4.675   1.810  10.668
78451SOL    HW137192   4.622   1.863  10.609
78451SOL    HW237193   4.710   1.740  10.612
78452SOL     OW37194  12.351  11.113   9.312
78452SOL    HW137195  12.441  11.097   9.339
78452SOL    HW237196  12.318  11.178   9.374
78453SOL     OW37197  14.550   6.571   6.875
78453SOL    HW137198  14.626   6.599   6.824
78453SOL    HW237199  14.505   6.652   6.899
78454SOL     OW37200  11.715   9.667   6.102
78454SOL    HW137201  11.780   9.669   6.032
78454SOL    HW237202  11.753   9.611   6.169
78455SOL     OW37203   4.689   6.559   5.934
78455SOL    HW137204   4.683   6.469   5.902
78455SOL    HW237205   4.604   6.598   5.911
78456SOL     OW37206   6.312   4.442   6.890
78456SOL    HW137207   6.350   4.526   6.866
78456SOL    HW237208   6.221   4.461   6.910
78457SOL     OW37209   3.225   2.077   6.719
78457SOL    HW137210   3.166   2.064   6.645
78457SOL    HW237211   3.292   2.010   6.707
78458SOL     OW37212   2.688   8.438   2.890
78458SOL    HW137213   2.776   8.474   2.904
78458SOL    HW237214   2.659   8.480   2.809
78459SOL     OW37215   9.733  14.252   6.070
78459SOL    HW137216   9.697  14.164   6.072
78459SOL    HW237217   9.707  14.291   6.154
78460SOL     OW37218  14.309  11.438   8.476
78460SOL    HW137219  14.290  11.392   8.394
78460SOL    HW237220  14.404  11.452   8.473
78461SOL     OW37221   1.111   3.064   0.290
78461SOL    HW137222   1.064   3.137   0.249
78461SOL    HW237223   1.188   3.051   0.236
78462SOL     OW37224   5.493   4.463   3.037
78462SOL    HW137225   5.585   4.487   3.048
78462SOL    HW237226   5.453   4.542   3.000
78463SOL     OW37227   2.434   0.970   8.088
78463SOL    HW137228   2.348   0.966   8.131
78463SOL    HW237229   2.480   0.893   8.121
78464SOL     OW37230  11.618  14.636  13.141
78464SOL    HW137231  11.666  14.713  13.170
78464SOL    HW237232  11.648  14.621  13.051
78465SOL     OW37233   3.069  13.951  14.158
78465SOL    HW137234   3.088  13.890  14.228
78465SOL    HW237235   2.982  13.927  14.127
78466SOL     OW37236   9.340   3.787   4.058
78466SOL    HW137237   9.249   3.791   4.087
78466SOL    HW237238   9.376   3.873   4.080
78467SOL     OW37239  11.308   9.459  13.434
78467SOL    HW137240  11.367   9.392  13.399
78467SOL    HW237241  11.367   9.529  13.465
78468SOL     OW37242   6.869   3.510   5.092
78468SOL    HW137243   6.882   3.601   5.066
78468SOL    HW237244   6.953   3.483   5.128
78469SOL     OW37245   7.214   4.831   3.384
78469SOL    HW137246   7.303   4.859   3.365
78469SOL    HW237247   7.165   4.853   3.305
78470SOL     OW37248   2.279   6.449   5.862
78470SOL    HW137249   2.346   6.480   5.800
78470SOL    HW237250   2.311   6.477   5.947
78471SOL     OW37251   5.389   0.395   3.257
78471SOL    HW137252   5.326   0.352   3.314
78471SOL    HW237253   5.468   0.341   3.264
78472SOL     OW37254   6.207   0.736  13.910
78472SOL    HW137255   6.227   0.774  13.824
78472SOL    HW237256   6.121   0.771  13.932
78473SOL     OW37257   6.997   8.407   4.291
78473SOL    HW137258   6.977   8.377   4.379
78473SOL    HW237259   6.913   8.434   4.254
78474SOL     OW37260  11.840   6.599  11.197
78474SOL    HW137261  11.792   6.582  11.278
78474SOL    HW237262  11.888   6.681  11.213
78475SOL     OW37263  13.175   5.157  13.694
78475SOL    HW137264  13.224   5.086  13.653
78475SOL    HW237265  13.203   5.236  13.647
78476SOL     OW37266   1.629  13.900  14.550
78476SOL    HW137267   1.559  13.961  14.575
78476SOL    HW237268   1.706  13.931  14.597
78477SOL     OW37269   6.526   8.884   1.995
78477SOL    HW137270   6.619   8.890   1.972
78477SOL    HW237271   6.501   8.974   2.014
78478SOL     OW37272  11.154   6.390   5.640
78478SOL    HW137273  11.082   6.447   5.668
78478SOL    HW237274  11.198   6.439   5.571
78479SOL     OW37275   0.227   0.054   1.200
78479SOL    HW137276   0.255   0.102   1.122
78479SOL    HW237277   0.137   0.082   1.215
78480SOL     OW37278  10.697   3.324  13.479
78480SOL    HW137279  10.645   3.286  13.549
78480SOL    HW237280  10.638   3.387  13.437
78481SOL     OW37281   4.705  12.102   5.529
78481SOL    HW137282   4.758  12.181   5.530
78481SOL    HW237283   4.745  12.047   5.461
78482SOL     OW37284   5.746   0.602   2.302
78482SOL    HW137285   5.712   0.582   2.389
78482SOL    HW237286   5.815   0.667   2.318
78483SOL     OW37287  11.744   8.556   0.636
78483SOL    HW137288  11.761   8.645   0.604
78483SOL    HW237289  11.765   8.499   0.561
78484SOL     OW37290  11.662   8.814   7.039
78484SOL    HW137291  11.673   8.795   6.946
78484SOL    HW237292  11.730   8.879   7.058
78485SOL     OW37293   5.778   9.666   5.997
78485SOL    HW137294   5.830   9.624   6.066
78485SOL    HW237295   5.723   9.729   6.043
78486SOL     OW37296  11.955   2.370   7.570
78486SOL    HW137297  11.871   2.355   7.527
78486SOL    HW237298  12.021   2.340   7.507
78487SOL     OW37299   4.730   8.712  13.077
78487SOL    HW137300   4.742   8.728  13.170
78487SOL    HW237301   4.700   8.796  13.042
78488SOL     OW37302  10.960  13.515   4.970
78488SOL    HW137303  11.048  13.527   5.007
78488SOL    HW237304  10.967  13.546   4.880
78489SOL     OW37305   2.350  12.368  10.463
78489SOL    HW137306   2.333  12.334  10.376
78489SOL    HW237307   2.441  12.343  10.482
78490SOL     OW37308   9.169   2.561   3.907
78490SOL    HW137309   9.121   2.636   3.941
78490SOL    HW237310   9.258   2.574   3.940
78491SOL     OW37311   1.204   2.305   2.367
78491SOL    HW137312   1.165   2.391   2.380
78491SOL    HW237313   1.186   2.258   2.449
78492SOL     OW37314  14.753   1.056   9.566
78492SOL    HW137315  14.816   0.999   9.523
78492SOL    HW237316  14.791   1.073   9.652
78493SOL     OW37317   2.993   2.536  13.511
78493SOL    HW137318   3.070   2.563  13.460
78493SOL    HW237319   2.928   2.603  13.493
78494SOL     OW37320   6.871   8.753   9.118
78494SOL    HW137321   6.959   8.791   9.111
78494SOL    HW237322   6.848   8.728   9.029
78495SOL     OW37323   7.896   3.833   5.113
78495SOL    HW137324   7.949   3.911   5.126
78495SOL    HW237325   7.875   3.833   5.019
78496SOL     OW37326  12.397   7.217   1.633
78496SOL    HW137327  12.337   7.287   1.607
78496SOL    HW237328  12.420   7.238   1.724
78497SOL     OW37329  11.062   9.901  13.610
78497SOL    HW137330  11.127   9.831  13.610
78497SOL    HW237331  11.051   9.924  13.702
78498SOL     OW37332   1.676   9.250   5.512
78498SOL    HW137333   1.659   9.256   5.606
78498SOL    HW237334   1.671   9.340   5.481
78499SOL     OW37335   6.739   7.999  11.589
78499SOL    HW137336   6.650   7.976  11.617
78499SOL    HW237337   6.726   8.069  11.525
78500SOL     OW37338  13.614   7.458   9.976
78500SOL    HW137339  13.643   7.466   9.886
78500SOL    HW237340  13.613   7.547  10.010
78501SOL     OW37341  10.792   4.281   1.702
78501SOL    HW137342  10.718   4.223   1.719
78501SOL    HW237343  10.862   4.223   1.672
78502SOL     OW37344   6.215  13.110   2.976
78502SOL    HW137345   6.228  13.114   3.071
78502SOL    HW237346   6.243  13.195   2.944
78503SOL     OW37347   5.158   5.474   2.125
78503SOL    HW137348   5.198   5.459   2.211
78503SOL    HW237349   5.074   5.515   2.145
78504SOL     OW37350   7.945   7.424   8.943
78504SOL    HW137351   7.886   7.349   8.934
78504SOL    HW237352   7.974   7.422   9.034
78505SOL     OW37353   8.654   9.245   7.176
78505SOL    HW137354   8.707   9.309   7.224
78505SOL    HW237355   8.700   9.162   7.188
78506SOL     OW37356   8.559   9.674   9.005
78506SOL    HW137357   8.540   9.654   8.913
78506SOL    HW237358   8.602   9.595   9.038
78507SOL     OW37359   1.356  10.252  14.069
78507SOL    HW137360   1.421  10.222  14.131
78507SOL    HW237361   1.394  10.332  14.031
78508SOL     OW37362  11.457   2.472  12.513
78508SOL    HW137363  11.368   2.440  12.494
78508SOL    HW237364  11.447   2.523  12.594
78509SOL     OW37365  10.500   6.965   3.166
78509SOL    HW137366  10.545   6.903   3.224
78509SOL    HW237367  10.424   6.917   3.134
78510SOL     OW37368  10.085  13.913   5.453
78510SOL    HW137369  10.022  13.940   5.386
78510SOL    HW237370  10.167  13.956   5.428
78511SOL     OW37371   8.748  14.773   0.830
78511SOL    HW137372   8.751  14.802   0.921
78511SOL    HW237373   8.838  14.779   0.799
78512SOL     OW37374   9.019   2.713   0.925
78512SOL    HW137375   9.094   2.659   0.903
78512SOL    HW237376   9.027   2.729   1.019
78513SOL     OW37377   0.621   7.709   0.224
78513SOL    HW137378   0.538   7.708   0.175
78513SOL    HW237379   0.661   7.625   0.203
78514SOL     OW37380  10.505   9.753   6.501
78514SOL    HW137381  10.534   9.837   6.535
78514SOL    HW237382  10.423   9.735   6.548
78515SOL     OW37383   3.136   0.020  12.354
78515SOL    HW137384   3.127  14.818  12.310
78515SOL    HW237385   3.125   0.085  12.284
78516SOL     OW37386   0.628   2.903  13.907
78516SOL    HW137387   0.542   2.902  13.865
78516SOL    HW237388   0.686   2.861  13.844
78517SOL     OW37389   4.513  14.061   1.136
78517SOL    HW137390   4.469  14.001   1.075
78517SOL    HW237391   4.603  14.065   1.105
78518SOL     OW37392   9.682   5.090  10.561
78518SOL    HW137393   9.648   5.123  10.478
78518SOL    HW237394   9.770   5.127  10.568
78519SOL     OW37395   6.349  12.324  13.686
78519SOL    HW137396   6.422  12.305  13.627
78519SOL    HW237397   6.385  12.387  13.749
78520SOL     OW37398   7.070   6.509   2.236
78520SOL    HW137399   7.116   6.443   2.185
78520SOL    HW237400   7.139   6.565   2.272
78521SOL     OW37401   4.840  11.015   2.844
78521SOL    HW137402   4.771  10.948   2.845
78521SOL    HW237403   4.843  11.047   2.933
78522SOL     OW37404   4.749   3.589  13.883
78522SOL    HW137405   4.771   3.500  13.857
78522SOL    HW237406   4.737   3.585  13.978
78523SOL     OW37407   5.409   6.948   7.827
78523SOL    HW137408   5.493   6.977   7.791
78523SOL    HW237409   5.364   7.029   7.852
78524SOL     OW37410  11.294   4.395   9.191
78524SOL    HW137411  11.274   4.404   9.284
78524SOL    HW237412  11.284   4.302   9.173
78525SOL     OW37413   8.019  12.467   8.473
78525SOL    HW137414   7.997  12.422   8.392
78525SOL    HW237415   8.072  12.542   8.445
78526SOL     OW37416   8.796   5.102  10.286
78526SOL    HW137417   8.719   5.127  10.235
78526SOL    HW237418   8.798   5.164  10.359
78527SOL     OW37419  11.177  10.102   5.886
78527SOL    HW137420  11.243  10.049   5.842
78527SOL    HW237421  11.225  10.148   5.955
78528SOL     OW37422   9.949  11.594   3.707
78528SOL    HW137423   9.895  11.538   3.652
78528SOL    HW237424  10.039  11.574   3.681
78529SOL     OW37425  12.563   8.529   0.671
78529SOL    HW137426  12.624   8.583   0.620
78529SOL    HW237427  12.491   8.510   0.610
78530SOL     OW37428  10.828   2.559   1.850
78530SOL    HW137429  10.814   2.654   1.854
78530SOL    HW237430  10.742   2.521   1.871
78531SOL     OW37431  10.499  13.570   4.984
78531SOL    HW137432  10.566  13.629   4.951
78531SOL    HW237433  10.504  13.493   4.927
78532SOL     OW37434   0.846   9.713   3.985
78532SOL    HW137435   0.931   9.683   3.955
78532SOL    HW237436   0.787   9.640   3.969
78533SOL     OW37437   1.186   9.353  12.683
78533SOL    HW137438   1.228   9.293  12.744
78533SOL    HW237439   1.241   9.431  12.683
78534SOL     OW37440  10.345   1.087   8.400
78534SOL    HW137441  10.253   1.065   8.410
78534SOL    HW237442  10.356   1.170   8.448
78535SOL     OW37443  14.608  11.518   8.111
78535SOL    HW137444  14.543  11.585   8.091
78535SOL    HW237445  14.675  11.528   8.043
78536SOL     OW37446   3.491  11.241   2.739
78536SOL    HW137447   3.537  11.201   2.666
78536SOL    HW237448   3.403  11.203   2.736
78537SOL     OW37449  14.048   0.595   9.380
78537SOL    HW137450  14.025   0.550   9.299
78537SOL    HW237451  14.136   0.563   9.401
78538SOL     OW37452  11.800  13.815   2.292
78538SOL    HW137453  11.847  13.870   2.229
78538SOL    HW237454  11.761  13.877   2.354
78539SOL     OW37455   8.615   4.660   7.244
78539SOL    HW137456   8.556   4.585   7.234
78539SOL    HW237457   8.609   4.683   7.337
78540SOL     OW37458   0.678   9.315  14.436
78540SOL    HW137459   0.770   9.333  14.413
78540SOL    HW237460   0.645   9.261  14.364
78541SOL     OW37461   3.017   0.152   5.364
78541SOL    HW137462   3.022   0.190   5.277
78541SOL    HW237463   3.011   0.058   5.348
78542SOL     OW37464   2.946   6.551  11.063
78542SOL    HW137465   3.020   6.611  11.053
78542SOL    HW237466   2.985   6.465  11.074
78543SOL     OW37467   4.760   2.110  12.820
78543SOL    HW137468   4.756   2.164  12.741
78543SOL    HW237469   4.748   2.020  12.788
78544SOL     OW37470   5.557   9.015   0.682
78544SOL    HW137471   5.508   9.071   0.621
78544SOL    HW237472   5.503   8.937   0.692
78545SOL     OW37473   4.443   7.692   2.757
78545SOL    HW137474   4.462   7.785   2.758
78545SOL    HW237475   4.388   7.677   2.834
78546SOL     OW37476  11.853   0.126   2.960
78546SOL    HW137477  11.912   0.057   2.930
78546SOL    HW237478  11.773   0.113   2.910
78547SOL     OW37479   6.242  13.901   6.641
78547SOL    HW137480   6.277  13.976   6.690
78547SOL    HW237481   6.220  13.938   6.555
78548SOL     OW37482   4.754   9.970   3.429
78548SOL    HW137483   4.788  10.054   3.460
78548SOL    HW237484   4.705   9.991   3.350
78549SOL     OW37485  14.089   6.113  11.717
78549SOL    HW137486  14.091   6.176  11.789
78549SOL    HW237487  14.177   6.115  11.680
78550SOL     OW37488   9.726  11.540   8.761
78550SOL    HW137489   9.821  11.551   8.753
78550SOL    HW237490   9.703  11.479   8.692
78551SOL     OW37491   9.661   5.443   3.994
78551SOL    HW137492   9.596   5.465   4.061
78551SOL    HW237493   9.610   5.399   3.926
78552SOL     OW37494   9.800  12.402  11.940
78552SOL    HW137495   9.829  12.493  11.936
78552SOL    HW237496   9.739  12.399  12.013
78553SOL     OW37497   6.620   9.256   3.119
78553SOL    HW137498   6.563   9.303   3.180
78553SOL    HW237499   6.708   9.266   3.155
78554SOL     OW37500   9.254   7.154  13.564
78554SOL    HW137501   9.297   7.094  13.503
78554SOL    HW237502   9.212   7.220  13.508
78555SOL     OW37503  12.771   2.170   7.158
78555SOL    HW137504  12.785   2.152   7.065
78555SOL    HW237505  12.852   2.212   7.187
78556SOL     OW37506   9.305   6.054  13.644
78556SOL    HW137507   9.379   6.115  13.643
78556SOL    HW237508   9.228   6.110  13.637
78557SOL     OW37509  14.600  13.267   6.455
78557SOL    HW137510  14.607  13.357   6.422
78557SOL    HW237511  14.506  13.249   6.456
78558SOL     OW37512   5.621  11.075   8.039
78558SOL    HW137513   5.691  11.014   8.064
78558SOL    HW237514   5.573  11.090   8.120
78559SOL     OW37515  12.765   3.528   8.391
78559SOL    HW137516  12.760   3.442   8.433
78559SOL    HW237517  12.718   3.516   8.308
78560SOL     OW37518   0.453   0.194   3.155
78560SOL    HW137519   0.524   0.131   3.148
78560SOL    HW237520   0.482   0.257   3.221
78561SOL     OW37521  14.730   9.294   9.468
78561SOL    HW137522  14.790   9.344   9.413
78561SOL    HW237523  14.680   9.241   9.405
78562SOL     OW37524  11.074   2.476   4.524
78562SOL    HW137525  11.009   2.406   4.522
78562SOL    HW237526  11.071   2.510   4.613
78563SOL     OW37527  13.243  10.790   5.778
78563SOL    HW137528  13.334  10.818   5.787
78563SOL    HW237529  13.199  10.827   5.855
78564SOL     OW37530   3.799  14.744   5.058
78564SOL    HW137531   3.751  14.787   4.988
78564SOL    HW237532   3.884  14.723   5.021
78565SOL     OW37533  10.987   6.155   1.059
78565SOL    HW137534  10.902   6.135   1.018
78565SOL    HW237535  11.007   6.077   1.110
78566SOL     OW37536  12.223  12.528   8.482
78566SOL    HW137537  12.170  12.570   8.550
78566SOL    HW237538  12.305  12.578   8.481
78567SOL     OW37539   1.418   3.613  10.126
78567SOL    HW137540   1.442   3.704  10.146
78567SOL    HW237541   1.334   3.621  10.079
78568SOL     OW37542   3.389   6.993   4.300
78568SOL    HW137543   3.384   7.085   4.274
78568SOL    HW237544   3.441   6.952   4.231
78569SOL     OW37545   4.570   3.393   1.826
78569SOL    HW137546   4.509   3.451   1.780
78569SOL    HW237547   4.593   3.326   1.762
78570SOL     OW37548  13.283   1.317   7.043
78570SOL    HW137549  13.333   1.316   7.125
78570SOL    HW237550  13.330   1.379   6.987
78571SOL     OW37551   6.502   1.586   3.926
78571SOL    HW137552   6.469   1.505   3.886
78571SOL    HW237553   6.518   1.645   3.852
78572SOL     OW37554   8.784   1.187  10.136
78572SOL    HW137555   8.728   1.178  10.058
78572SOL    HW237556   8.722   1.194  10.209
78573SOL     OW37557  11.163  12.566  10.918
78573SOL    HW137558  11.180  12.518  10.837
78573SOL    HW237559  11.067  12.568  10.925
78574SOL     OW37560  11.584   6.515  13.440
78574SOL    HW137561  11.612   6.546  13.353
78574SOL    HW237562  11.546   6.592  13.482
78575SOL     OW37563   1.314  10.819   5.954
78575SOL    HW137564   1.279  10.840   5.867
78575SOL    HW237565   1.237  10.791   6.004
78576SOL     OW37566   0.745   4.215   5.385
78576SOL    HW137567   0.760   4.130   5.428
78576SOL    HW237568   0.782   4.204   5.297
78577SOL     OW37569  11.495   6.439   1.700
78577SOL    HW137570  11.465   6.367   1.645
78577SOL    HW237571  11.585   6.416   1.722
78578SOL     OW37572  10.019   7.503  14.608
78578SOL    HW137573   9.938   7.481  14.563
78578SOL    HW237574  10.064   7.564  14.549
78579SOL     OW37575   7.677  12.691   1.863
78579SOL    HW137576   7.583  12.712   1.862
78579SOL    HW237577   7.680  12.597   1.883
78580SOL     OW37578   7.702  13.571   6.778
78580SOL    HW137579   7.720  13.484   6.742
78580SOL    HW237580   7.727  13.564   6.870
78581SOL     OW37581   6.894   7.336  11.519
78581SOL    HW137582   6.810   7.308  11.556
78581SOL    HW237583   6.878   7.425  11.488
78582SOL     OW37584  10.530   5.247   8.012
78582SOL    HW137585  10.486   5.276   8.092
78582SOL    HW237586  10.475   5.280   7.941
78583SOL     OW37587   0.877  11.018   1.627
78583SOL    HW137588   0.941  10.948   1.616
78583SOL    HW237589   0.800  10.987   1.579
78584SOL     OW37590   1.638   1.582   8.039
78584SOL    HW137591   1.596   1.497   8.045
78584SOL    HW237592   1.666   1.601   8.129
78585SOL     OW37593  10.146   6.964   9.344
78585SOL    HW137594  10.236   6.973   9.373
78585SOL    HW237595  10.149   6.985   9.250
78586SOL     OW37596   8.392   5.773   4.097
78586SOL    HW137597   8.367   5.857   4.136
78586SOL    HW237598   8.478   5.789   4.059
78587SOL     OW37599  13.243   2.301  13.098
78587SOL    HW137600  13.265   2.222  13.148
78587SOL    HW237601  13.148   2.303  13.097
78588SOL     OW37602   1.849   6.809   3.597
78588SOL    HW137603   1.873   6.778   3.685
78588SOL    HW237604   1.800   6.736   3.560
78589SOL     OW37605   8.012   2.500   7.153
78589SOL    HW137606   7.986   2.592   7.158
78589SOL    HW237607   7.958   2.464   7.082
78590SOL     OW37608   3.404  14.315   2.142
78590SOL    HW137609   3.371  14.341   2.227
78590SOL    HW237610   3.499  14.329   2.147
78591SOL     OW37611  14.229   9.086   5.595
78591SOL    HW137612  14.288   9.014   5.618
78591SOL    HW237613  14.153   9.042   5.556
78592SOL     OW37614  10.714   1.261   9.254
78592SOL    HW137615  10.636   1.247   9.202
78592SOL    HW237616  10.694   1.222   9.339
78593SOL     OW37617  11.608   2.346   7.984
78593SOL    HW137618  11.681   2.408   7.971
78593SOL    HW237619  11.553   2.387   8.051
78594SOL     OW37620  11.960   2.080  13.179
78594SOL    HW137621  11.897   2.104  13.247
78594SOL    HW237622  12.001   2.000  13.212
78595SOL     OW37623   2.746   0.063   3.431
78595SOL    HW137624   2.735  14.859   3.389
78595SOL    HW237625   2.781   0.043   3.518
78596SOL     OW37626   3.238   0.425   0.734
78596SOL    HW137627   3.210   0.356   0.794
78596SOL    HW237628   3.321   0.394   0.698
78597SOL     OW37629  10.244   3.174  11.047
78597SOL    HW137630  10.149   3.179  11.058
78597SOL    HW237631  10.264   3.081  11.057
78598SOL     OW37632   9.332   8.079  14.157
78598SOL    HW137633   9.342   8.138  14.231
78598SOL    HW237634   9.422   8.059  14.130
78599SOL     OW37635   4.614  12.412   5.464
78599SOL    HW137636   4.565  12.420   5.546
78599SOL    HW237637   4.633  12.503   5.439
78600SOL     OW37638  11.398   5.963  13.643
78600SOL    HW137639  11.485   5.932  13.669
78600SOL    HW237640  11.409   5.993  13.553
78601SOL     OW37641  11.496   3.056   0.720
78601SOL    HW137642  11.445   2.977   0.699
78601SOL    HW237643  11.466   3.121   0.656
78602SOL     OW37644   2.703   8.428   3.215
78602SOL    HW137645   2.688   8.350   3.270
78602SOL    HW237646   2.615   8.464   3.201
78603SOL     OW37647   3.851  11.794  10.097
78603SOL    HW137648   3.823  11.712  10.138
78603SOL    HW237649   3.879  11.769  10.010
78604SOL     OW37650  12.466   8.548  14.088
78604SOL    HW137651  12.495   8.611  14.022
78604SOL    HW237652  12.547   8.509  14.121
78605SOL     OW37653   6.606   1.462   5.093
78605SOL    HW137654   6.577   1.528   5.156
78605SOL    HW237655   6.546   1.388   5.107
78606SOL     OW37656   9.001  14.658   6.162
78606SOL    HW137657   8.950  14.727   6.119
78606SOL    HW237658   8.948  14.579   6.152
78607SOL     OW37659  13.143   5.983  13.571
78607SOL    HW137660  13.219   5.929  13.548
78607SOL    HW237661  13.124   5.961  13.662
78608SOL     OW37662   9.479   9.755  14.715
78608SOL    HW137663   9.526   9.680  14.752
78608SOL    HW237664   9.436   9.795  14.791
78609SOL     OW37665   3.557   0.750  10.606
78609SOL    HW137666   3.635   0.706  10.573
78609SOL    HW237667   3.584   0.842  10.615
78610SOL     OW37668  10.993   6.756  10.223
78610SOL    HW137669  10.974   6.760  10.130
78610SOL    HW237670  10.917   6.710  10.261
78611SOL     OW37671   6.443  10.971  13.679
78611SOL    HW137672   6.375  10.943  13.618
78611SOL    HW237673   6.463  10.892  13.730
78612SOL     OW37674   9.688   5.694   4.885
78612SOL    HW137675   9.633   5.627   4.927
78612SOL    HW237676   9.662   5.692   4.793
78613SOL     OW37677   2.064   4.968   8.676
78613SOL    HW137678   2.037   4.970   8.584
78613SOL    HW237679   1.985   4.944   8.724
78614SOL     OW37680   1.664  13.365  10.469
78614SOL    HW137681   1.631  13.287  10.514
78614SOL    HW237682   1.745  13.336  10.426
78615SOL     OW37683   2.240   7.801  12.185
78615SOL    HW137684   2.273   7.870  12.242
78615SOL    HW237685   2.184   7.846  12.122
78616SOL     OW37686  13.458  13.739   4.067
78616SOL    HW137687  13.453  13.688   3.986
78616SOL    HW237688  13.367  13.742   4.098
78617SOL     OW37689   0.205  11.863   5.349
78617SOL    HW137690   0.114  11.850   5.324
78617SOL    HW237691   0.236  11.935   5.294
78618SOL     OW37692  11.956   1.053  12.598
78618SOL    HW137693  11.934   0.986  12.533
78618SOL    HW237694  12.051   1.045  12.608
78619SOL     OW37695   0.737  12.892   3.977
78619SOL    HW137696   0.696  12.806   3.966
78619SOL    HW237697   0.809  12.878   4.038
78620SOL     OW37698  13.775   4.136   4.452
78620SOL    HW137699  13.860   4.134   4.497
78620SOL    HW237700  13.760   4.045   4.428
78621SOL     OW37701   0.172   3.421   3.969
78621SOL    HW137702   0.150   3.507   4.005
78621SOL    HW237703   0.130   3.420   3.883
78622SOL     OW37704   4.355  13.134   9.708
78622SOL    HW137705   4.339  13.148   9.615
78622SOL    HW237706   4.333  13.218   9.749
78623SOL     OW37707   8.511   4.099   0.083
78623SOL    HW137708   8.601   4.088   0.115
78623SOL    HW237709   8.514   4.067  14.875
78624SOL     OW37710  13.823   4.304   5.147
78624SOL    HW137711  13.881   4.366   5.190
78624SOL    HW237712  13.735   4.339   5.162
78625SOL     OW37713   8.532   2.289   0.383
78625SOL    HW137714   8.620   2.283   0.420
78625SOL    HW237715   8.475   2.304   0.459
78626SOL     OW37716   2.595   7.793   0.558
78626SOL    HW137717   2.621   7.824   0.471
78626SOL    HW237718   2.594   7.698   0.550
78627SOL     OW37719  13.281   1.557   3.417
78627SOL    HW137720  13.288   1.494   3.489
78627SOL    HW237721  13.326   1.635   3.450
78628SOL     OW37722   2.901   8.475  11.502
78628SOL    HW137723   2.960   8.417  11.453
78628SOL    HW237724   2.960   8.531  11.553
78629SOL     OW37725   4.025   1.857   9.985
78629SOL    HW137726   4.014   1.894  10.073
78629SOL    HW237727   4.010   1.763   9.998
78630SOL     OW37728   1.031  13.999   7.335
78630SOL    HW137729   1.075  14.020   7.252
78630SOL    HW237730   1.022  14.083   7.379
78631SOL     OW37731   4.995  12.615   9.891
78631SOL    HW137732   4.971  12.678   9.823
78631SOL    HW237733   4.918  12.610   9.948
78632SOL     OW37734  11.489   8.742  10.968
78632SOL    HW137735  11.506   8.822  11.019
78632SOL    HW237736  11.575   8.704  10.954
78633SOL     OW37737   0.573  14.465  13.375
78633SOL    HW137738   0.531  14.431  13.454
78633SOL    HW237739   0.614  14.389  13.334
78634SOL     OW37740   9.847  10.760   0.270
78634SOL    HW137741   9.839  10.854   0.250
78634SOL    HW237742   9.889  10.723   0.193
78635SOL     OW37743   7.342   8.499  12.614
78635SOL    HW137744   7.394   8.432  12.658
78635SOL    HW237745   7.265   8.511  12.671
78636SOL     OW37746   5.925   4.717   7.892
78636SOL    HW137747   5.837   4.692   7.922
78636SOL    HW237748   5.984   4.657   7.939
78637SOL     OW37749  12.357   9.421   4.257
78637SOL    HW137750  12.310   9.358   4.202
78637SOL    HW237751  12.338   9.506   4.217
78638SOL     OW37752   2.283  13.169   7.134
78638SOL    HW137753   2.209  13.171   7.072
78638SOL    HW237754   2.279  13.254   7.177
78639SOL     OW37755   5.450   0.104   1.950
78639SOL    HW137756   5.497   0.021   1.948
78639SOL    HW237757   5.517   0.171   1.934
78640SOL     OW37758  10.542  11.492  11.345
78640SOL    HW137759  10.525  11.499  11.251
78640SOL    HW237760  10.494  11.414  11.372
78641SOL     OW37761   4.717   3.215   1.984
78641SOL    HW137762   4.681   3.144   1.931
78641SOL    HW237763   4.671   3.293   1.953
78642SOL     OW37764   5.957   4.494  12.490
78642SOL    HW137765   6.004   4.436  12.549
78642SOL    HW237766   5.902   4.548  12.547
78643SOL     OW37767   9.170   5.538   1.450
78643SOL    HW137768   9.125   5.456   1.470
78643SOL    HW237769   9.153   5.552   1.357
78644SOL     OW37770   0.897   4.299  12.580
78644SOL    HW137771   0.872   4.316  12.671
78644SOL    HW237772   0.862   4.374  12.532
78645SOL     OW37773   6.517   4.520   0.129
78645SOL    HW137774   6.447   4.481   0.076
78645SOL    HW237775   6.597   4.492   0.085
78646SOL     OW37776  14.151   0.752   6.017
78646SOL    HW137777  14.233   0.703   6.025
78646SOL    HW237778  14.104   0.734   6.098
78647SOL     OW37779  11.937  14.452   2.975
78647SOL    HW137780  11.986  14.376   3.005
78647SOL    HW237781  11.978  14.476   2.892
78648SOL     OW37782   8.593   3.619   1.319
78648SOL    HW137783   8.554   3.541   1.279
78648SOL    HW237784   8.684   3.618   1.288
78649SOL     OW37785   0.107   9.627   7.276
78649SOL    HW137786   0.159   9.637   7.356
78649SOL    HW237787   0.053   9.707   7.273
78650SOL     OW37788   0.661  12.720   4.661
78650SOL    HW137789   0.649  12.699   4.569
78650SOL    HW237790   0.573  12.720   4.698
78651SOL     OW37791   6.661   8.934  11.718
78651SOL    HW137792   6.686   9.026  11.707
78651SOL    HW237793   6.570   8.938  11.747
78652SOL     OW37794   3.580   5.898   9.629
78652SOL    HW137795   3.622   5.841   9.694
78652SOL    HW237796   3.544   5.838   9.564
78653SOL     OW37797   6.446   7.664   1.286
78653SOL    HW137798   6.474   7.640   1.375
78653SOL    HW237799   6.368   7.611   1.270
78654SOL     OW37800   8.738   9.328  13.978
78654SOL    HW137801   8.721   9.421  13.987
78654SOL    HW237802   8.682   9.286  14.044
78655SOL     OW37803  13.616   0.230  14.092
78655SOL    HW137804  13.614   0.246  14.186
78655SOL    HW237805  13.710   0.227  14.071
78656SOL     OW37806  14.169  12.487   5.835
78656SOL    HW137807  14.223  12.559   5.869
78656SOL    HW237808  14.140  12.516   5.749
78657SOL     OW37809  10.364   2.836   2.246
78657SOL    HW137810  10.385   2.744   2.262
78657SOL    HW237811  10.374   2.847   2.152
78658SOL     OW37812  13.478   7.841   4.337
78658SOL    HW137813  13.393   7.884   4.336
78658SOL    HW237814  13.513   7.860   4.425
78659SOL     OW37815   9.068   3.881  12.190
78659SOL    HW137816   9.008   3.953  12.169
78659SOL    HW237817   9.031   3.805  12.146
78660SOL     OW37818   9.125  11.008   9.264
78660SOL    HW137819   9.087  10.922   9.245
78660SOL    HW237820   9.062  11.051   9.321
78661SOL     OW37821  10.293   9.875   2.347
78661SOL    HW137822  10.198   9.865   2.354
78661SOL    HW237823  10.321   9.805   2.288
78662SOL     OW37824   4.508  11.041   9.820
78662SOL    HW137825   4.429  10.988   9.827
78662SOL    HW237826   4.477  11.131   9.817
78663SOL     OW37827   4.652   4.135   0.249
78663SOL    HW137828   4.702   4.074   0.194
78663SOL    HW237829   4.668   4.105   0.338
78664SOL     OW37830  11.001  12.136   6.167
78664SOL    HW137831  10.969  12.046   6.157
78664SOL    HW237832  10.957  12.185   6.098
78665SOL     OW37833  13.787   3.772  14.341
78665SOL    HW137834  13.779   3.861  14.375
78665SOL    HW237835  13.867   3.738  14.381
78666SOL     OW37836  11.197   3.154   4.261
78666SOL    HW137837  11.113   3.179   4.299
78666SOL    HW237838  11.176   3.084   4.199
78667SOL     OW37839   3.616  14.387   3.030
78667SOL    HW137840   3.546  14.328   3.059
78667SOL    HW237841   3.659  14.415   3.112
78668SOL     OW37842   2.890  10.773   3.573
78668SOL    HW137843   2.867  10.758   3.665
78668SOL    HW237844   2.862  10.863   3.556
78669SOL     OW37845   5.999   5.054  12.342
78669SOL    HW137846   6.038   4.967  12.342
78669SOL    HW237847   5.907   5.039  12.323
78670SOL     OW37848  14.475  10.316  11.001
78670SOL    HW137849  14.555  10.365  10.986
78670SOL    HW237850  14.500  10.224  10.990
78671SOL     OW37851   0.624   8.514   3.093
78671SOL    HW137852   0.688   8.535   3.161
78671SOL    HW237853   0.673   8.466   3.027
78672SOL     OW37854   8.676   3.005   3.483
78672SOL    HW137855   8.585   3.023   3.461
78672SOL    HW237856   8.672   2.965   3.570
78673SOL     OW37857  12.559   3.547  14.608
78673SOL    HW137858  12.578   3.462  14.567
78673SOL    HW237859  12.645   3.585  14.625
78674SOL     OW37860  10.445   7.331  13.936
78674SOL    HW137861  10.524   7.325  13.990
78674SOL    HW237862  10.450   7.418  13.896
78675SOL     OW37863   1.811   6.143  13.705
78675SOL    HW137864   1.764   6.092  13.771
78675SOL    HW237865   1.797   6.234  13.731
78676SOL     OW37866  10.321   7.066  10.136
78676SOL    HW137867  10.314   7.117  10.055
78676SOL    HW237868  10.231   7.061  10.168
78677SOL     OW37869   0.202  13.388  10.320
78677SOL    HW137870   0.205  13.301  10.359
78677SOL    HW237871   0.269  13.386  10.252
78678SOL     OW37872   9.026   6.239   9.006
78678SOL    HW137873   9.014   6.183   9.083
78678SOL    HW237874   9.079   6.187   8.946
78679SOL     OW37875  13.520   7.771  11.866
78679SOL    HW137876  13.591   7.828  11.835
78679SOL    HW237877  13.555   7.682  11.857
78680SOL     OW37878   9.481  11.462   1.594
78680SOL    HW137879   9.530  11.529   1.546
78680SOL    HW237880   9.536  11.441   1.669
78681SOL     OW37881  11.402  14.201   8.896
78681SOL    HW137882  11.393  14.289   8.933
78681SOL    HW237883  11.331  14.195   8.832
78682SOL     OW37884   6.091   2.034   1.300
78682SOL    HW137885   6.083   1.945   1.333
78682SOL    HW237886   6.181   2.059   1.318
78683SOL     OW37887   3.290   9.815   8.881
78683SOL    HW137888   3.279   9.774   8.967
78683SOL    HW237889   3.254   9.903   8.892
78684SOL     OW37890   2.175  11.520   8.962
78684SOL    HW137891   2.104  11.499   9.023
78684SOL    HW237892   2.226  11.440   8.956
78685SOL     OW37893   7.945   1.855   4.025
78685SOL    HW137894   7.905   1.847   4.112
78685SOL    HW237895   8.014   1.920   4.037
78686SOL     OW37896   3.499   6.757   9.079
78686SOL    HW137897   3.499   6.843   9.037
78686SOL    HW237898   3.575   6.759   9.137
78687SOL     OW37899  11.465   0.886   4.623
78687SOL    HW137900  11.498   0.908   4.536
78687SOL    HW237901  11.459   0.790   4.623
78688SOL     OW37902   5.191   7.339   3.416
78688SOL    HW137903   5.258   7.322   3.351
78688SOL    HW237904   5.228   7.407   3.473
78689SOL     OW37905   3.237   3.754   0.101
78689SOL    HW137906   3.302   3.743   0.170
78689SOL    HW237907   3.207   3.844   0.109
78690SOL     OW37908   1.282   1.620   0.901
78690SOL    HW137909   1.359   1.576   0.864
78690SOL    HW237910   1.262   1.571   0.981
78691SOL     OW37911   2.278  12.210   1.094
78691SOL    HW137912   2.216  12.195   1.023
78691SOL    HW237913   2.224  12.220   1.172
78692SOL     OW37914  12.206   3.106   6.950
78692SOL    HW137915  12.175   3.131   6.863
78692SOL    HW237916  12.128   3.077   6.996
78693SOL     OW37917   9.968   0.889   4.747
78693SOL    HW137918   9.909   0.853   4.682
78693SOL    HW237919   9.973   0.982   4.727
78694SOL     OW37920   6.410   6.827   3.466
78694SOL    HW137921   6.361   6.901   3.502
78694SOL    HW237922   6.469   6.800   3.537
78695SOL     OW37923   2.481   4.268   6.722
78695SOL    HW137924   2.452   4.292   6.634
78695SOL    HW237925   2.568   4.306   6.730
78696SOL     OW37926  11.657   6.367   7.538
78696SOL    HW137927  11.590   6.427   7.505
78696SOL    HW237928  11.688   6.320   7.461
78697SOL     OW37929   4.001   0.703  13.496
78697SOL    HW137930   3.919   0.748  13.475
78697SOL    HW237931   3.974   0.616  13.524
78698SOL     OW37932   1.452   3.034   8.554
78698SOL    HW137933   1.532   2.982   8.546
78698SOL    HW237934   1.388   2.974   8.594
78699SOL     OW37935   7.112   7.620   9.579
78699SOL    HW137936   7.203   7.649   9.572
78699SOL    HW237937   7.096   7.571   9.498
78700SOL     OW37938   4.517   7.103   4.254
78700SOL    HW137939   4.584   7.035   4.259
78700SOL    HW237940   4.439   7.062   4.293
78701SOL     OW37941   0.896   5.407   2.154
78701SOL    HW137942   0.903   5.312   2.154
78701SOL    HW237943   0.979   5.437   2.190
78702SOL     OW37944  10.239   9.292   0.230
78702SOL    HW137945  10.285   9.337   0.159
78702SOL    HW237946  10.231   9.202   0.200
78703SOL     OW37947   1.010   4.179  11.430
78703SOL    HW137948   1.105   4.188  11.442
78703SOL    HW237949   0.984   4.112  11.493
78704SOL     OW37950   2.577   6.494   6.721
78704SOL    HW137951   2.665   6.527   6.703
78704SOL    HW237952   2.587   6.444   6.802
78705SOL     OW37953   9.876  14.381   4.992
78705SOL    HW137954   9.885  14.322   4.918
78705SOL    HW237955   9.931  14.342   5.060
78706SOL     OW37956   7.061   7.482   6.213
78706SOL    HW137957   6.978   7.438   6.232
78706SOL    HW237958   7.100   7.431   6.142
78707SOL     OW37959  10.046  14.406  10.229
78707SOL    HW137960  10.129  14.445  10.255
78707SOL    HW237961  10.029  14.441  10.142
78708SOL     OW37962   1.601  12.576  12.217
78708SOL    HW137963   1.649  12.510  12.167
78708SOL    HW237964   1.647  12.580  12.301
78709SOL     OW37965  14.513   2.516  14.352
78709SOL    HW137966  14.439   2.473  14.395
78709SOL    HW237967  14.586   2.454  14.361
78710SOL     OW37968   1.075   6.693  10.671
78710SOL    HW137969   1.059   6.616  10.726
78710SOL    HW237970   1.033   6.671  10.588
78711SOL     OW37971   2.630  13.950   1.485
78711SOL    HW137972   2.598  13.887   1.420
78711SOL    HW237973   2.574  13.936   1.561
78712SOL     OW37974   2.419   1.184  13.937
78712SOL    HW137975   2.408   1.123  14.010
78712SOL    HW237976   2.335   1.184  13.892
78713SOL     OW37977   6.228   8.965   6.730
78713SOL    HW137978   6.320   8.937   6.739
78713SOL    HW237979   6.233   9.049   6.686
78714SOL     OW37980   4.121   7.082   0.336
78714SOL    HW137981   4.204   7.038   0.319
78714SOL    HW237982   4.113   7.147   0.266
78715SOL     OW37983  11.611   2.495   7.015
78715SOL    HW137984  11.673   2.426   7.038
78715SOL    HW237985  11.559   2.459   6.944
78716SOL     OW37986   2.027   5.633  10.237
78716SOL    HW137987   2.007   5.646  10.144
78716SOL    HW237988   2.073   5.713  10.263
78717SOL     OW37989  13.785   1.471   5.647
78717SOL    HW137990  13.858   1.418   5.614
78717SOL    HW237991  13.785   1.456   5.742
78718SOL     OW37992   9.349  10.491   4.034
78718SOL    HW137993   9.444  10.494   4.025
78718SOL    HW237994   9.318  10.447   3.955
78719SOL     OW37995  11.803   7.022  13.002
78719SOL    HW137996  11.879   6.976  13.040
78719SOL    HW237997  11.775   6.965  12.930
78720SOL     OW37998  12.221   5.532  14.673
78720SOL    HW137999  12.278   5.480  14.730
78720SOL    HW238000  12.282   5.586  14.622
78721SOL     OW38001  11.172  10.960  10.600
78721SOL    HW138002  11.200  10.877  10.562
78721SOL    HW238003  11.079  10.966  10.579
78722SOL     OW38004   7.553   5.306   2.401
78722SOL    HW138005   7.557   5.219   2.361
78722SOL    HW238006   7.470   5.307   2.448
78723SOL     OW38007   1.866   4.881   9.154
78723SOL    HW138008   1.845   4.890   9.061
78723SOL    HW238009   1.935   4.815   9.156
78724SOL     OW38010   3.871   5.017  14.486
78724SOL    HW138011   3.833   4.945  14.535
78724SOL    HW238012   3.842   5.096  14.534
78725SOL     OW38013   8.761   4.248   1.957
78725SOL    HW138014   8.698   4.295   2.011
78725SOL    HW238015   8.707   4.183   1.910
78726SOL     OW38016  13.647  14.419  14.213
78726SOL    HW138017  13.724  14.377  14.252
78726SOL    HW238018  13.574  14.392  14.269
78727SOL     OW38019   4.162   0.608   4.094
78727SOL    HW138020   4.146   0.633   4.185
78727SOL    HW238021   4.205   0.685   4.055
78728SOL     OW38022  13.691   1.034   9.901
78728SOL    HW138023  13.604   1.013   9.867
78728SOL    HW238024  13.697   0.986   9.983
78729SOL     OW38025  12.605  13.921  14.630
78729SOL    HW138026  12.691  13.932  14.670
78729SOL    HW238027  12.589  13.827  14.633
78730SOL     OW38028  14.713   6.564   8.553
78730SOL    HW138029  14.738   6.473   8.536
78730SOL    HW238030  14.764   6.588   8.631
78731SOL     OW38031   9.323   2.975  10.059
78731SOL    HW138032   9.277   2.941  10.136
78731SOL    HW238033   9.366   2.899  10.020
78732SOL     OW38034   1.460   9.546   1.636
78732SOL    HW138035   1.498   9.466   1.672
78732SOL    HW238036   1.422   9.519   1.552
78733SOL     OW38037  13.029   8.617   4.853
78733SOL    HW138038  13.038   8.562   4.931
78733SOL    HW238039  12.948   8.588   4.812
78734SOL     OW38040   7.162  14.733   0.192
78734SOL    HW138041   7.094  14.666   0.180
78734SOL    HW238042   7.223  14.719   0.119
78735SOL     OW38043  14.330  10.315   8.076
78735SOL    HW138044  14.335  10.337   7.982
78735SOL    HW238045  14.366  10.227   8.081
78736SOL     OW38046  13.542  14.417   8.488
78736SOL    HW138047  13.622  14.445   8.445
78736SOL    HW238048  13.553  14.443   8.580
78737SOL     OW38049   2.005   8.047   3.034
78737SOL    HW138050   2.082   8.099   3.057
78737SOL    HW238051   1.969   8.091   2.957
78738SOL     OW38052  12.279   9.902  13.468
78738SOL    HW138053  12.333   9.926  13.544
78738SOL    HW238054  12.198   9.951  13.481
78739SOL     OW38055   7.866  13.589   9.890
78739SOL    HW138056   7.794  13.555   9.943
78739SOL    HW238057   7.902  13.511   9.847
78740SOL     OW38058   5.139  14.624   2.387
78740SOL    HW138059   5.207  14.581   2.438
78740SOL    HW238060   5.168  14.617   2.297
78741SOL     OW38061   3.735   8.168   2.881
78741SOL    HW138062   3.815   8.220   2.893
78741SOL    HW238063   3.737   8.143   2.789
78742SOL     OW38064  13.995  10.674   1.146
78742SOL    HW138065  13.953  10.709   1.225
78742SOL    HW238066  13.955  10.587   1.135
78743SOL     OW38067   6.349   7.689  12.837
78743SOL    HW138068   6.437   7.726  12.844
78743SOL    HW238069   6.344   7.656  12.748
78744SOL     OW38070   7.749   4.687   2.310
78744SOL    HW138071   7.760   4.771   2.265
78744SOL    HW238072   7.782   4.622   2.248
78745SOL     OW38073   6.750   0.985   4.082
78745SOL    HW138074   6.833   0.969   4.036
78745SOL    HW238075   6.683   0.955   4.021
78746SOL     OW38076   9.273  11.759   1.918
78746SOL    HW138077   9.313  11.672   1.908
78746SOL    HW238078   9.336  11.818   1.878
78747SOL     OW38079   1.027   8.942   1.008
78747SOL    HW138080   1.068   8.890   1.077
78747SOL    HW238081   0.967   8.881   0.965
78748SOL     OW38082   7.320   0.907   1.467
78748SOL    HW138083   7.252   0.934   1.529
78748SOL    HW238084   7.279   0.915   1.381
78749SOL     OW38085   1.543   9.500   1.964
78749SOL    HW138086   1.539   9.427   1.903
78749SOL    HW238087   1.543   9.578   1.908
78750SOL     OW38088   9.676   7.626   1.190
78750SOL    HW138089   9.670   7.619   1.285
78750SOL    HW238090   9.617   7.558   1.158
78751SOL     OW38091  12.491   5.287   9.857
78751SOL    HW138092  12.485   5.204   9.810
78751SOL    HW238093  12.480   5.354   9.790
78752SOL     OW38094   3.949   3.287   9.405
78752SOL    HW138095   3.949   3.381   9.385
78752SOL    HW238096   4.007   3.249   9.339
78753SOL     OW38097   6.339   3.841   2.664
78753SOL    HW138098   6.419   3.789   2.660
78753SOL    HW238099   6.369   3.932   2.656
78754SOL     OW38100   7.232   7.808  11.011
78754SOL    HW138101   7.226   7.763  10.927
78754SOL    HW238102   7.170   7.761  11.068
78755SOL     OW38103   2.317  10.400   9.583
78755SOL    HW138104   2.239  10.360   9.544
78755SOL    HW238105   2.282  10.465   9.643
78756SOL     OW38106  12.965   3.512   9.249
78756SOL    HW138107  12.874   3.531   9.226
78756SOL    HW238108  12.961   3.485   9.341
78757SOL     OW38109   8.831   4.538   5.815
78757SOL    HW138110   8.750   4.530   5.866
78757SOL    HW238111   8.899   4.552   5.881
78758SOL     OW38112  12.369  13.981   8.673
78758SOL    HW138113  12.397  13.899   8.631
78758SOL    HW238114  12.407  13.977   8.761
78759SOL     OW38115   1.677  11.418  10.851
78759SOL    HW138116   1.601  11.382  10.897
78759SOL    HW238117   1.722  11.342  10.816
78760SOL     OW38118   4.082   7.819   3.673
78760SOL    HW138119   4.056   7.790   3.761
78760SOL    HW238120   4.010   7.875   3.644
78761SOL     OW38121  12.757   1.168   3.321
78761SOL    HW138122  12.763   1.258   3.289
78761SOL    HW238123  12.825   1.162   3.388
78762SOL     OW38124   9.571  14.545   2.530
78762SOL    HW138125   9.620  14.477   2.577
78762SOL    HW238126   9.596  14.627   2.574
78763SOL     OW38127   5.694  12.813   3.514
78763SOL    HW138128   5.756  12.784   3.581
78763SOL    HW238129   5.618  12.845   3.563
78764SOL     OW38130  13.618   2.818   9.639
78764SOL    HW138131  13.541   2.761   9.640
78764SOL    HW238132  13.643   2.823   9.546
78765SOL     OW38133   3.971   7.293   5.638
78765SOL    HW138134   4.022   7.237   5.696
78765SOL    HW238135   3.959   7.242   5.558
78766SOL     OW38136   8.940   7.439   2.969
78766SOL    HW138137   8.956   7.381   3.043
78766SOL    HW238138   8.897   7.515   3.007
78767SOL     OW38139   5.609  13.213   8.322
78767SOL    HW138140   5.613  13.274   8.396
78767SOL    HW238141   5.645  13.131   8.356
78768SOL     OW38142   7.849  12.963  13.587
78768SOL    HW138143   7.936  12.924  13.576
78768SOL    HW238144   7.794  12.892  13.617
78769SOL     OW38145   4.870   6.167  10.235
78769SOL    HW138146   4.873   6.131  10.147
78769SOL    HW238147   4.859   6.091  10.293
78770SOL     OW38148   5.298   1.544   2.575
78770SOL    HW138149   5.294   1.466   2.521
78770SOL    HW238150   5.289   1.617   2.513
78771SOL     OW38151  13.915   7.306   0.644
78771SOL    HW138152  13.917   7.231   0.584
78771SOL    HW238153  13.834   7.353   0.621
78772SOL     OW38154  11.260   4.705  14.228
78772SOL    HW138155  11.215   4.645  14.288
78772SOL    HW238156  11.209   4.786  14.232
78773SOL     OW38157   8.332  12.565   6.675
78773SOL    HW138158   8.330  12.641   6.617
78773SOL    HW238159   8.405  12.581   6.734
78774SOL     OW38160  11.056  13.548   0.039
78774SOL    HW138161  11.130  13.561  14.862
78774SOL    HW238162  11.085  13.482   0.101
78775SOL     OW38163  12.958   0.961  12.697
78775SOL    HW138164  12.893   0.980  12.629
78775SOL    HW238165  12.961   1.041  12.750
78776SOL     OW38166   4.721  12.663   5.434
78776SOL    HW138167   4.657  12.693   5.369
78776SOL    HW238168   4.791  12.728   5.429
78777SOL     OW38169   0.880   1.502   8.688
78777SOL    HW138170   0.937   1.434   8.652
78777SOL    HW238171   0.904   1.582   8.640
78778SOL     OW38172  14.432   0.205  10.188
78778SOL    HW138173  14.429   0.276  10.251
78778SOL    HW238174  14.365   0.143  10.217
78779SOL     OW38175  12.488   0.109  14.244
78779SOL    HW138176  12.508   0.197  14.278
78779SOL    HW238177  12.506   0.116  14.150
78780SOL     OW38178   4.511   4.774  13.671
78780SOL    HW138179   4.477   4.772  13.760
78780SOL    HW238180   4.481   4.858  13.636
78781SOL     OW38181  10.131   7.640   8.502
78781SOL    HW138182  10.137   7.560   8.450
78781SOL    HW238183  10.178   7.619   8.583
78782SOL     OW38184  11.236   4.899  13.898
78782SOL    HW138185  11.214   4.880  13.807
78782SOL    HW238186  11.250   4.993  13.901
78783SOL     OW38187  13.848   2.146  14.553
78783SOL    HW138188  13.863   2.233  14.518
78783SOL    HW238189  13.760   2.122  14.522
78784SOL     OW38190  11.825   0.338   4.534
78784SOL    HW138191  11.885   0.264   4.523
78784SOL    HW238192  11.803   0.364   4.445
78785SOL     OW38193  12.297   1.699   8.544
78785SOL    HW138194  12.366   1.761   8.568
78785SOL    HW238195  12.217   1.751   8.545
78786SOL     OW38196   0.102   2.604   2.517
78786SOL    HW138197   0.080   2.579   2.428
78786SOL    HW238198   0.075   2.529   2.571
78787SOL     OW38199   5.657   9.824   7.276
78787SOL    HW138200   5.666   9.861   7.188
78787SOL    HW238201   5.598   9.749   7.265
78788SOL     OW38202   0.015  13.258   9.748
78788SOL    HW138203   0.094  13.229   9.794
78788SOL    HW238204  14.829  13.261   9.816
78789SOL     OW38205   5.405   8.942   3.130
78789SOL    HW138206   5.360   8.903   3.204
78789SOL    HW238207   5.343   8.937   3.058
78790SOL     OW38208  11.403   7.841   1.582
78790SOL    HW138209  11.476   7.808   1.530
78790SOL    HW238210  11.380   7.924   1.540
78791SOL     OW38211   8.162   3.715   7.585
78791SOL    HW138212   8.103   3.720   7.660
78791SOL    HW238213   8.166   3.622   7.563
78792SOL     OW38214  10.516   6.179   7.981
78792SOL    HW138215  10.579   6.244   7.950
78792SOL    HW238216  10.564   6.126   8.044
78793SOL     OW38217  14.465   2.785   9.630
78793SOL    HW138218  14.551   2.747   9.649
78793SOL    HW238219  14.445   2.838   9.707
78794SOL     OW38220  10.658  14.835   6.850
78794SOL    HW138221  10.656  14.837   6.946
78794SOL    HW238222  10.569  14.857   6.824
78795SOL     OW38223   5.820  14.694  12.860
78795SOL    HW138224   5.726  14.711  12.853
78795SOL    HW238225   5.855  14.717  12.774
78796SOL     OW38226  12.450  11.825   2.646
78796SOL    HW138227  12.411  11.911   2.633
78796SOL    HW238228  12.525  11.841   2.703
78797SOL     OW38229   9.359  14.240   8.289
78797SOL    HW138230   9.333  14.301   8.220
78797SOL    HW238231   9.397  14.166   8.242
78798SOL     OW38232   0.891  11.430  11.026
78798SOL    HW138233   0.912  11.438  10.933
78798SOL    HW238234   0.968  11.466  11.071
78799SOL     OW38235  14.810   0.623   8.387
78799SOL    HW138236  14.877   0.675   8.432
78799SOL    HW238237  14.831   0.632   8.295
78800SOL     OW38238   1.934   6.120   2.910
78800SOL    HW138239   1.861   6.132   2.849
78800SOL    HW238240   1.908   6.045   2.964
78801SOL     OW38241   6.272   2.998   1.485
78801SOL    HW138242   6.358   2.960   1.502
78801SOL    HW238243   6.285   3.060   1.414
78802SOL     OW38244  13.658   7.745  12.800
78802SOL    HW138245  13.619   7.753  12.713
78802SOL    HW238246  13.645   7.831  12.840
78803SOL     OW38247  11.011  10.203  11.419
78803SOL    HW138248  11.045  10.213  11.507
78803SOL    HW238249  11.087  10.216  11.362
78804SOL     OW38250   8.929   2.535  13.419
78804SOL    HW138251   8.922   2.563  13.510
78804SOL    HW238252   8.838   2.526  13.390
78805SOL     OW38253   0.114   8.307   6.497
78805SOL    HW138254   0.045   8.258   6.541
78805SOL    HW238255   0.068   8.366   6.438
78806SOL     OW38256   7.812  10.086   2.336
78806SOL    HW138257   7.871  10.016   2.308
78806SOL    HW238258   7.792  10.065   2.428
78807SOL     OW38259  13.159   5.712  13.007
78807SOL    HW138260  13.160   5.617  13.018
78807SOL    HW238261  13.084   5.741  13.059
78808SOL     OW38262   2.385  11.127   0.765
78808SOL    HW138263   2.453  11.180   0.723
78808SOL    HW238264   2.323  11.191   0.800
78809SOL     OW38265   8.187   3.205   6.128
78809SOL    HW138266   8.137   3.287   6.131
78809SOL    HW238267   8.121   3.138   6.111
78810SOL     OW38268  12.547   9.961  10.880
78810SOL    HW138269  12.560  10.007  10.796
78810SOL    HW238270  12.562   9.869  10.859
78811SOL     OW38271  10.956   8.459   0.228
78811SOL    HW138272  10.897   8.398   0.272
78811SOL    HW238273  11.006   8.499   0.300
78812SOL     OW38274   4.813  12.495   1.192
78812SOL    HW138275   4.784  12.409   1.223
78812SOL    HW238276   4.755  12.513   1.118
78813SOL     OW38277  13.953  12.038   7.595
78813SOL    HW138278  14.047  12.026   7.579
78813SOL    HW238279  13.949  12.102   7.667
78814SOL     OW38280   6.288   7.890  14.128
78814SOL    HW138281   6.242   7.810  14.154
78814SOL    HW238282   6.346   7.862  14.057
78815SOL     OW38283   4.279  11.100   7.095
78815SOL    HW138284   4.252  11.079   7.005
78815SOL    HW238285   4.225  11.043   7.150
78816SOL     OW38286   3.030   8.915   9.877
78816SOL    HW138287   3.015   8.832   9.832
78816SOL    HW238288   3.043   8.979   9.807
78817SOL     OW38289   4.807   6.147  13.885
78817SOL    HW138290   4.821   6.154  13.791
78817SOL    HW238291   4.887   6.105  13.917
78818SOL     OW38292   4.337   4.462   6.909
78818SOL    HW138293   4.401   4.510   6.857
78818SOL    HW238294   4.254   4.508   6.893
78819SOL     OW38295  13.238  11.206   1.994
78819SOL    HW138296  13.213  11.197   2.086
78819SOL    HW238297  13.328  11.175   1.991
78820SOL     OW38298  10.422   5.490   0.605
78820SOL    HW138299  10.496   5.470   0.548
78820SOL    HW238300  10.345   5.479   0.550
78821SOL     OW38301   3.792   1.550   0.608
78821SOL    HW138302   3.782   1.504   0.525
78821SOL    HW238303   3.856   1.499   0.656
78822SOL     OW38304  14.034   5.030   6.475
78822SOL    HW138305  14.039   5.099   6.409
78822SOL    HW238306  14.077   4.955   6.435
78823SOL     OW38307  14.404   0.252  14.275
78823SOL    HW138308  14.475   0.214  14.223
78823SOL    HW238309  14.445   0.274  14.359
78824SOL     OW38310   0.043  13.671   1.486
78824SOL    HW138311  14.847  13.616   1.480
78824SOL    HW238312   0.027  13.742   1.424
78825SOL     OW38313   6.804   1.308   8.112
78825SOL    HW138314   6.770   1.318   8.023
78825SOL    HW238315   6.815   1.398   8.143
78826SOL     OW38316   6.632   3.759  11.038
78826SOL    HW138317   6.668   3.718  11.117
78826SOL    HW238318   6.551   3.801  11.067
78827SOL     OW38319  11.327  10.794   6.779
78827SOL    HW138320  11.311  10.843   6.860
78827SOL    HW238321  11.321  10.702   6.806
78828SOL     OW38322  13.945  12.324   4.879
78828SOL    HW138323  13.853  12.351   4.884
78828SOL    HW238324  13.941  12.228   4.875
78829SOL     OW38325   6.744   6.567  12.544
78829SOL    HW138326   6.738   6.592  12.452
78829SOL    HW238327   6.792   6.484  12.544
78830SOL     OW38328  13.086   1.701  14.636
78830SOL    HW138329  13.069   1.622  14.688
78830SOL    HW238330  13.171   1.732  14.666
78831SOL     OW38331   6.917   4.250  10.235
78831SOL    HW138332   6.974   4.324  10.214
78831SOL    HW238333   6.976   4.181  10.263
78832SOL     OW38334   7.892   1.963   2.030
78832SOL    HW138335   7.985   1.981   2.021
78832SOL    HW238336   7.851   2.011   1.957
78833SOL     OW38337   0.460  11.574   2.742
78833SOL    HW138338   0.395  11.643   2.755
78833SOL    HW238339   0.497  11.593   2.656
78834SOL     OW38340  12.687  13.753   6.040
78834SOL    HW138341  12.770  13.706   6.050
78834SOL    HW238342  12.620  13.686   6.051
78835SOL     OW38343   3.735  10.635  12.793
78835SOL    HW138344   3.775  10.560  12.837
78835SOL    HW238345   3.809  10.687  12.762
78836SOL     OW38346  13.779   8.921   6.090
78836SOL    HW138347  13.867   8.905   6.057
78836SOL    HW238348  13.748   8.834   6.117
78837SOL     OW38349   9.299  14.841   6.468
78837SOL    HW138350   9.380   0.008   6.453
78837SOL    HW238351   9.231   0.027   6.468
78838SOL     OW38352   4.344   4.209   3.956
78838SOL    HW138353   4.422   4.227   4.009
78838SOL    HW238354   4.320   4.119   3.979
78839SOL     OW38355   1.897   9.586   0.226
78839SOL    HW138356   1.838   9.512   0.213
78839SOL    HW238357   1.981   9.556   0.193
78840SOL     OW38358   6.012   9.781  12.809
78840SOL    HW138359   6.039   9.821  12.726
78840SOL    HW238360   5.963   9.850  12.854
78841SOL     OW38361   2.542   2.841   9.293
78841SOL    HW138362   2.561   2.816   9.384
78841SOL    HW238363   2.511   2.931   9.298
78842SOL     OW38364   7.323   4.356   4.474
78842SOL    HW138365   7.325   4.450   4.493
78842SOL    HW238366   7.229   4.335   4.471
78843SOL     OW38367   7.749   0.484  14.161
78843SOL    HW138368   7.717   0.405  14.204
78843SOL    HW238369   7.840   0.492  14.190
78844SOL     OW38370   3.442   3.490  10.778
78844SOL    HW138371   3.406   3.451  10.857
78844SOL    HW238372   3.412   3.582  10.781
78845SOL     OW38373  11.954   2.347  10.778
78845SOL    HW138374  12.041   2.355  10.740
78845SOL    HW238375  11.945   2.254  10.800
78846SOL     OW38376  14.397   3.216   6.135
78846SOL    HW138377  14.488   3.242   6.149
78846SOL    HW238378  14.382   3.229   6.042
78847SOL     OW38379   1.867   7.885   3.981
78847SOL    HW138380   1.785   7.932   3.968
78847SOL    HW238381   1.846   7.794   3.959
78848SOL     OW38382   3.724   4.822  11.249
78848SOL    HW138383   3.715   4.917  11.242
78848SOL    HW238384   3.652   4.787  11.196
78849SOL     OW38385   2.361   6.150   4.318
78849SOL    HW138386   2.282   6.097   4.312
78849SOL    HW238387   2.410   6.129   4.239
78850SOL     OW38388   6.714  12.679   7.761
78850SOL    HW138389   6.778  12.750   7.763
78850SOL    HW238390   6.758  12.605   7.804
78851SOL     OW38391  14.232   4.494  13.643
78851SOL    HW138392  14.254   4.514  13.734
78851SOL    HW238393  14.237   4.578  13.598
78852SOL     OW38394  10.521   4.589   4.221
78852SOL    HW138395  10.444   4.645   4.207
78852SOL    HW238396  10.486   4.500   4.228
78853SOL     OW38397   8.521  13.489   1.808
78853SOL    HW138398   8.461  13.454   1.742
78853SOL    HW238399   8.607  13.488   1.765
78854SOL     OW38400   6.562   9.812  12.152
78854SOL    HW138401   6.531   9.902  12.145
78854SOL    HW238402   6.635   9.807  12.091
78855SOL     OW38403  10.331  12.906   7.832
78855SOL    HW138404  10.291  12.832   7.877
78855SOL    HW238405  10.284  12.983   7.864
78856SOL     OW38406  12.345  10.926  12.166
78856SOL    HW138407  12.425  10.877  12.182
78856SOL    HW238408  12.365  10.979  12.088
78857SOL     OW38409   4.777   1.286  14.466
78857SOL    HW138410   4.780   1.236  14.384
78857SOL    HW238411   4.746   1.223  14.531
78858SOL     OW38412  14.311   4.205   3.085
78858SOL    HW138413  14.334   4.130   3.139
78858SOL    HW238414  14.289   4.274   3.148
78859SOL     OW38415   0.236   4.396   1.712
78859SOL    HW138416   0.223   4.482   1.673
78859SOL    HW238417   0.163   4.385   1.773
78860SOL     OW38418  11.442   9.462   8.492
78860SOL    HW138419  11.442   9.375   8.532
78860SOL    HW238420  11.492   9.451   8.411
78861SOL     OW38421   7.631  12.482  10.192
78861SOL    HW138422   7.701  12.419  10.176
78861SOL    HW238423   7.599  12.460  10.279
78862SOL     OW38424   8.397   5.630   0.053
78862SOL    HW138425   8.396   5.560  14.870
78862SOL    HW238426   8.305   5.656   0.060
78863SOL     OW38427  11.999  10.203   9.704
78863SOL    HW138428  12.035  10.197   9.616
78863SOL    HW238429  12.013  10.294   9.730
78864SOL     OW38430   1.039  10.006   6.790
78864SOL    HW138431   1.102  10.043   6.852
78864SOL    HW238432   1.025  10.075   6.725
78865SOL     OW38433   0.217   7.456   0.092
78865SOL    HW138434   0.286   7.522   0.100
78865SOL    HW238435   0.213   7.437  14.880
78866SOL     OW38436  12.402   1.390   6.515
78866SOL    HW138437  12.496   1.396   6.532
78866SOL    HW238438  12.387   1.298   6.494
78867SOL     OW38439   9.819  12.282   8.831
78867SOL    HW138440   9.779  12.357   8.876
78867SOL    HW238441   9.747  12.244   8.781
78868SOL     OW38442   0.504   1.829  11.085
78868SOL    HW138443   0.425   1.785  11.118
78868SOL    HW238444   0.571   1.761  11.087
78869SOL     OW38445  13.415   1.100   5.765
78869SOL    HW138446  13.471   1.135   5.697
78869SOL    HW238447  13.441   1.147   5.844
78870SOL     OW38448  12.058   8.046  12.589
78870SOL    HW138449  12.033   7.976  12.649
78870SOL    HW238450  12.034   8.014  12.502
78871SOL     OW38451   4.441  10.988   8.933
78871SOL    HW138452   4.370  10.998   8.996
78871SOL    HW238453   4.446  10.894   8.917
78872SOL     OW38454   3.837   3.025   8.150
78872SOL    HW138455   3.759   2.973   8.167
78872SOL    HW238456   3.810   3.088   8.083
78873SOL     OW38457   9.749  13.279   4.034
78873SOL    HW138458   9.827  13.258   3.981
78873SOL    HW238459   9.712  13.356   3.992
78874SOL     OW38460   4.522  14.640   5.485
78874SOL    HW138461   4.488  14.729   5.473
78874SOL    HW238462   4.477  14.588   5.419
78875SOL     OW38463  10.159  13.591  12.586
78875SOL    HW138464  10.063  13.600  12.582
78875SOL    HW238465  10.189  13.674  12.623
78876SOL     OW38466   5.357  11.949   6.796
78876SOL    HW138467   5.274  11.955   6.844
78876SOL    HW238468   5.392  12.038   6.797
78877SOL     OW38469   7.829   6.590   9.076
78877SOL    HW138470   7.750   6.583   9.023
78877SOL    HW238471   7.841   6.503   9.114
78878SOL     OW38472   1.659  12.794   8.235
78878SOL    HW138473   1.718  12.799   8.310
78878SOL    HW238474   1.618  12.881   8.231
78879SOL     OW38475  13.533   5.942  10.788
78879SOL    HW138476  13.520   5.939  10.693
78879SOL    HW238477  13.486   5.865  10.821
78880SOL     OW38478   8.860  10.536   6.591
78880SOL    HW138479   8.935  10.560   6.645
78880SOL    HW238480   8.813  10.470   6.642
78881SOL     OW38481  12.037  10.285   7.502
78881SOL    HW138482  12.098  10.231   7.451
78881SOL    HW238483  12.050  10.374   7.469
78882SOL     OW38484  10.668  12.563   5.799
78882SOL    HW138485  10.691  12.655   5.812
78882SOL    HW238486  10.620  12.561   5.716
78883SOL     OW38487   1.582   9.290  12.205
78883SOL    HW138488   1.655   9.349  12.187
78883SOL    HW238489   1.611   9.205  12.173
78884SOL     OW38490   5.118  12.672  13.945
78884SOL    HW138491   5.077  12.670  13.858
78884SOL    HW238492   5.212  12.668  13.927
78885SOL     OW38493   9.979   4.727   1.057
78885SOL    HW138494   9.915   4.750   1.124
78885SOL    HW238495   9.966   4.792   0.988
78886SOL     OW38496   7.347   5.515   5.181
78886SOL    HW138497   7.309   5.431   5.206
78886SOL    HW238498   7.273   5.575   5.178
78887SOL     OW38499  12.205   7.865   5.088
78887SOL    HW138500  12.189   7.934   5.152
78887SOL    HW238501  12.278   7.815   5.125
78888SOL     OW38502   2.900   0.600   9.158
78888SOL    HW138503   2.822   0.546   9.149
78888SOL    HW238504   2.968   0.552   9.111
78889SOL     OW38505   2.599   9.397   7.676
78889SOL    HW138506   2.576   9.472   7.730
78889SOL    HW238507   2.553   9.411   7.593
78890SOL     OW38508   1.009   2.907  11.600
78890SOL    HW138509   0.936   2.859  11.560
78890SOL    HW238510   0.988   2.999  11.585
78891SOL     OW38511   7.909   5.842   0.433
78891SOL    HW138512   7.833   5.783   0.439
78891SOL    HW238513   7.909   5.872   0.343
78892SOL     OW38514   5.606   3.208   6.736
78892SOL    HW138515   5.549   3.226   6.661
78892SOL    HW238516   5.614   3.292   6.781
78893SOL     OW38517   4.462   2.799   8.985
78893SOL    HW138518   4.465   2.758   8.899
78893SOL    HW238519   4.494   2.888   8.970
78894SOL     OW38520  13.516   6.108   4.275
78894SOL    HW138521  13.596   6.148   4.309
78894SOL    HW238522  13.536   6.015   4.271
78895SOL     OW38523  12.904  12.687   9.255
78895SOL    HW138524  12.850  12.611   9.230
78895SOL    HW238525  12.895  12.747   9.181
78896SOL     OW38526   7.044   8.484   8.562
78896SOL    HW138527   7.085   8.488   8.476
78896SOL    HW238528   7.077   8.403   8.601
78897SOL     OW38529   3.556   5.277  10.592
78897SOL    HW138530   3.599   5.337  10.653
78897SOL    HW238531   3.493   5.332  10.545
78898SOL     OW38532   5.189   3.581   9.503
78898SOL    HW138533   5.099   3.575   9.535
78898SOL    HW238534   5.224   3.658   9.548
78899SOL     OW38535   9.785  10.190  14.347
78899SOL    HW138536   9.820  10.161  14.263
78899SOL    HW238537   9.816  10.280  14.356
78900SOL     OW38538   3.704  14.135   2.478
78900SOL    HW138539   3.671  14.108   2.393
78900SOL    HW238540   3.727  14.054   2.522
78901SOL     OW38541   0.069   6.567   0.797
78901SOL    HW138542  14.878   6.580   0.858
78901SOL    HW238543   0.085   6.473   0.800
78902SOL     OW38544  11.131  12.734  11.609
78902SOL    HW138545  11.166  12.792  11.542
78902SOL    HW238546  11.036  12.743  11.602
78903SOL     OW38547   5.801   4.968   8.912
78903SOL    HW138548   5.736   4.988   8.845
78903SOL    HW238549   5.774   5.021   8.988
78904SOL     OW38550   6.170   3.202   7.461
78904SOL    HW138551   6.094   3.259   7.469
78904SOL    HW238552   6.170   3.150   7.541
78905SOL     OW38553  11.172   0.344   5.175
78905SOL    HW138554  11.149   0.411   5.239
78905SOL    HW238555  11.147   0.262   5.217
78906SOL     OW38556   6.011  10.858  14.452
78906SOL    HW138557   6.099  10.874  14.487
78906SOL    HW238558   6.000  10.922  14.382
78907SOL     OW38559  14.499  13.073   9.181
78907SOL    HW138560  14.555  13.149   9.167
78907SOL    HW238561  14.536  13.005   9.124
78908SOL     OW38562   7.688  13.570   7.289
78908SOL    HW138563   7.729  13.656   7.294
78908SOL    HW238564   7.713  13.526   7.370
78909SOL     OW38565  11.902   6.014   9.770
78909SOL    HW138566  11.982   6.006   9.719
78909SOL    HW238567  11.896   6.108   9.791
78910SOL     OW38568   1.653   9.435   9.142
78910SOL    HW138569   1.592   9.440   9.216
78910SOL    HW238570   1.596   9.420   9.066
78911SOL     OW38571   2.839   0.259   2.951
78911SOL    HW138572   2.747   0.283   2.959
78911SOL    HW238573   2.840   0.179   2.898
78912SOL     OW38574   0.702  14.509   4.272
78912SOL    HW138575   0.713  14.603   4.259
78912SOL    HW238576   0.625  14.501   4.329
78913SOL     OW38577  11.540  12.813   3.832
78913SOL    HW138578  11.529  12.908   3.821
78913SOL    HW238579  11.634  12.798   3.823
78914SOL     OW38580  14.463  13.879  14.531
78914SOL    HW138581  14.542  13.933  14.535
78914SOL    HW238582  14.442  13.875  14.438
78915SOL     OW38583  14.279   1.726  11.056
78915SOL    HW138584  14.198   1.764  11.023
78915SOL    HW238585  14.323   1.799  11.100
78916SOL     OW38586   8.364   6.389  12.853
78916SOL    HW138587   8.452   6.391  12.815
78916SOL    HW238588   8.366   6.457  12.921
78917SOL     OW38589   8.734  12.113   1.372
78917SOL    HW138590   8.800  12.121   1.441
78917SOL    HW238591   8.773  12.154   1.295
78918SOL     OW38592  13.795   2.021  12.178
78918SOL    HW138593  13.713   1.988  12.140
78918SOL    HW238594  13.796   2.114  12.154
78919SOL     OW38595   3.613   8.941  12.129
78919SOL    HW138596   3.629   8.958  12.037
78919SOL    HW238597   3.607   9.027  12.170
78920SOL     OW38598   1.825  13.261   0.130
78920SOL    HW138599   1.783  13.344   0.148
78920SOL    HW238600   1.883  13.246   0.205
78921SOL     OW38601   5.170   0.143   0.704
78921SOL    HW138602   5.152   0.084   0.631
78921SOL    HW238603   5.265   0.146   0.710
78922SOL     OW38604   6.820   8.260   3.515
78922SOL    HW138605   6.784   8.183   3.472
78922SOL    HW238606   6.744   8.304   3.554
78923SOL     OW38607   4.425  13.903  14.369
78923SOL    HW138608   4.426  13.971  14.437
78923SOL    HW238609   4.400  13.949  14.289
78924SOL     OW38610  11.078   4.140   1.904
78924SOL    HW138611  11.123   4.151   1.820
78924SOL    HW238612  11.117   4.061   1.942
78925SOL     OW38613   2.739   8.874   5.677
78925SOL    HW138614   2.734   8.947   5.615
78925SOL    HW238615   2.661   8.883   5.732
78926SOL     OW38616   1.576   2.017   3.663
78926SOL    HW138617   1.588   2.031   3.757
78926SOL    HW238618   1.494   1.967   3.657
78927SOL     OW38619   2.327  13.984  13.004
78927SOL    HW138620   2.297  13.954  12.918
78927SOL    HW238621   2.420  13.961  13.006
78928SOL     OW38622  14.319   0.731   8.253
78928SOL    HW138623  14.300   0.660   8.315
78928SOL    HW238624  14.278   0.808   8.292
78929SOL     OW38625  10.381   2.887   8.652
78929SOL    HW138626  10.443   2.906   8.723
78929SOL    HW238627  10.432   2.837   8.588
78930SOL     OW38628  11.026   2.374  14.681
78930SOL    HW138629  11.092   2.436  14.650
78930SOL    HW238630  11.051   2.356  14.772
78931SOL     OW38631   3.263   3.543   1.265
78931SOL    HW138632   3.267   3.452   1.237
78931SOL    HW238633   3.349   3.579   1.241
78932SOL     OW38634   2.365  13.067  12.485
78932SOL    HW138635   2.317  13.030  12.411
78932SOL    HW238636   2.326  13.154  12.498
78933SOL     OW38637  12.175   1.678   7.463
78933SOL    HW138638  12.178   1.589   7.429
78933SOL    HW238639  12.091   1.713   7.433
78934SOL     OW38640  10.563  10.487   0.890
78934SOL    HW138641  10.539  10.579   0.875
78934SOL    HW238642  10.655  10.482   0.865
78935SOL     OW38643  12.556   2.785   4.967
78935SOL    HW138644  12.648   2.783   4.994
78935SOL    HW238645  12.550   2.720   4.897
78936SOL     OW38646  13.995   5.984   0.112
78936SOL    HW138647  13.925   5.988   0.048
78936SOL    HW238648  14.072   6.021   0.067
78937SOL     OW38649   0.526   1.806  12.292
78937SOL    HW138650   0.481   1.882  12.256
78937SOL    HW238651   0.456   1.742  12.307
78938SOL     OW38652   3.619  10.212  12.262
78938SOL    HW138653   3.605  10.136  12.318
78938SOL    HW238654   3.644  10.174  12.177
78939SOL     OW38655  10.031  10.729   2.711
78939SOL    HW138656  10.031  10.799   2.776
78939SOL    HW238657  10.119  10.691   2.717
78940SOL     OW38658  12.029   2.819  12.938
78940SOL    HW138659  12.054   2.763  12.865
78940SOL    HW238660  12.106   2.874  12.954
78941SOL     OW38661  12.004   1.912  13.896
78941SOL    HW138662  11.915   1.917  13.930
78941SOL    HW238663  12.048   1.850  13.953
78942SOL     OW38664  12.216  12.030   7.318
78942SOL    HW138665  12.175  11.957   7.365
78942SOL    HW238666  12.308  12.027   7.344
78943SOL     OW38667   0.923  12.011  13.355
78943SOL    HW138668   0.991  11.945  13.366
78943SOL    HW238669   0.917  12.024  13.261
78944SOL     OW38670   7.897   0.718  11.538
78944SOL    HW138671   7.879   0.680  11.624
78944SOL    HW238672   7.849   0.661  11.477
78945SOL     OW38673  10.672   4.009   6.507
78945SOL    HW138674  10.671   3.996   6.412
78945SOL    HW238675  10.726   3.938   6.541
78946SOL     OW38676   3.958   8.500  13.769
78946SOL    HW138677   4.049   8.482  13.746
78946SOL    HW238678   3.908   8.466  13.696
78947SOL     OW38679   6.735   9.013   8.347
78947SOL    HW138680   6.753   9.095   8.301
78947SOL    HW238681   6.673   8.967   8.289
78948SOL     OW38682   5.123  12.950  11.948
78948SOL    HW138683   5.064  13.000  12.006
78948SOL    HW238684   5.134  12.866  11.992
78949SOL     OW38685  10.314  10.379   0.779
78949SOL    HW138686  10.395  10.424   0.803
78949SOL    HW238687  10.343  10.297   0.739
78950SOL     OW38688   8.586  11.670   9.548
78950SOL    HW138689   8.680  11.684   9.553
78950SOL    HW238690   8.576  11.580   9.518
78951SOL     OW38691  11.815   0.222  10.970
78951SOL    HW138692  11.836   0.193  11.059
78951SOL    HW238693  11.883   0.183  10.915
78952SOL     OW38694  14.414   9.044   1.296
78952SOL    HW138695  14.341   9.097   1.328
78952SOL    HW238696  14.374   8.963   1.265
78953SOL     OW38697   6.922   1.740   2.345
78953SOL    HW138698   6.937   1.697   2.429
78953SOL    HW238699   7.003   1.726   2.296
78954SOL     OW38700  10.456   4.750  13.957
78954SOL    HW138701  10.404   4.749  13.877
78954SOL    HW238702  10.546   4.742  13.927
78955SOL     OW38703   1.615   3.988  13.899
78955SOL    HW138704   1.670   3.970  13.823
78955SOL    HW238705   1.598   3.901  13.938
78956SOL     OW38706   4.375   8.041   3.312
78956SOL    HW138707   4.438   8.024   3.382
78956SOL    HW238708   4.290   8.038   3.355
78957SOL     OW38709  13.277  13.065   5.040
78957SOL    HW138710  13.200  13.064   5.097
78957SOL    HW238711  13.274  12.982   4.994
78958SOL     OW38712   5.903  13.166   8.218
78958SOL    HW138713   5.958  13.200   8.288
78958SOL    HW238714   5.838  13.112   8.262
78959SOL     OW38715   0.489   6.445   4.350
78959SOL    HW138716   0.532   6.369   4.311
78959SOL    HW238717   0.547   6.518   4.328
78960SOL     OW38718   1.433   5.543   6.502
78960SOL    HW138719   1.462   5.545   6.593
78960SOL    HW238720   1.390   5.627   6.488
78961SOL     OW38721   6.416   7.117   4.860
78961SOL    HW138722   6.345   7.096   4.920
78961SOL    HW238723   6.482   7.160   4.914
78962SOL     OW38724  12.412   9.233  13.430
78962SOL    HW138725  12.369   9.147  13.430
78962SOL    HW238726  12.355   9.288  13.377
78963SOL     OW38727   4.463  12.774  13.828
78963SOL    HW138728   4.470  12.869  13.819
78963SOL    HW238729   4.549  12.741  13.803
78964SOL     OW38730   8.741   0.005  11.316
78964SOL    HW138731   8.718  14.795  11.309
78964SOL    HW238732   8.746   0.022  11.410
78965SOL     OW38733  12.908   3.086  12.792
78965SOL    HW138734  12.922   3.089  12.697
78965SOL    HW238735  12.837   3.148  12.807
78966SOL     OW38736   8.290  11.803   8.946
78966SOL    HW138737   8.225  11.780   9.013
78966SOL    HW238738   8.306  11.897   8.961
78967SOL     OW38739   3.933   6.820  10.637
78967SOL    HW138740   4.026   6.817  10.658
78967SOL    HW238741   3.890   6.845  10.719
78968SOL     OW38742   9.607   6.699   4.183
78968SOL    HW138743   9.623   6.793   4.192
78968SOL    HW238744   9.512   6.692   4.169
78969SOL     OW38745   0.702   1.411   0.122
78969SOL    HW138746   0.607   1.417   0.115
78969SOL    HW238747   0.722   1.321   0.094
78970SOL     OW38748   6.451   5.687  14.192
78970SOL    HW138749   6.474   5.618  14.130
78970SOL    HW238750   6.356   5.694  14.185
78971SOL     OW38751   2.996  13.293   9.517
78971SOL    HW138752   2.923  13.294   9.579
78971SOL    HW238753   3.035  13.380   9.525
78972SOL     OW38754  12.011   2.851   6.708
78972SOL    HW138755  11.979   2.911   6.775
78972SOL    HW238756  11.934   2.831   6.654
78973SOL     OW38757   3.320   5.284   3.728
78973SOL    HW138758   3.385   5.339   3.771
78973SOL    HW238759   3.255   5.265   3.796
78974SOL     OW38760   8.444   5.775   6.158
78974SOL    HW138761   8.368   5.817   6.199
78974SOL    HW238762   8.464   5.831   6.083
78975SOL     OW38763  10.594   1.852   5.913
78975SOL    HW138764  10.616   1.944   5.930
78975SOL    HW238765  10.613   1.807   5.996
78976SOL     OW38766   6.961   8.674  12.912
78976SOL    HW138767   6.952   8.684  13.007
78976SOL    HW238768   6.955   8.763  12.877
78977SOL     OW38769   1.053   0.276   7.733
78977SOL    HW138770   1.007   0.193   7.723
78977SOL    HW238771   0.997   0.340   7.688
78978SOL     OW38772  13.107   3.570   2.013
78978SOL    HW138773  13.120   3.501   1.948
78978SOL    HW238774  13.136   3.531   2.096
78979SOL     OW38775   2.464   2.347   4.477
78979SOL    HW138776   2.406   2.422   4.486
78979SOL    HW238777   2.547   2.384   4.446
78980SOL     OW38778   3.668  13.395   2.841
78980SOL    HW138779   3.666  13.445   2.760
78980SOL    HW238780   3.579  13.402   2.876
78981SOL     OW38781  12.481   2.928   6.960
78981SOL    HW138782  12.416   2.983   6.915
78981SOL    HW238783  12.563   2.944   6.913
78982SOL     OW38784   8.083   3.277   9.063
78982SOL    HW138785   8.064   3.210   8.997
78982SOL    HW238786   8.035   3.248   9.141
78983SOL     OW38787   7.720  12.807   5.797
78983SOL    HW138788   7.796  12.808   5.738
78983SOL    HW238789   7.721  12.892   5.840
78984SOL     OW38790  12.480  11.581  12.341
78984SOL    HW138791  12.531  11.651  12.300
78984SOL    HW238792  12.410  11.563  12.278
78985SOL     OW38793  10.112   1.312  12.384
78985SOL    HW138794  10.056   1.275  12.315
78985SOL    HW238795  10.163   1.380  12.340
78986SOL     OW38796   0.250   7.019  12.129
78986SOL    HW138797   0.208   7.074  12.063
78986SOL    HW238798   0.307   6.961  12.079
78987SOL     OW38799  13.522   6.517   0.009
78987SOL    HW138800  13.601   6.571   0.001
78987SOL    HW238801  13.453   6.579   0.035
78988SOL     OW38802   0.902   5.588   9.897
78988SOL    HW138803   0.847   5.626   9.828
78988SOL    HW238804   0.987   5.633   9.887
78989SOL     OW38805  10.485  13.392   8.598
78989SOL    HW138806  10.436  13.402   8.679
78989SOL    HW238807  10.449  13.460   8.540
78990SOL     OW38808  10.435   7.014   8.023
78990SOL    HW138809  10.425   7.031   8.116
78990SOL    HW238810  10.478   7.093   7.989
78991SOL     OW38811  13.995   7.536   1.694
78991SOL    HW138812  14.064   7.499   1.749
78991SOL    HW238813  14.042   7.572   1.619
78992SOL     OW38814   3.427   2.759   0.157
78992SOL    HW138815   3.347   2.812   0.159
78992SOL    HW238816   3.402   2.677   0.200
78993SOL     OW38817  13.025  12.488   7.114
78993SOL    HW138818  13.003  12.567   7.064
78993SOL    HW238819  12.940  12.448   7.134
78994SOL     OW38820  12.089   1.705   6.913
78994SOL    HW138821  12.139   1.697   6.995
78994SOL    HW238822  12.139   1.653   6.850
78995SOL     OW38823  12.290   6.103   7.926
78995SOL    HW138824  12.317   6.011   7.933
78995SOL    HW238825  12.206   6.107   7.971
78996SOL     OW38826   6.830  11.327   0.336
78996SOL    HW138827   6.737  11.305   0.340
78996SOL    HW238828   6.841  11.398   0.399
78997SOL     OW38829   9.954   4.276   6.085
78997SOL    HW138830   9.880   4.288   6.026
78997SOL    HW238831  10.020   4.336   6.052
78998SOL     OW38832   1.731  11.915   6.956
78998SOL    HW138833   1.747  11.826   6.986
78998SOL    HW238834   1.817  11.948   6.930
78999SOL     OW38835   7.056   4.914   5.431
78999SOL    HW138836   7.045   4.859   5.353
78999SOL    HW238837   7.066   5.003   5.396
79000SOL     OW38838  11.799   0.121  10.476
79000SOL    HW138839  11.781   0.215  10.464
79000SOL    HW238840  11.727   0.078  10.428
79001SOL     OW38841   9.517  14.810   5.106
79001SOL    HW138842   9.612  14.810   5.110
79001SOL    HW238843   9.489  14.787   5.195
79002SOL     OW38844   6.846  14.544   2.966
79002SOL    HW138845   6.798  14.616   3.007
79002SOL    HW238846   6.778  14.483   2.938
79003SOL     OW38847   4.144   5.467   1.020
79003SOL    HW138848   4.073   5.507   1.070
79003SOL    HW238849   4.127   5.373   1.025
79004SOL     OW38850   1.217   7.024   9.967
79004SOL    HW138851   1.242   6.932   9.967
79004SOL    HW238852   1.130   7.025  10.007
79005SOL     OW38853   3.441   0.871  11.801
79005SOL    HW138854   3.423   0.963  11.782
79005SOL    HW238855   3.536   0.864  11.794
79006SOL     OW38856   6.271  11.395   1.142
79006SOL    HW138857   6.283  11.426   1.232
79006SOL    HW238858   6.177  11.395   1.128
79007SOL     OW38859  12.608  13.551  10.107
79007SOL    HW138860  12.633  13.597  10.187
79007SOL    HW238861  12.521  13.586  10.086
79008SOL     OW38862   2.350   2.306   3.662
79008SOL    HW138863   2.325   2.222   3.702
79008SOL    HW238864   2.442   2.317   3.687
79009SOL     OW38865   6.753   9.110   7.623
79009SOL    HW138866   6.691   9.044   7.594
79009SOL    HW238867   6.833   9.091   7.574
79010SOL     OW38868   1.933  14.169  12.143
79010SOL    HW138869   1.848  14.185  12.102
79010SOL    HW238870   1.914  14.158  12.236
79011SOL     OW38871   7.076   4.400  11.596
79011SOL    HW138872   7.108   4.350  11.671
79011SOL    HW238873   6.985   4.372  11.584
79012SOL     OW38874   0.006  11.980   0.106
79012SOL    HW138875   0.022  11.910   0.169
79012SOL    HW238876   0.044  11.949   0.024
79013SOL     OW38877   5.628  11.725   2.333
79013SOL    HW138878   5.549  11.705   2.282
79013SOL    HW238879   5.652  11.642   2.373
79014SOL     OW38880   6.417   6.281  14.167
79014SOL    HW138881   6.491   6.264  14.224
79014SOL    HW238882   6.422   6.374  14.146
79015SOL     OW38883   1.030   4.695  13.820
79015SOL    HW138884   1.048   4.644  13.898
79015SOL    HW238885   1.116   4.709  13.779
79016SOL     OW38886  11.935  14.789  10.580
79016SOL    HW138887  11.935  14.719  10.515
79016SOL    HW238888  11.899  14.865  10.533
79017SOL     OW38889  11.414   0.837   6.401
79017SOL    HW138890  11.435   0.803   6.314
79017SOL    HW238891  11.320   0.826   6.410
79018SOL     OW38892   0.181  10.024  13.566
79018SOL    HW138893   0.247  10.031  13.635
79018SOL    HW238894   0.175  10.112  13.529
79019SOL     OW38895   7.993  11.431  10.550
79019SOL    HW138896   7.910  11.456  10.589
79019SOL    HW238897   8.052  11.419  10.624
79020SOL     OW38898  11.569  13.592  14.261
79020SOL    HW138899  11.489  13.641  14.242
79020SOL    HW238900  11.634  13.627  14.200
79021SOL     OW38901   3.538   3.630   3.582
79021SOL    HW138902   3.591   3.553   3.561
79021SOL    HW238903   3.602   3.695   3.613
79022SOL     OW38904   9.824   9.508   4.776
79022SOL    HW138905   9.748   9.564   4.762
79022SOL    HW238906   9.899   9.567   4.771
79023SOL     OW38907   8.464  14.377   4.125
79023SOL    HW138908   8.519  14.321   4.071
79023SOL    HW238909   8.494  14.466   4.104
79024SOL     OW38910   1.359   0.331   0.016
79024SOL    HW138911   1.453   0.329  14.880
79024SOL    HW238912   1.322   0.382  14.826
79025SOL     OW38913  13.380   2.790   4.219
79025SOL    HW138914  13.379   2.729   4.146
79025SOL    HW238915  13.383   2.734   4.297
79026SOL     OW38916   2.894   0.097   9.848
79026SOL    HW138917   2.958   0.153   9.804
79026SOL    HW238918   2.812   0.146   9.842
79027SOL     OW38919  11.886   1.128   6.216
79027SOL    HW138920  11.943   1.080   6.276
79027SOL    HW238921  11.830   1.060   6.177
79028SOL     OW38922  10.881   2.524   2.442
79028SOL    HW138923  10.816   2.523   2.512
79028SOL    HW238924  10.929   2.606   2.455
79029SOL     OW38925  13.288   3.180   1.353
79029SOL    HW138926  13.285   3.253   1.415
79029SOL    HW238927  13.359   3.203   1.293
79030SOL     OW38928  12.821   2.165   2.451
79030SOL    HW138929  12.728   2.169   2.470
79030SOL    HW238930  12.828   2.196   2.360
79031SOL     OW38931  11.781  11.468  14.732
79031SOL    HW138932  11.770  11.463  14.827
79031SOL    HW238933  11.858  11.414  14.714
79032SOL     OW38934  13.886  12.078  14.683
79032SOL    HW138935  13.802  12.037  14.665
79032SOL    HW238936  13.944  12.006  14.706
79033SOL     OW38937  10.331   1.662   9.978
79033SOL    HW138938  10.391   1.625   9.913
79033SOL    HW238939  10.353   1.617  10.059
79034SOL     OW38940   0.119   0.481  11.437
79034SOL    HW138941   0.150   0.519  11.518
79034SOL    HW238942   0.110   0.387  11.456
79035SOL     OW38943   9.339   9.061  12.528
79035SOL    HW138944   9.385   9.145  12.520
79035SOL    HW238945   9.381   9.017  12.602
79036SOL     OW38946   8.226   9.938   6.525
79036SOL    HW138947   8.199   9.846   6.529
79036SOL    HW238948   8.154   9.983   6.482
79037SOL     OW38949   7.125   2.184  14.406
79037SOL    HW138950   7.160   2.096  14.388
79037SOL    HW238951   7.039   2.185  14.365
79038SOL     OW38952  10.588  11.342  10.414
79038SOL    HW138953  10.564  11.434  10.428
79038SOL    HW238954  10.550  11.321  10.328
79039SOL     OW38955  13.592  12.176  12.107
79039SOL    HW138956  13.565  12.267  12.099
79039SOL    HW238957  13.599  12.160  12.201
79040SOL     OW38958   2.876   6.898  13.628
79040SOL    HW138959   2.819   6.914  13.553
79040SOL    HW238960   2.901   6.985  13.658
79041SOL     OW38961  11.885   1.758   2.264
79041SOL    HW138962  11.955   1.772   2.328
79041SOL    HW238963  11.832   1.838   2.268
79042SOL     OW38964  14.460   6.610   3.992
79042SOL    HW138965  14.475   6.674   3.923
79042SOL    HW238966  14.366   6.592   3.989
79043SOL     OW38967   2.507   3.939   3.252
79043SOL    HW138968   2.420   3.914   3.221
79043SOL    HW238969   2.498   3.947   3.347
79044SOL     OW38970  12.427  13.447  12.843
79044SOL    HW138971  12.432  13.524  12.899
79044SOL    HW238972  12.430  13.373  12.904
79045SOL     OW38973  13.885   2.258   3.914
79045SOL    HW138974  13.818   2.287   3.975
79045SOL    HW238975  13.960   2.235   3.969
79046SOL     OW38976   0.141   2.146   8.495
79046SOL    HW138977   0.214   2.191   8.452
79046SOL    HW238978   0.107   2.087   8.428
79047SOL     OW38979   9.378   5.828  12.387
79047SOL    HW138980   9.300   5.776  12.407
79047SOL    HW238981   9.420   5.781  12.315
79048SOL     OW38982   0.146   8.759   5.190
79048SOL    HW138983   0.161   8.670   5.222
79048SOL    HW238984   0.233   8.792   5.170
79049SOL     OW38985   2.118   4.966   5.635
79049SOL    HW138986   2.131   4.912   5.713
79049SOL    HW238987   2.203   4.966   5.591
79050SOL     OW38988   3.477   4.400   7.340
79050SOL    HW138989   3.529   4.404   7.259
79050SOL    HW238990   3.512   4.471   7.394
79051SOL     OW38991   5.285   5.416   0.176
79051SOL    HW138992   5.330   5.439   0.095
79051SOL    HW238993   5.337   5.457   0.245
79052SOL     OW38994   5.027  12.870  11.217
79052SOL    HW138995   5.073  12.827  11.145
79052SOL    HW238996   4.997  12.799  11.273
79053SOL     OW38997   6.145   6.004  14.195
79053SOL    HW138998   6.219   5.972  14.246
79053SOL    HW238999   6.178   6.007  14.105
79054SOL     OW39000   3.508  12.294   4.103
79054SOL    HW139001   3.567  12.319   4.032
79054SOL    HW239002   3.528  12.202   4.119
79055SOL     OW39003   1.391  10.593   8.296
79055SOL    HW139004   1.449  10.584   8.220
79055SOL    HW239005   1.403  10.684   8.325
79056SOL     OW39006   1.363   3.004   0.131
79056SOL    HW139007   1.385   2.949   0.206
79056SOL    HW239008   1.346   2.943   0.060
79057SOL     OW39009  14.672   4.121  11.392
79057SOL    HW139010  14.665   4.028  11.415
79057SOL    HW239011  14.583   4.145  11.364
79058SOL     OW39012   0.140  10.788   5.382
79058SOL    HW139013   0.055  10.748   5.402
79058SOL    HW239014   0.202  10.743   5.440
79059SOL     OW39015  12.174  11.978  13.259
79059SOL    HW139016  12.212  11.925  13.189
79059SOL    HW239017  12.215  11.945  13.339
79060SOL     OW39018  10.720   8.634   6.057
79060SOL    HW139019  10.707   8.545   6.089
79060SOL    HW239020  10.644   8.682   6.089
79061SOL     OW39021  11.303  12.913   3.971
79061SOL    HW139022  11.299  12.869   4.056
79061SOL    HW239023  11.368  12.865   3.921
79062SOL     OW39024   2.100  11.425  11.938
79062SOL    HW139025   2.009  11.449  11.954
79062SOL    HW239026   2.110  11.431  11.843
79063SOL     OW39027   9.695   6.340  11.848
79063SOL    HW139028   9.638   6.301  11.782
79063SOL    HW239029   9.728   6.420  11.806
79064SOL     OW39030  10.671  10.008  13.275
79064SOL    HW139031  10.741   9.996  13.339
79064SOL    HW239032  10.718  10.022  13.192
79065SOL     OW39033   4.105   5.494   4.732
79065SOL    HW139034   4.153   5.415   4.757
79065SOL    HW239035   4.139   5.562   4.790
79066SOL     OW39036   2.281  13.973  13.699
79066SOL    HW139037   2.268  13.956  13.792
79066SOL    HW239038   2.208  14.029  13.674
79067SOL     OW39039   3.580   8.909   2.823
79067SOL    HW139040   3.588   8.825   2.777
79067SOL    HW239041   3.612   8.974   2.761
79068SOL     OW39042   0.289   0.791  11.126
79068SOL    HW139043   0.273   0.769  11.034
79068SOL    HW239044   0.212   0.841  11.152
79069SOL     OW39045   4.859   3.291  14.217
79069SOL    HW139046   4.941   3.241  14.223
79069SOL    HW239047   4.833   3.283  14.125
79070SOL     OW39048   7.451  11.663   8.197
79070SOL    HW139049   7.522  11.722   8.171
79070SOL    HW239050   7.490  11.607   8.264
79071SOL     OW39051   7.224   3.107   0.386
79071SOL    HW139052   7.233   3.087   0.293
79071SOL    HW239053   7.133   3.133   0.397
79072SOL     OW39054   0.358   5.396   4.719
79072SOL    HW139055   0.404   5.328   4.769
79072SOL    HW239056   0.341   5.465   4.783
79073SOL     OW39057  14.155  12.436   9.212
79073SOL    HW139058  14.075  12.397   9.176
79073SOL    HW239059  14.217  12.433   9.139
79074SOL     OW39060  11.020   7.877   3.742
79074SOL    HW139061  10.995   7.870   3.650
79074SOL    HW239062  10.974   7.806   3.785
79075SOL     OW39063   4.040   3.659  11.717
79075SOL    HW139064   4.080   3.588  11.667
79075SOL    HW239065   4.114   3.703  11.759
79076SOL     OW39066  13.798  13.580  10.737
79076SOL    HW139067  13.781  13.667  10.701
79076SOL    HW239068  13.858  13.595  10.810
79077SOL     OW39069  13.082   2.829   6.021
79077SOL    HW139070  13.170   2.839   6.056
79077SOL    HW239071  13.077   2.737   5.994
79078SOL     OW39072  11.276   4.337   5.148
79078SOL    HW139073  11.359   4.363   5.190
79078SOL    HW239074  11.239   4.271   5.206
79079SOL     OW39075   6.322   1.538   4.823
79079SOL    HW139076   6.404   1.488   4.816
79079SOL    HW239077   6.342   1.605   4.889
79080SOL     OW39078   4.323   7.550   7.491
79080SOL    HW139079   4.372   7.610   7.547
79080SOL    HW239080   4.253   7.517   7.548
79081SOL     OW39081   7.621  13.095   3.284
79081SOL    HW139082   7.645  13.177   3.241
79081SOL    HW239083   7.596  13.121   3.373
79082SOL     OW39084  12.050   4.569   2.459
79082SOL    HW139085  12.042   4.620   2.378
79082SOL    HW239086  11.965   4.578   2.501
79083SOL     OW39087   4.520   6.766  12.206
79083SOL    HW139088   4.544   6.802  12.121
79083SOL    HW239089   4.561   6.679  12.208
79084SOL     OW39090  13.759   3.154   4.808
79084SOL    HW139091  13.674   3.131   4.770
79084SOL    HW239092  13.823   3.126   4.742
79085SOL     OW39093   5.441   6.438  14.602
79085SOL    HW139094   5.439   6.388  14.520
79085SOL    HW239095   5.349   6.456  14.621
79086SOL     OW39096  12.648  14.003   5.943
79086SOL    HW139097  12.698  14.042   6.016
79086SOL    HW239098  12.638  13.911   5.968
79087SOL     OW39099  10.977   6.327   3.904
79087SOL    HW139100  11.058   6.290   3.868
79087SOL    HW239101  10.912   6.258   3.894
79088SOL     OW39102  12.510   8.803   2.747
79088SOL    HW139103  12.435   8.745   2.761
79088SOL    HW239104  12.536   8.830   2.836
79089SOL     OW39105  13.519   7.951   3.804
79089SOL    HW139106  13.519   7.995   3.888
79089SOL    HW239107  13.430   7.915   3.795
79090SOL     OW39108   1.667   9.939   2.310
79090SOL    HW139109   1.684  10.033   2.324
79090SOL    HW239110   1.582   9.924   2.351
79091SOL     OW39111   8.072   2.345   7.878
79091SOL    HW139112   8.017   2.276   7.840
79091SOL    HW239113   8.154   2.302   7.900
79092SOL     OW39114  12.366   5.387  14.854
79092SOL    HW139115  12.450   5.351  14.824
79092SOL    HW239116  12.353   5.349   0.059
79093SOL     OW39117   9.527   7.347  10.168
79093SOL    HW139118   9.489   7.335  10.255
79093SOL    HW239119   9.598   7.411  10.182
79094SOL     OW39120   5.221   5.294   0.636
79094SOL    HW139121   5.179   5.312   0.552
79094SOL    HW239122   5.174   5.349   0.698
79095SOL     OW39123  12.430   0.364   9.227
79095SOL    HW139124  12.486   0.294   9.193
79095SOL    HW239125  12.417   0.424   9.153
79096SOL     OW39126  13.438   0.457  11.562
79096SOL    HW139127  13.404   0.376  11.598
79096SOL    HW239128  13.487   0.431  11.484
79097SOL     OW39129   1.078   2.842   7.018
79097SOL    HW139130   1.170   2.868   7.010
79097SOL    HW239131   1.068   2.814   7.109
79098SOL     OW39132   8.718   1.361   4.987
79098SOL    HW139133   8.763   1.420   5.048
79098SOL    HW239134   8.781   1.343   4.918
79099SOL     OW39135   9.410   3.158   1.839
79099SOL    HW139136   9.462   3.107   1.776
79099SOL    HW239137   9.352   3.211   1.784
79100SOL     OW39138  12.671  10.126   2.282
79100SOL    HW139139  12.617  10.151   2.357
79100SOL    HW239140  12.614  10.071   2.229
79101SOL     OW39141   9.392   7.115   8.603
79101SOL    HW139142   9.471   7.102   8.655
79101SOL    HW239143   9.331   7.158   8.662
79102SOL     OW39144   4.672   6.895  10.784
79102SOL    HW139145   4.750   6.942  10.814
79102SOL    HW239146   4.664   6.918  10.692
79103SOL     OW39147   1.614   8.827   9.637
79103SOL    HW139148   1.556   8.874   9.697
79103SOL    HW239149   1.620   8.739   9.675
79104SOL     OW39150   5.333   0.004   1.470
79104SOL    HW139151   5.313  14.827   1.544
79104SOL    HW239152   5.288  14.846   1.396
79105SOL     OW39153  11.113  10.600   5.415
79105SOL    HW139154  11.194  10.650   5.422
79105SOL    HW239155  11.075  10.602   5.503
79106SOL     OW39156   8.699   5.697  11.684
79106SOL    HW139157   8.787   5.693  11.723
79106SOL    HW239158   8.692   5.616  11.633
79107SOL     OW39159   8.476  13.347   4.649
79107SOL    HW139160   8.511  13.280   4.707
79107SOL    HW239161   8.549  13.410   4.639
79108SOL     OW39162   2.847   7.534   0.714
79108SOL    HW139163   2.862   7.625   0.690
79108SOL    HW239164   2.914   7.485   0.665
79109SOL     OW39165   6.335   3.934   2.187
79109SOL    HW139166   6.372   4.022   2.195
79109SOL    HW239167   6.264   3.933   2.251
79110SOL     OW39168   1.335   5.632   7.215
79110SOL    HW139169   1.378   5.623   7.301
79110SOL    HW239170   1.244   5.607   7.231
79111SOL     OW39171  10.598   4.525   3.790
79111SOL    HW139172  10.608   4.441   3.835
79111SOL    HW239173  10.505   4.531   3.770
79112SOL     OW39174  11.072   7.863  10.749
79112SOL    HW139175  11.045   7.895  10.835
79112SOL    HW239176  10.997   7.882  10.692
79113SOL     OW39177   4.974   5.857  12.486
79113SOL    HW139178   5.069   5.857  12.499
79113SOL    HW239179   4.952   5.949  12.472
79114SOL     OW39180   7.566  11.383   9.121
79114SOL    HW139181   7.509  11.445   9.167
79114SOL    HW239182   7.516  11.357   9.044
79115SOL     OW39183   8.502   0.727   2.339
79115SOL    HW139184   8.530   0.745   2.249
79115SOL    HW239185   8.437   0.658   2.331
79116SOL     OW39186   3.364   5.330   0.572
79116SOL    HW139187   3.306   5.291   0.506
79116SOL    HW239188   3.388   5.258   0.629
79117SOL     OW39189   0.129  12.233  13.107
79117SOL    HW139190   0.079  12.311  13.131
79117SOL    HW239191   0.095  12.208  13.021
79118SOL     OW39192   1.248  12.827  13.465
79118SOL    HW139193   1.208  12.911  13.486
79118SOL    HW239194   1.204  12.799  13.385
79119SOL     OW39195   5.945  12.537   0.367
79119SOL    HW139196   5.930  12.460   0.313
79119SOL    HW239197   5.858  12.578   0.376
79120SOL     OW39198  13.795   1.177  14.172
79120SOL    HW139199  13.743   1.111  14.126
79120SOL    HW239200  13.850   1.126  14.232
79121SOL     OW39201   1.264   8.683   1.429
79121SOL    HW139202   1.302   8.761   1.470
79121SOL    HW239203   1.314   8.671   1.349
79122SOL     OW39204   6.582   6.726   7.790
79122SOL    HW139205   6.572   6.670   7.867
79122SOL    HW239206   6.675   6.717   7.767
79123SOL     OW39207   9.350   9.218  11.739
79123SOL    HW139208   9.360   9.247  11.648
79123SOL    HW239209   9.257   9.231  11.758
79124SOL     OW39210  10.074  12.597  12.955
79124SOL    HW139211  10.077  12.666  12.889
79124SOL    HW239212  10.006  12.626  13.017
79125SOL     OW39213  13.447  14.603   6.279
79125SOL    HW139214  13.363  14.647   6.270
79125SOL    HW239215  13.486  14.608   6.192
79126SOL     OW39216   8.786   2.169   9.201
79126SOL    HW139217   8.756   2.160   9.291
79126SOL    HW239218   8.839   2.090   9.186
79127SOL     OW39219   0.042   0.710   0.071
79127SOL    HW139220   0.024   0.799   0.098
79127SOL    HW239221   0.103   0.676   0.136
79128SOL     OW39222   1.341  10.007  12.827
79128SOL    HW139223   1.395   9.929  12.841
79128SOL    HW239224   1.394  10.062  12.768
79129SOL     OW39225   6.345   2.113   1.325
79129SOL    HW139226   6.420   2.148   1.277
79129SOL    HW239227   6.379   2.099   1.414
79130SOL     OW39228   4.681   6.003   5.733
79130SOL    HW139229   4.668   6.095   5.707
79130SOL    HW239230   4.755   6.006   5.793
79131SOL     OW39231   2.970  12.643   6.549
79131SOL    HW139232   2.885  12.620   6.588
79131SOL    HW239233   3.033  12.634   6.620
79132SOL     OW39234   8.688   4.963   4.482
79132SOL    HW139235   8.686   4.893   4.416
79132SOL    HW239236   8.706   5.043   4.431
79133SOL     OW39237  13.937   7.507  11.831
79133SOL    HW139238  13.865   7.568  11.817
79133SOL    HW239239  13.897   7.433  11.876
79134SOL     OW39240   5.173   4.705   1.741
79134SOL    HW139241   5.264   4.692   1.715
79134SOL    HW239242   5.123   4.685   1.661
79135SOL     OW39243   9.224   9.794   7.098
79135SOL    HW139244   9.160   9.824   7.034
79135SOL    HW239245   9.295   9.859   7.093
79136SOL     OW39246   9.472   3.202  14.142
79136SOL    HW139247   9.462   3.107  14.136
79136SOL    HW239248   9.517   3.216  14.225
79137SOL     OW39249   5.880   4.050   7.088
79137SOL    HW139250   5.960   4.057   7.036
79137SOL    HW239251   5.908   4.068   7.178
79138SOL     OW39252   7.199   3.206   6.247
79138SOL    HW139253   7.176   3.231   6.157
79138SOL    HW239254   7.291   3.231   6.255
79139SOL     OW39255   4.932   4.738   6.827
79139SOL    HW139256   4.890   4.656   6.802
79139SOL    HW239257   4.878   4.806   6.786
79140SOL     OW39258  11.987  12.389   2.123
79140SOL    HW139259  11.961  12.309   2.078
79140SOL    HW239260  12.059  12.425   2.071
79141SOL     OW39261  10.754   7.664  10.488
79141SOL    HW139262  10.708   7.623  10.415
79141SOL    HW239263  10.846   7.666  10.460
79142SOL     OW39264   1.639  13.614  14.820
79142SOL    HW139265   1.611  13.539  14.872
79142SOL    HW239266   1.580  13.613  14.744
79143SOL     OW39267   9.435  12.077   7.578
79143SOL    HW139268   9.378  12.121   7.515
79143SOL    HW239269   9.379  12.015   7.624
79144SOL     OW39270   3.851   6.961   2.948
79144SOL    HW139271   3.822   6.904   2.878
79144SOL    HW239272   3.946   6.967   2.936
79145SOL     OW39273   9.754  10.226   0.913
79145SOL    HW139274   9.670  10.188   0.938
79145SOL    HW239275   9.789  10.167   0.846
79146SOL     OW39276  11.081   2.652  14.016
79146SOL    HW139277  11.173   2.638  13.994
79146SOL    HW239278  11.041   2.682  13.934
79147SOL     OW39279   1.310  12.411   6.650
79147SOL    HW139280   1.384  12.384   6.705
79147SOL    HW239281   1.248  12.338   6.656
79148SOL     OW39282  11.630   7.332   4.994
79148SOL    HW139283  11.644   7.426   4.984
79148SOL    HW239284  11.673   7.310   5.077
79149SOL     OW39285   7.425   4.204   6.015
79149SOL    HW139286   7.498   4.259   6.044
79149SOL    HW239287   7.455   4.115   6.030
79150SOL     OW39288   3.060   5.645   3.007
79150SOL    HW139289   3.114   5.658   2.929
79150SOL    HW239290   3.122   5.649   3.080
79151SOL     OW39291   5.102   9.711   1.292
79151SOL    HW139292   5.062   9.650   1.231
79151SOL    HW239293   5.129   9.786   1.238
79152SOL     OW39294   9.897  11.024   9.488
79152SOL    HW139295   9.859  10.957   9.431
79152SOL    HW239296   9.830  11.042   9.553
79153SOL     OW39297   4.889  13.599   6.541
79153SOL    HW139298   4.931  13.640   6.465
79153SOL    HW239299   4.936  13.635   6.617
79154SOL     OW39300  10.764   8.868   9.195
79154SOL    HW139301  10.694   8.863   9.260
79154SOL    HW239302  10.825   8.934   9.229
79155SOL     OW39303  13.572  13.343   9.965
79155SOL    HW139304  13.493  13.307  10.006
79155SOL    HW239305  13.539  13.394   9.890
79156SOL     OW39306   3.792   1.211   0.748
79156SOL    HW139307   3.858   1.264   0.793
79156SOL    HW239308   3.742   1.170   0.819
79157SOL     OW39309   8.512   4.612  10.432
79157SOL    HW139310   8.470   4.656  10.506
79157SOL    HW239311   8.442   4.561  10.392
79158SOL     OW39312  14.832   0.685  11.397
79158SOL    HW139313  14.784   0.675  11.479
79158SOL    HW239314   0.021   0.621  11.403
79159SOL     OW39315  11.699   1.494   9.098
79159SOL    HW139316  11.642   1.507   9.022
79159SOL    HW239317  11.754   1.572   9.101
79160SOL     OW39318   7.325   8.887   9.558
79160SOL    HW139319   7.419   8.900   9.548
79160SOL    HW239320   7.298   8.954   9.620
79161SOL     OW39321   2.355  14.333  14.037
79161SOL    HW139322   2.401  14.251  14.023
79161SOL    HW239323   2.362  14.380  13.954
79162SOL     OW39324  13.452  13.864   4.529
79162SOL    HW139325  13.364  13.835   4.505
79162SOL    HW239326  13.475  13.927   4.461
79163SOL     OW39327   6.767   1.935  10.735
79163SOL    HW139328   6.751   1.847  10.699
79163SOL    HW239329   6.855   1.929  10.772
79164SOL     OW39330  12.360   5.589   0.745
79164SOL    HW139331  12.339   5.643   0.669
79164SOL    HW239332  12.367   5.500   0.710
79165SOL     OW39333   7.549   7.640  12.058
79165SOL    HW139334   7.620   7.626  12.120
79165SOL    HW239335   7.544   7.735  12.047
79166SOL     OW39336   1.315   2.558   6.769
79166SOL    HW139337   1.376   2.554   6.843
79166SOL    HW239338   1.356   2.618   6.707
79167SOL     OW39339   9.453  12.522   4.206
79167SOL    HW139340   9.369  12.483   4.181
79167SOL    HW239341   9.430  12.598   4.259
79168SOL     OW39342   8.026   8.831  10.071
79168SOL    HW139343   7.961   8.855  10.005
79168SOL    HW239344   8.055   8.915  10.107
79169SOL     OW39345  12.100  12.895   3.958
79169SOL    HW139346  12.049  12.877   3.879
79169SOL    HW239347  12.169  12.828   3.958
79170SOL     OW39348   7.202   1.546   5.594
79170SOL    HW139349   7.209   1.522   5.687
79170SOL    HW239350   7.266   1.490   5.550
79171SOL     OW39351  11.389   3.948   4.910
79171SOL    HW139352  11.356   3.869   4.867
79171SOL    HW239353  11.344   3.948   4.995
79172SOL     OW39354  12.811   8.517   4.729
79172SOL    HW139355  12.769   8.454   4.672
79172SOL    HW239356  12.765   8.599   4.713
79173SOL     OW39357  12.315  10.629  10.295
79173SOL    HW139358  12.295  10.656  10.385
79173SOL    HW239359  12.267  10.691  10.240
79174SOL     OW39360  14.150   6.749   1.852
79174SOL    HW139361  14.228   6.717   1.808
79174SOL    HW239362  14.090   6.674   1.852
79175SOL     OW39363  11.214   1.442  13.068
79175SOL    HW139364  11.162   1.409  12.994
79175SOL    HW239365  11.297   1.395  13.063
79176SOL     OW39366  12.360   1.986  13.026
79176SOL    HW139367  12.327   2.055  12.970
79176SOL    HW239368  12.453   1.980  13.005
79177SOL     OW39369   3.044  10.834   0.510
79177SOL    HW139370   3.116  10.791   0.557
79177SOL    HW239371   2.976  10.845   0.576
79178SOL     OW39372   2.500   0.034   7.900
79178SOL    HW139373   2.416   0.072   7.924
79178SOL    HW239374   2.528   0.083   7.823
79179SOL     OW39375  11.609  13.440   1.138
79179SOL    HW139376  11.546  13.510   1.121
79179SOL    HW239377  11.694  13.484   1.138
79180SOL     OW39378   3.306  11.630   3.690
79180SOL    HW139379   3.240  11.598   3.630
79180SOL    HW239380   3.377  11.565   3.686
79181SOL     OW39381  14.175   7.318   8.628
79181SOL    HW139382  14.240   7.249   8.635
79181SOL    HW239383  14.222   7.392   8.589
79182SOL     OW39384   2.559   7.790   4.768
79182SOL    HW139385   2.484   7.804   4.825
79182SOL    HW239386   2.521   7.768   4.683
79183SOL     OW39387   7.215   3.517   3.697
79183SOL    HW139388   7.286   3.524   3.633
79183SOL    HW239389   7.174   3.433   3.677
79184SOL     OW39390   5.338   7.768   5.355
79184SOL    HW139391   5.274   7.784   5.425
79184SOL    HW239392   5.407   7.832   5.370
79185SOL     OW39393  14.395   8.798  13.077
79185SOL    HW139394  14.419   8.850  13.154
79185SOL    HW239395  14.304   8.775  13.091
79186SOL     OW39396   4.607   2.214   4.049
79186SOL    HW139397   4.634   2.242   3.962
79186SOL    HW239398   4.675   2.248   4.107
79187SOL     OW39399  13.337  14.368   6.353
79187SOL    HW139400  13.251  14.381   6.394
79187SOL    HW239401  13.374  14.456   6.348
79188SOL     OW39402   8.663   2.665   3.116
79188SOL    HW139403   8.719   2.728   3.071
79188SOL    HW239404   8.703   2.652   3.202
79189SOL     OW39405   6.305   4.345   0.430
79189SOL    HW139406   6.385   4.369   0.383
79189SOL    HW239407   6.325   4.362   0.522
79190SOL     OW39408   1.995  13.164   5.188
79190SOL    HW139409   1.919  13.160   5.247
79190SOL    HW239410   2.063  13.205   5.241
79191SOL     OW39411  14.374   8.916   2.029
79191SOL    HW139412  14.284   8.886   2.012
79191SOL    HW239413  14.408   8.852   2.092
79192SOL     OW39414   9.179   8.246   8.905
79192SOL    HW139415   9.205   8.271   8.817
79192SOL    HW239416   9.259   8.254   8.958
79193SOL     OW39417   2.609  14.171   5.410
79193SOL    HW139418   2.619  14.240   5.345
79193SOL    HW239419   2.575  14.097   5.361
79194SOL     OW39420  12.180   4.335  14.858
79194SOL    HW139421  12.266   4.352  14.821
79194SOL    HW239422  12.194   4.264   0.039
79195SOL     OW39423   5.973   4.203   6.129
79195SOL    HW139424   6.058   4.162   6.118
79195SOL    HW239425   5.910   4.133   6.112
79196SOL     OW39426  14.177  14.107  11.524
79196SOL    HW139427  14.198  14.199  11.541
79196SOL    HW239428  14.209  14.092  11.435
79197SOL     OW39429  11.734   3.048   9.905
79197SOL    HW139430  11.669   3.117   9.923
79197SOL    HW239431  11.714   3.020   9.816
79198SOL     OW39432   9.273  12.721   1.514
79198SOL    HW139433   9.268  12.631   1.483
79198SOL    HW239434   9.228  12.772   1.447
79199SOL     OW39435   0.095   6.991   3.447
79199SOL    HW139436   0.128   6.992   3.358
79199SOL    HW239437   0.087   7.083   3.471
79200SOL     OW39438  14.736   6.939  13.388
79200SOL    HW139439  14.753   6.856  13.433
79200SOL    HW239440  14.718   6.914  13.297
79201SOL     OW39441   4.702   3.309   3.044
79201SOL    HW139442   4.766   3.239   3.029
79201SOL    HW239443   4.705   3.323   3.139
79202SOL     OW39444  14.148   6.758  11.702
79202SOL    HW139445  14.228   6.798  11.736
79202SOL    HW239446  14.171   6.666  11.689
79203SOL     OW39447   4.046   2.950   2.412
79203SOL    HW139448   4.047   2.872   2.356
79203SOL    HW239449   3.990   3.012   2.367
79204SOL     OW39450  13.515   2.245   7.423
79204SOL    HW139451  13.535   2.313   7.487
79204SOL    HW239452  13.599   2.227   7.381
79205SOL     OW39453  10.467   6.050   2.995
79205SOL    HW139454  10.517   6.020   3.071
79205SOL    HW239455  10.498   6.139   2.979
79206SOL     OW39456   3.221   9.550   2.125
79206SOL    HW139457   3.261   9.635   2.112
79206SOL    HW239458   3.190   9.524   2.038
79207SOL     OW39459   5.252   8.919  11.782
79207SOL    HW139460   5.277   8.827  11.773
79207SOL    HW239461   5.167   8.925  11.737
79208SOL     OW39462   6.431   4.745  12.133
79208SOL    HW139463   6.384   4.829  12.133
79208SOL    HW239464   6.362   4.679  12.144
79209SOL     OW39465   8.325   3.418  13.431
79209SOL    HW139466   8.399   3.417  13.492
79209SOL    HW239467   8.310   3.326  13.410
79210SOL     OW39468  14.355   5.950  13.866
79210SOL    HW139469  14.267   5.954  13.905
79210SOL    HW239470  14.348   5.885  13.797
79211SOL     OW39471   5.775   7.092   6.993
79211SOL    HW139472   5.816   7.017   7.036
79211SOL    HW239473   5.697   7.057   6.951
79212SOL     OW39474   5.567   6.012  11.454
79212SOL    HW139475   5.621   6.069  11.507
79212SOL    HW239476   5.595   6.029  11.364
79213SOL     OW39477  12.547   8.797   5.736
79213SOL    HW139478  12.541   8.707   5.770
79213SOL    HW239479  12.614   8.839   5.790
79214SOL     OW39480   0.631  12.638   3.966
79214SOL    HW139481   0.587  12.568   3.919
79214SOL    HW239482   0.621  12.615   4.059
79215SOL     OW39483   8.442   2.721   9.960
79215SOL    HW139484   8.443   2.803  10.010
79215SOL    HW239485   8.472   2.655  10.023
79216SOL     OW39486   4.343   8.086   7.449
79216SOL    HW139487   4.346   8.071   7.543
79216SOL    HW239488   4.251   8.081   7.426
79217SOL     OW39489   7.600   9.593  14.484
79217SOL    HW139490   7.623   9.588  14.391
79217SOL    HW239491   7.684   9.593  14.530
79218SOL     OW39492  13.238   2.544   8.540
79218SOL    HW139493  13.258   2.585   8.624
79218SOL    HW239494  13.178   2.606   8.497
79219SOL     OW39495  11.714   7.204   3.033
79219SOL    HW139496  11.704   7.153   2.953
79219SOL    HW239497  11.755   7.285   3.005
79220SOL     OW39498   3.918   5.482   3.403
79220SOL    HW139499   4.011   5.478   3.424
79220SOL    HW239500   3.908   5.561   3.350
79221SOL     OW39501   8.273  12.874  12.780
79221SOL    HW139502   8.286  12.790  12.736
79221SOL    HW239503   8.181  12.873  12.808
79222SOL     OW39504   5.164   7.151  10.495
79222SOL    HW139505   5.257   7.139  10.475
79222SOL    HW239506   5.151   7.245  10.489
79223SOL     OW39507  11.506  14.661   5.810
79223SOL    HW139508  11.526  14.749   5.843
79223SOL    HW239509  11.474  14.676   5.721
79224SOL     OW39510   3.413  12.974   5.386
79224SOL    HW139511   3.501  12.956   5.419
79224SOL    HW239512   3.405  12.920   5.307
79225SOL     OW39513   4.993   6.137  14.661
79225SOL    HW139514   4.979   6.080  14.737
79225SOL    HW239515   5.024   6.078  14.593
79226SOL     OW39516  14.452  11.890   9.051
79226SOL    HW139517  14.381  11.866   9.111
79226SOL    HW239518  14.522  11.827   9.071
79227SOL     OW39519   9.695   6.573  10.279
79227SOL    HW139520   9.680   6.483  10.252
79227SOL    HW239521   9.612   6.618  10.260
79228SOL     OW39522   0.668   5.982  12.571
79228SOL    HW139523   0.704   6.070  12.583
79228SOL    HW239524   0.633   5.958  12.656
79229SOL     OW39525   9.178  12.088  14.794
79229SOL    HW139526   9.254  12.030  14.795
79229SOL    HW239527   9.114  12.043  14.739
79230SOL     OW39528   6.906   9.470   7.318
79230SOL    HW139529   6.813   9.454   7.333
79230SOL    HW239530   6.948   9.384   7.328
79231SOL     OW39531  13.908  14.505   1.004
79231SOL    HW139532  13.957  14.476   0.928
79231SOL    HW239533  13.843  14.567   0.969
79232SOL     OW39534   6.485  13.593  12.945
79232SOL    HW139535   6.497  13.512  12.896
79232SOL    HW239536   6.465  13.564  13.034
79233SOL     OW39537  13.374   4.263   8.609
79233SOL    HW139538  13.319   4.195   8.570
79233SOL    HW239539  13.450   4.269   8.552
79234SOL     OW39540  14.769  11.012  14.047
79234SOL    HW139541  14.818  11.061  14.113
79234SOL    HW239542  14.682  11.051  14.047
79235SOL     OW39543   2.449   3.975   4.063
79235SOL    HW139544   2.362   3.963   4.101
79235SOL    HW239545   2.459   4.070   4.058
79236SOL     OW39546   1.919   6.898  13.709
79236SOL    HW139547   1.898   6.932  13.796
79236SOL    HW239548   1.921   6.976  13.653
79237SOL     OW39549   1.778   7.944   3.121
79237SOL    HW139550   1.798   7.864   3.169
79237SOL    HW239551   1.862   7.975   3.090
79238SOL     OW39552   0.380   3.819   4.440
79238SOL    HW139553   0.297   3.842   4.483
79238SOL    HW239554   0.377   3.723   4.433
79239SOL     OW39555   2.201   6.943   9.717
79239SOL    HW139556   2.128   7.004   9.720
79239SOL    HW239557   2.279   6.998   9.725
79240SOL     OW39558   6.690  10.825   5.911
79240SOL    HW139559   6.599  10.794   5.904
79240SOL    HW239560   6.716  10.843   5.821
79241SOL     OW39561   3.610   2.211  14.550
79241SOL    HW139562   3.605   2.185  14.458
79241SOL    HW239563   3.662   2.291  14.549
79242SOL     OW39564   3.381   8.087   7.319
79242SOL    HW139565   3.423   8.003   7.337
79242SOL    HW239566   3.452   8.142   7.287
79243SOL     OW39567   9.225  10.623  11.675
79243SOL    HW139568   9.138  10.620  11.634
79243SOL    HW239569   9.278  10.675  11.616
79244SOL     OW39570   8.560  11.045   5.916
79244SOL    HW139571   8.547  10.976   5.981
79244SOL    HW239572   8.519  11.010   5.836
79245SOL     OW39573   2.496   8.936   7.772
79245SOL    HW139574   2.578   8.983   7.752
79245SOL    HW239575   2.454   8.924   7.686
79246SOL     OW39576   5.876   9.322   2.741
79246SOL    HW139577   5.835   9.404   2.771
79246SOL    HW239578   5.968   9.344   2.729
79247SOL     OW39579   1.522   2.293  10.708
79247SOL    HW139580   1.500   2.218  10.763
79247SOL    HW239581   1.518   2.368  10.768
79248SOL     OW39582   5.342   0.699   6.916
79248SOL    HW139583   5.316   0.608   6.899
79248SOL    HW239584   5.270   0.735   6.968
79249SOL     OW39585   2.228  12.600  12.767
79249SOL    HW139586   2.250  12.638  12.682
79249SOL    HW239587   2.247  12.507  12.757
79250SOL     OW39588   3.327   3.714  12.901
79250SOL    HW139589   3.348   3.794  12.852
79250SOL    HW239590   3.324   3.646  12.835
79251SOL     OW39591   6.732  10.876   5.660
79251SOL    HW139592   6.739  10.806   5.594
79251SOL    HW239593   6.643  10.908   5.651
79252SOL     OW39594   8.249  12.093   4.328
79252SOL    HW139595   8.197  12.080   4.249
79252SOL    HW239596   8.248  12.188   4.342
79253SOL     OW39597   6.002   0.012   6.199
79253SOL    HW139598   5.970   0.020   6.290
79253SOL    HW239599   6.021  14.801   6.189
79254SOL     OW39600   4.046   4.162  13.131
79254SOL    HW139601   3.967   4.127  13.171
79254SOL    HW239602   4.099   4.084  13.110
79255SOL     OW39603  14.656   0.763  12.978
79255SOL    HW139604  14.623   0.828  12.916
79255SOL    HW239605  14.715   0.813  13.035
79256SOL     OW39606   4.513  11.118   7.536
79256SOL    HW139607   4.516  11.210   7.510
79256SOL    HW239608   4.510  11.070   7.453
79257SOL     OW39609   3.491   4.848  10.876
79257SOL    HW139610   3.586   4.839  10.864
79257SOL    HW239611   3.460   4.888  10.795
79258SOL     OW39612  14.176   8.055   3.219
79258SOL    HW139613  14.116   8.038   3.292
79258SOL    HW239614  14.118   8.061   3.143
79259SOL     OW39615  11.330   4.453   2.136
79259SOL    HW139616  11.353   4.360   2.133
79259SOL    HW239617  11.247   4.458   2.089
79260SOL     OW39618  12.124   5.897   7.070
79260SOL    HW139619  12.181   5.868   7.141
79260SOL    HW239620  12.060   5.826   7.060
79261SOL     OW39621  12.124   9.034   7.698
79261SOL    HW139622  12.070   9.010   7.773
79261SOL    HW239623  12.194   8.969   7.696
79262SOL     OW39624  13.639  11.902   2.268
79262SOL    HW139625  13.636  11.938   2.357
79262SOL    HW239626  13.730  11.911   2.242
79263SOL     OW39627   9.499   7.311   7.792
79263SOL    HW139628   9.444   7.278   7.721
79263SOL    HW239629   9.589   7.302   7.760
79264SOL     OW39630  14.106   3.422   1.025
79264SOL    HW139631  14.069   3.424   1.113
79264SOL    HW239632  14.197   3.394   1.038
79265SOL     OW39633   9.526   4.995   8.818
79265SOL    HW139634   9.599   5.006   8.879
79265SOL    HW239635   9.449   4.984   8.874
79266SOL     OW39636   7.261   4.787   8.672
79266SOL    HW139637   7.349   4.817   8.649
79266SOL    HW239638   7.268   4.691   8.672
79267SOL     OW39639  13.171   1.324   8.548
79267SOL    HW139640  13.171   1.349   8.640
79267SOL    HW239641  13.079   1.302   8.529
79268SOL     OW39642   2.444   4.617   9.505
79268SOL    HW139643   2.436   4.648   9.415
79268SOL    HW239644   2.538   4.602   9.517
79269SOL     OW39645   5.934   8.778  12.788
79269SOL    HW139646   5.975   8.787  12.702
79269SOL    HW239647   5.882   8.697  12.782
79270SOL     OW39648  12.219  11.863   9.908
79270SOL    HW139649  12.123  11.872   9.908
79270SOL    HW239650  12.249  11.920   9.837
79271SOL     OW39651  12.310   4.684   0.471
79271SOL    HW139652  12.336   4.596   0.444
79271SOL    HW239653  12.391   4.734   0.473
79272SOL     OW39654   7.394   4.666   2.134
79272SOL    HW139655   7.458   4.666   2.204
79272SOL    HW239656   7.380   4.573   2.114
79273SOL     OW39657   2.921   7.252   4.433
79273SOL    HW139658   2.979   7.322   4.462
79273SOL    HW239659   2.979   7.189   4.390
79274SOL     OW39660   1.636  13.933   1.099
79274SOL    HW139661   1.645  13.943   1.004
79274SOL    HW239662   1.717  13.970   1.135
79275SOL     OW39663   4.110   8.827   9.846
79275SOL    HW139664   4.040   8.868   9.898
79275SOL    HW239665   4.191   8.865   9.881
79276SOL     OW39666  12.491  13.257  12.192
79276SOL    HW139667  12.423  13.225  12.251
79276SOL    HW239668  12.445  13.307  12.126
79277SOL     OW39669  14.831   7.019  10.749
79277SOL    HW139670  14.757   7.022  10.689
79277SOL    HW239671  14.822   7.097  10.803
79278SOL     OW39672   3.663  12.616  10.818
79278SOL    HW139673   3.712  12.637  10.897
79278SOL    HW239674   3.661  12.520  10.817
79279SOL     OW39675   0.809   8.131  12.393
79279SOL    HW139676   0.902   8.127  12.415
79279SOL    HW239677   0.790   8.044  12.358
79280SOL     OW39678  14.830  13.602   5.274
79280SOL    HW139679  14.829  13.574   5.182
79280SOL    HW239680  14.738  13.609   5.298
79281SOL     OW39681   7.888   5.203   7.487
79281SOL    HW139682   7.887   5.224   7.393
79281SOL    HW239683   7.824   5.131   7.496
79282SOL     OW39684   1.379   2.299  14.852
79282SOL    HW139685   1.297   2.287   0.019
79282SOL    HW239686   1.415   2.211  14.843
79283SOL     OW39687   7.901   1.878  11.069
79283SOL    HW139688   7.903   1.801  11.125
79283SOL    HW239689   7.808   1.898  11.058
79284SOL     OW39690   0.771   3.472  12.412
79284SOL    HW139691   0.684   3.494  12.445
79284SOL    HW239692   0.831   3.504  12.480
79285SOL     OW39693   1.918  13.697  14.182
79285SOL    HW139694   1.944  13.760  14.115
79285SOL    HW239695   1.998  13.647  14.199
79286SOL     OW39696   6.780   1.750   8.919
79286SOL    HW139697   6.685   1.746   8.925
79286SOL    HW239698   6.797   1.797   8.837
79287SOL     OW39699   6.138   0.227   2.340
79287SOL    HW139700   6.210   0.203   2.399
79287SOL    HW239701   6.121   0.148   2.290
79288SOL     OW39702   1.411  12.587  10.484
79288SOL    HW139703   1.382  12.609  10.572
79288SOL    HW239704   1.505  12.605  10.485
79289SOL     OW39705   5.991   0.217   9.690
79289SOL    HW139706   5.997   0.226   9.785
79289SOL    HW239707   6.076   0.183   9.663
79290SOL     OW39708   3.950   9.085   1.339
79290SOL    HW139709   3.949   9.149   1.267
79290SOL    HW239710   4.003   9.013   1.306
79291SOL     OW39711   9.123  13.825   5.078
79291SOL    HW139712   9.124  13.856   4.987
79291SOL    HW239713   9.102  13.732   5.071
79292SOL     OW39714  12.023   3.265   1.319
79292SOL    HW139715  12.085   3.203   1.359
79292SOL    HW239716  11.994   3.222   1.239
79293SOL     OW39717  10.717   9.248  11.315
79293SOL    HW139718  10.672   9.227  11.397
79293SOL    HW239719  10.738   9.163  11.276
79294SOL     OW39720   6.939   9.809   4.920
79294SOL    HW139721   6.872   9.808   4.851
79294SOL    HW239722   6.893   9.777   4.998
79295SOL     OW39723   1.936   1.904   9.402
79295SOL    HW139724   2.004   1.960   9.440
79295SOL    HW239725   1.864   1.906   9.466
79296SOL     OW39726   8.097  10.703  10.949
79296SOL    HW139727   8.023  10.763  10.943
79296SOL    HW239728   8.174  10.758  10.932
79297SOL     OW39729   0.681  11.232   2.552
79297SOL    HW139730   0.717  11.240   2.640
79297SOL    HW239731   0.756  11.251   2.494
79298SOL     OW39732   5.047   0.153   1.407
79298SOL    HW139733   5.106   0.168   1.333
79298SOL    HW239734   5.098   0.177   1.484
79299SOL     OW39735   5.478   6.193   4.482
79299SOL    HW139736   5.419   6.122   4.457
79299SOL    HW239737   5.517   6.164   4.565
79300SOL     OW39738  11.052   6.822   1.380
79300SOL    HW139739  11.097   6.833   1.464
79300SOL    HW239740  10.959   6.815   1.403
79301SOL     OW39741   7.548  14.457   2.765
79301SOL    HW139742   7.487  14.429   2.833
79301SOL    HW239743   7.587  14.375   2.733
79302SOL     OW39744  14.468   9.894  12.314
79302SOL    HW139745  14.484   9.921  12.405
79302SOL    HW239746  14.414   9.816  12.321
79303SOL     OW39747  13.482  10.369   8.942
79303SOL    HW139748  13.469  10.315   9.020
79303SOL    HW239749  13.566  10.413   8.957
79304SOL     OW39750  14.227   6.660  11.332
79304SOL    HW139751  14.317   6.685  11.354
79304SOL    HW239752  14.218   6.571  11.366
79305SOL     OW39753   5.364  11.791   6.056
79305SOL    HW139754   5.335  11.875   6.021
79305SOL    HW239755   5.457  11.802   6.074
79306SOL     OW39756   2.707   4.369   9.265
79306SOL    HW139757   2.764   4.403   9.197
79306SOL    HW239758   2.620   4.369   9.226
79307SOL     OW39759   2.472   1.671  14.538
79307SOL    HW139760   2.466   1.667  14.634
79307SOL    HW239761   2.545   1.731  14.521
79308SOL     OW39762   8.653   8.549   4.428
79308SOL    HW139763   8.635   8.481   4.493
79308SOL    HW239764   8.616   8.515   4.347
79309SOL     OW39765   3.152   3.196   6.706
79309SOL    HW139766   3.203   3.259   6.756
79309SOL    HW239767   3.064   3.200   6.744
79310SOL     OW39768   8.968   6.180  10.516
79310SOL    HW139769   8.887   6.130  10.508
79310SOL    HW239770   9.011   6.145  10.594
79311SOL     OW39771  11.036   5.006   0.037
79311SOL    HW139772  10.995   4.926   0.004
79311SOL    HW239773  11.016   5.007   0.130
79312SOL     OW39774  11.221  12.523   4.336
79312SOL    HW139775  11.192  12.463   4.404
79312SOL    HW239776  11.316  12.528   4.347
79313SOL     OW39777  11.371  14.686   0.603
79313SOL    HW139778  11.302  14.663   0.541
79313SOL    HW239779  11.421  14.605   0.614
79314SOL     OW39780  11.730   8.373  14.464
79314SOL    HW139781  11.769   8.352  14.550
79314SOL    HW239782  11.712   8.467  14.469
79315SOL     OW39783  12.643  14.835   2.286
79315SOL    HW139784  12.674  14.764   2.230
79315SOL    HW239785  12.720  14.862   2.336
79316SOL     OW39786   3.002  11.134   1.209
79316SOL    HW139787   2.972  11.048   1.180
79316SOL    HW239788   3.078  11.116   1.264
79317SOL     OW39789  10.089   2.534  13.574
79317SOL    HW139790  10.010   2.583  13.595
79317SOL    HW239791  10.103   2.550  13.481
79318SOL     OW39792  13.055   7.440   0.445
79318SOL    HW139793  13.110   7.507   0.487
79318SOL    HW239794  13.024   7.482   0.365
79319SOL     OW39795  14.597   0.285   9.775
79319SOL    HW139796  14.542   0.363   9.768
79319SOL    HW239797  14.569   0.242   9.855
79320SOL     OW39798  12.205   3.049  12.030
79320SOL    HW139799  12.239   2.978  11.977
79320SOL    HW239800  12.273   3.116  12.028
79321SOL     OW39801   1.587  11.151   9.649
79321SOL    HW139802   1.496  11.124   9.660
79321SOL    HW239803   1.637  11.069   9.647
79322SOL     OW39804   1.388   0.095  12.067
79322SOL    HW139805   1.463   0.057  12.020
79322SOL    HW239806   1.428   0.140  12.142
79323SOL     OW39807   6.021  12.178  12.619
79323SOL    HW139808   6.097  12.230  12.645
79323SOL    HW239809   5.947  12.219  12.663
79324SOL     OW39810   0.254   2.453   8.206
79324SOL    HW139811   0.250   2.544   8.235
79324SOL    HW239812   0.187   2.446   8.138
79325SOL     OW39813   6.260   5.150  14.769
79325SOL    HW139814   6.236   5.110  14.685
79325SOL    HW239815   6.188   5.127  14.828
79326SOL     OW39816   5.495  10.756   1.186
79326SOL    HW139817   5.452  10.836   1.216
79326SOL    HW239818   5.482  10.757   1.091
79327SOL     OW39819   2.947   4.797   1.155
79327SOL    HW139820   3.010   4.869   1.161
79327SOL    HW239821   3.000   4.722   1.128
79328SOL     OW39822   9.398   3.772   9.825
79328SOL    HW139823   9.422   3.864   9.838
79328SOL    HW239824   9.310   3.775   9.787
79329SOL     OW39825  13.909   8.964  12.724
79329SOL    HW139826  13.853   8.895  12.760
79329SOL    HW239827  13.894   8.961  12.630
79330SOL     OW39828  10.308  12.959  10.113
79330SOL    HW139829  10.343  13.034  10.161
79330SOL    HW239830  10.355  12.960  10.029
79331SOL     OW39831   2.486  13.665   0.976
79331SOL    HW139832   2.519  13.705   1.056
79331SOL    HW239833   2.550  13.689   0.909
79332SOL     OW39834  14.497   6.471  11.178
79332SOL    HW139835  14.518   6.530  11.250
79332SOL    HW239836  14.578   6.465  11.127
79333SOL     OW39837   1.740   4.450  13.189
79333SOL    HW139838   1.715   4.493  13.107
79333SOL    HW239839   1.836   4.448  13.186
79334SOL     OW39840   4.353  12.185   4.200
79334SOL    HW139841   4.281  12.223   4.251
79334SOL    HW239842   4.415  12.257   4.189
79335SOL     OW39843   8.348   9.411  13.594
79335SOL    HW139844   8.411   9.360  13.645
79335SOL    HW239845   8.401   9.476  13.549
79336SOL     OW39846   8.576   9.613   4.172
79336SOL    HW139847   8.561   9.582   4.083
79336SOL    HW239848   8.570   9.534   4.226
79337SOL     OW39849   7.876   9.791  10.586
79337SOL    HW139850   7.797   9.737  10.589
79337SOL    HW239851   7.868   9.848  10.664
79338SOL     OW39852   4.488  13.552   3.257
79338SOL    HW139853   4.480  13.640   3.293
79338SOL    HW239854   4.573  13.552   3.212
79339SOL     OW39855   3.494   3.924   0.651
79339SOL    HW139856   3.535   3.851   0.697
79339SOL    HW239857   3.421   3.885   0.604
79340SOL     OW39858  12.330   0.290   7.085
79340SOL    HW139859  12.360   0.212   7.039
79340SOL    HW239860  12.355   0.363   7.027
79341SOL     OW39861  14.775   6.904   0.456
79341SOL    HW139862  14.842   6.894   0.524
79341SOL    HW239863  14.692   6.888   0.501
79342SOL     OW39864   3.043   0.861   3.750
79342SOL    HW139865   3.061   0.932   3.811
79342SOL    HW239866   2.956   0.879   3.717
79343SOL     OW39867   8.153  13.286   0.229
79343SOL    HW139868   8.130  13.275   0.136
79343SOL    HW239869   8.141  13.199   0.267
79344SOL     OW39870   5.618   3.892   0.537
79344SOL    HW139871   5.571   3.954   0.481
79344SOL    HW239872   5.582   3.807   0.513
79345SOL     OW39873  10.735   4.905   1.822
79345SOL    HW139874  10.739   4.943   1.734
79345SOL    HW239875  10.643   4.881   1.833
79346SOL     OW39876   9.551   8.174   2.154
79346SOL    HW139877   9.564   8.082   2.179
79346SOL    HW239878   9.633   8.198   2.111
79347SOL     OW39879   7.453   1.369   0.225
79347SOL    HW139880   7.388   1.302   0.203
79347SOL    HW239881   7.516   1.324   0.282
79348SOL     OW39882   6.767   8.020   4.729
79348SOL    HW139883   6.722   8.098   4.698
79348SOL    HW239884   6.712   7.947   4.701
79349SOL     OW39885   3.335   9.735   3.586
79349SOL    HW139886   3.267   9.797   3.559
79349SOL    HW239887   3.396   9.788   3.638
79350SOL     OW39888   3.308   1.355   3.903
79350SOL    HW139889   3.275   1.325   3.988
79350SOL    HW239890   3.235   1.402   3.864
79351SOL     OW39891  14.590   5.371   5.300
79351SOL    HW139892  14.652   5.399   5.368
79351SOL    HW239893  14.537   5.304   5.342
79352SOL     OW39894  10.912  14.358  14.261
79352SOL    HW139895  10.921  14.453  14.269
79352SOL    HW239896  10.847  14.346  14.193
79353SOL     OW39897   2.542   1.099   4.470
79353SOL    HW139898   2.573   1.042   4.540
79353SOL    HW239899   2.447   1.090   4.471
79354SOL     OW39900   9.501  10.668  10.525
79354SOL    HW139901   9.523  10.737  10.587
79354SOL    HW239902   9.477  10.715  10.445
79355SOL     OW39903   1.453  14.235  10.725
79355SOL    HW139904   1.434  14.275  10.640
79355SOL    HW239905   1.370  14.195  10.751
79356SOL     OW39906   8.224   6.155   9.532
79356SOL    HW139907   8.210   6.067   9.497
79356SOL    HW239908   8.169   6.159   9.610
79357SOL     OW39909   2.161   0.219  11.702
79357SOL    HW139910   2.228   0.287  11.696
79357SOL    HW239911   2.211   0.137  11.708
79358SOL     OW39912   1.538   9.889  12.986
79358SOL    HW139913   1.543   9.794  12.996
79358SOL    HW239914   1.625   9.920  13.010
79359SOL     OW39915   8.496   6.876   6.885
79359SOL    HW139916   8.475   6.914   6.800
79359SOL    HW239917   8.554   6.939   6.926
79360SOL     OW39918  11.504   7.727   7.931
79360SOL    HW139919  11.511   7.643   7.976
79360SOL    HW239920  11.549   7.714   7.847
79361SOL     OW39921  10.112   8.417  11.498
79361SOL    HW139922  10.201   8.419  11.463
79361SOL    HW239923  10.123   8.433  11.592
79362SOL     OW39924  12.603   1.269  11.894
79362SOL    HW139925  12.689   1.292  11.859
79362SOL    HW239926  12.570   1.351  11.931
79363SOL     OW39927   5.487   4.382   5.395
79363SOL    HW139928   5.535   4.344   5.469
79363SOL    HW239929   5.395   4.363   5.414
79364SOL     OW39930   9.000   5.594   2.584
79364SOL    HW139931   8.937   5.585   2.513
79364SOL    HW239932   9.076   5.543   2.556
79365SOL     OW39933   5.419   6.272   8.482
79365SOL    HW139934   5.443   6.245   8.393
79365SOL    HW239935   5.386   6.192   8.522
79366SOL     OW39936  11.776  12.970  11.958
79366SOL    HW139937  11.710  12.907  11.928
79366SOL    HW239938  11.859  12.932  11.930
79367SOL     OW39939   6.656  12.994   2.771
79367SOL    HW139940   6.742  13.012   2.810
79367SOL    HW239941   6.632  13.077   2.729
79368SOL     OW39942  13.138  13.560   0.227
79368SOL    HW139943  13.082  13.497   0.182
79368SOL    HW239944  13.177  13.510   0.299
79369SOL     OW39945  14.007   5.537  11.763
79369SOL    HW139946  13.954   5.602  11.717
79369SOL    HW239947  14.086   5.584  11.790
79370SOL     OW39948   7.576   4.440  12.740
79370SOL    HW139949   7.499   4.497  12.736
79370SOL    HW239950   7.570   4.398  12.826
79371SOL     OW39951   3.487  11.334  11.644
79371SOL    HW139952   3.394  11.341  11.663
79371SOL    HW239953   3.522  11.422  11.663
79372SOL     OW39954   4.636   7.342  10.197
79372SOL    HW139955   4.597   7.358  10.283
79372SOL    HW239956   4.605   7.414  10.143
79373SOL     OW39957   3.545   6.484   8.113
79373SOL    HW139958   3.627   6.437   8.127
79373SOL    HW239959   3.495   6.468   8.194
79374SOL     OW39960   5.782   8.227   0.285
79374SOL    HW139961   5.801   8.194   0.198
79374SOL    HW239962   5.864   8.214   0.334
79375SOL     OW39963   4.294   0.383  14.805
79375SOL    HW139964   4.201   0.359  14.813
79375SOL    HW239965   4.305   0.406  14.713
79376SOL     OW39966   9.185   8.823   4.560
79376SOL    HW139967   9.102   8.860   4.530
79376SOL    HW239968   9.186   8.735   4.522
79377SOL     OW39969   4.104   8.588   3.103
79377SOL    HW139970   4.048   8.527   3.056
79377SOL    HW239971   4.097   8.670   3.054
79378SOL     OW39972   0.467   6.217   7.866
79378SOL    HW139973   0.506   6.166   7.795
79378SOL    HW239974   0.484   6.308   7.842
79379SOL     OW39975   9.634  10.840   1.846
79379SOL    HW139976   9.601  10.788   1.919
79379SOL    HW239977   9.591  10.803   1.769
79380SOL     OW39978  13.728   3.646   4.127
79380SOL    HW139979  13.715   3.584   4.055
79380SOL    HW239980  13.655   3.708   4.118
79381SOL     OW39981   1.560   7.366  10.207
79381SOL    HW139982   1.518   7.328  10.130
79381SOL    HW239983   1.606   7.443  10.174
79382SOL     OW39984   3.149  12.385   7.677
79382SOL    HW139985   3.074  12.368   7.620
79382SOL    HW239986   3.138  12.475   7.707
79383SOL     OW39987  12.996   0.491  11.305
79383SOL    HW139988  12.943   0.415  11.331
79383SOL    HW239989  13.047   0.512  11.383
79384SOL     OW39990   8.441   4.762  10.638
79384SOL    HW139991   8.374   4.828  10.654
79384SOL    HW239992   8.523   4.811  10.640
79385SOL     OW39993   4.508   3.871   1.085
79385SOL    HW139994   4.552   3.952   1.112
79385SOL    HW239995   4.559   3.802   1.128
79386SOL     OW39996   9.356   0.660   2.966
79386SOL    HW139997   9.368   0.578   2.917
79386SOL    HW239998   9.286   0.706   2.919
79387SOL     OW39999   9.269  14.209   8.553
79387SOL    HW140000   9.284  14.211   8.458
79387SOL    HW240001   9.183  14.248   8.565
79388SOL     OW40002   0.517  11.122  11.028
79388SOL    HW140003   0.535  11.057  11.096
79388SOL    HW240004   0.599  11.129  10.980
79389SOL     OW40005   5.967   7.884  12.535
79389SOL    HW140006   5.943   7.841  12.617
79389SOL    HW240007   5.954   7.817  12.468
79390SOL     OW40008  10.794  10.020   1.105
79390SOL    HW140009  10.876  10.067   1.113
79390SOL    HW240010  10.809   9.936   1.148
79391SOL     OW40011   1.772   9.910   5.862
79391SOL    HW140012   1.712   9.969   5.815
79391SOL    HW240013   1.722   9.829   5.872
79392SOL     OW40014   0.770  11.604   0.225
79392SOL    HW140015   0.739  11.615   0.315
79392SOL    HW240016   0.832  11.675   0.212
79393SOL     OW40017   3.408   3.532   8.008
79393SOL    HW140018   3.492   3.568   7.980
79393SOL    HW240019   3.358   3.522   7.927
79394SOL     OW40020  13.890   3.409  12.557
79394SOL    HW140021  13.978   3.432  12.588
79394SOL    HW240022  13.841   3.390  12.636
79395SOL     OW40023   5.591  14.003   2.180
79395SOL    HW140024   5.673  13.959   2.157
79395SOL    HW240025   5.597  14.015   2.275
79396SOL     OW40026  12.009  10.071  14.696
79396SOL    HW140027  11.953  10.105  14.627
79396SOL    HW240028  12.093  10.114  14.683
79397SOL     OW40029   1.653  10.243   7.278
79397SOL    HW140030   1.671  10.299   7.202
79397SOL    HW240031   1.657  10.154   7.244
79398SOL     OW40032   3.142  13.472  12.682
79398SOL    HW140033   3.155  13.407  12.751
79398SOL    HW240034   3.147  13.422  12.601
79399SOL     OW40035   7.948  10.539   6.848
79399SOL    HW140036   7.985  10.563   6.763
79399SOL    HW240037   7.980  10.451   6.864
79400SOL     OW40038   7.096  10.806   2.421
79400SOL    HW140039   7.191  10.810   2.414
79400SOL    HW240040   7.075  10.714   2.406
79401SOL     OW40041   9.795   4.662  10.146
79401SOL    HW140042   9.806   4.646  10.052
79401SOL    HW240043   9.701   4.676  10.156
79402SOL     OW40044   9.061  12.037   5.652
79402SOL    HW140045   8.980  12.077   5.685
79402SOL    HW240046   9.129  12.066   5.712
79403SOL     OW40047  10.890  13.154   3.208
79403SOL    HW140048  10.836  13.135   3.285
79403SOL    HW240049  10.967  13.098   3.217
79404SOL     OW40050   6.220   4.482  10.706
79404SOL    HW140051   6.145   4.537  10.685
79404SOL    HW240052   6.287   4.544  10.737
79405SOL     OW40053   3.360  11.929   7.249
79405SOL    HW140054   3.407  11.878   7.183
79405SOL    HW240055   3.429  11.962   7.307
79406SOL     OW40056   5.075   3.739  14.664
79406SOL    HW140057   4.996   3.691  14.641
79406SOL    HW240058   5.069   3.820  14.613
79407SOL     OW40059  12.742   5.587   8.371
79407SOL    HW140060  12.647   5.583   8.385
79407SOL    HW240061  12.775   5.637   8.446
79408SOL     OW40062   6.860   9.607   9.441
79408SOL    HW140063   6.821   9.613   9.528
79408SOL    HW240064   6.945   9.566   9.456
79409SOL     OW40065  12.719   3.795   0.245
79409SOL    HW140066  12.783   3.863   0.223
79409SOL    HW240067  12.639   3.843   0.267
79410SOL     OW40068  13.774   0.863  14.823
79410SOL    HW140069  13.766   0.956  14.805
79410SOL    HW240070  13.846   0.834  14.766
79411SOL     OW40071   5.893  12.257   4.438
79411SOL    HW140072   5.881  12.243   4.532
79411SOL    HW240073   5.839  12.333   4.418
79412SOL     OW40074  12.284  10.071   2.276
79412SOL    HW140075  12.282  10.154   2.323
79412SOL    HW240076  12.377  10.054   2.262
79413SOL     OW40077   2.289   2.748   8.028
79413SOL    HW140078   2.339   2.667   8.025
79413SOL    HW240079   2.323   2.800   7.955
79414SOL     OW40080   3.575  11.083  11.736
79414SOL    HW140081   3.518  11.154  11.707
79414SOL    HW240082   3.653  11.091  11.682
79415SOL     OW40083   9.094   8.032  10.002
79415SOL    HW140084   9.049   7.990  10.076
79415SOL    HW240085   9.143   8.104  10.042
79416SOL     OW40086  10.212   9.623   4.387
79416SOL    HW140087  10.264   9.637   4.466
79416SOL    HW240088  10.248   9.684   4.323
79417SOL     OW40089   6.898   3.753  11.791
79417SOL    HW140090   6.845   3.675  11.774
79417SOL    HW240091   6.884   3.809  11.715
79418SOL     OW40092   1.287   8.635  13.336
79418SOL    HW140093   1.295   8.541  13.351
79418SOL    HW240094   1.367   8.672  13.373
79419SOL     OW40095   4.371   2.665   3.375
79419SOL    HW140096   4.309   2.696   3.309
79419SOL    HW240097   4.429   2.739   3.391
79420SOL     OW40098   7.829   1.594  13.885
79420SOL    HW140099   7.779   1.587  13.965
79420SOL    HW240100   7.765   1.580  13.815
79421SOL     OW40101   5.505   1.466   6.016
79421SOL    HW140102   5.510   1.488   5.923
79421SOL    HW240103   5.493   1.371   6.018
79422SOL     OW40104   7.580   0.395  11.277
79422SOL    HW140105   7.598   0.448  11.199
79422SOL    HW240106   7.486   0.406  11.292
79423SOL     OW40107  11.826  11.615   1.549
79423SOL    HW140108  11.901  11.673   1.567
79423SOL    HW240109  11.760  11.643   1.612
79424SOL     OW40110   3.557   5.969   5.379
79424SOL    HW140111   3.524   5.944   5.293
79424SOL    HW240112   3.486   6.020   5.418
79425SOL     OW40113   9.416   3.634  11.401
79425SOL    HW140114   9.416   3.709  11.342
79425SOL    HW240115   9.451   3.667  11.484
79426SOL     OW40116   6.682   9.335   7.349
79426SOL    HW140117   6.680   9.252   7.302
79426SOL    HW240118   6.631   9.395   7.294
79427SOL     OW40119   8.311   9.299   3.940
79427SOL    HW140120   8.225   9.264   3.962
79427SOL    HW240121   8.370   9.224   3.953
79428SOL     OW40122   2.833  10.061   1.681
79428SOL    HW140123   2.917  10.021   1.702
79428SOL    HW240124   2.767  10.001   1.716
79429SOL     OW40125   6.593   3.231   2.577
79429SOL    HW140126   6.535   3.271   2.642
79429SOL    HW240127   6.655   3.180   2.630
79430SOL     OW40128   7.749  14.877  13.558
79430SOL    HW140129   7.749  14.783  13.537
79430SOL    HW240130   7.824   0.007  13.616
79431SOL     OW40131   9.430   5.315  11.144
79431SOL    HW140132   9.351   5.268  11.117
79431SOL    HW240133   9.490   5.302  11.071
79432SOL     OW40134   2.070   6.778  12.474
79432SOL    HW140135   2.076   6.769  12.569
79432SOL    HW240136   2.014   6.706  12.447
79433SOL     OW40137   5.158  10.546   9.001
79433SOL    HW140138   5.089  10.537   8.935
79433SOL    HW240139   5.238  10.522   8.955
79434SOL     OW40140   2.952   3.322  12.451
79434SOL    HW140141   2.910   3.295  12.532
79434SOL    HW240142   2.899   3.395  12.419
79435SOL     OW40143   6.728   4.423  11.998
79435SOL    HW140144   6.776   4.340  12.002
79435SOL    HW240145   6.640   4.402  12.029
79436SOL     OW40146  13.739   5.870   7.235
79436SOL    HW140147  13.687   5.858   7.314
79436SOL    HW240148  13.755   5.781   7.203
79437SOL     OW40149  10.919   3.410   3.079
79437SOL    HW140150  10.996   3.413   3.022
79437SOL    HW240151  10.845   3.401   3.020
79438SOL     OW40152   4.950  10.979   3.264
79438SOL    HW140153   4.871  10.929   3.287
79438SOL    HW240154   5.020  10.914   3.265
79439SOL     OW40155   4.784  14.220  14.498
79439SOL    HW140156   4.781  14.184  14.410
79439SOL    HW240157   4.785  14.315  14.485
79440SOL     OW40158  10.677  10.813   8.912
79440SOL    HW140159  10.726  10.843   8.989
79440SOL    HW240160  10.633  10.891   8.880
79441SOL     OW40161   2.157   7.129  11.422
79441SOL    HW140162   2.062   7.140  11.435
79441SOL    HW240163   2.191   7.116  11.511
79442SOL     OW40164  13.563   5.732  13.778
79442SOL    HW140165  13.611   5.652  13.753
79442SOL    HW240166  13.509   5.751  13.701
79443SOL     OW40167   4.237   0.311   7.026
79443SOL    HW140168   4.240   0.227   7.071
79443SOL    HW240169   4.203   0.290   6.939
79444SOL     OW40170   9.834   6.638   4.594
79444SOL    HW140171   9.904   6.581   4.627
79444SOL    HW240172   9.754   6.585   4.602
79445SOL     OW40173   4.509   9.271  10.061
79445SOL    HW140174   4.444   9.269  10.132
79445SOL    HW240175   4.581   9.322  10.096
79446SOL     OW40176   4.779   8.320   7.794
79446SOL    HW140177   4.696   8.333   7.748
79446SOL    HW240178   4.792   8.226   7.797
79447SOL     OW40179   5.979  12.070   8.281
79447SOL    HW140180   6.075  12.072   8.279
79447SOL    HW240181   5.954  12.005   8.216
79448SOL     OW40182   2.463   6.440   9.194
79448SOL    HW140183   2.396   6.490   9.241
79448SOL    HW240184   2.527   6.506   9.168
79449SOL     OW40185   0.229   2.406   0.397
79449SOL    HW140186   0.306   2.455   0.426
79449SOL    HW240187   0.258   2.357   0.321
79450SOL     OW40188   4.526  10.985   4.971
79450SOL    HW140189   4.576  11.012   4.894
79450SOL    HW240190   4.467  11.059   4.988
79451SOL     OW40191  10.243  11.629   2.947
79451SOL    HW140192  10.312  11.669   2.999
79451SOL    HW240193  10.289  11.573   2.885
79452SOL     OW40194   0.026   9.805   4.622
79452SOL    HW140195   0.080   9.833   4.696
79452SOL    HW240196  14.846   9.877   4.610
79453SOL     OW40197   0.097   5.897   5.881
79453SOL    HW140198   0.049   5.849   5.813
79453SOL    HW240199   0.132   5.974   5.835
79454SOL     OW40200  13.734   7.161   1.427
79454SOL    HW140201  13.702   7.119   1.507
79454SOL    HW240202  13.829   7.163   1.437
79455SOL     OW40203  12.512   9.957   2.874
79455SOL    HW140204  12.579   9.927   2.812
79455SOL    HW240205  12.504   9.886   2.938
79456SOL     OW40206   3.388   0.698   1.878
79456SOL    HW140207   3.345   0.718   1.960
79456SOL    HW240208   3.332   0.736   1.811
79457SOL     OW40209   1.378  13.475  13.854
79457SOL    HW140210   1.312  13.448  13.918
79457SOL    HW240211   1.456  13.423  13.875
79458SOL     OW40212   5.573   6.867   8.906
79458SOL    HW140213   5.637   6.922   8.952
79458SOL    HW240214   5.609   6.856   8.818
79459SOL     OW40215  14.801   3.799   8.467
79459SOL    HW140216  14.724   3.796   8.524
79459SOL    HW240217  14.768   3.834   8.384
79460SOL     OW40218   3.809  14.253  10.398
79460SOL    HW140219   3.714  14.242  10.398
79460SOL    HW240220   3.843  14.164  10.410
79461SOL     OW40221   4.607   3.555  11.041
79461SOL    HW140222   4.681   3.505  11.005
79461SOL    HW240223   4.640   3.645  11.047
79462SOL     OW40224  12.481  13.614   7.311
79462SOL    HW140225  12.494  13.630   7.218
79462SOL    HW240226  12.508  13.695   7.354
79463SOL     OW40227  11.798   0.281   0.247
79463SOL    HW140228  11.792   0.231   0.166
79463SOL    HW240229  11.750   0.362   0.230
79464SOL     OW40230  14.038   7.321   4.126
79464SOL    HW140231  13.943   7.322   4.142
79464SOL    HW240232  14.055   7.235   4.088
79465SOL     OW40233   9.456  13.247   1.075
79465SOL    HW140234   9.386  13.295   1.031
79465SOL    HW240235   9.412  13.197   1.144
79466SOL     OW40236   8.018   4.361   5.931
79466SOL    HW140237   8.110   4.363   5.956
79466SOL    HW240238   7.998   4.451   5.905
79467SOL     OW40239  10.165   5.174   4.935
79467SOL    HW140240  10.219   5.145   5.008
79467SOL    HW240241  10.225   5.220   4.877
79468SOL     OW40242   5.254  11.035   6.474
79468SOL    HW140243   5.315  10.985   6.419
79468SOL    HW240244   5.284  11.126   6.465
79469SOL     OW40245  11.063  11.447   9.648
79469SOL    HW140246  11.146  11.402   9.631
79469SOL    HW240247  11.086  11.522   9.703
79470SOL     OW40248   7.184  12.274   2.287
79470SOL    HW140249   7.097  12.311   2.303
79470SOL    HW240250   7.168  12.182   2.265
79471SOL     OW40251   1.565   4.632   3.577
79471SOL    HW140252   1.518   4.550   3.590
79471SOL    HW240253   1.649   4.606   3.539
79472SOL     OW40254   6.452   2.854  11.125
79472SOL    HW140255   6.453   2.824  11.034
79472SOL    HW240256   6.362   2.885  11.139
79473SOL     OW40257  14.668  13.863   7.912
79473SOL    HW140258  14.611  13.904   7.847
79473SOL    HW240259  14.668  13.770   7.889
79474SOL     OW40260   1.129   5.621   5.702
79474SOL    HW140261   1.165   5.533   5.714
79474SOL    HW240262   1.200   5.669   5.660
79475SOL     OW40263  14.075   1.676   3.774
79475SOL    HW140264  14.059   1.684   3.680
79475SOL    HW240265  14.108   1.763   3.799
79476SOL     OW40266   6.873   8.171   1.845
79476SOL    HW140267   6.963   8.144   1.828
79476SOL    HW240268   6.867   8.259   1.809
79477SOL     OW40269   8.360   8.298   6.544
79477SOL    HW140270   8.301   8.292   6.468
79477SOL    HW240271   8.306   8.273   6.618
79478SOL     OW40272  14.367   5.638   5.030
79478SOL    HW140273  14.413   5.559   5.061
79478SOL    HW240274  14.437   5.696   5.000
79479SOL     OW40275  13.427   2.855  14.079
79479SOL    HW140276  13.521   2.867  14.067
79479SOL    HW240277  13.387   2.923  14.024
79480SOL     OW40278   6.679   0.017   4.986
79480SOL    HW140279   6.623   0.022   4.909
79480SOL    HW240280   6.732  14.820   4.973
79481SOL     OW40281   4.612   9.150   9.579
79481SOL    HW140282   4.568   9.162   9.663
79481SOL    HW240283   4.673   9.078   9.594
79482SOL     OW40284   6.415   4.174  10.385
79482SOL    HW140285   6.430   4.096  10.331
79482SOL    HW240286   6.485   4.172  10.450
79483SOL     OW40287  13.909   2.197   1.497
79483SOL    HW140288  13.956   2.114   1.494
79483SOL    HW240289  13.961   2.253   1.555
79484SOL     OW40290   5.356   3.611  11.158
79484SOL    HW140291   5.368   3.660  11.077
79484SOL    HW240292   5.441   3.614  11.202
79485SOL     OW40293   8.060  11.888  13.495
79485SOL    HW140294   8.026  11.805  13.462
79485SOL    HW240295   8.050  11.881  13.590
79486SOL     OW40296   7.918  10.466   8.598
79486SOL    HW140297   7.977  10.480   8.523
79486SOL    HW240298   7.950  10.385   8.638
79487SOL     OW40299   7.357   2.278  13.744
79487SOL    HW140300   7.398   2.257  13.660
79487SOL    HW240301   7.403   2.356  13.775
79488SOL     OW40302   8.176   8.365  13.743
79488SOL    HW140303   8.117   8.314  13.687
79488SOL    HW240304   8.147   8.346  13.832
79489SOL     OW40305   8.967  10.056   5.549
79489SOL    HW140306   9.017  10.082   5.472
79489SOL    HW240307   8.901  10.125   5.559
79490SOL     OW40308   7.937   9.599   5.738
79490SOL    HW140309   8.004   9.596   5.670
79490SOL    HW240310   7.939   9.689   5.771
79491SOL     OW40311   0.832   4.019   8.123
79491SOL    HW140312   0.868   4.047   8.039
79491SOL    HW240313   0.815   4.100   8.171
79492SOL     OW40314  13.659   7.008   1.683
79492SOL    HW140315  13.578   7.059   1.690
79492SOL    HW240316  13.660   6.954   1.763
79493SOL     OW40317  13.460  10.636  14.537
79493SOL    HW140318  13.380  10.593  14.506
79493SOL    HW240319  13.452  10.635  14.633
79494SOL     OW40320   5.655   6.362   2.312
79494SOL    HW140321   5.698   6.404   2.238
79494SOL    HW240322   5.675   6.419   2.386
79495SOL     OW40323   5.325  12.985   2.537
79495SOL    HW140324   5.256  13.049   2.553
79495SOL    HW240325   5.404  13.038   2.524
79496SOL     OW40326  14.398   6.087   2.799
79496SOL    HW140327  14.471   6.148   2.787
79496SOL    HW240328  14.355   6.082   2.714
79497SOL     OW40329   6.303  11.937   1.796
79497SOL    HW140330   6.219  11.922   1.839
79497SOL    HW240331   6.350  11.996   1.855
79498SOL     OW40332  14.543   8.871   5.103
79498SOL    HW140333  14.482   8.865   5.030
79498SOL    HW240334  14.629   8.856   5.064
79499SOL     OW40335   1.880   2.510   5.658
79499SOL    HW140336   1.845   2.547   5.577
79499SOL    HW240337   1.804   2.470   5.701
79500SOL     OW40338   2.398   2.495  14.361
79500SOL    HW140339   2.393   2.399  14.355
79500SOL    HW240340   2.384   2.514  14.453
79501SOL     OW40341   0.947   6.215  12.149
79501SOL    HW140342   0.998   6.224  12.069
79501SOL    HW240343   0.954   6.300  12.192
79502SOL     OW40344   5.951   0.009  13.030
79502SOL    HW140345   5.901   0.002  12.949
79502SOL    HW240346   5.988  14.804  13.043
79503SOL     OW40347  13.124   8.578   8.565
79503SOL    HW140348  13.107   8.666   8.597
79503SOL    HW240349  13.218   8.565   8.579
79504SOL     OW40350  13.108   6.887   1.419
79504SOL    HW140351  13.106   6.864   1.327
79504SOL    HW240352  13.025   6.856   1.454
79505SOL     OW40353   7.206  13.023   8.151
79505SOL    HW140354   7.158  12.949   8.113
79505SOL    HW240355   7.144  13.063   8.212
79506SOL     OW40356   1.706   9.515   5.617
79506SOL    HW140357   1.670   9.526   5.529
79506SOL    HW240358   1.797   9.490   5.603
79507SOL     OW40359   7.339  11.821   5.501
79507SOL    HW140360   7.423  11.852   5.534
79507SOL    HW240361   7.361  11.742   5.450
79508SOL     OW40362  11.149  14.836   6.738
79508SOL    HW140363  11.187  14.749   6.741
79508SOL    HW240364  11.058  14.822   6.711
79509SOL     OW40365   7.697   5.986   0.965
79509SOL    HW140366   7.660   6.068   0.934
79509SOL    HW240367   7.750   5.954   0.891
79510SOL     OW40368   6.026   1.086   7.212
79510SOL    HW140369   5.957   1.046   7.266
79510SOL    HW240370   5.984   1.161   7.171
79511SOL     OW40371   3.417   6.094  13.009
79511SOL    HW140372   3.350   6.098  13.077
79511SOL    HW240373   3.374   6.049  12.936
79512SOL     OW40374   8.760   3.097   1.057
79512SOL    HW140375   8.718   3.059   1.134
79512SOL    HW240376   8.819   3.029   1.025
79513SOL     OW40377  10.773   6.378  14.490
79513SOL    HW140378  10.787   6.294  14.535
79513SOL    HW240379  10.679   6.394  14.498
79514SOL     OW40380  14.609  12.271   9.501
79514SOL    HW140381  14.622  12.281   9.407
79514SOL    HW240382  14.521  12.305   9.517
79515SOL     OW40383   7.412  12.787   1.611
79515SOL    HW140384   7.331  12.792   1.561
79515SOL    HW240385   7.475  12.836   1.559
79516SOL     OW40386   6.553   2.466   7.551
79516SOL    HW140387   6.619   2.535   7.550
79516SOL    HW240388   6.540   2.447   7.644
79517SOL     OW40389   2.221   5.933  13.987
79517SOL    HW140390   2.151   5.962  13.928
79517SOL    HW240391   2.284   5.889  13.930
79518SOL     OW40392  10.103  11.779   0.592
79518SOL    HW140393  10.194  11.766   0.564
79518SOL    HW240394  10.081  11.698   0.637
79519SOL     OW40395   2.103   1.572  10.815
79519SOL    HW140396   2.057   1.505  10.765
79519SOL    HW240397   2.078   1.556  10.906
79520SOL     OW40398   1.452   3.571   4.930
79520SOL    HW140399   1.391   3.589   5.002
79520SOL    HW240400   1.467   3.657   4.891
79521SOL     OW40401   0.037   4.980  12.869
79521SOL    HW140402   0.115   5.035  12.859
79521SOL    HW240403  14.861   5.009  12.798
79522SOL     OW40404  14.683   9.628   3.326
79522SOL    HW140405  14.765   9.666   3.360
79522SOL    HW240406  14.696   9.623   3.232
79523SOL     OW40407   3.005  12.160   3.898
79523SOL    HW140408   3.042  12.152   3.986
79523SOL    HW240409   3.041  12.085   3.850
79524SOL     OW40410   5.123   4.509   2.557
79524SOL    HW140411   5.080   4.495   2.641
79524SOL    HW240412   5.209   4.544   2.579
79525SOL     OW40413  10.764   5.498   9.746
79525SOL    HW140414  10.756   5.568   9.682
79525SOL    HW240415  10.854   5.467   9.737
79526SOL     OW40416   4.384  13.832   4.854
79526SOL    HW140417   4.360  13.860   4.766
79526SOL    HW240418   4.315  13.868   4.910
79527SOL     OW40419  13.822   5.873   3.984
79527SOL    HW140420  13.765   5.875   3.907
79527SOL    HW240421  13.877   5.796   3.970
79528SOL     OW40422   8.713   3.554  13.669
79528SOL    HW140423   8.785   3.501  13.703
79528SOL    HW240424   8.669   3.497  13.606
79529SOL     OW40425   2.430   8.530   5.741
79529SOL    HW140426   2.520   8.545   5.711
79529SOL    HW240427   2.440   8.494   5.829
79530SOL     OW40428  12.096   7.249  14.653
79530SOL    HW140429  12.168   7.193  14.624
79530SOL    HW240430  12.027   7.235  14.588
79531SOL     OW40431   8.334  14.522   7.191
79531SOL    HW140432   8.359  14.595   7.135
79531SOL    HW240433   8.387  14.534   7.270
79532SOL     OW40434  12.552   1.987   5.896
79532SOL    HW140435  12.570   2.078   5.918
79532SOL    HW240436  12.521   1.990   5.805
79533SOL     OW40437  11.811  13.687   4.247
79533SOL    HW140438  11.740  13.655   4.303
79533SOL    HW240439  11.819  13.620   4.179
79534SOL     OW40440  13.755  12.233   2.333
79534SOL    HW140441  13.762  12.146   2.371
79534SOL    HW240442  13.715  12.286   2.402
79535SOL     OW40443   1.366  10.082   7.422
79535SOL    HW140444   1.316  10.020   7.369
79535SOL    HW240445   1.346  10.168   7.385
79536SOL     OW40446   3.707   5.186   3.826
79536SOL    HW140447   3.782   5.180   3.767
79536SOL    HW240448   3.744   5.170   3.913
79537SOL     OW40449   2.471   2.387   6.480
79537SOL    HW140450   2.403   2.441   6.521
79537SOL    HW240451   2.554   2.428   6.506
79538SOL     OW40452  12.907   0.821   9.457
79538SOL    HW140453  12.839   0.755   9.469
79538SOL    HW240454  12.973   0.778   9.403
79539SOL     OW40455   9.157   9.619  11.345
79539SOL    HW140456   9.202   9.700  11.318
79539SOL    HW240457   9.099   9.647  11.415
79540SOL     OW40458   3.768   0.661   7.916
79540SOL    HW140459   3.855   0.657   7.956
79540SOL    HW240460   3.786   0.672   7.823
79541SOL     OW40461   0.426   2.672   4.095
79541SOL    HW140462   0.341   2.679   4.053
79541SOL    HW240463   0.481   2.737   4.051
79542SOL     OW40464   7.588   4.063   8.824
79542SOL    HW140465   7.519   4.062   8.758
79542SOL    HW240466   7.593   4.155   8.852
79543SOL     OW40467  10.021   7.313   3.188
79543SOL    HW140468  10.013   7.273   3.274
79543SOL    HW240469  10.028   7.407   3.205
79544SOL     OW40470   6.592   0.624  13.619
79544SOL    HW140471   6.635   0.606  13.535
79544SOL    HW240472   6.513   0.672  13.596
79545SOL     OW40473   5.127   1.632   5.918
79545SOL    HW140474   5.089   1.630   6.006
79545SOL    HW240475   5.054   1.657   5.862
79546SOL     OW40476   8.696  11.517   5.142
79546SOL    HW140477   8.746  11.436   5.153
79546SOL    HW240478   8.748  11.583   5.189
79547SOL     OW40479  11.818   3.338   3.001
79547SOL    HW140480  11.801   3.302   2.914
79547SOL    HW240481  11.812   3.433   2.990
79548SOL     OW40482  13.291   7.375   9.452
79548SOL    HW140483  13.277   7.429   9.530
79548SOL    HW240484  13.380   7.395   9.425
79549SOL     OW40485   1.739  13.700   2.455
79549SOL    HW140486   1.685  13.776   2.477
79549SOL    HW240487   1.805  13.698   2.524
79550SOL     OW40488   5.593   1.367  11.938
79550SOL    HW140489   5.680   1.326  11.944
79550SOL    HW240490   5.567   1.353  11.847
79551SOL     OW40491   8.655   0.654  14.155
79551SOL    HW140492   8.653   0.601  14.076
79551SOL    HW240493   8.639   0.744  14.125
79552SOL     OW40494   7.171   4.445   2.619
79552SOL    HW140495   7.230   4.490   2.681
79552SOL    HW240496   7.220   4.442   2.537
79553SOL     OW40497  13.303   2.969   2.887
79553SOL    HW140498  13.371   3.021   2.845
79553SOL    HW240499  13.349   2.892   2.921
79554SOL     OW40500  10.680   6.218   5.283
79554SOL    HW140501  10.716   6.150   5.225
79554SOL    HW240502  10.710   6.300   5.244
79555SOL     OW40503   2.543   5.922  11.983
79555SOL    HW140504   2.528   5.896  12.074
79555SOL    HW240505   2.595   5.851  11.946
79556SOL     OW40506   2.927   0.186   4.251
79556SOL    HW140507   2.861   0.225   4.309
79556SOL    HW240508   2.976   0.261   4.218
79557SOL     OW40509   3.837  11.450  10.792
79557SOL    HW140510   3.838  11.546  10.797
79557SOL    HW240511   3.886  11.421  10.869
79558SOL     OW40512  10.739   5.190   2.925
79558SOL    HW140513  10.679   5.225   2.858
79558SOL    HW240514  10.694   5.207   3.008
79559SOL     OW40515   2.743  12.812   2.695
79559SOL    HW140516   2.816  12.784   2.750
79559SOL    HW240517   2.683  12.856   2.754
79560SOL     OW40518   6.266   3.411   2.833
79560SOL    HW140519   6.357   3.383   2.846
79560SOL    HW240520   6.267   3.505   2.853
79561SOL     OW40521   6.621  11.710  10.412
79561SOL    HW140522   6.665  11.632  10.378
79561SOL    HW240523   6.638  11.778  10.347
79562SOL     OW40524   7.260   5.784  14.476
79562SOL    HW140525   7.311   5.761  14.398
79562SOL    HW240526   7.234   5.699  14.512
79563SOL     OW40527   0.759   9.089   0.450
79563SOL    HW140528   0.671   9.085   0.413
79563SOL    HW240529   0.801   9.163   0.406
79564SOL     OW40530   7.069   6.256  13.143
79564SOL    HW140531   7.045   6.216  13.227
79564SOL    HW240532   7.153   6.300  13.161
79565SOL     OW40533   1.827   4.846  12.448
79565SOL    HW140534   1.827   4.930  12.494
79565SOL    HW240535   1.876   4.787  12.506
79566SOL     OW40536  14.094   0.820   2.178
79566SOL    HW140537  14.009   0.779   2.163
79566SOL    HW240538  14.103   0.883   2.106
79567SOL     OW40539   2.160   5.083  10.337
79567SOL    HW140540   2.195   5.133  10.411
79567SOL    HW240541   2.226   5.094  10.268
79568SOL     OW40542   2.127  13.388   6.114
79568SOL    HW140543   2.205  13.333   6.112
79568SOL    HW240544   2.145  13.452   6.182
79569SOL     OW40545   0.829  12.835   2.575
79569SOL    HW140546   0.814  12.741   2.579
79569SOL    HW240547   0.837  12.863   2.666
79570SOL     OW40548   3.989   4.545   0.350
79570SOL    HW140549   4.076   4.562   0.313
79570SOL    HW240550   3.929   4.592   0.291
79571SOL     OW40551   8.765  10.647   3.696
79571SOL    HW140552   8.711  10.675   3.770
79571SOL    HW240553   8.789  10.557   3.716
79572SOL     OW40554   5.994   8.956   4.517
79572SOL    HW140555   5.901   8.979   4.519
79572SOL    HW240556   6.012   8.937   4.426
79573SOL     OW40557  13.955   4.134  14.419
79573SOL    HW140558  14.037   4.084  14.416
79573SOL    HW240559  13.983   4.225  14.426
79574SOL     OW40560  10.692   0.358   4.181
79574SOL    HW140561  10.671   0.431   4.122
79574SOL    HW240562  10.629   0.289   4.157
79575SOL     OW40563   8.169   6.169   0.296
79575SOL    HW140564   8.125   6.235   0.349
79575SOL    HW240565   8.206   6.108   0.359
79576SOL     OW40566  13.225  13.801  10.830
79576SOL    HW140567  13.173  13.875  10.800
79576SOL    HW240568  13.316  13.831  10.825
79577SOL     OW40569  14.285   9.376  10.520
79577SOL    HW140570  14.207   9.320  10.514
79577SOL    HW240571  14.283   9.411  10.608
79578SOL     OW40572   1.206   3.840   9.763
79578SOL    HW140573   1.292   3.805   9.788
79578SOL    HW240574   1.146   3.766   9.771
79579SOL     OW40575   1.514   3.224  14.032
79579SOL    HW140576   1.532   3.215  14.125
79579SOL    HW240577   1.418   3.223  14.026
79580SOL     OW40578  13.632   7.236   8.423
79580SOL    HW140579  13.556   7.178   8.412
79580SOL    HW240580  13.701   7.178   8.454
79581SOL     OW40581   2.500  11.674  11.647
79581SOL    HW140582   2.442  11.739  11.687
79581SOL    HW240583   2.444  11.599  11.629
79582SOL     OW40584   5.595   1.373   3.071
79582SOL    HW140585   5.526   1.432   3.041
79582SOL    HW240586   5.602   1.390   3.165
79583SOL     OW40587   5.975  12.785   0.075
79583SOL    HW140588   5.924  12.731   0.135
79583SOL    HW240589   6.015  12.852   0.130
79584SOL     OW40590   4.036  13.564   5.030
79584SOL    HW140591   4.017  13.527   5.116
79584SOL    HW240592   4.131  13.569   5.026
79585SOL     OW40593   8.514   9.024   1.438
79585SOL    HW140594   8.552   9.080   1.371
79585SOL    HW240595   8.530   9.070   1.521
79586SOL     OW40596  11.642   5.452  13.070
79586SOL    HW140597  11.552   5.465  13.100
79586SOL    HW240598  11.681   5.397  13.138
79587SOL     OW40599  12.376  13.932   1.677
79587SOL    HW140600  12.361  13.994   1.607
79587SOL    HW240601  12.319  13.961   1.748
79588SOL     OW40602   6.292   2.305  11.354
79588SOL    HW140603   6.256   2.264  11.433
79588SOL    HW240604   6.369   2.353  11.385
79589SOL     OW40605   4.406   5.524   6.000
79589SOL    HW140606   4.367   5.561   5.921
79589SOL    HW240607   4.375   5.581   6.071
79590SOL     OW40608   5.708   4.918  13.201
79590SOL    HW140609   5.615   4.915  13.180
79590SOL    HW240610   5.725   4.838  13.251
79591SOL     OW40611  12.961   8.893   1.920
79591SOL    HW140612  13.049   8.856   1.914
79591SOL    HW240613  12.975   8.985   1.946
79592SOL     OW40614   0.544   1.246   1.086
79592SOL    HW140615   0.462   1.295   1.076
79592SOL    HW240616   0.529   1.165   1.038
79593SOL     OW40617  14.679   0.147   7.407
79593SOL    HW140618  14.688   0.230   7.455
79593SOL    HW240619  14.608   0.101   7.450
79594SOL     OW40620  14.272   1.197   9.980
79594SOL    HW140621  14.280   1.120   9.924
79594SOL    HW240622  14.249   1.162  10.066
79595SOL     OW40623  13.246   0.417  13.127
79595SOL    HW140624  13.274   0.354  13.061
79595SOL    HW240625  13.152   0.430  13.111
79596SOL     OW40626   4.962   9.025   0.144
79596SOL    HW140627   5.044   8.978   0.126
79596SOL    HW240628   4.986   9.117   0.135
79597SOL     OW40629   0.011   1.877   0.484
79597SOL    HW140630   0.047   1.918   0.564
79597SOL    HW240631  14.817   1.827   0.515
79598SOL     OW40632   3.536  14.241   7.284
79598SOL    HW140633   3.528  14.153   7.246
79598SOL    HW240634   3.576  14.293   7.214
79599SOL     OW40635  11.099  10.540   6.482
79599SOL    HW140636  11.096  10.625   6.527
79599SOL    HW240637  11.080  10.476   6.551
79600SOL     OW40638  11.418  12.220  10.313
79600SOL    HW140639  11.348  12.242  10.374
79600SOL    HW240640  11.468  12.301  10.304
79601SOL     OW40641   5.720   0.402   3.680
79601SOL    HW140642   5.722   0.332   3.745
79601SOL    HW240643   5.738   0.481   3.729
79602SOL     OW40644   7.485   3.832   7.254
79602SOL    HW140645   7.459   3.786   7.174
79602SOL    HW240646   7.404   3.840   7.304
79603SOL     OW40647   5.500   0.166  10.887
79603SOL    HW140648   5.498   0.177  10.792
79603SOL    HW240649   5.419   0.121  10.908
79604SOL     OW40650  12.611   4.238  13.413
79604SOL    HW140651  12.645   4.253  13.501
79604SOL    HW240652  12.655   4.303  13.359
79605SOL     OW40653   1.989  13.911   1.590
79605SOL    HW140654   2.044  13.872   1.522
79605SOL    HW240655   2.045  13.913   1.667
79606SOL     OW40656   7.028   3.581  11.964
79606SOL    HW140657   7.003   3.652  11.904
79606SOL    HW240658   7.122   3.572  11.952
79607SOL     OW40659   2.105   3.843   2.161
79607SOL    HW140660   2.074   3.883   2.242
79607SOL    HW240661   2.095   3.749   2.176
79608SOL     OW40662   3.044   7.836  13.822
79608SOL    HW140663   3.137   7.830  13.844
79608SOL    HW240664   2.998   7.816  13.904
79609SOL     OW40665   0.200   7.126  10.546
79609SOL    HW140666   0.184   7.212  10.508
79609SOL    HW240667   0.113   7.091  10.564
79610SOL     OW40668  12.727   5.618  10.037
79610SOL    HW140669  12.777   5.569   9.972
79610SOL    HW240670  12.660   5.556  10.068
79611SOL     OW40671   3.808   9.559   0.848
79611SOL    HW140672   3.901   9.560   0.867
79611SOL    HW240673   3.803   9.570   0.753
79612SOL     OW40674  10.620   8.829  11.668
79612SOL    HW140675  10.658   8.824  11.756
79612SOL    HW240676  10.673   8.767  11.616
79613SOL     OW40677   0.953   7.201   7.025
79613SOL    HW140678   0.861   7.176   7.016
79613SOL    HW240679   0.998   7.145   6.961
79614SOL     OW40680   5.149   5.301   4.307
79614SOL    HW140681   5.079   5.245   4.341
79614SOL    HW240682   5.229   5.254   4.328
79615SOL     OW40683   8.072   0.181   0.048
79615SOL    HW140684   8.067   0.095   0.089
79615SOL    HW240685   8.036   0.241   0.114
79616SOL     OW40686  10.770  13.356   2.339
79616SOL    HW140687  10.681  13.388   2.335
79616SOL    HW240688  10.776  13.312   2.425
79617SOL     OW40689   7.583   0.437  14.460
79617SOL    HW140690   7.647   0.480  14.517
79617SOL    HW240691   7.539   0.509  14.415
79618SOL     OW40692   3.230   4.405   5.613
79618SOL    HW140693   3.148   4.356   5.601
79618SOL    HW240694   3.227   4.435   5.704
79619SOL     OW40695   3.103   8.298  10.082
79619SOL    HW140696   3.185   8.305  10.131
79619SOL    HW240697   3.035   8.298  10.149
79620SOL     OW40698  13.385   1.573   2.950
79620SOL    HW140699  13.316   1.638   2.963
79620SOL    HW240700  13.381   1.518   3.029
79621SOL     OW40701  12.262   4.164  12.207
79621SOL    HW140702  12.356   4.147  12.198
79621SOL    HW240703  12.256   4.259  12.216
79622SOL     OW40704   6.544   9.430  12.398
79622SOL    HW140705   6.561   9.336  12.388
79622SOL    HW240706   6.466   9.435  12.453
79623SOL     OW40707   5.003  14.498   9.581
79623SOL    HW140708   5.088  14.456   9.567
79623SOL    HW240709   5.025  14.585   9.613
79624SOL     OW40710   5.336   6.519  12.372
79624SOL    HW140711   5.419   6.524  12.420
79624SOL    HW240712   5.296   6.437  12.400
79625SOL     OW40713   8.260  12.764   3.312
79625SOL    HW140714   8.274  12.754   3.218
79625SOL    HW240715   8.348  12.755   3.351
79626SOL     OW40716   2.815   7.477   7.091
79626SOL    HW140717   2.847   7.397   7.132
79626SOL    HW240718   2.816   7.458   6.997
79627SOL     OW40719  12.678   0.607   0.783
79627SOL    HW140720  12.763   0.611   0.739
79627SOL    HW240721  12.617   0.649   0.722
79628SOL     OW40722  10.758  10.073   5.518
79628SOL    HW140723  10.822  10.091   5.587
79628SOL    HW240724  10.800  10.102   5.437
79629SOL     OW40725   0.077  12.473   3.885
79629SOL    HW140726   0.122  12.403   3.838
79629SOL    HW240727   0.095  12.454   3.978
79630SOL     OW40728   9.919   8.931   0.174
79630SOL    HW140729   9.964   8.989   0.236
79630SOL    HW240730   9.829   8.927   0.206
79631SOL     OW40731  12.683   1.163  14.037
79631SOL    HW140732  12.627   1.129  14.107
79631SOL    HW240733  12.652   1.119  13.958
79632SOL     OW40734   6.857   2.100   3.949
79632SOL    HW140735   6.845   2.005   3.954
79632SOL    HW240736   6.768   2.135   3.941
79633SOL     OW40737   9.551   9.206   7.683
79633SOL    HW140738   9.484   9.262   7.722
79633SOL    HW240739   9.614   9.192   7.754
79634SOL     OW40740  10.571   0.998   1.900
79634SOL    HW140741  10.610   1.011   1.813
79634SOL    HW240742  10.549   0.905   1.902
79635SOL     OW40743   9.292   8.181   1.463
79635SOL    HW140744   9.365   8.164   1.404
79635SOL    HW240745   9.333   8.194   1.549
79636SOL     OW40746  13.298   6.251  12.020
79636SOL    HW140747  13.216   6.268  12.065
79636SOL    HW240748  13.276   6.182  11.957
79637SOL     OW40749  14.839   2.674   1.798
79637SOL    HW140750  14.825   2.629   1.715
79637SOL    HW240751  14.777   2.748   1.796
79638SOL     OW40752  12.727   0.763   3.893
79638SOL    HW140753  12.716   0.673   3.923
79638SOL    HW240754  12.655   0.775   3.830
79639SOL     OW40755  10.318   3.456   8.927
79639SOL    HW140756  10.286   3.522   8.866
79639SOL    HW240757  10.278   3.375   8.898
79640SOL     OW40758   8.119   2.599   5.272
79640SOL    HW140759   8.206   2.579   5.305
79640SOL    HW240760   8.065   2.607   5.351
79641SOL     OW40761   0.707   9.286   0.977
79641SOL    HW140762   0.743   9.221   1.036
79641SOL    HW240763   0.665   9.235   0.907
79642SOL     OW40764   5.040   3.366   8.139
79642SOL    HW140765   4.968   3.348   8.078
79642SOL    HW240766   5.102   3.293   8.125
79643SOL     OW40767   0.499   7.137   3.577
79643SOL    HW140768   0.590   7.111   3.565
79643SOL    HW240769   0.449   7.076   3.522
79644SOL     OW40770  12.597   5.148   7.090
79644SOL    HW140771  12.661   5.220   7.091
79644SOL    HW240772  12.650   5.070   7.105
79645SOL     OW40773   1.947  12.847   7.511
79645SOL    HW140774   1.940  12.886   7.424
79645SOL    HW240775   2.012  12.777   7.500
79646SOL     OW40776   1.965   9.074  13.961
79646SOL    HW140777   1.905   9.098  14.033
79646SOL    HW240778   2.021   9.151  13.951
79647SOL     OW40779  14.594   9.388  10.832
79647SOL    HW140780  14.612   9.295  10.817
79647SOL    HW240781  14.680   9.426  10.852
79648SOL     OW40782  10.160   1.347  10.409
79648SOL    HW140783  10.149   1.312  10.498
79648SOL    HW240784  10.138   1.440  10.418
79649SOL     OW40785  10.661   7.509   9.636
79649SOL    HW140786  10.587   7.565   9.611
79649SOL    HW240787  10.632   7.420   9.617
79650SOL     OW40788   5.370   5.949   0.921
79650SOL    HW140789   5.445   5.891   0.930
79650SOL    HW240790   5.294   5.890   0.921
79651SOL     OW40791   3.028   2.154   1.780
79651SOL    HW140792   3.021   2.095   1.856
79651SOL    HW240793   3.105   2.208   1.799
79652SOL     OW40794  10.280   8.645   7.854
79652SOL    HW140795  10.322   8.691   7.927
79652SOL    HW240796  10.229   8.713   7.810
79653SOL     OW40797   4.302   2.701   6.881
79653SOL    HW140798   4.252   2.658   6.951
79653SOL    HW240799   4.309   2.792   6.909
79654SOL     OW40800   6.400   3.076  14.573
79654SOL    HW140801   6.316   3.086  14.618
79654SOL    HW240802   6.458   3.137  14.619
79655SOL     OW40803   8.796   1.210   0.360
79655SOL    HW140804   8.715   1.168   0.331
79655SOL    HW240805   8.853   1.137   0.386
79656SOL     OW40806  10.589   3.955  10.929
79656SOL    HW140807  10.610   4.031  10.982
79656SOL    HW240808  10.673   3.924  10.896
79657SOL     OW40809   0.431  12.623   2.448
79657SOL    HW140810   0.484  12.546   2.468
79657SOL    HW240811   0.399  12.652   2.534
79658SOL     OW40812   2.923   6.125   4.246
79658SOL    HW140813   2.995   6.170   4.202
79658SOL    HW240814   2.965   6.056   4.297
79659SOL     OW40815  13.672   5.793   5.146
79659SOL    HW140816  13.586   5.781   5.187
79659SOL    HW240817  13.734   5.786   5.218
79660SOL     OW40818   1.407   6.349   6.119
79660SOL    HW140819   1.389   6.439   6.094
79660SOL    HW240820   1.322   6.312   6.141
79661SOL     OW40821   8.436   6.346   0.886
79661SOL    HW140822   8.468   6.417   0.830
79661SOL    HW240823   8.460   6.266   0.839
79662SOL     OW40824   1.004   9.847   4.971
79662SOL    HW140825   0.938   9.816   4.909
79662SOL    HW240826   1.067   9.775   4.977
79663SOL     OW40827  10.681   2.357   6.764
79663SOL    HW140828  10.705   2.412   6.689
79663SOL    HW240829  10.711   2.269   6.740
79664SOL     OW40830   0.250  14.484  12.540
79664SOL    HW140831   0.261  14.579  12.543
79664SOL    HW240832   0.179  14.466  12.601
79665SOL     OW40833   4.556   6.238   5.593
79665SOL    HW140834   4.506   6.274   5.520
79665SOL    HW240835   4.527   6.289   5.669
79666SOL     OW40836  12.005   5.906   3.140
79666SOL    HW140837  11.924   5.874   3.100
79666SOL    HW240838  11.984   5.996   3.167
79667SOL     OW40839   2.407  10.653   2.681
79667SOL    HW140840   2.429  10.719   2.746
79667SOL    HW240841   2.317  10.674   2.655
79668SOL     OW40842  12.726   2.005  11.757
79668SOL    HW140843  12.799   2.067  11.762
79668SOL    HW240844  12.649   2.060  11.748
79669SOL     OW40845   7.775   8.082   9.897
79669SOL    HW140846   7.776   8.021   9.824
79669SOL    HW240847   7.746   8.165   9.858
79670SOL     OW40848   5.267   6.625   6.063
79670SOL    HW140849   5.260   6.690   6.133
79670SOL    HW240850   5.361   6.607   6.056
79671SOL     OW40851   6.072   5.298   7.181
79671SOL    HW140852   6.091   5.381   7.225
79671SOL    HW240853   6.147   5.284   7.123
79672SOL     OW40854   1.599   7.448   0.103
79672SOL    HW140855   1.642   7.469   0.186
79672SOL    HW240856   1.670   7.447   0.039
79673SOL     OW40857   4.786   4.011   5.693
79673SOL    HW140858   4.701   3.994   5.653
79673SOL    HW240859   4.791   3.947   5.765
79674SOL     OW40860   6.490  10.429   1.618
79674SOL    HW140861   6.439  10.359   1.659
79674SOL    HW240862   6.581  10.404   1.632
79675SOL     OW40863   7.808   9.502   1.042
79675SOL    HW140864   7.887   9.449   1.034
79675SOL    HW240865   7.840   9.591   1.057
79676SOL     OW40866   2.564  12.524  11.305
79676SOL    HW140867   2.536  12.594  11.364
79676SOL    HW240868   2.658  12.514  11.322
79677SOL     OW40869   2.528   1.113  14.656
79677SOL    HW140870   2.605   1.159  14.690
79677SOL    HW240871   2.564   1.036  14.612
79678SOL     OW40872  12.958   8.698   7.745
79678SOL    HW140873  12.909   8.728   7.822
79678SOL    HW240874  13.044   8.673   7.781
79679SOL     OW40875   4.497   3.362   6.508
79679SOL    HW140876   4.460   3.388   6.424
79679SOL    HW240877   4.526   3.444   6.548
79680SOL     OW40878  13.342   1.067   2.106
79680SOL    HW140879  13.409   1.004   2.079
79680SOL    HW240880  13.371   1.150   2.069
79681SOL     OW40881   5.615   0.853   5.607
79681SOL    HW140882   5.706   0.830   5.588
79681SOL    HW240883   5.605   0.940   5.568
79682SOL     OW40884  10.454   5.186   0.654
79682SOL    HW140885  10.403   5.256   0.614
79682SOL    HW240886  10.493   5.139   0.580
79683SOL     OW40887   5.553  11.099   6.688
79683SOL    HW140888   5.490  11.030   6.706
79683SOL    HW240889   5.542  11.161   6.760
79684SOL     OW40890   3.199  10.038  11.790
79684SOL    HW140891   3.293  10.046  11.779
79684SOL    HW240892   3.178  10.098  11.862
79685SOL     OW40893  13.691   5.944   7.824
79685SOL    HW140894  13.746   5.911   7.895
79685SOL    HW240895  13.602   5.920   7.850
79686SOL     OW40896  12.911   1.727   9.905
79686SOL    HW140897  12.875   1.795   9.961
79686SOL    HW240898  12.923   1.768   9.820
79687SOL     OW40899   4.502  10.970   7.800
79687SOL    HW140900   4.498  10.993   7.707
79687SOL    HW240901   4.537  11.048   7.843
79688SOL     OW40902   4.726  11.568   4.099
79688SOL    HW140903   4.759  11.505   4.036
79688SOL    HW240904   4.632  11.572   4.083
79689SOL     OW40905  12.729   7.499  11.710
79689SOL    HW140906  12.802   7.552  11.677
79689SOL    HW240907  12.681   7.557  11.769
79690SOL     OW40908   9.050  11.120   0.269
79690SOL    HW140909   9.012  11.136   0.183
79690SOL    HW240910   8.991  11.058   0.310
79691SOL     OW40911  10.672   1.917  14.781
79691SOL    HW140912  10.737   1.901  14.850
79691SOL    HW240913  10.596   1.864  14.807
79692SOL     OW40914  11.236   5.117   2.634
79692SOL    HW140915  11.152   5.125   2.679
79692SOL    HW240916  11.216   5.065   2.556
79693SOL     OW40917   4.800  11.154   3.085
79693SOL    HW140918   4.715  11.157   3.128
79693SOL    HW240919   4.857  11.108   3.147
79694SOL     OW40920   7.629   1.991  10.887
79694SOL    HW140921   7.629   2.086  10.900
79694SOL    HW240922   7.605   1.980  10.795
79695SOL     OW40923   0.152   6.765  14.320
79695SOL    HW140924   0.096   6.759  14.242
79695SOL    HW240925   0.097   6.811  14.384
79696SOL     OW40926   6.069   9.744   3.187
79696SOL    HW140927   6.061   9.706   3.274
79696SOL    HW240928   6.147   9.799   3.193
79697SOL     OW40929  13.264   9.369   1.299
79697SOL    HW140930  13.243   9.376   1.206
79697SOL    HW240931  13.247   9.278   1.321
79698SOL     OW40932  11.922   6.519  10.142
79698SOL    HW140933  11.866   6.447  10.112
79698SOL    HW240934  11.892   6.536  10.232
79699SOL     OW40935   7.721   7.569   6.097
79699SOL    HW140936   7.664   7.584   6.172
79699SOL    HW240937   7.743   7.476   6.100
79700SOL     OW40938   6.769   8.969   1.225
79700SOL    HW140939   6.738   8.922   1.303
79700SOL    HW240940   6.730   9.056   1.232
79701SOL     OW40941   3.727   0.990   5.689
79701SOL    HW140942   3.668   0.934   5.739
79701SOL    HW240943   3.724   1.074   5.734
79702SOL     OW40944   1.654   0.055   7.266
79702SOL    HW140945   1.670   0.099   7.183
79702SOL    HW240946   1.621   0.125   7.323
79703SOL     OW40947   0.705   7.624  14.549
79703SOL    HW140948   0.764   7.626  14.624
79703SOL    HW240949   0.759   7.592  14.477
79704SOL     OW40950   8.519   2.279  10.656
79704SOL    HW140951   8.450   2.339  10.628
79704SOL    HW240952   8.473   2.207  10.698
79705SOL     OW40953  13.710   2.879  14.033
79705SOL    HW140954  13.700   2.863  13.939
79705SOL    HW240955  13.730   2.972  14.039
79706SOL     OW40956  10.891   8.723  12.779
79706SOL    HW140957  10.907   8.630  12.759
79706SOL    HW240958  10.890   8.766  12.693
79707SOL     OW40959   8.977   6.719  14.874
79707SOL    HW140960   8.923   6.645   0.024
79707SOL    HW240961   8.945   6.794   0.042
79708SOL     OW40962   8.214   4.159   3.103
79708SOL    HW140963   8.274   4.160   3.029
79708SOL    HW240964   8.198   4.066   3.120
79709SOL     OW40965  14.423   5.592  11.216
79709SOL    HW140966  14.511   5.555  11.210
79709SOL    HW240967  14.415   5.619  11.308
79710SOL     OW40968   5.595   7.639  11.982
79710SOL    HW140969   5.647   7.716  11.959
79710SOL    HW240970   5.555   7.663  12.066
79711SOL     OW40971   8.501  14.258   9.077
79711SOL    HW140972   8.492  14.238   8.984
79711SOL    HW240973   8.483  14.352   9.084
79712SOL     OW40974  12.191   3.170   5.574
79712SOL    HW140975  12.230   3.210   5.497
79712SOL    HW240976  12.218   3.225   5.647
79713SOL     OW40977  14.086  14.374   0.129
79713SOL    HW140978  14.171  14.410   0.101
79713SOL    HW240979  14.023  14.408   0.064
79714SOL     OW40980  11.380   5.860  10.360
79714SOL    HW140981  11.439   5.799  10.404
79714SOL    HW240982  11.297   5.813  10.352
79715SOL     OW40983   8.903   1.776   0.470
79715SOL    HW140984   8.942   1.773   0.383
79715SOL    HW240985   8.818   1.818   0.457
79716SOL     OW40986   6.262   9.262   2.245
79716SOL    HW140987   6.271   9.332   2.181
79716SOL    HW240988   6.169   9.258   2.264
79717SOL     OW40989  10.533  13.744   6.652
79717SOL    HW140990  10.482  13.721   6.730
79717SOL    HW240991  10.487  13.701   6.580
79718SOL     OW40992   7.387  12.687  12.709
79718SOL    HW140993   7.403  12.621  12.641
79718SOL    HW240994   7.467  12.687  12.761
79719SOL     OW40995  12.243  14.691   8.360
79719SOL    HW140996  12.228  14.624   8.427
79719SOL    HW240997  12.337  14.709   8.365
79720SOL     OW40998   3.970   5.766  10.079
79720SOL    HW140999   3.918   5.726  10.149
79720SOL    HW241000   4.026   5.696  10.047
79721SOL     OW41001   2.102   3.108   0.384
79721SOL    HW141002   2.138   3.046   0.321
79721SOL    HW241003   2.178   3.159   0.413
79722SOL     OW41004  11.323   7.453   9.486
79722SOL    HW141005  11.233   7.460   9.518
79722SOL    HW241006  11.317   7.467   9.392
79723SOL     OW41007  14.842   6.032   4.583
79723SOL    HW141008  14.752   6.037   4.548
79723SOL    HW241009   0.016   6.040   4.505
79724SOL     OW41010  13.473  11.276   9.947
79724SOL    HW141011  13.458  11.367   9.922
79724SOL    HW241012  13.441  11.225   9.873
79725SOL     OW41013  13.106   0.516   0.214
79725SOL    HW141014  13.189   0.563   0.205
79725SOL    HW241015  13.073   0.540   0.300
79726SOL     OW41016  11.252   6.352  12.102
79726SOL    HW141017  11.222   6.440  12.125
79726SOL    HW241018  11.275   6.312  12.186
79727SOL     OW41019  10.398   0.326   6.705
79727SOL    HW141020  10.493   0.337   6.718
79727SOL    HW241021  10.358   0.376   6.776
79728SOL     OW41022  10.074   6.770  10.580
79728SOL    HW141023  10.096   6.717  10.656
79728SOL    HW241024  10.155   6.815  10.557
79729SOL     OW41025   3.714   2.509   6.030
79729SOL    HW141026   3.642   2.571   6.042
79729SOL    HW241027   3.792   2.558   6.058
79730SOL     OW41028   8.379   9.167   6.370
79730SOL    HW141029   8.352   9.158   6.461
79730SOL    HW241030   8.347   9.254   6.344
79731SOL     OW41031   4.979   1.235   8.903
79731SOL    HW141032   5.014   1.316   8.939
79731SOL    HW241033   4.954   1.257   8.813
79732SOL     OW41034  14.012   8.396   4.188
79732SOL    HW141035  13.962   8.472   4.218
79732SOL    HW241036  14.093   8.401   4.239
79733SOL     OW41037  11.754   4.142  13.592
79733SOL    HW141038  11.709   4.173  13.670
79733SOL    HW241039  11.686   4.136  13.525
79734SOL     OW41040  10.600   3.338   5.641
79734SOL    HW141041  10.667   3.321   5.575
79734SOL    HW241042  10.517   3.331   5.594
79735SOL     OW41043  11.290  10.814  10.810
79735SOL    HW141044  11.228  10.808  10.737
79735SOL    HW241045  11.334  10.729  10.812
79736SOL     OW41046  12.219  13.497  12.690
79736SOL    HW141047  12.291  13.435  12.684
79736SOL    HW241048  12.215  13.521  12.783
79737SOL     OW41049   4.985   3.474   6.018
79737SOL    HW141050   4.915   3.453   6.080
79737SOL    HW241051   4.983   3.402   5.954
79738SOL     OW41052   1.010   7.499   3.624
79738SOL    HW141053   0.980   7.455   3.703
79738SOL    HW241054   1.100   7.469   3.612
79739SOL     OW41055  13.403  13.360   8.907
79739SOL    HW141056  13.465  13.337   8.838
79739SOL    HW241057  13.340  13.418   8.864
79740SOL     OW41058   9.884   4.530   5.773
79740SOL    HW141059   9.952   4.560   5.713
79740SOL    HW241060   9.818   4.599   5.771
79741SOL     OW41061   6.341  13.676   5.092
79741SOL    HW141062   6.361  13.703   5.181
79741SOL    HW241063   6.303  13.589   5.102
79742SOL     OW41064  10.070   4.570   4.766
79742SOL    HW141065  10.083   4.519   4.846
79742SOL    HW241066   9.983   4.544   4.735
79743SOL     OW41067   2.912   0.652   2.893
79743SOL    HW141068   2.990   0.645   2.948
79743SOL    HW241069   2.918   0.739   2.854
79744SOL     OW41070   9.812  13.422   0.456
79744SOL    HW141071   9.874  13.361   0.416
79744SOL    HW241072   9.746  13.366   0.496
79745SOL     OW41073   2.947   8.858  13.754
79745SOL    HW141074   2.911   8.910  13.682
79745SOL    HW241075   2.872   8.841  13.811
79746SOL     OW41076   6.585   4.506  13.548
79746SOL    HW141077   6.602   4.500  13.454
79746SOL    HW241078   6.554   4.419  13.573
79747SOL     OW41079   4.277   6.799  13.053
79747SOL    HW141080   4.211   6.745  13.096
79747SOL    HW241081   4.298   6.867  13.117
79748SOL     OW41082   8.198   3.465   1.664
79748SOL    HW141083   8.231   3.536   1.719
79748SOL    HW241084   8.110   3.494   1.638
79749SOL     OW41085  10.031  13.079   1.928
79749SOL    HW141086  10.009  13.014   1.861
79749SOL    HW241087  10.109  13.123   1.895
79750SOL     OW41088   6.880   5.994   5.890
79750SOL    HW141089   6.882   5.898   5.897
79750SOL    HW241090   6.933   6.025   5.963
79751SOL     OW41091   3.531  10.963   4.339
79751SOL    HW141092   3.591  11.019   4.388
79751SOL    HW241093   3.473  11.024   4.293
79752SOL     OW41094   1.036  11.823  11.993
79752SOL    HW141095   1.068  11.776  11.916
79752SOL    HW241096   1.109  11.819  12.055
79753SOL     OW41097   7.530   7.565   8.379
79753SOL    HW141098   7.594   7.494   8.377
79753SOL    HW241099   7.564   7.626   8.445
79754SOL     OW41100   0.339   1.828  14.255
79754SOL    HW141101   0.335   1.793  14.344
79754SOL    HW241102   0.272   1.896  14.252
79755SOL     OW41103   5.186   7.921  13.587
79755SOL    HW141104   5.257   7.857  13.594
79755SOL    HW241105   5.146   7.901  13.502
79756SOL     OW41106   2.411   4.533   5.107
79756SOL    HW141107   2.333   4.585   5.125
79756SOL    HW241108   2.480   4.574   5.160
79757SOL     OW41109   6.266   9.346   3.806
79757SOL    HW141110   6.353   9.335   3.845
79757SOL    HW241111   6.206   9.304   3.867
79758SOL     OW41112  12.071   7.724   5.696
79758SOL    HW141113  12.083   7.811   5.734
79758SOL    HW241114  11.977   7.709   5.699
79759SOL     OW41115   5.525   9.671   3.105
79759SOL    HW141116   5.512   9.594   3.049
79759SOL    HW241117   5.585   9.641   3.173
79760SOL     OW41118   2.452  12.226  11.766
79760SOL    HW141119   2.464  12.230  11.671
79760SOL    HW241120   2.540  12.237  11.802
79761SOL     OW41121  10.525  11.666   7.741
79761SOL    HW141122  10.490  11.750   7.772
79761SOL    HW241123  10.592  11.643   7.805
79762SOL     OW41124   9.407  13.307  10.984
79762SOL    HW141125   9.391  13.279  10.894
79762SOL    HW241126   9.438  13.397  10.975
79763SOL     OW41127   1.049   0.572   8.009
79763SOL    HW141128   1.012   0.628   7.942
79763SOL    HW241129   0.978   0.512   8.032
79764SOL     OW41130   7.350  12.721   3.762
79764SOL    HW141131   7.279  12.698   3.702
79764SOL    HW241132   7.429  12.721   3.707
79765SOL     OW41133   3.886   2.851  11.851
79765SOL    HW141134   3.792   2.862  11.842
79765SOL    HW241135   3.915   2.927  11.901
79766SOL     OW41136   8.458   9.598  14.668
79766SOL    HW141137   8.423   9.680  14.634
79766SOL    HW241138   8.389   9.564  14.724
79767SOL     OW41139   8.358   0.052  14.395
79767SOL    HW141140   8.335  14.878  14.469
79767SOL    HW241141   8.308   0.018  14.321
79768SOL     OW41142   3.709   1.328  12.153
79768SOL    HW141143   3.770   1.264  12.190
79768SOL    HW241144   3.727   1.409  12.200
79769SOL     OW41145   9.426   4.282   2.372
79769SOL    HW141146   9.407   4.376   2.376
79769SOL    HW241147   9.519   4.276   2.394
79770SOL     OW41148  11.692   8.475  11.409
79770SOL    HW141149  11.785   8.473  11.431
79770SOL    HW241150  11.650   8.425  11.479
79771SOL     OW41151   6.495   6.750   9.321
79771SOL    HW141152   6.465   6.664   9.292
79771SOL    HW241153   6.536   6.788   9.243
79772SOL     OW41154   6.034   8.401  10.372
79772SOL    HW141155   5.950   8.377  10.410
79772SOL    HW241156   6.092   8.416  10.447
79773SOL     OW41157   0.599   5.601   6.666
79773SOL    HW141158   0.686   5.618   6.630
79773SOL    HW241159   0.612   5.602   6.761
79774SOL     OW41160   4.839   1.522   6.606
79774SOL    HW141161   4.862   1.430   6.620
79774SOL    HW241162   4.887   1.569   6.672
79775SOL     OW41163   3.394  10.502  11.862
79775SOL    HW141164   3.485  10.484  11.838
79775SOL    HW241165   3.377  10.445  11.937
79776SOL     OW41166   4.416   6.545  12.749
79776SOL    HW141167   4.360   6.623  12.749
79776SOL    HW241168   4.459   6.547  12.664
79777SOL     OW41169  10.797   5.592  11.142
79777SOL    HW141170  10.777   5.600  11.235
79777SOL    HW241171  10.727   5.640  11.098
79778SOL     OW41172   2.283   6.611   9.324
79778SOL    HW141173   2.342   6.666   9.377
79778SOL    HW241174   2.209   6.593   9.381
79779SOL     OW41175  14.603  14.311   6.782
79779SOL    HW141176  14.557  14.393   6.801
79779SOL    HW241177  14.567  14.283   6.697
79780SOL     OW41178   6.375  10.454   7.259
79780SOL    HW141179   6.451  10.493   7.215
79780SOL    HW241180   6.310  10.524   7.261
79781SOL     OW41181   0.225   3.847   2.914
79781SOL    HW141182   0.173   3.769   2.898
79781SOL    HW241183   0.314   3.814   2.928
79782SOL     OW41184   9.815   4.327  12.684
79782SOL    HW141185   9.804   4.412  12.725
79782SOL    HW241186   9.739   4.316  12.628
79783SOL     OW41187   9.867   7.381   9.088
79783SOL    HW141188   9.857   7.346   9.177
79783SOL    HW241189   9.778   7.404   9.061
79784SOL     OW41190   9.019   9.094   6.246
79784SOL    HW141191   9.047   9.022   6.303
79784SOL    HW241192   8.926   9.107   6.267
79785SOL     OW41193   1.035   8.646  11.401
79785SOL    HW141194   0.940   8.653  11.405
79785SOL    HW241195   1.066   8.689  11.481
79786SOL     OW41196  14.266   9.690   0.101
79786SOL    HW141197  14.251   9.777   0.064
79786SOL    HW241198  14.194   9.637   0.069
79787SOL     OW41199   4.596   9.018   7.315
79787SOL    HW141200   4.677   8.988   7.356
79787SOL    HW241201   4.537   8.944   7.322
79788SOL     OW41202   2.961   0.552   1.750
79788SOL    HW141203   2.935   0.534   1.660
79788SOL    HW241204   2.973   0.466   1.790
79789SOL     OW41205  14.063   0.629  13.432
79789SOL    HW141206  14.142   0.638  13.379
79789SOL    HW241207  14.089   0.570  13.503
79790SOL     OW41208   4.779  11.878  13.662
79790SOL    HW141209   4.811  11.789  13.648
79790SOL    HW241210   4.766  11.883  13.757
79791SOL     OW41211   5.153  13.712   2.734
79791SOL    HW141212   5.127  13.802   2.753
79791SOL    HW241213   5.099  13.658   2.792
79792SOL     OW41214   1.462   2.710   6.068
79792SOL    HW141215   1.480   2.748   6.154
79792SOL    HW241216   1.472   2.616   6.081
79793SOL     OW41217  13.556   8.739   5.126
79793SOL    HW141218  13.623   8.776   5.069
79793SOL    HW241219  13.593   8.656   5.156
79794SOL     OW41220  11.467   1.036   4.848
79794SOL    HW141221  11.427   0.987   4.919
79794SOL    HW241222  11.460   0.978   4.772
79795SOL     OW41223   6.104   3.167   0.209
79795SOL    HW141224   6.101   3.082   0.165
79795SOL    HW241225   6.134   3.228   0.142
79796SOL     OW41226   0.337   4.488  14.077
79796SOL    HW141227   0.430   4.467  14.064
79796SOL    HW241228   0.293   4.403  14.077
79797SOL     OW41229  12.688   7.806   2.371
79797SOL    HW141230  12.691   7.744   2.299
79797SOL    HW241231  12.656   7.887   2.332
79798SOL     OW41232   0.649   7.670  12.599
79798SOL    HW141233   0.720   7.655  12.537
79798SOL    HW241234   0.666   7.757  12.635
79799SOL     OW41235  14.227   4.329   5.903
79799SOL    HW141236  14.219   4.233   5.898
79799SOL    HW241237  14.306   4.349   5.853
79800SOL     OW41238  10.782  11.525  10.618
79800SOL    HW141239  10.828  11.464  10.559
79800SOL    HW241240  10.728  11.578  10.559
79801SOL     OW41241  14.009   4.084   7.185
79801SOL    HW141242  13.971   3.999   7.161
79801SOL    HW241243  14.074   4.062   7.253
79802SOL     OW41244   1.119   2.328  12.226
79802SOL    HW141245   1.210   2.299  12.215
79802SOL    HW241246   1.122   2.423  12.214
79803SOL     OW41247   6.137  14.056   8.081
79803SOL    HW141248   6.173  14.144   8.076
79803SOL    HW241249   6.163  14.015   7.998
79804SOL     OW41250   2.305   5.488   2.996
79804SOL    HW141251   2.332   5.570   3.038
79804SOL    HW241252   2.258   5.440   3.064
79805SOL     OW41253   0.743   3.771  10.849
79805SOL    HW141254   0.753   3.690  10.798
79805SOL    HW241255   0.667   3.754  10.904
79806SOL     OW41256   4.294   4.219   1.099
79806SOL    HW141257   4.298   4.156   1.171
79806SOL    HW241258   4.202   4.219   1.073
79807SOL     OW41259   7.569   4.723  11.160
79807SOL    HW141260   7.658   4.748  11.137
79807SOL    HW241261   7.578   4.677  11.244
79808SOL     OW41262   4.748   5.058  10.683
79808SOL    HW141263   4.736   5.064  10.778
79808SOL    HW241264   4.676   5.003  10.653
79809SOL     OW41265   6.526   0.870   7.903
79809SOL    HW141266   6.482   0.794   7.864
79809SOL    HW241267   6.514   0.940   7.839
79810SOL     OW41268   3.824   2.476   5.576
79810SOL    HW141269   3.736   2.498   5.607
79810SOL    HW241270   3.882   2.524   5.634
79811SOL     OW41271   7.096   3.707   1.333
79811SOL    HW141272   7.103   3.638   1.399
79811SOL    HW241273   7.172   3.693   1.276
79812SOL     OW41274   8.357   5.198   3.490
79812SOL    HW141275   8.432   5.217   3.547
79812SOL    HW241276   8.397   5.161   3.411
79813SOL     OW41277  13.594   9.796  14.780
79813SOL    HW141278  13.526   9.729  14.785
79813SOL    HW241279  13.549   9.878  14.804
79814SOL     OW41280  10.824  13.974  13.272
79814SOL    HW141281  10.915  14.003  13.276
79814SOL    HW241282  10.813  13.944  13.182
79815SOL     OW41283  11.072   2.024   1.052
79815SOL    HW141284  11.022   2.062   1.124
79815SOL    HW241285  11.007   1.973   1.003
79816SOL     OW41286   4.485   7.381   1.574
79816SOL    HW141287   4.536   7.366   1.495
79816SOL    HW241288   4.492   7.299   1.623
79817SOL     OW41289  12.877  10.305   2.306
79817SOL    HW141290  12.949  10.262   2.351
79817SOL    HW241291  12.802  10.247   2.318
79818SOL     OW41292   8.302  12.530   7.619
79818SOL    HW141293   8.210  12.537   7.647
79818SOL    HW241294   8.350  12.514   7.700
79819SOL     OW41295   4.430   7.787   4.025
79819SOL    HW141296   4.422   7.753   4.114
79819SOL    HW241297   4.524   7.795   4.011
79820SOL     OW41298  14.499   9.853   1.714
79820SOL    HW141299  14.586   9.823   1.741
79820SOL    HW241300  14.474   9.918   1.779
79821SOL     OW41301   0.454  11.672  10.483
79821SOL    HW141302   0.414  11.758  10.493
79821SOL    HW241303   0.422  11.640  10.399
79822SOL     OW41304  12.695   9.322  10.489
79822SOL    HW141305  12.620   9.271  10.458
79822SOL    HW241306  12.717   9.379  10.416
79823SOL     OW41307  11.425  13.717   5.144
79823SOL    HW141308  11.488  13.787   5.163
79823SOL    HW241309  11.411  13.722   5.050
79824SOL     OW41310   5.370   2.318  10.237
79824SOL    HW141311   5.465   2.319  10.229
79824SOL    HW241312   5.339   2.325  10.147
79825SOL     OW41313   3.748   1.597  12.269
79825SOL    HW141314   3.764   1.676  12.218
79825SOL    HW241315   3.667   1.615  12.317
79826SOL     OW41316   5.505   2.551   8.038
79826SOL    HW141317   5.478   2.463   8.012
79826SOL    HW241318   5.570   2.536   8.107
79827SOL     OW41319   1.335  14.271  12.764
79827SOL    HW141320   1.353  14.198  12.823
79827SOL    HW241321   1.243  14.292  12.778
79828SOL     OW41322   9.565  12.689   7.296
79828SOL    HW141323   9.547  12.783   7.299
79828SOL    HW241324   9.648  12.682   7.248
79829SOL     OW41325   0.348   0.343  12.329
79829SOL    HW141326   0.367   0.250  12.338
79829SOL    HW241327   0.258   0.347  12.296
79830SOL     OW41328   7.774   0.074   2.155
79830SOL    HW141329   7.765   0.167   2.134
79830SOL    HW241330   7.814   0.035   2.078
79831SOL     OW41331   9.241   1.629   9.388
79831SOL    HW141332   9.230   1.708   9.440
79831SOL    HW241333   9.218   1.654   9.299
79832SOL     OW41334   0.320   9.921   9.425
79832SOL    HW141335   0.349   9.914   9.334
79832SOL    HW241336   0.395   9.891   9.477
79833SOL     OW41337  13.615   6.795  13.032
79833SOL    HW141338  13.675   6.770  13.102
79833SOL    HW241339  13.652   6.755  12.953
79834SOL     OW41340  14.613  11.368   9.980
79834SOL    HW141341  14.533  11.384   9.931
79834SOL    HW241342  14.593  11.397  10.069
79835SOL     OW41343  12.819  12.855  12.431
79835SOL    HW141344  12.776  12.808  12.360
79835SOL    HW241345  12.774  12.940  12.434
79836SOL     OW41346   3.302  10.304   0.430
79836SOL    HW141347   3.329  10.377   0.486
79836SOL    HW241348   3.214  10.328   0.400
79837SOL     OW41349   6.823  13.848   3.330
79837SOL    HW141350   6.887  13.864   3.399
79837SOL    HW241351   6.876  13.828   3.253
79838SOL     OW41352   7.469   7.929   0.759
79838SOL    HW141353   7.535   7.868   0.724
79838SOL    HW241354   7.449   7.896   0.846
79839SOL     OW41355   2.018   5.116  13.244
79839SOL    HW141356   1.964   5.038  13.248
79839SOL    HW241357   1.979   5.175  13.309
79840SOL     OW41358  12.967  10.491   7.563
79840SOL    HW141359  12.874  10.509   7.559
79840SOL    HW241360  12.974  10.397   7.547
79841SOL     OW41361   0.119   2.296   2.707
79841SOL    HW141362   0.116   2.201   2.692
79841SOL    HW241363   0.028   2.323   2.706
79842SOL     OW41364   5.087  12.005   8.702
79842SOL    HW141365   5.004  11.958   8.700
79842SOL    HW241366   5.127  11.981   8.786
79843SOL     OW41367  14.761   1.942  14.089
79843SOL    HW141368  14.716   1.984  14.015
79843SOL    HW241369  14.733   1.851  14.085
79844SOL     OW41370   1.810   5.436   7.863
79844SOL    HW141371   1.872   5.437   7.790
79844SOL    HW241372   1.765   5.521   7.857
79845SOL     OW41373   1.504   3.536   6.244
79845SOL    HW141374   1.592   3.566   6.265
79845SOL    HW241375   1.449   3.614   6.247
79846SOL     OW41376  13.833   5.673  14.360
79846SOL    HW141377  13.851   5.711  14.445
79846SOL    HW241378  13.847   5.744  14.298
79847SOL     OW41379  13.274   2.036  10.179
79847SOL    HW141380  13.290   1.945  10.155
79847SOL    HW241381  13.361   2.074  10.191
79848SOL     OW41382  10.298   7.353   2.554
79848SOL    HW141383  10.378   7.311   2.521
79848SOL    HW241384  10.270   7.299   2.627
79849SOL     OW41385  14.440   4.407   2.876
79849SOL    HW141386  14.415   4.487   2.921
79849SOL    HW241387  14.425   4.337   2.940
79850SOL     OW41388   4.681  10.647  10.112
79850SOL    HW141389   4.706  10.652  10.020
79850SOL    HW241390   4.648  10.734  10.133
79851SOL     OW41391  12.604   8.014  12.664
79851SOL    HW141392  12.585   7.973  12.579
79851SOL    HW241393  12.624   7.941  12.722
79852SOL     OW41394  13.738   6.378   3.845
79852SOL    HW141395  13.680   6.440   3.889
79852SOL    HW241396  13.744   6.304   3.905
79853SOL     OW41397   2.752   2.036   8.416
79853SOL    HW141398   2.706   1.981   8.353
79853SOL    HW241399   2.683   2.084   8.461
79854SOL     OW41400   2.795   1.079   9.156
79854SOL    HW141401   2.880   1.116   9.135
79854SOL    HW241402   2.766   1.038   9.074
79855SOL     OW41403  11.875   4.927  14.391
79855SOL    HW141404  11.795   4.960  14.430
79855SOL    HW241405  11.865   4.942  14.297
79856SOL     OW41406   2.583   1.399   0.387
79856SOL    HW141407   2.667   1.404   0.432
79856SOL    HW241408   2.568   1.305   0.376
79857SOL     OW41409  10.055  13.964   3.650
79857SOL    HW141410   9.987  13.907   3.685
79857SOL    HW241411  10.085  13.920   3.571
79858SOL     OW41412   3.081   3.342   4.859
79858SOL    HW141413   3.172   3.352   4.886
79858SOL    HW241414   3.074   3.393   4.778
79859SOL     OW41415  13.090   9.192   4.944
79859SOL    HW141416  13.173   9.149   4.962
79859SOL    HW241417  13.031   9.160   5.013
79860SOL     OW41418  10.069   3.305   4.852
79860SOL    HW141419  10.061   3.382   4.908
79860SOL    HW241420  10.019   3.237   4.898
79861SOL     OW41421  11.502  12.082  11.320
79861SOL    HW141422  11.486  12.096  11.413
79861SOL    HW241423  11.571  12.144  11.298
79862SOL     OW41424   3.306   3.379   7.282
79862SOL    HW141425   3.359   3.411   7.209
79862SOL    HW241426   3.316   3.447   7.349
79863SOL     OW41427   2.364  11.528  11.985
79863SOL    HW141428   2.281  11.489  11.957
79863SOL    HW241429   2.424  11.511  11.912
79864SOL     OW41430  11.792  13.895  14.118
79864SOL    HW141431  11.823  13.810  14.151
79864SOL    HW241432  11.819  13.895  14.026
79865SOL     OW41433   4.990  13.838  10.723
79865SOL    HW141434   4.952  13.904  10.781
79865SOL    HW241435   4.993  13.758  10.776
79866SOL     OW41436  14.323   5.115   6.211
79866SOL    HW141437  14.235   5.099   6.245
79866SOL    HW241438  14.368   5.031   6.218
79867SOL     OW41439   9.583  12.490  13.684
79867SOL    HW141440   9.636  12.414  13.661
79867SOL    HW241441   9.589  12.547  13.607
79868SOL     OW41442   2.258   8.323   5.653
79868SOL    HW141443   2.321   8.258   5.622
79868SOL    HW241444   2.312   8.394   5.687
79869SOL     OW41445  12.043  12.477  10.405
79869SOL    HW141446  12.125  12.447  10.444
79869SOL    HW241447  12.043  12.571  10.420
79870SOL     OW41448   7.885  13.594   5.185
79870SOL    HW141449   7.853  13.666   5.239
79870SOL    HW241450   7.911  13.526   5.247
79871SOL     OW41451   9.790  10.317   3.874
79871SOL    HW141452   9.771  10.225   3.893
79871SOL    HW241453   9.728  10.366   3.928
79872SOL     OW41454   5.210  12.003   6.556
79872SOL    HW141455   5.134  12.035   6.605
79872SOL    HW241456   5.251  11.940   6.615
79873SOL     OW41457   7.133  13.986   6.492
79873SOL    HW141458   7.050  13.939   6.490
79873SOL    HW241459   7.190  13.931   6.546
79874SOL     OW41460   2.693  14.427   3.177
79874SOL    HW141461   2.673  14.515   3.147
79874SOL    HW241462   2.628  14.372   3.135
79875SOL     OW41463   9.424   0.930  11.233
79875SOL    HW141464   9.444   0.925  11.326
79875SOL    HW241465   9.489   0.875  11.190
79876SOL     OW41466   1.420  14.365   7.309
79876SOL    HW141467   1.407  14.404   7.396
79876SOL    HW241468   1.482  14.294   7.323
79877SOL     OW41469   6.300  11.301   3.275
79877SOL    HW141470   6.209  11.324   3.293
79877SOL    HW241471   6.345  11.311   3.359
79878SOL     OW41472   6.386   8.266   4.513
79878SOL    HW141473   6.387   8.316   4.432
79878SOL    HW241474   6.331   8.317   4.572
79879SOL     OW41475   8.620   1.867   7.008
79879SOL    HW141476   8.615   1.841   6.916
79879SOL    HW241477   8.713   1.885   7.023
79880SOL     OW41478   4.092   6.016  10.871
79880SOL    HW141479   4.116   6.109  10.869
79880SOL    HW241480   4.168   5.973  10.911
79881SOL     OW41481   7.938   4.219   1.139
79881SOL    HW141482   8.015   4.163   1.152
79881SOL    HW241483   7.920   4.213   1.045
79882SOL     OW41484   2.003  10.625   9.041
79882SOL    HW141485   1.911  10.631   9.066
79882SOL    HW241486   2.051  10.660   9.115
79883SOL     OW41487  12.791   8.711  10.072
79883SOL    HW141488  12.856   8.655  10.116
79883SOL    HW241489  12.751   8.654  10.006
79884SOL     OW41490  13.692   3.519   2.170
79884SOL    HW141491  13.740   3.473   2.101
79884SOL    HW241492  13.750   3.516   2.246
79885SOL     OW41493   5.307   9.821   8.293
79885SOL    HW141494   5.223   9.859   8.268
79885SOL    HW241495   5.317   9.844   8.386
79886SOL     OW41496  10.955   9.889   7.685
79886SOL    HW141497  11.012   9.924   7.616
79886SOL    HW241498  10.963   9.794   7.677
79887SOL     OW41499   0.416  12.842   5.126
79887SOL    HW141500   0.496  12.795   5.103
79887SOL    HW241501   0.438  12.934   5.115
79888SOL     OW41502  13.531   7.417  14.031
79888SOL    HW141503  13.575   7.490  14.075
79888SOL    HW241504  13.444   7.413  14.071
79889SOL     OW41505   4.035   0.013   4.645
79889SOL    HW141506   4.060   0.101   4.672
79889SOL    HW241507   4.016  14.850   4.728
79890SOL     OW41508  12.415  14.546   3.033
79890SOL    HW141509  12.498  14.504   3.057
79890SOL    HW241510  12.378  14.574   3.117
79891SOL     OW41511  14.412   1.455   0.981
79891SOL    HW141512  14.500   1.490   0.962
79891SOL    HW241513  14.412   1.440   1.076
79892SOL     OW41514  11.268  10.314   0.107
79892SOL    HW141515  11.269  10.221   0.130
79892SOL    HW241516  11.175  10.337   0.105
79893SOL     OW41517   2.618   7.735   3.565
79893SOL    HW141518   2.571   7.672   3.511
79893SOL    HW241519   2.559   7.811   3.570
79894SOL     OW41520  12.793   2.307   7.831
79894SOL    HW141521  12.804   2.305   7.926
79894SOL    HW241522  12.793   2.400   7.809
79895SOL     OW41523   0.038   4.165  10.776
79895SOL    HW141524  14.868   4.242  10.796
79895SOL    HW241525  14.856   4.094  10.766
79896SOL     OW41526   5.243  12.798   4.141
79896SOL    HW141527   5.226  12.704   4.141
79896SOL    HW241528   5.171  12.836   4.090
79897SOL     OW41529  11.060  13.885   8.872
79897SOL    HW141530  11.103  13.823   8.931
79897SOL    HW241531  11.001  13.832   8.819
79898SOL     OW41532   8.138   4.453   9.944
79898SOL    HW141533   8.062   4.482   9.894
79898SOL    HW241534   8.211   4.504   9.909
79899SOL     OW41535  11.987  10.961   1.416
79899SOL    HW141536  11.930  10.956   1.340
79899SOL    HW241537  11.984  11.053   1.442
79900SOL     OW41538   0.859   6.749   0.207
79900SOL    HW141539   0.861   6.840   0.180
79900SOL    HW241540   0.819   6.750   0.294
79901SOL     OW41541   8.415   8.201   1.756
79901SOL    HW141542   8.373   8.239   1.833
79901SOL    HW241543   8.500   8.170   1.787
79902SOL     OW41544  12.876   4.302  14.477
79902SOL    HW141545  12.807   4.255  14.525
79902SOL    HW241546  12.832   4.339  14.401
79903SOL     OW41547   7.999  12.816  10.284
79903SOL    HW141548   7.904  12.808  10.272
79903SOL    HW241549   8.037  12.755  10.221
79904SOL     OW41550  14.784   1.839   5.563
79904SOL    HW141551  14.759   1.820   5.653
79904SOL    HW241552  14.862   1.893   5.570
79905SOL     OW41553   8.908   6.864  10.222
79905SOL    HW141554   8.848   6.910  10.163
79905SOL    HW241555   8.916   6.923  10.297
79906SOL     OW41556  12.263   4.052  11.709
79906SOL    HW141557  12.202   4.111  11.664
79906SOL    HW241558  12.346   4.100  11.710
79907SOL     OW41559   8.541  12.721   4.224
79907SOL    HW141560   8.497  12.780   4.163
79907SOL    HW241561   8.586  12.779   4.286
79908SOL     OW41562  12.841   8.681   5.717
79908SOL    HW141563  12.815   8.662   5.627
79908SOL    HW241564  12.840   8.595   5.760
79909SOL     OW41565   6.214   1.183  10.535
79909SOL    HW141566   6.158   1.256  10.510
79909SOL    HW241567   6.246   1.147  10.453
79910SOL     OW41568   6.150   7.144   2.091
79910SOL    HW141569   6.091   7.099   2.031
79910SOL    HW241570   6.123   7.236   2.087
79911SOL     OW41571   3.724  11.047   7.694
79911SOL    HW141572   3.781  11.123   7.703
79911SOL    HW241573   3.643  11.072   7.739
79912SOL     OW41574   3.539   9.682  13.423
79912SOL    HW141575   3.507   9.614  13.363
79912SOL    HW241576   3.470   9.689  13.490
79913SOL     OW41577  13.521  12.979   7.756
79913SOL    HW141578  13.591  13.032   7.794
79913SOL    HW241579  13.475  13.040   7.697
79914SOL     OW41580   2.075  11.063  10.359
79914SOL    HW141581   2.006  11.130  10.368
79914SOL    HW241582   2.080  11.048  10.264
79915SOL     OW41583   6.336   6.023   6.128
79915SOL    HW141584   6.392   6.010   6.052
79915SOL    HW241585   6.311   6.116   6.124
79916SOL     OW41586   1.290   7.815  11.087
79916SOL    HW141587   1.290   7.865  11.005
79916SOL    HW241588   1.198   7.812  11.114
79917SOL     OW41589   3.725   7.675  13.424
79917SOL    HW141590   3.751   7.656  13.334
79917SOL    HW241591   3.704   7.768  13.424
79918SOL     OW41592   1.730   1.009   9.906
79918SOL    HW141593   1.801   1.054   9.952
79918SOL    HW241594   1.652   1.028   9.959
79919SOL     OW41595  10.622   1.857   2.044
79919SOL    HW141596  10.659   1.941   2.017
79919SOL    HW241597  10.546   1.845   1.988
79920SOL     OW41598   6.999   7.090   6.334
79920SOL    HW141599   6.941   7.020   6.302
79920SOL    HW241600   6.973   7.167   6.283
79921SOL     OW41601   5.846   5.468  10.333
79921SOL    HW141602   5.870   5.395  10.276
79921SOL    HW241603   5.924   5.484  10.386
79922SOL     OW41604  14.111   9.021   0.115
79922SOL    HW141605  14.113   9.055   0.205
79922SOL    HW241606  14.100   9.099   0.061
79923SOL     OW41607  13.099   3.074   7.063
79923SOL    HW141608  13.065   2.986   7.046
79923SOL    HW241609  13.059   3.128   6.996
79924SOL     OW41610  11.902   1.070   9.942
79924SOL    HW141611  11.972   1.080   9.877
79924SOL    HW241612  11.821   1.085   9.893
79925SOL     OW41613   3.342   6.471  14.032
79925SOL    HW141614   3.313   6.431  14.115
79925SOL    HW241615   3.309   6.412  13.965
79926SOL     OW41616  10.936  10.840   4.071
79926SOL    HW141617  10.847  10.871   4.087
79926SOL    HW241618  10.990  10.920   4.073
79927SOL     OW41619  13.957  10.245   7.920
79927SOL    HW141620  13.888  10.242   7.987
79927SOL    HW241621  14.003  10.327   7.938
79928SOL     OW41622  10.668   1.944  12.464
79928SOL    HW141623  10.679   2.020  12.521
79928SOL    HW241624  10.578   1.951  12.432
79929SOL     OW41625   0.329   6.804   2.636
79929SOL    HW141626   0.244   6.767   2.613
79929SOL    HW241627   0.346   6.868   2.567
79930SOL     OW41628  12.391   9.267  12.169
79930SOL    HW141629  12.307   9.230  12.142
79930SOL    HW241630  12.420   9.318  12.094
79931SOL     OW41631  11.030   7.570   6.834
79931SOL    HW141632  11.094   7.500   6.829
79931SOL    HW241633  10.953   7.530   6.875
79932SOL     OW41634   3.796   5.782   9.330
79932SOL    HW141635   3.743   5.856   9.358
79932SOL    HW241636   3.885   5.806   9.356
79933SOL     OW41637   0.941   0.162   6.358
79933SOL    HW141638   1.003   0.198   6.295
79933SOL    HW241639   0.951   0.216   6.436
79934SOL     OW41640   6.681   0.812  11.176
79934SOL    HW141641   6.774   0.827  11.191
79934SOL    HW241642   6.672   0.716  11.173
79935SOL     OW41643   1.985   3.300   0.223
79935SOL    HW141644   2.064   3.331   0.178
79935SOL    HW241645   2.016   3.227   0.277
79936SOL     OW41646  14.538   8.501   3.149
79936SOL    HW141647  14.473   8.571   3.148
79936SOL    HW241648  14.542   8.470   3.059
79937SOL     OW41649   5.295   9.519   4.309
79937SOL    HW141650   5.242   9.565   4.374
79937SOL    HW241651   5.337   9.589   4.259
79938SOL     OW41652  10.364   8.075   1.880
79938SOL    HW141653  10.280   8.115   1.858
79938SOL    HW241654  10.428   8.124   1.829
79939SOL     OW41655   9.013   7.509  10.568
79939SOL    HW141656   9.024   7.444  10.637
79939SOL    HW241657   9.097   7.511  10.523
79940SOL     OW41658   5.201   4.678   7.269
79940SOL    HW141659   5.115   4.703   7.302
79940SOL    HW241660   5.243   4.761   7.247
79941SOL     OW41661  13.323   1.277   9.592
79941SOL    HW141662  13.354   1.308   9.676
79941SOL    HW241663  13.267   1.202   9.613
79942SOL     OW41664   4.453  11.697   0.955
79942SOL    HW141665   4.406  11.750   1.019
79942SOL    HW241666   4.538  11.680   0.996
79943SOL     OW41667  11.085  14.676   9.260
79943SOL    HW141668  11.131  14.701   9.340
79943SOL    HW241669  11.155  14.650   9.200
79944SOL     OW41670  14.325   1.909  14.350
79944SOL    HW141671  14.273   1.840  14.392
79944SOL    HW241672  14.409   1.907  14.396
79945SOL     OW41673   3.355   9.198   9.399
79945SOL    HW141674   3.448   9.198   9.376
79945SOL    HW241675   3.310   9.170   9.320
79946SOL     OW41676   5.978   0.356  12.993
79946SOL    HW141677   5.969   0.434  12.938
79946SOL    HW241678   5.889   0.337  13.023
79947SOL     OW41679   6.566   1.300   5.690
79947SOL    HW141680   6.551   1.381   5.642
79947SOL    HW241681   6.547   1.324   5.781
79948SOL     OW41682  11.131   6.503  12.786
79948SOL    HW141683  11.046   6.493  12.743
79948SOL    HW241684  11.111   6.496  12.879
79949SOL     OW41685   5.169   6.099   2.244
79949SOL    HW141686   5.165   6.114   2.339
79949SOL    HW241687   5.201   6.009   2.236
79950SOL     OW41688  12.932   3.133   3.334
79950SOL    HW141689  12.984   3.063   3.375
79950SOL    HW241690  12.897   3.093   3.255
79951SOL     OW41691  13.503  13.290   9.134
79951SOL    HW141692  13.450  13.211   9.144
79951SOL    HW241693  13.480  13.324   9.048
79952SOL     OW41694   3.401   3.062  13.333
79952SOL    HW141695   3.456   3.030  13.262
79952SOL    HW241696   3.446   3.138  13.367
79953SOL     OW41697  11.386  14.682   9.065
79953SOL    HW141698  11.357  14.745   8.998
79953SOL    HW241699  11.458  14.727   9.109
79954SOL     OW41700  12.693   0.154  12.110
79954SOL    HW141701  12.740   0.084  12.064
79954SOL    HW241702  12.646   0.108  12.180
79955SOL     OW41703  10.294  10.879  13.334
79955SOL    HW141704  10.219  10.933  13.362
79955SOL    HW241705  10.329  10.925  13.258
79956SOL     OW41706  13.561   0.276   4.385
79956SOL    HW141707  13.572   0.369   4.408
79956SOL    HW241708  13.643   0.251   4.345
79957SOL     OW41709   6.072   7.850   5.052
79957SOL    HW141710   6.096   7.928   5.102
79957SOL    HW241711   6.127   7.855   4.973
79958SOL     OW41712  12.616   4.621   2.373
79958SOL    HW141713  12.615   4.706   2.417
79958SOL    HW241714  12.608   4.643   2.280
79959SOL     OW41715   4.813  13.647  14.507
79959SOL    HW141716   4.904  13.670  14.523
79959SOL    HW241717   4.780  13.716  14.449
79960SOL     OW41718   2.669  11.186  10.296
79960SOL    HW141719   2.577  11.159  10.298
79960SOL    HW241720   2.665  11.282  10.294
79961SOL     OW41721   1.333   0.711   0.956
79961SOL    HW141722   1.414   0.719   1.007
79961SOL    HW241723   1.272   0.770   0.999
79962SOL     OW41724  11.092   8.729   6.321
79962SOL    HW141725  11.168   8.671   6.310
79962SOL    HW241726  11.045   8.724   6.238
79963SOL     OW41727  13.717   5.541   4.984
79963SOL    HW141728  13.700   5.618   5.038
79963SOL    HW241729  13.667   5.471   5.027
79964SOL     OW41730   1.565  10.620   7.143
79964SOL    HW141731   1.475  10.639   7.116
79964SOL    HW241732   1.570  10.654   7.232
79965SOL     OW41733   6.708   1.687   4.753
79965SOL    HW141734   6.786   1.742   4.763
79965SOL    HW241735   6.664   1.692   4.838
79966SOL     OW41736   0.829   2.901  14.577
79966SOL    HW141737   0.797   2.813  14.558
79966SOL    HW241738   0.895   2.918  14.510
79967SOL     OW41739   0.200   4.252  14.060
79967SOL    HW141740   0.265   4.185  14.039
79967SOL    HW241741   0.122   4.203  14.087
79968SOL     OW41742  13.246   4.387   4.643
79968SOL    HW141743  13.335   4.380   4.609
79968SOL    HW241744  13.192   4.336   4.582
79969SOL     OW41745   2.756   7.818   8.540
79969SOL    HW141746   2.847   7.801   8.562
79969SOL    HW241747   2.757   7.902   8.495
79970SOL     OW41748   4.865  12.693  11.005
79970SOL    HW141749   4.772  12.684  10.985
79970SOL    HW241750   4.888  12.780  10.973
79971SOL     OW41751  12.418  14.616   4.115
79971SOL    HW141752  12.494  14.599   4.171
79971SOL    HW241753  12.429  14.556   4.042
79972SOL     OW41754  11.895  12.621   7.153
79972SOL    HW141755  11.899  12.526   7.155
79972SOL    HW241756  11.987  12.649   7.146
79973SOL     OW41757   1.676   5.343   8.300
79973SOL    HW141758   1.740   5.329   8.230
79973SOL    HW241759   1.631   5.424   8.276
79974SOL     OW41760  14.858  10.106   6.289
79974SOL    HW141761  14.800  10.173   6.325
79974SOL    HW241762   0.063  10.127   6.324
79975SOL     OW41763  11.254   9.364   0.381
79975SOL    HW141764  11.317   9.409   0.324
79975SOL    HW241765  11.309   9.311   0.439
79976SOL     OW41766  14.482   6.605  11.688
79976SOL    HW141767  14.398   6.567  11.716
79976SOL    HW241768  14.544   6.576  11.755
79977SOL     OW41769   5.834   3.062   2.424
79977SOL    HW141770   5.823   3.123   2.498
79977SOL    HW241771   5.928   3.049   2.417
79978SOL     OW41772   2.689   4.524   2.096
79978SOL    HW141773   2.675   4.554   2.006
79978SOL    HW241774   2.643   4.441   2.101
79979SOL     OW41775   1.679   4.348   6.830
79979SOL    HW141776   1.626   4.269   6.840
79979SOL    HW241777   1.733   4.332   6.753
79980SOL     OW41778  12.398   5.370  14.139
79980SOL    HW141779  12.328   5.428  14.168
79980SOL    HW241780  12.428   5.327  14.220
79981SOL     OW41781   1.219  13.857   0.602
79981SOL    HW141782   1.298  13.821   0.642
79981SOL    HW241783   1.249  13.937   0.558
79982SOL     OW41784   7.975   5.596   5.561
79982SOL    HW141785   8.063   5.569   5.589
79982SOL    HW241786   7.983   5.689   5.540
79983SOL     OW41787  13.731   1.721   4.558
79983SOL    HW141788  13.708   1.746   4.468
79983SOL    HW241789  13.766   1.802   4.596
79984SOL     OW41790   6.169   4.082   5.876
79984SOL    HW141791   6.109   4.088   5.802
79984SOL    HW241792   6.135   4.010   5.929
79985SOL     OW41793   6.819   1.858   8.040
79985SOL    HW141794   6.768   1.857   7.959
79985SOL    HW241795   6.755   1.838   8.109
79986SOL     OW41796  12.767   0.824   9.068
79986SOL    HW141797  12.730   0.783   9.146
79986SOL    HW241798  12.724   0.780   8.995
79987SOL     OW41799  12.673   2.425   0.135
79987SOL    HW141800  12.646   2.490   0.070
79987SOL    HW241801  12.703   2.476   0.210
79988SOL     OW41802   6.782   5.075  10.454
79988SOL    HW141803   6.758   5.087  10.362
79988SOL    HW241804   6.790   5.165  10.488
79989SOL     OW41805   6.678   5.201   9.443
79989SOL    HW141806   6.679   5.288   9.404
79989SOL    HW241807   6.629   5.211   9.525
79990SOL     OW41808  11.276   0.700   7.114
79990SOL    HW141809  11.242   0.746   7.190
79990SOL    HW241810  11.286   0.609   7.143
79991SOL     OW41811   5.538   0.647   3.099
79991SOL    HW141812   5.443   0.648   3.102
79991SOL    HW241813   5.565   0.619   3.187
79992SOL     OW41814   5.053   8.639   4.936
79992SOL    HW141815   5.054   8.703   5.007
79992SOL    HW241816   5.125   8.579   4.958
79993SOL     OW41817  12.255   6.456   8.686
79993SOL    HW141818  12.285   6.415   8.767
79993SOL    HW241819  12.171   6.495   8.708
79994SOL     OW41820  13.374   1.650   1.315
79994SOL    HW141821  13.384   1.666   1.221
79994SOL    HW241822  13.291   1.691   1.338
79995SOL     OW41823  11.538   7.294   9.267
79995SOL    HW141824  11.528   7.358   9.337
79995SOL    HW241825  11.616   7.244   9.291
79996SOL     OW41826   2.177  14.253   0.069
79996SOL    HW141827   2.124  14.200   0.009
79996SOL    HW241828   2.174  14.341   0.033
79997SOL     OW41829   4.018   6.049  12.401
79997SOL    HW141830   3.956   5.976  12.399
79997SOL    HW241831   3.970   6.121  12.442
79998SOL     OW41832  14.569   4.428   2.028
79998SOL    HW141833  14.624   4.485   2.081
79998SOL    HW241834  14.481   4.466   2.035
79999SOL     OW41835   8.435   1.218  14.253
79999SOL    HW141836   8.424   1.227  14.347
79999SOL    HW241837   8.516   1.265  14.233
80000SOL     OW41838   4.541   4.361   7.117
80000SOL    HW141839   4.489   4.357   7.037
80000SOL    HW241840   4.534   4.452   7.146
80001SOL     OW41841   2.177   4.657   6.379
80001SOL    HW141842   2.134   4.571   6.376
80001SOL    HW241843   2.269   4.637   6.394
80002SOL     OW41844  12.802   2.336   5.553
80002SOL    HW141845  12.880   2.389   5.532
80002SOL    HW241846  12.737   2.364   5.488
80003SOL     OW41847  11.434  12.817   3.503
80003SOL    HW141848  11.431  12.753   3.574
80003SOL    HW241849  11.527  12.829   3.486
80004SOL     OW41850  13.314   9.356   0.720
80004SOL    HW141851  13.305   9.263   0.702
80004SOL    HW241852  13.351   9.360   0.808
80005SOL     OW41853  13.740   0.549   9.075
80005SOL    HW141854  13.771   0.639   9.069
80005SOL    HW241855  13.651   0.558   9.109
80006SOL     OW41856   5.428   0.615  10.070
80006SOL    HW141857   5.517   0.651  10.066
80006SOL    HW241858   5.425   0.550   9.999
80007SOL     OW41859   2.882   5.395   4.735
80007SOL    HW141860   2.805   5.340   4.750
80007SOL    HW241861   2.954   5.334   4.724
80008SOL     OW41862   7.942   1.995   9.085
80008SOL    HW141863   7.941   1.978   9.180
80008SOL    HW241864   7.986   2.080   9.077
80009SOL     OW41865  13.639   7.179  10.455
80009SOL    HW141866  13.645   7.179  10.360
80009SOL    HW241867  13.666   7.267  10.482
80010SOL     OW41868  13.652   1.240  10.603
80010SOL    HW141869  13.578   1.281  10.558
80010SOL    HW241870  13.642   1.267  10.694
80011SOL     OW41871  13.042   7.217   2.441
80011SOL    HW141872  13.060   7.155   2.370
80011SOL    HW241873  13.009   7.295   2.396
80012SOL     OW41874   1.074   4.302  13.180
80012SOL    HW141875   1.099   4.367  13.245
80012SOL    HW241876   1.156   4.258  13.156
80013SOL     OW41877  14.465  13.240   4.962
80013SOL    HW141878  14.372  13.224   4.979
80013SOL    HW241879  14.485  13.186   4.886
80014SOL     OW41880  13.109   8.472   4.213
80014SOL    HW141881  13.144   8.540   4.156
80014SOL    HW241882  13.165   8.475   4.291
80015SOL     OW41883   3.248  12.357   4.342
80015SOL    HW141884   3.195  12.306   4.282
80015SOL    HW241885   3.317  12.298   4.371
80016SOL     OW41886   1.249   8.019  11.875
80016SOL    HW141887   1.335   7.989  11.904
80016SOL    HW241888   1.234   8.101  11.922
80017SOL     OW41889  10.176   0.577   5.096
80017SOL    HW141890  10.176   0.631   5.017
80017SOL    HW241891  10.201   0.490   5.066
80018SOL     OW41892  12.846   8.123  11.269
80018SOL    HW141893  12.890   8.195  11.314
80018SOL    HW241894  12.903   8.101  11.195
80019SOL     OW41895   7.358  10.926  13.953
80019SOL    HW141896   7.378  10.878  13.873
80019SOL    HW241897   7.394  11.013  13.938
80020SOL     OW41898   0.815  12.289   4.221
80020SOL    HW141899   0.877  12.235   4.170
80020SOL    HW241900   0.840  12.379   4.201
80021SOL     OW41901   9.551   9.834   7.793
80021SOL    HW141902   9.516   9.913   7.832
80021SOL    HW241903   9.576   9.859   7.704
80022SOL     OW41904  12.748  12.420   0.893
80022SOL    HW141905  12.765  12.489   0.828
80022SOL    HW241906  12.662  12.441   0.928
80023SOL     OW41907  12.546   0.512  12.707
80023SOL    HW141908  12.543   0.431  12.657
80023SOL    HW241909  12.637   0.520  12.735
80024SOL     OW41910  11.012   8.823   1.291
80024SOL    HW141911  11.026   8.762   1.363
80024SOL    HW241912  11.072   8.794   1.222
80025SOL     OW41913   4.776   0.028  11.042
80025SOL    HW141914   4.781  14.814  11.037
80025SOL    HW241915   4.856   0.059  11.001
80026SOL     OW41916  12.806   3.377  12.539
80026SOL    HW141917  12.878   3.325  12.573
80026SOL    HW241918  12.739   3.313  12.515
80027SOL     OW41919   5.419  12.445  13.846
80027SOL    HW141920   5.488  12.404  13.795
80027SOL    HW241921   5.460  12.522  13.885
80028SOL     OW41922   0.674  14.667  14.709
80028SOL    HW141923   0.727  14.681  14.630
80028SOL    HW241924   0.585  14.652  14.676
80029SOL     OW41925  12.499   4.409   9.022
80029SOL    HW141926  12.506   4.502   9.000
80029SOL    HW241927  12.569   4.367   8.972
80030SOL     OW41928   2.153   6.651   0.841
80030SOL    HW141929   2.201   6.598   0.777
80030SOL    HW241930   2.092   6.590   0.882
80031SOL     OW41931   7.706   4.269   4.852
80031SOL    HW141932   7.624   4.221   4.844
80031SOL    HW241933   7.681   4.361   4.854
80032SOL     OW41934  12.771  14.290   8.211
80032SOL    HW141935  12.708  14.291   8.139
80032SOL    HW241936  12.778  14.382   8.238
80033SOL     OW41937   3.268   5.819  11.810
80033SOL    HW141938   3.341   5.820  11.873
80033SOL    HW241939   3.255   5.912  11.788
80034SOL     OW41940   3.621  12.244   9.724
80034SOL    HW141941   3.698  12.188   9.738
80034SOL    HW241942   3.642  12.293   9.645
80035SOL     OW41943   1.191   9.789   1.807
80035SOL    HW141944   1.266   9.846   1.790
80035SOL    HW241945   1.132   9.843   1.860
80036SOL     OW41946  13.284  12.679   9.869
80036SOL    HW141947  13.261  12.594   9.831
80036SOL    HW241948  13.379  12.684   9.862
80037SOL     OW41949  13.254  14.780   1.740
80037SOL    HW141950  13.285  14.778   1.831
80037SOL    HW241951  13.205  14.698   1.730
80038SOL     OW41952   4.115  11.023  11.274
80038SOL    HW141953   4.074  11.003  11.190
80038SOL    HW241954   4.092  11.114  11.291
80039SOL     OW41955   3.109   0.445  14.863
80039SOL    HW141956   3.083   0.511   0.045
80039SOL    HW241957   3.028   0.398  14.843
80040SOL     OW41958  11.423  13.118  10.832
80040SOL    HW141959  11.434  13.043  10.773
80040SOL    HW241960  11.431  13.080  10.920
80041SOL     OW41961  11.635   4.070   9.759
80041SOL    HW141962  11.627   3.985   9.801
80041SOL    HW241963  11.719   4.105   9.791
80042SOL     OW41964   3.143   9.276   4.401
80042SOL    HW141965   3.061   9.263   4.449
80042SOL    HW241966   3.145   9.205   4.338
80043SOL     OW41967  11.065  11.958   9.848
80043SOL    HW141968  11.092  11.944   9.939
80043SOL    HW241969  11.128  12.021   9.814
80044SOL     OW41970   7.237  10.190  13.126
80044SOL    HW141971   7.177  10.147  13.065
80044SOL    HW241972   7.323  10.156  13.104
80045SOL     OW41973  12.332   3.452   9.740
80045SOL    HW141974  12.312   3.415   9.654
80045SOL    HW241975  12.386   3.528   9.722
80046SOL     OW41976   1.889   1.471   7.631
80046SOL    HW141977   1.812   1.502   7.679
80046SOL    HW241978   1.857   1.400   7.576
80047SOL     OW41979   8.721   3.800  13.804
80047SOL    HW141980   8.748   3.718  13.763
80047SOL    HW241981   8.626   3.791  13.815
80048SOL     OW41982  10.585   7.611  14.387
80048SOL    HW141983  10.555   7.534  14.339
80048SOL    HW241984  10.554   7.685  14.335
80049SOL     OW41985   3.317  13.026   7.343
80049SOL    HW141986   3.228  12.993   7.356
80049SOL    HW241987   3.320  13.054   7.252
80050SOL     OW41988   5.306  12.697   2.529
80050SOL    HW141989   5.299  12.789   2.552
80050SOL    HW241990   5.220  12.675   2.493
80051SOL     OW41991  12.509   4.138   7.716
80051SOL    HW141992  12.447   4.079   7.758
80051SOL    HW241993  12.573   4.079   7.675
80052SOL     OW41994   6.082   8.650   9.489
80052SOL    HW141995   5.993   8.615   9.485
80052SOL    HW241996   6.138   8.572   9.498
80053SOL     OW41997  13.276  14.465  13.863
80053SOL    HW141998  13.252  14.479  13.772
80053SOL    HW241999  13.332  14.388  13.862
80054SOL     OW42000   2.852  11.620   7.236
80054SOL    HW142001   2.800  11.610   7.316
80054SOL    HW242002   2.929  11.565   7.251
80055SOL     OW42003   1.607   0.480   4.953
80055SOL    HW142004   1.571   0.544   4.892
80055SOL    HW242005   1.531   0.433   4.986
80056SOL     OW42006   9.864   5.242  11.374
80056SOL    HW142007   9.851   5.280  11.287
80056SOL    HW242008   9.837   5.151  11.366
80057SOL     OW42009   9.900   6.109   7.304
80057SOL    HW142010   9.806   6.105   7.324
80057SOL    HW242011   9.908   6.067   7.219
80058SOL     OW42012  12.894   3.858   7.881
80058SOL    HW142013  12.896   3.894   7.970
80058SOL    HW242014  12.882   3.764   7.894
80059SOL     OW42015  12.456   8.911   9.160
80059SOL    HW142016  12.456   8.984   9.098
80059SOL    HW242017  12.372   8.868   9.146
80060SOL     OW42018   7.114   5.161  10.848
80060SOL    HW142019   7.057   5.161  10.771
80060SOL    HW242020   7.086   5.085  10.898
80061SOL     OW42021   3.356   9.755   6.443
80061SOL    HW142022   3.416   9.693   6.485
80061SOL    HW242023   3.308   9.702   6.379
80062SOL     OW42024   2.013   5.665   2.959
80062SOL    HW142025   2.039   5.713   2.880
80062SOL    HW242026   2.073   5.696   3.027
80063SOL     OW42027   9.556   3.235   8.398
80063SOL    HW142028   9.596   3.303   8.343
80063SOL    HW242029   9.627   3.207   8.456
80064SOL     OW42030   6.098  11.464   8.762
80064SOL    HW142031   6.031  11.503   8.707
80064SOL    HW242032   6.086  11.504   8.848
80065SOL     OW42033   3.311  11.113  13.712
80065SOL    HW142034   3.256  11.137  13.638
80065SOL    HW242035   3.391  11.165  13.701
80066SOL     OW42036   8.206   8.538  10.354
80066SOL    HW142037   8.122   8.563  10.316
80066SOL    HW242038   8.183   8.496  10.437
80067SOL     OW42039  12.918   7.327   9.331
80067SOL    HW142040  12.913   7.422   9.317
80067SOL    HW242041  12.827   7.298   9.335
80068SOL     OW42042   4.354   4.360  11.780
80068SOL    HW142043   4.423   4.359  11.846
80068SOL    HW242044   4.342   4.453  11.758
80069SOL     OW42045  12.957  12.737  14.611
80069SOL    HW142046  12.917  12.692  14.685
80069SOL    HW242047  12.969  12.827  14.640
80070SOL     OW42048   2.098   9.171   9.463
80070SOL    HW142049   2.089   9.095   9.520
80070SOL    HW242050   2.040   9.236   9.501
80071SOL     OW42051  14.141  10.795   9.181
80071SOL    HW142052  14.124  10.860   9.249
80071SOL    HW242053  14.086  10.720   9.206
80072SOL     OW42054  13.371   6.478   8.225
80072SOL    HW142055  13.355   6.484   8.131
80072SOL    HW242056  13.314   6.407   8.254
80073SOL     OW42057  11.813   3.225   1.553
80073SOL    HW142058  11.886   3.163   1.542
80073SOL    HW242059  11.786   3.215   1.644
80074SOL     OW42060  14.851  10.924   3.149
80074SOL    HW142061  14.777  10.867   3.169
80074SOL    HW242062  14.822  10.977   3.075
80075SOL     OW42063   7.621   2.611   9.930
80075SOL    HW142064   7.606   2.686   9.872
80075SOL    HW242065   7.716   2.599   9.929
80076SOL     OW42066   7.427   2.749   0.281
80076SOL    HW142067   7.474   2.696   0.217
80076SOL    HW242068   7.360   2.795   0.230
80077SOL     OW42069  11.341   1.603   6.059
80077SOL    HW142070  11.368   1.570   6.145
80077SOL    HW242071  11.388   1.547   5.997
80078SOL     OW42072   3.676  12.010   7.108
80078SOL    HW142073   3.645  12.100   7.109
80078SOL    HW242074   3.752  12.011   7.050
80079SOL     OW42075   0.131   3.911  12.696
80079SOL    HW142076   0.044   3.872  12.700
80079SOL    HW242077   0.152   3.931  12.787
80080SOL     OW42078  13.069   3.232  12.087
80080SOL    HW142079  13.161   3.257  12.080
80080SOL    HW242080  13.030   3.259  12.004
80081SOL     OW42081   6.558  13.465   2.988
80081SOL    HW142082   6.514  13.550   2.979
80081SOL    HW242083   6.501  13.404   2.942
80082SOL     OW42084   8.369  14.320   2.045
80082SOL    HW142085   8.427  14.294   1.973
80082SOL    HW242086   8.387  14.413   2.058
80083SOL     OW42087   4.483  10.251   0.848
80083SOL    HW142088   4.516  10.180   0.902
80083SOL    HW242089   4.392  10.262   0.876
80084SOL     OW42090  13.966   4.333   9.306
80084SOL    HW142091  13.963   4.422   9.271
80084SOL    HW242092  14.057   4.321   9.333
80085SOL     OW42093  14.298  10.148   6.671
80085SOL    HW142094  14.229  10.204   6.636
80085SOL    HW242095  14.251  10.073   6.707
80086SOL     OW42096  14.412   0.865   4.423
80086SOL    HW142097  14.358   0.836   4.496
80086SOL    HW242098  14.359   0.849   4.345
80087SOL     OW42099  14.407  12.805   5.351
80087SOL    HW142100  14.452  12.728   5.387
80087SOL    HW242101  14.403  12.867   5.423
80088SOL     OW42102   6.329   7.144  12.741
80088SOL    HW142103   6.337   7.062  12.790
80088SOL    HW242104   6.402   7.142  12.679
80089SOL     OW42105  13.527   0.812  13.869
80089SOL    HW142106  13.608   0.795  13.821
80089SOL    HW242107  13.499   0.727  13.901
80090SOL     OW42108   9.297   2.600   9.350
80090SOL    HW142109   9.223   2.543   9.374
80090SOL    HW242110   9.306   2.589   9.255
80091SOL     OW42111   3.854  10.407   6.102
80091SOL    HW142112   3.763  10.400   6.130
80091SOL    HW242113   3.898  10.334   6.146
80092SOL     OW42114  13.249   3.421   1.461
80092SOL    HW142115  13.317   3.455   1.519
80092SOL    HW242116  13.171   3.472   1.484
80093SOL     OW42117   2.501   7.099   2.921
80093SOL    HW142118   2.489   7.172   2.860
80093SOL    HW242119   2.596   7.090   2.929
80094SOL     OW42120   6.583   3.891  12.318
80094SOL    HW142121   6.545   3.804  12.309
80094SOL    HW242122   6.562   3.936  12.236
80095SOL     OW42123   8.073   6.623   4.861
80095SOL    HW142124   8.045   6.715   4.864
80095SOL    HW242125   8.141   6.621   4.795
80096SOL     OW42126   7.100  12.515   0.074
80096SOL    HW142127   7.152  12.435   0.069
80096SOL    HW242128   7.010  12.485   0.086
80097SOL     OW42129   4.414   9.058   6.146
80097SOL    HW142130   4.415   8.963   6.163
80097SOL    HW242131   4.407   9.097   6.233
80098SOL     OW42132   8.034  14.454  12.833
80098SOL    HW142133   8.084  14.419  12.907
80098SOL    HW242134   7.984  14.379  12.801
80099SOL     OW42135   4.619   8.441   9.075
80099SOL    HW142136   4.593   8.357   9.036
80099SOL    HW242137   4.539   8.494   9.073
80100SOL     OW42138  10.967   1.801   3.659
80100SOL    HW142139  11.021   1.730   3.692
80100SOL    HW242140  10.896   1.809   3.723
80101SOL     OW42141   6.537   8.733  12.078
80101SOL    HW142142   6.541   8.644  12.043
80101SOL    HW242143   6.513   8.721  12.170
80102SOL     OW42144  12.676  14.504   2.470
80102SOL    HW142145  12.750  14.560   2.493
80102SOL    HW242146  12.715  14.417   2.457
80103SOL     OW42147   2.661   4.157  13.952
80103SOL    HW142148   2.692   4.218  13.884
80103SOL    HW242149   2.663   4.071  13.910
80104SOL     OW42150  12.862  14.567   5.507
80104SOL    HW142151  12.820  14.543   5.424
80104SOL    HW242152  12.890  14.484   5.545
80105SOL     OW42153  12.548   3.769  11.182
80105SOL    HW142154  12.634   3.789  11.218
80105SOL    HW242155  12.524   3.848  11.133
80106SOL     OW42156   2.735   0.904   1.023
80106SOL    HW142157   2.741   0.971   0.955
80106SOL    HW242158   2.802   0.839   0.999
80107SOL     OW42159   3.436   7.477  11.882
80107SOL    HW142160   3.367   7.420  11.847
80107SOL    HW242161   3.502   7.480  11.812
80108SOL     OW42162  11.696   0.453  11.343
80108SOL    HW142163  11.719   0.407  11.424
80108SOL    HW242164  11.726   0.395  11.273
80109SOL     OW42165   0.103   6.066  13.147
80109SOL    HW142166   0.014   6.044  13.172
80109SOL    HW242167   0.123   6.007  13.074
80110SOL     OW42168  12.296   7.249   6.537
80110SOL    HW142169  12.219   7.305   6.534
80110SOL    HW242170  12.309   7.221   6.446
80111SOL     OW42171   8.995   4.873   9.022
80111SOL    HW142172   9.000   4.947   9.081
80111SOL    HW242173   8.904   4.871   8.992
80112SOL     OW42174   0.576  11.978   2.283
80112SOL    HW142175   0.668  12.004   2.271
80112SOL    HW242176   0.577  11.922   2.360
80113SOL     OW42177  13.357   9.725   6.583
80113SOL    HW142178  13.313   9.723   6.668
80113SOL    HW242179  13.347   9.636   6.549
80114SOL     OW42180   4.991  10.586  10.896
80114SOL    HW142181   5.013  10.672  10.861
80114SOL    HW242182   4.906  10.598  10.938
80115SOL     OW42183   5.983   8.975   0.268
80115SOL    HW142184   5.973   8.928   0.185
80115SOL    HW242185   5.926   8.927   0.329
80116SOL     OW42186  11.280   6.015   0.719
80116SOL    HW142187  11.238   6.002   0.634
80116SOL    HW242188  11.261   6.106   0.741
80117SOL     OW42189   4.454   0.792  14.498
80117SOL    HW142190   4.452   0.885  14.475
80117SOL    HW242191   4.451   0.747  14.413
80118SOL     OW42192   2.641  10.659  12.797
80118SOL    HW142193   2.615  10.570  12.818
80118SOL    HW242194   2.733  10.652  12.772
80119SOL     OW42195  14.577   3.791   5.967
80119SOL    HW142196  14.565   3.875   5.923
80119SOL    HW242197  14.495   3.743   5.952
80120SOL     OW42198   5.847   9.574  10.642
80120SOL    HW142199   5.833   9.483  10.615
80120SOL    HW242200   5.779   9.591  10.707
80121SOL     OW42201   0.688  11.420  12.943
80121SOL    HW142202   0.699  11.382  13.030
80121SOL    HW242203   0.706  11.349  12.882
80122SOL     OW42204   0.837  10.846   6.526
80122SOL    HW142205   0.786  10.843   6.445
80122SOL    HW242206   0.868  10.756   6.538
80123SOL     OW42207   7.751   3.912   1.022
80123SOL    HW142208   7.694   3.877   0.954
80123SOL    HW242209   7.778   3.997   0.989
80124SOL     OW42210  10.504   9.486   5.903
80124SOL    HW142211  10.574   9.460   5.843
80124SOL    HW242212  10.431   9.509   5.845
80125SOL     OW42213  14.497   7.631   1.820
80125SOL    HW142214  14.535   7.606   1.736
80125SOL    HW242215  14.537   7.715   1.840
80126SOL     OW42216  10.479   4.056  12.740
80126SOL    HW142217  10.423   3.989  12.779
80126SOL    HW242218  10.422   4.101  12.677
80127SOL     OW42219   4.913   6.354  11.327
80127SOL    HW142220   4.900   6.424  11.263
80127SOL    HW242221   4.868   6.278  11.289
80128SOL     OW42222   4.641  12.934   1.046
80128SOL    HW142223   4.608  13.021   1.067
80128SOL    HW242224   4.732  12.935   1.075
80129SOL     OW42225   1.470   4.616   5.026
80129SOL    HW142226   1.394   4.640   4.973
80129SOL    HW242227   1.546   4.646   4.976
80130SOL     OW42228  13.176   7.982  13.733
80130SOL    HW142229  13.145   7.910  13.788
80130SOL    HW242230  13.114   8.053  13.749
80131SOL     OW42231   5.147   4.998   8.810
80131SOL    HW142232   5.051   4.994   8.808
80131SOL    HW242233   5.170   4.973   8.899
80132SOL     OW42234   4.888   6.302   2.918
80132SOL    HW142235   4.921   6.343   2.998
80132SOL    HW242236   4.794   6.292   2.933
80133SOL     OW42237  12.825  13.284   5.209
80133SOL    HW142238  12.745  13.235   5.190
80133SOL    HW242239  12.805  13.332   5.290
80134SOL     OW42240  13.471   4.045  13.024
80134SOL    HW142241  13.554   4.035  13.072
80134SOL    HW242242  13.489   4.009  12.937
80135SOL     OW42243   8.546  12.046  11.569
80135SOL    HW142244   8.621  11.986  11.570
80135SOL    HW242245   8.488  12.014  11.638
80136SOL     OW42246  12.413  12.249   2.138
80136SOL    HW142247  12.444  12.310   2.205
80136SOL    HW242248  12.487  12.238   2.080
80137SOL     OW42249   5.388   2.863  10.784
80137SOL    HW142250   5.351   2.867  10.696
80137SOL    HW242251   5.447   2.788  10.783
80138SOL     OW42252  10.479   5.844  14.296
80138SOL    HW142253  10.458   5.935  14.276
80138SOL    HW242254  10.422   5.793  14.237
80139SOL     OW42255   0.846  12.519  10.965
80139SOL    HW142256   0.753  12.541  10.968
80139SOL    HW242257   0.882  12.575  10.897
80140SOL     OW42258   5.799   1.569  14.461
80140SOL    HW142259   5.763   1.626  14.392
80140SOL    HW242260   5.722   1.540  14.510
80141SOL     OW42261  14.722  14.088   3.649
80141SOL    HW142262  14.644  14.076   3.596
80141SOL    HW242263  14.790  14.113   3.586
80142SOL     OW42264  10.715  11.733   3.766
80142SOL    HW142265  10.727  11.721   3.672
80142SOL    HW242266  10.640  11.793   3.773
80143SOL     OW42267   2.246  14.149  10.371
80143SOL    HW142268   2.242  14.190  10.285
80143SOL    HW242269   2.195  14.069  10.362
80144SOL     OW42270   0.642   9.026   1.840
80144SOL    HW142271   0.735   9.049   1.839
80144SOL    HW242272   0.606   9.078   1.912
80145SOL     OW42273  11.884   8.179   7.647
80145SOL    HW142274  11.909   8.168   7.739
80145SOL    HW242275  11.839   8.264   7.645
80146SOL     OW42276  14.271   9.590   6.168
80146SOL    HW142277  14.219   9.667   6.188
80146SOL    HW242278  14.208   9.528   6.130
80147SOL     OW42279   7.102   6.173   6.733
80147SOL    HW142280   7.111   6.139   6.644
80147SOL    HW242281   7.140   6.106   6.789
80148SOL     OW42282   2.622  13.058  11.673
80148SOL    HW142283   2.556  13.059  11.603
80148SOL    HW242284   2.574  13.082  11.752
80149SOL     OW42285  14.785  13.378   2.328
80149SOL    HW142286  14.855  13.402   2.389
80149SOL    HW242287  14.768  13.458   2.279
80150SOL     OW42288   3.632  13.199   3.247
80150SOL    HW142289   3.615  13.105   3.252
80150SOL    HW242290   3.679  13.211   3.164
80151SOL     OW42291   8.261   5.523   0.373
80151SOL    HW142292   8.352   5.505   0.348
80151SOL    HW242293   8.245   5.612   0.340
80152SOL     OW42294  11.630  13.759   3.300
80152SOL    HW142295  11.692  13.707   3.250
80152SOL    HW242296  11.683  13.806   3.363
80153SOL     OW42297   9.522   1.227   2.238
80153SOL    HW142298   9.615   1.213   2.256
80153SOL    HW242299   9.519   1.311   2.192
80154SOL     OW42300  10.873   9.677  13.765
80154SOL    HW142301  10.925   9.746  13.726
80154SOL    HW242302  10.842   9.624  13.691
80155SOL     OW42303   2.547  13.599   7.243
80155SOL    HW142304   2.613  13.550   7.292
80155SOL    HW242305   2.576  13.595   7.152
80156SOL     OW42306  12.683   6.982   0.901
80156SOL    HW142307  12.596   6.946   0.880
80156SOL    HW242308  12.738   6.904   0.913
80157SOL     OW42309   1.499   7.187   7.377
80157SOL    HW142310   1.561   7.115   7.385
80157SOL    HW242311   1.430   7.168   7.441
80158SOL     OW42312   8.560  10.768  13.504
80158SOL    HW142313   8.529  10.689  13.547
80158SOL    HW242314   8.653  10.771  13.524
80159SOL     OW42315  11.268  11.824   0.832
80159SOL    HW142316  11.294  11.761   0.765
80159SOL    HW242317  11.284  11.909   0.791
80160SOL     OW42318   6.311   1.469   6.136
80160SOL    HW142319   6.330   1.433   6.049
80160SOL    HW242320   6.215   1.479   6.137
80161SOL     OW42321  11.832   2.821  12.107
80161SOL    HW142322  11.854   2.914  12.112
80161SOL    HW242323  11.781   2.804  12.186
80162SOL     OW42324   3.209   1.060   9.516
80162SOL    HW142325   3.211   0.973   9.477
80162SOL    HW242326   3.158   1.112   9.455
80163SOL     OW42327   5.090   2.747   9.252
80163SOL    HW142328   5.076   2.684   9.323
80163SOL    HW242329   5.147   2.813   9.290
80164SOL     OW42330  14.641   2.372   4.202
80164SOL    HW142331  14.732   2.374   4.234
80164SOL    HW242332  14.603   2.454   4.232
80165SOL     OW42333   7.739  13.861   7.221
80165SOL    HW142334   7.786  13.871   7.137
80165SOL    HW242335   7.795  13.905   7.285
80166SOL     OW42336   2.594   9.309   5.606
80166SOL    HW142337   2.588   9.404   5.589
80166SOL    HW242338   2.661   9.301   5.673
80167SOL     OW42339   9.958   0.839   9.075
80167SOL    HW142340   9.877   0.835   9.126
80167SOL    HW242341   9.936   0.797   8.992
80168SOL     OW42342   4.666   6.997  10.526
80168SOL    HW142343   4.728   7.069  10.516
80168SOL    HW242344   4.712   6.921  10.489
80169SOL     OW42345  10.203   5.342   1.225
80169SOL    HW142346  10.124   5.288   1.221
80169SOL    HW242347  10.173   5.430   1.204
80170SOL     OW42348  14.795  11.308   4.720
80170SOL    HW142349  14.858  11.267   4.780
80170SOL    HW242350  14.848  11.340   4.648
80171SOL     OW42351   2.143   2.795   3.581
80171SOL    HW142352   2.102   2.875   3.615
80171SOL    HW242353   2.088   2.769   3.507
80172SOL     OW42354  14.710   9.671   3.907
80172SOL    HW142355  14.654   9.596   3.888
80172SOL    HW242356  14.797   9.644   3.879
80173SOL     OW42357  11.066  12.970   4.214
80173SOL    HW142358  11.133  12.902   4.223
80173SOL    HW242359  11.116  13.052   4.208
80174SOL     OW42360   0.996   7.403   6.861
80174SOL    HW142361   1.000   7.342   6.935
80174SOL    HW242362   0.999   7.490   6.901
80175SOL     OW42363   4.361   3.072   6.209
80175SOL    HW142364   4.380   2.978   6.206
80175SOL    HW242365   4.407   3.108   6.133
80176SOL     OW42366   7.408  12.120   4.297
80176SOL    HW142367   7.399  12.028   4.322
80176SOL    HW242368   7.318  12.150   4.285
80177SOL     OW42369   2.106  14.471  10.668
80177SOL    HW142370   2.132  14.428  10.586
80177SOL    HW242371   2.177  14.453  10.729
80178SOL     OW42372   8.624   6.366   3.725
80178SOL    HW142373   8.595   6.457   3.732
80178SOL    HW242374   8.608   6.343   3.634
80179SOL     OW42375  10.513   8.627   5.698
80179SOL    HW142376  10.523   8.709   5.650
80179SOL    HW242377  10.454   8.649   5.770
80180SOL     OW42378   1.061   4.314  14.088
80180SOL    HW142379   1.091   4.229  14.122
80180SOL    HW242380   0.967   4.302  14.074
80181SOL     OW42381  10.821   9.489   2.860
80181SOL    HW142382  10.900   9.541   2.874
80181SOL    HW242383  10.798   9.456   2.946
80182SOL     OW42384   3.278   5.697   2.522
80182SOL    HW142385   3.208   5.683   2.458
80182SOL    HW242386   3.321   5.777   2.493
80183SOL     OW42387   0.352   0.396   0.496
80183SOL    HW142388   0.424   0.333   0.511
80183SOL    HW242389   0.291   0.349   0.439
80184SOL     OW42390   3.169  14.138  12.728
80184SOL    HW142391   3.183  14.053  12.686
80184SOL    HW242392   3.174  14.120  12.822
80185SOL     OW42393  10.287   5.421   9.165
80185SOL    HW142394  10.337   5.416   9.247
80185SOL    HW242395  10.332   5.488   9.114
80186SOL     OW42396  12.134   2.161   4.821
80186SOL    HW142397  12.112   2.083   4.871
80186SOL    HW242398  12.050   2.198   4.796
80187SOL     OW42399  12.291   0.102  10.491
80187SOL    HW142400  12.197   0.114  10.495
80187SOL    HW242401  12.318   0.089  10.582
80188SOL     OW42402   7.931   7.757  14.588
80188SOL    HW142403   7.938   7.664  14.608
80188SOL    HW242404   7.901   7.797  14.670
80189SOL     OW42405   8.514   3.013   4.418
80189SOL    HW142406   8.557   2.935   4.454
80189SOL    HW242407   8.522   3.078   4.487
80190SOL     OW42408   2.491   5.016  12.034
80190SOL    HW142409   2.485   5.017  11.938
80190SOL    HW242410   2.405   5.046  12.063
80191SOL     OW42411   6.255  10.588  10.911
80191SOL    HW142412   6.258  10.523  10.841
80191SOL    HW242413   6.325  10.649  10.891
80192SOL     OW42414   4.331   8.699   1.024
80192SOL    HW142415   4.423   8.678   1.006
80192SOL    HW242416   4.316   8.783   0.980
80193SOL     OW42417   5.135   1.439   6.319
80193SOL    HW142418   5.204   1.496   6.284
80193SOL    HW242419   5.174   1.399   6.397
80194SOL     OW42420   8.307   3.152   7.364
80194SOL    HW142421   8.221   3.114   7.384
80194SOL    HW242422   8.370   3.088   7.399
80195SOL     OW42423  10.864   2.549   9.843
80195SOL    HW142424  10.880   2.640   9.866
80195SOL    HW242425  10.769   2.540   9.842
80196SOL     OW42426  10.874  14.831  10.433
80196SOL    HW142427  10.953  14.838  10.486
80196SOL    HW242428  10.866   0.033  10.389
80197SOL     OW42429  12.717  14.859  13.848
80197SOL    HW142430  12.718  14.772  13.808
80197SOL    HW242431  12.809  14.876  13.870
80198SOL     OW42432   8.960   8.242  11.855
80198SOL    HW142433   8.899   8.312  11.878
80198SOL    HW242434   9.013   8.278  11.783
80199SOL     OW42435   0.483  12.594   9.430
80199SOL    HW142436   0.560  12.646   9.453
80199SOL    HW242437   0.409  12.652   9.449
80200SOL     OW42438   6.848   4.349   5.121
80200SOL    HW142439   6.829   4.326   5.212
80200SOL    HW242440   6.811   4.436   5.110
80201SOL     OW42441   8.873  13.197   4.762
80201SOL    HW142442   8.864  13.205   4.667
80201SOL    HW242443   8.820  13.268   4.797
80202SOL     OW42444  14.457   8.770   6.991
80202SOL    HW142445  14.489   8.743   6.906
80202SOL    HW242446  14.462   8.691   7.045
80203SOL     OW42447  13.964   6.373   8.063
80203SOL    HW142448  13.952   6.324   7.982
80203SOL    HW242449  14.059   6.377   8.075
80204SOL     OW42450   6.994  12.473   7.199
80204SOL    HW142451   7.082  12.467   7.234
80204SOL    HW242452   6.996  12.549   7.140
80205SOL     OW42453  11.506   1.000   9.923
80205SOL    HW142454  11.422   0.956   9.913
80205SOL    HW242455  11.495   1.082   9.874
80206SOL     OW42456  10.222  12.876   5.474
80206SOL    HW142457  10.237  12.831   5.391
80206SOL    HW242458  10.134  12.911   5.467
80207SOL     OW42459  10.846  10.602   9.182
80207SOL    HW142460  10.866  10.694   9.203
80207SOL    HW242461  10.759  10.606   9.141
80208SOL     OW42462   2.123  13.712   5.871
80208SOL    HW142463   2.204  13.754   5.841
80208SOL    HW242464   2.145  13.619   5.876
80209SOL     OW42465   3.428   5.941   2.530
80209SOL    HW142466   3.437   6.028   2.569
80209SOL    HW242467   3.514   5.924   2.490
80210SOL     OW42468   3.162  12.891   0.854
80210SOL    HW142469   3.198  12.975   0.827
80210SOL    HW242470   3.113  12.911   0.934
80211SOL     OW42471  11.878   8.913   5.955
80211SOL    HW142472  11.958   8.894   6.005
80211SOL    HW242473  11.854   8.829   5.915
80212SOL     OW42474   6.474   2.936   0.917
80212SOL    HW142475   6.556   2.915   0.872
80212SOL    HW242476   6.458   3.028   0.896
80213SOL     OW42477  10.271  14.861  11.426
80213SOL    HW142478  10.297   0.071  11.427
80213SOL    HW242479  10.341  14.817  11.378
80214SOL     OW42480   7.301   4.071   6.460
80214SOL    HW142481   7.306   4.003   6.528
80214SOL    HW242482   7.392   4.088   6.436
80215SOL     OW42483  11.257  12.099   1.723
80215SOL    HW142484  11.234  12.006   1.722
80215SOL    HW242485  11.181  12.142   1.762
80216SOL     OW42486   3.218  12.886  14.386
80216SOL    HW142487   3.288  12.821  14.381
80216SOL    HW242488   3.147  12.849  14.335
80217SOL     OW42489   0.231   3.087  12.545
80217SOL    HW142490   0.248   3.168  12.594
80217SOL    HW242491   0.238   3.018  12.611
80218SOL     OW42492   9.070   4.159  11.650
80218SOL    HW142493   9.102   4.195  11.732
80218SOL    HW242494   9.090   4.066  11.655
80219SOL     OW42495  11.680   8.990  10.294
80219SOL    HW142496  11.757   9.040  10.320
80219SOL    HW242497  11.607   9.052  10.298
80220SOL     OW42498   3.322  13.133   0.800
80220SOL    HW142499   3.352  13.141   0.710
80220SOL    HW242500   3.282  13.218   0.820
80221SOL     OW42501   8.660   6.568   7.943
80221SOL    HW142502   8.741   6.609   7.914
80221SOL    HW242503   8.684   6.524   8.025
80222SOL     OW42504   0.870   8.604  10.405
80222SOL    HW142505   0.827   8.571  10.327
80222SOL    HW242506   0.803   8.657  10.449
80223SOL     OW42507  14.691   8.661  10.779
80223SOL    HW142508  14.744   8.732  10.741
80223SOL    HW242509  14.698   8.590  10.715
80224SOL     OW42510   0.547   0.524   8.432
80224SOL    HW142511   0.538   0.528   8.337
80224SOL    HW242512   0.614   0.588   8.453
80225SOL     OW42513   5.800   5.191  10.444
80225SOL    HW142514   5.744   5.114  10.455
80225SOL    HW242515   5.839   5.180  10.357
80226SOL     OW42516   9.889   9.684   2.829
80226SOL    HW142517   9.845   9.768   2.813
80226SOL    HW242518   9.899   9.681   2.924
80227SOL     OW42519   8.284   6.948   8.367
80227SOL    HW142520   8.265   6.917   8.278
80227SOL    HW242521   8.298   6.868   8.418
80228SOL     OW42522  13.408   4.117  12.459
80228SOL    HW142523  13.415   4.144  12.551
80228SOL    HW242524  13.418   4.022  12.461
80229SOL     OW42525   4.375   2.219   5.392
80229SOL    HW142526   4.399   2.311   5.405
80229SOL    HW242527   4.416   2.195   5.309
80230SOL     OW42528  11.891   9.215   5.167
80230SOL    HW142529  11.843   9.280   5.115
80230SOL    HW242530  11.822   9.169   5.215
80231SOL     OW42531   5.707   6.838   0.108
80231SOL    HW142532   5.717   6.781   0.031
80231SOL    HW242533   5.688   6.777   0.179
80232SOL     OW42534   7.802   2.539  12.809
80232SOL    HW142535   7.756   2.555  12.892
80232SOL    HW242536   7.889   2.576  12.822
80233SOL     OW42537   9.779   7.442   3.370
80233SOL    HW142538   9.742   7.496   3.300
80233SOL    HW242539   9.872   7.462   3.369
80234SOL     OW42540   5.815   8.226  13.391
80234SOL    HW142541   5.747   8.173  13.433
80234SOL    HW242542   5.781   8.315  13.395
80235SOL     OW42543   3.540   4.790   8.760
80235SOL    HW142544   3.541   4.713   8.703
80235SOL    HW242545   3.494   4.760   8.839
80236SOL     OW42546   9.279   9.450   2.240
80236SOL    HW142547   9.343   9.379   2.230
80236SOL    HW242548   9.278   9.469   2.334
80237SOL     OW42549   1.502  11.550   0.263
80237SOL    HW142550   1.496  11.551   0.168
80237SOL    HW242551   1.411  11.554   0.293
80238SOL     OW42552   6.270   5.066  10.974
80238SOL    HW142553   6.250   5.159  10.963
80238SOL    HW242554   6.216   5.022  10.908
80239SOL     OW42555   0.320  13.641   3.457
80239SOL    HW142556   0.257  13.699   3.415
80239SOL    HW242557   0.403  13.659   3.413
80240SOL     OW42558  14.703   1.229   4.562
80240SOL    HW142559  14.644   1.178   4.505
80240SOL    HW242560  14.768   1.165   4.592
80241SOL     OW42561   3.954  11.912   1.642
80241SOL    HW142562   3.917  11.833   1.603
80241SOL    HW242563   3.987  11.963   1.568
80242SOL     OW42564   9.410  14.435   2.034
80242SOL    HW142565   9.440  14.526   2.029
80242SOL    HW242566   9.329  14.440   2.085
80243SOL     OW42567  10.398  12.460  10.365
80243SOL    HW142568  10.423  12.376  10.327
80243SOL    HW242569  10.467  12.521  10.338
80244SOL     OW42570  12.681   4.262  13.667
80244SOL    HW142571  12.755   4.205  13.688
80244SOL    HW242572  12.671   4.317  13.745
80245SOL     OW42573   2.022  12.572  10.985
80245SOL    HW142574   2.089  12.570  10.917
80245SOL    HW242575   1.949  12.523  10.949
80246SOL     OW42576   3.197   0.898  13.110
80246SOL    HW142577   3.177   0.943  13.028
80246SOL    HW242578   3.136   0.937  13.174
80247SOL     OW42579   3.262   5.981  10.466
80247SOL    HW142580   3.344   6.017  10.431
80247SOL    HW242581   3.197   6.049  10.448
80248SOL     OW42582   1.879  11.144  14.600
80248SOL    HW142583   1.861  11.131  14.506
80248SOL    HW242584   1.825  11.079  14.644
80249SOL     OW42585   5.492   8.187   2.734
80249SOL    HW142586   5.412   8.212   2.780
80249SOL    HW242587   5.481   8.094   2.714
80250SOL     OW42588  14.487   5.300   6.309
80250SOL    HW142589  14.432   5.242   6.257
80250SOL    HW242590  14.568   5.309   6.258
80251SOL     OW42591   9.338  12.357   1.677
80251SOL    HW142592   9.268  12.295   1.699
80251SOL    HW242593   9.380  12.376   1.760
80252SOL     OW42594   9.880   0.508   2.561
80252SOL    HW142595   9.847   0.595   2.536
80252SOL    HW242596   9.931   0.480   2.485
80253SOL     OW42597   0.679   6.741   9.735
80253SOL    HW142598   0.652   6.788   9.814
80253SOL    HW242599   0.637   6.655   9.743
80254SOL     OW42600  10.721   7.113   5.440
80254SOL    HW142601  10.812   7.123   5.467
80254SOL    HW242602  10.693   7.029   5.477
80255SOL     OW42603  10.625   7.273   3.658
80255SOL    HW142604  10.605   7.232   3.742
80255SOL    HW242605  10.541   7.275   3.612
80256SOL     OW42606   6.742   0.690  12.527
80256SOL    HW142607   6.666   0.651  12.486
80256SOL    HW242608   6.737   0.783  12.504
80257SOL     OW42609  11.390  11.299   1.930
80257SOL    HW142610  11.336  11.309   2.009
80257SOL    HW242611  11.326  11.290   1.859
80258SOL     OW42612   1.715   1.340  13.926
80258SOL    HW142613   1.679   1.406  13.985
80258SOL    HW242614   1.807   1.365  13.916
80259SOL     OW42615   6.896   6.534  11.402
80259SOL    HW142616   6.815   6.581  11.383
80259SOL    HW242617   6.868   6.452  11.442
80260SOL     OW42618   5.722   9.721   1.333
80260SOL    HW142619   5.809   9.730   1.373
80260SOL    HW242620   5.676   9.659   1.390
80261SOL     OW42621   3.186   3.420   5.901
80261SOL    HW142622   3.130   3.490   5.867
80261SOL    HW242623   3.131   3.372   5.962
80262SOL     OW42624   1.402  11.432   5.201
80262SOL    HW142625   1.430  11.509   5.249
80262SOL    HW242626   1.474  11.413   5.141
80263SOL     OW42627  10.919  13.531   6.014
80263SOL    HW142628  10.915  13.586   5.936
80263SOL    HW242629  10.942  13.444   5.980
80264SOL     OW42630   5.879   1.940   5.257
80264SOL    HW142631   5.925   2.020   5.283
80264SOL    HW242632   5.824   1.967   5.184
80265SOL     OW42633   4.065   6.091   2.161
80265SOL    HW142634   4.049   6.181   2.134
80265SOL    HW242635   4.013   6.037   2.101
80266SOL     OW42636  14.353   5.144   4.187
80266SOL    HW142637  14.391   5.221   4.145
80266SOL    HW242638  14.285   5.115   4.127
80267SOL     OW42639   3.666   2.297   2.591
80267SOL    HW142640   3.593   2.247   2.557
80267SOL    HW242641   3.695   2.248   2.668
80268SOL     OW42642   2.320   9.431   5.652
80268SOL    HW142643   2.337   9.339   5.676
80268SOL    HW242644   2.245   9.456   5.705
80269SOL     OW42645   0.488   2.758  11.544
80269SOL    HW142646   0.444   2.842  11.534
80269SOL    HW242647   0.437   2.697  11.489
80270SOL     OW42648  11.979   6.089   4.944
80270SOL    HW142649  12.037   6.019   4.975
80270SOL    HW242650  11.891   6.055   4.959
80271SOL     OW42651   2.665   5.675  10.376
80271SOL    HW142652   2.726   5.709  10.442
80271SOL    HW242653   2.720   5.625  10.316
80272SOL     OW42654   4.497   4.912   7.651
80272SOL    HW142655   4.460   4.849   7.712
80272SOL    HW242656   4.567   4.956   7.700
80273SOL     OW42657   4.000  13.128   4.642
80273SOL    HW142658   4.038  13.059   4.588
80273SOL    HW242659   4.018  13.101   4.732
80274SOL     OW42660   7.369   6.947  14.351
80274SOL    HW142661   7.285   6.988  14.333
80274SOL    HW242662   7.348   6.856  14.371
80275SOL     OW42663   0.147   5.100   2.528
80275SOL    HW142664   0.212   5.036   2.499
80275SOL    HW242665   0.192   5.184   2.525
80276SOL     OW42666  14.853   0.089   1.246
80276SOL    HW142667  14.875   0.182   1.247
80276SOL    HW242668  14.758   0.087   1.235
80277SOL     OW42669   2.419   8.470   3.271
80277SOL    HW142670   2.399   8.392   3.219
80277SOL    HW242671   2.400   8.543   3.212
80278SOL     OW42672   3.174  10.261   3.144
80278SOL    HW142673   3.113  10.325   3.107
80278SOL    HW242674   3.153  10.179   3.099
80279SOL     OW42675   7.124   7.036   1.555
80279SOL    HW142676   7.070   7.085   1.492
80279SOL    HW242677   7.080   6.951   1.562
80280SOL     OW42678  14.223  14.326   1.751
80280SOL    HW142679  14.208  14.243   1.707
80280SOL    HW242680  14.135  14.355   1.779
80281SOL     OW42681   7.681   3.978   4.462
80281SOL    HW142682   7.624   3.938   4.396
80281SOL    HW242683   7.622   4.002   4.533
80282SOL     OW42684   1.899   0.368  13.237
80282SOL    HW142685   1.974   0.323  13.276
80282SOL    HW242686   1.926   0.388  13.148
80283SOL     OW42687   3.802   9.134   2.228
80283SOL    HW142688   3.752   9.214   2.211
80283SOL    HW242689   3.888   9.165   2.256
80284SOL     OW42690  14.731  14.036   3.101
80284SOL    HW142691  14.727  14.014   3.194
80284SOL    HW242692  14.811  13.993   3.070
80285SOL     OW42693   9.265   4.618  12.663
80285SOL    HW142694   9.210   4.618  12.584
80285SOL    HW242695   9.291   4.526  12.673
80286SOL     OW42696   3.849   9.592   8.185
80286SOL    HW142697   3.857   9.623   8.275
80286SOL    HW242698   3.779   9.527   8.187
80287SOL     OW42699   2.542  12.088   7.952
80287SOL    HW142700   2.496  12.130   8.025
80287SOL    HW242701   2.544  12.154   7.883
80288SOL     OW42702  10.469  14.141   3.348
80288SOL    HW142703  10.435  14.219   3.393
80288SOL    HW242704  10.530  14.102   3.410
80289SOL     OW42705   2.147   1.597   6.196
80289SOL    HW142706   2.062   1.571   6.161
80289SOL    HW242707   2.128   1.672   6.252
80290SOL     OW42708   8.681  10.764   9.285
80290SOL    HW142709   8.594  10.727   9.298
80290SOL    HW242710   8.666  10.858   9.278
80291SOL     OW42711   9.701   6.621   6.463
80291SOL    HW142712   9.636   6.616   6.533
80291SOL    HW242713   9.729   6.713   6.463
80292SOL     OW42714  12.667   9.308  12.317
80292SOL    HW142715  12.681   9.325  12.410
80292SOL    HW242716  12.575   9.283  12.310
80293SOL     OW42717   6.813   8.208   3.219
80293SOL    HW142718   6.876   8.270   3.182
80293SOL    HW242719   6.734   8.260   3.233
80294SOL     OW42720   3.042   5.364   2.778
80294SOL    HW142721   3.071   5.453   2.760
80294SOL    HW242722   2.948   5.365   2.762
80295SOL     OW42723  11.997   5.665  11.791
80295SOL    HW142724  12.012   5.653  11.885
80295SOL    HW242725  11.935   5.596  11.767
80296SOL     OW42726   5.489   6.986  10.252
80296SOL    HW142727   5.450   7.037  10.324
80296SOL    HW242728   5.570   7.034  10.230
80297SOL     OW42729   5.615  11.391   8.677
80297SOL    HW142730   5.552  11.319   8.669
80297SOL    HW242731   5.596  11.447   8.601
80298SOL     OW42732   9.737   5.336   6.475
80298SOL    HW142733   9.796   5.276   6.430
80298SOL    HW242734   9.683   5.373   6.405
80299SOL     OW42735   4.193   3.391   7.470
80299SOL    HW142736   4.155   3.469   7.431
80299SOL    HW242737   4.119   3.345   7.509
80300SOL     OW42738   5.160   1.754   8.270
80300SOL    HW142739   5.166   1.826   8.207
80300SOL    HW242740   5.174   1.675   8.218
80301SOL     OW42741   9.929   3.675   7.253
80301SOL    HW142742   9.895   3.693   7.166
80301SOL    HW242743   9.883   3.737   7.310
80302SOL     OW42744   6.179  12.630   6.413
80302SOL    HW142745   6.101  12.589   6.451
80302SOL    HW242746   6.232  12.557   6.382
80303SOL     OW42747   9.542   5.850  13.621
80303SOL    HW142748   9.554   5.917  13.688
80303SOL    HW242749   9.451   5.859  13.592
80304SOL     OW42750  12.006   5.848   6.061
80304SOL    HW142751  11.968   5.829   6.147
80304SOL    HW242752  11.969   5.933   6.037
80305SOL     OW42753  13.519   0.796   1.531
80305SOL    HW142754  13.516   0.707   1.495
80305SOL    HW242755  13.593   0.796   1.591
80306SOL     OW42756  13.857  13.942   7.968
80306SOL    HW142757  13.932  13.887   7.949
80306SOL    HW242758  13.813  13.898   8.041
80307SOL     OW42759  10.094   8.893  11.741
80307SOL    HW142760  10.022   8.931  11.793
80307SOL    HW242761  10.085   8.799  11.754
80308SOL     OW42762  10.733  11.254  14.374
80308SOL    HW142763  10.803  11.302  14.331
80308SOL    HW242764  10.687  11.319  14.427
80309SOL     OW42765  13.778   8.905   0.660
80309SOL    HW142766  13.811   8.934   0.576
80309SOL    HW242767  13.695   8.861   0.640
80310SOL     OW42768   1.529   8.134   0.552
80310SOL    HW142769   1.538   8.048   0.512
80310SOL    HW242770   1.448   8.170   0.515
80311SOL     OW42771  14.019   2.165   6.285
80311SOL    HW142772  14.025   2.208   6.199
80311SOL    HW242773  13.996   2.236   6.345
80312SOL     OW42774   6.857   8.492   5.277
80312SOL    HW142775   6.939   8.475   5.323
80312SOL    HW242776   6.832   8.407   5.241
80313SOL     OW42777   1.027   5.677   3.085
80313SOL    HW142778   1.110   5.713   3.055
80313SOL    HW242779   0.965   5.749   3.078
80314SOL     OW42780  12.635  13.169  11.756
80314SOL    HW142781  12.681  13.122  11.825
80314SOL    HW242782  12.628  13.259  11.788
80315SOL     OW42783   9.949   5.510  10.123
80315SOL    HW142784   9.901   5.485  10.044
80315SOL    HW242785   9.880   5.529  10.188
80316SOL     OW42786   4.589  12.137  13.988
80316SOL    HW142787   4.679  12.144  13.956
80316SOL    HW242788   4.598  12.104  14.077
80317SOL     OW42789   5.288   9.918   9.748
80317SOL    HW142790   5.247   9.982   9.691
80317SOL    HW242791   5.220   9.851   9.762
80318SOL     OW42792   1.035  14.257   7.490
80318SOL    HW142793   0.971  14.238   7.558
80318SOL    HW242794   0.983  14.282   7.414
80319SOL     OW42795   9.336  12.621   3.276
80319SOL    HW142796   9.336  12.577   3.361
80319SOL    HW242797   9.314  12.553   3.214
80320SOL     OW42798   1.142   0.554  11.266
80320SOL    HW142799   1.214   0.500  11.233
80320SOL    HW242800   1.096   0.585  11.188
80321SOL     OW42801   5.819   7.329  12.346
80321SOL    HW142802   5.805   7.283  12.263
80321SOL    HW242803   5.833   7.260  12.410
80322SOL     OW42804   6.197   6.920  10.844
80322SOL    HW142805   6.214   6.859  10.771
80322SOL    HW242806   6.233   7.003  10.814
80323SOL     OW42807   7.392   4.527  13.935
80323SOL    HW142808   7.432   4.541  13.850
80323SOL    HW242809   7.303   4.564  13.926
80324SOL     OW42810  12.254  12.161   3.962
80324SOL    HW142811  12.326  12.125   4.014
80324SOL    HW242812  12.214  12.085   3.920
80325SOL     OW42813  11.273   7.884  12.853
80325SOL    HW142814  11.314   7.966  12.826
80325SOL    HW242815  11.347   7.823  12.861
80326SOL     OW42816   6.354  10.759   3.376
80326SOL    HW142817   6.279  10.771   3.318
80326SOL    HW242818   6.325  10.794   3.460
80327SOL     OW42819   9.011  12.440  10.577
80327SOL    HW142820   8.930  12.389  10.574
80327SOL    HW242821   9.013  12.485  10.492
80328SOL     OW42822   1.415   8.295  14.653
80328SOL    HW142823   1.416   8.343  14.570
80328SOL    HW242824   1.505   8.266  14.664
80329SOL     OW42825   3.121   5.005   1.119
80329SOL    HW142826   3.179   5.053   1.178
80329SOL    HW242827   3.180   4.959   1.059
80330SOL     OW42828   4.896  12.507   3.524
80330SOL    HW142829   4.966  12.443   3.511
80330SOL    HW242830   4.864  12.526   3.436
80331SOL     OW42831  13.612   0.402  11.129
80331SOL    HW142832  13.623   0.492  11.098
80331SOL    HW242833  13.694   0.359  11.105
80332SOL     OW42834  12.643   3.491   4.779
80332SOL    HW142835  12.725   3.471   4.734
80332SOL    HW242836  12.580   3.429   4.743
80333SOL     OW42837   2.139  13.688  11.183
80333SOL    HW142838   2.187  13.621  11.134
80333SOL    HW242839   2.080  13.728  11.119
80334SOL     OW42840  10.678   9.277  12.282
80334SOL    HW142841  10.620   9.273  12.358
80334SOL    HW242842  10.647   9.352  12.231
80335SOL     OW42843   6.772   1.780   7.550
80335SOL    HW142844   6.715   1.848   7.514
80335SOL    HW242845   6.772   1.795   7.644
80336SOL     OW42846   5.038  13.207   0.917
80336SOL    HW142847   5.013  13.205   1.009
80336SOL    HW242848   5.132  13.225   0.917
80337SOL     OW42849   5.046   3.798  13.344
80337SOL    HW142850   5.137   3.826  13.348
80337SOL    HW242851   5.003   3.847  13.414
80338SOL     OW42852   1.631  10.045   4.687
80338SOL    HW142853   1.678  10.125   4.709
80338SOL    HW242854   1.660   9.981   4.752
80339SOL     OW42855   2.623   7.764   1.638
80339SOL    HW142856   2.638   7.804   1.553
80339SOL    HW242857   2.574   7.684   1.619
80340SOL     OW42858   8.146   4.133   2.386
80340SOL    HW142859   8.188   4.181   2.315
80340SOL    HW242860   8.156   4.041   2.362
80341SOL     OW42861  11.229  14.360   9.214
80341SOL    HW142862  11.226  14.265   9.226
80341SOL    HW242863  11.313  14.386   9.252
80342SOL     OW42864   7.789  11.916  13.365
80342SOL    HW142865   7.731  11.904  13.440
80342SOL    HW242866   7.825  11.829  13.348
80343SOL     OW42867   3.270  13.874   4.922
80343SOL    HW142868   3.221  13.792   4.921
80343SOL    HW242869   3.361  13.848   4.935
80344SOL     OW42870   8.944  10.748  10.608
80344SOL    HW142871   8.928  10.748  10.702
80344SOL    HW242872   8.869  10.793  10.571
80345SOL     OW42873   0.020   2.885   6.937
80345SOL    HW142874   0.023   2.979   6.919
80345SOL    HW242875   0.111   2.856   6.931
80346SOL     OW42876  13.781   5.981   8.080
80346SOL    HW142877  13.743   6.060   8.041
80346SOL    HW242878  13.806   6.007   8.168
80347SOL     OW42879   8.100  11.238   1.551
80347SOL    HW142880   8.126  11.317   1.599
80347SOL    HW242881   8.027  11.266   1.495
80348SOL     OW42882   3.526  14.157  14.768
80348SOL    HW142883   3.519  14.065  14.791
80348SOL    HW242884   3.481  14.203  14.839
80349SOL     OW42885   5.382  11.294   4.295
80349SOL    HW142886   5.299  11.341   4.301
80349SOL    HW242887   5.386  11.242   4.376
80350SOL     OW42888   5.003   1.462   4.517
80350SOL    HW142889   5.063   1.481   4.589
80350SOL    HW242890   5.006   1.541   4.462
80351SOL     OW42891   9.485  12.379   0.772
80351SOL    HW142892   9.392  12.388   0.751
80351SOL    HW242893   9.530  12.408   0.692
80352SOL     OW42894   0.187   2.576  10.347
80352SOL    HW142895   0.232   2.573  10.263
80352SOL    HW242896   0.256   2.561  10.411
80353SOL     OW42897   5.273   1.628  14.622
80353SOL    HW142898   5.186   1.658  14.598
80353SOL    HW242899   5.278   1.538  14.589
80354SOL     OW42900   3.037  10.914   0.258
80354SOL    HW142901   2.947  10.946   0.251
80354SOL    HW242902   3.048  10.897   0.352
80355SOL     OW42903   3.451   0.910  13.424
80355SOL    HW142904   3.496   0.917  13.340
80355SOL    HW242905   3.360   0.934  13.404
80356SOL     OW42906  11.178  13.730   4.536
80356SOL    HW142907  11.237  13.683   4.476
80356SOL    HW242908  11.153  13.809   4.488
80357SOL     OW42909   5.595  13.267   7.182
80357SOL    HW142910   5.591  13.332   7.112
80357SOL    HW242911   5.679  13.223   7.170
80358SOL     OW42912   8.910   4.118   8.142
80358SOL    HW142913   8.819   4.146   8.137
80358SOL    HW242914   8.959   4.198   8.160
80359SOL     OW42915   3.225  13.727  11.465
80359SOL    HW142916   3.174  13.698  11.541
80359SOL    HW242917   3.243  13.819  11.482
80360SOL     OW42918   1.365   7.873  13.382
80360SOL    HW142919   1.408   7.890  13.466
80360SOL    HW242920   1.305   7.801  13.399
80361SOL     OW42921   2.251   4.659   7.550
80361SOL    HW142922   2.292   4.590   7.497
80361SOL    HW242923   2.274   4.636   7.640
80362SOL     OW42924   2.993   7.042   2.409
80362SOL    HW142925   2.958   7.092   2.336
80362SOL    HW242926   3.067   7.094   2.441
80363SOL     OW42927  14.456   3.074  13.516
80363SOL    HW142928  14.509   3.065  13.596
80363SOL    HW242929  14.399   2.997  13.517
80364SOL     OW42930   4.753  13.532   0.987
80364SOL    HW142931   4.699  13.590   1.041
80364SOL    HW242932   4.836  13.527   1.034
80365SOL     OW42933   0.545   3.437   6.909
80365SOL    HW142934   0.557   3.367   6.844
80365SOL    HW242935   0.573   3.397   6.992
80366SOL     OW42936   8.980   2.834  12.247
80366SOL    HW142937   8.990   2.898  12.176
80366SOL    HW242938   8.934   2.760  12.207
80367SOL     OW42939  11.508   8.075  12.418
80367SOL    HW142940  11.450   8.147  12.442
80367SOL    HW242941  11.585   8.118  12.382
80368SOL     OW42942   4.302   6.068   3.557
80368SOL    HW142943   4.269   6.150   3.519
80368SOL    HW242944   4.384   6.052   3.511
80369SOL     OW42945   5.947   2.293  10.697
80369SOL    HW142946   6.029   2.242  10.696
80369SOL    HW242947   5.963   2.363  10.760
80370SOL     OW42948   0.760   4.434   3.129
80370SOL    HW142949   0.723   4.350   3.102
80370SOL    HW242950   0.854   4.423   3.119
80371SOL     OW42951  11.098   7.400  14.002
80371SOL    HW142952  11.008   7.377  13.977
80371SOL    HW242953  11.089   7.442  14.087
80372SOL     OW42954   0.267   1.963   7.290
80372SOL    HW142955   0.286   1.953   7.383
80372SOL    HW242956   0.277   2.056   7.273
80373SOL     OW42957   2.788  12.526   1.546
80373SOL    HW142958   2.876  12.542   1.580
80373SOL    HW242959   2.795  12.443   1.499
80374SOL     OW42960  10.609  12.231  10.613
80374SOL    HW142961  10.667  12.156  10.598
80374SOL    HW242962  10.565  12.245  10.529
80375SOL     OW42963   5.236   8.153   3.226
80375SOL    HW142964   5.236   8.057   3.231
80375SOL    HW242965   5.279   8.182   3.306
80376SOL     OW42966  11.063   8.924   8.110
80376SOL    HW142967  11.015   9.007   8.105
80376SOL    HW242968  11.000   8.863   8.148
80377SOL     OW42969  14.866   2.374   4.934
80377SOL    HW142970   0.054   2.321   4.895
80377SOL    HW242971  14.817   2.312   4.989
80378SOL     OW42972   4.357   2.147  13.494
80378SOL    HW142973   4.401   2.102  13.566
80378SOL    HW242974   4.429   2.175  13.437
80379SOL     OW42975  12.236   4.448  13.959
80379SOL    HW142976  12.202   4.521  14.012
80379SOL    HW242977  12.164   4.426  13.900
80380SOL     OW42978   8.832   1.855  12.970
80380SOL    HW142979   8.848   1.894  13.055
80380SOL    HW242980   8.896   1.784  12.964
80381SOL     OW42981  10.114   4.182   2.452
80381SOL    HW142982  10.067   4.197   2.534
80381SOL    HW242983  10.126   4.269   2.414
80382SOL     OW42984  10.935   3.265   4.092
80382SOL    HW142985  10.922   3.215   4.173
80382SOL    HW242986  10.847   3.291   4.066
80383SOL     OW42987   6.475   3.582   9.685
80383SOL    HW142988   6.525   3.536   9.617
80383SOL    HW242989   6.406   3.627   9.636
80384SOL     OW42990   7.410   0.302   9.668
80384SOL    HW142991   7.359   0.277   9.745
80384SOL    HW242992   7.411   0.398   9.670
80385SOL     OW42993   5.345   4.832   8.431
80385SOL    HW142994   5.270   4.872   8.386
80385SOL    HW242995   5.316   4.743   8.452
80386SOL     OW42996   2.977   3.113  12.814
80386SOL    HW142997   3.041   3.072  12.756
80386SOL    HW242998   3.015   3.200  12.833
80387SOL     OW42999   2.313   5.979   0.123
80387SOL    HW143000   2.364   5.918   0.069
80387SOL    HW243001   2.222   5.961   0.099
80388SOL     OW43002  14.826  12.000  13.207
80388SOL    HW143003   0.011  11.963  13.149
80388SOL    HW243004  14.868  12.075  13.249
80389SOL     OW43005   9.160  14.207   3.282
80389SOL    HW143006   9.136  14.270   3.215
80389SOL    HW243007   9.183  14.128   3.233
80390SOL     OW43008   2.480   8.634   7.703
80390SOL    HW143009   2.457   8.548   7.666
80390SOL    HW243010   2.443   8.697   7.641
80391SOL     OW43011  12.841  11.566   1.066
80391SOL    HW143012  12.917  11.529   1.112
80391SOL    HW243013  12.804  11.492   1.018
80392SOL     OW43014   3.761  11.095   3.304
80392SOL    HW143015   3.734  11.182   3.279
80392SOL    HW243016   3.683  11.054   3.340
80393SOL     OW43017   4.535  13.232  14.263
80393SOL    HW143018   4.540  13.328  14.272
80393SOL    HW243019   4.603  13.199  14.321
80394SOL     OW43020  14.445  14.703  10.563
80394SOL    HW143021  14.406  14.625  10.525
80394SOL    HW243022  14.513  14.670  10.622
80395SOL     OW43023   9.182   2.343   9.694
80395SOL    HW143024   9.263   2.354   9.646
80395SOL    HW243025   9.195   2.392   9.775
80396SOL     OW43026  10.634   6.108  11.712
80396SOL    HW143027  10.564   6.122  11.776
80396SOL    HW243028  10.709   6.078  11.764
80397SOL     OW43029   2.429   7.476   4.285
80397SOL    HW143030   2.396   7.411   4.224
80397SOL    HW243031   2.425   7.433   4.371
80398SOL     OW43032   9.391   3.514  10.139
80398SOL    HW143033   9.344   3.472  10.067
80398SOL    HW243034   9.463   3.454  10.159
80399SOL     OW43035   5.702   6.507   1.897
80399SOL    HW143036   5.631   6.543   1.845
80399SOL    HW243037   5.722   6.423   1.856
80400SOL     OW43038   4.992   3.648   1.073
80400SOL    HW143039   5.033   3.697   1.145
80400SOL    HW243040   4.938   3.713   1.027
80401SOL     OW43041   6.439   9.559   9.327
80401SOL    HW143042   6.395   9.494   9.273
80401SOL    HW243043   6.525   9.571   9.287
80402SOL     OW43044  13.731   9.777   9.934
80402SOL    HW143045  13.730   9.741  10.023
80402SOL    HW243046  13.647   9.749   9.896
80403SOL     OW43047  13.642   6.173  10.845
80403SOL    HW143048  13.708   6.147  10.910
80403SOL    HW243049  13.597   6.092  10.823
80404SOL     OW43050  10.227  12.643   3.429
80404SOL    HW143051  10.228  12.736   3.405
80404SOL    HW243052  10.259  12.598   3.351
80405SOL     OW43053   9.604   3.146   7.976
80405SOL    HW143054   9.577   3.217   7.918
80405SOL    HW243055   9.698   3.135   7.957
80406SOL     OW43056   9.862  11.204   7.366
80406SOL    HW143057   9.772  11.225   7.394
80406SOL    HW243058   9.917  11.237   7.437
80407SOL     OW43059   7.956   3.942   2.833
80407SOL    HW143060   7.997   3.980   2.755
80407SOL    HW243061   8.019   3.958   2.903
80408SOL     OW43062   9.094   7.762   0.414
80408SOL    HW143063   9.134   7.684   0.451
80408SOL    HW243064   9.011   7.732   0.378
80409SOL     OW43065   2.297  11.133   1.153
80409SOL    HW143066   2.204  11.110   1.151
80409SOL    HW243067   2.340  11.051   1.178
80410SOL     OW43068   0.798  12.262   3.088
80410SOL    HW143069   0.842  12.343   3.063
80410SOL    HW243070   0.722  12.257   3.031
80411SOL     OW43071  14.093   0.752   1.157
80411SOL    HW143072  14.002   0.775   1.138
80411SOL    HW243073  14.089   0.703   1.239
80412SOL     OW43074  12.038   9.461   1.926
80412SOL    HW143075  12.041   9.386   1.867
80412SOL    HW243076  12.013   9.534   1.870
80413SOL     OW43077   0.317   6.191   9.894
80413SOL    HW143078   0.345   6.282   9.899
80413SOL    HW243079   0.225   6.195   9.870
80414SOL     OW43080   1.249   4.970   5.358
80414SOL    HW143081   1.243   4.886   5.403
80414SOL    HW243082   1.197   5.030   5.412
80415SOL     OW43083   2.012  11.209   2.892
80415SOL    HW143084   2.105  11.205   2.911
80415SOL    HW243085   2.003  11.287   2.837
80416SOL     OW43086  10.311   8.081  12.830
80416SOL    HW143087  10.260   8.071  12.750
80416SOL    HW243088  10.247   8.106  12.896
80417SOL     OW43089   6.309  11.777   1.111
80417SOL    HW143090   6.246  11.719   1.067
80417SOL    HW243091   6.316  11.741   1.199
80418SOL     OW43092   9.690  12.584   6.148
80418SOL    HW143093   9.695  12.633   6.066
80418SOL    HW243094   9.719  12.496   6.125
80419SOL     OW43095   2.064  13.821  11.780
80419SOL    HW143096   2.010  13.892  11.814
80419SOL    HW243097   2.150  13.836  11.819
80420SOL     OW43098   3.114   0.311   2.401
80420SOL    HW143099   3.114   0.404   2.420
80420SOL    HW243100   3.049   0.301   2.331
80421SOL     OW43101   5.902   0.687   0.896
80421SOL    HW143102   5.952   0.607   0.878
80421SOL    HW243103   5.969   0.756   0.902
80422SOL     OW43104  12.633   6.849   6.442
80422SOL    HW143105  12.681   6.917   6.394
80422SOL    HW243106  12.550   6.842   6.396
80423SOL     OW43107   9.131   5.480   9.948
80423SOL    HW143108   9.122   5.387   9.968
80423SOL    HW243109   9.041   5.513   9.945
80424SOL     OW43110   9.866   1.178   5.465
80424SOL    HW143111   9.772   1.185   5.447
80424SOL    HW243112   9.908   1.213   5.387
80425SOL     OW43113   2.773   8.348  10.755
80425SOL    HW143114   2.767   8.334  10.660
80425SOL    HW243115   2.759   8.441  10.767
80426SOL     OW43116  13.868  11.651   8.415
80426SOL    HW143117  13.812  11.587   8.460
80426SOL    HW243118  13.933  11.676   8.480
80427SOL     OW43119   7.004   0.581   1.455
80427SOL    HW143120   6.971   0.583   1.545
80427SOL    HW243121   7.051   0.498   1.448
80428SOL     OW43122   6.693   9.164   0.754
80428SOL    HW143123   6.623   9.212   0.798
80428SOL    HW243124   6.726   9.226   0.688
80429SOL     OW43125  13.949   4.559  12.013
80429SOL    HW143126  13.952   4.643  11.968
80429SOL    HW243127  13.898   4.576  12.092
80430SOL     OW43128   5.461   9.037   3.590
80430SOL    HW143129   5.496   9.118   3.627
80430SOL    HW243130   5.508   9.026   3.508
80431SOL     OW43131   8.029  12.493   3.959
80431SOL    HW143132   7.977  12.452   3.890
80431SOL    HW243133   7.973  12.491   4.036
80432SOL     OW43134  10.330   5.983   8.396
80432SOL    HW143135  10.354   6.074   8.415
80432SOL    HW243136  10.330   5.941   8.482
80433SOL     OW43137  12.158   6.143   5.484
80433SOL    HW143138  12.117   6.130   5.569
80433SOL    HW243139  12.172   6.238   5.479
80434SOL     OW43140  12.850   7.924  12.144
80434SOL    HW143141  12.809   7.951  12.226
80434SOL    HW243142  12.833   7.996  12.084
80435SOL     OW43143   2.464   6.159   2.270
80435SOL    HW143144   2.455   6.088   2.333
80435SOL    HW243145   2.539   6.210   2.300
80436SOL     OW43146   5.083   3.552   8.795
80436SOL    HW143147   5.078   3.644   8.824
80436SOL    HW243148   5.119   3.557   8.707
80437SOL     OW43149  13.157   5.626  14.823
80437SOL    HW143150  13.239   5.651  14.864
80437SOL    HW243151  13.165   5.654  14.732
80438SOL     OW43152   5.157   2.324   5.537
80438SOL    HW143153   5.200   2.406   5.511
80438SOL    HW243154   5.133   2.337   5.628
80439SOL     OW43155   0.556   4.334  10.494
80439SOL    HW143156   0.477   4.327  10.547
80439SOL    HW243157   0.548   4.264  10.429
80440SOL     OW43158   6.616   3.220  14.694
80440SOL    HW143159   6.706   3.192  14.706
80440SOL    HW243160   6.606   3.296  14.751
80441SOL     OW43161  14.465  14.294  11.285
80441SOL    HW143162  14.489  14.265  11.373
80441SOL    HW243163  14.396  14.234  11.258
80442SOL     OW43164  14.461   7.463   8.554
80442SOL    HW143165  14.440   7.500   8.639
80442SOL    HW243166  14.557   7.464   8.550
80443SOL     OW43167   2.404   0.527   3.975
80443SOL    HW143168   2.471   0.573   3.925
80443SOL    HW243169   2.384   0.585   4.048
80444SOL     OW43170   3.835   1.076   0.523
80444SOL    HW143171   3.817   1.140   0.592
80444SOL    HW243172   3.807   0.993   0.560
80445SOL     OW43173  14.424  11.428   3.485
80445SOL    HW143174  14.466  11.342   3.496
80445SOL    HW243175  14.355  11.429   3.552
80446SOL     OW43176   3.366  11.094   8.814
80446SOL    HW143177   3.322  11.133   8.739
80446SOL    HW243178   3.315  11.015   8.832
80447SOL     OW43179   9.296  12.511   9.328
80447SOL    HW143180   9.267  12.533   9.417
80447SOL    HW243181   9.289  12.415   9.324
80448SOL     OW43182   0.851   8.546  10.720
80448SOL    HW143183   0.799   8.604  10.664
80448SOL    HW243184   0.930   8.597  10.740
80449SOL     OW43185   4.454  12.073   7.377
80449SOL    HW143186   4.524  12.138   7.379
80449SOL    HW243187   4.470  12.019   7.455
80450SOL     OW43188   5.414  13.512  10.011
80450SOL    HW143189   5.359  13.580  10.050
80450SOL    HW243190   5.475  13.560   9.955
80451SOL     OW43191  12.315  14.441   1.205
80451SOL    HW143192  12.354  14.396   1.129
80451SOL    HW243193  12.265  14.373   1.250
80452SOL     OW43194   1.394   3.035   8.149
80452SOL    HW143195   1.370   3.083   8.070
80452SOL    HW243196   1.392   2.943   8.122
80453SOL     OW43197   3.853   7.564  11.354
80453SOL    HW143198   3.757   7.573  11.355
80453SOL    HW243199   3.880   7.589  11.443
80454SOL     OW43200  13.670   4.455   4.409
80454SOL    HW143201  13.661   4.361   4.396
80454SOL    HW243202  13.702   4.465   4.498
80455SOL     OW43203  10.972  12.287   7.874
80455SOL    HW143204  10.923  12.329   7.945
80455SOL    HW243205  10.966  12.350   7.802
80456SOL     OW43206   6.524   4.273   3.072
80456SOL    HW143207   6.572   4.192   3.052
80456SOL    HW243208   6.530   4.325   2.992
80457SOL     OW43209   4.019   8.530  13.152
80457SOL    HW143210   4.009   8.616  13.192
80457SOL    HW243211   4.103   8.534  13.106
80458SOL     OW43212  10.432  13.706   7.162
80458SOL    HW143213  10.495  13.655   7.213
80458SOL    HW243214  10.438  13.794   7.199
80459SOL     OW43215   0.869   2.529   1.187
80459SOL    HW143216   0.936   2.521   1.255
80459SOL    HW243217   0.786   2.515   1.233
80460SOL     OW43218   0.409  14.256   8.520
80460SOL    HW143219   0.344  14.213   8.575
80460SOL    HW243220   0.492  14.215   8.546
80461SOL     OW43221  13.782   7.874   7.101
80461SOL    HW143222  13.825   7.910   7.023
80461SOL    HW243223  13.790   7.944   7.167
80462SOL     OW43224  14.179  13.021   1.659
80462SOL    HW143225  14.093  13.030   1.702
80462SOL    HW243226  14.223  13.104   1.677
80463SOL     OW43227  14.766   2.105   4.609
80463SOL    HW143228  14.786   2.019   4.646
80463SOL    HW243229  14.803   2.102   4.521
80464SOL     OW43230   2.091   9.478   8.157
80464SOL    HW143231   2.020   9.503   8.215
80464SOL    HW243232   2.092   9.383   8.160
80465SOL     OW43233   6.550  10.743  13.802
80465SOL    HW143234   6.632  10.729  13.849
80465SOL    HW243235   6.523  10.655  13.775
80466SOL     OW43236   7.871  14.175  13.027
80466SOL    HW143237   7.895  14.195  12.936
80466SOL    HW243238   7.778  14.198  13.033
80467SOL     OW43239  10.537   6.546  11.288
80467SOL    HW143240  10.512   6.631  11.324
80467SOL    HW243241  10.535   6.487  11.364
80468SOL     OW43242   2.591   7.889   3.879
80468SOL    HW143243   2.604   7.974   3.922
80468SOL    HW243244   2.538   7.909   3.802
80469SOL     OW43245  14.576   3.734   1.407
80469SOL    HW143246  14.655   3.766   1.364
80469SOL    HW243247  14.609   3.684   1.482
80470SOL     OW43248   5.474   7.939  11.975
80470SOL    HW143249   5.490   7.952  11.882
80470SOL    HW243250   5.562   7.930  12.013
80471SOL     OW43251   2.413  14.637   4.178
80471SOL    HW143252   2.505  14.612   4.175
80471SOL    HW243253   2.408  14.702   4.248
80472SOL     OW43254   7.013   9.028   0.494
80472SOL    HW143255   7.028   8.973   0.418
80472SOL    HW243256   7.098   9.068   0.512
80473SOL     OW43257   2.995  12.114   1.969
80473SOL    HW143258   3.085  12.081   1.968
80473SOL    HW243259   2.942  12.036   1.953
80474SOL     OW43260   6.515   8.648  13.590
80474SOL    HW143261   6.509   8.729  13.539
80474SOL    HW243262   6.431   8.642  13.635
80475SOL     OW43263   8.396   2.417  12.570
80475SOL    HW143264   8.395   2.333  12.525
80475SOL    HW243265   8.488   2.443  12.573
80476SOL     OW43266  10.524   1.123  11.197
80476SOL    HW143267  10.556   1.175  11.124
80476SOL    HW243268  10.504   1.187  11.266
80477SOL     OW43269   6.345  10.685   0.322
80477SOL    HW143270   6.284  10.631   0.373
80477SOL    HW243271   6.367  10.758   0.381
80478SOL     OW43272   4.852   2.032   5.764
80478SOL    HW143273   4.812   1.958   5.810
80478SOL    HW243274   4.939   2.001   5.740
80479SOL     OW43275   1.275  12.111   2.803
80479SOL    HW143276   1.227  12.086   2.882
80479SOL    HW243277   1.334  12.181   2.832
80480SOL     OW43278   4.128   8.818   2.933
80480SOL    HW143279   4.175   8.814   2.849
80480SOL    HW243280   4.035   8.814   2.909
80481SOL     OW43281   5.975  10.709   8.009
80481SOL    HW143282   5.962  10.614   8.006
80481SOL    HW243283   6.051  10.724   7.952
80482SOL     OW43284  14.717   2.252   6.813
80482SOL    HW143285  14.639   2.202   6.838
80482SOL    HW243286  14.786   2.220   6.871
80483SOL     OW43287   9.235   6.432  11.763
80483SOL    HW143288   9.271   6.360  11.815
80483SOL    HW243289   9.192   6.388  11.689
80484SOL     OW43290  12.816  12.162  13.543
80484SOL    HW143291  12.881  12.151  13.475
80484SOL    HW243292  12.867  12.168  13.624
80485SOL     OW43293   6.396  11.825   8.533
80485SOL    HW143294   6.314  11.874   8.537
80485SOL    HW243295   6.432  11.830   8.621
80486SOL     OW43296  13.439  14.715  12.548
80486SOL    HW143297  13.367  14.773  12.574
80486SOL    HW243298  13.503  14.773  12.506
80487SOL     OW43299   3.491  14.725   3.892
80487SOL    HW143300   3.474  14.765   3.807
80487SOL    HW243301   3.451  14.638   3.886
80488SOL     OW43302   2.732  13.334   2.542
80488SOL    HW143303   2.769  13.385   2.469
80488SOL    HW243304   2.802  13.275   2.568
80489SOL     OW43305   9.234   3.912   5.879
80489SOL    HW143306   9.186   3.915   5.961
80489SOL    HW243307   9.300   3.844   5.893
80490SOL     OW43308  13.090  10.788  12.290
80490SOL    HW143309  13.030  10.861  12.305
80490SOL    HW243310  13.167  10.828  12.251
80491SOL     OW43311   5.115   6.723   9.674
80491SOL    HW143312   5.143   6.634   9.650
80491SOL    HW243313   5.189   6.779   9.650
80492SOL     OW43314   2.335   2.596   9.456
80492SOL    HW143315   2.333   2.691   9.469
80492SOL    HW243316   2.259   2.564   9.504
80493SOL     OW43317  14.378  14.281   6.617
80493SOL    HW143318  14.326  14.328   6.552
80493SOL    HW243319  14.322  14.276   6.694
80494SOL     OW43320   0.592  10.623   6.829
80494SOL    HW143321   0.569  10.605   6.738
80494SOL    HW243322   0.548  10.554   6.879
80495SOL     OW43323   6.538   7.313  11.849
80495SOL    HW143324   6.501   7.238  11.896
80495SOL    HW243325   6.537   7.384  11.913
80496SOL     OW43326  10.980   4.134   1.550
80496SOL    HW143327  11.069   4.104   1.567
80496SOL    HW243328  10.931   4.055   1.531
80497SOL     OW43329   3.374   4.676   9.431
80497SOL    HW143330   3.440   4.712   9.373
80497SOL    HW243331   3.303   4.649   9.373
80498SOL     OW43332  14.799  13.193   8.235
80498SOL    HW143333  14.727  13.173   8.174
80498SOL    HW243334  14.769  13.269   8.284
80499SOL     OW43335   6.396   2.583  13.109
80499SOL    HW143336   6.423   2.624  13.191
80499SOL    HW243337   6.465   2.605  13.046
80500SOL     OW43338   1.730   7.194   6.680
80500SOL    HW143339   1.781   7.126   6.635
80500SOL    HW243340   1.726   7.164   6.771
80501SOL     OW43341   0.061   6.024  13.552
80501SOL    HW143342   0.103   5.963  13.491
80501SOL    HW243343  14.867   5.975  13.586
80502SOL     OW43344  14.067  11.393  13.044
80502SOL    HW143345  14.071  11.457  12.973
80502SOL    HW243346  14.036  11.443  13.119
80503SOL     OW43347  10.038   3.851   0.233
80503SOL    HW143348  10.006   3.767   0.265
80503SOL    HW243349   9.959   3.904   0.220
80504SOL     OW43350   5.242   1.787  11.371
80504SOL    HW143351   5.153   1.759  11.393
80504SOL    HW243352   5.250   1.874  11.412
80505SOL     OW43353   0.716   7.859  13.245
80505SOL    HW143354   0.706   7.768  13.274
80505SOL    HW243355   0.696   7.856  13.151
80506SOL     OW43356   9.516  12.645   8.323
80506SOL    HW143357   9.546  12.711   8.384
80506SOL    HW243358   9.591  12.629   8.265
80507SOL     OW43359   4.769   8.728   4.176
80507SOL    HW143360   4.745   8.807   4.224
80507SOL    HW243361   4.691   8.673   4.180
80508SOL     OW43362   9.400   2.296  11.877
80508SOL    HW143363   9.469   2.336  11.931
80508SOL    HW243364   9.416   2.329  11.789
80509SOL     OW43365   9.797  10.223   8.765
80509SOL    HW143366   9.821  10.188   8.679
80509SOL    HW243367   9.702  10.210   8.770
80510SOL     OW43368   5.857   5.229  14.702
80510SOL    HW143369   5.842   5.147  14.749
80510SOL    HW243370   5.794   5.291  14.740
80511SOL     OW43371   1.926  10.440   7.722
80511SOL    HW143372   1.891  10.352   7.734
80511SOL    HW243373   1.857  10.487   7.677
80512SOL     OW43374   5.795  12.367   4.052
80512SOL    HW143375   5.784  12.275   4.073
80512SOL    HW243376   5.829  12.368   3.962
80513SOL     OW43377  14.351  12.354   7.055
80513SOL    HW143378  14.352  12.362   6.960
80513SOL    HW243379  14.335  12.443   7.087
80514SOL     OW43380   6.092   7.582   4.690
80514SOL    HW143381   6.098   7.491   4.721
80514SOL    HW243382   6.166   7.627   4.732
80515SOL     OW43383   9.073   1.400   7.449
80515SOL    HW143384   9.084   1.371   7.358
80515SOL    HW243385   8.989   1.446   7.450
80516SOL     OW43386   2.246   9.094  12.282
80516SOL    HW143387   2.214   9.005  12.294
80516SOL    HW243388   2.284   9.094  12.194
80517SOL     OW43389   6.073  11.750   8.320
80517SOL    HW143390   6.150  11.738   8.265
80517SOL    HW243391   6.004  11.778   8.259
80518SOL     OW43392   1.269   7.773  14.594
80518SOL    HW143393   1.233   7.861  14.608
80518SOL    HW243394   1.282   7.739  14.682
80519SOL     OW43395   0.217   6.567  13.390
80519SOL    HW143396   0.281   6.515  13.439
80519SOL    HW243397   0.212   6.524  13.305
80520SOL     OW43398   1.497  14.198  11.477
80520SOL    HW143399   1.587  14.222  11.456
80520SOL    HW243400   1.488  14.108  11.444
80521SOL     OW43401   2.187   5.959   9.882
80521SOL    HW143402   2.241   5.954   9.961
80521SOL    HW243403   2.126   5.886   9.891
80522SOL     OW43404   9.286   0.015   3.931
80522SOL    HW143405   9.260   0.105   3.915
80522SOL    HW243406   9.205  14.846   3.922
80523SOL     OW43407   9.620  13.487  14.526
80523SOL    HW143408   9.530  13.472  14.556
80523SOL    HW243409   9.610  13.518  14.436
80524SOL     OW43410   7.610   0.944  12.569
80524SOL    HW143411   7.601   0.880  12.640
80524SOL    HW243412   7.521   0.953  12.534
80525SOL     OW43413  11.331  13.739  13.643
80525SOL    HW143414  11.286  13.692  13.572
80525SOL    HW243415  11.347  13.826  13.609
80526SOL     OW43416  14.404  13.255   3.099
80526SOL    HW143417  14.470  13.188   3.112
80526SOL    HW243418  14.333  13.210   3.054
80527SOL     OW43419   4.260   3.013   8.135
80527SOL    HW143420   4.239   2.994   8.044
80527SOL    HW243421   4.314   2.939   8.163
80528SOL     OW43422  13.535   8.388  12.189
80528SOL    HW143423  13.457   8.336  12.170
80528SOL    HW243424  13.502   8.478  12.199
80529SOL     OW43425   9.006   0.387  11.049
80529SOL    HW143426   9.088   0.350  11.081
80529SOL    HW243427   8.939   0.355  11.109
80530SOL     OW43428   8.656   1.964   5.965
80530SOL    HW143429   8.649   1.887   5.908
80530SOL    HW243430   8.720   2.020   5.922
80531SOL     OW43431   6.722  11.354   5.558
80531SOL    HW143432   6.714  11.340   5.652
80531SOL    HW243433   6.654  11.418   5.537
80532SOL     OW43434   4.175  12.607   4.129
80532SOL    HW143435   4.165  12.615   4.034
80532SOL    HW243436   4.096  12.561   4.157
80533SOL     OW43437   1.117   6.744  13.590
80533SOL    HW143438   1.173   6.679  13.633
80533SOL    HW243439   1.172   6.822  13.584
80534SOL     OW43440   9.559  13.648   0.010
80534SOL    HW143441   9.554  13.704   0.088
80534SOL    HW243442   9.616  13.576   0.037
80535SOL     OW43443   1.170  13.419   2.679
80535SOL    HW143444   1.232  13.372   2.734
80535SOL    HW243445   1.135  13.353   2.619
80536SOL     OW43446   8.658   6.503  10.159
80536SOL    HW143447   8.582   6.453  10.130
80536SOL    HW243448   8.643   6.517  10.253
80537SOL     OW43449   7.674   0.484   2.509
80537SOL    HW143450   7.717   0.411   2.552
80537SOL    HW243451   7.582   0.460   2.506
80538SOL     OW43452   6.144   2.375   3.333
80538SOL    HW143453   6.189   2.341   3.411
80538SOL    HW243454   6.144   2.301   3.272
80539SOL     OW43455  12.143  10.242  12.075
80539SOL    HW143456  12.098  10.191  12.007
80539SOL    HW243457  12.103  10.215  12.157
80540SOL     OW43458   3.323   5.025   2.067
80540SOL    HW143459   3.382   4.994   1.998
80540SOL    HW243460   3.237   4.992   2.042
80541SOL     OW43461   3.803   6.102   1.311
80541SOL    HW143462   3.734   6.095   1.245
80541SOL    HW243463   3.884   6.111   1.260
80542SOL     OW43464   6.434  12.021   3.249
80542SOL    HW143465   6.526  12.038   3.228
80542SOL    HW243466   6.411  11.944   3.198
80543SOL     OW43467   9.877   6.878   4.818
80543SOL    HW143468   9.836   6.803   4.774
80543SOL    HW243469   9.834   6.955   4.782
80544SOL     OW43470   9.744  14.604  14.730
80544SOL    HW143471   9.805  14.583  14.659
80544SOL    HW243472   9.798  14.643  14.798
80545SOL     OW43473  13.087  13.054   3.336
80545SOL    HW143474  13.146  13.118   3.296
80545SOL    HW243475  13.135  13.020   3.412
80546SOL     OW43476   2.318   8.759  13.161
80546SOL    HW143477   2.284   8.673  13.181
80546SOL    HW243478   2.332   8.759  13.066
80547SOL     OW43479   8.728  11.514  13.796
80547SOL    HW143480   8.644  11.493  13.756
80547SOL    HW243481   8.772  11.569  13.731
80548SOL     OW43482  12.982  11.514   3.778
80548SOL    HW143483  12.913  11.448   3.774
80548SOL    HW243484  12.998  11.528   3.872
80549SOL     OW43485  12.115   0.292   8.499
80549SOL    HW143486  12.053   0.350   8.544
80549SOL    HW243487  12.191   0.291   8.557
80550SOL     OW43488   2.157  11.556  13.034
80550SOL    HW143489   2.192  11.484  12.981
80550SOL    HW243490   2.225  11.623  13.031
80551SOL     OW43491   1.196   2.334  10.273
80551SOL    HW143492   1.255   2.373  10.209
80551SOL    HW243493   1.192   2.241  10.249
80552SOL     OW43494   4.735   9.635   1.406
80552SOL    HW143495   4.782   9.701   1.457
80552SOL    HW243496   4.660   9.683   1.370
80553SOL     OW43497   7.812  14.444   1.767
80553SOL    HW143498   7.888  14.398   1.802
80553SOL    HW243499   7.739  14.416   1.823
80554SOL     OW43500   9.833   2.463   0.170
80554SOL    HW143501   9.911   2.493   0.216
80554SOL    HW243502   9.786   2.543   0.147
80555SOL     OW43503   9.990  11.050   5.529
80555SOL    HW143504  10.027  10.970   5.493
80555SOL    HW243505  10.065  11.106   5.548
80556SOL     OW43506   9.359   1.129   1.541
80556SOL    HW143507   9.318   1.177   1.613
80556SOL    HW243508   9.303   1.146   1.466
80557SOL     OW43509   2.244   8.738   2.927
80557SOL    HW143510   2.158   8.752   2.964
80557SOL    HW243511   2.278   8.826   2.911
80558SOL     OW43512   5.971   8.537  13.606
80558SOL    HW143513   5.986   8.557  13.514
80558SOL    HW243514   5.914   8.607  13.638
80559SOL     OW43515   3.332   1.035   0.633
80559SOL    HW143516   3.248   0.989   0.637
80559SOL    HW243517   3.329   1.098   0.705
80560SOL     OW43518  10.499   4.430   9.923
80560SOL    HW143519  10.555   4.506   9.909
80560SOL    HW243520  10.425   4.463   9.975
80561SOL     OW43521   9.245  10.931   3.714
80561SOL    HW143522   9.282  10.927   3.802
80561SOL    HW243523   9.161  10.887   3.721
80562SOL     OW43524   5.445   8.761   2.735
80562SOL    HW143525   5.526   8.812   2.727
80562SOL    HW243526   5.470   8.684   2.785
80563SOL     OW43527   2.874   0.490   1.455
80563SOL    HW143528   2.848   0.496   1.363
80563SOL    HW243529   2.795   0.463   1.501
80564SOL     OW43530  12.315  13.130   7.182
80564SOL    HW143531  12.374  13.206   7.182
80564SOL    HW243532  12.364  13.063   7.229
80565SOL     OW43533   7.979   1.268   7.373
80565SOL    HW143534   8.037   1.343   7.360
80565SOL    HW243535   7.910   1.280   7.309
80566SOL     OW43536   5.600   2.214   9.859
80566SOL    HW143537   5.685   2.187   9.893
80566SOL    HW243538   5.551   2.132   9.849
80567SOL     OW43539   7.071   3.193   8.034
80567SOL    HW143540   7.116   3.277   8.020
80567SOL    HW243541   6.983   3.217   8.064
80568SOL     OW43542   3.691   9.667  13.129
80568SOL    HW143543   3.675   9.752  13.171
80568SOL    HW243544   3.668   9.602  13.196
80569SOL     OW43545   3.062   3.724   0.343
80569SOL    HW143546   3.092   3.666   0.273
80569SOL    HW243547   3.061   3.669   0.421
80570SOL     OW43548  10.906   4.203   5.062
80570SOL    HW143549  10.909   4.199   4.967
80570SOL    HW243550  10.940   4.290   5.083
80571SOL     OW43551  14.540   5.116  11.584
80571SOL    HW143552  14.586   5.048  11.535
80571SOL    HW243553  14.449   5.109  11.555
80572SOL     OW43554  14.678   0.740  12.570
80572SOL    HW143555  14.688   0.672  12.636
80572SOL    HW243556  14.649   0.817  12.619
80573SOL     OW43557   8.877   9.721   7.315
80573SOL    HW143558   8.812   9.672   7.264
80573SOL    HW243559   8.961   9.679   7.292
80574SOL     OW43560   7.472  11.365   7.909
80574SOL    HW143561   7.483  11.275   7.880
80574SOL    HW243562   7.386  11.367   7.951
80575SOL     OW43563  14.344   9.893  10.693
80575SOL    HW143564  14.291   9.950  10.749
80575SOL    HW243565  14.311   9.805  10.710
80576SOL     OW43566   1.011   7.581   3.047
80576SOL    HW143567   1.039   7.490   3.036
80576SOL    HW243568   0.979   7.586   3.137
80577SOL     OW43569   7.185  10.862  14.706
80577SOL    HW143570   7.175  10.772  14.676
80577SOL    HW243571   7.143  10.864  14.792
80578SOL     OW43572   9.650  12.265   4.982
80578SOL    HW143573   9.710  12.222   4.922
80578SOL    HW243574   9.627  12.197   5.045
80579SOL     OW43575  13.315   3.327  10.324
80579SOL    HW143576  13.237   3.298  10.371
80579SOL    HW243577  13.289   3.329  10.232
80580SOL     OW43578  14.628   5.490   6.506
80580SOL    HW143579  14.576   5.426   6.457
80580SOL    HW243580  14.698   5.439   6.546
80581SOL     OW43581  14.119  11.301   1.751
80581SOL    HW143582  14.198  11.355   1.759
80581SOL    HW243583  14.066  11.345   1.685
80582SOL     OW43584  11.975   2.659   1.613
80582SOL    HW143585  12.063   2.697   1.619
80582SOL    HW243586  11.990   2.564   1.619
80583SOL     OW43587   1.651   1.809   1.393
80583SOL    HW143588   1.628   1.842   1.480
80583SOL    HW243589   1.583   1.844   1.335
80584SOL     OW43590   5.308  13.957   5.768
80584SOL    HW143591   5.327  13.865   5.750
80584SOL    HW243592   5.393  14.001   5.760
80585SOL     OW43593   2.218   4.352   8.421
80585SOL    HW143594   2.268   4.283   8.378
80585SOL    HW243595   2.266   4.370   8.501
80586SOL     OW43596   6.834   0.363  14.369
80586SOL    HW143597   6.911   0.417  14.352
80586SOL    HW243598   6.849   0.282  14.320
80587SOL     OW43599   4.879   1.619   6.362
80587SOL    HW143600   4.967   1.597   6.331
80587SOL    HW243601   4.882   1.601   6.456
80588SOL     OW43602  14.176   2.403   0.676
80588SOL    HW143603  14.166   2.495   0.653
80588SOL    HW243604  14.240   2.369   0.613
80589SOL     OW43605  12.682   0.087   1.623
80589SOL    HW143606  12.672   0.177   1.655
80589SOL    HW243607  12.598   0.065   1.584
80590SOL     OW43608  14.070  13.352  11.544
80590SOL    HW143609  13.997  13.346  11.481
80590SOL    HW243610  14.148  13.340  11.491
80591SOL     OW43611   5.943   0.729   3.160
80591SOL    HW143612   5.947   0.667   3.233
80591SOL    HW243613   6.035   0.743   3.135
80592SOL     OW43614   5.834   9.789   4.094
80592SOL    HW143615   5.805   9.870   4.137
80592SOL    HW243616   5.873   9.738   4.165
80593SOL     OW43617   8.539   4.452  13.344
80593SOL    HW143618   8.550   4.358  13.355
80593SOL    HW243619   8.563   4.489  13.428
80594SOL     OW43620   0.475   2.001  11.295
80594SOL    HW143621   0.483   1.953  11.213
80594SOL    HW243622   0.382   1.993  11.318
80595SOL     OW43623   7.439   1.865   9.211
80595SOL    HW143624   7.404   1.940   9.259
80595SOL    HW243625   7.442   1.794   9.276
80596SOL     OW43626   3.491   0.229   4.082
80596SOL    HW143627   3.584   0.250   4.089
80596SOL    HW243628   3.466   0.262   3.995
80597SOL     OW43629   6.744   4.363   9.180
80597SOL    HW143630   6.823   4.331   9.223
80597SOL    HW243631   6.672   4.326   9.231
80598SOL     OW43632  14.636   6.156   9.717
80598SOL    HW143633  14.646   6.251   9.711
80598SOL    HW243634  14.713   6.121   9.671
80599SOL     OW43635  10.917  12.196   4.181
80599SOL    HW143636  10.910  12.227   4.272
80599SOL    HW243637  10.991  12.245   4.145
80600SOL     OW43638   4.450   6.824   1.183
80600SOL    HW143639   4.407   6.755   1.133
80600SOL    HW243640   4.401   6.828   1.265
80601SOL     OW43641   5.230   7.878   3.217
80601SOL    HW143642   5.172   7.816   3.260
80601SOL    HW243643   5.266   7.830   3.142
80602SOL     OW43644   3.118   4.891  13.824
80602SOL    HW143645   3.034   4.868  13.863
80602SOL    HW243646   3.183   4.850  13.882
80603SOL     OW43647  14.323   1.152   5.337
80603SOL    HW143648  14.237   1.111   5.335
80603SOL    HW243649  14.341   1.175   5.246
80604SOL     OW43650  10.960   6.702   9.193
80604SOL    HW143651  10.998   6.718   9.279
80604SOL    HW243652  10.913   6.619   9.203
80605SOL     OW43653  12.350   2.837   0.893
80605SOL    HW143654  12.310   2.791   0.819
80605SOL    HW243655  12.340   2.778   0.967
80606SOL     OW43656   0.923   6.193   4.258
80606SOL    HW143657   0.875   6.112   4.276
80606SOL    HW243658   0.933   6.193   4.163
80607SOL     OW43659  11.480  14.144   7.675
80607SOL    HW143660  11.441  14.082   7.614
80607SOL    HW243661  11.407  14.173   7.730
80608SOL     OW43662   9.350   2.594  10.094
80608SOL    HW143663   9.403   2.523  10.130
80608SOL    HW243664   9.386   2.673  10.135
80609SOL     OW43665   3.690   8.822   3.818
80609SOL    HW143666   3.646   8.818   3.903
80609SOL    HW243667   3.751   8.749   3.819
80610SOL     OW43668   6.451   8.916   7.311
80610SOL    HW143669   6.478   8.901   7.220
80610SOL    HW243670   6.500   8.853   7.362
80611SOL     OW43671  11.876  14.244   4.107
80611SOL    HW143672  11.942  14.210   4.167
80611SOL    HW243673  11.811  14.173   4.100
80612SOL     OW43674   1.354   0.103   2.915
80612SOL    HW143675   1.265   0.099   2.952
80612SOL    HW243676   1.408   0.131   2.989
80613SOL     OW43677  14.329   5.556   6.638
80613SOL    HW143678  14.421   5.558   6.663
80613SOL    HW243679  14.315   5.467   6.605
80614SOL     OW43680   1.997   0.654   2.601
80614SOL    HW143681   2.037   0.569   2.619
80614SOL    HW243682   1.913   0.633   2.560
80615SOL     OW43683   7.872  14.719   9.698
80615SOL    HW143684   7.925  14.669   9.760
80615SOL    HW243685   7.935  14.772   9.649
80616SOL     OW43686   6.465  12.073   7.116
80616SOL    HW143687   6.510  12.115   7.189
80616SOL    HW243688   6.444  12.146   7.057
80617SOL     OW43689   1.863   6.654  13.379
80617SOL    HW143690   1.922   6.729  13.370
80617SOL    HW243691   1.776   6.690  13.360
80618SOL     OW43692  10.551  10.628  12.006
80618SOL    HW143693  10.579  10.681  11.931
80618SOL    HW243694  10.457  10.646  12.014
80619SOL     OW43695   5.648  10.150   8.460
80619SOL    HW143696   5.581  10.129   8.395
80619SOL    HW243697   5.720  10.092   8.440
80620SOL     OW43698  10.477   1.443  14.535
80620SOL    HW143699  10.482   1.523  14.483
80620SOL    HW243700  10.479   1.373  14.470
80621SOL     OW43701  12.668   1.863   0.431
80621SOL    HW143702  12.594   1.863   0.370
80621SOL    HW243703  12.741   1.900   0.381
80622SOL     OW43704   8.739   6.364   0.574
80622SOL    HW143705   8.783   6.314   0.643
80622SOL    HW243706   8.789   6.345   0.495
80623SOL     OW43707   0.325   8.694   9.510
80623SOL    HW143708   0.305   8.670   9.419
80623SOL    HW243709   0.378   8.621   9.542
80624SOL     OW43710   3.974  11.462   1.651
80624SOL    HW143711   4.026  11.386   1.626
80624SOL    HW243712   3.953  11.505   1.567
80625SOL     OW43713   4.197   7.606  14.058
80625SOL    HW143714   4.214   7.656  13.978
80625SOL    HW243715   4.177   7.518  14.027
80626SOL     OW43716  14.864   7.888   7.471
80626SOL    HW143717  14.849   7.847   7.556
80626SOL    HW243718   0.052   7.835   7.431
80627SOL     OW43719   9.000   5.078   7.282
80627SOL    HW143720   9.004   4.997   7.231
80627SOL    HW243721   8.986   5.146   7.217
80628SOL     OW43722  10.643   4.491  11.055
80628SOL    HW143723  10.629   4.427  10.985
80628SOL    HW243724  10.669   4.438  11.131
80629SOL     OW43725   5.286   1.741   2.384
80629SOL    HW143726   5.366   1.709   2.342
80629SOL    HW243727   5.245   1.797   2.318
80630SOL     OW43728   7.467  10.319   2.472
80630SOL    HW143729   7.540  10.341   2.530
80630SOL    HW243730   7.408  10.394   2.479
80631SOL     OW43731  12.608  10.943  10.074
80631SOL    HW143732  12.679  10.991  10.032
80631SOL    HW243733  12.599  10.864  10.021
80632SOL     OW43734   1.071   0.949   2.281
80632SOL    HW143735   1.039   0.871   2.235
80632SOL    HW243736   0.999   1.012   2.274
80633SOL     OW43737  12.806  10.259   6.653
80633SOL    HW143738  12.738  10.218   6.600
80633SOL    HW243739  12.873  10.285   6.590
80634SOL     OW43740   5.724  14.440   4.592
80634SOL    HW143741   5.755  14.498   4.523
80634SOL    HW243742   5.795  14.376   4.603
80635SOL     OW43743  11.781  11.106   0.876
80635SOL    HW143744  11.793  11.198   0.856
80635SOL    HW243745  11.688  11.098   0.899
80636SOL     OW43746   0.423  14.613  14.613
80636SOL    HW143747   0.399  14.538  14.667
80636SOL    HW243748   0.350  14.674  14.623
80637SOL     OW43749   7.124  12.169   2.742
80637SOL    HW143750   7.073  12.107   2.690
80637SOL    HW243751   7.078  12.252   2.733
80638SOL     OW43752  12.049  13.040   8.957
80638SOL    HW143753  11.969  12.991   8.938
80638SOL    HW243754  12.094  13.046   8.873
80639SOL     OW43755   3.703  11.434   4.375
80639SOL    HW143756   3.665  11.389   4.450
80639SOL    HW243757   3.638  11.423   4.305
80640SOL     OW43758  12.654   5.724   8.042
80640SOL    HW143759  12.746   5.726   8.015
80640SOL    HW243760  12.649   5.790   8.112
80641SOL     OW43761   9.168   9.343  13.287
80641SOL    HW143762   9.193   9.269  13.232
80641SOL    HW243763   9.158   9.416  13.226
80642SOL     OW43764  13.522  12.415  14.125
80642SOL    HW143765  13.515  12.456  14.039
80642SOL    HW243766  13.433  12.384  14.144
80643SOL     OW43767   1.199  12.418   8.642
80643SOL    HW143768   1.268  12.378   8.695
80643SOL    HW243769   1.245  12.452   8.565
80644SOL     OW43770   7.936   4.330   9.244
80644SOL    HW143771   8.029   4.312   9.262
80644SOL    HW243772   7.938   4.402   9.180
80645SOL     OW43773   9.358  13.971  12.779
80645SOL    HW143774   9.379  14.063  12.792
80645SOL    HW243775   9.434  13.935  12.733
80646SOL     OW43776   1.322   8.893  12.149
80646SOL    HW143777   1.323   8.981  12.186
80646SOL    HW243778   1.410   8.881  12.114
80647SOL     OW43779  14.683   6.366  10.743
80647SOL    HW143780  14.751   6.299  10.745
80647SOL    HW243781  14.640   6.354  10.658
80648SOL     OW43782  11.526  12.443   2.350
80648SOL    HW143783  11.467  12.442   2.274
80648SOL    HW243784  11.595  12.380   2.327
80649SOL     OW43785  13.967  13.638  10.942
80649SOL    HW143786  14.015  13.693  11.004
80649SOL    HW243787  14.034  13.608  10.880
80650SOL     OW43788  14.249   5.884  14.297
80650SOL    HW143789  14.331   5.919  14.331
80650SOL    HW243790  14.273   5.845  14.213
80651SOL     OW43791   7.438  12.724  13.147
80651SOL    HW143792   7.468  12.812  13.168
80651SOL    HW243793   7.371  12.736  13.080
80652SOL     OW43794   6.920   2.203  10.053
80652SOL    HW143795   6.976   2.210   9.976
80652SOL    HW243796   6.873   2.286  10.056
80653SOL     OW43797   6.905   1.998   9.020
80653SOL    HW143798   6.839   1.933   8.995
80653SOL    HW243799   6.984   1.971   8.974
80654SOL     OW43800   3.324   3.928  10.813
80654SOL    HW143801   3.358   4.005  10.859
80654SOL    HW243802   3.264   3.964  10.748
80655SOL     OW43803  12.328   9.599  12.366
80655SOL    HW143804  12.340   9.530  12.301
80655SOL    HW243805  12.233   9.607  12.376
80656SOL     OW43806  12.784   1.396   5.377
80656SOL    HW143807  12.804   1.488   5.359
80656SOL    HW243808  12.708   1.399   5.434
80657SOL     OW43809   1.891  14.318   4.736
80657SOL    HW143810   1.928  14.248   4.683
80657SOL    HW243811   1.797  14.312   4.723
80658SOL     OW43812   8.735   4.058   6.631
80658SOL    HW143813   8.710   4.144   6.597
80658SOL    HW243814   8.692   3.996   6.573
80659SOL     OW43815   0.511  10.873   5.927
80659SOL    HW143816   0.448  10.939   5.899
80659SOL    HW243817   0.591  10.893   5.877
80660SOL     OW43818   0.368  10.633   9.337
80660SOL    HW143819   0.394  10.541   9.326
80660SOL    HW243820   0.289  10.642   9.284
80661SOL     OW43821   8.363  11.221  13.980
80661SOL    HW143822   8.337  11.311  13.960
80661SOL    HW243823   8.323  11.202  14.065
80662SOL     OW43824   6.205   6.308  14.326
80662SOL    HW143825   6.278   6.299  14.265
80662SOL    HW243826   6.208   6.227  14.378
80663SOL     OW43827   5.209  12.538   6.218
80663SOL    HW143828   5.188  12.445   6.224
80663SOL    HW243829   5.288  12.541   6.164
80664SOL     OW43830  14.088   7.589   8.765
80664SOL    HW143831  14.058   7.529   8.833
80664SOL    HW243832  14.182   7.573   8.759
80665SOL     OW43833   5.327  12.955  11.065
80665SOL    HW143834   5.339  12.870  11.022
80665SOL    HW243835   5.399  12.961  11.128
80666SOL     OW43836  14.245   2.682  12.667
80666SOL    HW143837  14.336   2.676  12.638
80666SOL    HW243838  14.234   2.774  12.691
80667SOL     OW43839  11.053   9.577   2.587
80667SOL    HW143840  11.062   9.581   2.682
80667SOL    HW243841  10.995   9.650   2.565
80668SOL     OW43842  13.404   6.176  14.367
80668SOL    HW143843  13.436   6.224  14.291
80668SOL    HW243844  13.356   6.242  14.418
80669SOL     OW43845   6.381   8.888  14.565
80669SOL    HW143846   6.463   8.856  14.603
80669SOL    HW243847   6.358   8.964  14.619
80670SOL     OW43848   8.960  14.682   6.459
80670SOL    HW143849   9.018  14.615   6.423
80670SOL    HW243850   8.969  14.673   6.554
80671SOL     OW43851   7.594  10.262   0.035
80671SOL    HW143852   7.508  10.256  14.876
80671SOL    HW243853   7.600  10.184   0.090
80672SOL     OW43854   0.598  14.002   5.122
80672SOL    HW143855   0.652  14.003   5.201
80672SOL    HW243856   0.551  14.086   5.124
80673SOL     OW43857   4.429   5.058  13.607
80673SOL    HW143858   4.339   5.084  13.591
80673SOL    HW243859   4.473   5.069  13.523
80674SOL     OW43860   8.021  11.421  14.151
80674SOL    HW143861   7.999  11.387  14.065
80674SOL    HW243862   8.007  11.348  14.211
80675SOL     OW43863   5.208   2.248   5.082
80675SOL    HW143864   5.178   2.211   5.165
80675SOL    HW243865   5.166   2.194   5.015
80676SOL     OW43866  11.276   8.534   7.810
80676SOL    HW143867  11.187   8.500   7.799
80676SOL    HW243868  11.264   8.624   7.840
80677SOL     OW43869  11.842  10.445   6.551
80677SOL    HW143870  11.798  10.503   6.614
80677SOL    HW243871  11.925  10.489   6.533
80678SOL     OW43872  13.071  14.353   6.475
80678SOL    HW143873  12.989  14.306   6.495
80678SOL    HW243874  13.056  14.442   6.508
80679SOL     OW43875  12.325   7.924   9.306
80679SOL    HW143876  12.389   7.883   9.247
80679SOL    HW243877  12.349   8.017   9.305
80680SOL     OW43878   1.158   7.825   7.607
80680SOL    HW143879   1.185   7.802   7.696
80680SOL    HW243880   1.233   7.800   7.553
80681SOL     OW43881  11.972   8.170   6.984
80681SOL    HW143882  11.994   8.262   6.996
80681SOL    HW243883  12.054   8.129   6.956
80682SOL     OW43884  13.039  13.120   3.799
80682SOL    HW143885  13.105  13.140   3.864
80682SOL    HW243886  12.958  13.155   3.836
80683SOL     OW43887   3.136   4.007  10.333
80683SOL    HW143888   3.060   4.016  10.275
80683SOL    HW243889   3.202   4.065  10.296
80684SOL     OW43890  14.411  14.446   7.636
80684SOL    HW143891  14.419  14.373   7.697
80684SOL    HW243892  14.330  14.428   7.588
80685SOL     OW43893  12.594  14.600   1.286
80685SOL    HW143894  12.578  14.622   1.378
80685SOL    HW243895  12.618  14.683   1.245
80686SOL     OW43896  12.731   9.428   5.620
80686SOL    HW143897  12.683   9.448   5.701
80686SOL    HW243898  12.769   9.511   5.594
80687SOL     OW43899   8.882   0.374   6.772
80687SOL    HW143900   8.964   0.415   6.745
80687SOL    HW243901   8.862   0.415   6.856
80688SOL     OW43902   6.259   7.759   7.864
80688SOL    HW143903   6.202   7.825   7.824
80688SOL    HW243904   6.209   7.725   7.938
80689SOL     OW43905  10.843   2.101  12.113
80689SOL    HW143906  10.823   2.183  12.158
80689SOL    HW243907  10.874   2.127  12.027
80690SOL     OW43908  13.231   5.042   5.270
80690SOL    HW143909  13.251   5.051   5.177
80690SOL    HW243910  13.307   5.077   5.315
80691SOL     OW43911   2.942   5.328   4.197
80691SOL    HW143912   2.891   5.285   4.128
80691SOL    HW243913   2.937   5.268   4.271
80692SOL     OW43914   0.578  14.761   2.769
80692SOL    HW143915   0.530  14.713   2.702
80692SOL    HW243916   0.516  14.773   2.840
80693SOL     OW43917   9.324   8.095  11.244
80693SOL    HW143918   9.259   8.166  11.249
80693SOL    HW243919   9.290   8.027  11.302
80694SOL     OW43920   7.229   9.389  11.604
80694SOL    HW143921   7.255   9.379  11.696
80694SOL    HW243922   7.294   9.338  11.555
80695SOL     OW43923  11.752  13.572   7.542
80695SOL    HW143924  11.733  13.665   7.533
80695SOL    HW243925  11.764  13.558   7.636
80696SOL     OW43926   6.688  12.113   3.185
80696SOL    HW143927   6.733  12.152   3.110
80696SOL    HW243928   6.708  12.171   3.258
80697SOL     OW43929  14.227   9.088   3.729
80697SOL    HW143930  14.310   9.082   3.776
80697SOL    HW243931  14.172   9.021   3.767
80698SOL     OW43932   8.629   9.571  10.520
80698SOL    HW143933   8.586   9.525  10.448
80698SOL    HW243934   8.597   9.527  10.599
80699SOL     OW43935   8.162   9.718  13.131
80699SOL    HW143936   8.082   9.691  13.086
80699SOL    HW243937   8.203   9.636  13.159
80700SOL     OW43938   5.078   5.773   4.575
80700SOL    HW143939   5.129   5.727   4.509
80700SOL    HW243940   5.142   5.824   4.624
80701SOL     OW43941  13.034   3.061  12.332
80701SOL    HW143942  13.045   3.121  12.405
80701SOL    HW243943  13.069   3.109  12.256
80702SOL     OW43944   6.621   4.776   7.490
80702SOL    HW143945   6.550   4.741   7.544
80702SOL    HW243946   6.582   4.789   7.403
80703SOL     OW43947   2.480  11.825   6.615
80703SOL    HW143948   2.459  11.780   6.534
80703SOL    HW243949   2.395  11.841   6.657
80704SOL     OW43950   5.752   9.350   1.986
80704SOL    HW143951   5.725   9.353   1.894
80704SOL    HW243952   5.738   9.259   2.012
80705SOL     OW43953   1.797   3.878   4.120
80705SOL    HW143954   1.889   3.851   4.118
80705SOL    HW243955   1.753   3.809   4.170
80706SOL     OW43956  11.293   7.706  13.654
80706SOL    HW143957  11.293   7.670  13.565
80706SOL    HW243958  11.242   7.645  13.705
80707SOL     OW43959  13.467   9.712  12.189
80707SOL    HW143960  13.535   9.780  12.182
80707SOL    HW243961  13.515   9.634  12.216
80708SOL     OW43962   4.650   1.600   3.655
80708SOL    HW143963   4.715   1.645   3.602
80708SOL    HW243964   4.566   1.632   3.622
80709SOL     OW43965   6.517  11.212   0.270
80709SOL    HW143966   6.564  11.139   0.310
80709SOL    HW243967   6.460  11.170   0.205
80710SOL     OW43968   0.701   1.654  13.558
80710SOL    HW143969   0.755   1.577  13.580
80710SOL    HW243970   0.727   1.676  13.468
80711SOL     OW43971   4.874   8.763   5.914
80711SOL    HW143972   4.867   8.693   5.849
80711SOL    HW243973   4.841   8.841   5.869
80712SOL     OW43974  13.857   7.523  10.265
80712SOL    HW143975  13.947   7.553  10.280
80712SOL    HW243976  13.814   7.596  10.222
80713SOL     OW43977   9.629   8.576  11.445
80713SOL    HW143978   9.717   8.542  11.432
80713SOL    HW243979   9.619   8.643  11.376
80714SOL     OW43980   9.075   6.540   2.256
80714SOL    HW143981   9.068   6.523   2.162
80714SOL    HW243982   9.107   6.630   2.261
80715SOL     OW43983   4.823   4.740   5.292
80715SOL    HW143984   4.888   4.758   5.360
80715SOL    HW243985   4.812   4.822   5.246
80716SOL     OW43986   2.510   4.969   7.450
80716SOL    HW143987   2.439   4.970   7.515
80716SOL    HW243988   2.585   5.008   7.496
80717SOL     OW43989  10.769   5.772   1.224
80717SOL    HW143990  10.719   5.853   1.235
80717SOL    HW243991  10.729   5.728   1.149
80718SOL     OW43992   2.444  11.524   7.081
80718SOL    HW143993   2.494  11.603   7.059
80718SOL    HW243994   2.400  11.501   7.000
80719SOL     OW43995   8.921   2.310  11.923
80719SOL    HW143996   8.834   2.348  11.921
80719SOL    HW243997   8.907   2.219  11.950
80720SOL     OW43998   4.181   3.652  14.097
80720SOL    HW143999   4.251   3.664  14.161
80720SOL    HW244000   4.186   3.559  14.073
80721SOL     OW44001   3.581  13.575  12.664
80721SOL    HW144002   3.579  13.640  12.594
80721SOL    HW244003   3.643  13.509  12.634
80722SOL     OW44004   4.321  11.007   2.723
80722SOL    HW144005   4.347  10.924   2.763
80722SOL    HW244006   4.404  11.047   2.695
80723SOL     OW44007   9.341   3.207   6.899
80723SOL    HW144008   9.383   3.291   6.917
80723SOL    HW244009   9.301   3.182   6.982
80724SOL     OW44010   1.737   7.907   7.572
80724SOL    HW144011   1.684   7.986   7.558
80724SOL    HW244012   1.803   7.934   7.636
80725SOL     OW44013   5.378   8.174  13.343
80725SOL    HW144014   5.442   8.203  13.278
80725SOL    HW244015   5.294   8.181  13.298
80726SOL     OW44016   2.647  10.792  10.509
80726SOL    HW144017   2.714  10.736  10.471
80726SOL    HW244018   2.618  10.848  10.437
80727SOL     OW44019   4.161   0.158   9.773
80727SOL    HW144020   4.136   0.102   9.847
80727SOL    HW244021   4.100   0.134   9.704
80728SOL     OW44022   6.918   7.234   8.113
80728SOL    HW144023   6.924   7.149   8.070
80728SOL    HW244024   6.895   7.294   8.042
80729SOL     OW44025  13.626   8.459   7.556
80729SOL    HW144026  13.601   8.376   7.516
80729SOL    HW244027  13.649   8.515   7.481
80730SOL     OW44028   2.208  13.208   1.789
80730SOL    HW144029   2.282  13.148   1.785
80730SOL    HW244030   2.139  13.166   1.737
80731SOL     OW44031   6.409   6.243   5.261
80731SOL    HW144032   6.424   6.158   5.219
80731SOL    HW244033   6.326   6.232   5.307
80732SOL     OW44034  10.245   8.322  13.652
80732SOL    HW144035  10.279   8.285  13.571
80732SOL    HW244036  10.253   8.417  13.639
80733SOL     OW44037   9.215   6.426  13.127
80733SOL    HW144038   9.307   6.433  13.153
80733SOL    HW244039   9.181   6.515  13.136
80734SOL     OW44040   9.309   4.911   5.844
80734SOL    HW144041   9.234   4.966   5.822
80734SOL    HW244042   9.371   4.970   5.887
80735SOL     OW44043  13.581   8.402   2.259
80735SOL    HW144044  13.629   8.343   2.201
80735SOL    HW244045  13.648   8.437   2.319
80736SOL     OW44046  13.140   8.665  11.798
80736SOL    HW144047  13.202   8.707  11.739
80736SOL    HW244048  13.102   8.737  11.848
80737SOL     OW44049  10.260  11.324   5.015
80737SOL    HW144050  10.238  11.401   5.068
80737SOL    HW244051  10.334  11.353   4.961
80738SOL     OW44052   3.173  11.865   1.247
80738SOL    HW144053   3.176  11.793   1.184
80738SOL    HW244054   3.260  11.864   1.288
80739SOL     OW44055   4.117   7.450   7.655
80739SOL    HW144056   4.137   7.383   7.720
80739SOL    HW244057   4.087   7.525   7.707
80740SOL     OW44058   2.696  13.839   3.111
80740SOL    HW144059   2.648  13.906   3.062
80740SOL    HW244060   2.678  13.758   3.064
80741SOL     OW44061   5.572  14.096  12.038
80741SOL    HW144062   5.539  14.186  12.041
80741SOL    HW244063   5.541  14.062  11.954
80742SOL     OW44064   3.405   8.313   0.955
80742SOL    HW144065   3.449   8.363   1.023
80742SOL    HW244066   3.356   8.246   1.002
80743SOL     OW44067  13.182   7.801   5.602
80743SOL    HW144068  13.246   7.764   5.542
80743SOL    HW244069  13.098   7.766   5.573
80744SOL     OW44070   1.621   8.069   5.731
80744SOL    HW144071   1.674   8.009   5.783
80744SOL    HW244072   1.645   8.049   5.640
80745SOL     OW44073   1.963   9.181   5.896
80745SOL    HW144074   1.983   9.150   5.808
80745SOL    HW244075   2.036   9.151   5.950
80746SOL     OW44076  14.504  12.852  13.036
80746SOL    HW144077  14.456  12.808  12.965
80746SOL    HW244078  14.478  12.804  13.115
80747SOL     OW44079  14.013  11.094  11.548
80747SOL    HW144080  14.027  11.155  11.476
80747SOL    HW244081  13.922  11.067  11.540
80748SOL     OW44082   8.686   8.383  13.408
80748SOL    HW144083   8.645   8.441  13.472
80748SOL    HW244084   8.627   8.309  13.400
80749SOL     OW44085   4.027  11.279  12.969
80749SOL    HW144086   4.066  11.244  12.889
80749SOL    HW244087   4.092  11.339  13.004
80750SOL     OW44088  14.694   2.898   3.634
80750SOL    HW144089  14.602   2.918   3.649
80750SOL    HW244090  14.705   2.903   3.539
80751SOL     OW44091   8.056   3.671  11.772
80751SOL    HW144092   8.149   3.687  11.761
80751SOL    HW244093   8.047   3.576  11.763
80752SOL     OW44094   1.316  13.134   0.159
80752SOL    HW144095   1.294  13.062   0.218
80752SOL    HW244096   1.261  13.119   0.082
80753SOL     OW44097   6.864  10.774  12.014
80753SOL    HW144098   6.886  10.692  12.059
80753SOL    HW244099   6.946  10.823  12.012
80754SOL     OW44100  14.496   2.423  10.796
80754SOL    HW144101  14.528   2.511  10.776
80754SOL    HW244102  14.432   2.405  10.727
80755SOL     OW44103   3.923   0.663  14.459
80755SOL    HW144104   3.947   0.665  14.366
80755SOL    HW244105   3.902   0.754  14.480
80756SOL     OW44106   1.395  13.961   2.047
80756SOL    HW144107   1.476  13.929   2.007
80756SOL    HW244108   1.413  13.958   2.141
80757SOL     OW44109   8.638   4.466  12.485
80757SOL    HW144110   8.723   4.423  12.484
80757SOL    HW244111   8.658   4.559  12.494
80758SOL     OW44112   8.164   0.989   9.703
80758SOL    HW144113   8.119   1.033   9.775
80758SOL    HW244114   8.123   0.903   9.699
80759SOL     OW44115   2.094   0.185  14.654
80759SOL    HW144116   2.162   0.128  14.618
80759SOL    HW244117   2.096   0.263  14.598
80760SOL     OW44118  12.236   5.526   8.714
80760SOL    HW144119  12.179   5.455   8.744
80760SOL    HW244120  12.176   5.598   8.694
80761SOL     OW44121  12.651   2.914   6.648
80761SOL    HW144122  12.649   2.820   6.662
80761SOL    HW244123  12.744   2.936   6.641
80762SOL     OW44124   9.868   6.040   3.884
80762SOL    HW144125   9.896   6.080   3.966
80762SOL    HW244126   9.777   6.013   3.900
80763SOL     OW44127   0.710   6.351   1.016
80763SOL    HW144128   0.776   6.326   1.080
80763SOL    HW244129   0.759   6.364   0.935
80764SOL     OW44130  14.549   1.569   2.571
80764SOL    HW144131  14.564   1.574   2.477
80764SOL    HW244132  14.454   1.573   2.581
80765SOL     OW44133  12.739   2.539   7.720
80765SOL    HW144134  12.766   2.627   7.745
80765SOL    HW244135  12.730   2.542   7.625
80766SOL     OW44136   0.973  13.823  10.247
80766SOL    HW144137   0.973  13.740  10.294
80766SOL    HW244138   0.904  13.875  10.288
80767SOL     OW44139   7.818   0.556   6.296
80767SOL    HW144140   7.878   0.606   6.351
80767SOL    HW244141   7.844   0.465   6.308
80768SOL     OW44142   8.399   1.367   2.118
80768SOL    HW144143   8.461   1.362   2.046
80768SOL    HW244144   8.327   1.421   2.084
80769SOL     OW44145   8.143   1.916   2.793
80769SOL    HW144146   8.124   2.005   2.823
80769SOL    HW244147   8.126   1.861   2.870
80770SOL     OW44148   1.890   3.238   6.022
80770SOL    HW144149   1.902   3.327   6.054
80770SOL    HW244150   1.932   3.182   6.088
80771SOL     OW44151  13.395   9.306  10.228
80771SOL    HW144152  13.397   9.400  10.206
80771SOL    HW244153  13.302   9.282  10.224
80772SOL     OW44154   1.013   6.433   6.987
80772SOL    HW144155   0.945   6.423   6.920
80772SOL    HW244156   1.092   6.398   6.946
80773SOL     OW44157  12.035   6.298   0.805
80773SOL    HW144158  12.102   6.232   0.788
80773SOL    HW244159  11.954   6.260   0.770
80774SOL     OW44160   1.682   5.502  13.165
80774SOL    HW144161   1.654   5.422  13.120
80774SOL    HW244162   1.774   5.511  13.141
80775SOL     OW44163   2.621   8.712  14.288
80775SOL    HW144164   2.667   8.762  14.355
80775SOL    HW244165   2.542   8.763  14.270
80776SOL     OW44166  12.187   8.010   3.581
80776SOL    HW144167  12.156   7.999   3.671
80776SOL    HW244168  12.195   8.105   3.570
80777SOL     OW44169   9.236  12.266   9.840
80777SOL    HW144170   9.268  12.181   9.808
80777SOL    HW244171   9.308  12.299   9.895
80778SOL     OW44172   9.330   0.078   5.931
80778SOL    HW144173   9.340   0.143   6.001
80778SOL    HW244174   9.335  14.876   5.976
80779SOL     OW44175   9.370   6.320   7.893
80779SOL    HW144176   9.319   6.356   7.965
80779SOL    HW244177   9.402   6.397   7.845
80780SOL     OW44178   3.073  12.143  14.201
80780SOL    HW144179   3.103  12.128  14.111
80780SOL    HW244180   2.998  12.201  14.192
80781SOL     OW44181  10.489   1.285  13.290
80781SOL    HW144182  10.552   1.287  13.218
80781SOL    HW244183  10.515   1.209  13.343
80782SOL     OW44184   2.880   1.184  11.524
80782SOL    HW144185   2.886   1.255  11.587
80782SOL    HW244186   2.936   1.115  11.559
80783SOL     OW44187  12.855   5.829   0.545
80783SOL    HW144188  12.869   5.907   0.492
80783SOL    HW244189  12.788   5.780   0.499
80784SOL     OW44190   6.582   2.228   8.038
80784SOL    HW144191   6.548   2.151   8.084
80784SOL    HW244192   6.601   2.291   8.107
80785SOL     OW44193   1.299   1.771  12.935
80785SOL    HW144194   1.306   1.710  12.863
80785SOL    HW244195   1.374   1.830  12.926
80786SOL     OW44196   2.110   0.507   8.716
80786SOL    HW144197   2.166   0.584   8.710
80786SOL    HW244198   2.163   0.436   8.681
80787SOL     OW44199   5.422   7.283   7.021
80787SOL    HW144200   5.355   7.229   6.978
80787SOL    HW244201   5.387   7.301   7.108
80788SOL     OW44202   0.388  10.047   6.963
80788SOL    HW144203   0.301  10.011   6.946
80788SOL    HW244204   0.449   9.981   6.929
80789SOL     OW44205   6.725   4.973   8.670
80789SOL    HW144206   6.771   4.893   8.695
80789SOL    HW244207   6.703   4.961   8.578
80790SOL     OW44208   3.723  12.078   2.997
80790SOL    HW144209   3.698  12.170   3.000
80790SOL    HW244210   3.648  12.034   2.957
80791SOL     OW44211  11.314   8.487   2.979
80791SOL    HW144212  11.278   8.466   2.893
80791SOL    HW244213  11.368   8.412   3.002
80792SOL     OW44214   4.973  12.381   5.987
80792SOL    HW144215   5.013  12.466   5.969
80792SOL    HW244216   5.037  12.317   5.957
80793SOL     OW44217   7.375   1.111   4.487
80793SOL    HW144218   7.293   1.129   4.442
80793SOL    HW244219   7.375   1.016   4.500
80794SOL     OW44220  13.632  11.141   4.225
80794SOL    HW144221  13.548  11.186   4.240
80794SOL    HW244222  13.653  11.160   4.134
80795SOL     OW44223   4.142   0.871  14.038
80795SOL    HW144224   4.124   0.875  13.944
80795SOL    HW244225   4.236   0.887  14.045
80796SOL     OW44226   9.971  13.276  11.689
80796SOL    HW144227  10.054  13.242  11.723
80796SOL    HW244228   9.958  13.358  11.736
80797SOL     OW44229   0.163   5.979   9.833
80797SOL    HW144230   0.221   5.921   9.784
80797SOL    HW244231   0.130   5.925   9.905
80798SOL     OW44232  12.830   9.852   8.600
80798SOL    HW144233  12.758   9.792   8.617
80798SOL    HW244234  12.885   9.808   8.535
80799SOL     OW44235   8.510  14.418   5.456
80799SOL    HW144236   8.592  14.466   5.453
80799SOL    HW244237   8.536  14.326   5.454
80800SOL     OW44238   1.366  12.485   4.011
80800SOL    HW144239   1.276  12.517   4.021
80800SOL    HW244240   1.356  12.391   3.998
80801SOL     OW44241   8.121   9.014  14.839
80801SOL    HW144242   8.075   8.943  14.795
80801SOL    HW244243   8.192   9.037  14.779
80802SOL     OW44244  13.310   0.470   8.426
80802SOL    HW144245  13.358   0.389   8.444
80802SOL    HW244246  13.258   0.450   8.349
80803SOL     OW44247   7.996   4.329   7.444
80803SOL    HW144248   8.001   4.378   7.527
80803SOL    HW244249   7.998   4.397   7.377
80804SOL     OW44250   0.339   5.790   8.378
80804SOL    HW144251   0.401   5.776   8.306
80804SOL    HW244252   0.384   5.850   8.437
80805SOL     OW44253  14.712  14.051  12.295
80805SOL    HW144254  14.648  14.026  12.229
80805SOL    HW244255  14.791  14.071  12.244
80806SOL     OW44256  11.674  12.361   5.221
80806SOL    HW144257  11.700  12.321   5.304
80806SOL    HW244258  11.717  12.447   5.222
80807SOL     OW44259   9.038   6.723  14.273
80807SOL    HW144260   9.055   6.745  14.182
80807SOL    HW244261   9.078   6.795  14.323
80808SOL     OW44262   4.279   0.036  14.822
80808SOL    HW144263   4.268  14.826  14.849
80808SOL    HW244264   4.193   0.075  14.838
80809SOL     OW44265   2.280   7.819   2.202
80809SOL    HW144266   2.356   7.876   2.190
80809SOL    HW244267   2.206   7.879   2.208
80810SOL     OW44268  14.611  13.424   5.085
80810SOL    HW144269  14.653  13.394   5.165
80810SOL    HW244270  14.555  13.351   5.058
80811SOL     OW44271  12.771   0.480   3.905
80811SOL    HW144272  12.834   0.460   3.836
80811SOL    HW244273  12.814   0.450   3.986
80812SOL     OW44274   6.907  10.505   0.477
80812SOL    HW144275   6.903  10.418   0.516
80812SOL    HW244276   6.821  10.544   0.494
80813SOL     OW44277   0.600   2.344   9.545
80813SOL    HW144278   0.625   2.295   9.467
80813SOL    HW244279   0.530   2.402   9.515
80814SOL     OW44280   4.845  11.715   0.743
80814SOL    HW144281   4.804  11.630   0.757
80814SOL    HW244282   4.915  11.698   0.681
80815SOL     OW44283  12.954   0.815  11.501
80815SOL    HW144284  12.901   0.792  11.577
80815SOL    HW244285  12.985   0.731  11.467
80816SOL     OW44286  10.627   0.664   9.028
80816SOL    HW144287  10.532   0.667   9.025
80816SOL    HW244288  10.650   0.573   9.012
80817SOL     OW44289   7.940  12.852   9.292
80817SOL    HW144290   7.913  12.795   9.364
80817SOL    HW244291   8.022  12.891   9.322
80818SOL     OW44292   7.117  13.325   7.379
80818SOL    HW144293   7.060  13.393   7.414
80818SOL    HW244294   7.201  13.340   7.422
80819SOL     OW44295   3.543   4.016  13.938
80819SOL    HW144296   3.549   3.921  13.948
80819SOL    HW244297   3.578   4.051  14.020
80820SOL     OW44298   0.826  13.282   3.254
80820SOL    HW144299   0.877  13.300   3.332
80820SOL    HW244300   0.805  13.189   3.259
80821SOL     OW44301   7.787   8.873   8.772
80821SOL    HW144302   7.879   8.849   8.785
80821SOL    HW244303   7.737   8.805   8.816
80822SOL     OW44304  10.855   7.819  12.776
80822SOL    HW144305  10.843   7.763  12.853
80822SOL    HW244306  10.793   7.786  12.712
80823SOL     OW44307   6.018   2.647   3.596
80823SOL    HW144308   6.006   2.552   3.604
80823SOL    HW244309   6.037   2.661   3.503
80824SOL     OW44310   6.004  10.863   2.118
80824SOL    HW144311   6.057  10.868   2.038
80824SOL    HW244312   6.051  10.802   2.174
80825SOL     OW44313  14.873  10.693  12.201
80825SOL    HW144314   0.052  10.619  12.203
80825SOL    HW244315   0.021  10.752  12.270
80826SOL     OW44316  10.244   9.774   3.681
80826SOL    HW144317  10.246   9.755   3.587
80826SOL    HW244318  10.333   9.805   3.701
80827SOL     OW44319  13.095   2.228   3.386
80827SOL    HW144320  13.174   2.196   3.429
80827SOL    HW244321  13.124   2.301   3.332
80828SOL     OW44322   0.823   7.527  10.987
80828SOL    HW144323   0.887   7.500  11.053
80828SOL    HW244324   0.868   7.595  10.937
80829SOL     OW44325  14.331   3.469  14.798
80829SOL    HW144326  14.279   3.410  14.853
80829SOL    HW244327  14.323   3.554  14.841
80830SOL     OW44328  13.097  12.544   6.006
80830SOL    HW144329  13.087  12.514   5.916
80830SOL    HW244330  13.190  12.534   6.025
80831SOL     OW44331   6.691   3.672   7.044
80831SOL    HW144332   6.705   3.578   7.032
80831SOL    HW244333   6.596   3.681   7.052
80832SOL     OW44334   4.146  10.692   7.792
80832SOL    HW144335   4.054  10.667   7.785
80832SOL    HW244336   4.146  10.769   7.848
80833SOL     OW44337   6.667  13.061   8.557
80833SOL    HW144338   6.626  13.070   8.470
80833SOL    HW244339   6.720  12.982   8.550
80834SOL     OW44340   6.742   1.669  10.655
80834SOL    HW144341   6.712   1.654  10.565
80834SOL    HW244342   6.711   1.594  10.704
80835SOL     OW44343  10.353  13.115   6.172
80835SOL    HW144344  10.377  13.042   6.115
80835SOL    HW244345  10.276  13.084   6.220
80836SOL     OW44346  11.837   3.503   7.223
80836SOL    HW144347  11.843   3.407   7.228
80836SOL    HW244348  11.766   3.525   7.284
80837SOL     OW44349   3.836   5.524  11.256
80837SOL    HW144350   3.918   5.475  11.246
80837SOL    HW244351   3.856   5.612  11.227
80838SOL     OW44352   6.290  10.654   4.828
80838SOL    HW144353   6.258  10.656   4.737
80838SOL    HW244354   6.385  10.658   4.819
80839SOL     OW44355   7.607   4.122  13.530
80839SOL    HW144356   7.531   4.106  13.473
80839SOL    HW244357   7.663   4.181  13.480
80840SOL     OW44358   8.969  13.067  13.040
80840SOL    HW144359   8.888  13.024  13.067
80840SOL    HW244360   8.952  13.160  13.052
80841SOL     OW44361  14.800   0.254  13.977
80841SOL    HW144362  14.857   0.219  14.045
80841SOL    HW244363  14.827   0.345  13.966
80842SOL     OW44364   5.846  11.041  12.149
80842SOL    HW144365   5.759  11.048  12.109
80842SOL    HW244366   5.846  11.108  12.218
80843SOL     OW44367  10.351  12.704   0.963
80843SOL    HW144368  10.348  12.786   0.914
80843SOL    HW244369  10.439  12.702   1.000
80844SOL     OW44370   1.224  10.852   3.442
80844SOL    HW144371   1.201  10.850   3.535
80844SOL    HW244372   1.230  10.945   3.422
80845SOL     OW44373   7.265   7.040   3.429
80845SOL    HW144374   7.322   7.065   3.356
80845SOL    HW244375   7.177   7.065   3.400
80846SOL     OW44376   6.265   5.829   9.068
80846SOL    HW144377   6.273   5.863   9.157
80846SOL    HW244378   6.214   5.748   9.078
80847SOL     OW44379   4.957   5.522   9.423
80847SOL    HW144380   5.041   5.515   9.377
80847SOL    HW244381   4.981   5.537   9.514
80848SOL     OW44382   9.745   5.130   9.259
80848SOL    HW144383   9.668   5.173   9.295
80848SOL    HW244384   9.711   5.051   9.218
80849SOL     OW44385  13.189  13.796  14.468
80849SOL    HW144386  13.184  13.710  14.426
80849SOL    HW244387  13.221  13.778  14.556
80850SOL     OW44388   1.923   5.477   9.874
80850SOL    HW144389   1.864   5.508   9.805
80850SOL    HW244390   2.003   5.453   9.828
80851SOL     OW44391   0.899   7.989  13.378
80851SOL    HW144392   0.864   7.988  13.467
80851SOL    HW244393   0.840   7.933  13.328
80852SOL     OW44394  12.066   0.604   2.353
80852SOL    HW144395  12.069   0.678   2.414
80852SOL    HW244396  12.130   0.626   2.285
80853SOL     OW44397  14.289   3.189   1.054
80853SOL    HW144398  14.377   3.224   1.044
80853SOL    HW244399  14.296   3.098   1.025
80854SOL     OW44400  14.292  12.231   7.647
80854SOL    HW144401  14.218  12.291   7.644
80854SOL    HW244402  14.368  12.288   7.659
80855SOL     OW44403   0.881  12.372   7.337
80855SOL    HW144404   0.843  12.310   7.399
80855SOL    HW244405   0.973  12.377   7.361
80856SOL     OW44406  10.306   0.171   5.996
80856SOL    HW144407  10.316   0.081   5.964
80856SOL    HW244408  10.375   0.181   6.062
80857SOL     OW44409   8.006   8.573   7.149
80857SOL    HW144410   7.929   8.584   7.204
80857SOL    HW244411   7.971   8.564   7.060
80858SOL     OW44412   9.061  13.540   8.793
80858SOL    HW144413   9.132  13.478   8.810
80858SOL    HW244414   9.013  13.503   8.719
80859SOL     OW44415  14.178  13.718  13.546
80859SOL    HW144416  14.120  13.755  13.480
80859SOL    HW244417  14.127  13.719  13.627
80860SOL     OW44418   7.178  12.870   7.835
80860SOL    HW144419   7.160  12.961   7.813
80860SOL    HW244420   7.093  12.832   7.855
80861SOL     OW44421   6.256   7.310  11.062
80861SOL    HW144422   6.298   7.263  11.133
80861SOL    HW244423   6.209   7.382  11.105
80862SOL     OW44424   0.476  12.009   2.945
80862SOL    HW144425   0.526  11.980   3.021
80862SOL    HW244426   0.525  12.084   2.912
80863SOL     OW44427  13.690   0.071  11.254
80863SOL    HW144428  13.719   0.065  11.163
80863SOL    HW244429  13.748   0.135  11.294
80864SOL     OW44430  14.844   3.408   6.762
80864SOL    HW144431  14.854   3.470   6.835
80864SOL    HW244432  14.753   3.417   6.735
80865SOL     OW44433   4.060   5.174   3.982
80865SOL    HW144434   3.985   5.135   4.027
80865SOL    HW244435   4.060   5.266   4.010
80866SOL     OW44436   4.188  14.757  11.437
80866SOL    HW144437   4.112  14.729  11.488
80866SOL    HW244438   4.158  14.751  11.346
80867SOL     OW44439  10.205   0.429  10.857
80867SOL    HW144440  10.122   0.393  10.824
80867SOL    HW244441  10.178   0.494  10.923
80868SOL     OW44442   7.080   5.263  11.685
80868SOL    HW144443   7.084   5.177  11.644
80868SOL    HW244444   7.006   5.307  11.643
80869SOL     OW44445   1.276  10.402   0.403
80869SOL    HW144446   1.228  10.365   0.329
80869SOL    HW244447   1.208  10.422   0.468
80870SOL     OW44448   7.355   2.756  14.173
80870SOL    HW144449   7.365   2.792  14.261
80870SOL    HW244450   7.412   2.809  14.118
80871SOL     OW44451   2.678  10.805   7.715
80871SOL    HW144452   2.640  10.831   7.631
80871SOL    HW244453   2.691  10.710   7.707
80872SOL     OW44454   9.565  14.395   3.647
80872SOL    HW144455   9.574  14.435   3.733
80872SOL    HW244456   9.559  14.301   3.665
80873SOL     OW44457   6.776   9.479   0.949
80873SOL    HW144458   6.709   9.411   0.961
80873SOL    HW244459   6.858   9.431   0.943
80874SOL     OW44460  10.409   7.554   8.190
80874SOL    HW144461  10.412   7.599   8.275
80874SOL    HW244462  10.397   7.624   8.126
80875SOL     OW44463   2.928   1.379  11.723
80875SOL    HW144464   3.002   1.348  11.775
80875SOL    HW244465   2.900   1.459  11.766
80876SOL     OW44466  10.942   1.044   9.095
80876SOL    HW144467  11.024   1.085   9.124
80876SOL    HW244468  10.904   1.107   9.034
80877SOL     OW44469  12.200  12.425   7.495
80877SOL    HW144470  12.239  12.342   7.521
80877SOL    HW244471  12.235  12.490   7.556
80878SOL     OW44472   1.836   9.364   4.671
80878SOL    HW144473   1.784   9.369   4.591
80878SOL    HW244474   1.772   9.345   4.740
80879SOL     OW44475   2.477  12.349  14.194
80879SOL    HW144476   2.427  12.308  14.124
80879SOL    HW244477   2.445  12.307  14.274
80880SOL     OW44478  12.660   8.248   3.813
80880SOL    HW144479  12.625   8.273   3.898
80880SOL    HW244480  12.675   8.331   3.768
80881SOL     OW44481   8.469   8.824   9.682
80881SOL    HW144482   8.495   8.810   9.591
80881SOL    HW244483   8.387   8.874   9.677
80882SOL     OW44484   6.416   2.761  10.564
80882SOL    HW144485   6.411   2.720  10.478
80882SOL    HW244486   6.391   2.692  10.625
80883SOL     OW44487   5.323   9.502   0.425
80883SOL    HW144488   5.352   9.580   0.472
80883SOL    HW244489   5.381   9.497   0.349
80884SOL     OW44490   6.890   5.715   9.470
80884SOL    HW144491   6.925   5.635   9.431
80884SOL    HW244492   6.795   5.708   9.456
80885SOL     OW44493  11.828   4.619   1.697
80885SOL    HW144494  11.849   4.672   1.774
80885SOL    HW244495  11.733   4.607   1.702
80886SOL     OW44496   2.706  14.334  13.876
80886SOL    HW144497   2.780  14.380  13.917
80886SOL    HW244498   2.740  14.306  13.791
80887SOL     OW44499   6.875   4.797  10.427
80887SOL    HW144500   6.844   4.743  10.354
80887SOL    HW244501   6.828   4.880  10.417
80888SOL     OW44502   8.695   5.727   5.794
80888SOL    HW144503   8.725   5.816   5.774
80888SOL    HW244504   8.716   5.714   5.887
80889SOL     OW44505   0.029   4.797   7.316
80889SOL    HW144506  14.826   4.754   7.311
80889SOL    HW244507   0.011   4.883   7.354
80890SOL     OW44508  11.053  11.994  11.473
80890SOL    HW144509  11.047  11.905  11.509
80890SOL    HW244510  11.130  11.990  11.415
80891SOL     OW44511   7.269  10.159   6.292
80891SOL    HW144512   7.205  10.216   6.335
80891SOL    HW244513   7.312  10.113   6.364
80892SOL     OW44514   1.007   5.334   4.599
80892SOL    HW144515   1.046   5.396   4.538
80892SOL    HW244516   0.961   5.271   4.544
80893SOL     OW44517  13.699   0.505  10.650
80893SOL    HW144518  13.671   0.452  10.724
80893SOL    HW244519  13.698   0.595  10.683
80894SOL     OW44520   7.801  12.347   0.118
80894SOL    HW144521   7.803  12.261   0.076
80894SOL    HW244522   7.742  12.399   0.064
80895SOL     OW44523   2.899   5.789  14.527
80895SOL    HW144524   2.893   5.826  14.615
80895SOL    HW244525   2.908   5.695  14.541
80896SOL     OW44526   2.311   5.779   4.683
80896SOL    HW144527   2.266   5.753   4.763
80896SOL    HW244528   2.241   5.795   4.619
80897SOL     OW44529  10.335  14.142  11.855
80897SOL    HW144530  10.269  14.194  11.900
80897SOL    HW244531  10.412  14.146  11.911
80898SOL     OW44532   8.924   1.908   5.160
80898SOL    HW144533   8.983   1.883   5.231
80898SOL    HW244534   8.956   1.992   5.130
80899SOL     OW44535   6.280  11.523   0.145
80899SOL    HW144536   6.259  11.465   0.072
80899SOL    HW244537   6.284  11.465   0.221
80900SOL     OW44538   0.956   2.575   2.704
80900SOL    HW144539   0.970   2.538   2.791
80900SOL    HW244540   0.941   2.669   2.720
80901SOL     OW44541   1.956   1.606  13.373
80901SOL    HW144542   1.863   1.610  13.396
80901SOL    HW244543   1.998   1.672  13.428
80902SOL     OW44544  12.976   9.179  12.069
80902SOL    HW144545  12.936   9.233  12.137
80902SOL    HW244546  13.068   9.172  12.095
80903SOL     OW44547   1.337   2.556  13.248
80903SOL    HW144548   1.389   2.501  13.307
80903SOL    HW244549   1.350   2.517  13.162
80904SOL     OW44550  11.112   9.810   9.382
80904SOL    HW144551  11.018   9.830   9.379
80904SOL    HW244552  11.150   9.882   9.432
80905SOL     OW44553   5.900   0.448  14.211
80905SOL    HW144554   5.883   0.459  14.117
80905SOL    HW244555   5.980   0.396  14.215
80906SOL     OW44556  12.245   4.441   1.964
80906SOL    HW144557  12.217   4.481   1.882
80906SOL    HW244558  12.173   4.459   2.025
80907SOL     OW44559   2.550  14.382  11.734
80907SOL    HW144560   2.483  14.373  11.802
80907SOL    HW244561   2.604  14.303  11.743
80908SOL     OW44562  11.504   7.760   8.926
80908SOL    HW144563  11.442   7.731   8.858
80908SOL    HW244564  11.452   7.819   8.982
80909SOL     OW44565  12.710  10.905  13.603
80909SOL    HW144566  12.627  10.870  13.569
80909SOL    HW244567  12.690  10.997  13.622
80910SOL     OW44568  13.966   4.099   1.587
80910SOL    HW144569  13.879   4.071   1.614
80910SOL    HW244570  14.022   4.077   1.661
80911SOL     OW44571   5.073  14.302   7.062
80911SOL    HW144572   5.024  14.363   7.007
80911SOL    HW244573   5.043  14.320   7.151
80912SOL     OW44574   2.301  12.467  14.684
80912SOL    HW144575   2.268  12.479  14.594
80912SOL    HW244576   2.321  12.556  14.713
80913SOL     OW44577   3.915   4.865  11.466
80913SOL    HW144578   3.871   4.846  11.383
80913SOL    HW244579   3.846   4.901  11.522
80914SOL     OW44580   9.416   8.793   9.792
80914SOL    HW144581   9.411   8.712   9.843
80914SOL    HW244582   9.340   8.844   9.820
80915SOL     OW44583  10.837   8.159   5.376
80915SOL    HW144584  10.843   8.232   5.438
80915SOL    HW244585  10.920   8.162   5.328
80916SOL     OW44586   6.165   3.318   8.194
80916SOL    HW144587   6.168   3.413   8.185
80916SOL    HW244588   6.131   3.303   8.282
80917SOL     OW44589  13.545  10.493   6.785
80917SOL    HW144590  13.498  10.575   6.800
80917SOL    HW244591  13.586  10.474   6.869
80918SOL     OW44592  11.634   7.900   4.956
80918SOL    HW144593  11.669   7.860   4.876
80918SOL    HW244594  11.701   7.883   5.022
80919SOL     OW44595   2.765   2.448  14.081
80919SOL    HW144596   2.841   2.389  14.080
80919SOL    HW244597   2.795   2.524  14.132
80920SOL     OW44598   1.914   9.112   2.882
80920SOL    HW144599   1.951   9.025   2.866
80920SOL    HW244600   1.984   9.159   2.927
80921SOL     OW44601   3.408   2.629   1.518
80921SOL    HW144602   3.408   2.719   1.484
80921SOL    HW244603   3.499   2.612   1.539
80922SOL     OW44604   1.731   1.084   2.594
80922SOL    HW144605   1.750   1.091   2.501
80922SOL    HW244606   1.670   1.010   2.601
80923SOL     OW44607   4.041   7.466   4.971
80923SOL    HW144608   4.120   7.451   5.022
80923SOL    HW244609   4.071   7.468   4.880
80924SOL     OW44610   9.719  13.431   7.838
80924SOL    HW144611   9.642  13.409   7.785
80924SOL    HW244612   9.769  13.492   7.784
80925SOL     OW44613  11.018   7.821   9.046
80925SOL    HW144614  11.066   7.766   8.985
80925SOL    HW244615  11.042   7.787   9.133
80926SOL     OW44616  11.268   3.454   8.999
80926SOL    HW144617  11.304   3.464   8.911
80926SOL    HW244618  11.337   3.486   9.057
80927SOL     OW44619   9.999   7.288   5.627
80927SOL    HW144620  10.069   7.346   5.597
80927SOL    HW244621   9.920   7.323   5.585
80928SOL     OW44622  13.710   4.245   9.058
80928SOL    HW144623  13.649   4.205   8.996
80928SOL    HW244624  13.762   4.172   9.091
80929SOL     OW44625   1.740   3.061  10.812
80929SOL    HW144626   1.778   3.142  10.780
80929SOL    HW244627   1.647   3.082  10.826
80930SOL     OW44628   8.735   4.973  10.908
80930SOL    HW144629   8.680   4.910  10.956
80930SOL    HW244630   8.809   4.921  10.877
80931SOL     OW44631   6.557  11.446   4.111
80931SOL    HW144632   6.650  11.459   4.096
80931SOL    HW244633   6.547  11.444   4.206
80932SOL     OW44634  11.917  13.073   7.509
80932SOL    HW144635  11.930  13.065   7.415
80932SOL    HW244636  11.922  12.984   7.543
80933SOL     OW44637  13.616  11.540   7.600
80933SOL    HW144638  13.543  11.540   7.661
80933SOL    HW244639  13.694  11.539   7.656
80934SOL     OW44640  11.900   1.595  10.586
80934SOL    HW144641  11.993   1.586  10.564
80934SOL    HW244642  11.857   1.616  10.503
80935SOL     OW44643   8.199  10.932   8.506
80935SOL    HW144644   8.105  10.947   8.517
80935SOL    HW244645   8.229  11.007   8.454
80936SOL     OW44646  14.405   0.089   3.175
80936SOL    HW144647  14.337   0.150   3.204
80936SOL    HW244648  14.485   0.142   3.173
80937SOL     OW44649  13.554  14.822   8.782
80937SOL    HW144650  13.509  14.808   8.699
80937SOL    HW244651  13.616   0.011   8.764
80938SOL     OW44652   5.414  14.170   5.446
80938SOL    HW144653   5.332  14.121   5.449
80938SOL    HW244654   5.397  14.248   5.499
80939SOL     OW44655  10.952  14.382  12.771
80939SOL    HW144656  10.983  14.342  12.852
80939SOL    HW244657  11.016  14.450  12.752
80940SOL     OW44658   6.726   7.887   8.669
80940SOL    HW144659   6.634   7.869   8.651
80940SOL    HW244660   6.774   7.820   8.620
80941SOL     OW44661   5.769  10.182   2.132
80941SOL    HW144662   5.726  10.127   2.067
80941SOL    HW244663   5.735  10.153   2.216
80942SOL     OW44664   6.840  12.987   2.225
80942SOL    HW144665   6.825  13.068   2.275
80942SOL    HW244666   6.787  12.921   2.270
80943SOL     OW44667   0.007  12.594   8.841
80943SOL    HW144668   0.061  12.515   8.834
80943SOL    HW244669   0.008  12.616   8.934
80944SOL     OW44670  12.193   6.362   7.807
80944SOL    HW144671  12.262   6.298   7.826
80944SOL    HW244672  12.176   6.351   7.713
80945SOL     OW44673   1.511  10.990  11.429
80945SOL    HW144674   1.519  10.930  11.355
80945SOL    HW244675   1.427  11.034  11.416
80946SOL     OW44676   3.151   0.614   3.045
80946SOL    HW144677   3.236   0.590   3.007
80946SOL    HW244678   3.170   0.688   3.103
80947SOL     OW44679  10.974   2.473   4.183
80947SOL    HW144680  11.060   2.457   4.221
80947SOL    HW244681  10.912   2.459   4.255
80948SOL     OW44682   9.995   1.559   3.181
80948SOL    HW144683  10.013   1.571   3.088
80948SOL    HW244684  10.025   1.640   3.223
80949SOL     OW44685  11.875   4.790   1.919
80949SOL    HW144686  11.835   4.792   2.006
80949SOL    HW244687  11.932   4.867   1.918
80950SOL     OW44688  10.476  14.566   8.281
80950SOL    HW144689  10.412  14.612   8.226
80950SOL    HW244690  10.488  14.481   8.237
80951SOL     OW44691   8.959   0.049   6.327
80951SOL    HW144692   8.903   0.057   6.250
80951SOL    HW244693   8.970  14.836   6.338
80952SOL     OW44694   4.093   6.944   6.924
80952SOL    HW144695   4.047   6.894   6.856
80952SOL    HW244696   4.157   6.883   6.960
80953SOL     OW44697   3.934  12.668   0.725
80953SOL    HW144698   3.891  12.587   0.697
80953SOL    HW244699   3.869  12.736   0.710
80954SOL     OW44700   5.014  10.552  14.596
80954SOL    HW144701   4.965  10.575  14.517
80954SOL    HW244702   4.957  10.581  14.668
80955SOL     OW44703   2.323   8.349  14.262
80955SOL    HW144704   2.236   8.372  14.228
80955SOL    HW244705   2.331   8.399  14.343
80956SOL     OW44706   5.807   4.493  10.805
80956SOL    HW144707   5.900   4.473  10.797
80956SOL    HW244708   5.791   4.498  10.899
80957SOL     OW44709   0.559  10.619   7.892
80957SOL    HW144710   0.635  10.638   7.837
80957SOL    HW244711   0.563  10.683   7.962
80958SOL     OW44712   2.311   7.014  13.122
80958SOL    HW144713   2.381   7.068  13.086
80958SOL    HW244714   2.304   6.940  13.061
80959SOL     OW44715   6.566  13.365   6.510
80959SOL    HW144716   6.598  13.416   6.584
80959SOL    HW244717   6.552  13.428   6.440
80960SOL     OW44718  10.775  11.855   4.113
80960SOL    HW144719  10.764  11.920   4.044
80960SOL    HW244720  10.717  11.883   4.183
80961SOL     OW44721   8.999   3.277   3.747
80961SOL    HW144722   9.080   3.250   3.703
80961SOL    HW244723   9.008   3.371   3.760
80962SOL     OW44724   6.664   9.073  11.320
80962SOL    HW144725   6.717   9.059  11.242
80962SOL    HW244726   6.727   9.092  11.389
80963SOL     OW44727   5.445   5.926   2.016
80963SOL    HW144728   5.535   5.920   2.048
80963SOL    HW244729   5.437   5.853   1.955
80964SOL     OW44730  13.876   2.399   3.331
80964SOL    HW144731  13.840   2.393   3.419
80964SOL    HW244732  13.876   2.309   3.298
80965SOL     OW44733   2.487  11.866  12.464
80965SOL    HW144734   2.572  11.889  12.501
80965SOL    HW244735   2.505  11.845  12.373
80966SOL     OW44736   0.888  13.659   0.958
80966SOL    HW144737   0.851  13.690   0.875
80966SOL    HW244738   0.934  13.735   0.993
80967SOL     OW44739   4.325  11.828  10.893
80967SOL    HW144740   4.294  11.738  10.890
80967SOL    HW244741   4.417  11.820  10.919
80968SOL     OW44742   4.262   2.622   9.052
80968SOL    HW144743   4.251   2.580   9.137
80968SOL    HW244744   4.344   2.671   9.058
80969SOL     OW44745   8.817   8.862   0.637
80969SOL    HW144746   8.739   8.876   0.692
80969SOL    HW244747   8.852   8.949   0.622
80970SOL     OW44748   3.328  14.060  12.102
80970SOL    HW144749   3.284  13.994  12.049
80970SOL    HW244750   3.322  14.028  12.191
80971SOL     OW44751  14.498   2.260  13.912
80971SOL    HW144752  14.524   2.348  13.886
80971SOL    HW244753  14.432   2.274  13.981
80972SOL     OW44754   5.802   8.623   7.454
80972SOL    HW144755   5.841   8.544   7.417
80972SOL    HW244756   5.711   8.599   7.472
80973SOL     OW44757   4.378   6.083  11.578
80973SOL    HW144758   4.441   6.076  11.506
80973SOL    HW244759   4.334   5.998  11.580
80974SOL     OW44760   8.985   7.361   9.453
80974SOL    HW144761   8.938   7.371   9.371
80974SOL    HW244762   9.039   7.282   9.441
80975SOL     OW44763  10.031  12.732  10.229
80975SOL    HW144764  10.032  12.781  10.147
80975SOL    HW244765  10.075  12.791  10.291
80976SOL     OW44766   5.716   9.226   8.173
80976SOL    HW144767   5.707   9.131   8.176
80976SOL    HW244768   5.809   9.241   8.156
80977SOL     OW44769  12.290   5.072  11.430
80977SOL    HW144770  12.369   5.126  11.418
80977SOL    HW244771  12.226   5.132  11.469
80978SOL     OW44772  10.928   8.564   3.503
80978SOL    HW144773  11.009   8.577   3.453
80978SOL    HW244774  10.860   8.551   3.436
80979SOL     OW44775   2.021   8.537   2.568
80979SOL    HW144776   1.991   8.488   2.645
80979SOL    HW244777   1.941   8.571   2.529
80980SOL     OW44778   8.415   2.103   8.011
80980SOL    HW144779   8.396   2.156   7.933
80980SOL    HW244780   8.505   2.073   7.999
80981SOL     OW44781   1.218   1.076   7.083
80981SOL    HW144782   1.290   1.121   7.038
80981SOL    HW244783   1.262   1.015   7.143
80982SOL     OW44784   4.158   0.006   7.045
80982SOL    HW144785   4.086  14.877   7.108
80982SOL    HW244786   4.221  14.820   7.070
80983SOL     OW44787   7.414   4.094   4.546
80983SOL    HW144788   7.328   4.054   4.531
80983SOL    HW244789   7.396   4.188   4.544
80984SOL     OW44790  13.794   7.830   9.419
80984SOL    HW144791  13.721   7.887   9.395
80984SOL    HW244792  13.796   7.831   9.515
80985SOL     OW44793  11.403  13.829   3.651
80985SOL    HW144794  11.479  13.864   3.698
80985SOL    HW244795  11.386  13.892   3.582
80986SOL     OW44796   7.765   5.749   3.444
80986SOL    HW144797   7.697   5.695   3.403
80986SOL    HW244798   7.750   5.837   3.408
80987SOL     OW44799  13.757  12.019   6.819
80987SOL    HW144800  13.821  11.983   6.881
80987SOL    HW244801  13.676  12.024   6.869
80988SOL     OW44802   5.635  10.960   4.026
80988SOL    HW144803   5.557  11.014   4.037
80988SOL    HW244804   5.658  10.969   3.934
80989SOL     OW44805   1.102  14.562   4.974
80989SOL    HW144806   1.039  14.631   4.994
80989SOL    HW244807   1.094  14.549   4.879
80990SOL     OW44808  10.679  11.825  10.881
80990SOL    HW144809  10.672  11.861  10.793
80990SOL    HW244810  10.623  11.881  10.935
80991SOL     OW44811   1.693  14.224  10.943
80991SOL    HW144812   1.778  14.233  10.899
80991SOL    HW244813   1.631  14.211  10.872
80992SOL     OW44814   4.651   1.038   9.190
80992SOL    HW144815   4.590   0.966   9.203
80992SOL    HW244816   4.701   1.013   9.112
80993SOL     OW44817   2.115  13.465   5.511
80993SOL    HW144818   2.069  13.429   5.586
80993SOL    HW244819   2.175  13.531   5.548
80994SOL     OW44820   4.675   3.276   0.525
80994SOL    HW144821   4.680   3.371   0.510
80994SOL    HW244822   4.748   3.257   0.583
80995SOL     OW44823  13.248  12.896   3.824
80995SOL    HW144824  13.186  12.831   3.790
80995SOL    HW244825  13.219  12.913   3.913
80996SOL     OW44826  10.926   0.971   9.885
80996SOL    HW144827  10.994   1.034   9.861
80996SOL    HW244828  10.942   0.954   9.978
80997SOL     OW44829  14.571  11.536   8.736
80997SOL    HW144830  14.492  11.574   8.776
80997SOL    HW244831  14.635  11.536   8.806
80998SOL     OW44832  13.945   2.846  11.107
80998SOL    HW144833  13.926   2.920  11.050
80998SOL    HW244834  13.935   2.769  11.050
80999SOL     OW44835   2.180   0.035   0.260
80999SOL    HW144836   2.139  14.851   0.316
80999SOL    HW244837   2.168   0.117   0.308
81000SOL     OW44838  10.333  14.606  11.506
81000SOL    HW144839  10.327  14.696  11.474
81000SOL    HW244840  10.353  14.615  11.600
81001SOL     OW44841   5.693   2.673   5.882
81001SOL    HW144842   5.723   2.730   5.811
81001SOL    HW244843   5.769   2.620   5.904
81002SOL     OW44844   5.967  13.793  13.624
81002SOL    HW144845   5.959  13.719  13.684
81002SOL    HW244846   6.057  13.825  13.637
81003SOL     OW44847   7.458  13.998   1.430
81003SOL    HW144848   7.469  14.032   1.342
81003SOL    HW244849   7.505  14.060   1.486
81004SOL     OW44850   1.005  13.397  12.046
81004SOL    HW144851   1.029  13.479  12.089
81004SOL    HW244852   0.983  13.423  11.956
81005SOL     OW44853  11.794  14.697   9.915
81005SOL    HW144854  11.730  14.679   9.984
81005SOL    HW244855  11.829  14.611   9.891
81006SOL     OW44856  14.732   8.094   9.310
81006SOL    HW144857  14.717   8.152   9.384
81006SOL    HW244858  14.827   8.091   9.300
81007SOL     OW44859   5.784   6.456   0.270
81007SOL    HW144860   5.858   6.427   0.324
81007SOL    HW244861   5.735   6.516   0.326
81008SOL     OW44862   4.185   8.716  12.448
81008SOL    HW144863   4.184   8.643  12.509
81008SOL    HW244864   4.137   8.684  12.371
81009SOL     OW44865   4.778   6.458   8.564
81009SOL    HW144866   4.863   6.502   8.574
81009SOL    HW244867   4.715   6.520   8.602
81010SOL     OW44868  14.219  11.751   0.009
81010SOL    HW144869  14.267  11.763   0.092
81010SOL    HW244870  14.220  11.657  14.877
81011SOL     OW44871   1.983   7.882  10.997
81011SOL    HW144872   2.018   7.815  10.939
81011SOL    HW244873   1.974   7.959  10.941
81012SOL     OW44874   0.888  10.539  12.301
81012SOL    HW144875   0.892  10.598  12.377
81012SOL    HW244876   0.980  10.525  12.278
81013SOL     OW44877   0.377   8.123   9.458
81013SOL    HW144878   0.308   8.056   9.448
81013SOL    HW244879   0.330   8.201   9.488
81014SOL     OW44880   6.971   8.309  12.892
81014SOL    HW144881   6.971   8.214  12.885
81014SOL    HW244882   6.930   8.327  12.977
81015SOL     OW44883   2.848   2.333   9.435
81015SOL    HW144884   2.768   2.384   9.422
81015SOL    HW244885   2.823   2.243   9.414
81016SOL     OW44886   1.353  11.517   7.776
81016SOL    HW144887   1.333  11.591   7.834
81016SOL    HW244888   1.447  11.522   7.763
81017SOL     OW44889  14.561  14.595   6.691
81017SOL    HW144890  14.650  14.561   6.696
81017SOL    HW244891  14.569  14.687   6.719
81018SOL     OW44892  12.689   8.310   5.713
81018SOL    HW144893  12.713   8.383   5.770
81018SOL    HW244894  12.749   8.240   5.738
81019SOL     OW44895   4.669   2.809  14.396
81019SOL    HW144896   4.649   2.721  14.365
81019SOL    HW244897   4.765   2.814  14.394
81020SOL     OW44898   8.330  13.091   7.988
81020SOL    HW144899   8.291  13.003   7.987
81020SOL    HW244900   8.266  13.145   8.032
81021SOL     OW44901  10.791   2.834   1.701
81021SOL    HW144902  10.860   2.885   1.744
81021SOL    HW244903  10.834   2.793   1.626
81022SOL     OW44904   0.585   8.665  14.198
81022SOL    HW144905   0.544   8.667  14.285
81022SOL    HW244906   0.513   8.653  14.137
81023SOL     OW44907   2.497  14.633   2.359
81023SOL    HW144908   2.411  14.594   2.344
81023SOL    HW244909   2.481  14.727   2.364
81024SOL     OW44910  13.271   7.365  14.077
81024SOL    HW144911  13.217   7.443  14.069
81024SOL    HW244912  13.215   7.293  14.050
81025SOL     OW44913   8.847   9.911   2.719
81025SOL    HW144914   8.861   9.955   2.635
81025SOL    HW244915   8.846   9.818   2.698
81026SOL     OW44916  13.138   7.700   2.195
81026SOL    HW144917  13.068   7.750   2.237
81026SOL    HW244918  13.172   7.643   2.265
81027SOL     OW44919   2.660   3.701   8.211
81027SOL    HW144920   2.660   3.789   8.172
81027SOL    HW244921   2.606   3.649   8.152
81028SOL     OW44922   4.393  14.269  14.391
81028SOL    HW144923   4.421  14.326  14.463
81028SOL    HW244924   4.464  14.272  14.328
81029SOL     OW44925  12.699   0.965   2.326
81029SOL    HW144926  12.663   0.939   2.241
81029SOL    HW244927  12.651   1.045   2.348
81030SOL     OW44928   4.476   5.333   7.424
81030SOL    HW144929   4.483   5.409   7.482
81030SOL    HW244930   4.460   5.371   7.337
81031SOL     OW44931   3.244   2.591   7.852
81031SOL    HW144932   3.157   2.588   7.894
81031SOL    HW244933   3.239   2.525   7.783
81032SOL     OW44934   8.946   3.544   8.130
81032SOL    HW144935   8.932   3.491   8.051
81032SOL    HW244936   8.873   3.522   8.188
81033SOL     OW44937   7.544   8.254   7.015
81033SOL    HW144938   7.548   8.212   7.100
81033SOL    HW244939   7.501   8.191   6.958
81034SOL     OW44940   9.400  13.636   6.484
81034SOL    HW144941   9.374  13.569   6.548
81034SOL    HW244942   9.325  13.695   6.480
81035SOL     OW44943   8.468   5.112   1.053
81035SOL    HW144944   8.548   5.070   1.022
81035SOL    HW244945   8.401   5.089   0.988
81036SOL     OW44946   9.013   0.687   9.579
81036SOL    HW144947   9.021   0.781   9.596
81036SOL    HW244948   9.093   0.649   9.614
81037SOL     OW44949   8.906   2.800   6.299
81037SOL    HW144950   8.944   2.870   6.246
81037SOL    HW244951   8.821   2.835   6.327
81038SOL     OW44952   1.367   5.848   0.548
81038SOL    HW144953   1.383   5.788   0.474
81038SOL    HW244954   1.275   5.872   0.540
81039SOL     OW44955  12.813   5.394   3.418
81039SOL    HW144956  12.875   5.374   3.489
81039SOL    HW244957  12.770   5.311   3.400
81040SOL     OW44958   9.586   5.764  12.736
81040SOL    HW144959   9.664   5.728  12.779
81040SOL    HW244960   9.513   5.720  12.778
81041SOL     OW44961  11.372  14.862   5.080
81041SOL    HW144962  11.333  14.833   4.998
81041SOL    HW244963  11.298  14.871   5.140
81042SOL     OW44964   2.183  13.869   3.322
81042SOL    HW144965   2.230  13.873   3.405
81042SOL    HW244966   2.108  13.811   3.339
81043SOL     OW44967   4.271  14.097   6.783
81043SOL    HW144968   4.201  14.035   6.801
81043SOL    HW244969   4.286  14.091   6.688
81044SOL     OW44970  12.060  12.339   5.347
81044SOL    HW144971  12.117  12.349   5.271
81044SOL    HW244972  12.067  12.421   5.394
81045SOL     OW44973   3.161  13.323  12.897
81045SOL    HW144974   3.225  13.253  12.907
81045SOL    HW244975   3.149  13.357  12.985
81046SOL     OW44976   1.845  10.256   9.049
81046SOL    HW144977   1.927  10.255   9.097
81046SOL    HW244978   1.848  10.177   8.994
81047SOL     OW44979   9.186   1.991  11.674
81047SOL    HW144980   9.242   2.014  11.748
81047SOL    HW244981   9.136   2.071  11.657
81048SOL     OW44982   6.987   8.082   4.348
81048SOL    HW144983   6.998   8.033   4.429
81048SOL    HW244984   6.913   8.141   4.365
81049SOL     OW44985   6.654   7.503   1.813
81049SOL    HW144986   6.704   7.572   1.857
81049SOL    HW244987   6.602   7.549   1.748
81050SOL     OW44988   3.665   5.696   5.409
81050SOL    HW144989   3.678   5.660   5.322
81050SOL    HW244990   3.664   5.791   5.397
81051SOL     OW44991  10.517   7.031   3.461
81051SOL    HW144992  10.455   7.089   3.415
81051SOL    HW244993  10.603   7.062   3.434
81052SOL     OW44994   4.806   4.825   1.948
81052SOL    HW144995   4.724   4.873   1.962
81052SOL    HW244996   4.837   4.856   1.863
81053SOL     OW44997  12.067   4.219  10.387
81053SOL    HW144998  12.064   4.154  10.457
81053SOL    HW244999  11.991   4.199  10.333
81054SOL     OW45000   0.548   2.169   8.791
81054SOL    HW145001   0.541   2.166   8.696
81054SOL    HW245002   0.509   2.087   8.821
81055SOL     OW45003  13.515   8.500  14.492
81055SOL    HW145004  13.431   8.494  14.537
81055SOL    HW245005  13.492   8.515  14.400
81056SOL     OW45006  10.811  12.965   2.124
81056SOL    HW145007  10.901  12.994   2.136
81056SOL    HW245008  10.758  13.033   2.165
81057SOL     OW45009   9.003   9.280  10.025
81057SOL    HW145010   8.943   9.276  10.100
81057SOL    HW245011   9.032   9.189  10.014
81058SOL     OW45012   0.589   9.043  13.935
81058SOL    HW145013   0.636   9.127  13.943
81058SOL    HW245014   0.656   8.977  13.951
81059SOL     OW45015  10.380  10.012   1.243
81059SOL    HW145016  10.384  10.069   1.167
81059SOL    HW245017  10.306  10.045   1.294
81060SOL     OW45018   4.021   8.539   5.431
81060SOL    HW145019   3.995   8.628   5.455
81060SOL    HW245020   4.094   8.551   5.371
81061SOL     OW45021   1.382   9.124   8.076
81061SOL    HW145022   1.337   9.208   8.070
81061SOL    HW245023   1.349   9.074   8.001
81062SOL     OW45024   8.853   1.284   7.576
81062SOL    HW145025   8.921   1.217   7.582
81062SOL    HW245026   8.889   1.360   7.620
81063SOL     OW45027   8.385   5.649  11.477
81063SOL    HW145028   8.420   5.719  11.422
81063SOL    HW245029   8.290   5.654  11.465
81064SOL     OW45030   7.517   8.489  14.603
81064SOL    HW145031   7.436   8.537  14.622
81064SOL    HW245032   7.508   8.461  14.512
81065SOL     OW45033   8.354  13.087  14.398
81065SOL    HW145034   8.407  13.166  14.413
81065SOL    HW245035   8.403  13.017  14.440
81066SOL     OW45036   6.571   8.386   6.208
81066SOL    HW145037   6.520   8.314   6.245
81066SOL    HW245038   6.610   8.349   6.129
81067SOL     OW45039  12.871   9.157   6.339
81067SOL    HW145040  12.848   9.078   6.388
81067SOL    HW245041  12.913   9.214   6.403
81068SOL     OW45042   6.625   5.857   4.922
81068SOL    HW145043   6.684   5.853   4.847
81068SOL    HW245044   6.630   5.770   4.962
81069SOL     OW45045   0.106   0.025   3.831
81069SOL    HW145046   0.023   0.045   3.789
81069SOL    HW245047   0.166   0.094   3.803
81070SOL     OW45048   6.472  12.983   4.347
81070SOL    HW145049   6.411  12.937   4.289
81070SOL    HW245050   6.486  12.923   4.420
81071SOL     OW45051   0.628   3.252   2.005
81071SOL    HW145052   0.655   3.164   1.979
81071SOL    HW245053   0.547   3.267   1.957
81072SOL     OW45054   4.783  14.698   7.665
81072SOL    HW145055   4.810  14.638   7.596
81072SOL    HW245056   4.858  14.703   7.724
81073SOL     OW45057   4.075   8.929   4.411
81073SOL    HW145058   4.159   8.935   4.364
81073SOL    HW245059   4.015   8.982   4.359
81074SOL     OW45060  10.760  13.793   0.943
81074SOL    HW145061  10.775  13.851   0.868
81074SOL    HW245062  10.749  13.852   1.017
81075SOL     OW45063   5.666  10.393  11.045
81075SOL    HW145064   5.709  10.460  11.099
81075SOL    HW245065   5.572  10.406  11.062
81076SOL     OW45066   8.767  11.893   4.880
81076SOL    HW145067   8.817  11.835   4.937
81076SOL    HW245068   8.686  11.911   4.929
81077SOL     OW45069   7.447   4.579   6.364
81077SOL    HW145070   7.531   4.533   6.362
81077SOL    HW245071   7.419   4.582   6.273
81078SOL     OW45072   5.358   0.728   7.259
81078SOL    HW145073   5.357   0.800   7.321
81078SOL    HW245074   5.290   0.750   7.195
81079SOL     OW45075  11.616  11.291  12.228
81079SOL    HW145076  11.522  11.276  12.223
81079SOL    HW245077  11.654  11.211  12.191
81080SOL     OW45078   0.311  10.514   1.790
81080SOL    HW145079   0.236  10.572   1.786
81080SOL    HW245080   0.284  10.436   1.741
81081SOL     OW45081  13.640   3.839   6.586
81081SOL    HW145082  13.697   3.784   6.533
81081SOL    HW245083  13.677   3.834   6.674
81082SOL     OW45084   4.990  10.844   0.068
81082SOL    HW145085   5.056  10.801   0.122
81082SOL    HW245086   4.926  10.880   0.130
81083SOL     OW45087   2.721   4.358   5.197
81083SOL    HW145088   2.636   4.381   5.234
81083SOL    HW245089   2.703   4.282   5.141
81084SOL     OW45090   3.872  14.875   8.006
81084SOL    HW145091   3.895   0.084   8.023
81084SOL    HW245092   3.808  14.879   7.935
81085SOL     OW45093   6.487  12.528   4.041
81085SOL    HW145094   6.414  12.510   4.100
81085SOL    HW245095   6.543  12.589   4.090
81086SOL     OW45096   1.516   4.155   4.163
81086SOL    HW145097   1.474   4.070   4.181
81086SOL    HW245098   1.605   4.145   4.195
81087SOL     OW45099   5.758  10.125  10.792
81087SOL    HW145100   5.715  10.054  10.840
81087SOL    HW245101   5.786  10.084  10.710
81088SOL     OW45102  11.115   1.295   4.093
81088SOL    HW145103  11.105   1.355   4.167
81088SOL    HW245104  11.173   1.341   4.033
81089SOL     OW45105   6.212   3.571   9.101
81089SOL    HW145106   6.157   3.598   9.174
81089SOL    HW245107   6.237   3.653   9.058
81090SOL     OW45108   8.627  11.085   4.788
81090SOL    HW145109   8.561  11.153   4.798
81090SOL    HW245110   8.598  11.033   4.713
81091SOL     OW45111   2.482   0.523   7.402
81091SOL    HW145112   2.564   0.479   7.381
81091SOL    HW245113   2.508   0.602   7.450
81092SOL     OW45114   1.463  10.344  11.230
81092SOL    HW145115   1.489  10.420  11.179
81092SOL    HW245116   1.376  10.366  11.263
81093SOL     OW45117   3.152  12.272   5.426
81093SOL    HW145118   3.099  12.317   5.492
81093SOL    HW245119   3.126  12.313   5.343
81094SOL     OW45120   0.805   9.615  12.819
81094SOL    HW145121   0.800   9.646  12.910
81094SOL    HW245122   0.796   9.695  12.767
81095SOL     OW45123   6.816   4.078   9.160
81095SOL    HW145124   6.778   4.030   9.086
81095SOL    HW245125   6.773   4.163   9.158
81096SOL     OW45126  10.101   8.418   9.750
81096SOL    HW145127  10.181   8.383   9.710
81096SOL    HW245128  10.030   8.377   9.700
81097SOL     OW45129   9.826  10.476   0.640
81097SOL    HW145130   9.762  10.501   0.706
81097SOL    HW245131   9.899  10.438   0.689
81098SOL     OW45132   7.079  10.523   0.711
81098SOL    HW145133   7.045  10.525   0.621
81098SOL    HW245134   7.121  10.438   0.718
81099SOL     OW45135   8.769   7.391   1.949
81099SOL    HW145136   8.683   7.387   1.989
81099SOL    HW245137   8.812   7.310   1.976
81100SOL     OW45138   2.445  10.009   1.631
81100SOL    HW145139   2.409   9.945   1.569
81100SOL    HW245140   2.521   9.965   1.668
81101SOL     OW45141  13.146   2.092  14.618
81101SOL    HW145142  13.173   2.094  14.710
81101SOL    HW245143  13.212   2.039  14.574
81102SOL     OW45144   4.134   6.824   0.504
81102SOL    HW145145   4.160   6.910   0.538
81102SOL    HW245146   4.066   6.794   0.564
81103SOL     OW45147   7.335  13.066   5.649
81103SOL    HW145148   7.361  13.018   5.570
81103SOL    HW245149   7.302  13.150   5.616
81104SOL     OW45150  11.048  10.464   6.201
81104SOL    HW145151  11.029  10.554   6.175
81104SOL    HW245152  11.053  10.467   6.296
81105SOL     OW45153  13.872   7.271   3.010
81105SOL    HW145154  13.937   7.341   3.011
81105SOL    HW245155  13.803   7.302   3.069
81106SOL     OW45156   3.974   9.939   2.909
81106SOL    HW145157   3.917  10.002   2.866
81106SOL    HW245158   3.957   9.857   2.863
81107SOL     OW45159   7.369   1.529   7.001
81107SOL    HW145160   7.327   1.612   6.977
81107SOL    HW245161   7.298   1.477   7.038
81108SOL     OW45162   3.583  12.476   9.302
81108SOL    HW145163   3.539  12.503   9.222
81108SOL    HW245164   3.673  12.507   9.292
81109SOL     OW45165   3.609  13.721   7.361
81109SOL    HW145166   3.684  13.663   7.346
81109SOL    HW245167   3.640  13.784   7.425
81110SOL     OW45168   5.503  10.342   8.612
81110SOL    HW145169   5.543  10.263   8.575
81110SOL    HW245170   5.578  10.397   8.636
81111SOL     OW45171   1.548   4.383  13.530
81111SOL    HW145172   1.558   4.409  13.621
81111SOL    HW245173   1.625   4.328  13.513
81112SOL     OW45174   6.846  11.892   2.187
81112SOL    HW145175   6.764  11.929   2.218
81112SOL    HW245176   6.858  11.812   2.238
81113SOL     OW45177  11.168   1.066   8.340
81113SOL    HW145178  11.125   0.989   8.303
81113SOL    HW245179  11.186   1.042   8.431
81114SOL     OW45180   1.762   1.825   4.166
81114SOL    HW145181   1.669   1.850   4.171
81114SOL    HW245182   1.791   1.820   4.257
81115SOL     OW45183  11.722   7.085   8.795
81115SOL    HW145184  11.792   7.110   8.855
81115SOL    HW245185  11.724   7.152   8.726
81116SOL     OW45186   0.300   2.811  14.106
81116SOL    HW145187   0.323   2.872  14.035
81116SOL    HW245188   0.241   2.748  14.065
81117SOL     OW45189   0.786   1.934   5.270
81117SOL    HW145190   0.813   1.878   5.197
81117SOL    HW245191   0.779   2.021   5.232
81118SOL     OW45192  10.131   2.102   7.816
81118SOL    HW145193  10.191   2.167   7.781
81118SOL    HW245194  10.066   2.153   7.864
81119SOL     OW45195   0.954   0.876   6.659
81119SOL    HW145196   1.009   0.955   6.654
81119SOL    HW245197   0.865   0.908   6.643
81120SOL     OW45198   3.845   0.042   6.795
81120SOL    HW145199   3.939   0.029   6.796
81120SOL    HW245200   3.813  14.871   6.868
81121SOL     OW45201  11.972   9.665   7.968
81121SOL    HW145202  11.898   9.626   8.015
81121SOL    HW245203  11.949   9.758   7.961
81122SOL     OW45204   3.743  14.322  12.510
81122SOL    HW145205   3.686  14.388  12.471
81122SOL    HW245206   3.687  14.275  12.572
81123SOL     OW45207   1.322   5.634  14.808
81123SOL    HW145208   1.269   5.628  14.729
81123SOL    HW245209   1.278   5.700  14.862
81124SOL     OW45210   1.393   0.209   1.106
81124SOL    HW145211   1.308   0.186   1.069
81124SOL    HW245212   1.412   0.138   1.168
81125SOL     OW45213  13.078  13.048  10.130
81125SOL    HW145214  13.109  13.043  10.040
81125SOL    HW245215  12.984  13.063  10.122
81126SOL     OW45216  12.138   3.467  10.072
81126SOL    HW145217  12.210   3.421  10.030
81126SOL    HW245218  12.158   3.463  10.165
81127SOL     OW45219   3.826  13.089  12.265
81127SOL    HW145220   3.873  13.060  12.343
81127SOL    HW245221   3.834  13.184  12.266
81128SOL     OW45222   2.539  10.605  14.823
81128SOL    HW145223   2.533  10.686  14.773
81128SOL    HW245224   2.629  10.604  14.857
81129SOL     OW45225   7.410  13.386   8.941
81129SOL    HW145226   7.500  13.407   8.919
81129SOL    HW245227   7.414  13.355   9.031
81130SOL     OW45228  13.863  13.106   6.413
81130SOL    HW145229  13.863  13.192   6.456
81130SOL    HW245230  13.772  13.094   6.384
81131SOL     OW45231   9.226   9.901  11.930
81131SOL    HW145232   9.265   9.986  11.909
81131SOL    HW245233   9.271   9.873  12.009
81132SOL     OW45234   0.128   9.410   5.765
81132SOL    HW145235   0.170   9.392   5.682
81132SOL    HW245236   0.191   9.380   5.831
81133SOL     OW45237  11.882   7.509  12.108
81133SOL    HW145238  11.890   7.415  12.092
81133SOL    HW245239  11.827   7.516  12.186
81134SOL     OW45240   0.470   2.236   7.582
81134SOL    HW145241   0.420   2.155   7.578
81134SOL    HW245242   0.484   2.251   7.676
81135SOL     OW45243   6.243  11.141  13.264
81135SOL    HW145244   6.195  11.174  13.188
81135SOL    HW245245   6.271  11.053  13.238
81136SOL     OW45246   6.799   1.551   5.643
81136SOL    HW145247   6.888   1.588   5.642
81136SOL    HW245248   6.813   1.456   5.642
81137SOL     OW45249   5.110   3.604   0.064
81137SOL    HW145250   5.127   3.613  14.852
81137SOL    HW245251   5.024   3.644   0.076
81138SOL     OW45252   8.498   9.835  10.643
81138SOL    HW145253   8.416   9.808  10.685
81138SOL    HW245254   8.554   9.758  10.649
81139SOL     OW45255   9.646  13.247  12.798
81139SOL    HW145256   9.593  13.293  12.862
81139SOL    HW245257   9.589  13.179  12.764
81140SOL     OW45258   9.132  13.765   3.022
81140SOL    HW145259   9.177  13.688   3.058
81140SOL    HW245260   9.127  13.827   3.095
81141SOL     OW45261  13.749   3.562  11.774
81141SOL    HW145262  13.740   3.533  11.683
81141SOL    HW245263  13.840   3.545  11.796
81142SOL     OW45264  13.822   2.687   0.779
81142SOL    HW145265  13.777   2.763   0.816
81142SOL    HW245266  13.861   2.643   0.856
81143SOL     OW45267   9.732   4.479   2.031
81143SOL    HW145268   9.662   4.534   1.995
81143SOL    HW245269   9.780   4.538   2.089
81144SOL     OW45270  12.082   2.980   8.947
81144SOL    HW145271  12.154   2.919   8.932
81144SOL    HW245272  12.103   3.023   9.030
81145SOL     OW45273   1.635   6.132   3.647
81145SOL    HW145274   1.703   6.165   3.588
81145SOL    HW245275   1.648   6.037   3.646
81146SOL     OW45276   7.103   7.128   4.358
81146SOL    HW145277   7.102   7.071   4.435
81146SOL    HW245278   7.087   7.215   4.393
81147SOL     OW45279   0.064   5.368   6.890
81147SOL    HW145280   0.130   5.427   6.853
81147SOL    HW245281   0.035   5.412   6.970
81148SOL     OW45282  10.844  10.182   8.679
81148SOL    HW145283  10.928  10.138   8.676
81148SOL    HW245284  10.812  10.180   8.588
81149SOL     OW45285   0.960  13.194  14.054
81149SOL    HW145286   0.871  13.165  14.073
81149SOL    HW245287   1.014  13.145  14.117
81150SOL     OW45288   8.235  13.618   9.819
81150SOL    HW145289   8.276  13.646   9.901
81150SOL    HW245290   8.308  13.606   9.758
81151SOL     OW45291  11.023  12.356   3.261
81151SOL    HW145292  10.951  12.333   3.321
81151SOL    HW245293  11.004  12.305   3.182
81152SOL     OW45294   7.040   8.168   9.911
81152SOL    HW145295   7.052   8.073   9.918
81152SOL    HW245296   6.951   8.178   9.878
81153SOL     OW45297   7.313  12.956   6.118
81153SOL    HW145298   7.274  13.033   6.077
81153SOL    HW245299   7.326  12.981   6.210
81154SOL     OW45300   6.855   6.573  13.214
81154SOL    HW145301   6.928   6.586  13.153
81154SOL    HW245302   6.799   6.508  13.171
81155SOL     OW45303   8.069   3.349   0.760
81155SOL    HW145304   8.028   3.429   0.726
81155SOL    HW245305   8.009   3.279   0.735
81156SOL     OW45306   5.614   1.777   1.783
81156SOL    HW145307   5.704   1.799   1.758
81156SOL    HW245308   5.562   1.795   1.705
81157SOL     OW45309   5.365   6.829  13.933
81157SOL    HW145310   5.380   6.814  13.840
81157SOL    HW245311   5.361   6.742  13.972
81158SOL     OW45312  12.262   4.018  14.648
81158SOL    HW145313  12.198   3.947  14.652
81158SOL    HW245314  12.212   4.092  14.613
81159SOL     OW45315   4.025   6.710  14.355
81159SOL    HW145316   4.065   6.711  14.442
81159SOL    HW245317   4.081   6.769  14.303
81160SOL     OW45318   8.558  11.316   4.452
81160SOL    HW145319   8.573  11.224   4.472
81160SOL    HW245320   8.640  11.347   4.415
81161SOL     OW45321  12.022  10.748   7.792
81161SOL    HW145322  12.002  10.820   7.851
81161SOL    HW245323  12.090  10.783   7.735
81162SOL     OW45324   4.833  11.961  11.956
81162SOL    HW145325   4.808  11.991  12.043
81162SOL    HW245326   4.813  12.035  11.899
81163SOL     OW45327   9.506   8.235   5.910
81163SOL    HW145328   9.451   8.312   5.927
81163SOL    HW245329   9.529   8.242   5.817
81164SOL     OW45330   2.852  13.765   4.650
81164SOL    HW145331   2.853  13.859   4.630
81164SOL    HW245332   2.929  13.730   4.606
81165SOL     OW45333  14.112   4.466  10.648
81165SOL    HW145334  14.122   4.474  10.743
81165SOL    HW245335  14.019   4.481  10.633
81166SOL     OW45336   1.412   8.952  12.882
81166SOL    HW145337   1.505   8.956  12.906
81166SOL    HW245338   1.409   8.890  12.808
81167SOL     OW45339  11.843   4.344   9.777
81167SOL    HW145340  11.938   4.345   9.766
81167SOL    HW245341  11.809   4.373   9.692
81168SOL     OW45342   0.018   9.583   2.459
81168SOL    HW145343  14.870   9.492   2.456
81168SOL    HW245344   0.092   9.581   2.520
81169SOL     OW45345   8.623   5.444  13.291
81169SOL    HW145346   8.653   5.430  13.201
81169SOL    HW245347   8.535   5.406  13.293
81170SOL     OW45348   4.285  14.877   4.582
81170SOL    HW145349   4.189  14.878   4.583
81170SOL    HW245350   4.310   0.019   4.671
81171SOL     OW45351   2.130   3.539  13.128
81171SOL    HW145352   2.198   3.545  13.061
81171SOL    HW245353   2.057   3.496  13.084
81172SOL     OW45354   5.190   5.160   5.852
81172SOL    HW145355   5.230   5.245   5.833
81172SOL    HW245356   5.257   5.111   5.899
81173SOL     OW45357  13.532   1.290   4.643
81173SOL    HW145358  13.605   1.257   4.696
81173SOL    HW245359  13.482   1.344   4.703
81174SOL     OW45360   8.689  13.960   7.989
81174SOL    HW145361   8.763  13.902   8.006
81174SOL    HW245362   8.665  13.995   8.075
81175SOL     OW45363   8.395   4.964   2.766
81175SOL    HW145364   8.371   4.880   2.726
81175SOL    HW245365   8.326   5.024   2.740
81176SOL     OW45366   0.977   5.759   9.129
81176SOL    HW145367   0.974   5.848   9.095
81176SOL    HW245368   0.911   5.758   9.199
81177SOL     OW45369  11.042   2.046   6.288
81177SOL    HW145370  11.068   1.986   6.358
81177SOL    HW245371  10.946   2.046   6.290
81178SOL     OW45372  14.592  11.838   2.398
81178SOL    HW145373  14.572  11.817   2.489
81178SOL    HW245374  14.522  11.897   2.371
81179SOL     OW45375  11.742   6.860   2.203
81179SOL    HW145376  11.699   6.847   2.119
81179SOL    HW245377  11.835   6.871   2.182
81180SOL     OW45378   1.067  14.423   0.403
81180SOL    HW145379   1.087  14.355   0.467
81180SOL    HW245380   1.019  14.489   0.452
81181SOL     OW45381  10.747   6.069   0.930
81181SOL    HW145382  10.753   6.061   0.835
81181SOL    HW245383  10.659   6.102   0.946
81182SOL     OW45384   8.450  14.011   1.447
81182SOL    HW145385   8.514  13.940   1.444
81182SOL    HW245386   8.367  13.971   1.421
81183SOL     OW45387  11.818  13.495  13.653
81183SOL    HW145388  11.782  13.502  13.565
81183SOL    HW245389  11.896  13.550  13.652
81184SOL     OW45390  14.638   6.223   1.032
81184SOL    HW145391  14.559   6.239   1.084
81184SOL    HW245392  14.630   6.131   1.005
81185SOL     OW45393  11.111   0.734   1.739
81185SOL    HW145394  11.145   0.724   1.650
81185SOL    HW245395  11.157   0.810   1.775
81186SOL     OW45396   6.194   4.779  11.820
81186SOL    HW145397   6.272   4.726  11.803
81186SOL    HW245398   6.157   4.795  11.733
81187SOL     OW45399  12.039   5.437   0.161
81187SOL    HW145400  12.125   5.396   0.153
81187SOL    HW245401  12.048   5.499   0.233
81188SOL     OW45402  14.065   6.389   3.218
81188SOL    HW145403  14.023   6.347   3.143
81188SOL    HW245404  13.993   6.413   3.276
81189SOL     OW45405  11.488   0.995  12.221
81189SOL    HW145406  11.580   1.012  12.202
81189SOL    HW245407  11.470   0.909  12.183
81190SOL     OW45408   8.330  10.006   0.900
81190SOL    HW145409   8.272  10.072   0.863
81190SOL    HW245410   8.419  10.039   0.884
81191SOL     OW45411   9.398   3.985  13.185
81191SOL    HW145412   9.452   3.993  13.264
81191SOL    HW245413   9.343   4.063  13.185
81192SOL     OW45414  10.902  13.610   9.060
81192SOL    HW145415  10.873  13.693   9.099
81192SOL    HW245416  10.824  13.576   9.017
81193SOL     OW45417   5.265   0.464   2.092
81193SOL    HW145418   5.254   0.370   2.111
81193SOL    HW245419   5.359   0.479   2.103
81194SOL     OW45420  11.434  13.526  10.687
81194SOL    HW145421  11.398  13.438  10.675
81194SOL    HW245422  11.509  13.530  10.628
81195SOL     OW45423   7.949   2.782   7.126
81195SOL    HW145424   7.923   2.872   7.108
81195SOL    HW245425   8.037   2.775   7.090
81196SOL     OW45426   1.064   5.247   3.635
81196SOL    HW145427   1.098   5.200   3.711
81196SOL    HW245428   0.982   5.203   3.614
81197SOL     OW45429   9.985   8.245  10.488
81197SOL    HW145430   9.972   8.321  10.545
81197SOL    HW245431   9.966   8.277  10.400
81198SOL     OW45432   9.242   0.191   9.760
81198SOL    HW145433   9.229   0.164   9.669
81198SOL    HW245434   9.186   0.131   9.810
81199SOL     OW45435   6.340   2.285   2.829
81199SOL    HW145436   6.289   2.353   2.786
81199SOL    HW245437   6.431   2.312   2.819
81200SOL     OW45438   2.347   3.738   0.365
81200SOL    HW145439   2.284   3.720   0.294
81200SOL    HW245440   2.356   3.834   0.364
81201SOL     OW45441   4.663   6.162   2.047
81201SOL    HW145442   4.672   6.255   2.027
81201SOL    HW245443   4.725   6.146   2.118
81202SOL     OW45444   0.711   9.751   9.149
81202SOL    HW145445   0.802   9.758   9.180
81202SOL    HW245446   0.664   9.710   9.221
81203SOL     OW45447   7.446   8.817   2.355
81203SOL    HW145448   7.465   8.755   2.284
81203SOL    HW245449   7.528   8.865   2.367
81204SOL     OW45450   4.030   5.778   9.540
81204SOL    HW145451   4.097   5.803   9.477
81204SOL    HW245452   3.988   5.860   9.565
81205SOL     OW45453   2.620  13.942  11.211
81205SOL    HW145454   2.686  13.962  11.276
81205SOL    HW245455   2.545  13.998  11.235
81206SOL     OW45456   6.813   5.463   2.013
81206SOL    HW145457   6.816   5.400   1.942
81206SOL    HW245458   6.898   5.454   2.057
81207SOL     OW45459   3.257  14.347   5.897
81207SOL    HW145460   3.306  14.424   5.868
81207SOL    HW245461   3.317  14.302   5.956
81208SOL     OW45462   1.596   5.859  14.168
81208SOL    HW145463   1.678   5.892  14.206
81208SOL    HW245464   1.607   5.764  14.165
81209SOL     OW45465  13.433   1.627   2.033
81209SOL    HW145466  13.435   1.627   1.938
81209SOL    HW245467  13.358   1.682   2.056
81210SOL     OW45468  14.029   9.519  12.726
81210SOL    HW145469  14.053   9.427  12.715
81210SOL    HW245470  14.104   9.559  12.771
81211SOL     OW45471   4.606  10.043   9.782
81211SOL    HW145472   4.587  10.136   9.775
81211SOL    HW245473   4.700  10.039   9.799
81212SOL     OW45474  10.180   8.276   2.485
81212SOL    HW145475  10.244   8.262   2.415
81212SOL    HW245476  10.198   8.365   2.516
81213SOL     OW45477   2.188  10.887   7.946
81213SOL    HW145478   2.144  10.963   7.986
81213SOL    HW245479   2.131  10.863   7.873
81214SOL     OW45480   1.118   0.769  10.125
81214SOL    HW145481   1.213   0.767  10.118
81214SOL    HW245482   1.100   0.838  10.188
81215SOL     OW45483  11.534  12.562   3.039
81215SOL    HW145484  11.535  12.626   3.110
81215SOL    HW245485  11.624  12.530   3.034
81216SOL     OW45486  11.885   6.715  12.258
81216SOL    HW145487  11.900   6.777  12.186
81216SOL    HW245488  11.799   6.676  12.239
81217SOL     OW45489   2.012   9.712   9.020
81217SOL    HW145490   1.994   9.621   9.046
81217SOL    HW245491   2.105   9.724   9.038
81218SOL     OW45492  12.352   4.561   2.928
81218SOL    HW145493  12.310   4.635   2.884
81218SOL    HW245494  12.321   4.484   2.880
81219SOL     OW45495  10.033   9.825   2.291
81219SOL    HW145496  10.060   9.734   2.303
81219SOL    HW245497   9.967   9.821   2.222
81220SOL     OW45498  11.048   9.421   3.634
81220SOL    HW145499  10.991   9.343   3.635
81220SOL    HW245500  10.994   9.490   3.673
81221SOL     OW45501   0.489  12.918   6.759
81221SOL    HW145502   0.440  12.843   6.793
81221SOL    HW245503   0.476  12.986   6.825
81222SOL     OW45504  11.810   2.504   8.036
81222SOL    HW145505  11.768   2.564   8.098
81222SOL    HW245506  11.903   2.506   8.058
81223SOL     OW45507   6.488   6.871   6.773
81223SOL    HW145508   6.525   6.823   6.847
81223SOL    HW245509   6.507   6.963   6.793
81224SOL     OW45510   3.640  10.985  10.955
81224SOL    HW145511   3.613  10.913  11.012
81224SOL    HW245512   3.687  11.045  11.013
81225SOL     OW45513  14.485   7.684   0.954
81225SOL    HW145514  14.393   7.711   0.947
81225SOL    HW245515  14.490   7.602   0.905
81226SOL     OW45516   2.830   0.953   2.057
81226SOL    HW145517   2.787   0.875   2.021
81226SOL    HW245518   2.760   1.017   2.066
81227SOL     OW45519   2.942  12.990   6.659
81227SOL    HW145520   3.016  12.930   6.667
81227SOL    HW245521   2.876  12.955   6.719
81228SOL     OW45522   6.986   7.173   5.797
81228SOL    HW145523   6.988   7.084   5.834
81228SOL    HW245524   6.952   7.161   5.709
81229SOL     OW45525   1.559   0.824  12.418
81229SOL    HW145526   1.565   0.849  12.510
81229SOL    HW245527   1.470   0.850  12.392
81230SOL     OW45528   9.274   2.192   1.571
81230SOL    HW145529   9.279   2.288   1.564
81230SOL    HW245530   9.365   2.165   1.580
81231SOL     OW45531   7.353  10.929   4.996
81231SOL    HW145532   7.366  10.975   4.913
81231SOL    HW245533   7.428  10.955   5.050
81232SOL     OW45534   0.637   0.290   1.298
81232SOL    HW145535   0.664   0.200   1.284
81232SOL    HW245536   0.543   0.290   1.284
81233SOL     OW45537   6.235   0.194  11.304
81233SOL    HW145538   6.264   0.103  11.314
81233SOL    HW245539   6.254   0.215  11.213
81234SOL     OW45540  12.121   7.770   8.738
81234SOL    HW145541  12.101   7.802   8.826
81234SOL    HW245542  12.104   7.676   8.742
81235SOL     OW45543   0.530   7.566   7.169
81235SOL    HW145544   0.469   7.529   7.233
81235SOL    HW245545   0.590   7.619   7.221
81236SOL     OW45546   6.991  10.203   8.299
81236SOL    HW145547   6.966  10.259   8.225
81236SOL    HW245548   6.919  10.141   8.308
81237SOL     OW45549  13.733  14.755   9.724
81237SOL    HW145550  13.671  14.707   9.779
81237SOL    HW245551  13.812  14.701   9.725
81238SOL     OW45552  14.376   4.802   8.464
81238SOL    HW145553  14.420   4.885   8.479
81238SOL    HW245554  14.411   4.771   8.381
81239SOL     OW45555   5.523   6.551   1.461
81239SOL    HW145556   5.454   6.485   1.463
81239SOL    HW245557   5.530   6.582   1.551
81240SOL     OW45558  11.701  13.044   1.353
81240SOL    HW145559  11.716  13.035   1.447
81240SOL    HW245560  11.646  13.122   1.346
81241SOL     OW45561   6.068  12.576   4.038
81241SOL    HW145562   6.105  12.602   3.954
81241SOL    HW245563   6.016  12.498   4.019
81242SOL     OW45564  13.065   6.887   4.399
81242SOL    HW145565  13.038   6.872   4.308
81242SOL    HW245566  13.141   6.830   4.410
81243SOL     OW45567   9.554   8.278   5.641
81243SOL    HW145568   9.632   8.331   5.631
81243SOL    HW245569   9.586   8.188   5.643
81244SOL     OW45570   3.908   8.087  14.601
81244SOL    HW145571   3.920   8.061  14.692
81244SOL    HW245572   3.990   8.131  14.577
81245SOL     OW45573   6.838   5.454   6.342
81245SOL    HW145574   6.888   5.515   6.396
81245SOL    HW245575   6.901   5.386   6.319
81246SOL     OW45576   1.195   9.738  10.843
81246SOL    HW145577   1.186   9.658  10.791
81246SOL    HW245578   1.247   9.796  10.788
81247SOL     OW45579   5.600  11.748   7.768
81247SOL    HW145580   5.514  11.726   7.733
81247SOL    HW245581   5.613  11.686   7.840
81248SOL     OW45582   5.203   9.949  13.387
81248SOL    HW145583   5.289   9.990  13.379
81248SOL    HW245584   5.149   9.992  13.321
81249SOL     OW45585  13.645  13.125  14.227
81249SOL    HW145586  13.651  13.094  14.317
81249SOL    HW245587  13.719  13.184  14.216
81250SOL     OW45588   0.490  10.313   3.065
81250SOL    HW145589   0.429  10.289   3.134
81250SOL    HW245590   0.574  10.278   3.093
81251SOL     OW45591  14.530   5.702   7.671
81251SOL    HW145592  14.456   5.649   7.641
81251SOL    HW245593  14.492   5.768   7.728
81252SOL     OW45594  13.841   6.002   6.556
81252SOL    HW145595  13.780   6.005   6.482
81252SOL    HW245596  13.791   6.039   6.629
81253SOL     OW45597   2.017   4.114   7.909
81253SOL    HW145598   2.009   4.056   7.985
81253SOL    HW245599   1.942   4.091   7.854
81254SOL     OW45600  11.746   9.457   3.852
81254SOL    HW145601  11.662   9.411   3.860
81254SOL    HW245602  11.783   9.426   3.770
81255SOL     OW45603   7.102   2.986  14.787
81255SOL    HW145604   7.018   2.999  14.831
81255SOL    HW245605   7.096   2.899  14.749
81256SOL     OW45606   1.757   8.827   4.965
81256SOL    HW145607   1.694   8.810   4.895
81256SOL    HW245608   1.738   8.916   4.994
81257SOL     OW45609  11.443  10.235  10.258
81257SOL    HW145610  11.348  10.243  10.258
81257SOL    HW245611  11.466  10.213  10.348
81258SOL     OW45612  12.581   5.564  12.766
81258SOL    HW145613  12.494   5.603  12.772
81258SOL    HW245614  12.631   5.624  12.710
81259SOL     OW45615   3.742  11.852  13.251
81259SOL    HW145616   3.827  11.895  13.255
81259SOL    HW245617   3.683  11.913  13.295
81260SOL     OW45618  14.722  13.754   4.749
81260SOL    HW145619  14.659  13.689   4.719
81260SOL    HW245620  14.801  13.736   4.697
81261SOL     OW45621   0.424  13.086   0.132
81261SOL    HW145622   0.453  13.029   0.061
81261SOL    HW245623   0.345  13.128   0.099
81262SOL     OW45624   7.419   7.277  14.628
81262SOL    HW145625   7.490   7.334  14.659
81262SOL    HW245626   7.344   7.299  14.683
81263SOL     OW45627   6.836   3.487   8.181
81263SOL    HW145628   6.915   3.527   8.145
81263SOL    HW245629   6.867   3.427   8.248
81264SOL     OW45630   9.080  11.893   0.466
81264SOL    HW145631   9.000  11.919   0.512
81264SOL    HW245632   9.056  11.894   0.374
81265SOL     OW45633   9.251  11.435   4.254
81265SOL    HW145634   9.326  11.419   4.311
81265SOL    HW245635   9.196  11.358   4.264
81266SOL     OW45636   4.946   4.495   2.780
81266SOL    HW145637   4.898   4.578   2.789
81266SOL    HW245638   4.903   4.437   2.843
81267SOL     OW45639   2.848  11.547  14.873
81267SOL    HW145640   2.836  11.621   0.051
81267SOL    HW245641   2.846  11.470   0.047
81268SOL     OW45642   3.072  14.496   5.231
81268SOL    HW145643   3.020  14.437   5.177
81268SOL    HW245644   3.050  14.473   5.321
81269SOL     OW45645   3.281   3.010   8.831
81269SOL    HW145646   3.315   3.091   8.793
81269SOL    HW245647   3.269   2.952   8.756
81270SOL     OW45648   4.463   5.695   3.165
81270SOL    HW145649   4.459   5.608   3.125
81270SOL    HW245650   4.379   5.704   3.211
81271SOL     OW45651   5.613   5.928   7.440
81271SOL    HW145652   5.663   5.896   7.514
81271SOL    HW245653   5.524   5.940   7.473
81272SOL     OW45654  14.757  13.287  14.857
81272SOL    HW145655  14.667  13.296  14.825
81272SOL    HW245656  14.748  13.272   0.069
81273SOL     OW45657   8.479   2.406  14.582
81273SOL    HW145658   8.478   2.487  14.633
81273SOL    HW245659   8.396   2.407  14.534
81274SOL     OW45660   8.544   0.224   6.639
81274SOL    HW145661   8.556   0.163   6.711
81274SOL    HW245662   8.485   0.179   6.578
81275SOL     OW45663   5.747  11.796  11.452
81275SOL    HW145664   5.808  11.752  11.393
81275SOL    HW245665   5.675  11.734  11.463
81276SOL     OW45666   5.882  12.963   5.053
81276SOL    HW145667   5.827  12.885   5.052
81276SOL    HW245668   5.876  12.995   5.143
81277SOL     OW45669   0.437   1.989   3.494
81277SOL    HW145670   0.383   1.968   3.570
81277SOL    HW245671   0.482   2.070   3.518
81278SOL     OW45672   7.143  13.900   4.700
81278SOL    HW145673   7.192  13.864   4.626
81278SOL    HW245674   7.203  13.962   4.741
81279SOL     OW45675   2.700  10.252   0.155
81279SOL    HW145676   2.619  10.285   0.195
81279SOL    HW245677   2.765  10.256   0.226
81280SOL     OW45678   3.836  10.830   9.841
81280SOL    HW145679   3.892  10.900   9.807
81280SOL    HW245680   3.893  10.754   9.844
81281SOL     OW45681   3.613   3.855  14.656
81281SOL    HW145682   3.573   3.871  14.741
81281SOL    HW245683   3.682   3.921  14.648
81282SOL     OW45684   3.736   5.304   1.257
81282SOL    HW145685   3.807   5.355   1.218
81282SOL    HW245686   3.780   5.247   1.320
81283SOL     OW45687   4.450   7.035   0.338
81283SOL    HW145688   4.446   7.102   0.407
81283SOL    HW245689   4.519   6.975   0.367
81284SOL     OW45690   6.690  13.527   4.295
81284SOL    HW145691   6.767  13.527   4.351
81284SOL    HW245692   6.617  13.511   4.355
81285SOL     OW45693   9.569  14.249   6.320
81285SOL    HW145694   9.654  14.259   6.363
81285SOL    HW245695   9.505  14.256   6.391
81286SOL     OW45696   0.007  10.342   4.682
81286SOL    HW145697  14.869  10.402   4.753
81286SOL    HW245698  14.867  10.390   4.602
81287SOL     OW45699  14.238   3.211   4.546
81287SOL    HW145700  14.225   3.172   4.459
81287SOL    HW245701  14.160   3.264   4.560
81288SOL     OW45702   0.935  10.247   5.067
81288SOL    HW145703   1.017  10.213   5.029
81288SOL    HW245704   0.937  10.218   5.158
81289SOL     OW45705  10.350   6.779  13.369
81289SOL    HW145706  10.331   6.871  13.352
81289SOL    HW245707  10.264   6.739  13.381
81290SOL     OW45708   5.540   7.978  13.168
81290SOL    HW145709   5.608   8.032  13.129
81290SOL    HW245710   5.465   7.987  13.109
81291SOL     OW45711  12.504   9.884   0.467
81291SOL    HW145712  12.451   9.900   0.545
81291SOL    HW245713  12.457   9.929   0.396
81292SOL     OW45714   0.088   0.771   9.134
81292SOL    HW145715   0.114   0.689   9.093
81292SOL    HW245716   0.106   0.758   9.228
81293SOL     OW45717  14.013   6.735   3.142
81293SOL    HW145718  13.973   6.822   3.154
81293SOL    HW245719  13.942   6.674   3.165
81294SOL     OW45720   6.528   2.098  13.203
81294SOL    HW145721   6.515   2.058  13.289
81294SOL    HW245722   6.446   2.143  13.185
81295SOL     OW45723   7.378   4.626  13.670
81295SOL    HW145724   7.332   4.700  13.631
81295SOL    HW245725   7.439   4.597  13.603
81296SOL     OW45726  11.937  13.287  14.670
81296SOL    HW145727  11.903  13.199  14.684
81296SOL    HW245728  11.860  13.344  14.674
81297SOL     OW45729   6.910   5.148   3.082
81297SOL    HW145730   6.838   5.087   3.062
81297SOL    HW245731   6.962   5.103   3.148
81298SOL     OW45732   1.898   8.208  14.010
81298SOL    HW145733   1.935   8.292  13.984
81298SOL    HW245734   1.827   8.193  13.947
81299SOL     OW45735  12.179  13.126   0.413
81299SOL    HW145736  12.131  13.060   0.463
81299SOL    HW245737  12.196  13.084   0.328
81300SOL     OW45738   4.727  10.679   2.618
81300SOL    HW145739   4.798  10.712   2.563
81300SOL    HW245740   4.770  10.618   2.678
81301SOL     OW45741  10.007   4.966   9.286
81301SOL    HW145742  10.064   5.017   9.343
81301SOL    HW245743   9.923   4.964   9.330
81302SOL     OW45744   9.075   4.918   1.458
81302SOL    HW145745   9.152   4.941   1.509
81302SOL    HW245746   9.001   4.945   1.512
81303SOL     OW45747  13.217   5.891  10.857
81303SOL    HW145748  13.214   5.796  10.844
81303SOL    HW245749  13.148   5.925  10.800
81304SOL     OW45750   8.443   5.207  11.082
81304SOL    HW145751   8.531   5.182  11.111
81304SOL    HW245752   8.385   5.142  11.122
81305SOL     OW45753   4.721   2.310   3.802
81305SOL    HW145754   4.707   2.404   3.806
81305SOL    HW245755   4.672   2.282   3.725
81306SOL     OW45756   6.505   3.752  13.979
81306SOL    HW145757   6.551   3.685  14.031
81306SOL    HW245758   6.488   3.823  14.041
81307SOL     OW45759   0.259   8.357  10.788
81307SOL    HW145760   0.297   8.429  10.839
81307SOL    HW245761   0.217   8.301  10.853
81308SOL     OW45762  12.336  13.833   0.841
81308SOL    HW145763  12.292  13.765   0.892
81308SOL    HW245764  12.310  13.816   0.751
81309SOL     OW45765   7.879   9.134   8.855
81309SOL    HW145766   7.825   9.056   8.845
81309SOL    HW245767   7.898   9.139   8.948
81310SOL     OW45768  14.432   3.594  13.295
81310SOL    HW145769  14.353   3.566  13.341
81310SOL    HW245770  14.402   3.660  13.233
81311SOL     OW45771   5.109   7.450   9.816
81311SOL    HW145772   5.155   7.373   9.849
81311SOL    HW245773   5.177   7.515   9.801
81312SOL     OW45774  13.847   6.417  13.142
81312SOL    HW145775  13.835   6.499  13.189
81312SOL    HW245776  13.844   6.441  13.049
81313SOL     OW45777   6.254  13.229  13.279
81313SOL    HW145778   6.237  13.277  13.198
81313SOL    HW245779   6.209  13.279  13.346
81314SOL     OW45780   4.957   2.253   3.271
81314SOL    HW145781   4.953   2.323   3.336
81314SOL    HW245782   4.866   2.233   3.251
81315SOL     OW45783   5.890  14.724   9.696
81315SOL    HW145784   5.917  14.661   9.763
81315SOL    HW245785   5.963  14.726   9.634
81316SOL     OW45786   4.396   1.842  14.619
81316SOL    HW145787   4.349   1.773  14.667
81316SOL    HW245788   4.351   1.923  14.643
81317SOL     OW45789  12.698   2.541   0.709
81317SOL    HW145790  12.610   2.514   0.734
81317SOL    HW245791  12.696   2.637   0.712
81318SOL     OW45792  10.619   5.481   6.945
81318SOL    HW145793  10.624   5.494   6.851
81318SOL    HW245794  10.555   5.546   6.975
81319SOL     OW45795  12.031   9.612   0.214
81319SOL    HW145796  12.116   9.619   0.169
81319SOL    HW245797  12.052   9.577   0.300
81320SOL     OW45798   1.121  10.094  10.644
81320SOL    HW145799   1.081  10.033  10.582
81320SOL    HW245800   1.048  10.147  10.675
81321SOL     OW45801   2.584   4.113   5.351
81321SOL    HW145802   2.557   4.203   5.371
81321SOL    HW245803   2.597   4.112   5.257
81322SOL     OW45804  14.181   4.436   0.955
81322SOL    HW145805  14.263   4.482   0.973
81322SOL    HW245806  14.121   4.505   0.927
81323SOL     OW45807   5.435   0.950  10.006
81323SOL    HW145808   5.488   1.023   9.973
81323SOL    HW245809   5.464   0.875   9.954
81324SOL     OW45810   2.218   3.696  14.772
81324SOL    HW145811   2.159   3.772  14.765
81324SOL    HW245812   2.229   3.683  14.866
81325SOL     OW45813   4.893   3.727   5.898
81325SOL    HW145814   4.954   3.668   5.943
81325SOL    HW245815   4.928   3.814   5.914
81326SOL     OW45816   2.127   1.257   6.136
81326SOL    HW145817   2.162   1.308   6.209
81326SOL    HW245818   2.095   1.176   6.175
81327SOL     OW45819   5.755   0.073   3.667
81327SOL    HW145820   5.660   0.073   3.676
81327SOL    HW245821   5.787   0.118   3.745
81328SOL     OW45822   6.544   2.919   2.127
81328SOL    HW145823   6.470   2.960   2.083
81328SOL    HW245824   6.602   2.991   2.149
81329SOL     OW45825   6.763   6.216   0.309
81329SOL    HW145826   6.841   6.265   0.332
81329SOL    HW245827   6.725   6.265   0.236
81330SOL     OW45828   3.674   1.875  12.435
81330SOL    HW145829   3.595   1.918  12.401
81330SOL    HW245830   3.742   1.895  12.370
81331SOL     OW45831   1.939  11.577   4.153
81331SOL    HW145832   1.962  11.498   4.104
81331SOL    HW245833   1.988  11.569   4.235
81332SOL     OW45834   0.264  12.821   8.402
81332SOL    HW145835   0.221  12.791   8.322
81332SOL    HW245836   0.192  12.838   8.463
81333SOL     OW45837   7.686  11.554   6.089
81333SOL    HW145838   7.729  11.472   6.115
81333SOL    HW245839   7.725  11.621   6.146
81334SOL     OW45840   6.110   9.797   1.954
81334SOL    HW145841   6.128   9.756   1.870
81334SOL    HW245842   6.139   9.733   2.019
81335SOL     OW45843   1.930  11.297  12.539
81335SOL    HW145844   1.981  11.217  12.523
81335SOL    HW245845   1.964  11.361  12.477
81336SOL     OW45846   7.021   3.515  13.704
81336SOL    HW145847   7.026   3.421  13.723
81336SOL    HW245848   6.965   3.551  13.773
81337SOL     OW45849  14.154   0.707   6.329
81337SOL    HW145850  14.243   0.716   6.293
81337SOL    HW245851  14.167   0.704   6.423
81338SOL     OW45852   4.463   7.560  12.490
81338SOL    HW145853   4.497   7.639  12.532
81338SOL    HW245854   4.372   7.583  12.467
81339SOL     OW45855  11.699  12.689  10.298
81339SOL    HW145856  11.774  12.737  10.263
81339SOL    HW245857  11.724  12.668  10.388
81340SOL     OW45858   1.486   7.498   9.165
81340SOL    HW145859   1.544   7.426   9.141
81340SOL    HW245860   1.438   7.467   9.241
81341SOL     OW45861   7.281  13.511   1.961
81341SOL    HW145862   7.250  13.591   1.920
81341SOL    HW245863   7.281  13.531   2.055
81342SOL     OW45864   9.733  11.471  11.095
81342SOL    HW145865   9.818  11.462  11.138
81342SOL    HW245866   9.704  11.381  11.079
81343SOL     OW45867   1.314   7.889  13.707
81343SOL    HW145868   1.264   7.952  13.656
81343SOL    HW245869   1.248   7.836  13.752
81344SOL     OW45870  11.021   0.187   9.896
81344SOL    HW145871  10.938   0.167   9.853
81344SOL    HW245872  11.083   0.201   9.825
81345SOL     OW45873   5.512   9.530  14.589
81345SOL    HW145874   5.596   9.539  14.546
81345SOL    HW245875   5.448   9.537  14.519
81346SOL     OW45876   1.682  14.876   5.818
81346SOL    HW145877   1.631  14.821   5.877
81346SOL    HW245878   1.773  14.858   5.841
81347SOL     OW45879   4.274   6.784  12.771
81347SOL    HW145880   4.244   6.874  12.757
81347SOL    HW245881   4.321   6.788  12.854
81348SOL     OW45882   5.321  11.141  12.619
81348SOL    HW145883   5.365  11.075  12.566
81348SOL    HW245884   5.242  11.098  12.650
81349SOL     OW45885  14.574   7.707   4.452
81349SOL    HW145886  14.494   7.661   4.479
81349SOL    HW245887  14.596   7.669   4.367
81350SOL     OW45888   6.118   0.244   5.679
81350SOL    HW145889   6.130   0.150   5.694
81350SOL    HW245890   6.144   0.257   5.588
81351SOL     OW45891  14.598  11.192   8.784
81351SOL    HW145892  14.582  11.226   8.696
81351SOL    HW245893  14.573  11.263   8.843
81352SOL     OW45894   7.621  11.777   3.843
81352SOL    HW145895   7.671  11.698   3.820
81352SOL    HW245896   7.650  11.797   3.932
81353SOL     OW45897  12.445   5.192  10.346
81353SOL    HW145898  12.368   5.235  10.310
81353SOL    HW245899  12.444   5.214  10.440
81354SOL     OW45900   4.481   4.746   3.624
81354SOL    HW145901   4.450   4.786   3.706
81354SOL    HW245902   4.550   4.804   3.594
81355SOL     OW45903  12.378   8.298   7.082
81355SOL    HW145904  12.320   8.372   7.097
81355SOL    HW245905  12.389   8.294   6.987
81356SOL     OW45906  13.047  13.344   7.095
81356SOL    HW145907  13.118  13.376   7.041
81356SOL    HW245908  13.082  13.346   7.185
81357SOL     OW45909   3.341   0.235   8.437
81357SOL    HW145910   3.395   0.163   8.468
81357SOL    HW245911   3.345   0.229   8.341
81358SOL     OW45912  11.811   0.502   5.508
81358SOL    HW145913  11.891   0.476   5.463
81358SOL    HW245914  11.783   0.583   5.464
81359SOL     OW45915  14.504   8.968  10.606
81359SOL    HW145916  14.517   8.874  10.619
81359SOL    HW245917  14.417   8.975  10.566
81360SOL     OW45918  10.419   5.794  14.627
81360SOL    HW145919  10.479   5.787  14.700
81360SOL    HW245920  10.471   5.831  14.556
81361SOL     OW45921  13.387   1.666   1.760
81361SOL    HW145922  13.308   1.715   1.740
81361SOL    HW245923  13.371   1.579   1.723
81362SOL     OW45924   2.869   2.231   8.275
81362SOL    HW145925   2.781   2.264   8.254
81362SOL    HW245926   2.854   2.161   8.339
81363SOL     OW45927   1.274   7.958   9.381
81363SOL    HW145928   1.365   7.982   9.361
81363SOL    HW245929   1.225   7.985   9.304
81364SOL     OW45930   0.309   9.783  13.758
81364SOL    HW145931   0.356   9.790  13.675
81364SOL    HW245932   0.217   9.786  13.734
81365SOL     OW45933   1.844   4.921  13.188
81365SOL    HW145934   1.766   4.940  13.240
81365SOL    HW245935   1.874   4.836  13.220
81366SOL     OW45936  11.920  12.455   8.686
81366SOL    HW145937  12.011  12.483   8.694
81366SOL    HW245938  11.907  12.441   8.593
81367SOL     OW45939  12.699   9.165   0.054
81367SOL    HW145940  12.733   9.247   0.018
81367SOL    HW245941  12.627   9.192   0.111
81368SOL     OW45942   7.391   4.532  11.031
81368SOL    HW145943   7.428   4.599  11.089
81368SOL    HW245944   7.350   4.581  10.960
81369SOL     OW45945   9.886  10.801  10.732
81369SOL    HW145946   9.871  10.781  10.825
81369SOL    HW245947   9.845  10.729  10.685
81370SOL     OW45948   4.352   8.667   5.736
81370SOL    HW145949   4.272   8.614   5.729
81370SOL    HW245950   4.404   8.624   5.803
81371SOL     OW45951   4.952  14.693   4.661
81371SOL    HW145952   5.003  14.726   4.587
81371SOL    HW245953   4.861  14.702   4.633
81372SOL     OW45954  10.883  12.763   6.576
81372SOL    HW145955  10.842  12.831   6.523
81372SOL    HW245956  10.977  12.784   6.573
81373SOL     OW45957   4.541   0.737  12.659
81373SOL    HW145958   4.490   0.659  12.686
81373SOL    HW245959   4.590   0.761  12.737
81374SOL     OW45960   9.133   1.969   6.462
81374SOL    HW145961   9.126   1.963   6.367
81374SOL    HW245962   9.044   1.982   6.493
81375SOL     OW45963  11.711   7.077   2.770
81375SOL    HW145964  11.716   6.982   2.770
81375SOL    HW245965  11.663   7.099   2.690
81376SOL     OW45966   8.374   6.452   5.894
81376SOL    HW145967   8.416   6.366   5.886
81376SOL    HW245968   8.283   6.433   5.914
81377SOL     OW45969   5.847   8.603  14.471
81377SOL    HW145970   5.918   8.636  14.417
81377SOL    HW245971   5.871   8.512  14.490
81378SOL     OW45972  10.382  11.084   5.616
81378SOL    HW145973  10.364  11.030   5.692
81378SOL    HW245974  10.476  11.073   5.601
81379SOL     OW45975  13.439   9.515   0.560
81379SOL    HW145976  13.377   9.456   0.602
81379SOL    HW245977  13.419   9.508   0.466
81380SOL     OW45978   6.636   8.436   0.674
81380SOL    HW145979   6.620   8.397   0.760
81380SOL    HW245980   6.632   8.530   0.689
81381SOL     OW45981   4.040   5.271   1.659
81381SOL    HW145982   4.051   5.347   1.602
81381SOL    HW245983   3.958   5.231   1.631
81382SOL     OW45984   3.756  10.841   4.224
81382SOL    HW145985   3.671  10.863   4.263
81382SOL    HW245986   3.761  10.893   4.145
81383SOL     OW45987  10.962   3.795  11.494
81383SOL    HW145988  10.968   3.759  11.406
81383SOL    HW245989  10.975   3.889  11.482
81384SOL     OW45990   8.789   2.208  12.224
81384SOL    HW145991   8.815   2.163  12.305
81384SOL    HW245992   8.819   2.149  12.155
81385SOL     OW45993  11.140   5.360   0.241
81385SOL    HW145994  11.212   5.301   0.264
81385SOL    HW245995  11.116   5.335   0.152
81386SOL     OW45996  12.202  10.831   5.270
81386SOL    HW145997  12.148  10.890   5.322
81386SOL    HW245998  12.217  10.756   5.327
81387SOL     OW45999   7.255   9.086   9.750
81387SOL    HW146000   7.318   9.158   9.744
81387SOL    HW246001   7.261   9.057   9.841
81388SOL     OW46002   4.738  11.402  13.070
81388SOL    HW146003   4.724  11.313  13.037
81388SOL    HW246004   4.833  11.410  13.078
81389SOL     OW46005  13.648  10.318   3.507
81389SOL    HW146006  13.568  10.269   3.526
81389SOL    HW246007  13.620  10.390   3.450
81390SOL     OW46008   3.316  10.257   9.032
81390SOL    HW146009   3.275  10.181   8.990
81390SOL    HW246010   3.408  10.233   9.040
81391SOL     OW46011   3.206   5.546   4.775
81391SOL    HW146012   3.114   5.535   4.752
81391SOL    HW246013   3.217   5.501   4.858
81392SOL     OW46014   7.762   3.953  11.208
81392SOL    HW146015   7.731   4.039  11.235
81392SOL    HW246016   7.746   3.950  11.113
81393SOL     OW46017   2.135   8.255  12.621
81393SOL    HW146018   2.221   8.250  12.663
81393SOL    HW246019   2.143   8.327  12.558
81394SOL     OW46020   4.616   0.009   7.430
81394SOL    HW146021   4.676   0.080   7.453
81394SOL    HW246022   4.587  14.856   7.514
81395SOL     OW46023   8.418   3.792   4.962
81395SOL    HW146024   8.497   3.801   4.909
81395SOL    HW246025   8.420   3.866   5.022
81396SOL     OW46026   1.667   3.347  13.252
81396SOL    HW146027   1.584   3.323  13.292
81396SOL    HW246028   1.723   3.271  13.266
81397SOL     OW46029   1.767  14.050   7.164
81397SOL    HW146030   1.711  14.085   7.094
81397SOL    HW246031   1.856  14.079   7.140
81398SOL     OW46032  13.521   0.673   2.476
81398SOL    HW146033  13.527   0.745   2.414
81398SOL    HW246034  13.572   0.702   2.552
81399SOL     OW46035   4.983  10.871   8.030
81399SOL    HW146036   5.037  10.794   8.049
81399SOL    HW246037   4.949  10.855   7.942
81400SOL     OW46038   8.277   4.192   9.388
81400SOL    HW146039   8.260   4.159   9.300
81400SOL    HW246040   8.258   4.118   9.446
81401SOL     OW46041  14.458  12.783   0.365
81401SOL    HW146042  14.474  12.859   0.421
81401SOL    HW246043  14.515  12.714   0.400
81402SOL     OW46044  11.449  13.394   9.327
81402SOL    HW146045  11.429  13.483   9.298
81402SOL    HW246046  11.477  13.404   9.418
81403SOL     OW46047  11.907   4.710   1.445
81403SOL    HW146048  11.875   4.637   1.498
81403SOL    HW246049  11.894   4.787   1.499
81404SOL     OW46050   9.249   0.014   0.658
81404SOL    HW146051   9.285   0.081   0.717
81404SOL    HW246052   9.264   0.050   0.570
81405SOL     OW46053  14.613   9.947   5.485
81405SOL    HW146054  14.651   9.860   5.499
81405SOL    HW246055  14.689  10.004   5.472
81406SOL     OW46056   2.538   1.521   9.603
81406SOL    HW146057   2.630   1.498   9.617
81406SOL    HW246058   2.494   1.498   9.684
81407SOL     OW46059   4.486  14.724   0.031
81407SOL    HW146060   4.477  14.782   0.106
81407SOL    HW246061   4.514  14.781  14.842
81408SOL     OW46062  11.838  12.063  14.202
81408SOL    HW146063  11.769  12.125  14.179
81408SOL    HW246064  11.792  11.983  14.227
81409SOL     OW46065   2.047   1.672  10.325
81409SOL    HW146066   2.130   1.715  10.302
81409SOL    HW246067   1.993   1.741  10.362
81410SOL     OW46068   6.842   8.272   8.444
81410SOL    HW146069   6.785   8.251   8.518
81410SOL    HW246070   6.894   8.346   8.473
81411SOL     OW46071  10.110   4.985   2.492
81411SOL    HW146072  10.021   4.965   2.520
81411SOL    HW246073  10.124   4.928   2.416
81412SOL     OW46074   1.617   1.099  13.917
81412SOL    HW146075   1.658   1.183  13.937
81412SOL    HW246076   1.685   1.049  13.871
81413SOL     OW46077  11.791  12.775   3.855
81413SOL    HW146078  11.836  12.691   3.846
81413SOL    HW246079  11.825  12.812   3.936
81414SOL     OW46080  14.315  14.702   0.670
81414SOL    HW146081  14.266  14.679   0.749
81414SOL    HW246082  14.361  14.782   0.692
81415SOL     OW46083   7.028   4.805   9.192
81415SOL    HW146084   7.062   4.807   9.103
81415SOL    HW246085   7.077   4.734   9.235
81416SOL     OW46086  11.870   1.857   8.144
81416SOL    HW146087  11.966   1.858   8.135
81416SOL    HW246088  11.853   1.899   8.228
81417SOL     OW46089   5.066   5.833  13.290
81417SOL    HW146090   4.996   5.899  13.297
81417SOL    HW246091   5.049   5.789  13.206
81418SOL     OW46092   5.938  13.248  10.330
81418SOL    HW146093   6.020  13.247  10.380
81418SOL    HW246094   5.944  13.171  10.273
81419SOL     OW46095   0.882  14.866   6.147
81419SOL    HW146096   0.805   0.026   6.108
81419SOL    HW246097   0.904   0.041   6.222
81420SOL     OW46098  10.994   8.835  10.384
81420SOL    HW146099  10.981   8.785  10.303
81420SOL    HW246100  11.076   8.803  10.420
81421SOL     OW46101   0.089   6.977   6.397
81421SOL    HW146102   0.063   6.948   6.485
81421SOL    HW246103   0.179   6.944   6.387
81422SOL     OW46104   1.052  13.552   2.951
81422SOL    HW146105   1.045  13.521   2.861
81422SOL    HW246106   1.143  13.537   2.975
81423SOL     OW46107   5.822   3.668   2.020
81423SOL    HW146108   5.753   3.732   2.005
81423SOL    HW246109   5.806   3.599   1.956
81424SOL     OW46110   0.124  12.562  12.095
81424SOL    HW146111   0.213  12.560  12.131
81424SOL    HW246112   0.101  12.470  12.083
81425SOL     OW46113   3.040  13.016   7.482
81425SOL    HW146114   3.105  13.085   7.495
81425SOL    HW246115   2.967  13.059   7.438
81426SOL     OW46116   4.680   4.613   4.746
81426SOL    HW146117   4.763   4.649   4.777
81426SOL    HW246118   4.614   4.677   4.773
81427SOL     OW46119   8.207   5.122   1.555
81427SOL    HW146120   8.263   5.161   1.622
81427SOL    HW246121   8.241   5.155   1.472
81428SOL     OW46122   0.457   6.761  13.795
81428SOL    HW146123   0.371   6.795  13.770
81428SOL    HW246124   0.448   6.738  13.887
81429SOL     OW46125   5.557   9.875   9.756
81429SOL    HW146126   5.599   9.928   9.825
81429SOL    HW246127   5.465   9.902   9.759
81430SOL     OW46128   5.634   5.231   1.594
81430SOL    HW146129   5.687   5.174   1.650
81430SOL    HW246130   5.601   5.299   1.654
81431SOL     OW46131   7.067   1.606  11.342
81431SOL    HW146132   7.008   1.606  11.266
81431SOL    HW246133   7.008   1.593  11.417
81432SOL     OW46134   6.059   6.454   5.509
81432SOL    HW146135   5.993   6.464   5.440
81432SOL    HW246136   6.017   6.490   5.587
81433SOL     OW46137   0.564   1.692   0.388
81433SOL    HW146138   0.502   1.763   0.370
81433SOL    HW246139   0.610   1.720   0.467
81434SOL     OW46140   4.852  12.619  11.830
81434SOL    HW146141   4.895  12.540  11.863
81434SOL    HW246142   4.902  12.643  11.752
81435SOL     OW46143   7.875   2.941   8.685
81435SOL    HW146144   7.842   2.874   8.745
81435SOL    HW246145   7.921   2.891   8.617
81436SOL     OW46146   3.134  10.390   2.114
81436SOL    HW146147   3.056  10.406   2.168
81436SOL    HW246148   3.192  10.464   2.136
81437SOL     OW46149  13.147  11.573   9.311
81437SOL    HW146150  13.081  11.506   9.331
81437SOL    HW246151  13.152  11.625   9.391
81438SOL     OW46152  12.141  13.908   2.189
81438SOL    HW146153  12.059  13.905   2.141
81438SOL    HW246154  12.192  13.834   2.154
81439SOL     OW46155   1.011  11.593  10.315
81439SOL    HW146156   0.924  11.589  10.355
81439SOL    HW246157   1.063  11.643  10.378
81440SOL     OW46158   3.811   8.696   1.477
81440SOL    HW146159   3.863   8.646   1.414
81440SOL    HW246160   3.764   8.630   1.527
81441SOL     OW46161   5.067   9.078   4.852
81441SOL    HW146162   5.084   9.064   4.758
81441SOL    HW246163   5.154   9.077   4.892
81442SOL     OW46164   4.914   8.212  12.358
81442SOL    HW146165   4.866   8.147  12.305
81442SOL    HW246166   4.852   8.284  12.369
81443SOL     OW46167   2.301   8.829   3.975
81443SOL    HW146168   2.346   8.840   3.891
81443SOL    HW246169   2.249   8.750   3.964
81444SOL     OW46170   2.713   6.202  10.544
81444SOL    HW146171   2.748   6.128  10.495
81444SOL    HW246172   2.785   6.264  10.548
81445SOL     OW46173   0.137  10.315  13.557
81445SOL    HW146174   0.177  10.383  13.504
81445SOL    HW246175   0.190  10.312  13.637
81446SOL     OW46176   6.128   9.082   6.330
81446SOL    HW146177   6.054   9.062   6.273
81446SOL    HW246178   6.141   9.176   6.321
81447SOL     OW46179   3.443   0.048  12.252
81447SOL    HW146180   3.355   0.043  12.214
81447SOL    HW246181   3.463  14.841  12.279
81448SOL     OW46182  13.625   2.964  11.203
81448SOL    HW146183  13.641   2.905  11.130
81448SOL    HW246184  13.642   2.911  11.281
81449SOL     OW46185   6.872  14.737   1.463
81449SOL    HW146186   6.896  14.799   1.532
81449SOL    HW246187   6.919  14.657   1.487
81450SOL     OW46188   8.775  14.374   7.489
81450SOL    HW146189   8.729  14.383   7.405
81450SOL    HW246190   8.706  14.356   7.552
81451SOL     OW46191   0.917   5.216   2.392
81451SOL    HW146192   0.919   5.161   2.313
81451SOL    HW246193   0.853   5.173   2.449
81452SOL     OW46194   0.451  13.368   3.374
81452SOL    HW146195   0.356  13.378   3.368
81452SOL    HW246196   0.482  13.371   3.284
81453SOL     OW46197   5.849  10.265  13.817
81453SOL    HW146198   5.841  10.354  13.850
81453SOL    HW246199   5.779  10.257  13.752
81454SOL     OW46200   4.111  13.336  11.088
81454SOL    HW146201   4.206  13.336  11.079
81454SOL    HW246202   4.079  13.301  11.005
81455SOL     OW46203   4.760   5.207   2.262
81455SOL    HW146204   4.736   5.248   2.346
81455SOL    HW246205   4.856   5.201   2.265
81456SOL     OW46206   4.291   3.682   1.394
81456SOL    HW146207   4.271   3.746   1.326
81456SOL    HW246208   4.357   3.625   1.354
81457SOL     OW46209  13.943   2.931   4.695
81457SOL    HW146210  14.002   2.856   4.706
81457SOL    HW246211  13.954   2.958   4.604
81458SOL     OW46212  10.016   0.398  12.946
81458SOL    HW146213   9.979   0.459  12.882
81458SOL    HW246214   9.944   0.340  12.969
81459SOL     OW46215   4.915   1.078   1.601
81459SOL    HW146216   5.003   1.109   1.622
81459SOL    HW246217   4.913   1.073   1.506
81460SOL     OW46218   9.938   3.516   6.863
81460SOL    HW146219   9.901   3.592   6.907
81460SOL    HW246220   9.886   3.442   6.895
81461SOL     OW46221  11.118   5.789   4.035
81461SOL    HW146222  11.141   5.773   3.944
81461SOL    HW246223  11.188   5.747   4.085
81462SOL     OW46224   9.123  14.324   1.127
81462SOL    HW146225   9.094  14.407   1.166
81462SOL    HW246226   9.109  14.260   1.196
81463SOL     OW46227   9.522   0.102   0.256
81463SOL    HW146228   9.485   0.161   0.190
81463SOL    HW246229   9.556   0.028   0.205
81464SOL     OW46230  14.248   1.146  10.688
81464SOL    HW146231  14.205   1.081  10.743
81464SOL    HW246232  14.311   1.189  10.747
81465SOL     OW46233   4.953   5.087  10.188
81465SOL    HW146234   4.981   5.053  10.272
81465SOL    HW246235   4.869   5.129  10.205
81466SOL     OW46236   7.014   3.625  12.562
81466SOL    HW146237   7.094   3.578  12.538
81466SOL    HW246238   6.961   3.624  12.483
81467SOL     OW46239   6.060  10.092   1.278
81467SOL    HW146240   6.080  10.029   1.346
81467SOL    HW246241   5.965  10.087   1.267
81468SOL     OW46242  11.261  13.647   1.104
81468SOL    HW146243  11.185  13.670   1.050
81468SOL    HW246244  11.336  13.659   1.045
81469SOL     OW46245   7.871   0.267   0.614
81469SOL    HW146246   7.794   0.228   0.656
81469SOL    HW246247   7.895   0.204   0.545
81470SOL     OW46248   8.574  12.052   3.789
81470SOL    HW146249   8.530  12.027   3.708
81470SOL    HW246250   8.513  12.112   3.832
81471SOL     OW46251   2.317   5.567  13.396
81471SOL    HW146252   2.335   5.513  13.474
81471SOL    HW246253   2.327   5.657  13.427
81472SOL     OW46254   5.827   0.267   1.583
81472SOL    HW146255   5.743   0.273   1.540
81472SOL    HW246256   5.883   0.329   1.536
81473SOL     OW46257   9.036   6.690  12.148
81473SOL    HW146258   9.103   6.666  12.212
81473SOL    HW246259   9.077   6.673  12.063
81474SOL     OW46260   8.689   2.798   4.214
81474SOL    HW146261   8.604   2.756   4.228
81474SOL    HW246262   8.753   2.728   4.225
81475SOL     OW46263   1.809   7.997   8.168
81475SOL    HW146264   1.760   7.936   8.112
81475SOL    HW246265   1.880   8.029   8.112
81476SOL     OW46266   8.214   6.833   5.697
81476SOL    HW146267   8.194   6.741   5.717
81476SOL    HW246268   8.308   6.841   5.718
81477SOL     OW46269  10.203   2.085   9.724
81477SOL    HW146270  10.191   2.013   9.786
81477SOL    HW246271  10.278   2.134   9.757
81478SOL     OW46272  13.867  11.004   2.778
81478SOL    HW146273  13.926  10.953   2.722
81478SOL    HW246274  13.781  10.995   2.737
81479SOL     OW46275  12.979  14.856   8.049
81479SOL    HW146276  12.989   0.044   8.114
81479SOL    HW246277  13.055  14.799   8.062
81480SOL     OW46278   2.870   3.198  14.151
81480SOL    HW146279   2.778   3.199  14.125
81480SOL    HW246280   2.918   3.214  14.070
81481SOL     OW46281  12.437  13.878   7.988
81481SOL    HW146282  12.399  13.964   8.004
81481SOL    HW246283  12.366  13.816   8.004
81482SOL     OW46284  13.829   1.068  12.995
81482SOL    HW146285  13.748   1.055  13.045
81482SOL    HW246286  13.857   1.157  13.019
81483SOL     OW46287   5.981  12.341   6.736
81483SOL    HW146288   6.064  12.319   6.778
81483SOL    HW246289   5.925  12.373   6.806
81484SOL     OW46290   4.371   6.350   7.311
81484SOL    HW146291   4.395   6.380   7.399
81484SOL    HW246292   4.455   6.338   7.267
81485SOL     OW46293   1.170  13.435   9.987
81485SOL    HW146294   1.114  13.369   9.946
81485SOL    HW246295   1.128  13.455  10.071
81486SOL     OW46296   2.817   3.878   0.389
81486SOL    HW146297   2.906   3.843   0.394
81486SOL    HW246298   2.828   3.967   0.354
81487SOL     OW46299   8.570   5.193   8.541
81487SOL    HW146300   8.533   5.228   8.460
81487SOL    HW246301   8.499   5.143   8.581
81488SOL     OW46302   1.426  11.119   5.551
81488SOL    HW146303   1.508  11.126   5.503
81488SOL    HW246304   1.366  11.076   5.491
81489SOL     OW46305   9.813  10.104   8.528
81489SOL    HW146306   9.755  10.042   8.484
81489SOL    HW246307   9.860  10.147   8.457
81490SOL     OW46308   3.517   4.222   6.790
81490SOL    HW146309   3.544   4.313   6.798
81490SOL    HW246310   3.529   4.201   6.698
81491SOL     OW46311  11.117   6.894   6.928
81491SOL    HW146312  11.166   6.890   6.845
81491SOL    HW246313  11.180   6.929   6.991
81492SOL     OW46314   4.269  13.146   1.542
81492SOL    HW146315   4.270  13.137   1.637
81492SOL    HW246316   4.284  13.058   1.509
81493SOL     OW46317   9.575  11.582  13.691
81493SOL    HW146318   9.584  11.498  13.647
81493SOL    HW246319   9.576  11.646  13.620
81494SOL     OW46320   4.021   9.678   4.369
81494SOL    HW146321   4.088   9.720   4.315
81494SOL    HW246322   4.003   9.741   4.439
81495SOL     OW46323  12.563   2.881   1.211
81495SOL    HW146324  12.607   2.965   1.224
81495SOL    HW246325  12.614   2.837   1.144
81496SOL     OW46326   8.251   3.903   8.912
81496SOL    HW146327   8.217   3.845   8.980
81496SOL    HW246328   8.175   3.952   8.882
81497SOL     OW46329   3.569   1.435  12.838
81497SOL    HW146330   3.659   1.429  12.808
81497SOL    HW246331   3.521   1.471  12.763
81498SOL     OW46332   0.279  14.042   8.163
81498SOL    HW146333   0.212  14.066   8.228
81498SOL    HW246334   0.307  14.126   8.127
81499SOL     OW46335   4.414   0.521  13.092
81499SOL    HW146336   4.410   0.533  13.187
81499SOL    HW246337   4.324   0.503  13.065
81500SOL     OW46338   6.934   2.769   9.742
81500SOL    HW146339   6.853   2.788   9.791
81500SOL    HW246340   6.934   2.833   9.671
81501SOL     OW46341   7.553   3.907   1.574
81501SOL    HW146342   7.592   3.874   1.494
81501SOL    HW246343   7.459   3.899   1.561
81502SOL     OW46344  14.397   3.278   4.865
81502SOL    HW146345  14.305   3.296   4.888
81502SOL    HW246346  14.447   3.306   4.941
81503SOL     OW46347  14.576  13.296   9.516
81503SOL    HW146348  14.496  13.327   9.557
81503SOL    HW246349  14.585  13.206   9.547
81504SOL     OW46350   4.114   0.488  13.818
81504SOL    HW146351   4.055   0.427  13.774
81504SOL    HW246352   4.057   0.557  13.851
81505SOL     OW46353   6.107   0.844   6.583
81505SOL    HW146354   6.016   0.816   6.575
81505SOL    HW246355   6.137   0.855   6.493
81506SOL     OW46356  11.651   1.910  10.821
81506SOL    HW146357  11.630   1.822  10.854
81506SOL    HW246358  11.624   1.969  10.892
81507SOL     OW46359  13.184   8.207  13.898
81507SOL    HW146360  13.241   8.232  13.825
81507SOL    HW246361  13.234   8.141  13.946
81508SOL     OW46362   4.697  10.245   0.675
81508SOL    HW146363   4.625  10.244   0.738
81508SOL    HW246364   4.728  10.336   0.675
81509SOL     OW46365  10.243   7.241   6.031
81509SOL    HW146366  10.156   7.208   6.009
81509SOL    HW246367  10.277   7.275   5.948
81510SOL     OW46368   3.722  12.856   0.657
81510SOL    HW146369   3.657  12.821   0.597
81510SOL    HW246370   3.673  12.916   0.714
81511SOL     OW46371   7.280  14.599   5.650
81511SOL    HW146372   7.369  14.581   5.618
81511SOL    HW246373   7.285  14.581   5.744
81512SOL     OW46374  14.239  11.790  11.448
81512SOL    HW146375  14.275  11.843  11.377
81512SOL    HW246376  14.294  11.812  11.524
81513SOL     OW46377  11.209  12.297   5.069
81513SOL    HW146378  11.195  12.276   5.161
81513SOL    HW246379  11.298  12.333   5.066
81514SOL     OW46380   7.376  10.689   1.949
81514SOL    HW146381   7.306  10.670   1.887
81514SOL    HW246382   7.368  10.782   1.968
81515SOL     OW46383   2.354   9.889  10.493
81515SOL    HW146384   2.443   9.921  10.476
81515SOL    HW246385   2.367   9.807  10.540
81516SOL     OW46386   3.559   1.200   8.654
81516SOL    HW146387   3.625   1.191   8.585
81516SOL    HW246388   3.515   1.282   8.635
81517SOL     OW46389   5.194   8.416   8.860
81517SOL    HW146390   5.218   8.346   8.921
81517SOL    HW246391   5.100   8.429   8.875
81518SOL     OW46392  14.330   8.211   4.648
81518SOL    HW146393  14.425   8.221   4.654
81518SOL    HW246394  14.315   8.118   4.667
81519SOL     OW46395   8.304  10.206   4.541
81519SOL    HW146396   8.396  10.180   4.548
81519SOL    HW246397   8.257  10.123   4.532
81520SOL     OW46398   9.065   6.814   7.688
81520SOL    HW146399   9.147   6.785   7.647
81520SOL    HW246400   9.035   6.886   7.633
81521SOL     OW46401   6.304   4.466   9.380
81521SOL    HW146402   6.225   4.429   9.340
81521SOL    HW246403   6.277   4.553   9.409
81522SOL     OW46404   4.356   8.538   3.205
81522SOL    HW146405   4.319   8.478   3.270
81522SOL    HW246406   4.281   8.566   3.153
81523SOL     OW46407  11.870   2.235   3.750
81523SOL    HW146408  11.897   2.175   3.681
81523SOL    HW246409  11.786   2.200   3.781
81524SOL     OW46410  14.653   2.554   1.576
81524SOL    HW146411  14.558   2.552   1.586
81524SOL    HW246412  14.682   2.467   1.603
81525SOL     OW46413   0.477   5.350  11.072
81525SOL    HW146414   0.401   5.383  11.023
81525SOL    HW246415   0.439   5.314  11.152
81526SOL     OW46416   2.865   7.172   0.337
81526SOL    HW146417   2.933   7.106   0.323
81526SOL    HW246418   2.832   7.191   0.249
81527SOL     OW46419   8.454   7.090  10.205
81527SOL    HW146420   8.424   7.102  10.115
81527SOL    HW246421   8.461   6.995  10.216
81528SOL     OW46422  11.407  12.528   4.712
81528SOL    HW146423  11.409  12.601   4.775
81528SOL    HW246424  11.314  12.504   4.707
81529SOL     OW46425  12.632  13.211   2.008
81529SOL    HW146426  12.551  13.228   1.961
81529SOL    HW246427  12.701  13.239   1.948
81530SOL     OW46428   5.145   9.295  12.398
81530SOL    HW146429   5.072   9.348  12.365
81530SOL    HW246430   5.118   9.205  12.382
81531SOL     OW46431  14.312  10.514   5.246
81531SOL    HW146432  14.321  10.553   5.333
81531SOL    HW246433  14.357  10.430   5.252
81532SOL     OW46434   7.942  11.404  12.898
81532SOL    HW146435   8.024  11.418  12.851
81532SOL    HW246436   7.908  11.322  12.864
81533SOL     OW46437   3.687  13.150   2.692
81533SOL    HW146438   3.631  13.107   2.627
81533SOL    HW246439   3.633  13.220   2.728
81534SOL     OW46440  10.870   5.507   9.446
81534SOL    HW146441  10.902   5.427   9.488
81534SOL    HW246442  10.946   5.565   9.441
81535SOL     OW46443  10.437   4.293   9.705
81535SOL    HW146444  10.465   4.338   9.785
81535SOL    HW246445  10.508   4.231   9.687
81536SOL     OW46446   0.715   5.479  13.114
81536SOL    HW146447   0.734   5.412  13.049
81536SOL    HW246448   0.712   5.432  13.197
81537SOL     OW46449   5.444  11.508  11.711
81537SOL    HW146450   5.499  11.430  11.718
81537SOL    HW246451   5.487  11.573  11.766
81538SOL     OW46452   5.498   5.100  12.995
81538SOL    HW146453   5.485   5.190  13.022
81538SOL    HW246454   5.438   5.049  13.049
81539SOL     OW46455   1.563  11.511   5.758
81539SOL    HW146456   1.563  11.461   5.677
81539SOL    HW246457   1.594  11.449   5.825
81540SOL     OW46458   8.348   2.939   3.645
81540SOL    HW146459   8.265   2.890   3.649
81540SOL    HW246460   8.401   2.901   3.715
81541SOL     OW46461   0.947   5.555   4.380
81541SOL    HW146462   1.021   5.589   4.429
81541SOL    HW246463   0.939   5.613   4.304
81542SOL     OW46464   6.213   9.677   2.440
81542SOL    HW146465   6.137   9.637   2.480
81542SOL    HW246466   6.284   9.663   2.502
81543SOL     OW46467   2.376   5.438   3.801
81543SOL    HW146468   2.357   5.346   3.819
81543SOL    HW246469   2.409   5.439   3.711
81544SOL     OW46470   0.277   1.093   5.310
81544SOL    HW146471   0.348   1.103   5.247
81544SOL    HW246472   0.309   1.028   5.372
81545SOL     OW46473  14.157   3.834   8.028
81545SOL    HW146474  14.107   3.757   8.052
81545SOL    HW246475  14.155   3.836   7.933
81546SOL     OW46476  13.880   8.786   7.093
81546SOL    HW146477  13.872   8.797   6.999
81546SOL    HW246478  13.929   8.705   7.104
81547SOL     OW46479   6.705   0.194   0.720
81547SOL    HW146480   6.741   0.215   0.807
81547SOL    HW246481   6.686   0.279   0.681
81548SOL     OW46482   8.100  12.271  12.866
81548SOL    HW146483   8.128  12.189  12.828
81548SOL    HW246484   8.079  12.250  12.957
81549SOL     OW46485   5.406   1.436  12.139
81549SOL    HW146486   5.466   1.416  12.067
81549SOL    HW246487   5.445   1.394  12.216
81550SOL     OW46488  10.143   3.354  13.226
81550SOL    HW146489  10.206   3.282  13.232
81550SOL    HW246490  10.190   3.424  13.181
81551SOL     OW46491  12.878   2.756   1.269
81551SOL    HW146492  12.809   2.736   1.206
81551SOL    HW246493  12.847   2.721   1.352
81552SOL     OW46494   2.674   9.000  14.361
81552SOL    HW146495   2.761   8.963  14.342
81552SOL    HW246496   2.648   9.043  14.280
81553SOL     OW46497   2.130   6.332   1.291
81553SOL    HW146498   2.076   6.297   1.362
81553SOL    HW246499   2.206   6.369   1.336
81554SOL     OW46500  10.489   1.605  13.121
81554SOL    HW146501  10.564   1.605  13.180
81554SOL    HW246502  10.417   1.641  13.173
81555SOL     OW46503   9.074   8.085  14.046
81555SOL    HW146504   9.165   8.056  14.057
81555SOL    HW246505   9.031   8.061  14.128
81556SOL     OW46506  13.576   5.214   4.622
81556SOL    HW146507  13.542   5.125   4.636
81556SOL    HW246508  13.668   5.209   4.648
81557SOL     OW46509   6.535  14.049  11.485
81557SOL    HW146510   6.454  13.998  11.478
81557SOL    HW246511   6.592  14.013  11.417
81558SOL     OW46512  12.995  14.780   9.976
81558SOL    HW146513  12.909  14.814  10.003
81558SOL    HW246514  13.004  14.808   9.885
81559SOL     OW46515   4.778   3.518   3.875
81559SOL    HW146516   4.701   3.499   3.928
81559SOL    HW246517   4.744   3.531   3.786
81560SOL     OW46518   4.012  11.244  12.236
81560SOL    HW146519   3.975  11.300  12.168
81560SOL    HW246520   4.000  11.155  12.203
81561SOL     OW46521   1.911   3.001   0.583
81561SOL    HW146522   1.839   3.064   0.580
81561SOL    HW246523   1.965   3.022   0.508
81562SOL     OW46524   1.174   8.958  10.834
81562SOL    HW146525   1.221   8.919  10.760
81562SOL    HW246526   1.208   8.912  10.911
81563SOL     OW46527  12.408   6.939   7.216
81563SOL    HW146528  12.475   6.884   7.256
81563SOL    HW246529  12.443   6.959   7.129
81564SOL     OW46530  12.198  14.310   7.861
81564SOL    HW146531  12.108  14.299   7.830
81564SOL    HW246532  12.223  14.223   7.894
81565SOL     OW46533   1.345  12.690   8.903
81565SOL    HW146534   1.363  12.784   8.896
81565SOL    HW246535   1.389  12.652   8.827
81566SOL     OW46536   7.096   9.952   1.577
81566SOL    HW146537   7.025   9.939   1.513
81566SOL    HW246538   7.087   9.879   1.638
81567SOL     OW46539   2.696  10.013   7.037
81567SOL    HW146540   2.675   9.947   7.104
81567SOL    HW246541   2.790  10.030   7.049
81568SOL     OW46542  11.348   0.743  14.388
81568SOL    HW146543  11.299   0.694  14.321
81568SOL    HW246544  11.349   0.833  14.356
81569SOL     OW46545  13.885   2.277   6.528
81569SOL    HW146546  13.817   2.321   6.477
81569SOL    HW246547  13.948   2.346   6.548
81570SOL     OW46548   1.940  13.842  12.140
81570SOL    HW146549   1.991  13.894  12.079
81570SOL    HW246550   1.936  13.894  12.219
81571SOL     OW46551   4.780  12.993  11.241
81571SOL    HW146552   4.710  12.934  11.215
81571SOL    HW246553   4.857  12.938  11.250
81572SOL     OW46554  14.185  11.426  13.832
81572SOL    HW146555  14.274  11.416  13.797
81572SOL    HW246556  14.143  11.489  13.774
81573SOL     OW46557  11.335   0.111   2.083
81573SOL    HW146558  11.263   0.167   2.112
81573SOL    HW246559  11.340   0.124   1.988
81574SOL     OW46560  12.184   3.749   2.656
81574SOL    HW146561  12.137   3.673   2.691
81574SOL    HW246562  12.193   3.809   2.730
81575SOL     OW46563   9.531   0.742   4.615
81575SOL    HW146564   9.492   0.809   4.560
81575SOL    HW246565   9.623   0.741   4.590
81576SOL     OW46566   9.181   7.792  10.339
81576SOL    HW146567   9.231   7.736  10.399
81576SOL    HW246568   9.231   7.873  10.335
81577SOL     OW46569   8.622  14.838   2.978
81577SOL    HW146570   8.599  14.861   2.888
81577SOL    HW246571   8.575   0.020   3.032
81578SOL     OW46572   0.209   5.575  14.101
81578SOL    HW146573   0.136   5.627  14.136
81578SOL    HW246574   0.281   5.636  14.093
81579SOL     OW46575   0.317  12.498   2.218
81579SOL    HW146576   0.365  12.539   2.290
81579SOL    HW246577   0.238  12.551   2.208
81580SOL     OW46578   8.129  12.036   4.078
81580SOL    HW146579   8.129  11.946   4.044
81580SOL    HW246580   8.165  12.089   4.006
81581SOL     OW46581   6.875  13.992   6.878
81581SOL    HW146582   6.892  13.951   6.963
81581SOL    HW246583   6.786  14.026   6.886
81582SOL     OW46584   7.801  14.395   2.430
81582SOL    HW146585   7.818  14.369   2.520
81582SOL    HW246586   7.852  14.334   2.377
81583SOL     OW46587   6.473  13.523   2.485
81583SOL    HW146588   6.424  13.442   2.498
81583SOL    HW246589   6.564  13.498   2.502
81584SOL     OW46590  13.242   1.198  14.372
81584SOL    HW146591  13.252   1.234  14.284
81584SOL    HW246592  13.147   1.186  14.382
81585SOL     OW46593   9.928  11.806   0.365
81585SOL    HW146594   9.946  11.821   0.458
81585SOL    HW246595   9.840  11.768   0.365
81586SOL     OW46596   9.536   1.744  12.027
81586SOL    HW146597   9.514   1.656  11.997
81586SOL    HW246598   9.517   1.742  12.121
81587SOL     OW46599   5.827   0.902  10.707
81587SOL    HW146600   5.766   0.970  10.735
81587SOL    HW246601   5.914   0.937  10.727
81588SOL     OW46602  13.014   8.589  10.178
81588SOL    HW146603  13.011   8.550  10.090
81588SOL    HW246604  13.099   8.564  10.212
81589SOL     OW46605  14.651   4.627  12.183
81589SOL    HW146606  14.597   4.558  12.222
81589SOL    HW246607  14.627   4.707  12.231
81590SOL     OW46608   5.505   1.118   4.539
81590SOL    HW146609   5.580   1.156   4.585
81590SOL    HW246610   5.525   1.025   4.532
81591SOL     OW46611  12.034   9.294   1.004
81591SOL    HW146612  12.053   9.296   1.097
81591SOL    HW246613  12.113   9.258   0.963
81592SOL     OW46614   9.372   8.802   0.152
81592SOL    HW146615   9.353   8.709   0.160
81592SOL    HW246616   9.439   8.807   0.084
81593SOL     OW46617   7.747   7.203  13.760
81593SOL    HW146618   7.730   7.131  13.821
81593SOL    HW246619   7.803   7.165  13.693
81594SOL     OW46620   9.178  12.203  10.329
81594SOL    HW146621   9.089  12.228  10.354
81594SOL    HW246622   9.202  12.134  10.391
81595SOL     OW46623  14.077   3.596  13.739
81595SOL    HW146624  14.025   3.656  13.793
81595SOL    HW246625  14.162   3.593  13.782
81596SOL     OW46626   4.637  10.441  14.628
81596SOL    HW146627   4.633  10.451  14.533
81596SOL    HW246628   4.612  10.527  14.663
81597SOL     OW46629   1.122   5.338   8.759
81597SOL    HW146630   1.030   5.364   8.753
81597SOL    HW246631   1.120   5.243   8.759
81598SOL     OW46632  14.094  12.736   9.638
81598SOL    HW146633  14.139  12.817   9.661
81598SOL    HW246634  14.134  12.708   9.556
81599SOL     OW46635   6.418   1.556  11.169
81599SOL    HW146636   6.443   1.464  11.164
81599SOL    HW246637   6.498   1.601  11.196
81600SOL     OW46638  10.861   1.462   5.843
81600SOL    HW146639  10.794   1.518   5.880
81600SOL    HW246640  10.848   1.468   5.748
81601SOL     OW46641   3.503   2.811   5.420
81601SOL    HW146642   3.430   2.863   5.386
81601SOL    HW246643   3.473   2.721   5.412
81602SOL     OW46644  12.136   8.248  11.964
81602SOL    HW146645  12.204   8.205  11.911
81602SOL    HW246646  12.185   8.300  12.028
81603SOL     OW46647  13.149   2.898   8.080
81603SOL    HW146648  13.095   2.914   8.003
81603SOL    HW246649  13.116   2.960   8.145
81604SOL     OW46650   9.883  10.230  11.099
81604SOL    HW146651   9.894  10.298  11.166
81604SOL    HW246652   9.953  10.248  11.036
81605SOL     OW46653   0.520   6.328   4.615
81605SOL    HW146654   0.484   6.360   4.532
81605SOL    HW246655   0.535   6.235   4.600
81606SOL     OW46656   0.139   4.884   3.002
81606SOL    HW146657   0.164   4.797   2.973
81606SOL    HW246658   0.154   4.941   2.927
81607SOL     OW46659  14.056  13.961   7.613
81607SOL    HW146660  14.004  14.029   7.569
81607SOL    HW246661  14.061  13.890   7.549
81608SOL     OW46662   1.110  10.025  11.911
81608SOL    HW146663   1.172   9.989  11.974
81608SOL    HW246664   1.071  10.100  11.956
81609SOL     OW46665   7.567   9.653   9.414
81609SOL    HW146666   7.502   9.607   9.361
81609SOL    HW246667   7.539   9.744   9.414
81610SOL     OW46668  12.761   5.177  11.126
81610SOL    HW146669  12.840   5.137  11.163
81610SOL    HW246670  12.794   5.254  11.080
81611SOL     OW46671   0.966   4.997   7.364
81611SOL    HW146672   0.894   4.968   7.421
81611SOL    HW246673   0.948   4.954   7.280
81612SOL     OW46674   6.921   1.042   5.715
81612SOL    HW146675   6.831   1.014   5.730
81612SOL    HW246676   6.963   1.033   5.800
81613SOL     OW46677   1.734  10.121   1.100
81613SOL    HW146678   1.768  10.046   1.051
81613SOL    HW246679   1.688  10.173   1.034
81614SOL     OW46680  14.698  10.690   4.308
81614SOL    HW146681  14.707  10.777   4.270
81614SOL    HW246682  14.606  10.667   4.294
81615SOL     OW46683   7.766   7.551  10.509
81615SOL    HW146684   7.808   7.627  10.470
81615SOL    HW246685   7.672   7.567  10.497
81616SOL     OW46686   5.001   1.063   1.326
81616SOL    HW146687   4.952   1.008   1.265
81616SOL    HW246688   4.992   1.152   1.292
81617SOL     OW46689   8.213  12.899   5.129
81617SOL    HW146690   8.177  12.822   5.174
81617SOL    HW246691   8.164  12.905   5.048
81618SOL     OW46692  10.370  13.755  10.349
81618SOL    HW146693  10.438  13.778  10.412
81618SOL    HW246694  10.396  13.668  10.317
81619SOL     OW46695  11.915   4.659  11.012
81619SOL    HW146696  11.938   4.663  10.919
81619SOL    HW246697  11.820   4.675  11.014
81620SOL     OW46698   8.278  13.607   8.999
81620SOL    HW146699   8.221  13.588   8.925
81620SOL    HW246700   8.346  13.540   8.994
81621SOL     OW46701   3.535   2.078   2.233
81621SOL    HW146702   3.453   2.111   2.271
81621SOL    HW246703   3.573   2.023   2.301
81622SOL     OW46704  11.324   1.426  12.727
81622SOL    HW146705  11.396   1.488  12.741
81622SOL    HW246706  11.301   1.396  12.814
81623SOL     OW46707   4.991   7.283  10.885
81623SOL    HW146708   4.901   7.280  10.852
81623SOL    HW246709   5.014   7.376  10.888
81624SOL     OW46710  13.486   9.136   2.168
81624SOL    HW146711  13.489   9.045   2.137
81624SOL    HW246712  13.577   9.167   2.159
81625SOL     OW46713  10.373   9.473  13.436
81625SOL    HW146714  10.302   9.529  13.466
81625SOL    HW246715  10.333   9.387  13.422
81626SOL     OW46716  10.508   1.925   5.256
81626SOL    HW146717  10.595   1.925   5.294
81626SOL    HW246718  10.510   1.997   5.193
81627SOL     OW46719  13.128   8.828   8.737
81627SOL    HW146720  13.205   8.798   8.786
81627SOL    HW246721  13.096   8.903   8.788
81628SOL     OW46722   5.515   1.875   9.043
81628SOL    HW146723   5.610   1.880   9.037
81628SOL    HW246724   5.495   1.906   9.132
81629SOL     OW46725  12.307   2.702   9.323
81629SOL    HW146726  12.355   2.720   9.404
81629SOL    HW246727  12.217   2.690   9.351
81630SOL     OW46728  14.280   6.726  12.135
81630SOL    HW146729  14.243   6.673  12.064
81630SOL    HW246730  14.362   6.760  12.099
81631SOL     OW46731   2.960  13.800   3.509
81631SOL    HW146732   2.961  13.759   3.423
81631SOL    HW246733   2.995  13.734   3.568
81632SOL     OW46734  10.000   1.249  11.683
81632SOL    HW146735  10.004   1.221  11.592
81632SOL    HW246736   9.915   1.217  11.714
81633SOL     OW46737  13.057   7.027   6.481
81633SOL    HW146738  13.152   7.023   6.478
81633SOL    HW246739  13.035   7.018   6.573
81634SOL     OW46740   1.869  14.170   8.576
81634SOL    HW146741   1.850  14.155   8.669
81634SOL    HW246742   1.959  14.201   8.574
81635SOL     OW46743  14.350   4.230   8.220
81635SOL    HW146744  14.265   4.189   8.233
81635SOL    HW246745  14.351   4.303   8.283
81636SOL     OW46746   4.881   8.419  13.698
81636SOL    HW146747   4.876   8.337  13.748
81636SOL    HW246748   4.946   8.402  13.631
81637SOL     OW46749   0.607  11.907   9.168
81637SOL    HW146750   0.611  11.959   9.248
81637SOL    HW246751   0.669  11.835   9.183
81638SOL     OW46752  14.576   2.592   1.239
81638SOL    HW146753  14.573   2.632   1.152
81638SOL    HW246754  14.623   2.656   1.293
81639SOL     OW46755  14.501  10.071   8.002
81639SOL    HW146756  14.497   9.978   8.027
81639SOL    HW246757  14.582  10.103   8.041
81640SOL     OW46758   0.200   5.753   4.679
81640SOL    HW146759   0.240   5.708   4.753
81640SOL    HW246760   0.273   5.772   4.620
81641SOL     OW46761   0.191  13.677  14.536
81641SOL    HW146762   0.187  13.606  14.599
81641SOL    HW246763   0.280  13.671  14.500
81642SOL     OW46764   1.519   8.420   1.246
81642SOL    HW146765   1.547   8.329   1.236
81642SOL    HW246766   1.472   8.421   1.329
81643SOL     OW46767  12.238  13.759  11.015
81643SOL    HW146768  12.209  13.824  10.952
81643SOL    HW246769  12.158  13.727  11.056
81644SOL     OW46770  14.345   3.397   8.647
81644SOL    HW146771  14.324   3.487   8.623
81644SOL    HW246772  14.417   3.405   8.710
81645SOL     OW46773  14.452  10.062  10.509
81645SOL    HW146774  14.416  10.004  10.576
81645SOL    HW246775  14.434  10.150  10.541
81646SOL     OW46776   7.221  11.275   3.953
81646SOL    HW146777   7.161  11.264   3.879
81646SOL    HW246778   7.284  11.341   3.923
81647SOL     OW46779   2.386   6.175   2.650
81647SOL    HW146780   2.427   6.259   2.634
81647SOL    HW246781   2.314   6.195   2.710
81648SOL     OW46782   9.147  14.628  11.274
81648SOL    HW146783   9.222  14.609  11.330
81648SOL    HW246784   9.077  14.655  11.334
81649SOL     OW46785   7.709   4.062   2.866
81649SOL    HW146786   7.797   4.025   2.858
81649SOL    HW246787   7.710   4.141   2.812
81650SOL     OW46788   5.020   4.997  13.372
81650SOL    HW146789   5.099   4.964  13.414
81650SOL    HW246790   4.957   5.008  13.444
81651SOL     OW46791  11.286   2.566   1.324
81651SOL    HW146792  11.382   2.566   1.313
81651SOL    HW246793  11.269   2.631   1.392
81652SOL     OW46794   8.984   2.748   5.668
81652SOL    HW146795   8.937   2.753   5.585
81652SOL    HW246796   8.977   2.656   5.693
81653SOL     OW46797   8.274  10.282  14.353
81653SOL    HW146798   8.188  10.258  14.388
81653SOL    HW246799   8.336  10.232  14.406
81654SOL     OW46800   6.511  13.926   2.105
81654SOL    HW146801   6.519  13.915   2.199
81654SOL    HW246802   6.600  13.914   2.071
81655SOL     OW46803   0.284   6.304   2.176
81655SOL    HW146804   0.318   6.391   2.197
81655SOL    HW246805   0.196   6.303   2.215
81656SOL     OW46806  11.563   1.529   9.384
81656SOL    HW146807  11.578   1.533   9.290
81656SOL    HW246808  11.565   1.621   9.413
81657SOL     OW46809   3.955  14.374   1.737
81657SOL    HW146810   3.965  14.464   1.705
81657SOL    HW246811   4.021  14.366   1.806
81658SOL     OW46812   2.819   2.279   1.668
81658SOL    HW146813   2.837   2.353   1.611
81658SOL    HW246814   2.905   2.242   1.688
81659SOL     OW46815   6.737  14.269   8.855
81659SOL    HW146816   6.691  14.186   8.871
81659SOL    HW246817   6.728  14.282   8.760
81660SOL     OW46818   6.622   9.434   9.764
81660SOL    HW146819   6.661   9.515   9.732
81660SOL    HW246820   6.557   9.462   9.828
81661SOL     OW46821   7.118   6.701   4.483
81661SOL    HW146822   7.133   6.759   4.558
81661SOL    HW246823   7.090   6.618   4.521
81662SOL     OW46824   4.051   1.187  10.350
81662SOL    HW146825   4.092   1.228  10.274
81662SOL    HW246826   3.964   1.162  10.320
81663SOL     OW46827  13.992   4.500   1.725
81663SOL    HW146828  14.040   4.553   1.661
81663SOL    HW246829  13.935   4.562   1.769
81664SOL     OW46830  14.654   8.774  12.199
81664SOL    HW146831  14.650   8.761  12.104
81664SOL    HW246832  14.578   8.725  12.232
81665SOL     OW46833   3.285   8.142  12.899
81665SOL    HW146834   3.282   8.230  12.938
81665SOL    HW246835   3.274   8.084  12.974
81666SOL     OW46836   0.249   1.709  13.731
81666SOL    HW146837   0.297   1.789  13.751
81666SOL    HW246838   0.172   1.739  13.683
81667SOL     OW46839   8.363   5.036   5.686
81667SOL    HW146840   8.430   5.041   5.754
81667SOL    HW246841   8.293   5.093   5.718
81668SOL     OW46842  10.064   6.662  14.548
81668SOL    HW146843   9.990   6.657  14.489
81668SOL    HW246844  10.084   6.570  14.569
81669SOL     OW46845  11.818  13.014   3.719
81669SOL    HW146846  11.904  12.973   3.725
81669SOL    HW246847  11.798  13.041   3.809
81670SOL     OW46848   0.198   5.703   9.077
81670SOL    HW146849   0.270   5.759   9.049
81670SOL    HW246850   0.166   5.663   8.996
81671SOL     OW46851   8.318  13.949   8.948
81671SOL    HW146852   8.286  13.891   9.018
81671SOL    HW246853   8.402  13.980   8.980
81672SOL     OW46854   0.489   4.643   1.217
81672SOL    HW146855   0.520   4.600   1.137
81672SOL    HW246856   0.421   4.703   1.188
81673SOL     OW46857  10.080  10.845   8.490
81673SOL    HW146858  10.044  10.825   8.404
81673SOL    HW246859  10.081  10.761   8.536
81674SOL     OW46860  12.814  12.626   8.904
81674SOL    HW146861  12.854  12.690   8.964
81674SOL    HW246862  12.886  12.599   8.846
81675SOL     OW46863   2.818   5.239   9.111
81675SOL    HW146864   2.893   5.287   9.147
81675SOL    HW246865   2.743   5.294   9.132
81676SOL     OW46866  12.421   7.431  11.378
81676SOL    HW146867  12.460   7.481  11.306
81676SOL    HW246868  12.408   7.495  11.448
81677SOL     OW46869  14.031   1.324   8.161
81677SOL    HW146870  14.069   1.401   8.120
81677SOL    HW246871  13.972   1.358   8.227
81678SOL     OW46872  12.542  12.333   2.378
81678SOL    HW146873  12.630  12.297   2.365
81678SOL    HW246874  12.512  12.293   2.459
81679SOL     OW46875   8.784   2.199  10.649
81679SOL    HW146876   8.784   2.105  10.631
81679SOL    HW246877   8.692   2.224  10.644
81680SOL     OW46878   3.302  11.893   5.491
81680SOL    HW146879   3.218  11.935   5.508
81680SOL    HW246880   3.335  11.872   5.579
81681SOL     OW46881   7.559   9.311  13.378
81681SOL    HW146882   7.547   9.276  13.466
81681SOL    HW246883   7.641   9.272  13.347
81682SOL     OW46884   3.798   1.595   7.710
81682SOL    HW146885   3.886   1.623   7.738
81682SOL    HW246886   3.753   1.573   7.791
81683SOL     OW46887   1.906  10.145   0.089
81683SOL    HW146888   1.884  10.055   0.113
81683SOL    HW246889   1.961  10.136   0.011
81684SOL     OW46890   7.932   3.594   6.139
81684SOL    HW146891   7.972   3.678   6.121
81684SOL    HW246892   8.001   3.543   6.182
81685SOL     OW46893  10.279   6.922  10.832
81685SOL    HW146894  10.363   6.886  10.803
81685SOL    HW246895  10.259   6.990  10.767
81686SOL     OW46896   7.023   1.261  10.405
81686SOL    HW146897   7.029   1.306  10.321
81686SOL    HW246898   7.113   1.245  10.430
81687SOL     OW46899   2.861   2.579  10.625
81687SOL    HW146900   2.855   2.489  10.594
81687SOL    HW246901   2.948   2.584  10.666
81688SOL     OW46902  14.604  11.306   6.425
81688SOL    HW146903  14.523  11.254   6.424
81688SOL    HW246904  14.592  11.370   6.355
81689SOL     OW46905  13.754  13.496  11.646
81689SOL    HW146906  13.788  13.546  11.572
81689SOL    HW246907  13.831  13.455  11.685
81690SOL     OW46908   9.641   6.484   1.916
81690SOL    HW146909   9.609   6.444   1.997
81690SOL    HW246910   9.626   6.578   1.928
81691SOL     OW46911  13.091   6.199   7.955
81691SOL    HW146912  13.062   6.272   8.011
81691SOL    HW246913  13.045   6.123   7.989
81692SOL     OW46914  11.216  12.489  14.440
81692SOL    HW146915  11.190  12.474  14.531
81692SOL    HW246916  11.138  12.464  14.389
81693SOL     OW46917  13.096   4.676   4.373
81693SOL    HW146918  13.155   4.659   4.446
81693SOL    HW246919  13.122   4.763   4.341
81694SOL     OW46920   1.998  14.585   2.998
81694SOL    HW146921   2.007  14.677   2.975
81694SOL    HW246922   2.058  14.572   3.071
81695SOL     OW46923  13.653  10.672   9.868
81695SOL    HW146924  13.608  10.702   9.947
81695SOL    HW246925  13.707  10.747   9.842
81696SOL     OW46926   2.065   8.755   5.617
81696SOL    HW146927   1.991   8.695   5.608
81696SOL    HW246928   2.107   8.728   5.700
81697SOL     OW46929  11.083  12.789   9.459
81697SOL    HW146930  11.078  12.759   9.549
81697SOL    HW246931  11.156  12.851   9.458
81698SOL     OW46932   9.645   0.301   5.690
81698SOL    HW146933   9.594   0.237   5.740
81698SOL    HW246934   9.710   0.248   5.643
81699SOL     OW46935   7.022   1.413  10.172
81699SOL    HW146936   7.063   1.491  10.134
81699SOL    HW246937   6.930   1.419  10.146
81700SOL     OW46938   1.157   0.062   4.027
81700SOL    HW146939   1.136  14.857   3.994
81700SOL    HW246940   1.102   0.121   3.975
81701SOL     OW46941   7.626   0.690  10.600
81701SOL    HW146942   7.599   0.617  10.656
81701SOL    HW246943   7.721   0.692  10.608
81702SOL     OW46944  13.069  11.322   6.095
81702SOL    HW146945  13.023  11.345   6.014
81702SOL    HW246946  13.024  11.371   6.163
81703SOL     OW46947   2.266   3.490  13.812
81703SOL    HW146948   2.179   3.484  13.852
81703SOL    HW246949   2.249   3.494  13.718
81704SOL     OW46950   7.791   4.713   1.623
81704SOL    HW146951   7.776   4.679   1.535
81704SOL    HW246952   7.752   4.801   1.621
81705SOL     OW46953   7.933  10.747   8.544
81705SOL    HW146954   7.911  10.656   8.567
81705SOL    HW246955   7.880  10.800   8.603
81706SOL     OW46956   1.893  12.536   0.935
81706SOL    HW146957   1.814  12.502   0.893
81706SOL    HW246958   1.874  12.532   1.029
81707SOL     OW46959   0.113  11.529   0.926
81707SOL    HW146960   0.148  11.500   1.010
81707SOL    HW246961   0.152  11.469   0.862
81708SOL     OW46962   0.607   3.262   9.134
81708SOL    HW146963   0.558   3.338   9.102
81708SOL    HW246964   0.683   3.256   9.076
81709SOL     OW46965   8.380   6.588   0.537
81709SOL    HW146966   8.347   6.670   0.574
81709SOL    HW246967   8.367   6.598   0.442
81710SOL     OW46968   0.336   4.335   0.651
81710SOL    HW146969   0.336   4.428   0.676
81710SOL    HW246970   0.293   4.333   0.566
81711SOL     OW46971   9.456  13.186  11.223
81711SOL    HW146972   9.391  13.237  11.272
81711SOL    HW246973   9.446  13.215  11.132
81712SOL     OW46974   9.120  14.699   1.440
81712SOL    HW146975   9.103  14.706   1.534
81712SOL    HW246976   9.211  14.729   1.430
81713SOL     OW46977   0.106   4.448   1.963
81713SOL    HW146978   0.074   4.538   1.967
81713SOL    HW246979   0.064   4.405   2.038
81714SOL     OW46980   6.644   0.136   9.500
81714SOL    HW146981   6.625   0.218   9.546
81714SOL    HW246982   6.715   0.158   9.440
81715SOL     OW46983   0.582   0.072  12.794
81715SOL    HW146984   0.617   0.161  12.802
81715SOL    HW246985   0.584   0.054  12.700
81716SOL     OW46986   7.749  14.731   3.031
81716SOL    HW146987   7.764  14.813   3.077
81716SOL    HW246988   7.706  14.757   2.949
81717SOL     OW46989  10.014  11.796   2.995
81717SOL    HW146990  10.076  11.731   2.963
81717SOL    HW246991   9.998  11.772   3.086
81718SOL     OW46992   5.131  11.303   6.540
81718SOL    HW146993   5.226  11.302   6.536
81718SOL    HW246994   5.105  11.375   6.483
81719SOL     OW46995  12.296   8.938   9.411
81719SOL    HW146996  12.347   8.883   9.351
81719SOL    HW246997  12.206   8.908   9.401
81720SOL     OW46998   3.293  12.448   2.298
81720SOL    HW146999   3.360  12.381   2.312
81720SOL    HW247000   3.274  12.482   2.385
81721SOL     OW47001   2.171   8.631   3.600
81721SOL    HW147002   2.261   8.660   3.591
81721SOL    HW247003   2.135   8.684   3.671
81722SOL     OW47004   0.078   4.727   0.678
81722SOL    HW147005   0.070   4.747   0.771
81722SOL    HW247006   0.055   4.634   0.671
81723SOL     OW47007   5.561   7.285  14.564
81723SOL    HW147008   5.504   7.217  14.529
81723SOL    HW247009   5.650   7.252  14.549
81724SOL     OW47010   9.197  12.403  10.811
81724SOL    HW147011   9.233  12.492  10.818
81724SOL    HW247012   9.131  12.409  10.742
81725SOL     OW47013   8.926   7.137  13.603
81725SOL    HW147014   8.890   7.145  13.691
81725SOL    HW247015   8.941   7.043  13.593
81726SOL     OW47016  14.214  11.968   6.919
81726SOL    HW147017  14.213  11.875   6.939
81726SOL    HW247018  14.257  11.974   6.833
81727SOL     OW47019   4.857   8.284   8.101
81727SOL    HW147020   4.771   8.277   8.059
81727SOL    HW247021   4.840   8.266   8.194
81728SOL     OW47022   6.108  10.086   3.449
81728SOL    HW147023   6.031  10.050   3.405
81728SOL    HW247024   6.087  10.179   3.460
81729SOL     OW47025  13.924   9.239   0.265
81729SOL    HW147026  13.851   9.217   0.206
81729SOL    HW247027  13.938   9.333   0.252
81730SOL     OW47028  13.906  10.668  10.987
81730SOL    HW147029  13.960  10.690  10.911
81730SOL    HW247030  13.852  10.745  11.001
81731SOL     OW47031   1.839   9.034  13.724
81731SOL    HW147032   1.842   9.126  13.699
81731SOL    HW247033   1.888   9.030  13.806
81732SOL     OW47034  10.091  12.317   6.258
81732SOL    HW147035  10.162  12.382   6.250
81732SOL    HW247036  10.013  12.369   6.275
81733SOL     OW47037   5.025  14.592  12.323
81733SOL    HW147038   4.979  14.526  12.375
81733SOL    HW247039   5.005  14.570  12.233
81734SOL     OW47040   9.401   1.484  13.963
81734SOL    HW147041   9.315   1.501  13.925
81734SOL    HW247042   9.431   1.404  13.919
81735SOL     OW47043  13.853   0.745   9.535
81735SOL    HW147044  13.807   0.776   9.457
81735SOL    HW247045  13.926   0.694   9.500
81736SOL     OW47046   8.700   5.805  12.434
81736SOL    HW147047   8.778   5.827  12.382
81736SOL    HW247048   8.657   5.735  12.384
81737SOL     OW47049  13.587  12.860   7.289
81737SOL    HW147050  13.631  12.921   7.230
81737SOL    HW247051  13.501  12.847   7.250
81738SOL     OW47052   0.313   4.179  12.199
81738SOL    HW147053   0.376   4.228  12.147
81738SOL    HW247054   0.295   4.100  12.148
81739SOL     OW47055   1.413   9.505   2.750
81739SOL    HW147056   1.333   9.555   2.734
81739SOL    HW247057   1.481   9.554   2.705
81740SOL     OW47058   4.272  11.326   9.009
81740SOL    HW147059   4.335  11.290   9.073
81740SOL    HW247060   4.320  11.396   8.966
81741SOL     OW47061  10.482   7.069   3.757
81741SOL    HW147062  10.462   7.040   3.668
81741SOL    HW247063  10.397   7.096   3.794
81742SOL     OW47064   6.644   9.995  12.948
81742SOL    HW147065   6.700   9.977  12.873
81742SOL    HW247066   6.627   9.909  12.986
81743SOL     OW47067   2.969   5.492   4.986
81743SOL    HW147068   2.996   5.403   5.010
81743SOL    HW247069   2.942   5.484   4.894
81744SOL     OW47070  10.170   7.777   2.471
81744SOL    HW147071  10.094   7.720   2.481
81744SOL    HW247072  10.243   7.717   2.454
81745SOL     OW47073   7.260   3.563   0.620
81745SOL    HW147074   7.215   3.645   0.598
81745SOL    HW247075   7.301   3.536   0.538
81746SOL     OW47076  13.427  11.046   8.266
81746SOL    HW147077  13.482  11.027   8.343
81746SOL    HW247078  13.349  11.087   8.302
81747SOL     OW47079  13.420  10.574  10.460
81747SOL    HW147080  13.396  10.622  10.381
81747SOL    HW247081  13.451  10.489  10.428
81748SOL     OW47082   6.394  11.185   4.131
81748SOL    HW147083   6.358  11.249   4.192
81748SOL    HW247084   6.388  11.227   4.045
81749SOL     OW47085  13.348   2.361  12.861
81749SOL    HW147086  13.337   2.326  12.950
81749SOL    HW247087  13.441   2.383  12.855
81750SOL     OW47088  13.960   1.979   3.811
81750SOL    HW147089  13.905   1.904   3.790
81750SOL    HW247090  13.929   2.009   3.896
81751SOL     OW47091   2.494   2.323   9.878
81751SOL    HW147092   2.428   2.392   9.865
81751SOL    HW247093   2.534   2.312   9.791
81752SOL     OW47094   6.624  11.072   2.145
81752SOL    HW147095   6.625  10.986   2.187
81752SOL    HW247096   6.700  11.071   2.087
81753SOL     OW47097  13.676   0.944   2.927
81753SOL    HW147098  13.608   0.938   2.994
81753SOL    HW247099  13.652   1.020   2.874
81754SOL     OW47100   7.121   5.043   7.621
81754SOL    HW147101   7.140   5.037   7.528
81754SOL    HW247102   7.202   5.018   7.664
81755SOL     OW47103   8.454   5.944  13.327
81755SOL    HW147104   8.486   5.853  13.329
81755SOL    HW247105   8.405   5.950  13.246
81756SOL     OW47106   3.320   7.171   7.397
81756SOL    HW147107   3.352   7.198   7.311
81756SOL    HW247108   3.377   7.099   7.423
81757SOL     OW47109   9.094   4.189   2.074
81757SOL    HW147110   9.171   4.192   2.017
81757SOL    HW247111   9.020   4.209   2.017
81758SOL     OW47112   9.430   5.534   4.115
81758SOL    HW147113   9.394   5.446   4.128
81758SOL    HW247114   9.420   5.577   4.200
81759SOL     OW47115   0.156   5.030   6.444
81759SOL    HW147116   0.210   4.952   6.460
81759SOL    HW247117   0.206   5.102   6.482
81760SOL     OW47118   8.538   1.581   0.315
81760SOL    HW147119   8.503   1.602   0.229
81760SOL    HW247120   8.596   1.654   0.337
81761SOL     OW47121   9.315  11.661  12.977
81761SOL    HW147122   9.322  11.736  12.918
81761SOL    HW247123   9.350  11.588  12.927
81762SOL     OW47124   7.647  10.440  13.521
81762SOL    HW147125   7.645  10.362  13.465
81762SOL    HW247126   7.583  10.499  13.482
81763SOL     OW47127   2.992   2.418   8.468
81763SOL    HW147128   2.988   2.325   8.445
81763SOL    HW247129   2.905   2.438   8.501
81764SOL     OW47130   0.602   3.328   5.570
81764SOL    HW147131   0.687   3.312   5.529
81764SOL    HW247132   0.558   3.390   5.512
81765SOL     OW47133   5.830  10.135  10.262
81765SOL    HW147134   5.824  10.096  10.349
81765SOL    HW247135   5.739  10.153  10.237
81766SOL     OW47136   6.240  13.176  14.427
81766SOL    HW147137   6.332  13.202  14.421
81766SOL    HW247138   6.210  13.170  14.336
81767SOL     OW47139   5.357  13.934  13.858
81767SOL    HW147140   5.406  13.882  13.795
81767SOL    HW247141   5.371  13.890  13.942
81768SOL     OW47142   3.986  14.541   0.213
81768SOL    HW147143   3.922  14.500   0.155
81768SOL    HW247144   4.016  14.470   0.270
81769SOL     OW47145   9.628   6.464   9.687
81769SOL    HW147146   9.587   6.513   9.757
81769SOL    HW247147   9.703   6.421   9.728
81770SOL     OW47148   2.656   2.623   2.441
81770SOL    HW147149   2.718   2.580   2.382
81770SOL    HW247150   2.648   2.562   2.515
81771SOL     OW47151   4.120   4.344   4.071
81771SOL    HW147152   4.095   4.271   4.128
81771SOL    HW247153   4.193   4.310   4.020
81772SOL     OW47154  10.525   9.483  12.529
81772SOL    HW147155  10.442   9.528  12.516
81772SOL    HW247156  10.501   9.390  12.532
81773SOL     OW47157   8.813  10.057  10.123
81773SOL    HW147158   8.817  10.013  10.207
81773SOL    HW247159   8.729  10.102  10.123
81774SOL     OW47160   5.256   7.986  14.643
81774SOL    HW147161   5.225   8.007  14.555
81774SOL    HW247162   5.314   7.912  14.631
81775SOL     OW47163  11.083   2.292   5.217
81775SOL    HW147164  11.031   2.354   5.268
81775SOL    HW247165  11.019   2.228   5.185
81776SOL     OW47166   0.614   3.321  12.880
81776SOL    HW147167   0.697   3.275  12.892
81776SOL    HW247168   0.627   3.406  12.924
81777SOL     OW47169   8.536   2.564  11.279
81777SOL    HW147170   8.576   2.491  11.326
81777SOL    HW247171   8.582   2.566  11.195
81778SOL     OW47172   0.424   6.779   8.975
81778SOL    HW147173   0.369   6.753   9.048
81778SOL    HW247174   0.367   6.771   8.898
81779SOL     OW47175  14.236  12.905   7.005
81779SOL    HW147176  14.304  12.952   6.958
81779SOL    HW247177  14.218  12.828   6.951
81780SOL     OW47178   5.793   7.848   1.966
81780SOL    HW147179   5.704   7.870   1.939
81780SOL    HW247180   5.812   7.906   2.040
81781SOL     OW47181   1.544  11.101   0.287
81781SOL    HW147182   1.629  11.142   0.304
81781SOL    HW247183   1.495  11.168   0.239
81782SOL     OW47184   8.611   5.480  11.529
81782SOL    HW147185   8.538   5.537  11.506
81782SOL    HW247186   8.572   5.392  11.533
81783SOL     OW47187   6.569   1.634   6.478
81783SOL    HW147188   6.617   1.697   6.425
81783SOL    HW247189   6.591   1.658   6.568
81784SOL     OW47190   4.620   9.459  14.846
81784SOL    HW147191   4.580   9.419  14.769
81784SOL    HW247192   4.549   9.462   0.028
81785SOL     OW47193  13.280   2.290   6.906
81785SOL    HW147194  13.223   2.279   6.830
81785SOL    HW247195  13.353   2.230   6.889
81786SOL     OW47196  12.246   2.594   6.263
81786SOL    HW147197  12.334   2.616   6.233
81786SOL    HW247198  12.196   2.675   6.251
81787SOL     OW47199   8.775   3.438   9.880
81787SOL    HW147200   8.788   3.348   9.910
81787SOL    HW247201   8.689   3.463   9.913
81788SOL     OW47202  12.713  11.021   5.028
81788SOL    HW147203  12.740  10.933   5.052
81788SOL    HW247204  12.793  11.073   5.028
81789SOL     OW47205   2.551   7.953   6.496
81789SOL    HW147206   2.576   7.921   6.583
81789SOL    HW247207   2.496   8.029   6.513
81790SOL     OW47208   3.771  10.116   4.200
81790SOL    HW147209   3.719  10.036   4.190
81790SOL    HW247210   3.813  10.128   4.115
81791SOL     OW47211  11.662  11.981   6.595
81791SOL    HW147212  11.651  12.065   6.549
81791SOL    HW247213  11.593  11.980   6.661
81792SOL     OW47214  13.013  12.027   1.131
81792SOL    HW147215  13.021  11.945   1.179
81792SOL    HW247216  13.024  12.003   1.039
81793SOL     OW47217   4.218   7.909   8.359
81793SOL    HW147218   4.128   7.941   8.357
81793SOL    HW247219   4.245   7.907   8.267
81794SOL     OW47220   3.686   7.691   0.475
81794SOL    HW147221   3.763   7.738   0.507
81794SOL    HW247222   3.721   7.610   0.438
81795SOL     OW47223   2.336  10.898  11.859
81795SOL    HW147224   2.372  10.983  11.832
81795SOL    HW247225   2.326  10.906  11.954
81796SOL     OW47226  13.554  11.983   6.186
81796SOL    HW147227  13.503  12.064   6.198
81796SOL    HW247228  13.645  12.010   6.197
81797SOL     OW47229   9.189   5.373   0.662
81797SOL    HW147230   9.103   5.375   0.704
81797SOL    HW247231   9.203   5.281   0.639
81798SOL     OW47232  10.283   8.696   8.658
81798SOL    HW147233  10.242   8.772   8.616
81798SOL    HW247234  10.323   8.647   8.586
81799SOL     OW47235   1.004  14.380   5.215
81799SOL    HW147236   1.016  14.473   5.236
81799SOL    HW247237   1.048  14.368   5.131
81800SOL     OW47238  11.925   2.937   6.325
81800SOL    HW147239  11.875   2.909   6.401
81800SOL    HW247240  11.875   2.904   6.250
81801SOL     OW47241   9.490  11.594   8.608
81801SOL    HW147242   9.460  11.601   8.518
81801SOL    HW247243   9.491  11.684   8.641
81802SOL     OW47244   0.170   3.264   9.124
81802SOL    HW147245   0.225   3.275   9.201
81802SOL    HW247246   0.154   3.170   9.119
81803SOL     OW47247   6.563   4.211  13.622
81803SOL    HW147248   6.532   4.130  13.661
81803SOL    HW247249   6.497   4.276  13.646
81804SOL     OW47250   7.485   4.161  11.605
81804SOL    HW147251   7.478   4.088  11.667
81804SOL    HW247252   7.425   4.138  11.534
81805SOL     OW47253  12.462  12.373  12.653
81805SOL    HW147254  12.370  12.354  12.636
81805SOL    HW247255  12.479  12.455  12.607
81806SOL     OW47256   7.108  13.121   7.864
81806SOL    HW147257   7.070  13.161   7.786
81806SOL    HW247258   7.051  13.147   7.936
81807SOL     OW47259   0.881  13.280   6.030
81807SOL    HW147260   0.942  13.301   5.959
81807SOL    HW247261   0.795  13.278   5.988
81808SOL     OW47262  13.022   4.717   7.798
81808SOL    HW147263  13.037   4.733   7.705
81808SOL    HW247264  13.088   4.651   7.822
81809SOL     OW47265   7.701   7.529   3.921
81809SOL    HW147266   7.662   7.615   3.931
81809SOL    HW247267   7.648   7.472   3.978
81810SOL     OW47268   8.981  12.940  12.540
81810SOL    HW147269   8.897  12.908  12.571
81810SOL    HW247270   9.033  12.862  12.522
81811SOL     OW47271  14.262  11.667   8.761
81811SOL    HW147272  14.212  11.649   8.841
81811SOL    HW247273  14.291  11.758   8.770
81812SOL     OW47274  11.227   2.099  12.536
81812SOL    HW147275  11.173   2.059  12.604
81812SOL    HW247276  11.317   2.085  12.566
81813SOL     OW47277   9.329  14.661   3.339
81813SOL    HW147278   9.275  14.618   3.405
81813SOL    HW247279   9.343  14.593   3.272
81814SOL     OW47280  10.829   4.087   7.963
81814SOL    HW147281  10.918   4.056   7.978
81814SOL    HW247282  10.837   4.183   7.960
81815SOL     OW47283   7.367   8.665   5.770
81815SOL    HW147284   7.455   8.643   5.799
81815SOL    HW247285   7.310   8.607   5.820
81816SOL     OW47286  14.481   9.748   4.817
81816SOL    HW147287  14.559   9.694   4.831
81816SOL    HW247288  14.459   9.780   4.905
81817SOL     OW47289   5.810   6.533   2.133
81817SOL    HW147290   5.776   6.514   2.046
81817SOL    HW247291   5.878   6.600   2.119
81818SOL     OW47292   0.083   9.138  13.895
81818SOL    HW147293   0.170   9.139  13.857
81818SOL    HW247294   0.024   9.165  13.824
81819SOL     OW47295  10.397  11.096  10.592
81819SOL    HW147296  10.421  11.142  10.673
81819SOL    HW247297  10.320  11.044  10.615
81820SOL     OW47298   9.735   9.334   9.188
81820SOL    HW147299   9.815   9.284   9.206
81820SOL    HW247300   9.693   9.344   9.274
81821SOL     OW47301   4.794   5.898   3.565
81821SOL    HW147302   4.875   5.946   3.548
81821SOL    HW247303   4.822   5.820   3.612
81822SOL     OW47304   5.793   6.665   4.250
81822SOL    HW147305   5.710   6.695   4.214
81822SOL    HW247306   5.769   6.589   4.303
81823SOL     OW47307  12.811   9.419  10.251
81823SOL    HW147308  12.850   9.370  10.179
81823SOL    HW247309  12.828   9.511  10.230
81824SOL     OW47310   4.061   5.922   5.810
81824SOL    HW147311   3.973   5.895   5.839
81824SOL    HW247312   4.096   5.845   5.765
81825SOL     OW47313   9.715   7.941   8.611
81825SOL    HW147314   9.631   7.897   8.621
81825SOL    HW247315   9.769   7.878   8.563
81826SOL     OW47316  13.132   6.659   6.008
81826SOL    HW147317  13.097   6.671   5.919
81826SOL    HW247318  13.128   6.746   6.047
81827SOL     OW47319   1.790   5.299   8.802
81827SOL    HW147320   1.822   5.308   8.712
81827SOL    HW247321   1.699   5.271   8.792
81828SOL     OW47322   1.021   7.138   1.581
81828SOL    HW147323   0.963   7.190   1.637
81828SOL    HW247324   0.973   7.056   1.568
81829SOL     OW47325   0.189  13.092   1.501
81829SOL    HW147326   0.162  13.003   1.526
81829SOL    HW247327   0.208  13.086   1.408
81830SOL     OW47328  10.320   2.583   3.978
81830SOL    HW147329  10.362   2.514   3.927
81830SOL    HW247330  10.383   2.602   4.048
81831SOL     OW47331   9.319   8.552   3.878
81831SOL    HW147332   9.321   8.642   3.846
81831SOL    HW247333   9.227   8.527   3.874
81832SOL     OW47334   8.207   8.412  11.076
81832SOL    HW147335   8.292   8.455  11.087
81832SOL    HW247336   8.146   8.485  11.062
81833SOL     OW47337   8.239   9.228   8.318
81833SOL    HW147338   8.157   9.177   8.318
81833SOL    HW247339   8.308   9.162   8.324
81834SOL     OW47340  13.871   4.291  12.852
81834SOL    HW147341  13.947   4.235  12.865
81834SOL    HW247342  13.908   4.376  12.829
81835SOL     OW47343   1.790   4.360  10.374
81835SOL    HW147344   1.855   4.338  10.307
81835SOL    HW247345   1.715   4.304  10.353
81836SOL     OW47346   0.365   6.721  12.621
81836SOL    HW147347   0.391   6.651  12.561
81836SOL    HW247348   0.284   6.756  12.583
81837SOL     OW47349   5.765  11.883  13.330
81837SOL    HW147350   5.725  11.867  13.416
81837SOL    HW247351   5.774  11.796  13.292
81838SOL     OW47352  11.750  12.641  14.836
81838SOL    HW147353  11.816  12.583  14.799
81838SOL    HW247354  11.678  12.638  14.773
81839SOL     OW47355  12.984  10.082   9.196
81839SOL    HW147356  12.974  10.138   9.119
81839SOL    HW247357  12.981   9.993   9.162
81840SOL     OW47358   3.714  10.225  13.644
81840SOL    HW147359   3.796  10.181  13.665
81840SOL    HW247360   3.656  10.201  13.716
81841SOL     OW47361   0.523   9.359   0.466
81841SOL    HW147362   0.547   9.349   0.558
81841SOL    HW247363   0.602   9.393   0.424
81842SOL     OW47364   7.901  14.350   4.046
81842SOL    HW147365   7.892  14.261   4.011
81842SOL    HW247366   7.996  14.363   4.054
81843SOL     OW47367  14.773  14.010   1.990
81843SOL    HW147368  14.856  14.006   2.037
81843SOL    HW247369  14.714  14.057   2.050
81844SOL     OW47370   4.617  13.850   7.347
81844SOL    HW147371   4.711  13.865   7.357
81844SOL    HW247372   4.610  13.794   7.270
81845SOL     OW47373   9.570   4.603   8.232
81845SOL    HW147374   9.583   4.516   8.271
81845SOL    HW247375   9.640   4.656   8.269
81846SOL     OW47376   7.237   6.955  13.040
81846SOL    HW147377   7.288   6.954  13.121
81846SOL    HW247378   7.152   6.919  13.065
81847SOL     OW47379  13.991  12.233   0.461
81847SOL    HW147380  14.057  12.281   0.411
81847SOL    HW247381  14.043  12.176   0.518
81848SOL     OW47382  12.438   5.088  13.229
81848SOL    HW147383  12.438   4.994  13.245
81848SOL    HW247384  12.506   5.122  13.286
81849SOL     OW47385   3.564   1.195   8.937
81849SOL    HW147386   3.575   1.192   8.842
81849SOL    HW247387   3.502   1.266   8.952
81850SOL     OW47388  12.280   4.373   7.760
81850SOL    HW147389  12.315   4.293   7.720
81850SOL    HW247390  12.219   4.407   7.696
81851SOL     OW47391   4.416   1.650   6.386
81851SOL    HW147392   4.340   1.653   6.443
81851SOL    HW247393   4.470   1.578   6.421
81852SOL     OW47394   6.499   9.412  11.710
81852SOL    HW147395   6.467   9.502  11.705
81852SOL    HW247396   6.581   9.418  11.759
81853SOL     OW47397  10.112  14.686   0.268
81853SOL    HW147398  10.020  14.700   0.293
81853SOL    HW247399  10.147  14.628   0.336
81854SOL     OW47400   1.465   3.956   7.873
81854SOL    HW147401   1.470   3.876   7.821
81854SOL    HW247402   1.468   3.926   7.963
81855SOL     OW47403  14.150   9.671  10.136
81855SOL    HW147404  14.112   9.628  10.060
81855SOL    HW247405  14.227   9.717  10.102
81856SOL     OW47406   5.028   2.203  13.453
81856SOL    HW147407   5.091   2.155  13.399
81856SOL    HW247408   4.991   2.136  13.511
81857SOL     OW47409   8.029   6.398  12.938
81857SOL    HW147410   8.099   6.460  12.959
81857SOL    HW247411   8.074   6.324  12.897
81858SOL     OW47412   9.608  12.320   4.316
81858SOL    HW147413   9.563  12.384   4.260
81858SOL    HW247414   9.663  12.373   4.373
81859SOL     OW47415  10.293   1.704   1.216
81859SOL    HW147416  10.325   1.680   1.303
81859SOL    HW247417  10.301   1.624   1.165
81860SOL     OW47418   1.734   0.959   8.298
81860SOL    HW147419   1.724   1.052   8.318
81860SOL    HW247420   1.807   0.930   8.353
81861SOL     OW47421   1.665  12.150  12.153
81861SOL    HW147422   1.676  12.108  12.068
81861SOL    HW247423   1.679  12.243  12.136
81862SOL     OW47424   1.376  11.523   3.712
81862SOL    HW147425   1.419  11.576   3.779
81862SOL    HW247426   1.399  11.433   3.734
81863SOL     OW47427   4.428   8.446  13.222
81863SOL    HW147428   4.412   8.435  13.128
81863SOL    HW247429   4.504   8.390  13.240
81864SOL     OW47430  11.435  12.457   9.811
81864SOL    HW147431  11.387  12.440   9.730
81864SOL    HW247432  11.457  12.370   9.844
81865SOL     OW47433   3.767  13.885   0.033
81865SOL    HW147434   3.807  13.945  14.853
81865SOL    HW247435   3.841  13.845   0.080
81866SOL     OW47436   7.174   2.131   3.442
81866SOL    HW147437   7.154   2.041   3.414
81866SOL    HW247438   7.096   2.159   3.490
81867SOL     OW47439   5.933  13.885   3.946
81867SOL    HW147440   5.965  13.974   3.929
81867SOL    HW247441   6.007  13.829   3.926
81868SOL     OW47442   7.628   2.009   7.611
81868SOL    HW147443   7.639   2.075   7.544
81868SOL    HW247444   7.636   2.057   7.694
81869SOL     OW47445   2.224  10.223  14.731
81869SOL    HW147446   2.218  10.263  14.644
81869SOL    HW247447   2.204  10.295  14.791
81870SOL     OW47448  14.657  11.363  13.096
81870SOL    HW147449  14.575  11.360  13.145
81870SOL    HW247450  14.648  11.439  13.039
81871SOL     OW47451   9.546  13.736   1.060
81871SOL    HW147452   9.520  13.659   1.009
81871SOL    HW247453   9.641  13.738   1.053
81872SOL     OW47454  12.471   1.113   9.406
81872SOL    HW147455  12.557   1.094   9.370
81872SOL    HW247456  12.422   1.031   9.396
81873SOL     OW47457  13.855   0.233  13.799
81873SOL    HW147458  13.847   0.175  13.723
81873SOL    HW247459  13.856   0.321  13.762
81874SOL     OW47460   7.406  14.568   1.998
81874SOL    HW147461   7.373  14.658   2.002
81874SOL    HW247462   7.380  14.537   1.912
81875SOL     OW47463   6.760   8.888  14.249
81875SOL    HW147464   6.682   8.838  14.224
81875SOL    HW247465   6.767   8.956  14.182
81876SOL     OW47466   5.424   0.963   1.605
81876SOL    HW147467   5.370   0.945   1.528
81876SOL    HW247468   5.367   1.011   1.664
81877SOL     OW47469  10.701  12.013   2.905
81877SOL    HW147470  10.665  12.036   2.820
81877SOL    HW247471  10.632  12.035   2.967
81878SOL     OW47472   3.582   1.329  11.174
81878SOL    HW147473   3.513   1.362  11.117
81878SOL    HW247474   3.539   1.264  11.229
81879SOL     OW47475   3.435   1.524   1.574
81879SOL    HW147476   3.397   1.474   1.502
81879SOL    HW247477   3.448   1.459   1.644
81880SOL     OW47478   1.150  11.532   6.665
81880SOL    HW147479   1.167  11.602   6.728
81880SOL    HW247480   1.061  11.548   6.634
81881SOL     OW47481   9.901   6.240   5.432
81881SOL    HW147482   9.811   6.209   5.443
81881SOL    HW247483   9.955   6.162   5.447
81882SOL     OW47484   7.782  14.432  12.485
81882SOL    HW147485   7.769  14.503  12.422
81882SOL    HW247486   7.813  14.476  12.564
81883SOL     OW47487  11.684   3.356  12.932
81883SOL    HW147488  11.601   3.352  12.980
81883SOL    HW247489  11.751   3.339  12.998
81884SOL     OW47490   1.784   5.168  11.477
81884SOL    HW147491   1.781   5.099  11.410
81884SOL    HW247492   1.791   5.121  11.560
81885SOL     OW47493   6.456   2.613   9.663
81885SOL    HW147494   6.450   2.611   9.758
81885SOL    HW247495   6.538   2.658   9.644
81886SOL     OW47496   2.521   1.479   5.399
81886SOL    HW147497   2.546   1.390   5.423
81886SOL    HW247498   2.428   1.472   5.377
81887SOL     OW47499   8.989   8.832   4.811
81887SOL    HW147500   9.050   8.858   4.742
81887SOL    HW247501   9.024   8.749   4.844
81888SOL     OW47502   6.388   3.171   3.055
81888SOL    HW147503   6.294   3.174   3.033
81888SOL    HW247504   6.428   3.125   2.981
81889SOL     OW47505  11.518   9.135   5.872
81889SOL    HW147506  11.527   9.059   5.814
81889SOL    HW247507  11.424   9.156   5.869
81890SOL     OW47508  14.099  11.806   9.687
81890SOL    HW147509  14.133  11.758   9.611
81890SOL    HW247510  14.059  11.884   9.650
81891SOL     OW47511   2.603   2.311   8.221
81891SOL    HW147512   2.560   2.390   8.253
81891SOL    HW247513   2.534   2.245   8.218
81892SOL     OW47514   9.581   9.622   0.523
81892SOL    HW147515   9.620   9.665   0.447
81892SOL    HW247516   9.561   9.534   0.493
81893SOL     OW47517  14.531   2.132  13.369
81893SOL    HW147518  14.534   2.124  13.273
81893SOL    HW247519  14.481   2.212  13.385
81894SOL     OW47520  10.586   8.548   2.961
81894SOL    HW147521  10.642   8.515   2.890
81894SOL    HW247522  10.572   8.472   3.018
81895SOL     OW47523   0.153  10.985   0.532
81895SOL    HW147524   0.231  11.038   0.548
81895SOL    HW247525   0.113  11.023   0.454
81896SOL     OW47526   5.612   0.745   0.085
81896SOL    HW147527   5.684   0.723   0.026
81896SOL    HW247528   5.634   0.832   0.118
81897SOL     OW47529   1.983   2.979   2.492
81897SOL    HW147530   2.026   2.939   2.417
81897SOL    HW247531   1.890   2.965   2.478
81898SOL     OW47532  12.793   9.728  14.334
81898SOL    HW147533  12.833   9.814  14.334
81898SOL    HW247534  12.739   9.726  14.255
81899SOL     OW47535  10.906   8.188   3.453
81899SOL    HW147536  10.982   8.214   3.400
81899SOL    HW247537  10.915   8.238   3.534
81900SOL     OW47538   9.756   2.207   2.272
81900SOL    HW147539   9.774   2.207   2.366
81900SOL    HW247540   9.748   2.299   2.249
81901SOL     OW47541  11.794   4.735  10.166
81901SOL    HW147542  11.798   4.809  10.226
81901SOL    HW247543  11.777   4.774  10.081
81902SOL     OW47544  11.047   5.601  13.622
81902SOL    HW147545  10.980   5.564  13.565
81902SOL    HW247546  11.083   5.675  13.573
81903SOL     OW47547   6.788   6.307   3.228
81903SOL    HW147548   6.733   6.247   3.178
81903SOL    HW247549   6.812   6.256   3.306
81904SOL     OW47550   4.732   6.878   3.361
81904SOL    HW147551   4.714   6.816   3.432
81904SOL    HW247552   4.812   6.923   3.389
81905SOL     OW47553  13.285  10.296  13.028
81905SOL    HW147554  13.282  10.386  13.060
81905SOL    HW247555  13.235  10.297  12.947
81906SOL     OW47556   2.365  12.498   4.759
81906SOL    HW147557   2.407  12.572   4.802
81906SOL    HW247558   2.273  12.505   4.785
81907SOL     OW47559   7.210   1.617  10.079
81907SOL    HW147560   7.288   1.567  10.055
81907SOL    HW247561   7.156   1.619  10.000
81908SOL     OW47562   2.567  14.192   1.365
81908SOL    HW147563   2.488  14.221   1.410
81908SOL    HW247564   2.610  14.133   1.428
81909SOL     OW47565   3.039   6.671   1.347
81909SOL    HW147566   3.000   6.740   1.294
81909SOL    HW247567   3.078   6.716   1.422
81910SOL     OW47568  11.437   6.030   5.259
81910SOL    HW147569  11.355   6.056   5.216
81910SOL    HW247570  11.492   6.109   5.255
81911SOL     OW47571   5.402  10.137   4.893
81911SOL    HW147572   5.319  10.132   4.844
81911SOL    HW247573   5.403  10.057   4.945
81912SOL     OW47574   1.888   1.954   4.628
81912SOL    HW147575   1.827   1.885   4.652
81912SOL    HW247576   1.887   2.015   4.702
81913SOL     OW47577  11.532   3.835   2.390
81913SOL    HW147578  11.607   3.800   2.437
81913SOL    HW247579  11.456   3.798   2.435
81914SOL     OW47580   3.938   8.017   4.886
81914SOL    HW147581   3.998   8.091   4.896
81914SOL    HW247582   3.993   7.940   4.900
81915SOL     OW47583   6.219   4.527   7.370
81915SOL    HW147584   6.232   4.435   7.390
81915SOL    HW247585   6.133   4.548   7.407
81916SOL     OW47586   0.808   0.631  10.503
81916SOL    HW147587   0.790   0.673  10.419
81916SOL    HW247588   0.732   0.651  10.557
81917SOL     OW47589   1.613   7.507   2.042
81917SOL    HW147590   1.662   7.539   1.966
81917SOL    HW247591   1.628   7.573   2.110
81918SOL     OW47592   2.177  13.381   2.040
81918SOL    HW147593   2.083  13.392   2.034
81918SOL    HW247594   2.194  13.299   1.994
81919SOL     OW47595  12.337  10.855   9.990
81919SOL    HW147596  12.416  10.824   9.946
81919SOL    HW247597  12.368  10.926  10.047
81920SOL     OW47598   6.644  10.905  14.131
81920SOL    HW147599   6.694  10.875  14.056
81920SOL    HW247600   6.584  10.833  14.150
81921SOL     OW47601  10.763   1.585   4.879
81921SOL    HW147602  10.782   1.557   4.789
81921SOL    HW247603  10.789   1.511   4.933
81922SOL     OW47604   5.126   5.595   9.667
81922SOL    HW147605   5.206   5.646   9.654
81922SOL    HW247606   5.138   5.517   9.613
81923SOL     OW47607  12.684   0.457   3.178
81923SOL    HW147608  12.756   0.514   3.204
81923SOL    HW247609  12.666   0.481   3.087
81924SOL     OW47610  10.384  11.775   0.551
81924SOL    HW147611  10.431  11.823   0.619
81924SOL    HW247612  10.437  11.696   0.536
81925SOL     OW47613   3.987  11.761   3.052
81925SOL    HW147614   4.069  11.713   3.052
81925SOL    HW247615   3.956  11.755   2.962
81926SOL     OW47616   8.618   3.869   4.799
81926SOL    HW147617   8.693   3.895   4.852
81926SOL    HW247618   8.562   3.947   4.796
81927SOL     OW47619   2.130   2.327  10.064
81927SOL    HW147620   2.107   2.362   9.978
81927SOL    HW247621   2.064   2.260  10.081
81928SOL     OW47622   1.406   1.753   3.397
81928SOL    HW147623   1.466   1.810   3.348
81928SOL    HW247624   1.448   1.667   3.396
81929SOL     OW47625   7.983  11.669   6.084
81929SOL    HW147626   7.955  11.696   6.171
81929SOL    HW247627   7.998  11.575   6.091
81930SOL     OW47628   2.658   0.108  11.508
81930SOL    HW147629   2.743   0.085  11.472
81930SOL    HW247630   2.677   0.149  11.592
81931SOL     OW47631   3.528   6.189   3.690
81931SOL    HW147632   3.594   6.159   3.752
81931SOL    HW247633   3.498   6.109   3.646
81932SOL     OW47634  10.275   5.815   5.641
81932SOL    HW147635  10.205   5.758   5.610
81932SOL    HW247636  10.266   5.895   5.589
81933SOL     OW47637   6.570  13.362   9.328
81933SOL    HW147638   6.527  13.364   9.413
81933SOL    HW247639   6.599  13.271   9.318
81934SOL     OW47640   3.894  12.353   8.646
81934SOL    HW147641   3.974  12.367   8.697
81934SOL    HW247642   3.924  12.314   8.564
81935SOL     OW47643   0.156   8.674   8.139
81935SOL    HW147644   0.169   8.665   8.233
81935SOL    HW247645   0.233   8.634   8.099
81936SOL     OW47646   4.779   9.962   8.414
81936SOL    HW147647   4.752   9.879   8.451
81936SOL    HW247648   4.700  10.016   8.415
81937SOL     OW47649   6.874   0.435   2.774
81937SOL    HW147650   6.898   0.520   2.736
81937SOL    HW247651   6.888   0.446   2.868
81938SOL     OW47652   1.308   4.983   2.695
81938SOL    HW147653   1.251   4.919   2.735
81938SOL    HW247654   1.249   5.047   2.655
81939SOL     OW47655   4.470   4.500   3.525
81939SOL    HW147656   4.493   4.423   3.577
81939SOL    HW247657   4.494   4.574   3.580
81940SOL     OW47658   8.733   0.474   5.079
81940SOL    HW147659   8.699   0.396   5.035
81940SOL    HW247660   8.825   0.455   5.095
81941SOL     OW47661   4.827   4.803  13.664
81941SOL    HW147662   4.736   4.812  13.691
81941SOL    HW247663   4.825   4.732  13.599
81942SOL     OW47664   5.083   6.175  10.945
81942SOL    HW147665   5.027   6.198  10.871
81942SOL    HW247666   5.139   6.105  10.911
81943SOL     OW47667   8.703  13.428   4.069
81943SOL    HW147668   8.727  13.394   4.155
81943SOL    HW247669   8.786  13.443   4.024
81944SOL     OW47670  10.234   3.633   1.967
81944SOL    HW147671  10.306   3.628   1.904
81944SOL    HW247672  10.166   3.682   1.922
81945SOL     OW47673   5.883   3.252   1.096
81945SOL    HW147674   5.937   3.330   1.112
81945SOL    HW247675   5.848   3.229   1.183
81946SOL     OW47676   0.079   9.406   7.034
81946SOL    HW147677   0.173   9.388   7.028
81946SOL    HW247678   0.041   9.323   7.064
81947SOL     OW47679   9.395   1.311   4.310
81947SOL    HW147680   9.326   1.256   4.273
81947SOL    HW247681   9.461   1.250   4.342
81948SOL     OW47682   9.738   7.195   3.492
81948SOL    HW147683   9.736   7.275   3.438
81948SOL    HW247684   9.680   7.215   3.565
81949SOL     OW47685   5.525   6.075   4.729
81949SOL    HW147686   5.582   6.096   4.803
81949SOL    HW247687   5.440   6.111   4.753
81950SOL     OW47688   4.411  10.926  14.558
81950SOL    HW147689   4.373  10.841  14.583
81950SOL    HW247690   4.373  10.988  14.620
81951SOL     OW47691   3.350  10.814  13.104
81951SOL    HW147692   3.394  10.777  13.028
81951SOL    HW247693   3.379  10.759  13.178
81952SOL     OW47694  10.399  13.603   6.453
81952SOL    HW147695  10.411  13.587   6.359
81952SOL    HW247696  10.304  13.604   6.466
81953SOL     OW47697   8.182   2.730   9.117
81953SOL    HW147698   8.107   2.783   9.142
81953SOL    HW247699   8.258   2.787   9.133
81954SOL     OW47700   9.645   4.143   7.354
81954SOL    HW147701   9.629   4.101   7.438
81954SOL    HW247702   9.558   4.151   7.315
81955SOL     OW47703   5.551   7.560   9.693
81955SOL    HW147704   5.618   7.553   9.625
81955SOL    HW247705   5.565   7.484   9.749
81956SOL     OW47706  14.642  12.199   0.973
81956SOL    HW147707  14.718  12.178   0.919
81956SOL    HW247708  14.668  12.277   1.022
81957SOL     OW47709   2.791  14.233   8.289
81957SOL    HW147710   2.810  14.258   8.199
81957SOL    HW247711   2.827  14.305   8.342
81958SOL     OW47712   7.328  14.854   6.956
81958SOL    HW147713   7.320   0.039   6.888
81958SOL    HW247714   7.413  14.870   6.997
81959SOL     OW47715   2.998   3.233   9.393
81959SOL    HW147716   3.092   3.237   9.411
81959SOL    HW247717   2.991   3.249   9.299
81960SOL     OW47718   7.048   9.356  13.141
81960SOL    HW147719   7.104   9.327  13.068
81960SOL    HW247720   7.094   9.326  13.219
81961SOL     OW47721   5.742   0.151  14.103
81961SOL    HW147722   5.835   0.156  14.080
81961SOL    HW247723   5.710   0.240  14.089
81962SOL     OW47724   6.859  12.018  12.600
81962SOL    HW147725   6.850  12.062  12.684
81962SOL    HW247726   6.938  11.965  12.609
81963SOL     OW47727   2.671   4.544   1.022
81963SOL    HW147728   2.748   4.512   1.069
81963SOL    HW247729   2.676   4.503   0.936
81964SOL     OW47730   6.072   7.663   9.375
81964SOL    HW147731   5.998   7.690   9.321
81964SOL    HW247732   6.149   7.701   9.333
81965SOL     OW47733  12.985   5.009  11.201
81965SOL    HW147734  13.011   4.968  11.283
81965SOL    HW247735  13.064   5.004  11.146
81966SOL     OW47736   7.893   1.114   6.346
81966SOL    HW147737   7.808   1.117   6.390
81966SOL    HW247738   7.932   1.200   6.363
81967SOL     OW47739   4.204  13.843   3.446
81967SOL    HW147740   4.287  13.827   3.400
81967SOL    HW247741   4.209  13.935   3.472
81968SOL     OW47742  11.929  13.117   5.369
81968SOL    HW147743  11.941  13.212   5.375
81968SOL    HW247744  12.015  13.083   5.348
81969SOL     OW47745  14.295   7.390   8.331
81969SOL    HW147746  14.336   7.318   8.284
81969SOL    HW247747  14.351   7.404   8.408
81970SOL     OW47748   3.949   7.776   1.753
81970SOL    HW147749   4.036   7.748   1.784
81970SOL    HW247750   3.942   7.868   1.780
81971SOL     OW47751   1.800   2.689   9.879
81971SOL    HW147752   1.862   2.761   9.862
81971SOL    HW247753   1.824   2.657   9.966
81972SOL     OW47754  13.373   8.520   1.026
81972SOL    HW147755  13.404   8.566   0.948
81972SOL    HW247756  13.279   8.534   1.027
81973SOL     OW47757   7.412   2.835   3.786
81973SOL    HW147758   7.491   2.780   3.790
81973SOL    HW247759   7.350   2.784   3.733
81974SOL     OW47760   6.110   7.400   9.154
81974SOL    HW147761   6.148   7.331   9.099
81974SOL    HW247762   6.167   7.475   9.141
81975SOL     OW47763   2.607   2.786   5.578
81975SOL    HW147764   2.653   2.783   5.494
81975SOL    HW247765   2.561   2.702   5.583
81976SOL     OW47766   9.648   0.695   2.728
81976SOL    HW147767   9.679   0.730   2.644
81976SOL    HW247768   9.591   0.622   2.704
81977SOL     OW47769  11.744   7.413   4.705
81977SOL    HW147770  11.806   7.350   4.741
81977SOL    HW247771  11.688   7.437   4.779
81978SOL     OW47772   6.816   9.764  14.094
81978SOL    HW147773   6.816   9.678  14.053
81978SOL    HW247774   6.725   9.778  14.120
81979SOL     OW47775  11.970   6.219   7.852
81979SOL    HW147776  12.049   6.256   7.812
81979SOL    HW247777  11.899   6.275   7.822
81980SOL     OW47778  13.435   3.090   3.506
81980SOL    HW147779  13.381   3.095   3.585
81980SOL    HW247780  13.521   3.120   3.535
81981SOL     OW47781   8.645   5.755   8.259
81981SOL    HW147782   8.558   5.792   8.277
81981SOL    HW247783   8.651   5.752   8.164
81982SOL     OW47784   0.013   7.942   7.070
81982SOL    HW147785   0.074   7.936   7.144
81982SOL    HW247786   0.061   7.992   7.004
81983SOL     OW47787   9.456  12.545   6.269
81983SOL    HW147788   9.433  12.547   6.176
81983SOL    HW247789   9.549  12.566   6.271
81984SOL     OW47790  13.013  13.065  12.635
81984SOL    HW147791  13.024  13.048  12.728
81984SOL    HW247792  12.985  12.981  12.598
81985SOL     OW47793   2.437  11.415   6.399
81985SOL    HW147794   2.343  11.429   6.411
81985SOL    HW247795   2.473  11.503   6.385
81986SOL     OW47796  12.278   2.597   5.266
81986SOL    HW147797  12.282   2.670   5.204
81986SOL    HW247798  12.341   2.619   5.334
81987SOL     OW47799   3.778   6.448   6.559
81987SOL    HW147800   3.685   6.446   6.539
81987SOL    HW247801   3.819   6.398   6.488
81988SOL     OW47802  10.053  12.202   2.237
81988SOL    HW147803  10.037  12.134   2.172
81988SOL    HW247804   9.976  12.199   2.294
81989SOL     OW47805  11.226   4.417  11.517
81989SOL    HW147806  11.271   4.494  11.553
81989SOL    HW247807  11.293   4.349  11.516
81990SOL     OW47808   5.894   7.736   5.467
81990SOL    HW147809   5.956   7.808   5.460
81990SOL    HW247810   5.817   7.774   5.510
81991SOL     OW47811  12.889   9.383  11.837
81991SOL    HW147812  12.871   9.385  11.931
81991SOL    HW247813  12.890   9.290  11.814
81992SOL     OW47814  14.291   3.066   4.093
81992SOL    HW147815  14.350   3.137   4.120
81992SOL    HW247816  14.219   3.111   4.049
81993SOL     OW47817   3.884  13.124  14.323
81993SOL    HW147818   3.971  13.086  14.310
81993SOL    HW247819   3.900  13.208  14.365
81994SOL     OW47820   5.635  13.555   7.076
81994SOL    HW147821   5.629  13.567   6.982
81994SOL    HW247822   5.724  13.522   7.091
81995SOL     OW47823  13.308   3.885  13.190
81995SOL    HW147824  13.217   3.902  13.165
81995SOL    HW247825  13.359   3.930  13.123
81996SOL     OW47826  14.156   3.490   4.250
81996SOL    HW147827  14.240   3.505   4.206
81996SOL    HW247828  14.100   3.561   4.218
81997SOL     OW47829   8.452   7.187   3.749
81997SOL    HW147830   8.507   7.177   3.671
81997SOL    HW247831   8.500   7.141   3.818
81998SOL     OW47832   5.422   5.517   0.378
81998SOL    HW147833   5.410   5.480   0.466
81998SOL    HW247834   5.474   5.596   0.392
81999SOL     OW47835   9.862  14.337   8.681
81999SOL    HW147836   9.767  14.344   8.671
81999SOL    HW247837   9.878  14.243   8.694
82000SOL     OW47838  12.844   4.414   6.949
82000SOL    HW147839  12.907   4.466   6.999
82000SOL    HW247840  12.762   4.462   6.956
82001SOL     OW47841   3.107   9.204   0.775
82001SOL    HW147842   3.187   9.241   0.812
82001SOL    HW247843   3.112   9.223   0.681
82002SOL     OW47844   2.544   6.251   9.389
82002SOL    HW147845   2.533   6.325   9.331
82002SOL    HW247846   2.493   6.273   9.467
82003SOL     OW47847   0.712   4.896  12.353
82003SOL    HW147848   0.730   4.968  12.293
82003SOL    HW247849   0.760   4.822  12.317
82004SOL     OW47850  11.961   4.571   2.786
82004SOL    HW147851  11.896   4.507   2.756
82004SOL    HW247852  11.928   4.655   2.754
82005SOL     OW47853   1.539  11.825  13.818
82005SOL    HW147854   1.548  11.732  13.838
82005SOL    HW247855   1.509  11.827  13.727
82006SOL     OW47856   3.364   1.836   0.392
82006SOL    HW147857   3.374   1.742   0.377
82006SOL    HW247858   3.342   1.872   0.307
82007SOL     OW47859   6.373  14.366   8.233
82007SOL    HW147860   6.327  14.360   8.150
82007SOL    HW247861   6.425  14.446   8.226
82008SOL     OW47862  12.967   7.446  10.465
82008SOL    HW147863  13.043   7.397  10.433
82008SOL    HW247864  12.892   7.398  10.430
82009SOL     OW47865   6.915   2.446  12.561
82009SOL    HW147866   6.971   2.470  12.635
82009SOL    HW247867   6.972   2.454  12.485
82010SOL     OW47868   3.202  13.970   5.256
82010SOL    HW147869   3.189  14.033   5.327
82010SOL    HW247870   3.270  13.911   5.288
82011SOL     OW47871  14.722   7.169   0.365
82011SOL    HW147872  14.768   7.213   0.293
82011SOL    HW247873  14.725   7.076   0.341
82012SOL     OW47874  10.735   7.021   7.151
82012SOL    HW147875  10.793   7.071   7.093
82012SOL    HW247876  10.738   6.932   7.117
82013SOL     OW47877  10.459   3.091   1.869
82013SOL    HW147878  10.485   3.098   1.777
82013SOL    HW247879  10.520   3.148   1.916
82014SOL     OW47880   2.134   6.484   8.924
82014SOL    HW147881   2.168   6.397   8.946
82014SOL    HW247882   2.042   6.469   8.901
82015SOL     OW47883   9.665  11.999   2.018
82015SOL    HW147884   9.684  12.086   2.055
82015SOL    HW247885   9.598  11.963   2.075
82016SOL     OW47886   1.189  14.652   1.869
82016SOL    HW147887   1.239  14.582   1.912
82016SOL    HW247888   1.255  14.715   1.842
82017SOL     OW47889   9.505   6.439  13.191
82017SOL    HW147890   9.543   6.353  13.210
82017SOL    HW247891   9.533   6.459  13.102
82018SOL     OW47892   7.836   1.216  12.963
82018SOL    HW147893   7.764   1.251  12.911
82018SOL    HW247894   7.915   1.250  12.921
82019SOL     OW47895   6.722   5.087   0.969
82019SOL    HW147896   6.803   5.043   0.994
82019SOL    HW247897   6.713   5.071   0.875
82020SOL     OW47898   0.058  12.386   6.175
82020SOL    HW147899   0.073  12.404   6.082
82020SOL    HW247900   0.119  12.314   6.196
82021SOL     OW47901   7.141   5.678   5.182
82021SOL    HW147902   7.115   5.768   5.203
82021SOL    HW247903   7.061   5.626   5.195
82022SOL     OW47904  11.287   1.210   5.925
82022SOL    HW147905  11.351   1.281   5.926
82022SOL    HW247906  11.312   1.154   5.998
82023SOL     OW47907  14.462   2.357   6.340
82023SOL    HW147908  14.466   2.331   6.248
82023SOL    HW247909  14.442   2.451   6.338
82024SOL     OW47910   8.036   3.580   1.019
82024SOL    HW147911   8.047   3.667   0.980
82024SOL    HW247912   8.106   3.527   0.980
82025SOL     OW47913  13.828  11.812   7.922
82025SOL    HW147914  13.905  11.869   7.918
82025SOL    HW247915  13.773  11.852   7.990
82026SOL     OW47916  13.521   9.453  12.320
82026SOL    HW147917  13.596   9.451  12.261
82026SOL    HW247918  13.554   9.420  12.403
82027SOL     OW47919   7.888  11.974  11.797
82027SOL    HW147920   7.939  11.896  11.815
82027SOL    HW247921   7.804  11.941  11.765
82028SOL     OW47922   8.754   9.952   3.456
82028SOL    HW147923   8.786   9.865   3.482
82028SOL    HW247924   8.666   9.935   3.421
82029SOL     OW47925   0.577   7.674   6.126
82029SOL    HW147926   0.653   7.618   6.114
82029SOL    HW247927   0.599   7.755   6.079
82030SOL     OW47928   4.159   6.108  12.933
82030SOL    HW147929   4.091   6.042  12.952
82030SOL    HW247930   4.126   6.156  12.858
82031SOL     OW47931  10.829   8.204   6.336
82031SOL    HW147932  10.749   8.241   6.298
82031SOL    HW247933  10.892   8.277   6.333
82032SOL     OW47934  12.542  10.365  11.900
82032SOL    HW147935  12.617  10.329  11.948
82032SOL    HW247936  12.548  10.460  11.912
82033SOL     OW47937  12.036  13.257   4.487
82033SOL    HW147938  11.962  13.200   4.468
82033SOL    HW247939  12.109  13.218   4.437
82034SOL     OW47940   5.418   3.448   7.559
82034SOL    HW147941   5.363   3.374   7.532
82034SOL    HW247942   5.385   3.522   7.507
82035SOL     OW47943  10.395  12.197  14.049
82035SOL    HW147944  10.348  12.203  14.133
82035SOL    HW247945  10.484  12.227  14.070
82036SOL     OW47946  10.228   0.674  14.869
82036SOL    HW147947  10.303   0.696  14.813
82036SOL    HW247948  10.233   0.738   0.058
82037SOL     OW47949   3.628   1.114  11.493
82037SOL    HW147950   3.548   1.125  11.442
82037SOL    HW247951   3.634   1.019  11.506
82038SOL     OW47952   0.901   9.154   2.834
82038SOL    HW147953   0.922   9.104   2.913
82038SOL    HW247954   0.878   9.241   2.865
82039SOL     OW47955   0.810   7.571   4.033
82039SOL    HW147956   0.894   7.526   4.024
82039SOL    HW247957   0.777   7.581   3.944
82040SOL     OW47958   1.896   1.166  10.991
82040SOL    HW147959   1.854   1.178  10.906
82040SOL    HW247960   1.945   1.084  10.981
82041SOL     OW47961  11.965   3.453   9.863
82041SOL    HW147962  12.000   3.448   9.952
82041SOL    HW247963  11.986   3.368   9.824
82042SOL     OW47964   5.566   9.611   9.804
82042SOL    HW147965   5.575   9.706   9.812
82042SOL    HW247966   5.621   9.575   9.875
82043SOL     OW47967  11.467   2.867   3.762
82043SOL    HW147968  11.423   2.800   3.815
82043SOL    HW247969  11.424   2.949   3.786
82044SOL     OW47970  12.367   6.700   1.597
82044SOL    HW147971  12.277   6.682   1.625
82044SOL    HW247972  12.416   6.713   1.678
82045SOL     OW47973   3.673   9.419   8.319
82045SOL    HW147974   3.711   9.340   8.358
82045SOL    HW247975   3.625   9.387   8.243
82046SOL     OW47976   8.940   7.423  14.109
82046SOL    HW147977   8.957   7.411  14.202
82046SOL    HW247978   8.894   7.343  14.082
82047SOL     OW47979  10.733   6.437   5.534
82047SOL    HW147980  10.822   6.468   5.519
82047SOL    HW247981  10.678   6.493   5.480
82048SOL     OW47982   7.778   3.763   3.683
82048SOL    HW147983   7.817   3.847   3.708
82048SOL    HW247984   7.814   3.745   3.596
82049SOL     OW47985   0.866   8.454   3.488
82049SOL    HW147986   0.862   8.375   3.434
82049SOL    HW247987   0.780   8.460   3.530
82050SOL     OW47988   6.891  14.432   2.250
82050SOL    HW147989   6.821  14.490   2.280
82050SOL    HW247990   6.846  14.364   2.201
82051SOL     OW47991   7.548   2.430  10.924
82051SOL    HW147992   7.632   2.385  10.931
82051SOL    HW247993   7.558   2.509  10.978
82052SOL     OW47994  10.652   3.988   3.647
82052SOL    HW147995  10.616   4.072   3.675
82052SOL    HW247996  10.717   4.010   3.580
82053SOL     OW47997   4.666   3.027   6.097
82053SOL    HW147998   4.697   3.118   6.105
82053SOL    HW247999   4.664   2.995   6.187
82054SOL     OW48000  13.349   0.747   2.970
82054SOL    HW148001  13.282   0.680   2.976
82054SOL    HW248002  13.416   0.709   2.912
82055SOL     OW48003  11.342   7.884  14.775
82055SOL    HW148004  11.371   7.802  14.736
82055SOL    HW248005  11.388   7.888  14.859
82056SOL     OW48006  10.268   6.467   8.824
82056SOL    HW148007  10.316   6.386   8.806
82056SOL    HW248008  10.258   6.469   8.919
82057SOL     OW48009  11.622   6.771  11.668
82057SOL    HW148010  11.682   6.838  11.700
82057SOL    HW248011  11.570   6.816  11.601
82058SOL     OW48012  10.096   4.289   9.346
82058SOL    HW148013  10.142   4.349   9.405
82058SOL    HW248014  10.101   4.332   9.261
82059SOL     OW48015   3.267   9.664   9.820
82059SOL    HW148016   3.219   9.587   9.789
82059SOL    HW248017   3.359   9.636   9.823
82060SOL     OW48018  13.774  10.688   0.874
82060SOL    HW148019  13.758  10.688   0.780
82060SOL    HW248020  13.844  10.624   0.886
82061SOL     OW48021  13.767   2.734  13.221
82061SOL    HW148022  13.807   2.675  13.157
82061SOL    HW248023  13.673   2.723  13.209
82062SOL     OW48024   2.704   0.364   7.326
82062SOL    HW148025   2.742   0.293   7.379
82062SOL    HW248026   2.760   0.370   7.249
82063SOL     OW48027   6.152   2.650   1.255
82063SOL    HW148028   6.174   2.656   1.162
82063SOL    HW248029   6.235   2.634   1.299
82064SOL     OW48030   7.134   7.386  11.994
82064SOL    HW148031   7.087   7.426  11.920
82064SOL    HW248032   7.224   7.379  11.963
82065SOL     OW48033   2.031  14.140  13.675
82065SOL    HW148034   1.965  14.114  13.611
82065SOL    HW248035   1.987  14.131  13.759
82066SOL     OW48036   4.785   8.107   6.183
82066SOL    HW148037   4.726   8.057   6.240
82066SOL    HW248038   4.871   8.096   6.223
82067SOL     OW48039   9.285   8.939   2.922
82067SOL    HW148040   9.262   9.015   2.870
82067SOL    HW248041   9.332   8.881   2.861
82068SOL     OW48042  14.591   1.575   4.479
82068SOL    HW148043  14.511   1.550   4.434
82068SOL    HW248044  14.600   1.512   4.550
82069SOL     OW48045  12.897   5.884  12.449
82069SOL    HW148046  12.836   5.953  12.474
82069SOL    HW248047  12.983   5.920  12.469
82070SOL     OW48048  11.713   7.349  10.903
82070SOL    HW148049  11.727   7.314  10.815
82070SOL    HW248050  11.627   7.393  10.898
82071SOL     OW48051  13.553  12.501   1.340
82071SOL    HW148052  13.582  12.586   1.306
82071SOL    HW248053  13.618  12.439   1.307
82072SOL     OW48054  10.134   9.937   8.279
82072SOL    HW148055  10.075   9.991   8.330
82072SOL    HW248056  10.221   9.974   8.294
82073SOL     OW48057  11.705   6.294  12.059
82073SOL    HW148058  11.755   6.219  12.025
82073SOL    HW248059  11.617   6.283  12.022
82074SOL     OW48060   9.247   2.666  13.067
82074SOL    HW148061   9.164   2.661  13.115
82074SOL    HW248062   9.240   2.598  13.000
82075SOL     OW48063  11.866   9.124   6.590
82075SOL    HW148064  11.895   9.041   6.552
82075SOL    HW248065  11.776   9.108   6.619
82076SOL     OW48066   4.657   3.487   2.709
82076SOL    HW148067   4.598   3.479   2.634
82076SOL    HW248068   4.604   3.459   2.784
82077SOL     OW48069  13.162   9.267   7.324
82077SOL    HW148070  13.091   9.306   7.273
82077SOL    HW248071  13.121   9.195   7.371
82078SOL     OW48072   4.489   8.743  10.292
82078SOL    HW148073   4.574   8.704  10.312
82078SOL    HW248074   4.455   8.690  10.220
82079SOL     OW48075  13.269   5.875   4.152
82079SOL    HW148076  13.360   5.904   4.150
82079SOL    HW248077  13.273   5.786   4.187
82080SOL     OW48078   5.421  10.838  14.636
82080SOL    HW148079   5.411  10.807  14.726
82080SOL    HW248080   5.492  10.903  14.640
82081SOL     OW48081   3.181   0.880   9.317
82081SOL    HW148082   3.086   0.877   9.323
82081SOL    HW248083   3.201   0.845   9.231
82082SOL     OW48084   6.277   6.266  13.131
82082SOL    HW148085   6.204   6.286  13.072
82082SOL    HW248086   6.239   6.270  13.218
82083SOL     OW48087   2.111   4.827   1.362
82083SOL    HW148088   2.037   4.782   1.403
82083SOL    HW248089   2.071   4.894   1.307
82084SOL     OW48090  10.195   4.150  11.263
82084SOL    HW148091  10.250   4.205  11.319
82084SOL    HW248092  10.172   4.207  11.190
82085SOL     OW48093   8.027  10.090   5.890
82085SOL    HW148094   8.084  10.153   5.934
82085SOL    HW248095   8.062  10.083   5.801
82086SOL     OW48096  14.336   1.692   0.052
82086SOL    HW148097  14.394   1.744  14.878
82086SOL    HW248098  14.385   1.683   0.134
82087SOL     OW48099  10.904   9.468   7.397
82087SOL    HW148100  10.988   9.492   7.359
82087SOL    HW248101  10.851   9.441   7.323
82088SOL     OW48102  11.017  10.347   5.176
82088SOL    HW148103  11.101  10.393   5.181
82088SOL    HW248104  11.036  10.269   5.123
82089SOL     OW48105   1.351   6.818  14.504
82089SOL    HW148106   1.295   6.749  14.538
82089SOL    HW248107   1.316   6.837  14.417
82090SOL     OW48108   5.013   4.477   8.578
82090SOL    HW148109   4.942   4.420   8.551
82090SOL    HW248110   4.983   4.515   8.660
82091SOL     OW48111   2.027  13.531   6.649
82091SOL    HW148112   1.965  13.519   6.721
82091SOL    HW248113   2.035  13.626   6.640
82092SOL     OW48114   7.177   0.441   2.504
82092SOL    HW148115   7.125   0.480   2.434
82092SOL    HW248116   7.145   0.351   2.511
82093SOL     OW48117   4.069   2.820  11.015
82093SOL    HW148118   4.002   2.763  10.975
82093SOL    HW248119   4.044   2.825  11.107
82094SOL     OW48120   0.984   5.043  14.699
82094SOL    HW148121   1.031   4.964  14.726
82094SOL    HW248122   1.052   5.107  14.683
82095SOL     OW48123  10.132  11.187   7.244
82095SOL    HW148124  10.161  11.261   7.297
82095SOL    HW248125  10.036  11.190   7.251
82096SOL     OW48126   4.227   1.645   9.790
82096SOL    HW148127   4.290   1.629   9.860
82096SOL    HW248128   4.264   1.718   9.740
82097SOL     OW48129   6.038  14.831   5.106
82097SOL    HW148130   6.119  14.870   5.138
82097SOL    HW248131   6.052  14.737   5.110
82098SOL     OW48132   8.989  10.689   7.298
82098SOL    HW148133   9.039  10.613   7.326
82098SOL    HW248134   8.965  10.734   7.379
82099SOL     OW48135  12.562   8.893   5.036
82099SOL    HW148136  12.552   8.830   5.108
82099SOL    HW248137  12.501   8.863   4.969
82100SOL     OW48138   9.736   5.282  11.982
82100SOL    HW148139   9.826   5.313  11.968
82100SOL    HW248140   9.715   5.235  11.901
82101SOL     OW48141   4.255   3.001   6.934
82101SOL    HW148142   4.280   3.026   6.845
82101SOL    HW248143   4.338   2.982   6.978
82102SOL     OW48144   2.003   7.738   6.790
82102SOL    HW148145   2.049   7.656   6.808
82102SOL    HW248146   1.989   7.777   6.877
82103SOL     OW48147  14.056  10.466   8.596
82103SOL    HW148148  14.058  10.370   8.603
82103SOL    HW248149  14.098  10.497   8.676
82104SOL     OW48150  10.802  12.501   6.640
82104SOL    HW148151  10.785  12.566   6.572
82104SOL    HW248152  10.787  12.548   6.722
82105SOL     OW48153   7.901  11.558   2.225
82105SOL    HW148154   7.824  11.582   2.174
82105SOL    HW248155   7.915  11.465   2.207
82106SOL     OW48156   1.779  11.294   4.506
82106SOL    HW148157   1.782  11.358   4.577
82106SOL    HW248158   1.712  11.232   4.532
82107SOL     OW48159   5.458  10.249  13.602
82107SOL    HW148160   5.549  10.276  13.602
82107SOL    HW248161   5.442  10.217  13.513
82108SOL     OW48162   2.056   3.777   9.235
82108SOL    HW148163   2.044   3.864   9.198
82108SOL    HW248164   1.999   3.721   9.183
82109SOL     OW48165   2.264   8.483  12.879
82109SOL    HW148166   2.299   8.495  12.968
82109SOL    HW248167   2.306   8.403  12.848
82110SOL     OW48168   5.023  13.440   9.184
82110SOL    HW148169   4.942  13.462   9.229
82110SOL    HW248170   5.046  13.353   9.216
82111SOL     OW48171   5.362   9.926   3.884
82111SOL    HW148172   5.430   9.876   3.929
82111SOL    HW248173   5.290   9.864   3.872
82112SOL     OW48174   8.195   4.199   8.677
82112SOL    HW148175   8.179   4.274   8.621
82112SOL    HW248176   8.245   4.138   8.622
82113SOL     OW48177   2.336   7.599   8.442
82113SOL    HW148178   2.415   7.576   8.393
82113SOL    HW248179   2.284   7.651   8.381
82114SOL     OW48180   1.273   9.292   0.131
82114SOL    HW148181   1.279   9.219   0.192
82114SOL    HW248182   1.364   9.312   0.108
82115SOL     OW48183   9.105   7.336  10.167
82115SOL    HW148184   9.013   7.332  10.191
82115SOL    HW248185   9.152   7.319  10.248
82116SOL     OW48186  10.768   1.746   3.177
82116SOL    HW148187  10.819   1.703   3.246
82116SOL    HW248188  10.814   1.724   3.096
82117SOL     OW48189   9.935  13.525   7.637
82117SOL    HW148190  10.006  13.486   7.586
82117SOL    HW248191   9.977  13.554   7.718
82118SOL     OW48192   3.658   8.034   9.342
82118SOL    HW148193   3.741   8.044   9.389
82118SOL    HW248194   3.597   8.001   9.408
82119SOL     OW48195  12.631   0.595   6.767
82119SOL    HW148196  12.695   0.650   6.811
82119SOL    HW248197  12.681   0.519   6.736
82120SOL     OW48198   2.970  13.620  10.197
82120SOL    HW148199   2.940  13.702  10.157
82120SOL    HW248200   3.024  13.647  10.271
82121SOL     OW48201   3.848   6.749   6.172
82121SOL    HW148202   3.905   6.750   6.249
82121SOL    HW248203   3.814   6.839   6.167
82122SOL     OW48204   4.044   2.536   3.043
82122SOL    HW148205   4.007   2.613   3.085
82122SOL    HW248206   4.045   2.557   2.950
82123SOL     OW48207   6.418  10.119  13.516
82123SOL    HW148208   6.376  10.048  13.565
82123SOL    HW248209   6.435  10.082  13.429
82124SOL     OW48210  11.308   5.676   7.448
82124SOL    HW148211  11.404   5.669   7.449
82124SOL    HW248212  11.282   5.651   7.537
82125SOL     OW48213   3.725   9.803   1.246
82125SOL    HW148214   3.644   9.755   1.227
82125SOL    HW248215   3.730   9.803   1.342
82126SOL     OW48216  14.509   2.570  13.309
82126SOL    HW148217  14.423   2.542  13.279
82126SOL    HW248218  14.568   2.548  13.236
82127SOL     OW48219  13.870   4.200  13.388
82127SOL    HW148220  13.874   4.237  13.300
82127SOL    HW248221  13.952   4.228  13.430
82128SOL     OW48222  14.257   5.110   9.593
82128SOL    HW148223  14.247   5.070   9.679
82128SOL    HW248224  14.177   5.162   9.581
82129SOL     OW48225  11.923   2.278   4.478
82129SOL    HW148226  11.922   2.373   4.493
82129SOL    HW248227  11.861   2.243   4.541
82130SOL     OW48228   4.354  12.029   6.692
82130SOL    HW148229   4.343  12.021   6.786
82130SOL    HW248230   4.316  11.948   6.656
82131SOL     OW48231   0.113  13.893  10.743
82131SOL    HW148232   0.125  13.928  10.655
82131SOL    HW248233   0.199  13.898  10.784
82132SOL     OW48234  12.729   6.345   6.203
82132SOL    HW148235  12.768   6.398   6.272
82132SOL    HW248236  12.635   6.346   6.223
82133SOL     OW48237   2.362  14.156   9.007
82133SOL    HW148238   2.351  14.061   9.014
82133SOL    HW248239   2.399  14.182   9.092
82134SOL     OW48240   0.281  10.608  14.566
82134SOL    HW148241   0.299  10.608  14.660
82134SOL    HW248242   0.185  10.600  14.560
82135SOL     OW48243  11.276   0.382   7.799
82135SOL    HW148244  11.267   0.294   7.835
82135SOL    HW248245  11.193   0.399   7.755
82136SOL     OW48246   7.789  12.059   0.716
82136SOL    HW148247   7.802  12.086   0.806
82136SOL    HW248248   7.852  11.988   0.702
82137SOL     OW48249   8.118  14.823  10.761
82137SOL    HW148250   8.104  14.756  10.694
82137SOL    HW248251   8.213  14.835  10.764
82138SOL     OW48252   2.283   1.674   1.045
82138SOL    HW148253   2.193   1.675   1.077
82138SOL    HW248254   2.332   1.728   1.107
82139SOL     OW48255  14.438  13.035   1.090
82139SOL    HW148256  14.514  13.087   1.117
82139SOL    HW248257  14.396  13.088   1.022
82140SOL     OW48258  12.005  14.743   7.552
82140SOL    HW148259  12.097  14.763   7.570
82140SOL    HW248260  11.972  14.706   7.634
82141SOL     OW48261   6.259   6.450  10.543
82141SOL    HW148262   6.339   6.444  10.595
82141SOL    HW248263   6.280   6.513  10.474
82142SOL     OW48264  12.765   3.184   2.048
82142SOL    HW148265  12.743   3.232   2.128
82142SOL    HW248266  12.802   3.101   2.080
82143SOL     OW48267  12.948  13.129   7.436
82143SOL    HW148268  12.971  13.089   7.519
82143SOL    HW248269  12.911  13.058   7.384
82144SOL     OW48270   0.913   7.218   3.763
82144SOL    HW148271   0.854   7.182   3.829
82144SOL    HW248272   0.981   7.263   3.813
82145SOL     OW48273   0.761   4.788  13.093
82145SOL    HW148274   0.798   4.715  13.143
82145SOL    HW248275   0.680   4.810  13.138
82146SOL     OW48276   8.877   0.951   3.260
82146SOL    HW148277   8.891   0.998   3.343
82146SOL    HW248278   8.924   0.869   3.271
82147SOL     OW48279   3.104   5.125   9.668
82147SOL    HW148280   3.019   5.080   9.674
82147SOL    HW248281   3.138   5.123   9.757
82148SOL     OW48282   1.402  10.098   9.506
82148SOL    HW148283   1.400  10.034   9.435
82148SOL    HW248284   1.486  10.142   9.497
82149SOL     OW48285   6.662   2.122   0.106
82149SOL    HW148286   6.734   2.100   0.165
82149SOL    HW248287   6.693   2.200   0.059
82150SOL     OW48288  11.352   7.442   5.109
82150SOL    HW148289  11.340   7.493   5.189
82150SOL    HW248290  11.435   7.396   5.122
82151SOL     OW48291   7.463   2.581   5.409
82151SOL    HW148292   7.545   2.576   5.359
82151SOL    HW248293   7.402   2.527   5.359
82152SOL     OW48294  13.026   5.517   4.789
82152SOL    HW148295  13.105   5.493   4.741
82152SOL    HW248296  12.975   5.437   4.793
82153SOL     OW48297  12.020   9.255  11.500
82153SOL    HW148298  11.938   9.293  11.471
82153SOL    HW248299  12.003   9.161  11.505
82154SOL     OW48300  14.144  11.692   6.919
82154SOL    HW148301  14.200  11.634   6.971
82154SOL    HW248302  14.142  11.652   6.832
82155SOL     OW48303   6.783   0.790  11.469
82155SOL    HW148304   6.781   0.697  11.445
82155SOL    HW248305   6.876   0.809  11.480
82156SOL     OW48306   6.984  11.454   3.836
82156SOL    HW148307   6.904  11.412   3.869
82156SOL    HW248308   6.990  11.426   3.745
82157SOL     OW48309  10.773   7.719   0.171
82157SOL    HW148310  10.726   7.645   0.210
82157SOL    HW248311  10.727   7.736   0.089
82158SOL     OW48312   5.535   3.091   5.681
82158SOL    HW148313   5.445   3.106   5.655
82158SOL    HW248314   5.584   3.086   5.598
82159SOL     OW48315  14.185  10.022  13.494
82159SOL    HW148316  14.256  10.073  13.456
82159SOL    HW248317  14.112  10.082  13.499
82160SOL     OW48318  11.513  10.734   1.216
82160SOL    HW148319  11.585  10.731   1.152
82160SOL    HW248320  11.540  10.674   1.285
82161SOL     OW48321   9.614   6.108   7.362
82161SOL    HW148322   9.557   6.060   7.422
82161SOL    HW248323   9.581   6.198   7.364
82162SOL     OW48324   6.565   1.402   2.011
82162SOL    HW148325   6.627   1.428   1.943
82162SOL    HW248326   6.535   1.484   2.049
82163SOL     OW48327   1.433  14.320  10.422
82163SOL    HW148328   1.505  14.262  10.396
82163SOL    HW248329   1.405  14.361  10.340
82164SOL     OW48330   2.084   1.425  14.451
82164SOL    HW148331   2.107   1.391  14.538
82164SOL    HW248332   2.160   1.478  14.426
82165SOL     OW48333  10.255   3.068  10.321
82165SOL    HW148334  10.264   2.985  10.367
82165SOL    HW248335  10.319   3.125  10.364
82166SOL     OW48336   8.140   2.030   4.112
82166SOL    HW148337   8.188   2.014   4.193
82166SOL    HW248338   8.200   2.078   4.056
82167SOL     OW48339   3.514  14.206   1.770
82167SOL    HW148340   3.609  14.212   1.768
82167SOL    HW248341   3.485  14.238   1.685
82168SOL     OW48342   2.591   5.287   0.439
82168SOL    HW148343   2.587   5.223   0.510
82168SOL    HW248344   2.594   5.234   0.360
82169SOL     OW48345  11.061   6.380   3.566
82169SOL    HW148346  10.989   6.399   3.507
82169SOL    HW248347  11.084   6.288   3.548
82170SOL     OW48348   7.941   1.678   7.646
82170SOL    HW148349   7.860   1.648   7.686
82170SOL    HW248350   7.914   1.742   7.580
82171SOL     OW48351   7.304   5.708  12.519
82171SOL    HW148352   7.291   5.795  12.557
82171SOL    HW248353   7.227   5.658  12.545
82172SOL     OW48354  12.658  12.725   4.433
82172SOL    HW148355  12.579  12.699   4.385
82172SOL    HW248356  12.648  12.682   4.518
82173SOL     OW48357  12.149  11.947   0.250
82173SOL    HW148358  12.172  11.916   0.338
82173SOL    HW248359  12.224  11.921   0.196
82174SOL     OW48360   9.371  14.665   3.747
82174SOL    HW148361   9.442  14.644   3.807
82174SOL    HW248362   9.294  14.671   3.803
82175SOL     OW48363   9.801   6.621   1.572
82175SOL    HW148364   9.819   6.612   1.478
82175SOL    HW248365   9.881   6.588   1.614
82176SOL     OW48366   1.988   3.566   0.323
82176SOL    HW148367   2.022   3.478   0.333
82176SOL    HW248368   2.066   3.622   0.318
82177SOL     OW48369   9.008   3.497   2.464
82177SOL    HW148370   9.082   3.498   2.403
82177SOL    HW248371   9.048   3.492   2.550
82178SOL     OW48372   1.409   7.685   2.939
82178SOL    HW148373   1.406   7.670   3.033
82178SOL    HW248374   1.481   7.746   2.927
82179SOL     OW48375   1.238   9.327   8.573
82179SOL    HW148376   1.182   9.330   8.496
82179SOL    HW248377   1.260   9.418   8.591
82180SOL     OW48378   4.044  11.785  12.906
82180SOL    HW148379   4.053  11.700  12.862
82180SOL    HW248380   3.949  11.797  12.915
82181SOL     OW48381  13.907   5.347  11.924
82181SOL    HW148382  13.886   5.409  11.994
82181SOL    HW248383  13.947   5.401  11.855
82182SOL     OW48384   0.326   9.589   7.107
82182SOL    HW148385   0.253   9.625   7.158
82182SOL    HW248386   0.385   9.663   7.095
82183SOL     OW48387  10.161  12.079   2.796
82183SOL    HW148388  10.249  12.071   2.832
82183SOL    HW248389  10.118  12.144   2.851
82184SOL     OW48390  14.777   8.147   9.737
82184SOL    HW148391  14.743   8.194   9.813
82184SOL    HW248392  14.730   8.185   9.663
82185SOL     OW48393   0.910   2.247   0.629
82185SOL    HW148394   0.881   2.269   0.718
82185SOL    HW248395   1.000   2.214   0.640
82186SOL     OW48396   2.290   0.932   4.487
82186SOL    HW148397   2.337   0.849   4.477
82186SOL    HW248398   2.267   0.958   4.398
82187SOL     OW48399   9.598   1.636  10.920
82187SOL    HW148400   9.612   1.701  10.989
82187SOL    HW248401   9.513   1.658  10.882
82188SOL     OW48402   3.220   3.112   1.991
82188SOL    HW148403   3.223   3.186   1.931
82188SOL    HW248404   3.127   3.093   2.002
82189SOL     OW48405   2.202   3.734   3.484
82189SOL    HW148406   2.194   3.812   3.539
82189SOL    HW248407   2.285   3.695   3.509
82190SOL     OW48408   1.202   3.778  13.436
82190SOL    HW148409   1.179   3.686  13.444
82190SOL    HW248410   1.174   3.802  13.347
82191SOL     OW48411   0.137   9.496  11.220
82191SOL    HW148412   0.046   9.520  11.202
82191SOL    HW248413   0.142   9.489  11.316
82192SOL     OW48414   3.775  14.532   7.998
82192SOL    HW148415   3.754  14.499   7.910
82192SOL    HW248416   3.732  14.618   8.002
82193SOL     OW48417  10.127  12.518   4.252
82193SOL    HW148418  10.212  12.501   4.291
82193SOL    HW248419  10.111  12.443   4.194
82194SOL     OW48420  11.651   6.324  10.546
82194SOL    HW148421  11.717   6.323  10.477
82194SOL    HW248422  11.573   6.286  10.506
82195SOL     OW48423   2.629   9.447  14.833
82195SOL    HW148424   2.612   9.534  14.870
82195SOL    HW248425   2.681   9.465  14.755
82196SOL     OW48426   6.857  13.113   0.028
82196SOL    HW148427   6.790  13.179   0.046
82196SOL    HW248428   6.851  13.099  14.816
82197SOL     OW48429  14.219  10.484  10.656
82197SOL    HW148430  14.145  10.492  10.717
82197SOL    HW248431  14.253  10.573  10.649
82198SOL     OW48432  10.084   3.113   9.819
82198SOL    HW148433  10.108   3.188   9.873
82198SOL    HW248434  10.021   3.065   9.871
82199SOL     OW48435  14.816   6.155   6.417
82199SOL    HW148436  14.800   6.203   6.498
82199SOL    HW248437  14.820   6.222   6.349
82200SOL     OW48438   8.315  11.955   1.718
82200SOL    HW148439   8.297  11.892   1.649
82200SOL    HW248440   8.402  11.989   1.698
82201SOL     OW48441   2.947   0.852  11.929
82201SOL    HW148442   2.923   0.854  12.022
82201SOL    HW248443   3.042   0.841  11.929
82202SOL     OW48444   0.678  12.451   2.332
82202SOL    HW148445   0.675  12.411   2.245
82202SOL    HW248446   0.610  12.405   2.382
82203SOL     OW48447  13.265   6.918   9.207
82203SOL    HW148448  13.185   6.927   9.259
82203SOL    HW248449  13.332   6.893   9.270
82204SOL     OW48450   1.191   3.504   6.201
82204SOL    HW148451   1.197   3.598   6.214
82204SOL    HW248452   1.219   3.490   6.110
82205SOL     OW48453  14.018   3.695   0.461
82205SOL    HW148454  14.043   3.643   0.385
82205SOL    HW248455  14.063   3.653   0.535
82206SOL     OW48456  14.485   1.833  10.745
82206SOL    HW148457  14.407   1.839  10.799
82206SOL    HW248458  14.453   1.828  10.655
82207SOL     OW48459   9.864   6.732   6.836
82207SOL    HW148460   9.906   6.646   6.836
82207SOL    HW248461   9.882   6.768   6.923
82208SOL     OW48462   8.739   2.876   9.593
82208SOL    HW148463   8.679   2.909   9.526
82208SOL    HW248464   8.815   2.934   9.588
82209SOL     OW48465   0.979   6.402  12.617
82209SOL    HW148466   0.914   6.340  12.583
82209SOL    HW248467   1.061   6.377  12.573
82210SOL     OW48468  11.043   5.167  14.579
82210SOL    HW148469  11.109   5.200  14.519
82210SOL    HW248470  11.092   5.135  14.655
82211SOL     OW48471   1.326   1.561   9.442
82211SOL    HW148472   1.398   1.504   9.417
82211SOL    HW248473   1.328   1.631   9.377
82212SOL     OW48474   3.701   8.673   1.743
82212SOL    HW148475   3.610   8.674   1.714
82212SOL    HW248476   3.740   8.750   1.700
82213SOL     OW48477   7.477  14.434   0.086
82213SOL    HW148478   7.472  14.447  14.873
82213SOL    HW248479   7.430  14.353   0.101
82214SOL     OW48480   2.717   2.082   9.517
82214SOL    HW148481   2.780   2.078   9.589
82214SOL    HW248482   2.733   2.002   9.467
82215SOL     OW48483   1.224   8.092   7.688
82215SOL    HW148484   1.267   8.021   7.642
82215SOL    HW248485   1.133   8.064   7.697
82216SOL     OW48486  12.647   7.059   2.359
82216SOL    HW148487  12.630   7.026   2.447
82216SOL    HW248488  12.560   7.076   2.322
82217SOL     OW48489   2.721   9.764   1.049
82217SOL    HW148490   2.810   9.798   1.038
82217SOL    HW248491   2.729   9.670   1.031
82218SOL     OW48492   0.950   7.884   1.423
82218SOL    HW148493   0.874   7.888   1.363
82218SOL    HW248494   1.024   7.912   1.369
82219SOL     OW48495  10.602  12.529  14.449
82219SOL    HW148496  10.529  12.475  14.478
82219SOL    HW248497  10.583  12.548  14.358
82220SOL     OW48498  11.280   2.769   0.941
82220SOL    HW148499  11.215   2.707   0.974
82220SOL    HW248500  11.354   2.760   1.001
82221SOL     OW48501   7.117  12.768   3.622
82221SOL    HW148502   7.088  12.688   3.579
82221SOL    HW248503   7.052  12.834   3.598
82222SOL     OW48504  13.701  14.510   3.742
82222SOL    HW148505  13.772  14.574   3.739
82222SOL    HW248506  13.735  14.440   3.797
82223SOL     OW48507   1.886  11.067   4.987
82223SOL    HW148508   1.929  11.027   5.063
82223SOL    HW248509   1.829  10.998   4.952
82224SOL     OW48510  13.293   9.824   0.020
82224SOL    HW148511  13.273   9.779   0.102
82224SOL    HW248512  13.292   9.755  14.836
82225SOL     OW48513   9.986   7.587   0.012
82225SOL    HW148514   9.973   7.574  14.800
82225SOL    HW248515  10.079   7.608   0.021
82226SOL     OW48516   0.040   4.297  11.166
82226SOL    HW148517   0.109   4.321  11.228
82226SOL    HW248518   0.065   4.210  11.135
82227SOL     OW48519   3.835  14.033   4.228
82227SOL    HW148520   3.791  14.033   4.144
82227SOL    HW248521   3.877  14.119   4.234
82228SOL     OW48522   3.714   3.227   4.433
82228SOL    HW148523   3.626   3.265   4.435
82228SOL    HW248524   3.741   3.221   4.524
82229SOL     OW48525   2.509   6.337   7.160
82229SOL    HW148526   2.421   6.331   7.195
82229SOL    HW248527   2.565   6.352   7.236
82230SOL     OW48528   3.103  12.969  10.714
82230SOL    HW148529   3.083  12.911  10.640
82230SOL    HW248530   3.155  13.039  10.677
82231SOL     OW48531   4.893   8.934   6.444
82231SOL    HW148532   4.862   8.922   6.354
82231SOL    HW248533   4.851   9.015   6.473
82232SOL     OW48534   1.447   9.362   3.234
82232SOL    HW148535   1.491   9.402   3.159
82232SOL    HW248536   1.514   9.307   3.275
82233SOL     OW48537   1.160  12.435  13.695
82233SOL    HW148538   1.143  12.508  13.635
82233SOL    HW248539   1.083  12.379  13.686
82234SOL     OW48540   2.222  11.997   8.390
82234SOL    HW148541   2.127  11.985   8.399
82234SOL    HW248542   2.260  11.929   8.445
82235SOL     OW48543   0.715   0.425   3.101
82235SOL    HW148544   0.650   0.431   3.031
82235SOL    HW248545   0.663   0.424   3.182
82236SOL     OW48546   5.686  13.640   5.804
82236SOL    HW148547   5.659  13.552   5.777
82236SOL    HW248548   5.621  13.698   5.764
82237SOL     OW48549   4.361   3.401   9.687
82237SOL    HW148550   4.311   3.321   9.700
82237SOL    HW248551   4.350   3.450   9.769
82238SOL     OW48552  14.079  12.815   4.281
82238SOL    HW148553  14.053  12.737   4.232
82238SOL    HW248554  13.996  12.859   4.301
82239SOL     OW48555   5.718   6.904   6.660
82239SOL    HW148556   5.789   6.839   6.662
82239SOL    HW248557   5.674   6.895   6.744
82240SOL     OW48558   2.433   2.864   0.366
82240SOL    HW148559   2.494   2.913   0.420
82240SOL    HW248560   2.376   2.819   0.428
82241SOL     OW48561  14.766  11.578   7.880
82241SOL    HW148562  14.730  11.491   7.862
82241SOL    HW248563  14.789  11.612   7.794
82242SOL     OW48564   1.426  12.788  12.608
82242SOL    HW148565   1.413  12.694  12.615
82242SOL    HW248566   1.443  12.804  12.515
82243SOL     OW48567  10.311   0.254   1.804
82243SOL    HW148568  10.242   0.239   1.867
82243SOL    HW248569  10.388   0.209   1.840
82244SOL     OW48570   3.077   1.836   0.182
82244SOL    HW148571   2.988   1.837   0.145
82244SOL    HW248572   3.131   1.800   0.112
82245SOL     OW48573  11.247   9.733  13.884
82245SOL    HW148574  11.307   9.768  13.950
82245SOL    HW248575  11.177   9.692  13.934
82246SOL     OW48576   6.462   3.551   2.456
82246SOL    HW148577   6.467   3.590   2.543
82246SOL    HW248578   6.413   3.615   2.404
82247SOL     OW48579   4.221   6.885  14.306
82247SOL    HW148580   4.239   6.902  14.399
82247SOL    HW248581   4.256   6.962  14.260
82248SOL     OW48582   0.562  11.901  10.256
82248SOL    HW148583   0.579  11.877  10.165
82248SOL    HW248584   0.649  11.900  10.297
82249SOL     OW48585   4.553   7.407   5.171
82249SOL    HW148586   4.630   7.424   5.226
82249SOL    HW248587   4.479   7.435   5.224
82250SOL     OW48588   4.325  11.450   0.959
82250SOL    HW148589   4.248  11.451   0.902
82250SOL    HW248590   4.367  11.534   0.943
82251SOL     OW48591  13.813  12.048  10.515
82251SOL    HW148592  13.731  12.056  10.565
82251SOL    HW248593  13.823  11.954  10.501
82252SOL     OW48594   0.181  10.182   4.982
82252SOL    HW148595   0.236  10.221   4.914
82252SOL    HW248596   0.127  10.254   5.013
82253SOL     OW48597   3.705   1.121  14.679
82253SOL    HW148598   3.666   1.034  14.663
82253SOL    HW248599   3.705   1.129  14.774
82254SOL     OW48600  10.638   1.423  11.348
82254SOL    HW148601  10.704   1.379  11.295
82254SOL    HW248602  10.688   1.486  11.400
82255SOL     OW48603  11.531  13.337   9.049
82255SOL    HW148604  11.524  13.289   8.967
82255SOL    HW248605  11.605  13.296   9.095
82256SOL     OW48606   6.765   0.267  14.631
82256SOL    HW148607   6.781   0.318  14.551
82256SOL    HW248608   6.792   0.178  14.608
82257SOL     OW48609   2.113  13.284   2.844
82257SOL    HW148610   2.147  13.238   2.921
82257SOL    HW248611   2.191  13.311   2.796
82258SOL     OW48612   2.730  11.781   3.888
82258SOL    HW148613   2.744  11.858   3.943
82258SOL    HW248614   2.817  11.756   3.859
82259SOL     OW48615   9.730   9.299   5.652
82259SOL    HW148616   9.658   9.356   5.680
82259SOL    HW248617   9.767   9.345   5.576
82260SOL     OW48618  11.077   8.310  10.965
82260SOL    HW148619  11.065   8.252  10.890
82260SOL    HW248620  11.172   8.308  10.982
82261SOL     OW48621   9.388   1.574  13.159
82261SOL    HW148622   9.357   1.489  13.127
82261SOL    HW248623   9.471   1.587  13.114
82262SOL     OW48624  14.542   0.314  13.530
82262SOL    HW148625  14.501   0.237  13.490
82262SOL    HW248626  14.635   0.305  13.511
82263SOL     OW48627   0.935   0.946   1.951
82263SOL    HW148628   0.902   1.017   2.006
82263SOL    HW248629   0.938   0.870   2.009
82264SOL     OW48630   4.629   1.007   2.006
82264SOL    HW148631   4.588   0.965   1.930
82264SOL    HW248632   4.711   1.043   1.972
82265SOL     OW48633   8.627  11.503   6.176
82265SOL    HW148634   8.687  11.512   6.250
82265SOL    HW248635   8.680  11.526   6.100
82266SOL     OW48636   9.632   9.056  11.671
82266SOL    HW148637   9.597   9.086  11.587
82266SOL    HW248638   9.560   9.008  11.712
82267SOL     OW48639  11.104   6.826  11.272
82267SOL    HW148640  11.166   6.759  11.299
82267SOL    HW248641  11.131   6.905  11.319
82268SOL     OW48642  12.619   0.395  11.118
82268SOL    HW148643  12.605   0.407  11.212
82268SOL    HW248644  12.603   0.302  11.103
82269SOL     OW48645  12.869  10.844  11.967
82269SOL    HW148646  12.936  10.912  11.971
82269SOL    HW248647  12.912  10.766  12.001
82270SOL     OW48648   9.901   3.754   3.394
82270SOL    HW148649   9.922   3.846   3.406
82270SOL    HW248650   9.821   3.754   3.340
82271SOL     OW48651   9.528   0.699  10.281
82271SOL    HW148652   9.464   0.686  10.350
82271SOL    HW248653   9.613   0.686  10.324
82272SOL     OW48654  10.660   5.513   2.932
82272SOL    HW148655  10.696   5.517   2.843
82272SOL    HW248656  10.686   5.427   2.965
82273SOL     OW48657   3.613   2.076   7.218
82273SOL    HW148658   3.553   2.137   7.261
82273SOL    HW248659   3.556   2.018   7.167
82274SOL     OW48660   3.953   3.815  10.076
82274SOL    HW148661   3.987   3.858  10.154
82274SOL    HW248662   3.928   3.727  10.106
82275SOL     OW48663   5.688   8.461   8.891
82275SOL    HW148664   5.716   8.506   8.971
82275SOL    HW248665   5.670   8.531   8.829
82276SOL     OW48666   6.183  12.762   8.977
82276SOL    HW148667   6.230  12.815   9.042
82276SOL    HW248668   6.091  12.785   8.988
82277SOL     OW48669  11.613   5.704  10.477
82277SOL    HW148670  11.626   5.748  10.561
82277SOL    HW248671  11.682   5.739  10.420
82278SOL     OW48672  10.751  11.488   8.883
82278SOL    HW148673  10.666  11.518   8.916
82278SOL    HW248674  10.803  11.568   8.874
82279SOL     OW48675   1.389  14.610   8.719
82279SOL    HW148676   1.465  14.606   8.777
82279SOL    HW248677   1.373  14.704   8.707
82280SOL     OW48678  11.355   5.355   9.197
82280SOL    HW148679  11.381   5.283   9.254
82280SOL    HW248680  11.273   5.324   9.157
82281SOL     OW48681   1.527   9.202   0.021
82281SOL    HW148682   1.526   9.113  14.867
82281SOL    HW248683   1.517   9.190   0.115
82282SOL     OW48684   3.080   9.824   7.628
82282SOL    HW148685   3.095   9.791   7.539
82282SOL    HW248686   3.011   9.890   7.618
82283SOL     OW48687   2.236   4.512   4.227
82283SOL    HW148688   2.227   4.457   4.150
82283SOL    HW248689   2.251   4.600   4.192
82284SOL     OW48690  12.979  10.865   4.172
82284SOL    HW148691  12.902  10.808   4.169
82284SOL    HW248692  13.053  10.806   4.185
82285SOL     OW48693   7.298   3.870   1.459
82285SOL    HW148694   7.259   3.952   1.491
82285SOL    HW248695   7.224   3.815   1.436
82286SOL     OW48696   6.550  14.531  14.397
82286SOL    HW148697   6.550  14.447  14.352
82286SOL    HW248698   6.607  14.518  14.473
82287SOL     OW48699  12.391   3.686  12.976
82287SOL    HW148700  12.394   3.617  12.910
82287SOL    HW248701  12.297   3.703  12.988
82288SOL     OW48702   8.001   2.427  10.880
82288SOL    HW148703   7.956   2.383  10.808
82288SOL    HW248704   8.094   2.415  10.863
82289SOL     OW48705   8.128  12.249   9.998
82289SOL    HW148706   8.211  12.296  10.007
82289SOL    HW248707   8.154  12.158   9.982
82290SOL     OW48708  10.214  11.632  10.851
82290SOL    HW148709  10.148  11.635  10.782
82290SOL    HW248710  10.223  11.722  10.881
82291SOL     OW48711   0.782   8.617  13.363
82291SOL    HW148712   0.753   8.574  13.443
82291SOL    HW248713   0.763   8.553  13.293
82292SOL     OW48714   2.712   6.824  13.860
82292SOL    HW148715   2.689   6.914  13.884
82292SOL    HW248716   2.769   6.832  13.784
82293SOL     OW48717   6.995   1.905   4.208
82293SOL    HW148718   6.984   1.980   4.266
82293SOL    HW248719   6.906   1.878   4.186
82294SOL     OW48720   8.386   2.218   3.935
82294SOL    HW148721   8.458   2.268   3.897
82294SOL    HW248722   8.364   2.153   3.869
82295SOL     OW48723  10.737   9.415   7.192
82295SOL    HW148724  10.754   9.377   7.105
82295SOL    HW248725  10.671   9.357   7.230
82296SOL     OW48726   9.421   3.342  10.978
82296SOL    HW148727   9.348   3.305  10.928
82296SOL    HW248728   9.462   3.267  11.020
82297SOL     OW48729   9.454  10.200   0.144
82297SOL    HW148730   9.375  10.157   0.178
82297SOL    HW248731   9.422  10.277   0.098
82298SOL     OW48732   4.019   4.422  10.872
82298SOL    HW148733   3.999   4.348  10.930
82298SOL    HW248734   3.971   4.403  10.791
82299SOL     OW48735  11.151   3.557  13.857
82299SOL    HW148736  11.199   3.476  13.876
82299SOL    HW248737  11.061   3.527  13.840
82300SOL     OW48738   6.747   7.923  10.690
82300SOL    HW148739   6.669   7.960  10.649
82300SOL    HW248740   6.801   7.892  10.617
82301SOL     OW48741   6.864  13.441   2.636
82301SOL    HW148742   6.868  13.517   2.579
82301SOL    HW248743   6.907  13.371   2.587
82302SOL     OW48744  14.717   7.082  12.244
82302SOL    HW148745  14.719   7.162  12.296
82302SOL    HW248746  14.679   7.108  12.160
82303SOL     OW48747   8.554   4.405   7.540
82303SOL    HW148748   8.489   4.453   7.489
82303SOL    HW248749   8.560   4.319   7.499
82304SOL     OW48750   1.258   6.871  14.182
82304SOL    HW148751   1.305   6.886  14.100
82304SOL    HW248752   1.189   6.809  14.158
82305SOL     OW48753  12.147  13.087   8.385
82305SOL    HW148754  12.120  13.169   8.343
82305SOL    HW248755  12.145  13.023   8.314
82306SOL     OW48756   3.223  11.830  11.875
82306SOL    HW148757   3.224  11.770  11.801
82306SOL    HW248758   3.252  11.778  11.950
82307SOL     OW48759   1.095   4.725   7.046
82307SOL    HW148760   1.124   4.657   6.985
82307SOL    HW248761   1.175   4.752   7.091
82308SOL     OW48762   9.257   8.519  14.822
82308SOL    HW148763   9.287   8.507   0.030
82308SOL    HW248764   9.266   8.613  14.805
82309SOL     OW48765  10.828  11.285   3.937
82309SOL    HW148766  10.816  11.377   3.958
82309SOL    HW248767  10.891  11.285   3.864
82310SOL     OW48768   4.520  13.798   9.058
82310SOL    HW148769   4.610  13.829   9.048
82310SOL    HW248770   4.529  13.711   9.097
82311SOL     OW48771   9.110   3.055   7.879
82311SOL    HW148772   9.134   3.025   7.791
82311SOL    HW248773   9.182   3.027   7.935
82312SOL     OW48774   6.166   2.547   2.222
82312SOL    HW148775   6.212   2.557   2.138
82312SOL    HW248776   6.092   2.607   2.216
82313SOL     OW48777   9.576   8.709   0.402
82313SOL    HW148778   9.519   8.725   0.478
82313SOL    HW248779   9.526   8.741   0.327
82314SOL     OW48780   3.272  11.370   2.039
82314SOL    HW148781   3.347  11.425   2.015
82314SOL    HW248782   3.234  11.413   2.116
82315SOL     OW48783   9.184   8.850   0.922
82315SOL    HW148784   9.209   8.912   0.854
82315SOL    HW248785   9.267   8.823   0.961
82316SOL     OW48786   4.075   2.952  13.187
82316SOL    HW148787   4.158   2.998  13.177
82316SOL    HW248788   4.011   3.022  13.203
82317SOL     OW48789   2.779  13.614   1.439
82317SOL    HW148790   2.800  13.594   1.348
82317SOL    HW248791   2.793  13.531   1.485
82318SOL     OW48792   1.262   9.217   1.234
82318SOL    HW148793   1.233   9.201   1.144
82318SOL    HW248794   1.184   9.204   1.287
82319SOL     OW48795   0.118   0.196   9.136
82319SOL    HW148796   0.085   0.144   9.210
82319SOL    HW248797   0.039   0.223   9.089
82320SOL     OW48798  12.599   9.647  11.030
82320SOL    HW148799  12.639   9.635  11.116
82320SOL    HW248800  12.505   9.646  11.047
82321SOL     OW48801   1.365  14.757  11.689
82321SOL    HW148802   1.434  14.754  11.755
82321SOL    HW248803   1.323  14.671  11.695
82322SOL     OW48804  13.524  10.400   0.937
82322SOL    HW148805  13.600  10.374   0.884
82322SOL    HW248806  13.561  10.422   1.022
82323SOL     OW48807   3.912   2.915   1.864
82323SOL    HW148808   3.870   2.933   1.780
82323SOL    HW248809   3.954   2.998   1.888
82324SOL     OW48810   7.941  14.215   7.799
82324SOL    HW148811   7.887  14.143   7.768
82324SOL    HW248812   8.009  14.225   7.733
82325SOL     OW48813   3.479   0.259  13.507
82325SOL    HW148814   3.497   0.206  13.430
82325SOL    HW248815   3.434   0.336  13.473
82326SOL     OW48816  11.381   9.724   3.893
82326SOL    HW148817  11.455   9.702   3.836
82326SOL    HW248818  11.320   9.651   3.881
82327SOL     OW48819  10.535   0.805   6.675
82327SOL    HW148820  10.521   0.732   6.615
82327SOL    HW248821  10.512   0.883   6.623
82328SOL     OW48822  10.651   8.514   1.748
82328SOL    HW148823  10.605   8.589   1.709
82328SOL    HW248824  10.718   8.554   1.804
82329SOL     OW48825   4.407   5.509   7.222
82329SOL    HW148826   4.317   5.533   7.201
82329SOL    HW248827   4.460   5.581   7.186
82330SOL     OW48828   1.408  14.082   7.099
82330SOL    HW148829   1.475  14.133   7.052
82330SOL    HW248830   1.394  14.130   7.180
82331SOL     OW48831   2.896  11.984   1.485
82331SOL    HW148832   2.808  11.962   1.455
82331SOL    HW248833   2.951  11.912   1.452
82332SOL     OW48834   9.376  14.179  11.500
82332SOL    HW148835   9.459  14.175  11.548
82332SOL    HW248836   9.318  14.229  11.557
82333SOL     OW48837   6.794   2.175   5.537
82333SOL    HW148838   6.761   2.107   5.596
82333SOL    HW248839   6.735   2.249   5.551
82334SOL     OW48840   2.476  10.596  10.385
82334SOL    HW148841   2.382  10.611  10.390
82334SOL    HW248842   2.510  10.628  10.469
82335SOL     OW48843   2.478  14.600   4.619
82335SOL    HW148844   2.562  14.598   4.665
82335SOL    HW248845   2.459  14.693   4.607
82336SOL     OW48846   3.768  10.853   6.891
82336SOL    HW148847   3.728  10.932   6.927
82336SOL    HW248848   3.750  10.785   6.955
82337SOL     OW48849  13.323   7.754   4.676
82337SOL    HW148850  13.392   7.705   4.721
82337SOL    HW248851  13.276   7.799   4.746
82338SOL     OW48852   0.028   7.119   5.267
82338SOL    HW148853  14.832   7.134   5.320
82338SOL    HW248854   0.064   7.037   5.300
82339SOL     OW48855   3.795   2.452  10.625
82339SOL    HW148856   3.877   2.415  10.661
82339SOL    HW248857   3.793   2.422  10.534
82340SOL     OW48858   0.720  13.040   7.189
82340SOL    HW148859   0.785  13.026   7.120
82340SOL    HW248860   0.769  13.084   7.258
82341SOL     OW48861   3.362   5.585   1.524
82341SOL    HW148862   3.301   5.566   1.452
82341SOL    HW248863   3.409   5.663   1.496
82342SOL     OW48864   3.174   0.278  11.442
82342SOL    HW148865   3.185   0.363  11.485
82342SOL    HW248866   3.246   0.225  11.476
82343SOL     OW48867  12.598   7.391   8.875
82343SOL    HW148868  12.650   7.471   8.868
82343SOL    HW248869  12.602   7.351   8.788
82344SOL     OW48870   9.073   7.330   3.178
82344SOL    HW148871   9.056   7.327   3.273
82344SOL    HW248872   9.127   7.252   3.162
82345SOL     OW48873  12.942   5.897   7.598
82345SOL    HW148874  12.962   5.828   7.535
82345SOL    HW248875  13.009   5.964   7.582
82346SOL     OW48876   5.847   7.813   3.805
82346SOL    HW148877   5.933   7.823   3.764
82346SOL    HW248878   5.850   7.871   3.881
82347SOL     OW48879   3.278   6.199   4.965
82347SOL    HW148880   3.254   6.118   4.921
82347SOL    HW248881   3.199   6.225   5.013
82348SOL     OW48882   0.078   1.680   5.796
82348SOL    HW148883   0.173   1.671   5.782
82348SOL    HW248884   0.039   1.628   5.726
82349SOL     OW48885  10.982  11.523   0.363
82349SOL    HW148886  11.000  11.609   0.324
82349SOL    HW248887  10.887  11.518   0.366
82350SOL     OW48888   1.037   7.631   7.781
82350SOL    HW148889   0.987   7.569   7.836
82350SOL    HW248890   1.028   7.596   7.693
82351SOL     OW48891   3.908   5.116  13.497
82351SOL    HW148892   3.862   5.175  13.436
82351SOL    HW248893   3.898   5.157  13.583
82352SOL     OW48894   6.619  12.750   3.663
82352SOL    HW148895   6.663  12.667   3.681
82352SOL    HW248896   6.566  12.731   3.586
82353SOL     OW48897  12.220   8.038   4.222
82353SOL    HW148898  12.276   7.966   4.191
82353SOL    HW248899  12.142   8.032   4.168
82354SOL     OW48900   4.101  14.570  10.181
82354SOL    HW148901   4.129  14.538  10.095
82354SOL    HW248902   4.163  14.641  10.200
82355SOL     OW48903  13.678   2.629   2.102
82355SOL    HW148904  13.747   2.693   2.121
82355SOL    HW248905  13.599   2.669   2.139
82356SOL     OW48906   8.600   5.724   0.236
82356SOL    HW148907   8.523   5.688   0.192
82356SOL    HW248908   8.648   5.648   0.268
82357SOL     OW48909  10.859   6.710  11.276
82357SOL    HW148910  10.951   6.738  11.280
82357SOL    HW248911  10.825   6.730  11.363
82358SOL     OW48912   2.704   8.870   7.123
82358SOL    HW148913   2.671   8.790   7.163
82358SOL    HW248914   2.723   8.846   7.032
82359SOL     OW48915   1.240   6.005  11.793
82359SOL    HW148916   1.176   5.942  11.759
82359SOL    HW248917   1.320   5.988  11.744
82360SOL     OW48918   4.804   5.289   7.374
82360SOL    HW148919   4.817   5.198   7.349
82360SOL    HW248920   4.762   5.329   7.297
82361SOL     OW48921  12.693  13.944   1.561
82361SOL    HW148922  12.693  14.009   1.491
82361SOL    HW248923  12.740  13.986   1.633
82362SOL     OW48924   1.496  11.343   6.937
82362SOL    HW148925   1.501  11.419   6.996
82362SOL    HW248926   1.403  11.329   6.924
82363SOL     OW48927  11.029  12.056   8.003
82363SOL    HW148928  11.005  12.130   7.948
82363SOL    HW248929  11.084  12.093   8.072
82364SOL     OW48930  11.793  10.449   2.277
82364SOL    HW148931  11.730  10.431   2.206
82364SOL    HW248932  11.827  10.363   2.302
82365SOL     OW48933   9.368  11.414  10.866
82365SOL    HW148934   9.294  11.474  10.858
82365SOL    HW248935   9.355  11.371  10.950
82366SOL     OW48936   3.588   1.051   5.471
82366SOL    HW148937   3.636   0.995   5.410
82366SOL    HW248938   3.621   1.025   5.557
82367SOL     OW48939  14.064   1.604  10.225
82367SOL    HW148940  14.083   1.675  10.164
82367SOL    HW248941  13.982   1.631  10.268
82368SOL     OW48942   9.273   9.237  13.534
82368SOL    HW148943   9.247   9.275  13.450
82368SOL    HW248944   9.314   9.153  13.511
82369SOL     OW48945   3.992   4.246   7.167
82369SOL    HW148946   3.904   4.221   7.140
82369SOL    HW248947   4.019   4.310   7.101
82370SOL     OW48948  12.850  10.400  13.517
82370SOL    HW148949  12.932  10.448  13.506
82370SOL    HW248950  12.872  10.327  13.574
82371SOL     OW48951  14.667   3.604  10.572
82371SOL    HW148952  14.608   3.674  10.544
82371SOL    HW248953  14.706   3.572  10.491
82372SOL     OW48954   5.547   4.738  14.640
82372SOL    HW148955   5.461   4.697  14.643
82372SOL    HW248956   5.528   4.832  14.636
82373SOL     OW48957  11.522  14.053  10.392
82373SOL    HW148958  11.481  14.085  10.472
82373SOL    HW248959  11.452  14.053  10.327
82374SOL     OW48960  12.235   0.740   0.874
82374SOL    HW148961  12.276   0.709   0.793
82374SOL    HW248962  12.260   0.675   0.940
82375SOL     OW48963   2.547   1.522  10.919
82375SOL    HW148964   2.601   1.584  10.868
82375SOL    HW248965   2.589   1.519  11.005
82376SOL     OW48966  11.282   1.459   9.548
82376SOL    HW148967  11.216   1.421   9.606
82376SOL    HW248968  11.320   1.531   9.598
82377SOL     OW48969   9.059  14.702   5.405
82377SOL    HW148970   9.094  14.667   5.323
82377SOL    HW248971   9.086  14.640   5.472
82378SOL     OW48972  13.839  13.236   0.676
82378SOL    HW148973  13.771  13.232   0.609
82378SOL    HW248974  13.902  13.168   0.651
82379SOL     OW48975  14.282  14.637   8.801
82379SOL    HW148976  14.332  14.680   8.731
82379SOL    HW248977  14.348  14.587   8.850
82380SOL     OW48978   8.511  12.390  14.754
82380SOL    HW148979   8.474  12.314  14.797
82380SOL    HW248980   8.589  12.356  14.709
82381SOL     OW48981   2.885   1.295   4.170
82381SOL    HW148982   2.841   1.218   4.208
82381SOL    HW248983   2.847   1.369   4.216
82382SOL     OW48984  12.463  12.421   1.811
82382SOL    HW148985  12.378  12.389   1.779
82382SOL    HW248986  12.444  12.456   1.898
82383SOL     OW48987   9.146  13.981   0.328
82383SOL    HW148988   9.194  14.011   0.406
82383SOL    HW248989   9.108  14.060   0.292
82384SOL     OW48990  13.181   1.381   8.812
82384SOL    HW148991  13.201   1.325   8.887
82384SOL    HW248992  13.171   1.469   8.849
82385SOL     OW48993   8.891   9.448  10.672
82385SOL    HW148994   8.929   9.533  10.693
82385SOL    HW248995   8.796   9.463  10.671
82386SOL     OW48996   4.162   6.385   5.071
82386SOL    HW148997   4.173   6.323   5.143
82386SOL    HW248998   4.073   6.420   5.084
82387SOL     OW48999   5.551  12.917  11.657
82387SOL    HW149000   5.518  12.959  11.737
82387SOL    HW249001   5.480  12.857  11.631
82388SOL     OW49002   9.271  11.002  10.991
82388SOL    HW149003   9.198  10.943  11.008
82388SOL    HW249004   9.348  10.954  11.023
82389SOL     OW49005   9.033   4.416   7.884
82389SOL    HW149006   9.113   4.461   7.910
82389SOL    HW249007   8.970   4.486   7.868
82390SOL     OW49008   2.054   0.162   7.848
82390SOL    HW149009   2.105   0.180   7.769
82390SOL    HW249010   1.965   0.146   7.816
82391SOL     OW49011  12.316   6.278   3.547
82391SOL    HW149012  12.379   6.303   3.479
82391SOL    HW249013  12.330   6.340   3.618
82392SOL     OW49014   4.141   7.136   7.552
82392SOL    HW149015   4.225   7.179   7.569
82392SOL    HW249016   4.087   7.156   7.628
82393SOL     OW49017   7.996  14.214   1.872
82393SOL    HW149018   8.008  14.288   1.931
82393SOL    HW249019   8.082  14.171   1.870
82394SOL     OW49020  11.639   8.077   1.879
82394SOL    HW149021  11.674   8.006   1.933
82394SOL    HW249022  11.643   8.044   1.789
82395SOL     OW49023   9.797  14.794   9.008
82395SOL    HW149024   9.870  14.825   9.061
82395SOL    HW249025   9.825  14.708   8.976
82396SOL     OW49026   4.362  14.658   4.431
82396SOL    HW149027   4.315  14.731   4.470
82396SOL    HW249028   4.432  14.638   4.493
82397SOL     OW49029  10.281   5.343  14.336
82397SOL    HW149030  10.253   5.331  14.245
82397SOL    HW249031  10.255   5.433  14.358
82398SOL     OW49032  10.992   4.080   6.802
82398SOL    HW149033  10.905   4.120   6.800
82398SOL    HW249034  10.983   4.006   6.863
82399SOL     OW49035  10.961  11.795   0.273
82399SOL    HW149036  10.881  11.845   0.290
82399SOL    HW249037  11.021  11.858   0.235
82400SOL     OW49038   3.292   5.561  11.667
82400SOL    HW149039   3.303   5.466  11.672
82400SOL    HW249040   3.201   5.574  11.642
82401SOL     OW49041   5.194   5.350   9.574
82401SOL    HW149042   5.234   5.319   9.655
82401SOL    HW249043   5.125   5.287   9.555
82402SOL     OW49044   0.553   6.918   0.201
82402SOL    HW149045   0.483   6.974   0.235
82402SOL    HW249046   0.632   6.950   0.244
82403SOL     OW49047  12.860   7.481   2.855
82403SOL    HW149048  12.782   7.430   2.877
82403SOL    HW249049  12.829   7.571   2.853
82404SOL     OW49050   1.373   5.913  13.543
82404SOL    HW149051   1.361   5.827  13.504
82404SOL    HW249052   1.465   5.934  13.527
82405SOL     OW49053   7.766   8.103  10.703
82405SOL    HW149054   7.783   8.102  10.797
82405SOL    HW249055   7.671   8.114  10.696
82406SOL     OW49056  11.970   5.204   5.985
82406SOL    HW149057  12.049   5.257   5.981
82406SOL    HW249058  11.917   5.245   6.054
82407SOL     OW49059   4.644   7.413   4.882
82407SOL    HW149060   4.681   7.426   4.970
82407SOL    HW249061   4.553   7.441   4.890
82408SOL     OW49062   7.030   1.087  12.854
82408SOL    HW149063   7.027   0.999  12.816
82408SOL    HW249064   7.095   1.080  12.925
82409SOL     OW49065   5.979  11.808   1.685
82409SOL    HW149066   6.040  11.876   1.658
82409SOL    HW249067   5.903  11.855   1.718
82410SOL     OW49068   2.951   9.049   7.170
82410SOL    HW149069   2.972   9.007   7.253
82410SOL    HW249070   2.885   8.991   7.130
82411SOL     OW49071  12.934  13.535   8.889
82411SOL    HW149072  12.930  13.503   8.979
82411SOL    HW249073  12.895  13.464   8.837
82412SOL     OW49074  12.591   6.142   8.360
82412SOL    HW149075  12.517   6.194   8.391
82412SOL    HW249076  12.650   6.137   8.435
82413SOL     OW49077   5.995   8.896   6.862
82413SOL    HW149078   6.074   8.946   6.845
82413SOL    HW249079   5.926   8.961   6.869
82414SOL     OW49080   8.578  14.523  12.550
82414SOL    HW149081   8.628  14.479  12.618
82414SOL    HW249082   8.486  14.508  12.574
82415SOL     OW49083  14.732   6.473   6.576
82415SOL    HW149084  14.737   6.463   6.481
82415SOL    HW249085  14.816   6.439   6.608
82416SOL     OW49086   1.340   8.160   1.553
82416SOL    HW149087   1.430   8.128   1.544
82416SOL    HW249088   1.346   8.254   1.536
82417SOL     OW49089   5.029  10.570   1.199
82417SOL    HW149090   4.990  10.644   1.245
82417SOL    HW249091   4.965  10.547   1.132
82418SOL     OW49092  13.317  11.529   3.924
82418SOL    HW149093  13.268  11.511   4.004
82418SOL    HW249094  13.291  11.618   3.899
82419SOL     OW49095   3.334   2.123  13.619
82419SOL    HW149096   3.266   2.189  13.610
82419SOL    HW249097   3.415   2.168  13.594
82420SOL     OW49098  14.873  13.091   7.618
82420SOL    HW149099   0.020  13.107   7.528
82420SOL    HW249100  14.799  13.151   7.631
82421SOL     OW49101   5.203   0.971   5.277
82421SOL    HW149102   5.157   1.012   5.205
82421SOL    HW249103   5.157   0.888   5.292
82422SOL     OW49104   0.107   0.727   8.588
82422SOL    HW149105   0.116   0.791   8.518
82422SOL    HW249106   0.169   0.755   8.655
82423SOL     OW49107   3.439   7.210   0.206
82423SOL    HW149108   3.434   7.194   0.300
82423SOL    HW249109   3.492   7.138   0.172
82424SOL     OW49110   7.321   0.863  13.658
82424SOL    HW149111   7.332   0.950  13.621
82424SOL    HW249112   7.268   0.876  13.737
82425SOL     OW49113   9.958   9.196   9.248
82425SOL    HW149114  10.038   9.235   9.213
82425SOL    HW249115   9.933   9.130   9.182
82426SOL     OW49116   0.976  14.547  14.714
82426SOL    HW149117   0.920  14.613  14.674
82426SOL    HW249118   1.019  14.592  14.787
82427SOL     OW49119   8.239   4.882  12.346
82427SOL    HW149120   8.313   4.926  12.389
82427SOL    HW249121   8.277   4.842  12.268
82428SOL     OW49122   7.296   0.818   5.958
82428SOL    HW149123   7.320   0.901   5.917
82428SOL    HW249124   7.342   0.818   6.042
82429SOL     OW49125   3.541   4.270   3.861
82429SOL    HW149126   3.599   4.332   3.816
82429SOL    HW249127   3.463   4.321   3.882
82430SOL     OW49128  12.363  12.544   0.343
82430SOL    HW149129  12.354  12.449   0.336
82430SOL    HW249130  12.278  12.574   0.375
82431SOL     OW49131   2.523   1.841  13.230
82431SOL    HW149132   2.455   1.876  13.171
82431SOL    HW249133   2.498   1.874  13.316
82432SOL     OW49134   2.293   3.047   2.509
82432SOL    HW149135   2.288   2.986   2.583
82432SOL    HW249136   2.240   3.005   2.441
82433SOL     OW49137  11.067  11.675   3.643
82433SOL    HW149138  11.073  11.671   3.739
82433SOL    HW249139  11.013  11.752   3.625
82434SOL     OW49140  11.202   9.221   0.095
82434SOL    HW149141  11.184   9.127   0.102
82434SOL    HW249142  11.196   9.253   0.185
82435SOL     OW49143   6.060   8.044  11.729
82435SOL    HW149144   6.048   8.026  11.636
82435SOL    HW249145   5.972   8.065  11.761
82436SOL     OW49146   7.388   2.454   5.148
82436SOL    HW149147   7.314   2.412   5.105
82436SOL    HW249148   7.451   2.471   5.078
82437SOL     OW49149   9.138   6.540   4.096
82437SOL    HW149150   9.166   6.524   4.186
82437SOL    HW249151   9.195   6.484   4.043
82438SOL     OW49152   0.141  11.271   7.826
82438SOL    HW149153   0.217  11.320   7.858
82438SOL    HW249154   0.138  11.290   7.732
82439SOL     OW49155   9.655   3.014  13.304
82439SOL    HW149156   9.575   3.061  13.326
82439SOL    HW249157   9.665   3.025  13.210
82440SOL     OW49158   7.976   6.962   1.715
82440SOL    HW149159   7.921   7.040   1.710
82440SOL    HW249160   8.016   6.967   1.802
82441SOL     OW49161  13.957   9.906   7.205
82441SOL    HW149162  14.040   9.898   7.252
82441SOL    HW249163  13.892   9.866   7.264
82442SOL     OW49164   2.385  14.158   7.336
82442SOL    HW149165   2.371  14.252   7.328
82442SOL    HW249166   2.472  14.143   7.298
82443SOL     OW49167   5.979   0.785   5.025
82443SOL    HW149168   5.907   0.847   5.038
82443SOL    HW249169   6.010   0.803   4.937
82444SOL     OW49170   4.505   3.588   2.484
82444SOL    HW149171   4.543   3.638   2.412
82444SOL    HW249172   4.500   3.498   2.450
82445SOL     OW49173   1.300   4.590   3.851
82445SOL    HW149174   1.394   4.583   3.836
82445SOL    HW249175   1.293   4.617   3.943
82446SOL     OW49176   6.547   0.680   8.628
82446SOL    HW149177   6.593   0.604   8.664
82446SOL    HW249178   6.536   0.739   8.702
82447SOL     OW49179  10.569   4.387  11.982
82447SOL    HW149180  10.665   4.394  11.982
82447SOL    HW249181  10.549   4.334  11.905
82448SOL     OW49182   4.370   0.361   8.490
82448SOL    HW149183   4.402   0.347   8.401
82448SOL    HW249184   4.274   0.366   8.480
82449SOL     OW49185   2.494   3.193   2.700
82449SOL    HW149186   2.501   3.129   2.630
82449SOL    HW249187   2.513   3.277   2.658
82450SOL     OW49188   9.574  11.740  13.127
82450SOL    HW149189   9.481  11.758  13.115
82450SOL    HW249190   9.618  11.817  13.092
82451SOL     OW49191   4.297  13.929   0.283
82451SOL    HW149192   4.342  13.946   0.201
82451SOL    HW249193   4.207  13.958   0.268
82452SOL     OW49194   9.532   2.619  10.327
82452SOL    HW149195   9.473   2.658  10.391
82452SOL    HW249196   9.535   2.526  10.351
82453SOL     OW49197  10.546   6.939  12.065
82453SOL    HW149198  10.554   7.001  12.138
82453SOL    HW249199  10.499   6.988  11.998
82454SOL     OW49200  12.714   8.647  13.648
82454SOL    HW149201  12.675   8.683  13.728
82454SOL    HW249202  12.761   8.569  13.677
82455SOL     OW49203   7.118  12.194  12.581
82455SOL    HW149204   7.108  12.238  12.666
82455SOL    HW249205   7.028  12.186  12.548
82456SOL     OW49206   2.403   2.178   5.990
82456SOL    HW149207   2.393   2.211   6.079
82456SOL    HW249208   2.462   2.103   5.999
82457SOL     OW49209  14.807  13.362   0.807
82457SOL    HW149210  14.873  13.424   0.837
82457SOL    HW249211  14.828  13.281   0.854
82458SOL     OW49212  13.966   2.515   8.463
82458SOL    HW149213  13.916   2.448   8.509
82458SOL    HW249214  13.994   2.575   8.532
82459SOL     OW49215  12.637   7.265   5.899
82459SOL    HW149216  12.621   7.206   5.973
82459SOL    HW249217  12.552   7.305   5.880
82460SOL     OW49218   1.936   9.112   6.722
82460SOL    HW149219   1.905   9.070   6.802
82460SOL    HW249220   1.941   9.205   6.743
82461SOL     OW49221  12.094   8.781   9.404
82461SOL    HW149222  12.026   8.748   9.462
82461SOL    HW249223  12.145   8.703   9.380
82462SOL     OW49224   4.086  11.229   9.186
82462SOL    HW149225   4.018  11.296   9.172
82462SOL    HW249226   4.162  11.263   9.138
82463SOL     OW49227   5.022   1.450   7.900
82463SOL    HW149228   4.946   1.392   7.897
82463SOL    HW249229   5.048   1.459   7.808
82464SOL     OW49230   4.574   4.613   9.754
82464SOL    HW149231   4.575   4.583   9.845
82464SOL    HW249232   4.506   4.681   9.751
82465SOL     OW49233   2.607  13.912  12.549
82465SOL    HW149234   2.628  13.843  12.612
82465SOL    HW249235   2.668  13.983  12.570
82466SOL     OW49236   2.489   5.929   4.824
82466SOL    HW149237   2.422   5.867   4.795
82466SOL    HW249238   2.447   6.015   4.815
82467SOL     OW49239   9.125   9.544   7.150
82467SOL    HW149240   9.185   9.516   7.219
82467SOL    HW249241   9.138   9.638   7.143
82468SOL     OW49242   2.720  11.409   3.573
82468SOL    HW149243   2.806  11.385   3.537
82468SOL    HW249244   2.686  11.475   3.512
82469SOL     OW49245   5.450  14.370   3.853
82469SOL    HW149246   5.484  14.454   3.821
82469SOL    HW249247   5.385  14.344   3.788
82470SOL     OW49248   1.903   2.206  10.099
82470SOL    HW149249   1.837   2.175  10.036
82470SOL    HW249250   1.851   2.236  10.174
82471SOL     OW49251   9.017   9.904   6.961
82471SOL    HW149252   9.028   9.974   7.026
82471SOL    HW249253   9.015   9.951   6.877
82472SOL     OW49254  10.990   7.011  10.333
82472SOL    HW149255  10.970   6.925  10.295
82472SOL    HW249256  11.080   7.029  10.306
82473SOL     OW49257   1.286   3.098  11.581
82473SOL    HW149258   1.318   3.091  11.491
82473SOL    HW249259   1.240   3.015  11.597
82474SOL     OW49260   6.764   9.769   4.719
82474SOL    HW149261   6.724   9.846   4.678
82474SOL    HW249262   6.741   9.696   4.661
82475SOL     OW49263   9.319   7.947   6.474
82475SOL    HW149264   9.402   7.952   6.521
82475SOL    HW249265   9.326   7.868   6.420
82476SOL     OW49266   5.457  12.332   0.721
82476SOL    HW149267   5.532  12.282   0.753
82476SOL    HW249268   5.443  12.300   0.632
82477SOL     OW49269  10.041   9.381   9.828
82477SOL    HW149270  10.110   9.340   9.880
82477SOL    HW249271   9.983   9.309   9.803
82478SOL     OW49272  10.971   3.140   7.475
82478SOL    HW149273  10.914   3.131   7.399
82478SOL    HW249274  10.976   3.234   7.491
82479SOL     OW49275   9.335   3.148   7.595
82479SOL    HW149276   9.297   3.064   7.619
82479SOL    HW249277   9.412   3.126   7.543
82480SOL     OW49278   3.222   9.351   2.521
82480SOL    HW149279   3.285   9.282   2.501
82480SOL    HW249280   3.167   9.313   2.590
82481SOL     OW49281  14.762   2.810   1.107
82481SOL    HW149282  14.842   2.758   1.103
82481SOL    HW249283  14.742   2.817   1.200
82482SOL     OW49284   4.794   5.594   5.821
82482SOL    HW149285   4.846   5.539   5.879
82482SOL    HW249286   4.730   5.636   5.878
82483SOL     OW49287   0.001   2.307  13.071
82483SOL    HW149288   0.032   2.329  13.159
82483SOL    HW249289   0.009   2.212  13.067
82484SOL     OW49290   0.258  12.108   5.214
82484SOL    HW149291   0.282  12.150   5.131
82484SOL    HW249292   0.166  12.083   5.202
82485SOL     OW49293   9.882   8.536  12.485
82485SOL    HW149294   9.944   8.550  12.556
82485SOL    HW249295   9.800   8.512  12.529
82486SOL     OW49296   4.876   2.393  13.320
82486SOL    HW149297   4.957   2.353  13.352
82486SOL    HW249298   4.852   2.340  13.244
82487SOL     OW49299  12.457  13.190  10.961
82487SOL    HW149300  12.437  13.256  10.894
82487SOL    HW249301  12.458  13.107  10.912
82488SOL     OW49302  10.789   0.971   8.139
82488SOL    HW149303  10.881   0.980   8.115
82488SOL    HW249304  10.745   1.046   8.099
82489SOL     OW49305  14.509  11.731   9.963
82489SOL    HW149306  14.483  11.675   9.890
82489SOL    HW249307  14.435  11.791   9.975
82490SOL     OW49308   0.531   9.730   0.434
82490SOL    HW149309   0.561   9.745   0.524
82490SOL    HW249310   0.608   9.696   0.389
82491SOL     OW49311   5.506   1.193   5.992
82491SOL    HW149312   5.556   1.112   5.987
82491SOL    HW249313   5.446   1.190   5.917
82492SOL     OW49314   4.953   8.864   2.321
82492SOL    HW149315   4.881   8.837   2.263
82492SOL    HW249316   4.909   8.898   2.399
82493SOL     OW49317   4.430   1.876  11.849
82493SOL    HW149318   4.495   1.847  11.913
82493SOL    HW249319   4.360   1.915  11.902
82494SOL     OW49320  13.354   3.725   9.474
82494SOL    HW149321  13.373   3.686   9.560
82494SOL    HW249322  13.406   3.805   9.472
82495SOL     OW49323   6.662   3.127   6.261
82495SOL    HW149324   6.598   3.141   6.191
82495SOL    HW249325   6.616   3.156   6.340
82496SOL     OW49326   7.081  13.367  12.575
82496SOL    HW149327   7.102  13.339  12.486
82496SOL    HW249328   7.160  13.412  12.605
82497SOL     OW49329   9.619   8.496  13.340
82497SOL    HW149330   9.645   8.428  13.403
82497SOL    HW249331   9.684   8.489  13.270
82498SOL     OW49332  14.479  11.249   4.507
82498SOL    HW149333  14.504  11.218   4.594
82498SOL    HW249334  14.384  11.234   4.502
82499SOL     OW49335   6.176  13.143  10.963
82499SOL    HW149336   6.252  13.090  10.938
82499SOL    HW249337   6.204  13.191  11.040
82500SOL     OW49338  11.062   1.648   1.685
82500SOL    HW149339  11.011   1.652   1.766
82500SOL    HW249340  11.034   1.566   1.644
82501SOL     OW49341   0.253   3.002   6.227
82501SOL    HW149342   0.219   2.914   6.239
82501SOL    HW249343   0.175   3.058   6.223
82502SOL     OW49344  10.159   7.329  11.639
82502SOL    HW149345  10.135   7.241  11.614
82502SOL    HW249346  10.084   7.383  11.616
82503SOL     OW49347   6.901   0.145   0.191
82503SOL    HW149348   6.875   0.212   0.127
82503SOL    HW249349   6.827   0.084   0.192
82504SOL     OW49350  13.522  13.380  10.485
82504SOL    HW149351  13.565  13.393  10.400
82504SOL    HW249352  13.525  13.285  10.498
82505SOL     OW49353   0.797   4.992  12.739
82505SOL    HW149354   0.717   5.042  12.757
82505SOL    HW249355   0.777   4.903  12.768
82506SOL     OW49356   3.411   5.001  12.919
82506SOL    HW149357   3.473   4.993  12.991
82506SOL    HW249358   3.415   4.916  12.875
82507SOL     OW49359   9.364   6.888   6.279
82507SOL    HW149360   9.311   6.860   6.354
82507SOL    HW249361   9.410   6.808   6.252
82508SOL     OW49362   4.621   5.601   3.804
82508SOL    HW149363   4.565   5.673   3.774
82508SOL    HW249364   4.592   5.584   3.894
82509SOL     OW49365   7.838   8.495  14.366
82509SOL    HW149366   7.754   8.453  14.345
82509SOL    HW249367   7.879   8.437  14.430
82510SOL     OW49368  11.903   1.764   5.793
82510SOL    HW149369  11.811   1.788   5.788
82510SOL    HW249370  11.948   1.845   5.819
82511SOL     OW49371   7.159  12.229   4.671
82511SOL    HW149372   7.244  12.244   4.712
82511SOL    HW249373   7.112  12.311   4.683
82512SOL     OW49374   4.588   0.666   5.277
82512SOL    HW149375   4.534   0.686   5.354
82512SOL    HW249376   4.561   0.731   5.212
82513SOL     OW49377  12.273   1.692  10.736
82513SOL    HW149378  12.337   1.726  10.673
82513SOL    HW249379  12.238   1.770  10.779
82514SOL     OW49380  13.695  10.170   8.693
82514SOL    HW149381  13.632  10.105   8.662
82514SOL    HW249382  13.660  10.254   8.662
82515SOL     OW49383  13.192  14.860   3.837
82515SOL    HW149384  13.138   0.054   3.816
82515SOL    HW249385  13.282   0.006   3.820
82516SOL     OW49386   8.313  11.539   5.372
82516SOL    HW149387   8.376  11.609   5.390
82516SOL    HW249388   8.232  11.585   5.350
82517SOL     OW49389   9.188  14.704  11.882
82517SOL    HW149390   9.183  14.624  11.935
82517SOL    HW249391   9.248  14.760  11.930
82518SOL     OW49392  11.418   5.799  14.579
82518SOL    HW149393  11.420   5.865  14.647
82518SOL    HW249394  11.473   5.834  14.509
82519SOL     OW49395   4.023   5.747   2.522
82519SOL    HW149396   4.046   5.827   2.474
82519SOL    HW249397   4.002   5.777   2.610
82520SOL     OW49398   9.535   9.804  12.159
82520SOL    HW149399   9.523   9.746  12.083
82520SOL    HW249400   9.623   9.784  12.190
82521SOL     OW49401   6.012   2.826  13.442
82521SOL    HW149402   5.934   2.867  13.404
82521SOL    HW249403   6.054   2.896  13.492
82522SOL     OW49404   4.801  14.082   4.201
82522SOL    HW149405   4.840  14.042   4.278
82522SOL    HW249406   4.826  14.024   4.129
82523SOL     OW49407   9.420  14.674  14.619
82523SOL    HW149408   9.356  14.611  14.654
82523SOL    HW249409   9.489  14.619  14.582
82524SOL     OW49410   3.341   7.352   8.435
82524SOL    HW149411   3.290   7.405   8.497
82524SOL    HW249412   3.355   7.410   8.360
82525SOL     OW49413   0.765   6.427   7.981
82525SOL    HW149414   0.782   6.470   7.897
82525SOL    HW249415   0.759   6.334   7.960
82526SOL     OW49416   1.462  12.281  11.824
82526SOL    HW149417   1.389  12.250  11.771
82526SOL    HW249418   1.466  12.375  11.806
82527SOL     OW49419  13.386  11.397   9.457
82527SOL    HW149420  13.384  11.431   9.368
82527SOL    HW249421  13.294  11.380   9.478
82528SOL     OW49422   6.238  13.231   9.402
82528SOL    HW149423   6.235  13.217   9.496
82528SOL    HW249424   6.273  13.319   9.391
82529SOL     OW49425  11.319   8.856  10.197
82529SOL    HW149426  11.334   8.859  10.291
82529SOL    HW249427  11.250   8.921  10.181
82530SOL     OW49428  11.240   4.300   2.382
82530SOL    HW149429  11.251   4.205   2.385
82530SOL    HW249430  11.246   4.322   2.290
82531SOL     OW49431  12.101  11.593   9.521
82531SOL    HW149432  12.116  11.548   9.604
82531SOL    HW249433  12.177  11.568   9.467
82532SOL     OW49434   1.639  13.612   6.770
82532SOL    HW149435   1.611  13.607   6.679
82532SOL    HW249436   1.618  13.701   6.796
82533SOL     OW49437   1.855   2.838   5.764
82533SOL    HW149438   1.940   2.835   5.808
82533SOL    HW249439   1.819   2.751   5.775
82534SOL     OW49440  11.387   8.808  10.459
82534SOL    HW149441  11.431   8.826  10.542
82534SOL    HW249442  11.307   8.762  10.484
82535SOL     OW49443   0.894   5.493   2.471
82535SOL    HW149444   0.933   5.415   2.432
82535SOL    HW249445   0.802   5.471   2.481
82536SOL     OW49446  13.648  13.708   8.523
82536SOL    HW149447  13.570  13.673   8.565
82536SOL    HW249448  13.621  13.794   8.491
82537SOL     OW49449   4.237  13.404  12.531
82537SOL    HW149450   4.251  13.377  12.441
82537SOL    HW249451   4.282  13.488  12.538
82538SOL     OW49452   1.555   3.111   9.030
82538SOL    HW149453   1.650   3.104   9.032
82538SOL    HW249454   1.534   3.121   8.937
82539SOL     OW49455   6.119  13.698   7.210
82539SOL    HW149456   6.201  13.739   7.236
82539SOL    HW249457   6.062  13.772   7.185
82540SOL     OW49458   8.172  11.267   9.037
82540SOL    HW149459   8.260  11.254   9.003
82540SOL    HW249460   8.121  11.194   9.001
82541SOL     OW49461   7.746  14.388   1.016
82541SOL    HW149462   7.697  14.394   1.098
82541SOL    HW249463   7.775  14.478   0.999
82542SOL     OW49464  10.104   0.207  10.487
82542SOL    HW149465  10.032   0.148  10.508
82542SOL    HW249466  10.064   0.294  10.485
82543SOL     OW49467   4.852   3.795   0.389
82543SOL    HW149468   4.942   3.792   0.421
82543SOL    HW249469   4.815   3.874   0.429
82544SOL     OW49470   0.905   8.422   6.917
82544SOL    HW149471   0.998   8.421   6.939
82544SOL    HW249472   0.861   8.388   6.995
82545SOL     OW49473  13.568   8.266   2.522
82545SOL    HW149474  13.558   8.343   2.579
82545SOL    HW249475  13.528   8.292   2.439
82546SOL     OW49476   0.582   8.241   9.193
82546SOL    HW149477   0.626   8.219   9.275
82546SOL    HW249478   0.639   8.206   9.124
82547SOL     OW49479  12.938  14.809   0.348
82547SOL    HW149480  12.969  14.810   0.257
82547SOL    HW249481  12.869  14.743   0.349
82548SOL     OW49482   4.162  12.488  14.445
82548SOL    HW149483   4.130  12.404  14.479
82548SOL    HW249484   4.133  12.552  14.510
82549SOL     OW49485  10.520   0.275  12.407
82549SOL    HW149486  10.455   0.318  12.352
82549SOL    HW249487  10.561   0.209  12.350
82550SOL     OW49488   6.104   0.740  13.127
82550SOL    HW149489   6.137   0.652  13.106
82550SOL    HW249490   6.182   0.790  13.149
82551SOL     OW49491   0.465  10.206   8.887
82551SOL    HW149492   0.468  10.282   8.946
82551SOL    HW249493   0.488  10.132   8.943
82552SOL     OW49494   1.174   3.798  14.634
82552SOL    HW149495   1.215   3.749  14.705
82552SOL    HW249496   1.191   3.746  14.556
82553SOL     OW49497   3.224   8.139  11.498
82553SOL    HW149498   3.303   8.094  11.468
82553SOL    HW249499   3.162   8.068  11.518
82554SOL     OW49500   0.943  13.778   5.032
82554SOL    HW149501   0.948  13.840   5.104
82554SOL    HW249502   0.967  13.694   5.071
82555SOL     OW49503   5.819   5.998  14.786
82555SOL    HW149504   5.838   6.091  14.788
82555SOL    HW249505   5.779   5.984  14.700
82556SOL     OW49506  12.608  12.824   9.159
82556SOL    HW149507  12.654  12.745   9.189
82556SOL    HW249508  12.539  12.791   9.102
82557SOL     OW49509   5.071   2.634   9.507
82557SOL    HW149510   5.069   2.538   9.510
82557SOL    HW249511   4.980   2.660   9.527
82558SOL     OW49512   6.660   0.201   6.086
82558SOL    HW149513   6.578   0.247   6.103
82558SOL    HW249514   6.634   0.112   6.066
82559SOL     OW49515   6.606   3.368   8.979
82559SOL    HW149516   6.645   3.322   8.905
82559SOL    HW249517   6.611   3.306   9.052
82560SOL     OW49518   7.095   1.197  13.416
82560SOL    HW149519   7.023   1.181  13.356
82560SOL    HW249520   7.059   1.179  13.503
82561SOL     OW49521   4.907   1.146   0.759
82561SOL    HW149522   4.927   1.112   0.846
82561SOL    HW249523   4.991   1.145   0.713
82562SOL     OW49524  14.034  13.121   3.746
82562SOL    HW149525  13.949  13.081   3.764
82562SOL    HW249526  14.086  13.106   3.824
82563SOL     OW49527   8.567  12.312  11.526
82563SOL    HW149528   8.595  12.333  11.615
82563SOL    HW249529   8.534  12.222  11.532
82564SOL     OW49530   3.778   1.185   1.749
82564SOL    HW149531   3.873   1.178   1.759
82564SOL    HW249532   3.762   1.162   1.658
82565SOL     OW49533   8.325   1.353  11.220
82565SOL    HW149534   8.316   1.388  11.132
82565SOL    HW249535   8.337   1.430  11.276
82566SOL     OW49536   0.370   1.459  13.766
82566SOL    HW149537   0.320   1.541  13.760
82566SOL    HW249538   0.335   1.406  13.694
82567SOL     OW49539  13.312   8.882   2.944
82567SOL    HW149540  13.247   8.814   2.963
82567SOL    HW249541  13.324   8.878   2.849
82568SOL     OW49542  11.445  12.985  10.270
82568SOL    HW149543  11.382  13.019  10.334
82568SOL    HW249544  11.426  12.892  10.265
82569SOL     OW49545   1.345   6.310   0.105
82569SOL    HW149546   1.287   6.288   0.178
82569SOL    HW249547   1.421   6.351   0.147
82570SOL     OW49548   0.057   0.484  11.128
82570SOL    HW149549   0.117   0.410  11.119
82570SOL    HW249550   0.070   0.515  11.218
82571SOL     OW49551   7.411  13.129   5.887
82571SOL    HW149552   7.362  13.210   5.902
82571SOL    HW249553   7.373  13.091   5.808
82572SOL     OW49554  12.710   0.925  10.206
82572SOL    HW149555  12.646   0.871  10.251
82572SOL    HW249556  12.668   0.948  10.123
82573SOL     OW49557   9.683   9.716   7.190
82573SOL    HW149558   9.710   9.693   7.101
82573SOL    HW249559   9.684   9.812   7.192
82574SOL     OW49560   4.560   9.383   5.736
82574SOL    HW149561   4.559   9.366   5.642
82574SOL    HW249562   4.511   9.309   5.774
82575SOL     OW49563   6.806   1.610   0.813
82575SOL    HW149564   6.800   1.542   0.746
82575SOL    HW249565   6.723   1.658   0.807
82576SOL     OW49566   7.212   9.973  14.309
82576SOL    HW149567   7.274  10.037  14.346
82576SOL    HW249568   7.160   9.945  14.384
82577SOL     OW49569   1.408   5.413   7.997
82577SOL    HW149570   1.484   5.454   8.038
82577SOL    HW249571   1.334   5.466   8.026
82578SOL     OW49572   6.621  14.783  11.726
82578SOL    HW149573   6.713  14.770  11.701
82578SOL    HW249574   6.577  14.705  11.693
82579SOL     OW49575   4.540  12.416   4.775
82579SOL    HW149576   4.528  12.506   4.805
82579SOL    HW249577   4.481  12.408   4.700
82580SOL     OW49578  12.090   4.649   3.047
82580SOL    HW149579  12.032   4.599   2.990
82580SOL    HW249580  12.163   4.673   2.991
82581SOL     OW49581   2.079  14.054   6.327
82581SOL    HW149582   2.097  14.072   6.419
82581SOL    HW249583   2.094  13.960   6.318
82582SOL     OW49584  12.693  11.530   8.578
82582SOL    HW149585  12.678  11.481   8.659
82582SOL    HW249586  12.742  11.468   8.523
82583SOL     OW49587   0.793  13.507  12.751
82583SOL    HW149588   0.760  13.556  12.676
82583SOL    HW249589   0.887  13.526  12.753
82584SOL     OW49590   7.409   1.805  10.629
82584SOL    HW149591   7.388   1.760  10.711
82584SOL    HW249592   7.347   1.770  10.566
82585SOL     OW49593   8.289   1.297   0.083
82585SOL    HW149594   8.304   1.243   0.005
82585SOL    HW249595   8.315   1.385   0.056
82586SOL     OW49596   2.163  10.408  11.705
82586SOL    HW149597   2.077  10.446  11.690
82586SOL    HW249598   2.222  10.460  11.650
82587SOL     OW49599   9.276   4.275   8.157
82587SOL    HW149600   9.363   4.299   8.125
82587SOL    HW249601   9.267   4.322   8.240
82588SOL     OW49602   5.850  14.151   0.363
82588SOL    HW149603   5.782  14.095   0.401
82588SOL    HW249604   5.922  14.147   0.426
82589SOL     OW49605   5.235   6.820   4.083
82589SOL    HW149606   5.225   6.915   4.087
82589SOL    HW249607   5.214   6.790   4.171
82590SOL     OW49608   1.335  10.135   5.745
82590SOL    HW149609   1.427  10.116   5.764
82590SOL    HW249610   1.315  10.212   5.797
82591SOL     OW49611  11.235   7.629  10.669
82591SOL    HW149612  11.204   7.558  10.725
82591SOL    HW249613  11.171   7.699  10.681
82592SOL     OW49614   9.613  11.435   1.115
82592SOL    HW149615   9.647  11.392   1.193
82592SOL    HW249616   9.617  11.369   1.046
82593SOL     OW49617  10.433  14.182   5.382
82593SOL    HW149618  10.472  14.181   5.469
82593SOL    HW249619  10.441  14.273   5.353
82594SOL     OW49620   4.482  10.348  13.875
82594SOL    HW149621   4.440  10.309  13.798
82594SOL    HW249622   4.499  10.274  13.933
82595SOL     OW49623  12.965   0.974   7.834
82595SOL    HW149624  12.888   0.941   7.880
82595SOL    HW249625  12.932   1.046   7.781
82596SOL     OW49626   7.525  14.577   5.137
82596SOL    HW149627   7.575  14.529   5.203
82596SOL    HW249628   7.475  14.642   5.187
82597SOL     OW49629   3.277  10.045   9.512
82597SOL    HW149630   3.345  10.081   9.456
82597SOL    HW249631   3.321   9.977   9.563
82598SOL     OW49632  14.063  14.593   6.453
82598SOL    HW149633  14.006  14.520   6.429
82598SOL    HW249634  14.152  14.557   6.447
82599SOL     OW49635   2.928  14.633   4.924
82599SOL    HW149636   2.897  14.555   4.878
82599SOL    HW249637   2.863  14.649   4.992
82600SOL     OW49638  13.211   4.302  10.700
82600SOL    HW149639  13.226   4.247  10.623
82600SOL    HW249640  13.155   4.374  10.668
82601SOL     OW49641  13.888  11.774  10.510
82601SOL    HW149642  13.875  11.762  10.416
82601SOL    HW249643  13.854  11.693  10.549
82602SOL     OW49644  13.957   0.080   4.148
82602SOL    HW149645  13.929   0.151   4.205
82602SOL    HW249646  14.051   0.093   4.136
82603SOL     OW49647   0.121   7.323   1.400
82603SOL    HW149648   0.125   7.270   1.320
82603SOL    HW249649   0.208   7.314   1.439
82604SOL     OW49650   1.125   5.852  13.670
82604SOL    HW149651   1.191   5.884  13.609
82604SOL    HW249652   1.132   5.912  13.745
82605SOL     OW49653   4.064  13.774   9.613
82605SOL    HW149654   4.033  13.722   9.687
82605SOL    HW249655   3.984  13.798   9.565
82606SOL     OW49656  12.695   5.907   6.458
82606SOL    HW149657  12.651   5.973   6.512
82606SOL    HW249658  12.676   5.824   6.501
82607SOL     OW49659   8.098   5.833   6.887
82607SOL    HW149660   8.125   5.784   6.965
82607SOL    HW249661   8.180   5.859   6.845
82608SOL     OW49662   3.406   7.048   0.835
82608SOL    HW149663   3.496   7.043   0.805
82608SOL    HW249664   3.408   7.016   0.925
82609SOL     OW49665   1.968   9.034  10.096
82609SOL    HW149666   1.961   9.073  10.183
82609SOL    HW249667   2.000   9.104  10.040
82610SOL     OW49668   2.680  14.681  13.415
82610SOL    HW149669   2.657  14.659  13.506
82610SOL    HW249670   2.746  14.616  13.391
82611SOL     OW49671  12.837   3.621  14.652
82611SOL    HW149672  12.843   3.639  14.558
82611SOL    HW249673  12.850   3.706  14.694
82612SOL     OW49674   0.730   8.542  10.181
82612SOL    HW149675   0.804   8.557  10.122
82612SOL    HW249676   0.654   8.535  10.124
82613SOL     OW49677   8.135   9.602  10.953
82613SOL    HW149678   8.131   9.524  11.008
82613SOL    HW249679   8.110   9.674  11.011
82614SOL     OW49680   9.129   0.268   9.012
82614SOL    HW149681   9.094   0.331   9.074
82614SOL    HW249682   9.057   0.250   8.952
82615SOL     OW49683   5.838   4.992  14.830
82615SOL    HW149684   5.835   4.919  14.768
82615SOL    HW249685   5.757   4.983  14.881
82616SOL     OW49686  11.912   2.071   5.262
82616SOL    HW149687  11.852   2.057   5.335
82616SOL    HW249688  11.890   2.158   5.230
82617SOL     OW49689   1.179  10.733  11.749
82617SOL    HW149690   1.252  10.704  11.804
82617SOL    HW249691   1.101  10.697  11.791
82618SOL     OW49692  14.085   4.307  14.732
82618SOL    HW149693  14.089   4.397  14.762
82618SOL    HW249694  14.140   4.305  14.653
82619SOL     OW49695  13.555   6.057   6.475
82619SOL    HW149696  13.535   6.063   6.382
82619SOL    HW249697  13.505   5.981   6.506
82620SOL     OW49698   0.567   5.924   6.468
82620SOL    HW149699   0.594   5.945   6.557
82620SOL    HW249700   0.623   5.978   6.413
82621SOL     OW49701   0.871  14.165  10.266
82621SOL    HW149702   0.861  14.239  10.326
82621SOL    HW249703   0.963  14.167  10.240
82622SOL     OW49704  14.737   7.050  13.835
82622SOL    HW149705  14.685   6.996  13.775
82622SOL    HW249706  14.819   7.001  13.845
82623SOL     OW49707  10.910   6.403  10.639
82623SOL    HW149708  10.965   6.475  10.671
82623SOL    HW249709  10.872   6.366  10.719
82624SOL     OW49710   1.354  12.288   3.269
82624SOL    HW149711   1.449  12.297   3.265
82624SOL    HW249712   1.338  12.240   3.350
82625SOL     OW49713   0.815   8.617  14.543
82625SOL    HW149714   0.907   8.632  14.520
82625SOL    HW249715   0.785   8.700  14.579
82626SOL     OW49716   6.310   9.148   9.817
82626SOL    HW149717   6.327   9.219   9.756
82626SOL    HW249718   6.387   9.092   9.811
82627SOL     OW49719  13.087   9.531   1.708
82627SOL    HW149720  13.170   9.520   1.661
82627SOL    HW249721  13.041   9.599   1.658
82628SOL     OW49722   9.166  14.555   2.894
82628SOL    HW149723   9.160  14.468   2.932
82628SOL    HW249724   9.239  14.597   2.940
82629SOL     OW49725  10.903  12.141  14.555
82629SOL    HW149726  10.855  12.071  14.510
82629SOL    HW249727  10.846  12.166  14.627
82630SOL     OW49728  12.727   3.841  10.020
82630SOL    HW149729  12.668   3.768  10.040
82630SOL    HW249730  12.815   3.806  10.032
82631SOL     OW49731   6.574   1.423   4.831
82631SOL    HW149732   6.631   1.486   4.788
82631SOL    HW249733   6.603   1.423   4.922
82632SOL     OW49734   4.178  10.681   5.221
82632SOL    HW149735   4.114  10.673   5.292
82632SOL    HW249736   4.141  10.749   5.164
82633SOL     OW49737  12.395  12.002   5.488
82633SOL    HW149738  12.344  12.082   5.501
82633SOL    HW249739  12.369  11.945   5.560
82634SOL     OW49740   4.197  10.215   2.697
82634SOL    HW149741   4.251  10.147   2.657
82634SOL    HW249742   4.114  10.171   2.717
82635SOL     OW49743  11.129  14.084   9.967
82635SOL    HW149744  11.162  14.042   9.888
82635SOL    HW249745  11.053  14.135   9.937
82636SOL     OW49746   7.391  11.058  14.401
82636SOL    HW149747   7.467  11.000  14.413
82636SOL    HW249748   7.405  11.129  14.463
82637SOL     OW49749   7.637   2.148   2.576
82637SOL    HW149750   7.662   2.115   2.662
82637SOL    HW249751   7.541   2.151   2.578
82638SOL     OW49752   1.702  11.048   8.028
82638SOL    HW149753   1.685  11.006   8.112
82638SOL    HW249754   1.680  11.140   8.043
82639SOL     OW49755   6.928   8.863  13.676
82639SOL    HW149756   6.867   8.931  13.652
82639SOL    HW249757   6.881   8.809  13.740
82640SOL     OW49758   6.083  13.949  14.110
82640SOL    HW149759   6.012  13.996  14.153
82640SOL    HW249760   6.067  13.963  14.016
82641SOL     OW49761   2.323  12.502   3.404
82641SOL    HW149762   2.306  12.559   3.329
82641SOL    HW249763   2.367  12.425   3.367
82642SOL     OW49764  11.479   6.473   1.248
82642SOL    HW149765  11.421   6.523   1.192
82642SOL    HW249766  11.491   6.527   1.326
82643SOL     OW49767   3.086   7.809   9.488
82643SOL    HW149768   3.158   7.844   9.436
82643SOL    HW249769   3.073   7.721   9.455
82644SOL     OW49770  14.591   9.206   2.081
82644SOL    HW149771  14.633   9.226   1.997
82644SOL    HW249772  14.621   9.117   2.101
82645SOL     OW49773  10.965   3.846  14.579
82645SOL    HW149774  10.920   3.842  14.664
82645SOL    HW249775  11.047   3.799  14.593
82646SOL     OW49776   5.240   4.854   7.020
82646SOL    HW149777   5.242   4.926   7.082
82646SOL    HW249778   5.155   4.813   7.033
82647SOL     OW49779   6.128   2.661   3.076
82647SOL    HW149780   6.170   2.747   3.070
82647SOL    HW249781   6.073   2.656   2.997
82648SOL     OW49782   9.195   1.317  10.730
82648SOL    HW149783   9.290   1.309  10.736
82648SOL    HW249784   9.164   1.229  10.709
82649SOL     OW49785   7.041   2.561   2.881
82649SOL    HW149786   6.967   2.576   2.823
82649SOL    HW249787   7.064   2.469   2.868
82650SOL     OW49788   9.671   5.000  10.014
82650SOL    HW149789   9.592   5.041   9.981
82650SOL    HW249790   9.705   5.063  10.079
82651SOL     OW49791  12.973   5.199   1.597
82651SOL    HW149792  12.930   5.263   1.654
82651SOL    HW249793  12.905   5.135   1.577
82652SOL     OW49794   2.718   2.651   5.072
82652SOL    HW149795   2.650   2.718   5.078
82652SOL    HW249796   2.721   2.628   4.980
82653SOL     OW49797   8.785  12.714  10.297
82653SOL    HW149798   8.788  12.619  10.281
82653SOL    HW249799   8.734  12.749  10.224
82654SOL     OW49800   9.967  13.115   2.443
82654SOL    HW149801  10.038  13.094   2.503
82654SOL    HW249802  10.010  13.128   2.359
82655SOL     OW49803   8.927   5.766  10.258
82655SOL    HW149804   8.917   5.794  10.349
82655SOL    HW249805   8.898   5.842  10.207
82656SOL     OW49806   3.108   1.778  11.961
82656SOL    HW149807   3.102   1.810  12.050
82656SOL    HW249808   3.159   1.844  11.914
82657SOL     OW49809   6.831   4.105   6.956
82657SOL    HW149810   6.806   4.041   7.022
82657SOL    HW249811   6.919   4.078   6.929
82658SOL     OW49812   0.344   9.129  13.010
82658SOL    HW149813   0.325   9.102  13.100
82658SOL    HW249814   0.427   9.176  13.016
82659SOL     OW49815   2.699   1.105   7.176
82659SOL    HW149816   2.791   1.079   7.178
82659SOL    HW249817   2.699   1.190   7.133
82660SOL     OW49818  13.874   8.306   9.010
82660SOL    HW149819  13.872   8.336   9.101
82660SOL    HW249820  13.957   8.339   8.976
82661SOL     OW49821   7.777   3.148  10.877
82661SOL    HW149822   7.856   3.108  10.842
82661SOL    HW249823   7.806   3.233  10.910
82662SOL     OW49824   6.645  10.086   8.985
82662SOL    HW149825   6.621  10.124   9.069
82662SOL    HW249826   6.719  10.139   8.955
82663SOL     OW49827  11.721   1.992   2.954
82663SOL    HW149828  11.742   1.902   2.980
82663SOL    HW249829  11.785   2.046   3.000
82664SOL     OW49830   6.338   2.627   7.841
82664SOL    HW149831   6.400   2.553   7.839
82664SOL    HW249832   6.333   2.656   7.750
82665SOL     OW49833   7.195   1.129   5.908
82665SOL    HW149834   7.133   1.124   5.981
82665SOL    HW249835   7.150   1.183   5.843
82666SOL     OW49836   1.099  13.459   1.577
82666SOL    HW149837   1.170  13.520   1.558
82666SOL    HW249838   1.093  13.403   1.500
82667SOL     OW49839   2.668   1.548   4.938
82667SOL    HW149840   2.735   1.480   4.941
82667SOL    HW249841   2.654   1.572   5.029
82668SOL     OW49842   0.309  13.330  14.543
82668SOL    HW149843   0.256  13.367  14.614
82668SOL    HW249844   0.388  13.384  14.542
82669SOL     OW49845  13.797   0.159   2.253
82669SOL    HW149846  13.848   0.092   2.208
82669SOL    HW249847  13.721   0.174   2.196
82670SOL     OW49848   0.452   0.512   9.247
82670SOL    HW149849   0.541   0.523   9.212
82670SOL    HW249850   0.404   0.588   9.216
82671SOL     OW49851  10.829   6.368   0.186
82671SOL    HW149852  10.800   6.452   0.222
82671SOL    HW249853  10.924   6.378   0.176
82672SOL     OW49854  13.173   7.564   8.015
82672SOL    HW149855  13.228   7.509   8.071
82672SOL    HW249856  13.178   7.523   7.929
82673SOL     OW49857   7.227   0.450   0.738
82673SOL    HW149858   7.170   0.508   0.687
82673SOL    HW249859   7.314   0.489   0.729
82674SOL     OW49860   5.068  12.524  14.159
82674SOL    HW149861   5.067  12.575  14.078
82674SOL    HW249862   5.160  12.496  14.169
82675SOL     OW49863   7.713   0.535   0.597
82675SOL    HW149864   7.724   0.453   0.551
82675SOL    HW249865   7.628   0.528   0.640
82676SOL     OW49866  14.460  10.733   9.961
82676SOL    HW149867  14.479  10.818   9.921
82676SOL    HW249868  14.544  10.703   9.995
82677SOL     OW49869   9.254  12.480   9.625
82677SOL    HW149870   9.221  12.536   9.695
82677SOL    HW249871   9.228  12.392   9.651
82678SOL     OW49872   7.363  13.331  10.003
82678SOL    HW149873   7.401  13.353  10.088
82678SOL    HW249874   7.395  13.243   9.984
82679SOL     OW49875   2.876   5.808   7.051
82679SOL    HW149876   2.829   5.892   7.052
82679SOL    HW249877   2.904   5.796   7.142
82680SOL     OW49878   4.804   5.524   1.873
82680SOL    HW149879   4.867   5.472   1.823
82680SOL    HW249880   4.773   5.464   1.941
82681SOL     OW49881   3.735  14.881   5.297
82681SOL    HW149882   3.753  14.820   5.226
82681SOL    HW249883   3.655  14.846   5.338
82682SOL     OW49884  11.294   6.048   9.576
82682SOL    HW149885  11.368   5.987   9.584
82682SOL    HW249886  11.317   6.121   9.633
82683SOL     OW49887   0.351   4.145   6.036
82683SOL    HW149888   0.322   4.084   6.105
82683SOL    HW249889   0.441   4.118   6.016
82684SOL     OW49890   3.693   5.991  14.469
82684SOL    HW149891   3.610   5.946  14.456
82684SOL    HW249892   3.671   6.084  14.472
82685SOL     OW49893   2.376  11.348   7.350
82685SOL    HW149894   2.467  11.366   7.327
82685SOL    HW249895   2.325  11.394   7.283
82686SOL     OW49896  10.771   8.686   7.289
82686SOL    HW149897  10.725   8.603   7.299
82686SOL    HW249898  10.827   8.693   7.366
82687SOL     OW49899   1.094   8.061   2.376
82687SOL    HW149900   1.153   7.992   2.345
82687SOL    HW249901   1.136   8.143   2.350
82688SOL     OW49902  13.368   2.656  11.708
82688SOL    HW149903  13.293   2.626  11.759
82688SOL    HW249904  13.435   2.675  11.773
82689SOL     OW49905   5.495   4.610   6.905
82689SOL    HW149906   5.465   4.698   6.883
82689SOL    HW249907   5.507   4.568   6.820
82690SOL     OW49908  13.359  14.545  10.962
82690SOL    HW149909  13.355  14.469  10.904
82690SOL    HW249910  13.269  14.576  10.968
82691SOL     OW49911   8.230   1.923   6.505
82691SOL    HW149912   8.256   1.832   6.523
82691SOL    HW249913   8.237   1.931   6.410
82692SOL     OW49914   0.159   0.458  14.319
82692SOL    HW149915   0.112   0.539  14.341
82692SOL    HW249916   0.195   0.474  14.232
82693SOL     OW49917   5.364  14.153   6.182
82693SOL    HW149918   5.301  14.099   6.230
82693SOL    HW249919   5.311  14.222   6.143
82694SOL     OW49920   4.070  14.527  12.181
82694SOL    HW149921   4.051  14.464  12.250
82694SOL    HW249922   4.014  14.499  12.108
82695SOL     OW49923   4.643  10.813   2.867
82695SOL    HW149924   4.655  10.763   2.786
82695SOL    HW249925   4.559  10.782   2.902
82696SOL     OW49926  14.392   3.987   3.220
82696SOL    HW149927  14.406   3.912   3.163
82696SOL    HW249928  14.434   3.963   3.303
82697SOL     OW49929   8.070   8.584  12.980
82697SOL    HW149930   7.977   8.564  12.995
82697SOL    HW249931   8.077   8.599  12.886
82698SOL     OW49932  11.175   6.439   4.097
82698SOL    HW149933  11.091   6.410   4.062
82698SOL    HW249934  11.158   6.457   4.190
82699SOL     OW49935   1.704   5.041   4.433
82699SOL    HW149936   1.656   5.122   4.452
82699SOL    HW249937   1.691   5.027   4.340
82700SOL     OW49938  13.989   7.987   1.427
82700SOL    HW149939  13.932   7.982   1.350
82700SOL    HW249940  13.939   7.946   1.497
82701SOL     OW49941  11.603   5.128   7.647
82701SOL    HW149942  11.678   5.180   7.616
82701SOL    HW249943  11.528   5.188   7.639
82702SOL     OW49944   4.486   6.870   7.625
82702SOL    HW149945   4.528   6.954   7.602
82702SOL    HW249946   4.550   6.827   7.682
82703SOL     OW49947   8.204   9.383  12.158
82703SOL    HW149948   8.146   9.460  12.153
82703SOL    HW249949   8.146   9.309  12.140
82704SOL     OW49950   9.661   3.471   5.771
82704SOL    HW149951   9.588   3.417   5.742
82704SOL    HW249952   9.705   3.419   5.838
82705SOL     OW49953   3.295  14.197   3.397
82705SOL    HW149954   3.211  14.151   3.396
82705SOL    HW249955   3.275  14.284   3.362
82706SOL     OW49956   2.281   4.115   8.274
82706SOL    HW149957   2.244   4.085   8.191
82706SOL    HW249958   2.364   4.069   8.282
82707SOL     OW49959   7.599  14.506   3.891
82707SOL    HW149960   7.642  14.535   3.972
82707SOL    HW249961   7.592  14.586   3.839
82708SOL     OW49962   1.323   2.983  10.902
82708SOL    HW149963   1.364   3.069  10.912
82708SOL    HW249964   1.295   2.960  10.991
82709SOL     OW49965   8.311   3.139  13.406
82709SOL    HW149966   8.394   3.100  13.436
82709SOL    HW249967   8.313   3.129  13.311
82710SOL     OW49968   3.699  10.604   6.959
82710SOL    HW149969   3.715  10.520   7.000
82710SOL    HW249970   3.609  10.599   6.926
82711SOL     OW49971   4.108   1.752  14.141
82711SOL    HW149972   4.116   1.842  14.174
82711SOL    HW249973   4.022   1.749  14.100
82712SOL     OW49974   5.971  13.198  12.504
82712SOL    HW149975   5.972  13.292  12.520
82712SOL    HW249976   6.027  13.186  12.427
82713SOL     OW49977   6.352   0.555   1.769
82713SOL    HW149978   6.307   0.550   1.685
82713SOL    HW249979   6.330   0.641   1.804
82714SOL     OW49980   0.012  14.843   9.288
82714SOL    HW149981  14.813  14.817   9.333
82714SOL    HW249982   0.051   0.027   9.346
82715SOL     OW49983   1.415  11.727   8.596
82715SOL    HW149984   1.464  11.666   8.540
82715SOL    HW249985   1.345  11.759   8.540
82716SOL     OW49986  14.310   7.056   1.000
82716SOL    HW149987  14.403   7.062   1.021
82716SOL    HW249988  14.301   6.973   0.954
82717SOL     OW49989  10.337   9.785   3.420
82717SOL    HW149990  10.250   9.825   3.411
82717SOL    HW249991  10.398   9.858   3.412
82718SOL     OW49992  11.189  14.599   0.422
82718SOL    HW149993  11.115  14.541   0.438
82718SOL    HW249994  11.246  14.550   0.362
82719SOL     OW49995  11.639   5.780  12.553
82719SOL    HW149996  11.650   5.810  12.463
82719SOL    HW249997  11.627   5.685  12.546
82720SOL     OW49998   8.442  14.440  14.285
82720SOL    HW149999   8.528  14.480  14.297
82720SOL    HW250000   8.382  14.497  14.333
82721SOL     OW50001  11.888   0.396   2.215
82721SOL    HW150002  11.861   0.358   2.299
82721SOL    HW250003  11.929   0.479   2.239
82722SOL     OW50004   1.775   8.489   3.013
82722SOL    HW150005   1.766   8.412   3.070
82722SOL    HW250006   1.799   8.560   3.072
82723SOL     OW50007  13.579   2.418   3.045
82723SOL    HW150008  13.656   2.449   2.999
82723SOL    HW250009  13.505   2.455   2.996
82724SOL     OW50010  14.454   1.460   3.830
82724SOL    HW150011  14.480   1.514   3.904
82724SOL    HW250012  14.425   1.522   3.763
82725SOL     OW50013   8.785   6.627   9.485
82725SOL    HW150014   8.815   6.562   9.422
82725SOL    HW250015   8.713   6.672   9.440
82726SOL     OW50016   2.339   8.094   1.686
82726SOL    HW150017   2.317   8.004   1.661
82726SOL    HW250018   2.333   8.095   1.782
82727SOL     OW50019   6.294   8.008   8.909
82727SOL    HW150020   6.229   7.995   8.977
82727SOL    HW250021   6.283   7.934   8.850
82728SOL     OW50022   7.470   5.514   3.871
82728SOL    HW150023   7.538   5.490   3.933
82728SOL    HW250024   7.457   5.436   3.817
82729SOL     OW50025   9.523   1.097  13.991
82729SOL    HW150026   9.503   1.026  14.052
82729SOL    HW250027   9.611   1.125  14.015
82730SOL     OW50028  14.688  14.312   5.041
82730SOL    HW150029  14.634  14.383   5.006
82730SOL    HW250030  14.696  14.332   5.134
82731SOL     OW50031   0.269  10.628  14.827
82731SOL    HW150032   0.352  10.591  14.856
82731SOL    HW250033   0.205  10.558  14.838
82732SOL     OW50034   2.935   0.606   7.215
82732SOL    HW150035   2.869   0.583   7.150
82732SOL    HW250036   2.891   0.593   7.299
82733SOL     OW50037  10.096   6.190   0.274
82733SOL    HW150038  10.006   6.157   0.277
82733SOL    HW250039  10.126   6.188   0.364
82734SOL     OW50040   9.289   4.436  10.003
82734SOL    HW150041   9.237   4.388   9.938
82734SOL    HW250042   9.241   4.517  10.018
82735SOL     OW50043   9.337   6.900   8.892
82735SOL    HW150044   9.360   6.892   8.985
82735SOL    HW250045   9.258   6.955   8.892
82736SOL     OW50046  10.942  10.452   6.721
82736SOL    HW150047  10.916  10.494   6.803
82736SOL    HW250048  10.859  10.435   6.676
82737SOL     OW50049   4.421   0.274   0.507
82737SOL    HW150050   4.490   0.208   0.516
82737SOL    HW250051   4.373   0.269   0.590
82738SOL     OW50052  12.853   1.732   9.363
82738SOL    HW150053  12.861   1.682   9.282
82738SOL    HW250054  12.916   1.690   9.422
82739SOL     OW50055  10.890  12.050   9.642
82739SOL    HW150056  10.940  12.019   9.718
82739SOL    HW250057  10.916  11.992   9.571
82740SOL     OW50058   9.870  11.047  11.996
82740SOL    HW150059   9.867  11.078  12.087
82740SOL    HW250060   9.876  10.952  12.004
82741SOL     OW50061   6.326  13.204  10.162
82741SOL    HW150062   6.255  13.200  10.225
82741SOL    HW250063   6.389  13.267  10.199
82742SOL     OW50064  13.211  10.784   7.806
82742SOL    HW150065  13.166  10.718   7.859
82742SOL    HW250066  13.265  10.831   7.868
82743SOL     OW50067  11.569   0.146   2.201
82743SOL    HW150068  11.491   0.127   2.149
82743SOL    HW250069  11.597   0.061   2.234
82744SOL     OW50070  10.401   0.860   2.319
82744SOL    HW150071  10.406   0.877   2.413
82744SOL    HW250072  10.309   0.838   2.303
82745SOL     OW50073   8.273   2.614   6.215
82745SOL    HW150074   8.285   2.598   6.309
82745SOL    HW250075   8.361   2.623   6.180
82746SOL     OW50076  12.445   3.269   8.949
82746SOL    HW150077  12.371   3.275   9.010
82746SOL    HW250078  12.516   3.314   8.993
82747SOL     OW50079  12.647   7.653   3.403
82747SOL    HW150080  12.685   7.709   3.335
82747SOL    HW250081  12.722   7.610   3.444
82748SOL     OW50082  13.271  13.148   0.066
82748SOL    HW150083  13.279  13.053   0.055
82748SOL    HW250084  13.326  13.185  14.879
82749SOL     OW50085  13.170  14.845   8.841
82749SOL    HW150086  13.156  14.861   8.748
82749SOL    HW250087  13.236   0.027   8.867
82750SOL     OW50088   1.027  12.907   9.310
82750SOL    HW150089   1.076  12.896   9.228
82750SOL    HW250090   0.992  12.820   9.328
82751SOL     OW50091   1.415  12.123   9.054
82751SOL    HW150092   1.459  12.040   9.039
82751SOL    HW250093   1.365  12.109   9.135
82752SOL     OW50094   4.091   7.189  11.348
82752SOL    HW150095   4.131   7.112  11.310
82752SOL    HW250096   4.026   7.217  11.284
82753SOL     OW50097   9.782  13.100  11.442
82753SOL    HW150098   9.730  13.140  11.513
82753SOL    HW250099   9.725  13.033  11.406
82754SOL     OW50100  13.944   9.499   5.667
82754SOL    HW150101  13.961   9.584   5.708
82754SOL    HW250102  14.022   9.483   5.613
82755SOL     OW50103   6.780  10.739   5.424
82755SOL    HW150104   6.831  10.712   5.347
82755SOL    HW250105   6.689  10.738   5.395
82756SOL     OW50106   8.150   8.241   6.343
82756SOL    HW150107   8.119   8.151   6.353
82756SOL    HW250108   8.184   8.245   6.254
82757SOL     OW50109   2.853  10.916   9.380
82757SOL    HW150110   2.929  10.956   9.337
82757SOL    HW250111   2.844  10.830   9.337
82758SOL     OW50112   9.636   5.177   6.181
82758SOL    HW150113   9.596   5.260   6.209
82758SOL    HW250114   9.725   5.180   6.216
82759SOL     OW50115  10.813   5.605  11.499
82759SOL    HW150116  10.908   5.615  11.509
82759SOL    HW250117  10.776   5.669  11.560
82760SOL     OW50118  10.788   1.565   7.507
82760SOL    HW150119  10.713   1.515   7.540
82760SOL    HW250120  10.834   1.503   7.450
82761SOL     OW50121  13.465   7.159   9.166
82761SOL    HW150122  13.491   7.107   9.090
82761SOL    HW250123  13.391   7.111   9.203
82762SOL     OW50124   0.635  10.434   0.668
82762SOL    HW150125   0.700  10.428   0.739
82762SOL    HW250126   0.591  10.349   0.669
82763SOL     OW50127  13.797  12.732   3.003
82763SOL    HW150128  13.764  12.808   3.051
82763SOL    HW250129  13.809  12.665   3.070
82764SOL     OW50130   9.251   3.002   9.064
82764SOL    HW150131   9.225   3.066   8.998
82764SOL    HW250132   9.263   3.053   9.144
82765SOL     OW50133  14.156   7.681   3.574
82765SOL    HW150134  14.155   7.587   3.591
82765SOL    HW250135  14.177   7.721   3.659
82766SOL     OW50136  13.203   5.148  14.241
82766SOL    HW150137  13.268   5.186  14.299
82766SOL    HW250138  13.138   5.217  14.229
82767SOL     OW50139  13.403   0.141  14.474
82767SOL    HW150140  13.394   0.098  14.389
82767SOL    HW250141  13.364   0.227  14.462
82768SOL     OW50142   6.113   3.085   9.409
82768SOL    HW150143   6.082   3.075   9.319
82768SOL    HW250144   6.167   3.008   9.425
82769SOL     OW50145   5.398  14.087  12.490
82769SOL    HW150146   5.391  14.064  12.583
82769SOL    HW250147   5.321  14.140  12.473
82770SOL     OW50148   1.177  14.251   0.168
82770SOL    HW150149   1.119  14.193   0.217
82770SOL    HW250150   1.161  14.338   0.205
82771SOL     OW50151  13.807   7.594   7.805
82771SOL    HW150152  13.778   7.663   7.745
82771SOL    HW250153  13.810   7.637   7.891
82772SOL     OW50154   9.568  13.449   1.472
82772SOL    HW150155   9.600  13.372   1.518
82772SOL    HW250156   9.609  13.523   1.518
82773SOL     OW50157  14.718   3.418   9.294
82773SOL    HW150158  14.715   3.388   9.203
82773SOL    HW250159  14.787   3.366   9.334
82774SOL     OW50160   3.832   8.771  14.123
82774SOL    HW150161   3.875   8.774  14.038
82774SOL    HW250162   3.775   8.849  14.122
82775SOL     OW50163   2.606   4.230   2.310
82775SOL    HW150164   2.513   4.252   2.315
82775SOL    HW250165   2.622   4.175   2.386
82776SOL     OW50166  11.801   9.110   9.694
82776SOL    HW150167  11.866   9.074   9.634
82776SOL    HW250168  11.845   9.110   9.779
82777SOL     OW50169   7.560   1.243  12.220
82777SOL    HW150170   7.477   1.290  12.228
82777SOL    HW250171   7.584   1.221  12.310
82778SOL     OW50172   2.484  12.721   4.978
82778SOL    HW150173   2.579  12.724   4.991
82778SOL    HW250174   2.447  12.747   5.062
82779SOL     OW50175  11.723   8.778   8.218
82779SOL    HW150176  11.707   8.762   8.311
82779SOL    HW250177  11.757   8.695   8.184
82780SOL     OW50178   3.757   8.947   5.924
82780SOL    HW150179   3.679   8.999   5.905
82780SOL    HW250180   3.811   8.956   5.845
82781SOL     OW50181   4.852   6.762   2.888
82781SOL    HW150182   4.923   6.722   2.939
82781SOL    HW250183   4.862   6.724   2.801
82782SOL     OW50184  13.068   7.815  14.269
82782SOL    HW150185  13.126   7.892  14.275
82782SOL    HW250186  13.002   7.830  14.337
82783SOL     OW50187  10.788  10.560   4.585
82783SOL    HW150188  10.767  10.501   4.657
82783SOL    HW250189  10.715  10.550   4.524
82784SOL     OW50190   6.407   7.720   7.088
82784SOL    HW150191   6.489   7.734   7.135
82784SOL    HW250192   6.358   7.658   7.142
82785SOL     OW50193   7.016  13.069  13.978
82785SOL    HW150194   6.943  13.059  13.917
82785SOL    HW250195   7.093  13.071  13.923
82786SOL     OW50196  13.407   6.307  10.172
82786SOL    HW150197  13.364   6.283  10.254
82786SOL    HW250198  13.379   6.397  10.157
82787SOL     OW50199   3.578  10.728   6.696
82787SOL    HW150200   3.619  10.765   6.774
82787SOL    HW250201   3.521  10.798   6.665
82788SOL     OW50202   5.513  13.548   7.647
82788SOL    HW150203   5.539  13.457   7.629
82788SOL    HW250204   5.453  13.570   7.576
82789SOL     OW50205  13.317   2.286  12.613
82789SOL    HW150206  13.227   2.286  12.582
82789SOL    HW250207  13.310   2.287  12.709
82790SOL     OW50208   1.949   1.707   0.153
82790SOL    HW150209   2.017   1.691   0.219
82790SOL    HW250210   1.881   1.642   0.173
82791SOL     OW50211  13.205  10.598   9.277
82791SOL    HW150212  13.249  10.531   9.329
82791SOL    HW250213  13.211  10.677   9.329
82792SOL     OW50214   4.220   0.781  10.388
82792SOL    HW150215   4.296   0.726  10.368
82792SOL    HW250216   4.227   0.855  10.328
82793SOL     OW50217   3.375  14.502  13.433
82793SOL    HW150218   3.309  14.571  13.435
82793SOL    HW250219   3.375  14.472  13.342
82794SOL     OW50220  14.449   6.230  13.858
82794SOL    HW150221  14.389   6.268  13.921
82794SOL    HW250222  14.433   6.136  13.862
82795SOL     OW50223  11.810  12.336  11.472
82795SOL    HW150224  11.785  12.337  11.564
82795SOL    HW250225  11.785  12.248  11.441
82796SOL     OW50226  11.585   5.611   7.480
82796SOL    HW150227  11.629   5.564   7.551
82796SOL    HW250228  11.621   5.699   7.483
82797SOL     OW50229  10.400  14.057   9.215
82797SOL    HW150230  10.425  14.145   9.243
82797SOL    HW250231  10.438  14.000   9.282
82798SOL     OW50232   4.410  10.228   2.889
82798SOL    HW150233   4.380  10.240   2.798
82798SOL    HW250234   4.405  10.134   2.904
82799SOL     OW50235   2.826  11.796  10.800
82799SOL    HW150236   2.837  11.838  10.885
82799SOL    HW250237   2.734  11.807  10.779
82800SOL     OW50238  14.631   7.589   5.391
82800SOL    HW150239  14.613   7.679   5.418
82800SOL    HW250240  14.682   7.598   5.310
82801SOL     OW50241   4.090   7.634   3.880
82801SOL    HW150242   4.075   7.631   3.975
82801SOL    HW250243   4.173   7.588   3.868
82802SOL     OW50244   0.756   5.541   4.928
82802SOL    HW150245   0.835   5.595   4.919
82802SOL    HW250246   0.763   5.477   4.857
82803SOL     OW50247   6.611  13.924   4.697
82803SOL    HW150248   6.569  13.857   4.752
82803SOL    HW250249   6.704  13.916   4.717
82804SOL     OW50250   1.764   5.629   5.923
82804SOL    HW150251   1.854   5.646   5.950
82804SOL    HW250252   1.756   5.671   5.837
82805SOL     OW50253  13.561  12.556   6.733
82805SOL    HW150254  13.644  12.565   6.687
82805SOL    HW250255  13.555  12.464   6.756
82806SOL     OW50256   9.388  13.392   8.389
82806SOL    HW150257   9.307  13.441   8.402
82806SOL    HW250258   9.450  13.457   8.354
82807SOL     OW50259  12.203   9.738  14.421
82807SOL    HW150260  12.204   9.646  14.393
82807SOL    HW250261  12.291   9.769  14.401
82808SOL     OW50262   3.517   1.847   1.579
82808SOL    HW150263   3.519   1.819   1.670
82808SOL    HW250264   3.486   1.770   1.531
82809SOL     OW50265   0.108   9.403   0.338
82809SOL    HW150266   0.137   9.470   0.401
82809SOL    HW250267   0.079   9.454   0.262
82810SOL     OW50268   0.355   3.677   7.228
82810SOL    HW150269   0.390   3.759   7.194
82810SOL    HW250270   0.379   3.676   7.320
82811SOL     OW50271   7.033   0.740   9.063
82811SOL    HW150272   6.996   0.702   9.142
82811SOL    HW250273   7.117   0.695   9.051
82812SOL     OW50274   8.862   1.014   2.429
82812SOL    HW150275   8.844   0.958   2.504
82812SOL    HW250276   8.930   0.967   2.380
82813SOL     OW50277   3.130  10.764   9.026
82813SOL    HW150278   3.214  10.755   8.980
82813SOL    HW250279   3.130  10.693   9.090
82814SOL     OW50280  13.771  10.503  12.698
82814SOL    HW150281  13.741  10.593  12.687
82814SOL    HW250282  13.836  10.508  12.769
82815SOL     OW50283  11.799  11.835  10.176
82815SOL    HW150284  11.736  11.905  10.192
82815SOL    HW250285  11.804  11.788  10.259
82816SOL     OW50286   2.420  10.888   1.646
82816SOL    HW150287   2.418  10.806   1.695
82816SOL    HW250288   2.510  10.896   1.615
82817SOL     OW50289   8.093  14.836   5.322
82817SOL    HW150290   8.183  14.850   5.351
82817SOL    HW250291   8.086   0.007   5.242
82818SOL     OW50292   1.093   2.822  14.726
82818SOL    HW150293   1.175   2.805  14.772
82818SOL    HW250294   1.026   2.820  14.795
82819SOL     OW50295  13.792  13.420   8.113
82819SOL    HW150296  13.696  13.426   8.114
82819SOL    HW250297  13.820  13.495   8.060
82820SOL     OW50298  13.747   9.857  10.552
82820SOL    HW150299  13.771   9.765  10.553
82820SOL    HW250300  13.830   9.904  10.548
82821SOL     OW50301   6.586   1.081  14.802
82821SOL    HW150302   6.494   1.102  14.818
82821SOL    HW250303   6.584   0.999  14.753
82822SOL     OW50304  11.221  12.636  10.433
82822SOL    HW150305  11.259  12.590  10.508
82822SOL    HW250306  11.295  12.650  10.374
82823SOL     OW50307  11.757   1.475   0.791
82823SOL    HW150308  11.668   1.456   0.819
82823SOL    HW250309  11.808   1.401   0.822
82824SOL     OW50310  13.968   1.124  11.818
82824SOL    HW150311  14.050   1.077  11.829
82824SOL    HW250312  13.987   1.193  11.756
82825SOL     OW50313   2.669  10.135  13.135
82825SOL    HW150314   2.753  10.181  13.138
82825SOL    HW250315   2.686  10.057  13.083
82826SOL     OW50316  10.338   6.547   4.731
82826SOL    HW150317  10.251   6.577   4.707
82826SOL    HW250318  10.343   6.560   4.826
82827SOL     OW50319   3.758   3.426   7.516
82827SOL    HW150320   3.772   3.481   7.439
82827SOL    HW250321   3.695   3.360   7.487
82828SOL     OW50322   8.778  14.841   9.320
82828SOL    HW150323   8.685  14.821   9.308
82828SOL    HW250324   8.821  14.756   9.320
82829SOL     OW50325   0.053  11.881   5.992
82829SOL    HW150326  14.863  11.838   5.945
82829SOL    HW250327   0.123  11.815   5.992
82830SOL     OW50328   2.771   1.777   3.382
82830SOL    HW150329   2.719   1.857   3.373
82830SOL    HW250330   2.719   1.721   3.440
82831SOL     OW50331   3.495  10.395  10.763
82831SOL    HW150332   3.402  10.374  10.755
82831SOL    HW250333   3.497  10.471  10.822
82832SOL     OW50334   2.392   4.758  13.207
82832SOL    HW150335   2.437   4.811  13.141
82832SOL    HW250336   2.392   4.813  13.286
82833SOL     OW50337  14.527   8.478   8.854
82833SOL    HW150338  14.434   8.477   8.876
82833SOL    HW250339  14.563   8.401   8.898
82834SOL     OW50340   7.292   0.282  12.432
82834SOL    HW150341   7.365   0.268  12.371
82834SOL    HW250342   7.221   0.315  12.377
82835SOL     OW50343  14.263  14.608   7.809
82835SOL    HW150344  14.321  14.561   7.748
82835SOL    HW250345  14.193  14.545   7.827
82836SOL     OW50346  14.731   9.094   4.209
82836SOL    HW150347  14.777   9.058   4.284
82836SOL    HW250348  14.696   9.178   4.239
82837SOL     OW50349   7.736   4.912   5.721
82837SOL    HW150350   7.644   4.899   5.746
82837SOL    HW250351   7.782   4.917   5.805
82838SOL     OW50352   2.873   7.275   5.955
82838SOL    HW150353   2.965   7.266   5.980
82838SOL    HW250354   2.827   7.287   6.038
82839SOL     OW50355  10.812   9.494   9.451
82839SOL    HW150356  10.856   9.410   9.440
82839SOL    HW250357  10.852   9.534   9.528
82840SOL     OW50358   1.127   0.898   0.668
82840SOL    HW150359   1.060   0.852   0.719
82840SOL    HW250360   1.199   0.836   0.660
82841SOL     OW50361   2.934  10.904   8.859
82841SOL    HW150362   2.973  10.867   8.938
82841SOL    HW250363   2.953  10.839   8.791
82842SOL     OW50364   1.438   1.084  10.507
82842SOL    HW150365   1.530   1.079  10.533
82842SOL    HW250366   1.440   1.092  10.412
82843SOL     OW50367   9.746   1.309   5.848
82843SOL    HW150368   9.775   1.293   5.938
82843SOL    HW250369   9.762   1.227   5.803
82844SOL     OW50370   2.451  10.762   5.514
82844SOL    HW150371   2.437  10.834   5.452
82844SOL    HW250372   2.363  10.732   5.536
82845SOL     OW50373   1.607  10.707   6.395
82845SOL    HW150374   1.550  10.756   6.335
82845SOL    HW250375   1.548  10.644   6.437
82846SOL     OW50376  12.195  11.917   3.078
82846SOL    HW150377  12.213  11.897   3.169
82846SOL    HW250378  12.105  11.888   3.064
82847SOL     OW50379   3.701   8.751   7.060
82847SOL    HW150380   3.793   8.731   7.042
82847SOL    HW250381   3.695   8.746   7.156
82848SOL     OW50382   3.815   5.522   3.883
82848SOL    HW150383   3.825   5.539   3.977
82848SOL    HW250384   3.902   5.494   3.854
82849SOL     OW50385   8.661   5.266  10.790
82849SOL    HW150386   8.576   5.292  10.755
82849SOL    HW250387   8.648   5.175  10.817
82850SOL     OW50388  11.155  13.854  13.848
82850SOL    HW150389  11.210  13.787  13.808
82850SOL    HW250390  11.071  13.811  13.862
82851SOL     OW50391  11.320   2.655   8.733
82851SOL    HW150392  11.309   2.701   8.650
82851SOL    HW250393  11.302   2.721   8.800
82852SOL     OW50394   6.837   6.923   0.233
82852SOL    HW150395   6.882   6.969   0.163
82852SOL    HW250396   6.753   6.968   0.242
82853SOL     OW50397   6.484   8.073   0.392
82853SOL    HW150398   6.541   8.103   0.321
82853SOL    HW250399   6.396   8.076   0.356
82854SOL     OW50400  13.120  12.887  13.423
82854SOL    HW150401  13.191  12.897  13.486
82854SOL    HW250402  13.089  12.797  13.436
82855SOL     OW50403  13.788  10.560   0.354
82855SOL    HW150404  13.738  10.562   0.435
82855SOL    HW250405  13.792  10.652   0.326
82856SOL     OW50406  10.469  12.859  10.416
82856SOL    HW150407  10.514  12.790  10.366
82856SOL    HW250408  10.426  12.812  10.488
82857SOL     OW50409  12.555   9.426   9.790
82857SOL    HW150410  12.605   9.344   9.791
82857SOL    HW250411  12.580   9.468   9.708
82858SOL     OW50412   2.495   7.222   5.809
82858SOL    HW150413   2.491   7.222   5.714
82858SOL    HW250414   2.557   7.151   5.830
82859SOL     OW50415  11.651  10.119   2.028
82859SOL    HW150416  11.676  10.055   2.095
82859SOL    HW250417  11.580  10.169   2.068
82860SOL     OW50418   5.164   5.791  10.096
82860SOL    HW150419   5.136   5.824  10.011
82860SOL    HW250420   5.187   5.700  10.080
82861SOL     OW50421   5.136   2.992  10.505
82861SOL    HW150422   5.230   2.975  10.508
82861SOL    HW250423   5.121   3.022  10.416
82862SOL     OW50424   9.479   9.963  14.230
82862SOL    HW150425   9.470   9.910  14.309
82862SOL    HW250426   9.394   9.955  14.186
82863SOL     OW50427  10.871  10.670   0.240
82863SOL    HW150428  10.860  10.744   0.181
82863SOL    HW250429  10.782  10.649   0.269
82864SOL     OW50430   1.905   4.404  11.254
82864SOL    HW150431   1.876   4.409  11.345
82864SOL    HW250432   1.940   4.316  11.244
82865SOL     OW50433   6.910   1.134   0.998
82865SOL    HW150434   6.980   1.172   0.945
82865SOL    HW250435   6.878   1.208   1.051
82866SOL     OW50436   2.846  13.496   6.604
82866SOL    HW150437   2.876  13.587   6.610
82866SOL    HW250438   2.859  13.460   6.691
82867SOL     OW50439   5.548   5.431  11.798
82867SOL    HW150440   5.571   5.465  11.712
82867SOL    HW250441   5.455   5.448  11.808
82868SOL     OW50442  14.662   9.386   0.412
82868SOL    HW150443  14.680   9.414   0.322
82868SOL    HW250444  14.567   9.386   0.419
82869SOL     OW50445  11.757   0.135   6.581
82869SOL    HW150446  11.828   0.168   6.635
82869SOL    HW250447  11.781   0.044   6.561
82870SOL     OW50448  11.988  12.020   5.728
82870SOL    HW150449  12.012  12.059   5.643
82870SOL    HW250450  11.919  11.958   5.707
82871SOL     OW50451   1.679   2.850   6.928
82871SOL    HW150452   1.724   2.931   6.903
82871SOL    HW250453   1.596   2.853   6.882
82872SOL     OW50454   1.899   1.121   1.401
82872SOL    HW150455   1.845   1.082   1.470
82872SOL    HW250456   1.893   1.058   1.328
82873SOL     OW50457  12.020  13.331   5.167
82873SOL    HW150458  12.062  13.248   5.143
82873SOL    HW250459  12.028  13.335   5.262
82874SOL     OW50460  10.300   5.584  13.492
82874SOL    HW150461  10.309   5.616  13.402
82874SOL    HW250462  10.378   5.616  13.536
82875SOL     OW50463  13.025   4.749   8.338
82875SOL    HW150464  13.045   4.798   8.418
82875SOL    HW250465  13.101   4.764   8.281
82876SOL     OW50466  10.640  14.366   3.694
82876SOL    HW150467  10.581  14.319   3.753
82876SOL    HW250468  10.586  14.434   3.655
82877SOL     OW50469  14.683   8.580   6.542
82877SOL    HW150470  14.667   8.614   6.630
82877SOL    HW250471  14.627   8.632   6.485
82878SOL     OW50472   7.046   1.155   4.097
82878SOL    HW150473   7.009   1.243   4.110
82878SOL    HW250474   7.111   1.167   4.028
82879SOL     OW50475  14.403   2.643   6.363
82879SOL    HW150476  14.421   2.684   6.448
82879SOL    HW250477  14.309   2.649   6.352
82880SOL     OW50478   0.077   7.158   7.646
82880SOL    HW150479   0.099   7.176   7.737
82880SOL    HW250480  14.873   7.200   7.633
82881SOL     OW50481  10.958   3.599   6.090
82881SOL    HW150482  10.897   3.533   6.122
82881SOL    HW250483  10.958   3.668   6.156
82882SOL     OW50484   7.957  13.974   0.564
82882SOL    HW150485   8.037  13.930   0.535
82882SOL    HW250486   7.974  13.998   0.655
82883SOL     OW50487  10.447   1.655   2.548
82883SOL    HW150488  10.452   1.633   2.455
82883SOL    HW250489  10.360   1.625   2.575
82884SOL     OW50490   2.966  11.061   2.484
82884SOL    HW150491   2.945  11.127   2.549
82884SOL    HW250492   3.050  11.089   2.447
82885SOL     OW50493   2.077   2.274  13.845
82885SOL    HW150494   2.146   2.301  13.784
82885SOL    HW250495   2.068   2.347  13.905
82886SOL     OW50496  11.295   8.382  14.078
82886SOL    HW150497  11.371   8.370  14.135
82886SOL    HW250498  11.224   8.405  14.139
82887SOL     OW50499   8.574   0.851   4.779
82887SOL    HW150500   8.656   0.874   4.823
82887SOL    HW250501   8.527   0.798   4.843
82888SOL     OW50502   5.338   9.878   5.470
82888SOL    HW150503   5.269   9.851   5.409
82888SOL    HW250504   5.344   9.806   5.533
82889SOL     OW50505   3.169   7.380  12.099
82889SOL    HW150506   3.256   7.364  12.135
82889SOL    HW250507   3.115   7.310  12.134
82890SOL     OW50508   4.962   0.867  13.216
82890SOL    HW150509   5.024   0.836  13.151
82890SOL    HW250510   5.013   0.873  13.297
82891SOL     OW50511  14.283  13.324   0.024
82891SOL    HW150512  14.276  13.280   0.108
82891SOL    HW250513  14.278  13.418   0.045
82892SOL     OW50514  10.370   6.274   3.300
82892SOL    HW150515  10.362   6.184   3.269
82892SOL    HW250516  10.394   6.264   3.393
82893SOL     OW50517  13.004   8.145   2.257
82893SOL    HW150518  13.054   8.074   2.298
82893SOL    HW250519  13.042   8.225   2.294
82894SOL     OW50520  13.130   0.488   6.740
82894SOL    HW150521  13.064   0.425   6.711
82894SOL    HW250522  13.080   0.560   6.778
82895SOL     OW50523   6.180  13.480   7.675
82895SOL    HW150524   6.099  13.524   7.701
82895SOL    HW250525   6.233  13.548   7.635
82896SOL     OW50526   6.011   2.789  10.456
82896SOL    HW150527   5.921   2.761  10.468
82896SOL    HW250528   6.063   2.728  10.509
82897SOL     OW50529   3.591   9.755   7.333
82897SOL    HW150530   3.687   9.751   7.336
82897SOL    HW250531   3.562   9.675   7.377
82898SOL     OW50532  12.833   3.433  14.865
82898SOL    HW150533  12.809   3.448  14.773
82898SOL    HW250534  12.922   3.466  14.873
82899SOL     OW50535   6.898   2.374  14.441
82899SOL    HW150536   6.957   2.346  14.510
82899SOL    HW250537   6.906   2.469  14.438
82900SOL     OW50538   6.723   3.919   7.135
82900SOL    HW150539   6.702   3.832   7.102
82900SOL    HW250540   6.641   3.953   7.170
82901SOL     OW50541   1.728   4.565   7.575
82901SOL    HW150542   1.682   4.631   7.628
82901SOL    HW250543   1.808   4.608   7.547
82902SOL     OW50544   3.030  11.231   4.489
82902SOL    HW150545   3.003  11.241   4.398
82902SOL    HW250546   2.983  11.153   4.519
82903SOL     OW50547  10.106   6.311  11.608
82903SOL    HW150548  10.154   6.318  11.690
82903SOL    HW250549  10.101   6.217  11.591
82904SOL     OW50550   8.599   4.502   9.458
82904SOL    HW150551   8.611   4.585   9.505
82904SOL    HW250552   8.687   4.464   9.454
82905SOL     OW50553   9.950   3.554   4.110
82905SOL    HW150554   9.880   3.616   4.128
82905SOL    HW250555   9.916   3.470   4.139
82906SOL     OW50556  13.865   7.910   0.101
82906SOL    HW150557  13.841   7.987   0.050
82906SOL    HW250558  13.890   7.845   0.036
82907SOL     OW50559  14.672   9.398  11.854
82907SOL    HW150560  14.667   9.403  11.758
82907SOL    HW250561  14.749   9.451  11.876
82908SOL     OW50562   9.359   5.729   8.847
82908SOL    HW150563   9.300   5.679   8.904
82908SOL    HW250564   9.432   5.753   8.904
82909SOL     OW50565   5.150   0.515  13.074
82909SOL    HW150566   5.163   0.532  13.167
82909SOL    HW250567   5.139   0.420  13.068
82910SOL     OW50568   3.279   0.432  10.375
82910SOL    HW150569   3.328   0.509  10.404
82910SOL    HW250570   3.346   0.368  10.353
82911SOL     OW50571   8.409  11.715   4.517
82911SOL    HW150572   8.350  11.790   4.523
82911SOL    HW250573   8.410  11.693   4.424
82912SOL     OW50574   8.119   7.923   1.769
82912SOL    HW150575   8.030   7.948   1.792
82912SOL    HW250576   8.140   7.852   1.829
82913SOL     OW50577  10.284  11.477   0.564
82913SOL    HW150578  10.346  11.502   0.632
82913SOL    HW250579  10.300  11.383   0.551
82914SOL     OW50580  14.836   4.433   8.640
82914SOL    HW150581  14.756   4.460   8.684
82914SOL    HW250582  14.819   4.345   8.609
82915SOL     OW50583   2.309   8.896   7.097
82915SOL    HW150584   2.389   8.949   7.093
82915SOL    HW250585   2.252   8.933   7.030
82916SOL     OW50586   6.972   5.060  14.873
82916SOL    HW150587   6.888   5.043  14.830
82916SOL    HW250588   6.993   4.978   0.036
82917SOL     OW50589  11.632   8.994   1.704
82917SOL    HW150590  11.641   9.024   1.613
82917SOL    HW250591  11.548   8.948   1.705
82918SOL     OW50592  11.374   1.662   9.695
82918SOL    HW150593  11.324   1.666   9.777
82918SOL    HW250594  11.392   1.753   9.673
82919SOL     OW50595   3.665   8.984   3.430
82919SOL    HW150596   3.687   8.955   3.342
82919SOL    HW250597   3.662   9.080   3.424
82920SOL     OW50598   7.459   5.479  12.256
82920SOL    HW150599   7.479   5.441  12.170
82920SOL    HW250600   7.530   5.449  12.313
82921SOL     OW50601  13.648   9.325   9.243
82921SOL    HW150602  13.573   9.297   9.295
82921SOL    HW250603  13.621   9.408   9.204
82922SOL     OW50604   3.528   8.749   9.298
82922SOL    HW150605   3.608   8.795   9.325
82922SOL    HW250606   3.499   8.703   9.377
82923SOL     OW50607  11.437   6.735  11.859
82923SOL    HW150608  11.461   6.648  11.892
82923SOL    HW250609  11.515   6.764  11.811
82924SOL     OW50610   1.274  12.409   9.781
82924SOL    HW150611   1.294  12.318   9.759
82924SOL    HW250612   1.319  12.461   9.714
82925SOL     OW50613  14.515   8.534  14.670
82925SOL    HW150614  14.556   8.455  14.705
82925SOL    HW250615  14.421   8.517  14.675
82926SOL     OW50616   8.355   2.316   5.727
82926SOL    HW150617   8.299   2.245   5.696
82926SOL    HW250618   8.388   2.286   5.812
82927SOL     OW50619   1.586  14.168   4.404
82927SOL    HW150620   1.638  14.114   4.464
82927SOL    HW250621   1.503  14.122   4.395
82928SOL     OW50622   7.992   5.206   9.495
82928SOL    HW150623   7.929   5.134   9.503
82928SOL    HW250624   7.970   5.246   9.411
82929SOL     OW50625   5.360  10.198   7.824
82929SOL    HW150626   5.386  10.186   7.915
82929SOL    HW250627   5.354  10.109   7.788
82930SOL     OW50628   3.139   0.483   5.001
82930SOL    HW150629   3.164   0.512   5.089
82930SOL    HW250630   3.190   0.538   4.942
82931SOL     OW50631   1.758   6.092   5.132
82931SOL    HW150632   1.848   6.068   5.153
82931SOL    HW250633   1.739   6.045   5.051
82932SOL     OW50634  11.049   9.431  14.353
82932SOL    HW150635  11.081   9.365  14.414
82932SOL    HW250636  10.989   9.485  14.404
82933SOL     OW50637   1.585   8.371  10.773
82933SOL    HW150638   1.520   8.432  10.738
82933SOL    HW250639   1.655   8.427  10.807
82934SOL     OW50640  11.481   4.360   4.460
82934SOL    HW150641  11.486   4.272   4.497
82934SOL    HW250642  11.394   4.391   4.484
82935SOL     OW50643   9.137   1.675   9.146
82935SOL    HW150644   9.044   1.654   9.153
82935SOL    HW250645   9.142   1.745   9.082
82936SOL     OW50646  11.126   0.309   6.968
82936SOL    HW150647  11.161   0.285   6.883
82936SOL    HW250648  11.170   0.251   7.030
82937SOL     OW50649  12.401   6.911   5.294
82937SOL    HW150650  12.451   6.853   5.351
82937SOL    HW250651  12.375   6.855   5.220
82938SOL     OW50652  11.912   5.875  10.046
82938SOL    HW150653  11.826   5.884  10.086
82938SOL    HW250654  11.900   5.908   9.956
82939SOL     OW50655  11.983  10.093  11.866
82939SOL    HW150656  11.959  10.120  11.778
82939SOL    HW250657  11.900  10.074  11.909
82940SOL     OW50658   2.890   5.275   2.135
82940SOL    HW150659   2.984   5.280   2.117
82940SOL    HW250660   2.857   5.362   2.112
82941SOL     OW50661   6.624   3.413  13.711
82941SOL    HW150662   6.590   3.347  13.772
82941SOL    HW250663   6.683   3.467  13.764
82942SOL     OW50664   1.640   4.524   2.903
82942SOL    HW150665   1.697   4.483   2.968
82942SOL    HW250666   1.552   4.517   2.939
82943SOL     OW50667   5.246   3.851   9.643
82943SOL    HW150668   5.193   3.877   9.718
82943SOL    HW250669   5.214   3.906   9.571
82944SOL     OW50670   1.641   2.700   8.649
82944SOL    HW150671   1.683   2.768   8.595
82944SOL    HW250672   1.579   2.749   8.704
82945SOL     OW50673   1.885   8.022  14.498
82945SOL    HW150674   1.925   7.936  14.485
82945SOL    HW250675   1.898   8.068  14.415
82946SOL     OW50676   4.183   4.178  13.932
82946SOL    HW150677   4.210   4.091  13.902
82946SOL    HW250678   4.156   4.223  13.852
82947SOL     OW50679   4.420   8.934   3.295
82947SOL    HW150680   4.329   8.930   3.265
82947SOL    HW250681   4.457   9.010   3.250
82948SOL     OW50682  14.323  14.508   2.961
82948SOL    HW150683  14.343  14.600   2.944
82948SOL    HW250684  14.228  14.501   2.948
82949SOL     OW50685   7.003   2.464   7.102
82949SOL    HW150686   7.079   2.447   7.159
82949SOL    HW250687   7.032   2.535   7.045
82950SOL     OW50688   3.835   0.489   9.434
82950SOL    HW150689   3.771   0.477   9.504
82950SOL    HW250690   3.893   0.559   9.466
82951SOL     OW50691  10.811   8.563  13.838
82951SOL    HW150692  10.718   8.583  13.828
82951SOL    HW250693  10.853   8.649  13.846
82952SOL     OW50694   4.622   0.899   0.416
82952SOL    HW150695   4.596   0.991   0.404
82952SOL    HW250696   4.663   0.896   0.503
82953SOL     OW50697   4.429   6.657   5.931
82953SOL    HW150698   4.451   6.698   6.015
82953SOL    HW250699   4.351   6.605   5.949
82954SOL     OW50700   5.184   9.855   4.139
82954SOL    HW150701   5.142   9.912   4.075
82954SOL    HW250702   5.161   9.766   4.112
82955SOL     OW50703  13.022  10.441  13.225
82955SOL    HW150704  13.029  10.487  13.308
82955SOL    HW250705  12.955  10.489  13.177
82956SOL     OW50706   9.897   5.024  14.008
82956SOL    HW150707   9.861   5.063  13.928
82956SOL    HW250708   9.821   5.010  14.065
82957SOL     OW50709   2.828  10.124   3.937
82957SOL    HW150710   2.823  10.213   3.901
82957SOL    HW250711   2.738  10.105   3.964
82958SOL     OW50712  13.651  10.113   9.159
82958SOL    HW150713  13.678  10.195   9.200
82958SOL    HW250714  13.583  10.079   9.216
82959SOL     OW50715  11.197   8.029   3.301
82959SOL    HW150716  11.134   7.957   3.296
82959SOL    HW250717  11.263   8.008   3.235
82960SOL     OW50718   7.552  13.431   2.819
82960SOL    HW150719   7.494  13.411   2.893
82960SOL    HW250720   7.520  13.375   2.748
82961SOL     OW50721   1.095   2.901   4.448
82961SOL    HW150722   1.068   2.809   4.445
82961SOL    HW250723   1.171   2.902   4.507
82962SOL     OW50724   3.609   8.345   4.232
82962SOL    HW150725   3.598   8.323   4.324
82962SOL    HW250726   3.565   8.274   4.185
82963SOL     OW50727  14.634   7.770   3.417
82963SOL    HW150728  14.555   7.824   3.428
82963SOL    HW250729  14.659   7.783   3.325
82964SOL     OW50730   8.546   9.694  12.478
82964SOL    HW150731   8.642   9.691  12.486
82964SOL    HW250732   8.515   9.670  12.566
82965SOL     OW50733   6.337  12.588   4.761
82965SOL    HW150734   6.291  12.651   4.817
82965SOL    HW250735   6.284  12.509   4.767
82966SOL     OW50736   6.753  11.452  14.182
82966SOL    HW150737   6.713  11.407  14.257
82966SOL    HW250738   6.742  11.391  14.109
82967SOL     OW50739  12.407   3.243  10.345
82967SOL    HW150740  12.496   3.213  10.331
82967SOL    HW250741  12.376   3.196  10.422
82968SOL     OW50742  13.666  11.219   5.119
82968SOL    HW150743  13.646  11.234   5.212
82968SOL    HW250744  13.746  11.268   5.104
82969SOL     OW50745   8.483   6.006   7.923
82969SOL    HW150746   8.482   5.994   7.828
82969SOL    HW250747   8.407   6.061   7.941
82970SOL     OW50748   0.603   2.610   0.844
82970SOL    HW150749   0.578   2.550   0.774
82970SOL    HW250750   0.680   2.656   0.809
82971SOL     OW50751   4.858  14.379   2.062
82971SOL    HW150752   4.812  14.420   2.135
82971SOL    HW250753   4.813  14.410   1.984
82972SOL     OW50754   5.393   9.772   1.517
82972SOL    HW150755   5.472   9.809   1.478
82972SOL    HW250756   5.344   9.738   1.442
82973SOL     OW50757   4.823   6.695   3.603
82973SOL    HW150758   4.892   6.748   3.561
82973SOL    HW250759   4.835   6.711   3.697
82974SOL     OW50760   2.372   4.410   9.177
82974SOL    HW150761   2.333   4.409   9.265
82974SOL    HW250762   2.317   4.470   9.127
82975SOL     OW50763   6.880   8.748  14.547
82975SOL    HW150764   6.786   8.731  14.541
82975SOL    HW250765   6.904   8.779  14.460
82976SOL     OW50766  14.675  14.009  10.232
82976SOL    HW150767  14.690  13.966  10.148
82976SOL    HW250768  14.660  13.937  10.293
82977SOL     OW50769  10.336   3.509   6.558
82977SOL    HW150770  10.376   3.565   6.491
82977SOL    HW250771  10.410   3.477   6.609
82978SOL     OW50772   0.966  11.470   4.867
82978SOL    HW150773   0.935  11.384   4.895
82978SOL    HW250774   1.052  11.479   4.909
82979SOL     OW50775   2.760   0.624   7.000
82979SOL    HW150776   2.676   0.589   6.971
82979SOL    HW250777   2.820   0.605   6.928
82980SOL     OW50778  13.006   3.159   5.297
82980SOL    HW150779  12.999   3.236   5.354
82980SOL    HW250780  12.985   3.086   5.355
82981SOL     OW50781  10.474   1.624   5.586
82981SOL    HW150782  10.532   1.700   5.580
82981SOL    HW250783  10.526   1.550   5.557
82982SOL     OW50784   1.591   9.543   5.388
82982SOL    HW150785   1.630   9.529   5.302
82982SOL    HW250786   1.505   9.583   5.369
82983SOL     OW50787   6.519  11.628  13.894
82983SOL    HW150788   6.557  11.658  13.977
82983SOL    HW250789   6.504  11.534  13.907
82984SOL     OW50790   0.852   2.332  11.972
82984SOL    HW150791   0.894   2.271  12.033
82984SOL    HW250792   0.789   2.380  12.025
82985SOL     OW50793  10.141  10.715  11.350
82985SOL    HW150794  10.144  10.805  11.382
82985SOL    HW250795  10.069  10.714  11.287
82986SOL     OW50796   0.768   6.695   9.451
82986SOL    HW150797   0.751   6.713   9.543
82986SOL    HW250798   0.715   6.618   9.431
82987SOL     OW50799  11.469   0.257   1.558
82987SOL    HW150800  11.385   0.303   1.562
82987SOL    HW250801  11.529   0.312   1.608
82988SOL     OW50802   3.263   1.584   1.885
82988SOL    HW150803   3.310   1.667   1.877
82988SOL    HW250804   3.213   1.577   1.804
82989SOL     OW50805   3.746  14.772   6.998
82989SOL    HW150806   3.819  14.743   7.052
82989SOL    HW250807   3.691  14.695   6.988
82990SOL     OW50808   8.074   7.340   5.563
82990SOL    HW150809   8.076   7.291   5.645
82990SOL    HW250810   8.111   7.426   5.584
82991SOL     OW50811  10.920   6.179   6.749
82991SOL    HW150812  10.911   6.126   6.828
82991SOL    HW250813  10.992   6.239   6.769
82992SOL     OW50814   6.499   2.652  14.503
82992SOL    HW150815   6.565   2.707  14.546
82992SOL    HW250816   6.550   2.591  14.449
82993SOL     OW50817  10.762   3.565  14.120
82993SOL    HW150818  10.691   3.619  14.085
82993SOL    HW250819  10.829   3.629  14.146
82994SOL     OW50820  10.687   1.172   0.563
82994SOL    HW150821  10.721   1.239   0.503
82994SOL    HW250822  10.654   1.222   0.638
82995SOL     OW50823   1.118  14.413  10.449
82995SOL    HW150824   1.077  14.448  10.529
82995SOL    HW250825   1.149  14.326  10.475
82996SOL     OW50826  11.707   1.242   1.916
82996SOL    HW150827  11.685   1.218   2.005
82996SOL    HW250828  11.636   1.207   1.863
82997SOL     OW50829   3.226   1.286   8.584
82997SOL    HW150830   3.217   1.244   8.498
82997SOL    HW250831   3.141   1.328   8.599
82998SOL     OW50832   5.528   5.752   6.484
82998SOL    HW150833   5.459   5.795   6.434
82998SOL    HW250834   5.496   5.752   6.574
82999SOL     OW50835   2.300  12.986   8.365
82999SOL    HW150836   2.353  13.055   8.324
82999SOL    HW250837   2.359  12.910   8.369
83000SOL     OW50838   5.475  13.029   2.206
83000SOL    HW150839   5.493  12.941   2.172
83000SOL    HW250840   5.447  13.079   2.129
83001SOL     OW50841   3.378  12.081   9.758
83001SOL    HW150842   3.432  12.002   9.755
83001SOL    HW250843   3.440  12.153   9.758
83002SOL     OW50844   6.598   7.995  14.233
83002SOL    HW150845   6.616   8.034  14.318
83002SOL    HW250846   6.520   8.039  14.202
83003SOL     OW50847  13.296  13.819   7.814
83003SOL    HW150848  13.362  13.875   7.773
83003SOL    HW250849  13.346  13.746   7.851
83004SOL     OW50850   7.748   0.385   2.125
83004SOL    HW150851   7.768   0.395   2.218
83004SOL    HW250852   7.656   0.408   2.118
83005SOL     OW50853   7.486  12.010   9.620
83005SOL    HW150854   7.396  11.997   9.589
83005SOL    HW250855   7.539  11.955   9.563
83006SOL     OW50856   4.295   1.160   4.834
83006SOL    HW150857   4.378   1.112   4.835
83006SOL    HW250858   4.305   1.223   4.762
83007SOL     OW50859  14.869   8.309   8.033
83007SOL    HW150860   0.008   8.360   8.111
83007SOL    HW250861  14.861   8.219   8.065
83008SOL     OW50862   9.659  11.178  11.846
83008SOL    HW150863   9.719  11.124  11.898
83008SOL    HW250864   9.579  11.126  11.840
83009SOL     OW50865  14.252   4.328  14.002
83009SOL    HW150866  14.326   4.297  13.949
83009SOL    HW250867  14.262   4.284  14.086
83010SOL     OW50868  11.261   8.011  14.307
83010SOL    HW150869  11.324   7.980  14.372
83010SOL    HW250870  11.245   8.102  14.330
83011SOL     OW50871   9.887  11.115   7.791
83011SOL    HW150872   9.951  11.118   7.719
83011SOL    HW250873   9.803  11.129   7.749
83012SOL     OW50874  11.522   1.041   7.850
83012SOL    HW150875  11.503   0.952   7.820
83012SOL    HW250876  11.610   1.058   7.819
83013SOL     OW50877   9.508   9.522   1.911
83013SOL    HW150878   9.533   9.438   1.874
83013SOL    HW250879   9.557   9.528   1.993
83014SOL     OW50880   4.492   4.602   1.710
83014SOL    HW150881   4.580   4.567   1.704
83014SOL    HW250882   4.504   4.688   1.751
83015SOL     OW50883  13.775  13.725   3.888
83015SOL    HW150884  13.848  13.691   3.836
83015SOL    HW250885  13.804  13.717   3.979
83016SOL     OW50886   9.814   5.886   6.577
83016SOL    HW150887   9.824   5.979   6.555
83016SOL    HW250888   9.880   5.871   6.645
83017SOL     OW50889   4.551  10.866   4.541
83017SOL    HW150890   4.534  10.959   4.529
83017SOL    HW250891   4.486  10.822   4.488
83018SOL     OW50892  12.852  11.367   5.835
83018SOL    HW150893  12.805  11.330   5.760
83018SOL    HW250894  12.812  11.326   5.911
83019SOL     OW50895  10.332  10.451  12.586
83019SOL    HW150896  10.332  10.427  12.679
83019SOL    HW250897  10.303  10.373  12.540
83020SOL     OW50898  14.111  10.256   6.421
83020SOL    HW150899  14.052  10.257   6.346
83020SOL    HW250900  14.195  10.286   6.385
83021SOL     OW50901   8.830   2.900  11.323
83021SOL    HW150902   8.911   2.945  11.300
83021SOL    HW250903   8.788   2.957  11.388
83022SOL     OW50904   4.782  13.252   9.984
83022SOL    HW150905   4.819  13.320   9.928
83022SOL    HW250906   4.843  13.178   9.976
83023SOL     OW50907  12.051   8.274  14.763
83023SOL    HW150908  12.102   8.199  14.793
83023SOL    HW250909  12.115   8.335  14.727
83024SOL     OW50910   6.958  11.426  11.689
83024SOL    HW150911   6.886  11.392  11.742
83024SOL    HW250912   6.919  11.499  11.641
83025SOL     OW50913   1.503  11.344  11.574
83025SOL    HW150914   1.554  11.263  11.576
83025SOL    HW250915   1.451  11.342  11.655
83026SOL     OW50916   3.756   2.190   3.462
83026SOL    HW150917   3.745   2.217   3.553
83026SOL    HW250918   3.850   2.174   3.453
83027SOL     OW50919  12.780   7.015  14.184
83027SOL    HW150920  12.790   6.949  14.115
83027SOL    HW250921  12.741   6.968  14.258
83028SOL     OW50922   4.552   1.485  12.898
83028SOL    HW150923   4.457   1.495  12.895
83028SOL    HW250924   4.583   1.565  12.940
83029SOL     OW50925   2.667  10.460   1.237
83029SOL    HW150926   2.578  10.477   1.209
83029SOL    HW250927   2.669  10.366   1.256
83030SOL     OW50928   0.059  10.262   2.787
83030SOL    HW150929   0.105  10.335   2.828
83030SOL    HW250930   0.117  10.187   2.798
83031SOL     OW50931   2.940  13.560  11.712
83031SOL    HW150932   2.862  13.563  11.658
83031SOL    HW250933   3.005  13.516  11.658
83032SOL     OW50934   5.699   5.977   5.717
83032SOL    HW150935   5.606   5.956   5.721
83032SOL    HW250936   5.743   5.892   5.715
83033SOL     OW50937   5.129  12.721  12.130
83033SOL    HW150938   5.098  12.630  12.128
83033SOL    HW250939   5.224  12.715  12.117
83034SOL     OW50940   2.480   9.475  14.145
83034SOL    HW150941   2.490   9.539  14.075
83034SOL    HW250942   2.557   9.489  14.200
83035SOL     OW50943   2.687  13.213   6.513
83035SOL    HW150944   2.677  13.151   6.585
83035SOL    HW250945   2.655  13.297   6.548
83036SOL     OW50946   6.874  13.840   3.957
83036SOL    HW150947   6.934  13.765   3.951
83036SOL    HW250948   6.801  13.808   4.010
83037SOL     OW50949   1.601  13.070   8.190
83037SOL    HW150950   1.667  13.099   8.127
83037SOL    HW250951   1.518  13.101   8.155
83038SOL     OW50952   8.531   4.856   7.952
83038SOL    HW150953   8.541   4.883   8.043
83038SOL    HW250954   8.605   4.897   7.907
83039SOL     OW50955   4.394  11.789  14.254
83039SOL    HW150956   4.362  11.831  14.334
83039SOL    HW250957   4.480  11.828  14.238
83040SOL     OW50958   9.518  10.574   1.986
83040SOL    HW150959   9.489  10.560   2.076
83040SOL    HW250960   9.440  10.559   1.933
83041SOL     OW50961   9.472   7.519   8.594
83041SOL    HW150962   9.541   7.453   8.586
83041SOL    HW250963   9.421   7.491   8.671
83042SOL     OW50964   9.523   4.587   6.060
83042SOL    HW150965   9.548   4.537   6.138
83042SOL    HW250966   9.528   4.523   5.988
83043SOL     OW50967  12.304  10.138   6.711
83043SOL    HW150968  12.249  10.129   6.632
83043SOL    HW250969  12.267  10.074   6.772
83044SOL     OW50970  14.373   0.976   6.410
83044SOL    HW150971  14.345   0.980   6.318
83044SOL    HW250972  14.467   0.992   6.407
83045SOL     OW50973   8.772  12.291   6.993
83045SOL    HW150974   8.839  12.307   6.925
83045SOL    HW250975   8.736  12.377   7.012
83046SOL     OW50976  13.374   4.838   5.834
83046SOL    HW150977  13.330   4.764   5.792
83046SOL    HW250978  13.423   4.799   5.907
83047SOL     OW50979   1.750   3.931   5.934
83047SOL    HW150980   1.702   4.007   5.967
83047SOL    HW250981   1.840   3.963   5.923
83048SOL     OW50982   8.034   5.705   5.177
83048SOL    HW150983   8.111   5.680   5.227
83048SOL    HW250984   8.064   5.708   5.086
83049SOL     OW50985   7.457   0.798   9.964
83049SOL    HW150986   7.448   0.821  10.057
83049SOL    HW250987   7.441   0.703   9.962
83050SOL     OW50988   3.527   6.729   1.705
83050SOL    HW150989   3.533   6.633   1.704
83050SOL    HW250990   3.556   6.755   1.617
83051SOL     OW50991   6.274   3.126   3.314
83051SOL    HW150992   6.285   3.220   3.330
83051SOL    HW250993   6.184   3.108   3.340
83052SOL     OW50994  10.977  12.738  10.414
83052SOL    HW150995  10.922  12.667  10.447
83052SOL    HW250996  11.065  12.700  10.410
83053SOL     OW50997   2.755   1.743   5.427
83053SOL    HW150998   2.672   1.734   5.475
83053SOL    HW250999   2.822   1.741   5.495
83054SOL     OW51000   2.898   3.335   1.993
83054SOL    HW151001   2.860   3.423   1.990
83054SOL    HW251002   2.939   3.330   2.079
83055SOL     OW51003  11.568  12.479   1.074
83055SOL    HW151004  11.614  12.560   1.052
83055SOL    HW251005  11.524  12.498   1.157
83056SOL     OW51006   2.831  10.258   1.488
83056SOL    HW151007   2.850  10.187   1.549
83056SOL    HW251008   2.748  10.233   1.447
83057SOL     OW51009   6.239  11.256   3.872
83057SOL    HW151010   6.238  11.350   3.855
83057SOL    HW251011   6.151  11.236   3.903
83058SOL     OW51012   6.433  11.984  10.158
83058SOL    HW151013   6.503  12.037  10.196
83058SOL    HW251014   6.397  11.934  10.231
83059SOL     OW51015   7.303   7.217  14.879
83059SOL    HW151016   7.362   7.264   0.056
83059SOL    HW251017   7.335   7.127  14.881
83060SOL     OW51018   0.958   6.979  14.586
83060SOL    HW151019   0.945   6.955  14.495
83060SOL    HW251020   1.031   7.041  14.585
83061SOL     OW51021  10.296  11.437   5.974
83061SOL    HW151022  10.276  11.504   6.040
83061SOL    HW251023  10.392  11.429   5.978
83062SOL     OW51024  14.168   9.441   4.978
83062SOL    HW151025  14.248   9.419   5.026
83062SOL    HW251026  14.194   9.436   4.886
83063SOL     OW51027  10.590   7.778   4.545
83063SOL    HW151028  10.495   7.774   4.529
83063SOL    HW251029  10.629   7.745   4.464
83064SOL     OW51030  11.087  13.598   2.910
83064SOL    HW151031  11.053  13.530   2.968
83064SOL    HW251032  11.035  13.590   2.831
83065SOL     OW51033  13.406   4.992   4.656
83065SOL    HW151034  13.468   4.926   4.623
83065SOL    HW251035  13.353   4.945   4.720
83066SOL     OW51036  14.490   2.997  12.748
83066SOL    HW151037  14.408   2.973  12.706
83066SOL    HW251038  14.500   3.091  12.729
83067SOL     OW51039  10.206   3.686  12.668
83067SOL    HW151040  10.291   3.698  12.712
83067SOL    HW251041  10.228   3.691  12.574
83068SOL     OW51042  11.023   7.926   1.211
83068SOL    HW151043  11.008   7.866   1.285
83068SOL    HW251044  11.109   7.964   1.228
83069SOL     OW51045   1.899   6.176   9.579
83069SOL    HW151046   1.971   6.117   9.555
83069SOL    HW251047   1.877   6.220   9.497
83070SOL     OW51048   4.301   2.420   7.030
83070SOL    HW151049   4.290   2.348   6.968
83070SOL    HW251050   4.217   2.465   7.029
83071SOL     OW51051   6.202   3.897  14.047
83071SOL    HW151052   6.289   3.935  14.064
83071SOL    HW251053   6.156   3.964  13.997
83072SOL     OW51054   2.335   4.727   6.718
83072SOL    HW151055   2.342   4.661   6.787
83072SOL    HW251056   2.381   4.804   6.753
83073SOL     OW51057  10.555   3.883   9.032
83073SOL    HW151058  10.620   3.824   9.070
83073SOL    HW251059  10.529   3.841   8.950
83074SOL     OW51060  10.411   5.778   3.508
83074SOL    HW151061  10.413   5.816   3.596
83074SOL    HW251062  10.360   5.698   3.517
83075SOL     OW51063   6.677   1.165   0.290
83075SOL    HW151064   6.741   1.194   0.355
83075SOL    HW251065   6.622   1.243   0.275
83076SOL     OW51066  11.033   9.658   4.991
83076SOL    HW151067  11.034   9.562   4.997
83076SOL    HW251068  10.942   9.682   5.011
83077SOL     OW51069  10.472   5.943  11.088
83077SOL    HW151070  10.486   6.038  11.098
83077SOL    HW251071  10.433   5.933  11.002
83078SOL     OW51072   8.921   8.213   5.267
83078SOL    HW151073   9.008   8.193   5.303
83078SOL    HW251074   8.881   8.127   5.252
83079SOL     OW51075  13.301   4.273   6.351
83079SOL    HW151076  13.255   4.205   6.400
83079SOL    HW251077  13.391   4.269   6.383
83080SOL     OW51078   5.025  10.510   0.750
83080SOL    HW151079   4.999  10.490   0.660
83080SOL    HW251080   5.039  10.605   0.750
83081SOL     OW51081   3.795   9.323   4.851
83081SOL    HW151082   3.876   9.355   4.813
83081SOL    HW251083   3.726   9.376   4.811
83082SOL     OW51084   1.066   2.573   6.867
83082SOL    HW151085   1.039   2.656   6.907
83082SOL    HW251086   1.152   2.593   6.828
83083SOL     OW51087   8.019   9.378   6.997
83083SOL    HW151088   8.069   9.454   7.029
83083SOL    HW251089   8.075   9.303   7.017
83084SOL     OW51090  11.238   5.984   7.804
83084SOL    HW151091  11.332   5.996   7.821
83084SOL    HW251092  11.195   6.019   7.882
83085SOL     OW51093   3.985   2.350  13.500
83085SOL    HW151094   4.005   2.258  13.511
83085SOL    HW251095   3.927   2.372  13.573
83086SOL     OW51096  12.903   1.331   9.202
83086SOL    HW151097  12.959   1.328   9.280
83086SOL    HW251098  12.913   1.245   9.162
83087SOL     OW51099   5.183   8.491  11.132
83087SOL    HW151100   5.088   8.480  11.138
83087SOL    HW251101   5.205   8.467  11.042
83088SOL     OW51102   5.282  14.461   1.742
83088SOL    HW151103   5.367  14.449   1.784
83088SOL    HW251104   5.225  14.492   1.812
83089SOL     OW51105  10.739   4.372   7.949
83089SOL    HW151106  10.702   4.392   8.035
83089SOL    HW251107  10.787   4.451   7.924
83090SOL     OW51108  11.221   7.614   8.202
83090SOL    HW151109  11.312   7.586   8.193
83090SOL    HW251110  11.198   7.592   8.292
83091SOL     OW51111   1.665  10.217   2.276
83091SOL    HW151112   1.603  10.291   2.279
83091SOL    HW251113   1.697  10.216   2.186
83092SOL     OW51114  12.491  10.711  14.422
83092SOL    HW151115  12.499  10.806  14.428
83092SOL    HW251116  12.449  10.685  14.504
83093SOL     OW51117   4.799  11.964   1.016
83093SOL    HW151118   4.738  12.013   1.072
83093SOL    HW251119   4.753  11.954   0.933
83094SOL     OW51120  14.196  12.239  11.961
83094SOL    HW151121  14.197  12.279  11.874
83094SOL    HW251122  14.280  12.194  11.968
83095SOL     OW51123  10.231   1.727   5.454
83095SOL    HW151124  10.189   1.758   5.535
83095SOL    HW251125  10.309   1.680   5.484
83096SOL     OW51126   3.043   5.665   0.196
83096SOL    HW151127   3.011   5.705   0.277
83096SOL    HW251128   3.100   5.732   0.157
83097SOL     OW51129  13.400   1.407   2.399
83097SOL    HW151130  13.426   1.382   2.310
83097SOL    HW251131  13.305   1.416   2.395
83098SOL     OW51132   7.915  10.504   3.562
83098SOL    HW151133   7.980  10.460   3.617
83098SOL    HW251134   7.847  10.438   3.548
83099SOL     OW51135   9.386   3.845  10.982
83099SOL    HW151136   9.357   3.920  10.929
83099SOL    HW251137   9.438   3.884  11.052
83100SOL     OW51138   2.783   4.440   1.788
83100SOL    HW151139   2.857   4.498   1.809
83100SOL    HW251140   2.805   4.358   1.832
83101SOL     OW51141   7.413   0.846   6.471
83101SOL    HW151142   7.389   0.852   6.564
83101SOL    HW251143   7.491   0.789   6.470
83102SOL     OW51144  10.077   3.267   4.539
83102SOL    HW151145  10.098   3.174   4.527
83102SOL    HW251146  10.110   3.288   4.627
83103SOL     OW51147  10.941  14.394  11.790
83103SOL    HW151148  11.024  14.355  11.762
83103SOL    HW251149  10.930  14.365  11.881
83104SOL     OW51150  12.487   1.953  11.403
83104SOL    HW151151  12.418   1.918  11.346
83104SOL    HW251152  12.485   1.895  11.480
83105SOL     OW51153   4.949   5.067   9.253
83105SOL    HW151154   4.917   5.134   9.193
83105SOL    HW251155   4.951   5.111   9.338
83106SOL     OW51156   7.767   8.210   6.853
83106SOL    HW151157   7.701   8.206   6.922
83106SOL    HW251158   7.724   8.172   6.777
83107SOL     OW51159  12.376  11.213   7.423
83107SOL    HW151160  12.287  11.206   7.389
83107SOL    HW251161  12.430  11.166   7.359
83108SOL     OW51162  13.185  14.652   4.163
83108SOL    HW151163  13.251  14.720   4.162
83108SOL    HW251164  13.142  14.658   4.078
83109SOL     OW51165   7.873   9.046   1.366
83109SOL    HW151166   7.948   9.051   1.307
83109SOL    HW251167   7.856   8.952   1.375
83110SOL     OW51168   3.175   0.061  13.022
83110SOL    HW151169   3.168   0.131  13.088
83110SOL    HW251170   3.197   0.107  12.941
83111SOL     OW51171   9.988   8.844   5.665
83111SOL    HW151172   9.916   8.906   5.669
83111SOL    HW251173   9.956   8.767   5.712
83112SOL     OW51174  10.961   7.919  14.387
83112SOL    HW151175  10.994   7.965  14.310
83112SOL    HW251176  11.039   7.881  14.428
83113SOL     OW51177  13.475   0.891   9.292
83113SOL    HW151178  13.483   0.973   9.341
83113SOL    HW251179  13.467   0.917   9.201
83114SOL     OW51180   0.553   4.460   2.794
83114SOL    HW151181   0.588   4.451   2.706
83114SOL    HW251182   0.492   4.387   2.804
83115SOL     OW51183   0.715  13.305   7.432
83115SOL    HW151184   0.666  13.225   7.453
83115SOL    HW251185   0.665  13.345   7.361
83116SOL     OW51186   3.847   8.508   3.001
83116SOL    HW151187   3.804   8.495   2.917
83116SOL    HW251188   3.805   8.587   3.037
83117SOL     OW51189  13.997   5.222   9.559
83117SOL    HW151190  13.991   5.203   9.653
83117SOL    HW251191  13.928   5.286   9.543
83118SOL     OW51192   2.707   0.626   4.488
83118SOL    HW151193   2.620   0.605   4.522
83118SOL    HW251194   2.694   0.704   4.435
83119SOL     OW51195   3.077  13.920   8.939
83119SOL    HW151196   3.018  13.886   9.006
83119SOL    HW251197   3.067  13.859   8.866
83120SOL     OW51198   5.006   0.244   9.426
83120SOL    HW151199   5.003   0.193   9.507
83120SOL    HW251200   4.969   0.329   9.451
83121SOL     OW51201  10.635   5.292  13.428
83121SOL    HW151202  10.638   5.231  13.354
83121SOL    HW251203  10.543   5.317  13.435
83122SOL     OW51204  14.424   7.406   5.514
83122SOL    HW151205  14.507   7.450   5.495
83122SOL    HW251206  14.358   7.476   5.510
83123SOL     OW51207  14.796   3.989   3.381
83123SOL    HW151208  14.847   3.997   3.300
83123SOL    HW251209  14.798   4.077   3.419
83124SOL     OW51210   0.866   8.228   4.707
83124SOL    HW151211   0.932   8.292   4.682
83124SOL    HW251212   0.903   8.144   4.683
83125SOL     OW51213   2.324   3.164  10.427
83125SOL    HW151214   2.348   3.232  10.364
83125SOL    HW251215   2.347   3.082  10.384
83126SOL     OW51216   7.878   9.851   2.975
83126SOL    HW151217   7.858   9.821   3.064
83126SOL    HW251218   7.870   9.946   2.980
83127SOL     OW51219  13.612  10.507   5.191
83127SOL    HW151220  13.605  10.434   5.252
83127SOL    HW251221  13.523  10.520   5.157
83128SOL     OW51222   6.181   4.735   6.821
83128SOL    HW151223   6.256   4.793   6.824
83128SOL    HW251224   6.141   4.744   6.908
83129SOL     OW51225   3.502   1.894   9.429
83129SOL    HW151226   3.540   1.929   9.509
83129SOL    HW251227   3.490   1.971   9.372
83130SOL     OW51228   6.544   3.330   1.801
83130SOL    HW151229   6.618   3.388   1.818
83130SOL    HW251230   6.477   3.387   1.762
83131SOL     OW51231   3.851   9.656  12.306
83131SOL    HW151232   3.854   9.654  12.211
83131SOL    HW251233   3.941   9.672  12.333
83132SOL     OW51234  12.491   8.604   2.352
83132SOL    HW151235  12.411   8.552   2.344
83132SOL    HW251236  12.510   8.633   2.263
83133SOL     OW51237   0.047   8.727  14.547
83133SOL    HW151238   0.112   8.779  14.500
83133SOL    HW251239   0.084   8.715  14.634
83134SOL     OW51240   9.798  11.062   3.214
83134SOL    HW151241   9.811  10.987   3.271
83134SOL    HW251242   9.710  11.049   3.177
83135SOL     OW51243   7.350   8.778   1.935
83135SOL    HW151244   7.413   8.762   1.865
83135SOL    HW251245   7.264   8.766   1.894
83136SOL     OW51246   3.616   2.965  14.016
83136SOL    HW151247   3.651   2.992  13.931
83136SOL    HW251248   3.656   3.025  14.078
83137SOL     OW51249   4.893   9.047  10.045
83137SOL    HW151250   4.908   9.037   9.951
83137SOL    HW251251   4.886   9.141  10.058
83138SOL     OW51252   7.733  14.112   8.596
83138SOL    HW151253   7.685  14.191   8.621
83138SOL    HW251254   7.717  14.103   8.502
83139SOL     OW51255  10.786   2.856  11.452
83139SOL    HW151256  10.815   2.773  11.490
83139SOL    HW251257  10.844   2.922  11.491
83140SOL     OW51258  12.671   2.640   9.274
83140SOL    HW151259  12.761   2.656   9.245
83140SOL    HW251260  12.655   2.548   9.253
83141SOL     OW51261   1.027   8.291   4.943
83141SOL    HW151262   1.021   8.387   4.950
83141SOL    HW251263   0.948   8.266   4.894
83142SOL     OW51264   3.057   2.920   4.380
83142SOL    HW151265   3.111   2.987   4.339
83142SOL    HW251266   3.109   2.890   4.455
83143SOL     OW51267   1.197   6.919   3.921
83143SOL    HW151268   1.139   6.951   3.851
83143SOL    HW251269   1.153   6.842   3.956
83144SOL     OW51270  11.362  12.677  11.999
83144SOL    HW151271  11.375  12.768  12.028
83144SOL    HW251272  11.450  12.641  11.992
83145SOL     OW51273  10.847   5.024   5.045
83145SOL    HW151274  10.766   4.987   5.080
83145SOL    HW251275  10.906   4.949   5.038
83146SOL     OW51276  13.961  10.392  12.873
83146SOL    HW151277  13.983  10.299  12.866
83146SOL    HW251278  13.989  10.417  12.961
83147SOL     OW51279   2.145   7.796   7.968
83147SOL    HW151280   2.084   7.845   7.913
83147SOL    HW251281   2.226   7.847   7.967
83148SOL     OW51282  14.363  12.639   7.142
83148SOL    HW151283  14.375  12.607   7.232
83148SOL    HW251284  14.387  12.732   7.146
83149SOL     OW51285   8.105   4.351   6.393
83149SOL    HW151286   8.099   4.301   6.474
83149SOL    HW251287   8.193   4.332   6.359
83150SOL     OW51288   8.379   9.372   8.132
83150SOL    HW151289   8.470   9.351   8.153
83150SOL    HW251290   8.327   9.316   8.190
83151SOL     OW51291  11.056   9.024   1.537
83151SOL    HW151292  11.012   8.981   1.464
83151SOL    HW251293  10.984   9.053   1.594
83152SOL     OW51294   7.085  10.845   6.962
83152SOL    HW151295   7.099  10.787   6.888
83152SOL    HW251296   7.168  10.846   7.009
83153SOL     OW51297   6.776   2.228  12.619
83153SOL    HW151298   6.820   2.307  12.586
83153SOL    HW251299   6.833   2.197  12.689
83154SOL     OW51300  10.214   1.085   9.830
83154SOL    HW151301  10.125   1.062   9.855
83154SOL    HW251302  10.268   1.017   9.869
83155SOL     OW51303  13.580  10.142   2.395
83155SOL    HW151304  13.614  10.184   2.474
83155SOL    HW251305  13.658  10.108   2.351
83156SOL     OW51306  11.067   8.684   4.640
83156SOL    HW151307  11.108   8.648   4.718
83156SOL    HW251308  11.094   8.776   4.639
83157SOL     OW51309   9.423   8.718  13.369
83157SOL    HW151310   9.498   8.666  13.342
83157SOL    HW251311   9.400   8.685  13.456
83158SOL     OW51312   9.084  10.857   8.934
83158SOL    HW151313   9.137  10.937   8.943
83158SOL    HW251314   9.077  10.823   9.024
83159SOL     OW51315   4.771   8.614   2.775
83159SOL    HW151316   4.683   8.650   2.770
83159SOL    HW251317   4.797   8.629   2.866
83160SOL     OW51318  11.633   8.316   8.494
83160SOL    HW151319  11.633   8.404   8.531
83160SOL    HW251320  11.628   8.330   8.399
83161SOL     OW51321  12.893  12.901   2.961
83161SOL    HW151322  12.871  12.896   3.054
83161SOL    HW251323  12.986  12.923   2.959
83162SOL     OW51324  13.324   1.195  11.269
83162SOL    HW151325  13.256   1.159  11.326
83162SOL    HW251326  13.280   1.207  11.184
83163SOL     OW51327   1.507  10.770   4.751
83163SOL    HW151328   1.479  10.684   4.783
83163SOL    HW251329   1.447  10.832   4.792
83164SOL     OW51330   8.960   3.881   8.283
83164SOL    HW151331   9.044   3.842   8.259
83164SOL    HW251332   8.970   3.974   8.261
83165SOL     OW51333  10.386   8.856  11.906
83165SOL    HW151334  10.390   8.777  11.959
83165SOL    HW251335  10.467   8.856  11.856
83166SOL     OW51336  12.164  11.621   0.404
83166SOL    HW151337  12.090  11.661   0.359
83166SOL    HW251338  12.240  11.638   0.347
83167SOL     OW51339   2.568   4.837   3.224
83167SOL    HW151340   2.574   4.893   3.147
83167SOL    HW251341   2.645   4.780   3.218
83168SOL     OW51342   2.365   7.207  14.505
83168SOL    HW151343   2.451   7.180  14.537
83168SOL    HW251344   2.302   7.162  14.562
83169SOL     OW51345  14.878   0.579  13.678
83169SOL    HW151346  14.831   0.653  13.715
83169SOL    HW251347   0.021   0.526  13.753
83170SOL     OW51348  11.197  10.514   2.141
83170SOL    HW151349  11.212  10.422   2.121
83170SOL    HW251350  11.123  10.539   2.086
83171SOL     OW51351   0.441   9.561   2.861
83171SOL    HW151352   0.383   9.557   2.785
83171SOL    HW251353   0.496   9.638   2.845
83172SOL     OW51354  12.495   8.009  12.163
83172SOL    HW151355  12.545   7.982  12.240
83172SOL    HW251356  12.488   8.104  12.172
83173SOL     OW51357   6.969   7.396   2.988
83173SOL    HW151358   6.902   7.381   2.921
83173SOL    HW251359   6.942   7.341   3.062
83174SOL     OW51360   3.444  11.099  12.051
83174SOL    HW151361   3.510  11.029  12.059
83174SOL    HW251362   3.494  11.175  12.023
83175SOL     OW51363  13.917  11.095   3.760
83175SOL    HW151364  13.856  11.048   3.703
83175SOL    HW251365  13.949  11.167   3.706
83176SOL     OW51366   5.614   8.757   5.515
83176SOL    HW151367   5.531   8.712   5.498
83176SOL    HW251368   5.661   8.698   5.573
83177SOL     OW51369   3.311   5.272  11.749
83177SOL    HW151370   3.344   5.213  11.817
83177SOL    HW251371   3.230   5.307  11.786
83178SOL     OW51372   7.553   2.475  14.697
83178SOL    HW151373   7.640   2.479  14.736
83178SOL    HW251374   7.541   2.383  14.674
83179SOL     OW51375  11.231   9.057   5.564
83179SOL    HW151376  11.277   9.093   5.489
83179SOL    HW251377  11.256   9.113   5.637
83180SOL     OW51378  10.728   2.624   5.925
83180SOL    HW151379  10.759   2.594   5.840
83180SOL    HW251380  10.640   2.658   5.908
83181SOL     OW51381   4.346  10.840   9.576
83181SOL    HW151382   4.331  10.860   9.668
83181SOL    HW251383   4.389  10.918   9.541
83182SOL     OW51384   6.313   3.556  10.377
83182SOL    HW151385   6.278   3.646  10.375
83182SOL    HW251386   6.336   3.537  10.287
83183SOL     OW51387   6.946  12.025  11.658
83183SOL    HW151388   6.977  12.111  11.688
83183SOL    HW251389   6.855  12.041  11.631
83184SOL     OW51390  13.203  14.721   6.336
83184SOL    HW151391  13.159  14.774   6.402
83184SOL    HW251392  13.155  14.738   6.255
83185SOL     OW51393  10.364   0.968   4.904
83185SOL    HW151394  10.456   0.970   4.928
83185SOL    HW251395  10.318   0.993   4.984
83186SOL     OW51396  10.521   4.425  13.871
83186SOL    HW151397  10.515   4.335  13.838
83186SOL    HW251398  10.447   4.470  13.830
83187SOL     OW51399  11.249   7.855   8.475
83187SOL    HW151400  11.170   7.894   8.512
83187SOL    HW251401  11.223   7.767   8.449
83188SOL     OW51402   5.995   9.296  10.559
83188SOL    HW151403   6.058   9.313  10.490
83188SOL    HW251404   6.044   9.247  10.626
83189SOL     OW51405   0.187   6.386   6.979
83189SOL    HW151406   0.106   6.418   7.018
83189SOL    HW251407   0.173   6.391   6.885
83190SOL     OW51408   4.985   2.376   2.274
83190SOL    HW151409   5.035   2.333   2.344
83190SOL    HW251410   4.899   2.334   2.276
83191SOL     OW51411   0.395  12.171  14.211
83191SOL    HW151412   0.307  12.204  14.191
83191SOL    HW251413   0.453  12.242  14.184
83192SOL     OW51414   6.403  12.804  13.881
83192SOL    HW151415   6.322  12.833  13.924
83192SOL    HW251416   6.459  12.882  13.881
83193SOL     OW51417  14.239   6.829  12.960
83193SOL    HW151418  14.318   6.809  12.911
83193SOL    HW251419  14.245   6.922  12.980
83194SOL     OW51420  12.020   6.848   2.180
83194SOL    HW151421  12.047   6.788   2.249
83194SOL    HW251422  12.083   6.834   2.110
83195SOL     OW51423   1.650   0.262   9.640
83195SOL    HW151424   1.655   0.308   9.724
83195SOL    HW251425   1.662   0.332   9.575
83196SOL     OW51426  11.540  10.027  10.058
83196SOL    HW151427  11.495  10.107  10.086
83196SOL    HW251428  11.600  10.056   9.989
83197SOL     OW51429   1.179   2.541   0.753
83197SOL    HW151430   1.107   2.541   0.816
83197SOL    HW251431   1.258   2.547   0.807
83198SOL     OW51432   9.304   8.900   7.782
83198SOL    HW151433   9.300   8.825   7.723
83198SOL    HW251434   9.326   8.974   7.725
83199SOL     OW51435   4.753   2.552  13.650
83199SOL    HW151436   4.824   2.574  13.710
83199SOL    HW251437   4.796   2.525  13.569
83200SOL     OW51438   6.916  13.198   8.032
83200SOL    HW151439   6.913  13.167   8.122
83200SOL    HW251440   6.828  13.178   7.998
83201SOL     OW51441   8.530   9.431   7.389
83201SOL    HW151442   8.569   9.513   7.357
83201SOL    HW251443   8.436   9.441   7.374
83202SOL     OW51444   5.646  11.675   1.968
83202SOL    HW151445   5.701  11.613   1.919
83202SOL    HW251446   5.673  11.761   1.936
83203SOL     OW51447   8.367  11.478  13.895
83203SOL    HW151448   8.375  11.539  13.821
83203SOL    HW251449   8.340  11.532  13.968
83204SOL     OW51450   1.257  11.427   4.721
83204SOL    HW151451   1.190  11.374   4.677
83204SOL    HW251452   1.259  11.509   4.673
83205SOL     OW51453   7.557   2.462   4.161
83205SOL    HW151454   7.489   2.515   4.121
83205SOL    HW251455   7.573   2.391   4.098
83206SOL     OW51456  10.302   1.492  11.598
83206SOL    HW151457  10.301   1.572  11.546
83206SOL    HW251458  10.210   1.466  11.604
83207SOL     OW51459  12.885  10.883   9.413
83207SOL    HW151460  12.942  10.870   9.489
83207SOL    HW251461  12.932  10.844   9.340
83208SOL     OW51462   7.203  11.863   8.429
83208SOL    HW151463   7.202  11.785   8.373
83208SOL    HW251464   7.140  11.923   8.389
83209SOL     OW51465   4.192   6.911   4.302
83209SOL    HW151466   4.194   6.943   4.211
83209SOL    HW251467   4.223   6.985   4.354
83210SOL     OW51468  13.717   6.859   8.582
83210SOL    HW151469  13.771   6.928   8.545
83210SOL    HW251470  13.632   6.901   8.599
83211SOL     OW51471   1.685   9.878   6.111
83211SOL    HW151472   1.749   9.894   6.042
83211SOL    HW251473   1.690   9.955   6.167
83212SOL     OW51474  14.641   6.345  12.890
83212SOL    HW151475  14.585   6.411  12.931
83212SOL    HW251476  14.706   6.396  12.841
83213SOL     OW51477  13.882   0.951  12.513
83213SOL    HW151478  13.862   0.984  12.601
83213SOL    HW251479  13.833   1.007  12.454
83214SOL     OW51480   0.196   7.289   4.569
83214SOL    HW151481   0.157   7.280   4.655
83214SOL    HW251482   0.261   7.360   4.579
83215SOL     OW51483  10.420   0.494  10.492
83215SOL    HW151484  10.387   0.457  10.409
83215SOL    HW251485  10.514   0.503  10.477
83216SOL     OW51486   3.709   8.776  13.228
83216SOL    HW151487   3.649   8.786  13.154
83216SOL    HW251488   3.795   8.800  13.192
83217SOL     OW51489  11.421   8.382   8.747
83217SOL    HW151490  11.471   8.304   8.723
83217SOL    HW251491  11.481   8.434   8.801
83218SOL     OW51492  14.404  13.524   9.097
83218SOL    HW151493  14.428  13.546   9.188
83218SOL    HW251494  14.357  13.441   9.104
83219SOL     OW51495   2.120   7.726  10.156
83219SOL    HW151496   2.062   7.763  10.223
83219SOL    HW251497   2.195   7.785  10.154
83220SOL     OW51498  10.656   5.997   8.145
83220SOL    HW151499  10.660   5.989   8.241
83220SOL    HW251500  10.631   5.910   8.115
83221SOL     OW51501  11.049   4.367   9.019
83221SOL    HW151502  11.118   4.407   9.072
83221SOL    HW251503  10.998   4.315   9.082
83222SOL     OW51504   8.838   7.173   0.512
83222SOL    HW151505   8.849   7.079   0.529
83222SOL    HW251506   8.926   7.204   0.493
83223SOL     OW51507   0.096   6.818  10.853
83223SOL    HW151508   0.053   6.882  10.796
83223SOL    HW251509   0.190   6.838  10.845
83224SOL     OW51510   3.555   9.571   6.801
83224SOL    HW151511   3.637   9.613   6.775
83224SOL    HW251512   3.565   9.555   6.894
83225SOL     OW51513   7.999   2.478  13.801
83225SOL    HW151514   7.934   2.408  13.807
83225SOL    HW251515   8.056   2.452  13.729
83226SOL     OW51516   2.687   4.739  11.312
83226SOL    HW151517   2.687   4.650  11.347
83226SOL    HW251518   2.699   4.795  11.389
83227SOL     OW51519   9.368  12.705  12.641
83227SOL    HW151520   9.449  12.673  12.603
83227SOL    HW251521   9.324  12.751  12.569
83228SOL     OW51522  12.186   3.948  10.947
83228SOL    HW151523  12.092   3.965  10.939
83228SOL    HW251524  12.210   3.908  10.864
83229SOL     OW51525  13.945  10.236  13.298
83229SOL    HW151526  13.990  10.280  13.369
83229SOL    HW251527  13.855  10.270  13.301
83230SOL     OW51528  13.344  13.251   0.989
83230SOL    HW151529  13.358  13.165   1.029
83230SOL    HW251530  13.284  13.296   1.048
83231SOL     OW51531  10.484   5.225  14.047
83231SOL    HW151532  10.400   5.203  14.089
83231SOL    HW251533  10.540   5.253  14.120
83232SOL     OW51534   0.284   5.015   7.342
83232SOL    HW151535   0.368   4.973   7.358
83232SOL    HW251536   0.226   4.978   7.408
83233SOL     OW51537   9.924   3.456   2.820
83233SOL    HW151538   9.920   3.513   2.743
83233SOL    HW251539  10.015   3.461   2.850
83234SOL     OW51540   7.794   8.593  13.007
83234SOL    HW151541   7.760   8.517  13.055
83234SOL    HW251542   7.766   8.579  12.917
83235SOL     OW51543  11.413   4.238  11.467
83235SOL    HW151544  11.429   4.145  11.454
83235SOL    HW251545  11.464   4.281  11.399
83236SOL     OW51546   3.073   2.705   3.710
83236SOL    HW151547   3.092   2.752   3.792
83236SOL    HW251548   3.078   2.772   3.642
83237SOL     OW51549   5.732   3.879   9.879
83237SOL    HW151550   5.742   3.789   9.847
83237SOL    HW251551   5.820   3.905   9.906
83238SOL     OW51552   1.184  13.904  11.914
83238SOL    HW151553   1.095  13.901  11.879
83238SOL    HW251554   1.220  13.818  11.896
83239SOL     OW51555   2.066   0.955  14.025
83239SOL    HW151556   2.038   0.968  14.116
83239SOL    HW251557   2.160   0.973  14.026
83240SOL     OW51558  10.931   2.874   1.018
83240SOL    HW151559  10.963   2.955   1.058
83240SOL    HW251560  10.994   2.807   1.046
83241SOL     OW51561  13.123   5.333  10.992
83241SOL    HW151562  13.100   5.298  10.906
83241SOL    HW251563  13.147   5.256  11.043
83242SOL     OW51564   4.370   2.647   2.602
83242SOL    HW151565   4.457   2.611   2.618
83242SOL    HW251566   4.330   2.585   2.541
83243SOL     OW51567   7.407   1.517   1.570
83243SOL    HW151568   7.372   1.458   1.503
83243SOL    HW251569   7.484   1.472   1.604
83244SOL     OW51570  10.138   8.303   8.846
83244SOL    HW151571  10.127   8.278   8.755
83244SOL    HW251572  10.078   8.247   8.895
83245SOL     OW51573   5.653  10.606   0.608
83245SOL    HW151574   5.558  10.617   0.604
83245SOL    HW251575   5.665  10.519   0.648
83246SOL     OW51576   3.333  10.213   2.582
83246SOL    HW151577   3.275  10.242   2.652
83246SOL    HW251578   3.361  10.295   2.540
83247SOL     OW51579  13.709   8.346   9.677
83247SOL    HW151580  13.758   8.328   9.757
83247SOL    HW251581  13.742   8.431   9.647
83248SOL     OW51582  12.634   5.796   7.023
83248SOL    HW151583  12.608   5.735   7.093
83248SOL    HW251584  12.707   5.752   6.979
83249SOL     OW51585   0.276   6.743   8.757
83249SOL    HW151586   0.323   6.788   8.687
83249SOL    HW251587   0.196   6.793   8.770
83250SOL     OW51588  12.790  12.647   8.271
83250SOL    HW151589  12.763  12.556   8.286
83250SOL    HW251590  12.708  12.697   8.275
83251SOL     OW51591   3.240   2.999  11.673
83251SOL    HW151592   3.272   2.965  11.756
83251SOL    HW251593   3.279   3.087  11.666
83252SOL     OW51594   4.659   1.315   9.155
83252SOL    HW151595   4.665   1.231   9.200
83252SOL    HW251596   4.658   1.293   9.062
83253SOL     OW51597   0.829   9.695   8.047
83253SOL    HW151598   0.841   9.749   7.969
83253SOL    HW251599   0.765   9.742   8.100
83254SOL     OW51600   7.951   9.171   9.494
83254SOL    HW151601   8.039   9.209   9.502
83254SOL    HW251602   7.959   9.106   9.424
83255SOL     OW51603  12.960   0.006  12.329
83255SOL    HW151604  12.890  14.853  12.384
83255SOL    HW251605  13.037  14.837  12.352
83256SOL     OW51606   9.367   5.630   6.330
83256SOL    HW151607   9.321   5.648   6.248
83256SOL    HW251608   9.423   5.707   6.343
83257SOL     OW51609   7.153  14.588  12.145
83257SOL    HW151610   7.189  14.627  12.225
83257SOL    HW251611   7.114  14.661  12.097
83258SOL     OW51612  13.114  13.727  10.215
83258SOL    HW151613  13.142  13.638  10.236
83258SOL    HW251614  13.190  13.767  10.173
83259SOL     OW51615  10.041  13.941   0.400
83259SOL    HW151616   9.971  13.984   0.350
83259SOL    HW251617  10.121  13.985   0.372
83260SOL     OW51618  13.912   8.624   0.113
83260SOL    HW151619  13.909   8.534   0.146
83260SOL    HW251620  13.873   8.676   0.184
83261SOL     OW51621  13.997   2.424  12.955
83261SOL    HW151622  14.074   2.411  12.899
83261SOL    HW251623  13.985   2.340  12.999
83262SOL     OW51624   0.316  14.152   3.928
83262SOL    HW151625   0.252  14.218   3.904
83262SOL    HW251626   0.361  14.188   4.004
83263SOL     OW51627  10.385   5.453   7.259
83263SOL    HW151628  10.417   5.495   7.179
83263SOL    HW251629  10.443   5.486   7.328
83264SOL     OW51630   8.451   9.838   6.701
83264SOL    HW151631   8.383   9.857   6.637
83264SOL    HW251632   8.430   9.750   6.732
83265SOL     OW51633   0.390   7.557   4.639
83265SOL    HW151634   0.418   7.555   4.547
83265SOL    HW251635   0.379   7.650   4.658
83266SOL     OW51636   2.697   6.351  14.778
83266SOL    HW151637   2.690   6.436  14.735
83266SOL    HW251638   2.645   6.359  14.857
83267SOL     OW51639   3.826  13.143   5.467
83267SOL    HW151640   3.874  13.202   5.409
83267SOL    HW251641   3.794  13.201   5.537
83268SOL     OW51642   2.699   9.788   9.811
83268SOL    HW151643   2.689   9.717   9.873
83268SOL    HW251644   2.619   9.785   9.758
83269SOL     OW51645   6.480   1.102  13.095
83269SOL    HW151646   6.525   1.126  13.014
83269SOL    HW251647   6.545   1.115  13.163
83270SOL     OW51648   5.898   4.126  10.484
83270SOL    HW151649   5.811   4.157  10.461
83270SOL    HW251650   5.954   4.157  10.413
83271SOL     OW51651   6.827   4.337  12.825
83271SOL    HW151652   6.794   4.325  12.736
83271SOL    HW251653   6.827   4.249  12.862
83272SOL     OW51654   7.789  13.430   3.144
83272SOL    HW151655   7.811  13.510   3.095
83272SOL    HW251656   7.823  13.446   3.232
83273SOL     OW51657  13.650   1.033  13.982
83273SOL    HW151658  13.693   1.062  13.901
83273SOL    HW251659  13.601   0.955  13.956
83274SOL     OW51660  11.058   5.464  10.259
83274SOL    HW151661  11.090   5.542  10.304
83274SOL    HW251662  11.061   5.395  10.325
83275SOL     OW51663  11.298   1.620   8.814
83275SOL    HW151664  11.302   1.606   8.719
83275SOL    HW251665  11.204   1.625   8.833
83276SOL     OW51666   3.301   2.996   3.784
83276SOL    HW151667   3.314   3.029   3.695
83276SOL    HW251668   3.207   2.977   3.790
83277SOL     OW51669   6.438  14.386   0.133
83277SOL    HW151670   6.350  14.350   0.140
83277SOL    HW251671   6.490  14.316   0.093
83278SOL     OW51672  12.433   8.943  12.476
83278SOL    HW151673  12.447   8.903  12.391
83278SOL    HW251674  12.441   8.870  12.538
83279SOL     OW51675   5.295   5.098   2.789
83279SOL    HW151676   5.368   5.114   2.848
83279SOL    HW251677   5.294   5.003   2.777
83280SOL     OW51678  10.241   4.248  13.136
83280SOL    HW151679  10.320   4.198  13.157
83280SOL    HW251680  10.264   4.299  13.059
83281SOL     OW51681  14.553   2.913  11.728
83281SOL    HW151682  14.568   2.852  11.656
83281SOL    HW251683  14.501   2.864  11.792
83282SOL     OW51684   2.329   5.146   2.795
83282SOL    HW151685   2.310   5.239   2.779
83282SOL    HW251686   2.254   5.100   2.757
83283SOL     OW51687   1.935  12.302   0.202
83283SOL    HW151688   1.970  12.385   0.235
83283SOL    HW251689   1.985  12.235   0.248
83284SOL     OW51690   9.316  12.793   8.966
83284SOL    HW151691   9.303  12.883   8.998
83284SOL    HW251692   9.407  12.790   8.938
83285SOL     OW51693   9.612  11.097   0.379
83285SOL    HW151694   9.627  11.189   0.361
83285SOL    HW251695   9.534  11.095   0.434
83286SOL     OW51696  14.733  10.033  13.334
83286SOL    HW151697  14.791  10.008  13.262
83286SOL    HW251698  14.648   9.998  13.310
83287SOL     OW51699   6.822  11.595   0.435
83287SOL    HW151700   6.758  11.662   0.413
83287SOL    HW251701   6.820  11.590   0.531
83288SOL     OW51702   7.655   1.903   5.556
83288SOL    HW151703   7.565   1.875   5.572
83288SOL    HW251704   7.677   1.865   5.470
83289SOL     OW51705   1.300   5.128  10.172
83289SOL    HW151706   1.220   5.101  10.217
83289SOL    HW251707   1.367   5.068  10.204
83290SOL     OW51708   9.927   5.752   8.942
83290SOL    HW151709   9.976   5.825   8.904
83290SOL    HW251710   9.872   5.720   8.870
83291SOL     OW51711   2.849   2.063   2.492
83291SOL    HW151712   2.843   1.974   2.459
83291SOL    HW251713   2.768   2.105   2.464
83292SOL     OW51714  13.225   7.087   3.495
83292SOL    HW151715  13.287   7.037   3.442
83292SOL    HW251716  13.154   7.025   3.514
83293SOL     OW51717  12.655  14.195   2.040
83293SOL    HW151718  12.705  14.172   2.118
83293SOL    HW251719  12.569  14.157   2.055
83294SOL     OW51720  10.248   6.376   7.422
83294SOL    HW151721  10.167   6.341   7.459
83294SOL    HW251722  10.315   6.315   7.450
83295SOL     OW51723   0.722  10.258   8.510
83295SOL    HW151724   0.701  10.233   8.600
83295SOL    HW251725   0.662  10.205   8.457
83296SOL     OW51726   1.142   7.375   8.538
83296SOL    HW151727   1.214   7.411   8.487
83296SOL    HW251728   1.183   7.346   8.620
83297SOL     OW51729   7.257   1.439  11.910
83297SOL    HW151730   7.272   1.526  11.873
83297SOL    HW251731   7.311   1.437  11.989
83298SOL     OW51732  13.402   5.280   9.256
83298SOL    HW151733  13.380   5.228   9.179
83298SOL    HW251734  13.398   5.371   9.226
83299SOL     OW51735   5.710  11.804  14.619
83299SOL    HW151736   5.703  11.781  14.526
83299SOL    HW251737   5.732  11.721  14.663
83300SOL     OW51738  14.546   1.597   6.152
83300SOL    HW151739  14.503   1.679   6.179
83300SOL    HW251740  14.474   1.543   6.118
83301SOL     OW51741  10.763   6.387   1.711
83301SOL    HW151742  10.796   6.403   1.622
83301SOL    HW251743  10.796   6.462   1.761
83302SOL     OW51744   3.363  11.362   4.382
83302SOL    HW151745   3.348  11.329   4.471
83302SOL    HW251746   3.450  11.330   4.359
83303SOL     OW51747   5.535   4.208   7.929
83303SOL    HW151748   5.444   4.201   7.901
83303SOL    HW251749   5.584   4.159   7.864
83304SOL     OW51750  11.760   4.532   5.825
83304SOL    HW151751  11.792   4.585   5.752
83304SOL    HW251752  11.666   4.553   5.830
83305SOL     OW51753   8.324   0.489   3.986
83305SOL    HW151754   8.415   0.497   3.958
83305SOL    HW251755   8.327   0.427   4.059
83306SOL     OW51756   2.458   5.057   9.070
83306SOL    HW151757   2.432   5.127   9.011
83306SOL    HW251758   2.384   5.047   9.130
83307SOL     OW51759  13.535   8.574  13.093
83307SOL    HW151760  13.547   8.622  13.175
83307SOL    HW251761  13.622   8.571  13.054
83308SOL     OW51762   8.724  12.037   8.866
83308SOL    HW151763   8.771  12.056   8.948
83308SOL    HW251764   8.638  12.077   8.878
83309SOL     OW51765   1.953   5.507   4.491
83309SOL    HW151766   1.912   5.530   4.408
83309SOL    HW251767   2.041   5.543   4.485
83310SOL     OW51768   0.220  12.318   7.505
83310SOL    HW151769   0.127  12.312   7.483
83310SOL    HW251770   0.259  12.366   7.432
83311SOL     OW51771  11.625   7.701   0.700
83311SOL    HW151772  11.584   7.616   0.685
83311SOL    HW251773  11.563   7.748   0.755
83312SOL     OW51774   4.743   5.680   1.262
83312SOL    HW151775   4.700   5.729   1.192
83312SOL    HW251776   4.737   5.588   1.235
83313SOL     OW51777   3.178  13.322  12.474
83313SOL    HW151778   3.273  13.314  12.485
83313SOL    HW251779   3.163  13.302  12.381
83314SOL     OW51780   3.526   3.947   8.346
83314SOL    HW151781   3.614   3.955   8.383
83314SOL    HW251782   3.539   3.957   8.251
83315SOL     OW51783  10.016  10.674   8.277
83315SOL    HW151784   9.956  10.678   8.203
83315SOL    HW251785  10.037  10.581   8.285
83316SOL     OW51786  14.628   2.391  10.192
83316SOL    HW151787  14.680   2.315  10.166
83316SOL    HW251788  14.676   2.466  10.158
83317SOL     OW51789   3.840   1.879  12.198
83317SOL    HW151790   3.863   1.971  12.213
83317SOL    HW251791   3.907   1.830  12.245
83318SOL     OW51792   5.482   3.009   1.600
83318SOL    HW151793   5.542   3.034   1.671
83318SOL    HW251794   5.538   2.965   1.536
83319SOL     OW51795   6.398   1.743   1.761
83319SOL    HW151796   6.449   1.752   1.842
83319SOL    HW251797   6.463   1.745   1.691
83320SOL     OW51798   2.128  10.751  10.881
83320SOL    HW151799   2.166  10.787  10.961
83320SOL    HW251800   2.049  10.804  10.866
83321SOL     OW51801   0.614  12.101  11.965
83321SOL    HW151802   0.567  12.073  11.887
83321SOL    HW251803   0.554  12.160  12.010
83322SOL     OW51804   5.480  10.272  11.962
83322SOL    HW151805   5.519  10.188  11.938
83322SOL    HW251806   5.527  10.299  12.041
83323SOL     OW51807   3.707  10.188   5.001
83323SOL    HW151808   3.702  10.145   4.916
83323SOL    HW251809   3.617  10.186   5.034
83324SOL     OW51810  10.697   2.555   5.546
83324SOL    HW151811  10.614   2.537   5.589
83324SOL    HW251812  10.688   2.644   5.512
83325SOL     OW51813  14.082  11.700   4.071
83325SOL    HW151814  14.050  11.772   4.126
83325SOL    HW251815  14.152  11.660   4.122
83326SOL     OW51816   8.941  12.648  11.289
83326SOL    HW151817   8.909  12.570  11.244
83326SOL    HW251818   8.863  12.688  11.327
83327SOL     OW51819  11.194   1.107   9.174
83327SOL    HW151820  11.260   1.041   9.155
83327SOL    HW251821  11.225   1.151   9.253
83328SOL     OW51822   4.891   5.648  10.348
83328SOL    HW151823   4.943   5.660  10.427
83328SOL    HW251824   4.869   5.737  10.320
83329SOL     OW51825   2.563  11.017  12.236
83329SOL    HW151826   2.560  11.027  12.331
83329SOL    HW251827   2.556  10.922  12.223
83330SOL     OW51828   0.554  13.631  12.607
83330SOL    HW151829   0.570  13.725  12.605
83330SOL    HW251830   0.523  13.614  12.696
83331SOL     OW51831   2.764   3.964  10.646
83331SOL    HW151832   2.819   3.934  10.575
83331SOL    HW251833   2.785   3.906  10.719
83332SOL     OW51834  12.281   1.785   5.280
83332SOL    HW151835  12.256   1.872   5.312
83332SOL    HW251836  12.232   1.724   5.334
83333SOL     OW51837  13.498  13.902  10.824
83333SOL    HW151838  13.505  13.989  10.785
83333SOL    HW251839  13.570  13.898  10.886
83334SOL     OW51840  11.977  14.408   1.557
83334SOL    HW151841  11.976  14.337   1.493
83334SOL    HW251842  11.903  14.390   1.615
83335SOL     OW51843   1.617  11.886  13.363
83335SOL    HW151844   1.658  11.850  13.284
83335SOL    HW251845   1.531  11.843  13.367
83336SOL     OW51846   7.973   2.010  12.965
83336SOL    HW151847   7.991   2.103  12.950
83336SOL    HW251848   8.031   1.964  12.905
83337SOL     OW51849  10.208  13.873   5.899
83337SOL    HW151850  10.286  13.849   5.848
83337SOL    HW251851  10.135  13.851   5.841
83338SOL     OW51852   4.379  13.137   2.618
83338SOL    HW151853   4.345  13.222   2.646
83338SOL    HW251854   4.383  13.085   2.699
83339SOL     OW51855   1.671   3.359  12.986
83339SOL    HW151856   1.660   3.265  12.967
83339SOL    HW251857   1.685   3.363  13.080
83340SOL     OW51858  10.497   5.534   7.889
83340SOL    HW151859  10.572   5.531   7.830
83340SOL    HW251860  10.514   5.609   7.946
83341SOL     OW51861   8.272   4.119   0.376
83341SOL    HW151862   8.210   4.084   0.312
83341SOL    HW251863   8.289   4.208   0.347
83342SOL     OW51864   0.914   9.370   6.333
83342SOL    HW151865   0.876   9.421   6.405
83342SOL    HW251866   0.880   9.281   6.346
83343SOL     OW51867   7.508  10.660  13.110
83343SOL    HW151868   7.468  10.597  13.170
83343SOL    HW251869   7.602  10.649  13.124
83344SOL     OW51870   0.217   8.714   8.910
83344SOL    HW151871   0.302   8.751   8.932
83344SOL    HW251872   0.205   8.642   8.972
83345SOL     OW51873  14.765   9.639   4.801
83345SOL    HW151874  14.794   9.693   4.728
83345SOL    HW251875  14.806   9.554   4.787
83346SOL     OW51876   2.296   7.874   1.327
83346SOL    HW151877   2.388   7.862   1.303
83346SOL    HW251878   2.293   7.860   1.421
83347SOL     OW51879   6.597   5.367   8.570
83347SOL    HW151880   6.667   5.317   8.613
83347SOL    HW251881   6.643   5.421   8.506
83348SOL     OW51882  11.129  14.604  14.809
83348SOL    HW151883  11.050  14.646  14.773
83348SOL    HW251884  11.196  14.619  14.743
83349SOL     OW51885   9.735   0.698   2.413
83349SOL    HW151886   9.640   0.687   2.407
83349SOL    HW251887   9.761   0.738   2.330
83350SOL     OW51888   7.625   4.468   0.747
83350SOL    HW151889   7.708   4.487   0.704
83350SOL    HW251890   7.594   4.553   0.779
83351SOL     OW51891   2.859  14.767  12.565
83351SOL    HW151892   2.798  14.782  12.492
83351SOL    HW251893   2.920  14.700  12.532
83352SOL     OW51894   5.637   6.119  12.122
83352SOL    HW151895   5.716   6.172  12.111
83352SOL    HW251896   5.568   6.182  12.144
83353SOL     OW51897   5.292  14.322   7.562
83353SOL    HW151898   5.299  14.249   7.623
83353SOL    HW251899   5.271  14.397   7.617
83354SOL     OW51900   0.059  12.802   6.149
83354SOL    HW151901   0.077  12.895   6.166
83354SOL    HW251902   0.142  12.767   6.117
83355SOL     OW51903   4.281   9.267   7.838
83355SOL    HW151904   4.231   9.276   7.919
83355SOL    HW251905   4.334   9.188   7.850
83356SOL     OW51906  12.929   0.368   1.660
83356SOL    HW151907  12.974   0.435   1.711
83356SOL    HW251908  12.844   0.357   1.703
83357SOL     OW51909  10.666   9.648   7.998
83357SOL    HW151910  10.621   9.678   7.919
83357SOL    HW251911  10.627   9.699   8.069
83358SOL     OW51912  13.536   9.158   7.008
83358SOL    HW151913  13.447   9.168   7.042
83358SOL    HW251914  13.566   9.074   7.042
83359SOL     OW51915  12.874   7.473   2.030
83359SOL    HW151916  12.854   7.385   1.997
83359SOL    HW251917  12.921   7.457   2.112
83360SOL     OW51918   7.027  12.513   3.534
83360SOL    HW151919   6.944  12.488   3.575
83360SOL    HW251920   7.083  12.436   3.544
83361SOL     OW51921   8.482   7.244   3.132
83361SOL    HW151922   8.534   7.319   3.101
83361SOL    HW251923   8.517   7.225   3.219
83362SOL     OW51924   4.590   7.485   3.048
83362SOL    HW151925   4.520   7.550   3.037
83362SOL    HW251926   4.670   7.538   3.055
83363SOL     OW51927   4.734   1.118   8.150
83363SOL    HW151928   4.692   1.076   8.075
83363SOL    HW251929   4.826   1.128   8.123
83364SOL     OW51930   3.288   3.636   7.442
83364SOL    HW151931   3.290   3.730   7.461
83364SOL    HW251932   3.366   3.620   7.389
83365SOL     OW51933   5.433  10.415   4.208
83365SOL    HW151934   5.338  10.424   4.198
83365SOL    HW251935   5.451  10.443   4.297
83366SOL     OW51936   7.200  14.513  12.689
83366SOL    HW151937   7.118  14.490  12.645
83366SOL    HW251938   7.206  14.451  12.762
83367SOL     OW51939  12.309   8.413   2.387
83367SOL    HW151940  12.234   8.358   2.363
83367SOL    HW251941  12.338   8.378   2.472
83368SOL     OW51942  13.922   7.843   4.592
83368SOL    HW151943  13.948   7.878   4.506
83368SOL    HW251944  13.891   7.919   4.641
83369SOL     OW51945  10.857   1.294   6.053
83369SOL    HW151946  10.868   1.347   5.974
83369SOL    HW251947  10.788   1.231   6.030
83370SOL     OW51948   8.178   2.328  12.049
83370SOL    HW151949   8.137   2.402  12.004
83370SOL    HW251950   8.270   2.354  12.057
83371SOL     OW51951   2.043   4.652   6.967
83371SOL    HW151952   1.987   4.721   6.933
83371SOL    HW251953   2.048   4.588   6.896
83372SOL     OW51954   8.860  11.173  13.798
83372SOL    HW151955   8.883  11.241  13.861
83372SOL    HW251956   8.779  11.135  13.833
83373SOL     OW51957  14.495   1.527   9.448
83373SOL    HW151958  14.528   1.495   9.364
83373SOL    HW251959  14.432   1.461   9.477
83374SOL     OW51960   9.605   9.492   9.007
83374SOL    HW151961   9.652   9.452   9.079
83374SOL    HW251962   9.631   9.584   9.008
83375SOL     OW51963   1.832  12.598   3.853
83375SOL    HW151964   1.839  12.643   3.768
83375SOL    HW251965   1.739  12.585   3.866
83376SOL     OW51966  12.389   2.723   8.357
83376SOL    HW151967  12.365   2.784   8.426
83376SOL    HW251968  12.368   2.770   8.276
83377SOL     OW51969   3.076   7.009  13.911
83377SOL    HW151970   3.055   7.066  13.836
83377SOL    HW251971   3.139   6.947  13.877
83378SOL     OW51972   7.278  14.633   8.258
83378SOL    HW151973   7.286  14.588   8.342
83378SOL    HW251974   7.362  14.619   8.214
83379SOL     OW51975   0.527   9.881   5.550
83379SOL    HW151976   0.564   9.952   5.497
83379SOL    HW251977   0.544   9.802   5.499
83380SOL     OW51978   9.265   9.054   0.016
83380SOL    HW151979   9.171   9.058   0.034
83380SOL    HW251980   9.301   9.003   0.089
83381SOL     OW51981  11.741  11.374   9.921
83381SOL    HW151982  11.765  11.359  10.012
83381SOL    HW251983  11.646  11.385   9.923
83382SOL     OW51984  13.508   2.980   5.677
83382SOL    HW151985  13.519   2.936   5.593
83382SOL    HW251986  13.416   2.967   5.699
83383SOL     OW51987   0.510  14.242   7.836
83383SOL    HW151988   0.485  14.165   7.887
83383SOL    HW251989   0.604  14.249   7.847
83384SOL     OW51990  14.841  14.496   6.654
83384SOL    HW151991   0.028  14.555   6.684
83384SOL    HW251992  14.882  14.445   6.584
83385SOL     OW51993   1.974   8.943   6.488
83385SOL    HW151994   1.980   8.992   6.570
83385SOL    HW251995   1.886   8.961   6.456
83386SOL     OW51996   0.544  14.817  10.826
83386SOL    HW151997   0.600   0.011  10.840
83386SOL    HW251998   0.603  14.747  10.799
83387SOL     OW51999   6.192   4.821   1.290
83387SOL    HW152000   6.171   4.730   1.267
83387SOL    HW252001   6.267   4.843   1.235
83388SOL     OW52002   9.429   4.403  11.338
83388SOL    HW152003   9.403   4.312  11.352
83388SOL    HW252004   9.445   4.438  11.426
83389SOL     OW52005  14.859   6.675   6.215
83389SOL    HW152006   0.011   6.666   6.126
83389SOL    HW252007  14.798   6.749   6.210
83390SOL     OW52008   8.736  10.714   2.587
83390SOL    HW152009   8.805  10.692   2.649
83390SOL    HW252010   8.770  10.789   2.538
83391SOL     OW52011   4.297  12.002   0.896
83391SOL    HW152012   4.280  11.949   0.974
83391SOL    HW252013   4.303  11.938   0.825
83392SOL     OW52014   7.338   1.933   4.677
83392SOL    HW152015   7.293   1.848   4.679
83392SOL    HW252016   7.420   1.915   4.631
83393SOL     OW52017   5.731   6.004   5.103
83393SOL    HW152018   5.741   5.987   5.196
83393SOL    HW252019   5.639   5.981   5.084
83394SOL     OW52020   1.457   9.563   4.635
83394SOL    HW152021   1.502   9.637   4.595
83394SOL    HW252022   1.456   9.496   4.567
83395SOL     OW52023   1.749   8.317   8.869
83395SOL    HW152024   1.742   8.355   8.957
83395SOL    HW252025   1.758   8.223   8.885
83396SOL     OW52026   4.460   9.779   7.150
83396SOL    HW152027   4.550   9.751   7.168
83396SOL    HW252028   4.414   9.699   7.126
83397SOL     OW52029   9.148   4.699   3.664
83397SOL    HW152030   9.130   4.769   3.601
83397SOL    HW252031   9.089   4.628   3.639
83398SOL     OW52032   7.622   2.901  13.109
83398SOL    HW152033   7.584   2.900  13.197
83398SOL    HW252034   7.625   2.994  13.085
83399SOL     OW52035   8.477  13.101   7.406
83399SOL    HW152036   8.444  13.091   7.317
83399SOL    HW252037   8.564  13.061   7.404
83400SOL     OW52038   6.538   2.916   3.857
83400SOL    HW152039   6.505   3.005   3.840
83400SOL    HW252040   6.494   2.862   3.792
83401SOL     OW52041  14.621   8.768   0.104
83401SOL    HW152042  14.656   8.763   0.015
83401SOL    HW252043  14.567   8.847   0.104
83402SOL     OW52044   0.069   0.884  11.242
83402SOL    HW152045   0.043   0.972  11.267
83402SOL    HW252046   0.031   0.828  11.310
83403SOL     OW52047   4.490   8.729   7.254
83403SOL    HW152048   4.473   8.636   7.270
83403SOL    HW252049   4.433   8.774   7.316
83404SOL     OW52050   3.334   0.081   3.226
83404SOL    HW152051   3.298   0.165   3.253
83404SOL    HW252052   3.274   0.050   3.158
83405SOL     OW52053   6.688   5.130   2.883
83405SOL    HW152054   6.599   5.119   2.850
83405SOL    HW252055   6.711   5.220   2.857
83406SOL     OW52056  13.357   7.489   1.714
83406SOL    HW152057  13.296   7.424   1.749
83406SOL    HW252058  13.345   7.566   1.770
83407SOL     OW52059  13.120   6.388   2.941
83407SOL    HW152060  13.101   6.458   3.004
83407SOL    HW252061  13.058   6.318   2.964
83408SOL     OW52062   1.974   6.232   7.241
83408SOL    HW152063   2.068   6.215   7.241
83408SOL    HW252064   1.960   6.296   7.310
83409SOL     OW52065   9.235  12.974   5.613
83409SOL    HW152066   9.246  12.915   5.539
83409SOL    HW252067   9.320  12.972   5.657
83410SOL     OW52068   3.390  11.224   4.681
83410SOL    HW152069   3.445  11.214   4.758
83410SOL    HW252070   3.315  11.168   4.697
83411SOL     OW52071  10.380   1.977  13.251
83411SOL    HW152072  10.470   1.952  13.231
83411SOL    HW252073  10.385   2.069  13.275
83412SOL     OW52074  12.511   4.411  11.909
83412SOL    HW152075  12.488   4.493  11.865
83412SOL    HW252076  12.607   4.411  11.910
83413SOL     OW52077  10.388   5.476   6.216
83413SOL    HW152078  10.459   5.490   6.154
83413SOL    HW252079  10.335   5.556   6.212
83414SOL     OW52080  13.258   3.519   0.366
83414SOL    HW152081  13.341   3.490   0.403
83414SOL    HW252082  13.270   3.612   0.349
83415SOL     OW52083  14.443   3.512  11.147
83415SOL    HW152084  14.467   3.578  11.212
83415SOL    HW252085  14.368   3.550  11.102
83416SOL     OW52086   2.400   2.211  14.133
83416SOL    HW152087   2.495   2.207  14.144
83416SOL    HW252088   2.366   2.232  14.220
83417SOL     OW52089   9.683   1.091   0.673
83417SOL    HW152090   9.667   1.040   0.594
83417SOL    HW252091   9.659   1.180   0.649
83418SOL     OW52092   8.177   1.423   4.571
83418SOL    HW152093   8.200   1.353   4.632
83418SOL    HW252094   8.113   1.476   4.619
83419SOL     OW52095   2.829   2.982   9.811
83419SOL    HW152096   2.811   3.063   9.763
83419SOL    HW252097   2.744   2.938   9.817
83420SOL     OW52098  12.410  12.879   5.984
83420SOL    HW152099  12.367  12.831   6.055
83420SOL    HW252100  12.495  12.904   6.020
83421SOL     OW52101   5.678   5.667   3.215
83421SOL    HW152102   5.720   5.745   3.178
83421SOL    HW252103   5.585   5.689   3.216
83422SOL     OW52104  12.620   2.632   4.156
83422SOL    HW152105  12.610   2.613   4.063
83422SOL    HW252106  12.555   2.700   4.174
83423SOL     OW52107   8.646   2.510  12.547
83423SOL    HW152108   8.652   2.603  12.566
83423SOL    HW252109   8.726   2.473  12.583
83424SOL     OW52110   2.310   6.584  10.208
83424SOL    HW152111   2.388   6.630  10.240
83424SOL    HW252112   2.263   6.649  10.157
83425SOL     OW52113   3.229   5.462   7.332
83425SOL    HW152114   3.288   5.451   7.407
83425SOL    HW252115   3.237   5.381   7.283
83426SOL     OW52116   7.184   7.658   4.308
83426SOL    HW152117   7.235   7.578   4.293
83426SOL    HW252118   7.238   7.727   4.271
83427SOL     OW52119  11.543   9.670   5.363
83427SOL    HW152120  11.629   9.709   5.351
83427SOL    HW252121  11.537   9.652   5.457
83428SOL     OW52122   0.823   0.614  12.699
83428SOL    HW152123   0.812   0.580  12.787
83428SOL    HW252124   0.909   0.581  12.672
83429SOL     OW52125   5.644   8.235  14.710
83429SOL    HW152126   5.651   8.327  14.734
83429SOL    HW252127   5.594   8.196  14.782
83430SOL     OW52128   7.445   5.895   8.285
83430SOL    HW152129   7.376   5.941   8.332
83430SOL    HW252130   7.399   5.837   8.225
83431SOL     OW52131   0.334  12.444   8.212
83431SOL    HW152132   0.238  12.435   8.216
83431SOL    HW252133   0.347  12.529   8.170
83432SOL     OW52134   2.334   9.627  13.208
83432SOL    HW152135   2.419   9.598  13.242
83432SOL    HW252136   2.354   9.708  13.161
83433SOL     OW52137   2.410   8.707   3.466
83433SOL    HW152138   2.402   8.663   3.381
83433SOL    HW252139   2.407   8.800   3.446
83434SOL     OW52140   2.035  11.485   1.389
83434SOL    HW152141   1.997  11.457   1.305
83434SOL    HW252142   2.076  11.406   1.424
83435SOL     OW52143  14.637  10.480   2.128
83435SOL    HW152144  14.732  10.488   2.128
83435SOL    HW252145  14.616  10.450   2.217
83436SOL     OW52146   7.102  13.476   6.760
83436SOL    HW152147   7.159  13.442   6.828
83436SOL    HW252148   7.018  13.434   6.776
83437SOL     OW52149   4.665   1.262   8.860
83437SOL    HW152150   4.728   1.278   8.789
83437SOL    HW252151   4.584   1.301   8.828
83438SOL     OW52152  13.256   4.088   3.601
83438SOL    HW152153  13.180   4.144   3.618
83438SOL    HW252154  13.238   4.007   3.648
83439SOL     OW52155   5.470   0.454   7.596
83439SOL    HW152156   5.466   0.490   7.507
83439SOL    HW252157   5.447   0.361   7.585
83440SOL     OW52158  11.057  10.230   2.832
83440SOL    HW152159  11.024  10.302   2.777
83440SOL    HW252160  10.986  10.212   2.893
83441SOL     OW52161   6.155   5.241   4.038
83441SOL    HW152162   6.190   5.329   4.023
83441SOL    HW252163   6.172   5.194   3.956
83442SOL     OW52164   2.914   0.959   7.442
83442SOL    HW152165   2.818   0.950   7.443
83442SOL    HW252166   2.930   1.034   7.500
83443SOL     OW52167  12.469  14.716   5.449
83443SOL    HW152168  12.437  14.699   5.360
83443SOL    HW252169  12.449  14.636   5.498
83444SOL     OW52170   3.984  12.499   5.343
83444SOL    HW152171   3.971  12.522   5.251
83444SOL    HW252172   3.897  12.509   5.383
83445SOL     OW52173  11.990  11.976  12.017
83445SOL    HW152174  11.967  11.944  12.105
83445SOL    HW252175  11.987  11.899  11.961
83446SOL     OW52176   6.082  13.517  10.082
83446SOL    HW152177   6.018  13.586  10.098
83446SOL    HW252178   6.157  13.541  10.137
83447SOL     OW52179   2.380   4.384   3.023
83447SOL    HW152180   2.300   4.394   2.972
83447SOL    HW252181   2.442   4.445   2.984
83448SOL     OW52182   1.526   5.596   1.625
83448SOL    HW152183   1.473   5.622   1.548
83448SOL    HW252184   1.536   5.502   1.616
83449SOL     OW52185   3.577   2.628  12.166
83449SOL    HW152186   3.556   2.721  12.163
83449SOL    HW252187   3.664   2.624  12.205
83450SOL     OW52188   6.006   3.886   5.505
83450SOL    HW152189   5.950   3.809   5.503
83450SOL    HW252190   6.088   3.855   5.545
83451SOL     OW52191   0.379  11.729   6.733
83451SOL    HW152192   0.447  11.782   6.691
83451SOL    HW252193   0.297  11.759   6.694
83452SOL     OW52194   1.681   3.006   0.826
83452SOL    HW152195   1.675   3.093   0.786
83452SOL    HW252196   1.775   2.985   0.823
83453SOL     OW52197   9.691   5.411   2.487
83453SOL    HW152198   9.654   5.333   2.446
83453SOL    HW252199   9.657   5.484   2.435
83454SOL     OW52200  11.067   8.395  10.098
83454SOL    HW152201  11.104   8.328  10.155
83454SOL    HW252202  10.973   8.392  10.115
83455SOL     OW52203   3.277   1.032  10.451
83455SOL    HW152204   3.238   0.988  10.526
83455SOL    HW252205   3.222   1.009  10.377
83456SOL     OW52206  11.394   0.096  14.678
83456SOL    HW152207  11.368   0.182  14.645
83456SOL    HW252208  11.391   0.039  14.601
83457SOL     OW52209   8.940   5.708   6.380
83457SOL    HW152210   9.014   5.762   6.353
83457SOL    HW252211   8.881   5.768   6.425
83458SOL     OW52212   6.797   2.036   0.749
83458SOL    HW152213   6.820   2.129   0.746
83458SOL    HW252214   6.868   1.993   0.700
83459SOL     OW52215  11.212  12.212   6.313
83459SOL    HW152216  11.138  12.179   6.262
83459SOL    HW252217  11.282  12.224   6.249
83460SOL     OW52218   9.174   1.552   3.498
83460SOL    HW152219   9.152   1.464   3.467
83460SOL    HW252220   9.269   1.559   3.483
83461SOL     OW52221   2.023   6.663   8.411
83461SOL    HW152222   1.986   6.740   8.370
83461SOL    HW252223   2.109   6.692   8.443
83462SOL     OW52224  13.846  12.134   1.622
83462SOL    HW152225  13.905  12.194   1.575
83462SOL    HW252226  13.783  12.192   1.666
83463SOL     OW52227   9.156  11.717   8.868
83463SOL    HW152228   9.229  11.707   8.806
83463SOL    HW252229   9.169  11.646   8.931
83464SOL     OW52230   2.360  12.058  10.555
83464SOL    HW152231   2.300  12.078  10.483
83464SOL    HW252232   2.423  11.996  10.518
83465SOL     OW52233   8.784   2.397   5.213
83465SOL    HW152234   8.877   2.420   5.212
83465SOL    HW252235   8.746   2.452   5.281
83466SOL     OW52236   9.084   9.231  11.820
83466SOL    HW152237   9.072   9.139  11.844
83466SOL    HW252238   9.057   9.236  11.729
83467SOL     OW52239   6.551   2.266   0.323
83467SOL    HW152240   6.594   2.227   0.247
83467SOL    HW252241   6.577   2.211   0.397
83468SOL     OW52242   8.212   2.998   6.764
83468SOL    HW152243   8.276   2.950   6.711
83468SOL    HW252244   8.265   3.054   6.821
83469SOL     OW52245   1.166  13.001   6.348
83469SOL    HW152246   1.112  13.070   6.309
83469SOL    HW252247   1.150  13.008   6.442
83470SOL     OW52248   5.895   1.853   1.761
83470SOL    HW152249   5.934   1.826   1.844
83470SOL    HW252250   5.896   1.949   1.764
83471SOL     OW52251  14.758  13.396   9.204
83471SOL    HW152252  14.689  13.395   9.137
83471SOL    HW252253  14.748  13.311   9.248
83472SOL     OW52254   9.704   2.838   2.053
83472SOL    HW152255   9.609   2.838   2.064
83472SOL    HW252256   9.729   2.746   2.056
83473SOL     OW52257   7.898   5.131   1.577
83473SOL    HW152258   7.992   5.130   1.560
83473SOL    HW252259   7.891   5.122   1.672
83474SOL     OW52260   6.334  14.409   3.109
83474SOL    HW152261   6.251  14.422   3.154
83474SOL    HW252262   6.400  14.420   3.178
83475SOL     OW52263  13.942   7.014  11.144
83475SOL    HW152264  13.944   6.925  11.178
83475SOL    HW252265  14.010   7.016  11.077
83476SOL     OW52266   0.677  12.086   9.426
83476SOL    HW152267   0.772  12.076   9.414
83476SOL    HW252268   0.653  12.015   9.486
83477SOL     OW52269   2.081   1.159  10.475
83477SOL    HW152270   2.094   1.245  10.435
83477SOL    HW252271   2.151   1.153  10.541
83478SOL     OW52272   1.543   1.093  12.310
83478SOL    HW152273   1.509   1.007  12.333
83478SOL    HW252274   1.542   1.093  12.214
83479SOL     OW52275   4.740  10.198   6.065
83479SOL    HW152276   4.735  10.288   6.032
83479SOL    HW252277   4.777  10.148   5.993
83480SOL     OW52278  14.708   2.160   0.669
83480SOL    HW152279  14.619   2.179   0.640
83480SOL    HW252280  14.761   2.172   0.590
83481SOL     OW52281   7.777  13.980  12.053
83481SOL    HW152282   7.727  14.028  12.119
83481SOL    HW252283   7.742  14.011  11.970
83482SOL     OW52284   6.746   4.571   1.672
83482SOL    HW152285   6.789   4.560   1.756
83482SOL    HW252286   6.691   4.648   1.683
83483SOL     OW52287   7.273  12.651   2.168
83483SOL    HW152288   7.245  12.678   2.256
83483SOL    HW252289   7.201  12.597   2.135
83484SOL     OW52290  13.921   2.922   1.253
83484SOL    HW152291  13.942   3.004   1.208
83484SOL    HW252292  13.980   2.921   1.329
83485SOL     OW52293   3.438  14.114  12.925
83485SOL    HW152294   3.382  14.168  12.980
83485SOL    HW252295   3.434  14.027  12.964
83486SOL     OW52296   3.597   1.417   3.598
83486SOL    HW152297   3.552   1.338   3.631
83486SOL    HW252298   3.640   1.453   3.675
83487SOL     OW52299   8.767  11.119  10.187
83487SOL    HW152300   8.721  11.202  10.175
83487SOL    HW252301   8.793  11.093  10.098
83488SOL     OW52302   2.650  14.668   3.330
83488SOL    HW152303   2.570  14.628   3.364
83488SOL    HW252304   2.717  14.601   3.340
83489SOL     OW52305   4.469   0.412  11.220
83489SOL    HW152306   4.402   0.447  11.162
83489SOL    HW252307   4.527   0.362  11.163
83490SOL     OW52308   9.365   7.036   5.184
83490SOL    HW152309   9.427   6.964   5.187
83490SOL    HW252310   9.406   7.106   5.235
83491SOL     OW52311  11.484   7.254  13.133
83491SOL    HW152312  11.516   7.213  13.053
83491SOL    HW252313  11.563   7.285  13.178
83492SOL     OW52314   9.945  12.900   4.063
83492SOL    HW152315   9.996  12.955   4.122
83492SOL    HW252316   9.983  12.813   4.072
83493SOL     OW52317  14.605   7.855  12.254
83493SOL    HW152318  14.560   7.924  12.304
83493SOL    HW252319  14.543   7.782  12.253
83494SOL     OW52320  13.587  14.300  10.133
83494SOL    HW152321  13.577  14.334  10.044
83494SOL    HW252322  13.506  14.326  10.177
83495SOL     OW52323  10.341  11.262   2.560
83495SOL    HW152324  10.293  11.184   2.532
83495SOL    HW252325  10.295  11.335   2.517
83496SOL     OW52326   9.953  11.537  14.206
83496SOL    HW152327   9.910  11.471  14.152
83496SOL    HW252328   9.883  11.597  14.231
83497SOL     OW52329  12.994   1.112   8.236
83497SOL    HW152330  13.010   1.155   8.152
83497SOL    HW252331  13.017   1.020   8.222
83498SOL     OW52332   3.909  10.688  13.049
83498SOL    HW152333   3.842  10.734  13.099
83498SOL    HW252334   3.967  10.651  13.115
83499SOL     OW52335  10.021   9.821   8.743
83499SOL    HW152336   9.989   9.731   8.747
83499SOL    HW252337   9.988   9.854   8.659
83500SOL     OW52338   5.421   4.420   9.633
83500SOL    HW152339   5.509   4.401   9.600
83500SOL    HW252340   5.385   4.483   9.570
83501SOL     OW52341   0.440  10.064   0.204
83501SOL    HW152342   0.532  10.045   0.189
83501SOL    HW252343   0.415  10.119   0.130
83502SOL     OW52344   9.565   8.433   4.339
83502SOL    HW152345   9.605   8.361   4.291
83502SOL    HW252346   9.514   8.481   4.274
83503SOL     OW52347   0.258  13.994   4.264
83503SOL    HW152348   0.236  14.084   4.240
83503SOL    HW252349   0.182  13.961   4.311
83504SOL     OW52350  13.357   7.246  10.580
83504SOL    HW152351  13.411   7.314  10.620
83504SOL    HW252352  13.298   7.218  10.650
83505SOL     OW52353   9.517  13.573  10.403
83505SOL    HW152354   9.518  13.526  10.486
83505SOL    HW252355   9.609  13.590  10.384
83506SOL     OW52356   3.030   4.864  12.118
83506SOL    HW152357   3.065   4.801  12.056
83506SOL    HW252358   2.969   4.918  12.066
83507SOL     OW52359   4.944   2.626   4.027
83507SOL    HW152360   4.987   2.635   3.942
83507SOL    HW252361   4.907   2.713   4.044
83508SOL     OW52362  11.687   8.360  14.187
83508SOL    HW152363  11.694   8.440  14.134
83508SOL    HW252364  11.725   8.383  14.272
83509SOL     OW52365   5.389   4.676   2.899
83509SOL    HW152366   5.385   4.711   2.810
83509SOL    HW252367   5.308   4.627   2.909
83510SOL     OW52368   6.163   5.845  10.846
83510SOL    HW152369   6.157   5.752  10.870
83510SOL    HW252370   6.211   5.845  10.763
83511SOL     OW52371   0.426   1.094   6.698
83511SOL    HW152372   0.499   1.127   6.646
83511SOL    HW252373   0.403   1.166   6.755
83512SOL     OW52374   1.657   1.684  12.837
83512SOL    HW152375   1.575   1.636  12.850
83512SOL    HW252376   1.689   1.701  12.926
83513SOL     OW52377   4.097   6.094   3.029
83513SOL    HW152378   4.022   6.040   3.057
83513SOL    HW252379   4.133   6.048   2.954
83514SOL     OW52380   1.416  10.594   4.905
83514SOL    HW152381   1.338  10.546   4.878
83514SOL    HW252382   1.418  10.584   5.000
83515SOL     OW52383  12.532   2.260  10.849
83515SOL    HW152384  12.550   2.174  10.810
83515SOL    HW252385  12.455   2.245  10.905
83516SOL     OW52386   1.037  12.367   4.418
83516SOL    HW152387   0.956  12.325   4.387
83516SOL    HW252388   1.012  12.458   4.433
83517SOL     OW52389   0.442   1.596   2.773
83517SOL    HW152390   0.394   1.654   2.833
83517SOL    HW252391   0.461   1.651   2.697
83518SOL     OW52392   2.352   7.349   3.987
83518SOL    HW152393   2.407   7.418   3.949
83518SOL    HW252394   2.281   7.397   4.030
83519SOL     OW52395  14.232   4.997   8.927
83519SOL    HW152396  14.302   5.053   8.895
83519SOL    HW252397  14.189   5.048   8.995
83520SOL     OW52398  13.342   5.549   5.416
83520SOL    HW152399  13.382   5.602   5.347
83520SOL    HW252400  13.251   5.537   5.387
83521SOL     OW52401   2.966   2.824   4.877
83521SOL    HW152402   3.043   2.852   4.827
83521SOL    HW252403   3.003   2.793   4.960
83522SOL     OW52404  13.658   2.938  12.713
83522SOL    HW152405  13.663   3.020  12.663
83522SOL    HW252406  13.582   2.950  12.770
83523SOL     OW52407   5.335   7.448   1.993
83523SOL    HW152408   5.246   7.462   1.960
83523SOL    HW252409   5.390   7.443   1.915
83524SOL     OW52410   3.609   3.209  11.191
83524SOL    HW152411   3.514   3.206  11.202
83524SOL    HW252412   3.626   3.293  11.148
83525SOL     OW52413   6.240   2.460   9.773
83525SOL    HW152414   6.163   2.481   9.720
83525SOL    HW252415   6.308   2.519   9.740
83526SOL     OW52416   9.385   2.048   7.483
83526SOL    HW152417   9.468   2.077   7.445
83526SOL    HW252418   9.319   2.078   7.421
83527SOL     OW52419   8.216  14.619  10.276
83527SOL    HW152420   8.147  14.679  10.304
83527SOL    HW252421   8.223  14.555  10.346
83528SOL     OW52422   0.065   4.524  11.613
83528SOL    HW152423   0.148   4.551  11.653
83528SOL    HW252424   0.011   4.496  11.687
83529SOL     OW52425   7.413   9.237   0.653
83529SOL    HW152426   7.383   9.256   0.564
83529SOL    HW252427   7.507   9.220   0.643
83530SOL     OW52428   4.266   6.194   4.230
83530SOL    HW152429   4.171   6.183   4.230
83530SOL    HW252430   4.300   6.105   4.230
83531SOL     OW52431  13.815   1.897  12.977
83531SOL    HW152432  13.808   1.867  13.067
83531SOL    HW252433  13.745   1.960  12.966
83532SOL     OW52434   6.432   9.471  13.604
83532SOL    HW152435   6.386   9.544  13.562
83532SOL    HW252436   6.493   9.439  13.537
83533SOL     OW52437  14.471   3.079  12.481
83533SOL    HW152438  14.376   3.082  12.490
83533SOL    HW252439  14.486   3.020  12.406
83534SOL     OW52440   1.007   8.983   9.227
83534SOL    HW152441   0.963   9.040   9.164
83534SOL    HW252442   1.063   8.926   9.174
83535SOL     OW52443   2.073   9.943   9.201
83535SOL    HW152444   2.057   9.924   9.108
83535SOL    HW252445   2.161   9.910   9.217
83536SOL     OW52446  13.422   0.851   5.819
83536SOL    HW152447  13.410   0.942   5.790
83536SOL    HW252448  13.494   0.855   5.882
83537SOL     OW52449   7.655   1.579   2.563
83537SOL    HW152450   7.631   1.614   2.649
83537SOL    HW252451   7.727   1.635   2.533
83538SOL     OW52452   9.041  14.381   6.966
83538SOL    HW152453   9.039  14.308   7.028
83538SOL    HW252454   9.133  14.406   6.962
83539SOL     OW52455   8.079  11.805   6.402
83539SOL    HW152456   8.147  11.795   6.468
83539SOL    HW252457   8.024  11.727   6.411
83540SOL     OW52458   8.381  10.598   4.807
83540SOL    HW152459   8.343  10.510   4.805
83540SOL    HW252460   8.315  10.651   4.852
83541SOL     OW52461  10.402  12.615  12.886
83541SOL    HW152462  10.372  12.701  12.915
83541SOL    HW252463  10.498  12.622  12.885
83542SOL     OW52464   9.039   6.079   1.486
83542SOL    HW152465   9.120   6.122   1.510
83542SOL    HW252466   9.051   6.055   1.394
83543SOL     OW52467  11.733   2.647  10.474
83543SOL    HW152468  11.805   2.586  10.493
83543SOL    HW252469  11.777   2.731  10.460
83544SOL     OW52470   6.582   5.231  11.892
83544SOL    HW152471   6.524   5.168  11.849
83544SOL    HW252472   6.574   5.210  11.985
83545SOL     OW52473   0.617   6.187   1.295
83545SOL    HW152474   0.626   6.126   1.222
83545SOL    HW252475   0.707   6.209   1.320
83546SOL     OW52476   8.336  10.368  13.231
83546SOL    HW152477   8.416  10.352  13.279
83546SOL    HW252478   8.287  10.286  13.237
83547SOL     OW52479   0.812  14.362   9.867
83547SOL    HW152480   0.754  14.366   9.791
83547SOL    HW252481   0.754  14.343   9.941
83548SOL     OW52482   6.112   6.060   3.553
83548SOL    HW152483   6.162   6.026   3.480
83548SOL    HW252484   6.026   6.020   3.544
83549SOL     OW52485  14.093   2.248   4.098
83549SOL    HW152486  14.084   2.315   4.166
83549SOL    HW252487  14.148   2.288   4.031
83550SOL     OW52488   1.999   1.808   1.775
83550SOL    HW152489   1.945   1.760   1.712
83550SOL    HW252490   2.087   1.772   1.763
83551SOL     OW52491  14.478  10.755  14.830
83551SOL    HW152492  14.466  10.662  14.814
83551SOL    HW252493  14.559  10.777  14.784
83552SOL     OW52494   2.853   3.755   3.767
83552SOL    HW152495   2.885   3.732   3.854
83552SOL    HW252496   2.886   3.844   3.752
83553SOL     OW52497  11.148  10.629  13.602
83553SOL    HW152498  11.160  10.573  13.679
83553SOL    HW252499  11.073  10.684  13.624
83554SOL     OW52500   3.319   3.199  13.802
83554SOL    HW152501   3.313   3.292  13.782
83554SOL    HW252502   3.287   3.155  13.723
83555SOL     OW52503  14.283   3.296   3.209
83555SOL    HW152504  14.350   3.255   3.153
83555SOL    HW252505  14.219   3.331   3.148
83556SOL     OW52506   3.173   9.749   8.634
83556SOL    HW152507   3.231   9.776   8.704
83556SOL    HW252508   3.231   9.734   8.559
83557SOL     OW52509   9.726   6.370   7.978
83557SOL    HW152510   9.654   6.342   8.035
83557SOL    HW252511   9.700   6.456   7.947
83558SOL     OW52512  10.430   5.692   8.337
83558SOL    HW152513  10.402   5.660   8.423
83558SOL    HW252514  10.348   5.720   8.295
83559SOL     OW52515   0.593   8.760   9.613
83559SOL    HW152516   0.667   8.802   9.569
83559SOL    HW252517   0.516   8.804   9.579
83560SOL     OW52518   9.137  11.131  11.451
83560SOL    HW152519   9.049  11.166  11.469
83560SOL    HW252520   9.184  11.205  11.411
83561SOL     OW52521   5.860   3.201   1.506
83561SOL    HW152522   5.901   3.115   1.500
83561SOL    HW252523   5.932   3.260   1.529
83562SOL     OW52524   9.345  11.553   2.651
83562SOL    HW152525   9.373  11.579   2.738
83562SOL    HW252526   9.259  11.511   2.665
83563SOL     OW52527   8.735   7.626   5.334
83563SOL    HW152528   8.691   7.664   5.411
83563SOL    HW252529   8.680   7.653   5.260
83564SOL     OW52530   3.340  13.264   1.087
83564SOL    HW152531   3.407  13.332   1.093
83564SOL    HW252532   3.263  13.302   1.130
83565SOL     OW52533   5.311   2.068  11.720
83565SOL    HW152534   5.231   2.038  11.762
83565SOL    HW252535   5.291   2.067  11.626
83566SOL     OW52536  12.124   2.386   6.638
83566SOL    HW152537  12.089   2.328   6.705
83566SOL    HW252538  12.144   2.467   6.685
83567SOL     OW52539   5.932   0.990  11.099
83567SOL    HW152540   5.845   1.015  11.068
83567SOL    HW252541   5.918   0.907  11.144
83568SOL     OW52542   1.633   0.397   9.867
83568SOL    HW152543   1.703   0.463   9.863
83568SOL    HW252544   1.559   0.442   9.906
83569SOL     OW52545   1.880  11.356  13.409
83569SOL    HW152546   1.892  11.337  13.502
83569SOL    HW252547   1.954  11.411  13.385
83570SOL     OW52548   4.196   5.221  10.780
83570SOL    HW152549   4.150   5.302  10.801
83570SOL    HW252550   4.157   5.156  10.839
83571SOL     OW52551   0.802  13.886  10.450
83571SOL    HW152552   0.820  13.971  10.490
83571SOL    HW252553   0.807  13.824  10.522
83572SOL     OW52554   2.599  10.713   6.050
83572SOL    HW152555   2.516  10.706   6.003
83572SOL    HW252556   2.577  10.756   6.132
83573SOL     OW52557   2.374   6.426   1.545
83573SOL    HW152558   2.432   6.501   1.558
83573SOL    HW252559   2.419   6.372   1.480
83574SOL     OW52560  10.430   7.612   5.476
83574SOL    HW152561  10.341   7.609   5.440
83574SOL    HW252562  10.482   7.558   5.417
83575SOL     OW52563   1.934   4.323  10.144
83575SOL    HW152564   2.025   4.297  10.150
83575SOL    HW252565   1.890   4.249  10.102
83576SOL     OW52566   2.928  12.312   0.751
83576SOL    HW152567   2.959  12.326   0.840
83576SOL    HW252568   2.832  12.318   0.758
83577SOL     OW52569  12.798   5.050  10.059
83577SOL    HW152570  12.803   5.146  10.059
83577SOL    HW252571  12.715   5.030  10.101
83578SOL     OW52572   8.882   0.799   2.590
83578SOL    HW152573   8.850   0.763   2.673
83578SOL    HW252574   8.954   0.741   2.565
83579SOL     OW52575   2.132   9.378   7.169
83579SOL    HW152576   2.199   9.415   7.226
83579SOL    HW252577   2.114   9.292   7.206
83580SOL     OW52578  13.637   9.348  12.557
83580SOL    HW152579  13.703   9.411  12.586
83580SOL    HW252580  13.600   9.313  12.639
83581SOL     OW52581   5.381   9.050   4.445
83581SOL    HW152582   5.427   8.994   4.383
83581SOL    HW252583   5.402   9.139   4.417
83582SOL     OW52584   2.061  10.099   6.230
83582SOL    HW152585   2.049  10.193   6.219
83582SOL    HW252586   1.992  10.074   6.292
83583SOL     OW52587  10.659   8.490  12.029
83583SOL    HW152588  10.714   8.488  11.950
83583SOL    HW252589  10.574   8.458  11.999
83584SOL     OW52590  11.322   9.328   9.840
83584SOL    HW152591  11.268   9.405   9.859
83584SOL    HW252592  11.305   9.308   9.748
83585SOL     OW52593  13.161   3.114   9.747
83585SOL    HW152594  13.231   3.060   9.784
83585SOL    HW252595  13.198   3.147   9.664
83586SOL     OW52596   0.132   7.698   3.909
83586SOL    HW152597   0.165   7.608   3.911
83586SOL    HW252598   0.039   7.688   3.889
83587SOL     OW52599  10.913   5.187   4.415
83587SOL    HW152600  10.898   5.279   4.436
83587SOL    HW252601  10.840   5.141   4.456
83588SOL     OW52602  13.439  10.068  11.536
83588SOL    HW152603  13.493  10.130  11.586
83588SOL    HW252604  13.488  10.053  11.455
83589SOL     OW52605  13.716   4.498   2.011
83589SOL    HW152606  13.776   4.527   2.080
83589SOL    HW252607  13.752   4.535   1.930
83590SOL     OW52608  12.161   8.830   2.942
83590SOL    HW152609  12.177   8.843   3.035
83590SOL    HW252610  12.075   8.869   2.926
83591SOL     OW52611   3.383   5.157   8.290
83591SOL    HW152612   3.408   5.066   8.275
83591SOL    HW252613   3.295   5.152   8.328
83592SOL     OW52614   0.525  10.356   9.346
83592SOL    HW152615   0.469  10.279   9.353
83592SOL    HW252616   0.599  10.328   9.293
83593SOL     OW52617   7.950   8.932  14.004
83593SOL    HW152618   7.994   8.898  13.927
83593SOL    HW252619   8.020   8.966  14.059
83594SOL     OW52620   4.436  10.602   5.287
83594SOL    HW152621   4.346  10.625   5.265
83594SOL    HW252622   4.489  10.652   5.225
83595SOL     OW52623   9.884   9.263   4.901
83595SOL    HW152624   9.876   9.339   4.844
83595SOL    HW252625   9.901   9.190   4.840
83596SOL     OW52626   4.848   4.452   9.834
83596SOL    HW152627   4.927   4.503   9.813
83596SOL    HW252628   4.804   4.503   9.902
83597SOL     OW52629   8.320  12.282  12.395
83597SOL    HW152630   8.375  12.337  12.338
83597SOL    HW252631   8.348  12.193  12.376
83598SOL     OW52632   8.669  14.578  14.354
83598SOL    HW152633   8.667  14.625  14.270
83598SOL    HW252634   8.754  14.601  14.392
83599SOL     OW52635   5.407   9.013  13.286
83599SOL    HW152636   5.318   9.038  13.309
83599SOL    HW252637   5.420   9.049  13.198
83600SOL     OW52638   5.889   0.247   2.451
83600SOL    HW152639   5.864   0.336   2.476
83600SOL    HW252640   5.974   0.256   2.410
83601SOL     OW52641   6.406  10.566   9.122
83601SOL    HW152642   6.340  10.562   9.192
83601SOL    HW252643   6.417  10.659   9.105
83602SOL     OW52644  14.355  13.003   2.342
83602SOL    HW152645  14.352  13.062   2.418
83602SOL    HW252646  14.428  12.945   2.360
83603SOL     OW52647   5.514   5.040  11.515
83603SOL    HW152648   5.419   5.045  11.524
83603SOL    HW252649   5.542   5.131  11.501
83604SOL     OW52650  11.259  13.270   5.209
83604SOL    HW152651  11.293  13.357   5.230
83604SOL    HW252652  11.176  13.264   5.257
83605SOL     OW52653   3.433   3.747  13.138
83605SOL    HW152654   3.398   3.730  13.051
83605SOL    HW252655   3.406   3.837  13.157
83606SOL     OW52656   2.854   4.961   2.551
83606SOL    HW152657   2.814   4.995   2.470
83606SOL    HW252658   2.912   5.032   2.580
83607SOL     OW52659  11.888   6.142   2.562
83607SOL    HW152660  11.837   6.141   2.482
83607SOL    HW252661  11.908   6.050   2.579
83608SOL     OW52662  10.860   8.620   7.519
83608SOL    HW152663  10.795   8.672   7.565
83608SOL    HW252664  10.841   8.530   7.544
83609SOL     OW52665   1.503   3.705  13.198
83609SOL    HW152666   1.568   3.660  13.252
83609SOL    HW252667   1.520   3.673  13.110
83610SOL     OW52668   1.531  13.436   7.696
83610SOL    HW152669   1.550  13.509   7.637
83610SOL    HW252670   1.533  13.475   7.784
83611SOL     OW52671   4.835   2.743   6.648
83611SOL    HW152672   4.812   2.651   6.652
83611SOL    HW252673   4.774   2.787   6.706
83612SOL     OW52674   6.992  14.772   0.431
83612SOL    HW152675   7.055  14.724   0.485
83612SOL    HW252676   7.043  14.803   0.356
83613SOL     OW52677  13.409   7.381  10.976
83613SOL    HW152678  13.463   7.411  10.903
83613SOL    HW252679  13.319   7.398  10.948
83614SOL     OW52680   9.541   0.461   3.716
83614SOL    HW152681   9.569   0.552   3.730
83614SOL    HW252682   9.479   0.466   3.643
83615SOL     OW52683  12.440  14.167   6.520
83615SOL    HW152684  12.366  14.119   6.483
83615SOL    HW252685  12.447  14.135   6.610
83616SOL     OW52686  11.910   9.309   9.331
83616SOL    HW152687  11.969   9.254   9.383
83616SOL    HW252688  11.825   9.299   9.372
83617SOL     OW52689   8.134  13.619   2.094
83617SOL    HW152690   8.162  13.694   2.043
83617SOL    HW252691   8.122  13.549   2.030
83618SOL     OW52692  13.326   0.477   4.678
83618SOL    HW152693  13.380   0.454   4.753
83618SOL    HW252694  13.251   0.416   4.683
83619SOL     OW52695  11.651   7.833  12.260
83619SOL    HW152696  11.586   7.890  12.302
83619SOL    HW252697  11.664   7.870  12.173
83620SOL     OW52698  11.120   0.744  13.051
83620SOL    HW152699  11.104   0.651  13.039
83620SOL    HW252700  11.035   0.786  13.040
83621SOL     OW52701   5.769  10.869   8.562
83621SOL    HW152702   5.763  10.888   8.655
83621SOL    HW252703   5.862  10.869   8.542
83622SOL     OW52704   7.895   1.908  11.673
83622SOL    HW152705   7.810   1.945  11.696
83622SOL    HW252706   7.933   1.971  11.612
83623SOL     OW52707   8.032   4.413   0.842
83623SOL    HW152708   7.976   4.480   0.881
83623SOL    HW252709   8.055   4.448   0.756
83624SOL     OW52710   0.506  12.495   9.169
83624SOL    HW152711   0.599  12.479   9.189
83624SOL    HW252712   0.466  12.514   9.254
83625SOL     OW52713   8.687   9.287   3.847
83625SOL    HW152714   8.644   9.367   3.876
83625SOL    HW252715   8.617   9.223   3.839
83626SOL     OW52716   8.955   3.464  10.931
83626SOL    HW152717   8.939   3.495  11.020
83626SOL    HW252718   9.049   3.477  10.918
83627SOL     OW52719  14.233   1.588   0.833
83627SOL    HW152720  14.208   1.503   0.796
83627SOL    HW252721  14.308   1.569   0.889
83628SOL     OW52722   8.719   0.066   5.812
83628SOL    HW152723   8.672   0.136   5.859
83628SOL    HW252724   8.652   0.025   5.758
83629SOL     OW52725   6.453   5.255   5.511
83629SOL    HW152726   6.504   5.209   5.578
83629SOL    HW252727   6.476   5.348   5.524
83630SOL     OW52728  10.353   2.459   4.296
83630SOL    HW152729  10.263   2.481   4.272
83630SOL    HW252730  10.376   2.386   4.238
83631SOL     OW52731  11.261   7.465   0.207
83631SOL    HW152732  11.257   7.376   0.241
83631SOL    HW252733  11.178   7.478   0.162
83632SOL     OW52734  14.311   9.043   7.009
83632SOL    HW152735  14.328   9.102   6.935
83632SOL    HW252736  14.329   8.956   6.975
83633SOL     OW52737   9.134   6.396  12.679
83633SOL    HW152738   9.058   6.410  12.622
83633SOL    HW252739   9.117   6.313  12.722
83634SOL     OW52740   9.124  13.889   1.162
83634SOL    HW152741   9.120  13.977   1.200
83634SOL    HW252742   9.144  13.832   1.235
83635SOL     OW52743   6.351   1.110   1.034
83635SOL    HW152744   6.408   1.034   1.026
83635SOL    HW252745   6.386   1.174   0.973
83636SOL     OW52746  13.644  13.635  10.428
83636SOL    HW152747  13.608  13.555  10.467
83636SOL    HW252748  13.601  13.706  10.476
83637SOL     OW52749   5.397   4.468   0.296
83637SOL    HW152750   5.476   4.427   0.263
83637SOL    HW252751   5.425   4.555   0.324
83638SOL     OW52752  14.629  11.175   7.296
83638SOL    HW152753  14.641  11.080   7.301
83638SOL    HW252754  14.698  11.205   7.237
83639SOL     OW52755  13.213   1.876   1.702
83639SOL    HW152756  13.277   1.920   1.757
83639SOL    HW252757  13.241   1.896   1.612
83640SOL     OW52758   2.397   9.592   7.781
83640SOL    HW152759   2.429   9.573   7.870
83640SOL    HW252760   2.472   9.634   7.738
83641SOL     OW52761   5.576   3.342   1.277
83641SOL    HW152762   5.627   3.411   1.320
83641SOL    HW252763   5.537   3.386   1.201
83642SOL     OW52764   1.839  12.015   5.421
83642SOL    HW152765   1.838  11.986   5.512
83642SOL    HW252766   1.765  12.075   5.413
83643SOL     OW52767   6.458   6.424   2.677
83643SOL    HW152768   6.424   6.342   2.641
83643SOL    HW252769   6.390   6.489   2.657
83644SOL     OW52770   3.514   4.317   1.815
83644SOL    HW152771   3.581   4.378   1.845
83644SOL    HW252772   3.558   4.265   1.747
83645SOL     OW52773  11.558  12.506   9.036
83645SOL    HW152774  11.464  12.518   9.021
83645SOL    HW252775  11.566  12.414   9.061
83646SOL     OW52776   1.799  11.697  14.677
83646SOL    HW152777   1.832  11.694  14.767
83646SOL    HW252778   1.806  11.607  14.645
83647SOL     OW52779   7.511   2.396   3.338
83647SOL    HW152780   7.516   2.365   3.428
83647SOL    HW252781   7.419   2.421   3.326
83648SOL     OW52782  11.154   4.493   1.923
83648SOL    HW152783  11.232   4.449   1.889
83648SOL    HW252784  11.090   4.487   1.852
83649SOL     OW52785  11.921   6.330   9.458
83649SOL    HW152786  11.919   6.303   9.549
83649SOL    HW252787  11.830   6.328   9.429
83650SOL     OW52788   1.311   4.265  12.154
83650SOL    HW152789   1.403   4.268  12.128
83650SOL    HW252790   1.312   4.225  12.241
83651SOL     OW52791   5.890   6.302   1.793
83651SOL    HW152792   5.853   6.264   1.714
83651SOL    HW252793   5.974   6.257   1.805
83652SOL     OW52794   2.432  13.895  13.497
83652SOL    HW152795   2.397  13.807  13.482
83652SOL    HW252796   2.381  13.930  13.570
83653SOL     OW52797  10.206  12.769   1.222
83653SOL    HW152798  10.178  12.858   1.245
83653SOL    HW252799  10.158  12.748   1.142
83654SOL     OW52800   8.967   3.507  11.202
83654SOL    HW152801   9.060   3.525  11.188
83654SOL    HW252802   8.943   3.561  11.277
83655SOL     OW52803   1.392   1.089   0.107
83655SOL    HW152804   1.403   1.074   0.201
83655SOL    HW252805   1.368   1.003   0.072
83656SOL     OW52806  12.677  12.604  11.687
83656SOL    HW152807  12.655  12.692  11.655
83656SOL    HW252808  12.772  12.602  11.687
83657SOL     OW52809   7.815   8.735   4.610
83657SOL    HW152810   7.799   8.743   4.516
83657SOL    HW252811   7.849   8.820   4.636
83658SOL     OW52812   5.283   4.505   8.168
83658SOL    HW152813   5.343   4.549   8.107
83658SOL    HW252814   5.270   4.568   8.239
83659SOL     OW52815   7.644  11.859   9.053
83659SOL    HW152816   7.565  11.852   9.000
83659SOL    HW252817   7.713  11.821   8.998
83660SOL     OW52818  11.648   3.461  10.420
83660SOL    HW152819  11.702   3.482  10.496
83660SOL    HW252820  11.645   3.366  10.417
83661SOL     OW52821  10.813  13.268   2.629
83661SOL    HW152822  10.804  13.256   2.724
83661SOL    HW252823  10.883  13.208   2.604
83662SOL     OW52824  13.076   6.936   5.546
83662SOL    HW152825  13.060   7.029   5.527
83662SOL    HW252826  12.990   6.902   5.573
83663SOL     OW52827   5.218  11.524   9.818
83663SOL    HW152828   5.192  11.610   9.853
83663SOL    HW252829   5.313  11.530   9.810
83664SOL     OW52830   2.312   2.565   9.187
83664SOL    HW152831   2.309   2.562   9.283
83664SOL    HW252832   2.314   2.658   9.166
83665SOL     OW52833   9.651   5.500  13.282
83665SOL    HW152834   9.670   5.582  13.328
83665SOL    HW252835   9.565   5.514  13.243
83666SOL     OW52836   8.880   2.512  13.682
83666SOL    HW152837   8.786   2.514  13.663
83666SOL    HW252838   8.889   2.569  13.758
83667SOL     OW52839   2.119  13.752  13.983
83667SOL    HW152840   2.123  13.657  13.979
83667SOL    HW252841   2.191  13.782  13.927
83668SOL     OW52842   7.115  12.746  11.606
83668SOL    HW152843   7.175  12.683  11.565
83668SOL    HW252844   7.172  12.803  11.657
83669SOL     OW52845   7.777   7.290  10.612
83669SOL    HW152846   7.684   7.273  10.599
83669SOL    HW252847   7.793   7.374  10.570
83670SOL     OW52848  11.959  14.236   4.719
83670SOL    HW152849  12.023  14.205   4.655
83670SOL    HW252850  11.881  14.182   4.704
83671SOL     OW52851   0.507  11.262   4.095
83671SOL    HW152852   0.542  11.191   4.149
83671SOL    HW252853   0.481  11.220   4.013
83672SOL     OW52854   1.480   3.772   2.917
83672SOL    HW152855   1.427   3.807   2.988
83672SOL    HW252856   1.510   3.849   2.868
83673SOL     OW52857   4.205  11.971   4.999
83673SOL    HW152858   4.263  11.904   5.034
83673SOL    HW252859   4.214  12.044   5.061
83674SOL     OW52860   7.227   8.534   4.233
83674SOL    HW152861   7.145   8.503   4.272
83674SOL    HW252862   7.271   8.454   4.203
83675SOL     OW52863   9.277   8.554   8.349
83675SOL    HW152864   9.219   8.535   8.422
83675SOL    HW252865   9.226   8.611   8.292
83676SOL     OW52866  11.327  13.438   4.521
83676SOL    HW152867  11.381  13.402   4.591
83676SOL    HW252868  11.356  13.528   4.512
83677SOL     OW52869   2.983  13.789   2.663
83677SOL    HW152870   2.952  13.796   2.573
83677SOL    HW252871   2.956  13.871   2.704
83678SOL     OW52872   2.880   1.515   6.684
83678SOL    HW152873   2.785   1.528   6.684
83678SOL    HW252874   2.900   1.482   6.596
83679SOL     OW52875   1.071   3.880   3.128
83679SOL    HW152876   1.044   3.858   3.217
83679SOL    HW252877   0.990   3.903   3.083
83680SOL     OW52878  12.854   4.531   5.990
83680SOL    HW152879  12.814   4.479   5.920
83680SOL    HW252880  12.841   4.479   6.069
83681SOL     OW52881   0.103   6.328   4.435
83681SOL    HW152882   0.105   6.347   4.341
83681SOL    HW252883   0.132   6.408   4.477
83682SOL     OW52884  11.320   4.572   0.452
83682SOL    HW152885  11.305   4.648   0.397
83682SOL    HW252886  11.379   4.602   0.521
83683SOL     OW52887   2.333   8.047   9.166
83683SOL    HW152888   2.285   8.129   9.176
83683SOL    HW252889   2.405   8.069   9.106
83684SOL     OW52890   6.457  13.105   8.771
83684SOL    HW152891   6.504  13.088   8.689
83684SOL    HW252892   6.365  13.113   8.746
83685SOL     OW52893  14.083   3.973   0.398
83685SOL    HW152894  14.170   4.012   0.395
83685SOL    HW252895  14.098   3.880   0.414
83686SOL     OW52896   9.128  13.795  10.744
83686SOL    HW152897   9.191  13.729  10.713
83686SOL    HW252898   9.042  13.754  10.730
83687SOL     OW52899  14.365  14.568   0.984
83687SOL    HW152900  14.457  14.549   0.970
83687SOL    HW252901  14.351  14.552   1.077
83688SOL     OW52902   7.195   4.221   5.844
83688SOL    HW152903   7.242   4.195   5.923
83688SOL    HW252904   7.136   4.290   5.873
83689SOL     OW52905   4.213  11.112  10.268
83689SOL    HW152906   4.172  11.125  10.354
83689SOL    HW252907   4.293  11.063  10.287
83690SOL     OW52908   8.715   6.436   5.781
83690SOL    HW152909   8.719   6.401   5.870
83690SOL    HW252910   8.661   6.515   5.788
83691SOL     OW52911   0.148   9.934  14.005
83691SOL    HW152912   0.143   9.997  14.076
83691SOL    HW252913   0.057   9.922  13.977
83692SOL     OW52914  13.924   4.980   6.731
83692SOL    HW152915  13.846   4.931   6.707
83692SOL    HW252916  13.953   5.020   6.649
83693SOL     OW52917   7.258   7.910   6.050
83693SOL    HW152918   7.252   7.908   5.955
83693SOL    HW252919   7.331   7.852   6.071
83694SOL     OW52920   0.308   7.846   7.938
83694SOL    HW152921   0.399   7.876   7.933
83694SOL    HW252922   0.309   7.760   7.895
83695SOL     OW52923  10.447   1.863   7.569
83695SOL    HW152924  10.424   1.954   7.585
83695SOL    HW252925  10.503   1.865   7.491
83696SOL     OW52926   4.800  10.635   7.002
83696SOL    HW152927   4.783  10.616   7.094
83696SOL    HW252928   4.896  10.637   6.995
83697SOL     OW52929   4.601   2.731   9.238
83697SOL    HW152930   4.634   2.644   9.217
83697SOL    HW252931   4.546   2.755   9.164
83698SOL     OW52932   6.757  12.905  11.449
83698SOL    HW152933   6.801  12.984  11.479
83698SOL    HW252934   6.722  12.928  11.363
83699SOL     OW52935   2.865   9.374  13.117
83699SOL    HW152936   2.786   9.400  13.166
83699SOL    HW252937   2.853   9.413  13.031
83700SOL     OW52938   6.359   6.829   8.478
83700SOL    HW152939   6.425   6.834   8.548
83700SOL    HW252940   6.282   6.790   8.520
83701SOL     OW52941   5.214  10.964   4.433
83701SOL    HW152942   5.154  10.989   4.364
83701SOL    HW252943   5.290  11.021   4.421
83702SOL     OW52944   9.058   3.857   3.868
83702SOL    HW152945   9.094   3.806   3.941
83702SOL    HW252946   8.966   3.870   3.890
83703SOL     OW52947  11.392   6.458   6.882
83703SOL    HW152948  11.388   6.387   6.818
83703SOL    HW252949  11.427   6.533   6.833
83704SOL     OW52950   7.184   8.561   3.539
83704SOL    HW152951   7.263   8.510   3.558
83704SOL    HW252952   7.132   8.504   3.482
83705SOL     OW52953   9.790   3.057   6.202
83705SOL    HW152954   9.698   3.044   6.180
83705SOL    HW252955   9.824   2.968   6.213
83706SOL     OW52956   6.097  14.543   4.663
83706SOL    HW152957   6.018  14.571   4.710
83706SOL    HW252958   6.084  14.449   4.650
83707SOL     OW52959  11.873  12.797   7.533
83707SOL    HW152960  11.821  12.809   7.613
83707SOL    HW252961  11.871  12.703   7.517
83708SOL     OW52962   6.445  14.458   3.590
83708SOL    HW152963   6.374  14.458   3.654
83708SOL    HW252964   6.425  14.384   3.532
83709SOL     OW52965   3.059  13.377  13.877
83709SOL    HW152966   3.056  13.364  13.971
83709SOL    HW252967   3.141  13.423  13.861
83710SOL     OW52968  10.514   0.793  10.894
83710SOL    HW152969  10.444   0.752  10.843
83710SOL    HW252970  10.468   0.837  10.966
83711SOL     OW52971   3.189  14.801   7.257
83711SOL    HW152972   3.186  14.841   7.170
83711SOL    HW252973   3.159  14.871   7.316
83712SOL     OW52974  10.591  12.816   5.221
83712SOL    HW152975  10.571  12.906   5.246
83712SOL    HW252976  10.506  12.776   5.203
83713SOL     OW52977   6.997   2.889   4.414
83713SOL    HW152978   6.961   2.837   4.342
83713SOL    HW252979   6.929   2.954   4.433
83714SOL     OW52980   9.146   8.358   5.017
83714SOL    HW152981   9.197   8.431   4.984
83714SOL    HW252982   9.056   8.390   5.016
83715SOL     OW52983   6.849  14.446   9.293
83715SOL    HW152984   6.809  14.510   9.352
83715SOL    HW252985   6.775  14.392   9.264
83716SOL     OW52986   8.459   9.845  11.032
83716SOL    HW152987   8.467   9.878  11.121
83716SOL    HW252988   8.419   9.916  10.983
83717SOL     OW52989   3.343   9.763   9.315
83717SOL    HW152990   3.404   9.818   9.364
83717SOL    HW252991   3.327   9.688   9.372
83718SOL     OW52992   1.480  12.276  12.755
83718SOL    HW152993   1.514  12.194  12.719
83718SOL    HW252994   1.513  12.343  12.696
83719SOL     OW52995   7.182  12.782   2.741
83719SOL    HW152996   7.140  12.796   2.826
83719SOL    HW252997   7.207  12.689   2.742
83720SOL     OW52998   2.878   3.564  10.962
83720SOL    HW152999   2.825   3.531  11.035
83720SOL    HW253000   2.915   3.485  10.923
83721SOL     OW53001   5.992   8.700   9.010
83721SOL    HW153002   5.957   8.778   9.052
83721SOL    HW253003   6.070   8.730   8.963
83722SOL     OW53004   2.747   9.093   3.151
83722SOL    HW153005   2.779   9.066   3.237
83722SOL    HW253006   2.734   9.187   3.159
83723SOL     OW53007   6.965  12.755   7.920
83723SOL    HW153008   6.911  12.677   7.938
83723SOL    HW253009   6.975  12.797   8.005
83724SOL     OW53010  14.784   3.750  13.869
83724SOL    HW153011  14.766   3.798  13.950
83724SOL    HW253012  14.778   3.817  13.800
83725SOL     OW53013  12.046   9.838   2.905
83725SOL    HW153014  11.973   9.795   2.861
83725SOL    HW253015  12.053   9.924   2.863
83726SOL     OW53016  12.807  11.785   5.847
83726SOL    HW153017  12.771  11.870   5.823
83726SOL    HW253018  12.901  11.794   5.834
83727SOL     OW53019  14.868   3.158   4.186
83727SOL    HW153020  14.854   3.192   4.098
83727SOL    HW253021  14.782   3.126   4.213
83728SOL     OW53022  13.130   1.151   1.066
83728SOL    HW153023  13.064   1.100   1.114
83728SOL    HW253024  13.082   1.222   1.026
83729SOL     OW53025   4.081  10.137   0.067
83729SOL    HW153026   4.047  10.191  14.876
83729SOL    HW253027   4.059  10.047   0.042
83730SOL     OW53028   9.198   9.796   3.141
83730SOL    HW153029   9.132   9.864   3.127
83730SOL    HW253030   9.148   9.722   3.175
83731SOL     OW53031   5.212   3.555   5.453
83731SOL    HW153032   5.195   3.625   5.516
83731SOL    HW253033   5.282   3.504   5.494
83732SOL     OW53034  14.606   5.154  11.851
83732SOL    HW153035  14.648   5.074  11.881
83732SOL    HW253036  14.586   5.139  11.759
83733SOL     OW53037  12.037   4.979   8.531
83733SOL    HW153038  12.043   5.074   8.528
83733SOL    HW253039  11.943   4.961   8.537
83734SOL     OW53040   3.207   7.114   8.447
83734SOL    HW153041   3.277   7.177   8.434
83734SOL    HW253042   3.128   7.160   8.420
83735SOL     OW53043  14.291  12.987   3.378
83735SOL    HW153044  14.304  12.918   3.312
83735SOL    HW253045  14.372  13.039   3.374
83736SOL     OW53046  10.868   3.601  13.469
83736SOL    HW153047  10.846   3.508  13.470
83736SOL    HW253048  10.954   3.606  13.512
83737SOL     OW53049  10.243   7.068   1.374
83737SOL    HW153050  10.154   7.035   1.361
83737SOL    HW253051  10.299   6.995   1.346
83738SOL     OW53052   4.040   6.667  13.164
83738SOL    HW153053   4.046   6.572  13.172
83738SOL    HW253054   3.989   6.695  13.240
83739SOL     OW53055   2.022   1.703  11.248
83739SOL    HW153056   2.112   1.685  11.276
83739SOL    HW253057   1.970   1.691  11.327
83740SOL     OW53058   8.588   8.716   9.901
83740SOL    HW153059   8.628   8.633   9.877
83740SOL    HW253060   8.568   8.758   9.817
83741SOL     OW53061   5.609   4.488  10.405
83741SOL    HW153062   5.532   4.459  10.355
83741SOL    HW253063   5.620   4.422  10.473
83742SOL     OW53064   2.428  13.777   5.920
83742SOL    HW153065   2.487  13.721   5.871
83742SOL    HW253066   2.411  13.851   5.861
83743SOL     OW53067   9.853  14.216   4.766
83743SOL    HW153068   9.871  14.218   4.672
83743SOL    HW253069   9.772  14.165   4.775
83744SOL     OW53070   4.637   0.711   9.168
83744SOL    HW153071   4.649   0.739   9.077
83744SOL    HW253072   4.544   0.691   9.175
83745SOL     OW53073  10.779  13.042   5.940
83745SOL    HW153074  10.720  13.103   5.985
83745SOL    HW253075  10.815  13.093   5.868
83746SOL     OW53076   2.788   2.695   4.157
83746SOL    HW153077   2.840   2.733   4.086
83746SOL    HW253078   2.765   2.769   4.213
83747SOL     OW53079   0.180  10.656   4.183
83747SOL    HW153080   0.272  10.684   4.190
83747SOL    HW253081   0.175  10.577   4.237
83748SOL     OW53082   3.681   7.826   2.523
83748SOL    HW153083   3.730   7.754   2.483
83748SOL    HW253084   3.595   7.823   2.482
83749SOL     OW53085   5.591   3.658   9.744
83749SOL    HW153086   5.506   3.634   9.781
83749SOL    HW253087   5.572   3.734   9.689
83750SOL     OW53088  13.324   6.130  11.453
83750SOL    HW153089  13.370   6.073  11.391
83750SOL    HW253090  13.365   6.216  11.443
83751SOL     OW53091  11.191   1.424  10.550
83751SOL    HW153092  11.120   1.463  10.499
83751SOL    HW253093  11.240   1.372  10.487
83752SOL     OW53094   0.164  10.863  12.868
83752SOL    HW153095   0.100  10.893  12.803
83752SOL    HW253096   0.152  10.768  12.872
83753SOL     OW53097  11.338   1.861   4.886
83753SOL    HW153098  11.317   1.933   4.827
83753SOL    HW253099  11.394   1.803   4.834
83754SOL     OW53100   9.602   9.887   1.427
83754SOL    HW153101   9.583   9.942   1.351
83754SOL    HW253102   9.567   9.936   1.501
83755SOL     OW53103  10.782   3.553   7.626
83755SOL    HW153104  10.713   3.590   7.681
83755SOL    HW253105  10.852   3.618   7.627
83756SOL     OW53106   8.062   4.924  13.609
83756SOL    HW153107   8.004   4.887  13.675
83756SOL    HW253108   8.075   4.853  13.545
83757SOL     OW53109   5.573   2.612  14.157
83757SOL    HW153110   5.587   2.698  14.197
83757SOL    HW253111   5.592   2.549  14.226
83758SOL     OW53112   6.424   9.313   9.633
83758SOL    HW153113   6.497   9.368   9.660
83758SOL    HW253114   6.464   9.242   9.583
83759SOL     OW53115  13.696   4.945  11.910
83759SOL    HW153116  13.652   4.957  11.994
83759SOL    HW253117  13.634   4.893  11.858
83760SOL     OW53118  13.393   3.406   3.610
83760SOL    HW153119  13.376   3.486   3.560
83760SOL    HW253120  13.481   3.418   3.646
83761SOL     OW53121  12.818   7.255  11.428
83761SOL    HW153122  12.892   7.221  11.478
83761SOL    HW253123  12.746   7.258  11.491
83762SOL     OW53124   5.721   3.732  11.838
83762SOL    HW153125   5.715   3.818  11.797
83762SOL    HW253126   5.713   3.749  11.932
83763SOL     OW53127   3.886   9.219   2.698
83763SOL    HW153128   3.844   9.304   2.715
83763SOL    HW253129   3.901   9.182   2.785
83764SOL     OW53130  13.735  10.072   7.363
83764SOL    HW153131  13.659  10.127   7.384
83764SOL    HW253132  13.798  10.091   7.432
83765SOL     OW53133   9.558   3.339   6.642
83765SOL    HW153134   9.618   3.267   6.622
83765SOL    HW253135   9.503   3.348   6.564
83766SOL     OW53136   1.454  10.559  13.338
83766SOL    HW153137   1.523  10.615  13.301
83766SOL    HW253138   1.388  10.554  13.268
83767SOL     OW53139   3.180   2.160   7.269
83767SOL    HW153140   3.129   2.162   7.188
83767SOL    HW253141   3.260   2.208   7.247
83768SOL     OW53142  10.695   5.515   6.678
83768SOL    HW153143  10.641   5.513   6.599
83768SOL    HW253144  10.737   5.429   6.681
83769SOL     OW53145   1.383  10.124  10.827
83769SOL    HW153146   1.416  10.102  10.914
83769SOL    HW253147   1.290  10.140  10.839
83770SOL     OW53148   0.742   2.692   8.194
83770SOL    HW153149   0.796   2.718   8.268
83770SOL    HW253150   0.697   2.613   8.222
83771SOL     OW53151   4.834   7.681   4.723
83771SOL    HW153152   4.799   7.620   4.657
83771SOL    HW253153   4.797   7.766   4.698
83772SOL     OW53154   2.102   6.562   9.550
83772SOL    HW153155   2.163   6.580   9.622
83772SOL    HW253156   2.050   6.642   9.543
83773SOL     OW53157  10.146  10.991   6.697
83773SOL    HW153158  10.088  10.958   6.766
83773SOL    HW253159  10.230  11.005   6.741
83774SOL     OW53160   8.232  14.400   9.590
83774SOL    HW153161   8.286  14.321   9.602
83774SOL    HW253162   8.186  14.410   9.673
83775SOL     OW53163   8.027   7.731  10.450
83775SOL    HW153164   8.069   7.666  10.507
83775SOL    HW253165   8.014   7.807  10.507
83776SOL     OW53166   9.301   0.418   5.415
83776SOL    HW153167   9.382   0.440   5.462
83776SOL    HW253168   9.280   0.330   5.445
83777SOL     OW53169   1.243   5.755  10.823
83777SOL    HW153170   1.265   5.776  10.732
83777SOL    HW253171   1.214   5.664  10.821
83778SOL     OW53172  11.196  11.635   0.547
83778SOL    HW153173  11.172  11.559   0.495
83778SOL    HW253174  11.284  11.659   0.516
83779SOL     OW53175  14.026  13.855   2.264
83779SOL    HW153176  13.937  13.873   2.294
83779SOL    HW253177  14.051  13.933   2.214
83780SOL     OW53178   6.425  12.653   2.094
83780SOL    HW153179   6.502  12.682   2.141
83780SOL    HW253180   6.401  12.726   2.037
83781SOL     OW53181   1.266   0.010   5.502
83781SOL    HW153182   1.186  14.841   5.517
83781SOL    HW253183   1.335  14.841   5.544
83782SOL     OW53184   7.941  13.088   0.854
83782SOL    HW153185   7.850  13.077   0.882
83782SOL    HW253186   7.951  13.182   0.839
83783SOL     OW53187  13.476   2.546   1.440
83783SOL    HW153188  13.536   2.599   1.493
83783SOL    HW253189  13.454   2.602   1.365
83784SOL     OW53190   0.494  14.489   3.736
83784SOL    HW153191   0.494  14.469   3.830
83784SOL    HW253192   0.434  14.562   3.727
83785SOL     OW53193   3.513   5.843  10.860
83785SOL    HW153194   3.514   5.779  10.789
83785SOL    HW253195   3.557   5.800  10.933
83786SOL     OW53196  12.410  14.126   1.198
83786SOL    HW153197  12.472  14.055   1.182
83786SOL    HW253198  12.452  14.204   1.163
83787SOL     OW53199   6.250   2.886   7.886
83787SOL    HW153200   6.285   2.798   7.872
83787SOL    HW253201   6.190   2.877   7.960
83788SOL     OW53202   8.041   0.186   1.653
83788SOL    HW153203   8.124   0.151   1.622
83788SOL    HW253204   8.005   0.119   1.710
83789SOL     OW53205  12.649   2.001   6.254
83789SOL    HW153206  12.557   2.027   6.259
83789SOL    HW253207  12.647   1.906   6.249
83790SOL     OW53208   3.348   8.794   7.822
83790SOL    HW153209   3.399   8.827   7.748
83790SOL    HW253210   3.261   8.780   7.787
83791SOL     OW53211   7.483  13.883   7.101
83791SOL    HW153212   7.569  13.858   7.136
83791SOL    HW253213   7.501  13.911   7.012
83792SOL     OW53214  13.376  13.759   2.656
83792SOL    HW153215  13.412  13.776   2.743
83792SOL    HW253216  13.453  13.750   2.600
83793SOL     OW53217   4.388   2.461   1.693
83793SOL    HW153218   4.380   2.369   1.719
83793SOL    HW253219   4.350   2.509   1.766
83794SOL     OW53220   8.138   1.108   7.021
83794SOL    HW153221   8.194   1.039   7.058
83794SOL    HW253222   8.055   1.064   7.002
83795SOL     OW53223  14.367   0.837   8.895
83795SOL    HW153224  14.346   0.859   8.986
83795SOL    HW253225  14.331   0.910   8.844
83796SOL     OW53226  14.305   2.199  12.223
83796SOL    HW153227  14.248   2.136  12.267
83796SOL    HW253228  14.245   2.259  12.179
83797SOL     OW53229   7.598  12.909  13.749
83797SOL    HW153230   7.550  12.956  13.681
83797SOL    HW253231   7.538  12.840  13.777
83798SOL     OW53232  10.686   3.453  13.078
83798SOL    HW153233  10.636   3.496  13.008
83798SOL    HW253234  10.772   3.438  13.040
83799SOL     OW53235   8.679   6.328  11.587
83799SOL    HW153236   8.691   6.414  11.629
83799SOL    HW253237   8.768   6.299  11.568
83800SOL     OW53238   8.926  13.602  12.083
83800SOL    HW153239   8.964  13.529  12.131
83800SOL    HW253240   8.831  13.592  12.096
83801SOL     OW53241   0.510   8.348   8.020
83801SOL    HW153242   0.511   8.340   7.925
83801SOL    HW253243   0.602   8.337   8.046
83802SOL     OW53244   3.280  14.794  10.994
83802SOL    HW153245   3.220  14.737  10.945
83802SOL    HW253246   3.367  14.760  10.974
83803SOL     OW53247  10.992   0.221   1.136
83803SOL    HW153248  10.962   0.312   1.143
83803SOL    HW253249  11.001   0.192   1.227
83804SOL     OW53250   1.847  10.062   3.547
83804SOL    HW153251   1.869  10.072   3.455
83804SOL    HW253252   1.774  10.122   3.562
83805SOL     OW53253   3.420  10.057   4.996
83805SOL    HW153254   3.459  10.047   5.082
83805SOL    HW253255   3.370   9.976   4.983
83806SOL     OW53256   7.806   3.226  11.780
83806SOL    HW153257   7.725   3.204  11.734
83806SOL    HW253258   7.778   3.250  11.868
83807SOL     OW53259   0.417  11.086  11.396
83807SOL    HW153260   0.430  11.020  11.327
83807SOL    HW253261   0.388  11.036  11.472
83808SOL     OW53262   4.844   5.932  10.361
83808SOL    HW153263   4.755   5.903  10.380
83808SOL    HW253264   4.880   5.958  10.446
83809SOL     OW53265   8.205   0.413   9.825
83809SOL    HW153266   8.254   0.397   9.745
83809SOL    HW253267   8.271   0.445   9.887
83810SOL     OW53268   5.235   3.716   4.513
83810SOL    HW153269   5.174   3.725   4.439
83810SOL    HW253270   5.228   3.799   4.560
83811SOL     OW53271  10.242   0.467   9.701
83811SOL    HW153272  10.153   0.492   9.725
83811SOL    HW253273  10.240   0.454   9.606
83812SOL     OW53274   1.034  14.065   4.523
83812SOL    HW153275   1.129  14.053   4.531
83812SOL    HW253276   1.022  14.108   4.438
83813SOL     OW53277  14.681  12.228   8.856
83813SOL    HW153278  14.644  12.316   8.846
83813SOL    HW253279  14.773  12.238   8.832
83814SOL     OW53280  10.682   3.697  11.237
83814SOL    HW153281  10.777   3.710  11.241
83814SOL    HW253282  10.667   3.656  11.152
83815SOL     OW53283   5.100   9.186   3.381
83815SOL    HW153284   5.182   9.234   3.375
83815SOL    HW253285   5.125   9.097   3.407
83816SOL     OW53286   1.945   5.954  12.304
83816SOL    HW153287   1.875   5.911  12.353
83816SOL    HW253288   1.899   6.015  12.246
83817SOL     OW53289   1.225   4.472  11.562
83817SOL    HW153290   1.148   4.526  11.545
83817SOL    HW253291   1.228   4.410  11.489
83818SOL     OW53292   1.597  11.145   7.320
83818SOL    HW153293   1.631  11.080   7.382
83818SOL    HW253294   1.616  11.107   7.234
83819SOL     OW53295  11.845  10.499  10.325
83819SOL    HW153296  11.861  10.440  10.398
83819SOL    HW253297  11.853  10.587  10.363
83820SOL     OW53298   7.056  10.905  13.601
83820SOL    HW153299   6.961  10.909  13.592
83820SOL    HW253300   7.070  10.899  13.696
83821SOL     OW53301   9.374   2.566   0.514
83821SOL    HW153302   9.436   2.512   0.466
83821SOL    HW253303   9.420   2.649   0.529
83822SOL     OW53304   5.504   6.467   6.050
83822SOL    HW153305   5.509   6.418   5.968
83822SOL    HW253306   5.523   6.403   6.118
83823SOL     OW53307   6.924   6.531   8.617
83823SOL    HW153308   6.876   6.455   8.649
83823SOL    HW253309   6.992   6.546   8.682
83824SOL     OW53310  12.159   6.079  13.841
83824SOL    HW153311  12.102   6.135  13.789
83824SOL    HW253312  12.179   6.131  13.919
83825SOL     OW53313  12.390   5.676   3.535
83825SOL    HW153314  12.466   5.645   3.486
83825SOL    HW253315  12.339   5.596   3.551
83826SOL     OW53316  11.394  12.862  14.217
83826SOL    HW153317  11.460  12.911  14.168
83826SOL    HW253318  11.444  12.795  14.264
83827SOL     OW53319  11.806  14.024   6.119
83827SOL    HW153320  11.747  13.950   6.134
83827SOL    HW253321  11.758  14.081   6.059
83828SOL     OW53322  10.956   9.288   4.445
83828SOL    HW153323  10.975   9.371   4.489
83828SOL    HW253324  10.963   9.308   4.352
83829SOL     OW53325   5.899   4.246   3.496
83829SOL    HW153326   5.836   4.221   3.428
83829SOL    HW253327   5.869   4.200   3.574
83830SOL     OW53328  11.940   4.305   0.662
83830SOL    HW153329  11.957   4.396   0.635
83830SOL    HW253330  11.850   4.288   0.632
83831SOL     OW53331  12.817   6.070   2.185
83831SOL    HW153332  12.821   6.108   2.273
83831SOL    HW253333  12.725   6.082   2.159
83832SOL     OW53334   8.044   0.242   6.816
83832SOL    HW153335   8.048   0.156   6.775
83832SOL    HW253336   7.952   0.256   6.835
83833SOL     OW53337   5.135  13.602  11.510
83833SOL    HW153338   5.163  13.693  11.512
83833SOL    HW253339   5.215  13.552  11.499
83834SOL     OW53340   6.251   5.167   6.656
83834SOL    HW153341   6.294   5.227   6.596
83834SOL    HW253342   6.197   5.111   6.600
83835SOL     OW53343   4.453   0.022   2.485
83835SOL    HW153344   4.490   0.096   2.436
83835SOL    HW253345   4.414   0.062   2.563
83836SOL     OW53346   8.685   9.557   5.454
83836SOL    HW153347   8.732   9.640   5.458
83836SOL    HW253348   8.722   9.505   5.526
83837SOL     OW53349  11.455   0.801   6.116
83837SOL    HW153350  11.377   0.835   6.071
83837SOL    HW253351  11.473   0.718   6.072
83838SOL     OW53352   8.776  11.434   0.398
83838SOL    HW153353   8.724  11.442   0.478
83838SOL    HW253354   8.849  11.494   0.410
83839SOL     OW53355   0.829   4.650  12.278
83839SOL    HW153356   0.832   4.562  12.239
83839SOL    HW253357   0.892   4.647  12.350
83840SOL     OW53358   2.183  13.303   5.318
83840SOL    HW153359   2.141  13.361   5.381
83840SOL    HW253360   2.269  13.284   5.356
83841SOL     OW53361   1.456  12.299   4.685
83841SOL    HW153362   1.419  12.302   4.773
83841SOL    HW253363   1.550  12.300   4.698
83842SOL     OW53364  12.442   7.675  12.914
83842SOL    HW153365  12.469   7.709  13.000
83842SOL    HW253366  12.511   7.704  12.854
83843SOL     OW53367  13.392   9.590  10.239
83843SOL    HW153368  13.393   9.608  10.332
83843SOL    HW253369  13.360   9.671  10.199
83844SOL     OW53370   0.167   6.078  13.888
83844SOL    HW153371   0.126   6.095  13.973
83844SOL    HW253372   0.175   6.164  13.847
83845SOL     OW53373   2.440   8.231  12.088
83845SOL    HW153374   2.414   8.146  12.050
83845SOL    HW253375   2.370   8.252  12.150
83846SOL     OW53376   0.198  14.171   7.846
83846SOL    HW153377   0.265  14.226   7.886
83846SOL    HW253378   0.133  14.232   7.811
83847SOL     OW53379   0.454  10.713  12.250
83847SOL    HW153380   0.396  10.707  12.174
83847SOL    HW253381   0.531  10.661  12.226
83848SOL     OW53382   9.189   0.628  13.531
83848SOL    HW153383   9.158   0.612  13.620
83848SOL    HW253384   9.146   0.710  13.506
83849SOL     OW53385  10.728   3.021  12.633
83849SOL    HW153386  10.742   3.077  12.557
83849SOL    HW253387  10.635   3.000  12.631
83850SOL     OW53388   2.466   0.119   3.395
83850SOL    HW153389   2.436   0.108   3.486
83850SOL    HW253390   2.561   0.115   3.401
83851SOL     OW53391   1.155   2.931  14.106
83851SOL    HW153392   1.178   2.867  14.173
83851SOL    HW253393   1.136   2.879  14.028
83852SOL     OW53394   1.676   2.647  13.375
83852SOL    HW153395   1.753   2.633  13.320
83852SOL    HW253396   1.630   2.721  13.335
83853SOL     OW53397   2.463  14.466   5.619
83853SOL    HW153398   2.407  14.486   5.544
83853SOL    HW253399   2.435  14.528   5.687
83854SOL     OW53400  14.378   1.432   7.833
83854SOL    HW153401  14.327   1.513   7.821
83854SOL    HW253402  14.426   1.422   7.751
83855SOL     OW53403  14.143  12.956   5.657
83855SOL    HW153404  14.118  12.987   5.744
83855SOL    HW253405  14.095  13.013   5.597
83856SOL     OW53406   2.438   2.816   5.075
83856SOL    HW153407   2.453   2.849   5.164
83856SOL    HW253408   2.344   2.797   5.072
83857SOL     OW53409   3.736   6.350   4.770
83857SOL    HW153410   3.714   6.434   4.809
83857SOL    HW253411   3.653   6.302   4.770
83858SOL     OW53412  14.837   5.719  13.148
83858SOL    HW153413  14.754   5.737  13.193
83858SOL    HW253414   0.022   5.741  13.213
83859SOL     OW53415   4.673   6.615   1.375
83859SOL    HW153416   4.671   6.690   1.435
83859SOL    HW253417   4.581   6.589   1.367
83860SOL     OW53418   0.127  12.732  10.024
83860SOL    HW153419   0.193  12.663  10.031
83860SOL    HW253420   0.123  12.769  10.112
83861SOL     OW53421  12.463   7.160   8.731
83861SOL    HW153422  12.389   7.138   8.789
83861SOL    HW253423  12.540   7.131   8.779
83862SOL     OW53424   3.268   6.002  13.354
83862SOL    HW153425   3.238   6.091  13.368
83862SOL    HW253426   3.340   5.991  13.417
83863SOL     OW53427   6.110   9.405   3.402
83863SOL    HW153428   6.171   9.477   3.383
83863SOL    HW253429   6.163   9.341   3.449
83864SOL     OW53430   2.157  10.120   5.298
83864SOL    HW153431   2.074  10.093   5.258
83864SOL    HW253432   2.170  10.210   5.269
83865SOL     OW53433   2.999   3.449   6.251
83865SOL    HW153434   3.024   3.432   6.342
83865SOL    HW253435   3.012   3.543   6.240
83866SOL     OW53436   5.212   5.103  12.089
83866SOL    HW153437   5.202   5.103  12.184
83866SOL    HW253438   5.126   5.129  12.055
83867SOL     OW53439   8.417   9.622   5.374
83867SOL    HW153440   8.395   9.647   5.284
83867SOL    HW253441   8.512   9.613   5.373
83868SOL     OW53442   6.275  10.038   8.202
83868SOL    HW153443   6.239  10.112   8.252
83868SOL    HW253444   6.203  10.010   8.146
83869SOL     OW53445   7.171   6.151   2.792
83869SOL    HW153446   7.146   6.080   2.851
83869SOL    HW253447   7.135   6.125   2.707
83870SOL     OW53448   9.169   5.809  11.531
83870SOL    HW153449   9.119   5.780  11.607
83870SOL    HW253450   9.103   5.835  11.467
83871SOL     OW53451   1.901   4.594   8.134
83871SOL    HW153452   1.915   4.499   8.133
83871SOL    HW253453   1.884   4.617   8.043
83872SOL     OW53454   9.561  14.646   7.501
83872SOL    HW153455   9.593  14.733   7.525
83872SOL    HW253456   9.469  14.646   7.529
83873SOL     OW53457  14.370  10.558   1.249
83873SOL    HW153458  14.438  10.554   1.182
83873SOL    HW253459  14.417  10.582   1.329
83874SOL     OW53460   8.875   1.599  12.023
83874SOL    HW153461   8.795   1.588  11.971
83874SOL    HW253462   8.931   1.654  11.968
83875SOL     OW53463   1.188   5.449  13.306
83875SOL    HW153464   1.109   5.415  13.264
83875SOL    HW253465   1.256   5.386  13.283
83876SOL     OW53466   5.643   0.370  10.552
83876SOL    HW153467   5.660   0.440  10.489
83876SOL    HW253468   5.729   0.351  10.590
83877SOL     OW53469   0.797  11.664   8.124
83877SOL    HW153470   0.818  11.654   8.217
83877SOL    HW253471   0.749  11.583   8.102
83878SOL     OW53472   2.360  12.964   4.440
83878SOL    HW153473   2.278  12.929   4.475
83878SOL    HW253474   2.373  12.917   4.358
83879SOL     OW53475  13.884  11.817  14.368
83879SOL    HW153476  13.972  11.819  14.330
83879SOL    HW253477  13.887  11.747  14.433
83880SOL     OW53478   6.141  11.746  13.875
83880SOL    HW153479   6.109  11.719  13.790
83880SOL    HW253480   6.236  11.735  13.870
83881SOL     OW53481   7.158  10.495   9.323
83881SOL    HW153482   7.160  10.583   9.360
83881SOL    HW253483   7.157  10.437   9.400
83882SOL     OW53484  14.550   8.774   1.257
83882SOL    HW153485  14.602   8.725   1.193
83882SOL    HW253486  14.459   8.753   1.236
83883SOL     OW53487  13.446   4.157  11.426
83883SOL    HW153488  13.530   4.203  11.429
83883SOL    HW253489  13.430   4.143  11.333
83884SOL     OW53490   9.445  12.390   0.490
83884SOL    HW153491   9.361  12.394   0.444
83884SOL    HW253492   9.483  12.307   0.464
83885SOL     OW53493  12.490  11.787  11.048
83885SOL    HW153494  12.418  11.731  11.076
83885SOL    HW253495  12.553  11.783  11.121
83886SOL     OW53496  14.789   0.231   8.070
83886SOL    HW153497  14.829   0.289   8.005
83886SOL    HW253498  14.724   0.286   8.114
83887SOL     OW53499   2.261  10.574   0.868
83887SOL    HW153500   2.347  10.615   0.855
83887SOL    HW253501   2.237  10.540   0.782
83888SOL     OW53502   6.018   8.624   3.341
83888SOL    HW153503   5.929   8.653   3.364
83888SOL    HW253504   6.075   8.688   3.383
83889SOL     OW53505  14.708  12.820  14.392
83889SOL    HW153506  14.764  12.866  14.329
83889SOL    HW253507  14.685  12.738  14.348
83890SOL     OW53508   9.182  14.692   7.898
83890SOL    HW153509   9.121  14.749   7.944
83890SOL    HW253510   9.268  14.716   7.933
83891SOL     OW53511   4.518  10.015   6.076
83891SOL    HW153512   4.588  10.025   6.141
83891SOL    HW253513   4.468  10.096   6.082
83892SOL     OW53514  12.542   6.959   8.033
83892SOL    HW153515  12.510   6.983   8.120
83892SOL    HW253516  12.491   7.012   7.972
83893SOL     OW53517   9.328   7.164   7.578
83893SOL    HW153518   9.270   7.240   7.592
83893SOL    HW253519   9.280   7.109   7.517
83894SOL     OW53520  12.505  14.257   3.309
83894SOL    HW153521  12.410  14.268   3.306
83894SOL    HW253522  12.530  14.228   3.222
83895SOL     OW53523   5.654  12.212   5.161
83895SOL    HW153524   5.589  12.198   5.092
83895SOL    HW253525   5.731  12.162   5.132
83896SOL     OW53526   4.225  10.436  12.280
83896SOL    HW153527   4.258  10.525  12.294
83896SOL    HW253528   4.133  10.449  12.255
83897SOL     OW53529  11.952   6.428   5.347
83897SOL    HW153530  12.042   6.416   5.379
83897SOL    HW253531  11.903   6.356   5.386
83898SOL     OW53532  13.239  11.389   3.077
83898SOL    HW153533  13.155  11.343   3.075
83898SOL    HW253534  13.303  11.320   3.094
83899SOL     OW53535  10.157  10.053   1.833
83899SOL    HW153536  10.122  10.090   1.752
83899SOL    HW253537  10.096   9.983   1.856
83900SOL     OW53538  14.278   5.103  10.304
83900SOL    HW153539  14.313   5.192  10.312
83900SOL    HW253540  14.300   5.061  10.387
83901SOL     OW53541  13.036   4.158   2.134
83901SOL    HW153542  12.973   4.167   2.205
83901SOL    HW253543  13.062   4.066   2.137
83902SOL     OW53544   6.003  10.452  11.134
83902SOL    HW153545   6.004  10.547  11.121
83902SOL    HW253546   5.917  10.435  11.174
83903SOL     OW53547  11.263   2.374   9.669
83903SOL    HW153548  11.208   2.447   9.642
83903SOL    HW253549  11.255   2.372   9.765
83904SOL     OW53550   1.790  13.625   5.707
83904SOL    HW153551   1.723  13.691   5.727
83904SOL    HW253552   1.771  13.598   5.618
83905SOL     OW53553   9.828  13.045  10.929
83905SOL    HW153554   9.886  13.067  10.857
83905SOL    HW253555   9.884  13.004  10.995
83906SOL     OW53556   5.128   6.790  12.139
83906SOL    HW153557   5.048   6.808  12.090
83906SOL    HW253558   5.116   6.837  12.222
83907SOL     OW53559  14.564   7.382   0.361
83907SOL    HW153560  14.483   7.334   0.381
83907SOL    HW253561  14.634   7.319   0.380
83908SOL     OW53562  14.866   3.688   1.377
83908SOL    HW153563   0.024   3.642   1.450
83908SOL    HW253564   0.046   3.757   1.355
83909SOL     OW53565  11.960  11.784  13.352
83909SOL    HW153566  12.015  11.706  13.367
83909SOL    HW253567  11.972  11.804  13.259
83910SOL     OW53568  13.280  11.765   9.139
83910SOL    HW153569  13.253  11.729   9.054
83910SOL    HW253570  13.247  11.702   9.203
83911SOL     OW53571   0.024   9.035   5.263
83911SOL    HW153572   0.103   8.980   5.260
83911SOL    HW253573   0.011   9.052   5.357
83912SOL     OW53574   6.407   0.021  12.619
83912SOL    HW153575   6.438  14.837  12.680
83912SOL    HW253576   6.370  14.852  12.546
83913SOL     OW53577   1.452  14.788  14.459
83913SOL    HW153578   1.525  14.826  14.508
83913SOL    HW253579   1.404  14.863  14.424
83914SOL     OW53580  14.882   2.159   5.796
83914SOL    HW153581   0.004   2.079   5.743
83914SOL    HW253582   0.072   2.151   5.858
83915SOL     OW53583   8.690  12.008   8.056
83915SOL    HW153584   8.743  11.998   7.977
83915SOL    HW253585   8.605  11.969   8.033
83916SOL     OW53586   2.568   8.901  12.568
83916SOL    HW153587   2.630   8.939  12.630
83916SOL    HW253588   2.511   8.974  12.543
83917SOL     OW53589  14.363   5.155  14.274
83917SOL    HW153590  14.330   5.071  14.241
83917SOL    HW253591  14.340   5.156  14.367
83918SOL     OW53592   1.169  13.951   2.378
83918SOL    HW153593   1.098  13.888   2.391
83918SOL    HW253594   1.152  14.018   2.444
83919SOL     OW53595  12.729   1.730   5.893
83919SOL    HW153596  12.716   1.742   5.799
83919SOL    HW253597  12.643   1.750   5.931
83920SOL     OW53598  14.316   6.426  12.606
83920SOL    HW153599  14.361   6.504  12.573
83920SOL    HW253600  14.386   6.362  12.620
83921SOL     OW53601  11.403  12.101   5.449
83921SOL    HW153602  11.438  12.064   5.368
83921SOL    HW253603  11.377  12.026   5.501
83922SOL     OW53604  12.950   1.884   8.338
83922SOL    HW153605  13.023   1.945   8.350
83922SOL    HW253606  12.909   1.910   8.256
83923SOL     OW53607   5.972  11.323   4.307
83923SOL    HW153608   5.924  11.273   4.240
83923SOL    HW253609   5.932  11.410   4.305
83924SOL     OW53610  13.545   3.743  10.373
83924SOL    HW153611  13.536   3.790  10.289
83924SOL    HW253612  13.604   3.671  10.354
83925SOL     OW53613  13.567   7.599   6.473
83925SOL    HW153614  13.565   7.537   6.400
83925SOL    HW253615  13.514   7.673   6.443
83926SOL     OW53616  13.456  11.867   2.073
83926SOL    HW153617  13.525  11.878   2.139
83926SOL    HW253618  13.379  11.842   2.124
83927SOL     OW53619   4.836   3.495  12.646
83927SOL    HW153620   4.802   3.426  12.704
83927SOL    HW253621   4.792   3.480  12.563
83928SOL     OW53622   9.486   9.081  11.944
83928SOL    HW153623   9.400   9.042  11.961
83928SOL    HW253624   9.480   9.113  11.854
83929SOL     OW53625  12.230   8.243  11.121
83929SOL    HW153626  12.262   8.206  11.204
83929SOL    HW253627  12.159   8.185  11.095
83930SOL     OW53628   5.423   0.968  12.461
83930SOL    HW153629   5.485   0.896  12.475
83930SOL    HW253630   5.391   0.956  12.372
83931SOL     OW53631   7.637  12.243   4.386
83931SOL    HW153632   7.702  12.184   4.349
83931SOL    HW253633   7.555  12.218   4.345
83932SOL     OW53634   3.090  11.489   4.490
83932SOL    HW153635   3.119  11.498   4.399
83932SOL    HW253636   3.066  11.397   4.498
83933SOL     OW53637   4.127   5.796   6.052
83933SOL    HW153638   4.064   5.841   5.995
83933SOL    HW253639   4.203   5.855   6.055
83934SOL     OW53640   7.541  13.937   2.689
83934SOL    HW153641   7.555  13.866   2.625
83934SOL    HW253642   7.453  13.969   2.670
83935SOL     OW53643   1.209   7.032  10.683
83935SOL    HW153644   1.247   6.958  10.636
83935SOL    HW253645   1.118   7.035  10.652
83936SOL     OW53646   6.686  13.182  13.063
83936SOL    HW153647   6.594  13.175  13.037
83936SOL    HW253648   6.727  13.104  13.026
83937SOL     OW53649   4.559   5.028  12.367
83937SOL    HW153650   4.652   5.037  12.347
83937SOL    HW253651   4.532   4.947  12.323
83938SOL     OW53652   6.059  10.609  13.409
83938SOL    HW153653   6.006  10.639  13.482
83938SOL    HW253654   6.038  10.516  13.401
83939SOL     OW53655  11.922  13.300   4.019
83939SOL    HW153656  12.012  13.274   4.039
83939SOL    HW253657  11.880  13.305   4.105
83940SOL     OW53658   7.448  11.967   8.528
83940SOL    HW153659   7.379  11.915   8.488
83940SOL    HW253660   7.407  12.050   8.550
83941SOL     OW53661   5.884   4.778   3.157
83941SOL    HW153662   5.837   4.825   3.088
83941SOL    HW253663   5.873   4.833   3.235
83942SOL     OW53664  13.534   8.904   2.070
83942SOL    HW153665  13.593   8.881   1.999
83942SOL    HW253666  13.484   8.824   2.087
83943SOL     OW53667   9.651   3.011   9.220
83943SOL    HW153668   9.684   3.090   9.176
83943SOL    HW253669   9.726   2.979   9.270
83944SOL     OW53670  12.366   5.476   8.287
83944SOL    HW153671  12.399   5.520   8.208
83944SOL    HW253672  12.289   5.527   8.312
83945SOL     OW53673   3.068   4.785  14.367
83945SOL    HW153674   3.119   4.715  14.326
83945SOL    HW253675   3.022   4.742  14.439
83946SOL     OW53676  11.652   6.058  13.011
83946SOL    HW153677  11.594   6.017  12.946
83946SOL    HW253678  11.613   6.035  13.095
83947SOL     OW53679   7.913   9.917   3.805
83947SOL    HW153680   7.992   9.972   3.802
83947SOL    HW253681   7.851   9.968   3.857
83948SOL     OW53682  10.151   0.583   4.088
83948SOL    HW153683  10.177   0.514   4.027
83948SOL    HW253684  10.164   0.545   4.175
83949SOL     OW53685   7.554   2.774   1.370
83949SOL    HW153686   7.633   2.798   1.419
83949SOL    HW253687   7.575   2.689   1.331
83950SOL     OW53688   0.700   7.773   1.889
83950SOL    HW153689   0.767   7.714   1.922
83950SOL    HW253690   0.744   7.823   1.820
83951SOL     OW53691   4.586  13.402   7.335
83951SOL    HW153692   4.653  13.415   7.402
83951SOL    HW253693   4.623  13.442   7.257
83952SOL     OW53694  10.956   4.323   8.511
83952SOL    HW153695  10.959   4.292   8.602
83952SOL    HW253696  10.908   4.254   8.465
83953SOL     OW53697   9.708   6.219   5.163
83953SOL    HW153698   9.614   6.220   5.146
83953SOL    HW253699   9.732   6.126   5.160
83954SOL     OW53700   4.957   4.771   7.419
83954SOL    HW153701   4.879   4.825   7.428
83954SOL    HW253702   5.030   4.833   7.421
83955SOL     OW53703   9.998   7.318   8.705
83955SOL    HW153704  10.010   7.264   8.783
83955SOL    HW253705   9.912   7.294   8.672
83956SOL     OW53706   7.795   3.115  11.405
83956SOL    HW153707   7.768   3.031  11.443
83956SOL    HW253708   7.762   3.112  11.315
83957SOL     OW53709   7.502   3.020   1.624
83957SOL    HW153710   7.523   2.945   1.679
83957SOL    HW253711   7.557   3.009   1.546
83958SOL     OW53712   1.854   7.698   0.513
83958SOL    HW153713   1.918   7.756   0.470
83958SOL    HW253714   1.867   7.715   0.606
83959SOL     OW53715   8.430   0.311   5.523
83959SOL    HW153716   8.521   0.313   5.494
83959SOL    HW253717   8.384   0.263   5.455
83960SOL     OW53718   1.858  11.783   4.407
83960SOL    HW153719   1.834  11.690   4.400
83960SOL    HW253720   1.855  11.815   4.317
83961SOL     OW53721   1.791  13.474  11.432
83961SOL    HW153722   1.719  13.536  11.445
83961SOL    HW253723   1.838  13.474  11.515
83962SOL     OW53724   4.464   2.602   7.182
83962SOL    HW153725   4.401   2.538   7.150
83962SOL    HW253726   4.549   2.566   7.157
83963SOL     OW53727  10.814   2.174   0.916
83963SOL    HW153728  10.781   2.123   0.989
83963SOL    HW253729  10.888   2.224   0.953
83964SOL     OW53730   1.025   4.051   6.984
83964SOL    HW153731   1.010   4.064   7.078
83964SOL    HW253732   1.006   3.959   6.969
83965SOL     OW53733  10.403  10.102  11.603
83965SOL    HW153734  10.451  10.079  11.682
83965SOL    HW253735  10.329  10.154  11.634
83966SOL     OW53736  11.854   1.410   1.781
83966SOL    HW153737  11.886   1.465   1.852
83966SOL    HW253738  11.795   1.348   1.823
83967SOL     OW53739   4.963   7.574   0.583
83967SOL    HW153740   4.996   7.487   0.608
83967SOL    HW253741   4.892   7.591   0.645
83968SOL     OW53742   1.248   7.132   9.599
83968SOL    HW153743   1.165   7.169   9.571
83968SOL    HW253744   1.293   7.204   9.643
83969SOL     OW53745   6.909   4.664   6.013
83969SOL    HW153746   6.813   4.667   6.019
83969SOL    HW253747   6.938   4.745   6.056
83970SOL     OW53748  13.095   0.627  14.516
83970SOL    HW153749  13.030   0.579  14.568
83970SOL    HW253750  13.097   0.582  14.432
83971SOL     OW53751   2.624   5.067   0.909
83971SOL    HW153752   2.713   5.101   0.917
83971SOL    HW253753   2.633   4.972   0.919
83972SOL     OW53754  13.678  14.473   4.442
83972SOL    HW153755  13.604  14.413   4.429
83972SOL    HW253756  13.637  14.555   4.471
83973SOL     OW53757  11.262  10.015  14.578
83973SOL    HW153758  11.218  10.043  14.659
83973SOL    HW253759  11.344   9.977  14.607
83974SOL     OW53760   4.102   0.498   3.240
83974SOL    HW153761   4.159   0.563   3.282
83974SOL    HW253762   4.015   0.515   3.278
83975SOL     OW53763  11.741  13.206   6.125
83975SOL    HW153764  11.678  13.137   6.108
83975SOL    HW253765  11.731  13.224   6.219
83976SOL     OW53766   4.493   7.934   7.043
83976SOL    HW153767   4.522   8.003   7.103
83976SOL    HW253768   4.429   7.883   7.093
83977SOL     OW53769   8.437  11.131  12.515
83977SOL    HW153770   8.472  11.116  12.603
83977SOL    HW253771   8.392  11.050  12.493
83978SOL     OW53772   5.749   2.111   2.793
83978SOL    HW153773   5.722   2.123   2.884
83978SOL    HW253774   5.826   2.054   2.799
83979SOL     OW53775   0.498  11.162  13.631
83979SOL    HW153776   0.571  11.122  13.679
83979SOL    HW253777   0.451  11.088  13.593
83980SOL     OW53778   2.610   4.448   0.237
83980SOL    HW153779   2.572   4.372   0.280
83980SOL    HW253780   2.697   4.419   0.210
83981SOL     OW53781  14.558  13.094  10.712
83981SOL    HW153782  14.522  13.014  10.750
83981SOL    HW253783  14.526  13.093  10.622
83982SOL     OW53784   7.210   1.050  13.094
83982SOL    HW153785   7.146   1.092  13.151
83982SOL    HW253786   7.289   1.041  13.148
83983SOL     OW53787   0.567   8.203   3.561
83983SOL    HW153788   0.603   8.289   3.541
83983SOL    HW253789   0.485   8.221   3.606
83984SOL     OW53790   4.714   1.148  13.802
83984SOL    HW153791   4.630   1.179  13.837
83984SOL    HW253792   4.741   1.079  13.863
83985SOL     OW53793   4.379  14.349   0.123
83985SOL    HW153794   4.324  14.390   0.189
83985SOL    HW253795   4.364  14.255   0.132
83986SOL     OW53796   3.625   0.940   0.316
83986SOL    HW153797   3.562   0.904   0.254
83986SOL    HW253798   3.708   0.900   0.291
83987SOL     OW53799   4.432   0.816   7.329
83987SOL    HW153800   4.440   0.892   7.387
83987SOL    HW253801   4.373   0.756   7.376
83988SOL     OW53802  12.302   1.924  10.435
83988SOL    HW153803  12.315   1.947  10.343
83988SOL    HW253804  12.266   2.003  10.475
83989SOL     OW53805   8.252   1.188  13.270
83989SOL    HW153806   8.160   1.179  13.243
83989SOL    HW253807   8.260   1.280  13.296
83990SOL     OW53808  14.070  12.767   8.917
83990SOL    HW153809  14.002  12.824   8.881
83990SOL    HW253810  14.142  12.827   8.937
83991SOL     OW53811  14.412   3.108   9.891
83991SOL    HW153812  14.420   3.137   9.800
83991SOL    HW253813  14.412   3.013   9.886
83992SOL     OW53814   5.087   5.412  12.308
83992SOL    HW153815   5.031   5.485  12.337
83992SOL    HW253816   5.049   5.336  12.352
83993SOL     OW53817   2.347   6.527   6.119
83993SOL    HW153818   2.341   6.501   6.212
83993SOL    HW253819   2.437   6.556   6.108
83994SOL     OW53820  11.089   1.905  13.240
83994SOL    HW153821  11.038   1.904  13.159
83994SOL    HW253822  11.113   1.997  13.251
83995SOL     OW53823   8.102   5.107   6.234
83995SOL    HW153824   8.033   5.172   6.239
83995SOL    HW253825   8.174   5.142   6.287
83996SOL     OW53826   3.829   2.399  12.335
83996SOL    HW153827   3.831   2.443  12.250
83996SOL    HW253828   3.905   2.433  12.382
83997SOL     OW53829   2.683   8.777   4.948
83997SOL    HW153830   2.668   8.686   4.975
83997SOL    HW253831   2.746   8.811   5.011
83998SOL     OW53832   9.786  12.600   0.184
83998SOL    HW153833   9.863  12.625   0.235
83998SOL    HW253834   9.785  12.661   0.111
83999SOL     OW53835  13.146   0.853   2.502
83999SOL    HW153836  13.212   0.834   2.569
83999SOL    HW253837  13.087   0.778   2.504
84000SOL     OW53838  12.021   1.714  12.943
84000SOL    HW153839  11.997   1.637  12.892
84000SOL    HW253840  12.117   1.716  12.940
84001SOL     OW53841   9.081  10.922   4.094
84001SOL    HW153842   9.014  10.859   4.068
84001SOL    HW253843   9.160  10.869   4.105
84002SOL     OW53844   3.989  13.373   8.514
84002SOL    HW153845   3.970  13.466   8.505
84002SOL    HW253846   3.973  13.338   8.426
84003SOL     OW53847   7.800   5.746  10.535
84003SOL    HW153848   7.894   5.732  10.546
84003SOL    HW253849   7.792   5.797  10.454
84004SOL     OW53850   9.799   3.922  11.442
84004SOL    HW153851   9.863   3.988  11.418
84004SOL    HW253852   9.792   3.929  11.537
84005SOL     OW53853  11.482   9.267  14.247
84005SOL    HW153854  11.437   9.222  14.319
84005SOL    HW253855  11.508   9.351  14.285
84006SOL     OW53856   6.128   9.568   7.870
84006SOL    HW153857   6.149   9.614   7.951
84006SOL    HW253858   6.212   9.557   7.826
84007SOL     OW53859   8.196  10.483   9.671
84007SOL    HW153860   8.115  10.481   9.722
84007SOL    HW253861   8.218  10.576   9.664
84008SOL     OW53862   2.906   9.662   7.807
84008SOL    HW153863   2.967   9.642   7.878
84008SOL    HW253864   2.962   9.681   7.731
84009SOL     OW53865   9.034   5.277   7.498
84009SOL    HW153866   9.020   5.193   7.454
84009SOL    HW253867   8.947   5.318   7.498
84010SOL     OW53868   1.395   9.148   1.443
84010SOL    HW153869   1.365   9.163   1.353
84010SOL    HW253870   1.360   9.222   1.493
84011SOL     OW53871   7.778   8.658  14.606
84011SOL    HW153872   7.790   8.607  14.526
84011SOL    HW253873   7.690   8.636  14.635
84012SOL     OW53874   7.625   8.136  10.401
84012SOL    HW153875   7.595   8.225  10.419
84012SOL    HW253876   7.609   8.088  10.483
84013SOL     OW53877   2.594  14.182   9.906
84013SOL    HW153878   2.558  14.129   9.977
84013SOL    HW253879   2.608  14.119   9.835
84014SOL     OW53880   0.515   5.395   3.137
84014SOL    HW153881   0.467   5.331   3.083
84014SOL    HW253882   0.449   5.429   3.198
84015SOL     OW53883   3.122   0.181  10.024
84015SOL    HW153884   3.123   0.085  10.028
84015SOL    HW253885   3.073   0.201   9.944
84016SOL     OW53886   1.950   4.272   4.277
84016SOL    HW153887   2.031   4.312   4.309
84016SOL    HW253888   1.884   4.341   4.286
84017SOL     OW53889   7.657  14.548  10.781
84017SOL    HW153890   7.728  14.595  10.825
84017SOL    HW253891   7.696  14.515  10.700
84018SOL     OW53892  14.787   4.317   5.669
84018SOL    HW153893  14.755   4.233   5.702
84018SOL    HW253894  14.847   4.294   5.599
84019SOL     OW53895   0.093   6.498   1.148
84019SOL    HW153896   0.168   6.520   1.093
84019SOL    HW253897   0.019   6.542   1.106
84020SOL     OW53898   9.051   4.914   4.673
84020SOL    HW153899   8.967   4.923   4.717
84020SOL    HW253900   9.050   4.826   4.636
84021SOL     OW53901  13.889   7.749   6.733
84021SOL    HW153902  13.914   7.800   6.656
84021SOL    HW253903  13.968   7.701   6.756
84022SOL     OW53904   4.511   2.026  10.260
84022SOL    HW153905   4.432   2.028  10.314
84022SOL    HW253906   4.533   1.933  10.254
84023SOL     OW53907   2.891   3.075   4.839
84023SOL    HW153908   2.895   2.981   4.854
84023SOL    HW253909   2.958   3.112   4.897
84024SOL     OW53910   9.599   4.832   6.160
84024SOL    HW153911   9.647   4.815   6.241
84024SOL    HW253912   9.557   4.748   6.139
84025SOL     OW53913   2.413   2.256  13.821
84025SOL    HW153914   2.405   2.236  13.915
84025SOL    HW253915   2.471   2.332  13.818
84026SOL     OW53916  11.066   0.746   4.066
84026SOL    HW153917  11.062   0.841   4.063
84026SOL    HW253918  11.157   0.725   4.045
84027SOL     OW53919   2.795   0.747   1.880
84027SOL    HW153920   2.732   0.679   1.903
84027SOL    HW253921   2.859   0.703   1.825
84028SOL     OW53922  10.405   2.532   9.455
84028SOL    HW153923  10.345   2.540   9.529
84028SOL    HW253924  10.356   2.483   9.390
84029SOL     OW53925   2.917  12.381   7.515
84029SOL    HW153926   2.885  12.470   7.505
84029SOL    HW253927   2.893  12.337   7.433
84030SOL     OW53928   0.492   1.115  14.636
84030SOL    HW153929   0.474   1.127  14.729
84030SOL    HW253930   0.559   1.047  14.632
84031SOL     OW53931   8.617  11.231   7.382
84031SOL    HW153932   8.522  11.227   7.367
84031SOL    HW253933   8.637  11.152   7.433
84032SOL     OW53934  13.527  14.683   9.904
84032SOL    HW153935  13.497  14.710   9.991
84032SOL    HW253936  13.469  14.730   9.844
84033SOL     OW53937  13.010  11.932   0.880
84033SOL    HW153938  13.080  11.895   0.826
84033SOL    HW253939  12.942  11.955   0.817
84034SOL     OW53940  14.640  13.850   4.446
84034SOL    HW153941  14.678  13.764   4.429
84034SOL    HW253942  14.708  13.912   4.420
84035SOL     OW53943  14.487   8.808   4.824
84035SOL    HW153944  14.406   8.813   4.773
84035SOL    HW253945  14.500   8.715   4.841
84036SOL     OW53946  11.855   3.077   0.927
84036SOL    HW153947  11.928   3.019   0.905
84036SOL    HW253948  11.880   3.162   0.893
84037SOL     OW53949  10.301   9.868   3.128
84037SOL    HW153950  10.342   9.848   3.212
84037SOL    HW253951  10.256   9.787   3.104
84038SOL     OW53952   4.789   2.724   4.650
84038SOL    HW153953   4.842   2.763   4.580
84038SOL    HW253954   4.833   2.641   4.670
84039SOL     OW53955  10.695   1.973   7.055
84039SOL    HW153956  10.780   1.985   7.013
84039SOL    HW253957  10.717   1.937   7.141
84040SOL     OW53958   4.862   1.851  12.178
84040SOL    HW153959   4.918   1.847  12.256
84040SOL    HW253960   4.828   1.941  12.178
84041SOL     OW53961   8.081  10.385   3.011
84041SOL    HW153962   8.142  10.417   3.077
84041SOL    HW253963   8.100  10.436   2.933
84042SOL     OW53964   7.613   7.996   1.327
84042SOL    HW153965   7.521   7.969   1.336
84042SOL    HW253966   7.659   7.942   1.391
84043SOL     OW53967  10.818   3.306  14.619
84043SOL    HW153968  10.843   3.346  14.535
84043SOL    HW253969  10.727   3.333  14.632
84044SOL     OW53970   8.308  10.774  12.027
84044SOL    HW153971   8.384  10.820  11.991
84044SOL    HW253972   8.236  10.796  11.968
84045SOL     OW53973   1.796   8.709   1.367
84045SOL    HW153974   1.780   8.674   1.279
84045SOL    HW253975   1.859   8.780   1.353
84046SOL     OW53976   3.910   7.138   1.250
84046SOL    HW153977   3.907   7.158   1.156
84046SOL    HW253978   3.955   7.053   1.254
84047SOL     OW53979   2.224   4.660   0.304
84047SOL    HW153980   2.191   4.571   0.318
84047SOL    HW253981   2.176   4.713   0.368
84048SOL     OW53982   5.428   0.500   0.976
84048SOL    HW153983   5.385   0.478   0.893
84048SOL    HW253984   5.376   0.456   1.043
84049SOL     OW53985  14.606  10.627   8.244
84049SOL    HW153986  14.677  10.624   8.181
84049SOL    HW253987  14.631  10.698   8.304
84050SOL     OW53988   1.180   8.658  12.844
84050SOL    HW153989   1.161   8.750  12.862
84050SOL    HW253990   1.128   8.637  12.766
84051SOL     OW53991   1.471   4.961   4.558
84051SOL    HW153992   1.475   4.871   4.591
84051SOL    HW253993   1.556   4.975   4.517
84052SOL     OW53994   3.381  10.308  13.696
84052SOL    HW153995   3.420  10.351  13.620
84052SOL    HW253996   3.454  10.298  13.757
84053SOL     OW53997   3.316   2.353   6.024
84053SOL    HW153998   3.295   2.427   6.081
84053SOL    HW253999   3.275   2.374   5.940
84054SOL     OW54000   6.926  13.744   5.664
84054SOL    HW154001   6.874  13.666   5.681
84054SOL    HW254002   6.897  13.807   5.730
84055SOL     OW54003   0.777  10.739   2.752
84055SOL    HW154004   0.810  10.790   2.826
84055SOL    HW254005   0.737  10.662   2.792
84056SOL     OW54006   7.868   9.175   6.046
84056SOL    HW154007   7.786   9.212   6.014
84056SOL    HW254008   7.858   9.174   6.141
84057SOL     OW54009  13.207   6.417  11.022
84057SOL    HW154010  13.132   6.394  10.967
84057SOL    HW254011  13.245   6.332  11.046
84058SOL     OW54012   7.378  12.906  11.025
84058SOL    HW154013   7.452  12.945  11.073
84058SOL    HW254014   7.304  12.913  11.086
84059SOL     OW54015  11.138   2.672   6.593
84059SOL    HW154016  11.122   2.582   6.620
84059SOL    HW254017  11.168   2.665   6.502
84060SOL     OW54018   4.625   3.612   9.077
84060SOL    HW154019   4.690   3.614   9.008
84060SOL    HW254020   4.604   3.520   9.088
84061SOL     OW54021  13.436   1.109  14.586
84061SOL    HW154022  13.393   1.166  14.523
84061SOL    HW254023  13.430   1.022  14.548
84062SOL     OW54024   4.926  14.096   3.243
84062SOL    HW154025   5.021  14.104   3.235
84062SOL    HW254026   4.893  14.137   3.163
84063SOL     OW54027  13.990  14.676  13.911
84063SOL    HW154028  13.941  14.744  13.956
84063SOL    HW254029  13.974  14.692  13.818
84064SOL     OW54030   3.649  12.145  14.522
84064SOL    HW154031   3.711  12.095  14.576
84064SOL    HW254032   3.693  12.229  14.507
84065SOL     OW54033   7.346   5.844   8.633
84065SOL    HW154034   7.307   5.795   8.560
84065SOL    HW254035   7.290   5.921   8.642
84066SOL     OW54036   7.046   8.144   3.686
84066SOL    HW154037   7.139   8.149   3.664
84066SOL    HW254038   7.001   8.166   3.605
84067SOL     OW54039   3.692   9.214   1.145
84067SOL    HW154040   3.656   9.303   1.143
84067SOL    HW254041   3.712   9.194   1.053
84068SOL     OW54042   5.862  10.656   5.555
84068SOL    HW154043   5.912  10.646   5.636
84068SOL    HW254044   5.830  10.747   5.558
84069SOL     OW54045   3.083   2.235   4.801
84069SOL    HW154046   3.176   2.225   4.779
84069SOL    HW254047   3.036   2.211   4.722
84070SOL     OW54048  12.114   0.240   3.322
84070SOL    HW154049  12.127   0.162   3.269
84070SOL    HW254050  12.053   0.294   3.271
84071SOL     OW54051   8.817  10.533  10.896
84071SOL    HW154052   8.762  10.607  10.924
84071SOL    HW254053   8.757  10.474  10.851
84072SOL     OW54054   9.029   4.487   9.679
84072SOL    HW154055   9.081   4.423   9.726
84072SOL    HW254056   9.092   4.553   9.650
84073SOL     OW54057   9.393   9.118   3.543
84073SOL    HW154058   9.346   9.036   3.558
84073SOL    HW254059   9.354   9.180   3.605
84074SOL     OW54060   0.057  14.563   0.066
84074SOL    HW154061   0.093  14.483   0.103
84074SOL    HW254062   0.017  14.535  14.865
84075SOL     OW54063   3.085   2.951  14.117
84075SOL    HW154064   3.160   2.990  14.073
84075SOL    HW254065   3.062   3.013  14.186
84076SOL     OW54066   8.248   7.945  14.798
84076SOL    HW154067   8.334   7.985  14.807
84076SOL    HW254068   8.214   7.978  14.714
84077SOL     OW54069  12.924   3.887  11.505
84077SOL    HW154070  13.003   3.832  11.505
84077SOL    HW254071  12.946   3.960  11.448
84078SOL     OW54072  13.107  14.321   2.470
84078SOL    HW154073  13.165  14.397   2.478
84078SOL    HW254074  13.116  14.276   2.553
84079SOL     OW54075   6.857  11.185   5.950
84079SOL    HW154076   6.927  11.247   5.970
84079SOL    HW254077   6.837  11.143   6.034
84080SOL     OW54078   3.709   3.558   8.337
84080SOL    HW154079   3.764   3.493   8.381
84080SOL    HW254080   3.772   3.620   8.299
84081SOL     OW54081   1.391   3.023  12.309
84081SOL    HW154082   1.341   2.956  12.262
84081SOL    HW254083   1.380   3.103  12.258
84082SOL     OW54084   1.400   0.028   1.326
84082SOL    HW154085   1.316   0.001   1.362
84082SOL    HW254086   1.462  14.845   1.358
84083SOL     OW54087  14.493   9.718   0.564
84083SOL    HW154088  14.449   9.734   0.481
84083SOL    HW254089  14.429   9.743   0.630
84084SOL     OW54090  14.160   4.966   1.942
84084SOL    HW154091  14.181   5.059   1.935
84084SOL    HW254092  14.246   4.923   1.952
84085SOL     OW54093  12.894  12.777   1.610
84085SOL    HW154094  12.939  12.843   1.558
84085SOL    HW254095  12.802  12.802   1.608
84086SOL     OW54096  13.622  10.462   4.692
84086SOL    HW154097  13.588  10.418   4.770
84086SOL    HW254098  13.547  10.509   4.656
84087SOL     OW54099  12.635   1.388   3.087
84087SOL    HW154100  12.712   1.427   3.048
84087SOL    HW254101  12.570   1.458   3.088
84088SOL     OW54102   3.872   0.067  12.127
84088SOL    HW154103   3.897  14.870  12.175
84088SOL    HW254104   3.780   0.082  12.152
84089SOL     OW54105   2.267   8.417   6.271
84089SOL    HW154106   2.222   8.401   6.354
84089SOL    HW254107   2.284   8.511   6.271
84090SOL     OW54108  12.795  13.371   0.221
84090SOL    HW154109  12.757  13.448   0.179
84090SOL    HW254110  12.884  13.366   0.186
84091SOL     OW54111   7.612  11.429   3.640
84091SOL    HW154112   7.530  11.391   3.608
84091SOL    HW254113   7.653  11.467   3.562
84092SOL     OW54114   8.425   7.340  12.240
84092SOL    HW154115   8.477   7.372  12.314
84092SOL    HW254116   8.339   7.320  12.277
84093SOL     OW54117   1.010   1.618   2.000
84093SOL    HW154118   0.971   1.705   1.999
84093SOL    HW254119   1.039   1.605   2.090
84094SOL     OW54120   5.157   7.889   6.452
84094SOL    HW154121   5.218   7.816   6.439
84094SOL    HW254122   5.094   7.856   6.516
84095SOL     OW54123   9.259  12.782  10.191
84095SOL    HW154124   9.239  12.777  10.285
84095SOL    HW254125   9.341  12.832  10.187
84096SOL     OW54126   8.872   2.951   8.877
84096SOL    HW154127   8.896   2.997   8.957
84096SOL    HW254128   8.845   3.020   8.816
84097SOL     OW54129  13.409   5.831  13.562
84097SOL    HW154130  13.439   5.842  13.472
84097SOL    HW254131  13.331   5.776  13.555
84098SOL     OW54132  14.015  11.520   3.385
84098SOL    HW154133  14.004  11.489   3.295
84098SOL    HW254134  14.022  11.615   3.377
84099SOL     OW54135   1.075   8.744   3.892
84099SOL    HW154136   1.134   8.741   3.817
84099SOL    HW254137   1.008   8.679   3.873
84100SOL     OW54138   6.999   3.568  14.866
84100SOL    HW154139   6.992   3.479  14.831
84100SOL    HW254140   6.969   3.624  14.794
84101SOL     OW54141  14.368   9.159   9.958
84101SOL    HW154142  14.416   9.150  10.040
84101SOL    HW254143  14.420   9.220   9.906
84102SOL     OW54144   4.206   1.499   7.644
84102SOL    HW154145   4.286   1.455   7.618
84102SOL    HW254146   4.144   1.480   7.574
84103SOL     OW54147   1.211  13.418  11.548
84103SOL    HW154148   1.123  13.457  11.554
84103SOL    HW254149   1.244  13.421  11.637
84104SOL     OW54150   7.332   4.589   1.144
84104SOL    HW154151   7.351   4.674   1.104
84104SOL    HW254152   7.407   4.535   1.120
84105SOL     OW54153   2.664  12.124  14.253
84105SOL    HW154154   2.712  12.203  14.227
84105SOL    HW254155   2.594  12.156  14.309
84106SOL     OW54156  14.756  11.098  11.632
84106SOL    HW154157  14.809  11.115  11.555
84106SOL    HW254158  14.667  11.086  11.598
84107SOL     OW54159  10.825   6.952   9.972
84107SOL    HW154160  10.751   6.901  10.003
84107SOL    HW254161  10.853   7.003  10.049
84108SOL     OW54162   6.777  13.657  12.648
84108SOL    HW154163   6.719  13.691  12.716
84108SOL    HW254164   6.718  13.623  12.581
84109SOL     OW54165   9.680   5.441  10.468
84109SOL    HW154166   9.644   5.365  10.422
84109SOL    HW254167   9.700   5.503  10.398
84110SOL     OW54168   5.057   3.084  11.818
84110SOL    HW154169   5.150   3.089  11.835
84110SOL    HW254170   5.047   3.109  11.726
84111SOL     OW54171   5.215  13.380  11.143
84111SOL    HW154172   5.217  13.288  11.169
84111SOL    HW254173   5.122  13.397  11.125
84112SOL     OW54174  11.619   5.862   8.935
84112SOL    HW154175  11.561   5.938   8.943
84112SOL    HW254176  11.607   5.814   9.017
84113SOL     OW54177  12.535  11.223   1.257
84113SOL    HW154178  12.602  11.172   1.302
84113SOL    HW254179  12.512  11.293   1.319
84114SOL     OW54180  12.611  12.459   9.607
84114SOL    HW154181  12.695  12.486   9.643
84114SOL    HW254182  12.552  12.531   9.629
84115SOL     OW54183   4.151  14.828   1.288
84115SOL    HW154184   4.231  14.789   1.254
84115SOL    HW254185   4.155   0.037   1.260
84116SOL     OW54186   6.950  12.718  10.525
84116SOL    HW154187   6.901  12.794  10.555
84116SOL    HW254188   7.041  12.739  10.545
84117SOL     OW54189  11.134   7.585   8.465
84117SOL    HW154190  11.040   7.585   8.478
84117SOL    HW254191  11.160   7.493   8.475
84118SOL     OW54192   7.594  10.853   4.348
84118SOL    HW154193   7.636  10.872   4.432
84118SOL    HW254194   7.557  10.936   4.320
84119SOL     OW54195   5.446   1.213   6.944
84119SOL    HW154196   5.358   1.196   6.909
84119SOL    HW254197   5.499   1.232   6.867
84120SOL     OW54198   4.580   4.877  11.383
84120SOL    HW154199   4.625   4.939  11.326
84120SOL    HW254200   4.586   4.793  11.337
84121SOL     OW54201   4.269  11.450   8.606
84121SOL    HW154202   4.243  11.526   8.658
84121SOL    HW254203   4.242  11.374   8.658
84122SOL     OW54204   9.632  10.032  11.341
84122SOL    HW154205   9.711  10.010  11.292
84122SOL    HW254206   9.580   9.951  11.341
84123SOL     OW54207   7.828   4.925  11.438
84123SOL    HW154208   7.792   4.855  11.494
84123SOL    HW254209   7.878   4.878  11.371
84124SOL     OW54210   1.693   0.749   2.743
84124SOL    HW154211   1.635   0.674   2.753
84124SOL    HW254212   1.671   0.786   2.657
84125SOL     OW54213   1.970   0.509   1.983
84125SOL    HW154214   1.960   0.594   2.024
84125SOL    HW254215   1.987   0.449   2.055
84126SOL     OW54216  12.363  14.299  14.658
84126SOL    HW154217  12.285  14.354  14.657
84126SOL    HW254218  12.427  14.349  14.708
84127SOL     OW54219  14.393   2.164   5.415
84127SOL    HW154220  14.410   2.129   5.503
84127SOL    HW254221  14.365   2.087   5.364
84128SOL     OW54222   8.541   6.392  14.142
84128SOL    HW154223   8.578   6.480  14.136
84128SOL    HW254224   8.473   6.390  14.074
84129SOL     OW54225   8.451  14.478   1.090
84129SOL    HW154226   8.528  14.512   1.045
84129SOL    HW254227   8.428  14.398   1.043
84130SOL     OW54228   4.090   1.978  14.271
84130SOL    HW154229   4.125   2.053  14.320
84130SOL    HW254230   4.027   2.017  14.210
84131SOL     OW54231  11.844   9.753  13.122
84131SOL    HW154232  11.937   9.759  13.100
84131SOL    HW254233  11.802   9.724  13.040
84132SOL     OW54234  11.050   9.047   2.844
84132SOL    HW154235  11.135   9.079   2.814
84132SOL    HW254236  11.064   9.027   2.936
84133SOL     OW54237   6.953   4.516   0.461
84133SOL    HW154238   6.965   4.602   0.499
84133SOL    HW254239   7.009   4.515   0.383
84134SOL     OW54240   1.720   9.948   7.236
84134SOL    HW154241   1.679   9.871   7.197
84134SOL    HW254242   1.681   9.954   7.324
84135SOL     OW54243  10.182  11.811   3.861
84135SOL    HW154244  10.094  11.784   3.888
84135SOL    HW254245  10.177  11.906   3.852
84136SOL     OW54246  12.212   3.458  10.332
84136SOL    HW154247  12.152   3.426  10.400
84136SOL    HW254248  12.294   3.413  10.349
84137SOL     OW54249  14.293   9.138   3.476
84137SOL    HW154250  14.267   9.127   3.567
84137SOL    HW254251  14.388   9.139   3.477
84138SOL     OW54252   6.857  10.206  12.411
84138SOL    HW154253   6.905  10.273  12.460
84138SOL    HW254254   6.899  10.204  12.325
84139SOL     OW54255   9.982   6.834   8.769
84139SOL    HW154256   9.968   6.740   8.767
84139SOL    HW254257   9.901   6.872   8.734
84140SOL     OW54258   8.706  10.105   3.983
84140SOL    HW154259   8.677  10.021   4.019
84140SOL    HW254260   8.686  10.169   4.051
84141SOL     OW54261   0.978   4.929   1.732
84141SOL    HW154262   0.990   4.999   1.796
84141SOL    HW254263   0.913   4.964   1.670
84142SOL     OW54264   7.491   4.725   3.566
84142SOL    HW154265   7.401   4.697   3.579
84142SOL    HW254266   7.488   4.781   3.489
84143SOL     OW54267   5.961   5.796   2.375
84143SOL    HW154268   6.001   5.800   2.462
84143SOL    HW254269   6.035   5.796   2.315
84144SOL     OW54270   7.744  14.857   9.108
84144SOL    HW154271   7.681  14.868   9.179
84144SOL    HW254272   7.717   0.038   9.041
84145SOL     OW54273   4.042   3.120  10.619
84145SOL    HW154274   4.044   3.210  10.588
84145SOL    HW254275   4.109   3.116  10.688
84146SOL     OW54276   0.052   8.060   5.381
84146SOL    HW154277   0.004   8.023   5.456
84146SOL    HW254278   0.066   7.985   5.323
84147SOL     OW54279  12.278   1.875   0.725
84147SOL    HW154280  12.352   1.915   0.679
84147SOL    HW254281  12.252   1.939   0.791
84148SOL     OW54282  10.920  11.334   8.064
84148SOL    HW154283  10.871  11.296   8.138
84148SOL    HW254284  10.897  11.277   7.990
84149SOL     OW54285   0.491   3.081   4.609
84149SOL    HW154286   0.558   3.063   4.675
84149SOL    HW254287   0.509   3.017   4.540
84150SOL     OW54288  11.027  10.051   7.933
84150SOL    HW154289  11.104  10.093   7.894
84150SOL    HW254290  10.996   9.990   7.866
84151SOL     OW54291   0.671   3.520   7.765
84151SOL    HW154292   0.700   3.486   7.849
84151SOL    HW254293   0.683   3.615   7.771
84152SOL     OW54294   7.981  12.828   1.570
84152SOL    HW154295   7.972  12.738   1.601
84152SOL    HW254296   7.898  12.869   1.592
84153SOL     OW54297   4.527   2.629   1.284
84153SOL    HW154298   4.490   2.615   1.197
84153SOL    HW254299   4.466   2.584   1.343
84154SOL     OW54300  13.221   7.331   7.145
84154SOL    HW154301  13.303   7.334   7.096
84154SOL    HW254302  13.205   7.238   7.158
84155SOL     OW54303  12.670   5.726   0.350
84155SOL    HW154304  12.710   5.752   0.267
84155SOL    HW254305  12.641   5.636   0.335
84156SOL     OW54306   1.346   1.130   7.828
84156SOL    HW154307   1.261   1.087   7.837
84156SOL    HW254308   1.396   1.073   7.770
84157SOL     OW54309   6.656   2.656  12.650
84157SOL    HW154310   6.630   2.718  12.581
84157SOL    HW254311   6.633   2.570  12.614
84158SOL     OW54312   9.074   4.253  12.790
84158SOL    HW154313   9.027   4.292  12.864
84158SOL    HW254314   9.009   4.195  12.749
84159SOL     OW54315  14.010   8.424   3.258
84159SOL    HW154316  14.032   8.432   3.351
84159SOL    HW254317  14.009   8.514   3.225
84160SOL     OW54318  10.968   7.161   5.528
84160SOL    HW154319  11.061   7.140   5.539
84160SOL    HW254320  10.929   7.142   5.614
84161SOL     OW54321   9.760   2.810   9.829
84161SOL    HW154322   9.706   2.840   9.901
84161SOL    HW254323   9.739   2.869   9.757
84162SOL     OW54324   0.204  11.186   1.638
84162SOL    HW154325   0.276  11.169   1.699
84162SOL    HW254326   0.195  11.281   1.637
84163SOL     OW54327  11.176  14.076   7.576
84163SOL    HW154328  11.204  14.071   7.485
84163SOL    HW254329  11.111  14.147   7.577
84164SOL     OW54330   7.969  13.296   6.483
84164SOL    HW154331   7.952  13.276   6.391
84164SOL    HW254332   8.048  13.246   6.503
84165SOL     OW54333   9.106   3.299   7.618
84165SOL    HW154334   9.136   3.388   7.633
84165SOL    HW254335   9.186   3.248   7.608
84166SOL     OW54336   5.939   4.369  14.512
84166SOL    HW154337   5.929   4.446  14.456
84166SOL    HW254338   5.850   4.350  14.543
84167SOL     OW54339   5.189   2.275   9.313
84167SOL    HW154340   5.280   2.280   9.285
84167SOL    HW254341   5.194   2.254   9.407
84168SOL     OW54342  10.614   9.300   5.234
84168SOL    HW154343  10.588   9.381   5.190
84168SOL    HW254344  10.703   9.318   5.265
84169SOL     OW54345   9.618   8.001  11.469
84169SOL    HW154346   9.674   7.946  11.525
84169SOL    HW254347   9.669   8.081  11.456
84170SOL     OW54348  12.984  13.284  11.145
84170SOL    HW154349  13.059  13.226  11.135
84170SOL    HW254350  13.019  13.360  11.192
84171SOL     OW54351   3.307   3.834  11.586
84171SOL    HW154352   3.236   3.854  11.526
84171SOL    HW254353   3.285   3.747  11.621
84172SOL     OW54354  10.933   3.871   6.995
84172SOL    HW154355  10.948   3.916   7.078
84172SOL    HW254356  10.860   3.811   7.012
84173SOL     OW54357   8.219   4.409   5.306
84173SOL    HW154358   8.187   4.385   5.393
84173SOL    HW254359   8.168   4.356   5.246
84174SOL     OW54360   4.417   7.012  10.131
84174SOL    HW154361   4.401   7.049  10.218
84174SOL    HW254362   4.337   6.964  10.111
84175SOL     OW54363  10.046   0.384   1.296
84175SOL    HW154364  10.116   0.449   1.308
84175SOL    HW254365  10.011   0.371   1.385
84176SOL     OW54366   6.235   8.001  11.922
84176SOL    HW154367   6.173   8.018  11.851
84176SOL    HW254368   6.293   7.933  11.887
84177SOL     OW54369   6.927  12.955   1.128
84177SOL    HW154370   7.010  12.986   1.163
84177SOL    HW254371   6.942  12.947   1.034
84178SOL     OW54372   9.110  11.215   7.798
84178SOL    HW154373   9.131  11.297   7.843
84178SOL    HW254374   9.041  11.239   7.736
84179SOL     OW54375   3.914  11.890   5.033
84179SOL    HW154376   4.002  11.927   5.045
84179SOL    HW254377   3.883  11.875   5.123
84180SOL     OW54378   5.045   0.962  14.465
84180SOL    HW154379   4.982   1.031  14.444
84180SOL    HW254380   5.119   1.008  14.505
84181SOL     OW54381   8.215   8.355   3.138
84181SOL    HW154382   8.227   8.444   3.106
84181SOL    HW254383   8.120   8.341   3.138
84182SOL     OW54384   4.511   7.452   8.359
84182SOL    HW154385   4.595   7.496   8.364
84182SOL    HW254386   4.450   7.511   8.404
84183SOL     OW54387  12.541  12.161   7.749
84183SOL    HW154388  12.596  12.234   7.719
84183SOL    HW254389  12.600  12.085   7.749
84184SOL     OW54390   1.026   5.108  13.237
84184SOL    HW154391   1.103   5.161  13.255
84184SOL    HW254392   0.960   5.139  13.300
84185SOL     OW54393   7.545   9.191   8.653
84185SOL    HW154394   7.615   9.143   8.610
84185SOL    HW254395   7.512   9.251   8.586
84186SOL     OW54396   8.053   1.019   4.584
84186SOL    HW154397   8.148   1.018   4.569
84186SOL    HW254398   8.014   1.002   4.499
84187SOL     OW54399   9.656   7.672   0.862
84187SOL    HW154400   9.648   7.678   0.957
84187SOL    HW254401   9.623   7.585   0.840
84188SOL     OW54402  12.182   5.601   1.051
84188SOL    HW154403  12.262   5.551   1.033
84188SOL    HW254404  12.127   5.542   1.103
84189SOL     OW54405  10.831   6.052  10.967
84189SOL    HW154406  10.907   6.103  10.994
84189SOL    HW254407  10.798   6.015  11.049
84190SOL     OW54408  10.964   2.722   5.013
84190SOL    HW154409  10.938   2.805   4.973
84190SOL    HW254410  11.029   2.746   5.080
84191SOL     OW54411  11.724   5.287   1.292
84191SOL    HW154412  11.688   5.244   1.215
84191SOL    HW254413  11.815   5.258   1.296
84192SOL     OW54414  13.884  11.129   3.273
84192SOL    HW154415  13.958  11.147   3.215
84192SOL    HW254416  13.853  11.216   3.299
84193SOL     OW54417   0.036   8.070   5.822
84193SOL    HW154418   0.005   8.038   5.907
84193SOL    HW254419   0.111   8.015   5.802
84194SOL     OW54420   4.133  12.571  14.786
84194SOL    HW154421   4.217  12.538  14.753
84194SOL    HW254422   4.110  12.642  14.726
84195SOL     OW54423  12.418   6.853  11.409
84195SOL    HW154424  12.438   6.887  11.322
84195SOL    HW254425  12.349   6.789  11.394
84196SOL     OW54426   4.502   4.308   4.180
84196SOL    HW154427   4.550   4.284   4.258
84196SOL    HW254428   4.503   4.404   4.179
84197SOL     OW54429   6.143   0.606   3.866
84197SOL    HW154430   6.149   0.691   3.822
84197SOL    HW254431   6.228   0.596   3.909
84198SOL     OW54432   4.876   9.660  13.415
84198SOL    HW154433   4.925   9.591  13.459
84198SOL    HW254434   4.924   9.740  13.435
84199SOL     OW54435   1.892   1.939   0.390
84199SOL    HW154436   1.893   2.035   0.385
84199SOL    HW254437   1.799   1.915   0.383
84200SOL     OW54438   0.918  12.971  14.659
84200SOL    HW154439   0.920  13.012  14.573
84200SOL    HW254440   0.841  13.007  14.702
84201SOL     OW54441   6.876   6.543  11.998
84201SOL    HW154442   6.968   6.550  12.021
84201SOL    HW254443   6.852   6.630  11.966
84202SOL     OW54444   9.954   3.984  10.118
84202SOL    HW154445  10.006   4.013  10.043
84202SOL    HW254446   9.946   3.889  10.105
84203SOL     OW54447  11.989   0.108  11.875
84203SOL    HW154448  11.894   0.102  11.886
84203SOL    HW254449  12.019   0.153  11.954
84204SOL     OW54450   2.507  14.476  13.792
84204SOL    HW154451   2.577  14.418  13.823
84204SOL    HW254452   2.549  14.560  13.779
84205SOL     OW54453   2.535   1.699   5.577
84205SOL    HW154454   2.528   1.616   5.529
84205SOL    HW254455   2.453   1.744   5.557
84206SOL     OW54456   5.026  13.706  13.712
84206SOL    HW154457   4.976  13.773  13.665
84206SOL    HW254458   5.037  13.741  13.800
84207SOL     OW54459  10.187   9.666   2.974
84207SOL    HW154460  10.276   9.643   2.949
84207SOL    HW254461  10.163   9.737   2.915
84208SOL     OW54462   9.510   6.517  14.259
84208SOL    HW154463   9.560   6.498  14.338
84208SOL    HW254464   9.438   6.453  14.259
84209SOL     OW54465   9.090  11.590   6.876
84209SOL    HW154466   9.104  11.683   6.897
84209SOL    HW254467   9.159  11.568   6.814
84210SOL     OW54468  12.445   9.359  11.631
84210SOL    HW154469  12.450   9.282  11.688
84210SOL    HW254470  12.498   9.425  11.675
84211SOL     OW54471   4.915  10.532   4.470
84211SOL    HW154472   4.878  10.619   4.463
84211SOL    HW254473   4.973  10.537   4.546
84212SOL     OW54474   7.534   3.568   5.138
84212SOL    HW154475   7.499   3.521   5.213
84212SOL    HW254476   7.456   3.600   5.091
84213SOL     OW54477   7.136   0.339   1.466
84213SOL    HW154478   7.071   0.274   1.439
84213SOL    HW254479   7.112   0.361   1.556
84214SOL     OW54480  14.420   2.839   7.891
84214SOL    HW154481  14.461   2.839   7.805
84214SOL    HW254482  14.492   2.859   7.951
84215SOL     OW54483   5.643  12.363   8.051
84215SOL    HW154484   5.738  12.366   8.039
84215SOL    HW254485   5.623  12.270   8.065
84216SOL     OW54486  12.509  13.663  12.507
84216SOL    HW154487  12.557  13.661  12.590
84216SOL    HW254488  12.466  13.749  12.506
84217SOL     OW54489   4.532   1.917   3.333
84217SOL    HW154490   4.483   1.856   3.277
84217SOL    HW254491   4.469   1.945   3.399
84218SOL     OW54492   2.815   3.604   2.027
84218SOL    HW154493   2.745   3.661   2.056
84218SOL    HW254494   2.895   3.650   2.051
84219SOL     OW54495  13.557  12.862  11.522
84219SOL    HW154496  13.498  12.787  11.530
84219SOL    HW254497  13.533  12.902  11.438
84220SOL     OW54498   2.310  14.441   7.155
84220SOL    HW154499   2.224  14.482   7.155
84220SOL    HW254500   2.336  14.438   7.247
84221SOL     OW54501   5.304   2.020   9.392
84221SOL    HW154502   5.398   2.033   9.397
84221SOL    HW254503   5.267   2.088   9.449
84222SOL     OW54504  12.595   9.261  14.494
84222SOL    HW154505  12.546   9.343  14.503
84222SOL    HW254506  12.621   9.238  14.584
84223SOL     OW54507   5.582   9.656   0.678
84223SOL    HW154508   5.660   9.600   0.686
84223SOL    HW254509   5.586   9.714   0.753
84224SOL     OW54510  11.146  14.698  14.476
84224SOL    HW154511  11.227  14.745  14.493
84224SOL    HW254512  11.119  14.727  14.389
84225SOL     OW54513   8.250   2.589   5.705
84225SOL    HW154514   8.158   2.568   5.720
84225SOL    HW254515   8.295   2.505   5.714
84226SOL     OW54516  12.617   9.731   4.631
84226SOL    HW154517  12.524   9.752   4.632
84226SOL    HW254518  12.634   9.706   4.540
84227SOL     OW54519   7.813   8.863   7.092
84227SOL    HW154520   7.859   8.934   7.137
84227SOL    HW254521   7.835   8.784   7.142
84228SOL     OW54522  14.842   0.967   2.198
84228SOL    HW154523  14.780   1.010   2.139
84228SOL    HW254524  14.799   0.885   2.222
84229SOL     OW54525   7.975   5.540  10.008
84229SOL    HW154526   7.941   5.629  10.013
84229SOL    HW254527   8.061   5.550   9.966
84230SOL     OW54528   2.828  13.248  11.362
84230SOL    HW154529   2.838  13.325  11.307
84230SOL    HW254530   2.763  13.194  11.317
84231SOL     OW54531  11.756   7.507  13.714
84231SOL    HW154532  11.674   7.458  13.707
84231SOL    HW254533  11.738   7.591  13.671
84232SOL     OW54534   0.280  10.745  14.189
84232SOL    HW154535   0.281  10.650  14.202
84232SOL    HW254536   0.211  10.777  14.247
84233SOL     OW54537   5.715  14.390   4.273
84233SOL    HW154538   5.682  14.437   4.197
84233SOL    HW254539   5.712  14.297   4.248
84234SOL     OW54540  12.563   8.370  10.017
84234SOL    HW154541  12.526   8.422   9.946
84234SOL    HW254542  12.657   8.368  10.000
84235SOL     OW54543   3.333  14.532   3.019
84235SOL    HW154544   3.396  14.463   3.004
84235SOL    HW254545   3.361  14.573   3.102
84236SOL     OW54546   1.837  12.537  14.407
84236SOL    HW154547   1.754  12.567  14.370
84236SOL    HW254548   1.900  12.546  14.335
84237SOL     OW54549   3.830   2.744  13.857
84237SOL    HW154550   3.893   2.789  13.801
84237SOL    HW254551   3.869   2.748  13.944
84238SOL     OW54552  14.040  13.692   3.151
84238SOL    HW154553  13.947  13.673   3.165
84238SOL    HW254554  14.041  13.755   3.079
84239SOL     OW54555   1.139  14.343  14.055
84239SOL    HW154556   1.157  14.317  14.145
84239SOL    HW254557   1.085  14.273  14.020
84240SOL     OW54558  10.250  10.396  11.923
84240SOL    HW154559  10.290  10.408  12.009
84240SOL    HW254560  10.323  10.370  11.866
84241SOL     OW54561   4.415   8.226   4.362
84241SOL    HW154562   4.466   8.281   4.421
84241SOL    HW254563   4.335   8.205   4.410
84242SOL     OW54564   1.536  13.590  11.606
84242SOL    HW154565   1.534  13.642  11.526
84242SOL    HW254566   1.469  13.628  11.662
84243SOL     OW54567  10.728  11.578   3.018
84243SOL    HW154568  10.754  11.487   3.029
84243SOL    HW254569  10.772  11.607   2.939
84244SOL     OW54570   9.732  11.691  14.290
84244SOL    HW154571   9.666  11.656  14.350
84244SOL    HW254572   9.784  11.750  14.343
84245SOL     OW54573  10.143   6.711  14.212
84245SOL    HW154574  10.107   6.640  14.265
84245SOL    HW254575  10.186   6.668  14.139
84246SOL     OW54576  14.329   8.232   3.389
84246SOL    HW154577  14.256   8.237   3.451
84246SOL    HW254578  14.288   8.204   3.306
84247SOL     OW54579   4.586   0.285   1.786
84247SOL    HW154580   4.513   0.233   1.753
84247SOL    HW254581   4.583   0.366   1.736
84248SOL     OW54582  10.614   6.997  14.385
84248SOL    HW154583  10.595   6.958  14.470
84248SOL    HW254584  10.563   7.078  14.384
84249SOL     OW54585   0.452  10.413   2.803
84249SOL    HW154586   0.438  10.360   2.882
84249SOL    HW254587   0.547  10.424   2.798
84250SOL     OW54588   3.630   9.010   7.145
84250SOL    HW154589   3.626   8.937   7.083
84250SOL    HW254590   3.610   9.088   7.092
84251SOL     OW54591   3.889   0.226   7.042
84251SOL    HW154592   3.796   0.238   7.022
84251SOL    HW254593   3.901   0.131   7.042
84252SOL     OW54594  13.993   7.700   5.460
84252SOL    HW154595  13.967   7.679   5.370
84252SOL    HW254596  14.003   7.614   5.503
84253SOL     OW54597   2.792   5.938   3.760
84253SOL    HW154598   2.830   5.999   3.823
84253SOL    HW254599   2.850   5.862   3.762
84254SOL     OW54600   0.631   4.715   4.783
84254SOL    HW154601   0.718   4.693   4.817
84254SOL    HW254602   0.616   4.651   4.713
84255SOL     OW54603   6.199   9.765   8.879
84255SOL    HW154604   6.289   9.736   8.865
84255SOL    HW254605   6.206   9.857   8.903
84256SOL     OW54606   8.113   8.349  12.272
84256SOL    HW154607   8.022   8.377  12.276
84256SOL    HW254608   8.129   8.307  12.357
84257SOL     OW54609   5.201   1.984   3.323
84257SOL    HW154610   5.188   2.036   3.244
84257SOL    HW254611   5.114   1.978   3.363
84258SOL     OW54612  11.857   9.908   8.016
84258SOL    HW154613  11.823   9.991   7.983
84258SOL    HW254614  11.882   9.927   8.107
84259SOL     OW54615   1.792  10.570  10.489
84259SOL    HW154616   1.817  10.499  10.430
84259SOL    HW254617   1.869  10.583  10.545
84260SOL     OW54618   0.992   3.898  11.560
84260SOL    HW154619   0.949   3.859  11.484
84260SOL    HW254620   0.947   3.859  11.635
84261SOL     OW54621  10.069  10.856   9.785
84261SOL    HW154622  10.099  10.907   9.710
84261SOL    HW254623  10.106  10.769   9.771
84262SOL     OW54624   8.230   6.289  13.180
84262SOL    HW154625   8.242   6.381  13.204
84262SOL    HW254626   8.137   6.273  13.192
84263SOL     OW54627  11.042   7.513   5.047
84263SOL    HW154628  11.105   7.444   5.030
84263SOL    HW254629  10.983   7.511   4.971
84264SOL     OW54630   1.962  11.013   7.178
84264SOL    HW154631   2.049  11.052   7.187
84264SOL    HW254632   1.913  11.077   7.127
84265SOL     OW54633   8.483  14.828   1.209
84265SOL    HW154634   8.426  14.829   1.132
84265SOL    HW254635   8.452  14.754   1.261
84266SOL     OW54636   8.912   4.346   3.340
84266SOL    HW154637   8.964   4.331   3.261
84266SOL    HW254638   8.885   4.258   3.367
84267SOL     OW54639  12.458   7.855   0.612
84267SOL    HW154640  12.429   7.772   0.650
84267SOL    HW254641  12.379   7.908   0.606
84268SOL     OW54642   9.916   0.655  12.803
84268SOL    HW154643   9.906   0.744  12.838
84268SOL    HW254644  10.009   0.646  12.787
84269SOL     OW54645   8.377   2.663   2.017
84269SOL    HW154646   8.472   2.657   2.022
84269SOL    HW254647   8.348   2.674   2.107
84270SOL     OW54648  13.312   2.076  12.321
84270SOL    HW154649  13.247   2.105  12.258
84270SOL    HW254650  13.262   2.035  12.391
84271SOL     OW54651   9.407  13.404   7.254
84271SOL    HW154652   9.411  13.330   7.315
84271SOL    HW254653   9.404  13.482   7.310
84272SOL     OW54654   9.927   3.267  14.817
84272SOL    HW154655   9.868   3.327  14.772
84272SOL    HW254656   9.929   3.189  14.761
84273SOL     OW54657   9.577   8.307   0.509
84273SOL    HW154658   9.614   8.224   0.480
84273SOL    HW254659   9.492   8.284   0.548
84274SOL     OW54660   7.633   9.148  12.674
84274SOL    HW154661   7.725   9.156  12.649
84274SOL    HW254662   7.634   9.151  12.770
84275SOL     OW54663   5.227   8.761   6.952
84275SOL    HW154664   5.258   8.798   7.035
84275SOL    HW254665   5.264   8.673   6.950
84276SOL     OW54666  10.402   7.645   1.985
84276SOL    HW154667  10.314   7.633   1.949
84276SOL    HW254668  10.403   7.736   2.014
84277SOL     OW54669   8.851   0.480   5.788
84277SOL    HW154670   8.893   0.522   5.863
84277SOL    HW254671   8.836   0.551   5.726
84278SOL     OW54672  11.705   6.430   1.874
84278SOL    HW154673  11.631   6.399   1.926
84278SOL    HW254674  11.712   6.523   1.896
84279SOL     OW54675   1.124   0.573   0.437
84279SOL    HW154676   1.202   0.577   0.383
84279SOL    HW254677   1.151   0.523   0.514
84280SOL     OW54678  14.786   1.045   8.577
84280SOL    HW154679  14.715   1.003   8.626
84280SOL    HW254680  14.847   1.075   8.644
84281SOL     OW54681  13.650   2.896   7.139
84281SOL    HW154682  13.727   2.841   7.123
84281SOL    HW254683  13.685   2.974   7.182
84282SOL     OW54684   2.832   7.643  13.754
84282SOL    HW154685   2.863   7.728  13.726
84282SOL    HW254686   2.798   7.657  13.843
84283SOL     OW54687   7.016  11.286   9.876
84283SOL    HW154688   7.055  11.254   9.795
84283SOL    HW254689   7.019  11.381   9.868
84284SOL     OW54690   3.176   8.957   4.788
84284SOL    HW154691   3.101   8.944   4.728
84284SOL    HW254692   3.142   9.015   4.856
84285SOL     OW54693  11.231   3.667   4.099
84285SOL    HW154694  11.320   3.702   4.096
84285SOL    HW254695  11.220   3.621   4.016
84286SOL     OW54696   6.847   2.596   1.192
84286SOL    HW154697   6.941   2.608   1.210
84286SOL    HW254698   6.843   2.579   1.098
84287SOL     OW54699   1.393  13.699  12.801
84287SOL    HW154700   1.406  13.793  12.816
84287SOL    HW254701   1.412  13.658  12.885
84288SOL     OW54702   8.996  14.329   6.075
84288SOL    HW154703   8.965  14.268   6.142
84288SOL    HW254704   9.063  14.381   6.120
84289SOL     OW54705   4.907   9.841   1.462
84289SOL    HW154706   4.980   9.818   1.404
84289SOL    HW254707   4.881   9.929   1.433
84290SOL     OW54708   8.082  10.324  11.311
84290SOL    HW154709   8.137  10.376  11.252
84290SOL    HW254710   8.113  10.234  11.301
84291SOL     OW54711   9.218  14.419   5.480
84291SOL    HW154712   9.223  14.400   5.387
84291SOL    HW254713   9.139  14.373   5.510
84292SOL     OW54714  13.053   8.143   3.970
84292SOL    HW154715  13.137   8.128   4.013
84292SOL    HW254716  13.010   8.208   4.025
84293SOL     OW54717   2.630   4.035   5.865
84293SOL    HW154718   2.597   4.118   5.832
84293SOL    HW254719   2.644   4.051   5.959
84294SOL     OW54720   7.430   6.940   4.167
84294SOL    HW154721   7.457   7.021   4.211
84294SOL    HW254722   7.380   6.969   4.091
84295SOL     OW54723  14.606   1.739   5.346
84295SOL    HW154724  14.653   1.756   5.428
84295SOL    HW254725  14.517   1.771   5.362
84296SOL     OW54726   9.644  10.377   7.145
84296SOL    HW154727   9.621  10.381   7.237
84296SOL    HW254728   9.738  10.359   7.144
84297SOL     OW54729  11.101   1.293   8.185
84297SOL    HW154730  11.136   1.216   8.229
84297SOL    HW254731  11.177   1.335   8.147
84298SOL     OW54732   0.023   7.822  14.022
84298SOL    HW154733   0.057   7.866  14.100
84298SOL    HW254734   0.018   7.730  14.046
84299SOL     OW54735  13.151   9.342   6.910
84299SOL    HW154736  13.082   9.388   6.958
84299SOL    HW254737  13.107   9.267   6.870
84300SOL     OW54738  12.004   8.980  14.717
84300SOL    HW154739  11.915   8.994  14.684
84300SOL    HW254740  12.041   8.914  14.658
84301SOL     OW54741  12.191   3.815   6.605
84301SOL    HW154742  12.149   3.758   6.540
84301SOL    HW254743  12.120   3.873   6.634
84302SOL     OW54744   1.718   4.914   8.905
84302SOL    HW154745   1.678   4.961   8.978
84302SOL    HW254746   1.721   4.979   8.834
84303SOL     OW54747  11.069   6.645   6.781
84303SOL    HW154748  11.071   6.721   6.838
84303SOL    HW254749  10.983   6.605   6.797
84304SOL     OW54750   2.754   8.257  14.724
84304SOL    HW154751   2.842   8.279  14.756
84304SOL    HW254752   2.708   8.224  14.802
84305SOL     OW54753  11.809  10.374   4.059
84305SOL    HW154754  11.882  10.409   4.110
84305SOL    HW254755  11.756  10.451   4.038
84306SOL     OW54756   6.772   4.335  11.615
84306SOL    HW154757   6.781   4.427  11.637
84306SOL    HW254758   6.696   4.331  11.557
84307SOL     OW54759  10.891   8.883   6.463
84307SOL    HW154760  10.967   8.850   6.416
84307SOL    HW254761  10.901   8.979   6.460
84308SOL     OW54762   3.876   1.302  10.566
84308SOL    HW154763   3.851   1.213  10.593
84308SOL    HW254764   3.952   1.289  10.508
84309SOL     OW54765   3.471  10.274   3.047
84309SOL    HW154766   3.390  10.285   3.096
84309SOL    HW254767   3.467  10.184   3.014
84310SOL     OW54768  11.468  13.165   3.903
84310SOL    HW154769  11.556  13.136   3.928
84310SOL    HW254770  11.409  13.121   3.965
84311SOL     OW54771  14.234   5.197  11.872
84311SOL    HW154772  14.167   5.195  11.804
84311SOL    HW254773  14.260   5.289  11.877
84312SOL     OW54774   5.267   9.653   3.256
84312SOL    HW154775   5.314   9.661   3.173
84312SOL    HW254776   5.330   9.684   3.322
84313SOL     OW54777   4.228   5.818   5.442
84313SOL    HW154778   4.303   5.858   5.485
84313SOL    HW254779   4.183   5.772   5.513
84314SOL     OW54780   3.856   3.137   9.613
84314SOL    HW154781   3.901   3.172   9.536
84314SOL    HW254782   3.768   3.176   9.609
84315SOL     OW54783   6.268  13.844   3.706
84315SOL    HW154784   6.251  13.827   3.613
84315SOL    HW254785   6.227  13.928   3.723
84316SOL     OW54786  14.353   9.142  12.184
84316SOL    HW154787  14.365   9.198  12.261
84316SOL    HW254788  14.412   9.180  12.118
84317SOL     OW54789   1.185   5.891  13.179
84317SOL    HW154790   1.268   5.883  13.131
84317SOL    HW254791   1.189   5.821  13.244
84318SOL     OW54792   6.676   6.258  11.359
84318SOL    HW154793   6.589   6.292  11.381
84318SOL    HW254794   6.730   6.278  11.436
84319SOL     OW54795   0.604   2.446  12.031
84319SOL    HW154796   0.585   2.540  12.026
84319SOL    HW254797   0.537   2.412  12.091
84320SOL     OW54798   9.901   8.520  13.204
84320SOL    HW154799   9.865   8.583  13.141
84320SOL    HW254800   9.918   8.572  13.283
84321SOL     OW54801   2.403   2.096   1.006
84321SOL    HW154802   2.398   2.000   0.997
84321SOL    HW254803   2.492   2.118   0.979
84322SOL     OW54804  10.485   7.046   4.507
84322SOL    HW154805  10.553   7.065   4.572
84322SOL    HW254806  10.403   7.072   4.549
84323SOL     OW54807   1.889   9.299   4.155
84323SOL    HW154808   1.917   9.210   4.131
84323SOL    HW254809   1.969   9.341   4.186
84324SOL     OW54810  11.035  14.423   1.758
84324SOL    HW154811  11.029  14.394   1.667
84324SOL    HW254812  11.009  14.515   1.756
84325SOL     OW54813  10.213  13.326  11.528
84325SOL    HW154814  10.121  13.312  11.550
84325SOL    HW254815  10.236  13.253  11.471
84326SOL     OW54816   1.800   4.036   8.450
84326SOL    HW154817   1.845   4.087   8.383
84326SOL    HW254818   1.863   4.028   8.521
84327SOL     OW54819   6.612   3.030  13.375
84327SOL    HW154820   6.671   3.105  13.390
84327SOL    HW254821   6.672   2.957  13.358
84328SOL     OW54822   9.696   1.395  10.234
84328SOL    HW154823   9.733   1.470  10.187
84328SOL    HW254824   9.772   1.346  10.265
84329SOL     OW54825   3.174  12.331   9.502
84329SOL    HW154826   3.089  12.327   9.459
84329SOL    HW254827   3.212  12.244   9.490
84330SOL     OW54828  10.768   2.306  13.373
84330SOL    HW154829  10.803   2.355  13.298
84330SOL    HW254830  10.816   2.223  13.371
84331SOL     OW54831   1.528  10.388   6.129
84331SOL    HW154832   1.510  10.326   6.199
84331SOL    HW254833   1.530  10.335   6.049
84332SOL     OW54834   4.005   6.571   6.663
84332SOL    HW154835   3.972   6.630   6.731
84332SOL    HW254836   3.935   6.507   6.650
84333SOL     OW54837  14.528   5.829  12.755
84333SOL    HW154838  14.487   5.869  12.678
84333SOL    HW254839  14.459   5.830  12.821
84334SOL     OW54840   2.097   4.899  13.500
84334SOL    HW154841   2.058   4.837  13.562
84334SOL    HW254842   2.125   4.845  13.427
84335SOL     OW54843   9.958   5.047   1.647
84335SOL    HW154844   9.880   5.091   1.681
84335SOL    HW254845   9.986   4.990   1.718
84336SOL     OW54846   8.575   6.893  11.583
84336SOL    HW154847   8.527   6.812  11.601
84336SOL    HW254848   8.667   6.867  11.581
84337SOL     OW54849   8.510  10.534   8.636
84337SOL    HW154850   8.428  10.548   8.589
84337SOL    HW254851   8.506  10.443   8.665
84338SOL     OW54852   4.282   9.430  12.339
84338SOL    HW154853   4.217   9.431  12.268
84338SOL    HW254854   4.253   9.501  12.398
84339SOL     OW54855   3.913   7.939   3.105
84339SOL    HW154856   3.857   7.996   3.157
84339SOL    HW254857   3.881   7.851   3.123
84340SOL     OW54858   7.757   6.507   3.345
84340SOL    HW154859   7.808   6.574   3.299
84340SOL    HW254860   7.771   6.525   3.438
84341SOL     OW54861   0.604   0.238   0.534
84341SOL    HW154862   0.650   0.160   0.502
84341SOL    HW254863   0.601   0.227   0.629
84342SOL     OW54864   9.491   8.205  13.202
84342SOL    HW154865   9.468   8.135  13.141
84342SOL    HW254866   9.498   8.161  13.287
84343SOL     OW54867  10.589  14.627   7.337
84343SOL    HW154868  10.501  14.619   7.375
84343SOL    HW254869  10.608  14.721   7.338
84344SOL     OW54870   8.163   5.362   5.321
84344SOL    HW154871   8.197   5.438   5.272
84344SOL    HW254872   8.235   5.299   5.319
84345SOL     OW54873   0.964  14.285   9.271
84345SOL    HW154874   0.877  14.325   9.274
84345SOL    HW254875   1.015  14.343   9.215
84346SOL     OW54876   1.480   1.860   8.149
84346SOL    HW154877   1.436   1.824   8.226
84346SOL    HW254878   1.538   1.790   8.120
84347SOL     OW54879   1.194   3.917   6.768
84347SOL    HW154880   1.105   3.921   6.734
84347SOL    HW254881   1.187   3.953   6.857
84348SOL     OW54882   1.419   9.922  14.748
84348SOL    HW154883   1.325   9.936  14.763
84348SOL    HW254884   1.462   9.997  14.790
84349SOL     OW54885   7.280   5.280   3.858
84349SOL    HW154886   7.233   5.242   3.784
84349SOL    HW254887   7.212   5.322   3.911
84350SOL     OW54888   5.426  13.960  12.237
84350SOL    HW154889   5.461  14.016  12.168
84350SOL    HW254890   5.396  14.020  12.305
84351SOL     OW54891  13.776  12.743   4.589
84351SOL    HW154892  13.797  12.657   4.553
84351SOL    HW254893  13.803  12.738   4.681
84352SOL     OW54894   8.318  13.474   0.777
84352SOL    HW154895   8.361  13.407   0.724
84352SOL    HW254896   8.375  13.551   0.770
84353SOL     OW54897  13.577  12.760   0.427
84353SOL    HW154898  13.600  12.679   0.382
84353SOL    HW254899  13.488  12.744   0.460
84354SOL     OW54900  10.667   3.820  13.957
84354SOL    HW154901  10.747   3.825  13.904
84354SOL    HW254902  10.681   3.883  14.028
84355SOL     OW54903   8.875   7.593   6.932
84355SOL    HW154904   8.897   7.676   6.890
84355SOL    HW254905   8.801   7.613   6.989
84356SOL     OW54906  13.058  12.410  12.883
84356SOL    HW154907  13.128  12.357  12.844
84356SOL    HW254908  13.016  12.352  12.947
84357SOL     OW54909  12.521   0.010   9.864
84357SOL    HW154910  12.502   0.007   9.770
84357SOL    HW254911  12.611   0.042   9.870
84358SOL     OW54912   7.857   7.614   8.354
84358SOL    HW154913   7.861   7.612   8.450
84358SOL    HW254914   7.897   7.698   8.330
84359SOL     OW54915   9.102   7.061   2.328
84359SOL    HW154916   9.180   7.115   2.328
84359SOL    HW254917   9.087   7.040   2.420
84360SOL     OW54918  10.986   4.604   8.727
84360SOL    HW154919  10.945   4.598   8.813
84360SOL    HW254920  10.913   4.606   8.665
84361SOL     OW54921  10.608  12.796   9.692
84361SOL    HW154922  10.609  12.743   9.772
84361SOL    HW254923  10.676  12.757   9.637
84362SOL     OW54924  10.545   6.894   1.552
84362SOL    HW154925  10.465   6.876   1.503
84362SOL    HW254926  10.549   6.989   1.558
84363SOL     OW54927   6.515   7.372   9.809
84363SOL    HW154928   6.557   7.301   9.858
84363SOL    HW254929   6.588   7.427   9.780
84364SOL     OW54930   5.331   5.629   3.579
84364SOL    HW154931   5.254   5.669   3.621
84364SOL    HW254932   5.387   5.703   3.557
84365SOL     OW54933   7.726   0.109   3.784
84365SOL    HW154934   7.676   0.110   3.866
84365SOL    HW254935   7.783   0.185   3.789
84366SOL     OW54936   4.233   5.937  11.233
84366SOL    HW154937   4.187   6.014  11.269
84366SOL    HW254938   4.293   5.911  11.303
84367SOL     OW54939   5.070   9.263   2.770
84367SOL    HW154940   5.002   9.236   2.707
84367SOL    HW254941   5.111   9.340   2.729
84368SOL     OW54942  11.585   7.651  13.160
84368SOL    HW154943  11.674   7.629  13.188
84368SOL    HW254944  11.596   7.716  13.091
84369SOL     OW54945   5.954  12.359   8.096
84369SOL    HW154946   6.035  12.384   8.053
84369SOL    HW254947   5.973  12.273   8.135
84370SOL     OW54948   7.145   4.053   5.228
84370SOL    HW154949   7.173   4.135   5.270
84370SOL    HW254950   7.050   4.052   5.239
84371SOL     OW54951  10.455  11.089   9.253
84371SOL    HW154952  10.507  11.114   9.330
84371SOL    HW254953  10.446  10.994   9.260
84372SOL     OW54954   6.448   4.383  11.774
84372SOL    HW154955   6.475   4.453  11.833
84372SOL    HW254956   6.363   4.412  11.739
84373SOL     OW54957   8.094   8.379  11.449
84373SOL    HW154958   8.158   8.450  11.449
84373SOL    HW254959   8.026   8.408  11.510
84374SOL     OW54960  13.830   0.840   2.700
84374SOL    HW154961  13.814   0.889   2.781
84374SOL    HW254962  13.778   0.885   2.634
84375SOL     OW54963   6.266  12.316   5.864
84375SOL    HW154964   6.285  12.267   5.784
84375SOL    HW254965   6.275  12.251   5.934
84376SOL     OW54966   0.391  14.037   4.906
84376SOL    HW154967   0.479  14.027   4.869
84376SOL    HW254968   0.390  13.978   4.982
84377SOL     OW54969   1.000  10.752  14.682
84377SOL    HW154970   1.033  10.787  14.765
84377SOL    HW254971   1.040  10.666  14.676
84378SOL     OW54972   5.135   8.434   2.151
84378SOL    HW154973   5.165   8.438   2.060
84378SOL    HW254974   5.118   8.525   2.175
84379SOL     OW54975   9.442   1.821  13.480
84379SOL    HW154976   9.428   1.733  13.515
84379SOL    HW254977   9.532   1.821  13.449
84380SOL     OW54978   2.180   5.744   3.195
84380SOL    HW154979   2.159   5.833   3.223
84380SOL    HW254980   2.190   5.695   3.277
84381SOL     OW54981   6.985   5.418  11.257
84381SOL    HW154982   7.024   5.438  11.172
84381SOL    HW254983   6.907   5.473  11.262
84382SOL     OW54984  10.344   5.498  10.234
84382SOL    HW154985  10.380   5.455  10.312
84382SOL    HW254986  10.416   5.498  10.172
84383SOL     OW54987  10.855   0.110  13.692
84383SOL    HW154988  10.806   0.081  13.615
84383SOL    HW254989  10.929   0.160  13.657
84384SOL     OW54990  11.477  12.985   2.153
84384SOL    HW154991  11.383  12.968   2.160
84384SOL    HW254992  11.516  12.938   2.227
84385SOL     OW54993  14.866   6.572  14.532
84385SOL    HW154994   0.058   6.515  14.551
84385SOL    HW254995  14.880   6.650  14.586
84386SOL     OW54996   9.595  12.982   7.335
84386SOL    HW154997   9.610  13.054   7.274
84386SOL    HW254998   9.682  12.959   7.366
84387SOL     OW54999  10.260  12.681  12.298
84387SOL    HW155000  10.280  12.774  12.286
84387SOL    HW255001  10.345  12.638  12.292
84388SOL     OW55002  11.377   1.994  14.393
84388SOL    HW155003  11.369   1.903  14.364
84388SOL    HW255004  11.287   2.028  14.389
84389SOL     OW55005   8.991   1.348   6.186
84389SOL    HW155006   9.031   1.261   6.189
84389SOL    HW255007   9.064   1.409   6.189
84390SOL     OW55008  12.043   4.267   3.165
84390SOL    HW155009  12.097   4.305   3.234
84390SOL    HW255010  12.084   4.297   3.083
84391SOL     OW55011  12.881   9.221   7.432
84391SOL    HW155012  12.862   9.127   7.425
84391SOL    HW255013  12.826   9.251   7.505
84392SOL     OW55014   4.186   8.982   6.588
84392SOL    HW155015   4.183   8.893   6.624
84392SOL    HW255016   4.224   9.035   6.658
84393SOL     OW55017   1.636  12.844   5.743
84393SOL    HW155018   1.640  12.748   5.745
84393SOL    HW255019   1.703  12.869   5.678
84394SOL     OW55020   7.567  13.585   6.372
84394SOL    HW155021   7.617  13.507   6.397
84394SOL    HW255022   7.480  13.552   6.349
84395SOL     OW55023   7.487   1.976   6.714
84395SOL    HW155024   7.491   1.929   6.630
84395SOL    HW255025   7.484   1.907   6.780
84396SOL     OW55026  10.273   4.625   6.595
84396SOL    HW155027  10.275   4.534   6.625
84396SOL    HW255028  10.354   4.635   6.545
84397SOL     OW55029   3.168   6.137   2.166
84397SOL    HW155030   3.206   6.140   2.254
84397SOL    HW255031   3.075   6.156   2.180
84398SOL     OW55032   2.875   5.752   1.487
84398SOL    HW155033   2.930   5.800   1.549
84398SOL    HW255034   2.892   5.659   1.506
84399SOL     OW55035   3.595   1.394   9.974
84399SOL    HW155036   3.670   1.400  10.034
84399SOL    HW255037   3.635   1.388   9.887
84400SOL     OW55038   4.013  13.598   0.905
84400SOL    HW155039   4.043  13.512   0.876
84400SOL    HW255040   4.091  13.640   0.942
84401SOL     OW55041   2.430   0.230   9.697
84401SOL    HW155042   2.458   0.163   9.635
84401SOL    HW255043   2.486   0.217   9.773
84402SOL     OW55044   4.431   5.504   5.203
84402SOL    HW155045   4.377   5.499   5.282
84402SOL    HW255046   4.376   5.468   5.134
84403SOL     OW55047  11.211   3.067   2.840
84403SOL    HW155048  11.150   3.001   2.806
84403SOL    HW255049  11.272   3.016   2.895
84404SOL     OW55050  12.244  13.327   6.851
84404SOL    HW155051  12.266  13.328   6.758
84404SOL    HW255052  12.158  13.284   6.855
84405SOL     OW55053   6.932   2.632  13.028
84405SOL    HW155054   6.905   2.631  13.120
84405SOL    HW255055   7.020   2.671  13.030
84406SOL     OW55056   2.452   0.141   6.369
84406SOL    HW155057   2.376   0.084   6.373
84406SOL    HW255058   2.526   0.086   6.394
84407SOL     OW55059   7.525   6.938   5.782
84407SOL    HW155060   7.446   6.896   5.816
84407SOL    HW255061   7.586   6.866   5.765
84408SOL     OW55062   3.918   0.258   4.348
84408SOL    HW155063   4.006   0.228   4.328
84408SOL    HW255064   3.925   0.353   4.354
84409SOL     OW55065  12.958  14.241   3.518
84409SOL    HW155066  12.872  14.207   3.495
84409SOL    HW255067  12.976  14.204   3.605
84410SOL     OW55068   7.382   4.888  10.594
84410SOL    HW155069   7.332   4.889  10.513
84410SOL    HW255070   7.343   4.958  10.647
84411SOL     OW55071  13.291  10.975   1.312
84411SOL    HW155072  13.328  10.913   1.374
84411SOL    HW255073  13.236  10.922   1.254
84412SOL     OW55074  10.361  13.290  13.749
84412SOL    HW155075  10.422  13.331  13.688
84412SOL    HW255076  10.413  13.274  13.828
84413SOL     OW55077  14.124  12.506   7.313
84413SOL    HW155078  14.050  12.470   7.363
84413SOL    HW255079  14.083  12.560   7.246
84414SOL     OW55080   6.008  10.350   3.246
84414SOL    HW155081   5.926  10.398   3.246
84414SOL    HW255082   6.073  10.414   3.275
84415SOL     OW55083   7.398   5.095   0.841
84415SOL    HW155084   7.390   5.190   0.848
84415SOL    HW255085   7.492   5.080   0.835
84416SOL     OW55086   9.310   3.648   0.256
84416SOL    HW155087   9.289   3.575   0.314
84416SOL    HW255088   9.391   3.684   0.291
84417SOL     OW55089   1.948   5.259   0.840
84417SOL    HW155090   2.004   5.276   0.764
84417SOL    HW255091   1.863   5.296   0.816
84418SOL     OW55092   8.243   7.939   7.758
84418SOL    HW155093   8.233   7.860   7.812
84418SOL    HW255094   8.281   8.004   7.817
84419SOL     OW55095   4.287   0.368   2.957
84419SOL    HW155096   4.233   0.445   2.936
84419SOL    HW255097   4.229   0.311   3.006
84420SOL     OW55098   0.744   3.009   1.955
84420SOL    HW155099   0.738   2.969   2.042
84420SOL    HW255100   0.823   2.970   1.917
84421SOL     OW55101   3.379  11.793  14.050
84421SOL    HW155102   3.307  11.851  14.027
84421SOL    HW255103   3.345  11.705  14.037
84422SOL     OW55104   9.926   5.297   3.959
84422SOL    HW155105   9.846   5.319   4.006
84422SOL    HW255106   9.928   5.201   3.959
84423SOL     OW55107   2.888   8.547  12.204
84423SOL    HW155108   2.897   8.454  12.187
84423SOL    HW255109   2.795   8.565  12.193
84424SOL     OW55110  14.555   0.012  11.502
84424SOL    HW155111  14.595   0.003  11.589
84424SOL    HW255112  14.608  14.838  11.445
84425SOL     OW55113  12.546  10.233   2.943
84425SOL    HW155114  12.506  10.212   3.027
84425SOL    HW255115  12.577  10.148   2.909
84426SOL     OW55116   0.202   9.415   4.359
84426SOL    HW155117   0.279   9.358   4.357
84426SOL    HW255118   0.132   9.363   4.319
84427SOL     OW55119   5.780  12.177   1.078
84427SOL    HW155120   5.743  12.192   0.991
84427SOL    HW255121   5.855  12.236   1.083
84428SOL     OW55122  10.967   1.402  13.641
84428SOL    HW155123  10.930   1.391  13.729
84428SOL    HW255124  11.059   1.380  13.651
84429SOL     OW55125   2.432   9.256   6.820
84429SOL    HW155126   2.385   9.221   6.744
84429SOL    HW255127   2.369   9.312   6.864
84430SOL     OW55128   4.370   5.921   0.255
84430SOL    HW155129   4.308   5.919   0.182
84430SOL    HW255130   4.428   5.994   0.235
84431SOL     OW55131   3.008   7.114  11.902
84431SOL    HW155132   2.986   7.063  11.980
84431SOL    HW255133   2.946   7.187  11.904
84432SOL     OW55134   0.953  12.257  10.943
84432SOL    HW155135   1.047  12.272  10.933
84432SOL    HW255136   0.914  12.344  10.937
84433SOL     OW55137   1.461   0.496   6.956
84433SOL    HW155138   1.417   0.430   7.009
84433SOL    HW255139   1.544   0.455   6.931
84434SOL     OW55140  10.244   9.170  14.514
84434SOL    HW155141  10.301   9.185  14.589
84434SOL    HW255142  10.181   9.105  14.545
84435SOL     OW55143  13.484  11.851   1.122
84435SOL    HW155144  13.444  11.896   1.048
84435SOL    HW255145  13.521  11.920   1.176
84436SOL     OW55146   2.889   7.571   9.723
84436SOL    HW155147   2.826   7.596   9.655
84436SOL    HW255148   2.923   7.654   9.757
84437SOL     OW55149   5.402   3.596   4.861
84437SOL    HW155150   5.388   3.547   4.941
84437SOL    HW255151   5.377   3.685   4.882
84438SOL     OW55152   0.864  13.085   4.210
84438SOL    HW155153   0.780  13.046   4.184
84438SOL    HW255154   0.861  13.174   4.176
84439SOL     OW55155   1.165  10.489   8.180
84439SOL    HW155156   1.072  10.500   8.160
84439SOL    HW255157   1.195  10.576   8.206
84440SOL     OW55158  11.986  10.489  11.281
84440SOL    HW155159  12.076  10.483  11.250
84440SOL    HW255160  11.991  10.466  11.374
84441SOL     OW55161   3.691   2.708  12.499
84441SOL    HW155162   3.710   2.667  12.584
84441SOL    HW255163   3.603   2.678  12.477
84442SOL     OW55164  12.713  14.009  10.050
84442SOL    HW155165  12.691  13.957   9.973
84442SOL    HW255166  12.806  13.992  10.064
84443SOL     OW55167  11.867   2.934   6.038
84443SOL    HW155168  11.778   2.961   6.063
84443SOL    HW255169  11.867   2.939   5.942
84444SOL     OW55170  12.013   1.356   2.412
84444SOL    HW155171  11.939   1.329   2.358
84444SOL    HW255172  12.084   1.296   2.386
84445SOL     OW55173  13.000   6.342   5.939
84445SOL    HW155174  13.063   6.391   5.886
84445SOL    HW255175  12.915   6.384   5.921
84446SOL     OW55176  11.144   2.146   4.260
84446SOL    HW155177  11.130   2.105   4.174
84446SOL    HW255178  11.084   2.101   4.318
84447SOL     OW55179   2.529   7.129   8.373
84447SOL    HW155180   2.596   7.186   8.412
84447SOL    HW255181   2.486   7.088   8.448
84448SOL     OW55182   2.003   7.385  14.356
84448SOL    HW155183   2.007   7.480  14.344
84448SOL    HW255184   2.041   7.371  14.443
84449SOL     OW55185   5.707  13.031  14.265
84449SOL    HW155186   5.777  13.097  14.267
84449SOL    HW255187   5.747  12.956  14.221
84450SOL     OW55188  13.510  10.073   0.327
84450SOL    HW155189  13.417  10.052   0.339
84450SOL    HW255190  13.510  10.153   0.275
84451SOL     OW55191   8.236   1.745   9.984
84451SOL    HW155192   8.158   1.762  10.037
84451SOL    HW255193   8.265   1.658  10.013
84452SOL     OW55194   8.239   6.612   9.214
84452SOL    HW155195   8.176   6.672   9.253
84452SOL    HW255196   8.291   6.667   9.154
84453SOL     OW55197   6.527  11.647   0.116
84453SOL    HW155198   6.442  11.607   0.130
84453SOL    HW255199   6.587  11.573   0.107
84454SOL     OW55200   2.817   6.962  14.236
84454SOL    HW155201   2.849   6.999  14.318
84454SOL    HW255202   2.833   6.868  14.244
84455SOL     OW55203   9.112   0.747   0.779
84455SOL    HW155204   9.113   0.734   0.873
84455SOL    HW255205   9.044   0.687   0.747
84456SOL     OW55206  14.065  14.360   5.458
84456SOL    HW155207  14.032  14.443   5.423
84456SOL    HW255208  14.106  14.385   5.541
84457SOL     OW55209  10.919   5.819  10.324
84457SOL    HW155210  10.964   5.860  10.250
84457SOL    HW255211  10.829   5.808  10.295
84458SOL     OW55212  13.800   0.650   9.804
84458SOL    HW155213  13.809   0.715   9.874
84458SOL    HW255214  13.812   0.701   9.723
84459SOL     OW55215   8.425  12.117  14.783
84459SOL    HW155216   8.341  12.126  14.738
84459SOL    HW255217   8.422  12.030  14.822
84460SOL     OW55218  14.239   8.689  11.920
84460SOL    HW155219  14.156   8.680  11.968
84460SOL    HW255220  14.229   8.773  11.874
84461SOL     OW55221   4.635   4.672   2.738
84461SOL    HW155222   4.569   4.680   2.670
84461SOL    HW255223   4.586   4.656   2.818
84462SOL     OW55224   7.609   4.699   5.510
84462SOL    HW155225   7.582   4.614   5.475
84462SOL    HW255226   7.566   4.704   5.596
84463SOL     OW55227   1.209   5.270  14.699
84463SOL    HW155228   1.291   5.320  14.689
84463SOL    HW255229   1.178   5.294  14.786
84464SOL     OW55230   3.265  11.582   9.239
84464SOL    HW155231   3.254  11.536   9.155
84464SOL    HW255232   3.278  11.673   9.214
84465SOL     OW55233  13.159  11.403  10.852
84465SOL    HW155234  13.216  11.358  10.914
84465SOL    HW255235  13.090  11.340  10.832
84466SOL     OW55236   4.014   4.733  10.849
84466SOL    HW155237   3.992   4.759  10.939
84466SOL    HW255238   4.008   4.638  10.850
84467SOL     OW55239   9.786   3.565   3.018
84467SOL    HW155240   9.826   3.651   3.001
84467SOL    HW255241   9.794   3.518   2.935
84468SOL     OW55242  11.084   9.384  13.344
84468SOL    HW155243  11.102   9.293  13.366
84468SOL    HW255244  11.168   9.429  13.359
84469SOL     OW55245   8.563  13.182   3.519
84469SOL    HW155246   8.638  13.210   3.571
84469SOL    HW255247   8.495  13.161   3.584
84470SOL     OW55248   8.614  14.315  12.338
84470SOL    HW155249   8.546  14.324  12.271
84470SOL    HW255250   8.592  14.381  12.404
84471SOL     OW55251   2.715   0.796   0.226
84471SOL    HW155252   2.771   0.791   0.303
84471SOL    HW255253   2.746   0.873   0.178
84472SOL     OW55254  13.464  13.194   1.369
84472SOL    HW155255  13.437  13.118   1.317
84472SOL    HW255256  13.418  13.183   1.452
84473SOL     OW55257   8.392   2.598   8.308
84473SOL    HW155258   8.482   2.617   8.336
84473SOL    HW255259   8.368   2.674   8.254
84474SOL     OW55260   3.827  10.376  12.446
84474SOL    HW155261   3.877  10.323  12.507
84474SOL    HW255262   3.776  10.313  12.395
84475SOL     OW55263   1.435  13.878   3.914
84475SOL    HW155264   1.343  13.902   3.925
84475SOL    HW255265   1.480  13.918   3.989
84476SOL     OW55266   8.779   0.926   4.956
84476SOL    HW155267   8.855   0.983   4.944
84476SOL    HW255268   8.764   0.925   5.051
84477SOL     OW55269  14.159   3.564  14.019
84477SOL    HW155270  14.077   3.565  13.969
84477SOL    HW255271  14.216   3.504  13.971
84478SOL     OW55272  13.728   8.872  11.943
84478SOL    HW155273  13.801   8.834  11.894
84478SOL    HW255274  13.769   8.921  12.014
84479SOL     OW55275  13.272  13.841   5.833
84479SOL    HW155276  13.312  13.766   5.789
84479SOL    HW255277  13.300  13.832   5.925
84480SOL     OW55278   1.851   3.702   7.834
84480SOL    HW155279   1.892   3.720   7.749
84480SOL    HW255280   1.923   3.671   7.889
84481SOL     OW55281   6.432   4.007   9.038
84481SOL    HW155282   6.383   4.089   9.049
84481SOL    HW255283   6.499   4.027   8.974
84482SOL     OW55284   2.199   0.706   2.888
84482SOL    HW155285   2.279   0.730   2.842
84482SOL    HW255286   2.146   0.786   2.888
84483SOL     OW55287   0.651   4.441   6.008
84483SOL    HW155288   0.732   4.480   5.976
84483SOL    HW255289   0.598   4.515   6.038
84484SOL     OW55290   2.462  14.672   8.629
84484SOL    HW155291   2.429  14.708   8.712
84484SOL    HW255292   2.553  14.701   8.624
84485SOL     OW55293   4.083  13.077   7.520
84485SOL    HW155294   4.092  13.022   7.599
84485SOL    HW255295   4.124  13.026   7.451
84486SOL     OW55296   0.289  14.671   3.827
84486SOL    HW155297   0.204  14.710   3.847
84486SOL    HW255298   0.351  14.744   3.831
84487SOL     OW55299  13.910   5.804   3.639
84487SOL    HW155300  13.871   5.890   3.623
84487SOL    HW255301  14.001   5.813   3.609
84488SOL     OW55302  11.293   0.988  14.757
84488SOL    HW155303  11.268   1.080  14.751
84488SOL    HW255304  11.223   0.941  14.712
84489SOL     OW55305  12.648   6.893   3.563
84489SOL    HW155306  12.674   6.949   3.637
84489SOL    HW255307  12.596   6.824   3.603
84490SOL     OW55308   8.834   5.305   9.781
84490SOL    HW155309   8.764   5.281   9.721
84490SOL    HW255310   8.915   5.282   9.734
84491SOL     OW55311  13.612  12.011  10.743
84491SOL    HW155312  13.644  11.933  10.788
84491SOL    HW255313  13.518  11.997  10.734
84492SOL     OW55314  13.163  10.810   6.048
84492SOL    HW155315  13.248  10.767   6.056
84492SOL    HW255316  13.166  10.881   6.113
84493SOL     OW55317   5.433  14.151   3.019
84493SOL    HW155318   5.502  14.125   3.080
84493SOL    HW255319   5.479  14.199   2.950
84494SOL     OW55320  14.000   9.025   9.788
84494SOL    HW155321  13.947   8.958   9.746
84494SOL    HW255322  13.983   9.014   9.882
84495SOL     OW55323   7.944  12.106   6.084
84495SOL    HW155324   7.960  12.178   6.145
84495SOL    HW255325   7.999  12.035   6.116
84496SOL     OW55326   5.009  11.604  11.395
84496SOL    HW155327   4.955  11.543  11.344
84496SOL    HW255328   5.099  11.585  11.366
84497SOL     OW55329  11.465   5.372  12.354
84497SOL    HW155330  11.480   5.402  12.444
84497SOL    HW255331  11.404   5.299  12.363
84498SOL     OW55332   0.410   0.551   1.451
84498SOL    HW155333   0.438   0.606   1.379
84498SOL    HW255334   0.488   0.540   1.506
84499SOL     OW55335   2.254   0.105   7.557
84499SOL    HW155336   2.162   0.081   7.549
84499SOL    HW255337   2.253   0.194   7.591
84500SOL     OW55338   4.197   9.763  12.821
84500SOL    HW155339   4.182   9.795  12.732
84500SOL    HW255340   4.184   9.840  12.876
84501SOL     OW55341   1.792   5.971   1.727
84501SOL    HW155342   1.883   5.991   1.707
84501SOL    HW255343   1.745   5.982   1.644
84502SOL     OW55344   5.766   8.070   2.134
84502SOL    HW155345   5.720   8.065   2.218
84502SOL    HW255346   5.697   8.068   2.068
84503SOL     OW55347  12.410   4.975   1.524
84503SOL    HW155348  12.463   4.965   1.603
84503SOL    HW255349  12.472   5.008   1.458
84504SOL     OW55350  14.006   1.353   3.562
84504SOL    HW155351  14.082   1.320   3.608
84504SOL    HW255352  13.937   1.289   3.579
84505SOL     OW55353  14.864   1.147   8.814
84505SOL    HW155354   0.015   1.089   8.883
84505SOL    HW255355   0.059   1.195   8.784
84506SOL     OW55356   7.147   4.343  14.740
84506SOL    HW155357   7.195   4.260  14.744
84506SOL    HW255358   7.213   4.407  14.716
84507SOL     OW55359   0.564  10.939   3.905
84507SOL    HW155360   0.607  10.934   3.820
84507SOL    HW255361   0.478  10.899   3.891
84508SOL     OW55362   6.739   2.105  11.898
84508SOL    HW155363   6.774   2.016  11.899
84508SOL    HW255364   6.707   2.119  11.809
84509SOL     OW55365   3.226   4.563  11.705
84509SOL    HW155366   3.204   4.615  11.627
84509SOL    HW255367   3.175   4.602  11.775
84510SOL     OW55368  14.223   4.719  12.852
84510SOL    HW155369  14.282   4.681  12.918
84510SOL    HW255370  14.275   4.721  12.772
84511SOL     OW55371   1.165   1.623   5.506
84511SOL    HW155372   1.220   1.667   5.571
84511SOL    HW255373   1.174   1.676   5.427
84512SOL     OW55374   7.423   0.404   2.614
84512SOL    HW155375   7.444   0.311   2.614
84512SOL    HW255376   7.345   0.412   2.560
84513SOL     OW55377   5.229   2.066   4.591
84513SOL    HW155378   5.220   2.143   4.534
84513SOL    HW255379   5.255   1.995   4.532
84514SOL     OW55380  13.312  12.326   3.792
84514SOL    HW155381  13.345  12.280   3.869
84514SOL    HW255382  13.217  12.323   3.801
84515SOL     OW55383  12.594  10.722  10.236
84515SOL    HW155384  12.575  10.814  10.222
84515SOL    HW255385  12.511  10.684  10.266
84516SOL     OW55386   6.629  12.263   1.220
84516SOL    HW155387   6.718  12.269   1.255
84516SOL    HW255388   6.587  12.196   1.275
84517SOL     OW55389   5.601   0.155   6.945
84517SOL    HW155390   5.688   0.116   6.935
84517SOL    HW255391   5.541   0.081   6.944
84518SOL     OW55392   2.516   9.606   5.587
84518SOL    HW155393   2.471   9.686   5.557
84518SOL    HW255394   2.445   9.545   5.607
84519SOL     OW55395  12.261   0.113   8.032
84519SOL    HW155396  12.252   0.017   8.035
84519SOL    HW255397  12.203   0.145   8.101
84520SOL     OW55398   3.914  13.467   6.732
84520SOL    HW155399   3.876  13.431   6.651
84520SOL    HW255400   3.974  13.399   6.762
84521SOL     OW55401   5.696  13.746   7.264
84521SOL    HW155402   5.769  13.714   7.317
84521SOL    HW255403   5.690  13.685   7.191
84522SOL     OW55404  12.518   5.159   2.295
84522SOL    HW155405  12.432   5.193   2.269
84522SOL    HW255406  12.572   5.169   2.217
84523SOL     OW55407   0.421  10.542   8.355
84523SOL    HW155408   0.508  10.529   8.393
84523SOL    HW255409   0.370  10.467   8.386
84524SOL     OW55410   6.863  12.789  14.532
84524SOL    HW155411   6.830  12.733  14.602
84524SOL    HW255412   6.928  12.736  14.486
84525SOL     OW55413   1.302   3.439   7.265
84525SOL    HW155414   1.222   3.389   7.278
84525SOL    HW255415   1.373   3.374   7.267
84526SOL     OW55416   3.507   3.428   0.661
84526SOL    HW155417   3.558   3.417   0.581
84526SOL    HW255418   3.470   3.342   0.678
84527SOL     OW55419   8.777   3.499   2.281
84527SOL    HW155420   8.807   3.478   2.369
84527SOL    HW255421   8.716   3.572   2.293
84528SOL     OW55422   2.386   6.198   7.414
84528SOL    HW155423   2.371   6.138   7.488
84528SOL    HW255424   2.335   6.160   7.342
84529SOL     OW55425   3.303   2.508   0.569
84529SOL    HW155426   3.359   2.549   0.503
84529SOL    HW255427   3.352   2.430   0.596
84530SOL     OW55428   8.721   0.310   8.894
84530SOL    HW155429   8.677   0.377   8.842
84530SOL    HW255430   8.814   0.325   8.880
84531SOL     OW55431  11.556  13.231   2.662
84531SOL    HW155432  11.489  13.239   2.730
84531SOL    HW255433  11.561  13.137   2.645
84532SOL     OW55434   0.610   0.684  11.757
84532SOL    HW155435   0.619   0.648  11.846
84532SOL    HW255436   0.690   0.655  11.712
84533SOL     OW55437   6.793   0.308   7.044
84533SOL    HW155438   6.701   0.299   7.070
84533SOL    HW255439   6.789   0.331   6.951
84534SOL     OW55440  13.859  14.255  13.128
84534SOL    HW155441  13.847  14.243  13.034
84534SOL    HW255442  13.850  14.349  13.143
84535SOL     OW55443   7.209   6.923   2.184
84535SOL    HW155444   7.177   7.009   2.212
84535SOL    HW255445   7.187   6.919   2.091
84536SOL     OW55446  10.915  12.204   3.025
84536SOL    HW155447  10.868  12.125   2.997
84536SOL    HW255448  10.846  12.267   3.046
84537SOL     OW55449  14.512   9.557   4.124
84537SOL    HW155450  14.426   9.540   4.163
84537SOL    HW255451  14.537   9.643   4.156
84538SOL     OW55452   2.401   7.491   7.690
84538SOL    HW155453   2.453   7.440   7.628
84538SOL    HW255454   2.456   7.496   7.768
84539SOL     OW55455  13.567   2.813  14.488
84539SOL    HW155456  13.624   2.771  14.424
84539SOL    HW255457  13.624   2.875  14.534
84540SOL     OW55458   3.623   9.057   4.232
84540SOL    HW155459   3.603   9.135   4.180
84540SOL    HW255460   3.579   9.073   4.316
84541SOL     OW55461   4.025   9.647   9.330
84541SOL    HW155462   4.070   9.606   9.256
84541SOL    HW255463   4.011   9.576   9.392
84542SOL     OW55464   8.729   2.833  10.917
84542SOL    HW155465   8.644   2.855  10.879
84542SOL    HW255466   8.785   2.908  10.895
84543SOL     OW55467  14.233   9.673   3.752
84543SOL    HW155468  14.275   9.623   3.682
84543SOL    HW255469  14.306   9.704   3.806
84544SOL     OW55470  14.842   3.369  10.162
84544SOL    HW155471  14.774   3.344  10.099
84544SOL    HW255472   0.009   3.438  10.118
84545SOL     OW55473   4.572  13.093   3.351
84545SOL    HW155474   4.593  13.094   3.445
84545SOL    HW255475   4.492  13.145   3.344
84546SOL     OW55476   3.705   5.809   1.059
84546SOL    HW155477   3.797   5.807   1.033
84546SOL    HW255478   3.658   5.768   0.986
84547SOL     OW55479  11.556  12.813   0.561
84547SOL    HW155480  11.468  12.819   0.599
84547SOL    HW255481  11.610  12.777   0.631
84548SOL     OW55482  13.941  12.704  10.730
84548SOL    HW155483  14.023  12.662  10.703
84548SOL    HW255484  13.881  12.688  10.658
84549SOL     OW55485  12.881   2.953   1.780
84549SOL    HW155486  12.947   2.885   1.793
84549SOL    HW255487  12.921   3.032   1.816
84550SOL     OW55488   8.555   1.907   3.668
84550SOL    HW155489   8.651   1.904   3.666
84550SOL    HW255490   8.529   1.906   3.576
84551SOL     OW55491   8.590  10.234   3.414
84551SOL    HW155492   8.536  10.223   3.492
84551SOL    HW255493   8.680  10.234   3.447
84552SOL     OW55494  11.720   5.624  13.914
84552SOL    HW155495  11.774   5.549  13.936
84552SOL    HW255496  11.630   5.590  13.917
84553SOL     OW55497   6.787   6.875   5.147
84553SOL    HW155498   6.694   6.897   5.147
84553SOL    HW255499   6.824   6.930   5.216
84554SOL     OW55500   2.744  11.487   9.356
84554SOL    HW155501   2.831  11.494   9.316
84554SOL    HW255502   2.728  11.393   9.362
84555SOL     OW55503  11.984  11.569  14.319
84555SOL    HW155504  12.013  11.540  14.233
84555SOL    HW255505  12.011  11.499  14.378
84556SOL     OW55506   1.515  10.839  13.177
84556SOL    HW155507   1.583  10.800  13.232
84556SOL    HW255508   1.552  10.840  13.089
84557SOL     OW55509   6.579   2.133   8.848
84557SOL    HW155510   6.512   2.201   8.841
84557SOL    HW255511   6.614   2.125   8.759
84558SOL     OW55512   2.486  13.392   0.986
84558SOL    HW155513   2.493  13.487   0.980
84558SOL    HW255514   2.429  13.377   1.061
84559SOL     OW55515   1.764   0.622   2.442
84559SOL    HW155516   1.801   0.540   2.411
84559SOL    HW255517   1.681   0.598   2.482
84560SOL     OW55518  13.135   1.044   4.662
84560SOL    HW155519  13.157   1.132   4.633
84560SOL    HW255520  13.101   1.000   4.584
84561SOL     OW55521  13.814  10.359  12.455
84561SOL    HW155522  13.827  10.397  12.541
84561SOL    HW255523  13.759  10.421  12.409
84562SOL     OW55524  14.044   8.019  12.398
84562SOL    HW155525  13.988   8.090  12.429
84562SOL    HW255526  14.071   7.973  12.477
84563SOL     OW55527   4.593  13.592  12.504
84563SOL    HW155528   4.602  13.583  12.409
84563SOL    HW255529   4.501  13.612  12.518
84564SOL     OW55530   3.700  12.115   5.041
84564SOL    HW155531   3.647  12.039   5.020
84564SOL    HW255532   3.758  12.086   5.112
84565SOL     OW55533   3.611  11.436   5.893
84565SOL    HW155534   3.633  11.357   5.943
84565SOL    HW255535   3.549  11.482   5.949
84566SOL     OW55536  14.425  14.555   5.919
84566SOL    HW155537  14.395  14.473   5.880
84566SOL    HW255538  14.347  14.590   5.963
84567SOL     OW55539   0.384   6.100  14.868
84567SOL    HW155540   0.383   6.101  14.772
84567SOL    HW255541   0.301   6.140   0.011
84568SOL     OW55542   8.517   9.951   1.209
84568SOL    HW155543   8.604   9.912   1.198
84568SOL    HW255544   8.484   9.960   1.119
84569SOL     OW55545  11.463  13.583   8.957
84569SOL    HW155546  11.463  13.490   8.981
84569SOL    HW255547  11.402  13.624   9.018
84570SOL     OW55548   1.580   1.125   6.411
84570SOL    HW155549   1.557   1.208   6.454
84570SOL    HW255550   1.673   1.133   6.392
84571SOL     OW55551   0.849   1.446   1.194
84571SOL    HW155552   0.850   1.423   1.101
84571SOL    HW255553   0.861   1.362   1.239
84572SOL     OW55554   7.907  10.299   4.777
84572SOL    HW155555   7.829  10.264   4.733
84572SOL    HW255556   7.871  10.357   4.844
84573SOL     OW55557  10.202   0.284  12.577
84573SOL    HW155558  10.178   0.192  12.591
84573SOL    HW255559  10.119   0.327  12.555
84574SOL     OW55560   3.267  13.532   9.093
84574SOL    HW155561   3.362  13.539   9.090
84574SOL    HW255562   3.236  13.622   9.103
84575SOL     OW55563   0.385   8.974   0.434
84575SOL    HW155564   0.304   9.008   0.397
84575SOL    HW255565   0.454   9.016   0.382
84576SOL     OW55566  12.846   5.545   2.819
84576SOL    HW155567  12.843   5.539   2.915
84576SOL    HW255568  12.858   5.638   2.801
84577SOL     OW55569  14.384   3.808   3.972
84577SOL    HW155570  14.365   3.809   3.878
84577SOL    HW255571  14.441   3.884   3.986
84578SOL     OW55572   8.581   4.582  10.155
84578SOL    HW155573   8.530   4.501  10.162
84578SOL    HW255574   8.585   4.616  10.244
84579SOL     OW55575   0.080   2.856   4.271
84579SOL    HW155576   0.048   2.933   4.224
84579SOL    HW255577   0.014   2.839   4.338
84580SOL     OW55578   0.618   1.442  10.640
84580SOL    HW155579   0.616   1.414  10.548
84580SOL    HW255580   0.574   1.527  10.640
84581SOL     OW55581   0.585  11.170   5.438
84581SOL    HW155582   0.492  11.178   5.458
84581SOL    HW255583   0.591  11.188   5.344
84582SOL     OW55584   6.057   2.422  11.628
84582SOL    HW155585   6.115   2.495  11.605
84582SOL    HW255586   5.971   2.461  11.637
84583SOL     OW55587   6.641   1.146   5.455
84583SOL    HW155588   6.732   1.143   5.424
84583SOL    HW255589   6.642   1.211   5.525
84584SOL     OW55590   3.083  13.572   2.859
84584SOL    HW155591   3.170  13.612   2.871
84584SOL    HW255592   3.032  13.641   2.816
84585SOL     OW55593   4.881   9.497  10.756
84585SOL    HW155594   4.976   9.501  10.748
84585SOL    HW255595   4.864   9.411  10.796
84586SOL     OW55596   8.770  14.758   1.658
84586SOL    HW155597   8.687  14.799   1.633
84586SOL    HW255598   8.779  14.684   1.597
84587SOL     OW55599  13.400   7.770   2.118
84587SOL    HW155600  13.398   7.791   2.024
84587SOL    HW255601  13.322   7.716   2.132
84588SOL     OW55602  14.075   8.042   4.235
84588SOL    HW155603  14.047   8.070   4.147
84588SOL    HW255604  14.161   8.081   4.247
84589SOL     OW55605  14.024   2.969   2.632
84589SOL    HW155606  13.930   2.951   2.641
84589SOL    HW255607  14.050   3.006   2.716
84590SOL     OW55608  10.963   7.297   5.888
84590SOL    HW155609  11.028   7.353   5.845
84590SOL    HW255610  10.949   7.339   5.973
84591SOL     OW55611   7.753   2.033   8.299
84591SOL    HW155612   7.744   1.947   8.340
84591SOL    HW255613   7.821   2.021   8.233
84592SOL     OW55614   7.827   1.911   3.442
84592SOL    HW155615   7.908   1.961   3.448
84592SOL    HW255616   7.766   1.957   3.499
84593SOL     OW55617   6.858   4.485  10.489
84593SOL    HW155618   6.818   4.567  10.518
84593SOL    HW255619   6.904   4.508  10.409
84594SOL     OW55620  12.472   1.862   0.250
84594SOL    HW155621  12.388   1.881   0.207
84594SOL    HW255622  12.499   1.778   0.214
84595SOL     OW55623  14.248  10.504   8.760
84595SOL    HW155624  14.314  10.572   8.770
84595SOL    HW255625  14.278  10.433   8.816
84596SOL     OW55626   6.507   4.406   8.900
84596SOL    HW155627   6.432   4.388   8.956
84596SOL    HW255628   6.510   4.501   8.893
84597SOL     OW55629  12.965   2.015   2.155
84597SOL    HW155630  13.000   1.981   2.073
84597SOL    HW255631  12.887   1.963   2.171
84598SOL     OW55632  14.371   4.800   1.941
84598SOL    HW155633  14.428   4.853   1.998
84598SOL    HW255634  14.421   4.790   1.861
84599SOL     OW55635   8.615   3.850   2.973
84599SOL    HW155636   8.665   3.920   2.931
84599SOL    HW255637   8.602   3.785   2.904
84600SOL     OW55638  14.878  12.649  14.606
84600SOL    HW155639  14.826  12.695  14.540
84600SOL    HW255640   0.078  12.626  14.561
84601SOL     OW55641   9.421  11.595   0.959
84601SOL    HW155642   9.448  11.569   0.870
84601SOL    HW255643   9.499  11.581   1.012
84602SOL     OW55644  11.256   8.509   1.512
84602SOL    HW155645  11.176   8.562   1.515
84602SOL    HW255646  11.327   8.571   1.529
84603SOL     OW55647  13.757   9.572   5.301
84603SOL    HW155648  13.812   9.530   5.235
84603SOL    HW255649  13.669   9.567   5.264
84604SOL     OW55650  11.590   0.539   2.476
84604SOL    HW155651  11.612   0.518   2.385
84604SOL    HW255652  11.673   0.564   2.516
84605SOL     OW55653   1.445   9.617   1.037
84605SOL    HW155654   1.469   9.562   1.112
84605SOL    HW255655   1.468   9.564   0.961
84606SOL     OW55656   6.489   2.809  10.873
84606SOL    HW155657   6.451   2.729  10.837
84606SOL    HW255658   6.441   2.880  10.830
84607SOL     OW55659  12.232   4.090   7.743
84607SOL    HW155660  12.213   4.019   7.682
84607SOL    HW255661  12.146   4.127   7.764
84608SOL     OW55662   1.788   4.567   8.539
84608SOL    HW155663   1.834   4.489   8.572
84608SOL    HW255664   1.695   4.548   8.553
84609SOL     OW55665   7.488   8.869  10.468
84609SOL    HW155666   7.418   8.882  10.533
84609SOL    HW255667   7.490   8.951  10.418
84610SOL     OW55668  10.694   0.650  11.446
84610SOL    HW155669  10.702   0.701  11.526
84610SOL    HW255670  10.649   0.570  11.473
84611SOL     OW55671   1.223  13.269   4.253
84611SOL    HW155672   1.193  13.202   4.191
84611SOL    HW255673   1.204  13.231   4.339
84612SOL     OW55674   4.779   7.037   4.498
84612SOL    HW155675   4.772   7.017   4.591
84612SOL    HW255676   4.741   6.961   4.454
84613SOL     OW55677   2.100  12.672  12.034
84613SOL    HW155678   2.098  12.594  12.089
84613SOL    HW255679   2.013  12.712  12.045
84614SOL     OW55680  13.415  10.257   1.439
84614SOL    HW155681  13.345  10.196   1.418
84614SOL    HW255682  13.372  10.328   1.487
84615SOL     OW55683   7.256   6.781  13.441
84615SOL    HW155684   7.317   6.829  13.385
84615SOL    HW255685   7.195   6.847  13.473
84616SOL     OW55686   4.551   7.778  12.608
84616SOL    HW155687   4.559   7.836  12.533
84616SOL    HW255688   4.603   7.820  12.676
84617SOL     OW55689   5.444   3.596  12.523
84617SOL    HW155690   5.482   3.586  12.436
84617SOL    HW255691   5.393   3.677  12.516
84618SOL     OW55692   8.864   0.138   2.902
84618SOL    HW155693   8.933   0.096   2.954
84618SOL    HW255694   8.788   0.139   2.959
84619SOL     OW55695   9.643   6.456  11.143
84619SOL    HW155696   9.578   6.388  11.161
84619SOL    HW255697   9.626   6.483  11.053
84620SOL     OW55698  13.925   4.257   4.873
84620SOL    HW155699  13.898   4.262   4.965
84620SOL    HW255700  13.963   4.169   4.864
84621SOL     OW55701   0.076  10.387   3.970
84621SOL    HW155702  14.866  10.374   3.946
84621SOL    HW255703   0.096  10.475   3.938
84622SOL     OW55704   8.988   3.714  14.160
84622SOL    HW155705   9.003   3.666  14.078
84622SOL    HW255706   9.060   3.687  14.217
84623SOL     OW55707  14.871  14.258  12.475
84623SOL    HW155708   0.049  14.285  12.544
84623SOL    HW255709  14.824  14.183  12.512
84624SOL     OW55710   6.551   3.202  13.858
84624SOL    HW155711   6.583   3.141  13.924
84624SOL    HW255712   6.463   3.170  13.837
84625SOL     OW55713   8.301  11.204   5.129
84625SOL    HW155714   8.343  11.289   5.139
84625SOL    HW255715   8.302  11.187   5.034
84626SOL     OW55716   8.142  11.095   0.708
84626SOL    HW155717   8.051  11.076   0.728
84626SOL    HW255718   8.191  11.022   0.746
84627SOL     OW55719   5.339  10.655   3.066
84627SOL    HW155720   5.267  10.664   3.128
84627SOL    HW255721   5.370  10.565   3.078
84628SOL     OW55722  14.579  12.880  14.004
84628SOL    HW155723  14.572  12.940  13.929
84628SOL    HW255724  14.497  12.893  14.052
84629SOL     OW55725   2.655   2.836   6.114
84629SOL    HW155726   2.744   2.855   6.144
84629SOL    HW255727   2.667   2.810   6.022
84630SOL     OW55728   5.212   8.470  12.773
84630SOL    HW155729   5.293   8.514  12.800
84630SOL    HW255730   5.224   8.455  12.679
84631SOL     OW55731   0.933  13.813   2.353
84631SOL    HW155732   0.858  13.844   2.406
84631SOL    HW255733   0.893  13.757   2.286
84632SOL     OW55734   5.957  13.906  13.366
84632SOL    HW155735   6.002  13.834  13.322
84632SOL    HW255736   5.959  13.883  13.459
84633SOL     OW55737  10.968   7.265  13.379
84633SOL    HW155738  11.058   7.251  13.349
84633SOL    HW255739  10.921   7.187  13.349
84634SOL     OW55740   2.257  14.107   8.330
84634SOL    HW155741   2.261  14.173   8.261
84634SOL    HW255742   2.332  14.126   8.386
84635SOL     OW55743   4.001  13.163   9.636
84635SOL    HW155744   4.085  13.119   9.645
84635SOL    HW255745   4.024  13.252   9.608
84636SOL     OW55746   8.683   5.807  11.408
84636SOL    HW155747   8.598   5.848  11.392
84636SOL    HW255748   8.680   5.781  11.500
84637SOL     OW55749   7.203   2.805   1.825
84637SOL    HW155750   7.199   2.900   1.816
84637SOL    HW255751   7.112   2.777   1.835
84638SOL     OW55752   9.355   2.554   9.824
84638SOL    HW155753   9.354   2.561   9.920
84638SOL    HW255754   9.445   2.527   9.803
84639SOL     OW55755   6.437   5.108   0.732
84639SOL    HW155756   6.396   5.130   0.816
84639SOL    HW255757   6.388   5.158   0.667
84640SOL     OW55758  11.977  13.075  13.495
84640SOL    HW155759  12.033  13.016  13.546
84640SOL    HW255760  11.912  13.017  13.455
84641SOL     OW55761   4.157   1.294   2.093
84641SOL    HW155762   4.223   1.362   2.107
84641SOL    HW255763   4.108   1.291   2.175
84642SOL     OW55764  10.014   8.830   6.126
84642SOL    HW155765  10.005   8.751   6.179
84642SOL    HW255766   9.950   8.820   6.057
84643SOL     OW55767   8.262   1.646  12.906
84643SOL    HW155768   8.237   1.609  12.991
84643SOL    HW255769   8.322   1.581  12.868
84644SOL     OW55770   6.256   8.011   8.214
84644SOL    HW155771   6.166   7.981   8.226
84644SOL    HW255772   6.310   7.937   8.240
84645SOL     OW55773   5.026   7.460   9.448
84645SOL    HW155774   5.074   7.378   9.437
84645SOL    HW255775   5.092   7.528   9.437
84646SOL     OW55776   2.627   6.610   6.087
84646SOL    HW155777   2.638   6.627   6.180
84646SOL    HW255778   2.691   6.541   6.067
84647SOL     OW55779   7.654   1.351   0.459
84647SOL    HW155780   7.569   1.376   0.495
84647SOL    HW255781   7.704   1.319   0.535
84648SOL     OW55782  13.694  10.503   6.550
84648SOL    HW155783  13.671  10.515   6.642
84648SOL    HW255784  13.624  10.449   6.515
84649SOL     OW55785   1.094   2.675  13.925
84649SOL    HW155786   1.066   2.597  13.878
84649SOL    HW255787   1.027   2.740  13.905
84650SOL     OW55788   6.226   9.552  13.875
84650SOL    HW155789   6.142   9.592  13.898
84650SOL    HW255790   6.204   9.488  13.807
84651SOL     OW55791  10.041   9.872  10.587
84651SOL    HW155792  10.057   9.942  10.651
84651SOL    HW255793  10.007   9.799  10.639
84652SOL     OW55794   8.923  11.408   7.674
84652SOL    HW155795   8.846  11.464   7.661
84652SOL    HW255796   8.941  11.372   7.587
84653SOL     OW55797  10.995  14.472   8.778
84653SOL    HW155798  11.064  14.449   8.839
84653SOL    HW255799  10.960  14.555   8.811
84654SOL     OW55800  11.387   6.290   4.269
84654SOL    HW155801  11.296   6.318   4.273
84654SOL    HW255802  11.407   6.288   4.175
84655SOL     OW55803  11.947   3.801  12.993
84655SOL    HW155804  11.926   3.894  13.005
84655SOL    HW255805  11.937   3.786  12.899
84656SOL     OW55806  12.160   3.331   7.295
84656SOL    HW155807  12.177   3.237   7.296
84656SOL    HW255808  12.239   3.370   7.256
84657SOL     OW55809   9.868  10.262   1.926
84657SOL    HW155810   9.861  10.173   1.893
84657SOL    HW255811   9.817  10.262   2.007
84658SOL     OW55812   9.351   4.079   0.545
84658SOL    HW155813   9.330   3.997   0.590
84658SOL    HW255814   9.379   4.138   0.615
84659SOL     OW55815  10.899  13.179   0.812
84659SOL    HW155816  10.837  13.198   0.883
84659SOL    HW255817  10.927  13.089   0.829
84660SOL     OW55818  11.323   6.202  14.427
84660SOL    HW155819  11.400   6.235  14.473
84660SOL    HW255820  11.315   6.258  14.350
84661SOL     OW55821   3.682   8.721   7.341
84661SOL    HW155822   3.775   8.744   7.342
84661SOL    HW255823   3.658   8.712   7.433
84662SOL     OW55824   8.552   1.292   7.602
84662SOL    HW155825   8.647   1.291   7.588
84662SOL    HW255826   8.523   1.373   7.559
84663SOL     OW55827  13.542   9.905  14.308
84663SOL    HW155828  13.590   9.858  14.239
84663SOL    HW255829  13.579   9.872  14.390
84664SOL     OW55830   6.927   8.644   2.506
84664SOL    HW155831   6.932   8.728   2.461
84664SOL    HW255832   7.009   8.599   2.483
84665SOL     OW55833   0.466  11.997  13.490
84665SOL    HW155834   0.461  11.951  13.406
84665SOL    HW255835   0.386  12.048  13.494
84666SOL     OW55836   9.263  14.041   2.929
84666SOL    HW155837   9.186  14.096   2.949
84666SOL    HW255838   9.249  14.014   2.838
84667SOL     OW55839   2.562   6.035  11.104
84667SOL    HW155840   2.613   5.960  11.072
84667SOL    HW255841   2.576   6.103  11.038
84668SOL     OW55842  14.045  14.088  10.662
84668SOL    HW155843  14.049  14.142  10.583
84668SOL    HW255844  14.092  14.008  10.638
84669SOL     OW55845  12.990   8.583   7.489
84669SOL    HW155846  12.961   8.581   7.580
84669SOL    HW255847  13.085   8.577   7.494
84670SOL     OW55848   3.130   6.525  14.852
84670SOL    HW155849   3.222   6.499  14.855
84670SOL    HW255850   3.083   6.454   0.014
84671SOL     OW55851   5.962   7.060   8.733
84671SOL    HW155852   5.950   6.968   8.755
84671SOL    HW255853   5.998   7.060   8.645
84672SOL     OW55854  14.350  12.638   8.796
84672SOL    HW155855  14.402  12.711   8.762
84672SOL    HW255856  14.287  12.618   8.726
84673SOL     OW55857   8.038   1.243   5.634
84673SOL    HW155858   8.128   1.250   5.666
84673SOL    HW255859   8.047   1.228   5.540
84674SOL     OW55860   6.312   3.984  13.392
84674SOL    HW155861   6.399   4.009  13.360
84674SOL    HW255862   6.289   3.907  13.340
84675SOL     OW55863   6.061   2.190   8.863
84675SOL    HW155864   6.018   2.250   8.801
84675SOL    HW255865   6.048   2.103   8.824
84676SOL     OW55866   4.568  12.460   0.502
84676SOL    HW155867   4.634  12.511   0.549
84676SOL    HW255868   4.513  12.526   0.459
84677SOL     OW55869  12.370  11.793   3.705
84677SOL    HW155870  12.412  11.822   3.624
84677SOL    HW255871  12.355  11.699   3.692
84678SOL     OW55872   6.885   5.805  14.470
84678SOL    HW155873   6.894   5.873  14.404
84678SOL    HW255874   6.792   5.807  14.494
84679SOL     OW55875   2.268   1.048   8.809
84679SOL    HW155876   2.299   1.115   8.869
84679SOL    HW255877   2.330   1.051   8.736
84680SOL     OW55878   8.300   3.713  11.689
84680SOL    HW155879   8.388   3.701  11.726
84680SOL    HW255880   8.310   3.692  11.596
84681SOL     OW55881   4.317   8.965   8.578
84681SOL    HW155882   4.298   9.056   8.601
84681SOL    HW255883   4.233   8.929   8.550
84682SOL     OW55884   7.425   3.225   2.166
84682SOL    HW155885   7.451   3.317   2.178
84682SOL    HW255886   7.394   3.221   2.076
84683SOL     OW55887   4.094  13.741  13.513
84683SOL    HW155888   4.116  13.834  13.522
84683SOL    HW255889   4.029  13.726  13.582
84684SOL     OW55890   9.499  10.076   7.897
84684SOL    HW155891   9.531  10.124   7.974
84684SOL    HW255892   9.409  10.105   7.887
84685SOL     OW55893  11.982  12.477   9.770
84685SOL    HW155894  11.959  12.551   9.713
84685SOL    HW255895  11.994  12.404   9.709
84686SOL     OW55896   7.491   4.941  14.469
84686SOL    HW155897   7.519   5.033  14.460
84686SOL    HW255898   7.447   4.937  14.554
84687SOL     OW55899  14.016   9.020  11.865
84687SOL    HW155900  14.056   8.948  11.817
84687SOL    HW255901  13.946   8.979  11.916
84688SOL     OW55902   6.506   0.388  14.696
84688SOL    HW155903   6.526   0.306  14.650
84688SOL    HW255904   6.423   0.416  14.659
84689SOL     OW55905  13.965   8.122  12.170
84689SOL    HW155906  13.927   8.075  12.245
84689SOL    HW255907  13.893   8.175  12.136
84690SOL     OW55908   0.158   4.097  13.136
84690SOL    HW155909   0.176   4.053  13.052
84690SOL    HW255910   0.196   4.039  13.201
84691SOL     OW55911   9.032   8.049   7.504
84691SOL    HW155912   8.970   8.061   7.576
84691SOL    HW255913   8.989   7.986   7.445
84692SOL     OW55914  10.515   0.530   6.097
84692SOL    HW155915  10.452   0.496   6.160
84692SOL    HW255916  10.524   0.460   6.032
84693SOL     OW55917  13.463   8.816  14.229
84693SOL    HW155918  13.457   8.824  14.134
84693SOL    HW255919  13.455   8.723  14.246
84694SOL     OW55920  14.212   4.890   0.872
84694SOL    HW155921  14.223   4.795   0.866
84694SOL    HW255922  14.212   4.909   0.966
84695SOL     OW55923   2.123   5.597   3.939
84695SOL    HW155924   2.081   5.516   3.911
84695SOL    HW255925   2.198   5.568   3.992
84696SOL     OW55926   5.315   9.747   2.450
84696SOL    HW155927   5.321   9.679   2.517
84696SOL    HW255928   5.238   9.798   2.476
84697SOL     OW55929  12.398  10.213   5.587
84697SOL    HW155930  12.343  10.290   5.576
84697SOL    HW255931  12.460  10.237   5.656
84698SOL     OW55932  10.297  13.637  12.276
84698SOL    HW155933  10.256  13.719  12.305
84698SOL    HW255934  10.346  13.607  12.352
84699SOL     OW55935  14.011   9.959  11.316
84699SOL    HW155936  14.022   9.910  11.397
84699SOL    HW255937  13.945  10.025  11.336
84700SOL     OW55938  10.038   8.026   0.700
84700SOL    HW155939   9.961   8.058   0.655
84700SOL    HW255940  10.032   7.931   0.693
84701SOL     OW55941   2.944  11.363   2.252
84701SOL    HW155942   2.901  11.424   2.192
84701SOL    HW255943   3.016  11.326   2.201
84702SOL     OW55944  13.226   0.289  12.874
84702SOL    HW155945  13.212   0.195  12.885
84702SOL    HW255946  13.253   0.299  12.783
84703SOL     OW55947   8.863   0.593  11.835
84703SOL    HW155948   8.805   0.533  11.882
84703SOL    HW255949   8.934   0.610  11.897
84704SOL     OW55950   3.518   6.276   0.643
84704SOL    HW155951   3.445   6.284   0.581
84704SOL    HW255952   3.506   6.348   0.704
84705SOL     OW55953  13.790   8.803  10.394
84705SOL    HW155954  13.750   8.832  10.313
84705SOL    HW255955  13.727   8.827  10.462
84706SOL     OW55956   7.047   8.025   9.623
84706SOL    HW155957   7.023   8.090   9.558
84706SOL    HW255958   7.003   7.945   9.594
84707SOL     OW55959   5.219  13.656  13.979
84707SOL    HW155960   5.300  13.607  13.964
84707SOL    HW255961   5.172  13.604  14.046
84708SOL     OW55962  14.117   2.725   5.039
84708SOL    HW155963  14.102   2.804   5.091
84708SOL    HW255964  14.213   2.715   5.037
84709SOL     OW55965   9.452  12.135   8.238
84709SOL    HW155966   9.453  12.213   8.183
84709SOL    HW255967   9.544  12.110   8.246
84710SOL     OW55968  11.693  13.172   3.565
84710SOL    HW155969  11.627  13.229   3.605
84710SOL    HW255970  11.705  13.101   3.628
84711SOL     OW55971  14.375  10.297   3.004
84711SOL    HW155972  14.324  10.296   2.923
84711SOL    HW255973  14.400  10.389   3.015
84712SOL     OW55974  14.413   8.625   5.243
84712SOL    HW155975  14.490   8.568   5.243
84712SOL    HW255976  14.449   8.713   5.239
84713SOL     OW55977   6.743   9.621  13.365
84713SOL    HW155978   6.758   9.710  13.397
84713SOL    HW255979   6.781   9.620  13.278
84714SOL     OW55980   2.842  10.703   5.849
84714SOL    HW155981   2.749  10.704   5.874
84714SOL    HW255982   2.876  10.622   5.888
84715SOL     OW55983   1.956  12.419   6.204
84715SOL    HW155984   1.865  12.424   6.234
84715SOL    HW255985   1.964  12.330   6.167
84716SOL     OW55986  10.522   7.415   3.086
84716SOL    HW155987  10.516   7.413   2.991
84716SOL    HW255988  10.452   7.474   3.114
84717SOL     OW55989   6.412   5.299   9.196
84717SOL    HW155990   6.341   5.295   9.261
84717SOL    HW255991   6.421   5.209   9.165
84718SOL     OW55992   5.861   5.520   6.845
84718SOL    HW155993   5.930   5.486   6.789
84718SOL    HW255994   5.782   5.473   6.816
84719SOL     OW55995   7.497   9.484   4.160
84719SOL    HW155996   7.517   9.402   4.115
84719SOL    HW255997   7.429   9.461   4.224
84720SOL     OW55998   1.267   2.021   8.926
84720SOL    HW155999   1.224   2.017   8.841
84720SOL    HW256000   1.227   2.096   8.969
84721SOL     OW56001  13.209   8.018   5.721
84721SOL    HW156002  13.188   7.998   5.812
84721SOL    HW256003  13.190   7.937   5.673
84722SOL     OW56004  13.913   0.348  12.678
84722SOL    HW156005  13.959   0.404  12.616
84722SOL    HW256006  13.955   0.365  12.763
84723SOL     OW56007   7.443   4.160  11.072
84723SOL    HW156008   7.396   4.129  10.995
84723SOL    HW256009   7.508   4.221  11.037
84724SOL     OW56010  10.815   6.427   9.151
84724SOL    HW156011  10.819   6.454   9.243
84724SOL    HW256012  10.904   6.399   9.130
84725SOL     OW56013   4.422   6.206   1.776
84725SOL    HW156014   4.475   6.130   1.751
84725SOL    HW256015   4.351   6.170   1.828
84726SOL     OW56016  10.039   0.177   0.634
84726SOL    HW156017   9.974   0.205   0.570
84726SOL    HW256018  10.094   0.253   0.647
84727SOL     OW56019  12.616   1.743   1.601
84727SOL    HW156020  12.569   1.819   1.636
84727SOL    HW256021  12.646   1.695   1.679
84728SOL     OW56022   3.940  10.655   6.482
84728SOL    HW156023   3.995  10.613   6.417
84728SOL    HW256024   3.882  10.586   6.513
84729SOL     OW56025  13.475   4.997  13.108
84729SOL    HW156026  13.559   5.041  13.108
84729SOL    HW256027  13.495   4.906  13.130
84730SOL     OW56028  13.805  11.996   5.397
84730SOL    HW156029  13.848  11.913   5.380
84730SOL    HW256030  13.862  12.040   5.461
84731SOL     OW56031   7.141   7.097  14.422
84731SOL    HW156032   7.047   7.094  14.402
84731SOL    HW256033   7.167   7.186  14.402
84732SOL     OW56034   3.175   3.853  12.719
84732SOL    HW156035   3.087   3.835  12.685
84732SOL    HW256036   3.178   3.949  12.729
84733SOL     OW56037  13.519   4.531   6.314
84733SOL    HW156038  13.594   4.591   6.313
84733SOL    HW256039  13.525   4.486   6.399
84734SOL     OW56040   8.784   7.303   9.272
84734SOL    HW156041   8.761   7.210   9.266
84734SOL    HW256042   8.700   7.349   9.260
84735SOL     OW56043   5.119   0.078   8.430
84735SOL    HW156044   5.121  14.864   8.418
84735SOL    HW256045   5.103   0.112   8.342
84736SOL     OW56046   3.988   2.763  14.076
84736SOL    HW156047   4.072   2.744  14.118
84736SOL    HW256048   3.983   2.858  14.072
84737SOL     OW56049   0.857   9.775   8.460
84737SOL    HW156050   0.924   9.725   8.505
84737SOL    HW256051   0.861   9.862   8.499
84738SOL     OW56052  11.076   5.662  14.389
84738SOL    HW156053  11.097   5.571  14.368
84738SOL    HW256054  11.116   5.712  14.318
84739SOL     OW56055  11.317  11.920  10.326
84739SOL    HW156056  11.391  11.859  10.323
84739SOL    HW256057  11.358  12.006  10.339
84740SOL     OW56058   9.814   0.515   5.422
84740SOL    HW156059   9.723   0.495   5.445
84740SOL    HW256060   9.852   0.431   5.397
84741SOL     OW56061   8.967  12.443  11.851
84741SOL    HW156062   8.934  12.354  11.866
84741SOL    HW256063   8.996  12.442  11.760
84742SOL     OW56064   5.608   6.638  13.187
84742SOL    HW156065   5.531   6.624  13.242
84742SOL    HW256066   5.683   6.624  13.245
84743SOL     OW56067   7.851   6.804   2.653
84743SOL    HW156068   7.793   6.852   2.712
84743SOL    HW256069   7.842   6.713   2.678
84744SOL     OW56070  12.324  13.945   4.394
84744SOL    HW156071  12.361  13.885   4.329
84744SOL    HW256072  12.315  14.028   4.347
84745SOL     OW56073   5.095   4.697  11.043
84745SOL    HW156074   5.169   4.667  11.096
84745SOL    HW256075   5.101   4.792  11.045
84746SOL     OW56076   7.570  13.999   4.748
84746SOL    HW156077   7.615  13.936   4.693
84746SOL    HW256078   7.575  13.962   4.836
84747SOL     OW56079   7.559  14.357  11.757
84747SOL    HW156080   7.583  14.443  11.723
84747SOL    HW256081   7.546  14.371  11.851
84748SOL     OW56082  14.601   1.239   5.302
84748SOL    HW156083  14.619   1.330   5.324
84748SOL    HW256084  14.512   1.224   5.334
84749SOL     OW56085   3.609   1.504   0.093
84749SOL    HW156086   3.522   1.474   0.064
84749SOL    HW256087   3.669   1.472   0.027
84750SOL     OW56088   2.157  10.194   9.913
84750SOL    HW156089   2.246  10.158   9.909
84750SOL    HW256090   2.109  10.145   9.846
84751SOL     OW56091   7.074  14.243   1.585
84751SOL    HW156092   6.998  14.229   1.640
84751SOL    HW256093   7.065  14.180   1.514
84752SOL     OW56094  11.735   3.232   0.240
84752SOL    HW156095  11.782   3.149   0.236
84752SOL    HW256096  11.795   3.292   0.285
84753SOL     OW56097  14.832   8.561   2.881
84753SOL    HW156098  14.859   8.486   2.829
84753SOL    HW256099  14.737   8.565   2.868
84754SOL     OW56100   3.465   1.843   7.203
84754SOL    HW156101   3.408   1.838   7.280
84754SOL    HW256102   3.507   1.757   7.199
84755SOL     OW56103   1.368   3.448  12.267
84755SOL    HW156104   1.425   3.429  12.342
84755SOL    HW256105   1.429   3.475  12.198
84756SOL     OW56106   9.736  13.184   0.641
84756SOL    HW156107   9.788  13.174   0.720
84756SOL    HW256108   9.656  13.229   0.669
84757SOL     OW56109  11.707  14.276   7.568
84757SOL    HW156110  11.691  14.182   7.577
84757SOL    HW256111  11.627  14.317   7.602
84758SOL     OW56112   3.981  10.865   8.539
84758SOL    HW156113   3.959  10.794   8.599
84758SOL    HW256114   3.966  10.829   8.452
84759SOL     OW56115  14.383   2.458  14.101
84759SOL    HW156116  14.383   2.539  14.049
84759SOL    HW256117  14.453   2.470  14.165
84760SOL     OW56118  13.827   5.677  10.305
84760SOL    HW156119  13.863   5.758  10.270
84760SOL    HW256120  13.736   5.698  10.326
84761SOL     OW56121   8.491  11.902   9.647
84761SOL    HW156122   8.448  11.877   9.729
84761SOL    HW256123   8.492  11.822   9.594
84762SOL     OW56124  12.851   5.915  10.986
84762SOL    HW156125  12.895   5.980  11.041
84762SOL    HW256126  12.758   5.921  11.011
84763SOL     OW56127   4.491   6.931   5.527
84763SOL    HW156128   4.396   6.931   5.534
84763SOL    HW256129   4.513   6.840   5.505
84764SOL     OW56130   7.887  10.561  14.089
84764SOL    HW156131   7.911  10.526  14.003
84764SOL    HW256132   7.792  10.554  14.091
84765SOL     OW56133  10.231   6.770   7.019
84765SOL    HW156134  10.282   6.691   7.037
84765SOL    HW256135  10.234   6.779   6.924
84766SOL     OW56136   1.955   0.183  11.870
84766SOL    HW156137   2.030   0.215  11.819
84766SOL    HW256138   1.994   0.122  11.934
84767SOL     OW56139  13.675   1.514  14.626
84767SOL    HW156140  13.609   1.461  14.671
84767SOL    HW256141  13.757   1.494  14.671
84768SOL     OW56142  12.117   5.676   5.503
84768SOL    HW156143  12.043   5.657   5.561
84768SOL    HW256144  12.189   5.698   5.562
84769SOL     OW56145   3.856   2.066  10.277
84769SOL    HW156146   3.845   1.972  10.292
84769SOL    HW256147   3.803   2.084  10.199
84770SOL     OW56148   9.042  14.617   5.679
84770SOL    HW156149   9.009  14.566   5.753
84770SOL    HW256150   9.036  14.708   5.709
84771SOL     OW56151  10.957   6.719   2.145
84771SOL    HW156152  11.011   6.671   2.208
84771SOL    HW256153  10.941   6.804   2.187
84772SOL     OW56154   8.606   8.538   7.751
84772SOL    HW156155   8.592   8.588   7.831
84772SOL    HW256156   8.620   8.604   7.684
84773SOL     OW56157   8.836  14.508   0.510
84773SOL    HW156158   8.782  14.582   0.481
84773SOL    HW256159   8.921  14.548   0.532
84774SOL     OW56160   8.425   9.315   5.360
84774SOL    HW156161   8.385   9.388   5.406
84774SOL    HW256162   8.362   9.293   5.291
84775SOL     OW56163   9.580   9.994   3.461
84775SOL    HW156164   9.532   9.956   3.387
84775SOL    HW256165   9.512  10.016   3.525
84776SOL     OW56166  13.918   2.634   1.686
84776SOL    HW156167  13.825   2.652   1.700
84776SOL    HW256168  13.963   2.690   1.749
84777SOL     OW56169  12.269  13.532   9.612
84777SOL    HW156170  12.286  13.438   9.620
84777SOL    HW256171  12.285  13.566   9.701
84778SOL     OW56172   8.773  13.968  12.697
84778SOL    HW156173   8.863  13.964  12.730
84778SOL    HW256174   8.758  13.883  12.656
84779SOL     OW56175   3.143   8.170   1.889
84779SOL    HW156176   3.098   8.086   1.903
84779SOL    HW256177   3.216   8.148   1.831
84780SOL     OW56178   5.977   3.176   1.839
84780SOL    HW156179   6.012   3.236   1.773
84780SOL    HW256180   5.883   3.172   1.820
84781SOL     OW56181   1.232   0.967   9.949
84781SOL    HW156182   1.234   0.877   9.915
84781SOL    HW256183   1.324   0.987   9.968
84782SOL     OW56184   0.577   8.561   6.633
84782SOL    HW156185   0.540   8.527   6.551
84782SOL    HW256186   0.505   8.610   6.673
84783SOL     OW56187   8.681   6.503   9.201
84783SOL    HW156188   8.698   6.439   9.132
84783SOL    HW256189   8.767   6.542   9.219
84784SOL     OW56190   7.289   9.325  13.799
84784SOL    HW156191   7.292   9.403  13.743
84784SOL    HW256192   7.289   9.360  13.888
84785SOL     OW56193   6.732  13.529   9.856
84785SOL    HW156194   6.803  13.505   9.797
84785SOL    HW256195   6.682  13.448   9.866
84786SOL     OW56196  10.925   4.325  10.721
84786SOL    HW156197  10.876   4.307  10.640
84786SOL    HW256198  10.943   4.419  10.717
84787SOL     OW56199   1.409   3.252   9.249
84787SOL    HW156200   1.473   3.206   9.195
84787SOL    HW256201   1.360   3.183   9.293
84788SOL     OW56202  11.414  12.854  14.732
84788SOL    HW156203  11.486  12.875  14.672
84788SOL    HW256204  11.429  12.762  14.756
84789SOL     OW56205   1.297   7.216   1.587
84789SOL    HW156206   1.324   7.306   1.572
84789SOL    HW256207   1.203   7.216   1.573
84790SOL     OW56208   6.965  11.950   7.562
84790SOL    HW156209   6.941  11.946   7.470
84790SOL    HW256210   6.906  11.889   7.606
84791SOL     OW56211   3.553  11.123   5.988
84791SOL    HW156212   3.498  11.079   6.054
84791SOL    HW256213   3.608  11.182   6.039
84792SOL     OW56214   7.211  13.938   1.578
84792SOL    HW156215   7.300  13.969   1.592
84792SOL    HW256216   7.179  13.987   1.502
84793SOL     OW56217   2.560  11.048   3.764
84793SOL    HW156218   2.487  11.067   3.824
84793SOL    HW256219   2.636  11.084   3.808
84794SOL     OW56220   7.650   1.453  10.097
84794SOL    HW156221   7.659   1.404  10.015
84794SOL    HW256222   7.635   1.385  10.163
84795SOL     OW56223   6.084  12.205   5.287
84795SOL    HW156224   6.101  12.298   5.272
84795SOL    HW256225   6.005  12.203   5.341
84796SOL     OW56226   0.468  12.398  13.548
84796SOL    HW156227   0.551  12.435  13.518
84796SOL    HW256228   0.415  12.390  13.469
84797SOL     OW56229   0.717   6.096   2.941
84797SOL    HW156230   0.636   6.077   2.894
84797SOL    HW256231   0.780   6.118   2.872
84798SOL     OW56232  14.717  13.308   9.951
84798SOL    HW156233  14.737  13.296  10.044
84798SOL    HW256234  14.651  13.241   9.932
84799SOL     OW56235   9.531   7.068   0.901
84799SOL    HW156236   9.566   7.087   0.814
84799SOL    HW256237   9.437   7.079   0.893
84800SOL     OW56238   4.338   4.496   4.443
84800SOL    HW156239   4.381   4.532   4.365
84800SOL    HW256240   4.302   4.412   4.414
84801SOL     OW56241   0.327   1.065  13.127
84801SOL    HW156242   0.421   1.062  13.142
84801SOL    HW256243   0.293   0.985  13.167
84802SOL     OW56244   0.241  10.161  12.925
84802SOL    HW156245   0.308  10.164  12.993
84802SOL    HW256246   0.268  10.090  12.867
84803SOL     OW56247   2.591   0.564   0.923
84803SOL    HW156248   2.502   0.574   0.956
84803SOL    HW256249   2.647   0.583   0.999
84804SOL     OW56250  14.596   2.228   2.798
84804SOL    HW156251  14.528   2.239   2.731
84804SOL    HW256252  14.549   2.195   2.875
84805SOL     OW56253   6.406   3.943   4.736
84805SOL    HW156254   6.458   3.905   4.807
84805SOL    HW256255   6.414   4.037   4.748
84806SOL     OW56256  13.763   8.999   9.465
84806SOL    HW156257  13.840   9.019   9.411
84806SOL    HW256258  13.784   9.036   9.551
84807SOL     OW56259   2.246  10.624   9.715
84807SOL    HW156260   2.286  10.674   9.787
84807SOL    HW256261   2.167  10.674   9.693
84808SOL     OW56262  10.600   1.112   7.909
84808SOL    HW156263  10.646   1.114   7.825
84808SOL    HW256264  10.575   1.021   7.920
84809SOL     OW56265   6.909   6.148  14.661
84809SOL    HW156266   6.961   6.099  14.596
84809SOL    HW256267   6.922   6.100  14.743
84810SOL     OW56268   5.317  12.951   8.363
84810SOL    HW156269   5.333  12.886   8.431
84810SOL    HW256270   5.324  12.903   8.281
84811SOL     OW56271   4.823   4.673  14.370
84811SOL    HW156272   4.881   4.645  14.441
84811SOL    HW256273   4.838   4.767  14.362
84812SOL     OW56274   7.217   6.777   3.838
84812SOL    HW156275   7.241   6.691   3.872
84812SOL    HW256276   7.201   6.762   3.745
84813SOL     OW56277   1.051  10.600   8.886
84813SOL    HW156278   1.142  10.628   8.883
84813SOL    HW256279   1.009  10.660   8.948
84814SOL     OW56280   3.427   6.064  14.368
84814SOL    HW156281   3.399   5.993  14.309
84814SOL    HW256282   3.504   6.102  14.325
84815SOL     OW56283   0.301  11.396   8.198
84815SOL    HW156284   0.382  11.441   8.224
84815SOL    HW256285   0.295  11.413   8.104
84816SOL     OW56286   9.201   3.635  10.822
84816SOL    HW156287   9.277   3.680  10.786
84816SOL    HW256288   9.126   3.685  10.790
84817SOL     OW56289  10.904   3.474   9.641
84817SOL    HW156290  10.860   3.389   9.650
84817SOL    HW256291  10.936   3.493   9.729
84818SOL     OW56292  11.873   3.601   0.193
84818SOL    HW156293  11.845   3.676   0.245
84818SOL    HW256294  11.821   3.608   0.112
84819SOL     OW56295  10.501  13.213  11.726
84819SOL    HW156296  10.526  13.125  11.697
84819SOL    HW256297  10.567  13.270  11.689
84820SOL     OW56298   0.829   6.727  10.174
84820SOL    HW156299   0.845   6.734  10.268
84820SOL    HW256300   0.894   6.785  10.135
84821SOL     OW56301   5.005   3.204   7.225
84821SOL    HW156302   4.948   3.267   7.181
84821SOL    HW256303   5.056   3.257   7.286
84822SOL     OW56304   7.502   6.236  13.079
84822SOL    HW156305   7.523   6.150  13.043
84822SOL    HW256306   7.446   6.277  13.013
84823SOL     OW56307   9.075   7.035   8.838
84823SOL    HW156308   9.076   7.125   8.870
84823SOL    HW256309   9.014   6.990   8.896
84824SOL     OW56310  14.365   5.485  13.511
84824SOL    HW156311  14.345   5.560  13.455
84824SOL    HW256312  14.414   5.425  13.454
84825SOL     OW56313   8.280   8.803   8.690
84825SOL    HW156314   8.282   8.772   8.600
84825SOL    HW256315   8.348   8.753   8.735
84826SOL     OW56316   6.837   2.374   4.075
84826SOL    HW156317   6.811   2.336   3.992
84826SOL    HW256318   6.931   2.355   4.083
84827SOL     OW56319   1.083   3.539   3.565
84827SOL    HW156320   1.150   3.552   3.632
84827SOL    HW256321   1.108   3.457   3.521
84828SOL     OW56322  12.672   8.364   5.411
84828SOL    HW156323  12.721   8.445   5.400
84828SOL    HW256324  12.644   8.366   5.502
84829SOL     OW56325   0.876  14.811   3.791
84829SOL    HW156326   0.916   0.012   3.817
84829SOL    HW256327   0.900  14.801   3.699
84830SOL     OW56328   6.594  13.996   0.818
84830SOL    HW156329   6.647  13.919   0.839
84830SOL    HW256330   6.650  14.071   0.841
84831SOL     OW56331   6.162  14.592   3.591
84831SOL    HW156332   6.184  14.648   3.665
84831SOL    HW256333   6.189  14.643   3.514
84832SOL     OW56334  10.411   4.349   7.328
84832SOL    HW156335  10.332   4.356   7.382
84832SOL    HW256336  10.411   4.430   7.276
84833SOL     OW56337   1.726  14.418   5.803
84833SOL    HW156338   1.751  14.353   5.737
84833SOL    HW256339   1.716  14.368   5.884
84834SOL     OW56340   8.224   2.475   5.041
84834SOL    HW156341   8.202   2.534   5.112
84834SOL    HW256342   8.289   2.523   4.989
84835SOL     OW56343  14.326   9.751  11.437
84835SOL    HW156344  14.385   9.699  11.492
84835SOL    HW256345  14.297   9.823  11.493
84836SOL     OW56346  11.061   8.688   0.106
84836SOL    HW156347  11.044   8.605   0.151
84836SOL    HW256348  11.133   8.669   0.047
84837SOL     OW56349   3.197   3.877   1.136
84837SOL    HW156350   3.233   3.831   1.060
84837SOL    HW256351   3.117   3.919   1.102
84838SOL     OW56352  14.857   4.188   2.984
84838SOL    HW156353  14.765   4.186   2.955
84838SOL    HW256354  14.859   4.129   3.059
84839SOL     OW56355   9.616   5.359   4.506
84839SOL    HW156356   9.557   5.325   4.439
84839SOL    HW256357   9.679   5.412   4.458
84840SOL     OW56358   3.453  13.253  12.535
84840SOL    HW156359   3.526  13.209  12.492
84840SOL    HW256360   3.435  13.199  12.612
84841SOL     OW56361   5.677  12.456  12.941
84841SOL    HW156362   5.597  12.420  12.903
84841SOL    HW256363   5.661  12.457  13.035
84842SOL     OW56364   9.195   3.289   4.907
84842SOL    HW156365   9.130   3.271   4.839
84842SOL    HW256366   9.214   3.383   4.898
84843SOL     OW56367   2.901   2.901  11.386
84843SOL    HW156368   2.824   2.856  11.352
84843SOL    HW256369   2.963   2.903  11.313
84844SOL     OW56370  11.621   3.645   7.909
84844SOL    HW156371  11.533   3.667   7.941
84844SOL    HW256372  11.670   3.624   7.989
84845SOL     OW56373  13.884   7.908  14.512
84845SOL    HW156374  13.922   7.919  14.425
84845SOL    HW256375  13.840   7.991  14.530
84846SOL     OW56376  10.088  14.133   2.845
84846SOL    HW156377  10.075  14.146   2.939
84846SOL    HW256378  10.032  14.199   2.804
84847SOL     OW56379   1.159  12.293   6.040
84847SOL    HW156380   1.171  12.335   6.125
84847SOL    HW256381   1.245  12.259   6.018
84848SOL     OW56382  12.397  10.529  12.276
84848SOL    HW156383  12.323  10.526  12.216
84848SOL    HW256384  12.441  10.445  12.264
84849SOL     OW56385  13.124   4.609   4.734
84849SOL    HW156386  13.109   4.584   4.826
84849SOL    HW256387  13.183   4.542   4.700
84850SOL     OW56388  14.371   3.096  14.833
84850SOL    HW156389  14.406   3.034  14.769
84850SOL    HW256390  14.282   3.065  14.850
84851SOL     OW56391   3.584  13.003  11.437
84851SOL    HW156392   3.660  13.049  11.471
84851SOL    HW256393   3.511  13.063  11.451
84852SOL     OW56394   5.782  10.365   9.494
84852SOL    HW156395   5.828  10.291   9.455
84852SOL    HW256396   5.726  10.325   9.561
84853SOL     OW56397   2.750   3.195   3.485
84853SOL    HW156398   2.801   3.114   3.486
84853SOL    HW256399   2.782   3.243   3.409
84854SOL     OW56400   0.510   5.355   1.788
84854SOL    HW156401   0.592   5.380   1.831
84854SOL    HW256402   0.460   5.437   1.783
84855SOL     OW56403   8.639   3.868   0.952
84855SOL    HW156404   8.639   3.805   0.880
84855SOL    HW256405   8.623   3.952   0.910
84856SOL     OW56406   7.355  10.857  11.207
84856SOL    HW156407   7.361  10.776  11.256
84856SOL    HW256408   7.361  10.830  11.115
84857SOL     OW56409  13.564   7.380   9.691
84857SOL    HW156410  13.642   7.394   9.637
84857SOL    HW256411  13.576   7.294   9.730
84858SOL     OW56412   0.040   1.543   5.575
84858SOL    HW156413   0.042   1.595   5.494
84858SOL    HW256414   0.110   1.479   5.564
84859SOL     OW56415   6.862   3.923  12.059
84859SOL    HW156416   6.894   3.889  11.975
84859SOL    HW256417   6.839   3.845  12.109
84860SOL     OW56418   2.264   5.073   3.229
84860SOL    HW156419   2.233   5.003   3.173
84860SOL    HW256420   2.359   5.060   3.233
84861SOL     OW56421  13.595   1.564   1.433
84861SOL    HW156422  13.524   1.590   1.375
84861SOL    HW256423  13.624   1.646   1.474
84862SOL     OW56424   5.173   4.168   3.048
84862SOL    HW156425   5.268   4.156   3.044
84862SOL    HW256426   5.148   4.139   3.136
84863SOL     OW56427  11.441   2.047   7.197
84863SOL    HW156428  11.451   2.134   7.235
84863SOL    HW256429  11.531   2.019   7.177
84864SOL     OW56430   7.623   9.191   7.328
84864SOL    HW156431   7.675   9.123   7.371
84864SOL    HW256432   7.557   9.143   7.279
84865SOL     OW56433   3.371  13.142  14.332
84865SOL    HW156434   3.352  13.059  14.376
84865SOL    HW256435   3.410  13.197  14.401
84866SOL     OW56436  13.877   3.029  14.337
84866SOL    HW156437  13.879   2.937  14.362
84866SOL    HW256438  13.784   3.051  14.330
84867SOL     OW56439  12.390  11.466  11.914
84867SOL    HW156440  12.361  11.545  11.959
84867SOL    HW256441  12.333  11.397  11.947
84868SOL     OW56442   1.462   2.551   5.627
84868SOL    HW156443   1.436   2.632   5.583
84868SOL    HW256444   1.531   2.577   5.687
84869SOL     OW56445  10.988  14.319   0.629
84869SOL    HW156446  10.978  14.263   0.706
84869SOL    HW256447  11.082  14.320   0.611
84870SOL     OW56448  13.400  11.129   0.724
84870SOL    HW156449  13.352  11.096   0.800
84870SOL    HW256450  13.487  11.150   0.758
84871SOL     OW56451   8.533   4.455   4.729
84871SOL    HW156452   8.456   4.405   4.756
84871SOL    HW256453   8.600   4.432   4.794
84872SOL     OW56454   7.182   5.897   5.881
84872SOL    HW156455   7.097   5.858   5.900
84872SOL    HW256456   7.245   5.828   5.901
84873SOL     OW56457   9.405  10.627   5.522
84873SOL    HW156458   9.474  10.682   5.559
84873SOL    HW256459   9.449  10.575   5.455
84874SOL     OW56460  11.095   2.940   4.121
84874SOL    HW156461  11.121   2.859   4.078
84874SOL    HW256462  11.071   2.914   4.210
84875SOL     OW56463  12.061   1.706   9.405
84875SOL    HW156464  11.984   1.731   9.457
84875SOL    HW256465  12.070   1.612   9.420
84876SOL     OW56466   0.894   5.374   3.829
84876SOL    HW156467   0.841   5.318   3.772
84876SOL    HW256468   0.851   5.459   3.826
84877SOL     OW56469  11.635  12.445  12.333
84877SOL    HW156470  11.635  12.390  12.254
84877SOL    HW256471  11.728  12.452  12.356
84878SOL     OW56472  12.561   3.160   4.328
84878SOL    HW156473  12.605   3.157   4.243
84878SOL    HW256474  12.488   3.220   4.316
84879SOL     OW56475   8.188  14.486  13.503
84879SOL    HW156476   8.250  14.449  13.441
84879SOL    HW256477   8.146  14.410  13.544
84880SOL     OW56478   2.806   4.321  14.191
84880SOL    HW156479   2.751   4.273  14.129
84880SOL    HW256480   2.766   4.304  14.276
84881SOL     OW56481   0.642   5.275   8.461
84881SOL    HW156482   0.697   5.227   8.399
84881SOL    HW256483   0.556   5.234   8.453
84882SOL     OW56484  12.711  12.378   1.654
84882SOL    HW156485  12.701  12.285   1.674
84882SOL    HW256486  12.628  12.417   1.681
84883SOL     OW56487   4.407   9.537  13.235
84883SOL    HW156488   4.328   9.502  13.194
84883SOL    HW256489   4.393   9.524  13.329
84884SOL     OW56490   1.464   6.105   0.556
84884SOL    HW156491   1.468   6.133   0.648
84884SOL    HW256492   1.431   6.015   0.559
84885SOL     OW56493   1.985   9.483   5.543
84885SOL    HW156494   2.022   9.417   5.601
84885SOL    HW256495   1.998   9.448   5.455
84886SOL     OW56496   1.311  12.584  13.152
84886SOL    HW156497   1.394  12.544  13.127
84886SOL    HW256498   1.321  12.677  13.132
84887SOL     OW56499   0.218  10.801   7.720
84887SOL    HW156500   0.216  10.890   7.684
84887SOL    HW256501   0.221  10.813   7.815
84888SOL     OW56502   3.956   6.573  12.117
84888SOL    HW156503   4.035   6.580  12.064
84888SOL    HW256504   3.984   6.524  12.195
84889SOL     OW56505  11.311   3.839  14.418
84889SOL    HW156506  11.252   3.804  14.352
84889SOL    HW256507  11.335   3.926  14.386
84890SOL     OW56508   4.442   0.549  10.867
84890SOL    HW156509   4.387   0.520  10.941
84890SOL    HW256510   4.518   0.589  10.909
84891SOL     OW56511   0.726   1.759   5.975
84891SOL    HW156512   0.726   1.852   5.995
84891SOL    HW256513   0.679   1.752   5.892
84892SOL     OW56514  13.005   6.886   9.913
84892SOL    HW156515  13.027   6.824   9.982
84892SOL    HW256516  12.972   6.963   9.960
84893SOL     OW56517   0.442  10.212   4.278
84893SOL    HW156518   0.469  10.302   4.262
84893SOL    HW256519   0.358  10.204   4.234
84894SOL     OW56520   3.360  13.054   7.780
84894SOL    HW156521   3.387  13.076   7.691
84894SOL    HW256522   3.441  13.026   7.823
84895SOL     OW56523   5.578  10.974   9.471
84895SOL    HW156524   5.524  10.952   9.547
84895SOL    HW256525   5.668  10.960   9.500
84896SOL     OW56526   9.201   9.878   5.680
84896SOL    HW156527   9.178   9.929   5.757
84896SOL    HW256528   9.232   9.794   5.716
84897SOL     OW56529  13.971   1.109   1.159
84897SOL    HW156530  14.018   1.094   1.241
84897SOL    HW256531  14.016   1.183   1.119
84898SOL     OW56532   0.156   9.104   9.893
84898SOL    HW156533   0.205   9.026   9.867
84898SOL    HW256534   0.133   9.089   9.984
84899SOL     OW56535  11.361   4.993   7.601
84899SOL    HW156536  11.297   5.045   7.650
84899SOL    HW256537  11.446   5.026   7.631
84900SOL     OW56538  12.087  14.653   1.459
84900SOL    HW156539  12.043  14.569   1.473
84900SOL    HW256540  12.107  14.685   1.547
84901SOL     OW56541  14.753   7.919   1.026
84901SOL    HW156542  14.682   7.859   1.048
84901SOL    HW256543  14.738   7.941   0.933
84902SOL     OW56544   4.445   5.625   9.999
84902SOL    HW156545   4.511   5.605  10.065
84902SOL    HW256546   4.407   5.708  10.027
84903SOL     OW56547   5.335   1.545  10.479
84903SOL    HW156548   5.389   1.598  10.421
84903SOL    HW256549   5.303   1.473  10.424
84904SOL     OW56550   8.745  10.185  12.702
84904SOL    HW156551   8.675  10.222  12.756
84904SOL    HW256552   8.765  10.254  12.638
84905SOL     OW56553   1.958   4.562   1.476
84905SOL    HW156554   1.953   4.586   1.568
84905SOL    HW256555   1.866   4.554   1.448
84906SOL     OW56556   8.096   4.599   6.841
84906SOL    HW156557   8.018   4.544   6.848
84906SOL    HW256558   8.169   4.538   6.846
84907SOL     OW56559   5.039   4.280   3.503
84907SOL    HW156560   5.114   4.251   3.555
84907SOL    HW256561   5.035   4.220   3.429
84908SOL     OW56562   6.426   3.837   9.277
84908SOL    HW156563   6.521   3.836   9.280
84908SOL    HW256564   6.405   3.892   9.202
84909SOL     OW56565  10.106   8.283  14.122
84909SOL    HW156566  10.028   8.309  14.075
84909SOL    HW256567  10.176   8.338  14.086
84910SOL     OW56568   2.979  13.447   1.676
84910SOL    HW156569   3.032  13.406   1.744
84910SOL    HW256570   2.913  13.498   1.723
84911SOL     OW56571  13.031   7.755   6.180
84911SOL    HW156572  13.100   7.692   6.196
84911SOL    HW256573  12.967   7.739   6.250
84912SOL     OW56574   0.267   9.528  12.114
84912SOL    HW156575   0.300   9.612  12.081
84912SOL    HW256576   0.245   9.546  12.206
84913SOL     OW56577  11.101  11.713  11.567
84913SOL    HW156578  11.101  11.625  11.530
84913SOL    HW256579  11.019  11.719  11.615
84914SOL     OW56580   6.433   6.555  14.105
84914SOL    HW156581   6.404   6.644  14.085
84914SOL    HW256582   6.526   6.564  14.125
84915SOL     OW56583   3.970  12.374   1.359
84915SOL    HW156584   4.002  12.462   1.337
84915SOL    HW256585   4.039  12.337   1.415
84916SOL     OW56586   3.320   7.585   5.628
84916SOL    HW156587   3.281   7.551   5.708
84916SOL    HW256588   3.374   7.513   5.595
84917SOL     OW56589   7.339  12.618   8.752
84917SOL    HW156590   7.266  12.667   8.790
84917SOL    HW256591   7.416  12.672   8.769
84918SOL     OW56592   6.828  14.197   7.943
84918SOL    HW156593   6.853  14.119   7.993
84918SOL    HW256594   6.867  14.184   7.857
84919SOL     OW56595   4.657   5.326   9.661
84919SOL    HW156596   4.643   5.416   9.633
84919SOL    HW256597   4.584   5.307   9.720
84920SOL     OW56598  11.540  11.738  10.352
84920SOL    HW156599  11.492  11.689  10.419
84920SOL    HW256600  11.606  11.676  10.320
84921SOL     OW56601   3.252   8.206   8.627
84921SOL    HW156602   3.206   8.199   8.711
84921SOL    HW256603   3.303   8.125   8.621
84922SOL     OW56604   4.781   0.540   7.120
84922SOL    HW156605   4.794   0.456   7.076
84922SOL    HW256606   4.848   0.597   7.082
84923SOL     OW56607   5.822   9.723   6.889
84923SOL    HW156608   5.835   9.693   6.799
84923SOL    HW256609   5.911   9.742   6.921
84924SOL     OW56610   1.785  14.384   8.407
84924SOL    HW156611   1.872  14.423   8.407
84924SOL    HW256612   1.798  14.294   8.437
84925SOL     OW56613   1.920   1.705  11.490
84925SOL    HW156614   1.984   1.773  11.512
84925SOL    HW256615   1.836   1.752  11.489
84926SOL     OW56616   2.549   6.802  14.542
84926SOL    HW156617   2.457   6.777  14.530
84926SOL    HW256618   2.548   6.898  14.548
84927SOL     OW56619  10.774  10.335  10.670
84927SOL    HW156620  10.771  10.399  10.598
84927SOL    HW256621  10.682  10.318  10.690
84928SOL     OW56622   5.948   2.890   6.335
84928SOL    HW156623   5.864   2.919   6.369
84928SOL    HW256624   5.945   2.911   6.241
84929SOL     OW56625   7.668  14.219   4.594
84929SOL    HW156626   7.625  14.136   4.615
84929SOL    HW256627   7.626  14.248   4.513
84930SOL     OW56628   3.493   8.829   0.319
84930SOL    HW156629   3.533   8.915   0.307
84930SOL    HW256630   3.400   8.843   0.299
84931SOL     OW56631  12.003  14.155   6.708
84931SOL    HW156632  12.070  14.087   6.700
84931SOL    HW256633  11.937  14.132   6.642
84932SOL     OW56634  13.825  10.124  12.237
84932SOL    HW156635  13.906  10.078  12.254
84932SOL    HW256636  13.836  10.209  12.279
84933SOL     OW56637   3.544   2.979   5.644
84933SOL    HW156638   3.485   3.052   5.623
84933SOL    HW256639   3.518   2.909   5.583
84934SOL     OW56640   0.346   0.957  11.348
84934SOL    HW156641   0.285   0.888  11.319
84934SOL    HW256642   0.396   0.979  11.269
84935SOL     OW56643   1.956   9.954  11.055
84935SOL    HW156644   1.935  10.004  11.134
84935SOL    HW256645   2.047   9.929  11.065
84936SOL     OW56646   1.164  14.544  11.272
84936SOL    HW156647   1.213  14.626  11.281
84936SOL    HW256648   1.227  14.476  11.295
84937SOL     OW56649  13.460  11.141  14.384
84937SOL    HW156650  13.457  11.084  14.461
84937SOL    HW256651  13.524  11.100  14.327
84938SOL     OW56652  14.602  10.531   8.678
84938SOL    HW156653  14.531  10.595   8.667
84938SOL    HW256654  14.618  10.497   8.590
84939SOL     OW56655  13.443   9.979   9.783
84939SOL    HW156656  13.355   9.963   9.815
84939SOL    HW256657  13.498   9.981   9.862
84940SOL     OW56658  14.641   7.124  11.987
84940SOL    HW156659  14.586   7.189  11.944
84940SOL    HW256660  14.660   7.060  11.919
84941SOL     OW56661   8.402  14.171  10.523
84941SOL    HW156662   8.390  14.117  10.445
84941SOL    HW256663   8.350  14.129  10.591
84942SOL     OW56664   9.393  13.022   6.137
84942SOL    HW156665   9.366  12.937   6.173
84942SOL    HW256666   9.315  13.077   6.143
84943SOL     OW56667   4.784   8.546   5.085
84943SOL    HW156668   4.774   8.452   5.093
84943SOL    HW256669   4.853   8.558   5.019
84944SOL     OW56670   7.473   4.899   3.330
84944SOL    HW156671   7.491   4.990   3.354
84944SOL    HW256672   7.535   4.880   3.259
84945SOL     OW56673  11.748   5.481   6.593
84945SOL    HW156674  11.741   5.475   6.688
84945SOL    HW256675  11.726   5.393   6.561
84946SOL     OW56676  12.376   2.012   7.743
84946SOL    HW156677  12.286   1.991   7.765
84946SOL    HW256678  12.385   1.987   7.650
84947SOL     OW56679   0.018  12.584   2.431
84947SOL    HW156680   0.003  12.503   2.480
84947SOL    HW256681  14.814  12.627   2.431
84948SOL     OW56682  12.057  14.770   2.112
84948SOL    HW156683  12.109  14.737   2.039
84948SOL    HW256684  12.090  14.859   2.126
84949SOL     OW56685   1.278   0.344   3.201
84949SOL    HW156686   1.371   0.323   3.210
84949SOL    HW256687   1.243   0.273   3.147
84950SOL     OW56688  12.314  10.936   4.901
84950SOL    HW156689  12.271  10.912   4.819
84950SOL    HW256690  12.254  10.997   4.943
84951SOL     OW56691   7.572   7.144   3.954
84951SOL    HW156692   7.610   7.138   3.866
84951SOL    HW256693   7.481   7.168   3.939
84952SOL     OW56694   1.412  12.986   4.192
84952SOL    HW156695   1.419  13.062   4.135
84952SOL    HW256696   1.318  12.975   4.206
84953SOL     OW56697   0.195  12.265   2.464
84953SOL    HW156698   0.177  12.359   2.466
84953SOL    HW256699   0.150  12.234   2.385
84954SOL     OW56700  11.020   9.537  14.825
84954SOL    HW156701  11.087   9.605  14.834
84954SOL    HW256702  10.947   9.581  14.782
84955SOL     OW56703   1.194   7.575   9.764
84955SOL    HW156704   1.236   7.604   9.844
84955SOL    HW256705   1.187   7.654   9.710
84956SOL     OW56706  10.757   2.658   8.507
84956SOL    HW156707  10.775   2.578   8.456
84956SOL    HW256708  10.820   2.655   8.579
84957SOL     OW56709   6.635   8.398   9.265
84957SOL    HW156710   6.590   8.339   9.325
84957SOL    HW256711   6.592   8.483   9.277
84958SOL     OW56712  14.246   1.385   4.720
84958SOL    HW156713  14.334   1.382   4.756
84958SOL    HW256714  14.215   1.474   4.739
84959SOL     OW56715   7.277  13.038  13.867
84959SOL    HW156716   7.269  13.051  13.772
84959SOL    HW256717   7.273  12.944  13.879
84960SOL     OW56718  10.134   3.252   3.914
84960SOL    HW156719  10.225   3.231   3.894
84960SOL    HW256720  10.132   3.262   4.009
84961SOL     OW56721   5.670   1.478   4.853
84961SOL    HW156722   5.611   1.553   4.856
84961SOL    HW256723   5.642   1.423   4.926
84962SOL     OW56724  11.427  12.745   1.823
84962SOL    HW156725  11.522  12.754   1.824
84962SOL    HW256726  11.401  12.772   1.735
84963SOL     OW56727   8.668  12.302   0.201
84963SOL    HW156728   8.604  12.241   0.164
84963SOL    HW256729   8.653  12.384   0.155
84964SOL     OW56730   8.354   5.163   6.062
84964SOL    HW156731   8.314   5.221   5.997
84964SOL    HW256732   8.416   5.110   6.012
84965SOL     OW56733   7.903   8.870   6.848
84965SOL    HW156734   7.873   8.864   6.939
84965SOL    HW256735   7.824   8.864   6.795
84966SOL     OW56736  13.516   2.456   3.303
84966SOL    HW156737  13.550   2.449   3.214
84966SOL    HW256738  13.566   2.390   3.353
84967SOL     OW56739   9.220   3.754   1.694
84967SOL    HW156740   9.145   3.721   1.646
84967SOL    HW256741   9.188   3.769   1.783
84968SOL     OW56742   7.518   9.910   3.552
84968SOL    HW156743   7.472   9.993   3.564
84968SOL    HW256744   7.511   9.892   3.458
84969SOL     OW56745   6.321   8.474   4.332
84969SOL    HW156746   6.251   8.428   4.287
84969SOL    HW256747   6.277   8.541   4.384
84970SOL     OW56748   2.953   0.588  11.536
84970SOL    HW156749   2.886   0.633  11.587
84970SOL    HW256750   2.916   0.502  11.518
84971SOL     OW56751  11.929   0.682  13.581
84971SOL    HW156752  11.909   0.771  13.611
84971SOL    HW256753  11.845   0.647  13.552
84972SOL     OW56754  12.984   3.518   8.837
84972SOL    HW156755  12.940   3.591   8.793
84972SOL    HW256756  13.062   3.557   8.876
84973SOL     OW56757   8.883   7.792   2.619
84973SOL    HW156758   8.901   7.787   2.525
84973SOL    HW256759   8.959   7.837   2.655
84974SOL     OW56760  11.179  13.983   1.017
84974SOL    HW156761  11.260  13.999   0.968
84974SOL    HW256762  11.162  13.890   1.007
84975SOL     OW56763   4.987   6.058   8.837
84975SOL    HW156764   5.066   6.004   8.829
84975SOL    HW256765   5.003   6.112   8.915
84976SOL     OW56766   8.210   8.326   0.545
84976SOL    HW156767   8.135   8.331   0.486
84976SOL    HW256768   8.234   8.417   0.562
84977SOL     OW56769  11.925   3.146   5.823
84977SOL    HW156770  11.879   3.229   5.832
84977SOL    HW256771  12.009   3.160   5.866
84978SOL     OW56772   3.578   4.803   5.274
84978SOL    HW156773   3.671   4.815   5.255
84978SOL    HW256774   3.547   4.892   5.294
84979SOL     OW56775   2.440   3.438   7.498
84979SOL    HW156776   2.390   3.423   7.417
84979SOL    HW256777   2.531   3.438   7.469
84980SOL     OW56778  14.036  13.364   8.552
84980SOL    HW156779  13.976  13.413   8.496
84980SOL    HW256780  14.051  13.421   8.627
84981SOL     OW56781   3.016   8.010   1.130
84981SOL    HW156782   2.969   7.929   1.151
84981SOL    HW256783   2.993   8.070   1.201
84982SOL     OW56784  11.538   9.584   9.599
84982SOL    HW156785  11.597   9.652   9.565
84982SOL    HW256786  11.462   9.588   9.541
84983SOL     OW56787   4.602  11.896   7.973
84983SOL    HW156788   4.619  11.916   8.065
84983SOL    HW256789   4.529  11.835   7.976
84984SOL     OW56790   0.592  10.775   9.391
84984SOL    HW156791   0.516  10.734   9.351
84984SOL    HW256792   0.620  10.713   9.459
84985SOL     OW56793   2.690   4.200   7.803
84985SOL    HW156794   2.719   4.271   7.746
84985SOL    HW256795   2.703   4.121   7.751
84986SOL     OW56796   1.870  14.398   0.068
84986SOL    HW156797   1.913  14.403  14.865
84986SOL    HW256798   1.782  14.434   0.053
84987SOL     OW56799   4.481   9.602   4.322
84987SOL    HW156800   4.514   9.690   4.303
84987SOL    HW256801   4.452   9.607   4.413
84988SOL     OW56802   6.964  13.188   6.552
84988SOL    HW156803   6.969  13.096   6.525
84988SOL    HW256804   6.908  13.188   6.629
84989SOL     OW56805   4.164  13.278   6.911
84989SOL    HW156806   4.224  13.348   6.934
84989SOL    HW256807   4.158  13.223   6.989
84990SOL     OW56808  11.597   0.978   9.451
84990SOL    HW156809  11.550   1.058   9.475
84990SOL    HW256810  11.555   0.949   9.370
84991SOL     OW56811   8.083   0.036   7.945
84991SOL    HW156812   8.123  14.835   7.970
84991SOL    HW256813   8.116   0.053   7.857
84992SOL     OW56814   5.429   3.046  12.084
84992SOL    HW156815   5.365   3.067  12.152
84992SOL    HW256816   5.438   2.951  12.088
84993SOL     OW56817   5.606   1.436   8.073
84993SOL    HW156818   5.614   1.531   8.080
84993SOL    HW256819   5.694   1.403   8.089
84994SOL     OW56820   8.189  14.361   3.463
84994SOL    HW156821   8.182  14.351   3.368
84994SOL    HW256822   8.282  14.379   3.478
84995SOL     OW56823   9.914   3.720  10.094
84995SOL    HW156824   9.956   3.635  10.108
84995SOL    HW256825   9.823   3.698  10.071
84996SOL     OW56826   4.927  11.800   8.566
84996SOL    HW156827   4.931  11.746   8.487
84996SOL    HW256828   4.996  11.765   8.623
84997SOL     OW56829  10.832  11.465   1.971
84997SOL    HW156830  10.864  11.528   2.035
84997SOL    HW256831  10.769  11.411   2.019
84998SOL     OW56832   3.503   1.558   2.074
84998SOL    HW156833   3.449   1.542   1.997
84998SOL    HW256834   3.576   1.498   2.065
84999SOL     OW56835   9.348  11.862   0.881
84999SOL    HW156836   9.341  11.771   0.911
84999SOL    HW256837   9.260  11.884   0.851
85000SOL     OW56838   1.467   5.263  11.337
85000SOL    HW156839   1.515   5.224  11.265
85000SOL    HW256840   1.443   5.351  11.306
85001SOL     OW56841  14.206  14.222  12.439
85001SOL    HW156842  14.167  14.249  12.522
85001SOL    HW256843  14.300  14.224  12.455
85002SOL     OW56844   3.236  10.857   8.748
85002SOL    HW156845   3.289  10.777   8.746
85002SOL    HW256846   3.197  10.863   8.660
85003SOL     OW56847   9.962  12.257   1.902
85003SOL    HW156848   9.872  12.252   1.934
85003SOL    HW256849   9.965  12.195   1.829
85004SOL     OW56850   3.513   2.065   3.369
85004SOL    HW156851   3.459   2.144   3.368
85004SOL    HW256852   3.600   2.096   3.393
85005SOL     OW56853   9.268   9.442   5.069
85005SOL    HW156854   9.316   9.450   5.151
85005SOL    HW256855   9.334   9.455   5.001
85006SOL     OW56856   8.307  14.792  11.828
85006SOL    HW156857   8.382  14.829  11.876
85006SOL    HW256858   8.330  14.804  11.736
85007SOL     OW56859   9.834   4.127   1.710
85007SOL    HW156860   9.808   4.037   1.733
85007SOL    HW256861   9.788   4.182   1.773
85008SOL     OW56862  11.360   1.385   7.778
85008SOL    HW156863  11.325   1.447   7.714
85008SOL    HW256864  11.447   1.364   7.745
85009SOL     OW56865   2.532   0.366   2.795
85009SOL    HW156866   2.580   0.448   2.803
85009SOL    HW256867   2.587   0.311   2.739
85010SOL     OW56868   1.310   1.809   9.288
85010SOL    HW156869   1.225   1.789   9.249
85010SOL    HW256870   1.289   1.869   9.360
85011SOL     OW56871   8.895  14.072   0.058
85011SOL    HW156872   8.852  14.001   0.107
85011SOL    HW256873   8.826  14.108   0.003
85012SOL     OW56874  10.406   7.266   5.180
85012SOL    HW156875  10.327   7.285   5.231
85012SOL    HW256876  10.445   7.190   5.223
85013SOL     OW56877   4.679  12.888   1.709
85013SOL    HW156878   4.742  12.825   1.676
85013SOL    HW256879   4.626  12.840   1.772
85014SOL     OW56880   8.824  10.918  14.083
85014SOL    HW156881   8.744  10.881  14.119
85014SOL    HW256882   8.824  11.009  14.113
85015SOL     OW56883  12.872   5.355  11.427
85015SOL    HW156884  12.944   5.417  11.432
85015SOL    HW256885  12.912   5.275  11.391
85016SOL     OW56886   8.573  12.912  11.539
85016SOL    HW156887   8.575  12.861  11.620
85016SOL    HW256888   8.664  12.935  11.523
85017SOL     OW56889   3.949   2.065   3.991
85017SOL    HW156890   4.002   2.104   4.061
85017SOL    HW256891   3.860   2.066   4.024
85018SOL     OW56892  12.866  14.569  12.510
85018SOL    HW156893  12.829  14.634  12.569
85018SOL    HW256894  12.914  14.508  12.567
85019SOL     OW56895  14.129   1.362  10.521
85019SOL    HW156896  14.042   1.329  10.498
85019SOL    HW256897  14.177   1.285  10.551
85020SOL     OW56898   0.627   5.981  12.317
85020SOL    HW156899   0.720   5.977  12.293
85020SOL    HW256900   0.626   5.977  12.412
85021SOL     OW56901  11.546   1.097   5.302
85021SOL    HW156902  11.552   1.002   5.308
85021SOL    HW256903  11.586   1.119   5.218
85022SOL     OW56904   8.204   5.911   6.274
85022SOL    HW156905   8.263   5.977   6.311
85022SOL    HW256906   8.160   5.955   6.202
85023SOL     OW56907  13.571  10.376  12.997
85023SOL    HW156908  13.478  10.359  12.982
85023SOL    HW256909  13.605  10.405  12.913
85024SOL     OW56910   5.049   4.289   2.227
85024SOL    HW156911   4.992   4.305   2.303
85024SOL    HW256912   5.129   4.337   2.247
85025SOL     OW56913  11.992  11.828  11.460
85025SOL    HW156914  12.024  11.800  11.374
85025SOL    HW256915  11.939  11.754  11.490
85026SOL     OW56916  13.878   8.526  10.387
85026SOL    HW156917  13.806   8.498  10.444
85026SOL    HW256918  13.872   8.622  10.388
85027SOL     OW56919   3.748  13.583  11.282
85027SOL    HW156920   3.780  13.510  11.229
85027SOL    HW256921   3.824  13.608  11.335
85028SOL     OW56922  14.713  13.210   4.353
85028SOL    HW156923  14.805  13.193   4.337
85028SOL    HW256924  14.709  13.247   4.441
85029SOL     OW56925   8.014  10.738  13.552
85029SOL    HW156926   7.965  10.806  13.505
85029SOL    HW256927   7.955  10.663  13.554
85030SOL     OW56928   8.089   8.672   2.861
85030SOL    HW156929   8.120   8.642   2.946
85030SOL    HW256930   7.996   8.688   2.873
85031SOL     OW56931  14.370   7.087  12.922
85031SOL    HW156932  14.293   7.129  12.884
85031SOL    HW256933  14.369   7.113  13.014
85032SOL     OW56934   0.010  12.257   4.351
85032SOL    HW156935   0.028  12.163   4.338
85032SOL    HW256936   0.054  12.300   4.277
85033SOL     OW56937   2.681   2.038  12.657
85033SOL    HW156938   2.655   2.021  12.747
85033SOL    HW256939   2.662   1.956  12.611
85034SOL     OW56940   3.930   2.309   9.145
85034SOL    HW156941   3.984   2.382   9.175
85034SOL    HW256942   3.842   2.345   9.136
85035SOL     OW56943   0.390   3.299   1.880
85035SOL    HW156944   0.305   3.262   1.905
85035SOL    HW256945   0.369   3.378   1.830
85036SOL     OW56946   6.603  11.396   4.648
85036SOL    HW156947   6.626  11.472   4.701
85036SOL    HW256948   6.519  11.367   4.684
85037SOL     OW56949   8.304   2.844   2.638
85037SOL    HW156950   8.244   2.806   2.702
85037SOL    HW256951   8.374   2.882   2.691
85038SOL     OW56952  13.637   4.966   2.338
85038SOL    HW156953  13.725   5.003   2.331
85038SOL    HW256954  13.591   5.024   2.399
85039SOL     OW56955   7.189  13.793  11.762
85039SOL    HW156956   7.250  13.863  11.740
85039SOL    HW256957   7.120  13.799  11.696
85040SOL     OW56958   1.167   2.297   9.013
85040SOL    HW156959   1.104   2.342   8.957
85040SOL    HW256960   1.238   2.360   9.025
85041SOL     OW56961   5.842   8.420   2.564
85041SOL    HW156962   5.881   8.393   2.647
85041SOL    HW256963   5.751   8.392   2.569
85042SOL     OW56964   7.723   2.435   7.431
85042SOL    HW156965   7.708   2.462   7.522
85042SOL    HW256966   7.644   2.463   7.385
85043SOL     OW56967   1.609  10.531   8.036
85043SOL    HW156968   1.670  10.601   8.061
85043SOL    HW256969   1.656  10.450   8.056
85044SOL     OW56970   3.702   4.564   1.094
85044SOL    HW156971   3.662   4.530   1.014
85044SOL    HW256972   3.779   4.509   1.107
85045SOL     OW56973   7.019   9.168  11.744
85045SOL    HW156974   7.104   9.196  11.778
85045SOL    HW256975   6.976   9.126  11.819
85046SOL     OW56976  11.228   0.193  13.367
85046SOL    HW156977  11.297   0.158  13.423
85046SOL    HW256978  11.267   0.197  13.279
85047SOL     OW56979  14.022   0.716  13.722
85047SOL    HW156980  14.073   0.645  13.683
85047SOL    HW256981  14.070   0.739  13.801
85048SOL     OW56982   6.936   7.656  13.436
85048SOL    HW156983   6.843   7.644  13.415
85048SOL    HW256984   6.983   7.621  13.360
85049SOL     OW56985   8.348   4.041   5.059
85049SOL    HW156986   8.393   4.123   5.039
85049SOL    HW256987   8.262   4.051   5.019
85050SOL     OW56988  12.693   9.485   6.129
85050SOL    HW156989  12.780   9.526   6.128
85050SOL    HW256990  12.641   9.538   6.068
85051SOL     OW56991  10.815   8.944   0.900
85051SOL    HW156992  10.797   8.850   0.903
85051SOL    HW256993  10.832   8.968   0.991
85052SOL     OW56994   7.143   9.040   4.027
85052SOL    HW156995   7.163   8.988   3.949
85052SOL    HW256996   7.227   9.052   4.070
85053SOL     OW56997  12.253  11.056   7.121
85053SOL    HW156998  12.264  11.020   7.209
85053SOL    HW256999  12.184  11.003   7.082
85054SOL     OW57000   6.729  14.701   0.489
85054SOL    HW157001   6.823  14.710   0.471
85054SOL    HW257002   6.696  14.791   0.482
85055SOL     OW57003  11.732  11.944   0.063
85055SOL    HW157004  11.799  11.878   0.082
85055SOL    HW257005  11.681  11.906  14.874
85056SOL     OW57006  11.311   9.744  10.202
85056SOL    HW157007  11.275   9.661  10.169
85056SOL    HW257008  11.370   9.774  10.134
85057SOL     OW57009   8.873   2.753  10.587
85057SOL    HW157010   8.852   2.686  10.521
85057SOL    HW257011   8.791   2.801  10.599
85058SOL     OW57012  14.157  10.290   0.758
85058SOL    HW157013  14.153  10.245   0.843
85058SOL    HW257014  14.227  10.354   0.769
85059SOL     OW57015  11.125   1.910  14.564
85059SOL    HW157016  11.069   1.855  14.510
85059SOL    HW257017  11.066   1.978  14.597
85060SOL     OW57018   6.341  12.825   1.371
85060SOL    HW157019   6.341  12.746   1.425
85060SOL    HW257020   6.279  12.883   1.414
85061SOL     OW57021  12.623  10.519   2.958
85061SOL    HW157022  12.545  10.572   2.939
85061SOL    HW257023  12.591  10.429   2.960
85062SOL     OW57024   2.460   8.083   0.384
85062SOL    HW157025   2.471   8.161   0.330
85062SOL    HW257026   2.529   8.023   0.355
85063SOL     OW57027   9.585   8.729  12.402
85063SOL    HW157028   9.655   8.753  12.463
85063SOL    HW257029   9.583   8.801  12.339
85064SOL     OW57030  14.012   7.549  13.086
85064SOL    HW157031  14.004   7.506  13.170
85064SOL    HW257032  13.955   7.499  13.027
85065SOL     OW57033   3.322   5.506   4.063
85065SOL    HW157034   3.228   5.519   4.068
85065SOL    HW257035   3.334   5.411   4.070
85066SOL     OW57036   4.185   1.522  12.399
85066SOL    HW157037   4.178   1.524  12.303
85066SOL    HW257038   4.101   1.488  12.428
85067SOL     OW57039  10.531  10.881   1.624
85067SOL    HW157040  10.577  10.806   1.587
85067SOL    HW257041  10.550  10.952   1.563
85068SOL     OW57042   4.594   8.728   3.195
85068SOL    HW157043   4.562   8.808   3.238
85068SOL    HW257044   4.522   8.665   3.205
85069SOL     OW57045  12.487   3.727   7.948
85069SOL    HW157046  12.409   3.705   7.896
85069SOL    HW257047  12.466   3.695   8.036
85070SOL     OW57048   7.259   7.728  12.490
85070SOL    HW157049   7.242   7.637  12.464
85070SOL    HW257050   7.176   7.773  12.471
85071SOL     OW57051   3.679   7.678  10.784
85071SOL    HW157052   3.670   7.735  10.708
85071SOL    HW257053   3.631   7.599  10.760
85072SOL     OW57054   4.643   1.990   2.870
85072SOL    HW157055   4.621   1.985   2.777
85072SOL    HW257056   4.674   2.079   2.884
85073SOL     OW57057   6.102  12.975   9.265
85073SOL    HW157058   6.179  12.925   9.242
85073SOL    HW257059   6.128  13.027   9.342
85074SOL     OW57060   5.153  13.571  13.046
85074SOL    HW157061   5.072  13.556  13.096
85074SOL    HW257062   5.138  13.652  12.999
85075SOL     OW57063   7.752  13.016   3.583
85075SOL    HW157064   7.660  13.034   3.598
85075SOL    HW257065   7.775  12.949   3.648
85076SOL     OW57066   4.161  10.554   8.541
85076SOL    HW157067   4.189  10.621   8.603
85076SOL    HW257068   4.092  10.506   8.587
85077SOL     OW57069  13.328  11.535   2.367
85077SOL    HW157070  13.358  11.459   2.416
85077SOL    HW257071  13.402  11.596   2.370
85078SOL     OW57072   7.410   4.293   8.125
85078SOL    HW157073   7.414   4.269   8.032
85078SOL    HW257074   7.333   4.247   8.158
85079SOL     OW57075   6.948   1.848   0.400
85079SOL    HW157076   7.021   1.794   0.369
85079SOL    HW257077   6.978   1.884   0.484
85080SOL     OW57078   1.609   5.049   6.651
85080SOL    HW157079   1.683   5.017   6.702
85080SOL    HW257080   1.606   5.143   6.670
85081SOL     OW57081  11.760   1.958   7.092
85081SOL    HW157082  11.795   1.956   7.181
85081SOL    HW257083  11.763   1.867   7.063
85082SOL     OW57084   8.522   5.940   5.948
85082SOL    HW157085   8.473   6.023   5.945
85082SOL    HW257086   8.610   5.964   5.919
85083SOL     OW57087   0.100   4.704   1.986
85083SOL    HW157088   0.163   4.762   1.943
85083SOL    HW257089   0.016   4.748   1.977
85084SOL     OW57090   0.947   2.791  10.461
85084SOL    HW157091   0.983   2.862  10.513
85084SOL    HW257092   1.020   2.762  10.406
85085SOL     OW57093   8.003   6.387   6.817
85085SOL    HW157094   8.055   6.418   6.891
85085SOL    HW257095   7.977   6.298   6.842
85086SOL     OW57096  10.012  14.048   5.953
85086SOL    HW157097   9.995  14.058   5.860
85086SOL    HW257098  10.089  13.990   5.957
85087SOL     OW57099   3.161   9.924  10.238
85087SOL    HW157100   3.195   9.851  10.185
85087SOL    HW257101   3.109   9.882  10.306
85088SOL     OW57102  14.190   9.144  13.598
85088SOL    HW157103  14.204   9.106  13.685
85088SOL    HW257104  14.107   9.192  13.606
85089SOL     OW57105   5.076   8.698   4.686
85089SOL    HW157106   4.996   8.749   4.681
85089SOL    HW257107   5.087   8.679   4.779
85090SOL     OW57108   0.434   7.937   8.990
85090SOL    HW157109   0.382   7.857   8.987
85090SOL    HW257110   0.491   7.926   9.066
85091SOL     OW57111  14.050  10.613   0.639
85091SOL    HW157112  14.064  10.522   0.665
85091SOL    HW257113  14.086  10.664   0.712
85092SOL     OW57114  10.647   0.199   8.417
85092SOL    HW157115  10.608   0.147   8.346
85092SOL    HW257116  10.708   0.140   8.460
85093SOL     OW57117   9.489   2.388  10.471
85093SOL    HW157118   9.414   2.328  10.475
85093SOL    HW257119   9.563   2.334  10.500
85094SOL     OW57120   6.043  11.630   1.380
85094SOL    HW157121   5.970  11.611   1.439
85094SOL    HW257122   6.017  11.710   1.335
85095SOL     OW57123   0.683   4.459   7.112
85095SOL    HW157124   0.725   4.373   7.117
85095SOL    HW257125   0.686   4.481   7.019
85096SOL     OW57126  14.684   2.629   5.756
85096SOL    HW157127  14.729   2.612   5.839
85096SOL    HW257128  14.623   2.700   5.776
85097SOL     OW57129  11.277  10.925   0.445
85097SOL    HW157130  11.258  11.009   0.403
85097SOL    HW257131  11.202  10.869   0.423
85098SOL     OW57132   0.380   7.816   2.831
85098SOL    HW157133   0.337   7.820   2.916
85098SOL    HW257134   0.437   7.739   2.836
85099SOL     OW57135   1.333   2.380   5.802
85099SOL    HW157136   1.372   2.452   5.752
85099SOL    HW257137   1.349   2.303   5.748
85100SOL     OW57138   2.797  10.816   5.575
85100SOL    HW157139   2.769  10.787   5.662
85100SOL    HW257140   2.886  10.781   5.566
85101SOL     OW57141   2.757   6.471   3.046
85101SOL    HW157142   2.794   6.536   3.106
85101SOL    HW257143   2.725   6.521   2.972
85102SOL     OW57144   2.420  10.075   3.507
85102SOL    HW157145   2.488  10.142   3.513
85102SOL    HW257146   2.339  10.119   3.533
85103SOL     OW57147   4.493   9.310  12.399
85103SOL    HW157148   4.414   9.357  12.372
85103SOL    HW257149   4.471   9.275  12.486
85104SOL     OW57150  10.474   0.096  11.143
85104SOL    HW157151  10.528   0.162  11.187
85104SOL    HW257152  10.456   0.133  11.057
85105SOL     OW57153  11.456   0.600   4.941
85105SOL    HW157154  11.382   0.567   4.991
85105SOL    HW257155  11.514   0.640   5.005
85106SOL     OW57156   6.559   5.401  14.336
85106SOL    HW157157   6.470   5.431  14.352
85106SOL    HW257158   6.602   5.477  14.296
85107SOL     OW57159   3.786  14.765   3.915
85107SOL    HW157160   3.807  14.694   3.975
85107SOL    HW257161   3.691  14.775   3.920
85108SOL     OW57162  12.041  11.718   8.588
85108SOL    HW157163  12.070  11.723   8.497
85108SOL    HW257164  11.947  11.738   8.585
85109SOL     OW57165   2.229   7.457   6.198
85109SOL    HW157166   2.210   7.377   6.150
85109SOL    HW257167   2.213   7.435   6.290
85110SOL     OW57168   5.398   2.269   8.710
85110SOL    HW157169   5.321   2.235   8.665
85110SOL    HW257170   5.409   2.210   8.785
85111SOL     OW57171   6.141   4.962   5.213
85111SOL    HW157172   6.173   4.876   5.187
85111SOL    HW257173   6.148   4.962   5.309
85112SOL     OW57174   9.021  12.603   7.596
85112SOL    HW157175   8.984  12.654   7.523
85112SOL    HW257176   9.025  12.665   7.668
85113SOL     OW57177   9.055   8.557   7.356
85113SOL    HW157178   9.038   8.491   7.423
85113SOL    HW257179   8.987   8.541   7.290
85114SOL     OW57180   3.381   4.717   5.687
85114SOL    HW157181   3.318   4.674   5.629
85114SOL    HW257182   3.444   4.648   5.708
85115SOL     OW57183   7.181   6.639  12.529
85115SOL    HW157184   7.139   6.658  12.612
85115SOL    HW257185   7.111   6.644  12.464
85116SOL     OW57186   4.596  13.577   6.516
85116SOL    HW157187   4.559  13.627   6.589
85116SOL    HW257188   4.685  13.558   6.542
85117SOL     OW57189   0.144   8.366  11.961
85117SOL    HW157190   0.179   8.422  12.031
85117SOL    HW257191   0.114   8.287  12.006
85118SOL     OW57192  14.641   3.060   5.482
85118SOL    HW157193  14.737   3.065   5.487
85118SOL    HW257194  14.614   3.031   5.569
85119SOL     OW57195  10.217  11.256   5.470
85119SOL    HW157196  10.268  11.203   5.531
85119SOL    HW257197  10.277  11.274   5.397
85120SOL     OW57198   1.559   0.779  13.031
85120SOL    HW157199   1.644   0.811  13.000
85120SOL    HW257200   1.496   0.839  12.991
85121SOL     OW57201   3.845  10.541   9.602
85121SOL    HW157202   3.894  10.465   9.572
85121SOL    HW257203   3.766  10.505   9.642
85122SOL     OW57204   5.571   2.712   6.819
85122SOL    HW157205   5.600   2.678   6.904
85122SOL    HW257206   5.545   2.802   6.837
85123SOL     OW57207   0.021  13.505   0.102
85123SOL    HW157208  14.848  13.565   0.051
85123SOL    HW257209  14.841  13.453   0.153
85124SOL     OW57210   0.919   8.233   7.632
85124SOL    HW157211   0.842   8.191   7.594
85124SOL    HW257212   0.897   8.243   7.725
85125SOL     OW57213   4.824   8.917   2.569
85125SOL    HW157214   4.856   8.869   2.645
85125SOL    HW257215   4.833   9.009   2.594
85126SOL     OW57216   2.795   9.597  11.046
85126SOL    HW157217   2.861   9.604  10.978
85126SOL    HW257218   2.806   9.676  11.099
85127SOL     OW57219  10.236   7.891   0.312
85127SOL    HW157220  10.324   7.900   0.274
85127SOL    HW257221  10.233   7.958   0.381
85128SOL     OW57222   7.642  10.963  14.434
85128SOL    HW157223   7.693  11.044  14.426
85128SOL    HW257224   7.666  10.912  14.356
85129SOL     OW57225   2.890   8.103  13.669
85129SOL    HW157226   2.909   8.035  13.605
85129SOL    HW257227   2.866   8.056  13.749
85130SOL     OW57228  10.783   4.910  10.676
85130SOL    HW157229  10.768   4.861  10.757
85130SOL    HW257230  10.861   4.962  10.694
85131SOL     OW57231  13.168   7.762   9.140
85131SOL    HW157232  13.240   7.794   9.086
85131SOL    HW257233  13.196   7.779   9.230
85132SOL     OW57234   0.211   3.873  12.249
85132SOL    HW157235   0.218   3.817  12.172
85132SOL    HW257236   0.124   3.911  12.243
85133SOL     OW57237  12.053   7.632   3.831
85133SOL    HW157238  12.077   7.725   3.829
85133SOL    HW257239  11.962   7.631   3.798
85134SOL     OW57240  12.304  11.409   9.081
85134SOL    HW157241  12.279  11.319   9.061
85134SOL    HW257242  12.245  11.463   9.027
85135SOL     OW57243   3.902  10.299   7.311
85135SOL    HW157244   3.921  10.327   7.401
85135SOL    HW257245   3.954  10.220   7.299
85136SOL     OW57246   2.186   6.802   2.498
85136SOL    HW157247   2.153   6.713   2.516
85136SOL    HW257248   2.278   6.789   2.474
85137SOL     OW57249  10.254   8.835   0.711
85137SOL    HW157250  10.174   8.873   0.748
85137SOL    HW257251  10.325   8.889   0.746
85138SOL     OW57252   6.993   4.708  11.696
85138SOL    HW157253   6.919   4.669  11.650
85138SOL    HW257254   7.022   4.640  11.757
85139SOL     OW57255   6.894   5.161   4.836
85139SOL    HW157256   6.959   5.116   4.782
85139SOL    HW257257   6.944   5.226   4.885
85140SOL     OW57258   7.680   0.084   0.670
85140SOL    HW157259   7.684  14.873   0.694
85140SOL    HW257260   7.594   0.113   0.702
85141SOL     OW57261  11.640   8.590   4.523
85141SOL    HW157262  11.635   8.684   4.504
85141SOL    HW257263  11.727   8.564   4.492
85142SOL     OW57264  14.772   4.978   4.909
85142SOL    HW157265  14.773   5.048   4.975
85142SOL    HW257266  14.752   5.023   4.827
85143SOL     OW57267  11.176  12.038  14.551
85143SOL    HW157268  11.103  12.099  14.556
85143SOL    HW257269  11.228  12.069  14.476
85144SOL     OW57270  11.322   6.367  14.750
85144SOL    HW157271  11.357   6.320  14.825
85144SOL    HW257272  11.234   6.331  14.738
85145SOL     OW57273   1.589   5.851   3.504
85145SOL    HW157274   1.496   5.872   3.508
85145SOL    HW257275   1.612   5.863   3.412
85146SOL     OW57276  10.836  11.940  14.369
85146SOL    HW157277  10.840  11.844  14.367
85146SOL    HW257278  10.825  11.966  14.278
85147SOL     OW57279   2.754   9.834  14.101
85147SOL    HW157280   2.808   9.886  14.042
85147SOL    HW257281   2.779   9.743  14.082
85148SOL     OW57282   4.306   8.238   3.904
85148SOL    HW157283   4.308   8.149   3.869
85148SOL    HW257284   4.286   8.293   3.828
85149SOL     OW57285   2.232   4.068   9.066
85149SOL    HW157286   2.137   4.057   9.068
85149SOL    HW257287   2.259   4.062   9.158
85150SOL     OW57288  12.093  12.398  13.457
85150SOL    HW157289  12.122  12.371  13.370
85150SOL    HW257290  12.094  12.494  13.454
85151SOL     OW57291   1.671   2.890  11.723
85151SOL    HW157292   1.737   2.959  11.717
85151SOL    HW257293   1.609   2.921  11.789
85152SOL     OW57294   6.595   1.281  12.889
85152SOL    HW157295   6.560   1.367  12.868
85152SOL    HW257296   6.688   1.297  12.906
85153SOL     OW57297  11.880   3.487  13.255
85153SOL    HW157298  11.961   3.514  13.299
85153SOL    HW257299  11.907   3.461  13.167
85154SOL     OW57300   5.622   1.322   0.635
85154SOL    HW157301   5.674   1.243   0.649
85154SOL    HW257302   5.638   1.347   0.544
85155SOL     OW57303  14.865   9.149  13.369
85155SOL    HW157304  14.875   9.091  13.294
85155SOL    HW257305  14.770   9.159  13.379
85156SOL     OW57306   7.694  12.577  13.811
85156SOL    HW157307   7.637  12.646  13.778
85156SOL    HW257308   7.769  12.623  13.849
85157SOL     OW57309   6.123   3.897   3.223
85157SOL    HW157310   6.059   3.861   3.161
85157SOL    HW257311   6.130   3.830   3.291
85158SOL     OW57312  14.006   1.991   4.389
85158SOL    HW157313  14.030   1.905   4.356
85158SOL    HW257314  14.089   2.036   4.403
85159SOL     OW57315  14.425  14.776  13.896
85159SOL    HW157316  14.454  14.744  13.982
85159SOL    HW257317  14.483  14.731  13.834
85160SOL     OW57318   2.550  10.595   9.482
85160SOL    HW157319   2.455  10.602   9.489
85160SOL    HW257320   2.565  10.534   9.410
85161SOL     OW57321   9.648   0.473   7.098
85161SOL    HW157322   9.743   0.460   7.096
85161SOL    HW257323   9.636   0.561   7.064
85162SOL     OW57324   8.563   3.654  10.536
85162SOL    HW157325   8.516   3.685  10.613
85162SOL    HW257326   8.565   3.729  10.477
85163SOL     OW57327   2.760   1.864   9.335
85163SOL    HW157328   2.734   1.907   9.253
85163SOL    HW257329   2.841   1.819   9.314
85164SOL     OW57330   1.122   6.602  10.370
85164SOL    HW157331   1.062   6.532  10.347
85164SOL    HW257332   1.202   6.557  10.397
85165SOL     OW57333   1.937  12.962  10.210
85165SOL    HW157334   1.893  13.017  10.145
85165SOL    HW257335   1.885  12.882  10.213
85166SOL     OW57336   0.745   2.863  12.858
85166SOL    HW157337   0.682   2.836  12.925
85166SOL    HW257338   0.787   2.941  12.895
85167SOL     OW57339  14.483   2.524  12.590
85167SOL    HW157340  14.572   2.517  12.556
85167SOL    HW257341  14.427   2.498  12.517
85168SOL     OW57342   2.875  13.745   5.756
85168SOL    HW157343   2.872  13.664   5.807
85168SOL    HW257344   2.878  13.814   5.822
85169SOL     OW57345   5.305  12.439  13.492
85169SOL    HW157346   5.288  12.392  13.410
85169SOL    HW257347   5.248  12.398  13.556
85170SOL     OW57348  13.708   8.735   2.255
85170SOL    HW157349  13.642   8.706   2.192
85170SOL    HW257350  13.672   8.710   2.340
85171SOL     OW57351   1.366   8.210  11.247
85171SOL    HW157352   1.299   8.264  11.289
85171SOL    HW257353   1.362   8.236  11.155
85172SOL     OW57354   0.299  11.825  10.008
85172SOL    HW157355   0.216  11.791   9.974
85172SOL    HW257356   0.312  11.778  10.091
85173SOL     OW57357   7.406  14.644  13.025
85173SOL    HW157358   7.334  14.638  13.088
85173SOL    HW257359   7.476  14.689  13.073
85174SOL     OW57360  14.821   2.851   0.607
85174SOL    HW157361   0.026   2.862   0.645
85174SOL    HW257362  14.835   2.850   0.512
85175SOL     OW57363  11.895   5.267   6.918
85175SOL    HW157364  11.930   5.276   7.006
85175SOL    HW257365  11.924   5.180   6.889
85176SOL     OW57366  12.730   0.263   8.270
85176SOL    HW157367  12.710   0.356   8.281
85176SOL    HW257368  12.644   0.221   8.262
85177SOL     OW57369   1.604   6.199   3.921
85177SOL    HW157370   1.612   6.277   3.976
85177SOL    HW257371   1.606   6.233   3.832
85178SOL     OW57372   9.052  11.407   1.714
85178SOL    HW157373   9.078  11.424   1.624
85178SOL    HW257374   9.059  11.492   1.758
85179SOL     OW57375   5.235  11.914   2.401
85179SOL    HW157376   5.279  11.880   2.323
85179SOL    HW257377   5.171  11.976   2.367
85180SOL     OW57378  11.421   7.113   6.745
85180SOL    HW157379  11.407   7.028   6.787
85180SOL    HW257380  11.333   7.146   6.726
85181SOL     OW57381   1.785   0.405   3.627
85181SOL    HW157382   1.840   0.335   3.590
85181SOL    HW257383   1.807   0.482   3.574
85182SOL     OW57384  12.274  11.913  13.890
85182SOL    HW157385  12.332  11.911  13.814
85182SOL    HW257386  12.190  11.943  13.856
85183SOL     OW57387  11.235   2.444  12.267
85183SOL    HW157388  11.177   2.373  12.242
85183SOL    HW257389  11.232   2.505  12.193
85184SOL     OW57390   7.230   7.312   5.028
85184SOL    HW157391   7.302   7.332   5.088
85184SOL    HW257392   7.239   7.377   4.958
85185SOL     OW57393   2.230   7.132   3.441
85185SOL    HW157394   2.169   7.177   3.382
85185SOL    HW257395   2.177   7.104   3.514
85186SOL     OW57396  13.279   7.052   5.252
85186SOL    HW157397  13.256   7.136   5.292
85186SOL    HW257398  13.351   7.019   5.305
85187SOL     OW57399   2.282  13.813  11.960
85187SOL    HW157400   2.249  13.884  12.015
85187SOL    HW257401   2.377  13.824  11.961
85188SOL     OW57402   6.613   5.910   6.671
85188SOL    HW157403   6.532   5.861   6.653
85188SOL    HW257404   6.593   5.999   6.645
85189SOL     OW57405  14.563   2.620   8.231
85189SOL    HW157406  14.493   2.684   8.216
85189SOL    HW257407  14.611   2.655   8.306
85190SOL     OW57408   5.514   7.108  13.005
85190SOL    HW157409   5.442   7.050  12.981
85190SOL    HW257410   5.483   7.152  13.084
85191SOL     OW57411   5.324   7.161   0.302
85191SOL    HW157412   5.240   7.190   0.337
85191SOL    HW257413   5.312   7.161   0.207
85192SOL     OW57414   8.432   9.704   5.647
85192SOL    HW157415   8.413   9.704   5.554
85192SOL    HW257416   8.495   9.633   5.659
85193SOL     OW57417   0.290  14.381   6.212
85193SOL    HW157418   0.352  14.429   6.267
85193SOL    HW257419   0.292  14.291   6.245
85194SOL     OW57420   5.355   8.489   1.269
85194SOL    HW157421   5.353   8.554   1.340
85194SOL    HW257422   5.440   8.447   1.279
85195SOL     OW57423   3.342  12.524   1.169
85195SOL    HW157424   3.403  12.561   1.105
85195SOL    HW257425   3.363  12.431   1.172
85196SOL     OW57426  13.866   2.064   0.115
85196SOL    HW157427  13.919   2.132   0.072
85196SOL    HW257428  13.920   2.035   0.188
85197SOL     OW57429   3.067   5.522  13.181
85197SOL    HW157430   3.134   5.481  13.235
85197SOL    HW257431   3.052   5.607  13.221
85198SOL     OW57432   3.063  14.461   9.498
85198SOL    HW157433   3.058  14.413   9.581
85198SOL    HW257434   3.127  14.412   9.446
85199SOL     OW57435  11.849  14.313   0.102
85199SOL    HW157436  11.756  14.312   0.081
85199SOL    HW257437  11.883  14.232   0.065
85200SOL     OW57438   1.651   6.354   4.675
85200SOL    HW157439   1.685   6.319   4.593
85200SOL    HW257440   1.556   6.353   4.664
85201SOL     OW57441  12.010   4.579   4.452
85201SOL    HW157442  11.939   4.598   4.390
85201SOL    HW257443  11.996   4.641   4.523
85202SOL     OW57444  11.353   0.676   8.457
85202SOL    HW157445  11.400   0.605   8.414
85202SOL    HW257446  11.420   0.727   8.501
85203SOL     OW57447   7.706   0.986   9.658
85203SOL    HW157448   7.650   1.041   9.713
85203SOL    HW257449   7.677   0.897   9.677
85204SOL     OW57450   2.322   9.832   9.251
85204SOL    HW157451   2.416   9.841   9.262
85204SOL    HW257452   2.300   9.747   9.289
85205SOL     OW57453   8.666   4.571  13.561
85205SOL    HW157454   8.741   4.585  13.503
85205SOL    HW257455   8.680   4.634  13.633
85206SOL     OW57456   0.937   2.363   4.010
85206SOL    HW157457   0.866   2.299   4.007
85206SOL    HW257458   0.937   2.404   3.923
85207SOL     OW57459   2.798  14.381   9.940
85207SOL    HW157460   2.744  14.317   9.894
85207SOL    HW257461   2.885  14.373   9.900
85208SOL     OW57462   4.580   5.784  11.635
85208SOL    HW157463   4.672   5.760  11.623
85208SOL    HW257464   4.544   5.784  11.546
85209SOL     OW57465   5.654   0.620   4.307
85209SOL    HW157466   5.636   0.695   4.251
85209SOL    HW257467   5.568   0.580   4.323
85210SOL     OW57468   8.500   6.627   7.580
85210SOL    HW157469   8.551   6.586   7.509
85210SOL    HW257470   8.563   6.683   7.625
85211SOL     OW57471   6.457   1.936   8.413
85211SOL    HW157472   6.370   1.971   8.434
85211SOL    HW257473   6.518   2.001   8.448
85212SOL     OW57474   5.169   0.960   2.992
85212SOL    HW157475   5.193   0.925   3.078
85212SOL    HW257476   5.074   0.947   2.986
85213SOL     OW57477   9.859   9.279   6.066
85213SOL    HW157478   9.769   9.297   6.092
85213SOL    HW257479   9.876   9.190   6.099
85214SOL     OW57480  13.287   8.091   1.615
85214SOL    HW157481  13.324   8.098   1.703
85214SOL    HW257482  13.309   8.003   1.586
85215SOL     OW57483  11.665  11.554   9.557
85215SOL    HW157484  11.591  11.513   9.513
85215SOL    HW257485  11.716  11.594   9.487
85216SOL     OW57486  14.128   4.581  12.303
85216SOL    HW157487  14.124   4.574  12.398
85216SOL    HW257488  14.038   4.593  12.275
85217SOL     OW57489  11.166  14.043  12.217
85217SOL    HW157490  11.220  13.991  12.158
85217SOL    HW257491  11.224  14.111  12.250
85218SOL     OW57492   0.926   6.721  14.676
85218SOL    HW157493   0.938   6.812  14.648
85218SOL    HW257494   0.991   6.709  14.745
85219SOL     OW57495  14.722  10.309   0.258
85219SOL    HW157496  14.716  10.287   0.165
85219SOL    HW257497  14.636  10.345   0.280
85220SOL     OW57498   2.169   0.794   2.049
85220SOL    HW157499   2.084   0.784   2.093
85220SOL    HW257500   2.178   0.889   2.037
85221SOL     OW57501  13.431  11.815   5.742
85221SOL    HW157502  13.388  11.731   5.724
85221SOL    HW257503  13.498  11.794   5.806
85222SOL     OW57504   9.960   5.340   0.490
85222SOL    HW157505  10.030   5.327   0.554
85222SOL    HW257506   9.882   5.358   0.542
85223SOL     OW57507  12.910  14.280   8.732
85223SOL    HW157508  12.841  14.231   8.688
85223SOL    HW257509  12.931  14.227   8.809
85224SOL     OW57510   6.373   4.348   1.089
85224SOL    HW157511   6.315   4.416   1.053
85224SOL    HW257512   6.427   4.394   1.153
85225SOL     OW57513  14.128  12.013   6.127
85225SOL    HW157514  14.052  12.025   6.071
85225SOL    HW257515  14.162  12.101   6.141
85226SOL     OW57516  11.286   0.883   9.387
85226SOL    HW157517  11.340   0.823   9.439
85226SOL    HW257518  11.198   0.846   9.393
85227SOL     OW57519   4.493   8.655   8.896
85227SOL    HW157520   4.518   8.736   8.852
85227SOL    HW257521   4.403   8.670   8.926
85228SOL     OW57522   8.799  11.029  11.084
85228SOL    HW157523   8.836  11.053  10.999
85228SOL    HW257524   8.851  10.954  11.113
85229SOL     OW57525   9.494  13.337   3.129
85229SOL    HW157526   9.479  13.242   3.134
85229SOL    HW257527   9.580  13.350   3.168
85230SOL     OW57528   2.874  13.204   1.181
85230SOL    HW157529   2.819  13.242   1.113
85230SOL    HW257530   2.843  13.244   1.262
85231SOL     OW57531   4.568   7.761   9.566
85231SOL    HW157532   4.642   7.814   9.536
85231SOL    HW257533   4.557   7.694   9.499
85232SOL     OW57534   9.673  12.207  13.158
85232SOL    HW157535   9.666  12.302  13.153
85232SOL    HW257536   9.762  12.190  13.189
85233SOL     OW57537   7.350   6.566   7.353
85233SOL    HW157538   7.345   6.621   7.431
85233SOL    HW257539   7.366   6.478   7.387
85234SOL     OW57540   7.469   9.326  14.733
85234SOL    HW157541   7.438   9.236  14.743
85234SOL    HW257542   7.537   9.320  14.665
85235SOL     OW57543   7.112   6.885   7.757
85235SOL    HW157544   7.179   6.833   7.712
85235SOL    HW257545   7.158   6.966   7.780
85236SOL     OW57546   8.774   7.023   8.589
85236SOL    HW157547   8.868   7.011   8.585
85236SOL    HW257548   8.745   6.965   8.660
85237SOL     OW57549  14.623   1.666   7.677
85237SOL    HW157550  14.552   1.651   7.615
85237SOL    HW257551  14.675   1.586   7.673
85238SOL     OW57552   8.893  11.868  10.188
85238SOL    HW157553   8.955  11.901  10.123
85238SOL    HW257554   8.834  11.942  10.205
85239SOL     OW57555   0.994   7.680   0.740
85239SOL    HW157556   1.065   7.668   0.677
85239SOL    HW257557   1.011   7.613   0.807
85240SOL     OW57558   5.753   8.968   9.745
85240SOL    HW157559   5.730   9.023   9.670
85240SOL    HW257560   5.831   8.920   9.716
85241SOL     OW57561   7.420   1.816   7.483
85241SOL    HW157562   7.468   1.825   7.400
85241SOL    HW257563   7.470   1.870   7.545
85242SOL     OW57564   4.430   1.098  13.215
85242SOL    HW157565   4.340   1.070  13.196
85242SOL    HW257566   4.459   1.038  13.284
85243SOL     OW57567   9.770   1.494   2.322
85243SOL    HW157568   9.689   1.544   2.336
85243SOL    HW257569   9.797   1.516   2.233
85244SOL     OW57570   0.237   8.919   1.609
85244SOL    HW157571   0.154   8.948   1.645
85244SOL    HW257572   0.266   8.849   1.667
85245SOL     OW57573   2.357   8.406   5.978
85245SOL    HW157574   2.366   8.329   5.923
85245SOL    HW257575   2.372   8.375   6.067
85246SOL     OW57576  11.706   3.504   6.616
85246SOL    HW157577  11.661   3.478   6.696
85246SOL    HW257578  11.796   3.474   6.628
85247SOL     OW57579   1.460   6.591  13.477
85247SOL    HW157580   1.474   6.528  13.406
85247SOL    HW257581   1.391   6.552  13.531
85248SOL     OW57582   0.766  12.643  14.603
85248SOL    HW157583   0.682  12.679  14.575
85248SOL    HW257584   0.776  12.672  14.694
85249SOL     OW57585  13.035  13.958   0.748
85249SOL    HW157586  12.976  14.033   0.752
85249SOL    HW257587  12.985  13.891   0.701
85250SOL     OW57588  11.528   2.460   4.820
85250SOL    HW157589  11.492   2.418   4.742
85250SOL    HW257590  11.588   2.527   4.785
85251SOL     OW57591   6.945   9.612   1.689
85251SOL    HW157592   6.949   9.627   1.783
85251SOL    HW257593   7.013   9.547   1.672
85252SOL     OW57594   6.366  14.728   1.363
85252SOL    HW157595   6.456  14.705   1.337
85252SOL    HW257596   6.374  14.755   1.454
85253SOL     OW57597   5.015   5.159  13.140
85253SOL    HW157598   4.982   5.249  13.143
85253SOL    HW257599   4.968   5.114  13.210
85254SOL     OW57600  10.324   7.600  13.340
85254SOL    HW157601  10.273   7.662  13.290
85254SOL    HW257602  10.290   7.607  13.429
85255SOL     OW57603   8.404   9.138   7.228
85255SOL    HW157604   8.486   9.183   7.209
85255SOL    HW257605   8.395   9.143   7.323
85256SOL     OW57606  11.443   3.081   5.169
85256SOL    HW157607  11.430   3.033   5.087
85256SOL    HW257608  11.525   3.129   5.156
85257SOL     OW57609   7.512   3.229   2.493
85257SOL    HW157610   7.506   3.242   2.588
85257SOL    HW257611   7.423   3.205   2.467
85258SOL     OW57612  12.827   7.664   6.340
85258SOL    HW157613  12.789   7.704   6.418
85258SOL    HW257614  12.756   7.613   6.302
85259SOL     OW57615   2.541   9.167   0.300
85259SOL    HW157616   2.498   9.235   0.352
85259SOL    HW257617   2.479   9.151   0.228
85260SOL     OW57618   5.586  10.507  14.510
85260SOL    HW157619   5.647  10.580  14.522
85260SOL    HW257620   5.601  10.451  14.587
85261SOL     OW57621  13.534   5.746  10.110
85261SOL    HW157622  13.514   5.658  10.142
85261SOL    HW257623  13.485   5.804  10.167
85262SOL     OW57624  14.087  12.261   9.795
85262SOL    HW157625  14.061  12.200   9.864
85262SOL    HW257626  14.142  12.325   9.840
85263SOL     OW57627   0.923   2.770  12.098
85263SOL    HW157628   0.924   2.857  12.059
85263SOL    HW257629   0.935   2.786  12.192
85264SOL     OW57630  10.993   0.201  11.719
85264SOL    HW157631  10.972   0.163  11.633
85264SOL    HW257632  11.007   0.126  11.776
85265SOL     OW57633   3.533   6.741  12.024
85265SOL    HW157634   3.531   6.837  12.025
85265SOL    HW257635   3.442   6.715  12.038
85266SOL     OW57636   0.829   1.611   7.815
85266SOL    HW157637   0.911   1.613   7.766
85266SOL    HW257638   0.772   1.672   7.770
85267SOL     OW57639   2.108  11.638  10.548
85267SOL    HW157640   2.189  11.688  10.536
85267SOL    HW257641   2.039  11.705  10.543
85268SOL     OW57642   9.319   4.414  13.677
85268SOL    HW157643   9.309   4.366  13.595
85268SOL    HW257644   9.405   4.387  13.710
85269SOL     OW57645  12.075   2.250  11.644
85269SOL    HW157646  12.084   2.243  11.549
85269SOL    HW257647  12.104   2.164  11.676
85270SOL     OW57648   1.750  10.295   6.735
85270SOL    HW157649   1.834  10.341   6.741
85270SOL    HW257650   1.721  10.310   6.645
85271SOL     OW57651   4.413  10.260   6.140
85271SOL    HW157652   4.374  10.279   6.225
85271SOL    HW257653   4.445  10.344   6.108
85272SOL     OW57654  12.031   6.335  12.534
85272SOL    HW157655  12.115   6.314  12.574
85272SOL    HW257656  12.050   6.404  12.471
85273SOL     OW57657   5.426   4.884  13.181
85273SOL    HW157658   5.333   4.862  13.189
85273SOL    HW257659   5.469   4.800  13.166
85274SOL     OW57660   2.514  12.242  11.485
85274SOL    HW157661   2.433  12.200  11.455
85274SOL    HW257662   2.560  12.265  11.404
85275SOL     OW57663  12.779   3.200   6.579
85275SOL    HW157664  12.772   3.141   6.504
85275SOL    HW257665  12.723   3.274   6.556
85276SOL     OW57666   1.468   1.672  12.082
85276SOL    HW157667   1.407   1.599  12.088
85276SOL    HW257668   1.522   1.665  12.161
85277SOL     OW57669  14.467   9.861   8.755
85277SOL    HW157670  14.408   9.930   8.785
85277SOL    HW257671  14.484   9.808   8.832
85278SOL     OW57672   8.127  13.318   8.690
85278SOL    HW157673   8.062  13.327   8.620
85278SOL    HW257674   8.210  13.308   8.644
85279SOL     OW57675  11.826   6.479  13.290
85279SOL    HW157676  11.884   6.544  13.251
85279SOL    HW257677  11.885   6.413  13.326
85280SOL     OW57678  10.298  14.377   7.156
85280SOL    HW157679  10.364  14.443   7.136
85280SOL    HW257680  10.312  14.354   7.247
85281SOL     OW57681  13.831  10.708  14.860
85281SOL    HW157682  13.853  10.799  14.876
85281SOL    HW257683  13.907  10.659   0.010
85282SOL     OW57684  12.283   8.921  14.061
85282SOL    HW157685  12.219   8.851  14.077
85282SOL    HW257686  12.348   8.911  14.131
85283SOL     OW57687   4.301   4.309   7.633
85283SOL    HW157688   4.351   4.357   7.567
85283SOL    HW257689   4.234   4.263   7.584
85284SOL     OW57690   4.199  11.609   3.017
85284SOL    HW157691   4.283  11.566   3.003
85284SOL    HW257692   4.149  11.590   2.938
85285SOL     OW57693   5.358  13.876  10.982
85285SOL    HW157694   5.361  13.785  11.010
85285SOL    HW257695   5.273  13.908  11.011
85286SOL     OW57696   9.462   3.153  13.822
85286SOL    HW157697   9.434   3.206  13.897
85286SOL    HW257698   9.390   3.092  13.807
85287SOL     OW57699   3.781   9.018  11.149
85287SOL    HW157700   3.772   9.029  11.055
85287SOL    HW257701   3.876   9.015  11.164
85288SOL     OW57702   2.911   6.558   7.844
85288SOL    HW157703   2.925   6.631   7.904
85288SOL    HW257704   2.963   6.486   7.880
85289SOL     OW57705  14.605   6.118   4.467
85289SOL    HW157706  14.527   6.167   4.493
85289SOL    HW257707  14.636   6.161   4.388
85290SOL     OW57708   5.295  11.796   1.759
85290SOL    HW157709   5.371  11.834   1.716
85290SOL    HW257710   5.242  11.762   1.687
85291SOL     OW57711   4.207   5.682  12.072
85291SOL    HW157712   4.186   5.623  12.144
85291SOL    HW257713   4.284   5.730  12.103
85292SOL     OW57714  13.291  12.252   2.111
85292SOL    HW157715  13.238  12.327   2.137
85292SOL    HW257716  13.254  12.225   2.027
85293SOL     OW57717  12.421   3.076   9.215
85293SOL    HW157718  12.443   3.166   9.239
85293SOL    HW257719  12.329   3.066   9.241
85294SOL     OW57720  13.844   8.928   5.702
85294SOL    HW157721  13.840   8.835   5.724
85294SOL    HW257722  13.901   8.967   5.770
85295SOL     OW57723  14.859   0.441   5.654
85295SOL    HW157724   0.043   0.481   5.597
85295SOL    HW257725  14.855   0.349   5.625
85296SOL     OW57726   2.559   8.446  11.249
85296SOL    HW157727   2.638   8.436  11.196
85296SOL    HW257728   2.492   8.475  11.187
85297SOL     OW57729   3.202   1.346   8.101
85297SOL    HW157730   3.184   1.439   8.116
85297SOL    HW257731   3.181   1.305   8.185
85298SOL     OW57732   6.515   5.489   1.202
85298SOL    HW157733   6.484   5.399   1.188
85298SOL    HW257734   6.529   5.495   1.297
85299SOL     OW57735  10.747   6.152   8.431
85299SOL    HW157736  10.835   6.116   8.429
85299SOL    HW257737  10.689   6.076   8.429
85300SOL     OW57738  14.477  10.696   2.013
85300SOL    HW157739  14.521  10.780   2.028
85300SOL    HW257740  14.539  10.631   2.044
85301SOL     OW57741   8.902   7.680   8.230
85301SOL    HW157742   8.992   7.674   8.259
85301SOL    HW257743   8.876   7.589   8.214
85302SOL     OW57744   7.326  12.180   5.672
85302SOL    HW157745   7.258  12.240   5.703
85302SOL    HW257746   7.408  12.217   5.705
85303SOL     OW57747   1.953   0.886   5.525
85303SOL    HW157748   1.998   0.916   5.604
85303SOL    HW257749   2.023   0.854   5.469
85304SOL     OW57750  13.977   2.067   5.511
85304SOL    HW157751  13.969   1.972   5.520
85304SOL    HW257752  14.031   2.093   5.586
85305SOL     OW57753   0.760   6.404  11.529
85305SOL    HW157754   0.840   6.370  11.489
85305SOL    HW257755   0.689   6.360  11.482
85306SOL     OW57756   8.932   1.537   0.625
85306SOL    HW157757   9.016   1.496   0.608
85306SOL    HW257758   8.929   1.612   0.566
85307SOL     OW57759   8.812   1.423  13.748
85307SOL    HW157760   8.828   1.441  13.655
85307SOL    HW257761   8.816   1.509  13.790
85308SOL     OW57762   3.186   1.276  13.805
85308SOL    HW157763   3.146   1.298  13.720
85308SOL    HW257764   3.278   1.262  13.786
85309SOL     OW57765   4.167   1.345   6.580
85309SOL    HW157766   4.219   1.356   6.660
85309SOL    HW257767   4.148   1.251   6.578
85310SOL     OW57768   9.693   8.908   6.405
85310SOL    HW157769   9.604   8.930   6.431
85310SOL    HW257770   9.700   8.813   6.418
85311SOL     OW57771   4.559   1.203  11.826
85311SOL    HW157772   4.575   1.227  11.735
85311SOL    HW257773   4.621   1.255  11.877
85312SOL     OW57774  11.140   6.283   0.704
85312SOL    HW157775  11.077   6.226   0.661
85312SOL    HW257776  11.156   6.353   0.641
85313SOL     OW57777  12.955   5.121   9.204
85313SOL    HW157778  12.927   5.061   9.272
85313SOL    HW257779  12.998   5.193   9.251
85314SOL     OW57780  11.563   9.065   8.358
85314SOL    HW157781  11.584   8.972   8.363
85314SOL    HW257782  11.480   9.068   8.310
85315SOL     OW57783   6.594   1.640   0.216
85315SOL    HW157784   6.615   1.680   0.300
85315SOL    HW257785   6.550   1.709   0.167
85316SOL     OW57786   5.714   3.430   5.109
85316SOL    HW157787   5.620   3.414   5.110
85316SOL    HW257788   5.730   3.476   5.027
85317SOL     OW57789   2.961   5.064   3.334
85317SOL    HW157790   3.012   4.989   3.302
85317SOL    HW257791   2.877   5.057   3.288
85318SOL     OW57792  11.603   9.387   3.155
85318SOL    HW157793  11.577   9.439   3.230
85318SOL    HW257794  11.678   9.335   3.186
85319SOL     OW57795   8.615  10.397   5.580
85319SOL    HW157796   8.632  10.315   5.533
85319SOL    HW257797   8.664  10.463   5.530
85320SOL     OW57798   0.490  13.449   5.418
85320SOL    HW157799   0.457  13.454   5.508
85320SOL    HW257800   0.414  13.425   5.365
85321SOL     OW57801   4.118   7.096   5.757
85321SOL    HW157802   4.194   7.052   5.796
85321SOL    HW257803   4.060   7.114   5.831
85322SOL     OW57804   2.537  10.430   5.862
85322SOL    HW157805   2.550  10.336   5.847
85322SOL    HW257806   2.536  10.439   5.957
85323SOL     OW57807  11.336   5.278   9.709
85323SOL    HW157808  11.278   5.241   9.776
85323SOL    HW257809  11.394   5.337   9.757
85324SOL     OW57810   6.747  14.529   8.911
85324SOL    HW157811   6.684  14.545   8.981
85324SOL    HW257812   6.722  14.443   8.876
85325SOL     OW57813   6.886   3.421   4.728
85325SOL    HW157814   6.850   3.367   4.658
85325SOL    HW257815   6.818   3.486   4.746
85326SOL     OW57816  12.100  14.283   0.763
85326SOL    HW157817  12.164  14.219   0.731
85326SOL    HW257818  12.019  14.260   0.718
85327SOL     OW57819   0.547   2.225   9.309
85327SOL    HW157820   0.513   2.152   9.258
85327SOL    HW257821   0.490   2.299   9.286
85328SOL     OW57822   5.466   1.076   6.505
85328SOL    HW157823   5.423   0.997   6.472
85328SOL    HW257824   5.547   1.081   6.453
85329SOL     OW57825   5.564  13.848  12.466
85329SOL    HW157826   5.511  13.843  12.386
85329SOL    HW257827   5.610  13.932  12.458
85330SOL     OW57828   0.009  10.583  13.576
85330SOL    HW157829   0.031  10.507  13.630
85330SOL    HW257830  14.819  10.625  13.623
85331SOL     OW57831   7.988   8.785  12.396
85331SOL    HW157832   8.015   8.875  12.416
85331SOL    HW257833   8.041   8.762  12.319
85332SOL     OW57834   2.684  11.010   2.541
85332SOL    HW157835   2.703  11.009   2.635
85332SOL    HW257836   2.769  11.004   2.498
85333SOL     OW57837   7.372   8.247   4.472
85333SOL    HW157838   7.458   8.249   4.514
85333SOL    HW257839   7.382   8.300   4.393
85334SOL     OW57840  14.865   2.720  14.239
85334SOL    HW157841   0.059   2.730  14.297
85334SOL    HW257842  14.870   2.795  14.180
85335SOL     OW57843   1.529  10.412   7.455
85335SOL    HW157844   1.554  10.330   7.412
85335SOL    HW257845   1.566  10.406   7.543
85336SOL     OW57846   0.395   2.210   6.126
85336SOL    HW157847   0.431   2.279   6.181
85336SOL    HW257848   0.381   2.252   6.041
85337SOL     OW57849   7.117   6.893   8.824
85337SOL    HW157850   7.032   6.848   8.822
85337SOL    HW257851   7.109   6.957   8.894
85338SOL     OW57852   8.401  10.777   1.512
85338SOL    HW157853   8.351  10.746   1.588
85338SOL    HW257854   8.356  10.857   1.484
85339SOL     OW57855   8.483  14.169  14.192
85339SOL    HW157856   8.489  14.244  14.252
85339SOL    HW257857   8.508  14.093  14.245
85340SOL     OW57858  12.220  14.476  10.695
85340SOL    HW157859  12.263  14.396  10.665
85340SOL    HW257860  12.136  14.447  10.730
85341SOL     OW57861   1.231  10.969   6.513
85341SOL    HW157862   1.292  11.043   6.513
85341SOL    HW257863   1.189  10.973   6.599
85342SOL     OW57864   5.323   4.797  11.486
85342SOL    HW157865   5.291   4.887  11.489
85342SOL    HW257866   5.265   4.749  11.545
85343SOL     OW57867   1.009   3.097   6.757
85343SOL    HW157868   0.991   3.079   6.665
85343SOL    HW257869   0.925   3.081   6.801
85344SOL     OW57870   8.905   8.517   8.047
85344SOL    HW157871   8.946   8.516   7.960
85344SOL    HW257872   8.970   8.474   8.104
85345SOL     OW57873   8.560  14.226   1.187
85345SOL    HW157874   8.522  14.143   1.156
85345SOL    HW257875   8.507  14.250   1.263
85346SOL     OW57876   3.813  11.481   9.865
85346SOL    HW157877   3.726  11.519   9.875
85346SOL    HW257878   3.814  11.405   9.922
85347SOL     OW57879   8.197  10.678   1.683
85347SOL    HW157880   8.117  10.730   1.692
85347SOL    HW257881   8.202  10.627   1.764
85348SOL     OW57882   7.136   1.223  12.574
85348SOL    HW157883   7.072   1.230  12.645
85348SOL    HW257884   7.091   1.260  12.497
85349SOL     OW57885   3.201   2.214   0.320
85349SOL    HW157886   3.179   2.298   0.280
85349SOL    HW257887   3.277   2.233   0.376
85350SOL     OW57888  10.110  12.717   6.239
85350SOL    HW157889  10.188  12.662   6.241
85350SOL    HW257890  10.104  12.748   6.149
85351SOL     OW57891   4.135   8.348   6.658
85351SOL    HW157892   4.150   8.422   6.599
85351SOL    HW257893   4.171   8.273   6.611
85352SOL     OW57894  14.625   9.482  13.824
85352SOL    HW157895  14.678   9.558  13.801
85352SOL    HW257896  14.605   9.440  13.741
85353SOL     OW57897   5.815  14.524   7.779
85353SOL    HW157898   5.854  14.609   7.799
85353SOL    HW257899   5.870  14.486   7.711
85354SOL     OW57900   1.474   0.148   2.389
85354SOL    HW157901   1.552   0.128   2.441
85354SOL    HW257902   1.499   0.125   2.300
85355SOL     OW57903   4.372  13.349   5.388
85355SOL    HW157904   4.463  13.321   5.387
85355SOL    HW257905   4.362  13.395   5.472
85356SOL     OW57906   6.605  14.030   8.767
85356SOL    HW157907   6.531  14.023   8.706
85356SOL    HW257908   6.588  13.961   8.832
85357SOL     OW57909   4.290  14.446   4.701
85357SOL    HW157910   4.325  14.359   4.682
85357SOL    HW257911   4.201  14.430   4.731
85358SOL     OW57912   4.394   6.076   3.050
85358SOL    HW157913   4.361   6.035   3.130
85358SOL    HW257914   4.345   6.158   3.042
85359SOL     OW57915   4.415   0.530  12.779
85359SOL    HW157916   4.355   0.464  12.744
85359SOL    HW257917   4.410   0.517  12.874
85360SOL     OW57918  10.833   8.572  13.255
85360SOL    HW157919  10.896   8.639  13.284
85360SOL    HW257920  10.828   8.511  13.329
85361SOL     OW57921  12.237  11.452   0.860
85361SOL    HW157922  12.213  11.540   0.832
85361SOL    HW257923  12.207  11.395   0.789
85362SOL     OW57924   0.411  10.702   7.568
85362SOL    HW157925   0.340  10.736   7.623
85362SOL    HW257926   0.466  10.778   7.551
85363SOL     OW57927   6.119   6.354  13.921
85363SOL    HW157928   6.045   6.338  13.980
85363SOL    HW257929   6.132   6.449  13.925
85364SOL     OW57930  11.510  11.847   6.915
85364SOL    HW157931  11.471  11.910   6.854
85364SOL    HW257932  11.521  11.897   6.996
85365SOL     OW57933  12.844   7.095  14.547
85365SOL    HW157934  12.907   7.167  14.553
85365SOL    HW257935  12.814   7.082  14.637
85366SOL     OW57936   8.568   2.267   1.062
85366SOL    HW157937   8.557   2.196   0.999
85366SOL    HW257938   8.479   2.295   1.083
85367SOL     OW57939   0.693   6.638   5.772
85367SOL    HW157940   0.779   6.597   5.784
85367SOL    HW257941   0.711   6.732   5.779
85368SOL     OW57942  12.585  10.495   4.497
85368SOL    HW157943  12.556  10.410   4.464
85368SOL    HW257944  12.679  10.497   4.478
85369SOL     OW57945  14.302  12.715  14.699
85369SOL    HW157946  14.324  12.753  14.784
85369SOL    HW257947  14.365  12.752  14.639
85370SOL     OW57948   5.231   5.370   5.435
85370SOL    HW157949   5.205   5.429   5.364
85370SOL    HW257950   5.244   5.285   5.393
85371SOL     OW57951   2.573  10.818  14.128
85371SOL    HW157952   2.591  10.910  14.149
85371SOL    HW257953   2.620  10.768  14.195
85372SOL     OW57954   1.000  10.228   2.518
85372SOL    HW157955   0.967  10.229   2.608
85372SOL    HW257956   0.998  10.320   2.491
85373SOL     OW57957   6.314   7.826   6.328
85373SOL    HW157958   6.226   7.800   6.354
85373SOL    HW257959   6.370   7.753   6.355
85374SOL     OW57960   0.860  14.160   7.656
85374SOL    HW157961   0.829  14.189   7.741
85374SOL    HW257962   0.814  14.077   7.640
85375SOL     OW57963   8.767   1.435   0.189
85375SOL    HW157964   8.685   1.464   0.230
85375SOL    HW257965   8.798   1.363   0.244
85376SOL     OW57966   0.937  14.121  12.158
85376SOL    HW157967   0.947  14.191  12.094
85376SOL    HW257968   0.847  14.129  12.189
85377SOL     OW57969   6.330  10.219   3.792
85377SOL    HW157970   6.317  10.269   3.873
85377SOL    HW257971   6.360  10.133   3.821
85378SOL     OW57972  14.446   2.212   0.094
85378SOL    HW157973  14.373   2.273   0.082
85378SOL    HW257974  14.483   2.237   0.179
85379SOL     OW57975   8.898   8.703  14.531
85379SOL    HW157976   8.950   8.625  14.549
85379SOL    HW257977   8.875   8.738  14.617
85380SOL     OW57978   3.697  13.277   8.371
85380SOL    HW157979   3.750  13.202   8.396
85380SOL    HW257980   3.675  13.262   8.279
85381SOL     OW57981   7.522  12.607   5.805
85381SOL    HW157982   7.518  12.551   5.728
85381SOL    HW257983   7.606  12.653   5.797
85382SOL     OW57984   0.171  14.246  10.596
85382SOL    HW157985   0.099  14.203  10.643
85382SOL    HW257986   0.159  14.219  10.505
85383SOL     OW57987   3.160   0.752  12.741
85383SOL    HW157988   3.119   0.687  12.684
85383SOL    HW257989   3.111   0.832  12.727
85384SOL     OW57990   7.744   7.021  14.610
85384SOL    HW157991   7.650   7.001  14.613
85384SOL    HW257992   7.787   6.939  14.630
85385SOL     OW57993   5.943  13.005  11.011
85385SOL    HW157994   6.001  13.080  11.027
85385SOL    HW257995   6.002  12.929  11.010
85386SOL     OW57996  13.008   8.728   6.485
85386SOL    HW157997  13.064   8.806   6.491
85386SOL    HW257998  12.922   8.758   6.516
85387SOL     OW57999   6.610  12.294  13.954
85387SOL    HW158000   6.592  12.376  13.909
85387SOL    HW258001   6.671  12.318  14.024
85388SOL     OW58002  11.861  14.330   0.644
85388SOL    HW158003  11.918  14.376   0.581
85388SOL    HW258004  11.876  14.376   0.727
85389SOL     OW58005  13.671  13.222  12.301
85389SOL    HW158006  13.723  13.266  12.234
85389SOL    HW258007  13.625  13.152  12.254
85390SOL     OW58008  14.023  12.015  11.981
85390SOL    HW158009  14.075  12.095  11.990
85390SOL    HW258010  14.007  11.987  12.071
85391SOL     OW58011   9.036   5.382   2.245
85391SOL    HW158012   9.087   5.427   2.313
85391SOL    HW258013   9.033   5.445   2.172
85392SOL     OW58014  13.296   3.150   2.510
85392SOL    HW158015  13.219   3.093   2.503
85392SOL    HW258016  13.314   3.178   2.420
85393SOL     OW58017   8.641   2.430   4.026
85393SOL    HW158018   8.736   2.425   4.038
85393SOL    HW258019   8.605   2.413   4.113
85394SOL     OW58020  12.350   2.894   8.126
85394SOL    HW158021  12.266   2.926   8.159
85394SOL    HW258022  12.331   2.861   8.038
85395SOL     OW58023  12.060   2.010   2.062
85395SOL    HW158024  12.121   2.074   2.026
85395SOL    HW258025  12.080   2.007   2.155
85396SOL     OW58026   1.023   8.724   7.829
85396SOL    HW158027   1.104   8.675   7.847
85396SOL    HW258028   1.052   8.814   7.814
85397SOL     OW58029  11.355   2.929   1.250
85397SOL    HW158030  11.286   2.932   1.316
85397SOL    HW258031  11.328   2.995   1.186
85398SOL     OW58032   4.393  10.403   9.009
85398SOL    HW158033   4.300  10.380   9.011
85398SOL    HW258034   4.423  10.388   9.099
85399SOL     OW58035   3.751  13.769  11.633
85399SOL    HW158036   3.697  13.726  11.700
85399SOL    HW258037   3.720  13.859  11.631
85400SOL     OW58038  10.630  12.732   7.095
85400SOL    HW158039  10.584  12.648   7.089
85400SOL    HW258040  10.695  12.719   7.164
85401SOL     OW58041   6.319   5.498  14.457
85401SOL    HW158042   6.300   5.588  14.482
85401SOL    HW258043   6.302   5.446  14.536
85402SOL     OW58044   7.825  14.109  10.391
85402SOL    HW158045   7.784  14.066  10.466
85402SOL    HW258046   7.756  14.113  10.325
85403SOL     OW58047   2.028  10.822  13.340
85403SOL    HW158048   2.006  10.756  13.405
85403SOL    HW258049   2.096  10.781  13.286
85404SOL     OW58050   0.526   0.959   6.315
85404SOL    HW158051   0.588   0.936   6.385
85404SOL    HW258052   0.579   1.007   6.251
85405SOL     OW58053  13.193  10.144  14.708
85405SOL    HW158054  13.171  10.052  14.721
85405SOL    HW258055  13.251  10.145  14.632
85406SOL     OW58056   0.244  14.548   2.821
85406SOL    HW158057   0.274  14.528   2.909
85406SOL    HW258058   0.208  14.636   2.827
85407SOL     OW58059   0.448   5.234   9.564
85407SOL    HW158060   0.472   5.148   9.600
85407SOL    HW258061   0.361   5.221   9.527
85408SOL     OW58062   0.210  13.983  13.218
85408SOL    HW158063   0.150  14.007  13.288
85408SOL    HW258064   0.245  13.898  13.244
85409SOL     OW58065   3.586  11.405   7.880
85409SOL    HW158066   3.602  11.314   7.854
85409SOL    HW258067   3.557  11.448   7.799
85410SOL     OW58068   9.039  10.300   8.267
85410SOL    HW158069   8.981  10.365   8.226
85410SOL    HW258070   9.094  10.268   8.195
85411SOL     OW58071  12.701  13.417  10.461
85411SOL    HW158072  12.640  13.360  10.507
85411SOL    HW258073  12.727  13.482  10.526
85412SOL     OW58074  12.105  13.586  10.757
85412SOL    HW158075  12.026  13.607  10.708
85412SOL    HW258076  12.075  13.570  10.846
85413SOL     OW58077   8.282   1.982   7.689
85413SOL    HW158078   8.194   1.951   7.710
85413SOL    HW258079   8.341   1.920   7.733
85414SOL     OW58080   2.269   1.004   6.640
85414SOL    HW158081   2.270   1.093   6.676
85414SOL    HW258082   2.229   0.950   6.709
85415SOL     OW58083   5.115   4.293   8.361
85415SOL    HW158084   5.140   4.379   8.329
85415SOL    HW258085   5.056   4.258   8.294
85416SOL     OW58086  14.603   2.658   3.711
85416SOL    HW158087  14.651   2.740   3.698
85416SOL    HW258088  14.521   2.670   3.663
85417SOL     OW58089   0.751  11.063   3.069
85417SOL    HW158090   0.843  11.063   3.098
85417SOL    HW258091   0.719  11.151   3.091
85418SOL     OW58092   5.664   0.751  11.232
85418SOL    HW158093   5.588   0.771  11.286
85418SOL    HW258094   5.737   0.750  11.294
85419SOL     OW58095  14.881  12.145   4.006
85419SOL    HW158096   0.011  12.051   4.017
85419SOL    HW258097   0.079  12.174   3.962
85420SOL     OW58098  11.106   2.573   0.667
85420SOL    HW158099  11.080   2.540   0.753
85420SOL    HW258100  11.024   2.586   0.620
85421SOL     OW58101   8.937  10.862   2.479
85421SOL    HW158102   8.967  10.894   2.394
85421SOL    HW258103   9.016  10.826   2.520
85422SOL     OW58104  13.587   4.837   6.862
85422SOL    HW158105  13.532   4.914   6.875
85422SOL    HW258106  13.583   4.790   6.946
85423SOL     OW58107   6.664   2.784   2.345
85423SOL    HW158108   6.628   2.823   2.266
85423SOL    HW258109   6.603   2.809   2.414
85424SOL     OW58110  14.144  13.700   8.987
85424SOL    HW158111  14.202  13.627   9.007
85424SOL    HW258112  14.059  13.674   9.022
85425SOL     OW58113   3.225   2.806   5.719
85425SOL    HW158114   3.235   2.858   5.798
85425SOL    HW258115   3.183   2.866   5.656
85426SOL     OW58116   0.152   1.002   8.124
85426SOL    HW158117   0.061   0.985   8.149
85426SOL    HW258118   0.185   0.916   8.096
85427SOL     OW58119   0.366   3.740   3.833
85427SOL    HW158120   0.391   3.678   3.901
85427SOL    HW258121   0.431   3.728   3.763
85428SOL     OW58122  10.730   7.980   3.814
85428SOL    HW158123  10.776   7.952   3.735
85428SOL    HW258124  10.790   7.961   3.886
85429SOL     OW58125   1.295   4.397   8.107
85429SOL    HW158126   1.306   4.302   8.107
85429SOL    HW258127   1.323   4.424   8.020
85430SOL     OW58128   6.727  12.519   7.193
85430SOL    HW158129   6.724  12.557   7.281
85430SOL    HW258130   6.820  12.505   7.176
85431SOL     OW58131  10.436  10.277  10.953
85431SOL    HW158132  10.355  10.326  10.939
85431SOL    HW258133  10.465  10.305  11.040
85432SOL     OW58134   2.179  11.704   4.283
85432SOL    HW158135   2.164  11.749   4.200
85432SOL    HW258136   2.274  11.701   4.292
85433SOL     OW58137   9.143  13.363  11.041
85433SOL    HW158138   9.141  13.408  11.125
85433SOL    HW258139   9.230  13.322  11.037
85434SOL     OW58140   1.947   7.183  11.597
85434SOL    HW158141   1.964   7.272  11.630
85434SOL    HW258142   1.896   7.141  11.666
85435SOL     OW58143   3.858  13.584   6.150
85435SOL    HW158144   3.837  13.596   6.243
85435SOL    HW258145   3.950  13.559   6.149
85436SOL     OW58146   2.623   8.960   4.038
85436SOL    HW158147   2.598   8.914   4.118
85436SOL    HW258148   2.562   9.033   4.031
85437SOL     OW58149   3.857  12.692   9.032
85437SOL    HW158150   3.890  12.685   8.943
85437SOL    HW258151   3.929  12.661   9.087
85438SOL     OW58152   7.382   5.724   7.844
85438SOL    HW158153   7.310   5.759   7.792
85438SOL    HW258154   7.457   5.779   7.822
85439SOL     OW58155   7.133   2.103   0.060
85439SOL    HW158156   7.097   2.021   0.024
85439SOL    HW258157   7.216   2.115   0.014
85440SOL     OW58158  10.075   7.927   1.166
85440SOL    HW158159  10.104   7.881   1.244
85440SOL    HW258160  10.155   7.944   1.116
85441SOL     OW58161   9.363  13.186  10.722
85441SOL    HW158162   9.403  13.106  10.755
85441SOL    HW258163   9.336  13.166  10.633
85442SOL     OW58164  10.590   6.890  12.546
85442SOL    HW158165  10.584   6.797  12.565
85442SOL    HW258166  10.499   6.918  12.533
85443SOL     OW58167   6.214   4.624  13.456
85443SOL    HW158168   6.129   4.630  13.500
85443SOL    HW258169   6.255   4.709  13.473
85444SOL     OW58170   2.783   1.601  12.774
85444SOL    HW158171   2.697   1.637  12.752
85444SOL    HW258172   2.838   1.623  12.699
85445SOL     OW58173   8.804  11.626   9.297
85445SOL    HW158174   8.898  11.640   9.284
85445SOL    HW258175   8.798  11.577   9.378
85446SOL     OW58176   3.786  10.279   5.274
85446SOL    HW158177   3.747  10.272   5.187
85446SOL    HW258178   3.878  10.253   5.261
85447SOL     OW58179  14.528  10.612   3.864
85447SOL    HW158180  14.596  10.585   3.801
85447SOL    HW258181  14.543  10.705   3.877
85448SOL     OW58182  11.904   6.618   4.166
85448SOL    HW158183  11.988   6.588   4.202
85448SOL    HW258184  11.925   6.647   4.077
85449SOL     OW58185   7.523  14.426  12.920
85449SOL    HW158186   7.476  14.493  12.969
85449SOL    HW258187   7.463  14.352  12.916
85450SOL     OW58188  10.665   5.090   4.487
85450SOL    HW158189  10.672   5.015   4.428
85450SOL    HW258190  10.572   5.111   4.490
85451SOL     OW58191  10.838   7.928   3.494
85451SOL    HW158192  10.865   8.020   3.488
85451SOL    HW258193  10.895   7.882   3.432
85452SOL     OW58194  13.804   0.429   9.627
85452SOL    HW158195  13.781   0.343   9.664
85452SOL    HW258196  13.786   0.491   9.698
85453SOL     OW58197   9.173   1.192  13.819
85453SOL    HW158198   9.173   1.134  13.895
85453SOL    HW258199   9.265   1.214  13.806
85454SOL     OW58200   2.133  12.274  10.588
85454SOL    HW158201   2.205  12.320  10.543
85454SOL    HW258202   2.124  12.192  10.540
85455SOL     OW58203   4.761   4.554   3.467
85455SOL    HW158204   4.681   4.510   3.439
85455SOL    HW258205   4.789   4.505   3.545
85456SOL     OW58206   6.914   8.753   7.763
85456SOL    HW158207   6.825   8.783   7.779
85456SOL    HW258208   6.904   8.670   7.717
85457SOL     OW58209   9.205   2.960  14.397
85457SOL    HW158210   9.111   2.947  14.392
85457SOL    HW258211   9.216   3.055  14.399
85458SOL     OW58212   8.725   1.446  12.452
85458SOL    HW158213   8.760   1.427  12.539
85458SOL    HW258214   8.799   1.485  12.405
85459SOL     OW58215   6.007  11.379  10.726
85459SOL    HW158216   6.082  11.434  10.745
85459SOL    HW258217   5.950  11.434  10.672
85460SOL     OW58218   8.207   3.365  11.626
85460SOL    HW158219   8.251   3.282  11.645
85460SOL    HW258220   8.275   3.432  11.636
85461SOL     OW58221   7.816   6.386   7.181
85461SOL    HW158222   7.775   6.434   7.253
85461SOL    HW258223   7.835   6.453   7.115
85462SOL     OW58224   8.205   0.962  10.967
85462SOL    HW158225   8.273   1.001  11.022
85462SOL    HW258226   8.127   0.962  11.022
85463SOL     OW58227  14.194   4.038  12.573
85463SOL    HW158228  14.161   4.013  12.487
85463SOL    HW258229  14.150   3.978  12.633
85464SOL     OW58230  13.384  10.424   9.754
85464SOL    HW158231  13.320  10.367   9.797
85464SOL    HW258232  13.342  10.448   9.671
85465SOL     OW58233   4.236  13.536  14.497
85465SOL    HW158234   4.247  13.455  14.546
85465SOL    HW258235   4.326  13.561  14.473
85466SOL     OW58236  10.710  14.284  13.389
85466SOL    HW158237  10.781  14.262  13.449
85466SOL    HW258238  10.631  14.275  13.442
85467SOL     OW58239  11.109  11.136   8.411
85467SOL    HW158240  11.199  11.168   8.416
85467SOL    HW258241  11.094  11.119   8.318
85468SOL     OW58242  14.667  11.854   5.518
85468SOL    HW158243  14.725  11.789   5.481
85468SOL    HW258244  14.579  11.827   5.491
85469SOL     OW58245   8.512  11.979   6.465
85469SOL    HW158246   8.530  11.943   6.378
85469SOL    HW258247   8.582  11.945   6.520
85470SOL     OW58248  11.622  10.307  13.431
85470SOL    HW158249  11.682  10.254  13.379
85470SOL    HW258250  11.626  10.394  13.391
85471SOL     OW58251   5.048  12.713   4.726
85471SOL    HW158252   5.071  12.783   4.788
85471SOL    HW258253   5.131  12.672   4.704
85472SOL     OW58254   5.154   6.749   1.491
85472SOL    HW158255   5.237   6.718   1.455
85472SOL    HW258256   5.152   6.715   1.581
85473SOL     OW58257   1.345   1.426   2.174
85473SOL    HW158258   1.408   1.480   2.126
85473SOL    HW258259   1.396   1.387   2.245
85474SOL     OW58260   0.655   8.582   7.506
85474SOL    HW158261   0.625   8.492   7.513
85474SOL    HW258262   0.576   8.635   7.518
85475SOL     OW58263   5.774  12.092  10.918
85475SOL    HW158264   5.861  12.131  10.924
85475SOL    HW258265   5.732  12.114  11.001
85476SOL     OW58266   8.385   1.560  11.970
85476SOL    HW158267   8.292   1.553  11.947
85476SOL    HW258268   8.406   1.479  12.015
85477SOL     OW58269   7.463   4.600   4.315
85477SOL    HW158270   7.414   4.553   4.247
85477SOL    HW258271   7.519   4.534   4.354
85478SOL     OW58272   7.481   6.428  12.876
85478SOL    HW158273   7.447   6.502  12.926
85478SOL    HW258274   7.572   6.451  12.859
85479SOL     OW58275  10.807  13.282   0.558
85479SOL    HW158276  10.763  13.364   0.579
85479SOL    HW258277  10.824  13.242   0.644
85480SOL     OW58278  12.517   9.073   8.288
85480SOL    HW158279  12.549   9.163   8.289
85480SOL    HW258280  12.595   9.020   8.274
85481SOL     OW58281  13.053  13.523   5.610
85481SOL    HW158282  13.063  13.521   5.515
85481SOL    HW258283  13.142  13.535   5.644
85482SOL     OW58284   8.700  12.359  10.876
85482SOL    HW158285   8.752  12.410  10.937
85482SOL    HW258286   8.663  12.288  10.929
85483SOL     OW58287  12.099  14.376   9.196
85483SOL    HW158288  12.178  14.331   9.226
85483SOL    HW258289  12.052  14.310   9.144
85484SOL     OW58290   9.295   3.745   3.775
85484SOL    HW158291   9.211   3.783   3.800
85484SOL    HW258292   9.341   3.732   3.858
85485SOL     OW58293   9.089  10.893  11.596
85485SOL    HW158294   9.089  10.983  11.565
85485SOL    HW258295   9.171  10.856  11.564
85486SOL     OW58296   6.212  13.216   9.668
85486SOL    HW158297   6.118  13.215   9.685
85486SOL    HW258298   6.247  13.285   9.725
85487SOL     OW58299  11.030   8.527  14.224
85487SOL    HW158300  11.024   8.567  14.137
85487SOL    HW258301  11.011   8.598  14.285
85488SOL     OW58302   1.798  11.806   9.798
85488SOL    HW158303   1.773  11.746   9.728
85488SOL    HW258304   1.715  11.835   9.836
85489SOL     OW58305   6.946  11.737  13.794
85489SOL    HW158306   6.884  11.665  13.811
85489SOL    HW258307   6.943  11.790  13.874
85490SOL     OW58308  11.782   3.118   4.271
85490SOL    HW158309  11.810   3.122   4.362
85490SOL    HW258310  11.842   3.056   4.230
85491SOL     OW58311  10.382   9.123   5.292
85491SOL    HW158312  10.455   9.182   5.270
85491SOL    HW258313  10.321   9.132   5.219
85492SOL     OW58314  13.864   3.375   6.005
85492SOL    HW158315  13.922   3.307   5.971
85492SOL    HW258316  13.923   3.439   6.046
85493SOL     OW58317   1.691   3.269   4.692
85493SOL    HW158318   1.656   3.289   4.779
85493SOL    HW258319   1.626   3.304   4.631
85494SOL     OW58320  13.694   3.714   4.823
85494SOL    HW158321  13.678   3.807   4.839
85494SOL    HW258322  13.654   3.670   4.897
85495SOL     OW58323  14.371   8.132  12.112
85495SOL    HW158324  14.353   8.050  12.065
85495SOL    HW258325  14.285   8.161  12.142
85496SOL     OW58326   8.292  12.589   4.242
85496SOL    HW158327   8.218  12.647   4.259
85496SOL    HW258328   8.369  12.647   4.244
85497SOL     OW58329   8.539   5.862   9.347
85497SOL    HW158330   8.488   5.783   9.370
85497SOL    HW258331   8.540   5.862   9.251
85498SOL     OW58332   3.639   9.910  11.661
85498SOL    HW158333   3.693   9.950  11.729
85498SOL    HW258334   3.576   9.977  11.637
85499SOL     OW58335   9.045  10.314   3.661
85499SOL    HW158336   8.991  10.286   3.735
85499SOL    HW258337   8.990  10.298   3.584
85500SOL     OW58338   9.776   1.719  13.115
85500SOL    HW158339   9.710   1.659  13.081
85500SOL    HW258340   9.755   1.803  13.075
85501SOL     OW58341   4.430   5.427   2.452
85501SOL    HW158342   4.522   5.455   2.458
85501SOL    HW258343   4.381   5.506   2.433
85502SOL     OW58344  12.056   9.793   5.467
85502SOL    HW158345  12.083   9.727   5.402
85502SOL    HW258346  12.110   9.869   5.448
85503SOL     OW58347   4.958   0.889   2.564
85503SOL    HW158348   4.985   0.913   2.652
85503SOL    HW258349   4.971   0.969   2.513
85504SOL     OW58350   4.257   6.200   8.731
85504SOL    HW158351   4.180   6.254   8.717
85504SOL    HW258352   4.300   6.240   8.807
85505SOL     OW58353  14.263   7.332   3.911
85505SOL    HW158354  14.229   7.245   3.891
85505SOL    HW258355  14.207   7.364   3.982
85506SOL     OW58356   5.249   9.899   0.011
85506SOL    HW158357   5.218   9.882  14.804
85506SOL    HW258358   5.181   9.863   0.068
85507SOL     OW58359   5.211   8.889   3.306
85507SOL    HW158360   5.242   8.862   3.392
85507SOL    HW258361   5.144   8.824   3.283
85508SOL     OW58362   2.387   4.143   1.508
85508SOL    HW158363   2.394   4.200   1.584
85508SOL    HW258364   2.302   4.100   1.519
85509SOL     OW58365   8.862  13.488  14.227
85509SOL    HW158366   8.866  13.581  14.206
85509SOL    HW258367   8.782  13.456  14.183
85510SOL     OW58368  14.420  10.257   8.391
85510SOL    HW158369  14.364  10.197   8.440
85510SOL    HW258370  14.458  10.203   8.321
85511SOL     OW58371   6.214   1.590   8.028
85511SOL    HW158372   6.278   1.560   7.964
85511SOL    HW258373   6.224   1.529   8.102
85512SOL     OW58374   1.461   8.408   6.513
85512SOL    HW158375   1.543   8.420   6.466
85512SOL    HW258376   1.436   8.317   6.496
85513SOL     OW58377   6.332  10.173   9.979
85513SOL    HW158378   6.255  10.185  10.035
85513SOL    HW258379   6.299  10.180   9.890
85514SOL     OW58380   2.318  13.362   1.181
85514SOL    HW158381   2.311  13.457   1.186
85514SOL    HW258382   2.290  13.332   1.267
85515SOL     OW58383   8.074  11.931   2.980
85515SOL    HW158384   8.073  11.870   2.905
85515SOL    HW258385   7.985  11.965   2.984
85516SOL     OW58386   5.696  12.915   7.273
85516SOL    HW158387   5.774  12.862   7.254
85516SOL    HW258388   5.692  12.920   7.368
85517SOL     OW58389   8.546   5.778   7.103
85517SOL    HW158390   8.599   5.699   7.111
85517SOL    HW258391   8.470   5.762   7.159
85518SOL     OW58392   8.246  14.293  14.032
85518SOL    HW158393   8.223  14.207  13.998
85518SOL    HW258394   8.304  14.275  14.106
85519SOL     OW58395  14.596   0.376   0.207
85519SOL    HW158396  14.605   0.301   0.148
85519SOL    HW258397  14.535   0.346   0.274
85520SOL     OW58398   6.836   4.961   9.497
85520SOL    HW158399   6.816   5.053   9.478
85520SOL    HW258400   6.931   4.957   9.499
85521SOL     OW58401   9.702   3.853   5.241
85521SOL    HW158402   9.607   3.843   5.246
85521SOL    HW258403   9.728   3.877   5.330
85522SOL     OW58404   0.568   2.559  12.738
85522SOL    HW158405   0.491   2.519  12.699
85522SOL    HW258406   0.549   2.653  12.738
85523SOL     OW58407   9.904   2.920   4.544
85523SOL    HW158408   9.891   2.991   4.481
85523SOL    HW258409   9.994   2.928   4.573
85524SOL     OW58410   6.834  13.566  11.606
85524SOL    HW158411   6.886  13.593  11.681
85524SOL    HW258412   6.899  13.556  11.535
85525SOL     OW58413   4.008   6.755  13.854
85525SOL    HW158414   4.009   6.850  13.857
85525SOL    HW258415   4.097   6.729  13.880
85526SOL     OW58416   5.140  10.434   6.554
85526SOL    HW158417   5.163  10.499   6.488
85526SOL    HW258418   5.048  10.450   6.573
85527SOL     OW58419  10.069  14.425   6.445
85527SOL    HW158420  10.127  14.366   6.397
85527SOL    HW258421  10.100  14.513   6.423
85528SOL     OW58422   9.006   1.892  12.295
85528SOL    HW158423   9.076   1.859  12.239
85528SOL    HW258424   8.926   1.865  12.251
85529SOL     OW58425   7.655  11.714   2.561
85529SOL    HW158426   7.571  11.757   2.545
85529SOL    HW258427   7.656  11.697   2.656
85530SOL     OW58428   9.570   2.777   0.534
85530SOL    HW158429   9.513   2.854   0.528
85530SOL    HW258430   9.584   2.765   0.628
85531SOL     OW58431   6.614   5.697   2.252
85531SOL    HW158432   6.536   5.687   2.307
85531SOL    HW258433   6.664   5.768   2.292
85532SOL     OW58434   6.861  13.543   4.530
85532SOL    HW158435   6.956  13.542   4.534
85532SOL    HW258436   6.834  13.463   4.575
85533SOL     OW58437   6.127  13.316  12.295
85533SOL    HW158438   6.068  13.391  12.308
85533SOL    HW258439   6.091  13.271  12.219
85534SOL     OW58440   1.570   5.584  13.428
85534SOL    HW158441   1.583   5.561  13.336
85534SOL    HW258442   1.655   5.618  13.456
85535SOL     OW58443   4.557  10.542   4.342
85535SOL    HW158444   4.561  10.512   4.433
85535SOL    HW258445   4.517  10.629   4.347
85536SOL     OW58446  10.429  11.553  10.690
85536SOL    HW158447  10.373  11.484  10.656
85536SOL    HW258448  10.386  11.581  10.771
85537SOL     OW58449   3.026  12.738  10.899
85537SOL    HW158450   3.049  12.823  10.862
85537SOL    HW258451   3.032  12.751  10.994
85538SOL     OW58452   0.438   2.673   1.335
85538SOL    HW158453   0.438   2.697   1.242
85538SOL    HW258454   0.353   2.631   1.349
85539SOL     OW58455  10.152   9.662  11.024
85539SOL    HW158456  10.083   9.711  10.980
85539SOL    HW258457  10.147   9.689  11.116
85540SOL     OW58458   8.227   3.257   8.290
85540SOL    HW158459   8.310   3.242   8.245
85540SOL    HW258460   8.241   3.336   8.341
85541SOL     OW58461   1.430  13.792  10.492
85541SOL    HW158462   1.432  13.825  10.582
85541SOL    HW258463   1.375  13.854  10.445
85542SOL     OW58464  14.114  10.982  13.428
85542SOL    HW158465  14.064  11.063  13.419
85542SOL    HW258466  14.132  10.955  13.338
85543SOL     OW58467  12.847  10.235   0.713
85543SOL    HW158468  12.889  10.264   0.632
85543SOL    HW258469  12.779  10.301   0.729
85544SOL     OW58470   7.365   8.237   6.528
85544SOL    HW158471   7.323   8.155   6.552
85544SOL    HW258472   7.355   8.242   6.433
85545SOL     OW58473   5.108   1.523  12.528
85545SOL    HW158474   5.028   1.535  12.478
85545SOL    HW258475   5.084   1.463  12.599
85546SOL     OW58476  11.698   2.892  12.754
85546SOL    HW158477  11.636   2.959  12.782
85546SOL    HW258478  11.740   2.929  12.676
85547SOL     OW58479   8.026   1.228   0.893
85547SOL    HW158480   8.058   1.273   0.970
85547SOL    HW258481   7.998   1.142   0.925
85548SOL     OW58482  12.656   4.902   6.794
85548SOL    HW158483  12.693   4.984   6.761
85548SOL    HW258484  12.718   4.873   6.860
85549SOL     OW58485  12.144   2.028  12.509
85549SOL    HW158486  12.069   1.976  12.538
85549SOL    HW258487  12.220   1.971  12.522
85550SOL     OW58488  11.294  14.568   4.245
85550SOL    HW158489  11.328  14.650   4.210
85550SOL    HW258490  11.199  14.575   4.237
85551SOL     OW58491   5.064  13.711   9.307
85551SOL    HW158492   5.028  13.636   9.260
85551SOL    HW258493   5.063  13.685   9.399
85552SOL     OW58494   5.973   4.469   1.383
85552SOL    HW158495   6.006   4.379   1.390
85552SOL    HW258496   6.028   4.510   1.317
85553SOL     OW58497  11.432   5.789   2.647
85553SOL    HW158498  11.394   5.785   2.560
85553SOL    HW258499  11.359   5.767   2.706
85554SOL     OW58500   3.956   8.641   2.584
85554SOL    HW158501   3.925   8.615   2.497
85554SOL    HW258502   3.962   8.737   2.579
85555SOL     OW58503   7.121   9.536   6.812
85555SOL    HW158504   7.066   9.492   6.877
85555SOL    HW258505   7.096   9.628   6.818
85556SOL     OW58506  11.788   7.315   3.391
85556SOL    HW158507  11.712   7.274   3.349
85556SOL    HW258508  11.796   7.270   3.475
85557SOL     OW58509  10.032   5.547   4.951
85557SOL    HW158510   9.986   5.562   4.868
85557SOL    HW258511   9.978   5.483   4.997
85558SOL     OW58512   9.441   7.600  11.170
85558SOL    HW158513   9.487   7.644  11.242
85558SOL    HW258514   9.452   7.506  11.188
85559SOL     OW58515   0.238   8.660   0.990
85559SOL    HW158516   0.212   8.739   1.037
85559SOL    HW258517   0.156   8.621   0.961
85560SOL     OW58518   6.054  14.024   3.695
85560SOL    HW158519   6.015  14.092   3.750
85560SOL    HW258520   5.993  13.951   3.701
85561SOL     OW58521   1.517   8.768   8.185
85561SOL    HW158522   1.600   8.815   8.187
85561SOL    HW258523   1.539   8.681   8.150
85562SOL     OW58524   8.771   7.865  12.622
85562SOL    HW158525   8.841   7.800  12.625
85562SOL    HW258526   8.708   7.830  12.559
85563SOL     OW58527  14.084  12.264   9.395
85563SOL    HW158528  14.096  12.322   9.320
85563SOL    HW258529  14.049  12.321   9.463
85564SOL     OW58530   6.511   8.385   0.440
85564SOL    HW158531   6.440   8.336   0.480
85564SOL    HW258532   6.561   8.420   0.514
85565SOL     OW58533  14.812   3.657   9.358
85565SOL    HW158534  14.772   3.572   9.341
85565SOL    HW258535  14.826   3.658   9.453
85566SOL     OW58536   5.085   1.128   4.095
85566SOL    HW158537   5.080   1.125   4.000
85566SOL    HW258538   5.097   1.221   4.116
85567SOL     OW58539  13.396  10.826  12.995
85567SOL    HW158540  13.304  10.846  12.978
85567SOL    HW258541  13.409  10.740  12.955
85568SOL     OW58542  13.861   6.803   8.818
85568SOL    HW158543  13.818   6.799   8.733
85568SOL    HW258544  13.955   6.796   8.798
85569SOL     OW58545   4.685   5.706  13.203
85569SOL    HW158546   4.610   5.759  13.226
85569SOL    HW258547   4.673   5.686  13.110
85570SOL     OW58548  12.014   5.332   8.793
85570SOL    HW158549  11.989   5.374   8.876
85570SOL    HW258550  12.056   5.250   8.819
85571SOL     OW58551   7.745  11.637   8.606
85571SOL    HW158552   7.838  11.658   8.615
85571SOL    HW258553   7.712  11.701   8.543
85572SOL     OW58554   9.486   5.342   0.148
85572SOL    HW158555   9.486   5.336   0.052
85572SOL    HW258556   9.570   5.383   0.170
85573SOL     OW58557   8.099  11.095   9.383
85573SOL    HW158558   8.094  11.155   9.309
85573SOL    HW258559   8.074  11.149   9.459
85574SOL     OW58560  10.315  10.794   7.949
85574SOL    HW158561  10.357  10.780   7.864
85574SOL    HW258562  10.319  10.709   7.993
85575SOL     OW58563  14.451  11.910   7.324
85575SOL    HW158564  14.451  11.995   7.280
85575SOL    HW258565  14.520  11.860   7.281
85576SOL     OW58566   1.235   9.372   4.030
85576SOL    HW158567   1.174   9.299   4.043
85576SOL    HW258568   1.305   9.336   3.976
85577SOL     OW58569   5.428   3.815   5.031
85577SOL    HW158570   5.523   3.821   5.033
85577SOL    HW258571   5.403   3.781   5.117
85578SOL     OW58572  11.305   9.317   5.310
85578SOL    HW158573  11.293   9.402   5.267
85578SOL    HW258574  11.258   9.255   5.254
85579SOL     OW58575   4.001   6.080   9.570
85579SOL    HW158576   3.918   6.109   9.532
85579SOL    HW258577   4.067   6.109   9.507
85580SOL     OW58578   4.078   4.352  11.894
85580SOL    HW158579   3.988   4.329  11.915
85580SOL    HW258580   4.113   4.275  11.849
85581SOL     OW58581  13.954   1.066   9.852
85581SOL    HW158582  13.991   1.043   9.938
85581SOL    HW258583  13.860   1.050   9.861
85582SOL     OW58584  13.591  12.602   8.637
85582SOL    HW158585  13.564  12.562   8.720
85582SOL    HW258586  13.644  12.534   8.595
85583SOL     OW58587   5.500   0.920   3.002
85583SOL    HW158588   5.582   0.969   3.000
85583SOL    HW258589   5.525   0.835   3.041
85584SOL     OW58590   8.764  12.248   6.010
85584SOL    HW158591   8.723  12.252   6.097
85584SOL    HW258592   8.753  12.157   5.984
85585SOL     OW58593   1.001   9.183  12.167
85585SOL    HW158594   0.953   9.248  12.218
85585SOL    HW258595   1.052   9.135  12.232
85586SOL     OW58596   8.164  10.039   5.392
85586SOL    HW158597   8.101  10.059   5.322
85586SOL    HW258598   8.238   9.999   5.347
85587SOL     OW58599   3.951  13.419  13.624
85587SOL    HW158600   3.956  13.498  13.678
85587SOL    HW258601   3.907  13.448  13.543
85588SOL     OW58602   3.459  12.392   7.773
85588SOL    HW158603   3.389  12.444   7.813
85588SOL    HW258604   3.443  12.303   7.803
85589SOL     OW58605  12.068  14.129  13.182
85589SOL    HW158606  12.128  14.054  13.176
85589SOL    HW258607  11.993  14.103  13.129
85590SOL     OW58608   7.181   8.398  14.568
85590SOL    HW158609   7.118   8.385  14.497
85590SOL    HW258610   7.196   8.493  14.569
85591SOL     OW58611   1.388   3.862  14.073
85591SOL    HW158612   1.413   3.949  14.103
85591SOL    HW258613   1.352   3.876  13.985
85592SOL     OW58614   9.060   4.689   2.216
85592SOL    HW158615   8.990   4.754   2.220
85592SOL    HW258616   9.024   4.618   2.162
85593SOL     OW58617   3.168   0.053  13.600
85593SOL    HW158618   3.077   0.047  13.627
85593SOL    HW258619   3.215   0.087  13.676
85594SOL     OW58620   8.484   2.827   3.921
85594SOL    HW158621   8.526   2.864   3.999
85594SOL    HW258622   8.393   2.812   3.947
85595SOL     OW58623  10.904   8.090  10.207
85595SOL    HW158624  10.831   8.029  10.204
85595SOL    HW258625  10.944   8.083  10.120
85596SOL     OW58626  12.058   8.428   6.995
85596SOL    HW158627  12.132   8.477   7.030
85596SOL    HW258628  12.021   8.486   6.928
85597SOL     OW58629   5.579   7.338  11.629
85597SOL    HW158630   5.610   7.392  11.702
85597SOL    HW258631   5.495   7.304  11.659
85598SOL     OW58632   5.221  12.338  12.044
85598SOL    HW158633   5.247  12.309  12.131
85598SOL    HW258634   5.268  12.280  11.983
85599SOL     OW58635   2.825   9.680   8.188
85599SOL    HW158636   2.780   9.610   8.237
85599SOL    HW258637   2.910   9.642   8.165
85600SOL     OW58638   6.509  10.608   8.434
85600SOL    HW158639   6.566  10.681   8.409
85600SOL    HW258640   6.565  10.550   8.486
85601SOL     OW58641   9.543  12.270  10.033
85601SOL    HW158642   9.568  12.360  10.013
85601SOL    HW258643   9.568  12.258  10.124
85602SOL     OW58644   3.946   3.872   9.280
85602SOL    HW158645   3.949   3.965   9.256
85602SOL    HW258646   3.960   3.871   9.375
85603SOL     OW58647   3.375  13.668   2.624
85603SOL    HW158648   3.407  13.748   2.582
85603SOL    HW258649   3.298  13.644   2.573
85604SOL     OW58650   8.930   3.537   9.682
85604SOL    HW158651   8.860   3.510   9.742
85604SOL    HW258652   8.969   3.614   9.723
85605SOL     OW58653  10.715   4.912   8.296
85605SOL    HW158654  10.637   4.891   8.349
85605SOL    HW258655  10.700   4.866   8.213
85606SOL     OW58656  13.747  10.269   2.574
85606SOL    HW158657  13.722  10.326   2.646
85606SOL    HW258658  13.813  10.210   2.610
85607SOL     OW58659  11.982   2.034  14.608
85607SOL    HW158660  12.034   2.011  14.685
85607SOL    HW258661  11.918   2.097  14.642
85608SOL     OW58662   9.103   7.896   2.342
85608SOL    HW158663   9.111   7.893   2.438
85608SOL    HW258664   9.187   7.863   2.311
85609SOL     OW58665   9.621   1.818   1.209
85609SOL    HW158666   9.589   1.876   1.140
85609SOL    HW258667   9.560   1.832   1.281
85610SOL     OW58668   3.224   6.240  12.449
85610SOL    HW158669   3.185   6.314  12.495
85610SOL    HW258670   3.314   6.236  12.480
85611SOL     OW58671   2.022  10.881   2.388
85611SOL    HW158672   1.978  10.938   2.325
85611SOL    HW258673   2.011  10.793   2.353
85612SOL     OW58674   8.403  10.936   9.838
85612SOL    HW158675   8.412  11.018   9.791
85612SOL    HW258676   8.417  10.868   9.772
85613SOL     OW58677   5.258  10.763   3.801
85613SOL    HW158678   5.328  10.699   3.813
85613SOL    HW258679   5.283  10.837   3.857
85614SOL     OW58680   9.956   0.275   9.126
85614SOL    HW158681   9.928   0.197   9.174
85614SOL    HW258682   9.921   0.348   9.176
85615SOL     OW58683  12.025   0.315  12.055
85615SOL    HW158684  11.991   0.386  12.001
85615SOL    HW258685  11.972   0.319  12.135
85616SOL     OW58686  10.617   9.964   6.271
85616SOL    HW158687  10.537   9.924   6.238
85616SOL    HW258688  10.663   9.993   6.193
85617SOL     OW58689   1.017   7.334   4.153
85617SOL    HW158690   1.017   7.239   4.146
85617SOL    HW258691   1.077   7.363   4.084
85618SOL     OW58692   5.930   7.813  13.853
85618SOL    HW158693   5.868   7.745  13.827
85618SOL    HW258694   6.011   7.791  13.807
85619SOL     OW58695   9.474  14.515   9.332
85619SOL    HW158696   9.469  14.420   9.318
85619SOL    HW258697   9.411  14.532   9.403
85620SOL     OW58698   5.535  13.419   9.068
85620SOL    HW158699   5.449  13.420   9.110
85620SOL    HW258700   5.515  13.419   8.974
85621SOL     OW58701   4.106   2.229   1.200
85621SOL    HW158702   4.094   2.314   1.244
85621SOL    HW258703   4.021   2.209   1.162
85622SOL     OW58704   6.468   9.114   4.095
85622SOL    HW158705   6.489   9.195   4.049
85622SOL    HW258706   6.534   9.052   4.063
85623SOL     OW58707   6.837  12.762   0.436
85623SOL    HW158708   6.841  12.666   0.428
85623SOL    HW258709   6.903  12.794   0.375
85624SOL     OW58710   7.609   6.964  10.617
85624SOL    HW158711   7.663   6.987  10.692
85624SOL    HW258712   7.659   6.992  10.541
85625SOL     OW58713  12.058  12.025   2.209
85625SOL    HW158714  11.987  11.998   2.266
85625SOL    HW258715  12.015  12.071   2.136
85626SOL     OW58716   5.127   5.077   1.043
85626SOL    HW158717   5.134   5.145   1.110
85626SOL    HW258718   5.186   5.008   1.072
85627SOL     OW58719   1.828   2.741   4.728
85627SOL    HW158720   1.793   2.825   4.757
85627SOL    HW258721   1.790   2.677   4.789
85628SOL     OW58722   8.170   0.901  12.713
85628SOL    HW158723   8.087   0.910  12.761
85628SOL    HW258724   8.161   0.820  12.665
85629SOL     OW58725   6.092  11.959  10.373
85629SOL    HW158726   6.013  11.937  10.323
85629SOL    HW258727   6.077  12.050  10.401
85630SOL     OW58728  10.635   6.813   4.392
85630SOL    HW158729  10.604   6.880   4.453
85630SOL    HW258730  10.600   6.731   4.428
85631SOL     OW58731  12.631   8.796  13.849
85631SOL    HW158732  12.679   8.866  13.893
85631SOL    HW258733  12.562   8.841  13.800
85632SOL     OW58734   1.685   4.355   8.749
85632SOL    HW158735   1.772   4.319   8.766
85632SOL    HW258736   1.627   4.279   8.748
85633SOL     OW58737   7.851  10.350  12.816
85633SOL    HW158738   7.895  10.433  12.832
85633SOL    HW258739   7.860  10.336  12.722
85634SOL     OW58740  12.324   8.468   8.861
85634SOL    HW158741  12.231   8.452   8.872
85634SOL    HW258742  12.329   8.528   8.786
85635SOL     OW58743   7.400  13.615   5.463
85635SOL    HW158744   7.438  13.595   5.549
85635SOL    HW258745   7.307  13.592   5.472
85636SOL     OW58746   5.343  14.761   2.812
85636SOL    HW158747   5.437  14.774   2.825
85636SOL    HW258748   5.332  14.757   2.717
85637SOL     OW58749   6.358   1.814   1.299
85637SOL    HW158750   6.316   1.885   1.250
85637SOL    HW258751   6.296   1.792   1.368
85638SOL     OW58752   1.651   2.280   1.658
85638SOL    HW158753   1.679   2.231   1.581
85638SOL    HW258754   1.568   2.240   1.683
85639SOL     OW58755   1.895   2.499   6.896
85639SOL    HW158756   1.897   2.553   6.975
85639SOL    HW258757   1.983   2.463   6.889
85640SOL     OW58758   3.779   3.484   7.798
85640SOL    HW158759   3.724   3.445   7.730
85640SOL    HW258760   3.852   3.525   7.749
85641SOL     OW58761   3.965   0.233  11.058
85641SOL    HW158762   3.951   0.200  11.147
85641SOL    HW258763   3.932   0.323  11.061
85642SOL     OW58764   2.215  13.646   9.971
85642SOL    HW158765   2.145  13.619  10.030
85642SOL    HW258766   2.216  13.578   9.903
85643SOL     OW58767   8.927   6.362   7.531
85643SOL    HW158768   8.848   6.405   7.496
85643SOL    HW258769   8.991   6.433   7.539
85644SOL     OW58770   6.914   7.747  13.101
85644SOL    HW158771   6.972   7.692  13.154
85644SOL    HW258772   6.849   7.686  13.065
85645SOL     OW58773  12.512   3.366  11.687
85645SOL    HW158774  12.512   3.459  11.709
85645SOL    HW258775  12.443   3.328  11.742
85646SOL     OW58776   9.219   3.317   6.085
85646SOL    HW158777   9.207   3.407   6.054
85646SOL    HW258778   9.192   3.262   6.011
85647SOL     OW58779   3.677   6.208  13.586
85647SOL    HW158780   3.619   6.284  13.580
85647SOL    HW258781   3.752   6.231  13.530
85648SOL     OW58782   7.479   7.544   0.501
85648SOL    HW158783   7.428   7.570   0.425
85648SOL    HW258784   7.537   7.618   0.518
85649SOL     OW58785   1.650   3.318  11.856
85649SOL    HW158786   1.712   3.278  11.794
85649SOL    HW258787   1.670   3.411  11.853
85650SOL     OW58788   2.696   5.013   9.214
85650SOL    HW158789   2.734   5.101   9.208
85650SOL    HW258790   2.606   5.024   9.181
85651SOL     OW58791  13.557   8.354   9.385
85651SOL    HW158792  13.580   8.440   9.348
85651SOL    HW258793  13.637   8.327   9.431
85652SOL     OW58794   5.748   4.590   1.849
85652SOL    HW158795   5.665   4.551   1.875
85652SOL    HW258796   5.783   4.530   1.783
85653SOL     OW58797  13.310   6.824   8.625
85653SOL    HW158798  13.320   6.894   8.689
85653SOL    HW258799  13.363   6.851   8.550
85654SOL     OW58800  14.663   6.695   3.224
85654SOL    HW158801  14.606   6.692   3.147
85654SOL    HW258802  14.629   6.769   3.275
85655SOL     OW58803   3.351   5.518   2.909
85655SOL    HW158804   3.379   5.470   2.831
85655SOL    HW258805   3.396   5.473   2.981
85656SOL     OW58806   3.675   5.046  13.888
85656SOL    HW158807   3.771   5.042  13.881
85656SOL    HW258808   3.646   5.067  13.800
85657SOL     OW58809   7.899  10.012  12.900
85657SOL    HW158810   7.971  10.069  12.928
85657SOL    HW258811   7.835  10.071  12.861
85658SOL     OW58812  11.695   1.800   6.125
85658SOL    HW158813  11.721   1.708   6.112
85658SOL    HW258814  11.600   1.800   6.113
85659SOL     OW58815   0.374   7.447  10.338
85659SOL    HW158816   0.451   7.455  10.395
85659SOL    HW258817   0.338   7.535  10.334
85660SOL     OW58818  14.501   4.694  10.508
85660SOL    HW158819  14.487   4.699  10.413
85660SOL    HW258820  14.481   4.783  10.539
85661SOL     OW58821   6.148  11.788  13.394
85661SOL    HW158822   6.221  11.812  13.337
85661SOL    HW258823   6.131  11.696  13.374
85662SOL     OW58824   8.123   8.716   4.902
85662SOL    HW158825   8.144   8.782   4.968
85662SOL    HW258826   8.137   8.761   4.818
85663SOL     OW58827  10.534   4.668   2.647
85663SOL    HW158828  10.552   4.701   2.735
85663SOL    HW258829  10.442   4.640   2.651
85664SOL     OW58830  12.231   4.889  13.890
85664SOL    HW158831  12.278   4.943  13.826
85664SOL    HW258832  12.224   4.944  13.968
85665SOL     OW58833  11.214   6.190   3.821
85665SOL    HW158834  11.271   6.265   3.803
85665SOL    HW258835  11.189   6.158   3.734
85666SOL     OW58836   7.041  13.152  10.537
85666SOL    HW158837   6.999  13.213  10.477
85666SOL    HW258838   7.065  13.077  10.483
85667SOL     OW58839   4.574   5.865  14.817
85667SOL    HW158840   4.636   5.807  14.860
85667SOL    HW258841   4.512   5.805  14.774
85668SOL     OW58842  12.837   1.982   6.929
85668SOL    HW158843  12.770   2.023   6.875
85668SOL    HW258844  12.820   1.888   6.921
85669SOL     OW58845   3.308   6.090   5.999
85669SOL    HW158846   3.342   6.087   6.089
85669SOL    HW258847   3.286   6.182   5.985
85670SOL     OW58848   3.641   2.128  11.129
85670SOL    HW158849   3.583   2.054  11.108
85670SOL    HW258850   3.724   2.086  11.152
85671SOL     OW58851   5.309   7.044   5.209
85671SOL    HW158852   5.290   7.035   5.303
85671SOL    HW258853   5.374   7.114   5.204
85672SOL     OW58854   7.244   0.050   2.939
85672SOL    HW158855   7.263  14.852   2.890
85672SOL    HW258856   7.228   0.116   2.872
85673SOL     OW58857   1.036  14.111  12.953
85673SOL    HW158858   1.034  14.197  12.912
85673SOL    HW258859   0.955  14.069  12.924
85674SOL     OW58860   8.331   0.836   4.197
85674SOL    HW158861   8.341   0.900   4.267
85674SOL    HW258862   8.419   0.826   4.161
85675SOL     OW58863   6.672   3.692  10.786
85675SOL    HW158864   6.669   3.723  10.876
85675SOL    HW258865   6.641   3.602  10.791
85676SOL     OW58866  13.578   0.545   3.829
85676SOL    HW158867  13.535   0.517   3.910
85676SOL    HW258868  13.628   0.622   3.854
85677SOL     OW58869  14.869   1.834  13.701
85677SOL    HW158870  14.816   1.867  13.628
85677SOL    HW258871  14.809   1.833  13.776
85678SOL     OW58872   5.991   9.026  13.937
85678SOL    HW158873   5.940   9.075  14.002
85678SOL    HW258874   6.068   9.080  13.922
85679SOL     OW58875   5.448   7.301   8.025
85679SOL    HW158876   5.398   7.288   8.106
85679SOL    HW258877   5.523   7.354   8.051
85680SOL     OW58878  11.620  13.801  12.191
85680SOL    HW158879  11.674  13.871  12.155
85680SOL    HW258880  11.663  13.779  12.274
85681SOL     OW58881  11.023   2.449  11.368
85681SOL    HW158882  10.964   2.437  11.442
85681SOL    HW258883  10.978   2.511  11.311
85682SOL     OW58884   7.422   2.448  12.429
85682SOL    HW158885   7.511   2.433  12.398
85682SOL    HW258886   7.383   2.508  12.365
85683SOL     OW58887  14.795  11.834   6.455
85683SOL    HW158888  14.726  11.887   6.415
85683SOL    HW258889  14.848  11.803   6.381
85684SOL     OW58890  12.241   7.545   9.497
85684SOL    HW158891  12.205   7.602   9.565
85684SOL    HW258892  12.325   7.584   9.474
85685SOL     OW58893   1.029   7.178   9.438
85685SOL    HW158894   1.025   7.268   9.404
85685SOL    HW258895   0.951   7.136   9.403
85686SOL     OW58896  10.432  12.426   9.045
85686SOL    HW158897  10.348  12.424   9.091
85686SOL    HW258898  10.409  12.407   8.954
85687SOL     OW58899  14.591  11.060   0.386
85687SOL    HW158900  14.559  11.010   0.311
85687SOL    HW258901  14.570  11.151   0.366
85688SOL     OW58902   8.850   5.998  11.639
85688SOL    HW158903   8.777   5.963  11.588
85688SOL    HW258904   8.899   5.921  11.667
85689SOL     OW58905   0.991   5.870  10.170
85689SOL    HW158906   0.944   5.901  10.092
85689SOL    HW258907   1.047   5.799  10.137
85690SOL     OW58908   8.557   6.960   1.509
85690SOL    HW158909   8.627   7.011   1.551
85690SOL    HW258910   8.481   6.973   1.565
85691SOL     OW58911   1.684   2.849   1.390
85691SOL    HW158912   1.771   2.869   1.425
85691SOL    HW258913   1.624   2.901   1.443
85692SOL     OW58914   3.808  10.790  10.570
85692SOL    HW158915   3.719  10.769  10.598
85692SOL    HW258916   3.852  10.705  10.564
85693SOL     OW58917  12.720  13.579   3.992
85693SOL    HW158918  12.648  13.613   4.044
85693SOL    HW258919  12.692  13.592   3.901
85694SOL     OW58920   5.714   9.453  13.981
85694SOL    HW158921   5.732   9.547  13.988
85694SOL    HW258922   5.623   9.448  13.949
85695SOL     OW58923   6.091   3.020   7.717
85695SOL    HW158924   6.143   2.984   7.788
85695SOL    HW258925   6.026   3.076   7.761
85696SOL     OW58926   8.144   4.786  12.811
85696SOL    HW158927   8.165   4.756  12.722
85696SOL    HW258928   8.050   4.772  12.819
85697SOL     OW58929   8.795  13.212  12.044
85697SOL    HW158930   8.712  13.258  12.029
85697SOL    HW258931   8.862  13.276  12.020
85698SOL     OW58932   2.359  13.211   3.960
85698SOL    HW158933   2.403  13.133   3.927
85698SOL    HW258934   2.310  13.181   4.037
85699SOL     OW58935   2.963  13.891   9.211
85699SOL    HW158936   2.880  13.916   9.170
85699SOL    HW258937   2.966  13.941   9.292
85700SOL     OW58938   2.669  12.994   3.764
85700SOL    HW158939   2.584  13.038   3.770
85700SOL    HW258940   2.715  13.041   3.694
85701SOL     OW58941   6.682  12.228   6.469
85701SOL    HW158942   6.744  12.218   6.397
85701SOL    HW258943   6.666  12.322   6.475
85702SOL     OW58944   9.928  12.846   5.456
85702SOL    HW158945   9.887  12.924   5.420
85702SOL    HW258946   9.908  12.777   5.392
85703SOL     OW58947   6.693   3.458   9.233
85703SOL    HW158948   6.643   3.462   9.151
85703SOL    HW258949   6.769   3.405   9.212
85704SOL     OW58950   3.425  12.931   2.036
85704SOL    HW158951   3.392  12.897   1.953
85704SOL    HW258952   3.498  12.874   2.058
85705SOL     OW58953  13.735   7.253  11.104
85705SOL    HW158954  13.648   7.223  11.078
85705SOL    HW258955  13.787   7.173  11.108
85706SOL     OW58956   0.504  10.998   6.394
85706SOL    HW158957   0.570  10.953   6.341
85706SOL    HW258958   0.441  10.930   6.417
85707SOL     OW58959   1.981   4.292   5.527
85707SOL    HW158960   2.037   4.339   5.465
85707SOL    HW258961   1.977   4.203   5.493
85708SOL     OW58962   1.754   0.786   9.265
85708SOL    HW158963   1.836   0.791   9.315
85708SOL    HW258964   1.765   0.848   9.194
85709SOL     OW58965   4.441   7.203   5.807
85709SOL    HW158966   4.394   7.120   5.803
85709SOL    HW258967   4.382   7.262   5.854
85710SOL     OW58968   7.647   1.633  11.831
85710SOL    HW158969   7.599   1.550  11.839
85710SOL    HW258970   7.643   1.653  11.737
85711SOL     OW58971   9.568   0.702  14.519
85711SOL    HW158972   9.647   0.647  14.521
85711SOL    HW258973   9.546   0.707  14.426
85712SOL     OW58974  13.634  10.984   4.735
85712SOL    HW158975  13.570  10.953   4.671
85712SOL    HW258976  13.587  10.980   4.819
85713SOL     OW58977   5.625   1.748   1.197
85713SOL    HW158978   5.685   1.821   1.181
85713SOL    HW258979   5.666   1.699   1.269
85714SOL     OW58980   9.161   6.541   5.307
85714SOL    HW158981   9.232   6.547   5.370
85714SOL    HW258982   9.169   6.620   5.253
85715SOL     OW58983  11.107   6.253   8.806
85715SOL    HW158984  11.169   6.183   8.827
85715SOL    HW258985  11.115   6.263   8.711
85716SOL     OW58986   7.461   1.314  10.912
85716SOL    HW158987   7.499   1.227  10.903
85716SOL    HW258988   7.533   1.369  10.942
85717SOL     OW58989  10.149   6.290   9.614
85717SOL    HW158990  10.205   6.216   9.637
85717SOL    HW258991  10.122   6.327   9.698
85718SOL     OW58992  14.571   1.840   4.641
85718SOL    HW158993  14.664   1.849   4.662
85718SOL    HW258994  14.563   1.752   4.606
85719SOL     OW58995   2.445  12.752   8.418
85719SOL    HW158996   2.387  12.723   8.488
85719SOL    HW258997   2.432  12.688   8.348
85720SOL     OW58998  11.792   3.354   3.797
85720SOL    HW158999  11.698   3.356   3.812
85720SOL    HW259000  11.811   3.437   3.754
85721SOL     OW59001   4.926   1.398   0.981
85721SOL    HW159002   5.013   1.407   1.021
85721SOL    HW259003   4.912   1.481   0.936
85722SOL     OW59004   0.494   1.153   5.672
85722SOL    HW159005   0.427   1.099   5.713
85722SOL    HW259006   0.491   1.236   5.720
85723SOL     OW59007  14.052   7.183  11.351
85723SOL    HW159008  14.040   7.104  11.298
85723SOL    HW259009  14.049   7.152  11.442
85724SOL     OW59010  13.238   2.420   9.042
85724SOL    HW159011  13.242   2.409   9.137
85724SOL    HW259012  13.300   2.356   9.008
85725SOL     OW59013  14.418  11.801   3.512
85725SOL    HW159014  14.502  11.837   3.540
85725SOL    HW259015  14.374  11.777   3.594
85726SOL     OW59016   5.174   3.951   9.360
85726SOL    HW159017   5.085   3.917   9.347
85726SOL    HW259018   5.223   3.915   9.286
85727SOL     OW59019  10.510  11.790   8.654
85727SOL    HW159020  10.453  11.864   8.677
85727SOL    HW259021  10.525  11.745   8.737
85728SOL     OW59022   4.661   3.150   3.773
85728SOL    HW159023   4.724   3.183   3.837
85728SOL    HW259024   4.577   3.154   3.818
85729SOL     OW59025   7.758   2.369   9.545
85729SOL    HW159026   7.789   2.349   9.457
85729SOL    HW259027   7.798   2.302   9.600
85730SOL     OW59028  12.620   8.933   2.973
85730SOL    HW159029  12.669   9.012   2.952
85730SOL    HW259030  12.575   8.953   3.055
85731SOL     OW59031   2.467   7.659   8.201
85731SOL    HW159032   2.544   7.674   8.146
85731SOL    HW259033   2.418   7.591   8.155
85732SOL     OW59034   4.614   2.228   9.529
85732SOL    HW159035   4.534   2.178   9.545
85732SOL    HW259036   4.620   2.287   9.604
85733SOL     OW59037   3.677  11.635  10.458
85733SOL    HW159038   3.702  11.699  10.524
85733SOL    HW259039   3.583  11.622  10.472
85734SOL     OW59040   7.229   1.165  11.918
85734SOL    HW159041   7.237   1.258  11.897
85734SOL    HW259042   7.249   1.160  12.011
85735SOL     OW59043   1.647  10.470   8.919
85735SOL    HW159044   1.642  10.379   8.888
85735SOL    HW259045   1.679  10.519   8.843
85736SOL     OW59046   5.093  14.314   7.373
85736SOL    HW159047   5.178  14.321   7.417
85736SOL    HW259048   5.071  14.221   7.379
85737SOL     OW59049   6.999  10.948   2.678
85737SOL    HW159050   6.951  11.030   2.668
85737SOL    HW259051   6.992  10.906   2.592
85738SOL     OW59052  11.361   0.177   4.859
85738SOL    HW159053  11.449   0.189   4.895
85738SOL    HW259054  11.372   0.192   4.765
85739SOL     OW59055   8.120  10.129  11.032
85739SOL    HW159056   8.180  10.137  11.106
85739SOL    HW259057   8.173  10.151  10.956
85740SOL     OW59058   2.186   2.541   5.204
85740SOL    HW159059   2.206   2.591   5.284
85740SOL    HW259060   2.160   2.608   5.140
85741SOL     OW59061   5.695  12.904  11.010
85741SOL    HW159062   5.787  12.925  11.026
85741SOL    HW259063   5.693  12.809  10.999
85742SOL     OW59064   9.229  10.015   5.457
85742SOL    HW159065   9.274   9.938   5.423
85742SOL    HW259066   9.186   9.984   5.537
85743SOL     OW59067  11.689   8.435   7.737
85743SOL    HW159068  11.726   8.506   7.790
85743SOL    HW259069  11.628   8.391   7.795
85744SOL     OW59070   6.126   8.157  11.060
85744SOL    HW159071   6.074   8.078  11.075
85744SOL    HW259072   6.133   8.198  11.146
85745SOL     OW59073   0.019   3.182   4.710
85745SOL    HW159074   0.004   3.276   4.701
85745SOL    HW259075  14.871   3.161   4.799
85746SOL     OW59076   6.499  14.553   2.016
85746SOL    HW159077   6.454  14.468   2.011
85746SOL    HW259078   6.592  14.531   2.016
85747SOL     OW59079   5.459   5.871   3.488
85747SOL    HW159080   5.482   5.882   3.580
85747SOL    HW259081   5.465   5.959   3.451
85748SOL     OW59082   2.563   0.451   0.322
85748SOL    HW159083   2.583   0.358   0.331
85748SOL    HW259084   2.565   0.485   0.411
85749SOL     OW59085   3.115   4.595   7.470
85749SOL    HW159086   3.145   4.612   7.559
85749SOL    HW259087   3.149   4.669   7.419
85750SOL     OW59088   8.635  12.630  11.065
85750SOL    HW159089   8.564  12.568  11.075
85750SOL    HW259090   8.605  12.691  10.998
85751SOL     OW59091   2.459   5.726  10.195
85751SOL    HW159092   2.414   5.642  10.189
85751SOL    HW259093   2.539   5.708  10.243
85752SOL     OW59094   5.260   1.085   4.978
85752SOL    HW159095   5.195   1.020   5.007
85752SOL    HW259096   5.323   1.034   4.928
85753SOL     OW59097   4.471   8.486  11.156
85753SOL    HW159098   4.445   8.572  11.188
85753SOL    HW259099   4.390   8.446  11.126
85754SOL     OW59100   8.864   0.749   2.303
85754SOL    HW159101   8.841   0.747   2.396
85754SOL    HW259102   8.932   0.683   2.293
85755SOL     OW59103   5.712   7.284   8.524
85755SOL    HW159104   5.644   7.348   8.502
85755SOL    HW259105   5.667   7.200   8.523
85756SOL     OW59106   2.750  13.372   5.346
85756SOL    HW159107   2.772  13.403   5.434
85756SOL    HW259108   2.815  13.413   5.289
85757SOL     OW59109   2.574  12.739   6.979
85757SOL    HW159110   2.643  12.793   6.940
85757SOL    HW259111   2.540  12.792   7.051
85758SOL     OW59112   6.756   8.602   9.733
85758SOL    HW159113   6.816   8.591   9.807
85758SOL    HW259114   6.804   8.571   9.657
85759SOL     OW59115   7.181  13.270   1.999
85759SOL    HW159116   7.245  13.258   2.070
85759SOL    HW259117   7.224  13.331   1.939
85760SOL     OW59118  11.679   7.503  14.830
85760SOL    HW159119  11.592   7.542  14.837
85760SOL    HW259120  11.703   7.512  14.738
85761SOL     OW59121  14.435   4.505   0.951
85761SOL    HW159122  14.444   4.529   0.859
85761SOL    HW259123  14.504   4.441   0.966
85762SOL     OW59124   6.432  12.855   2.334
85762SOL    HW159125   6.404  12.818   2.418
85762SOL    HW259126   6.351  12.887   2.294
85763SOL     OW59127   0.720  14.682   3.108
85763SOL    HW159128   0.662  14.610   3.084
85763SOL    HW259129   0.808  14.645   3.102
85764SOL     OW59130   5.233   7.899   1.922
85764SOL    HW159131   5.223   7.866   2.011
85764SOL    HW259132   5.153   7.948   1.905
85765SOL     OW59133   8.262   2.497   4.289
85765SOL    HW159134   8.246   2.474   4.380
85765SOL    HW259135   8.193   2.560   4.267
85766SOL     OW59136  13.887   2.649  14.049
85766SOL    HW159137  13.895   2.642  13.954
85766SOL    HW259138  13.809   2.702  14.063
85767SOL     OW59139  12.781   8.722   1.817
85767SOL    HW159140  12.846   8.780   1.856
85767SOL    HW259141  12.831   8.647   1.786
85768SOL     OW59142  11.603   0.460  12.916
85768SOL    HW159143  11.669   0.522  12.885
85768SOL    HW259144  11.546   0.511  12.973
85769SOL     OW59145  10.087   0.280  13.634
85769SOL    HW159146  10.035   0.359  13.649
85769SOL    HW259147  10.120   0.257  13.721
85770SOL     OW59148  13.706   9.280  14.522
85770SOL    HW159149  13.710   9.272  14.427
85770SOL    HW259150  13.782   9.334  14.545
85771SOL     OW59151   8.859   9.299   3.163
85771SOL    HW159152   8.815   9.226   3.206
85771SOL    HW259153   8.952   9.276   3.166
85772SOL     OW59154   3.544   7.991  12.296
85772SOL    HW159155   3.639   7.980  12.292
85772SOL    HW259156   3.510   7.924  12.236
85773SOL     OW59157  14.761  12.627   8.071
85773SOL    HW159158  14.808  12.669   7.999
85773SOL    HW259159  14.675  12.606   8.034
85774SOL     OW59160   0.341   8.241   8.474
85774SOL    HW159161   0.275   8.173   8.485
85774SOL    HW259162   0.406   8.203   8.416
85775SOL     OW59163  10.628   9.698   0.028
85775SOL    HW159164  10.652   9.623   0.081
85775SOL    HW259165  10.602   9.661  14.825
85776SOL     OW59166  11.831   0.863   3.488
85776SOL    HW159167  11.856   0.872   3.397
85776SOL    HW259168  11.905   0.898   3.537
85777SOL     OW59169   7.616   8.296   2.812
85777SOL    HW159170   7.576   8.382   2.798
85777SOL    HW259171   7.570   8.261   2.889
85778SOL     OW59172   3.154   5.584   3.371
85778SOL    HW159173   3.126   5.535   3.448
85778SOL    HW259174   3.213   5.525   3.325
85779SOL     OW59175  11.216  11.364  14.407
85779SOL    HW159176  11.251  11.441  14.362
85779SOL    HW259177  11.290  11.330  14.457
85780SOL     OW59178  12.642   4.164   8.297
85780SOL    HW159179  12.714   4.131   8.351
85780SOL    HW259180  12.618   4.091   8.241
85781SOL     OW59181   0.880   2.783   8.416
85781SOL    HW159182   0.891   2.870   8.379
85781SOL    HW259183   0.968   2.758   8.446
85782SOL     OW59184   5.441   9.736  12.598
85782SOL    HW159185   5.369   9.796  12.577
85782SOL    HW259186   5.472   9.706  12.513
85783SOL     OW59187   9.729   4.159   7.995
85783SOL    HW159188   9.765   4.218   7.929
85783SOL    HW259189   9.798   4.154   8.061
85784SOL     OW59190   3.353  12.608   3.858
85784SOL    HW159191   3.273  12.658   3.872
85784SOL    HW259192   3.333  12.520   3.891
85785SOL     OW59193   4.719   7.614   6.321
85785SOL    HW159194   4.646   7.636   6.379
85785SOL    HW259195   4.763   7.697   6.304
85786SOL     OW59196   1.581   7.880   8.021
85786SOL    HW159197   1.563   7.858   8.112
85786SOL    HW259198   1.606   7.796   7.981
85787SOL     OW59199   8.067  10.469   4.606
85787SOL    HW159200   8.156  10.504   4.605
85787SOL    HW259201   8.071  10.398   4.671
85788SOL     OW59202   2.669   2.016   7.234
85788SOL    HW159203   2.577   2.029   7.211
85788SOL    HW259204   2.683   1.922   7.223
85789SOL     OW59205  10.757   4.755   7.016
85789SOL    HW159206  10.818   4.715   6.954
85789SOL    HW259207  10.696   4.804   6.961
85790SOL     OW59208  11.501   4.388   9.546
85790SOL    HW159209  11.498   4.364   9.639
85790SOL    HW259210  11.591   4.420   9.533
85791SOL     OW59211  14.498   7.739   7.648
85791SOL    HW159212  14.530   7.763   7.561
85791SOL    HW259213  14.521   7.813   7.703
85792SOL     OW59214   3.699   9.672   9.497
85792SOL    HW159215   3.675   9.581   9.480
85792SOL    HW259216   3.794   9.675   9.487
85793SOL     OW59217   0.549   5.364   6.555
85793SOL    HW159218   0.570   5.457   6.558
85793SOL    HW259219   0.633   5.320   6.538
85794SOL     OW59220  12.661   6.305   3.994
85794SOL    HW159221  12.720   6.294   4.069
85794SOL    HW259222  12.659   6.399   3.978
85795SOL     OW59223   4.960  13.172   8.770
85795SOL    HW159224   5.005  13.142   8.692
85795SOL    HW259225   5.023  13.228   8.815
85796SOL     OW59226   7.958  14.238   2.610
85796SOL    HW159227   7.912  14.172   2.663
85796SOL    HW259228   8.040  14.195   2.586
85797SOL     OW59229   7.005   5.421   6.847
85797SOL    HW159230   7.020   5.475   6.924
85797SOL    HW259231   7.093   5.407   6.810
85798SOL     OW59232  10.004   2.864   1.795
85798SOL    HW159233   9.982   2.771   1.788
85798SOL    HW259234  10.079   2.866   1.854
85799SOL     OW59235   8.509   2.938   0.591
85799SOL    HW159236   8.594   2.899   0.572
85799SOL    HW259237   8.446   2.885   0.542
85800SOL     OW59238  11.252  14.266   0.663
85800SOL    HW159239  11.311  14.224   0.600
85800SOL    HW259240  11.230  14.198   0.725
85801SOL     OW59241   4.146  13.103  12.213
85801SOL    HW159242   4.068  13.076  12.164
85801SOL    HW259243   4.153  13.197  12.196
85802SOL     OW59244   2.979   4.983   0.777
85802SOL    HW159245   2.941   4.913   0.830
85802SOL    HW259246   3.065   4.950   0.751
85803SOL     OW59247   5.644   4.250  11.798
85803SOL    HW159248   5.691   4.292  11.870
85803SOL    HW259249   5.557   4.291  11.799
85804SOL     OW59250   3.983  10.179   4.971
85804SOL    HW159251   3.888  10.187   4.969
85804SOL    HW259252   4.015  10.268   4.985
85805SOL     OW59253   0.974  13.217   8.965
85805SOL    HW159254   1.062  13.227   9.002
85805SOL    HW259255   0.968  13.124   8.944
85806SOL     OW59256   9.277   2.252   6.403
85806SOL    HW159257   9.239   2.200   6.473
85806SOL    HW259258   9.280   2.341   6.438
85807SOL     OW59259   0.956  12.140   0.285
85807SOL    HW159260   0.938  12.155   0.192
85807SOL    HW259261   1.033  12.083   0.285
85808SOL     OW59262   1.761   9.990   9.962
85808SOL    HW159263   1.697   9.942   9.909
85808SOL    HW259264   1.843   9.940   9.951
85809SOL     OW59265  11.104   8.790  10.835
85809SOL    HW159266  11.139   8.837  10.911
85809SOL    HW259267  11.078   8.705  10.870
85810SOL     OW59268  12.549   5.088   8.227
85810SOL    HW159269  12.577   5.158   8.287
85810SOL    HW259270  12.575   5.118   8.140
85811SOL     OW59271   9.244  10.332   0.589
85811SOL    HW159272   9.155  10.338   0.552
85811SOL    HW259273   9.301  10.345   0.513
85812SOL     OW59274  11.900   2.976   6.916
85812SOL    HW159275  11.845   2.901   6.937
85812SOL    HW259276  11.879   3.041   6.984
85813SOL     OW59277   9.233   0.081   0.376
85813SOL    HW159278   9.140   0.073   0.355
85813SOL    HW259279   9.277   0.027   0.310
85814SOL     OW59280   2.135  10.452  14.862
85814SOL    HW159281   2.191  10.483   0.051
85814SOL    HW259282   2.046  10.471   0.009
85815SOL     OW59283   0.523  12.671   3.034
85815SOL    HW159284   0.440  12.697   3.073
85815SOL    HW259285   0.538  12.733   2.963
85816SOL     OW59286   9.619   6.457   4.026
85816SOL    HW159287   9.636   6.484   3.935
85816SOL    HW259288   9.597   6.538   4.071
85817SOL     OW59289   7.549   2.606   7.287
85817SOL    HW159290   7.556   2.692   7.328
85817SOL    HW259291   7.485   2.617   7.217
85818SOL     OW59292   2.516  11.111   8.173
85818SOL    HW159293   2.529  11.062   8.092
85818SOL    HW259294   2.601  11.107   8.217
85819SOL     OW59295   3.717   9.054   8.034
85819SOL    HW159296   3.716   9.107   8.113
85819SOL    HW259297   3.627   9.023   8.024
85820SOL     OW59298   6.026   3.534  10.898
85820SOL    HW159299   5.947   3.508  10.946
85820SOL    HW259300   6.027   3.630  10.905
85821SOL     OW59301   4.643   3.411   8.253
85821SOL    HW159302   4.684   3.411   8.167
85821SOL    HW259303   4.577   3.481   8.248
85822SOL     OW59304   2.763   9.514  14.217
85822SOL    HW159305   2.824   9.485  14.150
85822SOL    HW259306   2.772   9.450  14.288
85823SOL     OW59307  10.738  12.680   0.866
85823SOL    HW159308  10.677  12.753   0.856
85823SOL    HW259309  10.699  12.608   0.817
85824SOL     OW59310   8.950  12.947   2.020
85824SOL    HW159311   8.925  12.940   2.112
85824SOL    HW259312   9.044  12.928   2.019
85825SOL     OW59313   7.623  13.000   6.633
85825SOL    HW159314   7.710  12.982   6.670
85825SOL    HW259315   7.595  13.080   6.677
85826SOL     OW59316   1.712   4.713  11.064
85826SOL    HW159317   1.668   4.668  11.136
85826SOL    HW259318   1.642   4.731  11.001
85827SOL     OW59319   3.597   0.473   5.898
85827SOL    HW159320   3.512   0.517   5.888
85827SOL    HW259321   3.616   0.439   5.810
85828SOL     OW59322   8.751  11.172  14.824
85828SOL    HW159323   8.792  11.196   0.026
85828SOL    HW259324   8.824  11.173  14.761
85829SOL     OW59325   8.357   6.340   1.491
85829SOL    HW159326   8.427   6.297   1.441
85829SOL    HW259327   8.281   6.335   1.433
85830SOL     OW59328   9.590  12.258   1.342
85830SOL    HW159329   9.545  12.223   1.264
85830SOL    HW259330   9.601  12.351   1.323
85831SOL     OW59331   7.393  13.550   5.996
85831SOL    HW159332   7.366  13.618   6.057
85831SOL    HW259333   7.488  13.551   6.000
85832SOL     OW59334   3.339   9.035   1.932
85832SOL    HW159335   3.318   9.126   1.910
85832SOL    HW259336   3.263   9.004   1.980
85833SOL     OW59337   8.984   5.408  11.817
85833SOL    HW159338   9.075   5.436  11.831
85833SOL    HW259339   8.933   5.462  11.878
85834SOL     OW59340   5.366   1.171   5.747
85834SOL    HW159341   5.385   1.242   5.686
85834SOL    HW259342   5.315   1.109   5.696
85835SOL     OW59343   5.201   5.216   9.162
85835SOL    HW159344   5.113   5.182   9.147
85835SOL    HW259345   5.223   5.262   9.081
85836SOL     OW59346   4.211   7.007  13.579
85836SOL    HW159347   4.233   7.096  13.552
85836SOL    HW259348   4.152   7.018  13.654
85837SOL     OW59349   3.815   9.377  14.619
85837SOL    HW159350   3.830   9.317  14.692
85837SOL    HW259351   3.855   9.334  14.543
85838SOL     OW59352  10.593  12.963  13.366
85838SOL    HW159353  10.658  12.984  13.433
85838SOL    HW259354  10.513  13.006  13.396
85839SOL     OW59355   0.080   2.839  11.257
85839SOL    HW159356   0.012   2.905  11.243
85839SOL    HW259357   0.077   2.785  11.178
85840SOL     OW59358   4.655  11.971   6.207
85840SOL    HW159359   4.601  12.009   6.138
85840SOL    HW259360   4.619  12.008   6.288
85841SOL     OW59361  10.865   3.304   4.619
85841SOL    HW159362  10.836   3.390   4.587
85841SOL    HW259363  10.899   3.322   4.706
85842SOL     OW59364   6.261  11.366   8.099
85842SOL    HW159365   6.261  11.447   8.049
85842SOL    HW259366   6.220  11.389   8.182
85843SOL     OW59367  13.006   9.448   1.968
85843SOL    HW159368  13.096   9.479   1.969
85843SOL    HW259369  12.976   9.465   1.878
85844SOL     OW59370   1.093  12.784  12.910
85844SOL    HW159371   1.164  12.730  12.876
85844SOL    HW259372   1.038  12.804  12.834
85845SOL     OW59373  12.273   6.094   2.720
85845SOL    HW159374  12.231   6.030   2.777
85845SOL    HW259375  12.248   6.179   2.758
85846SOL     OW59376   7.606   7.735   5.423
85846SOL    HW159377   7.627   7.698   5.337
85846SOL    HW259378   7.670   7.804   5.436
85847SOL     OW59379   2.151   9.103   6.072
85847SOL    HW159380   2.131   9.139   6.158
85847SOL    HW259381   2.231   9.150   6.045
85848SOL     OW59382   3.175   1.041  10.984
85848SOL    HW159383   3.124   0.981  11.039
85848SOL    HW259384   3.265   1.009  10.991
85849SOL     OW59385   7.203   2.744   2.153
85849SOL    HW159386   7.218   2.764   2.061
85849SOL    HW259387   7.180   2.828   2.193
85850SOL     OW59388   8.237   6.446   5.041
85850SOL    HW159389   8.150   6.412   5.060
85850SOL    HW259390   8.223   6.537   5.015
85851SOL     OW59391  12.348   9.576   9.846
85851SOL    HW159392  12.428   9.525   9.841
85851SOL    HW259393  12.345   9.606   9.937
85852SOL     OW59394   4.799   7.352  11.879
85852SOL    HW159395   4.736   7.401  11.824
85852SOL    HW259396   4.859   7.419  11.911
85853SOL     OW59397   0.979   0.721   1.121
85853SOL    HW159398   0.941   0.680   1.044
85853SOL    HW259399   1.008   0.648   1.176
85854SOL     OW59400  13.178   8.245   8.310
85854SOL    HW159401  13.085   8.261   8.299
85854SOL    HW259402  13.199   8.179   8.243
85855SOL     OW59403   1.007   8.665  10.988
85855SOL    HW159404   1.085   8.658  10.932
85855SOL    HW259405   1.008   8.584  11.039
85856SOL     OW59406   1.546   4.777  10.863
85856SOL    HW159407   1.564   4.755  10.771
85856SOL    HW259408   1.531   4.872  10.862
85857SOL     OW59409   2.098  12.289  13.615
85857SOL    HW159410   2.179  12.320  13.575
85857SOL    HW259411   2.060  12.230  13.550
85858SOL     OW59412   2.631  12.571   0.521
85858SOL    HW159413   2.624  12.605   0.432
85858SOL    HW259414   2.543  12.539   0.541
85859SOL     OW59415   9.582   4.202   9.610
85859SOL    HW159416   9.529   4.240   9.540
85859SOL    HW259417   9.665   4.180   9.568
85860SOL     OW59418   4.923  14.300   8.405
85860SOL    HW159419   4.890  14.255   8.483
85860SOL    HW259420   5.011  14.266   8.393
85861SOL     OW59421   0.883  12.918   0.080
85861SOL    HW159422   0.827  12.986   0.041
85861SOL    HW259423   0.922  12.961   0.157
85862SOL     OW59424  11.743   8.162  12.307
85862SOL    HW159425  11.717   8.237  12.361
85862SOL    HW259426  11.837   8.153  12.324
85863SOL     OW59427   0.417  13.587  13.685
85863SOL    HW159428   0.450  13.672  13.712
85863SOL    HW259429   0.322  13.592  13.698
85864SOL     OW59430   7.231  10.662   5.816
85864SOL    HW159431   7.293  10.671   5.888
85864SOL    HW259432   7.271  10.598   5.758
85865SOL     OW59433   7.042   5.311  13.390
85865SOL    HW159434   7.121   5.352  13.355
85865SOL    HW259435   7.024   5.238  13.330
85866SOL     OW59436   1.318  12.559   1.080
85866SOL    HW159437   1.371  12.589   1.006
85866SOL    HW259438   1.378  12.565   1.155
85867SOL     OW59439   3.772  13.672   3.964
85867SOL    HW159440   3.742  13.726   3.891
85867SOL    HW259441   3.771  13.583   3.930
85868SOL     OW59442   9.829   0.979  10.303
85868SOL    HW159443   9.743   1.020  10.308
85868SOL    HW259444   9.820   0.898  10.354
85869SOL     OW59445   4.655  14.127  11.865
85869SOL    HW159446   4.666  14.032  11.865
85869SOL    HW259447   4.738  14.161  11.900
85870SOL     OW59448  10.320  10.424   0.469
85870SOL    HW159449  10.244  10.475   0.497
85870SOL    HW259450  10.394  10.463   0.514
85871SOL     OW59451   9.663   8.885  13.673
85871SOL    HW159452   9.567   8.882  13.675
85871SOL    HW259453   9.684   8.928  13.590
85872SOL     OW59454  12.409  13.241   2.802
85872SOL    HW159455  12.451  13.160   2.774
85872SOL    HW259456  12.398  13.231   2.896
85873SOL     OW59457   2.188  13.127   7.672
85873SOL    HW159458   2.153  13.197   7.617
85873SOL    HW259459   2.209  13.057   7.610
85874SOL     OW59460  10.099  10.095  12.656
85874SOL    HW159461  10.008  10.077  12.635
85874SOL    HW259462  10.097  10.123  12.748
85875SOL     OW59463   4.412   8.365  12.893
85875SOL    HW159464   4.506   8.353  12.907
85875SOL    HW259465   4.388   8.296  12.831
85876SOL     OW59466  11.401  14.294   4.667
85876SOL    HW159467  11.494  14.287   4.691
85876SOL    HW259468  11.355  14.291   4.750
85877SOL     OW59469   7.409   9.049   2.822
85877SOL    HW159470   7.425   9.109   2.894
85877SOL    HW259471   7.321   9.070   2.792
85878SOL     OW59472   9.101   2.045   1.964
85878SOL    HW159473   9.092   2.000   1.880
85878SOL    HW259474   9.061   2.130   1.950
85879SOL     OW59475   8.624  10.611  14.296
85879SOL    HW159476   8.659  10.525  14.320
85879SOL    HW259477   8.529  10.601  14.298
85880SOL     OW59478   3.219  10.807   0.946
85880SOL    HW159479   3.205  10.762   0.863
85880SOL    HW259480   3.274  10.747   0.997
85881SOL     OW59481  13.319  13.761   3.335
85881SOL    HW159482  13.323  13.690   3.399
85881SOL    HW259483  13.325  13.716   3.250
85882SOL     OW59484   9.502  13.114   2.728
85882SOL    HW159485   9.536  13.111   2.817
85882SOL    HW259486   9.560  13.175   2.682
85883SOL     OW59487   5.537   8.443   4.472
85883SOL    HW159488   5.514   8.486   4.555
85883SOL    HW259489   5.558   8.353   4.497
85884SOL     OW59490   6.112   9.621  10.600
85884SOL    HW159491   6.155   9.542  10.567
85884SOL    HW259492   6.020   9.597  10.608
85885SOL     OW59493   6.251  13.548   1.123
85885SOL    HW159494   6.238  13.454   1.137
85885SOL    HW259495   6.203  13.589   1.194
85886SOL     OW59496   6.540   0.385   5.673
85886SOL    HW159497   6.569   0.463   5.626
85886SOL    HW259498   6.589   0.386   5.755
85887SOL     OW59499  12.697   4.768   7.153
85887SOL    HW159500  12.696   4.793   7.245
85887SOL    HW259501  12.604   4.760   7.130
85888SOL     OW59502   1.708  13.865  11.429
85888SOL    HW159503   1.671  13.848  11.342
85888SOL    HW259504   1.789  13.813  11.431
85889SOL     OW59505   9.380  13.156   7.434
85889SOL    HW159506   9.455  13.099   7.447
85889SOL    HW259507   9.342  13.127   7.351
85890SOL     OW59508  11.078  13.895  10.287
85890SOL    HW159509  11.120  13.815  10.255
85890SOL    HW259510  11.144  13.936  10.343
85891SOL     OW59511   5.562   3.624   0.388
85891SOL    HW159512   5.474   3.604   0.354
85891SOL    HW259513   5.621   3.592   0.320
85892SOL     OW59514   4.011   1.203   2.900
85892SOL    HW159515   4.000   1.116   2.938
85892SOL    HW259516   4.003   1.263   2.975
85893SOL     OW59517   8.071   9.585  11.766
85893SOL    HW159518   8.116   9.609  11.685
85893SOL    HW259519   7.981   9.567  11.739
85894SOL     OW59520  12.811  12.478   5.269
85894SOL    HW159521  12.734  12.536   5.274
85894SOL    HW259522  12.805  12.439   5.181
85895SOL     OW59523   1.134   6.177   1.527
85895SOL    HW159524   1.144   6.211   1.438
85895SOL    HW259525   1.125   6.255   1.581
85896SOL     OW59526  11.915  10.331   4.771
85896SOL    HW159527  11.915  10.237   4.749
85896SOL    HW259528  11.866  10.336   4.853
85897SOL     OW59529   8.518  11.939   3.547
85897SOL    HW159530   8.532  11.983   3.463
85897SOL    HW259531   8.446  11.878   3.530
85898SOL     OW59532  13.330  10.330  14.514
85898SOL    HW159533  13.300  10.418  14.489
85898SOL    HW259534  13.418  10.324  14.478
85899SOL     OW59535   3.635   8.826   4.547
85899SOL    HW159536   3.693   8.842   4.621
85899SOL    HW259537   3.693   8.798   4.476
85900SOL     OW59538   9.026  11.085   3.529
85900SOL    HW159539   9.015  11.026   3.604
85900SOL    HW259540   9.100  11.140   3.553
85901SOL     OW59541  12.311  10.867   2.578
85901SOL    HW159542  12.388  10.817   2.552
85901SOL    HW259543  12.238  10.806   2.567
85902SOL     OW59544  14.803   2.838  12.375
85902SOL    HW159545  14.778   2.867  12.463
85902SOL    HW259546  14.729   2.862  12.320
85903SOL     OW59547   6.317   7.173  11.299
85903SOL    HW159548   6.258   7.101  11.321
85903SOL    HW259549   6.405   7.135  11.309
85904SOL     OW59550   0.042  14.234   5.309
85904SOL    HW159551   0.056  14.148   5.347
85904SOL    HW259552   0.077  14.296   5.374
85905SOL     OW59553   9.852   1.045   6.585
85905SOL    HW159554   9.805   1.127   6.572
85905SOL    HW259555   9.807   0.982   6.530
85906SOL     OW59556  11.441   3.220  11.280
85906SOL    HW159557  11.466   3.257  11.196
85906SOL    HW259558  11.477   3.280  11.345
85907SOL     OW59559   1.405   3.569   1.589
85907SOL    HW159560   1.395   3.510   1.514
85907SOL    HW259561   1.357   3.526   1.659
85908SOL     OW59562   6.877  11.556   4.425
85908SOL    HW159563   6.897  11.539   4.517
85908SOL    HW259564   6.937  11.500   4.376
85909SOL     OW59565   0.917   9.791   9.480
85909SOL    HW159566   0.858   9.718   9.498
85909SOL    HW259567   1.004   9.756   9.502
85910SOL     OW59568  14.001   6.132   3.017
85910SOL    HW159569  13.970   6.129   2.927
85910SOL    HW259570  13.938   6.079   3.066
85911SOL     OW59571   3.676  12.379   5.103
85911SOL    HW159572   3.601  12.371   5.161
85911SOL    HW259573   3.687  12.292   5.064
85912SOL     OW59574   8.109   5.681   5.884
85912SOL    HW159575   8.098   5.593   5.921
85912SOL    HW259576   8.203   5.695   5.883
85913SOL     OW59577  14.550   4.232   8.037
85913SOL    HW159578  14.481   4.216   8.101
85913SOL    HW259579  14.628   4.254   8.090
85914SOL     OW59580   6.570   0.675   3.522
85914SOL    HW159581   6.490   0.705   3.479
85914SOL    HW259582   6.540   0.629   3.600
85915SOL     OW59583  14.834   7.464   3.298
85915SOL    HW159584  14.796   7.411   3.228
85915SOL    HW259585  14.765   7.469   3.365
85916SOL     OW59586   9.556   1.210  14.360
85916SOL    HW159587   9.546   1.143  14.428
85916SOL    HW259588   9.564   1.292  14.409
85917SOL     OW59589  11.861  13.253   9.031
85917SOL    HW159590  11.823  13.193   9.094
85917SOL    HW259591  11.932  13.203   8.990
85918SOL     OW59592  12.398   8.732   4.380
85918SOL    HW159593  12.348   8.810   4.403
85918SOL    HW259594  12.422   8.744   4.288
85919SOL     OW59595   1.256   6.729   4.823
85919SOL    HW159596   1.161   6.735   4.821
85919SOL    HW259597   1.280   6.706   4.733
85920SOL     OW59598  13.602   0.430   1.741
85920SOL    HW159599  13.563   0.347   1.713
85920SOL    HW259600  13.558   0.450   1.823
85921SOL     OW59601   4.194  13.748  14.879
85921SOL    HW159602   4.274  13.696   0.002
85921SOL    HW259603   4.174  13.753  14.785
85922SOL     OW59604   4.508   1.035   5.424
85922SOL    HW159605   4.457   0.968   5.378
85922SOL    HW259606   4.499   1.114   5.370
85923SOL     OW59607   3.046   1.147   9.039
85923SOL    HW159608   3.121   1.174   9.092
85923SOL    HW259609   3.079   1.145   8.949
85924SOL     OW59610  14.162   8.259  14.540
85924SOL    HW159611  14.118   8.291  14.619
85924SOL    HW259612  14.150   8.328  14.475
85925SOL     OW59613  14.480  10.671   1.488
85925SOL    HW159614  14.454  10.604   1.551
85925SOL    HW259615  14.554  10.715   1.530
85926SOL     OW59616   8.591  10.052   2.136
85926SOL    HW159617   8.654   9.988   2.102
85926SOL    HW259618   8.506  10.020   2.105
85927SOL     OW59619   0.701   2.968  14.294
85927SOL    HW159620   0.727   2.883  14.329
85927SOL    HW259621   0.758   3.031  14.338
85928SOL     OW59622  10.797   6.746   6.678
85928SOL    HW159623  10.827   6.674   6.622
85928SOL    HW259624  10.715   6.714   6.716
85929SOL     OW59625   2.839  13.695  12.321
85929SOL    HW159626   2.847  13.701  12.416
85929SOL    HW259627   2.929  13.700  12.289
85930SOL     OW59628   4.701   9.839   0.723
85930SOL    HW159629   4.733   9.908   0.665
85930SOL    HW259630   4.733   9.864   0.810
85931SOL     OW59631  10.673  10.303   0.478
85931SOL    HW159632  10.716  10.218   0.488
85931SOL    HW259633  10.714  10.359   0.544
85932SOL     OW59634  14.638   4.874   2.913
85932SOL    HW159635  14.616   4.929   2.838
85932SOL    HW259636  14.644   4.785   2.877
85933SOL     OW59637   1.125  13.692  11.534
85933SOL    HW159638   1.201  13.749  11.549
85933SOL    HW259639   1.131  13.668  11.442
85934SOL     OW59640   5.188  11.608  10.112
85934SOL    HW159641   5.169  11.681  10.052
85934SOL    HW259642   5.108  11.555  10.111
85935SOL     OW59643  12.731  11.843   8.625
85935SOL    HW159644  12.790  11.811   8.557
85935SOL    HW259645  12.650  11.864   8.578
85936SOL     OW59646   0.482   7.378   2.198
85936SOL    HW159647   0.534   7.298   2.210
85936SOL    HW259648   0.393   7.347   2.182
85937SOL     OW59649   1.243   2.128   0.223
85937SOL    HW159650   1.327   2.115   0.266
85937SOL    HW259651   1.228   2.048   0.173
85938SOL     OW59652   6.591   1.384   9.400
85938SOL    HW159653   6.519   1.414   9.457
85938SOL    HW259654   6.637   1.319   9.453
85939SOL     OW59655  12.446   9.056   6.003
85939SOL    HW159656  12.492   9.086   5.924
85939SOL    HW259657  12.491   9.101   6.074
85940SOL     OW59658   0.493   1.773  14.008
85940SOL    HW159659   0.576   1.815  14.033
85940SOL    HW259660   0.432   1.795  14.079
85941SOL     OW59661   1.051   3.314   3.777
85941SOL    HW159662   1.104   3.279   3.705
85941SOL    HW259663   1.112   3.362   3.832
85942SOL     OW59664   2.708   8.608   5.928
85942SOL    HW159665   2.699   8.512   5.925
85942SOL    HW259666   2.724   8.633   5.837
85943SOL     OW59667  11.956   4.226   7.276
85943SOL    HW159668  11.874   4.208   7.231
85943SOL    HW259669  12.016   4.253   7.207
85944SOL     OW59670  13.243   9.696   0.272
85944SOL    HW159671  13.302   9.621   0.261
85944SOL    HW259672  13.178   9.665   0.335
85945SOL     OW59673   7.357   9.518  12.240
85945SOL    HW159674   7.416   9.535  12.313
85945SOL    HW259675   7.348   9.423  12.239
85946SOL     OW59676  11.059  13.008   6.207
85946SOL    HW159677  11.074  12.933   6.264
85946SOL    HW259678  11.146  13.033   6.177
85947SOL     OW59679  12.636   5.186  13.760
85947SOL    HW159680  12.633   5.246  13.835
85947SOL    HW259681  12.729   5.166  13.749
85948SOL     OW59682   3.639   3.364   4.049
85948SOL    HW159683   3.585   3.300   4.002
85948SOL    HW259684   3.699   3.399   3.983
85949SOL     OW59685   3.799  14.163  11.869
85949SOL    HW159686   3.737  14.097  11.899
85949SOL    HW259687   3.822  14.135  11.780
85950SOL     OW59688   8.368   6.675   0.281
85950SOL    HW159689   8.362   6.770   0.282
85950SOL    HW259690   8.446   6.656   0.229
85951SOL     OW59691   3.677  11.893   0.496
85951SOL    HW159692   3.591  11.866   0.527
85951SOL    HW259693   3.659  11.939   0.414
85952SOL     OW59694   5.377  12.812   4.780
85952SOL    HW159695   5.431  12.833   4.703
85952SOL    HW259696   5.309  12.879   4.780
85953SOL     OW59697   4.028   9.131  10.083
85953SOL    HW159698   4.052   9.168   9.999
85953SOL    HW259699   3.996   9.043  10.063
85954SOL     OW59700   9.591   2.048  12.645
85954SOL    HW159701   9.653   2.105  12.690
85954SOL    HW259702   9.635   1.963  12.640
85955SOL     OW59703   2.779   8.615   9.556
85955SOL    HW159704   2.737   8.667   9.488
85955SOL    HW259705   2.821   8.543   9.508
85956SOL     OW59706  12.792   1.739   5.461
85956SOL    HW159707  12.730   1.720   5.531
85956SOL    HW259708  12.765   1.824   5.427
85957SOL     OW59709   1.689   2.131   7.710
85957SOL    HW159710   1.634   2.206   7.687
85957SOL    HW259711   1.627   2.063   7.738
85958SOL     OW59712  11.067   5.092   1.866
85958SOL    HW159713  11.104   5.169   1.909
85958SOL    HW259714  11.059   5.118   1.774
85959SOL     OW59715  13.170  11.675  10.505
85959SOL    HW159716  13.106  11.604  10.492
85959SOL    HW259717  13.188  11.673  10.599
85960SOL     OW59718  11.328  14.533  14.006
85960SOL    HW159719  11.289  14.488  13.930
85960SOL    HW259720  11.366  14.462  14.058
85961SOL     OW59721   1.855   2.349  10.637
85961SOL    HW159722   1.844   2.421  10.699
85961SOL    HW259723   1.793   2.367  10.567
85962SOL     OW59724   2.065   0.843   7.270
85962SOL    HW159725   2.035   0.879   7.353
85962SOL    HW259726   2.126   0.773   7.294
85963SOL     OW59727  10.983  14.698   1.770
85963SOL    HW159728  10.969  14.715   1.863
85963SOL    HW259729  10.895  14.689   1.733
85964SOL     OW59730  13.756  13.505   8.743
85964SOL    HW159731  13.848  13.510   8.771
85964SOL    HW259732  13.760  13.506   8.648
85965SOL     OW59733   6.035  12.496   0.795
85965SOL    HW159734   6.043  12.563   0.863
85965SOL    HW259735   5.951  12.515   0.753
85966SOL     OW59736   7.971   8.644   8.598
85966SOL    HW159737   7.948   8.563   8.551
85966SOL    HW259738   7.957   8.713   8.533
85967SOL     OW59739   9.786   1.950   4.145
85967SOL    HW159740   9.824   1.984   4.064
85967SOL    HW259741   9.721   2.015   4.170
85968SOL     OW59742   6.808   7.210   3.690
85968SOL    HW159743   6.876   7.146   3.667
85968SOL    HW259744   6.732   7.157   3.714
85969SOL     OW59745   7.830   9.663   3.971
85969SOL    HW159746   7.737   9.678   3.951
85969SOL    HW259747   7.872   9.660   3.885
85970SOL     OW59748   3.467  12.412  12.177
85970SOL    HW159749   3.421  12.383  12.097
85970SOL    HW259750   3.506  12.496  12.153
85971SOL     OW59751   6.406   2.647  10.322
85971SOL    HW159752   6.498   2.630  10.299
85971SOL    HW259753   6.378   2.714  10.260
85972SOL     OW59754   2.583   4.001   1.383
85972SOL    HW159755   2.509   4.059   1.399
85972SOL    HW259756   2.590   3.949   1.463
85973SOL     OW59757   3.903  10.573   4.885
85973SOL    HW159758   3.979  10.531   4.926
85973SOL    HW259759   3.893  10.656   4.930
85974SOL     OW59760   2.762   3.020   6.377
85974SOL    HW159761   2.811   2.982   6.304
85974SOL    HW259762   2.786   2.967   6.452
85975SOL     OW59763   1.535   4.199   2.638
85975SOL    HW159764   1.464   4.184   2.575
85975SOL    HW259765   1.507   4.152   2.717
85976SOL     OW59766   7.800   4.941   4.354
85976SOL    HW159767   7.853   4.878   4.404
85976SOL    HW259768   7.753   4.887   4.291
85977SOL     OW59769   4.892   9.349   6.494
85977SOL    HW159770   4.865   9.338   6.586
85977SOL    HW259771   4.844   9.426   6.464
85978SOL     OW59772   5.079   8.285  10.411
85978SOL    HW159773   5.092   8.361  10.355
85978SOL    HW259774   5.167   8.258  10.436
85979SOL     OW59775   9.598   6.901  12.353
85979SOL    HW159776   9.666   6.915  12.287
85979SOL    HW259777   9.638   6.927  12.436
85980SOL     OW59778  11.820   2.177   4.240
85980SOL    HW159779  11.820   2.247   4.175
85980SOL    HW259780  11.851   2.219   4.320
85981SOL     OW59781  11.341   1.470  11.012
85981SOL    HW159782  11.339   1.481  10.917
85981SOL    HW259783  11.249   1.467  11.038
85982SOL     OW59784   4.349   2.976  14.764
85982SOL    HW159785   4.340   2.984  14.669
85982SOL    HW259786   4.309   2.892  14.785
85983SOL     OW59787   2.250   5.141   1.605
85983SOL    HW159788   2.326   5.084   1.594
85983SOL    HW259789   2.189   5.114   1.536
85984SOL     OW59790  10.093   7.566  13.523
85984SOL    HW159791  10.100   7.474  13.549
85984SOL    HW259792  10.012   7.571  13.472
85985SOL     OW59793   7.929   0.357  12.460
85985SOL    HW159794   7.853   0.413  12.477
85985SOL    HW259795   7.919   0.330  12.369
85986SOL     OW59796   9.996   3.560  11.747
85986SOL    HW159797  10.076   3.511  11.728
85986SOL    HW259798   9.975   3.537  11.837
85987SOL     OW59799   5.387   8.023  12.386
85987SOL    HW159800   5.365   8.100  12.438
85987SOL    HW259801   5.449   8.055  12.320
85988SOL     OW59802  11.211   9.863   0.463
85988SOL    HW159803  11.237   9.817   0.383
85988SOL    HW259804  11.142   9.808   0.500
85989SOL     OW59805   5.143   9.849   2.998
85989SOL    HW159806   5.118   9.759   3.018
85989SOL    HW259807   5.135   9.856   2.903
85990SOL     OW59808   1.263   8.502   1.750
85990SOL    HW159809   1.168   8.510   1.741
85990SOL    HW259810   1.295   8.592   1.753
85991SOL     OW59811   4.489   0.436   0.720
85991SOL    HW159812   4.574   0.407   0.686
85991SOL    HW259813   4.435   0.357   0.721
85992SOL     OW59814   1.310  12.117  14.345
85992SOL    HW159815   1.290  12.024  14.357
85992SOL    HW259816   1.370  12.138  14.417
85993SOL     OW59817   5.269   1.646  12.056
85993SOL    HW159818   5.318   1.565  12.069
85993SOL    HW259819   5.180   1.625  12.084
85994SOL     OW59820  13.336   9.127  14.078
85994SOL    HW159821  13.397   9.096  14.011
85994SOL    HW259822  13.327   9.053  14.139
85995SOL     OW59823  12.984   0.712   0.075
85995SOL    HW159824  12.944   0.773   0.137
85995SOL    HW259825  13.024   0.645   0.130
85996SOL     OW59826   7.178  14.053  12.610
85996SOL    HW159827   7.135  13.989  12.554
85996SOL    HW259828   7.229  14.108  12.550
85997SOL     OW59829  14.203  12.878   6.122
85997SOL    HW159830  14.130  12.817   6.106
85997SOL    HW259831  14.183  12.919   6.205
85998SOL     OW59832   2.585   0.387   2.422
85998SOL    HW159833   2.588   0.447   2.347
85998SOL    HW259834   2.498   0.348   2.417
85999SOL     OW59835   0.770   5.969   4.223
85999SOL    HW159836   0.756   5.910   4.149
85999SOL    HW259837   0.784   5.911   4.298
86000SOL     OW59838  10.085  13.504   8.692
86000SOL    HW159839  10.014  13.522   8.754
86000SOL    HW259840  10.063  13.419   8.655
86001SOL     OW59841   1.119   4.427   4.034
86001SOL    HW159842   1.168   4.499   4.073
86001SOL    HW259843   1.187   4.370   3.997
86002SOL     OW59844  14.496   0.539   7.821
86002SOL    HW159845  14.578   0.588   7.811
86002SOL    HW259846  14.522   0.447   7.808
86003SOL     OW59847   1.720   0.259  14.429
86003SOL    HW159848   1.744   0.351  14.420
86003SOL    HW259849   1.652   0.246  14.363
86004SOL     OW59850   7.286   3.394   5.017
86004SOL    HW159851   7.224   3.349   4.960
86004SOL    HW259852   7.247   3.388   5.104
86005SOL     OW59853   8.173   7.779   6.129
86005SOL    HW159854   8.116   7.765   6.204
86005SOL    HW259855   8.138   7.859   6.087
86006SOL     OW59856  11.866   6.104   0.778
86006SOL    HW159857  11.801   6.043   0.744
86006SOL    HW259858  11.947   6.080   0.734
86007SOL     OW59859  14.349   9.487   7.494
86007SOL    HW159860  14.385   9.574   7.513
86007SOL    HW259861  14.397   9.428   7.553
86008SOL     OW59862   4.041   7.260   7.104
86008SOL    HW159863   4.107   7.251   7.036
86008SOL    HW259864   4.046   7.351   7.132
86009SOL     OW59865  10.842   1.428   3.514
86009SOL    HW159866  10.758   1.453   3.554
86009SOL    HW259867  10.820   1.408   3.423
86010SOL     OW59868   2.475  13.165   4.640
86010SOL    HW159869   2.407  13.218   4.681
86010SOL    HW259870   2.491  13.207   4.555
86011SOL     OW59871  10.434   3.914   1.446
86011SOL    HW159872  10.340   3.930   1.446
86011SOL    HW259873  10.442   3.821   1.467
86012SOL     OW59874   8.336  10.378   1.710
86012SOL    HW159875   8.290  10.401   1.791
86012SOL    HW259876   8.391  10.455   1.691
86013SOL     OW59877  13.111   2.975  13.832
86013SOL    HW159878  13.098   2.883  13.852
86013SOL    HW259879  13.028   3.017  13.855
86014SOL     OW59880   0.671   0.101   6.617
86014SOL    HW159881   0.713   0.180   6.651
86014SOL    HW259882   0.600   0.083   6.679
86015SOL     OW59883   1.190  10.430   5.082
86015SOL    HW159884   1.213  10.488   5.154
86015SOL    HW259885   1.257  10.362   5.084
86016SOL     OW59886   8.606   3.634   6.260
86016SOL    HW159887   8.546   3.560   6.267
86016SOL    HW259888   8.549   3.709   6.244
86017SOL     OW59889  14.852   8.649   1.766
86017SOL    HW159890  14.849   8.554   1.758
86017SOL    HW259891  14.787   8.680   1.703
86018SOL     OW59892   7.107   9.901   4.716
86018SOL    HW159893   7.061   9.844   4.778
86018SOL    HW259894   7.074   9.874   4.630
86019SOL     OW59895   4.852  13.866   7.133
86019SOL    HW159896   4.892  13.910   7.208
86019SOL    HW259897   4.911  13.793   7.114
86020SOL     OW59898   3.361   9.839   1.178
86020SOL    HW159899   3.302   9.770   1.147
86020SOL    HW259900   3.304   9.904   1.218
86021SOL     OW59901   9.754   5.980  13.080
86021SOL    HW159902   9.836   6.024  13.058
86021SOL    HW259903   9.756   5.900  13.028
86022SOL     OW59904   9.708   6.978  12.586
86022SOL    HW159905   9.706   7.066  12.622
86022SOL    HW259906   9.752   6.926  12.653
86023SOL     OW59907   3.486  11.155   7.805
86023SOL    HW159908   3.470  11.137   7.898
86023SOL    HW259909   3.406  11.199   7.776
86024SOL     OW59910   0.925   7.244  10.612
86024SOL    HW159911   0.852   7.261  10.552
86024SOL    HW259912   0.892   7.176  10.670
86025SOL     OW59913   9.162  11.663   4.477
86025SOL    HW159914   9.149  11.570   4.463
86025SOL    HW259915   9.076  11.694   4.506
86026SOL     OW59916   0.792   6.473   5.178
86026SOL    HW159917   0.741   6.397   5.149
86026SOL    HW259918   0.874   6.466   5.128
86027SOL     OW59919   8.672   8.507   0.546
86027SOL    HW159920   8.602   8.443   0.560
86027SOL    HW259921   8.708   8.521   0.634
86028SOL     OW59922   6.305   9.627   3.668
86028SOL    HW159923   6.394   9.592   3.667
86028SOL    HW259924   6.277   9.619   3.759
86029SOL     OW59925  14.523   6.845  12.043
86029SOL    HW159926  14.617   6.850  12.025
86029SOL    HW259927  14.482   6.891  11.970
86030SOL     OW59928   0.326   3.369   2.436
86030SOL    HW159929   0.241   3.329   2.455
86030SOL    HW259930   0.384   3.295   2.419
86031SOL     OW59931   5.306   4.383   2.262
86031SOL    HW159932   5.343   4.452   2.318
86031SOL    HW259933   5.331   4.301   2.305
86032SOL     OW59934   8.831   1.116   7.269
86032SOL    HW159935   8.780   1.045   7.307
86032SOL    HW259936   8.907   1.074   7.230
86033SOL     OW59937   3.823   1.215   8.487
86033SOL    HW159938   3.918   1.201   8.484
86033SOL    HW259939   3.786   1.127   8.492
86034SOL     OW59940   5.788   2.017   7.333
86034SOL    HW159941   5.828   1.984   7.252
86034SOL    HW259942   5.860   2.061   7.379
86035SOL     OW59943  11.932   9.054   3.914
86035SOL    HW159944  11.970   9.100   3.839
86035SOL    HW259945  12.007   9.014   3.958
86036SOL     OW59946   3.935   3.501  13.316
86036SOL    HW159947   3.993   3.559  13.265
86036SOL    HW259948   3.906   3.435  13.253
86037SOL     OW59949  11.660   0.103  11.786
86037SOL    HW159950  11.577   0.138  11.754
86037SOL    HW259951  11.692   0.169  11.848
86038SOL     OW59952   2.138   0.570  10.204
86038SOL    HW159953   2.124   0.486  10.249
86038SOL    HW259954   2.233   0.585  10.212
86039SOL     OW59955   4.367   0.241  12.254
86039SOL    HW159956   4.273   0.224  12.253
86039SOL    HW259957   4.386   0.278  12.168
86040SOL     OW59958   1.818   8.316   6.877
86040SOL    HW159959   1.794   8.310   6.784
86040SOL    HW259960   1.855   8.403   6.886
86041SOL     OW59961   0.961   1.353   2.435
86041SOL    HW159962   0.910   1.278   2.406
86041SOL    HW259963   1.022   1.317   2.500
86042SOL     OW59964  13.622   0.770   3.401
86042SOL    HW159965  13.690   0.722   3.355
86042SOL    HW259966  13.610   0.722   3.483
86043SOL     OW59967  12.909  12.579   4.596
86043SOL    HW159968  12.990  12.630   4.607
86043SOL    HW259969  12.867  12.583   4.681
86044SOL     OW59970  10.688   5.118   4.779
86044SOL    HW159971  10.772   5.073   4.787
86044SOL    HW259972  10.664   5.108   4.687
86045SOL     OW59973   5.751   3.162   7.104
86045SOL    HW159974   5.818   3.117   7.156
86045SOL    HW259975   5.668   3.131   7.139
86046SOL     OW59976  13.578  13.278  13.763
86046SOL    HW159977  13.621  13.277  13.678
86046SOL    HW259978  13.503  13.336  13.752
86047SOL     OW59979   3.058   1.621   8.843
86047SOL    HW159980   3.096   1.537   8.867
86047SOL    HW259981   3.132   1.671   8.806
86048SOL     OW59982   3.420   6.520  10.847
86048SOL    HW159983   3.448   6.428  10.850
86048SOL    HW259984   3.357   6.523  10.774
86049SOL     OW59985   9.623   2.365   9.346
86049SOL    HW159986   9.691   2.426   9.374
86049SOL    HW259987   9.601   2.393   9.257
86050SOL     OW59988  12.152   0.401   0.872
86050SOL    HW159989  12.199   0.449   0.941
86050SOL    HW259990  12.180   0.310   0.883
86051SOL     OW59991  11.724   0.529   6.920
86051SOL    HW159992  11.771   0.446   6.909
86051SOL    HW259993  11.688   0.524   7.009
86052SOL     OW59994   7.409   6.181  12.159
86052SOL    HW159995   7.389   6.089  12.142
86052SOL    HW259996   7.459   6.209  12.082
86053SOL     OW59997   5.613   2.516   6.129
86053SOL    HW159998   5.603   2.598   6.081
86053SOL    HW259999   5.613   2.542   6.221
86054SOL     OW60000   7.415   8.068   1.925
86054SOL    HW160001   7.327   8.096   1.901
86054SOL    HW260002   7.419   7.976   1.899
86055SOL     OW60003   2.052   5.978  13.793
86055SOL    HW160004   2.004   6.045  13.745
86055SOL    HW260005   2.009   5.896  13.769
86056SOL     OW60006   1.181   1.296   9.085
86056SOL    HW160007   1.252   1.313   9.022
86056SOL    HW260008   1.111   1.355   9.058
86057SOL     OW60009   1.323  13.599  10.701
86057SOL    HW160010   1.406  13.622  10.658
86057SOL    HW260011   1.310  13.669  10.765
86058SOL     OW60012  12.377   6.886  10.499
86058SOL    HW160013  12.321   6.951  10.456
86058SOL    HW260014  12.466   6.907  10.469
86059SOL     OW60015  14.830   3.175   5.982
86059SOL    HW160016  14.829   3.084   5.951
86059SOL    HW260017   0.035   3.206   5.958
86060SOL     OW60018   2.122   4.563   2.527
86060SOL    HW160019   2.180   4.583   2.601
86060SOL    HW260020   2.037   4.599   2.553
86061SOL     OW60021   5.584  13.252   9.792
86061SOL    HW160022   5.514  13.190   9.812
86061SOL    HW260023   5.599  13.241   9.698
86062SOL     OW60024   3.227   7.923  13.083
86062SOL    HW160025   3.185   7.842  13.053
86062SOL    HW260026   3.299   7.894  13.138
86063SOL     OW60027   2.829   7.338  11.045
86063SOL    HW160028   2.779   7.267  11.086
86063SOL    HW260029   2.908   7.296  11.011
86064SOL     OW60030   3.911   6.755   6.458
86064SOL    HW160031   3.972   6.705   6.513
86064SOL    HW260032   3.824   6.729   6.489
86065SOL     OW60033   5.873  13.620  12.627
86065SOL    HW160034   5.930  13.557  12.583
86065SOL    HW260035   5.785  13.600  12.595
86066SOL     OW60036   4.148   5.784   8.402
86066SOL    HW160037   4.136   5.843   8.328
86066SOL    HW260038   4.120   5.699   8.370
86067SOL     OW60039   2.283   4.112   7.969
86067SOL    HW160040   2.198   4.104   7.926
86067SOL    HW260041   2.312   4.022   7.983
86068SOL     OW60042   6.860   2.160   6.281
86068SOL    HW160043   6.944   2.119   6.302
86068SOL    HW260044   6.882   2.228   6.218
86069SOL     OW60045  11.688   3.375   0.627
86069SOL    HW160046  11.704   3.439   0.696
86069SOL    HW260047  11.741   3.299   0.651
86070SOL     OW60048   9.385   1.904   4.900
86070SOL    HW160049   9.416   1.826   4.945
86070SOL    HW260050   9.314   1.873   4.844
86071SOL     OW60051   3.099   4.527  12.624
86071SOL    HW160052   3.155   4.459  12.661
86071SOL    HW260053   3.153   4.605  12.623
86072SOL     OW60054  10.845   4.791  12.945
86072SOL    HW160055  10.811   4.711  12.905
86072SOL    HW260056  10.782   4.812  13.014
86073SOL     OW60057  10.232   2.582  14.239
86073SOL    HW160058  10.264   2.569  14.328
86073SOL    HW260059  10.144   2.544  14.239
86074SOL     OW60060   5.848  13.671   0.889
86074SOL    HW160061   5.811  13.597   0.841
86074SOL    HW260062   5.934  13.640   0.919
86075SOL     OW60063   3.311  14.698   7.890
86075SOL    HW160064   3.297  14.705   7.796
86075SOL    HW260065   3.357  14.779   7.913
86076SOL     OW60066  12.732  14.637   8.994
86076SOL    HW160067  12.808  14.680   9.031
86076SOL    HW260068  12.734  14.659   8.901
86077SOL     OW60069  12.752   8.673  10.620
86077SOL    HW160070  12.817   8.739  10.646
86077SOL    HW260071  12.751   8.611  10.694
86078SOL     OW60072   2.681  14.079   6.139
86078SOL    HW160073   2.620  14.125   6.082
86078SOL    HW260074   2.738  14.148   6.172
86079SOL     OW60075   9.266   9.775   2.234
86079SOL    HW160076   9.336   9.837   2.255
86079SOL    HW260077   9.283   9.750   2.143
86080SOL     OW60078  13.263  11.942  13.132
86080SOL    HW160079  13.297  11.884  13.199
86080SOL    HW260080  13.317  11.925  13.055
86081SOL     OW60081  11.260  10.568   9.997
86081SOL    HW160082  11.315  10.639   9.963
86081SOL    HW260083  11.316  10.491   9.998
86082SOL     OW60084   4.214   8.180   6.449
86082SOL    HW160085   4.227   8.096   6.405
86082SOL    HW260086   4.129   8.211   6.416
86083SOL     OW60087   3.811   3.358   1.830
86083SOL    HW160088   3.857   3.359   1.746
86083SOL    HW260089   3.825   3.445   1.867
86084SOL     OW60090  13.721  13.165   1.316
86084SOL    HW160091  13.625  13.166   1.310
86084SOL    HW260092  13.749  13.118   1.237
86085SOL     OW60093   4.239  10.627   6.645
86085SOL    HW160094   4.272  10.650   6.732
86085SOL    HW260095   4.172  10.693   6.626
86086SOL     OW60096  11.317  13.659   3.070
86086SOL    HW160097  11.365  13.582   3.039
86086SOL    HW260098  11.234  13.656   3.023
86087SOL     OW60099   8.159  11.683   4.869
86087SOL    HW160100   8.221  11.687   4.942
86087SOL    HW260101   8.080  11.727   4.903
86088SOL     OW60102  13.436   5.904  13.286
86088SOL    HW160103  13.391   5.833  13.239
86088SOL    HW260104  13.510   5.927  13.230
86089SOL     OW60105   8.681   9.677   6.741
86089SOL    HW160106   8.596   9.716   6.717
86089SOL    HW260107   8.679   9.590   6.702
86090SOL     OW60108  11.005   5.850   7.794
86090SOL    HW160109  11.098   5.875   7.796
86090SOL    HW260110  10.959   5.931   7.815
86091SOL     OW60111   5.740  13.967  11.587
86091SOL    HW160112   5.782  13.884  11.562
86091SOL    HW260113   5.762  13.979  11.679
86092SOL     OW60114  11.272  12.163   7.791
86092SOL    HW160115  11.280  12.258   7.789
86092SOL    HW260116  11.205  12.146   7.858
86093SOL     OW60117   6.071  11.746   0.451
86093SOL    HW160118   5.988  11.707   0.481
86093SOL    HW260119   6.138  11.694   0.495
86094SOL     OW60120   6.099   8.614   5.556
86094SOL    HW160121   6.076   8.707   5.564
86094SOL    HW260122   6.105   8.583   5.646
86095SOL     OW60123   0.036   5.653  12.897
86095SOL    HW160124   0.015   5.560  12.902
86095SOL    HW260125   0.014   5.687  12.984
86096SOL     OW60126   2.095   6.480  13.519
86096SOL    HW160127   2.020   6.531  13.550
86096SOL    HW260128   2.148   6.465  13.597
86097SOL     OW60129  12.024   3.434   7.815
86097SOL    HW160130  11.959   3.374   7.779
86097SOL    HW260131  12.062   3.478   7.739
86098SOL     OW60132   8.595  11.400   7.626
86098SOL    HW160133   8.504  11.396   7.654
86098SOL    HW260134   8.596  11.358   7.540
86099SOL     OW60135   3.492  12.305   7.497
86099SOL    HW160136   3.564  12.344   7.446
86099SOL    HW260137   3.495  12.350   7.581
86100SOL     OW60138   1.000   5.668   0.170
86100SOL    HW160139   1.055   5.745   0.154
86100SOL    HW260140   0.951   5.657   0.089
86101SOL     OW60141   4.795   8.494   7.160
86101SOL    HW160142   4.848   8.550   7.103
86101SOL    HW260143   4.709   8.492   7.118
86102SOL     OW60144   3.492  11.884   2.048
86102SOL    HW160145   3.533  11.917   1.969
86102SOL    HW260146   3.546  11.916   2.120
86103SOL     OW60147   2.306   6.309   4.864
86103SOL    HW160148   2.269   6.227   4.896
86103SOL    HW260149   2.283   6.374   4.931
86104SOL     OW60150   6.778   0.707   8.958
86104SOL    HW160151   6.772   0.660   9.041
86104SOL    HW260152   6.870   0.735   8.953
86105SOL     OW60153  12.774   1.927   9.553
86105SOL    HW160154  12.794   1.874   9.476
86105SOL    HW260155  12.752   1.864   9.621
86106SOL     OW60156   9.467  10.552  10.087
86106SOL    HW160157   9.391  10.550  10.145
86106SOL    HW260158   9.530  10.494  10.129
86107SOL     OW60159   7.854   2.796   2.644
86107SOL    HW160160   7.905   2.846   2.708
86107SOL    HW260161   7.896   2.710   2.642
86108SOL     OW60162  11.959   1.199   7.348
86108SOL    HW160163  11.866   1.213   7.331
86108SOL    HW260164  12.001   1.279   7.317
86109SOL     OW60165   9.901  11.103  13.852
86109SOL    HW160166   9.962  11.062  13.915
86109SOL    HW260167   9.842  11.032  13.827
86110SOL     OW60168  12.018   0.230   7.790
86110SOL    HW160169  11.975   0.256   7.708
86110SOL    HW260170  11.948   0.191   7.842
86111SOL     OW60171   2.762   5.968   6.450
86111SOL    HW160172   2.760   5.899   6.384
86111SOL    HW260173   2.671   5.997   6.456
86112SOL     OW60174  12.566   6.049  14.336
86112SOL    HW160175  12.578   6.099  14.416
86112SOL    HW260176  12.636   5.984  14.338
86113SOL     OW60177  13.409   6.936  14.119
86113SOL    HW160178  13.494   6.911  14.156
86113SOL    HW260179  13.424   6.939  14.025
86114SOL     OW60180  13.518  11.861   0.692
86114SOL    HW160181  13.611  11.868   0.671
86114SOL    HW260182  13.504  11.922   0.764
86115SOL     OW60183  11.017   6.719  13.432
86115SOL    HW160184  11.062   6.724  13.516
86115SOL    HW260185  10.987   6.809  13.415
86116SOL     OW60186   8.461   4.298   5.141
86116SOL    HW160187   8.381   4.342   5.168
86116SOL    HW260188   8.525   4.322   5.208
86117SOL     OW60189   4.995   0.240  10.803
86117SOL    HW160190   5.047   0.182  10.859
86117SOL    HW260191   5.000   0.201  10.716
86118SOL     OW60192   9.975   1.874   2.029
86118SOL    HW160193   9.976   1.819   1.951
86118SOL    HW260194   9.928   1.954   2.002
86119SOL     OW60195  10.898  11.859   3.015
86119SOL    HW160196  10.838  11.889   2.947
86119SOL    HW260197  10.969  11.817   2.967
86120SOL     OW60198   5.884  14.070   2.470
86120SOL    HW160199   5.906  14.103   2.557
86120SOL    HW260200   5.799  14.028   2.481
86121SOL     OW60201   4.200  10.705   1.622
86121SOL    HW160202   4.275  10.734   1.572
86121SOL    HW260203   4.124  10.734   1.572
86122SOL     OW60204   1.898   3.412   8.832
86122SOL    HW160205   1.927   3.445   8.747
86122SOL    HW260206   1.828   3.472   8.858
86123SOL     OW60207   3.208   0.021  10.665
86123SOL    HW160208   3.186  14.815  10.696
86123SOL    HW260209   3.261   0.058  10.735
86124SOL     OW60210  11.910  13.225  11.008
86124SOL    HW160211  11.913  13.130  10.998
86124SOL    HW260212  11.835  13.252  10.955
86125SOL     OW60213   6.150  11.295   0.573
86125SOL    HW160214   6.099  11.374   0.556
86125SOL    HW260215   6.154  11.290   0.669
86126SOL     OW60216   8.152   1.268  12.308
86126SOL    HW160217   8.209   1.336  12.345
86126SOL    HW260218   8.162   1.193  12.367
86127SOL     OW60219   1.023  11.329   1.012
86127SOL    HW160220   0.954  11.360   1.070
86127SOL    HW260221   1.034  11.237   1.035
86128SOL     OW60222   9.029   1.365  12.005
86128SOL    HW160223   8.963   1.431  12.025
86128SOL    HW260224   9.113   1.412  12.008
86129SOL     OW60225  14.594   4.433   9.264
86129SOL    HW160226  14.639   4.362   9.220
86129SOL    HW260227  14.573   4.496   9.195
86130SOL     OW60228   4.849   0.456   0.931
86130SOL    HW160229   4.825   0.397   1.003
86130SOL    HW260230   4.876   0.397   0.860
86131SOL     OW60231  11.559  10.644   2.286
86131SOL    HW160232  11.595  10.667   2.201
86131SOL    HW260233  11.599  10.560   2.307
86132SOL     OW60234   3.422   0.003   3.677
86132SOL    HW160235   3.452   0.089   3.649
86132SOL    HW260236   3.369  14.854   3.604
86133SOL     OW60237  11.062   9.831   5.701
86133SOL    HW160238  11.054   9.926   5.701
86133SOL    HW260239  11.030   9.804   5.615
86134SOL     OW60240   2.629   6.795   5.129
86134SOL    HW160241   2.692   6.753   5.187
86134SOL    HW260242   2.578   6.723   5.093
86135SOL     OW60243   5.825   6.836   5.905
86135SOL    HW160244   5.770   6.775   5.857
86135SOL    HW260245   5.911   6.830   5.862
86136SOL     OW60246   5.608   7.969   1.177
86136SOL    HW160247   5.572   7.920   1.102
86136SOL    HW260248   5.633   7.901   1.240
86137SOL     OW60249  13.686  13.611   9.684
86137SOL    HW160250  13.732  13.528   9.675
86137SOL    HW260251  13.742  13.675   9.640
86138SOL     OW60252   7.512   6.855  10.145
86138SOL    HW160253   7.540   6.870  10.055
86138SOL    HW260254   7.419   6.877  10.146
86139SOL     OW60255  14.307   6.988  10.129
86139SOL    HW160256  14.223   7.034  10.140
86139SOL    HW260257  14.301   6.913  10.187
86140SOL     OW60258   3.483  14.853  14.666
86140SOL    HW160259   3.541  14.815  14.599
86140SOL    HW260260   3.400  14.807  14.654
86141SOL     OW60261   2.831  12.900   4.737
86141SOL    HW160262   2.803  12.835   4.673
86141SOL    HW260263   2.920  12.924   4.711
86142SOL     OW60264  10.415   4.347  12.872
86142SOL    HW160265  10.450   4.285  12.936
86142SOL    HW260266  10.476   4.341  12.798
86143SOL     OW60267  14.267  14.360  11.589
86143SOL    HW160268  14.204  14.394  11.652
86143SOL    HW260269  14.295  14.438  11.540
86144SOL     OW60270   0.761  10.362   2.383
86144SOL    HW160271   0.793  10.444   2.345
86144SOL    HW260272   0.692  10.390   2.443
86145SOL     OW60273   3.821  10.179   9.366
86145SOL    HW160274   3.767  10.203   9.442
86145SOL    HW260275   3.772  10.109   9.323
86146SOL     OW60276  11.742   4.210   6.233
86146SOL    HW160277  11.711   4.123   6.210
86146SOL    HW260278  11.824   4.221   6.185
86147SOL     OW60279   9.196   3.492   6.665
86147SOL    HW160280   9.127   3.480   6.600
86147SOL    HW260281   9.245   3.569   6.635
86148SOL     OW60282  14.542   4.514   4.650
86148SOL    HW160283  14.513   4.585   4.708
86148SOL    HW260284  14.465   4.459   4.639
86149SOL     OW60285   0.461  13.744  11.740
86149SOL    HW160286   0.407  13.672  11.708
86149SOL    HW260287   0.460  13.735  11.835
86150SOL     OW60288  11.191  11.431  13.632
86150SOL    HW160289  11.269  11.478  13.662
86150SOL    HW260290  11.119  11.494  13.642
86151SOL     OW60291   4.847   1.963   1.285
86151SOL    HW160292   4.801   2.024   1.227
86151SOL    HW260293   4.853   1.882   1.235
86152SOL     OW60294  10.990   1.785  10.492
86152SOL    HW160295  11.040   1.852  10.539
86152SOL    HW260296  10.899   1.799  10.519
86153SOL     OW60297   0.890   9.409  14.214
86153SOL    HW160298   0.922   9.457  14.290
86153SOL    HW260299   0.916   9.463  14.139
86154SOL     OW60300   0.102   1.926   0.734
86154SOL    HW160301   0.195   1.917   0.717
86154SOL    HW260302   0.097   1.982   0.812
86155SOL     OW60303  12.516  14.246   6.263
86155SOL    HW160304  12.433  14.223   6.222
86155SOL    HW260305  12.502  14.232   6.356
86156SOL     OW60306  12.144   6.912   2.854
86156SOL    HW160307  12.076   6.976   2.876
86156SOL    HW260308  12.096   6.832   2.831
86157SOL     OW60309  11.230   3.920   7.090
86157SOL    HW160310  11.146   3.951   7.123
86157SOL    HW260311  11.233   3.949   6.999
86158SOL     OW60312  14.726   0.590   6.146
86158SOL    HW160313  14.758   0.575   6.057
86158SOL    HW260314  14.795   0.555   6.202
86159SOL     OW60315   9.429   4.658  12.365
86159SOL    HW160316   9.341   4.695  12.373
86159SOL    HW260317   9.421   4.569  12.400
86160SOL     OW60318   1.174   2.487  10.883
86160SOL    HW160319   1.191   2.546  10.810
86160SOL    HW260320   1.109   2.532  10.937
86161SOL     OW60321   2.152  14.639   1.698
86161SOL    HW160322   2.220  14.695   1.734
86161SOL    HW260323   2.099  14.614   1.774
86162SOL     OW60324   7.883   6.383  10.537
86162SOL    HW160325   7.822   6.320  10.575
86162SOL    HW260326   7.948   6.329  10.491
86163SOL     OW60327   5.714   9.110   5.854
86163SOL    HW160328   5.785   9.128   5.915
86163SOL    HW260329   5.689   9.019   5.871
86164SOL     OW60330  14.825   7.642  13.800
86164SOL    HW160331  14.847   7.733  13.782
86164SOL    HW260332  14.824   7.600  13.714
86165SOL     OW60333  14.475   0.967  10.909
86165SOL    HW160334  14.410   0.902  10.935
86165SOL    HW260335  14.510   1.001  10.991
86166SOL     OW60336   4.487   1.528   5.096
86166SOL    HW160337   4.400   1.512   5.059
86166SOL    HW260338   4.539   1.561   5.022
86167SOL     OW60339  11.957   8.982  11.549
86167SOL    HW160340  12.034   8.937  11.583
86167SOL    HW260341  11.947   8.949  11.460
86168SOL     OW60342   1.243   4.564   6.839
86168SOL    HW160343   1.196   4.618   6.775
86168SOL    HW260344   1.270   4.487   6.790
86169SOL     OW60345  10.769   5.771  12.384
86169SOL    HW160346  10.741   5.679  12.383
86169SOL    HW260347  10.864   5.766  12.369
86170SOL     OW60348   3.619   8.557   4.647
86170SOL    HW160349   3.690   8.579   4.707
86170SOL    HW260350   3.605   8.637   4.596
86171SOL     OW60351   5.071   5.468   7.333
86171SOL    HW160352   5.040   5.377   7.339
86171SOL    HW260353   5.073   5.486   7.239
86172SOL     OW60354   5.171   7.446  10.224
86172SOL    HW160355   5.260   7.416  10.242
86172SOL    HW260356   5.157   7.518  10.285
86173SOL     OW60357   8.393  10.818   8.143
86173SOL    HW160358   8.398  10.912   8.124
86173SOL    HW260359   8.478  10.797   8.180
86174SOL     OW60360  14.303   8.001   4.845
86174SOL    HW160361  14.393   8.034   4.851
86174SOL    HW260362  14.312   7.913   4.809
86175SOL     OW60363   2.470   3.989   6.682
86175SOL    HW160364   2.449   4.082   6.696
86175SOL    HW260365   2.547   3.990   6.625
86176SOL     OW60366   8.149   6.568   1.458
86176SOL    HW160367   8.185   6.600   1.541
86176SOL    HW260368   8.218   6.586   1.394
86177SOL     OW60369  12.119  14.164   0.203
86177SOL    HW160370  12.060  14.233   0.234
86177SOL    HW260371  12.090  14.146   0.114
86178SOL     OW60372   7.139   4.715  12.350
86178SOL    HW160373   7.191   4.645  12.310
86178SOL    HW260374   7.105   4.764  12.275
86179SOL     OW60375   3.519   6.442   1.653
86179SOL    HW160376   3.464   6.418   1.727
86179SOL    HW260377   3.464   6.428   1.576
86180SOL     OW60378   4.468   6.899   3.494
86180SOL    HW160379   4.463   6.897   3.399
86180SOL    HW260380   4.402   6.836   3.523
86181SOL     OW60381   3.342   8.633   1.078
86181SOL    HW160382   3.263   8.684   1.059
86181SOL    HW260383   3.353   8.577   1.001
86182SOL     OW60384  12.586  14.025   0.134
86182SOL    HW160385  12.513  14.060   0.185
86182SOL    HW260386  12.575  14.065   0.048
86183SOL     OW60387  12.975  10.442   9.287
86183SOL    HW160388  12.899  10.472   9.238
86183SOL    HW260389  13.047  10.495   9.253
86184SOL     OW60390   8.293  13.920   9.481
86184SOL    HW160391   8.202  13.896   9.496
86184SOL    HW260392   8.301  14.008   9.520
86185SOL     OW60393   3.264   2.730   7.476
86185SOL    HW160394   3.299   2.807   7.522
86185SOL    HW260395   3.183   2.710   7.522
86186SOL     OW60396   0.720   3.297   0.344
86186SOL    HW160397   0.797   3.255   0.383
86186SOL    HW260398   0.677   3.341   0.417
86187SOL     OW60399  13.442  11.248  10.756
86187SOL    HW160400  13.399  11.278  10.676
86187SOL    HW260401  13.395  11.293  10.826
86188SOL     OW60402   5.156   3.801   8.921
86188SOL    HW160403   5.248   3.827   8.923
86188SOL    HW260404   5.108   3.881   8.943
86189SOL     OW60405   9.610   5.866   3.222
86189SOL    HW160406   9.641   5.924   3.153
86189SOL    HW260407   9.628   5.778   3.190
86190SOL     OW60408  13.791   2.563  13.742
86190SOL    HW160409  13.722   2.544  13.679
86190SOL    HW260410  13.872   2.556  13.692
86191SOL     OW60411  14.047   4.222   7.934
86191SOL    HW160412  14.051   4.168   8.012
86191SOL    HW260413  14.090   4.304   7.958
86192SOL     OW60414  12.131   6.019   5.772
86192SOL    HW160415  12.169   5.932   5.786
86192SOL    HW260416  12.205   6.079   5.778
86193SOL     OW60417   0.094   6.364   1.375
86193SOL    HW160418   0.088   6.430   1.305
86193SOL    HW260419   0.172   6.389   1.425
86194SOL     OW60420   0.961   6.501   0.134
86194SOL    HW160421   0.975   6.477   0.226
86194SOL    HW260422   0.949   6.596   0.136
86195SOL     OW60423   9.650   2.720  12.190
86195SOL    HW160424   9.629   2.774  12.114
86195SOL    HW260425   9.565   2.690  12.223
86196SOL     OW60426   8.524   0.856  13.256
86196SOL    HW160427   8.478   0.906  13.189
86196SOL    HW260428   8.472   0.777  13.269
86197SOL     OW60429   4.575  10.159   8.450
86197SOL    HW160430   4.539  10.247   8.463
86197SOL    HW260431   4.512  10.101   8.494
86198SOL     OW60432  10.960  12.971  12.379
86198SOL    HW160433  11.036  12.929  12.418
86198SOL    HW260434  10.968  12.954  12.285
86199SOL     OW60435   5.648   6.034  13.496
86199SOL    HW160436   5.737   6.024  13.527
86199SOL    HW260437   5.657   6.066  13.406
86200SOL     OW60438  10.513  14.370   5.074
86200SOL    HW160439  10.551  14.427   5.140
86200SOL    HW260440  10.422  14.400   5.065
86201SOL     OW60441  13.744  13.165   0.410
86201SOL    HW160442  13.763  13.074   0.386
86201SOL    HW260443  13.698  13.201   0.334
86202SOL     OW60444   1.132   9.866   6.410
86202SOL    HW160445   1.074   9.801   6.371
86202SOL    HW260446   1.092   9.950   6.387
86203SOL     OW60447   6.344  10.435   1.945
86203SOL    HW160448   6.413  10.457   2.007
86203SOL    HW260449   6.377  10.357   1.900
86204SOL     OW60450   9.428  14.461   8.740
86204SOL    HW160451   9.420  14.389   8.677
86204SOL    HW260452   9.496  14.517   8.702
86205SOL     OW60453   9.216   1.571   0.408
86205SOL    HW160454   9.244   1.539   0.322
86205SOL    HW260455   9.181   1.494   0.452
86206SOL     OW60456   8.586   5.702  13.372
86206SOL    HW160457   8.657   5.756  13.406
86206SOL    HW260458   8.623   5.614  13.367
86207SOL     OW60459   5.245  12.365   0.933
86207SOL    HW160460   5.326  12.345   0.885
86207SOL    HW260461   5.199  12.282   0.939
86208SOL     OW60462  12.989  14.355   5.632
86208SOL    HW160463  12.940  14.282   5.595
86208SOL    HW260464  12.984  14.342   5.727
86209SOL     OW60465   3.093  10.832   5.697
86209SOL    HW160466   3.176  10.822   5.744
86209SOL    HW260467   3.026  10.829   5.765
86210SOL     OW60468  10.400  12.387   8.070
86210SOL    HW160469  10.323  12.404   8.016
86210SOL    HW260470  10.469  12.367   8.007
86211SOL     OW60471   4.251   5.526   7.493
86211SOL    HW160472   4.258   5.591   7.422
86211SOL    HW260473   4.321   5.550   7.554
86212SOL     OW60474  13.915  12.942  10.319
86212SOL    HW160475  13.987  12.945  10.381
86212SOL    HW260476  13.940  12.875  10.255
86213SOL     OW60477   7.072  10.212  14.874
86213SOL    HW160478   7.033  10.295  14.846
86213SOL    HW260479   7.118  10.180  14.796
86214SOL     OW60480   5.959   9.824   0.426
86214SOL    HW160481   5.954   9.729   0.434
86214SOL    HW260482   6.053   9.842   0.420
86215SOL     OW60483   4.512   9.101   1.002
86215SOL    HW160484   4.423   9.081   1.028
86215SOL    HW260485   4.504   9.174   0.940
86216SOL     OW60486   2.951   7.982   2.546
86216SOL    HW160487   3.025   7.948   2.596
86216SOL    HW260488   2.966   7.951   2.456
86217SOL     OW60489   4.834   3.879   7.550
86217SOL    HW160490   4.783   3.822   7.609
86217SOL    HW260491   4.873   3.944   7.608
86218SOL     OW60492   7.006   1.097  11.749
86218SOL    HW160493   7.034   1.111  11.658
86218SOL    HW260494   7.088   1.090  11.799
86219SOL     OW60495   3.916   0.673   0.544
86219SOL    HW160496   4.003   0.714   0.550
86219SOL    HW260497   3.932   0.580   0.560
86220SOL     OW60498   0.528  12.519   3.644
86220SOL    HW160499   0.445  12.563   3.665
86220SOL    HW260500   0.511  12.475   3.560
86221SOL     OW60501  10.690  11.541   3.311
86221SOL    HW160502  10.701  11.561   3.218
86221SOL    HW260503  10.638  11.461   3.313
86222SOL     OW60504   5.855  11.953   8.861
86222SOL    HW160505   5.894  12.040   8.851
86222SOL    HW260506   5.872  11.909   8.778
86223SOL     OW60507   8.938   4.744  10.907
86223SOL    HW160508   9.018   4.770  10.861
86223SOL    HW260509   8.933   4.649  10.893
86224SOL     OW60510  13.625   5.412   8.096
86224SOL    HW160511  13.603   5.490   8.146
86224SOL    HW260512  13.719   5.420   8.078
86225SOL     OW60513   7.956   3.630   7.748
86225SOL    HW160514   8.002   3.576   7.812
86225SOL    HW260515   7.893   3.681   7.799
86226SOL     OW60516   1.049   3.633   9.784
86226SOL    HW160517   0.988   3.623   9.711
86226SOL    HW260518   0.995   3.630   9.862
86227SOL     OW60519   1.450   0.382   0.431
86227SOL    HW160520   1.545   0.378   0.421
86227SOL    HW260521   1.435   0.455   0.491
86228SOL     OW60522  11.373  14.629   8.301
86228SOL    HW160523  11.285  14.631   8.264
86228SOL    HW260524  11.378  14.545   8.347
86229SOL     OW60525   0.167  13.686  11.421
86229SOL    HW160526   0.075  13.681  11.396
86229SOL    HW260527   0.168  13.743  11.498
86230SOL     OW60528   4.639   5.838   9.732
86230SOL    HW160529   4.635   5.915   9.676
86230SOL    HW260530   4.596   5.864   9.813
86231SOL     OW60531   6.499  13.703  14.874
86231SOL    HW160532   6.419  13.755  14.881
86231SOL    HW260533   6.494  13.642   0.066
86232SOL     OW60534   3.439   5.667  13.327
86232SOL    HW160535   3.353   5.643  13.363
86232SOL    HW260536   3.424   5.680  13.234
86233SOL     OW60537  12.712   8.878  12.853
86233SOL    HW160538  12.679   8.936  12.921
86233SOL    HW260539  12.716   8.792  12.894
86234SOL     OW60540  12.210  10.717   8.938
86234SOL    HW160541  12.193  10.678   9.023
86234SOL    HW260542  12.289  10.770   8.951
86235SOL     OW60543   0.611   3.385   1.004
86235SOL    HW160544   0.673   3.447   1.042
86235SOL    HW260545   0.637   3.377   0.912
86236SOL     OW60546   2.347   7.742   6.109
86236SOL    HW160547   2.339   7.649   6.131
86236SOL    HW260548   2.286   7.755   6.037
86237SOL     OW60549   8.973   6.787  12.808
86237SOL    HW160550   8.990   6.879  12.830
86237SOL    HW260551   8.910   6.758  12.873
86238SOL     OW60552   6.315   9.655  14.287
86238SOL    HW160553   6.229   9.698  14.295
86238SOL    HW260554   6.341   9.638  14.377
86239SOL     OW60555   1.285   0.375   7.108
86239SOL    HW160556   1.209   0.422   7.143
86239SOL    HW260557   1.249   0.320   7.039
86240SOL     OW60558   2.875   3.010   9.030
86240SOL    HW160559   2.864   2.945   9.099
86240SOL    HW260560   2.794   3.061   9.032
86241SOL     OW60561   6.486   6.627  11.806
86241SOL    HW160562   6.391   6.617  11.809
86241SOL    HW260563   6.503   6.669  11.721
86242SOL     OW60564  11.253   9.964   3.050
86242SOL    HW160565  11.172  10.003   3.084
86242SOL    HW260566  11.236   9.954   2.956
86243SOL     OW60567   0.973  12.963   1.806
86243SOL    HW160568   0.961  13.052   1.838
86243SOL    HW260569   0.910  12.910   1.856
86244SOL     OW60570   9.367  11.495   8.830
86244SOL    HW160571   9.433  11.496   8.899
86244SOL    HW260572   9.415  11.520   8.751
86245SOL     OW60573   6.336  11.324   4.697
86245SOL    HW160574   6.315  11.240   4.656
86245SOL    HW260575   6.329  11.307   4.791
86246SOL     OW60576   9.621   8.177   0.793
86246SOL    HW160577   9.567   8.098   0.802
86246SOL    HW260578   9.565   8.248   0.823
86247SOL     OW60579  12.186   0.857   2.069
86247SOL    HW160580  12.203   0.930   2.010
86247SOL    HW260581  12.094   0.867   2.093
86248SOL     OW60582  14.492  12.588   2.178
86248SOL    HW160583  14.414  12.540   2.151
86248SOL    HW260584  14.510  12.647   2.104
86249SOL     OW60585  10.487   6.168  10.266
86249SOL    HW160586  10.574   6.131  10.253
86249SOL    HW260587  10.455   6.124  10.345
86250SOL     OW60588  14.483  12.987   1.601
86250SOL    HW160589  14.439  13.011   1.519
86250SOL    HW260590  14.424  12.924   1.642
86251SOL     OW60591   6.568   7.200   7.081
86251SOL    HW160592   6.487   7.166   7.121
86251SOL    HW260593   6.583   7.143   7.006
86252SOL     OW60594   7.833   2.503   7.766
86252SOL    HW160595   7.753   2.537   7.805
86252SOL    HW260596   7.882   2.464   7.839
86253SOL     OW60597  14.355   7.928   1.538
86253SOL    HW160598  14.318   7.840   1.547
86253SOL    HW260599  14.415   7.921   1.464
86254SOL     OW60600  13.343  12.526   6.988
86254SOL    HW160601  13.278  12.462   6.959
86254SOL    HW260602  13.371  12.570   6.908
86255SOL     OW60603   4.410   0.168   4.394
86255SOL    HW160604   4.489   0.122   4.365
86255SOL    HW260605   4.364   0.105   4.450
86256SOL     OW60606   8.641  12.075   2.589
86256SOL    HW160607   8.662  11.998   2.643
86256SOL    HW260608   8.691  12.146   2.629
86257SOL     OW60609   3.631   9.537   5.483
86257SOL    HW160610   3.559   9.480   5.509
86257SOL    HW260611   3.643   9.595   5.558
86258SOL     OW60612   6.647   5.619   4.552
86258SOL    HW160613   6.706   5.544   4.544
86258SOL    HW260614   6.592   5.615   4.473
86259SOL     OW60615   2.621   0.662  14.575
86259SOL    HW160616   2.545   0.605  14.576
86259SOL    HW260617   2.679   0.627  14.643
86260SOL     OW60618   2.089   4.521   0.731
86260SOL    HW160619   2.057   4.605   0.761
86260SOL    HW260620   2.033   4.456   0.774
86261SOL     OW60621   0.732  12.205   7.503
86261SOL    HW160622   0.699  12.260   7.574
86261SOL    HW260623   0.661  12.144   7.485
86262SOL     OW60624  14.833  14.371  13.145
86262SOL    HW160625  14.810  14.367  13.053
86262SOL    HW260626  14.771  14.311  13.188
86263SOL     OW60627  11.361   5.714  12.641
86263SOL    HW160628  11.446   5.676  12.666
86263SOL    HW260629  11.298   5.646  12.662
86264SOL     OW60630  12.365   1.471   4.192
86264SOL    HW160631  12.434   1.531   4.219
86264SOL    HW260632  12.284   1.515   4.218
86265SOL     OW60633   7.253  12.357   0.346
86265SOL    HW160634   7.175  12.396   0.386
86265SOL    HW260635   7.221  12.317   0.265
86266SOL     OW60636   1.688   9.648   8.403
86266SOL    HW160637   1.724   9.592   8.471
86266SOL    HW260638   1.644   9.719   8.451
86267SOL     OW60639  13.786  13.895   7.735
86267SOL    HW160640  13.850  13.943   7.683
86267SOL    HW260641  13.808  13.915   7.825
86268SOL     OW60642   9.842   5.751   5.106
86268SOL    HW160643   9.921   5.703   5.082
86268SOL    HW260644   9.787   5.747   5.028
86269SOL     OW60645   7.977   7.316  11.787
86269SOL    HW160646   8.039   7.310  11.715
86269SOL    HW260647   7.966   7.226  11.818
86270SOL     OW60648  13.575  11.179   8.540
86270SOL    HW160649  13.655  11.146   8.582
86270SOL    HW260650  13.516  11.103   8.538
86271SOL     OW60651  12.633   6.615   5.408
86271SOL    HW160652  12.614   6.633   5.316
86271SOL    HW260653  12.642   6.520   5.412
86272SOL     OW60654  13.303   6.171   5.014
86272SOL    HW160655  13.376   6.149   5.071
86272SOL    HW260656  13.242   6.098   5.022
86273SOL     OW60657  12.166   9.250  11.866
86273SOL    HW160658  12.173   9.193  11.943
86273SOL    HW260659  12.182   9.338  11.899
86274SOL     OW60660   6.142   3.593   7.430
86274SOL    HW160661   6.082   3.519   7.426
86274SOL    HW260662   6.108   3.649   7.499
86275SOL     OW60663   0.941   3.470  10.551
86275SOL    HW160664   0.966   3.545  10.498
86275SOL    HW260665   1.024   3.432  10.580
86276SOL     OW60666   3.167   8.679  10.076
86276SOL    HW160667   3.220   8.608  10.114
86276SOL    HW260668   3.120   8.637  10.004
86277SOL     OW60669  12.098  11.958   1.543
86277SOL    HW160670  12.153  12.011   1.600
86277SOL    HW260671  12.011  11.999   1.548
86278SOL     OW60672   0.123  10.082   5.591
86278SOL    HW160673   0.056  10.118   5.532
86278SOL    HW260674   0.142   9.995   5.556
86279SOL     OW60675  10.212   0.701   8.158
86279SOL    HW160676  10.136   0.714   8.215
86279SOL    HW260677  10.252   0.788   8.152
86280SOL     OW60678   8.293   5.598   5.315
86280SOL    HW160679   8.355   5.669   5.335
86280SOL    HW260680   8.270   5.561   5.400
86281SOL     OW60681  10.482  11.696   9.187
86281SOL    HW160682  10.556  11.681   9.128
86281SOL    HW260683  10.445  11.609   9.201
86282SOL     OW60684   3.814  12.285  11.767
86282SOL    HW160685   3.842  12.278  11.859
86282SOL    HW260686   3.728  12.242  11.766
86283SOL     OW60687   9.573   4.007   0.872
86283SOL    HW160688   9.637   3.999   0.942
86283SOL    HW260689   9.514   3.932   0.883
86284SOL     OW60690   3.776   3.700  14.241
86284SOL    HW160691   3.841   3.653  14.189
86284SOL    HW260692   3.739   3.633  14.299
86285SOL     OW60693   6.391   8.578   9.107
86285SOL    HW160694   6.360   8.619   9.026
86285SOL    HW260695   6.367   8.640   9.176
86286SOL     OW60696   9.656  11.479   9.605
86286SOL    HW160697   9.617  11.562   9.576
86286SOL    HW260698   9.582  11.419   9.614
86287SOL     OW60699  12.899  14.098   3.950
86287SOL    HW160700  12.924  14.074   3.861
86287SOL    HW260701  12.844  14.176   3.939
86288SOL     OW60702   7.389   8.384   3.520
86288SOL    HW160703   7.472   8.361   3.562
86288SOL    HW260704   7.415   8.428   3.439
86289SOL     OW60705  10.637   9.487  14.341
86289SOL    HW160706  10.580   9.411  14.325
86289SOL    HW260707  10.586   9.562  14.313
86290SOL     OW60708   5.675   5.837   9.385
86290SOL    HW160709   5.756   5.866   9.341
86290SOL    HW260710   5.619   5.806   9.313
86291SOL     OW60711   4.098   7.014  12.716
86291SOL    HW160712   4.059   7.015  12.804
86291SOL    HW260713   4.077   7.101  12.680
86292SOL     OW60714   9.647   6.599   2.300
86292SOL    HW160715   9.680   6.679   2.342
86292SOL    HW260716   9.560   6.622   2.269
86293SOL     OW60717   5.734   7.586  10.210
86293SOL    HW160718   5.820   7.628  10.221
86293SOL    HW260719   5.734   7.515  10.275
86294SOL     OW60720  13.784  12.700   6.534
86294SOL    HW160721  13.807  12.699   6.441
86294SOL    HW260722  13.719  12.770   6.542
86295SOL     OW60723   7.959   6.663   0.238
86295SOL    HW160724   7.934   6.740   0.288
86295SOL    HW260725   7.879   6.611   0.232
86296SOL     OW60726   2.224  12.567   8.951
86296SOL    HW160727   2.230  12.523   8.866
86296SOL    HW260728   2.178  12.504   9.007
86297SOL     OW60729  10.462   2.991  13.407
86297SOL    HW160730  10.484   2.908  13.363
86297SOL    HW260731  10.532   3.002  13.471
86298SOL     OW60732   6.289   2.680   7.037
86298SOL    HW160733   6.333   2.702   7.119
86298SOL    HW260734   6.309   2.754   6.979
86299SOL     OW60735   1.974   4.319   3.184
86299SOL    HW160736   2.007   4.375   3.253
86299SOL    HW260737   1.919   4.255   3.229
86300SOL     OW60738   2.996   6.311  14.574
86300SOL    HW160739   3.077   6.261  14.562
86300SOL    HW260740   2.931   6.245  14.599
86301SOL     OW60741   3.990   0.685   9.511
86301SOL    HW160742   4.053   0.629   9.557
86301SOL    HW260743   3.958   0.744   9.579
86302SOL     OW60744  10.266   2.563  11.444
86302SOL    HW160745  10.303   2.542  11.358
86302SOL    HW260746  10.336   2.609  11.490
86303SOL     OW60747   1.185   8.302   2.296
86303SOL    HW160748   1.201   8.303   2.201
86303SOL    HW260749   1.132   8.381   2.312
86304SOL     OW60750   2.613   7.133  14.146
86304SOL    HW160751   2.653   7.058  14.190
86304SOL    HW260752   2.669   7.207  14.167
86305SOL     OW60753   4.949  10.503   8.529
86305SOL    HW160754   4.857  10.515   8.551
86305SOL    HW260755   4.980  10.435   8.589
86306SOL     OW60756   2.067   0.177   3.635
86306SOL    HW160757   2.123   0.233   3.689
86306SOL    HW260758   2.128   0.123   3.585
86307SOL     OW60759  10.295   2.364  13.539
86307SOL    HW160760  10.232   2.434  13.559
86307SOL    HW260761  10.297   2.361  13.444
86308SOL     OW60762  14.197   4.270   1.678
86308SOL    HW160763  14.194   4.175   1.689
86308SOL    HW260764  14.109   4.300   1.697
86309SOL     OW60765   2.892  12.978   3.983
86309SOL    HW160766   2.841  12.905   4.019
86309SOL    HW260767   2.830  13.023   3.926
86310SOL     OW60768   1.643   3.820   2.573
86310SOL    HW160769   1.724   3.770   2.584
86310SOL    HW260770   1.587   3.764   2.520
86311SOL     OW60771   4.487  11.129   7.277
86311SOL    HW160772   4.401  11.093   7.253
86311SOL    HW260773   4.479  11.223   7.261
86312SOL     OW60774  12.200  11.875   7.760
86312SOL    HW160775  12.230  11.945   7.817
86312SOL    HW260776  12.177  11.803   7.820
86313SOL     OW60777   8.982  10.853   3.728
86313SOL    HW160778   8.945  10.781   3.676
86313SOL    HW260779   8.937  10.846   3.813
86314SOL     OW60780   0.818   4.093   0.034
86314SOL    HW160781   0.817   4.070   0.127
86314SOL    HW260782   0.911   4.096   0.012
86315SOL     OW60783  11.891   2.467   1.814
86315SOL    HW160784  11.929   2.554   1.825
86315SOL    HW260785  11.906   2.423   1.898
86316SOL     OW60786   5.355   8.825  14.276
86316SOL    HW160787   5.373   8.740  14.315
86316SOL    HW260788   5.355   8.810  14.182
86317SOL     OW60789   5.872  10.114   0.478
86317SOL    HW160790   5.781  10.122   0.506
86317SOL    HW260791   5.886  10.020   0.467
86318SOL     OW60792   8.095   4.533   2.708
86318SOL    HW160793   8.189   4.517   2.717
86318SOL    HW260794   8.085   4.627   2.725
86319SOL     OW60795   5.280  14.592   2.166
86319SOL    HW160796   5.372  14.563   2.168
86319SOL    HW260797   5.234  14.522   2.120
86320SOL     OW60798   5.808   1.185  10.565
86320SOL    HW160799   5.723   1.215  10.533
86320SOL    HW260800   5.852   1.265  10.595
86321SOL     OW60801   0.079  11.416   7.515
86321SOL    HW160802   0.014  11.476   7.551
86321SOL    HW260803   0.049  11.400   7.425
86322SOL     OW60804   5.987   4.397   5.897
86322SOL    HW160805   5.918   4.345   5.857
86322SOL    HW260806   5.989   4.368   5.989
86323SOL     OW60807   0.861   6.782  13.684
86323SOL    HW160808   0.945   6.778  13.639
86323SOL    HW260809   0.855   6.872  13.715
86324SOL     OW60810   1.872   4.316   2.383
86324SOL    HW160811   1.838   4.292   2.469
86324SOL    HW260812   1.795   4.345   2.334
86325SOL     OW60813  10.773   6.795  12.297
86325SOL    HW160814  10.779   6.858  12.224
86325SOL    HW260815  10.720   6.840  12.363
86326SOL     OW60816   0.654   3.355  14.308
86326SOL    HW160817   0.691   3.358  14.220
86326SOL    HW260818   0.729   3.350  14.366
86327SOL     OW60819  12.968   7.631  12.535
86327SOL    HW160820  13.053   7.588  12.528
86327SOL    HW260821  12.974   7.707  12.477
86328SOL     OW60822   7.859  13.078   0.074
86328SOL    HW160823   7.835  13.086  14.864
86328SOL    HW260824   7.798  13.135   0.120
86329SOL     OW60825  11.853   0.494   3.873
86329SOL    HW160826  11.860   0.460   3.784
86329SOL    HW260827  11.762   0.475   3.899
86330SOL     OW60828  11.932  11.060   6.569
86330SOL    HW160829  12.021  11.026   6.569
86330SOL    HW260830  11.880  10.990   6.608
86331SOL     OW60831  10.496  11.158   8.293
86331SOL    HW160832  10.493  11.217   8.368
86331SOL    HW260833  10.416  11.105   8.301
86332SOL     OW60834   9.887  14.664   8.644
86332SOL    HW160835   9.940  14.628   8.573
86332SOL    HW260836   9.940  14.734   8.681
86333SOL     OW60837  13.188   2.189  14.239
86333SOL    HW160838  13.236   2.257  14.192
86333SOL    HW260839  13.115   2.236  14.280
86334SOL     OW60840  12.504  10.799   6.377
86334SOL    HW160841  12.550  10.715   6.365
86334SOL    HW260842  12.441  10.802   6.305
86335SOL     OW60843   5.790  14.007   9.538
86335SOL    HW160844   5.782  14.099   9.565
86335SOL    HW260845   5.884  13.991   9.533
86336SOL     OW60846  11.047  14.122  11.452
86336SOL    HW160847  11.004  14.037  11.443
86336SOL    HW260848  10.989  14.172  11.509
86337SOL     OW60849   9.580  14.640  12.469
86337SOL    HW160850   9.638  14.664  12.540
86337SOL    HW260851   9.531  14.564  12.503
86338SOL     OW60852  12.170   8.397   6.363
86338SOL    HW160853  12.219   8.452   6.424
86338SOL    HW260854  12.228   8.322   6.347
86339SOL     OW60855   0.713  11.157   7.475
86339SOL    HW160856   0.672  11.205   7.403
86339SOL    HW260857   0.797  11.129   7.440
86340SOL     OW60858   1.753   6.926   7.446
86340SOL    HW160859   1.708   6.842   7.458
86340SOL    HW260860   1.830   6.904   7.394
86341SOL     OW60861   3.240   2.556   6.179
86341SOL    HW160862   3.301   2.538   6.251
86341SOL    HW260863   3.230   2.651   6.179
86342SOL     OW60864   7.124  10.764   4.428
86342SOL    HW160865   7.126  10.853   4.465
86342SOL    HW260866   7.040  10.729   4.457
86343SOL     OW60867  10.742  13.392   9.779
86343SOL    HW160868  10.696  13.442   9.710
86343SOL    HW260869  10.776  13.315   9.734
86344SOL     OW60870   1.894  10.516   0.052
86344SOL    HW160871   1.865  10.591  14.882
86344SOL    HW260872   1.842  10.521   0.132
86345SOL     OW60873   5.331   8.879  10.999
86345SOL    HW160874   5.357   8.945  11.064
86345SOL    HW260875   5.397   8.810  11.008
86346SOL     OW60876   2.273   5.098   4.362
86346SOL    HW160877   2.273   5.003   4.350
86346SOL    HW260878   2.277   5.134   4.273
86347SOL     OW60879   5.759  11.397  13.018
86347SOL    HW160880   5.813  11.356  13.085
86347SOL    HW260881   5.720  11.324  12.970
86348SOL     OW60882  12.778   4.934   5.952
86348SOL    HW160883  12.866   4.971   5.961
86348SOL    HW260884  12.744   4.971   5.870
86349SOL     OW60885   1.435  14.493   6.873
86349SOL    HW160886   1.441  14.507   6.967
86349SOL    HW260887   1.371  14.557   6.842
86350SOL     OW60888   1.464  14.752   5.630
86350SOL    HW160889   1.501  14.765   5.718
86350SOL    HW260890   1.421  14.666   5.635
86351SOL     OW60891   2.898   6.092   3.933
86351SOL    HW160892   2.896   6.188   3.935
86351SOL    HW260893   2.991   6.070   3.931
86352SOL     OW60894   6.244   3.820   8.439
86352SOL    HW160895   6.336   3.833   8.461
86352SOL    HW260896   6.197   3.840   8.520
86353SOL     OW60897   5.848   2.250   5.125
86353SOL    HW160898   5.784   2.228   5.194
86353SOL    HW260899   5.840   2.179   5.061
86354SOL     OW60900   5.689   4.531   0.260
86354SOL    HW160901   5.753   4.493   0.320
86354SOL    HW260902   5.638   4.591   0.314
86355SOL     OW60903   2.572  12.255   4.431
86355SOL    HW160904   2.523  12.232   4.352
86355SOL    HW260905   2.640  12.315   4.401
86356SOL     OW60906  12.922  14.029  11.412
86356SOL    HW160907  12.978  14.091  11.365
86356SOL    HW260908  12.977  13.996  11.483
86357SOL     OW60909  13.333   6.070  12.928
86357SOL    HW160910  13.322   5.991  12.875
86357SOL    HW260911  13.417   6.058  12.973
86358SOL     OW60912   4.357  11.492  14.196
86358SOL    HW160913   4.262  11.498  14.181
86358SOL    HW260914   4.381  11.580  14.226
86359SOL     OW60915   3.378   6.826   3.494
86359SOL    HW160916   3.406   6.827   3.402
86359SOL    HW260917   3.455   6.797   3.543
86360SOL     OW60918   0.596   1.714   9.168
86360SOL    HW160919   0.524   1.733   9.228
86360SOL    HW260920   0.633   1.631   9.201
86361SOL     OW60921  10.017   8.143   7.939
86361SOL    HW160922  10.006   8.238   7.949
86361SOL    HW260923  10.111   8.131   7.931
86362SOL     OW60924   5.405   2.373  14.212
86362SOL    HW160925   5.434   2.424  14.136
86362SOL    HW260926   5.408   2.282  14.183
86363SOL     OW60927   1.329   9.875   4.576
86363SOL    HW160928   1.416   9.838   4.562
86363SOL    HW260929   1.338   9.967   4.551
86364SOL     OW60930   3.693   6.556   4.523
86364SOL    HW160931   3.608   6.522   4.549
86364SOL    HW260932   3.756   6.501   4.569
86365SOL     OW60933   6.825  14.482   4.505
86365SOL    HW160934   6.821  14.391   4.474
86365SOL    HW260935   6.918  14.495   4.528
86366SOL     OW60936   0.135  13.163  14.408
86366SOL    HW160937   0.048  13.160  14.448
86366SOL    HW260938   0.181  13.233  14.454
86367SOL     OW60939   5.137   7.098   1.346
86367SOL    HW160940   5.223   7.069   1.316
86367SOL    HW260941   5.152   7.125   1.437
86368SOL     OW60942   6.466  11.719   5.321
86368SOL    HW160943   6.423  11.732   5.236
86368SOL    HW260944   6.503  11.805   5.342
86369SOL     OW60945   3.234   4.295  12.712
86369SOL    HW160946   3.165   4.237  12.682
86369SOL    HW260947   3.309   4.275  12.655
86370SOL     OW60948  12.059  14.694   5.390
86370SOL    HW160949  12.088  14.784   5.403
86370SOL    HW260950  12.016  14.694   5.304
86371SOL     OW60951   1.145   6.892   8.977
86371SOL    HW160952   1.081   6.962   8.990
86371SOL    HW260953   1.197   6.922   8.902
86372SOL     OW60954   7.205   5.007   3.664
86372SOL    HW160955   7.191   4.998   3.758
86372SOL    HW260956   7.197   4.919   3.629
86373SOL     OW60957  14.359   9.113   4.968
86373SOL    HW160958  14.317   9.041   4.920
86373SOL    HW260959  14.440   9.129   4.920
86374SOL     OW60960   6.733   9.269   1.277
86374SOL    HW160961   6.810   9.300   1.229
86374SOL    HW260962   6.700   9.348   1.321
86375SOL     OW60963   4.575   2.859   3.388
86375SOL    HW160964   4.638   2.867   3.459
86375SOL    HW260965   4.626   2.873   3.308
86376SOL     OW60966  13.500   7.815  10.740
86376SOL    HW160967  13.519   7.908  10.739
86376SOL    HW260968  13.461   7.799  10.826
86377SOL     OW60969   8.256   0.182  10.040
86377SOL    HW160970   8.303   0.224   9.968
86377SOL    HW260971   8.303   0.209  10.119
86378SOL     OW60972   1.788   6.831   4.770
86378SOL    HW160973   1.806   6.837   4.676
86378SOL    HW260974   1.748   6.745   4.781
86379SOL     OW60975   0.497   9.057   5.747
86379SOL    HW160976   0.511   9.005   5.668
86379SOL    HW260977   0.536   9.142   5.727
86380SOL     OW60978   0.005   0.360   0.704
86380SOL    HW160979  14.879   0.453   0.686
86380SOL    HW260980   0.070   0.354   0.773
86381SOL     OW60981   6.958   4.410  13.685
86381SOL    HW160982   6.899   4.338  13.662
86381SOL    HW260983   7.043   4.384  13.650
86382SOL     OW60984  11.522  13.205   1.688
86382SOL    HW160985  11.436  13.199   1.647
86382SOL    HW260986  11.506  13.186   1.780
86383SOL     OW60987   0.792   4.841   0.686
86383SOL    HW160988   0.806   4.747   0.688
86383SOL    HW260989   0.715   4.853   0.632
86384SOL     OW60990   9.518   6.609   9.463
86384SOL    HW160991   9.550   6.554   9.535
86384SOL    HW260992   9.593   6.664   9.441
86385SOL     OW60993   0.794   1.617   3.483
86385SOL    HW160994   0.794   1.524   3.459
86385SOL    HW260995   0.705   1.634   3.513
86386SOL     OW60996   9.180  11.145  11.977
86386SOL    HW160997   9.152  11.061  11.942
86386SOL    HW260998   9.204  11.126  12.068
86387SOL     OW60999   5.489  12.921   6.736
86387SOL    HW161000   5.475  12.989   6.801
86387SOL    HW261001   5.558  12.866   6.773
86388SOL     OW61002   8.095  14.329  11.673
86388SOL    HW161003   8.112  14.273  11.597
86388SOL    HW261004   8.160  14.399  11.666
86389SOL     OW61005   4.752  11.066  12.247
86389SOL    HW161006   4.730  11.058  12.154
86389SOL    HW261007   4.812  11.140  12.251
86390SOL     OW61008  13.220   1.558   0.957
86390SOL    HW161009  13.310   1.579   0.929
86390SOL    HW261010  13.230   1.488   1.021
86391SOL     OW61011   8.128  12.670  13.540
86391SOL    HW161012   8.160  12.651  13.452
86391SOL    HW261013   8.045  12.622  13.546
86392SOL     OW61014   0.158   0.902  10.263
86392SOL    HW161015   0.113   0.897  10.179
86392SOL    HW261016   0.171   0.996  10.278
86393SOL     OW61017   4.015   0.501   7.950
86393SOL    HW161018   3.989   0.465   7.865
86393SOL    HW261019   4.045   0.590   7.930
86394SOL     OW61020   6.961   6.655  11.132
86394SOL    HW161021   6.909   6.606  11.196
86394SOL    HW261022   7.049   6.657  11.170
86395SOL     OW61023  10.686  10.486   1.147
86395SOL    HW161024  10.684  10.581   1.159
86395SOL    HW261025  10.599  10.465   1.113
86396SOL     OW61026  13.289  11.658   0.344
86396SOL    HW161027  13.306  11.742   0.388
86396SOL    HW261028  13.376  11.619   0.333
86397SOL     OW61029  13.062  10.403   0.581
86397SOL    HW161030  13.018  10.413   0.496
86397SOL    HW261031  13.141  10.353   0.561
86398SOL     OW61032   6.224   3.240   5.159
86398SOL    HW161033   6.138   3.282   5.150
86398SOL    HW261034   6.222   3.198   5.245
86399SOL     OW61035  12.544  14.156   5.143
86399SOL    HW161036  12.561  14.159   5.237
86399SOL    HW261037  12.460  14.202   5.132
86400SOL     OW61038   8.826  11.353   2.096
86400SOL    HW161039   8.841  11.447   2.103
86400SOL    HW261040   8.911  11.313   2.114
86401SOL     OW61041   6.599  12.293  10.582
86401SOL    HW161042   6.669  12.230  10.565
86401SOL    HW261043   6.644  12.374  10.604
86402SOL     OW61044   2.179   1.189   0.148
86402SOL    HW161045   2.151   1.280   0.154
86402SOL    HW261046   2.233   1.186   0.070
86403SOL     OW61047   7.704  11.918   8.204
86403SOL    HW161048   7.756  11.915   8.123
86403SOL    HW261049   7.616  11.944   8.175
86404SOL     OW61050  11.378   8.692   7.064
86404SOL    HW161051  11.469   8.718   7.073
86404SOL    HW261052  11.369   8.663   6.973
86405SOL     OW61053   5.496   1.030   7.497
86405SOL    HW161054   5.408   0.993   7.492
86405SOL    HW261055   5.506   1.079   7.416
86406SOL     OW61056  12.077  12.122  10.455
86406SOL    HW161057  12.103  12.187  10.391
86406SOL    HW261058  12.139  12.050  10.443
86407SOL     OW61059   0.533  10.804  11.800
86407SOL    HW161060   0.459  10.756  11.763
86407SOL    HW261061   0.583  10.833  11.723
86408SOL     OW61062   8.497   5.407   5.720
86408SOL    HW161063   8.565   5.341   5.709
86408SOL    HW261064   8.518   5.476   5.657
86409SOL     OW61065   0.523  12.768  13.619
86409SOL    HW161066   0.590  12.713  13.659
86409SOL    HW261067   0.510  12.730  13.532
86410SOL     OW61068   2.396   7.368  13.936
86410SOL    HW161069   2.357   7.281  13.932
86410SOL    HW261070   2.371   7.402  14.022
86411SOL     OW61071  14.472   7.026  13.478
86411SOL    HW161072  14.457   7.103  13.424
86411SOL    HW261073  14.563   7.002  13.462
86412SOL     OW61074   8.040  10.149   5.169
86412SOL    HW161075   8.081  10.233   5.148
86412SOL    HW261076   7.947  10.163   5.152
86413SOL     OW61077   1.747   0.957   7.309
86413SOL    HW161078   1.814   0.995   7.365
86413SOL    HW261079   1.790   0.883   7.266
86414SOL     OW61080   9.717   5.170   1.405
86414SOL    HW161081   9.721   5.256   1.363
86414SOL    HW261082   9.696   5.190   1.496
86415SOL     OW61083   3.695   1.638  10.992
86415SOL    HW161084   3.607   1.606  11.015
86415SOL    HW261085   3.747   1.621  11.070
86416SOL     OW61086   2.211   2.297  10.534
86416SOL    HW161087   2.279   2.342  10.584
86416SOL    HW261088   2.244   2.207  10.524
86417SOL     OW61089   2.337   0.524  10.958
86417SOL    HW161090   2.412   0.525  10.899
86417SOL    HW261091   2.324   0.431  10.979
86418SOL     OW61092  13.390  12.443   5.170
86418SOL    HW161093  13.438  12.525   5.185
86418SOL    HW261094  13.346  12.426   5.254
86419SOL     OW61095  12.905   6.953   2.435
86419SOL    HW161096  12.851   7.024   2.400
86419SOL    HW261097  12.868   6.934   2.521
86420SOL     OW61098   3.874   2.582   8.458
86420SOL    HW161099   3.892   2.640   8.532
86420SOL    HW261100   3.785   2.604   8.432
86421SOL     OW61101   5.281   2.417   1.084
86421SOL    HW161102   5.235   2.378   1.158
86421SOL    HW261103   5.224   2.487   1.054
86422SOL     OW61104   1.547  13.545  12.119
86422SOL    HW161105   1.578  13.635  12.129
86422SOL    HW261106   1.619  13.500  12.075
86423SOL     OW61107   1.494   7.258   4.851
86423SOL    HW161108   1.409   7.271   4.810
86423SOL    HW261109   1.544   7.207   4.788
86424SOL     OW61110   0.978  12.828  10.111
86424SOL    HW161111   0.989  12.757  10.175
86424SOL    HW261112   0.976  12.908  10.164
86425SOL     OW61113  12.996  10.129  12.979
86425SOL    HW161114  12.913  10.090  13.007
86425SOL    HW261115  13.026  10.072  12.908
86426SOL     OW61116  13.049  13.722   9.779
86426SOL    HW161117  13.141  13.709   9.802
86426SOL    HW261118  13.000  13.673   9.845
86427SOL     OW61119  13.393  10.564   8.702
86427SOL    HW161120  13.408  10.651   8.740
86427SOL    HW261121  13.362  10.511   8.775
86428SOL     OW61122   8.035   2.052   3.140
86428SOL    HW161123   8.033   1.964   3.104
86428SOL    HW261124   7.958   2.095   3.103
86429SOL     OW61125   7.841  12.760   4.110
86429SOL    HW161126   7.880  12.776   4.024
86429SOL    HW261127   7.773  12.695   4.095
86430SOL     OW61128   5.566  12.034   3.124
86430SOL    HW161129   5.507  12.093   3.078
86430SOL    HW261130   5.556  12.056   3.217
86431SOL     OW61131   9.393   4.520   4.299
86431SOL    HW161132   9.333   4.448   4.280
86431SOL    HW261133   9.341   4.599   4.285
86432SOL     OW61134  11.682   5.450   6.868
86432SOL    HW161135  11.756   5.390   6.881
86432SOL    HW261136  11.621   5.429   6.938
86433SOL     OW61137   4.089  14.377  11.148
86433SOL    HW161138   4.174  14.352  11.112
86433SOL    HW261139   4.028  14.312  11.114
86434SOL     OW61140   3.142   7.179   3.030
86434SOL    HW161141   3.102   7.148   3.111
86434SOL    HW261142   3.165   7.270   3.048
86435SOL     OW61143  12.864  12.584  13.874
86435SOL    HW161144  12.793  12.520  13.864
86435SOL    HW261145  12.820  12.669  13.873
86436SOL     OW61146  14.160  13.751   2.596
86436SOL    HW161147  14.127  13.744   2.686
86436SOL    HW261148  14.215  13.830   2.597
86437SOL     OW61149   7.133  11.915   1.288
86437SOL    HW161150   7.110  12.004   1.316
86437SOL    HW261151   7.095  11.908   1.200
86438SOL     OW61152  11.989   7.141   1.921
86438SOL    HW161153  11.945   7.110   1.842
86438SOL    HW261154  12.082   7.133   1.901
86439SOL     OW61155   3.052  12.254   2.433
86439SOL    HW161156   2.985  12.300   2.484
86439SOL    HW261157   3.058  12.302   2.351
86440SOL     OW61158   9.681   9.680   8.020
86440SOL    HW161159   9.611   9.666   8.084
86440SOL    HW261160   9.638   9.723   7.946
86441SOL     OW61161  13.115   1.046   3.864
86441SOL    HW161162  13.194   1.064   3.814
86441SOL    HW261163  13.065   0.984   3.810
86442SOL     OW61164  13.400  10.039  14.475
86442SOL    HW161165  13.366  10.112  14.425
86442SOL    HW261166  13.450   9.987  14.412
86443SOL     OW61167   0.912  10.502  11.397
86443SOL    HW161168   0.896  10.464  11.310
86443SOL    HW261169   0.888  10.594  11.387
86444SOL     OW61170   5.559   8.971  12.573
86444SOL    HW161171   5.471   8.986  12.606
86444SOL    HW261172   5.614   9.030  12.624
86445SOL     OW61173   1.185   8.913   9.920
86445SOL    HW161174   1.240   8.990   9.916
86445SOL    HW261175   1.158   8.907  10.012
86446SOL     OW61176   2.206   5.890   1.504
86446SOL    HW161177   2.286   5.852   1.542
86446SOL    HW261178   2.171   5.821   1.449
86447SOL     OW61179   8.315  14.738   5.615
86447SOL    HW161180   8.254  14.792   5.665
86447SOL    HW261181   8.339  14.666   5.674
86448SOL     OW61182  11.917   3.017   0.279
86448SOL    HW161183  11.849   2.968   0.233
86448SOL    HW261184  11.997   2.998   0.229
86449SOL     OW61185   8.575  14.682   8.432
86449SOL    HW161186   8.489  14.663   8.468
86449SOL    HW261187   8.560  14.756   8.373
86450SOL     OW61188   0.429   3.901   8.537
86450SOL    HW161189   0.407   3.950   8.616
86450SOL    HW261190   0.517   3.866   8.553
86451SOL     OW61191  14.337  14.782   4.147
86451SOL    HW161192  14.394  14.712   4.179
86451SOL    HW261193  14.391  14.829   4.084
86452SOL     OW61194   9.829  13.475  13.470
86452SOL    HW161195   9.845  13.427  13.389
86452SOL    HW261196   9.879  13.427  13.536
86453SOL     OW61197   5.644   2.797   5.481
86453SOL    HW161198   5.608   2.821   5.396
86453SOL    HW261199   5.600   2.715   5.504
86454SOL     OW61200   8.727   3.239   6.969
86454SOL    HW161201   8.718   3.149   7.002
86454SOL    HW261202   8.814   3.266   6.999
86455SOL     OW61203   1.933  12.615   8.848
86455SOL    HW161204   2.021  12.593   8.878
86455SOL    HW261205   1.888  12.531   8.840
86456SOL     OW61206   8.274  10.875   2.982
86456SOL    HW161207   8.271  10.905   3.073
86456SOL    HW261208   8.357  10.909   2.948
86457SOL     OW61209   5.382   0.034   0.068
86457SOL    HW161210   5.417   0.108   0.019
86457SOL    HW261211   5.289   0.053   0.077
86458SOL     OW61212   0.775   8.337  14.565
86458SOL    HW161213   0.765   8.432  14.555
86458SOL    HW261214   0.870   8.323  14.566
86459SOL     OW61215   2.232   5.266   7.376
86459SOL    HW161216   2.287   5.321   7.319
86459SOL    HW261217   2.284   5.187   7.388
86460SOL     OW61218  13.472  12.529   8.873
86460SOL    HW161219  13.404  12.465   8.853
86460SOL    HW261220  13.472  12.534   8.968
86461SOL     OW61221   0.332   8.553   9.118
86461SOL    HW161222   0.393   8.487   9.086
86461SOL    HW261223   0.381   8.601   9.185
86462SOL     OW61224  11.882  14.434   9.385
86462SOL    HW161225  11.895  14.354   9.436
86462SOL    HW261226  11.967  14.451   9.345
86463SOL     OW61227   8.039  11.355   1.028
86463SOL    HW161228   7.988  11.346   1.108
86463SOL    HW261229   7.979  11.396   0.966
86464SOL     OW61230   8.273   8.042   3.985
86464SOL    HW161231   8.295   7.956   3.948
86464SOL    HW261232   8.322   8.104   3.931
86465SOL     OW61233   4.826  14.482   7.043
86465SOL    HW161234   4.791  14.468   6.955
86465SOL    HW261235   4.767  14.433   7.100
86466SOL     OW61236   7.666   7.510   9.270
86466SOL    HW161237   7.598   7.575   9.287
86466SOL    HW261238   7.622   7.440   9.222
86467SOL     OW61239   0.017  11.476   1.871
86467SOL    HW161240  14.870  11.394   1.832
86467SOL    HW261241  14.821  11.511   1.914
86468SOL     OW61242  13.361  12.142   0.169
86468SOL    HW161243  13.317  12.227   0.170
86468SOL    HW261244  13.405  12.137   0.254
86469SOL     OW61245   9.485  14.777  10.723
86469SOL    HW161246   9.412  14.807  10.669
86469SOL    HW261247   9.549  14.848  10.720
86470SOL     OW61248   8.031   0.765   5.766
86470SOL    HW161249   7.973   0.826   5.720
86470SOL    HW261250   8.004   0.770   5.858
86471SOL     OW61251  10.583   3.751   0.683
86471SOL    HW161252  10.616   3.753   0.593
86471SOL    HW261253  10.547   3.663   0.693
86472SOL     OW61254   3.854   1.067  11.963
86472SOL    HW161255   3.872   1.126  12.036
86472SOL    HW261256   3.940   1.051  11.924
86473SOL     OW61257   6.875   0.396  12.407
86473SOL    HW161258   6.862   0.443  12.489
86473SOL    HW261259   6.834   0.311  12.422
86474SOL     OW61260   8.996   2.813   0.148
86474SOL    HW161261   9.016   2.720   0.135
86474SOL    HW261262   9.060   2.859   0.095
86475SOL     OW61263   5.716   6.973  11.082
86475SOL    HW161264   5.678   7.007  11.001
86475SOL    HW261265   5.673   7.023  11.151
86476SOL     OW61266   1.082   1.458   6.976
86476SOL    HW161267   1.030   1.537   6.988
86476SOL    HW261268   1.116   1.465   6.887
86477SOL     OW61269   2.674   2.195  14.237
86477SOL    HW161270   2.714   2.266  14.287
86477SOL    HW261271   2.714   2.201  14.151
86478SOL     OW61272  11.488   8.675   0.083
86478SOL    HW161273  11.465   8.583   0.070
86478SOL    HW261274  11.581   8.673   0.107
86479SOL     OW61275   4.852   9.576  13.734
86479SOL    HW161276   4.869   9.557  13.826
86479SOL    HW261277   4.935   9.611  13.701
86480SOL     OW61278  14.628   4.116   3.150
86480SOL    HW161279  14.642   4.023   3.131
86480SOL    HW261280  14.545   4.118   3.197
86481SOL     OW61281   8.620   4.329   7.080
86481SOL    HW161282   8.615   4.256   7.019
86481SOL    HW261283   8.712   4.333   7.106
86482SOL     OW61284  12.046  12.983  11.067
86482SOL    HW161285  12.020  12.926  10.995
86482SOL    HW261286  12.142  12.980  11.067
86483SOL     OW61287  13.560  12.965  14.450
86483SOL    HW161288  13.587  12.873  14.460
86483SOL    HW261289  13.616  13.013  14.512
86484SOL     OW61290   8.218   8.104   8.630
86484SOL    HW161291   8.177   8.158   8.563
86484SOL    HW261292   8.151   8.039   8.653
86485SOL     OW61293   2.801  12.619   7.479
86485SOL    HW161294   2.892  12.651   7.474
86485SOL    HW261295   2.749  12.698   7.494
86486SOL     OW61296   5.405   0.555  10.923
86486SOL    HW161297   5.394   0.569  10.828
86486SOL    HW261298   5.351   0.478  10.941
86487SOL     OW61299   7.193  14.684   9.267
86487SOL    HW161300   7.238  14.605   9.238
86487SOL    HW261301   7.117  14.691   9.210
86488SOL     OW61302   2.335   8.022   4.701
86488SOL    HW161303   2.265   8.084   4.677
86488SOL    HW261304   2.293   7.961   4.761
86489SOL     OW61305   7.854   2.579  13.098
86489SOL    HW161306   7.812   2.514  13.154
86489SOL    HW261307   7.886   2.646  13.159
86490SOL     OW61308   8.903   5.287   2.620
86490SOL    HW161309   8.891   5.225   2.692
86490SOL    HW261310   8.955   5.358   2.657
86491SOL     OW61311   7.683   0.762   6.849
86491SOL    HW161312   7.705   0.804   6.766
86491SOL    HW261313   7.642   0.831   6.901
86492SOL     OW61314  12.474   7.373  12.918
86492SOL    HW161315  12.469   7.424  12.837
86492SOL    HW261316  12.384   7.346  12.935
86493SOL     OW61317   8.356   5.775   8.428
86493SOL    HW161318   8.278   5.725   8.406
86493SOL    HW261319   8.356   5.849   8.368
86494SOL     OW61320  10.111   3.727  10.814
86494SOL    HW161321  10.155   3.663  10.870
86494SOL    HW261322  10.081   3.796  10.874
86495SOL     OW61323   6.437   3.321   5.855
86495SOL    HW161324   6.371   3.268   5.811
86495SOL    HW261325   6.508   3.260   5.875
86496SOL     OW61326   3.144   4.357   3.611
86496SOL    HW161327   3.067   4.368   3.556
86496SOL    HW261328   3.153   4.263   3.623
86497SOL     OW61329  12.785   9.995   4.703
86497SOL    HW161330  12.868   9.948   4.693
86497SOL    HW261331  12.718   9.927   4.693
86498SOL     OW61332  10.099   9.211  13.824
86498SOL    HW161333  10.190   9.227  13.801
86498SOL    HW261334  10.067   9.295  13.857
86499SOL     OW61335   2.592   7.852   6.048
86499SOL    HW161336   2.520   7.824   6.105
86499SOL    HW261337   2.595   7.785   5.979
86500SOL     OW61338   2.120   3.577   2.181
86500SOL    HW161339   2.207   3.551   2.211
86500SOL    HW261340   2.059   3.522   2.232
86501SOL     OW61341   2.376   4.394   7.979
86501SOL    HW161342   2.327   4.313   7.993
86501SOL    HW261343   2.327   4.460   8.027
86502SOL     OW61344  13.551  11.381   8.296
86502SOL    HW161345  13.593  11.401   8.380
86502SOL    HW261346  13.518  11.292   8.306
86503SOL     OW61347  10.762  13.267   4.701
86503SOL    HW161348  10.774  13.272   4.796
86503SOL    HW261349  10.849  13.246   4.668
86504SOL     OW61350   9.218   7.537   3.028
86504SOL    HW161351   9.176   7.524   2.943
86504SOL    HW261352   9.176   7.472   3.085
86505SOL     OW61353   8.013   9.847  13.730
86505SOL    HW161354   8.080   9.779  13.734
86505SOL    HW261355   7.931   9.798  13.725
86506SOL     OW61356   3.194   9.644   0.998
86506SOL    HW161357   3.217   9.607   0.914
86506SOL    HW261358   3.126   9.709   0.978
86507SOL     OW61359   6.401  11.118   1.111
86507SOL    HW161360   6.408  11.213   1.122
86507SOL    HW261361   6.415  11.083   1.199
86508SOL     OW61362   8.098  10.432   6.476
86508SOL    HW161363   8.167  10.366   6.475
86508SOL    HW261364   8.017  10.382   6.469
86509SOL     OW61365  11.153  12.702   3.111
86509SOL    HW161366  11.133  12.627   3.056
86509SOL    HW261367  11.073  12.719   3.160
86510SOL     OW61368   6.506   8.120   2.130
86510SOL    HW161369   6.428   8.065   2.137
86510SOL    HW261370   6.514   8.162   2.216
86511SOL     OW61371   4.275  13.352   0.085
86511SOL    HW161372   4.359  13.308   0.091
86511SOL    HW261373   4.230  13.311   0.012
86512SOL     OW61374   6.173   5.878   4.418
86512SOL    HW161375   6.197   5.927   4.496
86512SOL    HW261376   6.202   5.933   4.345
86513SOL     OW61377   3.229   4.664   3.775
86513SOL    HW161378   3.235   4.758   3.786
86513SOL    HW261379   3.223   4.651   3.680
86514SOL     OW61380   9.449  12.958  14.479
86514SOL    HW161381   9.511  12.983  14.410
86514SOL    HW261382   9.429  13.040  14.524
86515SOL     OW61383   0.272  11.777   2.229
86515SOL    HW161384   0.216  11.701   2.216
86515SOL    HW261385   0.281  11.785   2.324
86516SOL     OW61386   7.534   2.926  10.592
86516SOL    HW161387   7.492   2.964  10.669
86516SOL    HW261388   7.578   3.000  10.549
86517SOL     OW61389  14.642  11.115  12.156
86517SOL    HW161390  14.600  11.194  12.189
86517SOL    HW261391  14.604  11.044  12.207
86518SOL     OW61392   2.834   0.051   2.778
86518SOL    HW161393   2.790   0.097   2.706
86518SOL    HW261394   2.924   0.039   2.748
86519SOL     OW61395   3.877  13.740   3.587
86519SOL    HW161396   3.825  13.788   3.652
86519SOL    HW261397   3.883  13.799   3.512
86520SOL     OW61398   8.118  13.756  13.994
86520SOL    HW161399   8.190  13.741  14.056
86520SOL    HW261400   8.042  13.718  14.037
86521SOL     OW61401   5.639   8.435   3.349
86521SOL    HW161402   5.701   8.489   3.398
86521SOL    HW261403   5.693   8.365   3.312
86522SOL     OW61404   2.271   5.461  14.280
86522SOL    HW161405   2.186   5.435  14.316
86522SOL    HW261406   2.293   5.543  14.325
86523SOL     OW61407   7.782   1.108  11.266
86523SOL    HW161408   7.769   1.021  11.227
86523SOL    HW261409   7.820   1.090  11.352
86524SOL     OW61410  14.017  10.475  13.940
86524SOL    HW161411  14.042  10.500  13.851
86524SOL    HW261412  14.004  10.380  13.935
86525SOL     OW61413   0.108   2.311  14.649
86525SOL    HW161414   0.127   2.218  14.638
86525SOL    HW261415   0.093   2.344  14.561
86526SOL     OW61416  11.004   5.066   1.539
86526SOL    HW161417  11.060   4.989   1.531
86526SOL    HW261418  11.058   5.138   1.506
86527SOL     OW61419  13.337  12.825   1.503
86527SOL    HW161420  13.331  12.852   1.411
86527SOL    HW261421  13.341  12.730   1.501
86528SOL     OW61422   1.114   2.978  10.144
86528SOL    HW161423   1.127   2.926  10.065
86528SOL    HW261424   1.138   2.920  10.216
86529SOL     OW61425   1.620   6.620  11.339
86529SOL    HW161426   1.674   6.579  11.407
86529SOL    HW261427   1.601   6.707  11.375
86530SOL     OW61428  10.851   0.435  11.749
86530SOL    HW161429  10.782   0.404  11.690
86530SOL    HW261430  10.908   0.358  11.761
86531SOL     OW61431   8.795   7.755  14.796
86531SOL    HW161432   8.773   7.769  14.704
86531SOL    HW261433   8.785   7.840  14.837
86532SOL     OW61434   5.728  11.365   3.705
86532SOL    HW161435   5.642  11.390   3.737
86532SOL    HW261436   5.743  11.421   3.628
86533SOL     OW61437   9.600  10.010   1.770
86533SOL    HW161438   9.611  10.016   1.865
86533SOL    HW261439   9.507  10.031   1.756
86534SOL     OW61440  12.785   4.802   0.798
86534SOL    HW161441  12.759   4.882   0.842
86534SOL    HW261442  12.710   4.780   0.742
86535SOL     OW61443   6.107  13.606   6.510
86535SOL    HW161444   6.079  13.520   6.541
86535SOL    HW261445   6.039  13.666   6.542
86536SOL     OW61446  11.998  11.974   7.605
86536SOL    HW161447  12.065  11.955   7.670
86536SOL    HW261448  11.987  12.069   7.608
86537SOL     OW61449   6.498  11.041   3.212
86537SOL    HW161450   6.504  11.128   3.252
86537SOL    HW261451   6.524  10.980   3.281
86538SOL     OW61452  10.644   9.747  13.873
86538SOL    HW161453  10.657   9.802  13.950
86538SOL    HW261454  10.733   9.732  13.839
86539SOL     OW61455   2.425   2.144   2.626
86539SOL    HW161456   2.332   2.143   2.646
86539SOL    HW261457   2.466   2.093   2.696
86540SOL     OW61458   6.852   5.947   7.478
86540SOL    HW161459   6.793   5.997   7.422
86540SOL    HW261460   6.797   5.878   7.516
86541SOL     OW61461  11.201   1.114  13.157
86541SOL    HW161462  11.266   1.185  13.161
86541SOL    HW261463  11.192   1.096  13.064
86542SOL     OW61464  14.740  12.359  11.094
86542SOL    HW161465  14.728  12.377  11.001
86542SOL    HW261466  14.710  12.439  11.138
86543SOL     OW61467   8.278   5.502   7.884
86543SOL    HW161468   8.345   5.504   7.816
86543SOL    HW261469   8.279   5.590   7.922
86544SOL     OW61470  11.852  10.773   6.375
86544SOL    HW161471  11.873  10.846   6.316
86544SOL    HW261472  11.895  10.795   6.457
86545SOL     OW61473  13.608  11.821   2.862
86545SOL    HW161474  13.529  11.855   2.820
86545SOL    HW261475  13.585  11.815   2.955
86546SOL     OW61476   1.304  13.017  14.436
86546SOL    HW161477   1.372  13.061  14.486
86546SOL    HW261478   1.222  13.040  14.481
86547SOL     OW61479   7.405  14.424   6.703
86547SOL    HW161480   7.469  14.453   6.768
86547SOL    HW261481   7.343  14.496   6.697
86548SOL     OW61482  10.017   3.404   5.494
86548SOL    HW161483  10.033   3.420   5.587
86548SOL    HW261484   9.970   3.482   5.464
86549SOL     OW61485  14.568  14.198   4.005
86549SOL    HW161486  14.501  14.183   3.939
86549SOL    HW261487  14.636  14.247   3.959
86550SOL     OW61488   3.059   3.172   9.989
86550SOL    HW161489   3.004   3.219   9.926
86550SOL    HW261490   3.149   3.189   9.960
86551SOL     OW61491   9.640   8.160   4.196
86551SOL    HW161492   9.567   8.109   4.229
86551SOL    HW261493   9.619   8.175   4.103
86552SOL     OW61494   7.228   3.149   0.853
86552SOL    HW161495   7.179   3.221   0.815
86552SOL    HW261496   7.316   3.159   0.817
86553SOL     OW61497  13.704   0.130  14.416
86553SOL    HW161498  13.625   0.103  14.463
86553SOL    HW261499  13.689   0.222  14.393
86554SOL     OW61500  12.618  13.989  13.898
86554SOL    HW161501  12.619  14.052  13.970
86554SOL    HW261502  12.596  13.906  13.940
86555SOL     OW61503  10.367  13.789  14.787
86555SOL    HW161504  10.336  13.793  14.878
86555SOL    HW261505  10.461  13.809  14.793
86556SOL     OW61506   6.008  12.869   4.374
86556SOL    HW161507   5.926  12.908   4.407
86556SOL    HW261508   6.063  12.944   4.353
86557SOL     OW61509  14.377   6.799   9.779
86557SOL    HW161510  14.390   6.879   9.829
86557SOL    HW261511  14.293   6.811   9.734
86558SOL     OW61512   6.488   4.462  10.489
86558SOL    HW161513   6.550   4.397  10.456
86558SOL    HW261514   6.504   4.464  10.584
86559SOL     OW61515  13.924   7.391   3.386
86559SOL    HW161516  13.847   7.372   3.332
86559SOL    HW261517  13.966   7.465   3.343
86560SOL     OW61518  10.956   1.988  12.980
86560SOL    HW161519  10.866   1.959  12.964
86560SOL    HW261520  10.947   2.079  13.009
86561SOL     OW61521  11.143   8.216   7.993
86561SOL    HW161522  11.129   8.176   7.907
86561SOL    HW261523  11.227   8.180   8.023
86562SOL     OW61524  13.775   0.597  10.990
86562SOL    HW161525  13.815   0.627  11.072
86562SOL    HW261526  13.752   0.678  10.944
86563SOL     OW61527   8.284   3.133   5.382
86563SOL    HW161528   8.270   3.209   5.325
86563SOL    HW261529   8.320   3.066   5.324
86564SOL     OW61530   1.716  10.138   1.854
86564SOL    HW161531   1.767  10.084   1.915
86564SOL    HW261532   1.780  10.170   1.791
86565SOL     OW61533   6.004  13.743  11.257
86565SOL    HW161534   5.967  13.659  11.227
86565SOL    HW261535   5.936  13.807  11.238
86566SOL     OW61536  10.398   6.092   2.251
86566SOL    HW161537  10.419   6.148   2.176
86566SOL    HW261538  10.413   6.003   2.219
86567SOL     OW61539   8.585   3.506  12.018
86567SOL    HW161540   8.506   3.528  12.068
86567SOL    HW261541   8.646   3.472  12.083
86568SOL     OW61542  14.042   3.099   9.962
86568SOL    HW161543  14.132   3.101   9.930
86568SOL    HW261544  14.024   3.006   9.977
86569SOL     OW61545   1.120  10.830   3.183
86569SOL    HW161546   1.149  10.842   3.273
86569SOL    HW261547   1.128  10.735   3.168
86570SOL     OW61548   2.366   1.427   1.829
86570SOL    HW161549   2.456   1.422   1.797
86570SOL    HW261550   2.349   1.341   1.867
86571SOL     OW61551   6.207  13.277   1.124
86571SOL    HW161552   6.210  13.257   1.031
86571SOL    HW261553   6.163  13.201   1.163
86572SOL     OW61554   1.802   8.235   8.348
86572SOL    HW161555   1.894   8.213   8.358
86572SOL    HW261556   1.764   8.159   8.302
86573SOL     OW61557   5.277   1.267   3.035
86573SOL    HW161558   5.255   1.200   2.969
86573SOL    HW261559   5.354   1.311   3.000
86574SOL     OW61560   1.126  13.341   1.819
86574SOL    HW161561   1.128  13.372   1.728
86574SOL    HW261562   1.041  13.299   1.828
86575SOL     OW61563   2.313  14.804   3.284
86575SOL    HW161564   2.341  14.759   3.364
86575SOL    HW261565   2.361   0.005   3.285
86576SOL     OW61566   8.878   8.538  14.179
86576SOL    HW161567   8.855   8.480  14.252
86576SOL    HW261568   8.864   8.484  14.101
86577SOL     OW61569  10.285  13.877   0.193
86577SOL    HW161570  10.244  13.955   0.156
86577SOL    HW261571  10.371  13.908   0.223
86578SOL     OW61572   9.605  14.439  11.197
86578SOL    HW161573   9.589  14.510  11.134
86578SOL    HW261574   9.519  14.422  11.236
86579SOL     OW61575   4.445  11.205   1.334
86579SOL    HW161576   4.416  11.182   1.246
86579SOL    HW261577   4.516  11.267   1.321
86580SOL     OW61578   4.352  14.677   0.759
86580SOL    HW161579   4.340  14.758   0.709
86580SOL    HW261580   4.447  14.672   0.774
86581SOL     OW61581   9.960   4.645   1.879
86581SOL    HW161582   9.984   4.561   1.919
86581SOL    HW261583   9.935   4.700   1.953
86582SOL     OW61584   9.936   8.634   6.278
86582SOL    HW161585   9.937   8.551   6.230
86582SOL    HW261586   9.844   8.658   6.284
86583SOL     OW61587  12.502  13.343   7.852
86583SOL    HW161588  12.422  13.352   7.801
86583SOL    HW261589  12.503  13.421   7.908
86584SOL     OW61590   4.571  11.379   1.844
86584SOL    HW161591   4.624  11.361   1.921
86584SOL    HW261592   4.532  11.295   1.820
86585SOL     OW61593   3.876  10.663   5.997
86585SOL    HW161594   3.903  10.735   6.053
86585SOL    HW261595   3.875  10.587   6.055
86586SOL     OW61596  12.666  12.910  10.991
86586SOL    HW161597  12.732  12.977  10.972
86586SOL    HW261598  12.712  12.848  11.048
86587SOL     OW61599   1.022  12.656  11.483
86587SOL    HW161600   1.000  12.606  11.404
86587SOL    HW261601   1.058  12.590  11.543
86588SOL     OW61602   3.750   9.345   3.641
86588SOL    HW161603   3.687   9.275   3.655
86588SOL    HW261604   3.810   9.339   3.716
86589SOL     OW61605   7.377  14.561   3.141
86589SOL    HW161606   7.385  14.511   3.060
86589SOL    HW261607   7.305  14.621   3.125
86590SOL     OW61608   4.385   9.373   5.070
86590SOL    HW161609   4.295   9.359   5.038
86590SOL    HW261610   4.437   9.382   4.990
86591SOL     OW61611   1.377   2.678  14.317
86591SOL    HW161612   1.304   2.661  14.377
86591SOL    HW261613   1.374   2.606  14.254
86592SOL     OW61614  12.717   9.187   9.817
86592SOL    HW161615  12.748   9.157   9.732
86592SOL    HW261616  12.696   9.107   9.865
86593SOL     OW61617   8.089   3.982  13.470
86593SOL    HW161618   8.047   3.951  13.550
86593SOL    HW261619   8.053   3.925  13.401
86594SOL     OW61620   7.213   6.332  14.862
86594SOL    HW161621   7.181   6.258   0.031
86594SOL    HW261622   7.180   6.316  14.774
86595SOL     OW61623  12.188  14.511   6.761
86595SOL    HW161624  12.249  14.480   6.828
86595SOL    HW261625  12.242  14.560   6.700
86596SOL     OW61626   1.106  10.899   5.358
86596SOL    HW161627   1.066  10.861   5.280
86596SOL    HW261628   1.192  10.929   5.328
86597SOL     OW61629  10.038   8.488   6.922
86597SOL    HW161630  10.077   8.526   7.001
86597SOL    HW261631  10.053   8.554   6.854
86598SOL     OW61632   3.741  12.124   2.461
86598SOL    HW161633   3.835  12.111   2.467
86598SOL    HW261634   3.706  12.085   2.541
86599SOL     OW61635  12.266   5.862   8.729
86599SOL    HW161636  12.177   5.829   8.723
86599SOL    HW261637  12.258   5.957   8.716
86600SOL     OW61638   7.779   7.052   1.123
86600SOL    HW161639   7.697   7.028   1.166
86600SOL    HW261640   7.836   7.083   1.194
86601SOL     OW61641   7.013   3.767   3.363
86601SOL    HW161642   6.942   3.739   3.421
86601SOL    HW261643   6.975   3.767   3.276
86602SOL     OW61644   5.553   7.931   3.907
86602SOL    HW161645   5.483   7.919   3.842
86602SOL    HW261646   5.531   7.868   3.977
86603SOL     OW61647   8.296   7.765   4.280
86603SOL    HW161648   8.218   7.728   4.239
86603SOL    HW261649   8.270   7.853   4.306
86604SOL     OW61650   0.523  12.881   0.364
86604SOL    HW161651   0.506  12.970   0.334
86604SOL    HW261652   0.448  12.860   0.420
86605SOL     OW61653  13.039  12.478   3.386
86605SOL    HW161654  13.102  12.446   3.320
86605SOL    HW261655  13.093  12.524   3.450
86606SOL     OW61656   2.130   7.229  12.126
86606SOL    HW161657   2.122   7.188  12.040
86606SOL    HW261658   2.170   7.315  12.108
86607SOL     OW61659  12.184   3.215  13.128
86607SOL    HW161660  12.181   3.147  13.196
86607SOL    HW261661  12.272   3.209  13.092
86608SOL     OW61662   4.022   8.151   4.645
86608SOL    HW161663   4.106   8.119   4.678
86608SOL    HW261664   4.043   8.230   4.596
86609SOL     OW61665   1.873  14.230   6.273
86609SOL    HW161666   1.922  14.312   6.272
86609SOL    HW261667   1.941  14.162   6.277
86610SOL     OW61668   6.757  10.442  11.873
86610SOL    HW161669   6.738  10.349  11.878
86610SOL    HW261670   6.769  10.459  11.780
86611SOL     OW61671   9.046  12.880   2.746
86611SOL    HW161672   9.042  12.785   2.741
86611SOL    HW261673   9.128  12.898   2.792
86612SOL     OW61674   8.266   0.977   6.248
86612SOL    HW161675   8.308   0.908   6.195
86612SOL    HW261676   8.327   0.993   6.319
86613SOL     OW61677   8.911   8.482   0.716
86613SOL    HW161678   8.910   8.451   0.626
86613SOL    HW261679   8.961   8.564   0.712
86614SOL     OW61680   7.751   5.132   8.724
86614SOL    HW161681   7.682   5.157   8.663
86614SOL    HW261682   7.815   5.203   8.720
86615SOL     OW61683   5.263   6.968  11.134
86615SOL    HW161684   5.321   6.898  11.104
86615SOL    HW261685   5.239   7.016  11.055
86616SOL     OW61686  10.352   2.147  14.757
86616SOL    HW161687  10.270   2.197  14.748
86616SOL    HW261688  10.325   2.064  14.797
86617SOL     OW61689   0.082  13.620   3.713
86617SOL    HW161690   0.164  13.577   3.688
86617SOL    HW261691   0.079  13.698   3.659
86618SOL     OW61692   3.985   7.961  14.177
86618SOL    HW161693   3.983   7.885  14.234
86618SOL    HW261694   3.931   8.027  14.222
86619SOL     OW61695   7.330  13.456   6.930
86619SOL    HW161696   7.340  13.551   6.919
86619SOL    HW261697   7.368  13.439   7.016
86620SOL     OW61698   8.692   9.531   3.076
86620SOL    HW161699   8.618   9.484   3.039
86620SOL    HW261700   8.741   9.464   3.125
86621SOL     OW61701  13.194  12.619   0.897
86621SOL    HW161702  13.156  12.531   0.893
86621SOL    HW261703  13.280  12.606   0.938
86622SOL     OW61704  14.499   7.720  14.202
86622SOL    HW161705  14.528   7.779  14.132
86622SOL    HW261706  14.536   7.635  14.178
86623SOL     OW61707  13.901   9.680   2.327
86623SOL    HW161708  13.961   9.706   2.397
86623SOL    HW261709  13.956   9.630   2.266
86624SOL     OW61710  10.838   0.550   8.156
86624SOL    HW161711  10.767   0.488   8.135
86624SOL    HW261712  10.793   0.632   8.177
86625SOL     OW61713   0.019  11.890   2.838
86625SOL    HW161714  14.809  11.899   2.814
86625SOL    HW261715   0.032  11.952   2.910
86626SOL     OW61716   9.168  12.858  14.135
86626SOL    HW161717   9.161  12.871  14.229
86626SOL    HW261718   9.242  12.798  14.124
86627SOL     OW61719   4.523  11.991   2.686
86627SOL    HW161720   4.440  12.030   2.715
86627SOL    HW261721   4.547  12.040   2.608
86628SOL     OW61722   7.165   2.940   8.135
86628SOL    HW161723   7.219   2.967   8.210
86628SOL    HW261724   7.137   3.023   8.096
86629SOL     OW61725   8.948   4.583   1.626
86629SOL    HW161726   8.880   4.617   1.568
86629SOL    HW261727   8.919   4.493   1.646
86630SOL     OW61728   8.779   1.279   6.556
86630SOL    HW161729   8.791   1.373   6.542
86630SOL    HW261730   8.768   1.270   6.651
86631SOL     OW61731   5.371   0.976   2.781
86631SOL    HW161732   5.427   0.961   2.857
86631SOL    HW261733   5.285   0.999   2.819
86632SOL     OW61734   0.765   9.515   3.293
86632SOL    HW161735   0.843   9.500   3.239
86632SOL    HW261736   0.691   9.502   3.233
86633SOL     OW61737   9.853   6.320   9.765
86633SOL    HW161738   9.886   6.230   9.769
86633SOL    HW261739   9.926   6.374   9.795
86634SOL     OW61740   2.834   8.695   4.307
86634SOL    HW161741   2.835   8.606   4.342
86634SOL    HW261742   2.877   8.689   4.222
86635SOL     OW61743   4.190   2.512   7.970
86635SOL    HW161744   4.235   2.591   7.999
86635SOL    HW261745   4.136   2.540   7.896
86636SOL     OW61746   5.284   7.859  11.418
86636SOL    HW161747   5.260   7.863  11.326
86636SOL    HW261748   5.371   7.821  11.419
86637SOL     OW61749   6.140   6.304   3.227
86637SOL    HW161750   6.104   6.244   3.292
86637SOL    HW261751   6.126   6.391   3.265
86638SOL     OW61752   8.250   1.629   9.738
86638SOL    HW161753   8.298   1.554   9.772
86638SOL    HW261754   8.243   1.689   9.812
86639SOL     OW61755   1.904   4.344   7.421
86639SOL    HW161756   1.908   4.275   7.488
86639SOL    HW261757   1.907   4.426   7.471
86640SOL     OW61758  10.991   4.170   5.743
86640SOL    HW161759  11.043   4.189   5.664
86640SOL    HW261760  10.996   4.075   5.753
86641SOL     OW61761   5.099   1.957  12.382
86641SOL    HW161762   5.151   1.955  12.302
86641SOL    HW261763   5.162   1.974  12.452
86642SOL     OW61764  12.458   1.848   8.327
86642SOL    HW161765  12.536   1.806   8.362
86642SOL    HW261766  12.399   1.775   8.305
86643SOL     OW61767   7.555  10.878   7.942
86643SOL    HW161768   7.643  10.889   7.978
86643SOL    HW261769   7.566  10.818   7.869
86644SOL     OW61770   7.213  13.173   6.960
86644SOL    HW161771   7.156  13.231   7.010
86644SOL    HW261772   7.291  13.162   7.015
86645SOL     OW61773   5.564  14.054  11.015
86645SOL    HW161774   5.507  13.981  11.036
86645SOL    HW261775   5.542  14.077  10.924
86646SOL     OW61776   1.497   2.198  10.308
86646SOL    HW161777   1.404   2.178  10.299
86646SOL    HW261778   1.538   2.113  10.325
86647SOL     OW61779  12.370  11.557  10.238
86647SOL    HW161780  12.444  11.552  10.299
86647SOL    HW261781  12.397  11.623  10.174
86648SOL     OW61782   4.797   0.335   2.591
86648SOL    HW161783   4.783   0.321   2.685
86648SOL    HW261784   4.829   0.425   2.584
86649SOL     OW61785   5.802   2.507   5.001
86649SOL    HW161786   5.772   2.526   4.912
86649SOL    HW261787   5.837   2.418   4.996
86650SOL     OW61788   1.940   5.228  12.488
86650SOL    HW161789   1.965   5.170  12.559
86650SOL    HW261790   1.863   5.187  12.449
86651SOL     OW61791   1.346  11.915   2.609
86651SOL    HW161792   1.301  11.990   2.648
86651SOL    HW261793   1.337  11.929   2.515
86652SOL     OW61794   6.053  12.221   0.624
86652SOL    HW161795   6.022  12.137   0.658
86652SOL    HW261796   5.983  12.283   0.646
86653SOL     OW61797  14.383   9.088   7.292
86653SOL    HW161798  14.333   9.162   7.259
86653SOL    HW261799  14.380   9.023   7.222
86654SOL     OW61800   1.019   1.928   9.073
86654SOL    HW161801   0.955   1.878   9.022
86654SOL    HW261802   1.098   1.874   9.072
86655SOL     OW61803   3.575  11.822   1.140
86655SOL    HW161804   3.575  11.825   1.235
86655SOL    HW261805   3.598  11.911   1.113
86656SOL     OW61806   7.721   7.144   6.550
86656SOL    HW161807   7.661   7.206   6.590
86656SOL    HW261808   7.700   7.060   6.591
86657SOL     OW61809  12.371   7.412   5.614
86657SOL    HW161810  12.377   7.400   5.708
86657SOL    HW261811  12.421   7.339   5.577
86658SOL     OW61812   1.125   0.292   6.201
86658SOL    HW161813   1.131   0.270   6.108
86658SOL    HW261814   1.145   0.386   6.204
86659SOL     OW61815   0.866   1.722  12.639
86659SOL    HW161816   0.843   1.680  12.556
86659SOL    HW261817   0.901   1.651  12.692
86660SOL     OW61818   1.419   8.563  10.626
86660SOL    HW161819   1.405   8.593  10.537
86660SOL    HW261820   1.470   8.633  10.668
86661SOL     OW61821   2.380   7.393   9.654
86661SOL    HW161822   2.358   7.305   9.683
86661SOL    HW261823   2.470   7.407   9.683
86662SOL     OW61824   2.562   7.741   7.514
86662SOL    HW161825   2.590   7.746   7.422
86662SOL    HW261826   2.471   7.712   7.509
86663SOL     OW61827   4.974   5.510   0.523
86663SOL    HW161828   5.000   5.542   0.610
86663SOL    HW261829   5.026   5.563   0.462
86664SOL     OW61830   4.666   4.504   5.950
86664SOL    HW161831   4.746   4.541   5.987
86664SOL    HW261832   4.684   4.498   5.856
86665SOL     OW61833  14.392   3.635   4.476
86665SOL    HW161834  14.309   3.636   4.427
86665SOL    HW261835  14.395   3.548   4.514
86666SOL     OW61836  10.499  14.195   3.862
86666SOL    HW161837  10.436  14.251   3.908
86666SOL    HW261838  10.490  14.110   3.905
86667SOL     OW61839   7.842  13.485   2.859
86667SOL    HW161840   7.749  13.465   2.873
86667SOL    HW261841   7.846  13.581   2.865
86668SOL     OW61842   5.643   3.828   7.918
86668SOL    HW161843   5.640   3.739   7.955
86668SOL    HW261844   5.569   3.873   7.959
86669SOL     OW61845  11.272  11.060   9.064
86669SOL    HW161846  11.269  11.139   9.010
86669SOL    HW261847  11.183  11.027   9.063
86670SOL     OW61848  14.753   8.701   8.320
86670SOL    HW161849  14.787   8.611   8.326
86670SOL    HW261850  14.773   8.728   8.231
86671SOL     OW61851   3.170   4.937   3.763
86671SOL    HW161852   3.103   4.987   3.717
86671SOL    HW261853   3.241   4.999   3.779
86672SOL     OW61854  14.430  13.503   9.671
86672SOL    HW161855  14.487  13.523   9.744
86672SOL    HW261856  14.466  13.553   9.597
86673SOL     OW61857  11.764   8.832   0.514
86673SOL    HW161858  11.806   8.893   0.575
86673SOL    HW261859  11.819   8.835   0.436
86674SOL     OW61860   6.355   8.602  14.810
86674SOL    HW161861   6.341   8.697  14.806
86674SOL    HW261862   6.270   8.566  14.836
86675SOL     OW61863   8.025   4.996   2.230
86675SOL    HW161864   8.044   4.934   2.301
86675SOL    HW261865   7.982   4.944   2.163
86676SOL     OW61866  10.224   7.279  13.807
86676SOL    HW161867  10.192   7.368  13.791
86676SOL    HW261868  10.305   7.291  13.856
86677SOL     OW61869  13.768  10.239   3.144
86677SOL    HW161870  13.729  10.253   3.057
86677SOL    HW261871  13.696  10.257   3.205
86678SOL     OW61872   0.855  11.181   7.032
86678SOL    HW161873   0.837  11.163   6.940
86678SOL    HW261874   0.950  11.174   7.040
86679SOL     OW61875   0.107  10.443  13.887
86679SOL    HW161876   0.137  10.534  13.897
86679SOL    HW261877   0.156  10.395  13.953
86680SOL     OW61878   0.753   0.177   7.126
86680SOL    HW161879   0.725   0.087   7.144
86680SOL    HW261880   0.836   0.186   7.174
86681SOL     OW61881  14.321  11.468   6.909
86681SOL    HW161882  14.415  11.466   6.927
86681SOL    HW261883  14.315  11.501   6.819
86682SOL     OW61884  11.287  10.750  14.618
86682SOL    HW161885  11.309  10.770  14.709
86682SOL    HW261886  11.367  10.712  14.582
86683SOL     OW61887  11.307   6.885  14.282
86683SOL    HW161888  11.294   6.903  14.189
86683SOL    HW261889  11.281   6.966  14.326
86684SOL     OW61890   2.978  13.583   4.255
86684SOL    HW161891   2.989  13.619   4.343
86684SOL    HW261892   2.938  13.497   4.269
86685SOL     OW61893   2.776   5.394  13.790
86685SOL    HW161894   2.718   5.386  13.865
86685SOL    HW261895   2.837   5.320  13.798
86686SOL     OW61896  11.847   8.980   7.488
86686SOL    HW161897  11.771   9.024   7.451
86686SOL    HW261898  11.866   8.909   7.428
86687SOL     OW61899   5.122   6.781   3.196
86687SOL    HW161900   5.193   6.718   3.211
86687SOL    HW261901   5.159   6.844   3.134
86688SOL     OW61902  11.066   9.550   4.551
86688SOL    HW161903  11.079   9.612   4.623
86688SOL    HW261904  11.008   9.596   4.490
86689SOL     OW61905   2.751  13.395   4.988
86689SOL    HW161906   2.739  13.377   5.082
86689SOL    HW261907   2.764  13.308   4.949
86690SOL     OW61908   5.071  14.854   2.823
86690SOL    HW161909   5.051   0.009   2.737
86690SOL    HW261910   5.166  14.860   2.830
86691SOL     OW61911   5.321   3.100   7.060
86691SOL    HW161912   5.251   3.036   7.071
86691SOL    HW261913   5.401   3.047   7.059
86692SOL     OW61914  13.099   0.357   9.555
86692SOL    HW161915  13.193   0.373   9.564
86692SOL    HW261916  13.059   0.403   9.629
86693SOL     OW61917   0.092  14.235   6.001
86693SOL    HW161918   0.102  14.320   6.043
86693SOL    HW261919   0.003  14.207   6.024
86694SOL     OW61920  12.858  10.118   8.768
86694SOL    HW161921  12.869  10.023   8.758
86694SOL    HW261922  12.772  10.136   8.730
86695SOL     OW61923   9.770  14.294  12.189
86695SOL    HW161924   9.699  14.238  12.218
86695SOL    HW261925   9.731  14.349  12.121
86696SOL     OW61926   5.402  12.618  14.735
86696SOL    HW161927   5.410  12.690  14.672
86696SOL    HW261928   5.481  12.623  14.788
86697SOL     OW61929  14.866   1.348  10.466
86697SOL    HW161930  14.837   1.422  10.519
86697SOL    HW261931   0.018   1.285  10.529
86698SOL     OW61932   9.983  10.430   1.740
86698SOL    HW161933   9.949  10.358   1.792
86698SOL    HW261934   9.995  10.393   1.652
86699SOL     OW61935   3.514   2.786  10.033
86699SOL    HW161936   3.562   2.851  10.083
86699SOL    HW261937   3.432   2.774  10.081
86700SOL     OW61938   6.521   2.880  12.244
86700SOL    HW161939   6.506   2.800  12.294
86700SOL    HW261940   6.615   2.882  12.229
86701SOL     OW61941  14.273   5.097   3.567
86701SOL    HW161942  14.189   5.108   3.612
86701SOL    HW261943  14.329   5.166   3.603
86702SOL     OW61944   4.626   0.080  12.634
86702SOL    HW161945   4.704   0.038  12.669
86702SOL    HW261946   4.657   0.161  12.595
86703SOL     OW61947   0.612   6.194   4.309
86703SOL    HW161948   0.657   6.138   4.247
86703SOL    HW261949   0.626   6.153   4.394
86704SOL     OW61950   7.539   6.473   1.940
86704SOL    HW161951   7.538   6.563   1.907
86704SOL    HW261952   7.607   6.429   1.889
86705SOL     OW61953   7.593   0.006   2.599
86705SOL    HW161954   7.511   0.056   2.601
86705SOL    HW261955   7.647   0.051   2.535
86706SOL     OW61956  12.996  12.185  14.549
86706SOL    HW161957  12.902  12.204  14.539
86706SOL    HW261958  13.018  12.134  14.471
86707SOL     OW61959   3.244   7.614  10.610
86707SOL    HW161960   3.172   7.611  10.672
86707SOL    HW261961   3.205   7.594  10.525
86708SOL     OW61962   1.032   3.204   4.620
86708SOL    HW161963   0.970   3.153   4.567
86708SOL    HW261964   0.997   3.200   4.708
86709SOL     OW61965  14.607   7.096   2.826
86709SOL    HW161966  14.642   7.031   2.886
86709SOL    HW261967  14.512   7.092   2.839
86710SOL     OW61968   4.816  10.369   0.152
86710SOL    HW161969   4.786  10.394   0.239
86710SOL    HW261970   4.739  10.334   0.109
86711SOL     OW61971   3.318   3.992   2.138
86711SOL    HW161972   3.321   3.897   2.128
86711SOL    HW261973   3.399   4.023   2.098
86712SOL     OW61974  14.701   5.526   4.221
86712SOL    HW161975  14.664   5.468   4.153
86712SOL    HW261976  14.735   5.467   4.288
86713SOL     OW61977   0.930   0.790   2.999
86713SOL    HW161978   0.954   0.698   3.007
86713SOL    HW261979   0.993   0.837   3.053
86714SOL     OW61980  11.838   2.006   8.831
86714SOL    HW161981  11.916   1.960   8.860
86714SOL    HW261982  11.858   2.099   8.846
86715SOL     OW61983  10.685  14.307   0.879
86715SOL    HW161984  10.597  14.314   0.843
86715SOL    HW261985  10.708  14.397   0.903
86716SOL     OW61986   1.317  11.836   7.121
86716SOL    HW161987   1.353  11.877   7.199
86716SOL    HW261988   1.224  11.856   7.123
86717SOL     OW61989  12.080   1.870   1.699
86717SOL    HW161990  12.110   1.788   1.659
86717SOL    HW261991  12.156   1.928   1.694
86718SOL     OW61992   8.266   5.774  10.781
86718SOL    HW161993   8.295   5.752  10.693
86718SOL    HW261994   8.182   5.730  10.791
86719SOL     OW61995  13.519   3.913   2.096
86719SOL    HW161996  13.496   4.004   2.115
86719SOL    HW261997  13.593   3.919   2.036
86720SOL     OW61998   1.310   2.190  11.827
86720SOL    HW161999   1.346   2.177  11.739
86720SOL    HW262000   1.244   2.122  11.836
86721SOL     OW62001   6.083   2.043   4.067
86721SOL    HW162002   6.108   2.128   4.104
86721SOL    HW262003   6.104   1.980   4.136
86722SOL     OW62004  12.444   2.672  13.972
86722SOL    HW162005  12.412   2.757  13.941
86722SOL    HW262006  12.539   2.676  13.962
86723SOL     OW62007  13.233   3.836   3.974
86723SOL    HW162008  13.313   3.864   3.930
86723SOL    HW262009  13.259   3.759   4.025
86724SOL     OW62010   8.067   2.629  14.287
86724SOL    HW162011   8.016   2.663  14.214
86724SOL    HW262012   8.153   2.670  14.278
86725SOL     OW62013  13.475  11.596   4.500
86725SOL    HW162014  13.540  11.595   4.570
86725SOL    HW262015  13.393  11.570   4.542
86726SOL     OW62016  13.696  13.915   5.740
86726SOL    HW162017  13.708  13.911   5.645
86726SOL    HW262018  13.636  13.989   5.753
86727SOL     OW62019   9.433   4.215  12.901
86727SOL    HW162020   9.490   4.265  12.960
86727SOL    HW262021   9.358   4.190  12.955
86728SOL     OW62022  14.306   0.343   6.673
86728SOL    HW162023  14.372   0.321   6.608
86728SOL    HW262024  14.321   0.282   6.745
86729SOL     OW62025   8.555   2.117   1.395
86729SOL    HW162026   8.560   2.049   1.462
86729SOL    HW262027   8.524   2.195   1.441
86730SOL     OW62028  12.468  12.091   4.096
86730SOL    HW162029  12.476  12.001   4.064
86730SOL    HW262030  12.558  12.119   4.111
86731SOL     OW62031  12.692  11.938   2.745
86731SOL    HW162032  12.754  11.899   2.684
86731SOL    HW262033  12.692  12.032   2.723
86732SOL     OW62034  10.045  13.297   6.175
86732SOL    HW162035  10.135  13.304   6.143
86732SOL    HW262036   9.994  13.269   6.098
86733SOL     OW62037   4.615   1.481   0.489
86733SOL    HW162038   4.540   1.430   0.520
86733SOL    HW262039   4.689   1.421   0.495
86734SOL     OW62040  11.835   9.593   4.323
86734SOL    HW162041  11.896   9.520   4.337
86734SOL    HW262042  11.848   9.650   4.398
86735SOL     OW62043   0.011   1.713   6.869
86735SOL    HW162044   0.028   1.743   6.958
86735SOL    HW262045  14.841   1.784   6.829
86736SOL     OW62046  12.906   3.814   3.162
86736SOL    HW162047  12.971   3.842   3.098
86736SOL    HW262048  12.830   3.787   3.110
86737SOL     OW62049  10.945  13.633   2.680
86737SOL    HW162050  10.917  13.641   2.588
86737SOL    HW262051  10.929  13.720   2.717
86738SOL     OW62052  10.557   8.918   6.571
86738SOL    HW162053  10.524   9.000   6.609
86738SOL    HW262054  10.625   8.889   6.631
86739SOL     OW62055   7.436   5.940   5.691
86739SOL    HW162056   7.477   5.925   5.606
86739SOL    HW262057   7.349   5.901   5.683
86740SOL     OW62058  11.625   3.288   2.056
86740SOL    HW162059  11.650   3.199   2.081
86740SOL    HW262060  11.553   3.310   2.115
86741SOL     OW62061   9.207   2.210   4.991
86741SOL    HW162062   9.220   2.287   4.936
86741SOL    HW262063   9.193   2.138   4.929
86742SOL     OW62064   6.657  11.950   1.685
86742SOL    HW162065   6.625  11.889   1.752
86742SOL    HW262066   6.743  11.978   1.716
86743SOL     OW62067   2.133  10.549   8.155
86743SOL    HW162068   2.200  10.507   8.101
86743SOL    HW262069   2.110  10.484   8.221
86744SOL     OW62070  10.376  11.548   0.279
86744SOL    HW162071  10.355  11.534   0.372
86744SOL    HW262072  10.292  11.568   0.238
86745SOL     OW62073   9.057   5.095   9.208
86745SOL    HW162074   9.148   5.078   9.233
86745SOL    HW262075   9.012   5.108   9.292
86746SOL     OW62076   5.132   8.164   6.134
86746SOL    HW162077   5.206   8.103   6.129
86746SOL    HW262078   5.158   8.237   6.078
86747SOL     OW62079  14.744   7.572  14.083
86747SOL    HW162080  14.805   7.508  14.121
86747SOL    HW262081  14.754   7.562  13.989
86748SOL     OW62082  11.233   6.134  10.868
86748SOL    HW162083  11.209   6.048  10.833
86748SOL    HW262084  11.153   6.167  10.907
86749SOL     OW62085   6.966   5.541  12.735
86749SOL    HW162086   6.913   5.559  12.657
86749SOL    HW262087   6.903   5.519  12.803
86750SOL     OW62088   4.568  11.348   0.971
86750SOL    HW162089   4.480  11.381   0.953
86750SOL    HW262090   4.588  11.379   1.060
86751SOL     OW62091  13.065  11.787   1.324
86751SOL    HW162092  13.087  11.732   1.399
86751SOL    HW262093  12.971  11.773   1.311
86752SOL     OW62094  11.468  12.826  10.974
86752SOL    HW162095  11.553  12.870  10.963
86752SOL    HW262096  11.455  12.822  11.068
86753SOL     OW62097   7.939   5.508   1.399
86753SOL    HW162098   7.924   5.528   1.491
86753SOL    HW262099   8.010   5.443   1.400
86754SOL     OW62100   4.309   9.851   6.654
86754SOL    HW162101   4.379   9.870   6.592
86754SOL    HW262102   4.302   9.930   6.708
86755SOL     OW62103   2.924   8.447   3.667
86755SOL    HW162104   3.003   8.443   3.612
86755SOL    HW262105   2.911   8.358   3.698
86756SOL     OW62106  12.823  12.803   6.437
86756SOL    HW162107  12.810  12.746   6.361
86756SOL    HW262108  12.840  12.889   6.400
86757SOL     OW62109  13.135  11.943   4.507
86757SOL    HW162110  13.089  11.870   4.466
86757SOL    HW262111  13.227  11.930   4.481
86758SOL     OW62112   6.097   7.731   2.756
86758SOL    HW162113   6.054   7.646   2.750
86758SOL    HW262114   6.061   7.771   2.835
86759SOL     OW62115   7.708   3.728   4.193
86759SOL    HW162116   7.660   3.771   4.122
86759SOL    HW262117   7.795   3.768   4.191
86760SOL     OW62118  10.581   4.516   6.720
86760SOL    HW162119  10.563   4.422   6.720
86760SOL    HW262120  10.675   4.523   6.734
86761SOL     OW62121   2.984   3.750   2.172
86761SOL    HW162122   3.079   3.743   2.167
86761SOL    HW262123   2.969   3.829   2.224
86762SOL     OW62124   5.333  11.294   3.163
86762SOL    HW162125   5.312  11.203   3.143
86762SOL    HW262126   5.428  11.300   3.152
86763SOL     OW62127  11.381   9.548   9.361
86763SOL    HW162128  11.418   9.506   9.283
86763SOL    HW262129  11.311   9.603   9.327
86764SOL     OW62130  10.072   0.940   3.720
86764SOL    HW162131  10.153   0.974   3.760
86764SOL    HW262132  10.002   0.985   3.767
86765SOL     OW62133   4.046   1.638   7.418
86765SOL    HW162134   4.061   1.619   7.325
86765SOL    HW262135   4.085   1.724   7.431
86766SOL     OW62136   7.063  14.872   1.294
86766SOL    HW162137   7.151  14.869   1.331
86766SOL    HW262138   7.013  14.809   1.345
86767SOL     OW62139  12.868   9.182   3.651
86767SOL    HW162140  12.786   9.193   3.700
86767SOL    HW262141  12.904   9.271   3.646
86768SOL     OW62142   4.294  12.533   2.262
86768SOL    HW162143   4.270  12.568   2.176
86768SOL    HW262144   4.230  12.464   2.278
86769SOL     OW62145  10.392   5.394   1.419
86769SOL    HW162146  10.461   5.455   1.396
86769SOL    HW262147  10.350   5.373   1.335
86770SOL     OW62148   0.038   4.994   9.064
86770SOL    HW162149   0.129   5.019   9.048
86770SOL    HW262150  14.871   5.075   9.053
86771SOL     OW62151  14.631  10.120   8.258
86771SOL    HW162152  14.675  10.156   8.335
86771SOL    HW262153  14.700  10.111   8.193
86772SOL     OW62154   9.045   5.830  13.728
86772SOL    HW162155   9.119   5.864  13.778
86772SOL    HW262156   8.977   5.896  13.737
86773SOL     OW62157   2.596  13.596   6.673
86773SOL    HW162158   2.558  13.642   6.599
86773SOL    HW262159   2.664  13.541   6.635
86774SOL     OW62160  11.539  13.330  14.219
86774SOL    HW162161  11.479  13.342  14.145
86774SOL    HW262162  11.562  13.419  14.246
86775SOL     OW62163  10.769  11.704   7.569
86775SOL    HW162164  10.735  11.666   7.650
86775SOL    HW262165  10.707  11.676   7.501
86776SOL     OW62166  12.649   1.571  14.457
86776SOL    HW162167  12.682   1.647  14.411
86776SOL    HW262168  12.694   1.497  14.417
86777SOL     OW62169   0.729   5.188  14.523
86777SOL    HW162170   0.721   5.283  14.533
86777SOL    HW262171   0.818   5.176  14.490
86778SOL     OW62172  12.893  11.635   2.207
86778SOL    HW162173  12.825  11.679   2.257
86778SOL    HW262174  12.847  11.563   2.162
86779SOL     OW62175   1.781   7.862   5.902
86779SOL    HW162176   1.766   7.855   5.996
86779SOL    HW262177   1.843   7.791   5.882
86780SOL     OW62178  14.176   6.333   6.026
86780SOL    HW162179  14.203   6.283   5.948
86780SOL    HW262180  14.256   6.340   6.078
86781SOL     OW62181   9.091   3.205  13.974
86781SOL    HW162182   9.152   3.144  13.933
86781SOL    HW262183   9.005   3.179  13.941
86782SOL     OW62184   9.138  13.561  10.473
86782SOL    HW162185   9.089  13.635  10.508
86782SOL    HW262186   9.230  13.585  10.487
86783SOL     OW62187   0.354   8.784   3.172
86783SOL    HW162188   0.308   8.855   3.217
86783SOL    HW262189   0.372   8.820   3.085
86784SOL     OW62190  11.938   9.651   5.036
86784SOL    HW162191  11.970   9.565   5.008
86784SOL    HW262192  11.997   9.677   5.106
86785SOL     OW62193   1.469   9.538  11.256
86785SOL    HW162194   1.391   9.495  11.220
86785SOL    HW262195   1.542   9.487  11.223
86786SOL     OW62196   5.173   3.031   0.451
86786SOL    HW162197   5.185   3.124   0.472
86786SOL    HW262198   5.249   2.988   0.491
86787SOL     OW62199   3.840   7.568  11.929
86787SOL    HW162200   3.867   7.484  11.893
86787SOL    HW262201   3.773   7.600  11.868
86788SOL     OW62202   5.590   8.757  11.032
86788SOL    HW162203   5.628   8.739  10.946
86788SOL    HW262204   5.666   8.764  11.091
86789SOL     OW62205   0.625  11.070  13.992
86789SOL    HW162206   0.668  11.055  13.908
86789SOL    HW262207   0.683  11.030  14.056
86790SOL     OW62208  11.011  14.249   1.520
86790SOL    HW162209  11.070  14.220   1.451
86790SOL    HW262210  10.924  14.227   1.487
86791SOL     OW62211   7.424   1.045  13.299
86791SOL    HW162212   7.448   0.953  13.307
86791SOL    HW262213   7.428   1.080  13.388
86792SOL     OW62214   5.028   2.419   0.831
86792SOL    HW162215   5.037   2.421   0.736
86792SOL    HW262216   5.067   2.500   0.861
86793SOL     OW62217   0.511   9.201   7.106
86793SOL    HW162218   0.451   9.141   7.150
86793SOL    HW262219   0.580   9.145   7.070
86794SOL     OW62220   7.128   5.676  10.932
86794SOL    HW162221   7.090   5.593  10.962
86794SOL    HW262222   7.203   5.689  10.990
86795SOL     OW62223  14.839   3.929   7.785
86795SOL    HW162224  14.833   3.867   7.712
86795SOL    HW262225  14.767   3.904   7.843
86796SOL     OW62226  12.461  13.530   4.912
86796SOL    HW162227  12.381  13.576   4.887
86796SOL    HW262228  12.532  13.584   4.878
86797SOL     OW62229   0.961  13.117  12.656
86797SOL    HW162230   0.983  13.027  12.630
86797SOL    HW262231   0.927  13.157  12.576
86798SOL     OW62232   7.624   5.182   8.463
86798SOL    HW162233   7.622   5.097   8.419
86798SOL    HW262234   7.708   5.220   8.439
86799SOL     OW62235   0.975   4.855   9.389
86799SOL    HW162236   1.071   4.861   9.396
86799SOL    HW262237   0.949   4.936   9.346
86800SOL     OW62238   8.928   4.391   1.369
86800SOL    HW162239   9.005   4.445   1.355
86800SOL    HW262240   8.857   4.453   1.385
86801SOL     OW62241   8.078   2.526   6.778
86801SOL    HW162242   8.058   2.433   6.784
86801SOL    HW262243   8.173   2.531   6.782
86802SOL     OW62244   7.589   3.808   0.835
86802SOL    HW162245   7.498   3.820   0.863
86802SOL    HW262246   7.609   3.717   0.857
86803SOL     OW62247   5.743   7.478  14.371
86803SOL    HW162248   5.754   7.484  14.466
86803SOL    HW262249   5.701   7.561  14.346
86804SOL     OW62250   0.744   1.188   1.622
86804SOL    HW162251   0.801   1.236   1.682
86804SOL    HW262252   0.802   1.159   1.552
86805SOL     OW62253   2.157   7.200  11.859
86805SOL    HW162254   2.198   7.162  11.781
86805SOL    HW262255   2.101   7.270  11.824
86806SOL     OW62256  12.041  10.857  11.942
86806SOL    HW162257  12.048  10.943  11.983
86806SOL    HW262258  12.054  10.874  11.849
86807SOL     OW62259   5.487   0.321  14.279
86807SOL    HW162260   5.440   0.238  14.285
86807SOL    HW262261   5.568   0.307  14.328
86808SOL     OW62262   5.349   1.662   8.936
86808SOL    HW162263   5.399   1.719   8.995
86808SOL    HW262264   5.275   1.632   8.989
86809SOL     OW62265  14.603   2.921   8.074
86809SOL    HW162266  14.566   3.009   8.070
86809SOL    HW262267  14.621   2.907   8.167
86810SOL     OW62268   8.657   3.504   0.965
86810SOL    HW162269   8.617   3.559   0.898
86810SOL    HW262270   8.655   3.416   0.929
86811SOL     OW62271  12.681  11.556   5.568
86811SOL    HW162272  12.774  11.568   5.550
86811SOL    HW262273  12.672  11.571   5.662
86812SOL     OW62274   8.227   8.900   1.791
86812SOL    HW162275   8.219   8.917   1.697
86812SOL    HW262276   8.303   8.842   1.799
86813SOL     OW62277   3.215   2.962   9.093
86813SOL    HW162278   3.214   2.866   9.099
86813SOL    HW262279   3.234   2.981   9.002
86814SOL     OW62280   5.576   7.996   1.645
86814SOL    HW162281   5.575   8.053   1.568
86814SOL    HW262282   5.624   8.046   1.711
86815SOL     OW62283  12.623   2.329  11.566
86815SOL    HW162284  12.597   2.299  11.653
86815SOL    HW262285  12.625   2.250  11.512
86816SOL     OW62286   7.605  14.073   1.218
86816SOL    HW162287   7.635  14.146   1.271
86816SOL    HW262288   7.665  14.002   1.239
86817SOL     OW62289   6.101   1.812   5.373
86817SOL    HW162290   6.059   1.796   5.458
86817SOL    HW262291   6.033   1.851   5.319
86818SOL     OW62292   0.201  12.326   7.078
86818SOL    HW162293   0.204  12.357   7.169
86818SOL    HW262294   0.120  12.364   7.043
86819SOL     OW62295  10.274  14.411   0.177
86819SOL    HW162296  10.366  14.387   0.181
86819SOL    HW262297  10.273  14.498   0.137
86820SOL     OW62298   0.021   9.965   5.821
86820SOL    HW162299   0.036   9.872   5.838
86820SOL    HW262300   0.044   9.976   5.729
86821SOL     OW62301   4.197   7.357   4.124
86821SOL    HW162302   4.169   7.340   4.034
86821SOL    HW262303   4.116   7.348   4.176
86822SOL     OW62304  10.941   2.517   2.779
86822SOL    HW162305  11.000   2.591   2.767
86822SOL    HW262306  10.856   2.549   2.747
86823SOL     OW62307   2.319  14.054   4.873
86823SOL    HW162308   2.355  13.982   4.926
86823SOL    HW262309   2.229  14.064   4.905
86824SOL     OW62310  12.803   7.170   3.167
86824SOL    HW162311  12.793   7.172   3.262
86824SOL    HW262312  12.797   7.078   3.144
86825SOL     OW62313   4.207   9.520   3.606
86825SOL    HW162314   4.126   9.521   3.555
86825SOL    HW262315   4.194   9.449   3.670
86826SOL     OW62316  12.051   1.119  10.992
86826SOL    HW162317  12.064   1.164  10.908
86826SOL    HW262318  12.037   1.190  11.054
86827SOL     OW62319   2.781   9.111   2.866
86827SOL    HW162320   2.867   9.070   2.856
86827SOL    HW262321   2.750   9.081   2.951
86828SOL     OW62322  10.512  11.507  13.928
86828SOL    HW162323  10.432  11.557  13.916
86828SOL    HW262324  10.502  11.464  14.013
86829SOL     OW62325   3.418  14.130  14.372
86829SOL    HW162326   3.449  14.179  14.296
86829SOL    HW262327   3.390  14.045  14.336
86830SOL     OW62328   2.948   1.382   5.753
86830SOL    HW162329   2.929   1.391   5.659
86830SOL    HW262330   3.024   1.438   5.767
86831SOL     OW62331  13.175   7.417   3.740
86831SOL    HW162332  13.271   7.420   3.730
86831SOL    HW262333  13.142   7.474   3.671
86832SOL     OW62334   9.006  12.103  10.602
86832SOL    HW162335   8.969  12.119  10.515
86832SOL    HW262336   9.081  12.045  10.586
86833SOL     OW62337   9.567  10.087   1.218
86833SOL    HW162338   9.568  10.167   1.272
86833SOL    HW262339   9.476  10.080   1.189
86834SOL     OW62340   4.993   3.031   2.070
86834SOL    HW162341   4.978   3.115   2.027
86834SOL    HW262342   5.076   2.999   2.033
86835SOL     OW62343   8.197   5.401   0.596
86835SOL    HW162344   8.275   5.392   0.650
86835SOL    HW262345   8.224   5.456   0.522
86836SOL     OW62346   0.865   4.239  12.982
86836SOL    HW162347   0.824   4.216  13.065
86836SOL    HW262348   0.952   4.199  12.986
86837SOL     OW62349   2.074  11.855  13.384
86837SOL    HW162350   2.165  11.835  13.408
86837SOL    HW262351   2.022  11.801  13.443
86838SOL     OW62352  12.767   2.254   8.159
86838SOL    HW162353  12.705   2.183   8.144
86838SOL    HW262354  12.801   2.238   8.247
86839SOL     OW62355   3.776  13.284   3.504
86839SOL    HW162356   3.715  13.217   3.533
86839SOL    HW262357   3.725  13.339   3.443
86840SOL     OW62358   6.041   0.093   1.587
86840SOL    HW162359   5.983   0.166   1.608
86840SOL    HW262360   6.091   0.079   1.667
86841SOL     OW62361   5.533  11.383  14.768
86841SOL    HW162362   5.500  11.367  14.680
86841SOL    HW262363   5.467  11.345  14.826
86842SOL     OW62364  12.097   3.942   9.238
86842SOL    HW162365  12.189   3.928   9.214
86842SOL    HW262366  12.070   4.017   9.185
86843SOL     OW62367   6.724   0.554  11.264
86843SOL    HW162368   6.629   0.551  11.269
86843SOL    HW262369   6.753   0.549  11.355
86844SOL     OW62370   5.020  12.276  11.497
86844SOL    HW162371   4.985  12.207  11.554
86844SOL    HW262372   5.045  12.231  11.416
86845SOL     OW62373  10.657   2.080   6.049
86845SOL    HW162374  10.701   2.030   6.117
86845SOL    HW262375  10.727   2.131   6.007
86846SOL     OW62376   8.494   0.782   0.339
86846SOL    HW162377   8.411   0.741   0.363
86846SOL    HW262378   8.559   0.739   0.393
86847SOL     OW62379   8.783   9.540   1.666
86847SOL    HW162380   8.718   9.610   1.676
86847SOL    HW262381   8.769   9.507   1.577
86848SOL     OW62382   4.167   2.218   2.588
86848SOL    HW162383   4.243   2.165   2.567
86848SOL    HW262384   4.139   2.255   2.504
86849SOL     OW62385  14.021   4.892   0.666
86849SOL    HW162386  14.060   4.935   0.742
86849SOL    HW262387  14.083   4.823   0.643
86850SOL     OW62388   6.051   2.140   5.344
86850SOL    HW162389   6.135   2.143   5.298
86850SOL    HW262390   6.046   2.223   5.391
86851SOL     OW62391  12.649   1.840   4.609
86851SOL    HW162392  12.627   1.815   4.519
86851SOL    HW262393  12.569   1.825   4.658
86852SOL     OW62394   9.416  14.163   7.220
86852SOL    HW162395   9.428  14.071   7.244
86852SOL    HW262396   9.388  14.160   7.128
86853SOL     OW62397  13.810   5.358   1.120
86853SOL    HW162398  13.871   5.289   1.096
86853SOL    HW262399  13.841   5.389   1.205
86854SOL     OW62400   7.994   3.605   0.694
86854SOL    HW162401   7.944   3.629   0.616
86854SOL    HW262402   8.020   3.689   0.732
86855SOL     OW62403  11.874   6.546   6.595
86855SOL    HW162404  11.808   6.477   6.589
86855SOL    HW262405  11.949   6.505   6.638
86856SOL     OW62406   6.075  12.533  12.911
86856SOL    HW162407   6.048  12.564  12.997
86856SOL    HW262408   6.135  12.460  12.929
86857SOL     OW62409   4.285  14.756   3.813
86857SOL    HW162410   4.268  14.706   3.733
86857SOL    HW262411   4.283  14.848   3.784
86858SOL     OW62412   3.679   9.070   9.162
86858SOL    HW162413   3.611   9.069   9.093
86858SOL    HW262414   3.680   9.160   9.194
86859SOL     OW62415   3.840   9.656   5.856
86859SOL    HW162416   3.913   9.714   5.873
86859SOL    HW262417   3.840   9.594   5.929
86860SOL     OW62418  10.708   8.547  10.500
86860SOL    HW162419  10.616   8.574  10.503
86860SOL    HW262420  10.746   8.583  10.580
86861SOL     OW62421  13.735   3.717  11.110
86861SOL    HW162422  13.800   3.649  11.095
86861SOL    HW262423  13.776   3.776  11.174
86862SOL     OW62424   0.545  11.845   8.375
86862SOL    HW162425   0.595  11.797   8.441
86862SOL    HW262426   0.530  11.931   8.414
86863SOL     OW62427   5.969   6.339  14.209
86863SOL    HW162428   5.933   6.373  14.290
86863SOL    HW262429   6.064   6.334  14.224
86864SOL     OW62430   3.061  11.485  12.683
86864SOL    HW162431   3.028  11.520  12.600
86864SOL    HW262432   3.114  11.410  12.657
86865SOL     OW62433   5.127  14.374   3.956
86865SOL    HW162434   5.179  14.413   4.026
86865SOL    HW262435   5.043  14.354   3.998
86866SOL     OW62436   9.379   8.554  11.848
86866SOL    HW162437   9.352   8.464  11.834
86866SOL    HW262438   9.464   8.548  11.892
86867SOL     OW62439   8.524   7.655   6.914
86867SOL    HW162440   8.479   7.570   6.908
86867SOL    HW262441   8.490   7.705   6.840
86868SOL     OW62442   4.788   4.477  12.731
86868SOL    HW162443   4.778   4.383  12.747
86868SOL    HW262444   4.715   4.517  12.778
86869SOL     OW62445   0.020   9.858   8.321
86869SOL    HW162446   0.003   9.941   8.366
86869SOL    HW262447   0.051   9.799   8.390
86870SOL     OW62448   2.187  10.416  10.312
86870SOL    HW162449   2.162  10.503  10.344
86870SOL    HW262450   2.165  10.417  10.219
86871SOL     OW62451   4.747  12.277  13.193
86871SOL    HW162452   4.671  12.336  13.190
86871SOL    HW262453   4.756  12.246  13.102
86872SOL     OW62454   0.478  12.986   9.461
86872SOL    HW162455   0.447  12.897   9.479
86872SOL    HW262456   0.416  13.021   9.398
86873SOL     OW62457   8.231  14.292  14.728
86873SOL    HW162458   8.274  14.218  14.771
86873SOL    HW262459   8.174  14.329  14.796
86874SOL     OW62460   1.212   1.599   3.165
86874SOL    HW162461   1.295   1.646   3.154
86874SOL    HW262462   1.156   1.661   3.212
86875SOL     OW62463  10.045  13.026   8.367
86875SOL    HW162464  10.131  12.986   8.381
86875SOL    HW262465   9.990  12.990   8.436
86876SOL     OW62466   0.326   5.403   9.869
86876SOL    HW162467   0.247   5.401   9.814
86876SOL    HW262468   0.300   5.456   9.945
86877SOL     OW62469   2.205  11.118   7.195
86877SOL    HW162470   2.272  11.176   7.233
86877SOL    HW262471   2.232  11.030   7.222
86878SOL     OW62472  13.877   0.458  11.649
86878SOL    HW162473  13.828   0.535  11.622
86878SOL    HW262474  13.834   0.385  11.604
86879SOL     OW62475  12.141  13.802  13.145
86879SOL    HW162476  12.229  13.823  13.177
86879SOL    HW262477  12.099  13.756  13.218
86880SOL     OW62478   7.248   5.606   5.945
86880SOL    HW162479   7.154   5.586   5.940
86880SOL    HW262480   7.287   5.530   5.988
86881SOL     OW62481   4.497   8.460   7.253
86881SOL    HW162482   4.501   8.365   7.254
86881SOL    HW262483   4.521   8.484   7.163
86882SOL     OW62484  10.788   5.501  14.827
86882SOL    HW162485  10.730   5.499   0.021
86882SOL    HW262486  10.832   5.586  14.834
86883SOL     OW62487   7.837  14.321  11.094
86883SOL    HW162488   7.896  14.369  11.152
86883SOL    HW262489   7.888  14.247  11.063
86884SOL     OW62490  11.533  14.146  14.330
86884SOL    HW162491  11.597  14.075  14.338
86884SOL    HW262492  11.586  14.223  14.307
86885SOL     OW62493   7.503  10.601   6.549
86885SOL    HW162494   7.427  10.549   6.577
86885SOL    HW262495   7.550  10.545   6.488
86886SOL     OW62496   8.104  11.183   6.799
86886SOL    HW162497   8.171  11.196   6.866
86886SOL    HW262498   8.081  11.091   6.805
86887SOL     OW62499  12.833   1.461  10.597
86887SOL    HW162500  12.877   1.377  10.601
86887SOL    HW262501  12.884   1.518  10.655
86888SOL     OW62502  11.259  14.253  13.336
86888SOL    HW162503  11.351  14.236  13.358
86888SOL    HW262504  11.262  14.330  13.279
86889SOL     OW62505   4.437  11.603   4.058
86889SOL    HW162506   4.405  11.518   4.028
86889SOL    HW262507   4.390  11.667   4.004
86890SOL     OW62508   6.305   6.908  10.391
86890SOL    HW162509   6.328   6.896  10.299
86890SOL    HW262510   6.227   6.853  10.403
86891SOL     OW62511  14.173   4.272  12.729
86891SOL    HW162512  14.180   4.192  12.678
86891SOL    HW262513  14.184   4.244  12.820
86892SOL     OW62514   4.879  10.654   1.647
86892SOL    HW162515   4.916  10.571   1.677
86892SOL    HW262516   4.947  10.690   1.590
86893SOL     OW62517  13.954   2.693   1.014
86893SOL    HW162518  13.924   2.752   1.083
86893SOL    HW262519  14.046   2.717   1.001
86894SOL     OW62520   1.830  13.864   9.933
86894SOL    HW162521   1.777  13.896   9.860
86894SOL    HW262522   1.918  13.854   9.895
86895SOL     OW62523   5.076   0.972  12.269
86895SOL    HW162524   5.063   1.060  12.304
86895SOL    HW262525   5.014   0.967  12.195
86896SOL     OW62526   3.466   8.798   1.664
86896SOL    HW162527   3.432   8.797   1.574
86896SOL    HW262528   3.389   8.812   1.718
86897SOL     OW62529   1.586   6.844  11.527
86897SOL    HW162530   1.627   6.830  11.613
86897SOL    HW262531   1.649   6.897  11.479
86898SOL     OW62532   8.624   7.922   7.578
86898SOL    HW162533   8.618   7.829   7.598
86898SOL    HW262534   8.679   7.957   7.648
86899SOL     OW62535  10.703  14.270   4.148
86899SOL    HW162536  10.652  14.299   4.073
86899SOL    HW262537  10.754  14.196   4.115
86900SOL     OW62538   5.401   2.540   9.281
86900SOL    HW162539   5.376   2.632   9.277
86900SOL    HW262540   5.412   2.522   9.374
86901SOL     OW62541  12.815  10.696  12.383
86901SOL    HW162542  12.900  10.692  12.340
86901SOL    HW262543  12.804  10.609  12.421
86902SOL     OW62544  14.377   9.034  11.875
86902SOL    HW162545  14.343   9.066  11.792
86902SOL    HW262546  14.411   9.112  11.919
86903SOL     OW62547  12.992   7.541  12.048
86903SOL    HW162548  13.083   7.550  12.020
86903SOL    HW262549  12.945   7.512  11.970
86904SOL     OW62550   9.706   6.625   0.955
86904SOL    HW162551   9.799   6.637   0.973
86904SOL    HW262552   9.666   6.709   0.978
86905SOL     OW62553   0.288  12.782   5.986
86905SOL    HW162554   0.353  12.839   6.027
86905SOL    HW262555   0.339  12.713   5.944
86906SOL     OW62556   4.323   1.077   6.966
86906SOL    HW162557   4.322   1.008   6.899
86906SOL    HW262558   4.231   1.091   6.987
86907SOL     OW62559   5.935   6.547   1.732
86907SOL    HW162560   5.920   6.495   1.653
86907SOL    HW262561   5.909   6.490   1.804
86908SOL     OW62562   1.794  14.110   8.143
86908SOL    HW162563   1.772  14.097   8.235
86908SOL    HW262564   1.740  14.185   8.116
86909SOL     OW62565   5.566   2.160   6.450
86909SOL    HW162566   5.553   2.232   6.512
86909SOL    HW262567   5.484   2.156   6.400
86910SOL     OW62568   6.671   2.764   9.572
86910SOL    HW162569   6.716   2.687   9.536
86910SOL    HW262570   6.738   2.832   9.575
86911SOL     OW62571   8.291  10.900  12.415
86911SOL    HW162572   8.200  10.887  12.387
86911SOL    HW262573   8.327  10.812  12.421
86912SOL     OW62574   2.079   4.769   0.823
86912SOL    HW162575   2.119   4.783   0.908
86912SOL    HW262576   2.003   4.828   0.822
86913SOL     OW62577  11.313   8.387  14.498
86913SOL    HW162578  11.361   8.358  14.420
86913SOL    HW262579  11.233   8.334  14.498
86914SOL     OW62580   6.400   3.661   2.193
86914SOL    HW162581   6.358   3.747   2.197
86914SOL    HW262582   6.489   3.676   2.225
86915SOL     OW62583  11.757   4.791   2.173
86915SOL    HW162584  11.771   4.861   2.237
86915SOL    HW262585  11.675   4.749   2.201
86916SOL     OW62586  12.213   5.996  13.320
86916SOL    HW162587  12.238   6.084  13.290
86916SOL    HW262588  12.294   5.957  13.351
86917SOL     OW62589   0.407   3.699  13.344
86917SOL    HW162590   0.496   3.687  13.376
86917SOL    HW262591   0.413   3.682  13.250
86918SOL     OW62592   6.908   4.909   9.832
86918SOL    HW162593   6.903   4.996   9.794
86918SOL    HW262594   6.816   4.883   9.845
86919SOL     OW62595   4.221   5.592   0.178
86919SOL    HW162596   4.309   5.571   0.210
86919SOL    HW262597   4.206   5.683   0.207
86920SOL     OW62598   5.174   0.080  12.412
86920SOL    HW162599   5.133   0.148  12.359
86920SOL    HW262600   5.101   0.039  12.458
86921SOL     OW62601   9.914  13.460   6.344
86921SOL    HW162602   9.959  13.402   6.283
86921SOL    HW262603   9.825  13.426   6.349
86922SOL     OW62604   8.252   7.040  13.968
86922SOL    HW162605   8.239   7.032  13.873
86922SOL    HW262606   8.179   7.094  13.997
86923SOL     OW62607   5.823   6.802  11.951
86923SOL    HW162608   5.910   6.798  11.912
86923SOL    HW262609   5.839   6.821  12.044
86924SOL     OW62610   2.121  14.031   5.216
86924SOL    HW162611   2.141  13.985   5.297
86924SOL    HW262612   2.059  14.100   5.242
86925SOL     OW62613   3.392  14.082   5.480
86925SOL    HW162614   3.422  14.080   5.571
86925SOL    HW262615   3.389  14.175   5.458
86926SOL     OW62616  14.482  12.723  11.114
86926SOL    HW162617  14.428  12.645  11.098
86926SOL    HW262618  14.418  12.791  11.135
86927SOL     OW62619  10.458   7.846   7.054
86927SOL    HW162620  10.517   7.890   6.993
86927SOL    HW262621  10.494   7.758   7.064
86928SOL     OW62622   5.590   2.976   6.887
86928SOL    HW162623   5.612   3.063   6.852
86928SOL    HW262624   5.581   2.991   6.981
86929SOL     OW62625  11.616  14.488   0.614
86929SOL    HW162626  11.710  14.493   0.592
86929SOL    HW262627  11.614  14.487   0.709
86930SOL     OW62628   9.255   2.451  12.851
86930SOL    HW162629   9.188   2.508  12.812
86930SOL    HW262630   9.210   2.369  12.868
86931SOL     OW62631  11.880   1.390   3.868
86931SOL    HW162632  11.874   1.454   3.798
86931SOL    HW262633  11.853   1.437   3.947
86932SOL     OW62634   9.265   0.375   7.210
86932SOL    HW162635   9.287   0.282   7.200
86932SOL    HW262636   9.200   0.391   7.141
86933SOL     OW62637   4.277   8.414   3.610
86933SOL    HW162638   4.225   8.493   3.599
86933SOL    HW262639   4.273   8.370   3.525
86934SOL     OW62640   2.364   0.885  11.212
86934SOL    HW162641   2.333   0.918  11.296
86934SOL    HW262642   2.316   0.803  11.200
86935SOL     OW62643   5.592  12.384   3.693
86935SOL    HW162644   5.601  12.406   3.786
86935SOL    HW262645   5.601  12.468   3.648
86936SOL     OW62646   8.401   3.035   1.396
86936SOL    HW162647   8.439   3.021   1.309
86936SOL    HW262648   8.410   3.129   1.411
86937SOL     OW62649   2.068   2.573   7.723
86937SOL    HW162650   2.090   2.653   7.675
86937SOL    HW262651   1.988   2.542   7.680
86938SOL     OW62652   1.976  14.408   8.044
86938SOL    HW162653   1.888  14.400   8.080
86938SOL    HW262654   1.995  14.502   8.048
86939SOL     OW62655  12.399  11.234   7.682
86939SOL    HW162656  12.373  11.325   7.697
86939SOL    HW262657  12.409  11.227   7.587
86940SOL     OW62658   9.885  14.836   2.519
86940SOL    HW162659   9.942   0.026   2.491
86940SOL    HW262660   9.879  14.779   2.442
86941SOL     OW62661  12.698   1.317   0.035
86941SOL    HW162662  12.630   1.366  14.871
86941SOL    HW262663  12.689   1.344   0.127
86942SOL     OW62664   2.828   3.184   0.123
86942SOL    HW162665   2.893   3.209   0.189
86942SOL    HW262666   2.796   3.099   0.152
86943SOL     OW62667   3.906   4.151   8.735
86943SOL    HW162668   3.929   4.199   8.655
86943SOL    HW262669   3.929   4.060   8.715
86944SOL     OW62670   4.327   5.436  13.879
86944SOL    HW162671   4.285   5.479  13.805
86944SOL    HW262672   4.338   5.345  13.852
86945SOL     OW62673   9.886   9.082   4.091
86945SOL    HW162674   9.975   9.090   4.125
86945SOL    HW262675   9.878   8.990   4.066
86946SOL     OW62676   3.588   4.125   7.277
86946SOL    HW162677   3.601   4.043   7.323
86946SOL    HW262678   3.543   4.181   7.340
86947SOL     OW62679  11.571   9.948  12.145
86947SOL    HW162680  11.552   9.888  12.217
86947SOL    HW262681  11.620  10.020  12.185
86948SOL     OW62682   4.319  13.143   8.271
86948SOL    HW162683   4.323  13.132   8.176
86948SOL    HW262684   4.228  13.125   8.294
86949SOL     OW62685   6.506   3.187   9.172
86949SOL    HW162686   6.422   3.232   9.176
86949SOL    HW262687   6.488   3.099   9.204
86950SOL     OW62688   2.417   2.515   7.934
86950SOL    HW162689   2.382   2.426   7.939
86950SOL    HW262690   2.383   2.549   7.852
86951SOL     OW62691   8.696  14.273   0.224
86951SOL    HW162692   8.616  14.221   0.227
86951SOL    HW262693   8.757  14.226   0.280
86952SOL     OW62694  10.103   6.520   5.256
86952SOL    HW162695  10.043   6.583   5.297
86952SOL    HW262696  10.080   6.523   5.163
86953SOL     OW62697   0.677   0.016  11.144
86953SOL    HW162698   0.698   0.072  11.219
86953SOL    HW262699   0.751  14.837  11.139
86954SOL     OW62700   4.979   2.700   2.097
86954SOL    HW162701   5.017   2.771   2.046
86954SOL    HW262702   5.029   2.700   2.179
86955SOL     OW62703   8.050   1.578  13.677
86955SOL    HW162704   7.999   1.554  13.754
86955SOL    HW262705   8.120   1.513  13.673
86956SOL     OW62706   2.779   8.095   6.451
86956SOL    HW162707   2.718   8.021   6.448
86956SOL    HW262708   2.724   8.172   6.434
86957SOL     OW62709  14.435   4.437  12.768
86957SOL    HW162710  14.365   4.397  12.717
86957SOL    HW262711  14.466   4.368  12.827
86958SOL     OW62712   0.664   4.628   5.604
86958SOL    HW162713   0.570   4.615   5.614
86958SOL    HW262714   0.686   4.695   5.668
86959SOL     OW62715   4.282   5.905  13.912
86959SOL    HW162716   4.373   5.932  13.924
86959SOL    HW262717   4.233   5.986  13.909
86960SOL     OW62718   4.128   5.199   2.761
86960SOL    HW162719   4.165   5.270   2.710
86960SOL    HW262720   4.095   5.241   2.841
86961SOL     OW62721  14.255   0.485  12.338
86961SOL    HW162722  14.260   0.493  12.243
86961SOL    HW262723  14.325   0.543  12.370
86962SOL     OW62724   5.608   8.264   7.821
86962SOL    HW162725   5.698   8.283   7.795
86962SOL    HW262726   5.562   8.251   7.738
86963SOL     OW62727   8.881   4.342  12.466
86963SOL    HW162728   8.896   4.252  12.495
86963SOL    HW262729   8.968   4.374  12.443
86964SOL     OW62730  13.327   8.647  12.248
86964SOL    HW162731  13.294   8.737  12.242
86964SOL    HW262732  13.270   8.606  12.314
86965SOL     OW62733   7.464   1.021  11.797
86965SOL    HW162734   7.398   1.059  11.855
86965SOL    HW262735   7.546   1.059  11.827
86966SOL     OW62736   4.055   1.016   9.426
86966SOL    HW162737   4.023   1.019   9.516
86966SOL    HW262738   4.126   1.080   9.424
86967SOL     OW62739   1.642   3.274   9.607
86967SOL    HW162740   1.682   3.304   9.689
86967SOL    HW262741   1.549   3.263   9.629
86968SOL     OW62742   9.383   2.915   2.321
86968SOL    HW162743   9.333   2.969   2.260
86968SOL    HW262744   9.462   2.966   2.338
86969SOL     OW62745  11.060   7.889   1.752
86969SOL    HW162746  11.086   7.980   1.745
86969SOL    HW262747  11.142   7.841   1.764
86970SOL     OW62748  14.753  14.872  10.530
86970SOL    HW162749  14.724   0.076  10.499
86970SOL    HW262750  14.837  14.858  10.486
86971SOL     OW62751   7.633  13.618   2.636
86971SOL    HW162752   7.691  13.680   2.680
86971SOL    HW262753   7.582  13.578   2.707
86972SOL     OW62754  14.448   6.119   7.603
86972SOL    HW162755  14.507   6.108   7.529
86972SOL    HW262756  14.379   6.176   7.571
86973SOL     OW62757   1.812   5.685   6.695
86973SOL    HW162758   1.907   5.687   6.685
86973SOL    HW262759   1.782   5.632   6.621
86974SOL     OW62760   1.018   8.305  13.611
86974SOL    HW162761   0.931   8.326  13.645
86974SOL    HW262762   1.018   8.342  13.523
86975SOL     OW62763   6.469   6.846   6.467
86975SOL    HW162764   6.388   6.865   6.514
86975SOL    HW262765   6.528   6.917   6.490
86976SOL     OW62766   6.645  10.389   3.675
86976SOL    HW162767   6.723  10.359   3.721
86976SOL    HW262768   6.626  10.320   3.612
86977SOL     OW62769   2.752  12.535   3.739
86977SOL    HW162770   2.792  12.453   3.710
86977SOL    HW262771   2.824  12.586   3.776
86978SOL     OW62772   6.941   1.297  13.029
86978SOL    HW162773   7.025   1.305  13.074
86978SOL    HW262774   6.962   1.255  12.946
86979SOL     OW62775   1.329   6.484   1.285
86979SOL    HW162776   1.347   6.563   1.334
86979SOL    HW262777   1.332   6.511   1.193
86980SOL     OW62778  10.462  13.721   8.795
86980SOL    HW162779  10.429  13.632   8.782
86980SOL    HW262780  10.520  13.736   8.720
86981SOL     OW62781   2.646  14.228   0.751
86981SOL    HW162782   2.644  14.136   0.776
86981SOL    HW262783   2.577  14.269   0.803
86982SOL     OW62784  11.553   3.669   8.596
86982SOL    HW162785  11.461   3.679   8.575
86982SOL    HW262786  11.595   3.646   8.513
86983SOL     OW62787   8.540   3.135  10.929
86983SOL    HW162788   8.588   3.163  11.008
86983SOL    HW262789   8.580   3.186  10.858
86984SOL     OW62790  12.502   2.798   0.238
86984SOL    HW162791  12.478   2.873   0.183
86984SOL    HW262792  12.452   2.725   0.203
86985SOL     OW62793   9.931  12.971  12.925
86985SOL    HW162794   9.864  12.951  12.990
86985SOL    HW262795   9.927  13.066  12.914
86986SOL     OW62796   9.418   1.711   0.520
86986SOL    HW162797   9.337   1.668   0.492
86986SOL    HW262798   9.431   1.782   0.458
86987SOL     OW62799  13.802   7.511   1.897
86987SOL    HW162800  13.852   7.512   1.815
86987SOL    HW262801  13.863   7.547   1.962
86988SOL     OW62802   4.238   1.846  10.653
86988SOL    HW162803   4.275   1.794  10.724
86988SOL    HW262804   4.249   1.937  10.682
86989SOL     OW62805   2.754   7.602   4.518
86989SOL    HW162806   2.781   7.602   4.426
86989SOL    HW262807   2.661   7.626   4.516
86990SOL     OW62808  14.391   0.471   0.655
86990SOL    HW162809  14.368   0.521   0.576
86990SOL    HW262810  14.310   0.428   0.681
86991SOL     OW62811   2.235  14.675   5.995
86991SOL    HW162812   2.150  14.630   5.995
86991SOL    HW262813   2.275  14.651   5.912
86992SOL     OW62814   1.069   3.309   7.519
86992SOL    HW162815   1.075   3.291   7.426
86992SOL    HW262816   1.066   3.405   7.526
86993SOL     OW62817   4.795   1.612   8.507
86993SOL    HW162818   4.800   1.679   8.438
86993SOL    HW262819   4.705   1.581   8.504
86994SOL     OW62820  11.473   1.917  10.071
86994SOL    HW162821  11.463   1.951  10.160
86994SOL    HW262822  11.460   1.993  10.015
86995SOL     OW62823  12.088   7.288  10.601
86995SOL    HW162824  12.152   7.253  10.538
86995SOL    HW262825  12.062   7.213  10.654
86996SOL     OW62826  12.254  13.438   2.690
86996SOL    HW162827  12.312  13.367   2.720
86996SOL    HW262828  12.243  13.421   2.597
86997SOL     OW62829   5.720  11.163   2.499
86997SOL    HW162830   5.759  11.100   2.438
86997SOL    HW262831   5.743  11.129   2.586
86998SOL     OW62832   3.505   3.978   4.544
86998SOL    HW162833   3.591   3.951   4.574
86998SOL    HW262834   3.444   3.919   4.590
86999SOL     OW62835  12.151   6.852   7.202
86999SOL    HW162836  12.110   6.902   7.132
86999SOL    HW262837  12.245   6.871   7.193
87000SOL     OW62838  14.731   8.967   1.190
87000SOL    HW162839  14.786   8.975   1.268
87000SOL    HW262840  14.668   8.898   1.212
87001SOL     OW62841   6.661   9.379   6.238
87001SOL    HW162842   6.639   9.287   6.226
87001SOL    HW262843   6.680   9.386   6.332
87002SOL     OW62844   9.040  12.503   4.450
87002SOL    HW162845   9.086  12.421   4.468
87002SOL    HW262846   8.947  12.480   4.454
87003SOL     OW62847   8.961  12.113   8.701
87003SOL    HW162848   8.984  12.062   8.623
87003SOL    HW262849   8.879  12.073   8.732
87004SOL     OW62850   3.602   9.842  12.907
87004SOL    HW162851   3.605   9.780  12.835
87004SOL    HW262852   3.635   9.794  12.983
87005SOL     OW62853  12.111  13.387  12.455
87005SOL    HW162854  12.205  13.397  12.466
87005SOL    HW262855  12.073  13.428  12.532
87006SOL     OW62856  11.043  14.674   4.186
87006SOL    HW162857  11.010  14.751   4.232
87006SOL    HW262858  10.976  14.607   4.200
87007SOL     OW62859   6.231  10.008   4.606
87007SOL    HW162860   6.321   9.996   4.576
87007SOL    HW262861   6.179   9.953   4.548
87008SOL     OW62862   5.470   5.004   4.881
87008SOL    HW162863   5.480   5.097   4.860
87008SOL    HW262864   5.386   4.999   4.926
87009SOL     OW62865   8.519  11.313  13.728
87009SOL    HW162866   8.565  11.241  13.773
87009SOL    HW262867   8.462  11.350  13.795
87010SOL     OW62868   0.311  13.674  10.957
87010SOL    HW162869   0.306  13.717  11.042
87010SOL    HW262870   0.224  13.636  10.944
87011SOL     OW62871   3.493  11.318   0.666
87011SOL    HW162872   3.411  11.278   0.693
87011SOL    HW262873   3.502  11.295   0.574
87012SOL     OW62874   2.442  11.451   9.314
87012SOL    HW162875   2.405  11.379   9.262
87012SOL    HW262876   2.460  11.411   9.399
87013SOL     OW62877   1.169  10.024  14.452
87013SOL    HW162878   1.122  10.063  14.379
87013SOL    HW262879   1.207   9.944  14.417
87014SOL     OW62880   3.424  13.636   1.943
87014SOL    HW162881   3.408  13.589   1.861
87014SOL    HW262882   3.476  13.712   1.917
87015SOL     OW62883   6.517  14.024   5.004
87015SOL    HW162884   6.608  14.040   5.026
87015SOL    HW262885   6.519  13.969   4.926
87016SOL     OW62886   0.145   5.725   3.688
87016SOL    HW162887   0.098   5.696   3.766
87016SOL    HW262888   0.165   5.645   3.640
87017SOL     OW62889  10.729   6.552  11.112
87017SOL    HW162890  10.651   6.543  11.167
87017SOL    HW262891  10.790   6.602  11.166
87018SOL     OW62892   8.979   3.750  11.953
87018SOL    HW162893   8.971   3.749  11.858
87018SOL    HW262894   8.923   3.822  11.981
87019SOL     OW62895  14.379  13.466  11.051
87019SOL    HW162896  14.289  13.434  11.061
87019SOL    HW262897  14.424  13.396  11.003
87020SOL     OW62898   4.573   0.620  12.216
87020SOL    HW162899   4.485   0.597  12.246
87020SOL    HW262900   4.614   0.663  12.291
87021SOL     OW62901   6.726  14.791   3.340
87021SOL    HW162902   6.653  14.745   3.298
87021SOL    HW262903   6.725  14.758   3.430
87022SOL     OW62904   2.325   8.545   4.616
87022SOL    HW162905   2.362   8.621   4.571
87022SOL    HW262906   2.271   8.502   4.549
87023SOL     OW62907   3.300   1.102  11.683
87023SOL    HW162908   3.349   1.183  11.671
87023SOL    HW262909   3.266   1.108  11.772
87024SOL     OW62910   5.419  11.575   8.831
87024SOL    HW162911   5.377  11.503   8.878
87024SOL    HW262912   5.403  11.652   8.885
87025SOL     OW62913   4.748   1.057  10.457
87025SOL    HW162914   4.807   1.116  10.411
87025SOL    HW262915   4.682   1.115  10.496
87026SOL     OW62916   8.410   6.278   2.947
87026SOL    HW162917   8.459   6.320   2.876
87026SOL    HW262918   8.476   6.257   3.013
87027SOL     OW62919  10.778  13.700   5.598
87027SOL    HW162920  10.851  13.700   5.536
87027SOL    HW262921  10.806  13.640   5.667
87028SOL     OW62922   6.233  10.213   2.488
87028SOL    HW162923   6.250  10.300   2.453
87028SOL    HW262924   6.144  10.192   2.460
87029SOL     OW62925  13.999   2.469   8.847
87029SOL    HW162926  14.012   2.541   8.785
87029SOL    HW262927  13.904   2.463   8.857
87030SOL     OW62928   4.586   5.372   7.833
87030SOL    HW162929   4.576   5.461   7.800
87030SOL    HW262930   4.593   5.383   7.928
87031SOL     OW62931   3.018   1.171  10.777
87031SOL    HW162932   3.065   1.126  10.847
87031SOL    HW262933   3.038   1.264  10.791
87032SOL     OW62934   7.032  13.718   4.873
87032SOL    HW162935   7.108  13.660   4.882
87032SOL    HW262936   7.056  13.780   4.804
87033SOL     OW62937   4.713  14.733   4.554
87033SOL    HW162938   4.707  14.826   4.574
87033SOL    HW262939   4.650  14.692   4.613
87034SOL     OW62940   7.878   5.950   5.600
87034SOL    HW162941   7.956   5.900   5.578
87034SOL    HW262942   7.911   6.034   5.629
87035SOL     OW62943   4.687   8.212   4.160
87035SOL    HW162944   4.691   8.172   4.073
87035SOL    HW262945   4.621   8.281   4.151
87036SOL     OW62946  11.790   9.599   2.388
87036SOL    HW162947  11.740   9.528   2.428
87036SOL    HW262948  11.852   9.555   2.330
87037SOL     OW62949   5.945  12.074   6.537
87037SOL    HW162950   6.031  12.075   6.496
87037SOL    HW262951   5.946  12.148   6.597
87038SOL     OW62952   5.669   4.534   1.156
87038SOL    HW162953   5.667   4.458   1.097
87038SOL    HW262954   5.712   4.602   1.105
87039SOL     OW62955  13.327  12.119  10.735
87039SOL    HW162956  13.356  12.173  10.661
87039SOL    HW262957  13.255  12.066  10.700
87040SOL     OW62958  12.759  10.697   2.796
87040SOL    HW162959  12.716  10.620   2.834
87040SOL    HW262960  12.851  10.686   2.818
87041SOL     OW62961   1.864   1.148  10.085
87041SOL    HW162962   1.872   1.104  10.170
87041SOL    HW262963   1.818   1.229  10.105
87042SOL     OW62964   3.633  11.192  10.308
87042SOL    HW162965   3.667  11.218  10.393
87042SOL    HW262966   3.638  11.097  10.308
87043SOL     OW62967   4.238   7.516   2.631
87043SOL    HW162968   4.238   7.442   2.691
87043SOL    HW262969   4.298   7.580   2.670
87044SOL     OW62970  13.937   3.821   9.547
87044SOL    HW162971  13.962   3.872   9.470
87044SOL    HW262972  14.006   3.755   9.555
87045SOL     OW62973   2.556  11.699   1.570
87045SOL    HW162974   2.547  11.791   1.594
87045SOL    HW262975   2.513  11.651   1.641
87046SOL     OW62976   1.740   0.531   6.369
87046SOL    HW162977   1.758   0.439   6.389
87046SOL    HW262978   1.677   0.529   6.297
87047SOL     OW62979   3.463   0.677   0.935
87047SOL    HW162980   3.443   0.645   1.023
87047SOL    HW262981   3.517   0.608   0.896
87048SOL     OW62982   6.936   1.334   9.444
87048SOL    HW162983   6.910   1.384   9.366
87048SOL    HW262984   6.867   1.269   9.455
87049SOL     OW62985  10.515   8.351   4.427
87049SOL    HW162986  10.561   8.435   4.426
87049SOL    HW262987  10.506   8.329   4.520
87050SOL     OW62988   8.820   5.543  11.355
87050SOL    HW162989   8.790   5.632  11.338
87050SOL    HW262990   8.742   5.498  11.389
87051SOL     OW62991   9.899  14.870   3.959
87051SOL    HW162992   9.864  14.786   3.928
87051SOL    HW262993   9.827   0.050   3.946
87052SOL     OW62994  12.027  14.354  12.413
87052SOL    HW162995  12.080  14.406  12.474
87052SOL    HW262996  12.043  14.395  12.328
87053SOL     OW62997  11.052   3.122   9.021
87053SOL    HW162998  10.989   3.049   9.024
87053SOL    HW262999  11.041   3.166   9.106
87054SOL     OW63000   6.847   7.616   8.588
87054SOL    HW163001   6.928   7.570   8.565
87054SOL    HW263002   6.778   7.563   8.548
87055SOL     OW63003   9.506   9.548   6.570
87055SOL    HW163004   9.485   9.530   6.479
87055SOL    HW263005   9.450   9.488   6.620
87056SOL     OW63006   1.713   8.451   6.357
87056SOL    HW163007   1.737   8.532   6.314
87056SOL    HW263008   1.689   8.392   6.286
87057SOL     OW63009   7.383  11.541   9.308
87057SOL    HW163010   7.457  11.534   9.368
87057SOL    HW263011   7.350  11.630   9.322
87058SOL     OW63012  13.691  12.018   3.791
87058SOL    HW163013  13.627  11.998   3.723
87058SOL    HW263014  13.669  11.959   3.863
87059SOL     OW63015   0.462   0.215   4.229
87059SOL    HW163016   0.435   0.151   4.296
87059SOL    HW263017   0.464   0.299   4.275
87060SOL     OW63018  11.698   1.692  11.181
87060SOL    HW163019  11.686   1.608  11.225
87060SOL    HW263020  11.656   1.756  11.239
87061SOL     OW63021  13.071  13.341   8.374
87061SOL    HW163022  12.993  13.286   8.374
87061SOL    HW263023  13.119  13.313   8.296
87062SOL     OW63024  11.034  12.547   4.158
87062SOL    HW163025  10.958  12.556   4.216
87062SOL    HW263026  11.108  12.539   4.219
87063SOL     OW63027   4.578   1.970   2.588
87063SOL    HW163028   4.571   1.874   2.584
87063SOL    HW263029   4.497   2.001   2.549
87064SOL     OW63030   8.954   5.440   6.382
87064SOL    HW163031   8.876   5.414   6.333
87064SOL    HW263032   8.967   5.532   6.359
87065SOL     OW63033   8.158  13.256   8.373
87065SOL    HW163034   8.075  13.284   8.411
87065SOL    HW263035   8.155  13.288   8.283
87066SOL     OW63036   5.449  13.654   4.377
87066SOL    HW163037   5.417  13.712   4.308
87066SOL    HW263038   5.382  13.586   4.383
87067SOL     OW63039   3.446   8.355   1.780
87067SOL    HW163040   3.389   8.429   1.756
87067SOL    HW263041   3.436   8.348   1.875
87068SOL     OW63042   0.546   3.793   9.449
87068SOL    HW163043   0.568   3.715   9.500
87068SOL    HW263044   0.587   3.865   9.497
87069SOL     OW63045   3.267   1.753   8.771
87069SOL    HW163046   3.322   1.806   8.829
87069SOL    HW263047   3.284   1.788   8.683
87070SOL     OW63048  10.368   1.489   1.473
87070SOL    HW163049  10.444   1.440   1.440
87070SOL    HW263050  10.297   1.465   1.415
87071SOL     OW63051   1.736  13.403   3.404
87071SOL    HW163052   1.745  13.432   3.495
87071SOL    HW263053   1.735  13.308   3.410
87072SOL     OW63054   2.413  11.201   1.441
87072SOL    HW163055   2.402  11.127   1.381
87072SOL    HW263056   2.464  11.264   1.391
87073SOL     OW63057  10.943  14.777  14.623
87073SOL    HW163058  10.973  14.867  14.636
87073SOL    HW263059  11.005  14.740  14.560
87074SOL     OW63060   4.770   7.364   6.249
87074SOL    HW163061   4.784   7.317   6.331
87074SOL    HW263062   4.773   7.456   6.274
87075SOL     OW63063  10.884   6.464   6.490
87075SOL    HW163064  10.840   6.380   6.475
87075SOL    HW263065  10.965   6.441   6.536
87076SOL     OW63066  13.565   8.935  14.483
87076SOL    HW163067  13.516   8.982  14.415
87076SOL    HW263068  13.645   8.907  14.439
87077SOL     OW63069   6.007  11.433  12.133
87077SOL    HW163070   5.937  11.494  12.157
87077SOL    HW263071   5.979  11.396  12.049
87078SOL     OW63072   6.392   6.496   1.319
87078SOL    HW163073   6.476   6.494   1.272
87078SOL    HW263074   6.349   6.576   1.287
87079SOL     OW63075   7.461  11.861   4.389
87079SOL    HW163076   7.476  11.787   4.331
87079SOL    HW263077   7.474  11.826   4.477
87080SOL     OW63078   0.080  14.150   7.103
87080SOL    HW163079   0.023  14.194   7.040
87080SOL    HW263080   0.037  14.163   7.188
87081SOL     OW63081   4.111   2.138  13.622
87081SOL    HW163082   4.186   2.150  13.563
87081SOL    HW263083   4.148   2.092  13.698
87082SOL     OW63084   2.253   1.795   9.968
87082SOL    HW163085   2.323   1.828   9.911
87082SOL    HW263086   2.194   1.869   9.980
87083SOL     OW63087   5.498  11.933  11.556
87083SOL    HW163088   5.592  11.923  11.541
87083SOL    HW263089   5.462  11.958  11.471
87084SOL     OW63090   2.953   4.274  12.135
87084SOL    HW163091   3.046   4.252  12.147
87084SOL    HW263092   2.953   4.365  12.107
87085SOL     OW63093   4.629   4.444  14.303
87085SOL    HW163094   4.599   4.425  14.392
87085SOL    HW263095   4.703   4.504  14.315
87086SOL     OW63096   3.118  11.401  11.323
87086SOL    HW163097   3.179  11.379  11.252
87086SOL    HW263098   3.103  11.318  11.369
87087SOL     OW63099  13.089   8.325   7.622
87087SOL    HW163100  13.022   8.367   7.675
87087SOL    HW263101  13.168   8.328   7.676
87088SOL     OW63102   0.116   9.632   2.165
87088SOL    HW163103   0.076   9.625   2.251
87088SOL    HW263104   0.203   9.670   2.182
87089SOL     OW63105   0.308   4.169   0.065
87089SOL    HW163106   0.365   4.239   0.095
87089SOL    HW263107   0.362   4.116   0.007
87090SOL     OW63108   6.854   8.709   8.856
87090SOL    HW163109   6.930   8.735   8.803
87090SOL    HW263110   6.778   8.744   8.808
87091SOL     OW63111  14.512   4.727   0.239
87091SOL    HW163112  14.557   4.700   0.159
87091SOL    HW263113  14.438   4.666   0.247
87092SOL     OW63114   9.146   3.773   1.976
87092SOL    HW163115   9.120   3.702   2.035
87092SOL    HW263116   9.072   3.833   1.975
87093SOL     OW63117   1.886   6.371   6.078
87093SOL    HW163118   1.824   6.299   6.083
87093SOL    HW263119   1.852   6.428   6.009
87094SOL     OW63120  14.252   6.457   0.511
87094SOL    HW163121  14.257   6.393   0.439
87094SOL    HW263122  14.342   6.464   0.543
87095SOL     OW63123   7.679   9.221   8.345
87095SOL    HW163124   7.653   9.160   8.276
87095SOL    HW263125   7.706   9.165   8.418
87096SOL     OW63126   3.323  14.128   6.312
87096SOL    HW163127   3.403  14.159   6.355
87096SOL    HW263128   3.252  14.171   6.359
87097SOL     OW63129   4.033   9.491   4.790
87097SOL    HW163130   3.998   9.503   4.701
87097SOL    HW263131   4.035   9.579   4.827
87098SOL     OW63132   2.934   1.348   9.827
87098SOL    HW163133   2.960   1.389   9.909
87098SOL    HW263134   2.859   1.293   9.850
87099SOL     OW63135  10.911  12.805   6.068
87099SOL    HW163136  10.995  12.795   6.113
87099SOL    HW263137  10.897  12.899   6.063
87100SOL     OW63138   8.757   6.128  11.868
87100SOL    HW163139   8.768   6.096  11.779
87100SOL    HW263140   8.698   6.064  11.909
87101SOL     OW63141  11.894   9.576   9.233
87101SOL    HW163142  11.918   9.500   9.286
87101SOL    HW263143  11.806   9.556   9.200
87102SOL     OW63144  10.919   2.919   4.773
87102SOL    HW163145  10.884   2.975   4.704
87102SOL    HW263146  11.002   2.888   4.739
87103SOL     OW63147   1.870   3.670   5.471
87103SOL    HW163148   1.844   3.693   5.561
87103SOL    HW263149   1.800   3.614   5.439
87104SOL     OW63150   6.472   8.355   9.842
87104SOL    HW163151   6.387   8.340   9.883
87104SOL    HW263152   6.532   8.369   9.915
87105SOL     OW63153   4.591  12.999  12.157
87105SOL    HW163154   4.509  12.953  12.173
87105SOL    HW263155   4.651  12.931  12.125
87106SOL     OW63156  12.068   5.957  11.514
87106SOL    HW163157  12.116   5.880  11.546
87106SOL    HW263158  12.137   6.016  11.483
87107SOL     OW63159   4.342   7.139   7.301
87107SOL    HW163160   4.350   7.234   7.295
87107SOL    HW263161   4.415   7.112   7.357
87108SOL     OW63162  10.938   6.978   4.351
87108SOL    HW163163  11.003   7.014   4.412
87108SOL    HW263164  10.989   6.929   4.287
87109SOL     OW63165   6.495  10.146   2.533
87109SOL    HW163166   6.502  10.188   2.619
87109SOL    HW263167   6.415  10.182   2.495
87110SOL     OW63168   6.480   3.014  10.644
87110SOL    HW163169   6.406   3.034  10.701
87110SOL    HW263170   6.461   2.927  10.610
87111SOL     OW63171   5.886   3.842  13.069
87111SOL    HW163172   5.925   3.897  13.002
87111SOL    HW263173   5.957   3.825  13.131
87112SOL     OW63174   6.315   8.732   0.726
87112SOL    HW163175   6.404   8.717   0.757
87112SOL    HW263176   6.319   8.714   0.633
87113SOL     OW63177   3.473   1.183  14.098
87113SOL    HW163178   3.538   1.240  14.058
87113SOL    HW263179   3.483   1.196  14.192
87114SOL     OW63180   8.718  14.725   3.205
87114SOL    HW163181   8.734  14.818   3.219
87114SOL    HW263182   8.722  14.714   3.110
87115SOL     OW63183   4.710  11.538   2.754
87115SOL    HW163184   4.737  11.616   2.705
87115SOL    HW263185   4.718  11.563   2.846
87116SOL     OW63186  14.144   3.417   5.128
87116SOL    HW163187  14.129   3.388   5.038
87116SOL    HW263188  14.101   3.503   5.132
87117SOL     OW63189  11.011  11.023   7.538
87117SOL    HW163190  10.930  11.062   7.571
87117SOL    HW263191  10.995  10.928   7.541
87118SOL     OW63192  10.903  14.137   3.507
87118SOL    HW163193  10.951  14.176   3.579
87118SOL    HW263194  10.963  14.143   3.432
87119SOL     OW63195   3.878  13.403  12.927
87119SOL    HW163196   3.943  13.412  12.997
87119SOL    HW263197   3.922  13.351  12.860
87120SOL     OW63198  13.190  10.308   6.903
87120SOL    HW163199  13.237  10.316   6.820
87120SOL    HW263200  13.111  10.259   6.881
87121SOL     OW63201   8.298   8.802  11.224
87121SOL    HW163202   8.385   8.828  11.194
87121SOL    HW263203   8.242   8.813  11.147
87122SOL     OW63204   0.794  12.901   6.416
87122SOL    HW163205   0.817  12.885   6.507
87122SOL    HW263206   0.833  12.986   6.396
87123SOL     OW63207  10.123   3.429   7.933
87123SOL    HW163208  10.069   3.378   7.871
87123SOL    HW263209  10.150   3.365   7.999
87124SOL     OW63210   9.057   4.462   2.759
87124SOL    HW163211   9.102   4.381   2.781
87124SOL    HW263212   8.988   4.435   2.698
87125SOL     OW63213  11.618   3.773  11.545
87125SOL    HW163214  11.663   3.724  11.613
87125SOL    HW263215  11.607   3.711  11.473
87126SOL     OW63216   3.834   2.999  10.885
87126SOL    HW163217   3.810   2.923  10.833
87126SOL    HW263218   3.899   2.966  10.948
87127SOL     OW63219  12.071  12.034  14.071
87127SOL    HW163220  11.990  12.028  14.122
87127SOL    HW263221  12.141  12.021  14.135
87128SOL     OW63222   9.022  12.276   2.896
87128SOL    HW163223   9.033  12.262   2.990
87128SOL    HW263224   8.948  12.336   2.889
87129SOL     OW63225   3.616   7.595   3.828
87129SOL    HW163226   3.649   7.544   3.902
87129SOL    HW263227   3.597   7.530   3.761
87130SOL     OW63228  10.280   2.569  12.763
87130SOL    HW163229  10.308   2.593  12.674
87130SOL    HW263230  10.339   2.618  12.820
87131SOL     OW63231   0.907   7.887   4.723
87131SOL    HW163232   0.906   7.883   4.818
87131SOL    HW263233   0.864   7.806   4.695
87132SOL     OW63234  14.147  13.030   5.344
87132SOL    HW163235  14.215  12.986   5.294
87132SOL    HW263236  14.157  13.123   5.322
87133SOL     OW63237   5.222   1.779  13.798
87133SOL    HW163238   5.292   1.736  13.847
87133SOL    HW263239   5.267   1.822  13.725
87134SOL     OW63240   9.211   8.274   4.231
87134SOL    HW163241   9.207   8.222   4.312
87134SOL    HW263242   9.120   8.281   4.203
87135SOL     OW63243   9.311   5.265   5.615
87135SOL    HW163244   9.284   5.335   5.555
87135SOL    HW263245   9.328   5.190   5.558
87136SOL     OW63246   0.137   2.343   0.050
87136SOL    HW163247   0.101   2.431   0.062
87136SOL    HW263248   0.140   2.332  14.837
87137SOL     OW63249  10.102  13.374   9.704
87137SOL    HW163250  10.020  13.408   9.669
87137SOL    HW263251  10.166  13.390   9.635
87138SOL     OW63252   5.919  14.769   7.894
87138SOL    HW163253   5.923  14.853   7.849
87138SOL    HW263254   5.926  14.791   7.987
87139SOL     OW63255   6.287   9.167  13.058
87139SOL    HW163256   6.306   9.179  13.152
87139SOL    HW263257   6.335   9.088  13.034
87140SOL     OW63258   5.878   0.462   6.068
87140SOL    HW163259   5.858   0.529   6.003
87140SOL    HW263260   5.915   0.389   6.018
87141SOL     OW63261   9.632   1.037  14.611
87141SOL    HW163262   9.595   1.104  14.668
87141SOL    HW263263   9.584   0.958  14.633
87142SOL     OW63264   0.402   2.292   8.363
87142SOL    HW163265   0.477   2.348   8.383
87142SOL    HW263266   0.355   2.338   8.293
87143SOL     OW63267   4.075   5.827   3.628
87143SOL    HW163268   4.120   5.857   3.549
87143SOL    HW263269   3.994   5.787   3.596
87144SOL     OW63270   6.692  13.489   8.069
87144SOL    HW163271   6.777  13.481   8.028
87144SOL    HW263272   6.632  13.509   7.998
87145SOL     OW63273   9.938   8.082   5.174
87145SOL    HW163274   9.910   7.996   5.142
87145SOL    HW263275   9.856   8.129   5.191
87146SOL     OW63276   2.944  11.514   5.603
87146SOL    HW163277   2.946  11.424   5.569
87146SOL    HW263278   3.036  11.540   5.605
87147SOL     OW63279  13.847  14.184   0.325
87147SOL    HW163280  13.778  14.138   0.373
87147SOL    HW263281  13.814  14.273   0.315
87148SOL     OW63282   4.609  10.818   6.939
87148SOL    HW163283   4.669  10.744   6.954
87148SOL    HW263284   4.661  10.880   6.888
87149SOL     OW63285   9.255   1.811   9.614
87149SOL    HW163286   9.235   1.902   9.593
87149SOL    HW263287   9.169   1.770   9.623
87150SOL     OW63288  11.565   0.200   5.899
87150SOL    HW163289  11.640   0.141   5.897
87150SOL    HW263290  11.592   0.276   5.846
87151SOL     OW63291  11.011   8.002  12.092
87151SOL    HW163292  11.001   8.059  12.168
87151SOL    HW263293  11.091   7.952  12.111
87152SOL     OW63294  10.578   3.074   6.797
87152SOL    HW163295  10.614   3.044   6.881
87152SOL    HW263296  10.484   3.054   6.804
87153SOL     OW63297   1.038   3.732  12.347
87153SOL    HW163298   0.982   3.680  12.289
87153SOL    HW263299   1.117   3.749  12.296
87154SOL     OW63300   1.527  13.770  14.323
87154SOL    HW163301   1.436  13.794  14.337
87154SOL    HW263302   1.574  13.812  14.395
87155SOL     OW63303   0.513   5.830   3.828
87155SOL    HW163304   0.472   5.855   3.745
87155SOL    HW263305   0.490   5.901   3.889
87156SOL     OW63306   6.664   2.488   8.162
87156SOL    HW163307   6.752   2.490   8.124
87156SOL    HW263308   6.624   2.570   8.134
87157SOL     OW63309   1.928  11.276  10.705
87157SOL    HW163310   1.946  11.302  10.614
87157SOL    HW263311   1.848  11.223  10.698
87158SOL     OW63312  13.494   4.095   0.343
87158SOL    HW163313  13.512   4.084   0.250
87158SOL    HW263314  13.400   4.076   0.352
87159SOL     OW63315   1.172   3.410   8.273
87159SOL    HW163316   1.149   3.397   8.365
87159SOL    HW263317   1.238   3.344   8.255
87160SOL     OW63318   7.033  11.165   7.908
87160SOL    HW163319   7.060  11.107   7.837
87160SOL    HW263320   6.982  11.233   7.864
87161SOL     OW63321   7.014   6.225   6.073
87161SOL    HW163322   7.103   6.203   6.047
87161SOL    HW263323   6.979   6.144   6.111
87162SOL     OW63324  13.277  13.922   9.189
87162SOL    HW163325  13.276  13.876   9.105
87162SOL    HW263326  13.253  13.855   9.254
87163SOL     OW63327   4.028   0.506   4.381
87163SOL    HW163328   4.092   0.443   4.414
87163SOL    HW263329   4.051   0.588   4.424
87164SOL     OW63330   5.513   8.941  10.346
87164SOL    HW163331   5.419   8.928  10.353
87164SOL    HW263332   5.538   8.893  10.267
87165SOL     OW63333   0.192  14.600  12.252
87165SOL    HW163334   0.146  14.553  12.182
87165SOL    HW263335   0.135  14.591  12.328
87166SOL     OW63336   6.372  13.791   3.360
87166SOL    HW163337   6.395  13.883   3.350
87166SOL    HW263338   6.288  13.791   3.405
87167SOL     OW63339   0.159   8.203   9.996
87167SOL    HW163340   0.084   8.261   9.988
87167SOL    HW263341   0.124   8.123  10.036
87168SOL     OW63342   8.761   6.061   5.215
87168SOL    HW163343   8.718   6.139   5.253
87168SOL    HW263344   8.829   6.039   5.278
87169SOL     OW63345   0.155  12.555   9.152
87169SOL    HW163346   0.239  12.529   9.116
87169SOL    HW263347   0.168  12.646   9.181
87170SOL     OW63348   9.977   5.743  14.562
87170SOL    HW163349  10.004   5.834  14.547
87170SOL    HW263350  10.058   5.693  14.559
87171SOL     OW63351   3.448   9.426   7.216
87171SOL    HW163352   3.449   9.424   7.312
87171SOL    HW263353   3.368   9.474   7.194
87172SOL     OW63354   9.407  13.255  13.858
87172SOL    HW163355   9.415  13.220  13.946
87172SOL    HW263356   9.312  13.267  13.846
87173SOL     OW63357  11.945   4.477   8.471
87173SOL    HW163358  12.028   4.429   8.467
87173SOL    HW263359  11.898   4.452   8.391
87174SOL     OW63360   9.893   7.329   4.268
87174SOL    HW163361   9.914   7.238   4.246
87174SOL    HW263362   9.797   7.329   4.278
87175SOL     OW63363   8.500   9.209   8.591
87175SOL    HW163364   8.496   9.300   8.564
87175SOL    HW263365   8.495   9.211   8.687
87176SOL     OW63366   8.623   4.841   2.899
87176SOL    HW163367   8.552   4.884   2.852
87176SOL    HW263368   8.666   4.911   2.948
87177SOL     OW63369   5.564  11.788   6.694
87177SOL    HW163370   5.501  11.847   6.735
87177SOL    HW263371   5.560  11.810   6.601
87178SOL     OW63372   4.970   3.938  13.076
87178SOL    HW163373   5.050   3.901  13.039
87178SOL    HW263374   4.967   3.904  13.165
87179SOL     OW63375   4.510   0.299  10.756
87179SOL    HW163376   4.487   0.391  10.764
87179SOL    HW263377   4.427   0.252  10.762
87180SOL     OW63378   8.079   4.298   0.501
87180SOL    HW163379   7.990   4.263   0.494
87180SOL    HW263380   8.135   4.230   0.462
87181SOL     OW63381  10.516   1.002  11.639
87181SOL    HW163382  10.453   1.006  11.567
87181SOL    HW263383  10.479   1.058  11.707
87182SOL     OW63384   9.624   0.744   5.801
87182SOL    HW163385   9.715   0.762   5.777
87182SOL    HW263386   9.573   0.787   5.733
87183SOL     OW63387  11.857   6.085  11.995
87183SOL    HW163388  11.918   6.067  12.067
87183SOL    HW263389  11.805   6.005  11.987
87184SOL     OW63390   0.400   0.261   2.576
87184SOL    HW163391   0.377   0.205   2.650
87184SOL    HW263392   0.376   0.210   2.499
87185SOL     OW63393   2.719  13.727   3.884
87185SOL    HW163394   2.793  13.786   3.896
87185SOL    HW263395   2.642  13.784   3.888
87186SOL     OW63396   9.995   1.391   2.814
87186SOL    HW163397   9.994   1.323   2.746
87186SOL    HW263398  10.078   1.378   2.860
87187SOL     OW63399   8.405   0.934   0.116
87187SOL    HW163400   8.454   0.910   0.195
87187SOL    HW263401   8.458   1.002   0.074
87188SOL     OW63402   9.633   0.114   2.973
87188SOL    HW163403   9.630   0.199   3.016
87188SOL    HW263404   9.723   0.105   2.943
87189SOL     OW63405  12.753   1.454   8.488
87189SOL    HW163406  12.816   1.382   8.480
87189SOL    HW263407  12.682   1.430   8.428
87190SOL     OW63408  11.394   1.010   3.093
87190SOL    HW163409  11.455   0.995   3.166
87190SOL    HW263410  11.377   0.923   3.058
87191SOL     OW63411  11.229   5.601  10.058
87191SOL    HW163412  11.309   5.556  10.087
87191SOL    HW263413  11.160   5.564  10.112
87192SOL     OW63414   3.386   5.014  10.680
87192SOL    HW163415   3.319   5.082  10.670
87192SOL    HW263416   3.466   5.055  10.649
87193SOL     OW63417   1.279  12.226  13.827
87193SOL    HW163418   1.228  12.283  13.770
87193SOL    HW263419   1.344  12.284  13.867
87194SOL     OW63420   8.279  11.318   2.349
87194SOL    HW163421   8.254  11.243   2.403
87194SOL    HW263422   8.269  11.393   2.407
87195SOL     OW63423  11.359   7.388   4.026
87195SOL    HW163424  11.330   7.447   4.096
87195SOL    HW263425  11.360   7.301   4.067
87196SOL     OW63426   8.671   3.014   9.829
87196SOL    HW163427   8.723   2.947   9.785
87196SOL    HW263428   8.733   3.055   9.890
87197SOL     OW63429  10.430  14.434   2.912
87197SOL    HW163430  10.517  14.459   2.881
87197SOL    HW263431  10.370  14.477   2.851
87198SOL     OW63432   6.770   8.899  10.598
87198SOL    HW163433   6.701   8.937  10.652
87198SOL    HW263434   6.736   8.813  10.572
87199SOL     OW63435   4.357   8.966   6.863
87199SOL    HW163436   4.420   8.917   6.916
87199SOL    HW263437   4.283   8.906   6.851
87200SOL     OW63438  13.960   3.784  13.880
87200SOL    HW163439  13.916   3.812  13.961
87200SOL    HW263440  13.984   3.866  13.837
87201SOL     OW63441  11.819   8.747   7.665
87201SOL    HW163442  11.839   8.840   7.650
87201SOL    HW263443  11.822   8.708   7.578
87202SOL     OW63444   4.979  14.870   1.864
87202SOL    HW163445   5.063   0.025   1.836
87202SOL    HW263446   4.942   0.055   1.922
87203SOL     OW63447   4.495   9.070   5.696
87203SOL    HW163448   4.530   9.124   5.626
87203SOL    HW263449   4.480   8.984   5.655
87204SOL     OW63450   7.032   4.123  13.048
87204SOL    HW163451   7.093   4.066  13.001
87204SOL    HW263452   6.946   4.097  13.016
87205SOL     OW63453   0.176   3.925   9.805
87205SOL    HW163454   0.103   3.977   9.841
87205SOL    HW263455   0.182   3.952   9.714
87206SOL     OW63456  10.993   1.343  12.242
87206SOL    HW163457  11.023   1.384  12.322
87206SOL    HW263458  10.914   1.392  12.218
87207SOL     OW63459   8.395   9.391   4.477
87207SOL    HW163460   8.372   9.374   4.568
87207SOL    HW263461   8.363   9.314   4.430
87208SOL     OW63462   1.796   5.942   6.920
87208SOL    HW163463   1.759   5.886   6.989
87208SOL    HW263464   1.777   5.895   6.839
87209SOL     OW63465   0.131  11.515  13.084
87209SOL    HW163466   0.152  11.438  13.032
87209SOL    HW263467   0.130  11.587  13.021
87210SOL     OW63468   3.922  11.009  10.448
87210SOL    HW163469   3.985  10.970  10.388
87210SOL    HW263470   3.885  10.934  10.495
87211SOL     OW63471   4.770   6.397  10.331
87211SOL    HW163472   4.808   6.318  10.292
87211SOL    HW263473   4.697   6.364  10.383
87212SOL     OW63474   4.030  13.760  13.031
87212SOL    HW163475   4.065  13.844  13.002
87212SOL    HW263476   4.062  13.697  12.967
87213SOL     OW63477   4.096   3.264  14.818
87213SOL    HW163478   4.060   3.175  14.820
87213SOL    HW263479   4.187   3.253  14.791
87214SOL     OW63480   2.087   3.522   1.408
87214SOL    HW163481   2.165   3.538   1.356
87214SOL    HW263482   2.110   3.555   1.496
87215SOL     OW63483  13.537   6.324  11.917
87215SOL    HW163484  13.583   6.366  11.990
87215SOL    HW263485  13.454   6.294  11.955
87216SOL     OW63486   7.275  10.121   4.732
87216SOL    HW163487   7.211  10.053   4.712
87216SOL    HW263488   7.227  10.186   4.784
87217SOL     OW63489   3.441   4.536  12.582
87217SOL    HW163490   3.495   4.466  12.620
87217SOL    HW263491   3.427   4.509  12.491
87218SOL     OW63492   9.445  10.136   4.092
87218SOL    HW163493   9.357  10.101   4.078
87218SOL    HW263494   9.457  10.131   4.187
87219SOL     OW63495   0.298  10.802   8.323
87219SOL    HW163496   0.348  10.877   8.356
87219SOL    HW263497   0.353  10.726   8.343
87220SOL     OW63498   9.555   5.513   5.953
87220SOL    HW163499   9.538   5.602   5.924
87220SOL    HW263500   9.519   5.457   5.884
87221SOL     OW63501  13.800   5.476   3.820
87221SOL    HW163502  13.797   5.499   3.727
87221SOL    HW263503  13.885   5.508   3.849
87222SOL     OW63504   2.148   3.062   3.189
87222SOL    HW163505   2.205   3.093   3.118
87222SOL    HW263506   2.087   3.002   3.146
87223SOL     OW63507  10.580   5.723   7.347
87223SOL    HW163508  10.666   5.764   7.348
87223SOL    HW263509  10.555   5.716   7.439
87224SOL     OW63510   4.953  14.512   3.558
87224SOL    HW163511   4.900  14.538   3.633
87224SOL    HW263512   4.937  14.418   3.548
87225SOL     OW63513   5.756   9.266  11.038
87225SOL    HW163514   5.674   9.231  11.072
87225SOL    HW263515   5.762   9.354  11.076
87226SOL     OW63516  11.320   7.705  10.962
87226SOL    HW163517  11.343   7.755  10.883
87226SOL    HW263518  11.382   7.736  11.028
87227SOL     OW63519   0.613   9.584   9.346
87227SOL    HW163520   0.554   9.520   9.306
87227SOL    HW263521   0.687   9.533   9.376
87228SOL     OW63522   6.465   1.815   9.427
87228SOL    HW163523   6.531   1.749   9.409
87228SOL    HW263524   6.463   1.869   9.348
87229SOL     OW63525   7.489  11.096   4.792
87229SOL    HW163526   7.570  11.136   4.761
87229SOL    HW263527   7.436  11.170   4.823
87230SOL     OW63528   4.831  11.777  11.293
87230SOL    HW163529   4.903  11.756  11.234
87230SOL    HW263530   4.827  11.872  11.294
87231SOL     OW63531   4.106  13.188   6.646
87231SOL    HW163532   4.165  13.181   6.570
87231SOL    HW263533   4.163  13.217   6.717
87232SOL     OW63534  10.226   0.242   5.542
87232SOL    HW163535  10.269   0.256   5.458
87232SOL    HW263536  10.263   0.160   5.574
87233SOL     OW63537   0.541  12.849  14.050
87233SOL    HW163538   0.505  12.770  14.009
87233SOL    HW263539   0.509  12.846  14.140
87234SOL     OW63540   5.991  10.686  11.614
87234SOL    HW163541   5.965  10.643  11.696
87234SOL    HW263542   5.917  10.742  11.592
87235SOL     OW63543   9.973   5.481   8.117
87235SOL    HW163544  10.020   5.425   8.056
87235SOL    HW263545   9.912   5.422   8.162
87236SOL     OW63546   3.735  12.075  11.567
87236SOL    HW163547   3.766  11.987  11.592
87236SOL    HW263548   3.669  12.096  11.632
87237SOL     OW63549   0.301   7.100  13.994
87237SOL    HW163550   0.295   7.175  13.936
87237SOL    HW263551   0.328   7.137  14.079
87238SOL     OW63552  14.282   7.960  14.861
87238SOL    HW163553  14.250   8.049  14.877
87238SOL    HW263554  14.347   7.946   0.048
87239SOL     OW63555   0.999   8.180   8.336
87239SOL    HW163556   0.930   8.231   8.294
87239SOL    HW263557   0.968   8.090   8.332
87240SOL     OW63558   0.846   1.803   8.333
87240SOL    HW163559   0.875   1.774   8.246
87240SOL    HW263560   0.827   1.896   8.321
87241SOL     OW63561   0.975   1.971   6.250
87241SOL    HW163562   1.029   2.022   6.190
87241SOL    HW263563   1.037   1.932   6.311
87242SOL     OW63564   3.347  10.032   7.270
87242SOL    HW163565   3.391  10.019   7.354
87242SOL    HW263566   3.359   9.950   7.223
87243SOL     OW63567   8.420   6.485  12.563
87243SOL    HW163568   8.453   6.399  12.589
87243SOL    HW263569   8.423   6.485  12.467
87244SOL     OW63570   0.826   9.190   7.624
87244SOL    HW163571   0.861   9.182   7.712
87244SOL    HW263572   0.873   9.125   7.572
87245SOL     OW63573   9.583   9.287   5.298
87245SOL    HW163574   9.625   9.337   5.228
87245SOL    HW263575   9.550   9.353   5.358
87246SOL     OW63576   1.113   0.570   6.199
87246SOL    HW163577   1.025   0.607   6.193
87246SOL    HW263578   1.171   0.646   6.203
87247SOL     OW63579   4.304   2.110  10.684
87247SOL    HW163580   4.292   2.166  10.760
87247SOL    HW263581   4.389   2.136  10.647
87248SOL     OW63582   9.069   8.475   7.787
87248SOL    HW163583   8.979   8.464   7.755
87248SOL    HW263584   9.104   8.546   7.733
87249SOL     OW63585   1.686  14.780   5.460
87249SOL    HW163586   1.644  14.814   5.538
87249SOL    HW263587   1.710  14.690   5.482
87250SOL     OW63588  12.231  12.041   8.430
87250SOL    HW163589  12.228  12.125   8.477
87250SOL    HW263590  12.308  11.997   8.464
87251SOL     OW63591   1.706   3.209   0.584
87251SOL    HW163592   1.630   3.250   0.543
87251SOL    HW263593   1.738   3.274   0.647
87252SOL     OW63594  14.356   5.110   1.297
87252SOL    HW163595  14.290   5.175   1.322
87252SOL    HW263596  14.412   5.155   1.234
87253SOL     OW63597   1.296   5.266   7.796
87253SOL    HW163598   1.288   5.318   7.877
87253SOL    HW263599   1.326   5.329   7.731
87254SOL     OW63600   2.335   6.613  12.578
87254SOL    HW163601   2.267   6.650  12.634
87254SOL    HW263602   2.394   6.567  12.638
87255SOL     OW63603   9.473  13.247   2.455
87255SOL    HW163604   9.484  13.338   2.483
87255SOL    HW263605   9.379  13.230   2.463
87256SOL     OW63606   5.701   4.442   8.383
87256SOL    HW163607   5.642   4.404   8.448
87256SOL    HW263608   5.657   4.522   8.354
87257SOL     OW63609   0.225   7.644  13.857
87257SOL    HW163610   0.136   7.609  13.859
87257SOL    HW263611   0.243   7.669  13.947
87258SOL     OW63612  11.784  12.876   9.904
87258SOL    HW163613  11.792  12.783   9.922
87258SOL    HW263614  11.824  12.919   9.980
87259SOL     OW63615   9.585  13.523   3.968
87259SOL    HW163616   9.557  13.576   4.043
87259SOL    HW263617   9.510  13.526   3.908
87260SOL     OW63618   0.148  10.469   8.840
87260SOL    HW163619   0.076  10.406   8.832
87260SOL    HW263620   0.175  10.463   8.931
87261SOL     OW63621  11.277   5.558   7.694
87261SOL    HW163622  11.299   5.536   7.784
87261SOL    HW263623  11.183   5.539   7.687
87262SOL     OW63624   3.458   5.370  13.287
87262SOL    HW163625   3.544   5.401  13.260
87262SOL    HW263626   3.415   5.447  13.324
87263SOL     OW63627   8.809  11.991  14.392
87263SOL    HW163628   8.862  11.927  14.344
87263SOL    HW263629   8.792  12.060  14.327
87264SOL     OW63630   0.633   4.132   3.729
87264SOL    HW163631   0.616   4.066   3.662
87264SOL    HW263632   0.721   4.112   3.761
87265SOL     OW63633   9.983  12.143   6.748
87265SOL    HW163634  10.064  12.186   6.773
87265SOL    HW263635   9.973  12.072   6.811
87266SOL     OW63636  11.162   0.061   5.249
87266SOL    HW163637  11.084   0.009   5.268
87266SOL    HW263638  11.191   0.094   5.334
87267SOL     OW63639   3.127   9.091   4.187
87267SOL    HW163640   3.081   9.026   4.134
87267SOL    HW263641   3.210   9.104   4.142
87268SOL     OW63642  12.363   0.336   5.188
87268SOL    HW163643  12.370   0.250   5.147
87268SOL    HW263644  12.277   0.368   5.162
87269SOL     OW63645   5.387  13.072   9.869
87269SOL    HW163646   5.375  12.982   9.838
87269SOL    HW263647   5.343  13.075   9.954
87270SOL     OW63648  12.600  10.945   2.804
87270SOL    HW163649  12.645  10.876   2.755
87270SOL    HW263650  12.525  10.901   2.843
87271SOL     OW63651  10.882   6.706   1.661
87271SOL    HW163652  10.849   6.780   1.711
87271SOL    HW263653  10.846   6.718   1.573
87272SOL     OW63654  14.759   8.795   0.843
87272SOL    HW163655  14.798   8.715   0.879
87272SOL    HW263656  14.665   8.780   0.849
87273SOL     OW63657  13.376  12.940   3.363
87273SOL    HW163658  13.315  12.961   3.434
87273SOL    HW263659  13.424  13.021   3.348
87274SOL     OW63660   6.876   9.671  12.909
87274SOL    HW163661   6.883   9.633  12.822
87274SOL    HW263662   6.915   9.759  12.901
87275SOL     OW63663   9.089  11.642   9.688
87275SOL    HW163664   9.177  11.611   9.666
87275SOL    HW263665   9.089  11.649   9.783
87276SOL     OW63666  14.856   7.883   4.131
87276SOL    HW163667   0.023   7.804   4.153
87276SOL    HW263668  14.778   7.851   4.084
87277SOL     OW63669   0.290   7.242   8.906
87277SOL    HW163670   0.287   7.311   8.839
87277SOL    HW263671   0.349   7.176   8.871
87278SOL     OW63672  10.872   5.456  12.946
87278SOL    HW163673  10.851   5.541  12.984
87278SOL    HW263674  10.952   5.471  12.896
87279SOL     OW63675   7.839   7.375   9.424
87279SOL    HW163676   7.788   7.434   9.369
87279SOL    HW263677   7.780   7.302   9.443
87280SOL     OW63678   0.609   3.942   1.943
87280SOL    HW163679   0.585   3.911   2.030
87280SOL    HW263680   0.689   3.992   1.957
87281SOL     OW63681   3.714  13.755   2.178
87281SOL    HW163682   3.627  13.729   2.209
87281SOL    HW263683   3.745  13.679   2.129
87282SOL     OW63684   7.329   2.518   0.814
87282SOL    HW163685   7.393   2.450   0.833
87282SOL    HW263686   7.281   2.485   0.738
87283SOL     OW63687   6.676  10.796   8.307
87283SOL    HW163688   6.763  10.765   8.333
87283SOL    HW263689   6.688  10.889   8.289
87284SOL     OW63690   7.054   1.031   3.472
87284SOL    HW163691   7.090   0.965   3.413
87284SOL    HW263692   7.055   0.990   3.558
87285SOL     OW63693  14.151   2.820  14.090
87285SOL    HW163694  14.091   2.758  14.132
87285SOL    HW263695  14.098   2.899  14.076
87286SOL     OW63696   2.827   6.366   7.656
87286SOL    HW163697   2.851   6.451   7.694
87286SOL    HW263698   2.822   6.307   7.731
87287SOL     OW63699  14.686   1.863  12.908
87287SOL    HW163700  14.720   1.811  12.836
87287SOL    HW263701  14.651   1.942  12.866
87288SOL     OW63702  14.344  14.359   1.469
87288SOL    HW163703  14.427  14.331   1.507
87288SOL    HW263704  14.280  14.350   1.540
87289SOL     OW63705   9.236   5.890   6.048
87289SOL    HW163706   9.304   5.940   6.092
87289SOL    HW263707   9.265   5.799   6.052
87290SOL     OW63708  10.141   4.804   2.298
87290SOL    HW163709  10.084   4.730   2.279
87290SOL    HW263710  10.229   4.766   2.300
87291SOL     OW63711   5.494   5.913   8.487
87291SOL    HW163712   5.462   5.924   8.576
87291SOL    HW263713   5.492   5.818   8.473
87292SOL     OW63714   8.688   9.801   0.446
87292SOL    HW163715   8.623   9.862   0.481
87292SOL    HW263716   8.666   9.794   0.353
87293SOL     OW63717  11.344   3.676  12.415
87293SOL    HW163718  11.390   3.644  12.337
87293SOL    HW263719  11.404   3.742  12.452
87294SOL     OW63720   9.942   7.867   5.439
87294SOL    HW163721   9.876   7.803   5.412
87294SOL    HW263722  10.021   7.841   5.390
87295SOL     OW63723  11.563   5.602   8.566
87295SOL    HW163724  11.634   5.538   8.565
87295SOL    HW263725  11.508   5.575   8.640
87296SOL     OW63726   4.845   0.447   5.008
87296SOL    HW163727   4.776   0.473   4.947
87296SOL    HW263728   4.799   0.416   5.086
87297SOL     OW63729   1.941  13.856   5.678
87297SOL    HW163730   1.967  13.765   5.692
87297SOL    HW263731   2.021  13.899   5.647
87298SOL     OW63732   0.143   8.056   9.261
87298SOL    HW163733   0.203   8.125   9.231
87298SOL    HW263734   0.194   8.007   9.326
87299SOL     OW63735  10.702   7.160   8.765
87299SOL    HW163736  10.790   7.148   8.801
87299SOL    HW263737  10.686   7.254   8.770
87300SOL     OW63738   9.444  12.868   0.297
87300SOL    HW163739   9.398  12.784   0.303
87300SOL    HW263740   9.406  12.912   0.222
87301SOL     OW63741   0.338  13.578   6.142
87301SOL    HW163742   0.337  13.639   6.216
87301SOL    HW263743   0.258  13.598   6.093
87302SOL     OW63744   8.508   8.318   1.064
87302SOL    HW163745   8.475   8.262   0.994
87302SOL    HW263746   8.546   8.257   1.127
87303SOL     OW63747   1.452   4.711  13.148
87303SOL    HW163748   1.461   4.626  13.192
87303SOL    HW263749   1.373   4.702  13.095
87304SOL     OW63750  10.619   9.729   3.251
87304SOL    HW163751  10.708   9.732   3.216
87304SOL    HW263752  10.594   9.821   3.263
87305SOL     OW63753   4.268  13.612   6.662
87305SOL    HW163754   4.307  13.679   6.718
87305SOL    HW263755   4.293  13.529   6.704
87306SOL     OW63756   3.515  10.449   9.767
87306SOL    HW163757   3.472  10.516   9.820
87306SOL    HW263758   3.562  10.395   9.830
87307SOL     OW63759  11.017  12.825  11.060
87307SOL    HW163760  11.086  12.801  10.998
87307SOL    HW263761  10.936  12.793  11.020
87308SOL     OW63762   7.737   4.596   6.705
87308SOL    HW163763   7.668   4.531   6.700
87308SOL    HW263764   7.735   4.640   6.620
87309SOL     OW63765   1.673  13.594  10.864
87309SOL    HW163766   1.593  13.553  10.895
87309SOL    HW263767   1.669  13.587  10.768
87310SOL     OW63768   7.811   2.699   8.822
87310SOL    HW163769   7.747   2.635   8.789
87310SOL    HW263770   7.813   2.684   8.916
87311SOL     OW63771   3.143   0.747   0.140
87311SOL    HW163772   3.058   0.705   0.126
87311SOL    HW263773   3.133   0.834   0.101
87312SOL     OW63774   9.026   3.574  11.693
87312SOL    HW163775   9.076   3.579  11.612
87312SOL    HW263776   9.058   3.495  11.737
87313SOL     OW63777   7.010  11.976   1.027
87313SOL    HW163778   6.997  12.071   1.026
87313SOL    HW263779   7.090  11.962   0.976
87314SOL     OW63780   7.590   3.181  13.157
87314SOL    HW163781   7.500   3.204  13.135
87314SOL    HW263782   7.594   3.190  13.252
87315SOL     OW63783  12.010  10.886   2.994
87315SOL    HW163784  11.942  10.829   3.029
87315SOL    HW263785  12.004  10.876   2.899
87316SOL     OW63786  10.442  14.460  12.029
87316SOL    HW163787  10.429  14.436  12.120
87316SOL    HW263788  10.362  14.431  11.985
87317SOL     OW63789  12.766   9.626   5.834
87317SOL    HW163790  12.843   9.633   5.891
87317SOL    HW263791  12.789   9.680   5.758
87318SOL     OW63792   6.573   2.415   2.692
87318SOL    HW163793   6.539   2.441   2.606
87318SOL    HW263794   6.642   2.351   2.673
87319SOL     OW63795  11.053   3.391  12.224
87319SOL    HW163796  11.032   3.337  12.300
87319SOL    HW263797  11.148   3.384  12.215
87320SOL     OW63798   3.296   7.966  14.413
87320SOL    HW163799   3.315   7.945  14.505
87320SOL    HW263800   3.381   7.958  14.369
87321SOL     OW63801   4.781   3.365  13.283
87321SOL    HW163802   4.813   3.427  13.218
87321SOL    HW263803   4.702   3.406  13.318
87322SOL     OW63804   1.137   0.136   4.951
87322SOL    HW163805   1.197   0.128   5.026
87322SOL    HW263806   1.058   0.090   4.979
87323SOL     OW63807   3.530   3.196  14.758
87323SOL    HW163808   3.611   3.146  14.751
87323SOL    HW263809   3.461   3.130  14.764
87324SOL     OW63810   0.090   5.528   7.765
87324SOL    HW163811   0.078   5.579   7.684
87324SOL    HW263812   0.021   5.560   7.823
87325SOL     OW63813   6.443   1.179   6.201
87325SOL    HW163814   6.496   1.253   6.230
87325SOL    HW263815   6.494   1.102   6.222
87326SOL     OW63816  12.824   7.120  13.682
87326SOL    HW163817  12.883   7.195  13.691
87326SOL    HW263818  12.847   7.063  13.755
87327SOL     OW63819   5.501   1.987   4.794
87327SOL    HW163820   5.453   1.916   4.837
87327SOL    HW263821   5.576   1.945   4.753
87328SOL     OW63822   1.868  13.293   5.726
87328SOL    HW163823   1.923  13.367   5.750
87328SOL    HW263824   1.910  13.217   5.767
87329SOL     OW63825   1.669  14.426   0.467
87329SOL    HW163826   1.764  14.424   0.459
87329SOL    HW263827   1.638  14.364   0.401
87330SOL     OW63828  13.908   2.263   7.254
87330SOL    HW163829  13.836   2.202   7.272
87330SOL    HW263830  13.951   2.228   7.176
87331SOL     OW63831   0.008   5.788   6.794
87331SOL    HW163832   0.073   5.717   6.788
87331SOL    HW263833  14.837   5.779   6.716
87332SOL     OW63834   4.908   6.490  12.621
87332SOL    HW163835   4.870   6.563  12.572
87332SOL    HW263836   4.973   6.530  12.678
87333SOL     OW63837   3.431   4.762   0.067
87333SOL    HW163838   3.508   4.818   0.060
87333SOL    HW263839   3.366   4.805   0.011
87334SOL     OW63840   6.661  12.961   1.576
87334SOL    HW163841   6.718  13.027   1.617
87334SOL    HW263842   6.603  13.012   1.520
87335SOL     OW63843   8.914  13.483   0.657
87335SOL    HW163844   8.913  13.543   0.731
87335SOL    HW263845   8.827  13.443   0.657
87336SOL     OW63846   3.543   2.845   8.191
87336SOL    HW163847   3.532   2.940   8.201
87336SOL    HW263848   3.484   2.821   8.120
87337SOL     OW63849  10.391   6.341   5.178
87337SOL    HW163850  10.393   6.312   5.270
87337SOL    HW263851  10.476   6.384   5.166
87338SOL     OW63852   8.431   1.139   2.657
87338SOL    HW163853   8.393   1.118   2.743
87338SOL    HW263854   8.433   1.055   2.611
87339SOL     OW63855  14.184   1.829   4.584
87339SOL    HW163856  14.237   1.879   4.646
87339SOL    HW263857  14.114   1.791   4.636
87340SOL     OW63858  11.693  10.398   6.150
87340SOL    HW163859  11.703  10.471   6.210
87340SOL    HW263860  11.708  10.320   6.203
87341SOL     OW63861   8.957  10.594   4.912
87341SOL    HW163862   9.001  10.574   4.995
87341SOL    HW263863   8.867  10.614   4.937
87342SOL     OW63864   1.664   2.535   8.037
87342SOL    HW163865   1.706   2.451   8.055
87342SOL    HW263866   1.606   2.549   8.112
87343SOL     OW63867   9.215   6.607   8.577
87343SOL    HW163868   9.291   6.565   8.536
87343SOL    HW263869   9.176   6.659   8.506
87344SOL     OW63870  11.327   2.330   2.325
87344SOL    HW163871  11.416   2.360   2.308
87344SOL    HW263872  11.278   2.354   2.247
87345SOL     OW63873   1.684  14.489   9.932
87345SOL    HW163874   1.656  14.580   9.923
87345SOL    HW263875   1.767  14.494   9.979
87346SOL     OW63876   0.226   3.018   4.642
87346SOL    HW163877   0.296   3.064   4.689
87346SOL    HW263878   0.150   3.076   4.650
87347SOL     OW63879  11.517   2.817   0.147
87347SOL    HW163880  11.478   2.894   0.105
87347SOL    HW263881  11.447   2.753   0.149
87348SOL     OW63882   7.918  12.935  12.612
87348SOL    HW163883   7.904  13.029  12.599
87348SOL    HW263884   7.956  12.928  12.699
87349SOL     OW63885   9.033   2.723   5.337
87349SOL    HW163886   8.938   2.711   5.341
87349SOL    HW263887   9.051   2.734   5.244
87350SOL     OW63888  12.602   8.242   4.090
87350SOL    HW163889  12.688   8.283   4.100
87350SOL    HW263890  12.571   8.228   4.180
87351SOL     OW63891  11.666  12.255   1.534
87351SOL    HW163892  11.587  12.205   1.511
87351SOL    HW263893  11.635  12.322   1.595
87352SOL     OW63894  10.169   6.097  14.081
87352SOL    HW163895  10.152   6.162  14.012
87352SOL    HW263896  10.190   6.017  14.033
87353SOL     OW63897   5.744   5.995   8.414
87353SOL    HW163898   5.749   6.084   8.448
87353SOL    HW263899   5.655   5.966   8.436
87354SOL     OW63900   9.069   8.055   8.730
87354SOL    HW163901   9.110   8.100   8.804
87354SOL    HW263902   9.005   8.118   8.696
87355SOL     OW63903   5.273   7.561   3.596
87355SOL    HW163904   5.248   7.642   3.552
87355SOL    HW263905   5.196   7.538   3.649
87356SOL     OW63906  10.501   2.471   6.325
87356SOL    HW163907  10.533   2.560   6.325
87356SOL    HW263908  10.487   2.450   6.232
87357SOL     OW63909   1.224  13.267  14.259
87357SOL    HW163910   1.222  13.176  14.229
87357SOL    HW263911   1.317  13.288  14.265
87358SOL     OW63912   2.708   0.429   9.135
87358SOL    HW163913   2.770   0.372   9.180
87358SOL    HW263914   2.654   0.466   9.205
87359SOL     OW63915  10.099   0.602  12.267
87359SOL    HW163916  10.191   0.589  12.289
87359SOL    HW263917  10.053   0.581  12.348
87360SOL     OW63918   1.945  13.272   9.392
87360SOL    HW163919   1.931  13.197   9.335
87360SOL    HW263920   2.001  13.240   9.463
87361SOL     OW63921   9.265   8.859   3.584
87361SOL    HW163922   9.181   8.813   3.593
87361SOL    HW263923   9.306   8.851   3.670
87362SOL     OW63924  10.829  10.943  12.595
87362SOL    HW163925  10.760  10.877  12.587
87362SOL    HW263926  10.866  10.949  12.507
87363SOL     OW63927   5.784  12.832  10.517
87363SOL    HW163928   5.705  12.785  10.545
87363SOL    HW263929   5.833  12.846  10.598
87364SOL     OW63930   2.190   6.941   8.500
87364SOL    HW163931   2.208   6.895   8.582
87364SOL    HW263932   2.263   7.003   8.491
87365SOL     OW63933   4.645   1.357  13.123
87365SOL    HW163934   4.554   1.371  13.151
87365SOL    HW263935   4.637   1.311  13.039
87366SOL     OW63936   9.029   6.870   0.317
87366SOL    HW163937   9.113   6.910   0.340
87366SOL    HW263938   8.981   6.866   0.400
87367SOL     OW63939   1.158   4.910  10.556
87367SOL    HW163940   1.111   4.900  10.474
87367SOL    HW263941   1.242   4.867  10.541
87368SOL     OW63942   8.336  10.313   6.429
87368SOL    HW163943   8.432  10.311   6.433
87368SOL    HW263944   8.314  10.253   6.358
87369SOL     OW63945   5.071   4.899  13.654
87369SOL    HW163946   5.131   4.832  13.621
87369SOL    HW263947   4.984   4.862  13.641
87370SOL     OW63948   0.137   7.928   2.338
87370SOL    HW163949   0.124   7.933   2.432
87370SOL    HW263950   0.220   7.881   2.328
87371SOL     OW63951   0.386  14.183   7.115
87371SOL    HW163952   0.295  14.168   7.142
87371SOL    HW263953   0.405  14.273   7.142
87372SOL     OW63954   6.508   8.078  11.731
87372SOL    HW163955   6.455   8.011  11.689
87372SOL    HW263956   6.478   8.160  11.692
87373SOL     OW63957  13.794  13.678  13.734
87373SOL    HW163958  13.721  13.680  13.796
87373SOL    HW263959  13.758  13.639  13.655
87374SOL     OW63960   2.183   7.221   5.751
87374SOL    HW163961   2.243   7.279   5.798
87374SOL    HW263962   2.113   7.204   5.813
87375SOL     OW63963   5.159   4.656   4.699
87375SOL    HW163964   5.142   4.631   4.608
87375SOL    HW263965   5.099   4.728   4.717
87376SOL     OW63966   0.978   0.182   3.829
87376SOL    HW163967   1.015   0.191   3.742
87376SOL    HW263968   0.916   0.255   3.836
87377SOL     OW63969   3.783   6.902  10.417
87377SOL    HW163970   3.822   6.872  10.499
87377SOL    HW263971   3.820   6.989  10.404
87378SOL     OW63972   3.786   2.640   2.197
87378SOL    HW163973   3.751   2.656   2.110
87378SOL    HW263974   3.751   2.554   2.222
87379SOL     OW63975   8.362   4.597   2.512
87379SOL    HW163976   8.394   4.518   2.555
87379SOL    HW263977   8.310   4.641   2.579
87380SOL     OW63978   6.010   0.462   3.254
87380SOL    HW163979   6.098   0.430   3.233
87380SOL    HW263980   5.952   0.393   3.221
87381SOL     OW63981   6.621  14.708   3.830
87381SOL    HW163982   6.625  14.788   3.883
87381SOL    HW263983   6.713  14.684   3.817
87382SOL     OW63984   1.365   6.623   1.643
87382SOL    HW163985   1.383   6.665   1.559
87382SOL    HW263986   1.396   6.685   1.709
87383SOL     OW63987   6.875  11.918  14.001
87383SOL    HW163988   6.854  11.945  14.090
87383SOL    HW263989   6.811  11.963  13.946
87384SOL     OW63990   4.993   5.627   4.849
87384SOL    HW163991   5.017   5.686   4.777
87384SOL    HW263992   4.908   5.660   4.879
87385SOL     OW63993  13.501  14.297   8.176
87385SOL    HW163994  13.449  14.249   8.240
87385SOL    HW263995  13.579  14.326   8.224
87386SOL     OW63996   0.608  13.702   8.356
87386SOL    HW163997   0.635  13.633   8.416
87386SOL    HW263998   0.514  13.710   8.367
87387SOL     OW63999  12.889   7.270   6.170
87387SOL    HW164000  12.953   7.239   6.107
87387SOL    HW264001  12.843   7.191   6.199
87388SOL     OW64002   2.831   0.683  14.360
87388SOL    HW164003   2.770   0.635  14.416
87388SOL    HW264004   2.914   0.679  14.407
87389SOL     OW64005   3.778   1.231   5.823
87389SOL    HW164006   3.822   1.274   5.897
87389SOL    HW264007   3.742   1.303   5.771
87390SOL     OW64008   0.084  13.013   0.639
87390SOL    HW164009   0.026  12.938   0.659
87390SOL    HW264010   0.147  13.014   0.711
87391SOL     OW64011   0.663  12.315   2.091
87391SOL    HW164012   0.696  12.232   2.126
87391SOL    HW264013   0.586  12.291   2.040
87392SOL     OW64014   6.695  13.251  13.984
87392SOL    HW164015   6.684  13.285  14.073
87392SOL    HW264016   6.709  13.157  13.996
87393SOL     OW64017   8.499   8.498  11.616
87393SOL    HW164018   8.562   8.474  11.548
87393SOL    HW264019   8.437   8.426  11.618
87394SOL     OW64020  14.061   0.996   6.738
87394SOL    HW164021  13.993   0.937   6.772
87394SOL    HW264022  14.020   1.040   6.663
87395SOL     OW64023  12.308   8.977   6.749
87395SOL    HW164024  12.364   9.011   6.818
87395SOL    HW264025  12.365   8.921   6.696
87396SOL     OW64026  14.642  11.786  10.755
87396SOL    HW164027  14.626  11.876  10.727
87396SOL    HW264028  14.736  11.784  10.776
87397SOL     OW64029  10.762  10.568   6.013
87397SOL    HW164030  10.814  10.581   6.092
87397SOL    HW264031  10.768  10.652   5.967
87398SOL     OW64032   8.542   5.256  12.128
87398SOL    HW164033   8.624   5.275  12.082
87398SOL    HW264034   8.560   5.177  12.178
87399SOL     OW64035   9.988   3.920   5.718
87399SOL    HW164036   9.945   3.946   5.798
87399SOL    HW264037  10.081   3.914   5.741
87400SOL     OW64038   1.079   8.490   1.372
87400SOL    HW164039   1.135   8.556   1.412
87400SOL    HW264040   1.117   8.406   1.399
87401SOL     OW64041   3.799   4.953  10.346
87401SOL    HW164042   3.745   4.885  10.386
87401SOL    HW264043   3.870   4.905  10.302
87402SOL     OW64044  10.508   9.129   0.588
87402SOL    HW164045  10.498   9.057   0.526
87402SOL    HW264046  10.481   9.092   0.672
87403SOL     OW64047   5.318   2.710   7.922
87403SOL    HW164048   5.234   2.724   7.965
87403SOL    HW264049   5.369   2.658   7.984
87404SOL     OW64050   1.308   6.735   7.743
87404SOL    HW164051   1.316   6.643   7.718
87404SOL    HW264052   1.252   6.773   7.676
87405SOL     OW64053   5.773   3.786   7.678
87405SOL    HW164054   5.752   3.803   7.770
87405SOL    HW264055   5.728   3.704   7.658
87406SOL     OW64056   6.065   4.968   7.473
87406SOL    HW164057   6.042   4.898   7.534
87406SOL    HW264058   6.133   4.930   7.418
87407SOL     OW64059  13.781   5.158   9.017
87407SOL    HW164060  13.710   5.203   8.972
87407SOL    HW264061  13.850   5.149   8.951
87408SOL     OW64062   0.864  13.974   8.778
87408SOL    HW164063   0.795  13.994   8.715
87408SOL    HW264064   0.825  13.907   8.835
87409SOL     OW64065  11.704   4.522   6.232
87409SOL    HW164066  11.759   4.598   6.254
87409SOL    HW264067  11.762   4.464   6.183
87410SOL     OW64068   7.676   9.705  10.917
87410SOL    HW164069   7.695   9.620  10.957
87410SOL    HW264070   7.652   9.683  10.827
87411SOL     OW64071  10.779  13.712   7.698
87411SOL    HW164072  10.717  13.778   7.670
87411SOL    HW264073  10.865  13.752   7.686
87412SOL     OW64074   5.145   5.761   6.457
87412SOL    HW164075   5.160   5.668   6.443
87412SOL    HW264076   5.095   5.765   6.539
87413SOL     OW64077   5.231  14.032   4.409
87413SOL    HW164078   5.166  13.995   4.469
87413SOL    HW264079   5.311  14.039   4.462
87414SOL     OW64080  14.431  14.170   6.929
87414SOL    HW164081  14.413  14.222   7.008
87414SOL    HW264082  14.494  14.221   6.880
87415SOL     OW64083   1.177   9.676   1.231
87415SOL    HW164084   1.152   9.682   1.138
87415SOL    HW264085   1.262   9.719   1.235
87416SOL     OW64086   0.793   7.098  12.352
87416SOL    HW164087   0.815   7.007  12.336
87416SOL    HW264088   0.871   7.134  12.395
87417SOL     OW64089   1.099   6.808   2.368
87417SOL    HW164090   1.140   6.873   2.310
87417SOL    HW264091   1.143   6.726   2.347
87418SOL     OW64092   5.840   1.495   8.527
87418SOL    HW164093   5.818   1.453   8.610
87418SOL    HW264094   5.755   1.521   8.490
87419SOL     OW64095   0.183  10.427  14.139
87419SOL    HW164096   0.230  10.409  14.220
87419SOL    HW264097   0.126  10.501  14.159
87420SOL     OW64098   6.405  14.710   6.180
87420SOL    HW164099   6.357  14.744   6.256
87420SOL    HW264100   6.347  14.726   6.106
87421SOL     OW64101  10.856   3.434   8.851
87421SOL    HW164102  10.766   3.401   8.862
87421SOL    HW264103  10.880   3.467   8.937
87422SOL     OW64104  12.634   4.640  11.212
87422SOL    HW164105  12.611   4.706  11.277
87422SOL    HW264106  12.690   4.685  11.149
87423SOL     OW64107   9.614  13.607   8.028
87423SOL    HW164108   9.659  13.548   7.967
87423SOL    HW264109   9.664  13.689   8.024
87424SOL     OW64110   7.715   5.609   4.412
87424SOL    HW164111   7.765   5.634   4.335
87424SOL    HW264112   7.767   5.540   4.453
87425SOL     OW64113  13.985   7.806  10.749
87425SOL    HW164114  14.019   7.877  10.695
87425SOL    HW264115  13.994   7.837  10.839
87426SOL     OW64116   6.788   1.878   7.137
87426SOL    HW164117   6.759   1.915   7.054
87426SOL    HW264118   6.819   1.953   7.187
87427SOL     OW64119   4.411   8.630   5.338
87427SOL    HW164120   4.393   8.599   5.427
87427SOL    HW264121   4.346   8.585   5.284
87428SOL     OW64122  12.546   6.477  13.279
87428SOL    HW164123  12.530   6.535  13.353
87428SOL    HW264124  12.504   6.395  13.304
87429SOL     OW64125  12.471  10.737   9.086
87429SOL    HW164126  12.490  10.760   9.177
87429SOL    HW264127  12.534  10.789   9.035
87430SOL     OW64128   7.570  14.005   0.572
87430SOL    HW164129   7.545  14.061   0.645
87430SOL    HW264130   7.655  14.038   0.544
87431SOL     OW64131  13.315   8.354  13.244
87431SOL    HW164132  13.373   8.339  13.318
87431SOL    HW264133  13.268   8.272  13.233
87432SOL     OW64134   6.726   1.333   7.855
87432SOL    HW164135   6.791   1.388   7.810
87432SOL    HW264136   6.683   1.285   7.785
87433SOL     OW64137  13.024   4.850  10.417
87433SOL    HW164138  13.025   4.850  10.321
87433SOL    HW264139  13.087   4.917  10.441
87434SOL     OW64140  12.781   6.599   0.693
87434SOL    HW164141  12.861   6.549   0.708
87434SOL    HW264142  12.735   6.594   0.777
87435SOL     OW64143   7.101   8.178   7.584
87435SOL    HW164144   7.009   8.174   7.560
87435SOL    HW264145   7.107   8.123   7.663
87436SOL     OW64146   9.886   2.282   4.096
87436SOL    HW164147   9.801   2.278   4.140
87436SOL    HW264148   9.864   2.285   4.003
87437SOL     OW64149  13.643  13.506   9.394
87437SOL    HW164150  13.681  13.512   9.482
87437SOL    HW264151  13.713  13.467   9.341
87438SOL     OW64152  13.478   4.800   1.930
87438SOL    HW164153  13.564   4.826   1.962
87438SOL    HW264154  13.444   4.879   1.887
87439SOL     OW64155   8.608   1.861   9.093
87439SOL    HW164156   8.636   1.916   9.019
87439SOL    HW264157   8.546   1.799   9.055
87440SOL     OW64158   8.483   7.009   0.061
87440SOL    HW164159   8.518   6.930   0.020
87440SOL    HW264160   8.503   7.079  14.881
87441SOL     OW64161  10.473  12.712  13.425
87441SOL    HW164162  10.469  12.643  13.359
87441SOL    HW264163  10.518  12.785  13.382
87442SOL     OW64164   4.021   4.077   2.381
87442SOL    HW164165   4.071   4.037   2.452
87442SOL    HW264166   3.943   4.021   2.372
87443SOL     OW64167   7.276   3.936   0.128
87443SOL    HW164168   7.237   4.022   0.148
87443SOL    HW264169   7.211   3.892   0.073
87444SOL     OW64170   9.905   8.433   7.309
87444SOL    HW164171   9.969   8.432   7.380
87444SOL    HW264172   9.924   8.514   7.261
87445SOL     OW64173   7.496  10.589  14.477
87445SOL    HW164174   7.519  10.587  14.570
87445SOL    HW264175   7.404  10.615  14.475
87446SOL     OW64176   3.706   0.605  13.724
87446SOL    HW164177   3.632   0.630  13.669
87446SOL    HW264178   3.718   0.511  13.708
87447SOL     OW64179   3.855  14.876  14.835
87447SOL    HW164180   3.845  14.860   0.047
87447SOL    HW264181   3.871  14.790  14.796
87448SOL     OW64182   7.855   5.560   1.654
87448SOL    HW164183   7.872   5.529   1.743
87448SOL    HW264184   7.764   5.591   1.656
87449SOL     OW64185   9.761   6.938   1.259
87449SOL    HW164186   9.694   6.975   1.316
87449SOL    HW264187   9.717   6.927   1.174
87450SOL     OW64188   7.857   6.270   6.197
87450SOL    HW164189   7.894   6.243   6.281
87450SOL    HW264190   7.763   6.278   6.213
87451SOL     OW64191   0.343  12.699  12.542
87451SOL    HW164192   0.287  12.740  12.608
87451SOL    HW264193   0.429  12.694  12.584
87452SOL     OW64194  14.158   6.212   8.641
87452SOL    HW164195  14.088   6.276   8.628
87452SOL    HW264196  14.234   6.264   8.666
87453SOL     OW64197  11.023   9.051  11.796
87453SOL    HW164198  11.050   9.066  11.887
87453SOL    HW264199  10.928   9.057  11.798
87454SOL     OW64200  14.784   0.519   7.144
87454SOL    HW164201  14.837   0.477   7.212
87454SOL    HW264202  14.723   0.575   7.192
87455SOL     OW64203   2.026   3.905   6.876
87455SOL    HW164204   2.015   3.811   6.866
87455SOL    HW264205   2.115   3.922   6.845
87456SOL     OW64206   5.935   8.484  13.972
87456SOL    HW164207   5.871   8.520  13.910
87456SOL    HW264208   5.884   8.465  14.050
87457SOL     OW64209   5.548   0.217   2.954
87457SOL    HW164210   5.516   0.175   3.035
87457SOL    HW264211   5.562   0.309   2.979
87458SOL     OW64212   6.169   2.151   3.148
87458SOL    HW164213   6.221   2.099   3.085
87458SOL    HW264214   6.081   2.152   3.111
87459SOL     OW64215   2.806  10.956   4.053
87459SOL    HW164216   2.854  10.953   4.136
87459SOL    HW264217   2.804  11.049   4.030
87460SOL     OW64218  11.434  11.063  11.625
87460SOL    HW164219  11.397  10.980  11.595
87460SOL    HW264220  11.459  11.047  11.716
87461SOL     OW64221   9.642   1.964   4.488
87461SOL    HW164222   9.559   1.918   4.492
87461SOL    HW264223   9.641   2.023   4.564
87462SOL     OW64224  14.635   3.984   1.216
87462SOL    HW164225  14.670   3.901   1.183
87462SOL    HW264226  14.571   4.011   1.149
87463SOL     OW64227  10.305  13.537   2.475
87463SOL    HW164228  10.333  13.617   2.519
87463SOL    HW264229  10.255  13.567   2.399
87464SOL     OW64230  10.288  14.513  12.623
87464SOL    HW164231  10.246  14.459  12.556
87464SOL    HW264232  10.381  14.495  12.613
87465SOL     OW64233  10.589  12.643  14.715
87465SOL    HW164234  10.601  12.569  14.656
87465SOL    HW264235  10.587  12.604  14.802
87466SOL     OW64236   2.734   7.977  12.620
87466SOL    HW164237   2.736   8.072  12.614
87466SOL    HW264238   2.826   7.951  12.622
87467SOL     OW64239  13.393   2.193  10.866
87467SOL    HW164240  13.436   2.108  10.877
87467SOL    HW264241  13.373   2.222  10.955
87468SOL     OW64242   9.624   6.388   0.050
87468SOL    HW164243   9.531   6.373   0.070
87468SOL    HW264244   9.631   6.372  14.837
87469SOL     OW64245   8.747   7.304  11.664
87469SOL    HW164246   8.685   7.372  11.640
87469SOL    HW264247   8.828   7.350  11.685
87470SOL     OW64248   1.636  13.686  13.053
87470SOL    HW164249   1.704  13.716  13.113
87470SOL    HW264250   1.554  13.700  13.100
87471SOL     OW64251   2.546   1.343   6.286
87471SOL    HW164252   2.582   1.356   6.198
87471SOL    HW264253   2.455   1.372   6.279
87472SOL     OW64254   8.021   4.808   2.828
87472SOL    HW164255   7.950   4.873   2.829
87472SOL    HW264256   8.073   4.828   2.906
87473SOL     OW64257   2.032   4.089   1.409
87473SOL    HW164258   2.081   4.013   1.440
87473SOL    HW264259   2.086   4.164   1.431
87474SOL     OW64260   2.786   7.024   0.848
87474SOL    HW164261   2.808   6.931   0.842
87474SOL    HW264262   2.858   7.068   0.804
87475SOL     OW64263   1.678   1.925  13.398
87475SOL    HW164264   1.710   1.863  13.463
87475SOL    HW264265   1.612   1.876  13.349
87476SOL     OW64266   8.887   5.206  12.515
87476SOL    HW164267   8.927   5.288  12.543
87476SOL    HW264268   8.797   5.212  12.546
87477SOL     OW64269   6.607   6.603   8.053
87477SOL    HW164270   6.661   6.534   8.094
87477SOL    HW264271   6.657   6.683   8.069
87478SOL     OW64272   9.919   3.224  12.850
87478SOL    HW164273   9.972   3.149  12.824
87478SOL    HW264274   9.931   3.231  12.944
87479SOL     OW64275   6.734  12.280  13.324
87479SOL    HW164276   6.761  12.274  13.233
87479SOL    HW264277   6.658  12.222  13.330
87480SOL     OW64278  10.354   3.543  14.592
87480SOL    HW164279  10.294   3.515  14.662
87480SOL    HW264280  10.309   3.520  14.511
87481SOL     OW64281  12.322   2.454   7.923
87481SOL    HW164282  12.385   2.383   7.925
87481SOL    HW264283  12.253   2.423   7.863
87482SOL     OW64284   7.881   9.601  13.698
87482SOL    HW164285   7.964   9.555  13.710
87482SOL    HW264286   7.879   9.623  13.605
87483SOL     OW64287   5.062   4.073   0.991
87483SOL    HW164288   5.141   4.122   0.969
87483SOL    HW264289   5.083   4.028   1.073
87484SOL     OW64290  11.619  10.985   7.806
87484SOL    HW164291  11.598  11.008   7.716
87484SOL    HW264292  11.593  10.893   7.814
87485SOL     OW64293  13.678   3.679   5.576
87485SOL    HW164294  13.679   3.640   5.664
87485SOL    HW264295  13.586   3.687   5.554
87486SOL     OW64296   4.522   3.479  13.378
87486SOL    HW164297   4.541   3.484  13.472
87486SOL    HW264298   4.444   3.533  13.367
87487SOL     OW64299   3.578   5.178   5.173
87487SOL    HW164300   3.550   5.126   5.249
87487SOL    HW264301   3.533   5.138   5.099
87488SOL     OW64302   9.581   3.540   4.933
87488SOL    HW164303   9.575   3.593   4.853
87488SOL    HW264304   9.494   3.547   4.972
87489SOL     OW64305  10.561   5.338   8.916
87489SOL    HW164306  10.503   5.262   8.906
87489SOL    HW264307  10.547   5.389   8.837
87490SOL     OW64308   5.465   6.062   4.178
87490SOL    HW164309   5.416   6.138   4.208
87490SOL    HW264310   5.434   6.046   4.089
87491SOL     OW64311  12.366  12.777   9.960
87491SOL    HW164312  12.286  12.731   9.938
87491SOL    HW264313  12.355  12.864   9.921
87492SOL     OW64314   4.066   1.640   8.064
87492SOL    HW164315   4.144   1.615   8.114
87492SOL    HW264316   3.996   1.646   8.130
87493SOL     OW64317   9.484  12.906  11.838
87493SOL    HW164318   9.417  12.854  11.793
87493SOL    HW264319   9.438  12.985  11.866
87494SOL     OW64320   7.339   2.504  10.343
87494SOL    HW164321   7.354   2.592  10.377
87494SOL    HW264322   7.403   2.494  10.273
87495SOL     OW64323   2.062   3.164   1.509
87495SOL    HW164324   2.153   3.184   1.487
87495SOL    HW264325   2.020   3.249   1.522
87496SOL     OW64326   1.420  13.037   3.842
87496SOL    HW164327   1.420  13.094   3.919
87496SOL    HW264328   1.366  13.084   3.778
87497SOL     OW64329   4.711   3.570   4.200
87497SOL    HW164330   4.781   3.611   4.252
87497SOL    HW264331   4.757   3.509   4.142
87498SOL     OW64332   7.621   3.811  14.397
87498SOL    HW164333   7.531   3.813  14.364
87498SOL    HW264334   7.675   3.812  14.318
87499SOL     OW64335   2.874   4.512  12.890
87499SOL    HW164336   2.895   4.419  12.887
87499SOL    HW264337   2.895   4.545  12.803
87500SOL     OW64338   5.239   8.056   1.075
87500SOL    HW164339   5.204   7.967   1.074
87500SOL    HW264340   5.293   8.062   0.997
87501SOL     OW64341   1.219   6.841   3.549
87501SOL    HW164342   1.156   6.899   3.593
87501SOL    HW264343   1.202   6.854   3.455
87502SOL     OW64344   9.720   9.580   4.428
87502SOL    HW164345   9.798   9.628   4.458
87502SOL    HW264346   9.746   9.488   4.430
87503SOL     OW64347   2.483  14.013   9.683
87503SOL    HW164348   2.408  13.998   9.741
87503SOL    HW264349   2.458  14.091   9.632
87504SOL     OW64350  10.147  13.717   8.513
87504SOL    HW164351  10.168  13.801   8.555
87504SOL    HW264352  10.136  13.656   8.586
87505SOL     OW64353   4.627   0.960   2.911
87505SOL    HW164354   4.560   1.026   2.895
87505SOL    HW264355   4.580   0.886   2.949
87506SOL     OW64356  12.966  10.749   4.764
87506SOL    HW164357  13.058  10.744   4.738
87506SOL    HW264358  12.968  10.792   4.850
87507SOL     OW64359   6.672   3.286  10.244
87507SOL    HW164360   6.631   3.349  10.304
87507SOL    HW264361   6.763   3.313  10.239
87508SOL     OW64362  13.958   4.450   3.118
87508SOL    HW164363  14.005   4.378   3.160
87508SOL    HW264364  13.869   4.443   3.152
87509SOL     OW64365  11.351   8.061   8.137
87509SOL    HW164366  11.404   8.052   8.216
87509SOL    HW264367  11.270   8.014   8.157
87510SOL     OW64368   7.198  13.728   0.426
87510SOL    HW164369   7.164  13.741   0.515
87510SOL    HW264370   7.210  13.816   0.391
87511SOL     OW64371  14.851   0.054   4.451
87511SOL    HW164372  14.802   0.077   4.529
87511SOL    HW264373   0.056   0.028   4.483
87512SOL     OW64374   8.215   8.308   6.081
87512SOL    HW164375   8.304   8.281   6.058
87512SOL    HW264376   8.209   8.398   6.050
87513SOL     OW64377  12.523  10.710   0.619
87513SOL    HW164378  12.516  10.738   0.528
87513SOL    HW264379  12.443  10.741   0.660
87514SOL     OW64380   9.570   5.749   9.002
87514SOL    HW164381   9.599   5.764   8.912
87514SOL    HW264382   9.593   5.658   9.019
87515SOL     OW64383   6.411   0.500   4.890
87515SOL    HW164384   6.463   0.537   4.819
87515SOL    HW264385   6.465   0.511   4.968
87516SOL     OW64386   4.135  14.808   3.264
87516SOL    HW164387   4.084  14.774   3.190
87516SOL    HW264388   4.226  14.790   3.241
87517SOL     OW64389   1.652   8.450   9.083
87517SOL    HW164390   1.592   8.422   9.153
87517SOL    HW264391   1.733   8.473   9.128
87518SOL     OW64392   8.865   7.911   4.691
87518SOL    HW164393   8.855   7.824   4.652
87518SOL    HW264394   8.959   7.924   4.698
87519SOL     OW64395   0.120  13.002   2.328
87519SOL    HW164396   0.211  12.972   2.326
87519SOL    HW264397   0.115  13.067   2.258
87520SOL     OW64398  10.890  10.515   0.913
87520SOL    HW164399  10.960  10.562   0.958
87520SOL    HW264400  10.831  10.487   0.983
87521SOL     OW64401   9.484  11.907   4.536
87521SOL    HW164402   9.503  12.000   4.523
87521SOL    HW264403   9.435  11.904   4.618
87522SOL     OW64404   0.306  11.222  14.240
87522SOL    HW164405   0.280  11.140  14.196
87522SOL    HW264406   0.379  11.255  14.186
87523SOL     OW64407   0.912   8.464  11.160
87523SOL    HW164408   0.971   8.396  11.190
87523SOL    HW264409   0.901   8.521  11.237
87524SOL     OW64410   5.434  10.880  14.267
87524SOL    HW164411   5.388  10.821  14.327
87524SOL    HW264412   5.518  10.837  14.252
87525SOL     OW64413   0.167   6.122   1.959
87525SOL    HW164414   0.116   6.174   1.897
87525SOL    HW264415   0.192   6.185   2.027
87526SOL     OW64416  14.637   8.114  13.994
87526SOL    HW164417  14.687   8.112  13.912
87526SOL    HW264418  14.627   8.208  14.013
87527SOL     OW64419   0.282   2.501   4.753
87527SOL    HW164420   0.248   2.488   4.841
87527SOL    HW264421   0.217   2.556   4.710
87528SOL     OW64422  14.278  14.717  12.906
87528SOL    HW164423  14.221  14.687  12.977
87528SOL    HW264424  14.269  14.812  12.907
87529SOL     OW64425   8.886  13.089  10.959
87529SOL    HW164426   8.965  13.078  10.905
87529SOL    HW264427   8.912  13.151  11.027
87530SOL     OW64428  11.528  10.723  13.981
87530SOL    HW164429  11.464  10.788  14.012
87530SOL    HW264430  11.498  10.640  14.018
87531SOL     OW64431  11.366   4.205  10.444
87531SOL    HW164432  11.393   4.141  10.379
87531SOL    HW264433  11.404   4.173  10.526
87532SOL     OW64434   4.732   2.700  11.969
87532SOL    HW164435   4.803   2.666  12.023
87532SOL    HW264436   4.775   2.736  11.892
87533SOL     OW64437   6.278   4.791  12.713
87533SOL    HW164438   6.340   4.844  12.763
87533SOL    HW264439   6.246   4.726  12.775
87534SOL     OW64440   3.193   9.297   3.123
87534SOL    HW164441   3.217   9.308   3.215
87534SOL    HW264442   3.147   9.213   3.120
87535SOL     OW64443  10.904   0.848   6.192
87535SOL    HW164444  10.841   0.778   6.179
87535SOL    HW264445  10.899   0.900   6.112
87536SOL     OW64446   8.019  10.814   1.842
87536SOL    HW164447   8.014  10.868   1.763
87536SOL    HW264448   7.929  10.786   1.857
87537SOL     OW64449  11.690   8.007  12.045
87537SOL    HW164450  11.713   8.100  12.043
87537SOL    HW264451  11.767   7.962  12.009
87538SOL     OW64452  11.070   9.421  11.074
87538SOL    HW164453  11.106   9.493  11.125
87538SOL    HW264454  10.976   9.438  11.070
87539SOL     OW64455   7.608   1.296   9.425
87539SOL    HW164456   7.693   1.268   9.461
87539SOL    HW264457   7.563   1.336   9.499
87540SOL     OW64458  13.882   7.174   2.226
87540SOL    HW164459  13.871   7.195   2.318
87540SOL    HW264460  13.801   7.131   2.201
87541SOL     OW64461   3.220   4.282  14.272
87541SOL    HW164462   3.181   4.194  14.267
87541SOL    HW264463   3.289   4.273  14.337
87542SOL     OW64464  14.783  10.036   1.403
87542SOL    HW164465  14.777  10.079   1.488
87542SOL    HW264466  14.705   9.979   1.400
87543SOL     OW64467  14.530  10.496  12.545
87543SOL    HW164468  14.568  10.582  12.566
87543SOL    HW264469  14.583  10.464  12.472
87544SOL     OW64470   7.208   7.246   6.518
87544SOL    HW164471   7.290   7.199   6.533
87544SOL    HW264472   7.193   7.240   6.424
87545SOL     OW64473   8.862   2.887  13.055
87545SOL    HW164474   8.883   2.924  13.141
87545SOL    HW264475   8.935   2.828  13.036
87546SOL     OW64476   0.171  13.932  10.452
87546SOL    HW164477   0.258  13.963  10.475
87546SOL    HW264478   0.178  13.836  10.452
87547SOL     OW64479  11.344   8.530   2.217
87547SOL    HW164480  11.317   8.543   2.308
87547SOL    HW264481  11.319   8.440   2.198
87548SOL     OW64482  13.892   1.877   7.637
87548SOL    HW164483  13.824   1.897   7.700
87548SOL    HW264484  13.847   1.874   7.553
87549SOL     OW64485   1.327   4.825   5.977
87549SOL    HW164486   1.330   4.770   6.055
87549SOL    HW264487   1.261   4.891   5.996
87550SOL     OW64488   7.832  11.181  11.401
87550SOL    HW164489   7.837  11.086  11.407
87550SOL    HW264490   7.743  11.199  11.369
87551SOL     OW64491   1.164  10.535   4.740
87551SOL    HW164492   1.232  10.521   4.674
87551SOL    HW264493   1.134  10.446   4.763
87552SOL     OW64494   3.778  13.660  12.972
87552SOL    HW164495   3.854  13.718  12.978
87552SOL    HW264496   3.815  13.572  12.965
87553SOL     OW64497  13.855  12.400  13.193
87553SOL    HW164498  13.880  12.374  13.104
87553SOL    HW264499  13.823  12.489  13.184
87554SOL     OW64500  12.755   3.159   9.287
87554SOL    HW164501  12.738   3.067   9.265
87554SOL    HW264502  12.770   3.158   9.382
87555SOL     OW64503   8.545  14.562   2.730
87555SOL    HW164504   8.486  14.489   2.711
87555SOL    HW264505   8.633  14.524   2.724
87556SOL     OW64506  11.264   3.927  10.266
87556SOL    HW164507  11.231   3.858  10.323
87556SOL    HW264508  11.200   3.998  10.275
87557SOL     OW64509  12.454  12.420   9.356
87557SOL    HW164510  12.372  12.470   9.349
87557SOL    HW264511  12.477  12.425   9.449
87558SOL     OW64512  14.374  14.152   8.800
87558SOL    HW164513  14.382  14.209   8.877
87558SOL    HW264514  14.302  14.191   8.749
87559SOL     OW64515  12.490  13.882   5.719
87559SOL    HW164516  12.541  13.911   5.643
87559SOL    HW264517  12.519  13.939   5.790
87560SOL     OW64518  14.755  12.673   9.931
87560SOL    HW164519  14.759  12.684   9.836
87560SOL    HW264520  14.845  12.688   9.960
87561SOL     OW64521   5.743   8.419   6.272
87561SOL    HW164522   5.709   8.506   6.293
87561SOL    HW264523   5.666   8.362   6.273
87562SOL     OW64524   2.272   0.547  12.917
87562SOL    HW164525   2.219   0.587  12.848
87562SOL    HW264526   2.314   0.472  12.875
87563SOL     OW64527  12.009   2.569  12.350
87563SOL    HW164528  12.068   2.627  12.398
87563SOL    HW264529  11.926   2.616  12.349
87564SOL     OW64530   6.599  11.559   2.802
87564SOL    HW164531   6.527  11.507   2.765
87564SOL    HW264532   6.631  11.610   2.728
87565SOL     OW64533   6.921  14.489  14.557
87565SOL    HW164534   6.844  14.441  14.586
87565SOL    HW264535   6.915  14.489  14.462
87566SOL     OW64536   1.298  11.869  10.571
87566SOL    HW164537   1.215  11.915  10.555
87566SOL    HW264538   1.311  11.814  10.494
87567SOL     OW64539  11.774   7.075  13.794
87567SOL    HW164540  11.814   7.148  13.747
87567SOL    HW264541  11.844   7.009  13.799
87568SOL     OW64542  10.310   5.545   5.031
87568SOL    HW164543  10.325   5.498   5.113
87568SOL    HW264544  10.216   5.566   5.032
87569SOL     OW64545   9.292   8.341   3.443
87569SOL    HW164546   9.200   8.365   3.459
87569SOL    HW264547   9.306   8.364   3.351
87570SOL     OW64548   1.831  14.098  13.494
87570SOL    HW164549   1.785  14.019  13.520
87570SOL    HW264550   1.799  14.117  13.406
87571SOL     OW64551  11.726   4.498   4.295
87571SOL    HW164552  11.722   4.405   4.272
87571SOL    HW264553  11.688   4.503   4.383
87572SOL     OW64554   7.852   2.666  10.988
87572SOL    HW164555   7.914   2.600  10.957
87572SOL    HW264556   7.892   2.750  10.964
87573SOL     OW64557   4.056  12.468   4.859
87573SOL    HW164558   4.141  12.451   4.899
87573SOL    HW264559   4.021  12.381   4.841
87574SOL     OW64560   9.871   1.373   3.330
87574SOL    HW164561   9.896   1.437   3.263
87574SOL    HW264562   9.804   1.418   3.382
87575SOL     OW64563   2.074   5.339   5.536
87575SOL    HW164564   2.116   5.425   5.545
87575SOL    HW264565   2.143   5.282   5.502
87576SOL     OW64566  13.388  13.434  12.982
87576SOL    HW164567  13.293  13.446  12.987
87576SOL    HW264568  13.402  13.342  13.003
87577SOL     OW64569   8.997   1.068   4.988
87577SOL    HW164570   9.092   1.070   4.976
87577SOL    HW264571   8.982   1.114   5.071
87578SOL     OW64572   5.958   1.260   0.159
87578SOL    HW164573   5.928   1.241   0.070
87578SOL    HW264574   5.998   1.347   0.153
87579SOL     OW64575   5.403   2.919  12.875
87579SOL    HW164576   5.408   2.995  12.818
87579SOL    HW264577   5.457   2.852  12.831
87580SOL     OW64578  12.045   7.045   1.302
87580SOL    HW164579  12.025   6.951   1.308
87580SOL    HW264580  11.995   7.085   1.373
87581SOL     OW64581   7.873   2.892  11.738
87581SOL    HW164582   7.777   2.891  11.737
87581SOL    HW264583   7.898   2.854  11.654
87582SOL     OW64584   1.324   2.481   7.510
87582SOL    HW164585   1.331   2.430   7.429
87582SOL    HW264586   1.303   2.570   7.479
87583SOL     OW64587   2.155   9.674   2.697
87583SOL    HW164588   2.101   9.754   2.701
87583SOL    HW264589   2.107   9.610   2.750
87584SOL     OW64590   7.042   0.107  12.686
87584SOL    HW164591   7.094   0.181  12.654
87584SOL    HW264592   6.991   0.143  12.759
87585SOL     OW64593  12.570   7.185  13.799
87585SOL    HW164594  12.665   7.176  13.795
87585SOL    HW264595  12.551   7.267  13.754
87586SOL     OW64596   4.144   8.787  10.377
87586SOL    HW164597   4.127   8.708  10.427
87586SOL    HW264598   4.207   8.836  10.430
87587SOL     OW64599   7.295   8.109   0.351
87587SOL    HW164600   7.333   8.165   0.284
87587SOL    HW264601   7.227   8.060   0.304
87588SOL     OW64602  10.289  10.974   2.592
87588SOL    HW164603  10.197  10.998   2.600
87588SOL    HW264604  10.299  10.896   2.647
87589SOL     OW64605  14.373   7.564   8.811
87589SOL    HW164606  14.461   7.540   8.838
87589SOL    HW264607  14.340   7.619   8.881
87590SOL     OW64608   7.261   8.212   5.964
87590SOL    HW164609   7.328   8.204   5.896
87590SOL    HW264610   7.243   8.122   5.991
87591SOL     OW64611  10.072  10.763  13.710
87591SOL    HW164612  10.108  10.674  13.710
87591SOL    HW264613  10.017  10.767  13.788
87592SOL     OW64614  13.215  13.249   3.071
87592SOL    HW164615  13.184  13.257   2.981
87592SOL    HW264616  13.186  13.330   3.114
87593SOL     OW64617   4.124   2.695   9.988
87593SOL    HW164618   4.178   2.616   9.998
87593SOL    HW264619   4.090   2.689   9.899
87594SOL     OW64620   6.735   4.486   8.091
87594SOL    HW164621   6.652   4.444   8.067
87594SOL    HW264622   6.719   4.579   8.077
87595SOL     OW64623  12.168  10.461   5.826
87595SOL    HW164624  12.233  10.522   5.860
87595SOL    HW264625  12.219  10.388   5.790
87596SOL     OW64626   8.589  13.916   9.508
87596SOL    HW164627   8.590  13.943   9.416
87596SOL    HW264628   8.646  13.979   9.552
87597SOL     OW64629  10.142   7.974   5.602
87597SOL    HW164630  10.074   7.936   5.546
87597SOL    HW264631  10.185   8.039   5.546
87598SOL     OW64632   8.672  12.557   0.818
87598SOL    HW164633   8.609  12.628   0.807
87598SOL    HW264634   8.731  12.588   0.887
87599SOL     OW64635   7.834   6.386   9.240
87599SOL    HW164636   7.921   6.364   9.274
87599SOL    HW264637   7.780   6.309   9.261
87600SOL     OW64638   6.449   5.160   5.231
87600SOL    HW164639   6.435   5.246   5.192
87600SOL    HW264640   6.444   5.176   5.326
87601SOL     OW64641   3.323  11.589  11.175
87601SOL    HW164642   3.233  11.581  11.142
87601SOL    HW264643   3.348  11.499  11.196
87602SOL     OW64644   9.121   4.611   8.326
87602SOL    HW164645   9.086   4.681   8.271
87602SOL    HW264646   9.083   4.626   8.412
87603SOL     OW64647  14.605   9.684  10.040
87603SOL    HW164648  14.545   9.614  10.013
87603SOL    HW264649  14.673   9.684   9.972
87604SOL     OW64650   4.990   1.882  12.706
87604SOL    HW164651   5.008   1.961  12.757
87604SOL    HW264652   5.053   1.818  12.740
87605SOL     OW64653  14.053   0.334   9.565
87605SOL    HW164654  13.970   0.381   9.569
87605SOL    HW264655  14.120   0.402   9.558
87606SOL     OW64656  10.499   8.843   2.496
87606SOL    HW164657  10.469   8.780   2.430
87606SOL    HW264658  10.430   8.844   2.561
87607SOL     OW64659  10.179  11.803  11.181
87607SOL    HW164660  10.213  11.853  11.107
87607SOL    HW264661  10.094  11.771  11.151
87608SOL     OW64662  10.830   0.098   4.948
87608SOL    HW164663  10.767   0.091   4.875
87608SOL    HW264664  10.853   0.190   4.951
87609SOL     OW64665  13.822   9.422  10.029
87609SOL    HW164666  13.772   9.496  10.064
87609SOL    HW264667  13.830   9.442   9.936
87610SOL     OW64668   8.244  11.637  13.127
87610SOL    HW164669   8.338  11.624  13.140
87610SOL    HW264670   8.236  11.731  13.112
87611SOL     OW64671   4.784   2.666   5.517
87611SOL    HW164672   4.837   2.660   5.438
87611SOL    HW264673   4.776   2.575   5.548
87612SOL     OW64674   5.894  12.279   2.192
87612SOL    HW164675   5.904  12.197   2.240
87612SOL    HW264676   5.874  12.344   2.260
87613SOL     OW64677   6.310   7.250  12.439
87613SOL    HW164678   6.265   7.252  12.523
87613SOL    HW264679   6.338   7.341  12.425
87614SOL     OW64680   2.331  13.551   3.297
87614SOL    HW164681   2.377  13.634   3.304
87614SOL    HW264682   2.357  13.502   3.375
87615SOL     OW64683  10.552  11.749   7.143
87615SOL    HW164684  10.589  11.828   7.184
87615SOL    HW264685  10.628  11.703   7.108
87616SOL     OW64686   3.233   9.166  12.617
87616SOL    HW164687   3.240   9.172  12.712
87616SOL    HW264688   3.259   9.076  12.597
87617SOL     OW64689   0.801  12.096   1.266
87617SOL    HW164690   0.826  12.008   1.240
87617SOL    HW264691   0.868  12.123   1.329
87618SOL     OW64692   7.203  11.071   7.324
87618SOL    HW164693   7.164  11.118   7.397
87618SOL    HW264694   7.292  11.051   7.354
87619SOL     OW64695  10.448   2.949   8.321
87619SOL    HW164696  10.447   2.868   8.372
87619SOL    HW264697  10.529   2.945   8.271
87620SOL     OW64698   4.539   3.433   4.021
87620SOL    HW164699   4.454   3.443   3.979
87620SOL    HW264700   4.519   3.406   4.110
87621SOL     OW64701  10.066  10.880   0.135
87621SOL    HW164702  10.047  10.813   0.069
87621SOL    HW264703   9.991  10.939   0.130
87622SOL     OW64704   8.201  10.123   1.836
87622SOL    HW164705   8.285  10.159   1.866
87622SOL    HW264706   8.141  10.198   1.838
87623SOL     OW64707   2.655   1.382   3.568
87623SOL    HW164708   2.570   1.338   3.562
87623SOL    HW264709   2.634   1.475   3.560
87624SOL     OW64710   8.770  10.505   0.121
87624SOL    HW164711   8.753  10.542   0.208
87624SOL    HW264712   8.776  10.581   0.063
87625SOL     OW64713   3.214   8.275  13.259
87625SOL    HW164714   3.295   8.245  13.300
87625SOL    HW264715   3.148   8.268  13.328
87626SOL     OW64716   2.070   7.712   1.960
87626SOL    HW164717   2.118   7.695   1.879
87626SOL    HW264718   2.111   7.791   1.996
87627SOL     OW64719   4.504   4.562   3.254
87627SOL    HW164720   4.464   4.496   3.198
87627SOL    HW264721   4.489   4.531   3.343
87628SOL     OW64722   2.137  14.787   9.342
87628SOL    HW164723   2.216  14.750   9.301
87628SOL    HW264724   2.071  14.786   9.273
87629SOL     OW64725  12.655   2.246  14.613
87629SOL    HW164726  12.740   2.267  14.650
87629SOL    HW264727  12.598   2.233  14.688
87630SOL     OW64728  11.371   0.366  12.719
87630SOL    HW164729  11.412   0.353  12.805
87630SOL    HW264730  11.436   0.413  12.668
87631SOL     OW64731   4.858   2.406   6.923
87631SOL    HW164732   4.891   2.431   6.837
87631SOL    HW264733   4.764   2.390   6.909
87632SOL     OW64734  11.242  11.206   2.224
87632SOL    HW164735  11.300  11.139   2.261
87632SOL    HW264736  11.193  11.160   2.156
87633SOL     OW64737   6.720   0.505  10.186
87633SOL    HW164738   6.721   0.558  10.266
87633SOL    HW264739   6.813   0.486  10.169
87634SOL     OW64740   1.641   9.191   8.480
87634SOL    HW164741   1.600   9.259   8.425
87634SOL    HW264742   1.619   9.217   8.569
87635SOL     OW64743   6.779  10.492  12.579
87635SOL    HW164744   6.864  10.449  12.567
87635SOL    HW264745   6.750  10.464  12.666
87636SOL     OW64746   0.479  11.719   9.024
87636SOL    HW164747   0.516  11.784   9.083
87636SOL    HW264748   0.537  11.643   9.031
87637SOL     OW64749  12.175  11.102   8.754
87637SOL    HW164750  12.112  11.030   8.741
87637SOL    HW264751  12.161  11.130   8.844
87638SOL     OW64752   0.024  11.848  10.954
87638SOL    HW164753  14.840  11.786  10.987
87638SOL    HW264754   0.071  11.876  11.033
87639SOL     OW64755  13.405   5.753   2.554
87639SOL    HW164756  13.342   5.751   2.626
87639SOL    HW264757  13.378   5.828   2.501
87640SOL     OW64758  12.782   1.069   1.961
87640SOL    HW164759  12.823   1.097   2.043
87640SOL    HW264760  12.809   1.135   1.897
87641SOL     OW64761  11.603   5.791   1.267
87641SOL    HW164762  11.538   5.735   1.224
87641SOL    HW264763  11.634   5.850   1.198
87642SOL     OW64764   7.963   2.537  11.564
87642SOL    HW164765   7.881   2.572  11.598
87642SOL    HW264766   8.030   2.600  11.593
87643SOL     OW64767   8.703  14.752   3.602
87643SOL    HW164768   8.687  14.846   3.592
87643SOL    HW264769   8.658  14.712   3.527
87644SOL     OW64770   9.966   7.898  12.509
87644SOL    HW164771   9.936   7.921  12.597
87644SOL    HW264772   9.888   7.865  12.464
87645SOL     OW64773   4.348   7.593   5.795
87645SOL    HW164774   4.297   7.560   5.721
87645SOL    HW264775   4.409   7.656   5.757
87646SOL     OW64776  10.319   8.444  14.022
87646SOL    HW164777  10.378   8.474  13.952
87646SOL    HW264778  10.297   8.523  14.070
87647SOL     OW64779   6.273   6.902  12.484
87647SOL    HW164780   6.213   6.940  12.550
87647SOL    HW264781   6.357   6.943  12.503
87648SOL     OW64782   1.440  13.070   0.679
87648SOL    HW164783   1.411  12.980   0.661
87648SOL    HW264784   1.475  13.100   0.595
87649SOL     OW64785   8.504  13.591  14.601
87649SOL    HW164786   8.547  13.674  14.621
87649SOL    HW264787   8.412  13.614  14.589
87650SOL     OW64788  14.879   1.586  12.549
87650SOL    HW164789  14.816   1.653  12.574
87650SOL    HW264790   0.071   1.635  12.513
87651SOL     OW64791   7.496  14.354   5.724
87651SOL    HW164792   7.505  14.370   5.818
87651SOL    HW264793   7.470  14.262   5.718
87652SOL     OW64794   8.893  12.734   7.382
87652SOL    HW164795   8.893  12.820   7.342
87652SOL    HW264796   8.810  12.729   7.430
87653SOL     OW64797  13.886   2.005   9.686
87653SOL    HW164798  13.797   2.040   9.686
87653SOL    HW264799  13.926   2.041   9.765
87654SOL     OW64800   3.794  12.510   6.226
87654SOL    HW164801   3.699  12.523   6.235
87654SOL    HW264802   3.806  12.489   6.133
87655SOL     OW64803   6.635   8.996  13.749
87655SOL    HW164804   6.661   9.036  13.666
87655SOL    HW264805   6.588   9.065  13.795
87656SOL     OW64806   6.958   7.360   9.705
87656SOL    HW164807   6.925   7.340   9.618
87656SOL    HW264808   6.974   7.454   9.704
87657SOL     OW64809   7.516  11.216   2.235
87657SOL    HW164810   7.538  11.124   2.226
87657SOL    HW264811   7.588  11.263   2.192
87658SOL     OW64812   0.710   9.634   7.005
87658SOL    HW164813   0.625   9.665   6.974
87658SOL    HW264814   0.690   9.568   7.071
87659SOL     OW64815   7.420   3.553  10.000
87659SOL    HW164816   7.334   3.595   9.993
87659SOL    HW264817   7.415   3.479   9.940
87660SOL     OW64818   1.559   2.584   6.618
87660SOL    HW164819   1.587   2.510   6.672
87660SOL    HW264820   1.639   2.635   6.603
87661SOL     OW64821  12.763   4.768  11.007
87661SOL    HW164822  12.850   4.780  10.970
87661SOL    HW264823  12.705   4.760  10.931
87662SOL     OW64824   1.755   1.879  14.383
87662SOL    HW164825   1.669   1.874  14.425
87662SOL    HW264826   1.792   1.961  14.415
87663SOL     OW64827   0.586   4.014   5.891
87663SOL    HW164828   0.661   4.033   5.835
87663SOL    HW264829   0.614   4.039   5.978
87664SOL     OW64830  14.004  14.449   3.535
87664SOL    HW164831  14.016  14.518   3.600
87664SOL    HW264832  13.940  14.390   3.575
87665SOL     OW64833   5.675  14.229   6.664
87665SOL    HW164834   5.653  14.136   6.660
87665SOL    HW264835   5.623  14.269   6.594
87666SOL     OW64836   4.718  11.918   8.223
87666SOL    HW164837   4.651  11.985   8.241
87666SOL    HW264838   4.792  11.943   8.277
87667SOL     OW64839   8.884  12.845   7.974
87667SOL    HW164840   8.801  12.804   7.949
87667SOL    HW264841   8.949  12.805   7.917
87668SOL     OW64842   5.141   5.140  10.981
87668SOL    HW164843   5.181   5.201  11.043
87668SOL    HW264844   5.205   5.133  10.910
87669SOL     OW64845   7.591  14.162   1.643
87669SOL    HW164846   7.513  14.188   1.692
87669SOL    HW264847   7.653  14.133   1.709
87670SOL     OW64848   1.014  11.362   7.680
87670SOL    HW164849   1.044  11.437   7.629
87670SOL    HW264850   1.080  11.295   7.665
87671SOL     OW64851  12.777  10.143   1.434
87671SOL    HW164852  12.683  10.129   1.445
87671SOL    HW264853  12.785  10.237   1.417
87672SOL     OW64854   7.418   1.302   8.336
87672SOL    HW164855   7.346   1.357   8.367
87672SOL    HW264856   7.419   1.315   8.241
87673SOL     OW64857   8.824   7.992   7.756
87673SOL    HW164858   8.887   7.920   7.765
87673SOL    HW264859   8.798   8.013   7.845
87674SOL     OW64860  14.641   1.035   6.313
87674SOL    HW164861  14.613   1.123   6.291
87674SOL    HW264862  14.699   1.046   6.388
87675SOL     OW64863  13.628   7.429   6.247
87675SOL    HW164864  13.724   7.431   6.244
87675SOL    HW264865  13.600   7.466   6.163
87676SOL     OW64866   2.055   0.978   6.320
87676SOL    HW164867   2.125   0.913   6.317
87676SOL    HW264868   1.979   0.929   6.353
87677SOL     OW64869   9.284  10.728  11.204
87677SOL    HW164870   9.352  10.765  11.148
87677SOL    HW264871   9.260  10.646  11.160
87678SOL     OW64872   0.266   9.259   2.630
87678SOL    HW164873   0.185   9.218   2.603
87678SOL    HW264874   0.326   9.187   2.648
87679SOL     OW64875   0.400   4.235  13.178
87679SOL    HW164876   0.311   4.200  13.168
87679SOL    HW264877   0.418   4.276  13.094
87680SOL     OW64878   6.098   8.339   5.946
87680SOL    HW164879   6.071   8.319   6.036
87680SOL    HW264880   6.111   8.254   5.906
87681SOL     OW64881   1.721   5.285   9.072
87681SOL    HW164882   1.643   5.339   9.060
87681SOL    HW264883   1.759   5.278   8.984
87682SOL     OW64884   9.015  12.333  10.072
87682SOL    HW164885   8.949  12.302  10.011
87682SOL    HW264886   9.074  12.259  10.084
87683SOL     OW64887  11.526   6.942   4.692
87683SOL    HW164888  11.554   7.017   4.640
87683SOL    HW264889  11.440   6.966   4.725
87684SOL     OW64890   2.435  12.262  13.725
87684SOL    HW164891   2.500  12.290  13.661
87684SOL    HW264892   2.381  12.198  13.678
87685SOL     OW64893   2.791   3.963  14.432
87685SOL    HW164894   2.825   3.891  14.379
87685SOL    HW264895   2.868   4.014  14.455
87686SOL     OW64896  10.586   2.388  12.647
87686SOL    HW164897  10.581   2.472  12.691
87686SOL    HW264898  10.677   2.359  12.660
87687SOL     OW64899   5.082   8.293  11.564
87687SOL    HW164900   5.093   8.239  11.485
87687SOL    HW264901   5.058   8.230  11.632
87688SOL     OW64902   1.791   4.227  11.692
87688SOL    HW164903   1.876   4.255  11.658
87688SOL    HW264904   1.727   4.283  11.646
87689SOL     OW64905   4.630  11.583  11.318
87689SOL    HW164906   4.704  11.644  11.315
87689SOL    HW264907   4.553  11.639  11.324
87690SOL     OW64908   4.387   0.856   2.224
87690SOL    HW164909   4.308   0.865   2.278
87690SOL    HW264910   4.432   0.940   2.233
87691SOL     OW64911  11.142   7.286   8.247
87691SOL    HW164912  11.072   7.225   8.227
87691SOL    HW264913  11.147   7.343   8.170
87692SOL     OW64914   2.543   3.711   0.969
87692SOL    HW164915   2.530   3.787   1.026
87692SOL    HW264916   2.560   3.639   1.030
87693SOL     OW64917   2.118   4.847  11.475
87693SOL    HW164918   2.032   4.813  11.449
87693SOL    HW264919   2.168   4.849  11.393
87694SOL     OW64920  14.002   5.167   3.789
87694SOL    HW164921  14.054   5.134   3.862
87694SOL    HW264922  13.941   5.228   3.829
87695SOL     OW64923   5.602  12.416   4.491
87695SOL    HW164924   5.612  12.323   4.471
87695SOL    HW264925   5.659  12.460   4.429
87696SOL     OW64926   1.640   5.657  12.846
87696SOL    HW164927   1.638   5.746  12.812
87696SOL    HW264928   1.733   5.640  12.863
87697SOL     OW64929   1.848   3.061  11.608
87697SOL    HW164930   1.874   2.983  11.559
87697SOL    HW264931   1.929   3.111  11.616
87698SOL     OW64932  11.479  13.657   5.846
87698SOL    HW164933  11.400  13.604   5.832
87698SOL    HW264934  11.459  13.709   5.924
87699SOL     OW64935  13.027   3.338   4.296
87699SOL    HW164936  12.994   3.417   4.338
87699SOL    HW264937  13.043   3.363   4.205
87700SOL     OW64938   4.574  10.681  13.455
87700SOL    HW164939   4.531  10.642  13.531
87700SOL    HW264940   4.656  10.632  13.447
87701SOL     OW64941   8.591   2.176   9.424
87701SOL    HW164942   8.526   2.221   9.478
87701SOL    HW264943   8.548   2.094   9.398
87702SOL     OW64944   8.917  11.739   3.926
87702SOL    HW164945   8.961  11.822   3.945
87702SOL    HW264946   8.980  11.671   3.953
87703SOL     OW64947   3.861   1.711   4.666
87703SOL    HW164948   3.773   1.742   4.686
87703SOL    HW264949   3.917   1.752   4.732
87704SOL     OW64950   2.713  11.317   5.890
87704SOL    HW164951   2.673  11.232   5.905
87704SOL    HW264952   2.669  11.351   5.811
87705SOL     OW64953  13.286   3.380   3.913
87705SOL    HW164954  13.276   3.417   3.825
87705SOL    HW264955  13.376   3.347   3.915
87706SOL     OW64956   3.355   8.426   6.464
87706SOL    HW164957   3.402   8.347   6.436
87706SOL    HW264958   3.396   8.450   6.547
87707SOL     OW64959  14.361   7.328  11.317
87707SOL    HW164960  14.323   7.284  11.241
87707SOL    HW264961  14.455   7.325  11.302
87708SOL     OW64962   6.624   1.981  10.446
87708SOL    HW164963   6.615   2.029  10.363
87708SOL    HW264964   6.718   1.961  10.450
87709SOL     OW64965   7.728   7.731   4.219
87709SOL    HW164966   7.670   7.744   4.144
87709SOL    HW264967   7.773   7.648   4.202
87710SOL     OW64968  13.026  10.150   9.635
87710SOL    HW164969  13.099  10.129   9.578
87710SOL    HW264970  12.952  10.163   9.576
87711SOL     OW64971  11.834   2.486   9.054
87711SOL    HW164972  11.924   2.511   9.076
87711SOL    HW264973  11.781   2.522   9.124
87712SOL     OW64974   6.982  12.662   6.382
87712SOL    HW164975   7.017  12.715   6.454
87712SOL    HW264976   6.894  12.696   6.367
87713SOL     OW64977  14.748   6.491  12.683
87713SOL    HW164978  14.817   6.548  12.647
87713SOL    HW264979  14.748   6.415  12.625
87714SOL     OW64980   7.113   3.929   6.030
87714SOL    HW164981   7.023   3.953   6.054
87714SOL    HW264982   7.156   3.911   6.114
87715SOL     OW64983   6.315  13.625   1.772
87715SOL    HW164984   6.247  13.679   1.813
87715SOL    HW264985   6.397  13.670   1.791
87716SOL     OW64986   6.459   0.081   2.728
87716SOL    HW164987   6.478   0.134   2.805
87716SOL    HW264988   6.520   0.008   2.734
87717SOL     OW64989   0.141   6.859   9.917
87717SOL    HW164990   0.191   6.939   9.896
87717SOL    HW264991   0.118   6.822   9.832
87718SOL     OW64992   6.257   3.798   5.575
87718SOL    HW164993   6.309   3.765   5.648
87718SOL    HW264994   6.263   3.730   5.508
87719SOL     OW64995   2.203   3.770  14.129
87719SOL    HW164996   2.284   3.789  14.176
87719SOL    HW264997   2.214   3.810  14.043
87720SOL     OW64998  12.024  11.161   8.081
87720SOL    HW164999  12.083  11.203   8.018
87720SOL    HW265000  12.019  11.222   8.155
87721SOL     OW65001   3.542   9.689   2.319
87721SOL    HW165002   3.486   9.639   2.379
87721SOL    HW265003   3.611   9.724   2.375
87722SOL     OW65004   8.062   4.987   0.032
87722SOL    HW165005   8.020   5.040   0.100
87722SOL    HW265006   8.117   4.925   0.080
87723SOL     OW65007   8.199   8.804   0.167
87723SOL    HW165008   8.263   8.853   0.220
87723SOL    HW265009   8.150   8.872   0.121
87724SOL     OW65010  13.485  10.033  14.842
87724SOL    HW165011  13.469  10.096   0.030
87724SOL    HW265012  13.414   9.969  14.850
87725SOL     OW65013   0.423   8.777   2.048
87725SOL    HW165014   0.339   8.769   2.092
87725SOL    HW265015   0.403   8.772   1.955
87726SOL     OW65016   7.113  12.191  14.246
87726SOL    HW165017   7.069  12.180  14.161
87726SOL    HW265018   7.190  12.245  14.226
87727SOL     OW65019  13.526   5.267  10.304
87727SOL    HW165020  13.517   5.173  10.315
87727SOL    HW265021  13.619   5.285  10.319
87728SOL     OW65022  13.200  13.778   1.862
87728SOL    HW165023  13.137  13.708   1.845
87728SOL    HW265024  13.226  13.765   1.953
87729SOL     OW65025  12.329  10.491  12.895
87729SOL    HW165026  12.297  10.579  12.915
87729SOL    HW265027  12.251  10.436  12.895
87730SOL     OW65028   5.452  10.118   8.057
87730SOL    HW165029   5.520  10.084   8.000
87730SOL    HW265030   5.462  10.068   8.138
87731SOL     OW65031   6.538  12.776   5.907
87731SOL    HW165032   6.556  12.689   5.872
87731SOL    HW265033   6.445  12.790   5.890
87732SOL     OW65034   5.436   0.623  13.225
87732SOL    HW165035   5.432   0.717  13.210
87732SOL    HW265036   5.463   0.587  13.140
87733SOL     OW65037   9.796   4.965   0.991
87733SOL    HW165038   9.758   4.899   0.933
87733SOL    HW265039   9.721   5.018   1.020
87734SOL     OW65040   1.263   5.335   7.359
87734SOL    HW165041   1.211   5.379   7.425
87734SOL    HW265042   1.249   5.241   7.376
87735SOL     OW65043   1.876   6.687   7.115
87735SOL    HW165044   1.899   6.667   7.206
87735SOL    HW265045   1.957   6.721   7.077
87736SOL     OW65046  11.049   6.353  14.714
87736SOL    HW165047  11.042   6.406  14.635
87736SOL    HW265048  11.055   6.416  14.785
87737SOL     OW65049   4.940   6.572  10.438
87737SOL    HW165050   4.881   6.502  10.410
87737SOL    HW265051   4.883   6.635  10.482
87738SOL     OW65052   6.986   4.087   8.765
87738SOL    HW165053   6.958   4.155   8.826
87738SOL    HW265054   7.067   4.053   8.803
87739SOL     OW65055   1.917   1.866  10.506
87739SOL    HW165056   1.883   1.943  10.551
87739SOL    HW265057   1.867   1.793  10.543
87740SOL     OW65058  12.199   6.123   2.199
87740SOL    HW165059  12.183   6.165   2.284
87740SOL    HW265060  12.112   6.113   2.160
87741SOL     OW65061   1.437  10.929   7.653
87741SOL    HW165062   1.406  11.012   7.689
87741SOL    HW265063   1.498  10.895   7.719
87742SOL     OW65064   3.678  14.740   1.072
87742SOL    HW165065   3.639  14.780   0.994
87742SOL    HW265066   3.660  14.802   1.143
87743SOL     OW65067   4.089  13.701  12.753
87743SOL    HW165068   4.169  13.753  12.745
87743SOL    HW265069   4.019  13.761  12.727
87744SOL     OW65070  13.240   0.081   8.463
87744SOL    HW165071  13.184   0.015   8.422
87744SOL    HW265072  13.178   0.148   8.495
87745SOL     OW65073   7.074   1.425   1.482
87745SOL    HW165074   7.137   1.395   1.417
87745SOL    HW265075   6.993   1.378   1.460
87746SOL     OW65076   8.464  14.168   6.090
87746SOL    HW165077   8.474  14.182   6.184
87746SOL    HW265078   8.553  14.174   6.056
87747SOL     OW65079   5.301  10.789   8.480
87747SOL    HW165080   5.334  10.702   8.457
87747SOL    HW265081   5.232  10.773   8.544
87748SOL     OW65082   9.434   0.182   9.957
87748SOL    HW165083   9.452   0.276   9.957
87748SOL    HW265084   9.365   0.170   9.892
87749SOL     OW65085   4.589   0.269   7.084
87749SOL    HW165086   4.667   0.294   7.035
87749SOL    HW265087   4.520   0.327   7.051
87750SOL     OW65088  13.250   2.282   7.725
87750SOL    HW165089  13.188   2.263   7.655
87750SOL    HW265090  13.203   2.341   7.784
87751SOL     OW65091   8.489  12.798   0.085
87751SOL    HW165092   8.414  12.770   0.138
87751SOL    HW265093   8.450  12.821   0.000
87752SOL     OW65094   1.824  13.955   4.815
87752SOL    HW165095   1.898  13.954   4.876
87752SOL    HW265096   1.815  13.864   4.787
87753SOL     OW65097   7.744   6.183  10.651
87753SOL    HW165098   7.715   6.233  10.728
87753SOL    HW265099   7.772   6.099  10.687
87754SOL     OW65100   1.228   5.406  12.575
87754SOL    HW165101   1.297   5.394  12.509
87754SOL    HW265102   1.183   5.486  12.547
87755SOL     OW65103   1.392   9.679   0.413
87755SOL    HW165104   1.318   9.707   0.466
87755SOL    HW265105   1.465   9.671   0.474
87756SOL     OW65106   2.589  10.690   5.001
87756SOL    HW165107   2.633  10.770   5.028
87756SOL    HW265108   2.610  10.681   4.908
87757SOL     OW65109  10.362   3.849   8.276
87757SOL    HW165110  10.344   3.856   8.370
87757SOL    HW265111  10.433   3.785   8.271
87758SOL     OW65112  11.326  12.702   0.237
87758SOL    HW165113  11.282  12.766   0.293
87758SOL    HW265114  11.302  12.728   0.148
87759SOL     OW65115   7.062   4.058   2.139
87759SOL    HW165116   7.147   4.094   2.165
87759SOL    HW265117   7.010   4.061   2.220
87760SOL     OW65118   8.655   2.647  13.887
87760SOL    HW165119   8.579   2.701  13.911
87760SOL    HW265120   8.730   2.705  13.897
87761SOL     OW65121   8.061  13.683   0.365
87761SOL    HW165122   7.975  13.695   0.405
87761SOL    HW265123   8.099  13.609   0.414
87762SOL     OW65124  14.728   9.704  14.162
87762SOL    HW165125  14.799   9.670  14.107
87762SOL    HW265126  14.769   9.716  14.248
87763SOL     OW65127   1.671  14.107  12.249
87763SOL    HW165128   1.578  14.083  12.242
87763SOL    HW265129   1.670  14.201  12.265
87764SOL     OW65130  13.834   7.972  10.223
87764SOL    HW165131  13.768   8.009  10.164
87764SOL    HW265132  13.854   8.043  10.284
87765SOL     OW65133   1.750   1.839   1.050
87765SOL    HW165134   1.685   1.795   1.105
87765SOL    HW265135   1.731   1.933   1.061
87766SOL     OW65136   9.964  10.811   1.271
87766SOL    HW165137   9.964  10.833   1.364
87766SOL    HW265138   9.931  10.721   1.267
87767SOL     OW65139   6.983   0.575   6.155
87767SOL    HW165140   7.040   0.564   6.078
87767SOL    HW265141   6.916   0.637   6.126
87768SOL     OW65142   0.625   9.944   7.127
87768SOL    HW165143   0.661   9.856   7.119
87768SOL    HW265144   0.696  10.002   7.098
87769SOL     OW65145   7.561   9.913   0.801
87769SOL    HW165146   7.605   9.923   0.885
87769SOL    HW265147   7.532   9.821   0.800
87770SOL     OW65148   4.510   3.604   7.185
87770SOL    HW165149   4.537   3.626   7.096
87770SOL    HW265150   4.513   3.687   7.233
87771SOL     OW65151  12.957  12.180   5.841
87771SOL    HW165152  13.032  12.237   5.854
87771SOL    HW265153  12.881  12.234   5.863
87772SOL     OW65154   1.302   1.260   2.572
87772SOL    HW165155   1.340   1.306   2.497
87772SOL    HW265156   1.295   1.169   2.544
87773SOL     OW65157   7.041  12.081   6.062
87773SOL    HW165158   7.102  12.008   6.048
87773SOL    HW265159   7.080  12.154   6.013
87774SOL     OW65160  13.751   1.638  10.251
87774SOL    HW165161  13.694   1.699  10.205
87774SOL    HW265162  13.766   1.678  10.337
87775SOL     OW65163  12.207  11.476   4.493
87775SOL    HW165164  12.223  11.571   4.498
87775SOL    HW265165  12.273  11.445   4.431
87776SOL     OW65166   4.313   1.156   2.442
87776SOL    HW165167   4.346   1.181   2.356
87776SOL    HW265168   4.362   1.211   2.503
87777SOL     OW65169   2.272  13.513  11.024
87777SOL    HW165170   2.328  13.539  10.951
87777SOL    HW265171   2.255  13.420  11.010
87778SOL     OW65172   3.045   1.359  14.565
87778SOL    HW165173   3.023   1.380  14.474
87778SOL    HW265174   3.093   1.277  14.560
87779SOL     OW65175   3.416  12.961   5.052
87779SOL    HW165176   3.486  13.021   5.078
87779SOL    HW265177   3.433  12.942   4.960
87780SOL     OW65178   7.336   3.279   6.812
87780SOL    HW165179   7.249   3.278   6.770
87780SOL    HW265180   7.323   3.233   6.895
87781SOL     OW65181  11.260  12.559   0.552
87781SOL    HW165182  11.261  12.646   0.593
87781SOL    HW265183  11.252  12.577   0.459
87782SOL     OW65184  14.832  10.704   9.417
87782SOL    HW165185  14.787  10.749   9.346
87782SOL    HW265186   0.032  10.753   9.429
87783SOL     OW65187  14.548   6.640  10.161
87783SOL    HW165188  14.517   6.588  10.086
87783SOL    HW265189  14.600   6.710  10.121
87784SOL     OW65190  13.033   1.939  10.259
87784SOL    HW165191  12.983   1.928  10.178
87784SOL    HW265192  13.122   1.960  10.231
87785SOL     OW65193   1.817   9.113   9.239
87785SOL    HW165194   1.835   9.187   9.297
87785SOL    HW265195   1.817   9.151   9.151
87786SOL     OW65196   0.924   0.164   6.849
87786SOL    HW165197   0.892   0.211   6.772
87786SOL    HW265198   0.953   0.232   6.909
87787SOL     OW65199   4.764   7.811   2.885
87787SOL    HW165200   4.810   7.728   2.885
87787SOL    HW265201   4.700   7.803   2.813
87788SOL     OW65202   4.959  13.665  11.982
87788SOL    HW165203   4.897  13.714  12.036
87788SOL    HW265204   4.923  13.670  11.893
87789SOL     OW65205   2.551   5.499   4.847
87789SOL    HW165206   2.581   5.511   4.937
87789SOL    HW265207   2.527   5.407   4.842
87790SOL     OW65208   1.899   4.350   0.909
87790SOL    HW165209   1.815   4.349   0.953
87790SOL    HW265210   1.955   4.407   0.962
87791SOL     OW65211   3.447   0.065  12.799
87791SOL    HW165212   3.403   0.150  12.793
87791SOL    HW265213   3.462   0.039  12.708
87792SOL     OW65214   6.227   2.540  10.498
87792SOL    HW165215   6.268   2.585  10.424
87792SOL    HW265216   6.300   2.515  10.555
87793SOL     OW65217   4.431   0.228   0.091
87793SOL    HW165218   4.369   0.282   0.043
87793SOL    HW265219   4.413   0.138   0.063
87794SOL     OW65220  12.076   0.310   9.570
87794SOL    HW165221  12.001   0.343   9.521
87794SOL    HW265222  12.076   0.216   9.553
87795SOL     OW65223   5.034   1.872  11.949
87795SOL    HW165224   5.007   1.952  11.904
87795SOL    HW265225   4.962   1.854  12.009
87796SOL     OW65226   5.672   7.740   3.005
87796SOL    HW165227   5.703   7.658   3.043
87796SOL    HW265228   5.714   7.808   3.056
87797SOL     OW65229   2.533   5.230   4.807
87797SOL    HW165230   2.594   5.167   4.847
87797SOL    HW265231   2.502   5.187   4.728
87798SOL     OW65232  13.237   2.372   9.334
87798SOL    HW165233  13.232   2.362   9.430
87798SOL    HW265234  13.201   2.291   9.300
87799SOL     OW65235  12.971   5.794  13.169
87799SOL    HW165236  12.897   5.734  13.183
87799SOL    HW265237  12.971   5.850  13.247
87800SOL     OW65238   6.161   5.994   7.946
87800SOL    HW165239   6.078   5.988   7.993
87800SOL    HW265240   6.227   5.964   8.009
87801SOL     OW65241   7.120   3.835   1.017
87801SOL    HW165242   7.139   3.920   1.056
87801SOL    HW265243   7.072   3.787   1.084
87802SOL     OW65244   4.693  12.704   2.188
87802SOL    HW165245   4.718  12.612   2.180
87802SOL    HW265246   4.693  12.721   2.283
87803SOL     OW65247   3.907   7.672   4.682
87803SOL    HW165248   3.883   7.685   4.774
87803SOL    HW265249   4.002   7.661   4.682
87804SOL     OW65250  11.683   7.243   4.338
87804SOL    HW165251  11.735   7.309   4.294
87804SOL    HW265252  11.712   7.160   4.300
87805SOL     OW65253  11.975   7.398  11.271
87805SOL    HW165254  11.889   7.415  11.234
87805SOL    HW265255  12.027   7.363  11.198
87806SOL     OW65256   4.427   0.783   3.320
87806SOL    HW165257   4.332   0.780   3.330
87806SOL    HW265258   4.456   0.853   3.378
87807SOL     OW65259   3.383  14.499  12.792
87807SOL    HW165260   3.373  14.570  12.856
87807SOL    HW265261   3.368  14.541  12.707
87808SOL     OW65262   7.679   8.532  13.595
87808SOL    HW165263   7.588   8.543  13.622
87808SOL    HW265264   7.708   8.620  13.574
87809SOL     OW65265   5.294   1.633  13.175
87809SOL    HW165266   5.200   1.632  13.156
87809SOL    HW265267   5.334   1.665  13.094
87810SOL     OW65268   5.967  14.078   4.740
87810SOL    HW165269   5.973  14.131   4.820
87810SOL    HW265270   6.043  14.021   4.743
87811SOL     OW65271   0.463   3.700  10.965
87811SOL    HW165272   0.403   3.736  10.900
87811SOL    HW265273   0.430   3.612  10.981
87812SOL     OW65274   7.001   1.280   4.391
87812SOL    HW165275   6.920   1.255   4.347
87812SOL    HW265276   6.999   1.231   4.473
87813SOL     OW65277  11.370  14.314   6.440
87813SOL    HW165278  11.392  14.234   6.391
87813SOL    HW265279  11.363  14.382   6.372
87814SOL     OW65280   6.627  11.813   9.853
87814SOL    HW165281   6.709  11.852   9.884
87814SOL    HW265282   6.621  11.729   9.899
87815SOL     OW65283   9.687  12.595   4.067
87815SOL    HW165284   9.672  12.675   4.017
87815SOL    HW265285   9.600  12.571   4.100
87816SOL     OW65286   0.574   3.881  14.293
87816SOL    HW165287   0.606   3.823  14.363
87816SOL    HW265288   0.559   3.823  14.219
87817SOL     OW65289   1.106   1.112   4.804
87817SOL    HW165290   1.026   1.066   4.779
87817SOL    HW265291   1.175   1.070   4.752
87818SOL     OW65292   1.302   7.501   7.793
87818SOL    HW165293   1.386   7.543   7.809
87818SOL    HW265294   1.238   7.572   7.797
87819SOL     OW65295   6.812  13.228   8.953
87819SOL    HW165296   6.761  13.152   8.983
87819SOL    HW265297   6.797  13.295   9.020
87820SOL     OW65298   3.858  11.324   5.434
87820SOL    HW165299   3.931  11.329   5.373
87820SOL    HW265300   3.885  11.259   5.499
87821SOL     OW65301   4.578  14.404   8.407
87821SOL    HW165302   4.560  14.314   8.435
87821SOL    HW265303   4.653  14.431   8.460
87822SOL     OW65304  10.440  13.896  14.166
87822SOL    HW165305  10.370  13.938  14.115
87822SOL    HW265306  10.403  13.812  14.194
87823SOL     OW65307   6.751   5.071   6.234
87823SOL    HW165308   6.817   5.023   6.282
87823SOL    HW265309   6.671   5.018   6.242
87824SOL     OW65310  13.657   8.533  11.874
87824SOL    HW165311  13.635   8.551  11.965
87824SOL    HW265312  13.596   8.585  11.823
87825SOL     OW65313   8.377   0.647   6.971
87825SOL    HW165314   8.404   0.565   6.930
87825SOL    HW265315   8.342   0.699   6.899
87826SOL     OW65316   7.249   2.436  14.489
87826SOL    HW165317   7.204   2.365  14.442
87826SOL    HW265318   7.263   2.401  14.577
87827SOL     OW65319   5.517   9.626  13.584
87827SOL    HW165320   5.595   9.587  13.543
87827SOL    HW265321   5.448   9.617  13.518
87828SOL     OW65322  12.200   5.261   6.281
87828SOL    HW165323  12.295   5.255   6.280
87828SOL    HW265324  12.171   5.170   6.293
87829SOL     OW65325   8.058  12.769   5.965
87829SOL    HW165326   8.133  12.715   5.991
87829SOL    HW265327   8.091  12.820   5.890
87830SOL     OW65328   5.882   0.740   6.351
87830SOL    HW165329   5.944   0.693   6.295
87830SOL    HW265330   5.852   0.814   6.298
87831SOL     OW65331   5.740  12.439   6.866
87831SOL    HW165332   5.657  12.440   6.913
87831SOL    HW265333   5.793  12.506   6.910
87832SOL     OW65334   0.013  12.794   4.989
87832SOL    HW165335   0.093  12.741   4.987
87832SOL    HW265336  14.872  12.799   5.082
87833SOL     OW65337   9.701   2.264   5.020
87833SOL    HW165338   9.769   2.324   5.049
87833SOL    HW265339   9.728   2.179   5.054
87834SOL     OW65340   6.896   3.247   0.904
87834SOL    HW165341   6.958   3.306   0.861
87834SOL    HW265342   6.822   3.303   0.928
87835SOL     OW65343   6.986   0.300   6.728
87835SOL    HW165344   7.023   0.278   6.642
87835SOL    HW265345   6.891   0.296   6.714
87836SOL     OW65346  10.155   7.668  14.438
87836SOL    HW165347  10.191   7.678  14.351
87836SOL    HW265348  10.109   7.751  14.455
87837SOL     OW65349   2.325  14.310   1.479
87837SOL    HW165350   2.260  14.373   1.448
87837SOL    HW265351   2.279  14.226   1.477
87838SOL     OW65352   4.068   7.120   4.668
87838SOL    HW165353   4.120   7.126   4.749
87838SOL    HW265354   4.007   7.193   4.674
87839SOL     OW65355   8.760  13.089   9.946
87839SOL    HW165356   8.748  13.013   9.889
87839SOL    HW265357   8.734  13.058  10.033
87840SOL     OW65358   2.082   1.194   5.489
87840SOL    HW165359   2.101   1.113   5.442
87840SOL    HW265360   2.111   1.177   5.578
87841SOL     OW65361   2.999  12.359  13.046
87841SOL    HW165362   2.938  12.431  13.053
87841SOL    HW265363   3.074  12.395  12.998
87842SOL     OW65364  13.294   6.200  10.413
87842SOL    HW165365  13.265   6.115  10.449
87842SOL    HW265366  13.278   6.262  10.484
87843SOL     OW65367   5.490  12.527   6.708
87843SOL    HW165368   5.437  12.558   6.635
87843SOL    HW265369   5.449  12.564   6.785
87844SOL     OW65370  13.808   7.811   1.595
87844SOL    HW165371  13.809   7.736   1.536
87844SOL    HW265372  13.786   7.773   1.680
87845SOL     OW65373  11.411  11.769   8.265
87845SOL    HW165374  11.451  11.756   8.179
87845SOL    HW265375  11.366  11.687   8.284
87846SOL     OW65376  13.694   1.827   0.022
87846SOL    HW165377  13.686   1.839  14.810
87846SOL    HW265378  13.730   1.909   0.054
87847SOL     OW65379  11.103   6.096   6.533
87847SOL    HW165380  11.025   6.128   6.578
87847SOL    HW265381  11.138   6.173   6.489
87848SOL     OW65382   5.949   7.492  13.845
87848SOL    HW165383   6.024   7.550  13.837
87848SOL    HW265384   5.916   7.507  13.933
87849SOL     OW65385   1.211  11.109  11.414
87849SOL    HW165386   1.204  11.017  11.441
87849SOL    HW265387   1.224  11.157  11.495
87850SOL     OW65388   3.521  13.306   9.132
87850SOL    HW165389   3.488  13.320   9.043
87850SOL    HW265390   3.581  13.379   9.148
87851SOL     OW65391  12.974   1.469   9.999
87851SOL    HW165392  13.069   1.475  10.001
87851SOL    HW265393  12.946   1.549   9.955
87852SOL     OW65394   5.767  10.630   2.214
87852SOL    HW165395   5.788  10.723   2.217
87852SOL    HW265396   5.730  10.616   2.127
87853SOL     OW65397  10.621   6.581   5.294
87853SOL    HW165398  10.552   6.643   5.270
87853SOL    HW265399  10.667   6.564   5.211
87854SOL     OW65400  13.793   3.454   8.511
87854SOL    HW165401  13.822   3.384   8.453
87854SOL    HW265402  13.782   3.411   8.596
87855SOL     OW65403  12.167   2.980  13.257
87855SOL    HW165404  12.230   2.917  13.224
87855SOL    HW265405  12.125   2.936  13.331
87856SOL     OW65406  14.660   5.089   9.182
87856SOL    HW165407  14.713   5.155   9.136
87856SOL    HW265408  14.575   5.091   9.137
87857SOL     OW65409  11.845   9.310  12.407
87857SOL    HW165410  11.766   9.351  12.371
87857SOL    HW265411  11.867   9.241  12.343
87858SOL     OW65412   1.144   5.687  10.046
87858SOL    HW165413   1.239   5.697  10.039
87858SOL    HW265414   1.132   5.602  10.088
87859SOL     OW65415   7.414   9.234  13.155
87859SOL    HW165416   7.435   9.282  13.234
87859SOL    HW265417   7.427   9.142  13.178
87860SOL     OW65418   9.388   9.481  11.283
87860SOL    HW165419   9.321   9.549  11.278
87860SOL    HW265420   9.470   9.528  11.268
87861SOL     OW65421   1.710  14.208   2.107
87861SOL    HW165422   1.638  14.226   2.167
87861SOL    HW265423   1.785  14.254   2.145
87862SOL     OW65424  11.300  13.355  10.026
87862SOL    HW165425  11.241  13.326  10.095
87862SOL    HW265426  11.342  13.274   9.995
87863SOL     OW65427  10.463   6.175   7.100
87863SOL    HW165428  10.480   6.173   7.194
87863SOL    HW265429  10.376   6.137   7.090
87864SOL     OW65430  11.831   0.806   0.274
87864SOL    HW165431  11.798   0.881   0.224
87864SOL    HW265432  11.763   0.740   0.267
87865SOL     OW65433   0.677  12.051   6.874
87865SOL    HW165434   0.605  12.035   6.813
87865SOL    HW265435   0.756  12.045   6.820
87866SOL     OW65436  14.128  11.158   3.955
87866SOL    HW165437  14.111  11.252   3.943
87866SOL    HW265438  14.088  11.116   3.880
87867SOL     OW65439   8.226   5.200  14.468
87867SOL    HW165440   8.156   5.165  14.522
87867SOL    HW265441   8.270   5.123  14.432
87868SOL     OW65442   5.758  14.869   1.448
87868SOL    HW165443   5.833  14.875   1.507
87868SOL    HW265444   5.690   0.040   1.489
87869SOL     OW65445   3.329   9.402  13.894
87869SOL    HW165446   3.409   9.434  13.935
87869SOL    HW265447   3.356   9.372  13.807
87870SOL     OW65448   3.422  14.357   4.144
87870SOL    HW165449   3.329  14.347   4.123
87870SOL    HW265450   3.423  14.414   4.221
87871SOL     OW65451   5.043   5.560   0.776
87871SOL    HW165452   5.087   5.626   0.830
87871SOL    HW265453   5.040   5.482   0.832
87872SOL     OW65454  13.674   3.453   9.678
87872SOL    HW165455  13.693   3.493   9.763
87872SOL    HW265456  13.652   3.362   9.698
87873SOL     OW65457   1.271  10.321   3.087
87873SOL    HW165458   1.187  10.295   3.125
87873SOL    HW265459   1.263  10.297   2.994
87874SOL     OW65460  13.177   4.241   5.174
87874SOL    HW165461  13.111   4.285   5.227
87874SOL    HW265462  13.135   4.160   5.145
87875SOL     OW65463   1.388  13.091  10.757
87875SOL    HW165464   1.318  13.155  10.772
87875SOL    HW265465   1.468  13.143  10.751
87876SOL     OW65466   4.858  14.548  10.413
87876SOL    HW165467   4.778  14.533  10.464
87876SOL    HW265468   4.926  14.498  10.460
87877SOL     OW65469  10.068   7.616  11.082
87877SOL    HW165470  10.002   7.578  11.025
87877SOL    HW265471  10.069   7.709  11.059
87878SOL     OW65472   3.884   8.445   7.295
87878SOL    HW165473   3.919   8.444   7.384
87878SOL    HW265474   3.795   8.480   7.305
87879SOL     OW65475   8.293   2.770   7.328
87879SOL    HW165476   8.373   2.823   7.334
87879SOL    HW265477   8.255   2.774   7.416
87880SOL     OW65478   0.315   7.248  13.036
87880SOL    HW165479   0.327   7.316  13.102
87880SOL    HW265480   0.366   7.174  13.068
87881SOL     OW65481   7.062   1.495   7.510
87881SOL    HW165482   7.146   1.474   7.468
87881SOL    HW265483   7.013   1.542   7.442
87882SOL     OW65484   8.151   4.557   2.165
87882SOL    HW165485   8.084   4.530   2.102
87882SOL    HW265486   8.113   4.535   2.250
87883SOL     OW65487  14.477   1.585   1.454
87883SOL    HW165488  14.396   1.574   1.502
87883SOL    HW265489  14.495   1.679   1.459
87884SOL     OW65490   0.139   3.993   8.001
87884SOL    HW165491   0.061   3.974   7.950
87884SOL    HW265492   0.123   3.953   8.086
87885SOL     OW65493  10.406  13.094  13.508
87885SOL    HW165494  10.345  13.054  13.570
87885SOL    HW265495  10.405  13.187  13.530
87886SOL     OW65496   3.607   2.979   9.685
87886SOL    HW165497   3.572   3.067   9.681
87886SOL    HW265498   3.702   2.991   9.692
87887SOL     OW65499   5.523   8.422   9.611
87887SOL    HW165500   5.494   8.332   9.597
87887SOL    HW265501   5.487   8.447   9.696
87888SOL     OW65502  13.607   4.745   3.066
87888SOL    HW165503  13.698   4.751   3.093
87888SOL    HW265504  13.608   4.693   2.986
87889SOL     OW65505  11.861   8.583  13.150
87889SOL    HW165506  11.925   8.593  13.220
87889SOL    HW265507  11.907   8.533  13.082
87890SOL     OW65508  12.759   8.653   0.540
87890SOL    HW165509  12.740   8.721   0.476
87890SOL    HW265510  12.790   8.701   0.617
87891SOL     OW65511   4.894   6.016   0.056
87891SOL    HW165512   4.883   6.023   0.151
87891SOL    HW265513   4.934   5.931   0.042
87892SOL     OW65514  12.639   4.971  12.117
87892SOL    HW165515  12.734   4.957  12.117
87892SOL    HW265516  12.605   4.901  12.061
87893SOL     OW65517   1.997   7.187   3.991
87893SOL    HW165518   2.074   7.136   4.015
87893SOL    HW265519   1.924   7.127   4.002
87894SOL     OW65520   8.043   7.617   2.435
87894SOL    HW165521   8.025   7.710   2.423
87894SOL    HW265522   8.018   7.599   2.525
87895SOL     OW65523   4.231   8.007   0.078
87895SOL    HW165524   4.321   7.983   0.053
87895SOL    HW265525   4.240   8.045   0.165
87896SOL     OW65526   8.488   8.451   8.079
87896SOL    HW165527   8.464   8.433   8.170
87896SOL    HW265528   8.562   8.392   8.062
87897SOL     OW65529   2.780   2.779   3.348
87897SOL    HW165530   2.723   2.854   3.367
87897SOL    HW265531   2.834   2.809   3.275
87898SOL     OW65532  10.734   8.395   2.771
87898SOL    HW165533  10.808   8.411   2.829
87898SOL    HW265534  10.744   8.458   2.700
87899SOL     OW65535   1.898   0.551   4.950
87899SOL    HW165536   1.940   0.468   4.926
87899SOL    HW265537   1.805   0.534   4.938
87900SOL     OW65538  11.059   3.157   1.945
87900SOL    HW165539  11.114   3.169   1.867
87900SOL    HW265540  10.978   3.204   1.925
87901SOL     OW65541   2.022   6.129   9.024
87901SOL    HW165542   2.091   6.194   9.032
87901SOL    HW265543   1.942   6.180   9.011
87902SOL     OW65544   6.342   3.340   6.907
87902SOL    HW165545   6.377   3.279   6.970
87902SOL    HW265546   6.288   3.286   6.848
87903SOL     OW65547   6.065   6.493   4.350
87903SOL    HW165548   6.063   6.519   4.442
87903SOL    HW265549   6.100   6.570   4.305
87904SOL     OW65550   1.788  13.379   3.680
87904SOL    HW165551   1.781  13.289   3.710
87904SOL    HW265552   1.791  13.431   3.760
87905SOL     OW65553   0.815  14.711   8.432
87905SOL    HW165554   0.852  14.758   8.507
87905SOL    HW265555   0.746  14.656   8.470
87906SOL     OW65556  12.846   5.645   2.498
87906SOL    HW165557  12.758   5.649   2.536
87906SOL    HW265558  12.890   5.576   2.547
87907SOL     OW65559   7.776   1.106   4.097
87907SOL    HW165560   7.718   1.056   4.154
87907SOL    HW265561   7.718   1.158   4.042
87908SOL     OW65562   1.410   5.913   6.757
87908SOL    HW165563   1.439   5.858   6.830
87908SOL    HW265564   1.366   5.987   6.798
87909SOL     OW65565  11.769  11.836   5.704
87909SOL    HW165566  11.681  11.854   5.739
87909SOL    HW265567  11.770  11.742   5.691
87910SOL     OW65568   6.042  12.513  11.846
87910SOL    HW165569   6.094  12.549  11.919
87910SOL    HW265570   5.966  12.475  11.888
87911SOL     OW65571  13.392   4.628   8.824
87911SOL    HW165572  13.392   4.664   8.735
87911SOL    HW265573  13.474   4.579   8.830
87912SOL     OW65574   8.232   5.143   0.466
87912SOL    HW165575   8.221   5.219   0.523
87912SOL    HW265576   8.149   5.135   0.420
87913SOL     OW65577   5.862  13.691  12.229
87913SOL    HW165578   5.814  13.773  12.244
87913SOL    HW265579   5.948  13.706  12.269
87914SOL     OW65580   1.126   6.907  11.842
87914SOL    HW165581   1.109   6.940  11.931
87914SOL    HW265582   1.055   6.845  11.826
87915SOL     OW65583   1.315   0.545  14.686
87915SOL    HW165584   1.287   0.514  14.600
87915SOL    HW265585   1.384   0.608  14.666
87916SOL     OW65586  11.528   0.782   0.276
87916SOL    HW165587  11.435   0.785   0.298
87916SOL    HW265588  11.540   0.856   0.216
87917SOL     OW65589   3.875   4.673  11.822
87917SOL    HW165590   3.862   4.581  11.801
87917SOL    HW265591   3.851   4.680  11.915
87918SOL     OW65592   5.863   3.666  13.405
87918SOL    HW165593   5.803   3.606  13.360
87918SOL    HW265594   5.936   3.677  13.345
87919SOL     OW65595  14.471  11.174  10.652
87919SOL    HW165596  14.496  11.173  10.744
87919SOL    HW265597  14.424  11.257  10.641
87920SOL     OW65598  14.017   2.102   4.718
87920SOL    HW165599  14.022   2.015   4.757
87920SOL    HW265600  14.060   2.092   4.633
87921SOL     OW65601   9.723   5.736   4.253
87921SOL    HW165602   9.741   5.673   4.322
87921SOL    HW265603   9.800   5.732   4.196
87922SOL     OW65604   6.887   5.013   1.569
87922SOL    HW165605   6.896   5.005   1.664
87922SOL    HW265606   6.948   4.949   1.534
87923SOL     OW65607   5.734   8.536   0.867
87923SOL    HW165608   5.646   8.500   0.882
87923SOL    HW265609   5.793   8.462   0.885
87924SOL     OW65610   9.871   1.042  14.425
87924SOL    HW165611   9.788   1.023  14.470
87924SOL    HW265612   9.845   1.087  14.345
87925SOL     OW65613  10.643   5.756   3.050
87925SOL    HW165614  10.656   5.672   3.007
87925SOL    HW265615  10.613   5.814   2.980
87926SOL     OW65616   1.423  14.021   2.298
87926SOL    HW165617   1.328  14.012   2.311
87926SOL    HW265618   1.444  14.107   2.335
87927SOL     OW65619   9.208   7.056   7.363
87927SOL    HW165620   9.282   6.995   7.367
87927SOL    HW265621   9.230   7.115   7.290
87928SOL     OW65622   3.502   1.650   8.409
87928SOL    HW165623   3.536   1.607   8.331
87928SOL    HW265624   3.542   1.737   8.409
87929SOL     OW65625  14.088   3.439   8.095
87929SOL    HW165626  14.128   3.401   8.016
87929SOL    HW265627  14.044   3.365   8.136
87930SOL     OW65628   5.403  13.752   5.082
87930SOL    HW165629   5.422  13.840   5.114
87930SOL    HW265630   5.318  13.760   5.039
87931SOL     OW65631  10.532   1.126   2.747
87931SOL    HW165632  10.496   1.208   2.711
87931SOL    HW265633  10.581   1.153   2.825
87932SOL     OW65634   5.954   1.707  12.010
87932SOL    HW165635   5.966   1.789  11.963
87932SOL    HW265636   5.977   1.639  11.947
87933SOL     OW65637   7.409   1.643   8.858
87933SOL    HW165638   7.466   1.677   8.788
87933SOL    HW265639   7.423   1.548   8.855
87934SOL     OW65640   8.657   9.443   9.928
87934SOL    HW165641   8.588   9.466   9.866
87934SOL    HW265642   8.734   9.426   9.872
87935SOL     OW65643   3.966   8.723   1.918
87935SOL    HW165644   3.948   8.811   1.885
87935SOL    HW265645   3.888   8.673   1.893
87936SOL     OW65646   9.247   9.350   5.806
87936SOL    HW165647   9.264   9.352   5.712
87936SOL    HW265648   9.318   9.297   5.842
87937SOL     OW65649   8.769  12.158   3.113
87937SOL    HW165650   8.693  12.184   3.061
87937SOL    HW265651   8.745  12.178   3.203
87938SOL     OW65652   8.379   8.729  10.530
87938SOL    HW165653   8.350   8.745  10.440
87938SOL    HW265654   8.305   8.684  10.571
87939SOL     OW65655   0.380  10.760   7.007
87939SOL    HW165656   0.410  10.749   7.097
87939SOL    HW265657   0.453  10.730   6.953
87940SOL     OW65658   4.088   1.787   6.202
87940SOL    HW165659   4.019   1.761   6.140
87940SOL    HW265660   4.149   1.837   6.149
87941SOL     OW65661  14.730   9.959   6.101
87941SOL    HW165662  14.786  10.010   6.161
87941SOL    HW265663  14.755   9.990   6.014
87942SOL     OW65664   5.803   0.257   3.896
87942SOL    HW165665   5.882   0.301   3.926
87942SOL    HW265666   5.743   0.259   3.971
87943SOL     OW65667   5.580   8.783  11.370
87943SOL    HW165668   5.608   8.861  11.323
87943SOL    HW265669   5.484   8.787  11.368
87944SOL     OW65670   7.024   8.882  14.747
87944SOL    HW165671   7.022   8.961  14.693
87944SOL    HW265672   6.986   8.814  14.691
87945SOL     OW65673  13.210  13.453  10.004
87945SOL    HW165674  13.255  13.368   9.999
87945SOL    HW265675  13.151  13.445  10.078
87946SOL     OW65676   8.709   3.834   1.460
87946SOL    HW165677   8.658   3.776   1.404
87946SOL    HW265678   8.746   3.899   1.400
87947SOL     OW65679  12.729   3.570   7.637
87947SOL    HW165680  12.634   3.572   7.642
87947SOL    HW265681  12.748   3.560   7.543
87948SOL     OW65682   7.654   8.897   5.102
87948SOL    HW165683   7.670   8.823   5.160
87948SOL    HW265684   7.561   8.915   5.112
87949SOL     OW65685  13.391   2.432   7.235
87949SOL    HW165686  13.471   2.443   7.184
87949SOL    HW265687  13.414   2.367   7.301
87950SOL     OW65688   1.567   1.114   3.482
87950SOL    HW165689   1.579   1.050   3.551
87950SOL    HW265690   1.564   1.062   3.401
87951SOL     OW65691  13.450   0.079   2.650
87951SOL    HW165692  13.416  14.873   2.671
87951SOL    HW265693  13.486   0.070   2.562
87952SOL     OW65694   6.837   0.031  10.182
87952SOL    HW165695   6.927   0.054  10.160
87952SOL    HW265696   6.785   0.102  10.146
87953SOL     OW65697   7.423   1.661  14.857
87953SOL    HW165698   7.357   1.600   0.007
87953SOL    HW265699   7.499   1.607  14.838
87954SOL     OW65700   1.613   2.486  13.028
87954SOL    HW165701   1.643   2.434  13.103
87954SOL    HW265702   1.527   2.451  13.007
87955SOL     OW65703  12.069   6.419   6.739
87955SOL    HW165704  12.137   6.360   6.706
87955SOL    HW265705  12.097   6.441   6.828
87956SOL     OW65706  13.808   9.561   1.701
87956SOL    HW165707  13.733   9.556   1.642
87956SOL    HW265708  13.798   9.644   1.747
87957SOL     OW65709   2.810   5.244   3.931
87957SOL    HW165710   2.836   5.152   3.928
87957SOL    HW265711   2.762   5.257   3.849
87958SOL     OW65712   2.969   0.947  12.729
87958SOL    HW165713   3.001   1.026  12.772
87958SOL    HW265714   2.874   0.955  12.729
87959SOL     OW65715   5.931  13.245   3.256
87959SOL    HW165716   5.862  13.197   3.211
87959SOL    HW265717   5.884  13.311   3.307
87960SOL     OW65718  11.079   7.917   8.187
87960SOL    HW165719  11.011   7.888   8.248
87960SOL    HW265720  11.129   7.838   8.168
87961SOL     OW65721  12.506   1.562   1.440
87961SOL    HW165722  12.467   1.609   1.366
87961SOL    HW265723  12.559   1.627   1.485
87962SOL     OW65724  10.185   1.599  13.585
87962SOL    HW165725  10.225   1.680  13.617
87962SOL    HW265726  10.217   1.532  13.645
87963SOL     OW65727   5.883  14.378   5.706
87963SOL    HW165728   5.833  14.303   5.739
87963SOL    HW265729   5.854  14.452   5.759
87964SOL     OW65730   9.942   6.670  10.344
87964SOL    HW165731   9.846   6.662  10.343
87964SOL    HW265732   9.961   6.726  10.419
87965SOL     OW65733  11.363  10.480   6.386
87965SOL    HW165734  11.268  10.495   6.389
87965SOL    HW265735  11.387  10.496   6.295
87966SOL     OW65736   0.678   0.937   6.645
87966SOL    HW165737   0.667   0.942   6.740
87966SOL    HW265738   0.633   0.857   6.620
87967SOL     OW65739  10.049  11.100   5.963
87967SOL    HW165740   9.979  11.157   5.930
87967SOL    HW265741  10.004  11.022   5.994
87968SOL     OW65742  12.127   3.769   8.772
87968SOL    HW165743  12.142   3.863   8.772
87968SOL    HW265744  12.105   3.748   8.863
87969SOL     OW65745   3.508   2.660   5.945
87969SOL    HW165746   3.496   2.714   6.023
87969SOL    HW265747   3.419   2.640   5.915
87970SOL     OW65748   7.233   1.186  11.046
87970SOL    HW165749   7.307   1.242  11.022
87970SOL    HW265750   7.185   1.173  10.965
87971SOL     OW65751  12.657  12.806   0.002
87971SOL    HW165752  12.563  12.792   0.011
87971SOL    HW265753  12.666  12.869  14.813
87972SOL     OW65754   6.634   8.214   5.993
87972SOL    HW165755   6.643   8.119   5.987
87972SOL    HW265756   6.541   8.231   5.975
87973SOL     OW65757  10.567   3.223   1.617
87973SOL    HW165758  10.570   3.265   1.531
87973SOL    HW265759  10.635   3.268   1.668
87974SOL     OW65760   8.669   7.309   0.330
87974SOL    HW165761   8.731   7.292   0.259
87974SOL    HW265762   8.699   7.255   0.403
87975SOL     OW65763   8.252  12.725  10.384
87975SOL    HW165764   8.172  12.777  10.374
87975SOL    HW265765   8.245  12.686  10.471
87976SOL     OW65766   7.852  13.336   8.055
87976SOL    HW165767   7.841  13.251   8.097
87976SOL    HW265768   7.781  13.390   8.091
87977SOL     OW65769   6.004   1.962   0.578
87977SOL    HW165770   6.037   2.050   0.600
87977SOL    HW265771   6.039   1.906   0.647
87978SOL     OW65772   0.977  14.584   7.576
87978SOL    HW165773   1.069  14.603   7.561
87978SOL    HW265774   0.974  14.539   7.660
87979SOL     OW65775  13.314  14.314  11.315
87979SOL    HW165776  13.270  14.314  11.400
87979SOL    HW265777  13.351  14.402  11.306
87980SOL     OW65778  14.300   4.239   9.696
87980SOL    HW165779  14.218   4.241   9.647
87980SOL    HW265780  14.368   4.250   9.630
87981SOL     OW65781   7.553  12.539   7.351
87981SOL    HW165782   7.647  12.542   7.366
87981SOL    HW265783   7.538  12.598   7.277
87982SOL     OW65784  11.533   5.683   5.471
87982SOL    HW165785  11.451   5.671   5.423
87982SOL    HW265786  11.534   5.613   5.536
87983SOL     OW65787  13.343  13.123  14.478
87983SOL    HW165788  13.270  13.061  14.485
87983SOL    HW265789  13.420  13.068  14.464
87984SOL     OW65790   6.826   6.917  13.053
87984SOL    HW165791   6.904   6.911  13.109
87984SOL    HW265792   6.755   6.935  13.114
87985SOL     OW65793  14.059   7.628   4.657
87985SOL    HW165794  14.105   7.618   4.573
87985SOL    HW265795  13.999   7.701   4.643
87986SOL     OW65796   2.857  12.330   8.479
87986SOL    HW165797   2.777  12.277   8.484
87986SOL    HW265798   2.837  12.397   8.413
87987SOL     OW65799  11.562   4.438   5.206
87987SOL    HW165800  11.609   4.376   5.151
87987SOL    HW265801  11.588   4.524   5.173
87988SOL     OW65802   5.130  11.540   2.225
87988SOL    HW165803   5.220  11.572   2.235
87988SOL    HW265804   5.121  11.475   2.294
87989SOL     OW65805  12.151   1.799   5.598
87989SOL    HW165806  12.065   1.765   5.572
87989SOL    HW265807  12.156   1.886   5.559
87990SOL     OW65808   1.523  13.409   9.058
87990SOL    HW165809   1.474  13.410   8.975
87990SOL    HW265810   1.511  13.498   9.093
87991SOL     OW65811   6.633   4.468   6.615
87991SOL    HW165812   6.614   4.562   6.624
87991SOL    HW265813   6.552   4.425   6.644
87992SOL     OW65814  14.852   4.969  11.405
87992SOL    HW165815  14.867   4.939  11.495
87992SOL    HW265816  14.848   4.888  11.354
87993SOL     OW65817   1.991  11.773  14.248
87993SOL    HW165818   1.958  11.788  14.337
87993SOL    HW265819   2.077  11.815  14.248
87994SOL     OW65820   4.350   7.452   0.936
87994SOL    HW165821   4.346   7.477   0.844
87994SOL    HW265822   4.403   7.521   0.977
87995SOL     OW65823  11.776   0.676  14.742
87995SOL    HW165824  11.696   0.722  14.715
87995SOL    HW265825  11.758   0.584  14.723
87996SOL     OW65826   7.919   6.628   0.582
87996SOL    HW165827   7.856   6.600   0.648
87996SOL    HW265828   7.875   6.699   0.535
87997SOL     OW65829  12.454   8.464   9.103
87997SOL    HW165830  12.517   8.535   9.087
87997SOL    HW265831  12.398   8.464   9.026
87998SOL     OW65832  14.775  10.240   9.035
87998SOL    HW165833  14.741  10.240   9.124
87998SOL    HW265834  14.699  10.259   8.980
87999SOL     OW65835   1.894  10.017   4.531
87999SOL    HW165836   1.915  10.103   4.568
87999SOL    HW265837   1.800  10.008   4.544
88000SOL     OW65838   8.565   1.154   3.056
88000SOL    HW165839   8.485   1.112   3.085
88000SOL    HW265840   8.566   1.141   2.961
88001SOL     OW65841   2.150   9.724   4.012
88001SOL    HW165842   2.060   9.700   4.036
88001SOL    HW265843   2.140   9.802   3.957
88002SOL     OW65844   9.786   5.089   0.210
88002SOL    HW165845   9.696   5.092   0.178
88002SOL    HW265846   9.777   5.101   0.305
88003SOL     OW65847   1.620  11.916  14.698
88003SOL    HW165848   1.688  11.965  14.743
88003SOL    HW265849   1.656  11.828  14.689
88004SOL     OW65850  10.319  12.959  11.905
88004SOL    HW165851  10.375  12.905  11.961
88004SOL    HW265852  10.258  12.897  11.865
88005SOL     OW65853   3.481   8.489   2.428
88005SOL    HW165854   3.510   8.437   2.353
88005SOL    HW265855   3.558   8.538   2.454
88006SOL     OW65856   3.589  10.998   4.020
88006SOL    HW165857   3.583  10.908   3.989
88006SOL    HW265858   3.498  11.028   4.024
88007SOL     OW65859   2.630   4.006   9.084
88007SOL    HW165860   2.639   4.006   9.179
88007SOL    HW265861   2.581   4.086   9.065
88008SOL     OW65862   1.385   0.624  10.848
88008SOL    HW165863   1.461   0.645  10.901
88008SOL    HW265864   1.419   0.617  10.759
88009SOL     OW65865   9.057   2.399   1.306
88009SOL    HW165866   9.103   2.424   1.226
88009SOL    HW265867   8.985   2.343   1.275
88010SOL     OW65868   3.194   4.666   3.158
88010SOL    HW165869   3.257   4.599   3.185
88010SOL    HW265870   3.130   4.669   3.229
88011SOL     OW65871  11.712   2.781   5.299
88011SOL    HW165872  11.698   2.738   5.383
88011SOL    HW265873  11.772   2.853   5.319
88012SOL     OW65874   0.361  10.751   6.442
88012SOL    HW165875   0.305  10.673   6.438
88012SOL    HW265876   0.307  10.817   6.485
88013SOL     OW65877  13.691   2.450   9.195
88013SOL    HW165878  13.639   2.523   9.162
88013SOL    HW265879  13.692   2.463   9.290
88014SOL     OW65880   7.099  12.153   3.010
88014SOL    HW165881   7.132  12.227   3.061
88014SOL    HW265882   7.133  12.168   2.921
88015SOL     OW65883   3.711   8.065   6.800
88015SOL    HW165884   3.619   8.039   6.814
88015SOL    HW265885   3.752   8.056   6.886
88016SOL     OW65886   1.014  10.695   0.661
88016SOL    HW165887   0.989  10.712   0.751
88016SOL    HW265888   0.988  10.774   0.613
88017SOL     OW65889   7.796  11.248   3.756
88017SOL    HW165890   7.883  11.241   3.718
88017SOL    HW265891   7.746  11.299   3.691
88018SOL     OW65892   6.120  11.188   5.954
88018SOL    HW165893   6.197  11.237   5.922
88018SOL    HW265894   6.148  11.153   6.039
88019SOL     OW65895  14.731  14.340  12.102
88019SOL    HW165896  14.687  14.351  12.187
88019SOL    HW265897  14.703  14.254  12.072
88020SOL     OW65898  13.959   2.667   9.771
88020SOL    HW165899  13.916   2.742   9.729
88020SOL    HW265900  13.889   2.625   9.821
88021SOL     OW65901   7.384   4.483   8.536
88021SOL    HW165902   7.447   4.425   8.492
88021SOL    HW265903   7.299   4.459   8.500
88022SOL     OW65904   3.000   6.943   4.516
88022SOL    HW165905   3.048   6.989   4.447
88022SOL    HW265906   2.952   7.011   4.562
88023SOL     OW65907   6.641   2.465  14.372
88023SOL    HW165908   6.718   2.420  14.408
88023SOL    HW265909   6.577   2.396  14.358
88024SOL     OW65910  12.994  10.843  10.848
88024SOL    HW165911  12.940  10.839  10.769
88024SOL    HW265912  13.017  10.752  10.866
88025SOL     OW65913   0.770  10.459  13.726
88025SOL    HW165914   0.821  10.475  13.647
88025SOL    HW265915   0.747  10.366  13.722
88026SOL     OW65916   5.654   0.249   5.966
88026SOL    HW165917   5.695   0.281   5.886
88026SOL    HW265918   5.720   0.192   6.006
88027SOL     OW65919   8.352  11.220   7.488
88027SOL    HW165920   8.318  11.255   7.570
88027SOL    HW265921   8.323  11.129   7.487
88028SOL     OW65922   7.478   2.049   1.701
88028SOL    HW165923   7.420   2.009   1.766
88028SOL    HW265924   7.420   2.072   1.629
88029SOL     OW65925   0.787   4.160   9.768
88029SOL    HW165926   0.775   4.114   9.851
88029SOL    HW265927   0.713   4.221   9.764
88030SOL     OW65928  12.024   6.364  11.488
88030SOL    HW165929  12.088   6.436  11.485
88030SOL    HW265930  12.008   6.350  11.581
88031SOL     OW65931   2.254  11.204   6.248
88031SOL    HW165932   2.247  11.109   6.254
88031SOL    HW265933   2.314  11.219   6.175
88032SOL     OW65934  12.021  12.275   9.962
88032SOL    HW165935  12.040  12.369   9.958
88032SOL    HW265936  11.992  12.253   9.874
88033SOL     OW65937  11.666   0.202   8.260
88033SOL    HW165938  11.629   0.114   8.270
88033SOL    HW265939  11.718   0.214   8.339
88034SOL     OW65940   7.463   5.681   4.313
88034SOL    HW165941   7.554   5.656   4.330
88034SOL    HW265942   7.469   5.764   4.266
88035SOL     OW65943  14.693   1.118   5.871
88035SOL    HW165944  14.787   1.097   5.875
88035SOL    HW265945  14.674   1.121   5.777
88036SOL     OW65946  13.888   6.737   3.926
88036SOL    HW165947  13.805   6.777   3.900
88036SOL    HW265948  13.919   6.694   3.847
88037SOL     OW65949  10.009   0.475   0.290
88037SOL    HW165950   9.993   0.415   0.362
88037SOL    HW265951   9.968   0.434   0.214
88038SOL     OW65952  13.568  11.636   5.454
88038SOL    HW165953  13.568  11.570   5.523
88038SOL    HW265954  13.622  11.707   5.490
88039SOL     OW65955   2.659   0.426  11.319
88039SOL    HW165956   2.602   0.357  11.285
88039SOL    HW265957   2.746   0.404  11.286
88040SOL     OW65958   0.104   1.857  12.030
88040SOL    HW165959   0.019   1.900  12.035
88040SOL    HW265960   0.110   1.807  12.112
88041SOL     OW65961  13.955   3.965  10.234
88041SOL    HW165962  13.899   3.978  10.310
88041SOL    HW265963  13.927   3.881  10.198
88042SOL     OW65964  14.175   1.662   3.288
88042SOL    HW165965  14.130   1.592   3.240
88042SOL    HW265966  14.133   1.742   3.257
88043SOL     OW65967  12.406   7.952  11.893
88043SOL    HW165968  12.482   7.894  11.893
88043SOL    HW265969  12.423   8.013  11.966
88044SOL     OW65970   5.998  12.392   5.894
88044SOL    HW165971   6.084  12.356   5.872
88044SOL    HW265972   5.937  12.344   5.838
88045SOL     OW65973  12.266   7.147   8.512
88045SOL    HW165974  12.176   7.168   8.538
88045SOL    HW265975  12.319   7.169   8.589
88046SOL     OW65976  11.970  11.454  10.880
88046SOL    HW165977  12.056  11.421  10.907
88046SOL    HW265978  11.946  11.517  10.949
88047SOL     OW65979   9.589   7.051   6.165
88047SOL    HW165980   9.583   7.139   6.200
88047SOL    HW265981   9.510   7.006   6.196
88048SOL     OW65982  14.403  13.621   6.785
88048SOL    HW165983  14.380  13.678   6.712
88048SOL    HW265984  14.357  13.540   6.768
88049SOL     OW65985  13.308   0.981   1.514
88049SOL    HW165986  13.369   0.910   1.495
88049SOL    HW265987  13.264   0.954   1.595
88050SOL     OW65988   3.992  10.435   8.313
88050SOL    HW165989   4.005  10.459   8.221
88050SOL    HW265990   3.898  10.423   8.321
88051SOL     OW65991   6.949   0.539   8.157
88051SOL    HW165992   6.892   0.497   8.093
88051SOL    HW265993   6.906   0.623   8.176
88052SOL     OW65994  13.759   1.204  11.982
88052SOL    HW165995  13.846   1.188  11.945
88052SOL    HW265996  13.762   1.294  12.012
88053SOL     OW65997  14.107   4.440   6.840
88053SOL    HW165998  14.108   4.356   6.886
88053SOL    HW265999  14.083   4.503   6.908
88054SOL     OW66000  12.375   0.220   1.998
88054SOL    HW166001  12.461   0.180   2.007
88054SOL    HW266002  12.349   0.202   1.907
88055SOL     OW66003   2.722   6.937  14.757
88055SOL    HW166004   2.699   6.850  14.723
88055SOL    HW266005   2.681   6.941  14.843
88056SOL     OW66006  14.648  10.968   4.221
88056SOL    HW166007  14.712  11.038   4.222
88056SOL    HW266008  14.568  11.008   4.255
88057SOL     OW66009  12.996   9.398  12.596
88057SOL    HW166010  12.923   9.446  12.557
88057SOL    HW266011  13.011   9.325  12.537
88058SOL     OW66012   8.626   9.511  12.686
88058SOL    HW166013   8.618   9.415  12.691
88058SOL    HW266014   8.705   9.525  12.634
88059SOL     OW66015   3.890  14.819   0.235
88059SOL    HW166016   3.941   0.007   0.275
88059SOL    HW266017   3.942  14.739   0.249
88060SOL     OW66018   7.997   4.760   9.403
88060SOL    HW166019   7.997   4.827   9.335
88060SOL    HW266020   8.090   4.737   9.413
88061SOL     OW66021   0.671   9.439   7.646
88061SOL    HW166022   0.674   9.363   7.589
88061SOL    HW266023   0.581   9.471   7.641
88062SOL     OW66024   1.517  11.456   5.485
88062SOL    HW166025   1.553  11.379   5.441
88062SOL    HW266026   1.512  11.523   5.416
88063SOL     OW66027  13.645  13.971  12.006
88063SOL    HW166028  13.646  13.906  11.935
88063SOL    HW266029  13.556  14.004  12.008
88064SOL     OW66030   7.857   1.072   0.486
88064SOL    HW166031   7.804   0.993   0.478
88064SOL    HW266032   7.882   1.093   0.396
88065SOL     OW66033   0.190   9.775   5.992
88065SOL    HW166034   0.269   9.775   5.939
88065SOL    HW266035   0.215   9.817   6.074
88066SOL     OW66036  14.162  12.571  11.362
88066SOL    HW166037  14.168  12.607  11.451
88066SOL    HW266038  14.115  12.638  11.313
88067SOL     OW66039   0.423  11.106   9.988
88067SOL    HW166040   0.459  11.194   9.976
88067SOL    HW266041   0.374  11.088   9.908
88068SOL     OW66042   2.946   1.498   1.951
88068SOL    HW166043   2.995   1.547   2.017
88068SOL    HW266044   2.990   1.518   1.868
88069SOL     OW66045   6.589  13.814   6.629
88069SOL    HW166046   6.572  13.859   6.712
88069SOL    HW266047   6.524  13.851   6.569
88070SOL     OW66048   9.878   1.376   5.264
88070SOL    HW166049   9.786   1.386   5.287
88070SOL    HW266050   9.907   1.464   5.239
88071SOL     OW66051  11.095  13.740   9.968
88071SOL    HW166052  11.049  13.708  10.045
88071SOL    HW266053  11.137  13.662   9.931
88072SOL     OW66054   6.061  10.522   9.406
88072SOL    HW166055   5.970  10.524   9.436
88072SOL    HW266056   6.059  10.467   9.328
88073SOL     OW66057  12.564   7.929   9.895
88073SOL    HW166058  12.506   7.996   9.857
88073SOL    HW266059  12.541   7.928   9.988
88074SOL     OW66060   4.944   6.118   1.027
88074SOL    HW166061   4.964   6.033   1.068
88074SOL    HW266062   4.861   6.144   1.066
88075SOL     OW66063   9.333   5.708   2.410
88075SOL    HW166064   9.280   5.779   2.446
88075SOL    HW266065   9.374   5.746   2.332
88076SOL     OW66066   3.934   9.624   2.389
88076SOL    HW166067   3.885   9.548   2.356
88076SOL    HW266068   3.921   9.692   2.323
88077SOL     OW66069  13.669  10.386  11.439
88077SOL    HW166070  13.689  10.461  11.383
88077SOL    HW266071  13.592  10.413  11.489
88078SOL     OW66072  11.901   3.480  12.177
88078SOL    HW166073  11.988   3.482  12.217
88078SOL    HW266074  11.916   3.447  12.088
88079SOL     OW66075   2.869   7.662  11.386
88079SOL    HW166076   2.827   7.586  11.346
88079SOL    HW266077   2.859   7.732  11.321
88080SOL     OW66078  12.875   5.681   7.077
88080SOL    HW166079  12.929   5.654   7.003
88080SOL    HW266080  12.845   5.599   7.116
88081SOL     OW66081   3.569  12.792  13.007
88081SOL    HW166082   3.539  12.868  13.057
88081SOL    HW266083   3.489  12.741  12.993
88082SOL     OW66084   9.078   9.563   2.852
88082SOL    HW166085   9.112   9.511   2.924
88082SOL    HW266086   9.037   9.639   2.894
88083SOL     OW66087  11.007   7.978  11.830
88083SOL    HW166088  11.009   7.989  11.925
88083SOL    HW266089  11.037   8.062  11.795
88084SOL     OW66090   6.688  12.199   8.508
88084SOL    HW166091   6.609  12.207   8.454
88084SOL    HW266092   6.732  12.121   8.475
88085SOL     OW66093   6.678   4.214   7.282
88085SOL    HW166094   6.670   4.264   7.200
88085SOL    HW266095   6.589   4.213   7.318
88086SOL     OW66096   2.649   4.520   6.389
88086SOL    HW166097   2.679   4.551   6.303
88086SOL    HW266098   2.599   4.593   6.424
88087SOL     OW66099   2.755   6.354  14.201
88087SOL    HW166100   2.700   6.428  14.177
88087SOL    HW266101   2.800   6.383  14.281
88088SOL     OW66102   7.547  13.003   2.100
88088SOL    HW166103   7.499  12.929   2.062
88088SOL    HW266104   7.497  13.026   2.178
88089SOL     OW66105  10.384   6.207  11.808
88089SOL    HW166106  10.365   6.296  11.777
88089SOL    HW266107  10.307   6.183  11.860
88090SOL     OW66108   5.996  12.357   7.661
88090SOL    HW166109   5.940  12.282   7.681
88090SOL    HW266110   5.959  12.395   7.581
88091SOL     OW66111  11.333   6.703  11.525
88091SOL    HW166112  11.404   6.758  11.491
88091SOL    HW266113  11.366   6.613  11.515
88092SOL     OW66114   9.122   2.451   9.996
88092SOL    HW166115   9.181   2.512  10.040
88092SOL    HW266116   9.161   2.365  10.011
88093SOL     OW66117   7.173   6.154   5.524
88093SOL    HW166118   7.191   6.061   5.540
88093SOL    HW266119   7.095   6.172   5.577
88094SOL     OW66120   8.060   4.067  11.006
88094SOL    HW166121   8.052   3.983  10.961
88094SOL    HW266122   8.100   4.045  11.090
88095SOL     OW66123   9.389   1.472   6.870
88095SOL    HW166124   9.376   1.458   6.963
88095SOL    HW266125   9.447   1.549   6.865
88096SOL     OW66126   1.804   6.549   2.868
88096SOL    HW166127   1.826   6.628   2.916
88096SOL    HW266128   1.789   6.579   2.778
88097SOL     OW66129   3.247   5.241   5.363
88097SOL    HW166130   3.297   5.231   5.444
88097SOL    HW266131   3.242   5.335   5.349
88098SOL     OW66132   2.885  14.779  10.232
88098SOL    HW166133   2.808  14.824  10.197
88098SOL    HW266134   2.902  14.822  10.316
88099SOL     OW66135   1.845   3.378   5.672
88099SOL    HW166136   1.915   3.342   5.727
88099SOL    HW266137   1.865   3.346   5.584
88100SOL     OW66138   1.956  12.048  14.762
88100SOL    HW166139   1.943  12.061  14.668
88100SOL    HW266140   1.899  12.113  14.803
88101SOL     OW66141  11.210  11.313   8.194
88101SOL    HW166142  11.206  11.218   8.194
88101SOL    HW266143  11.153  11.340   8.123
88102SOL     OW66144  11.104   8.016  14.694
88102SOL    HW166145  11.180   7.974  14.733
88102SOL    HW266146  11.030   7.961  14.720
88103SOL     OW66147  10.549   3.361  12.558
88103SOL    HW166148  10.544   3.348  12.463
88103SOL    HW266149  10.636   3.400  12.572
88104SOL     OW66150   0.163  10.188  10.809
88104SOL    HW166151   0.210  10.149  10.883
88104SOL    HW266152   0.091  10.236  10.850
88105SOL     OW66153   4.118   1.696  12.769
88105SOL    HW166154   4.110   1.602  12.788
88105SOL    HW266155   4.043   1.714  12.712
88106SOL     OW66156   8.596   5.685   3.610
88106SOL    HW166157   8.624   5.770   3.641
88106SOL    HW266158   8.518   5.664   3.662
88107SOL     OW66159  13.881   2.080  12.709
88107SOL    HW166160  13.867   2.005  12.650
88107SOL    HW266161  13.855   2.047  12.796
88108SOL     OW66162   2.613   2.330   9.175
88108SOL    HW166163   2.690   2.281   9.145
88108SOL    HW266164   2.565   2.351   9.095
88109SOL     OW66165   3.497  13.715   5.114
88109SOL    HW166166   3.536  13.719   5.027
88109SOL    HW266167   3.507  13.804   5.148
88110SOL     OW66168   6.939  14.812   4.587
88110SOL    HW166169   6.854  14.777   4.614
88110SOL    HW266170   6.917  14.879   4.522
88111SOL     OW66171  13.493   1.501  14.279
88111SOL    HW166172  13.523   1.411  14.284
88111SOL    HW266173  13.495   1.523  14.186
88112SOL     OW66174   6.228  11.877   4.738
88112SOL    HW166175   6.254  11.954   4.688
88112SOL    HW266176   6.290  11.809   4.711
88113SOL     OW66177   7.643   2.614  12.604
88113SOL    HW166178   7.688   2.591  12.523
88113SOL    HW266179   7.704   2.589  12.674
88114SOL     OW66180   5.725   1.550  12.557
88114SOL    HW166181   5.663   1.533  12.629
88114SOL    HW266182   5.802   1.588  12.600
88115SOL     OW66183  10.055   1.566  13.368
88115SOL    HW166184  10.096   1.589  13.452
88115SOL    HW266185  10.095   1.626  13.305
88116SOL     OW66186  14.507  12.821  11.986
88116SOL    HW166187  14.545  12.909  11.994
88116SOL    HW266188  14.441  12.818  12.056
88117SOL     OW66189   6.600   1.422   6.234
88117SOL    HW166190   6.688   1.385   6.234
88117SOL    HW266191   6.594   1.470   6.317
88118SOL     OW66192  11.904   6.836  12.015
88118SOL    HW166193  11.857   6.833  11.932
88118SOL    HW266194  11.996   6.823  11.991
88119SOL     OW66195   8.109   5.780   3.672
88119SOL    HW166196   8.114   5.797   3.766
88119SOL    HW266197   8.164   5.703   3.658
88120SOL     OW66198  12.932   5.533   9.840
88120SOL    HW166199  13.009   5.576   9.876
88120SOL    HW266200  12.966   5.453   9.799
88121SOL     OW66201   6.831   4.735   5.573
88121SOL    HW166202   6.919   4.709   5.548
88121SOL    HW266203   6.800   4.665   5.631
88122SOL     OW66204   6.083  14.282  14.741
88122SOL    HW166205   6.140  14.210  14.713
88122SOL    HW266206   6.139  14.359  14.743
88123SOL     OW66207   7.113   2.209   4.907
88123SOL    HW166208   7.102   2.291   4.859
88123SOL    HW266209   7.070   2.143   4.853
88124SOL     OW66210   2.286  13.646   4.076
88124SOL    HW166211   2.292  13.674   3.984
88124SOL    HW266212   2.368  13.675   4.115
88125SOL     OW66213   8.236  13.226  10.296
88125SOL    HW166214   8.310  13.166  10.293
88125SOL    HW266215   8.161  13.173  10.267
88126SOL     OW66216  11.698   3.320   5.855
88126SOL    HW166217  11.667   3.255   5.918
88126SOL    HW266218  11.646   3.398   5.873
88127SOL     OW66219  11.808   2.737  11.721
88127SOL    HW166220  11.823   2.820  11.677
88127SOL    HW266221  11.815   2.671  11.652
88128SOL     OW66222  14.634   3.961  13.303
88128SOL    HW166223  14.639   4.054  13.278
88128SOL    HW266224  14.722   3.939  13.331
88129SOL     OW66225   9.411  10.812  10.317
88129SOL    HW166226   9.325  10.782  10.289
88129SOL    HW266227   9.395  10.897  10.357
88130SOL     OW66228   4.660   1.820  14.612
88130SOL    HW166229   4.577   1.862  14.631
88130SOL    HW266230   4.655   1.794  14.521
88131SOL     OW66231   4.941   2.147   0.855
88131SOL    HW166232   4.961   2.239   0.872
88131SOL    HW266233   4.993   2.126   0.778
88132SOL     OW66234  11.635   7.269  14.621
88132SOL    HW166235  11.642   7.210  14.696
88132SOL    HW266236  11.585   7.344  14.654
88133SOL     OW66237   6.623   0.627   5.543
88133SOL    HW166238   6.577   0.704   5.511
88133SOL    HW266239   6.673   0.658   5.619
88134SOL     OW66240   1.901   8.570   9.909
88134SOL    HW166241   1.944   8.562   9.824
88134SOL    HW266242   1.863   8.658   9.908
88135SOL     OW66243   2.646   1.224  10.575
88135SOL    HW166244   2.654   1.249  10.666
88135SOL    HW266245   2.735   1.204  10.547
88136SOL     OW66246   6.262   1.916   8.039
88136SOL    HW166247   6.204   1.991   8.052
88136SOL    HW266248   6.205   1.840   8.051
88137SOL     OW66249  10.157   2.533   8.247
88137SOL    HW166250  10.070   2.556   8.282
88137SOL    HW266251  10.191   2.616   8.213
88138SOL     OW66252   2.667   1.080   0.397
88138SOL    HW166253   2.760   1.058   0.405
88138SOL    HW266254   2.628   1.047   0.478
88139SOL     OW66255   6.031   9.280   1.313
88139SOL    HW166256   6.056   9.369   1.337
88139SOL    HW266257   6.108   9.245   1.268
88140SOL     OW66258   8.139   9.671   3.688
88140SOL    HW166259   8.119   9.694   3.597
88140SOL    HW266260   8.148   9.575   3.687
88141SOL     OW66261   6.219   8.223   6.699
88141SOL    HW166262   6.298   8.169   6.697
88141SOL    HW266263   6.168   8.189   6.772
88142SOL     OW66264  12.973  14.386   6.229
88142SOL    HW166265  12.978  14.480   6.213
88142SOL    HW266266  13.029  14.371   6.304
88143SOL     OW66267   5.862   9.789   2.201
88143SOL    HW166268   5.950   9.790   2.163
88143SOL    HW266269   5.806   9.754   2.131
88144SOL     OW66270   0.115   8.379   8.774
88144SOL    HW166271   0.082   8.378   8.864
88144SOL    HW266272   0.198   8.331   8.779
88145SOL     OW66273   6.112   7.171  13.848
88145SOL    HW166274   6.146   7.245  13.798
88145SOL    HW266275   6.020   7.165  13.821
88146SOL     OW66276   1.151  13.993  14.543
88146SOL    HW166277   1.212  13.952  14.604
88146SOL    HW266278   1.173  14.086  14.546
88147SOL     OW66279  11.929   1.619   1.363
88147SOL    HW166280  11.895   1.577   1.285
88147SOL    HW266281  11.939   1.549   1.427
88148SOL     OW66282  11.761   7.812   9.244
88148SOL    HW166283  11.685   7.759   9.265
88148SOL    HW266284  11.792   7.845   9.329
88149SOL     OW66285  12.098  11.711   5.134
88149SOL    HW166286  12.115  11.630   5.085
88149SOL    HW266287  12.133  11.780   5.079
88150SOL     OW66288  10.786  10.800  10.353
88150SOL    HW166289  10.717  10.833  10.295
88150SOL    HW266290  10.793  10.707  10.330
88151SOL     OW66291  14.498   1.092   8.350
88151SOL    HW166292  14.465   1.057   8.267
88151SOL    HW266293  14.575   1.143   8.325
88152SOL     OW66294   5.197   6.076   8.116
88152SOL    HW166295   5.264   6.059   8.182
88152SOL    HW266296   5.115   6.080   8.166
88153SOL     OW66297   8.994  12.198   2.333
88153SOL    HW166298   8.951  12.167   2.253
88153SOL    HW266299   9.088  12.196   2.312
88154SOL     OW66300   5.664  12.362   6.600
88154SOL    HW166301   5.719  12.330   6.671
88154SOL    HW266302   5.594  12.412   6.643
88155SOL     OW66303   0.942   0.246  10.025
88155SOL    HW166304   0.886   0.291  10.089
88155SOL    HW266305   1.023   0.229  10.072
88156SOL     OW66306   7.713  10.707   9.946
88156SOL    HW166307   7.627  10.671   9.965
88156SOL    HW266308   7.710  10.729   9.853
88157SOL     OW66309   2.098  10.160   6.616
88157SOL    HW166310   2.167  10.142   6.680
88157SOL    HW266311   2.064  10.246   6.642
88158SOL     OW66312   5.725   1.682  10.820
88158SOL    HW166313   5.642   1.637  10.836
88158SOL    HW266314   5.755   1.709  10.906
88159SOL     OW66315   6.498   9.247   0.031
88159SOL    HW166316   6.423   9.216   0.083
88159SOL    HW266317   6.495   9.196  14.833
88160SOL     OW66318  13.121   9.428   4.631
88160SOL    HW166319  13.191   9.480   4.591
88160SOL    HW266320  13.117   9.348   4.579
88161SOL     OW66321   2.684   4.289  12.299
88161SOL    HW166322   2.696   4.378  12.332
88161SOL    HW266323   2.763   4.270  12.249
88162SOL     OW66324   4.887  13.404   2.517
88162SOL    HW166325   4.884  13.356   2.434
88162SOL    HW266326   4.796  13.430   2.532
88163SOL     OW66327   7.566   1.073   1.469
88163SOL    HW166328   7.653   1.041   1.445
88163SOL    HW266329   7.506   1.007   1.435
88164SOL     OW66330   9.509  13.938   8.456
88164SOL    HW166331   9.512  13.884   8.535
88164SOL    HW266332   9.422  13.921   8.419
88165SOL     OW66333   6.547  13.556   6.025
88165SOL    HW166334   6.499  13.626   5.981
88165SOL    HW266335   6.639  13.571   6.002
88166SOL     OW66336   0.865   9.729   4.323
88166SOL    HW166337   0.950   9.739   4.367
88166SOL    HW266338   0.865   9.639   4.291
88167SOL     OW66339   1.319   4.665  10.657
88167SOL    HW166340   1.277   4.664  10.743
88167SOL    HW266341   1.293   4.582  10.617
88168SOL     OW66342  13.544  11.675   2.401
88168SOL    HW166343  13.568  11.669   2.493
88168SOL    HW266344  13.563  11.766   2.377
88169SOL     OW66345   4.649   1.735   4.061
88169SOL    HW166346   4.605   1.811   4.098
88169SOL    HW266347   4.670   1.761   3.971
88170SOL     OW66348   0.800  11.728   0.690
88170SOL    HW166349   0.830  11.639   0.704
88170SOL    HW266350   0.748  11.724   0.610
88171SOL     OW66351   5.883   6.240  10.452
88171SOL    HW166352   5.792   6.263  10.469
88171SOL    HW266353   5.918   6.216  10.538
88172SOL     OW66354   6.689  10.479   4.673
88172SOL    HW166355   6.655  10.430   4.597
88172SOL    HW266356   6.709  10.411   4.738
88173SOL     OW66357  11.824  14.182   8.464
88173SOL    HW166358  11.850  14.272   8.486
88173SOL    HW266359  11.784  14.189   8.377
88174SOL     OW66360  10.552   3.172   8.750
88174SOL    HW166361  10.560   3.163   8.845
88174SOL    HW266362  10.464   3.208   8.737
88175SOL     OW66363  13.929   2.768   8.906
88175SOL    HW166364  13.840   2.763   8.941
88175SOL    HW266365  13.918   2.779   8.811
88176SOL     OW66366   5.391   1.941   7.647
88176SOL    HW166367   5.310   1.899   7.617
88176SOL    HW266368   5.461   1.888   7.609
88177SOL     OW66369   9.108  13.122  10.800
88177SOL    HW166370   9.179  13.186  10.805
88177SOL    HW266371   9.072  13.132  10.712
88178SOL     OW66372  14.273   1.888  12.319
88178SOL    HW166373  14.282   1.956  12.386
88178SOL    HW266374  14.207   1.922  12.259
88179SOL     OW66375   2.059   0.623   7.754
88179SOL    HW166376   2.065   0.575   7.671
88179SOL    HW266377   2.130   0.688   7.749
88180SOL     OW66378   8.894   1.534   5.304
88180SOL    HW166379   8.980   1.496   5.287
88180SOL    HW266380   8.873   1.585   5.226
88181SOL     OW66381   6.394   0.180   7.962
88181SOL    HW166382   6.440   0.097   7.953
88181SOL    HW266383   6.448   0.244   7.916
88182SOL     OW66384   9.075   8.036   9.374
88182SOL    HW166385   9.123   8.002   9.299
88182SOL    HW266386   9.028   8.112   9.341
88183SOL     OW66387   9.772  12.101   3.839
88183SOL    HW166388   9.750  12.047   3.764
88183SOL    HW266389   9.688  12.117   3.883
88184SOL     OW66390   9.545   8.119   6.830
88184SOL    HW166391   9.534   8.083   6.742
88184SOL    HW266392   9.618   8.069   6.868
88185SOL     OW66393   2.324   0.004  11.704
88185SOL    HW166394   2.328  14.791  11.702
88185SOL    HW266395   2.322   0.026  11.798
88186SOL     OW66396   6.069  13.401  12.968
88186SOL    HW166397   6.045  13.485  13.007
88186SOL    HW266398   6.003  13.340  13.001
88187SOL     OW66399  12.129   8.228   9.300
88187SOL    HW166400  12.151   8.192   9.214
88187SOL    HW266401  12.213   8.231   9.347
88188SOL     OW66402   4.630   0.101  12.335
88188SOL    HW166403   4.612   0.041  12.407
88188SOL    HW266404   4.544   0.130  12.305
88189SOL     OW66405   2.975   1.814   4.523
88189SOL    HW166406   2.955   1.741   4.581
88189SOL    HW266407   2.954   1.892   4.574
88190SOL     OW66408  14.349  10.059   2.632
88190SOL    HW166409  14.373  10.152   2.636
88190SOL    HW266410  14.358  10.036   2.540
88191SOL     OW66411   5.924   2.312  14.148
88191SOL    HW166412   5.861   2.276  14.086
88191SOL    HW266413   5.964   2.235  14.189
88192SOL     OW66414   5.731   0.922  13.420
88192SOL    HW166415   5.787   0.885  13.352
88192SOL    HW266416   5.765   0.885  13.501
88193SOL     OW66417   5.765  14.572   3.649
88193SOL    HW166418   5.780  14.479   3.663
88193SOL    HW266419   5.838  14.615   3.694
88194SOL     OW66420   5.281   9.075  13.656
88194SOL    HW166421   5.326   9.048  13.737
88194SOL    HW266422   5.214   9.008  13.642
88195SOL     OW66423   4.830  12.450   1.849
88195SOL    HW166424   4.914  12.488   1.875
88195SOL    HW266425   4.819  12.375   1.907
88196SOL     OW66426  13.056   6.906   3.587
88196SOL    HW166427  12.972   6.865   3.565
88196SOL    HW266428  13.105   6.837   3.632
88197SOL     OW66429   2.594  13.692   4.478
88197SOL    HW166430   2.550  13.709   4.561
88197SOL    HW266431   2.683  13.725   4.490
88198SOL     OW66432  13.136  12.951  13.164
88198SOL    HW166433  13.202  12.889  13.133
88198SOL    HW266434  13.119  12.926  13.255
88199SOL     OW66435   1.495   5.944  12.230
88199SOL    HW166436   1.517   5.981  12.315
88199SOL    HW266437   1.490   5.850  12.245
88200SOL     OW66438  12.892  14.219   9.685
88200SOL    HW166439  12.947  14.297   9.680
88200SOL    HW266440  12.821  14.237   9.622
88201SOL     OW66441   7.831   7.501   3.503
88201SOL    HW166442   7.843   7.487   3.597
88201SOL    HW266443   7.757   7.446   3.479
88202SOL     OW66444   7.593   6.655   2.633
88202SOL    HW166445   7.549   6.696   2.707
88202SOL    HW266446   7.655   6.593   2.673
88203SOL     OW66447   7.519   8.256  12.663
88203SOL    HW166448   7.571   8.197  12.717
88203SOL    HW266449   7.580   8.289  12.597
88204SOL     OW66450  13.298   5.352   6.058
88204SOL    HW166451  13.331   5.304   6.135
88204SOL    HW266452  13.221   5.398   6.091
88205SOL     OW66453   4.716   5.456   2.955
88205SOL    HW166454   4.674   5.515   2.892
88205SOL    HW266455   4.717   5.505   3.037
88206SOL     OW66456   7.313   4.114   9.525
88206SOL    HW166457   7.295   4.023   9.547
88206SOL    HW266458   7.246   4.164   9.573
88207SOL     OW66459   1.228   5.834   0.172
88207SOL    HW166460   1.307   5.867   0.129
88207SOL    HW266461   1.194   5.909   0.221
88208SOL     OW66462   5.345   1.273   0.916
88208SOL    HW166463   5.328   1.179   0.913
88208SOL    HW266464   5.347   1.299   0.824
88209SOL     OW66465   1.996   5.319  13.830
88209SOL    HW166466   2.018   5.259  13.758
88209SOL    HW266467   2.060   5.300  13.898
88210SOL     OW66468  14.629  10.266  11.963
88210SOL    HW166469  14.625  10.248  12.057
88210SOL    HW266470  14.715  10.233  11.936
88211SOL     OW66471   2.951  13.487   2.346
88211SOL    HW166472   2.953  13.517   2.255
88211SOL    HW266473   2.971  13.394   2.342
88212SOL     OW66474  12.678  13.665  13.564
88212SOL    HW166475  12.730  13.621  13.497
88212SOL    HW266476  12.668  13.599  13.633
88213SOL     OW66477   2.861  10.771   1.746
88213SOL    HW166478   2.818  10.696   1.788
88213SOL    HW266479   2.953  10.759   1.766
88214SOL     OW66480  10.421  12.060   5.867
88214SOL    HW166481  10.330  12.054   5.894
88214SOL    HW266482  10.427  12.006   5.788
88215SOL     OW66483  13.297  10.940   9.015
88215SOL    HW166484  13.288  11.017   9.071
88215SOL    HW266485  13.208  10.922   8.984
88216SOL     OW66486   6.069   4.997   6.525
88216SOL    HW166487   5.999   5.063   6.526
88216SOL    HW266488   6.031   4.921   6.567
88217SOL     OW66489   7.484   5.698   0.194
88217SOL    HW166490   7.449   5.640   0.127
88217SOL    HW266491   7.546   5.644   0.244
88218SOL     OW66492   6.084   8.126  10.055
88218SOL    HW166493   6.106   8.113  10.147
88218SOL    HW266494   6.156   8.177  10.019
88219SOL     OW66495  12.867   1.759  13.766
88219SOL    HW166496  12.862   1.823  13.837
88219SOL    HW266497  12.890   1.677  13.809
88220SOL     OW66498  13.891  11.841   2.868
88220SOL    HW166499  13.911  11.806   2.955
88220SOL    HW266500  13.795  11.843   2.864
88221SOL     OW66501   6.836   5.306   1.808
88221SOL    HW166502   6.877   5.222   1.792
88221SOL    HW266503   6.815   5.340   1.721
88222SOL     OW66504   5.954   1.605  10.671
88222SOL    HW166505   5.938   1.674  10.606
88222SOL    HW266506   5.877   1.607  10.728
88223SOL     OW66507   9.319  14.426   1.328
88223SOL    HW166508   9.404  14.421   1.285
88223SOL    HW266509   9.290  14.516   1.312
88224SOL     OW66510   0.585   8.381   0.728
88224SOL    HW166511   0.637   8.429   0.792
88224SOL    HW266512   0.502   8.364   0.772
88225SOL     OW66513   1.547   3.131  12.619
88225SOL    HW166514   1.512   3.183  12.548
88225SOL    HW266515   1.634   3.104  12.589
88226SOL     OW66516   6.462  11.211   4.929
88226SOL    HW166517   6.444  11.170   5.014
88226SOL    HW266518   6.496  11.140   4.875
88227SOL     OW66519   3.309   5.957   1.395
88227SOL    HW166520   3.389   5.932   1.349
88227SOL    HW266521   3.289   6.045   1.362
88228SOL     OW66522   2.059  11.502   5.903
88228SOL    HW166523   2.017  11.417   5.890
88228SOL    HW266524   2.067  11.511   5.998
88229SOL     OW66525  12.678   0.993   1.360
88229SOL    HW166526  12.619   0.919   1.342
88229SOL    HW266527  12.712   0.976   1.448
88230SOL     OW66528   7.540  10.745   4.038
88230SOL    HW166529   7.490  10.750   4.119
88230SOL    HW266530   7.611  10.808   4.050
88231SOL     OW66531  12.528   9.151  11.855
88231SOL    HW166532  12.508   9.058  11.866
88231SOL    HW266533  12.587   9.172  11.927
88232SOL     OW66534  13.364   2.097   1.771
88232SOL    HW166535  13.458   2.108   1.779
88232SOL    HW266536  13.336   2.170   1.715
88233SOL     OW66537   7.551   9.942   8.323
88233SOL    HW166538   7.455   9.939   8.324
88233SOL    HW266539   7.577   9.904   8.407
88234SOL     OW66540   3.459   5.080  10.159
88234SOL    HW166541   3.408   5.088  10.239
88234SOL    HW266542   3.417   5.139  10.097
88235SOL     OW66543  11.463  10.405  13.156
88235SOL    HW166544  11.486  10.432  13.067
88235SOL    HW266545  11.539  10.429  13.209
88236SOL     OW66546   3.003   4.676   0.230
88236SOL    HW166547   2.921   4.659   0.182
88236SOL    HW266548   3.071   4.635   0.177
88237SOL     OW66549   3.568   6.977  10.576
88237SOL    HW166550   3.566   7.072  10.565
88237SOL    HW266551   3.630   6.946  10.510
88238SOL     OW66552   9.986   7.529   4.427
88238SOL    HW166553   9.946   7.601   4.377
88238SOL    HW266554   9.963   7.450   4.378
88239SOL     OW66555   5.958   1.660   1.587
88239SOL    HW166556   6.036   1.623   1.628
88239SOL    HW266557   5.934   1.733   1.644
88240SOL     OW66558   6.005   8.284   1.552
88240SOL    HW166559   5.996   8.370   1.592
88240SOL    HW266560   6.097   8.278   1.529
88241SOL     OW66561   6.945   3.227   7.182
88241SOL    HW166562   6.994   3.307   7.200
88241SOL    HW266563   6.965   3.206   7.091
88242SOL     OW66564   6.596   9.147   9.473
88242SOL    HW166565   6.667   9.132   9.535
88242SOL    HW266566   6.591   9.066   9.422
88243SOL     OW66567   0.049   5.514  10.780
88243SOL    HW166568   0.125   5.504  10.722
88243SOL    HW266569  14.876   5.580  10.736
88244SOL     OW66570   7.169   6.483   9.099
88244SOL    HW166571   7.235   6.456   9.036
88244SOL    HW266572   7.197   6.570   9.127
88245SOL     OW66573  11.022   8.495   2.896
88245SOL    HW166574  11.004   8.455   2.981
88245SOL    HW266575  11.069   8.427   2.848
88246SOL     OW66576   7.007   8.892  11.404
88246SOL    HW166577   6.968   8.869  11.320
88246SOL    HW266578   6.950   8.962  11.438
88247SOL     OW66579   8.530   5.782   2.802
88247SOL    HW166580   8.562   5.872   2.792
88247SOL    HW266581   8.460   5.775   2.737
88248SOL     OW66582   5.523  14.478   8.893
88248SOL    HW166583   5.539  14.572   8.890
88248SOL    HW266584   5.475  14.459   8.812
88249SOL     OW66585   5.547  13.123  12.906
88249SOL    HW166586   5.563  13.123  13.001
88249SOL    HW266587   5.476  13.187  12.894
88250SOL     OW66588   5.563   1.258   9.121
88250SOL    HW166589   5.636   1.308   9.087
88250SOL    HW266590   5.577   1.169   9.088
88251SOL     OW66591  13.840   4.587   2.219
88251SOL    HW166592  13.911   4.652   2.224
88251SOL    HW266593  13.782   4.611   2.291
88252SOL     OW66594   3.203  10.917   6.821
88252SOL    HW166595   3.265  10.956   6.759
88252SOL    HW266596   3.190  10.828   6.788
88253SOL     OW66597   8.583   8.896   7.408
88253SOL    HW166598   8.631   8.881   7.326
88253SOL    HW266599   8.649   8.885   7.476
88254SOL     OW66600   6.280   0.126   7.149
88254SOL    HW166601   6.189   0.156   7.148
88254SOL    HW266602   6.281   0.049   7.091
88255SOL     OW66603   3.342   8.234  11.708
88255SOL    HW166604   3.435   8.219  11.687
88255SOL    HW266605   3.296   8.205  11.630
88256SOL     OW66606   3.465   5.779   2.987
88256SOL    HW166607   3.444   5.861   2.942
88256SOL    HW266608   3.394   5.768   3.051
88257SOL     OW66609  10.421   7.923  11.556
88257SOL    HW166610  10.464   8.009  11.563
88257SOL    HW266611  10.478   7.864  11.606
88258SOL     OW66612   9.070   9.009   3.780
88258SOL    HW166613   9.069   8.972   3.868
88258SOL    HW266614   9.049   8.935   3.723
88259SOL     OW66615   7.250   0.614   7.409
88259SOL    HW166616   7.246   0.541   7.347
88259SOL    HW266617   7.314   0.587   7.475
88260SOL     OW66618   9.992   3.393  10.719
88260SOL    HW166619  10.040   3.403  10.636
88260SOL    HW266620  10.054   3.422  10.786
88261SOL     OW66621  11.559   1.286  10.160
88261SOL    HW166622  11.607   1.237  10.094
88261SOL    HW266623  11.620   1.354  10.189
88262SOL     OW66624  12.779   0.403  14.403
88262SOL    HW166625  12.772   0.375  14.312
88262SOL    HW266626  12.768   0.498  14.400
88263SOL     OW66627   6.258   6.995   3.080
88263SOL    HW166628   6.257   6.966   2.989
88263SOL    HW266629   6.282   6.918   3.131
88264SOL     OW66630   2.755   6.021   5.284
88264SOL    HW166631   2.843   6.024   5.248
88264SOL    HW266632   2.699   5.997   5.210
88265SOL     OW66633   0.490  12.912  14.814
88265SOL    HW166634   0.453  12.885  14.730
88265SOL    HW266635   0.573  12.864  14.821
88266SOL     OW66636   9.428   5.651  11.153
88266SOL    HW166637   9.455   5.561  11.173
88266SOL    HW266638   9.474   5.672  11.071
88267SOL     OW66639   3.472   9.473  13.263
88267SOL    HW166640   3.393   9.425  13.287
88267SOL    HW266641   3.525   9.410  13.214
88268SOL     OW66642  13.964   6.756  11.257
88268SOL    HW166643  14.055   6.731  11.268
88268SOL    HW266644  13.918   6.715  11.330
88269SOL     OW66645   3.901  12.099   2.172
88269SOL    HW166646   3.825  12.048   2.146
88269SOL    HW266647   3.898  12.177   2.115
88270SOL     OW66648  12.221   7.223   2.558
88270SOL    HW166649  12.128   7.204   2.570
88270SOL    HW266650  12.225   7.268   2.474
88271SOL     OW66651   8.628  10.110   8.863
88271SOL    HW166652   8.658  10.198   8.838
88271SOL    HW266653   8.546  10.126   8.910
88272SOL     OW66654  11.574   3.503   9.406
88272SOL    HW166655  11.633   3.572   9.438
88272SOL    HW266656  11.629   3.425   9.401
88273SOL     OW66657   6.791  12.360   2.186
88273SOL    HW166658   6.821  12.300   2.254
88273SOL    HW266659   6.696  12.364   2.199
88274SOL     OW66660   1.704   9.423  11.273
88274SOL    HW166661   1.760   9.481  11.324
88274SOL    HW266662   1.764   9.372  11.219
88275SOL     OW66663   9.226  13.990   1.518
88275SOL    HW166664   9.247  13.906   1.478
88275SOL    HW266665   9.158  13.970   1.583
88276SOL     OW66666   7.456   4.191   5.009
88276SOL    HW166667   7.506   4.114   5.038
88276SOL    HW266668   7.379   4.155   4.967
88277SOL     OW66669  14.478   7.736  14.488
88277SOL    HW166670  14.427   7.809  14.524
88277SOL    HW266671  14.458   7.737  14.394
88278SOL     OW66672   3.044  12.668   0.317
88278SOL    HW166673   3.025  12.739   0.378
88278SOL    HW266674   3.049  12.711   0.231
88279SOL     OW66675   7.337   5.846   9.147
88279SOL    HW166676   7.270   5.904   9.113
88279SOL    HW266677   7.416   5.868   9.098
88280SOL     OW66678  13.549   1.308   0.792
88280SOL    HW166679  13.615   1.369   0.824
88280SOL    HW266680  13.500   1.283   0.870
88281SOL     OW66681  11.354   6.497   5.493
88281SOL    HW166682  11.400   6.537   5.567
88281SOL    HW266683  11.403   6.526   5.416
88282SOL     OW66684  11.349  11.935   7.428
88282SOL    HW166685  11.344  11.991   7.351
88282SOL    HW266686  11.351  11.846   7.394
88283SOL     OW66687   0.147   4.562  12.616
88283SOL    HW166688   0.096   4.481  12.626
88283SOL    HW266689   0.138   4.607  12.700
88284SOL     OW66690   5.614   0.982   3.901
88284SOL    HW166691   5.559   0.904   3.895
88284SOL    HW266692   5.596   1.030   3.820
88285SOL     OW66693   1.453   4.809   6.659
88285SOL    HW166694   1.513   4.762   6.717
88285SOL    HW266695   1.484   4.900   6.661
88286SOL     OW66696   4.483   2.015   8.388
88286SOL    HW166697   4.452   2.083   8.327
88286SOL    HW266698   4.419   2.017   8.460
88287SOL     OW66699   8.706   9.048   8.073
88287SOL    HW166700   8.762   9.000   8.134
88287SOL    HW266701   8.618   9.010   8.086
88288SOL     OW66702  11.830   2.253  13.796
88288SOL    HW166703  11.851   2.272  13.887
88288SOL    HW266704  11.808   2.338  13.758
88289SOL     OW66705  12.254   3.475   1.207
88289SOL    HW166706  12.279   3.399   1.259
88289SOL    HW266707  12.159   3.480   1.216
88290SOL     OW66708   4.636   9.598  12.099
88290SOL    HW166709   4.717   9.600  12.048
88290SOL    HW266710   4.613   9.690  12.111
88291SOL     OW66711   1.754   8.748   3.492
88291SOL    HW166712   1.838   8.702   3.485
88291SOL    HW266713   1.691   8.681   3.518
88292SOL     OW66714  11.365   0.064   4.409
88292SOL    HW166715  11.408   0.091   4.490
88292SOL    HW266716  11.271   0.073   4.428
88293SOL     OW66717  12.205   1.380  14.783
88293SOL    HW166718  12.263   1.372  14.859
88293SOL    HW266719  12.215   1.471  14.755
88294SOL     OW66720  10.819   9.216   4.858
88294SOL    HW166721  10.888   9.154   4.880
88294SOL    HW266722  10.769   9.173   4.789
88295SOL     OW66723   1.020  10.647   1.278
88295SOL    HW166724   1.028  10.595   1.198
88295SOL    HW266725   0.942  10.701   1.264
88296SOL     OW66726   0.483  10.558   5.733
88296SOL    HW166727   0.435  10.476   5.726
88296SOL    HW266728   0.515  10.560   5.823
88297SOL     OW66729  10.166  11.128  12.659
88297SOL    HW166730  10.116  11.047  12.653
88297SOL    HW266731  10.194  11.132  12.751
88298SOL     OW66732  12.067   0.817   0.389
88298SOL    HW166733  11.982   0.816   0.345
88298SOL    HW266734  12.093   0.909   0.390
88299SOL     OW66735  13.738  11.845   4.699
88299SOL    HW166736  13.727  11.751   4.712
88299SOL    HW266737  13.783  11.853   4.615
88300SOL     OW66738   4.139   1.111   5.499
88300SOL    HW166739   4.173   1.201   5.496
88300SOL    HW266740   4.148   1.085   5.590
88301SOL     OW66741   8.955   6.870  13.631
88301SOL    HW166742   8.953   6.794  13.689
88301SOL    HW266743   8.900   6.845  13.557
88302SOL     OW66744  11.280   4.062  13.249
88302SOL    HW166745  11.305   4.090  13.161
88302SOL    HW266746  11.253   4.143  13.293
88303SOL     OW66747   0.766   0.358   9.117
88303SOL    HW166748   0.744   0.415   9.191
88303SOL    HW266749   0.841   0.400   9.075
88304SOL     OW66750   0.252   6.861  13.253
88304SOL    HW166751   0.246   6.765  13.247
88304SOL    HW266752   0.223   6.880  13.342
88305SOL     OW66753  10.144   2.537   7.822
88305SOL    HW166754  10.061   2.530   7.774
88305SOL    HW266755  10.204   2.478   7.776
88306SOL     OW66756  11.491  12.781   5.679
88306SOL    HW166757  11.492  12.874   5.657
88306SOL    HW266758  11.530  12.776   5.767
88307SOL     OW66759   9.300   9.265   9.795
88307SOL    HW166760   9.270   9.308   9.875
88307SOL    HW266761   9.241   9.298   9.727
88308SOL     OW66762   5.431   4.036   5.409
88308SOL    HW166763   5.361   3.988   5.364
88308SOL    HW266764   5.511   4.008   5.366
88309SOL     OW66765   0.185   8.490   2.143
88309SOL    HW166766   0.170   8.583   2.126
88309SOL    HW266767   0.223   8.487   2.231
88310SOL     OW66768   8.027   3.227  13.482
88310SOL    HW166769   8.113   3.186  13.487
88310SOL    HW266770   8.030   3.280  13.402
88311SOL     OW66771   4.260  12.157   8.137
88311SOL    HW166772   4.167  12.141   8.149
88311SOL    HW266773   4.274  12.149   8.043
88312SOL     OW66774   5.002  12.504   7.792
88312SOL    HW166775   4.931  12.567   7.799
88312SOL    HW266776   5.033  12.512   7.702
88313SOL     OW66777  13.068  14.399   8.314
88313SOL    HW166778  13.060  14.331   8.248
88313SOL    HW266779  13.023  14.475   8.277
88314SOL     OW66780   8.838  12.582   9.474
88314SOL    HW166781   8.865  12.491   9.489
88314SOL    HW266782   8.879  12.605   9.391
88315SOL     OW66783   6.218   0.636   2.651
88315SOL    HW166784   6.161   0.690   2.706
88315SOL    HW266785   6.307   0.661   2.675
88316SOL     OW66786   1.506  11.694   3.872
88316SOL    HW166787   1.488  11.788   3.881
88316SOL    HW266788   1.539  11.668   3.958
88317SOL     OW66789   0.306   1.282   2.110
88317SOL    HW166790   0.344   1.259   2.025
88317SOL    HW266791   0.354   1.361   2.137
88318SOL     OW66792   4.669   7.780   3.660
88318SOL    HW166793   4.582   7.743   3.672
88318SOL    HW266794   4.725   7.731   3.721
88319SOL     OW66795   0.162   2.584   4.293
88319SOL    HW166796   0.131   2.673   4.276
88319SOL    HW266797   0.245   2.596   4.340
88320SOL     OW66798  14.099   9.970  14.547
88320SOL    HW166799  14.065   9.934  14.465
88320SOL    HW266800  14.029  10.026  14.580
88321SOL     OW66801  12.091   4.472   6.646
88321SOL    HW166802  12.183   4.445   6.655
88321SOL    HW266803  12.049   4.400   6.600
88322SOL     OW66804   8.825   0.705   5.641
88322SOL    HW166805   8.772   0.689   5.563
88322SOL    HW266806   8.879   0.780   5.618
88323SOL     OW66807   4.802   7.064   2.084
88323SOL    HW166808   4.890   7.066   2.047
88323SOL    HW266809   4.781   7.156   2.100
88324SOL     OW66810   7.821   3.708   4.492
88324SOL    HW166811   7.784   3.793   4.468
88324SOL    HW266812   7.915   3.718   4.478
88325SOL     OW66813   4.162   4.082  10.291
88325SOL    HW166814   4.200   3.994  10.294
88325SOL    HW266815   4.071   4.068  10.265
88326SOL     OW66816   7.140   2.023   6.313
88326SOL    HW166817   7.173   1.951   6.366
88326SOL    HW266818   7.175   2.102   6.356
88327SOL     OW66819  12.471  13.772   0.114
88327SOL    HW166820  12.409  13.772   0.187
88327SOL    HW266821  12.503  13.862   0.110
88328SOL     OW66822  13.808  11.635   4.212
88328SOL    HW166823  13.895  11.673   4.228
88328SOL    HW266824  13.807  11.555   4.265
88329SOL     OW66825  12.044  14.591   3.579
88329SOL    HW166826  12.092  14.565   3.500
88329SOL    HW266827  11.977  14.651   3.547
88330SOL     OW66828   5.956  11.604  12.398
88330SOL    HW166829   5.918  11.659  12.466
88330SOL    HW266830   5.946  11.515  12.431
88331SOL     OW66831   1.566  10.924  13.681
88331SOL    HW166832   1.487  10.950  13.730
88331SOL    HW266833   1.560  10.828  13.675
88332SOL     OW66834   8.034   3.183   0.160
88332SOL    HW166835   7.988   3.113   0.114
88332SOL    HW266836   7.966   3.231   0.206
88333SOL     OW66837   4.170   3.368   9.140
88333SOL    HW166838   4.102   3.421   9.180
88333SOL    HW266839   4.246   3.427   9.133
88334SOL     OW66840   6.408   3.457   5.192
88334SOL    HW166841   6.491   3.422   5.224
88334SOL    HW266842   6.361   3.380   5.159
88335SOL     OW66843   4.327  11.424  10.488
88335SOL    HW166844   4.393  11.362  10.459
88335SOL    HW266845   4.337  11.499  10.430
88336SOL     OW66846  14.330   3.803  12.113
88336SOL    HW166847  14.269   3.795  12.040
88336SOL    HW266848  14.334   3.715  12.151
88337SOL     OW66849  13.450   0.448   3.120
88337SOL    HW166850  13.367   0.469   3.163
88337SOL    HW266851  13.479   0.367   3.162
88338SOL     OW66852   0.341  10.872  14.497
88338SOL    HW166853   0.258  10.903  14.459
88338SOL    HW266854   0.323  10.782  14.523
88339SOL     OW66855   7.459  11.552  13.966
88339SOL    HW166856   7.379  11.579  14.012
88339SOL    HW266857   7.435  11.554  13.873
88340SOL     OW66858   7.105  11.552  10.721
88340SOL    HW166859   7.176  11.563  10.658
88340SOL    HW266860   7.025  11.566  10.670
88341SOL     OW66861   8.510  12.860   4.800
88341SOL    HW166862   8.416  12.846   4.805
88341SOL    HW266863   8.519  12.956   4.798
88342SOL     OW66864   3.644  12.511   9.587
88342SOL    HW166865   3.732  12.475   9.602
88342SOL    HW266866   3.631  12.502   9.493
88343SOL     OW66867   0.133  13.619   9.473
88343SOL    HW166868   0.116  13.711   9.451
88343SOL    HW266869   0.097  13.570   9.399
88344SOL     OW66870   4.385   5.333  13.160
88344SOL    HW166871   4.338   5.360  13.238
88344SOL    HW266872   4.458   5.281  13.192
88345SOL     OW66873   0.843   3.919   8.819
88345SOL    HW166874   0.770   3.905   8.879
88345SOL    HW266875   0.918   3.937   8.876
88346SOL     OW66876   8.477   6.001   7.635
88346SOL    HW166877   8.438   6.073   7.586
88346SOL    HW266878   8.567   5.996   7.603
88347SOL     OW66879  12.362   7.880   8.991
88347SOL    HW166880  12.407   7.897   8.909
88347SOL    HW266881  12.269   7.886   8.969
88348SOL     OW66882  11.551   6.710   9.881
88348SOL    HW166883  11.497   6.668   9.947
88348SOL    HW266884  11.489   6.735   9.812
88349SOL     OW66885   0.694   0.346   4.151
88349SOL    HW166886   0.763   0.283   4.172
88349SOL    HW266887   0.615   0.292   4.142
88350SOL     OW66888  11.016  10.229   7.128
88350SOL    HW166889  11.105  10.257   7.107
88350SOL    HW266890  10.968  10.241   7.046
88351SOL     OW66891   4.332   5.772   7.355
88351SOL    HW166892   4.323   5.863   7.328
88351SOL    HW266893   4.285   5.723   7.288
88352SOL     OW66894   1.112   5.701   1.485
88352SOL    HW166895   1.102   5.727   1.577
88352SOL    HW266896   1.171   5.625   1.488
88353SOL     OW66897   1.958   4.725  13.666
88353SOL    HW166898   1.865   4.718  13.644
88353SOL    HW266899   1.991   4.636  13.658
88354SOL     OW66900   0.737   6.048  11.222
88354SOL    HW166901   0.675   5.976  11.213
88354SOL    HW266902   0.770   6.063  11.133
88355SOL     OW66903   4.289  10.426   2.311
88355SOL    HW166904   4.226  10.417   2.383
88355SOL    HW266905   4.364  10.471   2.350
88356SOL     OW66906  14.432   2.808  11.951
88356SOL    HW166907  14.390   2.888  11.983
88356SOL    HW266908  14.382   2.737  11.994
88357SOL     OW66909   3.668  10.549   1.639
88357SOL    HW166910   3.623  10.468   1.659
88357SOL    HW266911   3.711  10.533   1.555
88358SOL     OW66912  11.754   6.177   1.247
88358SOL    HW166913  11.829   6.128   1.281
88358SOL    HW266914  11.793   6.252   1.202
88359SOL     OW66915   1.313   0.274   1.840
88359SOL    HW166916   1.262   0.282   1.760
88359SOL    HW266917   1.256   0.226   1.900
88360SOL     OW66918   2.448   5.616  12.368
88360SOL    HW166919   2.404   5.660  12.296
88360SOL    HW266920   2.396   5.537  12.383
88361SOL     OW66921   2.289   8.648   6.167
88361SOL    HW166922   2.225   8.719   6.158
88361SOL    HW266923   2.355   8.667   6.100
88362SOL     OW66924   1.694   2.091   8.403
88362SOL    HW166925   1.777   2.134   8.383
88362SOL    HW266926   1.645   2.093   8.321
88363SOL     OW66927   7.569   7.220   4.890
88363SOL    HW166928   7.507   7.193   4.822
88363SOL    HW266929   7.533   7.184   4.971
88364SOL     OW66930   3.217   0.139   4.786
88364SOL    HW166931   3.246   0.052   4.760
88364SOL    HW266932   3.287   0.172   4.843
88365SOL     OW66933  11.813   0.400   5.961
88365SOL    HW166934  11.753   0.462   5.920
88365SOL    HW266935  11.881   0.386   5.895
88366SOL     OW66936  10.456   5.590  12.511
88366SOL    HW166937  10.524   5.591  12.443
88366SOL    HW266938  10.379   5.556  12.467
88367SOL     OW66939   4.936  14.865  13.792
88367SOL    HW166940   4.971  14.861  13.704
88367SOL    HW266941   4.932  14.774  13.821
88368SOL     OW66942  13.839  11.093   4.597
88368SOL    HW166943  13.770  11.041   4.638
88368SOL    HW266944  13.920  11.049   4.623
88369SOL     OW66945  11.752  13.319  10.639
88369SOL    HW166946  11.731  13.296  10.729
88369SOL    HW266947  11.668  13.343  10.600
88370SOL     OW66948   2.924  10.056   7.523
88370SOL    HW166949   2.929  10.054   7.427
88370SOL    HW266950   3.009  10.092   7.550
88371SOL     OW66951   9.635  13.292   5.115
88371SOL    HW166952   9.653  13.204   5.083
88371SOL    HW266953   9.688  13.301   5.194
88372SOL     OW66954   2.277   7.780   4.154
88372SOL    HW166955   2.238   7.850   4.102
88372SOL    HW266956   2.311   7.718   4.089
88373SOL     OW66957   6.062   7.412  11.979
88373SOL    HW166958   6.113   7.391  12.057
88373SOL    HW266959   6.113   7.375  11.906
88374SOL     OW66960   6.807   0.495  11.532
88374SOL    HW166961   6.783   0.406  11.557
88374SOL    HW266962   6.900   0.502  11.554
88375SOL     OW66963   1.293   4.349   2.923
88375SOL    HW166964   1.261   4.393   2.845
88375SOL    HW266965   1.302   4.257   2.898
88376SOL     OW66966  11.117   0.385   4.114
88376SOL    HW166967  11.138   0.461   4.060
88376SOL    HW266968  11.195   0.373   4.169
88377SOL     OW66969   9.045  11.325   6.489
88377SOL    HW166970   9.120  11.344   6.545
88377SOL    HW266971   8.970  11.361   6.536
88378SOL     OW66972  12.116   2.382   2.712
88378SOL    HW166973  12.098   2.443   2.640
88378SOL    HW266974  12.038   2.385   2.766
88379SOL     OW66975   0.701  11.320  12.694
88379SOL    HW166976   0.718  11.354  12.606
88379SOL    HW266977   0.749  11.237  12.698
88380SOL     OW66978  14.108   2.952   2.913
88380SOL    HW166979  14.120   2.944   3.008
88380SOL    HW266980  14.180   2.902   2.876
88381SOL     OW66981   5.508   1.917   0.816
88381SOL    HW166982   5.506   1.995   0.761
88381SOL    HW266983   5.576   1.862   0.778
88382SOL     OW66984   5.377   6.928  12.272
88382SOL    HW166985   5.294   6.911  12.317
88382SOL    HW266986   5.351   6.962  12.187
88383SOL     OW66987   6.174  11.043   3.194
88383SOL    HW166988   6.245  11.049   3.130
88383SOL    HW266989   6.199  11.105   3.263
88384SOL     OW66990   7.394   6.683  14.405
88384SOL    HW166991   7.406   6.624  14.479
88384SOL    HW266992   7.382   6.625  14.330
88385SOL     OW66993  12.697   4.527  10.170
88385SOL    HW166994  12.719   4.518  10.263
88385SOL    HW266995  12.616   4.578  10.170
88386SOL     OW66996  11.196   6.585   6.260
88386SOL    HW166997  11.118   6.605   6.313
88386SOL    HW266998  11.231   6.671   6.237
88387SOL     OW66999  10.902   3.202  11.309
88387SOL    HW167000  10.843   3.199  11.234
88387SOL    HW267001  10.988   3.179  11.272
88388SOL     OW67002   7.443   6.171   3.652
88388SOL    HW167003   7.383   6.244   3.641
88388SOL    HW267004   7.389   6.100   3.687
88389SOL     OW67005  10.170   2.007  11.903
88389SOL    HW167006  10.110   2.080  11.887
88389SOL    HW267007  10.118   1.929  11.883
88390SOL     OW67008   7.722  14.701   0.800
88390SOL    HW167009   7.689  14.707   0.890
88390SOL    HW267010   7.817  14.705   0.810
88391SOL     OW67011   8.571   1.703  14.165
88391SOL    HW167012   8.609   1.765  14.103
88391SOL    HW267013   8.508   1.653  14.114
88392SOL     OW67014  10.999   4.963   8.132
88392SOL    HW167015  11.052   5.000   8.062
88392SOL    HW267016  10.913   5.004   8.120
88393SOL     OW67017   7.696   9.809  13.865
88393SOL    HW167018   7.669   9.772  13.781
88393SOL    HW267019   7.693   9.904  13.852
88394SOL     OW67020   2.817   6.529   8.516
88394SOL    HW167021   2.900   6.512   8.471
88394SOL    HW267022   2.771   6.446   8.513
88395SOL     OW67023   8.414  13.383   2.031
88395SOL    HW167024   8.461  13.420   1.956
88395SOL    HW267025   8.323  13.407   2.016
88396SOL     OW67026  13.241   4.382   5.510
88396SOL    HW167027  13.200   4.386   5.597
88396SOL    HW267028  13.308   4.450   5.512
88397SOL     OW67029   8.252  12.167   7.596
88397SOL    HW167030   8.211  12.087   7.631
88397SOL    HW267031   8.194  12.193   7.524
88398SOL     OW67032   9.300   0.926   5.967
88398SOL    HW167033   9.302   1.016   5.999
88398SOL    HW267034   9.322   0.873   6.044
88399SOL     OW67035   8.475   6.225  12.618
88399SOL    HW167036   8.466   6.181  12.533
88399SOL    HW267037   8.549   6.181  12.660
88400SOL     OW67038   0.608   0.920   1.564
88400SOL    HW167039   0.561   0.928   1.481
88400SOL    HW267040   0.613   1.010   1.598
88401SOL     OW67041   2.989   1.759   1.117
88401SOL    HW167042   3.061   1.754   1.054
88401SOL    HW267043   3.032   1.779   1.200
88402SOL     OW67044   9.942   7.605   2.483
88402SOL    HW167045   9.972   7.520   2.516
88402SOL    HW267046   9.847   7.593   2.470
88403SOL     OW67047  12.329   8.407   1.410
88403SOL    HW167048  12.337   8.487   1.357
88403SOL    HW267049  12.251   8.363   1.374
88404SOL     OW67050  12.183   5.077  12.590
88404SOL    HW167051  12.113   5.090  12.526
88404SOL    HW267052  12.207   4.985  12.580
88405SOL     OW67053   3.888   3.196   8.801
88405SOL    HW167054   3.939   3.162   8.873
88405SOL    HW267055   3.952   3.221   8.735
88406SOL     OW67056  10.000  13.715   5.089
88406SOL    HW167057  10.089  13.696   5.058
88406SOL    HW267058  10.013  13.752   5.177
88407SOL     OW67059   4.867   9.677  10.033
88407SOL    HW167060   4.874   9.763  10.075
88407SOL    HW267061   4.874   9.614  10.105
88408SOL     OW67062  10.489   1.663   7.766
88408SOL    HW167063  10.401   1.627   7.753
88408SOL    HW267064  10.499   1.729   7.698
88409SOL     OW67065   7.844  11.193  11.891
88409SOL    HW167066   7.766  11.144  11.917
88409SOL    HW267067   7.847  11.185  11.796
88410SOL     OW67068   5.255   0.086  14.454
88410SOL    HW167069   5.209   0.166  14.428
88410SOL    HW267070   5.193   0.015  14.437
88411SOL     OW67071   0.656  13.134  13.802
88411SOL    HW167072   0.672  13.039  13.796
88411SOL    HW267073   0.702  13.171  13.727
88412SOL     OW67074   8.707   8.185   8.422
88412SOL    HW167075   8.780   8.173   8.361
88412SOL    HW267076   8.654   8.106   8.414
88413SOL     OW67077   8.433  10.473   0.410
88413SOL    HW167078   8.523  10.498   0.389
88413SOL    HW267079   8.416  10.512   0.496
88414SOL     OW67080   7.051   3.671   8.382
88414SOL    HW167081   6.978   3.696   8.439
88414SOL    HW267082   7.098   3.604   8.432
88415SOL     OW67083   2.408  14.176  12.063
88415SOL    HW167084   2.466  14.170  12.138
88415SOL    HW267085   2.341  14.109  12.078
88416SOL     OW67086   8.562   8.128  13.557
88416SOL    HW167087   8.474   8.090  13.551
88416SOL    HW267088   8.611   8.066  13.610
88417SOL     OW67089  11.156   5.229  11.187
88417SOL    HW167090  11.095   5.281  11.134
88417SOL    HW267091  11.240   5.274  11.178
88418SOL     OW67092   2.169   4.146  12.143
88418SOL    HW167093   2.193   4.125  12.233
88418SOL    HW267094   2.095   4.087  12.123
88419SOL     OW67095  12.503  12.841  10.463
88419SOL    HW167096  12.544  12.845  10.550
88419SOL    HW267097  12.479  12.750  10.452
88420SOL     OW67098   5.736   4.180   3.295
88420SOL    HW167099   5.705   4.096   3.329
88420SOL    HW267100   5.703   4.182   3.205
88421SOL     OW67101  11.046  11.021   5.471
88421SOL    HW167102  11.044  11.068   5.554
88421SOL    HW267103  11.122  10.963   5.478
88422SOL     OW67104  13.824   4.177   0.138
88422SOL    HW167105  13.886   4.129   0.083
88422SOL    HW267106  13.745   4.123   0.137
88423SOL     OW67107   5.897   5.836   0.640
88423SOL    HW167108   5.925   5.800   0.556
88423SOL    HW267109   5.960   5.803   0.703
88424SOL     OW67110   5.138   1.203   1.674
88424SOL    HW167111   5.211   1.211   1.613
88424SOL    HW267112   5.178   1.176   1.756
88425SOL     OW67113  11.905   4.413   8.781
88425SOL    HW167114  11.889   4.502   8.748
88425SOL    HW267115  11.978   4.381   8.728
88426SOL     OW67116  13.144   9.258  11.745
88426SOL    HW167117  13.235   9.268  11.776
88426SOL    HW267118  13.092   9.306  11.810
88427SOL     OW67119  13.445   5.124  10.076
88427SOL    HW167120  13.507   5.051  10.063
88427SOL    HW267121  13.460   5.153  10.165
88428SOL     OW67122   2.484   6.007   6.514
88428SOL    HW167123   2.446   6.091   6.488
88428SOL    HW267124   2.421   5.941   6.484
88429SOL     OW67125  10.373  13.452  12.496
88429SOL    HW167126  10.281  13.477  12.507
88429SOL    HW267127  10.420  13.506  12.560
88430SOL     OW67128  10.489   2.000  10.100
88430SOL    HW167129  10.463   2.012  10.192
88430SOL    HW267130  10.557   1.933  10.104
88431SOL     OW67131   7.787  14.445   5.239
88431SOL    HW167132   7.855  14.495   5.193
88431SOL    HW267133   7.828  14.361   5.259
88432SOL     OW67134   7.343   4.386   2.348
88432SOL    HW167135   7.369   4.475   2.372
88432SOL    HW267136   7.339   4.387   2.252
88433SOL     OW67137   8.973  10.339  10.322
88433SOL    HW167138   8.915  10.360  10.396
88433SOL    HW267139   9.005  10.251  10.342
88434SOL     OW67140   3.400   7.231   4.171
88434SOL    HW167141   3.376   7.198   4.085
88434SOL    HW267142   3.380   7.325   4.167
88435SOL     OW67143  12.619   0.221   7.711
88435SOL    HW167144  12.688   0.250   7.652
88435SOL    HW267145  12.537   0.240   7.665
88436SOL     OW67146   5.237   9.163  10.261
88436SOL    HW167147   5.227   9.074  10.295
88436SOL    HW267148   5.148   9.193  10.245
88437SOL     OW67149  11.090   5.894   8.235
88437SOL    HW167150  11.076   5.944   8.154
88437SOL    HW267151  11.102   5.804   8.205
88438SOL     OW67152   2.373   5.095  14.204
88438SOL    HW167153   2.317   5.080  14.281
88438SOL    HW267154   2.431   5.166  14.230
88439SOL     OW67155  13.028  10.010   2.029
88439SOL    HW167156  13.088   9.937   2.048
88439SOL    HW267157  13.011  10.001   1.935
88440SOL     OW67158  14.389   6.695   4.536
88440SOL    HW167159  14.413   6.662   4.450
88440SOL    HW267160  14.341   6.776   4.518
88441SOL     OW67161  11.869  12.271  10.968
88441SOL    HW167162  11.788  12.282  10.919
88441SOL    HW267163  11.864  12.183  11.005
88442SOL     OW67164   6.284   9.160   0.181
88442SOL    HW167165   6.209   9.159   0.122
88442SOL    HW267166   6.253   9.117   0.261
88443SOL     OW67167   5.206   4.418   0.111
88443SOL    HW167168   5.275   4.429   0.176
88443SOL    HW267169   5.253   4.406   0.028
88444SOL     OW67170   8.473  10.858   0.629
88444SOL    HW167171   8.471  10.890   0.718
88444SOL    HW267172   8.559  10.815   0.621
88445SOL     OW67173  14.248   1.705   4.361
88445SOL    HW167174  14.231   1.734   4.450
88445SOL    HW267175  14.290   1.620   4.371
88446SOL     OW67176  12.689   6.157   0.359
88446SOL    HW167177  12.710   6.214   0.432
88446SOL    HW267178  12.757   6.089   0.360
88447SOL     OW67179   2.102   5.590  12.407
88447SOL    HW167180   2.041   5.566  12.338
88447SOL    HW267181   2.139   5.507  12.437
88448SOL     OW67182  13.828   1.591  14.423
88448SOL    HW167183  13.790   1.652  14.359
88448SOL    HW267184  13.755   1.569  14.481
88449SOL     OW67185   9.480   5.717  10.081
88449SOL    HW167186   9.559   5.662  10.083
88449SOL    HW267187   9.464   5.730   9.987
88450SOL     OW67188  12.487   8.780   1.784
88450SOL    HW167189  12.482   8.796   1.690
88450SOL    HW267190  12.580   8.762   1.801
88451SOL     OW67191   9.975  11.486   2.147
88451SOL    HW167192  10.045  11.457   2.205
88451SOL    HW267193   9.904  11.511   2.207
88452SOL     OW67194   9.860   4.370   5.086
88452SOL    HW167195   9.865   4.322   5.169
88452SOL    HW267196   9.949   4.366   5.051
88453SOL     OW67197   7.745   4.355   5.748
88453SOL    HW167198   7.781   4.267   5.739
88453SOL    HW267199   7.815   4.405   5.789
88454SOL     OW67200   3.918  13.292   5.271
88454SOL    HW167201   4.013  13.289   5.259
88454SOL    HW267202   3.883  13.312   5.184
88455SOL     OW67203  13.624   4.697   2.369
88455SOL    HW167204  13.605   4.786   2.341
88455SOL    HW267205  13.544   4.648   2.351
88456SOL     OW67206  12.948  10.168   6.876
88456SOL    HW167207  12.895  10.164   6.797
88456SOL    HW267208  12.888  10.194   6.945
88457SOL     OW67209   2.848  11.789   6.049
88457SOL    HW167210   2.845  11.694   6.048
88457SOL    HW267211   2.913  11.811   5.982
88458SOL     OW67212   9.978   5.103   1.367
88458SOL    HW167213   9.998   5.094   1.460
88458SOL    HW267214   9.889   5.139   1.365
88459SOL     OW67215  10.752   6.133   7.698
88459SOL    HW167216  10.803   6.107   7.774
88459SOL    HW267217  10.666   6.094   7.712
88460SOL     OW67218   4.295   2.128   0.055
88460SOL    HW167219   4.259   2.142   0.142
88460SOL    HW267220   4.390   2.126   0.067
88461SOL     OW67221   5.956  13.017  11.306
88461SOL    HW167222   6.009  12.950  11.349
88461SOL    HW267223   5.930  12.978  11.223
88462SOL     OW67224   9.977   4.378   2.267
88462SOL    HW167225   9.972   4.432   2.189
88462SOL    HW267226   9.957   4.289   2.236
88463SOL     OW67227  10.496   2.855   4.740
88463SOL    HW167228  10.449   2.895   4.814
88463SOL    HW267229  10.427   2.821   4.683
88464SOL     OW67230  14.822  12.890  12.231
88464SOL    HW167231   0.011  12.844  12.276
88464SOL    HW267232  14.856  12.905  12.143
88465SOL     OW67233  10.465  11.850   1.714
88465SOL    HW167234  10.444  11.926   1.769
88465SOL    HW267235  10.499  11.785   1.775
88466SOL     OW67236   8.677   5.326   6.844
88466SOL    HW167237   8.676   5.414   6.808
88466SOL    HW267238   8.667   5.269   6.768
88467SOL     OW67239   5.786  11.977   3.451
88467SOL    HW167240   5.765  12.045   3.515
88467SOL    HW267241   5.787  12.022   3.367
88468SOL     OW67242   5.087  12.912  10.491
88468SOL    HW167243   5.029  12.978  10.527
88468SOL    HW267244   5.098  12.848  10.562
88469SOL     OW67245  12.608   4.702   1.915
88469SOL    HW167246  12.687   4.675   1.867
88469SOL    HW267247  12.578   4.623   1.959
88470SOL     OW67248  11.249   4.041  12.597
88470SOL    HW167249  11.202   3.970  12.554
88470SOL    HW267250  11.270   4.103  12.526
88471SOL     OW67251   5.829  12.788   8.647
88471SOL    HW167252   5.770  12.749   8.712
88471SOL    HW267253   5.790  12.766   8.563
88472SOL     OW67254   9.581   2.607  11.703
88472SOL    HW167255   9.574   2.701  11.687
88472SOL    HW267256   9.652   2.578  11.647
88473SOL     OW67257   1.063   5.528  10.833
88473SOL    HW167258   0.979   5.567  10.854
88473SOL    HW267259   1.091   5.486  10.914
88474SOL     OW67260   6.262   1.236   6.493
88474SOL    HW167261   6.310   1.176   6.436
88474SOL    HW267262   6.269   1.321   6.449
88475SOL     OW67263  11.892  12.892  10.171
88475SOL    HW167264  11.982  12.921  10.159
88475SOL    HW267265  11.842  12.972  10.182
88476SOL     OW67266   4.877   0.482   4.218
88476SOL    HW167267   4.851   0.394   4.192
88476SOL    HW267268   4.799   0.536   4.208
88477SOL     OW67269   2.500   0.549   7.782
88477SOL    HW167270   2.508   0.626   7.840
88477SOL    HW267271   2.461   0.584   7.702
88478SOL     OW67272  10.199   0.796   3.111
88478SOL    HW167273  10.196   0.813   3.017
88478SOL    HW267274  10.237   0.876   3.148
88479SOL     OW67275  10.062   6.428   3.011
88479SOL    HW167276   9.973   6.461   3.000
88479SOL    HW267277  10.053   6.353   3.070
88480SOL     OW67278   5.017   0.600   6.021
88480SOL    HW167279   4.985   0.516   5.987
88480SOL    HW267280   5.084   0.627   5.959
88481SOL     OW67281  12.797   7.281   1.821
88481SOL    HW167282  12.765   7.199   1.860
88481SOL    HW267283  12.829   7.255   1.735
88482SOL     OW67284   5.296  14.613  12.109
88482SOL    HW167285   5.327  14.703  12.104
88482SOL    HW267286   5.256  14.606  12.195
88483SOL     OW67287   5.646   0.906   8.701
88483SOL    HW167288   5.604   0.840   8.647
88483SOL    HW267289   5.734   0.916   8.664
88484SOL     OW67290   2.401  11.995   3.670
88484SOL    HW167291   2.403  11.995   3.575
88484SOL    HW267292   2.380  11.905   3.694
88485SOL     OW67293   9.362   8.448   9.416
88485SOL    HW167294   9.378   8.458   9.322
88485SOL    HW267295   9.272   8.418   9.422
88486SOL     OW67296   9.362   1.279  12.383
88486SOL    HW167297   9.315   1.351  12.341
88486SOL    HW267298   9.293   1.226  12.424
88487SOL     OW67299   5.882   7.121  14.314
88487SOL    HW167300   5.800   7.161  14.285
88487SOL    HW267301   5.918   7.081  14.235
88488SOL     OW67302  14.370   8.199   8.806
88488SOL    HW167303  14.354   8.291   8.829
88488SOL    HW267304  14.359   8.151   8.888
88489SOL     OW67305   2.240  12.137   3.350
88489SOL    HW167306   2.294  12.193   3.296
88489SOL    HW267307   2.294  12.059   3.366
88490SOL     OW67308  10.238  12.143   8.971
88490SOL    HW167309  10.159  12.096   8.946
88490SOL    HW267310  10.207  12.222   9.015
88491SOL     OW67311   7.477  13.342   2.026
88491SOL    HW167312   7.478  13.336   2.122
88491SOL    HW267313   7.413  13.410   2.007
88492SOL     OW67314   5.278   7.639   9.846
88492SOL    HW167315   5.372   7.652   9.832
88492SOL    HW267316   5.252   7.714   9.899
88493SOL     OW67317   6.773   5.620  11.271
88493SOL    HW167318   6.830   5.680  11.318
88493SOL    HW267319   6.697   5.608  11.327
88494SOL     OW67320   3.775   4.297   4.494
88494SOL    HW167321   3.692   4.317   4.536
88494SOL    HW267322   3.812   4.382   4.470
88495SOL     OW67323   5.848  13.231  14.655
88495SOL    HW167324   5.822  13.280  14.733
88495SOL    HW267325   5.767  13.189  14.625
88496SOL     OW67326   3.017   2.661   9.723
88496SOL    HW167327   2.929   2.697   9.711
88496SOL    HW267328   3.050   2.648   9.635
88497SOL     OW67329   2.616   2.088   8.852
88497SOL    HW167330   2.686   2.123   8.907
88497SOL    HW267331   2.606   1.997   8.881
88498SOL     OW67332  12.292   1.556   4.939
88498SOL    HW167333  12.386   1.547   4.928
88498SOL    HW267334  12.276   1.650   4.937
88499SOL     OW67335   4.077   4.025  14.225
88499SOL    HW167336   4.011   3.958  14.241
88499SOL    HW267337   4.028   4.101  14.194
88500SOL     OW67338   4.973   7.190  11.731
88500SOL    HW167339   4.945   7.204  11.641
88500SOL    HW267340   4.894   7.198  11.783
88501SOL     OW67341   2.639   5.248   4.188
88501SOL    HW167342   2.586   5.320   4.154
88501SOL    HW267343   2.673   5.205   4.109
88502SOL     OW67344  12.918   3.692   6.161
88502SOL    HW167345  12.993   3.736   6.202
88502SOL    HW267346  12.856   3.763   6.144
88503SOL     OW67347   3.950   1.085  11.632
88503SOL    HW167348   4.028   1.130  11.665
88503SOL    HW267349   3.910   1.147  11.570
88504SOL     OW67350   1.529   0.146   8.659
88504SOL    HW167351   1.483   0.230   8.663
88504SOL    HW267352   1.460   0.081   8.648
88505SOL     OW67353   0.173   6.380  10.370
88505SOL    HW167354   0.164   6.420  10.457
88505SOL    HW267355   0.105   6.314  10.366
88506SOL     OW67356   8.082   3.718  12.695
88506SOL    HW167357   8.177   3.707  12.699
88506SOL    HW267358   8.070   3.790  12.633
88507SOL     OW67359   3.563   9.695   3.334
88507SOL    HW167360   3.490   9.637   3.356
88507SOL    HW267361   3.637   9.637   3.319
88508SOL     OW67362   2.039   2.885   2.740
88508SOL    HW167363   2.030   2.791   2.725
88508SOL    HW267364   2.005   2.925   2.660
88509SOL     OW67365   8.784   2.379  10.072
88509SOL    HW167366   8.753   2.304  10.021
88509SOL    HW267367   8.878   2.366  10.079
88510SOL     OW67368   0.456  14.285   2.819
88510SOL    HW167369   0.482  14.195   2.800
88510SOL    HW267370   0.503  14.338   2.755
88511SOL     OW67371   3.426  11.445  12.157
88511SOL    HW167372   3.488  11.380  12.124
88511SOL    HW267373   3.435  11.440  12.252
88512SOL     OW67374  13.343   5.491   6.713
88512SOL    HW167375  13.260   5.445   6.727
88512SOL    HW267376  13.410   5.429   6.742
88513SOL     OW67377   2.881  11.561  10.570
88513SOL    HW167378   2.881  11.478  10.522
88513SOL    HW267379   2.791  11.569  10.603
88514SOL     OW67380   3.230   6.254   6.378
88514SOL    HW167381   3.222   6.236   6.472
88514SOL    HW267382   3.274   6.338   6.374
88515SOL     OW67383   0.612  14.483   7.703
88515SOL    HW167384   0.662  14.447   7.630
88515SOL    HW267385   0.567  14.407   7.741
88516SOL     OW67386   8.090   9.128   0.629
88516SOL    HW167387   8.107   9.039   0.596
88516SOL    HW267388   8.017   9.160   0.576
88517SOL     OW67389   6.269  11.542   8.539
88517SOL    HW167390   6.240  11.528   8.630
88517SOL    HW267391   6.300  11.632   8.538
88518SOL     OW67392   3.865   0.167   1.745
88518SOL    HW167393   3.826   0.216   1.817
88518SOL    HW267394   3.884   0.080   1.782
88519SOL     OW67395  11.791   5.673  12.978
88519SOL    HW167396  11.716   5.614  12.988
88519SOL    HW267397  11.801   5.683  12.884
88520SOL     OW67398  11.208   9.557  11.990
88520SOL    HW167399  11.292   9.601  12.004
88520SOL    HW267400  11.192   9.511  12.073
88521SOL     OW67401  14.050   5.177   4.411
88521SOL    HW167402  14.097   5.145   4.488
88521SOL    HW267403  14.110   5.238   4.369
88522SOL     OW67404   6.851  11.556  10.606
88522SOL    HW167405   6.832  11.465  10.585
88522SOL    HW267406   6.787  11.607  10.556
88523SOL     OW67407  12.591   7.105  14.467
88523SOL    HW167408  12.579   7.095  14.372
88523SOL    HW267409  12.685   7.096  14.480
88524SOL     OW67410   7.995   3.262   6.379
88524SOL    HW167411   7.997   3.168   6.397
88524SOL    HW267412   8.087   3.289   6.381
88525SOL     OW67413  14.542  13.816   3.512
88525SOL    HW167414  14.524  13.730   3.475
88525SOL    HW267415  14.526  13.806   3.606
88526SOL     OW67416  11.016  14.781   1.449
88526SOL    HW167417  11.017  14.869   1.412
88526SOL    HW267418  10.997  14.794   1.542
88527SOL     OW67419  10.362   0.562   8.599
88527SOL    HW167420  10.271   0.571   8.572
88527SOL    HW267421  10.396   0.652   8.599
88528SOL     OW67422   8.472   9.241   3.256
88528SOL    HW167423   8.467   9.332   3.285
88528SOL    HW267424   8.410   9.236   3.183
88529SOL     OW67425   3.904   0.284   5.919
88529SOL    HW167426   3.840   0.261   5.986
88529SOL    HW267427   3.908   0.379   5.920
88530SOL     OW67428   5.115   5.772   0.927
88530SOL    HW167429   5.061   5.826   0.985
88530SOL    HW267430   5.151   5.705   0.984
88531SOL     OW67431  14.288   5.677   0.282
88531SOL    HW167432  14.310   5.597   0.329
88531SOL    HW267433  14.269   5.648   0.192
88532SOL     OW67434   6.104   6.237  14.661
88532SOL    HW167435   6.045   6.274  14.595
88532SOL    HW267436   6.067   6.267  14.744
88533SOL     OW67437  12.240   3.058  10.840
88533SOL    HW167438  12.175   2.992  10.816
88533SOL    HW267439  12.289   3.018  10.912
88534SOL     OW67440  12.099   2.767  14.817
88534SOL    HW167441  12.023   2.767  14.875
88534SOL    HW267442  12.079   2.699  14.752
88535SOL     OW67443   4.359  12.684   8.974
88535SOL    HW167444   4.387  12.610   9.027
88535SOL    HW267445   4.390  12.663   8.885
88536SOL     OW67446   5.414  12.682  12.110
88536SOL    HW167447   5.482  12.683  12.178
88536SOL    HW267448   5.460  12.699  12.029
88537SOL     OW67449   5.957   2.772   0.197
88537SOL    HW167450   6.004   2.838   0.147
88537SOL    HW267451   6.001   2.689   0.175
88538SOL     OW67452  11.760  10.424   9.830
88538SOL    HW167453  11.836  10.468   9.791
88538SOL    HW267454  11.754  10.460   9.919
88539SOL     OW67455   0.242   4.575   5.916
88539SOL    HW167456   0.216   4.523   5.840
88539SOL    HW267457   0.160   4.614   5.948
88540SOL     OW67458   1.859   2.442   3.490
88540SOL    HW167459   1.823   2.449   3.579
88540SOL    HW267460   1.944   2.486   3.495
88541SOL     OW67461  10.299  13.902  14.548
88541SOL    HW167462  10.321  13.907  14.641
88541SOL    HW267463  10.222  13.846  14.544
88542SOL     OW67464   1.833   9.409  12.949
88542SOL    HW167465   1.855   9.405  13.042
88542SOL    HW267466   1.917   9.403  12.904
88543SOL     OW67467  12.299  13.217  13.960
88543SOL    HW167468  12.393  13.207  13.972
88543SOL    HW267469  12.264  13.128  13.964
88544SOL     OW67470   9.474  10.990  11.838
88544SOL    HW167471   9.500  10.908  11.794
88544SOL    HW267472   9.456  10.964  11.928
88545SOL     OW67473  10.618   7.958   6.164
88545SOL    HW167474  10.661   8.043   6.152
88545SOL    HW267475  10.552   7.954   6.095
88546SOL     OW67476  13.011  14.194   5.339
88546SOL    HW167477  13.099  14.170   5.312
88546SOL    HW267478  12.995  14.143   5.418
88547SOL     OW67479   7.015   9.660  12.634
88547SOL    HW167480   6.966   9.602  12.576
88547SOL    HW267481   7.038   9.735  12.580
88548SOL     OW67482   1.404   2.193   6.308
88548SOL    HW167483   1.371   2.146   6.385
88548SOL    HW267484   1.494   2.163   6.298
88549SOL     OW67485  13.950  11.482   3.099
88549SOL    HW167486  13.936  11.539   3.023
88549SOL    HW267487  13.972  11.397   3.061
88550SOL     OW67488   5.870   8.139   1.197
88550SOL    HW167489   5.807   8.068   1.185
88550SOL    HW267490   5.952   8.105   1.160
88551SOL     OW67491  14.686   9.896   7.646
88551SOL    HW167492  14.682   9.991   7.632
88551SOL    HW267493  14.671   9.885   7.740
88552SOL     OW67494   9.955  12.296  12.434
88552SOL    HW167495  10.007  12.376  12.437
88552SOL    HW267496   9.929  12.280  12.525
88553SOL     OW67497  11.031  12.883   8.277
88553SOL    HW167498  11.027  12.966   8.231
88553SOL    HW267499  11.071  12.822   8.215
88554SOL     OW67500  10.885   3.543  13.827
88554SOL    HW167501  10.893   3.635  13.853
88554SOL    HW267502  10.795   3.520  13.849
88555SOL     OW67503   7.807   6.091   8.934
88555SOL    HW167504   7.767   6.177   8.918
88555SOL    HW267505   7.879   6.110   8.994
88556SOL     OW67506   9.389   9.419  14.334
88556SOL    HW167507   9.327   9.359  14.375
88556SOL    HW267508   9.387   9.397  14.241
88557SOL     OW67509  11.003   4.037   7.209
88557SOL    HW167510  10.962   4.016   7.294
88557SOL    HW267511  11.046   4.121   7.224
88558SOL     OW67512  10.451   8.342  14.298
88558SOL    HW167513  10.527   8.288  14.277
88558SOL    HW267514  10.383   8.279  14.322
88559SOL     OW67515   8.851   1.994   1.021
88559SOL    HW167516   8.774   1.983   0.966
88559SOL    HW267517   8.896   2.070   0.985
88560SOL     OW67518  12.440  11.576  12.640
88560SOL    HW167519  12.390  11.657  12.652
88560SOL    HW267520  12.462  11.575  12.547
88561SOL     OW67521  13.797   9.804   1.461
88561SOL    HW167522  13.763   9.720   1.431
88561SOL    HW267523  13.733   9.833   1.527
88562SOL     OW67524  11.188  13.114  13.683
88562SOL    HW167525  11.143  13.029  13.687
88562SOL    HW267526  11.127  13.175  13.725
88563SOL     OW67527   5.310   5.358   5.718
88563SOL    HW167528   5.254   5.431   5.745
88563SOL    HW267529   5.317   5.367   5.623
88564SOL     OW67530  10.680   8.492  14.075
88564SOL    HW167531  10.601   8.495  14.022
88564SOL    HW267532  10.749   8.526  14.018
88565SOL     OW67533  14.458  12.141   2.766
88565SOL    HW167534  14.450  12.049   2.793
88565SOL    HW267535  14.375  12.181   2.792
88566SOL     OW67536   3.418   1.897  11.063
88566SOL    HW167537   3.431   1.888  11.158
88566SOL    HW267538   3.323   1.898  11.053
88567SOL     OW67539   0.299   5.333  10.192
88567SOL    HW167540   0.288   5.406  10.252
88567SOL    HW267541   0.276   5.368  10.106
88568SOL     OW67542   8.044   2.640  12.891
88568SOL    HW167543   8.012   2.638  12.982
88568SOL    HW267544   8.124   2.587  12.893
88569SOL     OW67545   6.138   2.926   0.056
88569SOL    HW167546   6.226   2.918   0.093
88569SOL    HW267547   6.153   2.951  14.847
88570SOL     OW67548   6.488  13.322   1.024
88570SOL    HW167549   6.489  13.228   1.005
88570SOL    HW267550   6.412  13.334   1.081
88571SOL     OW67551   0.784   7.058  13.246
88571SOL    HW167552   0.794   6.963  13.252
88571SOL    HW267553   0.787   7.077  13.153
88572SOL     OW67554   2.368  10.682   7.680
88572SOL    HW167555   2.280  10.709   7.704
88572SOL    HW267556   2.356  10.619   7.609
88573SOL     OW67557   4.047  11.125   5.586
88573SOL    HW167558   4.107  11.193   5.555
88573SOL    HW267559   4.083  11.098   5.670
88574SOL     OW67560  14.162   2.411   0.960
88574SOL    HW167561  14.159   2.412   0.864
88574SOL    HW267562  14.162   2.503   0.985
88575SOL     OW67563  12.906   9.648  11.733
88575SOL    HW167564  12.999   9.667  11.725
88575SOL    HW267565  12.902   9.561  11.772
88576SOL     OW67566   6.149   0.541  13.726
88576SOL    HW167567   6.054   0.544  13.740
88576SOL    HW267568   6.187   0.550  13.813
88577SOL     OW67569   8.077   2.231   6.362
88577SOL    HW167570   8.103   2.140   6.373
88577SOL    HW267571   8.121   2.277   6.434
88578SOL     OW67572  11.709   6.491  11.731
88578SOL    HW167573  11.735   6.505  11.822
88578SOL    HW267574  11.672   6.575  11.703
88579SOL     OW67575  10.540  10.401   4.727
88579SOL    HW167576  10.621  10.423   4.774
88579SOL    HW267577  10.485  10.479   4.737
88580SOL     OW67578   5.360   4.113   0.122
88580SOL    HW167579   5.277   4.071   0.099
88580SOL    HW267580   5.371   4.182   0.056
88581SOL     OW67581  12.533  10.222  10.952
88581SOL    HW167582  12.559  10.133  10.926
88581SOL    HW267583  12.497  10.260  10.872
88582SOL     OW67584  10.824  14.770   8.475
88582SOL    HW167585  10.775  14.692   8.500
88582SOL    HW267586  10.813  14.829   8.550
88583SOL     OW67587  12.973   3.955  10.903
88583SOL    HW167588  13.026   4.027  10.936
88583SOL    HW267589  13.018   3.876  10.933
88584SOL     OW67590   8.343   5.627  14.505
88584SOL    HW167591   8.256   5.665  14.495
88584SOL    HW267592   8.343   5.550  14.448
88585SOL     OW67593   2.098   2.878  11.765
88585SOL    HW167594   2.170   2.826  11.729
88585SOL    HW267595   2.029   2.872  11.699
88586SOL     OW67596  12.936   7.941   2.705
88586SOL    HW167597  12.956   8.006   2.637
88586SOL    HW267598  13.020   7.901   2.726
88587SOL     OW67599  12.865   5.723  12.214
88587SOL    HW167600  12.828   5.748  12.298
88587SOL    HW267601  12.858   5.802  12.160
88588SOL     OW67602   8.735   8.621  11.083
88588SOL    HW167603   8.822   8.659  11.097
88588SOL    HW267604   8.686   8.690  11.038
88589SOL     OW67605  14.715   5.309   4.406
88589SOL    HW167606  14.628   5.333   4.438
88589SOL    HW267607  14.719   5.214   4.416
88590SOL     OW67608   7.558   3.885  11.723
88590SOL    HW167609   7.610   3.813  11.760
88590SOL    HW267610   7.610   3.918  11.651
88591SOL     OW67611   6.283   4.356  11.310
88591SOL    HW167612   6.317   4.442  11.332
88591SOL    HW267613   6.332   4.330  11.233
88592SOL     OW67614   0.477  10.181  12.588
88592SOL    HW167615   0.383  10.171  12.580
88592SOL    HW267616   0.513  10.093  12.575
88593SOL     OW67617   0.256   8.895  13.276
88593SOL    HW167618   0.260   8.823  13.213
88593SOL    HW267619   0.333   8.948  13.258
88594SOL     OW67620   0.453   2.531   0.071
88594SOL    HW167621   0.395   2.460   0.100
88594SOL    HW267622   0.411   2.567  14.875
88595SOL     OW67623   5.207  11.933   6.283
88595SOL    HW167624   5.213  11.989   6.361
88595SOL    HW267625   5.178  11.993   6.214
88596SOL     OW67626  10.565   4.990   3.670
88596SOL    HW167627  10.504   4.985   3.744
88596SOL    HW267628  10.555   4.906   3.625
88597SOL     OW67629   7.243   7.440  12.495
88597SOL    HW167630   7.317   7.437  12.556
88597SOL    HW267631   7.270   7.383  12.423
88598SOL     OW67632   9.459  13.918   1.277
88598SOL    HW167633   9.442  13.990   1.217
88598SOL    HW267634   9.450  13.839   1.222
88599SOL     OW67635   0.516   3.862  11.905
88599SOL    HW167636   0.518   3.861  11.810
88599SOL    HW267637   0.434   3.908  11.927
88600SOL     OW67638   6.402  11.650   4.042
88600SOL    HW167639   6.417  11.705   4.118
88600SOL    HW267640   6.453  11.571   4.059
88601SOL     OW67641  13.974   4.230   9.926
88601SOL    HW167642  14.018   4.192  10.002
88601SOL    HW267643  13.942   4.154   9.877
88602SOL     OW67644  12.004   9.602  10.070
88602SOL    HW167645  12.009   9.683  10.020
88602SOL    HW267646  11.935   9.551  10.028
88603SOL     OW67647  13.585   8.737   4.751
88603SOL    HW167648  13.545   8.661   4.794
88603SOL    HW267649  13.667   8.703   4.716
88604SOL     OW67650  13.023   5.003   4.099
88604SOL    HW167651  13.064   4.947   4.165
88604SOL    HW267652  12.930   4.980   4.103
88605SOL     OW67653   4.123   5.177  14.617
88605SOL    HW167654   4.104   5.258  14.570
88605SOL    HW267655   4.061   5.176  14.690
88606SOL     OW67656   1.704  12.897  11.740
88606SOL    HW167657   1.786  12.943  11.758
88606SOL    HW267658   1.659  12.895  11.825
88607SOL     OW67659  14.289   2.049   4.063
88607SOL    HW167660  14.200   2.082   4.073
88607SOL    HW267661  14.319   2.032   4.152
88608SOL     OW67662  12.841   9.254   6.728
88608SOL    HW167663  12.769   9.255   6.666
88608SOL    HW267664  12.821   9.325   6.789
88609SOL     OW67665  11.610  13.156   3.003
88609SOL    HW167666  11.653  13.078   2.971
88609SOL    HW267667  11.517  13.141   2.985
88610SOL     OW67668   9.899   5.169   8.182
88610SOL    HW167669   9.844   5.134   8.112
88610SOL    HW267670   9.959   5.097   8.204
88611SOL     OW67671   6.106  14.115   1.661
88611SOL    HW167672   6.103  14.115   1.565
88611SOL    HW267673   6.094  14.024   1.686
88612SOL     OW67674   5.608  12.087   4.363
88612SOL    HW167675   5.535  12.106   4.421
88612SOL    HW267676   5.594  12.144   4.287
88613SOL     OW67677  12.560  13.155   7.504
88613SOL    HW167678  12.538  13.248   7.497
88613SOL    HW267679  12.486  13.116   7.549
88614SOL     OW67680   0.138  14.059   4.812
88614SOL    HW167681   0.218  14.030   4.855
88614SOL    HW267682   0.094  14.114   4.877
88615SOL     OW67683   4.705   2.427  14.345
88615SOL    HW167684   4.726   2.342  14.384
88615SOL    HW267685   4.788   2.474  14.341
88616SOL     OW67686   5.697   5.462  13.091
88616SOL    HW167687   5.747   5.397  13.041
88616SOL    HW267688   5.748   5.542  13.085
88617SOL     OW67689   2.360  13.858  11.277
88617SOL    HW167690   2.275  13.824  11.247
88617SOL    HW267691   2.422  13.789  11.255
88618SOL     OW67692   3.457  10.379  12.606
88618SOL    HW167693   3.414  10.374  12.520
88618SOL    HW267694   3.543  10.415  12.588
88619SOL     OW67695   6.767   0.610  10.935
88619SOL    HW167696   6.721   0.676  10.986
88619SOL    HW267697   6.855   0.607  10.973
88620SOL     OW67698   0.063  14.763   2.896
88620SOL    HW167699   0.073  14.832   2.961
88620SOL    HW267700   0.010  14.696   2.939
88621SOL     OW67701  10.418   3.585   4.900
88621SOL    HW167702  10.483   3.577   4.969
88621SOL    HW267703  10.469   3.602   4.821
88622SOL     OW67704  10.409   9.716   2.148
88622SOL    HW167705  10.361   9.634   2.163
88622SOL    HW267706  10.410   9.725   2.053
88623SOL     OW67707   0.877   1.587  10.519
88623SOL    HW167708   0.892   1.623  10.431
88623SOL    HW267709   0.844   1.499  10.504
88624SOL     OW67710   1.541   4.899  13.834
88624SOL    HW167711   1.514   4.962  13.767
88624SOL    HW267712   1.607   4.946  13.885
88625SOL     OW67713   4.073   9.130   6.077
88625SOL    HW167714   4.082   9.068   6.005
88625SOL    HW267715   4.159   9.129   6.120
88626SOL     OW67716   4.490   7.167   8.405
88626SOL    HW167717   4.537   7.125   8.333
88626SOL    HW267718   4.501   7.261   8.389
88627SOL     OW67719   2.594   6.044   2.758
88627SOL    HW167720   2.528   6.100   2.718
88627SOL    HW267721   2.544   5.978   2.806
88628SOL     OW67722  14.524  14.709   3.257
88628SOL    HW167723  14.487  14.795   3.237
88628SOL    HW267724  14.449  14.655   3.280
88629SOL     OW67725   4.372  12.803  14.768
88629SOL    HW167726   4.371  12.709  14.749
88629SOL    HW267727   4.308  12.840  14.707
88630SOL     OW67728   7.440   1.956   2.379
88630SOL    HW167729   7.356   1.997   2.358
88630SOL    HW267730   7.504   2.002   2.325
88631SOL     OW67731   1.920   0.880   2.363
88631SOL    HW167732   1.866   0.846   2.434
88631SOL    HW267733   1.996   0.918   2.407
88632SOL     OW67734   3.140   1.620   2.111
88632SOL    HW167735   3.174   1.688   2.169
88632SOL    HW267736   3.211   1.606   2.047
88633SOL     OW67737   3.830   3.233   0.518
88633SOL    HW167738   3.755   3.285   0.489
88633SOL    HW267739   3.864   3.281   0.594
88634SOL     OW67740   2.695   8.365  11.865
88634SOL    HW167741   2.684   8.449  11.821
88634SOL    HW267742   2.786   8.365  11.894
88635SOL     OW67743   4.003   9.340   3.066
88635SOL    HW167744   4.062   9.387   3.126
88635SOL    HW267745   4.017   9.383   2.981
88636SOL     OW67746  10.370  10.372  14.777
88636SOL    HW167747  10.296  10.355  14.836
88636SOL    HW267748  10.341  10.446  14.723
88637SOL     OW67749   2.221   9.400  12.547
88637SOL    HW167750   2.280   9.430  12.478
88637SOL    HW267751   2.215   9.474  12.607
88638SOL     OW67752   8.139  12.891   0.865
88638SOL    HW167753   8.060  12.946   0.861
88638SOL    HW267754   8.212  12.953   0.857
88639SOL     OW67755   2.743   5.217   6.274
88639SOL    HW167756   2.692   5.249   6.200
88639SOL    HW267757   2.829   5.258   6.263
88640SOL     OW67758  11.893   8.879   9.188
88640SOL    HW167759  11.967   8.834   9.230
88640SOL    HW267760  11.853   8.930   9.259
88641SOL     OW67761   3.971   3.571  10.274
88641SOL    HW167762   3.929   3.582  10.359
88641SOL    HW267763   3.906   3.524  10.222
88642SOL     OW67764   7.183  14.405   0.256
88642SOL    HW167765   7.240  14.434   0.327
88642SOL    HW267766   7.242  14.358   0.197
88643SOL     OW67767   7.175   2.922   6.606
88643SOL    HW167768   7.162   2.950   6.697
88643SOL    HW267769   7.269   2.901   6.601
88644SOL     OW67770   3.649   7.405   0.258
88644SOL    HW167771   3.583   7.346   0.221
88644SOL    HW267772   3.601   7.483   0.283
88645SOL     OW67773  12.894   9.896   1.417
88645SOL    HW167774  12.856   9.981   1.439
88645SOL    HW267775  12.869   9.839   1.489
88646SOL     OW67776  12.180   9.704  11.348
88646SOL    HW167777  12.175   9.667  11.436
88646SOL    HW267778  12.268   9.741  11.342
88647SOL     OW67779   5.382   4.033   9.922
88647SOL    HW167780   5.301   3.984   9.934
88647SOL    HW267781   5.373   4.074   9.836
88648SOL     OW67782   1.657   6.652   6.433
88648SOL    HW167783   1.634   6.722   6.494
88648SOL    HW267784   1.749   6.668   6.411
88649SOL     OW67785   9.507   0.830   4.068
88649SOL    HW167786   9.588   0.880   4.076
88649SOL    HW267787   9.510   0.792   3.980
88650SOL     OW67788  12.371   7.940   8.046
88650SOL    HW167789  12.352   7.916   8.137
88650SOL    HW267790  12.287   7.930   8.001
88651SOL     OW67791  13.896   0.397   3.379
88651SOL    HW167792  13.927   0.419   3.467
88651SOL    HW267793  13.806   0.368   3.392
88652SOL     OW67794   9.845  14.729  11.722
88652SOL    HW167795   9.871  14.805  11.671
88652SOL    HW267796   9.763  14.700  11.682
88653SOL     OW67797  13.730   9.432   3.239
88653SOL    HW167798  13.641   9.396   3.237
88653SOL    HW267799  13.744   9.466   3.151
88654SOL     OW67800  14.503   1.715  13.064
88654SOL    HW167801  14.515   1.623  13.043
88654SOL    HW267802  14.538   1.762  12.988
88655SOL     OW67803  10.688  14.795   3.440
88655SOL    HW167804  10.715   0.005   3.438
88655SOL    HW267805  10.734  14.755   3.367
88656SOL     OW67806   1.638   2.008   6.283
88656SOL    HW167807   1.694   1.995   6.207
88656SOL    HW267808   1.558   1.959   6.263
88657SOL     OW67809   8.622  10.487   2.451
88657SOL    HW167810   8.652  10.557   2.509
88657SOL    HW267811   8.578  10.424   2.509
88658SOL     OW67812  13.097  10.743   0.228
88658SOL    HW167813  13.019  10.796   0.243
88658SOL    HW267814  13.145  10.747   0.310
88659SOL     OW67815  14.510   9.416   7.253
88659SOL    HW167816  14.493   9.508   7.234
88659SOL    HW267817  14.423   9.375   7.254
88660SOL     OW67818   7.654   0.677   9.493
88660SOL    HW167819   7.660   0.690   9.588
88660SOL    HW267820   7.745   0.679   9.463
88661SOL     OW67821   2.419  10.231   4.477
88661SOL    HW167822   2.478  10.167   4.435
88661SOL    HW267823   2.468  10.262   4.553
88662SOL     OW67824  14.405  13.812  12.960
88662SOL    HW167825  14.379  13.904  12.960
88662SOL    HW267826  14.500  13.814  12.946
88663SOL     OW67827  10.822   2.238   8.723
88663SOL    HW167828  10.798   2.198   8.807
88663SOL    HW267829  10.839   2.330   8.743
88664SOL     OW67830  12.756   1.457   0.863
88664SOL    HW167831  12.782   1.530   0.806
88664SOL    HW267832  12.678   1.489   0.909
88665SOL     OW67833   8.228   4.922   3.604
88665SOL    HW167834   8.138   4.927   3.572
88665SOL    HW267835   8.280   4.897   3.527
88666SOL     OW67836   9.151  12.116   6.381
88666SOL    HW167837   9.113  12.142   6.297
88666SOL    HW267838   9.116  12.028   6.397
88667SOL     OW67839  13.223  12.473   2.503
88667SOL    HW167840  13.265  12.405   2.556
88667SOL    HW267841  13.133  12.442   2.491
88668SOL     OW67842  13.261   2.448   4.481
88668SOL    HW167843  13.174   2.467   4.445
88668SOL    HW267844  13.289   2.368   4.436
88669SOL     OW67845   1.387   0.390   8.724
88669SOL    HW167846   1.308   0.413   8.774
88669SOL    HW267847   1.366   0.412   8.633
88670SOL     OW67848  10.175   6.011   3.836
88670SOL    HW167849  10.157   5.924   3.800
88670SOL    HW267850  10.090   6.041   3.869
88671SOL     OW67851  13.565  12.675   5.112
88671SOL    HW167852  13.487  12.730   5.122
88671SOL    HW267853  13.609  12.680   5.197
88672SOL     OW67854   3.758   1.262   2.423
88672SOL    HW167855   3.789   1.350   2.443
88672SOL    HW267856   3.836   1.207   2.426
88673SOL     OW67857   4.137   1.113   5.783
88673SOL    HW167858   4.194   1.101   5.858
88673SOL    HW267859   4.150   1.204   5.757
88674SOL     OW67860   7.703  10.816   0.182
88674SOL    HW167861   7.623  10.771   0.153
88674SOL    HW267862   7.688  10.908   0.160
88675SOL     OW67863   0.897   1.942  13.307
88675SOL    HW167864   0.957   1.988  13.364
88675SOL    HW267865   0.946   1.931  13.225
88676SOL     OW67866   9.530   5.322  11.382
88676SOL    HW167867   9.448   5.330  11.431
88676SOL    HW267868   9.504   5.332  11.290
88677SOL     OW67869  10.672   7.504   0.284
88677SOL    HW167870  10.695   7.415   0.256
88677SOL    HW267871  10.634   7.492   0.371
88678SOL     OW67872   1.610  11.494   2.616
88678SOL    HW167873   1.688  11.550   2.610
88678SOL    HW267874   1.597  11.462   2.526
88679SOL     OW67875   5.430  13.405   6.759
88679SOL    HW167876   5.363  13.356   6.806
88679SOL    HW267877   5.506  13.347   6.759
88680SOL     OW67878  13.192   8.297   8.582
88680SOL    HW167879  13.151   8.383   8.571
88680SOL    HW267880  13.194   8.260   8.494
88681SOL     OW67881  11.308  10.126   4.391
88681SOL    HW167882  11.282  10.042   4.429
88681SOL    HW267883  11.277  10.192   4.454
88682SOL     OW67884  10.074   5.618   3.237
88682SOL    HW167885  10.035   5.534   3.210
88682SOL    HW267886  10.039   5.681   3.174
88683SOL     OW67887   0.308  13.887   7.832
88683SOL    HW167888   0.249  13.830   7.883
88683SOL    HW267889   0.256  13.965   7.813
88684SOL     OW67890   2.889   2.839   5.632
88684SOL    HW167891   2.927   2.782   5.698
88684SOL    HW267892   2.796   2.844   5.656
88685SOL     OW67893  11.308   8.509   9.899
88685SOL    HW167894  11.225   8.462   9.907
88685SOL    HW267895  11.357   8.483   9.977
88686SOL     OW67896  10.068   3.804   3.726
88686SOL    HW167897  10.162   3.797   3.743
88686SOL    HW267898  10.028   3.739   3.784
88687SOL     OW67899  14.429   3.605   6.787
88687SOL    HW167900  14.467   3.653   6.860
88687SOL    HW267901  14.368   3.667   6.747
88688SOL     OW67902  12.967  13.916  13.126
88688SOL    HW167903  12.986  13.851  13.194
88688SOL    HW267904  13.025  13.990  13.146
88689SOL     OW67905   3.194   0.056  11.748
88689SOL    HW167906   3.199  14.845  11.723
88689SOL    HW267907   3.247   0.101  11.682
88690SOL     OW67908   2.350  13.226   8.684
88690SOL    HW167909   2.269  13.250   8.729
88690SOL    HW267910   2.418  13.232   8.752
88691SOL     OW67911  10.075   5.529   3.922
88691SOL    HW167912  10.151   5.481   3.955
88691SOL    HW267913  10.010   5.462   3.904
88692SOL     OW67914   9.937  10.596  11.900
88692SOL    HW167915  10.032  10.591  11.894
88692SOL    HW267916   9.905  10.546  11.825
88693SOL     OW67917   4.750  13.663   2.542
88693SOL    HW167918   4.681  13.727   2.560
88693SOL    HW267919   4.726  13.587   2.595
88694SOL     OW67920  11.901  10.757  10.094
88694SOL    HW167921  11.931  10.753  10.003
88694SOL    HW267922  11.812  10.721  10.092
88695SOL     OW67923  14.464  13.728  11.449
88695SOL    HW167924  14.472  13.643  11.405
88695SOL    HW267925  14.448  13.790  11.378
88696SOL     OW67926  10.147   3.435  10.486
88696SOL    HW167927  10.125   3.527  10.500
88696SOL    HW267928  10.186   3.433  10.398
88697SOL     OW67929   1.621   4.391  14.560
88697SOL    HW167930   1.545   4.432  14.520
88697SOL    HW267931   1.584   4.323  14.617
88698SOL     OW67932  13.582  10.388   2.162
88698SOL    HW167933  13.631  10.438   2.097
88698SOL    HW267934  13.490  10.404   2.140
88699SOL     OW67935   2.182  12.989  10.368
88699SOL    HW167936   2.241  12.929  10.322
88699SOL    HW267937   2.106  12.996  10.310
88700SOL     OW67938   0.613   0.007   3.722
88700SOL    HW167939   0.605   0.035   3.813
88700SOL    HW267940   0.694  14.838   3.719
88701SOL     OW67941  13.181   5.142   0.200
88701SOL    HW167942  13.186   5.228   0.158
88701SOL    HW267943  13.239   5.087   0.147
88702SOL     OW67944   3.669   3.888  10.615
88702SOL    HW167945   3.693   3.975  10.583
88702SOL    HW267946   3.653   3.837  10.535
88703SOL     OW67947  11.230  14.647   5.646
88703SOL    HW167948  11.265  14.679   5.729
88703SOL    HW267949  11.272  14.702   5.580
88704SOL     OW67950   7.610   5.657   2.176
88704SOL    HW167951   7.638   5.748   2.167
88704SOL    HW267952   7.691   5.607   2.186
88705SOL     OW67953   5.303   7.230   1.770
88705SOL    HW167954   5.298   7.307   1.714
88705SOL    HW267955   5.223   7.181   1.752
88706SOL     OW67956   1.810  11.465   6.907
88706SOL    HW167957   1.876  11.525   6.873
88706SOL    HW267958   1.730  11.488   6.859
88707SOL     OW67959  14.418  12.430   4.333
88707SOL    HW167960  14.376  12.464   4.411
88707SOL    HW267961  14.510  12.456   4.341
88708SOL     OW67962   1.529   7.756  13.202
88708SOL    HW167963   1.467   7.813  13.248
88708SOL    HW267964   1.607   7.757  13.257
88709SOL     OW67965  14.405   2.356   4.810
88709SOL    HW167966  14.469   2.287   4.826
88709SOL    HW267967  14.362   2.369   4.894
88710SOL     OW67968   9.476   0.052   3.687
88710SOL    HW167969   9.540   0.119   3.665
88710SOL    HW267970   9.504   0.017   3.772
88711SOL     OW67971  11.539   3.902  12.494
88711SOL    HW167972  11.513   3.978  12.546
88711SOL    HW267973  11.621   3.873  12.534
88712SOL     OW67974   9.711   4.499   9.391
88712SOL    HW167975   9.751   4.556   9.456
88712SOL    HW267976   9.750   4.413   9.407
88713SOL     OW67977   4.516   0.878   1.787
88713SOL    HW167978   4.433   0.832   1.803
88713SOL    HW267979   4.563   0.821   1.725
88714SOL     OW67980   9.091   5.116   9.613
88714SOL    HW167981   9.050   5.156   9.536
88714SOL    HW267982   9.175   5.161   9.621
88715SOL     OW67983   5.895   8.841   0.485
88715SOL    HW167984   5.873   8.748   0.473
88715SOL    HW267985   5.864   8.861   0.573
88716SOL     OW67986   5.345  14.719  12.390
88716SOL    HW167987   5.302  14.669  12.458
88716SOL    HW267988   5.299  14.803  12.389
88717SOL     OW67989   1.753  12.127   9.040
88717SOL    HW167990   1.802  12.103   9.118
88717SOL    HW267991   1.661  12.125   9.068
88718SOL     OW67992   5.225  10.420  10.896
88718SOL    HW167993   5.152  10.468  10.936
88718SOL    HW267994   5.297  10.428  10.959
88719SOL     OW67995   8.072   9.848   2.309
88719SOL    HW167996   8.072   9.894   2.392
88719SOL    HW267997   8.020   9.769   2.325
88720SOL     OW67998   8.531  11.158  11.720
88720SOL    HW167999   8.513  11.197  11.805
88720SOL    HW268000   8.621  11.186  11.700
88721SOL     OW68001  11.772   3.427   3.287
88721SOL    HW168002  11.778   3.382   3.203
88721SOL    HW268003  11.765   3.357   3.351
88722SOL     OW68004   6.785   7.221   9.292
88722SOL    HW168005   6.771   7.315   9.290
88722SOL    HW268006   6.704   7.185   9.330
88723SOL     OW68007   6.064  11.923   1.995
88723SOL    HW168008   6.129  11.896   2.060
88723SOL    HW268009   6.050  12.016   2.013
88724SOL     OW68010   1.487   3.964  13.047
88724SOL    HW168011   1.483   3.957  12.952
88724SOL    HW268012   1.466   3.876  13.079
88725SOL     OW68013  13.268   5.376   5.060
88725SOL    HW168014  13.361   5.398   5.071
88725SOL    HW268015  13.235   5.441   4.997
88726SOL     OW68016   2.774  11.071   5.438
88726SOL    HW168017   2.790  10.994   5.494
88726SOL    HW268018   2.848  11.129   5.457
88727SOL     OW68019  10.062   8.308   4.395
88727SOL    HW168020  10.089   8.217   4.380
88727SOL    HW268021  10.024   8.307   4.483
88728SOL     OW68022  10.036   4.809  12.141
88728SOL    HW168023  10.109   4.798  12.201
88728SOL    HW268024   9.958   4.787  12.192
88729SOL     OW68025   9.614  13.475   5.923
88729SOL    HW168026   9.635  13.408   5.988
88729SOL    HW268027   9.537  13.520   5.958
88730SOL     OW68028   9.219   9.220   4.499
88730SOL    HW168029   9.261   9.191   4.580
88730SOL    HW268030   9.274   9.185   4.429
88731SOL     OW68031   4.167  13.248  13.283
88731SOL    HW168032   4.208  13.161  13.286
88731SOL    HW268033   4.215  13.299  13.349
88732SOL     OW68034   9.892   6.113   7.920
88732SOL    HW168035   9.833   6.185   7.941
88732SOL    HW268036   9.887   6.104   7.824
88733SOL     OW68037  11.373  13.391  14.003
88733SOL    HW168038  11.442  13.425  13.945
88733SOL    HW268039  11.301  13.453  13.994
88734SOL     OW68040   7.442   0.315   3.890
88734SOL    HW168041   7.478   0.236   3.930
88734SOL    HW268042   7.347   0.307   3.901
88735SOL     OW68043   2.284   7.340  10.002
88735SOL    HW168044   2.328   7.424   9.990
88735SOL    HW268045   2.213   7.359  10.064
88736SOL     OW68046   3.346   5.738   7.915
88736SOL    HW168047   3.405   5.781   7.853
88736SOL    HW268048   3.321   5.807   7.976
88737SOL     OW68049  13.029  14.334  13.528
88737SOL    HW168050  12.945  14.336  13.481
88737SOL    HW268051  13.007  14.297  13.614
88738SOL     OW68052   8.573   8.599   5.443
88738SOL    HW168053   8.531   8.647   5.372
88738SOL    HW268054   8.663   8.586   5.413
88739SOL     OW68055   4.998  12.526  10.825
88739SOL    HW168056   4.945  12.567  10.892
88739SOL    HW268057   5.084  12.567  10.833
88740SOL     OW68058   0.177   8.525   9.347
88740SOL    HW168059   0.091   8.483   9.354
88740SOL    HW268060   0.203   8.511   9.256
88741SOL     OW68061  11.016   1.436   0.651
88741SOL    HW168062  11.045   1.479   0.571
88741SOL    HW268063  10.972   1.356   0.620
88742SOL     OW68064   4.637   5.656   5.154
88742SOL    HW168065   4.629   5.718   5.226
88742SOL    HW268066   4.559   5.600   5.161
88743SOL     OW68067   5.374   0.114  10.249
88743SOL    HW168068   5.374   0.019  10.242
88743SOL    HW268069   5.428   0.144  10.177
88744SOL     OW68070  12.911   6.016   0.329
88744SOL    HW168071  12.981   6.081   0.317
88744SOL    HW268072  12.957   5.933   0.342
88745SOL     OW68073   3.308   6.251  10.144
88745SOL    HW168074   3.229   6.269  10.195
88745SOL    HW268075   3.380   6.270  10.203
88746SOL     OW68076   7.932   1.543   4.723
88746SOL    HW168077   7.900   1.628   4.691
88746SOL    HW268078   7.885   1.479   4.670
88747SOL     OW68079   1.056  12.313   4.924
88747SOL    HW168080   1.112  12.327   4.848
88747SOL    HW268081   1.022  12.399   4.945
88748SOL     OW68082  12.838   2.963   7.198
88748SOL    HW168083  12.897   2.942   7.270
88748SOL    HW268084  12.847   2.889   7.137
88749SOL     OW68085   0.181  10.370   4.224
88749SOL    HW168086   0.113  10.345   4.287
88749SOL    HW268087   0.138  10.362   4.139
88750SOL     OW68088   1.174   4.762  10.290
88750SOL    HW168089   1.186   4.822  10.217
88750SOL    HW268090   1.085   4.728  10.280
88751SOL     OW68091   7.635  13.439   0.329
88751SOL    HW168092   7.585  13.468   0.406
88751SOL    HW268093   7.584  13.472   0.255
88752SOL     OW68094  14.635   0.622   6.609
88752SOL    HW168095  14.662   0.711   6.633
88752SOL    HW268096  14.615   0.580   6.692
88753SOL     OW68097  13.277   4.796  10.208
88753SOL    HW168098  13.313   4.724  10.156
88753SOL    HW268099  13.189   4.809  10.171
88754SOL     OW68100   0.930  12.913   4.438
88754SOL    HW168101   0.903  12.954   4.520
88754SOL    HW268102   0.909  12.978   4.370
88755SOL     OW68103  12.164   1.384   6.992
88755SOL    HW168104  12.165   1.304   6.940
88755SOL    HW268105  12.242   1.432   6.965
88756SOL     OW68106   7.284   7.506   0.054
88756SOL    HW168107   7.253   7.554  14.860
88756SOL    HW268108   7.234   7.424   0.053
88757SOL     OW68109  10.213   2.481   9.908
88757SOL    HW168110  10.181   2.393   9.889
88757SOL    HW268111  10.141   2.522   9.957
88758SOL     OW68112   3.576  11.416   9.166
88758SOL    HW168113   3.490  11.421   9.207
88758SOL    HW268114   3.565  11.459   9.081
88759SOL     OW68115   1.583   1.069   4.724
88759SOL    HW168116   1.571   1.065   4.819
88759SOL    HW268117   1.640   0.995   4.704
88760SOL     OW68118   2.121   7.573   1.629
88760SOL    HW168119   2.163   7.498   1.671
88760SOL    HW268120   2.093   7.540   1.543
88761SOL     OW68121  11.306   6.362   9.220
88761SOL    HW168122  11.266   6.293   9.272
88761SOL    HW268123  11.360   6.411   9.282
88762SOL     OW68124  12.141   1.608   0.140
88762SOL    HW168125  12.190   1.556   0.204
88762SOL    HW268126  12.205   1.626   0.070
88763SOL     OW68127   0.746   1.725  13.296
88763SOL    HW168128   0.762   1.681  13.212
88763SOL    HW268129   0.796   1.806  13.291
88764SOL     OW68130   6.987   0.598   1.924
88764SOL    HW168131   6.906   0.566   1.883
88764SOL    HW268132   6.956   0.654   1.996
88765SOL     OW68133   1.790   0.160   5.513
88765SOL    HW168134   1.767   0.085   5.457
88765SOL    HW268135   1.882   0.147   5.534
88766SOL     OW68136   2.104   8.764   7.948
88766SOL    HW168137   2.034   8.769   8.014
88766SOL    HW268138   2.144   8.679   7.961
88767SOL     OW68139  11.059   8.794   6.761
88767SOL    HW168140  11.085   8.703   6.777
88767SOL    HW268141  11.122   8.826   6.697
88768SOL     OW68142  10.581   1.567  12.501
88768SOL    HW168143  10.519   1.516  12.552
88768SOL    HW268144  10.628   1.503  12.448
88769SOL     OW68145   7.242   8.915   7.124
88769SOL    HW168146   7.284   8.877   7.047
88769SOL    HW268147   7.170   8.854   7.144
88770SOL     OW68148   5.747   9.107   2.864
88770SOL    HW168149   5.776   9.022   2.831
88770SOL    HW268150   5.796   9.171   2.811
88771SOL     OW68151   7.178   7.594   5.316
88771SOL    HW168152   7.160   7.625   5.404
88771SOL    HW268153   7.273   7.587   5.312
88772SOL     OW68154   4.789   6.055   4.473
88772SOL    HW168155   4.763   5.972   4.514
88772SOL    HW268156   4.711   6.111   4.480
88773SOL     OW68157   3.262  11.734  12.618
88773SOL    HW168158   3.255  11.676  12.542
88773SOL    HW268159   3.253  11.677  12.694
88774SOL     OW68160  10.184   7.791  10.462
88774SOL    HW168161  10.161   7.726  10.529
88774SOL    HW268162  10.124   7.774  10.390
88775SOL     OW68163   4.642   5.840  12.660
88775SOL    HW168164   4.604   5.851  12.747
88775SOL    HW268165   4.721   5.788  12.674
88776SOL     OW68166   4.332  11.061   4.421
88776SOL    HW168167   4.273  11.003   4.372
88776SOL    HW268168   4.281  11.086   4.498
88777SOL     OW68169  14.444  14.073   8.289
88777SOL    HW168170  14.450  14.153   8.343
88777SOL    HW268171  14.527  14.069   8.243
88778SOL     OW68172   8.118   6.206   3.518
88778SOL    HW168173   8.083   6.240   3.435
88778SOL    HW268174   8.174   6.133   3.491
88779SOL     OW68175   3.027   6.812   7.595
88779SOL    HW168176   3.112   6.825   7.553
88779SOL    HW268177   3.047   6.794   7.686
88780SOL     OW68178   9.724   1.457  12.455
88780SOL    HW168179   9.656   1.505  12.503
88780SOL    HW268180   9.774   1.526  12.411
88781SOL     OW68181   9.972   2.795  11.459
88781SOL    HW168182  10.060   2.830  11.443
88781SOL    HW268183   9.949   2.829  11.546
88782SOL     OW68184  13.086   6.990  11.255
88782SOL    HW168185  13.111   6.901  11.278
88782SOL    HW268186  13.159   7.044  11.286
88783SOL     OW68187   9.094  12.263  12.612
88783SOL    HW168188   9.145  12.344  12.613
88783SOL    HW268189   9.006  12.289  12.636
88784SOL     OW68190   1.232   1.938   9.506
88784SOL    HW168191   1.288   1.987   9.566
88784SOL    HW268192   1.144   1.973   9.520
88785SOL     OW68193   1.584  14.205   7.840
88785SOL    HW168194   1.506  14.259   7.855
88785SOL    HW268195   1.648  14.238   7.903
88786SOL     OW68196   9.609   0.335   0.376
88786SOL    HW168197   9.549   0.399   0.339
88786SOL    HW268198   9.572   0.250   0.352
88787SOL     OW68199   3.804   5.467   5.970
88787SOL    HW168200   3.877   5.497   6.025
88787SOL    HW268201   3.837   5.389   5.926
88788SOL     OW68202   3.023   8.946  14.619
88788SOL    HW168203   2.993   8.856  14.631
88788SOL    HW268204   2.957   8.999  14.665
88789SOL     OW68205   6.190   6.006   1.703
88789SOL    HW168206   6.139   6.087   1.700
88789SOL    HW268207   6.278   6.034   1.728
88790SOL     OW68208   1.311   3.983   3.030
88790SOL    HW168209   1.237   3.974   3.089
88790SOL    HW268210   1.272   4.014   2.948
88791SOL     OW68211   5.945   1.424   4.592
88791SOL    HW168212   5.971   1.370   4.666
88791SOL    HW268213   6.026   1.439   4.543
88792SOL     OW68214  12.662   3.309  11.334
88792SOL    HW168215  12.735   3.323  11.274
88792SOL    HW268216  12.681   3.366  11.409
88793SOL     OW68217  13.882  14.005  10.870
88793SOL    HW168218  13.956  14.032  10.814
88793SOL    HW268219  13.841  13.933  10.822
88794SOL     OW68220   7.811  14.340   8.822
88794SOL    HW168221   7.730  14.361   8.868
88794SOL    HW268222   7.794  14.369   8.732
88795SOL     OW68223   3.577  10.001   8.681
88795SOL    HW168224   3.613   9.957   8.758
88795SOL    HW268225   3.622  10.086   8.679
88796SOL     OW68226   7.542   8.157  14.549
88796SOL    HW168227   7.571   8.070  14.521
88796SOL    HW268228   7.547   8.210  14.469
88797SOL     OW68229  12.825   6.270  14.784
88797SOL    HW168230  12.862   6.196  14.833
88797SOL    HW268231  12.855   6.347  14.832
88798SOL     OW68232  12.534   2.366  11.823
88798SOL    HW168233  12.581   2.447  11.807
88798SOL    HW268234  12.441   2.391  11.824
88799SOL     OW68235  12.975   3.268   6.798
88799SOL    HW168236  12.955   3.218   6.718
88799SOL    HW268237  12.966   3.359   6.772
88800SOL     OW68238   4.009   4.959  12.161
88800SOL    HW168239   4.045   4.874  12.187
88800SOL    HW268240   3.929   4.936  12.113
88801SOL     OW68241  12.225   2.025  11.705
88801SOL    HW168242  12.212   2.060  11.793
88801SOL    HW268243  12.166   1.950  11.700
88802SOL     OW68244   2.209  12.906   3.368
88802SOL    HW168245   2.153  12.828   3.355
88802SOL    HW268246   2.203  12.953   3.285
88803SOL     OW68247  12.529  10.916  11.501
88803SOL    HW168248  12.608  10.948  11.546
88803SOL    HW268249  12.508  10.834  11.544
88804SOL     OW68250   7.225  11.378   7.315
88804SOL    HW168251   7.221  11.474   7.317
88804SOL    HW268252   7.274  11.358   7.235
88805SOL     OW68253   8.130  13.636  12.472
88805SOL    HW168254   8.189  13.711  12.483
88805SOL    HW268255   8.100  13.642  12.382
88806SOL     OW68256  12.330   7.645   7.894
88806SOL    HW168257  12.391   7.614   7.827
88806SOL    HW268258  12.246   7.653   7.848
88807SOL     OW68259  12.033  11.663  12.508
88807SOL    HW168260  12.018  11.608  12.432
88807SOL    HW268261  11.946  11.690  12.536
88808SOL     OW68262   0.878  10.392   5.561
88808SOL    HW168263   0.866  10.299   5.580
88808SOL    HW268264   0.805  10.414   5.502
88809SOL     OW68265  11.633   0.683  11.770
88809SOL    HW168266  11.552   0.728  11.796
88809SOL    HW268267  11.624   0.673  11.675
88810SOL     OW68268   4.051   2.075   9.830
88810SOL    HW168269   4.010   2.145   9.880
88810SOL    HW268270   4.023   1.995   9.874
88811SOL     OW68271  12.235  13.514   8.968
88811SOL    HW168272  12.220  13.608   8.976
88811SOL    HW268273  12.170  13.474   9.026
88812SOL     OW68274   8.127  10.121   8.472
88812SOL    HW168275   8.142  10.211   8.442
88812SOL    HW268276   8.065  10.085   8.410
88813SOL     OW68277   8.498  14.012   0.529
88813SOL    HW168278   8.563  14.081   0.543
88813SOL    HW268279   8.445  14.044   0.456
88814SOL     OW68280  14.295  12.630   7.637
88814SOL    HW168281  14.375  12.622   7.586
88814SOL    HW268282  14.250  12.706   7.601
88815SOL     OW68283  14.408   6.032  11.824
88815SOL    HW168284  14.416   6.103  11.888
88815SOL    HW268285  14.494   5.990  11.823
88816SOL     OW68286   0.326   8.445  12.794
88816SOL    HW168287   0.379   8.380  12.747
88816SOL    HW268288   0.238   8.407  12.796
88817SOL     OW68289  14.254   3.092   7.564
88817SOL    HW168290  14.180   3.044   7.527
88817SOL    HW268291  14.264   3.055   7.652
88818SOL     OW68292   6.079   8.530  10.104
88818SOL    HW168293   6.000   8.529  10.050
88818SOL    HW268294   6.047   8.522  10.194
88819SOL     OW68295   4.606   1.765   8.035
88819SOL    HW168296   4.562   1.741   8.116
88819SOL    HW268297   4.579   1.697   7.973
88820SOL     OW68298   4.953   5.424   4.171
88820SOL    HW168299   5.004   5.489   4.122
88820SOL    HW268300   5.019   5.377   4.223
88821SOL     OW68301   3.054   8.274   6.671
88821SOL    HW168302   3.133   8.276   6.725
88821SOL    HW268303   2.996   8.212   6.715
88822SOL     OW68304   9.346   3.671   9.278
88822SOL    HW168305   9.299   3.589   9.296
88822SOL    HW268306   9.438   3.649   9.289
88823SOL     OW68307   5.299   5.329  14.471
88823SOL    HW168308   5.221   5.274  14.477
88823SOL    HW268309   5.265   5.417  14.455
88824SOL     OW68310  10.025  14.659  14.005
88824SOL    HW168311   9.995  14.715  13.933
88824SOL    HW268312  10.039  14.719  14.078
88825SOL     OW68313   8.984   7.905   3.405
88825SOL    HW168314   9.071   7.880   3.435
88825SOL    HW268315   8.959   7.836   3.344
88826SOL     OW68316  10.282  13.861  10.995
88826SOL    HW168317  10.335  13.931  10.957
88826SOL    HW268318  10.204  13.906  11.028
88827SOL     OW68319   9.546  11.594   7.532
88827SOL    HW168320   9.476  11.646   7.492
88827SOL    HW268321   9.608  11.659   7.565
88828SOL     OW68322   9.604   1.110   5.365
88828SOL    HW168323   9.600   1.111   5.269
88828SOL    HW268324   9.584   1.019   5.388
88829SOL     OW68325   8.278   5.838   4.463
88829SOL    HW168326   8.281   5.918   4.515
88829SOL    HW268327   8.337   5.777   4.508
88830SOL     OW68328   1.141   0.448  13.822
88830SOL    HW168329   1.212   0.392  13.789
88830SOL    HW268330   1.161   0.461  13.914
88831SOL     OW68331   2.893   0.339  11.750
88831SOL    HW168332   2.965   0.402  11.755
88831SOL    HW268333   2.830   0.370  11.815
88832SOL     OW68334  14.107   9.779   0.948
88832SOL    HW168335  14.026   9.826   0.968
88832SOL    HW268336  14.176   9.835   0.984
88833SOL     OW68337   8.500   3.948   8.240
88833SOL    HW168338   8.484   3.918   8.150
88833SOL    HW268339   8.521   4.041   8.231
88834SOL     OW68340   7.279  13.486  10.367
88834SOL    HW168341   7.315  13.574  10.358
88834SOL    HW268342   7.224  13.474  10.290
88835SOL     OW68343   0.121   7.486  13.257
88835SOL    HW168344   0.147   7.577  13.241
88835SOL    HW268345   0.027   7.491  13.277
88836SOL     OW68346   7.661   4.698  13.803
88836SOL    HW168347   7.630   4.735  13.885
88836SOL    HW268348   7.620   4.752  13.735
88837SOL     OW68349   0.889   1.729  12.186
88837SOL    HW168350   0.891   1.654  12.246
88837SOL    HW268351   0.958   1.710  12.122
88838SOL     OW68352   8.775  13.416   5.428
88838SOL    HW168353   8.800  13.449   5.514
88838SOL    HW268354   8.787  13.321   5.433
88839SOL     OW68355   2.714  11.882   2.218
88839SOL    HW168356   2.787  11.889   2.156
88839SOL    HW268357   2.665  11.805   2.188
88840SOL     OW68358  13.506  10.257   5.753
88840SOL    HW168359  13.537  10.188   5.812
88840SOL    HW268360  13.536  10.230   5.666
88841SOL     OW68361  14.092   9.241   7.994
88841SOL    HW168362  14.119   9.325   8.031
88841SOL    HW268363  14.159   9.221   7.928
88842SOL     OW68364   2.942  11.007  11.867
88842SOL    HW168365   3.028  10.964  11.870
88842SOL    HW268366   2.915  11.012  11.959
88843SOL     OW68367  14.858  11.386   0.465
88843SOL    HW168368  14.792  11.445   0.501
88843SOL    HW268369   0.049  11.443   0.441
88844SOL     OW68370  12.737   1.879  12.306
88844SOL    HW168371  12.665   1.940  12.322
88844SOL    HW268372  12.814   1.924  12.340
88845SOL     OW68373   1.230  12.391  10.972
88845SOL    HW168374   1.295  12.326  10.944
88845SOL    HW268375   1.255  12.413  11.061
88846SOL     OW68376  14.029  10.592   1.557
88846SOL    HW168377  13.942  10.604   1.594
88846SOL    HW268378  14.078  10.544   1.625
88847SOL     OW68379   7.004  10.608  11.105
88847SOL    HW168380   7.085  10.611  11.055
88847SOL    HW268381   6.941  10.656  11.051
88848SOL     OW68382  13.523  11.120   2.024
88848SOL    HW168383  13.608  11.164   2.032
88848SOL    HW268384  13.543  11.027   2.032
88849SOL     OW68385  11.487  10.038  10.646
88849SOL    HW168386  11.522  10.103  10.587
88849SOL    HW268387  11.530   9.956  10.620
88850SOL     OW68388  11.385   0.406   8.224
88850SOL    HW168389  11.412   0.345   8.293
88850SOL    HW268390  11.304   0.369   8.190
88851SOL     OW68391   4.956   0.805   3.262
88851SOL    HW168392   4.925   0.808   3.171
88851SOL    HW268393   5.014   0.729   3.265
88852SOL     OW68394   8.743   7.470   3.467
88852SOL    HW168395   8.743   7.463   3.563
88852SOL    HW268396   8.650   7.478   3.444
88853SOL     OW68397   4.277   7.849   2.458
88853SOL    HW168398   4.339   7.904   2.506
88853SOL    HW268399   4.206   7.834   2.520
88854SOL     OW68400   2.552   6.161  12.582
88854SOL    HW168401   2.576   6.070  12.601
88854SOL    HW268402   2.628   6.196  12.534
88855SOL     OW68403  11.271  12.445  10.692
88855SOL    HW168404  11.349  12.482  10.735
88855SOL    HW268405  11.274  12.352  10.715
88856SOL     OW68406   3.141   9.803   1.538
88856SOL    HW168407   3.237   9.807   1.534
88856SOL    HW268408   3.112   9.828   1.451
88857SOL     OW68409   3.009   8.850   9.250
88857SOL    HW168410   3.083   8.886   9.298
88857SOL    HW268411   2.965   8.927   9.214
88858SOL     OW68412  11.809  14.666   2.143
88858SOL    HW168413  11.805  14.620   2.059
88858SOL    HW268414  11.885  14.724   2.134
88859SOL     OW68415  10.022   5.281   4.657
88859SOL    HW168416  10.023   5.193   4.695
88859SOL    HW268417  10.029   5.266   4.562
88860SOL     OW68418   5.258   0.889   8.409
88860SOL    HW168419   5.302   0.974   8.403
88860SOL    HW268420   5.250   0.872   8.503
88861SOL     OW68421   6.267   3.358   8.866
88861SOL    HW168422   6.297   3.448   8.854
88861SOL    HW268423   6.184   3.367   8.914
88862SOL     OW68424   8.949   0.009  13.899
88862SOL    HW168425   8.871   0.025  13.951
88862SOL    HW268426   8.922  14.822  13.837
88863SOL     OW68427  14.868  12.721   1.115
88863SOL    HW168428  14.793  12.780   1.111
88863SOL    HW268429  14.840  12.645   1.063
88864SOL     OW68430   9.100  13.101  11.822
88864SOL    HW168431   9.156  13.114  11.899
88864SOL    HW268432   9.071  13.190  11.799
88865SOL     OW68433  10.613  11.182   3.554
88865SOL    HW168434  10.654  11.249   3.608
88865SOL    HW268435  10.603  11.222   3.468
88866SOL     OW68436  10.116   6.658   2.807
88866SOL    HW168437  10.058   6.614   2.746
88866SOL    HW268438  10.121   6.600   2.883
88867SOL     OW68439  11.723   8.140  11.543
88867SOL    HW168440  11.794   8.100  11.594
88867SOL    HW268441  11.652   8.076  11.547
88868SOL     OW68442  11.564  14.308   6.211
88868SOL    HW168443  11.606  14.377   6.160
88868SOL    HW268444  11.470  14.328   6.206
88869SOL     OW68445   7.285   2.422   4.775
88869SOL    HW168446   7.315   2.481   4.706
88869SOL    HW268447   7.237   2.478   4.836
88870SOL     OW68448   2.330   5.715  11.730
88870SOL    HW168449   2.339   5.798  11.778
88870SOL    HW268450   2.408   5.665  11.756
88871SOL     OW68451  14.216   0.088   4.906
88871SOL    HW168452  14.201   0.058   4.817
88871SOL    HW268453  14.147   0.048   4.958
88872SOL     OW68454  11.528   7.097  14.450
88872SOL    HW168455  11.573   7.166  14.499
88872SOL    HW268456  11.570   7.016  14.478
88873SOL     OW68457   2.753   8.291   0.350
88873SOL    HW168458   2.806   8.238   0.410
88873SOL    HW268459   2.695   8.341   0.408
88874SOL     OW68460   0.479   4.048  10.389
88874SOL    HW168461   0.401   4.093  10.355
88874SOL    HW268462   0.451   4.008  10.471
88875SOL     OW68463  14.505  10.394   8.913
88875SOL    HW168464  14.525  10.454   8.984
88875SOL    HW268465  14.541  10.435   8.835
88876SOL     OW68466  14.402   0.676   9.269
88876SOL    HW168467  14.460   0.687   9.344
88876SOL    HW268468  14.357   0.593   9.285
88877SOL     OW68469   6.745  10.536   2.443
88877SOL    HW168470   6.808  10.501   2.506
88877SOL    HW268471   6.690  10.461   2.420
88878SOL     OW68472   7.832  12.830  10.545
88878SOL    HW168473   7.794  12.787  10.468
88878SOL    HW268474   7.787  12.914  10.550
88879SOL     OW68475   5.957  10.986  11.522
88879SOL    HW168476   5.897  10.917  11.495
88879SOL    HW268477   6.041  10.962  11.481
88880SOL     OW68478   8.658   2.946   1.836
88880SOL    HW168479   8.653   2.989   1.750
88880SOL    HW268480   8.691   2.858   1.817
88881SOL     OW68481   9.699   0.637   0.185
88881SOL    HW168482   9.689   0.664   0.276
88881SOL    HW268483   9.617   0.661   0.143
88882SOL     OW68484   1.163  14.877   8.393
88882SOL    HW168485   1.143  14.793   8.433
88882SOL    HW268486   1.172  14.857   8.300
88883SOL     OW68487  12.540  12.083   7.031
88883SOL    HW168488  12.458  12.049   7.069
88883SOL    HW268489  12.599  12.008   7.031
88884SOL     OW68490  12.100  12.850   8.204
88884SOL    HW168491  12.068  12.781   8.262
88884SOL    HW268492  12.106  12.807   8.118
88885SOL     OW68493   9.238   5.398   6.313
88885SOL    HW168494   9.160   5.409   6.367
88885SOL    HW268495   9.290   5.476   6.330
88886SOL     OW68496  13.959   1.126   4.019
88886SOL    HW168497  13.988   1.131   4.110
88886SOL    HW268498  13.973   1.214   3.985
88887SOL     OW68499   6.289   4.303  14.221
88887SOL    HW168500   6.371   4.256  14.236
88887SOL    HW268501   6.221   4.241  14.249
88888SOL     OW68502  10.957  10.239  13.936
88888SOL    HW168503  10.890  10.213  13.998
88888SOL    HW268504  11.018  10.292  13.987
88889SOL     OW68505   8.939   5.033   7.996
88889SOL    HW168506   8.888   5.027   8.076
88889SOL    HW268507   8.986   5.116   8.003
88890SOL     OW68508   0.306  13.003   7.037
88890SOL    HW168509   0.379  12.997   7.099
88890SOL    HW268510   0.238  13.050   7.084
88891SOL     OW68511   7.727   6.196   2.616
88891SOL    HW168512   7.653   6.180   2.675
88891SOL    HW268513   7.745   6.111   2.576
88892SOL     OW68514   4.280   7.371  12.586
88892SOL    HW168515   4.298   7.285  12.547
88892SOL    HW268516   4.359   7.422  12.568
88893SOL     OW68517  12.314   1.622  10.200
88893SOL    HW168518  12.295   1.651  10.110
88893SOL    HW268519  12.390   1.673  10.226
88894SOL     OW68520  11.158   6.145   9.837
88894SOL    HW168521  11.072   6.137   9.796
88894SOL    HW268522  11.201   6.061   9.821
88895SOL     OW68523   4.984   4.470   3.297
88895SOL    HW168524   4.892   4.485   3.316
88895SOL    HW268525   5.017   4.424   3.375
88896SOL     OW68526   0.265   2.239   7.288
88896SOL    HW168527   0.191   2.264   7.344
88896SOL    HW268528   0.300   2.323   7.256
88897SOL     OW68529   5.279   8.325  14.590
88897SOL    HW168530   5.226   8.285  14.521
88897SOL    HW268531   5.235   8.302  14.672
88898SOL     OW68532  14.728   1.583  10.529
88898SOL    HW168533  14.784   1.630  10.468
88898SOL    HW268534  14.649   1.564  10.479
88899SOL     OW68535  11.910  14.455   8.478
88899SOL    HW168536  11.872  14.540   8.457
88899SOL    HW268537  12.002  14.463   8.454
88900SOL     OW68538   4.378  10.064   9.450
88900SOL    HW168539   4.441  10.047   9.520
88900SOL    HW268540   4.342   9.978   9.429
88901SOL     OW68541   0.942   2.760  13.567
88901SOL    HW168542   0.987   2.838  13.599
88901SOL    HW268543   1.011   2.697  13.549
88902SOL     OW68544  11.323  10.803   4.741
88902SOL    HW168545  11.320  10.881   4.685
88902SOL    HW268546  11.231  10.778   4.751
88903SOL     OW68547   0.346   6.648   9.976
88903SOL    HW168548   0.267   6.702   9.977
88903SOL    HW268549   0.418   6.710   9.989
88904SOL     OW68550   2.836   0.466  14.167
88904SOL    HW168551   2.835   0.530  14.238
88904SOL    HW268552   2.925   0.431  14.167
88905SOL     OW68553   6.415   6.802   7.567
88905SOL    HW168554   6.484   6.866   7.550
88905SOL    HW268555   6.435   6.768   7.654
88906SOL     OW68556   6.570   7.388  13.326
88906SOL    HW168557   6.518   7.413  13.402
88906SOL    HW268558   6.610   7.304  13.351
88907SOL     OW68559   0.673   5.661  14.661
88907SOL    HW168560   0.612   5.734  14.651
88907SOL    HW268561   0.752   5.702  14.697
88908SOL     OW68562   8.802  14.824  14.216
88908SOL    HW168563   8.851  14.752  14.176
88908SOL    HW268564   8.850  14.843  14.297
88909SOL     OW68565  14.226   0.787   6.561
88909SOL    HW168566  14.257   0.855   6.501
88909SOL    HW268567  14.208   0.833   6.643
88910SOL     OW68568   6.012   1.797  10.480
88910SOL    HW168569   6.076   1.809  10.551
88910SOL    HW268570   6.055   1.835  10.403
88911SOL     OW68571   5.037  13.311   3.180
88911SOL    HW168572   5.069  13.264   3.103
88911SOL    HW268573   5.111  13.366   3.207
88912SOL     OW68574   9.730   5.144   4.657
88912SOL    HW168575   9.730   5.238   4.637
88912SOL    HW268576   9.813   5.130   4.703
88913SOL     OW68577  13.730   7.650   1.098
88913SOL    HW168578  13.650   7.606   1.129
88913SOL    HW268579  13.698   7.726   1.050
88914SOL     OW68580   2.590   9.681   3.460
88914SOL    HW168581   2.534   9.740   3.409
88914SOL    HW268582   2.630   9.738   3.526
88915SOL     OW68583   3.046   1.504   1.258
88915SOL    HW168584   3.070   1.564   1.329
88915SOL    HW268585   3.124   1.502   1.201
88916SOL     OW68586  10.234   4.249  13.421
88916SOL    HW168587  10.244   4.154  13.415
88916SOL    HW268588  10.219   4.278  13.331
88917SOL     OW68589   2.763   0.621  11.796
88917SOL    HW168590   2.727   0.548  11.846
88917SOL    HW268591   2.738   0.699  11.845
88918SOL     OW68592   5.377  10.620   0.640
88918SOL    HW168593   5.314  10.670   0.588
88918SOL    HW268594   5.355  10.528   0.623
88919SOL     OW68595   7.904  10.863   0.605
88919SOL    HW168596   7.912  10.958   0.592
88919SOL    HW268597   7.823  10.840   0.560
88920SOL     OW68598  11.227   2.158   0.313
88920SOL    HW168599  11.148   2.172   0.365
88920SOL    HW268600  11.270   2.244   0.310
88921SOL     OW68601  11.074  12.060   0.265
88921SOL    HW168602  11.070  12.135   0.206
88921SOL    HW268603  11.167  12.045   0.280
88922SOL     OW68604   3.827   0.773  12.791
88922SOL    HW168605   3.910   0.807  12.825
88922SOL    HW268606   3.762   0.799  12.857
88923SOL     OW68607   7.891   5.233   4.210
88923SOL    HW168608   7.846   5.155   4.177
88923SOL    HW268609   7.908   5.213   4.302
88924SOL     OW68610  13.084   7.759  10.932
88924SOL    HW168611  13.064   7.685  10.988
88924SOL    HW268612  13.058   7.731  10.844
88925SOL     OW68613   5.618  11.981  12.236
88925SOL    HW168614   5.621  11.935  12.321
88925SOL    HW268615   5.573  12.063  12.255
88926SOL     OW68616  11.896   0.693   0.927
88926SOL    HW168617  11.973   0.690   0.983
88926SOL    HW268618  11.851   0.610   0.943
88927SOL     OW68619   2.487   6.224   1.380
88927SOL    HW168620   2.554   6.215   1.313
88927SOL    HW268621   2.424   6.155   1.360
88928SOL     OW68622  12.933   8.068   9.229
88928SOL    HW168623  13.017   8.087   9.271
88928SOL    HW268624  12.951   7.994   9.171
88929SOL     OW68625  14.582  12.821  12.599
88929SOL    HW168626  14.539  12.897  12.561
88929SOL    HW268627  14.674  12.830  12.575
88930SOL     OW68628   9.155  12.806  14.705
88930SOL    HW168629   9.160  12.744  14.778
88930SOL    HW268630   9.084  12.865  14.730
88931SOL     OW68631   7.178   5.461  11.463
88931SOL    HW168632   7.096   5.450  11.414
88931SOL    HW268633   7.172   5.397  11.535
88932SOL     OW68634   5.645   7.334   9.833
88932SOL    HW168635   5.666   7.255   9.782
88932SOL    HW268636   5.731   7.366   9.863
88933SOL     OW68637  13.258   4.317   2.137
88933SOL    HW168638  13.174   4.270   2.144
88933SOL    HW268639  13.317   4.268   2.195
88934SOL     OW68640   3.820   1.274   6.968
88934SOL    HW168641   3.840   1.239   7.054
88934SOL    HW268642   3.724   1.282   6.967
88935SOL     OW68643   9.388  14.191   8.970
88935SOL    HW168644   9.446  14.265   8.988
88935SOL    HW268645   9.426  14.119   9.020
88936SOL     OW68646   1.127   0.181   3.057
88936SOL    HW168647   1.067   0.164   3.130
88936SOL    HW268648   1.069   0.199   2.983
88937SOL     OW68649   3.567  11.742   7.127
88937SOL    HW168650   3.650  11.696   7.135
88937SOL    HW268651   3.591  11.829   7.095
88938SOL     OW68652   4.828  10.664   5.187
88938SOL    HW168653   4.833  10.580   5.233
88938SOL    HW268654   4.738  10.668   5.154
88939SOL     OW68655   7.782   6.397  14.038
88939SOL    HW168656   7.821   6.481  14.061
88939SOL    HW268657   7.827   6.369  13.959
88940SOL     OW68658  12.867   4.958  12.452
88940SOL    HW168659  12.933   4.988  12.514
88940SOL    HW268660  12.785   4.997  12.483
88941SOL     OW68661   1.439   3.412  10.628
88941SOL    HW168662   1.452   3.441  10.538
88941SOL    HW268663   1.510   3.452  10.677
88942SOL     OW68664  11.066   3.657  12.207
88942SOL    HW168665  11.050   3.565  12.184
88942SOL    HW268666  11.145   3.681  12.160
88943SOL     OW68667   7.750  12.790   7.380
88943SOL    HW168668   7.770  12.809   7.472
88943SOL    HW268669   7.777  12.699   7.368
88944SOL     OW68670  14.036   7.520   5.658
88944SOL    HW168671  14.107   7.554   5.713
88944SOL    HW268672  14.002   7.445   5.707
88945SOL     OW68673  13.631  11.534  14.126
88945SOL    HW168674  13.554  11.485  14.156
88945SOL    HW268675  13.684  11.547  14.205
88946SOL     OW68676   1.207  14.754  10.014
88946SOL    HW168677   1.214  14.809   9.936
88946SOL    HW268678   1.131  14.698   9.997
88947SOL     OW68679   9.371   0.849   9.795
88947SOL    HW168680   9.375   0.944   9.793
88947SOL    HW268681   9.440   0.823   9.856
88948SOL     OW68682  12.230  13.593   0.936
88948SOL    HW168683  12.256  13.515   0.984
88948SOL    HW268684  12.188  13.560   0.856
88949SOL     OW68685   0.499   4.615   0.438
88949SOL    HW168686   0.414   4.573   0.426
88949SOL    HW268687   0.541   4.608   0.352
88950SOL     OW68688   3.067   0.106   8.516
88950SOL    HW168689   3.136   0.170   8.535
88950SOL    HW268690   3.107   0.046   8.452
88951SOL     OW68691   5.445   2.784  12.079
88951SOL    HW168692   5.490   2.700  12.077
88951SOL    HW268693   5.424   2.803  11.988
88952SOL     OW68694   7.717   1.674   3.354
88952SOL    HW168695   7.755   1.761   3.364
88952SOL    HW268696   7.700   1.645   3.444
88953SOL     OW68697  10.731  13.888   8.099
88953SOL    HW168698  10.818  13.891   8.059
88953SOL    HW268699  10.726  13.800   8.138
88954SOL     OW68700   0.519   2.389   6.495
88954SOL    HW168701   0.429   2.357   6.494
88954SOL    HW268702   0.514   2.476   6.455
88955SOL     OW68703   0.613   1.841   2.060
88955SOL    HW168704   0.548   1.829   1.991
88955SOL    HW268705   0.575   1.906   2.118
88956SOL     OW68706   1.098  14.072   7.805
88956SOL    HW168707   1.178  14.095   7.757
88956SOL    HW268708   1.036  14.046   7.737
88957SOL     OW68709   5.566  14.820   2.515
88957SOL    HW168710   5.567  14.866   2.599
88957SOL    HW268711   5.487  14.852   2.472
88958SOL     OW68712   2.153   2.064  10.959
88958SOL    HW168713   2.230   2.012  10.938
88958SOL    HW268714   2.091   2.046  10.888
88959SOL     OW68715   1.287   4.280  13.510
88959SOL    HW168716   1.374   4.309  13.538
88959SOL    HW268717   1.254   4.351  13.455
88960SOL     OW68718   9.328   1.293  14.215
88960SOL    HW168719   9.357   1.320  14.128
88960SOL    HW268720   9.409   1.278  14.264
88961SOL     OW68721   7.452  12.579   2.901
88961SOL    HW168722   7.412  12.637   2.965
88961SOL    HW268723   7.522  12.534   2.949
88962SOL     OW68724   5.007   7.467   6.751
88962SOL    HW168725   4.994   7.378   6.718
88962SOL    HW268726   5.066   7.456   6.825
88963SOL     OW68727   8.303   3.720   6.022
88963SOL    HW168728   8.313   3.785   5.952
88963SOL    HW268729   8.292   3.637   5.976
88964SOL     OW68730  10.682   9.786  10.933
88964SOL    HW168731  10.627   9.851  10.977
88964SOL    HW268732  10.697   9.822  10.846
88965SOL     OW68733   3.625   4.466   7.065
88965SOL    HW168734   3.621   4.539   7.004
88965SOL    HW268735   3.713   4.468   7.101
88966SOL     OW68736   4.918   1.346   9.305
88966SOL    HW168737   5.002   1.386   9.281
88966SOL    HW268738   4.856   1.378   9.240
88967SOL     OW68739  12.085   5.946  11.087
88967SOL    HW168740  11.999   5.988  11.085
88967SOL    HW268741  12.083   5.891  11.166
88968SOL     OW68742   3.650  14.779  14.418
88968SOL    HW168743   3.637  14.850  14.354
88968SOL    HW268744   3.743  14.782  14.439
88969SOL     OW68745   7.101  11.372   8.284
88969SOL    HW168746   7.045  11.378   8.206
88969SOL    HW268747   7.065  11.298   8.333
88970SOL     OW68748  14.114   7.833   4.390
88970SOL    HW168749  14.090   7.919   4.356
88970SOL    HW268750  14.090   7.773   4.319
88971SOL     OW68751   0.778  12.179   9.759
88971SOL    HW168752   0.852  12.238   9.747
88971SOL    HW268753   0.797  12.134   9.842
88972SOL     OW68754   1.093   7.453  13.753
88972SOL    HW168755   1.124   7.540  13.780
88972SOL    HW268756   0.998   7.457  13.767
88973SOL     OW68757  12.508  10.941  10.442
88973SOL    HW168758  12.467  10.868  10.487
88973SOL    HW268759  12.442  11.011  10.443
88974SOL     OW68760  12.944   3.999   3.846
88974SOL    HW168761  13.024   3.962   3.810
88974SOL    HW268762  12.926   4.076   3.793
88975SOL     OW68763   2.460   9.757   9.647
88975SOL    HW168764   2.503   9.712   9.574
88975SOL    HW268765   2.394   9.812   9.606
88976SOL     OW68766   6.898   4.664  14.482
88976SOL    HW168767   6.991   4.683  14.474
88976SOL    HW268768   6.859   4.701  14.403
88977SOL     OW68769   2.182   5.346   6.900
88977SOL    HW168770   2.193   5.376   6.991
88977SOL    HW268771   2.171   5.251   6.908
88978SOL     OW68772  13.409   1.019   2.569
88978SOL    HW168773  13.341   1.064   2.520
88978SOL    HW268774  13.361   0.969   2.636
88979SOL     OW68775   5.821  12.977  10.283
88979SOL    HW168776   5.736  13.018  10.265
88979SOL    HW268777   5.810  12.936  10.368
88980SOL     OW68778  10.853   1.613  12.751
88980SOL    HW168779  10.948   1.622  12.757
88980SOL    HW268780  10.840   1.529  12.706
88981SOL     OW68781   1.527   6.412  11.176
88981SOL    HW168782   1.504   6.445  11.089
88981SOL    HW268783   1.556   6.489  11.224
88982SOL     OW68784  10.525  13.317   6.722
88982SOL    HW168785  10.558  13.311   6.632
88982SOL    HW268786  10.454  13.381   6.717
88983SOL     OW68787   5.985   7.921  11.063
88983SOL    HW168788   5.998   7.922  10.968
88983SOL    HW268789   5.945   7.836  11.082
88984SOL     OW68790   9.187   3.237  12.767
88984SOL    HW168791   9.246   3.164  12.749
88984SOL    HW268792   9.103   3.209  12.731
88985SOL     OW68793   4.870   3.888   1.690
88985SOL    HW168794   4.854   3.981   1.708
88985SOL    HW268795   4.885   3.849   1.776
88986SOL     OW68796   9.879  14.170   5.417
88986SOL    HW168797   9.949  14.185   5.481
88986SOL    HW268798   9.801  14.152   5.471
88987SOL     OW68799  14.299   9.233  14.243
88987SOL    HW168800  14.362   9.268  14.306
88987SOL    HW268801  14.346   9.161  14.201
88988SOL     OW68802   6.270  11.531  12.205
88988SOL    HW168803   6.328  11.502  12.134
88988SOL    HW268804   6.195  11.472  12.199
88989SOL     OW68805   3.244   8.455   0.538
88989SOL    HW168806   3.185   8.519   0.579
88989SOL    HW268807   3.217   8.454   0.446
88990SOL     OW68808   6.825   3.700  10.542
88990SOL    HW168809   6.903   3.663  10.584
88990SOL    HW268810   6.757   3.696  10.610
88991SOL     OW68811   3.261   5.627  12.956
88991SOL    HW168812   3.256   5.657  13.047
88991SOL    HW268813   3.186   5.667  12.913
88992SOL     OW68814   6.634   5.538  11.022
88992SOL    HW168815   6.565   5.602  11.040
88992SOL    HW268816   6.712   5.576  11.063
88993SOL     OW68817  11.987  11.100   9.203
88993SOL    HW168818  11.994  11.181   9.253
88993SOL    HW268819  11.944  11.126   9.121
88994SOL     OW68820   2.185   4.799  10.360
88994SOL    HW168821   2.166   4.893  10.351
88994SOL    HW268822   2.262   4.795  10.418
88995SOL     OW68823   2.092   0.029   1.949
88995SOL    HW168824   2.174  14.879   1.911
88995SOL    HW268825   2.054   0.083   1.880
88996SOL     OW68826   3.686  13.779   5.569
88996SOL    HW168827   3.738  13.844   5.616
88996SOL    HW268828   3.667  13.821   5.484
88997SOL     OW68829  13.649   5.222   7.253
88997SOL    HW168830  13.561   5.186   7.257
88997SOL    HW268831  13.702   5.150   7.218
88998SOL     OW68832  11.390   0.552  13.083
88998SOL    HW168833  11.299   0.523  13.088
88998SOL    HW268834  11.384   0.647  13.072
88999SOL     OW68835   3.151   0.336  13.097
88999SOL    HW168836   3.065   0.342  13.055
88999SOL    HW268837   3.132   0.308  13.186
89000SOL     OW68838   2.033   1.258   6.598
89000SOL    HW168839   2.016   1.292   6.687
89000SOL    HW268840   2.112   1.303   6.570
89001SOL     OW68841   1.786  11.627   9.443
89001SOL    HW168842   1.719  11.636   9.511
89001SOL    HW268843   1.844  11.558   9.476
89002SOL     OW68844   0.269   9.983  11.342
89002SOL    HW168845   0.182   9.978  11.382
89002SOL    HW268846   0.323  10.027  11.409
89003SOL     OW68847   3.058   7.919   6.810
89003SOL    HW168848   2.986   7.982   6.809
89003SOL    HW268849   3.037   7.859   6.881
89004SOL     OW68850  11.087   4.731   6.699
89004SOL    HW168851  11.033   4.809   6.713
89004SOL    HW268852  11.050   4.665   6.758
89005SOL     OW68853  14.026   8.532   7.170
89005SOL    HW168854  13.963   8.524   7.099
89005SOL    HW268855  13.973   8.550   7.248
89006SOL     OW68856   5.865  10.507   1.297
89006SOL    HW168857   5.873  10.470   1.385
89006SOL    HW268858   5.954  10.503   1.261
89007SOL     OW68859   4.940   2.500   6.451
89007SOL    HW168860   4.980   2.576   6.410
89007SOL    HW268861   4.947   2.431   6.385
89008SOL     OW68862   4.671   1.855  13.732
89008SOL    HW168863   4.640   1.784  13.676
89008SOL    HW268864   4.639   1.833  13.820
89009SOL     OW68865   7.398   3.288   8.078
89009SOL    HW168866   7.369   3.301   8.168
89009SOL    HW268867   7.327   3.323   8.024
89010SOL     OW68868   5.304  10.335   0.786
89010SOL    HW168869   5.261  10.379   0.713
89010SOL    HW268870   5.265  10.373   0.865
89011SOL     OW68871   4.651  10.276   8.185
89011SOL    HW168872   4.680  10.360   8.219
89011SOL    HW268873   4.606  10.235   8.259
89012SOL     OW68874   1.362   5.847  11.375
89012SOL    HW168875   1.302   5.818  11.307
89012SOL    HW268876   1.447   5.809  11.350
89013SOL     OW68877  13.301   6.170   3.097
89013SOL    HW168878  13.244   6.158   3.021
89013SOL    HW268879  13.251   6.227   3.156
89014SOL     OW68880   7.331   9.619  10.334
89014SOL    HW168881   7.406   9.609  10.275
89014SOL    HW268882   7.259   9.577  10.288
89015SOL     OW68883   0.983   8.666  13.647
89015SOL    HW168884   0.963   8.686  13.556
89015SOL    HW268885   0.919   8.599  13.672
89016SOL     OW68886  13.216   8.069   2.442
89016SOL    HW168887  13.278   8.046   2.373
89016SOL    HW268888  13.249   8.022   2.519
89017SOL     OW68889   0.360   4.022   6.449
89017SOL    HW168890   0.413   4.009   6.528
89017SOL    HW268891   0.366   3.940   6.401
89018SOL     OW68892   2.984   3.286  11.614
89018SOL    HW168893   2.912   3.349  11.622
89018SOL    HW268894   2.969   3.242  11.530
89019SOL     OW68895   2.435   0.879   9.286
89019SOL    HW168896   2.345   0.848   9.293
89019SOL    HW268897   2.476   0.823   9.219
89020SOL     OW68898  12.666   8.708   2.546
89020SOL    HW168899  12.601   8.747   2.604
89020SOL    HW268900  12.614   8.673   2.473
89021SOL     OW68901   3.221  12.784   5.146
89021SOL    HW168902   3.143  12.773   5.092
89021SOL    HW268903   3.272  12.851   5.101
89022SOL     OW68904   4.461   4.759  12.274
89022SOL    HW168905   4.406   4.794  12.204
89022SOL    HW268906   4.404   4.701  12.324
89023SOL     OW68907   0.086   3.184   2.440
89023SOL    HW168908   0.043   3.158   2.358
89023SOL    HW268909   0.025   3.246   2.480
89024SOL     OW68910   0.406  12.543  12.193
89024SOL    HW168911   0.402  12.510  12.283
89024SOL    HW268912   0.485  12.598  12.191
89025SOL     OW68913  12.528   2.012  12.354
89025SOL    HW168914  12.471   2.089  12.352
89025SOL    HW268915  12.495   1.959  12.426
89026SOL     OW68916   5.745   3.286  11.304
89026SOL    HW168917   5.788   3.220  11.359
89026SOL    HW268918   5.674   3.320  11.359
89027SOL     OW68919  14.578   7.460   6.594
89027SOL    HW168920  14.583   7.365   6.602
89027SOL    HW268921  14.600   7.478   6.503
89028SOL     OW68922   0.520   2.503  13.453
89028SOL    HW168923   0.536   2.427  13.398
89028SOL    HW268924   0.577   2.490  13.529
89029SOL     OW68925  14.401   9.824   6.634
89029SOL    HW168926  14.345   9.757   6.595
89029SOL    HW268927  14.353   9.906   6.622
89030SOL     OW68928  13.088   7.916   9.911
89030SOL    HW168929  13.083   7.984   9.978
89030SOL    HW268930  13.014   7.858   9.930
89031SOL     OW68931   3.976   2.213   5.911
89031SOL    HW168932   4.068   2.234   5.892
89031SOL    HW268933   3.931   2.223   5.828
89032SOL     OW68934   2.611  10.024  10.469
89032SOL    HW168935   2.656   9.940  10.465
89032SOL    HW268936   2.679  10.087  10.494
89033SOL     OW68937  11.777  10.349   5.649
89033SOL    HW168938  11.758  10.300   5.569
89033SOL    HW268939  11.712  10.319   5.712
89034SOL     OW68940   8.159   1.246   4.792
89034SOL    HW168941   8.194   1.179   4.734
89034SOL    HW268942   8.186   1.219   4.880
89035SOL     OW68943   6.069  11.910  11.782
89035SOL    HW168944   6.040  11.856  11.709
89035SOL    HW268945   6.057  11.855  11.860
89036SOL     OW68946   1.984  10.569   1.761
89036SOL    HW168947   1.935  10.651   1.759
89036SOL    HW268948   1.958  10.527   1.843
89037SOL     OW68949  10.109  11.280   0.032
89037SOL    HW168950  10.110  11.257   0.125
89037SOL    HW268951  10.192  11.327   0.019
89038SOL     OW68952   2.294   8.264   3.443
89038SOL    HW168953   2.319   8.181   3.403
89038SOL    HW268954   2.373   8.317   3.441
89039SOL     OW68955   9.748  11.282   1.293
89039SOL    HW168956   9.829  11.300   1.340
89039SOL    HW268957   9.753  11.189   1.270
89040SOL     OW68958   7.407   9.629  12.530
89040SOL    HW168959   7.466   9.702  12.511
89040SOL    HW268960   7.382   9.641  12.621
89041SOL     OW68961  10.900   3.844   6.620
89041SOL    HW168962  10.855   3.778   6.567
89041SOL    HW268963  10.953   3.793   6.682
89042SOL     OW68964   2.613   0.357  13.456
89042SOL    HW168965   2.681   0.412  13.496
89042SOL    HW268966   2.531   0.404  13.472
89043SOL     OW68967  13.799  12.477   5.614
89043SOL    HW168968  13.853  12.549   5.582
89043SOL    HW268969  13.744  12.453   5.539
89044SOL     OW68970   5.187   0.385   8.974
89044SOL    HW168971   5.177   0.328   9.050
89044SOL    HW268972   5.174   0.474   9.007
89045SOL     OW68973   4.580   5.883  10.426
89045SOL    HW168974   4.489   5.910  10.416
89045SOL    HW268975   4.576   5.790  10.444
89046SOL     OW68976   8.368  10.297   5.315
89046SOL    HW168977   8.457  10.313   5.285
89046SOL    HW268978   8.365  10.202   5.331
89047SOL     OW68979   8.772   2.948  13.858
89047SOL    HW168980   8.744   3.039  13.871
89047SOL    HW268981   8.826   2.951  13.779
89048SOL     OW68982   5.019   7.228   0.432
89048SOL    HW168983   5.026   7.245   0.339
89048SOL    HW268984   4.928   7.205   0.446
89049SOL     OW68985   1.089   6.239  11.887
89049SOL    HW168986   1.143   6.171  11.847
89049SOL    HW268987   1.080   6.305  11.818
89050SOL     OW68988   8.511   7.708   4.492
89050SOL    HW168989   8.471   7.736   4.410
89050SOL    HW268990   8.488   7.616   4.500
89051SOL     OW68991   5.322   6.013   6.849
89051SOL    HW168992   5.323   5.967   6.933
89051SOL    HW268993   5.230   6.029   6.832
89052SOL     OW68994  14.711   5.330  10.292
89052SOL    HW168995  14.755   5.414  10.279
89052SOL    HW268996  14.777   5.265  10.268
89053SOL     OW68997  13.803   9.980   2.136
89053SOL    HW168998  13.826  10.012   2.223
89053SOL    HW268999  13.816  10.056   2.079
89054SOL     OW69000   9.186   7.233  13.961
89054SOL    HW169001   9.273   7.198  13.977
89054SOL    HW269002   9.148   7.173  13.897
89055SOL     OW69003  13.315  11.814   7.032
89055SOL    HW169004  13.350  11.840   7.117
89055SOL    HW269005  13.389  11.773   6.987
89056SOL     OW69006   8.581   7.882   2.992
89056SOL    HW169007   8.521   7.944   2.950
89056SOL    HW269008   8.605   7.821   2.922
89057SOL     OW69009  14.569   0.179  12.411
89057SOL    HW169010  14.492   0.206  12.361
89057SOL    HW269011  14.624   0.134  12.347
89058SOL     OW69012  14.506  12.601   8.052
89058SOL    HW169013  14.448  12.664   8.009
89058SOL    HW269014  14.481  12.606   8.144
89059SOL     OW69015   1.523   5.366  12.794
89059SOL    HW169016   1.553   5.451  12.826
89059SOL    HW269017   1.542   5.368  12.700
89060SOL     OW69018   7.745  14.726  10.148
89060SOL    HW169019   7.693  14.763  10.078
89060SOL    HW269020   7.681  14.700  10.215
89061SOL     OW69021   7.164   6.174   2.292
89061SOL    HW169022   7.226   6.101   2.282
89061SOL    HW269023   7.133   6.191   2.203
89062SOL     OW69024  11.017  11.083  12.124
89062SOL    HW169025  10.966  11.146  12.072
89062SOL    HW269026  11.036  11.012  12.063
89063SOL     OW69027  11.702  12.842   7.750
89063SOL    HW169028  11.745  12.867   7.832
89063SOL    HW269029  11.651  12.919   7.725
89064SOL     OW69030   2.353   4.699  12.562
89064SOL    HW169031   2.360   4.620  12.508
89064SOL    HW269032   2.437   4.704  12.608
89065SOL     OW69033   3.806   0.893   8.103
89065SOL    HW169034   3.803   0.989   8.099
89065SOL    HW269035   3.737   0.864   8.042
89066SOL     OW69036  14.064   0.562   9.872
89066SOL    HW169037  13.970   0.544   9.881
89066SOL    HW269038  14.087   0.606   9.954
89067SOL     OW69039   0.701   7.061   2.597
89067SOL    HW169040   0.627   7.120   2.580
89067SOL    HW269041   0.714   7.015   2.514
89068SOL     OW69042   9.868   9.207   2.534
89068SOL    HW169043   9.783   9.249   2.522
89068SOL    HW269044   9.915   9.266   2.594
89069SOL     OW69045  11.996  10.415   2.512
89069SOL    HW169046  11.974  10.472   2.438
89069SOL    HW269047  11.912  10.390   2.549
89070SOL     OW69048   8.765  11.987   5.197
89070SOL    HW169049   8.675  11.958   5.206
89070SOL    HW269050   8.813  11.910   5.168
89071SOL     OW69051   8.109   3.751   8.046
89071SOL    HW169052   8.079   3.679   7.992
89071SOL    HW269053   8.177   3.794   7.994
89072SOL     OW69054   2.489   4.744  10.133
89072SOL    HW169055   2.573   4.701  10.147
89072SOL    HW269056   2.424   4.677  10.153
89073SOL     OW69057  14.246  10.807   3.260
89073SOL    HW169058  14.231  10.853   3.178
89073SOL    HW269059  14.162  10.766   3.281
89074SOL     OW69060   0.130  14.420   9.045
89074SOL    HW169061   0.203  14.370   9.008
89074SOL    HW269062   0.057  14.402   8.986
89075SOL     OW69063   1.717   9.618   3.400
89075SOL    HW169064   1.730   9.624   3.495
89075SOL    HW269065   1.744   9.529   3.377
89076SOL     OW69066  11.385  11.288  14.146
89076SOL    HW169067  11.303  11.322  14.182
89076SOL    HW269068  11.421  11.361  14.096
89077SOL     OW69069   1.822   5.135  10.027
89077SOL    HW169070   1.830   5.143   9.932
89077SOL    HW269071   1.833   5.042  10.045
89078SOL     OW69072  10.129   6.081   2.984
89078SOL    HW169073  10.218   6.103   3.014
89078SOL    HW269074  10.142   6.007   2.925
89079SOL     OW69075   6.875   2.815   2.505
89079SOL    HW169076   6.787   2.802   2.470
89079SOL    HW269077   6.915   2.878   2.444
89080SOL     OW69078   1.760   7.941   6.812
89080SOL    HW169079   1.776   7.949   6.906
89080SOL    HW269080   1.673   7.980   6.799
89081SOL     OW69081   4.772  12.469   9.764
89081SOL    HW169082   4.726  12.441   9.684
89081SOL    HW269083   4.800  12.558   9.745
89082SOL     OW69084   1.070  14.803  12.716
89082SOL    HW169085   1.151  14.820  12.764
89082SOL    HW269086   1.049   0.005  12.674
89083SOL     OW69087  11.613   4.576  14.389
89083SOL    HW169088  11.540   4.534  14.434
89083SOL    HW269089  11.668   4.609  14.459
89084SOL     OW69090   1.523  13.548   6.514
89084SOL    HW169091   1.578  13.520   6.442
89084SOL    HW269092   1.487  13.633   6.486
89085SOL     OW69093  14.654  10.412   0.556
89085SOL    HW169094  14.588  10.449   0.498
89085SOL    HW269095  14.733  10.406   0.503
89086SOL     OW69096   3.787   5.832   9.834
89086SOL    HW169097   3.848   5.813   9.905
89086SOL    HW269098   3.766   5.746   9.797
89087SOL     OW69099   0.446   7.195   7.302
89087SOL    HW169100   0.519   7.203   7.241
89087SOL    HW269101   0.415   7.284   7.316
89088SOL     OW69102   5.240  11.623   6.271
89088SOL    HW169103   5.174  11.658   6.332
89088SOL    HW269104   5.269  11.700   6.222
89089SOL     OW69105   4.253  11.365   3.728
89089SOL    HW169106   4.291  11.426   3.666
89089SOL    HW269107   4.170  11.339   3.688
89090SOL     OW69108  11.318   9.170   6.492
89090SOL    HW169109  11.238   9.129   6.526
89090SOL    HW269110  11.325   9.137   6.402
89091SOL     OW69111   0.208   6.584   1.787
89091SOL    HW169112   0.243   6.505   1.828
89091SOL    HW269113   0.273   6.651   1.807
89092SOL     OW69114   0.746   8.181   2.021
89092SOL    HW169115   0.837   8.205   2.040
89092SOL    HW269116   0.698   8.263   2.028
89093SOL     OW69117   3.684   0.996   7.666
89093SOL    HW169118   3.655   1.026   7.752
89093SOL    HW269119   3.696   1.077   7.615
89094SOL     OW69120   7.133   4.982   3.916
89094SOL    HW169121   7.137   4.889   3.937
89094SOL    HW269122   7.171   5.025   3.993
89095SOL     OW69123  10.011   6.222   7.523
89095SOL    HW169124   9.971   6.194   7.441
89095SOL    HW269125   9.971   6.166   7.590
89096SOL     OW69126   9.700   2.773   4.409
89096SOL    HW169127   9.787   2.790   4.446
89096SOL    HW269128   9.662   2.707   4.466
89097SOL     OW69129   0.349   1.303   2.406
89097SOL    HW169130   0.274   1.362   2.403
89097SOL    HW269131   0.361   1.275   2.316
89098SOL     OW69132   3.344  14.640   6.862
89098SOL    HW169133   3.433  14.670   6.879
89098SOL    HW269134   3.338  14.556   6.908
89099SOL     OW69135  13.524   0.572   4.094
89099SOL    HW169136  13.431   0.590   4.086
89099SOL    HW269137  13.553   0.622   4.170
89100SOL     OW69138   5.669  12.465   3.125
89100SOL    HW169139   5.680  12.383   3.174
89100SOL    HW269140   5.725  12.527   3.170
89101SOL     OW69141   0.363   4.591  10.107
89101SOL    HW169142   0.371   4.508  10.154
89101SOL    HW269143   0.278   4.626  10.134
89102SOL     OW69144   8.152  10.346   4.004
89102SOL    HW169145   8.083  10.387   4.057
89102SOL    HW269146   8.148  10.253   4.026
89103SOL     OW69147   8.242   0.596   2.225
89103SOL    HW169148   8.202   0.532   2.166
89103SOL    HW269149   8.314   0.549   2.266
89104SOL     OW69150   2.913   6.978   3.878
89104SOL    HW169151   2.963   7.039   3.824
89104SOL    HW269152   2.832   7.026   3.900
89105SOL     OW69153   0.424   1.753   8.215
89105SOL    HW169154   0.454   1.736   8.304
89105SOL    HW269155   0.456   1.679   8.164
89106SOL     OW69156  13.318   9.927   7.479
89106SOL    HW169157  13.403   9.933   7.523
89106SOL    HW269158  13.263   9.991   7.523
89107SOL     OW69159   2.609  11.541  14.539
89107SOL    HW169160   2.540  11.603  14.517
89107SOL    HW269161   2.690  11.585  14.512
89108SOL     OW69162  10.554  12.921   7.655
89108SOL    HW169163  10.612  12.940   7.729
89108SOL    HW269164  10.467  12.948   7.685
89109SOL     OW69165   9.538  13.884   3.866
89109SOL    HW169166   9.502  13.953   3.810
89109SOL    HW269167   9.464  13.828   3.885
89110SOL     OW69168   9.619   3.391   5.409
89110SOL    HW169169   9.635   3.387   5.314
89110SOL    HW269170   9.585   3.304   5.431
89111SOL     OW69171   8.359  14.489   3.728
89111SOL    HW169172   8.429  14.535   3.681
89111SOL    HW269173   8.281  14.543   3.714
89112SOL     OW69174   8.595   1.952   0.891
89112SOL    HW169175   8.576   2.025   0.833
89112SOL    HW269176   8.513   1.903   0.896
89113SOL     OW69177  11.315  10.895   7.037
89113SOL    HW169178  11.373  10.969   7.054
89113SOL    HW269179  11.348  10.825   7.092
89114SOL     OW69180  13.553   8.564   5.463
89114SOL    HW169181  13.502   8.494   5.503
89114SOL    HW269182  13.592   8.524   5.385
89115SOL     OW69183  10.694   3.481  11.551
89115SOL    HW169184  10.628   3.551  11.556
89115SOL    HW269185  10.711   3.458  11.642
89116SOL     OW69186  12.738   5.534  12.458
89116SOL    HW169187  12.804   5.503  12.396
89116SOL    HW269188  12.659   5.547  12.405
89117SOL     OW69189   7.922  13.026  14.189
89117SOL    HW169190   7.848  13.011  14.247
89117SOL    HW269191   7.887  13.013  14.101
89118SOL     OW69192   4.293   8.888  14.695
89118SOL    HW169193   4.281   8.813  14.636
89118SOL    HW269194   4.366   8.937  14.657
89119SOL     OW69195  13.104   2.522   1.351
89119SOL    HW169196  13.125   2.482   1.267
89119SOL    HW269197  13.010   2.535   1.349
89120SOL     OW69198   7.596   1.041   0.168
89120SOL    HW169199   7.577   0.960   0.215
89120SOL    HW269200   7.629   1.100   0.236
89121SOL     OW69201   2.709   8.255  10.492
89121SOL    HW169202   2.661   8.173  10.488
89121SOL    HW269203   2.647   8.322  10.462
89122SOL     OW69204   4.783  12.751   5.129
89122SOL    HW169205   4.804  12.659   5.115
89122SOL    HW269206   4.693  12.760   5.099
89123SOL     OW69207   4.392   0.541   0.348
89123SOL    HW169208   4.404   0.451   0.380
89123SOL    HW269209   4.352   0.588   0.421
89124SOL     OW69210  12.047   7.720   9.644
89124SOL    HW169211  11.981   7.783   9.615
89124SOL    HW269212  12.014   7.635   9.615
89125SOL     OW69213  10.320  12.472   5.358
89125SOL    HW169214  10.299  12.486   5.266
89125SOL    HW269215  10.241  12.498   5.405
89126SOL     OW69216   4.082   7.853  11.616
89126SOL    HW169217   4.163   7.902  11.604
89126SOL    HW269218   4.013   7.914  11.589
89127SOL     OW69219  11.645   8.719  14.639
89127SOL    HW169220  11.644   8.676  14.725
89127SOL    HW269221  11.552   8.738  14.621
89128SOL     OW69222   3.768   6.674  14.356
89128SOL    HW169223   3.862   6.690  14.365
89128SOL    HW269224   3.731   6.759  14.333
89129SOL     OW69225  13.446   7.318   4.879
89129SOL    HW169226  13.439   7.267   4.798
89129SOL    HW269227  13.467   7.254   4.946
89130SOL     OW69228   8.115   6.887   7.853
89130SOL    HW169229   8.022   6.885   7.831
89130SOL    HW269230   8.135   6.979   7.867
89131SOL     OW69231   9.178  12.908  13.871
89131SOL    HW169232   9.092  12.943  13.848
89131SOL    HW269233   9.183  12.920  13.966
89132SOL     OW69234  12.627   6.543   0.487
89132SOL    HW169235  12.676   6.581   0.560
89132SOL    HW269236  12.550   6.504   0.528
89133SOL     OW69237   6.577   4.604   3.395
89133SOL    HW169238   6.625   4.652   3.328
89133SOL    HW269239   6.487   4.601   3.363
89134SOL     OW69240   2.828   0.313  10.413
89134SOL    HW169241   2.903   0.350  10.367
89134SOL    HW269242   2.754   0.366  10.384
89135SOL     OW69243  14.305   7.407  11.562
89135SOL    HW169244  14.358   7.381  11.487
89135SOL    HW269245  14.252   7.329  11.582
89136SOL     OW69246   6.128   7.047   5.893
89136SOL    HW169247   6.209   7.096   5.879
89136SOL    HW269248   6.138   7.007   5.979
89137SOL     OW69249  10.128   5.250   8.569
89137SOL    HW169250  10.213   5.281   8.601
89137SOL    HW269251  10.099   5.317   8.508
89138SOL     OW69252   1.059   2.548  14.239
89138SOL    HW169253   1.095   2.582  14.156
89138SOL    HW269254   1.067   2.453  14.231
89139SOL     OW69255  12.853   6.109   4.470
89139SOL    HW169256  12.782   6.048   4.489
89139SOL    HW269257  12.932   6.055   4.472
89140SOL     OW69258  12.274   1.268   3.512
89140SOL    HW169259  12.234   1.273   3.425
89140SOL    HW269260  12.205   1.233   3.568
89141SOL     OW69261   7.697  14.308   4.963
89141SOL    HW169262   7.728  14.350   5.043
89141SOL    HW269263   7.776  14.293   4.911
89142SOL     OW69264   8.138  14.070  13.892
89142SOL    HW169265   8.104  13.984  13.918
89142SOL    HW269266   8.086  14.095  13.816
89143SOL     OW69267  11.180  12.326   2.690
89143SOL    HW169268  11.257  12.290   2.646
89143SOL    HW269269  11.142  12.387   2.627
89144SOL     OW69270   9.835   8.763   9.123
89144SOL    HW169271   9.747   8.728   9.130
89144SOL    HW269272   9.859   8.786   9.213
89145SOL     OW69273   9.601   1.871   9.284
89145SOL    HW169274   9.629   1.954   9.322
89145SOL    HW269275   9.680   1.819   9.277
89146SOL     OW69276  11.854  14.233  12.589
89146SOL    HW169277  11.841  14.151  12.542
89146SOL    HW269278  11.923  14.278  12.540
89147SOL     OW69279   3.075  12.240  12.265
89147SOL    HW169280   3.156  12.273  12.305
89147SOL    HW269281   3.105  12.171  12.206
89148SOL     OW69282  11.732  14.868   5.873
89148SOL    HW169283  11.801  14.836   5.931
89148SOL    HW269284  11.757  14.835   5.786
89149SOL     OW69285   4.633   5.769   6.729
89149SOL    HW169286   4.581   5.849   6.735
89149SOL    HW269287   4.644   5.755   6.635
89150SOL     OW69288  12.199   5.492  11.840
89150SOL    HW169289  12.149   5.519  11.917
89150SOL    HW269290  12.284   5.534  11.851
89151SOL     OW69291  11.348   7.235   7.840
89151SOL    HW169292  11.370   7.314   7.791
89151SOL    HW269293  11.379   7.163   7.785
89152SOL     OW69294   4.941   0.055   0.476
89152SOL    HW169295   4.988  14.858   0.448
89152SOL    HW269296   4.865   0.022   0.523
89153SOL     OW69297  10.808   1.305  10.978
89153SOL    HW169298  10.799   1.210  10.978
89153SOL    HW269299  10.773   1.332  10.893
89154SOL     OW69300   1.121  13.617   6.015
89154SOL    HW169301   1.078  13.541   5.976
89154SOL    HW269302   1.131  13.595   6.107
89155SOL     OW69303   4.905   9.599   1.974
89155SOL    HW169304   4.974   9.653   2.013
89155SOL    HW269305   4.941   9.511   1.973
89156SOL     OW69306   9.278  12.870  11.274
89156SOL    HW169307   9.365  12.846  11.241
89156SOL    HW269308   9.263  12.811  11.348
89157SOL     OW69309   5.668  13.655  13.230
89157SOL    HW169310   5.578  13.686  13.223
89157SOL    HW269311   5.664  13.562  13.207
89158SOL     OW69312   2.106  13.810  13.452
89158SOL    HW169313   2.156  13.739  13.493
89158SOL    HW269314   2.137  13.812  13.362
89159SOL     OW69315   0.164  12.719  12.344
89159SOL    HW169316   0.197  12.745  12.258
89159SOL    HW269317   0.241  12.725  12.401
89160SOL     OW69318   8.517  10.488  13.591
89160SOL    HW169319   8.434  10.449  13.618
89160SOL    HW269320   8.545  10.435  13.517
89161SOL     OW69321  11.536  14.809   2.998
89161SOL    HW169322  11.567  14.870   2.931
89161SOL    HW269323  11.604  14.741   3.001
89162SOL     OW69324   2.402   7.313  10.647
89162SOL    HW169325   2.429   7.377  10.582
89162SOL    HW269326   2.418   7.356  10.731
89163SOL     OW69327   5.276  12.702   1.182
89163SOL    HW169328   5.329  12.633   1.143
89163SOL    HW269329   5.223  12.735   1.109
89164SOL     OW69330   8.852   0.095  12.878
89164SOL    HW169331   8.813   0.118  12.962
89164SOL    HW269332   8.829   0.003  12.865
89165SOL     OW69333   5.249   1.032   1.027
89165SOL    HW169334   5.155   1.039   1.045
89165SOL    HW269335   5.281   0.970   1.092
89166SOL     OW69336   7.118  13.154   6.078
89166SOL    HW169337   7.071  13.213   6.019
89166SOL    HW269338   7.049  13.109   6.127
89167SOL     OW69339  14.639   4.406   8.335
89167SOL    HW169340  14.638   4.336   8.401
89167SOL    HW269341  14.692   4.371   8.264
89168SOL     OW69342   4.785  10.391  11.062
89168SOL    HW169343   4.834  10.326  11.113
89168SOL    HW269344   4.694  10.376  11.088
89169SOL     OW69345  13.310   0.576   8.690
89169SOL    HW169346  13.301   0.508   8.757
89169SOL    HW269347  13.322   0.527   8.608
89170SOL     OW69348   4.783  14.559   9.447
89170SOL    HW169349   4.877  14.548   9.458
89170SOL    HW269350   4.755  14.608   9.525
89171SOL     OW69351   2.351   3.191   3.014
89171SOL    HW169352   2.333   3.237   2.932
89171SOL    HW269353   2.361   3.260   3.079
89172SOL     OW69354   2.379   2.012   4.120
89172SOL    HW169355   2.316   2.068   4.075
89172SOL    HW269356   2.436   1.979   4.051
89173SOL     OW69357  11.717   5.219   6.507
89173SOL    HW169358  11.670   5.174   6.436
89173SOL    HW269359  11.802   5.175   6.511
89174SOL     OW69360  11.524   9.735  13.174
89174SOL    HW169361  11.507   9.762  13.264
89174SOL    HW269362  11.574   9.654  13.182
89175SOL     OW69363   6.636  10.611  10.094
89175SOL    HW169364   6.595  10.530  10.063
89175SOL    HW269365   6.631  10.670  10.020
89176SOL     OW69366  10.821   8.666   9.534
89176SOL    HW169367  10.859   8.677   9.621
89176SOL    HW269368  10.791   8.753   9.510
89177SOL     OW69369   9.418  14.827   8.841
89177SOL    HW169370   9.478  14.772   8.891
89177SOL    HW269371   9.332  14.787   8.853
89178SOL     OW69372   5.417   5.207   4.429
89178SOL    HW169373   5.420   5.123   4.474
89178SOL    HW269374   5.472   5.265   4.482
89179SOL     OW69375   2.012   9.515  11.527
89179SOL    HW169376   2.072   9.587  11.546
89179SOL    HW269377   2.043   9.442  11.581
89180SOL     OW69378   2.370   3.192  13.841
89180SOL    HW169379   2.312   3.187  13.766
89180SOL    HW269380   2.383   3.285  13.856
89181SOL     OW69381   8.683   6.297   5.359
89181SOL    HW169382   8.744   6.268   5.427
89181SOL    HW269383   8.709   6.387   5.341
89182SOL     OW69384  12.439   3.990  11.046
89182SOL    HW169385  12.452   4.081  11.019
89182SOL    HW269386  12.351   3.968  11.015
89183SOL     OW69387  14.525   6.792  12.307
89183SOL    HW169388  14.439   6.824  12.335
89183SOL    HW269389  14.540   6.832  12.222
89184SOL     OW69390  13.961   9.771  11.867
89184SOL    HW169391  14.012   9.776  11.948
89184SOL    HW269392  13.884   9.720  11.891
89185SOL     OW69393   2.555   9.512   5.201
89185SOL    HW169394   2.503   9.562   5.138
89185SOL    HW269395   2.495   9.493   5.273
89186SOL     OW69396   9.315  12.121  10.087
89186SOL    HW169397   9.382  12.181  10.055
89186SOL    HW269398   9.290  12.155  10.172
89187SOL     OW69399   7.983   3.240  10.666
89187SOL    HW169400   8.046   3.281  10.726
89187SOL    HW269401   8.032   3.230  10.584
89188SOL     OW69402  14.637  10.399   0.822
89188SOL    HW169403  14.635  10.389   0.727
89188SOL    HW269404  14.715  10.452   0.839
89189SOL     OW69405  14.123  12.452   6.093
89189SOL    HW169406  14.139  12.446   5.998
89189SOL    HW269407  14.038  12.495   6.100
89190SOL     OW69408   5.328   4.909   1.173
89190SOL    HW169409   5.367   4.831   1.212
89190SOL    HW269410   5.392   4.978   1.189
89191SOL     OW69411   4.055   7.031   7.284
89191SOL    HW169412   4.110   7.063   7.356
89191SOL    HW269413   4.037   7.110   7.232
89192SOL     OW69414   1.406  12.441   2.189
89192SOL    HW169415   1.435  12.490   2.112
89192SOL    HW269416   1.422  12.500   2.263
89193SOL     OW69417   5.019  13.110   7.668
89193SOL    HW169418   5.053  13.185   7.717
89193SOL    HW269419   5.092  13.048   7.666
89194SOL     OW69420   6.236  14.277   9.925
89194SOL    HW169421   6.154  14.240   9.892
89194SOL    HW269422   6.223  14.371   9.921
89195SOL     OW69423  11.900   5.800  14.056
89195SOL    HW169424  11.868   5.739  13.989
89195SOL    HW269425  11.913   5.745  14.133
89196SOL     OW69426  12.714  12.218   9.645
89196SOL    HW169427  12.765  12.248   9.721
89196SOL    HW269428  12.665  12.296   9.618
89197SOL     OW69429   7.050   0.222   9.328
89197SOL    HW169430   6.997   0.168   9.270
89197SOL    HW269431   7.135   0.228   9.284
89198SOL     OW69432   6.119  13.404   4.608
89198SOL    HW169433   6.204  13.447   4.613
89198SOL    HW269434   6.121  13.339   4.678
89199SOL     OW69435   6.476   2.795   4.767
89199SOL    HW169436   6.400   2.805   4.824
89199SOL    HW269437   6.439   2.759   4.685
89200SOL     OW69438  12.849   2.065   0.227
89200SOL    HW169439  12.897   2.148   0.222
89200SOL    HW269440  12.849   2.033   0.137
89201SOL     OW69441   6.380   5.264  10.575
89201SOL    HW169442   6.468   5.295  10.593
89201SOL    HW269443   6.363   5.290  10.484
89202SOL     OW69444  13.087   2.782   0.512
89202SOL    HW169445  13.033   2.841   0.564
89202SOL    HW269446  13.153   2.838   0.472
89203SOL     OW69447   3.678   1.599   7.455
89203SOL    HW169448   3.765   1.564   7.437
89203SOL    HW269449   3.685   1.635   7.544
89204SOL     OW69450  12.647   0.279   8.876
89204SOL    HW169451  12.688   0.194   8.891
89204SOL    HW269452  12.713   0.343   8.905
89205SOL     OW69453  13.882  12.149   4.183
89205SOL    HW169454  13.929  12.216   4.132
89205SOL    HW269455  13.833  12.199   4.248
89206SOL     OW69456  12.230   5.980   9.636
89206SOL    HW169457  12.229   5.998   9.542
89206SOL    HW269458  12.313   5.935   9.651
89207SOL     OW69459   3.574  13.903   1.855
89207SOL    HW169460   3.506  13.970   1.849
89207SOL    HW269461   3.627  13.915   1.776
89208SOL     OW69462   9.627   9.038   9.330
89208SOL    HW169463   9.586   9.025   9.245
89208SOL    HW269464   9.703   8.980   9.329
89209SOL     OW69465   7.342  11.668   2.927
89209SOL    HW169466   7.290  11.696   2.852
89209SOL    HW269467   7.286  11.605   2.973
89210SOL     OW69468  10.211   1.319  13.461
89210SOL    HW169469  10.158   1.396  13.442
89210SOL    HW269470  10.275   1.315  13.389
89211SOL     OW69471   3.606   3.642   5.377
89211SOL    HW169472   3.655   3.560   5.383
89211SOL    HW269473   3.515   3.614   5.361
89212SOL     OW69474   0.418  12.639   8.054
89212SOL    HW169475   0.347  12.694   8.021
89212SOL    HW269476   0.488  12.700   8.076
89213SOL     OW69477  12.372   0.626   6.411
89213SOL    HW169478  12.383   0.543   6.456
89213SOL    HW269479  12.401   0.692   6.474
89214SOL     OW69480  13.309   0.854  12.394
89214SOL    HW169481  13.334   0.906  12.470
89214SOL    HW269482  13.214   0.864  12.389
89215SOL     OW69483   0.585  13.357   7.114
89215SOL    HW169484   0.545  13.389   7.195
89215SOL    HW269485   0.539  13.404   7.045
89216SOL     OW69486   6.099  14.570  10.855
89216SOL    HW169487   6.116  14.601  10.766
89216SOL    HW269488   6.184  14.538  10.885
89217SOL     OW69489   9.387  11.219   2.249
89217SOL    HW169490   9.319  11.260   2.196
89217SOL    HW269491   9.426  11.154   2.190
89218SOL     OW69492   6.866   1.536   6.166
89218SOL    HW169493   6.832   1.621   6.139
89218SOL    HW269494   6.910   1.502   6.089
89219SOL     OW69495   0.142   4.448  13.669
89219SOL    HW169496   0.216   4.446  13.729
89219SOL    HW269497   0.165   4.513  13.603
89220SOL     OW69498  13.511   2.483  12.559
89220SOL    HW169499  13.590   2.433  12.581
89220SOL    HW269500  13.447   2.416  12.535
89221SOL     OW69501   3.962  11.121   7.980
89221SOL    HW169502   3.944  11.187   7.913
89221SOL    HW269503   3.925  11.157   8.060
89222SOL     OW69504  13.803  14.690   5.520
89222SOL    HW169505  13.831  14.762   5.575
89222SOL    HW269506  13.802  14.614   5.578
89223SOL     OW69507   8.132   8.295  13.993
89223SOL    HW169508   8.119   8.210  14.034
89223SOL    HW269509   8.114   8.358  14.063
89224SOL     OW69510  11.096   1.965  12.326
89224SOL    HW169511  11.146   2.008  12.395
89224SOL    HW269512  11.048   1.895  12.371
89225SOL     OW69513   0.413   3.937  11.385
89225SOL    HW169514   0.373   3.873  11.326
89225SOL    HW269515   0.496   3.960  11.343
89226SOL     OW69516  13.235   9.804   3.501
89226SOL    HW169517  13.236   9.719   3.457
89226SOL    HW269518  13.241   9.782   3.594
89227SOL     OW69519   3.739   0.357   0.332
89227SOL    HW169520   3.793   0.335   0.256
89227SOL    HW269521   3.764   0.294   0.399
89228SOL     OW69522  13.582   9.005   5.580
89228SOL    HW169523  13.608   8.999   5.488
89228SOL    HW269524  13.657   8.971   5.628
89229SOL     OW69525   2.941  10.983  11.116
89229SOL    HW169526   2.861  10.942  11.147
89229SOL    HW269527   3.006  10.962  11.182
89230SOL     OW69528   1.484   0.681  10.552
89230SOL    HW169529   1.567   0.718  10.581
89230SOL    HW269530   1.508   0.599  10.509
89231SOL     OW69531   3.124  10.502  10.892
89231SOL    HW169532   3.139  10.524  10.984
89231SOL    HW269533   3.053  10.561  10.865
89232SOL     OW69534   3.447  14.626   3.242
89232SOL    HW169535   3.472  14.588   3.327
89232SOL    HW269536   3.508  14.700   3.231
89233SOL     OW69537   9.032   2.850  13.514
89233SOL    HW169538   9.119   2.815  13.495
89233SOL    HW269539   8.988   2.854  13.430
89234SOL     OW69540   1.927   9.653   9.552
89234SOL    HW169541   2.007   9.601   9.558
89234SOL    HW269542   1.856   9.588   9.563
89235SOL     OW69543   5.769   6.573   9.575
89235SOL    HW169544   5.858   6.546   9.548
89235SOL    HW269545   5.784   6.644   9.637
89236SOL     OW69546   3.349   2.098   6.136
89236SOL    HW169547   3.354   2.046   6.056
89236SOL    HW269548   3.342   2.188   6.105
89237SOL     OW69549   8.652   1.096   5.668
89237SOL    HW169550   8.599   1.174   5.649
89237SOL    HW269551   8.722   1.128   5.724
89238SOL     OW69552   2.429   2.542   4.147
89238SOL    HW169553   2.370   2.476   4.112
89238SOL    HW269554   2.456   2.594   4.071
89239SOL     OW69555   3.851   8.475   8.336
89239SOL    HW169556   3.920   8.471   8.401
89239SOL    HW269557   3.897   8.477   8.252
89240SOL     OW69558   0.722   8.949  11.473
89240SOL    HW169559   0.684   8.867  11.505
89240SOL    HW269560   0.753   8.993  11.552
89241SOL     OW69561   9.430   2.719   0.111
89241SOL    HW169562   9.352   2.665   0.124
89241SOL    HW269563   9.404   2.806   0.142
89242SOL     OW69564   7.803  13.861   8.652
89242SOL    HW169565   7.873  13.869   8.587
89242SOL    HW269566   7.776  13.951   8.670
89243SOL     OW69567   6.896   4.072   0.118
89243SOL    HW169568   6.950   4.151   0.117
89243SOL    HW269569   6.826   4.092   0.180
89244SOL     OW69570   2.167   4.840   5.164
89244SOL    HW169571   2.142   4.776   5.097
89244SOL    HW269572   2.122   4.811   5.243
89245SOL     OW69573  13.314   8.808   3.500
89245SOL    HW169574  13.227   8.775   3.479
89245SOL    HW269575  13.360   8.734   3.540
89246SOL     OW69576  13.195   7.364   2.619
89246SOL    HW169577  13.282   7.324   2.615
89246SOL    HW269578  13.144   7.315   2.554
89247SOL     OW69579  12.037   4.494  14.216
89247SOL    HW169580  11.996   4.531  14.295
89247SOL    HW269581  12.020   4.559  14.148
89248SOL     OW69582  12.930   7.436   6.419
89248SOL    HW169583  12.897   7.520   6.388
89248SOL    HW269584  12.957   7.390   6.339
89249SOL     OW69585  13.308   3.307   9.208
89249SOL    HW169586  13.390   3.282   9.167
89249SOL    HW269587  13.245   3.311   9.136
89250SOL     OW69588  10.768   6.236   4.162
89250SOL    HW169589  10.756   6.331   4.153
89250SOL    HW269590  10.791   6.206   4.074
89251SOL     OW69591   8.210   1.088   0.673
89251SOL    HW169592   8.271   1.063   0.604
89251SOL    HW269593   8.262   1.143   0.732
89252SOL     OW69594  14.408   3.493   2.651
89252SOL    HW169595  14.378   3.404   2.667
89252SOL    HW269596  14.367   3.517   2.568
89253SOL     OW69597   1.310   1.762   4.780
89253SOL    HW169598   1.229   1.757   4.729
89253SOL    HW269599   1.347   1.847   4.758
89254SOL     OW69600  12.932  10.551   0.089
89254SOL    HW169601  12.902  10.625   0.035
89254SOL    HW269602  13.002  10.587   0.143
89255SOL     OW69603   6.108  14.708   7.008
89255SOL    HW169604   6.183  14.762   6.984
89255SOL    HW269605   6.098  14.647   6.936
89256SOL     OW69606   1.594   8.618   1.768
89256SOL    HW169607   1.557   8.686   1.824
89256SOL    HW269608   1.662   8.577   1.821
89257SOL     OW69609   7.169   3.515  12.784
89257SOL    HW169610   7.250   3.559  12.760
89257SOL    HW269611   7.100   3.562  12.738
89258SOL     OW69612   8.742   5.962   0.998
89258SOL    HW169613   8.659   5.980   1.041
89258SOL    HW269614   8.719   5.914   0.919
89259SOL     OW69615   5.302   1.021   3.663
89259SOL    HW169616   5.327   0.937   3.702
89259SOL    HW269617   5.247   0.998   3.588
89260SOL     OW69618   3.720  12.418   6.832
89260SOL    HW169619   3.694  12.457   6.915
89260SOL    HW269620   3.808  12.451   6.817
89261SOL     OW69621   7.683   4.381  14.660
89261SOL    HW169622   7.757   4.415  14.610
89261SOL    HW269623   7.612   4.373  14.596
89262SOL     OW69624  13.473   3.249   5.904
89262SOL    HW169625  13.413   3.229   5.976
89262SOL    HW269626  13.420   3.298   5.841
89263SOL     OW69627   8.300   0.891   5.165
89263SOL    HW169628   8.259   0.951   5.103
89263SOL    HW269629   8.266   0.805   5.141
89264SOL     OW69630   1.224   6.450  12.991
89264SOL    HW169631   1.135   6.432  12.960
89264SOL    HW269632   1.257   6.518  12.933
89265SOL     OW69633   5.457   9.136   2.796
89265SOL    HW169634   5.544   9.097   2.786
89265SOL    HW269635   5.474   9.224   2.830
89266SOL     OW69636   4.960   8.857   6.724
89266SOL    HW169637   4.947   8.764   6.742
89266SOL    HW269638   4.937   8.867   6.632
89267SOL     OW69639   1.309   0.771   1.492
89267SOL    HW169640   1.273   0.716   1.422
89267SOL    HW269641   1.248   0.844   1.499
89268SOL     OW69642  11.939   6.481   7.336
89268SOL    HW169643  11.864   6.425   7.316
89268SOL    HW269644  11.904   6.550   7.392
89269SOL     OW69645  12.098   0.983  13.003
89269SOL    HW169646  12.006   0.979  12.977
89269SOL    HW269647  12.145   0.944  12.930
89270SOL     OW69648   1.335  13.708   8.715
89270SOL    HW169649   1.396  13.764   8.667
89270SOL    HW269650   1.259  13.765   8.732
89271SOL     OW69651   1.848  14.099   7.872
89271SOL    HW169652   1.840  14.008   7.845
89271SOL    HW269653   1.837  14.097   7.967
89272SOL     OW69654  10.210   4.084   9.214
89272SOL    HW169655  10.177   4.140   9.284
89272SOL    HW269656  10.144   4.090   9.145
89273SOL     OW69657   6.520   4.837   0.021
89273SOL    HW169658   6.523   4.749   0.060
89273SOL    HW269659   6.482   4.823  14.816
89274SOL     OW69660   7.439  13.526   8.183
89274SOL    HW169661   7.369  13.587   8.207
89274SOL    HW269662   7.393  13.450   8.148
89275SOL     OW69663   9.204  12.442   6.810
89275SOL    HW169664   9.231  12.514   6.753
89275SOL    HW269665   9.236  12.364   6.766
89276SOL     OW69666  10.285  12.133   9.350
89276SOL    HW169667  10.215  12.105   9.290
89276SOL    HW269668  10.363  12.089   9.317
89277SOL     OW69669  10.250   7.957  12.516
89277SOL    HW169670  10.175   7.931  12.462
89277SOL    HW269671  10.309   8.001  12.455
89278SOL     OW69672   8.923  13.294   2.897
89278SOL    HW169673   8.836  13.282   2.860
89278SOL    HW269674   8.976  13.324   2.823
89279SOL     OW69675   7.745  12.754  10.269
89279SOL    HW169676   7.728  12.665  10.240
89279SOL    HW269677   7.660  12.798  10.262
89280SOL     OW69678   8.284  13.790   7.790
89280SOL    HW169679   8.336  13.850   7.738
89280SOL    HW269680   8.196  13.795   7.752
89281SOL     OW69681   5.350   2.796   6.111
89281SOL    HW169682   5.312   2.881   6.087
89281SOL    HW269683   5.427   2.819   6.163
89282SOL     OW69684   2.555  12.360   0.005
89282SOL    HW169685   2.534  12.271  14.860
89282SOL    HW269686   2.483  12.413  14.851
89283SOL     OW69687   6.174   8.828  13.039
89283SOL    HW169688   6.160   8.893  12.970
89283SOL    HW269689   6.235   8.765  13.000
89284SOL     OW69690   8.768  13.742   9.819
89284SOL    HW169691   8.709  13.682   9.773
89284SOL    HW269692   8.746  13.828   9.785
89285SOL     OW69693  10.566   4.698   5.122
89285SOL    HW169694  10.595   4.767   5.183
89285SOL    HW269695  10.538   4.745   5.044
89286SOL     OW69696   1.918   0.756  11.970
89286SOL    HW169697   1.964   0.672  11.963
89286SOL    HW269698   1.952   0.807  11.896
89287SOL     OW69699   7.781  11.323   5.728
89287SOL    HW169700   7.691  11.330   5.762
89287SOL    HW269701   7.811  11.413   5.721
89288SOL     OW69702   5.049   5.038   4.910
89288SOL    HW169703   5.124   5.025   4.967
89288SOL    HW269704   5.003   5.113   4.948
89289SOL     OW69705   0.529   9.355  14.696
89289SOL    HW169706   0.521   9.259  14.700
89289SOL    HW269707   0.570   9.372  14.612
89290SOL     OW69708  14.116   3.978   0.814
89290SOL    HW169709  14.028   4.015   0.804
89290SOL    HW269710  14.103   3.900   0.868
89291SOL     OW69711  11.282   2.224   1.827
89291SOL    HW169712  11.355   2.172   1.793
89291SOL    HW269713  11.262   2.287   1.758
89292SOL     OW69714   2.376  13.423  13.593
89292SOL    HW169715   2.389  13.350  13.533
89292SOL    HW269716   2.455  13.423  13.648
89293SOL     OW69717  11.478   5.194   6.702
89293SOL    HW169718  11.539   5.200   6.629
89293SOL    HW269719  11.425   5.116   6.682
89294SOL     OW69720   9.108   4.944  10.023
89294SOL    HW169721   9.030   4.899  10.056
89294SOL    HW269722   9.131   4.898   9.943
89295SOL     OW69723   7.559  14.101   5.372
89295SOL    HW169724   7.565  14.196   5.376
89295SOL    HW269725   7.528  14.075   5.459
89296SOL     OW69726   5.704  10.649   2.959
89296SOL    HW169727   5.736  10.714   3.021
89296SOL    HW269728   5.633  10.604   3.005
89297SOL     OW69729   7.974   8.841  14.677
89297SOL    HW169730   8.025   8.781  14.624
89297SOL    HW269731   7.883   8.814  14.664
89298SOL     OW69732   8.728   8.684  12.271
89298SOL    HW169733   8.663   8.657  12.336
89298SOL    HW269734   8.793   8.733  12.321
89299SOL     OW69735   3.037   9.083   5.996
89299SOL    HW169736   2.983   9.159   6.016
89299SOL    HW269737   3.094   9.073   6.072
89300SOL     OW69738   2.987  11.665   3.844
89300SOL    HW169739   3.056  11.674   3.777
89300SOL    HW269740   3.012  11.727   3.912
89301SOL     OW69741   4.888  14.467  14.446
89301SOL    HW169742   4.878  14.506  14.533
89301SOL    HW269743   4.923  14.538  14.393
89302SOL     OW69744   3.215   2.483   2.480
89302SOL    HW169745   3.131   2.528   2.478
89302SOL    HW269746   3.204   2.408   2.423
89303SOL     OW69747  12.615   9.353   8.242
89303SOL    HW169748  12.560   9.416   8.195
89303SOL    HW269749  12.680   9.325   8.178
89304SOL     OW69750   4.737  13.986   1.364
89304SOL    HW169751   4.824  13.988   1.405
89304SOL    HW269752   4.690  13.918   1.412
89305SOL     OW69753   7.483   5.001  11.224
89305SOL    HW169754   7.495   4.978  11.132
89305SOL    HW269755   7.540   4.940  11.272
89306SOL     OW69756   5.700   7.198   0.806
89306SOL    HW169757   5.702   7.287   0.840
89306SOL    HW269758   5.668   7.145   0.879
89307SOL     OW69759  13.456  13.537   8.243
89307SOL    HW169760  13.384  13.587   8.281
89307SOL    HW269761  13.482  13.476   8.312
89308SOL     OW69762   7.083  10.810   9.378
89308SOL    HW169763   7.163  10.831   9.329
89308SOL    HW269764   7.098  10.846   9.465
89309SOL     OW69765  11.080   3.216   2.481
89309SOL    HW169766  11.053   3.164   2.406
89309SOL    HW269767  11.035   3.176   2.556
89310SOL     OW69768  12.039  14.170   3.477
89310SOL    HW169769  12.036  14.074   3.480
89310SOL    HW269770  12.093  14.194   3.552
89311SOL     OW69771   4.239  12.819  10.375
89311SOL    HW169772   4.291  12.875  10.433
89311SOL    HW269773   4.276  12.732  10.386
89312SOL     OW69774   5.186  14.126  11.964
89312SOL    HW169775   5.230  14.091  11.886
89312SOL    HW269776   5.126  14.057  11.991
89313SOL     OW69777  14.045   7.021   8.944
89313SOL    HW169778  13.973   6.959   8.934
89313SOL    HW269779  14.037   7.052   9.035
89314SOL     OW69780   6.185   8.292   5.526
89314SOL    HW169781   6.183   8.326   5.436
89314SOL    HW269782   6.258   8.338   5.568
89315SOL     OW69783  11.933   2.227   8.966
89315SOL    HW169784  12.025   2.233   8.942
89315SOL    HW269785  11.907   2.317   8.987
89316SOL     OW69786   3.428  13.849   7.025
89316SOL    HW169787   3.385  13.855   7.110
89316SOL    HW269788   3.357  13.858   6.962
89317SOL     OW69789   8.662   7.181   8.916
89317SOL    HW169790   8.573   7.194   8.883
89317SOL    HW269791   8.688   7.267   8.950
89318SOL     OW69792   9.993   4.098   7.818
89318SOL    HW169793  10.012   4.102   7.724
89318SOL    HW269794   9.963   4.186   7.840
89319SOL     OW69795  13.676   7.775   8.768
89319SOL    HW169796  13.645   7.803   8.854
89319SOL    HW269797  13.624   7.826   8.706
89320SOL     OW69798  11.760  11.770   9.707
89320SOL    HW169799  11.803  11.706   9.764
89320SOL    HW269800  11.743  11.722   9.626
89321SOL     OW69801   0.181   8.582   5.431
89321SOL    HW169802   0.223   8.604   5.513
89321SOL    HW269803   0.248   8.536   5.380
89322SOL     OW69804   8.809   8.550   4.205
89322SOL    HW169805   8.897   8.512   4.207
89322SOL    HW269806   8.773   8.532   4.292
89323SOL     OW69807   0.217   9.095  14.360
89323SOL    HW169808   0.283   9.066  14.296
89323SOL    HW269809   0.245   9.184  14.384
89324SOL     OW69810  12.388   1.614  12.306
89324SOL    HW169811  12.314   1.594  12.247
89324SOL    HW269812  12.425   1.694  12.270
89325SOL     OW69813  10.686   0.019   7.360
89325SOL    HW169814  10.656   0.020   7.269
89325SOL    HW269815  10.780   0.038   7.354
89326SOL     OW69816   0.174  12.387   7.778
89326SOL    HW169817   0.174  12.346   7.692
89326SOL    HW269818   0.214  12.473   7.765
89327SOL     OW69819   9.223   8.000   9.751
89327SOL    HW169820   9.204   7.975   9.841
89327SOL    HW269821   9.172   8.080   9.737
89328SOL     OW69822   3.921   0.687  13.888
89328SOL    HW169823   3.964   0.761  13.845
89328SOL    HW269824   3.843   0.671  13.836
89329SOL     OW69825   6.089   3.750   9.297
89329SOL    HW169826   6.048   3.836   9.301
89329SOL    HW269827   6.147   3.747   9.373
89330SOL     OW69828   1.134   2.464   5.971
89330SOL    HW169829   1.218   2.461   5.924
89330SOL    HW269830   1.159   2.470   6.063
89331SOL     OW69831   0.943   6.006   1.562
89331SOL    HW169832   0.999   6.075   1.527
89331SOL    HW269833   0.961   6.005   1.656
89332SOL     OW69834   3.246  10.298  14.338
89332SOL    HW169835   3.164  10.252  14.355
89332SOL    HW269836   3.269  10.340  14.421
89333SOL     OW69837   8.737   7.773   2.354
89333SOL    HW169838   8.721   7.832   2.280
89333SOL    HW269839   8.651   7.758   2.392
89334SOL     OW69840   7.819   5.420  10.256
89334SOL    HW169841   7.781   5.491  10.308
89334SOL    HW269842   7.891   5.460  10.208
89335SOL     OW69843  13.098  10.655   1.514
89335SOL    HW169844  13.065  10.577   1.470
89335SOL    HW269845  13.104  10.629   1.606
89336SOL     OW69846   8.648  11.848   3.948
89336SOL    HW169847   8.618  11.914   3.886
89336SOL    HW269848   8.724  11.808   3.906
89337SOL     OW69849   7.997  10.582   0.549
89337SOL    HW169850   7.944  10.608   0.473
89337SOL    HW269851   8.066  10.648   0.553
89338SOL     OW69852  11.136   6.763   5.704
89338SOL    HW169853  11.166   6.806   5.624
89338SOL    HW269854  11.073   6.698   5.673
89339SOL     OW69855   0.403   0.848   5.730
89339SOL    HW169856   0.366   0.766   5.763
89339SOL    HW269857   0.330   0.910   5.734
89340SOL     OW69858   8.149  11.818   9.453
89340SOL    HW169859   8.206  11.893   9.473
89340SOL    HW269860   8.071  11.833   9.506
89341SOL     OW69861  14.784   2.604   4.079
89341SOL    HW169862  14.780   2.691   4.040
89341SOL    HW269863  14.797   2.620   4.173
89342SOL     OW69864  13.535   8.183   9.079
89342SOL    HW169865  13.490   8.100   9.067
89342SOL    HW269866  13.600   8.187   9.009
89343SOL     OW69867  10.971   3.831   8.369
89343SOL    HW169868  11.002   3.870   8.450
89343SOL    HW269869  10.976   3.737   8.384
89344SOL     OW69870   2.812   4.866   4.649
89344SOL    HW169871   2.830   4.782   4.690
89344SOL    HW269872   2.724   4.890   4.678
89345SOL     OW69873   0.988  12.625  14.211
89345SOL    HW169874   0.906  12.580  14.230
89345SOL    HW269875   1.052  12.555  14.196
89346SOL     OW69876   7.775  14.479   3.094
89346SOL    HW169877   7.835  14.469   3.168
89346SOL    HW269878   7.774  14.573   3.076
89347SOL     OW69879   1.169   7.172   7.175
89347SOL    HW169880   1.084   7.185   7.134
89347SOL    HW269881   1.228   7.230   7.129
89348SOL     OW69882   1.603   9.878   3.541
89348SOL    HW169883   1.595   9.807   3.604
89348SOL    HW269884   1.685   9.923   3.565
89349SOL     OW69885  14.440   8.466   8.260
89349SOL    HW169886  14.367   8.406   8.244
89349SOL    HW269887  14.467   8.449   8.350
89350SOL     OW69888   3.620   9.448  12.396
89350SOL    HW169889   3.592   9.449  12.487
89350SOL    HW269890   3.711   9.478  12.398
89351SOL     OW69891  11.463   5.931   9.880
89351SOL    HW169892  11.472   5.993   9.952
89351SOL    HW269893  11.373   5.899   9.887
89352SOL     OW69894  10.766   6.753   3.358
89352SOL    HW169895  10.702   6.698   3.313
89352SOL    HW269896  10.767   6.720   3.448
89353SOL     OW69897   4.164  10.699   0.190
89353SOL    HW169898   4.164  10.625   0.251
89353SOL    HW269899   4.090  10.753   0.217
89354SOL     OW69900  12.633   7.232   5.431
89354SOL    HW169901  12.549   7.187   5.424
89354SOL    HW269902  12.697   7.170   5.397
89355SOL     OW69903   2.411   7.619  11.870
89355SOL    HW169904   2.489   7.564  11.877
89355SOL    HW269905   2.424   7.688  11.935
89356SOL     OW69906  13.901   8.846  13.328
89356SOL    HW169907  13.898   8.936  13.359
89356SOL    HW269908  13.820   8.806  13.361
89357SOL     OW69909   6.158   0.291   7.843
89357SOL    HW169910   6.128   0.282   7.933
89357SOL    HW269911   6.253   0.281   7.848
89358SOL     OW69912   9.060   2.596   3.489
89358SOL    HW169913   9.105   2.550   3.560
89358SOL    HW269914   9.122   2.663   3.461
89359SOL     OW69915   5.279  13.545   3.562
89359SOL    HW169916   5.282  13.635   3.529
89359SOL    HW269917   5.200  13.543   3.617
89360SOL     OW69918   2.039   0.925  11.811
89360SOL    HW169919   2.126   0.965  11.819
89360SOL    HW269920   1.983   0.995  11.776
89361SOL     OW69921   9.431   6.836  14.743
89361SOL    HW169922   9.356   6.806  14.691
89361SOL    HW269923   9.418   6.931  14.750
89362SOL     OW69924  13.334   8.680   4.268
89362SOL    HW169925  13.373   8.753   4.219
89362SOL    HW269926  13.390   8.669   4.344
89363SOL     OW69927   4.468  13.657  10.291
89363SOL    HW169928   4.555  13.645  10.329
89363SOL    HW269929   4.474  13.739  10.242
89364SOL     OW69930   6.226  13.899   2.804
89364SOL    HW169931   6.165  13.835   2.767
89364SOL    HW269932   6.236  13.874   2.895
89365SOL     OW69933  11.710   4.266   6.818
89365SOL    HW169934  11.777   4.334   6.828
89365SOL    HW269935  11.727   4.204   6.889
89366SOL     OW69936  12.110   0.828   6.800
89366SOL    HW169937  12.161   0.781   6.866
89366SOL    HW269938  12.037   0.769   6.781
89367SOL     OW69939   3.012  10.561   6.335
89367SOL    HW169940   2.967  10.627   6.281
89367SOL    HW269941   3.027  10.604   6.419
89368SOL     OW69942   0.058   6.334   9.779
89368SOL    HW169943   0.029   6.254   9.823
89368SOL    HW269944  14.875   6.349   9.710
89369SOL     OW69945   6.100  14.606   1.387
89369SOL    HW169946   6.182  14.638   1.349
89369SOL    HW269947   6.074  14.675   1.448
89370SOL     OW69948   3.871   4.307   1.567
89370SOL    HW169949   3.843   4.399   1.569
89370SOL    HW269950   3.792   4.257   1.587
89371SOL     OW69951   5.622   0.342   0.495
89371SOL    HW169952   5.677   0.271   0.463
89371SOL    HW269953   5.619   0.405   0.424
89372SOL     OW69954  10.068  12.625  10.658
89372SOL    HW169955  10.163  12.625  10.648
89372SOL    HW269956  10.053  12.642  10.751
89373SOL     OW69957   3.254   3.747   0.868
89373SOL    HW169958   3.175   3.713   0.911
89373SOL    HW269959   3.266   3.691   0.792
89374SOL     OW69960   8.070   8.537  10.751
89374SOL    HW169961   8.032   8.502  10.832
89374SOL    HW269962   8.076   8.461  10.693
89375SOL     OW69963  10.233   3.397   9.211
89375SOL    HW169964  10.249   3.401   9.116
89375SOL    HW269965  10.263   3.482   9.243
89376SOL     OW69966  10.339  12.252  10.197
89376SOL    HW169967  10.255  12.243  10.153
89376SOL    HW269968  10.403  12.259  10.125
89377SOL     OW69969  14.455  14.757   4.726
89377SOL    HW169970  14.362  14.776   4.724
89377SOL    HW269971  14.497  14.841   4.705
89378SOL     OW69972   7.780  11.697   7.992
89378SOL    HW169973   7.731  11.656   7.921
89378SOL    HW269974   7.750  11.652   8.071
89379SOL     OW69975  14.277   8.601   2.349
89379SOL    HW169976  14.203   8.569   2.296
89379SOL    HW269977  14.355   8.567   2.303
89380SOL     OW69978  12.996   0.708   4.960
89380SOL    HW169979  12.903   0.685   4.953
89380SOL    HW269980  13.033   0.687   4.875
89381SOL     OW69981   6.611  13.335   5.673
89381SOL    HW169982   6.528  13.382   5.670
89381SOL    HW269983   6.586  13.243   5.673
89382SOL     OW69984  13.279   2.899   5.786
89382SOL    HW169985  13.256   2.916   5.877
89382SOL    HW269986  13.208   2.844   5.753
89383SOL     OW69987   4.603  13.604   2.792
89383SOL    HW169988   4.621  13.539   2.860
89383SOL    HW269989   4.516  13.581   2.759
89384SOL     OW69990  14.460   7.148   5.741
89384SOL    HW169991  14.463   7.072   5.682
89384SOL    HW269992  14.425   7.113   5.823
89385SOL     OW69993   5.555   3.677   5.810
89385SOL    HW169994   5.542   3.694   5.903
89385SOL    HW269995   5.467   3.674   5.773
89386SOL     OW69996   2.270   4.350   0.038
89386SOL    HW169997   2.203   4.416   0.023
89386SOL    HW269998   2.275   4.300  14.838
89387SOL     OW69999   6.203   9.564   6.097
89387SOL    HW170000   6.280   9.618   6.118
89387SOL    HW270001   6.231   9.510   6.023
89388SOL     OW70002   7.959   1.920   6.066
89388SOL    HW170003   7.947   1.867   6.145
89388SOL    HW270004   7.960   1.856   5.994
89389SOL     OW70005   7.428   7.831  12.966
89389SOL    HW170006   7.414   7.775  13.043
89389SOL    HW270007   7.342   7.836  12.925
89390SOL     OW70008   9.881   9.543   6.828
89390SOL    HW170009   9.826   9.483   6.877
89390SOL    HW270010   9.855   9.531   6.736
89391SOL     OW70011  13.460   8.069  13.688
89391SOL    HW170012  13.517   8.011  13.638
89391SOL    HW270013  13.390   8.012  13.720
89392SOL     OW70014  12.945   5.111  14.481
89392SOL    HW170015  12.986   5.172  14.542
89392SOL    HW270016  12.944   5.157  14.398
89393SOL     OW70017  10.417  14.180   4.306
89393SOL    HW170018  10.402  14.086   4.314
89393SOL    HW270019  10.502  14.194   4.348
89394SOL     OW70020   0.418   2.277  10.999
89394SOL    HW170021   0.347   2.324  11.043
89394SOL    HW270022   0.483   2.262  11.067
89395SOL     OW70023   1.174   6.747   8.118
89395SOL    HW170024   1.130   6.711   8.040
89395SOL    HW270025   1.105   6.796   8.163
89396SOL     OW70026   4.531  12.606  12.319
89396SOL    HW170027   4.617  12.647  12.322
89396SOL    HW270028   4.538  12.532  12.379
89397SOL     OW70029   9.013   3.547   2.111
89397SOL    HW170030   8.994   3.501   2.029
89397SOL    HW270031   8.956   3.506   2.176
89398SOL     OW70032   0.148   4.045  11.160
89398SOL    HW170033   0.096   3.974  11.123
89398SOL    HW270034   0.138   4.034  11.255
89399SOL     OW70035   2.322   0.785  12.761
89399SOL    HW170036   2.366   0.828  12.688
89399SOL    HW270037   2.393   0.751  12.816
89400SOL     OW70038   3.349  12.030   8.746
89400SOL    HW170039   3.362  12.026   8.651
89400SOL    HW270040   3.404  12.102   8.775
89401SOL     OW70041  12.072   7.164   5.759
89401SOL    HW170042  12.163   7.136   5.772
89401SOL    HW270043  12.057   7.153   5.665
89402SOL     OW70044  10.850   2.935   7.640
89402SOL    HW170045  10.772   2.944   7.585
89402SOL    HW270046  10.896   3.018   7.629
89403SOL     OW70047  10.111  10.656  12.591
89403SOL    HW170048  10.045  10.618  12.648
89403SOL    HW270049  10.170  10.584  12.569
89404SOL     OW70050  14.069   8.266   3.670
89404SOL    HW170051  14.106   8.296   3.753
89404SOL    HW270052  13.996   8.209   3.695
89405SOL     OW70053   1.646  11.286  13.072
89405SOL    HW170054   1.740  11.265  13.080
89405SOL    HW270055   1.642  11.381  13.076
89406SOL     OW70056   4.112   7.858   2.239
89406SOL    HW170057   4.141   7.926   2.178
89406SOL    HW270058   4.182   7.851   2.303
89407SOL     OW70059   0.301   8.521   2.964
89407SOL    HW170060   0.313   8.428   2.949
89407SOL    HW270061   0.388   8.555   2.984
89408SOL     OW70062  14.387  13.645  14.822
89408SOL    HW170063  14.398  13.691   0.024
89408SOL    HW270064  14.456  13.579  14.822
89409SOL     OW70065  14.195   1.827  11.931
89409SOL    HW170066  14.243   1.793  11.855
89409SOL    HW270067  14.259   1.826  12.002
89410SOL     OW70068  11.913   0.883   2.126
89410SOL    HW170069  11.841   0.821   2.135
89410SOL    HW270070  11.872   0.968   2.112
89411SOL     OW70071   8.922   1.378   8.050
89411SOL    HW170072   8.996   1.412   7.999
89411SOL    HW270073   8.852   1.366   7.986
89412SOL     OW70074   6.998   3.644   2.169
89412SOL    HW170075   7.014   3.657   2.263
89412SOL    HW270076   6.924   3.584   2.166
89413SOL     OW70077   8.677   6.910   8.864
89413SOL    HW170078   8.655   7.002   8.881
89413SOL    HW270079   8.626   6.887   8.786
89414SOL     OW70080   9.218  13.462   6.324
89414SOL    HW170081   9.262  13.509   6.395
89414SOL    HW270082   9.288  13.415   6.278
89415SOL     OW70083  11.744  11.283   9.332
89415SOL    HW170084  11.793  11.335   9.396
89415SOL    HW270085  11.812  11.235   9.285
89416SOL     OW70086   7.715   0.126  13.867
89416SOL    HW170087   7.807   0.126  13.841
89416SOL    HW270088   7.671   0.180  13.802
89417SOL     OW70089   2.888   5.791   2.051
89417SOL    HW170090   2.816   5.762   1.996
89417SOL    HW270091   2.964   5.790   1.993
89418SOL     OW70092  14.576  12.355   6.506
89418SOL    HW170093  14.483  12.365   6.526
89418SOL    HW270094  14.582  12.371   6.412
89419SOL     OW70095  12.195   1.034  10.450
89419SOL    HW170096  12.286   1.057  10.433
89419SOL    HW270097  12.167   0.985  10.372
89420SOL     OW70098  12.820  13.432   4.658
89420SOL    HW170099  12.769  13.373   4.713
89420SOL    HW270100  12.910  13.400   4.664
89421SOL     OW70101   6.355  13.034  11.491
89421SOL    HW170102   6.264  13.064  11.495
89421SOL    HW270103   6.366  12.980  11.569
89422SOL     OW70104   0.044   7.100   1.773
89422SOL    HW170105   0.124   7.149   1.756
89422SOL    HW270106   0.064   7.049   1.852
89423SOL     OW70107   6.418   2.652  11.674
89423SOL    HW170108   6.445   2.742  11.691
89423SOL    HW270109   6.332   2.659  11.634
89424SOL     OW70110   1.120  10.216   0.647
89424SOL    HW170111   1.051  10.240   0.586
89424SOL    HW270112   1.147  10.298   0.687
89425SOL     OW70113  12.110   2.190   8.039
89425SOL    HW170114  12.088   2.104   8.002
89425SOL    HW270115  12.119   2.247   7.963
89426SOL     OW70116  12.079   4.387  11.775
89426SOL    HW170117  12.074   4.476  11.740
89426SOL    HW270118  12.079   4.330  11.698
89427SOL     OW70119  14.147   6.767   9.612
89427SOL    HW170120  14.179   6.684   9.576
89427SOL    HW270121  14.096   6.806   9.541
89428SOL     OW70122  12.873   1.193   6.164
89428SOL    HW170123  12.843   1.284   6.172
89428SOL    HW270124  12.964   1.201   6.135
89429SOL     OW70125   2.121   8.912  13.802
89429SOL    HW170126   2.049   8.942  13.858
89429SOL    HW270127   2.112   8.964  13.722
89430SOL     OW70128   9.467   8.077   4.462
89430SOL    HW170129   9.436   8.077   4.552
89430SOL    HW270130   9.511   7.992   4.452
89431SOL     OW70131  11.698   4.846   7.700
89431SOL    HW170132  11.704   4.936   7.669
89431SOL    HW270133  11.635   4.850   7.773
89432SOL     OW70134   8.356   1.376   3.956
89432SOL    HW170135   8.420   1.368   4.027
89432SOL    HW270136   8.285   1.429   3.993
89433SOL     OW70137   6.177   4.984   4.513
89433SOL    HW170138   6.155   5.014   4.425
89433SOL    HW270139   6.094   4.952   4.550
89434SOL     OW70140  14.365  12.369   2.057
89434SOL    HW170141  14.302  12.414   2.000
89434SOL    HW270142  14.366  12.279   2.025
89435SOL     OW70143   0.944  13.724   1.831
89435SOL    HW170144   0.893  13.664   1.777
89435SOL    HW270145   0.914  13.707   1.921
89436SOL     OW70146   3.678   2.095  14.003
89436SOL    HW170147   3.590   2.074  13.972
89436SOL    HW270148   3.681   2.190  14.007
89437SOL     OW70149  13.739   6.899   7.666
89437SOL    HW170150  13.829   6.891   7.697
89437SOL    HW270151  13.743   6.872   7.574
89438SOL     OW70152   8.959  13.966   9.036
89438SOL    HW170153   8.954  13.913   8.956
89438SOL    HW270154   8.912  14.046   9.015
89439SOL     OW70155  10.102   3.919   9.596
89439SOL    HW170156  10.063   3.870   9.668
89439SOL    HW270157  10.135   3.999   9.636
89440SOL     OW70158   8.669  13.858   6.071
89440SOL    HW170159   8.671  13.925   6.139
89440SOL    HW270160   8.755  13.815   6.078
89441SOL     OW70161   6.391   2.795   3.660
89441SOL    HW170162   6.419   2.708   3.629
89441SOL    HW270163   6.381   2.847   3.580
89442SOL     OW70164  14.440   1.860   8.790
89442SOL    HW170165  14.364   1.803   8.807
89442SOL    HW270166  14.442   1.870   8.695
89443SOL     OW70167  10.143   9.322   1.001
89443SOL    HW170168  10.214   9.366   0.953
89443SOL    HW270169  10.067   9.378   0.988
89444SOL     OW70170  10.848   8.612   9.100
89444SOL    HW170171  10.831   8.700   9.133
89444SOL    HW270172  10.934   8.619   9.057
89445SOL     OW70173   3.260  11.161  14.476
89445SOL    HW170174   3.273  11.136  14.567
89445SOL    HW270175   3.312  11.098  14.426
89446SOL     OW70176   7.405   2.325   0.173
89446SOL    HW170177   7.314   2.296   0.180
89446SOL    HW270178   7.449   2.255   0.124
89447SOL     OW70179   3.399   9.822   1.437
89447SOL    HW170180   3.405   9.796   1.345
89447SOL    HW270181   3.484   9.797   1.475
89448SOL     OW70182   6.331   7.840  10.224
89448SOL    HW170183   6.384   7.784  10.282
89448SOL    HW270184   6.370   7.927  10.233
89449SOL     OW70185   4.252   5.617   2.392
89449SOL    HW170186   4.228   5.624   2.299
89449SOL    HW270187   4.174   5.647   2.439
89450SOL     OW70188   3.900   2.143  13.095
89450SOL    HW170189   3.935   2.231  13.110
89450SOL    HW270190   3.963   2.084  13.135
89451SOL     OW70191  11.023   3.199   8.480
89451SOL    HW170192  11.083   3.267   8.448
89451SOL    HW270193  11.037   3.198   8.574
89452SOL     OW70194   5.426  11.602   2.152
89452SOL    HW170195   5.493  11.649   2.103
89452SOL    HW270196   5.417  11.517   2.107
89453SOL     OW70197  14.667  12.478   3.643
89453SOL    HW170198  14.587  12.472   3.590
89453SOL    HW270199  14.735  12.506   3.582
89454SOL     OW70200   0.741  11.930   8.227
89454SOL    HW170201   0.766  11.875   8.152
89454SOL    HW270202   0.670  11.882   8.269
89455SOL     OW70203   7.300   6.534   3.789
89455SOL    HW170204   7.277   6.497   3.704
89455SOL    HW270205   7.366   6.475   3.825
89456SOL     OW70206  13.367  14.859  14.704
89456SOL    HW170207  13.388   0.015  14.619
89456SOL    HW270208  13.353   0.054  14.761
89457SOL     OW70209   1.194   4.337   3.710
89457SOL    HW170210   1.206   4.424   3.749
89457SOL    HW270211   1.208   4.277   3.783
89458SOL     OW70212  11.759  12.659   8.136
89458SOL    HW170213  11.703  12.734   8.157
89458SOL    HW270214  11.760  12.606   8.216
89459SOL     OW70215   6.028   3.776   8.667
89459SOL    HW170216   5.948   3.742   8.627
89459SOL    HW270217   5.998   3.833   8.737
89460SOL     OW70218   2.567   2.984  14.345
89460SOL    HW170219   2.515   3.017  14.272
89460SOL    HW270220   2.503   2.965  14.413
89461SOL     OW70221   4.310   7.239  13.472
89461SOL    HW170222   4.355   7.257  13.390
89461SOL    HW270223   4.228   7.287  13.466
89462SOL     OW70224   3.646   9.695  13.894
89462SOL    HW170225   3.718   9.753  13.919
89462SOL    HW270226   3.599   9.743  13.826
89463SOL     OW70227   4.450   0.003   0.255
89463SOL    HW170228   4.383  14.843   0.309
89463SOL    HW270229   4.431   0.097   0.262
89464SOL     OW70230  13.895  12.324   6.839
89464SOL    HW170231  13.875  12.415   6.817
89464SOL    HW270232  13.918  12.327   6.932
89465SOL     OW70233  13.180   1.539   0.680
89465SOL    HW170234  13.184   1.557   0.774
89465SOL    HW270235  13.152   1.623   0.641
89466SOL     OW70236  14.878   6.733  13.554
89466SOL    HW170237   0.049   6.674  13.500
89466SOL    HW270238   0.041   6.735  13.638
89467SOL     OW70239   0.839   5.876   4.641
89467SOL    HW170240   0.934   5.891   4.640
89467SOL    HW270241   0.825   5.820   4.718
89468SOL     OW70242  13.100   6.305  13.629
89468SOL    HW170243  13.170   6.239  13.632
89468SOL    HW270244  13.132   6.370  13.567
89469SOL     OW70245   2.201   1.641   0.453
89469SOL    HW170246   2.123   1.627   0.506
89469SOL    HW270247   2.268   1.666   0.516
89470SOL     OW70248  11.826   0.157   1.681
89470SOL    HW170249  11.757   0.215   1.651
89470SOL    HW270250  11.818   0.157   1.776
89471SOL     OW70251   8.287  14.054   4.434
89471SOL    HW170252   8.378  14.036   4.410
89471SOL    HW270253   8.235  14.001   4.373
89472SOL     OW70254   7.617   8.876   2.726
89472SOL    HW170255   7.561   8.930   2.782
89472SOL    HW270256   7.702   8.920   2.727
89473SOL     OW70257   0.552  10.478  11.374
89473SOL    HW170258   0.608  10.495  11.298
89473SOL    HW270259   0.525  10.566  11.403
89474SOL     OW70260  14.594  13.036   6.049
89474SOL    HW170261  14.623  13.108   5.993
89474SOL    HW270262  14.498  13.037   6.042
89475SOL     OW70263  10.378   3.118   7.240
89475SOL    HW170264  10.329   3.131   7.159
89475SOL    HW270265  10.378   3.203   7.282
89476SOL     OW70266   0.487  10.964   7.909
89476SOL    HW170267   0.542  10.908   7.965
89476SOL    HW270268   0.398  10.931   7.922
89477SOL     OW70269   3.915  13.851   3.260
89477SOL    HW170270   3.896  13.763   3.294
89477SOL    HW270271   3.997  13.840   3.211
89478SOL     OW70272   4.929  13.673   6.057
89478SOL    HW170273   4.834  13.671   6.064
89478SOL    HW270274   4.947  13.653   5.965
89479SOL     OW70275   8.969   5.034   4.134
89479SOL    HW170276   9.063   5.016   4.145
89479SOL    HW270277   8.931   5.015   4.220
89480SOL     OW70278   9.979   6.361   4.109
89480SOL    HW170279   9.942   6.278   4.140
89480SOL    HW270280   9.951   6.426   4.173
89481SOL     OW70281   1.731  13.086   4.035
89481SOL    HW170282   1.736  12.992   4.015
89481SOL    HW270283   1.748  13.091   4.129
89482SOL     OW70284   2.667   2.600   1.082
89482SOL    HW170285   2.692   2.666   1.017
89482SOL    HW270286   2.582   2.629   1.115
89483SOL     OW70287  12.463  13.587   3.613
89483SOL    HW170288  12.552  13.606   3.642
89483SOL    HW270289  12.423  13.542   3.687
89484SOL     OW70290   4.134  11.425   5.842
89484SOL    HW170291   4.210  11.481   5.830
89484SOL    HW270292   4.059  11.481   5.823
89485SOL     OW70293  10.283   9.281   4.319
89485SOL    HW170294  10.313   9.331   4.395
89485SOL    HW270295  10.273   9.346   4.250
89486SOL     OW70296   2.044   0.377   4.051
89486SOL    HW170297   2.087   0.450   4.005
89486SOL    HW270298   2.003   0.326   3.981
89487SOL     OW70299   7.253   3.253  13.757
89487SOL    HW170300   7.163   3.254  13.723
89487SOL    HW270301   7.279   3.161  13.753
89488SOL     OW70302   7.648   4.953   8.321
89488SOL    HW170303   7.723   4.902   8.291
89488SOL    HW270304   7.580   4.888   8.338
89489SOL     OW70305  10.022   3.083   0.706
89489SOL    HW170306   9.926   3.073   0.700
89489SOL    HW270307  10.039   3.091   0.799
89490SOL     OW70308   0.284  13.551   7.552
89490SOL    HW170309   0.340  13.623   7.522
89490SOL    HW270310   0.275  13.567   7.646
89491SOL     OW70311  14.272   5.387  12.930
89491SOL    HW170312  14.332   5.400  12.857
89491SOL    HW270313  14.323   5.336  12.994
89492SOL     OW70314   5.885   2.890   3.668
89492SOL    HW170315   5.931   2.814   3.635
89492SOL    HW270316   5.819   2.855   3.727
89493SOL     OW70317   5.399   5.357  13.391
89493SOL    HW170318   5.342   5.387  13.320
89493SOL    HW270319   5.338   5.326  13.458
89494SOL     OW70320   5.045   8.636   1.582
89494SOL    HW170321   5.011   8.558   1.538
89494SOL    HW270322   5.003   8.709   1.537
89495SOL     OW70323   3.382   4.238   7.757
89495SOL    HW170324   3.441   4.166   7.733
89495SOL    HW270325   3.299   4.217   7.713
89496SOL     OW70326   5.099   1.157  14.105
89496SOL    HW170327   5.113   1.159  14.011
89496SOL    HW270328   5.187   1.153  14.142
89497SOL     OW70329   9.734  14.589  13.964
89497SOL    HW170330   9.815  14.543  13.944
89497SOL    HW270331   9.760  14.661  14.021
89498SOL     OW70332   2.447  10.831   8.394
89498SOL    HW170333   2.478  10.764   8.334
89498SOL    HW270334   2.354  10.811   8.406
89499SOL     OW70335  12.989  14.749   6.116
89499SOL    HW170336  13.008  14.689   6.044
89499SOL    HW270337  12.947  14.824   6.074
89500SOL     OW70338   2.033  14.161   7.164
89500SOL    HW170339   2.049  14.171   7.258
89500SOL    HW270340   2.007  14.248   7.135
89501SOL     OW70341  10.809   2.313   8.096
89501SOL    HW170342  10.856   2.366   8.032
89501SOL    HW270343  10.874   2.249   8.125
89502SOL     OW70344  10.489  11.020   5.241
89502SOL    HW170345  10.397  11.023   5.217
89502SOL    HW270346  10.490  11.041   5.334
89503SOL     OW70347   3.803   3.313  13.562
89503SOL    HW170348   3.811   3.239  13.622
89503SOL    HW270349   3.856   3.382  13.601
89504SOL     OW70350   0.669  14.425  12.307
89504SOL    HW170351   0.731  14.408  12.379
89504SOL    HW270352   0.630  14.510  12.329
89505SOL     OW70353   8.825  12.379   5.501
89505SOL    HW170354   8.819  12.474   5.493
89505SOL    HW270355   8.802  12.345   5.415
89506SOL     OW70356   6.163  10.947   6.738
89506SOL    HW170357   6.207  11.000   6.804
89506SOL    HW270358   6.228  10.882   6.712
89507SOL     OW70359   7.462   4.736  14.297
89507SOL    HW170360   7.461   4.797  14.371
89507SOL    HW270361   7.373   4.737  14.264
89508SOL     OW70362   7.749   5.850  14.093
89508SOL    HW170363   7.750   5.944  14.107
89508SOL    HW270364   7.705   5.838  14.009
89509SOL     OW70365   9.215   3.762  14.780
89509SOL    HW170366   9.305   3.731  14.772
89509SOL    HW270367   9.182   3.719  14.859
89510SOL     OW70368   9.714   8.114  14.784
89510SOL    HW170369   9.762   8.183  14.830
89510SOL    HW270370   9.688   8.053  14.853
89511SOL     OW70371  13.879  12.505  14.876
89511SOL    HW170372  13.968  12.524   0.023
89511SOL    HW270373  13.862  12.569  14.807
89512SOL     OW70374   0.583   5.720   5.585
89512SOL    HW170375   0.663   5.750   5.628
89512SOL    HW270376   0.534   5.801   5.567
89513SOL     OW70377   0.249  14.065  12.517
89513SOL    HW170378   0.239  14.147  12.468
89513SOL    HW270379   0.179  14.009  12.483
89514SOL     OW70380   7.141   2.145  10.666
89514SOL    HW170381   7.195   2.189  10.732
89514SOL    HW270382   7.061   2.196  10.664
89515SOL     OW70383   4.539   3.921   4.403
89515SOL    HW170384   4.627   3.895   4.375
89515SOL    HW270385   4.552   3.961   4.489
89516SOL     OW70386   0.030   9.350   4.112
89516SOL    HW170387  14.826   9.326   4.147
89516SOL    HW270388   0.036   9.444   4.126
89517SOL     OW70389  11.823   7.899  11.154
89517SOL    HW170390  11.821   7.980  11.204
89517SOL    HW270391  11.857   7.924  11.068
89518SOL     OW70392   6.033  12.290  14.012
89518SOL    HW170393   6.016  12.198  14.029
89518SOL    HW270394   5.947  12.332  14.016
89519SOL     OW70395   3.795  12.077   3.406
89519SOL    HW170396   3.787  11.986   3.377
89519SOL    HW270397   3.863  12.114   3.350
89520SOL     OW70398  10.831   6.947   3.163
89520SOL    HW170399  10.816   6.877   3.226
89520SOL    HW270400  10.789   7.024   3.201
89521SOL     OW70401  12.584   3.566   0.817
89521SOL    HW170402  12.633   3.646   0.799
89521SOL    HW270403  12.560   3.573   0.909
89522SOL     OW70404   8.792   5.243  12.002
89522SOL    HW170405   8.843   5.293  11.938
89522SOL    HW270406   8.858   5.204  12.060
89523SOL     OW70407   5.596  14.827  13.058
89523SOL    HW170408   5.567   0.032  13.087
89523SOL    HW270409   5.692  14.834  13.058
89524SOL     OW70410  13.762   5.989  10.478
89524SOL    HW170411  13.692   5.923  10.469
89524SOL    HW270412  13.715   6.069  10.502
89525SOL     OW70413   8.058   5.761  13.893
89525SOL    HW170414   8.068   5.780  13.986
89525SOL    HW270415   7.992   5.692  13.889
89526SOL     OW70416   5.889   3.370  10.457
89526SOL    HW170417   5.858   3.420  10.381
89526SOL    HW270418   5.982   3.358  10.441
89527SOL     OW70419   6.841   4.880   4.567
89527SOL    HW170420   6.753   4.882   4.604
89527SOL    HW270421   6.854   4.788   4.542
89528SOL     OW70422   7.468   2.292   6.270
89528SOL    HW170423   7.485   2.385   6.279
89528SOL    HW270424   7.414   2.270   6.345
89529SOL     OW70425   3.047   2.226  14.392
89529SOL    HW170426   3.102   2.282  14.337
89529SOL    HW270427   3.025   2.280  14.467
89530SOL     OW70428   8.400   8.557   8.500
89530SOL    HW170429   8.391   8.636   8.446
89530SOL    HW270430   8.441   8.587   8.581
89531SOL     OW70431  10.554   0.720   5.267
89531SOL    HW170432  10.640   0.746   5.235
89531SOL    HW270433  10.573   0.668   5.345
89532SOL     OW70434  11.937  10.664   0.626
89532SOL    HW170435  12.020  10.636   0.588
89532SOL    HW270436  11.952  10.753   0.656
89533SOL     OW70437   1.368  11.015   2.369
89533SOL    HW170438   1.415  11.090   2.333
89533SOL    HW270439   1.344  10.962   2.292
89534SOL     OW70440   8.441  11.200   9.702
89534SOL    HW170441   8.374  11.182   9.636
89534SOL    HW270442   8.406  11.273   9.753
89535SOL     OW70443   1.994   3.854   3.155
89535SOL    HW170444   1.942   3.817   3.083
89535SOL    HW270445   1.930   3.876   3.222
89536SOL     OW70446   0.906   2.017   7.684
89536SOL    HW170447   0.979   1.956   7.687
89536SOL    HW270448   0.874   2.021   7.774
89537SOL     OW70449  10.375   0.061   5.643
89537SOL    HW170450  10.429   0.006   5.587
89537SOL    HW270451  10.431   0.134   5.669
89538SOL     OW70452   0.284   6.542   0.250
89538SOL    HW170453   0.261   6.517   0.161
89538SOL    HW270454   0.378   6.563   0.245
89539SOL     OW70455   0.500   2.075   8.536
89539SOL    HW170456   0.459   2.140   8.479
89539SOL    HW270457   0.441   1.999   8.532
89540SOL     OW70458   5.925   1.833  12.931
89540SOL    HW170459   5.969   1.916  12.911
89540SOL    HW270460   5.975   1.797  13.004
89541SOL     OW70461   2.330   8.580  12.302
89541SOL    HW170462   2.299   8.543  12.220
89541SOL    HW270463   2.280   8.535  12.370
89542SOL     OW70464  12.653  14.515   3.994
89542SOL    HW170465  12.697  14.443   4.039
89542SOL    HW270466  12.588  14.472   3.938
89543SOL     OW70467  10.109   5.435   5.634
89543SOL    HW170468  10.053   5.358   5.641
89543SOL    HW270469  10.060   5.495   5.576
89544SOL     OW70470   4.720  10.515   2.826
89544SOL    HW170471   4.777  10.438   2.821
89544SOL    HW270472   4.643  10.485   2.874
89545SOL     OW70473   3.875   5.459   2.663
89545SOL    HW170474   3.967   5.469   2.638
89545SOL    HW270475   3.866   5.511   2.743
89546SOL     OW70476   2.880  14.446  10.222
89546SOL    HW170477   2.868  14.422  10.130
89546SOL    HW270478   2.861  14.540  10.225
89547SOL     OW70479  11.108   6.744  11.655
89547SOL    HW170480  11.048   6.688  11.605
89547SOL    HW270481  11.192   6.734  11.610
89548SOL     OW70482   7.831   3.503  14.390
89548SOL    HW170483   7.884   3.582  14.391
89548SOL    HW270484   7.765   3.517  14.459
89549SOL     OW70485   5.088   3.324   4.319
89549SOL    HW170486   5.123   3.331   4.408
89549SOL    HW270487   5.134   3.392   4.269
89550SOL     OW70488   0.415  12.617  11.706
89550SOL    HW170489   0.488  12.666  11.667
89550SOL    HW270490   0.452  12.531  11.726
89551SOL     OW70491   3.452   6.818   6.278
89551SOL    HW170492   3.463   6.903   6.234
89551SOL    HW270493   3.403   6.765   6.216
89552SOL     OW70494   3.348   7.023   7.033
89552SOL    HW170495   3.371   6.945   6.983
89552SOL    HW270496   3.285   7.068   6.978
89553SOL     OW70497   1.068   9.894  13.997
89553SOL    HW170498   1.042   9.888  14.089
89553SOL    HW270499   1.119   9.814  13.982
89554SOL     OW70500  12.978  14.509   8.918
89554SOL    HW170501  12.927  14.466   8.849
89554SOL    HW270502  13.068  14.507   8.886
89555SOL     OW70503  13.430   2.542   4.105
89555SOL    HW170504  13.472   2.526   4.189
89555SOL    HW270505  13.363   2.473   4.098
89556SOL     OW70506  12.926   0.312   5.870
89556SOL    HW170507  12.964   0.396   5.845
89556SOL    HW270508  12.837   0.313   5.834
89557SOL     OW70509   1.417  13.837   0.370
89557SOL    HW170510   1.441  13.787   0.449
89557SOL    HW270511   1.461  13.921   0.380
89558SOL     OW70512  14.759   4.258   4.025
89558SOL    HW170513  14.760   4.274   4.120
89558SOL    HW270514  14.690   4.315   3.992
89559SOL     OW70515  14.202   6.723   9.997
89559SOL    HW170516  14.242   6.726  10.084
89559SOL    HW270517  14.273   6.697   9.939
89560SOL     OW70518   7.675   7.493   9.826
89560SOL    HW170519   7.658   7.530   9.739
89560SOL    HW270520   7.722   7.411   9.807
89561SOL     OW70521   6.140  11.909   9.759
89561SOL    HW170522   6.216  11.913   9.817
89561SOL    HW270523   6.160  11.972   9.689
89562SOL     OW70524   4.328  12.153   3.388
89562SOL    HW170525   4.351  12.061   3.376
89562SOL    HW270526   4.375  12.180   3.467
89563SOL     OW70527   2.445  11.883   5.804
89563SOL    HW170528   2.495  11.804   5.781
89563SOL    HW270529   2.446  11.936   5.724
89564SOL     OW70530   7.040  12.459   5.299
89564SOL    HW170531   7.045  12.463   5.394
89564SOL    HW270532   7.005  12.372   5.280
89565SOL     OW70533   2.178  11.814   5.546
89565SOL    HW170534   2.224  11.812   5.462
89565SOL    HW270535   2.233  11.869   5.602
89566SOL     OW70536   6.966   6.629   6.983
89566SOL    HW170537   6.960   6.538   6.953
89566SOL    HW270538   7.038   6.666   6.932
89567SOL     OW70539   6.515   4.267   9.343
89567SOL    HW170540   6.460   4.345   9.339
89567SOL    HW270541   6.468   4.207   9.401
89568SOL     OW70542   5.395   4.447   6.362
89568SOL    HW170543   5.336   4.457   6.437
89568SOL    HW270544   5.343   4.478   6.287
89569SOL     OW70545   3.562  12.031   5.486
89569SOL    HW170546   3.526  12.118   5.505
89569SOL    HW270547   3.485  11.978   5.463
89570SOL     OW70548  13.348  12.519   6.082
89570SOL    HW170549  13.434  12.543   6.047
89570SOL    HW270550  13.359  12.525   6.177
89571SOL     OW70551   9.059   8.714   7.665
89571SOL    HW170552   9.063   8.788   7.725
89571SOL    HW270553   8.966   8.691   7.663
89572SOL     OW70554   8.589  10.407   5.200
89572SOL    HW170555   8.610  10.458   5.279
89572SOL    HW270556   8.666  10.416   5.144
89573SOL     OW70557   9.662   3.318   5.055
89573SOL    HW170558   9.588   3.287   5.107
89573SOL    HW270559   9.635   3.404   5.023
89574SOL     OW70560   3.077  13.340   3.441
89574SOL    HW170561   3.102  13.259   3.397
89574SOL    HW270562   3.153  13.398   3.430
89575SOL     OW70563   0.886   0.662   0.865
89575SOL    HW170564   0.922   0.584   0.823
89575SOL    HW270565   0.887   0.728   0.796
89576SOL     OW70566   5.984  11.387  11.034
89576SOL    HW170567   6.017  11.391  10.944
89576SOL    HW270568   5.997  11.296  11.061
89577SOL     OW70569   7.601   3.100   3.205
89577SOL    HW170570   7.677   3.052   3.239
89577SOL    HW270571   7.545   3.111   3.282
89578SOL     OW70572   2.179  14.516   9.975
89578SOL    HW170573   2.244  14.446   9.970
89578SOL    HW270574   2.129  14.508   9.894
89579SOL     OW70575   1.935   9.892  14.718
89579SOL    HW170576   1.890   9.821  14.765
89579SOL    HW270577   2.022   9.896  14.759
89580SOL     OW70578   7.972   8.740  10.437
89580SOL    HW170579   7.981   8.664  10.379
89580SOL    HW270580   7.877   8.753  10.444
89581SOL     OW70581   8.483   8.413   4.263
89581SOL    HW170582   8.392   8.382   4.265
89581SOL    HW270583   8.525   8.359   4.197
89582SOL     OW70584   9.635   3.934   3.698
89582SOL    HW170585   9.619   3.847   3.660
89582SOL    HW270586   9.712   3.922   3.753
89583SOL     OW70587   7.907   9.418  12.733
89583SOL    HW170588   7.966   9.379  12.798
89583SOL    HW270589   7.876   9.343  12.681
89584SOL     OW70590   7.835  13.052   5.337
89584SOL    HW170591   7.833  12.959   5.315
89584SOL    HW270592   7.789  13.057   5.421
89585SOL     OW70593   4.902  14.627   8.404
89585SOL    HW170594   4.889  14.716   8.434
89585SOL    HW270595   4.850  14.573   8.463
89586SOL     OW70596  10.344   9.898  13.318
89586SOL    HW170597  10.358   9.971  13.378
89586SOL    HW270598  10.432   9.871  13.292
89587SOL     OW70599   7.479   3.577  12.677
89587SOL    HW170600   7.474   3.577  12.772
89587SOL    HW270601   7.569   3.551  12.657
89588SOL     OW70602  12.217   9.464   9.600
89588SOL    HW170603  12.265   9.507   9.529
89588SOL    HW270604  12.271   9.477   9.678
89589SOL     OW70605   7.901   4.197   9.651
89589SOL    HW170606   7.828   4.169   9.706
89589SOL    HW270607   7.968   4.130   9.663
89590SOL     OW70608  10.587  14.284   9.302
89590SOL    HW170609  10.536  14.362   9.325
89590SOL    HW270610  10.598  14.238   9.385
89591SOL     OW70611   4.310   3.040   5.403
89591SOL    HW170612   4.338   3.048   5.494
89591SOL    HW270613   4.391   3.049   5.352
89592SOL     OW70614  11.525   8.659   4.884
89592SOL    HW170615  11.608   8.619   4.910
89592SOL    HW270616  11.524   8.744   4.928
89593SOL     OW70617   8.720   5.473   1.881
89593SOL    HW170618   8.743   5.392   1.835
89593SOL    HW270619   8.635   5.454   1.921
89594SOL     OW70620   8.821  12.185  12.257
89594SOL    HW170621   8.779  12.108  12.218
89594SOL    HW270622   8.903  12.150  12.294
89595SOL     OW70623  10.482   4.119  11.767
89595SOL    HW170624  10.397   4.094  11.803
89595SOL    HW270625  10.546   4.074  11.822
89596SOL     OW70626  10.252   8.872   2.676
89596SOL    HW170627  10.176   8.887   2.732
89596SOL    HW270628  10.216   8.873   2.587
89597SOL     OW70629  12.548   2.436   6.936
89597SOL    HW170630  12.522   2.347   6.961
89597SOL    HW270631  12.475   2.491   6.965
89598SOL     OW70632   7.907   5.817   6.518
89598SOL    HW170633   7.977   5.881   6.526
89598SOL    HW270634   7.934   5.744   6.574
89599SOL     OW70635   8.270   6.071  14.095
89599SOL    HW170636   8.302   6.000  14.152
89599SOL    HW270637   8.274   6.034  14.007
89600SOL     OW70638   4.973   9.714   5.585
89600SOL    HW170639   5.037   9.735   5.652
89600SOL    HW270640   4.889   9.736   5.624
89601SOL     OW70641   0.247   9.601   1.323
89601SOL    HW170642   0.329   9.582   1.278
89601SOL    HW270643   0.181   9.601   1.254
89602SOL     OW70644   0.873   5.047   8.355
89602SOL    HW170645   0.960   5.021   8.385
89602SOL    HW270646   0.878   5.041   8.260
89603SOL     OW70647   9.062  12.347   3.254
89603SOL    HW170648   9.083  12.294   3.331
89603SOL    HW270649   8.977  12.386   3.274
89604SOL     OW70650   6.599   9.116   6.122
89604SOL    HW170651   6.517   9.105   6.171
89604SOL    HW270652   6.652   9.041   6.148
89605SOL     OW70653  12.390   2.027   6.252
89605SOL    HW170654  12.325   2.050   6.186
89605SOL    HW270655  12.341   2.021   6.334
89606SOL     OW70656  10.076  12.640   2.751
89606SOL    HW170657  10.082  12.705   2.682
89606SOL    HW270658  10.079  12.690   2.832
89607SOL     OW70659   7.568   8.795   7.280
89607SOL    HW170660   7.502   8.728   7.265
89607SOL    HW270661   7.525   8.877   7.253
89608SOL     OW70662   4.931   3.322  14.730
89608SOL    HW170663   4.903   3.413  14.735
89608SOL    HW270664   4.854   3.275  14.698
89609SOL     OW70665  10.516  13.126   9.296
89609SOL    HW170666  10.596  13.118   9.349
89609SOL    HW270667  10.520  13.053   9.235
89610SOL     OW70668  10.007   2.047  12.243
89610SOL    HW170669   9.971   2.060  12.155
89610SOL    HW270670   9.962   1.970  12.277
89611SOL     OW70671   3.946  13.665  13.767
89611SOL    HW170672   3.919  13.625  13.850
89611SOL    HW270673   4.001  13.739  13.793
89612SOL     OW70674  11.453   2.574  10.789
89612SOL    HW170675  11.548   2.562  10.787
89612SOL    HW270676  11.435   2.607  10.877
89613SOL     OW70677  12.303   4.637  10.118
89613SOL    HW170678  12.272   4.598  10.199
89613SOL    HW270679  12.372   4.579  10.087
89614SOL     OW70680   7.678   2.281   3.988
89614SOL    HW170681   7.719   2.263   3.903
89614SOL    HW270682   7.727   2.226   4.050
89615SOL     OW70683  10.290  12.150  13.709
89615SOL    HW170684  10.230  12.224  13.704
89615SOL    HW270685  10.377  12.188  13.692
89616SOL     OW70686   1.193   0.747   3.706
89616SOL    HW170687   1.122   0.805   3.732
89616SOL    HW270688   1.241   0.796   3.639
89617SOL     OW70689   8.700   3.539   5.206
89617SOL    HW170690   8.723   3.462   5.258
89617SOL    HW270691   8.729   3.613   5.260
89618SOL     OW70692   2.121   4.446   5.340
89618SOL    HW170693   2.078   4.530   5.326
89618SOL    HW270694   2.102   4.397   5.260
89619SOL     OW70695  12.199  14.489   5.519
89619SOL    HW170696  12.151  14.570   5.502
89619SOL    HW270697  12.215  14.490   5.614
89620SOL     OW70698  10.498   1.450   6.435
89620SOL    HW170699  10.526   1.365   6.401
89620SOL    HW270700  10.573   1.482   6.485
89621SOL     OW70701   9.084   9.323   9.439
89621SOL    HW170702   9.122   9.237   9.455
89621SOL    HW270703   9.160   9.381   9.428
89622SOL     OW70704  10.623   8.420   0.135
89622SOL    HW170705  10.650   8.469   0.058
89622SOL    HW270706  10.670   8.462   0.207
89623SOL     OW70707   8.511  13.552   7.986
89623SOL    HW170708   8.579  13.485   7.983
89623SOL    HW270709   8.438  13.516   7.936
89624SOL     OW70710   9.264   6.370   3.151
89624SOL    HW170711   9.306   6.426   3.217
89624SOL    HW270712   9.321   6.294   3.145
89625SOL     OW70713   4.727   2.944  13.992
89625SOL    HW170714   4.784   2.878  13.952
89625SOL    HW270715   4.748   3.025  13.945
89626SOL     OW70716   7.961  12.277  10.406
89626SOL    HW170717   7.898  12.206  10.416
89626SOL    HW270718   7.932  12.345  10.467
89627SOL     OW70719   1.036   4.406   3.027
89627SOL    HW170720   0.994   4.433   2.946
89627SOL    HW270721   1.100   4.340   3.001
89628SOL     OW70722  10.418   6.718   5.200
89628SOL    HW170723  10.438   6.794   5.146
89628SOL    HW270724  10.345   6.675   5.155
89629SOL     OW70725   9.556   5.538   2.265
89629SOL    HW170726   9.622   5.479   2.229
89629SOL    HW270727   9.599   5.623   2.268
89630SOL     OW70728  12.378   5.864  13.753
89630SOL    HW170729  12.333   5.835  13.673
89630SOL    HW270730  12.348   5.954  13.766
89631SOL     OW70731   8.255   7.773  13.340
89631SOL    HW170732   8.316   7.833  13.297
89631SOL    HW270733   8.177   7.774  13.283
89632SOL     OW70734   8.234   1.142   7.667
89632SOL    HW170735   8.175   1.090   7.722
89632SOL    HW270736   8.229   1.230   7.703
89633SOL     OW70737   3.555   0.774   6.338
89633SOL    HW170738   3.622   0.728   6.388
89633SOL    HW270739   3.569   0.747   6.248
89634SOL     OW70740   2.565   2.598   3.352
89634SOL    HW170741   2.638   2.649   3.315
89634SOL    HW270742   2.521   2.659   3.412
89635SOL     OW70743  12.121  14.701   7.830
89635SOL    HW170744  12.176  14.666   7.900
89635SOL    HW270745  12.058  14.757   7.874
89636SOL     OW70746   8.401  12.738  13.666
89636SOL    HW170747   8.436  12.768  13.582
89636SOL    HW270748   8.317  12.697  13.645
89637SOL     OW70749   9.946  14.065  10.325
89637SOL    HW170750   9.980  13.976  10.318
89637SOL    HW270751  10.023  14.121  10.332
89638SOL     OW70752   7.753   4.672   6.974
89638SOL    HW170753   7.794   4.587   6.990
89638SOL    HW270754   7.740   4.675   6.879
89639SOL     OW70755   5.363   6.596   3.155
89639SOL    HW170756   5.358   6.620   3.062
89639SOL    HW270757   5.456   6.604   3.176
89640SOL     OW70758   2.559  11.684  10.749
89640SOL    HW170759   2.465  11.670  10.746
89640SOL    HW270760   2.593  11.609  10.798
89641SOL     OW70761   4.228   7.092   4.887
89641SOL    HW170762   4.191   7.026   4.946
89641SOL    HW270763   4.248   7.166   4.944
89642SOL     OW70764  11.431  12.241   8.524
89642SOL    HW170765  11.388  12.156   8.534
89642SOL    HW270766  11.460  12.243   8.433
89643SOL     OW70767  10.146  13.823  12.759
89643SOL    HW170768  10.129  13.813  12.853
89643SOL    HW270769  10.063  13.854  12.723
89644SOL     OW70770   9.629   2.505  10.703
89644SOL    HW170771   9.584   2.578  10.661
89644SOL    HW270772   9.561   2.439  10.718
89645SOL     OW70773  14.076   1.900  12.946
89645SOL    HW170774  14.102   1.950  13.023
89645SOL    HW270775  13.983   1.881  12.959
89646SOL     OW70776  11.889   6.290   1.529
89646SOL    HW170777  11.891   6.342   1.449
89646SOL    HW270778  11.954   6.221   1.514
89647SOL     OW70779   8.700   2.589  11.064
89647SOL    HW170780   8.732   2.677  11.043
89647SOL    HW270781   8.690   2.547  10.978
89648SOL     OW70782   5.476   0.202   4.694
89648SOL    HW170783   5.502   0.152   4.772
89648SOL    HW270784   5.408   0.149   4.653
89649SOL     OW70785  13.860   9.468  12.383
89649SOL    HW170786  13.895   9.411  12.452
89649SOL    HW270787  13.923   9.460  12.311
89650SOL     OW70788   8.888   6.432  10.613
89650SOL    HW170789   8.923   6.351  10.575
89650SOL    HW270790   8.846   6.477  10.541
89651SOL     OW70791   2.094   6.778   5.606
89651SOL    HW170792   2.119   6.694   5.646
89651SOL    HW270793   2.175   6.812   5.569
89652SOL     OW70794   5.358   4.114  13.224
89652SOL    HW170795   5.433   4.166  13.197
89652SOL    HW270796   5.307   4.101  13.145
89653SOL     OW70797  11.432   8.525  12.606
89653SOL    HW170798  11.353   8.486  12.646
89653SOL    HW270799  11.478   8.565  12.679
89654SOL     OW70800   6.474   3.525   0.920
89654SOL    HW170801   6.565   3.522   0.952
89654SOL    HW270802   6.438   3.439   0.944
89655SOL     OW70803  11.695   8.978  12.819
89655SOL    HW170804  11.676   8.974  12.725
89655SOL    HW270805  11.738   8.895  12.838
89656SOL     OW70806   7.492   0.772  14.530
89656SOL    HW170807   7.545   0.851  14.527
89656SOL    HW270808   7.517   0.724  14.451
89657SOL     OW70809  12.049   4.993   1.886
89657SOL    HW170810  12.011   5.079   1.898
89657SOL    HW270811  12.142   5.005   1.906
89658SOL     OW70812   4.340  14.594   1.028
89658SOL    HW170813   4.284  14.517   1.041
89658SOL    HW270814   4.343  14.606   0.933
89659SOL     OW70815   7.226  10.845  14.373
89659SOL    HW170816   7.164  10.906  14.333
89659SOL    HW270817   7.265  10.895  14.445
89660SOL     OW70818  14.868   7.274   0.112
89660SOL    HW170819  14.782   7.307   0.089
89660SOL    HW270820   0.038   7.353   0.131
89661SOL     OW70821  11.685  13.978  12.713
89661SOL    HW170822  11.777  13.989  12.738
89661SOL    HW270823  11.646  13.930  12.785
89662SOL     OW70824  14.233   2.822   1.370
89662SOL    HW170825  14.185   2.772   1.437
89662SOL    HW270826  14.296   2.875   1.419
89663SOL     OW70827   0.714  13.967   2.062
89663SOL    HW170828   0.698  13.873   2.049
89663SOL    HW270829   0.709  14.005   1.974
89664SOL     OW70830   9.914   8.455   8.294
89664SOL    HW170831   9.999   8.426   8.328
89664SOL    HW270832   9.898   8.539   8.338
89665SOL     OW70833  13.139   8.584  13.162
89665SOL    HW170834  13.127   8.546  13.075
89665SOL    HW270835  13.210   8.534  13.201
89666SOL     OW70836   3.852  13.813   1.894
89666SOL    HW170837   3.766  13.852   1.875
89666SOL    HW270838   3.894  13.807   1.808
89667SOL     OW70839  10.806   3.522  14.406
89667SOL    HW170840  10.780   3.614  14.413
89667SOL    HW270841  10.792   3.500  14.314
89668SOL     OW70842   3.406  13.040  13.391
89668SOL    HW170843   3.383  13.067  13.480
89668SOL    HW270844   3.477  13.099  13.366
89669SOL     OW70845  13.569  14.625   9.509
89669SOL    HW170846  13.606  14.548   9.552
89669SOL    HW270847  13.644  14.667   9.467
89670SOL     OW70848  10.336   2.219   0.995
89670SOL    HW170849  10.368   2.130   1.007
89670SOL    HW270850  10.415   2.273   0.993
89671SOL     OW70851  14.063  11.538   9.767
89671SOL    HW170852  13.996  11.512   9.830
89671SOL    HW270853  14.053  11.633   9.759
89672SOL     OW70854   6.458   8.171  13.418
89672SOL    HW170855   6.462   8.097  13.479
89672SOL    HW270856   6.456   8.130  13.332
89673SOL     OW70857   3.060   0.290   6.334
89673SOL    HW170858   3.124   0.235   6.289
89673SOL    HW270859   3.101   0.310   6.418
89674SOL     OW70860  13.288   2.163   3.850
89674SOL    HW170861  13.322   2.205   3.930
89674SOL    HW270862  13.337   2.081   3.844
89675SOL     OW70863   3.564   8.285   5.471
89675SOL    HW170864   3.628   8.352   5.497
89675SOL    HW270865   3.479   8.327   5.482
89676SOL     OW70866  13.486   3.759   2.704
89676SOL    HW170867  13.484   3.725   2.793
89676SOL    HW270868  13.573   3.799   2.696
89677SOL     OW70869   0.741   2.379   6.659
89677SOL    HW170870   0.705   2.336   6.737
89677SOL    HW270871   0.665   2.391   6.602
89678SOL     OW70872  10.062   5.152   4.274
89678SOL    HW170873  10.140   5.111   4.237
89678SOL    HW270874  10.006   5.079   4.299
89679SOL     OW70875   6.850  10.935   3.996
89679SOL    HW170876   6.850  11.016   4.048
89679SOL    HW270877   6.856  10.865   4.061
89680SOL     OW70878   2.281  14.364   3.283
89680SOL    HW170879   2.250  14.288   3.333
89680SOL    HW270880   2.351  14.400   3.337
89681SOL     OW70881   0.239   9.805  10.166
89681SOL    HW170882   0.270   9.753  10.092
89681SOL    HW270883   0.157   9.843  10.136
89682SOL     OW70884  13.190  13.754  14.725
89682SOL    HW170885  13.277  13.788  14.749
89682SOL    HW270886  13.194  13.661  14.748
89683SOL     OW70887   0.092  12.702   3.722
89683SOL    HW170888   0.043  12.637   3.771
89683SOL    HW270889   0.183  12.685   3.743
89684SOL     OW70890   1.852   5.226  10.565
89684SOL    HW170891   1.880   5.137  10.587
89684SOL    HW270892   1.929   5.280  10.579
89685SOL     OW70893   9.351   7.365   9.527
89685SOL    HW170894   9.279   7.356   9.589
89685SOL    HW270895   9.360   7.459   9.513
89686SOL     OW70896   0.004   2.157   1.350
89686SOL    HW170897  14.838   2.217   1.292
89686SOL    HW270898   0.093   2.193   1.351
89687SOL     OW70899  11.042  13.060  11.187
89687SOL    HW170900  11.137  13.068  11.187
89687SOL    HW270901  11.024  12.979  11.138
89688SOL     OW70902   0.677  14.323   1.924
89688SOL    HW170903   0.613  14.307   1.994
89688SOL    HW270904   0.758  14.285   1.957
89689SOL     OW70905  10.590   1.084   5.610
89689SOL    HW170906  10.497   1.101   5.593
89689SOL    HW270907  10.630   1.172   5.615
89690SOL     OW70908   4.189   5.414  12.424
89690SOL    HW170909   4.169   5.502  12.392
89690SOL    HW270910   4.183   5.358  12.347
89691SOL     OW70911  11.316   4.922   6.682
89691SOL    HW170912  11.322   4.923   6.778
89691SOL    HW270913  11.245   4.861   6.664
89692SOL     OW70914   1.099   0.671  13.624
89692SOL    HW170915   1.153   0.731  13.677
89692SOL    HW270916   1.118   0.584  13.660
89693SOL     OW70917   1.424   6.674  13.033
89693SOL    HW170918   1.376   6.663  13.114
89693SOL    HW270919   1.489   6.741  13.052
89694SOL     OW70920  11.663   3.143   5.391
89694SOL    HW170921  11.573   3.152   5.360
89694SOL    HW270922  11.678   3.220   5.446
89695SOL     OW70923  11.282   4.869   0.876
89695SOL    HW170924  11.312   4.892   0.964
89695SOL    HW270925  11.187   4.858   0.886
89696SOL     OW70926  12.682   4.407  14.331
89696SOL    HW170927  12.660   4.438  14.243
89696SOL    HW270928  12.603   4.362  14.362
89697SOL     OW70929   3.691   7.195   3.936
89697SOL    HW170930   3.753   7.199   3.863
89697SOL    HW270931   3.679   7.287   3.962
89698SOL     OW70932   8.093   6.268   5.214
89698SOL    HW170933   8.003   6.295   5.194
89698SOL    HW270934   8.114   6.313   5.296
89699SOL     OW70935   1.653  10.193   5.406
89699SOL    HW170936   1.586  10.254   5.437
89699SOL    HW270937   1.712  10.246   5.353
89700SOL     OW70938   4.385  10.560   7.448
89700SOL    HW170939   4.439  10.484   7.467
89700SOL    HW270940   4.296  10.534   7.473
89701SOL     OW70941   3.964   2.475   4.479
89701SOL    HW170942   3.879   2.439   4.502
89701SOL    HW270943   3.953   2.507   4.389
89702SOL     OW70944   7.897  11.679   4.054
89702SOL    HW170945   7.876  11.587   4.069
89702SOL    HW270946   7.972  11.677   3.994
89703SOL     OW70947  12.473  12.759   7.304
89703SOL    HW170948  12.380  12.761   7.326
89703SOL    HW270949  12.512  12.699   7.368
89704SOL     OW70950   0.871   9.178   9.070
89704SOL    HW170951   0.958   9.216   9.053
89704SOL    HW270952   0.810   9.251   9.058
89705SOL     OW70953   5.263  11.076   3.453
89705SOL    HW170954   5.206  11.006   3.485
89705SOL    HW270955   5.348  11.033   3.439
89706SOL     OW70956   9.924   6.231  10.476
89706SOL    HW170957   9.847   6.196  10.431
89706SOL    HW270958   9.995   6.170  10.454
89707SOL     OW70959   3.525   0.862  14.488
89707SOL    HW170960   3.546   0.777  14.526
89707SOL    HW270961   3.431   0.871  14.498
89708SOL     OW70962   0.774   3.007  13.257
89708SOL    HW170963   0.790   2.914  13.242
89708SOL    HW270964   0.856   3.039  13.295
89709SOL     OW70965  13.494   7.009   5.381
89709SOL    HW170966  13.525   6.924   5.349
89709SOL    HW270967  13.467   6.993   5.471
89710SOL     OW70968  10.924   5.803   3.383
89710SOL    HW170969  10.958   5.884   3.422
89710SOL    HW270970  10.831   5.801   3.408
89711SOL     OW70971  10.478   0.860   4.247
89711SOL    HW170972  10.539   0.934   4.253
89711SOL    HW270973  10.496   0.807   4.324
89712SOL     OW70974   6.735   2.031   6.903
89712SOL    HW170975   6.778   2.117   6.905
89712SOL    HW270976   6.717   2.016   6.810
89713SOL     OW70977   7.689   4.377   7.882
89713SOL    HW170978   7.702   4.293   7.924
89713SOL    HW270979   7.649   4.356   7.798
89714SOL     OW70980  12.707   4.338  14.003
89714SOL    HW170981  12.681   4.259  14.052
89714SOL    HW270982  12.800   4.346  14.019
89715SOL     OW70983   1.373  14.487  14.008
89715SOL    HW170984   1.411  14.399  14.002
89715SOL    HW270985   1.283  14.471  14.038
89716SOL     OW70986   5.226   9.360   7.692
89716SOL    HW170987   5.226   9.310   7.774
89716SOL    HW270988   5.192   9.446   7.717
89717SOL     OW70989   5.376  11.397  12.727
89717SOL    HW170990   5.294  11.444  12.740
89717SOL    HW270991   5.349  11.306  12.711
89718SOL     OW70992   7.183   1.795   9.070
89718SOL    HW170993   7.265   1.815   9.115
89718SOL    HW270994   7.152   1.715   9.113
89719SOL     OW70995  12.963   6.865   4.146
89719SOL    HW170996  12.949   6.770   4.149
89719SOL    HW270997  12.954   6.888   4.054
89720SOL     OW70998   6.786   5.735   3.834
89720SOL    HW170999   6.756   5.767   3.920
89720SOL    HW271000   6.853   5.670   3.855
89721SOL     OW71001   5.255   0.375   1.226
89721SOL    HW171002   5.301   0.456   1.248
89721SOL    HW271003   5.163   0.400   1.219
89722SOL     OW71004   2.186   2.147   2.041
89722SOL    HW171005   2.120   2.217   2.039
89722SOL    HW271006   2.196   2.121   1.950
89723SOL     OW71007   0.235  12.911   9.783
89723SOL    HW171008   0.170  12.884   9.848
89723SOL    HW271009   0.305  12.846   9.790
89724SOL     OW71010   6.045  13.938   6.359
89724SOL    HW171011   6.056  13.875   6.288
89724SOL    HW271012   5.969  13.990   6.333
89725SOL     OW71013  14.260   6.647  13.846
89725SOL    HW171014  14.203   6.718  13.816
89725SOL    HW271015  14.344   6.664  13.804
89726SOL     OW71016   3.470   1.958  10.756
89726SOL    HW171017   3.464   1.923  10.845
89726SOL    HW271018   3.456   1.883  10.699
89727SOL     OW71019  14.219   1.171   8.944
89727SOL    HW171020  14.126   1.177   8.968
89727SOL    HW271021  14.265   1.162   9.027
89728SOL     OW71022  10.702   1.055   5.220
89728SOL    HW171023  10.705   0.983   5.283
89728SOL    HW271024  10.610   1.062   5.196
89729SOL     OW71025   9.004  12.185   8.001
89729SOL    HW171026   9.025  12.269   7.960
89729SOL    HW271027   8.927  12.153   7.953
89730SOL     OW71028  12.090   7.177   7.453
89730SOL    HW171029  12.088   7.272   7.464
89730SOL    HW271030  12.168   7.161   7.399
89731SOL     OW71031   9.136   2.898  10.238
89731SOL    HW171032   9.131   2.899  10.333
89731SOL    HW271033   9.076   2.828  10.212
89732SOL     OW71034  14.109  11.116   5.838
89732SOL    HW171035  14.044  11.184   5.822
89732SOL    HW271036  14.073  11.038   5.796
89733SOL     OW71037   0.111   7.629   8.746
89733SOL    HW171038   0.038   7.639   8.684
89733SOL    HW271039   0.160   7.554   8.712
89734SOL     OW71040  12.277  13.059  13.464
89734SOL    HW171041  12.277  13.155  13.462
89734SOL    HW271042  12.368  13.035  13.478
89735SOL     OW71043  10.429  14.003   0.787
89735SOL    HW171044  10.367  13.936   0.816
89735SOL    HW271045  10.514  13.960   0.787
89736SOL     OW71046   9.832  10.824   6.749
89736SOL    HW171047   9.788  10.788   6.826
89736SOL    HW271048   9.763  10.869   6.700
89737SOL     OW71049   4.737   1.931   1.874
89737SOL    HW171050   4.704   2.014   1.840
89737SOL    HW271051   4.660   1.888   1.911
89738SOL     OW71052  11.354   4.499  13.056
89738SOL    HW171053  11.388   4.588  13.065
89738SOL    HW271054  11.302   4.501  12.976
89739SOL     OW71055   7.395  12.683   6.842
89739SOL    HW171056   7.440  12.752   6.891
89739SOL    HW271057   7.454  12.663   6.769
89740SOL     OW71058  12.810   1.721   6.632
89740SOL    HW171059  12.805   1.714   6.727
89740SOL    HW271060  12.768   1.804   6.612
89741SOL     OW71061   5.860   8.291   7.668
89741SOL    HW171062   5.826   8.223   7.610
89741SOL    HW271063   5.890   8.360   7.609
89742SOL     OW71064   6.114  13.759   1.258
89742SOL    HW171065   6.087  13.759   1.350
89742SOL    HW271066   6.144  13.849   1.242
89743SOL     OW71067   9.988   5.405   4.336
89743SOL    HW171068  10.079   5.433   4.341
89743SOL    HW271069   9.993   5.313   4.312
89744SOL     OW71070  14.119  10.338   8.239
89744SOL    HW171071  14.186  10.359   8.305
89744SOL    HW271072  14.170  10.319   8.160
89745SOL     OW71073   2.594  12.221   9.016
89745SOL    HW171074   2.564  12.226   9.107
89745SOL    HW271075   2.514  12.219   8.964
89746SOL     OW71076  11.234  14.217  12.865
89746SOL    HW171077  11.169  14.238  12.932
89746SOL    HW271078  11.318  14.216  12.913
89747SOL     OW71079   5.581   9.872   1.137
89747SOL    HW171080   5.621   9.834   1.216
89747SOL    HW271081   5.506   9.920   1.170
89748SOL     OW71082   8.040   4.355   5.552
89748SOL    HW171083   7.983   4.280   5.539
89748SOL    HW271084   8.013   4.419   5.486
89749SOL     OW71085   2.463   2.023  12.175
89749SOL    HW171086   2.485   2.086  12.244
89749SOL    HW271087   2.425   1.949  12.222
89750SOL     OW71088   3.153   3.972  12.981
89750SOL    HW171089   3.167   3.890  12.933
89750SOL    HW271090   3.061   3.993  12.967
89751SOL     OW71091  14.673  13.169  13.408
89751SOL    HW171092  14.616  13.140  13.336
89751SOL    HW271093  14.759  13.131  13.387
89752SOL     OW71094  10.812   1.874   1.617
89752SOL    HW171095  10.765   1.884   1.701
89752SOL    HW271096  10.904   1.872   1.641
89753SOL     OW71097  10.887   0.510  11.333
89753SOL    HW171098  10.939   0.576  11.286
89753SOL    HW271099  10.830   0.562  11.391
89754SOL     OW71100   7.651   8.474   6.462
89754SOL    HW171101   7.599   8.419   6.520
89754SOL    HW271102   7.727   8.419   6.439
89755SOL     OW71103   2.490   9.551  11.471
89755SOL    HW171104   2.501   9.517  11.382
89755SOL    HW271105   2.578   9.548  11.509
89756SOL     OW71106   6.472   7.036  10.536
89756SOL    HW171107   6.433   6.963  10.488
89756SOL    HW271108   6.428   7.114  10.502
89757SOL     OW71109  10.748  10.432   5.140
89757SOL    HW171110  10.745  10.512   5.193
89757SOL    HW271111  10.836  10.397   5.155
89758SOL     OW71112  10.821  10.058   0.514
89758SOL    HW171113  10.900  10.065   0.461
89758SOL    HW271114  10.787   9.971   0.495
89759SOL     OW71115  10.666   1.537   6.983
89759SOL    HW171116  10.572   1.519   6.980
89759SOL    HW271117  10.706   1.452   7.005
89760SOL     OW71118   1.608  10.687   0.634
89760SOL    HW171119   1.585  10.641   0.553
89760SOL    HW271120   1.692  10.650   0.659
89761SOL     OW71121  11.138   6.105   3.580
89761SOL    HW171122  11.047   6.075   3.582
89761SOL    HW271123  11.165   6.096   3.488
89762SOL     OW71124   2.318   6.665   3.434
89762SOL    HW171125   2.357   6.750   3.411
89762SOL    HW271126   2.261   6.684   3.508
89763SOL     OW71127   1.281  13.677   1.504
89763SOL    HW171128   1.278  13.767   1.537
89763SOL    HW271129   1.361  13.641   1.542
89764SOL     OW71130   4.847   4.730   2.570
89764SOL    HW171131   4.804   4.754   2.488
89764SOL    HW271132   4.776   4.701   2.627
89765SOL     OW71133  11.245   2.841   7.212
89765SOL    HW171134  11.204   2.757   7.195
89765SOL    HW271135  11.172   2.900   7.233
89766SOL     OW71136   1.570   7.454  12.684
89766SOL    HW171137   1.484   7.482  12.717
89766SOL    HW271138   1.550   7.392  12.615
89767SOL     OW71139   7.904   7.016   3.407
89767SOL    HW171140   7.943   7.103   3.396
89767SOL    HW271141   7.917   6.994   3.499
89768SOL     OW71142  11.375   1.697   5.171
89768SOL    HW171143  11.357   1.736   5.257
89768SOL    HW271144  11.322   1.617   5.171
89769SOL     OW71145   4.517  12.250   5.975
89769SOL    HW171146   4.526  12.157   5.953
89769SOL    HW271147   4.451  12.251   6.045
89770SOL     OW71148   1.893   8.606  11.624
89770SOL    HW171149   1.839   8.582  11.699
89770SOL    HW271150   1.849   8.682  11.586
89771SOL     OW71151  13.332   5.818  12.806
89771SOL    HW171152  13.392   5.759  12.760
89771SOL    HW271153  13.288   5.764  12.870
89772SOL     OW71154  11.811   3.079   8.057
89772SOL    HW171155  11.801   3.107   8.148
89772SOL    HW271156  11.905   3.084   8.041
89773SOL     OW71157   2.581   3.436   8.931
89773SOL    HW171158   2.592   3.512   8.988
89773SOL    HW271159   2.659   3.437   8.874
89774SOL     OW71160  14.834   7.950   6.057
89774SOL    HW171161   0.029   7.910   6.097
89774SOL    HW271162  14.762   7.928   6.116
89775SOL     OW71163   3.884  14.611   9.123
89775SOL    HW171164   3.955  14.582   9.065
89775SOL    HW271165   3.869  14.537   9.182
89776SOL     OW71166   2.581   0.966  11.804
89776SOL    HW171167   2.628   1.049  11.810
89776SOL    HW271168   2.611   0.915  11.879
89777SOL     OW71169  14.491  13.822   5.876
89777SOL    HW171170  14.556  13.765   5.917
89777SOL    HW271171  14.475  13.891   5.940
89778SOL     OW71172   6.685   4.863  14.325
89778SOL    HW171173   6.634   4.919  14.266
89778SOL    HW271174   6.739   4.809  14.266
89779SOL     OW71175  12.781   8.955   7.346
89779SOL    HW171176  12.700   8.904   7.352
89779SOL    HW271177  12.835   8.906   7.285
89780SOL     OW71178   9.031   4.204   7.736
89780SOL    HW171179   9.030   4.279   7.795
89780SOL    HW271180   9.063   4.239   7.653
89781SOL     OW71181   5.327   7.029  11.600
89781SOL    HW171182   5.312   7.112  11.646
89781SOL    HW271183   5.422   7.021  11.595
89782SOL     OW71184   7.393   2.031   4.242
89782SOL    HW171185   7.392   2.122   4.273
89782SOL    HW271186   7.310   2.022   4.195
89783SOL     OW71187   1.288   2.637  11.233
89783SOL    HW171188   1.317   2.628  11.324
89783SOL    HW271189   1.193   2.628  11.237
89784SOL     OW71190   0.568  11.999  14.480
89784SOL    HW171191   0.567  12.094  14.488
89784SOL    HW271192   0.501  11.969  14.542
89785SOL     OW71193  10.755   5.770   2.595
89785SOL    HW171194  10.672   5.816   2.599
89785SOL    HW271195  10.820   5.833   2.626
89786SOL     OW71196   4.461   2.028  13.709
89786SOL    HW171197   4.547   1.988  13.710
89786SOL    HW271198   4.466   2.099  13.774
89787SOL     OW71199  12.150   0.042   0.296
89787SOL    HW171200  12.127   0.096   0.372
89787SOL    HW271201  12.144   0.102   0.222
89788SOL     OW71202   6.568   6.477   9.507
89788SOL    HW171203   6.585   6.570   9.495
89788SOL    HW271204   6.645   6.434   9.469
89789SOL     OW71205   0.133  12.800  14.220
89789SOL    HW171206   0.055  12.831  14.174
89789SOL    HW271207   0.206  12.832  14.167
89790SOL     OW71208   8.098   4.858   1.594
89790SOL    HW171209   8.065   4.863   1.684
89790SOL    HW271210   8.125   4.948   1.573
89791SOL     OW71211  13.735  14.510  12.838
89791SOL    HW171212  13.659  14.462  12.871
89791SOL    HW271213  13.775  14.451  12.775
89792SOL     OW71214   8.591  12.702  12.862
89792SOL    HW171215   8.541  12.754  12.798
89792SOL    HW271216   8.537  12.624  12.876
89793SOL     OW71217   6.449  13.645  14.443
89793SOL    HW171218   6.523  13.595  14.479
89793SOL    HW271219   6.397  13.669  14.519
89794SOL     OW71220   8.115  14.455   6.608
89794SOL    HW171221   8.134  14.512   6.533
89794SOL    HW271222   8.045  14.500   6.655
89795SOL     OW71223  13.700   9.596   7.015
89795SOL    HW171224  13.674   9.683   7.045
89795SOL    HW271225  13.673   9.593   6.923
89796SOL     OW71226   2.752   7.230   1.051
89796SOL    HW171227   2.725   7.211   1.141
89796SOL    HW271228   2.751   7.145   1.007
89797SOL     OW71229   5.812   2.144  11.435
89797SOL    HW171230   5.898   2.170  11.467
89797SOL    HW271231   5.755   2.150  11.512
89798SOL     OW71232   5.013   0.376   9.832
89798SOL    HW171233   5.035   0.406   9.744
89798SOL    HW271234   5.022   0.453   9.887
89799SOL     OW71235  13.052   7.041  14.325
89799SOL    HW171236  13.031   6.965  14.270
89799SOL    HW271237  12.968   7.084  14.339
89800SOL     OW71238   9.941  14.084  14.531
89800SOL    HW171239   9.991  14.162  14.556
89800SOL    HW271240   9.895  14.109  14.451
89801SOL     OW71241  12.269   2.947   5.844
89801SOL    HW171242  12.291   2.933   5.936
89801SOL    HW271243  12.185   2.903   5.832
89802SOL     OW71244   8.868   7.964   6.389
89802SOL    HW171245   8.923   7.923   6.322
89802SOL    HW271246   8.852   8.053   6.356
89803SOL     OW71247  12.808   3.305   3.055
89803SOL    HW171248  12.843   3.393   3.072
89803SOL    HW271249  12.863   3.247   3.107
89804SOL     OW71250   9.849   3.907   8.746
89804SOL    HW171251   9.865   3.998   8.720
89804SOL    HW271252   9.929   3.881   8.792
89805SOL     OW71253   0.393   5.779   0.420
89805SOL    HW171254   0.390   5.830   0.338
89805SOL    HW271255   0.342   5.831   0.482
89806SOL     OW71256   9.767   0.996  11.232
89806SOL    HW171257   9.819   0.954  11.163
89806SOL    HW271258   9.691   1.032  11.186
89807SOL     OW71259   3.382   2.812  11.507
89807SOL    HW171260   3.363   2.719  11.522
89807SOL    HW271261   3.324   2.859  11.567
89808SOL     OW71262  13.602  12.318   6.826
89808SOL    HW171263  13.554  12.300   6.906
89808SOL    HW271264  13.680  12.263   6.831
89809SOL     OW71265  14.517   1.842   0.694
89809SOL    HW171266  14.574   1.867   0.766
89809SOL    HW271267  14.452   1.912   0.689
89810SOL     OW71268  13.241   1.055  10.412
89810SOL    HW171269  13.159   1.006  10.417
89810SOL    HW271270  13.309   0.988  10.407
89811SOL     OW71271  12.009   6.916   5.538
89811SOL    HW171272  11.951   6.871   5.476
89811SOL    HW271273  12.015   6.857   5.613
89812SOL     OW71274   9.324   7.935  12.751
89812SOL    HW171275   9.248   7.882  12.726
89812SOL    HW271276   9.335   7.996  12.679
89813SOL     OW71277   2.985  12.371   5.588
89813SOL    HW171278   2.992  12.401   5.678
89813SOL    HW271279   2.910  12.312   5.588
89814SOL     OW71280   6.283  14.486  14.772
89814SOL    HW171281   6.371  14.502  14.738
89814SOL    HW271282   6.293  14.489  14.867
89815SOL     OW71283   7.682   7.290   7.975
89815SOL    HW171284   7.667   7.375   8.016
89815SOL    HW271285   7.776   7.288   7.955
89816SOL     OW71286  12.299  10.515   4.242
89816SOL    HW171287  12.346  10.598   4.250
89816SOL    HW271288  12.214  10.531   4.283
89817SOL     OW71289  12.969   8.955   8.047
89817SOL    HW171290  13.048   8.972   7.996
89817SOL    HW271291  12.898   8.994   7.996
89818SOL     OW71292   9.842  13.583  11.108
89818SOL    HW171293   9.771  13.524  11.083
89818SOL    HW271294   9.825  13.663  11.059
89819SOL     OW71295   2.835   3.209   9.623
89819SOL    HW171296   2.899   3.238   9.559
89819SOL    HW271297   2.763   3.173   9.570
89820SOL     OW71298  14.687   5.227   8.168
89820SOL    HW171299  14.602   5.189   8.146
89820SOL    HW271300  14.751   5.169   8.126
89821SOL     OW71301   2.018  12.176  13.096
89821SOL    HW171302   2.109  12.189  13.067
89821SOL    HW271303   1.997  12.255  13.145
89822SOL     OW71304  10.534   9.333   2.080
89822SOL    HW171305  10.445   9.334   2.115
89822SOL    HW271306  10.544   9.246   2.043
89823SOL     OW71307  10.536   2.923   0.024
89823SOL    HW171308  10.509   2.834  14.880
89823SOL    HW271309  10.557   2.966  14.823
89824SOL     OW71310  14.021  11.404   2.095
89824SOL    HW171311  13.995  11.374   2.181
89824SOL    HW271312  14.115  11.383   2.089
89825SOL     OW71313   8.213   4.816   4.989
89825SOL    HW171314   8.211   4.905   5.024
89825SOL    HW271315   8.121   4.793   4.976
89826SOL     OW71316   8.992   5.072   4.413
89826SOL    HW171317   9.086   5.078   4.430
89826SOL    HW271318   8.959   5.013   4.482
89827SOL     OW71319  14.174   2.082   1.911
89827SOL    HW171320  14.132   2.098   1.996
89827SOL    HW271321  14.105   2.046   1.856
89828SOL     OW71322   5.514   1.281  12.340
89828SOL    HW171323   5.483   1.200  12.298
89828SOL    HW271324   5.568   1.250  12.413
89829SOL     OW71325   3.639   2.777   6.985
89829SOL    HW171326   3.728   2.765   7.017
89829SOL    HW271327   3.594   2.825   7.055
89830SOL     OW71328  10.902   3.047  11.617
89830SOL    HW171329  10.884   3.009  11.703
89830SOL    HW271330  10.825   3.099  11.597
89831SOL     OW71331  11.103  14.420   9.889
89831SOL    HW171332  11.121  14.513   9.872
89831SOL    HW271333  11.189  14.382   9.907
89832SOL     OW71334   8.826   3.307   9.587
89832SOL    HW171335   8.813   3.274   9.676
89832SOL    HW271336   8.898   3.369   9.595
89833SOL     OW71337   1.289   8.853   2.447
89833SOL    HW171338   1.345   8.877   2.520
89833SOL    HW271339   1.322   8.768   2.417
89834SOL     OW71340   6.731   8.203   4.339
89834SOL    HW171341   6.660   8.159   4.386
89834SOL    HW271342   6.712   8.296   4.347
89835SOL     OW71343  14.429   1.800  12.645
89835SOL    HW171344  14.357   1.847  12.687
89835SOL    HW271345  14.388   1.720  12.611
89836SOL     OW71346  14.345   1.047   8.096
89836SOL    HW171347  14.249   1.042   8.093
89836SOL    HW271348  14.370   1.074   8.008
89837SOL     OW71349  10.641   2.595  10.263
89837SOL    HW171350  10.568   2.553  10.308
89837SOL    HW271351  10.712   2.531  10.268
89838SOL     OW71352   1.233   1.809  14.363
89838SOL    HW171353   1.273   1.723  14.356
89838SOL    HW271354   1.251   1.852  14.280
89839SOL     OW71355  14.851   7.116   7.020
89839SOL    HW171356  14.852   7.055   7.094
89839SOL    HW271357   0.025   7.074   6.954
89840SOL     OW71358   9.780   3.903   3.931
89840SOL    HW171359   9.738   3.988   3.941
89840SOL    HW271360   9.868   3.915   3.967
89841SOL     OW71361  12.616   5.839   7.461
89841SOL    HW171362  12.624   5.744   7.473
89841SOL    HW271363  12.531   5.850   7.419
89842SOL     OW71364   3.005   9.279   2.337
89842SOL    HW171365   3.097   9.288   2.362
89842SOL    HW271366   2.970   9.216   2.399
89843SOL     OW71367   6.679   4.139   6.151
89843SOL    HW171368   6.665   4.217   6.205
89843SOL    HW271369   6.593   4.097   6.147
89844SOL     OW71370   1.302  10.289  10.539
89844SOL    HW171371   1.246  10.365  10.556
89844SOL    HW271372   1.254  10.215  10.577
89845SOL     OW71373   0.838  10.571   4.785
89845SOL    HW171374   0.889  10.527   4.854
89845SOL    HW271375   0.772  10.622   4.833
89846SOL     OW71376   2.461  10.143   0.631
89846SOL    HW171377   2.489  10.060   0.669
89846SOL    HW271378   2.399  10.179   0.694
89847SOL     OW71379   3.654   7.892   3.366
89847SOL    HW171380   3.667   7.978   3.325
89847SOL    HW271381   3.653   7.831   3.292
89848SOL     OW71382   5.535  10.094   8.830
89848SOL    HW171383   5.617  10.103   8.781
89848SOL    HW271384   5.468  10.130   8.772
89849SOL     OW71385   6.556   6.303   4.797
89849SOL    HW171386   6.577   6.358   4.722
89849SOL    HW271387   6.461   6.290   4.792
89850SOL     OW71388   9.065  14.756   3.912
89850SOL    HW171389   9.050  14.684   3.974
89850SOL    HW271390   9.027  14.725   3.830
89851SOL     OW71391  10.585   0.899  10.446
89851SOL    HW171392  10.574   0.968  10.380
89851SOL    HW271393  10.595   0.819  10.395
89852SOL     OW71394   1.195  13.672   7.272
89852SOL    HW171395   1.133  13.673   7.344
89852SOL    HW271396   1.156  13.613   7.207
89853SOL     OW71397   5.205  14.181   3.183
89853SOL    HW171398   5.284  14.196   3.131
89853SOL    HW271399   5.228  14.214   3.270
89854SOL     OW71400  12.716   7.513  12.964
89854SOL    HW171401  12.655   7.453  12.923
89854SOL    HW271402  12.716   7.590  12.907
89855SOL     OW71403   3.991   3.223   0.244
89855SOL    HW171404   3.969   3.312   0.217
89855SOL    HW271405   4.084   3.214   0.224
89856SOL     OW71406   2.288   0.872   5.600
89856SOL    HW171407   2.286   0.922   5.519
89856SOL    HW271408   2.374   0.891   5.638
89857SOL     OW71409  14.501   8.403   6.711
89857SOL    HW171410  14.442   8.475   6.733
89857SOL    HW271411  14.583   8.445   6.687
89858SOL     OW71412   1.427   5.666   0.335
89858SOL    HW171413   1.370   5.644   0.262
89858SOL    HW271414   1.515   5.666   0.298
89859SOL     OW71415  13.555   5.095   4.924
89859SOL    HW171416  13.636   5.049   4.947
89859SOL    HW271417  13.572   5.132   4.838
89860SOL     OW71418   6.400  14.676   7.245
89860SOL    HW171419   6.472  14.732   7.275
89860SOL    HW271420   6.321  14.721   7.273
89861SOL     OW71421   4.031  13.716   6.609
89861SOL    HW171422   3.974  13.639   6.602
89861SOL    HW271423   4.118  13.680   6.628
89862SOL     OW71424  12.952   2.405   6.912
89862SOL    HW171425  13.033   2.450   6.934
89862SOL    HW271426  12.965   2.374   6.823
89863SOL     OW71427   3.603   7.949  10.634
89863SOL    HW171428   3.698   7.949  10.622
89863SOL    HW271429   3.578   8.041  10.623
89864SOL     OW71430   4.327   4.137   8.350
89864SOL    HW171431   4.241   4.120   8.388
89864SOL    HW271432   4.370   4.051   8.349
89865SOL     OW71433   6.953   7.300  11.103
89865SOL    HW171434   6.968   7.225  11.046
89865SOL    HW271435   7.040   7.336  11.119
89866SOL     OW71436  14.690   5.337   2.085
89866SOL    HW171437  14.608   5.339   2.134
89866SOL    HW271438  14.700   5.245   2.060
89867SOL     OW71439  10.689   3.038   9.908
89867SOL    HW171440  10.642   3.098   9.851
89867SOL    HW271441  10.622   2.977   9.939
89868SOL     OW71442   2.699  12.283   4.100
89868SOL    HW171443   2.773  12.343   4.109
89868SOL    HW271444   2.621  12.337   4.113
89869SOL     OW71445   1.043  12.766  14.735
89869SOL    HW171446   0.980  12.726  14.794
89869SOL    HW271447   0.998  12.844  14.701
89870SOL     OW71448   2.425   0.856   0.657
89870SOL    HW171449   2.497   0.911   0.686
89870SOL    HW271450   2.456   0.817   0.576
89871SOL     OW71451  11.832  12.356   4.477
89871SOL    HW171452  11.741  12.356   4.508
89871SOL    HW271453  11.828  12.308   4.394
89872SOL     OW71454   8.944  10.511   8.153
89872SOL    HW171455   8.921  10.536   8.064
89872SOL    HW271456   8.917  10.586   8.207
89873SOL     OW71457   3.546  13.710  13.091
89873SOL    HW171458   3.631  13.668  13.080
89873SOL    HW271459   3.565  13.803  13.101
89874SOL     OW71460   0.520   9.197   6.290
89874SOL    HW171461   0.447   9.240   6.333
89874SOL    HW271462   0.504   9.103   6.302
89875SOL     OW71463   5.232  13.174  10.899
89875SOL    HW171464   5.259  13.117  10.970
89875SOL    HW271465   5.200  13.253  10.942
89876SOL     OW71466  12.938  14.207  12.088
89876SOL    HW171467  12.901  14.120  12.097
89876SOL    HW271468  12.865  14.266  12.105
89877SOL     OW71469   5.477  12.093   2.568
89877SOL    HW171470   5.485  12.001   2.544
89877SOL    HW271471   5.487  12.141   2.485
89878SOL     OW71472   5.688  13.634   9.147
89878SOL    HW171473   5.635  13.573   9.096
89878SOL    HW271474   5.633  13.712   9.155
89879SOL     OW71475   4.864   1.485   2.281
89879SOL    HW171476   4.947   1.500   2.235
89879SOL    HW271477   4.879   1.520   2.369
89880SOL     OW71478   7.700   8.272   9.384
89880SOL    HW171479   7.614   8.311   9.371
89880SOL    HW271480   7.682   8.180   9.404
89881SOL     OW71481   4.240   4.546   1.848
89881SOL    HW171482   4.270   4.610   1.784
89881SOL    HW271483   4.272   4.462   1.814
89882SOL     OW71484   5.452   8.612   9.436
89882SOL    HW171485   5.494   8.547   9.492
89882SOL    HW271486   5.405   8.561   9.371
89883SOL     OW71487  13.356   6.499   2.934
89883SOL    HW171488  13.271   6.457   2.923
89883SOL    HW271489  13.412   6.456   2.870
89884SOL     OW71490  13.487   4.842  14.793
89884SOL    HW171491  13.456   4.756  14.763
89884SOL    HW271492  13.531   4.824  14.876
89885SOL     OW71493   6.770   1.885   3.241
89885SOL    HW171494   6.830   1.924   3.177
89885SOL    HW271495   6.729   1.812   3.194
89886SOL     OW71496  11.790   9.694  12.657
89886SOL    HW171497  11.766   9.760  12.722
89886SOL    HW271498  11.779   9.610  12.703
89887SOL     OW71499   2.565   6.955   8.159
89887SOL    HW171500   2.549   7.024   8.223
89887SOL    HW271501   2.505   6.884   8.186
89888SOL     OW71502   6.351  10.334  10.829
89888SOL    HW171503   6.412  10.388  10.881
89888SOL    HW271504   6.304  10.282  10.894
89889SOL     OW71505  10.154   8.894   8.520
89889SOL    HW171506  10.059   8.889   8.523
89889SOL    HW271507  10.174   8.985   8.542
89890SOL     OW71508   6.851  10.529  13.401
89890SOL    HW171509   6.898  10.529  13.317
89890SOL    HW271510   6.807  10.614  13.404
89891SOL     OW71511  10.695  12.062   5.214
89891SOL    HW171512  10.754  12.111   5.156
89891SOL    HW271513  10.612  12.108   5.209
89892SOL     OW71514   9.883  13.920   1.238
89892SOL    HW171515   9.801  13.874   1.256
89892SOL    HW271516   9.856  14.008   1.212
89893SOL     OW71517   1.149   8.341   5.879
89893SOL    HW171518   1.144   8.267   5.819
89893SOL    HW271519   1.214   8.315   5.944
89894SOL     OW71520   0.538   7.045   6.609
89894SOL    HW171521   0.570   6.976   6.666
89894SOL    HW271522   0.593   7.121   6.629
89895SOL     OW71523   8.841  11.651   2.102
89895SOL    HW171524   8.923  11.603   2.089
89895SOL    HW271525   8.831  11.703   2.022
89896SOL     OW71526   2.368   9.167   9.802
89896SOL    HW171527   2.427   9.243   9.806
89896SOL    HW271528   2.353   9.144   9.893
89897SOL     OW71529   7.479  14.018   4.441
89897SOL    HW171530   7.385  14.019   4.462
89897SOL    HW271531   7.510  13.934   4.475
89898SOL     OW71532  13.745  12.597  14.155
89898SOL    HW171533  13.671  12.539  14.141
89898SOL    HW271534  13.707  12.685  14.157
89899SOL     OW71535   7.680   3.849  12.804
89899SOL    HW171536   7.753   3.856  12.865
89899SOL    HW271537   7.702   3.774  12.749
89900SOL     OW71538  11.803  10.261  12.149
89900SOL    HW171539  11.884  10.235  12.193
89900SOL    HW271540  11.734  10.239  12.211
89901SOL     OW71541  13.233   1.287   6.479
89901SOL    HW171542  13.262   1.215   6.423
89901SOL    HW271543  13.266   1.366   6.435
89902SOL     OW71544  11.623   0.220  13.341
89902SOL    HW171545  11.588   0.302  13.307
89902SOL    HW271546  11.549   0.177  13.382
89903SOL     OW71547   0.983   9.644   6.639
89903SOL    HW171548   0.952   9.692   6.715
89903SOL    HW271549   0.947   9.691   6.564
89904SOL     OW71550   7.310   1.658   4.897
89904SOL    HW171551   7.273   1.722   4.958
89904SOL    HW271552   7.261   1.671   4.816
89905SOL     OW71553   6.132   3.280  10.925
89905SOL    HW171554   6.145   3.282  11.020
89905SOL    HW271555   6.063   3.345  10.909
89906SOL     OW71556   8.290   3.758   7.029
89906SOL    HW171557   8.198   3.751   7.054
89906SOL    HW271558   8.305   3.852   7.022
89907SOL     OW71559   9.398  12.014   5.036
89907SOL    HW171560   9.416  11.950   4.967
89907SOL    HW271561   9.466  11.999   5.102
89908SOL     OW71562   6.698   8.513  12.954
89908SOL    HW171563   6.792   8.532  12.957
89908SOL    HW271564   6.680   8.465  13.035
89909SOL     OW71565   6.851  13.474   3.259
89909SOL    HW171566   6.814  13.552   3.216
89909SOL    HW271567   6.897  13.509   3.335
89910SOL     OW71568  12.997  10.986   0.078
89910SOL    HW171569  12.972  11.077   0.094
89910SOL    HW271570  13.070  10.991   0.017
89911SOL     OW71571   1.456   0.796  10.232
89911SOL    HW171572   1.376   0.744  10.247
89911SOL    HW271573   1.526   0.742  10.270
89912SOL     OW71574  13.779   3.065   1.621
89912SOL    HW171575  13.707   3.021   1.576
89912SOL    HW271576  13.787   3.149   1.575
89913SOL     OW71577  12.084   3.604  11.791
89913SOL    HW171578  12.105   3.609  11.884
89913SOL    HW271579  12.149   3.659  11.748
89914SOL     OW71580   6.830  13.002  13.735
89914SOL    HW171581   6.735  12.996  13.741
89914SOL    HW271582   6.855  12.927  13.681
89915SOL     OW71583  11.143   8.585   1.202
89915SOL    HW171584  11.192   8.626   1.274
89915SOL    HW271585  11.103   8.508   1.242
89916SOL     OW71586  10.179   4.783   1.734
89916SOL    HW171587  10.105   4.780   1.794
89916SOL    HW271588  10.193   4.693   1.706
89917SOL     OW71589  14.383   6.885  11.760
89917SOL    HW171590  14.467   6.932  11.769
89917SOL    HW271591  14.406   6.803  11.717
89918SOL     OW71592   8.920   2.898   3.319
89918SOL    HW171593   8.842   2.919   3.371
89918SOL    HW271594   8.914   2.804   3.304
89919SOL     OW71595  14.837  14.246   4.291
89919SOL    HW171596  14.816  14.196   4.212
89919SOL    HW271597  14.833  14.182   4.362
89920SOL     OW71598   2.417   6.835  12.864
89920SOL    HW171599   2.363   6.907  12.832
89920SOL    HW271600   2.456   6.798  12.785
89921SOL     OW71601  10.358  12.021   9.598
89921SOL    HW171602  10.333  12.058   9.514
89921SOL    HW271603  10.282  11.967   9.624
89922SOL     OW71604   5.588  14.737   4.390
89922SOL    HW171605   5.590  14.776   4.477
89922SOL    HW271606   5.672  14.692   4.382
89923SOL     OW71607  11.908   0.039   7.337
89923SOL    HW171608  11.937  14.856   7.402
89923SOL    HW271609  11.914  14.875   7.253
89924SOL     OW71610  13.906  10.186   8.388
89924SOL    HW171611  13.962  10.249   8.344
89924SOL    HW271612  13.928  10.195   8.481
89925SOL     OW71613   7.746   2.036   7.113
89925SOL    HW171614   7.657   2.002   7.129
89925SOL    HW271615   7.795   1.960   7.083
89926SOL     OW71616  10.760   5.680  10.663
89926SOL    HW171617  10.796   5.723  10.741
89926SOL    HW271618  10.820   5.608  10.645
89927SOL     OW71619   2.370   9.827   1.440
89927SOL    HW171620   2.303   9.777   1.393
89927SOL    HW271621   2.450   9.776   1.429
89928SOL     OW71622   7.326   1.555   3.585
89928SOL    HW171623   7.380   1.491   3.539
89928SOL    HW271624   7.273   1.503   3.645
89929SOL     OW71625  13.817   1.792  11.466
89929SOL    HW171626  13.845   1.782  11.375
89929SOL    HW271627  13.740   1.847  11.462
89930SOL     OW71628   7.730   4.048   6.664
89930SOL    HW171629   7.692   3.988   6.729
89930SOL    HW271630   7.803   4.089   6.709
89931SOL     OW71631  10.094   2.469   4.198
89931SOL    HW171632  10.008   2.431   4.179
89931SOL    HW271633  10.118   2.517   4.119
89932SOL     OW71634   5.959   7.474   8.682
89932SOL    HW171635   5.877   7.491   8.729
89932SOL    HW271636   5.980   7.383   8.701
89933SOL     OW71637  10.474   9.398   4.632
89933SOL    HW171638  10.509   9.326   4.580
89933SOL    HW271639  10.498   9.375   4.722
89934SOL     OW71640   6.518   0.447  12.476
89934SOL    HW171641   6.493   0.392  12.549
89934SOL    HW271642   6.482   0.533  12.498
89935SOL     OW71643   5.454   0.679   1.885
89935SOL    HW171644   5.485   0.624   1.813
89935SOL    HW271645   5.492   0.641   1.964
89936SOL     OW71646   3.096   7.880   3.846
89936SOL    HW171647   3.115   7.881   3.752
89936SOL    HW271648   3.003   7.857   3.851
89937SOL     OW71649   6.369   4.561   4.190
89937SOL    HW171650   6.436   4.512   4.237
89937SOL    HW271651   6.340   4.501   4.121
89938SOL     OW71652   2.948   3.863   1.818
89938SOL    HW171653   3.008   3.795   1.849
89938SOL    HW271654   2.965   3.938   1.876
89939SOL     OW71655   5.570   8.612   2.497
89939SOL    HW171656   5.564   8.669   2.573
89939SOL    HW271657   5.639   8.650   2.442
89940SOL     OW71658  13.978  12.486  10.448
89940SOL    HW171659  13.936  12.572  10.450
89940SOL    HW271660  13.921  12.433  10.392
89941SOL     OW71661  11.424   1.740   1.651
89941SOL    HW171662  11.496   1.678   1.654
89941SOL    HW271663  11.360   1.700   1.591
89942SOL     OW71664   8.301  11.164   6.998
89942SOL    HW171665   8.358  11.091   7.020
89942SOL    HW271666   8.314  11.228   7.068
89943SOL     OW71667   9.524   7.236  12.987
89943SOL    HW171668   9.557   7.322  12.961
89943SOL    HW271669   9.472   7.207  12.912
89944SOL     OW71670  13.073  13.400  10.446
89944SOL    HW171671  13.081  13.434  10.535
89944SOL    HW271672  13.026  13.318  10.456
89945SOL     OW71673   5.782  14.404   0.258
89945SOL    HW171674   5.772  14.311   0.278
89945SOL    HW271675   5.871  14.412   0.223
89946SOL     OW71676  10.517   1.519   7.391
89946SOL    HW171677  10.516   1.505   7.486
89946SOL    HW271678  10.522   1.430   7.355
89947SOL     OW71679  14.808   3.331   7.361
89947SOL    HW171680  14.858   3.259   7.399
89947SOL    HW271681  14.827   3.325   7.267
89948SOL     OW71682   1.848  11.623   9.040
89948SOL    HW171683   1.862  11.703   9.091
89948SOL    HW271684   1.846  11.653   8.949
89949SOL     OW71685   7.807   2.612   5.301
89949SOL    HW171686   7.873   2.635   5.366
89949SOL    HW271687   7.804   2.517   5.302
89950SOL     OW71688   3.124   2.130  14.771
89950SOL    HW171689   3.205   2.172  14.743
89950SOL    HW271690   3.148   2.039  14.784
89951SOL     OW71691   7.888   0.539   8.324
89951SOL    HW171692   7.874   0.445   8.317
89951SOL    HW271693   7.807   0.572   8.363
89952SOL     OW71694   1.774  11.374   6.249
89952SOL    HW171695   1.752  11.306   6.313
89952SOL    HW271696   1.690  11.396   6.208
89953SOL     OW71697   8.050  14.531   6.104
89953SOL    HW171698   8.112  14.589   6.060
89953SOL    HW271699   8.065  14.445   6.065
89954SOL     OW71700   4.094   1.141  10.728
89954SOL    HW171701   4.158   1.142  10.657
89954SOL    HW271702   4.131   1.079  10.792
89955SOL     OW71703   0.990   5.670  14.047
89955SOL    HW171704   1.037   5.753  14.043
89955SOL    HW271705   1.053   5.607  14.082
89956SOL     OW71706   4.274  12.746  10.828
89956SOL    HW171707   4.283  12.690  10.905
89956SOL    HW271708   4.235  12.827  10.861
89957SOL     OW71709   7.735   0.409   3.415
89957SOL    HW171710   7.815   0.372   3.451
89957SOL    HW271711   7.665   0.350   3.443
89958SOL     OW71712   3.476   8.240  14.017
89958SOL    HW171713   3.528   8.258  13.938
89958SOL    HW271714   3.388   8.269  13.995
89959SOL     OW71715   4.188  11.473   2.500
89959SOL    HW171716   4.142  11.474   2.415
89959SOL    HW271717   4.184  11.381   2.527
89960SOL     OW71718   4.969  11.934   3.953
89960SOL    HW171719   5.041  11.886   3.913
89960SOL    HW271720   4.891  11.883   3.931
89961SOL     OW71721   6.512   5.678  11.409
89961SOL    HW171722   6.533   5.699  11.500
89961SOL    HW271723   6.416   5.668  11.408
89962SOL     OW71724  12.733  11.904  13.613
89962SOL    HW171725  12.737  11.999  13.603
89962SOL    HW271726  12.823  11.877  13.626
89963SOL     OW71727   2.530   5.292  12.403
89963SOL    HW171728   2.452   5.304  12.349
89963SOL    HW271729   2.497   5.260  12.487
89964SOL     OW71730  10.191  13.840  13.954
89964SOL    HW171731  10.128  13.854  13.883
89964SOL    HW271732  10.258  13.783  13.916
89965SOL     OW71733   1.079  11.699  13.856
89965SOL    HW171734   1.074  11.678  13.762
89965SOL    HW271735   0.991  11.729  13.878
89966SOL     OW71736   3.335   9.306   2.896
89966SOL    HW171737   3.286   9.235   2.856
89966SOL    HW271738   3.281   9.332   2.972
89967SOL     OW71739   2.228  12.689   2.087
89967SOL    HW171740   2.252  12.735   2.007
89967SOL    HW271741   2.200  12.602   2.057
89968SOL     OW71742   9.994  13.232   7.696
89968SOL    HW171743   9.965  13.208   7.784
89968SOL    HW271744   9.920  13.280   7.659
89969SOL     OW71745   0.523  13.390   2.258
89969SOL    HW171746   0.557  13.309   2.297
89969SOL    HW271747   0.478  13.434   2.331
89970SOL     OW71748   8.809  14.341   4.704
89970SOL    HW171749   8.832  14.428   4.736
89970SOL    HW271750   8.860  14.330   4.625
89971SOL     OW71751   7.931   3.618   1.640
89971SOL    HW171752   7.872   3.635   1.566
89971SOL    HW271753   7.928   3.523   1.652
89972SOL     OW71754   0.677   2.668  14.473
89972SOL    HW171755   0.695   2.576  14.455
89972SOL    HW271756   0.588   2.682  14.441
89973SOL     OW71757  13.638  13.738   7.125
89973SOL    HW171758  13.589  13.805   7.079
89973SOL    HW271759  13.571  13.685   7.168
89974SOL     OW71760  10.835  13.175   1.100
89974SOL    HW171761  10.906  13.193   1.162
89974SOL    HW271762  10.759  13.219   1.137
89975SOL     OW71763   8.978  14.636   3.234
89975SOL    HW171764   8.888  14.648   3.265
89975SOL    HW271765   8.997  14.716   3.185
89976SOL     OW71766   7.282   4.668  13.371
89976SOL    HW171767   7.202   4.644  13.416
89976SOL    HW271768   7.254   4.730  13.304
89977SOL     OW71769  14.182   5.560  10.446
89977SOL    HW171770  14.254   5.577  10.507
89977SOL    HW271771  14.180   5.638  10.390
89978SOL     OW71772   5.599   0.826   1.421
89978SOL    HW171773   5.570   0.877   1.346
89978SOL    HW271774   5.574   0.879   1.497
89979SOL     OW71775   2.412   0.077  10.639
89979SOL    HW171776   2.460   0.092  10.720
89979SOL    HW271777   2.395  14.865  10.637
89980SOL     OW71778  13.691  12.661  12.755
89980SOL    HW171779  13.667  12.749  12.725
89980SOL    HW271780  13.721  12.616  12.676
89981SOL     OW71781  10.991   1.492   9.644
89981SOL    HW171782  10.915   1.503   9.701
89981SOL    HW271783  10.993   1.571   9.590
89982SOL     OW71784   6.525  10.911   6.976
89982SOL    HW171785   6.491  10.987   6.930
89982SOL    HW271786   6.609  10.893   6.933
89983SOL     OW71787   3.315   0.753   2.415
89983SOL    HW171788   3.248   0.786   2.475
89983SOL    HW271789   3.337   0.827   2.360
89984SOL     OW71790   2.447   7.164   5.238
89984SOL    HW171791   2.532   7.151   5.197
89984SOL    HW271792   2.416   7.248   5.204
89985SOL     OW71793   5.741   6.135  11.246
89985SOL    HW171794   5.777   6.051  11.218
89985SOL    HW271795   5.650   6.134  11.216
89986SOL     OW71796   8.905   3.995   8.528
89986SOL    HW171797   8.812   4.009   8.546
89986SOL    HW271798   8.906   3.944   8.448
89987SOL     OW71799  13.859  12.105  14.273
89987SOL    HW171800  13.838  12.166  14.343
89987SOL    HW271801  13.878  12.022  14.318
89988SOL     OW71802   2.439   5.153   4.575
89988SOL    HW171803   2.390   5.110   4.505
89988SOL    HW271804   2.492   5.219   4.530
89989SOL     OW71805   7.312   7.130   1.291
89989SOL    HW171806   7.221   7.143   1.315
89989SOL    HW271807   7.357   7.206   1.325
89990SOL     OW71808   6.806   9.555   5.828
89990SOL    HW171809   6.865   9.563   5.903
89990SOL    HW271810   6.774   9.464   5.832
89991SOL     OW71811   9.577   1.853  10.596
89991SOL    HW171812   9.520   1.783  10.562
89991SOL    HW271813   9.618   1.890  10.519
89992SOL     OW71814   1.218  10.687  10.871
89992SOL    HW171815   1.143  10.628  10.871
89992SOL    HW271816   1.268  10.662  10.794
89993SOL     OW71817   6.532  12.826  11.167
89993SOL    HW171818   6.495  12.743  11.198
89993SOL    HW271819   6.496  12.836  11.079
89994SOL     OW71820   8.948   7.338  11.316
89994SOL    HW171821   8.891   7.413  11.332
89994SOL    HW271822   9.031   7.361  11.360
89995SOL     OW71823   7.739   1.283   5.917
89995SOL    HW171824   7.808   1.232   5.874
89995SOL    HW271825   7.786   1.344   5.974
89996SOL     OW71826   3.923   0.028   3.023
89996SOL    HW171827   3.979   0.096   2.985
89996SOL    HW271828   3.883   0.070   3.099
89997SOL     OW71829  10.897   2.212   5.978
89997SOL    HW171830  10.948   2.293   5.982
89997SOL    HW271831  10.943   2.158   5.915
89998SOL     OW71832  10.807   6.687   3.628
89998SOL    HW171833  10.795   6.631   3.704
89998SOL    HW271834  10.753   6.764   3.647
89999SOL     OW71835   5.385   0.366  12.347
89999SOL    HW171836   5.384   0.458  12.373
89999SOL    HW271837   5.297   0.350  12.311
90000SOL     OW71838   2.139  11.885   1.108
90000SOL    HW171839   2.162  11.835   1.029
90000SOL    HW271840   2.044  11.891   1.105
90001SOL     OW71841   7.908   4.585   9.577
90001SOL    HW171842   7.877   4.522   9.512
90001SOL    HW271843   7.939   4.659   9.525
90002SOL     OW71844   2.653  12.309   2.087
90002SOL    HW171845   2.589  12.375   2.113
90002SOL    HW271846   2.665  12.255   2.164
90003SOL     OW71847   6.455   4.974   6.739
90003SOL    HW171848   6.498   5.040   6.794
90003SOL    HW271849   6.375   5.018   6.708
90004SOL     OW71850  13.518   6.849   8.011
90004SOL    HW171851  13.438   6.886   8.049
90004SOL    HW271852  13.589   6.882   8.066
90005SOL     OW71853   4.782   0.267   7.838
90005SOL    HW171854   4.745   0.355   7.842
90005SOL    HW271855   4.706   0.209   7.845
90006SOL     OW71856   3.122   7.137   3.761
90006SOL    HW171857   3.163   7.095   3.837
90006SOL    HW271858   3.164   7.096   3.685
90007SOL     OW71859   4.163   9.472  12.672
90007SOL    HW171860   4.164   9.534  12.744
90007SOL    HW271861   4.166   9.527  12.593
90008SOL     OW71862   2.575   0.706   3.848
90008SOL    HW171863   2.492   0.746   3.823
90008SOL    HW271864   2.621   0.693   3.765
90009SOL     OW71865  14.584  14.222   3.363
90009SOL    HW171866  14.496  14.205   3.330
90009SOL    HW271867  14.628  14.137   3.358
90010SOL     OW71868   2.236  14.463   8.910
90010SOL    HW171869   2.314  14.516   8.897
90010SOL    HW271870   2.163  14.523   8.893
90011SOL     OW71871   7.796  12.940   7.139
90011SOL    HW171872   7.777  12.854   7.101
90011SOL    HW271873   7.798  12.925   7.233
90012SOL     OW71874  11.283   2.574   0.044
90012SOL    HW171875  11.252   2.654   0.001
90012SOL    HW271876  11.205   2.520   0.054
90013SOL     OW71877  14.878  13.258   6.607
90013SOL    HW171878  14.784  13.243   6.599
90013SOL    HW271879   0.022  13.205   6.682
90014SOL     OW71880   6.395   0.267   2.932
90014SOL    HW171881   6.422   0.354   2.902
90014SOL    HW271882   6.300   0.266   2.919
90015SOL     OW71883  10.944   0.968   7.752
90015SOL    HW171884  10.962   0.876   7.771
90015SOL    HW271885  10.969   1.014   7.832
90016SOL     OW71886   5.957   7.333   0.855
90016SOL    HW171887   5.981   7.341   0.763
90016SOL    HW271888   5.934   7.241   0.865
90017SOL     OW71889   1.210   9.603  13.654
90017SOL    HW171890   1.286   9.547  13.634
90017SOL    HW271891   1.134   9.546  13.642
90018SOL     OW71892  11.898   0.260  14.352
90018SOL    HW171893  11.960   0.201  14.396
90018SOL    HW271894  11.882   0.218  14.267
90019SOL     OW71895  11.954  10.518  10.819
90019SOL    HW171896  11.918  10.470  10.893
90019SOL    HW271897  12.017  10.579  10.858
90020SOL     OW71898   8.018  14.650  12.429
90020SOL    HW171899   8.050  14.647  12.519
90020SOL    HW271900   8.085  14.605  12.377
90021SOL     OW71901   6.493   3.172   3.800
90021SOL    HW171902   6.451   3.183   3.715
90021SOL    HW271903   6.570   3.229   3.796
90022SOL     OW71904   7.035  12.295   4.217
90022SOL    HW171905   7.061  12.217   4.267
90022SOL    HW271906   7.106  12.309   4.155
90023SOL     OW71907   0.357   4.799   2.117
90023SOL    HW171908   0.303   4.873   2.089
90023SOL    HW271909   0.365   4.745   2.038
90024SOL     OW71910   7.363  13.053   2.805
90024SOL    HW171911   7.391  13.051   2.896
90024SOL    HW271912   7.310  12.975   2.794
90025SOL     OW71913  10.377   5.311  13.523
90025SOL    HW171914  10.351   5.247  13.589
90025SOL    HW271915  10.363   5.396  13.565
90026SOL     OW71916   1.451   4.078   1.903
90026SOL    HW171917   1.528   4.133   1.894
90026SOL    HW271918   1.477   3.994   1.865
90027SOL     OW71919  13.255  12.494   4.242
90027SOL    HW171920  13.200  12.472   4.167
90027SOL    HW271921  13.266  12.589   4.237
90028SOL     OW71922  12.899  13.965   1.305
90028SOL    HW171923  12.942  13.913   1.374
90028SOL    HW271924  12.942  13.937   1.224
90029SOL     OW71925   3.054   4.989   2.002
90029SOL    HW171926   3.016   4.969   1.916
90029SOL    HW271927   2.993   4.949   2.064
90030SOL     OW71928   4.296   0.555   5.851
90030SOL    HW171929   4.328   0.645   5.844
90030SOL    HW271930   4.203   0.561   5.832
90031SOL     OW71931  10.039   5.837  10.992
90031SOL    HW171932  10.031   5.749  11.028
90031SOL    HW271933   9.984   5.891  11.049
90032SOL     OW71934   5.889   0.645  11.915
90032SOL    HW171935   5.806   0.692  11.925
90032SOL    HW271936   5.950   0.711  11.881
90033SOL     OW71937   4.302  12.947   2.839
90033SOL    HW171938   4.374  12.946   2.901
90033SOL    HW271939   4.224  12.963   2.892
90034SOL     OW71940   4.129   1.447  11.367
90034SOL    HW171941   4.048   1.399  11.386
90034SOL    HW271942   4.135   1.512  11.436
90035SOL     OW71943  13.012   9.430   3.627
90035SOL    HW171944  13.009   9.495   3.697
90035SOL    HW271945  13.012   9.481   3.546
90036SOL     OW71946   2.800   4.194  14.850
90036SOL    HW171947   2.802   4.240  14.766
90036SOL    HW271948   2.845   4.252   0.029
90037SOL     OW71949   1.304   6.236  12.684
90037SOL    HW171950   1.329   6.298  12.616
90037SOL    HW271951   1.272   6.159  12.636
90038SOL     OW71952   2.310   4.514   1.565
90038SOL    HW171953   2.400   4.482   1.572
90038SOL    HW271954   2.258   4.450   1.612
90039SOL     OW71955  14.418  12.104   1.609
90039SOL    HW171956  14.330  12.073   1.590
90039SOL    HW271957  14.459  12.113   1.522
90040SOL     OW71958   2.904   8.955  14.210
90040SOL    HW171959   2.986   8.948  14.259
90040SOL    HW271960   2.930   8.998  14.128
90041SOL     OW71961   5.976   1.456   8.966
90041SOL    HW171962   5.969   1.395   9.040
90041SOL    HW271963   6.005   1.402   8.893
90042SOL     OW71964   2.187   8.456   2.368
90042SOL    HW171965   2.201   8.538   2.319
90042SOL    HW271966   2.136   8.483   2.444
90043SOL     OW71967   1.712   5.775   5.696
90043SOL    HW171968   1.616   5.775   5.692
90043SOL    HW271969   1.739   5.741   5.611
90044SOL     OW71970  11.614   3.761   6.574
90044SOL    HW171971  11.651   3.806   6.651
90044SOL    HW271972  11.649   3.672   6.580
90045SOL     OW71973   9.668   3.088   4.238
90045SOL    HW171974   9.588   3.129   4.271
90045SOL    HW271975   9.735   3.110   4.302
90046SOL     OW71976   8.478   9.501   0.354
90046SOL    HW171977   8.442   9.564   0.292
90046SOL    HW271978   8.442   9.528   0.439
90047SOL     OW71979   8.195   8.896   1.530
90047SOL    HW171980   8.166   8.806   1.544
90047SOL    HW271981   8.190   8.909   1.436
90048SOL     OW71982   7.364   7.416   1.017
90048SOL    HW171983   7.409   7.471   1.081
90048SOL    HW271984   7.433   7.365   0.976
90049SOL     OW71985  13.238   4.654   2.917
90049SOL    HW171986  13.256   4.716   2.987
90049SOL    HW271987  13.243   4.706   2.837
90050SOL     OW71988   4.154   8.181   5.682
90050SOL    HW171989   4.186   8.135   5.605
90050SOL    HW271990   4.084   8.125   5.717
90051SOL     OW71991   9.634  12.562   8.036
90051SOL    HW171992   9.714  12.512   8.050
90051SOL    HW271993   9.565  12.508   8.074
90052SOL     OW71994  12.193  10.395  10.195
90052SOL    HW171995  12.219  10.476  10.239
90052SOL    HW271996  12.202  10.414  10.102
90053SOL     OW71997   3.069   7.695   0.853
90053SOL    HW171998   3.112   7.780   0.859
90053SOL    HW271999   2.982   7.714   0.817
90054SOL     OW72000   4.890   1.389   3.051
90054SOL    HW172001   4.914   1.468   3.002
90054SOL    HW272002   4.937   1.397   3.134
90055SOL     OW72003   3.668   9.824  11.400
90055SOL    HW172004   3.671   9.854  11.491
90055SOL    HW272005   3.709   9.895  11.350
90056SOL     OW72006  12.960   6.466  11.356
90056SOL    HW172007  13.054   6.478  11.350
90056SOL    HW272008  12.947   6.371  11.354
90057SOL     OW72009  13.850   0.538   0.276
90057SOL    HW172010  13.767   0.513   0.317
90057SOL    HW272011  13.826   0.562   0.186
90058SOL     OW72012  11.274   8.661   9.282
90058SOL    HW172013  11.272   8.599   9.355
90058SOL    HW272014  11.195   8.713   9.292
90059SOL     OW72015  11.165   4.556   4.973
90059SOL    HW172016  11.169   4.502   5.052
90059SOL    HW272017  11.118   4.503   4.909
90060SOL     OW72018   1.921   8.159  12.201
90060SOL    HW172019   1.948   8.173  12.292
90060SOL    HW272020   1.995   8.191  12.149
90061SOL     OW72021   8.197   4.071   4.666
90061SOL    HW172022   8.222   4.111   4.583
90061SOL    HW272023   8.260   4.000   4.677
90062SOL     OW72024   7.748   1.730   1.981
90062SOL    HW172025   7.658   1.704   1.999
90062SOL    HW272026   7.759   1.813   2.029
90063SOL     OW72027   0.665   4.961  10.054
90063SOL    HW172028   0.599   5.015  10.098
90063SOL    HW272029   0.614   4.898  10.002
90064SOL     OW72030   6.685   0.580  14.160
90064SOL    HW172031   6.759   0.560  14.102
90064SOL    HW272032   6.622   0.510  14.142
90065SOL     OW72033   8.688   9.191  12.273
90065SOL    HW172034   8.593   9.189  12.258
90065SOL    HW272035   8.718   9.269  12.228
90066SOL     OW72036   7.774   7.302   6.081
90066SOL    HW172037   7.767   7.224   6.136
90066SOL    HW272038   7.867   7.311   6.062
90067SOL     OW72039   1.938   2.407  14.390
90067SOL    HW172040   1.921   2.496  14.360
90067SOL    HW272041   1.980   2.364  14.315
90068SOL     OW72042   4.146   9.713   5.685
90068SOL    HW172043   4.133   9.642   5.622
90068SOL    HW272044   4.071   9.771   5.672
90069SOL     OW72045   4.208  11.669   3.858
90069SOL    HW172046   4.189  11.695   3.948
90069SOL    HW272047   4.174  11.741   3.804
90070SOL     OW72048   0.783   3.515  11.538
90070SOL    HW172049   0.713   3.580  11.529
90070SOL    HW272050   0.804   3.491  11.448
90071SOL     OW72051   8.283   9.473   0.930
90071SOL    HW172052   8.227   9.550   0.941
90071SOL    HW272053   8.230   9.400   0.962
90072SOL     OW72054   9.063  11.734  11.066
90072SOL    HW172055   9.133  11.680  11.103
90072SOL    HW272056   9.071  11.721  10.972
90073SOL     OW72057  14.276   8.948   3.030
90073SOL    HW172058  14.332   9.011   3.075
90073SOL    HW272059  14.229   8.999   2.965
90074SOL     OW72060  11.472  11.191   6.340
90074SOL    HW172061  11.550  11.211   6.288
90074SOL    HW272062  11.492  11.227   6.426
90075SOL     OW72063   4.412   6.358  14.134
90075SOL    HW172064   4.482   6.417  14.161
90075SOL    HW272065   4.351   6.414  14.086
90076SOL     OW72066   5.545   7.791   8.831
90076SOL    HW172067   5.525   7.755   8.917
90076SOL    HW272068   5.466   7.837   8.805
90077SOL     OW72069   9.118   7.505   2.413
90077SOL    HW172070   9.052   7.533   2.476
90077SOL    HW272071   9.201   7.531   2.452
90078SOL     OW72072   4.605   3.873  11.538
90078SOL    HW172073   4.595   3.784  11.505
90078SOL    HW272074   4.600   3.863  11.633
90079SOL     OW72075   3.760  11.407   3.222
90079SOL    HW172076   3.755  11.445   3.134
90079SOL    HW272077   3.854  11.396   3.238
90080SOL     OW72078  12.607  10.445   3.632
90080SOL    HW172079  12.682  10.427   3.689
90080SOL    HW272080  12.531  10.416   3.683
90081SOL     OW72081   2.246   0.364  12.281
90081SOL    HW172082   2.169   0.334  12.232
90081SOL    HW272083   2.270   0.289  12.336
90082SOL     OW72084   3.545  11.887   9.609
90082SOL    HW172085   3.565  11.877   9.702
90082SOL    HW272086   3.500  11.806   9.584
90083SOL     OW72087   9.438  12.813   0.581
90083SOL    HW172088   9.444  12.872   0.506
90083SOL    HW272089   9.467  12.728   0.548
90084SOL     OW72090  12.123  10.466  13.459
90084SOL    HW172091  12.097  10.475  13.551
90084SOL    HW272092  12.064  10.525  13.412
90085SOL     OW72093   4.629   1.292   9.740
90085SOL    HW172094   4.581   1.289   9.658
90085SOL    HW272095   4.649   1.385   9.753
90086SOL     OW72096   4.215   6.679   5.691
90086SOL    HW172097   4.201   6.596   5.737
90086SOL    HW272098   4.135   6.729   5.707
90087SOL     OW72099  14.852   8.139   2.241
90087SOL    HW172100   0.051   8.088   2.255
90087SOL    HW272101  14.782   8.082   2.273
90088SOL     OW72102   4.348   4.162   7.379
90088SOL    HW172103   4.327   4.202   7.295
90088SOL    HW272104   4.443   4.175   7.388
90089SOL     OW72105   9.740   3.819   8.169
90089SOL    HW172106   9.770   3.849   8.084
90089SOL    HW272107   9.646   3.840   8.170
90090SOL     OW72108   6.038   7.108   6.538
90090SOL    HW172109   5.955   7.144   6.506
90090SOL    HW272110   6.020   7.080   6.627
90091SOL     OW72111   6.868   7.872   7.687
90091SOL    HW172112   6.854   7.962   7.716
90091SOL    HW272113   6.938   7.879   7.622
90092SOL     OW72114   6.125   0.318   1.051
90092SOL    HW172115   6.210   0.289   1.017
90092SOL    HW272116   6.080   0.355   0.975
90093SOL     OW72117   4.298   5.157   2.284
90093SOL    HW172118   4.347   5.074   2.283
90093SOL    HW272119   4.294   5.184   2.193
90094SOL     OW72120   5.160   4.519   4.004
90094SOL    HW172121   5.120   4.577   3.939
90094SOL    HW272122   5.248   4.555   4.016
90095SOL     OW72123   8.305   6.112   9.254
90095SOL    HW172124   8.368   6.163   9.203
90095SOL    HW272125   8.323   6.137   9.345
90096SOL     OW72126   9.117  13.741   3.702
90096SOL    HW172127   9.145  13.788   3.623
90096SOL    HW272128   9.128  13.649   3.680
90097SOL     OW72129   5.430   9.952  12.252
90097SOL    HW172130   5.466  10.034  12.285
90097SOL    HW272131   5.341   9.974  12.225
90098SOL     OW72132   7.978  10.714   6.576
90098SOL    HW172133   7.923  10.749   6.506
90098SOL    HW272134   8.031  10.646   6.533
90099SOL     OW72135   6.669  11.190   5.337
90099SOL    HW172136   6.711  11.245   5.404
90099SOL    HW272137   6.737  11.128   5.312
90100SOL     OW72138  10.816  10.089   2.045
90100SOL    HW172139  10.734  10.044   2.065
90100SOL    HW272140  10.878  10.019   2.026
90101SOL     OW72141  10.454  12.831  14.584
90101SOL    HW172142  10.394  12.812  14.512
90101SOL    HW272143  10.500  12.748  14.599
90102SOL     OW72144   4.833   4.657   7.813
90102SOL    HW172145   4.751   4.687   7.852
90102SOL    HW272146   4.873   4.736   7.776
90103SOL     OW72147  11.023   9.940   1.701
90103SOL    HW172148  10.960   9.868   1.706
90103SOL    HW272149  11.000   9.987   1.621
90104SOL     OW72150   0.485   8.433   1.223
90104SOL    HW172151   0.555   8.375   1.193
90104SOL    HW272152   0.503   8.517   1.181
90105SOL     OW72153  13.284   7.530   4.088
90105SOL    HW172154  13.214   7.594   4.075
90105SOL    HW272155  13.363   7.573   4.055
90106SOL     OW72156  13.187   8.518   2.225
90106SOL    HW172157  13.191   8.458   2.300
90106SOL    HW272158  13.207   8.604   2.262
90107SOL     OW72159   6.653   0.996  11.897
90107SOL    HW172160   6.609   1.050  11.831
90107SOL    HW272161   6.635   0.906  11.871
90108SOL     OW72162  12.590  11.429   7.310
90108SOL    HW172163  12.675  11.448   7.350
90108SOL    HW272164  12.555  11.356   7.361
90109SOL     OW72165   2.730   6.410   5.061
90109SOL    HW172166   2.759   6.468   5.131
90109SOL    HW272167   2.759   6.453   4.981
90110SOL     OW72168   1.787  12.717  10.141
90110SOL    HW172169   1.831  12.708  10.056
90110SOL    HW272170   1.694  12.717  10.120
90111SOL     OW72171   0.673   1.433   3.781
90111SOL    HW172172   0.721   1.511   3.809
90111SOL    HW272173   0.592   1.436   3.831
90112SOL     OW72174   9.723  14.304   0.082
90112SOL    HW172175   9.723  14.251   0.002
90112SOL    HW272176   9.814  14.330   0.094
90113SOL     OW72177   9.414  10.369  13.482
90113SOL    HW172178   9.506  10.391  13.494
90113SOL    HW272179   9.406  10.348  13.389
90114SOL     OW72180   6.414   3.077   5.349
90114SOL    HW172181   6.493   3.105   5.394
90114SOL    HW272182   6.409   2.983   5.366
90115SOL     OW72183   4.725   8.932   3.963
90115SOL    HW172184   4.752   8.847   3.999
90115SOL    HW272185   4.636   8.945   3.997
90116SOL     OW72186  12.688   2.697   1.486
90116SOL    HW172187  12.677   2.680   1.580
90116SOL    HW272188  12.678   2.792   1.477
90117SOL     OW72189   5.146   8.479   2.830
90117SOL    HW172190   5.180   8.530   2.903
90117SOL    HW272191   5.091   8.540   2.782
90118SOL     OW72192  13.551  13.046  12.100
90118SOL    HW172193  13.572  12.997  12.021
90118SOL    HW272194  13.458  13.064  12.094
90119SOL     OW72195   9.137  12.843  10.832
90119SOL    HW172196   9.044  12.824  10.816
90119SOL    HW272197   9.142  12.939  10.829
90120SOL     OW72198   9.095   1.316   6.720
90120SOL    HW172199   9.038   1.357   6.655
90120SOL    HW272200   9.181   1.311   6.678
90121SOL     OW72201  13.371   6.553   6.006
90121SOL    HW172202  13.419   6.601   6.074
90121SOL    HW272203  13.286   6.595   6.003
90122SOL     OW72204   9.216   8.349  12.368
90122SOL    HW172205   9.179   8.348  12.456
90122SOL    HW272206   9.173   8.276  12.324
90123SOL     OW72207   9.764   1.685   6.061
90123SOL    HW172208   9.737   1.693   6.152
90123SOL    HW272209   9.831   1.752   6.049
90124SOL     OW72210  10.231  13.920   8.864
90124SOL    HW172211  10.258  14.010   8.885
90124SOL    HW272212  10.312  13.875   8.840
90125SOL     OW72213   5.099  10.888   3.601
90125SOL    HW172214   5.165  10.857   3.663
90125SOL    HW272215   5.046  10.811   3.582
90126SOL     OW72216   0.212   7.153  14.862
90126SOL    HW172217   0.236   7.207  14.788
90126SOL    HW272218   0.125   7.185   0.006
90127SOL     OW72219   7.174   2.984  10.454
90127SOL    HW172220   7.212   2.920  10.394
90127SOL    HW272221   7.129   3.047  10.397
90128SOL     OW72222  12.687  13.875  11.422
90128SOL    HW172223  12.683  13.791  11.377
90128SOL    HW272224  12.777  13.904  11.410
90129SOL     OW72225   0.337  13.493   3.673
90129SOL    HW172226   0.405  13.429   3.651
90129SOL    HW272227   0.331  13.549   3.596
90130SOL     OW72228   7.443   2.715   0.993
90130SOL    HW172229   7.368   2.713   0.934
90130SOL    HW272230   7.405   2.705   1.081
90131SOL     OW72231   4.865   5.379  13.202
90131SOL    HW172232   4.900   5.430  13.275
90131SOL    HW272233   4.775   5.358  13.227
90132SOL     OW72234   2.042   5.704   6.562
90132SOL    HW172235   2.108   5.771   6.548
90132SOL    HW272236   2.073   5.629   6.510
90133SOL     OW72237   6.874   8.577   0.325
90133SOL    HW172238   6.899   8.490   0.296
90133SOL    HW272239   6.935   8.597   0.396
90134SOL     OW72240   9.632   7.354  14.564
90134SOL    HW172241   9.583   7.284  14.519
90134SOL    HW272242   9.693   7.386  14.497
90135SOL     OW72243   4.479  11.247   5.464
90135SOL    HW172244   4.416  11.260   5.534
90135SOL    HW272245   4.446  11.302   5.392
90136SOL     OW72246   8.758   8.485   1.335
90136SOL    HW172247   8.810   8.533   1.400
90136SOL    HW272248   8.684   8.450   1.385
90137SOL     OW72249  10.199  14.449  14.688
90137SOL    HW172250  10.237  14.361  14.690
90137SOL    HW272251  10.274  14.508  14.682
90138SOL     OW72252   3.293  14.639   2.490
90138SOL    HW172253   3.281  14.734   2.497
90138SOL    HW272254   3.271  14.620   2.399
90139SOL     OW72255   3.260  13.174  11.249
90139SOL    HW172256   3.301  13.156  11.165
90139SOL    HW272257   3.170  13.144  11.240
90140SOL     OW72258   6.097   7.667   8.062
90140SOL    HW172259   6.084   7.686   8.155
90140SOL    HW272260   6.023   7.612   8.038
90141SOL     OW72261  14.433   8.222   6.515
90141SOL    HW172262  14.459   8.286   6.581
90141SOL    HW272263  14.441   8.137   6.559
90142SOL     OW72264  12.148   9.169   4.371
90142SOL    HW172265  12.059   9.152   4.402
90142SOL    HW272266  12.202   9.106   4.417
90143SOL     OW72267  10.291  14.806   4.327
90143SOL    HW172268  10.384  14.823   4.335
90143SOL    HW272269  10.276  14.726   4.378
90144SOL     OW72270   0.687   3.965  11.308
90144SOL    HW172271   0.715   4.006  11.226
90144SOL    HW272272   0.754   3.899  11.326
90145SOL     OW72273   3.673   2.972   3.908
90145SOL    HW172274   3.636   2.884   3.916
90145SOL    HW272275   3.609   3.029   3.951
90146SOL     OW72276   2.612   7.164   7.672
90146SOL    HW172277   2.632   7.080   7.632
90146SOL    HW272278   2.627   7.229   7.603
90147SOL     OW72279   2.559  14.432   2.561
90147SOL    HW172280   2.524  14.494   2.496
90147SOL    HW272281   2.651  14.422   2.537
90148SOL     OW72282  10.493  13.356   0.291
90148SOL    HW172283  10.418  13.331   0.237
90148SOL    HW272284  10.568  13.312   0.250
90149SOL     OW72285   5.821  14.444   8.737
90149SOL    HW172286   5.737  14.400   8.747
90149SOL    HW272287   5.886  14.374   8.742
90150SOL     OW72288   3.427   0.160  12.511
90150SOL    HW172289   3.424   0.120  12.424
90150SOL    HW272290   3.337   0.189  12.527
90151SOL     OW72291   1.581   7.380   4.366
90151SOL    HW172292   1.628   7.422   4.438
90151SOL    HW272293   1.494   7.363   4.402
90152SOL     OW72294  14.578  11.378   2.010
90152SOL    HW172295  14.564  11.358   1.918
90152SOL    HW272296  14.630  11.459   2.009
90153SOL     OW72297   8.022   2.227   1.185
90153SOL    HW172298   8.099   2.171   1.179
90153SOL    HW272299   8.022   2.258   1.276
90154SOL     OW72300   4.452  12.848   6.876
90154SOL    HW172301   4.534  12.833   6.829
90154SOL    HW272302   4.384  12.844   6.809
90155SOL     OW72303  12.689   4.517   4.354
90155SOL    HW172304  12.694   4.475   4.268
90155SOL    HW272305  12.750   4.468   4.408
90156SOL     OW72306  11.986   9.889   3.174
90156SOL    HW172307  11.979   9.984   3.170
90156SOL    HW272308  12.005   9.862   3.083
90157SOL     OW72309   4.830  13.436  14.162
90157SOL    HW172310   4.789  13.446  14.077
90157SOL    HW272311   4.764  13.465  14.225
90158SOL     OW72312   0.033  10.215  12.337
90158SOL    HW172313   0.056  10.227  12.429
90158SOL    HW272314  14.848  10.148  12.338
90159SOL     OW72315   9.148   1.175   1.359
90159SOL    HW172316   9.085   1.134   1.419
90159SOL    HW272317   9.104   1.254   1.327
90160SOL     OW72318   4.236  13.812  11.473
90160SOL    HW172319   4.253  13.797  11.380
90160SOL    HW272320   4.323  13.826  11.511
90161SOL     OW72321   1.988   9.420   1.014
90161SOL    HW172322   2.009   9.395   0.924
90161SOL    HW272323   2.066   9.465   1.046
90162SOL     OW72324   2.063   1.107   9.863
90162SOL    HW172325   1.994   1.071   9.919
90162SOL    HW272326   2.144   1.071   9.899
90163SOL     OW72327  14.383   0.568  13.438
90163SOL    HW172328  14.424   0.482  13.435
90163SOL    HW272329  14.407   0.604  13.523
90164SOL     OW72330   8.978   4.273   2.309
90164SOL    HW172331   9.016   4.245   2.226
90164SOL    HW272332   9.017   4.359   2.326
90165SOL     OW72333   3.900   1.337   9.650
90165SOL    HW172334   3.973   1.290   9.609
90165SOL    HW272335   3.919   1.430   9.633
90166SOL     OW72336   5.866  12.116  11.944
90166SOL    HW172337   5.791  12.058  11.931
90166SOL    HW272338   5.929  12.090  11.877
90167SOL     OW72339   3.219   8.000   7.685
90167SOL    HW172340   3.196   8.020   7.776
90167SOL    HW272341   3.239   8.085   7.647
90168SOL     OW72342   8.323  11.048  10.675
90168SOL    HW172343   8.377  11.001  10.612
90168SOL    HW272344   8.235  11.045  10.638
90169SOL     OW72345   8.132   0.786   0.954
90169SOL    HW172346   8.138   0.863   1.011
90169SOL    HW272347   8.097   0.717   1.011
90170SOL     OW72348   9.157   0.504   3.477
90170SOL    HW172349   9.229   0.456   3.518
90170SOL    HW272350   9.199   0.579   3.435
90171SOL     OW72351   5.219   7.882  11.693
90171SOL    HW172352   5.229   7.864  11.599
90171SOL    HW272353   5.135   7.927  11.700
90172SOL     OW72354   6.293  13.963   9.568
90172SOL    HW172355   6.377  13.917   9.574
90172SOL    HW272356   6.282  14.004   9.654
90173SOL     OW72357  11.661  10.312  11.854
90173SOL    HW172358  11.638  10.219  11.844
90173SOL    HW272359  11.708  10.316  11.937
90174SOL     OW72360   5.244   3.822  14.292
90174SOL    HW172361   5.256   3.864  14.207
90174SOL    HW272362   5.227   3.730  14.272
90175SOL     OW72363   2.790  10.970  12.805
90175SOL    HW172364   2.817  11.058  12.829
90175SOL    HW272365   2.758  10.931  12.886
90176SOL     OW72366   0.913  10.533   5.785
90176SOL    HW172367   0.915  10.615   5.735
90176SOL    HW272368   0.881  10.468   5.724
90177SOL     OW72369   8.722   5.577  12.812
90177SOL    HW172370   8.724   5.666  12.848
90177SOL    HW272371   8.641   5.573  12.761
90178SOL     OW72372   5.747  12.469   1.637
90178SOL    HW172373   5.839  12.492   1.626
90178SOL    HW272374   5.742  12.431   1.725
90179SOL     OW72375  10.371   2.491   8.637
90179SOL    HW172376  10.426   2.482   8.714
90179SOL    HW272377  10.413   2.561   8.586
90180SOL     OW72378   2.710  13.865  11.561
90180SOL    HW172379   2.718  13.771  11.550
90180SOL    HW272380   2.623  13.878  11.599
90181SOL     OW72381   4.120   2.248   4.671
90181SOL    HW172382   4.065   2.321   4.643
90181SOL    HW272383   4.209   2.282   4.669
90182SOL     OW72384   9.108  13.923   8.639
90182SOL    HW172385   9.183  13.980   8.660
90182SOL    HW272386   9.146  13.853   8.587
90183SOL     OW72387   7.626  13.931   6.134
90183SOL    HW172388   7.680  13.948   6.212
90183SOL    HW272389   7.549  13.885   6.168
90184SOL     OW72390  14.547   0.805   1.296
90184SOL    HW172391  14.627   0.770   1.336
90184SOL    HW272392  14.575   0.836   1.210
90185SOL     OW72393  11.786   2.605   3.768
90185SOL    HW172394  11.836   2.685   3.786
90185SOL    HW272395  11.745   2.582   3.851
90186SOL     OW72396   6.738   4.018  10.604
90186SOL    HW172397   6.680   3.951  10.569
90186SOL    HW272398   6.721   4.017  10.698
90187SOL     OW72399   7.597  14.712   3.250
90187SOL    HW172400   7.523  14.652   3.249
90187SOL    HW272401   7.635  14.706   3.163
90188SOL     OW72402  14.328   8.636   6.731
90188SOL    HW172403  14.249   8.652   6.783
90188SOL    HW272404  14.370   8.721   6.724
90189SOL     OW72405   8.375   4.518   3.421
90189SOL    HW172406   8.354   4.572   3.345
90189SOL    HW272407   8.291   4.476   3.444
90190SOL     OW72408   5.379   4.442  12.190
90190SOL    HW172409   5.459   4.491  12.171
90190SOL    HW272410   5.309   4.496  12.154
90191SOL     OW72411  10.807  10.414   7.049
90191SOL    HW172412  10.713  10.435   7.049
90191SOL    HW272413  10.850  10.500   7.052
90192SOL     OW72414   0.533   7.601  14.330
90192SOL    HW172415   0.577   7.615  14.414
90192SOL    HW272416   0.559   7.676  14.277
90193SOL     OW72417  12.143  14.612   8.114
90193SOL    HW172418  12.217  14.567   8.073
90193SOL    HW272419  12.180  14.652   8.193
90194SOL     OW72420   4.625   9.167   8.523
90194SOL    HW172421   4.680   9.246   8.524
90194SOL    HW272422   4.607   9.150   8.615
90195SOL     OW72423   1.881   0.884   0.465
90195SOL    HW172424   1.824   0.808   0.459
90195SOL    HW272425   1.930   0.871   0.547
90196SOL     OW72426  11.056   7.669   7.828
90196SOL    HW172427  10.973   7.717   7.833
90196SOL    HW272428  11.045   7.612   7.751
90197SOL     OW72429   3.577   7.559   7.622
90197SOL    HW172430   3.521   7.527   7.551
90197SOL    HW272431   3.605   7.479   7.667
90198SOL     OW72432  10.998   5.391   9.786
90198SOL    HW172433  11.044   5.308   9.797
90198SOL    HW272434  10.958   5.408   9.871
90199SOL     OW72435   1.247   4.478   9.874
90199SOL    HW172436   1.198   4.505   9.951
90199SOL    HW272437   1.300   4.404   9.904
90200SOL     OW72438   9.566   9.123   3.166
90200SOL    HW172439   9.579   9.137   3.072
90200SOL    HW272440   9.655   9.111   3.201
90201SOL     OW72441   0.521   6.791  11.672
90201SOL    HW172442   0.553   6.748  11.592
90201SOL    HW272443   0.583   6.765  11.740
90202SOL     OW72444   5.891  14.743  12.568
90202SOL    HW172445   5.796  14.754  12.563
90202SOL    HW272446   5.924  14.776  12.484
90203SOL     OW72447  13.174   0.495  12.141
90203SOL    HW172448  13.237   0.424  12.154
90203SOL    HW272449  13.224   0.564  12.099
90204SOL     OW72450   5.397   8.745   8.585
90204SOL    HW172451   5.424   8.836   8.599
90204SOL    HW272452   5.477   8.694   8.596
90205SOL     OW72453   4.927  13.382  10.740
90205SOL    HW172454   4.953  13.446  10.806
90205SOL    HW272455   4.950  13.422  10.657
90206SOL     OW72456   9.189   5.897   6.820
90206SOL    HW172457   9.243   5.974   6.838
90206SOL    HW272458   9.252   5.831   6.788
90207SOL     OW72459   3.020  10.985   7.021
90207SOL    HW172460   3.088  10.962   6.958
90207SOL    HW272461   3.061  10.970   7.107
90208SOL     OW72462   0.323  12.219  10.852
90208SOL    HW172463   0.258  12.232  10.921
90208SOL    HW272464   0.407  12.239  10.895
90209SOL     OW72465   5.043   0.215   5.372
90209SOL    HW172466   5.090   0.256   5.299
90209SOL    HW272467   5.005   0.289   5.420
90210SOL     OW72468   7.875   6.686   8.247
90210SOL    HW172469   7.815   6.714   8.316
90210SOL    HW272470   7.925   6.764   8.225
90211SOL     OW72471   8.872  12.395   4.742
90211SOL    HW172472   8.948  12.453   4.741
90211SOL    HW272473   8.909  12.307   4.737
90212SOL     OW72474   0.716   6.809  10.576
90212SOL    HW172475   0.790   6.815  10.516
90212SOL    HW272476   0.639   6.801  10.519
90213SOL     OW72477  11.002   3.496   4.332
90213SOL    HW172478  10.954   3.419   4.300
90213SOL    HW272479  11.084   3.494   4.284
90214SOL     OW72480   9.101  12.752   4.964
90214SOL    HW172481   9.071  12.811   5.033
90214SOL    HW272482   9.165  12.803   4.914
90215SOL     OW72483   1.603   3.079   3.253
90215SOL    HW172484   1.648   3.058   3.172
90215SOL    HW272485   1.642   3.162   3.281
90216SOL     OW72486   8.240  11.587  13.496
90216SOL    HW172487   8.186  11.653  13.453
90216SOL    HW272488   8.250  11.518  13.430
90217SOL     OW72489   4.395   1.535   1.051
90217SOL    HW172490   4.477   1.498   1.083
90217SOL    HW272491   4.405   1.630   1.061
90218SOL     OW72492   7.821  13.339  14.689
90218SOL    HW172493   7.868  13.349  14.606
90218SOL    HW272494   7.859  13.406  14.746
90219SOL     OW72495   2.480   9.413   7.120
90219SOL    HW172496   2.478   9.479   7.049
90219SOL    HW272497   2.573   9.397   7.135
90220SOL     OW72498   9.402   3.206   5.151
90220SOL    HW172499   9.326   3.215   5.094
90220SOL    HW272500   9.379   3.255   5.230
90221SOL     OW72501  10.740   1.623  14.623
90221SOL    HW172502  10.646   1.628  14.606
90221SOL    HW272503  10.781   1.659  14.545
90222SOL     OW72504   0.811   9.898  13.540
90222SOL    HW172505   0.744   9.950  13.585
90222SOL    HW272506   0.767   9.816  13.517
90223SOL     OW72507   6.612   8.590   4.159
90223SOL    HW172508   6.651   8.505   4.136
90223SOL    HW272509   6.517   8.574   4.157
90224SOL     OW72510   8.626   6.950  12.230
90224SOL    HW172511   8.719   6.970  12.233
90224SOL    HW272512   8.588   7.017  12.173
90225SOL     OW72513   5.861  10.541   4.864
90225SOL    HW172514   5.918  10.585   4.927
90225SOL    HW272515   5.781  10.521   4.913
90226SOL     OW72516   4.981   4.839   5.499
90226SOL    HW172517   4.928   4.816   5.575
90226SOL    HW272518   5.056   4.886   5.535
90227SOL     OW72519   0.293   9.026   1.918
90227SOL    HW172520   0.320   9.111   1.883
90227SOL    HW272521   0.204   9.040   1.949
90228SOL     OW72522   7.143   5.108  10.226
90228SOL    HW172523   7.067   5.117  10.169
90228SOL    HW272524   7.174   5.198  10.240
90229SOL     OW72525   3.879  13.705   1.340
90229SOL    HW172526   3.798  13.703   1.391
90229SOL    HW272527   3.851  13.726   1.251
90230SOL     OW72528  10.110  12.466   8.486
90230SOL    HW172529  10.149  12.548   8.515
90230SOL    HW272530  10.182  12.417   8.446
90231SOL     OW72531  11.103   7.991   2.888
90231SOL    HW172532  11.024   8.004   2.941
90231SOL    HW272533  11.171   8.039   2.935
90232SOL     OW72534   9.172   3.576   5.962
90232SOL    HW172535   9.183   3.590   5.868
90232SOL    HW272536   9.174   3.664   6.000
90233SOL     OW72537  11.412  11.757   1.274
90233SOL    HW172538  11.334  11.812   1.264
90233SOL    HW272539  11.441  11.741   1.184
90234SOL     OW72540   9.206   0.372   1.654
90234SOL    HW172541   9.123   0.354   1.611
90234SOL    HW272542   9.269   0.316   1.609
90235SOL     OW72543   5.108  11.722   6.462
90235SOL    HW172544   5.164  11.700   6.536
90235SOL    HW272545   5.126  11.814   6.446
90236SOL     OW72546   1.420  10.053   8.296
90236SOL    HW172547   1.419  10.143   8.265
90236SOL    HW272548   1.513  10.032   8.304
90237SOL     OW72549  11.135  13.223  12.004
90237SOL    HW172550  11.130  13.137  11.964
90237SOL    HW272551  11.206  13.267  11.958
90238SOL     OW72552  12.901  11.017   6.989
90238SOL    HW172553  12.914  10.947   6.925
90238SOL    HW272554  12.985  11.024   7.035
90239SOL     OW72555   0.730  11.053   2.285
90239SOL    HW172556   0.739  11.140   2.246
90239SOL    HW272557   0.675  11.067   2.362
90240SOL     OW72558   4.225   4.112   5.451
90240SOL    HW172559   4.227   4.207   5.438
90240SOL    HW272560   4.231   4.101   5.546
90241SOL     OW72561   8.653  13.036   1.156
90241SOL    HW172562   8.672  13.129   1.144
90241SOL    HW272563   8.680  13.017   1.246
90242SOL     OW72564   2.593  14.024   9.271
90242SOL    HW172565   2.683  13.992   9.278
90242SOL    HW272566   2.544  13.969   9.331
90243SOL     OW72567   6.976   6.282   5.356
90243SOL    HW172568   6.944   6.237   5.435
90243SOL    HW272569   7.071   6.283   5.366
90244SOL     OW72570   4.120   4.592   9.335
90244SOL    HW172571   4.097   4.649   9.263
90244SOL    HW272572   4.178   4.526   9.297
90245SOL     OW72573   8.686   6.737   3.877
90245SOL    HW172574   8.694   6.687   3.797
90245SOL    HW272575   8.611   6.698   3.922
90246SOL     OW72576   8.090   1.783  12.298
90246SOL    HW172577   8.124   1.838  12.228
90246SOL    HW272578   8.166   1.732  12.327
90247SOL     OW72579   1.769  10.615   8.693
90247SOL    HW172580   1.863  10.623   8.709
90247SOL    HW272581   1.763  10.567   8.610
90248SOL     OW72582  12.887  13.257  14.778
90248SOL    HW172583  12.807  13.264  14.829
90248SOL    HW272584  12.860  13.266  14.687
90249SOL     OW72585   9.020   7.557   3.446
90249SOL    HW172586   8.931   7.522   3.440
90249SOL    HW272587   9.033   7.602   3.362
90250SOL     OW72588   8.457  14.237  13.154
90250SOL    HW172589   8.398  14.191  13.095
90250SOL    HW272590   8.400  14.272  13.223
90251SOL     OW72591   6.870   0.121  10.859
90251SOL    HW172592   6.918   0.200  10.883
90251SOL    HW272593   6.889   0.110  10.765
90252SOL     OW72594   3.032  10.075  12.117
90252SOL    HW172595   3.069   9.992  12.087
90252SOL    HW272596   3.065  10.140  12.054
90253SOL     OW72597   6.915   6.188  10.807
90253SOL    HW172598   6.846   6.250  10.834
90253SOL    HW272599   6.995   6.240  10.806
90254SOL     OW72600  12.759   8.029   1.826
90254SOL    HW172601  12.752   8.117   1.862
90254SOL    HW272602  12.841   8.028   1.777
90255SOL     OW72603  13.432   2.158   3.181
90255SOL    HW172604  13.479   2.102   3.119
90255SOL    HW272605  13.452   2.247   3.152
90256SOL     OW72606  13.394  10.014   3.432
90256SOL    HW172607  13.462  10.021   3.499
90256SOL    HW272608  13.340   9.940   3.460
90257SOL     OW72609   6.773  11.660   3.044
90257SOL    HW172610   6.846  11.674   3.104
90257SOL    HW272611   6.709  11.610   3.094
90258SOL     OW72612   8.583   7.795  12.449
90258SOL    HW172613   8.502   7.842  12.429
90258SOL    HW272614   8.567   7.707  12.416
90259SOL     OW72615   8.200   5.631  10.271
90259SOL    HW172616   8.219   5.725  10.262
90259SOL    HW272617   8.116   5.620  10.227
90260SOL     OW72618  13.900  11.731   5.362
90260SOL    HW172619  13.894  11.646   5.405
90260SOL    HW272620  13.905  11.711   5.269
90261SOL     OW72621  13.229   6.965   0.455
90261SOL    HW172622  13.288   6.963   0.379
90261SOL    HW272623  13.175   7.042   0.440
90262SOL     OW72624   4.109  12.116  13.804
90262SOL    HW172625   4.198  12.150  13.797
90262SOL    HW272626   4.114  12.027  13.770
90263SOL     OW72627   5.219  13.344   9.910
90263SOL    HW172628   5.288  13.409   9.922
90263SOL    HW272629   5.265  13.260   9.908
90264SOL     OW72630   2.108   2.462   9.583
90264SOL    HW172631   2.116   2.434   9.492
90264SOL    HW272632   2.055   2.394   9.624
90265SOL     OW72633  14.219   0.458   7.699
90265SOL    HW172634  14.275   0.406   7.757
90265SOL    HW272635  14.193   0.534   7.751
90266SOL     OW72636  11.593   9.652   5.686
90266SOL    HW172637  11.550   9.581   5.733
90266SOL    HW272638  11.610   9.719   5.752
90267SOL     OW72639   7.894  10.615   0.281
90267SOL    HW172640   7.855  10.687   0.230
90267SOL    HW272641   7.863  10.536   0.238
90268SOL     OW72642  12.163   6.605   7.327
90268SOL    HW172643  12.154   6.680   7.269
90268SOL    HW272644  12.078   6.560   7.321
90269SOL     OW72645   7.967  10.278  14.102
90269SOL    HW172646   7.970  10.373  14.096
90269SOL    HW272647   7.981  10.247  14.013
90270SOL     OW72648   6.750  10.984   7.205
90270SOL    HW172649   6.794  10.933   7.137
90270SOL    HW272650   6.797  11.067   7.206
90271SOL     OW72651   8.456   8.257   3.183
90271SOL    HW172652   8.375   8.298   3.152
90271SOL    HW272653   8.441   8.163   3.171
90272SOL     OW72654  12.246  10.079   8.305
90272SOL    HW172655  12.325  10.027   8.320
90272SOL    HW272656  12.216  10.051   8.218
90273SOL     OW72657  12.405  13.255   8.395
90273SOL    HW172658  12.421  13.262   8.301
90273SOL    HW272659  12.334  13.191   8.403
90274SOL     OW72660   7.797  14.323  13.537
90274SOL    HW172661   7.727  14.326  13.602
90274SOL    HW272662   7.788  14.237  13.496
90275SOL     OW72663   3.524  13.631   6.471
90275SOL    HW172664   3.473  13.607   6.548
90275SOL    HW272665   3.468  13.691   6.422
90276SOL     OW72666  13.881  10.500   5.239
90276SOL    HW172667  13.787  10.500   5.221
90276SOL    HW272668  13.901  10.410   5.266
90277SOL     OW72669  11.953  13.807  14.850
90277SOL    HW172670  11.864  13.783  14.825
90277SOL    HW272671  11.979  13.741   0.032
90278SOL     OW72672   0.628   3.034   3.794
90278SOL    HW172673   0.710   3.081   3.775
90278SOL    HW272674   0.607   2.988   3.713
90279SOL     OW72675   8.622   7.508   0.517
90279SOL    HW172676   8.587   7.451   0.585
90279SOL    HW272677   8.631   7.451   0.441
90280SOL     OW72678  13.199  12.031   7.473
90280SOL    HW172679  13.263  11.979   7.425
90280SOL    HW272680  13.192  12.113   7.424
90281SOL     OW72681   0.210   0.941   2.327
90281SOL    HW172682   0.228   0.848   2.309
90281SOL    HW272683   0.132   0.961   2.276
90282SOL     OW72684  12.890   1.087  11.757
90282SOL    HW172685  12.911   1.155  11.822
90282SOL    HW272686  12.906   1.005  11.803
90283SOL     OW72687   3.081   4.920   8.211
90283SOL    HW172688   3.125   4.855   8.156
90283SOL    HW272689   3.031   4.973   8.149
90284SOL     OW72690   5.841   2.710  14.261
90284SOL    HW172691   5.859   2.642  14.327
90284SOL    HW272692   5.885   2.679  14.182
90285SOL     OW72693  10.695   5.116  13.150
90285SOL    HW172694  10.697   5.020  13.148
90285SOL    HW272695  10.643   5.140  13.074
90286SOL     OW72696   7.952   6.251   3.713
90286SOL    HW172697   7.875   6.206   3.678
90286SOL    HW272698   8.016   6.247   3.642
90287SOL     OW72699   6.076  10.705  10.588
90287SOL    HW172700   6.058  10.622  10.632
90287SOL    HW272701   6.063  10.771  10.656
90288SOL     OW72702  11.450  12.620   7.458
90288SOL    HW172703  11.370  12.578   7.427
90288SOL    HW272704  11.471  12.684   7.390
90289SOL     OW72705   3.227  14.706  11.617
90289SOL    HW172706   3.312  14.670  11.589
90289SOL    HW272707   3.167  14.682  11.547
90290SOL     OW72708  13.972   3.920   3.677
90290SOL    HW172709  14.036   3.851   3.660
90290SOL    HW272710  14.003   3.961   3.758
90291SOL     OW72711   8.746  11.509   2.910
90291SOL    HW172712   8.720  11.555   2.990
90291SOL    HW272713   8.810  11.445   2.939
90292SOL     OW72714   0.405   7.231   3.328
90292SOL    HW172715   0.499   7.249   3.329
90292SOL    HW272716   0.378   7.248   3.238
90293SOL     OW72717   5.960  14.425   0.038
90293SOL    HW172718   6.038  14.465   0.075
90293SOL    HW272719   5.991  14.378  14.842
90294SOL     OW72720   0.084  10.370  12.883
90294SOL    HW172721   0.150  10.301  12.894
90294SOL    HW272722   0.039  10.374  12.967
90295SOL     OW72723   3.394  14.246  13.559
90295SOL    HW172724   3.395  14.329  13.512
90295SOL    HW272725   3.405  14.271  13.651
90296SOL     OW72726   5.400   2.358  11.746
90296SOL    HW172727   5.350   2.282  11.777
90296SOL    HW272728   5.491   2.334  11.763
90297SOL     OW72729  10.144   2.866   7.029
90297SOL    HW172730  10.178   2.793   6.978
90297SOL    HW272731  10.208   2.877   7.100
90298SOL     OW72732   9.340   8.473   4.684
90298SOL    HW172733   9.403   8.412   4.647
90298SOL    HW272734   9.270   8.477   4.619
90299SOL     OW72735  10.858   4.647   7.970
90299SOL    HW172736  10.818   4.681   7.890
90299SOL    HW272737  10.899   4.724   8.011
90300SOL     OW72738   5.244   4.161   2.624
90300SOL    HW172739   5.263   4.072   2.655
90300SOL    HW272740   5.289   4.218   2.687
90301SOL     OW72741   7.221   3.918   4.449
90301SOL    HW172742   7.233   3.841   4.505
90301SOL    HW272743   7.174   3.885   4.372
90302SOL     OW72744   7.360   9.068   2.024
90302SOL    HW172745   7.370   8.974   2.011
90302SOL    HW272746   7.331   9.101   1.938
90303SOL     OW72747   6.053  10.778   9.930
90303SOL    HW172748   5.968  10.734   9.943
90303SOL    HW272749   6.105  10.752  10.006
90304SOL     OW72750  11.698  12.003   9.491
90304SOL    HW172751  11.766  11.963   9.544
90304SOL    HW272752  11.739  12.019   9.406
90305SOL     OW72753   0.917   1.608   4.827
90305SOL    HW172754   0.850   1.579   4.766
90305SOL    HW272755   0.980   1.536   4.830
90306SOL     OW72756   9.337   2.220   3.631
90306SOL    HW172757   9.300   2.138   3.663
90306SOL    HW272758   9.263   2.282   3.633
90307SOL     OW72759   0.901   5.703   2.635
90307SOL    HW172760   0.908   5.625   2.580
90307SOL    HW272761   0.857   5.672   2.714
90308SOL     OW72762   3.730   3.825   5.524
90308SOL    HW172763   3.694   3.914   5.519
90308SOL    HW272764   3.701   3.783   5.443
90309SOL     OW72765   8.955  14.606   0.266
90309SOL    HW172766   8.898  14.539   0.304
90309SOL    HW272767   8.929  14.687   0.310
90310SOL     OW72768   1.216   5.959   1.960
90310SOL    HW172769   1.262   6.034   1.923
90310SOL    HW272770   1.237   5.886   1.901
90311SOL     OW72771   6.571   8.130  11.996
90311SOL    HW172772   6.492   8.184  12.000
90311SOL    HW272773   6.572   8.096  11.907
90312SOL     OW72774   7.321   2.523  12.162
90312SOL    HW172775   7.287   2.437  12.187
90312SOL    HW272776   7.253   2.559  12.104
90313SOL     OW72777   0.168   3.624   8.566
90313SOL    HW172778   0.138   3.680   8.495
90313SOL    HW272779   0.204   3.685   8.630
90314SOL     OW72780  13.527  13.965   9.523
90314SOL    HW172781  13.492  13.895   9.578
90314SOL    HW272782  13.482  14.044   9.552
90315SOL     OW72783   6.926   6.037  12.997
90315SOL    HW172784   6.979   5.982  12.940
90315SOL    HW272785   6.982   6.110  13.020
90316SOL     OW72786  10.692   4.859   1.281
90316SOL    HW172787  10.694   4.930   1.344
90316SOL    HW272788  10.687   4.902   1.196
90317SOL     OW72789  13.064  11.359  10.489
90317SOL    HW172790  13.030  11.283  10.535
90317SOL    HW272791  13.003  11.372  10.416
90318SOL     OW72792   4.033  12.984  12.428
90318SOL    HW172793   4.094  13.017  12.363
90318SOL    HW272794   4.088  12.955  12.500
90319SOL     OW72795  13.434   4.438   3.272
90319SOL    HW172796  13.425   4.495   3.195
90319SOL    HW272797  13.363   4.375   3.264
90320SOL     OW72798  14.748   1.758   5.123
90320SOL    HW172799  14.689   1.742   5.197
90320SOL    HW272800  14.743   1.852   5.109
90321SOL     OW72801   0.805  10.157   1.651
90321SOL    HW172802   0.726  10.106   1.668
90321SOL    HW272803   0.798  10.232   1.709
90322SOL     OW72804  12.017   1.822   6.573
90322SOL    HW172805  11.938   1.833   6.520
90322SOL    HW272806  12.028   1.727   6.579
90323SOL     OW72807   0.330   9.909   6.190
90323SOL    HW172808   0.302   9.908   6.281
90323SOL    HW272809   0.392   9.836   6.182
90324SOL     OW72810   0.824  10.236  14.577
90324SOL    HW172811   0.889  10.291  14.534
90324SOL    HW272812   0.812  10.277  14.663
90325SOL     OW72813   6.202  14.785   4.859
90325SOL    HW172814   6.159  14.711   4.817
90325SOL    HW272815   6.266  14.745   4.919
90326SOL     OW72816  11.595   1.194   6.365
90326SOL    HW172817  11.649   1.273   6.357
90326SOL    HW272818  11.618   1.156   6.450
90327SOL     OW72819   6.214   1.809   6.886
90327SOL    HW172820   6.272   1.871   6.841
90327SOL    HW272821   6.130   1.817   6.840
90328SOL     OW72822   0.824   0.084  13.788
90328SOL    HW172823   0.918   0.069  13.799
90328SOL    HW272824   0.809   0.171  13.825
90329SOL     OW72825   9.102   9.590   9.728
90329SOL    HW172826   9.130   9.564   9.640
90329SOL    HW272827   9.158   9.665   9.750
90330SOL     OW72828  12.105   7.828  14.154
90330SOL    HW172829  12.143   7.826  14.241
90330SOL    HW272830  12.073   7.738  14.139
90331SOL     OW72831   9.409   3.897  14.048
90331SOL    HW172832   9.346   3.827  14.030
90331SOL    HW272833   9.448   3.874  14.132
90332SOL     OW72834   5.044   6.378  12.356
90332SOL    HW172835   5.054   6.413  12.268
90332SOL    HW272836   4.968   6.424  12.392
90333SOL     OW72837   1.853   9.542   3.124
90333SOL    HW172838   1.940   9.547   3.163
90333SOL    HW272839   1.823   9.453   3.146
90334SOL     OW72840   0.510   1.336   0.342
90334SOL    HW172841   0.566   1.261   0.324
90334SOL    HW272842   0.560   1.389   0.404
90335SOL     OW72843   8.509   6.560  14.556
90335SOL    HW172844   8.471   6.531  14.639
90335SOL    HW272845   8.440   6.546  14.492
90336SOL     OW72846  13.476   3.183  11.148
90336SOL    HW172847  13.385   3.155  11.142
90336SOL    HW272848  13.525   3.103  11.166
90337SOL     OW72849  10.208   5.824   8.223
90337SOL    HW172850  10.241   5.887   8.287
90337SOL    HW272851  10.186   5.878   8.146
90338SOL     OW72852   4.208   8.153  13.234
90338SOL    HW172853   4.292   8.193  13.213
90338SOL    HW272854   4.202   8.156  13.330
90339SOL     OW72855  11.214   8.451  12.748
90339SOL    HW172856  11.222   8.478  12.839
90339SOL    HW272857  11.128   8.483  12.721
90340SOL     OW72858  10.738   4.522   3.523
90340SOL    HW172859  10.791   4.445   3.540
90340SOL    HW272860  10.702   4.546   3.608
90341SOL     OW72861   7.647   4.199   5.291
90341SOL    HW172862   7.589   4.210   5.216
90341SOL    HW272863   7.627   4.111   5.324
90342SOL     OW72864  12.834   4.579   1.851
90342SOL    HW172865  12.868   4.502   1.896
90342SOL    HW272866  12.875   4.576   1.764
90343SOL     OW72867   0.024   3.009  10.790
90343SOL    HW172868   0.084   2.942  10.758
90343SOL    HW272869  14.827   2.997  10.738
90344SOL     OW72870  11.524   7.184  14.191
90344SOL    HW172871  11.526   7.128  14.268
90344SOL    HW272872  11.432   7.186  14.165
90345SOL     OW72873   8.882  14.440  14.803
90345SOL    HW172874   8.960  14.418  14.753
90345SOL    HW272875   8.826  14.363  14.796
90346SOL     OW72876  12.422  12.174   3.297
90346SOL    HW172877  12.343  12.220   3.268
90346SOL    HW272878  12.465  12.146   3.216
90347SOL     OW72879   7.544  13.676   9.094
90347SOL    HW172880   7.622  13.730   9.112
90347SOL    HW272881   7.564  13.633   9.011
90348SOL     OW72882   2.797   8.368  13.582
90348SOL    HW172883   2.810   8.434  13.649
90348SOL    HW272884   2.820   8.285  13.625
90349SOL     OW72885   9.452   5.926   7.517
90349SOL    HW172886   9.362   5.939   7.547
90349SOL    HW272887   9.456   5.834   7.490
90350SOL     OW72888   1.596   5.058   6.360
90350SOL    HW172889   1.593   5.040   6.454
90350SOL    HW272890   1.611   5.152   6.354
90351SOL     OW72891  14.754   2.988  11.162
90351SOL    HW172892  14.677   3.001  11.217
90351SOL    HW272893  14.720   2.992  11.072
90352SOL     OW72894   6.382   1.730  10.847
90352SOL    HW172895   6.396   1.687  10.932
90352SOL    HW272896   6.413   1.667  10.783
90353SOL     OW72897   1.989  11.190   5.893
90353SOL    HW172898   1.917  11.159   5.948
90353SOL    HW272899   1.954  11.187   5.804
90354SOL     OW72900  13.677   6.265   2.140
90354SOL    HW172901  13.758   6.313   2.153
90354SOL    HW272902  13.702   6.188   2.089
90355SOL     OW72903   6.994  11.374  14.280
90355SOL    HW172904   6.904  11.387  14.249
90355SOL    HW272905   7.020  11.290  14.242
90356SOL     OW72906   5.223   1.092   9.900
90356SOL    HW172907   5.265   1.037   9.966
90356SOL    HW272908   5.178   1.160   9.950
90357SOL     OW72909   6.839   2.121   1.683
90357SOL    HW172910   6.854   2.186   1.614
90357SOL    HW272911   6.859   2.037   1.641
90358SOL     OW72912  11.872  13.120   0.715
90358SOL    HW172913  11.781  13.150   0.705
90358SOL    HW272914  11.875  13.081   0.802
90359SOL     OW72915   5.509   5.230   3.190
90359SOL    HW172916   5.538   5.200   3.103
90359SOL    HW272917   5.515   5.326   3.185
90360SOL     OW72918  13.112  13.052   9.285
90360SOL    HW172919  13.145  13.096   9.207
90360SOL    HW272920  13.045  13.111   9.320
90361SOL     OW72921   7.357   5.421  14.127
90361SOL    HW172922   7.331   5.364  14.200
90361SOL    HW272923   7.345   5.366  14.049
90362SOL     OW72924   0.888   8.920   0.232
90362SOL    HW172925   0.886   8.825   0.223
90362SOL    HW272926   0.833   8.937   0.309
90363SOL     OW72927   5.134  11.742   9.229
90363SOL    HW172928   5.046  11.707   9.239
90363SOL    HW272929   5.123  11.837   9.239
90364SOL     OW72930   9.229   6.151   5.390
90364SOL    HW172931   9.220   6.056   5.385
90364SOL    HW272932   9.141   6.182   5.413
90365SOL     OW72933   8.408  10.308  10.575
90365SOL    HW172934   8.443  10.321  10.487
90365SOL    HW272935   8.356  10.228  10.569
90366SOL     OW72936  10.358   5.116   4.488
90366SOL    HW172937  10.331   5.087   4.402
90366SOL    HW272938  10.309   5.061   4.549
90367SOL     OW72939   6.816  10.090   1.557
90367SOL    HW172940   6.865  10.043   1.489
90367SOL    HW272941   6.735  10.041   1.567
90368SOL     OW72942   2.320   5.673  12.137
90368SOL    HW172943   2.279   5.677  12.050
90368SOL    HW272944   2.297   5.755  12.179
90369SOL     OW72945   8.283  13.424   2.780
90369SOL    HW172946   8.211  13.404   2.839
90369SOL    HW272947   8.334  13.491   2.826
90370SOL     OW72948  12.177  11.079   4.491
90370SOL    HW172949  12.224  11.149   4.535
90370SOL    HW272950  12.090  11.079   4.531
90371SOL     OW72951   1.979   3.811   6.137
90371SOL    HW172952   2.066   3.833   6.171
90371SOL    HW272953   1.932   3.894   6.138
90372SOL     OW72954   2.999   0.424   2.759
90372SOL    HW172955   2.978   0.511   2.793
90372SOL    HW272956   3.051   0.440   2.681
90373SOL     OW72957  11.079  14.671  12.086
90373SOL    HW172958  10.986  14.657  12.101
90373SOL    HW272959  11.121  14.648  12.169
90374SOL     OW72960  13.266  14.515   2.546
90374SOL    HW172961  13.238  14.531   2.637
90374SOL    HW272962  13.361  14.522   2.549
90375SOL     OW72963   9.815  14.226   4.486
90375SOL    HW172964   9.825  14.318   4.462
90375SOL    HW272965   9.764  14.187   4.415
90376SOL     OW72966   8.727   6.964   2.714
90376SOL    HW172967   8.674   6.887   2.693
90376SOL    HW272968   8.690   6.998   2.795
90377SOL     OW72969  13.726   6.377   7.614
90377SOL    HW172970  13.692   6.446   7.670
90377SOL    HW272971  13.760   6.311   7.675
90378SOL     OW72972   4.144   6.615  11.767
90378SOL    HW172973   4.196   6.556  11.713
90378SOL    HW272974   4.055   6.604  11.734
90379SOL     OW72975   6.839   2.608   2.119
90379SOL    HW172976   6.756   2.625   2.163
90379SOL    HW272977   6.884   2.545   2.176
90380SOL     OW72978   6.089  10.282   3.715
90380SOL    HW172979   6.183  10.266   3.701
90380SOL    HW272980   6.085  10.332   3.796
90381SOL     OW72981  13.170   8.347   2.427
90381SOL    HW172982  13.120   8.347   2.509
90381SOL    HW272983  13.192   8.255   2.412
90382SOL     OW72984   2.240   2.348   4.156
90382SOL    HW172985   2.256   2.291   4.231
90382SOL    HW272986   2.208   2.290   4.088
90383SOL     OW72987   8.682   2.444   8.091
90383SOL    HW172988   8.672   2.362   8.140
90383SOL    HW272989   8.768   2.437   8.050
90384SOL     OW72990   4.483   4.489   7.455
90384SOL    HW172991   4.489   4.513   7.363
90384SOL    HW272992   4.571   4.505   7.490
90385SOL     OW72993  10.814  13.121   3.921
90385SOL    HW172994  10.833  13.042   3.972
90385SOL    HW272995  10.895  13.172   3.925
90386SOL     OW72996  10.523  13.810   9.376
90386SOL    HW172997  10.487  13.785   9.461
90386SOL    HW272998  10.478  13.752   9.314
90387SOL     OW72999  12.809   7.606   9.760
90387SOL    HW173000  12.819   7.511   9.761
90387SOL    HW273001  12.866   7.635   9.689
90388SOL     OW73002   9.212   2.234   6.727
90388SOL    HW173003   9.120   2.215   6.712
90388SOL    HW273004   9.240   2.169   6.792
90389SOL     OW73005   2.668  10.467  12.503
90389SOL    HW173006   2.684  10.380  12.540
90389SOL    HW273007   2.648  10.451  12.411
90390SOL     OW73008  10.719   0.432   7.059
90390SOL    HW173009  10.670   0.462   7.135
90390SOL    HW273010  10.723   0.507   7.001
90391SOL     OW73011   8.423   4.626  11.865
90391SOL    HW173012   8.421   4.627  11.769
90391SOL    HW273013   8.360   4.693  11.891
90392SOL     OW73014   0.285   3.593   6.608
90392SOL    HW173015   0.224   3.624   6.674
90392SOL    HW273016   0.371   3.623   6.639
90393SOL     OW73017   2.209  10.970   6.707
90393SOL    HW173018   2.184  11.020   6.630
90393SOL    HW273019   2.223  11.036   6.775
90394SOL     OW73020  14.612   2.551  13.847
90394SOL    HW173021  14.550   2.607  13.893
90394SOL    HW273022  14.687   2.544  13.905
90395SOL     OW73023   9.535  14.690   4.800
90395SOL    HW173024   9.611  14.653   4.756
90395SOL    HW273025   9.542  14.658   4.890
90396SOL     OW73026   6.875   9.697   5.184
90396SOL    HW173027   6.866   9.676   5.277
90396SOL    HW273028   6.884   9.612   5.141
90397SOL     OW73029   3.782   5.919   6.145
90397SOL    HW173030   3.800   5.837   6.192
90397SOL    HW273031   3.743   5.891   6.062
90398SOL     OW73032   2.466   6.384  12.712
90398SOL    HW173033   2.383   6.341  12.729
90398SOL    HW273034   2.517   6.320  12.662
90399SOL     OW73035  13.336   7.705  11.326
90399SOL    HW173036  13.382   7.782  11.360
90399SOL    HW273037  13.264   7.691  11.388
90400SOL     OW73038   2.582   2.160   8.593
90400SOL    HW173039   2.587   2.166   8.688
90400SOL    HW273040   2.503   2.109   8.576
90401SOL     OW73041   6.455  14.098   1.057
90401SOL    HW173042   6.534  14.077   1.107
90401SOL    HW273043   6.469  14.057   0.972
90402SOL     OW73044  12.057   2.556   5.981
90402SOL    HW173045  12.026   2.489   5.921
90402SOL    HW273046  11.987   2.565   6.046
90403SOL     OW73047   0.265  12.303   4.684
90403SOL    HW173048   0.174  12.325   4.664
90403SOL    HW273049   0.296  12.259   4.605
90404SOL     OW73050   6.396   9.515   0.905
90404SOL    HW173051   6.367   9.497   0.816
90404SOL    HW273052   6.449   9.595   0.898
90405SOL     OW73053   0.812  13.500   3.072
90405SOL    HW173054   0.823  13.433   3.139
90405SOL    HW273055   0.901  13.514   3.037
90406SOL     OW73056   7.960   5.937  12.048
90406SOL    HW173057   7.868   5.912  12.056
90406SOL    HW273058   7.959   6.030  12.030
90407SOL     OW73059  10.873   1.150  14.060
90407SOL    HW173060  10.862   1.179  14.151
90407SOL    HW273061  10.815   1.075  14.051
90408SOL     OW73062   7.229   8.651   0.971
90408SOL    HW173063   7.318   8.683   0.983
90408SOL    HW273064   7.238   8.571   0.920
90409SOL     OW73065   0.201   2.337   1.625
90409SOL    HW173066   0.189   2.244   1.647
90409SOL    HW273067   0.139   2.383   1.680
90410SOL     OW73068   4.101  13.762   2.560
90410SOL    HW173069   4.114  13.667   2.562
90410SOL    HW273070   4.097  13.788   2.652
90411SOL     OW73071   0.395   0.109  12.177
90411SOL    HW173072   0.482   0.106  12.216
90411SOL    HW273073   0.406   0.161  12.098
90412SOL     OW73074  12.211   5.433   6.539
90412SOL    HW173075  12.213   5.343   6.508
90412SOL    HW273076  12.167   5.429   6.623
90413SOL     OW73077  11.367  11.664   4.254
90413SOL    HW173078  11.401  11.657   4.165
90413SOL    HW273079  11.350  11.757   4.265
90414SOL     OW73080   2.177   2.280   3.130
90414SOL    HW173081   2.136   2.244   3.208
90414SOL    HW273082   2.147   2.371   3.127
90415SOL     OW73083  12.882   8.418  12.544
90415SOL    HW173084  12.955   8.398  12.602
90415SOL    HW273085  12.823   8.472  12.596
90416SOL     OW73086   0.609   3.240   7.750
90416SOL    HW173087   0.645   3.328   7.744
90416SOL    HW273088   0.514   3.252   7.745
90417SOL     OW73089  12.929   7.444  14.733
90417SOL    HW173090  12.881   7.396  14.665
90417SOL    HW273091  12.880   7.526  14.743
90418SOL     OW73092   3.592   8.318  12.835
90418SOL    HW173093   3.513   8.371  12.819
90418SOL    HW273094   3.634   8.360  12.910
90419SOL     OW73095   8.070  11.727   2.743
90419SOL    HW173096   8.146  11.783   2.724
90419SOL    HW273097   8.023  11.721   2.660
90420SOL     OW73098   9.609   1.823   1.730
90420SOL    HW173099   9.538   1.761   1.748
90420SOL    HW273100   9.661   1.780   1.662
90421SOL     OW73101   7.845  12.661   0.916
90421SOL    HW173102   7.863  12.681   0.825
90421SOL    HW273103   7.928  12.629   0.951
90422SOL     OW73104  14.651  12.475   2.777
90422SOL    HW173105  14.659  12.421   2.856
90422SOL    HW273106  14.728  12.531   2.778
90423SOL     OW73107   4.970   2.677   2.702
90423SOL    HW173108   4.976   2.716   2.615
90423SOL    HW273109   5.061   2.667   2.730
90424SOL     OW73110  11.747  14.849  11.555
90424SOL    HW173111  11.720   0.014  11.634
90424SOL    HW273112  11.837  14.877  11.539
90425SOL     OW73113  12.288   2.796  14.347
90425SOL    HW173114  12.295   2.804  14.442
90425SOL    HW273115  12.367   2.749  14.321
90426SOL     OW73116   5.978   4.096   9.123
90426SOL    HW173117   5.921   4.149   9.178
90426SOL    HW273118   5.923   4.025   9.092
90427SOL     OW73119   1.018   9.007  11.486
90427SOL    HW173120   0.972   8.948  11.546
90427SOL    HW273121   1.024   9.090  11.535
90428SOL     OW73122  13.638  11.423  11.105
90428SOL    HW173123  13.614  11.500  11.158
90428SOL    HW273124  13.635  11.454  11.015
90429SOL     OW73125   8.849  10.784  13.636
90429SOL    HW173126   8.897  10.781  13.718
90429SOL    HW273127   8.916  10.795  13.569
90430SOL     OW73128   0.952  14.470   4.450
90430SOL    HW173129   1.009  14.471   4.373
90430SOL    HW273130   0.864  14.458   4.415
90431SOL     OW73131   3.649  10.550  14.360
90431SOL    HW173132   3.665  10.459  14.336
90431SOL    HW273133   3.712  10.600  14.308
90432SOL     OW73134   6.131   6.847   7.666
90432SOL    HW173135   6.065   6.907   7.629
90432SOL    HW273136   6.214   6.880   7.632
90433SOL     OW73137   9.795   5.362  11.118
90433SOL    HW173138   9.733   5.348  11.047
90433SOL    HW273139   9.779   5.452  11.147
90434SOL     OW73140   0.696  11.410   5.876
90434SOL    HW173141   0.687  11.429   5.783
90434SOL    HW273142   0.780  11.449   5.901
90435SOL     OW73143   2.956   2.318   2.803
90435SOL    HW173144   2.873   2.270   2.800
90435SOL    HW273145   2.931   2.408   2.825
90436SOL     OW73146   9.881   6.872  12.293
90436SOL    HW173147   9.919   6.944  12.343
90436SOL    HW273148   9.900   6.894  12.201
90437SOL     OW73149  14.824   0.561  10.074
90437SOL    HW173150  14.830   0.571  10.169
90437SOL    HW273151  14.815   0.466  10.060
90438SOL     OW73152   6.401  11.714   3.177
90438SOL    HW173153   6.431  11.624   3.161
90438SOL    HW273154   6.334  11.705   3.244
90439SOL     OW73155   7.173   1.440   8.321
90439SOL    HW173156   7.106   1.374   8.339
90439SOL    HW273157   7.193   1.478   8.407
90440SOL     OW73158   0.507   0.579  14.111
90440SOL    HW173159   0.571   0.548  14.176
90440SOL    HW273160   0.536   0.667  14.090
90441SOL     OW73161  10.902   8.324   5.902
90441SOL    HW173162  10.836   8.360   5.843
90441SOL    HW273163  10.978   8.307   5.847
90442SOL     OW73164  10.183   5.713   6.207
90442SOL    HW173165  10.122   5.688   6.138
90442SOL    HW273166  10.128   5.742   6.279
90443SOL     OW73167   6.243   3.423   2.166
90443SOL    HW173168   6.154   3.451   2.189
90443SOL    HW273169   6.300   3.491   2.201
90444SOL     OW73170   7.583  10.078   2.836
90444SOL    HW173171   7.498  10.113   2.862
90444SOL    HW273172   7.646  10.142   2.869
90445SOL     OW73173   8.588   0.202   1.630
90445SOL    HW173174   8.540   0.177   1.551
90445SOL    HW273175   8.626   0.287   1.609
90446SOL     OW73176   2.220   2.064   1.798
90446SOL    HW173177   2.216   2.103   1.710
90446SOL    HW273178   2.257   1.977   1.784
90447SOL     OW73179   2.353  12.240  12.068
90447SOL    HW173180   2.350  12.153  12.027
90447SOL    HW273181   2.387  12.298  11.999
90448SOL     OW73182  11.705  13.276   4.605
90448SOL    HW173183  11.774  13.295   4.669
90448SOL    HW273184  11.623  13.289   4.652
90449SOL     OW73185   0.481  14.116  13.023
90449SOL    HW173186   0.436  14.169  12.958
90449SOL    HW273187   0.484  14.028  12.985
90450SOL     OW73188  10.382   0.366   4.784
90450SOL    HW173189  10.473   0.391   4.798
90450SOL    HW273190  10.343   0.367   4.871
90451SOL     OW73191   5.849  10.415  10.361
90451SOL    HW173192   5.820  10.471  10.434
90451SOL    HW273193   5.768  10.374  10.329
90452SOL     OW73194   1.135   2.325   3.739
90452SOL    HW173195   1.065   2.388   3.721
90452SOL    HW273196   1.157   2.290   3.652
90453SOL     OW73197   0.501   4.773   6.955
90453SOL    HW173198   0.557   4.713   6.906
90453SOL    HW273199   0.436   4.803   6.892
90454SOL     OW73200   1.037   3.252   1.183
90454SOL    HW173201   1.119   3.279   1.223
90454SOL    HW273202   1.043   3.157   1.176
90455SOL     OW73203   1.371   1.550   6.237
90455SOL    HW173204   1.446   1.607   6.255
90455SOL    HW273205   1.365   1.548   6.141
90456SOL     OW73206   4.331   6.371   3.049
90456SOL    HW173207   4.252   6.407   3.009
90456SOL    HW273208   4.348   6.427   3.124
90457SOL     OW73209   3.390  12.903   6.957
90457SOL    HW173210   3.402  12.998   6.967
90457SOL    HW273211   3.404  12.886   6.864
90458SOL     OW73212   5.304  14.449  13.985
90458SOL    HW173213   5.391  14.434  13.949
90458SOL    HW273214   5.312  14.424  14.077
90459SOL     OW73215   7.780  10.211   2.975
90459SOL    HW173216   7.821  10.257   3.049
90459SOL    HW273217   7.788  10.271   2.902
90460SOL     OW73218   4.777   2.464  11.746
90460SOL    HW173219   4.784   2.558  11.726
90460SOL    HW273220   4.827   2.453  11.826
90461SOL     OW73221  14.555   4.084   0.252
90461SOL    HW173222  14.546   4.082   0.157
90461SOL    HW273223  14.590   4.172   0.270
90462SOL     OW73224  14.873   0.307   3.043
90462SOL    HW173225  14.844   0.344   2.960
90462SOL    HW273226   0.086   0.300   3.035
90463SOL     OW73227  10.006   6.143  13.055
90463SOL    HW173228  10.067   6.198  13.006
90463SOL    HW273229   9.979   6.197  13.129
90464SOL     OW73230  11.504  10.518   2.810
90464SOL    HW173231  11.554  10.487   2.886
90464SOL    HW273232  11.413  10.500   2.833
90465SOL     OW73233  11.088   1.985  12.739
90465SOL    HW173234  11.050   1.996  12.826
90465SOL    HW273235  11.164   1.928  12.753
90466SOL     OW73236  12.691  13.639   1.685
90466SOL    HW173237  12.756  13.626   1.616
90466SOL    HW273238  12.725  13.712   1.737
90467SOL     OW73239   2.613   6.648  10.259
90467SOL    HW173240   2.669   6.622  10.332
90467SOL    HW273241   2.627   6.742  10.250
90468SOL     OW73242  11.218   4.705   4.686
90468SOL    HW173243  11.187   4.795   4.678
90468SOL    HW273244  11.208   4.684   4.779
90469SOL     OW73245   3.310   2.004   8.968
90469SOL    HW173246   3.246   2.039   8.907
90469SOL    HW273247   3.386   2.062   8.959
90470SOL     OW73248  13.225   6.542  13.891
90470SOL    HW173249  13.194   6.476  13.953
90470SOL    HW273250  13.154   6.606  13.888
90471SOL     OW73251   6.111  14.534   5.563
90471SOL    HW173252   6.063  14.497   5.637
90471SOL    HW273253   6.043  14.569   5.505
90472SOL     OW73254   2.356   8.661   7.247
90472SOL    HW173255   2.342   8.753   7.225
90472SOL    HW273256   2.402   8.624   7.172
90473SOL     OW73257   5.956  14.823   6.637
90473SOL    HW173258   5.983   0.033   6.630
90473SOL    HW273259   6.017  14.776   6.580
90474SOL     OW73260   3.288   9.338   7.601
90474SOL    HW173261   3.316   9.392   7.527
90474SOL    HW273262   3.208   9.295   7.571
90475SOL     OW73263   6.797   6.601   2.254
90475SOL    HW173264   6.780   6.607   2.347
90475SOL    HW273265   6.885   6.563   2.248
90476SOL     OW73266   6.429   9.596   5.238
90476SOL    HW173267   6.469   9.516   5.272
90476SOL    HW273268   6.500   9.640   5.191
90477SOL     OW73269  13.419   3.359   3.073
90477SOL    HW173270  13.442   3.359   3.166
90477SOL    HW273271  13.324   3.345   3.072
90478SOL     OW73272   8.555   2.599   7.297
90478SOL    HW173273   8.603   2.535   7.246
90478SOL    HW273274   8.464   2.588   7.271
90479SOL     OW73275   5.168  11.217  12.390
90479SOL    HW173276   5.230  11.178  12.329
90479SOL    HW273277   5.211  11.210  12.476
90480SOL     OW73278   7.379   4.094   2.159
90480SOL    HW173279   7.379   4.051   2.073
90480SOL    HW273280   7.425   4.176   2.144
90481SOL     OW73281   1.874  13.769   9.617
90481SOL    HW173282   1.801  13.810   9.663
90481SOL    HW273283   1.951  13.791   9.670
90482SOL     OW73284   3.032  14.642   1.162
90482SOL    HW173285   2.956  14.590   1.190
90482SOL    HW273286   3.091  14.579   1.122
90483SOL     OW73287   9.077  12.502  10.272
90483SOL    HW173288   9.030  12.586  10.268
90483SOL    HW273289   9.034  12.448  10.206
90484SOL     OW73290   6.019  13.339  10.747
90484SOL    HW173291   6.053  13.249  10.753
90484SOL    HW273292   5.928  13.331  10.777
90485SOL     OW73293   8.915   5.449  12.631
90485SOL    HW173294   8.829   5.472  12.667
90485SOL    HW273295   8.936   5.520  12.571
90486SOL     OW73296  14.461   0.851   5.232
90486SOL    HW173297  14.551   0.873   5.208
90486SOL    HW273298  14.464   0.757   5.252
90487SOL     OW73299   0.799   9.043   1.167
90487SOL    HW173300   0.866   8.994   1.119
90487SOL    HW273301   0.721   8.988   1.160
90488SOL     OW73302   3.352   1.142   5.466
90488SOL    HW173303   3.437   1.099   5.467
90488SOL    HW273304   3.290   1.076   5.497
90489SOL     OW73305   3.418   9.231   4.896
90489SOL    HW173306   3.346   9.263   4.840
90489SOL    HW273307   3.497   9.259   4.851
90490SOL     OW73308   9.905   4.278   3.843
90490SOL    HW173309   9.895   4.232   3.759
90490SOL    HW273310   9.851   4.229   3.904
90491SOL     OW73311   1.368  13.683  13.473
90491SOL    HW173312   1.424  13.740  13.420
90491SOL    HW273313   1.419  13.665  13.552
90492SOL     OW73314   7.586  12.087  13.229
90492SOL    HW173315   7.638  12.017  13.268
90492SOL    HW273316   7.545  12.131  13.304
90493SOL     OW73317   6.190   6.698  10.700
90493SOL    HW173318   6.190   6.615  10.652
90493SOL    HW273319   6.185   6.672  10.792
90494SOL     OW73320  12.691   9.929   0.717
90494SOL    HW173321  12.703  10.012   0.764
90494SOL    HW273322  12.597   9.916   0.714
90495SOL     OW73323   1.578  12.050   8.391
90495SOL    HW173324   1.534  11.997   8.325
90495SOL    HW273325   1.507  12.089   8.442
90496SOL     OW73326   7.399   5.187   6.647
90496SOL    HW173327   7.340   5.130   6.696
90496SOL    HW273328   7.473   5.201   6.705
90497SOL     OW73329   1.971  14.109   0.696
90497SOL    HW173330   1.884  14.144   0.711
90497SOL    HW273331   2.025  14.186   0.677
90498SOL     OW73332   0.203  12.863   1.068
90498SOL    HW173333   0.120  12.815   1.075
90498SOL    HW273334   0.270  12.798   1.087
90499SOL     OW73335  14.048  11.113  10.225
90499SOL    HW173336  14.046  11.174  10.299
90499SOL    HW273337  14.123  11.141  10.173
90500SOL     OW73338  14.493   1.475  12.745
90500SOL    HW173339  14.512   1.414  12.673
90500SOL    HW273340  14.415   1.523  12.716
90501SOL     OW73341   2.655   1.996  12.933
90501SOL    HW173342   2.641   2.062  13.002
90501SOL    HW273343   2.720   1.936  12.970
90502SOL     OW73344   6.200   4.431   2.839
90502SOL    HW173345   6.220   4.413   2.931
90502SOL    HW273346   6.249   4.365   2.791
90503SOL     OW73347   3.874  13.589  14.598
90503SOL    HW173348   3.792  13.633  14.621
90503SOL    HW273349   3.892  13.531  14.672
90504SOL     OW73350  10.016   3.971   6.217
90504SOL    HW173351   9.992   4.038   6.282
90504SOL    HW273352  10.081   4.013   6.162
90505SOL     OW73353   6.443  13.847   8.918
90505SOL    HW173354   6.373  13.905   8.950
90505SOL    HW273355   6.406  13.807   8.839
90506SOL     OW73356   2.018   1.169   8.585
90506SOL    HW173357   1.993   1.239   8.644
90506SOL    HW273358   2.006   1.089   8.636
90507SOL     OW73359   9.608   0.529   1.365
90507SOL    HW173360   9.670   0.508   1.295
90507SOL    HW273361   9.642   0.610   1.403
90508SOL     OW73362   7.788   7.044  10.064
90508SOL    HW173363   7.759   6.991   9.990
90508SOL    HW273364   7.736   7.012  10.138
90509SOL     OW73365   0.223   7.676  12.185
90509SOL    HW173366   0.252   7.753  12.235
90509SOL    HW273367   0.237   7.602  12.245
90510SOL     OW73368   8.731   5.206  11.097
90510SOL    HW173369   8.766   5.174  11.181
90510SOL    HW273370   8.734   5.129  11.040
90511SOL     OW73371   8.707  10.221  14.195
90511SOL    HW173372   8.654  10.263  14.262
90511SOL    HW273373   8.783  10.278  14.185
90512SOL     OW73374   7.633   5.855  13.833
90512SOL    HW173375   7.650   5.761  13.832
90512SOL    HW273376   7.550   5.865  13.786
90513SOL     OW73377   4.986  14.628  10.753
90513SOL    HW173378   4.977  14.560  10.686
90513SOL    HW273379   5.064  14.603  10.802
90514SOL     OW73380  10.791  10.569  11.370
90514SOL    HW173381  10.884  10.594  11.374
90514SOL    HW273382  10.755  10.620  11.298
90515SOL     OW73383  10.793   5.171   2.356
90515SOL    HW173384  10.834   5.218   2.428
90515SOL    HW273385  10.865   5.127   2.311
90516SOL     OW73386   9.700   1.801  12.681
90516SOL    HW173387   9.634   1.743  12.642
90516SOL    HW273388   9.773   1.743  12.702
90517SOL     OW73389   1.913   3.292  11.139
90517SOL    HW173390   1.936   3.212  11.093
90517SOL    HW273391   1.923   3.271  11.232
90518SOL     OW73392  13.101   1.148  11.103
90518SOL    HW173393  13.073   1.171  11.015
90518SOL    HW273394  13.032   1.091  11.137
90519SOL     OW73395   0.448   1.810   0.621
90519SOL    HW173396   0.480   1.762   0.698
90519SOL    HW273397   0.487   1.897   0.628
90520SOL     OW73398  10.916  10.210   6.867
90520SOL    HW173399  10.837  10.263   6.869
90520SOL    HW273400  10.943  10.210   6.775
90521SOL     OW73401   1.729   1.934   7.306
90521SOL    HW173402   1.806   1.982   7.337
90521SOL    HW273403   1.719   1.861   7.369
90522SOL     OW73404   2.194  14.181   6.662
90522SOL    HW173405   2.114  14.166   6.712
90522SOL    HW273406   2.261  14.201   6.727
90523SOL     OW73407  11.176   5.869   2.487
90523SOL    HW173408  11.221   5.948   2.519
90523SOL    HW273409  11.133   5.833   2.564
90524SOL     OW73410   2.438  14.055  13.902
90524SOL    HW173411   2.420  14.053  13.808
90524SOL    HW273412   2.506  13.988  13.914
90525SOL     OW73413   0.854   0.471   5.333
90525SOL    HW173414   0.824   0.423   5.256
90525SOL    HW273415   0.912   0.539   5.298
90526SOL     OW73416  12.663   0.409   4.721
90526SOL    HW173417  12.736   0.412   4.660
90526SOL    HW273418  12.616   0.490   4.706
90527SOL     OW73419  11.676   0.594   5.243
90527SOL    HW173420  11.756   0.638   5.272
90527SOL    HW273421  11.649   0.641   5.165
90528SOL     OW73422   9.980  11.826  10.854
90528SOL    HW173423   9.988  11.752  10.915
90528SOL    HW273424   9.991  11.786  10.767
90529SOL     OW73425   0.173   4.932   7.673
90529SOL    HW173426   0.182   5.016   7.627
90529SOL    HW273427   0.240   4.935   7.741
90530SOL     OW73428  13.578  10.115   1.924
90530SOL    HW173429  13.660  10.129   1.972
90530SOL    HW273430  13.549  10.203   1.900
90531SOL     OW73431   2.501   3.800   8.906
90531SOL    HW173432   2.414   3.777   8.938
90531SOL    HW273433   2.539   3.854   8.975
90532SOL     OW73434  14.032   0.432  12.912
90532SOL    HW173435  14.037   0.372  12.987
90532SOL    HW273436  14.119   0.472  12.908
90533SOL     OW73437  10.747   8.010  14.547
90533SOL    HW173438  10.818   7.979  14.491
90533SOL    HW273439  10.769   8.102  14.565
90534SOL     OW73440   4.393   3.290   7.279
90534SOL    HW173441   4.323   3.341   7.319
90534SOL    HW273442   4.473   3.338   7.302
90535SOL     OW73443   9.885   5.393  12.265
90535SOL    HW173444   9.873   5.474  12.315
90535SOL    HW273445   9.837   5.409  12.183
90536SOL     OW73446   4.298  10.529   2.758
90536SOL    HW173447   4.227  10.486   2.711
90536SOL    HW273448   4.377  10.497   2.716
90537SOL     OW73449  10.077   8.899   5.406
90537SOL    HW173450  10.155   8.950   5.429
90537SOL    HW273451  10.036   8.878   5.490
90538SOL     OW73452  14.553  12.579   9.132
90538SOL    HW173453  14.529  12.602   9.222
90538SOL    HW273454  14.630  12.633   9.113
90539SOL     OW73455   4.072   1.751   0.596
90539SOL    HW173456   4.111   1.811   0.659
90539SOL    HW273457   4.099   1.664   0.626
90540SOL     OW73458  12.759   1.472   8.783
90540SOL    HW173459  12.760   1.467   8.687
90540SOL    HW273460  12.760   1.380   8.811
90541SOL     OW73461  12.221   0.079   0.831
90541SOL    HW173462  12.258   0.124   0.755
90541SOL    HW273463  12.265  14.876   0.832
90542SOL     OW73464   5.244  10.168   5.518
90542SOL    HW173465   5.302  10.092   5.529
90542SOL    HW273466   5.231  10.174   5.424
90543SOL     OW73467   7.219   2.949   6.887
90543SOL    HW173468   7.288   2.882   6.893
90543SOL    HW273469   7.203   2.975   6.978
90544SOL     OW73470  11.898  12.574   8.953
90544SOL    HW173471  11.831  12.518   8.994
90544SOL    HW273472  11.920  12.528   8.872
90545SOL     OW73473  14.068   5.297   6.731
90545SOL    HW173474  14.105   5.273   6.816
90545SOL    HW273475  14.139   5.278   6.669
90546SOL     OW73476  14.126   3.830  12.738
90546SOL    HW173477  14.094   3.786  12.817
90546SOL    HW273478  14.221   3.825  12.745
90547SOL     OW73479   1.008  10.129   1.153
90547SOL    HW173480   1.040  10.168   1.234
90547SOL    HW273481   0.914  10.146   1.154
90548SOL     OW73482   2.898  10.487   3.699
90548SOL    HW173483   2.902  10.531   3.613
90548SOL    HW273484   2.956  10.411   3.689
90549SOL     OW73485   7.350   7.901   2.806
90549SOL    HW173486   7.277   7.893   2.867
90549SOL    HW273487   7.411   7.831   2.831
90550SOL     OW73488  11.026  12.066  13.122
90550SOL    HW173489  11.024  12.035  13.213
90550SOL    HW273490  10.966  12.007  13.076
90551SOL     OW73491  10.152   5.311   0.700
90551SOL    HW173492  10.188   5.269   0.778
90551SOL    HW273493  10.146   5.404   0.723
90552SOL     OW73494   4.372   9.538   6.832
90552SOL    HW173495   4.281   9.512   6.818
90552SOL    HW273496   4.368   9.634   6.842
90553SOL     OW73497   0.282   0.687   2.248
90553SOL    HW173498   0.284   0.650   2.159
90553SOL    HW273499   0.253   0.615   2.304
90554SOL     OW73500  11.473   5.808   0.711
90554SOL    HW173501  11.393   5.861   0.717
90554SOL    HW273502  11.462   5.758   0.630
90555SOL     OW73503   2.549   5.094   0.209
90555SOL    HW173504   2.616   5.104   0.142
90555SOL    HW273505   2.570   5.012   0.254
90556SOL     OW73506   0.502   4.041   6.686
90556SOL    HW173507   0.549   3.982   6.745
90556SOL    HW273508   0.438   4.085   6.743
90557SOL     OW73509   3.105   6.415   3.352
90557SOL    HW173510   3.120   6.490   3.410
90557SOL    HW273511   3.178   6.356   3.370
90558SOL     OW73512  13.606   5.752  10.430
90558SOL    HW173513  13.602   5.675  10.487
90558SOL    HW273514  13.514   5.775  10.417
90559SOL     OW73515  12.938  12.848   3.242
90559SOL    HW173516  12.983  12.929   3.267
90559SOL    HW273517  13.006  12.781   3.247
90560SOL     OW73518   0.442   8.729   7.560
90560SOL    HW173519   0.361   8.779   7.557
90560SOL    HW273520   0.468   8.730   7.652
90561SOL     OW73521   9.677  12.920   1.088
90561SOL    HW173522   9.602  12.883   1.041
90561SOL    HW273523   9.657  12.907   1.180
90562SOL     OW73524   6.158   3.840   4.790
90562SOL    HW173525   6.246   3.876   4.775
90562SOL    HW273526   6.099   3.907   4.754
90563SOL     OW73527   2.914   2.641  13.780
90563SOL    HW173528   2.971   2.564  13.771
90563SOL    HW273529   2.961   2.697  13.842
90564SOL     OW73530  11.272   9.112  11.695
90564SOL    HW173531  11.182   9.095  11.719
90564SOL    HW273532  11.321   9.108  11.777
90565SOL     OW73533  10.785   7.667  14.587
90565SOL    HW173534  10.787   7.763  14.587
90565SOL    HW273535  10.715   7.645  14.526
90566SOL     OW73536   0.476   0.143   3.941
90566SOL    HW173537   0.393   0.168   3.899
90566SOL    HW273538   0.517   0.226   3.964
90567SOL     OW73539  11.385   4.579   3.535
90567SOL    HW173540  11.428   4.598   3.452
90567SOL    HW273541  11.442   4.516   3.578
90568SOL     OW73542  12.460  11.902   2.371
90568SOL    HW173543  12.412  11.854   2.439
90568SOL    HW273544  12.403  11.977   2.352
90569SOL     OW73545   9.761   2.333  11.831
90569SOL    HW173546   9.696   2.374  11.889
90569SOL    HW273547   9.708   2.288  11.765
90570SOL     OW73548   9.174   6.765   2.682
90570SOL    HW173549   9.236   6.723   2.742
90570SOL    HW273550   9.216   6.760   2.596
90571SOL     OW73551  12.786   3.934   7.231
90571SOL    HW173552  12.782   4.010   7.174
90571SOL    HW273553  12.805   3.970   7.318
90572SOL     OW73554  14.571   7.663   2.720
90572SOL    HW173555  14.565   7.713   2.638
90572SOL    HW273556  14.489   7.613   2.724
90573SOL     OW73557   0.955   9.389   0.965
90573SOL    HW173558   0.961   9.483   0.979
90573SOL    HW273559   0.861   9.370   0.964
90574SOL     OW73560   1.762   7.253   5.809
90574SOL    HW173561   1.693   7.281   5.870
90574SOL    HW273562   1.744   7.160   5.795
90575SOL     OW73563   4.401   5.913   0.523
90575SOL    HW173564   4.350   5.835   0.543
90575SOL    HW273565   4.390   5.925   0.428
90576SOL     OW73566   5.605   4.065   4.878
90576SOL    HW173567   5.670   4.132   4.858
90576SOL    HW273568   5.642   4.018   4.953
90577SOL     OW73569   0.413   3.947   7.685
90577SOL    HW173570   0.344   3.974   7.746
90577SOL    HW273571   0.469   4.023   7.676
90578SOL     OW73572  12.741   7.975   6.128
90578SOL    HW173573  12.649   7.991   6.106
90578SOL    HW273574  12.761   7.890   6.088
90579SOL     OW73575  13.487   5.945  11.996
90579SOL    HW173576  13.552   6.014  11.998
90579SOL    HW273577  13.478   5.917  12.087
90580SOL     OW73578   8.654   0.504  13.270
90580SOL    HW173579   8.566   0.491  13.304
90580SOL    HW273580   8.702   0.426  13.297
90581SOL     OW73581   7.398   1.996   7.932
90581SOL    HW173582   7.445   2.059   7.987
90581SOL    HW273583   7.405   1.913   7.979
90582SOL     OW73584   8.726   5.519   0.535
90582SOL    HW173585   8.796   5.573   0.571
90582SOL    HW273586   8.763   5.430   0.534
90583SOL     OW73587  13.601  10.870   4.314
90583SOL    HW173588  13.687  10.829   4.304
90583SOL    HW273589  13.606  10.949   4.261
90584SOL     OW73590   9.843  14.739   1.733
90584SOL    HW173591   9.896  14.673   1.778
90584SOL    HW273592   9.904  14.809   1.712
90585SOL     OW73593   1.239  11.233  13.174
90585SOL    HW173594   1.272  11.159  13.225
90585SOL    HW273595   1.251  11.309  13.232
90586SOL     OW73596   5.482   8.956   8.294
90586SOL    HW173597   5.561   8.908   8.267
90586SOL    HW273598   5.504   8.993   8.379
90587SOL     OW73599  14.390   3.749   8.356
90587SOL    HW173600  14.300   3.756   8.389
90587SOL    HW273601  14.445   3.755   8.434
90588SOL     OW73602   7.852   5.390   4.694
90588SOL    HW173603   7.887   5.433   4.772
90588SOL    HW273604   7.929   5.370   4.642
90589SOL     OW73605  14.233   4.082   0.095
90589SOL    HW173606  14.253   4.166   0.137
90589SOL    HW273607  14.277   4.017   0.150
90590SOL     OW73608   0.547   2.649   9.492
90590SOL    HW173609   0.506   2.730   9.525
90590SOL    HW273610   0.473   2.589   9.479
90591SOL     OW73611   2.455   5.248   0.996
90591SOL    HW173612   2.447   5.239   1.091
90591SOL    HW273613   2.521   5.183   0.972
90592SOL     OW73614   8.027   2.907  11.499
90592SOL    HW173615   8.045   2.999  11.479
90592SOL    HW273616   8.022   2.864  11.414
90593SOL     OW73617  11.937  10.878  14.217
90593SOL    HW173618  11.930  10.782  14.219
90593SOL    HW273619  11.919  10.905  14.307
90594SOL     OW73620   3.381   6.796  13.767
90594SOL    HW173621   3.318   6.787  13.839
90594SOL    HW273622   3.410   6.887  13.771
90595SOL     OW73623   4.150   9.440   2.774
90595SOL    HW173624   4.214   9.391   2.826
90595SOL    HW273625   4.098   9.373   2.730
90596SOL     OW73626   9.679   7.797   4.392
90596SOL    HW173627   9.602   7.739   4.393
90596SOL    HW273628   9.717   7.789   4.479
90597SOL     OW73629   3.781   0.613   5.266
90597SOL    HW173630   3.713   0.551   5.240
90597SOL    HW273631   3.802   0.588   5.356
90598SOL     OW73632   8.795   8.870   9.579
90598SOL    HW173633   8.794   8.805   9.649
90598SOL    HW273634   8.877   8.918   9.591
90599SOL     OW73635   4.227   0.448  10.424
90599SOL    HW173636   4.231   0.507  10.499
90599SOL    HW273637   4.314   0.452  10.386
90600SOL     OW73638   6.246   3.178  10.238
90600SOL    HW173639   6.248   3.154  10.146
90600SOL    HW273640   6.328   3.145  10.274
90601SOL     OW73641   7.850   0.679  10.152
90601SOL    HW173642   7.821   0.602  10.103
90601SOL    HW273643   7.836   0.752  10.091
90602SOL     OW73644   6.901  12.210   2.371
90602SOL    HW173645   6.960  12.212   2.446
90602SOL    HW273646   6.883  12.116   2.358
90603SOL     OW73647  13.940  14.837   0.009
90603SOL    HW173648  13.946  14.788  14.809
90603SOL    HW273649  14.010  14.801   0.064
90604SOL     OW73650  11.033   6.326  13.578
90604SOL    HW173651  11.052   6.237  13.608
90604SOL    HW273652  11.108   6.378  13.608
90605SOL     OW73653  11.025   7.815   3.273
90605SOL    HW173654  10.957   7.793   3.210
90605SOL    HW273655  11.095   7.752   3.257
90606SOL     OW73656   6.098  11.187   1.311
90606SOL    HW173657   6.189  11.159   1.299
90606SOL    HW273658   6.103  11.255   1.379
90607SOL     OW73659  12.331   0.217   0.636
90607SOL    HW173660  12.397   0.275   0.673
90607SOL    HW273661  12.297   0.265   0.560
90608SOL     OW73662   0.702  13.585   0.171
90608SOL    HW173663   0.665  13.498   0.185
90608SOL    HW273664   0.737  13.583   0.082
90609SOL     OW73665   3.357   2.521  10.918
90609SOL    HW173666   3.440   2.551  10.882
90609SOL    HW273667   3.339   2.440  10.872
90610SOL     OW73668   0.762   1.155   5.565
90610SOL    HW173669   0.688   1.185   5.618
90610SOL    HW273670   0.746   1.061   5.554
90611SOL     OW73671  13.172  14.619  14.189
90611SOL    HW173672  13.121  14.544  14.160
90611SOL    HW273673  13.215  14.651  14.110
90612SOL     OW73674  13.561   5.416  10.622
90612SOL    HW173675  13.605   5.382  10.699
90612SOL    HW273676  13.613   5.385  10.548
90613SOL     OW73677  10.932  14.344  10.781
90613SOL    HW173678  10.932  14.261  10.733
90613SOL    HW273679  10.841  14.374  10.776
90614SOL     OW73680   6.682   7.506  12.347
90614SOL    HW173681   6.654   7.519  12.257
90614SOL    HW273682   6.751   7.571  12.360
90615SOL     OW73683   3.478   6.622   4.943
90615SOL    HW173684   3.405   6.577   4.901
90615SOL    HW273685   3.538   6.643   4.872
90616SOL     OW73686  14.463   2.319   0.710
90616SOL    HW173687  14.459   2.379   0.635
90616SOL    HW273688  14.471   2.377   0.786
90617SOL     OW73689   0.999   5.946  14.027
90617SOL    HW173690   0.947   5.976  13.952
90617SOL    HW273691   1.089   5.952  13.997
90618SOL     OW73692  12.753   2.990   1.495
90618SOL    HW173693  12.830   2.995   1.551
90618SOL    HW273694  12.785   3.010   1.408
90619SOL     OW73695   9.753   5.591  10.811
90619SOL    HW173696   9.824   5.651  10.792
90619SOL    HW273697   9.733   5.549  10.727
90620SOL     OW73698   0.477   2.254   8.097
90620SOL    HW173699   0.384   2.253   8.074
90620SOL    HW273700   0.482   2.208   8.180
90621SOL     OW73701   5.491   9.699  12.314
90621SOL    HW173702   5.465   9.782  12.274
90621SOL    HW273703   5.423   9.637  12.286
90622SOL     OW73704   4.830   6.464   0.418
90622SOL    HW173705   4.840   6.557   0.438
90622SOL    HW273706   4.913   6.425   0.445
90623SOL     OW73707   1.209   5.478   3.275
90623SOL    HW173708   1.220   5.391   3.237
90623SOL    HW273709   1.114   5.490   3.279
90624SOL     OW73710   8.597   3.239  13.038
90624SOL    HW173711   8.612   3.325  13.078
90624SOL    HW273712   8.547   3.257  12.959
90625SOL     OW73713   4.852  14.196  12.303
90625SOL    HW173714   4.849  14.103  12.324
90625SOL    HW273715   4.873  14.198  12.209
90626SOL     OW73716   1.834  11.738   5.355
90626SOL    HW173717   1.862  11.829   5.367
90626SOL    HW273718   1.865  11.693   5.434
90627SOL     OW73719  12.917   2.776   9.278
90627SOL    HW173720  12.979   2.727   9.224
90627SOL    HW273721  12.867   2.828   9.216
90628SOL     OW73722   0.112   8.916  12.890
90628SOL    HW173723   0.138   8.953  12.806
90628SOL    HW273724   0.165   8.836  12.897
90629SOL     OW73725  10.976   6.422   7.833
90629SOL    HW173726  10.994   6.339   7.878
90629SOL    HW273727  10.987   6.489   7.901
90630SOL     OW73728   1.079   7.428  10.353
90630SOL    HW173729   1.161   7.452  10.311
90630SOL    HW273730   1.016   7.418  10.281
90631SOL     OW73731   0.669   6.240   3.654
90631SOL    HW173732   0.696   6.323   3.694
90631SOL    HW273733   0.573   6.246   3.649
90632SOL     OW73734  14.642   5.029   1.155
90632SOL    HW173735  14.634   4.942   1.196
90632SOL    HW273736  14.590   5.022   1.074
90633SOL     OW73737   3.694   0.079  11.106
90633SOL    HW173738   3.751   0.135  11.052
90633SOL    HW273739   3.714  14.872  11.077
90634SOL     OW73740   3.979   2.396  13.094
90634SOL    HW173741   4.021   2.458  13.155
90634SOL    HW273742   3.950   2.451  13.021
90635SOL     OW73743  12.095  14.545   0.547
90635SOL    HW173744  12.040  14.623   0.547
90635SOL    HW273745  12.126  14.537   0.637
90636SOL     OW73746   6.847   1.879   9.961
90636SOL    HW173747   6.823   1.791   9.990
90636SOL    HW273748   6.926   1.900  10.010
90637SOL     OW73749   8.062   5.894  12.321
90637SOL    HW173750   8.011   5.927  12.247
90637SOL    HW273751   8.097   5.810  12.290
90638SOL     OW73752   5.868  11.639  14.218
90638SOL    HW173753   5.827  11.602  14.140
90638SOL    HW273754   5.912  11.565  14.260
90639SOL     OW73755   8.922  12.354   6.767
90639SOL    HW173756   8.978  12.307   6.706
90639SOL    HW273757   8.982  12.397   6.827
90640SOL     OW73758   5.103  12.073  12.526
90640SOL    HW173759   5.122  12.043  12.438
90640SOL    HW273760   5.084  12.166  12.517
90641SOL     OW73761   0.915   1.890  11.279
90641SOL    HW173762   0.898   1.945  11.202
90641SOL    HW273763   0.833   1.894  11.329
90642SOL     OW73764   1.758  13.117  11.128
90642SOL    HW173765   1.731  13.063  11.203
90642SOL    HW273766   1.678  13.129  11.077
90643SOL     OW73767  12.190   8.812   9.113
90643SOL    HW173768  12.173   8.719   9.133
90643SOL    HW273769  12.134   8.831   9.038
90644SOL     OW73770   4.440   2.673   9.775
90644SOL    HW173771   4.458   2.614   9.848
90644SOL    HW273772   4.453   2.619   9.697
90645SOL     OW73773   1.283  11.416   6.467
90645SOL    HW173774   1.245  11.454   6.388
90645SOL    HW273775   1.236  11.458   6.539
90646SOL     OW73776  10.197   3.910  11.568
90646SOL    HW173777  10.291   3.921  11.554
90646SOL    HW273778  10.164   3.876  11.485
90647SOL     OW73779   9.912   9.645  10.745
90647SOL    HW173780   9.843   9.644  10.679
90647SOL    HW273781   9.936   9.553  10.756
90648SOL     OW73782   8.547   5.033   2.103
90648SOL    HW173783   8.579   4.943   2.098
90648SOL    HW273784   8.626   5.085   2.123
90649SOL     OW73785   5.357  13.936   7.886
90649SOL    HW173786   5.331  13.912   7.975
90649SOL    HW273787   5.429  13.877   7.866
90650SOL     OW73788   0.296  12.130   9.353
90650SOL    HW173789   0.332  12.094   9.434
90650SOL    HW273790   0.326  12.221   9.352
90651SOL     OW73791   2.890   2.664  14.217
90651SOL    HW173792   2.936   2.744  14.192
90651SOL    HW273793   2.807   2.694  14.253
90652SOL     OW73794  11.872  10.032   4.682
90652SOL    HW173795  11.925  10.006   4.757
90652SOL    HW273796  11.935  10.048   4.612
90653SOL     OW73797  11.884   1.603   7.290
90653SOL    HW173798  11.807   1.547   7.293
90653SOL    HW273799  11.958   1.542   7.291
90654SOL     OW73800   2.736  14.324   5.615
90654SOL    HW173801   2.648  14.353   5.641
90654SOL    HW273802   2.720  14.257   5.549
90655SOL     OW73803  10.055  11.489  11.692
90655SOL    HW173804  10.127  11.464  11.636
90655SOL    HW273805  10.075  11.449  11.777
90656SOL     OW73806  11.077   0.529   1.111
90656SOL    HW173807  11.142   0.460   1.130
90656SOL    HW273808  11.089   0.592   1.182
90657SOL     OW73809   0.664   0.701   1.022
90657SOL    HW173810   0.587   0.699   0.964
90657SOL    HW273811   0.737   0.678   0.965
90658SOL     OW73812  11.058   8.652   2.402
90658SOL    HW173813  11.115   8.683   2.472
90658SOL    HW273814  11.004   8.728   2.380
90659SOL     OW73815   7.980   0.456   7.945
90659SOL    HW173816   7.936   0.541   7.956
90659SOL    HW273817   8.073   0.478   7.938
90660SOL     OW73818   9.502  11.183   2.666
90660SOL    HW173819   9.434  11.235   2.623
90660SOL    HW273820   9.527  11.118   2.600
90661SOL     OW73821   5.417  14.747  10.092
90661SOL    HW173822   5.475  14.733  10.017
90661SOL    HW273823   5.464  14.710  10.167
90662SOL     OW73824   0.236   8.333   4.325
90662SOL    HW173825   0.197   8.288   4.250
90662SOL    HW273826   0.292   8.267   4.367
90663SOL     OW73827   6.843   2.982   8.691
90663SOL    HW173828   6.862   2.891   8.715
90663SOL    HW273829   6.899   2.999   8.616
90664SOL     OW73830   5.748  13.992   6.973
90664SOL    HW173831   5.750  14.086   6.955
90664SOL    HW273832   5.679  13.981   7.038
90665SOL     OW73833   9.410   7.417  10.840
90665SOL    HW173834   9.405   7.371  10.924
90665SOL    HW273835   9.391   7.508  10.861
90666SOL     OW73836   8.064   1.120   8.277
90666SOL    HW173837   8.138   1.167   8.315
90666SOL    HW273838   8.101   1.037   8.248
90667SOL     OW73839   0.417  13.351  10.160
90667SOL    HW173840   0.494  13.296  10.147
90667SOL    HW273841   0.408  13.399  10.077
90668SOL     OW73842   1.444  14.874  11.049
90668SOL    HW173843   1.459   0.081  11.017
90668SOL    HW273844   1.532  14.839  11.063
90669SOL     OW73845   8.746   3.617  11.632
90669SOL    HW173846   8.746   3.683  11.562
90669SOL    HW273847   8.838   3.604  11.653
90670SOL     OW73848   7.691  13.610   4.180
90670SOL    HW173849   7.724  13.598   4.091
90670SOL    HW273850   7.748  13.677   4.218
90671SOL     OW73851  11.182   7.940   2.472
90671SOL    HW173852  11.191   8.018   2.417
90671SOL    HW273853  11.120   7.966   2.540
90672SOL     OW73854   8.892   3.628   0.445
90672SOL    HW173855   8.903   3.584   0.530
90672SOL    HW273856   8.816   3.586   0.406
90673SOL     OW73857   5.600  13.063   8.595
90673SOL    HW173858   5.530  12.997   8.603
90673SOL    HW273859   5.610  13.097   8.684
90674SOL     OW73860  10.922   5.454  10.621
90674SOL    HW173861  11.002   5.495  10.654
90674SOL    HW273862  10.913   5.374  10.672
90675SOL     OW73863   6.969   8.518  13.898
90675SOL    HW173864   6.904   8.500  13.966
90675SOL    HW273865   7.001   8.606  13.917
90676SOL     OW73866   1.428  10.534   9.163
90676SOL    HW173867   1.353  10.474   9.154
90676SOL    HW273868   1.489  10.505   9.095
90677SOL     OW73869   6.253   7.793   4.757
90677SOL    HW173870   6.325   7.815   4.816
90677SOL    HW273871   6.277   7.835   4.674
90678SOL     OW73872  13.270  12.386   6.707
90678SOL    HW173873  13.309  12.425   6.629
90678SOL    HW273874  13.178  12.411   6.703
90679SOL     OW73875  10.082  13.664   4.564
90679SOL    HW173876  10.124  13.739   4.607
90679SOL    HW273877  10.045  13.613   4.637
90680SOL     OW73878   7.333   4.138   2.517
90680SOL    HW173879   7.319   4.216   2.464
90680SOL    HW273880   7.361   4.071   2.455
90681SOL     OW73881  14.194   0.428  14.876
90681SOL    HW173882  14.179   0.399   0.084
90681SOL    HW273883  14.282   0.395  14.855
90682SOL     OW73884   2.494   3.503   4.755
90682SOL    HW173885   2.575   3.533   4.714
90682SOL    HW273886   2.483   3.413   4.725
90683SOL     OW73887   4.157   0.516   0.955
90683SOL    HW173888   4.215   0.554   0.890
90683SOL    HW273889   4.151   0.582   1.024
90684SOL     OW73890   1.461   1.464   4.157
90684SOL    HW173891   1.532   1.505   4.108
90684SOL    HW273892   1.384   1.517   4.137
90685SOL     OW73893   9.053  10.955   7.812
90685SOL    HW173894   9.070  11.049   7.804
90685SOL    HW273895   8.978  10.939   7.754
90686SOL     OW73896   9.697   9.994   8.188
90686SOL    HW173897   9.651   9.981   8.271
90686SOL    HW273898   9.750   9.915   8.176
90687SOL     OW73899  10.191  11.251  13.458
90687SOL    HW173900  10.176  11.168  13.503
90687SOL    HW273901  10.168  11.318  13.522
90688SOL     OW73902   9.659  10.150  12.282
90688SOL    HW173903   9.706  10.120  12.204
90688SOL    HW273904   9.604  10.222  12.251
90689SOL     OW73905  13.656   7.600  14.208
90689SOL    HW173906  13.661   7.693  14.188
90689SOL    HW273907  13.626   7.597  14.299
90690SOL     OW73908   8.475   3.392   3.459
90690SOL    HW173909   8.410   3.344   3.509
90690SOL    HW273910   8.477   3.350   3.373
90691SOL     OW73911   0.041   9.883   7.145
90691SOL    HW173912   0.091   9.951   7.192
90691SOL    HW273913   0.091   9.868   7.065
90692SOL     OW73914  14.726   8.320   9.988
90692SOL    HW173915  14.716   8.389   9.922
90692SOL    HW273916  14.664   8.343  10.056
90693SOL     OW73917  14.782  13.641  10.940
90693SOL    HW173918  14.858  13.592  10.906
90693SOL    HW273919  14.818  13.694  11.011
90694SOL     OW73920  12.917   5.753   4.367
90694SOL    HW173921  12.994   5.754   4.425
90694SOL    HW273922  12.955   5.749   4.279
90695SOL     OW73923   4.384  11.882   3.470
90695SOL    HW173924   4.350  11.866   3.558
90695SOL    HW273925   4.340  11.816   3.416
90696SOL     OW73926   4.094  13.603  11.667
90696SOL    HW173927   4.135  13.687  11.688
90696SOL    HW273928   4.089  13.558  11.751
90697SOL     OW73929  10.497   5.678   7.089
90697SOL    HW173930  10.513   5.698   7.181
90697SOL    HW273931  10.433   5.744   7.060
90698SOL     OW73932   9.801  10.677  11.328
90698SOL    HW173933   9.715  10.635  11.333
90698SOL    HW273934   9.844  10.653  11.410
90699SOL     OW73935   6.733   1.764  14.137
90699SOL    HW173936   6.785   1.802  14.066
90699SOL    HW273937   6.661   1.825  14.149
90700SOL     OW73938   6.724   1.507  12.002
90700SOL    HW173939   6.774   1.428  11.982
90700SOL    HW273940   6.649   1.477  12.053
90701SOL     OW73941   4.605   6.135   7.516
90701SOL    HW173942   4.553   6.070   7.469
90701SOL    HW273943   4.556   6.216   7.507
90702SOL     OW73944   2.371  14.777   5.425
90702SOL    HW173945   2.289  14.742   5.390
90702SOL    HW273946   2.405  14.833   5.355
90703SOL     OW73947  11.477   9.888  13.717
90703SOL    HW173948  11.544   9.956  13.718
90703SOL    HW273949  11.526   9.806  13.727
90704SOL     OW73950   5.263   1.287   2.487
90704SOL    HW173951   5.300   1.278   2.575
90704SOL    HW273952   5.314   1.225   2.434
90705SOL     OW73953   7.882   2.041   9.964
90705SOL    HW173954   7.965   1.996   9.981
90705SOL    HW273955   7.822   2.006  10.030
90706SOL     OW73956   4.457   2.087   0.950
90706SOL    HW173957   4.374   2.104   0.906
90706SOL    HW273958   4.483   2.172   0.986
90707SOL     OW73959   6.199  12.691  13.408
90707SOL    HW173960   6.191  12.622  13.474
90707SOL    HW273961   6.292  12.712  13.406
90708SOL     OW73962   4.017   7.989   4.099
90708SOL    HW173963   4.091   7.950   4.053
90708SOL    HW273964   4.056   8.057   4.154
90709SOL     OW73965  13.528   6.019   6.917
90709SOL    HW173966  13.476   6.025   6.997
90709SOL    HW273967  13.602   5.963   6.940
90710SOL     OW73968   8.065  12.754   7.972
90710SOL    HW173969   8.089  12.666   8.001
90710SOL    HW273970   7.974  12.764   8.000
90711SOL     OW73971  12.812  12.690   6.666
90711SOL    HW173972  12.814  12.746   6.588
90711SOL    HW273973  12.848  12.745   6.735
90712SOL     OW73974  13.106   8.915   9.939
90712SOL    HW173975  13.114   8.851   9.869
90712SOL    HW273976  13.194   8.948   9.953
90713SOL     OW73977   8.626   7.420   2.898
90713SOL    HW173978   8.714   7.447   2.925
90713SOL    HW273979   8.588   7.499   2.859
90714SOL     OW73980   3.200   0.600   5.231
90714SOL    HW173981   3.256   0.678   5.235
90714SOL    HW273982   3.196   0.569   5.322
90715SOL     OW73983   9.850   1.226  12.599
90715SOL    HW173984   9.835   1.317  12.576
90715SOL    HW273985   9.838   1.178  12.516
90716SOL     OW73986  13.422  14.144   3.595
90716SOL    HW173987  13.443  14.170   3.685
90716SOL    HW273988  13.350  14.202   3.570
90717SOL     OW73989   8.338  12.654  12.636
90717SOL    HW173990   8.373  12.670  12.548
90717SOL    HW273991   8.341  12.559  12.646
90718SOL     OW73992   0.830   3.438   3.903
90718SOL    HW173993   0.863   3.511   3.955
90718SOL    HW273994   0.899   3.421   3.839
90719SOL     OW73995   8.262   9.045  14.402
90719SOL    HW173996   8.219   9.087  14.327
90719SOL    HW273997   8.308   9.117  14.446
90720SOL     OW73998   0.068   4.324  14.439
90720SOL    HW173999   0.149   4.374  14.454
90720SOL    HW274000   0.006   4.390  14.407
90721SOL     OW74001   6.145   4.773   0.825
90721SOL    HW174002   6.124   4.836   0.894
90721SOL    HW274003   6.094   4.802   0.750
90722SOL     OW74004  12.073   5.502  12.770
90722SOL    HW174005  12.092   5.410  12.788
90722SOL    HW274006  11.982   5.502  12.740
90723SOL     OW74007   6.351   7.868   0.798
90723SOL    HW174008   6.278   7.930   0.797
90723SOL    HW274009   6.422   7.915   0.753
90724SOL     OW74010   1.112   0.473   3.759
90724SOL    HW174011   1.134   0.560   3.725
90724SOL    HW274012   1.080   0.424   3.683
90725SOL     OW74013   9.952   1.753   0.491
90725SOL    HW174014  10.003   1.765   0.411
90725SOL    HW274015  10.003   1.691   0.543
90726SOL     OW74016   0.332   9.377   3.595
90726SOL    HW174017   0.252   9.407   3.551
90726SOL    HW274018   0.302   9.332   3.673
90727SOL     OW74019  13.548  11.986  10.203
90727SOL    HW174020  13.634  12.027  10.201
90727SOL    HW274021  13.487  12.059  10.210
90728SOL     OW74022   6.603   9.372   5.967
90728SOL    HW174023   6.598   9.277   5.960
90728SOL    HW274024   6.621   9.388   6.060
90729SOL     OW74025   6.906   8.823  10.814
90729SOL    HW174026   6.954   8.894  10.857
90729SOL    HW274027   6.866   8.864  10.738
90730SOL     OW74028  11.919   3.201   6.174
90730SOL    HW174029  11.908   3.204   6.079
90730SOL    HW274030  11.949   3.112   6.192
90731SOL     OW74031   2.468   0.863   5.042
90731SOL    HW174032   2.465   0.939   4.984
90731SOL    HW274033   2.553   0.822   5.024
90732SOL     OW74034  13.672   5.398   6.473
90732SOL    HW174035  13.700   5.433   6.388
90732SOL    HW274036  13.746   5.413   6.531
90733SOL     OW74037  14.611   1.717   8.946
90733SOL    HW174038  14.550   1.678   9.008
90733SOL    HW274039  14.556   1.771   8.889
90734SOL     OW74040   5.210   3.397  12.436
90734SOL    HW174041   5.290   3.376  12.387
90734SOL    HW274042   5.238   3.401  12.527
90735SOL     OW74043  10.267   7.542   6.431
90735SOL    HW174044  10.298   7.452   6.419
90735SOL    HW274045  10.192   7.550   6.372
90736SOL     OW74046   5.284  14.229  12.189
90736SOL    HW174047   5.277  14.211  12.095
90736SOL    HW274048   5.203  14.195  12.227
90737SOL     OW74049   0.049   7.262   3.719
90737SOL    HW174050   0.118   7.266   3.785
90737SOL    HW274051   0.095   7.256   3.635
90738SOL     OW74052  11.755  11.407   7.427
90738SOL    HW174053  11.715  11.408   7.340
90738SOL    HW274054  11.842  11.369   7.413
90739SOL     OW74055   7.470  11.726  10.938
90739SOL    HW174056   7.401  11.660  10.926
90739SOL    HW274057   7.490  11.756  10.850
90740SOL     OW74058   3.171  14.155   7.737
90740SOL    HW174059   3.115  14.231   7.753
90740SOL    HW274060   3.253  14.192   7.706
90741SOL     OW74061   8.747  10.244  11.474
90741SOL    HW174062   8.677  10.180  11.487
90741SOL    HW274063   8.754  10.289  11.558
90742SOL     OW74064  10.029  11.268   9.550
90742SOL    HW174065  10.070  11.307   9.627
90742SOL    HW274066  10.013  11.177   9.575
90743SOL     OW74067   5.774   4.661   0.706
90743SOL    HW174068   5.839   4.719   0.668
90743SOL    HW274069   5.823   4.581   0.728
90744SOL     OW74070   1.780   3.563   9.577
90744SOL    HW174071   1.865   3.559   9.532
90744SOL    HW274072   1.719   3.591   9.510
90745SOL     OW74073  11.433   1.805   3.385
90745SOL    HW174074  11.501   1.826   3.321
90745SOL    HW274075  11.449   1.714   3.409
90746SOL     OW74076   7.285  14.636   3.743
90746SOL    HW174077   7.352  14.607   3.681
90746SOL    HW274078   7.304  14.588   3.824
90747SOL     OW74079  14.794   2.823   2.229
90747SOL    HW174080  14.830   2.745   2.185
90747SOL    HW274081  14.709   2.837   2.187
90748SOL     OW74082   5.849   5.159   3.124
90748SOL    HW174083   5.930   5.186   3.168
90748SOL    HW274084   5.877   5.138   3.034
90749SOL     OW74085   7.363  14.204   6.846
90749SOL    HW174086   7.377  14.277   6.786
90749SOL    HW274087   7.310  14.241   6.917
90750SOL     OW74088   0.153   2.841   5.666
90750SOL    HW174089   0.248   2.858   5.667
90750SOL    HW274090   0.142   2.767   5.726
90751SOL     OW74091   6.056   3.586   7.088
90751SOL    HW174092   6.003   3.507   7.075
90751SOL    HW274093   6.135   3.554   7.132
90752SOL     OW74094  12.462   1.166   0.863
90752SOL    HW174095  12.430   1.248   0.902
90752SOL    HW274096  12.427   1.097   0.919
90753SOL     OW74097  12.932  14.391   9.187
90753SOL    HW174098  12.940  14.435   9.102
90753SOL    HW274099  12.846  14.349   9.184
90754SOL     OW74100  12.682  13.468  14.140
90754SOL    HW174101  12.732  13.404  14.190
90754SOL    HW274102  12.689  13.549  14.191
90755SOL     OW74103   8.575  12.436  14.411
90755SOL    HW174104   8.626  12.510  14.443
90755SOL    HW274105   8.639  12.365  14.399
90756SOL     OW74106  10.729  12.166  10.919
90756SOL    HW174107  10.753  12.113  10.995
90756SOL    HW274108  10.747  12.110  10.844
90757SOL     OW74109  11.079  13.100   2.135
90757SOL    HW174110  11.146  13.069   2.196
90757SOL    HW274111  11.048  13.182   2.174
90758SOL     OW74112   9.409  12.444   6.003
90758SOL    HW174113   9.472  12.499   5.956
90758SOL    HW274114   9.324  12.472   5.971
90759SOL     OW74115  13.831   8.321  10.878
90759SOL    HW174116  13.874   8.365  10.951
90759SOL    HW274117  13.745   8.364  10.872
90760SOL     OW74118   7.020  14.828   6.647
90760SOL    HW174119   7.030  14.876   6.729
90760SOL    HW274120   6.925  14.819   6.635
90761SOL     OW74121  11.774   7.304  14.173
90761SOL    HW174122  11.758   7.396  14.152
90761SOL    HW274123  11.687   7.266  14.181
90762SOL     OW74124  10.320   5.358  11.851
90762SOL    HW174125  10.248   5.310  11.809
90762SOL    HW274126  10.390   5.293  11.858
90763SOL     OW74127   7.854   5.636   8.039
90763SOL    HW174128   7.904   5.561   8.008
90763SOL    HW274129   7.764   5.617   8.013
90764SOL     OW74130   0.459   9.986  14.629
90764SOL    HW174131   0.503   9.938  14.558
90764SOL    HW274132   0.493  10.075  14.622
90765SOL     OW74133   8.484   9.988  12.642
90765SOL    HW174134   8.491   9.981  12.546
90765SOL    HW274135   8.550  10.052  12.666
90766SOL     OW74136  11.633  14.170   6.455
90766SOL    HW174137  11.614  14.242   6.395
90766SOL    HW274138  11.576  14.099   6.426
90767SOL     OW74139   6.211   8.958   8.748
90767SOL    HW174140   6.294   8.995   8.718
90767SOL    HW274141   6.145   9.001   8.694
90768SOL     OW74142   6.140  11.850  14.566
90768SOL    HW174143   6.127  11.853  14.472
90768SOL    HW274144   6.233  11.830  14.576
90769SOL     OW74145   1.972   9.227   1.674
90769SOL    HW174146   2.021   9.220   1.756
90769SOL    HW274147   1.901   9.163   1.683
90770SOL     OW74148  11.274   1.571   4.577
90770SOL    HW174149  11.341   1.639   4.591
90770SOL    HW274150  11.209   1.587   4.645
90771SOL     OW74151   3.758  13.329   8.906
90771SOL    HW174152   3.787  13.283   8.827
90771SOL    HW274153   3.791  13.277   8.979
90772SOL     OW74154  12.389   0.758  12.031
90772SOL    HW174155  12.459   0.797  11.979
90772SOL    HW274156  12.313   0.757  11.973
90773SOL     OW74157  13.470  12.719   5.448
90773SOL    HW174158  13.425  12.771   5.381
90773SOL    HW274159  13.563  12.733   5.432
90774SOL     OW74160   7.675   0.592   8.533
90774SOL    HW174161   7.655   0.681   8.505
90774SOL    HW274162   7.648   0.589   8.625
90775SOL     OW74163   3.793   3.134  10.510
90775SOL    HW174164   3.872   3.125  10.565
90775SOL    HW274165   3.817   3.094  10.427
90776SOL     OW74166   4.531   3.835  10.391
90776SOL    HW174167   4.590   3.821  10.317
90776SOL    HW274168   4.578   3.801  10.467
90777SOL     OW74169   5.693   1.237   1.920
90777SOL    HW174170   5.749   1.169   1.882
90777SOL    HW274171   5.724   1.319   1.881
90778SOL     OW74172   4.499   1.525   2.441
90778SOL    HW174173   4.536   1.550   2.356
90778SOL    HW274174   4.530   1.593   2.501
90779SOL     OW74175   6.226   2.266  12.911
90779SOL    HW174176   6.316   2.283  12.938
90779SOL    HW274177   6.179   2.248  12.993
90780SOL     OW74178  10.686   2.307  10.192
90780SOL    HW174179  10.594   2.279  10.194
90780SOL    HW274180  10.714   2.290  10.102
90781SOL     OW74181   5.218   9.202   5.166
90781SOL    HW174182   5.199   9.124   5.217
90781SOL    HW274183   5.255   9.264   5.229
90782SOL     OW74184   6.247   5.314  14.243
90782SOL    HW174185   6.255   5.399  14.287
90782SOL    HW274186   6.258   5.249  14.313
90783SOL     OW74187   4.202   7.296   1.322
90783SOL    HW174188   4.271   7.257   1.375
90783SOL    HW274189   4.124   7.294   1.377
90784SOL     OW74190   5.645  13.048   2.688
90784SOL    HW174191   5.640  13.119   2.752
90784SOL    HW274192   5.632  13.091   2.604
90785SOL     OW74193  11.806   7.097   6.102
90785SOL    HW174194  11.782   7.106   6.194
90785SOL    HW274195  11.835   7.185   6.076
90786SOL     OW74196  11.698   8.961   5.208
90786SOL    HW174197  11.704   8.871   5.176
90786SOL    HW274198  11.697   8.952   5.303
90787SOL     OW74199   6.475  14.336  11.448
90787SOL    HW174200   6.495  14.245  11.471
90787SOL    HW274201   6.401  14.360  11.504
90788SOL     OW74202   1.674  11.431  10.181
90788SOL    HW174203   1.662  11.354  10.236
90788SOL    HW274204   1.768  11.433  10.163
90789SOL     OW74205   7.745   1.744  10.682
90789SOL    HW174206   7.735   1.811  10.749
90789SOL    HW274207   7.687   1.672  10.710
90790SOL     OW74208   5.273  13.161   4.286
90790SOL    HW174209   5.198  13.143   4.229
90790SOL    HW274210   5.316  13.076   4.297
90791SOL     OW74211   6.447   0.944  14.216
90791SOL    HW174212   6.527   0.898  14.190
90791SOL    HW274213   6.378   0.877  14.211
90792SOL     OW74214   3.907   5.629  10.631
90792SOL    HW174215   4.002   5.615  10.623
90792SOL    HW274216   3.894   5.720  10.605
90793SOL     OW74217  11.906  14.739   0.518
90793SOL    HW174218  11.892  14.704   0.429
90793SOL    HW274219  11.904  14.834   0.507
90794SOL     OW74220  13.454   7.354  13.036
90794SOL    HW174221  13.432   7.417  12.968
90794SOL    HW274222  13.457   7.406  13.117
90795SOL     OW74223   9.348   1.252   2.920
90795SOL    HW174224   9.337   1.158   2.935
90795SOL    HW274225   9.434   1.260   2.879
90796SOL     OW74226   3.147   7.703  12.454
90796SOL    HW174227   3.240   7.701  12.433
90796SOL    HW274228   3.139   7.648  12.532
90797SOL     OW74229  12.127   7.634   2.581
90797SOL    HW174230  12.148   7.629   2.675
90797SOL    HW274231  12.039   7.598   2.574
90798SOL     OW74232   8.219  12.827   4.556
90798SOL    HW174233   8.293  12.856   4.503
90798SOL    HW274234   8.217  12.888   4.629
90799SOL     OW74235   5.994   6.842   8.319
90799SOL    HW174236   5.965   6.921   8.274
90799SOL    HW274237   5.945   6.841   8.402
90800SOL     OW74238  13.262   0.903   5.413
90800SOL    HW174239  13.261   0.998   5.425
90800SOL    HW274240  13.182   0.885   5.363
90801SOL     OW74241  11.812   6.312  10.337
90801SOL    HW174242  11.897   6.281  10.369
90801SOL    HW274243  11.779   6.240  10.283
90802SOL     OW74244   8.088   7.878   4.519
90802SOL    HW174245   8.123   7.826   4.592
90802SOL    HW274246   8.066   7.813   4.452
90803SOL     OW74247   8.762   2.994   8.241
90803SOL    HW174248   8.668   3.010   8.244
90803SOL    HW274249   8.770   2.902   8.217
90804SOL     OW74250  14.460   6.913  12.655
90804SOL    HW174251  14.367   6.934  12.662
90804SOL    HW274252  14.488   6.894  12.745
90805SOL     OW74253   9.652  13.726  10.799
90805SOL    HW174254   9.742  13.739  10.768
90805SOL    HW274255   9.599  13.737  10.720
90806SOL     OW74256  13.166   7.282   9.250
90806SOL    HW174257  13.218   7.315   9.324
90806SOL    HW274258  13.076   7.280   9.283
90807SOL     OW74259   8.185  12.506   9.331
90807SOL    HW174260   8.241  12.569   9.376
90807SOL    HW274261   8.110  12.494   9.390
90808SOL     OW74262  12.740   8.684   2.996
90808SOL    HW174263  12.704   8.768   2.969
90808SOL    HW274264  12.684   8.656   3.068
90809SOL     OW74265   8.538   6.703  14.017
90809SOL    HW174266   8.450   6.726  14.047
90809SOL    HW274267   8.569   6.781  13.972
90810SOL     OW74268  14.691   7.623  13.011
90810SOL    HW174269  14.679   7.693  12.948
90810SOL    HW274270  14.721   7.548  12.959
90811SOL     OW74271   8.784   2.659  11.420
90811SOL    HW174272   8.818   2.733  11.370
90811SOL    HW274273   8.732   2.609  11.357
90812SOL     OW74274  13.348   7.935   0.953
90812SOL    HW174275  13.424   7.883   0.926
90812SOL    HW274276  13.385   8.002   1.011
90813SOL     OW74277   6.014  10.055  11.130
90813SOL    HW174278   6.030   9.971  11.087
90813SOL    HW274279   5.931  10.085  11.093
90814SOL     OW74280  14.864  10.739   9.022
90814SOL    HW174281  14.852  10.717   8.930
90814SOL    HW274282  14.843  10.833   9.026
90815SOL     OW74283   0.535  12.800   7.166
90815SOL    HW174284   0.590  12.875   7.141
90815SOL    HW274285   0.575  12.726   7.121
90816SOL     OW74286  11.386   6.265  14.038
90816SOL    HW174287  11.424   6.317  14.109
90816SOL    HW274288  11.457   6.207  14.011
90817SOL     OW74289   0.987   4.171  12.334
90817SOL    HW174290   0.984   4.198  12.426
90817SOL    HW274291   1.079   4.179  12.310
90818SOL     OW74292  10.630   9.901   0.923
90818SOL    HW174293  10.675   9.952   0.991
90818SOL    HW274294  10.624   9.961   0.848
90819SOL     OW74295   6.572  14.448   1.164
90819SOL    HW174296   6.478  14.442   1.147
90819SOL    HW274297   6.597  14.535   1.132
90820SOL     OW74298   0.193   8.503   0.673
90820SOL    HW174299   0.183   8.597   0.688
90820SOL    HW274300   0.273   8.495   0.622
90821SOL     OW74301  14.000   6.437   3.883
90821SOL    HW174302  14.050   6.430   3.802
90821SOL    HW274303  13.909   6.423   3.857
90822SOL     OW74304   6.659   3.195   1.458
90822SOL    HW174305   6.746   3.236   1.459
90822SOL    HW274306   6.659   3.138   1.535
90823SOL     OW74307   9.203   3.196   3.585
90823SOL    HW174308   9.185   3.239   3.501
90823SOL    HW274309   9.290   3.158   3.573
90824SOL     OW74310   7.744  11.426   3.393
90824SOL    HW174311   7.743  11.337   3.359
90824SOL    HW274312   7.836  11.442   3.415
90825SOL     OW74313  11.203  11.954   8.775
90825SOL    HW174314  11.171  11.870   8.807
90825SOL    HW274315  11.228  12.002   8.854
90826SOL     OW74316   5.148   4.196   0.520
90826SOL    HW174317   5.116   4.170   0.433
90826SOL    HW274318   5.132   4.120   0.575
90827SOL     OW74319   8.121  14.800  11.081
90827SOL    HW174320   8.118  14.826  10.989
90827SOL    HW274321   8.199  14.745  11.088
90828SOL     OW74322   8.019   6.084  14.276
90828SOL    HW174323   8.080   6.138  14.327
90828SOL    HW274324   8.018   6.124  14.189
90829SOL     OW74325  11.405   0.710   0.769
90829SOL    HW174326  11.468   0.744   0.705
90829SOL    HW274327  11.334   0.774   0.769
90830SOL     OW74328   2.639   3.559   4.417
90830SOL    HW174329   2.559   3.521   4.381
90830SOL    HW274330   2.681   3.602   4.342
90831SOL     OW74331   9.132  10.039   0.431
90831SOL    HW174332   9.080   9.973   0.386
90831SOL    HW274333   9.075  10.116   0.433
90832SOL     OW74334  13.302  10.409   7.584
90832SOL    HW174335  13.309  10.503   7.567
90832SOL    HW274336  13.339  10.368   7.506
90833SOL     OW74337   9.675  13.672   3.181
90833SOL    HW174338   9.615  13.730   3.134
90833SOL    HW274339   9.695  13.719   3.262
90834SOL     OW74340   3.044  14.392   8.419
90834SOL    HW174341   3.004  14.458   8.362
90834SOL    HW274342   2.992  14.396   8.499
90835SOL     OW74343  11.189   4.503  14.614
90835SOL    HW174344  11.129   4.483  14.542
90835SOL    HW274345  11.131   4.532  14.685
90836SOL     OW74346   9.609   2.380   5.446
90836SOL    HW174347   9.528   2.386   5.497
90836SOL    HW274348   9.581   2.344   5.362
90837SOL     OW74349  11.436   1.675  12.559
90837SOL    HW174350  11.373   1.733  12.600
90837SOL    HW274351  11.516   1.686  12.611
90838SOL     OW74352   1.572  11.030   8.561
90838SOL    HW174353   1.578  11.046   8.655
90838SOL    HW274354   1.570  10.935   8.553
90839SOL     OW74355   2.687  10.394   2.913
90839SOL    HW174356   2.687  10.303   2.941
90839SOL    HW274357   2.716  10.391   2.822
90840SOL     OW74358  12.806  12.273   8.610
90840SOL    HW174359  12.718  12.247   8.635
90840SOL    HW274360  12.854  12.278   8.692
90841SOL     OW74361   1.637  10.255   9.371
90841SOL    HW174362   1.731  10.236   9.365
90841SOL    HW274363   1.629  10.318   9.442
90842SOL     OW74364  12.984   6.530  10.278
90842SOL    HW174365  13.048   6.600  10.288
90842SOL    HW274366  12.935   6.529  10.360
90843SOL     OW74367   1.616   0.580  14.822
90843SOL    HW174368   1.638   0.614   0.027
90843SOL    HW274369   1.625   0.485  14.830
90844SOL     OW74370   8.066   9.214   4.018
90844SOL    HW174371   7.993   9.173   4.066
90844SOL    HW274372   8.115   9.261   4.085
90845SOL     OW74373  11.726   3.534  11.399
90845SOL    HW174374  11.785   3.486  11.340
90845SOL    HW274375  11.774   3.538  11.482
90846SOL     OW74376  12.439  14.740  10.408
90846SOL    HW174377  12.370  14.676  10.423
90846SOL    HW274378  12.397  14.825  10.420
90847SOL     OW74379   1.589   9.886   8.947
90847SOL    HW174380   1.599   9.981   8.948
90847SOL    HW274381   1.588   9.861   9.039
90848SOL     OW74382   7.961   9.926   8.873
90848SOL    HW174383   7.881   9.880   8.900
90848SOL    HW274384   7.959   9.923   8.778
90849SOL     OW74385   6.347   5.029   7.968
90849SOL    HW174386   6.359   4.934   7.967
90849SOL    HW274387   6.417   5.062   7.913
90850SOL     OW74388   4.046  11.526   9.409
90850SOL    HW174389   4.003  11.489   9.332
90850SOL    HW274390   4.046  11.621   9.394
90851SOL     OW74391   4.839   4.056  14.702
90851SOL    HW174392   4.935   4.058  14.695
90851SOL    HW274393   4.813   3.983  14.646
90852SOL     OW74394  14.807   2.240  10.071
90852SOL    HW174395   0.010   2.225  10.112
90852SOL    HW274396  14.828   2.271   9.983
90853SOL     OW74397  10.554  10.864  10.218
90853SOL    HW174398  10.469  10.838  10.184
90853SOL    HW274399  10.579  10.941  10.168
90854SOL     OW74400   7.282  12.040   1.920
90854SOL    HW174401   7.229  12.106   1.965
90854SOL    HW274402   7.367  12.081   1.907
90855SOL     OW74403  13.288  11.265   5.618
90855SOL    HW174404  13.296  11.192   5.680
90855SOL    HW274405  13.197  11.294   5.628
90856SOL     OW74406   4.726   2.903   2.586
90856SOL    HW174407   4.709   2.970   2.653
90856SOL    HW274408   4.768   2.952   2.515
90857SOL     OW74409   8.169   9.794   4.902
90857SOL    HW174410   8.219   9.786   4.820
90857SOL    HW274411   8.095   9.849   4.879
90858SOL     OW74412   1.748  12.133   8.620
90858SOL    HW174413   1.712  12.160   8.536
90858SOL    HW274414   1.767  12.040   8.610
90859SOL     OW74415   9.488  11.805   7.265
90859SOL    HW174416   9.436  11.880   7.237
90859SOL    HW274417   9.545  11.839   7.334
90860SOL     OW74418   8.595   4.958  12.408
90860SOL    HW174419   8.652   5.015  12.355
90860SOL    HW274420   8.526   5.017  12.439
90861SOL     OW74421  10.460  13.621   1.264
90861SOL    HW174422  10.521  13.687   1.298
90861SOL    HW274423  10.479  13.543   1.315
90862SOL     OW74424  13.636   5.989   1.811
90862SOL    HW174425  13.640   5.896   1.832
90862SOL    HW274426  13.542   6.009   1.806
90863SOL     OW74427   7.398  13.736  10.369
90863SOL    HW174428   7.339  13.776  10.434
90863SOL    HW274429   7.390  13.792  10.292
90864SOL     OW74430   2.544  11.932  10.004
90864SOL    HW174431   2.459  11.971   9.986
90864SOL    HW274432   2.571  11.970  10.087
90865SOL     OW74433   6.282  14.126  10.567
90865SOL    HW174434   6.198  14.081  10.559
90865SOL    HW274435   6.318  14.127  10.478
90866SOL     OW74436  13.808   6.985  12.076
90866SOL    HW174437  13.735   6.960  12.132
90866SOL    HW274438  13.882   6.934  12.109
90867SOL     OW74439   6.093   1.122   7.906
90867SOL    HW174440   6.051   1.182   7.845
90867SOL    HW274441   6.146   1.178   7.963
90868SOL     OW74442   2.470   0.148  10.893
90868SOL    HW174443   2.531   0.150  10.967
90868SOL    HW274444   2.397   0.204  10.920
90869SOL     OW74445   3.259  11.296   3.040
90869SOL    HW174446   3.253  11.383   3.079
90869SOL    HW274447   3.352  11.283   3.026
90870SOL     OW74448   1.262  14.686   6.760
90870SOL    HW174449   1.300  14.774   6.759
90870SOL    HW274450   1.170  14.699   6.737
90871SOL     OW74451  10.112   5.956   3.291
90871SOL    HW174452  10.094   5.870   3.328
90871SOL    HW274453  10.072   6.017   3.352
90872SOL     OW74454   9.017   3.234   0.965
90872SOL    HW174455   8.926   3.205   0.964
90872SOL    HW274456   9.021   3.299   1.035
90873SOL     OW74457   7.002   5.654   8.695
90873SOL    HW174458   7.076   5.655   8.756
90873SOL    HW274459   6.972   5.563   8.696
90874SOL     OW74460   9.008   4.234   9.312
90874SOL    HW174461   9.058   4.159   9.342
90874SOL    HW274462   9.073   4.293   9.274
90875SOL     OW74463  12.688   7.452   6.199
90875SOL    HW174464  12.662   7.484   6.113
90875SOL    HW274465  12.761   7.392   6.181
90876SOL     OW74466   5.916   5.371   3.703
90876SOL    HW174467   5.906   5.280   3.734
90876SOL    HW274468   5.831   5.391   3.664
90877SOL     OW74469   1.212   9.661   2.790
90877SOL    HW174470   1.213   9.755   2.772
90877SOL    HW274471   1.223   9.655   2.885
90878SOL     OW74472  13.246   0.349   2.004
90878SOL    HW174473  13.220   0.263   1.971
90878SOL    HW274474  13.183   0.368   2.074
90879SOL     OW74475  11.183   1.259  11.787
90879SOL    HW174476  11.202   1.188  11.848
90879SOL    HW274477  11.088   1.271  11.795
90880SOL     OW74478   1.185   3.703   2.266
90880SOL    HW174479   1.143   3.625   2.302
90880SOL    HW274480   1.189   3.687   2.172
90881SOL     OW74481  12.321  10.402   6.834
90881SOL    HW174482  12.320  10.318   6.788
90881SOL    HW274483  12.395  10.450   6.795
90882SOL     OW74484   5.723  11.574   1.193
90882SOL    HW174485   5.728  11.667   1.170
90882SOL    HW274486   5.725  11.573   1.289
90883SOL     OW74487  10.430  12.058   8.151
90883SOL    HW174488  10.340  12.080   8.174
90883SOL    HW274489  10.454  11.987   8.211
90884SOL     OW74490   1.003   3.370   6.902
90884SOL    HW174491   1.004   3.275   6.904
90884SOL    HW274492   0.981   3.392   6.811
90885SOL     OW74493   1.203   2.306   2.748
90885SOL    HW174494   1.191   2.283   2.840
90885SOL    HW274495   1.150   2.242   2.700
90886SOL     OW74496  11.411   5.828   8.413
90886SOL    HW174497  11.379   5.761   8.353
90886SOL    HW274498  11.478   5.784   8.465
90887SOL     OW74499  10.731   6.555   0.351
90887SOL    HW174500  10.810   6.571   0.402
90887SOL    HW274501  10.661   6.547   0.416
90888SOL     OW74502  12.629   9.752   7.602
90888SOL    HW174503  12.580   9.765   7.683
90888SOL    HW274504  12.695   9.686   7.625
90889SOL     OW74505   1.086   4.533   0.714
90889SOL    HW174506   1.139   4.612   0.704
90889SOL    HW274507   1.068   4.528   0.808
90890SOL     OW74508   0.035   7.294   4.294
90890SOL    HW174509   0.113   7.348   4.305
90890SOL    HW274510   0.055   7.214   4.343
90891SOL     OW74511  11.840   3.973   4.640
90891SOL    HW174512  11.927   3.964   4.679
90891SOL    HW274513  11.839   3.909   4.569
90892SOL     OW74514   5.353  14.136  11.462
90892SOL    HW174515   5.266  14.176  11.455
90892SOL    HW274516   5.394  14.180  11.536
90893SOL     OW74517   5.022  11.058   1.097
90893SOL    HW174518   4.981  11.128   1.149
90893SOL    HW274519   5.102  11.036   1.145
90894SOL     OW74520  12.801   9.629   7.097
90894SOL    HW174521  12.710   9.659   7.095
90894SOL    HW274522  12.846   9.694   7.152
90895SOL     OW74523   4.568   9.141   9.836
90895SOL    HW174524   4.543   9.183   9.918
90895SOL    HW274525   4.661   9.159   9.826
90896SOL     OW74526  12.951   2.898  11.653
90896SOL    HW174527  13.024   2.961  11.650
90896SOL    HW274528  12.965   2.850  11.735
90897SOL     OW74529   3.818   0.794   1.127
90897SOL    HW174530   3.892   0.821   1.073
90897SOL    HW274531   3.778   0.876   1.157
90898SOL     OW74532   3.715   0.472   3.114
90898SOL    HW174533   3.783   0.502   3.174
90898SOL    HW274534   3.747   0.496   3.027
90899SOL     OW74535  12.885   5.936   7.189
90899SOL    HW174536  12.856   5.847   7.169
90899SOL    HW274537  12.895   5.978   7.103
90900SOL     OW74538  11.440   4.911   3.285
90900SOL    HW174539  11.386   4.920   3.363
90900SOL    HW274540  11.456   4.817   3.277
90901SOL     OW74541  13.726   3.176  12.409
90901SOL    HW174542  13.779   3.256  12.413
90901SOL    HW274543  13.788   3.105  12.424
90902SOL     OW74544   3.375   1.163  12.257
90902SOL    HW174545   3.426   1.087  12.284
90902SOL    HW274546   3.420   1.198  12.180
90903SOL     OW74547   0.713   8.870   8.454
90903SOL    HW174548   0.772   8.888   8.382
90903SOL    HW274549   0.726   8.943   8.515
90904SOL     OW74550  10.108   8.539   2.330
90904SOL    HW174551  10.095   8.527   2.424
90904SOL    HW274552  10.166   8.468   2.304
90905SOL     OW74553  10.742   1.597   8.215
90905SOL    HW174554  10.819   1.618   8.162
90905SOL    HW274555  10.693   1.679   8.221
90906SOL     OW74556  13.678   4.119  13.561
90906SOL    HW174557  13.595   4.108  13.514
90906SOL    HW274558  13.741   4.140  13.492
90907SOL     OW74559   3.993  10.848   1.482
90907SOL    HW174560   3.909  10.804   1.466
90907SOL    HW274561   4.011  10.895   1.401
90908SOL     OW74562   2.120   2.435   8.517
90908SOL    HW174563   2.064   2.386   8.578
90908SOL    HW274564   2.080   2.522   8.513
90909SOL     OW74565  13.957   2.686   7.596
90909SOL    HW174566  13.891   2.623   7.626
90909SOL    HW274567  14.000   2.641   7.523
90910SOL     OW74568  12.715   3.350   5.149
90910SOL    HW174569  12.775   3.282   5.119
90910SOL    HW274570  12.723   3.348   5.245
90911SOL     OW74571  12.516   7.100  13.135
90911SOL    HW174572  12.592   7.158  13.125
90911SOL    HW274573  12.480   7.123  13.221
90912SOL     OW74574   2.986   3.535  10.660
90912SOL    HW174575   3.057   3.597  10.674
90912SOL    HW274576   2.912   3.572  10.707
90913SOL     OW74577   9.430   6.953   4.929
90913SOL    HW174578   9.430   7.009   5.007
90913SOL    HW274579   9.360   6.988   4.874
90914SOL     OW74580   0.894   7.973  10.684
90914SOL    HW174581   0.961   8.041  10.672
90914SOL    HW274582   0.901   7.949  10.776
90915SOL     OW74583   0.776   1.788  14.358
90915SOL    HW174584   0.778   1.812  14.265
90915SOL    HW274585   0.853   1.732  14.370
90916SOL     OW74586   6.800   2.375   7.269
90916SOL    HW174587   6.871   2.418   7.222
90916SOL    HW274588   6.834   2.360   7.357
90917SOL     OW74589   8.317   0.549   3.441
90917SOL    HW174590   8.393   0.496   3.467
90917SOL    HW274591   8.270   0.566   3.522
90918SOL     OW74592   3.658   3.773   9.921
90918SOL    HW174593   3.581   3.724   9.949
90918SOL    HW274594   3.704   3.793  10.003
90919SOL     OW74595   4.815   1.584  11.172
90919SOL    HW174596   4.892   1.640  11.168
90919SOL    HW274597   4.818   1.545  11.259
90920SOL     OW74598  11.349  10.972  12.532
90920SOL    HW174599  11.318  10.999  12.445
90920SOL    HW274600  11.345  11.051  12.585
90921SOL     OW74601   7.195  11.738  13.379
90921SOL    HW174602   7.126  11.778  13.431
90921SOL    HW274603   7.170  11.645  13.373
90922SOL     OW74604   2.192   6.679   4.674
90922SOL    HW174605   2.204   6.718   4.760
90922SOL    HW274606   2.117   6.621   4.684
90923SOL     OW74607  11.785  11.497  12.087
90923SOL    HW174608  11.714  11.452  12.133
90923SOL    HW274609  11.803  11.443  12.011
90924SOL     OW74610   2.530   7.663  11.253
90924SOL    HW174611   2.466   7.626  11.192
90924SOL    HW274612   2.546   7.593  11.317
90925SOL     OW74613  11.152   8.705  10.583
90925SOL    HW174614  11.167   8.616  10.615
90925SOL    HW274615  11.137   8.758  10.661
90926SOL     OW74616   0.187   1.453   7.898
90926SOL    HW174617   0.101   1.421   7.925
90926SOL    HW274618   0.249   1.393   7.940
90927SOL     OW74619   9.063   2.050   1.699
90927SOL    HW174620   9.007   2.029   1.625
90927SOL    HW274621   9.129   2.110   1.663
90928SOL     OW74622  12.496   9.304   9.404
90928SOL    HW174623  12.475   9.246   9.477
90928SOL    HW274624  12.551   9.372   9.443
90929SOL     OW74625  14.178   3.195  14.614
90929SOL    HW174626  14.250   3.246  14.650
90929SOL    HW274627  14.177   3.219  14.521
90930SOL     OW74628   2.459   4.675   8.324
90930SOL    HW174629   2.459   4.664   8.419
90930SOL    HW274630   2.520   4.608   8.292
90931SOL     OW74631   5.889  11.550   8.625
90931SOL    HW174632   5.806  11.517   8.660
90931SOL    HW274633   5.886  11.528   8.532
90932SOL     OW74634  11.546   2.198   4.146
90932SOL    HW174635  11.540   2.109   4.113
90932SOL    HW274636  11.640   2.214   4.156
90933SOL     OW74637   3.379   7.921   0.512
90933SOL    HW174638   3.465   7.919   0.553
90933SOL    HW274639   3.336   7.997   0.552
90934SOL     OW74640   8.663   3.502   9.179
90934SOL    HW174641   8.605   3.560   9.229
90934SOL    HW274642   8.645   3.524   9.087
90935SOL     OW74643   5.553   0.131  10.617
90935SOL    HW174644   5.648   0.131  10.611
90935SOL    HW274645   5.526   0.214  10.578
90936SOL     OW74646   3.792   2.496   9.576
90936SOL    HW174647   3.839   2.570   9.538
90936SOL    HW274648   3.717   2.484   9.517
90937SOL     OW74649   5.147  13.859  12.366
90937SOL    HW174650   5.141  13.922  12.438
90937SOL    HW274651   5.235  13.822  12.374
90938SOL     OW74652  11.013   1.659   4.120
90938SOL    HW174653  10.988   1.656   4.212
90938SOL    HW274654  11.108   1.664   4.121
90939SOL     OW74655  13.436   5.115   8.449
90939SOL    HW174656  13.390   5.145   8.527
90939SOL    HW274657  13.514   5.170   8.445
90940SOL     OW74658   7.169   2.749   1.561
90940SOL    HW174659   7.198   2.762   1.651
90940SOL    HW274660   7.098   2.812   1.550
90941SOL     OW74661   3.044   1.642   7.153
90941SOL    HW174662   2.973   1.638   7.216
90941SOL    HW274663   3.072   1.734   7.154
90942SOL     OW74664   6.636   4.775   0.484
90942SOL    HW174665   6.545   4.771   0.513
90942SOL    HW274666   6.686   4.779   0.566
90943SOL     OW74667  10.978   7.344  12.300
90943SOL    HW174668  10.921   7.269  12.290
90943SOL    HW274669  11.018   7.333  12.386
90944SOL     OW74670   1.738  12.494  10.778
90944SOL    HW174671   1.655  12.502  10.824
90944SOL    HW274672   1.717  12.516  10.687
90945SOL     OW74673   0.522   0.701   6.570
90945SOL    HW174674   0.460   0.751   6.624
90945SOL    HW274675   0.552   0.630   6.627
90946SOL     OW74676   1.351   1.468  12.337
90946SOL    HW174677   1.331   1.439  12.248
90946SOL    HW274678   1.417   1.536  12.326
90947SOL     OW74679   5.339   6.789   4.725
90947SOL    HW174680   5.392   6.775   4.804
90947SOL    HW274681   5.337   6.703   4.683
90948SOL     OW74682   8.789   0.489   0.871
90948SOL    HW174683   8.738   0.558   0.828
90948SOL    HW274684   8.724   0.422   0.893
90949SOL     OW74685   9.333  13.577   9.360
90949SOL    HW174686   9.351  13.662   9.400
90949SOL    HW274687   9.238  13.575   9.349
90950SOL     OW74688   8.461   7.963  14.486
90950SOL    HW174689   8.432   7.903  14.417
90950SOL    HW274690   8.407   8.041  14.474
90951SOL     OW74691   9.632   4.690   4.740
90951SOL    HW174692   9.617   4.785   4.731
90951SOL    HW274693   9.578   4.651   4.671
90952SOL     OW74694  12.964  13.777   4.721
90952SOL    HW174695  12.948  13.746   4.810
90952SOL    HW274696  13.037  13.723   4.690
90953SOL     OW74697   5.763   3.224  14.287
90953SOL    HW174698   5.681   3.265  14.314
90953SOL    HW274699   5.764   3.235  14.192
90954SOL     OW74700  12.829  14.617   2.245
90954SOL    HW174701  12.870  14.700   2.270
90954SOL    HW274702  12.901  14.554   2.248
90955SOL     OW74703   1.637   3.859  14.564
90955SOL    HW174704   1.599   3.893  14.483
90955SOL    HW274705   1.727   3.837  14.542
90956SOL     OW74706  11.259   0.155   7.584
90956SOL    HW174707  11.287   0.146   7.675
90956SOL    HW274708  11.177   0.205   7.589
90957SOL     OW74709   4.431   0.438   1.130
90957SOL    HW174710   4.354   0.444   1.187
90957SOL    HW274711   4.402   0.387   1.055
90958SOL     OW74712   4.535  11.416   7.225
90958SOL    HW174713   4.564  11.401   7.315
90958SOL    HW274714   4.496  11.503   7.226
90959SOL     OW74715   9.012   3.284   8.723
90959SOL    HW174716   9.015   3.380   8.715
90959SOL    HW274717   8.983   3.254   8.637
90960SOL     OW74718  11.326   1.511  11.824
90960SOL    HW174719  11.290   1.426  11.797
90960SOL    HW274720  11.281   1.531  11.906
90961SOL     OW74721   9.325  10.360  13.168
90961SOL    HW174722   9.345  10.358  13.075
90961SOL    HW274723   9.292  10.272  13.188
90962SOL     OW74724  10.747   2.251   9.935
90962SOL    HW174725  10.841   2.258   9.916
90962SOL    HW274726  10.720   2.169   9.893
90963SOL     OW74727  12.699  13.964   6.852
90963SOL    HW174728  12.716  13.870   6.859
90963SOL    HW274729  12.779  14.005   6.882
90964SOL     OW74730  13.183   1.301  12.348
90964SOL    HW174731  13.141   1.387  12.362
90964SOL    HW274732  13.110   1.242  12.329
90965SOL     OW74733   7.551   1.328  12.596
90965SOL    HW174734   7.558   1.412  12.550
90965SOL    HW274735   7.611   1.270  12.550
90966SOL     OW74736  14.268   1.475   3.484
90966SOL    HW174737  14.308   1.523   3.556
90966SOL    HW274738  14.196   1.532   3.454
90967SOL     OW74739   5.672   0.285   4.124
90967SOL    HW174740   5.625   0.254   4.201
90967SOL    HW274741   5.729   0.355   4.156
90968SOL     OW74742   3.713   8.948   1.413
90968SOL    HW174743   3.783   9.011   1.397
90968SOL    HW274744   3.758   8.864   1.427
90969SOL     OW74745   5.428   5.667   4.604
90969SOL    HW174746   5.415   5.711   4.520
90969SOL    HW274747   5.493   5.599   4.586
90970SOL     OW74748   3.534  12.922   9.912
90970SOL    HW174749   3.517  12.831   9.888
90970SOL    HW274750   3.612  12.946   9.861
90971SOL     OW74751  13.311   9.571  14.819
90971SOL    HW174752  13.277   9.543  14.734
90971SOL    HW274753  13.393   9.523  14.830
90972SOL     OW74754  13.540  10.684   7.913
90972SOL    HW174755  13.492  10.760   7.945
90972SOL    HW274756  13.472  10.623   7.885
90973SOL     OW74757   7.575   0.078   9.716
90973SOL    HW174758   7.532   0.161   9.694
90973SOL    HW274759   7.651   0.075   9.658
90974SOL     OW74760   8.298  13.574   4.712
90974SOL    HW174761   8.371  13.519   4.683
90974SOL    HW274762   8.315  13.589   4.805
90975SOL     OW74763   9.537   9.490   4.630
90975SOL    HW174764   9.476   9.465   4.560
90975SOL    HW274765   9.589   9.561   4.592
90976SOL     OW74766   7.866   2.964  12.477
90976SOL    HW174767   7.897   2.874  12.466
90976SOL    HW274768   7.772   2.955  12.492
90977SOL     OW74769   3.261  10.335   2.805
90977SOL    HW174770   3.309  10.365   2.882
90977SOL    HW274771   3.201  10.268   2.840
90978SOL     OW74772   6.029   1.845   6.690
90978SOL    HW174773   6.074   1.854   6.607
90978SOL    HW274774   5.942   1.883   6.675
90979SOL     OW74775   0.374   3.076   3.163
90979SOL    HW174776   0.287   3.055   3.128
90979SOL    HW274777   0.357   3.145   3.228
90980SOL     OW74778   9.799  14.417  11.579
90980SOL    HW174779   9.821  14.332  11.540
90980SOL    HW274780   9.796  14.400  11.673
90981SOL     OW74781   7.563   6.667   6.876
90981SOL    HW174782   7.524   6.643   6.960
90981SOL    HW274783   7.593   6.584   6.839
90982SOL     OW74784  14.737   3.237   8.124
90982SOL    HW174785  14.669   3.295   8.159
90982SOL    HW274786  14.810   3.246   8.186
90983SOL     OW74787   6.959  14.153  12.733
90983SOL    HW174788   7.007  14.079  12.695
90983SOL    HW274789   6.924  14.200  12.657
90984SOL     OW74790   1.462   1.011   6.623
90984SOL    HW174791   1.505   1.057   6.551
90984SOL    HW274792   1.479   0.919   6.606
90985SOL     OW74793  12.927   9.443   0.158
90985SOL    HW174794  12.932   9.463   0.252
90985SOL    HW274795  13.009   9.398   0.139
90986SOL     OW74796   0.705   3.996   8.608
90986SOL    HW174797   0.660   4.080   8.611
90986SOL    HW274798   0.748   3.988   8.693
90987SOL     OW74799   6.940  11.358  14.554
90987SOL    HW174800   6.948  11.386  14.463
90987SOL    HW274801   6.976  11.269  14.555
90988SOL     OW74802  10.741  14.151   0.029
90988SOL    HW174803  10.749  14.156  14.816
90988SOL    HW274804  10.647  14.165   0.046
90989SOL     OW74805   3.306   4.848   9.915
90989SOL    HW174806   3.281   4.941   9.915
90989SOL    HW274807   3.281   4.816   9.829
90990SOL     OW74808   9.078   4.474   5.064
90990SOL    HW174809   8.992   4.511   5.087
90990SOL    HW274810   9.060   4.382   5.044
90991SOL     OW74811   6.488  13.163   5.136
90991SOL    HW174812   6.561  13.221   5.116
90991SOL    HW274813   6.444  13.205   5.210
90992SOL     OW74814   0.635  10.868  13.345
90992SOL    HW174815   0.653  10.841  13.435
90992SOL    HW274816   0.588  10.794  13.307
90993SOL     OW74817   4.023   2.231   8.351
90993SOL    HW174818   4.047   2.240   8.444
90993SOL    HW274819   4.071   2.302   8.308
90994SOL     OW74820  12.281  11.147   6.381
90994SOL    HW174821  12.319  11.096   6.310
90994SOL    HW274822  12.305  11.101   6.461
90995SOL     OW74823  13.577   6.538   3.097
90995SOL    HW174824  13.585   6.632   3.082
90995SOL    HW274825  13.492   6.514   3.059
90996SOL     OW74826   7.313  13.296   8.070
90996SOL    HW174827   7.386  13.254   8.025
90996SOL    HW274828   7.237  13.276   8.015
90997SOL     OW74829   5.152   6.105   9.100
90997SOL    HW174830   5.127   6.013   9.104
90997SOL    HW274831   5.068   6.152   9.093
90998SOL     OW74832   8.108  13.401   6.014
90998SOL    HW174833   8.038  13.453   5.976
90998SOL    HW274834   8.150  13.459   6.077
90999SOL     OW74835  14.319  14.437   3.638
90999SOL    HW174836  14.319  14.530   3.662
90999SOL    HW274837  14.234  14.423   3.596
91000SOL     OW74838  10.325   9.788   4.227
91000SOL    HW174839  10.410   9.802   4.268
91000SOL    HW274840  10.323   9.851   4.155
91001SOL     OW74841   5.566   5.096   5.812
91001SOL    HW174842   5.580   5.101   5.717
91001SOL    HW274843   5.611   5.016   5.839
91002SOL     OW74844  11.298   2.390  12.795
91002SOL    HW174845  11.366   2.455  12.816
91002SOL    HW274846  11.264   2.418  12.710
91003SOL     OW74847  13.589  14.716  14.685
91003SOL    HW174848  13.611  14.714  14.592
91003SOL    HW274849  13.501  14.754  14.688
91004SOL     OW74850   0.159   4.024   5.182
91004SOL    HW174851   0.200   4.065   5.106
91004SOL    HW274852   0.186   4.078   5.257
91005SOL     OW74853  13.024   1.176   7.110
91005SOL    HW174854  13.087   1.129   7.165
91005SOL    HW274855  13.075   1.247   7.071
91006SOL     OW74856   0.917   6.036   1.827
91006SOL    HW174857   0.947   5.968   1.887
91006SOL    HW274858   0.822   6.041   1.842
91007SOL     OW74859   7.233   1.417   2.565
91007SOL    HW174860   7.230   1.363   2.644
91007SOL    HW274861   7.326   1.420   2.541
91008SOL     OW74862  13.288  12.763  13.034
91008SOL    HW174863  13.204  12.719  13.047
91008SOL    HW274864  13.321  12.729  12.951
91009SOL     OW74865  10.783  10.325   0.019
91009SOL    HW174866  10.754  10.412  14.873
91009SOL    HW274867  10.702  10.274   0.026
91010SOL     OW74868   0.274  12.626   5.523
91010SOL    HW174869   0.348  12.598   5.469
91010SOL    HW274870   0.314  12.665   5.601
91011SOL     OW74871   7.107  12.335   5.911
91011SOL    HW174872   7.192  12.372   5.936
91011SOL    HW274873   7.052  12.348   5.988
91012SOL     OW74874  10.310   5.023   4.252
91012SOL    HW174875  10.306   4.930   4.229
91012SOL    HW274876  10.395   5.052   4.220
91013SOL     OW74877   2.811   1.484   7.242
91013SOL    HW174878   2.819   1.434   7.160
91013SOL    HW274879   2.770   1.566   7.216
91014SOL     OW74880  14.379   5.648  10.029
91014SOL    HW174881  14.402   5.725  10.080
91014SOL    HW274882  14.451   5.637   9.967
91015SOL     OW74883  11.754   4.625   6.676
91015SOL    HW174884  11.849   4.635   6.672
91015SOL    HW274885  11.735   4.558   6.610
91016SOL     OW74886   9.708   6.495   9.119
91016SOL    HW174887   9.703   6.460   9.030
91016SOL    HW274888   9.794   6.467   9.151
91017SOL     OW74889  11.934   7.932  11.946
91017SOL    HW174890  11.917   7.838  11.936
91017SOL    HW274891  12.027   7.937  11.971
91018SOL     OW74892   9.125   3.955   1.073
91018SOL    HW174893   9.200   3.946   1.132
91018SOL    HW274894   9.049   3.962   1.131
91019SOL     OW74895   1.981   5.099   7.398
91019SOL    HW174896   2.049   5.164   7.419
91019SOL    HW274897   1.974   5.046   7.477
91020SOL     OW74898   4.546   6.112  11.369
91020SOL    HW174899   4.588   6.130  11.286
91020SOL    HW274900   4.618   6.098  11.431
91021SOL     OW74901   0.872  11.630   7.044
91021SOL    HW174902   0.929  11.694   7.087
91021SOL    HW274903   0.791  11.678   7.027
91022SOL     OW74904   7.058   4.746  14.853
91022SOL    HW174905   6.998   4.673  14.839
91022SOL    HW274906   7.053   4.798  14.773
91023SOL     OW74907  12.823  12.163  11.876
91023SOL    HW174908  12.816  12.165  11.971
91023SOL    HW274909  12.883  12.091  11.858
91024SOL     OW74910   6.555   0.221   5.398
91024SOL    HW174911   6.573   0.165   5.323
91024SOL    HW274912   6.612   0.297   5.386
91025SOL     OW74913   8.945   0.009   9.673
91025SOL    HW174914   9.009   0.010   9.602
91025SOL    HW274915   8.978  14.825   9.734
91026SOL     OW74916  14.441   5.308   2.240
91026SOL    HW174917  14.361   5.353   2.269
91026SOL    HW274918  14.475   5.266   2.319
91027SOL     OW74919  10.434   3.108   5.664
91027SOL    HW174920  10.342   3.125   5.646
91027SOL    HW274921  10.452   3.155   5.745
91028SOL     OW74922  14.553   5.435  13.238
91028SOL    HW174923  14.632   5.473  13.274
91028SOL    HW274924  14.510   5.507  13.192
91029SOL     OW74925   8.241   8.613  13.712
91029SOL    HW174926   8.327   8.615  13.668
91029SOL    HW274927   8.233   8.523  13.744
91030SOL     OW74928   9.634   7.630   6.005
91030SOL    HW174929   9.708   7.627   5.944
91030SOL    HW274930   9.557   7.609   5.951
91031SOL     OW74931   6.362  11.875   1.515
91031SOL    HW174932   6.281  11.924   1.497
91031SOL    HW274933   6.375  11.885   1.609
91032SOL     OW74934   2.441  12.483   5.847
91032SOL    HW174935   2.446  12.399   5.894
91032SOL    HW274936   2.353  12.515   5.867
91033SOL     OW74937   0.551  14.160  12.594
91033SOL    HW174938   0.504  14.205  12.523
91033SOL    HW274939   0.483  14.119  12.647
91034SOL     OW74940   6.978   9.262   0.305
91034SOL    HW174941   6.940   9.181   0.338
91034SOL    HW274942   6.922   9.331   0.340
91035SOL     OW74943  10.330   9.505   0.072
91035SOL    HW174944  10.426   9.504   0.073
91035SOL    HW274945  10.308   9.576   0.012
91036SOL     OW74946  11.406   7.838   6.370
91036SOL    HW174947  11.317   7.804   6.378
91036SOL    HW274948  11.399   7.931   6.392
91037SOL     OW74949   2.974   0.703   9.799
91037SOL    HW174950   2.935   0.777   9.847
91037SOL    HW274951   2.925   0.700   9.717
91038SOL     OW74952   1.088  12.394   0.396
91038SOL    HW174953   1.006  12.355   0.426
91038SOL    HW274954   1.068  12.430   0.310
91039SOL     OW74955   1.608   1.769   1.930
91039SOL    HW174956   1.627   1.803   1.842
91039SOL    HW274957   1.574   1.843   1.978
91040SOL     OW74958   6.696   8.750   6.959
91040SOL    HW174959   6.617   8.732   7.010
91040SOL    HW274960   6.670   8.735   6.868
91041SOL     OW74961   2.840   7.162  10.255
91041SOL    HW174962   2.914   7.134  10.309
91041SOL    HW274963   2.843   7.104  10.178
91042SOL     OW74964   3.317  10.167   6.308
91042SOL    HW174965   3.399  10.125   6.283
91042SOL    HW274966   3.339  10.216   6.388
91043SOL     OW74967   4.290   3.113   8.833
91043SOL    HW174968   4.223   3.064   8.881
91043SOL    HW274969   4.369   3.060   8.842
91044SOL     OW74970   3.045   5.985  11.237
91044SOL    HW174971   2.988   6.039  11.293
91044SOL    HW274972   3.001   5.986  11.152
91045SOL     OW74973   6.152   1.397   4.430
91045SOL    HW174974   6.244   1.422   4.417
91045SOL    HW274975   6.118   1.383   4.341
91046SOL     OW74976   6.139   5.745  13.335
91046SOL    HW174977   6.114   5.810  13.270
91046SOL    HW274978   6.168   5.796  13.410
91047SOL     OW74979   5.414   6.057   0.666
91047SOL    HW174980   5.405   6.029   0.757
91047SOL    HW274981   5.431   5.976   0.618
91048SOL     OW74982   9.313   9.414   9.227
91048SOL    HW174983   9.342   9.386   9.314
91048SOL    HW274984   9.301   9.508   9.234
91049SOL     OW74985   9.132   4.287   9.843
91049SOL    HW174986   9.119   4.238   9.925
91049SOL    HW274987   9.153   4.220   9.778
91050SOL     OW74988  13.974   3.163   1.115
91050SOL    HW174989  13.912   3.164   1.043
91050SOL    HW274990  14.057   3.190   1.076
91051SOL     OW74991  12.921   8.810   3.151
91051SOL    HW174992  12.861   8.798   3.077
91051SOL    HW274993  12.873   8.775   3.227
91052SOL     OW74994   2.656   0.649   5.675
91052SOL    HW174995   2.588   0.600   5.629
91052SOL    HW274996   2.608   0.708   5.734
91053SOL     OW74997  14.857   1.020   4.637
91053SOL    HW174998   0.047   0.990   4.582
91053SOL    HW274999   0.018   1.047   4.719
91054SOL     OW75000   0.363   7.794  10.331
91054SOL    HW175001   0.314   7.815  10.411
91054SOL    HW275002   0.433   7.858  10.329
91055SOL     OW75003   6.237   4.108   8.515
91055SOL    HW175004   6.163   4.157   8.551
91055SOL    HW275005   6.303   4.109   8.584
91056SOL     OW75006   4.445   2.413   7.937
91056SOL    HW175007   4.514   2.479   7.939
91056SOL    HW275008   4.369   2.459   7.901
91057SOL     OW75009   0.937   5.771  11.376
91057SOL    HW175010   0.907   5.743  11.463
91057SOL    HW275011   0.873   5.734  11.316
91058SOL     OW75012  12.487   9.598   0.566
91058SOL    HW175013  12.487   9.680   0.517
91058SOL    HW275014  12.506   9.624   0.656
91059SOL     OW75015  14.204  13.114  14.746
91059SOL    HW175016  14.214  13.204  14.778
91059SOL    HW275017  14.289  13.092  14.709
91060SOL     OW75018  12.085   5.967   1.926
91060SOL    HW175019  12.069   5.904   1.997
91060SOL    HW275020  12.093   5.913   1.848
91061SOL     OW75021   1.178   4.770   0.562
91061SOL    HW175022   1.137   4.851   0.533
91061SOL    HW275023   1.221   4.735   0.484
91062SOL     OW75024   8.161   8.581  13.247
91062SOL    HW175025   8.089   8.612  13.302
91062SOL    HW275026   8.122   8.573  13.159
91063SOL     OW75027   5.224   0.544  14.122
91063SOL    HW175028   5.248   0.535  14.214
91063SOL    HW275029   5.201   0.636  14.112
91064SOL     OW75030   4.191   0.983  10.947
91064SOL    HW175031   4.147   0.911  10.993
91064SOL    HW275032   4.179   1.058  11.004
91065SOL     OW75033   7.080   1.873   3.411
91065SOL    HW175034   7.112   1.845   3.496
91065SOL    HW275035   7.108   1.805   3.350
91066SOL     OW75036   1.102   9.596   7.004
91066SOL    HW175037   1.035   9.664   6.994
91066SOL    HW275038   1.053   9.518   7.030
91067SOL     OW75039   7.195  10.642   3.000
91067SOL    HW175040   7.282  10.683   3.004
91067SOL    HW275041   7.170  10.630   3.091
91068SOL     OW75042   4.132  12.833   1.158
91068SOL    HW175043   4.039  12.839   1.138
91068SOL    HW275044   4.175  12.883   1.088
91069SOL     OW75045  14.482   8.080  12.359
91069SOL    HW175046  14.418   8.096  12.289
91069SOL    HW275047  14.433   8.096  12.440
91070SOL     OW75048   0.540  10.444  10.398
91070SOL    HW175049   0.463  10.500  10.409
91070SOL    HW275050   0.513  10.360  10.434
91071SOL     OW75051   4.728  14.538   6.797
91071SOL    HW175052   4.682  14.475   6.741
91071SOL    HW275053   4.735  14.617   6.743
91072SOL     OW75054   5.253   6.452   4.197
91072SOL    HW175055   5.207   6.516   4.252
91072SOL    HW275056   5.330   6.427   4.249
91073SOL     OW75057   4.100   5.216   8.995
91073SOL    HW175058   4.162   5.251   9.059
91073SOL    HW275059   4.150   5.152   8.945
91074SOL     OW75060   9.973   9.947  10.013
91074SOL    HW175061  10.004   9.973  10.100
91074SOL    HW275062   9.994   9.854  10.007
91075SOL     OW75063  12.677   2.445   6.335
91075SOL    HW175064  12.637   2.531   6.319
91075SOL    HW275065  12.610   2.382   6.309
91076SOL     OW75066  14.006   5.721   9.268
91076SOL    HW175067  13.941   5.789   9.252
91076SOL    HW275068  13.973   5.644   9.222
91077SOL     OW75069   0.772   0.624  11.032
91077SOL    HW175070   0.694   0.650  11.081
91077SOL    HW275071   0.776   0.529  11.042
91078SOL     OW75072   0.281   5.195  14.385
91078SOL    HW175073   0.375   5.203  14.368
91078SOL    HW275074   0.244   5.167  14.302
91079SOL     OW75075  11.743  11.323  14.196
91079SOL    HW175076  11.698  11.241  14.217
91079SOL    HW275077  11.672  11.383  14.171
91080SOL     OW75078   5.576   6.141  12.938
91080SOL    HW175079   5.540   6.053  12.945
91080SOL    HW275080   5.549   6.172  12.852
91081SOL     OW75081   6.631  13.141  12.322
91081SOL    HW175082   6.553  13.166  12.272
91081SOL    HW275083   6.692  13.108  12.256
91082SOL     OW75084   0.622   1.251  11.184
91082SOL    HW175085   0.693   1.299  11.142
91082SOL    HW275086   0.551   1.252  11.120
91083SOL     OW75087   2.654   7.939   3.300
91083SOL    HW175088   2.699   7.867   3.344
91083SOL    HW275089   2.593   7.896   3.241
91084SOL     OW75090   1.652  14.118   6.385
91084SOL    HW175091   1.593  14.170   6.331
91084SOL    HW275092   1.740  14.140   6.353
91085SOL     OW75093  12.398   3.653   3.681
91085SOL    HW175094  12.468   3.698   3.727
91085SOL    HW275095  12.441   3.611   3.607
91086SOL     OW75096   3.105   9.633  14.668
91086SOL    HW175097   3.083   9.700  14.733
91086SOL    HW275098   3.183   9.668  14.624
91087SOL     OW75099   1.003  14.827   5.149
91087SOL    HW175100   0.977  14.809   5.240
91087SOL    HW275101   0.958  14.761   5.097
91088SOL     OW75102  10.315   9.302   3.233
91088SOL    HW175103  10.363   9.298   3.316
91088SOL    HW275104  10.346   9.383   3.192
91089SOL     OW75105   1.213  11.558   6.220
91089SOL    HW175106   1.118  11.565   6.229
91089SOL    HW275107   1.226  11.532   6.129
91090SOL     OW75108   0.959   8.749  14.871
91090SOL    HW175109   1.008   8.677   0.029
91090SOL    HW275110   0.868   8.718  14.872
91091SOL     OW75111  13.807  14.181   4.712
91091SOL    HW175112  13.754  14.144   4.642
91091SOL    HW275113  13.747  14.189   4.786
91092SOL     OW75114   3.074   2.713   1.360
91092SOL    HW175115   3.157   2.742   1.400
91092SOL    HW275116   3.008   2.732   1.426
91093SOL     OW75117   1.528   9.092   9.437
91093SOL    HW175118   1.552   9.048   9.356
91093SOL    HW275119   1.504   9.020   9.497
91094SOL     OW75120   5.646  11.185  12.870
91094SOL    HW175121   5.645  11.098  12.831
91094SOL    HW275122   5.563  11.192  12.917
91095SOL     OW75123   3.298  12.715   9.622
91095SOL    HW175124   3.321  12.688   9.533
91095SOL    HW275125   3.354  12.663   9.679
91096SOL     OW75126   3.087  13.473   8.883
91096SOL    HW175127   3.134  13.487   8.965
91096SOL    HW275128   3.137  13.405   8.838
91097SOL     OW75129   4.454   9.061  12.290
91097SOL    HW175130   4.501   9.067  12.207
91097SOL    HW275131   4.463   9.148  12.330
91098SOL     OW75132  14.664   1.625   2.035
91098SOL    HW175133  14.572   1.616   2.059
91098SOL    HW275134  14.705   1.661   2.114
91099SOL     OW75135   1.772   2.905  12.857
91099SOL    HW175136   1.805   2.820  12.885
91099SOL    HW275137   1.807   2.916  12.768
91100SOL     OW75138   1.769   4.987  11.258
91100SOL    HW175139   1.787   4.910  11.203
91100SOL    HW275140   1.705   5.038  11.209
91101SOL     OW75141   7.160   9.277   4.332
91101SOL    HW175142   7.106   9.236   4.399
91101SOL    HW275143   7.187   9.204   4.275
91102SOL     OW75144  10.920   6.452  13.015
91102SOL    HW175145  10.897   6.484  13.102
91102SOL    HW275146  10.924   6.357  13.026
91103SOL     OW75147  11.614   5.019   7.260
91103SOL    HW175148  11.537   5.077   7.259
91103SOL    HW275149  11.577   4.931   7.275
91104SOL     OW75150  13.634   3.824  11.490
91104SOL    HW175151  13.667   3.881  11.420
91104SOL    HW275152  13.687   3.848  11.566
91105SOL     OW75153   1.342   4.632   0.217
91105SOL    HW175154   1.248   4.633   0.238
91105SOL    HW275155   1.358   4.543   0.186
91106SOL     OW75156  12.798   7.106   6.393
91106SOL    HW175157  12.882   7.069   6.422
91106SOL    HW275158  12.781   7.177   6.455
91107SOL     OW75159  12.354  12.456   6.415
91107SOL    HW175160  12.341  12.377   6.467
91107SOL    HW275161  12.437  12.492   6.445
91108SOL     OW75162   4.593   3.727   7.746
91108SOL    HW175163   4.569   3.700   7.834
91108SOL    HW275164   4.548   3.666   7.688
91109SOL     OW75165   0.046  12.134  14.146
91109SOL    HW175166  14.849  12.179  14.175
91109SOL    HW275167   0.068  12.076  14.219
91110SOL     OW75168   9.243   9.084   0.803
91110SOL    HW175169   9.257   9.109   0.712
91110SOL    HW275170   9.183   9.150   0.837
91111SOL     OW75171  13.242   6.944  10.097
91111SOL    HW175172  13.199   7.002  10.034
91111SOL    HW275173  13.275   7.002  10.166
91112SOL     OW75174   4.038  11.447  14.100
91112SOL    HW175175   4.034  11.530  14.053
91112SOL    HW275176   3.972  11.392  14.056
91113SOL     OW75177  11.303   2.727   1.561
91113SOL    HW175178  11.373   2.722   1.626
91113SOL    HW275179  11.309   2.816   1.526
91114SOL     OW75180  10.625   1.149   6.355
91114SOL    HW175181  10.716   1.148   6.387
91114SOL    HW275182  10.577   1.098   6.419
91115SOL     OW75183   8.264   6.757   4.195
91115SOL    HW175184   8.255   6.841   4.151
91115SOL    HW275185   8.348   6.723   4.163
91116SOL     OW75186  14.047   8.519  13.360
91116SOL    HW175187  13.982   8.586  13.377
91116SOL    HW275188  13.999   8.436  13.368
91117SOL     OW75189   2.028  10.192   4.771
91117SOL    HW175190   2.053  10.223   4.684
91117SOL    HW275191   2.109  10.154   4.806
91118SOL     OW75192   5.239   3.501   6.346
91118SOL    HW175193   5.303   3.551   6.396
91118SOL    HW275194   5.164   3.492   6.405
91119SOL     OW75195   8.241   7.310   3.598
91119SOL    HW175196   8.162   7.285   3.550
91119SOL    HW275197   8.228   7.274   3.686
91120SOL     OW75198  13.002   5.911   3.342
91120SOL    HW175199  12.930   5.887   3.283
91120SOL    HW275200  13.058   5.834   3.343
91121SOL     OW75201   1.518  13.403   4.678
91121SOL    HW175202   1.474  13.414   4.763
91121SOL    HW275203   1.451  13.426   4.614
91122SOL     OW75204   9.024   2.639   8.795
91122SOL    HW175205   9.076   2.718   8.778
91122SOL    HW275206   8.991   2.651   8.884
91123SOL     OW75207  10.710   2.523   9.113
91123SOL    HW175208  10.700   2.469   9.191
91123SOL    HW275209  10.782   2.583   9.135
91124SOL     OW75210   1.660   5.589  14.258
91124SOL    HW175211   1.710   5.567  14.179
91124SOL    HW275212   1.579   5.539  14.249
91125SOL     OW75213   2.801  11.059   0.870
91125SOL    HW175214   2.814  11.094   0.782
91125SOL    HW275215   2.759  11.131   0.918
91126SOL     OW75216   3.250   3.084   7.377
91126SOL    HW175217   3.272   3.042   7.294
91126SOL    HW275218   3.270   3.177   7.362
91127SOL     OW75219   8.923  13.530  13.394
91127SOL    HW175220   9.002  13.477  13.377
91127SOL    HW275221   8.941  13.575  13.476
91128SOL     OW75222  13.282   3.704   1.301
91128SOL    HW175223  13.281   3.794   1.335
91128SOL    HW275224  13.197   3.668   1.327
91129SOL     OW75225   2.385   8.914   8.018
91129SOL    HW175226   2.426   8.925   7.932
91129SOL    HW275227   2.296   8.884   7.999
91130SOL     OW75228  12.463   6.513   7.231
91130SOL    HW175229  12.470   6.607   7.247
91130SOL    HW275230  12.466   6.505   7.136
91131SOL     OW75231   5.364  13.155   3.972
91131SOL    HW175232   5.302  13.176   4.042
91131SOL    HW275233   5.331  13.202   3.895
91132SOL     OW75234   8.047   6.324   2.138
91132SOL    HW175235   8.009   6.237   2.128
91132SOL    HW275236   7.987   6.370   2.197
91133SOL     OW75237   9.925   0.956   7.975
91133SOL    HW175238   9.992   0.994   7.920
91133SOL    HW275239   9.970   0.931   8.056
91134SOL     OW75240   3.457   7.177   2.891
91134SOL    HW175241   3.518   7.149   2.822
91134SOL    HW275242   3.422   7.096   2.927
91135SOL     OW75243  12.741  10.397  10.844
91135SOL    HW175244  12.832  10.371  10.836
91135SOL    HW275245  12.701  10.327  10.895
91136SOL     OW75246  10.133  11.519   4.803
91136SOL    HW175247  10.098  11.593   4.753
91136SOL    HW275248  10.164  11.558   4.885
91137SOL     OW75249   0.152   2.110  10.274
91137SOL    HW175250   0.071   2.061  10.281
91137SOL    HW275251   0.146   2.176  10.342
91138SOL     OW75252   7.206  12.105  13.955
91138SOL    HW175253   7.158  12.186  13.972
91138SOL    HW275254   7.195  12.089  13.862
91139SOL     OW75255   8.208   5.819  12.023
91139SOL    HW175256   8.131   5.877  12.025
91139SOL    HW275257   8.173   5.734  11.998
91140SOL     OW75258  14.595   4.242   6.540
91140SOL    HW175259  14.588   4.322   6.591
91140SOL    HW275260  14.681   4.207   6.562
91141SOL     OW75261   2.201   3.360  10.817
91141SOL    HW175262   2.124   3.405  10.852
91141SOL    HW275263   2.232   3.306  10.890
91142SOL     OW75264   2.128  12.653   7.512
91142SOL    HW175265   2.151  12.634   7.420
91142SOL    HW275266   2.073  12.579   7.538
91143SOL     OW75267   7.322   4.593  14.641
91143SOL    HW175268   7.258   4.650  14.598
91143SOL    HW275269   7.389   4.577  14.574
91144SOL     OW75270   9.819  10.583   4.485
91144SOL    HW175271   9.861  10.669   4.493
91144SOL    HW275272   9.764  10.576   4.563
91145SOL     OW75273  10.512   2.947   7.647
91145SOL    HW175274  10.572   3.021   7.659
91145SOL    HW275275  10.533   2.888   7.720
91146SOL     OW75276  14.526   1.715  12.358
91146SOL    HW175277  14.528   1.716  12.454
91146SOL    HW275278  14.564   1.799  12.332
91147SOL     OW75279   1.394  12.798  12.110
91147SOL    HW175280   1.346  12.878  12.091
91147SOL    HW275281   1.326  12.731  12.118
91148SOL     OW75282   3.587  12.530   0.534
91148SOL    HW175283   3.544  12.588   0.597
91148SOL    HW275284   3.666  12.500   0.579
91149SOL     OW75285  11.269   1.890  11.161
91149SOL    HW175286  11.279   1.832  11.237
91149SOL    HW275287  11.344   1.868  11.105
91150SOL     OW75288  14.494  13.699  10.958
91150SOL    HW175289  14.589  13.692  10.968
91150SOL    HW275290  14.459  13.624  11.007
91151SOL     OW75291   2.249   2.977  13.603
91151SOL    HW175292   2.265   3.043  13.535
91151SOL    HW275293   2.329   2.924  13.604
91152SOL     OW75294  11.182   4.527   1.283
91152SOL    HW175295  11.232   4.579   1.346
91152SOL    HW275296  11.113   4.486   1.336
91153SOL     OW75297  13.756   1.179  13.739
91153SOL    HW175298  13.719   1.227  13.666
91153SOL    HW275299  13.761   1.088  13.708
91154SOL     OW75300  10.712   0.605   7.449
91154SOL    HW175301  10.793   0.627   7.404
91154SOL    HW275302  10.653   0.575   7.379
91155SOL     OW75303  10.214  14.432   4.661
91155SOL    HW175304  10.293  14.423   4.714
91155SOL    HW275305  10.247  14.447   4.572
91156SOL     OW75306  10.379   5.086  10.273
91156SOL    HW175307  10.427   5.018  10.226
91156SOL    HW275308  10.428   5.098  10.355
91157SOL     OW75309   9.055   9.324  12.357
91157SOL    HW175310   9.015   9.405  12.326
91157SOL    HW275311   9.131   9.311  12.300
91158SOL     OW75312   6.903   6.078   8.489
91158SOL    HW175313   6.940   5.990   8.492
91158SOL    HW275314   6.887   6.094   8.396
91159SOL     OW75315  11.339   0.519   6.554
91159SOL    HW175316  11.307   0.603   6.588
91159SOL    HW275317  11.416   0.499   6.607
91160SOL     OW75318   2.160  10.795   3.664
91160SOL    HW175319   2.096  10.731   3.695
91160SOL    HW275320   2.237  10.780   3.719
91161SOL     OW75321   9.270  13.663   3.271
91161SOL    HW175322   9.319  13.609   3.333
91161SOL    HW275323   9.230  13.732   3.325
91162SOL     OW75324  11.039  11.378   6.078
91162SOL    HW175325  11.068  11.466   6.104
91162SOL    HW275326  11.121  11.329   6.066
91163SOL     OW75327   4.052   6.665  11.240
91163SOL    HW175328   4.115   6.687  11.171
91163SOL    HW275329   4.094   6.594  11.289
91164SOL     OW75330   5.589   6.913   2.040
91164SOL    HW175331   5.573   6.893   2.132
91164SOL    HW275332   5.560   7.003   2.030
91165SOL     OW75333   7.154   5.054   4.205
91165SOL    HW175334   7.083   5.114   4.181
91165SOL    HW275335   7.221   5.110   4.244
91166SOL     OW75336   0.038  11.218  13.088
91166SOL    HW175337  14.853  11.274  13.128
91166SOL    HW275338  14.874  11.136  13.070
91167SOL     OW75339   7.570   1.553   5.520
91167SOL    HW175340   7.629   1.493   5.567
91167SOL    HW275341   7.603   1.552   5.430
91168SOL     OW75342  14.072  11.020   4.697
91168SOL    HW175343  14.149  11.077   4.701
91168SOL    HW275344  14.100  10.939   4.741
91169SOL     OW75345  10.176  13.372   8.130
91169SOL    HW175346  10.202  13.328   8.211
91169SOL    HW275347  10.083  13.392   8.142
91170SOL     OW75348   0.340   4.274  10.651
91170SOL    HW175349   0.389   4.238  10.725
91170SOL    HW275350   0.261   4.311  10.691
91171SOL     OW75351   8.377   0.735   0.822
91171SOL    HW175352   8.379   0.758   0.730
91171SOL    HW275353   8.289   0.758   0.852
91172SOL     OW75354  11.678   7.385  12.720
91172SOL    HW175355  11.662   7.305  12.771
91172SOL    HW275356  11.729   7.356  12.645
91173SOL     OW75357   7.163   0.278   2.808
91173SOL    HW175358   7.095   0.345   2.804
91173SOL    HW275359   7.233   0.319   2.860
91174SOL     OW75360   4.928  12.392  14.833
91174SOL    HW175361   4.989  12.466  14.826
91174SOL    HW275362   4.980  12.320  14.868
91175SOL     OW75363   8.296  12.626   8.983
91175SOL    HW175364   8.364  12.619   8.916
91175SOL    HW275365   8.344  12.636   9.065
91176SOL     OW75366   4.704   0.841  11.569
91176SOL    HW175367   4.763   0.776  11.531
91176SOL    HW275368   4.631   0.846  11.507
91177SOL     OW75369   5.792   9.075  10.821
91177SOL    HW175370   5.711   9.025  10.814
91177SOL    HW275371   5.775   9.141  10.888
91178SOL     OW75372   5.682   1.493   0.104
91178SOL    HW175373   5.598   1.541   0.098
91178SOL    HW275374   5.657   1.401   0.104
91179SOL     OW75375   3.016   9.629   5.810
91179SOL    HW175376   2.997   9.709   5.761
91179SOL    HW275377   3.029   9.659   5.900
91180SOL     OW75378  13.020   6.760   0.427
91180SOL    HW175379  12.998   6.776   0.519
91180SOL    HW275380  13.093   6.819   0.409
91181SOL     OW75381  12.725   2.591   0.331
91181SOL    HW175382  12.661   2.661   0.319
91181SOL    HW275383  12.765   2.609   0.416
91182SOL     OW75384   4.442   5.329   0.817
91182SOL    HW175385   4.521   5.302   0.864
91182SOL    HW275386   4.463   5.317   0.725
91183SOL     OW75387   6.592  11.753  12.777
91183SOL    HW175388   6.633  11.793  12.700
91183SOL    HW275389   6.631  11.666  12.781
91184SOL     OW75390   6.257  12.861   7.974
91184SOL    HW175391   6.234  12.833   7.885
91184SOL    HW275392   6.189  12.925   7.997
91185SOL     OW75393   7.078   0.666  11.255
91185SOL    HW175394   7.076   0.677  11.350
91185SOL    HW275395   7.041   0.748  11.222
91186SOL     OW75396  14.550   1.902   3.960
91186SOL    HW175397  14.562   1.961   4.035
91186SOL    HW275398  14.566   1.957   3.884
91187SOL     OW75399   2.976   5.502   8.519
91187SOL    HW175400   2.900   5.467   8.566
91187SOL    HW275401   3.001   5.580   8.570
91188SOL     OW75402   9.931  10.296  11.940
91188SOL    HW175403  10.002  10.267  11.997
91188SOL    HW275404   9.880  10.356  11.994
91189SOL     OW75405   9.463   7.893   0.788
91189SOL    HW175406   9.470   7.927   0.877
91189SOL    HW275407   9.535   7.830   0.781
91190SOL     OW75408   8.287   0.547  10.218
91190SOL    HW175409   8.328   0.517  10.137
91190SOL    HW275410   8.341   0.510  10.288
91191SOL     OW75411  10.132  14.215  12.507
91191SOL    HW175412  10.132  14.223  12.411
91191SOL    HW275413  10.207  14.159  12.526
91192SOL     OW75414   2.525  14.539  13.008
91192SOL    HW175415   2.545  14.633  13.018
91192SOL    HW275416   2.524  14.525  12.914
91193SOL     OW75417   9.848   2.884  12.341
91193SOL    HW175418   9.787   2.820  12.303
91193SOL    HW275419   9.810   2.906  12.426
91194SOL     OW75420   0.430  10.065   8.132
91194SOL    HW175421   0.490   9.991   8.130
91194SOL    HW275422   0.345  10.028   8.108
91195SOL     OW75423   2.583   8.283  12.453
91195SOL    HW175424   2.664   8.267  12.502
91195SOL    HW275425   2.562   8.375  12.472
91196SOL     OW75426   7.521   0.318   7.222
91196SOL    HW175427   7.611   0.352   7.219
91196SOL    HW275428   7.467   0.387   7.185
91197SOL     OW75429   0.927  12.877   9.833
91197SOL    HW175430   1.016  12.867   9.799
91197SOL    HW275431   0.932  12.850   9.924
91198SOL     OW75432  11.434   1.914   9.614
91198SOL    HW175433  11.405   2.002   9.591
91198SOL    HW275434  11.458   1.874   9.530
91199SOL     OW75435   7.665  13.225  11.337
91199SOL    HW175436   7.598  13.192  11.398
91199SOL    HW275437   7.684  13.313  11.367
91200SOL     OW75438   8.365  13.309   4.252
91200SOL    HW175439   8.321  13.250   4.314
91200SOL    HW275440   8.298  13.374   4.230
91201SOL     OW75441   2.042   4.043   9.483
91201SOL    HW175442   2.028   4.119   9.540
91201SOL    HW275443   1.960   3.995   9.488
91202SOL     OW75444   1.448  12.762   9.414
91202SOL    HW175445   1.375  12.820   9.433
91202SOL    HW275446   1.514  12.819   9.374
91203SOL     OW75447   8.968  11.166  12.326
91203SOL    HW175448   9.015  11.249  12.321
91203SOL    HW275449   8.883  11.189  12.364
91204SOL     OW75450   6.261   6.007  12.247
91204SOL    HW175451   6.339   5.959  12.274
91204SOL    HW275452   6.200   5.996  12.320
91205SOL     OW75453   4.536   4.345  14.521
91205SOL    HW175454   4.484   4.404  14.576
91205SOL    HW275455   4.558   4.272  14.579
91206SOL     OW75456  14.598   1.458  14.191
91206SOL    HW175457  14.679   1.451  14.241
91206SOL    HW275458  14.613   1.531  14.130
91207SOL     OW75459   0.306  12.773  10.498
91207SOL    HW175460   0.299  12.702  10.562
91207SOL    HW275461   0.384  12.822  10.524
91208SOL     OW75462   2.176  12.414   8.714
91208SOL    HW175463   2.084  12.434   8.699
91208SOL    HW275464   2.192  12.335   8.662
91209SOL     OW75465   1.345  11.111   3.453
91209SOL    HW175466   1.295  11.171   3.397
91209SOL    HW275467   1.406  11.168   3.501
91210SOL     OW75468  13.424   0.581  10.926
91210SOL    HW175469  13.377   0.567  11.009
91210SOL    HW275470  13.454   0.493  10.901
91211SOL     OW75471  12.702   1.944   6.530
91211SOL    HW175472  12.688   2.005   6.602
91211SOL    HW275473  12.678   1.993   6.451
91212SOL     OW75474   2.054   2.939   9.186
91212SOL    HW175475   2.079   2.868   9.127
91212SOL    HW275476   2.059   2.900   9.273
91213SOL     OW75477  13.049   7.406   8.515
91213SOL    HW175478  12.983   7.425   8.448
91213SOL    HW275479  13.035   7.472   8.583
91214SOL     OW75480   4.581   3.874  14.144
91214SOL    HW175481   4.537   3.959  14.136
91214SOL    HW275482   4.652   3.878  14.080
91215SOL     OW75483   3.296   8.468   0.145
91215SOL    HW175484   3.229   8.497   0.083
91215SOL    HW275485   3.345   8.401   0.097
91216SOL     OW75486   9.533  10.584   6.708
91216SOL    HW175487   9.563  10.571   6.798
91216SOL    HW275488   9.517  10.496   6.674
91217SOL     OW75489  11.166   5.728  14.650
91217SOL    HW175490  11.127   5.672  14.583
91217SOL    HW275491  11.260   5.729  14.628
91218SOL     OW75492   8.386   6.960   0.305
91218SOL    HW175493   8.450   6.980   0.237
91218SOL    HW275494   8.316   7.025   0.292
91219SOL     OW75495  12.767   1.928   3.976
91219SOL    HW175496  12.817   1.881   3.909
91219SOL    HW275497  12.785   1.881   4.057
91220SOL     OW75498  12.826   0.329  11.663
91220SOL    HW175499  12.753   0.381  11.696
91220SOL    HW275500  12.903   0.365  11.708
91221SOL     OW75501  11.728  10.287   4.969
91221SOL    HW175502  11.710  10.306   5.061
91221SOL    HW275503  11.704  10.194   4.959
91222SOL     OW75504  14.479   4.594   2.416
91222SOL    HW175505  14.402   4.603   2.360
91222SOL    HW275506  14.474   4.504   2.450
91223SOL     OW75507  12.782   9.873   3.773
91223SOL    HW175508  12.801   9.873   3.679
91223SOL    HW275509  12.752   9.963   3.791
91224SOL     OW75510   9.127   9.486  11.963
91224SOL    HW175511   9.087   9.403  11.937
91224SOL    HW275512   9.055   9.549  11.963
91225SOL     OW75513   8.546   3.641   9.359
91225SOL    HW175514   8.536   3.735   9.374
91225SOL    HW275515   8.549   3.603   9.446
91226SOL     OW75516   4.861   8.807   7.849
91226SOL    HW175517   4.813   8.739   7.896
91226SOL    HW275518   4.911   8.760   7.782
91227SOL     OW75519  12.382   2.590   6.521
91227SOL    HW175520  12.323   2.599   6.446
91227SOL    HW275521  12.325   2.596   6.598
91228SOL     OW75522   9.781  11.983   2.923
91228SOL    HW175523   9.847  11.913   2.925
91228SOL    HW275524   9.790  12.023   2.837
91229SOL     OW75525   4.487   9.262  13.021
91229SOL    HW175526   4.487   9.357  13.004
91229SOL    HW275527   4.482   9.255  13.116
91230SOL     OW75528  13.079   8.227   7.023
91230SOL    HW175529  13.006   8.237   7.083
91230SOL    HW275530  13.069   8.298   6.960
91231SOL     OW75531   7.159  10.201   2.819
91231SOL    HW175532   7.075  10.216   2.861
91231SOL    HW275533   7.152  10.113   2.781
91232SOL     OW75534  11.125   1.553   5.871
91232SOL    HW175535  11.043   1.508   5.889
91232SOL    HW275536  11.145   1.601   5.951
91233SOL     OW75537   9.058   8.259   1.357
91233SOL    HW175538   9.010   8.185   1.320
91233SOL    HW275539   9.140   8.222   1.389
91234SOL     OW75540  13.876   4.241  10.711
91234SOL    HW175541  13.876   4.325  10.664
91234SOL    HW275542  13.784   4.226  10.732
91235SOL     OW75543   2.092   0.193  12.125
91235SOL    HW175544   2.079   0.137  12.201
91235SOL    HW275545   2.160   0.150  12.074
91236SOL     OW75546   3.970   8.442   6.871
91236SOL    HW175547   3.941   8.530   6.848
91236SOL    HW275548   4.017   8.410   6.794
91237SOL     OW75549   3.332   9.801  11.333
91237SOL    HW175550   3.417   9.840  11.351
91237SOL    HW275551   3.272   9.876  11.326
91238SOL     OW75552   0.251  13.860  11.155
91238SOL    HW175553   0.322  13.884  11.096
91238SOL    HW275554   0.207  13.943  11.174
91239SOL     OW75555   2.093  12.855   9.330
91239SOL    HW175556   2.051  12.855   9.245
91239SOL    HW275557   2.182  12.824   9.312
91240SOL     OW75558   8.612  12.351   3.597
91240SOL    HW175559   8.675  12.279   3.602
91240SOL    HW275560   8.545  12.329   3.662
91241SOL     OW75561   2.497  11.861  10.357
91241SOL    HW175562   2.556  11.924  10.315
91241SOL    HW275563   2.414  11.870  10.309
91242SOL     OW75564   7.519   7.029   9.229
91242SOL    HW175565   7.493   6.978   9.151
91242SOL    HW275566   7.455   7.005   9.295
91243SOL     OW75567  12.706  14.368   3.076
91243SOL    HW175568  12.715  14.272   3.074
91243SOL    HW275569  12.795  14.399   3.096
91244SOL     OW75570   0.237   8.730   2.618
91244SOL    HW175571   0.319   8.769   2.649
91244SOL    HW275572   0.172   8.757   2.683
91245SOL     OW75573  11.478   1.625   3.003
91245SOL    HW175574  11.487   1.530   3.010
91245SOL    HW275575  11.479   1.642   2.909
91246SOL     OW75576  11.515   4.196   8.982
91246SOL    HW175577  11.479   4.185   9.071
91246SOL    HW275578  11.438   4.190   8.925
91247SOL     OW75579   8.975   8.945  11.191
91247SOL    HW175580   9.025   8.992  11.259
91247SOL    HW275581   8.964   8.857  11.226
91248SOL     OW75582  10.072   1.925  10.123
91248SOL    HW175583  10.031   1.844  10.095
91248SOL    HW275584  10.145   1.938  10.061
91249SOL     OW75585  12.041   2.667   4.332
91249SOL    HW175586  11.995   2.630   4.408
91249SOL    HW275587  12.032   2.599   4.264
91250SOL     OW75588   3.683   8.552  11.282
91250SOL    HW175589   3.674   8.558  11.187
91250SOL    HW275590   3.670   8.642  11.312
91251SOL     OW75591   6.502   5.496   5.702
91251SOL    HW175592   6.598   5.489   5.702
91251SOL    HW275593   6.483   5.577   5.657
91252SOL     OW75594   1.607   0.483   6.148
91252SOL    HW175595   1.576   0.407   6.100
91252SOL    HW275596   1.566   0.558   6.103
91253SOL     OW75597   3.856  10.249   1.744
91253SOL    HW175598   3.762  10.268   1.743
91253SOL    HW275599   3.882  10.260   1.835
91254SOL     OW75600   5.416   1.850  13.042
91254SOL    HW175601   5.371   1.892  13.115
91254SOL    HW275602   5.405   1.911  12.969
91255SOL     OW75603   4.030  11.778   9.297
91255SOL    HW175604   4.002  11.786   9.205
91255SOL    HW275605   3.955  11.810   9.348
91256SOL     OW75606  12.327   4.174   5.983
91256SOL    HW175607  12.329   4.255   6.034
91256SOL    HW275608  12.406   4.178   5.929
91257SOL     OW75609   3.437  11.398   0.230
91257SOL    HW175610   3.377  11.370   0.160
91257SOL    HW275611   3.399  11.480   0.263
91258SOL     OW75612   3.329   2.997   1.217
91258SOL    HW175613   3.376   2.942   1.280
91258SOL    HW275614   3.361   2.968   1.132
91259SOL     OW75615  10.945   0.175   1.920
91259SOL    HW175616  11.015   0.182   1.984
91259SOL    HW275617  10.889   0.104   1.953
91260SOL     OW75618  12.415   0.345   2.874
91260SOL    HW175619  12.390   0.345   2.781
91260SOL    HW275620  12.332   0.354   2.921
91261SOL     OW75621  13.385   0.263   3.303
91261SOL    HW175622  13.332   0.186   3.321
91261SOL    HW275623  13.323   0.336   3.304
91262SOL     OW75624  11.836  10.827   8.567
91262SOL    HW175625  11.870  10.758   8.510
91262SOL    HW275626  11.779  10.781   8.628
91263SOL     OW75627  10.553   7.755   1.269
91263SOL    HW175628  10.529   7.787   1.182
91263SOL    HW275629  10.515   7.818   1.329
91264SOL     OW75630  11.990   7.818  14.796
91264SOL    HW175631  12.034   7.771  14.725
91264SOL    HW275632  11.957   7.898  14.756
91265SOL     OW75633  12.879   4.133   1.471
91265SOL    HW175634  12.851   4.043   1.491
91265SOL    HW275635  12.865   4.180   1.553
91266SOL     OW75636   1.782   7.356   0.574
91266SOL    HW175637   1.720   7.428   0.587
91266SOL    HW275638   1.866   7.393   0.599
91267SOL     OW75639   6.749  11.736   5.250
91267SOL    HW175640   6.755  11.723   5.345
91267SOL    HW275641   6.667  11.694   5.226
91268SOL     OW75642   3.694  10.957   9.443
91268SOL    HW175643   3.689  11.053   9.443
91268SOL    HW275644   3.608  10.927   9.471
91269SOL     OW75645   2.737   5.587  12.818
91269SOL    HW175646   2.825   5.612  12.791
91269SOL    HW275647   2.715   5.649  12.887
91270SOL     OW75648   5.881  10.793   0.929
91270SOL    HW175649   5.939  10.847   0.983
91270SOL    HW275650   5.818  10.757   0.992
91271SOL     OW75651   1.003   3.343   0.164
91271SOL    HW175652   1.063   3.382   0.101
91271SOL    HW275653   0.916   3.370   0.133
91272SOL     OW75654   4.187   0.116  14.085
91272SOL    HW175655   4.104   0.133  14.130
91272SOL    HW275656   4.254   0.125  14.152
91273SOL     OW75657   8.174   4.417   9.503
91273SOL    HW175658   8.192   4.331   9.466
91273SOL    HW275659   8.113   4.400   9.575
91274SOL     OW75660  10.540  13.284   7.355
91274SOL    HW175661  10.470  13.230   7.392
91274SOL    HW275662  10.609  13.282   7.422
91275SOL     OW75663   5.661   3.103  13.682
91275SOL    HW175664   5.601   3.069  13.616
91275SOL    HW275665   5.628   3.190  13.703
91276SOL     OW75666  14.091  10.571  12.682
91276SOL    HW175667  14.032  10.529  12.743
91276SOL    HW275668  14.152  10.621  12.737
91277SOL     OW75669  14.154   5.148   2.479
91277SOL    HW175670  14.160   5.094   2.400
91277SOL    HW275671  14.062   5.175   2.483
91278SOL     OW75672  14.711   9.818   1.074
91278SOL    HW175673  14.799   9.818   1.112
91278SOL    HW275674  14.677   9.730   1.092
91279SOL     OW75675   9.224   9.547   0.985
91279SOL    HW175676   9.226   9.620   0.923
91279SOL    HW275677   9.194   9.586   1.067
91280SOL     OW75678   3.460   3.194   1.694
91280SOL    HW175679   3.516   3.116   1.702
91280SOL    HW275680   3.482   3.229   1.607
91281SOL     OW75681   1.073  13.489   0.620
91281SOL    HW175682   1.003  13.512   0.680
91281SOL    HW275683   1.149  13.472   0.676
91282SOL     OW75684   1.866  13.375   3.160
91282SOL    HW175685   1.831  13.407   3.243
91282SOL    HW275686   1.868  13.452   3.104
91283SOL     OW75687   6.244  13.247   0.859
91283SOL    HW175688   6.205  13.198   0.786
91283SOL    HW275689   6.301  13.311   0.817
91284SOL     OW75690  13.459  10.847   1.003
91284SOL    HW175691  13.423  10.762   0.979
91284SOL    HW275692  13.393  10.910   0.972
91285SOL     OW75693   2.770   2.284  11.741
91285SOL    HW175694   2.736   2.218  11.802
91285SOL    HW275695   2.785   2.235  11.660
91286SOL     OW75696   5.847   0.623   5.801
91286SOL    HW175697   5.894   0.568   5.738
91286SOL    HW275698   5.913   0.685   5.833
91287SOL     OW75699   2.253   6.518  13.744
91287SOL    HW175700   2.221   6.607  13.759
91287SOL    HW275701   2.348   6.525  13.746
91288SOL     OW75702   2.622   8.005   0.739
91288SOL    HW175703   2.625   7.946   0.664
91288SOL    HW275704   2.565   8.076   0.712
91289SOL     OW75705  14.431   8.229   9.297
91289SOL    HW175706  14.362   8.208   9.360
91289SOL    HW275707  14.468   8.144   9.273
91290SOL     OW75708  11.264   1.507   8.072
91290SOL    HW175709  11.301   1.463   7.995
91290SOL    HW275710  11.325   1.579   8.089
91291SOL     OW75711   2.363   2.916  13.982
91291SOL    HW175712   2.442   2.872  13.950
91291SOL    HW275713   2.395   2.997  14.023
91292SOL     OW75714  11.059   1.997  10.632
91292SOL    HW175715  11.012   2.064  10.681
91292SOL    HW275716  11.143   1.989  10.677
91293SOL     OW75717  10.234   3.973   4.387
91293SOL    HW175718  10.200   3.905   4.329
91293SOL    HW275719  10.239   3.931   4.473
91294SOL     OW75720  11.887   1.502   5.760
91294SOL    HW175721  11.943   1.485   5.835
91294SOL    HW275722  11.876   1.597   5.759
91295SOL     OW75723  11.500  14.273  10.821
91295SOL    HW175724  11.420  14.275  10.873
91295SOL    HW275725  11.552  14.347  10.853
91296SOL     OW75726   4.887  10.563   6.568
91296SOL    HW175727   4.800  10.527   6.586
91296SOL    HW275728   4.877  10.658   6.582
91297SOL     OW75729   7.719   8.704   8.987
91297SOL    HW175730   7.767   8.624   9.008
91297SOL    HW275731   7.644   8.704   9.046
91298SOL     OW75732   3.429  13.982   5.768
91298SOL    HW175733   3.392  14.022   5.847
91298SOL    HW275734   3.402  13.890   5.773
91299SOL     OW75735   3.331   9.275   2.226
91299SOL    HW175736   3.368   9.271   2.138
91299SOL    HW275737   3.311   9.367   2.240
91300SOL     OW75738   6.819  13.184   6.272
91300SOL    HW175739   6.761  13.201   6.346
91300SOL    HW275740   6.859  13.100   6.292
91301SOL     OW75741   7.794   8.029  10.956
91301SOL    HW175742   7.822   8.106  11.006
91301SOL    HW275743   7.717   7.996  11.003
91302SOL     OW75744   5.284  13.512  14.857
91302SOL    HW175745   5.311  13.421  14.851
91302SOL    HW275746   5.354  13.556   0.022
91303SOL     OW75747   6.677   0.904   5.827
91303SOL    HW175748   6.590   0.929   5.795
91303SOL    HW275749   6.679   0.808   5.816
91304SOL     OW75750   8.667   0.657   6.801
91304SOL    HW175751   8.699   0.740   6.766
91304SOL    HW275752   8.727   0.592   6.766
91305SOL     OW75753  10.475   6.355  11.486
91305SOL    HW175754  10.502   6.269  11.455
91305SOL    HW275755  10.399   6.338  11.541
91306SOL     OW75756   7.950   1.470   5.019
91306SOL    HW175757   7.989   1.461   4.932
91306SOL    HW275758   7.876   1.410   5.018
91307SOL     OW75759   4.861  13.882  13.591
91307SOL    HW175760   4.807  13.891  13.669
91307SOL    HW275761   4.799  13.875  13.519
91308SOL     OW75762   0.687   0.169   0.160
91308SOL    HW175763   0.738   0.144   0.083
91308SOL    HW275764   0.604   0.123   0.150
91309SOL     OW75765   5.077  10.162   6.321
91309SOL    HW175766   5.011  10.231   6.324
91309SOL    HW275767   5.085  10.132   6.411
91310SOL     OW75768  13.090   0.271   3.525
91310SOL    HW175769  13.004   0.300   3.492
91310SOL    HW275770  13.121   0.209   3.459
91311SOL     OW75771   3.680   7.492   6.572
91311SOL    HW175772   3.606   7.512   6.629
91311SOL    HW275773   3.714   7.409   6.605
91312SOL     OW75774   5.344  11.531   2.384
91312SOL    HW175775   5.359  11.437   2.378
91312SOL    HW275776   5.379  11.567   2.303
91313SOL     OW75777   7.375   9.588   1.498
91313SOL    HW175778   7.283   9.586   1.469
91313SOL    HW275779   7.390   9.501   1.534
91314SOL     OW75780  13.494   6.808   3.993
91314SOL    HW175781  13.450   6.864   4.057
91314SOL    HW275782  13.485   6.854   3.910
91315SOL     OW75783   9.017   2.321   9.162
91315SOL    HW175784   8.929   2.287   9.176
91315SOL    HW275785   9.033   2.377   9.238
91316SOL     OW75786  10.769   0.970  14.752
91316SOL    HW175787  10.753   0.892  14.805
91316SOL    HW275788  10.684   1.012  14.744
91317SOL     OW75789   2.680  11.637   6.662
91317SOL    HW175790   2.612  11.703   6.648
91317SOL    HW275791   2.751  11.685   6.705
91318SOL     OW75792  14.782  14.600  12.838
91318SOL    HW175793  14.786  14.632  12.928
91318SOL    HW275794  14.704  14.546  12.834
91319SOL     OW75795  13.144   6.360  14.473
91319SOL    HW175796  13.180   6.442  14.506
91319SOL    HW275797  13.055   6.383  14.445
91320SOL     OW75798   7.037   2.410  12.320
91320SOL    HW175799   7.062   2.475  12.254
91320SOL    HW275800   7.108   2.347  12.320
91321SOL     OW75801   1.051   2.523   5.082
91321SOL    HW175802   1.142   2.552   5.085
91321SOL    HW275803   1.006   2.577   5.146
91322SOL     OW75804   4.823   6.921   0.216
91322SOL    HW175805   4.800   6.873   0.136
91322SOL    HW275806   4.845   6.853   0.279
91323SOL     OW75807   9.913  12.532   6.300
91323SOL    HW175808   9.984  12.596   6.295
91323SOL    HW275809   9.840  12.573   6.253
91324SOL     OW75810   3.379   1.347  11.623
91324SOL    HW175811   3.322   1.424  11.636
91324SOL    HW275812   3.465   1.376  11.653
91325SOL     OW75813  10.062   6.201   1.097
91325SOL    HW175814  10.048   6.211   1.192
91325SOL    HW275815   9.992   6.143   1.069
91326SOL     OW75816   1.556  10.116  11.064
91326SOL    HW175817   1.544  10.210  11.080
91326SOL    HW275818   1.574  10.080  11.151
91327SOL     OW75819  10.734   9.118  11.837
91327SOL    HW175820  10.735   9.023  11.823
91327SOL    HW275821  10.658   9.133  11.892
91328SOL     OW75822   6.178  13.699   5.788
91328SOL    HW175823   6.201  13.760   5.717
91328SOL    HW275824   6.084  13.710   5.799
91329SOL     OW75825   0.769   0.763   1.788
91329SOL    HW175826   0.813   0.793   1.709
91329SOL    HW275827   0.784   0.832   1.853
91330SOL     OW75828   8.835  11.746  12.756
91330SOL    HW175829   8.862  11.825  12.803
91330SOL    HW275830   8.916  11.696  12.746
91331SOL     OW75831  11.101  13.868   4.789
91331SOL    HW175832  11.114  13.961   4.773
91331SOL    HW275833  11.123  13.826   4.705
91332SOL     OW75834  13.090  13.251   0.504
91332SOL    HW175835  13.163  13.254   0.443
91332SOL    HW275836  13.131  13.241   0.590
91333SOL     OW75837  12.099  14.052  14.051
91333SOL    HW175838  12.130  14.143  14.048
91333SOL    HW275839  12.179  13.999  14.045
91334SOL     OW75840   1.778   5.708   7.822
91334SOL    HW175841   1.840   5.781   7.826
91334SOL    HW275842   1.745   5.710   7.732
91335SOL     OW75843   0.900   1.153   8.188
91335SOL    HW175844   0.985   1.149   8.232
91335SOL    HW275845   0.919   1.132   8.096
91336SOL     OW75846   0.751   5.434   7.683
91336SOL    HW175847   0.669   5.471   7.715
91336SOL    HW275848   0.788   5.502   7.627
91337SOL     OW75849   4.987   9.977   7.493
91337SOL    HW175850   5.082   9.979   7.481
91337SOL    HW275851   4.974   9.998   7.586
91338SOL     OW75852  11.313   0.422   5.562
91338SOL    HW175853  11.273   0.363   5.626
91338SOL    HW275854  11.240   0.448   5.505
91339SOL     OW75855   8.461   2.653   3.316
91339SOL    HW175856   8.492   2.698   3.237
91339SOL    HW275857   8.516   2.575   3.322
91340SOL     OW75858   3.119  11.947   7.391
91340SOL    HW175859   3.186  11.938   7.324
91340SOL    HW275860   3.164  11.986   7.466
91341SOL     OW75861  10.187   3.458  10.952
91341SOL    HW175862  10.125   3.498  11.014
91341SOL    HW275863  10.214   3.377  10.994
91342SOL     OW75864  11.808  10.221   6.368
91342SOL    HW175865  11.889  10.241   6.322
91342SOL    HW275866  11.807  10.279   6.443
91343SOL     OW75867  14.637  10.774   3.181
91343SOL    HW175868  14.614  10.699   3.235
91343SOL    HW275869  14.557  10.826   3.175
91344SOL     OW75870  12.239   2.436  12.301
91344SOL    HW175871  12.289   2.508  12.264
91344SOL    HW275872  12.156   2.476  12.328
91345SOL     OW75873   9.163  10.617  13.593
91345SOL    HW175874   9.254  10.587  13.582
91345SOL    HW275875   9.132  10.631  13.504
91346SOL     OW75876   8.742   9.954   5.202
91346SOL    HW175877   8.649   9.966   5.223
91346SOL    HW275878   8.750   9.981   5.111
91347SOL     OW75879   3.515   3.718  13.574
91347SOL    HW175880   3.526   3.671  13.491
91347SOL    HW275881   3.594   3.698  13.623
91348SOL     OW75882   8.605   4.928   0.343
91348SOL    HW175883   8.577   5.020   0.340
91348SOL    HW275884   8.528   4.881   0.375
91349SOL     OW75885   6.349   1.921  11.929
91349SOL    HW175886   6.345   2.012  11.898
91349SOL    HW275887   6.427   1.885  11.887
91350SOL     OW75888   3.565   2.490   8.872
91350SOL    HW175889   3.529   2.579   8.878
91350SOL    HW275890   3.544   2.461   8.783
91351SOL     OW75891   9.439   2.382  14.822
91351SOL    HW175892   9.527   2.407  14.796
91351SOL    HW275893   9.448   2.294  14.859
91352SOL     OW75894   7.176   1.372  13.138
91352SOL    HW175895   7.164   1.467  13.126
91352SOL    HW275896   7.192   1.361  13.232
91353SOL     OW75897   9.577   9.776  11.174
91353SOL    HW175898   9.587   9.686  11.142
91353SOL    HW275899   9.495   9.806  11.134
91354SOL     OW75900   4.191   6.997   4.051
91354SOL    HW175901   4.152   7.080   4.022
91354SOL    HW275902   4.245   6.970   3.977
91355SOL     OW75903   1.164  11.750   4.425
91355SOL    HW175904   1.099  11.682   4.405
91355SOL    HW275905   1.139  11.824   4.371
91356SOL     OW75906  10.194   2.017   3.269
91356SOL    HW175907  10.248   1.967   3.208
91356SOL    HW275908  10.186   2.103   3.229
91357SOL     OW75909  11.204   7.962   9.729
91357SOL    HW175910  11.193   8.047   9.688
91357SOL    HW275911  11.279   7.973   9.787
91358SOL     OW75912   9.483   2.815  12.615
91358SOL    HW175913   9.428   2.760  12.559
91358SOL    HW275914   9.514   2.756  12.684
91359SOL     OW75915  12.394  13.837  12.824
91359SOL    HW175916  12.374  13.919  12.868
91359SOL    HW275917  12.378  13.854  12.731
91360SOL     OW75918  11.804   3.621   3.001
91360SOL    HW175919  11.768   3.693   2.949
91360SOL    HW275920  11.893   3.610   2.969
91361SOL     OW75921   0.871   4.282   6.870
91361SOL    HW175922   0.927   4.340   6.819
91361SOL    HW275923   0.920   4.200   6.877
91362SOL     OW75924   5.592   3.270   3.566
91362SOL    HW175925   5.655   3.254   3.635
91362SOL    HW275926   5.539   3.190   3.562
91363SOL     OW75927   9.653   0.620  12.148
91363SOL    HW175928   9.664   0.631  12.243
91363SOL    HW275929   9.708   0.688  12.110
91364SOL     OW75930   1.714  11.975  10.399
91364SOL    HW175931   1.680  11.986  10.310
91364SOL    HW275932   1.683  11.888  10.426
91365SOL     OW75933   9.164   1.705   8.305
91365SOL    HW175934   9.243   1.665   8.341
91365SOL    HW275935   9.193   1.748   8.225
91366SOL     OW75936   0.174  14.304   7.460
91366SOL    HW175937   0.243  14.239   7.476
91366SOL    HW275938   0.205  14.353   7.384
91367SOL     OW75939  11.215   0.655   4.464
91367SOL    HW175940  11.137   0.678   4.414
91367SOL    HW275941  11.194   0.569   4.502
91368SOL     OW75942  14.661   0.873   6.064
91368SOL    HW175943  14.658   0.918   6.148
91368SOL    HW275944  14.690   0.940   6.002
91369SOL     OW75945   6.198  10.373   6.176
91369SOL    HW175946   6.165  10.286   6.153
91369SOL    HW275947   6.121  10.430   6.174
91370SOL     OW75948   6.013   1.248   1.677
91370SOL    HW175949   6.087   1.248   1.737
91370SOL    HW275950   5.962   1.171   1.701
91371SOL     OW75951   5.831   1.554   3.597
91371SOL    HW175952   5.823   1.544   3.503
91371SOL    HW275953   5.749   1.518   3.632
91372SOL     OW75954  14.620   5.293   9.401
91372SOL    HW175955  14.637   5.235   9.327
91372SOL    HW275956  14.648   5.242   9.478
91373SOL     OW75957   4.211  10.386   7.125
91373SOL    HW175958   4.250  10.306   7.160
91373SOL    HW275959   4.275  10.454   7.143
91374SOL     OW75960  11.893   9.955   9.384
91374SOL    HW175961  11.841   9.877   9.403
91374SOL    HW275962  11.829  10.025   9.374
91375SOL     OW75963   7.079   5.675  14.254
91375SOL    HW175964   7.164   5.718  14.261
91375SOL    HW275965   7.024   5.722  14.317
91376SOL     OW75966   2.095   7.366   0.374
91376SOL    HW175967   2.062   7.396   0.459
91376SOL    HW275968   2.085   7.442   0.317
91377SOL     OW75969   6.589   3.101   0.296
91377SOL    HW175970   6.588   3.190   0.332
91377SOL    HW275971   6.518   3.055   0.342
91378SOL     OW75972   9.510   9.086  11.422
91378SOL    HW175973   9.443   9.147  11.394
91378SOL    HW275974   9.571   9.082  11.348
91379SOL     OW75975   1.411   6.734   1.383
91379SOL    HW175976   1.373   6.815   1.417
91379SOL    HW275977   1.486   6.762   1.332
91380SOL     OW75978   3.445   9.311   6.793
91380SOL    HW175979   3.497   9.265   6.727
91380SOL    HW275980   3.451   9.403   6.768
91381SOL     OW75981  12.663   9.008   4.594
91381SOL    HW175982  12.719   9.064   4.540
91381SOL    HW275983  12.695   9.021   4.683
91382SOL     OW75984   4.969   7.620   2.938
91382SOL    HW175985   4.928   7.651   3.018
91382SOL    HW275986   5.056   7.660   2.938
91383SOL     OW75987   8.354   1.811   0.833
91383SOL    HW175988   8.291   1.853   0.891
91383SOL    HW275989   8.324   1.832   0.745
91384SOL     OW75990   8.434   9.176   3.511
91384SOL    HW175991   8.450   9.186   3.418
91384SOL    HW275992   8.514   9.138   3.546
91385SOL     OW75993   2.890  14.075   9.831
91385SOL    HW175994   2.890  13.983   9.803
91385SOL    HW275995   2.892  14.070   9.927
91386SOL     OW75996  10.335  13.942   8.346
91386SOL    HW175997  10.315  14.026   8.305
91386SOL    HW275998  10.308  13.953   8.437
91387SOL     OW75999   8.569   7.195   4.821
91387SOL    HW176000   8.492   7.152   4.784
91387SOL    HW276001   8.573   7.162   4.911
91388SOL     OW76002  14.264   6.098   0.097
91388SOL    HW176003  14.330   6.134   0.038
91388SOL    HW276004  14.312   6.041   0.156
91389SOL     OW76005  12.953  10.801   8.608
91389SOL    HW176006  12.904  10.764   8.682
91389SOL    HW276007  12.912  10.761   8.531
91390SOL     OW76008  13.306   9.085   0.661
91390SOL    HW176009  13.354   9.021   0.608
91390SOL    HW276010  13.253   9.031   0.720
91391SOL     OW76011  12.937  11.775   2.653
91391SOL    HW176012  12.939  11.714   2.727
91391SOL    HW276013  12.926  11.719   2.577
91392SOL     OW76014   9.549   1.846   0.907
91392SOL    HW176015   9.466   1.799   0.907
91392SOL    HW276016   9.596   1.812   0.831
91393SOL     OW76017  13.854  12.562  12.480
91393SOL    HW176018  13.912  12.626  12.520
91393SOL    HW276019  13.847  12.492  12.545
91394SOL     OW76020  12.022   6.352   2.503
91394SOL    HW176021  12.107   6.313   2.489
91394SOL    HW276022  11.964   6.279   2.524
91395SOL     OW76023   8.692   9.661  10.098
91395SOL    HW176024   8.749   9.589  10.124
91395SOL    HW276025   8.671   9.644  10.007
91396SOL     OW76026   2.829   4.985   8.617
91396SOL    HW176027   2.841   5.014   8.708
91396SOL    HW276028   2.735   4.974   8.608
91397SOL     OW76029   3.546   7.087   5.361
91397SOL    HW176030   3.519   7.175   5.337
91397SOL    HW276031   3.494   7.066   5.439
91398SOL     OW76032   6.431   1.871   7.795
91398SOL    HW176033   6.362   1.894   7.858
91398SOL    HW276034   6.384   1.827   7.724
91399SOL     OW76035  11.780   4.819  11.387
91399SOL    HW176036  11.737   4.736  11.366
91399SOL    HW276037  11.867   4.811  11.348
91400SOL     OW76038   0.805   6.682  11.593
91400SOL    HW176039   0.798   6.590  11.566
91400SOL    HW276040   0.859   6.679  11.672
91401SOL     OW76041  14.514  12.727   2.894
91401SOL    HW176042  14.596  12.725   2.943
91401SOL    HW276043  14.531  12.785   2.820
91402SOL     OW76044   8.839   3.306   1.487
91402SOL    HW176045   8.771   3.315   1.554
91402SOL    HW276046   8.866   3.215   1.492
91403SOL     OW76047   1.132   5.475   1.813
91403SOL    HW176048   1.049   5.513   1.838
91403SOL    HW276049   1.139   5.491   1.719
91404SOL     OW76050   0.353   1.492   5.508
91404SOL    HW176051   0.431   1.442   5.532
91404SOL    HW276052   0.349   1.562   5.574
91405SOL     OW76053  14.005  11.129  14.540
91405SOL    HW176054  14.099  11.145  14.549
91405SOL    HW276055  13.970  11.208  14.498
91406SOL     OW76056  14.074   1.325   6.153
91406SOL    HW176057  14.099   1.240   6.116
91406SOL    HW276058  14.047   1.305   6.242
91407SOL     OW76059   6.531  13.249   7.156
91407SOL    HW176060   6.536  13.260   7.061
91407SOL    HW276061   6.488  13.165   7.169
91408SOL     OW76062  12.518   7.844  14.424
91408SOL    HW176063  12.552   7.910  14.485
91408SOL    HW276064  12.503   7.766  14.478
91409SOL     OW76065   9.662   8.713   6.982
91409SOL    HW176066   9.654   8.808   6.977
91409SOL    HW276067   9.676   8.694   7.075
91410SOL     OW76068   3.042   8.635   4.107
91410SOL    HW176069   3.080   8.609   4.191
91410SOL    HW276070   3.062   8.562   4.048
91411SOL     OW76071   8.213   4.834   2.020
91411SOL    HW176072   8.191   4.742   2.034
91411SOL    HW276073   8.293   4.848   2.071
91412SOL     OW76074   4.480   2.925   2.915
91412SOL    HW176075   4.558   2.971   2.883
91412SOL    HW276076   4.510   2.835   2.931
91413SOL     OW76077   0.182   8.086   6.846
91413SOL    HW176078   0.227   8.006   6.818
91413SOL    HW276079   0.229   8.156   6.801
91414SOL     OW76080  10.080   7.624   3.155
91414SOL    HW176081  10.173   7.612   3.170
91414SOL    HW276082  10.057   7.703   3.205
91415SOL     OW76083   1.939   0.685   6.661
91415SOL    HW176084   1.854   0.651   6.689
91415SOL    HW276085   1.926   0.708   6.568
91416SOL     OW76086   8.372   5.406   3.964
91416SOL    HW176087   8.455   5.378   4.002
91416SOL    HW276088   8.310   5.404   4.037
91417SOL     OW76089  11.943  11.870   9.944
91417SOL    HW176090  11.915  11.850  10.034
91417SOL    HW276091  11.905  11.800   9.891
91418SOL     OW76092   3.498   4.637   3.110
91418SOL    HW176093   3.570   4.649   3.048
91418SOL    HW276094   3.530   4.675   3.191
91419SOL     OW76095   7.227   6.890   2.784
91419SOL    HW176096   7.167   6.902   2.710
91419SOL    HW276097   7.314   6.909   2.748
91420SOL     OW76098  14.414   7.646  11.341
91420SOL    HW176099  14.449   7.633  11.253
91420SOL    HW276100  14.359   7.569  11.356
91421SOL     OW76101   0.731   1.505   7.403
91421SOL    HW176102   0.754   1.576   7.463
91421SOL    HW276103   0.805   1.444   7.409
91422SOL     OW76104   3.616  11.312   8.330
91422SOL    HW176105   3.523  11.330   8.336
91422SOL    HW276106   3.655  11.365   8.399
91423SOL     OW76107   7.160  14.563   1.010
91423SOL    HW176108   7.076  14.582   1.053
91423SOL    HW276109   7.138  14.499   0.943
91424SOL     OW76110   1.678   3.340   3.300
91424SOL    HW176111   1.771   3.327   3.281
91424SOL    HW276112   1.656   3.423   3.259
91425SOL     OW76113  12.566   9.736   3.721
91425SOL    HW176114  12.516   9.701   3.794
91425SOL    HW276115  12.635   9.788   3.762
91426SOL     OW76116   6.094   0.084   8.598
91426SOL    HW176117   6.122   0.137   8.673
91426SOL    HW276118   6.175   0.053   8.559
91427SOL     OW76119  14.295  14.079   8.080
91427SOL    HW176120  14.338  14.071   8.165
91427SOL    HW276121  14.249  13.996   8.068
91428SOL     OW76122   8.488  10.971   7.043
91428SOL    HW176123   8.490  10.882   7.007
91428SOL    HW276124   8.578  11.003   7.034
91429SOL     OW76125  13.820   1.997  11.016
91429SOL    HW176126  13.796   2.089  11.020
91429SOL    HW276127  13.747   1.955  10.972
91430SOL     OW76128  13.870   5.426  12.627
91430SOL    HW176129  13.911   5.415  12.541
91430SOL    HW276130  13.901   5.350  12.677
91431SOL     OW76131  11.321   2.870   2.632
91431SOL    HW176132  11.339   2.894   2.541
91431SOL    HW276133  11.389   2.913   2.683
91432SOL     OW76134   9.902   3.862  12.224
91432SOL    HW176135   9.978   3.893  12.274
91432SOL    HW276136   9.896   3.769  12.246
91433SOL     OW76137   8.882   2.177   8.697
91433SOL    HW176138   8.880   2.242   8.626
91433SOL    HW276139   8.848   2.097   8.657
91434SOL     OW76140   3.395  11.822   5.737
91434SOL    HW176141   3.423  11.872   5.813
91434SOL    HW276142   3.477  11.799   5.692
91435SOL     OW76143  13.207   7.105   7.473
91435SOL    HW176144  13.225   7.188   7.516
91435SOL    HW276145  13.142   7.062   7.528
91436SOL     OW76146   0.527  10.850   9.973
91436SOL    HW176147   0.577  10.811  10.044
91436SOL    HW276148   0.498  10.934  10.007
91437SOL     OW76149   2.788  14.419  14.694
91437SOL    HW176150   2.848  14.452  14.761
91437SOL    HW276151   2.792  14.324  14.702
91438SOL     OW76152   5.239   0.089   9.652
91438SOL    HW176153   5.266   0.092   9.743
91438SOL    HW276154   5.209   0.178   9.633
91439SOL     OW76155  10.504  14.545   7.092
91439SOL    HW176156  10.542  14.589   7.168
91439SOL    HW276157  10.449  14.611   7.051
91440SOL     OW76158   1.614   1.640   6.293
91440SOL    HW176159   1.674   1.571   6.321
91440SOL    HW276160   1.670   1.702   6.246
91441SOL     OW76161   4.693  13.754   1.979
91441SOL    HW176162   4.684  13.834   2.030
91441SOL    HW276163   4.667  13.684   2.039
91442SOL     OW76164  11.697  10.308   1.269
91442SOL    HW176165  11.619  10.324   1.215
91442SOL    HW276166  11.673  10.234   1.325
91443SOL     OW76167   2.338   5.140  14.765
91443SOL    HW176168   2.307   5.228  14.746
91443SOL    HW276169   2.288   5.113  14.842
91444SOL     OW76170  12.537   2.796   3.221
91444SOL    HW176171  12.593   2.775   3.295
91444SOL    HW276172  12.453   2.754   3.241
91445SOL     OW76173  14.854   9.299   8.549
91445SOL    HW176174  14.788   9.359   8.516
91445SOL    HW276175  14.838   9.217   8.502
91446SOL     OW76176   3.774   6.363  14.058
91446SOL    HW176177   3.777   6.311  13.978
91446SOL    HW276178   3.832   6.317  14.119
91447SOL     OW76179   7.666   7.990   6.409
91447SOL    HW176180   7.704   7.920   6.462
91447SOL    HW276181   7.685   7.965   6.318
91448SOL     OW76182   6.573   3.724   2.674
91448SOL    HW176183   6.595   3.743   2.765
91448SOL    HW276184   6.652   3.685   2.638
91449SOL     OW76185  13.195   3.962   4.366
91449SOL    HW176186  13.227   3.954   4.456
91449SOL    HW276187  13.099   3.964   4.375
91450SOL     OW76188   5.032  11.492   4.476
91450SOL    HW176189   5.105  11.448   4.519
91450SOL    HW276190   4.961  11.488   4.539
91451SOL     OW76191   7.850   9.897   7.900
91451SOL    HW176192   7.825   9.806   7.916
91451SOL    HW276193   7.829   9.943   7.981
91452SOL     OW76194   7.337   4.399   2.092
91452SOL    HW176195   7.402   4.381   2.024
91452SOL    HW276196   7.252   4.386   2.048
91453SOL     OW76197   2.502   8.537   8.831
91453SOL    HW176198   2.498   8.558   8.738
91453SOL    HW276199   2.483   8.443   8.835
91454SOL     OW76200   1.039   5.146  12.149
91454SOL    HW176201   1.047   5.231  12.193
91454SOL    HW276202   1.111   5.094  12.183
91455SOL     OW76203  11.436   2.369   8.324
91455SOL    HW176204  11.348   2.386   8.290
91455SOL    HW276205  11.446   2.429   8.397
91456SOL     OW76206   8.940   6.942   5.855
91456SOL    HW176207   8.962   6.956   5.763
91456SOL    HW276208   9.023   6.952   5.901
91457SOL     OW76209   5.182  10.483   1.427
91457SOL    HW176210   5.154  10.508   1.339
91457SOL    HW276211   5.247  10.549   1.451
91458SOL     OW76212  14.673   3.858   6.404
91458SOL    HW176213  14.632   3.789   6.352
91458SOL    HW276214  14.663   3.937   6.351
91459SOL     OW76215  10.303   6.226  10.734
91459SOL    HW176216  10.294   6.144  10.784
91459SOL    HW276217  10.323   6.292  10.800
91460SOL     OW76218  10.639  13.068   7.879
91460SOL    HW176219  10.584  13.145   7.865
91460SOL    HW276220  10.597  13.021   7.951
91461SOL     OW76221  14.740  13.637  12.020
91461SOL    HW176222  14.734  13.555  11.970
91461SOL    HW276223  14.832  13.662  12.014
91462SOL     OW76224  10.349   5.646   9.010
91462SOL    HW176225  10.298   5.712   8.962
91462SOL    HW276226  10.420   5.622   8.951
91463SOL     OW76227  14.407  11.185   7.720
91463SOL    HW176228  14.478  11.140   7.675
91463SOL    HW276229  14.330  11.131   7.704
91464SOL     OW76230   0.431   3.642  12.654
91464SOL    HW176231   0.455   3.554  12.622
91464SOL    HW276232   0.372   3.677  12.587
91465SOL     OW76233   4.314   2.971   1.681
91465SOL    HW176234   4.234   3.023   1.692
91465SOL    HW276235   4.350   3.000   1.597
91466SOL     OW76236   1.870   0.429   5.719
91466SOL    HW176237   1.833   0.374   5.788
91466SOL    HW276238   1.951   0.463   5.756
91467SOL     OW76239  12.617   2.415  11.119
91467SOL    HW176240  12.605   2.367  11.201
91467SOL    HW276241  12.578   2.501  11.136
91468SOL     OW76242   1.436   2.447   8.591
91468SOL    HW176243   1.451   2.497   8.671
91468SOL    HW276244   1.509   2.470   8.534
91469SOL     OW76245   9.144   3.926   5.322
91469SOL    HW176246   9.146   3.944   5.416
91469SOL    HW276247   9.158   4.012   5.281
91470SOL     OW76248   6.175   8.093   7.135
91470SOL    HW176249   6.150   8.064   7.048
91470SOL    HW276250   6.236   8.165   7.119
91471SOL     OW76251   3.071   0.653   0.884
91471SOL    HW176252   3.117   0.586   0.833
91471SOL    HW276253   3.137   0.721   0.899
91472SOL     OW76254   5.216  12.974   3.242
91472SOL    HW176255   5.292  13.032   3.240
91472SOL    HW276256   5.240  12.901   3.185
91473SOL     OW76257  10.782  11.197   4.424
91473SOL    HW176258  10.802  11.172   4.514
91473SOL    HW276259  10.867  11.222   4.387
91474SOL     OW76260  12.404  11.187   3.076
91474SOL    HW176261  12.490  11.145   3.077
91474SOL    HW276262  12.345  11.121   3.114
91475SOL     OW76263  10.882  12.937   9.756
91475SOL    HW176264  10.871  12.872   9.825
91475SOL    HW276265  10.975  12.961   9.761
91476SOL     OW76266   5.154  11.121  11.860
91476SOL    HW176267   5.066  11.145  11.888
91476SOL    HW276268   5.177  11.187  11.794
91477SOL     OW76269  12.079   7.831   1.103
91477SOL    HW176270  12.076   7.820   1.008
91477SOL    HW276271  12.168   7.863   1.120
91478SOL     OW76272  12.306   9.970  10.010
91478SOL    HW176273  12.224  10.013   9.983
91478SOL    HW276274  12.277   9.900  10.069
91479SOL     OW76275   2.091   1.019   0.693
91479SOL    HW176276   2.150   1.092   0.674
91479SOL    HW276277   2.118   0.950   0.632
91480SOL     OW76278   0.907  11.621   9.170
91480SOL    HW176279   0.994  11.632   9.134
91480SOL    HW276280   0.911  11.663   9.256
91481SOL     OW76281   3.884  12.042  11.086
91481SOL    HW176282   3.968  12.067  11.123
91481SOL    HW276283   3.836  12.002  11.159
91482SOL     OW76284  10.387   2.529   8.030
91482SOL    HW176285  10.319   2.555   7.968
91482SOL    HW276286  10.376   2.435   8.040
91483SOL     OW76287   9.668  12.396   8.348
91483SOL    HW176288   9.708  12.371   8.265
91483SOL    HW276289   9.593  12.337   8.357
91484SOL     OW76290  11.423   7.115   8.774
91484SOL    HW176291  11.396   7.025   8.790
91484SOL    HW276292  11.519   7.109   8.766
91485SOL     OW76293   1.542   0.405   3.367
91485SOL    HW176294   1.575   0.317   3.386
91485SOL    HW276295   1.498   0.432   3.447
91486SOL     OW76296   4.274   5.166   0.321
91486SOL    HW176297   4.333   5.145   0.249
91486SOL    HW276298   4.301   5.254   0.349
91487SOL     OW76299   4.218  13.209   1.153
91487SOL    HW176300   4.273  13.284   1.176
91487SOL    HW276301   4.278  13.145   1.117
91488SOL     OW76302  14.784  10.123   8.026
91488SOL    HW176303  14.865  10.171   8.006
91488SOL    HW276304  14.788  10.045   7.970
91489SOL     OW76305  13.702   7.615   7.079
91489SOL    HW176306  13.778   7.586   7.130
91489SOL    HW276307  13.709   7.710   7.077
91490SOL     OW76308   4.584  11.564   3.696
91490SOL    HW176309   4.497  11.584   3.662
91490SOL    HW276310   4.567  11.516   3.777
91491SOL     OW76311  11.686   6.542  12.194
91491SOL    HW176312  11.598   6.536  12.231
91491SOL    HW276313  11.706   6.454  12.164
91492SOL     OW76314   8.014   4.828   6.706
91492SOL    HW176315   7.934   4.820   6.653
91492SOL    HW276316   8.022   4.742   6.748
91493SOL     OW76317   7.112   2.554   1.167
91493SOL    HW176318   7.176   2.484   1.162
91493SOL    HW276319   7.163   2.633   1.183
91494SOL     OW76320  11.024   9.941   6.960
91494SOL    HW176321  11.105   9.905   6.924
91494SOL    HW276322  11.026  10.034   6.936
91495SOL     OW76323   8.272  11.244   6.068
91495SOL    HW176324   8.295  11.151   6.079
91495SOL    HW276325   8.310  11.267   5.983
91496SOL     OW76326   4.985  10.720  10.032
91496SOL    HW176327   5.000  10.809  10.001
91496SOL    HW276328   4.908  10.690   9.982
91497SOL     OW76329   6.646  10.905  12.135
91497SOL    HW176330   6.560  10.895  12.095
91497SOL    HW276331   6.704  10.854  12.078
91498SOL     OW76332  10.877  14.650   5.171
91498SOL    HW176333  10.837  14.580   5.119
91498SOL    HW276334  10.927  14.702   5.108
91499SOL     OW76335   0.158   7.528   0.974
91499SOL    HW176336   0.073   7.550   0.937
91499SOL    HW276337   0.209   7.495   0.900
91500SOL     OW76338  13.922   8.345   4.446
91500SOL    HW176339  13.997   8.325   4.390
91500SOL    HW276340  13.853   8.286   4.415
91501SOL     OW76341   4.515   3.957   5.710
91501SOL    HW176342   4.532   3.868   5.678
91501SOL    HW276343   4.434   3.950   5.760
91502SOL     OW76344   5.509   2.883   8.826
91502SOL    HW176345   5.476   2.909   8.740
91502SOL    HW276346   5.599   2.914   8.827
91503SOL     OW76347   9.153   1.811   2.234
91503SOL    HW176348   9.177   1.895   2.272
91503SOL    HW276349   9.062   1.822   2.206
91504SOL     OW76350   3.769   9.617  13.569
91504SOL    HW176351   3.717   9.667  13.506
91504SOL    HW276352   3.707   9.557  13.609
91505SOL     OW76353   3.973   0.110   5.339
91505SOL    HW176354   3.883   0.079   5.325
91505SOL    HW276355   3.990   0.170   5.266
91506SOL     OW76356   9.041   1.003   0.754
91506SOL    HW176357   8.957   1.013   0.799
91506SOL    HW276358   9.076   0.920   0.787
91507SOL     OW76359   5.871  12.817   1.788
91507SOL    HW176360   5.845  12.820   1.880
91507SOL    HW276361   5.805  12.869   1.743
91508SOL     OW76362  12.572  10.787   2.466
91508SOL    HW176363  12.665  10.765   2.475
91508SOL    HW276364  12.526  10.719   2.515
91509SOL     OW76365   3.650   1.501  14.465
91509SOL    HW176366   3.728   1.557  14.470
91509SOL    HW276367   3.684   1.415  14.443
91510SOL     OW76368   0.459   3.489   5.933
91510SOL    HW176369   0.496   3.574   5.911
91510SOL    HW276370   0.434   3.497   6.025
91511SOL     OW76371  13.998  10.557   7.726
91511SOL    HW176372  14.034  10.503   7.797
91511SOL    HW276373  13.906  10.567   7.748
91512SOL     OW76374   0.526   2.377   0.685
91512SOL    HW176375   0.556   2.291   0.658
91512SOL    HW276376   0.506   2.423   0.603
91513SOL     OW76377   7.328  14.248   1.742
91513SOL    HW176378   7.255  14.238   1.681
91513SOL    HW276379   7.295  14.212   1.825
91514SOL     OW76380  13.560  13.861  10.545
91514SOL    HW176381  13.627  13.929  10.538
91514SOL    HW276382  13.523  13.873  10.632
91515SOL     OW76383   9.872   4.195   2.917
91515SOL    HW176384   9.940   4.133   2.943
91515SOL    HW276385   9.901   4.279   2.953
91516SOL     OW76386  14.679   0.383   8.538
91516SOL    HW176387  14.699   0.457   8.480
91516SOL    HW276388  14.586   0.366   8.524
91517SOL     OW76389  14.825   0.598   1.244
91517SOL    HW176390  14.755   0.544   1.205
91517SOL    HW276391   0.010   0.534   1.271
91518SOL     OW76392   6.158  12.851   2.201
91518SOL    HW176393   6.208  12.817   2.126
91518SOL    HW276394   6.083  12.895   2.162
91519SOL     OW76395   4.712   7.412   1.381
91519SOL    HW176396   4.704   7.454   1.295
91519SOL    HW276397   4.798   7.371   1.379
91520SOL     OW76398   4.608   6.238   4.096
91520SOL    HW176399   4.692   6.284   4.092
91520SOL    HW276400   4.545   6.299   4.057
91521SOL     OW76401  13.211   7.181  10.793
91521SOL    HW176402  13.206   7.119  10.866
91521SOL    HW276403  13.154   7.254  10.820
91522SOL     OW76404  10.369  12.065   1.887
91522SOL    HW176405  10.347  12.122   1.813
91522SOL    HW276406  10.305  12.089   1.955
91523SOL     OW76407   2.807   0.711   0.812
91523SOL    HW176408   2.752   0.642   0.849
91523SOL    HW276409   2.897   0.686   0.835
91524SOL     OW76410   7.667  13.263   5.232
91524SOL    HW176411   7.696  13.311   5.155
91524SOL    HW276412   7.745  13.217   5.263
91525SOL     OW76413   6.966   4.776   7.995
91525SOL    HW176414   6.934   4.721   7.923
91525SOL    HW276415   6.900   4.845   8.004
91526SOL     OW76416   6.654   0.721  14.391
91526SOL    HW176417   6.713   0.793  14.368
91526SOL    HW276418   6.643   0.671  14.310
91527SOL     OW76419  13.260   8.558   7.480
91527SOL    HW176420  13.330   8.501   7.512
91527SOL    HW276421  13.282   8.574   7.388
91528SOL     OW76422   8.772   3.417   2.705
91528SOL    HW176423   8.755   3.349   2.640
91528SOL    HW276424   8.863   3.402   2.732
91529SOL     OW76425   0.961  12.402   2.758
91529SOL    HW176426   0.985  12.467   2.692
91529SOL    HW276427   0.924  12.453   2.830
91530SOL     OW76428   3.633   9.740   5.686
91530SOL    HW176429   3.590   9.823   5.704
91530SOL    HW276430   3.710   9.740   5.743
91531SOL     OW76431  10.941  10.972   4.957
91531SOL    HW176432  10.848  10.963   4.938
91531SOL    HW276433  10.949  11.056   5.002
91532SOL     OW76434   0.005  13.303  12.188
91532SOL    HW176435   0.060  13.243  12.138
91532SOL    HW276436   0.055  13.384  12.193
91533SOL     OW76437  12.313   9.240  13.737
91533SOL    HW176438  12.372   9.292  13.791
91533SOL    HW276439  12.263   9.304  13.686
91534SOL     OW76440  12.131  13.939   8.775
91534SOL    HW176441  12.212  13.946   8.725
91534SOL    HW276442  12.061  13.951   8.711
91535SOL     OW76443   5.066  12.598   6.759
91535SOL    HW176444   5.099  12.679   6.719
91535SOL    HW276445   5.119  12.588   6.839
91536SOL     OW76446  11.848   0.029  12.160
91536SOL    HW176447  11.779   0.040  12.226
91536SOL    HW276448  11.830  14.826  12.120
91537SOL     OW76449   0.352  10.186   2.487
91537SOL    HW176450   0.304  10.162   2.567
91537SOL    HW276451   0.292  10.162   2.416
91538SOL     OW76452   0.223  13.240   0.338
91538SOL    HW176453   0.129  13.252   0.355
91538SOL    HW276454   0.236  13.146   0.341
91539SOL     OW76455  13.250   6.105  13.837
91539SOL    HW176456  13.229   6.028  13.890
91539SOL    HW276457  13.179   6.166  13.855
91540SOL     OW76458  14.532  10.694   0.647
91540SOL    HW176459  14.521  10.784   0.678
91540SOL    HW276460  14.624  10.689   0.619
91541SOL     OW76461  13.468   8.569   7.894
91541SOL    HW176462  13.538   8.565   7.830
91541SOL    HW276463  13.490   8.503   7.959
91542SOL     OW76464  12.226   6.142  11.374
91542SOL    HW176465  12.298   6.090  11.338
91542SOL    HW276466  12.263   6.230  11.383
91543SOL     OW76467   2.699   0.972   8.955
91543SOL    HW176468   2.755   0.916   8.902
91543SOL    HW276469   2.646   1.020   8.892
91544SOL     OW76470  14.184   5.202   6.998
91544SOL    HW176471  14.170   5.126   7.053
91544SOL    HW276472  14.146   5.275   7.047
91545SOL     OW76473   0.852  14.146  12.662
91545SOL    HW176474   0.833  14.107  12.748
91545SOL    HW276475   0.794  14.222  12.657
91546SOL     OW76476   4.610   2.719  12.838
91546SOL    HW176477   4.556   2.760  12.770
91546SOL    HW276478   4.666   2.659  12.789
91547SOL     OW76479   5.710   7.552   8.740
91547SOL    HW176480   5.667   7.633   8.766
91547SOL    HW276481   5.645   7.484   8.758
91548SOL     OW76482   6.588   4.541  12.496
91548SOL    HW176483   6.612   4.618  12.548
91548SOL    HW276484   6.662   4.528  12.437
91549SOL     OW76485   9.572   3.226   3.029
91549SOL    HW176486   9.492   3.173   3.028
91549SOL    HW276487   9.618   3.199   3.108
91550SOL     OW76488   2.876   1.285   2.185
91550SOL    HW176489   2.906   1.330   2.106
91550SOL    HW276490   2.929   1.323   2.255
91551SOL     OW76491  10.940   5.395   4.822
91551SOL    HW176492  10.961   5.304   4.801
91551SOL    HW276493  10.903   5.392   4.911
91552SOL     OW76494   4.576   6.590  13.328
91552SOL    HW176495   4.666   6.583  13.361
91552SOL    HW276496   4.555   6.502  13.298
91553SOL     OW76497  10.239   5.279   7.129
91553SOL    HW176498  10.288   5.347   7.175
91553SOL    HW276499  10.218   5.316   7.044
91554SOL     OW76500  13.559   1.004   8.027
91554SOL    HW176501  13.594   1.088   8.058
91554SOL    HW276502  13.603   0.939   8.081
91555SOL     OW76503   1.668   1.252   9.136
91555SOL    HW176504   1.758   1.284   9.147
91555SOL    HW276505   1.639   1.231   9.224
91556SOL     OW76506   7.190   8.837  10.614
91556SOL    HW176507   7.191   8.829  10.709
91556SOL    HW276508   7.145   8.758  10.584
91557SOL     OW76509   9.396   6.297  10.048
91557SOL    HW176510   9.385   6.386  10.014
91557SOL    HW276511   9.328   6.287  10.114
91558SOL     OW76512  12.846  13.522  11.933
91558SOL    HW176513  12.889  13.437  11.925
91558SOL    HW276514  12.860  13.547  12.024
91559SOL     OW76515   5.116   2.058   4.905
91559SOL    HW176516   5.118   1.963   4.914
91559SOL    HW276517   5.113   2.073   4.810
91560SOL     OW76518  11.564   4.356   3.982
91560SOL    HW176519  11.602   4.433   4.024
91560SOL    HW276520  11.470   4.364   3.998
91561SOL     OW76521   8.127   3.284  12.208
91561SOL    HW176522   8.128   3.359  12.149
91561SOL    HW276523   8.076   3.314  12.284
91562SOL     OW76524  12.116   0.054   3.131
91562SOL    HW176525  12.085  14.852   3.164
91562SOL    HW276526  12.048   0.082   3.070
91563SOL     OW76527  13.359  11.182   5.211
91563SOL    HW176528  13.316  11.247   5.156
91563SOL    HW276529  13.321  11.098   5.184
91564SOL     OW76530  14.494   9.313  13.348
91564SOL    HW176531  14.432   9.374  13.388
91564SOL    HW276532  14.443   9.235  13.329
91565SOL     OW76533   4.929  14.433   0.932
91565SOL    HW176534   4.839  14.424   0.963
91565SOL    HW276535   4.961  14.344   0.921
91566SOL     OW76536   2.364   9.193  11.452
91566SOL    HW176537   2.446   9.241  11.465
91566SOL    HW276538   2.313   9.212  11.531
91567SOL     OW76539   7.660   2.039   5.179
91567SOL    HW176540   7.675   1.957   5.225
91567SOL    HW276541   7.609   2.093   5.240
91568SOL     OW76542   1.172  11.319   4.261
91568SOL    HW176543   1.229  11.280   4.327
91568SOL    HW276544   1.169  11.254   4.190
91569SOL     OW76545   6.047   2.588   7.883
91569SOL    HW176546   6.050   2.494   7.865
91569SOL    HW276547   6.139   2.615   7.884
91570SOL     OW76548  12.733  13.030  10.698
91570SOL    HW176549  12.743  13.046  10.792
91570SOL    HW276550  12.738  12.935  10.689
91571SOL     OW76551  12.605   9.938   9.039
91571SOL    HW176552  12.517   9.903   9.051
91571SOL    HW276553  12.657   9.897   9.108
91572SOL     OW76554  14.491   9.827  12.980
91572SOL    HW176555  14.463   9.916  12.959
91572SOL    HW276556  14.549   9.802  12.908
91573SOL     OW76557  13.958   2.791   1.902
91573SOL    HW176558  13.873   2.787   1.945
91573SOL    HW276559  14.011   2.846   1.960
91574SOL     OW76560   8.509  13.581   6.881
91574SOL    HW176561   8.587  13.609   6.833
91574SOL    HW276562   8.486  13.497   6.841
91575SOL     OW76563   0.840  14.231   7.257
91575SOL    HW176564   0.829  14.307   7.200
91575SOL    HW276565   0.761  14.179   7.242
91576SOL     OW76566   1.959  13.852   3.119
91576SOL    HW176567   1.980  13.789   3.188
91576SOL    HW276568   2.015  13.827   3.046
91577SOL     OW76569   4.483  12.090  12.698
91577SOL    HW176570   4.461  12.179  12.725
91577SOL    HW276571   4.483  12.040  12.780
91578SOL     OW76572   3.295  10.575   3.605
91578SOL    HW176573   3.199  10.576   3.601
91578SOL    HW276574   3.323  10.567   3.514
91579SOL     OW76575   0.919   9.537   7.679
91579SOL    HW176576   0.971   9.490   7.613
91579SOL    HW276577   0.832   9.497   7.674
91580SOL     OW76578   2.390   0.808   2.726
91580SOL    HW176579   2.331   0.809   2.650
91580SOL    HW276580   2.401   0.900   2.748
91581SOL     OW76581  13.859   8.349   7.375
91581SOL    HW176582  13.933   8.303   7.415
91581SOL    HW276583  13.806   8.379   7.449
91582SOL     OW76584  12.519   9.889   2.196
91582SOL    HW176585  12.603   9.850   2.219
91582SOL    HW276586  12.454   9.830   2.233
91583SOL     OW76587  13.145   5.588  10.687
91583SOL    HW176588  13.104   5.535  10.619
91583SOL    HW276589  13.078   5.596  10.755
91584SOL     OW76590  14.384   0.179   1.545
91584SOL    HW176591  14.464   0.129   1.528
91584SOL    HW276592  14.341   0.183   1.459
91585SOL     OW76593  11.650  12.102   5.760
91585SOL    HW176594  11.703  12.086   5.839
91585SOL    HW276595  11.651  12.197   5.750
91586SOL     OW76596   5.390   8.793   6.248
91586SOL    HW176597   5.336   8.871   6.262
91586SOL    HW276598   5.328   8.720   6.254
91587SOL     OW76599  10.813   0.530  10.048
91587SOL    HW176600  10.907   0.542  10.041
91587SOL    HW276601  10.785   0.504   9.961
91588SOL     OW76602  13.165   5.709   3.430
91588SOL    HW176603  13.115   5.697   3.510
91588SOL    HW276604  13.254   5.728   3.460
91589SOL     OW76605  11.207   1.055   3.743
91589SOL    HW176606  11.142   1.097   3.799
91589SOL    HW276607  11.192   0.961   3.755
91590SOL     OW76608   9.754  12.514   0.959
91590SOL    HW176609   9.716  12.427   0.947
91590SOL    HW276610   9.849  12.501   0.950
91591SOL     OW76611   9.134   9.828  10.236
91591SOL    HW176612   9.100   9.738  10.243
91591SOL    HW276613   9.124   9.864  10.325
91592SOL     OW76614   1.474  13.889  10.736
91592SOL    HW176615   1.431  13.955  10.790
91592SOL    HW276616   1.567  13.912  10.740
91593SOL     OW76617   5.184   5.974   5.956
91593SOL    HW176618   5.229   6.015   6.030
91593SOL    HW276619   5.148   5.893   5.992
91594SOL     OW76620  10.338   4.067  14.771
91594SOL    HW176621  10.308   4.015  14.846
91594SOL    HW276622  10.422   4.027  14.746
91595SOL     OW76623   5.756   2.314  13.678
91595SOL    HW176624   5.736   2.408  13.679
91595SOL    HW276625   5.841   2.308  13.634
91596SOL     OW76626   2.239  12.738   9.672
91596SOL    HW176627   2.248  12.651   9.632
91596SOL    HW276628   2.155  12.770   9.641
91597SOL     OW76629   9.477  10.597   1.104
91597SOL    HW176630   9.502  10.509   1.075
91597SOL    HW276631   9.382  10.600   1.094
91598SOL     OW76632  14.388   6.484   9.904
91598SOL    HW176633  14.300   6.466   9.870
91598SOL    HW276634  14.443   6.488   9.826
91599SOL     OW76635  13.338   7.791   9.857
91599SOL    HW176636  13.370   7.842   9.782
91599SOL    HW276637  13.252   7.828   9.877
91600SOL     OW76638   4.246   9.890   6.117
91600SOL    HW176639   4.331   9.932   6.106
91600SOL    HW276640   4.237   9.879   6.212
91601SOL     OW76641  14.612   0.931   2.883
91601SOL    HW176642  14.524   0.959   2.908
91601SOL    HW276643  14.598   0.866   2.814
91602SOL     OW76644   5.796   2.057  10.000
91602SOL    HW176645   5.757   2.102  10.075
91602SOL    HW276646   5.872   2.011  10.035
91603SOL     OW76647  14.451   9.081   3.887
91603SOL    HW176648  14.536   9.057   3.852
91603SOL    HW276649  14.468   9.103   3.979
91604SOL     OW76650   0.200   3.536   1.036
91604SOL    HW176651   0.281   3.584   1.021
91604SOL    HW276652   0.203   3.511   1.128
91605SOL     OW76653   5.113   4.221   6.001
91605SOL    HW176654   5.126   4.304   5.955
91605SOL    HW276655   5.028   4.231   6.045
91606SOL     OW76656  12.473   8.664   0.946
91606SOL    HW176657  12.489   8.576   0.981
91606SOL    HW276658  12.512   8.663   0.859
91607SOL     OW76659  13.932   2.498   2.253
91607SOL    HW176660  13.941   2.579   2.305
91607SOL    HW276661  13.955   2.524   2.164
91608SOL     OW76662   5.896   1.918   0.881
91608SOL    HW176663   5.948   1.837   0.882
91608SOL    HW276664   5.827   1.901   0.817
91609SOL     OW76665   2.284   7.948   6.683
91609SOL    HW176666   2.333   8.030   6.694
91609SOL    HW276667   2.219   7.950   6.754
91610SOL     OW76668   1.027   9.231   8.336
91610SOL    HW176669   1.022   9.321   8.304
91610SOL    HW276670   0.989   9.179   8.265
91611SOL     OW76671  12.898  14.636   1.361
91611SOL    HW176672  12.979  14.591   1.383
91611SOL    HW276673  12.842  14.569   1.323
91612SOL     OW76674   6.476   7.578   3.744
91612SOL    HW176675   6.534   7.532   3.683
91612SOL    HW276676   6.488   7.671   3.722
91613SOL     OW76677   6.035  10.105   4.896
91613SOL    HW176678   6.023  10.158   4.975
91613SOL    HW276679   6.126  10.120   4.871
91614SOL     OW76680   7.736   4.591   8.635
91614SOL    HW176681   7.738   4.604   8.541
91614SOL    HW276682   7.688   4.510   8.648
91615SOL     OW76683  14.703   2.782   4.365
91615SOL    HW176684  14.643   2.712   4.341
91615SOL    HW276685  14.660   2.862   4.334
91616SOL     OW76686   3.521   1.601  11.930
91616SOL    HW176687   3.561   1.652  12.001
91616SOL    HW276688   3.519   1.661  11.855
91617SOL     OW76689   4.020  13.226   3.705
91617SOL    HW176690   4.091  13.281   3.739
91617SOL    HW276691   3.958  13.288   3.667
91618SOL     OW76692   4.614   5.022   4.809
91618SOL    HW176693   4.564   4.945   4.838
91618SOL    HW276694   4.593   5.090   4.873
91619SOL     OW76695  10.687   8.612   4.636
91619SOL    HW176696  10.721   8.523   4.635
91619SOL    HW276697  10.689   8.638   4.729
91620SOL     OW76698   5.593   4.432   5.763
91620SOL    HW176699   5.633   4.509   5.801
91620SOL    HW276700   5.622   4.432   5.672
91621SOL     OW76701  11.313   5.469   3.772
91621SOL    HW176702  11.369   5.393   3.755
91621SOL    HW276703  11.231   5.432   3.805
91622SOL     OW76704   4.298   9.204   2.252
91622SOL    HW176705   4.373   9.212   2.311
91622SOL    HW276706   4.336   9.218   2.165
91623SOL     OW76707   9.388   1.641   2.647
91623SOL    HW176708   9.323   1.711   2.645
91623SOL    HW276709   9.453   1.670   2.712
91624SOL     OW76710  12.044   6.731   1.886
91624SOL    HW176711  11.988   6.696   1.817
91624SOL    HW276712  12.107   6.660   1.903
91625SOL     OW76713  11.820  11.931   0.977
91625SOL    HW176714  11.836  12.025   0.969
91625SOL    HW276715  11.829  11.913   1.070
91626SOL     OW76716   2.591   5.602  12.077
91626SOL    HW176717   2.511   5.625  12.123
91626SOL    HW276718   2.625   5.526  12.123
91627SOL     OW76719  10.602   5.250  11.214
91627SOL    HW176720  10.583   5.263  11.307
91627SOL    HW276721  10.535   5.301  11.168
91628SOL     OW76722   5.758   4.607   8.066
91628SOL    HW176723   5.775   4.680   8.125
91628SOL    HW276724   5.805   4.534   8.105
91629SOL     OW76725   8.931   4.817   8.232
91629SOL    HW176726   8.921   4.912   8.244
91629SOL    HW276727   8.870   4.778   8.295
91630SOL     OW76728   3.139   4.936   1.445
91630SOL    HW176729   3.174   4.992   1.374
91630SOL    HW276730   3.123   4.997   1.517
91631SOL     OW76731   3.609   1.653   0.318
91631SOL    HW176732   3.606   1.602   0.237
91631SOL    HW276733   3.677   1.718   0.303
91632SOL     OW76734  12.566   0.884   0.186
91632SOL    HW176735  12.597   0.864   0.274
91632SOL    HW276736  12.646   0.891   0.134
91633SOL     OW76737  11.746  14.559   9.592
91633SOL    HW176738  11.787  14.515   9.518
91633SOL    HW276739  11.784  14.647   9.591
91634SOL     OW76740   7.629   3.418   7.952
91634SOL    HW176741   7.688   3.365   7.899
91634SOL    HW276742   7.569   3.355   7.992
91635SOL     OW76743   2.165  11.347  10.013
91635SOL    HW176744   2.173  11.281   9.945
91635SOL    HW276745   2.199  11.427   9.974
91636SOL     OW76746   3.701  13.104   4.655
91636SOL    HW176747   3.787  13.088   4.617
91636SOL    HW276748   3.718  13.159   4.731
91637SOL     OW76749   1.873   5.124   9.280
91637SOL    HW176750   1.861   5.038   9.239
91637SOL    HW276751   1.812   5.181   9.233
91638SOL     OW76752  14.167  11.617   3.592
91638SOL    HW176753  14.156  11.522   3.599
91638SOL    HW276754  14.252  11.634   3.632
91639SOL     OW76755  11.509  11.382   6.857
91639SOL    HW176756  11.428  11.426   6.830
91639SOL    HW276757  11.554  11.447   6.912
91640SOL     OW76758   4.353   1.180   1.204
91640SOL    HW176759   4.410   1.170   1.279
91640SOL    HW276760   4.302   1.260   1.222
91641SOL     OW76761  14.842  10.673   3.951
91641SOL    HW176762  14.763  10.728   3.957
91641SOL    HW276763   0.001  10.683   4.037
91642SOL     OW76764  12.897  11.301  12.366
91642SOL    HW176765  12.950  11.301  12.286
91642SOL    HW276766  12.872  11.209  12.378
91643SOL     OW76767  12.276  11.187  13.416
91643SOL    HW176768  12.190  11.196  13.375
91643SOL    HW276769  12.336  11.234  13.358
91644SOL     OW76770  13.612   9.125   3.243
91644SOL    HW176771  13.578   9.184   3.176
91644SOL    HW276772  13.680   9.075   3.199
91645SOL     OW76773  12.101  12.659   8.704
91645SOL    HW176774  12.136  12.694   8.786
91645SOL    HW276775  12.049  12.730   8.667
91646SOL     OW76776   0.461   6.243   0.949
91646SOL    HW176777   0.445   6.177   1.017
91646SOL    HW276778   0.527   6.300   0.987
91647SOL     OW76779   6.137  12.281   2.857
91647SOL    HW176780   6.212  12.270   2.915
91647SOL    HW276781   6.121  12.194   2.821
91648SOL     OW76782   4.698  13.382   5.680
91648SOL    HW176783   4.616  13.337   5.699
91648SOL    HW276784   4.759  13.312   5.656
91649SOL     OW76785   3.310   2.488   1.284
91649SOL    HW176786   3.233   2.442   1.314
91649SOL    HW276787   3.360   2.506   1.363
91650SOL     OW76788   0.313   0.379   4.833
91650SOL    HW176789   0.220   0.360   4.844
91650SOL    HW276790   0.318   0.475   4.839
91651SOL     OW76791   6.184   0.286   6.242
91651SOL    HW176792   6.167   0.324   6.328
91651SOL    HW276793   6.105   0.237   6.221
91652SOL     OW76794  14.647   1.863  11.089
91652SOL    HW176795  14.689   1.946  11.109
91652SOL    HW276796  14.565   1.865  11.140
91653SOL     OW76797   4.105   6.829   5.198
91653SOL    HW176798   4.199   6.834   5.187
91653SOL    HW276799   4.087   6.737   5.220
91654SOL     OW76800  14.501   8.461   2.511
91654SOL    HW176801  14.552   8.525   2.460
91654SOL    HW276802  14.415   8.462   2.470
91655SOL     OW76803   8.315  12.709   0.503
91655SOL    HW176804   8.378  12.719   0.432
91655SOL    HW276805   8.244  12.656   0.465
91656SOL     OW76806  11.384  11.548   5.715
91656SOL    HW176807  11.370  11.494   5.793
91656SOL    HW276808  11.295  11.566   5.683
91657SOL     OW76809  11.855   6.004   7.182
91657SOL    HW176810  11.792   5.941   7.217
91657SOL    HW276811  11.940   5.962   7.193
91658SOL     OW76812   7.475   8.622   6.299
91658SOL    HW176813   7.541   8.621   6.367
91658SOL    HW276814   7.523   8.641   6.219
91659SOL     OW76815   1.287   8.607  13.625
91659SOL    HW176816   1.267   8.521  13.661
91659SOL    HW276817   1.204   8.637  13.586
91660SOL     OW76818   7.625   9.357  11.384
91660SOL    HW176819   7.696   9.307  11.424
91660SOL    HW276820   7.545   9.309  11.406
91661SOL     OW76821  13.048  12.946  11.812
91661SOL    HW176822  13.133  12.904  11.817
91661SOL    HW276823  13.064  13.028  11.764
91662SOL     OW76824   3.013   9.238  14.713
91662SOL    HW176825   3.079   9.271  14.773
91662SOL    HW276826   3.056   9.236  14.627
91663SOL     OW76827   8.341   5.044   8.639
91663SOL    HW176828   8.272   4.989   8.602
91663SOL    HW276829   8.296   5.115   8.683
91664SOL     OW76830  10.314  14.718   7.027
91664SOL    HW176831  10.246  14.699   7.091
91664SOL    HW276832  10.319  14.814   7.025
91665SOL     OW76833   6.275   9.056  10.490
91665SOL    HW176834   6.198   9.058  10.433
91665SOL    HW276835   6.240   9.047  10.578
91666SOL     OW76836   8.669   7.708   2.770
91666SOL    HW176837   8.599   7.725   2.706
91666SOL    HW276838   8.749   7.733   2.724
91667SOL     OW76839  11.127  13.867   5.639
91667SOL    HW176840  11.212  13.905   5.660
91667SOL    HW276841  11.114  13.886   5.546
91668SOL     OW76842  10.994  10.444   7.372
91668SOL    HW176843  10.948  10.439   7.288
91668SOL    HW276844  10.974  10.361   7.415
91669SOL     OW76845   6.363  11.020   1.354
91669SOL    HW176846   6.306  10.948   1.327
91669SOL    HW276847   6.381  11.004   1.446
91670SOL     OW76848  11.400  12.240   8.821
91670SOL    HW176849  11.346  12.299   8.769
91670SOL    HW276850  11.467  12.209   8.760
91671SOL     OW76851   9.103  13.152   8.850
91671SOL    HW176852   9.167  13.098   8.897
91671SOL    HW276853   9.111  13.238   8.890
91672SOL     OW76854   4.996  10.146  11.009
91672SOL    HW176855   5.034  10.069  11.051
91672SOL    HW276856   4.979  10.207  11.081
91673SOL     OW76857  12.400  14.756   3.739
91673SOL    HW176858  12.419  14.662   3.746
91673SOL    HW276859  12.339  14.773   3.810
91674SOL     OW76860  11.926  11.327  13.988
91674SOL    HW176861  11.915  11.422  13.992
91674SOL    HW276862  11.865  11.292  14.053
91675SOL     OW76863   0.052   1.958  14.335
91675SOL    HW176864   0.003   1.989  14.259
91675SOL    HW276865   0.018   1.870  14.351
91676SOL     OW76866  12.225   0.472  13.333
91676SOL    HW176867  12.280   0.531  13.282
91676SOL    HW276868  12.263   0.472  13.420
91677SOL     OW76869   4.553  10.753   6.007
91677SOL    HW176870   4.462  10.782   6.001
91677SOL    HW276871   4.566  10.736   6.101
91678SOL     OW76872   7.753  10.289  13.723
91678SOL    HW176873   7.696  10.364  13.704
91678SOL    HW276874   7.723  10.220  13.663
91679SOL     OW76875   0.101  11.534   9.893
91679SOL    HW176876   0.126  11.441   9.897
91679SOL    HW276877   0.134  11.564   9.809
91680SOL     OW76878   8.556   3.274  14.516
91680SOL    HW176879   8.465   3.281  14.546
91680SOL    HW276880   8.607   3.313  14.587
91681SOL     OW76881  14.771  10.517  10.238
91681SOL    HW176882  14.784  10.589  10.299
91681SOL    HW276883  14.720  10.452  10.288
91682SOL     OW76884  12.993   2.406  12.217
91682SOL    HW176885  12.953   2.319  12.224
91682SOL    HW276886  12.979   2.445  12.303
91683SOL     OW76887  11.036   9.578   5.543
91683SOL    HW176888  10.943   9.601   5.555
91683SOL    HW276889  11.060   9.617   5.459
91684SOL     OW76890   6.328   3.747  12.101
91684SOL    HW176891   6.368   3.689  12.166
91684SOL    HW276892   6.293   3.687  12.035
91685SOL     OW76893   5.942   4.711  10.031
91685SOL    HW176894   5.865   4.739   9.981
91685SOL    HW276895   5.989   4.653   9.972
91686SOL     OW76896   7.981   5.081   7.173
91686SOL    HW176897   8.065   5.117   7.203
91686SOL    HW276898   8.005   5.002   7.124
91687SOL     OW76899   5.327  10.212   8.335
91687SOL    HW176900   5.272  10.281   8.298
91687SOL    HW276901   5.385  10.186   8.263
91688SOL     OW76902   4.674   0.679   8.879
91688SOL    HW176903   4.611   0.653   8.811
91688SOL    HW276904   4.754   0.631   8.856
91689SOL     OW76905   7.575   9.774  10.057
91689SOL    HW176906   7.619   9.782  10.142
91689SOL    HW276907   7.522   9.695  10.065
91690SOL     OW76908   5.693  14.137  13.528
91690SOL    HW176909   5.702  14.095  13.613
91690SOL    HW276910   5.605  14.115  13.499
91691SOL     OW76911   3.830  10.715  13.753
91691SOL    HW176912   3.789  10.630  13.735
91691SOL    HW276913   3.793  10.774  13.688
91692SOL     OW76914   8.805   4.588   9.218
91692SOL    HW176915   8.823   4.576   9.312
91692SOL    HW276916   8.773   4.677   9.211
91693SOL     OW76917   1.669  10.412   7.016
91693SOL    HW176918   1.630  10.495   7.045
91693SOL    HW276919   1.733  10.438   6.950
91694SOL     OW76920   8.410   8.668  12.110
91694SOL    HW176921   8.480   8.612  12.143
91694SOL    HW276922   8.449   8.715  12.037
91695SOL     OW76923   3.703   6.702   0.758
91695SOL    HW176924   3.654   6.659   0.687
91695SOL    HW276925   3.640   6.709   0.829
91696SOL     OW76926   0.508  13.192   9.671
91696SOL    HW176927   0.599  13.219   9.658
91696SOL    HW276928   0.497  13.117   9.612
91697SOL     OW76929   6.030   3.672   9.642
91697SOL    HW176930   5.965   3.632   9.700
91697SOL    HW276931   6.027   3.619   9.562
91698SOL     OW76932  10.161   8.309  12.519
91698SOL    HW176933  10.255   8.293  12.529
91698SOL    HW276934  10.155   8.402  12.498
91699SOL     OW76935   9.796   1.664   7.727
91699SOL    HW176936   9.718   1.644   7.676
91699SOL    HW276937   9.799   1.759   7.731
91700SOL     OW76938   1.040  13.955   2.110
91700SOL    HW176939   1.044  13.998   2.196
91700SOL    HW276940   0.968  13.892   2.118
91701SOL     OW76941   9.303   9.175  12.815
91701SOL    HW176942   9.384   9.226  12.804
91701SOL    HW276943   9.234   9.232  12.783
91702SOL     OW76944   9.697  12.696   4.677
91702SOL    HW176945   9.649  12.659   4.751
91702SOL    HW276946   9.711  12.622   4.618
91703SOL     OW76947   7.407   6.397   4.816
91703SOL    HW176948   7.318   6.390   4.782
91703SOL    HW276949   7.462   6.400   4.737
91704SOL     OW76950   2.628   5.796   1.877
91704SOL    HW176951   2.587   5.856   1.939
91704SOL    HW276952   2.583   5.713   1.892
91705SOL     OW76953   1.970   6.690   5.887
91705SOL    HW176954   1.885   6.714   5.923
91705SOL    HW276955   2.033   6.743   5.934
91706SOL     OW76956  12.727   6.430   0.159
91706SOL    HW176957  12.816   6.414   0.127
91706SOL    HW276958  12.702   6.349   0.203
91707SOL     OW76959  11.640   9.914   9.183
91707SOL    HW176960  11.717   9.955   9.144
91707SOL    HW276961  11.581   9.898   9.110
91708SOL     OW76962   0.530   5.106  12.098
91708SOL    HW176963   0.623   5.096  12.121
91708SOL    HW276964   0.506   5.021  12.062
91709SOL     OW76965   9.644   1.296   9.843
91709SOL    HW176966   9.703   1.325   9.773
91709SOL    HW276967   9.576   1.363   9.847
91710SOL     OW76968   4.714   7.612   7.570
91710SOL    HW176969   4.634   7.644   7.611
91710SOL    HW276970   4.726   7.669   7.494
91711SOL     OW76971   8.042   7.397   3.178
91711SOL    HW176972   8.048   7.485   3.215
91711SOL    HW276973   7.985   7.407   3.102
91712SOL     OW76974   9.581  13.137   4.871
91712SOL    HW176975   9.584  13.102   4.782
91712SOL    HW276976   9.526  13.215   4.864
91713SOL     OW76977  10.814   9.112  11.017
91713SOL    HW176978  10.875   9.045  11.048
91713SOL    HW276979  10.738   9.104  11.073
91714SOL     OW76980   6.433   2.325   4.585
91714SOL    HW176981   6.526   2.344   4.591
91714SOL    HW276982   6.429   2.230   4.573
91715SOL     OW76983  14.261   5.800   9.231
91715SOL    HW176984  14.322   5.726   9.238
91715SOL    HW276985  14.177   5.764   9.260
91716SOL     OW76986   2.955   4.339  12.451
91716SOL    HW176987   2.984   4.412  12.505
91716SOL    HW276988   2.962   4.371  12.361
91717SOL     OW76989  14.432   2.714  14.040
91717SOL    HW176990  14.505   2.734  14.099
91717SOL    HW276991  14.364   2.777  14.065
91718SOL     OW76992  14.075   2.496  10.532
91718SOL    HW176993  14.095   2.431  10.464
91718SOL    HW276994  14.160   2.532  10.556
91719SOL     OW76995   8.084   1.479   8.136
91719SOL    HW176996   8.163   1.444   8.095
91719SOL    HW276997   8.021   1.407   8.130
91720SOL     OW76998  13.996   7.447   8.985
91720SOL    HW176999  13.926   7.474   9.044
91720SOL    HW277000  14.041   7.377   9.031
91721SOL     OW77001   9.279   4.732   6.417
91721SOL    HW177002   9.306   4.713   6.507
91721SOL    HW277003   9.342   4.685   6.363
91722SOL     OW77004  12.383   3.980   6.993
91722SOL    HW177005  12.312   4.036   6.965
91722SOL    HW277006  12.426   4.029   7.064
91723SOL     OW77007   9.452   4.425   0.539
91723SOL    HW177008   9.523   4.407   0.477
91723SOL    HW277009   9.449   4.348   0.596
91724SOL     OW77010   7.238   1.813   3.628
91724SOL    HW177011   7.174   1.821   3.699
91724SOL    HW277012   7.282   1.730   3.646
91725SOL     OW77013   6.985   1.584  14.573
91725SOL    HW177014   6.948   1.577  14.485
91725SOL    HW277015   6.945   1.511  14.621
91726SOL     OW77016   9.530   2.457   8.271
91726SOL    HW177017   9.448   2.504   8.288
91726SOL    HW277018   9.594   2.498   8.329
91727SOL     OW77019  13.248   0.507  12.602
91727SOL    HW177020  13.245   0.601  12.586
91727SOL    HW277021  13.158   0.477  12.587
91728SOL     OW77022   4.228   2.199   0.339
91728SOL    HW177023   4.143   2.214   0.380
91728SOL    HW277024   4.291   2.222   0.408
91729SOL     OW77025   5.487   7.726   7.134
91729SOL    HW177026   5.521   7.690   7.052
91729SOL    HW277027   5.407   7.675   7.151
91730SOL     OW77028   0.597   8.947   7.023
91730SOL    HW177029   0.511   8.948   6.980
91730SOL    HW277030   0.632   8.860   7.004
91731SOL     OW77031   5.949   5.797  14.600
91731SOL    HW177032   5.949   5.876  14.654
91731SOL    HW277033   5.886   5.739  14.642
91732SOL     OW77034  12.561   1.479   4.920
91732SOL    HW177035  12.646   1.516   4.896
91732SOL    HW277036  12.557   1.395   4.873
91733SOL     OW77037   5.368  13.609  11.794
91733SOL    HW177038   5.431  13.539  11.776
91733SOL    HW277039   5.294  13.591  11.736
91734SOL     OW77040   4.969   3.616  10.539
91734SOL    HW177041   5.055   3.589  10.506
91734SOL    HW277042   4.971   3.711  10.535
91735SOL     OW77043   1.491   1.436   7.518
91735SOL    HW177044   1.451   1.470   7.438
91735SOL    HW277045   1.464   1.344   7.521
91736SOL     OW77046   7.844  10.577   3.807
91736SOL    HW177047   7.867  10.606   3.719
91736SOL    HW277048   7.899  10.628   3.865
91737SOL     OW77049   0.372  11.432  10.665
91737SOL    HW177050   0.385  11.505  10.605
91737SOL    HW277051   0.279  11.433  10.685
91738SOL     OW77052   0.915   6.472   0.393
91738SOL    HW177053   0.962   6.506   0.469
91738SOL    HW277054   0.824   6.494   0.410
91739SOL     OW77055  12.682   2.866  12.586
91739SOL    HW177056  12.775   2.884  12.575
91739SOL    HW277057  12.672   2.774  12.561
91740SOL     OW77058  10.666   0.039   0.404
91740SOL    HW177059  10.645   0.097   0.478
91740SOL    HW277060  10.755   0.007   0.424
91741SOL     OW77061  12.873   4.652   9.951
91741SOL    HW177062  12.803   4.663   9.887
91741SOL    HW277063  12.830   4.614  10.028
91742SOL     OW77064   9.768   6.730   9.559
91742SOL    HW177065   9.774   6.758   9.650
91742SOL    HW277066   9.842   6.671   9.546
91743SOL     OW77067   5.745   6.250  13.768
91743SOL    HW177068   5.800   6.227  13.843
91743SOL    HW277069   5.678   6.182  13.766
91744SOL     OW77070  14.067  11.933   7.923
91744SOL    HW177071  14.067  12.027   7.938
91744SOL    HW277072  14.069  11.895   8.011
91745SOL     OW77073   3.103  13.628   8.400
91745SOL    HW177074   3.091  13.711   8.353
91745SOL    HW277075   3.186  13.638   8.446
91746SOL     OW77076   6.981  11.936   2.634
91746SOL    HW177077   6.976  11.900   2.723
91746SOL    HW277078   7.011  11.863   2.580
91747SOL     OW77079  13.428   3.936  13.821
91747SOL    HW177080  13.350   3.930  13.765
91747SOL    HW277081  13.408   4.008  13.881
91748SOL     OW77082   7.106   0.306   4.159
91748SOL    HW177083   7.166   0.233   4.141
91748SOL    HW277084   7.144   0.380   4.113
91749SOL     OW77085  14.303   2.411   9.680
91749SOL    HW177086  14.291   2.326   9.724
91749SOL    HW277087  14.244   2.407   9.604
91750SOL     OW77088   5.196  13.096  11.264
91750SOL    HW177089   5.260  13.049  11.211
91750SOL    HW277090   5.112  13.054  11.244
91751SOL     OW77091  12.996  12.994  14.739
91751SOL    HW177092  12.972  13.084  14.761
91751SOL    HW277093  12.994  12.947  14.822
91752SOL     OW77094   1.259   4.664   9.497
91752SOL    HW177095   1.237   4.628   9.411
91752SOL    HW277096   1.242   4.593   9.558
91753SOL     OW77097   5.008  10.402   1.658
91753SOL    HW177098   5.058  10.331   1.699
91753SOL    HW277099   5.065  10.436   1.590
91754SOL     OW77100  14.763  14.620   9.076
91754SOL    HW177101  14.771  14.587   8.987
91754SOL    HW277102  14.750  14.715   9.065
91755SOL     OW77103   3.434   5.360   9.678
91755SOL    HW177104   3.529   5.368   9.666
91755SOL    HW277105   3.398   5.441   9.643
91756SOL     OW77106   1.216  12.625   0.479
91756SOL    HW177107   1.251  12.642   0.392
91756SOL    HW277108   1.172  12.540   0.472
91757SOL     OW77109   7.189   0.480   8.944
91757SOL    HW177110   7.265   0.532   8.972
91757SOL    HW277111   7.162   0.519   8.861
91758SOL     OW77112  13.360   4.674   9.071
91758SOL    HW177113  13.387   4.661   8.980
91758SOL    HW277114  13.427   4.629   9.123
91759SOL     OW77115   5.894   4.843   1.849
91759SOL    HW177116   5.937   4.831   1.934
91759SOL    HW277117   5.829   4.774   1.845
91760SOL     OW77118   7.013  10.541   3.926
91760SOL    HW177119   7.059  10.529   4.010
91760SOL    HW277120   6.971  10.456   3.910
91761SOL     OW77121   9.172   9.111  10.993
91761SOL    HW177122   9.237   9.114  10.923
91761SOL    HW277123   9.101   9.168  10.962
91762SOL     OW77124  14.044   4.700   5.034
91762SOL    HW177125  13.950   4.689   5.018
91762SOL    HW277126  14.050   4.781   5.083
91763SOL     OW77127   3.310   6.002  14.080
91763SOL    HW177128   3.339   5.995  13.989
91763SOL    HW277129   3.348   6.085  14.111
91764SOL     OW77130   3.326  12.401   7.305
91764SOL    HW177131   3.371  12.342   7.366
91764SOL    HW277132   3.264  12.345   7.259
91765SOL     OW77133   8.355  10.523   8.300
91765SOL    HW177134   8.344  10.585   8.228
91765SOL    HW277135   8.325  10.571   8.377
91766SOL     OW77136   3.827   6.849   2.125
91766SOL    HW177137   3.777   6.922   2.089
91766SOL    HW277138   3.802   6.774   2.072
91767SOL     OW77139   5.440   8.648   6.734
91767SOL    HW177140   5.349   8.655   6.707
91767SOL    HW277141   5.441   8.578   6.799
91768SOL     OW77142   7.429   1.256  10.189
91768SOL    HW177143   7.446   1.181  10.133
91768SOL    HW277144   7.340   1.243  10.221
91769SOL     OW77145   4.137   6.760   0.239
91769SOL    HW177146   4.169   6.758   0.329
91769SOL    HW277147   4.117   6.669   0.218
91770SOL     OW77148  12.466  11.177   5.006
91770SOL    HW177149  12.533  11.110   5.017
91770SOL    HW277150  12.467  11.196   4.912
91771SOL     OW77151   9.000   5.216   4.778
91771SOL    HW177152   8.943   5.196   4.852
91771SOL    HW277153   9.039   5.131   4.754
91772SOL     OW77154  11.879   0.406   9.854
91772SOL    HW177155  11.857   0.315   9.874
91772SOL    HW277156  11.961   0.422   9.901
91773SOL     OW77157   2.767  13.381  13.374
91773SOL    HW177158   2.742  13.289  13.372
91773SOL    HW277159   2.844  13.384  13.431
91774SOL     OW77160   3.243  13.448   0.401
91774SOL    HW177161   3.309  13.397   0.448
91774SOL    HW277162   3.194  13.383   0.351
91775SOL     OW77163  10.378   7.505   4.015
91775SOL    HW177164  10.391   7.412   4.034
91775SOL    HW277165  10.463   7.535   3.982
91776SOL     OW77166  10.063  10.661   2.419
91776SOL    HW177167   9.988  10.703   2.376
91776SOL    HW277168  10.076  10.712   2.499
91777SOL     OW77169   1.072  11.002   2.849
91777SOL    HW177170   1.067  11.024   2.757
91777SOL    HW277171   1.146  11.053   2.882
91778SOL     OW77172   1.629   3.944  14.274
91778SOL    HW177173   1.688   3.923  14.202
91778SOL    HW277174   1.590   4.028  14.249
91779SOL     OW77175  10.164   4.955   5.784
91779SOL    HW177176  10.191   5.002   5.863
91779SOL    HW277177  10.131   4.871   5.816
91780SOL     OW77178  10.405   3.674  10.831
91780SOL    HW177179  10.492   3.690  10.795
91780SOL    HW277180  10.345   3.719  10.772
91781SOL     OW77181   3.628  12.277  13.757
91781SOL    HW177182   3.606  12.198  13.709
91781SOL    HW277183   3.710  12.255  13.802
91782SOL     OW77184   4.229  10.187   8.406
91782SOL    HW177185   4.267  10.148   8.328
91782SOL    HW277186   4.275  10.145   8.479
91783SOL     OW77187   9.767  12.311   0.147
91783SOL    HW177188   9.745  12.398   0.180
91783SOL    HW277189   9.829  12.277   0.211
91784SOL     OW77190   7.519   3.801  10.959
91784SOL    HW177191   7.456   3.873  10.956
91784SOL    HW277192   7.604   3.844  10.965
91785SOL     OW77193   6.288   0.671   0.873
91785SOL    HW177194   6.268   0.586   0.835
91785SOL    HW277195   6.346   0.652   0.947
91786SOL     OW77196   3.865   6.948  14.278
91786SOL    HW177197   3.947   6.903  14.297
91786SOL    HW277198   3.829   6.902  14.202
91787SOL     OW77199  11.511   7.360   0.573
91787SOL    HW177200  11.427   7.384   0.612
91787SOL    HW277201  11.520   7.418   0.498
91788SOL     OW77202   1.769   5.037   9.533
91788SOL    HW177203   1.706   4.966   9.525
91788SOL    HW277204   1.786   5.066   9.444
91789SOL     OW77205  10.037   5.773  12.450
91789SOL    HW177206  10.047   5.853  12.398
91789SOL    HW277207   9.947   5.745  12.435
91790SOL     OW77208  10.643   6.923  13.947
91790SOL    HW177209  10.615   6.841  13.988
91790SOL    HW277210  10.619   6.991  14.009
91791SOL     OW77211  10.458   5.267  13.017
91791SOL    HW177212  10.428   5.297  13.103
91791SOL    HW277213  10.454   5.344  12.961
91792SOL     OW77214  11.892  11.966   0.455
91792SOL    HW177215  11.865  12.057   0.461
91792SOL    HW277216  11.975  11.969   0.408
91793SOL     OW77217  13.649   8.479  12.661
91793SOL    HW177218  13.586   8.437  12.720
91793SOL    HW277219  13.646   8.425  12.582
91794SOL     OW77220  14.490  12.454   9.973
91794SOL    HW177221  14.510  12.473  10.064
91794SOL    HW277222  14.559  12.394   9.944
91795SOL     OW77223   2.674  14.827  10.573
91795SOL    HW177224   2.756  14.856  10.533
91795SOL    HW277225   2.614   0.019  10.562
91796SOL     OW77226   4.062   1.098   1.771
91796SOL    HW177227   4.121   1.031   1.736
91796SOL    HW277228   4.088   1.108   1.862
91797SOL     OW77229   2.319  13.534  14.387
91797SOL    HW177230   2.389  13.491  14.339
91797SOL    HW277231   2.304  13.616  14.339
91798SOL     OW77232   7.504   8.518   9.148
91798SOL    HW177233   7.415   8.552   9.149
91798SOL    HW277234   7.523   8.498   9.239
91799SOL     OW77235  10.995   8.920   5.364
91799SOL    HW177236  11.088   8.905   5.384
91799SOL    HW277237  10.952   8.922   5.450
91800SOL     OW77238   5.689  10.984  12.435
91800SOL    HW177239   5.732  10.898  12.438
91800SOL    HW277240   5.618  10.973  12.372
91801SOL     OW77241  14.079   1.785   4.170
91801SOL    HW177242  14.154   1.757   4.222
91801SOL    HW277243  14.096   1.750   4.082
91802SOL     OW77244  10.766  11.937  14.102
91802SOL    HW177245  10.771  12.013  14.045
91802SOL    HW277246  10.680  11.898  14.083
91803SOL     OW77247  14.216   8.129   1.673
91803SOL    HW177248  14.269   8.059   1.637
91803SOL    HW277249  14.176   8.170   1.596
91804SOL     OW77250   4.840   1.281   6.885
91804SOL    HW177251   4.856   1.371   6.913
91804SOL    HW277252   4.914   1.260   6.828
91805SOL     OW77253  11.655   1.372   1.369
91805SOL    HW177254  11.603   1.292   1.367
91805SOL    HW277255  11.609   1.428   1.431
91806SOL     OW77256   9.536  13.799   8.746
91806SOL    HW177257   9.458  13.854   8.759
91806SOL    HW277258   9.506  13.731   8.686
91807SOL     OW77259   9.842  11.428   9.423
91807SOL    HW177260   9.892  11.359   9.465
91807SOL    HW277261   9.782  11.460   9.491
91808SOL     OW77262  12.337   4.993   6.487
91808SOL    HW177263  12.247   4.997   6.454
91808SOL    HW277264  12.350   5.077   6.531
91809SOL     OW77265   1.154   9.173   0.992
91809SOL    HW177266   1.082   9.232   1.013
91809SOL    HW277267   1.119   9.086   1.006
91810SOL     OW77268  14.672   9.353  12.197
91810SOL    HW177269  14.637   9.281  12.145
91810SOL    HW277270  14.767   9.347  12.185
91811SOL     OW77271   3.123   8.282  12.066
91811SOL    HW177272   3.196   8.281  12.128
91811SOL    HW277273   3.125   8.195  12.025
91812SOL     OW77274   6.214   8.817  10.197
91812SOL    HW177275   6.203   8.732  10.154
91812SOL    HW277276   6.165   8.878  10.142
91813SOL     OW77277   1.493   3.573   8.059
91813SOL    HW177278   1.507   3.598   8.150
91813SOL    HW277279   1.400   3.549   8.055
91814SOL     OW77280   6.060   4.840  13.981
91814SOL    HW177281   5.973   4.872  14.007
91814SOL    HW277282   6.094   4.796  14.059
91815SOL     OW77283  12.354   7.159  11.357
91815SOL    HW177284  12.368   7.253  11.370
91815SOL    HW277285  12.266   7.142  11.390
91816SOL     OW77286   6.348  13.496   4.695
91816SOL    HW177287   6.396  13.494   4.778
91816SOL    HW277288   6.359  13.585   4.663
91817SOL     OW77289   2.809   1.501  12.135
91817SOL    HW177290   2.743   1.435  12.156
91817SOL    HW277291   2.890   1.467  12.174
91818SOL     OW77292  10.402   0.993   0.510
91818SOL    HW177293  10.494   0.984   0.485
91818SOL    HW277294  10.369   1.065   0.455
91819SOL     OW77295  13.401   7.387   6.916
91819SOL    HW177296  13.413   7.343   6.832
91819SOL    HW277297  13.398   7.480   6.894
91820SOL     OW77298   9.230   1.064   1.077
91820SOL    HW177299   9.206   1.141   1.129
91820SOL    HW277300   9.282   1.100   1.004
91821SOL     OW77301   3.723   8.873   6.379
91821SOL    HW177302   3.795   8.912   6.429
91821SOL    HW277303   3.746   8.890   6.288
91822SOL     OW77304   4.566  10.723   5.037
91822SOL    HW177305   4.554  10.681   4.953
91822SOL    HW277306   4.537  10.814   5.023
91823SOL     OW77307   6.625   2.314  13.915
91823SOL    HW177308   6.684   2.275  13.851
91823SOL    HW277309   6.673   2.312  13.997
91824SOL     OW77310   0.850  10.890   8.226
91824SOL    HW177311   0.797  10.836   8.285
91824SOL    HW277312   0.941  10.866   8.246
91825SOL     OW77313  13.509   7.604   0.713
91825SOL    HW177314  13.604   7.598   0.708
91825SOL    HW277315  13.489   7.692   0.682
91826SOL     OW77316  11.945   2.004  12.728
91826SOL    HW177317  11.872   2.049  12.686
91826SOL    HW277318  11.914   1.986  12.817
91827SOL     OW77319  13.302  14.167   7.388
91827SOL    HW177320  13.322  14.248   7.342
91827SOL    HW277321  13.388  14.131   7.411
91828SOL     OW77322   9.061   4.243   3.123
91828SOL    HW177323   9.058   4.171   3.060
91828SOL    HW277324   9.142   4.228   3.172
91829SOL     OW77325   3.388   5.135  11.969
91829SOL    HW177326   3.402   5.061  12.027
91829SOL    HW277327   3.454   5.200  11.996
91830SOL     OW77328   1.790   3.543   4.861
91830SOL    HW177329   1.878   3.522   4.828
91830SOL    HW277330   1.734   3.476   4.824
91831SOL     OW77331   2.209  14.801  13.088
91831SOL    HW177332   2.215  14.706  13.078
91831SOL    HW277333   2.294  14.827  13.123
91832SOL     OW77334   3.439  13.645   6.008
91832SOL    HW177335   3.510  13.582   6.021
91832SOL    HW277336   3.448  13.707   6.080
91833SOL     OW77337  13.442  13.557   1.821
91833SOL    HW177338  13.361  13.551   1.873
91833SOL    HW277339  13.508  13.586   1.884
91834SOL     OW77340   5.661  10.223   5.136
91834SOL    HW177341   5.663  10.127   5.143
91834SOL    HW277342   5.623  10.252   5.219
91835SOL     OW77343  13.099  13.152   8.755
91835SOL    HW177344  13.159  13.125   8.685
91835SOL    HW277345  13.047  13.222   8.716
91836SOL     OW77346  12.424   4.952   7.821
91836SOL    HW177347  12.507   4.914   7.850
91836SOL    HW277348  12.373   4.963   7.901
91837SOL     OW77349   0.345   6.201   7.553
91837SOL    HW177350   0.314   6.132   7.612
91837SOL    HW277351   0.431   6.172   7.524
91838SOL     OW77352   3.132  13.983   2.025
91838SOL    HW177353   3.203  14.028   1.978
91838SOL    HW277354   3.071  14.054   2.049
91839SOL     OW77355   0.635   4.619   2.057
91839SOL    HW177356   0.545   4.587   2.061
91839SOL    HW277357   0.631   4.692   1.995
91840SOL     OW77358   2.419  11.287   5.092
91840SOL    HW177359   2.481  11.267   5.162
91840SOL    HW277360   2.414  11.382   5.090
91841SOL     OW77361   8.406   0.923   7.833
91841SOL    HW177362   8.371   0.964   7.912
91841SOL    HW277363   8.339   0.859   7.808
91842SOL     OW77364  10.204   8.860  11.475
91842SOL    HW177365  10.152   8.824  11.403
91842SOL    HW277366  10.142   8.875  11.545
91843SOL     OW77367   3.415  13.835  14.345
91843SOL    HW177368   3.337  13.810  14.395
91843SOL    HW277369   3.488  13.818  14.404
91844SOL     OW77370   7.607   2.210  13.990
91844SOL    HW177371   7.587   2.119  14.010
91844SOL    HW277372   7.638   2.210  13.900
91845SOL     OW77373   5.135   9.330   2.163
91845SOL    HW177374   5.087   9.387   2.223
91845SOL    HW277375   5.211   9.300   2.214
91846SOL     OW77376   6.972   0.928  11.195
91846SOL    HW177377   6.985   0.919  11.101
91846SOL    HW277378   7.043   0.984  11.224
91847SOL     OW77379   0.769  11.463   0.745
91847SOL    HW177380   0.761  11.463   0.840
91847SOL    HW277381   0.764  11.371   0.720
91848SOL     OW77382  12.334  11.329  11.467
91848SOL    HW177383  12.323  11.391  11.540
91848SOL    HW277384  12.271  11.358  11.401
91849SOL     OW77385   1.802   2.275  11.949
91849SOL    HW177386   1.825   2.197  11.897
91849SOL    HW277387   1.708   2.266  11.964
91850SOL     OW77388  13.170   8.978   6.550
91850SOL    HW177389  13.121   9.059   6.562
91850SOL    HW277390  13.233   8.977   6.623
91851SOL     OW77391   8.844   3.767   6.178
91851SOL    HW177392   8.792   3.728   6.249
91851SOL    HW277393   8.877   3.693   6.128
91852SOL     OW77394   9.581  14.586   5.730
91852SOL    HW177395   9.493  14.549   5.726
91852SOL    HW277396   9.570  14.677   5.704
91853SOL     OW77397   0.035   1.577   1.028
91853SOL    HW177398  14.840   1.581   0.971
91853SOL    HW277399   0.006   1.619   1.109
91854SOL     OW77400   2.768   7.441   3.628
91854SOL    HW177401   2.854   7.469   3.661
91854SOL    HW277402   2.705   7.485   3.685
91855SOL     OW77403  10.711  12.316   9.299
91855SOL    HW177404  10.617  12.299   9.300
91855SOL    HW277405  10.727  12.361   9.217
91856SOL     OW77406   3.515   8.007   4.957
91856SOL    HW177407   3.591   8.063   4.940
91856SOL    HW277408   3.450   8.034   4.892
91857SOL     OW77409  12.265   0.308   0.391
91857SOL    HW177410  12.203   0.332   0.323
91857SOL    HW277411  12.339   0.368   0.379
91858SOL     OW77412   0.484   3.086   2.326
91858SOL    HW177413   0.446   3.041   2.401
91858SOL    HW277414   0.409   3.109   2.271
91859SOL     OW77415   8.281   8.979   9.333
91859SOL    HW177416   8.371   8.998   9.360
91859SOL    HW277417   8.243   9.065   9.315
91860SOL     OW77418   7.121  13.586   7.498
91860SOL    HW177419   7.043  13.621   7.541
91860SOL    HW277420   7.190  13.594   7.563
91861SOL     OW77421  10.919   1.816  10.037
91861SOL    HW177422  11.000   1.851  10.073
91861SOL    HW277423  10.863   1.803  10.114
91862SOL     OW77424  12.803  14.358   0.694
91862SOL    HW177425  12.802  14.265   0.716
91862SOL    HW277426  12.857  14.363   0.615
91863SOL     OW77427   3.321  13.674   2.894
91863SOL    HW177428   3.326  13.688   2.800
91863SOL    HW277429   3.386  13.734   2.931
91864SOL     OW77430  11.873   1.624   2.001
91864SOL    HW177431  11.939   1.686   1.971
91864SOL    HW277432  11.860   1.644   2.093
91865SOL     OW77433  14.774  12.063  12.229
91865SOL    HW177434  14.764  12.031  12.319
91865SOL    HW277435  14.803  11.986  12.180
91866SOL     OW77436   8.350   0.676  13.386
91866SOL    HW177437   8.257   0.685  13.403
91866SOL    HW277438   8.369   0.583  13.398
91867SOL     OW77439   1.972   4.475  13.071
91867SOL    HW177440   1.949   4.452  12.981
91867SOL    HW277441   2.064   4.502  13.065
91868SOL     OW77442   0.591   6.014  10.678
91868SOL    HW177443   0.583   5.971  10.593
91868SOL    HW277444   0.566   5.946  10.741
91869SOL     OW77445   2.565   2.256  14.714
91869SOL    HW177446   2.560   2.214  14.628
91869SOL    HW277447   2.577   2.183  14.775
91870SOL     OW77448   7.859   2.426   1.674
91870SOL    HW177449   7.935   2.388   1.628
91870SOL    HW277450   7.864   2.519   1.656
91871SOL     OW77451   0.682  12.844   8.761
91871SOL    HW177452   0.590  12.839   8.734
91871SOL    HW277453   0.693  12.933   8.792
91872SOL     OW77454   4.821   1.084  10.793
91872SOL    HW177455   4.894   1.033  10.757
91872SOL    HW277456   4.743   1.044  10.755
91873SOL     OW77457   6.714  13.700  13.680
91873SOL    HW177458   6.735  13.627  13.738
91873SOL    HW277459   6.626  13.681  13.649
91874SOL     OW77460  12.616   2.166   2.762
91874SOL    HW177461  12.614   2.144   2.669
91874SOL    HW277462  12.622   2.261   2.764
91875SOL     OW77463   2.228  11.694  11.761
91875SOL    HW177464   2.206  11.604  11.737
91875SOL    HW277465   2.169  11.715  11.833
91876SOL     OW77466   9.961  11.745   3.258
91876SOL    HW177467   9.952  11.650   3.265
91876SOL    HW277468  10.036  11.765   3.314
91877SOL     OW77469  13.196   4.889   4.779
91877SOL    HW177470  13.145   4.963   4.747
91877SOL    HW277471  13.158   4.813   4.733
91878SOL     OW77472  11.574   3.374  10.129
91878SOL    HW177473  11.641   3.441  10.138
91878SOL    HW277474  11.595   3.310  10.197
91879SOL     OW77475   1.851   2.481  11.488
91879SOL    HW177476   1.866   2.520  11.402
91879SOL    HW277477   1.774   2.527  11.522
91880SOL     OW77478   5.414   5.142   9.898
91880SOL    HW177479   5.331   5.188   9.884
91880SOL    HW277480   5.425   5.087   9.821
91881SOL     OW77481   6.131   9.170   3.035
91881SOL    HW177482   6.124   9.075   3.043
91881SOL    HW277483   6.111   9.187   2.943
91882SOL     OW77484   4.189   6.672  13.564
91882SOL    HW177485   4.154   6.744  13.618
91882SOL    HW277486   4.275   6.703  13.536
91883SOL     OW77487  10.640   4.043   1.733
91883SOL    HW177488  10.643   3.955   1.696
91883SOL    HW277489  10.554   4.077   1.708
91884SOL     OW77490  14.404  13.488  12.915
91884SOL    HW177491  14.396  13.529  13.001
91884SOL    HW277492  14.338  13.532  12.861
91885SOL     OW77493   4.155   3.622   2.557
91885SOL    HW177494   4.134   3.696   2.615
91885SOL    HW277495   4.187   3.554   2.615
91886SOL     OW77496   8.450   5.618  10.092
91886SOL    HW177497   8.473   5.546  10.150
91886SOL    HW277498   8.448   5.695  10.148
91887SOL     OW77499  12.138   4.499   0.847
91887SOL    HW177500  12.056   4.463   0.883
91887SOL    HW277501  12.111   4.576   0.797
91888SOL     OW77502  10.853  12.844  11.584
91888SOL    HW177503  10.768  12.816  11.617
91888SOL    HW277504  10.857  12.809  11.495
91889SOL     OW77505   4.906   2.628   5.826
91889SOL    HW177506   4.911   2.709   5.776
91889SOL    HW277507   4.916   2.656   5.917
91890SOL     OW77508   6.924   5.556  13.476
91890SOL    HW177509   6.965   5.549  13.561
91890SOL    HW277510   6.971   5.493  13.421
91891SOL     OW77511   8.230  12.250   8.329
91891SOL    HW177512   8.257  12.342   8.326
91891SOL    HW277513   8.192  12.239   8.416
91892SOL     OW77514   4.059  10.478   1.363
91892SOL    HW177515   4.144  10.491   1.404
91892SOL    HW277516   4.041  10.385   1.372
91893SOL     OW77517   6.453   9.082   1.091
91893SOL    HW177518   6.440   9.028   1.168
91893SOL    HW277519   6.526   9.041   1.045
91894SOL     OW77520  11.397  11.763  10.952
91894SOL    HW177521  11.480  11.726  10.920
91894SOL    HW277522  11.344  11.687  10.976
91895SOL     OW77523   9.902   2.144  11.089
91895SOL    HW177524   9.887   2.230  11.128
91895SOL    HW277525   9.906   2.084  11.163
91896SOL     OW77526   9.244   6.641   8.835
91896SOL    HW177527   9.282   6.729   8.833
91896SOL    HW277528   9.229   6.619   8.743
91897SOL     OW77529  14.545  12.555  12.540
91897SOL    HW177530  14.600  12.564  12.463
91897SOL    HW277531  14.542  12.643  12.577
91898SOL     OW77532  12.569   3.972   8.110
91898SOL    HW177533  12.483   3.936   8.088
91898SOL    HW277534  12.631   3.905   8.081
91899SOL     OW77535  11.910  10.077   2.659
91899SOL    HW177536  11.871   9.993   2.684
91899SOL    HW277537  11.868  10.100   2.577
91900SOL     OW77538  10.253   3.468   5.300
91900SOL    HW177539  10.303   3.472   5.218
91900SOL    HW277540  10.162   3.472   5.272
91901SOL     OW77541   6.951   0.804   2.102
91901SOL    HW177542   7.012   0.792   2.174
91901SOL    HW277543   7.001   0.850   2.035
91902SOL     OW77544   9.374  12.365  10.288
91902SOL    HW177545   9.357  12.428  10.219
91902SOL    HW277546   9.288  12.327  10.308
91903SOL     OW77547  13.998   1.987  14.389
91903SOL    HW177548  14.091   1.965  14.392
91903SOL    HW277549  13.983   2.038  14.469
91904SOL     OW77550   1.918   7.255   8.638
91904SOL    HW177551   1.986   7.220   8.580
91904SOL    HW277552   1.836   7.221   8.603
91905SOL     OW77553   9.697   4.958  12.322
91905SOL    HW177554   9.715   4.885  12.263
91905SOL    HW277555   9.663   5.027  12.265
91906SOL     OW77556   6.842  13.334  11.934
91906SOL    HW177557   6.856  13.310  11.842
91906SOL    HW277558   6.831  13.251  11.979
91907SOL     OW77559   4.030  11.673  13.645
91907SOL    HW177560   4.032  11.759  13.604
91907SOL    HW277561   4.122  11.649  13.655
91908SOL     OW77562  10.272   9.372  11.494
91908SOL    HW177563  10.264   9.352  11.401
91908SOL    HW277564  10.367   9.379  11.508
91909SOL     OW77565   0.227  12.295  12.386
91909SOL    HW177566   0.147  12.340  12.360
91909SOL    HW277567   0.292  12.365  12.395
91910SOL     OW77568   0.660  11.881  12.423
91910SOL    HW177569   0.633  11.886  12.331
91910SOL    HW277570   0.724  11.810  12.425
91911SOL     OW77571   3.796  10.171   2.898
91911SOL    HW177572   3.841  10.205   2.820
91911SOL    HW277573   3.718  10.128   2.863
91912SOL     OW77574   9.178   4.265  14.265
91912SOL    HW177575   9.248   4.245  14.203
91912SOL    HW277576   9.102   4.218  14.231
91913SOL     OW77577  11.425   6.609   6.637
91913SOL    HW177578  11.470   6.654   6.566
91913SOL    HW277579  11.373   6.677   6.680
91914SOL     OW77580  13.914   0.440   3.661
91914SOL    HW177581  13.832   0.399   3.689
91914SOL    HW277582  13.981   0.397   3.713
91915SOL     OW77583   1.775   2.957   6.531
91915SOL    HW177584   1.756   3.012   6.454
91915SOL    HW277585   1.700   2.897   6.536
91916SOL     OW77586  10.891  14.861   7.881
91916SOL    HW177587  10.940  14.778   7.881
91916SOL    HW277588  10.863  14.872   7.790
91917SOL     OW77589  14.348   1.587  13.870
91917SOL    HW177590  14.332   1.628  13.955
91917SOL    HW277591  14.436   1.616  13.846
91918SOL     OW77592  14.822  11.863   0.705
91918SOL    HW177593  14.736  11.882   0.741
91918SOL    HW277594   0.002  11.896   0.770
91919SOL     OW77595  12.569   2.791  10.935
91919SOL    HW177596  12.571   2.848  10.858
91919SOL    HW277597  12.661   2.768  10.950
91920SOL     OW77598   5.235   8.358   7.920
91920SOL    HW177599   5.143   8.384   7.913
91920SOL    HW277600   5.247   8.297   7.847
91921SOL     OW77601   4.494   0.696   2.695
91921SOL    HW177602   4.439   0.774   2.708
91921SOL    HW277603   4.573   0.729   2.653
91922SOL     OW77604   5.821   8.757   7.702
91922SOL    HW177605   5.838   8.699   7.627
91922SOL    HW277606   5.819   8.845   7.664
91923SOL     OW77607  13.330  12.028   9.474
91923SOL    HW177608  13.358  12.048   9.385
91923SOL    HW277609  13.408  12.041   9.527
91924SOL     OW77610  14.740  13.483  13.948
91924SOL    HW177611  14.762  13.484  13.855
91924SOL    HW277612  14.804  13.542  13.988
91925SOL     OW77613   2.827   0.425   6.756
91925SOL    HW177614   2.767   0.498   6.739
91925SOL    HW277615   2.770   0.349   6.763
91926SOL     OW77616   7.917   9.595   9.934
91926SOL    HW177617   7.930   9.688   9.951
91926SOL    HW277618   8.000   9.554   9.958
91927SOL     OW77619   9.663  11.955  14.681
91927SOL    HW177620   9.653  12.049  14.689
91927SOL    HW277621   9.688  11.926  14.768
91928SOL     OW77622   0.994  13.774  13.789
91928SOL    HW177623   0.978  13.804  13.700
91928SOL    HW277624   0.933  13.702  13.802
91929SOL     OW77625   6.715   6.527   9.153
91929SOL    HW177626   6.790   6.553   9.099
91929SOL    HW277627   6.641   6.527   9.093
91930SOL     OW77628  11.866   1.506   3.196
91930SOL    HW177629  11.770   1.511   3.198
91930SOL    HW277630  11.885   1.423   3.151
91931SOL     OW77631   4.135   7.294   0.101
91931SOL    HW177632   4.041   7.281   0.089
91931SOL    HW277633   4.148   7.388   0.088
91932SOL     OW77634   5.194  12.377   5.216
91932SOL    HW177635   5.104  12.401   5.239
91932SOL    HW277636   5.243  12.384   5.297
91933SOL     OW77637  14.696  14.381   0.137
91933SOL    HW177638  14.787  14.355   0.122
91933SOL    HW277639  14.659  14.310   0.189
91934SOL     OW77640   0.378   2.717  13.537
91934SOL    HW177641   0.411   2.752  13.619
91934SOL    HW277642   0.426   2.635  13.524
91935SOL     OW77643   0.905   0.207  10.603
91935SOL    HW177644   0.919   0.278  10.541
91935SOL    HW277645   0.991   0.165  10.612
91936SOL     OW77646   7.268   3.816   3.659
91936SOL    HW177647   7.194   3.875   3.647
91936SOL    HW277648   7.231   3.728   3.650
91937SOL     OW77649   7.975   4.939   3.531
91937SOL    HW177650   7.936   5.006   3.588
91937SOL    HW277651   7.913   4.867   3.533
91938SOL     OW77652   5.528  10.623  12.423
91938SOL    HW177653   5.436  10.597  12.426
91938SOL    HW277654   5.574  10.544  12.395
91939SOL     OW77655   8.641   6.387  13.812
91939SOL    HW177656   8.713   6.424  13.761
91939SOL    HW277657   8.571   6.373  13.748
91940SOL     OW77658  14.417   1.968  11.642
91940SOL    HW177659  14.468   2.022  11.702
91940SOL    HW277660  14.482   1.916  11.594
91941SOL     OW77661   3.738  12.095  10.321
91941SOL    HW177662   3.800  12.023  10.335
91941SOL    HW277663   3.666  12.076  10.382
91942SOL     OW77664  10.619  13.047  11.476
91942SOL    HW177665  10.684  13.116  11.457
91942SOL    HW277666  10.603  13.006  11.391
91943SOL     OW77667   9.750  11.233   0.868
91943SOL    HW177668   9.660  11.214   0.844
91943SOL    HW277669   9.781  11.153   0.911
91944SOL     OW77670   4.688   8.169   0.670
91944SOL    HW177671   4.769   8.153   0.717
91944SOL    HW277672   4.676   8.264   0.674
91945SOL     OW77673   0.053   8.376  10.297
91945SOL    HW177674   0.013   8.432  10.230
91945SOL    HW277675   0.142   8.360  10.264
91946SOL     OW77676  14.205   2.141   6.754
91946SOL    HW177677  14.258   2.085   6.810
91946SOL    HW277678  14.159   2.199   6.814
91947SOL     OW77679   7.101   5.695   1.559
91947SOL    HW177680   7.142   5.624   1.511
91947SOL    HW277681   7.147   5.774   1.529
91948SOL     OW77682  13.636   7.276   5.310
91948SOL    HW177683  13.636   7.207   5.245
91948SOL    HW277684  13.672   7.236   5.389
91949SOL     OW77685  11.358   6.027   1.244
91949SOL    HW177686  11.313   6.111   1.251
91949SOL    HW277687  11.409   6.033   1.164
91950SOL     OW77688  12.324  11.483   2.387
91950SOL    HW177689  12.320  11.447   2.298
91950SOL    HW277690  12.290  11.414   2.443
91951SOL     OW77691  11.617   0.911   6.789
91951SOL    HW177692  11.578   0.846   6.847
91951SOL    HW277693  11.619   0.869   6.704
91952SOL     OW77694   2.379   8.784   7.506
91952SOL    HW177695   2.286   8.800   7.495
91952SOL    HW277696   2.407   8.747   7.422
91953SOL     OW77697   9.495   8.322  12.428
91953SOL    HW177698   9.402   8.342  12.425
91953SOL    HW277699   9.521   8.313  12.336
91954SOL     OW77700  13.995   6.324   2.397
91954SOL    HW177701  14.006   6.246   2.451
91954SOL    HW277702  14.063   6.384   2.428
91955SOL     OW77703  10.131   2.250  13.058
91955SOL    HW177704  10.167   2.182  13.002
91955SOL    HW277705  10.106   2.320  12.998
91956SOL     OW77706   5.162  11.040  14.098
91956SOL    HW177707   5.077  11.006  14.072
91956SOL    HW277708   5.181  11.110  14.035
91957SOL     OW77709   1.984   1.368   8.825
91957SOL    HW177710   1.965   1.284   8.867
91957SOL    HW277711   2.069   1.394   8.861
91958SOL     OW77712  13.873  14.690  11.219
91958SOL    HW177713  13.938  14.706  11.150
91958SOL    HW277714  13.830  14.775  11.232
91959SOL     OW77715   1.289   9.897   5.446
91959SOL    HW177716   1.312   9.843   5.522
91959SOL    HW277717   1.277   9.985   5.481
91960SOL     OW77718   6.092   3.464   1.872
91960SOL    HW177719   6.145   3.445   1.950
91960SOL    HW277720   6.118   3.552   1.846
91961SOL     OW77721  11.490   0.869   1.620
91961SOL    HW177722  11.432   0.921   1.564
91961SOL    HW277723  11.547   0.822   1.559
91962SOL     OW77724   6.241   1.844  13.097
91962SOL    HW177725   6.264   1.843  13.005
91962SOL    HW277726   6.204   1.757  13.114
91963SOL     OW77727   5.708  14.345  11.419
91963SOL    HW177728   5.759  14.412  11.373
91963SOL    HW277729   5.642  14.317  11.355
91964SOL     OW77730   9.554  11.104   9.340
91964SOL    HW177731   9.513  11.178   9.295
91964SOL    HW277732   9.628  11.143   9.387
91965SOL     OW77733  14.054  10.665  10.130
91965SOL    HW177734  14.109  10.738  10.100
91965SOL    HW277735  14.068  10.661  10.224
91966SOL     OW77736  13.188   0.451   0.519
91966SOL    HW177737  13.256   0.413   0.463
91966SOL    HW277738  13.154   0.376   0.568
91967SOL     OW77739   6.859   4.730  10.953
91967SOL    HW177740   6.771   4.745  10.989
91967SOL    HW277741   6.918   4.751  11.025
91968SOL     OW77742   6.249   0.348   2.610
91968SOL    HW177743   6.197   0.427   2.625
91968SOL    HW277744   6.211   0.283   2.669
91969SOL     OW77745   1.484   0.430   0.849
91969SOL    HW177746   1.493   0.496   0.918
91969SOL    HW277747   1.574   0.404   0.828
91970SOL     OW77748  11.560   9.434  11.184
91970SOL    HW177749  11.546   9.380  11.107
91970SOL    HW277750  11.619   9.503  11.154
91971SOL     OW77751   0.219   9.670  10.436
91971SOL    HW177752   0.156   9.706  10.499
91971SOL    HW277753   0.212   9.727  10.359
91972SOL     OW77754   6.103  14.732   9.507
91972SOL    HW177755   6.185  14.733   9.457
91972SOL    HW277756   6.054  14.807   9.474
91973SOL     OW77757   0.077  14.137   0.649
91973SOL    HW177758   0.002  14.138   0.708
91973SOL    HW277759   0.044  14.176   0.568
91974SOL     OW77760   1.269   7.416   5.110
91974SOL    HW177761   1.250   7.477   5.180
91974SOL    HW277762   1.342   7.456   5.062
91975SOL     OW77763  13.519   8.129  14.881
91975SOL    HW177764  13.493   8.052   0.049
91975SOL    HW277765  13.615   8.123  14.877
91976SOL     OW77766   1.173   6.076   3.853
91976SOL    HW177767   1.115   6.002   3.868
91976SOL    HW277768   1.261   6.040   3.861
91977SOL     OW77769   9.137   3.561   7.933
91977SOL    HW177770   9.084   3.602   8.002
91977SOL    HW277771   9.151   3.472   7.963
91978SOL     OW77772  10.700  14.748  14.683
91978SOL    HW177773  10.680  14.655  14.693
91978SOL    HW277774  10.794  14.750  14.664
91979SOL     OW77775   5.706   5.855   2.392
91979SOL    HW177776   5.790   5.842   2.347
91979SOL    HW277777   5.727   5.844   2.485
91980SOL     OW77778  13.930  10.945   6.107
91980SOL    HW177779  13.997  10.977   6.167
91980SOL    HW277780  13.885  11.023   6.077
91981SOL     OW77781   2.570   5.715   4.671
91981SOL    HW177782   2.478   5.735   4.652
91981SOL    HW277783   2.566   5.643   4.734
91982SOL     OW77784   5.019   6.777  11.273
91982SOL    HW177785   5.057   6.842  11.213
91982SOL    HW277786   5.082   6.771  11.344
91983SOL     OW77787  11.396   6.691  13.675
91983SOL    HW177788  11.406   6.769  13.619
91983SOL    HW277789  11.478   6.687  13.725
91984SOL     OW77790   8.185  10.181   0.627
91984SOL    HW177791   8.202  10.213   0.538
91984SOL    HW277792   8.125  10.246   0.664
91985SOL     OW77793   5.014   4.222  13.100
91985SOL    HW177794   5.001   4.130  13.077
91985SOL    HW277795   5.052   4.261  13.022
91986SOL     OW77796  11.006   4.049  10.631
91986SOL    HW177797  10.993   4.114  10.700
91986SOL    HW277798  11.097   4.020  10.642
91987SOL     OW77799   8.113   9.380   7.578
91987SOL    HW177800   8.151   9.370   7.490
91987SOL    HW277801   8.169   9.444   7.621
91988SOL     OW77802   6.559   7.046   5.621
91988SOL    HW177803   6.534   6.999   5.541
91988SOL    HW277804   6.650   7.073   5.605
91989SOL     OW77805   8.547  13.601  12.693
91989SOL    HW177806   8.545  13.517  12.647
91989SOL    HW277807   8.503  13.662  12.633
91990SOL     OW77808  12.288   9.771   5.697
91990SOL    HW177809  12.229   9.703   5.731
91990SOL    HW277810  12.271   9.772   5.603
91991SOL     OW77811   4.140   3.902  13.991
91991SOL    HW177812   4.117   3.954  14.067
91991SOL    HW277813   4.161   3.815  14.027
91992SOL     OW77814   3.420   8.867   6.133
91992SOL    HW177815   3.386   8.862   6.044
91992SOL    HW277816   3.348   8.837   6.188
91993SOL     OW77817   1.351   4.346   9.019
91993SOL    HW177818   1.284   4.376   9.080
91993SOL    HW277819   1.424   4.319   9.075
91994SOL     OW77820   4.249   9.641  10.244
91994SOL    HW177821   4.316   9.705  10.270
91994SOL    HW277822   4.172   9.694  10.225
91995SOL     OW77823   6.126   4.948  10.764
91995SOL    HW177824   6.068   4.952  10.688
91995SOL    HW277825   6.214   4.953  10.727
91996SOL     OW77826   5.724   1.390   8.729
91996SOL    HW177827   5.695   1.306   8.764
91996SOL    HW277828   5.725   1.449   8.805
91997SOL     OW77829   4.549   8.164   2.135
91997SOL    HW177830   4.633   8.149   2.092
91997SOL    HW277831   4.546   8.101   2.207
91998SOL     OW77832   9.721   8.764   9.884
91998SOL    HW177833   9.641   8.728   9.845
91998SOL    HW277834   9.792   8.720   9.838
91999SOL     OW77835   2.299   7.467   9.266
91999SOL    HW177836   2.273   7.519   9.343
91999SOL    HW277837   2.390   7.490   9.251
92000SOL     OW77838  10.121  11.489  13.004
92000SOL    HW177839  10.114  11.584  13.009
92000SOL    HW277840  10.041  11.457  13.044
92001SOL     OW77841   0.055  13.334  13.754
92001SOL    HW177842   0.101  13.366  13.832
92001SOL    HW277843   0.122  13.289  13.703
92002SOL     OW77844   5.469  14.416  13.280
92002SOL    HW177845   5.454  14.507  13.255
92002SOL    HW277846   5.487  14.420  13.374
92003SOL     OW77847  13.384   2.680   0.011
92003SOL    HW177848  13.360   2.589  14.876
92003SOL    HW277849  13.356   2.695   0.101
92004SOL     OW77850  14.001  12.580   4.208
92004SOL    HW177851  14.022  12.556   4.117
92004SOL    HW277852  13.907  12.566   4.216
92005SOL     OW77853   0.860  10.512   9.141
92005SOL    HW177854   0.919  10.505   9.216
92005SOL    HW277855   0.868  10.602   9.112
92006SOL     OW77856   8.092  10.928   5.735
92006SOL    HW177857   8.048  11.007   5.766
92006SOL    HW277858   8.153  10.904   5.805
92007SOL     OW77859  11.111   2.950  11.254
92007SOL    HW177860  11.138   3.038  11.227
92007SOL    HW277861  11.125   2.949  11.348
92008SOL     OW77862   5.028  13.478   4.657
92008SOL    HW177863   5.112  13.522   4.670
92008SOL    HW277864   4.967  13.548   4.633
92009SOL     OW77865  13.117   2.822   1.429
92009SOL    HW177866  13.060   2.765   1.378
92009SOL    HW277867  13.204   2.782   1.422
92010SOL     OW77868  13.909   9.222   1.974
92010SOL    HW177869  13.939   9.256   1.889
92010SOL    HW277870  13.855   9.146   1.952
92011SOL     OW77871  11.347   6.202   4.817
92011SOL    HW177872  11.416   6.188   4.752
92011SOL    HW277873  11.390   6.252   4.886
92012SOL     OW77874   0.146   9.484   8.319
92012SOL    HW177875   0.131   9.546   8.392
92012SOL    HW277876   0.170   9.402   8.362
92013SOL     OW77877   0.076   1.241   5.897
92013SOL    HW177878   0.138   1.307   5.867
92013SOL    HW277879   0.104   1.219   5.986
92014SOL     OW77880   1.722   7.292  12.340
92014SOL    HW177881   1.807   7.327  12.315
92014SOL    HW277882   1.729   7.198  12.324
92015SOL     OW77883   3.282   2.917   7.147
92015SOL    HW177884   3.246   2.829   7.132
92015SOL    HW277885   3.273   2.962   7.063
92016SOL     OW77886   5.060  11.941   4.960
92016SOL    HW177887   5.074  11.874   4.893
92016SOL    HW277888   5.118  12.013   4.935
92017SOL     OW77889   3.146   1.915   1.929
92017SOL    HW177890   3.199   1.953   1.859
92017SOL    HW277891   3.204   1.915   2.005
92018SOL     OW77892  13.551  13.553   4.257
92018SOL    HW177893  13.646  13.563   4.249
92018SOL    HW277894  13.515  13.629   4.211
92019SOL     OW77895   3.178   6.551  10.114
92019SOL    HW177896   3.100   6.587  10.155
92019SOL    HW277897   3.217   6.624  10.066
92020SOL     OW77898  13.319   0.319   2.904
92020SOL    HW177899  13.362   0.376   2.966
92020SOL    HW277900  13.376   0.320   2.827
92021SOL     OW77901   4.677   7.593   2.146
92021SOL    HW177902   4.725   7.592   2.229
92021SOL    HW277903   4.591   7.630   2.169
92022SOL     OW77904   2.964  13.941   2.963
92022SOL    HW177905   2.899  13.915   3.028
92022SOL    HW277906   2.915  13.995   2.900
92023SOL     OW77907   1.352   0.821   7.664
92023SOL    HW177908   1.336   0.727   7.667
92023SOL    HW277909   1.417   0.832   7.595
92024SOL     OW77910   3.322  11.389   7.712
92024SOL    HW177911   3.262  11.446   7.760
92024SOL    HW277912   3.393  11.447   7.685
92025SOL     OW77913  12.611   5.785  11.243
92025SOL    HW177914  12.622   5.826  11.329
92025SOL    HW277915  12.593   5.858  11.184
92026SOL     OW77916  12.553   5.126   4.579
92026SOL    HW177917  12.544   5.220   4.561
92026SOL    HW277918  12.645   5.107   4.561
92027SOL     OW77919   3.008   2.845   9.961
92027SOL    HW177920   2.992   2.780   9.892
92027SOL    HW277921   2.959   2.922   9.933
92028SOL     OW77922   0.649  11.137   8.970
92028SOL    HW177923   0.657  11.070   9.038
92028SOL    HW277924   0.738  11.152   8.940
92029SOL     OW77925   7.216  11.155   2.389
92029SOL    HW177926   7.168  11.094   2.332
92029SOL    HW277927   7.208  11.239   2.344
92030SOL     OW77928   2.719   4.517   2.630
92030SOL    HW177929   2.779   4.569   2.683
92030SOL    HW277930   2.744   4.537   2.540
92031SOL     OW77931  11.596   8.260  10.606
92031SOL    HW177932  11.650   8.217  10.540
92031SOL    HW277933  11.658   8.301  10.666
92032SOL     OW77934   9.856   7.727  11.278
92032SOL    HW177935   9.836   7.634  11.267
92032SOL    HW277936   9.810   7.770  11.205
92033SOL     OW77937   1.626   1.259   0.619
92033SOL    HW177938   1.719   1.273   0.634
92033SOL    HW277939   1.620   1.235   0.526
92034SOL     OW77940  13.793   1.580  10.726
92034SOL    HW177941  13.823   1.626  10.648
92034SOL    HW277942  13.759   1.648  10.783
92035SOL     OW77943   3.162   1.845  11.374
92035SOL    HW177944   3.156   1.900  11.452
92035SOL    HW277945   3.097   1.776  11.388
92036SOL     OW77946   6.599   4.670   5.989
92036SOL    HW177947   6.578   4.762   5.973
92036SOL    HW277948   6.570   4.654   6.079
92037SOL     OW77949   1.062   3.913   1.764
92037SOL    HW177950   1.071   3.828   1.808
92037SOL    HW277951   1.015   3.968   1.827
92038SOL     OW77952   5.937   0.990  11.976
92038SOL    HW177953   5.953   0.941  11.895
92038SOL    HW277954   5.865   1.049  11.954
92039SOL     OW77955  11.838   7.164  12.613
92039SOL    HW177956  11.922   7.144  12.570
92039SOL    HW277957  11.828   7.095  12.678
92040SOL     OW77958   6.879  11.875   8.739
92040SOL    HW177959   6.893  11.830   8.822
92040SOL    HW277960   6.960  11.860   8.690
92041SOL     OW77961  13.020  12.510  14.445
92041SOL    HW177962  13.026  12.585  14.504
92041SOL    HW277963  13.099  12.459  14.463
92042SOL     OW77964   7.192   4.295   9.040
92042SOL    HW177965   7.188   4.222   9.102
92042SOL    HW277966   7.101   4.320   9.026
92043SOL     OW77967  13.751  12.370   8.590
92043SOL    HW177968  13.739  12.291   8.537
92043SOL    HW277969  13.767  12.338   8.678
92044SOL     OW77970  12.993  11.933  10.963
92044SOL    HW177971  12.997  11.853  11.016
92044SOL    HW277972  13.084  11.952  10.941
92045SOL     OW77973  10.271  13.395  12.135
92045SOL    HW177974  10.348  13.395  12.079
92045SOL    HW277975  10.285  13.468  12.195
92046SOL     OW77976   8.688   3.581  12.968
92046SOL    HW177977   8.676   3.489  12.944
92046SOL    HW277978   8.778   3.601  12.942
92047SOL     OW77979   4.965   3.977   5.973
92047SOL    HW177980   4.898   4.039   6.002
92047SOL    HW277981   5.045   4.029   5.966
92048SOL     OW77982  12.504  10.295   0.345
92048SOL    HW177983  12.421  10.255   0.372
92048SOL    HW277984  12.553  10.224   0.304
92049SOL     OW77985  12.749   0.463  10.224
92049SOL    HW177986  12.787   0.417  10.299
92049SOL    HW277987  12.809   0.445  10.152
92050SOL     OW77988   3.485   7.841   3.869
92050SOL    HW177989   3.446   7.871   3.787
92050SOL    HW277990   3.536   7.764   3.844
92051SOL     OW77991  10.106   7.534  10.258
92051SOL    HW177992  10.030   7.564  10.208
92051SOL    HW277993  10.172   7.515  10.191
92052SOL     OW77994  12.506  10.670  11.637
92052SOL    HW177995  12.591  10.689  11.677
92052SOL    HW277996  12.443  10.681  11.708
92053SOL     OW77997  12.658  13.870  13.116
92053SOL    HW177998  12.746  13.897  13.142
92053SOL    HW277999  12.629  13.939  13.056
92054SOL     OW78000  12.577   7.399   4.068
92054SOL    HW178001  12.597   7.411   3.976
92054SOL    HW278002  12.657   7.423   4.114
92055SOL     OW78003   3.807  11.153   2.952
92055SOL    HW178004   3.875  11.169   2.887
92055SOL    HW278005   3.854  11.143   3.034
92056SOL     OW78006  13.469   9.480   0.283
92056SOL    HW178007  13.539   9.546   0.282
92056SOL    HW278008  13.484   9.428   0.204
92057SOL     OW78009   7.446  12.396   9.033
92057SOL    HW178010   7.385  12.367   8.965
92057SOL    HW278011   7.532  12.366   9.002
92058SOL     OW78012   3.209   4.009   3.306
92058SOL    HW178013   3.289   3.992   3.256
92058SOL    HW278014   3.200   3.932   3.363
92059SOL     OW78015   5.848   2.243   6.385
92059SOL    HW178016   5.778   2.200   6.434
92059SOL    HW278017   5.863   2.325   6.431
92060SOL     OW78018   9.752   9.312   6.955
92060SOL    HW178019   9.760   9.279   7.044
92060SOL    HW278020   9.754   9.233   6.900
92061SOL     OW78021   7.850  10.819  10.727
92061SOL    HW178022   7.913  10.844  10.659
92061SOL    HW278023   7.818  10.733  10.700
92062SOL     OW78024   4.029   5.443   4.090
92062SOL    HW178025   4.107   5.499   4.098
92062SOL    HW278026   4.008   5.419   4.180
92063SOL     OW78027   8.209   7.361   9.751
92063SOL    HW178028   8.216   7.285   9.693
92063SOL    HW278029   8.147   7.419   9.708
92064SOL     OW78030   9.504  12.175   6.986
92064SOL    HW178031   9.570  12.112   6.959
92064SOL    HW278032   9.476  12.146   7.072
92065SOL     OW78033   8.103  10.194   9.763
92065SOL    HW178034   8.177  10.135   9.748
92065SOL    HW278035   8.124  10.273   9.715
92066SOL     OW78036   7.699   3.269   0.173
92066SOL    HW178037   7.643   3.338   0.137
92066SOL    HW278038   7.647   3.189   0.164
92067SOL     OW78039   5.238  14.715   9.248
92067SOL    HW178040   5.331  14.733   9.236
92067SOL    HW278041   5.234  14.622   9.270
92068SOL     OW78042   9.733  11.552   6.287
92068SOL    HW178043   9.673  11.620   6.316
92068SOL    HW278044   9.741  11.492   6.361
92069SOL     OW78045   6.098  13.623   8.792
92069SOL    HW178046   6.021  13.574   8.820
92069SOL    HW278047   6.139  13.567   8.726
92070SOL     OW78048   3.611  14.581   2.035
92070SOL    HW178049   3.645  14.521   1.969
92070SOL    HW278050   3.688  14.607   2.086
92071SOL     OW78051   6.208   7.659  13.771
92071SOL    HW178052   6.200   7.746  13.731
92071SOL    HW278053   6.233   7.677  13.861
92072SOL     OW78054   1.817  13.717   0.951
92072SOL    HW178055   1.733  13.753   0.923
92072SOL    HW278056   1.878  13.790   0.942
92073SOL     OW78057   6.700   4.000  10.882
92073SOL    HW178058   6.604   3.996  10.884
92073SOL    HW278059   6.728   3.945  10.954
92074SOL     OW78060   5.598  11.723  14.331
92074SOL    HW178061   5.571  11.631  14.329
92074SOL    HW278062   5.658  11.732  14.257
92075SOL     OW78063  11.115   3.850  13.177
92075SOL    HW178064  11.171   3.924  13.198
92075SOL    HW278065  11.046   3.853  13.244
92076SOL     OW78066   1.919   6.448   6.850
92076SOL    HW178067   1.907   6.364   6.895
92076SOL    HW278068   1.995   6.487   6.892
92077SOL     OW78069   8.713   7.619   6.152
92077SOL    HW178070   8.765   7.688   6.110
92077SOL    HW278071   8.666   7.663   6.222
92078SOL     OW78072   5.255  12.769  13.648
92078SOL    HW178073   5.277  12.857  13.679
92078SOL    HW278074   5.327  12.746  13.589
92079SOL     OW78075   5.894   1.084   1.140
92079SOL    HW178076   5.895   0.997   1.180
92079SOL    HW278077   5.986   1.102   1.119
92080SOL     OW78078  10.328  12.510   1.228
92080SOL    HW178079  10.338  12.599   1.196
92080SOL    HW278080  10.240  12.507   1.266
92081SOL     OW78081   7.248   7.859  12.760
92081SOL    HW178082   7.257   7.954  12.748
92081SOL    HW278083   7.276   7.821  12.677
92082SOL     OW78084  12.696   0.402  11.997
92082SOL    HW178085  12.703   0.316  12.039
92082SOL    HW278086  12.786   0.428  11.980
92083SOL     OW78087   7.482  14.599  10.539
92083SOL    HW178088   7.388  14.616  10.540
92083SOL    HW278089   7.509  14.607  10.631
92084SOL     OW78090   0.304   2.698  14.770
92084SOL    HW178091   0.344   2.785  14.764
92084SOL    HW278092   0.286   2.673  14.679
92085SOL     OW78093   3.554   0.608  10.860
92085SOL    HW178094   3.473   0.558  10.849
92085SOL    HW278095   3.552   0.672  10.788
92086SOL     OW78096   9.954   4.076  14.863
92086SOL    HW178097   9.881   4.060   0.041
92086SOL    HW278098   9.912   4.111  14.784
92087SOL     OW78099   7.646   4.507   3.429
92087SOL    HW178100   7.629   4.555   3.510
92087SOL    HW278101   7.563   4.464   3.409
92088SOL     OW78102   0.085  14.644   1.203
92088SOL    HW178103   0.100  14.610   1.115
92088SOL    HW278104   0.096  14.738   1.195
92089SOL     OW78105  10.029  13.203   5.247
92089SOL    HW178106  10.072  13.207   5.332
92089SOL    HW278107   9.941  13.239   5.262
92090SOL     OW78108   7.449   4.997   0.575
92090SOL    HW178109   7.395   4.918   0.586
92090SOL    HW278110   7.438   5.045   0.658
92091SOL     OW78111   0.214   7.423   6.880
92091SOL    HW178112   0.199   7.331   6.858
92091SOL    HW278113   0.129   7.465   6.868
92092SOL     OW78114  10.407   2.276   5.859
92092SOL    HW178115  10.428   2.235   5.942
92092SOL    HW278116  10.331   2.332   5.877
92093SOL     OW78117  11.933  14.527   4.044
92093SOL    HW178118  11.995  14.535   3.972
92093SOL    HW278119  11.912  14.433   4.048
92094SOL     OW78120  12.071  14.332  14.416
92094SOL    HW178121  12.112  14.389  14.351
92094SOL    HW278122  12.084  14.243  14.382
92095SOL     OW78123  14.345   1.833   9.685
92095SOL    HW178124  14.311   1.745   9.699
92095SOL    HW278125  14.305   1.862   9.604
92096SOL     OW78126   9.080  14.101   1.313
92096SOL    HW178127   8.993  14.081   1.350
92096SOL    HW278128   9.140  14.084   1.385
92097SOL     OW78129   5.344  14.111  13.005
92097SOL    HW178130   5.337  14.144  12.915
92097SOL    HW278131   5.333  14.188  13.060
92098SOL     OW78132  10.436  11.802   2.705
92098SOL    HW178133  10.354  11.835   2.669
92098SOL    HW278134  10.495  11.877   2.704
92099SOL     OW78135  14.333   2.455  12.373
92099SOL    HW178136  14.240   2.478  12.373
92099SOL    HW278137  14.337   2.375  12.320
92100SOL     OW78138   9.862   2.968   0.504
92100SOL    HW178139   9.926   3.037   0.522
92100SOL    HW278140   9.874   2.904   0.575
92101SOL     OW78141  10.331   3.031   9.730
92101SOL    HW178142  10.352   2.977   9.654
92101SOL    HW278143  10.236   3.041   9.727
92102SOL     OW78144   8.239   2.435   7.576
92102SOL    HW178145   8.317   2.435   7.521
92102SOL    HW278146   8.166   2.428   7.515
92103SOL     OW78147   0.600   9.188   3.412
92103SOL    HW178148   0.589   9.179   3.507
92103SOL    HW278149   0.561   9.273   3.391
92104SOL     OW78150  13.051   3.547  10.010
92104SOL    HW178151  13.034   3.640   9.997
92104SOL    HW278152  12.991   3.521  10.080
92105SOL     OW78153   2.487  10.796   4.737
92105SOL    HW178154   2.479  10.856   4.810
92105SOL    HW278155   2.574  10.813   4.701
92106SOL     OW78156  10.435   9.404  10.194
92106SOL    HW178157  10.467   9.406  10.284
92106SOL    HW278158  10.452   9.492  10.160
92107SOL     OW78159  13.921  11.362  10.983
92107SOL    HW178160  13.878  11.277  10.969
92107SOL    HW278161  14.010  11.339  11.010
92108SOL     OW78162  14.298   6.228   0.356
92108SOL    HW178163  14.323   6.149   0.404
92108SOL    HW278164  14.248   6.194   0.281
92109SOL     OW78165   6.954  14.074   7.760
92109SOL    HW178166   7.030  14.094   7.706
92109SOL    HW278167   6.958  13.979   7.774
92110SOL     OW78168   9.125   3.852  11.104
92110SOL    HW178169   9.201   3.838  11.047
92110SOL    HW278170   9.050   3.825  11.051
92111SOL     OW78171  10.841  12.008  12.314
92111SOL    HW178172  10.788  12.087  12.324
92111SOL    HW278173  10.782  11.936  12.336
92112SOL     OW78174   2.995   7.692   3.114
92112SOL    HW178175   3.040   7.774   3.095
92112SOL    HW278176   2.921   7.718   3.169
92113SOL     OW78177   5.784   4.249   5.493
92113SOL    HW178178   5.837   4.179   5.454
92113SOL    HW278179   5.747   4.210   5.572
92114SOL     OW78180  14.568   0.075  13.280
92114SOL    HW178181  14.481   0.037  13.266
92114SOL    HW278182  14.583   0.129  13.203
92115SOL     OW78183   1.737   3.796   3.068
92115SOL    HW178184   1.719   3.798   2.974
92115SOL    HW278185   1.666   3.847   3.106
92116SOL     OW78186  11.540   7.542   6.258
92116SOL    HW178187  11.635   7.551   6.245
92116SOL    HW278188  11.516   7.616   6.313
92117SOL     OW78189   0.621  12.478   1.331
92117SOL    HW178190   0.601  12.386   1.312
92117SOL    HW278191   0.711  12.477   1.365
92118SOL     OW78192   8.914   0.580   3.998
92118SOL    HW178193   8.991   0.608   4.047
92118SOL    HW278194   8.845   0.642   4.023
92119SOL     OW78195  12.683   7.985   0.740
92119SOL    HW178196  12.620   7.929   0.695
92119SOL    HW278197  12.688   8.064   0.685
92120SOL     OW78198  13.587  11.583  13.414
92120SOL    HW178199  13.576  11.586  13.509
92120SOL    HW278200  13.617  11.494  13.396
92121SOL     OW78201   8.639  13.255   8.508
92121SOL    HW178202   8.684  13.339   8.516
92121SOL    HW278203   8.621  13.246   8.414
92122SOL     OW78204   2.808  12.087   4.583
92122SOL    HW178205   2.782  12.013   4.529
92122SOL    HW278206   2.833  12.049   4.667
92123SOL     OW78207   1.054   1.656  13.791
92123SOL    HW178208   1.073   1.644  13.698
92123SOL    HW278209   1.135   1.692  13.827
92124SOL     OW78210   4.682  10.977   2.264
92124SOL    HW178211   4.691  11.030   2.344
92124SOL    HW278212   4.599  11.004   2.227
92125SOL     OW78213   5.935  12.171  12.992
92125SOL    HW178214   5.846  12.144  13.016
92125SOL    HW278215   5.923  12.224  12.913
92126SOL     OW78216  11.236   2.990   6.188
92126SOL    HW178217  11.204   3.080   6.186
92126SOL    HW278218  11.250   2.968   6.096
92127SOL     OW78219   3.871   1.872  14.007
92127SOL    HW178220   3.824   1.943  13.965
92127SOL    HW278221   3.806   1.828  14.062
92128SOL     OW78222  12.483   4.778   6.620
92128SOL    HW178223  12.546   4.812   6.683
92128SOL    HW278224  12.408   4.836   6.626
92129SOL     OW78225  12.164  12.137   0.547
92129SOL    HW178226  12.119  12.113   0.628
92129SOL    HW278227  12.234  12.072   0.538
92130SOL     OW78228   4.146  10.237  14.463
92130SOL    HW178229   4.221  10.294  14.475
92130SOL    HW278230   4.176  10.169  14.402
92131SOL     OW78231   8.263  12.295   6.004
92131SOL    HW178232   8.210  12.277   6.082
92131SOL    HW278233   8.341  12.240   6.015
92132SOL     OW78234   4.015  12.763   6.353
92132SOL    HW178235   3.994  12.673   6.327
92132SOL    HW278236   3.941  12.790   6.407
92133SOL     OW78237   3.897  11.408   7.341
92133SOL    HW178238   3.916  11.357   7.420
92133SOL    HW278239   3.983  11.427   7.303
92134SOL     OW78240   8.665   1.619  13.550
92134SOL    HW178241   8.662   1.621  13.646
92134SOL    HW278242   8.592   1.563  13.525
92135SOL     OW78243  14.468  11.106   9.698
92135SOL    HW178244  14.555  11.135   9.672
92135SOL    HW278245  14.471  11.010   9.691
92136SOL     OW78246  10.690  13.621  14.479
92136SOL    HW178247  10.625  13.555  14.457
92136SOL    HW278248  10.639  13.699  14.502
92137SOL     OW78249   1.076   5.554   6.831
92137SOL    HW178250   1.092   5.516   6.918
92137SOL    HW278251   1.118   5.492   6.771
92138SOL     OW78252  14.345  10.709  14.319
92138SOL    HW178253  14.302  10.632  14.281
92138SOL    HW278254  14.274  10.757  14.361
92139SOL     OW78255  13.649  12.217   2.648
92139SOL    HW178256  13.643  12.298   2.597
92139SOL    HW278257  13.584  12.229   2.718
92140SOL     OW78258   2.213  13.638   9.191
92140SOL    HW178259   2.134  13.605   9.147
92140SOL    HW278260   2.286  13.604   9.138
92141SOL     OW78261  12.269   4.030  12.607
92141SOL    HW178262  12.333   4.100  12.594
92141SOL    HW278263  12.193   4.075  12.644
92142SOL     OW78264  14.609   6.334   7.019
92142SOL    HW178265  14.531   6.281   7.002
92142SOL    HW278266  14.592   6.416   6.973
92143SOL     OW78267   9.999  10.746   0.730
92143SOL    HW178268   9.928  10.751   0.666
92143SOL    HW278269   9.958  10.709   0.808
92144SOL     OW78270   4.809   1.824  10.897
92144SOL    HW178271   4.898   1.794  10.877
92144SOL    HW278272   4.760   1.809  10.816
92145SOL     OW78273   8.963   0.790   1.246
92145SOL    HW178274   8.953   0.833   1.330
92145SOL    HW278275   8.883   0.811   1.198
92146SOL     OW78276   5.405   5.451   1.408
92146SOL    HW178277   5.444   5.536   1.383
92146SOL    HW278278   5.365   5.467   1.493
92147SOL     OW78279  10.774   2.597   8.160
92147SOL    HW178280  10.756   2.521   8.215
92147SOL    HW278281  10.864   2.584   8.130
92148SOL     OW78282   1.782  10.200   4.849
92148SOL    HW178283   1.864  10.175   4.806
92148SOL    HW278284   1.791  10.295   4.862
92149SOL     OW78285  11.350   6.733   8.676
92149SOL    HW178286  11.379   6.683   8.753
92149SOL    HW278287  11.261   6.761   8.699
92150SOL     OW78288   0.066   5.203   8.057
92150SOL    HW178289   0.151   5.164   8.076
92150SOL    HW278290   0.084   5.264   7.985
92151SOL     OW78291   2.595   8.105  11.837
92151SOL    HW178292   2.670   8.057  11.873
92151SOL    HW278293   2.616   8.197  11.852
92152SOL     OW78294  12.031   4.853   3.914
92152SOL    HW178295  11.986   4.929   3.951
92152SOL    HW278296  12.103   4.836   3.975
92153SOL     OW78297   6.888   1.996   9.449
92153SOL    HW178298   6.834   1.984   9.527
92153SOL    HW278299   6.945   2.070   9.471
92154SOL     OW78300   1.224  11.824  14.088
92154SOL    HW178301   1.251  11.916  14.082
92154SOL    HW278302   1.168  11.811  14.011
92155SOL     OW78303   1.389   6.255  11.767
92155SOL    HW178304   1.367   6.332  11.819
92155SOL    HW278305   1.343   6.182  11.810
92156SOL     OW78306   1.122   4.669  10.866
92156SOL    HW178307   1.040   4.713  10.842
92156SOL    HW278308   1.161   4.726  10.933
92157SOL     OW78309   2.388  14.238   4.663
92157SOL    HW178310   2.344  14.187   4.732
92157SOL    HW278311   2.452  14.291   4.709
92158SOL     OW78312  11.752  10.582   3.488
92158SOL    HW178313  11.661  10.610   3.474
92158SOL    HW278314  11.746  10.519   3.561
92159SOL     OW78315  14.656   5.283  12.369
92159SOL    HW178316  14.746   5.285  12.401
92159SOL    HW278317  14.659   5.227  12.292
92160SOL     OW78318  13.166   1.424   2.676
92160SOL    HW178319  13.115   1.367   2.620
92160SOL    HW278320  13.140   1.513   2.650
92161SOL     OW78321   2.475   0.017   2.442
92161SOL    HW178322   2.448   0.067   2.365
92161SOL    HW278323   2.396   0.008   2.495
92162SOL     OW78324  12.382   9.563   2.484
92162SOL    HW178325  12.428   9.482   2.462
92162SOL    HW278326  12.370   9.607   2.399
92163SOL     OW78327   6.433   1.911   6.723
92163SOL    HW178328   6.511   1.857   6.736
92163SOL    HW278329   6.441   1.945   6.634
92164SOL     OW78330  12.517   1.340   5.476
92164SOL    HW178331  12.495   1.348   5.383
92164SOL    HW278332  12.463   1.406   5.519
92165SOL     OW78333   5.929   9.323   4.494
92165SOL    HW178334   6.008   9.301   4.544
92165SOL    HW278335   5.856   9.301   4.552
92166SOL     OW78336   6.271  12.504   0.078
92166SOL    HW178337   6.268  12.412   0.102
92166SOL    HW278338   6.273  12.551   0.161
92167SOL     OW78339  14.575   8.197   3.522
92167SOL    HW178340  14.534   8.158   3.600
92167SOL    HW278341  14.501   8.223   3.467
92168SOL     OW78342   3.359  13.932   2.236
92168SOL    HW178343   3.365  13.837   2.241
92168SOL    HW278344   3.292  13.948   2.169
92169SOL     OW78345  10.931   3.147   0.718
92169SOL    HW178346  10.986   3.070   0.728
92169SOL    HW278347  10.863   3.137   0.785
92170SOL     OW78348   5.973   3.878  12.621
92170SOL    HW178349   5.975   3.851  12.529
92170SOL    HW278350   5.943   3.800  12.668
92171SOL     OW78351  10.190   8.948   3.953
92171SOL    HW178352  10.237   8.865   3.952
92171SOL    HW278353  10.188   8.973   4.045
92172SOL     OW78354  14.105   9.095  10.267
92172SOL    HW178355  14.030   9.088  10.209
92172SOL    HW278356  14.138   9.184  10.254
92173SOL     OW78357  13.556  14.164   6.974
92173SOL    HW178358  13.618  14.093   6.958
92173SOL    HW278359  13.476  14.136   6.929
92174SOL     OW78360   6.802  10.471   6.644
92174SOL    HW178361   6.803  10.377   6.624
92174SOL    HW278362   6.848  10.512   6.571
92175SOL     OW78363  10.843   1.502  12.995
92175SOL    HW178364  10.925   1.456  12.977
92175SOL    HW278365  10.831   1.560  12.920
92176SOL     OW78366   7.058  11.189  11.881
92176SOL    HW178367   7.019  11.276  11.869
92176SOL    HW278368   7.013  11.134  11.817
92177SOL     OW78369   1.511  12.548   4.563
92177SOL    HW178370   1.462  12.571   4.642
92177SOL    HW278371   1.490  12.456   4.547
92178SOL     OW78372  12.344  12.246  14.211
92178SOL    HW178373  12.351  12.179  14.278
92178SOL    HW278374  12.374  12.203  14.131
92179SOL     OW78375  13.701   1.935   3.230
92179SOL    HW178376  13.640   1.985   3.176
92179SOL    HW278377  13.665   1.846   3.233
92180SOL     OW78378  13.816  13.332  10.658
92180SOL    HW178379  13.796  13.323  10.565
92180SOL    HW278380  13.805  13.426  10.676
92181SOL     OW78381   3.935  11.597   1.417
92181SOL    HW178382   3.936  11.515   1.368
92181SOL    HW278383   3.843  11.623   1.419
92182SOL     OW78384   9.480   5.367   0.764
92182SOL    HW178385   9.465   5.289   0.817
92182SOL    HW278386   9.395   5.386   0.725
92183SOL     OW78387   8.195  12.367  13.537
92183SOL    HW178388   8.218  12.312  13.612
92183SOL    HW278389   8.269  12.358  13.477
92184SOL     OW78390   8.945   5.183   1.999
92184SOL    HW178391   8.890   5.218   1.930
92184SOL    HW278392   9.031   5.171   1.959
92185SOL     OW78393   6.611  12.325  11.756
92185SOL    HW178394   6.558  12.395  11.795
92185SOL    HW278395   6.570  12.244  11.785
92186SOL     OW78396   3.680   4.396   8.229
92186SOL    HW178397   3.646   4.464   8.172
92186SOL    HW278398   3.741   4.347   8.173
92187SOL     OW78399   4.592  13.470   7.859
92187SOL    HW178400   4.624  13.525   7.788
92187SOL    HW278401   4.630  13.384   7.841
92188SOL     OW78402   7.433   6.332   9.383
92188SOL    HW178403   7.409   6.421   9.410
92188SOL    HW278404   7.378   6.275   9.437
92189SOL     OW78405   1.491   9.081   9.768
92189SOL    HW178406   1.500   9.041   9.855
92189SOL    HW278407   1.410   9.132   9.774
92190SOL     OW78408   4.568  14.372   6.667
92190SOL    HW178409   4.560  14.363   6.572
92190SOL    HW278410   4.495  14.428   6.692
92191SOL     OW78411  12.491   7.954  14.175
92191SOL    HW178412  12.523   7.869  14.142
92191SOL    HW278413  12.484   7.941  14.269
92192SOL     OW78414   4.137   2.853   4.455
92192SOL    HW178415   4.064   2.915   4.459
92192SOL    HW278416   4.144   2.831   4.362
92193SOL     OW78417   1.264   9.745   2.274
92193SOL    HW178418   1.274   9.661   2.230
92193SOL    HW278419   1.206   9.727   2.348
92194SOL     OW78420   5.289  13.473   9.202
92194SOL    HW178421   5.307  13.566   9.185
92194SOL    HW278422   5.201  13.472   9.238
92195SOL     OW78423   8.689   5.935   8.731
92195SOL    HW178424   8.725   5.954   8.644
92195SOL    HW278425   8.595   5.950   8.722
92196SOL     OW78426  13.650   7.746  12.506
92196SOL    HW178427  13.555   7.754  12.505
92196SOL    HW278428  13.668   7.663  12.462
92197SOL     OW78429  14.462  13.308  10.119
92197SOL    HW178430  14.492  13.377  10.059
92197SOL    HW278431  14.368  13.302  10.102
92198SOL     OW78432  12.599   2.989  12.833
92198SOL    HW178433  12.518   3.036  12.814
92198SOL    HW278434  12.623   2.947  12.751
92199SOL     OW78435   6.756   9.250   5.726
92199SOL    HW178436   6.680   9.201   5.755
92199SOL    HW278437   6.739   9.270   5.635
92200SOL     OW78438  14.769  10.783  13.892
92200SOL    HW178439  14.790  10.859  13.947
92200SOL    HW278440  14.738  10.716  13.954
92201SOL     OW78441   8.667   2.675   1.755
92201SOL    HW178442   8.680   2.607   1.822
92201SOL    HW278443   8.582   2.654   1.716
92202SOL     OW78444   8.349   5.977   5.253
92202SOL    HW178445   8.361   6.061   5.298
92202SOL    HW278446   8.400   5.915   5.305
92203SOL     OW78447   7.548   3.611   7.414
92203SOL    HW178448   7.557   3.700   7.379
92203SOL    HW278449   7.635   3.589   7.445
92204SOL     OW78450   5.296  10.931   6.747
92204SOL    HW178451   5.242  10.992   6.696
92204SOL    HW278452   5.239  10.901   6.818
92205SOL     OW78453   3.804  13.615   8.934
92205SOL    HW178454   3.788  13.613   8.840
92205SOL    HW278455   3.821  13.524   8.958
92206SOL     OW78456   9.908   6.320  13.256
92206SOL    HW178457   9.852   6.325  13.333
92206SOL    HW278458   9.940   6.409  13.243
92207SOL     OW78459  14.386   0.646  14.241
92207SOL    HW178460  14.441   0.611  14.172
92207SOL    HW278461  14.297   0.641  14.206
92208SOL     OW78462   3.918   7.715   2.088
92208SOL    HW178463   3.967   7.654   2.032
92208SOL    HW278464   3.984   7.751   2.148
92209SOL     OW78465   2.474   2.728  11.170
92209SOL    HW178466   2.474   2.649  11.224
92209SOL    HW278467   2.543   2.783  11.207
92210SOL     OW78468   8.181   3.450   2.864
92210SOL    HW178469   8.194   3.545   2.872
92210SOL    HW278470   8.257   3.420   2.814
92211SOL     OW78471   0.203  12.983   4.458
92211SOL    HW178472   0.146  13.060   4.467
92211SOL    HW278473   0.287  13.019   4.428
92212SOL     OW78474  10.476   3.539  12.917
92212SOL    HW178475  10.418   3.532  12.992
92212SOL    HW278476  10.452   3.466  12.860
92213SOL     OW78477   6.165  10.661   2.480
92213SOL    HW178478   6.091  10.636   2.535
92213SOL    HW278479   6.128  10.668   2.392
92214SOL     OW78480   5.890  14.338   5.241
92214SOL    HW178481   5.893  14.419   5.292
92214SOL    HW278482   5.919  14.270   5.302
92215SOL     OW78483   5.727   1.304   3.840
92215SOL    HW178484   5.666   1.247   3.793
92215SOL    HW278485   5.809   1.255   3.845
92216SOL     OW78486  14.092   1.626   5.779
92216SOL    HW178487  14.156   1.662   5.840
92216SOL    HW278488  14.081   1.535   5.807
92217SOL     OW78489   5.558   9.268   5.444
92217SOL    HW178490   5.573   9.301   5.533
92217SOL    HW278491   5.484   9.318   5.412
92218SOL     OW78492  12.959  12.106   8.458
92218SOL    HW178493  12.991  12.033   8.510
92218SOL    HW278494  12.905  12.157   8.518
92219SOL     OW78495   3.134   1.347  13.544
92219SOL    HW178496   3.220   1.381  13.520
92219SOL    HW278497   3.084   1.349  13.462
92220SOL     OW78498   7.815   4.441  14.089
92220SOL    HW178499   7.725   4.466  14.111
92220SOL    HW278500   7.849   4.401  14.168
92221SOL     OW78501   4.446  12.044  10.065
92221SOL    HW178502   4.474  12.107   9.997
92221SOL    HW278503   4.505  11.970  10.054
92222SOL     OW78504  11.852   3.729   6.361
92222SOL    HW178505  11.801   3.742   6.440
92222SOL    HW278506  11.787   3.707   6.294
92223SOL     OW78507   6.827   5.329  13.598
92223SOL    HW178508   6.832   5.347  13.504
92223SOL    HW278509   6.894   5.262  13.613
92224SOL     OW78510   3.821  13.994  10.612
92224SOL    HW178511   3.855  14.071  10.658
92224SOL    HW278512   3.728  13.993  10.633
92225SOL     OW78513   1.740   3.465  10.267
92225SOL    HW178514   1.795   3.520  10.211
92225SOL    HW278515   1.803   3.411  10.316
92226SOL     OW78516   5.199   6.583  10.512
92226SOL    HW178517   5.114   6.608  10.476
92226SOL    HW278518   5.226   6.658  10.565
92227SOL     OW78519   8.462  12.273   1.124
92227SOL    HW178520   8.419  12.190   1.147
92227SOL    HW278521   8.482  12.314   1.208
92228SOL     OW78522  10.290   5.996   5.433
92228SOL    HW178523  10.342   5.947   5.370
92228SOL    HW278524  10.325   6.085   5.429
92229SOL     OW78525   8.136   0.690  12.562
92229SOL    HW178526   8.100   0.645  12.638
92229SOL    HW278527   8.185   0.623  12.515
92230SOL     OW78528   8.411   6.007  10.439
92230SOL    HW178529   8.380   6.092  10.407
92230SOL    HW278530   8.506   6.017  10.445
92231SOL     OW78531   7.606   0.475  12.977
92231SOL    HW178532   7.596   0.467  13.072
92231SOL    HW278533   7.517   0.475  12.944
92232SOL     OW78534   8.338  13.068   6.568
92232SOL    HW178535   8.300  12.981   6.557
92232SOL    HW278536   8.430  13.052   6.585
92233SOL     OW78537   0.602  11.441   6.949
92233SOL    HW178538   0.608  11.436   7.045
92233SOL    HW278539   0.687  11.476   6.922
92234SOL     OW78540   5.045   5.777   6.143
92234SOL    HW178541   4.976   5.713   6.156
92234SOL    HW278542   5.102   5.767   6.220
92235SOL     OW78543  11.222   5.840   2.236
92235SOL    HW178544  11.230   5.935   2.226
92235SOL    HW278545  11.197   5.828   2.328
92236SOL     OW78546  14.499  14.392   9.733
92236SOL    HW178547  14.568  14.393   9.799
92236SOL    HW278548  14.424  14.352   9.776
92237SOL     OW78549   1.136   4.758   3.720
92237SOL    HW178550   1.183   4.680   3.748
92237SOL    HW278551   1.164   4.827   3.780
92238SOL     OW78552  13.237  12.316   4.696
92238SOL    HW178553  13.237  12.291   4.788
92238SOL    HW278554  13.291  12.251   4.652
92239SOL     OW78555  11.109  11.664   3.913
92239SOL    HW178556  11.085  11.685   4.003
92239SOL    HW278557  11.195  11.705   3.902
92240SOL     OW78558   0.629   5.206  11.419
92240SOL    HW178559   0.556   5.253  11.460
92240SOL    HW278560   0.588   5.146  11.356
92241SOL     OW78561   3.619  13.970  13.145
92241SOL    HW178562   3.679  14.041  13.120
92241SOL    HW278563   3.552  14.013  13.198
92242SOL     OW78564   6.536   7.608  11.623
92242SOL    HW178565   6.477   7.537  11.597
92242SOL    HW278566   6.479   7.684  11.636
92243SOL     OW78567  12.403   1.943   5.648
92243SOL    HW178568  12.334   1.884   5.618
92243SOL    HW278569  12.407   2.010   5.580
92244SOL     OW78570   8.039   0.893   6.351
92244SOL    HW178571   7.985   0.965   6.319
92244SOL    HW278572   8.126   0.910   6.316
92245SOL     OW78573   0.822  10.346  14.831
92245SOL    HW178574   0.849  10.414   0.011
92245SOL    HW278575   0.882  10.274  14.848
92246SOL     OW78576   3.576   0.455   0.801
92246SOL    HW178577   3.590   0.489   0.713
92246SOL    HW278578   3.614   0.367   0.799
92247SOL     OW78579  12.561   6.683  13.489
92247SOL    HW178580  12.633   6.709  13.546
92247SOL    HW278581  12.573   6.736  13.410
92248SOL     OW78582   6.839  14.742   1.915
92248SOL    HW178583   6.781  14.791   1.973
92248SOL    HW278584   6.816  14.771   1.827
92249SOL     OW78585   4.437   1.756   4.437
92249SOL    HW178586   4.358   1.788   4.481
92249SOL    HW278587   4.406   1.719   4.354
92250SOL     OW78588   2.609  10.137   1.302
92250SOL    HW178589   2.536  10.170   1.354
92250SOL    HW278590   2.573  10.127   1.214
92251SOL     OW78591   7.788   0.082   5.640
92251SOL    HW178592   7.846   0.153   5.615
92251SOL    HW278593   7.786   0.024   5.563
92252SOL     OW78594   2.804  10.239  12.527
92252SOL    HW178595   2.847  10.198  12.452
92252SOL    HW278596   2.876  10.280  12.576
92253SOL     OW78597   9.439   1.893   1.417
92253SOL    HW178598   9.477   1.951   1.483
92253SOL    HW278599   9.376   1.947   1.370
92254SOL     OW78600   3.758   5.098  14.222
92254SOL    HW178601   3.755   5.063  14.311
92254SOL    HW278602   3.793   5.186  14.232
92255SOL     OW78603  10.299   5.838   2.943
92255SOL    HW178604  10.301   5.823   3.038
92255SOL    HW278605  10.361   5.909   2.928
92256SOL     OW78606  14.352   6.053   8.074
92256SOL    HW178607  14.406   6.034   7.997
92256SOL    HW278608  14.372   5.984   8.136
92257SOL     OW78609   5.072   6.621   0.233
92257SOL    HW178610   5.105   6.566   0.303
92257SOL    HW278611   5.005   6.676   0.274
92258SOL     OW78612   1.598   7.566  13.729
92258SOL    HW178613   1.625   7.656  13.709
92258SOL    HW278614   1.638   7.548  13.815
92259SOL     OW78615   6.687  14.660  11.212
92259SOL    HW178616   6.764  14.690  11.164
92259SOL    HW278617   6.614  14.677  11.152
92260SOL     OW78618   9.968  14.089  10.721
92260SOL    HW178619   9.872  14.082  10.722
92260SOL    HW278620   9.985  14.183  10.711
92261SOL     OW78621   7.440  14.864   3.482
92261SOL    HW178622   7.452  14.806   3.407
92261SOL    HW278623   7.485  14.820   3.554
92262SOL     OW78624  11.204   9.776  13.276
92262SOL    HW178625  11.190   9.813  13.189
92262SOL    HW278626  11.222   9.851  13.332
92263SOL     OW78627   4.168  11.493  13.322
92263SOL    HW178628   4.193  11.411  13.278
92263SOL    HW278629   4.234  11.556  13.293
92264SOL     OW78630  10.507  12.177   9.066
92264SOL    HW178631  10.421  12.147   9.036
92264SOL    HW278632  10.498  12.272   9.072
92265SOL     OW78633   1.078   7.503   6.379
92265SOL    HW178634   1.114   7.562   6.445
92265SOL    HW278635   1.017   7.556   6.328
92266SOL     OW78636   2.805  14.472  14.190
92266SOL    HW178637   2.771  14.387  14.162
92266SOL    HW278638   2.729  14.519  14.225
92267SOL     OW78639   2.582   6.982   0.085
92267SOL    HW178640   2.511   7.047   0.088
92267SOL    HW278641   2.539   6.899   0.105
92268SOL     OW78642   9.115   3.331   7.331
92268SOL    HW178643   9.132   3.422   7.354
92268SOL    HW278644   9.084   3.291   7.412
92269SOL     OW78645   0.663   1.789   2.867
92269SOL    HW178646   0.657   1.787   2.772
92269SOL    HW278647   0.578   1.822   2.896
92270SOL     OW78648  13.691   3.888  12.306
92270SOL    HW178649  13.654   3.937  12.379
92270SOL    HW278650  13.714   3.803  12.343
92271SOL     OW78651   9.444   4.315   5.449
92271SOL    HW178652   9.409   4.278   5.368
92271SOL    HW278653   9.403   4.401   5.456
92272SOL     OW78654  13.673  14.314  12.253
92272SOL    HW178655  13.635  14.245  12.309
92272SOL    HW278656  13.730  14.267  12.193
92273SOL     OW78657   5.803   4.422  13.912
92273SOL    HW178658   5.871   4.355  13.924
92273SOL    HW278659   5.840   4.483  13.849
92274SOL     OW78660   3.760   2.820   5.614
92274SOL    HW178661   3.676   2.864   5.630
92274SOL    HW278662   3.787   2.790   5.701
92275SOL     OW78663  10.931   1.867  14.156
92275SOL    HW178664  10.918   1.790  14.101
92275SOL    HW278665  10.949   1.939  14.095
92276SOL     OW78666   5.606   3.882   1.666
92276SOL    HW178667   5.644   3.953   1.717
92276SOL    HW278668   5.631   3.901   1.575
92277SOL     OW78669   4.629   6.276  12.342
92277SOL    HW178670   4.631   6.194  12.391
92277SOL    HW278671   4.622   6.249  12.250
92278SOL     OW78672  10.501  13.405   2.358
92278SOL    HW178673  10.422  13.428   2.406
92278SOL    HW278674  10.480  13.425   2.267
92279SOL     OW78675  11.465   3.597   1.497
92279SOL    HW178676  11.415   3.547   1.433
92279SOL    HW278677  11.498   3.672   1.447
92280SOL     OW78678   5.899   1.154   8.959
92280SOL    HW178679   5.943   1.093   8.900
92280SOL    HW278680   5.925   1.125   9.047
92281SOL     OW78681   9.367   0.070  12.497
92281SOL    HW178682   9.408   0.134  12.439
92281SOL    HW278683   9.309   0.020  12.440
92282SOL     OW78684   5.397   7.749  12.920
92282SOL    HW178685   5.336   7.675  12.919
92282SOL    HW278686   5.371   7.802  12.845
92283SOL     OW78687  14.778  10.917   8.575
92283SOL    HW178688  14.823  10.984   8.627
92283SOL    HW278689  14.739  10.964   8.502
92284SOL     OW78690   8.676   9.569  14.116
92284SOL    HW178691   8.769   9.590  14.125
92284SOL    HW278692   8.632   9.639  14.164
92285SOL     OW78693   9.179   2.726   7.341
92285SOL    HW178694   9.249   2.663   7.357
92285SOL    HW278695   9.184   2.743   7.247
92286SOL     OW78696   6.461   0.282  11.137
92286SOL    HW178697   6.501   0.197  11.121
92286SOL    HW278698   6.507   0.341  11.077
92287SOL     OW78699   7.913   4.691  11.276
92287SOL    HW178700   7.978   4.636  11.232
92287SOL    HW278701   7.845   4.630  11.304
92288SOL     OW78702   2.527   8.268  10.938
92288SOL    HW178703   2.562   8.325  10.869
92288SOL    HW278704   2.458   8.320  10.979
92289SOL     OW78705   9.025   0.756   6.247
92289SOL    HW178706   8.997   0.721   6.163
92289SOL    HW278707   9.118   0.732   6.253
92290SOL     OW78708   9.287  14.061   5.911
92290SOL    HW178709   9.306  13.968   5.900
92290SOL    HW278710   9.347  14.090   5.979
92291SOL     OW78711   4.069  14.095   0.208
92291SOL    HW178712   4.063  14.189   0.189
92291SOL    HW278713   3.993  14.077   0.263
92292SOL     OW78714  13.853   1.358   6.459
92292SOL    HW178715  13.940   1.332   6.429
92292SOL    HW278716  13.800   1.279   6.452
92293SOL     OW78717   1.117  13.848   5.499
92293SOL    HW178718   1.050  13.780   5.503
92293SOL    HW278719   1.068  13.929   5.486
92294SOL     OW78720  11.723   4.326   7.924
92294SOL    HW178721  11.799   4.383   7.910
92294SOL    HW278722  11.655   4.362   7.868
92295SOL     OW78723   1.480   3.624   8.399
92295SOL    HW178724   1.538   3.698   8.380
92295SOL    HW278725   1.407   3.634   8.338
92296SOL     OW78726  11.301   7.584  11.688
92296SOL    HW178727  11.369   7.581  11.755
92296SOL    HW278728  11.226   7.625  11.731
92297SOL     OW78729  11.689   9.784  11.505
92297SOL    HW178730  11.657   9.842  11.436
92297SOL    HW278731  11.614   9.728  11.526
92298SOL     OW78732   2.012   9.602  14.555
92298SOL    HW178733   2.103   9.627  14.539
92298SOL    HW278734   1.985   9.557  14.475
92299SOL     OW78735   6.706   5.366  14.843
92299SOL    HW178736   6.677   5.416  14.767
92299SOL    HW278737   6.691   5.274  14.819
92300SOL     OW78738   7.809  13.011   9.553
92300SOL    HW178739   7.903  13.026   9.558
92300SOL    HW278740   7.800  12.925   9.511
92301SOL     OW78741   6.503   1.339   0.546
92301SOL    HW178742   6.495   1.321   0.452
92301SOL    HW278743   6.453   1.268   0.588
92302SOL     OW78744  11.500  12.675   9.958
92302SOL    HW178745  11.593  12.700   9.959
92302SOL    HW278746  11.499  12.588   9.918
92303SOL     OW78747  10.692  13.915  13.495
92303SOL    HW178748  10.769  13.873  13.532
92303SOL    HW278749  10.722  13.955  13.413
92304SOL     OW78750   4.243   5.346   9.211
92304SOL    HW178751   4.174   5.367   9.274
92304SOL    HW278752   4.324   5.361   9.260
92305SOL     OW78753  10.823   5.839   7.383
92305SOL    HW178754  10.857   5.925   7.357
92305SOL    HW278755  10.875   5.777   7.333
92306SOL     OW78756  12.270   6.285  12.688
92306SOL    HW178757  12.262   6.205  12.740
92306SOL    HW278758  12.355   6.321  12.712
92307SOL     OW78759   0.025  10.660  11.176
92307SOL    HW178760   0.074  10.580  11.193
92307SOL    HW278761   0.082  10.713  11.121
92308SOL     OW78762   8.572  13.700   4.834
92308SOL    HW178763   8.488  13.719   4.876
92308SOL    HW278764   8.629  13.676   4.907
92309SOL     OW78765   9.158   8.395   0.957
92309SOL    HW178766   9.094   8.465   0.948
92309SOL    HW278767   9.111   8.316   0.930
92310SOL     OW78768   2.480   7.511  10.505
92310SOL    HW178769   2.561   7.550  10.539
92310SOL    HW278770   2.487   7.522  10.410
92311SOL     OW78771   4.011  14.711  13.388
92311SOL    HW178772   4.019  14.756  13.472
92311SOL    HW278773   3.941  14.647  13.401
92312SOL     OW78774   8.114   2.219  12.885
92312SOL    HW178775   8.169   2.267  12.946
92312SOL    HW278776   8.094   2.281  12.815
92313SOL     OW78777  11.018   9.453   7.778
92313SOL    HW178778  10.969   9.409   7.709
92313SOL    HW278779  11.106   9.464   7.742
92314SOL     OW78780  10.572   3.572   4.639
92314SOL    HW178781  10.633   3.635   4.600
92314SOL    HW278782  10.542   3.519   4.566
92315SOL     OW78783   7.492   5.438   0.483
92315SOL    HW178784   7.473   5.438   0.577
92315SOL    HW278785   7.415   5.397   0.443
92316SOL     OW78786   0.136  11.387  14.052
92316SOL    HW178787   0.184  11.455  14.005
92316SOL    HW278788   0.199  11.351  14.114
92317SOL     OW78789   3.236  13.161   3.688
92317SOL    HW178790   3.194  13.115   3.615
92317SOL    HW278791   3.216  13.108   3.765
92318SOL     OW78792  11.412   9.166   8.604
92318SOL    HW178793  11.330   9.159   8.555
92318SOL    HW278794  11.465   9.093   8.572
92319SOL     OW78795   7.291  14.071   2.770
92319SOL    HW178796   7.295  14.103   2.860
92319SOL    HW278797   7.198  14.051   2.756
92320SOL     OW78798   1.905   6.437   3.568
92320SOL    HW178799   1.933   6.419   3.658
92320SOL    HW278800   1.984   6.470   3.525
92321SOL     OW78801   1.098   1.490   8.377
92321SOL    HW178802   1.085   1.536   8.294
92321SOL    HW278803   1.095   1.559   8.443
92322SOL     OW78804   6.508   6.880   2.072
92322SOL    HW178805   6.485   6.821   2.143
92322SOL    HW278806   6.436   6.873   2.010
92323SOL     OW78807   4.923   7.798  14.293
92323SOL    HW178808   4.871   7.762  14.366
92323SOL    HW278809   4.951   7.722  14.243
92324SOL     OW78810   2.909   6.604  13.549
92324SOL    HW178811   2.856   6.585  13.626
92324SOL    HW278812   2.896   6.698  13.533
92325SOL     OW78813  14.001  12.321   1.472
92325SOL    HW178814  14.070  12.294   1.411
92325SOL    HW278815  14.018  12.413   1.490
92326SOL     OW78816   4.377   4.241   8.099
92326SOL    HW178817   4.363   4.181   8.171
92326SOL    HW278818   4.300   4.228   8.042
92327SOL     OW78819   7.590   2.025  13.423
92327SOL    HW178820   7.614   2.056  13.335
92327SOL    HW278821   7.557   1.937  13.408
92328SOL     OW78822  14.243   6.390   6.492
92328SOL    HW178823  14.250   6.486   6.495
92328SOL    HW278824  14.306   6.360   6.558
92329SOL     OW78825  11.873  12.325  12.934
92329SOL    HW178826  11.887  12.282  12.850
92329SOL    HW278827  11.890  12.257  12.999
92330SOL     OW78828   4.406   6.729  10.343
92330SOL    HW178829   4.402   6.651  10.287
92330SOL    HW278830   4.356   6.795  10.295
92331SOL     OW78831  13.251   5.119   4.479
92331SOL    HW178832  13.172   5.128   4.533
92331SOL    HW278833  13.320   5.098   4.541
92332SOL     OW78834   6.414  11.401   2.678
92332SOL    HW178835   6.425  11.307   2.661
92332SOL    HW278836   6.324  11.420   2.654
92333SOL     OW78837  11.238  10.177  11.187
92333SOL    HW178838  11.300  10.118  11.146
92333SOL    HW278839  11.196  10.224  11.115
92334SOL     OW78840   3.726   3.260   4.752
92334SOL    HW178841   3.790   3.328   4.773
92334SOL    HW278842   3.647   3.286   4.799
92335SOL     OW78843  12.009   3.338   0.007
92335SOL    HW178844  11.980   3.303   0.092
92335SOL    HW278845  12.052   3.421   0.029
92336SOL     OW78846  10.237  10.326  12.206
92336SOL    HW178847  10.226  10.282  12.290
92336SOL    HW278848  10.224  10.419  12.225
92337SOL     OW78849  10.512  14.782  12.929
92337SOL    HW178850  10.491  14.865  12.973
92337SOL    HW278851  10.448  14.775  12.859
92338SOL     OW78852   4.593  10.461   3.264
92338SOL    HW178853   4.514  10.457   3.318
92338SOL    HW278854   4.560  10.467   3.175
92339SOL     OW78855   8.843   5.263  14.051
92339SOL    HW178856   8.768   5.290  13.998
92339SOL    HW278857   8.911   5.244  13.986
92340SOL     OW78858   9.647   2.349   5.792
92340SOL    HW178859   9.552   2.363   5.792
92340SOL    HW278860   9.663   2.287   5.863
92341SOL     OW78861   3.070   6.344   9.982
92341SOL    HW178862   2.982   6.357  10.016
92341SOL    HW278863   3.122   6.413  10.022
92342SOL     OW78864   0.152   7.928   4.836
92342SOL    HW178865   0.171   8.017   4.867
92342SOL    HW278866   0.234   7.897   4.799
92343SOL     OW78867   8.608   2.907   4.750
92343SOL    HW178868   8.586   2.858   4.670
92343SOL    HW278869   8.635   2.840   4.812
92344SOL     OW78870   0.825  13.340   8.770
92344SOL    HW178871   0.883  13.363   8.698
92344SOL    HW278872   0.884  13.313   8.841
92345SOL     OW78873   0.305  14.787   4.274
92345SOL    HW178874   0.252  14.829   4.207
92345SOL    HW278875   0.393  14.786   4.238
92346SOL     OW78876  11.209  10.777   6.006
92346SOL    HW178877  11.265  10.855   6.000
92346SOL    HW278878  11.266  10.711   6.044
92347SOL     OW78879   0.709   6.055   6.690
92347SOL    HW178880   0.662   6.126   6.645
92347SOL    HW278881   0.710   6.082   6.782
92348SOL     OW78882   2.234  14.502   6.686
92348SOL    HW178883   2.210  14.497   6.778
92348SOL    HW278884   2.263  14.413   6.664
92349SOL     OW78885   1.182  14.677   7.348
92349SOL    HW178886   1.229  14.643   7.424
92349SOL    HW278887   1.248  14.722   7.296
92350SOL     OW78888   1.153  13.943  10.399
92350SOL    HW178889   1.147  14.026  10.353
92350SOL    HW278890   1.088  13.887  10.356
92351SOL     OW78891   3.411   7.923   9.111
92351SOL    HW178892   3.381   7.986   9.046
92351SOL    HW278893   3.507   7.927   9.106
92352SOL     OW78894   5.975   7.799   8.753
92352SOL    HW178895   5.895   7.751   8.730
92352SOL    HW278896   5.944   7.881   8.789
92353SOL     OW78897  13.430  10.124   7.285
92353SOL    HW178898  13.379  10.098   7.362
92353SOL    HW278899  13.464  10.041   7.250
92354SOL     OW78900  14.171  11.017   2.450
92354SOL    HW178901  14.187  11.054   2.364
92354SOL    HW278902  14.183  11.090   2.510
92355SOL     OW78903  12.542  14.848   6.548
92355SOL    HW178904  12.579   0.025   6.482
92355SOL    HW278905  12.597  14.770   6.544
92356SOL     OW78906   2.111   3.286   4.329
92356SOL    HW178907   2.050   3.219   4.300
92356SOL    HW278908   2.133   3.334   4.249
92357SOL     OW78909   2.449  14.784   5.676
92357SOL    HW178910   2.393  14.857   5.701
92357SOL    HW278911   2.437  14.776   5.582
92358SOL     OW78912   5.116  13.913   8.949
92358SOL    HW178913   5.084  13.999   8.975
92358SOL    HW278914   5.041  13.855   8.960
92359SOL     OW78915   2.145   7.225   9.166
92359SOL    HW178916   2.136   7.233   9.071
92359SOL    HW278917   2.194   7.303   9.192
92360SOL     OW78918   2.584   2.661  14.268
92360SOL    HW178919   2.627   2.675  14.352
92360SOL    HW278920   2.511   2.602  14.288
92361SOL     OW78921  12.136   9.957   6.816
92361SOL    HW178922  12.081   9.917   6.748
92361SOL    HW278923  12.127   9.898   6.891
92362SOL     OW78924   4.774   7.337   2.157
92362SOL    HW178925   4.795   7.348   2.250
92362SOL    HW278926   4.722   7.414   2.135
92363SOL     OW78927   2.157   6.346  10.895
92363SOL    HW178928   2.195   6.264  10.862
92363SOL    HW278929   2.135   6.395  10.816
92364SOL     OW78930  11.212   6.824   1.877
92364SOL    HW178931  11.217   6.729   1.867
92364SOL    HW278932  11.277   6.844   1.945
92365SOL     OW78933   6.731   8.996  10.320
92365SOL    HW178934   6.643   9.024  10.344
92365SOL    HW278935   6.780   8.995  10.402
92366SOL     OW78936   1.756   4.555   0.369
92366SOL    HW178937   1.836   4.568   0.319
92366SOL    HW278938   1.739   4.461   0.363
92367SOL     OW78939   0.802   7.140   5.933
92367SOL    HW178940   0.843   7.225   5.915
92367SOL    HW278941   0.827   7.119   6.022
92368SOL     OW78942  10.234   1.809  13.797
92368SOL    HW178943  10.188   1.737  13.839
92368SOL    HW278944  10.165   1.870  13.770
92369SOL     OW78945   7.624   6.804  12.298
92369SOL    HW178946   7.557   6.736  12.308
92369SOL    HW278947   7.662   6.814  12.385
92370SOL     OW78948  13.505   0.635   9.155
92370SOL    HW178949  13.468   0.689   9.085
92370SOL    HW278950  13.473   0.676   9.236
92371SOL     OW78951  14.734   6.456   9.634
92371SOL    HW178952  14.774   6.510   9.566
92371SOL    HW278953  14.654   6.503   9.658
92372SOL     OW78954  10.433   2.882   7.372
92372SOL    HW178955  10.405   2.967   7.336
92372SOL    HW278956  10.462   2.903   7.461
92373SOL     OW78957  13.653   3.936   8.897
92373SOL    HW178958  13.638   3.931   8.991
92373SOL    HW278959  13.605   4.014   8.869
92374SOL     OW78960   3.686  11.146   1.699
92374SOL    HW178961   3.603  11.169   1.741
92374SOL    HW278962   3.709  11.061   1.737
92375SOL     OW78963   2.548   7.345   7.475
92375SOL    HW178964   2.479   7.366   7.411
92375SOL    HW278965   2.608   7.288   7.427
92376SOL     OW78966   1.762   8.052   8.926
92376SOL    HW178967   1.808   7.981   8.882
92376SOL    HW278968   1.694   8.009   8.978
92377SOL     OW78969   4.276   7.308  11.883
92377SOL    HW178970   4.326   7.382  11.919
92377SOL    HW278971   4.234   7.343  11.805
92378SOL     OW78972   9.869   6.397   3.548
92378SOL    HW178973   9.892   6.348   3.469
92378SOL    HW278974   9.953   6.412   3.591
92379SOL     OW78975  13.019   2.079   9.793
92379SOL    HW178976  13.046   2.016   9.726
92379SOL    HW278977  12.961   2.139   9.747
92380SOL     OW78978  10.993  10.392   9.094
92380SOL    HW178979  10.934  10.454   9.137
92380SOL    HW278980  11.017  10.433   9.011
92381SOL     OW78981   4.549  14.411   7.868
92381SOL    HW178982   4.627  14.455   7.899
92381SOL    HW278983   4.538  14.337   7.928
92382SOL     OW78984   6.408   5.539  12.242
92382SOL    HW178985   6.439   5.596  12.172
92382SOL    HW278986   6.394   5.597  12.317
92383SOL     OW78987   4.106   0.778  13.089
92383SOL    HW178988   4.030   0.722  13.102
92383SOL    HW278989   4.145   0.746  13.007
92384SOL     OW78990   5.144  13.214   2.532
92384SOL    HW178991   5.094  13.245   2.457
92384SOL    HW278992   5.221  13.270   2.535
92385SOL     OW78993   0.093   9.124  10.659
92385SOL    HW178994   0.020   9.161  10.610
92385SOL    HW278995   0.097   9.175  10.740
92386SOL     OW78996   2.840   9.545   6.845
92386SOL    HW178997   2.928   9.571   6.816
92386SOL    HW278998   2.785   9.620   6.825
92387SOL     OW78999   4.587   7.352   7.576
92387SOL    HW179000   4.652   7.414   7.542
92387SOL    HW279001   4.612   7.340   7.667
92388SOL     OW79002   9.091  13.991  14.575
92388SOL    HW179003   9.099  14.077  14.617
92388SOL    HW279004   9.088  13.929  14.647
92389SOL     OW79005   9.345  11.168  12.468
92389SOL    HW179006   9.319  11.077  12.483
92389SOL    HW279007   9.331  11.182  12.375
92390SOL     OW79008   9.128   0.366  10.088
92390SOL    HW179009   9.163   0.285  10.124
92390SOL    HW279010   9.124   0.426  10.162
92391SOL     OW79011   5.119   4.663   3.143
92391SOL    HW179012   5.139   4.614   3.063
92391SOL    HW279013   5.064   4.604   3.194
92392SOL     OW79014   4.866  10.950  14.710
92392SOL    HW179015   4.956  10.951  14.677
92392SOL    HW279016   4.866  10.884  14.779
92393SOL     OW79017   9.004  10.084   9.956
92393SOL    HW179018   8.927  10.094  10.013
92393SOL    HW279019   9.031  10.174   9.936
92394SOL     OW79020   9.795   0.854  12.091
92394SOL    HW179021   9.859   0.876  12.158
92394SOL    HW279022   9.842   0.866  12.008
92395SOL     OW79023   2.580   2.952   3.406
92395SOL    HW179024   2.503   2.925   3.356
92395SOL    HW279025   2.556   3.038   3.441
92396SOL     OW79026   7.094  14.664  14.273
92396SOL    HW179027   7.126  14.589  14.322
92396SOL    HW279028   7.087  14.734  14.338
92397SOL     OW79029  12.939   2.984   2.148
92397SOL    HW179030  13.034   2.971   2.144
92397SOL    HW279031  12.903   2.896   2.141
92398SOL     OW79032   8.475   3.147   9.631
92398SOL    HW179033   8.494   3.107   9.546
92398SOL    HW279034   8.517   3.090   9.695
92399SOL     OW79035   9.138   1.026  10.006
92399SOL    HW179036   9.153   0.932  10.011
92399SOL    HW279037   9.212   1.060   9.955
92400SOL     OW79038   3.596  11.240   3.784
92400SOL    HW179039   3.607  11.152   3.747
92400SOL    HW279040   3.507  11.240   3.819
92401SOL     OW79041  12.922   1.953  14.529
92401SOL    HW179042  12.964   1.869  14.551
92401SOL    HW279043  12.992   2.017  14.534
92402SOL     OW79044   8.189   2.197  12.459
92402SOL    HW179045   8.126   2.207  12.387
92402SOL    HW279046   8.256   2.137  12.424
92403SOL     OW79047   0.251  14.647   0.330
92403SOL    HW179048   0.245  14.561   0.371
92403SOL    HW279049   0.165  14.687   0.344
92404SOL     OW79050  13.067  10.273   9.012
92404SOL    HW179051  13.103  10.360   9.032
92404SOL    HW279052  13.061  10.271   8.917
92405SOL     OW79053  13.498   3.881   5.132
92405SOL    HW179054  13.540   3.797   5.149
92405SOL    HW279055  13.531   3.938   5.201
92406SOL     OW79056   5.832   2.043   4.382
92406SOL    HW179057   5.869   1.958   4.404
92406SOL    HW279058   5.889   2.106   4.425
92407SOL     OW79059   7.576   7.864   3.196
92407SOL    HW179060   7.512   7.843   3.264
92407SOL    HW279061   7.567   7.958   3.182
92408SOL     OW79062  12.240  14.263   3.271
92408SOL    HW179063  12.175  14.240   3.338
92408SOL    HW279064  12.203  14.229   3.189
92409SOL     OW79065   6.762  11.236  14.799
92409SOL    HW179066   6.729  11.157  14.757
92409SOL    HW279067   6.758  11.303  14.731
92410SOL     OW79068   2.907   2.650  12.876
92410SOL    HW179069   2.836   2.674  12.816
92410SOL    HW279070   2.987   2.671  12.828
92411SOL     OW79071   3.909  10.774   8.269
92411SOL    HW179072   3.877  10.692   8.232
92411SOL    HW279073   3.963  10.813   8.200
92412SOL     OW79074  14.087   8.521  11.714
92412SOL    HW179075  14.023   8.512  11.785
92412SOL    HW279076  14.161   8.565  11.755
92413SOL     OW79077  12.100   6.521   4.911
92413SOL    HW179078  12.059   6.463   4.976
92413SOL    HW279079  12.071   6.486   4.827
92414SOL     OW79080   0.782   7.975   6.373
92414SOL    HW179081   0.705   7.919   6.369
92414SOL    HW279082   0.813   7.981   6.283
92415SOL     OW79083  10.691   0.068   9.460
92415SOL    HW179084  10.786   0.055   9.466
92415SOL    HW279085  10.656  14.864   9.439
92416SOL     OW79086   2.711  11.593   6.397
92416SOL    HW179087   2.699  11.608   6.491
92416SOL    HW279088   2.675  11.672   6.356
92417SOL     OW79089   9.659   4.445  12.128
92417SOL    HW179090   9.720   4.432  12.201
92417SOL    HW279091   9.714   4.469  12.054
92418SOL     OW79092   5.669   4.496   7.706
92418SOL    HW179093   5.637   4.414   7.667
92418SOL    HW279094   5.649   4.563   7.641
92419SOL     OW79095   3.814   4.472  10.228
92419SOL    HW179096   3.902   4.476  10.192
92419SOL    HW279097   3.808   4.546  10.288
92420SOL     OW79098  14.362   5.391   9.801
92420SOL    HW179099  14.317   5.369   9.883
92420SOL    HW279100  14.421   5.318   9.785
92421SOL     OW79101   6.185   7.135  14.586
92421SOL    HW179102   6.207   7.129  14.493
92421SOL    HW279103   6.269   7.145  14.630
92422SOL     OW79104   8.128   6.895   3.046
92422SOL    HW179105   8.184   6.884   2.969
92422SOL    HW279106   8.162   6.974   3.089
92423SOL     OW79107   9.120   0.946  14.560
92423SOL    HW179108   9.024   0.947  14.551
92423SOL    HW279109   9.148   1.031  14.529
92424SOL     OW79110   1.474   6.227  10.679
92424SOL    HW179111   1.538   6.254  10.613
92424SOL    HW279112   1.393   6.272  10.654
92425SOL     OW79113   6.334  13.783   2.505
92425SOL    HW179114   6.238  13.777   2.503
92425SOL    HW279115   6.363  13.696   2.476
92426SOL     OW79116   8.218  10.625   2.518
92426SOL    HW179117   8.186  10.713   2.534
92426SOL    HW279118   8.144  10.580   2.477
92427SOL     OW79119  14.072   5.923   3.295
92427SOL    HW179120  14.152   5.882   3.262
92427SOL    HW279121  14.015   5.851   3.320
92428SOL     OW79122  12.499  14.014   9.277
92428SOL    HW179123  12.541  13.975   9.353
92428SOL    HW279124  12.477  13.940   9.221
92429SOL     OW79125   5.580  12.585   2.115
92429SOL    HW179126   5.557  12.575   2.022
92429SOL    HW279127   5.501  12.557   2.162
92430SOL     OW79128   4.945   9.583   2.720
92430SOL    HW179129   4.893   9.577   2.800
92430SOL    HW279130   4.885   9.556   2.650
92431SOL     OW79131  13.048   8.643  14.286
92431SOL    HW179132  13.105   8.574  14.252
92431SOL    HW279133  13.083   8.662  14.373
92432SOL     OW79134  10.786   6.677  10.380
92432SOL    HW179135  10.752   6.648  10.465
92432SOL    HW279136  10.777   6.772  10.382
92433SOL     OW79137  13.251  10.842  11.237
92433SOL    HW179138  13.191  10.768  11.247
92433SOL    HW279139  13.338  10.801  11.231
92434SOL     OW79140  14.109   3.344  12.075
92434SOL    HW179141  14.197   3.333  12.039
92434SOL    HW279142  14.111   3.294  12.157
92435SOL     OW79143   9.379   5.645  12.863
92435SOL    HW179144   9.373   5.551  12.845
92435SOL    HW279145   9.305   5.663  12.921
92436SOL     OW79146   1.962   0.160   2.685
92436SOL    HW179147   1.991   0.146   2.775
92436SOL    HW279148   1.976   0.076   2.641
92437SOL     OW79149   9.130  12.610   0.014
92437SOL    HW179150   9.176  12.622   0.097
92437SOL    HW279151   9.163  12.527  14.862
92438SOL     OW79152  13.353  12.633   3.007
92438SOL    HW179153  13.410  12.706   2.985
92438SOL    HW279154  13.414  12.561   3.028
92439SOL     OW79155  13.400   8.185  14.648
92439SOL    HW179156  13.354   8.269  14.648
92439SOL    HW279157  13.423   8.170  14.740
92440SOL     OW79158   3.145   9.848  12.041
92440SOL    HW179159   3.221   9.902  12.017
92440SOL    HW279160   3.111   9.816  11.958
92441SOL     OW79161  10.394   7.893   2.103
92441SOL    HW179162  10.382   7.960   2.035
92441SOL    HW279163  10.318   7.902   2.159
92442SOL     OW79164  13.527   3.659   9.978
92442SOL    HW179165  13.622   3.653   9.972
92442SOL    HW279166  13.511   3.748  10.011
92443SOL     OW79167  14.639  11.546  12.906
92443SOL    HW179168  14.677  11.485  12.843
92443SOL    HW279169  14.701  11.619  12.909
92444SOL     OW79170  10.128  10.422  11.507
92444SOL    HW179171  10.196  10.474  11.550
92444SOL    HW279172  10.177  10.365  11.447
92445SOL     OW79173  10.979   5.784   0.230
92445SOL    HW179174  10.969   5.877   0.210
92445SOL    HW279175  10.979   5.741   0.144
92446SOL     OW79176   3.899   8.133  12.492
92446SOL    HW179177   3.978   8.153  12.443
92446SOL    HW279178   3.859   8.218  12.510
92447SOL     OW79179   4.228   3.931  11.473
92447SOL    HW179180   4.201   3.850  11.430
92447SOL    HW279181   4.227   3.909  11.567
92448SOL     OW79182  13.136   2.530   0.372
92448SOL    HW179183  13.093   2.615   0.360
92448SOL    HW279184  13.113   2.504   0.461
92449SOL     OW79185   8.032  12.034  10.723
92449SOL    HW179186   7.959  12.093  10.740
92449SOL    HW279187   7.991  11.954  10.691
92450SOL     OW79188   9.898   9.885  11.486
92450SOL    HW179189   9.910   9.899  11.392
92450SOL    HW279190   9.984   9.901  11.524
92451SOL     OW79191   5.545   8.674   6.030
92451SOL    HW179192   5.450   8.671   6.024
92451SOL    HW279193   5.563   8.709   6.117
92452SOL     OW79194   2.386   3.285  11.015
92452SOL    HW179195   2.398   3.196  10.984
92452SOL    HW279196   2.473   3.324  11.013
92453SOL     OW79197   1.336   5.928   8.583
92453SOL    HW179198   1.248   5.899   8.561
92453SOL    HW279199   1.333   6.023   8.578
92454SOL     OW79200  11.997   4.948  11.715
92454SOL    HW179201  12.019   4.954  11.622
92454SOL    HW279202  11.923   4.888  11.718
92455SOL     OW79203   2.837   8.451  14.547
92455SOL    HW179204   2.802   8.377  14.597
92455SOL    HW279205   2.785   8.453  14.467
92456SOL     OW79206   0.671  12.314   7.758
92456SOL    HW179207   0.591  12.354   7.793
92456SOL    HW279208   0.741  12.348   7.813
92457SOL     OW79209   0.623   5.704   0.537
92457SOL    HW179210   0.640   5.631   0.477
92457SOL    HW279211   0.540   5.742   0.505
92458SOL     OW79212   2.331  12.720   0.428
92458SOL    HW179213   2.321  12.816   0.428
92458SOL    HW279214   2.268  12.690   0.494
92459SOL     OW79215   9.260   7.276   3.434
92459SOL    HW179216   9.334   7.247   3.380
92459SOL    HW279217   9.282   7.366   3.458
92460SOL     OW79218   0.041   4.682   1.141
92460SOL    HW179219   0.030   4.593   1.176
92460SOL    HW279220   0.060   4.735   1.218
92461SOL     OW79221  13.690   7.283  14.390
92461SOL    HW179222  13.694   7.228  14.312
92461SOL    HW279223  13.652   7.365  14.360
92462SOL     OW79224   9.275   1.178   5.187
92462SOL    HW179225   9.230   1.095   5.201
92462SOL    HW279226   9.342   1.159   5.121
92463SOL     OW79227  11.196  11.195   9.774
92463SOL    HW179228  11.230  11.246   9.849
92463SOL    HW279229  11.102  11.215   9.773
92464SOL     OW79230   5.316   5.891   0.399
92464SOL    HW179231   5.342   5.849   0.481
92464SOL    HW279232   5.395   5.888   0.345
92465SOL     OW79233   8.839   0.504   3.341
92465SOL    HW179234   8.784   0.501   3.263
92465SOL    HW279235   8.780   0.531   3.412
92466SOL     OW79236  12.955   1.965   0.743
92466SOL    HW179237  12.900   2.027   0.695
92466SOL    HW279238  12.950   1.993   0.834
92467SOL     OW79239  14.486  11.127  11.560
92467SOL    HW179240  14.429  11.202  11.575
92467SOL    HW279241  14.455  11.090  11.477
92468SOL     OW79242   3.478   3.450   7.094
92468SOL    HW179243   3.486   3.516   7.025
92468SOL    HW279244   3.448   3.371   7.048
92469SOL     OW79245  14.156   0.013  10.806
92469SOL    HW179246  14.228   0.067  10.774
92469SOL    HW279247  14.131  14.841  10.730
92470SOL     OW79248   7.534   4.552  14.482
92470SOL    HW179249   7.558   4.468  14.442
92470SOL    HW279250   7.521   4.611  14.407
92471SOL     OW79251   1.350   0.032   6.516
92471SOL    HW179252   1.350   0.121   6.481
92471SOL    HW279253   1.259   0.016   6.541
92472SOL     OW79254  13.622   3.434  13.763
92472SOL    HW179255  13.659   3.514  13.801
92472SOL    HW279256  13.534   3.459  13.734
92473SOL     OW79257   9.267  11.216   2.553
92473SOL    HW179258   9.284  11.142   2.494
92473SOL    HW279259   9.209  11.274   2.504
92474SOL     OW79260   4.687   1.741  13.028
92474SOL    HW179261   4.602   1.784  13.014
92474SOL    HW279262   4.737   1.803  13.081
92475SOL     OW79263   8.370   6.039   4.212
92475SOL    HW179264   8.356   6.104   4.281
92475SOL    HW279265   8.321   6.072   4.137
92476SOL     OW79266  14.532   8.593  11.353
92476SOL    HW179267  14.455   8.633  11.393
92476SOL    HW279268  14.576   8.548  11.426
92477SOL     OW79269  14.202  12.722  12.414
92477SOL    HW179270  14.133  12.739  12.349
92477SOL    HW279271  14.180  12.779  12.488
92478SOL     OW79272  13.791   3.178   8.379
92478SOL    HW179273  13.805   3.156   8.471
92478SOL    HW279274  13.696   3.167   8.366
92479SOL     OW79275   4.666   5.884  11.899
92479SOL    HW179276   4.715   5.962  11.873
92479SOL    HW279277   4.625   5.853  11.819
92480SOL     OW79278   4.582   2.749   5.077
92480SOL    HW179279   4.579   2.791   4.991
92480SOL    HW279280   4.554   2.817   5.138
92481SOL     OW79281   8.776   1.918  10.629
92481SOL    HW179282   8.768   1.874  10.714
92481SOL    HW279283   8.852   1.876  10.587
92482SOL     OW79284   7.934  11.391   7.906
92482SOL    HW179285   7.944  11.321   7.841
92482SOL    HW279286   7.855  11.368   7.954
92483SOL     OW79287   3.853   7.427   6.265
92483SOL    HW179288   3.934   7.409   6.218
92483SOL    HW279289   3.799   7.476   6.203
92484SOL     OW79290   7.945   6.121   0.490
92484SOL    HW179291   7.933   6.028   0.471
92484SOL    HW279292   7.864   6.163   0.461
92485SOL     OW79293   4.203   9.314  13.066
92485SOL    HW179294   4.239   9.385  13.012
92485SOL    HW279295   4.161   9.256  13.003
92486SOL     OW79296   6.937   2.817   3.669
92486SOL    HW179297   6.941   2.909   3.695
92486SOL    HW279298   6.894   2.817   3.584
92487SOL     OW79299   5.677  13.555  14.637
92487SOL    HW179300   5.593  13.540  14.594
92487SOL    HW279301   5.655  13.601  14.718
92488SOL     OW79302  10.405   8.177  14.039
92488SOL    HW179303  10.363   8.261  14.057
92488SOL    HW279304  10.489   8.181  14.084
92489SOL     OW79305   3.730  10.393   2.564
92489SOL    HW179306   3.730  10.390   2.468
92489SOL    HW279307   3.638  10.381   2.587
92490SOL     OW79308   9.161   7.353   9.732
92490SOL    HW179309   9.187   7.278   9.785
92490SOL    HW279310   9.073   7.375   9.763
92491SOL     OW79311   0.657   4.114   6.955
92491SOL    HW179312   0.702   4.179   6.901
92491SOL    HW279313   0.646   4.158   7.040
92492SOL     OW79314   1.652   5.095   0.858
92492SOL    HW179315   1.583   5.156   0.880
92492SOL    HW279316   1.697   5.135   0.783
92493SOL     OW79317   8.993   6.788  11.795
92493SOL    HW179318   9.012   6.697  11.820
92493SOL    HW279319   8.901   6.788  11.770
92494SOL     OW79320  10.443   8.611  10.611
92494SOL    HW179321  10.451   8.668  10.687
92494SOL    HW279322  10.387   8.539  10.640
92495SOL     OW79323   7.748  10.208  12.126
92495SOL    HW179324   7.768  10.148  12.197
92495SOL    HW279325   7.829  10.256  12.112
92496SOL     OW79326   9.750   0.947   4.057
92496SOL    HW179327   9.794   0.958   3.972
92496SOL    HW279328   9.733   1.037   4.086
92497SOL     OW79329  11.870   1.514   1.124
92497SOL    HW179330  11.867   1.590   1.066
92497SOL    HW279331  11.800   1.457   1.093
92498SOL     OW79332   7.178   6.546  12.064
92498SOL    HW179333   7.199   6.576  11.975
92498SOL    HW279334   7.253   6.573  12.117
92499SOL     OW79335  12.803   6.380  14.516
92499SOL    HW179336  12.855   6.335  14.583
92499SOL    HW279337  12.734   6.424  14.565
92500SOL     OW79338  10.028   6.342   2.238
92500SOL    HW179339  10.052   6.401   2.310
92500SOL    HW279340  10.111   6.312   2.203
92501SOL     OW79341   0.826   2.749   0.794
92501SOL    HW179342   0.800   2.837   0.820
92501SOL    HW279343   0.921   2.757   0.778
92502SOL     OW79344   1.032   3.571   5.802
92502SOL    HW179345   0.963   3.601   5.861
92502SOL    HW279346   1.111   3.570   5.855
92503SOL     OW79347  11.087   5.444  13.242
92503SOL    HW179348  11.121   5.499  13.172
92503SOL    HW279349  11.046   5.370  13.198
92504SOL     OW79350   4.131  13.089   4.886
92504SOL    HW179351   4.166  13.054   4.968
92504SOL    HW279352   4.205  13.134   4.845
92505SOL     OW79353  11.983  12.551  13.058
92505SOL    HW179354  11.952  12.619  12.998
92505SOL    HW279355  11.962  12.469  13.015
92506SOL     OW79356  10.371  12.472  13.935
92506SOL    HW179357  10.340  12.468  13.845
92506SOL    HW279358  10.295  12.449  13.988
92507SOL     OW79359  14.070   9.703  10.639
92507SOL    HW179360  14.142   9.687  10.579
92507SOL    HW279361  13.996   9.656  10.602
92508SOL     OW79362   0.159  12.365   0.325
92508SOL    HW179363   0.207  12.328   0.252
92508SOL    HW279364   0.162  12.298   0.393
92509SOL     OW79365   5.302   3.188  14.475
92509SOL    HW179366   5.283   3.115  14.534
92509SOL    HW279367   5.280   3.266  14.525
92510SOL     OW79368  13.486  10.146  11.837
92510SOL    HW179369  13.472  10.052  11.846
92510SOL    HW279370  13.445  10.184  11.915
92511SOL     OW79371   3.047  11.378  14.605
92511SOL    HW179372   2.960  11.358  14.638
92511SOL    HW279373   3.104  11.313  14.647
92512SOL     OW79374   4.955   5.668   2.172
92512SOL    HW179375   4.923   5.695   2.258
92512SOL    HW279376   4.896   5.712   2.111
92513SOL     OW79377   2.776   4.626   6.176
92513SOL    HW179378   2.838   4.697   6.190
92513SOL    HW279379   2.812   4.577   6.102
92514SOL     OW79380   3.651   9.785   0.872
92514SOL    HW179381   3.686   9.696   0.872
92514SOL    HW279382   3.715   9.836   0.923
92515SOL     OW79383  13.010   0.729  11.179
92515SOL    HW179384  12.929   0.713  11.131
92515SOL    HW279385  13.030   0.645  11.222
92516SOL     OW79386   2.152   0.592   7.065
92516SOL    HW179387   2.200   0.537   7.003
92516SOL    HW279388   2.209   0.597   7.142
92517SOL     OW79389   3.941   1.832   2.850
92517SOL    HW179390   3.945   1.927   2.833
92517SOL    HW279391   3.892   1.797   2.775
92518SOL     OW79392   0.494  11.145   8.164
92518SOL    HW179393   0.494  11.111   8.075
92518SOL    HW279394   0.419  11.204   8.168
92519SOL     OW79395  11.343   4.178   2.141
92519SOL    HW179396  11.398   4.139   2.073
92519SOL    HW279397  11.269   4.118   2.148
92520SOL     OW79398   1.417  14.783   4.742
92520SOL    HW179399   1.345  14.756   4.684
92520SOL    HW279400   1.398  14.875   4.762
92521SOL     OW79401  13.530  11.036   4.975
92521SOL    HW179402  13.533  10.972   5.047
92521SOL    HW279403  13.572  11.114   5.011
92522SOL     OW79404   5.270   3.455   6.064
92522SOL    HW179405   5.282   3.476   6.157
92522SOL    HW279406   5.175   3.446   6.054
92523SOL     OW79407   3.686   3.026   8.735
92523SOL    HW179408   3.744   3.101   8.743
92523SOL    HW279409   3.647   3.016   8.822
92524SOL     OW79410   3.156   6.788  14.537
92524SOL    HW179411   3.211   6.710  14.542
92524SOL    HW279412   3.218   6.860  14.528
92525SOL     OW79413   8.976   5.950   6.030
92525SOL    HW179414   9.061   5.907   6.035
92525SOL    HW279415   8.941   5.947   6.119
92526SOL     OW79416   8.089   2.889  13.630
92526SOL    HW179417   8.168   2.836  13.622
92526SOL    HW279418   8.061   2.905  13.540
92527SOL     OW79419   8.021  10.260  13.476
92527SOL    HW179420   7.963  10.189  13.503
92527SOL    HW279421   8.066  10.226  13.399
92528SOL     OW79422   0.564   0.676   2.780
92528SOL    HW179423   0.537   0.747   2.837
92528SOL    HW279424   0.524   0.696   2.696
92529SOL     OW79425  14.585  12.732  10.476
92529SOL    HW179426  14.556  12.822  10.461
92529SOL    HW279427  14.560  12.714  10.567
92530SOL     OW79428   7.203  10.580  11.943
92530SOL    HW179429   7.260  10.608  11.872
92530SOL    HW279430   7.151  10.658  11.964
92531SOL     OW79431   9.656   2.610   5.829
92531SOL    HW179432   9.586   2.654   5.781
92531SOL    HW279433   9.662   2.523   5.790
92532SOL     OW79434  13.849   5.142   8.589
92532SOL    HW179435  13.939   5.109   8.586
92532SOL    HW279436  13.815   5.110   8.672
92533SOL     OW79437   1.746   7.451   3.321
92533SOL    HW179438   1.698   7.481   3.398
92533SOL    HW279439   1.797   7.527   3.293
92534SOL     OW79440   0.783   8.151  11.457
92534SOL    HW179441   0.745   8.118  11.538
92534SOL    HW279442   0.770   8.246  11.461
92535SOL     OW79443   0.976   3.123   7.059
92535SOL    HW179444   0.986   3.049   6.999
92535SOL    HW279445   0.911   3.095   7.122
92536SOL     OW79446   8.196   5.586  13.308
92536SOL    HW179447   8.133   5.624  13.248
92536SOL    HW279448   8.203   5.650  13.379
92537SOL     OW79449  11.369  10.070   0.870
92537SOL    HW179450  11.420  10.128   0.813
92537SOL    HW279451  11.360   9.989   0.819
92538SOL     OW79452   9.911   1.841  11.205
92538SOL    HW179453   9.972   1.773  11.179
92538SOL    HW279454   9.903   1.832  11.299
92539SOL     OW79455   7.079  14.493   2.840
92539SOL    HW179456   7.000  14.513   2.889
92539SOL    HW279457   7.054  14.500   2.748
92540SOL     OW79458  14.714   4.663  10.285
92540SOL    HW179459  14.623   4.669  10.258
92540SOL    HW279460  14.758   4.736  10.240
92541SOL     OW79461   5.511   8.587  13.687
92541SOL    HW179462   5.448   8.532  13.640
92541SOL    HW279463   5.458   8.634  13.751
92542SOL     OW79464  13.521   2.665  12.091
92542SOL    HW179465  13.476   2.596  12.140
92542SOL    HW279466  13.515   2.742  12.146
92543SOL     OW79467   0.005   7.877   5.191
92543SOL    HW179468  14.820   7.879   5.122
92543SOL    HW279469  14.862   7.802   5.245
92544SOL     OW79470   6.080   0.545   5.670
92544SOL    HW179471   6.074   0.527   5.576
92544SOL    HW279472   6.087   0.459   5.711
92545SOL     OW79473   8.118   4.196   6.646
92545SOL    HW179474   8.128   4.101   6.634
92545SOL    HW279475   8.207   4.226   6.667
92546SOL     OW79476   3.569   2.520   5.698
92546SOL    HW179477   3.563   2.551   5.788
92546SOL    HW279478   3.492   2.555   5.655
92547SOL     OW79479   6.680  12.575  13.689
92547SOL    HW179480   6.605  12.535  13.646
92547SOL    HW279481   6.645  12.615  13.769
92548SOL     OW79482  14.196   0.211  13.742
92548SOL    HW179483  14.123   0.149  13.748
92548SOL    HW279484  14.234   0.196  13.656
92549SOL     OW79485   0.669  11.191   8.362
92549SOL    HW179486   0.620  11.150   8.434
92549SOL    HW279487   0.613  11.180   8.286
92550SOL     OW79488   4.595  11.781  10.967
92550SOL    HW179489   4.623  11.700  11.009
92550SOL    HW279490   4.594  11.846  11.038
92551SOL     OW79491   0.506   3.834  11.615
92551SOL    HW179492   0.471   3.877  11.536
92551SOL    HW279493   0.520   3.743  11.589
92552SOL     OW79494   7.734   8.298  12.285
92552SOL    HW179495   7.773   8.222  12.241
92552SOL    HW279496   7.797   8.322  12.353
92553SOL     OW79497  14.108  11.397  14.423
92553SOL    HW179498  14.047  11.467  14.445
92553SOL    HW279499  14.195  11.435  14.437
92554SOL     OW79500   1.630   9.232  13.221
92554SOL    HW179501   1.609   9.176  13.295
92554SOL    HW279502   1.712   9.275  13.244
92555SOL     OW79503   3.284   1.497  14.657
92555SOL    HW179504   3.373   1.461  14.653
92555SOL    HW279505   3.234   1.431  14.706
92556SOL     OW79506  13.134  12.141   8.029
92556SOL    HW179507  13.159  12.082   7.958
92556SOL    HW279508  13.153  12.228   7.995
92557SOL     OW79509  14.474  12.833   8.356
92557SOL    HW179510  14.445  12.906   8.301
92557SOL    HW279511  14.400  12.772   8.356
92558SOL     OW79512   7.535  13.003  12.861
92558SOL    HW179513   7.597  12.975  12.794
92558SOL    HW279514   7.573  13.083  12.897
92559SOL     OW79515   8.035  11.985   8.607
92559SOL    HW179516   8.013  11.969   8.515
92559SOL    HW279517   8.061  12.077   8.609
92560SOL     OW79518   9.884   8.700  13.756
92560SOL    HW179519   9.830   8.775  13.731
92560SOL    HW279520   9.916   8.723  13.844
92561SOL     OW79521   6.323   8.488  13.868
92561SOL    HW179522   6.375   8.414  13.838
92561SOL    HW279523   6.237   8.475  13.829
92562SOL     OW79524   4.014   7.017   6.049
92562SOL    HW179525   3.924   7.016   6.081
92562SOL    HW279526   4.067   7.037   6.127
92563SOL     OW79527  13.623   4.470   4.855
92563SOL    HW179528  13.619   4.427   4.941
92563SOL    HW279529  13.533   4.498   4.838
92564SOL     OW79530  12.198  11.003   3.180
92564SOL    HW179531  12.131  10.976   3.116
92564SOL    HW279532  12.173  10.957   3.260
92565SOL     OW79533  13.409   3.632   4.553
92565SOL    HW179534  13.452   3.686   4.619
92565SOL    HW279535  13.386   3.693   4.483
92566SOL     OW79536   5.180   8.284  14.856
92566SOL    HW179537   5.126   8.326   0.042
92566SOL    HW279538   5.144   8.195  14.849
92567SOL     OW79539  12.027   8.726   7.137
92567SOL    HW179540  12.110   8.727   7.088
92567SOL    HW279541  11.989   8.812   7.120
92568SOL     OW79542   2.057   7.144   4.453
92568SOL    HW179543   2.131   7.107   4.500
92568SOL    HW279544   2.021   7.071   4.402
92569SOL     OW79545  10.463  11.652   2.122
92569SOL    HW179546  10.453  11.557   2.126
92569SOL    HW279547  10.384  11.684   2.078
92570SOL     OW79548  13.286   2.120   0.467
92570SOL    HW179549  13.350   2.100   0.535
92570SOL    HW279550  13.326   2.192   0.417
92571SOL     OW79551  13.353   9.414   8.661
92571SOL    HW179552  13.345   9.345   8.595
92571SOL    HW279553  13.398   9.372   8.734
92572SOL     OW79554   4.051  11.844  11.339
92572SOL    HW179555   4.068  11.803  11.254
92572SOL    HW279556   3.962  11.879  11.331
92573SOL     OW79557   2.808  13.073   8.553
92573SOL    HW179558   2.894  13.102   8.585
92573SOL    HW279559   2.807  13.100   8.461
92574SOL     OW79560   9.551   6.602   5.312
92574SOL    HW179561   9.489   6.538   5.347
92574SOL    HW279562   9.554   6.584   5.218
92575SOL     OW79563   6.185  10.989   3.604
92575SOL    HW179564   6.132  11.060   3.568
92575SOL    HW279565   6.131  10.951   3.674
92576SOL     OW79566   0.988   8.406  13.365
92576SOL    HW179567   1.011   8.498  13.362
92576SOL    HW279568   0.907   8.399  13.315
92577SOL     OW79569   6.148   1.840  10.711
92577SOL    HW179570   6.113   1.768  10.764
92577SOL    HW279571   6.241   1.843  10.734
92578SOL     OW79572   0.433   7.644   9.764
92578SOL    HW179573   0.410   7.700   9.839
92578SOL    HW279574   0.361   7.580   9.760
92579SOL     OW79575  14.309  11.075   8.824
92579SOL    HW179576  14.265  11.151   8.787
92579SOL    HW279577  14.389  11.066   8.773
92580SOL     OW79578   8.715   7.071   5.855
92580SOL    HW179579   8.801   7.036   5.882
92580SOL    HW279580   8.652   7.009   5.891
92581SOL     OW79581   3.097   0.722  14.020
92581SOL    HW179582   3.138   0.800  13.982
92581SOL    HW279583   3.007   0.725  13.988
92582SOL     OW79584   9.695   9.611  13.230
92582SOL    HW179585   9.619   9.667  13.215
92582SOL    HW279586   9.659   9.523  13.237
92583SOL     OW79587   9.914   8.931   3.538
92583SOL    HW179588   9.947   8.914   3.626
92583SOL    HW279589   9.837   8.986   3.551
92584SOL     OW79590  11.567   6.759   9.449
92584SOL    HW179591  11.632   6.690   9.435
92584SOL    HW279592  11.511   6.726   9.519
92585SOL     OW79593   8.683   2.551   6.849
92585SOL    HW179594   8.753   2.563   6.784
92585SOL    HW279595   8.653   2.640   6.868
92586SOL     OW79596  14.803  11.807  12.128
92586SOL    HW179597  14.765  11.752  12.197
92586SOL    HW279598   0.003  11.764  12.105
92587SOL     OW79599   2.751   0.926   8.569
92587SOL    HW179600   2.738   0.850   8.512
92587SOL    HW279601   2.844   0.948   8.558
92588SOL     OW79602   6.538   4.471   4.504
92588SOL    HW179603   6.608   4.535   4.513
92588SOL    HW279604   6.557   4.425   4.422
92589SOL     OW79605   8.896   5.053   6.295
92589SOL    HW179606   8.875   5.043   6.202
92589SOL    HW279607   8.990   5.036   6.300
92590SOL     OW79608   7.619  12.455   1.079
92590SOL    HW179609   7.670  12.506   1.016
92590SOL    HW279610   7.684  12.405   1.128
92591SOL     OW79611   6.608   4.074   3.564
92591SOL    HW179612   6.524   4.084   3.609
92591SOL    HW279613   6.611   4.148   3.503
92592SOL     OW79614   7.531   3.275   5.910
92592SOL    HW179615   7.501   3.290   6.000
92592SOL    HW279616   7.561   3.361   5.881
92593SOL     OW79617   6.474   5.515  11.681
92593SOL    HW179618   6.416   5.441  11.665
92593SOL    HW279619   6.561   5.477  11.689
92594SOL     OW79620   8.547  10.275  13.813
92594SOL    HW179621   8.632  10.238  13.838
92594SOL    HW279622   8.522  10.329  13.887
92595SOL     OW79623   8.929   5.076   3.622
92595SOL    HW179624   8.977   5.158   3.612
92595SOL    HW279625   8.982   5.012   3.574
92596SOL     OW79626  11.569  12.233   9.161
92596SOL    HW179627  11.527  12.253   9.245
92596SOL    HW279628  11.526  12.153   9.131
92597SOL     OW79629   8.673   2.991  14.551
92597SOL    HW179630   8.593   3.039  14.529
92597SOL    HW279631   8.741   3.058  14.554
92598SOL     OW79632   1.432   0.172   4.840
92598SOL    HW179633   1.420   0.174   4.934
92598SOL    HW279634   1.520   0.136   4.827
92599SOL     OW79635   2.785  10.089  13.725
92599SOL    HW179636   2.872  10.052  13.740
92599SOL    HW279637   2.787  10.118  13.634
92600SOL     OW79638   4.240   3.783   6.919
92600SOL    HW179639   4.287   3.703   6.897
92600SOL    HW279640   4.177   3.794   6.847
92601SOL     OW79641  12.639  14.342   9.934
92601SOL    HW179642  12.618  14.303  10.019
92601SOL    HW279643  12.732  14.363   9.940
92602SOL     OW79644  12.197   3.705   7.901
92602SOL    HW179645  12.228   3.790   7.932
92602SOL    HW279646  12.113   3.723   7.860
92603SOL     OW79647  14.174   6.508   2.487
92603SOL    HW179648  14.166   6.580   2.425
92603SOL    HW279649  14.145   6.544   2.571
92604SOL     OW79650   1.187   0.292   1.592
92604SOL    HW179651   1.224   0.378   1.570
92604SOL    HW279652   1.141   0.264   1.513
92605SOL     OW79653   8.756  12.571  13.528
92605SOL    HW179654   8.709  12.595  13.608
92605SOL    HW279655   8.750  12.476  13.525
92606SOL     OW79656  12.134  13.137  12.089
92606SOL    HW179657  12.108  13.158  12.179
92606SOL    HW279658  12.133  13.221  12.043
92607SOL     OW79659  11.403   7.065   3.882
92607SOL    HW179660  11.311   7.078   3.902
92607SOL    HW279661  11.409   6.974   3.852
92608SOL     OW79662   2.020  10.734  14.597
92608SOL    HW179663   2.000  10.641  14.593
92608SOL    HW279664   1.968  10.773  14.526
92609SOL     OW79665  10.683   1.331   2.159
92609SOL    HW179666  10.664   1.417   2.122
92609SOL    HW279667  10.617   1.273   2.121
92610SOL     OW79668   5.565  10.162   5.606
92610SOL    HW179669   5.532  10.136   5.693
92610SOL    HW279670   5.578  10.079   5.561
92611SOL     OW79671   6.502  13.478   6.278
92611SOL    HW179672   6.541  13.498   6.194
92611SOL    HW279673   6.416  13.442   6.257
92612SOL     OW79674   8.412  12.226   7.798
92612SOL    HW179675   8.397  12.151   7.856
92612SOL    HW279676   8.352  12.212   7.725
92613SOL     OW79677   7.104   6.609   2.551
92613SOL    HW179678   7.186   6.657   2.541
92613SOL    HW279679   7.116   6.530   2.498
92614SOL     OW79680   3.905   8.460  14.729
92614SOL    HW179681   3.924   8.375  14.691
92614SOL    HW279682   3.910   8.445  14.824
92615SOL     OW79683   5.703   6.305   9.592
92615SOL    HW179684   5.716   6.305   9.687
92615SOL    HW279685   5.683   6.396   9.570
92616SOL     OW79686  12.521  13.324   9.261
92616SOL    HW179687  12.550  13.265   9.330
92616SOL    HW279688  12.438  13.360   9.294
92617SOL     OW79689  10.769  13.415  12.576
92617SOL    HW179690  10.707  13.346  12.552
92617SOL    HW279691  10.718  13.496  12.570
92618SOL     OW79692  11.640   6.397   6.680
92618SOL    HW179693  11.646   6.441   6.765
92618SOL    HW279694  11.553   6.419   6.648
92619SOL     OW79695  13.375   9.437   6.505
92619SOL    HW179696  13.378   9.351   6.462
92619SOL    HW279697  13.389   9.418   6.598
92620SOL     OW79698  11.039   0.233   8.857
92620SOL    HW179699  10.983   0.279   8.796
92620SOL    HW279700  11.049   0.145   8.820
92621SOL     OW79701  13.043   2.265   0.229
92621SOL    HW179702  13.038   2.267   0.325
92621SOL    HW279703  13.055   2.356   0.203
92622SOL     OW79704   4.741   7.281   3.659
92622SOL    HW179705   4.702   7.200   3.690
92622SOL    HW279706   4.831   7.258   3.637
92623SOL     OW79707   7.379   5.309  14.624
92623SOL    HW179708   7.394   5.253  14.548
92623SOL    HW279709   7.421   5.392  14.600
92624SOL     OW79710   7.375   6.241  14.080
92624SOL    HW179711   7.421   6.204  14.155
92624SOL    HW279712   7.442   6.289  14.031
92625SOL     OW79713   8.282   5.456  12.642
92625SOL    HW179714   8.316   5.445  12.730
92625SOL    HW279715   8.236   5.540  12.643
92626SOL     OW79716   5.745  10.584  12.713
92626SOL    HW179717   5.810  10.530  12.669
92626SOL    HW279718   5.796  10.646  12.765
92627SOL     OW79719   2.551   5.056  10.335
92627SOL    HW179720   2.604   5.012  10.268
92627SOL    HW279721   2.479   5.095  10.286
92628SOL     OW79722  11.069   9.722  10.358
92628SOL    HW179723  11.149   9.713  10.307
92628SOL    HW279724  11.060   9.638  10.404
92629SOL     OW79725   6.390   9.525   4.517
92629SOL    HW179726   6.471   9.478   4.534
92629SOL    HW279727   6.363   9.496   4.430
92630SOL     OW79728  13.511   7.890  11.400
92630SOL    HW179729  13.564   7.927  11.471
92630SOL    HW279730  13.541   7.936  11.321
92631SOL     OW79731   7.832   2.201   3.768
92631SOL    HW179732   7.924   2.174   3.757
92631SOL    HW279733   7.794   2.192   3.680
92632SOL     OW79734   5.102  11.800   0.823
92632SOL    HW179735   5.084  11.740   0.896
92632SOL    HW279736   5.054  11.880   0.846
92633SOL     OW79737   0.961   4.031   3.717
92633SOL    HW179738   1.002   4.070   3.639
92633SOL    HW279739   0.978   4.094   3.787
92634SOL     OW79740  12.828   2.846   9.537
92634SOL    HW179741  12.826   2.826   9.443
92634SOL    HW279742  12.748   2.896   9.552
92635SOL     OW79743   5.420  13.156   1.943
92635SOL    HW179744   5.361  13.229   1.962
92635SOL    HW279745   5.479  13.191   1.875
92636SOL     OW79746   2.229  10.550   6.068
92636SOL    HW179747   2.255  10.605   5.995
92636SOL    HW279748   2.296  10.481   6.071
92637SOL     OW79749  11.179   4.988   5.931
92637SOL    HW179750  11.142   5.022   5.850
92637SOL    HW279751  11.272   4.980   5.913
92638SOL     OW79752   6.297  10.722   1.335
92638SOL    HW179753   6.385  10.718   1.298
92638SOL    HW279754   6.286  10.638   1.380
92639SOL     OW79755  10.723  10.497   3.783
92639SOL    HW179756  10.712  10.578   3.735
92639SOL    HW279757  10.644  10.491   3.838
92640SOL     OW79758   1.455   3.364   7.597
92640SOL    HW179759   1.490   3.342   7.683
92640SOL    HW279760   1.516   3.323   7.535
92641SOL     OW79761   9.256  14.387   6.210
92641SOL    HW179762   9.280  14.339   6.290
92641SOL    HW279763   9.264  14.479   6.235
92642SOL     OW79764  10.539  12.134  12.920
92642SOL    HW179765  10.535  12.068  12.989
92642SOL    HW279766  10.553  12.085  12.839
92643SOL     OW79767   8.007  11.887   1.236
92643SOL    HW179768   7.948  11.905   1.310
92643SOL    HW279769   8.054  11.808   1.262
92644SOL     OW79770  10.205   4.736  14.045
92644SOL    HW179771  10.297   4.739  14.020
92644SOL    HW279772  10.205   4.690  14.129
92645SOL     OW79773  13.660  14.165   1.726
92645SOL    HW179774  13.578  14.156   1.774
92645SOL    HW279775  13.659  14.093   1.663
92646SOL     OW79776  11.632   2.944   1.904
92646SOL    HW179777  11.538   2.925   1.904
92646SOL    HW279778  11.652   2.970   1.994
92647SOL     OW79779   3.769   7.626   7.417
92647SOL    HW179780   3.752   7.549   7.471
92647SOL    HW279781   3.708   7.619   7.344
92648SOL     OW79782   7.448   1.483   7.665
92648SOL    HW179783   7.483   1.470   7.577
92648SOL    HW279784   7.359   1.516   7.650
92649SOL     OW79785   5.438   9.445   0.926
92649SOL    HW179786   5.424   9.374   0.988
92649SOL    HW279787   5.525   9.479   0.947
92650SOL     OW79788   2.266   6.090   1.328
92650SOL    HW179789   2.191   6.149   1.331
92650SOL    HW279790   2.250   6.027   1.398
92651SOL     OW79791   9.293  11.715  12.138
92651SOL    HW179792   9.204  11.745  12.157
92651SOL    HW279793   9.287  11.620  12.142
92652SOL     OW79794  10.815  12.708  12.670
92652SOL    HW179795  10.735  12.714  12.617
92652SOL    HW279796  10.786  12.674  12.754
92653SOL     OW79797   1.138   2.198   1.135
92653SOL    HW179798   1.046   2.200   1.110
92653SOL    HW279799   1.179   2.141   1.070
92654SOL     OW79800   8.873   3.501   6.582
92654SOL    HW179801   8.842   3.461   6.501
92654SOL    HW279802   8.814   3.467   6.650
92655SOL     OW79803   7.808   6.096   7.218
92655SOL    HW179804   7.882   6.054   7.263
92655SOL    HW279805   7.820   6.189   7.236
92656SOL     OW79806   8.023   9.683   9.315
92656SOL    HW179807   8.049   9.773   9.294
92656SOL    HW279808   8.089   9.628   9.274
92657SOL     OW79809   7.068   8.553   6.379
92657SOL    HW179810   7.026   8.475   6.415
92657SOL    HW279811   7.128   8.582   6.447
92658SOL     OW79812   7.684   1.604  14.115
92658SOL    HW179813   7.597   1.580  14.144
92658SOL    HW279814   7.696   1.694  14.146
92659SOL     OW79815   3.123   9.177   5.300
92659SOL    HW179816   3.162   9.238   5.363
92659SOL    HW279817   3.123   9.093   5.346
92660SOL     OW79818  12.419   1.326  13.447
92660SOL    HW179819  12.340   1.379  13.434
92660SOL    HW279820  12.479   1.354  13.378
92661SOL     OW79821   3.412   3.161   6.905
92661SOL    HW179822   3.406   3.178   6.811
92661SOL    HW279823   3.506   3.156   6.922
92662SOL     OW79824   5.756   5.869  12.780
92662SOL    HW179825   5.721   5.784  12.754
92662SOL    HW279826   5.760   5.866  12.875
92663SOL     OW79827   4.895   0.613   1.739
92663SOL    HW179828   4.978   0.609   1.787
92663SOL    HW279829   4.866   0.522   1.735
92664SOL     OW79830  14.181   5.699  14.477
92664SOL    HW179831  14.095   5.739  14.493
92664SOL    HW279832  14.221   5.755  14.410
92665SOL     OW79833  14.830   1.432   4.303
92665SOL    HW179834  14.820   1.404   4.393
92665SOL    HW279835   0.013   1.502   4.307
92666SOL     OW79836   3.351   6.401  10.496
92666SOL    HW179837   3.288   6.459  10.538
92666SOL    HW279838   3.396   6.457  10.432
92667SOL     OW79839   8.025  13.675  12.215
92667SOL    HW179840   7.957  13.618  12.180
92667SOL    HW279841   8.095  13.672  12.150
92668SOL     OW79842   6.202   7.029   4.105
92668SOL    HW179843   6.226   7.059   4.193
92668SOL    HW279844   6.126   6.973   4.118
92669SOL     OW79845  12.878  13.277   1.831
92669SOL    HW179846  12.924  13.356   1.860
92669SOL    HW279847  12.946  13.210   1.827
92670SOL     OW79848  14.864  13.215   1.639
92670SOL    HW179849   0.052  13.206   1.574
92670SOL    HW279850   0.028  13.218   1.723
92671SOL     OW79851  12.719   2.741  10.064
92671SOL    HW179852  12.654   2.729  10.133
92671SOL    HW279853  12.735   2.653  10.030
92672SOL     OW79854   0.441  13.554   8.072
92672SOL    HW179855   0.387  13.614   8.021
92672SOL    HW279856   0.415  13.569   8.163
92673SOL     OW79857   9.577  12.065   9.253
92673SOL    HW179858   9.484  12.052   9.271
92673SOL    HW279859   9.583  12.157   9.226
92674SOL     OW79860   4.249  10.085   7.796
92674SOL    HW179861   4.240  10.002   7.843
92674SOL    HW279862   4.247  10.061   7.704
92675SOL     OW79863   8.732  13.942  10.321
92675SOL    HW179864   8.735  13.997  10.400
92675SOL    HW279865   8.810  13.968  10.271
92676SOL     OW79866   2.164  12.036   9.282
92676SOL    HW179867   2.183  12.040   9.376
92676SOL    HW279868   2.246  12.005   9.243
92677SOL     OW79869   4.636  14.005   6.273
92677SOL    HW179870   4.542  14.000   6.257
92677SOL    HW279871   4.657  13.928   6.325
92678SOL     OW79872   6.763   1.855  11.626
92678SOL    HW179873   6.818   1.788  11.667
92678SOL    HW279874   6.731   1.814  11.545
92679SOL     OW79875   0.743   1.962   1.466
92679SOL    HW179876   0.749   1.934   1.375
92679SOL    HW279877   0.753   1.881   1.516
92680SOL     OW79878   4.064  13.802  11.233
92680SOL    HW179879   4.041  13.750  11.156
92680SOL    HW279880   4.010  13.765  11.304
92681SOL     OW79881  13.492  10.149   3.666
92681SOL    HW179882  13.492  10.067   3.715
92681SOL    HW279883  13.435  10.207   3.717
92682SOL     OW79884  12.635  10.744   0.141
92682SOL    HW179885  12.558  10.800   0.133
92682SOL    HW279886  12.601  10.655   0.137
92683SOL     OW79887  13.907   9.409   5.095
92683SOL    HW179888  13.987   9.409   5.043
92683SOL    HW279889  13.936   9.394   5.184
92684SOL     OW79890   7.039   1.489   0.485
92684SOL    HW179891   6.960   1.482   0.538
92684SOL    HW279892   7.025   1.428   0.412
92685SOL     OW79893  13.233  10.795  13.284
92685SOL    HW179894  13.170  10.857  13.320
92685SOL    HW279895  13.302  10.850  13.246
92686SOL     OW79896   0.891  14.598   5.934
92686SOL    HW179897   0.979  14.621   5.962
92686SOL    HW279898   0.851  14.682   5.910
92687SOL     OW79899  12.424  13.822   9.124
92687SOL    HW179900  12.333  13.800   9.105
92687SOL    HW279901  12.472  13.740   9.116
92688SOL     OW79902   0.323   1.526   0.276
92688SOL    HW179903   0.330   1.601   0.335
92688SOL    HW279904   0.399   1.472   0.298
92689SOL     OW79905  10.535  13.122  14.600
92689SOL    HW179906  10.530  13.202  14.546
92689SOL    HW279907  10.589  13.062  14.549
92690SOL     OW79908   9.865  14.880  10.318
92690SOL    HW179909   9.828  14.856  10.233
92690SOL    HW279910   9.835  14.812  10.378
92691SOL     OW79911   7.654  11.698  11.893
92691SOL    HW179912   7.565  11.725  11.872
92691SOL    HW279913   7.645  11.617  11.943
92692SOL     OW79914   7.086   3.449  14.260
92692SOL    HW179915   7.071   3.416  14.172
92692SOL    HW279916   7.153   3.392  14.296
92693SOL     OW79917   4.861  14.284  12.014
92693SOL    HW179918   4.948  14.323  12.004
92693SOL    HW279919   4.810  14.352  12.059
92694SOL     OW79920   6.982  10.742  11.353
92694SOL    HW179921   6.892  10.716  11.373
92694SOL    HW279922   7.009  10.682  11.283
92695SOL     OW79923   1.181  11.420   3.553
92695SOL    HW179924   1.238  11.392   3.481
92695SOL    HW279925   1.240  11.454   3.619
92696SOL     OW79926   2.378   0.691  13.123
92696SOL    HW179927   2.338   0.645  13.050
92696SOL    HW279928   2.471   0.667  13.119
92697SOL     OW79929  14.216   4.278   3.358
92697SOL    HW179930  14.165   4.225   3.297
92697SOL    HW279931  14.168   4.272   3.441
92698SOL     OW79932   7.573  14.010   9.608
92698SOL    HW179933   7.640  13.950   9.575
92698SOL    HW279934   7.622  14.088   9.635
92699SOL     OW79935   1.750   2.834  10.958
92699SOL    HW179936   1.752   2.924  10.925
92699SOL    HW279937   1.765   2.843  11.052
92700SOL     OW79938  12.098   9.960   9.059
92700SOL    HW179939  12.117   9.911   8.979
92700SOL    HW279940  12.122   9.902   9.130
92701SOL     OW79941  10.653  12.465   1.933
92701SOL    HW179942  10.679  12.515   1.856
92701SOL    HW279943  10.642  12.375   1.902
92702SOL     OW79944   9.229   2.465   3.671
92702SOL    HW179945   9.213   2.502   3.758
92702SOL    HW279946   9.323   2.478   3.656
92703SOL     OW79947   0.233   5.994  11.427
92703SOL    HW179948   0.141   5.969  11.421
92703SOL    HW279949   0.236   6.082  11.391
92704SOL     OW79950  11.769  11.659  13.515
92704SOL    HW179951  11.860  11.684  13.534
92704SOL    HW279952  11.771  11.631  13.423
92705SOL     OW79953   6.938   3.321   9.223
92705SOL    HW179954   6.981   3.306   9.308
92705SOL    HW279955   6.998   3.380   9.177
92706SOL     OW79956   8.779  14.043   2.340
92706SOL    HW179957   8.709  14.041   2.405
92706SOL    HW279958   8.796  14.136   2.326
92707SOL     OW79959   3.484  14.306   6.452
92707SOL    HW179960   3.467  14.400   6.445
92707SOL    HW279961   3.529  14.296   6.536
92708SOL     OW79962   1.894   7.375  13.259
92708SOL    HW179963   1.846   7.383  13.177
92708SOL    HW279964   1.967   7.317  13.238
92709SOL     OW79965  12.301  10.608  11.923
92709SOL    HW179966  12.278  10.698  11.897
92709SOL    HW279967  12.389  10.616  11.961
92710SOL     OW79968   7.832  10.026   4.561
92710SOL    HW179969   7.917  10.044   4.602
92710SOL    HW279970   7.778  10.102   4.582
92711SOL     OW79971  14.481  14.763   8.363
92711SOL    HW179972  14.574  14.786   8.357
92711SOL    HW279973  14.436  14.831   8.314
92712SOL     OW79974  13.087  13.314   6.478
92712SOL    HW179975  12.999  13.336   6.510
92712SOL    HW279976  13.083  13.329   6.384
92713SOL     OW79977   5.266   8.970   2.876
92713SOL    HW179978   5.331   9.037   2.856
92713SOL    HW279979   5.293   8.895   2.822
92714SOL     OW79980  13.646  14.030   0.712
92714SOL    HW179981  13.723  14.070   0.751
92714SOL    HW279982  13.669  14.018   0.620
92715SOL     OW79983  10.834   3.096   3.171
92715SOL    HW179984  10.748   3.123   3.202
92715SOL    HW279985  10.878   3.179   3.148
92716SOL     OW79986   3.621  14.459   0.225
92716SOL    HW179987   3.639  14.365   0.228
92716SOL    HW279988   3.525  14.465   0.224
92717SOL     OW79989   0.143   8.727  10.412
92717SOL    HW179990   0.226   8.772  10.394
92717SOL    HW279991   0.169   8.646  10.456
92718SOL     OW79992   2.395  13.798   8.234
92718SOL    HW179993   2.459  13.727   8.232
92718SOL    HW279994   2.312  13.755   8.252
92719SOL     OW79995   4.636   7.114   6.555
92719SOL    HW179996   4.551   7.082   6.525
92719SOL    HW279997   4.688   7.035   6.569
92720SOL     OW79998  10.074  14.096   4.462
92720SOL    HW179999  10.004  14.151   4.495
92720SOL    HW280000  10.109  14.143   4.387
92721SOL     OW80001   9.907  13.932   3.884
92721SOL    HW180002   9.847  13.967   3.950
92721SOL    HW280003   9.980  13.994   3.882
92722SOL     OW80004  14.858   0.534  13.996
92722SOL    HW180005  14.806   0.606  14.031
92722SOL    HW280006   0.058   0.537  14.046
92723SOL     OW80007  10.608  10.876  13.460
92723SOL    HW180008  10.532  10.874  13.518
92723SOL    HW280009  10.670  10.815  13.500
92724SOL     OW80010   6.178   2.665  11.564
92724SOL    HW180011   6.119   2.734  11.593
92724SOL    HW280012   6.197   2.687  11.473
92725SOL     OW80013   8.859   0.998   2.977
92725SOL    HW180014   8.901   1.076   2.942
92725SOL    HW280015   8.873   1.004   3.071
92726SOL     OW80016  14.183   0.242   3.239
92726SOL    HW180017  14.105   0.276   3.194
92726SOL    HW280018  14.148   0.178   3.301
92727SOL     OW80019  12.456   0.157   3.662
92727SOL    HW180020  12.365   0.177   3.639
92727SOL    HW280021  12.451   0.072   3.706
92728SOL     OW80022  12.717   7.101   0.397
92728SOL    HW180023  12.790   7.116   0.337
92728SOL    HW280024  12.663   7.179   0.388
92729SOL     OW80025  12.161  14.424   8.408
92729SOL    HW180026  12.180  14.332   8.426
92729SOL    HW280027  12.138  14.425   8.315
92730SOL     OW80028  14.167   6.940   7.732
92730SOL    HW180029  14.257   6.935   7.702
92730SOL    HW280030  14.115   6.909   7.658
92731SOL     OW80031   0.543  10.506   0.031
92731SOL    HW180032   0.513  10.452   0.103
92731SOL    HW280033   0.596  10.447  14.859
92732SOL     OW80034   5.384   4.705   8.667
92732SOL    HW180035   5.477   4.719   8.652
92732SOL    HW280036   5.344   4.791   8.656
92733SOL     OW80037   5.262   0.077   4.061
92733SOL    HW180038   5.173   0.090   4.027
92733SOL    HW280039   5.314   0.146   4.020
92734SOL     OW80040   2.832  12.232   3.506
92734SOL    HW180041   2.777  12.167   3.548
92734SOL    HW280042   2.861  12.289   3.577
92735SOL     OW80043  10.263   2.783  10.445
92735SOL    HW180044  10.205   2.811  10.515
92735SOL    HW280045  10.282   2.691  10.465
92736SOL     OW80046   6.289  13.532  10.252
92736SOL    HW180047   6.286  13.548  10.346
92736SOL    HW280048   6.382  13.536  10.229
92737SOL     OW80049  14.482   1.855   6.275
92737SOL    HW180050  14.543   1.908   6.225
92737SOL    HW280051  14.395   1.885   6.247
92738SOL     OW80052   0.532  12.952  13.201
92738SOL    HW180053   0.537  12.993  13.288
92738SOL    HW280054   0.606  12.891  13.199
92739SOL     OW80055  11.738   5.509   7.690
92739SOL    HW180056  11.699   5.558   7.761
92739SOL    HW280057  11.795   5.445   7.733
92740SOL     OW80058   2.200   3.636   1.894
92740SOL    HW180059   2.276   3.690   1.919
92740SOL    HW280060   2.158   3.614   1.977
92741SOL     OW80061   7.279  10.806   0.390
92741SOL    HW180062   7.302  10.798   0.482
92741SOL    HW280063   7.204  10.747   0.378
92742SOL     OW80064   9.567   4.250  12.540
92742SOL    HW180065   9.479   4.284  12.555
92742SOL    HW280066   9.580   4.184  12.608
92743SOL     OW80067   1.636   3.576  11.280
92743SOL    HW180068   1.671   3.592  11.367
92743SOL    HW280069   1.602   3.661  11.251
92744SOL     OW80070  11.471   4.550   9.066
92744SOL    HW180071  11.425   4.472   9.098
92744SOL    HW280072  11.563   4.533   9.087
92745SOL     OW80073  11.855  11.571   0.326
92745SOL    HW180074  11.802  11.606   0.398
92745SOL    HW280075  11.861  11.642   0.263
92746SOL     OW80076  13.187   0.783  10.448
92746SOL    HW180077  13.101   0.825  10.446
92746SOL    HW280078  13.208   0.775  10.541
92747SOL     OW80079   9.976  14.689   5.898
92747SOL    HW180080  10.054  14.743   5.906
92747SOL    HW280081   9.973  14.638   5.979
92748SOL     OW80082   4.275   7.845   7.158
92748SOL    HW180083   4.260   7.778   7.091
92748SOL    HW280084   4.211   7.827   7.226
92749SOL     OW80085   6.511   6.933   8.165
92749SOL    HW180086   6.593   6.888   8.146
92749SOL    HW280087   6.513   7.011   8.110
92750SOL     OW80088   6.627   2.098   9.936
92750SOL    HW180089   6.704   2.048   9.964
92750SOL    HW280090   6.555   2.035   9.938
92751SOL     OW80091  14.469  10.546   9.690
92751SOL    HW180092  14.450  10.463   9.734
92751SOL    HW280093  14.564  10.556   9.696
92752SOL     OW80094   2.401   0.736   7.588
92752SOL    HW180095   2.423   0.790   7.664
92752SOL    HW280096   2.317   0.771   7.557
92753SOL     OW80097   1.030   3.572  11.615
92753SOL    HW180098   0.941   3.552  11.584
92753SOL    HW280099   1.082   3.496  11.588
92754SOL     OW80100   1.597  12.953   1.228
92754SOL    HW180101   1.648  12.872   1.229
92754SOL    HW280102   1.614  12.992   1.142
92755SOL     OW80103  12.435   4.027  12.862
92755SOL    HW180104  12.487   4.042  12.783
92755SOL    HW280105  12.407   4.114  12.889
92756SOL     OW80106   8.286   0.741   3.048
92756SOL    HW180107   8.325   0.818   3.088
92756SOL    HW280108   8.205   0.773   3.007
92757SOL     OW80109  14.616  11.921   9.635
92757SOL    HW180110  14.526  11.953   9.644
92757SOL    HW280111  14.648  11.963   9.555
92758SOL     OW80112   1.416   1.984  13.881
92758SOL    HW180113   1.481   1.936  13.934
92758SOL    HW280114   1.382   1.919  13.820
92759SOL     OW80115   0.568  13.642  12.263
92759SOL    HW180116   0.555  13.549  12.279
92759SOL    HW280117   0.608  13.675  12.343
92760SOL     OW80118   0.181  12.189   2.866
92760SOL    HW180119   0.161  12.137   2.788
92760SOL    HW280120   0.248  12.138   2.912
92761SOL     OW80121   2.838   5.027   5.601
92761SOL    HW180122   2.794   5.105   5.636
92761SOL    HW280123   2.916   5.017   5.656
92762SOL     OW80124  11.202  13.016   7.090
92762SOL    HW180125  11.109  13.035   7.083
92762SOL    HW280126  11.229  13.059   7.171
92763SOL     OW80127   0.301   1.193  11.505
92763SOL    HW180128   0.307   1.126  11.437
92763SOL    HW280129   0.250   1.150  11.575
92764SOL     OW80130   1.769   4.306  10.988
92764SOL    HW180131   1.802   4.373  11.048
92764SOL    HW280132   1.741   4.355  10.911
92765SOL     OW80133   6.279   9.094  14.716
92765SOL    HW180134   6.190   9.130  14.726
92765SOL    HW280135   6.332   9.170  14.691
92766SOL     OW80136  11.290  12.408   3.646
92766SOL    HW180137  11.252  12.446   3.567
92766SOL    HW280138  11.328  12.483   3.693
92767SOL     OW80139   7.827   9.601  14.671
92767SOL    HW180140   7.783   9.643  14.744
92767SOL    HW280141   7.818   9.507  14.689
92768SOL     OW80142   0.671   9.129   4.263
92768SOL    HW180143   0.759   9.132   4.301
92768SOL    HW280144   0.644   9.221   4.258
92769SOL     OW80145   8.341   5.324   9.866
92769SOL    HW180146   8.280   5.328   9.792
92769SOL    HW280147   8.394   5.246   9.850
92770SOL     OW80148   0.495   9.080  14.750
92770SOL    HW180149   0.484   9.103  14.842
92770SOL    HW280150   0.508   8.985  14.749
92771SOL     OW80151  11.166   7.173   6.694
92771SOL    HW180152  11.086   7.139   6.652
92771SOL    HW280153  11.145   7.264   6.714
92772SOL     OW80154   6.808   7.185   0.032
92772SOL    HW180155   6.793   7.264  14.862
92772SOL    HW280156   6.898   7.193   0.064
92773SOL     OW80157   5.477   0.874  10.837
92773SOL    HW180158   5.426   0.803  10.799
92773SOL    HW280159   5.427   0.953  10.817
92774SOL     OW80160   7.289  14.202   2.354
92774SOL    HW180161   7.235  14.248   2.289
92774SOL    HW280162   7.242  14.121   2.372
92775SOL     OW80163   6.208   6.131   4.891
92775SOL    HW180164   6.177   6.106   4.978
92775SOL    HW280165   6.238   6.222   4.902
92776SOL     OW80166   0.485   4.838   2.925
92776SOL    HW180167   0.543   4.767   2.951
92776SOL    HW280168   0.400   4.796   2.913
92777SOL     OW80169   0.853   4.373  12.183
92777SOL    HW180170   0.844   4.338  12.095
92777SOL    HW280171   0.920   4.319  12.224
92778SOL     OW80172   4.442   3.444  14.116
92778SOL    HW180173   4.464   3.411  14.029
92778SOL    HW280174   4.349   3.424  14.127
92779SOL     OW80175  11.278   7.051   7.470
92779SOL    HW180176  11.200   7.084   7.425
92779SOL    HW280177  11.243   7.002   7.545
92780SOL     OW80178   6.779   4.437   9.824
92780SOL    HW180179   6.740   4.508   9.875
92780SOL    HW280180   6.787   4.364   9.886
92781SOL     OW80181   6.974   7.942   4.600
92781SOL    HW180182   6.893   7.966   4.644
92781SOL    HW280183   7.043   7.963   4.664
92782SOL     OW80184   2.202   9.200   8.300
92782SOL    HW180185   2.133   9.146   8.261
92782SOL    HW280186   2.181   9.201   8.394
92783SOL     OW80187   8.096   6.181   8.949
92783SOL    HW180188   8.066   6.239   8.878
92783SOL    HW280189   8.140   6.240   9.010
92784SOL     OW80190   9.210  12.283   8.915
92784SOL    HW180191   9.137  12.225   8.935
92784SOL    HW280192   9.170  12.370   8.905
92785SOL     OW80193   9.804  14.204   1.583
92785SOL    HW180194   9.746  14.178   1.511
92785SOL    HW280195   9.776  14.292   1.606
92786SOL     OW80196  14.381   0.740  14.750
92786SOL    HW180197  14.416   0.703  14.669
92786SOL    HW280198  14.433   0.819  14.764
92787SOL     OW80199   9.647  11.655   1.946
92787SOL    HW180200   9.717  11.605   1.903
92787SOL    HW280201   9.627  11.726   1.884
92788SOL     OW80202   1.921   6.139  13.137
92788SOL    HW180203   1.828   6.120  13.148
92788SOL    HW280204   1.932   6.228  13.170
92789SOL     OW80205  11.425   7.033   8.015
92789SOL    HW180206  11.340   7.018   8.057
92789SOL    HW280207  11.410   7.109   7.959
92790SOL     OW80208   7.288   3.799   0.368
92790SOL    HW180209   7.282   3.883   0.323
92790SOL    HW280210   7.342   3.817   0.445
92791SOL     OW80211  14.639  14.139  14.429
92791SOL    HW180212  14.585  14.112  14.355
92791SOL    HW280213  14.728  14.114  14.404
92792SOL     OW80214   2.227   8.203   3.049
92792SOL    HW180215   2.181   8.286   3.041
92792SOL    HW280216   2.318   8.224   3.027
92793SOL     OW80217  14.853   0.280  10.036
92793SOL    HW180218  14.775   0.237  10.000
92793SOL    HW280219   0.039   0.213  10.033
92794SOL     OW80220   0.346  12.865  13.014
92794SOL    HW180221   0.404  12.916  13.071
92794SOL    HW280222   0.401  12.793  12.982
92795SOL     OW80223  13.873   3.248   7.940
92795SOL    HW180224  13.866   3.167   7.889
92795SOL    HW280225  13.914   3.221   8.022
92796SOL     OW80226   0.061  11.309   2.208
92796SOL    HW180227   0.093  11.288   2.296
92796SOL    HW280228   0.096  11.396   2.189
92797SOL     OW80229   6.938   3.180   2.652
92797SOL    HW180230   6.868   3.130   2.696
92797SOL    HW280231   7.019   3.142   2.685
92798SOL     OW80232  10.297  10.355   3.982
92798SOL    HW180233  10.255  10.323   3.902
92798SOL    HW280234  10.224  10.372   4.042
92799SOL     OW80235   7.116  14.764   9.527
92799SOL    HW180236   7.147  14.729   9.444
92799SOL    HW280237   7.056  14.697   9.561
92800SOL     OW80238   0.817   8.147   1.476
92800SOL    HW180239   0.822   8.051   1.483
92800SOL    HW280240   0.735   8.169   1.521
92801SOL     OW80241  14.282  10.809   1.163
92801SOL    HW180242  14.218  10.743   1.137
92801SOL    HW280243  14.276  10.813   1.258
92802SOL     OW80244   7.649  10.542   9.612
92802SOL    HW180245   7.651  10.464   9.557
92802SOL    HW280246   7.741  10.568   9.621
92803SOL     OW80247   0.749   3.163   4.032
92803SOL    HW180248   0.690   3.129   3.965
92803SOL    HW280249   0.751   3.258   4.016
92804SOL     OW80250  14.539   0.572   6.356
92804SOL    HW180251  14.558   0.614   6.440
92804SOL    HW280252  14.619   0.582   6.305
92805SOL     OW80253  13.926  13.482   6.737
92805SOL    HW180254  13.969  13.568   6.734
92805SOL    HW280255  13.847  13.496   6.789
92806SOL     OW80256  13.146  14.204   8.976
92806SOL    HW180257  13.142  14.269   9.047
92806SOL    HW280258  13.237  14.205   8.949
92807SOL     OW80259  10.395  11.376   3.738
92807SOL    HW180260  10.476  11.421   3.713
92807SOL    HW280261  10.399  11.370   3.833
92808SOL     OW80262   0.857   3.550  13.446
92808SOL    HW180263   0.824   3.468  13.482
92808SOL    HW280264   0.935   3.525  13.397
92809SOL     OW80265   2.881  13.990   5.603
92809SOL    HW180266   2.893  13.907   5.649
92809SOL    HW280267   2.967  14.030   5.604
92810SOL     OW80268   1.627   2.363   4.935
92810SOL    HW180269   1.596   2.324   5.017
92810SOL    HW280270   1.722   2.352   4.937
92811SOL     OW80271  11.792   9.480   0.180
92811SOL    HW180272  11.868   9.538   0.181
92811SOL    HW280273  11.721   9.534   0.214
92812SOL     OW80274   9.426  10.661   9.270
92812SOL    HW180275   9.480  10.661   9.349
92812SOL    HW280276   9.398  10.752   9.260
92813SOL     OW80277  11.238   3.898   1.930
92813SOL    HW180278  11.324   3.940   1.926
92813SOL    HW280279  11.221   3.871   1.839
92814SOL     OW80280   1.718   1.487  14.161
92814SOL    HW180281   1.675   1.417  14.210
92814SOL    HW280282   1.773   1.532  14.225
92815SOL     OW80283  11.087   8.741   2.811
92815SOL    HW180284  11.005   8.789   2.795
92815SOL    HW280285  11.059   8.662   2.858
92816SOL     OW80286   8.039   2.723  14.566
92816SOL    HW180287   8.088   2.652  14.608
92816SOL    HW280288   8.067   2.719  14.474
92817SOL     OW80289   4.671   2.903  13.051
92817SOL    HW180290   4.648   2.859  12.969
92817SOL    HW280291   4.605   2.872  13.113
92818SOL     OW80292   2.336  13.335  14.596
92818SOL    HW180293   2.391  13.295  14.529
92818SOL    HW280294   2.313  13.421  14.559
92819SOL     OW80295  10.703   8.578  12.286
92819SOL    HW180296  10.733   8.531  12.208
92819SOL    HW280297  10.615   8.543  12.302
92820SOL     OW80298   3.642   5.268  11.703
92820SOL    HW180299   3.654   5.193  11.761
92820SOL    HW280300   3.724   5.274  11.654
92821SOL     OW80301   3.538   1.794   7.647
92821SOL    HW180302   3.492   1.729   7.594
92821SOL    HW280303   3.487   1.800   7.728
92822SOL     OW80304   8.322   1.517  10.213
92822SOL    HW180305   8.353   1.496  10.125
92822SOL    HW280306   8.394   1.566  10.253
92823SOL     OW80307   8.370   0.614  12.922
92823SOL    HW180308   8.380   0.678  12.851
92823SOL    HW280309   8.454   0.615  12.967
92824SOL     OW80310   5.656   1.176  13.015
92824SOL    HW180311   5.602   1.120  12.959
92824SOL    HW280312   5.603   1.190  13.093
92825SOL     OW80313   0.212  13.933   9.062
92825SOL    HW180314   0.238  14.003   9.122
92825SOL    HW280315   0.173  13.978   8.988
92826SOL     OW80316  12.718  12.846   3.455
92826SOL    HW180317  12.790  12.838   3.393
92826SOL    HW280318  12.692  12.756   3.475
92827SOL     OW80319   8.634  11.251  11.117
92827SOL    HW180320   8.594  11.265  11.031
92827SOL    HW280321   8.683  11.169  11.108
92828SOL     OW80322   8.198   8.528  11.695
92828SOL    HW180323   8.176   8.436  11.676
92828SOL    HW280324   8.245   8.524  11.779
92829SOL     OW80325   1.309  13.048  12.687
92829SOL    HW180326   1.331  13.073  12.777
92829SOL    HW280327   1.352  12.964  12.674
92830SOL     OW80328   6.109   2.802   6.024
92830SOL    HW180329   6.083   2.873   5.964
92830SOL    HW280330   6.057   2.727   5.994
92831SOL     OW80331   5.813   9.814   3.136
92831SOL    HW180332   5.901   9.788   3.163
92831SOL    HW280333   5.763   9.732   3.132
92832SOL     OW80334   5.323   5.806   7.084
92832SOL    HW180335   5.352   5.880   7.137
92832SOL    HW280336   5.400   5.751   7.075
92833SOL     OW80337   4.212   1.050  13.630
92833SOL    HW180338   4.276   1.113  13.598
92833SOL    HW280339   4.157   1.029  13.555
92834SOL     OW80340   5.558  10.405   1.612
92834SOL    HW180341   5.639  10.423   1.564
92834SOL    HW280342   5.571  10.318   1.649
92835SOL     OW80343   7.199   2.222  11.425
92835SOL    HW180344   7.295   2.219  11.421
92835SOL    HW280345   7.173   2.133  11.450
92836SOL     OW80346   9.265   7.389   5.224
92836SOL    HW180347   9.259   7.433   5.139
92836SOL    HW280348   9.251   7.459   5.288
92837SOL     OW80349  10.040  12.459   8.021
92837SOL    HW180350   9.982  12.511   8.076
92837SOL    HW280351   9.982  12.419   7.956
92838SOL     OW80352   9.251   3.763   8.263
92838SOL    HW180353   9.260   3.809   8.179
92838SOL    HW280354   9.326   3.792   8.314
92839SOL     OW80355  10.780  14.261  13.120
92839SOL    HW180356  10.754  14.177  13.082
92839SOL    HW280357  10.742  14.262  13.207
92840SOL     OW80358   2.389   6.684   6.487
92840SOL    HW180359   2.364   6.634   6.409
92840SOL    HW280360   2.366   6.627   6.560
92841SOL     OW80361   7.503   8.370   8.933
92841SOL    HW180362   7.537   8.423   9.005
92841SOL    HW280363   7.418   8.410   8.913
92842SOL     OW80364  12.375   1.335  14.407
92842SOL    HW180365  12.335   1.415  14.442
92842SOL    HW280366  12.353   1.335  14.314
92843SOL     OW80367   9.902   5.276  11.663
92843SOL    HW180368   9.841   5.274  11.590
92843SOL    HW280369   9.943   5.189  11.663
92844SOL     OW80370  12.737   5.068   0.731
92844SOL    HW180371  12.791   5.145   0.746
92844SOL    HW280372  12.775   5.026   0.654
92845SOL     OW80373   4.830  13.899  14.080
92845SOL    HW180374   4.758  13.851  14.040
92845SOL    HW280375   4.900  13.896  14.015
92846SOL     OW80376   7.986   7.450  14.699
92846SOL    HW180377   7.923   7.498  14.753
92846SOL    HW280378   7.952   7.360  14.695
92847SOL     OW80379  13.055   9.025   4.022
92847SOL    HW180380  13.033   8.954   3.962
92847SOL    HW280381  12.978   9.082   4.020
92848SOL     OW80382   9.717  11.861   5.409
92848SOL    HW180383   9.652  11.851   5.478
92848SOL    HW280384   9.679  11.924   5.349
92849SOL     OW80385   7.184   0.901   2.572
92849SOL    HW180386   7.162   0.938   2.657
92849SOL    HW280387   7.273   0.930   2.555
92850SOL     OW80388  12.127  11.093  12.560
92850SOL    HW180389  12.083  11.009  12.550
92850SOL    HW280390  12.193  11.095  12.491
92851SOL     OW80391   6.432   6.080   3.106
92851SOL    HW180392   6.494   6.023   3.060
92851SOL    HW280393   6.483   6.158   3.129
92852SOL     OW80394  10.400  13.920   4.386
92852SOL    HW180395  10.326  13.894   4.441
92852SOL    HW280396  10.463  13.848   4.395
92853SOL     OW80397  14.700  11.166   9.563
92853SOL    HW180398  14.778  11.143   9.512
92853SOL    HW280399  14.733  11.227   9.629
92854SOL     OW80400   4.545   2.222  11.281
92854SOL    HW180401   4.486   2.291  11.314
92854SOL    HW280402   4.602   2.203  11.356
92855SOL     OW80403   2.554   7.781  13.965
92855SOL    HW180404   2.643   7.748  13.980
92855SOL    HW280405   2.534   7.756  13.875
92856SOL     OW80406  13.733   7.245   1.931
92856SOL    HW180407  13.646   7.223   1.964
92856SOL    HW280408  13.729   7.340   1.917
92857SOL     OW80409   9.818   0.816   2.185
92857SOL    HW180410   9.818   0.896   2.133
92857SOL    HW280411   9.869   0.754   2.132
92858SOL     OW80412   1.974   5.884   5.687
92858SOL    HW180413   1.984   5.945   5.761
92858SOL    HW280414   1.890   5.841   5.702
92859SOL     OW80415   7.903   7.373   3.801
92859SOL    HW180416   7.832   7.430   3.833
92859SOL    HW280417   7.859   7.293   3.773
92860SOL     OW80418  14.296  14.230   3.891
92860SOL    HW180419  14.307  14.296   3.823
92860SOL    HW280420  14.222  14.178   3.862
92861SOL     OW80421  10.065   1.062   4.024
92861SOL    HW180422  10.132   1.124   3.997
92861SOL    HW280423   9.983   1.113   4.020
92862SOL     OW80424  11.083   8.136  13.341
92862SOL    HW180425  10.990   8.134  13.317
92862SOL    HW280426  11.114   8.221  13.309
92863SOL     OW80427   5.529   7.612   3.712
92863SOL    HW180428   5.490   7.548   3.653
92863SOL    HW280429   5.557   7.560   3.788
92864SOL     OW80430   6.882  11.225   2.264
92864SOL    HW180431   6.862  11.145   2.313
92864SOL    HW280432   6.863  11.202   2.173
92865SOL     OW80433   1.104  10.446  10.978
92865SOL    HW180434   1.132  10.355  10.987
92865SOL    HW280435   1.114  10.482  11.066
92866SOL     OW80436   8.275   1.133   8.674
92866SOL    HW180437   8.235   1.073   8.737
92866SOL    HW280438   8.369   1.116   8.681
92867SOL     OW80439   7.054   0.209   2.511
92867SOL    HW180440   7.047   0.163   2.428
92867SOL    HW280441   6.970   0.194   2.554
92868SOL     OW80442   1.484   1.504   0.739
92868SOL    HW180443   1.575   1.532   0.742
92868SOL    HW280444   1.441   1.568   0.681
92869SOL     OW80445   7.108   9.737  14.620
92869SOL    HW180446   7.044   9.722  14.551
92869SOL    HW280447   7.181   9.680  14.597
92870SOL     OW80448  11.558   6.724  13.187
92870SOL    HW180449  11.591   6.720  13.097
92870SOL    HW280450  11.508   6.806  13.191
92871SOL     OW80451  10.105   7.575   5.762
92871SOL    HW180452  10.138   7.500   5.811
92871SOL    HW280453  10.139   7.651   5.809
92872SOL     OW80454  14.667   7.967   0.764
92872SOL    HW180455  14.732   8.020   0.717
92872SOL    HW280456  14.588   7.973   0.711
92873SOL     OW80457   7.846  14.574  12.695
92873SOL    HW180458   7.847  14.657  12.742
92873SOL    HW280459   7.918  14.524  12.733
92874SOL     OW80460   5.224  10.126   9.325
92874SOL    HW180461   5.201  10.037   9.300
92874SOL    HW280462   5.152  10.179   9.293
92875SOL     OW80463   3.410   6.793   6.883
92875SOL    HW180464   3.505   6.798   6.887
92875SOL    HW280465   3.390   6.700   6.880
92876SOL     OW80466  11.816  13.170   7.757
92876SOL    HW180467  11.832  13.143   7.667
92876SOL    HW280468  11.731  13.133   7.779
92877SOL     OW80469   1.640   2.388  10.172
92877SOL    HW180470   1.596   2.460  10.217
92877SOL    HW280471   1.597   2.309  10.206
92878SOL     OW80472   3.523   1.252   6.909
92878SOL    HW180473   3.479   1.179   6.866
92878SOL    HW280474   3.465   1.327   6.894
92879SOL     OW80475   5.407   6.091   5.049
92879SOL    HW180476   5.338   6.035   5.084
92879SOL    HW280477   5.366   6.140   4.978
92880SOL     OW80478   4.959   0.647  10.988
92880SOL    HW180479   5.033   0.588  10.975
92880SOL    HW280480   4.999   0.732  11.007
92881SOL     OW80481  13.855  14.715  12.543
92881SOL    HW180482  13.801  14.646  12.506
92881SOL    HW280483  13.913  14.670  12.604
92882SOL     OW80484  13.625   3.142   0.261
92882SOL    HW180485  13.612   3.220   0.208
92882SOL    HW280486  13.682   3.086   0.209
92883SOL     OW80487   3.562   7.864   0.769
92883SOL    HW180488   3.620   7.807   0.820
92883SOL    HW280489   3.572   7.951   0.809
92884SOL     OW80490  14.813  14.234   3.885
92884SOL    HW180491   0.010  14.271   3.846
92884SOL    HW280492  14.777  14.178   3.816
92885SOL     OW80493   6.931   7.110   1.785
92885SOL    HW180494   6.955   7.137   1.696
92885SOL    HW280495   6.954   7.017   1.789
92886SOL     OW80496   3.619   8.309  14.240
92886SOL    HW180497   3.641   8.401  14.226
92886SOL    HW280498   3.560   8.288  14.168
92887SOL     OW80499  13.165   9.464   6.053
92887SOL    HW180500  13.222   9.495   6.123
92887SOL    HW280501  13.220   9.408   5.999
92888SOL     OW80502  11.911   9.854  10.328
92888SOL    HW180503  11.848   9.838  10.258
92888SOL    HW280504  11.892   9.943  10.358
92889SOL     OW80505  13.670   0.342  12.012
92889SOL    HW180506  13.680   0.433  11.984
92889SOL    HW280507  13.741   0.329  12.075
92890SOL     OW80508  14.113   2.945   5.233
92890SOL    HW180509  14.176   2.948   5.306
92890SOL    HW280510  14.034   2.986   5.269
92891SOL     OW80511  12.428  13.314   5.367
92891SOL    HW180512  12.401  13.393   5.321
92891SOL    HW280513  12.353  13.290   5.421
92892SOL     OW80514   9.953  14.569   6.646
92892SOL    HW180515  10.009  14.526   6.710
92892SOL    HW280516   9.952  14.510   6.570
92893SOL     OW80517  12.695   3.716  10.799
92893SOL    HW180518  12.646   3.784  10.754
92893SOL    HW280519  12.786   3.744  10.793
92894SOL     OW80520  10.069   4.864  11.352
92894SOL    HW180521  10.091   4.825  11.437
92894SOL    HW280522   9.974   4.869  11.353
92895SOL     OW80523   7.020   3.453   3.918
92895SOL    HW180524   7.074   3.440   3.996
92895SOL    HW280525   7.083   3.465   3.847
92896SOL     OW80526  10.189  11.413   7.389
92896SOL    HW180527  10.217  11.489   7.441
92896SOL    HW280528  10.211  11.436   7.299
92897SOL     OW80529   4.676   7.011   3.653
92897SOL    HW180530   4.665   6.954   3.729
92897SOL    HW280531   4.624   6.970   3.585
92898SOL     OW80532   7.770  10.544   7.492
92898SOL    HW180533   7.728  10.514   7.412
92898SOL    HW280534   7.770  10.467   7.549
92899SOL     OW80535  10.498   1.184   3.561
92899SOL    HW180536  10.508   1.108   3.504
92899SOL    HW280537  10.556   1.167   3.635
92900SOL     OW80538   8.415   3.553  14.265
92900SOL    HW180539   8.360   3.616  14.311
92900SOL    HW280540   8.439   3.597  14.183
92901SOL     OW80541   6.610   3.717   6.118
92901SOL    HW180542   6.660   3.668   6.183
92901SOL    HW280543   6.559   3.650   6.071
92902SOL     OW80544  12.826   7.143   1.582
92902SOL    HW180545  12.739   7.173   1.555
92902SOL    HW280546  12.812   7.056   1.619
92903SOL     OW80547  12.764  11.632   6.240
92903SOL    HW180548  12.768  11.726   6.224
92903SOL    HW280549  12.756  11.624   6.335
92904SOL     OW80550   7.564   3.978   6.078
92904SOL    HW180551   7.503   3.913   6.043
92904SOL    HW280552   7.639   3.927   6.108
92905SOL     OW80553   3.985   3.168   1.951
92905SOL    HW180554   3.993   3.182   2.045
92905SOL    HW280555   3.962   3.254   1.916
92906SOL     OW80556   3.694   8.463  12.176
92906SOL    HW180557   3.643   8.428  12.249
92906SOL    HW280558   3.649   8.543  12.151
92907SOL     OW80559   3.085  14.296  12.157
92907SOL    HW180560   3.165  14.255  12.189
92907SOL    HW280561   3.033  14.223  12.122
92908SOL     OW80562   2.999   6.751   5.158
92908SOL    HW180563   3.085   6.775   5.124
92908SOL    HW280564   2.992   6.657   5.141
92909SOL     OW80565   7.948  13.842   3.882
92909SOL    HW180566   7.956  13.938   3.889
92909SOL    HW280567   7.875  13.829   3.821
92910SOL     OW80568  12.532  11.232  12.088
92910SOL    HW180569  12.545  11.282  12.169
92910SOL    HW280570  12.618  11.230  12.047
92911SOL     OW80571   8.230  12.210   1.412
92911SOL    HW180572   8.142  12.237   1.385
92911SOL    HW280573   8.275  12.292   1.431
92912SOL     OW80574  14.503   1.730   4.984
92912SOL    HW180575  14.583   1.689   5.014
92912SOL    HW280576  14.433   1.680   5.026
92913SOL     OW80577  11.498   7.374   1.468
92913SOL    HW180578  11.508   7.469   1.461
92913SOL    HW280579  11.536   7.352   1.553
92914SOL     OW80580   0.924  10.568   0.086
92914SOL    HW180581   0.905  10.551   0.178
92914SOL    HW280582   0.906  10.662   0.074
92915SOL     OW80583   3.751   5.022   1.074
92915SOL    HW180584   3.668   5.055   1.109
92915SOL    HW280585   3.816   5.050   1.137
92916SOL     OW80586   1.193   4.881   5.105
92916SOL    HW180587   1.216   4.902   5.195
92916SOL    HW280588   1.098   4.890   5.102
92917SOL     OW80589  12.676   5.749   5.680
92917SOL    HW180590  12.702   5.685   5.613
92917SOL    HW280591  12.745   5.743   5.746
92918SOL     OW80592   1.770   2.828  10.634
92918SOL    HW180593   1.746   2.761  10.698
92918SOL    HW280594   1.756   2.911  10.679
92919SOL     OW80595   6.043  10.598  12.115
92919SOL    HW180596   6.038  10.562  12.204
92919SOL    HW280597   6.075  10.524  12.062
92920SOL     OW80598   1.110  13.777  10.013
92920SOL    HW180599   1.065  13.788  10.097
92920SOL    HW280600   1.043  13.740   9.955
92921SOL     OW80601   6.016   3.326   9.030
92921SOL    HW180602   5.960   3.348   9.104
92921SOL    HW280603   5.954   3.305   8.959
92922SOL     OW80604   3.591  14.533  11.912
92922SOL    HW180605   3.582  14.459  11.972
92922SOL    HW280606   3.604  14.609  11.969
92923SOL     OW80607   4.438   1.884  12.990
92923SOL    HW180608   4.450   1.960  13.047
92923SOL    HW280609   4.349   1.855  13.008
92924SOL     OW80610   6.462   3.349  12.703
92924SOL    HW180611   6.461   3.259  12.671
92924SOL    HW280612   6.370   3.371  12.719
92925SOL     OW80613   4.905   3.283  11.967
92925SOL    HW180614   4.893   3.250  12.056
92925SOL    HW280615   4.979   3.234  11.932
92926SOL     OW80616   2.192   5.745   0.794
92926SOL    HW180617   2.233   5.733   0.880
92926SOL    HW280618   2.148   5.662   0.777
92927SOL     OW80619   5.277   6.486   8.824
92927SOL    HW180620   5.303   6.499   8.733
92927SOL    HW280621   5.289   6.572   8.864
92928SOL     OW80622   9.431   3.540   1.166
92928SOL    HW180623   9.481   3.621   1.177
92928SOL    HW280624   9.340   3.570   1.158
92929SOL     OW80625   8.498   0.046   6.829
92929SOL    HW180626   8.569   0.023   6.887
92929SOL    HW280627   8.452   0.117   6.874
92930SOL     OW80628  14.502   6.300   7.804
92930SOL    HW180629  14.565   6.259   7.864
92930SOL    HW280630  14.459   6.226   7.761
92931SOL     OW80631   9.155   3.785   9.713
92931SOL    HW180632   9.072   3.823   9.745
92931SOL    HW280633   9.146   3.785   9.618
92932SOL     OW80634   9.349  10.136  11.929
92932SOL    HW180635   9.322  10.161  12.018
92932SOL    HW280636   9.443  10.121  11.936
92933SOL     OW80637   3.435  11.886  10.673
92933SOL    HW180638   3.391  11.817  10.624
92933SOL    HW280639   3.370  11.916  10.736
92934SOL     OW80640   2.128  11.213  14.610
92934SOL    HW180641   2.040  11.176  14.616
92934SOL    HW280642   2.128  11.285  14.674
92935SOL     OW80643   4.691   7.446   5.403
92935SOL    HW180644   4.680   7.534   5.439
92935SOL    HW280645   4.635   7.391   5.458
92936SOL     OW80646  12.821  14.555   7.593
92936SOL    HW180647  12.872  14.555   7.512
92936SOL    HW280648  12.855  14.481   7.644
92937SOL     OW80649   5.806   1.074   0.701
92937SOL    HW180650   5.900   1.074   0.721
92937SOL    HW280651   5.796   1.012   0.629
92938SOL     OW80652   7.343  12.789   9.913
92938SOL    HW180653   7.425  12.751   9.944
92938SOL    HW280654   7.323  12.741   9.833
92939SOL     OW80655   5.983   5.439  14.877
92939SOL    HW180656   6.009   5.391  14.798
92939SOL    HW280657   6.058   5.496   0.014
92940SOL     OW80658   3.156   2.390   7.654
92940SOL    HW180659   3.108   2.351   7.581
92940SOL    HW280660   3.245   2.355   7.646
92941SOL     OW80661   0.978   0.517   1.312
92941SOL    HW180662   0.986   0.428   1.346
92941SOL    HW280663   0.889   0.544   1.337
92942SOL     OW80664   5.188  13.673   4.909
92942SOL    HW180665   5.094  13.686   4.915
92942SOL    HW280666   5.211  13.701   4.820
92943SOL     OW80667   9.631   4.965   3.564
92943SOL    HW180668   9.722   4.943   3.547
92943SOL    HW280669   9.629   4.991   3.656
92944SOL     OW80670  13.231  12.969   9.904
92944SOL    HW180671  13.205  12.893   9.851
92944SOL    HW280672  13.190  13.043   9.860
92945SOL     OW80673   0.995   6.005   5.670
92945SOL    HW180674   1.007   5.958   5.588
92945SOL    HW280675   1.050   6.083   5.662
92946SOL     OW80676   9.120   5.703   9.237
92946SOL    HW180677   9.040   5.718   9.186
92946SOL    HW280678   9.111   5.761   9.312
92947SOL     OW80679   1.426   4.027   3.752
92947SOL    HW180680   1.508   4.057   3.711
92947SOL    HW280681   1.451   4.003   3.841
92948SOL     OW80682  10.353  10.709   4.504
92948SOL    HW180683  10.277  10.744   4.552
92948SOL    HW280684  10.315  10.661   4.431
92949SOL     OW80685  10.914  12.611   6.968
92949SOL    HW180686  10.828  12.611   6.926
92949SOL    HW280687  10.970  12.562   6.908
92950SOL     OW80688   7.786  12.248   6.882
92950SOL    HW180689   7.756  12.308   6.813
92950SOL    HW280690   7.718  12.181   6.886
92951SOL     OW80691   8.412   4.062  10.314
92951SOL    HW180692   8.338   4.000  10.314
92951SOL    HW280693   8.446   4.057  10.225
92952SOL     OW80694  13.746  13.303   9.657
92952SOL    HW180695  13.841  13.303   9.656
92952SOL    HW280696  13.720  13.235   9.596
92953SOL     OW80697   7.916  11.876   7.309
92953SOL    HW180698   7.949  11.959   7.273
92953SOL    HW280699   7.821  11.884   7.301
92954SOL     OW80700   2.000  11.485   7.300
92954SOL    HW180701   2.020  11.552   7.235
92954SOL    HW280702   2.046  11.514   7.379
92955SOL     OW80703   8.753   5.789   2.090
92955SOL    HW180704   8.816   5.829   2.029
92955SOL    HW280705   8.695   5.738   2.034
92956SOL     OW80706   1.530   9.236   5.766
92956SOL    HW180707   1.446   9.221   5.809
92956SOL    HW280708   1.590   9.257   5.837
92957SOL     OW80709   2.246  11.804   8.890
92957SOL    HW180710   2.222  11.739   8.956
92957SOL    HW280711   2.341  11.811   8.896
92958SOL     OW80712  12.131  11.913   8.731
92958SOL    HW180713  12.106  11.827   8.698
92958SOL    HW280714  12.205  11.939   8.676
92959SOL     OW80715   4.815   0.913   0.152
92959SOL    HW180716   4.852   0.825   0.153
92959SOL    HW280717   4.891   0.972   0.154
92960SOL     OW80718  10.705   9.608   1.637
92960SOL    HW180719  10.641   9.564   1.692
92960SOL    HW280720  10.790   9.576   1.669
92961SOL     OW80721   4.790   4.359  12.060
92961SOL    HW180722   4.816   4.417  12.132
92961SOL    HW280723   4.851   4.382  11.989
92962SOL     OW80724  10.850   0.350   9.580
92962SOL    HW180725  10.828   0.277   9.638
92962SOL    HW280726  10.766   0.378   9.544
92963SOL     OW80727  10.082   2.338  14.835
92963SOL    HW180728  10.063   2.258  14.785
92963SOL    HW280729  10.105   2.402  14.768
92964SOL     OW80730  12.549   2.260  13.133
92964SOL    HW180731  12.490   2.283  13.205
92964SOL    HW280732  12.571   2.168  13.148
92965SOL     OW80733   7.250   5.609   6.965
92965SOL    HW180734   7.258   5.693   7.011
92965SOL    HW280735   7.304   5.549   7.015
92966SOL     OW80736   5.354  10.869   7.594
92966SOL    HW180737   5.318  10.936   7.537
92966SOL    HW280738   5.344  10.904   7.682
92967SOL     OW80739   4.720  11.639   8.164
92967SOL    HW180740   4.688  11.728   8.179
92967SOL    HW280741   4.697  11.620   8.073
92968SOL     OW80742   6.782   0.849  12.888
92968SOL    HW180743   6.819   0.883  12.806
92968SOL    HW280744   6.719   0.782  12.861
92969SOL     OW80745   3.552   0.361  11.469
92969SOL    HW180746   3.554   0.454  11.491
92969SOL    HW280747   3.516   0.357  11.381
92970SOL     OW80748   8.832  14.365   0.748
92970SOL    HW180749   8.794  14.404   0.670
92970SOL    HW280750   8.903  14.425   0.773
92971SOL     OW80751   3.503  10.626  10.057
92971SOL    HW180752   3.528  10.682   9.983
92971SOL    HW280753   3.584  10.614  10.106
92972SOL     OW80754   4.974  12.943   1.211
92972SOL    HW180755   4.924  12.866   1.241
92972SOL    HW280756   5.004  12.984   1.292
92973SOL     OW80757   1.353  12.450  11.190
92973SOL    HW180758   1.444  12.468  11.166
92973SOL    HW280759   1.356  12.439  11.285
92974SOL     OW80760   5.131  10.048   8.735
92974SOL    HW180761   5.158  10.003   8.815
92974SOL    HW280762   5.083   9.982   8.685
92975SOL     OW80763  12.511  14.545  11.168
92975SOL    HW180764  12.473  14.632  11.169
92975SOL    HW280765  12.542  14.533  11.078
92976SOL     OW80766  10.779   8.975   3.492
92976SOL    HW180767  10.822   8.955   3.409
92976SOL    HW280768  10.822   8.917   3.556
92977SOL     OW80769   5.015   4.646  10.071
92977SOL    HW180770   4.943   4.692  10.029
92977SOL    HW280771   5.069   4.716  10.108
92978SOL     OW80772   5.807  12.660   0.693
92978SOL    HW180773   5.793  12.742   0.646
92978SOL    HW280774   5.774  12.676   0.781
92979SOL     OW80775   3.018  12.987   2.519
92979SOL    HW180776   2.966  12.908   2.504
92979SOL    HW280777   2.966  13.039   2.581
92980SOL     OW80778  10.986   4.754   5.058
92980SOL    HW180779  11.058   4.719   5.006
92980SOL    HW280780  10.996   4.715   5.144
92981SOL     OW80781   6.043  10.311   7.719
92981SOL    HW180782   6.044  10.367   7.797
92981SOL    HW280783   6.042  10.372   7.646
92982SOL     OW80784  12.797   0.970   0.701
92982SOL    HW180785  12.765   1.059   0.716
92982SOL    HW280786  12.822   0.938   0.787
92983SOL     OW80787   9.449   4.645  13.057
92983SOL    HW180788   9.499   4.669  12.980
92983SOL    HW280789   9.370   4.700  13.054
92984SOL     OW80790   0.888  12.805   5.637
92984SOL    HW180791   0.896  12.865   5.711
92984SOL    HW280792   0.810  12.834   5.591
92985SOL     OW80793   8.458   7.445   3.489
92985SOL    HW180794   8.433   7.532   3.520
92985SOL    HW280795   8.400   7.385   3.535
92986SOL     OW80796  14.775   5.508   9.128
92986SOL    HW180797  14.704   5.566   9.157
92986SOL    HW280798  14.828   5.494   9.206
92987SOL     OW80799  13.674   3.993  11.263
92987SOL    HW180800  13.709   3.999  11.174
92987SOL    HW280801  13.696   4.077  11.303
92988SOL     OW80802  13.704   0.743   6.692
92988SOL    HW180803  13.668   0.656   6.711
92988SOL    HW280804  13.690   0.754   6.598
92989SOL     OW80805   5.468  13.087  14.358
92989SOL    HW180806   5.440  13.104  14.268
92989SOL    HW280807   5.549  13.037  14.349
92990SOL     OW80808  10.711   7.328  13.001
92990SOL    HW180809  10.683   7.356  13.088
92990SOL    HW280810  10.637   7.279  12.966
92991SOL     OW80811   1.028  13.864   8.296
92991SOL    HW180812   1.049  13.916   8.219
92991SOL    HW280813   0.960  13.804   8.266
92992SOL     OW80814   5.542  10.598   9.073
92992SOL    HW180815   5.547  10.602   9.168
92992SOL    HW280816   5.545  10.505   9.052
92993SOL     OW80817  10.807  14.473  13.707
92993SOL    HW180818  10.885  14.441  13.661
92993SOL    HW280819  10.779  14.398  13.760
92994SOL     OW80820  13.490  11.587   3.499
92994SOL    HW180821  13.481  11.674   3.459
92994SOL    HW280822  13.401  11.562   3.523
92995SOL     OW80823  11.432   8.030   0.748
92995SOL    HW180824  11.406   7.978   0.673
92995SOL    HW280825  11.370   8.103   0.750
92996SOL     OW80826   8.692   1.914   3.034
92996SOL    HW180827   8.610   1.960   3.053
92996SOL    HW280828   8.747   1.931   3.111
92997SOL     OW80829  10.222  10.571   3.297
92997SOL    HW180830  10.200  10.524   3.217
92997SOL    HW280831  10.182  10.657   3.286
92998SOL     OW80832  13.514  12.873  11.186
92998SOL    HW180833  13.542  12.781  11.189
92998SOL    HW280834  13.580  12.916  11.133
92999SOL     OW80835   7.654   6.702  10.824
92999SOL    HW180836   7.709   6.661  10.890
92999SOL    HW280837   7.608   6.772  10.871
93000SOL     OW80838   5.183  11.219  10.576
93000SOL    HW180839   5.237  11.160  10.629
93000SOL    HW280840   5.172  11.174  10.493
93001SOL     OW80841   9.191  11.888   7.571
93001SOL    HW180842   9.177  11.922   7.483
93001SOL    HW280843   9.181  11.793   7.562
93002SOL     OW80844  12.204   6.466   6.463
93002SOL    HW180845  12.262   6.456   6.387
93002SOL    HW280846  12.201   6.379   6.503
93003SOL     OW80847   7.963   1.390   2.789
93003SOL    HW180848   8.050   1.388   2.751
93003SOL    HW280849   7.903   1.381   2.715
93004SOL     OW80850   3.494  13.187   1.910
93004SOL    HW180851   3.425  13.128   1.942
93004SOL    HW280852   3.496  13.259   1.973
93005SOL     OW80853   6.066   6.779   1.804
93005SOL    HW180854   6.061   6.846   1.735
93005SOL    HW280855   6.020   6.703   1.767
93006SOL     OW80856  11.594   6.883   8.934
93006SOL    HW180857  11.641   6.948   8.881
93006SOL    HW280858  11.662   6.821   8.960
93007SOL     OW80859   0.984  14.395   6.428
93007SOL    HW180860   1.064  14.420   6.474
93007SOL    HW280861   1.014  14.338   6.357
93008SOL     OW80862   2.301   5.938   0.613
93008SOL    HW180863   2.251   5.865   0.649
93008SOL    HW280864   2.378   5.944   0.669
93009SOL     OW80865  14.749  12.800   0.643
93009SOL    HW180866  14.680  12.865   0.629
93009SOL    HW280867  14.734  12.733   0.576
93010SOL     OW80868  10.786  11.328  10.072
93010SOL    HW180869  10.708  11.383  10.073
93010SOL    HW280870  10.768  11.260  10.138
93011SOL     OW80871  13.256   8.266   5.782
93011SOL    HW180872  13.248   8.174   5.756
93011SOL    HW280873  13.182   8.281   5.841
93012SOL     OW80874  11.554   3.734   0.161
93012SOL    HW180875  11.630   3.784   0.133
93012SOL    HW280876  11.556   3.654   0.108
93013SOL     OW80877   7.992   2.676   5.504
93013SOL    HW180878   8.003   2.771   5.516
93013SOL    HW280879   7.981   2.642   5.593
93014SOL     OW80880   4.678   3.473  12.448
93014SOL    HW180881   4.680   3.397  12.390
93014SOL    HW280882   4.649   3.545  12.393
93015SOL     OW80883   4.514  12.365  14.156
93015SOL    HW180884   4.420  12.375  14.164
93015SOL    HW280885   4.526  12.284  14.107
93016SOL     OW80886   1.756   4.649   9.616
93016SOL    HW180887   1.743   4.670   9.709
93016SOL    HW280888   1.678   4.682   9.573
93017SOL     OW80889  14.454   3.288  10.832
93017SOL    HW180890  14.436   3.381  10.843
93017SOL    HW280891  14.445   3.273  10.737
93018SOL     OW80892   3.075   9.561   8.122
93018SOL    HW180893   3.119   9.537   8.041
93018SOL    HW280894   3.066   9.479   8.170
93019SOL     OW80895   5.691   6.142   0.765
93019SOL    HW180896   5.601   6.120   0.741
93019SOL    HW280897   5.682   6.215   0.826
93020SOL     OW80898   9.033   8.562  13.335
93020SOL    HW180899   8.969   8.517  13.280
93020SOL    HW280900   8.998   8.650  13.346
93021SOL     OW80901   0.990  11.073   3.177
93021SOL    HW180902   1.061  11.010   3.167
93021SOL    HW280903   1.014  11.124   3.254
93022SOL     OW80904  13.638  10.152   8.303
93022SOL    HW180905  13.723  10.155   8.346
93022SOL    HW280906  13.575  10.155   8.375
93023SOL     OW80907   1.191   5.342   9.399
93023SOL    HW180908   1.238   5.409   9.449
93023SOL    HW280909   1.183   5.268   9.459
93024SOL     OW80910   7.991   1.459   3.878
93024SOL    HW180911   7.989   1.535   3.820
93024SOL    HW280912   7.970   1.494   3.965
93025SOL     OW80913  11.966  11.131   4.679
93025SOL    HW180914  11.917  11.049   4.690
93025SOL    HW280915  11.903  11.191   4.637
93026SOL     OW80916   2.827   8.354   8.394
93026SOL    HW180917   2.922   8.346   8.397
93026SOL    HW280918   2.811   8.428   8.335
93027SOL     OW80919   3.246   0.528   4.498
93027SOL    HW180920   3.156   0.539   4.470
93027SOL    HW280921   3.289   0.611   4.477
93028SOL     OW80922   5.694   4.201  12.852
93028SOL    HW180923   5.789   4.209  12.865
93028SOL    HW280924   5.672   4.275  12.795
93029SOL     OW80925   0.847   4.594  10.911
93029SOL    HW180926   0.924   4.560  10.958
93029SOL    HW280927   0.787   4.519  10.908
93030SOL     OW80928   9.453   9.854   6.182
93030SOL    HW180929   9.494   9.777   6.223
93030SOL    HW280930   9.515   9.925   6.198
93031SOL     OW80931   9.421   9.825   1.077
93031SOL    HW180932   9.440   9.918   1.063
93031SOL    HW280933   9.331   9.824   1.111
93032SOL     OW80934  14.178   4.120   9.443
93032SOL    HW180935  14.219   4.037   9.469
93032SOL    HW280936  14.154   4.107   9.351
93033SOL     OW80937   6.270   6.976   2.775
93033SOL    HW180938   6.326   6.939   2.708
93033SOL    HW280939   6.202   7.023   2.726
93034SOL     OW80940  14.116  12.132   0.927
93034SOL    HW180941  14.036  12.100   0.884
93034SOL    HW280942  14.106  12.105   1.018
93035SOL     OW80943   5.556  10.882   4.949
93035SOL    HW180944   5.646  10.867   4.978
93035SOL    HW280945   5.538  10.974   4.971
93036SOL     OW80946  12.726  10.856   3.078
93036SOL    HW180947  12.710  10.793   3.008
93036SOL    HW280948  12.674  10.824   3.152
93037SOL     OW80949  13.191  14.710  11.240
93037SOL    HW180950  13.166  14.668  11.158
93037SOL    HW280951  13.179  14.804  11.224
93038SOL     OW80952  11.857  13.122  11.618
93038SOL    HW180953  11.934  13.065  11.611
93038SOL    HW280954  11.893  13.209  11.636
93039SOL     OW80955  12.836  11.810  10.465
93039SOL    HW180956  12.848  11.727  10.418
93039SOL    HW280957  12.876  11.795  10.550
93040SOL     OW80958   5.205   5.699   5.542
93040SOL    HW180959   5.279   5.644   5.519
93040SOL    HW280960   5.136   5.637   5.566
93041SOL     OW80961  12.844  13.922   2.007
93041SOL    HW180962  12.836  13.828   1.989
93041SOL    HW280963  12.789  13.964   1.940
93042SOL     OW80964  14.122   1.496   9.499
93042SOL    HW180965  14.032   1.493   9.531
93042SOL    HW280966  14.161   1.415   9.530
93043SOL     OW80967  12.719   0.670   2.370
93043SOL    HW180968  12.749   0.760   2.383
93043SOL    HW280969  12.748   0.647   2.282
93044SOL     OW80970  14.278   3.624   9.893
93044SOL    HW180971  14.344   3.643   9.827
93044SOL    HW280972  14.289   3.692   9.959
93045SOL     OW80973   0.710   0.867   4.603
93045SOL    HW180974   0.726   0.798   4.539
93045SOL    HW280975   0.695   0.945   4.550
93046SOL     OW80976   0.445   5.494   0.322
93046SOL    HW180977   0.402   5.482   0.238
93046SOL    HW280978   0.415   5.580   0.351
93047SOL     OW80979   1.020   5.877  14.810
93047SOL    HW180980   1.035   5.966  14.843
93047SOL    HW280981   1.089   5.864  14.745
93048SOL     OW80982   1.063  14.029   0.315
93048SOL    HW180983   1.102  14.078   0.388
93048SOL    HW280984   1.017  13.956   0.356
93049SOL     OW80985   5.251   9.903   4.408
93049SOL    HW180986   5.302   9.981   4.386
93049SOL    HW280987   5.206   9.880   4.327
93050SOL     OW80988   9.068   3.728   4.119
93050SOL    HW180989   9.022   3.774   4.189
93050SOL    HW280990   9.044   3.636   4.131
93051SOL     OW80991   0.372   1.912   6.703
93051SOL    HW180992   0.437   1.915   6.632
93051SOL    HW280993   0.403   1.842   6.760
93052SOL     OW80994   8.487  12.497   9.478
93052SOL    HW180995   8.514  12.488   9.387
93052SOL    HW280996   8.557  12.547   9.519
93053SOL     OW80997   8.455   8.275   7.695
93053SOL    HW180998   8.522   8.238   7.637
93053SOL    HW280999   8.480   8.367   7.705
93054SOL     OW81000  10.461   3.084   2.371
93054SOL    HW181001  10.430   3.155   2.315
93054SOL    HW281002  10.394   3.017   2.364
93055SOL     OW81003   2.060  14.717   0.415
93055SOL    HW181004   2.087  14.626   0.404
93055SOL    HW281005   2.003  14.717   0.492
93056SOL     OW81006  14.635   9.795   4.336
93056SOL    HW181007  14.680   9.717   4.368
93056SOL    HW281008  14.574   9.818   4.405
93057SOL     OW81009  10.801   1.562  12.214
93057SOL    HW181010  10.734   1.513  12.166
93057SOL    HW281011  10.775   1.654  12.207
93058SOL     OW81012   6.255   8.461  12.739
93058SOL    HW181013   6.186   8.409  12.780
93058SOL    HW281014   6.216   8.492  12.657
93059SOL     OW81015  10.174  14.545  13.578
93059SOL    HW181016  10.167  14.638  13.599
93059SOL    HW281017  10.105  14.529  13.514
93060SOL     OW81018   2.201   9.029  13.189
93060SOL    HW181019   2.282   9.075  13.210
93060SOL    HW281020   2.219   8.937  13.209
93061SOL     OW81021  14.042   7.202   4.514
93061SOL    HW181022  14.070   7.127   4.567
93061SOL    HW281023  13.977   7.165   4.454
93062SOL     OW81024   9.901   8.004   2.416
93062SOL    HW181025   9.877   8.049   2.497
93062SOL    HW281026   9.953   7.929   2.446
93063SOL     OW81027  10.414  11.141  12.007
93063SOL    HW181028  10.502  11.110  12.028
93063SOL    HW281029  10.389  11.089  11.930
93064SOL     OW81030  10.538  13.786  12.126
93064SOL    HW181031  10.504  13.869  12.093
93064SOL    HW281032  10.597  13.755  12.058
93065SOL     OW81033  13.381  10.646   0.404
93065SOL    HW181034  13.316  10.706   0.440
93065SOL    HW281035  13.450  10.702   0.370
93066SOL     OW81036   8.478  14.864   1.718
93066SOL    HW181037   8.475  14.860   1.814
93066SOL    HW281038   8.526   0.063   1.699
93067SOL     OW81039   8.548  11.435   9.447
93067SOL    HW181040   8.500  11.444   9.364
93067SOL    HW281041   8.575  11.343   9.449
93068SOL     OW81042   1.829   4.238  14.460
93068SOL    HW181043   1.742   4.278  14.472
93068SOL    HW281044   1.833   4.217  14.367
93069SOL     OW81045  14.620   3.010  10.923
93069SOL    HW181046  14.564   2.934  10.907
93069SOL    HW281047  14.561   3.085  10.911
93070SOL     OW81048  12.047   4.545   4.129
93070SOL    HW181049  12.125   4.542   4.184
93070SOL    HW281050  12.004   4.627   4.153
93071SOL     OW81051  14.424   5.315  10.583
93071SOL    HW181052  14.428   5.244  10.647
93071SOL    HW281053  14.412   5.394  10.636
93072SOL     OW81054   6.957   4.520   4.335
93072SOL    HW181055   7.047   4.540   4.359
93072SOL    HW281056   6.964   4.461   4.260
93073SOL     OW81057  14.685  14.020   9.116
93073SOL    HW181058  14.633  14.073   9.176
93073SOL    HW281059  14.621  13.969   9.068
93074SOL     OW81060  12.747  11.947   5.071
93074SOL    HW181061  12.658  11.958   5.105
93074SOL    HW281062  12.801  11.939   5.149
93075SOL     OW81063   0.894   1.567   1.753
93075SOL    HW181064   0.911   1.583   1.845
93075SOL    HW281065   0.976   1.531   1.719
93076SOL     OW81066   3.330   6.641   2.942
93076SOL    HW181067   3.272   6.624   2.867
93076SOL    HW281068   3.294   6.590   3.013
93077SOL     OW81069   6.572   7.052   5.203
93077SOL    HW181070   6.486   7.095   5.209
93077SOL    HW281071   6.635   7.124   5.209
93078SOL     OW81072   8.827  10.625   3.406
93078SOL    HW181073   8.746  10.651   3.450
93078SOL    HW281074   8.815  10.655   3.316
93079SOL     OW81075   2.794  11.459   0.361
93079SOL    HW181076   2.714  11.450   0.309
93079SOL    HW281077   2.820  11.370   0.381
93080SOL     OW81078  13.853   7.069   8.505
93080SOL    HW181079  13.928   7.076   8.446
93080SOL    HW281080  13.878   7.121   8.582
93081SOL     OW81081   3.180   5.075  13.466
93081SOL    HW181082   3.230   5.057  13.386
93081SOL    HW281083   3.089   5.074  13.438
93082SOL     OW81084   9.276   4.938  12.652
93082SOL    HW181085   9.349   4.903  12.601
93082SOL    HW281086   9.253   4.868  12.713
93083SOL     OW81087  10.716  10.929  11.150
93083SOL    HW181088  10.636  10.922  11.202
93083SOL    HW281089  10.692  10.984  11.075
93084SOL     OW81090   7.733  11.289  10.640
93084SOL    HW181091   7.725  11.209  10.588
93084SOL    HW281092   7.732  11.360  10.577
93085SOL     OW81093   6.693  11.509  13.625
93085SOL    HW181094   6.719  11.499  13.717
93085SOL    HW281095   6.653  11.426  13.602
93086SOL     OW81096  12.739   5.054  14.151
93086SOL    HW181097  12.715   5.138  14.190
93086SOL    HW281098  12.656   5.006  14.145
93087SOL     OW81099   5.157   9.435  10.669
93087SOL    HW181100   5.230   9.373  10.674
93087SOL    HW281101   5.171   9.483  10.588
93088SOL     OW81102  12.591  12.095  10.745
93088SOL    HW181103  12.682  12.096  10.773
93088SOL    HW281104  12.563  12.004  10.755
93089SOL     OW81105   1.655  14.256   1.598
93089SOL    HW181106   1.712  14.319   1.554
93089SOL    HW281107   1.696  14.171   1.585
93090SOL     OW81108   5.922   5.437   0.256
93090SOL    HW181109   5.831   5.411   0.242
93090SOL    HW281110   5.968   5.404   0.179
93091SOL     OW81111   1.948   7.539   5.449
93091SOL    HW181112   1.926   7.625   5.413
93091SOL    HW281113   2.040   7.545   5.474
93092SOL     OW81114   4.414  14.215   4.563
93092SOL    HW181115   4.483  14.181   4.619
93092SOL    HW281116   4.410  14.155   4.489
93093SOL     OW81117  13.392   6.960  14.839
93093SOL    HW181118  13.394   6.944  14.745
93093SOL    HW281119  13.406   6.874  14.879
93094SOL     OW81120   6.486  13.038   0.230
93094SOL    HW181121   6.491  13.012   0.322
93094SOL    HW281122   6.465  12.957   0.183
93095SOL     OW81123   0.153   7.669   9.861
93095SOL    HW181124   0.150   7.739   9.796
93095SOL    HW281125   0.170   7.590   9.809
93096SOL     OW81126   7.588  12.444   9.868
93096SOL    HW181127   7.648  12.389   9.919
93096SOL    HW281128   7.563  12.389   9.794
93097SOL     OW81129   1.423   3.245   6.996
93097SOL    HW181130   1.400   3.152   6.995
93097SOL    HW281131   1.362   3.286   6.935
93098SOL     OW81132  14.736   1.679   3.585
93098SOL    HW181133  14.683   1.758   3.596
93098SOL    HW281134  14.780   1.668   3.669
93099SOL     OW81135   1.503  14.201   3.551
93099SOL    HW181136   1.545  14.278   3.513
93099SOL    HW281137   1.466  14.155   3.476
93100SOL     OW81138   2.035  13.530   1.099
93100SOL    HW181139   2.100  13.533   1.029
93100SOL    HW281140   1.989  13.447   1.085
93101SOL     OW81141   7.434   2.251   0.764
93101SOL    HW181142   7.477   2.166   0.770
93101SOL    HW281143   7.476   2.295   0.690
93102SOL     OW81144  13.227  14.136  14.767
93102SOL    HW181145  13.132  14.143  14.755
93102SOL    HW281146  13.255  14.225  14.784
93103SOL     OW81147   2.392  11.366   1.016
93103SOL    HW181148   2.361  11.278   0.999
93103SOL    HW281149   2.385  11.376   1.111
93104SOL     OW81150   2.529  11.070  10.918
93104SOL    HW181151   2.436  11.083  10.897
93104SOL    HW281152   2.550  10.984  10.880
93105SOL     OW81153  12.177  14.598   4.832
93105SOL    HW181154  12.244  14.654   4.872
93105SOL    HW281155  12.098  14.652   4.833
93106SOL     OW81156   4.261   9.894   0.595
93106SOL    HW181157   4.240   9.853   0.511
93106SOL    HW281158   4.328   9.836   0.633
93107SOL     OW81159   9.517   6.142   4.359
93107SOL    HW181160   9.507   6.059   4.312
93107SOL    HW281161   9.504   6.119   4.451
93108SOL     OW81162   9.969  11.401  12.784
93108SOL    HW181163   9.992  11.365  12.699
93108SOL    HW281164  10.052  11.429  12.822
93109SOL     OW81165  10.563   5.723   0.399
93109SOL    HW181166  10.472   5.696   0.386
93109SOL    HW281167  10.558   5.817   0.417
93110SOL     OW81168   6.310   1.437   5.229
93110SOL    HW181169   6.216   1.428   5.240
93110SOL    HW281170   6.342   1.347   5.216
93111SOL     OW81171   9.392   5.746   0.540
93111SOL    HW181172   9.372   5.736   0.447
93111SOL    HW281173   9.314   5.713   0.585
93112SOL     OW81174   0.279   9.519   2.641
93112SOL    HW181175   0.348   9.519   2.575
93112SOL    HW281176   0.259   9.427   2.656
93113SOL     OW81177  11.131   4.164   0.338
93113SOL    HW181178  11.052   4.190   0.292
93113SOL    HW281179  11.191   4.136   0.269
93114SOL     OW81180   9.102  11.496  13.121
93114SOL    HW181181   9.172  11.430  13.120
93114SOL    HW281182   9.148  11.580  13.121
93115SOL     OW81183   0.914   3.291  12.092
93115SOL    HW181184   0.994   3.343  12.099
93115SOL    HW281185   0.847   3.354  12.066
93116SOL     OW81186  12.200  12.598   4.996
93116SOL    HW181187  12.245  12.650   4.930
93116SOL    HW281188  12.137  12.659   5.037
93117SOL     OW81189   2.552   3.114  11.533
93117SOL    HW181190   2.526   3.076  11.617
93117SOL    HW281191   2.471   3.153  11.498
93118SOL     OW81192  13.123   5.958   1.157
93118SOL    HW181193  13.129   5.975   1.251
93118SOL    HW281194  13.170   5.876   1.145
93119SOL     OW81195  14.196   7.806   3.792
93119SOL    HW181196  14.169   7.878   3.736
93119SOL    HW281197  14.230   7.848   3.871
93120SOL     OW81198   8.132   8.221   9.409
93120SOL    HW181199   8.101   8.203   9.497
93120SOL    HW281200   8.193   8.150   9.390
93121SOL     OW81201  14.063   1.054   8.090
93121SOL    HW181202  14.068   1.148   8.107
93121SOL    HW281203  14.012   1.046   8.010
93122SOL     OW81204  12.714   9.792  13.369
93122SOL    HW181205  12.656   9.817  13.298
93122SOL    HW281206  12.663   9.808  13.449
93123SOL     OW81207  14.708   4.070   5.708
93123SOL    HW181208  14.621   4.037   5.733
93123SOL    HW281209  14.763   3.992   5.707
93124SOL     OW81210   7.238  13.477  11.442
93124SOL    HW181211   7.169  13.538  11.465
93124SOL    HW281212   7.319  13.528  11.445
93125SOL     OW81213   6.245  12.669   8.232
93125SOL    HW181214   6.178  12.732   8.260
93125SOL    HW281215   6.324  12.697   8.278
93126SOL     OW81216   4.999  10.879   6.191
93126SOL    HW181217   5.084  10.887   6.146
93126SOL    HW281218   5.007  10.936   6.267
93127SOL     OW81219  14.329   7.894  11.955
93127SOL    HW181220  14.310   7.920  11.865
93127SOL    HW281221  14.368   7.807  11.948
93128SOL     OW81222   6.081   5.508  13.139
93128SOL    HW181223   6.100   5.592  13.183
93128SOL    HW281224   6.023   5.462  13.200
93129SOL     OW81225   3.704   3.514   2.390
93129SOL    HW181226   3.800   3.510   2.383
93129SOL    HW281227   3.674   3.440   2.338
93130SOL     OW81228   1.686   5.253   3.619
93130SOL    HW181229   1.779   5.248   3.597
93130SOL    HW281230   1.676   5.338   3.663
93131SOL     OW81231   5.427   4.137  12.226
93131SOL    HW181232   5.334   4.159  12.234
93131SOL    HW281233   5.471   4.222  12.216
93132SOL     OW81234   9.239  10.890   5.542
93132SOL    HW181235   9.266  10.841   5.465
93132SOL    HW281236   9.320  10.913   5.587
93133SOL     OW81237  14.556  14.241   0.364
93133SOL    HW181238  14.527  14.324   0.402
93133SOL    HW281239  14.494  14.224   0.293
93134SOL     OW81240   5.139   5.966   8.389
93134SOL    HW181241   5.093   5.899   8.437
93134SOL    HW281242   5.074   6.002   8.329
93135SOL     OW81243   4.049  11.274  13.538
93135SOL    HW181244   4.068  11.219  13.462
93135SOL    HW281245   4.082  11.360  13.513
93136SOL     OW81246   9.085   0.812  10.624
93136SOL    HW181247   9.119   0.822  10.535
93136SOL    HW281248   8.994   0.785  10.611
93137SOL     OW81249  11.396   8.279   6.178
93137SOL    HW181250  11.326   8.343   6.178
93137SOL    HW281251  11.371   8.215   6.111
93138SOL     OW81252  13.415   9.809  12.718
93138SOL    HW181253  13.360   9.730  12.721
93138SOL    HW281254  13.447   9.819  12.808
93139SOL     OW81255  11.879  10.852   9.249
93139SOL    HW181256  11.805  10.900   9.211
93139SOL    HW281257  11.956  10.900   9.220
93140SOL     OW81258   6.954   8.862   7.045
93140SOL    HW181259   6.953   8.949   7.084
93140SOL    HW281260   6.862   8.833   7.048
93141SOL     OW81261  14.850   5.161   5.934
93141SOL    HW181262  14.868   5.254   5.918
93141SOL    HW281263   0.003   5.145   6.022
93142SOL     OW81264   8.173   6.672   9.617
93142SOL    HW181265   8.268   6.679   9.610
93142SOL    HW281266   8.154   6.581   9.593
93143SOL     OW81267   9.660  10.609   6.985
93143SOL    HW181268   9.748  10.641   7.004
93143SOL    HW281269   9.655  10.524   7.030
93144SOL     OW81270   4.179  11.225  12.760
93144SOL    HW181271   4.184  11.207  12.667
93144SOL    HW281272   4.267  11.204  12.793
93145SOL     OW81273  10.534  11.229  12.942
93145SOL    HW181274  10.512  11.214  12.851
93145SOL    HW281275  10.541  11.142  12.981
93146SOL     OW81276  12.342  11.274   2.204
93146SOL    HW181277  12.325  11.187   2.240
93146SOL    HW281278  12.427  11.266   2.160
93147SOL     OW81279   3.652   4.194   5.273
93147SOL    HW181280   3.743   4.168   5.263
93147SOL    HW281281   3.619   4.201   5.183
93148SOL     OW81282   5.337   2.755   4.210
93148SOL    HW181283   5.378   2.797   4.286
93148SOL    HW281284   5.357   2.812   4.137
93149SOL     OW81285  10.104   6.602   6.125
93149SOL    HW181286  10.052   6.523   6.109
93149SOL    HW281287  10.130   6.594   6.217
93150SOL     OW81288   6.100   5.039  12.041
93150SOL    HW181289   6.112   4.969  11.978
93150SOL    HW281290   6.157   5.015  12.114
93151SOL     OW81291   7.176  11.334   2.176
93151SOL    HW181292   7.088  11.368   2.190
93151SOL    HW281293   7.171  11.287   2.092
93152SOL     OW81294   0.180   1.873   8.122
93152SOL    HW181295   0.120   1.857   8.195
93152SOL    HW281296   0.265   1.843   8.153
93153SOL     OW81297   5.514  13.648   4.673
93153SOL    HW181298   5.607  13.632   4.686
93153SOL    HW281299   5.492  13.601   4.592
93154SOL     OW81300   0.781  14.873   1.372
93154SOL    HW181301   0.744  14.822   1.300
93154SOL    HW281302   0.845  14.815   1.412
93155SOL     OW81303   2.800   8.478   9.965
93155SOL    HW181304   2.759   8.434  10.040
93155SOL    HW281305   2.818   8.567   9.996
93156SOL     OW81306   3.569  14.042  10.728
93156SOL    HW181307   3.532  14.004  10.808
93156SOL    HW281308   3.497  14.092  10.690
93157SOL     OW81309   3.396   2.679   1.118
93157SOL    HW181310   3.344   2.631   1.182
93157SOL    HW281311   3.332   2.711   1.054
93158SOL     OW81312   5.258   5.175   7.635
93158SOL    HW181313   5.204   5.144   7.707
93158SOL    HW281314   5.331   5.221   7.677
93159SOL     OW81315  11.197   4.581  10.043
93159SOL    HW181316  11.253   4.577   9.965
93159SOL    HW281317  11.231   4.512  10.100
93160SOL     OW81318   4.176   8.888   7.755
93160SOL    HW181319   4.155   8.902   7.663
93160SOL    HW281320   4.261   8.929   7.767
93161SOL     OW81321   0.300   1.229   9.060
93161SOL    HW181322   0.280   1.288   8.987
93161SOL    HW281323   0.285   1.281   9.139
93162SOL     OW81324   7.714   5.356   9.754
93162SOL    HW181325   7.760   5.395   9.829
93162SOL    HW281326   7.760   5.391   9.677
93163SOL     OW81327   6.127   1.320   2.229
93163SOL    HW181328   6.046   1.361   2.199
93163SOL    HW281329   6.109   1.297   2.321
93164SOL     OW81330   0.929  12.681   2.279
93164SOL    HW181331   0.936  12.646   2.368
93164SOL    HW281332   1.016  12.668   2.241
93165SOL     OW81333   5.233   3.360  11.687
93165SOL    HW181334   5.254   3.293  11.752
93165SOL    HW281335   5.160   3.408  11.725
93166SOL     OW81336   2.625   0.355   4.288
93166SOL    HW181337   2.697   0.408   4.322
93166SOL    HW281338   2.595   0.304   4.363
93167SOL     OW81339   1.851   8.831   3.871
93167SOL    HW181340   1.769   8.784   3.857
93167SOL    HW281341   1.853   8.849   3.965
93168SOL     OW81342   4.340   0.861  14.851
93168SOL    HW181343   4.407   0.842  14.785
93168SOL    HW281344   4.378   0.830   0.051
93169SOL     OW81345  11.366   9.620   2.803
93169SOL    HW181346  11.411   9.676   2.866
93169SOL    HW281347  11.401   9.532   2.820
93170SOL     OW81348   0.648   7.787  12.985
93170SOL    HW181349   0.605   7.701  12.984
93170SOL    HW281350   0.740   7.768  12.964
93171SOL     OW81351   9.309  10.784   4.068
93171SOL    HW181352   9.364  10.812   3.995
93171SOL    HW281353   9.314  10.689   4.067
93172SOL     OW81354  11.126  12.022  11.863
93172SOL    HW181355  11.080  12.012  11.779
93172SOL    HW281356  11.057  12.046  11.925
93173SOL     OW81357   5.542   2.614  10.696
93173SOL    HW181358   5.605   2.605  10.768
93173SOL    HW281359   5.495   2.531  10.695
93174SOL     OW81360   8.333   4.579  13.201
93174SOL    HW181361   8.396   4.587  13.273
93174SOL    HW281362   8.254   4.543  13.243
93175SOL     OW81363  10.528  11.614   6.679
93175SOL    HW181364  10.473  11.679   6.636
93175SOL    HW281365  10.591  11.666   6.729
93176SOL     OW81366  13.866   0.675   5.038
93176SOL    HW181367  13.782   0.706   5.004
93176SOL    HW281368  13.867   0.704   5.129
93177SOL     OW81369   4.875  11.632   9.027
93177SOL    HW181370   4.953  11.578   9.034
93177SOL    HW281371   4.807  11.582   9.072
93178SOL     OW81372  11.728   8.861   4.501
93178SOL    HW181373  11.672   8.912   4.559
93178SOL    HW281374  11.815   8.865   4.541
93179SOL     OW81375   1.091  14.244   3.795
93179SOL    HW181376   1.080  14.152   3.771
93179SOL    HW281377   1.185  14.256   3.804
93180SOL     OW81378  10.340  13.957  12.534
93180SOL    HW181379  10.283  13.962  12.611
93180SOL    HW281380  10.389  13.875  12.546
93181SOL     OW81381   4.462   9.266   1.984
93181SOL    HW181382   4.438   9.260   1.892
93181SOL    HW281383   4.515   9.189   2.000
93182SOL     OW81384   2.068   6.467  14.779
93182SOL    HW181385   2.054   6.525  14.705
93182SOL    HW281386   2.049   6.521  14.856
93183SOL     OW81387  14.313   5.132   3.221
93183SOL    HW181388  14.249   5.203   3.221
93183SOL    HW281389  14.307   5.095   3.309
93184SOL     OW81390   3.141   4.068  14.415
93184SOL    HW181391   3.216   4.014  14.439
93184SOL    HW281392   3.094   4.082  14.497
93185SOL     OW81393   1.980  11.437   9.563
93185SOL    HW181394   2.029  11.470   9.638
93185SOL    HW281395   2.043  11.437   9.491
93186SOL     OW81396   1.882   2.793   6.747
93186SOL    HW181397   1.809   2.782   6.807
93186SOL    HW281398   1.857   2.867   6.691
93187SOL     OW81399  14.052   0.949  13.526
93187SOL    HW181400  14.016   0.871  13.568
93187SOL    HW281401  14.107   0.915  13.456
93188SOL     OW81402   0.127  14.321  12.709
93188SOL    HW181403   0.038  14.324  12.744
93188SOL    HW281404   0.183  14.310  12.785
93189SOL     OW81405  14.057   6.004   9.330
93189SOL    HW181406  14.084   5.920   9.294
93189SOL    HW281407  14.058   6.064   9.255
93190SOL     OW81408  11.266   2.449   1.081
93190SOL    HW181409  11.353   2.424   1.051
93190SOL    HW281410  11.282   2.507   1.155
93191SOL     OW81411   0.947  14.568  12.723
93191SOL    HW181412   0.910  14.566  12.812
93191SOL    HW281413   0.974  14.658  12.710
93192SOL     OW81414   5.677   9.129   4.992
93192SOL    HW181415   5.659   9.037   4.972
93192SOL    HW281416   5.716   9.128   5.079
93193SOL     OW81417   1.937   0.151  10.453
93193SOL    HW181418   1.876   0.109  10.513
93193SOL    HW281419   2.020   0.104  10.466
93194SOL     OW81420   0.297   9.394  11.744
93194SOL    HW181421   0.207   9.386  11.775
93194SOL    HW281422   0.330   9.304  11.742
93195SOL     OW81423   0.249   7.301   2.856
93195SOL    HW181424   0.237   7.348   2.773
93195SOL    HW281425   0.189   7.226   2.850
93196SOL     OW81426  10.560   3.899   7.430
93196SOL    HW181427  10.575   3.918   7.523
93196SOL    HW281428  10.494   3.830   7.431
93197SOL     OW81429   7.473   4.465   7.265
93197SOL    HW181430   7.513   4.412   7.196
93197SOL    HW281431   7.493   4.418   7.346
93198SOL     OW81432  10.660   4.113  10.179
93198SOL    HW181433  10.566   4.105  10.161
93198SOL    HW281434  10.700   4.036  10.139
93199SOL     OW81435   9.434  11.558   3.985
93199SOL    HW181436   9.453  11.618   3.913
93199SOL    HW281437   9.519  11.540   4.024
93200SOL     OW81438  12.531   9.676   7.083
93200SOL    HW181439  12.532   9.743   7.015
93200SOL    HW281440  12.492   9.719   7.159
93201SOL     OW81441  12.114  12.992  11.573
93201SOL    HW181442  12.115  13.037  11.489
93201SOL    HW281443  12.088  12.902  11.551
93202SOL     OW81444   9.963   5.613   6.047
93202SOL    HW181445   9.941   5.526   6.013
93202SOL    HW281446   9.947   5.672   5.974
93203SOL     OW81447   3.728   5.462   8.840
93203SOL    HW181448   3.686   5.537   8.798
93203SOL    HW281449   3.714   5.477   8.934
93204SOL     OW81450   4.515  11.112  13.789
93204SOL    HW181451   4.478  11.119  13.877
93204SOL    HW281452   4.439  11.104  13.732
93205SOL     OW81453  11.853   6.613  10.394
93205SOL    HW181454  11.760   6.625  10.414
93205SOL    HW281455  11.899   6.651  10.469
93206SOL     OW81456   6.019  13.430   3.965
93206SOL    HW181457   5.932  13.447   3.930
93206SOL    HW281458   6.075  13.495   3.922
93207SOL     OW81459  10.964   4.341   2.096
93207SOL    HW181460  10.988   4.269   2.037
93207SOL    HW281461  11.034   4.405   2.086
93208SOL     OW81462  12.535  11.741   9.090
93208SOL    HW181463  12.447  11.757   9.056
93208SOL    HW281464  12.589  11.730   9.013
93209SOL     OW81465   3.597   7.897   7.371
93209SOL    HW181466   3.586   7.868   7.461
93209SOL    HW281467   3.618   7.817   7.323
93210SOL     OW81468  14.514  11.106  10.289
93210SOL    HW181469  14.535  11.043  10.358
93210SOL    HW281470  14.528  11.058  10.208
93211SOL     OW81471  11.148  13.425   5.610
93211SOL    HW181472  11.142  13.499   5.549
93211SOL    HW281473  11.235  13.388   5.594
93212SOL     OW81474  11.338  14.350   3.464
93212SOL    HW181475  11.404  14.419   3.465
93212SOL    HW281476  11.379  14.278   3.512
93213SOL     OW81477   2.340  14.092  11.453
93213SOL    HW181478   2.253  14.089  11.493
93213SOL    HW281479   2.342  14.015  11.395
93214SOL     OW81480  14.035  14.875   2.467
93214SOL    HW181481  14.084  14.881   2.549
93214SOL    HW281482  14.101  14.879   2.398
93215SOL     OW81483   4.746  10.832   6.451
93215SOL    HW181484   4.838  10.858   6.456
93215SOL    HW281485   4.697  10.907   6.484
93216SOL     OW81486  11.149  12.850   2.556
93216SOL    HW181487  11.130  12.756   2.565
93216SOL    HW281488  11.211  12.869   2.626
93217SOL     OW81489   5.061   4.782   6.543
93217SOL    HW181490   5.033   4.692   6.526
93217SOL    HW281491   5.138   4.773   6.599
93218SOL     OW81492   0.468   3.013  10.031
93218SOL    HW181493   0.492   3.103  10.053
93218SOL    HW281494   0.484   2.964  10.111
93219SOL     OW81495   9.956  14.818   9.719
93219SOL    HW181496   9.915  14.743   9.762
93219SOL    HW281497   9.895   0.009   9.734
93220SOL     OW81498   8.768  10.406  12.539
93220SOL    HW181499   8.680  10.413  12.502
93220SOL    HW281500   8.814  10.482  12.505
93221SOL     OW81501   4.795  12.086  12.202
93221SOL    HW181502   4.715  12.045  12.238
93221SOL    HW281503   4.799  12.171  12.245
93222SOL     OW81504   9.695   7.890   7.975
93222SOL    HW181505   9.705   7.982   7.951
93222SOL    HW281506   9.620   7.889   8.035
93223SOL     OW81507   7.698   8.293   8.110
93223SOL    HW181508   7.702   8.366   8.171
93223SOL    HW281509   7.639   8.230   8.151
93224SOL     OW81510   0.504   9.803   4.033
93224SOL    HW181511   0.496   9.899   4.034
93224SOL    HW281512   0.598   9.787   4.038
93225SOL     OW81513   3.616   2.776   6.165
93225SOL    HW181514   3.569   2.790   6.247
93225SOL    HW281515   3.655   2.861   6.145
93226SOL     OW81516  11.231  11.976   4.308
93226SOL    HW181517  11.153  12.013   4.267
93226SOL    HW281518  11.304  12.027   4.274
93227SOL     OW81519   1.880   7.007  13.966
93227SOL    HW181520   1.928   7.043  14.040
93227SOL    HW281521   1.799   7.058  13.963
93228SOL     OW81522  11.338   9.865   2.671
93228SOL    HW181523  11.339   9.776   2.706
93228SOL    HW281524  11.427   9.878   2.638
93229SOL     OW81525   0.512   6.042  12.072
93229SOL    HW181526   0.512   5.949  12.048
93229SOL    HW281527   0.557   6.045  12.156
93230SOL     OW81528  14.039  11.128   8.410
93230SOL    HW181529  14.122  11.176   8.405
93230SOL    HW281530  13.992  11.151   8.330
93231SOL     OW81531   9.490  12.960  12.681
93231SOL    HW181532   9.457  12.993  12.597
93231SOL    HW281533   9.456  12.871  12.686
93232SOL     OW81534  11.467   7.726   4.113
93232SOL    HW181535  11.438   7.801   4.166
93232SOL    HW281536  11.407   7.656   4.138
93233SOL     OW81537   2.900   4.401   9.048
93233SOL    HW181538   2.990   4.371   9.058
93233SOL    HW281539   2.889   4.413   8.954
93234SOL     OW81540   2.457  12.238  12.821
93234SOL    HW181541   2.385  12.279  12.773
93234SOL    HW281542   2.521  12.217  12.753
93235SOL     OW81543   6.094   4.044  13.562
93235SOL    HW181544   6.177   4.026  13.517
93235SOL    HW281545   6.048   3.960  13.560
93236SOL     OW81546   0.472  14.141  14.709
93236SOL    HW181547   0.538  14.202  14.742
93236SOL    HW281548   0.401  14.198  14.678
93237SOL     OW81549   6.449   7.928   2.673
93237SOL    HW181550   6.354   7.935   2.674
93237SOL    HW281551   6.468   7.864   2.605
93238SOL     OW81552   3.633   1.463  11.426
93238SOL    HW181553   3.622   1.464  11.521
93238SOL    HW281554   3.614   1.374  11.400
93239SOL     OW81555   1.630   6.645  14.012
93239SOL    HW181556   1.604   6.652  13.920
93239SOL    HW281557   1.575   6.575  14.046
93240SOL     OW81558   1.291   5.002  13.024
93240SOL    HW181559   1.207   4.963  13.050
93240SOL    HW281560   1.344   4.997  13.103
93241SOL     OW81561  14.407   2.460   0.484
93241SOL    HW181562  14.372   2.394   0.425
93241SOL    HW281563  14.353   2.538   0.469
93242SOL     OW81564  13.351   3.658  12.881
93242SOL    HW181565  13.408   3.637  12.808
93242SOL    HW281566  13.376   3.597  12.950
93243SOL     OW81567  14.234  10.765   8.025
93243SOL    HW181568  14.320  10.787   8.061
93243SOL    HW281569  14.244  10.780   7.930
93244SOL     OW81570   5.443   6.571  14.294
93244SOL    HW181571   5.397   6.582  14.211
93244SOL    HW281572   5.445   6.659  14.332
93245SOL     OW81573   4.477  14.375   1.997
93245SOL    HW181574   4.418  14.395   2.069
93245SOL    HW281575   4.503  14.460   1.962
93246SOL     OW81576   4.117  11.507  14.489
93246SOL    HW181577   4.152  11.567  14.423
93246SOL    HW281578   4.089  11.430  14.440
93247SOL     OW81579   0.717  10.532  10.121
93247SOL    HW181580   0.766  10.484  10.054
93247SOL    HW281581   0.627  10.498  10.114
93248SOL     OW81582  12.181   2.338   6.256
93248SOL    HW181583  12.200   2.427   6.226
93248SOL    HW281584  12.223   2.282   6.191
93249SOL     OW81585   5.062   9.006  12.424
93249SOL    HW181586   4.972   9.015  12.457
93249SOL    HW281587   5.102   8.941  12.481
93250SOL     OW81588  12.994  10.577   6.233
93250SOL    HW181589  12.917  10.619   6.272
93250SOL    HW281590  13.066  10.638   6.252
93251SOL     OW81591   7.247   8.027   4.293
93251SOL    HW181592   7.152   8.036   4.292
93251SOL    HW281593   7.279   8.117   4.292
93252SOL     OW81594   7.476  14.264  13.599
93252SOL    HW181595   7.433  14.258  13.513
93252SOL    HW281596   7.445  14.348  13.634
93253SOL     OW81597  12.658  14.210  12.450
93253SOL    HW181598  12.608  14.133  12.475
93253SOL    HW281599  12.633  14.277  12.513
93254SOL     OW81600  12.019   5.925  13.146
93254SOL    HW181601  11.943   5.906  13.199
93254SOL    HW281602  12.093   5.924  13.207
93255SOL     OW81603  13.893  14.600   3.094
93255SOL    HW181604  13.839  14.659   3.040
93255SOL    HW281605  13.875  14.626   3.184
93256SOL     OW81606   8.891   1.615   1.626
93256SOL    HW181607   8.978   1.648   1.602
93256SOL    HW281608   8.904   1.575   1.712
93257SOL     OW81609   6.289   9.902   3.551
93257SOL    HW181610   6.245   9.867   3.629
93257SOL    HW281611   6.243   9.983   3.531
93258SOL     OW81612   8.877   7.902   5.321
93258SOL    HW181613   8.918   7.844   5.386
93258SOL    HW281614   8.882   7.852   5.239
93259SOL     OW81615   9.358  11.147   0.029
93259SOL    HW181616   9.279  11.176  14.865
93259SOL    HW281617   9.390  11.225   0.074
93260SOL     OW81618   3.334   9.214  14.483
93260SOL    HW181619   3.369   9.285  14.537
93260SOL    HW281620   3.246   9.244  14.459
93261SOL     OW81621   4.012   9.714   1.394
93261SOL    HW181622   4.030   9.798   1.435
93261SOL    HW281623   4.022   9.730   1.300
93262SOL     OW81624  11.424   8.729   1.125
93262SOL    HW181625  11.464   8.792   1.063
93262SOL    HW281626  11.394   8.658   1.069
93263SOL     OW81627   7.784   2.680  14.711
93263SOL    HW181628   7.858   2.713  14.661
93263SOL    HW281629   7.784   2.586  14.695
93264SOL     OW81630   1.084  11.957   2.248
93264SOL    HW181631   1.087  11.984   2.339
93264SOL    HW281632   1.166  11.908   2.234
93265SOL     OW81633  10.854   7.651   4.694
93265SOL    HW181634  10.933   7.608   4.660
93265SOL    HW281635  10.811   7.584   4.747
93266SOL     OW81636   8.443  10.797  12.867
93266SOL    HW181637   8.371  10.840  12.819
93266SOL    HW281638   8.519  10.853  12.850
93267SOL     OW81639  12.184   6.705   0.870
93267SOL    HW181640  12.193   6.677   0.961
93267SOL    HW281641  12.107   6.762   0.870
93268SOL     OW81642   9.304   6.435   9.294
93268SOL    HW181643   9.242   6.501   9.264
93268SOL    HW281644   9.372   6.485   9.340
93269SOL     OW81645   4.289   4.258   3.475
93269SOL    HW181646   4.310   4.331   3.417
93269SOL    HW281647   4.285   4.297   3.562
93270SOL     OW81648   1.945   1.674   4.991
93270SOL    HW181649   1.921   1.669   4.898
93270SOL    HW281650   1.996   1.595   5.007
93271SOL     OW81651  11.879   0.338  12.305
93271SOL    HW181652  11.844   0.427  12.310
93271SOL    HW281653  11.855   0.298  12.389
93272SOL     OW81654  14.334   4.754   2.739
93272SOL    HW181655  14.346   4.848   2.756
93272SOL    HW281656  14.402   4.711   2.791
93273SOL     OW81657   6.329   1.605   2.600
93273SOL    HW181658   6.281   1.654   2.668
93273SOL    HW281659   6.309   1.652   2.519
93274SOL     OW81660   8.740  14.777   4.829
93274SOL    HW181661   8.653  14.752   4.798
93274SOL    HW281662   8.792  14.697   4.822
93275SOL     OW81663   3.488   2.484   2.969
93275SOL    HW181664   3.565   2.538   2.986
93275SOL    HW281665   3.416   2.534   3.007
93276SOL     OW81666  13.576   2.011  12.981
93276SOL    HW181667  13.553   1.970  12.897
93276SOL    HW281668  13.521   1.966  13.045
93277SOL     OW81669  14.100   9.663   9.574
93277SOL    HW181670  14.037   9.591   9.574
93277SOL    HW281671  14.067   9.725   9.510
93278SOL     OW81672   3.039  13.486   6.163
93278SOL    HW181673   3.106  13.469   6.097
93278SOL    HW281674   3.029  13.404   6.210
93279SOL     OW81675   5.820   2.068  10.655
93279SOL    HW181676   5.862   2.149  10.684
93279SOL    HW281677   5.843   2.061  10.563
93280SOL     OW81678   6.237   6.376   4.801
93280SOL    HW181679   6.244   6.396   4.708
93280SOL    HW281680   6.239   6.462   4.844
93281SOL     OW81681   5.027   5.196   2.244
93281SOL    HW181682   5.049   5.113   2.285
93281SOL    HW281683   5.111   5.232   2.216
93282SOL     OW81684   6.488   9.298   0.339
93282SOL    HW181685   6.465   9.211   0.307
93282SOL    HW281686   6.522   9.343   0.262
93283SOL     OW81687  12.630   2.976  10.607
93283SOL    HW181688  12.609   3.042  10.672
93283SOL    HW281689  12.707   2.932  10.642
93284SOL     OW81690  14.547   5.584   9.815
93284SOL    HW181691  14.533   5.634   9.734
93284SOL    HW281692  14.475   5.521   9.818
93285SOL     OW81693   2.557  10.473  13.345
93285SOL    HW181694   2.571  10.548  13.403
93285SOL    HW281695   2.627  10.479  13.281
93286SOL     OW81696  12.997   4.526   8.838
93286SOL    HW181697  12.944   4.447   8.846
93286SOL    HW281698  13.077   4.496   8.796
93287SOL     OW81699   0.712   3.597  10.291
93287SOL    HW181700   0.618   3.614  10.293
93287SOL    HW281701   0.722   3.510  10.328
93288SOL     OW81702   2.157   8.885  11.122
93288SOL    HW181703   2.240   8.930  11.104
93288SOL    HW281704   2.093   8.930  11.066
93289SOL     OW81705  10.220   6.519  11.486
93289SOL    HW181706  10.229   6.504  11.392
93289SOL    HW281707  10.174   6.442  11.518
93290SOL     OW81708   7.852   5.714   3.684
93290SOL    HW181709   7.942   5.747   3.688
93290SOL    HW281710   7.821   5.739   3.597
93291SOL     OW81711  10.790  10.829   4.634
93291SOL    HW181712  10.781  10.733   4.630
93291SOL    HW281713  10.729  10.855   4.704
93292SOL     OW81714  11.396   5.518  13.190
93292SOL    HW181715  11.375   5.559  13.274
93292SOL    HW281716  11.321   5.538  13.135
93293SOL     OW81717   5.984   8.270   8.894
93293SOL    HW181718   6.070   8.268   8.852
93293SOL    HW281719   5.990   8.343   8.956
93294SOL     OW81720  12.084   3.041   5.177
93294SOL    HW181721  12.167   3.017   5.218
93294SOL    HW281722  12.096   3.132   5.151
93295SOL     OW81723   6.278   8.709   9.297
93295SOL    HW181724   6.206   8.703   9.360
93295SOL    HW281725   6.299   8.802   9.293
93296SOL     OW81726   8.976   8.692  11.285
93296SOL    HW181727   9.044   8.641  11.242
93296SOL    HW281728   8.983   8.667  11.377
93297SOL     OW81729   0.485  10.246   5.342
93297SOL    HW181730   0.433  10.208   5.413
93297SOL    HW281731   0.421  10.297   5.291
93298SOL     OW81732   0.767  13.968   8.468
93298SOL    HW181733   0.810  14.053   8.460
93298SOL    HW281734   0.756  13.939   8.378
93299SOL     OW81735   3.454   8.168  14.812
93299SOL    HW181736   3.507   8.114  14.753
93299SOL    HW281737   3.486   8.257  14.799
93300SOL     OW81738   8.046  13.060  10.166
93300SOL    HW181739   7.954  13.072  10.143
93300SOL    HW281740   8.052  12.970  10.198
93301SOL     OW81741   2.575  10.517   2.478
93301SOL    HW181742   2.549  10.542   2.567
93301SOL    HW281743   2.660  10.558   2.465
93302SOL     OW81744  13.007  13.544  14.351
93302SOL    HW181745  13.064  13.467  14.352
93302SOL    HW281746  12.974  13.550  14.440
93303SOL     OW81747   0.647  14.750   1.179
93303SOL    HW181748   0.695  14.670   1.199
93303SOL    HW281749   0.615  14.738   1.089
93304SOL     OW81750   7.824   6.503  11.200
93304SOL    HW181751   7.854   6.546  11.280
93304SOL    HW281752   7.888   6.528  11.134
93305SOL     OW81753   7.754   0.482  13.360
93305SOL    HW181754   7.774   0.456  13.450
93305SOL    HW281755   7.782   0.407  13.307
93306SOL     OW81756   3.358   6.538  12.306
93306SOL    HW181757   3.425   6.496  12.253
93306SOL    HW281758   3.288   6.473  12.312
93307SOL     OW81759   7.752  14.146   5.790
93307SOL    HW181760   7.834  14.142   5.741
93307SOL    HW281761   7.777  14.183   5.875
93308SOL     OW81762  13.182  12.739   7.759
93308SOL    HW181763  13.196  12.789   7.839
93308SOL    HW281764  13.269  12.731   7.720
93309SOL     OW81765   9.967   9.398   8.116
93309SOL    HW181766  10.017   9.349   8.051
93309SOL    HW281767   9.928   9.331   8.172
93310SOL     OW81768  10.184   3.967  13.360
93310SOL    HW181769  10.249   3.916  13.409
93310SOL    HW281770  10.148   3.905  13.297
93311SOL     OW81771   5.354   5.781   3.934
93311SOL    HW181772   5.336   5.690   3.958
93311SOL    HW281773   5.323   5.788   3.844
93312SOL     OW81774   9.656  12.995   9.000
93312SOL    HW181775   9.658  13.075   8.947
93312SOL    HW281776   9.645  13.025   9.090
93313SOL     OW81777   8.278   4.409  10.354
93313SOL    HW181778   8.185   4.405  10.333
93313SOL    HW281779   8.322   4.374  10.277
93314SOL     OW81780   1.749  10.534  11.769
93314SOL    HW181781   1.704  10.612  11.800
93314SOL    HW281782   1.725  10.465  11.831
93315SOL     OW81783   3.234   1.944   4.723
93315SOL    HW181784   3.322   1.982   4.719
93315SOL    HW281785   3.181   2.000   4.666
93316SOL     OW81786  11.663  11.374   1.889
93316SOL    HW181787  11.569  11.383   1.901
93316SOL    HW281788  11.685  11.291   1.931
93317SOL     OW81789  14.399   9.582   1.656
93317SOL    HW181790  14.308   9.558   1.641
93317SOL    HW281791  14.400   9.677   1.644
93318SOL     OW81792   9.343   6.361   3.997
93318SOL    HW181793   9.435   6.372   4.019
93318SOL    HW281794   9.318   6.279   4.040
93319SOL     OW81795   0.435   6.749   4.636
93319SOL    HW181796   0.458   6.658   4.655
93319SOL    HW281797   0.340   6.753   4.644
93320SOL     OW81798   0.630  13.073  12.333
93320SOL    HW181799   0.557  13.134  12.319
93320SOL    HW281800   0.648  13.078  12.426
93321SOL     OW81801  11.029  14.043   2.456
93321SOL    HW181802  10.999  13.953   2.440
93321SOL    HW281803  10.971  14.098   2.403
93322SOL     OW81804   5.103   8.897   5.617
93322SOL    HW181805   5.164   8.969   5.605
93322SOL    HW281806   5.017   8.938   5.622
93323SOL     OW81807  13.990   7.009   7.292
93323SOL    HW181808  14.015   6.950   7.363
93323SOL    HW281809  14.022   7.095   7.319
93324SOL     OW81810   4.059   2.263   3.101
93324SOL    HW181811   3.967   2.237   3.096
93324SOL    HW281812   4.057   2.358   3.091
93325SOL     OW81813   4.435   8.144   1.554
93325SOL    HW181814   4.424   8.196   1.474
93325SOL    HW281815   4.460   8.207   1.621
93326SOL     OW81816  12.186   1.427   6.305
93326SOL    HW181817  12.198   1.363   6.375
93326SOL    HW281818  12.153   1.375   6.231
93327SOL     OW81819   4.878   2.220  11.105
93327SOL    HW181820   4.789   2.246  11.080
93327SOL    HW281821   4.910   2.170  11.031
93328SOL     OW81822  10.972   8.932  11.150
93328SOL    HW181823  11.063   8.919  11.122
93328SOL    HW281824  10.977   8.937  11.245
93329SOL     OW81825  12.791   7.130   5.738
93329SOL    HW181826  12.730   7.176   5.796
93329SOL    HW281827  12.842   7.199   5.697
93330SOL     OW81828  14.426   0.964  14.189
93330SOL    HW181829  14.414   0.881  14.236
93330SOL    HW281830  14.481   0.942  14.114
93331SOL     OW81831   2.133   4.090   0.669
93331SOL    HW181832   2.150   4.110   0.761
93331SOL    HW281833   2.123   4.175   0.626
93332SOL     OW81834  13.236  12.328  14.455
93332SOL    HW181835  13.180  12.253  14.473
93332SOL    HW281836  13.322  12.303  14.488
93333SOL     OW81837   6.996  12.399   2.655
93333SOL    HW181838   7.026  12.460   2.723
93333SOL    HW281839   6.943  12.453   2.596
93334SOL     OW81840   5.190   0.756   7.853
93334SOL    HW181841   5.099   0.783   7.859
93334SOL    HW281842   5.235   0.806   7.922
93335SOL     OW81843   8.400  13.378   5.931
93335SOL    HW181844   8.422  13.389   5.838
93335SOL    HW281845   8.434  13.456   5.973
93336SOL     OW81846  10.496  14.123  12.090
93336SOL    HW181847  10.457  14.124  12.177
93336SOL    HW281848  10.591  14.120  12.106
93337SOL     OW81849   5.511   1.669  14.281
93337SOL    HW181850   5.424   1.708  14.274
93337SOL    HW281851   5.570   1.743  14.294
93338SOL     OW81852   5.175   1.044   6.046
93338SOL    HW181853   5.117   1.080   6.113
93338SOL    HW281854   5.168   1.104   5.972
93339SOL     OW81855   9.484   9.387   0.400
93339SOL    HW181856   9.576   9.381   0.372
93339SOL    HW281857   9.434   9.392   0.319
93340SOL     OW81858  13.679   3.884   2.980
93340SOL    HW181859  13.704   3.882   2.887
93340SOL    HW281860  13.697   3.795   3.011
93341SOL     OW81861  13.677   6.569   0.353
93341SOL    HW181862  13.734   6.496   0.328
93341SOL    HW281863  13.724   6.614   0.423
93342SOL     OW81864   5.903  10.992   4.363
93342SOL    HW181865   5.931  11.073   4.407
93342SOL    HW281866   5.856  11.023   4.285
93343SOL     OW81867   0.592   9.481   3.088
93343SOL    HW181868   0.547   9.398   3.102
93343SOL    HW281869   0.539   9.526   3.022
93344SOL     OW81870  12.389   6.110   5.783
93344SOL    HW181871  12.464   6.068   5.740
93344SOL    HW281872  12.426   6.186   5.827
93345SOL     OW81873  14.271   8.871   4.134
93345SOL    HW181874  14.300   8.962   4.138
93345SOL    HW281875  14.340   8.822   4.178
93346SOL     OW81876   4.615   1.082  11.316
93346SOL    HW181877   4.669   1.008  11.286
93346SOL    HW281878   4.631   1.150  11.251
93347SOL     OW81879   1.476   2.569   3.920
93347SOL    HW181880   1.391   2.588   3.961
93347SOL    HW281881   1.471   2.611   3.834
93348SOL     OW81882   1.489  11.717   3.252
93348SOL    HW181883   1.397  11.693   3.242
93348SOL    HW281884   1.529  11.698   3.167
93349SOL     OW81885   6.146   5.428   6.152
93349SOL    HW181886   6.222   5.405   6.097
93349SOL    HW281887   6.132   5.521   6.136
93350SOL     OW81888   7.092   2.411  10.239
93350SOL    HW181889   7.153   2.457  10.297
93350SOL    HW281890   7.148   2.367  10.175
93351SOL     OW81891   6.295   7.392   0.885
93351SOL    HW181892   6.334   7.333   0.820
93351SOL    HW281893   6.345   7.474   0.875
93352SOL     OW81894   3.703   7.880   2.791
93352SOL    HW181895   3.704   7.886   2.695
93352SOL    HW281896   3.740   7.963   2.821
93353SOL     OW81897  10.071   2.797   8.456
93353SOL    HW181898  10.122   2.767   8.381
93353SOL    HW281899  10.001   2.851   8.418
93354SOL     OW81900  13.942  13.691   9.354
93354SOL    HW181901  13.910  13.655   9.272
93354SOL    HW281902  13.966  13.782   9.333
93355SOL     OW81903  14.576  10.926   7.630
93355SOL    HW181904  14.661  10.926   7.675
93355SOL    HW281905  14.566  10.837   7.598
93356SOL     OW81906   7.773   3.543   5.023
93356SOL    HW181907   7.714   3.543   5.099
93356SOL    HW281908   7.742   3.615   4.968
93357SOL     OW81909   9.580   9.795   5.822
93357SOL    HW181910   9.618   9.879   5.845
93357SOL    HW281911   9.622   9.733   5.881
93358SOL     OW81912   8.536  14.683  12.153
93358SOL    HW181913   8.592  14.627  12.100
93358SOL    HW281914   8.584  14.694  12.235
93359SOL     OW81915   2.436  14.639   0.567
93359SOL    HW181916   2.376  14.608   0.499
93359SOL    HW281917   2.512  14.580   0.560
93360SOL     OW81918   3.440   3.542   8.284
93360SOL    HW181919   3.523   3.588   8.300
93360SOL    HW281920   3.424   3.553   8.191
93361SOL     OW81921   2.998  14.499  13.034
93361SOL    HW181922   3.017  14.574  12.977
93361SOL    HW281923   2.985  14.537  13.121
93362SOL     OW81924   0.065   9.851   5.180
93362SOL    HW181925   0.007   9.845   5.104
93362SOL    HW281926   0.031   9.787   5.242
93363SOL     OW81927   7.817  13.184  13.753
93363SOL    HW181928   7.832  13.247  13.682
93363SOL    HW281929   7.798  13.102  13.707
93364SOL     OW81930   3.944  12.784   2.377
93364SOL    HW181931   4.017  12.758   2.433
93364SOL    HW281932   3.875  12.810   2.438
93365SOL     OW81933   8.394  10.923  13.673
93365SOL    HW181934   8.453  10.878  13.613
93365SOL    HW281935   8.430  10.903  13.760
93366SOL     OW81936   7.490  12.109   9.122
93366SOL    HW181937   7.556  12.108   9.052
93366SOL    HW281938   7.519  12.177   9.182
93367SOL     OW81939  11.025   7.788   0.294
93367SOL    HW181940  11.060   7.830   0.215
93367SOL    HW281941  10.950   7.738   0.262
93368SOL     OW81942   2.266   3.811   3.220
93368SOL    HW181943   2.253   3.766   3.304
93368SOL    HW281944   2.179   3.813   3.180
93369SOL     OW81945  14.589  13.592   0.699
93369SOL    HW181946  14.674  13.567   0.664
93369SOL    HW281947  14.543  13.509   0.713
93370SOL     OW81948   6.297   6.719   7.339
93370SOL    HW181949   6.297   6.625   7.319
93370SOL    HW281950   6.362   6.728   7.409
93371SOL     OW81951   2.728  13.564   1.740
93371SOL    HW181952   2.769  13.646   1.711
93371SOL    HW281953   2.635  13.577   1.725
93372SOL     OW81954   5.307   9.669   8.580
93372SOL    HW181955   5.340   9.579   8.580
93372SOL    HW281956   5.223   9.664   8.625
93373SOL     OW81957  11.744  14.287   6.981
93373SOL    HW181958  11.833  14.314   6.957
93373SOL    HW281959  11.700  14.273   6.897
93374SOL     OW81960   2.796  10.063   4.588
93374SOL    HW181961   2.738  10.043   4.661
93374SOL    HW281962   2.825  10.153   4.603
93375SOL     OW81963   3.306   3.656   5.676
93375SOL    HW181964   3.301   3.752   5.671
93375SOL    HW281965   3.261   3.634   5.758
93376SOL     OW81966  13.234   6.741   2.973
93376SOL    HW181967  13.280   6.657   2.971
93376SOL    HW281968  13.287   6.796   3.030
93377SOL     OW81969  10.884   0.882  12.977
93377SOL    HW181970  10.797   0.873  12.939
93377SOL    HW281971  10.873   0.947  13.046
93378SOL     OW81972   2.848   2.758  11.156
93378SOL    HW181973   2.867   2.824  11.089
93378SOL    HW281974   2.766   2.787  11.195
93379SOL     OW81975  10.212   4.295   8.824
93379SOL    HW181976  10.187   4.248   8.745
93379SOL    HW281977  10.283   4.243   8.862
93380SOL     OW81978   5.031   4.030  10.391
93380SOL    HW181979   5.076   3.972  10.453
93380SOL    HW281980   4.961   4.070  10.442
93381SOL     OW81981   3.262   7.203   4.512
93381SOL    HW181982   3.198   7.146   4.470
93381SOL    HW281983   3.332   7.145   4.540
93382SOL     OW81984  11.508   7.654  10.649
93382SOL    HW181985  11.432   7.616  10.692
93382SOL    HW281986  11.576   7.654  10.716
93383SOL     OW81987  10.898   0.730  13.495
93383SOL    HW181988  10.870   0.817  13.523
93383SOL    HW281989  10.975   0.712  13.549
93384SOL     OW81990  13.272   5.826   6.505
93384SOL    HW181991  13.183   5.791   6.512
93384SOL    HW281992  13.285   5.875   6.586
93385SOL     OW81993   9.974   8.908   7.875
93385SOL    HW181994  10.043   8.868   7.822
93385SOL    HW281995   9.904   8.843   7.876
93386SOL     OW81996  12.634   3.998   9.298
93386SOL    HW181997  12.709   4.041   9.340
93386SOL    HW281998  12.558   4.028   9.348
93387SOL     OW81999   0.139  10.876  13.172
93387SOL    HW182000   0.175  10.787  13.175
93387SOL    HW282001   0.214  10.933  13.190
93388SOL     OW82002   5.949  13.535   1.227
93388SOL    HW182003   6.005  13.613   1.226
93388SOL    HW282004   5.860  13.570   1.232
93389SOL     OW82005   1.217   5.511   0.940
93389SOL    HW182006   1.198   5.511   0.846
93389SOL    HW282007   1.185   5.427   0.972
93390SOL     OW82008   2.175   2.481   6.803
93390SOL    HW182009   2.135   2.508   6.721
93390SOL    HW282010   2.242   2.418   6.778
93391SOL     OW82011   8.573  13.516   1.245
93391SOL    HW182012   8.589  13.554   1.159
93391SOL    HW282013   8.544  13.427   1.226
93392SOL     OW82014  10.322   1.782   4.214
93392SOL    HW182015  10.314   1.695   4.253
93392SOL    HW282016  10.234   1.818   4.215
93393SOL     OW82017   4.501   6.490  12.473
93393SOL    HW182018   4.556   6.422  12.435
93393SOL    HW282019   4.435   6.508  12.406
93394SOL     OW82020   8.186  13.826   2.908
93394SOL    HW182021   8.266  13.865   2.875
93394SOL    HW282022   8.213  13.743   2.948
93395SOL     OW82023   8.979   0.302  11.533
93395SOL    HW182024   9.053   0.334  11.585
93395SOL    HW282025   9.020   0.256  11.460
93396SOL     OW82026  10.655   9.905  12.399
93396SOL    HW182027  10.688   9.884  12.312
93396SOL    HW282028  10.733   9.904  12.455
93397SOL     OW82029  11.104   7.107  13.644
93397SOL    HW182030  11.181   7.163  13.642
93397SOL    HW282031  11.056   7.130  13.564
93398SOL     OW82032   5.306  11.902   7.780
93398SOL    HW182033   5.375  11.923   7.717
93398SOL    HW282034   5.339  11.935   7.863
93399SOL     OW82035   9.325  12.479  11.958
93399SOL    HW182036   9.281  12.403  11.921
93399SOL    HW282037   9.405  12.487  11.907
93400SOL     OW82038  12.070   7.801   6.614
93400SOL    HW182039  12.031   7.850   6.542
93400SOL    HW282040  12.030   7.837   6.693
93401SOL     OW82041   2.947  12.608  12.368
93401SOL    HW182042   2.927  12.678  12.431
93401SOL    HW282043   2.885  12.621  12.297
93402SOL     OW82044   4.409   0.277  11.959
93402SOL    HW182045   4.499   0.311  11.952
93402SOL    HW282046   4.390   0.242  11.872
93403SOL     OW82047  12.266   2.040   9.791
93403SOL    HW182048  12.207   1.981   9.837
93403SOL    HW282049  12.318   1.983   9.734
93404SOL     OW82050  10.500   8.082  11.045
93404SOL    HW182051  10.593   8.104  11.050
93404SOL    HW282052  10.479   8.045  11.131
93405SOL     OW82053   9.885   3.578   4.884
93405SOL    HW182054   9.826   3.650   4.905
93405SOL    HW282055   9.973   3.616   4.889
93406SOL     OW82056   7.658  10.182   6.929
93406SOL    HW182057   7.608  10.100   6.939
93406SOL    HW282058   7.598  10.250   6.958
93407SOL     OW82059   0.385   3.454  10.897
93407SOL    HW182060   0.351   3.372  10.863
93407SOL    HW282061   0.441   3.429  10.970
93408SOL     OW82062   0.363   7.035  11.262
93408SOL    HW182063   0.388   7.083  11.341
93408SOL    HW282064   0.340   6.947  11.294
93409SOL     OW82065   1.189   9.343   2.701
93409SOL    HW182066   1.277   9.374   2.720
93409SOL    HW282067   1.132   9.419   2.717
93410SOL     OW82068   1.544  11.911   9.587
93410SOL    HW182069   1.548  11.997   9.547
93410SOL    HW282070   1.479  11.920   9.657
93411SOL     OW82071   8.733  14.205   6.033
93411SOL    HW182072   8.777  14.183   6.115
93411SOL    HW282073   8.753  14.132   5.974
93412SOL     OW82074   7.270   6.968   0.403
93412SOL    HW182075   7.206   6.943   0.470
93412SOL    HW282076   7.241   7.053   0.372
93413SOL     OW82077   8.312   7.696   0.931
93413SOL    HW182078   8.325   7.683   0.837
93413SOL    HW282079   8.220   7.678   0.946
93414SOL     OW82080  14.865   6.828   2.707
93414SOL    HW182081  14.776   6.798   2.726
93414SOL    HW282082   0.035   6.798   2.782
93415SOL     OW82083  11.202  11.981  10.942
93415SOL    HW182084  11.125  11.957  10.891
93415SOL    HW282085  11.251  11.900  10.953
93416SOL     OW82086   3.715   5.120  12.733
93416SOL    HW182087   3.787   5.090  12.788
93416SOL    HW282088   3.754   5.133  12.646
93417SOL     OW82089  14.346   7.475   4.952
93417SOL    HW182090  14.250   7.475   4.960
93417SOL    HW282091  14.362   7.458   4.860
93418SOL     OW82092   7.826   2.357   6.096
93418SOL    HW182093   7.811   2.270   6.060
93418SOL    HW282094   7.922   2.367   6.095
93419SOL     OW82095  10.005   8.358   4.690
93419SOL    HW182096   9.936   8.421   4.710
93419SOL    HW282097  10.022   8.314   4.774
93420SOL     OW82098   9.254   7.942  10.894
93420SOL    HW182099   9.215   7.926  10.808
93420SOL    HW282100   9.308   8.020  10.881
93421SOL     OW82101   1.018   8.720  12.156
93421SOL    HW182102   1.020   8.791  12.091
93421SOL    HW282103   1.020   8.640  12.105
93422SOL     OW82104   7.513   7.416   3.161
93422SOL    HW182105   7.575   7.489   3.157
93422SOL    HW282106   7.429   7.458   3.177
93423SOL     OW82107  10.436   4.064   0.208
93423SOL    HW182108  10.508   4.070   0.271
93423SOL    HW282109  10.412   3.971   0.209
93424SOL     OW82110   9.111   7.893   7.821
93424SOL    HW182111   9.193   7.862   7.860
93424SOL    HW282112   9.138   7.964   7.763
93425SOL     OW82113   2.614   7.081   6.353
93425SOL    HW182114   2.564   7.094   6.273
93425SOL    HW282115   2.559   7.027   6.409
93426SOL     OW82116   8.744   9.795   4.905
93426SOL    HW182117   8.839   9.803   4.907
93426SOL    HW282118   8.714   9.874   4.859
93427SOL     OW82119  12.294   5.823  11.348
93427SOL    HW182120  12.272   5.742  11.302
93427SOL    HW282121  12.346   5.795  11.423
93428SOL     OW82122   7.081  10.911   0.116
93428SOL    HW182123   7.085  10.864   0.199
93428SOL    HW282124   6.999  10.882   0.076
93429SOL     OW82125   6.837   4.812   7.208
93429SOL    HW182126   6.746   4.788   7.219
93429SOL    HW282127   6.886   4.736   7.239
93430SOL     OW82128   0.902  10.134  13.415
93430SOL    HW182129   0.847  10.105  13.342
93430SOL    HW282130   0.896  10.062  13.479
93431SOL     OW82131  12.642   3.097  10.335
93431SOL    HW182132  12.707   3.073  10.269
93431SOL    HW282133  12.639   3.022  10.395
93432SOL     OW82134  12.662   0.188   0.564
93432SOL    HW182135  12.618   0.239   0.632
93432SOL    HW282136  12.640   0.097   0.584
93433SOL     OW82137  11.187   9.636   9.179
93433SOL    HW182138  11.139   9.658   9.100
93433SOL    HW282139  11.166   9.707   9.240
93434SOL     OW82140   2.295  10.989   9.688
93434SOL    HW182141   2.313  10.895   9.681
93434SOL    HW282142   2.313  11.024   9.601
93435SOL     OW82143  13.726   6.460  10.208
93435SOL    HW182144  13.671   6.481  10.284
93435SOL    HW282145  13.668   6.470  10.133
93436SOL     OW82146   4.187   2.629   4.944
93436SOL    HW182147   4.145   2.684   5.010
93436SOL    HW282148   4.147   2.658   4.861
93437SOL     OW82149   7.769  12.367   4.111
93437SOL    HW182150   7.692  12.422   4.104
93437SOL    HW282151   7.817  12.400   4.186
93438SOL     OW82152  10.122  11.981   5.352
93438SOL    HW182153  10.172  12.044   5.403
93438SOL    HW282154  10.168  11.975   5.268
93439SOL     OW82155  11.336  12.445   7.838
93439SOL    HW182156  11.413  12.478   7.792
93439SOL    HW282157  11.304  12.520   7.888
93440SOL     OW82158  11.533   4.617   2.211
93440SOL    HW182159  11.469   4.673   2.257
93440SOL    HW282160  11.479   4.562   2.153
93441SOL     OW82161  14.656   8.621  12.618
93441SOL    HW182162  14.677   8.539  12.574
93441SOL    HW282163  14.704   8.688  12.569
93442SOL     OW82164   4.893   8.002   4.379
93442SOL    HW182165   4.934   8.023   4.463
93442SOL    HW282166   4.902   7.907   4.370
93443SOL     OW82167  14.501   4.419  14.654
93443SOL    HW182168  14.449   4.400  14.733
93443SOL    HW282169  14.587   4.445  14.687
93444SOL     OW82170   2.561   0.002   0.972
93444SOL    HW182171   2.569   0.044   1.057
93444SOL    HW282172   2.483   0.042   0.932
93445SOL     OW82173   5.328  14.002   3.749
93445SOL    HW182174   5.421  14.011   3.766
93445SOL    HW282175   5.319  14.011   3.654
93446SOL     OW82176  14.378   5.512   0.838
93446SOL    HW182177  14.357   5.438   0.895
93446SOL    HW282178  14.434   5.475   0.770
93447SOL     OW82179  10.756   6.951  13.663
93447SOL    HW182180  10.687   6.922  13.723
93447SOL    HW282181  10.823   6.988  13.721
93448SOL     OW82182  13.475   6.373   5.517
93448SOL    HW182183  13.491   6.306   5.450
93448SOL    HW282184  13.389   6.409   5.495
93449SOL     OW82185   8.255   2.032  12.777
93449SOL    HW182186   8.181   2.017  12.718
93449SOL    HW282187   8.234   2.115  12.821
93450SOL     OW82188  14.477  12.801   3.916
93450SOL    HW182189  14.481  12.808   4.012
93450SOL    HW282190  14.384  12.805   3.896
93451SOL     OW82191  10.917  10.659  12.658
93451SOL    HW182192  10.898  10.617  12.575
93451SOL    HW282193  10.855  10.620  12.720
93452SOL     OW82194  11.329   1.377   1.831
93452SOL    HW182195  11.266   1.330   1.886
93452SOL    HW282196  11.334   1.464   1.870
93453SOL     OW82197   6.234  13.185   8.600
93453SOL    HW182198   6.253  13.126   8.528
93453SOL    HW282199   6.139  13.181   8.610
93454SOL     OW82200   1.384  12.448   1.723
93454SOL    HW182201   1.340  12.453   1.639
93454SOL    HW282202   1.339  12.378   1.770
93455SOL     OW82203   4.739  13.819   0.738
93455SOL    HW182204   4.655  13.793   0.702
93455SOL    HW282205   4.785  13.736   0.754
93456SOL     OW82206  10.613  13.302   3.145
93456SOL    HW182207  10.534  13.349   3.173
93456SOL    HW282208  10.677  13.320   3.213
93457SOL     OW82209  13.862   8.281  12.749
93457SOL    HW182210  13.813   8.358  12.721
93457SOL    HW282211  13.947   8.290  12.707
93458SOL     OW82212   0.802   8.823  11.021
93458SOL    HW182213   0.831   8.871  11.099
93458SOL    HW282214   0.870   8.757  11.007
93459SOL     OW82215   8.316   0.171   5.280
93459SOL    HW182216   8.315   0.202   5.189
93459SOL    HW282217   8.227   0.186   5.311
93460SOL     OW82218  11.021   8.065   9.382
93460SOL    HW182219  10.960   8.138   9.382
93460SOL    HW282220  11.107   8.106   9.393
93461SOL     OW82221   4.129  14.338   0.344
93461SOL    HW182222   4.194  14.408   0.335
93461SOL    HW282223   4.169  14.276   0.405
93462SOL     OW82224   0.023   6.876  12.207
93462SOL    HW182225  14.842   6.935  12.248
93462SOL    HW282226   0.086   6.933  12.165
93463SOL     OW82227  12.253  12.650   3.956
93463SOL    HW182228  12.247  12.573   4.011
93463SOL    HW282229  12.223  12.620   3.870
93464SOL     OW82230   9.027   9.487   6.671
93464SOL    HW182231   9.010   9.580   6.655
93464SOL    HW282232   9.122   9.478   6.663
93465SOL     OW82233   5.452   1.009   2.281
93465SOL    HW182234   5.439   0.950   2.356
93465SOL    HW282235   5.489   1.088   2.319
93466SOL     OW82236   0.068   9.511   1.910
93466SOL    HW182237   0.091   9.532   2.001
93466SOL    HW282238  14.871   9.563   1.893
93467SOL     OW82239   2.754   6.510  10.634
93467SOL    HW182240   2.738   6.530  10.726
93467SOL    HW282241   2.667   6.501  10.595
93468SOL     OW82242   2.961   3.229   7.898
93468SOL    HW182243   2.986   3.268   7.982
93468SOL    HW282244   2.897   3.290   7.861
93469SOL     OW82245  14.772  14.390  10.852
93469SOL    HW182246  14.704  14.454  10.833
93469SOL    HW282247  14.746  14.350  10.935
93470SOL     OW82248   1.172   2.766   9.896
93470SOL    HW182249   1.119   2.734   9.969
93470SOL    HW282250   1.256   2.722   9.906
93471SOL     OW82251   2.421   3.649   5.500
93471SOL    HW182252   2.364   3.714   5.460
93471SOL    HW282253   2.362   3.580   5.531
93472SOL     OW82254  10.022  13.386   3.706
93472SOL    HW182255  10.018  13.431   3.790
93472SOL    HW282256  10.083  13.439   3.654
93473SOL     OW82257   2.628   9.270  10.573
93473SOL    HW182258   2.661   9.181  10.583
93473SOL    HW282259   2.668   9.301  10.491
93474SOL     OW82260   7.030   7.906   6.592
93474SOL    HW182261   6.985   7.919   6.509
93474SOL    HW282262   6.996   7.823   6.625
93475SOL     OW82263   3.396   7.891   2.023
93475SOL    HW182264   3.344   7.850   2.092
93475SOL    HW282265   3.454   7.821   1.992
93476SOL     OW82266  10.309   2.094   2.652
93476SOL    HW182267  10.273   2.035   2.718
93476SOL    HW282268  10.364   2.038   2.596
93477SOL     OW82269   6.686   3.193   8.758
93477SOL    HW182270   6.625   3.204   8.686
93477SOL    HW282271   6.720   3.105   8.747
93478SOL     OW82272   4.483   7.355   1.977
93478SOL    HW182273   4.395   7.362   1.941
93478SOL    HW282274   4.474   7.379   2.069
93479SOL     OW82275   8.417   0.762  11.012
93479SOL    HW182276   8.390   0.796  10.927
93479SOL    HW282277   8.351   0.794  11.073
93480SOL     OW82278  10.082   8.562   1.488
93480SOL    HW182279  10.022   8.615   1.435
93480SOL    HW282280  10.070   8.595   1.577
93481SOL     OW82281  12.429   0.318   3.203
93481SOL    HW182282  12.517   0.352   3.187
93481SOL    HW282283  12.383   0.330   3.120
93482SOL     OW82284   9.338  12.803  13.252
93482SOL    HW182285   9.378  12.833  13.170
93482SOL    HW282286   9.244  12.804  13.235
93483SOL     OW82287   2.932   4.400   8.457
93483SOL    HW182288   3.028   4.407   8.459
93483SOL    HW282289   2.913   4.363   8.371
93484SOL     OW82290  13.321  13.251   2.698
93484SOL    HW182291  13.388  13.259   2.629
93484SOL    HW282292  13.289  13.340   2.709
93485SOL     OW82293  12.316   6.707   2.707
93485SOL    HW182294  12.222   6.695   2.697
93485SOL    HW282295  12.328   6.802   2.714
93486SOL     OW82296   3.438   2.912   6.351
93486SOL    HW182297   3.420   3.005   6.358
93486SOL    HW282298   3.454   2.884   6.441
93487SOL     OW82299   3.112   4.675  11.494
93487SOL    HW182300   3.081   4.720  11.416
93487SOL    HW282301   3.034   4.629  11.528
93488SOL     OW82302  13.488   5.562  11.412
93488SOL    HW182303  13.410   5.601  11.372
93488SOL    HW282304  13.532   5.517  11.340
93489SOL     OW82305   1.532  11.653   7.496
93489SOL    HW182306   1.600  11.595   7.530
93489SOL    HW282307   1.499  11.607   7.419
93490SOL     OW82308  11.491   0.004  10.835
93490SOL    HW182309  11.433  14.812  10.819
93490SOL    HW282310  11.509   0.000  10.929
93491SOL     OW82311  10.416   4.106   7.913
93491SOL    HW182312  10.455   4.073   7.994
93491SOL    HW282313  10.444   4.197   7.908
93492SOL     OW82314  12.130   4.497  13.119
93492SOL    HW182315  12.157   4.568  13.060
93492SOL    HW282316  12.211   4.453  13.143
93493SOL     OW82317  14.875   1.853   8.562
93493SOL    HW182318   0.062   1.787   8.575
93493SOL    HW282319  14.858   1.887   8.650
93494SOL     OW82320  14.615   1.488   0.302
93494SOL    HW182321  14.672   1.413   0.318
93494SOL    HW282322  14.534   1.450   0.267
93495SOL     OW82323   8.898   3.838   1.668
93495SOL    HW182324   8.959   3.905   1.635
93495SOL    HW282325   8.825   3.839   1.606
93496SOL     OW82326   2.467   3.212   2.357
93496SOL    HW182327   2.540   3.151   2.352
93496SOL    HW282328   2.392   3.158   2.380
93497SOL     OW82329   9.300   6.758   9.438
93497SOL    HW182330   9.262   6.747   9.525
93497SOL    HW282331   9.379   6.703   9.440
93498SOL     OW82332   6.903   5.961   9.316
93498SOL    HW182333   6.849   6.037   9.334
93498SOL    HW282334   6.891   5.904   9.392
93499SOL     OW82335  11.850   2.727   0.048
93499SOL    HW182336  11.825   2.819   0.041
93499SOL    HW282337  11.803   2.695   0.125
93500SOL     OW82338  10.709   1.705  14.041
93500SOL    HW182339  10.622   1.709  14.002
93500SOL    HW282340  10.697   1.731  14.132
93501SOL     OW82341  11.729   2.659   7.726
93501SOL    HW182342  11.705   2.569   7.746
93501SOL    HW282343  11.778   2.653   7.643
93502SOL     OW82344   5.063   9.189   4.224
93502SOL    HW182345   5.141   9.163   4.175
93502SOL    HW282346   5.029   9.265   4.178
93503SOL     OW82347   9.517  13.306   6.606
93503SOL    HW182348   9.443  13.332   6.661
93503SOL    HW282349   9.593  13.312   6.664
93504SOL     OW82350   5.970  14.593  11.925
93504SOL    HW182351   6.004  14.536  11.994
93504SOL    HW282352   6.048  14.634  11.888
93505SOL     OW82353  11.448   5.595   1.528
93505SOL    HW182354  11.397   5.671   1.556
93505SOL    HW282355  11.392   5.551   1.464
93506SOL     OW82356   8.640  11.558   8.565
93506SOL    HW182357   8.670  11.467   8.564
93506SOL    HW282358   8.571  11.561   8.499
93507SOL     OW82359   1.290   8.362   4.424
93507SOL    HW182360   1.331   8.276   4.434
93507SOL    HW282361   1.354   8.412   4.374
93508SOL     OW82362   8.195   0.290   6.296
93508SOL    HW182363   8.266   0.234   6.264
93508SOL    HW282364   8.238   0.372   6.318
93509SOL     OW82365   2.600   0.130   7.616
93509SOL    HW182366   2.511   0.163   7.605
93509SOL    HW282367   2.603   0.050   7.564
93510SOL     OW82368  13.566   3.506   8.973
93510SOL    HW182369  13.558   3.561   9.051
93510SOL    HW282370  13.477   3.501   8.938
93511SOL     OW82371   5.287   6.627   2.871
93511SOL    HW182372   5.197   6.637   2.901
93511SOL    HW282373   5.284   6.550   2.814
93512SOL     OW82374  11.835  11.278  11.916
93512SOL    HW182375  11.909  11.263  11.857
93512SOL    HW282376  11.760  11.241  11.871
93513SOL     OW82377   0.641   1.444   5.578
93513SOL    HW182378   0.605   1.450   5.666
93513SOL    HW282379   0.734   1.463   5.588
93514SOL     OW82380  12.908  14.078  14.022
93514SOL    HW182381  12.885  14.015  14.090
93514SOL    HW282382  12.837  14.142  14.023
93515SOL     OW82383  12.061  11.908   6.278
93515SOL    HW182384  12.050  11.880   6.369
93515SOL    HW282385  12.133  11.971   6.281
93516SOL     OW82386   0.293  11.042  10.623
93516SOL    HW182387   0.347  11.095  10.682
93516SOL    HW282388   0.343  11.038  10.542
93517SOL     OW82389   3.292   8.815   3.859
93517SOL    HW182390   3.304   8.721   3.868
93517SOL    HW282391   3.375   8.853   3.886
93518SOL     OW82392   9.411   7.621   9.895
93518SOL    HW182393   9.454   7.536   9.879
93518SOL    HW282394   9.380   7.615   9.985
93519SOL     OW82395   7.064   8.656   0.534
93519SOL    HW182396   7.029   8.703   0.609
93519SOL    HW282397   7.071   8.565   0.563
93520SOL     OW82398   6.744   9.656   5.567
93520SOL    HW182399   6.818   9.716   5.557
93520SOL    HW282400   6.761   9.611   5.649
93521SOL     OW82401   0.361  10.019   1.395
93521SOL    HW182402   0.364  10.012   1.491
93521SOL    HW282403   0.288   9.961   1.370
93522SOL     OW82404   3.434   2.499  13.987
93522SOL    HW182405   3.459   2.438  14.057
93522SOL    HW282406   3.477   2.581  14.010
93523SOL     OW82407  10.372   5.317   7.815
93523SOL    HW182408  10.409   5.402   7.837
93523SOL    HW282409  10.279   5.334   7.797
93524SOL     OW82410  12.114   9.739  14.121
93524SOL    HW182411  12.130   9.651  14.087
93524SOL    HW282412  12.089   9.724  14.213
93525SOL     OW82413   1.565   2.710  13.824
93525SOL    HW182414   1.639   2.770  13.822
93525SOL    HW282415   1.580   2.655  13.902
93526SOL     OW82416   0.523  13.636   1.333
93526SOL    HW182417   0.429  13.622   1.344
93526SOL    HW282418   0.557  13.550   1.309
93527SOL     OW82419   4.216   6.072   1.881
93527SOL    HW182420   4.234   5.988   1.838
93527SOL    HW282421   4.135   6.057   1.930
93528SOL     OW82422   5.692  10.524  13.425
93528SOL    HW182423   5.609  10.572  13.433
93528SOL    HW282424   5.718  10.536  13.334
93529SOL     OW82425   0.405   0.072   5.311
93529SOL    HW182426   0.367   0.076   5.399
93529SOL    HW282427   0.497   0.095   5.323
93530SOL     OW82428   4.950  13.274   2.779
93530SOL    HW182429   4.859  13.246   2.790
93530SOL    HW282430   4.955  13.308   2.690
93531SOL     OW82431   5.924   0.725   1.548
93531SOL    HW182432   5.980   0.782   1.600
93531SOL    HW282433   5.927   0.763   1.460
93532SOL     OW82434   8.953   5.979   4.017
93532SOL    HW182435   9.020   5.918   3.985
93532SOL    HW282436   8.963   5.977   4.112
93533SOL     OW82437  13.748   6.833   3.672
93533SOL    HW182438  13.660   6.871   3.666
93533SOL    HW282439  13.802   6.901   3.712
93534SOL     OW82440   4.872  14.347   0.545
93534SOL    HW182441   4.840  14.258   0.557
93534SOL    HW282442   4.958  14.347   0.587
93535SOL     OW82443   7.553   8.418  14.318
93535SOL    HW182444   7.513   8.491  14.271
93535SOL    HW282445   7.523   8.340  14.271
93536SOL     OW82446  10.838   5.293   8.217
93536SOL    HW182447  10.898   5.349   8.167
93536SOL    HW282448  10.822   5.218   8.161
93537SOL     OW82449   3.291   4.022   0.455
93537SOL    HW182450   3.232   4.089   0.489
93537SOL    HW282451   3.379   4.059   0.467
93538SOL     OW82452   5.271   0.561  13.817
93538SOL    HW182453   5.261   0.564  13.912
93538SOL    HW282454   5.300   0.472  13.798
93539SOL     OW82455   9.263   2.454   8.004
93539SOL    HW182456   9.305   2.427   8.086
93539SOL    HW282457   9.333   2.448   7.939
93540SOL     OW82458   4.180  13.611  14.029
93540SOL    HW182459   4.174  13.556  13.951
93540SOL    HW282460   4.162  13.553  14.102
93541SOL     OW82461   9.186   0.771   3.751
93541SOL    HW182462   9.188   0.862   3.782
93541SOL    HW282463   9.243   0.724   3.811
93542SOL     OW82464   4.667  13.230   6.654
93542SOL    HW182465   4.725  13.234   6.578
93542SOL    HW282466   4.615  13.310   6.649
93543SOL     OW82467  14.773  14.229   7.297
93543SOL    HW182468  14.741  14.228   7.387
93543SOL    HW282469  14.755  14.318   7.266
93544SOL     OW82470   3.363   6.331  11.901
93544SOL    HW182471   3.283   6.325  11.955
93544SOL    HW282472   3.429   6.367  11.960
93545SOL     OW82473  10.799   7.682  13.330
93545SOL    HW182474  10.850   7.653  13.406
93545SOL    HW282475  10.835   7.631  13.256
93546SOL     OW82476  10.065   7.822  11.621
93546SOL    HW182477  10.109   7.763  11.683
93546SOL    HW282478  10.055   7.904  11.670
93547SOL     OW82479  13.268   3.979   1.407
93547SOL    HW182480  13.346   4.033   1.398
93547SOL    HW282481  13.198   4.043   1.424
93548SOL     OW82482  13.577   4.275   5.926
93548SOL    HW182483  13.582   4.371   5.933
93548SOL    HW282484  13.496   4.259   5.876
93549SOL     OW82485   7.932  10.340   0.663
93549SOL    HW182486   7.841  10.367   0.679
93549SOL    HW282487   7.976  10.420   0.633
93550SOL     OW82488  13.034   2.218   1.758
93550SOL    HW182489  12.963   2.187   1.703
93550SOL    HW282490  13.011   2.190   1.846
93551SOL     OW82491   4.251  11.934  14.434
93551SOL    HW182492   4.162  11.958  14.459
93551SOL    HW282493   4.306  11.964  14.506
93552SOL     OW82494  13.197   0.591  11.515
93552SOL    HW182495  13.288   0.566  11.533
93552SOL    HW282496  13.175   0.653  11.585
93553SOL     OW82497   6.854   6.866  10.807
93553SOL    HW182498   6.793   6.805  10.849
93553SOL    HW282499   6.905   6.812  10.747
93554SOL     OW82500  11.414   1.997  13.981
93554SOL    HW182501  11.342   1.945  13.946
93554SOL    HW282502  11.398   2.085  13.947
93555SOL     OW82503   8.792   1.966   4.671
93555SOL    HW182504   8.754   1.984   4.757
93555SOL    HW282505   8.885   1.984   4.681
93556SOL     OW82506   8.132  10.435   5.392
93556SOL    HW182507   8.106  10.524   5.371
93556SOL    HW282508   8.200  10.414   5.329
93557SOL     OW82509  10.628   1.464   1.825
93557SOL    HW182510  10.587   1.487   1.909
93557SOL    HW282511  10.614   1.541   1.770
93558SOL     OW82512   3.451   9.483   5.822
93558SOL    HW182513   3.455   9.505   5.729
93558SOL    HW282514   3.415   9.561   5.864
93559SOL     OW82515   4.087  11.117  12.513
93559SOL    HW182516   4.005  11.089  12.473
93559SOL    HW282517   4.136  11.037  12.528
93560SOL     OW82518   7.941  10.825  12.590
93560SOL    HW182519   7.895  10.765  12.531
93560SOL    HW282520   7.990  10.767  12.649
93561SOL     OW82521   2.155  13.239  11.265
93561SOL    HW182522   2.233  13.284  11.234
93561SOL    HW282523   2.082  13.296  11.239
93562SOL     OW82524  13.103   8.710   3.386
93562SOL    HW182525  13.037   8.647   3.416
93562SOL    HW282526  13.141   8.670   3.309
93563SOL     OW82527  10.952   6.268   1.973
93563SOL    HW182528  10.914   6.215   1.903
93563SOL    HW282529  10.926   6.358   1.951
93564SOL     OW82530   2.184  12.247  14.347
93564SOL    HW182531   2.173  12.221  14.256
93564SOL    HW282532   2.191  12.165  14.396
93565SOL     OW82533  11.859   6.439   3.380
93565SOL    HW182534  11.775   6.462   3.419
93565SOL    HW282535  11.906   6.391   3.448
93566SOL     OW82536   9.928   6.548  11.521
93566SOL    HW182537   9.889   6.505  11.445
93566SOL    HW282538  10.022   6.545  11.505
93567SOL     OW82539   3.915  12.910  11.003
93567SOL    HW182540   3.872  12.956  10.930
93567SOL    HW282541   4.008  12.925  10.989
93568SOL     OW82542   2.198  10.454   3.697
93568SOL    HW182543   2.245  10.462   3.614
93568SOL    HW282544   2.267  10.449   3.763
93569SOL     OW82545   0.411   1.859   1.863
93569SOL    HW182546   0.431   1.945   1.826
93569SOL    HW282547   0.317   1.848   1.849
93570SOL     OW82548  11.436   0.250   7.399
93570SOL    HW182549  11.521   0.212   7.421
93570SOL    HW282550  11.373   0.200   7.451
93571SOL     OW82551   6.539  11.685   6.695
93571SOL    HW182552   6.471  11.618   6.689
93571SOL    HW282553   6.504  11.749   6.756
93572SOL     OW82554  12.062   3.664   7.153
93572SOL    HW182555  11.992   3.600   7.166
93572SOL    HW282556  12.112   3.630   7.078
93573SOL     OW82557   5.486   0.892   2.536
93573SOL    HW182558   5.556   0.941   2.580
93573SOL    HW282559   5.415   0.889   2.600
93574SOL     OW82560   8.700   2.222  11.062
93574SOL    HW182561   8.748   2.155  11.113
93574SOL    HW282562   8.753   2.301  11.072
93575SOL     OW82563   4.513   6.963  12.898
93575SOL    HW182564   4.442   7.005  12.948
93575SOL    HW282565   4.503   6.998  12.809
93576SOL     OW82566  10.024  11.206  12.456
93576SOL    HW182567  10.096  11.182  12.515
93576SOL    HW282568  10.045  11.295  12.429
93577SOL     OW82569   8.523   5.357  14.505
93577SOL    HW182570   8.466   5.280  14.508
93577SOL    HW282571   8.590   5.335  14.440
93578SOL     OW82572   0.268   4.874  14.337
93578SOL    HW182573   0.266   4.871  14.433
93578SOL    HW282574   0.294   4.785  14.312
93579SOL     OW82575   1.226   9.957  11.355
93579SOL    HW182576   1.297  10.020  11.368
93579SOL    HW282577   1.210   9.920  11.442
93580SOL     OW82578   7.298  10.326   3.347
93580SOL    HW182579   7.332  10.413   3.326
93580SOL    HW282580   7.251  10.300   3.268
93581SOL     OW82581  14.429   2.262   4.370
93581SOL    HW182582  14.508   2.286   4.320
93581SOL    HW282583  14.407   2.174   4.341
93582SOL     OW82584   3.918  14.756   1.427
93582SOL    HW182585   3.877  14.837   1.456
93582SOL    HW282586   4.006  14.782   1.398
93583SOL     OW82587   3.233   7.260  10.298
93583SOL    HW182588   3.222   7.352  10.273
93583SOL    HW282589   3.250   7.215  10.215
93584SOL     OW82590   4.134  13.799   3.095
93584SOL    HW182591   4.180  13.719   3.071
93584SOL    HW282592   4.196  13.869   3.073
93585SOL     OW82593   5.837   4.764  14.668
93585SOL    HW182594   5.745   4.765  14.642
93585SOL    HW282595   5.865   4.674  14.653
93586SOL     OW82596  12.139   4.082   7.470
93586SOL    HW182597  12.104   3.993   7.460
93586SOL    HW282598  12.083   4.136   7.415
93587SOL     OW82599   6.895   2.274   0.649
93587SOL    HW182600   6.925   2.364   0.633
93587SOL    HW282601   6.953   2.220   0.595
93588SOL     OW82602  10.437  14.031  13.300
93588SOL    HW182603  10.393  14.102  13.347
93588SOL    HW282604  10.528  14.059  13.293
93589SOL     OW82605   5.328  12.894   8.691
93589SOL    HW182606   5.270  12.828   8.731
93589SOL    HW282607   5.318  12.971   8.746
93590SOL     OW82608   6.514   3.984  11.327
93590SOL    HW182609   6.449   3.958  11.262
93590SOL    HW282610   6.474   3.966  11.412
93591SOL     OW82611   5.117   6.101  11.681
93591SOL    HW182612   5.169   6.181  11.688
93591SOL    HW282613   5.088   6.098  11.590
93592SOL     OW82614  13.707   4.590   4.161
93592SOL    HW182615  13.698   4.544   4.244
93592SOL    HW282616  13.770   4.660   4.179
93593SOL     OW82617   9.182   2.872  14.047
93593SOL    HW182618   9.214   2.834  13.965
93593SOL    HW282619   9.258   2.917  14.084
93594SOL     OW82620  14.194   9.489  11.411
93594SOL    HW182621  14.196   9.581  11.382
93594SOL    HW282622  14.111   9.480  11.456
93595SOL     OW82623  11.419   8.839   4.688
93595SOL    HW182624  11.475   8.914   4.671
93595SOL    HW282625  11.478   8.770   4.716
93596SOL     OW82626  10.156   6.962   8.320
93596SOL    HW182627  10.105   7.025   8.269
93596SOL    HW282628  10.246   6.994   8.313
93597SOL     OW82629   5.909  13.840   9.817
93597SOL    HW182630   5.820  13.852   9.785
93597SOL    HW282631   5.899  13.822   9.910
93598SOL     OW82632   1.079  14.093   6.133
93598SOL    HW182633   1.137  14.135   6.196
93598SOL    HW282634   0.991  14.118   6.161
93599SOL     OW82635   6.429   3.940  10.228
93599SOL    HW182636   6.458   3.997  10.157
93599SOL    HW282637   6.499   3.875  10.237
93600SOL     OW82638   8.301  11.587  10.552
93600SOL    HW182639   8.393  11.614  10.544
93600SOL    HW282640   8.305  11.499  10.591
93601SOL     OW82641   9.100   3.796   0.469
93601SOL    HW182642   9.111   3.855   0.394
93601SOL    HW282643   9.031   3.735   0.442
93602SOL     OW82644   4.692  14.365   0.264
93602SOL    HW182645   4.618  14.307   0.280
93602SOL    HW282646   4.769  14.308   0.272
93603SOL     OW82647   3.555  12.128   9.345
93603SOL    HW182648   3.520  12.091   9.264
93603SOL    HW282649   3.479  12.137   9.402
93604SOL     OW82650  13.514  11.254   6.721
93604SOL    HW182651  13.520  11.340   6.764
93604SOL    HW282652  13.420  11.238   6.714
93605SOL     OW82653   9.767  14.130   6.983
93605SOL    HW182654   9.768  14.145   6.888
93605SOL    HW282655   9.759  14.217   7.021
93606SOL     OW82656   1.949   4.647   3.189
93606SOL    HW182657   1.901   4.728   3.199
93606SOL    HW282658   1.882   4.579   3.189
93607SOL     OW82659   2.376  12.505   3.673
93607SOL    HW182660   2.372  12.500   3.577
93607SOL    HW282661   2.284  12.514   3.700
93608SOL     OW82662  13.461   8.639   9.123
93608SOL    HW182663  13.376   8.657   9.162
93608SOL    HW282664  13.525   8.674   9.185
93609SOL     OW82665   6.604  14.018   0.356
93609SOL    HW182666   6.662  13.958   0.404
93609SOL    HW282667   6.535  13.961   0.321
93610SOL     OW82668  11.544  11.574   5.278
93610SOL    HW182669  11.522  11.499   5.333
93610SOL    HW282670  11.640  11.576   5.277
93611SOL     OW82671   0.752   0.750   8.480
93611SOL    HW182672   0.781   0.807   8.410
93611SOL    HW282673   0.784   0.791   8.560
93612SOL     OW82674  12.898   6.520  12.936
93612SOL    HW182675  12.879   6.428  12.955
93612SOL    HW282676  12.940   6.552  13.016
93613SOL     OW82677  14.027   0.345   6.610
93613SOL    HW182678  14.120   0.333   6.634
93613SOL    HW282679  13.984   0.267   6.646
93614SOL     OW82680   6.426  10.683   6.281
93614SOL    HW182681   6.369  10.650   6.350
93614SOL    HW282682   6.483  10.609   6.260
93615SOL     OW82683   5.456   2.853   1.134
93615SOL    HW182684   5.456   2.772   1.185
93615SOL    HW282685   5.504   2.831   1.054
93616SOL     OW82686   7.941   9.613   8.570
93616SOL    HW182687   7.922   9.548   8.638
93616SOL    HW282688   7.931   9.565   8.488
93617SOL     OW82689  11.382   7.151   5.874
93617SOL    HW182690  11.438   7.075   5.891
93617SOL    HW282691  11.405   7.214   5.942
93618SOL     OW82692   7.289  10.672   4.665
93618SOL    HW182693   7.257  10.708   4.582
93618SOL    HW282694   7.368  10.723   4.683
93619SOL     OW82695  11.683   6.261  14.396
93619SOL    HW182696  11.745   6.333  14.392
93619SOL    HW282697  11.648   6.264  14.485
93620SOL     OW82698  10.984   9.009  11.476
93620SOL    HW182699  10.978   8.931  11.531
93620SOL    HW282700  10.949   9.080  11.529
93621SOL     OW82701   5.008   9.771   0.663
93621SOL    HW182702   5.098   9.787   0.638
93621SOL    HW282703   4.961   9.759   0.580
93622SOL     OW82704  11.410  12.724   2.409
93622SOL    HW182705  11.495  12.688   2.384
93622SOL    HW282706  11.347  12.655   2.387
93623SOL     OW82707  12.128   2.065  13.447
93623SOL    HW182708  12.067   2.011  13.497
93623SOL    HW282709  12.175   2.003  13.390
93624SOL     OW82710   0.950   7.908   8.972
93624SOL    HW182711   0.878   7.905   8.908
93624SOL    HW282712   1.023   7.945   8.923
93625SOL     OW82713   1.085   5.258   0.181
93625SOL    HW182714   1.121   5.318   0.246
93625SOL    HW282715   1.162   5.216   0.142
93626SOL     OW82716   0.157  13.261   8.579
93626SOL    HW182717   0.225  13.328   8.576
93626SOL    HW282718   0.195  13.191   8.632
93627SOL     OW82719  12.219   5.026   8.341
93627SOL    HW182720  12.165   4.981   8.405
93627SOL    HW282721  12.197   4.986   8.257
93628SOL     OW82722  13.994   0.331  12.039
93628SOL    HW182723  14.022   0.241  12.024
93628SOL    HW282724  14.029   0.380  11.965
93629SOL     OW82725   9.382  10.056  13.501
93629SOL    HW182726   9.446  10.058  13.430
93629SOL    HW282727   9.407   9.981  13.554
93630SOL     OW82728  14.856  14.287   6.895
93630SOL    HW182729   0.025  14.245   6.826
93630SOL    HW282730  14.772  14.307   6.854
93631SOL     OW82731  14.734   6.410   2.114
93631SOL    HW182732  14.706   6.353   2.042
93631SOL    HW282733  14.794   6.473   2.073
93632SOL     OW82734  13.428   5.490  14.642
93632SOL    HW182735  13.496   5.546  14.604
93632SOL    HW282736  13.361   5.551  14.674
93633SOL     OW82737   7.638  12.789   5.230
93633SOL    HW182738   7.623  12.777   5.324
93633SOL    HW282739   7.561  12.750   5.189
93634SOL     OW82740   3.569  11.901   6.352
93634SOL    HW182741   3.609  11.859   6.428
93634SOL    HW282742   3.516  11.832   6.312
93635SOL     OW82743  12.619   8.059   7.364
93635SOL    HW182744  12.667   8.076   7.445
93635SOL    HW282745  12.554   7.993   7.389
93636SOL     OW82746   5.815  13.308  13.320
93636SOL    HW182747   5.750  13.361  13.365
93636SOL    HW282748   5.779  13.293  13.233
93637SOL     OW82749   3.466   4.448   9.597
93637SOL    HW182750   3.390   4.402   9.634
93637SOL    HW282751   3.429   4.523   9.551
93638SOL     OW82752   5.531  12.649   9.104
93638SOL    HW182753   5.488  12.617   9.025
93638SOL    HW282754   5.481  12.726   9.129
93639SOL     OW82755   1.840   7.149  13.512
93639SOL    HW182756   1.772   7.113  13.456
93639SOL    HW282757   1.908   7.179  13.452
93640SOL     OW82758  13.962  14.816   4.404
93640SOL    HW182759  13.964  14.725   4.374
93640SOL    HW282760  14.044  14.854   4.371
93641SOL     OW82761   8.961  13.922   7.823
93641SOL    HW182762   8.920  13.858   7.881
93641SOL    HW282763   8.896  13.937   7.754
93642SOL     OW82764   9.317   2.496  14.605
93642SOL    HW182765   9.344   2.456  14.688
93642SOL    HW282766   9.253   2.562  14.631
93643SOL     OW82767  12.891  13.594   1.495
93643SOL    HW182768  12.907  13.687   1.483
93643SOL    HW282769  12.973  13.560   1.531
93644SOL     OW82770   5.645   9.210  12.296
93644SOL    HW182771   5.591   9.224  12.374
93644SOL    HW282772   5.582   9.195  12.226
93645SOL     OW82773  12.480   4.273   2.240
93645SOL    HW182774  12.538   4.299   2.312
93645SOL    HW282775  12.400   4.323   2.254
93646SOL     OW82776   1.232   1.306   0.068
93646SOL    HW182777   1.138   1.292   0.063
93646SOL    HW282778   1.268   1.219   0.087
93647SOL     OW82779  10.744   7.495   2.314
93647SOL    HW182780  10.659   7.491   2.269
93647SOL    HW282781  10.779   7.581   2.291
93648SOL     OW82782  11.365   8.828   1.378
93648SOL    HW182783  11.337   8.913   1.345
93648SOL    HW282784  11.378   8.774   1.300
93649SOL     OW82785   0.764   4.437   4.174
93649SOL    HW182786   0.841   4.387   4.200
93649SOL    HW282787   0.752   4.501   4.244
93650SOL     OW82788  10.149   6.920   3.520
93650SOL    HW182789  10.063   6.879   3.512
93650SOL    HW282790  10.148   6.962   3.606
93651SOL     OW82791   1.757   3.103   6.856
93651SOL    HW182792   1.712   3.182   6.826
93651SOL    HW282793   1.841   3.104   6.810
93652SOL     OW82794  14.753   1.280  13.785
93652SOL    HW182795  14.767   1.265  13.879
93652SOL    HW282796  14.714   1.367  13.781
93653SOL     OW82797   6.018  10.407   2.788
93653SOL    HW182798   5.969  10.383   2.866
93653SOL    HW282799   6.103  10.437   2.822
93654SOL     OW82800   7.189   7.837   3.938
93654SOL    HW182801   7.094   7.842   3.947
93654SOL    HW282802   7.214   7.757   3.985
93655SOL     OW82803   5.541   9.970   8.269
93655SOL    HW182804   5.565   9.903   8.205
93655SOL    HW282805   5.464   9.935   8.313
93656SOL     OW82806  12.076   2.541   8.087
93656SOL    HW182807  12.142   2.476   8.060
93656SOL    HW282808  12.061   2.594   8.009
93657SOL     OW82809  13.462   4.776   9.937
93657SOL    HW182810  13.422   4.715   9.999
93657SOL    HW282811  13.390   4.834   9.911
93658SOL     OW82812  10.487   6.003  14.032
93658SOL    HW182813  10.417   5.961  13.983
93658SOL    HW282814  10.556   5.937  14.037
93659SOL     OW82815   4.447   2.435  10.316
93659SOL    HW182816   4.362   2.437  10.360
93659SOL    HW282817   4.490   2.516  10.342
93660SOL     OW82818   9.996  11.257  13.152
93660SOL    HW182819   9.928  11.313  13.117
93660SOL    HW282820   9.953  11.208  13.223
93661SOL     OW82821   8.796  10.028   9.773
93661SOL    HW182822   8.860  10.029   9.844
93661SOL    HW282823   8.743   9.950   9.789
93662SOL     OW82824   1.051   6.507   7.251
93662SOL    HW182825   1.012   6.501   7.164
93662SOL    HW282826   1.124   6.444   7.250
93663SOL     OW82827  14.760   0.000  14.598
93663SOL    HW182828  14.697  14.862  14.667
93663SOL    HW282829  14.822  14.809  14.599
93664SOL     OW82830   3.544   8.710   7.600
93664SOL    HW182831   3.621   8.664   7.634
93664SOL    HW282832   3.479   8.641   7.586
93665SOL     OW82833   7.448   8.822   0.379
93665SOL    HW182834   7.500   8.852   0.454
93665SOL    HW282835   7.466   8.728   0.374
93666SOL     OW82836   7.957   4.544  12.481
93666SOL    HW182837   7.862   4.550  12.490
93666SOL    HW282838   7.974   4.575  12.392
93667SOL     OW82839   3.361   3.457   6.508
93667SOL    HW182840   3.267   3.457   6.487
93667SOL    HW282841   3.391   3.543   6.479
93668SOL     OW82842   2.601   9.205  12.282
93668SOL    HW182843   2.638   9.292  12.297
93668SOL    HW282844   2.670   9.144  12.308
93669SOL     OW82845   4.455  13.966   7.730
93669SOL    HW182846   4.375  13.914   7.726
93669SOL    HW282847   4.437  14.033   7.796
93670SOL     OW82848   7.384   6.448   8.685
93670SOL    HW182849   7.339   6.395   8.618
93670SOL    HW282850   7.393   6.389   8.760
93671SOL     OW82851  10.836   0.798  12.390
93671SOL    HW182852  10.825   0.704  12.378
93671SOL    HW282853  10.865   0.808  12.480
93672SOL     OW82854   0.854   0.602   2.320
93672SOL    HW182855   0.804   0.673   2.359
93672SOL    HW282856   0.916   0.576   2.387
93673SOL     OW82857  14.551   3.620  11.391
93673SOL    HW182858  14.641   3.616  11.360
93673SOL    HW282859  14.553   3.583  11.479
93674SOL     OW82860   8.764   0.875   6.687
93674SOL    HW182861   8.825   0.857   6.615
93674SOL    HW282862   8.812   0.936   6.744
93675SOL     OW82863  14.629   5.658   7.431
93675SOL    HW182864  14.720   5.666   7.461
93675SOL    HW282865  14.576   5.681   7.508
93676SOL     OW82866   1.230   5.163   5.148
93676SOL    HW182867   1.270   5.141   5.064
93676SOL    HW282868   1.257   5.093   5.207
93677SOL     OW82869   1.582  14.695   3.847
93677SOL    HW182870   1.560  14.764   3.784
93677SOL    HW282871   1.648  14.735   3.904
93678SOL     OW82872   5.891  13.463   5.363
93678SOL    HW182873   5.864  13.496   5.278
93678SOL    HW282874   5.908  13.542   5.415
93679SOL     OW82875   9.951  12.467  14.532
93679SOL    HW182876   9.964  12.560  14.514
93679SOL    HW282877   9.939  12.461  14.627
93680SOL     OW82878   8.174   3.527   6.262
93680SOL    HW182879   8.218   3.574   6.333
93680SOL    HW282880   8.242   3.512   6.197
93681SOL     OW82881  10.625   4.777   7.808
93681SOL    HW182882  10.628   4.682   7.803
93681SOL    HW282883  10.598   4.805   7.720
93682SOL     OW82884   7.551   1.916   5.950
93682SOL    HW182885   7.519   1.902   6.039
93682SOL    HW282886   7.485   1.875   5.894
93683SOL     OW82887   3.025  13.101  14.162
93683SOL    HW182888   3.086  13.056  14.104
93683SOL    HW282889   3.071  13.182  14.186
93684SOL     OW82890   1.632   8.871   3.002
93684SOL    HW182891   1.625   8.961   3.034
93684SOL    HW282892   1.631   8.817   3.081
93685SOL     OW82893  10.383   7.375   8.863
93685SOL    HW182894  10.459   7.378   8.921
93685SOL    HW282895  10.313   7.339   8.918
93686SOL     OW82896   4.073   8.706   0.893
93686SOL    HW182897   4.139   8.751   0.945
93686SOL    HW282898   3.998   8.696   0.952
93687SOL     OW82899   2.077   1.349   2.544
93687SOL    HW182900   1.993   1.341   2.498
93687SOL    HW282901   2.141   1.364   2.475
93688SOL     OW82902   5.075  10.099  13.216
93688SOL    HW182903   5.075  10.119  13.122
93688SOL    HW282904   5.011  10.160  13.254
93689SOL     OW82905   5.456   2.103   7.024
93689SOL    HW182906   5.369   2.078   6.992
93689SOL    HW282907   5.441   2.138   7.112
93690SOL     OW82908   8.434   2.572   8.589
93690SOL    HW182909   8.503   2.613   8.537
93690SOL    HW282910   8.354   2.591   8.540
93691SOL     OW82911  13.982   4.819   3.911
93691SOL    HW182912  14.043   4.780   3.974
93691SOL    HW282913  14.037   4.838   3.834
93692SOL     OW82914   2.182   5.558   1.055
93692SOL    HW182915   2.257   5.565   0.997
93692SOL    HW282916   2.206   5.607   1.133
93693SOL     OW82917   3.936  11.874  10.327
93693SOL    HW182918   3.920  11.835  10.241
93693SOL    HW282919   4.004  11.941  10.311
93694SOL     OW82920  12.504   0.634   8.457
93694SOL    HW182921  12.443   0.574   8.500
93694SOL    HW282922  12.576   0.579   8.428
93695SOL     OW82923  11.119   4.562  11.974
93695SOL    HW182924  11.064   4.499  12.020
93695SOL    HW282925  11.199   4.514  11.953
93696SOL     OW82926  11.433   4.763  13.048
93696SOL    HW182927  11.505   4.760  13.111
93696SOL    HW282928  11.365   4.813  13.092
93697SOL     OW82929   9.155   0.385   8.633
93697SOL    HW182930   9.235   0.339   8.605
93697SOL    HW282931   9.132   0.440   8.559
93698SOL     OW82932  11.562   2.931   6.175
93698SOL    HW182933  11.589   2.844   6.146
93698SOL    HW282934  11.475   2.918   6.214
93699SOL     OW82935   7.789   8.546   9.694
93699SOL    HW182936   7.710   8.573   9.648
93699SOL    HW282937   7.841   8.499   9.628
93700SOL     OW82938  11.818   2.994  12.493
93700SOL    HW182939  11.876   2.928  12.454
93700SOL    HW282940  11.791   3.049  12.420
93701SOL     OW82941   3.128   9.393  12.504
93701SOL    HW182942   3.200   9.449  12.475
93701SOL    HW282943   3.172   9.315  12.540
93702SOL     OW82944   6.297   0.941  11.803
93702SOL    HW182945   6.279   0.996  11.879
93702SOL    HW282946   6.370   0.983  11.759
93703SOL     OW82947  14.787  12.593  10.350
93703SOL    HW182948  14.735  12.667  10.383
93703SOL    HW282949  14.723  12.530  10.318
93704SOL     OW82950  13.525   2.062  14.694
93704SOL    HW182951  13.519   2.088  14.602
93704SOL    HW282952  13.525   2.145  14.743
93705SOL     OW82953   4.375   3.280  10.404
93705SOL    HW182954   4.318   3.204  10.393
93705SOL    HW282955   4.374   3.298  10.498
93706SOL     OW82956  13.025   1.684  10.740
93706SOL    HW182957  12.977   1.701  10.821
93706SOL    HW282958  13.028   1.769  10.696
93707SOL     OW82959   0.986   2.170   8.100
93707SOL    HW182960   1.076   2.140   8.086
93707SOL    HW282961   0.983   2.256   8.059
93708SOL     OW82962  13.158  14.263   0.643
93708SOL    HW182963  13.248  14.293   0.657
93708SOL    HW282964  13.118  14.266   0.730
93709SOL     OW82965  10.811  12.081  11.869
93709SOL    HW182966  10.744  12.047  11.809
93709SOL    HW282967  10.870  12.131  11.812
93710SOL     OW82968   7.497   5.753  10.561
93710SOL    HW182969   7.591   5.737  10.557
93710SOL    HW282970   7.467   5.699  10.635
93711SOL     OW82971   2.612   0.454   3.319
93711SOL    HW182972   2.678   0.499   3.267
93711SOL    HW282973   2.529   0.477   3.277
93712SOL     OW82974  11.659  10.147  12.350
93712SOL    HW182975  11.569  10.167  12.375
93712SOL    HW282976  11.708  10.151  12.432
93713SOL     OW82977   2.693   8.296   5.174
93713SOL    HW182978   2.756   8.284   5.245
93713SOL    HW282979   2.746   8.284   5.094
93714SOL     OW82980   4.659   0.316   3.654
93714SOL    HW182981   4.566   0.341   3.661
93714SOL    HW282982   4.683   0.287   3.742
93715SOL     OW82983   2.038  12.000   1.749
93715SOL    HW182984   2.046  12.095   1.736
93715SOL    HW282985   1.958  11.977   1.702
93716SOL     OW82986   9.023   6.259   2.108
93716SOL    HW182987   8.997   6.170   2.081
93716SOL    HW282988   9.001   6.263   2.201
93717SOL     OW82989   3.964   6.463   4.537
93717SOL    HW182990   3.989   6.533   4.598
93717SOL    HW282991   4.003   6.489   4.453
93718SOL     OW82992   7.452   9.177   2.593
93718SOL    HW182993   7.390   9.136   2.534
93718SOL    HW282994   7.469   9.111   2.660
93719SOL     OW82995   4.759   2.042  10.125
93719SOL    HW182996   4.692   2.047  10.193
93719SOL    HW282997   4.819   1.974  10.155
93720SOL     OW82998   8.406   1.284   4.469
93720SOL    HW182999   8.468   1.294   4.542
93720SOL    HW283000   8.343   1.355   4.481
93721SOL     OW83001   8.214   6.877   1.562
93721SOL    HW183002   8.141   6.924   1.601
93721SOL    HW283003   8.219   6.795   1.611
93722SOL     OW83004  10.146   1.770   2.212
93722SOL    HW183005  10.098   1.818   2.144
93722SOL    HW283006  10.199   1.837   2.255
93723SOL     OW83007  11.314   4.274  12.436
93723SOL    HW183008  11.345   4.346  12.490
93723SOL    HW283009  11.356   4.287  12.351
93724SOL     OW83010   0.495   9.322  13.712
93724SOL    HW183011   0.529   9.260  13.647
93724SOL    HW283012   0.400   9.313  13.705
93725SOL     OW83013   5.470   2.621   7.544
93725SOL    HW183014   5.396   2.611   7.604
93725SOL    HW283015   5.537   2.667   7.595
93726SOL     OW83016  13.417   5.785   0.764
93726SOL    HW183017  13.392   5.866   0.808
93726SOL    HW283018  13.335   5.751   0.728
93727SOL     OW83019  10.277  12.731   2.374
93727SOL    HW183020  10.370  12.748   2.386
93727SOL    HW283021  10.261  12.647   2.418
93728SOL     OW83022   4.713  14.456  12.393
93728SOL    HW183023   4.741  14.364  12.390
93728SOL    HW283024   4.701  14.480  12.301
93729SOL     OW83025   7.989   9.926  12.395
93729SOL    HW183026   7.927   9.912  12.324
93729SOL    HW283027   8.014   9.837  12.423
93730SOL     OW83028   7.188   9.571  13.657
93730SOL    HW183029   7.151   9.548  13.572
93730SOL    HW283030   7.113   9.575  13.716
93731SOL     OW83031   0.881  11.359   9.396
93731SOL    HW183032   0.934  11.298   9.344
93731SOL    HW283033   0.934  11.438   9.400
93732SOL     OW83034  10.811   2.848   0.629
93732SOL    HW183035  10.842   2.927   0.585
93732SOL    HW283036  10.813   2.781   0.561
93733SOL     OW83037   8.165   5.798   3.930
93733SOL    HW183038   8.224   5.760   3.995
93733SOL    HW283039   8.154   5.889   3.958
93734SOL     OW83040   2.725   7.149  13.569
93734SOL    HW183041   2.783   7.175  13.640
93734SOL    HW283042   2.642   7.193  13.588
93735SOL     OW83043  14.003   8.882   3.969
93735SOL    HW183044  14.071   8.907   4.031
93735SOL    HW283045  13.943   8.957   3.967
93736SOL     OW83046   6.208   1.746   7.164
93736SOL    HW183047   6.179   1.782   7.080
93736SOL    HW283048   6.239   1.822   7.213
93737SOL     OW83049  12.418   6.444  14.844
93737SOL    HW183050  12.459   6.420   0.045
93737SOL    HW283051  12.363   6.370  14.821
93738SOL     OW83052   1.423  12.345   5.006
93738SOL    HW183053   1.383  12.283   5.068
93738SOL    HW283054   1.435  12.425   5.057
93739SOL     OW83055   1.227   8.725   5.124
93739SOL    HW183056   1.265   8.639   5.108
93739SOL    HW283057   1.146   8.708   5.172
93740SOL     OW83058   0.071   3.963   3.772
93740SOL    HW183059   0.120   3.999   3.846
93740SOL    HW283060  14.868   4.006   3.776
93741SOL     OW83061  12.803  12.073   3.425
93741SOL    HW183062  12.771  12.012   3.359
93741SOL    HW283063  12.791  12.159   3.386
93742SOL     OW83064   5.068   6.603   4.066
93742SOL    HW183065   5.135   6.671   4.067
93742SOL    HW283066   5.117   6.521   4.072
93743SOL     OW83067   4.977  14.726   7.857
93743SOL    HW183068   4.912  14.759   7.919
93743SOL    HW283069   5.047  14.690   7.911
93744SOL     OW83070  13.404  14.712   2.732
93744SOL    HW183071  13.353  14.643   2.774
93744SOL    HW283072  13.467  14.665   2.677
93745SOL     OW83073   4.939  10.278   2.892
93745SOL    HW183074   4.915  10.259   2.982
93745SOL    HW283075   4.949  10.192   2.851
93746SOL     OW83076   0.449  12.377   7.924
93746SOL    HW183077   0.357  12.359   7.906
93746SOL    HW283078   0.449  12.457   7.975
93747SOL     OW83079  12.610  12.430  13.909
93747SOL    HW183080  12.545  12.428  13.839
93747SOL    HW283081  12.607  12.343  13.948
93748SOL     OW83082  14.229  12.883   4.497
93748SOL    HW183083  14.168  12.870   4.424
93748SOL    HW283084  14.284  12.804   4.496
93749SOL     OW83085   0.705  13.175   7.880
93749SOL    HW183086   0.639  13.113   7.851
93749SOL    HW283087   0.783  13.122   7.896
93750SOL     OW83088   2.503   7.477   3.775
93750SOL    HW183089   2.433   7.472   3.710
93750SOL    HW283090   2.537   7.388   3.780
93751SOL     OW83091   3.442   6.485   4.598
93751SOL    HW183092   3.359   6.520   4.564
93751SOL    HW283093   3.416   6.419   4.662
93752SOL     OW83094   6.747  10.358   1.553
93752SOL    HW183095   6.722  10.396   1.469
93752SOL    HW283096   6.724  10.265   1.544
93753SOL     OW83097   9.015   8.847   3.100
93753SOL    HW183098   8.961   8.817   3.028
93753SOL    HW283099   9.099   8.870   3.060
93754SOL     OW83100  12.220   6.471   2.057
93754SOL    HW183101  12.304   6.514   2.078
93754SOL    HW283102  12.240   6.378   2.059
93755SOL     OW83103  10.020   8.188  12.719
93755SOL    HW183104  10.013   8.270  12.768
93755SOL    HW283105  10.064   8.212  12.638
93756SOL     OW83106  12.986   1.745   1.754
93756SOL    HW183107  13.072   1.783   1.739
93756SOL    HW283108  12.971   1.689   1.677
93757SOL     OW83109   9.249   5.943  13.924
93757SOL    HW183110   9.284   5.983  13.844
93757SOL    HW283111   9.301   5.981  13.995
93758SOL     OW83112  11.860   7.401   6.858
93758SOL    HW183113  11.863   7.495   6.875
93758SOL    HW283114  11.864   7.360   6.945
93759SOL     OW83115   6.897   4.390   3.328
93759SOL    HW183116   6.904   4.485   3.331
93759SOL    HW283117   6.851   4.372   3.246
93760SOL     OW83118   2.106  10.522   0.306
93760SOL    HW183119   2.146  10.550   0.388
93760SOL    HW283120   2.087  10.603   0.259
93761SOL     OW83121   1.247  13.472   0.857
93761SOL    HW183122   1.207  13.479   0.943
93761SOL    HW283123   1.291  13.387   0.857
93762SOL     OW83124   8.346   1.752   1.869
93762SOL    HW183125   8.437   1.726   1.850
93762SOL    HW283126   8.354   1.835   1.916
93763SOL     OW83127  11.255   3.275   3.614
93763SOL    HW183128  11.209   3.330   3.551
93763SOL    HW283129  11.241   3.185   3.584
93764SOL     OW83130  13.075   8.440   1.435
93764SOL    HW183131  12.996   8.463   1.484
93764SOL    HW283132  13.042   8.390   1.360
93765SOL     OW83133  11.881  11.041   1.139
93765SOL    HW183134  11.851  11.084   1.058
93765SOL    HW283135  11.973  11.064   1.145
93766SOL     OW83136  11.615   2.326  10.986
93766SOL    HW183137  11.659   2.391  10.931
93766SOL    HW283138  11.617   2.364  11.074
93767SOL     OW83139   0.002  11.181  10.124
93767SOL    HW183140  14.848  11.248  10.182
93767SOL    HW283141   0.035  11.230  10.049
93768SOL     OW83142   9.970   0.097  12.454
93768SOL    HW183143   9.995   0.090  12.546
93768SOL    HW283144   9.875   0.083  12.454
93769SOL     OW83145   5.875   6.292   4.117
93769SOL    HW183146   5.867   6.277   4.211
93769SOL    HW283147   5.842   6.212   4.077
93770SOL     OW83148   9.002   5.581   2.087
93770SOL    HW183149   8.907   5.580   2.097
93770SOL    HW283150   9.025   5.674   2.088
93771SOL     OW83151   0.738   9.756   6.512
93771SOL    HW183152   0.719   9.814   6.438
93771SOL    HW283153   0.681   9.681   6.499
93772SOL     OW83154  11.407   0.804   8.920
93772SOL    HW183155  11.313   0.793   8.910
93772SOL    HW283156  11.443   0.784   8.833
93773SOL     OW83157  12.243   0.435  12.752
93773SOL    HW183158  12.194   0.482  12.820
93773SOL    HW283159  12.268   0.504  12.690
93774SOL     OW83160   0.291   5.096  12.377
93774SOL    HW183161   0.343   5.101  12.297
93774SOL    HW283162   0.340   5.036  12.434
93775SOL     OW83163  10.575   5.217   6.939
93775SOL    HW183164  10.661   5.214   6.898
93775SOL    HW283165  10.568   5.306   6.974
93776SOL     OW83166   7.371  12.727  14.373
93776SOL    HW183167   7.308  12.785  14.414
93776SOL    HW283168   7.422  12.691  14.445
93777SOL     OW83169   7.574  13.732   0.129
93777SOL    HW183170   7.532  13.647   0.115
93777SOL    HW283171   7.571  13.743   0.224
93778SOL     OW83172  10.406   4.051  14.421
93778SOL    HW183173  10.420   4.066  14.515
93778SOL    HW283174  10.411   3.956  14.411
93779SOL     OW83175  10.995  11.217   0.298
93779SOL    HW183176  10.938  11.233   0.223
93779SOL    HW283177  10.957  11.141   0.342
93780SOL     OW83178   7.926  10.172   0.438
93780SOL    HW183179   7.942  10.226   0.516
93780SOL    HW283180   7.925  10.082   0.471
93781SOL     OW83181  12.235  13.108  14.762
93781SOL    HW183182  12.286  13.037  14.802
93781SOL    HW283183  12.144  13.083  14.776
93782SOL     OW83184  14.094  12.450   7.617
93782SOL    HW183185  14.038  12.522   7.589
93782SOL    HW283186  14.179  12.490   7.633
93783SOL     OW83187   0.156  12.667   1.310
93783SOL    HW183188   0.133  12.731   1.378
93783SOL    HW283189   0.101  12.691   1.235
93784SOL     OW83190  11.547   5.181  10.443
93784SOL    HW183191  11.530   5.255  10.501
93784SOL    HW283192  11.643   5.176  10.438
93785SOL     OW83193   9.340   2.154  10.465
93785SOL    HW183194   9.297   2.094  10.526
93785SOL    HW283195   9.352   2.103  10.385
93786SOL     OW83196   5.381  12.667   6.938
93786SOL    HW183197   5.447  12.732   6.961
93786SOL    HW283198   5.320  12.669   7.012
93787SOL     OW83199   8.451   5.642   8.640
93787SOL    HW183200   8.427   5.684   8.557
93787SOL    HW283201   8.533   5.597   8.621
93788SOL     OW83202   0.448   8.259  13.733
93788SOL    HW183203   0.400   8.276  13.651
93788SOL    HW283204   0.412   8.177  13.766
93789SOL     OW83205  12.504   6.584   7.825
93789SOL    HW183206  12.493   6.606   7.732
93789SOL    HW283207  12.459   6.500   7.835
93790SOL     OW83208  11.126   4.528   7.863
93790SOL    HW183209  11.049   4.557   7.913
93790SOL    HW283210  11.095   4.450   7.816
93791SOL     OW83211  10.872   7.376   7.319
93791SOL    HW183212  10.910   7.397   7.234
93791SOL    HW283213  10.779   7.363   7.301
93792SOL     OW83214   5.097   1.857  10.852
93792SOL    HW183215   5.108   1.763  10.866
93792SOL    HW283216   5.187   1.890  10.841
93793SOL     OW83217   2.006   8.271   8.738
93793SOL    HW183218   2.052   8.223   8.807
93793SOL    HW283219   1.925   8.301   8.779
93794SOL     OW83220  11.980   3.266   9.273
93794SOL    HW183221  11.982   3.362   9.271
93794SOL    HW283222  11.888   3.244   9.258
93795SOL     OW83223  14.303  13.804   6.600
93795SOL    HW183224  14.260  13.807   6.515
93795SOL    HW283225  14.373  13.868   6.596
93796SOL     OW83226   1.034  12.915   8.029
93796SOL    HW183227   0.984  12.960   8.097
93796SOL    HW283228   1.077  12.843   8.074
93797SOL     OW83229   1.379  11.897  11.766
93797SOL    HW183230   1.361  11.978  11.813
93797SOL    HW283231   1.470  11.877  11.788
93798SOL     OW83232   3.526   4.022   7.670
93798SOL    HW183233   3.599   4.050   7.614
93798SOL    HW283234   3.545   3.930   7.689
93799SOL     OW83235   4.726  14.332  10.086
93799SOL    HW183236   4.781  14.261  10.052
93799SOL    HW283237   4.784  14.382  10.144
93800SOL     OW83238   1.491   4.081  13.626
93800SOL    HW183239   1.427   4.030  13.576
93800SOL    HW283240   1.464   4.070  13.717
93801SOL     OW83241   1.978   9.894  14.228
93801SOL    HW183242   1.913   9.829  14.256
93801SOL    HW283243   1.933   9.946  14.162
93802SOL     OW83244   7.586   7.010   3.475
93802SOL    HW183245   7.519   7.054   3.528
93802SOL    HW283246   7.597   7.065   3.398
93803SOL     OW83247   7.425   7.913   9.446
93803SOL    HW183248   7.365   7.974   9.402
93803SOL    HW283249   7.470   7.967   9.511
93804SOL     OW83250   2.784   0.329   4.520
93804SOL    HW183251   2.851   0.277   4.565
93804SOL    HW283252   2.797   0.418   4.553
93805SOL     OW83253   1.336   5.787   6.070
93805SOL    HW183254   1.313   5.701   6.106
93805SOL    HW283255   1.267   5.845   6.100
93806SOL     OW83256   2.183  13.851  14.679
93806SOL    HW183257   2.192  13.768  14.727
93806SOL    HW283258   2.127  13.829  14.605
93807SOL     OW83259   1.851   0.959   1.202
93807SOL    HW183260   1.756   0.974   1.205
93807SOL    HW283261   1.883   1.022   1.137
93808SOL     OW83262   4.798   9.855   3.059
93808SOL    HW183263   4.776   9.785   2.997
93808SOL    HW283264   4.853   9.812   3.125
93809SOL     OW83265   7.771   3.262   2.630
93809SOL    HW183266   7.704   3.227   2.572
93809SOL    HW283267   7.841   3.197   2.627
93810SOL     OW83268  12.288  11.535  10.707
93810SOL    HW183269  12.209  11.588  10.702
93810SOL    HW283270  12.350  11.579  10.648
93811SOL     OW83271  11.477   5.289   4.327
93811SOL    HW183272  11.406   5.225   4.336
93811SOL    HW283273  11.514   5.295   4.415
93812SOL     OW83274   6.553   2.764   6.415
93812SOL    HW183275   6.605   2.814   6.352
93812SOL    HW283276   6.499   2.706   6.361
93813SOL     OW83277   7.266   1.263  10.474
93813SOL    HW183278   7.326   1.193  10.499
93813SOL    HW283279   7.281   1.332  10.539
93814SOL     OW83280   4.243   0.866   6.017
93814SOL    HW183281   4.260   0.943   6.071
93814SOL    HW283282   4.275   0.890   5.930
93815SOL     OW83283  11.631   3.738  10.555
93815SOL    HW183284  11.610   3.689  10.634
93815SOL    HW283285  11.565   3.712  10.491
93816SOL     OW83286   6.455   4.009  14.074
93816SOL    HW183287   6.458   4.064  13.996
93816SOL    HW283288   6.482   4.067  14.146
93817SOL     OW83289   9.583   5.538   9.354
93817SOL    HW183290   9.597   5.541   9.259
93817SOL    HW283291   9.670   5.539   9.392
93818SOL     OW83292   1.106   0.076   0.269
93818SOL    HW183293   1.096   0.169   0.250
93818SOL    HW283294   1.193   0.068   0.309
93819SOL     OW83295  10.688  12.692   6.830
93819SOL    HW183296  10.667  12.727   6.917
93819SOL    HW283297  10.637  12.746   6.770
93820SOL     OW83298  10.697  11.225   0.555
93820SOL    HW183299  10.759  11.184   0.495
93820SOL    HW283300  10.709  11.179   0.638
93821SOL     OW83301  13.805  13.367   6.516
93821SOL    HW183302  13.844  13.451   6.491
93821SOL    HW283303  13.823  13.358   6.609
93822SOL     OW83304   3.841   1.060  12.817
93822SOL    HW183305   3.792   1.035  12.895
93822SOL    HW283306   3.794   1.019  12.744
93823SOL     OW83307   7.397  10.162  14.379
93823SOL    HW183308   7.457  10.224  14.339
93823SOL    HW283309   7.453  10.100  14.426
93824SOL     OW83310  12.520  11.090   8.691
93824SOL    HW183311  12.524  10.999   8.660
93824SOL    HW283312  12.477  11.083   8.777
93825SOL     OW83313   7.685   1.495   5.276
93825SOL    HW183314   7.622   1.540   5.220
93825SOL    HW283315   7.658   1.404   5.275
93826SOL     OW83316  14.152  10.303   0.435
93826SOL    HW183317  14.224  10.254   0.396
93826SOL    HW283318  14.158  10.284   0.529
93827SOL     OW83319   3.936   5.877  11.499
93827SOL    HW183320   3.956   5.905  11.410
93827SOL    HW283321   3.848   5.910  11.515
93828SOL     OW83322   3.927   5.725   1.565
93828SOL    HW183323   3.880   5.720   1.648
93828SOL    HW283324   4.005   5.671   1.578
93829SOL     OW83325   6.081   5.540  11.873
93829SOL    HW183326   6.117   5.462  11.915
93829SOL    HW283327   6.158   5.595  11.855
93830SOL     OW83328   8.010   8.874   5.761
93830SOL    HW183329   8.095   8.844   5.728
93830SOL    HW283330   8.010   8.968   5.743
93831SOL     OW83331  14.408   0.529   8.944
93831SOL    HW183332  14.397   0.620   8.916
93831SOL    HW283333  14.488   0.530   8.996
93832SOL     OW83334   5.428  10.278  10.040
93832SOL    HW183335   5.367  10.206  10.029
93832SOL    HW283336   5.382  10.355  10.007
93833SOL     OW83337   1.705   2.115   6.527
93833SOL    HW183338   1.710   2.070   6.443
93833SOL    HW283339   1.690   2.044   6.590
93834SOL     OW83340   8.618  11.813  13.592
93834SOL    HW183341   8.674  11.762  13.534
93834SOL    HW283342   8.647  11.903  13.582
93835SOL     OW83343   1.618  14.576   3.146
93835SOL    HW183344   1.616  14.484   3.174
93835SOL    HW283345   1.684  14.617   3.202
93836SOL     OW83346   8.098   8.733   8.049
93836SOL    HW183347   8.030   8.702   8.108
93836SOL    HW283348   8.053   8.789   7.986
93837SOL     OW83349   0.136  11.876   3.392
93837SOL    HW183350   0.078  11.837   3.457
93837SOL    HW283351   0.182  11.802   3.352
93838SOL     OW83352  12.137   6.322   1.150
93838SOL    HW183353  12.178   6.243   1.187
93838SOL    HW283354  12.068   6.289   1.093
93839SOL     OW83355   3.518  13.549   7.040
93839SOL    HW183356   3.464  13.559   7.119
93839SOL    HW283357   3.576  13.625   7.041
93840SOL     OW83358  14.372   1.836   8.519
93840SOL    HW183359  14.338   1.845   8.430
93840SOL    HW283360  14.386   1.742   8.530
93841SOL     OW83361   7.033   8.550  13.400
93841SOL    HW183362   7.118   8.565  13.443
93841SOL    HW283363   6.980   8.505  13.466
93842SOL     OW83364   4.052  10.509   2.591
93842SOL    HW183365   3.972  10.559   2.574
93842SOL    HW283366   4.039  10.427   2.543
93843SOL     OW83367   2.800   3.283  12.672
93843SOL    HW183368   2.713   3.268  12.709
93843SOL    HW283369   2.850   3.205  12.696
93844SOL     OW83370  10.037  14.353  14.498
93844SOL    HW183371  10.019  14.422  14.435
93844SOL    HW283372  10.112  14.385  14.549
93845SOL     OW83373   6.514  13.083  11.289
93845SOL    HW183374   6.527  12.992  11.263
93845SOL    HW283375   6.462  13.078  11.369
93846SOL     OW83376  11.913   1.310   2.107
93846SOL    HW183377  11.826   1.275   2.086
93846SOL    HW283378  11.906   1.403   2.089
93847SOL     OW83379   3.229   0.114   5.990
93847SOL    HW183380   3.188   0.195   5.958
93847SOL    HW283381   3.303   0.101   5.931
93848SOL     OW83382   3.754   9.489   7.310
93848SOL    HW183383   3.771   9.504   7.403
93848SOL    HW283384   3.739   9.395   7.303
93849SOL     OW83385   2.363   3.484   6.638
93849SOL    HW183386   2.312   3.457   6.714
93849SOL    HW283387   2.388   3.401   6.596
93850SOL     OW83388  12.757  10.686  11.777
93850SOL    HW183389  12.816  10.648  11.711
93850SOL    HW283390  12.814  10.742  11.830
93851SOL     OW83391   0.170   4.095  11.712
93851SOL    HW183392   0.147   4.006  11.739
93851SOL    HW283393   0.125   4.107  11.628
93852SOL     OW83394   3.071  10.458   0.308
93852SOL    HW183395   2.998  10.497   0.260
93852SOL    HW283396   3.146  10.512   0.285
93853SOL     OW83397  14.881   3.622  14.785
93853SOL    HW183398  14.881   3.542  14.838
93853SOL    HW283399  14.788   3.636  14.763
93854SOL     OW83400   8.648   1.249   8.464
93854SOL    HW183401   8.674   1.265   8.555
93854SOL    HW283402   8.715   1.293   8.412
93855SOL     OW83403   5.155   8.123   6.838
93855SOL    HW183404   5.101   8.056   6.879
93855SOL    HW283405   5.210   8.074   6.776
93856SOL     OW83406  10.288   9.953   3.982
93856SOL    HW183407  10.278   9.904   3.900
93856SOL    HW283408  10.253  10.040   3.962
93857SOL     OW83409  13.098  12.479   5.749
93857SOL    HW183410  13.171  12.527   5.710
93857SOL    HW283411  13.024  12.496   5.689
93858SOL     OW83412   6.552  11.627   8.209
93858SOL    HW183413   6.497  11.637   8.132
93858SOL    HW283414   6.571  11.717   8.237
93859SOL     OW83415  13.144   4.631   2.184
93859SOL    HW183416  13.148   4.564   2.116
93859SOL    HW283417  13.050   4.651   2.191
93860SOL     OW83418   2.167  13.122   3.585
93860SOL    HW183419   2.151  13.214   3.564
93860SOL    HW283420   2.163  13.077   3.500
93861SOL     OW83421   6.554  13.105   3.588
93861SOL    HW183422   6.635  13.056   3.600
93861SOL    HW283423   6.583  13.191   3.555
93862SOL     OW83424   9.284   6.918   1.316
93862SOL    HW183425   9.285   6.957   1.404
93862SOL    HW283426   9.193   6.896   1.301
93863SOL     OW83427  14.331  14.812   2.938
93863SOL    HW183428  14.322  14.872   3.012
93863SOL    HW283429  14.401  14.850   2.885
93864SOL     OW83430  11.375  10.612   9.732
93864SOL    HW183431  11.449  10.643   9.784
93864SOL    HW283432  11.405  10.619   9.641
93865SOL     OW83433   5.741   8.727  14.720
93865SOL    HW183434   5.699   8.808  14.690
93865SOL    HW283435   5.796   8.699  14.647
93866SOL     OW83436   5.024   9.602  11.772
93866SOL    HW183437   4.946   9.634  11.817
93866SOL    HW283438   5.046   9.671  11.709
93867SOL     OW83439   1.432   9.560   3.436
93867SOL    HW183440   1.411   9.476   3.397
93867SOL    HW283441   1.523   9.577   3.411
93868SOL     OW83442   4.402  14.354  12.269
93868SOL    HW183443   4.404  14.446  12.296
93868SOL    HW283444   4.334  14.351  12.202
93869SOL     OW83445   8.045  11.599  10.367
93869SOL    HW183446   8.129  11.558  10.346
93869SOL    HW283447   8.011  11.549  10.441
93870SOL     OW83448   0.608  10.847  10.726
93870SOL    HW183449   0.602  10.941  10.708
93870SOL    HW283450   0.528  10.810  10.690
93871SOL     OW83451   3.040   3.282  10.629
93871SOL    HW183452   3.135   3.277  10.616
93871SOL    HW283453   3.018   3.373  10.608
93872SOL     OW83454   7.325   7.217  10.273
93872SOL    HW183455   7.397   7.169  10.314
93872SOL    HW283456   7.365   7.295  10.236
93873SOL     OW83457   5.319  10.725   4.487
93873SOL    HW183458   5.408  10.760   4.489
93873SOL    HW283459   5.263  10.802   4.497
93874SOL     OW83460  11.613   8.165   5.328
93874SOL    HW183461  11.697   8.120   5.328
93874SOL    HW283462  11.552   8.102   5.290
93875SOL     OW83463   1.932   8.011  13.369
93875SOL    HW183464   1.875   8.072  13.323
93875SOL    HW283465   1.886   7.990  13.450
93876SOL     OW83466  11.535  13.119  14.381
93876SOL    HW183467  11.514  13.201  14.336
93876SOL    HW283468  11.555  13.058  14.310
93877SOL     OW83469   9.492  13.061   5.724
93877SOL    HW183470   9.485  13.146   5.680
93877SOL    HW283471   9.585  13.052   5.743
93878SOL     OW83472   7.684   0.463   7.558
93878SOL    HW183473   7.737   0.388   7.531
93878SOL    HW283474   7.738   0.508   7.623
93879SOL     OW83475  11.489  11.836   9.737
93879SOL    HW183476  11.471  11.811   9.828
93879SOL    HW283477  11.585  11.830   9.730
93880SOL     OW83478   9.471   5.583   2.652
93880SOL    HW183479   9.511   5.604   2.568
93880SOL    HW283480   9.421   5.662   2.675
93881SOL     OW83481   4.802   5.791   1.995
93881SOL    HW183482   4.785   5.714   1.942
93881SOL    HW283483   4.867   5.841   1.945
93882SOL     OW83484   6.988  11.162   3.444
93882SOL    HW183485   6.969  11.069   3.456
93882SOL    HW283486   7.004  11.172   3.350
93883SOL     OW83487   8.979   7.201   0.879
93883SOL    HW183488   8.969   7.106   0.885
93883SOL    HW283489   9.063   7.219   0.920
93884SOL     OW83490   9.780   9.678   5.023
93884SOL    HW183491   9.816   9.749   4.971
93884SOL    HW283492   9.828   9.682   5.106
93885SOL     OW83493   2.818   1.101   7.750
93885SOL    HW183494   2.889   1.156   7.715
93885SOL    HW283495   2.796   1.141   7.834
93886SOL     OW83496  10.790   9.621  11.284
93886SOL    HW183497  10.714   9.575  11.321
93886SOL    HW283498  10.754   9.701  11.248
93887SOL     OW83499   8.226   5.782  13.502
93887SOL    HW183500   8.275   5.800  13.583
93887SOL    HW283501   8.216   5.868  13.460
93888SOL     OW83502   3.304  13.027   6.463
93888SOL    HW183503   3.257  13.106   6.490
93888SOL    HW283504   3.236  12.960   6.456
93889SOL     OW83505  11.997   6.290   6.309
93889SOL    HW183506  11.956   6.364   6.353
93889SOL    HW283507  11.934   6.219   6.318
93890SOL     OW83508   3.093   1.244   0.221
93890SOL    HW183509   3.063   1.335   0.229
93890SOL    HW283510   3.154   1.233   0.293
93891SOL     OW83511   5.098   7.563   5.275
93891SOL    HW183512   5.078   7.656   5.287
93891SOL    HW283513   5.178   7.549   5.327
93892SOL     OW83514   6.409   0.389   8.412
93892SOL    HW183515   6.490   0.439   8.413
93892SOL    HW283516   6.350   0.437   8.471
93893SOL     OW83517   6.672   2.584  10.279
93893SOL    HW183518   6.744   2.535  10.318
93893SOL    HW283519   6.708   2.672  10.263
93894SOL     OW83520   8.289   2.494  12.824
93894SOL    HW183521   8.297   2.412  12.775
93894SOL    HW283522   8.353   2.552  12.785
93895SOL     OW83523  12.319   7.969   9.619
93895SOL    HW183524  12.368   7.947   9.540
93895SOL    HW283525  12.308   7.885   9.665
93896SOL     OW83526  11.315   6.735   7.810
93896SOL    HW183527  11.294   6.657   7.758
93896SOL    HW283528  11.257   6.803   7.776
93897SOL     OW83529  10.957   3.273   6.154
93897SOL    HW183530  10.945   3.331   6.079
93897SOL    HW283531  11.046   3.292   6.185
93898SOL     OW83532  10.515   9.120   0.234
93898SOL    HW183533  10.599   9.161   0.255
93898SOL    HW283534  10.450   9.174   0.278
93899SOL     OW83535   8.383   9.101   5.013
93899SOL    HW183536   8.324   9.170   5.043
93899SOL    HW283537   8.342   9.067   4.934
93900SOL     OW83538   9.503  10.305   3.584
93900SOL    HW183539   9.430  10.262   3.540
93900SOL    HW283540   9.479  10.304   3.677
93901SOL     OW83541   5.491   8.493  11.430
93901SOL    HW183542   5.430   8.523  11.497
93901SOL    HW283543   5.549   8.568  11.414
93902SOL     OW83544  14.662  11.658  14.112
93902SOL    HW183545  14.740  11.713  14.115
93902SOL    HW283546  14.613  11.691  14.037
93903SOL     OW83547  14.741   9.978   1.814
93903SOL    HW183548  14.795   9.915   1.861
93903SOL    HW283549  14.714  10.041   1.881
93904SOL     OW83550   7.279   4.340   3.007
93904SOL    HW183551   7.261   4.434   3.005
93904SOL    HW283552   7.309   4.320   2.918
93905SOL     OW83553   8.542   1.572   8.667
93905SOL    HW183554   8.625   1.548   8.708
93905SOL    HW283555   8.479   1.578   8.740
93906SOL     OW83556  13.765   9.039   1.758
93906SOL    HW183557  13.809   9.018   1.676
93906SOL    HW283558  13.710   9.114   1.738
93907SOL     OW83559   8.050   5.146   8.122
93907SOL    HW183560   8.021   5.100   8.201
93907SOL    HW283561   8.034   5.083   8.051
93908SOL     OW83562  13.433   7.281   2.443
93908SOL    HW183563  13.383   7.214   2.398
93908SOL    HW283564  13.492   7.317   2.376
93909SOL     OW83565   7.253   7.889   6.333
93909SOL    HW183566   7.264   7.908   6.240
93909SOL    HW283567   7.183   7.948   6.362
93910SOL     OW83568   9.277  13.389   8.833
93910SOL    HW183569   9.345  13.333   8.797
93910SOL    HW283570   9.308  13.409   8.922
93911SOL     OW83571   2.694  12.852   7.300
93911SOL    HW183572   2.614  12.814   7.335
93911SOL    HW283573   2.664  12.922   7.242
93912SOL     OW83574  13.200   9.867   3.776
93912SOL    HW183575  13.246   9.888   3.858
93912SOL    HW283576  13.138   9.798   3.800
93913SOL     OW83577   6.389   3.563   1.756
93913SOL    HW183578   6.438   3.554   1.674
93913SOL    HW283579   6.301   3.586   1.728
93914SOL     OW83580   3.287  12.770   9.245
93914SOL    HW183581   3.308  12.695   9.301
93914SOL    HW283582   3.284  12.845   9.305
93915SOL     OW83583   1.118   8.891  13.012
93915SOL    HW183584   1.132   8.912  12.920
93915SOL    HW283585   1.170   8.956  13.060
93916SOL     OW83586   6.291   0.389   1.283
93916SOL    HW183587   6.291   0.297   1.312
93916SOL    HW283588   6.238   0.388   1.203
93917SOL     OW83589   6.433   4.078   2.798
93917SOL    HW183590   6.420   4.148   2.734
93917SOL    HW283591   6.367   4.096   2.866
93918SOL     OW83592  13.053  12.520  10.764
93918SOL    HW183593  12.995  12.592  10.786
93918SOL    HW283594  13.052  12.462  10.840
93919SOL     OW83595  11.084  14.869   8.723
93919SOL    HW183596  11.009  14.820   8.759
93919SOL    HW283597  11.080  14.852   8.628
93920SOL     OW83598  14.372   9.097  10.875
93920SOL    HW183599  14.287   9.139  10.861
93920SOL    HW283600  14.434   9.152  10.827
93921SOL     OW83601   5.177   1.350  14.460
93921SOL    HW183602   5.272   1.343  14.464
93921SOL    HW283603   5.160   1.405  14.383
93922SOL     OW83604  13.235   6.012  11.900
93922SOL    HW183605  13.309   5.967  11.942
93922SOL    HW283606  13.248   5.997  11.806
93923SOL     OW83607   2.628  14.503   1.748
93923SOL    HW183608   2.648  14.567   1.817
93923SOL    HW283609   2.602  14.556   1.673
93924SOL     OW83610   8.392   4.187   7.229
93924SOL    HW183611   8.412   4.174   7.322
93924SOL    HW283612   8.453   4.256   7.201
93925SOL     OW83613   2.972   8.727  11.956
93925SOL    HW183614   3.062   8.747  11.983
93925SOL    HW283615   2.962   8.634  11.975
93926SOL     OW83616  13.705  11.272  10.661
93926SOL    HW183617  13.722  11.192  10.711
93926SOL    HW283618  13.615  11.296  10.683
93927SOL     OW83619   4.522   5.855   2.945
93927SOL    HW183620   4.493   5.943   2.967
93927SOL    HW283621   4.512   5.805   3.026
93928SOL     OW83622   7.816   0.108   0.196
93928SOL    HW183623   7.834   0.052   0.121
93928SOL    HW283624   7.721   0.119   0.197
93929SOL     OW83625  12.929   6.432  13.801
93929SOL    HW183626  12.844   6.445  13.759
93929SOL    HW283627  12.979   6.379  13.738
93930SOL     OW83628  11.477   6.496   3.006
93930SOL    HW183629  11.484   6.405   2.977
93930SOL    HW283630  11.383   6.516   2.997
93931SOL     OW83631   8.925   5.927   1.268
93931SOL    HW183632   8.869   5.915   1.191
93931SOL    HW283633   8.869   5.904   1.342
93932SOL     OW83634   8.639   9.747  14.314
93932SOL    HW183635   8.693   9.814  14.272
93932SOL    HW283636   8.559   9.794  14.341
93933SOL     OW83637  11.841   3.515   1.667
93933SOL    HW183638  11.818   3.423   1.674
93933SOL    HW283639  11.870   3.526   1.577
93934SOL     OW83640   5.242   3.760   2.035
93934SOL    HW183641   5.298   3.724   1.967
93934SOL    HW283642   5.158   3.776   1.991
93935SOL     OW83643  12.679   9.654  12.386
93935SOL    HW183644  12.695   9.562  12.407
93935SOL    HW283645  12.653   9.653  12.294
93936SOL     OW83646   7.935   0.105  14.222
93936SOL    HW183647   7.942   0.199  14.234
93936SOL    HW283648   7.885   0.075  14.298
93937SOL     OW83649   6.162   6.768  14.798
93937SOL    HW183650   6.148   6.860  14.822
93937SOL    HW283651   6.108   6.756  14.720
93938SOL     OW83652   2.406   9.116   5.977
93938SOL    HW183653   2.435   9.166   6.053
93938SOL    HW283654   2.486   9.077   5.942
93939SOL     OW83655   3.341   7.824   7.498
93939SOL    HW183656   3.312   7.735   7.522
93939SOL    HW283657   3.341   7.872   7.580
93940SOL     OW83658  13.570  12.857   6.511
93940SOL    HW183659  13.521  12.938   6.523
93940SOL    HW283660  13.579  12.847   6.417
93941SOL     OW83661  10.106   3.790  13.072
93941SOL    HW183662  10.074   3.744  12.995
93941SOL    HW283663  10.028   3.826  13.113
93942SOL     OW83664   5.192   4.773   8.141
93942SOL    HW183665   5.284   4.798   8.140
93942SOL    HW283666   5.157   4.810   8.060
93943SOL     OW83667   0.136  11.988   4.230
93943SOL    HW183668   0.091  11.973   4.313
93943SOL    HW283669   0.094  11.927   4.169
93944SOL     OW83670  12.751  12.738  13.182
93944SOL    HW183671  12.714  12.827  13.181
93944SOL    HW283672  12.678  12.682  13.206
93945SOL     OW83673   0.589  12.422   2.690
93945SOL    HW183674   0.557  12.394   2.604
93945SOL    HW283675   0.512  12.455   2.735
93946SOL     OW83676   4.550   3.340   9.105
93946SOL    HW183677   4.626   3.284   9.092
93946SOL    HW283678   4.509   3.306   9.185
93947SOL     OW83679   9.249  11.666   3.222
93947SOL    HW183680   9.223  11.745   3.174
93947SOL    HW283681   9.341  11.653   3.197
93948SOL     OW83682  13.621   1.402  12.369
93948SOL    HW183683  13.686   1.334  12.383
93948SOL    HW283684  13.545   1.375  12.421
93949SOL     OW83685   0.891   2.666   0.123
93949SOL    HW183686   0.960   2.690   0.185
93949SOL    HW283687   0.877   2.745   0.071
93950SOL     OW83688   3.913   0.045  13.270
93950SOL    HW183689   3.884   0.004  13.188
93950SOL    HW283690   3.972  14.863  13.310
93951SOL     OW83691   9.383  12.994  13.687
93951SOL    HW183692   9.346  13.067  13.737
93951SOL    HW283693   9.369  12.917  13.742
93952SOL     OW83694  10.037   8.166   4.912
93952SOL    HW183695  10.113   8.117   4.883
93952SOL    HW283696  10.026   8.141   5.004
93953SOL     OW83697   2.167   7.275   7.575
93953SOL    HW183698   2.075   7.262   7.554
93953SOL    HW283699   2.168   7.299   7.668
93954SOL     OW83700   5.423  14.646  13.139
93954SOL    HW183701   5.380  14.589  13.076
93954SOL    HW283702   5.482  14.700  13.086
93955SOL     OW83703  12.826   5.210   6.068
93955SOL    HW183704  12.738   5.205   6.032
93955SOL    HW283705  12.869   5.280   6.018
93956SOL     OW83706   5.420  13.240   3.508
93956SOL    HW183707   5.365  13.303   3.553
93956SOL    HW283708   5.394  13.155   3.543
93957SOL     OW83709   8.204  13.566   7.946
93957SOL    HW183710   8.112  13.545   7.930
93957SOL    HW283711   8.219  13.646   7.895
93958SOL     OW83712   7.786   4.043   0.051
93958SOL    HW183713   7.794   4.101  14.857
93958SOL    HW283714   7.702   4.068   0.090
93959SOL     OW83715   5.347   7.829   2.251
93959SOL    HW183716   5.322   7.778   2.175
93959SOL    HW283717   5.269   7.829   2.307
93960SOL     OW83718   2.508   5.816   0.003
93960SOL    HW183719   2.496   5.727  14.852
93960SOL    HW283720   2.582   5.810   0.063
93961SOL     OW83721   8.612   1.226   8.111
93961SOL    HW183722   8.637   1.301   8.165
93961SOL    HW283723   8.655   1.241   8.027
93962SOL     OW83724   3.936   9.470   3.485
93962SOL    HW183725   3.876   9.403   3.518
93962SOL    HW283726   3.892   9.553   3.505
93963SOL     OW83727   1.667   1.832  11.422
93963SOL    HW183728   1.626   1.761  11.472
93963SOL    HW283729   1.608   1.846  11.348
93964SOL     OW83730   2.862  11.114   8.275
93964SOL    HW183731   2.803  11.041   8.292
93964SOL    HW283732   2.814  11.191   8.303
93965SOL     OW83733   2.694  10.097  11.761
93965SOL    HW183734   2.738  10.013  11.748
93965SOL    HW283735   2.625  10.078  11.824
93966SOL     OW83736   7.386   2.532   3.701
93966SOL    HW183737   7.334   2.605   3.668
93966SOL    HW283738   7.390   2.545   3.795
93967SOL     OW83739   7.545  10.526  10.985
93967SOL    HW183740   7.504  10.612  10.995
93967SOL    HW283741   7.505  10.489  10.907
93968SOL     OW83742  11.947   0.509   1.132
93968SOL    HW183743  11.879   0.447   1.107
93968SOL    HW283744  12.029   0.459   1.126
93969SOL     OW83745   8.294   0.966  13.847
93969SOL    HW183746   8.289   0.895  13.782
93969SOL    HW283747   8.346   0.929  13.919
93970SOL     OW83748   4.079   3.993   8.306
93970SOL    HW183749   4.126   3.915   8.276
93970SOL    HW283750   4.037   4.027   8.227
93971SOL     OW83751   8.484  13.023   5.548
93971SOL    HW183752   8.433  13.036   5.468
93971SOL    HW283753   8.440  13.076   5.614
93972SOL     OW83754  13.608   7.239   9.398
93972SOL    HW183755  13.544   7.206   9.461
93972SOL    HW283756  13.563   7.233   9.313
93973SOL     OW83757   9.742  14.565  10.297
93973SOL    HW183758   9.796  14.486  10.298
93973SOL    HW283759   9.756  14.605  10.383
93974SOL     OW83760  14.431  10.160   0.379
93974SOL    HW183761  14.468  10.109   0.308
93974SOL    HW283762  14.444  10.106   0.457
93975SOL     OW83763  10.510   8.872   5.337
93975SOL    HW183764  10.473   8.826   5.412
93975SOL    HW283765  10.465   8.957   5.337
93976SOL     OW83766   9.914  11.824   3.561
93976SOL    HW183767   9.856  11.821   3.486
93976SOL    HW283768   9.893  11.745   3.611
93977SOL     OW83769   7.399   9.773  13.962
93977SOL    HW183770   7.464   9.844  13.960
93977SOL    HW283771   7.347   9.787  13.883
93978SOL     OW83772  12.690  11.724   0.238
93978SOL    HW183773  12.705  11.815   0.209
93978SOL    HW283774  12.740  11.716   0.319
93979SOL     OW83775   4.269   0.167   9.407
93979SOL    HW183776   4.289   0.091   9.462
93979SOL    HW283777   4.218   0.132   9.334
93980SOL     OW83778   7.930  13.645   9.260
93980SOL    HW183779   7.899  13.555   9.251
93980SOL    HW283780   7.862  13.698   9.221
93981SOL     OW83781   0.360   9.872   7.212
93981SOL    HW183782   0.310   9.939   7.259
93981SOL    HW283783   0.424   9.921   7.161
93982SOL     OW83784   6.938   4.295  12.402
93982SOL    HW183785   6.866   4.247  12.443
93982SOL    HW283786   6.895   4.370  12.360
93983SOL     OW83787  13.011  10.015  10.834
93983SOL    HW183788  13.103   9.998  10.854
93983SOL    HW283789  13.012  10.058  10.749
93984SOL     OW83790   4.207   1.273   7.889
93984SOL    HW183791   4.128   1.324   7.903
93984SOL    HW283792   4.181   1.206   7.825
93985SOL     OW83793   0.354   6.569   1.048
93985SOL    HW183794   0.392   6.516   0.978
93985SOL    HW283795   0.345   6.656   1.011
93986SOL     OW83796   8.262  10.358   4.790
93986SOL    HW183797   8.329  10.355   4.857
93986SOL    HW283798   8.277  10.279   4.737
93987SOL     OW83799   4.350   2.488   5.693
93987SOL    HW183800   4.313   2.548   5.629
93987SOL    HW283801   4.410   2.433   5.642
93988SOL     OW83802  14.835   5.922  11.418
93988SOL    HW183803  14.750   5.960  11.396
93988SOL    HW283804  14.844   5.847  11.360
93989SOL     OW83805  13.896  11.190   1.588
93989SOL    HW183806  13.897  11.154   1.499
93989SOL    HW283807  13.912  11.283   1.577
93990SOL     OW83808   3.889   6.265   2.404
93990SOL    HW183809   3.908   6.215   2.325
93990SOL    HW283810   3.807   6.312   2.384
93991SOL     OW83811  12.711   7.540   0.372
93991SOL    HW183812  12.732   7.500   0.288
93991SOL    HW283813  12.681   7.468   0.427
93992SOL     OW83814   4.361   4.782   0.462
93992SOL    HW183815   4.364   4.700   0.511
93992SOL    HW283816   4.379   4.850   0.527
93993SOL     OW83817   6.564   7.496   2.878
93993SOL    HW183818   6.497   7.448   2.925
93993SOL    HW283819   6.541   7.588   2.890
93994SOL     OW83820   6.898  11.818   4.747
93994SOL    HW183821   6.978  11.858   4.781
93994SOL    HW283822   6.909  11.725   4.766
93995SOL     OW83823   7.165  13.914  11.294
93995SOL    HW183824   7.135  13.971  11.365
93995SOL    HW283825   7.258  13.901  11.313
93996SOL     OW83826   9.593  11.424   8.238
93996SOL    HW183827   9.525  11.484   8.267
93996SOL    HW283828   9.621  11.378   8.317
93997SOL     OW83829  11.264  13.155   1.677
93997SOL    HW183830  11.243  13.069   1.714
93997SOL    HW283831  11.184  13.206   1.686
93998SOL     OW83832  11.697   7.762  14.264
93998SOL    HW183833  11.622   7.822  14.264
93998SOL    HW283834  11.725   7.758  14.173
93999SOL     OW83835   3.878   7.024  10.023
93999SOL    HW183836   3.789   7.040  10.052
93999SOL    HW283837   3.876   6.935   9.988
94000SOL     OW83838  14.584  13.052  13.783
94000SOL    HW183839  14.672  13.087  13.790
94000SOL    HW283840  14.527  13.129  13.781
94001SOL     OW83841  14.245   1.661   2.680
94001SOL    HW183842  14.246   1.575   2.639
94001SOL    HW283843  14.202   1.717   2.616
94002SOL     OW83844  10.539   9.118  13.423
94002SOL    HW183845  10.558   9.129  13.330
94002SOL    HW283846  10.468   9.180  13.440
94003SOL     OW83847   4.459   8.830   9.438
94003SOL    HW183848   4.430   8.910   9.394
94003SOL    HW283849   4.430   8.841   9.528
94004SOL     OW83850   7.742  11.590  10.794
94004SOL    HW183851   7.713  11.541  10.871
94004SOL    HW283852   7.680  11.566  10.726
94005SOL     OW83853  13.042   9.332  11.493
94005SOL    HW183854  13.019   9.243  11.468
94005SOL    HW283855  13.077   9.325  11.581
94006SOL     OW83856  14.595   1.092  13.700
94006SOL    HW183857  14.660   1.157  13.727
94006SOL    HW283858  14.568   1.049  13.782
94007SOL     OW83859   0.584   9.895   2.351
94007SOL    HW183860   0.592   9.930   2.262
94007SOL    HW283861   0.616   9.966   2.407
94008SOL     OW83862  10.186   6.374   3.927
94008SOL    HW183863  10.123   6.369   3.999
94008SOL    HW283864  10.261   6.322   3.956
94009SOL     OW83865   5.543  11.744   7.213
94009SOL    HW183866   5.487  11.752   7.290
94009SOL    HW283867   5.570  11.834   7.193
94010SOL     OW83868  12.310   6.497   0.389
94010SOL    HW183869  12.273   6.567   0.443
94010SOL    HW283870  12.247   6.485   0.318
94011SOL     OW83871   0.548   2.431   4.215
94011SOL    HW183872   0.545   2.499   4.147
94011SOL    HW283873   0.457   2.406   4.228
94012SOL     OW83874  14.353   1.516   8.096
94012SOL    HW183875  14.362   1.507   8.001
94012SOL    HW283876  14.398   1.439   8.131
94013SOL     OW83877  13.647  11.361  14.469
94013SOL    HW183878  13.628  11.327  14.382
94013SOL    HW283879  13.603  11.300  14.529
94014SOL     OW83880   0.012  12.095   7.158
94014SOL    HW183881   0.077  12.043   7.109
94014SOL    HW283882  14.843  12.139   7.090
94015SOL     OW83883  10.091   2.966  12.259
94015SOL    HW183884  10.101   3.041  12.199
94015SOL    HW283885   9.997   2.954  12.267
94016SOL     OW83886   5.721  11.026   5.426
94016SOL    HW183887   5.710  10.933   5.405
94016SOL    HW283888   5.635  11.052   5.460
94017SOL     OW83889  12.388   6.947   3.005
94017SOL    HW183890  12.321   6.937   2.937
94017SOL    HW283891  12.351   7.011   3.066
94018SOL     OW83892   3.259  11.912   3.331
94018SOL    HW183893   3.200  11.987   3.344
94018SOL    HW283894   3.281  11.916   3.237
94019SOL     OW83895  13.241   1.493   1.586
94019SOL    HW183896  13.286   1.408   1.582
94019SOL    HW283897  13.248   1.528   1.497
94020SOL     OW83898   5.942   2.910  11.192
94020SOL    HW183899   5.879   2.942  11.128
94020SOL    HW283900   5.931   2.967  11.268
94021SOL     OW83901   9.414  13.176   9.599
94021SOL    HW183902   9.503  13.148   9.620
94021SOL    HW283903   9.366  13.163   9.681
94022SOL     OW83904   6.538   9.636   2.100
94022SOL    HW183905   6.564   9.707   2.159
94022SOL    HW283906   6.444   9.647   2.089
94023SOL     OW83907  13.967   6.402   1.416
94023SOL    HW183908  13.945   6.495   1.427
94023SOL    HW283909  13.914   6.374   1.341
94024SOL     OW83910   2.576  11.186   6.354
94024SOL    HW183911   2.509  11.254   6.364
94024SOL    HW283912   2.604  11.192   6.263
94025SOL     OW83913  13.619   5.407  14.043
94025SOL    HW183914  13.672   5.331  14.017
94025SOL    HW283915  13.529   5.380  14.027
94026SOL     OW83916   3.538   8.821   4.038
94026SOL    HW183917   3.495   8.743   4.072
94026SOL    HW283918   3.532   8.885   4.109
94027SOL     OW83919  14.099   7.615  11.585
94027SOL    HW183920  14.016   7.577  11.614
94027SOL    HW283921  14.161   7.543  11.588
94028SOL     OW83922   3.499   8.215   3.051
94028SOL    HW183923   3.555   8.236   2.977
94028SOL    HW283924   3.425   8.275   3.044
94029SOL     OW83925   7.734   4.686   3.823
94029SOL    HW183926   7.709   4.646   3.906
94029SOL    HW283927   7.770   4.772   3.848
94030SOL     OW83928   9.845   6.801   3.001
94030SOL    HW183929   9.933   6.804   3.040
94030SOL    HW283930   9.790   6.848   3.063
94031SOL     OW83931   3.500  11.941  12.584
94031SOL    HW183932   3.574  11.898  12.627
94031SOL    HW283933   3.427  11.881  12.599
94032SOL     OW83934  12.757  11.350   2.250
94032SOL    HW183935  12.690  11.380   2.312
94032SOL    HW283936  12.815  11.295   2.302
94033SOL     OW83937   8.130   4.866   4.593
94033SOL    HW183938   8.144   4.772   4.603
94033SOL    HW283939   8.166   4.886   4.506
94034SOL     OW83940  10.465   4.016   4.696
94034SOL    HW183941  10.373   4.039   4.694
94034SOL    HW283942  10.493   4.035   4.786
94035SOL     OW83943  11.874   7.657   8.374
94035SOL    HW183944  11.846   7.634   8.285
94035SOL    HW283945  11.798   7.702   8.412
94036SOL     OW83946   8.621   5.966   9.959
94036SOL    HW183947   8.543   5.935  10.004
94036SOL    HW283948   8.588   6.026   9.892
94037SOL     OW83949   3.239   6.549   4.817
94037SOL    HW183950   3.192   6.469   4.796
94037SOL    HW283951   3.202   6.616   4.759
94038SOL     OW83952   7.342  13.764   3.086
94038SOL    HW183953   7.328  13.777   2.992
94038SOL    HW283954   7.416  13.704   3.092
94039SOL     OW83955   6.097   9.657   5.241
94039SOL    HW183956   6.073   9.712   5.166
94039SOL    HW283957   6.167   9.706   5.285
94040SOL     OW83958   5.804   2.586   5.345
94040SOL    HW183959   5.753   2.574   5.264
94040SOL    HW283960   5.743   2.561   5.415
94041SOL     OW83961   4.186  12.243  12.916
94041SOL    HW183962   4.162  12.311  12.979
94041SOL    HW283963   4.105  12.224  12.869
94042SOL     OW83964   0.693   8.378   8.466
94042SOL    HW183965   0.620   8.429   8.501
94042SOL    HW283966   0.770   8.432   8.480
94043SOL     OW83967   6.492   0.941   3.330
94043SOL    HW183968   6.401   0.910   3.330
94043SOL    HW283969   6.525   0.918   3.243
94044SOL     OW83970   2.359  14.232   3.718
94044SOL    HW183971   2.292  14.258   3.781
94044SOL    HW283972   2.440  14.272   3.751
94045SOL     OW83973   3.316   8.498   2.098
94045SOL    HW183974   3.245   8.494   2.162
94045SOL    HW283975   3.271   8.507   2.014
94046SOL     OW83976   8.912   9.317   6.486
94046SOL    HW183977   8.969   9.364   6.546
94046SOL    HW283978   8.914   9.369   6.405
94047SOL     OW83979   9.334  12.442   1.118
94047SOL    HW183980   9.393  12.422   1.046
94047SOL    HW283981   9.325  12.537   1.116
94048SOL     OW83982   7.715  11.504  11.104
94048SOL    HW183983   7.770  11.425  11.105
94048SOL    HW283984   7.636  11.478  11.058
94049SOL     OW83985   8.790  13.583  13.865
94049SOL    HW183986   8.787  13.649  13.934
94049SOL    HW283987   8.698  13.573  13.838
94050SOL     OW83988   2.632  10.941   7.963
94050SOL    HW183989   2.710  10.996   7.972
94050SOL    HW283990   2.650  10.886   7.887
94051SOL     OW83991  14.727  14.034  10.814
94051SOL    HW183992  14.813  13.991  10.811
94051SOL    HW283993  14.698  14.022  10.905
94052SOL     OW83994   3.883   6.408   9.683
94052SOL    HW183995   3.855   6.352   9.610
94052SOL    HW283996   3.802   6.451   9.713
94053SOL     OW83997   0.709   3.103   5.673
94053SOL    HW183998   0.740   3.155   5.747
94053SOL    HW283999   0.633   3.151   5.640
94054SOL     OW84000   8.766   9.297  14.341
94054SOL    HW184001   8.856   9.328  14.334
94054SOL    HW284002   8.717   9.372  14.375
94055SOL     OW84003   0.838   8.469   7.891
94055SOL    HW184004   0.792   8.553   7.897
94055SOL    HW284005   0.922   8.490   7.851
94056SOL     OW84006  12.253   3.712   3.167
94056SOL    HW184007  12.334   3.728   3.215
94056SOL    HW284008  12.187   3.703   3.236
94057SOL     OW84009   4.766   5.339   3.785
94057SOL    HW184010   4.726   5.425   3.773
94057SOL    HW284011   4.721   5.283   3.722
94058SOL     OW84012  11.554   1.687  13.742
94058SOL    HW184013  11.562   1.646  13.828
94058SOL    HW284014  11.465   1.666  13.714
94059SOL     OW84015  10.503  12.955  10.918
94059SOL    HW184016  10.575  12.962  10.855
94059SOL    HW284017  10.458  12.875  10.894
94060SOL     OW84018   8.946  13.275   9.167
94060SOL    HW184019   8.991  13.191   9.167
94060SOL    HW284020   8.857  13.255   9.195
94061SOL     OW84021  14.564   8.547   1.707
94061SOL    HW184022  14.618   8.470   1.728
94061SOL    HW284023  14.623   8.604   1.658
94062SOL     OW84024   2.122   9.382   2.126
94062SOL    HW184025   2.148   9.451   2.187
94062SOL    HW284026   2.029   9.369   2.143
94063SOL     OW84027   4.764   9.874   5.071
94063SOL    HW184028   4.740   9.927   5.147
94063SOL    HW284029   4.786   9.788   5.108
94064SOL     OW84030   5.411   6.448   5.469
94064SOL    HW184031   5.367   6.385   5.412
94064SOL    HW284032   5.345   6.517   5.483
94065SOL     OW84033   2.570  13.700   3.327
94065SOL    HW184034   2.607  13.762   3.264
94065SOL    HW284035   2.635  13.697   3.398
94066SOL     OW84036  14.605   3.488  12.380
94066SOL    HW184037  14.661   3.465  12.454
94066SOL    HW284038  14.656   3.463  12.303
94067SOL     OW84039  12.367   7.089   7.454
94067SOL    HW184040  12.362   7.070   7.360
94067SOL    HW284041  12.442   7.039   7.485
94068SOL     OW84042  14.718  14.774   3.998
94068SOL    HW184043  14.750  14.759   4.087
94068SOL    HW284044  14.661  14.700   3.980
94069SOL     OW84045   1.066   8.190  12.680
94069SOL    HW184046   1.011   8.124  12.638
94069SOL    HW284047   1.120   8.225  12.609
94070SOL     OW84048   5.338  13.919   6.771
94070SOL    HW184049   5.343  13.824   6.764
94070SOL    HW284050   5.313  13.935   6.862
94071SOL     OW84051   2.050   9.102   8.035
94071SOL    HW184052   1.961   9.125   8.009
94071SOL    HW284053   2.106   9.146   7.971
94072SOL     OW84054  11.134   8.399   6.080
94072SOL    HW184055  11.081   8.342   6.024
94072SOL    HW284056  11.143   8.480   6.030
94073SOL     OW84057   7.978   7.692   2.148
94073SOL    HW184058   7.894   7.651   2.170
94073SOL    HW284059   8.026   7.694   2.231
94074SOL     OW84060   6.789  12.092  11.313
94074SOL    HW184061   6.810  12.003  11.284
94074SOL    HW284062   6.739  12.079  11.394
94075SOL     OW84063  14.775  13.230  12.636
94075SOL    HW184064  14.867  13.211  12.655
94075SOL    HW284065  14.765  13.207  12.543
94076SOL     OW84066  10.632   4.988  12.158
94076SOL    HW184067  10.601   4.981  12.249
94076SOL    HW284068  10.728   4.983  12.165
94077SOL     OW84069   3.321   1.967  11.873
94077SOL    HW184070   3.332   2.013  11.956
94077SOL    HW284071   3.409   1.961  11.837
94078SOL     OW84072  11.143   8.675  14.466
94078SOL    HW184073  11.068   8.627  14.502
94078SOL    HW284074  11.219   8.625  14.494
94079SOL     OW84075   7.470   5.434   7.540
94079SOL    HW184076   7.515   5.444   7.456
94079SOL    HW284077   7.538   5.402   7.600
94080SOL     OW84078   8.490  10.830  14.662
94080SOL    HW184079   8.412  10.797  14.706
94080SOL    HW284080   8.488  10.925  14.676
94081SOL     OW84081   3.109  13.781  11.783
94081SOL    HW184082   3.048  13.854  11.788
94081SOL    HW284083   3.056  13.707  11.753
94082SOL     OW84084   0.170   4.003   6.191
94082SOL    HW184085   0.083   3.994   6.152
94082SOL    HW284086   0.163   3.959   6.276
94083SOL     OW84087  10.576  13.855  10.491
94083SOL    HW184088  10.516  13.891  10.556
94083SOL    HW284089  10.652  13.913  10.495
94084SOL     OW84090  13.470  11.846   0.125
94084SOL    HW184091  13.525  11.814   0.196
94084SOL    HW284092  13.463  11.940   0.141
94085SOL     OW84093   7.423   5.258   3.150
94085SOL    HW184094   7.413   5.242   3.244
94085SOL    HW284095   7.398   5.350   3.138
94086SOL     OW84096   0.841   4.152   5.842
94086SOL    HW184097   0.819   4.134   5.751
94086SOL    HW284098   0.796   4.235   5.862
94087SOL     OW84099   5.589  12.766   0.412
94087SOL    HW184100   5.548  12.712   0.480
94087SOL    HW284101   5.532  12.842   0.404
94088SOL     OW84102   2.515   7.206  10.893
94088SOL    HW184103   2.580   7.216  10.963
94088SOL    HW284104   2.553   7.140  10.835
94089SOL     OW84105   5.280   3.785  11.760
94089SOL    HW184106   5.194   3.753  11.786
94089SOL    HW284107   5.342   3.729  11.807
94090SOL     OW84108   1.464   8.476   3.708
94090SOL    HW184109   1.556   8.456   3.723
94090SOL    HW284110   1.464   8.527   3.626
94091SOL     OW84111   5.241   7.129   8.677
94091SOL    HW184112   5.155   7.089   8.691
94091SOL    HW284113   5.281   7.131   8.764
94092SOL     OW84114   9.999   6.149  14.325
94092SOL    HW184115   9.905   6.139  14.309
94092SOL    HW284116  10.040   6.133  14.240
94093SOL     OW84117  11.149  11.933  14.865
94093SOL    HW184118  11.080  11.994   0.012
94093SOL    HW284119  11.151  11.944  14.770
94094SOL     OW84120  12.046   5.742   8.701
94094SOL    HW184121  11.999   5.736   8.784
94094SOL    HW284122  11.984   5.785   8.642
94095SOL     OW84123  13.742   4.352   8.234
94095SOL    HW184124  13.743   4.429   8.177
94095SOL    HW284125  13.768   4.280   8.178
94096SOL     OW84126   2.353   4.695   5.692
94096SOL    HW184127   2.405   4.655   5.762
94096SOL    HW284128   2.263   4.694   5.725
94097SOL     OW84129   2.466   0.340  12.880
94097SOL    HW184130   2.533   0.346  12.813
94097SOL    HW284131   2.512   0.358  12.962
94098SOL     OW84132  13.272   9.129   3.061
94098SOL    HW184133  13.287   9.041   3.025
94098SOL    HW284134  13.195   9.119   3.116
94099SOL     OW84135  10.141   8.962  10.564
94099SOL    HW184136  10.218   9.019  10.566
94099SOL    HW284137  10.145   8.920  10.478
94100SOL     OW84138  10.430   8.280   9.175
94100SOL    HW184139  10.362   8.230   9.221
94100SOL    HW284140  10.502   8.217   9.165
94101SOL     OW84141   0.595   7.071   1.996
94101SOL    HW184142   0.506   7.100   2.015
94101SOL    HW284143   0.649   7.110   2.065
94102SOL     OW84144   3.838   8.796   5.449
94102SOL    HW184145   3.860   8.866   5.388
94102SOL    HW284146   3.817   8.842   5.531
94103SOL     OW84147   3.428  14.830   2.841
94103SOL    HW184148   3.491  14.760   2.856
94103SOL    HW284149   3.368  14.825   2.915
94104SOL     OW84150   2.437   3.082   8.033
94104SOL    HW184151   2.443   2.987   8.020
94104SOL    HW284152   2.524   3.114   8.010
94105SOL     OW84153   3.169   1.104   8.782
94105SOL    HW184154   3.209   1.168   8.722
94105SOL    HW284155   3.244   1.063   8.826
94106SOL     OW84156   4.459  13.445   4.719
94106SOL    HW184157   4.366  13.428   4.737
94106SOL    HW284158   4.506  13.400   4.790
94107SOL     OW84159   9.260   3.895   3.078
94107SOL    HW184160   9.333   3.835   3.090
94107SOL    HW284161   9.227   3.876   2.990
94108SOL     OW84162   7.361   4.030   3.895
94108SOL    HW184163   7.310   3.961   3.852
94108SOL    HW284164   7.442   4.034   3.845
94109SOL     OW84165  13.053  12.967   0.612
94109SOL    HW184166  13.007  12.979   0.695
94109SOL    HW284167  13.122  13.034   0.612
94110SOL     OW84168   9.978   1.845   6.016
94110SOL    HW184169  10.015   1.933   6.010
94110SOL    HW284170  10.050   1.786   5.994
94111SOL     OW84171  14.377   0.359  10.400
94111SOL    HW184172  14.433   0.389  10.471
94111SOL    HW284173  14.288   0.381  10.428
94112SOL     OW84174  13.816   1.110   8.592
94112SOL    HW184175  13.749   1.126   8.525
94112SOL    HW284176  13.892   1.161   8.563
94113SOL     OW84177   2.454  11.166   2.589
94113SOL    HW184178   2.524  11.109   2.557
94113SOL    HW284179   2.390  11.168   2.518
94114SOL     OW84180  12.222   9.195   9.084
94114SOL    HW184181  12.145   9.252   9.087
94114SOL    HW284182  12.230   9.162   9.173
94115SOL     OW84183   7.125   3.002   7.198
94115SOL    HW184184   7.113   3.093   7.225
94115SOL    HW284185   7.038   2.972   7.173
94116SOL     OW84186  10.744   9.369  11.771
94116SOL    HW184187  10.740   9.276  11.793
94116SOL    HW284188  10.813   9.403  11.828
94117SOL     OW84189   2.078   1.897   7.046
94117SOL    HW184190   2.054   1.950   6.970
94117SOL    HW284191   2.007   1.833   7.054
94118SOL     OW84192  10.118  10.202   0.994
94118SOL    HW184193  10.190  10.176   0.937
94118SOL    HW284194  10.071  10.121   1.014
94119SOL     OW84195   9.519   3.724   7.926
94119SOL    HW184196   9.486   3.744   7.838
94119SOL    HW284197   9.588   3.660   7.911
94120SOL     OW84198   3.311   8.296  12.676
94120SOL    HW184199   3.376   8.241  12.632
94120SOL    HW284200   3.271   8.238  12.741
94121SOL     OW84201   4.138  11.467   1.923
94121SOL    HW184202   4.099  11.515   1.850
94121SOL    HW284203   4.211  11.521   1.952
94122SOL     OW84204  14.818   2.103   4.347
94122SOL    HW184205   0.006   2.085   4.284
94122SOL    HW284206  14.817   2.198   4.355
94123SOL     OW84207   6.483   8.449  12.445
94123SOL    HW184208   6.486   8.371  12.500
94123SOL    HW284209   6.472   8.416  12.356
94124SOL     OW84210  12.184   4.999   1.419
94124SOL    HW184211  12.272   4.987   1.455
94124SOL    HW284212  12.147   4.911   1.416
94125SOL     OW84213   9.588  12.972   6.509
94125SOL    HW184214   9.597  12.969   6.604
94125SOL    HW284215   9.503  13.013   6.494
94126SOL     OW84216   8.668   2.931  10.627
94126SOL    HW184217   8.581   2.892  10.635
94126SOL    HW284218   8.673   2.960  10.536
94127SOL     OW84219   8.351   2.335   2.761
94127SOL    HW184220   8.282   2.301   2.705
94127SOL    HW284221   8.307   2.361   2.841
94128SOL     OW84222   7.874   4.934  10.184
94128SOL    HW184223   7.945   4.999  10.188
94128SOL    HW284224   7.808   4.968  10.244
94129SOL     OW84225   4.689  10.663   7.476
94129SOL    HW184226   4.626  10.707   7.419
94129SOL    HW284227   4.675  10.702   7.563
94130SOL     OW84228   8.878  10.460   6.304
94130SOL    HW184229   8.901  10.469   6.396
94130SOL    HW284230   8.849  10.548   6.278
94131SOL     OW84231  12.733   8.680   8.786
94131SOL    HW184232  12.793   8.691   8.712
94131SOL    HW284233  12.650   8.653   8.745
94132SOL     OW84234  14.119   7.781  13.177
94132SOL    HW184235  14.133   7.743  13.264
94132SOL    HW284236  14.081   7.710  13.126
94133SOL     OW84237   4.483   6.627  13.730
94133SOL    HW184238   4.512   6.536  13.739
94133SOL    HW284239   4.500   6.649  13.638
94134SOL     OW84240   8.771   9.453   2.107
94134SOL    HW184241   8.850   9.403   2.126
94134SOL    HW284242   8.724   9.455   2.191
94135SOL     OW84243   8.959   7.158  12.224
94135SOL    HW184244   8.921   7.074  12.200
94135SOL    HW284245   8.886   7.221  12.217
94136SOL     OW84246   6.364   0.093   3.565
94136SOL    HW184247   6.336   0.119   3.653
94136SOL    HW284248   6.429   0.024   3.581
94137SOL     OW84249  14.684   6.570  12.349
94137SOL    HW184250  14.625   6.645  12.336
94137SOL    HW284251  14.764   6.609  12.385
94138SOL     OW84252   6.470  13.711   2.948
94138SOL    HW184253   6.547  13.766   2.937
94138SOL    HW284254   6.423  13.718   2.864
94139SOL     OW84255   9.932   9.588  11.452
94139SOL    HW184256   9.909   9.675  11.421
94139SOL    HW284257  10.019   9.599  11.492
94140SOL     OW84258   8.037  14.845   1.866
94140SOL    HW184259   8.090  14.765   1.865
94140SOL    HW284260   7.950  14.816   1.894
94141SOL     OW84261  10.700   8.511   9.332
94141SOL    HW184262  10.750   8.538   9.254
94141SOL    HW284263  10.744   8.555   9.405
94142SOL     OW84264  10.307   8.922   6.428
94142SOL    HW184265  10.393   8.900   6.465
94142SOL    HW284266  10.268   8.982   6.492
94143SOL     OW84267   3.986   9.182   4.568
94143SOL    HW184268   3.989   9.274   4.543
94143SOL    HW284269   3.935   9.140   4.498
94144SOL     OW84270  10.508   6.006   7.725
94144SOL    HW184271  10.473   6.058   7.652
94144SOL    HW284272  10.461   6.039   7.802
94145SOL     OW84273   7.250   6.616   7.804
94145SOL    HW184274   7.223   6.567   7.881
94145SOL    HW284275   7.344   6.599   7.797
94146SOL     OW84276   7.690  11.318   6.579
94146SOL    HW184277   7.648  11.276   6.654
94146SOL    HW284278   7.620  11.368   6.537
94147SOL     OW84279  13.719   7.197  13.974
94147SOL    HW184280  13.729   7.163  14.063
94147SOL    HW284281  13.678   7.283  13.986
94148SOL     OW84282  12.913   3.585  10.398
94148SOL    HW184283  12.945   3.603  10.486
94148SOL    HW284284  12.969   3.636  10.340
94149SOL     OW84285   2.333   4.156  12.538
94149SOL    HW184286   2.416   4.128  12.499
94149SOL    HW284287   2.266   4.110  12.487
94150SOL     OW84288   7.585   7.129   1.498
94150SOL    HW184289   7.587   7.054   1.557
94150SOL    HW284290   7.539   7.197   1.548
94151SOL     OW84291   9.919  14.543   2.398
94151SOL    HW184292   9.919  14.462   2.348
94151SOL    HW284293   9.881  14.608   2.338
94152SOL     OW84294   8.454  10.838   8.988
94152SOL    HW184295   8.546  10.820   8.968
94152SOL    HW284296   8.413  10.851   8.903
94153SOL     OW84297   1.775  11.080  10.157
94153SOL    HW184298   1.788  10.987  10.173
94153SOL    HW284299   1.739  11.085  10.068
94154SOL     OW84300   6.916  12.298   9.613
94154SOL    HW184301   6.978  12.314   9.542
94154SOL    HW284302   6.951  12.349   9.686
94155SOL     OW84303  13.079  11.247  13.793
94155SOL    HW184304  12.993  11.289  13.788
94155SOL    HW284305  13.140  11.321  13.799
94156SOL     OW84306   6.010   9.478  10.316
94156SOL    HW184307   6.090   9.501  10.362
94156SOL    HW284308   6.036   9.412  10.252
94157SOL     OW84309   2.406  10.663   5.880
94157SOL    HW184310   2.461  10.731   5.842
94157SOL    HW284311   2.451  10.581   5.859
94158SOL     OW84312   9.102   1.054   4.435
94158SOL    HW184313   9.041   1.122   4.405
94158SOL    HW284314   9.128   1.009   4.355
94159SOL     OW84315   9.447  11.586   7.833
94159SOL    HW184316   9.368  11.539   7.860
94159SOL    HW284317   9.426  11.619   7.745
94160SOL     OW84318   3.123   0.239   2.928
94160SOL    HW184319   3.085   0.260   2.843
94160SOL    HW284320   3.060   0.271   2.992
94161SOL     OW84321  11.171   6.170  13.202
94161SOL    HW184322  11.113   6.220  13.259
94161SOL    HW284323  11.224   6.237  13.158
94162SOL     OW84324   4.951   5.486  10.121
94162SOL    HW184325   4.956   5.539  10.200
94162SOL    HW284326   4.864   5.503  10.086
94163SOL     OW84327  14.407  12.301   5.349
94163SOL    HW184328  14.480  12.358   5.374
94163SOL    HW284329  14.403  12.307   5.254
94164SOL     OW84330   9.636  12.949  14.152
94164SOL    HW184331   9.582  13.016  14.194
94164SOL    HW284332   9.721  12.956  14.196
94165SOL     OW84333   3.268  12.953   9.461
94165SOL    HW184334   3.258  12.919   9.550
94165SOL    HW284335   3.352  12.999   9.463
94166SOL     OW84336   0.318   9.035   3.754
94166SOL    HW184337   0.295   9.090   3.829
94166SOL    HW284338   0.408   9.061   3.733
94167SOL     OW84339   0.580   8.232   4.821
94167SOL    HW184340   0.668   8.236   4.783
94167SOL    HW284341   0.528   8.184   4.757
94168SOL     OW84342   4.946  11.993   9.566
94168SOL    HW184343   4.901  11.916   9.530
94168SOL    HW284344   4.984  11.961   9.648
94169SOL     OW84345  12.391   9.838   0.978
94169SOL    HW184346  12.379   9.821   1.071
94169SOL    HW284347  12.433   9.924   0.974
94170SOL     OW84348   0.295   1.293   0.531
94170SOL    HW184349   0.357   1.308   0.460
94170SOL    HW284350   0.306   1.200   0.553
94171SOL     OW84351   6.104   3.335   4.126
94171SOL    HW184352   6.014   3.368   4.124
94171SOL    HW284353   6.094   3.241   4.142
94172SOL     OW84354  13.321  14.395   4.158
94172SOL    HW184355  13.294  14.307   4.130
94172SOL    HW284356  13.256  14.453   4.117
94173SOL     OW84357   6.179   4.804   9.113
94173SOL    HW184358   6.160   4.813   9.019
94173SOL    HW284359   6.093   4.805   9.154
94174SOL     OW84360   6.702  14.112   7.674
94174SOL    HW184361   6.658  14.116   7.759
94174SOL    HW284362   6.795  14.112   7.695
94175SOL     OW84363  13.163  11.237  11.336
94175SOL    HW184364  13.258  11.234  11.324
94175SOL    HW284365  13.150  11.275  11.422
94176SOL     OW84366  11.412   9.472   5.823
94176SOL    HW184367  11.348   9.542   5.817
94176SOL    HW284368  11.392   9.414   5.749
94177SOL     OW84369  14.274  13.415   4.728
94177SOL    HW184370  14.220  13.494   4.730
94177SOL    HW284371  14.241  13.362   4.800
94178SOL     OW84372   1.438   4.469   5.840
94178SOL    HW184373   1.367   4.485   5.903
94178SOL    HW284374   1.399   4.488   5.755
94179SOL     OW84375   3.349   9.164   3.937
94179SOL    HW184376   3.423   9.131   3.886
94179SOL    HW284377   3.291   9.205   3.871
94180SOL     OW84378  10.957   4.897   2.295
94180SOL    HW184379  10.926   4.918   2.207
94180SOL    HW284380  10.948   4.802   2.302
94181SOL     OW84381  12.792   3.332  12.950
94181SOL    HW184382  12.870   3.356  12.999
94181SOL    HW284383  12.728   3.400  12.970
94182SOL     OW84384  12.684   0.983   1.655
94182SOL    HW184385  12.745   1.058   1.654
94182SOL    HW284386  12.600   1.021   1.630
94183SOL     OW84387   6.190   7.227   4.505
94183SOL    HW184388   6.251   7.208   4.434
94183SOL    HW284389   6.114   7.266   4.461
94184SOL     OW84390   5.755   0.442   8.702
94184SOL    HW184391   5.797   0.364   8.666
94184SOL    HW284392   5.673   0.450   8.654
94185SOL     OW84393  13.864  10.153   7.106
94185SOL    HW184394  13.828  10.139   7.193
94185SOL    HW284395  13.916  10.074   7.089
94186SOL     OW84396   3.865  13.763  13.269
94186SOL    HW184397   3.920  13.768  13.190
94186SOL    HW284398   3.859  13.853  13.300
94187SOL     OW84399   9.287   3.401   9.897
94187SOL    HW184400   9.260   3.318   9.859
94187SOL    HW284401   9.346   3.440   9.833
94188SOL     OW84402  10.736   5.500   2.672
94188SOL    HW184403  10.749   5.593   2.651
94188SOL    HW284404  10.822   5.461   2.658
94189SOL     OW84405   6.167  13.827   1.943
94189SOL    HW184406   6.192  13.882   2.017
94189SOL    HW284407   6.193  13.877   1.866
94190SOL     OW84408   9.097   9.134   8.081
94190SOL    HW184409   9.025   9.124   8.018
94190SOL    HW284410   9.101   9.229   8.097
94191SOL     OW84411   1.510   7.725  10.307
94191SOL    HW184412   1.602   7.745  10.291
94191SOL    HW284413   1.472   7.810  10.332
94192SOL     OW84414  13.491   8.463   3.140
94192SOL    HW184415  13.457   8.401   3.076
94192SOL    HW284416  13.557   8.414   3.189
94193SOL     OW84417   7.834   1.668  12.357
94193SOL    HW184418   7.896   1.597  12.372
94193SOL    HW284419   7.889   1.747  12.350
94194SOL     OW84420   1.640   6.357   7.833
94194SOL    HW184421   1.616   6.385   7.745
94194SOL    HW284422   1.688   6.431   7.869
94195SOL     OW84423   2.647   9.053   5.496
94195SOL    HW184424   2.608   9.136   5.524
94195SOL    HW284425   2.592   9.024   5.424
94196SOL     OW84426   5.503   3.171   8.425
94196SOL    HW184427   5.458   3.198   8.346
94196SOL    HW284428   5.585   3.132   8.395
94197SOL     OW84429   5.816  11.555   9.727
94197SOL    HW184430   5.748  11.603   9.773
94197SOL    HW284431   5.770  11.508   9.657
94198SOL     OW84432  12.734  10.384   0.461
94198SOL    HW184433  12.661  10.356   0.406
94198SOL    HW284434  12.693  10.425   0.537
94199SOL     OW84435   6.155   1.120  10.268
94199SOL    HW184436   6.099   1.045  10.289
94199SOL    HW284437   6.226   1.083  10.216
94200SOL     OW84438  14.422   7.101   4.664
94200SOL    HW184439  14.354   7.037   4.643
94200SOL    HW284440  14.439   7.146   4.581
94201SOL     OW84441   5.110  13.024   3.726
94201SOL    HW184442   5.019  13.020   3.697
94201SOL    HW284443   5.119  12.951   3.787
94202SOL     OW84444   3.206   8.491  11.761
94202SOL    HW184445   3.255   8.413  11.737
94202SOL    HW284446   3.115   8.462  11.767
94203SOL     OW84447   8.003   0.628   1.990
94203SOL    HW184448   7.961   0.549   1.957
94203SOL    HW284449   8.090   0.599   2.017
94204SOL     OW84450   7.883   3.273   1.377
94204SOL    HW184451   7.803   3.276   1.325
94204SOL    HW284452   7.919   3.362   1.372
94205SOL     OW84453   8.950   5.333   0.791
94205SOL    HW184454   8.960   5.291   0.877
94205SOL    HW284455   8.894   5.273   0.742
94206SOL     OW84456   2.434   7.348   0.364
94206SOL    HW184457   2.435   7.280   0.431
94206SOL    HW284458   2.351   7.394   0.378
94207SOL     OW84459   6.915  10.535  12.150
94207SOL    HW184460   6.917  10.440  12.137
94207SOL    HW284461   6.931  10.548  12.243
94208SOL     OW84462   0.880   6.276  14.384
94208SOL    HW184463   0.922   6.193  14.406
94208SOL    HW284464   0.851   6.311  14.468
94209SOL     OW84465   7.793   1.707   1.652
94209SOL    HW184466   7.870   1.761   1.669
94209SOL    HW284467   7.735   1.724   1.726
94210SOL     OW84468  10.588   1.491   5.159
94210SOL    HW184469  10.577   1.428   5.089
94210SOL    HW284470  10.507   1.542   5.160
94211SOL     OW84471   4.377   1.413  13.720
94211SOL    HW184472   4.398   1.371  13.637
94211SOL    HW284473   4.293   1.456  13.704
94212SOL     OW84474   0.846   9.275   3.886
94212SOL    HW184475   0.872   9.185   3.864
94212SOL    HW284476   0.890   9.329   3.820
94213SOL     OW84477   8.943  12.644   1.476
94213SOL    HW184478   8.940  12.549   1.470
94213SOL    HW284479   9.004  12.671   1.407
94214SOL     OW84480   8.278   5.803   7.948
94214SOL    HW184481   8.228   5.847   8.017
94214SOL    HW284482   8.363   5.845   7.950
94215SOL     OW84483  11.945   9.140  14.084
94215SOL    HW184484  11.879   9.147  14.015
94215SOL    HW284485  12.018   9.193  14.053
94216SOL     OW84486  13.430   5.355   6.338
94216SOL    HW184487  13.499   5.372   6.402
94216SOL    HW284488  13.360   5.416   6.361
94217SOL     OW84489   1.236  10.952  10.999
94217SOL    HW184490   1.332  10.945  10.997
94217SOL    HW284491   1.206  10.864  10.976
94218SOL     OW84492   1.379   7.276   7.641
94218SOL    HW184493   1.336   7.355   7.674
94218SOL    HW284494   1.349   7.206   7.698
94219SOL     OW84495   7.080  12.904  12.408
94219SOL    HW184496   6.995  12.924  12.368
94219SOL    HW284497   7.129  12.861  12.338
94220SOL     OW84498   1.383   1.706  10.325
94220SOL    HW184499   1.346   1.667  10.404
94220SOL    HW284500   1.477   1.702  10.337
94221SOL     OW84501  13.808  11.111   8.625
94221SOL    HW184502  13.862  11.055   8.570
94221SOL    HW284503  13.864  11.186   8.645
94222SOL     OW84504   1.511   5.707  10.338
94222SOL    HW184505   1.600   5.678  10.317
94222SOL    HW284506   1.506   5.701  10.433
94223SOL     OW84507   1.410  12.066   6.762
94223SOL    HW184508   1.442  12.119   6.835
94223SOL    HW284509   1.421  11.976   6.793
94224SOL     OW84510   5.057   7.764  13.803
94224SOL    HW184511   5.132   7.722  13.762
94224SOL    HW284512   5.037   7.838  13.747
94225SOL     OW84513   6.040   9.053  10.325
94225SOL    HW184514   6.011   8.984  10.266
94225SOL    HW284515   5.964   9.068  10.382
94226SOL     OW84516   0.276  10.678  13.463
94226SOL    HW184517   0.180  10.676  13.465
94226SOL    HW284518   0.302  10.585  13.466
94227SOL     OW84519   8.952   4.216   5.046
94227SOL    HW184520   8.988   4.145   4.992
94227SOL    HW284521   8.999   4.209   5.128
94228SOL     OW84522   0.058  10.210   5.912
94228SOL    HW184523  14.858  10.234   5.867
94228SOL    HW284524   0.064  10.115   5.901
94229SOL     OW84525  10.796  10.536   0.628
94229SOL    HW184526  10.825  10.554   0.717
94229SOL    HW284527  10.868  10.565   0.573
94230SOL     OW84528   5.188  13.502   1.044
94230SOL    HW184529   5.127  13.513   1.116
94230SOL    HW284530   5.163  13.570   0.981
94231SOL     OW84531   7.275   5.237   5.161
94231SOL    HW184532   7.303   5.167   5.102
94231SOL    HW284533   7.189   5.209   5.193
94232SOL     OW84534   5.102   8.663  13.474
94232SOL    HW184535   5.030   8.671  13.536
94232SOL    HW284536   5.149   8.584  13.501
94233SOL     OW84537  11.879   2.197   0.003
94233SOL    HW184538  11.874   2.291  14.867
94233SOL    HW284539  11.800   2.161  14.845
94234SOL     OW84540   3.690   3.065   6.541
94234SOL    HW184541   3.615   3.008   6.554
94234SOL    HW284542   3.674   3.140   6.599
94235SOL     OW84543   9.804   1.733   8.290
94235SOL    HW184544   9.811   1.689   8.205
94235SOL    HW284545   9.873   1.799   8.289
94236SOL     OW84546  12.147   2.431  10.061
94236SOL    HW184547  12.160   2.456  10.153
94236SOL    HW284548  12.220   2.373  10.041
94237SOL     OW84549   5.443   4.801  14.215
94237SOL    HW184550   5.350   4.792  14.237
94237SOL    HW284551   5.446   4.799  14.119
94238SOL     OW84552   8.991  10.919  13.060
94238SOL    HW184553   8.965  11.001  13.103
94238SOL    HW284554   8.925  10.856  13.086
94239SOL     OW84555  14.450   4.416   1.470
94239SOL    HW184556  14.401   4.422   1.389
94239SOL    HW284557  14.462   4.322   1.484
94240SOL     OW84558   8.956  13.209  11.334
94240SOL    HW184559   9.041  13.247  11.355
94240SOL    HW284560   8.974  13.117  11.319
94241SOL     OW84561   5.933  11.855   4.729
94241SOL    HW184562   6.006  11.810   4.771
94241SOL    HW284563   5.974  11.923   4.675
94242SOL     OW84564   2.164   6.031   6.756
94242SOL    HW184565   2.151   5.952   6.809
94242SOL    HW284566   2.123   6.101   6.806
94243SOL     OW84567  10.439   9.463   3.814
94243SOL    HW184568  10.383   9.451   3.737
94243SOL    HW284569  10.385   9.515   3.874
94244SOL     OW84570  10.309  10.188   4.888
94244SOL    HW184571  10.378  10.214   4.949
94244SOL    HW284572  10.236  10.248   4.908
94245SOL     OW84573  12.546   6.058   2.709
94245SOL    HW184574  12.573   6.086   2.797
94245SOL    HW284575  12.452   6.047   2.715
94246SOL     OW84576   3.934   7.923  12.660
94246SOL    HW184577   3.940   7.993  12.595
94246SOL    HW284578   3.915   7.844  12.609
94247SOL     OW84579  13.893  14.186  14.012
94247SOL    HW184580  13.922  14.165  13.923
94247SOL    HW284581  13.884  14.101  14.055
94248SOL     OW84582   7.843   1.339  13.735
94248SOL    HW184583   7.774   1.296  13.785
94248SOL    HW284584   7.797   1.396  13.673
94249SOL     OW84585  10.418  11.570   5.097
94249SOL    HW184586  10.439  11.643   5.156
94249SOL    HW284587  10.342  11.602   5.047
94250SOL     OW84588   7.099   6.798   5.340
94250SOL    HW184589   7.146   6.782   5.259
94250SOL    HW284590   7.116   6.721   5.394
94251SOL     OW84591   7.542  14.299  12.307
94251SOL    HW184592   7.579  14.332  12.389
94251SOL    HW284593   7.462  14.254  12.334
94252SOL     OW84594   8.349   7.562  10.978
94252SOL    HW184595   8.333   7.563  10.884
94252SOL    HW284596   8.325   7.650  11.007
94253SOL     OW84597   2.240   4.948   7.561
94253SOL    HW184598   2.147   4.943   7.585
94253SOL    HW284599   2.259   4.861   7.526
94254SOL     OW84600  13.490   6.919   9.358
94254SOL    HW184601  13.554   6.881   9.418
94254SOL    HW284602  13.446   6.987   9.409
94255SOL     OW84603   4.167   4.418   4.674
94255SOL    HW184604   4.111   4.494   4.688
94255SOL    HW284605   4.228   4.445   4.606
94256SOL     OW84606   2.383   6.216  13.385
94256SOL    HW184607   2.355   6.308  13.387
94256SOL    HW284608   2.338   6.175  13.459
94257SOL     OW84609   1.574   4.616  12.715
94257SOL    HW184610   1.655   4.666  12.720
94257SOL    HW284611   1.526   4.654  12.641
94258SOL     OW84612   9.498   3.829   5.428
94258SOL    HW184613   9.477   3.883   5.505
94258SOL    HW284614   9.556   3.760   5.462
94259SOL     OW84615   2.928   2.538   5.726
94259SOL    HW184616   2.900   2.485   5.651
94259SOL    HW284617   3.022   2.522   5.733
94260SOL     OW84618   2.142   3.437  10.081
94260SOL    HW184619   2.141   3.346  10.113
94260SOL    HW284620   2.104   3.488  10.152
94261SOL     OW84621   1.846   0.295  10.243
94261SOL    HW184622   1.878   0.233  10.308
94261SOL    HW284623   1.858   0.251  10.159
94262SOL     OW84624   6.712   6.080   1.775
94262SOL    HW184625   6.649   6.063   1.705
94262SOL    HW284626   6.733   5.993   1.810
94263SOL     OW84627  10.203  10.247   8.874
94263SOL    HW184628  10.191  10.176   8.811
94263SOL    HW284629  10.194  10.205   8.960
94264SOL     OW84630   5.712  13.867   1.493
94264SOL    HW184631   5.660  13.941   1.524
94264SOL    HW284632   5.785  13.908   1.445
94265SOL     OW84633  13.720  11.225  10.389
94265SOL    HW184634  13.689  11.134  10.387
94265SOL    HW284635  13.696  11.256  10.476
94266SOL     OW84636   8.238   7.290  10.363
94266SOL    HW184637   8.226   7.292  10.268
94266SOL    HW284638   8.252   7.198  10.383
94267SOL     OW84639   6.464   1.105  12.091
94267SOL    HW184640   6.385   1.115  12.038
94267SOL    HW284641   6.521   1.049  12.040
94268SOL     OW84642   3.480  14.537   5.772
94268SOL    HW184643   3.422  14.558   5.699
94268SOL    HW284644   3.553  14.491   5.732
94269SOL     OW84645   0.746  11.957   4.773
94269SOL    HW184646   0.710  11.927   4.689
94269SOL    HW284647   0.806  11.888   4.800
94270SOL     OW84648  13.889   5.015   2.276
94270SOL    HW184649  13.952   4.943   2.266
94270SOL    HW284650  13.933   5.091   2.237
94271SOL     OW84651   2.759  12.469   4.360
94271SOL    HW184652   2.709  12.516   4.426
94271SOL    HW284653   2.832  12.429   4.408
94272SOL     OW84654   2.996  10.907   7.442
94272SOL    HW184655   3.083  10.943   7.461
94272SOL    HW284656   2.944  10.983   7.414
94273SOL     OW84657  11.130   5.099   0.693
94273SOL    HW184658  11.086   5.136   0.770
94273SOL    HW284659  11.091   5.144   0.619
94274SOL     OW84660  12.482   5.327   9.294
94274SOL    HW184661  12.559   5.300   9.244
94274SOL    HW284662  12.475   5.421   9.280
94275SOL     OW84663   0.088   6.226  10.051
94275SOL    HW184664   0.141   6.305  10.065
94275SOL    HW284665   0.143   6.154  10.083
94276SOL     OW84666   3.355  12.613   2.922
94276SOL    HW184667   3.358  12.657   2.837
94276SOL    HW284668   3.279  12.555   2.916
94277SOL     OW84669  14.137  14.214   1.301
94277SOL    HW184670  14.062  14.235   1.357
94277SOL    HW284671  14.208  14.197   1.363
94278SOL     OW84672  14.557   5.600   3.951
94278SOL    HW184673  14.582   5.672   4.008
94278SOL    HW284674  14.640   5.569   3.914
94279SOL     OW84675  10.701   9.209  13.172
94279SOL    HW184676  10.698   9.297  13.210
94279SOL    HW284677  10.666   9.220  13.084
94280SOL     OW84678   2.516  10.837   4.418
94280SOL    HW184679   2.579  10.804   4.482
94280SOL    HW284680   2.443  10.869   4.471
94281SOL     OW84681  10.456  11.806  14.158
94281SOL    HW184682  10.464  11.860  14.079
94281SOL    HW284683  10.366  11.819  14.187
94282SOL     OW84684   9.277  13.813   4.399
94282SOL    HW184685   9.283  13.908   4.401
94282SOL    HW284686   9.334  13.783   4.469
94283SOL     OW84687   9.355   4.058  10.753
94283SOL    HW184688   9.389   4.030  10.668
94283SOL    HW284689   9.260   4.047  10.747
94284SOL     OW84690  13.916   6.325   6.695
94284SOL    HW184691  13.835   6.289   6.729
94284SOL    HW284692  13.985   6.279   6.743
94285SOL     OW84693   1.325   6.626   3.188
94285SOL    HW184694   1.350   6.561   3.123
94285SOL    HW284695   1.402   6.682   3.196
94286SOL     OW84696   2.889   5.724  13.354
94286SOL    HW184697   2.899   5.672  13.434
94286SOL    HW284698   2.805   5.696  13.317
94287SOL     OW84699  14.617   8.898  10.222
94287SOL    HW184700  14.699   8.913  10.176
94287SOL    HW284701  14.643   8.863  10.307
94288SOL     OW84702  14.331   1.978   5.625
94288SOL    HW184703  14.241   2.004   5.643
94288SOL    HW284704  14.329   1.944   5.536
94289SOL     OW84705   1.729  11.373   8.781
94289SOL    HW184706   1.780  11.344   8.857
94289SOL    HW284707   1.766  11.325   8.707
94290SOL     OW84708   8.589   7.759   5.528
94290SOL    HW184709   8.535   7.837   5.515
94290SOL    HW284710   8.637   7.776   5.609
94291SOL     OW84711  10.255   1.376   4.949
94291SOL    HW184712  10.173   1.339   4.914
94291SOL    HW284713  10.228   1.457   4.992
94292SOL     OW84714   2.193  12.025  14.494
94292SOL    HW184715   2.194  12.081  14.572
94292SOL    HW284716   2.137  11.952  14.518
94293SOL     OW84717   2.080   6.232   1.866
94293SOL    HW184718   2.090   6.157   1.807
94293SOL    HW284719   2.138   6.213   1.940
94294SOL     OW84720   8.588   1.105  14.820
94294SOL    HW184721   8.664   1.054  14.849
94294SOL    HW284722   8.621   1.194  14.809
94295SOL     OW84723  13.169  10.551   5.638
94295SOL    HW184724  13.209  10.626   5.684
94295SOL    HW284725  13.098  10.589   5.586
94296SOL     OW84726   2.476   8.963   6.634
94296SOL    HW184727   2.554   9.018   6.628
94296SOL    HW284728   2.431   8.976   6.551
94297SOL     OW84729  11.773   4.756   3.616
94297SOL    HW184730  11.800   4.791   3.531
94297SOL    HW284731  11.691   4.801   3.636
94298SOL     OW84732   3.616   6.082   1.098
94298SOL    HW184733   3.653   5.994   1.091
94298SOL    HW284734   3.549   6.086   1.030
94299SOL     OW84735   1.764  12.405   2.523
94299SOL    HW184736   1.726  12.492   2.516
94299SOL    HW284737   1.855  12.420   2.549
94300SOL     OW84738   7.837   6.927  13.536
94300SOL    HW184739   7.752   6.903  13.574
94300SOL    HW284740   7.900   6.872  13.583
94301SOL     OW84741  11.516  14.874   1.312
94301SOL    HW184742  11.461  14.806   1.273
94301SOL    HW284743  11.580   0.013   1.245
94302SOL     OW84744  13.542   8.863  13.655
94302SOL    HW184745  13.449   8.869  13.632
94302SOL    HW284746  13.588   8.873  13.572
94303SOL     OW84747  13.421   1.591  13.390
94303SOL    HW184748  13.338   1.611  13.434
94303SOL    HW284749  13.402   1.601  13.297
94304SOL     OW84750   7.802   0.949   1.332
94304SOL    HW184751   7.847   0.865   1.341
94304SOL    HW284752   7.869   1.014   1.352
94305SOL     OW84753   9.872   4.709   4.159
94305SOL    HW184754   9.904   4.639   4.103
94305SOL    HW284755   9.798   4.671   4.206
94306SOL     OW84756  10.277   1.897   4.969
94306SOL    HW184757  10.352   1.884   4.911
94306SOL    HW284758  10.204   1.855   4.923
94307SOL     OW84759  13.345   9.349   9.072
94307SOL    HW184760  13.317   9.293   9.145
94307SOL    HW284761  13.432   9.318   9.050
94308SOL     OW84762  11.110  13.651   4.021
94308SOL    HW184763  11.017  13.653   3.996
94308SOL    HW284764  11.155  13.620   3.943
94309SOL     OW84765  12.831  13.007  13.288
94309SOL    HW184766  12.903  13.004  13.352
94309SOL    HW284767  12.869  13.048  13.211
94310SOL     OW84768  10.880   2.982   2.564
94310SOL    HW184769  10.800   2.975   2.511
94310SOL    HW284770  10.849   2.979   2.654
94311SOL     OW84771   8.611  10.632  12.030
94311SOL    HW184772   8.648  10.690  12.097
94311SOL    HW284773   8.518  10.625  12.053
94312SOL     OW84774  11.503   8.217   3.423
94312SOL    HW184775  11.467   8.177   3.502
94312SOL    HW284776  11.538   8.301   3.452
94313SOL     OW84777  12.136   4.136   8.155
94313SOL    HW184778  12.069   4.188   8.111
94313SOL    HW284779  12.087   4.069   8.203
94314SOL     OW84780   5.254  10.191   1.422
94314SOL    HW184781   5.226  10.282   1.434
94314SOL    HW284782   5.338  10.185   1.466
94315SOL     OW84783   3.778   8.424  13.971
94315SOL    HW184784   3.806   8.395  14.057
94315SOL    HW284785   3.857   8.422  13.917
94316SOL     OW84786  11.128  11.826   3.241
94316SOL    HW184787  11.169  11.874   3.313
94316SOL    HW284788  11.045  11.872   3.225
94317SOL     OW84789  10.419  14.181   8.656
94317SOL    HW184790  10.343  14.238   8.649
94317SOL    HW284791  10.439  14.179   8.750
94318SOL     OW84792   3.503  12.746   2.266
94318SOL    HW184793   3.475  12.672   2.211
94318SOL    HW284794   3.529  12.706   2.349
94319SOL     OW84795   3.953   9.192   5.138
94319SOL    HW184796   3.949   9.273   5.189
94319SOL    HW284797   4.029   9.204   5.081
94320SOL     OW84798   9.026   6.560   3.465
94320SOL    HW184799   9.073   6.594   3.388
94320SOL    HW284800   8.950   6.617   3.473
94321SOL     OW84801  13.996   3.923   4.311
94321SOL    HW184802  14.076   3.926   4.362
94321SOL    HW284803  13.937   3.867   4.361
94322SOL     OW84804   8.650  11.608  14.151
94322SOL    HW184805   8.607  11.687  14.120
94322SOL    HW284806   8.732  11.604  14.102
94323SOL     OW84807   9.291  14.732   5.581
94323SOL    HW184808   9.240  14.813   5.587
94323SOL    HW284809   9.245  14.671   5.639
94324SOL     OW84810  14.737  12.825   5.979
94324SOL    HW184811  14.795  12.783   6.042
94324SOL    HW284812  14.684  12.885   6.032
94325SOL     OW84813  13.019   3.985   1.837
94325SOL    HW184814  12.924   3.974   1.846
94325SOL    HW284815  13.053   3.970   1.925
94326SOL     OW84816  11.728  12.328   2.240
94326SOL    HW184817  11.781  12.252   2.265
94326SOL    HW284818  11.788  12.385   2.193
94327SOL     OW84819   0.874  13.858  11.242
94327SOL    HW184820   0.925  13.781  11.267
94327SOL    HW284821   0.892  13.923  11.310
94328SOL     OW84822  13.713   1.332   1.520
94328SOL    HW184823  13.723   1.343   1.615
94328SOL    HW284824  13.669   1.412   1.491
94329SOL     OW84825   8.159   9.098  12.164
94329SOL    HW184826   8.251   9.071  12.170
94329SOL    HW284827   8.119   9.035  12.103
94330SOL     OW84828   4.102   9.100   8.988
94330SOL    HW184829   4.017   9.056   8.981
94330SOL    HW284830   4.093   9.158   9.064
94331SOL     OW84831   9.193   5.841  13.505
94331SOL    HW184832   9.236   5.921  13.534
94331SOL    HW284833   9.129   5.822  13.574
94332SOL     OW84834   5.146  11.300  13.933
94332SOL    HW184835   5.051  11.303  13.927
94332SOL    HW284836   5.176  11.371  13.876
94333SOL     OW84837   7.709   2.235   0.576
94333SOL    HW184838   7.775   2.259   0.511
94333SOL    HW284839   7.625   2.245   0.532
94334SOL     OW84840  11.504  14.873   8.371
94334SOL    HW184841  11.505   0.000   8.467
94334SOL    HW284842  11.471  14.785   8.356
94335SOL     OW84843   8.808   9.773  12.780
94335SOL    HW184844   8.808   9.706  12.711
94335SOL    HW284845   8.877   9.834  12.754
94336SOL     OW84846  10.019   0.239   5.895
94336SOL    HW184847  10.018   0.283   5.811
94336SOL    HW284848  10.105   0.196   5.899
94337SOL     OW84849   5.042   2.728   6.359
94337SOL    HW184850   5.134   2.754   6.364
94337SOL    HW284851   5.007   2.776   6.283
94338SOL     OW84852  14.250  12.798   3.649
94338SOL    HW184853  14.200  12.834   3.576
94338SOL    HW284854  14.326  12.757   3.607
94339SOL     OW84855   5.536   3.552   2.323
94339SOL    HW184856   5.482   3.579   2.397
94339SOL    HW284857   5.579   3.632   2.294
94340SOL     OW84858  14.454   8.280   1.795
94340SOL    HW184859  14.468   8.194   1.833
94340SOL    HW284860  14.363   8.278   1.763
94341SOL     OW84861   8.001  14.878   4.499
94341SOL    HW184862   8.044  14.826   4.567
94341SOL    HW284863   8.052  14.861   4.420
94342SOL     OW84864   8.604   3.382  13.328
94342SOL    HW184865   8.610   3.477  13.319
94342SOL    HW284866   8.568   3.368  13.415
94343SOL     OW84867  12.686   8.744   2.074
94343SOL    HW184868  12.724   8.739   1.987
94343SOL    HW284869  12.638   8.662   2.085
94344SOL     OW84870   4.431   3.902   1.561
94344SOL    HW184871   4.521   3.908   1.528
94344SOL    HW284872   4.383   3.859   1.490
94345SOL     OW84873  10.532  10.364   2.212
94345SOL    HW184874  10.467  10.308   2.254
94345SOL    HW284875  10.615  10.343   2.255
94346SOL     OW84876   2.354  11.650   3.376
94346SOL    HW184877   2.272  11.675   3.417
94346SOL    HW284878   2.351  11.554   3.372
94347SOL     OW84879  11.427  12.760   6.783
94347SOL    HW184880  11.477  12.704   6.722
94347SOL    HW284881  11.418  12.707   6.862
94348SOL     OW84882  10.621  13.841  14.848
94348SOL    HW184883  10.651  13.888  14.770
94348SOL    HW284884  10.702  13.807   0.005
94349SOL     OW84885   6.538   3.824   6.861
94349SOL    HW184886   6.632   3.839   6.871
94349SOL    HW284887   6.518   3.855   6.772
94350SOL     OW84888   7.777   3.093  10.549
94350SOL    HW184889   7.697   3.144  10.540
94350SOL    HW284890   7.831   3.144  10.609
94351SOL     OW84891   6.267  10.667  11.688
94351SOL    HW184892   6.267  10.572  11.695
94351SOL    HW284893   6.179  10.689  11.658
94352SOL     OW84894   1.733   3.426  14.010
94352SOL    HW184895   1.655   3.369  14.007
94352SOL    HW284896   1.745   3.445  14.103
94353SOL     OW84897   9.600   9.334  13.204
94353SOL    HW184898   9.529   9.390  13.174
94353SOL    HW284899   9.591   9.254  13.153
94354SOL     OW84900   6.191   1.467   9.963
94354SOL    HW184901   6.194   1.470   9.867
94354SOL    HW284902   6.274   1.506   9.991
94355SOL     OW84903  11.629   1.020  11.903
94355SOL    HW184904  11.546   0.973  11.915
94355SOL    HW284905  11.614   1.075  11.826
94356SOL     OW84906   8.895  10.224  12.073
94356SOL    HW184907   8.915  10.206  12.165
94356SOL    HW284908   8.888  10.137  12.033
94357SOL     OW84909   2.228   8.371   8.357
94357SOL    HW184910   2.134   8.359   8.344
94357SOL    HW284911   2.240   8.369   8.452
94358SOL     OW84912   1.010   3.834  10.790
94358SOL    HW184913   1.058   3.788  10.858
94358SOL    HW284914   0.918   3.828  10.816
94359SOL     OW84915   9.465  10.336   8.434
94359SOL    HW184916   9.431  10.411   8.386
94359SOL    HW284917   9.387  10.285   8.458
94360SOL     OW84918   9.849   9.503   1.297
94360SOL    HW184919   9.831   9.496   1.203
94360SOL    HW284920   9.790   9.573   1.327
94361SOL     OW84921  10.067  10.195   3.423
94361SOL    HW184922  10.017  10.213   3.344
94361SOL    HW284923  10.013  10.228   3.494
94362SOL     OW84924   7.018  14.277   4.830
94362SOL    HW184925   7.073  14.342   4.874
94362SOL    HW284926   6.971  14.233   4.901
94363SOL     OW84927   4.899   9.310   7.024
94363SOL    HW184928   4.935   9.244   7.083
94363SOL    HW284929   4.806   9.290   7.019
94364SOL     OW84930   7.824  11.423  13.497
94364SOL    HW184931   7.859  11.344  13.539
94364SOL    HW284932   7.729  11.411  13.500
94365SOL     OW84933   4.866   2.476  11.228
94365SOL    HW184934   4.880   2.394  11.180
94365SOL    HW284935   4.858   2.542  11.159
94366SOL     OW84936   8.826  10.132   2.924
94366SOL    HW184937   8.742  10.133   2.970
94366SOL    HW284938   8.808  10.084   2.843
94367SOL     OW84939   8.156   9.228   8.971
94367SOL    HW184940   8.215   9.285   8.922
94367SOL    HW284941   8.147   9.150   8.916
94368SOL     OW84942   9.981   6.884  13.904
94368SOL    HW184943  10.076   6.888  13.910
94368SOL    HW284944   9.956   6.969  13.867
94369SOL     OW84945  11.949   6.178   3.227
94369SOL    HW184946  11.890   6.140   3.291
94369SOL    HW284947  11.944   6.273   3.242
94370SOL     OW84948  12.239   3.816   5.027
94370SOL    HW184949  12.217   3.723   5.029
94370SOL    HW284950  12.164   3.858   4.983
94371SOL     OW84951  12.027  12.721   6.880
94371SOL    HW184952  12.113  12.680   6.871
94371SOL    HW284953  11.966  12.654   6.848
94372SOL     OW84954  14.244   7.836   0.824
94372SOL    HW184955  14.315   7.826   0.762
94372SOL    HW284956  14.170   7.788   0.785
94373SOL     OW84957  14.073   7.854   3.380
94373SOL    HW184958  14.117   7.808   3.452
94373SOL    HW284959  14.008   7.791   3.348
94374SOL     OW84960   8.234  14.395  10.460
94374SOL    HW184961   8.152  14.362  10.423
94374SOL    HW284962   8.285  14.316  10.478
94375SOL     OW84963   2.913  13.328   3.998
94375SOL    HW184964   3.004  13.341   4.026
94375SOL    HW284965   2.921  13.287   3.911
94376SOL     OW84966   2.914  13.298  12.172
94376SOL    HW184967   2.843  13.243  12.205
94376SOL    HW284968   2.870  13.372  12.130
94377SOL     OW84969  12.230   4.034   4.659
94377SOL    HW184970  12.195   3.972   4.724
94377SOL    HW284971  12.155   4.053   4.602
94378SOL     OW84972   3.482  10.444  13.449
94378SOL    HW184973   3.524  10.377  13.394
94378SOL    HW284974   3.510  10.527  13.411
94379SOL     OW84975   3.663   8.598  14.240
94379SOL    HW184976   3.573   8.630  14.231
94379SOL    HW284977   3.712   8.648  14.174
94380SOL     OW84978   6.004   8.535   6.709
94380SOL    HW184979   6.011   8.620   6.753
94380SOL    HW284980   6.079   8.485   6.743
94381SOL     OW84981  10.788   3.006   1.417
94381SOL    HW184982  10.829   2.924   1.388
94381SOL    HW284983  10.706   2.979   1.458
94382SOL     OW84984   0.419  12.593  10.273
94382SOL    HW184985   0.353  12.529  10.245
94382SOL    HW284986   0.435  12.572  10.365
94383SOL     OW84987   0.177   3.797   6.908
94383SOL    HW184988   0.189   3.853   6.985
94383SOL    HW284989   0.261   3.752   6.898
94384SOL     OW84990   5.172   6.322   4.451
94384SOL    HW184991   5.117   6.261   4.500
94384SOL    HW284992   5.241   6.268   4.413
94385SOL     OW84993   7.088   9.948   6.270
94385SOL    HW184994   7.126  10.027   6.233
94385SOL    HW284995   7.141   9.876   6.235
94386SOL     OW84996  12.168   9.883  11.709
94386SOL    HW184997  12.107   9.942  11.754
94386SOL    HW284998  12.112   9.817  11.669
94387SOL     OW84999   7.487   7.763   6.041
94387SOL    HW185000   7.482   7.695   6.108
94387SOL    HW285001   7.559   7.820   6.070
94388SOL     OW85002   7.747   2.468  12.387
94388SOL    HW185003   7.806   2.484  12.313
94388SOL    HW285004   7.783   2.390  12.429
94389SOL     OW85005   4.453  10.458   2.527
94389SOL    HW185006   4.503  10.538   2.512
94389SOL    HW285007   4.508  10.388   2.492
94390SOL     OW85008   0.781   0.900   8.262
94390SOL    HW185009   0.860   0.952   8.249
94390SOL    HW285010   0.712   0.964   8.279
94391SOL     OW85011  14.396   9.934   3.653
94391SOL    HW185012  14.361   9.959   3.568
94391SOL    HW285013  14.343   9.982   3.716
94392SOL     OW85014   5.457   7.354   6.577
94392SOL    HW185015   5.372   7.359   6.533
94392SOL    HW285016   5.449   7.416   6.650
94393SOL     OW85017   6.947   2.464   4.762
94393SOL    HW185018   6.999   2.453   4.682
94393SOL    HW285019   6.995   2.529   4.813
94394SOL     OW85020   0.027   4.883  14.679
94394SOL    HW185021   0.106   4.931  14.653
94394SOL    HW285022  14.856   4.947  14.725
94395SOL     OW85023  14.245   0.428   5.882
94395SOL    HW185024  14.226   0.424   5.976
94395SOL    HW285025  14.341   0.429   5.877
94396SOL     OW85026   1.072  12.794   7.315
94396SOL    HW185027   1.003  12.746   7.269
94396SOL    HW285028   1.125  12.832   7.245
94397SOL     OW85029  14.028   6.788   6.533
94397SOL    HW185030  14.052   6.815   6.621
94397SOL    HW285031  13.978   6.707   6.545
94398SOL     OW85032   0.516   7.694  11.450
94398SOL    HW185033   0.541   7.738  11.531
94398SOL    HW285034   0.599   7.666  11.411
94399SOL     OW85035  12.872  12.019  11.279
94399SOL    HW185036  12.804  12.083  11.258
94399SOL    HW285037  12.950  12.053  11.234
94400SOL     OW85038   8.712   0.864   1.460
94400SOL    HW185039   8.683   0.943   1.415
94400SOL    HW285040   8.689   0.879   1.552
94401SOL     OW85041   1.904   4.745   1.687
94401SOL    HW185042   1.995   4.775   1.696
94401SOL    HW285043   1.869   4.797   1.615
94402SOL     OW85044   0.247  10.424  10.302
94402SOL    HW185045   0.190  10.467  10.365
94402SOL    HW285046   0.193  10.412  10.224
94403SOL     OW85047   5.266   2.402   8.926
94403SOL    HW185048   5.257   2.338   8.856
94403SOL    HW285049   5.320   2.472   8.888
94404SOL     OW85050  13.588   3.071  10.905
94404SOL    HW185051  13.581   3.105  10.994
94404SOL    HW285052  13.502   3.031  10.887
94405SOL     OW85053  10.679   1.277  13.090
94405SOL    HW185054  10.743   1.213  13.122
94405SOL    HW285055  10.732   1.352  13.065
94406SOL     OW85056   8.348   6.754   5.002
94406SOL    HW185057   8.303   6.778   5.083
94406SOL    HW285058   8.308   6.811   4.935
94407SOL     OW85059  10.594  13.535   9.605
94407SOL    HW185060  10.582  13.565   9.515
94407SOL    HW285061  10.572  13.611   9.658
94408SOL     OW85062   8.994  12.730   5.459
94408SOL    HW185063   8.953  12.695   5.537
94408SOL    HW285064   8.923  12.770   5.409
94409SOL     OW85065   4.719   3.959   8.569
94409SOL    HW185066   4.792   3.905   8.540
94409SOL    HW285067   4.747   3.993   8.654
94410SOL     OW85068  13.941  11.678   9.321
94410SOL    HW185069  13.945  11.644   9.231
94410SOL    HW285070  14.023  11.648   9.361
94411SOL     OW85071   5.370   0.891  13.152
94411SOL    HW185072   5.430   0.931  13.215
94411SOL    HW285073   5.320   0.964  13.117
94412SOL     OW85074   4.735  11.563   5.352
94412SOL    HW185075   4.793  11.585   5.424
94412SOL    HW285076   4.739  11.467   5.345
94413SOL     OW85077  12.498  10.465   2.161
94413SOL    HW185078  12.573  10.416   2.194
94413SOL    HW285079  12.536  10.540   2.115
94414SOL     OW85080  13.801   0.098   4.744
94414SOL    HW185081  13.859   0.171   4.763
94414SOL    HW285082  13.840   0.056   4.667
94415SOL     OW85083   0.490  11.518   0.750
94415SOL    HW185084   0.457  11.478   0.831
94415SOL    HW285085   0.583  11.531   0.766
94416SOL     OW85086   5.316   1.720   0.336
94416SOL    HW185087   5.379   1.789   0.355
94416SOL    HW285088   5.252   1.725   0.407
94417SOL     OW85089   1.918  12.609  13.421
94417SOL    HW185090   1.846  12.603  13.359
94417SOL    HW285091   1.878  12.643  13.501
94418SOL     OW85092   2.770   6.393   5.998
94418SOL    HW185093   2.777   6.316   6.054
94418SOL    HW285094   2.857   6.403   5.960
94419SOL     OW85095   2.731  11.102   8.873
94419SOL    HW185096   2.713  11.109   8.780
94419SOL    HW285097   2.823  11.074   8.878
94420SOL     OW85098  13.860   7.703  13.377
94420SOL    HW185099  13.899   7.786  13.403
94420SOL    HW285100  13.812   7.723  13.296
94421SOL     OW85101   4.249  11.818   6.511
94421SOL    HW185102   4.276  11.822   6.419
94421SOL    HW285103   4.187  11.745   6.515
94422SOL     OW85104   1.323   7.701   9.501
94422SOL    HW185105   1.373   7.705   9.582
94422SOL    HW285106   1.321   7.792   9.470
94423SOL     OW85107   1.053  12.677   0.931
94423SOL    HW185108   1.113  12.678   1.005
94423SOL    HW285109   1.090  12.612   0.870
94424SOL     OW85110   0.446  11.514   5.089
94424SOL    HW185111   0.508  11.505   5.017
94424SOL    HW285112   0.416  11.604   5.083
94425SOL     OW85113   0.817   9.011   0.700
94425SOL    HW185114   0.731   9.025   0.738
94425SOL    HW285115   0.804   9.023   0.606
94426SOL     OW85116   7.485  11.971   8.824
94426SOL    HW185117   7.550  12.024   8.870
94426SOL    HW285118   7.509  11.977   8.732
94427SOL     OW85119   5.329   9.523  12.180
94427SOL    HW185120   5.392   9.492  12.115
94427SOL    HW285121   5.288   9.443  12.214
94428SOL     OW85122  12.540   6.970  12.897
94428SOL    HW185123  12.521   7.017  12.979
94428SOL    HW285124  12.466   6.911  12.886
94429SOL     OW85125   9.967   3.505  11.106
94429SOL    HW185126   9.876   3.536  11.113
94429SOL    HW285127  10.014   3.554  11.173
94430SOL     OW85128   1.286   9.260   4.632
94430SOL    HW185129   1.331   9.266   4.716
94430SOL    HW285130   1.195   9.245   4.655
94431SOL     OW85131   3.443   1.189   0.091
94431SOL    HW185132   3.420   1.131   0.019
94431SOL    HW285133   3.530   1.159   0.119
94432SOL     OW85134   1.946  14.691   0.683
94432SOL    HW185135   1.878  14.652   0.739
94432SOL    HW285136   2.028  14.653   0.715
94433SOL     OW85137  14.137  14.125   1.591
94433SOL    HW185138  14.126  14.059   1.659
94433SOL    HW285139  14.057  14.119   1.538
94434SOL     OW85140   6.608   3.264   5.389
94434SOL    HW185141   6.682   3.208   5.367
94434SOL    HW285142   6.638   3.316   5.463
94435SOL     OW85143   9.045   9.456   7.876
94435SOL    HW185144   8.961   9.477   7.917
94435SOL    HW285145   9.109   9.465   7.946
94436SOL     OW85146  11.082   1.911   3.247
94436SOL    HW185147  11.118   1.836   3.200
94436SOL    HW285148  11.004   1.877   3.292
94437SOL     OW85149   9.026   3.922   7.127
94437SOL    HW185150   8.931   3.934   7.118
94437SOL    HW285151   9.039   3.905   7.221
94438SOL     OW85152   3.503   5.373   3.101
94438SOL    HW185153   3.528   5.310   3.033
94438SOL    HW285154   3.586   5.404   3.137
94439SOL     OW85155   0.137   3.238   7.581
94439SOL    HW185156   0.102   3.184   7.652
94439SOL    HW285157   0.206   3.290   7.622
94440SOL     OW85158   2.708  12.378   3.036
94440SOL    HW185159   2.801  12.370   3.017
94440SOL    HW285160   2.702  12.363   3.131
94441SOL     OW85161   5.123   2.725  12.144
94441SOL    HW185162   5.216   2.705  12.136
94441SOL    HW285163   5.092   2.732  12.054
94442SOL     OW85164   7.661   7.673   7.881
94442SOL    HW185165   7.568   7.653   7.872
94442SOL    HW285166   7.667   7.716   7.966
94443SOL     OW85167  11.169   5.757   4.470
94443SOL    HW185168  11.143   5.730   4.382
94443SOL    HW285169  11.145   5.850   4.474
94444SOL     OW85170   5.246   3.926   7.053
94444SOL    HW185171   5.317   3.924   6.988
94444SOL    HW285172   5.278   3.983   7.122
94445SOL     OW85173   4.048  14.013   1.749
94445SOL    HW185174   4.037  14.023   1.844
94445SOL    HW285175   4.037  13.920   1.733
94446SOL     OW85176  11.990  14.782   4.214
94446SOL    HW185177  11.996  14.696   4.173
94446SOL    HW285178  12.081  14.813   4.218
94447SOL     OW85179   1.343  10.754   7.084
94447SOL    HW185180   1.345  10.831   7.027
94447SOL    HW285181   1.250  10.737   7.098
94448SOL     OW85182   3.012   3.521   9.453
94448SOL    HW185183   3.026   3.570   9.372
94448SOL    HW285184   2.985   3.434   9.425
94449SOL     OW85185   8.281   7.016  10.422
94449SOL    HW185186   8.340   7.006  10.348
94449SOL    HW285187   8.325   6.970  10.494
94450SOL     OW85188   2.802   9.041   6.647
94450SOL    HW185189   2.894   9.022   6.666
94450SOL    HW285190   2.792   9.135   6.666
94451SOL     OW85191   9.769   3.502   6.507
94451SOL    HW185192   9.782   3.592   6.538
94451SOL    HW285193   9.683   3.477   6.540
94452SOL     OW85194   1.650   7.701   9.267
94452SOL    HW185195   1.681   7.657   9.346
94452SOL    HW285196   1.584   7.642   9.231
94453SOL     OW85197   5.377   8.289   9.064
94453SOL    HW185198   5.441   8.277   8.994
94453SOL    HW285199   5.348   8.201   9.086
94454SOL     OW85200   7.467  11.291   9.611
94454SOL    HW185201   7.442  11.338   9.690
94454SOL    HW285202   7.562  11.284   9.617
94455SOL     OW85203   6.017  14.476  12.592
94455SOL    HW185204   5.969  14.557  12.573
94455SOL    HW285205   6.037  14.439  12.506
94456SOL     OW85206  10.932   3.614   0.911
94456SOL    HW185207  10.976   3.545   0.861
94456SOL    HW285208  10.845   3.619   0.873
94457SOL     OW85209   6.273   1.141  13.293
94457SOL    HW185210   6.330   1.109  13.224
94457SOL    HW285211   6.212   1.069  13.310
94458SOL     OW85212  14.332   7.762   5.241
94458SOL    HW185213  14.321   7.724   5.328
94458SOL    HW285214  14.349   7.687   5.184
94459SOL     OW85215  13.796   7.519   5.880
94459SOL    HW185216  13.828   7.549   5.965
94459SOL    HW285217  13.709   7.482   5.898
94460SOL     OW85218   0.533  10.457   2.504
94460SOL    HW185219   0.465  10.512   2.465
94460SOL    HW285220   0.495  10.427   2.587
94461SOL     OW85221   6.329  13.171   2.618
94461SOL    HW185222   6.299  13.088   2.581
94461SOL    HW285223   6.423  13.173   2.601
94462SOL     OW85224   0.736   3.532   8.334
94462SOL    HW185225   0.716   3.612   8.381
94462SOL    HW285226   0.794   3.560   8.263
94463SOL     OW85227   3.131   9.652   4.763
94463SOL    HW185228   3.185   9.667   4.686
94463SOL    HW285229   3.045   9.689   4.740
94464SOL     OW85230   5.151   0.328  12.227
94464SOL    HW185231   5.090   0.380  12.279
94464SOL    HW285232   5.095   0.264  12.183
94465SOL     OW85233   9.881  12.767  13.675
94465SOL    HW185234   9.972  12.741  13.684
94465SOL    HW285235   9.839  12.737  13.756
94466SOL     OW85236  12.768  12.293  10.957
94466SOL    HW185237  12.793  12.220  10.899
94466SOL    HW285238  12.702  12.255  11.015
94467SOL     OW85239   4.766  12.222   4.747
94467SOL    HW185240   4.701  12.229   4.817
94467SOL    HW285241   4.737  12.284   4.680
94468SOL     OW85242   4.818   3.303   8.663
94468SOL    HW185243   4.783   3.214   8.654
94468SOL    HW285244   4.878   3.297   8.738
94469SOL     OW85245   6.108  12.513  11.388
94469SOL    HW185246   6.179  12.504  11.451
94469SOL    HW285247   6.082  12.423  11.368
94470SOL     OW85248   0.269  13.064  12.739
94470SOL    HW185249   0.266  13.135  12.675
94470SOL    HW285250   0.245  13.105  12.822
94471SOL     OW85251   7.887   5.244   8.989
94471SOL    HW185252   7.809   5.189   8.973
94471SOL    HW285253   7.881   5.313   8.924
94472SOL     OW85254   7.565   1.469   0.850
94472SOL    HW185255   7.580   1.533   0.780
94472SOL    HW285256   7.547   1.521   0.928
94473SOL     OW85257  13.442  13.762   0.595
94473SOL    HW185258  13.416  13.845   0.555
94473SOL    HW285259  13.473  13.787   0.683
94474SOL     OW85260   8.166   7.819   8.449
94474SOL    HW185261   8.215   7.873   8.387
94474SOL    HW285262   8.074   7.838   8.431
94475SOL     OW85263  10.852  10.892   4.376
94475SOL    HW185264  10.835  10.875   4.469
94475SOL    HW285265  10.945  10.912   4.372
94476SOL     OW85266   5.672  10.527   8.719
94476SOL    HW185267   5.740  10.560   8.661
94476SOL    HW285268   5.686  10.573   8.802
94477SOL     OW85269  13.919  12.707   5.876
94477SOL    HW185270  13.850  12.770   5.852
94477SOL    HW285271  13.955  12.678   5.793
94478SOL     OW85272   5.681   2.258   4.279
94478SOL    HW185273   5.719   2.173   4.301
94478SOL    HW285274   5.591   2.237   4.255
94479SOL     OW85275  11.368   6.881  12.939
94479SOL    HW185276  11.335   6.948  12.998
94479SOL    HW285277  11.319   6.894  12.858
94480SOL     OW85278   0.094   4.519   4.141
94480SOL    HW185279   0.133   4.484   4.222
94480SOL    HW285280   0.001   4.526   4.160
94481SOL     OW85281   7.597   8.504  12.495
94481SOL    HW185282   7.503   8.493  12.482
94481SOL    HW285283   7.619   8.585  12.449
94482SOL     OW85284   4.569   2.598   4.106
94482SOL    HW185285   4.596   2.683   4.141
94482SOL    HW285286   4.632   2.536   4.141
94483SOL     OW85287   5.705   5.415   0.677
94483SOL    HW185288   5.699   5.507   0.650
94483SOL    HW285289   5.769   5.416   0.749
94484SOL     OW85290   2.896   6.660  11.644
94484SOL    HW185291   2.915   6.607  11.567
94484SOL    HW285292   2.979   6.702  11.666
94485SOL     OW85293   7.309   6.525  10.476
94485SOL    HW185294   7.310   6.548  10.569
94485SOL    HW285295   7.386   6.469  10.464
94486SOL     OW85296  10.754   1.670  13.205
94486SOL    HW185297  10.794   1.613  13.139
94486SOL    HW285298  10.783   1.634  13.289
94487SOL     OW85299  13.271  10.041   6.493
94487SOL    HW185300  13.226   9.975   6.546
94487SOL    HW285301  13.349   9.997   6.461
94488SOL     OW85302  10.769  12.708   9.497
94488SOL    HW185303  10.837  12.659   9.450
94488SOL    HW285304  10.689  12.691   9.448
94489SOL     OW85305  13.984   0.339   2.819
94489SOL    HW185306  14.066   0.353   2.866
94489SOL    HW285307  13.955   0.252   2.846
94490SOL     OW85308  13.741   1.988   4.662
94490SOL    HW185309  13.731   1.953   4.750
94490SOL    HW285310  13.835   2.007   4.654
94491SOL     OW85311   9.519   7.111   9.325
94491SOL    HW185312   9.522   7.084   9.233
94491SOL    HW285313   9.464   7.189   9.325
94492SOL     OW85314   6.057  10.860   8.618
94492SOL    HW185315   6.140  10.844   8.573
94492SOL    HW285316   6.075  10.934   8.675
94493SOL     OW85317   4.652   9.162  12.724
94493SOL    HW185318   4.680   9.244  12.765
94493SOL    HW285319   4.559   9.154  12.748
94494SOL     OW85320   3.734   8.271   4.884
94494SOL    HW185321   3.769   8.225   4.960
94494SOL    HW285322   3.705   8.201   4.825
94495SOL     OW85323   7.894  14.065  14.794
94495SOL    HW185324   7.835  14.065  14.869
94495SOL    HW285325   7.972  14.019  14.825
94496SOL     OW85326   7.705   0.080   8.620
94496SOL    HW185327   7.627   0.068   8.566
94496SOL    HW285328   7.727   0.173   8.611
94497SOL     OW85329   1.031   9.885  11.044
94497SOL    HW185330   0.942   9.851  11.034
94497SOL    HW285331   1.085   9.826  10.992
94498SOL     OW85332  12.006   3.608   1.169
94498SOL    HW185333  12.054   3.591   1.088
94498SOL    HW285334  11.922   3.565   1.155
94499SOL     OW85335   3.641   4.017  13.469
94499SOL    HW185336   3.585   4.089  13.440
94499SOL    HW285337   3.584   3.940  13.466
94500SOL     OW85338   6.772   7.737   2.722
94500SOL    HW185339   6.822   7.656   2.710
94500SOL    HW285340   6.760   7.771   2.633
94501SOL     OW85341  11.462   1.626   2.724
94501SOL    HW185342  11.380   1.669   2.700
94501SOL    HW285343  11.457   1.539   2.683
94502SOL     OW85344  11.402  11.300   8.983
94502SOL    HW185345  11.447  11.252   9.052
94502SOL    HW285346  11.324  11.336   9.026
94503SOL     OW85347  11.969   7.420   8.457
94503SOL    HW185348  11.971   7.511   8.425
94503SOL    HW285349  11.948   7.368   8.379
94504SOL     OW85350   0.505   8.269   4.095
94504SOL    HW185351   0.593   8.233   4.083
94504SOL    HW285352   0.449   8.192   4.109
94505SOL     OW85353   4.527  11.836   7.512
94505SOL    HW185354   4.615  11.844   7.475
94505SOL    HW285355   4.535  11.769   7.580
94506SOL     OW85356   5.923  14.820   5.752
94506SOL    HW185357   5.943  14.728   5.771
94506SOL    HW285358   5.882  14.818   5.665
94507SOL     OW85359  11.878  14.009  11.288
94507SOL    HW185360  11.828  14.048  11.216
94507SOL    HW285361  11.954  14.066  11.297
94508SOL     OW85362   0.330   4.849   6.550
94508SOL    HW185363   0.306   4.785   6.617
94508SOL    HW285364   0.394   4.803   6.496
94509SOL     OW85365  11.919  10.680   3.274
94509SOL    HW185366  11.855  10.696   3.205
94509SOL    HW285367  11.870  10.630   3.340
94510SOL     OW85368  10.672  11.194   3.080
94510SOL    HW185369  10.629  11.241   3.009
94510SOL    HW285370  10.760  11.175   3.048
94511SOL     OW85371  12.030   6.682  10.681
94511SOL    HW185372  12.123   6.662  10.670
94511SOL    HW285373  11.996   6.612  10.737
94512SOL     OW85374  12.321  10.363   3.709
94512SOL    HW185375  12.352  10.354   3.799
94512SOL    HW285376  12.252  10.296   3.701
94513SOL     OW85377  14.217   6.207   5.792
94513SOL    HW185378  14.167   6.217   5.711
94513SOL    HW285379  14.215   6.113   5.811
94514SOL     OW85380  13.617   5.467  11.222
94514SOL    HW185381  13.705   5.504  11.214
94514SOL    HW285382  13.626   5.378  11.187
94515SOL     OW85383   8.270   7.302  10.053
94515SOL    HW185384   8.199   7.290   9.990
94515SOL    HW285385   8.348   7.269  10.008
94516SOL     OW85386  14.736   0.150   3.446
94516SOL    HW185387  14.696   0.133   3.360
94516SOL    HW285388  14.761   0.063   3.478
94517SOL     OW85389   6.342   6.908   1.634
94517SOL    HW185390   6.280   6.910   1.561
94517SOL    HW285391   6.405   6.840   1.611
94518SOL     OW85392   6.880   8.281   0.581
94518SOL    HW185393   6.960   8.321   0.616
94518SOL    HW285394   6.809   8.333   0.619
94519SOL     OW85395  11.383  12.770   3.226
94519SOL    HW185396  11.305  12.743   3.177
94519SOL    HW285397  11.349  12.795   3.312
94520SOL     OW85398   9.625   2.002   9.969
94520SOL    HW185399   9.676   2.081   9.991
94520SOL    HW285400   9.648   1.939  10.037
94521SOL     OW85401   8.626   8.373   2.960
94521SOL    HW185402   8.668   8.438   3.017
94521SOL    HW285403   8.566   8.326   3.017
94522SOL     OW85404   2.827   7.848   3.987
94522SOL    HW185405   2.754   7.820   3.931
94522SOL    HW285406   2.792   7.923   4.036
94523SOL     OW85407  10.469   7.762   2.620
94523SOL    HW185408  10.541   7.813   2.657
94523SOL    HW285409  10.467   7.787   2.528
94524SOL     OW85410  14.805  13.294   3.216
94524SOL    HW185411  14.816  13.223   3.154
94524SOL    HW285412  14.759  13.254   3.290
94525SOL     OW85413   3.077   9.538   1.893
94525SOL    HW185414   3.019   9.529   1.816
94525SOL    HW285415   3.116   9.624   1.884
94526SOL     OW85416   2.192   1.634   3.113
94526SOL    HW185417   2.287   1.619   3.119
94526SOL    HW285418   2.163   1.572   3.045
94527SOL     OW85419   2.873  13.308   7.944
94527SOL    HW185420   2.865  13.280   7.853
94527SOL    HW285421   2.943  13.374   7.942
94528SOL     OW85422   6.114   5.584  12.698
94528SOL    HW185423   6.101   5.578  12.603
94528SOL    HW285424   6.201   5.547  12.713
94529SOL     OW85425   6.773   3.053   7.036
94529SOL    HW185426   6.770   3.058   6.941
94529SOL    HW285427   6.865   3.067   7.058
94530SOL     OW85428  14.042   2.894   0.418
94530SOL    HW185429  13.960   2.891   0.370
94530SOL    HW285430  14.017   2.913   0.509
94531SOL     OW85431   0.229  13.801   8.079
94531SOL    HW185432   0.259  13.891   8.089
94531SOL    HW285433   0.138  13.803   8.106
94532SOL     OW85434   7.625   1.562   7.461
94532SOL    HW185435   7.630   1.621   7.536
94532SOL    HW285436   7.634   1.619   7.384
94533SOL     OW85437   2.193  10.987   4.413
94533SOL    HW185438   2.164  10.962   4.501
94533SOL    HW285439   2.205  11.082   4.418
94534SOL     OW85440   5.640   7.542   8.048
94534SOL    HW185441   5.580   7.579   7.984
94534SOL    HW285442   5.727   7.562   8.014
94535SOL     OW85443   9.956   9.300   3.591
94535SOL    HW185444   9.999   9.257   3.666
94535SOL    HW285445   9.958   9.234   3.522
94536SOL     OW85446   5.878   9.828   8.038
94536SOL    HW185447   5.931   9.890   7.989
94536SOL    HW285448   5.874   9.751   7.982
94537SOL     OW85449  10.204   3.472  12.270
94537SOL    HW185450  10.143   3.449  12.339
94537SOL    HW285451  10.229   3.562  12.289
94538SOL     OW85452   7.797  11.354   6.253
94538SOL    HW185453   7.806  11.420   6.322
94538SOL    HW285454   7.784  11.272   6.300
94539SOL     OW85455  13.002   9.020   8.874
94539SOL    HW185456  12.936   9.036   8.941
94539SOL    HW285457  13.076   9.075   8.899
94540SOL     OW85458   2.629  13.975  12.944
94540SOL    HW185459   2.713  13.940  12.974
94540SOL    HW285460   2.638  14.070  12.953
94541SOL     OW85461  12.832   4.696   7.417
94541SOL    HW185462  12.783   4.736   7.489
94541SOL    HW285463  12.779   4.622   7.390
94542SOL     OW85464   3.906  11.561  13.311
94542SOL    HW185465   3.919  11.548  13.217
94542SOL    HW285466   3.995  11.563  13.347
94543SOL     OW85467   2.290   9.982  12.976
94543SOL    HW185468   2.309  10.075  12.988
94543SOL    HW285469   2.370   9.947  12.937
94544SOL     OW85470   0.821   3.390   7.116
94544SOL    HW185471   0.870   3.349   7.045
94544SOL    HW285472   0.732   3.357   7.105
94545SOL     OW85473  13.232  13.087  12.167
94545SOL    HW185474  13.169  13.016  12.169
94545SOL    HW285475  13.206  13.145  12.238
94546SOL     OW85476   7.164   4.213  12.073
94546SOL    HW185477   7.173   4.117  12.079
94546SOL    HW285478   7.069   4.227  12.068
94547SOL     OW85479   1.046   2.242   7.628
94547SOL    HW185480   0.990   2.298   7.575
94547SOL    HW285481   0.998   2.159   7.634
94548SOL     OW85482   4.236   1.512   1.771
94548SOL    HW185483   4.314   1.505   1.827
94548SOL    HW285484   4.271   1.535   1.684
94549SOL     OW85485   0.400  12.135  10.051
94549SOL    HW185486   0.421  12.131   9.957
94549SOL    HW285487   0.329  12.072  10.063
94550SOL     OW85488   4.339   3.695   5.474
94550SOL    HW185489   4.392   3.716   5.551
94550SOL    HW285490   4.398   3.648   5.415
94551SOL     OW85491   7.996  13.718   1.466
94551SOL    HW185492   8.041  13.795   1.431
94551SOL    HW285493   8.025  13.646   1.410
94552SOL     OW85494   3.205  12.437  11.130
94552SOL    HW185495   3.203  12.433  11.225
94552SOL    HW285496   3.284  12.488  11.110
94553SOL     OW85497   6.735   7.410  14.280
94553SOL    HW185498   6.795   7.477  14.312
94553SOL    HW285499   6.781   7.327  14.295
94554SOL     OW85500   2.661   1.648  10.726
94554SOL    HW185501   2.749   1.684  10.734
94554SOL    HW285502   2.610   1.718  10.686
94555SOL     OW85503   5.483  14.084   4.543
94555SOL    HW185504   5.531  14.162   4.569
94555SOL    HW285505   5.551  14.024   4.510
94556SOL     OW85506   3.185  14.339  13.974
94556SOL    HW185507   3.173  14.317  14.067
94556SOL    HW285508   3.128  14.414  13.960
94557SOL     OW85509  14.040  11.457   0.928
94557SOL    HW185510  13.971  11.428   0.987
94557SOL    HW285511  14.121  11.446   0.978
94558SOL     OW85512   6.964  13.702  13.196
94558SOL    HW185513   6.985  13.794  13.178
94558SOL    HW285514   7.011  13.653  13.130
94559SOL     OW85515   4.354  10.106  12.739
94559SOL    HW185516   4.415  10.152  12.680
94559SOL    HW285517   4.406  10.089  12.818
94560SOL     OW85518   7.655   6.157   9.696
94560SOL    HW185519   7.732   6.130   9.746
94560SOL    HW285520   7.632   6.243   9.732
94561SOL     OW85521  12.150   0.945   8.837
94561SOL    HW185522  12.103   0.942   8.754
94561SOL    HW285523  12.230   0.896   8.822
94562SOL     OW85524   8.321  10.070  12.148
94562SOL    HW185525   8.268   9.993  12.127
94562SOL    HW285526   8.304  10.131  12.077
94563SOL     OW85527   1.729   1.807   5.124
94563SOL    HW185528   1.658   1.754   5.087
94563SOL    HW285529   1.805   1.788   5.068
94564SOL     OW85530   9.532   8.590   2.248
94564SOL    HW185531   9.493   8.676   2.236
94564SOL    HW285532   9.480   8.532   2.191
94565SOL     OW85533   2.355  13.814   5.035
94565SOL    HW185534   2.295  13.771   4.974
94565SOL    HW285535   2.390  13.743   5.089
94566SOL     OW85536   9.778  10.724   0.531
94566SOL    HW185537   9.787  10.632   0.558
94566SOL    HW285538   9.802  10.725   0.439
94567SOL     OW85539  12.604  14.545  14.420
94567SOL    HW185540  12.533  14.569  14.480
94567SOL    HW285541  12.683  14.550  14.474
94568SOL     OW85542   2.507   8.017  11.031
94568SOL    HW185543   2.511   8.103  10.989
94568SOL    HW285544   2.546   8.030  11.117
94569SOL     OW85545  14.025   1.325   5.550
94569SOL    HW185546  14.100   1.382   5.558
94569SOL    HW285547  14.036   1.282   5.465
94570SOL     OW85548   4.472  14.856  12.062
94570SOL    HW185549   4.397  14.808  12.097
94570SOL    HW285550   4.433   0.048  12.015
94571SOL     OW85551  11.390   8.239  13.525
94571SOL    HW185552  11.331   8.234  13.600
94571SOL    HW285553  11.461   8.297  13.555
94572SOL     OW85554   2.122   5.905   7.140
94572SOL    HW185555   2.157   5.994   7.149
94572SOL    HW285556   2.047   5.903   7.200
94573SOL     OW85557   7.635   8.792  14.342
94573SOL    HW185558   7.728   8.781  14.324
94573SOL    HW285559   7.632   8.815  14.435
94574SOL     OW85560   9.955  13.051   2.857
94574SOL    HW185561   9.972  13.125   2.915
94574SOL    HW285562   9.872  13.072   2.816
94575SOL     OW85563   6.297   5.085  13.072
94575SOL    HW185564   6.232   5.150  13.049
94575SOL    HW285565   6.247   5.006  13.093
94576SOL     OW85566   3.404   8.173   1.998
94576SOL    HW185567   3.312   8.197   2.008
94576SOL    HW285568   3.402   8.081   1.970
94577SOL     OW85569  12.490  10.852   1.832
94577SOL    HW185570  12.563  10.863   1.894
94577SOL    HW285571  12.412  10.873   1.884
94578SOL     OW85572   9.928  13.543  14.058
94578SOL    HW185573   9.864  13.498  14.112
94578SOL    HW285574   9.942  13.627  14.101
94579SOL     OW85575  13.788   2.164   2.420
94579SOL    HW185576  13.702   2.135   2.449
94579SOL    HW285577  13.776   2.188   2.328
94580SOL     OW85578   7.529   5.590   6.657
94580SOL    HW185579   7.585   5.525   6.700
94580SOL    HW285580   7.559   5.592   6.566
94581SOL     OW85581   4.886   2.004  13.607
94581SOL    HW185582   4.814   1.952  13.642
94581SOL    HW285583   4.962   1.946  13.613
94582SOL     OW85584   6.576   9.264   8.730
94582SOL    HW185585   6.500   9.293   8.781
94582SOL    HW285586   6.637   9.230   8.795
94583SOL     OW85587   9.132   5.577   7.731
94583SOL    HW185588   9.073   5.631   7.783
94583SOL    HW285589   9.120   5.489   7.765
94584SOL     OW85590  10.655   9.976   8.089
94584SOL    HW185591  10.738   9.930   8.096
94584SOL    HW285592  10.676  10.068   8.108
94585SOL     OW85593   6.464   1.675  10.110
94585SOL    HW185594   6.454   1.580  10.108
94585SOL    HW285595   6.423   1.701  10.192
94586SOL     OW85596   9.481   8.236  12.847
94586SOL    HW185597   9.450   8.309  12.900
94586SOL    HW285598   9.432   8.160  12.880
94587SOL     OW85599  11.064  12.873   7.866
94587SOL    HW185600  11.063  12.956   7.914
94587SOL    HW285601  10.972  12.849   7.857
94588SOL     OW85602  12.727  11.982   7.365
94588SOL    HW185603  12.787  12.044   7.406
94588SOL    HW285604  12.724  11.908   7.426
94589SOL     OW85605   4.013   6.031  13.538
94589SOL    HW185606   3.945   6.089  13.503
94589SOL    HW285607   4.089   6.049  13.484
94590SOL     OW85608   7.076   4.105   9.243
94590SOL    HW185609   7.066   4.186   9.293
94590SOL    HW285610   6.987   4.082   9.216
94591SOL     OW85611   3.308  10.765   7.646
94591SOL    HW185612   3.386  10.796   7.692
94591SOL    HW285613   3.341  10.724   7.566
94592SOL     OW85614   1.420  14.808   7.221
94592SOL    HW185615   1.503  14.854   7.235
94592SOL    HW285616   1.446  14.717   7.205
94593SOL     OW85617   7.374   7.612   4.837
94593SOL    HW185618   7.365   7.702   4.868
94593SOL    HW285619   7.303   7.601   4.774
94594SOL     OW85620   1.010  13.074   7.773
94594SOL    HW185621   1.008  13.035   7.686
94594SOL    HW285622   1.025  13.001   7.832
94595SOL     OW85623   1.692   6.488   9.399
94595SOL    HW185624   1.619   6.541   9.367
94595SOL    HW285625   1.699   6.510   9.492
94596SOL     OW85626   5.106   7.779   1.617
94596SOL    HW185627   5.146   7.831   1.548
94596SOL    HW285628   5.082   7.696   1.574
94597SOL     OW85629  13.106   4.242  13.022
94597SOL    HW185630  13.200   4.248  13.004
94597SOL    HW285631  13.067   4.309  12.965
94598SOL     OW85632   6.835   4.316   7.469
94598SOL    HW185633   6.765   4.270   7.422
94598SOL    HW285634   6.915   4.277   7.435
94599SOL     OW85635   6.750  11.054   8.389
94599SOL    HW185636   6.749  11.149   8.405
94599SOL    HW285637   6.755  11.016   8.477
94600SOL     OW85638   4.544  13.166  11.928
94600SOL    HW185639   4.554  13.132  12.017
94600SOL    HW285640   4.606  13.115  11.875
94601SOL     OW85641   8.400   6.261   2.435
94601SOL    HW185642   8.485   6.295   2.462
94601SOL    HW285643   8.360   6.229   2.516
94602SOL     OW85644   8.177   0.546  14.160
94602SOL    HW185645   8.109   0.589  14.107
94602SOL    HW285646   8.242   0.517  14.097
94603SOL     OW85647  13.797   8.536   3.982
94603SOL    HW185648  13.876   8.532   4.037
94603SOL    HW285649  13.769   8.445   3.973
94604SOL     OW85650  12.355   4.356   7.184
94604SOL    HW185651  12.311   4.324   7.263
94604SOL    HW285652  12.302   4.430   7.155
94605SOL     OW85653   9.802  13.309   5.326
94605SOL    HW185654   9.796  13.372   5.397
94605SOL    HW285655   9.818  13.225   5.369
94606SOL     OW85656   2.356  13.174   3.125
94606SOL    HW185657   2.327  13.102   3.069
94606SOL    HW285658   2.275  13.215   3.155
94607SOL     OW85659  14.620   5.035   2.698
94607SOL    HW185660  14.611   5.129   2.712
94607SOL    HW285661  14.674   5.027   2.620
94608SOL     OW85662   3.458  10.132  11.756
94608SOL    HW185663   3.448  10.108  11.848
94608SOL    HW285664   3.514  10.209  11.757
94609SOL     OW85665   2.843  14.640   2.800
94609SOL    HW185666   2.937  14.626   2.797
94609SOL    HW285667   2.825  14.704   2.732
94610SOL     OW85668  14.300   7.003  11.125
94610SOL    HW185669  14.242   7.078  11.111
94610SOL    HW285670  14.299   6.988  11.219
94611SOL     OW85671   8.445   9.471   2.941
94611SOL    HW185672   8.361   9.515   2.928
94611SOL    HW285673   8.438   9.391   2.889
94612SOL     OW85674   9.013   3.007   9.650
94612SOL    HW185675   9.101   3.042   9.664
94612SOL    HW285676   9.026   2.927   9.599
94613SOL     OW85677   9.477  12.032   5.712
94613SOL    HW185678   9.425  12.093   5.660
94613SOL    HW285679   9.481  11.952   5.660
94614SOL     OW85680   6.208  10.065  10.219
94614SOL    HW185681   6.229   9.972  10.225
94614SOL    HW285682   6.275  10.108  10.273
94615SOL     OW85683   4.501  12.631   9.872
94615SOL    HW185684   4.428  12.641   9.933
94615SOL    HW285685   4.497  12.709   9.817
94616SOL     OW85686   2.904   2.239   2.081
94616SOL    HW185687   2.833   2.301   2.095
94616SOL    HW285688   2.874   2.185   2.008
94617SOL     OW85689   4.892  13.711   3.186
94617SOL    HW185690   4.892  13.669   3.272
94617SOL    HW285691   4.972  13.762   3.184
94618SOL     OW85692   9.133   6.985  14.815
94618SOL    HW185693   9.130   6.890  14.799
94618SOL    HW285694   9.045   7.016  14.795
94619SOL     OW85695  13.527   5.222   1.880
94619SOL    HW185696  13.447   5.260   1.844
94619SOL    HW285697  13.497   5.167   1.952
94620SOL     OW85698   5.109  14.780   4.442
94620SOL    HW185699   5.155  14.855   4.406
94620SOL    HW285700   5.172  14.708   4.435
94621SOL     OW85701   2.839   2.784   8.419
94621SOL    HW185702   2.836   2.878   8.404
94621SOL    HW285703   2.819   2.774   8.512
94622SOL     OW85704   8.075   0.389  11.646
94622SOL    HW185705   7.995   0.344  11.672
94622SOL    HW285706   8.126   0.321  11.602
94623SOL     OW85707   5.753   7.103  10.480
94623SOL    HW185708   5.753   7.021  10.430
94623SOL    HW285709   5.707   7.081  10.561
94624SOL     OW85710  11.938   5.792  11.331
94624SOL    HW185711  11.926   5.710  11.379
94624SOL    HW285712  11.972   5.853  11.396
94625SOL     OW85713   9.359   4.886  13.614
94625SOL    HW185714   9.390   4.874  13.525
94625SOL    HW285715   9.436   4.874  13.669
94626SOL     OW85716  13.023  12.755   5.561
94626SOL    HW185717  13.027  12.712   5.476
94626SOL    HW285718  12.929  12.762   5.580
94627SOL     OW85719  12.094  11.041   4.091
94627SOL    HW185720  12.061  11.032   4.001
94627SOL    HW285721  12.110  11.135   4.102
94628SOL     OW85722  10.343  12.629  10.580
94628SOL    HW185723  10.385  12.620  10.665
94628SOL    HW285724  10.393  12.572  10.522
94629SOL     OW85725  13.442   2.109   7.832
94629SOL    HW185726  13.354   2.142   7.816
94629SOL    HW285727  13.479   2.168   7.896
94630SOL     OW85728   2.340  13.243   6.102
94630SOL    HW185729   2.344  13.233   6.197
94630SOL    HW285730   2.420  13.289   6.079
94631SOL     OW85731   5.819   4.817   2.892
94631SOL    HW185732   5.889   4.780   2.838
94631SOL    HW285733   5.825   4.911   2.877
94632SOL     OW85734   0.102   2.363  13.456
94632SOL    HW185735   0.009   2.362  13.477
94632SOL    HW285736   0.126   2.270  13.454
94633SOL     OW85737   2.510   5.894   2.110
94633SOL    HW185738   2.438   5.948   2.144
94633SOL    HW285739   2.548   5.853   2.188
94634SOL     OW85740   9.853   6.701  11.051
94634SOL    HW185741   9.943   6.669  11.045
94634SOL    HW285742   9.808   6.661  10.977
94635SOL     OW85743  12.692   7.996   8.817
94635SOL    HW185744  12.608   8.041   8.807
94635SOL    HW285745  12.674   7.905   8.794
94636SOL     OW85746  10.642   7.440   4.190
94636SOL    HW185747  10.689   7.362   4.160
94636SOL    HW285748  10.550   7.413   4.188
94637SOL     OW85749   1.273   7.927   1.439
94637SOL    HW185750   1.321   7.864   1.492
94637SOL    HW285751   1.305   8.012   1.469
94638SOL     OW85752   6.718   3.797   5.017
94638SOL    HW185753   6.630   3.821   4.989
94638SOL    HW285754   6.705   3.750   5.100
94639SOL     OW85755   0.848  13.439   4.433
94639SOL    HW185756   0.877  13.377   4.501
94639SOL    HW285757   0.919  13.438   4.368
94640SOL     OW85758   2.660   0.123  13.984
94640SOL    HW185759   2.659   0.175  13.904
94640SOL    HW285760   2.751   0.124  14.013
94641SOL     OW85761  14.837  13.869   7.274
94641SOL    HW185762  14.778  13.861   7.199
94641SOL    HW285763   0.024  13.928   7.245
94642SOL     OW85764   3.091   6.945  11.688
94642SOL    HW185765   3.062   6.964  11.777
94642SOL    HW285766   3.041   7.005  11.633
94643SOL     OW85767  12.815   9.535   7.520
94643SOL    HW185768  12.829   9.598   7.450
94643SOL    HW285769  12.823   9.450   7.477
94644SOL     OW85770   3.357   5.763   5.904
94644SOL    HW185771   3.319   5.678   5.882
94644SOL    HW285772   3.447   5.744   5.930
94645SOL     OW85773   8.506  12.232   7.544
94645SOL    HW185774   8.533  12.260   7.632
94645SOL    HW285775   8.430  12.176   7.559
94646SOL     OW85776  10.459   3.732   5.321
94646SOL    HW185777  10.502   3.678   5.255
94646SOL    HW285778  10.369   3.742   5.290
94647SOL     OW85779  10.754   3.079  10.390
94647SOL    HW185780  10.694   3.005  10.396
94647SOL    HW285781  10.728   3.124  10.309
94648SOL     OW85782  11.829   1.412   5.303
94648SOL    HW185783  11.864   1.343   5.247
94648SOL    HW285784  11.845   1.493   5.254
94649SOL     OW85785   6.656   3.691   2.246
94649SOL    HW185786   6.708   3.611   2.239
94649SOL    HW285787   6.703   3.744   2.311
94650SOL     OW85788   3.368   4.500   8.255
94650SOL    HW185789   3.402   4.419   8.294
94650SOL    HW285790   3.419   4.512   8.175
94651SOL     OW85791   3.414  11.680   4.842
94651SOL    HW185792   3.450  11.698   4.755
94651SOL    HW285793   3.384  11.589   4.838
94652SOL     OW85794  11.875  11.362   9.044
94652SOL    HW185795  11.790  11.398   9.071
94652SOL    HW285796  11.855  11.312   8.965
94653SOL     OW85797  10.447   6.252   8.366
94653SOL    HW185798  10.509   6.268   8.436
94653SOL    HW285799  10.481   6.302   8.291
94654SOL     OW85800   3.800   3.567   9.473
94654SOL    HW185801   3.814   3.591   9.565
94654SOL    HW285802   3.704   3.564   9.463
94655SOL     OW85803  12.251   3.391   5.371
94655SOL    HW185804  12.169   3.377   5.323
94655SOL    HW285805  12.246   3.481   5.402
94656SOL     OW85806  10.879  10.471  13.802
94656SOL    HW185807  10.852  10.382  13.823
94656SOL    HW285808  10.961  10.462  13.755
94657SOL     OW85809   8.463   0.901  11.761
94657SOL    HW185810   8.394   0.966  11.750
94657SOL    HW285811   8.535   0.949  11.802
94658SOL     OW85812  13.540   3.379   3.345
94658SOL    HW185813  13.473   3.378   3.414
94658SOL    HW285814  13.584   3.464   3.357
94659SOL     OW85815   0.249   7.485   0.728
94659SOL    HW185816   0.209   7.495   0.642
94659SOL    HW285817   0.323   7.426   0.713
94660SOL     OW85818   5.654   2.935   4.321
94660SOL    HW185819   5.678   2.851   4.280
94660SOL    HW285820   5.737   2.969   4.355
94661SOL     OW85821  11.757   3.714  13.837
94661SOL    HW185822  11.788   3.791  13.886
94661SOL    HW285823  11.826   3.649  13.848
94662SOL     OW85824   3.374   0.309   4.586
94662SOL    HW185825   3.320   0.234   4.562
94662SOL    HW285826   3.318   0.385   4.574
94663SOL     OW85827   6.207   3.005  11.887
94663SOL    HW185828   6.119   3.007  11.924
94663SOL    HW285829   6.251   2.934  11.934
94664SOL     OW85830   8.799  11.176   1.629
94664SOL    HW185831   8.788  11.085   1.655
94664SOL    HW285832   8.871  11.208   1.683
94665SOL     OW85833  10.839  12.689  10.176
94665SOL    HW185834  10.844  12.739  10.258
94665SOL    HW285835  10.882  12.746  10.111
94666SOL     OW85836   1.234  12.909   8.662
94666SOL    HW185837   1.179  12.853   8.607
94666SOL    HW285838   1.198  12.997   8.650
94667SOL     OW85839   6.168   5.948   3.815
94667SOL    HW185840   6.076   5.922   3.826
94667SOL    HW285841   6.175   5.972   3.723
94668SOL     OW85842   2.146  11.594  14.555
94668SOL    HW185843   2.123  11.510  14.596
94668SOL    HW285844   2.199  11.569  14.480
94669SOL     OW85845   2.915   5.031  11.248
94669SOL    HW185846   2.834   5.044  11.297
94669SOL    HW285847   2.957   5.117  11.247
94670SOL     OW85848   7.993   4.735  12.265
94670SOL    HW185849   8.070   4.778  12.302
94670SOL    HW285850   7.939   4.806  12.231
94671SOL     OW85851   9.258   8.995   0.339
94671SOL    HW185852   9.182   8.938   0.349
94671SOL    HW285853   9.313   8.951   0.274
94672SOL     OW85854   3.051   5.014   4.053
94672SOL    HW185855   3.096   4.930   4.063
94672SOL    HW285856   2.961   4.991   4.032
94673SOL     OW85857  11.641   2.374  14.110
94673SOL    HW185858  11.635   2.375  14.206
94673SOL    HW285859  11.591   2.296  14.085
94674SOL     OW85860   4.506  13.433  12.036
94674SOL    HW185861   4.533  13.349  11.999
94674SOL    HW285862   4.542  13.498  11.976
94675SOL     OW85863   4.166  13.729   2.832
94675SOL    HW185864   4.227  13.666   2.872
94675SOL    HW285865   4.131  13.778   2.906
94676SOL     OW85866   3.762  12.341   3.235
94676SOL    HW185867   3.719  12.362   3.151
94676SOL    HW285868   3.807  12.259   3.219
94677SOL     OW85869   2.373  12.782  12.913
94677SOL    HW185870   2.370  12.868  12.872
94677SOL    HW285871   2.311  12.729  12.862
94678SOL     OW85872   2.918  11.906   2.634
94678SOL    HW185873   2.997  11.940   2.676
94678SOL    HW285874   2.872  11.858   2.704
94679SOL     OW85875   3.688   0.844  11.579
94679SOL    HW185876   3.719   0.810  11.663
94679SOL    HW285877   3.654   0.767  11.533
94680SOL     OW85878  10.787  14.026   1.579
94680SOL    HW185879  10.711  14.014   1.635
94680SOL    HW285880  10.784  13.952   1.518
94681SOL     OW85881  12.778   7.684  14.874
94681SOL    HW185882  12.837   7.712   0.061
94681SOL    HW285883  12.690   7.700   0.027
94682SOL     OW85884  10.071   1.680   4.855
94682SOL    HW185885  10.077   1.762   4.805
94682SOL    HW285886  10.153   1.634   4.837
94683SOL     OW85887   2.859   8.449   5.379
94683SOL    HW185888   2.850   8.371   5.434
94683SOL    HW285889   2.902   8.513   5.435
94684SOL     OW85890  10.002   3.021   2.818
94684SOL    HW185891  10.095   2.997   2.828
94684SOL    HW285892   9.989   3.025   2.723
94685SOL     OW85893   1.500   4.640   2.384
94685SOL    HW185894   1.486   4.726   2.422
94685SOL    HW285895   1.533   4.657   2.296
94686SOL     OW85896   0.579  11.972  12.652
94686SOL    HW185897   0.493  12.005  12.628
94686SOL    HW285898   0.611  11.930  12.572
94687SOL     OW85899  12.794   5.487   9.124
94687SOL    HW185900  12.804   5.518   9.214
94687SOL    HW285901  12.747   5.557   9.079
94688SOL     OW85902   2.507   3.783  10.451
94688SOL    HW185903   2.575   3.835  10.408
94688SOL    HW285904   2.531   3.692  10.432
94689SOL     OW85905  13.362   9.287   2.411
94689SOL    HW185906  13.352   9.280   2.506
94689SOL    HW285907  13.452   9.261   2.395
94690SOL     OW85908   6.607   8.695  14.571
94690SOL    HW185909   6.616   8.608  14.611
94690SOL    HW285910   6.547   8.682  14.498
94691SOL     OW85911  10.703   6.223   3.182
94691SOL    HW185912  10.638   6.264   3.124
94691SOL    HW285913  10.654   6.154   3.226
94692SOL     OW85914  13.917   7.730   0.321
94692SOL    HW185915  13.834   7.698   0.359
94692SOL    HW285916  13.890   7.791   0.253
94693SOL     OW85917  13.920  11.551   2.833
94693SOL    HW185918  13.853  11.504   2.785
94693SOL    HW285919  13.925  11.637   2.790
94694SOL     OW85920   6.829   1.906  11.009
94694SOL    HW185921   6.887   1.946  10.943
94694SOL    HW285922   6.750   1.959  11.006
94695SOL     OW85923   7.806   4.159   0.481
94695SOL    HW185924   7.723   4.157   0.529
94695SOL    HW285925   7.784   4.202   0.398
94696SOL     OW85926  14.057  11.074   0.236
94696SOL    HW185927  13.995  11.121   0.292
94696SOL    HW285928  14.115  11.029   0.296
94697SOL     OW85929  12.398   3.183   3.957
94697SOL    HW185930  12.395   3.113   3.891
94697SOL    HW285931  12.483   3.172   3.999
94698SOL     OW85932   6.225   0.554   0.355
94698SOL    HW185933   6.257   0.617   0.290
94698SOL    HW285934   6.221   0.604   0.437
94699SOL     OW85935   3.995  14.001   2.046
94699SOL    HW185936   3.936  13.940   2.001
94699SOL    HW285937   3.971  13.995   2.138
94700SOL     OW85938   7.133   1.597   9.754
94700SOL    HW185939   7.142   1.509   9.717
94700SOL    HW285940   7.185   1.653   9.696
94701SOL     OW85941  12.173   6.756   0.138
94701SOL    HW185942  12.235   6.812   0.186
94701SOL    HW285943  12.099   6.814   0.119
94702SOL     OW85944  10.437  12.531  11.544
94702SOL    HW185945  10.380  12.577  11.606
94702SOL    HW285946  10.460  12.449  11.589
94703SOL     OW85947   5.178  11.035   0.542
94703SOL    HW185948   5.258  11.033   0.490
94703SOL    HW285949   5.179  11.121   0.584
94704SOL     OW85950   5.070  14.119   9.851
94704SOL    HW185951   5.160  14.148   9.870
94704SOL    HW285952   5.037  14.184   9.789
94705SOL     OW85953   6.780  11.163  11.980
94705SOL    HW185954   6.828  11.198  12.055
94705SOL    HW285955   6.837  11.094  11.945
94706SOL     OW85956  12.663   5.304   6.706
94706SOL    HW185957  12.673   5.314   6.611
94706SOL    HW285958  12.716   5.227   6.727
94707SOL     OW85959  10.876  12.021   6.562
94707SOL    HW185960  10.920  11.971   6.631
94707SOL    HW285961  10.902  11.977   6.481
94708SOL     OW85962  13.082   6.108  12.470
94708SOL    HW185963  13.121   6.162  12.401
94708SOL    HW285964  13.153   6.050  12.498
94709SOL     OW85965   5.744  10.560  10.553
94709SOL    HW185966   5.778  10.604  10.630
94709SOL    HW285967   5.654  10.536  10.576
94710SOL     OW85968  13.455   2.633   6.805
94710SOL    HW185969  13.472   2.547   6.765
94710SOL    HW285970  13.473   2.620   6.898
94711SOL     OW85971   2.752   8.251   0.818
94711SOL    HW185972   2.692   8.177   0.803
94711SOL    HW285973   2.838   8.210   0.828
94712SOL     OW85974  10.621   4.684  14.242
94712SOL    HW185975  10.538   4.729  14.258
94712SOL    HW285976  10.595   4.598  14.208
94713SOL     OW85977   6.042  12.349   2.586
94713SOL    HW185978   5.966  12.351   2.528
94713SOL    HW285979   6.005  12.357   2.674
94714SOL     OW85980  13.872   7.032   0.860
94714SOL    HW185981  13.806   6.963   0.860
94714SOL    HW285982  13.936   7.004   0.794
94715SOL     OW85983   4.657  13.810   6.032
94715SOL    HW185984   4.618  13.733   6.073
94715SOL    HW285985   4.696  13.859   6.105
94716SOL     OW85986  11.444   3.491   0.319
94716SOL    HW185987  11.379   3.553   0.285
94716SOL    HW285988  11.499   3.471   0.243
94717SOL     OW85989   9.601   7.006   1.714
94717SOL    HW185990   9.613   7.100   1.701
94717SOL    HW285991   9.690   6.971   1.718
94718SOL     OW85992   0.208   6.260   7.325
94718SOL    HW185993   0.249   6.200   7.387
94718SOL    HW285994   0.238   6.230   7.240
94719SOL     OW85995  13.562   1.659   8.381
94719SOL    HW185996  13.486   1.609   8.411
94719SOL    HW285997  13.555   1.659   8.285
94720SOL     OW85998  12.993   0.787   1.577
94720SOL    HW185999  13.060   0.747   1.522
94720SOL    HW286000  13.031   0.871   1.604
94721SOL     OW86001  10.651   8.002   2.552
94721SOL    HW186002  10.607   7.956   2.481
94721SOL    HW286003  10.668   8.090   2.516
94722SOL     OW86004  12.544  13.727   1.455
94722SOL    HW186005  12.570  13.819   1.457
94722SOL    HW286006  12.574  13.692   1.539
94723SOL     OW86007   4.646  10.688   1.278
94723SOL    HW186008   4.624  10.599   1.250
94723SOL    HW286009   4.723  10.711   1.226
94724SOL     OW86010   2.378   0.276   8.349
94724SOL    HW186011   2.431   0.354   8.365
94724SOL    HW286012   2.317   0.302   8.280
94725SOL     OW86013  11.580   6.708  12.471
94725SOL    HW186014  11.493   6.747  12.461
94725SOL    HW286015  11.578   6.631  12.414
94726SOL     OW86016   5.173  14.280  14.499
94726SOL    HW186017   5.088  14.298  14.461
94726SOL    HW286018   5.228  14.352  14.470
94727SOL     OW86019  13.497   4.440   7.157
94727SOL    HW186020  13.466   4.471   7.242
94727SOL    HW286021  13.470   4.348   7.154
94728SOL     OW86022  12.233  12.352   0.723
94728SOL    HW186023  12.159  12.369   0.780
94728SOL    HW286024  12.199  12.291   0.657
94729SOL     OW86025   1.091   0.567  14.867
94729SOL    HW186026   1.075   0.477   0.012
94729SOL    HW286027   1.167   0.561  14.808
94730SOL     OW86028  10.916   3.642   8.645
94730SOL    HW186029  10.972   3.611   8.575
94730SOL    HW286030  10.867   3.565   8.673
94731SOL     OW86031   4.718   5.169  10.285
94731SOL    HW186032   4.722   5.265  10.288
94731SOL    HW286033   4.652   5.146  10.350
94732SOL     OW86034  11.228  10.366   9.740
94732SOL    HW186035  11.292  10.436   9.745
94732SOL    HW286036  11.215  10.339   9.831
94733SOL     OW86037   3.212  12.592   3.591
94733SOL    HW186038   3.259  12.541   3.657
94733SOL    HW286039   3.199  12.677   3.632
94734SOL     OW86040  12.227   2.613   3.829
94734SOL    HW186041  12.151   2.672   3.829
94734SOL    HW286042  12.190   2.526   3.810
94735SOL     OW86043  14.163   2.957   3.245
94735SOL    HW186044  14.251   2.989   3.225
94735SOL    HW286045  14.169   2.929   3.337
94736SOL     OW86046   8.301   7.351   7.563
94736SOL    HW186047   8.221   7.387   7.602
94736SOL    HW286048   8.275   7.267   7.527
94737SOL     OW86049  12.746  11.954   7.743
94737SOL    HW186050  12.804  11.971   7.669
94737SOL    HW286051  12.801  11.907   7.806
94738SOL     OW86052   6.571   3.462   1.492
94738SOL    HW186053   6.585   3.371   1.465
94738SOL    HW286054   6.656   3.490   1.526
94739SOL     OW86055   7.892   6.665   7.836
94739SOL    HW186056   7.852   6.742   7.877
94739SOL    HW286057   7.825   6.632   7.777
94740SOL     OW86058   3.657   9.117  13.714
94740SOL    HW186059   3.653   9.139  13.807
94740SOL    HW286060   3.678   9.023  13.713
94741SOL     OW86061   2.392   3.251  12.224
94741SOL    HW186062   2.298   3.267  12.218
94741SOL    HW286063   2.412   3.262  12.317
94742SOL     OW86064   2.756   4.603   8.557
94742SOL    HW186065   2.695   4.583   8.627
94742SOL    HW286066   2.803   4.520   8.542
94743SOL     OW86067   7.528  12.643  10.021
94743SOL    HW186068   7.550  12.585   9.948
94743SOL    HW286069   7.548  12.591  10.099
94744SOL     OW86070   0.231   4.255   8.829
94744SOL    HW186071   0.154   4.219   8.873
94744SOL    HW286072   0.197   4.292   8.747
94745SOL     OW86073  10.054   0.862  14.344
94745SOL    HW186074  10.011   0.777  14.344
94745SOL    HW286075   9.989   0.922  14.381
94746SOL     OW86076  10.076   6.957   3.784
94746SOL    HW186077  10.009   7.024   3.797
94746SOL    HW286078  10.074   6.905   3.864
94747SOL     OW86079   5.451  10.503  10.634
94747SOL    HW186080   5.488  10.457  10.709
94747SOL    HW286081   5.373  10.453  10.611
94748SOL     OW86082   8.803   4.812   0.505
94748SOL    HW186083   8.836   4.902   0.506
94748SOL    HW286084   8.736   4.812   0.437
94749SOL     OW86085  14.836   6.053   5.301
94749SOL    HW186086  14.834   6.141   5.338
94749SOL    HW286087  14.871   6.065   5.212
94750SOL     OW86088   6.250   1.898  14.848
94750SOL    HW186089   6.217   1.985  14.870
94750SOL    HW286090   6.188   1.838   0.007
94751SOL     OW86091   3.740   8.473  13.586
94751SOL    HW186092   3.710   8.560  13.559
94751SOL    HW286093   3.767   8.430  13.505
94752SOL     OW86094   6.647  14.021   3.213
94752SOL    HW186095   6.689  13.943   3.251
94752SOL    HW286096   6.666  14.091   3.275
94753SOL     OW86097  10.464   4.987   2.391
94753SOL    HW186098  10.426   4.900   2.387
94753SOL    HW286099  10.534   4.986   2.326
94754SOL     OW86100   5.920   8.525  11.057
94754SOL    HW186101   5.900   8.571  11.138
94754SOL    HW286102   5.947   8.438  11.085
94755SOL     OW86103   6.646   5.962   5.566
94755SOL    HW186104   6.722   5.933   5.514
94755SOL    HW286105   6.682   6.028   5.625
94756SOL     OW86106   0.491   0.880  13.601
94756SOL    HW186107   0.410   0.840  13.569
94756SOL    HW286108   0.464   0.965  13.637
94757SOL     OW86109   3.053   8.401  12.550
94757SOL    HW186110   3.127   8.346  12.575
94757SOL    HW286111   3.084   8.491  12.566
94758SOL     OW86112  13.042   8.295   4.538
94758SOL    HW186113  13.118   8.305   4.480
94758SOL    HW286114  13.023   8.384   4.568
94759SOL     OW86115   6.205  12.946   9.658
94759SOL    HW186116   6.226  13.039   9.650
94759SOL    HW286117   6.224  12.926   9.750
94760SOL     OW86118   7.292   5.888   2.643
94760SOL    HW186119   7.225   5.951   2.616
94760SOL    HW286120   7.262   5.857   2.728
94761SOL     OW86121  10.945   8.449   4.546
94761SOL    HW186122  10.974   8.376   4.601
94761SOL    HW286123  10.970   8.527   4.595
94762SOL     OW86124  11.088   0.646   2.269
94762SOL    HW186125  11.170   0.599   2.252
94762SOL    HW286126  11.069   0.691   2.187
94763SOL     OW86127   0.463   9.512   8.567
94763SOL    HW186128   0.425   9.594   8.534
94763SOL    HW286129   0.398   9.445   8.546
94764SOL     OW86130   9.050   8.258   2.022
94764SOL    HW186131   9.063   8.229   2.112
94764SOL    HW286132   9.139   8.272   1.988
94765SOL     OW86133   7.083   5.198  11.997
94765SOL    HW186134   7.101   5.288  11.969
94765SOL    HW286135   7.068   5.150  11.915
94766SOL     OW86136   3.632   4.164   3.188
94766SOL    HW186137   3.666   4.161   3.277
94766SOL    HW286138   3.699   4.121   3.135
94767SOL     OW86139  10.033   2.517   2.312
94767SOL    HW186140  10.099   2.556   2.368
94767SOL    HW286141  10.050   2.423   2.316
94768SOL     OW86142   2.099  11.943   8.075
94768SOL    HW186143   2.159  11.897   8.017
94768SOL    HW286144   2.114  12.036   8.057
94769SOL     OW86145   2.183   4.852   5.888
94769SOL    HW186146   2.192   4.813   5.976
94769SOL    HW286147   2.235   4.932   5.892
94770SOL     OW86148   4.105  12.922   4.242
94770SOL    HW186149   4.093  12.914   4.147
94770SOL    HW286150   4.068  12.841   4.278
94771SOL     OW86151   8.276   5.627   9.631
94771SOL    HW186152   8.267   5.535   9.610
94771SOL    HW286153   8.259   5.632   9.725
94772SOL     OW86154   0.558   9.682   0.148
94772SOL    HW186155   0.579   9.588   0.149
94772SOL    HW286156   0.475   9.689   0.196
94773SOL     OW86157   7.339  13.435   6.535
94773SOL    HW186158   7.244  13.444   6.537
94773SOL    HW286159   7.361  13.393   6.618
94774SOL     OW86160   3.982   9.528   7.106
94774SOL    HW186161   3.905   9.530   7.164
94774SOL    HW286162   4.028   9.448   7.130
94775SOL     OW86163   4.760  14.844   1.661
94775SOL    HW186164   4.669  14.852   1.687
94775SOL    HW286165   4.810  14.856   1.742
94776SOL     OW86166   5.442   5.245   7.226
94776SOL    HW186167   5.404   5.328   7.256
94776SOL    HW286168   5.536   5.257   7.234
94777SOL     OW86169   4.726   7.065  11.184
94777SOL    HW186170   4.673   7.143  11.199
94777SOL    HW286171   4.663   6.997  11.159
94778SOL     OW86172   8.728  12.390   7.364
94778SOL    HW186173   8.708  12.431   7.448
94778SOL    HW286174   8.680  12.307   7.366
94779SOL     OW86175  10.935  14.137   1.795
94779SOL    HW186176  10.966  14.221   1.763
94779SOL    HW286177  10.921  14.085   1.716
94780SOL     OW86178   8.546  10.118  13.150
94780SOL    HW186179   8.474  10.061  13.122
94780SOL    HW286180   8.557  10.180  13.078
94781SOL     OW86181   8.080  10.296   1.179
94781SOL    HW186182   8.072  10.312   1.085
94781SOL    HW286183   8.009  10.348   1.217
94782SOL     OW86184   1.611   6.871  14.458
94782SOL    HW186185   1.666   6.795  14.477
94782SOL    HW286186   1.522   6.837  14.459
94783SOL     OW86187  14.672   4.763  11.624
94783SOL    HW186188  14.755   4.765  11.671
94783SOL    HW286189  14.675   4.682  11.574
94784SOL     OW86190   9.642   0.282   3.191
94784SOL    HW186191   9.714   0.335   3.156
94784SOL    HW286192   9.684   0.216   3.246
94785SOL     OW86193  11.470   1.133   7.411
94785SOL    HW186194  11.474   1.056   7.354
94785SOL    HW286195  11.412   1.107   7.482
94786SOL     OW86196   9.667  11.262  11.583
94786SOL    HW186197   9.621  11.344  11.564
94786SOL    HW286198   9.665  11.255  11.678
94787SOL     OW86199   7.547   9.890   6.970
94787SOL    HW186200   7.604   9.870   7.044
94787SOL    HW286201   7.466   9.842   6.988
94788SOL     OW86202   0.030  12.772   4.067
94788SOL    HW186203  14.831  12.786   4.115
94788SOL    HW286204   0.049  12.856   4.026
94789SOL     OW86205   4.706  10.993   1.337
94789SOL    HW186206   4.644  10.932   1.298
94789SOL    HW286207   4.674  11.079   1.311
94790SOL     OW86208   7.698   8.063   1.074
94790SOL    HW186209   7.769   8.011   1.035
94790SOL    HW286210   7.681   8.021   1.158
94791SOL     OW86211   6.356   2.163   3.448
94791SOL    HW186212   6.382   2.071   3.436
94791SOL    HW286213   6.440   2.209   3.457
94792SOL     OW86214   9.197   8.691   8.111
94792SOL    HW186215   9.260   8.630   8.074
94792SOL    HW286216   9.237   8.777   8.100
94793SOL     OW86217  10.766   8.838  11.916
94793SOL    HW186218  10.822   8.761  11.919
94793SOL    HW286219  10.752   8.861  12.008
94794SOL     OW86220  13.393   6.302  14.729
94794SOL    HW186221  13.446   6.307  14.650
94794SOL    HW286222  13.432   6.366  14.789
94795SOL     OW86223   5.337   6.918  12.890
94795SOL    HW186224   5.297   6.855  12.948
94795SOL    HW286225   5.264   6.967  12.852
94796SOL     OW86226  13.643  10.805   9.419
94796SOL    HW186227  13.582  10.786   9.491
94796SOL    HW286228  13.591  10.789   9.340
94797SOL     OW86229  14.117   6.134  13.703
94797SOL    HW186230  14.188   6.075  13.680
94797SOL    HW286231  14.045   6.076  13.728
94798SOL     OW86232  11.611   6.101  13.931
94798SOL    HW186233  11.701   6.131  13.920
94798SOL    HW286234  11.596   6.042  13.858
94799SOL     OW86235   0.529   4.692   8.953
94799SOL    HW186236   0.507   4.618   8.897
94799SOL    HW286237   0.559   4.760   8.892
94800SOL     OW86238  14.452  12.500   5.709
94800SOL    HW186239  14.380  12.560   5.729
94800SOL    HW286240  14.409  12.421   5.676
94801SOL     OW86241   5.579   3.790  11.211
94801SOL    HW186242   5.658   3.751  11.173
94801SOL    HW286243   5.609   3.874  11.245
94802SOL     OW86244   6.208  11.262  14.078
94802SOL    HW186245   6.225  11.355  14.063
94802SOL    HW286246   6.197  11.225  13.991
94803SOL     OW86247   3.035   6.855   5.847
94803SOL    HW186248   2.959   6.800   5.826
94803SOL    HW286249   2.998   6.937   5.878
94804SOL     OW86250   6.552  14.729   9.565
94804SOL    HW186251   6.582  14.820   9.570
94804SOL    HW286252   6.457  14.734   9.577
94805SOL     OW86253   3.104  11.333   3.791
94805SOL    HW186254   3.072  11.318   3.702
94805SOL    HW286255   3.127  11.426   3.793
94806SOL     OW86256  11.479   1.419   5.904
94806SOL    HW186257  11.565   1.385   5.929
94806SOL    HW286258  11.474   1.403   5.809
94807SOL     OW86259   4.672   7.284  14.050
94807SOL    HW186260   4.723   7.358  14.084
94807SOL    HW286261   4.684   7.215  14.116
94808SOL     OW86262   9.977   3.680   2.644
94808SOL    HW186263  10.059   3.686   2.693
94808SOL    HW286264   9.917   3.739   2.689
94809SOL     OW86265  14.539  10.546   5.672
94809SOL    HW186266  14.557  10.610   5.741
94809SOL    HW286267  14.475  10.486   5.711
94810SOL     OW86268   6.044   5.340   8.142
94810SOL    HW186269   6.036   5.386   8.226
94810SOL    HW286270   6.011   5.403   8.078
94811SOL     OW86271  11.261   0.723   5.726
94811SOL    HW186272  11.297   0.673   5.653
94811SOL    HW286273  11.178   0.679   5.747
94812SOL     OW86274   7.917   6.168  11.185
94812SOL    HW186275   7.994   6.193  11.236
94812SOL    HW286276   7.927   6.216  11.102
94813SOL     OW86277   3.687   4.342  11.234
94813SOL    HW186278   3.640   4.380  11.159
94813SOL    HW286279   3.701   4.416  11.293
94814SOL     OW86280   1.132  10.940   2.559
94814SOL    HW186281   1.218  10.975   2.537
94814SOL    HW286282   1.073  10.981   2.495
94815SOL     OW86283   9.228  14.478   3.980
94815SOL    HW186284   9.140  14.445   3.999
94815SOL    HW286285   9.275  14.403   3.947
94816SOL     OW86286   1.894   1.916  11.137
94816SOL    HW186287   1.939   1.839  11.172
94816SOL    HW286288   1.834   1.882  11.072
94817SOL     OW86289   2.513   9.749  14.859
94817SOL    HW186290   2.443   9.813  14.847
94817SOL    HW286291   2.590   9.802  14.882
94818SOL     OW86292   3.283  12.392   6.350
94818SOL    HW186293   3.346  12.355   6.412
94818SOL    HW286294   3.320  12.373   6.264
94819SOL     OW86295   0.236  14.858   7.103
94819SOL    HW186296   0.150  14.818   7.086
94819SOL    HW286297   0.216   0.065   7.130
94820SOL     OW86298  13.199   4.989   9.963
94820SOL    HW186299  13.215   4.956  10.052
94820SOL    HW286300  13.287   5.003   9.927
94821SOL     OW86301  12.328   2.244  10.322
94821SOL    HW186302  12.287   2.159  10.307
94821SOL    HW286303  12.404   2.244  10.264
94822SOL     OW86304  14.370   3.595   4.122
94822SOL    HW186305  14.462   3.575   4.138
94822SOL    HW286306  14.370   3.675   4.071
94823SOL     OW86307   7.071   2.735  14.124
94823SOL    HW186308   7.137   2.792  14.163
94823SOL    HW286309   6.991   2.788  14.121
94824SOL     OW86310   6.306   2.771  11.971
94824SOL    HW186311   6.401   2.783  11.982
94824SOL    HW286312   6.282   2.707  12.038
94825SOL     OW86313   8.620   4.618   6.620
94825SOL    HW186314   8.525   4.611   6.624
94825SOL    HW286315   8.641   4.689   6.681
94826SOL     OW86316  12.508   4.835   6.005
94826SOL    HW186317  12.598   4.852   5.980
94826SOL    HW286318  12.512   4.818   6.099
94827SOL     OW86319   1.461   3.417  12.772
94827SOL    HW186320   1.488   3.430  12.863
94827SOL    HW286321   1.530   3.362  12.735
94828SOL     OW86322  14.101  13.244  10.736
94828SOL    HW186323  14.006  13.250  10.726
94828SOL    HW286324  14.119  13.151  10.736
94829SOL     OW86325   1.425   8.263   5.346
94829SOL    HW186326   1.376   8.252   5.427
94829SOL    HW286327   1.515   8.240   5.369
94830SOL     OW86328  13.922  10.976   0.009
94830SOL    HW186329  13.948  11.013   0.093
94830SOL    HW286330  14.004  10.957  14.847
94831SOL     OW86331   9.136   6.868   7.075
94831SOL    HW186332   9.069   6.929   7.042
94831SOL    HW286333   9.145   6.802   7.006
94832SOL     OW86334   1.144  10.141   4.261
94832SOL    HW186335   1.139  10.185   4.346
94832SOL    HW286336   1.063  10.164   4.217
94833SOL     OW86337   8.403   0.338  14.795
94833SOL    HW186338   8.319   0.374  14.767
94833SOL    HW286339   8.469   0.386  14.744
94834SOL     OW86340  10.955   0.430   4.443
94834SOL    HW186341  10.872   0.394   4.410
94834SOL    HW286342  10.971   0.508   4.389
94835SOL     OW86343   8.557  10.196  10.009
94835SOL    HW186344   8.501  10.127  10.046
94835SOL    HW286345   8.499  10.271   9.998
94836SOL     OW86346   4.290   3.588   3.910
94836SOL    HW186347   4.312   3.558   3.822
94836SOL    HW286348   4.195   3.579   3.916
94837SOL     OW86349   3.513  11.265  12.803
94837SOL    HW186350   3.590  11.280  12.749
94837SOL    HW286351   3.527  11.320  12.881
94838SOL     OW86352   6.567   2.791   7.084
94838SOL    HW186353   6.560   2.818   6.992
94838SOL    HW286354   6.582   2.697   7.080
94839SOL     OW86355   9.359  14.182   3.508
94839SOL    HW186356   9.265  14.191   3.524
94839SOL    HW286357   9.371  14.207   3.417
94840SOL     OW86358   8.585  12.961  10.709
94840SOL    HW186359   8.641  12.917  10.646
94840SOL    HW286360   8.555  13.040  10.665
94841SOL     OW86361   9.479   7.502   2.922
94841SOL    HW186362   9.521   7.588   2.930
94841SOL    HW286363   9.394   7.513   2.964
94842SOL     OW86364  13.395  12.818   4.938
94842SOL    HW186365  13.484  12.815   4.904
94842SOL    HW286366  13.354  12.737   4.906
94843SOL     OW86367   3.947   3.970   1.755
94843SOL    HW186368   3.875   3.956   1.816
94843SOL    HW286369   4.003   3.892   1.766
94844SOL     OW86370   6.775  11.398   3.244
94844SOL    HW186371   6.686  11.421   3.218
94844SOL    HW286372   6.781  11.425   3.336
94845SOL     OW86373  14.024   3.976   6.816
94845SOL    HW186374  13.998   3.996   6.726
94845SOL    HW286375  14.069   4.055   6.846
94846SOL     OW86376  10.186   9.900   9.416
94846SOL    HW186377  10.239   9.954   9.358
94846SOL    HW286378  10.118   9.958   9.449
94847SOL     OW86379  12.672   6.913   1.712
94847SOL    HW186380  12.699   6.859   1.637
94847SOL    HW286381  12.717   6.874   1.787
94848SOL     OW86382   4.216   3.579  10.168
94848SOL    HW186383   4.137   3.567  10.220
94848SOL    HW286384   4.278   3.514  10.202
94849SOL     OW86385   3.157  14.295   6.460
94849SOL    HW186386   3.196  14.337   6.538
94849SOL    HW286387   3.107  14.365   6.419
94850SOL     OW86388   9.635   9.556  13.780
94850SOL    HW186389   9.688   9.592  13.851
94850SOL    HW286390   9.684   9.575  13.701
94851SOL     OW86391  14.049  12.983   2.656
94851SOL    HW186392  14.028  12.900   2.699
94851SOL    HW286393  14.134  13.008   2.692
94852SOL     OW86394  11.873   9.686   7.363
94852SOL    HW186395  11.806   9.755   7.362
94852SOL    HW286396  11.840   9.620   7.303
94853SOL     OW86397   0.005   9.335   4.836
94853SOL    HW186398  14.865   9.261   4.893
94853SOL    HW286399   0.099   9.328   4.822
94854SOL     OW86400  11.086   5.847  12.572
94854SOL    HW186401  11.052   5.925  12.530
94854SOL    HW286402  11.078   5.778  12.506
94855SOL     OW86403  14.820   0.547  13.404
94855SOL    HW186404  14.844   0.538  13.496
94855SOL    HW286405  14.765   0.625  13.401
94856SOL     OW86406   8.992  12.758   4.414
94856SOL    HW186407   8.925  12.772   4.480
94856SOL    HW286408   8.999  12.663   4.406
94857SOL     OW86409   8.939  11.673   1.306
94857SOL    HW186410   9.014  11.726   1.277
94857SOL    HW286411   8.903  11.722   1.381
94858SOL     OW86412  14.785   4.717   4.724
94858SOL    HW186413  14.813   4.793   4.774
94858SOL    HW286414  14.705   4.688   4.767
94859SOL     OW86415   6.016  10.750   4.128
94859SOL    HW186416   6.107  10.778   4.141
94859SOL    HW286417   5.982  10.737   4.217
94860SOL     OW86418   5.235   4.008  10.826
94860SOL    HW186419   5.206   4.073  10.891
94860SOL    HW286420   5.290   4.058  10.766
94861SOL     OW86421  13.363   5.854  11.091
94861SOL    HW186422  13.397   5.767  11.067
94861SOL    HW286423  13.295   5.871  11.025
94862SOL     OW86424  11.107   1.944   2.528
94862SOL    HW186425  11.178   1.967   2.588
94862SOL    HW286426  11.077   2.028   2.493
94863SOL     OW86427  11.584   6.937   1.660
94863SOL    HW186428  11.502   6.985   1.649
94863SOL    HW286429  11.557   6.846   1.675
94864SOL     OW86430   7.731   0.140  10.571
94864SOL    HW186431   7.825   0.147  10.585
94864SOL    HW286432   7.708   0.219  10.522
94865SOL     OW86433   3.530   5.383   3.852
94865SOL    HW186434   3.569   5.465   3.883
94865SOL    HW286435   3.605   5.330   3.825
94866SOL     OW86436   7.321   3.845  10.611
94866SOL    HW186437   7.272   3.808  10.684
94866SOL    HW286438   7.341   3.769  10.555
94867SOL     OW86439   8.333  14.423   6.758
94867SOL    HW186440   8.257  14.438   6.702
94867SOL    HW286441   8.381  14.505   6.756
94868SOL     OW86442   8.963  10.478  14.656
94868SOL    HW186443   8.983  10.510  14.568
94868SOL    HW286444   8.875  10.441  14.649
94869SOL     OW86445   5.308  13.150   8.806
94869SOL    HW186446   5.249  13.197   8.864
94869SOL    HW286447   5.396  13.180   8.830
94870SOL     OW86448   0.146  14.872  12.177
94870SOL    HW186449   0.239   0.011  12.166
94870SOL    HW286450   0.145  14.780  12.202
94871SOL     OW86451  14.385  10.738   0.415
94871SOL    HW186452  14.454  10.770   0.357
94871SOL    HW286453  14.428  10.726   0.500
94872SOL     OW86454   7.555  12.136   5.193
94872SOL    HW186455   7.484  12.149   5.130
94872SOL    HW286456   7.511  12.128   5.278
94873SOL     OW86457  11.039   5.416   8.057
94873SOL    HW186458  11.014   5.383   7.971
94873SOL    HW286459  11.076   5.503   8.039
94874SOL     OW86460   2.673   5.038   1.578
94874SOL    HW186461   2.726   5.028   1.499
94874SOL    HW286462   2.583   5.027   1.548
94875SOL     OW86463   8.225  10.076  13.548
94875SOL    HW186464   8.146  10.130  13.538
94875SOL    HW286465   8.223  10.016  13.473
94876SOL     OW86466   9.806   8.435   8.966
94876SOL    HW186467   9.717   8.407   8.945
94876SOL    HW286468   9.861   8.364   8.935
94877SOL     OW86469   2.782   1.805   4.299
94877SOL    HW186470   2.855   1.794   4.360
94877SOL    HW286471   2.706   1.772   4.346
94878SOL     OW86472   0.034   0.003  11.470
94878SOL    HW186473   0.025   0.083  11.418
94878SOL    HW286474  14.853  14.824  11.431
94879SOL     OW86475   7.086   1.885  10.129
94879SOL    HW186476   7.135   1.803  10.140
94879SOL    HW286477   7.106   1.936  10.208
94880SOL     OW86478   2.650  13.180   2.862
94880SOL    HW186479   2.600  13.200   2.940
94880SOL    HW286480   2.633  13.087   2.846
94881SOL     OW86481   8.711   5.333   4.074
94881SOL    HW186482   8.660   5.404   4.114
94881SOL    HW286483   8.697   5.344   3.980
94882SOL     OW86484   8.254  13.938  13.584
94882SOL    HW186485   8.294  13.879  13.521
94882SOL    HW286486   8.240  13.884  13.662
94883SOL     OW86487  10.471   2.353  11.543
94883SOL    HW186488  10.552   2.386  11.505
94883SOL    HW286489  10.405   2.419  11.522
94884SOL     OW86490   8.628   1.412   1.901
94884SOL    HW186491   8.623   1.507   1.889
94884SOL    HW286492   8.665   1.378   1.819
94885SOL     OW86493   1.862   8.013  11.779
94885SOL    HW186494   1.854   7.982  11.689
94885SOL    HW286495   1.886   8.105  11.771
94886SOL     OW86496   0.440   5.942  13.340
94886SOL    HW186497   0.484   5.967  13.422
94886SOL    HW286498   0.421   6.025  13.297
94887SOL     OW86499   0.464   8.026   6.453
94887SOL    HW186500   0.508   7.947   6.423
94887SOL    HW286501   0.508   8.097   6.407
94888SOL     OW86502  11.607   1.016  10.320
94888SOL    HW186503  11.603   0.958  10.245
94888SOL    HW286504  11.679   1.076  10.301
94889SOL     OW86505   4.506   0.363   5.579
94889SOL    HW186506   4.543   0.364   5.668
94889SOL    HW286507   4.577   0.328   5.525
94890SOL     OW86508   2.835  12.901   0.690
94890SOL    HW186509   2.789  12.817   0.684
94890SOL    HW286510   2.808  12.936   0.775
94891SOL     OW86511  13.926   4.594   8.083
94891SOL    HW186512  13.993   4.533   8.054
94891SOL    HW286513  13.895   4.636   8.002
94892SOL     OW86514   8.695   2.712   6.041
94892SOL    HW186515   8.770   2.680   6.092
94892SOL    HW286516   8.731   2.784   5.988
94893SOL     OW86517   7.402  11.872   0.966
94893SOL    HW186518   7.329  11.905   0.916
94893SOL    HW286519   7.448  11.950   0.997
94894SOL     OW86520   4.563   1.216  10.560
94894SOL    HW186521   4.536   1.251  10.476
94894SOL    HW286522   4.525   1.275  10.625
94895SOL     OW86523  13.103   2.960  10.390
94895SOL    HW186524  13.088   2.968  10.484
94895SOL    HW286525  13.017   2.943  10.353
94896SOL     OW86526   9.342   1.818  13.223
94896SOL    HW186527   9.385   1.841  13.305
94896SOL    HW286528   9.375   1.730  13.203
94897SOL     OW86529   8.370   0.742   1.985
94897SOL    HW186530   8.316   0.687   2.043
94897SOL    HW286531   8.460   0.729   2.016
94898SOL     OW86532   3.199   4.385   8.479
94898SOL    HW186533   3.204   4.463   8.424
94898SOL    HW286534   3.271   4.330   8.451
94899SOL     OW86535   3.989   1.310  13.758
94899SOL    HW186536   4.029   1.304  13.844
94899SOL    HW286537   4.042   1.375  13.711
94900SOL     OW86538   6.130   9.890   7.611
94900SOL    HW186539   6.045   9.849   7.602
94900SOL    HW286540   6.187   9.842   7.551
94901SOL     OW86541  13.644   0.541   4.434
94901SOL    HW186542  13.709   0.576   4.494
94901SOL    HW286543  13.560   0.560   4.476
94902SOL     OW86544  11.814   7.534  13.220
94902SOL    HW186545  11.849   7.459  13.172
94902SOL    HW286546  11.885   7.559  13.280
94903SOL     OW86547   3.694   4.766  13.734
94903SOL    HW186548   3.608   4.724  13.732
94903SOL    HW286549   3.675   4.859  13.740
94904SOL     OW86550   5.308   3.389  10.402
94904SOL    HW186551   5.402   3.406  10.401
94904SOL    HW286552   5.288   3.367  10.493
94905SOL     OW86553   4.518   5.651   1.929
94905SOL    HW186554   4.555   5.740   1.926
94905SOL    HW286555   4.555   5.612   2.007
94906SOL     OW86556   5.669  11.742   3.436
94906SOL    HW186557   5.618  11.734   3.356
94906SOL    HW286558   5.706  11.830   3.433
94907SOL     OW86559  11.257   5.902  13.875
94907SOL    HW186560  11.211   5.978  13.909
94907SOL    HW286561  11.287   5.928  13.788
94908SOL     OW86562   1.709   0.516  13.360
94908SOL    HW186563   1.771   0.588  13.372
94908SOL    HW286564   1.759   0.448  13.314
94909SOL     OW86565   9.043  14.751   7.040
94909SOL    HW186566   8.969  14.724   7.093
94909SOL    HW286567   9.081  14.825   7.088
94910SOL     OW86568  14.403  11.553   9.367
94910SOL    HW186569  14.499  11.548   9.370
94910SOL    HW286570  14.381  11.524   9.278
94911SOL     OW86571   5.744   8.913   1.216
94911SOL    HW186572   5.747   8.923   1.121
94911SOL    HW286573   5.750   9.003   1.249
94912SOL     OW86574   5.705   8.478  14.831
94912SOL    HW186575   5.634   8.487   0.013
94912SOL    HW286576   5.731   8.568  14.811
94913SOL     OW86577  11.091   8.632   0.433
94913SOL    HW186578  11.069   8.723   0.449
94913SOL    HW286579  11.183   8.625   0.457
94914SOL     OW86580   6.261  14.625   9.104
94914SOL    HW186581   6.223  14.706   9.071
94914SOL    HW286582   6.206  14.556   9.068
94915SOL     OW86583  13.046   1.935   3.758
94915SOL    HW186584  13.000   1.851   3.767
94915SOL    HW286585  13.019   1.969   3.673
94916SOL     OW86586   4.715  14.612  10.153
94916SOL    HW186587   4.631  14.573  10.177
94916SOL    HW286588   4.762  14.620  10.236
94917SOL     OW86589   0.323  10.822   3.897
94917SOL    HW186590   0.262  10.891   3.870
94917SOL    HW286591   0.291  10.744   3.852
94918SOL     OW86592   4.396  13.932  10.182
94918SOL    HW186593   4.363  14.015  10.146
94918SOL    HW286594   4.414  13.878  10.105
94919SOL     OW86595   5.298   2.391   3.297
94919SOL    HW186596   5.371   2.329   3.302
94919SOL    HW286597   5.249   2.378   3.378
94920SOL     OW86598  14.503   9.710   7.554
94920SOL    HW186599  14.559   9.785   7.572
94920SOL    HW286600  14.564   9.638   7.537
94921SOL     OW86601  14.381   9.173   3.161
94921SOL    HW186602  14.462   9.131   3.190
94921SOL    HW286603  14.361   9.237   3.229
94922SOL     OW86604   3.285   2.943   9.535
94922SOL    HW186605   3.199   2.982   9.523
94922SOL    HW286606   3.274   2.879   9.604
94923SOL     OW86607   4.818  11.725  11.565
94923SOL    HW186608   4.831  11.640  11.607
94923SOL    HW286609   4.865  11.718  11.482
94924SOL     OW86610   1.147   2.506   7.221
94924SOL    HW186611   1.223   2.448   7.219
94924SOL    HW286612   1.072   2.447   7.220
94925SOL     OW86613  12.132   6.236   7.539
94925SOL    HW186614  12.183   6.175   7.593
94925SOL    HW286615  12.194   6.268   7.473
94926SOL     OW86616   8.806   8.130   5.567
94926SOL    HW186617   8.728   8.094   5.610
94926SOL    HW286618   8.782   8.135   5.475
94927SOL     OW86619   9.789  14.765   5.197
94927SOL    HW186620   9.762  14.697   5.258
94927SOL    HW286621   9.807  14.718   5.115
94928SOL     OW86622  14.505  13.950   7.462
94928SOL    HW186623  14.471  13.899   7.388
94928SOL    HW286624  14.598  13.928   7.465
94929SOL     OW86625  11.862   7.658   0.117
94929SOL    HW186626  11.823   7.589   0.062
94929SOL    HW286627  11.892   7.724   0.054
94930SOL     OW86628   6.040   0.457   6.680
94930SOL    HW186629   6.058   0.492   6.767
94930SOL    HW286630   5.978   0.519   6.641
94931SOL     OW86631   7.173   6.254   4.585
94931SOL    HW186632   7.140   6.258   4.675
94931SOL    HW286633   7.192   6.162   4.571
94932SOL     OW86634   4.316   1.536   9.134
94932SOL    HW186635   4.410   1.547   9.145
94932SOL    HW286636   4.282   1.527   9.223
94933SOL     OW86637   7.607   2.226  10.049
94933SOL    HW186638   7.633   2.146  10.094
94933SOL    HW286639   7.518   2.208  10.018
94934SOL     OW86640   9.140   1.419   7.895
94934SOL    HW186641   9.210   1.464   7.940
94934SOL    HW286642   9.181   1.382   7.816
94935SOL     OW86643   3.688  14.625   0.031
94935SOL    HW186644   3.663  14.582  14.831
94935SOL    HW286645   3.663  14.563   0.099
94936SOL     OW86646   8.995   8.894   2.717
94936SOL    HW186647   9.038   8.838   2.653
94936SOL    HW286648   9.065   8.949   2.752
94937SOL     OW86649   3.768  11.080  13.449
94937SOL    HW186650   3.802  11.170  13.450
94937SOL    HW286651   3.844  11.026  13.469
94938SOL     OW86652   3.473  10.125   9.307
94938SOL    HW186653   3.523  10.166   9.237
94938SOL    HW286654   3.523  10.046   9.328
94939SOL     OW86655   1.670  14.196  10.342
94939SOL    HW186656   1.654  14.137  10.269
94939SOL    HW286657   1.762  14.222  10.333
94940SOL     OW86658  14.377  10.589   7.209
94940SOL    HW186659  14.386  10.494   7.209
94940SOL    HW286660  14.306  10.606   7.272
94941SOL     OW86661   1.544  14.219  14.035
94941SOL    HW186662   1.575  14.224  14.125
94941SOL    HW286663   1.501  14.133  14.029
94942SOL     OW86664   4.338   0.824   5.298
94942SOL    HW186665   4.254   0.803   5.339
94942SOL    HW286666   4.315   0.881   5.225
94943SOL     OW86667   8.523   2.177   5.371
94943SOL    HW186668   8.514   2.253   5.313
94943SOL    HW286669   8.433   2.149   5.387
94944SOL     OW86670   3.698   0.523   4.726
94944SOL    HW186671   3.711   0.573   4.645
94944SOL    HW286672   3.671   0.436   4.696
94945SOL     OW86673   2.099   6.792   8.031
94945SOL    HW186674   2.122   6.828   7.945
94945SOL    HW286675   2.093   6.697   8.017
94946SOL     OW86676   3.223  13.619   5.568
94946SOL    HW186677   3.245  13.677   5.495
94946SOL    HW286678   3.297  13.628   5.629
94947SOL     OW86679   3.905   3.418  12.686
94947SOL    HW186680   3.997   3.400  12.707
94947SOL    HW286681   3.866   3.331  12.677
94948SOL     OW86682  10.910   2.603   1.526
94948SOL    HW186683  10.936   2.530   1.471
94948SOL    HW286684  10.937   2.579   1.615
94949SOL     OW86685   0.217   5.683  12.683
94949SOL    HW186686   0.200   5.642  12.768
94949SOL    HW286687   0.145   5.744  12.670
94950SOL     OW86688   0.149   2.573   6.577
94950SOL    HW186689   0.141   2.512   6.651
94950SOL    HW286690   0.181   2.519   6.505
94951SOL     OW86691  13.892   2.526   5.167
94951SOL    HW186692  13.974   2.560   5.131
94951SOL    HW286693  13.880   2.441   5.123
94952SOL     OW86694   5.064   4.894  12.575
94952SOL    HW186695   5.021   4.959  12.630
94952SOL    HW286696   5.090   4.825  12.637
94953SOL     OW86697   0.126  13.157   5.899
94953SOL    HW186698   0.151  13.122   5.985
94953SOL    HW286699   0.115  13.079   5.845
94954SOL     OW86700   6.814   8.686   3.036
94954SOL    HW186701   6.830   8.726   2.951
94954SOL    HW286702   6.727   8.717   3.061
94955SOL     OW86703  13.167  12.050   1.397
94955SOL    HW186704  13.141  11.967   1.357
94955SOL    HW286705  13.086  12.084   1.436
94956SOL     OW86706   4.107   1.503   2.616
94956SOL    HW186707   4.113   1.536   2.705
94956SOL    HW286708   4.157   1.565   2.564
94957SOL     OW86709   8.071   7.716   9.995
94957SOL    HW186710   8.098   7.757  10.077
94957SOL    HW286711   7.990   7.670  10.016
94958SOL     OW86712   8.709   4.348  11.180
94958SOL    HW186713   8.642   4.360  11.247
94958SOL    HW286714   8.665   4.300  11.110
94959SOL     OW86715  13.877  10.335   4.126
94959SOL    HW186716  13.972  10.351   4.132
94959SOL    HW286717  13.869  10.265   4.060
94960SOL     OW86718   7.414  10.381   0.976
94960SOL    HW186719   7.364  10.303   0.998
94960SOL    HW286720   7.413  10.434   1.056
94961SOL     OW86721   5.754   8.560   5.710
94961SOL    HW186722   5.663   8.530   5.699
94961SOL    HW286723   5.786   8.514   5.787
94962SOL     OW86724   0.582  10.163   4.756
94962SOL    HW186725   0.499  10.210   4.756
94962SOL    HW286726   0.599  10.146   4.849
94963SOL     OW86727   0.489  11.957  11.724
94963SOL    HW186728   0.556  11.936  11.659
94963SOL    HW286729   0.462  11.872  11.759
94964SOL     OW86730   6.361  11.915   9.920
94964SOL    HW186731   6.376  11.943  10.010
94964SOL    HW286732   6.449  11.899   9.886
94965SOL     OW86733   6.063   8.482  13.311
94965SOL    HW186734   6.094   8.571  13.298
94965SOL    HW286735   6.142   8.433  13.337
94966SOL     OW86736   9.772   3.949  13.899
94966SOL    HW186737   9.840   4.016  13.890
94966SOL    HW286738   9.737   3.961  13.986
94967SOL     OW86739   1.757  13.976  11.119
94967SOL    HW186740   1.786  14.024  11.196
94967SOL    HW286741   1.706  14.039  11.069
94968SOL     OW86742   2.348  11.696   3.667
94968SOL    HW186743   2.265  11.728   3.631
94968SOL    HW286744   2.322  11.637   3.738
94969SOL     OW86745   8.108   3.937   9.410
94969SOL    HW186746   8.037   3.930   9.347
94969SOL    HW286747   8.188   3.941   9.357
94970SOL     OW86748   0.817   0.950   1.214
94970SOL    HW186749   0.876   0.883   1.180
94970SOL    HW286750   0.730   0.923   1.185
94971SOL     OW86751   9.173   8.926   7.435
94971SOL    HW186752   9.235   8.855   7.450
94971SOL    HW286753   9.223   9.005   7.455
94972SOL     OW86754   7.600  13.813   5.890
94972SOL    HW186755   7.622  13.845   5.977
94972SOL    HW286756   7.676  13.837   5.836
94973SOL     OW86757  10.092   0.209  14.328
94973SOL    HW186758  10.168   0.163  14.363
94973SOL    HW286759  10.021   0.144  14.329
94974SOL     OW86760   1.366  11.933   2.316
94974SOL    HW186761   1.414  11.856   2.285
94974SOL    HW286762   1.387  12.001   2.252
94975SOL     OW86763  12.213   2.927  11.567
94975SOL    HW186764  12.197   2.852  11.511
94975SOL    HW286765  12.200   2.893  11.656
94976SOL     OW86766  13.957   1.451   3.306
94976SOL    HW186767  14.004   1.410   3.379
94976SOL    HW286768  13.952   1.384   3.239
94977SOL     OW86769   2.400   7.054  10.621
94977SOL    HW186770   2.477   7.033  10.673
94977SOL    HW286771   2.390   7.149  10.630
94978SOL     OW86772   1.225  12.994   9.953
94978SOL    HW186773   1.212  12.932   9.881
94978SOL    HW286774   1.139  13.037   9.964
94979SOL     OW86775   8.434  11.440   1.752
94979SOL    HW186776   8.375  11.488   1.694
94979SOL    HW286777   8.516  11.435   1.702
94980SOL     OW86778  11.853   5.710   1.819
94980SOL    HW186779  11.831   5.785   1.765
94980SOL    HW286780  11.794   5.641   1.789
94981SOL     OW86781   4.258   5.160  11.575
94981SOL    HW186782   4.183   5.151  11.635
94981SOL    HW286783   4.218   5.160  11.488
94982SOL     OW86784   1.001  13.471   9.636
94982SOL    HW186785   1.092  13.442   9.627
94982SOL    HW286786   1.001  13.561   9.604
94983SOL     OW86787   7.158  10.052   0.191
94983SOL    HW186788   7.204   9.987   0.138
94983SOL    HW286789   7.132  10.119   0.128
94984SOL     OW86790  13.497   7.566   5.143
94984SOL    HW186791  13.527   7.625   5.211
94984SOL    HW286792  13.573   7.512   5.122
94985SOL     OW86793   6.554  13.933   2.391
94985SOL    HW186794   6.507  14.014   2.372
94985SOL    HW286795   6.494  13.883   2.447
94986SOL     OW86796   1.495   6.244   2.981
94986SOL    HW186797   1.465   6.258   3.071
94986SOL    HW286798   1.422   6.275   2.926
94987SOL     OW86799   5.710  10.846  11.129
94987SOL    HW186800   5.698  10.941  11.121
94987SOL    HW286801   5.632  10.816  11.176
94988SOL     OW86802   1.033  10.431   7.004
94988SOL    HW186803   0.951  10.383   6.990
94988SOL    HW286804   1.050  10.474   6.920
94989SOL     OW86805  12.249   4.303  11.296
94989SOL    HW186806  12.204   4.259  11.224
94989SOL    HW286807  12.239   4.396  11.275
94990SOL     OW86808  13.268  13.318  12.027
94990SOL    HW186809  13.261  13.225  12.048
94990SOL    HW286810  13.310  13.356  12.105
94991SOL     OW86811   6.034   3.613   6.101
94991SOL    HW186812   5.978   3.668   6.047
94991SOL    HW286813   5.981   3.590   6.177
94992SOL     OW86814  10.227   9.105   8.222
94992SOL    HW186815  10.241   9.199   8.206
94992SOL    HW286816  10.289   9.083   8.291
94993SOL     OW86817  10.826  13.475  11.237
94993SOL    HW186818  10.917  13.447  11.230
94993SOL    HW286819  10.775  13.401  11.206
94994SOL     OW86820  11.349  12.785   8.876
94994SOL    HW186821  11.258  12.756   8.868
94994SOL    HW286822  11.365  12.788   8.970
94995SOL     OW86823   4.192  12.689   0.145
94995SOL    HW186824   4.123  12.665   0.207
94995SOL    HW286825   4.171  12.642   0.065
94996SOL     OW86826  11.250   9.107  12.509
94996SOL    HW186827  11.222   9.137  12.596
94996SOL    HW286828  11.170   9.073  12.469
94997SOL     OW86829   0.171   2.134   3.718
94997SOL    HW186830   0.158   2.047   3.757
94997SOL    HW286831   0.251   2.167   3.760
94998SOL     OW86832   3.729   3.489   5.740
94998SOL    HW186833   3.754   3.398   5.748
94998SOL    HW286834   3.811   3.538   5.742
94999SOL     OW86835   4.193   6.955   5.483
94999SOL    HW186836   4.100   6.948   5.459
94999SOL    HW286837   4.193   6.999   5.568
95000SOL     OW86838   0.484  12.092   8.511
95000SOL    HW186839   0.552  12.147   8.550
95000SOL    HW286840   0.473  12.126   8.423
95001SOL     OW86841  10.916   4.149   8.293
95001SOL    HW186842  10.993   4.093   8.280
95001SOL    HW286843  10.920   4.212   8.222
95002SOL     OW86844  14.333  10.755   4.774
95002SOL    HW186845  14.357  10.815   4.845
95002SOL    HW286846  14.239  10.741   4.785
95003SOL     OW86847   5.448   6.290   0.532
95003SOL    HW186848   5.441   6.201   0.565
95003SOL    HW286849   5.486   6.340   0.605
95004SOL     OW86850   9.837   4.366   8.442
95004SOL    HW186851   9.747   4.384   8.417
95004SOL    HW286852   9.889   4.429   8.393
95005SOL     OW86853  11.733  13.940   3.475
95005SOL    HW186854  11.723  13.939   3.570
95005SOL    HW286855  11.827  13.931   3.460
95006SOL     OW86856  13.906   2.325   9.092
95006SOL    HW186857  13.829   2.359   9.136
95006SOL    HW286858  13.979   2.372   9.133
95007SOL     OW86859   3.443  11.796   0.912
95007SOL    HW186860   3.513  11.792   0.976
95007SOL    HW286861   3.434  11.706   0.880
95008SOL     OW86862   1.806   1.180  11.240
95008SOL    HW186863   1.889   1.194  11.285
95008SOL    HW286864   1.827   1.189  11.148
95009SOL     OW86865  14.095  11.801   3.391
95009SOL    HW186866  14.152  11.877   3.398
95009SOL    HW286867  14.129  11.740   3.456
95010SOL     OW86868   3.538  12.163   0.606
95010SOL    HW186869   3.603  12.212   0.556
95010SOL    HW286870   3.463  12.222   0.613
95011SOL     OW86871   6.835  14.401  11.572
95011SOL    HW186872   6.884  14.445  11.642
95011SOL    HW286873   6.758  14.456  11.559
95012SOL     OW86874  13.778  11.114   3.983
95012SOL    HW186875  13.833  11.072   4.049
95012SOL    HW286876  13.830  11.110   3.902
95013SOL     OW86877   9.843   2.637  13.655
95013SOL    HW186878   9.834   2.721  13.609
95013SOL    HW286879   9.789   2.646  13.733
95014SOL     OW86880   2.602  10.907   9.506
95014SOL    HW186881   2.689  10.931   9.474
95014SOL    HW286882   2.586  10.820   9.469
95015SOL     OW86883  11.042   2.088   5.496
95015SOL    HW186884  11.060   2.170   5.541
95015SOL    HW286885  11.009   2.114   5.410
95016SOL     OW86886   0.232   7.238   5.692
95016SOL    HW186887   0.323   7.257   5.713
95016SOL    HW286888   0.188   7.234   5.777
95017SOL     OW86889   6.343  12.920   6.241
95017SOL    HW186890   6.318  12.963   6.160
95017SOL    HW286891   6.262  12.883   6.275
95018SOL     OW86892  14.460   2.994   8.502
95018SOL    HW186893  14.457   3.078   8.458
95018SOL    HW286894  14.369   2.975   8.524
95019SOL     OW86895  14.040   8.030   9.619
95019SOL    HW186896  14.022   8.037   9.713
95019SOL    HW286897  14.040   7.936   9.602
95020SOL     OW86898   5.769   6.062   3.444
95020SOL    HW186899   5.743   6.137   3.498
95020SOL    HW286900   5.775   6.098   3.356
95021SOL     OW86901  13.982   1.728   9.752
95021SOL    HW186902  13.958   1.801   9.696
95021SOL    HW286903  13.928   1.655   9.721
95022SOL     OW86904   8.319   3.470   5.851
95022SOL    HW186905   8.274   3.385   5.842
95022SOL    HW286906   8.276   3.526   5.786
95023SOL     OW86907   8.170   4.586  10.847
95023SOL    HW186908   8.224   4.608  10.922
95023SOL    HW286909   8.168   4.490  10.846
95024SOL     OW86910   2.369  10.528  12.094
95024SOL    HW186911   2.301  10.513  12.159
95024SOL    HW286912   2.358  10.619  12.068
95025SOL     OW86913   6.292   0.078   5.242
95025SOL    HW186914   6.354   0.087   5.169
95025SOL    HW286915   6.276   0.168   5.270
95026SOL     OW86916  11.868   3.880  14.007
95026SOL    HW186917  11.823   3.935  14.071
95026SOL    HW286918  11.957   3.870  14.041
95027SOL     OW86919   0.402   3.082   6.519
95027SOL    HW186920   0.377   3.062   6.610
95027SOL    HW286921   0.319   3.080   6.471
95028SOL     OW86922   7.465  13.143   7.095
95028SOL    HW186923   7.494  13.098   7.174
95028SOL    HW286924   7.524  13.218   7.087
95029SOL     OW86925   7.370   3.340   9.843
95029SOL    HW186926   7.368   3.395   9.766
95029SOL    HW286927   7.286   3.356   9.886
95030SOL     OW86928  10.132   7.643   1.870
95030SOL    HW186929  10.070   7.599   1.929
95030SOL    HW286930  10.152   7.577   1.804
95031SOL     OW86931   9.050  14.360  13.771
95031SOL    HW186932   8.966  14.365  13.725
95031SOL    HW286933   9.114  14.385  13.704
95032SOL     OW86934   1.495  11.094   1.942
95032SOL    HW186935   1.444  11.024   1.900
95032SOL    HW286936   1.531  11.145   1.870
95033SOL     OW86937  13.738  11.350   8.084
95033SOL    HW186938  13.772  11.440   8.082
95033SOL    HW286939  13.668  11.352   8.149
95034SOL     OW86940  10.854  10.071   5.263
95034SOL    HW186941  10.921  10.121   5.218
95034SOL    HW286942  10.801  10.032   5.194
95035SOL     OW86943   0.525   1.123   9.778
95035SOL    HW186944   0.476   1.078   9.847
95035SOL    HW286945   0.506   1.216   9.791
95036SOL     OW86946  12.815   5.569   0.829
95036SOL    HW186947  12.865   5.642   0.866
95036SOL    HW286948  12.753   5.610   0.769
95037SOL     OW86949   9.444   5.159   0.327
95037SOL    HW186950   9.495   5.194   0.399
95037SOL    HW286951   9.442   5.229   0.262
95038SOL     OW86952  13.915   1.424   1.360
95038SOL    HW186953  13.870   1.367   1.423
95038SOL    HW286954  13.850   1.441   1.292
95039SOL     OW86955   2.759   8.267   5.567
95039SOL    HW186956   2.773   8.211   5.643
95039SOL    HW286957   2.671   8.245   5.536
95040SOL     OW86958   9.894  12.646   5.623
95040SOL    HW186959   9.889  12.714   5.556
95040SOL    HW286960   9.949  12.684   5.691
95041SOL     OW86961  10.257   3.758   3.435
95041SOL    HW186962  10.347   3.748   3.465
95041SOL    HW286963  10.205   3.703   3.493
95042SOL     OW86964   4.202  10.924   7.557
95042SOL    HW186965   4.212  10.975   7.638
95042SOL    HW286966   4.291  10.904   7.530
95043SOL     OW86967   7.292   6.492   4.114
95043SOL    HW186968   7.259   6.560   4.173
95043SOL    HW286969   7.388   6.502   4.117
95044SOL     OW86970  11.489   7.515   5.778
95044SOL    HW186971  11.447   7.435   5.746
95044SOL    HW286972  11.509   7.497   5.870
95045SOL     OW86973   4.023   3.760   8.472
95045SOL    HW186974   3.988   3.736   8.387
95045SOL    HW286975   4.102   3.812   8.452
95046SOL     OW86976  14.112   4.514  12.576
95046SOL    HW186977  14.110   4.420  12.591
95046SOL    HW286978  14.062   4.551  12.649
95047SOL     OW86979  10.614   2.738  12.179
95047SOL    HW186980  10.604   2.829  12.150
95047SOL    HW286981  10.571   2.686  12.112
95048SOL     OW86982   8.746   1.281   4.090
95048SOL    HW186983   8.680   1.317   4.031
95048SOL    HW286984   8.763   1.352   4.153
95049SOL     OW86985  14.403   9.463   0.327
95049SOL    HW186986  14.436   9.552   0.336
95049SOL    HW286987  14.329   9.458   0.387
95050SOL     OW86988   7.112   7.711   8.230
95050SOL    HW186989   7.085   7.734   8.318
95050SOL    HW286990   7.122   7.616   8.232
95051SOL     OW86991  10.238   3.141   7.683
95051SOL    HW186992  10.234   3.068   7.621
95051SOL    HW286993  10.307   3.116   7.745
95052SOL     OW86994   4.103   3.127   1.631
95052SOL    HW186995   4.086   3.220   1.644
95052SOL    HW286996   4.017   3.088   1.617
95053SOL     OW86997  10.622  11.336   7.429
95053SOL    HW186998  10.609  11.423   7.467
95053SOL    HW286999  10.600  11.347   7.337
95054SOL     OW87000   2.624   1.696   5.166
95054SOL    HW187001   2.589   1.659   5.247
95054SOL    HW287002   2.707   1.736   5.192
95055SOL     OW87003  11.504  13.248   1.327
95055SOL    HW187004  11.514  13.291   1.241
95055SOL    HW287005  11.474  13.318   1.385
95056SOL     OW87006   9.661  13.981   3.480
95056SOL    HW187007   9.739  14.009   3.431
95056SOL    HW287008   9.691  13.906   3.531
95057SOL     OW87009   9.156   4.766  12.443
95057SOL    HW187010   9.067   4.738  12.465
95057SOL    HW287011   9.169   4.846  12.495
95058SOL     OW87012  14.681   3.482   9.706
95058SOL    HW187013  14.755   3.437   9.748
95058SOL    HW287014  14.628   3.411   9.669
95059SOL     OW87015   2.097  14.587   7.356
95059SOL    HW187016   2.006  14.617   7.354
95059SOL    HW287017   2.110  14.554   7.445
95060SOL     OW87018  12.783   7.599  14.566
95060SOL    HW187019  12.773   7.532  14.499
95060SOL    HW287020  12.696   7.607  14.605
95061SOL     OW87021   8.368   8.902  11.841
95061SOL    HW187022   8.286   8.857  11.823
95061SOL    HW287023   8.434   8.832  11.843
95062SOL     OW87024   8.320   6.464   6.264
95062SOL    HW187025   8.341   6.531   6.328
95062SOL    HW287026   8.404   6.429   6.236
95063SOL     OW87027   2.968  14.052   7.094
95063SOL    HW187028   2.895  14.107   7.065
95063SOL    HW287029   2.927  13.979   7.141
95064SOL     OW87030   7.310  11.711  11.741
95064SOL    HW187031   7.275  11.796  11.714
95064SOL    HW287032   7.364  11.683  11.667
95065SOL     OW87033  14.793  12.656   0.189
95065SOL    HW187034  14.806  12.596   0.116
95065SOL    HW287035  14.701  12.680   0.185
95066SOL     OW87036   3.097  14.517   8.015
95066SOL    HW187037   3.103  14.495   7.922
95066SOL    HW287038   3.150  14.596   8.025
95067SOL     OW87039   5.987   5.156   9.628
95067SOL    HW187040   6.013   5.217   9.697
95067SOL    HW287041   5.930   5.207   9.571
95068SOL     OW87042   6.255   9.619   3.397
95068SOL    HW187043   6.307   9.691   3.361
95068SOL    HW287044   6.271   9.623   3.491
95069SOL     OW87045  10.892   2.330   4.941
95069SOL    HW187046  10.873   2.264   5.008
95069SOL    HW287047  10.841   2.406   4.968
95070SOL     OW87048  14.760  11.785   5.275
95070SOL    HW187049  14.736  11.878   5.278
95070SOL    HW287050  14.768  11.765   5.182
95071SOL     OW87051  13.767  13.896   5.459
95071SOL    HW187052  13.775  13.804   5.436
95071SOL    HW287053  13.844  13.937   5.421
95072SOL     OW87054   0.224   6.258  13.316
95072SOL    HW187055   0.165   6.217  13.252
95072SOL    HW287056   0.312   6.245  13.280
95073SOL     OW87057   5.239  13.795   7.272
95073SOL    HW187058   5.253  13.867   7.334
95073SOL    HW287059   5.316  13.796   7.215
95074SOL     OW87060   6.065   4.299   9.541
95074SOL    HW187061   6.079   4.242   9.466
95074SOL    HW287062   6.153   4.325   9.569
95075SOL     OW87063   1.014  10.771   5.122
95075SOL    HW187064   0.938  10.722   5.090
95075SOL    HW287065   1.035  10.832   5.052
95076SOL     OW87066   9.053  10.457   4.452
95076SOL    HW187067   9.123  10.408   4.494
95076SOL    HW287068   9.058  10.545   4.490
95077SOL     OW87069   3.315  13.784  13.909
95077SOL    HW187070   3.338  13.826  13.826
95077SOL    HW287071   3.315  13.856  13.972
95078SOL     OW87072   9.058   8.033   5.642
95078SOL    HW187073   8.972   8.050   5.605
95078SOL    HW287074   9.072   8.103   5.706
95079SOL     OW87075   1.365   5.128  14.072
95079SOL    HW187076   1.305   5.183  14.021
95079SOL    HW287077   1.320   5.044  14.079
95080SOL     OW87078   0.207   4.964  13.393
95080SOL    HW187079   0.280   5.025  13.387
95080SOL    HW287080   0.130   5.016  13.370
95081SOL     OW87081   4.829   7.534  14.410
95081SOL    HW187082   4.839   7.485  14.492
95081SOL    HW287083   4.749   7.498  14.371
95082SOL     OW87084   1.126   9.827   0.014
95082SOL    HW187085   1.118   9.899  14.833
95082SOL    HW287086   1.146   9.751  14.843
95083SOL     OW87087   4.893  13.250  14.704
95083SOL    HW187088   4.811  13.212  14.736
95083SOL    HW287089   4.960  13.187  14.729
95084SOL     OW87090  10.886   1.312   7.804
95084SOL    HW187091  10.868   1.314   7.898
95084SOL    HW287092  10.802   1.288   7.765
95085SOL     OW87093   8.269   3.136   0.929
95085SOL    HW187094   8.294   3.168   0.842
95085SOL    HW287095   8.227   3.052   0.913
95086SOL     OW87096  10.969   2.404   1.346
95086SOL    HW187097  10.903   2.340   1.319
95086SOL    HW287098  11.051   2.354   1.347
95087SOL     OW87099  12.179   6.417  10.927
95087SOL    HW187100  12.150   6.400  11.016
95087SOL    HW287101  12.098   6.439  10.880
95088SOL     OW87102   1.344  11.611  10.962
95088SOL    HW187103   1.341  11.698  10.921
95088SOL    HW287104   1.399  11.624  11.040
95089SOL     OW87105   3.169   0.005   9.733
95089SOL    HW187106   3.190   0.012   9.640
95089SOL    HW287107   3.084   0.048   9.742
95090SOL     OW87108  13.954   5.713   0.506
95090SOL    HW187109  14.015   5.671   0.566
95090SOL    HW287110  13.928   5.645   0.445
95091SOL     OW87111   2.408   4.333   8.658
95091SOL    HW187112   2.474   4.401   8.663
95091SOL    HW287113   2.454   4.252   8.678
95092SOL     OW87114  14.699   5.747   8.364
95092SOL    HW187115  14.698   5.656   8.333
95092SOL    HW287116  14.790   5.762   8.390
95093SOL     OW87117   1.137   0.142   4.673
95093SOL    HW187118   1.214   0.104   4.632
95093SOL    HW287119   1.148   0.125   4.766
95094SOL     OW87120  11.460  11.789   0.496
95094SOL    HW187121  11.526  11.826   0.438
95094SOL    HW287122  11.404  11.863   0.519
95095SOL     OW87123   2.857   8.664   8.243
95095SOL    HW187124   2.852   8.679   8.337
95095SOL    HW287125   2.801   8.732   8.204
95096SOL     OW87126   8.840   6.497   2.384
95096SOL    HW187127   8.793   6.532   2.309
95096SOL    HW287128   8.926   6.475   2.351
95097SOL     OW87129   6.937   2.524   6.218
95097SOL    HW187130   6.934   2.596   6.155
95097SOL    HW287131   6.947   2.446   6.164
95098SOL     OW87132   6.631   9.691  12.397
95098SOL    HW187133   6.617   9.734  12.313
95098SOL    HW287134   6.587   9.607  12.389
95099SOL     OW87135   7.856  12.570  13.244
95099SOL    HW187136   7.934  12.540  13.198
95099SOL    HW287137   7.887  12.592  13.332
95100SOL     OW87138   1.373   8.000  10.253
95100SOL    HW187139   1.434   8.013  10.325
95100SOL    HW287140   1.382   8.080  10.199
95101SOL     OW87141   7.826  14.700  10.928
95101SOL    HW187142   7.870  14.746  11.000
95101SOL    HW287143   7.881  14.623  10.912
95102SOL     OW87144  10.104  10.612  14.304
95102SOL    HW187145  10.054  10.532  14.288
95102SOL    HW287146  10.190  10.581  14.330
95103SOL     OW87147   2.613   8.642  12.614
95103SOL    HW187148   2.599   8.731  12.581
95103SOL    HW287149   2.688   8.610  12.564
95104SOL     OW87150   7.807   7.876  14.797
95104SOL    HW187151   7.741   7.818  14.835
95104SOL    HW287152   7.846   7.920  14.873
95105SOL     OW87153   4.168   5.625   7.175
95105SOL    HW187154   4.081   5.584   7.177
95105SOL    HW287155   4.152   5.712   7.140
95106SOL     OW87156  13.438   0.521   6.488
95106SOL    HW187157  13.476   0.533   6.401
95106SOL    HW287158  13.513   0.496   6.543
95107SOL     OW87159   8.904   7.852   9.863
95107SOL    HW187160   8.962   7.923   9.891
95107SOL    HW287161   8.920   7.844   9.769
95108SOL     OW87162   7.213   1.542   6.692
95108SOL    HW187163   7.216   1.450   6.718
95108SOL    HW287164   7.304   1.568   6.682
95109SOL     OW87165   7.511   7.057   2.596
95109SOL    HW187166   7.443   7.050   2.530
95109SOL    HW287167   7.508   7.149   2.623
95110SOL     OW87168  13.175   8.928  10.469
95110SOL    HW187169  13.223   8.939  10.387
95110SOL    HW287170  13.240   8.943  10.538
95111SOL     OW87171  13.594  13.130   5.322
95111SOL    HW187172  13.678  13.111   5.280
95111SOL    HW287173  13.586  13.225   5.318
95112SOL     OW87174  13.877   0.005   8.489
95112SOL    HW187175  13.972  14.878   8.494
95112SOL    HW287176  13.854   0.061   8.563
95113SOL     OW87177   9.651  12.448  12.860
95113SOL    HW187178   9.665  12.532  12.817
95113SOL    HW287179   9.659  12.467  12.953
95114SOL     OW87180   5.251   0.740   4.360
95114SOL    HW187181   5.191   0.668   4.378
95114SOL    HW287182   5.195   0.810   4.326
95115SOL     OW87183   4.899   3.133   6.759
95115SOL    HW187184   4.973   3.140   6.819
95115SOL    HW287185   4.822   3.126   6.815
95116SOL     OW87186   4.981   6.573   6.496
95116SOL    HW187187   4.911   6.508   6.491
95116SOL    HW287188   4.948   6.647   6.445
95117SOL     OW87189   3.598   5.881   4.834
95117SOL    HW187190   3.635   5.962   4.871
95117SOL    HW287191   3.537   5.911   4.767
95118SOL     OW87192   1.285   8.792   1.813
95118SOL    HW187193   1.361   8.776   1.869
95118SOL    HW287194   1.313   8.862   1.754
95119SOL     OW87195  11.746  13.656   6.848
95119SOL    HW187196  11.725  13.729   6.790
95119SOL    HW287197  11.660  13.623   6.877
95120SOL     OW87198  13.563   7.374   3.437
95120SOL    HW187199  13.584   7.453   3.487
95120SOL    HW287200  13.472   7.354   3.461
95121SOL     OW87201   4.894  10.806   1.144
95121SOL    HW187202   4.970  10.848   1.103
95121SOL    HW287203   4.875  10.860   1.220
95122SOL     OW87204   4.718   9.621   9.595
95122SOL    HW187205   4.751   9.547   9.543
95122SOL    HW287206   4.711   9.587   9.684
95123SOL     OW87207   6.773   6.407   5.208
95123SOL    HW187208   6.845   6.377   5.263
95123SOL    HW287209   6.755   6.334   5.149
95124SOL     OW87210   6.286   3.337   9.199
95124SOL    HW187211   6.213   3.305   9.146
95124SOL    HW287212   6.288   3.432   9.184
95125SOL     OW87213   8.688   2.498  10.808
95125SOL    HW187214   8.660   2.416  10.767
95125SOL    HW287215   8.754   2.534  10.749
95126SOL     OW87216  11.887   1.368  10.379
95126SOL    HW187217  11.980   1.385  10.361
95126SOL    HW287218  11.842   1.390  10.298
95127SOL     OW87219   4.084  14.464   2.372
95127SOL    HW187220   4.056  14.432   2.458
95127SOL    HW287221   4.011  14.443   2.314
95128SOL     OW87222  14.670  10.499   7.767
95128SOL    HW187223  14.747  10.450   7.737
95128SOL    HW287224  14.667  10.483   7.861
95129SOL     OW87225   6.671   1.514   4.139
95129SOL    HW187226   6.612   1.473   4.203
95129SOL    HW287227   6.617   1.528   4.062
95130SOL     OW87228   9.839  10.015   4.243
95130SOL    HW187229   9.831  10.000   4.149
95130SOL    HW287230   9.933  10.024   4.258
95131SOL     OW87231   5.023   0.583   7.258
95131SOL    HW187232   5.013   0.626   7.343
95131SOL    HW287233   5.083   0.511   7.275
95132SOL     OW87234   3.914   7.823   4.304
95132SOL    HW187235   3.903   7.891   4.237
95132SOL    HW287236   3.882   7.864   4.385
95133SOL     OW87237  13.020   7.253   3.553
95133SOL    HW187238  13.035   7.313   3.627
95133SOL    HW287239  13.104   7.208   3.542
95134SOL     OW87240   7.817  10.365   2.276
95134SOL    HW187241   7.802  10.275   2.306
95134SOL    HW287242   7.757  10.376   2.202
95135SOL     OW87243  12.010   5.449   1.247
95135SOL    HW187244  11.966   5.481   1.326
95135SOL    HW287245  11.992   5.355   1.246
95136SOL     OW87246   8.571  10.865  14.204
95136SOL    HW187247   8.493  10.885  14.256
95136SOL    HW287248   8.601  10.781  14.238
95137SOL     OW87249   8.834   4.004  11.726
95137SOL    HW187250   8.747   4.043  11.719
95137SOL    HW287251   8.893   4.078  11.737
95138SOL     OW87252   7.874   7.011  11.406
95138SOL    HW187253   7.905   6.994  11.495
95138SOL    HW287254   7.778   7.012  11.414
95139SOL     OW87255   2.855  12.608   3.187
95139SOL    HW187256   2.789  12.587   3.253
95139SOL    HW287257   2.859  12.703   3.187
95140SOL     OW87258  13.105   8.861   1.332
95140SOL    HW187259  13.086   8.816   1.250
95140SOL    HW287260  13.130   8.792   1.393
95141SOL     OW87261  13.668   2.794  13.786
95141SOL    HW187262  13.574   2.790  13.803
95141SOL    HW287263  13.695   2.703  13.777
95142SOL     OW87264   4.501   6.937  13.622
95142SOL    HW187265   4.413   6.970  13.600
95142SOL    HW287266   4.513   6.861  13.565
95143SOL     OW87267   4.428  11.556   9.375
95143SOL    HW187268   4.391  11.637   9.338
95143SOL    HW287269   4.381  11.544   9.458
95144SOL     OW87270   8.267   4.185  13.167
95144SOL    HW187271   8.246   4.123  13.097
95144SOL    HW287272   8.304   4.130  13.237
95145SOL     OW87273  12.713   7.149   4.272
95145SOL    HW187274  12.770   7.109   4.338
95145SOL    HW287275  12.686   7.232   4.311
95146SOL     OW87276   2.634  13.672   4.982
95146SOL    HW187277   2.656  13.584   5.012
95146SOL    HW287278   2.539  13.678   4.994
95147SOL     OW87279  12.765  12.920   8.795
95147SOL    HW187280  12.811  12.922   8.879
95147SOL    HW287281  12.813  12.982   8.740
95148SOL     OW87282  11.458  12.355   9.381
95148SOL    HW187283  11.440  12.447   9.399
95148SOL    HW287284  11.532  12.334   9.439
95149SOL     OW87285   6.238   9.530   4.965
95149SOL    HW187286   6.300   9.566   4.901
95149SOL    HW287287   6.152   9.542   4.925
95150SOL     OW87288  12.977   6.272   0.994
95150SOL    HW187289  12.925   6.226   1.059
95150SOL    HW287290  13.048   6.212   0.972
95151SOL     OW87291   3.798   0.071   8.490
95151SOL    HW187292   3.793  14.876   8.432
95151SOL    HW287293   3.890   0.095   8.490
95152SOL     OW87294   1.701   8.260   5.392
95152SOL    HW187295   1.710   8.293   5.481
95152SOL    HW287296   1.734   8.331   5.336
95153SOL     OW87297   5.407  12.648   6.013
95153SOL    HW187298   5.421  12.741   5.996
95153SOL    HW287299   5.494  12.609   6.005
95154SOL     OW87300   1.624   0.104   1.010
95154SOL    HW187301   1.587   0.047   0.943
95154SOL    HW287302   1.555   0.168   1.028
95155SOL     OW87303   4.825  14.627  14.700
95155SOL    HW187304   4.910  14.658  14.732
95155SOL    HW287305   4.785  14.585  14.776
95156SOL     OW87306  11.859   1.391   6.303
95156SOL    HW187307  11.879   1.300   6.283
95156SOL    HW287308  11.944   1.435   6.301
95157SOL     OW87309   1.627   2.406  10.483
95157SOL    HW187310   1.610   2.398  10.577
95157SOL    HW287311   1.618   2.316  10.450
95158SOL     OW87312   2.926  10.283  13.168
95158SOL    HW187313   2.956  10.300  13.258
95158SOL    HW287314   2.996  10.317  13.112
95159SOL     OW87315   2.460   5.950  14.434
95159SOL    HW187316   2.537   5.998  14.403
95159SOL    HW287317   2.389   5.978  14.377
95160SOL     OW87318   3.454   3.748   1.767
95160SOL    HW187319   3.465   3.705   1.682
95160SOL    HW287320   3.394   3.821   1.749
95161SOL     OW87321  13.246   4.550   0.663
95161SOL    HW187322  13.317   4.614   0.660
95161SOL    HW287323  13.250   4.514   0.751
95162SOL     OW87324   9.219   3.638   5.722
95162SOL    HW187325   9.294   3.692   5.746
95162SOL    HW287326   9.227   3.628   5.627
95163SOL     OW87327  10.666   6.497   2.059
95163SOL    HW187328  10.705   6.494   2.147
95163SOL    HW287329  10.729   6.547   2.007
95164SOL     OW87330   2.589  14.315  12.323
95164SOL    HW187331   2.504  14.353  12.344
95164SOL    HW287332   2.578  14.221  12.335
95165SOL     OW87333  11.838   7.203   8.333
95165SOL    HW187334  11.905   7.136   8.344
95165SOL    HW287335  11.757   7.162   8.362
95166SOL     OW87336   1.176  12.616   3.000
95166SOL    HW187337   1.096  12.669   2.995
95166SOL    HW287338   1.156  12.549   3.065
95167SOL     OW87339  11.313   2.464   7.037
95167SOL    HW187340  11.405   2.483   7.056
95167SOL    HW287341  11.315   2.420   6.952
95168SOL     OW87342   1.832  13.764   0.220
95168SOL    HW187343   1.877  13.765   0.136
95168SOL    HW287344   1.740  13.775   0.198
95169SOL     OW87345   6.986   9.932  10.323
95169SOL    HW187346   7.052   9.960  10.387
95169SOL    HW287347   7.011   9.978  10.242
95170SOL     OW87348   3.322  14.627  11.355
95170SOL    HW187349   3.243  14.578  11.376
95170SOL    HW287350   3.294  14.690  11.288
95171SOL     OW87351   0.134   4.034   1.739
95171SOL    HW187352   0.091   4.005   1.819
95171SOL    HW287353   0.070   4.090   1.696
95172SOL     OW87354   1.367   4.998  11.915
95172SOL    HW187355   1.282   5.042  11.924
95172SOL    HW287356   1.430   5.064  11.944
95173SOL     OW87357  12.518   4.647  11.775
95173SOL    HW187358  12.473   4.710  11.719
95173SOL    HW287359  12.550   4.699  11.849
95174SOL     OW87360   0.193   7.994   6.421
95174SOL    HW187361   0.275   7.970   6.465
95174SOL    HW287362   0.152   8.058   6.480
95175SOL     OW87363   7.505   4.000   8.398
95175SOL    HW187364   7.463   3.966   8.319
95175SOL    HW287365   7.592   3.959   8.398
95176SOL     OW87366  12.784   6.346   2.815
95176SOL    HW187367  12.750   6.349   2.726
95176SOL    HW287368  12.813   6.436   2.833
95177SOL     OW87369   3.918   6.499   0.923
95177SOL    HW187370   3.865   6.577   0.943
95177SOL    HW287371   3.854   6.427   0.923
95178SOL     OW87372  10.941   3.834   1.552
95178SOL    HW187373  10.861   3.791   1.582
95178SOL    HW287374  11.004   3.818   1.622
95179SOL     OW87375   1.270   3.685   3.128
95179SOL    HW187376   1.238   3.684   3.218
95179SOL    HW287377   1.198   3.723   3.077
95180SOL     OW87378   9.084   0.062  12.086
95180SOL    HW187379   9.150   0.086  12.021
95180SOL    HW287380   9.046  14.863  12.052
95181SOL     OW87381   4.813   8.667   3.373
95181SOL    HW187382   4.739   8.703   3.324
95181SOL    HW287383   4.787   8.673   3.464
95182SOL     OW87384   9.657   4.535   4.262
95182SOL    HW187385   9.665   4.496   4.175
95182SOL    HW287386   9.564   4.528   4.283
95183SOL     OW87387   8.645   6.728   0.942
95183SOL    HW187388   8.581   6.796   0.964
95183SOL    HW287389   8.607   6.682   0.867
95184SOL     OW87390   3.130  13.916   4.058
95184SOL    HW187391   3.204  13.867   4.023
95184SOL    HW287392   3.056  13.890   4.002
95185SOL     OW87393   4.688  13.379  10.869
95185SOL    HW187394   4.698  13.297  10.917
95185SOL    HW287395   4.774  13.393  10.828
95186SOL     OW87396  13.692   1.188   6.696
95186SOL    HW187397  13.749   1.251   6.740
95186SOL    HW287398  13.606   1.231   6.693
95187SOL     OW87399   5.035   3.475   2.239
95187SOL    HW187400   5.125   3.461   2.210
95187SOL    HW287401   5.002   3.544   2.182
95188SOL     OW87402   4.491   4.614   4.238
95188SOL    HW187403   4.454   4.619   4.150
95188SOL    HW287404   4.481   4.703   4.273
95189SOL     OW87405   1.902   1.013  13.835
95189SOL    HW187406   1.895   0.939  13.775
95189SOL    HW287407   1.958   0.982  13.906
95190SOL     OW87408   2.026  11.969   3.309
95190SOL    HW187409   2.041  11.917   3.388
95190SOL    HW287410   2.093  12.037   3.312
95191SOL     OW87411   1.776   6.500  12.763
95191SOL    HW187412   1.693   6.469  12.799
95191SOL    HW287413   1.753   6.575  12.708
95192SOL     OW87414   4.863  10.509   9.871
95192SOL    HW187415   4.775  10.544   9.855
95192SOL    HW287416   4.858  10.418   9.841
95193SOL     OW87417   5.465   5.812   6.731
95193SOL    HW187418   5.408   5.889   6.739
95193SOL    HW287419   5.549   5.841   6.766
95194SOL     OW87420   5.264   5.231   8.449
95194SOL    HW187421   5.218   5.159   8.405
95194SOL    HW287422   5.287   5.291   8.378
95195SOL     OW87423   2.706  13.928   9.542
95195SOL    HW187424   2.624  13.923   9.591
95195SOL    HW287425   2.743  13.839   9.547
95196SOL     OW87426   2.237  14.716  14.619
95196SOL    HW187427   2.257  14.752  14.705
95196SOL    HW287428   2.236  14.792  14.561
95197SOL     OW87429   8.496   6.750  11.325
95197SOL    HW187430   8.557   6.823  11.327
95197SOL    HW287431   8.498   6.715  11.414
95198SOL     OW87432  11.961   1.295  14.776
95198SOL    HW187433  11.973   1.236  14.702
95198SOL    HW287434  12.049   1.324  14.799
95199SOL     OW87435  10.183   1.404  14.483
95199SOL    HW187436  10.154   1.316  14.509
95199SOL    HW287437  10.276   1.406  14.507
95200SOL     OW87438   1.967  12.983   0.301
95200SOL    HW187439   1.991  12.891   0.296
95200SOL    HW287440   1.988  13.018   0.214
95201SOL     OW87441  13.220  14.370   9.250
95201SOL    HW187442  13.138  14.321   9.260
95201SOL    HW287443  13.284  14.304   9.223
95202SOL     OW87444   8.802   7.428   1.261
95202SOL    HW187445   8.732   7.368   1.234
95202SOL    HW287446   8.834   7.466   1.179
95203SOL     OW87447   6.851   0.875   7.963
95203SOL    HW187448   6.882   0.965   7.959
95203SOL    HW287449   6.761   0.878   7.930
95204SOL     OW87450  14.496  14.282   8.425
95204SOL    HW187451  14.428  14.323   8.479
95204SOL    HW287452  14.547  14.356   8.391
95205SOL     OW87453   9.556   6.232   2.119
95205SOL    HW187454   9.642   6.192   2.115
95205SOL    HW287455   9.495   6.161   2.097
95206SOL     OW87456   9.771   8.600  12.194
95206SOL    HW187457   9.855   8.553  12.196
95206SOL    HW287458   9.755   8.624  12.285
95207SOL     OW87459   9.730  13.001   9.402
95207SOL    HW187460   9.793  12.929   9.391
95207SOL    HW287461   9.750  13.037   9.488
95208SOL     OW87462   3.261   6.921   0.094
95208SOL    HW187463   3.336   6.968   0.130
95208SOL    HW287464   3.288   6.898   0.005
95209SOL     OW87465   4.749   2.883   2.058
95209SOL    HW187466   4.837   2.919   2.069
95209SOL    HW287467   4.719   2.863   2.147
95210SOL     OW87468  11.765   7.413   1.103
95210SOL    HW187469  11.756   7.448   1.014
95210SOL    HW287470  11.850   7.446   1.133
95211SOL     OW87471  13.797   0.631   5.596
95211SOL    HW187472  13.817   0.725   5.594
95211SOL    HW287473  13.882   0.589   5.603
95212SOL     OW87474   0.531   3.791  13.646
95212SOL    HW187475   0.465   3.857  13.624
95212SOL    HW287476   0.576   3.774  13.563
95213SOL     OW87477   4.758  10.183   7.951
95213SOL    HW187478   4.792  10.093   7.952
95213SOL    HW287479   4.709  10.191   8.033
95214SOL     OW87480   2.900  10.680  10.763
95214SOL    HW187481   2.986  10.709  10.732
95214SOL    HW287482   2.868  10.621  10.695
95215SOL     OW87483   6.761  12.586  14.716
95215SOL    HW187484   6.720  12.501  14.698
95215SOL    HW287485   6.755  12.596  14.811
95216SOL     OW87486  10.074  14.453   1.696
95216SOL    HW187487  10.099  14.401   1.772
95216SOL    HW287488  10.120  14.536   1.706
95217SOL     OW87489   8.571   6.364   6.254
95217SOL    HW187490   8.632   6.435   6.233
95217SOL    HW287491   8.627   6.290   6.277
95218SOL     OW87492   8.467  12.083  13.524
95218SOL    HW187493   8.389  12.070  13.578
95218SOL    HW287494   8.505  12.165  13.557
95219SOL     OW87495  11.758   2.548  13.946
95219SOL    HW187496  11.838   2.578  13.989
95219SOL    HW287497  11.718   2.487  14.008
95220SOL     OW87498  14.069   4.568   5.750
95220SOL    HW187499  14.073   4.523   5.835
95220SOL    HW287500  14.161   4.576   5.723
95221SOL     OW87501  14.547   3.912  10.599
95221SOL    HW187502  14.606   3.985  10.581
95221SOL    HW287503  14.464   3.954  10.624
95222SOL     OW87504   1.922  13.472  10.943
95222SOL    HW187505   1.909  13.421  11.023
95222SOL    HW287506   1.839  13.517  10.929
95223SOL     OW87507  13.154   3.359   3.130
95223SOL    HW187508  13.072   3.404   3.107
95223SOL    HW287509  13.167   3.379   3.222
95224SOL     OW87510   4.347   4.693   7.921
95224SOL    HW187511   4.293   4.771   7.929
95224SOL    HW287512   4.288   4.627   7.883
95225SOL     OW87513   8.493   8.343  12.328
95225SOL    HW187514   8.515   8.435  12.339
95225SOL    HW287515   8.422   8.328  12.391
95226SOL     OW87516  10.303  12.880  11.520
95226SOL    HW187517  10.256  12.918  11.446
95226SOL    HW287518  10.234  12.852  11.580
95227SOL     OW87519   4.083   5.770  14.408
95227SOL    HW187520   4.002   5.795  14.362
95227SOL    HW287521   4.149   5.764  14.339
95228SOL     OW87522   7.500   2.255   2.000
95228SOL    HW187523   7.414   2.291   1.975
95228SOL    HW287524   7.558   2.280   1.928
95229SOL     OW87525  11.058   3.625   4.896
95229SOL    HW187526  11.099   3.614   4.982
95229SOL    HW287527  11.118   3.681   4.847
95230SOL     OW87528   8.017   4.777   2.423
95230SOL    HW187529   8.064   4.695   2.440
95230SOL    HW287530   7.924   4.752   2.429
95231SOL     OW87531   9.992   1.937   5.346
95231SOL    HW187532  10.079   1.945   5.306
95231SOL    HW287533   9.966   1.846   5.331
95232SOL     OW87534   7.729   2.882   4.300
95232SOL    HW187535   7.800   2.946   4.307
95232SOL    HW287536   7.693   2.896   4.213
95233SOL     OW87537   9.533   4.598  10.165
95233SOL    HW187538   9.472   4.596  10.239
95233SOL    HW287539   9.493   4.656  10.102
95234SOL     OW87540   9.426   2.432   2.539
95234SOL    HW187541   9.419   2.404   2.630
95234SOL    HW287542   9.452   2.353   2.491
95235SOL     OW87543   8.465   4.128   2.305
95235SOL    HW187544   8.547   4.175   2.321
95235SOL    HW287545   8.421   4.129   2.390
95236SOL     OW87546   9.468   6.306  13.713
95236SOL    HW187547   9.446   6.394  13.685
95236SOL    HW287548   9.435   6.300  13.803
95237SOL     OW87549   1.930   1.854   1.376
95237SOL    HW187550   1.849   1.804   1.368
95237SOL    HW287551   1.993   1.792   1.413
95238SOL     OW87552   5.572  10.393  11.537
95238SOL    HW187553   5.558  10.426  11.448
95238SOL    HW287554   5.529  10.307  11.536
95239SOL     OW87555   8.727   6.012   4.561
95239SOL    HW187556   8.712   5.938   4.619
95239SOL    HW287557   8.655   6.009   4.498
95240SOL     OW87558   9.005   9.555   1.822
95240SOL    HW187559   9.028   9.641   1.787
95240SOL    HW287560   8.931   9.526   1.769
95241SOL     OW87561   4.055   7.047  12.388
95241SOL    HW187562   4.051   6.988  12.313
95241SOL    HW287563   4.038   6.991  12.464
95242SOL     OW87564   1.723   9.743   1.431
95242SOL    HW187565   1.690   9.776   1.348
95242SOL    HW287566   1.659   9.677   1.458
95243SOL     OW87567   0.419  11.505   1.043
95243SOL    HW187568   0.348  11.472   1.099
95243SOL    HW287569   0.408  11.600   1.043
95244SOL     OW87570   7.099  10.290  14.251
95244SOL    HW187571   7.145  10.214  14.216
95244SOL    HW287572   7.108  10.358  14.184
95245SOL     OW87573   0.651   0.182   5.395
95245SOL    HW187574   0.706   0.155   5.322
95245SOL    HW287575   0.643   0.277   5.385
95246SOL     OW87576   5.870   8.723  12.055
95246SOL    HW187577   5.788   8.744  12.010
95246SOL    HW287578   5.935   8.779  12.013
95247SOL     OW87579   0.399   7.300   3.763
95247SOL    HW187580   0.471   7.357   3.733
95247SOL    HW287581   0.410   7.219   3.713
95248SOL     OW87582  12.778   8.296  14.060
95248SOL    HW187583  12.706   8.238  14.034
95248SOL    HW287584  12.838   8.238  14.107
95249SOL     OW87585   5.664   5.430   6.066
95249SOL    HW187586   5.578   5.389   6.059
95249SOL    HW287587   5.709   5.407   5.985
95250SOL     OW87588   4.891   6.546   0.933
95250SOL    HW187589   4.908   6.456   0.959
95250SOL    HW287590   4.907   6.598   1.012
95251SOL     OW87591   3.320   8.362   5.506
95251SOL    HW187592   3.262   8.347   5.581
95251SOL    HW287593   3.275   8.429   5.454
95252SOL     OW87594   0.159  11.234   8.397
95252SOL    HW187595   0.117  11.290   8.462
95252SOL    HW287596   0.187  11.293   8.327
95253SOL     OW87597   7.333  14.709  14.090
95253SOL    HW187598   7.309  14.692  13.999
95253SOL    HW287599   7.257  14.681  14.141
95254SOL     OW87600   9.673   5.113  12.620
95254SOL    HW187601   9.741   5.063  12.574
95254SOL    HW287602   9.675   5.078  12.709
95255SOL     OW87603   7.683   4.902   6.721
95255SOL    HW187604   7.652   4.870   6.636
95255SOL    HW287605   7.728   4.984   6.700
95256SOL     OW87606   2.029   0.929  10.933
95256SOL    HW187607   1.996   0.839  10.940
95256SOL    HW287608   2.124   0.921  10.941
95257SOL     OW87609   5.311   6.109   2.581
95257SOL    HW187610   5.233   6.151   2.545
95257SOL    HW287611   5.370   6.101   2.506
95258SOL     OW87612   7.243  12.610  10.582
95258SOL    HW187613   7.211  12.521  10.573
95258SOL    HW287614   7.200  12.644  10.661
95259SOL     OW87615  12.018   9.059   2.055
95259SOL    HW187616  11.984   9.094   1.973
95259SOL    HW287617  12.085   8.996   2.028
95260SOL     OW87618   8.387  11.145  11.459
95260SOL    HW187619   8.455  11.088  11.424
95260SOL    HW287620   8.413  11.160  11.550
95261SOL     OW87621  11.693   5.503   2.302
95261SOL    HW187622  11.703   5.562   2.377
95261SOL    HW287623  11.662   5.559   2.231
95262SOL     OW87624   8.218   9.802   6.094
95262SOL    HW187625   8.302   9.818   6.137
95262SOL    HW287626   8.240   9.799   6.001
95263SOL     OW87627   0.332  10.647   2.861
95263SOL    HW187628   0.327  10.712   2.791
95263SOL    HW287629   0.358  10.566   2.816
95264SOL     OW87630  11.630  11.129   5.077
95264SOL    HW187631  11.567  11.097   5.141
95264SOL    HW287632  11.709  11.076   5.091
95265SOL     OW87633   0.894   1.269   4.405
95265SOL    HW187634   0.976   1.224   4.384
95265SOL    HW287635   0.921   1.355   4.438
95266SOL     OW87636   5.371  10.660   3.353
95266SOL    HW187637   5.388  10.575   3.314
95266SOL    HW287638   5.403  10.652   3.443
95267SOL     OW87639  11.010   7.151   3.507
95267SOL    HW187640  11.039   7.240   3.524
95267SOL    HW287641  11.057   7.124   3.429
95268SOL     OW87642   5.136   5.185   7.886
95268SOL    HW187643   5.097   5.122   7.946
95268SOL    HW287644   5.214   5.216   7.931
95269SOL     OW87645   9.273  13.737   8.533
95269SOL    HW187646   9.329  13.670   8.572
95269SOL    HW287647   9.274  13.717   8.439
95270SOL     OW87648  14.325   5.513   7.058
95270SOL    HW187649  14.400   5.548   7.106
95270SOL    HW287650  14.363   5.447   7.001
95271SOL     OW87651  11.477  11.269   0.113
95271SOL    HW187652  11.559  11.272   0.062
95271SOL    HW287653  11.417  11.327   0.066
95272SOL     OW87654  14.338  13.089   6.003
95272SOL    HW187655  14.271  13.109   5.938
95272SOL    HW287656  14.300  13.019   6.056
95273SOL     OW87657   1.614   2.242   4.309
95273SOL    HW187658   1.569   2.261   4.227
95273SOL    HW287659   1.705   2.229   4.285
95274SOL     OW87660  13.902   8.420   2.659
95274SOL    HW187661  13.988   8.450   2.686
95274SOL    HW287662  13.867   8.376   2.737
95275SOL     OW87663  14.456   3.577  10.747
95275SOL    HW187664  14.532   3.593  10.691
95275SOL    HW287665  14.383   3.565  10.686
95276SOL     OW87666   2.960   9.664  13.784
95276SOL    HW187667   2.874   9.647  13.745
95276SOL    HW287668   3.013   9.697  13.712
95277SOL     OW87669   7.871   6.246  11.461
95277SOL    HW187670   7.829   6.233  11.376
95277SOL    HW287671   7.944   6.305  11.442
95278SOL     OW87672   9.492  12.933  10.272
95278SOL    HW187673   9.537  12.863  10.319
95278SOL    HW287674   9.441  12.977  10.340
95279SOL     OW87675   6.834   4.235   7.853
95279SOL    HW187676   6.887   4.294   7.908
95279SOL    HW287677   6.876   4.239   7.767
95280SOL     OW87678   0.503   0.651   0.443
95280SOL    HW187679   0.456   0.571   0.468
95280SOL    HW287680   0.496   0.654   0.348
95281SOL     OW87681   8.066   6.882   5.480
95281SOL    HW187682   8.112   6.871   5.563
95281SOL    HW287683   7.978   6.910   5.505
95282SOL     OW87684  10.835   4.633   9.199
95282SOL    HW187685  10.925   4.602   9.186
95282SOL    HW287686  10.844   4.717   9.245
95283SOL     OW87687   1.707   5.936   0.549
95283SOL    HW187688   1.765   6.012   0.562
95283SOL    HW287689   1.698   5.898   0.636
95284SOL     OW87690   2.238  14.161   6.146
95284SOL    HW187691   2.184  14.123   6.215
95284SOL    HW287692   2.230  14.099   6.073
95285SOL     OW87693   6.604   7.100   6.457
95285SOL    HW187694   6.551   7.144   6.524
95285SOL    HW287695   6.691   7.137   6.467
95286SOL     OW87696  13.802   4.353   3.462
95286SOL    HW187697  13.789   4.346   3.368
95286SOL    HW287698  13.728   4.405   3.493
95287SOL     OW87699   0.022   0.798  11.845
95287SOL    HW187700  14.857   0.844  11.915
95287SOL    HW287701   0.115   0.812  11.865
95288SOL     OW87702   4.616   3.627   6.628
95288SOL    HW187703   4.562   3.681   6.571
95288SOL    HW287704   4.697   3.612   6.578
95289SOL     OW87705   8.638   7.107   3.539
95289SOL    HW187706   8.641   7.105   3.444
95289SOL    HW287707   8.629   7.015   3.564
95290SOL     OW87708  14.084  12.779  14.503
95290SOL    HW187709  14.151  12.754  14.567
95290SOL    HW287710  14.049  12.696  14.471
95291SOL     OW87711  14.099   8.048  13.173
95291SOL    HW187712  14.121   7.959  13.145
95291SOL    HW287713  14.091   8.097  13.091
95292SOL     OW87714  11.644  13.393   5.409
95292SOL    HW187715  11.659  13.307   5.370
95292SOL    HW287716  11.640  13.377   5.503
95293SOL     OW87717   0.913   0.408  10.390
95293SOL    HW187718   0.842   0.407  10.325
95293SOL    HW287719   0.902   0.490  10.437
95294SOL     OW87720   1.726  11.448   7.532
95294SOL    HW187721   1.808  11.410   7.563
95294SOL    HW287722   1.714  11.412   7.445
95295SOL     OW87723   7.312   6.817  14.715
95295SOL    HW187724   7.234   6.809  14.659
95295SOL    HW287725   7.367   6.880  14.669
95296SOL     OW87726   1.750  13.434  14.607
95296SOL    HW187727   1.701  13.516  14.611
95296SOL    HW287728   1.684  13.367  14.594
95297SOL     OW87729   9.272   0.357   5.762
95297SOL    HW187730   9.353   0.400   5.791
95297SOL    HW287731   9.245   0.304   5.838
95298SOL     OW87732  13.671   8.041  10.913
95298SOL    HW187733  13.721   7.963  10.936
95298SOL    HW287734  13.729   8.093  10.857
95299SOL     OW87735   6.115   0.261   2.855
95299SOL    HW187736   6.052   0.190   2.842
95299SOL    HW287737   6.069   0.340   2.827
95300SOL     OW87738   1.576  11.988   4.745
95300SOL    HW187739   1.590  11.937   4.825
95300SOL    HW287740   1.482  12.004   4.742
95301SOL     OW87741  11.252   0.057   2.905
95301SOL    HW187742  11.322  14.874   2.904
95301SOL    HW287743  11.224   0.063   2.814
95302SOL     OW87744  10.290  12.741   5.686
95302SOL    HW187745  10.252  12.787   5.611
95302SOL    HW287746  10.372  12.787   5.704
95303SOL     OW87747   5.387   0.614   2.818
95303SOL    HW187748   5.345   0.581   2.897
95303SOL    HW287749   5.343   0.698   2.801
95304SOL     OW87750   5.872  10.224   6.824
95304SOL    HW187751   5.934  10.231   6.896
95304SOL    HW287752   5.844  10.314   6.807
95305SOL     OW87753  10.279  14.259   1.216
95305SOL    HW187754  10.248  14.169   1.228
95305SOL    HW287755  10.220  14.296   1.151
95306SOL     OW87756   8.013  11.380   7.136
95306SOL    HW187757   7.982  11.395   7.226
95306SOL    HW287758   8.108  11.367   7.145
95307SOL     OW87759   3.722   0.116   4.454
95307SOL    HW187760   3.794   0.170   4.419
95307SOL    HW287761   3.682   0.077   4.376
95308SOL     OW87762   3.066   9.041   3.150
95308SOL    HW187763   3.003   9.049   3.222
95308SOL    HW287764   3.017   9.000   3.079
95309SOL     OW87765   1.396   4.362   8.379
95309SOL    HW187766   1.323   4.391   8.326
95309SOL    HW287767   1.390   4.266   8.378
95310SOL     OW87768   3.036  10.501   2.702
95310SOL    HW187769   2.953  10.497   2.655
95310SOL    HW287770   3.099  10.459   2.644
95311SOL     OW87771   7.616   5.178  14.499
95311SOL    HW187772   7.694   5.230  14.481
95311SOL    HW287773   7.635   5.132  14.581
95312SOL     OW87774  14.775   9.206  14.720
95312SOL    HW187775  14.703   9.220  14.782
95312SOL    HW287776  14.753   9.261  14.645
95313SOL     OW87777  14.423  13.433   7.033
95313SOL    HW187778  14.503  13.418   6.984
95313SOL    HW287779  14.355  13.440   6.966
95314SOL     OW87780   4.536   9.581   8.724
95314SOL    HW187781   4.515   9.573   8.817
95314SOL    HW287782   4.475   9.522   8.680
95315SOL     OW87783   2.512   9.977   8.258
95315SOL    HW187784   2.485   9.913   8.192
95315SOL    HW287785   2.456   9.959   8.333
95316SOL     OW87786   9.113   5.087  12.427
95316SOL    HW187787   9.034   5.118  12.471
95316SOL    HW287788   9.179   5.153  12.446
95317SOL     OW87789  12.404   3.438  12.801
95317SOL    HW187790  12.438   3.463  12.715
95317SOL    HW287791  12.317   3.476  12.805
95318SOL     OW87792   8.362   4.696  11.572
95318SOL    HW187793   8.453   4.664  11.567
95318SOL    HW287794   8.309   4.619  11.552
95319SOL     OW87795   4.094  12.938   5.406
95319SOL    HW187796   4.067  12.882   5.333
95319SOL    HW287797   4.157  12.998   5.368
95320SOL     OW87798   7.529   2.532  14.238
95320SOL    HW187799   7.509   2.488  14.156
95320SOL    HW287800   7.484   2.616  14.233
95321SOL     OW87801  14.139  10.891   8.927
95321SOL    HW187802  14.170  10.876   9.016
95321SOL    HW287803  14.189  10.967   8.896
95322SOL     OW87804   5.923   1.129  11.394
95322SOL    HW187805   5.882   1.044  11.409
95322SOL    HW287806   6.016   1.110  11.383
95323SOL     OW87807   4.639  14.315  10.959
95323SOL    HW187808   4.651  14.258  11.034
95323SOL    HW287809   4.546  14.309  10.939
95324SOL     OW87810  13.144   9.577  13.310
95324SOL    HW187811  13.081   9.649  13.304
95324SOL    HW287812  13.096   9.499  13.283
95325SOL     OW87813  12.155   5.874   0.341
95325SOL    HW187814  12.172   5.939   0.273
95325SOL    HW287815  12.191   5.913   0.421
95326SOL     OW87816   3.675   2.276  11.969
95326SOL    HW187817   3.709   2.342  11.909
95326SOL    HW287818   3.617   2.324  12.028
95327SOL     OW87819   2.389   8.073   3.281
95327SOL    HW187820   2.410   7.987   3.244
95327SOL    HW287821   2.350   8.122   3.208
95328SOL     OW87822   8.411   7.821  10.505
95328SOL    HW187823   8.346   7.795  10.440
95328SOL    HW287824   8.361   7.867  10.573
95329SOL     OW87825   6.324  13.246   5.375
95329SOL    HW187826   6.269  13.310   5.331
95329SOL    HW287827   6.341  13.285   5.461
95330SOL     OW87828   1.078   1.546  11.031
95330SOL    HW187829   1.157   1.599  11.043
95330SOL    HW287830   1.061   1.551  10.936
95331SOL     OW87831  10.757   3.104   9.095
95331SOL    HW187832  10.708   3.046   9.152
95331SOL    HW287833  10.767   3.055   9.013
95332SOL     OW87834   4.872   4.463  10.308
95332SOL    HW187835   4.894   4.523  10.237
95332SOL    HW287836   4.801   4.506  10.356
95333SOL     OW87837   7.004   6.452   2.795
95333SOL    HW187838   6.965   6.481   2.712
95333SOL    HW287839   6.943   6.481   2.862
95334SOL     OW87840   4.254   6.318   6.572
95334SOL    HW187841   4.220   6.380   6.508
95334SOL    HW287842   4.181   6.258   6.587
95335SOL     OW87843   4.920  10.819   7.767
95335SOL    HW187844   4.828  10.798   7.751
95335SOL    HW287845   4.960  10.820   7.680
95336SOL     OW87846   6.139   5.830   8.247
95336SOL    HW187847   6.128   5.847   8.341
95336SOL    HW287848   6.230   5.853   8.229
95337SOL     OW87849   9.717  14.066   2.735
95337SOL    HW187850   9.745  14.144   2.784
95337SOL    HW287851   9.776  13.997   2.765
95338SOL     OW87852  13.208  11.200  10.097
95338SOL    HW187853  13.230  11.131  10.034
95338SOL    HW287854  13.268  11.185  10.170
95339SOL     OW87855  14.795   9.664   6.124
95339SOL    HW187856   0.002   9.632   6.143
95339SOL    HW287857  14.799   9.757   6.145
95340SOL     OW87858   7.202   3.402  12.198
95340SOL    HW187859   7.248   3.391  12.114
95340SOL    HW287860   7.260   3.459  12.249
95341SOL     OW87861  11.323   7.197  11.961
95341SOL    HW187862  11.318   7.287  11.995
95341SOL    HW287863  11.242   7.156  11.989
95342SOL     OW87864   2.937   1.462   2.423
95342SOL    HW187865   2.968   1.398   2.487
95342SOL    HW287866   3.017   1.498   2.385
95343SOL     OW87867   5.662   2.066  10.240
95343SOL    HW187868   5.662   2.143  10.297
95343SOL    HW287869   5.737   2.015  10.269
95344SOL     OW87870  11.199  14.845   0.822
95344SOL    HW187871  11.147  14.782   0.771
95344SOL    HW287872  11.162   0.049   0.798
95345SOL     OW87873   5.272   5.647  11.218
95345SOL    HW187874   5.365   5.668  11.214
95345SOL    HW287875   5.232   5.697  11.147
95346SOL     OW87876   0.225  12.655   5.085
95346SOL    HW187877   0.301  12.710   5.107
95346SOL    HW287878   0.255  12.599   5.014
95347SOL     OW87879  14.219   8.905   4.831
95347SOL    HW187880  14.182   8.824   4.795
95347SOL    HW287881  14.216   8.892   4.925
95348SOL     OW87882   3.691   8.168   7.441
95348SOL    HW187883   3.737   8.134   7.518
95348SOL    HW287884   3.659   8.091   7.396
95349SOL     OW87885   7.782   0.650   2.990
95349SOL    HW187886   7.779   0.638   2.895
95349SOL    HW287887   7.756   0.565   3.026
95350SOL     OW87888   3.852  14.500   0.872
95350SOL    HW187889   3.758  14.517   0.869
95350SOL    HW287890   3.888  14.574   0.921
95351SOL     OW87891   3.623  13.567   2.628
95351SOL    HW187892   3.534  13.590   2.654
95351SOL    HW287893   3.619  13.561   2.532
95352SOL     OW87894  14.204  12.090   2.225
95352SOL    HW187895  14.255  12.101   2.145
95352SOL    HW287896  14.153  12.170   2.233
95353SOL     OW87897  12.740   0.620   1.231
95353SOL    HW187898  12.777   0.557   1.293
95353SOL    HW287899  12.808   0.632   1.165
95354SOL     OW87900  11.057   8.901   9.657
95354SOL    HW187901  11.128   8.892   9.721
95354SOL    HW287902  10.983   8.855   9.697
95355SOL     OW87903   5.325   4.900   4.030
95355SOL    HW187904   5.358   4.932   3.946
95355SOL    HW287905   5.233   4.926   4.031
95356SOL     OW87906   7.973   6.198  14.731
95356SOL    HW187907   7.944   6.246  14.809
95356SOL    HW287908   7.892   6.166  14.691
95357SOL     OW87909   5.650  11.851   2.577
95357SOL    HW187910   5.631  11.809   2.493
95357SOL    HW287911   5.632  11.784   2.643
95358SOL     OW87912   4.111   4.720   9.763
95358SOL    HW187913   4.031   4.749   9.806
95358SOL    HW287914   4.084   4.689   9.677
95359SOL     OW87915   4.693   3.287   6.179
95359SOL    HW187916   4.611   3.332   6.197
95359SOL    HW287917   4.758   3.334   6.230
95360SOL     OW87918  11.601   8.583   2.381
95360SOL    HW187919  11.528   8.549   2.330
95360SOL    HW287920  11.662   8.510   2.389
95361SOL     OW87921   1.792   2.493   0.566
95361SOL    HW187922   1.814   2.553   0.495
95361SOL    HW287923   1.787   2.548   0.644
95362SOL     OW87924   0.407  14.249  11.233
95362SOL    HW187925   0.366  14.287  11.311
95362SOL    HW287926   0.458  14.320  11.195
95363SOL     OW87927  14.653  13.185   6.852
95363SOL    HW187928  14.609  13.104   6.830
95363SOL    HW287929  14.744  13.172   6.824
95364SOL     OW87930  12.842   4.189  12.512
95364SOL    HW187931  12.822   4.096  12.499
95364SOL    HW287932  12.935   4.196  12.489
95365SOL     OW87933   9.176  13.136   8.587
95365SOL    HW187934   9.117  13.124   8.661
95365SOL    HW287935   9.141  13.212   8.540
95366SOL     OW87936  10.258   3.276   2.021
95366SOL    HW187937  10.294   3.190   1.998
95366SOL    HW287938  10.293   3.293   2.109
95367SOL     OW87939   3.059  10.304   9.127
95367SOL    HW187940   3.126  10.297   9.059
95367SOL    HW287941   3.103  10.278   9.208
95368SOL     OW87942  14.107   2.622   1.472
95368SOL    HW187943  14.057   2.588   1.398
95368SOL    HW287944  14.053   2.599   1.549
95369SOL     OW87945   4.236   8.849   0.525
95369SOL    HW187946   4.156   8.865   0.574
95369SOL    HW287947   4.211   8.859   0.434
95370SOL     OW87948  10.901   4.920   6.774
95370SOL    HW187949  10.819   4.908   6.725
95370SOL    HW287950  10.927   5.010   6.756
95371SOL     OW87951   9.337   7.603  11.840
95371SOL    HW187952   9.411   7.660  11.819
95371SOL    HW287953   9.260   7.657  11.823
95372SOL     OW87954   4.255  13.024  11.266
95372SOL    HW187955   4.316  12.952  11.285
95372SOL    HW287956   4.229  13.056  11.352
95373SOL     OW87957   8.109   9.342  12.512
95373SOL    HW187958   8.132   9.316  12.602
95373SOL    HW287959   8.193   9.354  12.468
95374SOL     OW87960  10.177  10.593   4.257
95374SOL    HW187961  10.109  10.657   4.279
95374SOL    HW287962  10.128  10.514   4.232
95375SOL     OW87963   2.302   3.063  14.786
95375SOL    HW187964   2.274   3.150  14.757
95375SOL    HW287965   2.357   3.080  14.863
95376SOL     OW87966   0.275   2.087   2.084
95376SOL    HW187967   0.363   2.048   2.089
95376SOL    HW287968   0.216   2.018   2.113
95377SOL     OW87969  14.756  13.711  11.408
95377SOL    HW187970  14.675  13.761  11.424
95377SOL    HW287971  14.760  13.648  11.479
95378SOL     OW87972   3.163   5.909   5.030
95378SOL    HW187973   3.195   5.915   4.940
95378SOL    HW287974   3.075   5.947   5.027
95379SOL     OW87975   7.514   6.275   4.194
95379SOL    HW187976   7.527   6.368   4.175
95379SOL    HW287977   7.470   6.274   4.280
95380SOL     OW87978   2.227   2.758   0.554
95380SOL    HW187979   2.155   2.776   0.614
95380SOL    HW287980   2.187   2.708   0.483
95381SOL     OW87981  13.238   3.754   3.194
95381SOL    HW187982  13.299   3.825   3.213
95381SOL    HW287983  13.236   3.749   3.098
95382SOL     OW87984   4.552   2.801   5.423
95382SOL    HW187985   4.618   2.774   5.487
95382SOL    HW287986   4.482   2.736   5.432
95383SOL     OW87987   7.514  13.910   8.118
95383SOL    HW187988   7.496  13.973   8.188
95383SOL    HW287989   7.429  13.892   8.078
95384SOL     OW87990   2.002  11.194  10.983
95384SOL    HW187991   1.944  11.187  10.907
95384SOL    HW287992   1.948  11.166  11.056
95385SOL     OW87993  13.124   1.933  11.588
95385SOL    HW187994  13.076   2.014  11.605
95385SOL    HW287995  13.183   1.955  11.516
95386SOL     OW87996   5.392  12.545  12.435
95386SOL    HW187997   5.479  12.571  12.467
95386SOL    HW287998   5.410  12.493  12.357
95387SOL     OW87999   2.576  13.973   3.884
95387SOL    HW188000   2.641  14.006   3.946
95387SOL    HW288001   2.618  13.978   3.799
95388SOL     OW88002   0.787   2.168   8.533
95388SOL    HW188003   0.693   2.155   8.543
95388SOL    HW288004   0.826   2.085   8.560
95389SOL     OW88005   1.068   1.390  12.144
95389SOL    HW188006   0.975   1.383  12.124
95389SOL    HW288007   1.098   1.466  12.096
95390SOL     OW88008   1.608   8.535   0.868
95390SOL    HW188009   1.613   8.442   0.847
95390SOL    HW288010   1.514   8.554   0.870
95391SOL     OW88011   8.882  10.546   9.066
95391SOL    HW188012   8.812  10.580   9.011
95391SOL    HW288013   8.959  10.545   9.009
95392SOL     OW88014   8.739   2.413  13.108
95392SOL    HW188015   8.723   2.466  13.186
95392SOL    HW288016   8.712   2.468  13.035
95393SOL     OW88017   7.649  12.388   3.001
95393SOL    HW188018   7.724  12.441   2.975
95393SOL    HW288019   7.642  12.321   2.934
95394SOL     OW88020   7.453   7.377  12.646
95394SOL    HW188021   7.446   7.353  12.738
95394SOL    HW288022   7.545   7.362  12.624
95395SOL     OW88023  11.520  14.721   7.488
95395SOL    HW188024  11.566  14.642   7.460
95395SOL    HW288025  11.583  14.791   7.477
95396SOL     OW88026   3.399  11.665   4.029
95396SOL    HW188027   3.348  11.585   4.018
95396SOL    HW288028   3.488  11.635   4.048
95397SOL     OW88029   8.003   2.182   1.479
95397SOL    HW188030   7.910   2.199   1.465
95397SOL    HW288031   8.006   2.134   1.562
95398SOL     OW88032  10.133   5.090  11.660
95398SOL    HW188033  10.187   5.124  11.589
95398SOL    HW288034  10.175   5.007  11.684
95399SOL     OW88035   6.593   5.467  12.678
95399SOL    HW188036   6.589   5.432  12.589
95399SOL    HW288037   6.519   5.526  12.684
95400SOL     OW88038   4.733   1.521   1.466
95400SOL    HW188039   4.777   1.453   1.517
95400SOL    HW288040   4.804   1.579   1.437
95401SOL     OW88041   2.982   6.803  13.232
95401SOL    HW188042   3.050   6.840  13.175
95401SOL    HW288043   3.010   6.713  13.247
95402SOL     OW88044   1.936   1.391   1.325
95402SOL    HW188045   1.854   1.410   1.371
95402SOL    HW288046   1.943   1.295   1.328
95403SOL     OW88047   5.690   9.562   5.550
95403SOL    HW188048   5.729   9.530   5.632
95403SOL    HW288049   5.760   9.549   5.485
95404SOL     OW88050  14.457  13.900  14.226
95404SOL    HW188051  14.376  13.851  14.213
95404SOL    HW288052  14.516  13.869  14.157
95405SOL     OW88053  11.963   1.837   0.115
95405SOL    HW188054  11.962   1.847   0.210
95405SOL    HW288055  12.017   1.760   0.099
95406SOL     OW88056   9.747   2.279  10.512
95406SOL    HW188057   9.792   2.199  10.539
95406SOL    HW288058   9.772   2.344  10.577
95407SOL     OW88059   4.321  13.950   1.315
95407SOL    HW188060   4.389  13.992   1.262
95407SOL    HW288061   4.351  13.957   1.405
95408SOL     OW88062   3.373  12.877  12.448
95408SOL    HW188063   3.285  12.878  12.410
95408SOL    HW288064   3.422  12.939  12.393
95409SOL     OW88065   7.695  12.600   3.440
95409SOL    HW188066   7.692  12.520   3.388
95409SOL    HW288067   7.654  12.666   3.385
95410SOL     OW88068   4.206  14.457   0.638
95410SOL    HW188069   4.241  14.544   0.659
95410SOL    HW288070   4.129  14.448   0.693
95411SOL     OW88071   6.430  10.563  11.231
95411SOL    HW188072   6.491  10.547  11.159
95411SOL    HW288073   6.351  10.595  11.188
95412SOL     OW88074  10.480  11.537  12.463
95412SOL    HW188075  10.390  11.542  12.496
95412SOL    HW288076  10.534  11.552  12.541
95413SOL     OW88077  13.364   7.817  10.982
95413SOL    HW188078  13.272   7.802  10.960
95413SOL    HW288079  13.363   7.894  11.039
95414SOL     OW88080   9.083   0.590  12.075
95414SOL    HW188081   9.002   0.583  12.126
95414SOL    HW288082   9.152   0.564  12.136
95415SOL     OW88083   3.033  13.955   4.307
95415SOL    HW188084   3.062  14.043   4.331
95415SOL    HW288085   3.083  13.935   4.227
95416SOL     OW88086  13.456  11.792   9.530
95416SOL    HW188087  13.413  11.876   9.515
95416SOL    HW288088  13.488  11.766   9.443
95417SOL     OW88089  12.546   2.006   4.984
95417SOL    HW188090  12.460   1.990   5.023
95417SOL    HW288091  12.544   2.099   4.960
95418SOL     OW88092   4.020   3.675   5.095
95418SOL    HW188093   3.984   3.749   5.144
95418SOL    HW288094   4.040   3.609   5.162
95419SOL     OW88095   5.478  14.506   6.067
95419SOL    HW188096   5.567  14.480   6.090
95419SOL    HW288097   5.484  14.535   5.976
95420SOL     OW88098   5.523  11.641  12.599
95420SOL    HW188099   5.505  11.548  12.612
95420SOL    HW288100   5.561  11.670  12.682
95421SOL     OW88101   1.082  11.970  11.666
95421SOL    HW188102   1.138  11.911  11.716
95421SOL    HW288103   1.003  11.980  11.719
95422SOL     OW88104  11.085  14.329   4.395
95422SOL    HW188105  11.024  14.322   4.468
95422SOL    HW288106  11.036  14.299   4.319
95423SOL     OW88107   1.292  14.702   9.311
95423SOL    HW188108   1.198  14.702   9.289
95423SOL    HW288109   1.319  14.793   9.299
95424SOL     OW88110   8.606   5.077   0.669
95424SOL    HW188111   8.644   4.995   0.699
95424SOL    HW288112   8.511   5.062   0.670
95425SOL     OW88113   7.236   8.546  11.461
95425SOL    HW188114   7.308   8.504  11.414
95425SOL    HW288115   7.157   8.513  11.419
95426SOL     OW88116   4.149   6.320  10.515
95426SOL    HW188117   4.060   6.345  10.488
95426SOL    HW288118   4.158   6.229  10.487
95427SOL     OW88119   9.373  11.086   8.333
95427SOL    HW188120   9.426  11.014   8.299
95427SOL    HW288121   9.345  11.134   8.254
95428SOL     OW88122   1.690   8.641   6.998
95428SOL    HW188123   1.681   8.720   7.052
95428SOL    HW288124   1.615   8.645   6.938
95429SOL     OW88125   5.686  13.358   4.959
95429SOL    HW188126   5.642  13.273   4.963
95429SOL    HW288127   5.728  13.359   4.873
95430SOL     OW88128  14.615   8.988   7.078
95430SOL    HW188129  14.567   9.072   7.077
95430SOL    HW288130  14.549   8.923   7.055
95431SOL     OW88131   5.750   4.942   6.578
95431SOL    HW188132   5.828   4.893   6.605
95431SOL    HW288133   5.730   4.998   6.654
95432SOL     OW88134   2.726   3.874   6.249
95432SOL    HW188135   2.682   3.878   6.164
95432SOL    HW288136   2.819   3.883   6.229
95433SOL     OW88137   2.029   7.024  10.408
95433SOL    HW188138   2.037   7.100  10.467
95433SOL    HW288139   2.118   7.007  10.379
95434SOL     OW88140   1.315   2.653  13.729
95434SOL    HW188141   1.399   2.692  13.753
95434SOL    HW288142   1.260   2.667  13.806
95435SOL     OW88143  14.125  11.629   9.007
95435SOL    HW188144  14.059  11.564   9.031
95435SOL    HW288145  14.089  11.712   9.038
95436SOL     OW88146   5.638  13.932   6.091
95436SOL    HW188147   5.596  14.011   6.123
95436SOL    HW288148   5.566  13.870   6.076
95437SOL     OW88149   9.928   3.533   9.808
95437SOL    HW188150   9.859   3.519   9.873
95437SOL    HW288151   9.883   3.526   9.724
95438SOL     OW88152   6.982   7.142   8.573
95438SOL    HW188153   7.065   7.169   8.611
95438SOL    HW288154   7.006   7.080   8.504
95439SOL     OW88155   1.701   2.022   0.626
95439SOL    HW188156   1.687   2.114   0.605
95439SOL    HW288157   1.751   2.023   0.707
95440SOL     OW88158  11.356   6.736   5.899
95440SOL    HW188159  11.301   6.781   5.835
95440SOL    HW288160  11.320   6.647   5.903
95441SOL     OW88161  13.345   6.176   0.528
95441SOL    HW188162  13.435   6.193   0.500
95441SOL    HW288163  13.328   6.086   0.498
95442SOL     OW88164   9.697   4.147  13.186
95442SOL    HW188165   9.788   4.158  13.158
95442SOL    HW288166   9.651   4.222  13.148
95443SOL     OW88167   5.845   8.763   6.146
95443SOL    HW188168   5.931   8.723   6.157
95443SOL    HW288169   5.789   8.716   6.207
95444SOL     OW88170   0.435   3.698   9.090
95444SOL    HW188171   0.355   3.685   9.039
95444SOL    HW288172   0.432   3.790   9.116
95445SOL     OW88173   3.609   8.658   2.744
95445SOL    HW188174   3.589   8.574   2.784
95445SOL    HW288175   3.652   8.636   2.662
95446SOL     OW88176  12.442   4.994   3.468
95446SOL    HW188177  12.481   4.965   3.386
95446SOL    HW288178  12.393   4.918   3.500
95447SOL     OW88179   8.871   0.078  10.800
95447SOL    HW188180   8.860   0.033  10.717
95447SOL    HW288181   8.809   0.151  10.796
95448SOL     OW88182  14.467  12.675   9.408
95448SOL    HW188183  14.373  12.669   9.392
95448SOL    HW288184  14.475  12.669   9.504
95449SOL     OW88185   4.175   8.828   5.328
95449SOL    HW188186   4.087   8.855   5.301
95449SOL    HW288187   4.213   8.788   5.251
95450SOL     OW88188  11.658  10.769   9.760
95450SOL    HW188189  11.736  10.719   9.738
95450SOL    HW288190  11.623  10.798   9.675
95451SOL     OW88191  12.054   1.225   4.649
95451SOL    HW188192  12.106   1.145   4.663
95451SOL    HW288193  12.101   1.292   4.699
95452SOL     OW88194  10.589  14.584   3.170
95452SOL    HW188195  10.498  14.609   3.185
95452SOL    HW288196  10.593  14.563   3.077
95453SOL     OW88197   0.054   8.619  13.513
95453SOL    HW188198   0.019   8.606  13.425
95453SOL    HW288199   0.049   8.532  13.554
95454SOL     OW88200  12.034  14.878   8.327
95454SOL    HW188201  12.110  14.821   8.318
95454SOL    HW288202  12.062   0.079   8.288
95455SOL     OW88203  11.818  12.616   5.684
95455SOL    HW188204  11.902  12.583   5.716
95455SOL    HW288205  11.837  12.703   5.649
95456SOL     OW88206  14.665  12.882   4.149
95456SOL    HW188207  14.678  12.935   4.070
95456SOL    HW288208  14.600  12.930   4.200
95457SOL     OW88209  12.907   9.631   5.385
95457SOL    HW188210  12.982   9.577   5.411
95457SOL    HW288211  12.839   9.568   5.363
95458SOL     OW88212   6.890  11.261   4.968
95458SOL    HW188213   6.947  11.193   5.005
95458SOL    HW288214   6.907  11.258   4.874
95459SOL     OW88215   3.732   2.784   7.410
95459SOL    HW188216   3.757   2.874   7.432
95459SOL    HW288217   3.646   2.792   7.369
95460SOL     OW88218   3.292   7.176  13.207
95460SOL    HW188219   3.336   7.233  13.143
95460SOL    HW288220   3.259   7.103  13.155
95461SOL     OW88221   8.919   9.506  14.836
95461SOL    HW188222   8.959   9.592  14.821
95461SOL    HW288223   8.825   9.525  14.847
95462SOL     OW88224   4.771  13.141   9.193
95462SOL    HW188225   4.719  13.131   9.114
95462SOL    HW288226   4.747  13.065   9.247
95463SOL     OW88227   7.169  10.500   1.558
95463SOL    HW188228   7.127  10.556   1.492
95463SOL    HW288229   7.141  10.412   1.535
95464SOL     OW88230   8.705  10.287   0.724
95464SOL    HW188231   8.655  10.357   0.766
95464SOL    HW288232   8.732  10.230   0.796
95465SOL     OW88233   3.519   2.322   7.900
95465SOL    HW188234   3.524   2.409   7.941
95465SOL    HW288235   3.558   2.263   7.965
95466SOL     OW88236  10.609  11.079   1.422
95466SOL    HW188237  10.693  11.055   1.384
95466SOL    HW288238  10.610  11.175   1.423
95467SOL     OW88239  13.668   3.707   0.686
95467SOL    HW188240  13.618   3.787   0.702
95467SOL    HW288241  13.667   3.697   0.591
95468SOL     OW88242   9.293  11.454   4.760
95468SOL    HW188243   9.260  11.454   4.671
95468SOL    HW288244   9.367  11.514   4.759
95469SOL     OW88245  13.727  12.897   5.734
95469SOL    HW188246  13.635  12.923   5.731
95469SOL    HW288247  13.773  12.965   5.685
95470SOL     OW88248   1.879   6.274  12.469
95470SOL    HW188249   1.864   6.349  12.527
95470SOL    HW288250   1.929   6.212  12.523
95471SOL     OW88251   5.421   2.249   1.681
95471SOL    HW188252   5.463   2.166   1.661
95471SOL    HW288253   5.356   2.261   1.612
95472SOL     OW88254   0.104   6.247  12.915
95472SOL    HW188255   0.129   6.226  13.005
95472SOL    HW288256   0.017   6.208  12.905
95473SOL     OW88257   8.226  11.736  10.957
95473SOL    HW188258   8.244  11.825  10.928
95473SOL    HW288259   8.130  11.729  10.955
95474SOL     OW88260   4.572  14.731  11.271
95474SOL    HW188261   4.593  14.669  11.201
95474SOL    HW288262   4.649  14.788  11.278
95475SOL     OW88263   6.190   9.490  11.678
95475SOL    HW188264   6.178   9.575  11.720
95475SOL    HW288265   6.256   9.446  11.732
95476SOL     OW88266   0.514  11.202   8.700
95476SOL    HW188267   0.550  11.210   8.788
95476SOL    HW288268   0.470  11.285   8.684
95477SOL     OW88269   3.501   9.774  12.563
95477SOL    HW188270   3.483   9.714  12.491
95477SOL    HW288271   3.543   9.721  12.630
95478SOL     OW88272   9.605   9.267   2.921
95478SOL    HW188273   9.572   9.355   2.941
95478SOL    HW288274   9.699   9.279   2.908
95479SOL     OW88275  13.067   0.518  10.286
95479SOL    HW188276  13.149   0.567  10.282
95479SOL    HW288277  13.068   0.479  10.374
95480SOL     OW88278   7.564   1.355  11.747
95480SOL    HW188279   7.642   1.355  11.691
95480SOL    HW288280   7.577   1.281  11.806
95481SOL     OW88281  10.598   4.895  10.154
95481SOL    HW188282  10.665   4.934  10.210
95481SOL    HW288283  10.631   4.906  10.065
95482SOL     OW88284   0.254  13.109   2.975
95482SOL    HW188285   0.243  13.198   2.940
95482SOL    HW288286   0.324  13.071   2.923
95483SOL     OW88287  14.688   6.325  12.228
95483SOL    HW188288  14.782   6.315  12.241
95483SOL    HW288289  14.663   6.397  12.286
95484SOL     OW88290  10.358   4.934   9.271
95484SOL    HW188291  10.342   5.029   9.272
95484SOL    HW288292  10.347   4.908   9.363
95485SOL     OW88293   5.364   9.122   6.654
95485SOL    HW188294   5.275   9.115   6.620
95485SOL    HW288295   5.406   9.041   6.627
95486SOL     OW88296  11.829   8.120   4.649
95486SOL    HW188297  11.895   8.098   4.714
95486SOL    HW288298  11.876   8.172   4.584
95487SOL     OW88299   8.322   1.268  10.365
95487SOL    HW188300   8.303   1.361  10.351
95487SOL    HW288301   8.416   1.261  10.346
95488SOL     OW88302  14.351  12.043   9.633
95488SOL    HW188303  14.259  12.019   9.631
95488SOL    HW288304  14.359  12.119   9.575
95489SOL     OW88305   2.104  11.976  11.427
95489SOL    HW188306   2.155  11.896  11.439
95489SOL    HW288307   2.162  12.047  11.457
95490SOL     OW88308  12.090   8.078   8.783
95490SOL    HW188309  12.140   8.076   8.702
95490SOL    HW288310  12.006   8.038   8.761
95491SOL     OW88311   9.750   3.199   9.473
95491SOL    HW188312   9.734   3.111   9.438
95491SOL    HW288313   9.687   3.209   9.544
95492SOL     OW88314   7.548   2.399   2.733
95492SOL    HW188315   7.481   2.371   2.671
95492SOL    HW288316   7.504   2.463   2.788
95493SOL     OW88317   4.546   6.595   4.553
95493SOL    HW188318   4.636   6.574   4.580
95493SOL    HW288319   4.535   6.687   4.575
95494SOL     OW88320   6.659   7.422   3.175
95494SOL    HW188321   6.624   7.376   3.099
95494SOL    HW288322   6.741   7.378   3.195
95495SOL     OW88323   9.770  14.556  10.862
95495SOL    HW188324   9.735  14.470  10.885
95495SOL    HW288325   9.701  14.618  10.886
95496SOL     OW88326  14.148   5.916  14.704
95496SOL    HW188327  14.165   5.968  14.625
95496SOL    HW288328  14.231   5.871  14.721
95497SOL     OW88329   7.727   8.907   0.065
95497SOL    HW188330   7.794   8.957   0.112
95497SOL    HW288331   7.753   8.815   0.076
95498SOL     OW88332  13.325  13.842  10.111
95498SOL    HW188333  13.400  13.821  10.167
95498SOL    HW288334  13.316  13.937  10.119
95499SOL     OW88335   2.475   0.287   5.286
95499SOL    HW188336   2.454   0.371   5.245
95499SOL    HW288337   2.570   0.288   5.296
95500SOL     OW88338  11.379  14.638  10.795
95500SOL    HW188339  11.287  14.612  10.788
95500SOL    HW288340  11.423  14.584  10.730
95501SOL     OW88341   9.799   4.700   0.406
95501SOL    HW188342   9.751   4.675   0.327
95501SOL    HW288343   9.877   4.744   0.374
95502SOL     OW88344  13.245   4.131   7.017
95502SOL    HW188345  13.181   4.141   7.088
95502SOL    HW288346  13.329   4.150   7.057
95503SOL     OW88347   8.507   1.047   1.900
95503SOL    HW188348   8.429   1.045   1.955
95503SOL    HW288349   8.527   1.140   1.890
95504SOL     OW88350   7.317   3.113   5.784
95504SOL    HW188351   7.336   3.100   5.691
95504SOL    HW288352   7.377   3.182   5.812
95505SOL     OW88353   3.436  14.182   3.077
95505SOL    HW188354   3.349  14.146   3.060
95505SOL    HW288355   3.487  14.107   3.107
95506SOL     OW88356   3.805  14.504  12.879
95506SOL    HW188357   3.752  14.570  12.835
95506SOL    HW288358   3.743  14.436  12.906
95507SOL     OW88359   2.789  13.026  10.625
95507SOL    HW188360   2.731  12.964  10.580
95507SOL    HW288361   2.875  13.013  10.584
95508SOL     OW88362   5.020  12.334   2.335
95508SOL    HW188363   5.009  12.332   2.430
95508SOL    HW288364   4.937  12.369   2.302
95509SOL     OW88365   3.523  12.455   1.652
95509SOL    HW188366   3.429  12.440   1.642
95509SOL    HW288367   3.534  12.550   1.640
95510SOL     OW88368   9.310  12.606   7.731
95510SOL    HW188369   9.344  12.621   7.643
95510SOL    HW288370   9.320  12.511   7.745
95511SOL     OW88371   8.544  13.061  12.475
95511SOL    HW188372   8.565  13.002  12.547
95511SOL    HW288373   8.476  13.015  12.426
95512SOL     OW88374  10.879   8.354   8.055
95512SOL    HW188375  10.955   8.316   8.010
95512SOL    HW288376  10.859   8.433   8.005
95513SOL     OW88377   7.609   9.723   7.248
95513SOL    HW188378   7.581   9.633   7.263
95513SOL    HW288379   7.574   9.772   7.322
95514SOL     OW88380  11.953   5.523   7.944
95514SOL    HW188381  11.925   5.443   7.899
95514SOL    HW288382  12.044   5.534   7.919
95515SOL     OW88383   7.992   2.954   4.059
95515SOL    HW188384   7.931   2.881   4.050
95515SOL    HW288385   7.955   3.023   4.004
95516SOL     OW88386   3.245   2.507   4.851
95516SOL    HW188387   3.194   2.467   4.922
95516SOL    HW288388   3.332   2.469   4.860
95517SOL     OW88389   8.958   6.373   6.679
95517SOL    HW188390   8.999   6.418   6.752
95517SOL    HW288391   8.983   6.425   6.602
95518SOL     OW88392   1.002   1.132  12.261
95518SOL    HW188393   1.058   1.205  12.236
95518SOL    HW288394   0.930   1.133  12.197
95519SOL     OW88395   8.827   3.888  10.546
95519SOL    HW188396   8.747   3.867  10.498
95519SOL    HW288397   8.864   3.963  10.500
95520SOL     OW88398   6.121   2.393   9.304
95520SOL    HW188399   6.105   2.390   9.209
95520SOL    HW288400   6.134   2.486   9.323
95521SOL     OW88401  10.229   9.777   0.214
95521SOL    HW188402  10.219   9.822   0.131
95521SOL    HW288403  10.230   9.846   0.280
95522SOL     OW88404   6.669   3.888  14.686
95522SOL    HW188405   6.606   3.849  14.746
95522SOL    HW288406   6.681   3.978  14.718
95523SOL     OW88407   4.793   3.024  13.670
95523SOL    HW188408   4.756   2.950  13.623
95523SOL    HW288409   4.733   3.096  13.651
95524SOL     OW88410  11.609   4.065   3.373
95524SOL    HW188411  11.683   4.020   3.333
95524SOL    HW288412  11.603   4.028   3.461
95525SOL     OW88413   1.142  13.347   0.401
95525SOL    HW188414   1.105  13.396   0.327
95525SOL    HW288415   1.116  13.397   0.478
95526SOL     OW88416   2.881   5.988  10.504
95526SOL    HW188417   2.905   5.938  10.426
95526SOL    HW288418   2.792   5.959  10.525
95527SOL     OW88419   7.544   1.904   2.029
95527SOL    HW188420   7.551   1.999   2.025
95527SOL    HW288421   7.454   1.885   2.003
95528SOL     OW88422   5.968   2.685   2.840
95528SOL    HW188423   5.908   2.656   2.771
95528SOL    HW288424   5.985   2.777   2.820
95529SOL     OW88425   5.146   1.252   8.237
95529SOL    HW188426   5.121   1.186   8.172
95529SOL    HW288427   5.071   1.311   8.241
95530SOL     OW88428   6.103   3.897   6.082
95530SOL    HW188429   6.105   3.805   6.107
95530SOL    HW288430   6.124   3.944   6.163
95531SOL     OW88431  11.287   3.040  14.184
95531SOL    HW188432  11.307   3.068  14.095
95531SOL    HW288433  11.372   3.013  14.220
95532SOL     OW88434   6.018   5.478   3.152
95532SOL    HW188435   6.032   5.399   3.099
95532SOL    HW288436   5.963   5.534   3.099
95533SOL     OW88437   8.605  14.606   4.009
95533SOL    HW188438   8.681  14.658   4.034
95533SOL    HW288439   8.623  14.577   3.920
95534SOL     OW88440  13.804   5.751   9.562
95534SOL    HW188441  13.770   5.729   9.649
95534SOL    HW288442  13.778   5.677   9.506
95535SOL     OW88443  14.310   6.990   6.738
95535SOL    HW188444  14.244   6.992   6.669
95535SOL    HW288445  14.286   7.062   6.797
95536SOL     OW88446  10.863  14.416   6.586
95536SOL    HW188447  10.935  14.472   6.558
95536SOL    HW288448  10.785  14.455   6.546
95537SOL     OW88449   9.695  14.095  10.700
95537SOL    HW188450   9.690  14.021  10.640
95537SOL    HW288451   9.618  14.148  10.680
95538SOL     OW88452  12.377   9.333   1.706
95538SOL    HW188453  12.404   9.259   1.651
95538SOL    HW288454  12.330   9.292   1.779
95539SOL     OW88455   5.704   3.857   6.552
95539SOL    HW188456   5.637   3.908   6.506
95539SOL    HW288457   5.778   3.856   6.491
95540SOL     OW88458  14.461   5.587   6.217
95540SOL    HW188459  14.465   5.504   6.263
95540SOL    HW288460  14.408   5.644   6.274
95541SOL     OW88461  10.787   7.910   4.087
95541SOL    HW188462  10.718   7.891   4.149
95541SOL    HW288463  10.843   7.832   4.088
95542SOL     OW88464  10.234   5.315   2.352
95542SOL    HW188465  10.233   5.226   2.386
95542SOL    HW288466  10.301   5.360   2.404
95543SOL     OW88467   8.233   8.498   3.454
95543SOL    HW188468   8.168   8.506   3.384
95543SOL    HW288469   8.217   8.573   3.511
95544SOL     OW88470   1.231   3.205  11.956
95544SOL    HW188471   1.158   3.184  11.898
95544SOL    HW288472   1.203   3.285  12.001
95545SOL     OW88473   0.258   0.336   5.201
95545SOL    HW188474   0.318   0.393   5.153
95545SOL    HW288475   0.313   0.262   5.229
95546SOL     OW88476   7.700   5.515  13.196
95546SOL    HW188477   7.772   5.452  13.207
95546SOL    HW288478   7.697   5.532  13.102
95547SOL     OW88479   5.156   1.548  14.237
95547SOL    HW188480   5.105   1.488  14.183
95547SOL    HW288481   5.122   1.635  14.215
95548SOL     OW88482   5.226   4.004   5.760
95548SOL    HW188483   5.219   3.984   5.854
95548SOL    HW288484   5.278   4.084   5.757
95549SOL     OW88485   5.048  13.066  13.510
95549SOL    HW188486   4.979  13.002  13.522
95549SOL    HW288487   5.100  13.032  13.437
95550SOL     OW88488   4.270  11.535  12.079
95550SOL    HW188489   4.295  11.448  12.048
95550SOL    HW288490   4.203  11.564  12.017
95551SOL     OW88491   1.197   8.915   5.403
95551SOL    HW188492   1.102   8.904   5.415
95551SOL    HW288493   1.225   8.962   5.482
95552SOL     OW88494  14.486   5.120   3.003
95552SOL    HW188495  14.446   5.135   3.089
95552SOL    HW288496  14.414   5.093   2.947
95553SOL     OW88497   1.002   9.382   0.164
95553SOL    HW188498   1.039   9.470   0.154
95553SOL    HW288499   1.077   9.325   0.176
95554SOL     OW88500   1.389  12.268   0.674
95554SOL    HW188501   1.302  12.298   0.699
95554SOL    HW288502   1.410  12.318   0.595
95555SOL     OW88503  13.324   0.489   9.534
95555SOL    HW188504  13.400   0.489   9.476
95555SOL    HW288505  13.280   0.572   9.516
95556SOL     OW88506   5.216   5.767  10.974
95556SOL    HW188507   5.311   5.779  10.966
95556SOL    HW288508   5.190   5.733  10.888
95557SOL     OW88509   1.606   3.319  14.595
95557SOL    HW188510   1.676   3.276  14.642
95557SOL    HW288511   1.528   3.266  14.613
95558SOL     OW88512   8.878  10.887  10.865
95558SOL    HW188513   8.846  10.933  10.788
95558SOL    HW288514   8.800  10.847  10.904
95559SOL     OW88515  11.430   3.179   7.403
95559SOL    HW188516  11.457   3.263   7.440
95559SOL    HW288517  11.477   3.113   7.455
95560SOL     OW88518  12.083  14.168  13.470
95560SOL    HW188519  12.003  14.218  13.450
95560SOL    HW288520  12.129  14.162  13.387
95561SOL     OW88521  12.515   5.913   8.226
95561SOL    HW188522  12.552   5.999   8.248
95561SOL    HW288523  12.499   5.872   8.311
95562SOL     OW88524  10.265   3.373   1.111
95562SOL    HW188525  10.186   3.391   1.060
95562SOL    HW288526  10.248   3.411   1.196
95563SOL     OW88527  14.714   6.516   9.271
95563SOL    HW188528  14.774   6.442   9.273
95563SOL    HW288529  14.629   6.479   9.294
95564SOL     OW88530   3.242  13.903   9.516
95564SOL    HW188531   3.232  13.973   9.581
95564SOL    HW288532   3.224  13.946   9.432
95565SOL     OW88533   3.385  14.596   7.233
95565SOL    HW188534   3.346  14.514   7.262
95565SOL    HW288535   3.320  14.663   7.257
95566SOL     OW88536  13.462   1.790   4.340
95566SOL    HW188537  13.447   1.696   4.332
95566SOL    HW288538  13.461   1.822   4.250
95567SOL     OW88539   9.127   4.402   4.005
95567SOL    HW188540   9.114   4.359   3.921
95567SOL    HW288541   9.126   4.496   3.985
95568SOL     OW88542  10.098  12.530   0.266
95568SOL    HW188543  10.066  12.620   0.262
95568SOL    HW288544  10.071  12.499   0.352
95569SOL     OW88545   5.683  10.204   3.361
95569SOL    HW188546   5.605  10.195   3.307
95569SOL    HW288547   5.735  10.272   3.317
95570SOL     OW88548   0.626   8.667   2.220
95570SOL    HW188549   0.563   8.697   2.154
95570SOL    HW288550   0.592   8.700   2.302
95571SOL     OW88551  12.140   9.696   1.312
95571SOL    HW188552  12.142   9.773   1.369
95571SOL    HW288553  12.230   9.663   1.313
95572SOL     OW88554  10.367   3.699   2.919
95572SOL    HW188555  10.459   3.684   2.896
95572SOL    HW288556  10.328   3.735   2.839
95573SOL     OW88557  10.505   6.575   2.961
95573SOL    HW188558  10.584   6.627   2.977
95573SOL    HW288559  10.439   6.613   3.020
95574SOL     OW88560  12.936   3.430   4.879
95574SOL    HW188561  12.975   3.490   4.942
95574SOL    HW288562  12.934   3.346   4.925
95575SOL     OW88563   6.774  13.785  14.200
95575SOL    HW188564   6.793  13.849  14.132
95575SOL    HW288565   6.679  13.793  14.215
95576SOL     OW88566   9.681  13.519  12.733
95576SOL    HW188567   9.678  13.431  12.771
95576SOL    HW288568   9.626  13.513  12.655
95577SOL     OW88569  14.679  11.584   6.771
95577SOL    HW188570  14.748  11.650   6.773
95577SOL    HW288571  14.601  11.633   6.742
95578SOL     OW88572   0.522  10.339  11.853
95578SOL    HW188573   0.582  10.379  11.791
95578SOL    HW288574   0.539  10.384  11.935
95579SOL     OW88575  10.965  12.893   7.356
95579SOL    HW188576  11.040  12.898   7.415
95579SOL    HW288577  11.004  12.888   7.268
95580SOL     OW88578  12.594   2.311  12.094
95580SOL    HW188579  12.622   2.402  12.090
95580SOL    HW288580  12.588   2.284  12.002
95581SOL     OW88581  12.966  11.846   7.892
95581SOL    HW188582  13.015  11.769   7.919
95581SOL    HW288583  13.029  11.897   7.840
95582SOL     OW88584   4.972   1.900   1.750
95582SOL    HW188585   4.892   1.928   1.796
95582SOL    HW288586   4.946   1.896   1.658
95583SOL     OW88587  13.319  13.403  13.721
95583SOL    HW188588  13.298  13.406  13.627
95583SOL    HW288589  13.321  13.495  13.748
95584SOL     OW88590  12.655  13.184   9.497
95584SOL    HW188591  12.681  13.175   9.589
95584SOL    HW288592  12.685  13.271   9.472
95585SOL     OW88593   5.847  10.191   5.650
95585SOL    HW188594   5.751  10.188   5.658
95585SOL    HW288595   5.877  10.115   5.699
95586SOL     OW88596   7.591   7.134   5.578
95586SOL    HW188597   7.558   7.091   5.657
95586SOL    HW288598   7.674   7.172   5.605
95587SOL     OW88599   3.867  10.097   5.808
95587SOL    HW188600   3.889  10.018   5.856
95587SOL    HW288601   3.808  10.145   5.867
95588SOL     OW88602  12.782   3.376   7.824
95588SOL    HW188603  12.768   3.459   7.778
95588SOL    HW288604  12.734   3.311   7.773
95589SOL     OW88605   7.718   8.554  12.747
95589SOL    HW188606   7.682   8.521  12.665
95589SOL    HW288607   7.770   8.630  12.722
95590SOL     OW88608   3.178  12.557  14.049
95590SOL    HW188609   3.247  12.496  14.024
95590SOL    HW288610   3.134  12.579  13.967
95591SOL     OW88611   2.145   6.532   7.914
95591SOL    HW188612   2.239   6.551   7.913
95591SOL    HW288613   2.134   6.463   7.847
95592SOL     OW88614   3.650  11.103  12.472
95592SOL    HW188615   3.580  11.038  12.472
95592SOL    HW288616   3.720  11.064  12.420
95593SOL     OW88617   1.773   8.816  14.081
95593SOL    HW188618   1.843   8.752  14.069
95593SOL    HW288619   1.721   8.810  14.000
95594SOL     OW88620   2.040   3.007   6.490
95594SOL    HW188621   2.097   2.932   6.506
95594SOL    HW288622   1.954   2.969   6.476
95595SOL     OW88623  13.090   7.557   7.090
95595SOL    HW188624  13.149   7.632   7.083
95595SOL    HW288625  13.147   7.482   7.099
95596SOL     OW88626  12.748  11.870  14.025
95596SOL    HW188627  12.701  11.803  14.075
95596SOL    HW288628  12.686  11.897  13.957
95597SOL     OW88629   2.256   4.930   3.910
95597SOL    HW188630   2.165   4.931   3.880
95597SOL    HW288631   2.304   4.886   3.840
95598SOL     OW88632   7.725   3.158   7.842
95598SOL    HW188633   7.723   3.063   7.845
95598SOL    HW288634   7.744   3.179   7.750
95599SOL     OW88635   2.952   4.508   0.828
95599SOL    HW188636   3.003   4.553   0.761
95599SOL    HW288637   2.863   4.503   0.791
95600SOL     OW88638   6.071   1.268   8.293
95600SOL    HW188639   6.051   1.175   8.298
95600SOL    HW288640   6.075   1.297   8.384
95601SOL     OW88641   0.829  10.828   9.641
95601SOL    HW188642   0.735  10.830   9.662
95601SOL    HW288643   0.872  10.811   9.725
95602SOL     OW88644  14.493   9.521  14.083
95602SOL    HW188645  14.548   9.486  14.013
95602SOL    HW288646  14.555   9.549  14.150
95603SOL     OW88647   4.859   0.332   6.668
95603SOL    HW188648   4.765   0.319   6.672
95603SOL    HW288649   4.894   0.248   6.637
95604SOL     OW88650  11.811   9.476   9.716
95604SOL    HW188651  11.860   9.401   9.682
95604SOL    HW288652  11.734   9.483   9.659
95605SOL     OW88653   8.952   8.466  13.592
95605SOL    HW188654   8.997   8.509  13.519
95605SOL    HW288655   9.017   8.462  13.662
95606SOL     OW88656  12.920   8.348   9.709
95606SOL    HW188657  12.946   8.275   9.764
95606SOL    HW288658  12.866   8.309   9.641
95607SOL     OW88659   5.947   4.254  13.613
95607SOL    HW188660   5.954   4.277  13.706
95607SOL    HW288661   5.999   4.175  13.603
95608SOL     OW88662   9.043  13.758  11.904
95608SOL    HW188663   8.992  13.701  11.962
95608SOL    HW288664   9.058  13.706  11.825
95609SOL     OW88665  10.548   7.404   9.931
95609SOL    HW188666  10.614   7.338   9.909
95609SOL    HW288667  10.466   7.367   9.900
95610SOL     OW88668   8.322   0.310  12.177
95610SOL    HW188669   8.228   0.315  12.192
95610SOL    HW288670   8.350   0.233  12.226
95611SOL     OW88671  13.670   9.528   0.675
95611SOL    HW188672  13.675   9.591   0.747
95611SOL    HW288673  13.581   9.538   0.641
95612SOL     OW88674   7.457   1.867   6.478
95612SOL    HW188675   7.478   1.905   6.392
95612SOL    HW288676   7.375   1.819   6.463
95613SOL     OW88677   0.618  10.195   7.294
95613SOL    HW188678   0.655  10.247   7.366
95613SOL    HW288679   0.657  10.108   7.307
95614SOL     OW88680   8.818   7.759   8.802
95614SOL    HW188681   8.833   7.714   8.885
95614SOL    HW288682   8.757   7.829   8.823
95615SOL     OW88683  14.353   6.561   0.821
95615SOL    HW188684  14.441   6.563   0.858
95615SOL    HW288685  14.364   6.583   0.729
95616SOL     OW88686  10.017   7.042   0.818
95616SOL    HW188687   9.927   7.027   0.845
95616SOL    HW288688  10.070   6.991   0.880
95617SOL     OW88689  10.788   4.940   6.226
95617SOL    HW188690  10.787   5.035   6.217
95617SOL    HW288691  10.881   4.916   6.221
95618SOL     OW88692   0.377  12.520   8.756
95618SOL    HW188693   0.389  12.442   8.811
95618SOL    HW288694   0.360  12.485   8.668
95619SOL     OW88695   1.836   7.108  11.830
95619SOL    HW188696   1.898   7.072  11.894
95619SOL    HW288697   1.774   7.158  11.883
95620SOL     OW88698  12.087   8.948   8.476
95620SOL    HW188699  12.095   9.020   8.539
95620SOL    HW288700  12.061   8.873   8.529
95621SOL     OW88701  11.665   1.703  14.595
95621SOL    HW188702  11.746   1.708  14.545
95621SOL    HW288703  11.631   1.793  14.594
95622SOL     OW88704  13.208  10.603   3.698
95622SOL    HW188705  13.173  10.594   3.610
95622SOL    HW288706  13.134  10.634   3.751
95623SOL     OW88707   3.027   7.487  14.722
95623SOL    HW188708   3.100   7.425  14.718
95623SOL    HW288709   2.949   7.432  14.729
95624SOL     OW88710   8.930  12.002   8.224
95624SOL    HW188711   8.844  11.968   8.197
95624SOL    HW288712   8.966  12.040   8.144
95625SOL     OW88713   8.256   0.920   9.138
95625SOL    HW188714   8.199   0.973   9.082
95625SOL    HW288715   8.322   0.982   9.169
95626SOL     OW88716   6.795  11.695   7.068
95626SOL    HW188717   6.811  11.756   6.996
95626SOL    HW288718   6.776  11.611   7.025
95627SOL     OW88719   6.865  12.986   4.739
95627SOL    HW188720   6.896  12.988   4.830
95627SOL    HW288721   6.800  13.056   4.734
95628SOL     OW88722  10.678  13.734  10.214
95628SOL    HW188723  10.698  13.793  10.286
95628SOL    HW288724  10.726  13.770  10.139
95629SOL     OW88725   3.460   6.813   7.784
95629SOL    HW188726   3.434   6.902   7.761
95629SOL    HW288727   3.540   6.798   7.733
95630SOL     OW88728   6.456   3.022   5.787
95630SOL    HW188729   6.478   2.996   5.698
95630SOL    HW288730   6.367   3.056   5.781
95631SOL     OW88731   0.403  10.454  13.051
95631SOL    HW188732   0.477  10.417  13.100
95631SOL    HW288733   0.407  10.411  12.965
95632SOL     OW88734   8.244   0.736   7.753
95632SOL    HW188735   8.239   0.653   7.801
95632SOL    HW288736   8.282   0.712   7.668
95633SOL     OW88737  13.642   5.290   8.463
95633SOL    HW188738  13.638   5.385   8.467
95633SOL    HW288739  13.698   5.265   8.537
95634SOL     OW88740  10.261   0.686  11.370
95634SOL    HW188741  10.298   0.764  11.328
95634SOL    HW288742  10.285   0.695  11.462
95635SOL     OW88743  11.792   5.735  11.118
95635SOL    HW188744  11.865   5.750  11.178
95635SOL    HW288745  11.733   5.809  11.132
95636SOL     OW88746   0.460   7.108  11.502
95636SOL    HW188747   0.429   7.194  11.530
95636SOL    HW288748   0.512   7.076  11.575
95637SOL     OW88749  11.353   6.410  10.861
95637SOL    HW188750  11.352   6.324  10.819
95637SOL    HW288751  11.400   6.466  10.799
95638SOL     OW88752   3.456  14.515   2.659
95638SOL    HW188753   3.461  14.566   2.739
95638SOL    HW288754   3.388  14.559   2.607
95639SOL     OW88755   4.833   9.825   1.063
95639SOL    HW188756   4.817   9.765   1.136
95639SOL    HW288757   4.912   9.792   1.021
95640SOL     OW88758   5.375   2.393   7.320
95640SOL    HW188759   5.360   2.298   7.316
95640SOL    HW288760   5.470   2.401   7.333
95641SOL     OW88761   3.945   8.124  11.756
95641SOL    HW188762   3.956   8.101  11.664
95641SOL    HW288763   3.934   8.219  11.757
95642SOL     OW88764   9.257   6.196   1.707
95642SOL    HW188765   9.323   6.186   1.639
95642SOL    HW288766   9.259   6.113   1.755
95643SOL     OW88767   3.891  13.220   2.135
95643SOL    HW188768   3.933  13.198   2.218
95643SOL    HW288769   3.882  13.137   2.089
95644SOL     OW88770   9.059   2.745   1.189
95644SOL    HW188771   9.117   2.821   1.199
95644SOL    HW288772   9.088   2.683   1.256
95645SOL     OW88773  10.027   8.809   3.154
95645SOL    HW188774   9.932   8.801   3.150
95645SOL    HW288775  10.055   8.816   3.063
95646SOL     OW88776  12.452   1.348  13.095
95646SOL    HW188777  12.496   1.383  13.018
95646SOL    HW288778  12.369   1.313  13.061
95647SOL     OW88779   8.996   2.854   4.150
95647SOL    HW188780   8.986   2.939   4.106
95647SOL    HW288781   8.966   2.870   4.239
95648SOL     OW88782   9.865  11.214   8.037
95648SOL    HW188783   9.884  11.167   7.956
95648SOL    HW288784   9.913  11.296   8.030
95649SOL     OW88785   9.710   1.774  13.386
95649SOL    HW188786   9.738   1.863  13.362
95649SOL    HW288787   9.730   1.721  13.309
95650SOL     OW88788   2.480   1.707   6.416
95650SOL    HW188789   2.534   1.786   6.426
95650SOL    HW288790   2.527   1.654   6.352
95651SOL     OW88791   1.315   0.690   9.893
95651SOL    HW188792   1.403   0.725   9.876
95651SOL    HW288793   1.327   0.595   9.898
95652SOL     OW88794   2.036   6.785   0.349
95652SOL    HW188795   1.950   6.813   0.319
95652SOL    HW288796   2.039   6.811   0.441
95653SOL     OW88797  14.741  14.833   8.419
95653SOL    HW188798  14.718   0.030   8.469
95653SOL    HW288799  14.836  14.837   8.410
95654SOL     OW88800   5.025   5.538  11.754
95654SOL    HW188801   5.059   5.565  11.839
95654SOL    HW288802   5.102   5.508  11.706
95655SOL     OW88803   9.443  13.261   4.608
95655SOL    HW188804   9.527  13.218   4.590
95655SOL    HW288805   9.462  13.354   4.599
95656SOL     OW88806   3.963   3.772   3.342
95656SOL    HW188807   3.896   3.754   3.275
95656SOL    HW288808   4.014   3.844   3.306
95657SOL     OW88809  12.483  10.704   7.511
95657SOL    HW188810  12.393  10.671   7.515
95657SOL    HW288811  12.503  10.730   7.601
95658SOL     OW88812  10.802   1.059   2.379
95658SOL    HW188813  10.867   1.077   2.447
95658SOL    HW288814  10.755   1.142   2.368
95659SOL     OW88815   7.881  10.269   9.507
95659SOL    HW188816   7.800  10.236   9.466
95659SOL    HW288817   7.935  10.297   9.434
95660SOL     OW88818   4.828   8.001   7.370
95660SOL    HW188819   4.779   7.923   7.342
95660SOL    HW288820   4.835   8.054   7.291
95661SOL     OW88821   4.542   1.760  10.226
95661SOL    HW188822   4.547   1.688  10.288
95661SOL    HW288823   4.462   1.744  10.176
95662SOL     OW88824   9.043   5.128  12.133
95662SOL    HW188825   9.063   5.035  12.124
95662SOL    HW288826   9.109   5.161  12.195
95663SOL     OW88827  13.711   7.355   3.208
95663SOL    HW188828  13.645   7.352   3.139
95663SOL    HW288829  13.660   7.361   3.289
95664SOL     OW88830  14.807   7.932  10.448
95664SOL    HW188831  14.864   7.902  10.378
95664SOL    HW288832  14.789   8.024  10.427
95665SOL     OW88833   6.399   3.477   3.672
95665SOL    HW188834   6.330   3.465   3.737
95665SOL    HW288835   6.457   3.543   3.710
95666SOL     OW88836  10.611  12.505   9.754
95666SOL    HW188837  10.533  12.462   9.720
95666SOL    HW288838  10.684  12.449   9.726
95667SOL     OW88839  12.781  14.308  11.093
95667SOL    HW188840  12.784  14.216  11.067
95667SOL    HW288841  12.790  14.307  11.188
95668SOL     OW88842  12.887  11.102   7.875
95668SOL    HW188843  12.794  11.110   7.893
95668SOL    HW288844  12.930  11.155   7.943
95669SOL     OW88845  14.379   9.120   4.157
95669SOL    HW188846  14.414   9.189   4.214
95669SOL    HW288847  14.295   9.154   4.127
95670SOL     OW88848  14.779   8.329  13.770
95670SOL    HW188849  14.845   8.331  13.840
95670SOL    HW288850  14.721   8.402  13.790
95671SOL     OW88851   0.831   4.043  14.052
95671SOL    HW188852   0.910   4.006  14.092
95671SOL    HW288853   0.802   3.977  13.990
95672SOL     OW88854   5.779  14.572  13.966
95672SOL    HW188855   5.707  14.624  14.002
95672SOL    HW288856   5.794  14.503  14.031
95673SOL     OW88857   7.642   4.962   6.994
95673SOL    HW188858   7.668   4.946   6.904
95673SOL    HW288859   7.613   4.877   7.027
95674SOL     OW88860  11.832  13.322   4.277
95674SOL    HW188861  11.759  13.382   4.287
95674SOL    HW288862  11.833  13.272   4.359
95675SOL     OW88863  10.802   0.010  13.444
95675SOL    HW188864  10.873  14.842  13.405
95675SOL    HW288865  10.727  14.832  13.445
95676SOL     OW88866  12.660   0.220   4.944
95676SOL    HW188867  12.654   0.138   4.894
95676SOL    HW288868  12.656   0.289   4.877
95677SOL     OW88869   1.206   3.281  14.376
95677SOL    HW188870   1.159   3.313  14.453
95677SOL    HW288871   1.296   3.314  14.388
95678SOL     OW88872   0.941  10.032   1.445
95678SOL    HW188873   0.910  10.065   1.529
95678SOL    HW288874   0.873   9.971   1.417
95679SOL     OW88875   4.063  10.186   5.358
95679SOL    HW188876   4.064  10.180   5.453
95679SOL    HW288877   4.155  10.175   5.332
95680SOL     OW88878   8.585   8.302   0.744
95680SOL    HW188879   8.533   8.223   0.757
95680SOL    HW288880   8.667   8.285   0.790
95681SOL     OW88881  12.911   1.443   4.547
95681SOL    HW188882  12.930   1.533   4.521
95681SOL    HW288883  12.860   1.451   4.628
95682SOL     OW88884   6.105   9.542  10.881
95682SOL    HW188885   6.016   9.510  10.869
95682SOL    HW288886   6.121   9.597  10.804
95683SOL     OW88887   4.191   0.066   8.630
95683SOL    HW188888   4.278   0.093   8.601
95683SOL    HW288889   4.135   0.077   8.553
95684SOL     OW88890   0.249   1.332   6.696
95684SOL    HW188891   0.279   1.368   6.612
95684SOL    HW288892   0.190   1.399   6.730
95685SOL     OW88893   6.526   7.278   1.837
95685SOL    HW188894   6.563   7.366   1.830
95685SOL    HW288895   6.498   7.256   1.748
95686SOL     OW88896   5.085   9.523   6.404
95686SOL    HW188897   5.027   9.460   6.446
95686SOL    HW288898   5.026   9.585   6.360
95687SOL     OW88899   2.101   4.105  10.170
95687SOL    HW188900   2.093   4.063  10.085
95687SOL    HW288901   2.060   4.044  10.231
95688SOL     OW88902  13.295  14.322  10.805
95688SOL    HW188903  13.244  14.261  10.752
95688SOL    HW288904  13.301  14.280  10.891
95689SOL     OW88905   1.227   5.057   4.161
95689SOL    HW188906   1.215   5.150   4.181
95689SOL    HW288907   1.178   5.011   4.228
95690SOL     OW88908   9.207   0.881  10.874
95690SOL    HW188909   9.164   0.840  10.798
95690SOL    HW288910   9.135   0.909  10.930
95691SOL     OW88911  14.737   5.113   3.695
95691SOL    HW188912  14.793   5.081   3.625
95691SOL    HW288913  14.797   5.135   3.766
95692SOL     OW88914   9.732  10.123   3.272
95692SOL    HW188915   9.681  10.056   3.318
95692SOL    HW288916   9.723  10.201   3.327
95693SOL     OW88917   1.829   4.041   5.347
95693SOL    HW188918   1.767   4.016   5.416
95693SOL    HW288919   1.774   4.082   5.280
95694SOL     OW88920  10.671   2.676   2.136
95694SOL    HW188921  10.717   2.602   2.097
95694SOL    HW288922  10.608   2.637   2.196
95695SOL     OW88923   6.595   4.357   0.746
95695SOL    HW188924   6.683   4.396   0.742
95695SOL    HW288925   6.558   4.374   0.659
95696SOL     OW88926  13.480  12.236  14.660
95696SOL    HW188927  13.418  12.185  14.713
95696SOL    HW288928  13.559  12.240  14.714
95697SOL     OW88929  10.588  10.541  13.467
95697SOL    HW188930  10.674  10.562  13.504
95697SOL    HW288931  10.528  10.599  13.514
95698SOL     OW88932   6.052  13.592  10.871
95698SOL    HW188933   5.978  13.643  10.837
95698SOL    HW288934   6.044  13.507  10.829
95699SOL     OW88935  13.528  13.914   8.875
95699SOL    HW188936  13.529  13.826   8.836
95699SOL    HW288937  13.449  13.915   8.929
95700SOL     OW88938   5.080  12.635   2.822
95700SOL    HW188939   5.041  12.548   2.835
95700SOL    HW288940   5.173  12.617   2.808
95701SOL     OW88941  14.348   0.452  13.982
95701SOL    HW188942  14.354   0.361  14.011
95701SOL    HW288943  14.429   0.467  13.933
95702SOL     OW88944   7.022  10.614   8.037
95702SOL    HW188945   6.948  10.560   8.012
95702SOL    HW288946   7.099  10.559   8.021
95703SOL     OW88947   7.586  12.389   7.827
95703SOL    HW188948   7.543  12.318   7.779
95703SOL    HW288949   7.544  12.469   7.793
95704SOL     OW88950  10.300   1.954   1.080
95704SOL    HW188951  10.287   1.868   1.120
95704SOL    HW288952  10.291   1.939   0.986
95705SOL     OW88953   4.072   3.804   4.087
95705SOL    HW188954   3.982   3.811   4.056
95705SOL    HW288955   4.076   3.717   4.128
95706SOL     OW88956   4.249   8.090   5.453
95706SOL    HW188957   4.244   8.036   5.374
95706SOL    HW288958   4.320   8.152   5.435
95707SOL     OW88959  10.636  14.117   9.512
95707SOL    HW188960  10.577  14.096   9.585
95707SOL    HW288961  10.717  14.070   9.532
95708SOL     OW88962  12.747   4.899  14.513
95708SOL    HW188963  12.774   4.915  14.603
95708SOL    HW288964  12.807   4.950  14.459
95709SOL     OW88965  14.687   3.593   4.509
95709SOL    HW188966  14.734   3.608   4.427
95709SOL    HW288967  14.597   3.622   4.491
95710SOL     OW88968   4.905   3.667  11.409
95710SOL    HW188969   4.988   3.624  11.384
95710SOL    HW288970   4.928   3.759  11.416
95711SOL     OW88971  13.225   8.907   2.069
95711SOL    HW188972  13.235   9.002   2.069
95711SOL    HW288973  13.278   8.878   1.995
95712SOL     OW88974   4.102   4.106   0.766
95712SOL    HW188975   4.031   4.115   0.703
95712SOL    HW288976   4.064   4.132   0.850
95713SOL     OW88977  13.270  12.930  11.310
95713SOL    HW188978  13.205  12.875  11.266
95713SOL    HW288979  13.349  12.922  11.257
95714SOL     OW88980  13.828   2.636   7.097
95714SOL    HW188981  13.876   2.618   7.016
95714SOL    HW288982  13.773   2.559   7.109
95715SOL     OW88983  11.319  12.044   0.348
95715SOL    HW188984  11.349  11.989   0.276
95715SOL    HW288985  11.395  12.099   0.370
95716SOL     OW88986   9.727  10.473   5.121
95716SOL    HW188987   9.719  10.384   5.088
95716SOL    HW288988   9.794  10.467   5.189
95717SOL     OW88989   5.379   5.681   4.910
95717SOL    HW188990   5.366   5.587   4.923
95717SOL    HW288991   5.411   5.689   4.820
95718SOL     OW88992   4.523  11.567   4.870
95718SOL    HW188993   4.514  11.472   4.869
95718SOL    HW288994   4.560  11.587   4.956
95719SOL     OW88995  14.793   2.134   8.920
95719SOL    HW188996  14.825   2.167   8.836
95719SOL    HW288997  14.839   2.188   8.985
95720SOL     OW88998   9.305  11.046   8.598
95720SOL    HW188999   9.328  11.083   8.512
95720SOL    HW289000   9.210  11.049   8.600
95721SOL     OW89001   6.391  11.002   2.950
95721SOL    HW189002   6.413  10.916   2.915
95721SOL    HW289003   6.423  10.999   3.041
95722SOL     OW89004   3.532   0.229   7.814
95722SOL    HW189005   3.571   0.287   7.749
95722SOL    HW289006   3.555   0.269   7.898
95723SOL     OW89007   3.221  11.216   7.520
95723SOL    HW189008   3.211  11.277   7.593
95723SOL    HW289009   3.217  11.130   7.561
95724SOL     OW89010   5.999  10.110   2.816
95724SOL    HW189011   5.944  10.113   2.895
95724SOL    HW289012   6.011  10.202   2.793
95725SOL     OW89013  14.028   8.816   9.282
95725SOL    HW189014  13.961   8.804   9.215
95725SOL    HW289015  14.106   8.776   9.245
95726SOL     OW89016   9.509   6.696  12.604
95726SOL    HW189017   9.523   6.695  12.509
95726SOL    HW289018   9.513   6.603  12.629
95727SOL     OW89019   4.991   6.934  14.504
95727SOL    HW189020   5.031   6.872  14.565
95727SOL    HW289021   4.934   6.988  14.559
95728SOL     OW89022  11.463   4.996   1.528
95728SOL    HW189023  11.520   4.969   1.457
95728SOL    HW289024  11.374   4.978   1.496
95729SOL     OW89025   5.556   3.710   8.564
95729SOL    HW189026   5.478   3.763   8.547
95729SOL    HW289027   5.564   3.653   8.488
95730SOL     OW89028   2.300   6.667  12.288
95730SOL    HW189029   2.222   6.668  12.344
95730SOL    HW289030   2.359   6.730  12.330
95731SOL     OW89031   6.946   7.624   7.980
95731SOL    HW189032   6.989   7.540   7.961
95731SOL    HW289033   6.873   7.600   8.038
95732SOL     OW89034  14.771   4.527  14.399
95732SOL    HW189035  14.737   4.501  14.313
95732SOL    HW289036  14.718   4.603  14.424
95733SOL     OW89037   9.695   1.644   3.712
95733SOL    HW189038   9.624   1.656   3.648
95733SOL    HW289039   9.656   1.669   3.796
95734SOL     OW89040  11.371   5.014  11.581
95734SOL    HW189041  11.344   5.080  11.517
95734SOL    HW289042  11.291   4.964  11.599
95735SOL     OW89043   9.059   5.596   3.362
95735SOL    HW189044   9.146   5.616   3.327
95735SOL    HW289045   9.069   5.602   3.456
95736SOL     OW89046  10.885  13.342   1.337
95736SOL    HW189047  10.930  13.333   1.422
95736SOL    HW289048  10.930  13.415   1.295
95737SOL     OW89049  14.482   9.236   8.567
95737SOL    HW189050  14.493   9.250   8.473
95737SOL    HW289051  14.570   9.219   8.600
95738SOL     OW89052   4.255   4.367   8.630
95738SOL    HW189053   4.180   4.316   8.600
95738SOL    HW289054   4.221   4.455   8.645
95739SOL     OW89055   8.632  13.554   4.608
95739SOL    HW189056   8.611  13.617   4.678
95739SOL    HW289057   8.709  13.591   4.565
95740SOL     OW89058   2.361   4.411   6.520
95740SOL    HW189059   2.333   4.348   6.454
95740SOL    HW289060   2.432   4.460   6.479
95741SOL     OW89061  13.392   7.708  12.462
95741SOL    HW189062  13.365   7.741  12.376
95741SOL    HW289063  13.335   7.633  12.478
95742SOL     OW89064   8.448  10.858  10.373
95742SOL    HW189065   8.487  10.787  10.322
95742SOL    HW289066   8.405  10.813  10.446
95743SOL     OW89067   9.775   1.069  11.794
95743SOL    HW189068   9.826   0.988  11.790
95743SOL    HW289069   9.727   1.071  11.712
95744SOL     OW89070   2.092   4.400   0.251
95744SOL    HW189071   2.169   4.358   0.212
95744SOL    HW289072   2.018   4.363   0.202
95745SOL     OW89073   1.561  10.081  12.351
95745SOL    HW189074   1.578   9.991  12.378
95745SOL    HW289075   1.591  10.085  12.260
95746SOL     OW89076  14.573   7.557   1.577
95746SOL    HW189077  14.494   7.514   1.542
95746SOL    HW289078  14.608   7.605   1.502
95747SOL     OW89079   0.744  14.450   8.136
95747SOL    HW189080   0.659  14.474   8.173
95747SOL    HW289081   0.795  14.421   8.211
95748SOL     OW89082   9.756   0.350  12.194
95748SOL    HW189083   9.842   0.383  12.170
95748SOL    HW289084   9.697   0.425  12.181
95749SOL     OW89085   9.627   9.068   4.190
95749SOL    HW189086   9.600   8.983   4.154
95749SOL    HW289087   9.720   9.075   4.168
95750SOL     OW89088   5.284   9.238  13.119
95750SOL    HW189089   5.322   9.221  13.033
95750SOL    HW289090   5.296   9.332  13.133
95751SOL     OW89091  13.511   6.916   6.268
95751SOL    HW189092  13.511   6.821   6.258
95751SOL    HW289093  13.551   6.949   6.188
95752SOL     OW89094  10.351   9.604   6.703
95752SOL    HW189095  10.280   9.578   6.761
95752SOL    HW289096  10.431   9.593   6.755
95753SOL     OW89097   6.581   0.608  10.437
95753SOL    HW189098   6.526   0.677  10.475
95753SOL    HW289099   6.660   0.607  10.492
95754SOL     OW89100   2.275  13.040   2.172
95754SOL    HW189101   2.356  13.019   2.125
95754SOL    HW289102   2.205  13.016   2.111
95755SOL     OW89103   9.705  11.474  10.563
95755SOL    HW189104   9.778  11.423  10.530
95755SOL    HW289105   9.729  11.495  10.654
95756SOL     OW89106   7.971   3.840   5.975
95756SOL    HW189107   8.041   3.785   5.940
95756SOL    HW289108   7.899   3.830   5.913
95757SOL     OW89109   8.885  14.059  11.225
95757SOL    HW189110   8.839  14.122  11.170
95757SOL    HW289111   8.819  13.993  11.247
95758SOL     OW89112  10.354   4.550  10.108
95758SOL    HW189113  10.397   4.609  10.170
95758SOL    HW289114  10.270   4.591  10.090
95759SOL     OW89115  12.977   0.925  13.372
95759SOL    HW189116  12.904   0.985  13.381
95759SOL    HW289117  12.964   0.861  13.442
95760SOL     OW89118   2.284   8.433   2.767
95760SOL    HW189119   2.361   8.462   2.718
95760SOL    HW289120   2.270   8.343   2.738
95761SOL     OW89121  12.890  12.109   5.592
95761SOL    HW189122  12.840  12.029   5.575
95761SOL    HW289123  12.903  12.108   5.687
95762SOL     OW89124   0.567  10.943   7.574
95762SOL    HW189125   0.607  11.026   7.600
95762SOL    HW289126   0.629  10.876   7.606
95763SOL     OW89127  10.633   6.782   7.005
95763SOL    HW189128  10.621   6.740   6.920
95763SOL    HW289129  10.643   6.710   7.067
95764SOL     OW89130   9.858   9.769   1.475
95764SOL    HW189131   9.900   9.778   1.560
95764SOL    HW289132   9.765   9.780   1.493
95765SOL     OW89133   0.756   5.428  10.822
95765SOL    HW189134   0.790   5.352  10.868
95765SOL    HW289135   0.680   5.395  10.773
95766SOL     OW89136   4.737  11.645   6.250
95766SOL    HW189137   4.717  11.622   6.160
95766SOL    HW289138   4.748  11.740   6.250
95767SOL     OW89139   0.691   9.989   4.611
95767SOL    HW189140   0.632   9.959   4.542
95767SOL    HW289141   0.636  10.041   4.669
95768SOL     OW89142   8.152   0.874   8.167
95768SOL    HW189143   8.244   0.898   8.172
95768SOL    HW289144   8.146   0.790   8.213
95769SOL     OW89145   2.851  11.639   2.370
95769SOL    HW189146   2.790  11.704   2.334
95769SOL    HW289147   2.935  11.662   2.331
95770SOL     OW89148  13.378   3.275  14.737
95770SOL    HW189149  13.376   3.371  14.734
95770SOL    HW289150  13.313   3.248  14.672
95771SOL     OW89151  11.625   2.079   9.752
95771SOL    HW189152  11.561   2.051   9.687
95771SOL    HW289153  11.579   2.076   9.835
95772SOL     OW89154  14.377   1.182  14.023
95772SOL    HW189155  14.368   1.123  14.099
95772SOL    HW289156  14.358   1.269  14.058
95773SOL     OW89157   4.215  10.591   9.489
95773SOL    HW189158   4.133  10.586   9.439
95773SOL    HW289159   4.267  10.656   9.442
95774SOL     OW89160  14.417  12.112   1.102
95774SOL    HW189161  14.352  12.085   1.037
95774SOL    HW289162  14.487  12.152   1.052
95775SOL     OW89163   1.624  12.594  11.855
95775SOL    HW189164   1.587  12.662  11.911
95775SOL    HW289165   1.612  12.627  11.766
95776SOL     OW89166  13.400   1.420   3.200
95776SOL    HW189167  13.367   1.466   3.277
95776SOL    HW289168  13.470   1.365   3.234
95777SOL     OW89169   6.413   1.449   4.257
95777SOL    HW189170   6.348   1.435   4.188
95777SOL    HW289171   6.397   1.537   4.289
95778SOL     OW89172  13.228   6.507  11.280
95778SOL    HW189173  13.304   6.465  11.319
95778SOL    HW289174  13.230   6.480  11.188
95779SOL     OW89175  11.610   3.766   3.138
95779SOL    HW189176  11.685   3.715   3.109
95779SOL    HW289177  11.538   3.737   3.082
95780SOL     OW89178  11.409   0.354   3.617
95780SOL    HW189179  11.409   0.288   3.686
95780SOL    HW289180  11.327   0.340   3.570
95781SOL     OW89181  14.511   3.680   6.274
95781SOL    HW189182  14.462   3.760   6.257
95781SOL    HW289183  14.452   3.626   6.325
95782SOL     OW89184   6.104  11.477  10.152
95782SOL    HW189185   6.180  11.506  10.203
95782SOL    HW289186   6.113  11.524  10.069
95783SOL     OW89187  12.204   9.624   8.910
95783SOL    HW189188  12.182   9.648   8.820
95783SOL    HW289189  12.120   9.607   8.952
95784SOL     OW89190  12.690   3.642   1.586
95784SOL    HW189191  12.769   3.596   1.558
95784SOL    HW289192  12.675   3.614   1.676
95785SOL     OW89193   0.137   6.870  12.669
95785SOL    HW189194   0.095   6.945  12.626
95785SOL    HW289195   0.180   6.908  12.746
95786SOL     OW89196   7.814  14.825   7.803
95786SOL    HW189197   7.746   0.011   7.803
95786SOL    HW289198   7.799  14.775   7.723
95787SOL     OW89199  11.418  14.812  14.448
95787SOL    HW189200  11.373  14.837  14.367
95787SOL    HW289201  11.491  14.758  14.419
95788SOL     OW89202   3.004  14.815   3.303
95788SOL    HW189203   2.958  14.822   3.219
95788SOL    HW289204   3.096  14.825   3.280
95789SOL     OW89205   5.702  13.307   1.249
95789SOL    HW189206   5.784  13.354   1.235
95789SOL    HW289207   5.656  13.358   1.315
95790SOL     OW89208  11.537   7.550   0.394
95790SOL    HW189209  11.453   7.593   0.381
95790SOL    HW289210  11.601   7.621   0.392
95791SOL     OW89211   0.547   8.233  12.426
95791SOL    HW189212   0.635   8.200  12.410
95791SOL    HW289213   0.558   8.326  12.442
95792SOL     OW89214  10.921   4.117  14.507
95792SOL    HW189215  10.858   4.151  14.571
95792SOL    HW289216  10.937   4.027  14.534
95793SOL     OW89217   9.755   7.836   4.801
95793SOL    HW189218   9.818   7.846   4.730
95793SOL    HW289219   9.760   7.919   4.850
95794SOL     OW89220   1.421   6.522   6.897
95794SOL    HW189221   1.417   6.609   6.857
95794SOL    HW289222   1.514   6.506   6.912
95795SOL     OW89223  14.361   1.990  14.730
95795SOL    HW189224  14.309   2.008  14.809
95795SOL    HW289225  14.434   2.051  14.735
95796SOL     OW89226  13.541   9.595  13.214
95796SOL    HW189227  13.535   9.654  13.289
95796SOL    HW289228  13.635   9.587  13.198
95797SOL     OW89229   4.270   4.788   9.468
95797SOL    HW189230   4.197   4.849   9.480
95797SOL    HW289231   4.233   4.716   9.417
95798SOL     OW89232  13.056  14.167  13.270
95798SOL    HW189233  13.085  14.226  13.340
95798SOL    HW289234  12.965  14.194  13.252
95799SOL     OW89235  13.058   7.898  11.945
95799SOL    HW189236  13.002   7.924  11.872
95799SOL    HW289237  13.000   7.897  12.021
95800SOL     OW89238  10.988   6.518   4.299
95800SOL    HW189239  11.025   6.605   4.313
95800SOL    HW289240  10.905   6.534   4.255
95801SOL     OW89241  11.247   4.265   8.500
95801SOL    HW189242  11.174   4.324   8.517
95801SOL    HW289243  11.249   4.206   8.576
95802SOL     OW89244   9.650   2.560   8.534
95802SOL    HW189245   9.678   2.473   8.561
95802SOL    HW289246   9.558   2.565   8.561
95803SOL     OW89247  12.146  11.326   6.788
95803SOL    HW189248  12.108  11.295   6.870
95803SOL    HW289249  12.226  11.274   6.777
95804SOL     OW89250   5.959   0.903   4.124
95804SOL    HW189251   6.038   0.851   4.137
95804SOL    HW289252   5.929   0.880   4.037
95805SOL     OW89253   5.851  12.355  12.031
95805SOL    HW189254   5.837  12.270  11.991
95805SOL    HW289255   5.870  12.336  12.123
95806SOL     OW89256  11.987  10.922   9.515
95806SOL    HW189257  12.071  10.920   9.562
95806SOL    HW289258  12.008  10.890   9.427
95807SOL     OW89259   8.670   2.062   4.005
95807SOL    HW189260   8.660   1.998   4.075
95807SOL    HW289261   8.588   2.112   4.007
95808SOL     OW89262   1.664   9.508   1.213
95808SOL    HW189263   1.632   9.420   1.233
95808SOL    HW289264   1.756   9.506   1.238
95809SOL     OW89265  10.201   7.187  10.717
95809SOL    HW189266  10.174   7.196  10.626
95809SOL    HW289267  10.218   7.277  10.746
95810SOL     OW89268   8.525   0.969   0.974
95810SOL    HW189269   8.464   0.899   0.953
95810SOL    HW289270   8.534   1.018   0.892
95811SOL     OW89271   2.126   1.976   7.657
95811SOL    HW189272   2.069   1.901   7.670
95811SOL    HW289273   2.066   2.049   7.641
95812SOL     OW89274   1.004   1.359   7.427
95812SOL    HW189275   0.979   1.352   7.335
95812SOL    HW289276   1.038   1.272   7.448
95813SOL     OW89277   1.716   9.496   9.629
95813SOL    HW189278   1.739   9.412   9.670
95813SOL    HW289279   1.628   9.516   9.663
95814SOL     OW89280   7.913   8.783   3.792
95814SOL    HW189281   7.973   8.831   3.850
95814SOL    HW289282   7.945   8.693   3.793
95815SOL     OW89283   7.312   8.245   6.235
95815SOL    HW189284   7.292   8.246   6.141
95815SOL    HW289285   7.408   8.249   6.238
95816SOL     OW89286   9.204  14.127  13.144
95816SOL    HW189287   9.138  14.171  13.089
95816SOL    HW289288   9.232  14.053  13.091
95817SOL     OW89289  10.415   2.769   5.311
95817SOL    HW189290  10.332   2.762   5.359
95817SOL    HW289291  10.395   2.823   5.235
95818SOL     OW89292   8.642   2.301  11.459
95818SOL    HW189293   8.592   2.339  11.531
95818SOL    HW289294   8.678   2.219  11.495
95819SOL     OW89295   0.080   0.677   2.035
95819SOL    HW189296   0.093   0.591   1.995
95819SOL    HW289297   0.092   0.739   1.963
95820SOL     OW89298  13.164   0.445  13.417
95820SOL    HW189299  13.114   0.502  13.359
95820SOL    HW289300  13.208   0.504  13.477
95821SOL     OW89301   0.656   4.498   3.442
95821SOL    HW189302   0.690   4.515   3.529
95821SOL    HW289303   0.672   4.404   3.427
95822SOL     OW89304   2.322   2.557  12.300
95822SOL    HW189305   2.355   2.519  12.219
95822SOL    HW289306   2.282   2.639  12.273
95823SOL     OW89307   0.511  13.937   9.157
95823SOL    HW189308   0.481  13.990   9.232
95823SOL    HW289309   0.524  13.850   9.193
95824SOL     OW89310   0.592   9.845  14.429
95824SOL    HW189311   0.670   9.890  14.397
95824SOL    HW289312   0.623   9.760  14.458
95825SOL     OW89313  10.491  12.019   6.337
95825SOL    HW189314  10.561  11.955   6.338
95825SOL    HW289315  10.536  12.104   6.332
95826SOL     OW89316   0.437   1.479   3.366
95826SOL    HW189317   0.506   1.466   3.301
95826SOL    HW289318   0.356   1.457   3.320
95827SOL     OW89319  12.485   1.884  14.318
95827SOL    HW189320  12.563   1.920  14.358
95827SOL    HW289321  12.516   1.842  14.238
95828SOL     OW89322   7.165  11.537  12.981
95828SOL    HW189323   7.251  11.496  12.973
95828SOL    HW289324   7.180  11.615  13.035
95829SOL     OW89325   9.898   7.494   5.163
95829SOL    HW189326   9.920   7.541   5.083
95829SOL    HW289327   9.956   7.417   5.163
95830SOL     OW89328   2.881   8.432   6.978
95830SOL    HW189329   2.861   8.469   7.065
95830SOL    HW289330   2.960   8.380   6.992
95831SOL     OW89331   5.163  13.378   1.754
95831SOL    HW189332   5.124  13.290   1.756
95831SOL    HW289333   5.172  13.402   1.846
95832SOL     OW89334  11.513  10.435   1.766
95832SOL    HW189335  11.465  10.360   1.730
95832SOL    HW289336  11.448  10.505   1.774
95833SOL     OW89337   1.478  13.729   9.106
95833SOL    HW189338   1.538  13.703   9.036
95833SOL    HW289339   1.508  13.816   9.132
95834SOL     OW89340   2.320  13.634   1.224
95834SOL    HW189341   2.290  13.721   1.198
95834SOL    HW289342   2.384  13.651   1.294
95835SOL     OW89343  14.087  14.184   4.757
95835SOL    HW189344  14.139  14.181   4.677
95835SOL    HW289345  13.996  14.182   4.727
95836SOL     OW89346  12.582   8.417  10.550
95836SOL    HW189347  12.595   8.492  10.493
95836SOL    HW289348  12.646   8.429  10.620
95837SOL     OW89349   2.058  11.300   8.730
95837SOL    HW189350   2.027  11.255   8.651
95837SOL    HW289351   2.035  11.392   8.715
95838SOL     OW89352   3.324   2.797  10.697
95838SOL    HW189353   3.355   2.709  10.677
95838SOL    HW289354   3.241   2.805  10.650
95839SOL     OW89355  13.742   1.510   8.106
95839SOL    HW189356  13.810   1.571   8.078
95839SOL    HW289357  13.671   1.523   8.043
95840SOL     OW89358  13.677   7.180  12.635
95840SOL    HW189359  13.692   7.223  12.719
95840SOL    HW289360  13.635   7.097  12.657
95841SOL     OW89361   7.333   2.874   4.812
95841SOL    HW189362   7.399   2.839   4.752
95841SOL    HW289363   7.263   2.906   4.754
95842SOL     OW89364  10.598   4.546   5.376
95842SOL    HW189365  10.601   4.461   5.420
95842SOL    HW289366  10.608   4.525   5.283
95843SOL     OW89367   7.750   4.701  11.562
95843SOL    HW189368   7.818   4.635  11.576
95843SOL    HW289369   7.677   4.653  11.524
95844SOL     OW89370   3.819  11.233  10.081
95844SOL    HW189371   3.813  11.187  10.164
95844SOL    HW289372   3.894  11.292  10.091
95845SOL     OW89373   9.417  10.111   6.463
95845SOL    HW189374   9.354  10.056   6.416
95845SOL    HW289375   9.500  10.095   6.418
95846SOL     OW89376  11.954  14.222   9.562
95846SOL    HW189377  11.950  14.126   9.563
95846SOL    HW289378  11.992  14.245   9.647
95847SOL     OW89379   6.184   4.946   9.889
95847SOL    HW189380   6.134   4.878   9.935
95847SOL    HW289381   6.122   5.017   9.876
95848SOL     OW89382   5.787   2.516  11.365
95848SOL    HW189383   5.736   2.452  11.316
95848SOL    HW289384   5.780   2.487  11.456
95849SOL     OW89385   7.684   4.516   5.287
95849SOL    HW189386   7.616   4.578   5.262
95849SOL    HW289387   7.639   4.454   5.345
95850SOL     OW89388   2.026   8.857   5.334
95850SOL    HW189389   2.053   8.829   5.421
95850SOL    HW289390   1.961   8.792   5.306
95851SOL     OW89391   6.345   4.261   9.114
95851SOL    HW189392   6.399   4.261   9.194
95851SOL    HW289393   6.300   4.345   9.117
95852SOL     OW89394   5.974   2.858  12.607
95852SOL    HW189395   5.963   2.774  12.651
95852SOL    HW289396   6.047   2.843  12.546
95853SOL     OW89397   7.085   6.629  13.087
95853SOL    HW189398   7.107   6.627  12.993
95853SOL    HW289399   7.165   6.597  13.130
95854SOL     OW89400  13.086  10.650   2.752
95854SOL    HW189401  13.078  10.669   2.845
95854SOL    HW289402  13.156  10.708   2.721
95855SOL     OW89403   3.696   5.352   4.292
95855SOL    HW189404   3.677   5.437   4.253
95855SOL    HW289405   3.748   5.372   4.370
95856SOL     OW89406   0.742  11.214   7.869
95856SOL    HW189407   0.766  11.143   7.810
95856SOL    HW289408   0.648  11.226   7.855
95857SOL     OW89409   8.156   6.026  13.409
95857SOL    HW189410   8.120   6.072  13.485
95857SOL    HW289411   8.233   6.078  13.385
95858SOL     OW89412   2.714  10.474  13.130
95858SOL    HW189413   2.793  10.439  13.172
95858SOL    HW289414   2.704  10.422  13.050
95859SOL     OW89415   3.756  10.417   2.271
95859SOL    HW189416   3.825  10.481   2.252
95859SOL    HW289417   3.674  10.463   2.249
95860SOL     OW89418  12.040   3.404   3.618
95860SOL    HW189419  12.100   3.430   3.689
95860SOL    HW289420  11.975   3.349   3.662
95861SOL     OW89421   7.027   4.935   8.607
95861SOL    HW189422   7.118   4.911   8.587
95861SOL    HW289423   7.020   4.921   8.701
95862SOL     OW89424  13.042   4.606  10.753
95862SOL    HW189425  13.057   4.645  10.667
95862SOL    HW289426  13.002   4.677  10.804
95863SOL     OW89427   6.571   4.780  13.091
95863SOL    HW189428   6.480   4.762  13.116
95863SOL    HW289429   6.596   4.706  13.036
95864SOL     OW89430  11.370  14.873  13.974
95864SOL    HW189431  11.289  14.823  13.971
95864SOL    HW289432  11.392   0.008  13.882
95865SOL     OW89433   0.513  13.473   6.624
95865SOL    HW189434   0.487  13.398   6.677
95865SOL    HW289435   0.606  13.460   6.607
95866SOL     OW89436   7.268   0.525   9.825
95866SOL    HW189437   7.191   0.579   9.842
95866SOL    HW289438   7.317   0.525   9.907
95867SOL     OW89439   7.929   3.014   6.713
95867SOL    HW189440   8.018   3.048   6.723
95867SOL    HW289441   7.940   2.919   6.710
95868SOL     OW89442   7.849  12.052   8.802
95868SOL    HW189443   7.899  12.046   8.721
95868SOL    HW289444   7.832  11.961   8.826
95869SOL     OW89445   8.897   1.095   3.957
95869SOL    HW189446   8.824   1.057   3.908
95869SOL    HW289447   8.855   1.148   4.025
95870SOL     OW89448   4.723   5.708   1.575
95870SOL    HW189449   4.652   5.644   1.575
95870SOL    HW289450   4.721   5.747   1.487
95871SOL     OW89451   7.189  10.231   5.349
95871SOL    HW189452   7.140  10.306   5.315
95871SOL    HW289453   7.281  10.255   5.336
95872SOL     OW89454   2.574   5.389  11.153
95872SOL    HW189455   2.526   5.352  11.227
95872SOL    HW289456   2.571   5.483  11.167
95873SOL     OW89457   5.635  14.774  10.878
95873SOL    HW189458   5.677  14.721  10.811
95873SOL    HW289459   5.695  14.772  10.952
95874SOL     OW89460  11.247   0.610  12.437
95874SOL    HW189461  11.214   0.654  12.358
95874SOL    HW289462  11.335   0.646  12.450
95875SOL     OW89463  13.784  11.560   7.846
95875SOL    HW189464  13.867  11.515   7.828
95875SOL    HW289465  13.808  11.653   7.851
95876SOL     OW89466   0.563  10.893   9.695
95876SOL    HW189467   0.569  10.879   9.789
95876SOL    HW289468   0.471  10.914   9.679
95877SOL     OW89469  13.482  11.962   9.017
95877SOL    HW189470  13.455  11.944   9.107
95877SOL    HW289471  13.405  12.002   8.976
95878SOL     OW89472  14.194  10.629  12.951
95878SOL    HW189473  14.186  10.565  13.021
95878SOL    HW289474  14.150  10.707  12.984
95879SOL     OW89475   5.524   4.721   0.603
95879SOL    HW189476   5.481   4.791   0.653
95879SOL    HW289477   5.613   4.719   0.637
95880SOL     OW89478   5.490  11.234  10.162
95880SOL    HW189479   5.406  11.207  10.123
95880SOL    HW289480   5.518  11.158  10.213
95881SOL     OW89481   0.202   6.582   4.969
95881SOL    HW189482   0.254   6.506   4.939
95881SOL    HW289483   0.111   6.556   4.954
95882SOL     OW89484  13.803   2.651   5.794
95882SOL    HW189485  13.857   2.726   5.817
95882SOL    HW289486  13.722   2.663   5.844
95883SOL     OW89487   0.152   0.108   4.997
95883SOL    HW189488   0.121   0.071   5.079
95883SOL    HW289489   0.172   0.033   4.942
95884SOL     OW89490  14.835  14.000   0.044
95884SOL    HW189491  14.870  13.986   0.132
95884SOL    HW289492  14.843  13.914   0.002
95885SOL     OW89493   7.501   5.705   5.326
95885SOL    HW189494   7.592   5.674   5.325
95885SOL    HW289495   7.454   5.645   5.269
95886SOL     OW89496   9.403   4.020   5.695
95886SOL    HW189497   9.345   4.036   5.620
95886SOL    HW289498   9.343   3.996   5.766
95887SOL     OW89499   4.767  11.595   3.010
95887SOL    HW189500   4.840  11.653   2.988
95887SOL    HW289501   4.806  11.528   3.065
95888SOL     OW89502   3.883  10.185   0.263
95888SOL    HW189503   3.896  10.266   0.312
95888SOL    HW289504   3.952  10.185   0.196
95889SOL     OW89505   5.218  11.139   9.016
95889SOL    HW189506   5.259  11.067   8.968
95889SOL    HW289507   5.204  11.104   9.104
95890SOL     OW89508   1.200   5.855  12.253
95890SOL    HW189509   1.215   5.918  12.183
95890SOL    HW289510   1.170   5.776  12.208
95891SOL     OW89511   9.922   1.310   6.053
95891SOL    HW189512   9.943   1.386   5.998
95891SOL    HW289513  10.004   1.262   6.059
95892SOL     OW89514   0.980  13.432  11.787
95892SOL    HW189515   0.946  13.415  11.700
95892SOL    HW289516   1.066  13.391  11.788
95893SOL     OW89517   1.055  10.519   6.717
95893SOL    HW189518   0.969  10.558   6.701
95893SOL    HW289519   1.106  10.543   6.640
95894SOL     OW89520  10.738   3.279   6.423
95894SOL    HW189521  10.716   3.186   6.422
95894SOL    HW289522  10.823   3.283   6.467
95895SOL     OW89523   0.465   5.903   4.452
95895SOL    HW189524   0.516   5.872   4.377
95895SOL    HW289525   0.509   5.984   4.478
95896SOL     OW89526   5.452  13.268   6.434
95896SOL    HW189527   5.382  13.333   6.430
95896SOL    HW289528   5.463  13.249   6.527
95897SOL     OW89529  10.161   3.364   9.902
95897SOL    HW189530  10.100   3.379   9.830
95897SOL    HW289531  10.114   3.395   9.979
95898SOL     OW89532  10.753  14.438  14.004
95898SOL    HW189533  10.754  14.343  13.988
95898SOL    HW289534  10.660  14.459  14.016
95899SOL     OW89535   1.649  14.253  13.780
95899SOL    HW189536   1.648  14.214  13.867
95899SOL    HW289537   1.717  14.320  13.784
95900SOL     OW89538   3.655   8.007   8.292
95900SOL    HW189539   3.670   8.098   8.265
95900SOL    HW289540   3.693   8.001   8.380
95901SOL     OW89541   9.085  13.357   4.910
95901SOL    HW189542   9.016  13.302   4.871
95901SOL    HW289543   9.097  13.428   4.846
95902SOL     OW89544   7.155   5.860   2.861
95902SOL    HW189545   7.190   5.822   2.942
95902SOL    HW289546   7.068   5.822   2.852
95903SOL     OW89547   7.251  12.510   8.345
95903SOL    HW189548   7.236  12.416   8.337
95903SOL    HW289549   7.322  12.518   8.408
95904SOL     OW89550  12.303   2.910   5.293
95904SOL    HW189551  12.390   2.899   5.254
95904SOL    HW289552  12.315   2.882   5.384
95905SOL     OW89553   9.788   0.221   9.716
95905SOL    HW189554   9.779   0.259   9.628
95905SOL    HW289555   9.700   0.190   9.738
95906SOL     OW89556  11.377   8.334  10.413
95906SOL    HW189557  11.329   8.258  10.447
95906SOL    HW289558  11.416   8.373  10.491
95907SOL     OW89559  13.966   7.138   5.133
95907SOL    HW189560  13.930   7.206   5.077
95907SOL    HW289561  13.974   7.179   5.219
95908SOL     OW89562   6.010   1.520   1.233
95908SOL    HW189563   6.057   1.437   1.247
95908SOL    HW289564   5.938   1.497   1.175
95909SOL     OW89565  14.737   7.085   3.616
95909SOL    HW189566  14.813   7.132   3.652
95909SOL    HW289567  14.684   7.153   3.575
95910SOL     OW89568   6.721   6.311   5.663
95910SOL    HW189569   6.642   6.318   5.609
95910SOL    HW289570   6.689   6.315   5.753
95911SOL     OW89571   3.032   4.279  10.473
95911SOL    HW189572   3.090   4.227  10.417
95911SOL    HW289573   3.090   4.345  10.512
95912SOL     OW89574   5.325   4.183  11.236
95912SOL    HW189575   5.342   4.089  11.241
95912SOL    HW289576   5.404   4.219  11.195
95913SOL     OW89577   7.917   5.440   4.992
95913SOL    HW189578   7.846   5.407   5.047
95913SOL    HW289579   7.961   5.505   5.047
95914SOL     OW89580  10.618  11.358   2.862
95914SOL    HW189581  10.683  11.421   2.831
95914SOL    HW289582  10.534  11.402   2.848
95915SOL     OW89583  14.003   9.407   2.625
95915SOL    HW189584  13.908   9.409   2.612
95915SOL    HW289585  14.038   9.376   2.542
95916SOL     OW89586  12.346   4.340  10.054
95916SOL    HW189587  12.336   4.298  10.139
95916SOL    HW289588  12.257   4.351  10.022
95917SOL     OW89589   9.440   4.523  11.590
95917SOL    HW189590   9.456   4.589  11.658
95917SOL    HW289591   9.430   4.441  11.638
95918SOL     OW89592   6.745  10.282   5.324
95918SOL    HW189593   6.749  10.300   5.230
95918SOL    HW289594   6.690  10.204   5.331
95919SOL     OW89595  14.189   0.816  14.541
95919SOL    HW189596  14.239   0.751  14.590
95919SOL    HW289597  14.250   0.888  14.528
95920SOL     OW89598   9.549   4.055   2.590
95920SOL    HW189599   9.594   4.116   2.531
95920SOL    HW289600   9.457   4.062   2.567
95921SOL     OW89601   4.605   4.692   7.987
95921SOL    HW189602   4.602   4.786   8.006
95921SOL    HW289603   4.518   4.672   7.953
95922SOL     OW89604  12.203  14.063   0.596
95922SOL    HW189605  12.290  14.105   0.594
95922SOL    HW289606  12.222  13.970   0.598
95923SOL     OW89607   7.764   2.243   6.902
95923SOL    HW189608   7.757   2.188   6.979
95923SOL    HW289609   7.856   2.237   6.877
95924SOL     OW89610  13.950   5.382  11.552
95924SOL    HW189611  13.860   5.367  11.524
95924SOL    HW289612  13.943   5.448  11.621
95925SOL     OW89613   4.296   4.010  13.727
95925SOL    HW189614   4.327   3.920  13.743
95925SOL    HW289615   4.208   3.999  13.692
95926SOL     OW89616   6.801   3.077   7.359
95926SOL    HW189617   6.855   3.125   7.296
95926SOL    HW289618   6.744   3.143   7.397
95927SOL     OW89619   1.398  14.695   3.289
95927SOL    HW189620   1.437  14.696   3.377
95927SOL    HW289621   1.456  14.640   3.237
95928SOL     OW89622   7.472   6.387   3.381
95928SOL    HW189623   7.532   6.387   3.306
95928SOL    HW289624   7.509   6.323   3.441
95929SOL     OW89625   7.189   7.194   9.806
95929SOL    HW189626   7.231   7.277   9.830
95929SOL    HW289627   7.105   7.220   9.768
95930SOL     OW89628   3.595   2.532  14.519
95930SOL    HW189629   3.664   2.598  14.524
95930SOL    HW289630   3.590   2.509  14.426
95931SOL     OW89631   1.363  10.470   4.269
95931SOL    HW189632   1.287  10.430   4.227
95931SOL    HW289633   1.344  10.564   4.267
95932SOL     OW89634   9.109   5.117   2.255
95932SOL    HW189635   9.066   5.200   2.234
95932SOL    HW289636   9.076   5.094   2.342
95933SOL     OW89637   6.812   7.721   6.732
95933SOL    HW189638   6.744   7.686   6.789
95933SOL    HW289639   6.773   7.721   6.644
95934SOL     OW89640   7.061   3.257  12.891
95934SOL    HW189641   7.071   3.207  12.810
95934SOL    HW289642   7.094   3.345  12.869
95935SOL     OW89643   1.678  10.616   3.182
95935SOL    HW189644   1.611  10.671   3.142
95935SOL    HW289645   1.634  10.574   3.256
95936SOL     OW89646   8.450   4.720   4.686
95936SOL    HW189647   8.370   4.691   4.643
95936SOL    HW289648   8.500   4.640   4.702
95937SOL     OW89649   0.766   1.041   2.299
95937SOL    HW189650   0.699   1.104   2.324
95937SOL    HW289651   0.724   0.956   2.307
95938SOL     OW89652  12.604   9.430   3.407
95938SOL    HW189653  12.687   9.393   3.436
95938SOL    HW289654  12.594   9.401   3.317
95939SOL     OW89655  12.695  12.315   4.783
95939SOL    HW189656  12.646  12.248   4.735
95939SOL    HW289657  12.786  12.301   4.756
95940SOL     OW89658   0.105   9.334   2.930
95940SOL    HW189659   0.148   9.408   2.971
95940SOL    HW289660   0.072   9.281   3.003
95941SOL     OW89661   0.342   3.383   7.695
95941SOL    HW189662   0.327   3.424   7.780
95941SOL    HW289663   0.395   3.447   7.646
95942SOL     OW89664  11.294  13.737  10.471
95942SOL    HW189665  11.303  13.695  10.556
95942SOL    HW289666  11.305  13.830  10.488
95943SOL     OW89667   5.871   1.854   2.775
95943SOL    HW189668   5.838   1.801   2.702
95943SOL    HW289669   5.925   1.795   2.826
95944SOL     OW89670   4.112   3.618  14.536
95944SOL    HW189671   4.020   3.608  14.562
95944SOL    HW289672   4.161   3.577  14.606
95945SOL     OW89673   3.374   2.221   5.727
95945SOL    HW189674   3.412   2.240   5.641
95945SOL    HW289675   3.437   2.259   5.790
95946SOL     OW89676  11.528   9.150   0.072
95946SOL    HW189677  11.565   9.156   0.160
95946SOL    HW289678  11.512   9.056   0.059
95947SOL     OW89679   1.774   7.756  10.290
95947SOL    HW189680   1.795   7.848  10.273
95947SOL    HW289681   1.790   7.745  10.384
95948SOL     OW89682   5.514   3.449   2.598
95948SOL    HW189683   5.556   3.489   2.675
95948SOL    HW289684   5.514   3.356   2.617
95949SOL     OW89685   9.929  13.851   4.768
95949SOL    HW189686   9.958  13.770   4.810
95949SOL    HW289687   9.888  13.822   4.686
95950SOL     OW89688   9.892   1.844   4.401
95950SOL    HW189689   9.813   1.890   4.429
95950SOL    HW289690   9.925   1.895   4.327
95951SOL     OW89691   8.547   9.925   8.073
95951SOL    HW189692   8.637   9.953   8.083
95951SOL    HW289693   8.507   9.990   8.015
95952SOL     OW89694   7.967  10.046   1.005
95952SOL    HW189695   7.997   9.955   1.009
95952SOL    HW289696   7.875  10.042   1.034
95953SOL     OW89697   3.416   8.409   6.949
95953SOL    HW189698   3.366   8.334   6.916
95953SOL    HW289699   3.451   8.379   7.033
95954SOL     OW89700   4.070   4.801  11.707
95954SOL    HW189701   4.006   4.753  11.761
95954SOL    HW289702   4.032   4.800  11.619
95955SOL     OW89703   3.852  10.763  14.306
95955SOL    HW189704   3.874  10.754  14.213
95955SOL    HW289705   3.934  10.747  14.352
95956SOL     OW89706  11.347   8.779  11.297
95956SOL    HW189707  11.439   8.793  11.318
95956SOL    HW289708  11.306   8.864  11.312
95957SOL     OW89709   7.730  11.720   0.145
95957SOL    HW189710   7.682  11.652   0.099
95957SOL    HW289711   7.711  11.705   0.238
95958SOL     OW89712   4.718  12.454   7.542
95958SOL    HW189713   4.653  12.507   7.497
95958SOL    HW289714   4.794  12.511   7.552
95959SOL     OW89715  14.581   9.719   2.098
95959SOL    HW189716  14.491   9.750   2.113
95959SOL    HW289717  14.625   9.735   2.181
95960SOL     OW89718   3.350  14.341  13.223
95960SOL    HW189719   3.383  14.251  13.229
95960SOL    HW289720   3.299  14.343  13.142
95961SOL     OW89721  12.404  13.902   9.982
95961SOL    HW189722  12.468  13.970   9.961
95961SOL    HW289723  12.339  13.947  10.036
95962SOL     OW89724   6.172  14.218   6.315
95962SOL    HW189725   6.222  14.138   6.327
95962SOL    HW289726   6.081  14.188   6.311
95963SOL     OW89727   9.281   1.471   3.998
95963SOL    HW189728   9.275   1.545   4.059
95963SOL    HW289729   9.298   1.511   3.913
95964SOL     OW89730   3.014   6.417   2.378
95964SOL    HW189731   2.925   6.407   2.343
95964SOL    HW289732   3.003   6.407   2.472
95965SOL     OW89733  10.925   6.543   0.540
95965SOL    HW189734  10.952   6.620   0.590
95965SOL    HW289735  10.865   6.497   0.598
95966SOL     OW89736   2.189   3.940   3.689
95966SOL    HW189737   2.123   3.880   3.723
95966SOL    HW289738   2.271   3.910   3.727
95967SOL     OW89739  13.353   5.309   1.136
95967SOL    HW189740  13.343   5.214   1.143
95967SOL    HW289741  13.378   5.324   1.044
95968SOL     OW89742   2.895  13.255   0.759
95968SOL    HW189743   2.976  13.304   0.771
95968SOL    HW289744   2.922  13.173   0.716
95969SOL     OW89745  14.655  10.380  10.756
95969SOL    HW189746  14.745  10.412  10.754
95969SOL    HW289747  14.657  10.307  10.818
95970SOL     OW89748   1.472   2.417   9.700
95970SOL    HW189749   1.379   2.403   9.685
95970SOL    HW289750   1.515   2.341   9.661
95971SOL     OW89751   7.911  14.288  11.842
95971SOL    HW189752   7.906  14.378  11.875
95971SOL    HW289753   7.964  14.294  11.763
95972SOL     OW89754   9.959  11.918   0.121
95972SOL    HW189755  10.014  11.857   0.071
95972SOL    HW289756   9.951  11.877   0.207
95973SOL     OW89757   0.389  13.468   3.968
95973SOL    HW189758   0.341  13.527   4.026
95973SOL    HW289759   0.394  13.516   3.885
95974SOL     OW89760  12.852   3.073  10.136
95974SOL    HW189761  12.908   3.025  10.075
95974SOL    HW289762  12.888   3.161  10.137
95975SOL     OW89763   3.941   7.367  13.784
95975SOL    HW189764   3.896   7.285  13.763
95975SOL    HW289765   3.870   7.429  13.804
95976SOL     OW89766  13.940   3.997   1.201
95976SOL    HW189767  13.948   4.080   1.248
95976SOL    HW289768  13.986   3.934   1.257
95977SOL     OW89769   4.300   3.139  12.506
95977SOL    HW189770   4.323   3.080  12.435
95977SOL    HW289771   4.291   3.082  12.583
95978SOL     OW89772   8.738   4.517   3.213
95978SOL    HW189773   8.779   4.477   3.290
95978SOL    HW289774   8.810   4.529   3.151
95979SOL     OW89775  13.266   7.491   4.985
95979SOL    HW189776  13.327   7.528   5.049
95979SOL    HW289777  13.312   7.416   4.947
95980SOL     OW89778   6.188  12.573   7.283
95980SOL    HW189779   6.208  12.623   7.361
95980SOL    HW289780   6.256  12.597   7.220
95981SOL     OW89781  11.156   8.227   3.075
95981SOL    HW189782  11.111   8.308   3.101
95981SOL    HW289783  11.169   8.180   3.157
95982SOL     OW89784   1.597  13.320   6.701
95982SOL    HW189785   1.597  13.305   6.606
95982SOL    HW289786   1.574  13.412   6.710
95983SOL     OW89787   7.449   9.506  13.948
95983SOL    HW189788   7.494   9.498  13.865
95983SOL    HW289789   7.461   9.598  13.973
95984SOL     OW89790   5.446   9.047   9.684
95984SOL    HW189791   5.376   9.079   9.741
95984SOL    HW289792   5.435   8.952   9.683
95985SOL     OW89793  13.891   6.591  12.131
95985SOL    HW189794  13.903   6.655  12.061
95985SOL    HW289795  13.927   6.634  12.209
95986SOL     OW89796   3.765  10.369   4.672
95986SOL    HW189797   3.799  10.304   4.733
95986SOL    HW289798   3.680  10.336   4.646
95987SOL     OW89799   9.901  10.705   7.043
95987SOL    HW189800   9.948  10.784   7.018
95987SOL    HW289801   9.967  10.636   7.041
95988SOL     OW89802   8.470   1.717   0.090
95988SOL    HW189803   8.432   1.684   0.008
95988SOL    HW289804   8.545   1.768   0.062
95989SOL     OW89805   9.536  13.537  11.315
95989SOL    HW189806   9.528  13.500  11.227
95989SOL    HW289807   9.496  13.471  11.372
95990SOL     OW89808   5.173  10.075   5.906
95990SOL    HW189809   5.111  10.140   5.937
95990SOL    HW289810   5.256  10.124   5.898
95991SOL     OW89811   5.200  14.683  12.777
95991SOL    HW189812   5.288  14.717  12.766
95991SOL    HW289813   5.165  14.728  12.854
95992SOL     OW89814   9.701  12.660  13.488
95992SOL    HW189815   9.750  12.593  13.440
95992SOL    HW289816   9.762  12.693  13.553
95993SOL     OW89817  14.215  13.738   5.072
95993SOL    HW189818  14.190  13.682   5.147
95993SOL    HW289819  14.309  13.721   5.061
95994SOL     OW89820   6.241   0.157   1.421
95994SOL    HW189821   6.311   0.104   1.459
95994SOL    HW289822   6.162   0.128   1.465
95995SOL     OW89823   3.316  12.085   2.257
95995SOL    HW189824   3.227  12.098   2.289
95995SOL    HW289825   3.306  12.072   2.163
95996SOL     OW89826   6.805  12.441  12.701
95996SOL    HW189827   6.796  12.536  12.707
95996SOL    HW289828   6.833  12.426  12.610
95997SOL     OW89829  10.204  13.748   1.930
95997SOL    HW189830  10.111  13.771   1.931
95997SOL    HW289831  10.246  13.810   1.990
95998SOL     OW89832  11.537   3.505   8.855
95998SOL    HW189833  11.614   3.529   8.908
95998SOL    HW289834  11.570   3.502   8.766
95999SOL     OW89835  14.289  13.592   5.887
95999SOL    HW189836  14.375  13.634   5.894
95999SOL    HW289837  14.271  13.589   5.793
96000SOL     OW89838   6.302  14.831   9.650
96000SOL    HW189839   6.276   0.029   9.602
96000SOL    HW289840   6.223  14.777   9.650
96001SOL     OW89841  13.369   5.957   4.577
96001SOL    HW189842  13.301   6.002   4.629
96001SOL    HW289843  13.382   6.014   4.502
96002SOL     OW89844  12.011  14.853  11.078
96002SOL    HW189845  11.966  14.850  10.994
96002SOL    HW289846  12.040  14.762  11.092
96003SOL     OW89847   8.404   2.994   4.158
96003SOL    HW189848   8.460   3.018   4.231
96003SOL    HW289849   8.390   3.075   4.110
96004SOL     OW89850   8.507   6.896   5.338
96004SOL    HW189851   8.439   6.841   5.302
96004SOL    HW289852   8.467   6.983   5.345
96005SOL     OW89853   1.349   5.155  12.330
96005SOL    HW189854   1.432   5.122  12.297
96005SOL    HW289855   1.294   5.078  12.339
96006SOL     OW89856   2.571   3.630   3.801
96006SOL    HW189857   2.559   3.542   3.838
96006SOL    HW289858   2.664   3.636   3.781
96007SOL     OW89859   4.791   8.137   2.000
96007SOL    HW189860   4.799   8.174   1.913
96007SOL    HW289861   4.819   8.207   2.059
96008SOL     OW89862   9.165   0.373   4.804
96008SOL    HW189863   9.215   0.294   4.787
96008SOL    HW289864   9.097   0.374   4.736
96009SOL     OW89865   7.526  14.583   7.547
96009SOL    HW189866   7.538  14.518   7.616
96009SOL    HW289867   7.604  14.639   7.552
96010SOL     OW89868   7.267   9.911   8.341
96010SOL    HW189869   7.273   9.816   8.347
96010SOL    HW289870   7.198   9.934   8.403
96011SOL     OW89871   9.026   4.677   4.602
96011SOL    HW189872   9.028   4.582   4.596
96011SOL    HW289873   8.960   4.704   4.537
96012SOL     OW89874   0.503   2.060  11.723
96012SOL    HW189875   0.511   2.151  11.751
96012SOL    HW289876   0.587   2.020  11.744
96013SOL     OW89877  13.455   3.216   0.487
96013SOL    HW189878  13.464   3.309   0.468
96013SOL    HW289879  13.518   3.173   0.429
96014SOL     OW89880  14.419   5.298   6.890
96014SOL    HW189881  14.331   5.271   6.916
96014SOL    HW289882  14.439   5.243   6.814
96015SOL     OW89883   7.879  12.194  14.333
96015SOL    HW189884   7.972  12.218  14.336
96015SOL    HW289885   7.843  12.227  14.416
96016SOL     OW89886   5.181   8.228   0.450
96016SOL    HW189887   5.215   8.144   0.417
96016SOL    HW289888   5.091   8.231   0.419
96017SOL     OW89889  14.210   2.323   8.368
96017SOL    HW189890  14.154   2.289   8.438
96017SOL    HW289891  14.216   2.417   8.385
96018SOL     OW89892   2.310   6.164  13.659
96018SOL    HW189893   2.316   6.252  13.694
96018SOL    HW289894   2.396   6.126  13.674
96019SOL     OW89895  13.908  11.716   0.862
96019SOL    HW189896  13.951  11.642   0.904
96019SOL    HW289897  13.818  11.713   0.895
96020SOL     OW89898  13.181   3.007   4.510
96020SOL    HW189899  13.270   2.995   4.544
96020SOL    HW289900  13.192   3.018   4.416
96021SOL     OW89901   4.051   4.720   0.861
96021SOL    HW189902   4.022   4.787   0.799
96021SOL    HW289903   4.146   4.725   0.859
96022SOL     OW89904   1.979   9.706  13.219
96022SOL    HW189905   2.032   9.677  13.293
96022SOL    HW289906   2.023   9.785  13.188
96023SOL     OW89907  11.628   1.326   7.694
96023SOL    HW189908  11.677   1.257   7.740
96023SOL    HW289909  11.583   1.280   7.623
96024SOL     OW89910   7.262   7.234   9.251
96024SOL    HW189911   7.343   7.231   9.202
96024SOL    HW289912   7.279   7.295   9.323
96025SOL     OW89913   5.145   9.489   7.434
96025SOL    HW189914   5.169   9.472   7.525
96025SOL    HW289915   5.089   9.416   7.410
96026SOL     OW89916  11.016   0.652  11.138
96026SOL    HW189917  11.061   0.729  11.103
96026SOL    HW289918  10.996   0.599  11.060
96027SOL     OW89919   7.914   9.172   3.201
96027SOL    HW189920   7.977   9.210   3.262
96027SOL    HW289921   7.939   9.208   3.116
96028SOL     OW89922  11.407   2.815   0.476
96028SOL    HW189923  11.327   2.826   0.424
96028SOL    HW289924  11.446   2.734   0.443
96029SOL     OW89925   6.194   1.568  11.685
96029SOL    HW189926   6.209   1.656  11.718
96029SOL    HW289927   6.149   1.523  11.756
96030SOL     OW89928   0.833   6.952   1.582
96030SOL    HW189929   0.763   6.983   1.640
96030SOL    HW289930   0.791   6.888   1.525
96031SOL     OW89931   3.309   3.625   8.577
96031SOL    HW189932   3.274   3.661   8.496
96031SOL    HW289933   3.317   3.700   8.635
96032SOL     OW89934   7.242   1.681   7.669
96032SOL    HW189935   7.302   1.706   7.599
96032SOL    HW289936   7.155   1.684   7.629
96033SOL     OW89937  11.550  14.498   5.408
96033SOL    HW189938  11.635  14.543   5.413
96033SOL    HW289939  11.570  14.414   5.368
96034SOL     OW89940   7.938   4.144   7.080
96034SOL    HW189941   7.987   4.100   7.011
96034SOL    HW289942   7.885   4.074   7.119
96035SOL     OW89943  10.023  11.432   2.988
96035SOL    HW189944  10.118  11.442   2.994
96035SOL    HW289945  10.008  11.338   2.986
96036SOL     OW89946   6.568   0.627   2.300
96036SOL    HW189947   6.500   0.610   2.235
96036SOL    HW289948   6.530   0.598   2.383
96037SOL     OW89949   4.547   9.393  13.893
96037SOL    HW189950   4.534   9.398  13.798
96037SOL    HW289951   4.465   9.356  13.926
96038SOL     OW89952   8.828  10.334   3.496
96038SOL    HW189953   8.855  10.426   3.485
96038SOL    HW289954   8.801  10.329   3.588
96039SOL     OW89955  13.005   4.000   6.681
96039SOL    HW189956  12.958   4.083   6.679
96039SOL    HW289957  12.966   3.952   6.755
96040SOL     OW89958   8.539   6.931   6.587
96040SOL    HW189959   8.505   6.996   6.648
96040SOL    HW289960   8.604   6.977   6.534
96041SOL     OW89961   7.302   8.139   0.627
96041SOL    HW189962   7.287   8.122   0.534
96041SOL    HW289963   7.375   8.081   0.650
96042SOL     OW89964   6.615   9.490   7.836
96042SOL    HW189965   6.539   9.507   7.779
96042SOL    HW289966   6.578   9.487   7.924
96043SOL     OW89967   0.899   9.803  12.620
96043SOL    HW189968   0.921   9.883  12.667
96043SOL    HW289969   0.953   9.736  12.661
96044SOL     OW89970   2.283   7.482   2.586
96044SOL    HW189971   2.306   7.389   2.588
96044SOL    HW289972   2.317   7.513   2.502
96045SOL     OW89973   8.901  12.907   2.294
96045SOL    HW189974   8.961  12.870   2.359
96045SOL    HW289975   8.848  12.969   2.344
96046SOL     OW89976   1.107   5.222  14.029
96046SOL    HW189977   1.026   5.173  14.037
96046SOL    HW289978   1.120   5.232  13.934
96047SOL     OW89979   6.995  13.976   3.099
96047SOL    HW189980   6.951  14.051   3.139
96047SOL    HW289981   7.068  14.015   3.051
96048SOL     OW89982   1.909   8.716   0.554
96048SOL    HW189983   1.847   8.699   0.483
96048SOL    HW289984   1.960   8.791   0.524
96049SOL     OW89985  13.137  11.451  12.449
96049SOL    HW189986  13.128  11.507  12.527
96049SOL    HW289987  13.065  11.389  12.456
96050SOL     OW89988   8.893  12.272   0.711
96050SOL    HW189989   8.877  12.187   0.671
96050SOL    HW289990   8.829  12.278   0.781
96051SOL     OW89991   4.372  14.667   1.548
96051SOL    HW189992   4.292  14.670   1.495
96051SOL    HW289993   4.425  14.740   1.515
96052SOL     OW89994   0.044   6.607  11.620
96052SOL    HW189995  14.870   6.549  11.672
96052SOL    HW289996   0.119   6.624  11.677
96053SOL     OW89997   8.211  11.446   4.421
96053SOL    HW189998   8.260  11.518   4.381
96053SOL    HW289999   8.266  11.418   4.495
96054SOL     OW90000   5.943   7.261   5.633
96054SOL    HW190001   5.928   7.287   5.542
96054SOL    HW290002   6.033   7.231   5.635
96055SOL     OW90003   4.719   8.724   3.626
96055SOL    HW190004   4.735   8.669   3.703
96055SOL    HW290005   4.638   8.770   3.647
96056SOL     OW90006   5.701  10.416  12.376
96056SOL    HW190007   5.744  10.353  12.319
96056SOL    HW290008   5.732  10.394  12.464
96057SOL     OW90009  10.234   3.825   2.656
96057SOL    HW190010  10.312   3.876   2.679
96057SOL    HW290011  10.215   3.850   2.566
96058SOL     OW90012   0.410   4.626  11.296
96058SOL    HW190013   0.493   4.605  11.340
96058SOL    HW290014   0.436   4.675  11.218
96059SOL     OW90015   7.111   2.742  10.612
96059SOL    HW190016   7.026   2.702  10.632
96059SOL    HW290017   7.091   2.833  10.590
96060SOL     OW90018   7.261  10.366  12.351
96060SOL    HW190019   7.227  10.302  12.288
96060SOL    HW290020   7.349  10.387  12.319
96061SOL     OW90021   5.929   2.089  10.378
96061SOL    HW190022   5.987   2.162  10.357
96061SOL    HW290023   5.987   2.012  10.376
96062SOL     OW90024  13.663   7.005   4.811
96062SOL    HW190025  13.608   7.042   4.880
96062SOL    HW290026  13.731   6.957   4.858
96063SOL     OW90027   9.203   8.318   9.973
96063SOL    HW190028   9.187   8.277  10.058
96063SOL    HW290029   9.291   8.288   9.949
96064SOL     OW90030   2.706   0.619   6.314
96064SOL    HW190031   2.675   0.552   6.375
96064SOL    HW290032   2.784   0.581   6.273
96065SOL     OW90033   9.404  10.766  13.060
96065SOL    HW190034   9.401  10.705  13.135
96065SOL    HW290035   9.485  10.744  13.015
96066SOL     OW90036   7.646   3.254  13.996
96066SOL    HW190037   7.616   3.295  13.915
96066SOL    HW290038   7.669   3.327  14.053
96067SOL     OW90039   2.069   2.910  12.735
96067SOL    HW190040   2.008   2.879  12.802
96067SOL    HW290041   2.059   2.849  12.662
96068SOL     OW90042   5.301  12.335   6.455
96068SOL    HW190043   5.383  12.288   6.446
96068SOL    HW290044   5.245  12.299   6.386
96069SOL     OW90045   3.167  11.119   7.265
96069SOL    HW190046   3.188  11.148   7.354
96069SOL    HW290047   3.226  11.046   7.249
96070SOL     OW90048   1.322  13.145   3.586
96070SOL    HW190049   1.308  13.074   3.523
96070SOL    HW290050   1.417  13.160   3.584
96071SOL     OW90051   8.869   1.163   9.575
96071SOL    HW190052   8.782   1.123   9.568
96071SOL    HW290053   8.879   1.213   9.495
96072SOL     OW90054   4.998   5.099   1.921
96072SOL    HW190055   4.975   5.029   1.859
96072SOL    HW290056   5.045   5.055   1.991
96073SOL     OW90057  14.384   2.577   7.510
96073SOL    HW190058  14.368   2.622   7.427
96073SOL    HW290059  14.447   2.632   7.556
96074SOL     OW90060  11.818   8.384   2.331
96074SOL    HW190061  11.730   8.347   2.339
96074SOL    HW290062  11.836   8.385   2.237
96075SOL     OW90063  13.257   1.911   2.371
96075SOL    HW190064  13.307   1.845   2.324
96075SOL    HW290065  13.168   1.876   2.377
96076SOL     OW90066   3.442  12.738  14.366
96076SOL    HW190067   3.424  12.654  14.408
96076SOL    HW290068   3.474  12.714  14.279
96077SOL     OW90069  14.655   5.991   1.345
96077SOL    HW190070  14.632   6.050   1.417
96077SOL    HW290071  14.736   6.027   1.310
96078SOL     OW90072   1.225   6.340   6.809
96078SOL    HW190073   1.291   6.406   6.829
96078SOL    HW290074   1.248   6.266   6.866
96079SOL     OW90075   5.917   4.688   5.588
96079SOL    HW190076   5.941   4.667   5.678
96079SOL    HW290077   5.849   4.625   5.566
96080SOL     OW90078   9.414   3.398  12.026
96080SOL    HW190079   9.510   3.402  12.032
96080SOL    HW290080   9.390   3.475  11.974
96081SOL     OW90081  12.361   6.861   6.772
96081SOL    HW190082  12.293   6.920   6.741
96081SOL    HW290083  12.361   6.789   6.709
96082SOL     OW90084   9.991  12.968  14.717
96082SOL    HW190085   9.904  12.989  14.682
96082SOL    HW290086  10.026  12.903  14.655
96083SOL     OW90087   6.150   8.738  14.554
96083SOL    HW190088   6.081   8.798  14.581
96083SOL    HW290089   6.230   8.791  14.557
96084SOL     OW90090   2.543  10.281   4.715
96084SOL    HW190091   2.512  10.363   4.752
96084SOL    HW290092   2.631  10.269   4.752
96085SOL     OW90093   2.339   1.245   6.734
96085SOL    HW190094   2.405   1.266   6.668
96085SOL    HW290095   2.389   1.207   6.807
96086SOL     OW90096   2.766  12.238   7.311
96086SOL    HW190097   2.678  12.241   7.272
96086SOL    HW290098   2.792  12.147   7.304
96087SOL     OW90099   7.636   6.336   8.099
96087SOL    HW190100   7.542   6.332   8.080
96087SOL    HW290101   7.653   6.257   8.151
96088SOL     OW90102  12.784  13.227   3.896
96088SOL    HW190103  12.714  13.258   3.953
96088SOL    HW290104  12.775  13.132   3.896
96089SOL     OW90105  12.025   7.581   4.127
96089SOL    HW190106  12.116   7.566   4.151
96089SOL    HW290107  12.027   7.602   4.034
96090SOL     OW90108   1.072   9.729   1.566
96090SOL    HW190109   1.120   9.753   1.645
96090SOL    HW290110   1.090   9.801   1.505
96091SOL     OW90111   2.342  12.845  14.647
96091SOL    HW190112   2.300  12.854  14.733
96091SOL    HW290113   2.282  12.888  14.587
96092SOL     OW90114   8.311  12.261   9.575
96092SOL    HW190115   8.366  12.321   9.525
96092SOL    HW290116   8.315  12.178   9.526
96093SOL     OW90117   1.003   3.037  14.399
96093SOL    HW190118   1.044   3.001  14.321
96093SOL    HW290119   1.072   3.086  14.443
96094SOL     OW90120  11.484  11.655   0.075
96094SOL    HW190121  11.412  11.594   0.088
96094SOL    HW290122  11.561  11.608   0.108
96095SOL     OW90123   4.322   8.886   5.558
96095SOL    HW190124   4.282   8.860   5.474
96095SOL    HW290125   4.339   8.803   5.602
96096SOL     OW90126   8.576   2.812   5.534
96096SOL    HW190127   8.591   2.717   5.529
96096SOL    HW290128   8.482   2.820   5.548
96097SOL     OW90129   2.961   8.902   1.843
96097SOL    HW190130   2.917   8.904   1.928
96097SOL    HW290131   3.000   8.989   1.834
96098SOL     OW90132   6.537   5.976  13.884
96098SOL    HW190133   6.536   5.974  13.788
96098SOL    HW290134   6.470   6.040  13.908
96099SOL     OW90135  14.646   2.981  12.966
96099SOL    HW190136  14.583   2.966  12.896
96099SOL    HW290137  14.605   2.945  13.044
96100SOL     OW90138   1.887   8.151  10.976
96100SOL    HW190139   1.951   8.204  10.928
96100SOL    HW290140   1.906   8.167  11.068
96101SOL     OW90141   5.706   0.091   7.665
96101SOL    HW190142   5.801   0.092   7.670
96101SOL    HW290143   5.685   0.009   7.621
96102SOL     OW90144   4.937  10.810   4.201
96102SOL    HW190145   4.913  10.875   4.267
96102SOL    HW290146   4.854  10.778   4.168
96103SOL     OW90147   2.508   3.666   5.014
96103SOL    HW190148   2.480   3.626   4.932
96103SOL    HW290149   2.432   3.718   5.043
96104SOL     OW90150   7.029  10.572   7.220
96104SOL    HW190151   7.044  10.608   7.132
96104SOL    HW290152   7.101  10.605   7.272
96105SOL     OW90153   4.960   9.750   7.049
96105SOL    HW190154   5.024   9.813   7.015
96105SOL    HW290155   4.975   9.671   6.997
96106SOL     OW90156   6.994   9.721   1.130
96106SOL    HW190157   7.066   9.764   1.084
96106SOL    HW290158   6.941   9.681   1.060
96107SOL     OW90159   1.800   3.093   7.565
96107SOL    HW190160   1.716   3.075   7.606
96107SOL    HW290161   1.787   3.174   7.516
96108SOL     OW90162   1.274   9.499   2.191
96108SOL    HW190163   1.291   9.448   2.270
96108SOL    HW290164   1.284   9.437   2.119
96109SOL     OW90165  13.145   6.859  13.116
96109SOL    HW190166  13.168   6.951  13.129
96109SOL    HW290167  13.192   6.813  13.185
96110SOL     OW90168   7.354   4.336   3.807
96110SOL    HW190169   7.423   4.278   3.776
96110SOL    HW290170   7.294   4.343   3.732
96111SOL     OW90171  13.951   6.743   6.274
96111SOL    HW190172  13.990   6.748   6.361
96111SOL    HW290173  13.888   6.671   6.281
96112SOL     OW90174   3.697  11.058   0.885
96112SOL    HW190175   3.785  11.067   0.923
96112SOL    HW290176   3.701  10.977   0.835
96113SOL     OW90177  11.776   4.431   2.675
96113SOL    HW190178  11.721   4.403   2.602
96113SOL    HW290179  11.730   4.400   2.753
96114SOL     OW90180  12.338  12.198   9.972
96114SOL    HW190181  12.391  12.272   9.942
96114SOL    HW290182  12.263  12.197   9.913
96115SOL     OW90183  13.963  10.327   6.176
96115SOL    HW190184  13.910  10.373   6.242
96115SOL    HW290185  13.900  10.302   6.108
96116SOL     OW90186  11.637  14.152   0.804
96116SOL    HW190187  11.702  14.082   0.796
96116SOL    HW290188  11.633  14.191   0.717
96117SOL     OW90189   6.088   0.306  10.203
96117SOL    HW190190   6.082   0.375  10.268
96117SOL    HW290191   6.139   0.237  10.246
96118SOL     OW90192   0.760   4.098  14.314
96118SOL    HW190193   0.794   4.116  14.226
96118SOL    HW290194   0.726   4.008  14.308
96119SOL     OW90195  12.839   6.775   5.550
96119SOL    HW190196  12.801   6.691   5.574
96119SOL    HW290197  12.781   6.810   5.482
96120SOL     OW90198  12.025   8.470  12.442
96120SOL    HW190199  12.090   8.406  12.471
96120SOL    HW290200  11.999   8.440  12.355
96121SOL     OW90201  11.231  12.372  14.125
96121SOL    HW190202  11.148  12.326  14.141
96121SOL    HW290203  11.210  12.465  14.138
96122SOL     OW90204   7.390   5.364  13.845
96122SOL    HW190205   7.299   5.351  13.818
96122SOL    HW290206   7.428   5.418  13.777
96123SOL     OW90207  14.608   9.968   6.765
96123SOL    HW190208  14.537   9.919   6.723
96123SOL    HW290209  14.685   9.912   6.756
96124SOL     OW90210   3.380  13.186  13.668
96124SOL    HW190211   3.452  13.161  13.726
96124SOL    HW290212   3.408  13.268  13.628
96125SOL     OW90213   5.414  12.324   2.383
96125SOL    HW190214   5.403  12.343   2.476
96125SOL    HW290215   5.335  12.358   2.342
96126SOL     OW90216   4.201   3.329   4.225
96126SOL    HW190217   4.293   3.349   4.241
96126SOL    HW290218   4.158   3.414   4.223
96127SOL     OW90219   1.628  10.383   5.698
96127SOL    HW190220   1.631  10.469   5.739
96127SOL    HW290221   1.703  10.336   5.736
96128SOL     OW90222   3.988   2.655  12.523
96128SOL    HW190223   3.894   2.667  12.537
96128SOL    HW290224   3.998   2.642  12.429
96129SOL     OW90225   7.906   9.284   7.381
96129SOL    HW190226   7.940   9.300   7.470
96129SOL    HW290227   7.855   9.362   7.360
96130SOL     OW90228  13.720  12.330   2.928
96130SOL    HW190229  13.697  12.406   2.981
96130SOL    HW290230  13.737  12.260   2.991
96131SOL     OW90231   9.316   6.019  12.122
96131SOL    HW190232   9.395   6.066  12.149
96131SOL    HW290233   9.255   6.029  12.194
96132SOL     OW90234   7.806   5.384   7.023
96132SOL    HW190235   7.834   5.474   7.003
96132SOL    HW290236   7.885   5.331   7.009
96133SOL     OW90237   6.775  14.241   2.070
96133SOL    HW190238   6.767  14.146   2.061
96133SOL    HW290239   6.752  14.275   1.983
96134SOL     OW90240  13.974   1.653   3.510
96134SOL    HW190241  13.971   1.567   3.552
96134SOL    HW290242  13.992   1.633   3.418
96135SOL     OW90243  14.116  14.701   0.176
96135SOL    HW190244  14.142  14.681   0.266
96135SOL    HW290245  14.183  14.659   0.122
96136SOL     OW90246  13.034   6.393   7.744
96136SOL    HW190247  12.940   6.408   7.737
96136SOL    HW290248  13.043   6.325   7.811
96137SOL     OW90249   7.290   7.562  12.817
96137SOL    HW190250   7.360   7.518  12.768
96137SOL    HW290251   7.256   7.628  12.757
96138SOL     OW90252   3.375  12.725  11.556
96138SOL    HW190253   3.431  12.748  11.482
96138SOL    HW290254   3.345  12.810  11.590
96139SOL     OW90255   2.521  12.675   3.073
96139SOL    HW190256   2.602  12.654   3.118
96139SOL    HW290257   2.525  12.627   2.991
96140SOL     OW90258  13.962   2.138   9.909
96140SOL    HW190259  14.033   2.123   9.971
96140SOL    HW290260  13.883   2.145   9.963
96141SOL     OW90261   9.711   0.303  11.125
96141SOL    HW190262   9.644   0.299  11.057
96141SOL    HW290263   9.759   0.221  11.116
96142SOL     OW90264  13.575   8.743  11.720
96142SOL    HW190265  13.660   8.707  11.744
96142SOL    HW290266  13.596   8.822  11.670
96143SOL     OW90267  11.233   6.865   9.469
96143SOL    HW190268  11.244   6.959   9.454
96143SOL    HW290269  11.282   6.823   9.399
96144SOL     OW90270   1.615  14.648  13.409
96144SOL    HW190271   1.644  14.560  13.433
96144SOL    HW290272   1.695  14.700  13.407
96145SOL     OW90273  13.198   0.879   6.731
96145SOL    HW190274  13.227   0.924   6.810
96145SOL    HW290275  13.268   0.894   6.667
96146SOL     OW90276   3.321   4.838  12.361
96146SOL    HW190277   3.235   4.874  12.342
96146SOL    HW290278   3.341   4.867  12.450
96147SOL     OW90279   9.087   2.021   4.014
96147SOL    HW190280   9.066   1.927   4.018
96147SOL    HW290281   9.014   2.060   3.966
96148SOL     OW90282   3.125  11.825  11.056
96148SOL    HW190283   3.033  11.851  11.051
96148SOL    HW290284   3.165  11.861  10.977
96149SOL     OW90285   1.664  14.182   0.254
96149SOL    HW190286   1.696  14.162   0.166
96149SOL    HW290287   1.573  14.210   0.240
96150SOL     OW90288   1.118  13.147   5.602
96150SOL    HW190289   1.114  13.067   5.655
96150SOL    HW290290   1.211  13.171   5.603
96151SOL     OW90291  12.218   9.409   6.545
96151SOL    HW190292  12.187   9.456   6.622
96151SOL    HW290293  12.212   9.472   6.474
96152SOL     OW90294   0.702   0.987  11.147
96152SOL    HW190295   0.695   1.078  11.175
96152SOL    HW290296   0.667   0.936  11.221
96153SOL     OW90297   3.110   1.872  12.218
96153SOL    HW190298   3.113   1.805  12.286
96153SOL    HW290299   3.167   1.942  12.249
96154SOL     OW90300   6.147  12.223   0.383
96154SOL    HW190301   6.112  12.247   0.468
96154SOL    HW290302   6.186  12.136   0.396
96155SOL     OW90303   9.871   7.395   9.668
96155SOL    HW190304   9.878   7.479   9.622
96155SOL    HW290305   9.780   7.391   9.695
96156SOL     OW90306  14.856   0.819   1.092
96156SOL    HW190307  14.870   0.764   1.169
96156SOL    HW290308  14.761   0.829   1.088
96157SOL     OW90309   5.507   5.756  11.165
96157SOL    HW190310   5.519   5.802  11.249
96157SOL    HW290311   5.597   5.742  11.133
96158SOL     OW90312   5.799   0.454   0.663
96158SOL    HW190313   5.718   0.411   0.639
96158SOL    HW290314   5.779   0.548   0.658
96159SOL     OW90315  13.556   3.541   6.948
96159SOL    HW190316  13.552   3.562   6.855
96159SOL    HW290317  13.524   3.450   6.953
96160SOL     OW90318   1.643   6.249  10.275
96160SOL    HW190319   1.653   6.289  10.188
96160SOL    HW290320   1.601   6.165  10.258
96161SOL     OW90321   4.518  14.155   0.338
96161SOL    HW190322   4.525  14.059   0.330
96161SOL    HW290323   4.424  14.170   0.347
96162SOL     OW90324  11.460  14.753   0.895
96162SOL    HW190325  11.399  14.774   0.825
96162SOL    HW290326  11.536  14.714   0.850
96163SOL     OW90327   6.953   5.802   9.992
96163SOL    HW190328   7.004   5.788   9.912
96163SOL    HW290329   6.988   5.882  10.030
96164SOL     OW90330  14.545   5.065   8.479
96164SOL    HW190331  14.578   5.129   8.543
96164SOL    HW290332  14.561   5.106   8.394
96165SOL     OW90333  10.884   9.601   3.793
96165SOL    HW190334  10.875   9.677   3.735
96165SOL    HW290335  10.810   9.609   3.854
96166SOL     OW90336  13.081   8.581   9.522
96166SOL    HW190337  12.997   8.586   9.477
96166SOL    HW290338  13.134   8.522   9.467
96167SOL     OW90339   3.632   8.655  13.866
96167SOL    HW190340   3.627   8.730  13.925
96167SOL    HW290341   3.677   8.587  13.916
96168SOL     OW90342   9.098   1.991  14.857
96168SOL    HW190343   9.016   2.036  14.879
96168SOL    HW290344   9.070   1.908  14.820
96169SOL     OW90345   4.040   6.121   5.623
96169SOL    HW190346   4.020   6.185   5.692
96169SOL    HW290347   4.080   6.047   5.670
96170SOL     OW90348   8.032   2.451   0.684
96170SOL    HW190349   8.027   2.531   0.735
96170SOL    HW290350   8.083   2.475   0.606
96171SOL     OW90351   5.386  13.071   0.692
96171SOL    HW190352   5.369  13.099   0.782
96171SOL    HW290353   5.319  13.004   0.675
96172SOL     OW90354  14.648   3.320  11.861
96172SOL    HW190355  14.735   3.285  11.882
96172SOL    HW290356  14.619   3.269  11.786
96173SOL     OW90357   2.549   4.103   8.649
96173SOL    HW190358   2.600   4.142   8.579
96173SOL    HW290359   2.602   4.028   8.678
96174SOL     OW90360  10.187   9.518   6.169
96174SOL    HW190361  10.168   9.518   6.075
96174SOL    HW290362  10.278   9.492   6.175
96175SOL     OW90363   0.570  11.776   9.988
96175SOL    HW190364   0.602  11.687  10.006
96175SOL    HW290365   0.484  11.763   9.949
96176SOL     OW90366   0.063   5.804   3.447
96176SOL    HW190367   0.138   5.860   3.427
96176SOL    HW290368   0.071   5.786   3.541
96177SOL     OW90369   8.482  12.937  14.577
96177SOL    HW190370   8.424  12.921  14.652
96177SOL    HW290371   8.549  12.870  14.583
96178SOL     OW90372   3.178  13.240   9.696
96178SOL    HW190373   3.104  13.222   9.639
96178SOL    HW290374   3.230  13.160   9.694
96179SOL     OW90375   7.908  10.281   5.472
96179SOL    HW190376   7.973  10.332   5.423
96179SOL    HW290377   7.934  10.190   5.458
96180SOL     OW90378   5.390   9.244   7.079
96180SOL    HW190379   5.320   9.258   7.015
96180SOL    HW290380   5.406   9.331   7.116
96181SOL     OW90381   6.320  13.880  10.244
96181SOL    HW190382   6.228  13.852  10.248
96181SOL    HW290383   6.338  13.890  10.151
96182SOL     OW90384   1.322   1.813   5.654
96182SOL    HW190385   1.355   1.890   5.607
96182SOL    HW290386   1.400   1.763   5.677
96183SOL     OW90387  13.097  10.948  11.726
96183SOL    HW190388  13.175  11.003  11.735
96183SOL    HW290389  13.045  10.990  11.658
96184SOL     OW90390   4.459   1.934   5.163
96184SOL    HW190391   4.366   1.929   5.142
96184SOL    HW290392   4.485   2.023   5.138
96185SOL     OW90393  12.091  14.227  11.705
96185SOL    HW190394  12.046  14.308  11.730
96185SOL    HW290395  12.140  14.201  11.783
96186SOL     OW90396   5.603   7.955  12.598
96186SOL    HW190397   5.661   8.002  12.656
96186SOL    HW290398   5.597   8.010  12.520
96187SOL     OW90399  12.513   1.247   2.881
96187SOL    HW190400  12.464   1.179   2.926
96187SOL    HW290401  12.556   1.297   2.951
96188SOL     OW90402   6.469  14.716   4.617
96188SOL    HW190403   6.394  14.742   4.564
96188SOL    HW290404   6.451  14.626   4.642
96189SOL     OW90405   2.005  14.166   2.684
96189SOL    HW190406   1.909  14.160   2.688
96189SOL    HW290407   2.031  14.193   2.772
96190SOL     OW90408   0.317   4.094  10.963
96190SOL    HW190409   0.279   4.064  11.046
96190SOL    HW290410   0.241   4.119  10.911
96191SOL     OW90411   8.196   1.077  10.143
96191SOL    HW190412   8.241   1.119  10.216
96191SOL    HW290413   8.241   0.993  10.133
96192SOL     OW90414   7.950   0.361   0.212
96192SOL    HW190415   7.944   0.453   0.238
96192SOL    HW290416   7.863   0.325   0.231
96193SOL     OW90417  11.015  12.305   6.702
96193SOL    HW190418  10.992  12.397   6.706
96193SOL    HW290419  10.949  12.261   6.755
96194SOL     OW90420   7.662   8.545   9.959
96194SOL    HW190421   7.572   8.571   9.940
96194SOL    HW290422   7.656   8.500  10.044
96195SOL     OW90423   9.704  10.463   9.797
96195SOL    HW190424   9.667  10.541   9.840
96195SOL    HW290425   9.629  10.419   9.758
96196SOL     OW90426  12.426  11.592   8.740
96196SOL    HW190427  12.350  11.536   8.749
96196SOL    HW290428  12.497  11.532   8.717
96197SOL     OW90429   0.425   6.931   2.234
96197SOL    HW190430   0.374   6.942   2.314
96197SOL    HW290431   0.432   7.019   2.197
96198SOL     OW90432  13.656   6.184   6.691
96198SOL    HW190433  13.618   6.163   6.605
96198SOL    HW290434  13.601   6.137   6.753
96199SOL     OW90435  12.496   1.507  11.981
96199SOL    HW190436  12.539   1.590  11.964
96199SOL    HW290437  12.417   1.530  12.030
96200SOL     OW90438   0.509   5.715   2.373
96200SOL    HW190439   0.542   5.630   2.402
96200SOL    HW290440   0.431   5.731   2.427
96201SOL     OW90441   0.354   6.248  10.915
96201SOL    HW190442   0.361   6.227  10.822
96201SOL    HW290443   0.364   6.343  10.919
96202SOL     OW90444   8.971   3.576   0.932
96202SOL    HW190445   8.900   3.514   0.946
96202SOL    HW290446   8.958   3.609   0.843
96203SOL     OW90447  10.084   1.049   6.368
96203SOL    HW190448  10.126   1.135   6.363
96203SOL    HW290449  10.097   1.022   6.459
96204SOL     OW90450  12.700   5.048   5.708
96204SOL    HW190451  12.742   5.123   5.666
96204SOL    HW290452  12.639   5.014   5.643
96205SOL     OW90453  13.814  11.879   9.127
96205SOL    HW190454  13.846  11.861   9.038
96205SOL    HW290455  13.882  11.846   9.184
96206SOL     OW90456  12.166  14.039   7.886
96206SOL    HW190457  12.080  14.051   7.926
96206SOL    HW290458  12.155  13.963   7.829
96207SOL     OW90459   3.421   0.263  13.236
96207SOL    HW190460   3.336   0.263  13.191
96207SOL    HW290461   3.485   0.261  13.165
96208SOL     OW90462   2.424   6.119   3.172
96208SOL    HW190463   2.350   6.150   3.224
96208SOL    HW290464   2.440   6.030   3.203
96209SOL     OW90465  12.075   6.365   4.033
96209SOL    HW190466  11.984   6.393   4.030
96209SOL    HW290467  12.079   6.291   3.973
96210SOL     OW90468   6.994  12.181   7.692
96210SOL    HW190469   6.990  12.109   7.629
96210SOL    HW290470   6.903  12.198   7.716
96211SOL     OW90471   0.265  13.095   3.253
96211SOL    HW190472   0.273  13.127   3.163
96211SOL    HW290473   0.285  13.171   3.308
96212SOL     OW90474   0.412  13.874   1.586
96212SOL    HW190475   0.413  13.886   1.491
96212SOL    HW290476   0.355  13.944   1.618
96213SOL     OW90477   2.650  14.081  14.542
96213SOL    HW190478   2.732  14.088  14.493
96213SOL    HW290479   2.599  14.016  14.494
96214SOL     OW90480   7.898   8.033   0.694
96214SOL    HW190481   7.992   8.050   0.685
96214SOL    HW290482   7.882   8.041   0.788
96215SOL     OW90483   1.249   4.764   7.902
96215SOL    HW190484   1.326   4.821   7.902
96215SOL    HW290485   1.179   4.819   7.937
96216SOL     OW90486   2.073   9.980  13.135
96216SOL    HW190487   2.053  10.071  13.159
96216SOL    HW290488   2.155   9.985  13.086
96217SOL     OW90489   1.789   7.313   5.532
96217SOL    HW190490   1.786   7.311   5.628
96217SOL    HW290491   1.864   7.368   5.512
96218SOL     OW90492  10.627   8.086   9.174
96218SOL    HW190493  10.703   8.063   9.121
96218SOL    HW290494  10.614   8.011   9.231
96219SOL     OW90495   2.052   3.098   6.211
96219SOL    HW190496   2.137   3.053   6.207
96219SOL    HW290497   2.021   3.082   6.300
96220SOL     OW90498   2.062   9.581  10.613
96220SOL    HW190499   1.994   9.621  10.559
96220SOL    HW290500   2.138   9.573  10.555
96221SOL     OW90501   5.691  13.307  14.857
96221SOL    HW190502   5.612  13.257  14.834
96221SOL    HW290503   5.734  13.253   0.042
96222SOL     OW90504   4.163   8.452   5.673
96222SOL    HW190505   4.152   8.360   5.698
96222SOL    HW290506   4.080   8.475   5.629
96223SOL     OW90507  13.361   5.683   6.209
96223SOL    HW190508  13.334   5.658   6.298
96223SOL    HW290509  13.454   5.661   6.205
96224SOL     OW90510   7.888   9.225   9.151
96224SOL    HW190511   7.810   9.189   9.193
96224SOL    HW290512   7.861   9.310   9.118
96225SOL     OW90513   2.651   7.714   8.802
96225SOL    HW190514   2.667   7.732   8.710
96225SOL    HW290515   2.690   7.787   8.849
96226SOL     OW90516   7.610   9.448   4.473
96226SOL    HW190517   7.518   9.471   4.487
96226SOL    HW290518   7.648   9.525   4.431
96227SOL     OW90519   6.243  14.687   2.609
96227SOL    HW190520   6.305  14.743   2.656
96227SOL    HW290521   6.168  14.680   2.668
96228SOL     OW90522  13.494  13.925   0.920
96228SOL    HW190523  13.417  13.943   0.867
96228SOL    HW290524  13.565  13.974   0.879
96229SOL     OW90525   2.738  12.858   3.461
96229SOL    HW190526   2.667  12.913   3.430
96229SOL    HW290527   2.797  12.850   3.387
96230SOL     OW90528   7.978   1.128  13.189
96230SOL    HW190529   7.923   1.099  13.262
96230SOL    HW290530   7.917   1.173  13.130
96231SOL     OW90531  12.496  13.585   6.688
96231SOL    HW190532  12.567  13.636   6.728
96231SOL    HW290533  12.423  13.594   6.749
96232SOL     OW90534   9.175  13.158   7.919
96232SOL    HW190535   9.140  13.242   7.889
96232SOL    HW290536   9.122  13.136   7.996
96233SOL     OW90537   4.878   3.356  11.187
96233SOL    HW190538   4.971   3.346  11.167
96233SOL    HW290539   4.874   3.362  11.282
96234SOL     OW90540   0.622   7.877   4.606
96234SOL    HW190541   0.618   7.783   4.591
96234SOL    HW290542   0.695   7.907   4.553
96235SOL     OW90543   0.423   2.735  12.940
96235SOL    HW190544   0.344   2.784  12.965
96235SOL    HW290545   0.477   2.735  13.018
96236SOL     OW90546   2.063  12.969   2.012
96236SOL    HW190547   2.034  12.926   1.931
96236SOL    HW290548   1.988  12.963   2.071
96237SOL     OW90549  14.418   0.508   5.578
96237SOL    HW190550  14.461   0.481   5.659
96237SOL    HW290551  14.329   0.474   5.585
96238SOL     OW90552   6.275   4.941  12.276
96238SOL    HW190553   6.232   4.879  12.336
96238SOL    HW290554   6.296   5.016  12.331
96239SOL     OW90555   4.989  11.073   4.567
96239SOL    HW190556   4.928  11.063   4.493
96239SOL    HW290557   5.047  10.998   4.560
96240SOL     OW90558  10.147   6.198  12.122
96240SOL    HW190559  10.147   6.131  12.053
96240SOL    HW290560  10.056   6.223  12.131
96241SOL     OW90561  12.982  11.306   3.050
96241SOL    HW190562  12.901  11.321   3.002
96241SOL    HW290563  12.986  11.211   3.063
96242SOL     OW90564   1.577  11.498   6.519
96242SOL    HW190565   1.506  11.470   6.461
96242SOL    HW290566   1.590  11.424   6.578
96243SOL     OW90567   6.571   2.533   5.086
96243SOL    HW190568   6.603   2.608   5.036
96243SOL    HW290569   6.648   2.475   5.093
96244SOL     OW90570  10.502   5.824  12.930
96244SOL    HW190571  10.424   5.880  12.939
96244SOL    HW290572  10.554   5.867  12.862
96245SOL     OW90573   8.470   9.148   4.238
96245SOL    HW190574   8.445   9.115   4.152
96245SOL    HW290575   8.489   9.070   4.290
96246SOL     OW90576   8.591  14.007   2.516
96246SOL    HW190577   8.505  14.048   2.512
96246SOL    HW290578   8.575  13.913   2.513
96247SOL     OW90579   9.620   1.492   5.243
96247SOL    HW190580   9.538   1.443   5.242
96247SOL    HW290581   9.597   1.580   5.215
96248SOL     OW90582  10.021   3.383  12.465
96248SOL    HW190583   9.978   3.458  12.505
96248SOL    HW290584   9.950   3.322  12.445
96249SOL     OW90585   6.838  13.352   4.744
96249SOL    HW190586   6.793  13.278   4.702
96249SOL    HW290587   6.922  13.316   4.772
96250SOL     OW90588   3.712   1.978   7.481
96250SOL    HW190589   3.691   1.969   7.388
96250SOL    HW290590   3.656   1.913   7.524
96251SOL     OW90591  11.304   3.898   6.315
96251SOL    HW190592  11.342   3.965   6.372
96251SOL    HW290593  11.262   3.948   6.245
96252SOL     OW90594   7.072   7.228   0.392
96252SOL    HW190595   6.978   7.244   0.395
96252SOL    HW290596   7.107   7.268   0.471
96253SOL     OW90597   3.598  14.814  11.305
96253SOL    HW190598   3.599  14.875  11.231
96253SOL    HW290599   3.520  14.761  11.291
96254SOL     OW90600   6.592   1.473  13.333
96254SOL    HW190601   6.633   1.545  13.381
96254SOL    HW290602   6.516   1.513  13.291
96255SOL     OW90603   5.527   2.421   0.080
96255SOL    HW190604   5.449   2.476   0.088
96255SOL    HW290605   5.563   2.417   0.169
96256SOL     OW90606  14.640   8.045  11.185
96256SOL    HW190607  14.683   8.057  11.100
96256SOL    HW290608  14.548   8.031  11.164
96257SOL     OW90609   2.259  11.820   6.743
96257SOL    HW190610   2.238  11.732   6.712
96257SOL    HW290611   2.176  11.867   6.741
96258SOL     OW90612   0.006  10.164   0.402
96258SOL    HW190613  14.821  10.200   0.344
96258SOL    HW290614  14.840  10.136   0.480
96259SOL     OW90615  11.796  12.040   3.921
96259SOL    HW190616  11.807  11.998   3.836
96259SOL    HW290617  11.706  12.074   3.919
96260SOL     OW90618  14.460   8.013   0.967
96260SOL    HW190619  14.393   8.064   0.921
96260SOL    HW290620  14.499   7.958   0.899
96261SOL     OW90621  12.330   9.138   0.624
96261SOL    HW190622  12.309   9.131   0.531
96261SOL    HW290623  12.312   9.230   0.646
96262SOL     OW90624  12.158  12.923   2.058
96262SOL    HW190625  12.189  13.009   2.029
96262SOL    HW290626  12.228  12.863   2.033
96263SOL     OW90627   2.000  12.579  14.171
96263SOL    HW190628   1.968  12.552  14.085
96263SOL    HW290629   2.095  12.565  14.166
96264SOL     OW90630   0.554  13.231   6.312
96264SOL    HW190631   0.576  13.186   6.230
96264SOL    HW290632   0.483  13.292   6.287
96265SOL     OW90633  13.287   5.186  11.397
96265SOL    HW190634  13.270   5.137  11.478
96265SOL    HW290635  13.253   5.274  11.415
96266SOL     OW90636   2.820   0.291   2.020
96266SOL    HW190637   2.891   0.249   1.970
96266SOL    HW290638   2.754   0.222   2.029
96267SOL     OW90639   8.325  10.942   0.881
96267SOL    HW190640   8.331  10.850   0.905
96267SOL    HW290641   8.301  10.987   0.962
96268SOL     OW90642   1.687   4.490   0.622
96268SOL    HW190643   1.753   4.421   0.617
96268SOL    HW290644   1.668   4.513   0.531
96269SOL     OW90645  11.322   6.255   3.129
96269SOL    HW190646  11.415   6.275   3.136
96269SOL    HW290647  11.299   6.272   3.038
96270SOL     OW90648  11.976   3.382   5.598
96270SOL    HW190649  12.019   3.448   5.652
96270SOL    HW290650  12.037   3.309   5.595
96271SOL     OW90651  14.390   0.127  12.085
96271SOL    HW190652  14.334   0.161  12.155
96271SOL    HW290653  14.478   0.158  12.107
96272SOL     OW90654   3.006  12.528   3.423
96272SOL    HW190655   3.081  12.532   3.482
96272SOL    HW290656   3.025  12.593   3.355
96273SOL     OW90657  10.099   2.994   5.076
96273SOL    HW190658  10.019   3.044   5.063
96273SOL    HW290659  10.077   2.930   5.144
96274SOL     OW90660   4.770   5.122  14.539
96274SOL    HW190661   4.675   5.126  14.525
96274SOL    HW290662   4.787   5.187  14.608
96275SOL     OW90663   1.697   1.014   7.628
96275SOL    HW190664   1.706   1.067   7.707
96275SOL    HW290665   1.707   1.077   7.556
96276SOL     OW90666   3.814  12.757   4.106
96276SOL    HW190667   3.758  12.742   4.183
96276SOL    HW290668   3.780  12.837   4.067
96277SOL     OW90669   9.705   1.698   4.611
96277SOL    HW190670   9.671   1.786   4.630
96277SOL    HW290671   9.777   1.714   4.549
96278SOL     OW90672   7.921  13.321   4.088
96278SOL    HW190673   7.839  13.358   4.121
96278SOL    HW290674   7.922  13.342   3.995
96279SOL     OW90675   5.084   4.931  14.610
96279SOL    HW190676   5.156   4.976  14.655
96279SOL    HW290677   5.119   4.912  14.523
96280SOL     OW90678   6.643   2.684   8.658
96280SOL    HW190679   6.665   2.722   8.573
96280SOL    HW290680   6.586   2.610   8.637
96281SOL     OW90681  12.336  12.822  14.616
96281SOL    HW190682  12.277  12.834  14.542
96281SOL    HW290683  12.394  12.898  14.613
96282SOL     OW90684   2.365   3.148  10.702
96282SOL    HW190685   2.289   3.174  10.753
96282SOL    HW290686   2.345   3.177  10.613
96283SOL     OW90687  12.135   4.697   6.341
96283SOL    HW190688  12.207   4.664   6.395
96283SOL    HW290689  12.164   4.683   6.251
96284SOL     OW90690   8.093   7.726  14.152
96284SOL    HW190691   8.148   7.661  14.107
96284SOL    HW290692   8.021   7.742  14.091
96285SOL     OW90693   3.560   7.417   6.272
96285SOL    HW190694   3.552   7.435   6.178
96285SOL    HW290695   3.654   7.412   6.287
96286SOL     OW90696   9.102   3.173   6.279
96286SOL    HW190697   9.010   3.183   6.252
96286SOL    HW290698   9.152   3.215   6.209
96287SOL     OW90699   2.866   4.631   8.110
96287SOL    HW190700   2.900   4.675   8.032
96287SOL    HW290701   2.819   4.555   8.076
96288SOL     OW90702   9.603  12.524  11.501
96288SOL    HW190703   9.643  12.514  11.415
96288SOL    HW290704   9.573  12.436  11.525
96289SOL     OW90705  10.317   4.934  14.544
96289SOL    HW190706  10.285   4.974  14.463
96289SOL    HW290707  10.372   5.001  14.584
96290SOL     OW90708   3.904  13.086  13.113
96290SOL    HW190709   3.921  13.010  13.058
96290SOL    HW290710   3.829  13.129  13.072
96291SOL     OW90711  14.449  14.767   8.625
96291SOL    HW190712  14.466  14.756   8.532
96291SOL    HW290713  14.499  14.845   8.649
96292SOL     OW90714   2.769  12.230   7.703
96292SOL    HW190715   2.710  12.300   7.731
96292SOL    HW290716   2.818  12.268   7.631
96293SOL     OW90717  12.304   4.328   6.287
96293SOL    HW190718  12.399   4.339   6.291
96293SOL    HW290719  12.269   4.405   6.332
96294SOL     OW90720  13.735   9.126  13.200
96294SOL    HW190721  13.767   9.201  13.149
96294SOL    HW290722  13.672   9.164  13.261
96295SOL     OW90723   6.197  11.311   0.849
96295SOL    HW190724   6.220  11.219   0.867
96295SOL    HW290725   6.232  11.359   0.925
96296SOL     OW90726  13.764  10.672   7.464
96296SOL    HW190727  13.803  10.723   7.535
96296SOL    HW290728  13.817  10.695   7.387
96297SOL     OW90729   3.992  13.301  10.324
96297SOL    HW190730   3.921  13.270  10.381
96297SOL    HW290731   3.970  13.264  10.238
96298SOL     OW90732   0.060   8.940   5.704
96298SOL    HW190733   0.045   8.979   5.790
96298SOL    HW290734   0.060   9.014   5.643
96299SOL     OW90735   2.853   9.272   8.443
96299SOL    HW190736   2.911   9.224   8.503
96299SOL    HW290737   2.814   9.205   8.387
96300SOL     OW90738  12.497   2.782   2.390
96300SOL    HW190739  12.565   2.849   2.380
96300SOL    HW290740  12.422   2.819   2.344
96301SOL     OW90741  11.480  11.475   8.651
96301SOL    HW190742  11.519  11.491   8.565
96301SOL    HW290743  11.411  11.542   8.659
96302SOL     OW90744  11.610   0.188   7.138
96302SOL    HW190745  11.561   0.147   7.067
96302SOL    HW290746  11.614   0.121   7.206
96303SOL     OW90747   9.008   4.305   7.066
96303SOL    HW190748   8.959   4.248   7.125
96303SOL    HW290749   9.071   4.350   7.122
96304SOL     OW90750  13.718   8.788   1.887
96304SOL    HW190751  13.669   8.778   1.806
96304SOL    HW290752  13.760   8.874   1.878
96305SOL     OW90753  13.387   0.348  12.100
96305SOL    HW190754  13.475   0.383  12.110
96305SOL    HW290755  13.392   0.259  12.134
96306SOL     OW90756   5.687   1.571   4.289
96306SOL    HW190757   5.775   1.598   4.263
96306SOL    HW290758   5.645   1.652   4.319
96307SOL     OW90759   1.939  10.190   0.460
96307SOL    HW190760   1.853  10.150   0.447
96307SOL    HW290761   1.986  10.128   0.516
96308SOL     OW90762   2.181  11.634   7.541
96308SOL    HW190763   2.200  11.546   7.573
96308SOL    HW290764   2.266  11.668   7.512
96309SOL     OW90765   4.383  11.530   5.724
96309SOL    HW190766   4.396  11.578   5.642
96309SOL    HW290767   4.464  11.480   5.736
96310SOL     OW90768   9.780  11.172   2.776
96310SOL    HW190769   9.768  11.092   2.827
96310SOL    HW290770   9.691  11.201   2.756
96311SOL     OW90771   9.083   9.847  13.796
96311SOL    HW190772   9.088   9.934  13.757
96311SOL    HW290773   9.122   9.857  13.883
96312SOL     OW90774   6.137  11.442   8.323
96312SOL    HW190775   6.195  11.478   8.390
96312SOL    HW290776   6.056  11.492   8.331
96313SOL     OW90777   1.641   2.600   5.818
96313SOL    HW190778   1.630   2.515   5.860
96313SOL    HW290779   1.615   2.663   5.885
96314SOL     OW90780   7.536   6.111   5.220
96314SOL    HW190781   7.445   6.140   5.210
96314SOL    HW290782   7.557   6.072   5.135
96315SOL     OW90783  14.230   2.105  12.501
96315SOL    HW190784  14.198   2.022  12.537
96315SOL    HW290785  14.184   2.172  12.550
96316SOL     OW90786   2.364   3.510   8.522
96316SOL    HW190787   2.286   3.533   8.572
96316SOL    HW290788   2.406   3.440   8.573
96317SOL     OW90789   8.680  12.107  10.998
96317SOL    HW190790   8.619  12.067  10.936
96317SOL    HW290791   8.766  12.079  10.969
96318SOL     OW90792  12.072   0.725   7.872
96318SOL    HW190793  12.099   0.633   7.874
96318SOL    HW290794  11.980   0.724   7.896
96319SOL     OW90795   7.823   2.279   0.830
96319SOL    HW190796   7.768   2.258   0.755
96319SOL    HW290797   7.908   2.304   0.792
96320SOL     OW90798   0.576  11.604  13.913
96320SOL    HW190799   0.581  11.689  13.869
96320SOL    HW290800   0.554  11.543  13.843
96321SOL     OW90801   8.220   4.803  11.858
96321SOL    HW190802   8.207   4.877  11.917
96321SOL    HW290803   8.164   4.823  11.783
96322SOL     OW90804  12.296   9.951   4.849
96322SOL    HW190805  12.368   9.962   4.911
96322SOL    HW290806  12.336   9.911   4.772
96323SOL     OW90807   2.880   7.426  14.282
96323SOL    HW190808   2.917   7.498  14.333
96323SOL    HW290809   2.899   7.449  14.191
96324SOL     OW90810   0.413   2.012   5.650
96324SOL    HW190811   0.465   2.093   5.650
96324SOL    HW290812   0.396   1.995   5.743
96325SOL     OW90813   2.066   1.312   7.799
96325SOL    HW190814   2.100   1.336   7.884
96325SOL    HW290815   1.996   1.375   7.782
96326SOL     OW90816   5.428   0.315  13.868
96326SOL    HW190817   5.490   0.351  13.932
96326SOL    HW290818   5.389   0.240  13.913
96327SOL     OW90819   9.347   5.287  11.915
96327SOL    HW190820   9.394   5.276  11.833
96327SOL    HW290821   9.355   5.202  11.959
96328SOL     OW90822   6.535   8.656  13.923
96328SOL    HW190823   6.481   8.580  13.902
96328SOL    HW290824   6.479   8.731  13.904
96329SOL     OW90825  14.030   1.645   1.960
96329SOL    HW190826  14.113   1.690   1.942
96329SOL    HW290827  13.963   1.701   1.921
96330SOL     OW90828  12.372   6.500  13.047
96330SOL    HW190829  12.400   6.415  13.082
96330SOL    HW290830  12.451   6.553  13.047
96331SOL     OW90831  13.135  12.465   2.211
96331SOL    HW190832  13.138  12.557   2.185
96331SOL    HW290833  13.181  12.462   2.295
96332SOL     OW90834  14.651   4.733   5.962
96332SOL    HW190835  14.583   4.773   6.016
96332SOL    HW290836  14.679   4.802   5.902
96333SOL     OW90837   1.610   6.192   6.955
96333SOL    HW190838   1.645   6.107   6.930
96333SOL    HW290839   1.610   6.243   6.874
96334SOL     OW90840   9.848   8.509   8.038
96334SOL    HW190841   9.826   8.460   8.118
96334SOL    HW290842   9.941   8.493   8.026
96335SOL     OW90843   7.401  11.017   0.273
96335SOL    HW190844   7.338  10.953   0.308
96335SOL    HW290845   7.371  11.033   0.183
96336SOL     OW90846   7.770  13.170  10.833
96336SOL    HW190847   7.854  13.168  10.878
96336SOL    HW290848   7.791  13.193  10.743
96337SOL     OW90849  10.302   6.079   6.741
96337SOL    HW190850  10.389   6.059   6.708
96337SOL    HW290851  10.310   6.167   6.777
96338SOL     OW90852   0.795  12.846   1.954
96338SOL    HW190853   0.759  12.798   1.880
96338SOL    HW290854   0.719  12.877   2.002
96339SOL     OW90855   1.017  11.069   2.345
96339SOL    HW190856   1.052  11.058   2.256
96339SOL    HW290857   0.923  11.049   2.336
96340SOL     OW90858  12.876  14.292  10.458
96340SOL    HW190859  12.832  14.365  10.414
96340SOL    HW290860  12.945  14.334  10.510
96341SOL     OW90861  13.387   4.022  14.503
96341SOL    HW190862  13.450   4.094  14.510
96341SOL    HW290863  13.310   4.062  14.462
96342SOL     OW90864   0.552  12.990   3.270
96342SOL    HW190865   0.551  12.998   3.365
96342SOL    HW290866   0.462  13.009   3.244
96343SOL     OW90867  13.996  12.023  11.485
96343SOL    HW190868  14.068  12.008  11.547
96343SOL    HW290869  14.040  12.032  11.400
96344SOL     OW90870   9.910  11.126   6.421
96344SOL    HW190871   9.958  11.061   6.473
96344SOL    HW290872   9.976  11.162   6.361
96345SOL     OW90873   9.520  11.668  11.270
96345SOL    HW190874   9.605  11.683  11.230
96345SOL    HW290875   9.504  11.746  11.323
96346SOL     OW90876  12.340   5.374   7.485
96346SOL    HW190877  12.354   5.290   7.528
96346SOL    HW290878  12.254   5.366   7.444
96347SOL     OW90879  14.473  13.326  14.032
96347SOL    HW190880  14.448  13.316  13.940
96347SOL    HW290881  14.532  13.401  14.033
96348SOL     OW90882  11.349   6.680   0.389
96348SOL    HW190883  11.435   6.712   0.414
96348SOL    HW290884  11.289   6.749   0.419
96349SOL     OW90885  14.456  10.071   7.204
96349SOL    HW190886  14.519  10.004   7.229
96349SOL    HW290887  14.385  10.024   7.160
96350SOL     OW90888   9.829   8.266   0.619
96350SOL    HW190889   9.768   8.234   0.686
96350SOL    HW290890   9.780   8.335   0.574
96351SOL     OW90891   1.389   0.948   0.354
96351SOL    HW190892   1.347   0.877   0.307
96351SOL    HW290893   1.317   0.997   0.393
96352SOL     OW90894   4.643   5.222   4.398
96352SOL    HW190895   4.669   5.152   4.458
96352SOL    HW290896   4.585   5.179   4.335
96353SOL     OW90897   3.309   7.450   1.250
96353SOL    HW190898   3.372   7.519   1.231
96353SOL    HW290899   3.241   7.461   1.183
96354SOL     OW90900   7.055   5.149   3.410
96354SOL    HW190901   7.041   5.242   3.426
96354SOL    HW290902   7.135   5.128   3.457
96355SOL     OW90903   3.892   1.200   7.801
96355SOL    HW190904   3.835   1.238   7.734
96355SOL    HW290905   3.927   1.275   7.848
96356SOL     OW90906  13.669  11.301   4.596
96356SOL    HW190907  13.595  11.242   4.586
96356SOL    HW290908  13.746  11.244   4.595
96357SOL     OW90909   5.276  13.790   8.091
96357SOL    HW190910   5.302  13.699   8.080
96357SOL    HW290911   5.209  13.789   8.159
96358SOL     OW90912   0.917  10.143  11.525
96358SOL    HW190913   0.896  10.214  11.464
96358SOL    HW290914   0.924  10.065  11.470
96359SOL     OW90915   9.326   9.684  11.018
96359SOL    HW190916   9.269   9.608  11.007
96359SOL    HW290917   9.306   9.740  10.943
96360SOL     OW90918   0.388   6.456  12.502
96360SOL    HW190919   0.452   6.407  12.452
96360SOL    HW290920   0.390   6.417  12.589
96361SOL     OW90921   1.293   8.272   5.560
96361SOL    HW190922   1.310   8.352   5.609
96361SOL    HW290923   1.200   8.278   5.537
96362SOL     OW90924   4.923  12.984  12.366
96362SOL    HW190925   4.930  13.066  12.317
96362SOL    HW290926   5.000  12.984  12.424
96363SOL     OW90927  12.192   7.421   6.227
96363SOL    HW190928  12.271   7.391   6.272
96363SOL    HW290929  12.221   7.494   6.173
96364SOL     OW90930   6.556  12.947   1.256
96364SOL    HW190931   6.529  13.028   1.300
96364SOL    HW290932   6.488  12.883   1.277
96365SOL     OW90933   3.575   0.235   2.121
96365SOL    HW190934   3.490   0.209   2.156
96365SOL    HW290935   3.593   0.320   2.162
96366SOL     OW90936   3.406   8.547  13.725
96366SOL    HW190937   3.410   8.599  13.645
96366SOL    HW290938   3.482   8.576  13.776
96367SOL     OW90939  11.235   0.724   2.515
96367SOL    HW190940  11.288   0.803   2.525
96367SOL    HW290941  11.194   0.733   2.428
96368SOL     OW90942  14.443   1.274  12.212
96368SOL    HW190943  14.369   1.330  12.184
96368SOL    HW290944  14.412   1.185  12.196
96369SOL     OW90945   6.931  14.665  13.367
96369SOL    HW190946   6.862  14.708  13.418
96369SOL    HW290947   6.980  14.613  13.431
96370SOL     OW90948   2.280  10.103   0.830
96370SOL    HW190949   2.220  10.124   0.901
96370SOL    HW290950   2.336  10.034   0.864
96371SOL     OW90951   0.179   4.634   0.169
96371SOL    HW190952   0.227   4.716   0.172
96371SOL    HW290953   0.233   4.576   0.115
96372SOL     OW90954   9.894  11.390   4.714
96372SOL    HW190955   9.903  11.316   4.654
96372SOL    HW290956   9.981  11.429   4.717
96373SOL     OW90957   3.815  13.729   2.806
96373SOL    HW190958   3.769  13.810   2.784
96373SOL    HW290959   3.792  13.668   2.736
96374SOL     OW90960   1.818  13.003   4.280
96374SOL    HW190961   1.729  12.986   4.311
96374SOL    HW290962   1.873  12.945   4.333
96375SOL     OW90963  12.336   9.919   4.385
96375SOL    HW190964  12.360   9.857   4.316
96375SOL    HW290965  12.350  10.005   4.345
96376SOL     OW90966   8.820   8.218   4.928
96376SOL    HW190967   8.803   8.140   4.980
96376SOL    HW290968   8.779   8.199   4.843
96377SOL     OW90969   1.155   6.265   1.286
96377SOL    HW190970   1.158   6.219   1.203
96377SOL    HW290971   1.229   6.326   1.283
96378SOL     OW90972  14.384   0.198   5.439
96378SOL    HW190973  14.347   0.236   5.518
96378SOL    HW290974  14.328   0.229   5.368
96379SOL     OW90975   6.917   6.742  14.727
96379SOL    HW190976   6.982   6.783  14.670
96379SOL    HW290977   6.864   6.814  14.761
96380SOL     OW90978  12.482  12.306   2.686
96380SOL    HW190979  12.543  12.244   2.726
96380SOL    HW290980  12.428  12.337   2.759
96381SOL     OW90981   9.578   3.796   4.322
96381SOL    HW190982   9.622   3.781   4.405
96381SOL    HW290983   9.631   3.748   4.258
96382SOL     OW90984   2.641  13.734   2.631
96382SOL    HW190985   2.736  13.728   2.627
96382SOL    HW290986   2.616  13.676   2.703
96383SOL     OW90987   9.343   4.248   8.975
96383SOL    HW190988   9.265   4.278   8.928
96383SOL    HW290989   9.365   4.164   8.934
96384SOL     OW90990   0.038  12.499  12.425
96384SOL    HW190991  14.832  12.498  12.387
96384SOL    HW290992   0.082  12.572  12.382
96385SOL     OW90993  10.532   6.612   3.259
96385SOL    HW190994  10.473   6.540   3.236
96385SOL    HW290995  10.493   6.650   3.338
96386SOL     OW90996   5.420  12.219   6.795
96386SOL    HW190997   5.475  12.275   6.850
96386SOL    HW290998   5.357  12.278   6.755
96387SOL     OW90999  13.209   7.855   2.765
96387SOL    HW191000  13.256   7.845   2.682
96387SOL    HW291001  13.232   7.777   2.815
96388SOL     OW91002   0.580  14.657  12.453
96388SOL    HW191003   0.485  14.663  12.455
96388SOL    HW291004   0.602  14.596  12.524
96389SOL     OW91005   1.231   7.497  11.537
96389SOL    HW191006   1.224   7.586  11.571
96389SOL    HW291007   1.308   7.461  11.581
96390SOL     OW91008   4.892   7.460  14.137
96390SOL    HW191009   4.985   7.454  14.112
96390SOL    HW291010   4.893   7.457  14.233
96391SOL     OW91011   3.521  11.338  10.789
96391SOL    HW191012   3.602  11.383  10.811
96391SOL    HW291013   3.453  11.405  10.798
96392SOL     OW91014   8.305  14.597   8.435
96392SOL    HW191015   8.219  14.636   8.420
96392SOL    HW291016   8.319  14.605   8.529
96393SOL     OW91017  12.657   3.013  14.498
96393SOL    HW191018  12.666   2.987  14.590
96393SOL    HW291019  12.653   2.930  14.450
96394SOL     OW91020   9.426   3.055   1.539
96394SOL    HW191021   9.367   3.016   1.474
96394SOL    HW291022   9.508   3.007   1.528
96395SOL     OW91023   1.564   5.462   1.322
96395SOL    HW191024   1.520   5.537   1.361
96395SOL    HW291025   1.497   5.421   1.267
96396SOL     OW91026  14.503   8.066   7.283
96396SOL    HW191027  14.598   8.075   7.289
96396SOL    HW291028  14.480   8.116   7.204
96397SOL     OW91029  12.316   6.558   3.628
96397SOL    HW191030  12.287   6.537   3.717
96397SOL    HW291031  12.389   6.619   3.640
96398SOL     OW91032   5.396   1.007  11.516
96398SOL    HW191033   5.459   1.058  11.467
96398SOL    HW291034   5.321   1.066  11.528
96399SOL     OW91035   1.719   9.662  13.185
96399SOL    HW191036   1.667   9.713  13.247
96399SOL    HW291037   1.808   9.693  13.197
96400SOL     OW91038  12.297   6.687   6.589
96400SOL    HW191039  12.245   6.619   6.546
96400SOL    HW291040  12.386   6.652   6.591
96401SOL     OW91041  13.084   2.627  10.786
96401SOL    HW191042  13.121   2.708  10.823
96401SOL    HW291043  13.161   2.573  10.765
96402SOL     OW91044   8.718  12.657   7.864
96402SOL    HW191045   8.712  12.668   7.769
96402SOL    HW291046   8.631  12.625   7.890
96403SOL     OW91047   5.517   9.352   4.913
96403SOL    HW191048   5.584   9.283   4.919
96403SOL    HW291049   5.454   9.319   4.849
96404SOL     OW91050   5.567   7.963  10.305
96404SOL    HW191051   5.531   8.033  10.250
96404SOL    HW291052   5.661   7.980  10.307
96405SOL     OW91053   3.129  12.729   4.188
96405SOL    HW191054   3.218  12.761   4.175
96405SOL    HW291055   3.087  12.743   4.103
96406SOL     OW91056  13.713   4.671  13.380
96406SOL    HW191057  13.662   4.612  13.324
96406SOL    HW291058  13.754   4.614  13.445
96407SOL     OW91059  10.208   7.555  12.804
96407SOL    HW191060  10.265   7.598  12.740
96407SOL    HW291061  10.167   7.628  12.852
96408SOL     OW91062   6.003   1.690   3.206
96408SOL    HW191063   5.938   1.747   3.166
96408SOL    HW291064   6.034   1.738   3.283
96409SOL     OW91065   8.349  10.257   9.167
96409SOL    HW191066   8.413  10.324   9.143
96409SOL    HW291067   8.347  10.198   9.092
96410SOL     OW91068   8.746  11.549   0.894
96410SOL    HW191069   8.725  11.643   0.895
96410SOL    HW291070   8.676  11.509   0.843
96411SOL     OW91071   0.716  11.106  14.350
96411SOL    HW191072   0.719  11.126  14.256
96411SOL    HW291073   0.701  11.012  14.354
96412SOL     OW91074   3.624   1.562   8.167
96412SOL    HW191075   3.595   1.562   8.075
96412SOL    HW291076   3.713   1.598   8.164
96413SOL     OW91077  14.225   9.949   0.045
96413SOL    HW191078  14.134   9.963   0.018
96413SOL    HW291079  14.268  10.033   0.028
96414SOL     OW91080   3.371   7.929   0.198
96414SOL    HW191081   3.372   7.896   0.288
96414SOL    HW291082   3.381   8.024   0.207
96415SOL     OW91083   5.222   7.595   6.551
96415SOL    HW191084   5.204   7.511   6.509
96415SOL    HW291085   5.137   7.639   6.554
96416SOL     OW91086   6.897   5.245   5.522
96416SOL    HW191087   6.855   5.159   5.520
96416SOL    HW291088   6.854   5.294   5.451
96417SOL     OW91089  14.815   3.951   0.910
96417SOL    HW191090  14.740   3.895   0.931
96417SOL    HW291091  14.776   4.033   0.881
96418SOL     OW91092   6.299   4.079  11.792
96418SOL    HW191093   6.268   4.156  11.838
96418SOL    HW291094   6.393   4.093  11.782
96419SOL     OW91095   4.429   9.572   2.988
96419SOL    HW191096   4.476   9.547   3.068
96419SOL    HW291097   4.388   9.491   2.959
96420SOL     OW91098   6.558   0.940   3.079
96420SOL    HW191099   6.516   0.908   3.000
96420SOL    HW291100   6.554   1.035   3.072
96421SOL     OW91101  12.268   6.785  13.247
96421SOL    HW191102  12.272   6.867  13.296
96421SOL    HW291103  12.359   6.756  13.240
96422SOL     OW91104   6.761   2.269   4.642
96422SOL    HW191105   6.787   2.330   4.711
96422SOL    HW291106   6.837   2.213   4.628
96423SOL     OW91107  14.775   8.199   6.843
96423SOL    HW191108  14.845   8.134   6.848
96423SOL    HW291109  14.761   8.212   6.749
96424SOL     OW91110   4.289   4.462   2.143
96424SOL    HW191111   4.291   4.369   2.163
96424SOL    HW291112   4.299   4.467   2.048
96425SOL     OW91113   5.494  13.330  10.863
96425SOL    HW191114   5.441  13.265  10.816
96425SOL    HW291115   5.519  13.287  10.944
96426SOL     OW91116   7.458  12.347   1.711
96426SOL    HW191117   7.539  12.368   1.758
96426SOL    HW291118   7.474  12.260   1.674
96427SOL     OW91119   2.530  12.185   1.249
96427SOL    HW191120   2.579  12.104   1.259
96427SOL    HW291121   2.459  12.163   1.188
96428SOL     OW91122   1.939   1.635  13.102
96428SOL    HW191123   1.860   1.688  13.088
96428SOL    HW291124   1.954   1.639  13.196
96429SOL     OW91125   0.114   5.989   7.364
96429SOL    HW191126   0.129   6.011   7.272
96429SOL    HW291127   0.180   5.922   7.384
96430SOL     OW91128   1.465  14.826  13.066
96430SOL    HW191129   1.544  14.774  13.055
96430SOL    HW291130   1.496   0.028  13.101
96431SOL     OW91131   7.132   0.785   1.040
96431SOL    HW191132   7.224   0.811   1.035
96431SOL    HW291133   7.103   0.814   1.127
96432SOL     OW91134  10.800   1.331   2.529
96432SOL    HW191135  10.868   1.284   2.577
96432SOL    HW291136  10.845   1.408   2.493
96433SOL     OW91137  13.392   7.938   6.195
96433SOL    HW191138  13.309   7.977   6.221
96433SOL    HW291139  13.382   7.844   6.210
96434SOL     OW91140  11.588  13.467  13.790
96434SOL    HW191141  11.673  13.451  13.749
96434SOL    HW291142  11.525  13.419  13.736
96435SOL     OW91143   7.131  13.901   1.083
96435SOL    HW191144   7.223  13.903   1.056
96435SOL    HW291145   7.124  13.819   1.134
96436SOL     OW91146   2.212  11.369   5.475
96436SOL    HW191147   2.248  11.395   5.559
96436SOL    HW291148   2.153  11.296   5.496
96437SOL     OW91149   8.306   5.385   8.644
96437SOL    HW191150   8.356   5.466   8.634
96437SOL    HW291151   8.290   5.379   8.738
96438SOL     OW91152   7.011  11.367  12.580
96438SOL    HW191153   7.003  11.354  12.675
96438SOL    HW291154   6.924  11.394  12.552
96439SOL     OW91155  14.683   5.071  12.188
96439SOL    HW191156  14.764   5.056  12.235
96439SOL    HW291157  14.683   5.007  12.117
96440SOL     OW91158  12.751   5.863  14.395
96440SOL    HW191159  12.702   5.783  14.411
96440SOL    HW291160  12.799   5.878  14.476
96441SOL     OW91161   6.730   0.229   6.545
96441SOL    HW191162   6.760   0.301   6.490
96441SOL    HW291163   6.702   0.162   6.483
96442SOL     OW91164  12.240   8.716  10.462
96442SOL    HW191165  12.182   8.716  10.386
96442SOL    HW291166  12.299   8.790  10.448
96443SOL     OW91167   0.482   5.579  14.297
96443SOL    HW191168   0.512   5.610  14.212
96443SOL    HW291169   0.486   5.483  14.291
96444SOL     OW91170   4.569  12.575   2.981
96444SOL    HW191171   4.477  12.553   2.999
96444SOL    HW291172   4.599  12.619   3.060
96445SOL     OW91173   8.341   4.743   1.088
96445SOL    HW191174   8.266   4.684   1.081
96445SOL    HW291175   8.322   4.798   1.163
96446SOL     OW91176   9.497  11.223   3.848
96446SOL    HW191177   9.492  11.193   3.757
96446SOL    HW291178   9.590  11.236   3.863
96447SOL     OW91179   9.166   5.935   9.435
96447SOL    HW191180   9.157   6.014   9.382
96447SOL    HW291181   9.260   5.927   9.450
96448SOL     OW91182   6.772   1.162   4.266
96448SOL    HW191183   6.715   1.200   4.199
96448SOL    HW291184   6.786   1.072   4.238
96449SOL     OW91185   4.507   1.283   9.476
96449SOL    HW191186   4.423   1.328   9.470
96449SOL    HW291187   4.573   1.352   9.469
96450SOL     OW91188   7.226   2.264  12.811
96450SOL    HW191189   7.263   2.353  12.805
96450SOL    HW291190   7.283   2.211  12.756
96451SOL     OW91191   6.456  11.890  11.448
96451SOL    HW191192   6.429  11.806  11.483
96451SOL    HW291193   6.380  11.947  11.461
96452SOL     OW91194   1.520   3.700  14.338
96452SOL    HW191195   1.521   3.793  14.315
96452SOL    HW291196   1.427   3.677  14.338
96453SOL     OW91197  10.205  12.990   0.172
96453SOL    HW191198  10.202  13.076   0.216
96453SOL    HW291199  10.219  13.011   0.080
96454SOL     OW91200   6.746   4.458  14.877
96454SOL    HW191201   6.829   4.437   0.038
96454SOL    HW291202   6.763   4.540  14.832
96455SOL     OW91203   1.989   6.546   4.242
96455SOL    HW191204   2.070   6.566   4.196
96455SOL    HW291205   2.011   6.556   4.335
96456SOL     OW91206   0.906   1.074   9.617
96456SOL    HW191207   0.946   1.088   9.702
96456SOL    HW291208   0.825   1.026   9.636
96457SOL     OW91209  11.634  14.556  12.393
96457SOL    HW191210  11.610  14.464  12.400
96457SOL    HW291211  11.700  14.569  12.461
96458SOL     OW91212   6.889   6.879  13.696
96458SOL    HW191213   6.941   6.805  13.664
96458SOL    HW291214   6.835   6.842  13.766
96459SOL     OW91215  11.552   3.257   8.993
96459SOL    HW191216  11.465   3.216   8.998
96459SOL    HW291217  11.538   3.334   8.938
96460SOL     OW91218   1.771   0.977   0.858
96460SOL    HW191219   1.787   1.069   0.837
96460SOL    HW291220   1.696   0.952   0.804
96461SOL     OW91221  13.571   9.508   8.536
96461SOL    HW191222  13.500   9.474   8.591
96461SOL    HW291223  13.651   9.469   8.572
96462SOL     OW91224  12.638  10.884  14.724
96462SOL    HW191225  12.677  10.967  14.752
96462SOL    HW291226  12.704  10.818  14.746
96463SOL     OW91227  13.571   8.374   3.701
96463SOL    HW191228  13.613   8.308   3.646
96463SOL    HW291229  13.512   8.324   3.758
96464SOL     OW91230   2.302  13.108   5.837
96464SOL    HW191231   2.342  13.179   5.788
96464SOL    HW291232   2.313  13.132   5.929
96465SOL     OW91233  11.114  12.628   3.886
96465SOL    HW191234  11.174  12.606   3.958
96465SOL    HW291235  11.034  12.656   3.930
96466SOL     OW91236  12.754   4.043   9.063
96466SOL    HW191237  12.707   4.030   9.144
96466SOL    HW291238  12.687   4.039   8.995
96467SOL     OW91239   0.072   5.572   7.366
96467SOL    HW191240   0.126   5.623   7.306
96467SOL    HW291241   0.081   5.618   7.450
96468SOL     OW91242  10.894   5.989   3.596
96468SOL    HW191243  10.833   6.056   3.626
96468SOL    HW291244  10.844   5.908   3.597
96469SOL     OW91245  14.722  10.867  13.290
96469SOL    HW191246  14.786  10.926  13.329
96469SOL    HW291247  14.686  10.916  13.216
96470SOL     OW91248   0.737   2.373   0.422
96470SOL    HW191249   0.775   2.379   0.334
96470SOL    HW291250   0.812   2.379   0.481
96471SOL     OW91251  14.826  12.120   3.129
96471SOL    HW191252  14.755  12.118   3.065
96471SOL    HW291253  14.790  12.080   3.208
96472SOL     OW91254   9.830  13.849   2.856
96472SOL    HW191255   9.807  13.898   2.935
96472SOL    HW291256   9.822  13.757   2.882
96473SOL     OW91257   4.275  13.460   3.401
96473SOL    HW191258   4.310  13.371   3.408
96473SOL    HW291259   4.344  13.509   3.356
96474SOL     OW91260  13.688   9.144   0.104
96474SOL    HW191261  13.709   9.126   0.012
96474SOL    HW291262  13.634   9.069   0.132
96475SOL     OW91263  11.553   4.406  13.247
96475SOL    HW191264  11.577   4.495  13.273
96475SOL    HW291265  11.482   4.417  13.184
96476SOL     OW91266   5.022   6.092   3.525
96476SOL    HW191267   5.089   6.072   3.591
96476SOL    HW291268   5.001   6.184   3.540
96477SOL     OW91269  11.346   9.996  11.725
96477SOL    HW191270  11.309   9.909  11.708
96477SOL    HW291271  11.419   9.979  11.784
96478SOL     OW91272   5.487   3.558  14.167
96478SOL    HW191273   5.488   3.532  14.259
96478SOL    HW291274   5.577   3.544  14.137
96479SOL     OW91275  14.346   0.143   9.415
96479SOL    HW191276  14.257   0.151   9.380
96479SOL    HW291277  14.342   0.189   9.499
96480SOL     OW91278   7.478  11.028   9.403
96480SOL    HW191279   7.464  11.085   9.479
96480SOL    HW291280   7.556  10.978   9.426
96481SOL     OW91281  10.402   3.184   1.302
96481SOL    HW191282  10.341   3.212   1.234
96481SOL    HW291283  10.404   3.088   1.295
96482SOL     OW91284   3.266  11.598   1.800
96482SOL    HW191285   3.187  11.553   1.829
96482SOL    HW291286   3.308  11.628   1.881
96483SOL     OW91287   5.012   7.739   2.640
96483SOL    HW191288   5.057   7.673   2.693
96483SOL    HW291289   5.049   7.822   2.669
96484SOL     OW91290  11.462  12.112   4.224
96484SOL    HW191291  11.464  12.146   4.134
96484SOL    HW291292  11.522  12.038   4.223
96485SOL     OW91293  13.262   9.268   9.918
96485SOL    HW191294  13.204   9.310   9.982
96485SOL    HW291295  13.348   9.307   9.935
96486SOL     OW91296   9.891  14.025   3.365
96486SOL    HW191297   9.974  14.072   3.356
96486SOL    HW291298   9.911  13.937   3.332
96487SOL     OW91299   1.138   0.095  10.754
96487SOL    HW191300   1.063   0.040  10.777
96487SOL    HW291301   1.213   0.036  10.756
96488SOL     OW91302  14.458  14.261   5.757
96488SOL    HW191303  14.529  14.272   5.821
96488SOL    HW291304  14.381  14.238   5.810
96489SOL     OW91305  13.422   1.283   3.706
96489SOL    HW191306  13.416   1.220   3.778
96489SOL    HW291307  13.511   1.274   3.673
96490SOL     OW91308   4.125  13.684  10.323
96490SOL    HW191309   4.218  13.660  10.326
96490SOL    HW291310   4.120  13.767  10.369
96491SOL     OW91311  12.287   8.284   4.337
96491SOL    HW191312  12.280   8.193   4.307
96491SOL    HW291313  12.240   8.335   4.271
96492SOL     OW91314   6.191  11.323   6.379
96492SOL    HW191315   6.262  11.366   6.330
96492SOL    HW291316   6.180  11.239   6.335
96493SOL     OW91317   9.558   5.315   8.924
96493SOL    HW191318   9.481   5.326   8.980
96493SOL    HW291319   9.525   5.271   8.846
96494SOL     OW91320   6.899  12.039   8.037
96494SOL    HW191321   6.831  12.106   8.043
96494SOL    HW291322   6.854  11.963   8.001
96495SOL     OW91323  14.537   2.888   2.095
96495SOL    HW191324  14.524   2.967   2.043
96495SOL    HW291325  14.558   2.921   2.183
96496SOL     OW91326   5.041   9.568   5.153
96496SOL    HW191327   4.964   9.608   5.113
96496SOL    HW291328   5.046   9.481   5.113
96497SOL     OW91329   6.009  10.327  10.566
96497SOL    HW191330   5.994  10.382  10.644
96497SOL    HW291331   5.930  10.337  10.514
96498SOL     OW91332  11.421   5.236   3.748
96498SOL    HW191333  11.479   5.267   3.818
96498SOL    HW291334  11.379   5.158   3.784
96499SOL     OW91335  13.873  10.268  11.630
96499SOL    HW191336  13.885  10.201  11.562
96499SOL    HW291337  13.804  10.324  11.595
96500SOL     OW91338   6.390  11.171  11.403
96500SOL    HW191339   6.376  11.200  11.313
96500SOL    HW291340   6.375  11.249  11.456
96501SOL     OW91341   0.335   4.098   1.113
96501SOL    HW191342   0.299   4.017   1.149
96501SOL    HW291343   0.279   4.119   1.039
96502SOL     OW91344  12.973   1.648   5.986
96502SOL    HW191345  12.878   1.658   5.976
96502SOL    HW291346  12.997   1.712   6.052
96503SOL     OW91347   4.391   2.469   4.279
96503SOL    HW191348   4.413   2.480   4.372
96503SOL    HW291349   4.412   2.554   4.239
96504SOL     OW91350   8.845   1.845   2.292
96504SOL    HW191351   8.877   1.766   2.248
96504SOL    HW291352   8.759   1.820   2.326
96505SOL     OW91353   9.483   5.159  13.762
96505SOL    HW191354   9.465   5.252  13.768
96505SOL    HW291355   9.428   5.119  13.829
96506SOL     OW91356  12.369   7.160   3.457
96506SOL    HW191357  12.440   7.209   3.416
96506SOL    HW291358  12.305   7.145   3.387
96507SOL     OW91359   9.960   4.140  10.648
96507SOL    HW191360   9.872   4.174  10.662
96507SOL    HW291361   9.958   4.106  10.558
96508SOL     OW91362  11.289   3.273   4.523
96508SOL    HW191363  11.249   3.227   4.449
96508SOL    HW291364  11.353   3.331   4.483
96509SOL     OW91365   8.189  14.099   9.852
96509SOL    HW191366   8.176  14.181   9.900
96509SOL    HW291367   8.198  14.032   9.921
96510SOL     OW91368  11.016   4.637   2.240
96510SOL    HW191369  11.016   4.565   2.303
96510SOL    HW291370  10.934   4.627   2.192
96511SOL     OW91371  13.882  12.278  12.934
96511SOL    HW191372  13.932  12.199  12.956
96511SOL    HW291373  13.807  12.245  12.884
96512SOL     OW91374   7.296  11.401   6.766
96512SOL    HW191375   7.228  11.399   6.698
96512SOL    HW291376   7.259  11.454   6.836
96513SOL     OW91377   6.994   6.535   0.960
96513SOL    HW191378   6.990   6.475   1.034
96513SOL    HW291379   7.083   6.525   0.925
96514SOL     OW91380  11.512   5.612   2.000
96514SOL    HW191381  11.487   5.554   1.928
96514SOL    HW291382  11.445   5.680   2.000
96515SOL     OW91383  10.984   2.079  13.602
96515SOL    HW191384  11.045   2.108  13.670
96515SOL    HW291385  11.005   1.987  13.589
96516SOL     OW91386  14.228   7.370  13.184
96516SOL    HW191387  14.203   7.369  13.277
96516SOL    HW291388  14.174   7.302  13.144
96517SOL     OW91389   6.431  11.750  14.399
96517SOL    HW191390   6.411  11.829  14.349
96517SOL    HW291391   6.373  11.683  14.361
96518SOL     OW91392  11.006  14.181   0.874
96518SOL    HW191393  11.048  14.123   0.938
96518SOL    HW291394  10.921  14.202   0.913
96519SOL     OW91395  11.429   1.348   5.636
96519SOL    HW191396  11.361   1.280   5.632
96519SOL    HW291397  11.472   1.344   5.551
96520SOL     OW91398  12.496  13.626   4.152
96520SOL    HW191399  12.503  13.594   4.242
96520SOL    HW291400  12.429  13.570   4.112
96521SOL     OW91401   5.674   6.269   7.346
96521SOL    HW191402   5.730   6.193   7.331
96521SOL    HW291403   5.604   6.260   7.282
96522SOL     OW91404  10.492   7.208  11.609
96522SOL    HW191405  10.569   7.153  11.599
96522SOL    HW291406  10.450   7.208  11.523
96523SOL     OW91407  12.548   4.894  10.784
96523SOL    HW191408  12.487   4.964  10.760
96523SOL    HW291409  12.633   4.937  10.791
96524SOL     OW91410   2.667   2.471   2.662
96524SOL    HW191411   2.729   2.451   2.731
96524SOL    HW291412   2.584   2.436   2.693
96525SOL     OW91413   1.974   1.181   3.186
96525SOL    HW191414   1.960   1.107   3.245
96525SOL    HW291415   1.887   1.199   3.150
96526SOL     OW91416  10.957   5.211  13.138
96526SOL    HW191417  10.944   5.147  13.208
96526SOL    HW291418  10.869   5.242  13.116
96527SOL     OW91419   0.648   8.595   9.096
96527SOL    HW191420   0.677   8.570   9.008
96527SOL    HW291421   0.686   8.681   9.111
96528SOL     OW91422   4.351   8.892  10.039
96528SOL    HW191423   4.424   8.896  10.102
96528SOL    HW291424   4.319   8.802  10.045
96529SOL     OW91425  12.766  10.959  11.178
96529SOL    HW191426  12.721  11.042  11.193
96529SOL    HW291427  12.859  10.982  11.177
96530SOL     OW91428   9.451   0.778   5.540
96530SOL    HW191429   9.426   0.860   5.581
96530SOL    HW291430   9.427   0.789   5.448
96531SOL     OW91431   3.174   3.241  10.992
96531SOL    HW191432   3.250   3.297  10.980
96531SOL    HW291433   3.113   3.268  10.923
96532SOL     OW91434   2.333  12.749   9.263
96532SOL    HW191435   2.306  12.665   9.300
96532SOL    HW291436   2.404  12.779   9.320
96533SOL     OW91437   4.404  12.690  11.860
96533SOL    HW191438   4.392  12.732  11.945
96533SOL    HW291439   4.373  12.600  11.873
96534SOL     OW91440   7.971  12.961   6.936
96534SOL    HW191441   7.941  12.938   7.024
96534SOL    HW291442   8.006  13.050   6.946
96535SOL     OW91443  12.682  13.974   7.650
96535SOL    HW191444  12.728  13.987   7.567
96535SOL    HW291445  12.635  14.057   7.664
96536SOL     OW91446  10.947   6.327  13.324
96536SOL    HW191447  10.999   6.379  13.385
96536SOL    HW291448  10.867   6.378  13.310
96537SOL     OW91449   9.869   1.763  12.079
96537SOL    HW191450   9.788   1.731  12.118
96537SOL    HW291451   9.855   1.857  12.068
96538SOL     OW91452   9.889   4.941  12.495
96538SOL    HW191453   9.824   4.964  12.428
96538SOL    HW291454   9.972   4.972  12.460
96539SOL     OW91455   0.113   5.357   2.151
96539SOL    HW191456   0.030   5.335   2.109
96539SOL    HW291457   0.160   5.274   2.156
96540SOL     OW91458   9.583  11.528   9.018
96540SOL    HW191459   9.651  11.493   9.076
96540SOL    HW291460   9.629  11.542   8.935
96541SOL     OW91461   2.657  12.938  13.085
96541SOL    HW191462   2.695  13.023  13.062
96541SOL    HW291463   2.659  12.887  13.004
96542SOL     OW91464   1.585  12.953   9.277
96542SOL    HW191465   1.527  12.963   9.202
96542SOL    HW291466   1.624  13.040   9.289
96543SOL     OW91467   5.454   8.571   4.693
96543SOL    HW191468   5.454   8.665   4.674
96543SOL    HW291469   5.507   8.563   4.772
96544SOL     OW91470  10.776   9.505   0.657
96544SOL    HW191471  10.752   9.417   0.629
96544SOL    HW291472  10.870   9.511   0.639
96545SOL     OW91473   8.499  14.130  13.631
96545SOL    HW191474   8.420  14.081  13.657
96545SOL    HW291475   8.533  14.164  13.714
96546SOL     OW91476   5.671   5.049   8.699
96546SOL    HW191477   5.753   5.032   8.652
96546SOL    HW291478   5.611   5.081   8.631
96547SOL     OW91479  12.956   7.678   5.530
96547SOL    HW191480  12.921   7.743   5.469
96547SOL    HW291481  12.899   7.601   5.519
96548SOL     OW91482  14.059  11.445   4.242
96548SOL    HW191483  14.039  11.452   4.148
96548SOL    HW291484  13.984  11.399   4.279
96549SOL     OW91485  12.944  12.097  10.219
96549SOL    HW191486  12.942  12.176  10.274
96549SOL    HW291487  13.015  12.113  10.157
96550SOL     OW91488  11.925  12.026  13.493
96550SOL    HW191489  11.935  11.945  13.443
96550SOL    HW291490  12.009  12.039  13.536
96551SOL     OW91491  14.475   8.050   0.453
96551SOL    HW191492  14.503   8.138   0.478
96551SOL    HW291493  14.556   8.000   0.447
96552SOL     OW91494   3.936  13.930   2.296
96552SOL    HW191495   3.916  13.948   2.388
96552SOL    HW291496   3.871  13.864   2.270
96553SOL     OW91497  11.020  13.095   1.866
96553SOL    HW191498  11.025  13.125   1.957
96553SOL    HW291499  11.072  13.014   1.865
96554SOL     OW91500   6.610   5.150   9.924
96554SOL    HW191501   6.618   5.079   9.860
96554SOL    HW291502   6.688   5.203   9.912
96555SOL     OW91503   5.686   9.734  14.437
96555SOL    HW191504   5.675   9.764  14.527
96555SOL    HW291505   5.688   9.813  14.384
96556SOL     OW91506   2.310   1.860   3.018
96556SOL    HW191507   2.275   1.809   3.091
96556SOL    HW291508   2.247   1.849   2.948
96557SOL     OW91509   0.154   4.863   9.595
96557SOL    HW191510   0.060   4.849   9.589
96557SOL    HW291511   0.180   4.892   9.508
96558SOL     OW91512   8.070   6.694   8.553
96558SOL    HW191513   8.007   6.675   8.622
96558SOL    HW291514   8.102   6.608   8.525
96559SOL     OW91515  11.995  12.530   4.190
96559SOL    HW191516  12.072  12.485   4.224
96559SOL    HW291517  11.947  12.462   4.143
96560SOL     OW91518   2.018  10.495  13.961
96560SOL    HW191519   2.060  10.525  14.042
96560SOL    HW291520   1.929  10.530  13.967
96561SOL     OW91521   2.372  11.401   6.853
96561SOL    HW191522   2.431  11.361   6.789
96561SOL    HW291523   2.304  11.335   6.867
96562SOL     OW91524   8.553  12.325  13.624
96562SOL    HW191525   8.537  12.322  13.719
96562SOL    HW291526   8.648  12.314  13.615
96563SOL     OW91527   2.219   5.053   3.486
96563SOL    HW191528   2.215   5.072   3.392
96563SOL    HW291529   2.136   5.009   3.505
96564SOL     OW91530  13.062   0.991   4.370
96564SOL    HW191531  12.992   1.056   4.359
96564SOL    HW291532  13.098   0.978   4.283
96565SOL     OW91533   2.787   4.829   0.928
96565SOL    HW191534   2.729   4.753   0.937
96565SOL    HW291535   2.833   4.834   1.012
96566SOL     OW91536   0.012  13.774  13.905
96566SOL    HW191537   0.021  13.819  13.988
96566SOL    HW291538  14.824  13.820  13.859
96567SOL     OW91539   8.629  13.169   5.291
96567SOL    HW191540   8.657  13.181   5.201
96567SOL    HW291541   8.534  13.178   5.289
96568SOL     OW91542   4.453  12.942  11.599
96568SOL    HW191543   4.514  13.009  11.569
96568SOL    HW291544   4.509  12.872  11.632
96569SOL     OW91545   0.707   5.322  14.077
96569SOL    HW191546   0.676   5.366  13.999
96569SOL    HW291547   0.748   5.391  14.129
96570SOL     OW91548   5.320   9.241   9.422
96570SOL    HW191549   5.336   9.205   9.510
96570SOL    HW291550   5.403   9.282   9.397
96571SOL     OW91551   0.693   1.618   2.244
96571SOL    HW191552   0.722   1.627   2.334
96571SOL    HW291553   0.701   1.706   2.207
96572SOL     OW91554   3.241   9.124   9.958
96572SOL    HW191555   3.306   9.123   9.887
96572SOL    HW291556   3.162   9.159   9.919
96573SOL     OW91557   2.221   2.274   5.162
96573SOL    HW191558   2.232   2.369   5.153
96573SOL    HW291559   2.240   2.240   5.075
96574SOL     OW91560  11.319  12.450  13.066
96574SOL    HW191561  11.287  12.442  12.976
96574SOL    HW291562  11.409  12.482  13.056
96575SOL     OW91563   0.813  11.873   2.103
96575SOL    HW191564   0.878  11.921   2.153
96575SOL    HW291565   0.845  11.783   2.102
96576SOL     OW91566  11.587   5.161   9.786
96576SOL    HW191567  11.538   5.085   9.754
96576SOL    HW291568  11.519   5.222   9.814
96577SOL     OW91569   4.204   0.930   1.617
96577SOL    HW191570   4.281   0.938   1.561
96577SOL    HW291571   4.223   0.856   1.674
96578SOL     OW91572   4.607   0.733   6.279
96578SOL    HW191573   4.532   0.679   6.255
96578SOL    HW291574   4.614   0.798   6.209
96579SOL     OW91575  10.262   1.722   9.286
96579SOL    HW191576  10.277   1.816   9.287
96579SOL    HW291577  10.270   1.697   9.194
96580SOL     OW91578  14.412   4.198  11.335
96580SOL    HW191579  14.362   4.122  11.303
96580SOL    HW291580  14.348   4.270  11.333
96581SOL     OW91581   8.444  11.674   3.315
96581SOL    HW191582   8.540  11.680   3.317
96581SOL    HW291583   8.426  11.582   3.334
96582SOL     OW91584   6.700  14.870   6.362
96582SOL    HW191585   6.695  14.833   6.274
96582SOL    HW291586   6.780   0.040   6.363
96583SOL     OW91587   6.669   1.187   7.025
96583SOL    HW191588   6.645   1.202   7.116
96583SOL    HW291589   6.739   1.121   7.029
96584SOL     OW91590   1.308   3.220   5.324
96584SOL    HW191591   1.373   3.290   5.330
96584SOL    HW291592   1.242   3.243   5.389
96585SOL     OW91593   9.203   0.548   1.114
96585SOL    HW191594   9.232   0.564   1.204
96585SOL    HW291595   9.190   0.635   1.077
96586SOL     OW91596  14.011  14.245  10.416
96586SOL    HW191597  13.945  14.238  10.347
96586SOL    HW291598  14.077  14.180  10.392
96587SOL     OW91599   7.902  11.331  10.321
96587SOL    HW191600   7.943  11.369  10.398
96587SOL    HW291601   7.871  11.406  10.270
96588SOL     OW91602   1.125  10.324   0.209
96588SOL    HW191603   1.141  10.368   0.125
96588SOL    HW291604   1.151  10.233   0.193
96589SOL     OW91605   5.426   7.627  10.917
96589SOL    HW191606   5.410   7.542  10.876
96589SOL    HW291607   5.378   7.690  10.863
96590SOL     OW91608  12.161   6.029  12.499
96590SOL    HW191609  12.169   6.049  12.592
96590SOL    HW291610  12.195   6.107  12.455
96591SOL     OW91611  13.584   9.120   4.341
96591SOL    HW191612  13.644   9.064   4.390
96591SOL    HW291613  13.574   9.198   4.395
96592SOL     OW91614   3.156   0.200  13.845
96592SOL    HW191615   3.130   0.278  13.795
96592SOL    HW291616   3.246   0.183  13.817
96593SOL     OW91617   5.123   1.244   2.190
96593SOL    HW191618   5.124   1.337   2.213
96593SOL    HW291619   5.214   1.216   2.200
96594SOL     OW91620  12.539   9.723   8.298
96594SOL    HW191621  12.626   9.736   8.260
96594SOL    HW291622  12.489   9.679   8.230
96595SOL     OW91623   6.113  12.960  13.559
96595SOL    HW191624   6.150  12.892  13.616
96595SOL    HW291625   6.172  12.962  13.483
96596SOL     OW91626   7.207  14.626   6.690
96596SOL    HW191627   7.262  14.703   6.708
96596SOL    HW291628   7.118  14.660   6.688
96597SOL     OW91629   2.150   9.747   5.173
96597SOL    HW191630   2.133   9.793   5.255
96597SOL    HW291631   2.064   9.713   5.146
96598SOL     OW91632   3.252  11.084  11.737
96598SOL    HW191633   3.251  11.178  11.756
96598SOL    HW291634   3.225  11.043  11.819
96599SOL     OW91635  11.899  14.784   6.069
96599SOL    HW191636  11.947  14.702   6.083
96599SOL    HW291637  11.911  14.832   6.151
96600SOL     OW91638  14.560  10.820   1.253
96600SOL    HW191639  14.477  10.783   1.223
96600SOL    HW291640  14.553  10.822   1.348
96601SOL     OW91641  14.081  13.256   3.131
96601SOL    HW191642  14.122  13.169   3.136
96601SOL    HW291643  13.987  13.238   3.126
96602SOL     OW91644  11.645   8.978  11.950
96602SOL    HW191645  11.628   9.040  12.021
96602SOL    HW291646  11.658   9.034  11.873
96603SOL     OW91647   9.651   1.419   1.252
96603SOL    HW191648   9.585   1.404   1.184
96603SOL    HW291649   9.604   1.462   1.323
96604SOL     OW91650  12.171   1.597   5.780
96604SOL    HW191651  12.151   1.643   5.862
96604SOL    HW291652  12.110   1.635   5.716
96605SOL     OW91653   7.715  12.339   6.210
96605SOL    HW191654   7.717  12.390   6.129
96605SOL    HW291655   7.807  12.326   6.232
96606SOL     OW91656  10.299   7.701   7.244
96606SOL    HW191657  10.343   7.782   7.271
96606SOL    HW291658  10.265   7.721   7.157
96607SOL     OW91659  10.473   7.893   1.706
96607SOL    HW191660  10.404   7.942   1.751
96607SOL    HW291661  10.541   7.881   1.773
96608SOL     OW91662   0.528   3.527   5.289
96608SOL    HW191663   0.606   3.562   5.246
96608SOL    HW291664   0.484   3.476   5.222
96609SOL     OW91665   5.665   7.643   2.225
96609SOL    HW191666   5.603   7.584   2.267
96609SOL    HW291667   5.621   7.669   2.144
96610SOL     OW91668   6.955  14.273  10.154
96610SOL    HW191669   6.932  14.359  10.118
96610SOL    HW291670   7.028  14.291  10.214
96611SOL     OW91671   2.805   6.668   7.432
96611SOL    HW191672   2.869   6.734   7.458
96611SOL    HW291673   2.856   6.588   7.423
96612SOL     OW91674  12.123   0.825   2.520
96612SOL    HW191675  12.200   0.771   2.538
96612SOL    HW291676  12.144   0.911   2.557
96613SOL     OW91677   4.554   1.947   9.343
96613SOL    HW191678   4.648   1.960   9.349
96613SOL    HW291679   4.519   2.034   9.321
96614SOL     OW91680   0.847   3.163   3.672
96614SOL    HW191681   0.919   3.192   3.728
96614SOL    HW291682   0.890   3.131   3.592
96615SOL     OW91683   0.141  11.676  12.013
96615SOL    HW191684   0.164  11.639  11.928
96615SOL    HW291685   0.207  11.744  12.029
96616SOL     OW91686   5.740  12.235   5.442
96616SOL    HW191687   5.754  12.216   5.349
96616SOL    HW291688   5.645  12.240   5.451
96617SOL     OW91689   4.833   5.216  11.526
96617SOL    HW191690   4.843   5.250  11.616
96617SOL    HW291691   4.840   5.121  11.536
96618SOL     OW91692  10.302   2.318  10.798
96618SOL    HW191693  10.356   2.310  10.720
96618SOL    HW291694  10.247   2.240  10.798
96619SOL     OW91695   2.458   7.382  12.915
96619SOL    HW191696   2.514   7.424  12.850
96619SOL    HW291697   2.373   7.374  12.873
96620SOL     OW91698  14.105   7.835  12.216
96620SOL    HW191699  14.082   7.896  12.146
96620SOL    HW291700  14.086   7.883  12.297
96621SOL     OW91701   3.210   3.513   4.263
96621SOL    HW191702   3.190   3.606   4.253
96621SOL    HW291703   3.302   3.511   4.293
96622SOL     OW91704  10.812  14.178   1.188
96622SOL    HW191705  10.731  14.221   1.216
96622SOL    HW291706  10.793  14.084   1.196
96623SOL     OW91707  10.530  10.775   8.482
96623SOL    HW191708  10.520  10.685   8.452
96623SOL    HW291709  10.483  10.779   8.565
96624SOL     OW91710   6.467  11.156  10.546
96624SOL    HW191711   6.402  11.209  10.498
96624SOL    HW291712   6.417  11.082  10.579
96625SOL     OW91713  14.632   6.871  14.168
96625SOL    HW191714  14.546   6.880  14.209
96625SOL    HW291715  14.663   6.960  14.154
96626SOL     OW91716  10.351  10.525  14.352
96626SOL    HW191717  10.420  10.501  14.415
96626SOL    HW291718  10.398  10.561  14.277
96627SOL     OW91719   0.222  12.090   8.898
96627SOL    HW191720   0.169  12.010   8.906
96627SOL    HW291721   0.306  12.067   8.937
96628SOL     OW91722  11.945  10.032   5.072
96628SOL    HW191723  11.982   9.973   5.006
96628SOL    HW291724  11.852  10.037   5.049
96629SOL     OW91725  13.570   4.517  12.946
96629SOL    HW191726  13.578   4.545  12.855
96629SOL    HW291727  13.483   4.478  12.951
96630SOL     OW91728  13.374  14.013  14.561
96630SOL    HW191729  13.329  14.058  14.632
96630SOL    HW291730  13.305  13.966  14.515
96631SOL     OW91731  13.727   0.490   4.743
96631SOL    HW191732  13.673   0.563   4.771
96631SOL    HW291733  13.689   0.413   4.786
96632SOL     OW91734  14.594  13.180   8.711
96632SOL    HW191735  14.668  13.175   8.650
96632SOL    HW291736  14.548  13.260   8.685
96633SOL     OW91737  14.035   4.295   4.102
96633SOL    HW191738  13.988   4.213   4.087
96633SOL    HW291739  14.059   4.293   4.195
96634SOL     OW91740   4.885  10.428   5.323
96634SOL    HW191741   4.962  10.403   5.272
96634SOL    HW291742   4.812  10.385   5.280
96635SOL     OW91743   5.567  13.308   0.963
96635SOL    HW191744   5.608  13.313   1.050
96635SOL    HW291745   5.618  13.241   0.917
96636SOL     OW91746  11.963  13.614   2.313
96636SOL    HW191747  11.914  13.693   2.292
96636SOL    HW291748  11.896  13.546   2.325
96637SOL     OW91749   6.916   7.852  13.830
96637SOL    HW191750   6.991   7.876  13.884
96637SOL    HW291751   6.954   7.817  13.749
96638SOL     OW91752  11.301   3.944  12.831
96638SOL    HW191753  11.389   3.922  12.802
96638SOL    HW291754  11.260   3.985  12.755
96639SOL     OW91755   5.602   8.203   4.839
96639SOL    HW191756   5.625   8.113   4.860
96639SOL    HW291757   5.589   8.203   4.744
96640SOL     OW91758   1.767   1.515   5.475
96640SOL    HW191759   1.753   1.485   5.564
96640SOL    HW291760   1.707   1.462   5.422
96641SOL     OW91761  10.992  11.735   1.255
96641SOL    HW191762  11.052  11.806   1.235
96641SOL    HW291763  10.937  11.727   1.177
96642SOL     OW91764   8.186  13.220   7.244
96642SOL    HW191765   8.175  13.278   7.320
96642SOL    HW291766   8.132  13.144   7.265
96643SOL     OW91767   1.724  14.570   9.565
96643SOL    HW191768   1.801  14.626   9.577
96643SOL    HW291769   1.689  14.595   9.480
96644SOL     OW91770  13.832   4.827  14.382
96644SOL    HW191771  13.752   4.842  14.432
96644SOL    HW291772  13.884   4.907  14.395
96645SOL     OW91773  10.771  10.898  10.678
96645SOL    HW191774  10.695  10.887  10.620
96645SOL    HW291775  10.767  10.990  10.705
96646SOL     OW91776   0.677   4.613   6.798
96646SOL    HW191777   0.745   4.601   6.732
96646SOL    HW291778   0.600   4.567   6.762
96647SOL     OW91779  12.932  11.529   2.826
96647SOL    HW191780  12.845  11.495   2.846
96647SOL    HW291781  12.968  11.469   2.761
96648SOL     OW91782   6.495   7.560   4.590
96648SOL    HW191783   6.455   7.480   4.624
96648SOL    HW291784   6.422   7.610   4.554
96649SOL     OW91785   8.491  12.248   6.473
96649SOL    HW191786   8.539  12.261   6.555
96649SOL    HW291787   8.480  12.153   6.466
96650SOL     OW91788  10.214  12.481   2.465
96650SOL    HW191789  10.252  12.394   2.450
96650SOL    HW291790  10.165  12.472   2.546
96651SOL     OW91791  14.281   4.451   0.213
96651SOL    HW191792  14.191   4.433   0.240
96651SOL    HW291793  14.272   4.488   0.125
96652SOL     OW91794   3.860   7.907  10.495
96652SOL    HW191795   3.921   7.971  10.531
96652SOL    HW291796   3.917   7.840  10.455
96653SOL     OW91797  10.534   7.723  12.804
96653SOL    HW191798  10.546   7.795  12.866
96653SOL    HW291799  10.449   7.739  12.764
96654SOL     OW91800  11.207  11.822  10.093
96654SOL    HW191801  11.228  11.888  10.159
96654SOL    HW291802  11.292  11.784  10.070
96655SOL     OW91803  14.394   5.788   8.205
96655SOL    HW191804  14.418   5.818   8.292
96655SOL    HW291805  14.400   5.693   8.210
96656SOL     OW91806  10.875   5.657   3.166
96656SOL    HW191807  10.781   5.675   3.161
96656SOL    HW291808  10.905   5.708   3.242
96657SOL     OW91809   9.659   0.617   6.612
96657SOL    HW191810   9.661   0.704   6.572
96657SOL    HW291811   9.666   0.556   6.538
96658SOL     OW91812   6.203   7.475   1.371
96658SOL    HW191813   6.202   7.392   1.418
96658SOL    HW291814   6.154   7.458   1.291
96659SOL     OW91815   1.593   1.940   2.340
96659SOL    HW191816   1.576   1.846   2.333
96659SOL    HW291817   1.678   1.945   2.383
96660SOL     OW91818  11.849   9.091   4.178
96660SOL    HW191819  11.826   9.183   4.190
96660SOL    HW291820  11.893   9.087   4.093
96661SOL     OW91821  13.325   4.954   8.186
96661SOL    HW191822  13.349   5.045   8.167
96661SOL    HW291823  13.334   4.946   8.281
96662SOL     OW91824  13.104   4.117   4.078
96662SOL    HW191825  13.187   4.141   4.038
96662SOL    HW291826  13.092   4.024   4.055
96663SOL     OW91827   6.867   9.720   3.354
96663SOL    HW191828   6.939   9.657   3.358
96663SOL    HW291829   6.884   9.781   3.427
96664SOL     OW91830   1.027  12.069   6.086
96664SOL    HW191831   1.075  12.152   6.082
96664SOL    HW291832   1.065  12.022   6.160
96665SOL     OW91833   4.875   0.652   0.138
96665SOL    HW191834   4.881   0.665   0.043
96665SOL    HW291835   4.837   0.565   0.148
96666SOL     OW91836   2.047   1.869  12.194
96666SOL    HW191837   2.114   1.820  12.242
96666SOL    HW291838   2.036   1.950  12.243
96667SOL     OW91839   0.914   2.558   4.184
96667SOL    HW191840   0.933   2.619   4.113
96667SOL    HW291841   0.931   2.472   4.146
96668SOL     OW91842   9.839  14.305   2.875
96668SOL    HW191843   9.828  14.308   2.970
96668SOL    HW291844   9.898  14.377   2.855
96669SOL     OW91845   4.975   9.807   0.180
96669SOL    HW191846   4.912   9.817   0.109
96669SOL    HW291847   4.988   9.713   0.187
96670SOL     OW91848  10.973  12.574   0.183
96670SOL    HW191849  10.976  12.670   0.191
96670SOL    HW291850  10.915  12.546   0.253
96671SOL     OW91851   8.827  12.996   4.967
96671SOL    HW191852   8.796  12.916   4.924
96671SOL    HW291853   8.832  13.060   4.896
96672SOL     OW91854  10.807  14.652  12.636
96672SOL    HW191855  10.822  14.742  12.610
96672SOL    HW291856  10.813  14.653  12.732
96673SOL     OW91857   6.361  11.961  14.248
96673SOL    HW191858   6.303  11.986  14.176
96673SOL    HW291859   6.370  12.041  14.300
96674SOL     OW91860   2.089  10.920  11.333
96674SOL    HW191861   2.152  10.970  11.281
96674SOL    HW291862   2.021  10.896  11.270
96675SOL     OW91863  10.274  11.331   3.073
96675SOL    HW191864  10.259  11.244   3.110
96675SOL    HW291865  10.256  11.391   3.145
96676SOL     OW91866   4.030   7.571  13.004
96676SOL    HW191867   4.001   7.578  13.095
96676SOL    HW291868   3.998   7.651  12.962
96677SOL     OW91869   8.589  11.787   6.282
96677SOL    HW191870   8.664  11.745   6.323
96677SOL    HW291871   8.529  11.715   6.260
96678SOL     OW91872   0.565  12.117   3.635
96678SOL    HW191873   0.635  12.166   3.592
96678SOL    HW291874   0.507  12.091   3.564
96679SOL     OW91875   0.665   9.960   6.331
96679SOL    HW191876   0.691  10.045   6.367
96679SOL    HW291877   0.670   9.972   6.236
96680SOL     OW91878  10.197   7.080  11.014
96680SOL    HW191879  10.232   7.170  11.014
96680SOL    HW291880  10.225   7.044  10.930
96681SOL     OW91881  10.074   8.322   0.487
96681SOL    HW191882   9.994   8.309   0.537
96681SOL    HW291883  10.132   8.371   0.546
96682SOL     OW91884  10.446   4.190   1.610
96682SOL    HW191885  10.401   4.274   1.602
96682SOL    HW291886  10.486   4.176   1.524
96683SOL     OW91887   7.589  13.700  12.243
96683SOL    HW191888   7.645  13.630  12.278
96683SOL    HW291889   7.588  13.686  12.149
96684SOL     OW91890   8.500   3.684  14.720
96684SOL    HW191891   8.580   3.635  14.700
96684SOL    HW291892   8.504   3.700  14.814
96685SOL     OW91893   7.486   1.176   2.942
96685SOL    HW191894   7.500   1.082   2.939
96685SOL    HW291895   7.441   1.192   3.024
96686SOL     OW91896   4.164   5.755   9.109
96686SOL    HW191897   4.096   5.689   9.119
96686SOL    HW291898   4.135   5.827   9.165
96687SOL     OW91899  14.198   9.956   7.577
96687SOL    HW191900  14.273   9.983   7.629
96687SOL    HW291901  14.140   9.911   7.639
96688SOL     OW91902   9.369   7.942   1.864
96688SOL    HW191903   9.395   8.006   1.798
96688SOL    HW291904   9.439   7.946   1.930
96689SOL     OW91905   4.705   6.552  12.146
96689SOL    HW191906   4.696   6.598  12.062
96689SOL    HW291907   4.726   6.462  12.121
96690SOL     OW91908   9.024   2.411   1.747
96690SOL    HW191909   9.073   2.493   1.759
96690SOL    HW291910   9.083   2.356   1.695
96691SOL     OW91911  11.856   5.706  12.731
96691SOL    HW191912  11.912   5.702  12.654
96691SOL    HW291913  11.782   5.760  12.705
96692SOL     OW91914   5.301  11.850  12.754
96692SOL    HW191915   5.208  11.828  12.746
96692SOL    HW291916   5.341  11.771  12.791
96693SOL     OW91917   6.505   7.632   4.212
96693SOL    HW191918   6.416   7.633   4.179
96693SOL    HW291919   6.559   7.652   4.136
96694SOL     OW91920   0.991   8.131  10.372
96694SOL    HW191921   1.044   8.060  10.406
96694SOL    HW291922   0.995   8.199  10.440
96695SOL     OW91923   3.348   4.630   7.242
96695SOL    HW191924   3.283   4.700   7.245
96695SOL    HW291925   3.333   4.579   7.321
96696SOL     OW91926  12.394   9.608  13.552
96696SOL    HW191927  12.433   9.695  13.550
96696SOL    HW291928  12.323   9.612  13.488
96697SOL     OW91929   4.193  12.450  13.683
96697SOL    HW191930   4.174  12.520  13.745
96697SOL    HW291931   4.134  12.379  13.708
96698SOL     OW91932  13.241   6.741   3.722
96698SOL    HW191933  13.259   6.810   3.786
96698SOL    HW291934  13.247   6.660   3.773
96699SOL     OW91935   7.494   2.810   1.801
96699SOL    HW191936   7.503   2.744   1.869
96699SOL    HW291937   7.400   2.811   1.781
96700SOL     OW91938   7.639  12.367  13.981
96700SOL    HW191939   7.655  12.451  13.937
96700SOL    HW291940   7.714  12.312  13.956
96701SOL     OW91941   9.826   2.113  13.585
96701SOL    HW191942   9.921   2.110  13.575
96701SOL    HW291943   9.792   2.075  13.503
96702SOL     OW91944   0.272  12.376  13.736
96702SOL    HW191945   0.272  12.456  13.788
96702SOL    HW291946   0.336  12.391  13.667
96703SOL     OW91947  14.086   2.334  10.986
96703SOL    HW191948  14.133   2.272  10.930
96703SOL    HW291949  14.050   2.280  11.056
96704SOL     OW91950  10.608   0.369   2.294
96704SOL    HW191951  10.700   0.340   2.296
96704SOL    HW291952  10.612   0.455   2.252
96705SOL     OW91953  12.401   4.021   6.262
96705SOL    HW191954  12.435   4.105   6.292
96705SOL    HW291955  12.353   4.041   6.183
96706SOL     OW91956   0.459   3.683   4.805
96706SOL    HW191957   0.390   3.644   4.858
96706SOL    HW291958   0.445   3.778   4.813
96707SOL     OW91959   5.573  13.128   0.306
96707SOL    HW191960   5.500  13.070   0.284
96707SOL    HW291961   5.550  13.211   0.264
96708SOL     OW91962   0.941   0.560   1.912
96708SOL    HW191963   0.856   0.575   1.870
96708SOL    HW291964   0.997   0.529   1.841
96709SOL     OW91965   5.855  13.433  14.090
96709SOL    HW191966   5.868  13.508  14.148
96709SOL    HW291967   5.774  13.392  14.122
96710SOL     OW91968   9.361   0.731  10.081
96710SOL    HW191969   9.410   0.731  10.164
96710SOL    HW291970   9.270   0.744  10.106
96711SOL     OW91971  10.422   7.050   8.324
96711SOL    HW191972  10.473   7.127   8.300
96711SOL    HW291973  10.473   7.009   8.394
96712SOL     OW91974   2.712  14.314  12.601
96712SOL    HW191975   2.640  14.300  12.540
96712SOL    HW291976   2.745  14.227  12.621
96713SOL     OW91977   3.048   9.592   3.896
96713SOL    HW191978   3.016   9.505   3.920
96713SOL    HW291979   3.113   9.576   3.827
96714SOL     OW91980  14.511  12.416  11.414
96714SOL    HW191981  14.475  12.420  11.325
96714SOL    HW291982  14.584  12.477  11.414
96715SOL     OW91983   7.730  14.266   6.830
96715SOL    HW191984   7.791  14.340   6.830
96715SOL    HW291985   7.671  14.285   6.904
96716SOL     OW91986  11.269   9.349   9.584
96716SOL    HW191987  11.298   9.407   9.514
96716SOL    HW291988  11.209   9.287   9.542
96717SOL     OW91989   0.696  13.807   2.955
96717SOL    HW191990   0.782  13.832   2.919
96717SOL    HW291991   0.715  13.737   3.017
96718SOL     OW91992   0.442   2.432  14.623
96718SOL    HW191993   0.462   2.412  14.532
96718SOL    HW291994   0.349   2.456  14.623
96719SOL     OW91995  14.021   5.647   0.007
96719SOL    HW191996  14.106   5.614   0.034
96719SOL    HW291997  14.036   5.740  14.870
96720SOL     OW91998   8.915   1.363  10.345
96720SOL    HW191999   8.897   1.367  10.439
96720SOL    HW292000   8.886   1.276  10.318
96721SOL     OW92001  10.622   3.002   6.198
96721SOL    HW192002  10.531   3.034   6.201
96721SOL    HW292003  10.652   3.010   6.288
96722SOL     OW92004   1.106   5.815   8.027
96722SOL    HW192005   1.041   5.759   8.069
96722SOL    HW292006   1.097   5.900   8.069
96723SOL     OW92007  11.339   0.094   1.042
96723SOL    HW192008  11.339   0.047   0.959
96723SOL    HW292009  11.268   0.055   1.092
96724SOL     OW92010  13.158   9.817   1.366
96724SOL    HW192011  13.069   9.843   1.387
96724SOL    HW292012  13.149   9.735   1.317
96725SOL     OW92013  13.284   1.955   3.284
96725SOL    HW192014  13.306   2.035   3.236
96725SOL    HW292015  13.298   1.977   3.376
96726SOL     OW92016  14.202  12.757  11.935
96726SOL    HW192017  14.138  12.749  11.864
96726SOL    HW292018  14.282  12.787  11.891
96727SOL     OW92019  10.214  12.283   2.006
96727SOL    HW192020  10.186  12.247   2.090
96727SOL    HW292021  10.136  12.275   1.950
96728SOL     OW92022   3.966  11.346  11.007
96728SOL    HW192023   4.057  11.320  10.995
96728SOL    HW292024   3.939  11.303  11.089
96729SOL     OW92025  12.042   7.602   1.696
96729SOL    HW192026  12.016   7.603   1.788
96729SOL    HW292027  12.073   7.690   1.679
96730SOL     OW92028  13.867   4.843   7.486
96730SOL    HW192029  13.935   4.861   7.422
96730SOL    HW292030  13.846   4.751   7.475
96731SOL     OW92031   9.252   9.448   0.156
96731SOL    HW192032   9.176   9.394   0.173
96731SOL    HW292033   9.228   9.535   0.190
96732SOL     OW92034   7.826   5.772   5.809
96732SOL    HW192035   7.842   5.832   5.736
96732SOL    HW292036   7.900   5.711   5.807
96733SOL     OW92037  12.026   5.560   3.503
96733SOL    HW192038  12.066   5.511   3.430
96733SOL    HW292039  11.948   5.510   3.526
96734SOL     OW92040   1.815   3.063   9.128
96734SOL    HW192041   1.886   3.002   9.152
96734SOL    HW292042   1.777   3.088   9.212
96735SOL     OW92043   1.483  13.606  14.588
96735SOL    HW192044   1.395  13.572  14.605
96735SOL    HW292045   1.470  13.699  14.571
96736SOL     OW92046   0.296   6.777   9.476
96736SOL    HW192047   0.240   6.854   9.479
96736SOL    HW292048   0.311   6.754   9.568
96737SOL     OW92049   7.931   6.614  14.132
96737SOL    HW192050   7.985   6.640  14.057
96737SOL    HW292051   7.894   6.696  14.164
96738SOL     OW92052  14.489  11.369   5.464
96738SOL    HW192053  14.484  11.436   5.532
96738SOL    HW292054  14.511  11.417   5.384
96739SOL     OW92055   0.348  11.982  14.670
96739SOL    HW192056   0.310  12.065  14.640
96739SOL    HW292057   0.380  12.001  14.759
96740SOL     OW92058   8.140   0.073   2.554
96740SOL    HW192059   8.161   0.165   2.567
96740SOL    HW292060   8.050   0.073   2.520
96741SOL     OW92061   8.919  11.479  11.703
96741SOL    HW192062   8.901  11.391  11.736
96741SOL    HW292063   8.979  11.516  11.768
96742SOL     OW92064  13.701   4.302  13.740
96742SOL    HW192065  13.704   4.231  13.676
96742SOL    HW292066  13.742   4.376  13.695
96743SOL     OW92067   5.945   4.450   7.656
96743SOL    HW192068   5.852   4.468   7.673
96743SOL    HW292069   5.953   4.355   7.666
96744SOL     OW92070  12.073   6.385  11.184
96744SOL    HW192071  12.007   6.453  11.195
96744SOL    HW292072  12.045   6.315  11.243
96745SOL     OW92073   2.370   3.953   7.025
96745SOL    HW192074   2.373   3.886   6.957
96745SOL    HW292075   2.332   4.030   6.981
96746SOL     OW92076   3.321   2.877   1.867
96746SOL    HW192077   3.266   2.813   1.912
96746SOL    HW292078   3.301   2.960   1.910
96747SOL     OW92079  12.505   3.014   6.144
96747SOL    HW192080  12.498   3.078   6.074
96747SOL    HW292081  12.418   3.012   6.183
96748SOL     OW92082   4.963   7.499   6.433
96748SOL    HW192083   4.935   7.484   6.523
96748SOL    HW292084   4.912   7.575   6.405
96749SOL     OW92085   0.989   9.575  13.310
96749SOL    HW192086   1.047   9.648  13.334
96749SOL    HW292087   1.042   9.520  13.253
96750SOL     OW92088  12.414  10.842   5.121
96750SOL    HW192089  12.382  10.891   5.045
96750SOL    HW292090  12.343  10.849   5.185
96751SOL     OW92091   2.436   1.421   7.114
96751SOL    HW192092   2.421   1.329   7.091
96751SOL    HW292093   2.437   1.422   7.210
96752SOL     OW92094   6.408   0.575   9.114
96752SOL    HW192095   6.376   0.511   9.178
96752SOL    HW292096   6.370   0.548   9.031
96753SOL     OW92097   7.460   9.210   3.085
96753SOL    HW192098   7.526   9.276   3.108
96753SOL    HW292099   7.436   9.170   3.168
96754SOL     OW92100   5.404  13.391  13.773
96754SOL    HW192101   5.347  13.339  13.830
96754SOL    HW292102   5.358  13.475  13.763
96755SOL     OW92103   7.785  14.605  13.468
96755SOL    HW192104   7.789  14.516  13.503
96755SOL    HW292105   7.865  14.615  13.417
96756SOL     OW92106   2.448   3.031  12.083
96756SOL    HW192107   2.442   3.110  12.136
96756SOL    HW292108   2.532   2.992  12.109
96757SOL     OW92109   0.459   1.701   7.775
96757SOL    HW192110   0.468   1.608   7.793
96757SOL    HW292111   0.365   1.715   7.766
96758SOL     OW92112   2.180  12.393   5.071
96758SOL    HW192113   2.146  12.468   5.023
96758SOL    HW292114   2.154  12.317   5.019
96759SOL     OW92115  13.860  11.723  10.239
96759SOL    HW192116  13.859  11.628  10.251
96759SOL    HW292117  13.870  11.735  10.145
96760SOL     OW92118   3.281   6.846   5.733
96760SOL    HW192119   3.198   6.848   5.780
96760SOL    HW292120   3.262   6.795   5.654
96761SOL     OW92121   3.733   7.155   6.716
96761SOL    HW192122   3.767   7.181   6.802
96761SOL    HW292123   3.808   7.114   6.672
96762SOL     OW92124   5.525   7.584   4.879
96762SOL    HW192125   5.455   7.523   4.859
96762SOL    HW292126   5.497   7.629   4.958
96763SOL     OW92127   0.561   4.779   2.415
96763SOL    HW192128   0.567   4.772   2.319
96763SOL    HW292129   0.634   4.728   2.448
96764SOL     OW92130   3.441   8.209   1.316
96764SOL    HW192131   3.486   8.280   1.270
96764SOL    HW292132   3.486   8.203   1.400
96765SOL     OW92133   8.546  11.213   2.482
96765SOL    HW192134   8.575  11.130   2.446
96765SOL    HW292135   8.454  11.220   2.459
96766SOL     OW92136  14.152   7.964   6.552
96766SOL    HW192137  14.083   8.024   6.578
96766SOL    HW292138  14.233   8.014   6.564
96767SOL     OW92139   3.622   0.225  12.168
96767SOL    HW192140   3.637   0.251  12.258
96767SOL    HW292141   3.562   0.150  12.174
96768SOL     OW92142   9.028   0.543   2.497
96768SOL    HW192143   8.980   0.477   2.448
96768SOL    HW292144   9.118   0.511   2.499
96769SOL     OW92145   1.200   7.176   0.262
96769SOL    HW192146   1.189   7.125   0.182
96769SOL    HW292147   1.286   7.152   0.294
96770SOL     OW92148   2.352   1.141   9.410
96770SOL    HW192149   2.366   1.046   9.408
96770SOL    HW292150   2.440   1.178   9.416
96771SOL     OW92151   0.754   1.711   1.572
96771SOL    HW192152   0.712   1.668   1.498
96771SOL    HW292153   0.797   1.640   1.620
96772SOL     OW92154   1.446   1.165  13.713
96772SOL    HW192155   1.516   1.134  13.770
96772SOL    HW292156   1.469   1.131  13.626
96773SOL     OW92157  13.668   1.687   5.536
96773SOL    HW192158  13.714   1.607   5.562
96773SOL    HW292159  13.658   1.737   5.617
96774SOL     OW92160   5.022   5.490   8.717
96774SOL    HW192161   4.968   5.511   8.641
96774SOL    HW292162   5.077   5.418   8.688
96775SOL     OW92163   0.503   0.616  11.420
96775SOL    HW192164   0.442   0.543  11.406
96775SOL    HW292165   0.520   0.616  11.514
96776SOL     OW92166   1.073   9.244  13.672
96776SOL    HW192167   1.155   9.257  13.625
96776SOL    HW292168   1.026   9.178  13.620
96777SOL     OW92169   4.615  10.078  14.573
96777SOL    HW192170   4.571  10.042  14.496
96777SOL    HW292171   4.708  10.077  14.551
96778SOL     OW92172   2.979   3.034   2.654
96778SOL    HW192173   2.967   3.058   2.746
96778SOL    HW292174   2.945   2.945   2.648
96779SOL     OW92175  12.802  11.672   4.630
96779SOL    HW192176  12.812  11.737   4.699
96779SOL    HW292177  12.887  11.627   4.627
96780SOL     OW92178   8.215  10.761  11.262
96780SOL    HW192179   8.133  10.764  11.311
96780SOL    HW292180   8.217  10.842  11.212
96781SOL     OW92181   7.019  10.394  12.499
96781SOL    HW192182   7.065  10.407  12.582
96781SOL    HW292183   7.085  10.410  12.432
96782SOL     OW92184   5.418   4.679   1.650
96782SOL    HW192185   5.472   4.606   1.680
96782SOL    HW292186   5.469   4.719   1.579
96783SOL     OW92187   4.125   0.218   1.280
96783SOL    HW192188   4.173   0.298   1.303
96783SOL    HW292189   4.046   0.250   1.236
96784SOL     OW92190   5.834   8.745   7.199
96784SOL    HW192191   5.746   8.777   7.184
96784SOL    HW292192   5.832   8.710   7.288
96785SOL     OW92193   8.603   5.974   3.583
96785SOL    HW192194   8.663   5.998   3.654
96785SOL    HW292195   8.523   6.021   3.604
96786SOL     OW92196  12.587   1.622   0.169
96786SOL    HW192197  12.622   1.550   0.221
96786SOL    HW292198  12.664   1.663   0.130
96787SOL     OW92199   7.094   7.913  11.358
96787SOL    HW192200   7.127   7.991  11.402
96787SOL    HW292201   7.033   7.874  11.421
96788SOL     OW92202   0.925   0.173   4.171
96788SOL    HW192203   1.002   0.138   4.126
96788SOL    HW292204   0.942   0.156   4.263
96789SOL     OW92205   4.017   3.719   4.836
96789SOL    HW192206   4.016   3.730   4.931
96789SOL    HW292207   4.088   3.776   4.807
96790SOL     OW92208  14.296  13.080   0.862
96790SOL    HW192209  14.271  13.095   0.770
96790SOL    HW292210  14.353  13.004   0.859
96791SOL     OW92211   2.768   7.786  11.124
96791SOL    HW192212   2.773   7.880  11.111
96791SOL    HW292213   2.688   7.773  11.176
96792SOL     OW92214   2.816   1.163  13.954
96792SOL    HW192215   2.906   1.132  13.965
96792SOL    HW292216   2.762   1.101  14.002
96793SOL     OW92217   0.578   7.427   3.573
96793SOL    HW192218   0.550   7.361   3.510
96793SOL    HW292219   0.561   7.511   3.530
96794SOL     OW92220  11.547   4.193   0.875
96794SOL    HW192221  11.474   4.133   0.883
96794SOL    HW292222  11.524   4.250   0.802
96795SOL     OW92223   9.250   4.082  13.715
96795SOL    HW192224   9.210   4.121  13.637
96795SOL    HW292225   9.340   4.114  13.714
96796SOL     OW92226  14.184   2.238   4.508
96796SOL    HW192227  14.189   2.301   4.579
96796SOL    HW292228  14.260   2.258   4.453
96797SOL     OW92229   2.906   8.622   6.719
96797SOL    HW192230   2.959   8.693   6.755
96797SOL    HW292231   2.917   8.550   6.782
96798SOL     OW92232  14.033  10.863   2.637
96798SOL    HW192233  14.090  10.920   2.586
96798SOL    HW292234  14.078  10.778   2.638
96799SOL     OW92235   2.376   6.701   8.601
96799SOL    HW192236   2.408   6.613   8.621
96799SOL    HW292237   2.453   6.757   8.606
96800SOL     OW92238   5.072   4.730   6.198
96800SOL    HW192239   5.059   4.728   6.103
96800SOL    HW292240   5.088   4.823   6.218
96801SOL     OW92241   7.780  13.624   3.939
96801SOL    HW192242   7.706  13.642   3.881
96801SOL    HW292243   7.844  13.692   3.918
96802SOL     OW92244   9.833  10.057   6.594
96802SOL    HW192245   9.760   9.994   6.600
96802SOL    HW292246   9.881  10.030   6.516
96803SOL     OW92247  11.255   6.894   2.914
96803SOL    HW192248  11.175   6.946   2.911
96803SOL    HW292249  11.240   6.830   2.984
96804SOL     OW92250   3.774  13.538   5.524
96804SOL    HW192251   3.865  13.530   5.555
96804SOL    HW292252   3.752  13.630   5.539
96805SOL     OW92253  10.791  13.529   4.436
96805SOL    HW192254  10.773  13.439   4.408
96805SOL    HW292255  10.872  13.553   4.392
96806SOL     OW92256   5.147   6.538  13.565
96806SOL    HW192257   5.103   6.505  13.643
96806SOL    HW292258   5.147   6.464  13.504
96807SOL     OW92259  12.998   8.310   1.196
96807SOL    HW192260  13.022   8.218   1.208
96807SOL    HW292261  13.035   8.332   1.110
96808SOL     OW92262   5.679   2.369  11.969
96808SOL    HW192263   5.745   2.299  11.972
96808SOL    HW292264   5.596   2.325  11.986
96809SOL     OW92265  14.859   7.591  13.546
96809SOL    HW192266  14.815   7.543  13.476
96809SOL    HW292267  14.805   7.669  13.560
96810SOL     OW92268  14.688   3.535   6.086
96810SOL    HW192269  14.651   3.576   6.165
96810SOL    HW292270  14.653   3.586   6.014
96811SOL     OW92271  11.177   5.525   1.430
96811SOL    HW192272  11.093   5.485   1.452
96811SOL    HW292273  11.153   5.609   1.389
96812SOL     OW92274   6.207   4.752  11.513
96812SOL    HW192275   6.119   4.768  11.549
96812SOL    HW292276   6.195   4.756  11.418
96813SOL     OW92277   7.713  14.373   1.511
96813SOL    HW192278   7.742  14.426   1.585
96813SOL    HW292279   7.664  14.301   1.551
96814SOL     OW92280  12.384   3.640  11.935
96814SOL    HW192281  12.409   3.588  11.859
96814SOL    HW292282  12.383   3.730  11.904
96815SOL     OW92283   1.686  12.219  12.487
96815SOL    HW192284   1.596  12.249  12.472
96815SOL    HW292285   1.698  12.148  12.424
96816SOL     OW92286   3.637   3.147   7.217
96816SOL    HW192287   3.714   3.188   7.257
96816SOL    HW292288   3.634   3.183   7.128
96817SOL     OW92289  13.132   1.067   9.643
96817SOL    HW192290  13.188   0.995   9.672
96817SOL    HW292291  13.113   1.048   9.551
96818SOL     OW92292   0.038   3.633   7.913
96818SOL    HW192293   0.083   3.658   7.832
96818SOL    HW292294   0.055   3.540   7.922
96819SOL     OW92295  11.695   9.377   2.483
96819SOL    HW192296  11.763   9.326   2.526
96819SOL    HW292297  11.647   9.314   2.430
96820SOL     OW92298  12.451  12.361   3.527
96820SOL    HW192299  12.414  12.334   3.611
96820SOL    HW292300  12.395  12.318   3.462
96821SOL     OW92301   6.728   2.703   0.014
96821SOL    HW192302   6.692   2.769  14.837
96821SOL    HW292303   6.737   2.747   0.098
96822SOL     OW92304  13.090  13.094   6.945
96822SOL    HW192305  13.048  13.166   6.991
96822SOL    HW292306  13.144  13.136   6.878
96823SOL     OW92307  12.201   5.711   2.256
96823SOL    HW192308  12.227   5.761   2.334
96823SOL    HW292309  12.261   5.740   2.188
96824SOL     OW92310   6.353   9.819   2.914
96824SOL    HW192311   6.333   9.770   2.834
96824SOL    HW292312   6.347   9.911   2.889
96825SOL     OW92313   5.893  12.805   8.979
96825SOL    HW192314   5.838  12.833   8.907
96825SOL    HW292315   5.885  12.874   9.045
96826SOL     OW92316  13.068   2.388   4.764
96826SOL    HW192317  13.160   2.411   4.781
96826SOL    HW292318  13.071   2.339   4.682
96827SOL     OW92319   0.346   3.231  12.013
96827SOL    HW192320   0.376   3.147  12.048
96827SOL    HW292321   0.301   3.209  11.932
96828SOL     OW92322   3.676  14.060   6.525
96828SOL    HW192323   3.752  14.012   6.557
96828SOL    HW292324   3.655  14.019   6.441
96829SOL     OW92325   9.359   2.241   5.586
96829SOL    HW192326   9.305   2.197   5.652
96829SOL    HW292327   9.362   2.332   5.614
96830SOL     OW92328   7.731  11.689  14.054
96830SOL    HW192329   7.714  11.659  13.964
96830SOL    HW292330   7.666  11.645  14.107
96831SOL     OW92331   9.467   4.718  11.809
96831SOL    HW192332   9.409   4.794  11.809
96831SOL    HW292333   9.555   4.756  11.802
96832SOL     OW92334   3.195  12.265  10.387
96832SOL    HW192335   3.287  12.272  10.361
96832SOL    HW292336   3.147  12.301  10.313
96833SOL     OW92337   0.219   1.297  14.855
96833SOL    HW192338   0.203   1.318   0.066
96833SOL    HW292339   0.313   1.279  14.851
96834SOL     OW92340   6.221   8.809  10.703
96834SOL    HW192341   6.131   8.801  10.737
96834SOL    HW292342   6.274   8.825  10.781
96835SOL     OW92343   7.708  10.446   9.288
96835SOL    HW192344   7.728  10.496   9.209
96835SOL    HW292345   7.620  10.412   9.274
96836SOL     OW92346   9.396   7.405   3.819
96836SOL    HW192347   9.307   7.370   3.816
96836SOL    HW292348   9.417   7.411   3.912
96837SOL     OW92349   4.215   6.171  13.924
96837SOL    HW192350   4.247   6.259  13.901
96837SOL    HW292351   4.167   6.183  14.006
96838SOL     OW92352  14.154   8.803   5.082
96838SOL    HW192353  14.110   8.803   5.167
96838SOL    HW292354  14.198   8.718   5.077
96839SOL     OW92355   4.435  12.727   3.522
96839SOL    HW192356   4.381  12.776   3.460
96839SOL    HW292357   4.497  12.791   3.556
96840SOL     OW92358  12.037   4.229   0.944
96840SOL    HW192359  12.000   4.251   0.859
96840SOL    HW292360  12.006   4.298   1.002
96841SOL     OW92361   1.030   4.163  10.990
96841SOL    HW192362   1.089   4.137  11.061
96841SOL    HW292363   1.086   4.211  10.929
96842SOL     OW92364  10.866   3.773   4.985
96842SOL    HW192365  10.923   3.702   4.956
96842SOL    HW292366  10.838   3.815   4.904
96843SOL     OW92367  11.080   0.148   5.781
96843SOL    HW192368  11.026   0.069   5.769
96843SOL    HW292369  11.036   0.196   5.852
96844SOL     OW92370   6.216   0.473   1.555
96844SOL    HW192371   6.260   0.420   1.489
96844SOL    HW292372   6.123   0.465   1.535
96845SOL     OW92373  12.777   4.435  13.334
96845SOL    HW192374  12.734   4.507  13.288
96845SOL    HW292375  12.857   4.418  13.284
96846SOL     OW92376   3.157   2.505   5.127
96846SOL    HW192377   3.073   2.521   5.171
96846SOL    HW292378   3.211   2.462   5.192
96847SOL     OW92379   5.030   5.282  14.561
96847SOL    HW192380   4.990   5.222  14.499
96847SOL    HW292381   4.956   5.315  14.613
96848SOL     OW92382   6.210   3.673   0.059
96848SOL    HW192383   6.213   3.747  14.881
96848SOL    HW292384   6.117   3.654   0.070
96849SOL     OW92385  12.757   9.618   2.368
96849SOL    HW192386  12.744   9.651   2.279
96849SOL    HW292387  12.816   9.543   2.357
96850SOL     OW92388   5.316   3.492  11.457
96850SOL    HW192389   5.271   3.445  11.528
96850SOL    HW292390   5.291   3.584  11.471
96851SOL     OW92391   2.814   5.279   7.777
96851SOL    HW192392   2.893   5.225   7.774
96851SOL    HW292393   2.783   5.273   7.867
96852SOL     OW92394   5.102  10.888   2.932
96852SOL    HW192395   5.033  10.944   2.897
96852SOL    HW292396   5.055  10.818   2.978
96853SOL     OW92397   2.100  12.754   2.318
96853SOL    HW192398   2.109  12.849   2.325
96853SOL    HW292399   2.150  12.731   2.239
96854SOL     OW92400   6.325   1.564   9.433
96854SOL    HW192401   6.327   1.591   9.342
96854SOL    HW292402   6.375   1.632   9.479
96855SOL     OW92403   2.195   7.695   5.885
96855SOL    HW192404   2.099   7.692   5.879
96855SOL    HW292405   2.223   7.609   5.854
96856SOL     OW92406   2.866   7.773   3.687
96856SOL    HW192407   2.915   7.692   3.695
96856SOL    HW292408   2.784   7.748   3.645
96857SOL     OW92409   3.317  10.207   5.477
96857SOL    HW192410   3.349  10.136   5.532
96857SOL    HW292411   3.277  10.269   5.539
96858SOL     OW92412   2.191  14.244   4.416
96858SOL    HW192413   2.269  14.249   4.472
96858SOL    HW292414   2.175  14.334   4.389
96859SOL     OW92415  10.322   1.057  11.417
96859SOL    HW192416  10.235   1.081  11.449
96859SOL    HW292417  10.363   1.140  11.393
96860SOL     OW92418   8.283   9.962   6.901
96860SOL    HW192419   8.296   9.882   6.850
96860SOL    HW292420   8.327  10.030   6.850
96861SOL     OW92421  11.572  10.578   4.319
96861SOL    HW192422  11.555  10.509   4.383
96861SOL    HW292423  11.602  10.653   4.371
96862SOL     OW92424  10.308  14.510   6.001
96862SOL    HW192425  10.229  14.460   5.979
96862SOL    HW292426  10.349  14.461   6.072
96863SOL     OW92427  14.773   4.789   9.614
96863SOL    HW192428  14.693   4.813   9.661
96863SOL    HW292429  14.811   4.719   9.667
96864SOL     OW92430   8.317   5.867  14.299
96864SOL    HW192431   8.410   5.861  14.319
96864SOL    HW292432   8.303   5.803  14.229
96865SOL     OW92433   2.396   2.445   2.033
96865SOL    HW192434   2.355   2.448   2.119
96865SOL    HW292435   2.368   2.526   1.990
96866SOL     OW92436   4.035   3.570   8.912
96866SOL    HW192437   4.115   3.520   8.928
96866SOL    HW292438   4.039   3.592   8.819
96867SOL     OW92439  13.156  12.542  12.468
96867SOL    HW192440  13.112  12.618  12.429
96867SOL    HW292441  13.248  12.566  12.472
96868SOL     OW92442   9.021   8.470   1.849
96868SOL    HW192443   8.996   8.402   1.913
96868SOL    HW292444   9.062   8.538   1.901
96869SOL     OW92445  11.847   4.711   8.750
96869SOL    HW192446  11.861   4.761   8.831
96869SOL    HW292447  11.832   4.778   8.683
96870SOL     OW92448   6.392   6.718  11.268
96870SOL    HW192449   6.354   6.803  11.288
96870SOL    HW292450   6.413   6.723  11.175
96871SOL     OW92451   6.853   6.013   6.353
96871SOL    HW192452   6.806   6.096   6.354
96871SOL    HW292453   6.788   5.949   6.325
96872SOL     OW92454   0.910  14.636  11.882
96872SOL    HW192455   0.868  14.715  11.850
96872SOL    HW292456   0.908  14.575  11.807
96873SOL     OW92457   2.273   2.059   7.117
96873SOL    HW192458   2.329   2.075   7.041
96873SOL    HW292459   2.212   1.991   7.088
96874SOL     OW92460   7.130  12.953   1.778
96874SOL    HW192461   7.214  12.995   1.800
96874SOL    HW292462   7.138  12.931   1.685
96875SOL     OW92463   7.821  14.465  12.081
96875SOL    HW192464   7.768  14.539  12.112
96875SOL    HW292465   7.911  14.491  12.099
96876SOL     OW92466   8.415  12.372  10.030
96876SOL    HW192467   8.435  12.465  10.042
96876SOL    HW292468   8.456  12.329  10.105
96877SOL     OW92469   6.777  10.893  13.606
96877SOL    HW192470   6.689  10.889  13.645
96877SOL    HW292471   6.764  10.937  13.522
96878SOL     OW92472   8.678   3.427   7.274
96878SOL    HW192473   8.612   3.486   7.238
96878SOL    HW292474   8.637   3.388   7.351
96879SOL     OW92475  14.535  13.238  10.954
96879SOL    HW192476  14.547  13.160  11.007
96879SOL    HW292477  14.534  13.206  10.864
96880SOL     OW92478  14.292   4.335   4.014
96880SOL    HW192479  14.213   4.330   4.067
96880SOL    HW292480  14.275   4.277   3.940
96881SOL     OW92481   2.246  11.116   0.153
96881SOL    HW192482   2.156  11.092   0.129
96881SOL    HW292483   2.243  11.210   0.167
96882SOL     OW92484   4.302   8.925   8.144
96882SOL    HW192485   4.369   8.971   8.195
96882SOL    HW292486   4.286   8.845   8.193
96883SOL     OW92487   2.516  13.389  12.930
96883SOL    HW192488   2.519  13.359  13.021
96883SOL    HW292489   2.508  13.484  12.938
96884SOL     OW92490   8.002  14.842   3.778
96884SOL    HW192491   7.913  14.823   3.808
96884SOL    HW292492   8.057  14.828   3.855
96885SOL     OW92493   4.874   7.916  12.514
96885SOL    HW192494   4.820   7.927  12.592
96885SOL    HW292495   4.956   7.961  12.536
96886SOL     OW92496   0.485   5.296  12.720
96886SOL    HW192497   0.420   5.305  12.650
96886SOL    HW292498   0.555   5.357  12.696
96887SOL     OW92499   3.675   1.923   3.203
96887SOL    HW192500   3.599   1.957   3.250
96887SOL    HW292501   3.644   1.911   3.113
96888SOL     OW92502  13.290  12.753   4.162
96888SOL    HW192503  13.351  12.797   4.222
96888SOL    HW292504  13.213  12.810   4.159
96889SOL     OW92505   5.784   7.370   1.549
96889SOL    HW192506   5.780   7.342   1.458
96889SOL    HW292507   5.872   7.407   1.559
96890SOL     OW92508   2.822  12.407  11.359
96890SOL    HW192509   2.867  12.330  11.325
96890SOL    HW292510   2.836  12.405  11.453
96891SOL     OW92511   8.313   4.924   0.625
96891SOL    HW192512   8.288   4.991   0.561
96891SOL    HW292513   8.358   4.857   0.574
96892SOL     OW92514   2.407   6.524   7.967
96892SOL    HW192515   2.401   6.528   8.062
96892SOL    HW292516   2.495   6.555   7.947
96893SOL     OW92517   1.932   0.445   4.533
96893SOL    HW192518   1.844   0.462   4.497
96893SOL    HW292519   1.944   0.351   4.523
96894SOL     OW92520   3.289   5.948  12.804
96894SOL    HW192521   3.348   5.884  12.764
96894SOL    HW292522   3.218   5.958  12.741
96895SOL     OW92523  10.118  14.705   6.368
96895SOL    HW192524  10.074  14.731   6.287
96895SOL    HW292525  10.070  14.751   6.437
96896SOL     OW92526   5.060  13.051  14.768
96896SOL    HW192527   5.057  12.979  14.705
96896SOL    HW292528   5.041  13.009  14.852
96897SOL     OW92529   4.617   9.992   3.195
96897SOL    HW192530   4.529   9.953   3.188
96897SOL    HW292531   4.672   9.936   3.141
96898SOL     OW92532   1.036   0.003   1.144
96898SOL    HW192533   0.978   0.047   1.082
96898SOL    HW292534   1.060  14.803   1.100
96899SOL     OW92535   9.647   2.240  11.288
96899SOL    HW192536   9.693   2.306  11.235
96899SOL    HW292537   9.610   2.179  11.224
96900SOL     OW92538   9.567   5.190  10.315
96900SOL    HW192539   9.533   5.101  10.306
96900SOL    HW292540   9.490   5.244  10.331
96901SOL     OW92541   6.932   8.041  14.439
96901SOL    HW192542   6.916   7.965  14.496
96901SOL    HW292543   6.959   8.003  14.356
96902SOL     OW92544   7.144   2.505  11.364
96902SOL    HW192545   7.213   2.532  11.305
96902SOL    HW292546   7.160   2.412  11.379
96903SOL     OW92547  12.463  13.684  14.752
96903SOL    HW192548  12.368  13.688  14.744
96903SOL    HW292549  12.480  13.697  14.845
96904SOL     OW92550   3.770  11.590  11.391
96904SOL    HW192551   3.762  11.628  11.304
96904SOL    HW292552   3.679  11.582  11.422
96905SOL     OW92553   2.632   3.659   2.461
96905SOL    HW192554   2.622   3.607   2.541
96905SOL    HW292555   2.617   3.750   2.489
96906SOL     OW92556   0.679   9.683   2.518
96906SOL    HW192557   0.673   9.749   2.449
96906SOL    HW292558   0.712   9.731   2.594
96907SOL     OW92559   1.610   2.541   1.561
96907SOL    HW192560   1.627   2.450   1.583
96907SOL    HW292561   1.527   2.540   1.514
96908SOL     OW92562   6.012   6.710   6.544
96908SOL    HW192563   5.935   6.709   6.487
96908SOL    HW292564   6.082   6.675   6.489
96909SOL     OW92565  10.238   0.630   5.388
96909SOL    HW192566  10.245   0.598   5.298
96909SOL    HW292567  10.282   0.715   5.386
96910SOL     OW92568   8.870   7.264  10.448
96910SOL    HW192569   8.776   7.271  10.462
96910SOL    HW292570   8.906   7.345  10.483
96911SOL     OW92571   8.458   3.473  11.570
96911SOL    HW192572   8.531   3.535  11.563
96911SOL    HW292573   8.427   3.463  11.480
96912SOL     OW92574   8.343  12.818   8.530
96912SOL    HW192575   8.407  12.811   8.459
96912SOL    HW292576   8.375  12.891   8.583
96913SOL     OW92577   1.370   6.884   8.393
96913SOL    HW192578   1.300   6.819   8.388
96913SOL    HW292579   1.405   6.874   8.481
96914SOL     OW92580   3.730  13.440   0.168
96914SOL    HW192581   3.730  13.347   0.191
96914SOL    HW292582   3.638  13.463   0.159
96915SOL     OW92583  12.810  12.651   0.684
96915SOL    HW192584  12.740  12.693   0.635
96915SOL    HW292585  12.860  12.602   0.619
96916SOL     OW92586  13.383   1.921   7.581
96916SOL    HW192587  13.328   1.963   7.648
96916SOL    HW292588  13.420   1.994   7.532
96917SOL     OW92589   1.854   7.709   1.669
96917SOL    HW192590   1.925   7.650   1.644
96917SOL    HW292591   1.823   7.746   1.587
96918SOL     OW92592   0.192   6.465  11.953
96918SOL    HW192593   0.126   6.505  12.010
96918SOL    HW292594   0.261   6.531  11.947
96919SOL     OW92595  10.240   4.866  11.793
96919SOL    HW192596  10.260   4.915  11.873
96919SOL    HW292597  10.324   4.859  11.748
96920SOL     OW92598  10.695   5.852  13.904
96920SOL    HW192599  10.633   5.794  13.861
96920SOL    HW292600  10.742   5.894  13.832
96921SOL     OW92601  12.165  12.805   4.839
96921SOL    HW192602  12.100  12.843   4.898
96921SOL    HW292603  12.201  12.880   4.791
96922SOL     OW92604  12.975   0.374  12.555
96922SOL    HW192605  12.976   0.336  12.467
96922SOL    HW292606  12.964   0.299  12.613
96923SOL     OW92607  12.684   6.996  12.510
96923SOL    HW192608  12.592   7.022  12.498
96923SOL    HW292609  12.733   7.076  12.493
96924SOL     OW92610  10.100  13.062   9.180
96924SOL    HW192611  10.152  13.114   9.241
96924SOL    HW292612  10.025  13.118   9.159
96925SOL     OW92613   1.117   2.195   9.810
96925SOL    HW192614   1.070   2.123   9.854
96925SOL    HW292615   1.209   2.177   9.827
96926SOL     OW92616   9.139  13.920   4.819
96926SOL    HW192617   9.056  13.885   4.786
96926SOL    HW292618   9.194  13.928   4.741
96927SOL     OW92619   9.281   9.786   9.720
96927SOL    HW192620   9.288   9.858   9.658
96927SOL    HW292621   9.318   9.820   9.801
96928SOL     OW92622   9.518   4.376   7.018
96928SOL    HW192623   9.458   4.450   7.020
96928SOL    HW292624   9.561   4.382   6.933
96929SOL     OW92625   6.241  13.755   8.222
96929SOL    HW192626   6.313  13.811   8.252
96929SOL    HW292627   6.190  13.812   8.164
96930SOL     OW92628   3.295   8.990  11.511
96930SOL    HW192629   3.306   8.985  11.416
96930SOL    HW292630   3.287   8.899  11.539
96931SOL     OW92631   7.569   9.029  11.661
96931SOL    HW192632   7.559   8.934  11.650
96931SOL    HW292633   7.658   9.040  11.692
96932SOL     OW92634   4.249  14.638   6.679
96932SOL    HW192635   4.232  14.544   6.680
96932SOL    HW292636   4.190  14.674   6.745
96933SOL     OW92637  10.419  14.344   1.472
96933SOL    HW192638  10.479  14.338   1.397
96933SOL    HW292639  10.392  14.253   1.488
96934SOL     OW92640   5.214  10.140   3.055
96934SOL    HW192641   5.236  10.177   2.969
96934SOL    HW292642   5.175  10.055   3.036
96935SOL     OW92643   2.247  13.781   0.913
96935SOL    HW192644   2.330  13.747   0.949
96935SOL    HW292645   2.207  13.705   0.871
96936SOL     OW92646   3.076   1.061  13.936
96936SOL    HW192647   3.072   1.011  13.854
96936SOL    HW292648   3.126   1.139  13.914
96937SOL     OW92649   5.961  11.081  12.565
96937SOL    HW192650   5.959  11.135  12.486
96937SOL    HW292651   5.869  11.074  12.592
96938SOL     OW92652   0.534   5.416   9.006
96938SOL    HW192653   0.572   5.332   9.030
96938SOL    HW292654   0.513   5.408   8.913
96939SOL     OW92655   1.979   0.184   5.114
96939SOL    HW192656   2.002   0.194   5.022
96939SOL    HW292657   1.886   0.207   5.118
96940SOL     OW92658   3.300   6.016   9.707
96940SOL    HW192659   3.236   5.946   9.697
96940SOL    HW292660   3.381   5.971   9.732
96941SOL     OW92661  12.210   7.176   6.877
96941SOL    HW192662  12.305   7.166   6.868
96941SOL    HW292663  12.174   7.122   6.806
96942SOL     OW92664  10.211   2.086   4.550
96942SOL    HW192665  10.165   2.100   4.468
96942SOL    HW292666  10.185   2.160   4.605
96943SOL     OW92667  13.868   0.037   3.288
96943SOL    HW192668  13.854   0.055   3.195
96943SOL    HW292669  13.869  14.823   3.294
96944SOL     OW92670   3.108   3.622   9.208
96944SOL    HW192671   3.185   3.569   9.231
96944SOL    HW292672   3.113   3.632   9.113
96945SOL     OW92673   2.705   7.826  13.045
96945SOL    HW192674   2.621   7.841  13.087
96945SOL    HW292675   2.700   7.736  13.013
96946SOL     OW92676   0.063   3.554   9.996
96946SOL    HW192677   0.148   3.589   9.968
96946SOL    HW292678   0.048   3.478   9.939
96947SOL     OW92679   0.617   6.930  12.789
96947SOL    HW192680   0.595   6.860  12.851
96947SOL    HW292681   0.581   6.900  12.706
96948SOL     OW92682   7.875  13.711   2.243
96948SOL    HW192683   7.948  13.674   2.195
96948SOL    HW292684   7.847  13.641   2.302
96949SOL     OW92685   1.658   1.062   8.795
96949SOL    HW192686   1.752   1.078   8.794
96949SOL    HW292687   1.635   1.056   8.888
96950SOL     OW92688   7.871   9.768   1.071
96950SOL    HW192689   7.796   9.827   1.067
96950SOL    HW292690   7.917   9.792   1.151
96951SOL     OW92691  11.721   4.430   0.190
96951SOL    HW192692  11.802   4.380   0.203
96951SOL    HW292693  11.660   4.394   0.254
96952SOL     OW92694   6.709   0.610  14.679
96952SOL    HW192695   6.629   0.560  14.695
96952SOL    HW292696   6.714   0.616  14.584
96953SOL     OW92697  14.433  10.570   4.509
96953SOL    HW192698  14.362  10.627   4.540
96953SOL    HW292699  14.449  10.597   4.419
96954SOL     OW92700  12.629   6.607   5.710
96954SOL    HW192701  12.546   6.562   5.692
96954SOL    HW292702  12.668   6.557   5.782
96955SOL     OW92703   3.735   4.860  14.678
96955SOL    HW192704   3.696   4.870  14.764
96955SOL    HW292705   3.799   4.789  14.688
96956SOL     OW92706   8.923   4.907  10.441
96956SOL    HW192707   8.869   4.962  10.384
96956SOL    HW292708   9.002   4.890  10.390
96957SOL     OW92709   2.459   2.173   0.521
96957SOL    HW192710   2.372   2.134   0.522
96957SOL    HW292711   2.449   2.258   0.564
96958SOL     OW92712   2.801   8.684   3.246
96958SOL    HW192713   2.807   8.705   3.339
96958SOL    HW292714   2.809   8.589   3.243
96959SOL     OW92715   4.903   4.812   9.201
96959SOL    HW192716   4.916   4.900   9.235
96959SOL    HW292717   4.846   4.824   9.124
96960SOL     OW92718   6.762   3.889   2.420
96960SOL    HW192719   6.804   3.968   2.385
96960SOL    HW292720   6.696   3.922   2.481
96961SOL     OW92721   5.262  11.061  10.969
96961SOL    HW192722   5.280  11.028  11.057
96961SOL    HW292723   5.236  11.152  10.983
96962SOL     OW92724  13.053  14.378   7.639
96962SOL    HW192725  13.070  14.386   7.733
96962SOL    HW292726  13.082  14.289   7.617
96963SOL     OW92727   4.647   3.270   4.418
96963SOL    HW192728   4.564   3.224   4.428
96963SOL    HW292729   4.663   3.311   4.503
96964SOL     OW92730   1.720   5.443   0.326
96964SOL    HW192731   1.798   5.390   0.313
96964SOL    HW292732   1.750   5.520   0.374
96965SOL     OW92733   2.520   8.326  13.510
96965SOL    HW192734   2.477   8.379  13.577
96965SOL    HW292735   2.613   8.338  13.525
96966SOL     OW92736  11.658   3.964  11.915
96966SOL    HW192737  11.741   3.981  11.869
96966SOL    HW292738  11.666   3.873  11.945
96967SOL     OW92739   2.104   5.307   9.749
96967SOL    HW192740   2.087   5.229   9.802
96967SOL    HW292741   2.102   5.275   9.659
96968SOL     OW92742   7.549   5.335  10.546
96968SOL    HW192743   7.569   5.295  10.631
96968SOL    HW292744   7.608   5.410  10.540
96969SOL     OW92745   8.557   2.469   6.476
96969SOL    HW192746   8.515   2.554   6.482
96969SOL    HW292747   8.650   2.486   6.491
96970SOL     OW92748   3.514  12.745  13.873
96970SOL    HW192749   3.534  12.817  13.934
96970SOL    HW292750   3.419  12.737  13.877
96971SOL     OW92751   6.454  11.662   3.536
96971SOL    HW192752   6.395  11.684   3.464
96971SOL    HW292753   6.398  11.661   3.613
96972SOL     OW92754   8.445   3.387   8.193
96972SOL    HW192755   8.412   3.449   8.128
96972SOL    HW292756   8.519   3.344   8.150
96973SOL     OW92757   4.838   2.349   9.410
96973SOL    HW192758   4.839   2.350   9.315
96973SOL    HW292759   4.767   2.290   9.434
96974SOL     OW92760   3.609   2.849  11.779
96974SOL    HW192761   3.639   2.831  11.691
96974SOL    HW292762   3.518   2.820  11.781
96975SOL     OW92763  11.133   3.806   3.629
96975SOL    HW192764  11.143   3.830   3.721
96975SOL    HW292765  11.209   3.750   3.611
96976SOL     OW92766   4.903  14.044   4.878
96976SOL    HW192767   4.950  14.117   4.838
96976SOL    HW292768   4.859  14.082   4.954
96977SOL     OW92769  10.575   3.829   2.452
96977SOL    HW192770  10.660   3.828   2.495
96977SOL    HW292771  10.513   3.804   2.521
96978SOL     OW92772   7.316   4.917   7.760
96978SOL    HW192773   7.398   4.912   7.711
96978SOL    HW292774   7.277   4.830   7.750
96979SOL     OW92775   7.162   2.004   8.868
96979SOL    HW192776   7.242   2.036   8.825
96979SOL    HW292777   7.190   1.923   8.912
96980SOL     OW92778   4.678  12.290  14.838
96980SOL    HW192779   4.632  12.304   0.039
96980SOL    HW292780   4.769  12.314  14.856
96981SOL     OW92781   0.394   5.593  13.474
96981SOL    HW192782   0.308   5.626  13.498
96981SOL    HW292783   0.398   5.605  13.379
96982SOL     OW92784   6.581   7.139   9.905
96982SOL    HW192785   6.511   7.107   9.962
96982SOL    HW292786   6.606   7.062   9.852
96983SOL     OW92787   6.657   0.530   6.869
96983SOL    HW192788   6.590   0.462   6.864
96983SOL    HW292789   6.662   0.552   6.962
96984SOL     OW92790  14.106  11.886   8.183
96984SOL    HW192791  14.145  11.803   8.211
96984SOL    HW292792  14.149  11.952   8.238
96985SOL     OW92793   1.560   9.277   2.625
96985SOL    HW192794   1.651   9.266   2.600
96985SOL    HW292795   1.558   9.359   2.675
96986SOL     OW92796  10.171   5.725  12.689
96986SOL    HW192797  10.132   5.748  12.604
96986SOL    HW292798  10.253   5.775  12.692
96987SOL     OW92799   6.798   4.582   7.537
96987SOL    HW192800   6.775   4.491   7.516
96987SOL    HW292801   6.718   4.631   7.522
96988SOL     OW92802   4.131   9.082   3.715
96988SOL    HW192803   4.168   9.009   3.666
96988SOL    HW292804   4.037   9.065   3.717
96989SOL     OW92805   8.514   0.439   4.639
96989SOL    HW192806   8.506   0.386   4.560
96989SOL    HW292807   8.450   0.509   4.627
96990SOL     OW92808   3.226  12.122   5.790
96990SOL    HW192809   3.206  12.169   5.870
96990SOL    HW292810   3.247  12.033   5.818
96991SOL     OW92811   2.379   4.394   5.862
96991SOL    HW192812   2.406   4.312   5.820
96991SOL    HW292813   2.460   4.445   5.868
96992SOL     OW92814  10.170  10.738  11.767
96992SOL    HW192815  10.248  10.715  11.717
96992SOL    HW292816  10.112  10.780  11.704
96993SOL     OW92817  12.807  13.152  10.940
96993SOL    HW192818  12.786  13.226  10.883
96993SOL    HW292819  12.881  13.183  10.992
96994SOL     OW92820  13.462   2.329   5.087
96994SOL    HW192821  13.394   2.308   5.151
96994SOL    HW292822  13.432   2.289   5.006
96995SOL     OW92823   2.616  10.043   7.307
96995SOL    HW192824   2.562  10.096   7.365
96995SOL    HW292825   2.649   9.973   7.363
96996SOL     OW92826   5.437   0.069   2.247
96996SOL    HW192827   5.463   0.059   2.156
96996SOL    HW292828   5.350   0.109   2.244
96997SOL     OW92829   8.550  14.189   6.364
96997SOL    HW192830   8.590  14.240   6.435
96997SOL    HW292831   8.461  14.222   6.358
96998SOL     OW92832   9.434   4.667  10.666
96998SOL    HW192833   9.497   4.716  10.613
96998SOL    HW292834   9.478   4.585  10.687
96999SOL     OW92835  12.774   3.101   2.688
96999SOL    HW192836  12.689   3.140   2.712
96999SOL    HW292837  12.752   3.010   2.666
97000SOL     OW92838   9.931   9.236  11.516
97000SOL    HW192839   9.933   9.323  11.476
97000SOL    HW292840   9.997   9.239  11.585
97001SOL     OW92841  12.196   5.762  11.657
97001SOL    HW192842  12.118   5.729  11.702
97001SOL    HW292843  12.264   5.763  11.725
97002SOL     OW92844   8.422   1.886  13.035
97002SOL    HW192845   8.362   1.843  12.974
97002SOL    HW292846   8.475   1.943  12.979
97003SOL     OW92847   1.023   0.555   4.018
97003SOL    HW192848   0.930   0.562   3.997
97003SOL    HW292849   1.064   0.522   3.938
97004SOL     OW92850  10.473   6.536   8.523
97004SOL    HW192851  10.507   6.625   8.514
97004SOL    HW292852  10.379   6.544   8.506
97005SOL     OW92853   7.205   5.376   7.264
97005SOL    HW192854   7.153   5.331   7.198
97005SOL    HW292855   7.141   5.421   7.319
97006SOL     OW92856   5.289   1.307   3.777
97006SOL    HW192857   5.352   1.364   3.821
97006SOL    HW292858   5.299   1.222   3.820
97007SOL     OW92859   5.907  13.984   5.539
97007SOL    HW192860   5.812  13.989   5.532
97007SOL    HW292861   5.925  13.983   5.633
97008SOL     OW92862   7.356   9.844   8.656
97008SOL    HW192863   7.329   9.897   8.731
97008SOL    HW292864   7.296   9.770   8.656
97009SOL     OW92865   2.522  10.912   7.191
97009SOL    HW192866   2.456  10.872   7.135
97009SOL    HW292867   2.600  10.917   7.136
97010SOL     OW92868   5.753   2.680  14.804
97010SOL    HW192869   5.815   2.618  14.767
97010SOL    HW292870   5.803   2.726  14.871
97011SOL     OW92871  12.722  13.549  11.487
97011SOL    HW192872  12.712  13.457  11.509
97011SOL    HW292873  12.653  13.593  11.536
97012SOL     OW92874   2.700   6.195   3.139
97012SOL    HW192875   2.606   6.192   3.158
97012SOL    HW292876   2.713   6.277   3.092
97013SOL     OW92877  14.489  11.054  13.351
97013SOL    HW192878  14.538  11.108  13.412
97013SOL    HW292879  14.525  10.966  13.362
97014SOL     OW92880   2.425   3.296   6.018
97014SOL    HW192881   2.409   3.367   5.957
97014SOL    HW292882   2.370   3.317   6.094
97015SOL     OW92883   0.241   6.899  13.702
97015SOL    HW192884   0.216   6.920  13.612
97015SOL    HW292885   0.167   6.928  13.755
97016SOL     OW92886   4.234   6.682  11.027
97016SOL    HW192887   4.285   6.615  10.980
97016SOL    HW292888   4.192   6.732  10.957
97017SOL     OW92889   2.116  10.222   3.297
97017SOL    HW192890   2.103  10.128   3.287
97017SOL    HW292891   2.043  10.262   3.251
97018SOL     OW92892  11.389  12.177   0.024
97018SOL    HW192893  11.389  12.246   0.090
97018SOL    HW292894  11.390  12.096   0.075
97019SOL     OW92895   1.347   2.843  13.288
97019SOL    HW192896   1.441   2.855  13.272
97019SOL    HW292897   1.332   2.749  13.277
97020SOL     OW92898   9.813   1.012   5.905
97020SOL    HW192899   9.862   0.943   5.861
97020SOL    HW292900   9.744   0.966   5.952
97021SOL     OW92901   4.379   0.323   2.055
97021SOL    HW192902   4.388   0.335   1.960
97021SOL    HW292903   4.309   0.383   2.080
97022SOL     OW92904  12.088   0.936  11.233
97022SOL    HW192905  12.078   0.965  11.143
97022SOL    HW292906  12.155   0.867  11.229
97023SOL     OW92907  12.115   3.890   1.172
97023SOL    HW192908  12.188   3.873   1.112
97023SOL    HW292909  12.075   3.805   1.185
97024SOL     OW92910   3.439   9.636  12.303
97024SOL    HW192911   3.488   9.709  12.265
97024SOL    HW292912   3.504   9.567  12.313
97025SOL     OW92913  14.490  11.564   5.655
97025SOL    HW192914  14.557  11.633   5.646
97025SOL    HW292915  14.442  11.589   5.734
97026SOL     OW92916  11.206   0.998   1.753
97026SOL    HW192917  11.179   1.033   1.668
97026SOL    HW292918  11.176   1.062   1.817
97027SOL     OW92919   8.019   7.003  11.088
97027SOL    HW192920   7.998   7.077  11.031
97027SOL    HW292921   8.115   6.995  11.083
97028SOL     OW92922  10.312   7.689   6.148
97028SOL    HW192923  10.320   7.596   6.169
97028SOL    HW292924  10.235   7.695   6.091
97029SOL     OW92925  10.064  12.372  11.553
97029SOL    HW192926  10.091  12.395  11.464
97029SOL    HW292927  10.015  12.448  11.583
97030SOL     OW92928   2.375   7.137   8.599
97030SOL    HW192929   2.350   7.106   8.686
97030SOL    HW292930   2.348   7.229   8.598
97031SOL     OW92931   8.415  12.419   5.049
97031SOL    HW192932   8.510  12.412   5.037
97031SOL    HW292933   8.403  12.494   5.107
97032SOL     OW92934   0.737   1.756  10.685
97032SOL    HW192935   0.655   1.724  10.648
97032SOL    HW292936   0.804   1.699  10.648
97033SOL     OW92937   5.167   0.026   7.706
97033SOL    HW192938   5.140   0.023   7.614
97033SOL    HW292939   5.097  14.862   7.752
97034SOL     OW92940   0.041   8.694   7.757
97034SOL    HW192941  14.879   8.609   7.766
97034SOL    HW292942   0.050   8.706   7.662
97035SOL     OW92943   5.093  13.887   7.822
97035SOL    HW192944   5.053  13.973   7.835
97035SOL    HW292945   5.180  13.895   7.863
97036SOL     OW92946   1.901   3.832  12.249
97036SOL    HW192947   1.877   3.881  12.170
97036SOL    HW292948   1.993   3.809  12.237
97037SOL     OW92949  12.576  10.113  13.542
97037SOL    HW192950  12.578  10.183  13.478
97037SOL    HW292951  12.605  10.154  13.624
97038SOL     OW92952   8.504   2.862   7.948
97038SOL    HW192953   8.473   2.772   7.963
97038SOL    HW292954   8.439   2.917   7.993
97039SOL     OW92955  14.788   4.251   8.153
97039SOL    HW192956  14.872   4.259   8.108
97039SOL    HW292957  14.807   4.201   8.232
97040SOL     OW92958   3.430   3.799   4.747
97040SOL    HW192959   3.384   3.780   4.829
97040SOL    HW292960   3.516   3.759   4.757
97041SOL     OW92961   0.190   7.360   1.852
97041SOL    HW192962   0.121   7.427   1.858
97041SOL    HW292963   0.246   7.391   1.781
97042SOL     OW92964  12.676   2.560   8.756
97042SOL    HW192965  12.722   2.643   8.761
97042SOL    HW292966  12.583   2.583   8.758
97043SOL     OW92967   4.426  14.496  13.206
97043SOL    HW192968   4.465  14.561  13.264
97043SOL    HW292969   4.334  14.492  13.233
97044SOL     OW92970  10.478   7.134   1.849
97044SOL    HW192971  10.448   7.130   1.759
97044SOL    HW292972  10.568   7.102   1.846
97045SOL     OW92973   3.299   8.024   2.878
97045SOL    HW192974   3.290   8.110   2.837
97045SOL    HW292975   3.353   8.040   2.955
97046SOL     OW92976  14.114  12.711   6.430
97046SOL    HW192977  14.144  12.790   6.476
97046SOL    HW292978  14.026  12.733   6.399
97047SOL     OW92979   5.827   2.146   6.693
97047SOL    HW192980   5.888   2.216   6.670
97047SOL    HW292981   5.800   2.165   6.782
97048SOL     OW92982  12.957   0.629   1.027
97048SOL    HW192983  13.003   0.702   1.068
97048SOL    HW292984  12.961   0.647   0.933
97049SOL     OW92985  11.553  12.577   7.728
97049SOL    HW192986  11.525  12.605   7.640
97049SOL    HW292987  11.608  12.648   7.759
97050SOL     OW92988  12.019  14.705   3.204
97050SOL    HW192989  12.069  14.624   3.221
97050SOL    HW292990  11.938  14.675   3.163
97051SOL     OW92991  14.393   4.181   7.658
97051SOL    HW192992  14.410   4.096   7.698
97051SOL    HW292993  14.459   4.239   7.695
97052SOL     OW92994   0.421   2.447  10.280
97052SOL    HW192995   0.392   2.406  10.198
97052SOL    HW292996   0.508   2.483  10.259
97053SOL     OW92997  10.474  14.739  13.222
97053SOL    HW192998  10.465  14.647  13.246
97053SOL    HW292999  10.479  14.785  13.305
97054SOL     OW93000  14.722   1.721   0.184
97054SOL    HW193001  14.817   1.730   0.194
97054SOL    HW293002  14.699   1.644   0.236
97055SOL     OW93003   1.955   2.803  11.529
97055SOL    HW193004   2.008   2.804  11.449
97055SOL    HW293005   1.930   2.711  11.539
97056SOL     OW93006  12.563  13.197  10.561
97056SOL    HW193007  12.478  13.191  10.604
97056SOL    HW293008  12.617  13.133  10.607
97057SOL     OW93009   2.325   9.931   9.884
97057SOL    HW193010   2.418   9.930   9.904
97057SOL    HW293011   2.320   9.938   9.788
97058SOL     OW93012   7.527   3.803   5.819
97058SOL    HW193013   7.447   3.790   5.871
97058SOL    HW293014   7.502   3.869   5.754
97059SOL     OW93015   5.276  11.932   2.714
97059SOL    HW193016   5.300  11.850   2.671
97059SOL    HW293017   5.347  11.992   2.692
97060SOL     OW93018   4.164   3.707   2.309
97060SOL    HW193019   4.176   3.666   2.395
97060SOL    HW293020   4.216   3.788   2.314
97061SOL     OW93021  10.574  14.067   8.458
97061SOL    HW193022  10.541  14.095   8.543
97061SOL    HW293023  10.497  14.031   8.413
97062SOL     OW93024   3.033   2.955   6.898
97062SOL    HW193025   2.974   3.020   6.859
97062SOL    HW293026   3.075   3.001   6.971
97063SOL     OW93027   5.436  13.725   0.168
97063SOL    HW193028   5.468  13.816   0.166
97063SOL    HW293029   5.341  13.733   0.156
97064SOL     OW93030   4.507  14.401  12.762
97064SOL    HW193031   4.473  14.320  12.800
97064SOL    HW293032   4.446  14.423  12.692
97065SOL     OW93033  11.232   1.245   3.088
97065SOL    HW193034  11.143   1.210   3.085
97065SOL    HW293035  11.289   1.169   3.079
97066SOL     OW93036  12.385   6.036   5.163
97066SOL    HW193037  12.457   6.099   5.168
97066SOL    HW293038  12.378   6.001   5.252
97067SOL     OW93039   1.230  10.103   8.656
97067SOL    HW193040   1.306  10.059   8.694
97067SOL    HW293041   1.214  10.057   8.574
97068SOL     OW93042  14.345  12.367  10.557
97068SOL    HW193043  14.416  12.337  10.500
97068SOL    HW293044  14.285  12.292  10.562
97069SOL     OW93045   4.475  11.109  12.646
97069SOL    HW193046   4.419  11.044  12.604
97069SOL    HW293047   4.536  11.058  12.699
97070SOL     OW93048   2.916   1.974   7.658
97070SOL    HW193049   2.946   1.888   7.630
97070SOL    HW293050   2.872   2.011   7.582
97071SOL     OW93051   8.298   6.602  13.703
97071SOL    HW193052   8.294   6.558  13.619
97071SOL    HW293053   8.391   6.601  13.727
97072SOL     OW93054  11.232   3.933  11.039
97072SOL    HW193055  11.167   3.982  11.089
97072SOL    HW293056  11.188   3.850  11.017
97073SOL     OW93057   3.208   5.703  12.449
97073SOL    HW193058   3.183   5.627  12.502
97073SOL    HW293059   3.127   5.751  12.435
97074SOL     OW93060   3.557   4.818   0.918
97074SOL    HW193061   3.639   4.838   0.874
97074SOL    HW293062   3.549   4.723   0.912
97075SOL     OW93063   7.666   5.065   2.056
97075SOL    HW193064   7.636   5.077   2.146
97075SOL    HW293065   7.630   5.139   2.008
97076SOL     OW93066  11.353   3.616   6.305
97076SOL    HW193067  11.444   3.631   6.281
97076SOL    HW293068  11.315   3.703   6.311
97077SOL     OW93069   0.101  11.963  11.580
97077SOL    HW193070   0.159  11.992  11.509
97077SOL    HW293071   0.020  12.012  11.566
97078SOL     OW93072   2.304  12.958   0.213
97078SOL    HW193073   2.273  12.933   0.126
97078SOL    HW293074   2.350  13.040   0.199
97079SOL     OW93075   3.872   0.588   2.059
97079SOL    HW193076   3.911   0.675   2.071
97079SOL    HW293077   3.817   0.575   2.136
97080SOL     OW93078   5.884   5.254  10.156
97080SOL    HW193079   5.878   5.159  10.151
97080SOL    HW293080   5.804   5.285  10.113
97081SOL     OW93081   5.160   9.797  14.628
97081SOL    HW193082   5.210   9.794  14.546
97081SOL    HW293083   5.071   9.817  14.601
97082SOL     OW93084   6.926   7.212  13.941
97082SOL    HW193085   6.919   7.247  13.852
97082SOL    HW293086   6.847   7.159  13.952
97083SOL     OW93087   8.600   0.651   3.287
97083SOL    HW193088   8.627   0.742   3.301
97083SOL    HW293089   8.518   0.643   3.336
97084SOL     OW93090  12.940   8.882  14.374
97084SOL    HW193091  12.984   8.852  14.454
97084SOL    HW293092  12.965   8.818  14.307
97085SOL     OW93093   7.004  14.764   7.335
97085SOL    HW193094   7.078  14.717   7.298
97085SOL    HW293095   6.930  14.741   7.278
97086SOL     OW93096   6.640  11.034   9.454
97086SOL    HW193097   6.586  10.955   9.447
97086SOL    HW293098   6.592  11.091   9.514
97087SOL     OW93099   4.176   1.087   1.015
97087SOL    HW193100   4.209   1.135   1.091
97087SOL    HW293101   4.181   1.150   0.943
97088SOL     OW93102  10.621  12.387  13.914
97088SOL    HW193103  10.530  12.415  13.915
97088SOL    HW293104  10.639  12.358  14.003
97089SOL     OW93105   8.245  11.506   1.558
97089SOL    HW193106   8.294  11.441   1.507
97089SOL    HW293107   8.196  11.555   1.492
97090SOL     OW93108   5.434  10.587   5.705
97090SOL    HW193109   5.500  10.521   5.682
97090SOL    HW293110   5.352  10.539   5.706
97091SOL     OW93111  12.288   5.350  13.672
97091SOL    HW193112  12.360   5.392  13.721
97091SOL    HW293113  12.325   5.334  13.585
97092SOL     OW93114   6.754   3.967   8.941
97092SOL    HW193115   6.676   3.989   8.891
97092SOL    HW293116   6.820   3.946   8.874
97093SOL     OW93117  10.843   8.435   2.426
97093SOL    HW193118  10.829   8.521   2.466
97093SOL    HW293119  10.938   8.428   2.415
97094SOL     OW93120  10.063  12.239   2.997
97094SOL    HW193121  10.109  12.283   3.069
97094SOL    HW293122   9.973  12.231   3.027
97095SOL     OW93123   0.444   5.085  10.233
97095SOL    HW193124   0.389   5.045  10.299
97095SOL    HW293125   0.400   5.167  10.211
97096SOL     OW93126   3.489   5.093  12.567
97096SOL    HW193127   3.500   5.121  12.658
97096SOL    HW293128   3.567   5.128  12.522
97097SOL     OW93129   0.861   2.593   3.289
97097SOL    HW193130   0.881   2.657   3.357
97097SOL    HW293131   0.862   2.509   3.334
97098SOL     OW93132  14.189   4.861  14.482
97098SOL    HW193133  14.107   4.908  14.498
97098SOL    HW293134  14.216   4.888  14.395
97099SOL     OW93135  13.689   2.867   4.821
97099SOL    HW193136  13.704   2.788   4.874
97099SOL    HW293137  13.775   2.888   4.784
97100SOL     OW93138  12.439   5.695  13.051
97100SOL    HW193139  12.435   5.707  13.146
97100SOL    HW293140  12.364   5.638  13.031
97101SOL     OW93141  11.117  13.250  14.341
97101SOL    HW193142  11.177  13.312  14.300
97101SOL    HW293143  11.132  13.260  14.435
97102SOL     OW93144   1.466  10.407   2.227
97102SOL    HW193145   1.418  10.329   2.200
97102SOL    HW293146   1.399  10.469   2.255
97103SOL     OW93147   8.801   3.881   8.028
97103SOL    HW193148   8.862   3.953   8.046
97103SOL    HW293149   8.834   3.808   8.081
97104SOL     OW93150   6.636   3.317  11.331
97104SOL    HW193151   6.619   3.223  11.324
97104SOL    HW293152   6.723   3.328  11.295
97105SOL     OW93153   6.173   7.903   8.521
97105SOL    HW193154   6.110   7.833   8.533
97105SOL    HW293155   6.120   7.979   8.497
97106SOL     OW93156  13.670   6.142   6.195
97106SOL    HW193157  13.736   6.209   6.179
97106SOL    HW293158  13.598   6.164   6.136
97107SOL     OW93159   4.753   1.042   7.459
97107SOL    HW193160   4.841   1.061   7.490
97107SOL    HW293161   4.765   0.969   7.398
97108SOL     OW93162   1.450  10.072   3.100
97108SOL    HW193163   1.391  10.138   3.137
97108SOL    HW293164   1.458  10.007   3.170
97109SOL     OW93165   6.158  10.434   9.998
97109SOL    HW193166   6.076  10.449   9.950
97109SOL    HW293167   6.131  10.384  10.075
97110SOL     OW93168   9.830   5.896   2.003
97110SOL    HW193169   9.838   5.830   1.934
97110SOL    HW293170   9.752   5.946   1.978
97111SOL     OW93171   4.324   3.372   1.700
97111SOL    HW193172   4.292   3.363   1.790
97111SOL    HW293173   4.348   3.283   1.674
97112SOL     OW93174   5.449   4.619   3.990
97112SOL    HW193175   5.412   4.704   4.013
97112SOL    HW293176   5.544   4.631   3.997
97113SOL     OW93177   0.105   7.975   7.761
97113SOL    HW193178   0.185   7.928   7.785
97113SOL    HW293179   0.120   8.065   7.789
97114SOL     OW93180   9.463   8.185  14.648
97114SOL    HW193181   9.445   8.243  14.722
97114SOL    HW293182   9.554   8.159  14.659
97115SOL     OW93183   4.731   6.509   5.291
97115SOL    HW193184   4.756   6.422   5.322
97115SOL    HW293185   4.646   6.497   5.249
97116SOL     OW93186   6.125   4.216   4.623
97116SOL    HW193187   6.096   4.288   4.566
97116SOL    HW293188   6.220   4.215   4.614
97117SOL     OW93189   7.536   4.993   2.333
97117SOL    HW193190   7.514   4.998   2.426
97117SOL    HW293191   7.464   4.945   2.293
97118SOL     OW93192  13.041   3.820   3.385
97118SOL    HW193193  12.978   3.815   3.313
97118SOL    HW293194  13.123   3.786   3.348
97119SOL     OW93195   5.564   3.047   7.770
97119SOL    HW193196   5.605   3.056   7.684
97119SOL    HW293197   5.637   3.035   7.830
97120SOL     OW93198   0.891   8.867  10.771
97120SOL    HW193199   0.858   8.846  10.858
97120SOL    HW293200   0.984   8.881  10.783
97121SOL     OW93201   5.671  11.569   6.779
97121SOL    HW193202   5.642  11.569   6.870
97121SOL    HW293203   5.639  11.652   6.743
97122SOL     OW93204   0.763  14.667   7.890
97122SOL    HW193205   0.711  14.624   7.823
97122SOL    HW293206   0.838  14.608   7.903
97123SOL     OW93207  13.512  12.320   9.912
97123SOL    HW193208  13.418  12.304   9.910
97123SOL    HW293209  13.529  12.372   9.833
97124SOL     OW93210   2.790   8.312  12.145
97124SOL    HW193211   2.739   8.272  12.075
97124SOL    HW293212   2.725   8.347  12.206
97125SOL     OW93213  14.723   2.228   5.101
97125SOL    HW193214  14.687   2.251   5.186
97125SOL    HW293215  14.709   2.133   5.094
97126SOL     OW93216   7.081  12.972   4.187
97126SOL    HW193217   7.067  12.887   4.229
97126SOL    HW293218   7.146  12.954   4.119
97127SOL     OW93219   0.325  12.038   3.879
97127SOL    HW193220   0.311  11.962   3.936
97127SOL    HW293221   0.339  12.001   3.792
97128SOL     OW93222   2.838  10.990  12.147
97128SOL    HW193223   2.795  10.905  12.143
97128SOL    HW293224   2.842  11.010  12.241
97129SOL     OW93225  12.034   0.101   4.915
97129SOL    HW193226  11.982   0.161   4.862
97129SOL    HW293227  11.989   0.100   5.000
97130SOL     OW93228   4.362  10.373   9.467
97130SOL    HW193229   4.300  10.446   9.475
97130SOL    HW293230   4.389  10.354   9.557
97131SOL     OW93231   6.309   8.387  13.403
97131SOL    HW193232   6.247   8.370  13.474
97131SOL    HW293233   6.367   8.311  13.402
97132SOL     OW93234  13.593   4.814   0.144
97132SOL    HW193235  13.614   4.776   0.230
97132SOL    HW293236  13.649   4.892   0.139
97133SOL     OW93237   1.151   0.815  13.001
97133SOL    HW193238   1.173   0.810  13.093
97133SOL    HW293239   1.058   0.794  12.997
97134SOL     OW93240   5.296  14.358   9.954
97134SOL    HW193241   5.350  14.341  10.032
97134SOL    HW293242   5.249  14.439   9.974
97135SOL     OW93243  13.212   5.379   0.067
97135SOL    HW193244  13.173   5.466   0.063
97135SOL    HW293245  13.217   5.350  14.858
97136SOL     OW93246   9.874   0.833   1.861
97136SOL    HW193247   9.937   0.816   1.931
97136SOL    HW293248   9.822   0.753   1.856
97137SOL     OW93249   1.360   9.654   6.233
97137SOL    HW193250   1.431   9.684   6.177
97137SOL    HW293251   1.358   9.559   6.222
97138SOL     OW93252   7.646   3.837   9.448
97138SOL    HW193253   7.646   3.847   9.353
97138SOL    HW293254   7.633   3.743   9.462
97139SOL     OW93255   9.934   9.382  10.737
97139SOL    HW193256   9.840   9.363  10.737
97139SOL    HW293257   9.973   9.313  10.683
97140SOL     OW93258   6.620   8.585  12.681
97140SOL    HW193259   6.694   8.588  12.621
97140SOL    HW293260   6.657   8.552  12.763
97141SOL     OW93261  10.668   7.602   2.915
97141SOL    HW193262  10.645   7.572   2.827
97141SOL    HW293263  10.645   7.529   2.972
97142SOL     OW93264  10.268   0.997   1.756
97142SOL    HW193265  10.237   1.005   1.846
97142SOL    HW293266  10.220   1.064   1.708
97143SOL     OW93267   9.015   1.262   2.928
97143SOL    HW193268   8.960   1.326   2.882
97143SOL    HW293269   9.057   1.211   2.858
97144SOL     OW93270   5.982   5.445   4.210
97144SOL    HW193271   6.054   5.496   4.247
97144SOL    HW293272   6.001   5.442   4.116
97145SOL     OW93273   3.454   1.018   8.242
97145SOL    HW193274   3.503   1.097   8.265
97145SOL    HW293275   3.512   0.971   8.182
97146SOL     OW93276   7.959  10.612   9.359
97146SOL    HW193277   8.043  10.571   9.381
97146SOL    HW293278   7.907  10.540   9.323
97147SOL     OW93279   8.289   6.958   3.612
97147SOL    HW193280   8.342   7.036   3.630
97147SOL    HW293281   8.311   6.935   3.521
97148SOL     OW93282  10.311   6.445  10.584
97148SOL    HW193283  10.306   6.352  10.603
97148SOL    HW293284  10.238   6.461  10.524
97149SOL     OW93285   6.579   9.288   7.054
97149SOL    HW193286   6.511   9.238   7.099
97149SOL    HW293287   6.566   9.378   7.083
97150SOL     OW93288   5.676   6.766   7.463
97150SOL    HW193289   5.648   6.681   7.430
97150SOL    HW293290   5.658   6.827   7.391
97151SOL     OW93291  14.410   0.616  14.503
97151SOL    HW193292  14.348   0.547  14.478
97151SOL    HW293293  14.412   0.674  14.427
97152SOL     OW93294   4.084   1.504   1.097
97152SOL    HW193295   4.141   1.462   1.161
97152SOL    HW293296   4.134   1.579   1.065
97153SOL     OW93297   0.022   9.879   2.025
97153SOL    HW193298   0.036   9.791   2.060
97153SOL    HW293299   0.026   9.936   2.102
97154SOL     OW93300   0.405   2.877   9.630
97154SOL    HW193301   0.339   2.818   9.668
97154SOL    HW293302   0.475   2.879   9.694
97155SOL     OW93303   4.568  11.563   8.595
97155SOL    HW193304   4.584  11.491   8.534
97155SOL    HW293305   4.652  11.575   8.640
97156SOL     OW93306   8.768  13.087   2.471
97156SOL    HW193307   8.834  13.088   2.540
97156SOL    HW293308   8.748  13.179   2.454
97157SOL     OW93309   2.991   2.094   3.661
97157SOL    HW193310   3.023   2.027   3.721
97157SOL    HW293311   3.017   2.063   3.574
97158SOL     OW93312   9.139  11.834   3.438
97158SOL    HW193313   9.104  11.795   3.518
97158SOL    HW293314   9.183  11.762   3.393
97159SOL     OW93315   7.624  14.347   3.323
97159SOL    HW193316   7.631  14.391   3.239
97159SOL    HW293317   7.575  14.267   3.305
97160SOL     OW93318  12.594   3.440  13.939
97160SOL    HW193319  12.591   3.503  13.867
97160SOL    HW293320  12.588   3.492  14.018
97161SOL     OW93321   3.175   8.370   4.007
97161SOL    HW193322   3.225   8.308   4.060
97161SOL    HW293323   3.084   8.341   4.016
97162SOL     OW93324  14.669   8.563   2.323
97162SOL    HW193325  14.670   8.659   2.320
97162SOL    HW293326  14.757   8.537   2.296
97163SOL     OW93327  11.773   6.418   4.879
97163SOL    HW193328  11.834   6.427   4.806
97163SOL    HW293329  11.810   6.348   4.933
97164SOL     OW93330   9.077   2.771   6.509
97164SOL    HW193331   9.093   2.866   6.515
97164SOL    HW293332   9.015   2.763   6.437
97165SOL     OW93333   3.279  13.608  14.762
97165SOL    HW193334   3.249  13.520  14.787
97165SOL    HW293335   3.217  13.667  14.804
97166SOL     OW93336  14.188   9.224   1.457
97166SOL    HW193337  14.259   9.280   1.427
97166SOL    HW293338  14.111   9.280   1.459
97167SOL     OW93339   4.813   5.588   7.941
97167SOL    HW193340   4.841   5.644   8.014
97167SOL    HW293341   4.761   5.519   7.983
97168SOL     OW93342   4.717   8.539  10.225
97168SOL    HW193343   4.703   8.471  10.290
97168SOL    HW293344   4.798   8.582  10.251
97169SOL     OW93345   3.600   1.129  11.783
97169SOL    HW193346   3.691   1.109  11.807
97169SOL    HW293347   3.601   1.133  11.688
97170SOL     OW93348   7.052   0.784   8.649
97170SOL    HW193349   7.103   0.855   8.610
97170SOL    HW293350   6.978   0.771   8.590
97171SOL     OW93351  10.645   4.763   5.533
97171SOL    HW193352  10.734   4.772   5.498
97171SOL    HW293353  10.603   4.699   5.476
97172SOL     OW93354   8.631   7.948   8.856
97172SOL    HW193355   8.565   8.000   8.903
97172SOL    HW293356   8.621   7.974   8.764
97173SOL     OW93357   2.816   7.919   9.591
97173SOL    HW193358   2.898   7.874   9.569
97173SOL    HW293359   2.843   8.006   9.621
97174SOL     OW93360   3.088  13.312  13.501
97174SOL    HW193361   3.062  13.220  13.502
97174SOL    HW293362   3.130  13.326  13.586
97175SOL     OW93363   8.404   1.730  12.595
97175SOL    HW193364   8.331   1.779  12.632
97175SOL    HW293365   8.410   1.651  12.649
97176SOL     OW93366   4.702   3.074  13.338
97176SOL    HW193367   4.626   3.021  13.315
97176SOL    HW293368   4.673   3.127  13.413
97177SOL     OW93369  13.607   6.992   6.017
97177SOL    HW193370  13.568   7.073   5.983
97177SOL    HW293371  13.677   6.971   5.956
97178SOL     OW93372  14.854   1.612   6.539
97178SOL    HW193373  14.816   1.624   6.627
97178SOL    HW293374   0.022   1.692   6.524
97179SOL     OW93375   1.676   2.031   1.999
97179SOL    HW193376   1.740   2.048   1.931
97179SOL    HW293377   1.724   1.983   2.067
97180SOL     OW93378  12.301   1.948  12.088
97180SOL    HW193379  12.326   2.041  12.082
97180SOL    HW293380  12.383   1.901  12.092
97181SOL     OW93381   3.849   3.358   4.228
97181SOL    HW193382   3.786   3.340   4.159
97181SOL    HW293383   3.823   3.300   4.300
97182SOL     OW93384   2.862   8.999   5.350
97182SOL    HW193385   2.862   9.070   5.286
97182SOL    HW293386   2.778   9.006   5.395
97183SOL     OW93387   1.522   6.560  13.756
97183SOL    HW193388   1.498   6.593  13.669
97183SOL    HW293389   1.439   6.551  13.803
97184SOL     OW93390   3.294   0.166   6.251
97184SOL    HW193391   3.285   0.152   6.157
97184SOL    HW293392   3.348   0.093   6.282
97185SOL     OW93393   1.336  12.558  10.736
97185SOL    HW193394   1.297  12.638  10.771
97185SOL    HW293395   1.323  12.493  10.804
97186SOL     OW93396  13.144  10.904   8.212
97186SOL    HW193397  13.216  10.873   8.268
97186SOL    HW293398  13.073  10.843   8.229
97187SOL     OW93399   9.354   7.112  14.756
97187SOL    HW193400   9.278   7.070  14.797
97187SOL    HW293401   9.375   7.186  14.814
97188SOL     OW93402   6.453  12.787   8.365
97188SOL    HW193403   6.429  12.879   8.363
97188SOL    HW293404   6.533  12.784   8.418
97189SOL     OW93405   1.304   8.335   2.026
97189SOL    HW193406   1.291   8.385   1.945
97189SOL    HW293407   1.348   8.255   1.997
97190SOL     OW93408   7.727   7.618   3.132
97190SOL    HW193409   7.818   7.619   3.102
97190SOL    HW293410   7.713   7.706   3.169
97191SOL     OW93411   8.045   7.736   4.175
97191SOL    HW193412   8.014   7.648   4.155
97191SOL    HW293413   8.025   7.786   4.096
97192SOL     OW93414  11.773  11.232   3.260
97192SOL    HW193415  11.698  11.187   3.219
97192SOL    HW293416  11.760  11.218   3.354
97193SOL     OW93417   5.335   5.778   9.631
97193SOL    HW193418   5.425   5.746   9.626
97193SOL    HW293419   5.344   5.871   9.649
97194SOL     OW93420  13.024  10.404   5.809
97194SOL    HW193421  13.086  10.461   5.765
97194SOL    HW293422  13.073  10.324   5.827
97195SOL     OW93423   9.946   1.619  12.401
97195SOL    HW193424   9.966   1.586  12.488
97195SOL    HW293425  10.027   1.604  12.351
97196SOL     OW93426  14.390   3.312  12.119
97196SOL    HW193427  14.401   3.220  12.145
97196SOL    HW293428  14.423   3.316  12.030
97197SOL     OW93429  14.306  14.171   3.343
97197SOL    HW193430  14.238  14.238   3.344
97197SOL    HW293431  14.279  14.110   3.275
97198SOL     OW93432  14.781   4.496   0.543
97198SOL    HW193433  14.812   4.479   0.455
97198SOL    HW293434  14.740   4.583   0.538
97199SOL     OW93435   8.356   0.314   0.168
97199SOL    HW193436   8.318   0.231   0.196
97199SOL    HW293437   8.391   0.297   0.081
97200SOL     OW93438  11.783   1.939   7.877
97200SOL    HW193439  11.715   2.007   7.881
97200SOL    HW293440  11.796   1.913   7.969
97201SOL     OW93441  13.512   0.042  13.295
97201SOL    HW193442  13.551   0.087  13.220
97201SOL    HW293443  13.573  14.852  13.314
97202SOL     OW93444   7.215  11.102   1.568
97202SOL    HW193445   7.281  11.160   1.605
97202SOL    HW293446   7.178  11.151   1.495
97203SOL     OW93447  14.231   4.544   1.604
97203SOL    HW193448  14.318   4.555   1.565
97203SOL    HW293449  14.232   4.454   1.638
97204SOL     OW93450   3.393  12.997   1.064
97204SOL    HW193451   3.372  12.993   0.971
97204SOL    HW293452   3.367  13.085   1.091
97205SOL     OW93453   2.903   7.996   1.665
97205SOL    HW193454   2.908   7.986   1.760
97205SOL    HW293455   2.991   8.022   1.639
97206SOL     OW93456  13.303  12.635  12.228
97206SOL    HW193457  13.247  12.569  12.190
97206SOL    HW293458  13.330  12.690  12.154
97207SOL     OW93459   8.180   0.817   7.062
97207SOL    HW193460   8.097   0.828   7.016
97207SOL    HW293461   8.231   0.759   7.006
97208SOL     OW93462   6.956   3.688   3.765
97208SOL    HW193463   6.948   3.712   3.858
97208SOL    HW293464   6.928   3.597   3.762
97209SOL     OW93465  14.266   6.750   2.379
97209SOL    HW193466  14.195   6.803   2.344
97209SOL    HW293467  14.339   6.764   2.318
97210SOL     OW93468  13.297   2.562   9.832
97210SOL    HW193469  13.295   2.611   9.914
97210SOL    HW293470  13.325   2.625   9.766
97211SOL     OW93471   4.166   2.561   7.401
97211SOL    HW193472   4.141   2.469   7.394
97211SOL    HW293473   4.150   2.583   7.493
97212SOL     OW93474   7.581   5.751   3.104
97212SOL    HW193475   7.605   5.665   3.139
97212SOL    HW293476   7.496   5.771   3.143
97213SOL     OW93477   8.369  13.260   8.554
97213SOL    HW193478   8.463  13.262   8.532
97213SOL    HW293479   8.325  13.253   8.470
97214SOL     OW93480   1.615   8.600   8.859
97214SOL    HW193481   1.640   8.538   8.928
97214SOL    HW293482   1.693   8.654   8.845
97215SOL     OW93483  11.735   6.829   0.865
97215SOL    HW193484  11.700   6.885   0.796
97215SOL    HW293485  11.830   6.825   0.848
97216SOL     OW93486  11.677   5.949   0.659
97216SOL    HW193487  11.594   5.902   0.669
97216SOL    HW293488  11.669   5.996   0.577
97217SOL     OW93489   3.816   6.088  10.889
97217SOL    HW193490   3.793   6.149  10.820
97217SOL    HW293491   3.891   6.040  10.855
97218SOL     OW93492   7.458  11.640   0.278
97218SOL    HW193493   7.377  11.591   0.268
97218SOL    HW293494   7.464  11.692   0.197
97219SOL     OW93495   3.086   4.080   5.144
97219SOL    HW193496   3.075   3.995   5.188
97219SOL    HW293497   3.067   4.145   5.212
97220SOL     OW93498   6.791  10.026   8.277
97220SOL    HW193499   6.726  10.095   8.265
97220SOL    HW293500   6.747   9.961   8.332
97221SOL     OW93501  10.158   5.596  14.314
97221SOL    HW193502  10.067   5.596  14.284
97221SOL    HW293503  10.186   5.688  14.307
97222SOL     OW93504   5.663   7.180   7.439
97222SOL    HW193505   5.714   7.159   7.517
97222SOL    HW293506   5.578   7.208   7.473
97223SOL     OW93507  13.028   4.845  10.908
97223SOL    HW193508  13.048   4.914  10.844
97223SOL    HW293509  13.103   4.846  10.968
97224SOL     OW93510   8.688   7.693  13.438
97224SOL    HW193511   8.731   7.779  13.434
97224SOL    HW293512   8.742   7.636  13.384
97225SOL     OW93513  13.619   5.481  14.365
97225SOL    HW193514  13.625   5.467  14.271
97225SOL    HW293515  13.684   5.548  14.384
97226SOL     OW93516  12.023  12.631   2.672
97226SOL    HW193517  12.099  12.574   2.663
97226SOL    HW293518  11.963  12.583   2.729
97227SOL     OW93519   6.144   1.402  11.479
97227SOL    HW193520   6.161   1.462  11.552
97227SOL    HW293521   6.057   1.368  11.496
97228SOL     OW93522  12.346   8.638   2.886
97228SOL    HW193523  12.310   8.580   2.819
97228SOL    HW293524  12.274   8.697   2.909
97229SOL     OW93525  12.358   3.295   2.193
97229SOL    HW193526  12.280   3.349   2.201
97229SOL    HW293527  12.430   3.358   2.184
97230SOL     OW93528  12.392   9.261   7.155
97230SOL    HW193529  12.416   9.271   7.247
97230SOL    HW293530  12.327   9.331   7.140
97231SOL     OW93531  14.198   8.921   3.361
97231SOL    HW193532  14.207   8.940   3.268
97231SOL    HW293533  14.232   9.000   3.404
97232SOL     OW93534   0.575  14.290  11.538
97232SOL    HW193535   0.593  14.354  11.470
97232SOL    HW293536   0.611  14.208  11.505
97233SOL     OW93537  10.903   3.304   8.062
97233SOL    HW193538  10.833   3.298   7.997
97233SOL    HW293539  10.868   3.262   8.140
97234SOL     OW93540   8.276   0.632   6.535
97234SOL    HW193541   8.290   0.538   6.546
97234SOL    HW293542   8.363   0.671   6.551
97235SOL     OW93543   4.377  14.182   1.811
97235SOL    HW193544   4.452  14.135   1.775
97235SOL    HW293545   4.414  14.240   1.878
97236SOL     OW93546   6.715  10.094   2.218
97236SOL    HW193547   6.772  10.139   2.156
97236SOL    HW293548   6.627  10.128   2.200
97237SOL     OW93549   5.606  13.197   6.696
97237SOL    HW193550   5.639  13.122   6.646
97237SOL    HW293551   5.684  13.242   6.726
97238SOL     OW93552  13.708   4.085  13.196
97238SOL    HW193553  13.793   4.085  13.239
97238SOL    HW293554  13.691   4.177  13.174
97239SOL     OW93555   5.830   0.795   9.371
97239SOL    HW193556   5.815   0.889   9.378
97239SOL    HW293557   5.845   0.767   9.461
97240SOL     OW93558   7.256   0.296   3.413
97240SOL    HW193559   7.228   0.213   3.452
97240SOL    HW293560   7.268   0.275   3.320
97241SOL     OW93561   5.159   6.409  11.269
97241SOL    HW193562   5.071   6.374  11.285
97241SOL    HW293563   5.162   6.490  11.320
97242SOL     OW93564   1.592   9.955  11.284
97242SOL    HW193565   1.561   9.872  11.320
97242SOL    HW293566   1.547  10.022  11.336
97243SOL     OW93567   4.032   8.002   2.851
97243SOL    HW193568   4.019   8.096   2.840
97243SOL    HW293569   3.972   7.978   2.922
97244SOL     OW93570   9.786  10.603   2.725
97244SOL    HW193571   9.774  10.566   2.813
97244SOL    HW293572   9.867  10.654   2.732
97245SOL     OW93573  13.422   8.702   6.747
97245SOL    HW193574  13.387   8.718   6.835
97245SOL    HW293575  13.355   8.648   6.704
97246SOL     OW93576   8.329   8.320   8.355
97246SOL    HW193577   8.239   8.304   8.384
97246SOL    HW293578   8.366   8.377   8.421
97247SOL     OW93579   1.294   6.558  10.154
97247SOL    HW193580   1.308   6.484  10.213
97247SOL    HW293581   1.381   6.598  10.145
97248SOL     OW93582   3.308  13.661   9.619
97248SOL    HW193583   3.322  13.728   9.685
97248SOL    HW293584   3.270  13.708   9.545
97249SOL     OW93585   0.443  13.950   4.558
97249SOL    HW193586   0.355  13.988   4.555
97249SOL    HW293587   0.492  14.009   4.616
97250SOL     OW93588  12.947   9.790   0.771
97250SOL    HW193589  12.963   9.722   0.704
97250SOL    HW293590  12.864   9.829   0.745
97251SOL     OW93591  11.620  13.373  11.139
97251SOL    HW193592  11.702  13.422  11.145
97251SOL    HW293593  11.552  13.440  11.133
97252SOL     OW93594  10.192  10.417   6.578
97252SOL    HW193595  10.127  10.350   6.597
97252SOL    HW293596  10.179  10.484   6.646
97253SOL     OW93597   4.891   7.505  13.425
97253SOL    HW193598   4.844   7.569  13.478
97253SOL    HW293599   4.979   7.541  13.416
97254SOL     OW93600   9.579  11.030  14.298
97254SOL    HW193601   9.549  11.120  14.309
97254SOL    HW293602   9.631  11.031  14.218
97255SOL     OW93603   2.304  13.312  12.788
97255SOL    HW193604   2.239  13.336  12.853
97255SOL    HW293605   2.388  13.341  12.825
97256SOL     OW93606  11.228   4.856   1.833
97256SOL    HW193607  11.224   4.803   1.913
97256SOL    HW293608  11.191   4.941   1.858
97257SOL     OW93609   1.236  13.588  14.740
97257SOL    HW193610   1.270  13.592  14.829
97257SOL    HW293611   1.238  13.678  14.709
97258SOL     OW93612   9.077   7.621   1.496
97258SOL    HW193613   9.035   7.559   1.435
97258SOL    HW293614   9.004   7.664   1.540
97259SOL     OW93615   4.902  10.100   9.983
97259SOL    HW193616   4.965  10.040  10.023
97259SOL    HW293617   4.864  10.148  10.057
97260SOL     OW93618   1.069  10.495   2.459
97260SOL    HW193619   1.160  10.502   2.431
97260SOL    HW293620   1.058  10.566   2.522
97261SOL     OW93621   6.910   5.857  13.825
97261SOL    HW193622   6.933   5.950  13.830
97261SOL    HW293623   6.975   5.820  13.765
97262SOL     OW93624  12.218   8.733  12.610
97262SOL    HW193625  12.191   8.705  12.698
97262SOL    HW293626  12.165   8.811  12.594
97263SOL     OW93627   8.599  12.586  10.749
97263SOL    HW193628   8.693  12.607  10.751
97263SOL    HW293629   8.593  12.501  10.793
97264SOL     OW93630  11.973   7.293   6.011
97264SOL    HW193631  12.003   7.290   5.920
97264SOL    HW293632  12.049   7.263   6.062
97265SOL     OW93633   1.083   1.213  11.174
97265SOL    HW193634   1.175   1.196  11.195
97265SOL    HW293635   1.042   1.232  11.258
97266SOL     OW93636   8.433   6.403  10.074
97266SOL    HW193637   8.367   6.471  10.060
97266SOL    HW293638   8.460   6.376   9.986
97267SOL     OW93639  14.046  10.192  10.067
97267SOL    HW193640  13.978  10.131  10.037
97267SOL    HW293641  14.122  10.136  10.084
97268SOL     OW93642   7.183   7.515   6.607
97268SOL    HW193643   7.192   7.423   6.581
97268SOL    HW293644   7.216   7.565   6.532
97269SOL     OW93645  13.759  14.459   6.003
97269SOL    HW193646  13.756  14.372   5.963
97269SOL    HW293647  13.847  14.491   5.983
97270SOL     OW93648   2.577  12.561  12.280
97270SOL    HW193649   2.552  12.654  12.285
97270SOL    HW293650   2.606  12.550  12.189
97271SOL     OW93651   2.110   8.034   4.046
97271SOL    HW193652   2.093   8.118   4.005
97271SOL    HW293653   2.051   7.973   4.002
97272SOL     OW93654   9.171   9.615   3.624
97272SOL    HW193655   9.174   9.572   3.709
97272SOL    HW293656   9.254   9.593   3.583
97273SOL     OW93657   3.984   7.402   2.794
97273SOL    HW193658   4.076   7.389   2.815
97273SOL    HW293659   3.975   7.496   2.782
97274SOL     OW93660  10.730  14.562  13.421
97274SOL    HW193661  10.712  14.468  13.412
97274SOL    HW293662  10.770  14.570  13.507
97275SOL     OW93663   4.749   2.256   6.337
97275SOL    HW193664   4.673   2.302   6.299
97275SOL    HW293665   4.824   2.292   6.290
97276SOL     OW93666   4.625   8.015   6.819
97276SOL    HW193667   4.559   8.033   6.752
97276SOL    HW293668   4.575   7.992   6.897
97277SOL     OW93669  10.097  11.465  12.348
97277SOL    HW193670  10.158  11.444  12.277
97277SOL    HW293671  10.154  11.497  12.418
97278SOL     OW93672  11.765   2.586  13.683
97278SOL    HW193673  11.781   2.556  13.773
97278SOL    HW293674  11.756   2.505  13.632
97279SOL     OW93675   9.477   0.868   9.100
97279SOL    HW193676   9.384   0.846   9.099
97279SOL    HW293677   9.502   0.876   9.008
97280SOL     OW93678   9.114   6.093   3.023
97280SOL    HW193679   9.183   6.126   3.080
97280SOL    HW293680   9.052   6.050   3.082
97281SOL     OW93681   0.778  13.142   3.873
97281SOL    HW193682   0.839  13.127   3.800
97281SOL    HW293683   0.753  13.054   3.901
97282SOL     OW93684   2.493   1.157   3.764
97282SOL    HW193685   2.449   1.239   3.785
97282SOL    HW293686   2.451   1.092   3.820
97283SOL     OW93687   8.485  11.073   4.303
97283SOL    HW193688   8.471  11.157   4.347
97283SOL    HW293689   8.412  11.019   4.333
97284SOL     OW93690   4.126   0.410   9.159
97284SOL    HW193691   4.214   0.386   9.130
97284SOL    HW293692   4.074   0.413   9.079
97285SOL     OW93693   5.559  14.346  13.902
97285SOL    HW193694   5.606  14.310  13.977
97285SOL    HW293695   5.628  14.372  13.841
97286SOL     OW93696   0.873   8.518   2.261
97286SOL    HW193697   0.797   8.561   2.223
97286SOL    HW293698   0.838   8.440   2.304
97287SOL     OW93699   4.666   9.537  14.080
97287SOL    HW193700   4.615   9.478  14.025
97287SOL    HW293701   4.757   9.518  14.058
97288SOL     OW93702   5.173  13.841   1.002
97288SOL    HW193703   5.252  13.857   1.053
97288SOL    HW293704   5.103  13.836   1.067
97289SOL     OW93705   3.735   0.658   4.490
97289SOL    HW193706   3.828   0.680   4.487
97289SOL    HW293707   3.719   0.615   4.406
97290SOL     OW93708   2.360  13.142  13.396
97290SOL    HW193709   2.375  13.092  13.315
97290SOL    HW293710   2.265  13.155  13.399
97291SOL     OW93711   0.213   5.046   4.373
97291SOL    HW193712   0.227   4.975   4.310
97291SOL    HW293713   0.300   5.079   4.393
97292SOL     OW93714   4.438   3.752   2.702
97292SOL    HW193715   4.353   3.767   2.660
97292SOL    HW293716   4.485   3.695   2.642
97293SOL     OW93717   8.346   9.147  12.494
97293SOL    HW193718   8.380   9.173  12.409
97293SOL    HW293719   8.415   9.171  12.556
97294SOL     OW93720   8.292   3.275  10.644
97294SOL    HW193721   8.275   3.206  10.708
97294SOL    HW293722   8.344   3.233  10.576
97295SOL     OW93723   8.931  14.746  12.015
97295SOL    HW193724   8.985  14.730  11.938
97295SOL    HW293725   8.856  14.687  12.003
97296SOL     OW93726   4.003  14.058   8.438
97296SOL    HW193727   4.013  14.134   8.380
97296SOL    HW293728   3.917  14.070   8.478
97297SOL     OW93729   8.013   4.541  10.600
97297SOL    HW193730   8.090   4.553  10.656
97297SOL    HW293731   8.009   4.447  10.584
97298SOL     OW93732  12.843   2.147  12.431
97298SOL    HW193733  12.760   2.191  12.448
97298SOL    HW293734  12.852   2.147  12.336
97299SOL     OW93735  13.470   5.363  12.464
97299SOL    HW193736  13.509   5.448  12.482
97299SOL    HW293737  13.541   5.301  12.474
97300SOL     OW93738  10.376  12.411   0.867
97300SOL    HW193739  10.339  12.498   0.856
97300SOL    HW293740  10.444  12.422   0.934
97301SOL     OW93741  13.503   0.289   1.530
97301SOL    HW193742  13.414   0.294   1.495
97301SOL    HW293743  13.535   0.380   1.525
97302SOL     OW93744  13.418   1.491   5.934
97302SOL    HW193745  13.383   1.554   5.996
97302SOL    HW293746  13.369   1.506   5.854
97303SOL     OW93747   9.796  12.361   7.834
97303SOL    HW193748   9.797  12.451   7.801
97303SOL    HW293749   9.739  12.313   7.774
97304SOL     OW93750  14.847   9.068   4.473
97304SOL    HW193751  14.801   9.129   4.530
97304SOL    HW293752   0.057   9.079   4.495
97305SOL     OW93753  13.423   9.912   2.498
97305SOL    HW193754  13.482   9.859   2.445
97305SOL    HW293755  13.451  10.002   2.481
97306SOL     OW93756   2.375   1.864   8.831
97306SOL    HW193757   2.303   1.897   8.884
97306SOL    HW293758   2.451   1.868   8.889
97307SOL     OW93759  11.838   8.168   9.539
97307SOL    HW193760  11.791   8.169   9.622
97307SOL    HW293761  11.896   8.243   9.543
97308SOL     OW93762   2.359  11.668   0.484
97308SOL    HW193763   2.435  11.697   0.435
97308SOL    HW293764   2.304  11.746   0.493
97309SOL     OW93765   8.673   0.065   6.415
97309SOL    HW193766   8.737   0.104   6.476
97309SOL    HW293767   8.723   0.048   6.336
97310SOL     OW93768  12.705   6.763   1.218
97310SOL    HW193769  12.767   6.725   1.155
97310SOL    HW293770  12.685   6.691   1.278
97311SOL     OW93771   4.715   8.540   2.449
97311SOL    HW193772   4.702   8.501   2.536
97311SOL    HW293773   4.651   8.611   2.445
97312SOL     OW93774   1.372  10.616  13.585
97312SOL    HW193775   1.425  10.573  13.518
97312SOL    HW293776   1.320  10.680  13.536
97313SOL     OW93777   4.031   1.775  13.799
97313SOL    HW193778   4.101   1.839  13.802
97313SOL    HW293779   3.964   1.809  13.859
97314SOL     OW93780   8.912   4.899   2.105
97314SOL    HW193781   8.825   4.889   2.143
97314SOL    HW293782   8.941   4.986   2.134
97315SOL     OW93783   0.941  12.315   6.310
97315SOL    HW193784   0.879  12.244   6.292
97315SOL    HW293785   1.011  12.274   6.361
97316SOL     OW93786  13.547  11.397   5.644
97316SOL    HW193787  13.576  11.361   5.728
97316SOL    HW293788  13.456  11.367   5.635
97317SOL     OW93789  14.137   9.498   9.293
97317SOL    HW193790  14.076   9.538   9.355
97317SOL    HW293791  14.081   9.453   9.231
97318SOL     OW93792   3.365  12.802   2.711
97318SOL    HW193793   3.444  12.823   2.662
97318SOL    HW293794   3.318  12.886   2.718
97319SOL     OW93795   7.894   9.638   1.983
97319SOL    HW193796   7.824   9.698   2.007
97319SOL    HW293797   7.886   9.565   2.045
97320SOL     OW93798   5.588   2.183   3.073
97320SOL    HW193799   5.541   2.265   3.054
97320SOL    HW293800   5.535   2.141   3.140
97321SOL     OW93801   2.182   7.820  14.422
97321SOL    HW193802   2.194   7.914  14.431
97321SOL    HW293803   2.234   7.797  14.345
97322SOL     OW93804  14.629  14.707   5.827
97322SOL    HW193805  14.555  14.655   5.858
97322SOL    HW293806  14.630  14.692   5.732
97323SOL     OW93807  12.735   5.256   0.087
97323SOL    HW193808  12.825   5.263   0.056
97323SOL    HW293809  12.682   5.257   0.008
97324SOL     OW93810   1.974  10.222  10.726
97324SOL    HW193811   1.908  10.152  10.732
97324SOL    HW293812   2.053  10.178  10.697
97325SOL     OW93813   1.545   8.473  11.498
97325SOL    HW193814   1.500   8.553  11.523
97325SOL    HW293815   1.492   8.435  11.428
97326SOL     OW93816   7.199   9.456   9.994
97326SOL    HW193817   7.143   9.477   9.920
97326SOL    HW293818   7.142   9.412  10.057
97327SOL     OW93819   1.609   6.006   4.341
97327SOL    HW193820   1.545   6.058   4.294
97327SOL    HW293821   1.564   5.923   4.358
97328SOL     OW93822   1.534  11.654  10.166
97328SOL    HW193823   1.518  11.681  10.257
97328SOL    HW293824   1.587  11.575  10.174
97329SOL     OW93825  11.523  14.174   3.530
97329SOL    HW193826  11.546  14.192   3.438
97329SOL    HW293827  11.575  14.097   3.553
97330SOL     OW93828   3.641   7.348   3.538
97330SOL    HW193829   3.699   7.273   3.525
97330SOL    HW293830   3.565   7.313   3.584
97331SOL     OW93831   1.559   0.847   2.528
97331SOL    HW193832   1.508   0.887   2.458
97331SOL    HW293833   1.516   0.763   2.544
97332SOL     OW93834   4.272   5.585   3.906
97332SOL    HW193835   4.280   5.558   3.997
97332SOL    HW293836   4.303   5.676   3.905
97333SOL     OW93837   9.944   6.617   3.901
97333SOL    HW193838   9.970   6.645   3.813
97333SOL    HW293839  10.000   6.542   3.919
97334SOL     OW93840   5.737   2.580   9.654
97334SOL    HW193841   5.737   2.676   9.655
97334SOL    HW293842   5.830   2.557   9.665
97335SOL     OW93843   2.650   5.149  10.558
97335SOL    HW193844   2.609   5.112  10.480
97335SOL    HW293845   2.662   5.242  10.537
97336SOL     OW93846  14.656   0.177   4.321
97336SOL    HW193847  14.724   0.129   4.368
97336SOL    HW293848  14.669   0.155   4.229
97337SOL     OW93849   8.763   8.180   1.279
97337SOL    HW193850   8.669   8.183   1.263
97337SOL    HW293851   8.784   8.266   1.315
97338SOL     OW93852  14.464   6.032   3.746
97338SOL    HW193853  14.371   6.035   3.770
97338SOL    HW293854  14.507   6.089   3.810
97339SOL     OW93855   3.992   7.988   7.497
97339SOL    HW193856   3.999   7.986   7.593
97339SOL    HW293857   4.035   7.908   7.468
97340SOL     OW93858  14.500   5.786   9.586
97340SOL    HW193859  14.527   5.858   9.529
97340SOL    HW293860  14.499   5.709   9.529
97341SOL     OW93861   8.266  14.266   5.894
97341SOL    HW193862   8.354  14.235   5.915
97341SOL    HW293863   8.249  14.234   5.806
97342SOL     OW93864   6.549  12.713   0.703
97342SOL    HW193865   6.554  12.632   0.755
97342SOL    HW293866   6.521  12.684   0.616
97343SOL     OW93867   3.543   1.506   9.462
97343SOL    HW193868   3.513   1.423   9.423
97343SOL    HW293869   3.495   1.573   9.415
97344SOL     OW93870   5.721  14.420   8.023
97344SOL    HW193871   5.731  14.471   7.942
97344SOL    HW293872   5.639  14.371   8.010
97345SOL     OW93873  12.929  10.391  12.271
97345SOL    HW193874  12.889  10.305  12.260
97345SOL    HW293875  12.934  10.404  12.365
97346SOL     OW93876   1.339   3.917  12.506
97346SOL    HW193877   1.412   3.977  12.521
97346SOL    HW293878   1.337   3.860  12.582
97347SOL     OW93879   6.920   6.703  14.320
97347SOL    HW193880   6.908   6.779  14.262
97347SOL    HW293881   6.964   6.638  14.266
97348SOL     OW93882   2.990   0.777   5.374
97348SOL    HW193883   3.079   0.803   5.400
97348SOL    HW293884   2.950   0.743   5.454
97349SOL     OW93885   7.287   3.942  11.727
97349SOL    HW193886   7.371   3.898  11.739
97349SOL    HW293887   7.233   3.878  11.680
97350SOL     OW93888  10.203   7.640   0.981
97350SOL    HW193889  10.218   7.644   1.075
97350SOL    HW293890  10.111   7.616   0.972
97351SOL     OW93891   7.956  12.913   4.508
97351SOL    HW193892   7.994  12.995   4.477
97351SOL    HW293893   7.982  12.908   4.600
97352SOL     OW93894  10.613   4.491  13.180
97352SOL    HW193895  10.558   4.541  13.241
97352SOL    HW293896  10.640   4.554  13.114
97353SOL     OW93897  10.290  11.537   2.512
97353SOL    HW193898  10.247  11.565   2.592
97353SOL    HW293899  10.234  11.570   2.442
97354SOL     OW93900   3.085  14.181   0.093
97354SOL    HW193901   2.992  14.198   0.104
97354SOL    HW293902   3.101  14.101   0.144
97355SOL     OW93903  14.794   9.598   4.410
97355SOL    HW193904  14.853   9.656   4.457
97355SOL    HW293905  14.787   9.520   4.465
97356SOL     OW93906  12.659   6.452   6.458
97356SOL    HW193907  12.633   6.523   6.516
97356SOL    HW293908  12.754   6.449   6.464
97357SOL     OW93909   7.649   2.179   3.261
97357SOL    HW193910   7.579   2.243   3.250
97357SOL    HW293911   7.603   2.097   3.282
97358SOL     OW93912  14.126   4.853   4.807
97358SOL    HW193913  14.077   4.817   4.881
97358SOL    HW293914  14.206   4.888   4.846
97359SOL     OW93915   1.963  13.291   0.381
97359SOL    HW193916   2.029  13.223   0.367
97359SOL    HW293917   1.943  13.286   0.475
97360SOL     OW93918   1.996   9.139  13.325
97360SOL    HW193919   2.069   9.098  13.279
97360SOL    HW293920   1.987   9.226  13.284
97361SOL     OW93921   1.564   2.581   4.789
97361SOL    HW193922   1.578   2.510   4.852
97361SOL    HW293923   1.543   2.536   4.707
97362SOL     OW93924   6.319   2.211   6.798
97362SOL    HW193925   6.230   2.192   6.827
97362SOL    HW293926   6.339   2.141   6.735
97363SOL     OW93927  10.038  12.492   0.533
97363SOL    HW193928   9.992  12.412   0.559
97363SOL    HW293929  10.010  12.558   0.596
97364SOL     OW93930   3.586  10.776   9.831
97364SOL    HW193931   3.680  10.792   9.824
97364SOL    HW293932   3.548  10.826   9.759
97365SOL     OW93933  13.493   9.638   2.681
97365SOL    HW193934  13.464   9.729   2.688
97365SOL    HW293935  13.547   9.636   2.602
97366SOL     OW93936   6.004   2.292  12.093
97366SOL    HW193937   6.008   2.227  12.163
97366SOL    HW293938   5.958   2.247  12.022
97367SOL     OW93939   0.052  10.520  10.692
97367SOL    HW193940   0.114  10.584  10.658
97367SOL    HW293941   0.103  10.439  10.699
97368SOL     OW93942   8.443   7.592   7.538
97368SOL    HW193943   8.393   7.510   7.538
97368SOL    HW293944   8.533   7.564   7.524
97369SOL     OW93945   2.613   8.153   7.473
97369SOL    HW193946   2.578   8.110   7.395
97369SOL    HW293947   2.704   8.172   7.451
97370SOL     OW93948   1.624   7.251   9.118
97370SOL    HW193949   1.613   7.187   9.188
97370SOL    HW293950   1.699   7.304   9.146
97371SOL     OW93951   3.961   2.614   5.759
97371SOL    HW193952   4.026   2.681   5.741
97371SOL    HW293953   3.910   2.649   5.832
97372SOL     OW93954   7.943   4.566   7.586
97372SOL    HW193955   7.955   4.639   7.525
97372SOL    HW293956   7.867   4.519   7.552
97373SOL     OW93957   2.411   0.604   5.502
97373SOL    HW193958   2.401   0.559   5.418
97373SOL    HW293959   2.339   0.667   5.504
97374SOL     OW93960   9.116   7.146   5.302
97374SOL    HW193961   9.160   7.130   5.218
97374SOL    HW293962   9.150   7.231   5.330
97375SOL     OW93963   6.076   4.225  10.278
97375SOL    HW193964   6.058   4.263  10.193
97375SOL    HW293965   6.133   4.289  10.322
97376SOL     OW93966   7.366   0.663  11.458
97376SOL    HW193967   7.376   0.588  11.400
97376SOL    HW293968   7.352   0.625  11.544
97377SOL     OW93969  14.541   5.337   7.576
97377SOL    HW193970  14.543   5.279   7.500
97377SOL    HW293971  14.536   5.425   7.539
97378SOL     OW93972  12.529   4.765   9.851
97378SOL    HW193973  12.534   4.788   9.944
97378SOL    HW293974  12.494   4.676   9.851
97379SOL     OW93975   4.974   5.197  11.981
97379SOL    HW193976   4.918   5.240  11.917
97379SOL    HW293977   4.931   5.212  12.065
97380SOL     OW93978  12.383   1.650   9.932
97380SOL    HW193979  12.467   1.631   9.974
97380SOL    HW293980  12.405   1.714   9.863
97381SOL     OW93981   6.126  11.537   6.191
97381SOL    HW193982   6.086  11.621   6.212
97381SOL    HW293983   6.066  11.472   6.228
97382SOL     OW93984   6.006   6.666  14.600
97382SOL    HW193985   5.981   6.740  14.544
97382SOL    HW293986   6.091   6.638  14.567
97383SOL     OW93987   0.893  12.305  12.173
97383SOL    HW193988   0.884  12.235  12.237
97383SOL    HW293989   0.804  12.322  12.142
97384SOL     OW93990   9.031   1.602   8.752
97384SOL    HW193991   9.104   1.597   8.690
97384SOL    HW293992   9.035   1.691   8.786
97385SOL     OW93993  13.204  14.342   0.911
97385SOL    HW193994  13.195  14.276   0.980
97385SOL    HW293995  13.187  14.425   0.955
97386SOL     OW93996   6.841  14.438   6.592
97386SOL    HW193997   6.869  14.353   6.558
97386SOL    HW293998   6.859  14.500   6.521
97387SOL     OW93999   3.835  13.765   7.887
97387SOL    HW194000   3.804  13.680   7.856
97387SOL    HW294001   3.772  13.790   7.954
97388SOL     OW94002   4.973   7.706  12.974
97388SOL    HW194003   4.999   7.798  12.969
97388SOL    HW294004   5.051   7.658  12.946
97389SOL     OW94005   5.405   4.914   9.030
97389SOL    HW194006   5.409   5.004   8.997
97389SOL    HW294007   5.311   4.896   9.038
97390SOL     OW94008   9.034   3.534   6.902
97390SOL    HW194009   9.064   3.617   6.940
97390SOL    HW294010   9.072   3.534   6.814
97391SOL     OW94011  13.519  11.621   2.700
97391SOL    HW194012  13.547  11.682   2.769
97391SOL    HW294013  13.428  11.645   2.683
97392SOL     OW94014   3.430   1.485   0.433
97392SOL    HW194015   3.498   1.551   0.418
97392SOL    HW294016   3.443   1.458   0.524
97393SOL     OW94017   6.732   9.144  14.450
97393SOL    HW194018   6.761   9.053  14.453
97393SOL    HW294019   6.805   9.191  14.411
97394SOL     OW94020   7.187  12.331   0.954
97394SOL    HW194021   7.213  12.391   1.024
97394SOL    HW294022   7.224  12.369   0.875
97395SOL     OW94023   0.165   6.912   5.384
97395SOL    HW194024   0.136   6.821   5.384
97395SOL    HW294025   0.260   6.907   5.371
97396SOL     OW94026   6.753  11.432   6.923
97396SOL    HW194027   6.744  11.338   6.937
97396SOL    HW294028   6.819  11.440   6.854
97397SOL     OW94029   9.580   5.189   8.467
97397SOL    HW194030   9.593   5.216   8.376
97397SOL    HW294031   9.629   5.107   8.475
97398SOL     OW94032   0.673   3.421   4.217
97398SOL    HW194033   0.597   3.367   4.240
97398SOL    HW294034   0.702   3.458   4.300
97399SOL     OW94035   6.367   3.907   0.826
97399SOL    HW194036   6.456   3.890   0.795
97399SOL    HW294037   6.370   3.999   0.855
97400SOL     OW94038   1.600   6.613   4.271
97400SOL    HW194039   1.539   6.661   4.215
97400SOL    HW294040   1.548   6.541   4.306
97401SOL     OW94041   1.352   6.181  10.285
97401SOL    HW194042   1.433   6.131  10.293
97401SOL    HW294043   1.282   6.117  10.298
97402SOL     OW94044   7.433  11.613   5.989
97402SOL    HW194045   7.508  11.604   6.047
97402SOL    HW294046   7.407  11.523   5.969
97403SOL     OW94047  11.683  10.720  10.806
97403SOL    HW194048  11.694  10.775  10.884
97403SOL    HW294049  11.757  10.659  10.810
97404SOL     OW94050   5.975   8.226   0.492
97404SOL    HW194051   5.992   8.316   0.520
97404SOL    HW294052   6.026   8.216   0.411
97405SOL     OW94053  12.857   5.417   7.179
97405SOL    HW194054  12.938   5.387   7.220
97405SOL    HW294055  12.791   5.408   7.248
97406SOL     OW94056   6.258  14.254   5.510
97406SOL    HW194057   6.353  14.247   5.518
97406SOL    HW294058   6.238  14.343   5.537
97407SOL     OW94059   9.136  12.602   9.063
97407SOL    HW194060   9.192  12.667   9.022
97407SOL    HW294061   9.195  12.551   9.118
97408SOL     OW94062  11.963  12.913   5.003
97408SOL    HW194063  11.972  12.850   5.075
97408SOL    HW294064  11.868  12.920   4.990
97409SOL     OW94065   9.526   1.092   6.382
97409SOL    HW194066   9.567   1.178   6.393
97409SOL    HW294067   9.432   1.110   6.380
97410SOL     OW94068   8.079   8.659   6.797
97410SOL    HW194069   8.040   8.746   6.787
97410SOL    HW294070   8.005   8.601   6.812
97411SOL     OW94071  10.765  12.606   7.317
97411SOL    HW194072  10.745  12.551   7.393
97411SOL    HW294073  10.853  12.639   7.334
97412SOL     OW94074  13.310   1.416  13.794
97412SOL    HW194075  13.224   1.374  13.797
97412SOL    HW294076  13.319   1.458  13.880
97413SOL     OW94077  14.179   6.930   2.618
97413SOL    HW194078  14.125   6.945   2.540
97413SOL    HW294079  14.230   6.852   2.597
97414SOL     OW94080  13.223   3.405   6.937
97414SOL    HW194081  13.164   3.374   6.868
97414SOL    HW294082  13.167   3.418   7.013
97415SOL     OW94083   2.767  13.452   7.311
97415SOL    HW194084   2.800  13.446   7.400
97415SOL    HW294085   2.791  13.369   7.270
97416SOL     OW94086   8.113   5.832   5.538
97416SOL    HW194087   8.179   5.773   5.574
97416SOL    HW294088   8.153   5.919   5.543
97417SOL     OW94089   5.752   7.708   1.348
97417SOL    HW194090   5.674   7.743   1.390
97417SOL    HW294091   5.822   7.719   1.412
97418SOL     OW94092   7.600   2.003   0.850
97418SOL    HW194093   7.641   1.965   0.772
97418SOL    HW294094   7.671   2.009   0.914
97419SOL     OW94095   5.273  11.920  11.251
97419SOL    HW194096   5.334  11.851  11.227
97419SOL    HW294097   5.234  11.947  11.168
97420SOL     OW94098   0.934   7.391   7.899
97420SOL    HW194099   0.954   7.342   7.819
97420SOL    HW294100   1.019   7.400   7.943
97421SOL     OW94101   1.634   1.948   1.634
97421SOL    HW194102   1.592   1.956   1.720
97421SOL    HW294103   1.718   1.993   1.644
97422SOL     OW94104  12.678   4.447   7.340
97422SOL    HW194105  12.594   4.480   7.309
97422SOL    HW294106  12.656   4.371   7.394
97423SOL     OW94107   8.646   0.671  12.742
97423SOL    HW194108   8.627   0.597  12.684
97423SOL    HW294109   8.679   0.630  12.822
97424SOL     OW94110  14.638   6.505   4.955
97424SOL    HW194111  14.580   6.569   4.914
97424SOL    HW294112  14.632   6.524   5.049
97425SOL     OW94113   2.061   5.265   1.982
97425SOL    HW194114   2.147   5.281   1.943
97425SOL    HW294115   2.081   5.224   2.067
97426SOL     OW94116   7.655   5.325  10.022
97426SOL    HW194117   7.672   5.419  10.026
97426SOL    HW294118   7.643   5.298  10.114
97427SOL     OW94119  13.423  10.923   3.591
97427SOL    HW194120  13.364  10.990   3.625
97427SOL    HW294121  13.407  10.922   3.497
97428SOL     OW94122   0.814  11.643   9.763
97428SOL    HW194123   0.821  11.560   9.715
97428SOL    HW294124   0.829  11.619   9.855
97429SOL     OW94125   6.275   7.302   5.622
97429SOL    HW194126   6.304   7.359   5.550
97429SOL    HW294127   6.245   7.222   5.579
97430SOL     OW94128   5.910   9.195   0.676
97430SOL    HW194129   5.885   9.110   0.712
97430SOL    HW294130   5.966   9.234   0.742
97431SOL     OW94131   3.158   6.143   1.893
97431SOL    HW194132   3.066   6.159   1.874
97431SOL    HW294133   3.162   6.132   1.988
97432SOL     OW94134   5.508   9.300  10.023
97432SOL    HW194135   5.503   9.261  10.110
97432SOL    HW294136   5.418   9.308   9.994
97433SOL     OW94137  13.367   5.891   8.544
97433SOL    HW194138  13.272   5.877   8.549
97433SOL    HW294139  13.405   5.809   8.574
97434SOL     OW94140   9.712  14.328   2.614
97434SOL    HW194141   9.807  14.319   2.603
97434SOL    HW294142   9.690  14.266   2.683
97435SOL     OW94143   6.076  14.801   2.033
97435SOL    HW194144   6.116  14.823   1.949
97435SOL    HW294145   6.146  14.814   2.097
97436SOL     OW94146  14.872   5.244  14.746
97436SOL    HW194147   0.051   5.316  14.729
97436SOL    HW294148  14.872   5.235  14.841
97437SOL     OW94149   3.297   8.816   5.920
97437SOL    HW194150   3.267   8.726   5.912
97437SOL    HW294151   3.301   8.848   5.829
97438SOL     OW94152  14.690  12.137  11.267
97438SOL    HW194153  14.692  12.190  11.187
97438SOL    HW294154  14.755  12.179  11.324
97439SOL     OW94155  10.682   2.855   5.135
97439SOL    HW194156  10.601   2.876   5.182
97439SOL    HW294157  10.681   2.912   5.058
97440SOL     OW94158   7.065   4.429  12.714
97440SOL    HW194159   7.118   4.427  12.794
97440SOL    HW294160   6.977   4.406  12.742
97441SOL     OW94161   0.842  10.221   6.174
97441SOL    HW194162   0.778  10.151   6.162
97441SOL    HW294163   0.877  10.238   6.087
97442SOL     OW94164  12.417  10.559  13.640
97442SOL    HW194165  12.426  10.580  13.733
97442SOL    HW294166  12.347  10.616  13.609
97443SOL     OW94167   9.710  11.587  14.781
97443SOL    HW194168   9.637  11.525  14.780
97443SOL    HW294169   9.688  11.647  14.852
97444SOL     OW94170   8.979   1.265   1.617
97444SOL    HW194171   8.951   1.283   1.527
97444SOL    HW294172   8.904   1.222   1.657
97445SOL     OW94173  12.050   4.387  10.010
97445SOL    HW194174  11.958   4.361  10.017
97445SOL    HW294175  12.048   4.480   9.986
97446SOL     OW94176  14.648   8.962   2.184
97446SOL    HW194177  14.578   8.931   2.241
97446SOL    HW294178  14.676   8.885   2.135
97447SOL     OW94179   2.382  12.151   8.848
97447SOL    HW194180   2.295  12.174   8.882
97447SOL    HW294181   2.374  12.162   8.753
97448SOL     OW94182   2.943   7.399  12.472
97448SOL    HW194183   2.963   7.457  12.399
97448SOL    HW294184   2.854   7.369  12.455
97449SOL     OW94185   3.910   5.578   1.161
97449SOL    HW194186   3.843   5.627   1.114
97449SOL    HW294187   3.949   5.642   1.221
97450SOL     OW94188   8.157   2.953   1.291
97450SOL    HW194189   8.231   2.992   1.337
97450SOL    HW294190   8.152   2.863   1.324
97451SOL     OW94191   8.647  12.521   7.627
97451SOL    HW194192   8.558  12.520   7.662
97451SOL    HW294193   8.651  12.599   7.572
97452SOL     OW94194   2.162   3.383  12.761
97452SOL    HW194195   2.251   3.417  12.768
97452SOL    HW294196   2.157   3.312  12.825
97453SOL     OW94197   9.944  13.248   9.080
97453SOL    HW194198   9.851  13.241   9.101
97453SOL    HW294199   9.947  13.244   8.984
97454SOL     OW94200  13.156   6.803   2.659
97454SOL    HW194201  13.137   6.896   2.655
97454SOL    HW294202  13.140   6.778   2.750
97455SOL     OW94203  13.794  12.624  13.014
97455SOL    HW194204  13.888  12.612  13.001
97455SOL    HW294205  13.762  12.654  12.929
97456SOL     OW94206   9.663   0.638  12.720
97456SOL    HW194207   9.757   0.648  12.733
97456SOL    HW294208   9.624   0.684  12.795
97457SOL     OW94209  12.901  10.165  14.141
97457SOL    HW194210  12.875  10.250  14.175
97457SOL    HW294211  12.831  10.141  14.081
97458SOL     OW94212  10.501   4.226   3.667
97458SOL    HW194213  10.518   4.240   3.574
97458SOL    HW294214  10.421   4.174   3.670
97459SOL     OW94215  10.301  11.975  10.431
97459SOL    HW194216  10.230  11.911  10.421
97459SOL    HW294217  10.278  12.045  10.370
97460SOL     OW94218  11.246   6.008   5.538
97460SOL    HW194219  11.248   6.041   5.628
97460SOL    HW294220  11.336   5.980   5.521
97461SOL     OW94221   1.678   9.664   5.856
97461SOL    HW194222   1.718   9.618   5.782
97461SOL    HW294223   1.592   9.622   5.866
97462SOL     OW94224  10.857   2.428   5.733
97462SOL    HW194225  10.844   2.333   5.737
97462SOL    HW294226  10.812   2.455   5.653
97463SOL     OW94227   4.795   4.554   5.072
97463SOL    HW194228   4.738   4.596   5.136
97463SOL    HW294229   4.831   4.626   5.021
97464SOL     OW94230  13.053   4.122  14.175
97464SOL    HW194231  13.126   4.061  14.184
97464SOL    HW294232  12.984   4.085  14.230
97465SOL     OW94233   0.480   3.600   9.728
97465SOL    HW194234   0.563   3.644   9.708
97465SOL    HW294235   0.505   3.523   9.778
97466SOL     OW94236  13.287   9.806  11.321
97466SOL    HW194237  13.277   9.723  11.366
97466SOL    HW294238  13.373   9.802  11.280
97467SOL     OW94239   7.886   5.164   3.668
97467SOL    HW194240   7.921   5.191   3.753
97467SOL    HW294241   7.792   5.179   3.674
97468SOL     OW94242   5.431   1.818   5.736
97468SOL    HW194243   5.512   1.781   5.772
97468SOL    HW294244   5.390   1.863   5.811
97469SOL     OW94245   7.654   4.352   8.700
97469SOL    HW194246   7.585   4.330   8.637
97469SOL    HW294247   7.734   4.322   8.658
97470SOL     OW94248  13.168  12.788   9.372
97470SOL    HW194249  13.097  12.739   9.330
97470SOL    HW294250  13.159  12.877   9.339
97471SOL     OW94251   7.478  10.296   9.232
97471SOL    HW194252   7.388  10.280   9.260
97471SOL    HW294253   7.502  10.218   9.182
97472SOL     OW94254   1.330   9.349   7.361
97472SOL    HW194255   1.295   9.292   7.293
97472SOL    HW294256   1.254   9.372   7.415
97473SOL     OW94257  11.810   3.524  13.615
97473SOL    HW194258  11.855   3.528  13.699
97473SOL    HW294259  11.724   3.487  13.634
97474SOL     OW94260   5.532   7.142   5.511
97474SOL    HW194261   5.561   7.102   5.429
97474SOL    HW294262   5.482   7.074   5.555
97475SOL     OW94263  12.686   9.507   5.314
97475SOL    HW194264  12.627   9.438   5.283
97475SOL    HW294265  12.630   9.584   5.325
97476SOL     OW94266  13.838  14.121   8.896
97476SOL    HW194267  13.774  14.155   8.959
97476SOL    HW294268  13.848  14.029   8.920
97477SOL     OW94269   2.624  13.333  12.432
97477SOL    HW194270   2.643  13.240  12.421
97477SOL    HW294271   2.652  13.352  12.522
97478SOL     OW94272   1.149   5.014   8.115
97478SOL    HW194273   1.216   4.967   8.165
97478SOL    HW294274   1.149   5.102   8.153
97479SOL     OW94275  13.805   1.689   4.100
97479SOL    HW194276  13.813   1.594   4.111
97479SOL    HW294277  13.814   1.725   4.188
97480SOL     OW94278   8.741  12.917   9.254
97480SOL    HW194279   8.729  12.901   9.161
97480SOL    HW294280   8.654  12.940   9.286
97481SOL     OW94281   7.193  12.322   3.574
97481SOL    HW194282   7.279  12.355   3.600
97481SOL    HW294283   7.210  12.233   3.541
97482SOL     OW94284   5.028  13.698  13.369
97482SOL    HW194285   4.950  13.653  13.403
97482SOL    HW294286   4.997  13.784  13.344
97483SOL     OW94287  10.884  12.516  12.229
97483SOL    HW194288  10.977  12.539  12.232
97483SOL    HW294289  10.838  12.600  12.236
97484SOL     OW94290  11.432   5.979  12.103
97484SOL    HW194291  11.372   6.010  12.171
97484SOL    HW294292  11.375   5.937  12.039
97485SOL     OW94293  14.321   3.653   1.373
97485SOL    HW194294  14.410   3.687   1.364
97485SOL    HW294295  14.328   3.585   1.440
97486SOL     OW94296   3.434   7.358   1.952
97486SOL    HW194297   3.497   7.352   1.880
97486SOL    HW294298   3.378   7.432   1.929
97487SOL     OW94299   7.982   0.424  11.957
97487SOL    HW194300   7.933   0.374  11.892
97487SOL    HW294301   8.074   0.412  11.933
97488SOL     OW94302  12.760  10.634   1.557
97488SOL    HW194303  12.795  10.549   1.583
97488SOL    HW294304  12.729  10.620   1.467
97489SOL     OW94305  10.878  13.833  14.629
97489SOL    HW194306  10.837  13.808  14.546
97489SOL    HW294307  10.867  13.928  14.634
97490SOL     OW94308  11.299   4.750  13.553
97490SOL    HW194309  11.356   4.803  13.498
97490SOL    HW294310  11.354   4.721  13.625
97491SOL     OW94311   2.367  14.136  10.900
97491SOL    HW194312   2.293  14.091  10.940
97491SOL    HW294313   2.417  14.066  10.858
97492SOL     OW94314   7.311   7.649   0.712
97492SOL    HW194315   7.351   7.735   0.721
97492SOL    HW294316   7.384   7.592   0.686
97493SOL     OW94317  11.115   1.143  13.437
97493SOL    HW194318  11.110   1.048  13.425
97493SOL    HW294319  11.136   1.176  13.349
97494SOL     OW94320   6.515   3.837  10.617
97494SOL    HW194321   6.461   3.767  10.582
97494SOL    HW294322   6.563   3.796  10.689
97495SOL     OW94323   1.668  11.174   5.405
97495SOL    HW194324   1.646  11.146   5.316
97495SOL    HW294325   1.737  11.239   5.394
97496SOL     OW94326  10.596   8.825  12.935
97496SOL    HW194327  10.669   8.798  12.879
97496SOL    HW294328  10.520   8.826  12.877
97497SOL     OW94329  12.313  12.759   5.481
97497SOL    HW194330  12.348  12.846   5.462
97497SOL    HW294331  12.348  12.737   5.567
97498SOL     OW94332   0.586   1.153   9.069
97498SOL    HW194333   0.586   1.092   9.142
97498SOL    HW294334   0.494   1.159   9.042
97499SOL     OW94335   9.905  14.098  13.945
97499SOL    HW194336   9.958  14.112  14.023
97499SOL    HW294337   9.818  14.131  13.968
97500SOL     OW94338   5.120  13.646   0.809
97500SOL    HW194339   5.115  13.729   0.857
97500SOL    HW294340   5.170  13.668   0.730
97501SOL     OW94341  13.465  12.588   0.686
97501SOL    HW194342  13.405  12.626   0.623
97501SOL    HW294343  13.418  12.592   0.769
97502SOL     OW94344   1.501  11.298   1.723
97502SOL    HW194345   1.517  11.285   1.629
97502SOL    HW294346   1.501  11.393   1.734
97503SOL     OW94347   8.627   9.218   5.069
97503SOL    HW194348   8.644   9.190   4.980
97503SOL    HW294349   8.535   9.196   5.084
97504SOL     OW94350   8.223  13.403  14.843
97504SOL    HW194351   8.218  13.315  14.805
97504SOL    HW294352   8.234  13.461  14.767
97505SOL     OW94353   6.504  14.843   0.740
97505SOL    HW194354   6.496   0.032   0.677
97505SOL    HW294355   6.597  14.843   0.765
97506SOL     OW94356  12.957  11.427   9.742
97506SOL    HW194357  13.042  11.421   9.785
97506SOL    HW294358  12.940  11.521   9.736
97507SOL     OW94359  10.654   2.448   9.384
97507SOL    HW194360  10.560   2.466   9.379
97507SOL    HW294361  10.660   2.371   9.441
97508SOL     OW94362   9.179   6.354  10.963
97508SOL    HW194363   9.256   6.353  10.908
97508SOL    HW294364   9.183   6.438  11.009
97509SOL     OW94365   2.565   5.364   5.364
97509SOL    HW194366   2.628   5.358   5.292
97509SOL    HW294367   2.608   5.420   5.429
97510SOL     OW94368   7.055  14.230   5.988
97510SOL    HW194369   7.025  14.317   6.016
97510SOL    HW294370   7.042  14.174   6.064
97511SOL     OW94371   9.734   1.001   1.033
97511SOL    HW194372   9.654   1.000   1.086
97511SOL    HW294373   9.742   0.911   1.002
97512SOL     OW94374   1.519   7.136  14.344
97512SOL    HW194375   1.577   7.183  14.285
97512SOL    HW294376   1.567   7.056  14.366
97513SOL     OW94377   5.563   5.689   1.901
97513SOL    HW194378   5.659   5.683   1.899
97513SOL    HW294379   5.533   5.602   1.875
97514SOL     OW94380   8.498   3.924   1.195
97514SOL    HW194381   8.438   3.857   1.226
97514SOL    HW294382   8.547   3.883   1.123
97515SOL     OW94383   0.689   9.433  13.360
97515SOL    HW194384   0.619   9.377  13.326
97515SOL    HW294385   0.768   9.378  13.356
97516SOL     OW94386   4.990  13.492  14.817
97516SOL    HW194387   4.946  13.431  14.757
97516SOL    HW294388   5.082  13.468  14.812
97517SOL     OW94389   4.073  11.798   6.830
97517SOL    HW194390   4.109  11.722   6.875
97517SOL    HW294391   4.053  11.766   6.742
97518SOL     OW94392   1.221   5.160   9.586
97518SOL    HW194393   1.299   5.123   9.628
97518SOL    HW294394   1.186   5.222   9.650
97519SOL     OW94395   3.724   3.341   0.104
97519SOL    HW194396   3.679   3.426   0.095
97519SOL    HW294397   3.812   3.358   0.072
97520SOL     OW94398   8.671   3.949  10.830
97520SOL    HW194399   8.750   3.904  10.800
97520SOL    HW294400   8.617   3.956  10.751
97521SOL     OW94401   6.907   7.324   5.027
97521SOL    HW194402   6.890   7.265   4.954
97521SOL    HW294403   6.987   7.371   5.002
97522SOL     OW94404   9.158   5.344   5.825
97522SOL    HW194405   9.189   5.307   5.743
97522SOL    HW294406   9.182   5.437   5.820
97523SOL     OW94407   5.057   1.677   3.532
97523SOL    HW194408   5.106   1.645   3.608
97523SOL    HW294409   5.110   1.647   3.457
97524SOL     OW94410  13.316   5.324   0.843
97524SOL    HW194411  13.264   5.404   0.834
97524SOL    HW294412  13.365   5.318   0.762
97525SOL     OW94413   4.605  14.234   2.519
97525SOL    HW194414   4.557  14.248   2.601
97525SOL    HW294415   4.590  14.315   2.469
97526SOL     OW94416  12.215   6.542   9.519
97526SOL    HW194417  12.185   6.524   9.429
97526SOL    HW294418  12.201   6.460   9.566
97527SOL     OW94419  14.611  13.197   4.098
97527SOL    HW194420  14.635  13.193   4.006
97527SOL    HW294421  14.694  13.191   4.145
97528SOL     OW94422   2.770   7.205   5.267
97528SOL    HW194423   2.804   7.134   5.214
97528SOL    HW294424   2.752   7.165   5.352
97529SOL     OW94425   7.581   3.585   8.916
97529SOL    HW194426   7.630   3.666   8.899
97529SOL    HW294427   7.627   3.518   8.864
97530SOL     OW94428   7.397  10.831  12.033
97530SOL    HW194429   7.383  10.925  12.036
97530SOL    HW294430   7.466  10.819  11.968
97531SOL     OW94431   1.751  12.115   7.732
97531SOL    HW194432   1.712  12.076   7.810
97531SOL    HW294433   1.735  12.050   7.662
97532SOL     OW94434  11.746   7.115   9.356
97532SOL    HW194435  11.760   7.060   9.433
97532SOL    HW294436  11.829   7.111   9.309
97533SOL     OW94437  13.818  13.197   3.084
97533SOL    HW194438  13.781  13.190   2.996
97533SOL    HW294439  13.783  13.120   3.130
97534SOL     OW94440   2.648  12.146   2.307
97534SOL    HW194441   2.666  12.060   2.269
97534SOL    HW294442   2.714  12.157   2.375
97535SOL     OW94443   1.449   6.970   7.786
97535SOL    HW194444   1.416   6.880   7.781
97535SOL    HW294445   1.541   6.963   7.762
97536SOL     OW94446  12.174   6.754   9.000
97536SOL    HW194447  12.210   6.771   8.912
97536SOL    HW294448  12.181   6.838   9.045
97537SOL     OW94449  11.516   6.530   8.838
97537SOL    HW194450  11.506   6.443   8.876
97537SOL    HW294451  11.554   6.583   8.908
97538SOL     OW94452  14.597   2.033   7.382
97538SOL    HW194453  14.506   2.042   7.356
97538SOL    HW294454  14.594   2.003   7.472
97539SOL     OW94455   4.793   9.811   6.681
97539SOL    HW194456   4.818   9.871   6.610
97539SOL    HW294457   4.717   9.852   6.722
97540SOL     OW94458   9.936  12.686   1.632
97540SOL    HW194459   9.937  12.640   1.548
97540SOL    HW294460   9.998  12.637   1.686
97541SOL     OW94461   7.333   7.448   5.824
97541SOL    HW194462   7.264   7.461   5.759
97541SOL    HW294463   7.294   7.391   5.890
97542SOL     OW94464   8.881   8.481   4.942
97542SOL    HW194465   8.851   8.390   4.954
97542SOL    HW294466   8.866   8.499   4.850
97543SOL     OW94467   2.586   5.328   8.327
97543SOL    HW194468   2.661   5.271   8.347
97543SOL    HW294469   2.540   5.337   8.411
97544SOL     OW94470   9.358   7.040   7.017
97544SOL    HW194471   9.323   7.097   6.948
97544SOL    HW294472   9.291   6.972   7.028
97545SOL     OW94473   3.233   7.158   2.488
97545SOL    HW194474   3.319   7.121   2.469
97545SOL    HW294475   3.229   7.162   2.584
97546SOL     OW94476   1.878   4.126   0.230
97546SOL    HW194477   1.945   4.099   0.293
97546SOL    HW294478   1.807   4.159   0.285
97547SOL     OW94479   4.584  14.576   0.441
97547SOL    HW194480   4.657  14.637   0.454
97547SOL    HW294481   4.621  14.505   0.389
97548SOL     OW94482   8.130  10.166  10.080
97548SOL    HW194483   8.206  10.109  10.083
97548SOL    HW294484   8.075  10.130  10.010
97549SOL     OW94485  14.029   7.517   3.160
97549SOL    HW194486  14.002   7.512   3.069
97549SOL    HW294487  14.018   7.609   3.184
97550SOL     OW94488   3.261   3.560  12.157
97550SOL    HW194489   3.246   3.486  12.099
97550SOL    HW294490   3.341   3.602  12.124
97551SOL     OW94491  13.951   5.475   2.331
97551SOL    HW194492  13.914   5.553   2.372
97551SOL    HW294493  13.922   5.402   2.387
97552SOL     OW94494   6.564   3.091   7.675
97552SOL    HW194495   6.504   3.131   7.611
97552SOL    HW294496   6.578   3.002   7.643
97553SOL     OW94497  14.318   7.220   9.028
97553SOL    HW194498  14.356   7.156   9.088
97553SOL    HW294499  14.247   7.261   9.078
97554SOL     OW94500  14.342   4.155  10.405
97554SOL    HW194501  14.270   4.206  10.441
97554SOL    HW294502  14.405   4.220  10.374
97555SOL     OW94503   8.170   6.510   0.211
97555SOL    HW194504   8.253   6.557   0.207
97555SOL    HW294505   8.104   6.578   0.219
97556SOL     OW94506  12.106   4.263   9.702
97556SOL    HW194507  12.134   4.214   9.779
97556SOL    HW294508  12.183   4.313   9.676
97557SOL     OW94509   0.127   5.647   0.554
97557SOL    HW194510   0.179   5.724   0.578
97557SOL    HW294511   0.085   5.621   0.636
97558SOL     OW94512  13.665  14.863   0.049
97558SOL    HW194513  13.636  14.800  14.865
97558SOL    HW294514  13.759  14.871   0.035
97559SOL     OW94515   5.297   7.380  12.133
97559SOL    HW194516   5.264   7.315  12.071
97559SOL    HW294517   5.218   7.418  12.172
97560SOL     OW94518   0.547   8.657   8.332
97560SOL    HW194519   0.616   8.682   8.393
97560SOL    HW294520   0.472   8.636   8.387
97561SOL     OW94521  13.222   4.622  14.053
97561SOL    HW194522  13.298   4.680  14.066
97561SOL    HW294523  13.195   4.638  13.963
97562SOL     OW94524   7.419   9.545   2.297
97562SOL    HW194525   7.353   9.556   2.365
97562SOL    HW294526   7.386   9.474   2.242
97563SOL     OW94527   3.722   0.414   5.666
97563SOL    HW194528   3.777   0.464   5.607
97563SOL    HW294529   3.666   0.361   5.608
97564SOL     OW94530  13.300   4.145  11.920
97564SOL    HW194531  13.295   4.049  11.920
97564SOL    HW294532  13.392   4.164  11.937
97565SOL     OW94533   8.221   1.354   7.003
97565SOL    HW194534   8.204   1.260   7.011
97565SOL    HW294535   8.248   1.382   7.091
97566SOL     OW94536   8.162   6.197  12.785
97566SOL    HW194537   8.256   6.208  12.775
97566SOL    HW294538   8.153   6.132  12.855
97567SOL     OW94539  12.416  10.177   4.734
97567SOL    HW194540  12.345  10.119   4.762
97567SOL    HW294541  12.489  10.157   4.793
97568SOL     OW94542   5.628   5.152   2.959
97568SOL    HW194543   5.699   5.163   3.021
97568SOL    HW294544   5.659   5.194   2.879
97569SOL     OW94545   6.532   0.005   7.376
97569SOL    HW194546   6.594   0.051   7.434
97569SOL    HW294547   6.447   0.042   7.399
97570SOL     OW94548   2.813   8.515  12.476
97570SOL    HW194549   2.822   8.549  12.387
97570SOL    HW294550   2.895   8.468  12.491
97571SOL     OW94551   1.326  11.334  14.094
97571SOL    HW194552   1.319  11.423  14.059
97571SOL    HW294553   1.308  11.343  14.188
97572SOL     OW94554   1.553   4.487  13.796
97572SOL    HW194555   1.637   4.490  13.842
97572SOL    HW294556   1.488   4.510  13.863
97573SOL     OW94557   8.717   1.952   1.812
97573SOL    HW194558   8.771   1.982   1.886
97573SOL    HW294559   8.767   1.977   1.735
97574SOL     OW94560   2.711  13.701   0.203
97574SOL    HW194561   2.652  13.662   0.139
97574SOL    HW294562   2.742  13.627   0.255
97575SOL     OW94563  12.199  13.130   5.829
97575SOL    HW194564  12.141  13.182   5.885
97575SOL    HW294565  12.281  13.179   5.828
97576SOL     OW94566   4.934   7.269   4.566
97576SOL    HW194567   4.950   7.179   4.537
97576SOL    HW294568   5.000   7.284   4.632
97577SOL     OW94569   8.161   2.026   1.084
97577SOL    HW194570   8.254   2.018   1.104
97577SOL    HW294571   8.156   2.020   0.988
97578SOL     OW94572  12.237  12.369  13.910
97578SOL    HW194573  12.264  12.461  13.919
97578SOL    HW294574  12.266  12.344  13.822
97579SOL     OW94575   7.404   8.247   5.056
97579SOL    HW194576   7.427   8.326   5.105
97579SOL    HW294577   7.470   8.183   5.082
97580SOL     OW94578   6.813   6.199   2.798
97580SOL    HW194579   6.870   6.275   2.790
97580SOL    HW294580   6.789   6.178   2.707
97581SOL     OW94581  11.432   0.211   2.636
97581SOL    HW194582  11.420   0.306   2.635
97581SOL    HW294583  11.410   0.182   2.548
97582SOL     OW94584  14.532  12.079   1.350
97582SOL    HW194585  14.565  11.989   1.350
97582SOL    HW294586  14.494  12.091   1.263
97583SOL     OW94587  14.670   1.741   7.972
97583SOL    HW194588  14.738   1.801   7.942
97583SOL    HW294589  14.610   1.733   7.898
97584SOL     OW94590   5.612  11.168  10.862
97584SOL    HW194591   5.603  11.262  10.843
97584SOL    HW294592   5.540  11.127  10.814
97585SOL     OW94593   4.162   0.771   0.658
97585SOL    HW194594   4.225   0.721   0.711
97585SOL    HW294595   4.209   0.851   0.636
97586SOL     OW94596   2.558  11.035  12.544
97586SOL    HW194597   2.543  11.054  12.637
97586SOL    HW294598   2.652  11.020  12.538
97587SOL     OW94599   9.251   9.324   1.581
97587SOL    HW194600   9.307   9.358   1.511
97587SOL    HW294601   9.181   9.278   1.536
97588SOL     OW94602   6.437   7.762  13.207
97588SOL    HW194603   6.347   7.786  13.187
97588SOL    HW294604   6.454   7.685  13.153
97589SOL     OW94605   3.600  14.850  10.135
97589SOL    HW194606   3.522  14.834  10.081
97589SOL    HW294607   3.672  14.856  10.072
97590SOL     OW94608   4.864   5.590   8.926
97590SOL    HW194609   4.796   5.614   8.864
97590SOL    HW294610   4.938   5.562   8.871
97591SOL     OW94611   6.363  12.004   0.124
97591SOL    HW194612   6.304  11.943   0.168
97591SOL    HW294613   6.443  11.954   0.110
97592SOL     OW94614  12.304   7.831   4.018
97592SOL    HW194615  12.392   7.863   4.038
97592SOL    HW294616  12.305   7.739   4.042
97593SOL     OW94617   9.310   5.459   3.624
97593SOL    HW194618   9.273   5.547   3.626
97593SOL    HW294619   9.353   5.452   3.539
97594SOL     OW94620   5.913   3.956  14.049
97594SOL    HW194621   5.954   3.875  14.077
97594SOL    HW294622   5.910   3.951  13.954
97595SOL     OW94623  11.939   0.134   0.492
97595SOL    HW194624  11.866   0.156   0.434
97595SOL    HW294625  11.945   0.209   0.552
97596SOL     OW94626   4.147   2.506  12.743
97596SOL    HW194627   4.109   2.419  12.735
97596SOL    HW294628   4.103   2.558  12.676
97597SOL     OW94629   8.898   1.071   8.566
97597SOL    HW194630   8.904   1.091   8.473
97597SOL    HW294631   8.953   0.993   8.577
97598SOL     OW94632   1.448   2.416  13.834
97598SOL    HW194633   1.452   2.493  13.777
97598SOL    HW294634   1.453   2.341  13.774
97599SOL     OW94635   1.433   4.173   1.240
97599SOL    HW194636   1.418   4.138   1.328
97599SOL    HW294637   1.458   4.096   1.188
97600SOL     OW94638   5.981  13.502  11.913
97600SOL    HW194639   5.953  13.414  11.939
97600SOL    HW294640   6.054  13.522  11.971
97601SOL     OW94641  13.197   6.061   3.466
97601SOL    HW194642  13.121   6.018   3.426
97601SOL    HW294643  13.175   6.065   3.559
97602SOL     OW94644  11.742   4.457   9.222
97602SOL    HW194645  11.755   4.541   9.265
97602SOL    HW294646  11.763   4.473   9.130
97603SOL     OW94647   8.654   3.525  10.958
97603SOL    HW194648   8.718   3.457  10.939
97603SOL    HW294649   8.575   3.497  10.913
97604SOL     OW94650   6.345  14.814   6.971
97604SOL    HW194651   6.378  14.842   6.886
97604SOL    HW294652   6.414  14.758   7.006
97605SOL     OW94653  12.130   3.572  13.343
97605SOL    HW194654  12.206   3.576  13.286
97605SOL    HW294655  12.155   3.622  13.421
97606SOL     OW94656  12.066   1.481  14.206
97606SOL    HW194657  12.144   1.429  14.223
97606SOL    HW294658  11.999   1.443  14.264
97607SOL     OW94659   5.462  11.363   3.892
97607SOL    HW194660   5.449  11.457   3.908
97607SOL    HW294661   5.400  11.343   3.821
97608SOL     OW94662   7.333  14.237   6.047
97608SOL    HW194663   7.238  14.243   6.031
97608SOL    HW294664   7.340  14.188   6.128
97609SOL     OW94665   0.481   1.708  10.624
97609SOL    HW194666   0.423   1.637  10.653
97609SOL    HW294667   0.422   1.779  10.600
97610SOL     OW94668  12.340  13.446   5.617
97610SOL    HW194669  12.323  13.419   5.707
97610SOL    HW294670  12.434  13.465   5.615
97611SOL     OW94671   4.023   9.164   9.775
97611SOL    HW194672   4.114   9.163   9.805
97611SOL    HW294673   4.019   9.098   9.706
97612SOL     OW94674  10.285   4.011   3.935
97612SOL    HW194675  10.367   4.002   3.983
97612SOL    HW294676  10.290   3.945   3.866
97613SOL     OW94677   1.800   8.882  14.565
97613SOL    HW194678   1.730   8.914  14.621
97613SOL    HW294679   1.756   8.848  14.487
97614SOL     OW94680  11.349  14.197   6.680
97614SOL    HW194681  11.371  14.225   6.591
97614SOL    HW294682  11.253  14.203   6.683
97615SOL     OW94683   1.161  11.078   8.410
97615SOL    HW194684   1.181  11.061   8.502
97615SOL    HW294685   1.076  11.120   8.412
97616SOL     OW94686   2.982   9.193   9.955
97616SOL    HW194687   2.968   9.100   9.933
97616SOL    HW294688   2.982   9.195  10.050
97617SOL     OW94689   4.430  13.281   0.568
97617SOL    HW194690   4.500  13.297   0.632
97617SOL    HW294691   4.459  13.327   0.489
97618SOL     OW94692   5.647  11.218   2.185
97618SOL    HW194693   5.737  11.211   2.216
97618SOL    HW294694   5.619  11.128   2.171
97619SOL     OW94695   0.806   8.691   7.196
97619SOL    HW194696   0.752   8.661   7.269
97619SOL    HW294697   0.768   8.650   7.118
97620SOL     OW94698  13.232   4.185   0.666
97620SOL    HW194699  13.304   4.189   0.728
97620SOL    HW294700  13.160   4.232   0.709
97621SOL     OW94701  13.371   9.941   9.000
97621SOL    HW194702  13.429   9.930   9.075
97621SOL    HW294703  13.405   9.880   8.935
97622SOL     OW94704  10.162  11.743   5.866
97622SOL    HW194705  10.077  11.713   5.899
97622SOL    HW294706  10.192  11.806   5.932
97623SOL     OW94707  12.793   7.752   2.836
97623SOL    HW194708  12.852   7.820   2.806
97623SOL    HW294709  12.749   7.721   2.757
97624SOL     OW94710   5.968   5.924   4.932
97624SOL    HW194711   5.874   5.934   4.922
97624SOL    HW294712   5.992   5.989   4.998
97625SOL     OW94713   5.630  11.579   5.760
97625SOL    HW194714   5.593  11.491   5.770
97625SOL    HW294715   5.669  11.580   5.673
97626SOL     OW94716  13.483   8.485   2.677
97626SOL    HW194717  13.409   8.465   2.733
97626SOL    HW294718  13.540   8.540   2.731
97627SOL     OW94719   0.398   9.734   9.760
97627SOL    HW194720   0.341   9.802   9.794
97627SOL    HW294721   0.402   9.751   9.666
97628SOL     OW94722   6.760  13.165   6.995
97628SOL    HW194723   6.759  13.087   7.051
97628SOL    HW294724   6.781  13.237   7.055
97629SOL     OW94725   0.066   0.717  14.347
97629SOL    HW194726   0.046   0.806  14.319
97629SOL    HW294727  14.864   0.672  14.347
97630SOL     OW94728   1.745  10.529   3.675
97630SOL    HW194729   1.805  10.453   3.676
97630SOL    HW294730   1.801  10.604   3.695
97631SOL     OW94731   9.553   5.726   1.719
97631SOL    HW194732   9.629   5.782   1.733
97631SOL    HW294733   9.589   5.639   1.701
97632SOL     OW94734   6.361   5.489   2.156
97632SOL    HW194735   6.303   5.485   2.080
97632SOL    HW294736   6.380   5.583   2.166
97633SOL     OW94737   0.486  11.383   9.923
97633SOL    HW194738   0.557  11.433   9.965
97633SOL    HW294739   0.480  11.420   9.835
97634SOL     OW94740  14.463   8.736   8.383
97634SOL    HW194741  14.415   8.665   8.339
97634SOL    HW294742  14.555   8.722   8.357
97635SOL     OW94743   4.477  12.380  13.561
97635SOL    HW194744   4.557  12.385  13.612
97635SOL    HW294745   4.407  12.406  13.621
97636SOL     OW94746   0.187   7.384  14.712
97636SOL    HW194747   0.096   7.365  14.690
97636SOL    HW294748   0.235   7.377  14.629
97637SOL     OW94749   9.018  12.726   3.743
97637SOL    HW194750   9.090  12.666   3.724
97637SOL    HW294751   8.972  12.737   3.660
97638SOL     OW94752  11.396   7.640   6.731
97638SOL    HW194753  11.416   7.593   6.650
97638SOL    HW294754  11.329   7.703   6.707
97639SOL     OW94755  13.574   3.049  14.268
97639SOL    HW194756  13.493   2.999  14.264
97639SOL    HW294757  13.610   3.046  14.180
97640SOL     OW94758  14.666   7.659   0.293
97640SOL    HW194759  14.693   7.668   0.384
97640SOL    HW294760  14.663   7.565   0.278
97641SOL     OW94761   4.632   6.054   3.770
97641SOL    HW194762   4.593   6.021   3.689
97641SOL    HW294763   4.608   6.147   3.772
97642SOL     OW94764   1.668   8.439  13.195
97642SOL    HW194765   1.588   8.400  13.160
97642SOL    HW294766   1.677   8.522  13.148
97643SOL     OW94767   1.084  14.510  10.202
97643SOL    HW194768   1.095  14.486  10.294
97643SOL    HW294769   0.991  14.532  10.194
97644SOL     OW94770   6.329  11.498   2.344
97644SOL    HW194771   6.260  11.490   2.410
97644SOL    HW294772   6.396  11.435   2.372
97645SOL     OW94773  10.187   6.616   9.554
97645SOL    HW194774  10.238   6.536   9.567
97645SOL    HW294775  10.188   6.630   9.459
97646SOL     OW94776   9.036   3.769   8.855
97646SOL    HW194777   8.986   3.717   8.792
97646SOL    HW294778   9.103   3.813   8.803
97647SOL     OW94779   7.336   6.114   4.952
97647SOL    HW194780   7.280   6.111   5.029
97647SOL    HW294781   7.300   6.186   4.899
97648SOL     OW94782  12.979   7.721  13.079
97648SOL    HW194783  12.920   7.664  13.129
97648SOL    HW294784  12.920   7.772  13.023
97649SOL     OW94785  14.297  12.925   5.124
97649SOL    HW194786  14.372  12.953   5.072
97649SOL    HW294787  14.334  12.865   5.190
97650SOL     OW94788  14.237   6.908   8.214
97650SOL    HW194789  14.166   6.845   8.210
97650SOL    HW294790  14.317   6.855   8.216
97651SOL     OW94791   2.945  11.753   8.206
97651SOL    HW194792   2.879  11.779   8.270
97651SOL    HW294793   3.024  11.738   8.258
97652SOL     OW94794  13.014  10.937  13.390
97652SOL    HW194795  12.942  10.893  13.435
97652SOL    HW294796  13.052  10.995  13.456
97653SOL     OW94797   0.267   1.797   3.774
97653SOL    HW194798   0.261   1.720   3.717
97653SOL    HW294799   0.180   1.805   3.812
97654SOL     OW94800   7.015  10.106   3.059
97654SOL    HW194801   7.089  10.045   3.052
97654SOL    HW294802   7.054  10.187   3.090
97655SOL     OW94803   0.631  13.032   0.841
97655SOL    HW194804   0.636  13.126   0.858
97655SOL    HW294805   0.669  13.021   0.754
97656SOL     OW94806  10.704   5.657   0.186
97656SOL    HW194807  10.768   5.604   0.233
97656SOL    HW294808  10.633   5.671   0.248
97657SOL     OW94809   1.521   8.607   8.499
97657SOL    HW194810   1.591   8.669   8.478
97657SOL    HW294811   1.567   8.527   8.526
97658SOL     OW94812  13.221   3.257   5.165
97658SOL    HW194813  13.213   3.210   5.082
97658SOL    HW294814  13.161   3.212   5.224
97659SOL     OW94815   9.670  12.000   3.583
97659SOL    HW194816   9.587  11.956   3.566
97659SOL    HW294817   9.734  11.950   3.532
97660SOL     OW94818  10.749   6.173   5.548
97660SOL    HW194819  10.730   6.189   5.456
97660SOL    HW294820  10.753   6.260   5.588
97661SOL     OW94821   7.936   4.216  14.294
97661SOL    HW194822   7.895   4.165  14.225
97661SOL    HW294823   8.013   4.256  14.253
97662SOL     OW94824   3.811  10.599   1.420
97662SOL    HW194825   3.893  10.549   1.415
97662SOL    HW294826   3.776  10.597   1.331
97663SOL     OW94827   4.084  12.465  13.126
97663SOL    HW194828   4.129  12.535  13.174
97663SOL    HW294829   4.078  12.393  13.188
97664SOL     OW94830   9.530  10.197   9.507
97664SOL    HW194831   9.524  10.292   9.491
97664SOL    HW294832   9.447  10.162   9.475
97665SOL     OW94833   7.227   8.645   1.537
97665SOL    HW194834   7.186   8.580   1.594
97665SOL    HW294835   7.154   8.698   1.505
97666SOL     OW94836   2.352   4.399  14.522
97666SOL    HW194837   2.327   4.319  14.568
97666SOL    HW294838   2.388   4.456  14.591
97667SOL     OW94839  11.441   1.532  14.533
97667SOL    HW194840  11.362   1.548  14.583
97667SOL    HW294841  11.507   1.589  14.572
97668SOL     OW94842  11.015  13.878   6.098
97668SOL    HW194843  11.070  13.938   6.148
97668SOL    HW294844  11.000  13.804   6.157
97669SOL     OW94845   4.782  10.035  13.077
97669SOL    HW194846   4.869  10.040  13.037
97669SOL    HW294847   4.799  10.007  13.167
97670SOL     OW94848   9.194   0.056   2.843
97670SOL    HW194849   9.275   0.079   2.798
97670SOL    HW294850   9.125   0.077   2.781
97671SOL     OW94851  10.785   8.843  10.562
97671SOL    HW194852  10.719   8.821  10.496
97671SOL    HW294853  10.865   8.857  10.512
97672SOL     OW94854  13.508   4.385  11.590
97672SOL    HW194855  13.555   4.303  11.608
97672SOL    HW294856  13.455   4.400  11.668
97673SOL     OW94857   1.900  11.701  11.761
97673SOL    HW194858   1.948  11.778  11.791
97673SOL    HW294859   1.915  11.698  11.667
97674SOL     OW94860   2.923   4.693  10.769
97674SOL    HW194861   2.989   4.640  10.723
97674SOL    HW294862   2.845   4.689  10.713
97675SOL     OW94863   1.295   4.389   0.753
97675SOL    HW194864   1.256   4.311   0.793
97675SOL    HW294865   1.220   4.446   0.736
97676SOL     OW94866   4.916  10.342   7.247
97676SOL    HW194867   4.967  10.353   7.328
97676SOL    HW294868   4.977  10.362   7.177
97677SOL     OW94869   6.776   1.428   3.725
97677SOL    HW194870   6.836   1.372   3.775
97677SOL    HW294871   6.712   1.367   3.688
97678SOL     OW94872   9.878   3.658   0.318
97678SOL    HW194873   9.807   3.604   0.353
97678SOL    HW294874   9.945   3.594   0.293
97679SOL     OW94875   9.552   2.776   2.616
97679SOL    HW194876   9.538   2.681   2.614
97679SOL    HW294877   9.613   2.792   2.545
97680SOL     OW94878   2.623  10.910   2.121
97680SOL    HW194879   2.603  10.868   2.204
97680SOL    HW294880   2.706  10.956   2.137
97681SOL     OW94881   6.347   7.591   3.457
97681SOL    HW194882   6.382   7.580   3.368
97681SOL    HW294883   6.288   7.666   3.450
97682SOL     OW94884  14.044   2.954   1.676
97682SOL    HW194885  14.007   2.916   1.756
97682SOL    HW294886  13.968   2.979   1.624
97683SOL     OW94887   3.427  13.310   7.913
97683SOL    HW194888   3.426  13.380   7.847
97683SOL    HW294889   3.435  13.230   7.862
97684SOL     OW94890   0.347  12.855   2.282
97684SOL    HW194891   0.422  12.806   2.316
97684SOL    HW294892   0.293  12.788   2.241
97685SOL     OW94893   7.162   8.560   8.200
97685SOL    HW194894   7.096   8.534   8.136
97685SOL    HW294895   7.237   8.503   8.182
97686SOL     OW94896   0.681  12.252   4.683
97686SOL    HW194897   0.735  12.173   4.687
97686SOL    HW294898   0.691  12.293   4.769
97687SOL     OW94899  13.270  11.024   0.941
97687SOL    HW194900  13.303  11.079   1.013
97687SOL    HW294901  13.175  11.034   0.945
97688SOL     OW94902  11.169   3.628  14.603
97688SOL    HW194903  11.240   3.638  14.539
97688SOL    HW294904  11.111   3.563  14.565
97689SOL     OW94905   9.183  12.356   0.731
97689SOL    HW194906   9.093  12.388   0.723
97689SOL    HW294907   9.190  12.285   0.667
97690SOL     OW94908   6.382   7.276   2.080
97690SOL    HW194909   6.348   7.188   2.092
97690SOL    HW294910   6.402   7.281   1.986
97691SOL     OW94911   6.823  13.225   1.108
97691SOL    HW194912   6.820  13.131   1.093
97691SOL    HW294913   6.901  13.255   1.062
97692SOL     OW94914   2.732  13.314   3.127
97692SOL    HW194915   2.661  13.379   3.125
97692SOL    HW294916   2.792  13.347   3.194
97693SOL     OW94917   3.900  12.001   6.558
97693SOL    HW194918   3.868  12.078   6.605
97693SOL    HW294919   3.880  11.927   6.616
97694SOL     OW94920  11.770   2.665   5.844
97694SOL    HW194921  11.846   2.654   5.901
97694SOL    HW294922  11.796   2.731   5.780
97695SOL     OW94923  11.557  12.171   9.735
97695SOL    HW194924  11.560  12.110   9.661
97695SOL    HW294925  11.567  12.115   9.812
97696SOL     OW94926   0.108   0.663  12.648
97696SOL    HW194927   0.035   0.610  12.679
97696SOL    HW294928   0.114   0.735  12.710
97697SOL     OW94929   6.287   1.553  13.506
97697SOL    HW194930   6.376   1.540  13.539
97697SOL    HW294931   6.236   1.578  13.583
97698SOL     OW94932   2.572   1.368   3.033
97698SOL    HW194933   2.643   1.332   2.981
97698SOL    HW294934   2.497   1.370   2.974
97699SOL     OW94935  11.873   5.111   3.060
97699SOL    HW194936  11.793   5.164   3.058
97699SOL    HW294937  11.843   5.024   3.088
97700SOL     OW94938   0.292   3.383   8.137
97700SOL    HW194939   0.372   3.394   8.189
97700SOL    HW294940   0.303   3.443   8.064
97701SOL     OW94941   0.424   8.333   1.459
97701SOL    HW194942   0.343   8.384   1.469
97701SOL    HW294943   0.471   8.375   1.388
97702SOL     OW94944  11.189   8.946   0.170
97702SOL    HW194945  11.284   8.930   0.174
97702SOL    HW294946  11.150   8.859   0.173
97703SOL     OW94947   9.330  11.659   0.198
97703SOL    HW194948   9.268  11.675   0.127
97703SOL    HW294949   9.324  11.565   0.215
97704SOL     OW94950   0.298  10.629   9.748
97704SOL    HW194951   0.256  10.684   9.682
97704SOL    HW294952   0.260  10.659   9.831
97705SOL     OW94953  14.569  13.534   1.716
97705SOL    HW194954  14.560  13.441   1.695
97705SOL    HW294955  14.617  13.570   1.642
97706SOL     OW94956   6.046  11.619   3.628
97706SOL    HW194957   5.963  11.586   3.594
97706SOL    HW294958   6.026  11.707   3.658
97707SOL     OW94959  11.457   9.312  12.971
97707SOL    HW194960  11.383   9.361  13.006
97707SOL    HW294961  11.426   9.221  12.969
97708SOL     OW94962   9.734  11.762   9.947
97708SOL    HW194963   9.639  11.756   9.949
97708SOL    HW294964   9.753  11.853   9.967
97709SOL     OW94965   3.244  10.287  10.990
97709SOL    HW194966   3.171  10.225  10.993
97709SOL    HW294967   3.207  10.364  10.947
97710SOL     OW94968   8.907   6.009   9.215
97710SOL    HW194969   8.909   5.992   9.310
97710SOL    HW294970   8.889   5.924   9.176
97711SOL     OW94971  14.821   3.846   5.324
97711SOL    HW194972  14.833   3.937   5.296
97711SOL    HW294973   0.018   3.825   5.374
97712SOL     OW94974   7.243   8.780  12.840
97712SOL    HW194975   7.253   8.690  12.810
97712SOL    HW294976   7.281   8.780  12.928
97713SOL     OW94977   8.631   4.757   1.093
97713SOL    HW194978   8.648   4.758   1.187
97713SOL    HW294979   8.536   4.762   1.086
97714SOL     OW94980   5.504   9.851  10.510
97714SOL    HW194981   5.429   9.793  10.509
97714SOL    HW294982   5.480   9.920  10.572
97715SOL     OW94983   5.848   5.736   5.739
97715SOL    HW194984   5.878   5.699   5.823
97715SOL    HW294985   5.910   5.703   5.675
97716SOL     OW94986  13.117   4.929   8.558
97716SOL    HW194987  13.113   4.997   8.490
97716SOL    HW294988  13.063   4.963   8.629
97717SOL     OW94989   2.262   9.765  10.248
97717SOL    HW194990   2.315   9.843  10.234
97717SOL    HW294991   2.221   9.778  10.333
97718SOL     OW94992  10.862   5.283   3.680
97718SOL    HW194993  10.799   5.211   3.680
97718SOL    HW294994  10.897   5.285   3.590
97719SOL     OW94995  12.433  13.963   2.074
97719SOL    HW194996  12.363  13.907   2.040
97719SOL    HW294997  12.389  14.044   2.099
97720SOL     OW94998   9.063   5.022  11.332
97720SOL    HW194999   9.083   4.929  11.320
97720SOL    HW295000   9.108   5.066  11.259
97721SOL     OW95001   9.596  13.982   2.247
97721SOL    HW195002   9.536  14.044   2.206
97721SOL    HW295003   9.571  13.897   2.212
97722SOL     OW95004   7.514  12.326  11.488
97722SOL    HW195005   7.519  12.422  11.484
97722SOL    HW295006   7.529  12.305  11.580
97723SOL     OW95007   2.994   4.568  12.132
97723SOL    HW195008   3.085   4.588  12.154
97723SOL    HW295009   2.945   4.642  12.168
97724SOL     OW95010   8.372   8.327  10.808
97724SOL    HW195011   8.298   8.373  10.847
97724SOL    HW295012   8.423   8.396  10.765
97725SOL     OW95013   7.198   9.364  12.515
97725SOL    HW195014   7.238   9.448  12.535
97725SOL    HW295015   7.263   9.299  12.540
97726SOL     OW95016   2.647  14.478   7.500
97726SOL    HW195017   2.656  14.455   7.407
97726SOL    HW295018   2.661  14.396   7.547
97727SOL     OW95019   2.651   0.553   2.212
97727SOL    HW195020   2.638   0.530   2.120
97727SOL    HW295021   2.601   0.633   2.224
97728SOL     OW95022   2.092  13.515   7.730
97728SOL    HW195023   2.088  13.482   7.820
97728SOL    HW295024   2.090  13.435   7.676
97729SOL     OW95025   2.845   5.393   5.964
97729SOL    HW195026   2.897   5.473   5.950
97729SOL    HW295027   2.900   5.339   6.022
97730SOL     OW95028  10.226  11.107   3.825
97730SOL    HW195029  10.210  11.013   3.832
97730SOL    HW295030  10.266  11.118   3.739
97731SOL     OW95031  12.678  12.215   3.642
97731SOL    HW195032  12.615  12.269   3.594
97731SOL    HW295033  12.711  12.153   3.577
97732SOL     OW95034   5.937  13.059   6.236
97732SOL    HW195035   5.970  12.969   6.244
97732SOL    HW295036   6.011  13.114   6.262
97733SOL     OW95037  11.634   9.719  12.916
97733SOL    HW195038  11.588   9.789  12.960
97733SOL    HW295039  11.580   9.641  12.931
97734SOL     OW95040   5.628   1.389   0.380
97734SOL    HW195041   5.575   1.466   0.362
97734SOL    HW295042   5.642   1.348   0.295
97735SOL     OW95043   6.462  10.248  11.345
97735SOL    HW195044   6.520  10.273  11.417
97735SOL    HW295045   6.381  10.296  11.362
97736SOL     OW95046   5.001  13.455   8.109
97736SOL    HW195047   4.944  13.436   8.183
97736SOL    HW295048   4.982  13.545   8.085
97737SOL     OW95049   5.078   6.448   1.315
97737SOL    HW195050   5.017   6.401   1.372
97737SOL    HW295051   5.023   6.508   1.265
97738SOL     OW95052   1.493   5.432   3.066
97738SOL    HW195053   1.418   5.458   3.013
97738SOL    HW295054   1.522   5.513   3.108
97739SOL     OW95055  11.327   7.517   2.500
97739SOL    HW195056  11.277   7.562   2.569
97739SOL    HW295057  11.269   7.447   2.470
97740SOL     OW95058  13.445  14.530  12.270
97740SOL    HW195059  13.371  14.514  12.211
97740SOL    HW295060  13.522  14.506  12.219
97741SOL     OW95061  14.248  11.160   5.095
97741SOL    HW195062  14.304  11.232   5.065
97741SOL    HW295063  14.251  11.166   5.190
97742SOL     OW95064   8.372   1.391   1.697
97742SOL    HW195065   8.313   1.391   1.772
97742SOL    HW295066   8.339   1.462   1.641
97743SOL     OW95067   4.944   8.146   9.192
97743SOL    HW195068   4.971   8.054   9.194
97743SOL    HW295069   4.857   8.146   9.234
97744SOL     OW95070   9.035   0.430  12.948
97744SOL    HW195071   9.035   0.465  12.858
97744SOL    HW295072   8.944   0.408  12.965
97745SOL     OW95073   7.711  11.853   4.102
97745SOL    HW195074   7.742  11.903   4.178
97745SOL    HW295075   7.789  11.808   4.070
97746SOL     OW95076  11.522   3.218   9.928
97746SOL    HW195077  11.538   3.267   9.847
97746SOL    HW295078  11.528   3.283   9.998
97747SOL     OW95079   6.958   1.141  10.036
97747SOL    HW195080   6.994   1.206  10.097
97747SOL    HW295081   6.885   1.186   9.993
97748SOL     OW95082  14.001  10.250  11.868
97748SOL    HW195083  13.955  10.296  11.798
97748SOL    HW295084  13.938  10.186  11.900
97749SOL     OW95085   7.132  13.789   9.364
97749SOL    HW195086   7.208  13.766   9.416
97749SOL    HW295087   7.149  13.878   9.334
97750SOL     OW95088   8.883   2.824   3.011
97750SOL    HW195089   8.872   2.843   2.918
97750SOL    HW295090   8.906   2.909   3.049
97751SOL     OW95091   6.187  11.630   4.357
97751SOL    HW195092   6.264  11.679   4.327
97751SOL    HW295093   6.189  11.638   4.452
97752SOL     OW95094   8.867  11.077  12.728
97752SOL    HW195095   8.886  11.140  12.659
97752SOL    HW295096   8.887  10.992  12.688
97753SOL     OW95097   3.694   0.241   6.695
97753SOL    HW195098   3.746   0.167   6.725
97753SOL    HW295099   3.703   0.240   6.600
97754SOL     OW95100   1.514   5.069   9.105
97754SOL    HW195101   1.457   5.071   9.028
97754SOL    HW295102   1.474   5.130   9.167
97755SOL     OW95103  12.107   5.072   2.897
97755SOL    HW195104  12.169   5.136   2.929
97755SOL    HW295105  12.028   5.086   2.950
97756SOL     OW95106  12.423  13.180   8.932
97756SOL    HW195107  12.446  13.092   8.902
97756SOL    HW295108  12.508  13.222   8.950
97757SOL     OW95109   8.556   5.077   5.874
97757SOL    HW195110   8.611   5.018   5.926
97757SOL    HW295111   8.607   5.158   5.868
97758SOL     OW95112   6.421   3.045  13.114
97758SOL    HW195113   6.501   3.041  13.167
97758SOL    HW295114   6.451   3.076  13.029
97759SOL     OW95115   5.119   9.933   1.117
97759SOL    HW195116   5.029   9.964   1.126
97759SOL    HW295117   5.166  10.006   1.079
97760SOL     OW95118   4.876   2.509   5.237
97760SOL    HW195119   4.784   2.530   5.220
97760SOL    HW295120   4.873   2.426   5.284
97761SOL     OW95121   0.636  12.424  11.740
97761SOL    HW195122   0.699  12.358  11.712
97761SOL    HW295123   0.572  12.376  11.792
97762SOL     OW95124   6.884   2.850   4.846
97762SOL    HW195125   6.823   2.885   4.781
97762SOL    HW295126   6.830   2.797   4.904
97763SOL     OW95127   9.450   3.187  13.404
97763SOL    HW195128   9.491   3.235  13.476
97763SOL    HW295129   9.433   3.253  13.337
97764SOL     OW95130  10.162   5.738   3.758
97764SOL    HW195131  10.097   5.692   3.812
97764SOL    HW295132  10.220   5.670   3.726
97765SOL     OW95133   5.437   5.675  12.850
97765SOL    HW195134   5.425   5.585  12.880
97765SOL    HW295135   5.507   5.670  12.786
97766SOL     OW95136   1.965   9.686   0.507
97766SOL    HW195137   1.941   9.639   0.427
97766SOL    HW295138   2.047   9.730   0.486
97767SOL     OW95139  10.706   6.185   2.307
97767SOL    HW195140  10.679   6.274   2.330
97767SOL    HW295141  10.780   6.197   2.247
97768SOL     OW95142   0.323  10.420  10.846
97768SOL    HW195143   0.305  10.351  10.781
97768SOL    HW295144   0.418  10.424  10.850
97769SOL     OW95145   5.863   8.694   2.579
97769SOL    HW195146   5.826   8.667   2.495
97769SOL    HW295147   5.898   8.614   2.617
97770SOL     OW95148   0.528   6.828   8.607
97770SOL    HW195149   0.586   6.793   8.674
97770SOL    HW295150   0.575   6.904   8.572
97771SOL     OW95151   6.978   1.617   5.898
97771SOL    HW195152   6.910   1.664   5.848
97771SOL    HW295153   6.958   1.525   5.885
97772SOL     OW95154  12.560  12.209   8.702
97772SOL    HW195155  12.479  12.229   8.654
97772SOL    HW295156  12.530  12.175   8.786
97773SOL     OW95157  10.405   9.589   2.825
97773SOL    HW195158  10.464   9.664   2.829
97773SOL    HW295159  10.370   9.591   2.736
97774SOL     OW95160   7.493   3.393   1.863
97774SOL    HW195161   7.550   3.421   1.934
97774SOL    HW295162   7.553   3.369   1.793
97775SOL     OW95163   8.458   8.693  13.542
97775SOL    HW195164   8.547   8.669  13.570
97775SOL    HW295165   8.432   8.623  13.482
97776SOL     OW95166  13.762   5.356   9.665
97776SOL    HW195167  13.817   5.393   9.733
97776SOL    HW295168  13.684   5.324   9.711
97777SOL     OW95169   2.061   0.891  14.804
97777SOL    HW195170   2.053   0.924  14.715
97777SOL    HW295171   2.144   0.929  14.836
97778SOL     OW95172  13.688  12.725  14.479
97778SOL    HW195173  13.669  12.636  14.507
97778SOL    HW295174  13.667  12.726  14.385
97779SOL     OW95175   3.848   3.175  12.669
97779SOL    HW195176   3.776   3.137  12.720
97779SOL    HW295177   3.927   3.146  12.714
97780SOL     OW95178   8.461  13.879  14.035
97780SOL    HW195179   8.552  13.849  14.041
97780SOL    HW295180   8.458  13.959  14.087
97781SOL     OW95181   9.451   8.934   4.635
97781SOL    HW195182   9.409   9.014   4.666
97781SOL    HW295183   9.379   8.871   4.627
97782SOL     OW95184   4.020   2.572   9.741
97782SOL    HW195185   3.954   2.515   9.701
97782SOL    HW295186   3.988   2.660   9.726
97783SOL     OW95187   0.539   6.040   4.013
97783SOL    HW195188   0.498   6.009   4.093
97783SOL    HW295189   0.526   6.135   4.015
97784SOL     OW95190   3.667   5.933  12.885
97784SOL    HW195191   3.626   5.852  12.857
97784SOL    HW295192   3.646   5.939  12.979
97785SOL     OW95193   5.405   8.628   5.680
97785SOL    HW195194   5.313   8.608   5.658
97785SOL    HW295195   5.403   8.720   5.707
97786SOL     OW95196  11.347   4.148  14.710
97786SOL    HW195197  11.278   4.173  14.771
97786SOL    HW295198  11.327   4.196  14.630
97787SOL     OW95199  13.944   9.648   3.809
97787SOL    HW195200  13.934   9.577   3.746
97787SOL    HW295201  14.023   9.694   3.782
97788SOL     OW95202   5.091   7.333   0.697
97788SOL    HW195203   5.099   7.288   0.612
97788SOL    HW295204   5.100   7.263   0.762
97789SOL     OW95205   7.741   2.628   2.392
97789SOL    HW195206   7.835   2.608   2.388
97789SOL    HW295207   7.730   2.669   2.478
97790SOL     OW95208  12.627   9.349  14.021
97790SOL    HW195209  12.636   9.428  13.969
97790SOL    HW295210  12.690   9.360  14.092
97791SOL     OW95211   6.841   6.874   6.712
97791SOL    HW195212   6.928   6.890   6.677
97791SOL    HW295213   6.783   6.881   6.637
97792SOL     OW95214   5.791   4.886   0.287
97792SOL    HW195215   5.853   4.816   0.269
97792SOL    HW295216   5.713   4.841   0.320
97793SOL     OW95217  12.932   2.983   6.391
97793SOL    HW195218  12.962   3.044   6.323
97793SOL    HW295219  12.840   2.967   6.370
97794SOL     OW95220   7.086   7.354   5.958
97794SOL    HW195221   7.072   7.291   5.887
97794SOL    HW295222   7.046   7.435   5.926
97795SOL     OW95223  11.356   3.143  11.758
97795SOL    HW195224  11.316   3.167  11.674
97795SOL    HW295225  11.413   3.217  11.779
97796SOL     OW95226  12.274   9.512  10.929
97796SOL    HW195227  12.302   9.597  10.961
97796SOL    HW295228  12.286   9.516  10.834
97797SOL     OW95229   3.641   5.018  11.829
97797SOL    HW195230   3.659   4.953  11.761
97797SOL    HW295231   3.547   5.036  11.821
97798SOL     OW95232   3.218   0.741   1.406
97798SOL    HW195233   3.172   0.660   1.427
97798SOL    HW295234   3.174   0.808   1.459
97799SOL     OW95235   8.773  13.972  10.601
97799SOL    HW195236   8.756  13.970  10.695
97799SOL    HW295237   8.805  14.061  10.584
97800SOL     OW95238   9.686   7.360   8.747
97800SOL    HW195239   9.665   7.353   8.840
97800SOL    HW295240   9.726   7.446   8.738
97801SOL     OW95241   9.106   0.100  10.181
97801SOL    HW195242   9.120   0.019  10.229
97801SOL    HW295243   9.028   0.138  10.222
97802SOL     OW95244   6.822  13.570   0.531
97802SOL    HW195245   6.733  13.599   0.512
97802SOL    HW295246   6.816  13.526   0.615
97803SOL     OW95247  11.344   5.357   3.469
97803SOL    HW195248  11.338   5.335   3.562
97803SOL    HW295249  11.433   5.332   3.444
97804SOL     OW95250   9.359   6.333   0.011
97804SOL    HW195251   9.321   6.257  14.849
97804SOL    HW295252   9.309   6.407  14.861
97805SOL     OW95253  13.587   2.492  10.951
97805SOL    HW195254  13.495   2.468  10.964
97805SOL    HW295255  13.601   2.566  11.010
97806SOL     OW95256  13.987   8.281   8.491
97806SOL    HW195257  13.983   8.228   8.412
97806SOL    HW295258  13.917   8.345   8.482
97807SOL     OW95259   6.190   6.244   8.588
97807SOL    HW195260   6.204   6.191   8.510
97807SOL    HW295261   6.231   6.328   8.569
97808SOL     OW95262   5.937   7.296   0.290
97808SOL    HW195263   5.922   7.362   0.222
97808SOL    HW295264   5.903   7.214   0.252
97809SOL     OW95265  10.710  11.124  10.267
97809SOL    HW195266  10.678  11.183  10.336
97809SOL    HW295267  10.771  11.066  10.312
97810SOL     OW95268   3.791  10.279   0.819
97810SOL    HW195269   3.735  10.336   0.872
97810SOL    HW295270   3.766  10.297   0.729
97811SOL     OW95271   0.370  10.969   9.420
97811SOL    HW195272   0.340  10.975   9.329
97811SOL    HW295273   0.452  10.919   9.416
97812SOL     OW95274   0.636  12.130  14.733
97812SOL    HW195275   0.672  12.102  14.817
97812SOL    HW295276   0.672  12.067  14.670
97813SOL     OW95277   8.422  11.591   7.276
97813SOL    HW195278   8.497  11.651   7.274
97813SOL    HW295279   8.351  11.643   7.313
97814SOL     OW95280   6.474   1.356  12.213
97814SOL    HW195281   6.421   1.360  12.292
97814SOL    HW295282   6.465   1.266  12.183
97815SOL     OW95283  13.001   6.365   8.152
97815SOL    HW195284  12.933   6.345   8.216
97815SOL    HW295285  12.984   6.456   8.127
97816SOL     OW95286  12.660   7.806   4.796
97816SOL    HW195287  12.644   7.783   4.887
97816SOL    HW295288  12.573   7.820   4.759
97817SOL     OW95289   5.580   5.569   5.787
97817SOL    HW195290   5.673   5.590   5.802
97817SOL    HW295291   5.582   5.495   5.726
97818SOL     OW95292   2.850   9.187  13.944
97818SOL    HW195293   2.773   9.223  13.901
97818SOL    HW295294   2.876   9.254  14.007
97819SOL     OW95295  11.742   3.765   2.580
97819SOL    HW195296  11.754   3.673   2.604
97819SOL    HW295297  11.705   3.805   2.659
97820SOL     OW95298   2.503   5.534   0.529
97820SOL    HW195299   2.501   5.525   0.624
97820SOL    HW295300   2.541   5.452   0.498
97821SOL     OW95301   6.956   7.105   0.847
97821SOL    HW195302   7.035   7.106   0.794
97821SOL    HW295303   6.979   7.055   0.924
97822SOL     OW95304   9.649   5.958   8.406
97822SOL    HW195305   9.648   5.960   8.310
97822SOL    HW295306   9.624   6.047   8.432
97823SOL     OW95307  10.630   3.320   9.224
97823SOL    HW195308  10.595   3.283   9.305
97823SOL    HW295309  10.692   3.255   9.192
97824SOL     OW95310  10.338   3.409  10.737
97824SOL    HW195311  10.311   3.471  10.670
97824SOL    HW295312  10.304   3.446  10.819
97825SOL     OW95313   8.200   9.948  14.817
97825SOL    HW195314   8.232  10.019  14.872
97825SOL    HW295315   8.107   9.941  14.838
97826SOL     OW95316   3.287   4.716   6.555
97826SOL    HW195317   3.371   4.671   6.550
97826SOL    HW295318   3.245   4.680   6.634
97827SOL     OW95319   6.978   5.220   1.408
97827SOL    HW195320   6.922   5.155   1.451
97827SOL    HW295321   6.961   5.208   1.315
97828SOL     OW95322  13.411   6.155   5.791
97828SOL    HW195323  13.381   6.238   5.754
97828SOL    HW295324  13.401   6.167   5.886
97829SOL     OW95325   6.963   9.419   7.036
97829SOL    HW195326   6.946   9.471   7.114
97829SOL    HW295327   6.952   9.328   7.064
97830SOL     OW95328  12.823   4.522   3.102
97830SOL    HW195329  12.743   4.470   3.104
97830SOL    HW295330  12.890   4.465   3.140
97831SOL     OW95331  14.583  14.661   7.620
97831SOL    HW195332  14.547  14.724   7.683
97831SOL    HW295333  14.538  14.579   7.639
97832SOL     OW95334   9.329   0.244  11.927
97832SOL    HW195335   9.293   0.241  11.838
97832SOL    HW295336   9.365   0.332  11.934
97833SOL     OW95337  13.807   8.223   1.818
97833SOL    HW195338  13.873   8.177   1.869
97833SOL    HW295339  13.765   8.155   1.765
97834SOL     OW95340   2.629   7.350   9.151
97834SOL    HW195341   2.581   7.433   9.154
97834SOL    HW295342   2.700   7.366   9.088
97835SOL     OW95343   0.917  14.238   3.523
97835SOL    HW195344   0.973  14.257   3.448
97835SOL    HW295345   0.978  14.222   3.595
97836SOL     OW95346  13.390  12.907   5.270
97836SOL    HW195347  13.342  12.968   5.214
97836SOL    HW295348  13.468  12.955   5.297
97837SOL     OW95349   0.325   4.183   6.843
97837SOL    HW195350   0.314   4.129   6.921
97837SOL    HW295351   0.262   4.254   6.853
97838SOL     OW95352  14.707  12.333  11.942
97838SOL    HW195353  14.712  12.249  11.897
97838SOL    HW295354  14.628  12.374  11.907
97839SOL     OW95355   9.385  10.639  13.307
97839SOL    HW195356   9.355  10.550  13.291
97839SOL    HW295357   9.410  10.641  13.399
97840SOL     OW95358   9.128   0.147  14.851
97840SOL    HW195359   9.188   0.094   0.022
97840SOL    HW295360   9.185   0.202  14.798
97841SOL     OW95361   6.932   4.803   7.635
97841SOL    HW195362   6.887   4.884   7.610
97841SOL    HW295363   6.901   4.738   7.572
97842SOL     OW95364  14.773   9.048   8.112
97842SOL    HW195365  14.770   9.059   8.207
97842SOL    HW295366  14.840   8.981   8.098
97843SOL     OW95367   0.902   0.829   7.974
97843SOL    HW195368   0.820   0.818   7.927
97843SOL    HW295369   0.893   0.774   8.052
97844SOL     OW95370  14.880   5.952  10.558
97844SOL    HW195371   0.064   5.884  10.540
97844SOL    HW295372  14.860   5.941  10.651
97845SOL     OW95373  11.096   6.931   2.419
97845SOL    HW195374  11.017   6.934   2.364
97845SOL    HW295375  11.161   6.981   2.370
97846SOL     OW95376   5.459   0.876   5.308
97846SOL    HW195377   5.379   0.925   5.286
97846SOL    HW295378   5.502   0.930   5.374
97847SOL     OW95379  14.068  11.303   6.530
97847SOL    HW195380  14.077  11.267   6.618
97847SOL    HW295381  14.081  11.397   6.540
97848SOL     OW95382   8.185  13.205  13.516
97848SOL    HW195383   8.205  13.131  13.574
97848SOL    HW295384   8.201  13.172  13.428
97849SOL     OW95385   0.836   6.336  10.682
97849SOL    HW195386   0.859   6.343  10.589
97849SOL    HW295387   0.817   6.243  10.695
97850SOL     OW95388   3.538   6.424  12.075
97850SOL    HW195389   3.623   6.380  12.080
97850SOL    HW295390   3.554   6.511  12.111
97851SOL     OW95391   5.217   7.106   4.033
97851SOL    HW195392   5.301   7.116   4.077
97851SOL    HW295393   5.177   7.193   4.038
97852SOL     OW95394   9.057   4.404   5.421
97852SOL    HW195395   9.142   4.444   5.441
97852SOL    HW295396   8.993   4.473   5.438
97853SOL     OW95397   2.977   3.462   3.466
97853SOL    HW195398   3.031   3.383   3.457
97853SOL    HW295399   3.040   3.531   3.487
97854SOL     OW95400   4.908   3.905   9.400
97854SOL    HW195401   4.831   3.852   9.378
97854SOL    HW295402   4.912   3.902   9.496
97855SOL     OW95403   7.024   9.541   4.851
97855SOL    HW195404   6.941   9.495   4.864
97855SOL    HW295405   7.008   9.629   4.885
97856SOL     OW95406   1.784  12.686   9.814
97856SOL    HW195407   1.763  12.779   9.822
97856SOL    HW295408   1.846  12.682   9.741
97857SOL     OW95409  12.057  11.314   9.324
97857SOL    HW195410  12.101  11.396   9.300
97857SOL    HW295411  12.094  11.292   9.409
97858SOL     OW95412   5.570   3.580  11.410
97858SOL    HW195413   5.491   3.526  11.413
97858SOL    HW295414   5.539   3.666  11.381
97859SOL     OW95415   6.455  11.239   1.940
97859SOL    HW195416   6.367  11.203   1.932
97859SOL    HW295417   6.499  11.184   2.004
97860SOL     OW95418   0.713   4.073  11.926
97860SOL    HW195419   0.643   4.008  11.912
97860SOL    HW295420   0.767   4.036  11.995
97861SOL     OW95421  12.246   3.472   8.501
97861SOL    HW195422  12.295   3.420   8.437
97861SOL    HW295423  12.294   3.460   8.583
97862SOL     OW95424   3.794   3.046   2.268
97862SOL    HW195425   3.743   3.016   2.193
97862SOL    HW295426   3.847   3.118   2.233
97863SOL     OW95427   1.970   1.183  11.484
97863SOL    HW195428   1.928   1.152  11.564
97863SOL    HW295429   2.063   1.163  11.497
97864SOL     OW95430  10.529   4.941   7.281
97864SOL    HW195431  10.444   4.986   7.281
97864SOL    HW295432  10.533   4.898   7.196
97865SOL     OW95433   2.303   1.194  11.284
97865SOL    HW195434   2.285   1.153  11.369
97865SOL    HW295435   2.219   1.230  11.256
97866SOL     OW95436  12.663   3.026   5.229
97866SOL    HW195437  12.730   2.969   5.190
97866SOL    HW295438  12.619   3.066   5.154
97867SOL     OW95439   4.704   0.578  10.977
97867SOL    HW195440   4.796   0.604  10.971
97867SOL    HW295441   4.702   0.489  10.940
97868SOL     OW95442   5.111  13.638   8.775
97868SOL    HW195443   5.173  13.710   8.764
97868SOL    HW295444   5.025  13.678   8.758
97869SOL     OW95445   9.538   8.067  10.867
97869SOL    HW195446   9.548   8.053  10.961
97869SOL    HW295447   9.620   8.035  10.829
97870SOL     OW95448   4.419   0.020   3.447
97870SOL    HW195449   4.439   0.089   3.384
97870SOL    HW295450   4.384  14.830   3.393
97871SOL     OW95451  12.270   4.878  11.196
97871SOL    HW195452  12.295   4.796  11.238
97871SOL    HW295453  12.291   4.945  11.260
97872SOL     OW95454  13.333   9.043   4.378
97872SOL    HW195455  13.340   9.006   4.290
97872SOL    HW295456  13.416   9.087   4.393
97873SOL     OW95457   2.251   0.337   9.870
97873SOL    HW195458   2.220   0.267   9.928
97873SOL    HW295459   2.298   0.291   9.801
97874SOL     OW95460   0.064  14.217  14.815
97874SOL    HW195461   0.096  14.212   0.023
97874SOL    HW295462   0.001  14.145  14.808
97875SOL     OW95463   6.354   0.872  13.133
97875SOL    HW195464   6.372   0.958  13.097
97875SOL    HW295465   6.438   0.842  13.167
97876SOL     OW95466   1.587   3.257   1.281
97876SOL    HW195467   1.633   3.222   1.205
97876SOL    HW295468   1.636   3.335   1.305
97877SOL     OW95469   2.668   8.771   0.683
97877SOL    HW195470   2.680   8.810   0.597
97877SOL    HW295471   2.744   8.799   0.734
97878SOL     OW95472  13.203  14.610   7.526
97878SOL    HW195473  13.141  14.543   7.554
97878SOL    HW295474  13.288  14.566   7.527
97879SOL     OW95475   0.878  11.902  14.219
97879SOL    HW195476   0.842  11.922  14.132
97879SOL    HW295477   0.860  11.981  14.270
97880SOL     OW95478   7.646   6.340   5.392
97880SOL    HW195479   7.675   6.313   5.480
97880SOL    HW295480   7.616   6.259   5.351
97881SOL     OW95481   1.847   1.798   7.086
97881SOL    HW195482   1.893   1.745   7.151
97881SOL    HW295483   1.802   1.865   7.138
97882SOL     OW95484   5.786   9.032   3.403
97882SOL    HW195485   5.739   9.050   3.322
97882SOL    HW295486   5.805   9.119   3.440
97883SOL     OW95487  12.382   6.485  13.581
97883SOL    HW195488  12.429   6.565  13.556
97883SOL    HW295489  12.309   6.515  13.634
97884SOL     OW95490   0.792   6.066  11.664
97884SOL    HW195491   0.790   6.144  11.719
97884SOL    HW295492   0.808   6.100  11.576
97885SOL     OW95493   0.933  12.385   8.568
97885SOL    HW195494   0.887  12.432   8.638
97885SOL    HW295495   1.026  12.399   8.586
97886SOL     OW95496  10.567   0.546   5.717
97886SOL    HW195497  10.604   0.629   5.688
97886SOL    HW295498  10.473   0.556   5.705
97887SOL     OW95499  11.182   4.029  13.571
97887SOL    HW195500  11.211   3.949  13.526
97887SOL    HW295501  11.248   4.043  13.638
97888SOL     OW95502   9.594  12.518   3.105
97888SOL    HW195503   9.539  12.481   3.175
97888SOL    HW295504   9.562  12.476   3.025
97889SOL     OW95505  11.918   5.734   7.504
97889SOL    HW195506  11.851   5.800   7.519
97889SOL    HW295507  11.897   5.663   7.564
97890SOL     OW95508   4.274  14.384   3.149
97890SOL    HW195509   4.313  14.416   3.068
97890SOL    HW295510   4.194  14.339   3.121
97891SOL     OW95511   2.099   2.495   4.823
97891SOL    HW195512   2.080   2.565   4.760
97891SOL    HW295513   2.194   2.491   4.828
97892SOL     OW95514  10.288  10.532   5.093
97892SOL    HW195515  10.347  10.584   5.038
97892SOL    HW295516  10.346  10.479   5.148
97893SOL     OW95517   7.131   4.693  11.446
97893SOL    HW195518   7.149   4.600  11.435
97893SOL    HW295519   7.069   4.698  11.519
97894SOL     OW95520  12.014  10.556   9.735
97894SOL    HW195521  12.050  10.644   9.732
97894SOL    HW295522  12.048  10.513   9.657
97895SOL     OW95523   7.272  12.923  13.504
97895SOL    HW195524   7.239  12.834  13.517
97895SOL    HW295525   7.202  12.979  13.537
97896SOL     OW95526  10.808   7.674   9.410
97896SOL    HW195527  10.764   7.604   9.458
97896SOL    HW295528  10.870   7.711   9.472
97897SOL     OW95529   3.822   6.416   3.120
97897SOL    HW195530   3.746   6.394   3.067
97897SOL    HW295531   3.820   6.512   3.126
97898SOL     OW95532   4.185   5.990   4.671
97898SOL    HW195533   4.154   6.019   4.757
97898SOL    HW295534   4.181   6.068   4.616
97899SOL     OW95535   9.866  13.516   9.611
97899SOL    HW195536   9.800  13.487   9.547
97899SOL    HW295537   9.845  13.608   9.626
97900SOL     OW95538   5.080  11.076   4.999
97900SOL    HW195539   5.003  11.095   4.946
97900SOL    HW295540   5.048  11.019   5.068
97901SOL     OW95541   2.182   6.790   3.654
97901SOL    HW195542   2.198   6.877   3.691
97901SOL    HW295543   2.205   6.729   3.724
97902SOL     OW95544   6.699  12.155  14.759
97902SOL    HW195545   6.644  12.186  14.687
97902SOL    HW295546   6.651  12.178  14.838
97903SOL     OW95547   2.346   6.227  12.166
97903SOL    HW195548   2.286   6.163  12.129
97903SOL    HW295549   2.374   6.189  12.249
97904SOL     OW95550   7.894   5.705   2.400
97904SOL    HW195551   7.983   5.705   2.365
97904SOL    HW295552   7.866   5.614   2.393
97905SOL     OW95553   2.509  13.668   1.419
97905SOL    HW195554   2.603  13.670   1.436
97905SOL    HW295555   2.470  13.636   1.500
97906SOL     OW95556  14.485  10.144   6.930
97906SOL    HW195557  14.549  10.093   6.881
97906SOL    HW295558  14.513  10.136   7.022
97907SOL     OW95559   2.377   2.426   8.978
97907SOL    HW195560   2.336   2.488   8.917
97907SOL    HW295561   2.363   2.464   9.064
97908SOL     OW95562   1.525   7.899   9.067
97908SOL    HW195563   1.572   7.852   9.136
97908SOL    HW295564   1.477   7.830   9.020
97909SOL     OW95565  10.932   6.810   7.915
97909SOL    HW195566  10.847   6.847   7.891
97909SOL    HW295567  10.990   6.833   7.842
97910SOL     OW95568   3.440   0.791   9.964
97910SOL    HW195569   3.517   0.786   9.907
97910SOL    HW295570   3.379   0.848   9.917
97911SOL     OW95571   3.647  13.957   2.874
97911SOL    HW195572   3.658  13.962   2.969
97911SOL    HW295573   3.552  13.955   2.861
97912SOL     OW95574   4.449   7.055   0.060
97912SOL    HW195575   4.356   7.048   0.040
97912SOL    HW295576   4.454   7.051   0.155
97913SOL     OW95577   5.416   2.598  10.315
97913SOL    HW195578   5.510   2.583  10.316
97913SOL    HW295579   5.382   2.542  10.385
97914SOL     OW95580   6.644   2.933   8.947
97914SOL    HW195581   6.587   2.981   8.887
97914SOL    HW295582   6.697   2.877   8.890
97915SOL     OW95583  11.597   4.119  13.034
97915SOL    HW195584  11.654   4.191  13.060
97915SOL    HW295585  11.509   4.149  13.056
97916SOL     OW95586  11.113   3.909  12.387
97916SOL    HW195587  11.115   3.814  12.382
97916SOL    HW295588  11.177   3.938  12.323
97917SOL     OW95589   4.879   3.577   4.423
97917SOL    HW195590   4.810   3.641   4.443
97917SOL    HW295591   4.954   3.630   4.395
97918SOL     OW95592   1.742   8.249   3.146
97918SOL    HW195593   1.681   8.272   3.076
97918SOL    HW295594   1.738   8.153   3.150
97919SOL     OW95595   0.325   6.505   5.372
97919SOL    HW195596   0.392   6.530   5.436
97919SOL    HW295597   0.258   6.459   5.424
97920SOL     OW95598   2.752   9.279   2.228
97920SOL    HW195599   2.796   9.346   2.176
97920SOL    HW295600   2.808   9.266   2.304
97921SOL     OW95601   1.273   0.456  14.059
97921SOL    HW195602   1.196   0.512  14.070
97921SOL    HW295603   1.347   0.516  14.058
97922SOL     OW95604   2.904   0.743   4.104
97922SOL    HW195605   2.907   0.659   4.058
97922SOL    HW295606   2.827   0.787   4.068
97923SOL     OW95607   3.491  13.574  14.128
97923SOL    HW195608   3.509  13.658  14.085
97923SOL    HW295609   3.440  13.525  14.063
97924SOL     OW95610   8.581   3.720   6.573
97924SOL    HW195611   8.620   3.667   6.642
97924SOL    HW295612   8.652   3.733   6.509
97925SOL     OW95613   9.549  10.857   1.090
97925SOL    HW195614   9.530  10.764   1.089
97925SOL    HW295615   9.592  10.872   1.174
97926SOL     OW95616   7.543   6.367   0.859
97926SOL    HW195617   7.626   6.321   0.870
97926SOL    HW295618   7.527   6.407   0.945
97927SOL     OW95619   6.138   9.450   9.887
97927SOL    HW195620   6.093   9.423   9.807
97927SOL    HW295621   6.120   9.380   9.949
97928SOL     OW95622   6.636   0.236   3.089
97928SOL    HW195623   6.554   0.227   3.040
97928SOL    HW295624   6.704   0.229   3.022
97929SOL     OW95625   5.586   8.892  10.603
97929SOL    HW195626   5.539   8.960  10.652
97929SOL    HW295627   5.576   8.917  10.511
97930SOL     OW95628  11.025   8.413   6.316
97930SOL    HW195629  11.064   8.407   6.228
97930SOL    HW295630  10.976   8.495   6.315
97931SOL     OW95631  13.051  14.009   6.656
97931SOL    HW195632  13.021  13.937   6.600
97931SOL    HW295633  12.983  14.076   6.647
97932SOL     OW95634   5.619  13.454  13.503
97932SOL    HW195635   5.614  13.549  13.515
97932SOL    HW295636   5.629  13.418  13.591
97933SOL     OW95637  12.023   8.155   0.807
97933SOL    HW195638  12.112   8.122   0.811
97933SOL    HW295639  12.028   8.227   0.744
97934SOL     OW95640   6.309   6.531   2.445
97934SOL    HW195641   6.217   6.539   2.420
97934SOL    HW295642   6.326   6.437   2.444
97935SOL     OW95643  13.379  10.312  12.027
97935SOL    HW195644  13.306  10.331  11.968
97935SOL    HW295645  13.409  10.397  12.057
97936SOL     OW95646   8.608   5.611  12.244
97936SOL    HW195647   8.538   5.551  12.270
97936SOL    HW295648   8.620   5.596  12.150
97937SOL     OW95649  12.086   7.308   3.091
97937SOL    HW195650  12.067   7.369   3.020
97937SOL    HW295651  12.058   7.354   3.170
97938SOL     OW95652   1.151   6.009  10.383
97938SOL    HW195653   1.132   5.943  10.317
97938SOL    HW295654   1.189   5.960  10.456
97939SOL     OW95655   7.630   6.883   6.722
97939SOL    HW195656   7.725   6.885   6.733
97939SOL    HW295657   7.602   6.805   6.771
97940SOL     OW95658   7.343   0.993  12.481
97940SOL    HW195659   7.291   1.058  12.529
97940SOL    HW295660   7.293   0.912  12.489
97941SOL     OW95661   1.311   1.884  10.760
97941SOL    HW195662   1.323   1.953  10.695
97941SOL    HW295663   1.387   1.892  10.817
97942SOL     OW95664  12.388   8.312  13.529
97942SOL    HW195665  12.374   8.385  13.589
97942SOL    HW295666  12.475   8.329  13.492
97943SOL     OW95667   9.456   7.568  14.592
97943SOL    HW195668   9.500   7.484  14.605
97943SOL    HW295669   9.506   7.630  14.645
97944SOL     OW95670  10.742  12.356   7.092
97944SOL    HW195671  10.654  12.323   7.111
97944SOL    HW295672  10.756  12.425   7.157
97945SOL     OW95673  12.673   7.774  11.628
97945SOL    HW195674  12.697   7.739  11.543
97945SOL    HW295675  12.578   7.783  11.625
97946SOL     OW95676   9.937   7.349   9.962
97946SOL    HW195677   9.938   7.254   9.971
97946SOL    HW295678   9.939   7.364   9.868
97947SOL     OW95679   2.649   1.163   2.112
97947SOL    HW195680   2.733   1.191   2.148
97947SOL    HW295681   2.589   1.165   2.186
97948SOL     OW95682  11.293   1.675  13.190
97948SOL    HW195683  11.229   1.745  13.176
97948SOL    HW295684  11.252   1.597  13.153
97949SOL     OW95685  13.954   8.598   5.106
97949SOL    HW195686  13.966   8.673   5.165
97949SOL    HW295687  14.037   8.550   5.110
97950SOL     OW95688  10.021   2.759   3.510
97950SOL    HW195689  10.035   2.778   3.417
97950SOL    HW295690  10.018   2.846   3.552
97951SOL     OW95691   9.829   4.141   3.612
97951SOL    HW195692   9.796   4.171   3.527
97951SOL    HW295693   9.762   4.080   3.643
97952SOL     OW95694  13.153  14.697  12.612
97952SOL    HW195695  13.100  14.713  12.690
97952SOL    HW295696  13.157  14.602  12.605
97953SOL     OW95697   7.452   8.435   2.007
97953SOL    HW195698   7.469   8.404   1.918
97953SOL    HW295699   7.368   8.396   2.030
97954SOL     OW95700  11.963  12.809  12.506
97954SOL    HW195701  11.868  12.798  12.511
97954SOL    HW295702  11.980  12.821  12.413
97955SOL     OW95703  10.275  12.876   8.433
97955SOL    HW195704  10.250  12.817   8.504
97955SOL    HW295705  10.313  12.952   8.478
97956SOL     OW95706   4.442  12.475   3.372
97956SOL    HW195707   4.473  12.392   3.407
97956SOL    HW295708   4.442  12.534   3.448
97957SOL     OW95709  10.065  14.180   1.606
97957SOL    HW195710   9.972  14.200   1.601
97957SOL    HW295711  10.108  14.249   1.556
97958SOL     OW95712   7.346   8.244   0.113
97958SOL    HW195713   7.316   8.331   0.139
97958SOL    HW295714   7.330   8.240   0.019
97959SOL     OW95715   7.072   8.236   4.093
97959SOL    HW195716   7.042   8.291   4.165
97959SOL    HW295717   7.010   8.163   4.091
97960SOL     OW95718   4.351   2.411   4.891
97960SOL    HW195719   4.425   2.392   4.950
97960SOL    HW295720   4.327   2.501   4.911
97961SOL     OW95721  11.929   8.871   6.507
97961SOL    HW195722  11.899   8.786   6.473
97961SOL    HW295723  11.994   8.848   6.573
97962SOL     OW95724   3.551  12.607   0.997
97962SOL    HW195725   3.517  12.556   0.923
97962SOL    HW295726   3.616  12.549   1.038
97963SOL     OW95727   8.986  11.753   6.098
97963SOL    HW195728   9.078  11.727   6.094
97963SOL    HW295729   8.937  11.672   6.083
97964SOL     OW95730   0.460   1.389   9.794
97964SOL    HW195731   0.526   1.458   9.798
97964SOL    HW295732   0.392   1.417   9.856
97965SOL     OW95733   9.616  13.572  13.576
97965SOL    HW195734   9.546  13.506  13.572
97965SOL    HW295735   9.693  13.527  13.543
97966SOL     OW95736   4.456   1.342  10.766
97966SOL    HW195737   4.451   1.276  10.835
97966SOL    HW295738   4.393   1.410  10.793
97967SOL     OW95739  11.946   4.735   1.182
97967SOL    HW195740  11.924   4.708   1.271
97967SOL    HW295741  11.866   4.778   1.150
97968SOL     OW95742   4.157   5.553  11.039
97968SOL    HW195743   4.159   5.490  11.111
97968SOL    HW295744   4.248   5.558  11.009
97969SOL     OW95745   0.157   3.456   3.547
97969SOL    HW195746   0.242   3.439   3.587
97969SOL    HW295747   0.161   3.548   3.522
97970SOL     OW95748  13.944   7.547   0.914
97970SOL    HW195749  14.018   7.598   0.948
97970SOL    HW295750  13.870   7.572   0.969
97971SOL     OW95751   7.533  14.515   5.513
97971SOL    HW195752   7.495  14.465   5.441
97971SOL    HW295753   7.540  14.452   5.585
97972SOL     OW95754   0.571   8.943   5.507
97972SOL    HW195755   0.575   9.029   5.463
97972SOL    HW295756   0.533   8.885   5.441
97973SOL     OW95757   0.358   8.012   4.101
97973SOL    HW195758   0.331   7.924   4.128
97973SOL    HW295759   0.280   8.066   4.112
97974SOL     OW95760   9.655   5.805   8.720
97974SOL    HW195761   9.641   5.777   8.630
97974SOL    HW295762   9.645   5.900   8.717
97975SOL     OW95763   0.344  14.436   9.895
97975SOL    HW195764   0.345  14.361   9.835
97975SOL    HW295765   0.326  14.511   9.839
97976SOL     OW95766   7.199   8.091   6.675
97976SOL    HW195767   7.135   8.021   6.666
97976SOL    HW295768   7.159   8.151   6.738
97977SOL     OW95769   3.429   7.513   8.247
97977SOL    HW195770   3.523   7.521   8.232
97977SOL    HW295771   3.398   7.604   8.252
97978SOL     OW95772   2.148  13.804   6.605
97978SOL    HW195773   2.056  13.828   6.610
97978SOL    HW295774   2.161  13.779   6.513
97979SOL     OW95775   4.614  10.952   9.582
97979SOL    HW195776   4.575  10.971   9.667
97979SOL    HW295777   4.693  11.005   9.579
97980SOL     OW95778  14.794   2.267   3.659
97980SOL    HW195779  14.817   2.343   3.713
97980SOL    HW295780  14.876   2.218   3.650
97981SOL     OW95781   0.951   0.366  11.927
97981SOL    HW195782   1.012   0.402  11.862
97981SOL    HW295783   1.005   0.307  11.979
97982SOL     OW95784   2.072   2.045   2.470
97982SOL    HW195785   2.069   2.085   2.557
97982SOL    HW295786   1.980   2.026   2.450
97983SOL     OW95787   0.315   7.466   7.337
97983SOL    HW195788   0.275   7.547   7.305
97983SOL    HW295789   0.259   7.439   7.409
97984SOL     OW95790   6.958   3.941   2.782
97984SOL    HW195791   7.001   4.015   2.739
97984SOL    HW295792   6.869   3.972   2.800
97985SOL     OW95793   8.807  13.530  11.574
97985SOL    HW195794   8.881  13.564  11.624
97985SOL    HW295795   8.846  13.493  11.495
97986SOL     OW95796   8.711   5.303   7.498
97986SOL    HW195797   8.744   5.353   7.423
97986SOL    HW295798   8.705   5.368   7.569
97987SOL     OW95799   4.416   5.694  11.837
97987SOL    HW195800   4.419   5.759  11.907
97987SOL    HW295801   4.475   5.728  11.770
97988SOL     OW95802   7.995   0.655   3.839
97988SOL    HW195803   8.036   0.741   3.844
97988SOL    HW295804   7.903   0.670   3.862
97989SOL     OW95805   9.918  12.108  13.332
97989SOL    HW195806   9.972  12.029  13.335
97989SOL    HW295807   9.979  12.177  13.306
97990SOL     OW95808   1.760  14.163   5.983
97990SOL    HW195809   1.709  14.154   6.064
97990SOL    HW295810   1.792  14.074   5.966
97991SOL     OW95811   9.657   5.367   7.563
97991SOL    HW195812   9.716   5.321   7.503
97991SOL    HW295813   9.620   5.438   7.511
97992SOL     OW95814   8.407   7.377  11.795
97992SOL    HW195815   8.374   7.450  11.743
97992SOL    HW295816   8.384   7.299  11.744
97993SOL     OW95817   5.007   3.501   3.253
97993SOL    HW195818   5.005   3.447   3.332
97993SOL    HW295819   4.939   3.567   3.267
97994SOL     OW95820  14.807   4.369  10.942
97994SOL    HW195821  14.852   4.334  11.019
97994SOL    HW295822  14.732   4.417  10.978
97995SOL     OW95823   5.000   1.880  10.565
97995SOL    HW195824   5.032   1.842  10.647
97995SOL    HW295825   5.079   1.888  10.511
97996SOL     OW95826   8.447  11.288   0.540
97996SOL    HW195827   8.413  11.253   0.457
97996SOL    HW295828   8.384  11.355   0.566
97997SOL     OW95829   6.471  13.333   6.850
97997SOL    HW195830   6.396  13.383   6.882
97997SOL    HW295831   6.526  13.399   6.805
97998SOL     OW95832  10.417   5.410   4.592
97998SOL    HW195833  10.373   5.351   4.531
97998SOL    HW295834  10.386   5.383   4.678
97999SOL     OW95835   4.803   7.479   9.634
97999SOL    HW195836   4.746   7.409   9.603
97999SOL    HW295837   4.874   7.483   9.570
98000SOL     OW95838   7.076   3.743   2.452
98000SOL    HW195839   6.987   3.741   2.488
98000SOL    HW295840   7.128   3.786   2.520
98001SOL     OW95841   1.635  10.963   8.278
98001SOL    HW195842   1.544  10.950   8.253
98001SOL    HW295843   1.631  11.010   8.361
98002SOL     OW95844   1.034   1.462  13.259
98002SOL    HW195845   1.012   1.484  13.169
98002SOL    HW295846   0.960   1.411  13.291
98003SOL     OW95847   0.436   9.403   3.332
98003SOL    HW195848   0.357   9.407   3.279
98003SOL    HW295849   0.411   9.437   3.418
98004SOL     OW95850   9.278   4.403   8.387
98004SOL    HW195851   9.263   4.371   8.476
98004SOL    HW295852   9.247   4.494   8.389
98005SOL     OW95853   7.312   6.096  13.262
98005SOL    HW195854   7.361   6.148  13.198
98005SOL    HW295855   7.311   6.008  13.225
98006SOL     OW95856   9.792   3.961  12.565
98006SOL    HW195857   9.887   3.961  12.578
98006SOL    HW295858   9.756   3.973  12.653
98007SOL     OW95859   2.479   7.158   2.104
98007SOL    HW195860   2.540   7.208   2.158
98007SOL    HW295861   2.513   7.069   2.104
98008SOL     OW95862   4.735  13.400  11.261
98008SOL    HW195863   4.661  13.348  11.228
98008SOL    HW295864   4.694  13.460  11.324
98009SOL     OW95865   5.454   2.742  13.430
98009SOL    HW195866   5.498   2.658  13.443
98009SOL    HW295867   5.485   2.772  13.345
98010SOL     OW95868   3.130   6.243   0.261
98010SOL    HW195869   3.104   6.319   0.209
98010SOL    HW295870   3.050   6.193   0.273
98011SOL     OW95871  11.107   3.164   3.900
98011SOL    HW195872  11.119   3.087   3.955
98011SOL    HW295873  11.050   3.221   3.951
98012SOL     OW95874  10.249  12.294  14.260
98012SOL    HW195875  10.257  12.276  14.353
98012SOL    HW295876  10.255  12.390  14.254
98013SOL     OW95877   8.816   1.995   2.054
98013SOL    HW195878   8.811   1.922   2.116
98013SOL    HW295879   8.908   2.000   2.030
98014SOL     OW95880   1.638   4.364  14.190
98014SOL    HW195881   1.720   4.397  14.228
98014SOL    HW295882   1.601   4.439  14.145
98015SOL     OW95883   8.001  13.415   2.612
98015SOL    HW195884   7.988  13.410   2.707
98015SOL    HW295885   8.068  13.349   2.594
98016SOL     OW95886   8.672   4.222  14.316
98016SOL    HW195887   8.688   4.143  14.367
98016SOL    HW295888   8.650   4.191  14.229
98017SOL     OW95889   8.692   0.367   4.143
98017SOL    HW195890   8.714   0.398   4.056
98017SOL    HW295891   8.769   0.387   4.196
98018SOL     OW95892  13.884  14.772   5.761
98018SOL    HW195893  13.820  14.702   5.773
98018SOL    HW295894  13.886  14.818   5.845
98019SOL     OW95895   1.822  11.549  12.629
98019SOL    HW195896   1.874  11.469  12.621
98019SOL    HW295897   1.793  11.550  12.720
98020SOL     OW95898  12.120  13.348  10.622
98020SOL    HW195899  12.148  13.393  10.543
98020SOL    HW295900  12.078  13.416  10.675
98021SOL     OW95901  11.468  11.015  10.691
98021SOL    HW195902  11.426  10.960  10.757
98021SOL    HW295903  11.399  11.035  10.629
98022SOL     OW95904   3.910   1.370   6.050
98022SOL    HW195905   4.002   1.393   6.039
98022SOL    HW295906   3.888   1.403   6.137
98023SOL     OW95907   2.742   9.140  11.791
98023SOL    HW195908   2.835   9.148  11.813
98023SOL    HW295909   2.712   9.231  11.783
98024SOL     OW95910   1.651  13.818   8.786
98024SOL    HW195911   1.586  13.827   8.716
98024SOL    HW295912   1.735  13.818   8.740
98025SOL     OW95913   4.746   8.008   9.642
98025SOL    HW195914   4.668   8.045   9.601
98025SOL    HW295915   4.792   7.963   9.571
98026SOL     OW95916   2.945   7.319   2.279
98026SOL    HW195917   3.037   7.310   2.254
98026SOL    HW295918   2.945   7.383   2.350
98027SOL     OW95919   1.991   5.905   4.064
98027SOL    HW195920   2.026   5.868   4.145
98027SOL    HW295921   1.939   5.833   4.026
98028SOL     OW95922   5.236   1.916   4.377
98028SOL    HW195923   5.203   1.991   4.328
98028SOL    HW295924   5.285   1.865   4.313
98029SOL     OW95925   7.090  11.715   1.606
98029SOL    HW195926   7.011  11.747   1.563
98029SOL    HW295927   7.063  11.633   1.647
98030SOL     OW95928   0.190  14.503   4.626
98030SOL    HW195929   0.194  14.582   4.681
98030SOL    HW295930   0.247  14.440   4.671
98031SOL     OW95931  12.691   2.732   5.358
98031SOL    HW195932  12.666   2.818   5.323
98031SOL    HW295933  12.747   2.694   5.289
98032SOL     OW95934  11.526  11.735   3.743
98032SOL    HW195935  11.446  11.784   3.726
98032SOL    HW295936  11.562  11.717   3.656
98033SOL     OW95937   7.878  12.225   7.614
98033SOL    HW195938   7.933  12.187   7.682
98033SOL    HW295939   7.928  12.216   7.534
98034SOL     OW95940  14.840  13.496   5.754
98034SOL    HW195941  14.768  13.505   5.692
98034SOL    HW295942  14.870  13.586   5.770
98035SOL     OW95943   0.915  13.751  11.720
98035SOL    HW195944   0.966  13.728  11.643
98035SOL    HW295945   0.911  13.670  11.771
98036SOL     OW95946   8.549   5.750   1.309
98036SOL    HW195947   8.624   5.736   1.251
98036SOL    HW295948   8.580   5.724   1.396
98037SOL     OW95949   7.614   9.729   4.297
98037SOL    HW195950   7.566   9.757   4.219
98037SOL    HW295951   7.674   9.661   4.265
98038SOL     OW95952   6.982   6.053   4.431
98038SOL    HW195953   6.998   5.973   4.381
98038SOL    HW295954   7.030   6.121   4.382
98039SOL     OW95955   1.892   5.736   8.808
98039SOL    HW195956   1.901   5.800   8.879
98039SOL    HW295957   1.981   5.704   8.793
98040SOL     OW95958   6.125  13.756   3.446
98040SOL    HW195959   6.051  13.814   3.427
98040SOL    HW295960   6.112  13.680   3.390
98041SOL     OW95961   1.804   0.349   8.109
98041SOL    HW195962   1.887   0.308   8.133
98041SOL    HW295963   1.829   0.435   8.073
98042SOL     OW95964   9.611  13.334   0.861
98042SOL    HW195965   9.645  13.423   0.869
98042SOL    HW295966   9.573  13.315   0.947
98043SOL     OW95967   0.071   7.965  14.281
98043SOL    HW195968   0.146   7.949  14.340
98043SOL    HW295969   0.085   8.054  14.248
98044SOL     OW95970  10.471  14.756   0.622
98044SOL    HW195971  10.435  14.822   0.681
98044SOL    HW295972  10.564  14.752   0.643
98045SOL     OW95973   4.648   2.491   3.314
98045SOL    HW195974   4.656   2.426   3.244
98045SOL    HW295975   4.560   2.527   3.304
98046SOL     OW95976   5.256  11.134   9.746
98046SOL    HW195977   5.329  11.188   9.775
98046SOL    HW295978   5.181  11.194   9.743
98047SOL     OW95979   9.717  13.209  11.692
98047SOL    HW195980   9.670  13.278  11.739
98047SOL    HW295981   9.806  13.242  11.684
98048SOL     OW95982   7.905   7.568   2.688
98048SOL    HW195983   7.832   7.625   2.663
98048SOL    HW295984   7.879   7.481   2.658
98049SOL     OW95985   2.949   6.740   3.716
98049SOL    HW195986   3.019   6.714   3.776
98049SOL    HW295987   2.895   6.801   3.767
98050SOL     OW95988  14.716   3.349   1.665
98050SOL    HW195989  14.757   3.284   1.608
98050SOL    HW295990  14.631   3.366   1.624
98051SOL     OW95991   8.545   7.291   1.512
98051SOL    HW195992   8.614   7.224   1.519
98051SOL    HW295993   8.514   7.285   1.421
98052SOL     OW95994  11.115   4.290  13.673
98052SOL    HW195995  11.194   4.343  13.659
98052SOL    HW295996  11.143   4.201  13.654
98053SOL     OW95997  12.561   0.464   1.073
98053SOL    HW195998  12.613   0.397   1.028
98053SOL    HW295999  12.626   0.521   1.114
98054SOL     OW96000   0.431   6.944   5.351
98054SOL    HW196001   0.487   6.877   5.312
98054SOL    HW296002   0.487   6.988   5.415
98055SOL     OW96003   2.512   7.934   4.205
98055SOL    HW196004   2.532   7.840   4.205
98055SOL    HW296005   2.447   7.944   4.275
98056SOL     OW96006   3.464  11.822  13.487
98056SOL    HW196007   3.392  11.830  13.549
98056SOL    HW296008   3.511  11.743  13.517
98057SOL     OW96009  13.462  10.233   7.050
98057SOL    HW196010  13.467  10.194   7.138
98057SOL    HW296011  13.385  10.289   7.052
98058SOL     OW96012   3.476   6.465   2.091
98058SOL    HW196013   3.558   6.509   2.112
98058SOL    HW296014   3.420   6.480   2.167
98059SOL     OW96015   7.425   4.613  10.028
98059SOL    HW196016   7.438   4.649  10.116
98059SOL    HW296017   7.480   4.667   9.971
98060SOL     OW96018   8.148   3.392   7.552
98060SOL    HW196019   8.203   3.385   7.473
98060SOL    HW296020   8.073   3.335   7.534
98061SOL     OW96021   1.086   4.798   0.029
98061SOL    HW196022   1.170   4.845   0.025
98061SOL    HW296023   1.029   4.856   0.078
98062SOL     OW96024   2.810  13.882  10.062
98062SOL    HW196025   2.863  13.960  10.078
98062SOL    HW296026   2.754  13.875  10.139
98063SOL     OW96027   3.014   7.443   7.991
98063SOL    HW196028   2.995   7.492   8.071
98063SOL    HW296029   3.103   7.409   8.004
98064SOL     OW96030   6.839   7.567  10.802
98064SOL    HW196031   6.796   7.488  10.837
98064SOL    HW296032   6.842   7.627  10.876
98065SOL     OW96033   0.721   7.002  14.710
98065SOL    HW196034   0.681   6.928  14.757
98065SOL    HW296035   0.797   6.964  14.667
98066SOL     OW96036   7.571   6.692   0.011
98066SOL    HW196037   7.597   6.627  14.828
98066SOL    HW296038   7.478   6.674   0.027
98067SOL     OW96039   0.122   9.381  13.190
98067SOL    HW196040   0.158   9.449  13.246
98067SOL    HW296041   0.101   9.309  13.250
98068SOL     OW96042   5.948   7.041   1.943
98068SOL    HW196043   5.862   7.002   1.929
98068SOL    HW296044   5.987   7.046   1.856
98069SOL     OW96045  13.585  10.385  10.256
98069SOL    HW196046  13.540  10.389  10.172
98069SOL    HW296047  13.657  10.448  10.248
98070SOL     OW96048  10.247   9.901   6.658
98070SOL    HW196049  10.199   9.974   6.697
98070SOL    HW296050  10.201   9.823   6.690
98071SOL     OW96051   7.726  11.154   9.644
98071SOL    HW196052   7.724  11.151   9.739
98071SOL    HW296053   7.733  11.062   9.618
98072SOL     OW96054   6.204  10.782  11.238
98072SOL    HW196055   6.230  10.847  11.173
98072SOL    HW296056   6.247  10.810  11.319
98073SOL     OW96057  12.561  12.731   9.613
98073SOL    HW196058  12.585  12.791   9.543
98073SOL    HW296059  12.557  12.787   9.691
98074SOL     OW96060  12.011  13.932   9.208
98074SOL    HW196061  12.044  13.886   9.130
98074SOL    HW296062  12.085  13.986   9.237
98075SOL     OW96063  12.694   2.588  12.147
98075SOL    HW196064  12.625   2.578  12.213
98075SOL    HW296065  12.775   2.566  12.193
98076SOL     OW96066   9.172   4.632  13.424
98076SOL    HW196067   9.173   4.651  13.518
98076SOL    HW296068   9.209   4.710  13.383
98077SOL     OW96069   3.345   8.205   6.747
98077SOL    HW196070   3.413   8.140   6.766
98077SOL    HW296071   3.320   8.188   6.656
98078SOL     OW96072   4.369   7.942   4.953
98078SOL    HW196073   4.328   7.954   4.868
98078SOL    HW296074   4.416   7.859   4.946
98079SOL     OW96075   1.847  14.211  11.252
98079SOL    HW196076   1.822  14.285  11.197
98079SOL    HW296077   1.833  14.243  11.341
98080SOL     OW96078   7.389   2.972  14.789
98080SOL    HW196079   7.429   2.893  14.753
98080SOL    HW296080   7.297   2.948  14.803
98081SOL     OW96081   6.198   7.819   0.159
98081SOL    HW196082   6.154   7.779   0.234
98081SOL    HW296083   6.237   7.899   0.194
98082SOL     OW96084  12.933   8.426  13.275
98082SOL    HW196085  13.012   8.472  13.247
98082SOL    HW296086  12.869   8.495  13.288
98083SOL     OW96087   3.800  14.723   5.699
98083SOL    HW196088   3.871  14.661   5.715
98083SOL    HW296089   3.747  14.683   5.631
98084SOL     OW96090  12.416   0.372   2.230
98084SOL    HW196091  12.456   0.458   2.219
98084SOL    HW296092  12.428   0.329   2.145
98085SOL     OW96093  10.940   6.067   0.154
98085SOL    HW196094  10.945   6.159   0.179
98085SOL    HW296095  11.026   6.048   0.117
98086SOL     OW96096   2.661   4.582  12.336
98086SOL    HW196097   2.589   4.639  12.308
98086SOL    HW296098   2.737   4.640  12.342
98087SOL     OW96099   2.173  14.072  12.447
98087SOL    HW196100   2.225  14.008  12.495
98087SOL    HW296101   2.085  14.034  12.444
98088SOL     OW96102  12.573  12.481   5.678
98088SOL    HW196103  12.505  12.534   5.636
98088SOL    HW296104  12.539  12.462   5.765
98089SOL     OW96105   7.264   6.800   4.790
98089SOL    HW196106   7.285   6.812   4.883
98089SOL    HW296107   7.343   6.761   4.753
98090SOL     OW96108  14.190  11.006  10.680
98090SOL    HW196109  14.176  10.990  10.587
98090SOL    HW296110  14.284  11.019  10.688
98091SOL     OW96111   5.707   0.045   8.500
98091SOL    HW196112   5.638   0.036   8.434
98091SOL    HW296113   5.714  14.840   8.540
98092SOL     OW96114  12.453   4.573  12.863
98092SOL    HW196115  12.499   4.601  12.941
98092SOL    HW296116  12.518   4.577  12.793
98093SOL     OW96117   0.619  13.713  11.425
98093SOL    HW196118   0.530  13.739  11.404
98093SOL    HW296119   0.624  13.721  11.521
98094SOL     OW96120  13.474   7.078  13.878
98094SOL    HW196121  13.501   7.139  13.947
98094SOL    HW296122  13.547   7.077  13.817
98095SOL     OW96123   0.201  13.672   1.114
98095SOL    HW196124   0.124  13.615   1.117
98095SOL    HW296125   0.204  13.712   1.201
98096SOL     OW96126  10.253  14.811   4.052
98096SOL    HW196127  10.336  14.802   4.005
98096SOL    HW296128  10.277  14.810   4.144
98097SOL     OW96129   5.399  11.175   4.570
98097SOL    HW196130   5.414  11.081   4.572
98097SOL    HW296131   5.484  11.213   4.592
98098SOL     OW96132   2.515   1.248  14.397
98098SOL    HW196133   2.526   1.246  14.492
98098SOL    HW296134   2.603   1.263  14.362
98099SOL     OW96135  14.476   7.230   3.142
98099SOL    HW196136  14.466   7.268   3.055
98099SOL    HW296137  14.415   7.279   3.197
98100SOL     OW96138  10.764   7.031   4.626
98100SOL    HW196139  10.794   7.025   4.717
98100SOL    HW296140  10.819   6.969   4.578
98101SOL     OW96141   7.665   4.621   0.267
98101SOL    HW196142   7.589   4.586   0.220
98101SOL    HW296143   7.697   4.691   0.210
98102SOL     OW96144  10.412   6.538  11.983
98102SOL    HW196145  10.395   6.497  12.067
98102SOL    HW296146  10.469   6.613  12.003
98103SOL     OW96147   4.235  12.072  11.455
98103SOL    HW196148   4.194  12.100  11.537
98103SOL    HW296149   4.197  11.986  11.437
98104SOL     OW96150  14.527   2.389   1.967
98104SOL    HW196151  14.612   2.354   1.941
98104SOL    HW296152  14.521   2.371   2.061
98105SOL     OW96153  12.703   0.886  12.557
98105SOL    HW196154  12.716   0.807  12.505
98105SOL    HW296155  12.612   0.882  12.585
98106SOL     OW96156   6.000  10.838  12.274
98106SOL    HW196157   5.945  10.798  12.342
98106SOL    HW296158   5.943  10.903  12.232
98107SOL     OW96159   1.996   6.370   3.842
98107SOL    HW196160   1.945   6.295   3.874
98107SOL    HW296161   2.087   6.348   3.862
98108SOL     OW96162   4.760   7.134   0.410
98108SOL    HW196163   4.696   7.078   0.454
98108SOL    HW296164   4.753   7.110   0.318
98109SOL     OW96165   5.330   3.578   6.820
98109SOL    HW196166   5.277   3.625   6.756
98109SOL    HW296167   5.337   3.489   6.786
98110SOL     OW96168   7.989   2.796   2.331
98110SOL    HW196169   8.030   2.858   2.392
98110SOL    HW296170   7.966   2.850   2.255
98111SOL     OW96171   5.247   3.719   5.896
98111SOL    HW196172   5.278   3.632   5.921
98111SOL    HW296173   5.224   3.762   5.979
98112SOL     OW96174  12.998  12.025   0.053
98112SOL    HW196175  13.043  11.981   0.125
98112SOL    HW296176  13.062  12.085   0.017
98113SOL     OW96177   1.167   4.878   9.999
98113SOL    HW196178   1.140   4.788  10.016
98113SOL    HW296179   1.084   4.925   9.983
98114SOL     OW96180   2.325   6.164   3.599
98114SOL    HW196181   2.374   6.093   3.641
98114SOL    HW296182   2.372   6.244   3.624
98115SOL     OW96183  13.621   7.142   9.836
98115SOL    HW196184  13.573   7.082   9.893
98115SOL    HW296185  13.713   7.127   9.858
98116SOL     OW96186   0.376   6.715   6.846
98116SOL    HW196187   0.362   6.749   6.934
98116SOL    HW296188   0.289   6.692   6.815
98117SOL     OW96189   1.139   0.228  12.065
98117SOL    HW196190   1.227   0.193  12.075
98117SOL    HW296191   1.092   0.197  12.143
98118SOL     OW96192   0.434  13.571   0.448
98118SOL    HW196193   0.376  13.539   0.380
98118SOL    HW296194   0.387  13.645   0.487
98119SOL     OW96195   7.405   8.372   1.743
98119SOL    HW196196   7.325   8.424   1.755
98119SOL    HW296197   7.378   8.301   1.685
98120SOL     OW96198   4.709  12.959   3.193
98120SOL    HW196199   4.799  12.981   3.215
98120SOL    HW296200   4.656  13.025   3.238
98121SOL     OW96201  12.577   8.309   3.067
98121SOL    HW196202  12.586   8.233   3.125
98121SOL    HW296203  12.667   8.327   3.038
98122SOL     OW96204  11.062   2.414   0.900
98122SOL    HW196205  11.107   2.440   0.981
98122SOL    HW296206  11.129   2.367   0.850
98123SOL     OW96207   2.434   8.157   3.871
98123SOL    HW196208   2.417   8.245   3.906
98123SOL    HW296209   2.474   8.109   3.943
98124SOL     OW96210   1.907   5.006  10.335
98124SOL    HW196211   1.997   5.037  10.343
98124SOL    HW296212   1.903   4.964  10.250
98125SOL     OW96213   0.473  12.269  14.460
98125SOL    HW196214   0.402  12.276  14.523
98125SOL    HW296215   0.432  12.236  14.380
98126SOL     OW96216   1.241   0.133  11.664
98126SOL    HW196217   1.276   0.048  11.693
98126SOL    HW296218   1.277   0.196  11.726
98127SOL     OW96219  11.000  14.026   0.082
98127SOL    HW196220  10.974  13.934   0.078
98127SOL    HW296221  10.932  14.073   0.034
98128SOL     OW96222   8.991  14.624  14.153
98128SOL    HW196223   9.050  14.590  14.086
98128SOL    HW296224   9.043  14.619  14.234
98129SOL     OW96225  10.591   6.417   1.440
98129SOL    HW196226  10.534   6.494   1.449
98129SOL    HW296227  10.635   6.410   1.525
98130SOL     OW96228   2.804   3.799   1.289
98130SOL    HW196229   2.760   3.832   1.211
98130SOL    HW296230   2.735   3.796   1.355
98131SOL     OW96231  13.424   1.255  12.512
98131SOL    HW196232  13.480   1.191  12.469
98131SOL    HW296233  13.345   1.259  12.458
98132SOL     OW96234   9.108   9.833  12.250
98132SOL    HW196235   9.160   9.761  12.284
98132SOL    HW296236   9.075   9.801  12.166
98133SOL     OW96237  14.874   8.272   3.662
98133SOL    HW196238   0.034   8.345   3.616
98133SOL    HW296239  14.829   8.222   3.593
98134SOL     OW96240   4.919   7.767   9.859
98134SOL    HW196241   4.935   7.760   9.953
98134SOL    HW296242   4.826   7.789   9.852
98135SOL     OW96243   2.152   2.114   3.352
98135SOL    HW196244   2.104   2.070   3.282
98135SOL    HW296245   2.217   2.050   3.381
98136SOL     OW96246   3.291   5.377   7.618
98136SOL    HW196247   3.230   5.303   7.612
98136SOL    HW296248   3.371   5.345   7.575
98137SOL     OW96249   3.099  11.220   1.538
98137SOL    HW196250   3.148  11.178   1.609
98137SOL    HW296251   3.147  11.197   1.459
98138SOL     OW96252   8.711  14.142   0.679
98138SOL    HW196253   8.778  14.197   0.719
98138SOL    HW296254   8.628  14.172   0.717
98139SOL     OW96255   6.400   1.769  14.602
98139SOL    HW196256   6.317   1.816  14.616
98139SOL    HW296257   6.464   1.817  14.654
98140SOL     OW96258   4.744   2.206  12.556
98140SOL    HW196259   4.680   2.136  12.541
98140SOL    HW296260   4.811   2.191  12.489
98141SOL     OW96261   1.134  11.942   6.302
98141SOL    HW196262   1.106  11.957   6.392
98141SOL    HW296263   1.223  11.909   6.310
98142SOL     OW96264   9.763   6.856   4.435
98142SOL    HW196265   9.769   6.770   4.478
98142SOL    HW296266   9.854   6.882   4.421
98143SOL     OW96267  10.378  11.591   5.542
98143SOL    HW196268  10.303  11.638   5.578
98143SOL    HW296269  10.406  11.644   5.467
98144SOL     OW96270  11.859  13.932   2.981
98144SOL    HW196271  11.868  13.864   3.048
98144SOL    HW296272  11.844  14.013   3.031
98145SOL     OW96273   2.836  14.175  11.863
98145SOL    HW196274   2.755  14.124  11.859
98145SOL    HW296275   2.828  14.226  11.944
98146SOL     OW96276   5.442   7.367   2.233
98146SOL    HW196277   5.388   7.401   2.162
98146SOL    HW296278   5.503   7.307   2.190
98147SOL     OW96279   7.506  14.553   3.542
98147SOL    HW196280   7.575  14.552   3.607
98147SOL    HW296281   7.519  14.473   3.491
98148SOL     OW96282   0.905   6.517   3.853
98148SOL    HW196283   0.977   6.555   3.803
98148SOL    HW296284   0.948   6.458   3.916
98149SOL     OW96285  14.450   9.687   3.478
98149SOL    HW196286  14.546   9.689   3.475
98149SOL    HW296287  14.426   9.765   3.529
98150SOL     OW96288   9.101  10.236   7.617
98150SOL    HW196289   9.074  10.145   7.620
98150SOL    HW296290   9.053  10.278   7.689
98151SOL     OW96291   5.785   8.745   3.408
98151SOL    HW196292   5.719   8.731   3.477
98151SOL    HW296293   5.795   8.840   3.404
98152SOL     OW96294  11.515  11.751   8.013
98152SOL    HW196295  11.596  11.767   7.966
98152SOL    HW296296  11.513  11.656   8.026
98153SOL     OW96297   5.822  14.428   3.290
98153SOL    HW196298   5.749  14.412   3.230
98153SOL    HW296299   5.839  14.344   3.331
98154SOL     OW96300  11.087   5.653  11.912
98154SOL    HW196301  11.139   5.725  11.948
98154SOL    HW296302  11.065   5.600  11.988
98155SOL     OW96303   5.676  10.402   8.317
98155SOL    HW196304   5.664  10.323   8.369
98155SOL    HW296305   5.727  10.460   8.374
98156SOL     OW96306   9.676   0.482  14.111
98156SOL    HW196307   9.632   0.413  14.160
98156SOL    HW296308   9.627   0.489  14.029
98157SOL     OW96309  12.989   0.177   7.830
98157SOL    HW196310  12.967   0.088   7.858
98157SOL    HW296311  13.080   0.188   7.855
98158SOL     OW96312   3.432   4.461   5.440
98158SOL    HW196313   3.357   4.430   5.490
98158SOL    HW296314   3.501   4.476   5.505
98159SOL     OW96315  11.153   5.928  10.704
98159SOL    HW196316  11.069   5.963  10.673
98159SOL    HW296317  11.145   5.833  10.693
98160SOL     OW96318   0.886  14.472   1.621
98160SOL    HW196319   0.920  14.432   1.701
98160SOL    HW296320   0.949  14.448   1.553
98161SOL     OW96321   4.009   6.842  12.211
98161SOL    HW196322   4.075   6.886  12.157
98161SOL    HW296323   4.023   6.749  12.194
98162SOL     OW96324  11.487   7.971  14.150
98162SOL    HW196325  11.419   7.980  14.217
98162SOL    HW296326  11.448   7.914  14.084
98163SOL     OW96327   2.376   5.814   2.948
98163SOL    HW196328   2.375   5.804   2.853
98163SOL    HW296329   2.285   5.832   2.971
98164SOL     OW96330  14.180   5.028  12.719
98164SOL    HW196331  14.142   4.990  12.798
98164SOL    HW296332  14.270   4.994  12.716
98165SOL     OW96333   1.643  11.888  12.248
98165SOL    HW196334   1.660  11.979  12.226
98165SOL    HW296335   1.553  11.872  12.218
98166SOL     OW96336   6.285   5.571   5.478
98166SOL    HW196337   6.321   5.660   5.484
98166SOL    HW296338   6.293   5.548   5.385
98167SOL     OW96339   9.435  11.940   2.165
98167SOL    HW196340   9.436  11.854   2.206
98167SOL    HW296341   9.342  11.959   2.152
98168SOL     OW96342   9.994   9.406   0.280
98168SOL    HW196343  10.020   9.476   0.220
98168SOL    HW296344  10.069   9.348   0.283
98169SOL     OW96345  11.502   2.749   1.104
98169SOL    HW196346  11.573   2.792   1.057
98169SOL    HW296347  11.465   2.818   1.159
98170SOL     OW96348  13.553  11.252  12.312
98170SOL    HW196349  13.475  11.215  12.352
98170SOL    HW296350  13.626  11.212  12.359
98171SOL     OW96351   2.979   2.375  11.314
98171SOL    HW196352   3.010   2.466  11.320
98171SOL    HW296353   3.030   2.338  11.242
98172SOL     OW96354   3.512   5.221  14.054
98172SOL    HW196355   3.553   5.150  14.004
98172SOL    HW296356   3.504   5.187  14.143
98173SOL     OW96357  10.557   1.164  12.473
98173SOL    HW196358  10.532   1.087  12.423
98173SOL    HW296359  10.559   1.235  12.409
98174SOL     OW96360   5.833   7.055   0.186
98174SOL    HW196361   5.793   7.055   0.273
98174SOL    HW296362   5.803   6.974   0.146
98175SOL     OW96363   3.322   3.997   9.071
98175SOL    HW196364   3.300   3.947   8.993
98175SOL    HW296365   3.269   4.076   9.065
98176SOL     OW96366   6.431   8.194   8.626
98176SOL    HW196367   6.455   8.107   8.656
98176SOL    HW296368   6.363   8.223   8.687
98177SOL     OW96369   3.528   2.941   4.887
98177SOL    HW196370   3.615   2.975   4.909
98177SOL    HW296371   3.532   2.848   4.911
98178SOL     OW96372  13.542  12.653   8.127
98178SOL    HW196373  13.604  12.582   8.110
98178SOL    HW296374  13.516  12.640   8.218
98179SOL     OW96375   6.005   4.093   4.365
98179SOL    HW196376   5.946   4.145   4.310
98179SOL    HW296377   6.093   4.117   4.335
98180SOL     OW96378   5.273  11.300   9.392
98180SOL    HW196379   5.360  11.265   9.410
98180SOL    HW296380   5.286  11.394   9.381
98181SOL     OW96381  11.992   7.081  10.725
98181SOL    HW196382  11.918   7.029  10.693
98181SOL    HW296383  12.050   7.018  10.767
98182SOL     OW96384  11.457   0.539   4.424
98182SOL    HW196385  11.479   0.548   4.517
98182SOL    HW296386  11.372   0.581   4.415
98183SOL     OW96387   7.437   2.219   5.771
98183SOL    HW196388   7.415   2.127   5.789
98183SOL    HW296389   7.509   2.238   5.831
98184SOL     OW96390   8.052  12.609  10.963
98184SOL    HW196391   7.962  12.596  10.932
98184SOL    HW296392   8.047  12.597  11.058
98185SOL     OW96393   1.708  10.263  12.482
98185SOL    HW196394   1.650  10.206  12.432
98185SOL    HW296395   1.715  10.221  12.567
98186SOL     OW96396   3.964   9.660  13.918
98186SOL    HW196397   3.978   9.629  13.828
98186SOL    HW296398   3.985   9.753  13.914
98187SOL     OW96399  13.258  12.617   3.524
98187SOL    HW196400  13.253  12.647   3.433
98187SOL    HW296401  13.352  12.607   3.540
98188SOL     OW96402   2.536   2.364  12.177
98188SOL    HW196403   2.627   2.347  12.202
98188SOL    HW296404   2.490   2.282  12.196
98189SOL     OW96405  11.198  11.683   8.841
98189SOL    HW196406  11.274  11.649   8.889
98189SOL    HW296407  11.217  11.662   8.750
98190SOL     OW96408   5.334  13.568  10.856
98190SOL    HW196409   5.415  13.537  10.815
98190SOL    HW296410   5.336  13.529  10.944
98191SOL     OW96411   7.250   0.664   4.496
98191SOL    HW196412   7.157   0.651   4.516
98191SOL    HW296413   7.278   0.580   4.459
98192SOL     OW96414  11.652  10.495   3.111
98192SOL    HW196415  11.689  10.416   3.072
98192SOL    HW296416  11.596  10.464   3.182
98193SOL     OW96417   9.279  12.962   7.762
98193SOL    HW196418   9.249  13.039   7.812
98193SOL    HW296419   9.374  12.963   7.772
98194SOL     OW96420   6.330   5.953  14.380
98194SOL    HW196421   6.413   5.992  14.353
98194SOL    HW296422   6.329   5.964  14.476
98195SOL     OW96423  12.251  11.397  10.943
98195SOL    HW196424  12.324  11.348  10.980
98195SOL    HW296425  12.286  11.433  10.861
98196SOL     OW96426   7.226   9.631   6.562
98196SOL    HW196427   7.138   9.658   6.535
98196SOL    HW296428   7.214   9.587   6.646
98197SOL     OW96429   4.689   4.110  14.017
98197SOL    HW196430   4.665   4.170  14.087
98197SOL    HW296431   4.612   4.110  13.959
98198SOL     OW96432  14.375   6.470  12.953
98198SOL    HW196433  14.340   6.402  12.895
98198SOL    HW296434  14.336   6.450  13.039
98199SOL     OW96435  11.850   9.149   1.186
98199SOL    HW196436  11.887   9.106   1.263
98199SOL    HW296437  11.926   9.163   1.129
98200SOL     OW96438   3.173   2.509  13.856
98200SOL    HW196439   3.238   2.462  13.908
98200SOL    HW296440   3.216   2.589  13.829
98201SOL     OW96441  10.546  10.891  14.128
98201SOL    HW196442  10.532  10.970  14.077
98201SOL    HW296443  10.633  10.903  14.167
98202SOL     OW96444   9.187  14.026   6.659
98202SOL    HW196445   9.199  13.955   6.596
98202SOL    HW296446   9.275  14.043   6.693
98203SOL     OW96447  11.387   1.038   6.857
98203SOL    HW196448  11.466   0.983   6.850
98203SOL    HW296449  11.363   1.056   6.767
98204SOL     OW96450   6.733   7.959   0.139
98204SOL    HW196451   6.738   8.009   0.221
98204SOL    HW296452   6.729   7.868   0.167
98205SOL     OW96453  14.199   0.498   3.757
98205SOL    HW196454  14.132   0.456   3.810
98205SOL    HW296455  14.282   0.462   3.789
98206SOL     OW96456  13.626   8.949   9.866
98206SOL    HW196457  13.655   9.040   9.872
98206SOL    HW296458  13.692   8.907   9.811
98207SOL     OW96459  10.928  12.039  12.692
98207SOL    HW196460  10.970  11.967  12.644
98207SOL    HW296461  10.909  12.105  12.625
98208SOL     OW96462  10.143  14.558   4.352
98208SOL    HW196463  10.072  14.596   4.404
98208SOL    HW296464  10.109  14.560   4.262
98209SOL     OW96465  10.429   5.696   1.909
98209SOL    HW196466  10.419   5.602   1.896
98209SOL    HW296467  10.463   5.729   1.826
98210SOL     OW96468   4.460   3.790   4.764
98210SOL    HW196469   4.517   3.840   4.823
98210SOL    HW296470   4.413   3.857   4.714
98211SOL     OW96471   9.901   4.652   6.057
98211SOL    HW196472   9.917   4.604   6.138
98211SOL    HW296473   9.884   4.583   5.992
98212SOL     OW96474   1.237   8.292   9.222
98212SOL    HW196475   1.324   8.264   9.253
98212SOL    HW296476   1.207   8.220   9.167
98213SOL     OW96477  11.308   9.757   6.229
98213SOL    HW196478  11.314   9.852   6.230
98213SOL    HW296479  11.388   9.728   6.273
98214SOL     OW96480  12.450   1.780  11.609
98214SOL    HW196481  12.433   1.839  11.683
98214SOL    HW296482  12.380   1.715  11.613
98215SOL     OW96483   4.518   2.161   4.541
98215SOL    HW196484   4.466   2.241   4.535
98215SOL    HW296485   4.526   2.145   4.635
98216SOL     OW96486   3.504   7.813  14.648
98216SOL    HW196487   3.566   7.885  14.636
98216SOL    HW296488   3.560   7.736  14.658
98217SOL     OW96489  10.658   5.765   8.634
98217SOL    HW196490  10.749   5.738   8.646
98217SOL    HW296491  10.615   5.741   8.716
98218SOL     OW96492  14.195  10.943   1.696
98218SOL    HW196493  14.272  10.944   1.753
98218SOL    HW296494  14.127  10.985   1.749
98219SOL     OW96495  11.101  13.262  13.306
98219SOL    HW196496  11.022  13.242  13.256
98219SOL    HW296497  11.099  13.203  13.380
98220SOL     OW96498   7.951  11.356   8.236
98220SOL    HW196499   7.973  11.319   8.151
98220SOL    HW296500   7.962  11.284   8.298
98221SOL     OW96501   7.399   3.725   5.473
98221SOL    HW196502   7.330   3.756   5.531
98221SOL    HW296503   7.374   3.756   5.386
98222SOL     OW96504   5.498   0.371   8.553
98222SOL    HW196505   5.418   0.419   8.575
98222SOL    HW296506   5.473   0.279   8.560
98223SOL     OW96507   7.211   0.030  12.350
98223SOL    HW196508   7.238   0.042  12.259
98223SOL    HW296509   7.229   0.114  12.392
98224SOL     OW96510  14.778   7.606   4.634
98224SOL    HW196511  14.810   7.641   4.717
98224SOL    HW296512  14.690   7.643   4.625
98225SOL     OW96513  11.927   0.713   5.921
98225SOL    HW196514  11.996   0.668   5.970
98225SOL    HW296515  11.971   0.786   5.878
98226SOL     OW96516  13.656  12.111  11.009
98226SOL    HW196517  13.600  12.037  11.034
98226SOL    HW296518  13.657  12.109  10.913
98227SOL     OW96519  10.695  10.957   8.029
98227SOL    HW196520  10.763  10.984   7.968
98227SOL    HW296521  10.668  10.871   7.998
98228SOL     OW96522   5.382   5.459  13.806
98228SOL    HW196523   5.474   5.440  13.819
98228SOL    HW296524   5.352   5.393  13.744
98229SOL     OW96525   2.761   3.252   4.696
98229SOL    HW196526   2.795   3.191   4.762
98229SOL    HW296527   2.796   3.220   4.613
98230SOL     OW96528  12.052  13.167   2.909
98230SOL    HW196529  12.144  13.196   2.911
98230SOL    HW296530  12.011  13.222   2.843
98231SOL     OW96531   0.447   9.078   7.556
98231SOL    HW196532   0.400   9.138   7.497
98231SOL    HW296533   0.380   9.047   7.617
98232SOL     OW96534   6.275   3.334   0.981
98232SOL    HW196535   6.206   3.389   0.945
98232SOL    HW296536   6.231   3.252   1.005
98233SOL     OW96537   2.865   2.004   4.125
98233SOL    HW196538   2.826   2.079   4.170
98233SOL    HW296539   2.826   1.928   4.167
98234SOL     OW96540  14.090  10.829   9.741
98234SOL    HW196541  13.997  10.812   9.756
98234SOL    HW296542  14.128  10.830   9.829
98235SOL     OW96543   5.598   1.312  13.529
98235SOL    HW196544   5.591   1.331  13.436
98235SOL    HW296545   5.545   1.380  13.572
98236SOL     OW96546   3.713   9.633   4.430
98236SOL    HW196547   3.667   9.713   4.452
98236SOL    HW296548   3.798   9.640   4.474
98237SOL     OW96549  11.542  14.729   9.349
98237SOL    HW196550  11.623  14.733   9.399
98237SOL    HW296551  11.562  14.775   9.267
98238SOL     OW96552  12.857   6.622   3.201
98238SOL    HW196553  12.933   6.566   3.183
98238SOL    HW296554  12.846   6.673   3.121
98239SOL     OW96555  14.496   3.944  12.291
98239SOL    HW196556  14.455   3.893  12.221
98239SOL    HW296557  14.546   3.880  12.342
98240SOL     OW96558   6.460  12.554  10.914
98240SOL    HW196559   6.520  12.490  10.952
98240SOL    HW296560   6.390  12.563  10.979
98241SOL     OW96561  10.179   8.581  13.367
98241SOL    HW196562  10.094   8.570  13.410
98241SOL    HW296563  10.166   8.546  13.278
98242SOL     OW96564   9.717   9.853   2.579
98242SOL    HW196565   9.699   9.896   2.662
98242SOL    HW296566   9.771   9.915   2.530
98243SOL     OW96567   8.562  13.398   7.506
98243SOL    HW196568   8.503  13.461   7.547
98243SOL    HW296569   8.517  13.373   7.425
98244SOL     OW96570   3.786   2.976   4.984
98244SOL    HW196571   3.742   2.944   5.063
98244SOL    HW296572   3.806   3.068   5.004
98245SOL     OW96573   1.141   9.200  13.940
98245SOL    HW196574   1.065   9.142  13.947
98245SOL    HW296575   1.145   9.222  13.847
98246SOL     OW96576   9.601   7.757  14.709
98246SOL    HW196577   9.676   7.779  14.655
98246SOL    HW296578   9.601   7.824  14.779
98247SOL     OW96579  13.674  11.504   0.757
98247SOL    HW196580  13.714  11.464   0.835
98247SOL    HW296581  13.587  11.530   0.786
98248SOL     OW96582   7.895   8.896   9.579
98248SOL    HW196583   7.938   8.893   9.493
98248SOL    HW296584   7.824   8.959   9.568
98249SOL     OW96585   5.138   4.256  13.402
98249SOL    HW196586   5.162   4.178  13.351
98249SOL    HW296587   5.055   4.232  13.443
98250SOL     OW96588  13.647   2.427   6.176
98250SOL    HW196589  13.729   2.469   6.200
98250SOL    HW296590  13.596   2.496   6.133
98251SOL     OW96591  13.916  10.688  13.276
98251SOL    HW196592  13.859  10.759  13.303
98251SOL    HW296593  13.859  10.627  13.229
98252SOL     OW96594   5.147   4.442   5.849
98252SOL    HW196595   5.063   4.487   5.854
98252SOL    HW296596   5.195   4.490   5.780
98253SOL     OW96597   0.914  13.113  10.514
98253SOL    HW196598   0.830  13.067  10.511
98253SOL    HW296599   0.893  13.200  10.546
98254SOL     OW96600  14.206   2.313   6.456
98254SOL    HW196601  14.227   2.240   6.515
98254SOL    HW296602  14.286   2.325   6.405
98255SOL     OW96603   5.646   9.010  14.045
98255SOL    HW196604   5.722   9.066  14.058
98255SOL    HW296605   5.633   8.966  14.129
98256SOL     OW96606   5.483  10.956  13.942
98256SOL    HW196607   5.575  10.949  13.969
98256SOL    HW296608   5.476  11.042  13.902
98257SOL     OW96609  13.472  13.759   4.953
98257SOL    HW196610  13.481  13.844   4.910
98257SOL    HW296611  13.517  13.698   4.895
98258SOL     OW96612  10.225  13.551   2.866
98258SOL    HW196613  10.179  13.630   2.837
98258SOL    HW296614  10.228  13.558   2.961
98259SOL     OW96615  12.052  12.798   6.581
98259SOL    HW196616  12.042  12.811   6.676
98259SOL    HW296617  12.137  12.755   6.572
98260SOL     OW96618  11.187   3.852  12.011
98260SOL    HW196619  11.112   3.911  12.023
98260SOL    HW296620  11.261   3.900  12.049
98261SOL     OW96621  13.076   5.046   6.631
98261SOL    HW196622  13.073   5.063   6.537
98261SOL    HW296623  13.163   5.007   6.645
98262SOL     OW96624  14.354   3.704   1.079
98262SOL    HW196625  14.343   3.757   1.159
98262SOL    HW296626  14.375   3.617   1.111
98263SOL     OW96627   8.216  13.680  13.121
98263SOL    HW196628   8.266  13.676  13.039
98263SOL    HW296629   8.151  13.749  13.106
98264SOL     OW96630   3.580   5.756   0.506
98264SOL    HW196631   3.649   5.702   0.468
98264SOL    HW296632   3.597   5.755   0.600
98265SOL     OW96633   1.485   7.744   4.821
98265SOL    HW196634   1.402   7.698   4.828
98265SOL    HW296635   1.551   7.677   4.835
98266SOL     OW96636   0.512   2.969   0.387
98266SOL    HW196637   0.497   3.023   0.310
98266SOL    HW296638   0.498   2.879   0.356
98267SOL     OW96639  13.440  10.500  11.590
98267SOL    HW196640  13.359  10.466  11.629
98267SOL    HW296641  13.434  10.595  11.601
98268SOL     OW96642  14.476   2.547   4.615
98268SOL    HW196643  14.443   2.478   4.673
98268SOL    HW296644  14.426   2.625   4.639
98269SOL     OW96645   1.872   2.379   1.049
98269SOL    HW196646   1.867   2.319   1.124
98269SOL    HW296647   1.947   2.347   0.998
98270SOL     OW96648   3.344   0.333  14.823
98270SOL    HW196649   3.258   0.374  14.832
98270SOL    HW296650   3.347   0.268   0.012
98271SOL     OW96651   5.986  10.077  12.462
98271SOL    HW196652   6.018  10.055  12.550
98271SOL    HW296653   6.065  10.087  12.409
98272SOL     OW96654   9.286   0.048   3.251
98272SOL    HW196655   9.288  14.835   3.249
98272SOL    HW296656   9.285   0.070   3.344
98273SOL     OW96657   9.471   1.610  12.704
98273SOL    HW196658   9.467   1.515  12.693
98273SOL    HW296659   9.392   1.632  12.754
98274SOL     OW96660   4.666  11.669   4.535
98274SOL    HW196661   4.633  11.581   4.517
98274SOL    HW296662   4.607  11.727   4.486
98275SOL     OW96663   5.081  11.126   4.235
98275SOL    HW196664   5.107  11.218   4.233
98275SOL    HW296665   4.985  11.129   4.231
98276SOL     OW96666  10.152   3.750   4.241
98276SOL    HW196667  10.137   3.658   4.264
98276SOL    HW296668  10.088   3.768   4.172
98277SOL     OW96669   7.294  14.518   4.014
98277SOL    HW196670   7.283  14.581   4.085
98277SOL    HW296671   7.354  14.452   4.049
98278SOL     OW96672  12.460   2.234   7.904
98278SOL    HW196673  12.462   2.160   7.844
98278SOL    HW296674  12.466   2.195   7.991
98279SOL     OW96675   2.233  13.194   8.077
98279SOL    HW196676   2.277  13.216   7.994
98279SOL    HW296677   2.292  13.226   8.145
98280SOL     OW96678  13.622   6.773  11.796
98280SOL    HW196679  13.571   6.767  11.877
98280SOL    HW296680  13.712   6.786  11.826
98281SOL     OW96681  11.641  12.135   7.598
98281SOL    HW196682  11.663  12.228   7.598
98281SOL    HW296683  11.679  12.101   7.678
98282SOL     OW96684  11.486   4.781  12.767
98282SOL    HW196685  11.576   4.810  12.752
98282SOL    HW296686  11.478   4.777  12.862
98283SOL     OW96687   0.774  10.896   1.874
98283SOL    HW196688   0.782  10.816   1.822
98283SOL    HW296689   0.802  10.966   1.814
98284SOL     OW96690   6.946  10.597   8.999
98284SOL    HW196691   7.040  10.586   9.015
98284SOL    HW296692   6.933  10.563   8.911
98285SOL     OW96693   2.477   7.674   4.539
98285SOL    HW196694   2.446   7.661   4.449
98285SOL    HW296695   2.464   7.589   4.581
98286SOL     OW96696   7.562   9.712   5.744
98286SOL    HW196697   7.643   9.716   5.694
98286SOL    HW296698   7.528   9.624   5.729
98287SOL     OW96699   5.807   6.124   2.316
98287SOL    HW196700   5.763   6.040   2.325
98287SOL    HW296701   5.748   6.187   2.358
98288SOL     OW96702  12.421  11.364  13.228
98288SOL    HW196703  12.468  11.328  13.153
98288SOL    HW296704  12.370  11.437  13.191
98289SOL     OW96705   5.983   9.734   8.730
98289SOL    HW196706   6.064   9.754   8.778
98289SOL    HW296707   5.914   9.771   8.785
98290SOL     OW96708   4.409   9.037   8.979
98290SOL    HW196709   4.354   9.113   8.998
98290SOL    HW296710   4.452   9.016   9.061
98291SOL     OW96711  12.132   3.889   5.290
98291SOL    HW196712  12.191   3.886   5.215
98291SOL    HW296713  12.086   3.805   5.288
98292SOL     OW96714   7.003   1.696   9.458
98292SOL    HW196715   6.987   1.638   9.532
98292SOL    HW296716   6.962   1.779   9.482
98293SOL     OW96717   0.902   3.385  11.304
98293SOL    HW196718   0.996   3.387  11.292
98293SOL    HW296719   0.873   3.309  11.253
98294SOL     OW96720   3.856   1.910   8.884
98294SOL    HW196721   3.800   1.937   8.957
98294SOL    HW296722   3.933   1.871   8.926
98295SOL     OW96723  12.368   2.642  11.839
98295SOL    HW196724  12.439   2.644  11.775
98295SOL    HW296725  12.325   2.558  11.824
98296SOL     OW96726   0.120   1.357   9.830
98296SOL    HW196727   0.068   1.388   9.904
98296SOL    HW296728   0.159   1.437   9.794
98297SOL     OW96729   5.198   9.500   1.838
98297SOL    HW196730   5.125   9.448   1.871
98297SOL    HW296731   5.156   9.567   1.783
98298SOL     OW96732   2.277  10.407   5.399
98298SOL    HW196733   2.247  10.410   5.490
98298SOL    HW296734   2.364  10.365   5.404
98299SOL     OW96735  12.605   9.888  13.142
98299SOL    HW196736  12.658   9.968  13.140
98299SOL    HW296737  12.596   9.862  13.051
98300SOL     OW96738  13.967   1.911   7.173
98300SOL    HW196739  13.938   1.948   7.090
98300SOL    HW296740  14.036   1.848   7.150
98301SOL     OW96741   4.265  14.644   1.809
98301SOL    HW196742   4.233  14.734   1.820
98301SOL    HW296743   4.316  14.646   1.728
98302SOL     OW96744   5.085   4.819   3.749
98302SOL    HW196745   5.164   4.873   3.746
98302SOL    HW296746   5.015   4.877   3.720
98303SOL     OW96747  11.661  12.065   1.978
98303SOL    HW196748  11.607  12.140   1.953
98303SOL    HW296749  11.599  12.003   2.016
98304SOL     OW96750   8.537  13.576  13.711
98304SOL    HW196751   8.534  13.594  13.617
98304SOL    HW296752   8.470  13.633  13.749
98305SOL     OW96753   6.549   8.950  10.796
98305SOL    HW196754   6.464   8.936  10.838
98305SOL    HW296755   6.549   9.043  10.772
98306SOL     OW96756   5.781   9.158   1.356
98306SOL    HW196757   5.787   9.114   1.440
98306SOL    HW296758   5.866   9.201   1.345
98307SOL     OW96759   5.220   2.247  13.197
98307SOL    HW196760   5.236   2.285  13.111
98307SOL    HW296761   5.234   2.319  13.258
98308SOL     OW96762   5.716   2.713  10.482
98308SOL    HW196763   5.747   2.623  10.479
98308SOL    HW296764   5.642   2.711  10.542
98309SOL     OW96765   8.662  13.939   9.087
98309SOL    HW196766   8.625  13.959   9.173
98309SOL    HW296767   8.710  14.018   9.062
98310SOL     OW96768   3.730   7.260   7.434
98310SOL    HW196769   3.825   7.271   7.437
98310SOL    HW296770   3.704   7.303   7.353
98311SOL     OW96771   0.676   7.338  10.439
98311SOL    HW196772   0.682   7.249  10.473
98311SOL    HW296773   0.641   7.390  10.511
98312SOL     OW96774   0.800  10.094  14.155
98312SOL    HW196775   0.764  10.010  14.126
98312SOL    HW296776   0.837  10.132  14.075
98313SOL     OW96777   4.629   1.615  13.549
98313SOL    HW196778   4.589   1.680  13.491
98313SOL    HW296779   4.651   1.542  13.491
98314SOL     OW96780   6.183  11.498   4.006
98314SOL    HW196781   6.266  11.542   4.025
98314SOL    HW296782   6.170  11.440   4.081
98315SOL     OW96783   0.820   5.036   8.074
98315SOL    HW196784   0.788   4.978   8.005
98315SOL    HW296785   0.860   5.109   8.027
98316SOL     OW96786   5.375   9.545  14.332
98316SOL    HW196787   5.386   9.639  14.341
98316SOL    HW296788   5.311   9.535  14.261
98317SOL     OW96789   5.833   7.227  14.646
98317SOL    HW196790   5.801   7.141  14.673
98317SOL    HW296791   5.923   7.212  14.617
98318SOL     OW96792  12.672   1.188   2.642
98318SOL    HW196793  12.604   1.194   2.576
98318SOL    HW296794  12.629   1.213   2.724
98319SOL     OW96795  14.657   1.711   0.516
98319SOL    HW196796  14.603   1.752   0.584
98319SOL    HW296797  14.596   1.657   0.467
98320SOL     OW96798   2.709  11.670  11.976
98320SOL    HW196799   2.671  11.629  12.054
98320SOL    HW296800   2.697  11.605  11.906
98321SOL     OW96801  11.750  10.652   0.259
98321SOL    HW196802  11.708  10.735   0.281
98321SOL    HW296803  11.843  10.667   0.276
98322SOL     OW96804   4.898   7.594   0.989
98322SOL    HW196805   4.985   7.579   0.952
98322SOL    HW296806   4.843   7.617   0.914
98323SOL     OW96807   2.995  13.397  11.092
98323SOL    HW196808   2.915  13.427  11.048
98323SOL    HW296809   2.979  13.412  11.185
98324SOL     OW96810   0.808  11.193   5.589
98324SOL    HW196811   0.757  11.257   5.639
98324SOL    HW296812   0.751  11.167   5.517
98325SOL     OW96813   2.119   2.561   3.224
98325SOL    HW196814   2.186   2.607   3.173
98325SOL    HW296815   2.161   2.541   3.307
98326SOL     OW96816   6.617  12.707  10.479
98326SOL    HW196817   6.532  12.720  10.521
98326SOL    HW296818   6.644  12.795  10.452
98327SOL     OW96819   7.584  10.153  14.583
98327SOL    HW196820   7.662  10.208  14.585
98327SOL    HW296821   7.615  10.069  14.549
98328SOL     OW96822   6.400   6.225  12.875
98328SOL    HW196823   6.382   6.312  12.839
98328SOL    HW296824   6.360   6.228  12.962
98329SOL     OW96825  13.733  11.892   8.678
98329SOL    HW196826  13.827  11.870   8.680
98329SOL    HW296827  13.696  11.842   8.751
98330SOL     OW96828   6.439  11.372   3.509
98330SOL    HW196829   6.477  11.459   3.496
98330SOL    HW296830   6.506  11.312   3.478
98331SOL     OW96831   8.438   4.481   1.473
98331SOL    HW196832   8.466   4.555   1.526
98331SOL    HW296833   8.343   4.490   1.467
98332SOL     OW96834   0.071   8.089   2.867
98332SOL    HW196835   0.133   8.099   2.939
98332SOL    HW296836   0.043   8.179   2.846
98333SOL     OW96837   5.768   6.611   0.725
98333SOL    HW196838   5.821   6.559   0.785
98333SOL    HW296839   5.824   6.623   0.648
98334SOL     OW96840   1.562   8.213   2.945
98334SOL    HW196841   1.584   8.122   2.964
98334SOL    HW296842   1.468   8.220   2.964
98335SOL     OW96843   5.898  11.412   2.152
98335SOL    HW196844   5.983  11.368   2.158
98335SOL    HW296845   5.917  11.496   2.111
98336SOL     OW96846   0.750   2.031   7.002
98336SOL    HW196847   0.750   2.115   6.957
98336SOL    HW296848   0.822   2.037   7.065
98337SOL     OW96849   2.600  10.928   9.847
98337SOL    HW196850   2.513  10.891   9.862
98337SOL    HW296851   2.642  10.866   9.789
98338SOL     OW96852   2.029   5.594  10.867
98338SOL    HW196853   1.942   5.628  10.888
98338SOL    HW296854   2.013   5.526  10.801
98339SOL     OW96855   8.344   6.686  14.308
98339SOL    HW196856   8.337   6.591  14.299
98339SOL    HW296857   8.329   6.720  14.220
98340SOL     OW96858   5.486   9.309  14.765
98340SOL    HW196859   5.432   9.259  14.703
98340SOL    HW296860   5.496   9.395  14.724
98341SOL     OW96861   0.584   1.023  12.710
98341SOL    HW196862   0.541   0.974  12.641
98341SOL    HW296863   0.623   0.957  12.767
98342SOL     OW96864   9.537  11.470   6.122
98342SOL    HW196865   9.587  11.413   6.064
98342SOL    HW296866   9.602  11.507   6.182
98343SOL     OW96867   2.919   7.254   8.757
98343SOL    HW196868   2.940   7.318   8.825
98343SOL    HW296869   3.001   7.206   8.743
98344SOL     OW96870  10.033   8.298   1.469
98344SOL    HW196871  10.046   8.392   1.477
98344SOL    HW296872  10.017   8.283   1.376
98345SOL     OW96873  11.924  12.781  11.451
98345SOL    HW196874  11.871  12.719  11.501
98345SOL    HW296875  12.014  12.752  11.464
98346SOL     OW96876  13.682   8.794   8.380
98346SOL    HW196877  13.748   8.786   8.449
98346SOL    HW296878  13.726   8.842   8.310
98347SOL     OW96879   1.865   7.254  12.626
98347SOL    HW196880   1.926   7.185  12.601
98347SOL    HW296881   1.813   7.270  12.547
98348SOL     OW96882   6.415  13.311   0.230
98348SOL    HW196883   6.504  13.343   0.239
98348SOL    HW296884   6.415  13.225   0.271
98349SOL     OW96885  12.587   7.330   9.382
98349SOL    HW196886  12.562   7.342   9.290
98349SOL    HW296887  12.566   7.414   9.424
98350SOL     OW96888   4.916   2.965   6.516
98350SOL    HW196889   4.907   2.873   6.544
98350SOL    HW296890   4.911   3.015   6.598
98351SOL     OW96891   7.913  11.372  14.697
98351SOL    HW196892   7.873  11.428  14.631
98351SOL    HW296893   7.998  11.349  14.660
98352SOL     OW96894   5.549  13.324   1.727
98352SOL    HW196895   5.601  13.373   1.663
98352SOL    HW296896   5.492  13.268   1.673
98353SOL     OW96897   7.782  10.090   9.186
98353SOL    HW196898   7.776  10.036   9.266
98353SOL    HW296899   7.876  10.099   9.170
98354SOL     OW96900  14.683   9.001   5.502
98354SOL    HW196901  14.710   8.922   5.454
98354SOL    HW296902  14.605   8.973   5.551
98355SOL     OW96903  13.233   6.776  10.614
98355SOL    HW196904  13.176   6.706  10.646
98355SOL    HW296905  13.319   6.755  10.649
98356SOL     OW96906   3.338   2.752  12.357
98356SOL    HW196907   3.370   2.674  12.401
98356SOL    HW296908   3.348   2.732  12.264
98357SOL     OW96909  13.141   9.911   5.074
98357SOL    HW196910  13.098   9.825   5.076
98357SOL    HW296911  13.209   9.905   5.141
98358SOL     OW96912   6.343  12.505   4.273
98358SOL    HW196913   6.393  12.500   4.355
98358SOL    HW296914   6.261  12.548   4.298
98359SOL     OW96915   7.548   6.987   1.247
98359SOL    HW196916   7.516   7.029   1.327
98359SOL    HW296917   7.483   7.008   1.181
98360SOL     OW96918   5.790   3.621  13.702
98360SOL    HW196919   5.820   3.640  13.613
98360SOL    HW296920   5.730   3.548  13.692
98361SOL     OW96921  11.639   0.620  14.026
98361SOL    HW196922  11.702   0.562  14.069
98361SOL    HW296923  11.554   0.577  14.040
98362SOL     OW96924   0.367   7.726   0.101
98362SOL    HW196925   0.296   7.757   0.156
98362SOL    HW296926   0.379   7.796   0.036
98363SOL     OW96927   5.647   4.259   0.681
98363SOL    HW196928   5.603   4.178   0.707
98363SOL    HW296929   5.592   4.296   0.612
98364SOL     OW96930  11.683   9.970   6.687
98364SOL    HW196931  11.592   9.969   6.715
98364SOL    HW296932  11.711  10.061   6.696
98365SOL     OW96933   8.447   9.899  14.115
98365SOL    HW196934   8.388   9.974  14.100
98365SOL    HW296935   8.517   9.911  14.051
98366SOL     OW96936   2.652   4.766  11.945
98366SOL    HW196937   2.559   4.754  11.928
98366SOL    HW296938   2.657   4.847  11.997
98367SOL     OW96939   1.322   6.042   4.178
98367SOL    HW196940   1.278   5.984   4.240
98367SOL    HW296941   1.317   5.996   4.094
98368SOL     OW96942   7.016  11.467  11.194
98368SOL    HW196943   7.072  11.391  11.208
98368SOL    HW296944   6.934  11.445  11.238
98369SOL     OW96945   4.450  12.470   9.112
98369SOL    HW196946   4.409  12.385   9.093
98369SOL    HW296947   4.491  12.458   9.197
98370SOL     OW96948   0.470  12.621   1.961
98370SOL    HW196949   0.501  12.544   1.913
98370SOL    HW296950   0.531  12.630   2.033
98371SOL     OW96951  11.868  13.659  14.225
98371SOL    HW196952  11.916  13.653  14.143
98371SOL    HW296953  11.892  13.580  14.273
98372SOL     OW96954   4.257   1.495  10.829
98372SOL    HW196955   4.251   1.453  10.915
98372SOL    HW296956   4.191   1.563  10.832
98373SOL     OW96957  14.061   0.702   5.339
98373SOL    HW196958  14.067   0.629   5.400
98373SOL    HW296959  13.968   0.705   5.314
98374SOL     OW96960   3.422   0.054   4.389
98374SOL    HW196961   3.428   0.022   4.299
98374SOL    HW296962   3.505   0.030   4.429
98375SOL     OW96963   4.258   1.618   8.241
98375SOL    HW196964   4.272   1.711   8.221
98375SOL    HW296965   4.272   1.612   8.336
98376SOL     OW96966   7.906   9.112   2.339
98376SOL    HW196967   7.817   9.116   2.305
98376SOL    HW296968   7.959   9.083   2.265
98377SOL     OW96969  10.629   5.684   8.944
98377SOL    HW196970  10.611   5.651   9.032
98377SOL    HW296971  10.689   5.757   8.957
98378SOL     OW96972   7.929   7.382  12.989
98378SOL    HW196973   7.899   7.298  13.025
98378SOL    HW296974   8.003   7.407  13.043
98379SOL     OW96975   3.144  13.382   0.831
98379SOL    HW196976   3.209  13.452   0.826
98379SOL    HW296977   3.142  13.357   0.924
98380SOL     OW96978   4.825   5.817  14.630
98380SOL    HW196979   4.798   5.777  14.712
98380SOL    HW296980   4.906   5.771  14.606
98381SOL     OW96981   7.220   1.317   3.956
98381SOL    HW196982   7.188   1.398   3.997
98381SOL    HW296983   7.295   1.345   3.904
98382SOL     OW96984   6.221   8.266  14.454
98382SOL    HW196985   6.234   8.191  14.513
98382SOL    HW296986   6.200   8.339  14.512
98383SOL     OW96987   5.942   6.920  13.738
98383SOL    HW196988   5.925   6.928  13.644
98383SOL    HW296989   5.906   7.000  13.776
98384SOL     OW96990   1.753  14.194   3.660
98384SOL    HW196991   1.665  14.199   3.623
98384SOL    HW296992   1.761  14.104   3.691
98385SOL     OW96993   4.896  12.927  10.875
98385SOL    HW196994   4.864  12.868  10.807
98385SOL    HW296995   4.987  12.945  10.849
98386SOL     OW96996  13.497  14.814   8.232
98386SOL    HW196997  13.474  14.724   8.251
98386SOL    HW296998  13.578  14.808   8.180
98387SOL     OW96999   7.088   3.126   5.091
98387SOL    HW197000   7.109   3.034   5.077
98387SOL    HW297001   7.108   3.141   5.184
98388SOL     OW97002   6.843   4.629  11.360
98388SOL    HW197003   6.809   4.584  11.283
98388SOL    HW297004   6.766   4.652  11.411
98389SOL     OW97005   4.786  14.528   7.964
98389SOL    HW197006   4.866  14.535   7.911
98389SOL    HW297007   4.812  14.474   8.039
98390SOL     OW97008  13.263   0.077  13.160
98390SOL    HW197009  13.294   0.077  13.251
98390SOL    HW297010  13.341   0.100  13.109
98391SOL     OW97011   1.261   0.981   4.992
98391SOL    HW197012   1.280   1.045   5.060
98391SOL    HW297013   1.191   1.021   4.940
98392SOL     OW97014   7.210  10.922   4.074
98392SOL    HW197015   7.158  10.867   4.132
98392SOL    HW297016   7.227  10.867   3.998
98393SOL     OW97017   1.654   4.340   3.999
98393SOL    HW197018   1.608   4.326   3.916
98393SOL    HW297019   1.601   4.293   4.064
98394SOL     OW97020  12.599   2.830   2.049
98394SOL    HW197021  12.600   2.845   1.955
98394SOL    HW297022  12.528   2.885   2.082
98395SOL     OW97023   6.004   6.487   5.950
98395SOL    HW197024   6.031   6.495   6.041
98395SOL    HW297025   5.949   6.409   5.948
98396SOL     OW97026   0.976   2.930  12.341
98396SOL    HW197027   0.938   3.017  12.348
98396SOL    HW297028   1.051   2.940  12.283
98397SOL     OW97029   2.254   9.733   1.811
98397SOL    HW197030   2.206   9.789   1.749
98397SOL    HW297031   2.268   9.651   1.764
98398SOL     OW97032  14.595   1.218  12.807
98398SOL    HW197033  14.529   1.287  12.815
98398SOL    HW297034  14.672   1.263  12.772
98399SOL     OW97035   6.678   1.703  13.468
98399SOL    HW197036   6.762   1.747  13.478
98399SOL    HW297037   6.613   1.771  13.485
98400SOL     OW97038   8.117   6.003  12.993
98400SOL    HW197039   8.087   5.935  12.934
98400SOL    HW297040   8.037   6.037  13.034
98401SOL     OW97041   6.651  10.815   5.083
98401SOL    HW197042   6.562  10.850   5.081
98401SOL    HW297043   6.675  10.815   5.176
98402SOL     OW97044  14.096   4.218  13.806
98402SOL    HW197045  14.157   4.278  13.849
98402SOL    HW297046  14.010   4.248  13.833
98403SOL     OW97047   1.538  13.074   1.914
98403SOL    HW197048   1.468  13.115   1.965
98403SOL    HW297049   1.603  13.048   1.980
98404SOL     OW97050   9.055   8.276   7.083
98404SOL    HW197051   9.085   8.186   7.093
98404SOL    HW297052   9.129   8.322   7.042
98405SOL     OW97053   2.058  13.208  12.620
98405SOL    HW197054   2.033  13.257  12.698
98405SOL    HW297055   2.023  13.120  12.634
98406SOL     OW97056   6.810   3.238   3.925
98406SOL    HW197057   6.769   3.251   4.011
98406SOL    HW297058   6.888   3.293   3.927
98407SOL     OW97059   4.031   7.953   0.946
98407SOL    HW197060   4.041   7.858   0.954
98407SOL    HW297061   4.030   7.968   0.851
98408SOL     OW97062  10.586   9.419   8.110
98408SOL    HW197063  10.492   9.414   8.091
98408SOL    HW297064  10.616   9.494   8.059
98409SOL     OW97065   3.085   8.003   5.601
98409SOL    HW197066   3.179   7.994   5.587
98409SOL    HW297067   3.061   7.929   5.656
98410SOL     OW97068  13.804   2.452   7.608
98410SOL    HW197069  13.726   2.397   7.615
98410SOL    HW297070  13.874   2.392   7.581
98411SOL     OW97071   9.599   1.488   7.080
98411SOL    HW197072   9.625   1.509   6.990
98411SOL    HW297073   9.549   1.406   7.072
98412SOL     OW97074   1.758  10.630  10.957
98412SOL    HW197075   1.787  10.621  11.048
98412SOL    HW297076   1.765  10.542  10.921
98413SOL     OW97077  13.746   3.135  14.034
98413SOL    HW197078  13.726   3.224  14.064
98413SOL    HW297079  13.746   3.141  13.939
98414SOL     OW97080   9.262   5.270   6.629
98414SOL    HW197081   9.273   5.180   6.659
98414SOL    HW297082   9.168   5.281   6.618
98415SOL     OW97083  11.468  10.955   9.672
98415SOL    HW197084  11.389  10.904   9.691
98415SOL    HW297085  11.434  11.035   9.631
98416SOL     OW97086   8.965  14.466   4.090
98416SOL    HW197087   8.915  14.431   4.016
98416SOL    HW297088   8.901  14.470   4.161
98417SOL     OW97089  11.610   9.634   7.227
98417SOL    HW197090  11.536   9.678   7.270
98417SOL    HW297091  11.592   9.646   7.133
98418SOL     OW97092  12.839   9.563   0.901
98418SOL    HW197093  12.919   9.545   0.852
98418SOL    HW297094  12.861   9.635   0.960
98419SOL     OW97095   6.197   4.539  14.478
98419SOL    HW197096   6.282   4.513  14.441
98419SOL    HW297097   6.157   4.457  14.505
98420SOL     OW97098   2.860  14.616   8.706
98420SOL    HW197099   2.874  14.526   8.676
98420SOL    HW297100   2.820  14.661   8.632
98421SOL     OW97101   4.546  12.999   0.781
98421SOL    HW197102   4.614  13.050   0.738
98421SOL    HW297103   4.579  12.984   0.869
98422SOL     OW97104   3.149  12.988  12.339
98422SOL    HW197105   3.120  12.997  12.430
98422SOL    HW297106   3.181  13.075  12.316
98423SOL     OW97107  13.053   0.958  14.343
98423SOL    HW197108  13.093   0.922  14.264
98423SOL    HW297109  13.003   1.034  14.312
98424SOL     OW97110  12.347   8.954   5.357
98424SOL    HW197111  12.262   8.933   5.317
98424SOL    HW297112  12.328   9.029   5.413
98425SOL     OW97113  10.351   0.296   2.256
98425SOL    HW197114  10.435   0.340   2.247
98425SOL    HW297115  10.363   0.235   2.329
98426SOL     OW97116  11.221   9.139   7.784
98426SOL    HW197117  11.278   9.067   7.756
98426SOL    HW297118  11.248   9.158   7.874
98427SOL     OW97119  14.289  11.497  14.878
98427SOL    HW197120  14.336  11.473  14.799
98427SOL    HW297121  14.349  11.478   0.067
98428SOL     OW97122   6.832   5.204   8.614
98428SOL    HW197123   6.890   5.191   8.538
98428SOL    HW297124   6.790   5.119   8.627
98429SOL     OW97125   1.606   9.038   1.319
98429SOL    HW197126   1.643   9.005   1.401
98429SOL    HW297127   1.511   9.039   1.335
98430SOL     OW97128   9.403  10.782   6.205
98430SOL    HW197129   9.313  10.806   6.184
98430SOL    HW297130   9.424  10.836   6.281
98431SOL     OW97131  13.980   9.908  11.649
98431SOL    HW197132  13.893   9.924  11.614
98431SOL    HW297133  13.966   9.853  11.726
98432SOL     OW97134  12.389   5.790   8.464
98432SOL    HW197135  12.462   5.749   8.510
98432SOL    HW297136  12.327   5.814   8.533
98433SOL     OW97137  11.102  12.677   1.191
98433SOL    HW197138  11.161  12.737   1.147
98433SOL    HW297139  11.025  12.730   1.212
98434SOL     OW97140   5.478  14.606   4.631
98434SOL    HW197141   5.393  14.588   4.592
98434SOL    HW297142   5.537  14.542   4.590
98435SOL     OW97143  11.149   1.696   6.785
98435SOL    HW197144  11.230   1.735   6.751
98435SOL    HW297145  11.177   1.648   6.863
98436SOL     OW97146   6.055   3.520   2.343
98436SOL    HW197147   6.105   3.497   2.421
98436SOL    HW297148   5.964   3.520   2.373
98437SOL     OW97149  14.262   7.180   2.167
98437SOL    HW197150  14.218   7.136   2.094
98437SOL    HW297151  14.195   7.238   2.204
98438SOL     OW97152   7.475   8.964   5.401
98438SOL    HW197153   7.460   8.875   5.432
98438SOL    HW297154   7.409   9.016   5.447
98439SOL     OW97155   7.553   0.707  12.722
98439SOL    HW197156   7.463   0.676  12.734
98439SOL    HW297157   7.603   0.629  12.701
98440SOL     OW97158  10.212   5.234  14.091
98440SOL    HW197159  10.200   5.149  14.049
98440SOL    HW297160  10.204   5.298  14.019
98441SOL     OW97161   0.073   7.203  10.248
98441SOL    HW197162   0.105   7.267  10.312
98441SOL    HW297163   0.135   7.209  10.175
98442SOL     OW97164  13.231   2.024   2.782
98442SOL    HW197165  13.322   2.002   2.763
98442SOL    HW297166  13.196   2.054   2.698
98443SOL     OW97167   0.178  11.352   6.627
98443SOL    HW197168   0.193  11.259   6.608
98443SOL    HW297169   0.264  11.386   6.651
98444SOL     OW97170   3.887  11.848   7.437
98444SOL    HW197171   3.890  11.944   7.429
98444SOL    HW297172   3.884  11.817   7.346
98445SOL     OW97173   1.627   9.729   6.873
98445SOL    HW197174   1.616   9.775   6.956
98445SOL    HW297175   1.617   9.798   6.807
98446SOL     OW97176  12.268   4.596  12.030
98446SOL    HW197177  12.263   4.517  11.976
98446SOL    HW297178  12.235   4.666  11.974
98447SOL     OW97179  11.125   0.776  10.331
98447SOL    HW197180  11.100   0.685  10.310
98447SOL    HW297181  11.173   0.769  10.413
98448SOL     OW97182   9.239   6.317   1.294
98448SOL    HW197183   9.153   6.297   1.258
98448SOL    HW297184   9.286   6.359   1.222
98449SOL     OW97185   4.686   9.047   1.921
98449SOL    HW197186   4.773   9.082   1.902
98449SOL    HW297187   4.684   9.037   2.016
98450SOL     OW97188  10.462   8.185   6.394
98450SOL    HW197189  10.503   8.145   6.470
98450SOL    HW297190  10.413   8.114   6.353
98451SOL     OW97191   1.436   0.035   9.003
98451SOL    HW197192   1.494   0.065   9.073
98451SOL    HW297193   1.370   0.104   8.995
98452SOL     OW97194  14.519  10.627  11.314
98452SOL    HW197195  14.572  10.548  11.330
98452SOL    HW297196  14.556  10.664  11.233
98453SOL     OW97197   3.103   4.463   7.979
98453SOL    HW197198   3.190   4.450   8.016
98453SOL    HW297199   3.056   4.382   7.999
98454SOL     OW97200  11.182   2.827   4.711
98454SOL    HW197201  11.159   2.736   4.725
98454SOL    HW297202  11.268   2.825   4.670
98455SOL     OW97203  10.555   4.507   5.994
98455SOL    HW197204  10.603   4.567   6.052
98455SOL    HW297205  10.576   4.537   5.906
98456SOL     OW97206  12.492   4.637  14.344
98456SOL    HW197207  12.416   4.691  14.322
98456SOL    HW297208  12.565   4.679  14.298
98457SOL     OW97209   3.302  12.060  14.598
98457SOL    HW197210   3.331  12.114  14.671
98457SOL    HW297211   3.379  12.051  14.542
98458SOL     OW97212  12.648   7.374  12.065
98458SOL    HW197213  12.635   7.325  12.146
98458SOL    HW297214  12.714   7.324  12.017
98459SOL     OW97215   4.712  10.912   0.181
98459SOL    HW197216   4.652  10.902   0.107
98459SOL    HW297217   4.754  10.997   0.166
98460SOL     OW97218   3.999   3.549   9.293
98460SOL    HW197219   3.955   3.543   9.208
98460SOL    HW297220   3.937   3.593   9.349
98461SOL     OW97221  12.571   0.890  13.954
98461SOL    HW197222  12.511   0.891  13.879
98461SOL    HW297223  12.518   0.860  14.027
98462SOL     OW97224   1.153  11.451   1.948
98462SOL    HW197225   1.153  11.400   2.028
98462SOL    HW297226   1.162  11.386   1.878
98463SOL     OW97227  11.338   4.603  10.733
98463SOL    HW197228  11.259   4.587  10.784
98463SOL    HW297229  11.328   4.692  10.699
98464SOL     OW97230  10.358   5.349   4.848
98464SOL    HW197231  10.319   5.413   4.909
98464SOL    HW297232  10.439   5.322   4.891
98465SOL     OW97233   6.555   1.803   2.666
98465SOL    HW197234   6.482   1.745   2.643
98465SOL    HW297235   6.546   1.877   2.606
98466SOL     OW97236  14.321  12.701   5.893
98466SOL    HW197237  14.393  12.727   5.951
98466SOL    HW297238  14.257  12.772   5.903
98467SOL     OW97239   5.832   1.021   5.231
98467SOL    HW197240   5.759   1.019   5.293
98467SOL    HW297241   5.899   1.074   5.276
98468SOL     OW97242   0.041   8.665   1.359
98468SOL    HW197243   0.075   8.731   1.297
98468SOL    HW297244  14.871   8.606   1.305
98469SOL     OW97245   4.978   6.815  13.270
98469SOL    HW197246   5.050   6.759  13.241
98469SOL    HW297247   4.902   6.785  13.220
98470SOL     OW97248   9.185   2.218  11.300
98470SOL    HW197249   9.261   2.263  11.337
98470SOL    HW297250   9.210   2.125  11.300
98471SOL     OW97251   1.051   4.753   6.102
98471SOL    HW197252   1.068   4.661   6.123
98471SOL    HW297253   1.008   4.788   6.179
98472SOL     OW97254  10.251   2.747   3.085
98472SOL    HW197255  10.345   2.735   3.095
98472SOL    HW297256  10.243   2.822   3.026
98473SOL     OW97257   8.464   9.604  11.726
98473SOL    HW197258   8.431   9.558  11.804
98473SOL    HW297259   8.520   9.540  11.682
98474SOL     OW97260   6.984   5.125  12.788
98474SOL    HW197261   7.048   5.180  12.742
98474SOL    HW297262   6.916   5.108  12.723
98475SOL     OW97263   0.922   4.356   3.560
98475SOL    HW197264   0.871   4.395   3.632
98475SOL    HW297265   0.994   4.311   3.604
98476SOL     OW97266   8.916   7.997  10.448
98476SOL    HW197267   8.860   7.948  10.509
98476SOL    HW297268   8.854   8.043  10.391
98477SOL     OW97269   4.316  14.723  10.296
98477SOL    HW197270   4.266  14.796  10.331
98477SOL    HW297271   4.407  14.752  10.300
98478SOL     OW97272   9.239   9.427   3.014
98478SOL    HW197273   9.215   9.338   3.042
98478SOL    HW297274   9.328   9.438   3.045
98479SOL     OW97275  12.122   7.921   7.948
98479SOL    HW197276  12.074   7.968   7.879
98479SOL    HW297277  12.054   7.893   8.009
98480SOL     OW97278   3.396   1.887   6.944
98480SOL    HW197279   3.423   1.899   7.035
98480SOL    HW297280   3.400   1.975   6.906
98481SOL     OW97281   3.220   4.532   1.688
98481SOL    HW197282   3.219   4.499   1.777
98481SOL    HW297283   3.185   4.461   1.635
98482SOL     OW97284   2.999  12.338  10.193
98482SOL    HW197285   3.063  12.374  10.131
98482SOL    HW297286   2.942  12.283  10.138
98483SOL     OW97287  12.444   0.566  10.910
98483SOL    HW197288  12.495   0.620  10.849
98483SOL    HW297289  12.503   0.495  10.933
98484SOL     OW97290   2.717  12.835  11.815
98484SOL    HW197291   2.813  12.836  11.811
98484SOL    HW297292   2.691  12.912  11.764
98485SOL     OW97293   6.052  14.853   0.118
98485SOL    HW197294   6.085  14.806   0.194
98485SOL    HW297295   6.002  14.788   0.069
98486SOL     OW97296   6.927   2.538  13.322
98486SOL    HW197297   6.897   2.447  13.327
98486SOL    HW297298   6.907   2.574  13.409
98487SOL     OW97299   4.918   0.369   8.270
98487SOL    HW197300   4.878   0.454   8.253
98487SOL    HW297301   4.980   0.386   8.341
98488SOL     OW97302   6.295   7.990  12.532
98488SOL    HW197303   6.221   7.990  12.471
98488SOL    HW297304   6.314   7.897  12.546
98489SOL     OW97305  13.956   6.992   3.751
98489SOL    HW197306  14.012   7.047   3.696
98489SOL    HW297307  13.966   7.029   3.839
98490SOL     OW97308  10.010   1.306  12.971
98490SOL    HW197309  10.026   1.398  12.991
98490SOL    HW297310  10.058   1.258  13.038
98491SOL     OW97311   2.516  10.881  10.298
98491SOL    HW197312   2.445  10.834  10.254
98491SOL    HW297313   2.587  10.883  10.235
98492SOL     OW97314  11.525   1.777   7.818
98492SOL    HW197315  11.608   1.823   7.809
98492SOL    HW297316  11.534   1.700   7.762
98493SOL     OW97317  13.063   0.344  13.812
98493SOL    HW197318  13.033   0.386  13.731
98493SOL    HW297319  13.140   0.293  13.784
98494SOL     OW97320   0.661  12.766  10.734
98494SOL    HW197321   0.728  12.706  10.702
98494SOL    HW297322   0.593  12.709  10.771
98495SOL     OW97323   4.447   6.584   7.741
98495SOL    HW197324   4.401   6.668   7.740
98495SOL    HW297325   4.538   6.606   7.758
98496SOL     OW97326   0.608   4.783  14.335
98496SOL    HW197327   0.663   4.837  14.280
98496SOL    HW297328   0.579   4.712  14.278
98497SOL     OW97329   8.861   3.966   1.173
98497SOL    HW197330   8.800   3.955   1.100
98497SOL    HW297331   8.817   4.027   1.232
98498SOL     OW97332  12.678   7.925   5.683
98498SOL    HW197333  12.720   7.958   5.603
98498SOL    HW297334  12.593   7.969   5.686
98499SOL     OW97335   8.595  12.033  13.842
98499SOL    HW197336   8.547  12.108  13.878
98499SOL    HW297337   8.532  11.990  13.784
98500SOL     OW97338   3.579   1.639  12.634
98500SOL    HW197339   3.490   1.674  12.648
98500SOL    HW297340   3.625   1.709  12.587
98501SOL     OW97341  13.821  12.837  11.289
98501SOL    HW197342  13.783  12.751  11.274
98501SOL    HW297343  13.799  12.887  11.211
98502SOL     OW97344  11.287   7.493  13.850
98502SOL    HW197345  11.226   7.450  13.910
98502SOL    HW297346  11.370   7.448  13.865
98503SOL     OW97347   2.928  14.718  14.816
98503SOL    HW197348   2.998  14.703  14.879
98503SOL    HW297349   2.956  14.794  14.766
98504SOL     OW97350   3.960   3.581  13.569
98504SOL    HW197351   3.921   3.541  13.491
98504SOL    HW297352   4.047   3.607  13.540
98505SOL     OW97353   5.825   2.137  13.932
98505SOL    HW197354   5.793   2.206  13.874
98505SOL    HW297355   5.913   2.118  13.900
98506SOL     OW97356   7.058  12.523  12.259
98506SOL    HW197357   7.125  12.484  12.203
98506SOL    HW297358   7.000  12.570  12.198
98507SOL     OW97359   1.139   4.048  14.814
98507SOL    HW197360   1.121   4.139  14.792
98507SOL    HW297361   1.192   4.016  14.741
98508SOL     OW97362   8.952   2.035   0.588
98508SOL    HW197363   8.942   1.970   0.519
98508SOL    HW297364   9.030   2.085   0.563
98509SOL     OW97365  12.547   6.072   1.701
98509SOL    HW197366  12.511   6.064   1.612
98509SOL    HW297367  12.549   6.167   1.717
98510SOL     OW97368   9.435   2.532   7.764
98510SOL    HW197369   9.374   2.604   7.752
98510SOL    HW297370   9.512   2.556   7.713
98511SOL     OW97371   4.044   4.642   4.747
98511SOL    HW197372   4.058   4.657   4.653
98511SOL    HW297373   4.015   4.726   4.781
98512SOL     OW97374   0.242  12.070   7.584
98512SOL    HW197375   0.318  12.025   7.546
98512SOL    HW297376   0.254  12.162   7.561
98513SOL     OW97377   7.073   5.606  12.307
98513SOL    HW197378   7.067   5.695  12.272
98513SOL    HW297379   6.986   5.570  12.296
98514SOL     OW97380  13.616  10.471   6.174
98514SOL    HW197381  13.692  10.499   6.123
98514SOL    HW297382  13.627  10.514   6.259
98515SOL     OW97383  14.551   9.401   3.297
98515SOL    HW197384  14.626   9.345   3.280
98515SOL    HW297385  14.590   9.485   3.323
98516SOL     OW97386  10.981  10.510   8.836
98516SOL    HW197387  11.033  10.445   8.789
98516SOL    HW297388  10.910  10.532   8.776
98517SOL     OW97389   2.356   3.444  11.627
98517SOL    HW197390   2.346   3.350  11.643
98517SOL    HW297391   2.386   3.480  11.711
98518SOL     OW97392   3.827   4.808  12.432
98518SOL    HW197393   3.817   4.801  12.337
98518SOL    HW297394   3.740   4.789  12.467
98519SOL     OW97395   2.455  11.253   6.059
98519SOL    HW197396   2.504  11.335   6.063
98519SOL    HW297397   2.514  11.192   6.017
98520SOL     OW97398  12.453   4.940   5.187
98520SOL    HW197399  12.381   4.997   5.212
98520SOL    HW297400  12.429   4.908   5.100
98521SOL     OW97401   4.264   0.741   1.799
98521SOL    HW197402   4.238   0.654   1.771
98521SOL    HW297403   4.266   0.736   1.895
98522SOL     OW97404   1.140  10.052  14.733
98522SOL    HW197405   1.121  10.061  14.639
98522SOL    HW297406   1.209  10.116  14.750
98523SOL     OW97407  10.372   8.084   4.670
98523SOL    HW197408  10.330   8.023   4.609
98523SOL    HW297409  10.344   8.054   4.757
98524SOL     OW97410   6.781   4.100  12.980
98524SOL    HW197411   6.756   4.012  13.008
98524SOL    HW297412   6.701   4.138  12.944
98525SOL     OW97413   6.892   6.957  14.224
98525SOL    HW197414   6.987   6.948  14.231
98525SOL    HW297415   6.877   7.050  14.209
98526SOL     OW97416   4.247  11.440   6.297
98526SOL    HW197417   4.300  11.421   6.220
98526SOL    HW297418   4.157  11.438   6.265
98527SOL     OW97419   4.397  14.572   2.998
98527SOL    HW197420   4.340  14.593   2.924
98527SOL    HW297421   4.486  14.590   2.965
98528SOL     OW97422   8.922  12.704   3.465
98528SOL    HW197423   8.887  12.616   3.450
98528SOL    HW297424   8.958  12.730   3.380
98529SOL     OW97425   0.418  14.611  10.548
98529SOL    HW197426   0.475  14.666  10.494
98529SOL    HW297427   0.410  14.659  10.631
98530SOL     OW97428   0.341   5.787   0.740
98530SOL    HW197429   0.426   5.808   0.701
98530SOL    HW297430   0.355   5.701   0.780
98531SOL     OW97431  10.869  11.007   6.931
98531SOL    HW197432  10.929  11.011   6.857
98531SOL    HW297433  10.918  10.965   7.001
98532SOL     OW97434  12.439   8.960   7.562
98532SOL    HW197435  12.347   8.934   7.554
98532SOL    HW297436  12.455   9.016   7.486
98533SOL     OW97437   0.819  10.582   6.539
98533SOL    HW197438   0.724  10.582   6.553
98533SOL    HW297439   0.831  10.536   6.457
98534SOL     OW97440   0.554   4.829   0.569
98534SOL    HW197441   0.506   4.750   0.544
98534SOL    HW297442   0.496   4.901   0.544
98535SOL     OW97443  10.629   1.203  12.768
98535SOL    HW197444  10.638   1.167  12.680
98535SOL    HW297445  10.683   1.283  12.767
98536SOL     OW97446   2.224   1.162   5.088
98536SOL    HW197447   2.139   1.122   5.067
98536SOL    HW297448   2.287   1.115   5.033
98537SOL     OW97449  14.260   8.449  10.097
98537SOL    HW197450  14.234   8.514  10.162
98537SOL    HW297451  14.355   8.441  10.107
98538SOL     OW97452   3.612   7.275  10.893
98538SOL    HW197453   3.697   7.258  10.854
98538SOL    HW297454   3.631   7.296  10.985
98539SOL     OW97455  10.352   3.001  12.112
98539SOL    HW197456  10.364   3.077  12.168
98539SOL    HW297457  10.302   2.939  12.166
98540SOL     OW97458   6.661   8.235   1.191
98540SOL    HW197459   6.598   8.267   1.256
98540SOL    HW297460   6.636   8.280   1.110
98541SOL     OW97461   0.667   1.349   8.216
98541SOL    HW197462   0.669   1.388   8.303
98541SOL    HW297463   0.752   1.306   8.208
98542SOL     OW97464   2.783  13.193   0.256
98542SOL    HW197465   2.700  13.221   0.293
98542SOL    HW297466   2.786  13.099   0.271
98543SOL     OW97467   0.561  12.621   8.499
98543SOL    HW197468   0.510  12.693   8.537
98543SOL    HW297469   0.495  12.555   8.476
98544SOL     OW97470  12.883   9.887   9.489
98544SOL    HW197471  12.938   9.963   9.466
98544SOL    HW297472  12.830   9.917   9.562
98545SOL     OW97473   8.514  10.672   4.366
98545SOL    HW197474   8.492  10.607   4.432
98545SOL    HW297475   8.558  10.742   4.415
98546SOL     OW97476  11.661   2.389   0.624
98546SOL    HW197477  11.605   2.381   0.702
98546SOL    HW297478  11.662   2.302   0.585
98547SOL     OW97479   2.987   4.362   3.163
98547SOL    HW197480   3.011   4.398   3.078
98547SOL    HW297481   3.002   4.268   3.155
98548SOL     OW97482  14.864   2.390   4.347
98548SOL    HW197483   0.055   2.444   4.318
98548SOL    HW297484  14.859   2.405   4.441
98549SOL     OW97485   1.882  13.891  10.223
98549SOL    HW197486   1.865  13.855  10.136
98549SOL    HW297487   1.812  13.857  10.278
98550SOL     OW97488   6.816  10.918   8.639
98550SOL    HW197489   6.845  10.854   8.573
98550SOL    HW297490   6.870  10.899   8.716
98551SOL     OW97491   6.559   0.751  13.953
98551SOL    HW197492   6.583   0.679  14.010
98551SOL    HW297493   6.470   0.731  13.924
98552SOL     OW97494  14.054  10.435  10.854
98552SOL    HW197495  14.019  10.502  10.913
98552SOL    HW297496  14.099  10.373  10.912
98553SOL     OW97497   5.777  10.595   7.193
98553SOL    HW197498   5.765  10.673   7.139
98553SOL    HW297499   5.796  10.630   7.280
98554SOL     OW97500  13.067   3.582   3.820
98554SOL    HW197501  13.024   3.498   3.838
98554SOL    HW297502  13.070   3.625   3.905
98555SOL     OW97503   4.042   7.288   3.504
98555SOL    HW197504   4.127   7.263   3.540
98555SOL    HW297505   4.009   7.208   3.463
98556SOL     OW97506   9.224  10.259  12.876
98556SOL    HW197507   9.194  10.179  12.919
98556SOL    HW297508   9.144  10.302  12.847
98557SOL     OW97509   0.559   3.050  11.742
98557SOL    HW197510   0.638   3.074  11.693
98557SOL    HW297511   0.500   3.014  11.676
98558SOL     OW97512   3.774   3.866   0.563
98558SOL    HW197513   3.701   3.814   0.598
98558SOL    HW297514   3.777   3.845   0.470
98559SOL     OW97515   8.153   2.195  14.725
98559SOL    HW197516   8.150   2.253  14.649
98559SOL    HW297517   8.149   2.107  14.688
98560SOL     OW97518  11.506   6.582   4.177
98560SOL    HW197519  11.427   6.635   4.167
98560SOL    HW297520  11.490   6.505   4.122
98561SOL     OW97521   6.244   4.768   2.215
98561SOL    HW197522   6.264   4.830   2.285
98561SOL    HW297523   6.256   4.681   2.255
98562SOL     OW97524   7.497  13.759   6.619
98562SOL    HW197525   7.427  13.701   6.588
98562SOL    HW297526   7.545  13.706   6.683
98563SOL     OW97527   9.519  11.628  14.474
98563SOL    HW197528   9.458  11.682  14.423
98563SOL    HW297529   9.532  11.677  14.555
98564SOL     OW97530   4.941   2.390  10.729
98564SOL    HW197531   5.020   2.386  10.783
98564SOL    HW297532   4.874   2.428  10.786
98565SOL     OW97533   1.149   3.601   1.998
98565SOL    HW197534   1.106   3.526   2.039
98565SOL    HW297535   1.186   3.567   1.917
98566SOL     OW97536   1.573   2.101   1.099
98566SOL    HW197537   1.512   2.166   1.132
98566SOL    HW297538   1.518   2.025   1.078
98567SOL     OW97539   6.204   5.946   9.378
98567SOL    HW197540   6.289   5.981   9.349
98567SOL    HW297541   6.226   5.862   9.418
98568SOL     OW97542  10.408  10.358  13.802
98568SOL    HW197543  10.489  10.325  13.762
98568SOL    HW297544  10.383  10.290  13.865
98569SOL     OW97545   8.903  13.694  10.607
98569SOL    HW197546   8.865  13.771  10.565
98569SOL    HW297547   8.827  13.645  10.640
98570SOL     OW97548   4.835   1.764   0.371
98570SOL    HW197549   4.845   1.680   0.326
98570SOL    HW297550   4.810   1.825   0.301
98571SOL     OW97551   1.946   7.750   9.908
98571SOL    HW197552   1.958   7.696   9.830
98571SOL    HW297553   2.001   7.708   9.974
98572SOL     OW97554   4.435  14.720  12.997
98572SOL    HW197555   4.427  14.650  13.062
98572SOL    HW297556   4.499  14.780  13.034
98573SOL     OW97557   7.317   8.611   4.657
98573SOL    HW197558   7.290   8.656   4.577
98573SOL    HW297559   7.346   8.525   4.627
98574SOL     OW97560  10.231   8.614   9.964
98574SOL    HW197561  10.203   8.705   9.962
98574SOL    HW297562  10.235   8.588   9.872
98575SOL     OW97563   5.606  14.460   5.248
98575SOL    HW197564   5.680  14.412   5.286
98575SOL    HW297565   5.541  14.463   5.318
98576SOL     OW97566  12.113  10.792   9.852
98576SOL    HW197567  12.186  10.812   9.911
98576SOL    HW297568  12.084  10.878   9.820
98577SOL     OW97569   7.949   2.066  14.329
98577SOL    HW197570   8.011   2.120  14.280
98577SOL    HW297571   7.869   2.118  14.331
98578SOL     OW97572   1.109   1.482   7.865
98578SOL    HW197573   1.061   1.400   7.856
98578SOL    HW297574   1.087   1.532   7.787
98579SOL     OW97575  13.323   2.730   7.670
98579SOL    HW197576  13.407   2.722   7.715
98579SOL    HW297577  13.316   2.650   7.618
98580SOL     OW97578   7.095   3.508   9.121
98580SOL    HW197579   7.104   3.592   9.165
98580SOL    HW297580   7.164   3.507   9.055
98581SOL     OW97581   7.197  13.322  13.920
98581SOL    HW197582   7.233  13.235  13.907
98581SOL    HW297583   7.121  13.309  13.976
98582SOL     OW97584  11.894  12.552   7.450
98582SOL    HW197585  11.983  12.528   7.424
98582SOL    HW297586  11.846  12.560   7.367
98583SOL     OW97587   5.401   1.778  13.582
98583SOL    HW197588   5.421   1.778  13.488
98583SOL    HW297589   5.402   1.686  13.607
98584SOL     OW97590   6.441   4.897   9.540
98584SOL    HW197591   6.395   4.834   9.485
98584SOL    HW297592   6.377   4.966   9.557
98585SOL     OW97593  14.027  12.550  12.896
98585SOL    HW197594  14.067  12.582  12.816
98585SOL    HW297595  13.982  12.470  12.870
98586SOL     OW97596   4.361   4.514  14.632
98586SOL    HW197597   4.274   4.524  14.670
98586SOL    HW297598   4.403   4.599  14.647
98587SOL     OW97599   5.604   1.145  14.512
98587SOL    HW197600   5.663   1.106  14.576
98587SOL    HW297601   5.517   1.117  14.540
98588SOL     OW97602  11.388   2.879   2.001
98588SOL    HW197603  11.441   2.813   2.045
98588SOL    HW297604  11.318   2.830   1.958
98589SOL     OW97605   9.699   4.745   5.737
98589SOL    HW197606   9.639   4.671   5.725
98589SOL    HW297607   9.697   4.763   5.831
98590SOL     OW97608  11.208   7.099   1.931
98590SOL    HW197609  11.201   7.194   1.946
98590SOL    HW297610  11.122   7.074   1.897
98591SOL     OW97611   6.598   7.632  10.599
98591SOL    HW197612   6.605   7.539  10.619
98591SOL    HW297613   6.566   7.672  10.680
98592SOL     OW97614   1.485   5.756   6.983
98592SOL    HW197615   1.559   5.750   7.044
98592SOL    HW297616   1.410   5.776   7.038
98593SOL     OW97617   7.271   0.187   1.768
98593SOL    HW197618   7.332   0.259   1.749
98593SOL    HW297619   7.189   0.231   1.790
98594SOL     OW97620   0.889   4.914   4.639
98594SOL    HW197621   0.897   4.823   4.668
98594SOL    HW297622   0.961   4.960   4.683
98595SOL     OW97623  10.068   9.785   1.840
98595SOL    HW197624  10.129   9.739   1.898
98595SOL    HW297625   9.987   9.734   1.846
98596SOL     OW97626   2.290   8.702   4.831
98596SOL    HW197627   2.328   8.640   4.768
98596SOL    HW297628   2.336   8.784   4.814
98597SOL     OW97629  13.020   2.241   4.532
98597SOL    HW197630  12.952   2.182   4.563
98597SOL    HW297631  12.975   2.300   4.470
98598SOL     OW97632   8.643   1.001   0.285
98598SOL    HW197633   8.696   0.969   0.212
98598SOL    HW297634   8.597   0.923   0.318
98599SOL     OW97635   6.348   9.838  12.390
98599SOL    HW197636   6.444   9.828  12.388
98599SOL    HW297637   6.334   9.931  12.369
98600SOL     OW97638   5.436  11.443   3.458
98600SOL    HW197639   5.487  11.382   3.404
98600SOL    HW297640   5.372  11.387   3.503
98601SOL     OW97641   4.119   3.872   6.691
98601SOL    HW197642   4.066   3.795   6.667
98601SOL    HW297643   4.191   3.872   6.628
98602SOL     OW97644  12.260  12.446   1.212
98602SOL    HW197645  12.167  12.463   1.197
98602SOL    HW297646  12.288  12.515   1.272
98603SOL     OW97647  14.515   6.956   3.195
98603SOL    HW197648  14.567   6.941   3.116
98603SOL    HW297649  14.489   7.048   3.189
98604SOL     OW97650   3.028   4.503   3.873
98604SOL    HW197651   3.107   4.556   3.867
98604SOL    HW297652   3.051   4.421   3.830
98605SOL     OW97653   1.162   9.247   1.663
98605SOL    HW197654   1.079   9.247   1.616
98605SOL    HW297655   1.151   9.315   1.730
98606SOL     OW97656  12.976   2.152   0.956
98606SOL    HW197657  12.919   2.138   1.031
98606SOL    HW297658  12.938   2.228   0.911
98607SOL     OW97659  13.553   2.151   6.568
98607SOL    HW197660  13.546   2.166   6.474
98607SOL    HW297661  13.577   2.058   6.576
98608SOL     OW97662  14.715   8.956   0.472
98608SOL    HW197663  14.698   8.928   0.562
98608SOL    HW297664  14.765   9.037   0.481
98609SOL     OW97665  12.396   2.955  10.217
98609SOL    HW197666  12.456   3.026  10.191
98609SOL    HW297667  12.321   3.001  10.255
98610SOL     OW97668   3.925  13.686   5.320
98610SOL    HW197669   3.942  13.612   5.378
98610SOL    HW297670   3.969  13.760   5.362
98611SOL     OW97671   4.122   3.844   2.725
98611SOL    HW197672   4.042   3.896   2.721
98611SOL    HW297673   4.169   3.878   2.802
98612SOL     OW97674   6.020   5.851  12.672
98612SOL    HW197675   6.078   5.784  12.709
98612SOL    HW297676   5.938   5.841  12.720
98613SOL     OW97677   7.816   3.409  10.944
98613SOL    HW197678   7.734   3.454  10.925
98613SOL    HW297679   7.856   3.460  11.015
98614SOL     OW97680   5.154  11.472  14.179
98614SOL    HW197681   5.067  11.449  14.211
98614SOL    HW297682   5.141  11.554  14.131
98615SOL     OW97683   2.459  12.290   4.918
98615SOL    HW197684   2.488  12.221   4.859
98615SOL    HW297685   2.418  12.355   4.860
98616SOL     OW97686   0.389  12.120  12.242
98616SOL    HW197687   0.308  12.171  12.254
98616SOL    HW297688   0.459  12.185  12.250
98617SOL     OW97689   4.313   0.874  10.715
98617SOL    HW197690   4.272   0.908  10.795
98617SOL    HW297691   4.301   0.943  10.650
98618SOL     OW97692   4.257   4.161  11.129
98618SOL    HW197693   4.171   4.198  11.148
98618SOL    HW297694   4.239   4.084  11.076
98619SOL     OW97695   8.276   9.170   1.385
98619SOL    HW197696   8.331   9.216   1.322
98619SOL    HW297697   8.328   9.095   1.413
98620SOL     OW97698  12.131   8.661   1.023
98620SOL    HW197699  12.073   8.684   1.095
98620SOL    HW297700  12.173   8.743   0.998
98621SOL     OW97701  11.433  13.782  10.803
98621SOL    HW197702  11.432  13.690  10.775
98621SOL    HW297703  11.510  13.819  10.761
98622SOL     OW97704  14.007   6.072  11.127
98622SOL    HW197705  14.051   6.107  11.049
98622SOL    HW297706  13.930   6.027  11.093
98623SOL     OW97707  10.651  11.075  13.264
98623SOL    HW197708  10.639  11.000  13.206
98623SOL    HW297709  10.657  11.037  13.352
98624SOL     OW97710  12.481  13.085  10.319
98624SOL    HW197711  12.484  13.018  10.387
98624SOL    HW297712  12.538  13.155  10.352
98625SOL     OW97713   7.118   4.068  10.324
98625SOL    HW197714   7.192   4.025  10.281
98625SOL    HW297715   7.048   4.002  10.323
98626SOL     OW97716  12.577   3.626  11.718
98626SOL    HW197717  12.545   3.701  11.668
98626SOL    HW297718  12.657   3.658  11.760
98627SOL     OW97719   6.831   1.934  14.497
98627SOL    HW197720   6.754   1.986  14.473
98627SOL    HW297721   6.829   1.859  14.438
98628SOL     OW97722   6.209   3.222   6.698
98628SOL    HW197723   6.128   3.273   6.703
98628SOL    HW297724   6.193   3.158   6.628
98629SOL     OW97725   5.063   6.843   2.716
98629SOL    HW197726   5.037   6.752   2.707
98629SOL    HW297727   5.007   6.890   2.654
98630SOL     OW97728  11.309   5.807  11.741
98630SOL    HW197729  11.251   5.873  11.779
98630SOL    HW297730  11.339   5.755  11.816
98631SOL     OW97731   2.078  13.933  10.394
98631SOL    HW197732   2.027  13.926  10.313
98631SOL    HW297733   2.058  13.852  10.441
98632SOL     OW97734   1.354   6.230  13.551
98632SOL    HW197735   1.440   6.209  13.587
98632SOL    HW297736   1.299   6.155  13.574
98633SOL     OW97737   2.010  12.827   9.069
98633SOL    HW197738   1.963  12.784   8.997
98633SOL    HW297739   2.099  12.838   9.035
98634SOL     OW97740   6.270  10.204   8.669
98634SOL    HW197741   6.338  10.269   8.689
98634SOL    HW297742   6.201  10.222   8.733
98635SOL     OW97743  10.928  12.964  10.083
98635SOL    HW197744  10.968  13.008  10.158
98635SOL    HW297745  10.905  13.036  10.023
98636SOL     OW97746   9.365  13.501   9.883
98636SOL    HW197747   9.285  13.543   9.849
98636SOL    HW297748   9.418  13.574   9.914
98637SOL     OW97749   5.921   4.922  10.564
98637SOL    HW197750   5.907   4.948  10.473
98637SOL    HW297751   5.839   4.881  10.590
98638SOL     OW97752   0.098  11.712  11.255
98638SOL    HW197753   0.166  11.666  11.207
98638SOL    HW297754   0.121  11.805  11.247
98639SOL     OW97755   3.627   8.973  11.519
98639SOL    HW197756   3.532   8.965  11.525
98639SOL    HW297757   3.647   9.059  11.557
98640SOL     OW97758  13.188   4.907   4.307
98640SOL    HW197759  13.206   4.979   4.368
98640SOL    HW297760  13.274   4.871   4.287
98641SOL     OW97761   5.006   4.263  10.922
98641SOL    HW197762   5.042   4.270  11.010
98641SOL    HW297763   5.024   4.348  10.882
98642SOL     OW97764   5.571   9.674   2.548
98642SOL    HW197765   5.503   9.741   2.544
98642SOL    HW297766   5.652   9.721   2.529
98643SOL     OW97767  13.633   6.702   9.055
98643SOL    HW197768  13.719   6.741   9.039
98643SOL    HW297769  13.624   6.701   9.150
98644SOL     OW97770   2.115   1.255   3.452
98644SOL    HW197771   2.092   1.163   3.438
98644SOL    HW297772   2.045   1.289   3.507
98645SOL     OW97773  13.158   0.136   1.841
98645SOL    HW197774  13.169   0.184   1.759
98645SOL    HW297775  13.189   0.048   1.821
98646SOL     OW97776   4.844   2.258  13.748
98646SOL    HW197777   4.800   2.317  13.687
98646SOL    HW297778   4.855   2.177  13.699
98647SOL     OW97779   6.699   3.011   5.922
98647SOL    HW197780   6.757   2.979   5.852
98647SOL    HW297781   6.611   3.002   5.886
98648SOL     OW97782   0.618   9.800   8.714
98648SOL    HW197783   0.705   9.796   8.753
98648SOL    HW297784   0.631   9.847   8.631
98649SOL     OW97785   0.271  13.590   7.838
98649SOL    HW197786   0.198  13.644   7.868
98649SOL    HW297787   0.258  13.505   7.880
98650SOL     OW97788  14.122  10.097   2.407
98650SOL    HW197789  14.199  10.147   2.381
98650SOL    HW297790  14.095  10.051   2.328
98651SOL     OW97791  14.350   5.724  14.669
98651SOL    HW197792  14.419   5.784  14.641
98651SOL    HW297793  14.304   5.701  14.588
98652SOL     OW97794   2.321  13.362   0.675
98652SOL    HW197795   2.379  13.288   0.686
98652SOL    HW297796   2.379  13.438   0.671
98653SOL     OW97797   2.656   0.307   4.015
98653SOL    HW197798   2.659   0.330   4.108
98653SOL    HW297799   2.712   0.230   4.007
98654SOL     OW97800  14.398   3.792  12.805
98654SOL    HW197801  14.459   3.805  12.878
98654SOL    HW297802  14.425   3.709  12.766
98655SOL     OW97803   2.720   4.775   9.734
98655SOL    HW197804   2.648   4.799   9.792
98655SOL    HW297805   2.687   4.796   9.646
98656SOL     OW97806  12.932  12.474   0.517
98656SOL    HW197807  12.850  12.440   0.482
98656SOL    HW297808  12.966  12.403   0.571
98657SOL     OW97809  10.490  11.289  13.554
98657SOL    HW197810  10.414  11.304  13.499
98657SOL    HW297811  10.538  11.373  13.553
98658SOL     OW97812   7.214   1.435   8.983
98658SOL    HW197813   7.123   1.454   8.961
98658SOL    HW297814   7.230   1.483   9.064
98659SOL     OW97815   5.197   8.951   8.277
98659SOL    HW197816   5.188   9.028   8.333
98659SOL    HW297817   5.291   8.941   8.263
98660SOL     OW97818   3.142   8.151   7.433
98660SOL    HW197819   3.137   8.239   7.471
98660SOL    HW297820   3.226   8.149   7.388
98661SOL     OW97821   3.503  13.728  14.659
98661SOL    HW197822   3.489  13.793  14.728
98661SOL    HW297823   3.437  13.661  14.676
98662SOL     OW97824   9.443  14.204   6.946
98662SOL    HW197825   9.467  14.111   6.938
98662SOL    HW297826   9.477  14.243   6.865
98663SOL     OW97827   4.727  13.688  10.455
98663SOL    HW197828   4.699  13.777  10.435
98663SOL    HW297829   4.822  13.694  10.462
98664SOL     OW97830   8.368   3.654  12.686
98664SOL    HW197831   8.369   3.585  12.620
98664SOL    HW297832   8.386   3.735  12.637
98665SOL     OW97833   9.378  12.489   7.108
98665SOL    HW197834   9.459  12.486   7.058
98665SOL    HW297835   9.389  12.562   7.169
98666SOL     OW97836   8.769   1.026   0.748
98666SOL    HW197837   8.775   1.120   0.729
98666SOL    HW297838   8.688   0.998   0.705
98667SOL     OW97839   8.514  13.144   6.231
98667SOL    HW197840   8.490  13.054   6.255
98667SOL    HW297841   8.604  13.153   6.260
98668SOL     OW97842   3.474  14.181  11.701
98668SOL    HW197843   3.387  14.143  11.707
98668SOL    HW297844   3.508  14.177  11.790
98669SOL     OW97845  12.310   9.845   8.579
98669SOL    HW197846  12.349   9.912   8.524
98669SOL    HW297847  12.301   9.768   8.522
98670SOL     OW97848   9.997   4.992   0.664
98670SOL    HW197849   9.915   4.999   0.712
98670SOL    HW297850  10.014   5.081   0.633
98671SOL     OW97851  12.646   8.613  12.995
98671SOL    HW197852  12.739   8.624  13.011
98671SOL    HW297853  12.608   8.598  13.081
98672SOL     OW97854   4.772   6.307   8.805
98672SOL    HW197855   4.747   6.331   8.716
98672SOL    HW297856   4.858   6.348   8.817
98673SOL     OW97857  10.957   4.403  12.137
98673SOL    HW197858  10.981   4.468  12.203
98673SOL    HW297859  10.941   4.323  12.186
98674SOL     OW97860  11.194   3.573   5.120
98674SOL    HW197861  11.264   3.511   5.099
98674SOL    HW297862  11.229   3.626   5.191
98675SOL     OW97863   6.333  10.737   5.210
98675SOL    HW197864   6.246  10.747   5.248
98675SOL    HW297865   6.335  10.647   5.177
98676SOL     OW97866   9.543   0.486   2.316
98676SOL    HW197867   9.635   0.461   2.321
98676SOL    HW297868   9.499   0.408   2.282
98677SOL     OW97869   2.549   8.358   4.196
98677SOL    HW197870   2.581   8.374   4.285
98677SOL    HW297871   2.454   8.369   4.202
98678SOL     OW97872   0.512   3.629   4.060
98678SOL    HW197873   0.541   3.575   4.133
98678SOL    HW297874   0.477   3.708   4.101
98679SOL     OW97875   2.286   4.171  13.137
98679SOL    HW197876   2.351   4.230  13.100
98679SOL    HW297877   2.213   4.228  13.162
98680SOL     OW97878   6.240  10.073   1.062
98680SOL    HW197879   6.191  10.010   1.011
98680SOL    HW297880   6.182  10.095   1.135
98681SOL     OW97881  12.113   0.328   1.395
98681SOL    HW197882  12.061   0.247   1.391
98681SOL    HW297883  12.094   0.364   1.481
98682SOL     OW97884   7.297  13.798   4.480
98682SOL    HW197885   7.367  13.799   4.416
98682SOL    HW297886   7.247  13.719   4.460
98683SOL     OW97887   5.386   6.680   8.157
98683SOL    HW197888   5.310   6.651   8.108
98683SOL    HW297889   5.458   6.628   8.124
98684SOL     OW97890   7.958   2.287  10.547
98684SOL    HW197891   7.976   2.378  10.570
98684SOL    HW297892   7.892   2.292  10.478
98685SOL     OW97893   5.396   2.074   8.885
98685SOL    HW197894   5.463   2.018   8.925
98685SOL    HW297895   5.314   2.028   8.902
98686SOL     OW97896  10.771  10.381   2.363
98686SOL    HW197897  10.848  10.344   2.320
98686SOL    HW297898  10.794  10.472   2.381
98687SOL     OW97899   2.283   0.882   0.884
98687SOL    HW197900   2.319   0.837   0.807
98687SOL    HW297901   2.208   0.931   0.850
98688SOL     OW97902  13.733  13.290   0.921
98688SOL    HW197903  13.642  13.319   0.921
98688SOL    HW297904  13.747  13.255   0.833
98689SOL     OW97905   6.427   8.830   1.567
98689SOL    HW197906   6.496   8.782   1.613
98689SOL    HW297907   6.414   8.909   1.620
98690SOL     OW97908   0.401   1.984   0.087
98690SOL    HW197909   0.435   1.956   0.003
98690SOL    HW297910   0.475   1.978   0.147
98691SOL     OW97911   5.909   5.976  14.336
98691SOL    HW197912   5.985   6.008  14.286
98691SOL    HW297913   5.931   5.885  14.356
98692SOL     OW97914   6.921   9.081   0.048
98692SOL    HW197915   6.853   9.036   0.099
98692SOL    HW297916   6.969   9.010   0.005
98693SOL     OW97917  12.735  10.390   1.361
98693SOL    HW197918  12.821  10.433   1.353
98693SOL    HW297919  12.672  10.460   1.344
98694SOL     OW97920  11.584   0.931   7.261
98694SOL    HW197921  11.650   0.864   7.243
98694SOL    HW297922  11.521   0.923   7.189
98695SOL     OW97923  13.432  14.614   1.430
98695SOL    HW197924  13.454  14.706   1.443
98695SOL    HW297925  13.477  14.590   1.349
98696SOL     OW97926   6.769   3.047   5.551
98696SOL    HW197927   6.848   3.003   5.518
98696SOL    HW297928   6.699   2.983   5.539
98697SOL     OW97929  12.226   2.342  10.702
98697SOL    HW197930  12.299   2.404  10.707
98697SOL    HW297931  12.263   2.265  10.659
98698SOL     OW97932   4.684  10.910   5.356
98698SOL    HW197933   4.672  10.989   5.409
98698SOL    HW297934   4.711  10.843   5.419
98699SOL     OW97935   6.221   0.255   4.108
98699SOL    HW197936   6.141   0.294   4.072
98699SOL    HW297937   6.198   0.234   4.199
98700SOL     OW97938   4.813   5.710   4.525
98700SOL    HW197939   4.904   5.735   4.540
98700SOL    HW297940   4.819   5.625   4.480
98701SOL     OW97941   1.598   1.458   2.613
98701SOL    HW197942   1.524   1.517   2.629
98701SOL    HW297943   1.670   1.516   2.591
98702SOL     OW97944   2.960   5.357   1.415
98702SOL    HW197945   2.881   5.386   1.461
98702SOL    HW297946   2.928   5.293   1.351
98703SOL     OW97947   7.399   5.694   0.895
98703SOL    HW197948   7.343   5.734   0.828
98703SOL    HW297949   7.391   5.751   0.971
98704SOL     OW97950   3.763  10.560   0.228
98704SOL    HW197951   3.824  10.523   0.292
98704SOL    HW297952   3.793  10.525   0.144
98705SOL     OW97953   3.127   8.330   3.444
98705SOL    HW197954   3.160   8.347   3.532
98705SOL    HW297955   3.200   8.286   3.399
98706SOL     OW97956   8.153  12.064   2.194
98706SOL    HW197957   8.111  11.982   2.221
98706SOL    HW297958   8.167  12.054   2.100
98707SOL     OW97959   7.442  13.874  12.385
98707SOL    HW197960   7.380  13.894  12.315
98707SOL    HW297961   7.487  13.794  12.355
98708SOL     OW97962   8.075   3.048  14.314
98708SOL    HW197963   8.108   3.136  14.298
98708SOL    HW297964   8.153   2.993  14.322
98709SOL     OW97965   9.916   1.912  14.783
98709SOL    HW197966   9.840   1.885  14.732
98709SOL    HW297967   9.879   1.941  14.867
98710SOL     OW97968   9.975   4.863  13.295
98710SOL    HW197969   9.895   4.895  13.254
98710SOL    HW297970   9.990   4.777  13.255
98711SOL     OW97971   0.222   5.869   8.787
98711SOL    HW197972   0.299   5.898   8.740
98711SOL    HW297973   0.195   5.944   8.840
98712SOL     OW97974   9.026   1.198  13.579
98712SOL    HW197975   8.994   1.152  13.657
98712SOL    HW297976   9.105   1.244  13.609
98713SOL     OW97977   7.538   8.029   7.780
98713SOL    HW197978   7.513   7.952   7.730
98713SOL    HW297979   7.500   8.103   7.733
98714SOL     OW97980   7.885   5.905  11.332
98714SOL    HW197981   7.960   5.897  11.392
98714SOL    HW297982   7.913   5.970  11.268
98715SOL     OW97983   9.065   3.847  13.179
98715SOL    HW197984   9.148   3.805  13.200
98715SOL    HW297985   9.078   3.885  13.092
98716SOL     OW97986  10.470  11.008   0.135
98716SOL    HW197987  10.483  10.914   0.119
98716SOL    HW297988  10.480  11.018   0.229
98717SOL     OW97989  13.504  12.589  13.887
98717SOL    HW197990  13.454  12.588  13.805
98717SOL    HW297991  13.592  12.616  13.861
98718SOL     OW97992  10.170   6.814  11.638
98718SOL    HW197993  10.095   6.872  11.620
98718SOL    HW297994  10.165   6.746  11.571
98719SOL     OW97995   4.883  13.923   9.235
98719SOL    HW197996   4.800  13.918   9.189
98719SOL    HW297997   4.931  13.846   9.206
98720SOL     OW97998   0.718   9.423   9.078
98720SOL    HW197999   0.761   9.477   9.145
98720SOL    HW298000   0.702   9.483   9.006
98721SOL     OW98001   9.074   5.968  12.987
98721SOL    HW198002   9.063   5.914  13.065
98721SOL    HW298003   9.143   6.030  13.011
98722SOL     OW98004   4.688   0.649   2.040
98722SOL    HW198005   4.679   0.631   2.133
98722SOL    HW298006   4.682   0.745   2.033
98723SOL     OW98007  11.960  12.816  11.879
98723SOL    HW198008  11.924  12.772  11.802
98723SOL    HW298009  12.051  12.788  11.883
98724SOL     OW98010   3.525   8.439   1.172
98724SOL    HW198011   3.481   8.520   1.144
98724SOL    HW298012   3.607   8.470   1.212
98725SOL     OW98013   3.672  10.806   2.662
98725SOL    HW198014   3.759  10.773   2.643
98725SOL    HW298015   3.687  10.895   2.695
98726SOL     OW98016   5.069  10.814   1.526
98726SOL    HW198017   5.015  10.885   1.561
98726SOL    HW298018   5.148  10.857   1.493
98727SOL     OW98019   5.931  14.825   5.479
98727SOL    HW198020   5.909   0.033   5.455
98727SOL    HW298021   6.026  14.821   5.471
98728SOL     OW98022   8.339  11.867   6.043
98728SOL    HW198023   8.271  11.801   6.027
98728SOL    HW298024   8.421  11.823   6.019
98729SOL     OW98025   6.277   5.491  11.343
98729SOL    HW198026   6.365   5.479  11.379
98729SOL    HW298027   6.236   5.405  11.352
98730SOL     OW98028   3.766  12.864  14.336
98730SOL    HW198029   3.777  12.949  14.379
98730SOL    HW298030   3.856  12.831  14.325
98731SOL     OW98031   8.817   8.159   6.997
98731SOL    HW198032   8.897   8.201   6.967
98731SOL    HW298033   8.816   8.175   7.092
98732SOL     OW98034   4.066   7.035  13.865
98732SOL    HW198035   4.152   7.051  13.903
98732SOL    HW298036   4.005   7.082  13.922
98733SOL     OW98037   3.420   5.123   0.790
98733SOL    HW198038   3.509   5.088   0.792
98733SOL    HW298039   3.391   5.120   0.882
98734SOL     OW98040   5.961   6.461   8.821
98734SOL    HW198041   6.043   6.411   8.817
98734SOL    HW298042   5.916   6.427   8.898
98735SOL     OW98043   3.412   3.346  12.921
98735SOL    HW198044   3.361   3.378  12.846
98735SOL    HW298045   3.502   3.373  12.901
98736SOL     OW98046   8.668   3.278   8.058
98736SOL    HW198047   8.758   3.306   8.043
98736SOL    HW298048   8.669   3.184   8.043
98737SOL     OW98049  11.205   6.599   3.597
98737SOL    HW198050  11.170   6.510   3.599
98737SOL    HW298051  11.137   6.650   3.552
98738SOL     OW98052   4.994  13.611  10.873
98738SOL    HW198053   5.086  13.585  10.883
98738SOL    HW298054   4.953  13.583  10.955
98739SOL     OW98055   7.317   1.392  12.710
98739SOL    HW198056   7.403   1.383  12.669
98739SOL    HW298057   7.266   1.319  12.674
98740SOL     OW98058   2.050   2.647   2.115
98740SOL    HW198059   2.102   2.635   2.036
98740SOL    HW298060   1.987   2.715   2.093
98741SOL     OW98061   3.550   4.146   0.307
98741SOL    HW198062   3.633   4.099   0.316
98741SOL    HW298063   3.536   4.188   0.392
98742SOL     OW98064   6.119   7.196  13.333
98742SOL    HW198065   6.169   7.119  13.360
98742SOL    HW298066   6.131   7.201  13.238
98743SOL     OW98067   8.480   9.602   9.349
98743SOL    HW198068   8.392   9.618   9.316
98743SOL    HW298069   8.498   9.677   9.406
98744SOL     OW98070   6.056  10.047  11.415
98744SOL    HW198071   6.086  10.031  11.325
98744SOL    HW298072   5.965  10.018  11.416
98745SOL     OW98073   6.795   7.219  13.087
98745SOL    HW198074   6.768   7.252  13.002
98745SOL    HW298075   6.828   7.131  13.069
98746SOL     OW98076   9.777   3.203   2.186
98746SOL    HW198077   9.824   3.176   2.107
98746SOL    HW298078   9.685   3.205   2.160
98747SOL     OW98079   9.056   6.645   1.500
98747SOL    HW198080   9.013   6.707   1.559
98747SOL    HW298081   8.987   6.615   1.441
98748SOL     OW98082   4.867   9.793   6.008
98748SOL    HW198083   4.813   9.852   5.954
98748SOL    HW298084   4.940   9.848   6.038
98749SOL     OW98085   2.746   0.755  11.271
98749SOL    HW198086   2.702   0.672  11.284
98749SOL    HW298087   2.773   0.782  11.359
98750SOL     OW98088   0.724   7.434  12.728
98750SOL    HW198089   0.706   7.515  12.681
98750SOL    HW298090   0.637   7.402  12.754
98751SOL     OW98091   8.113   5.588  11.410
98751SOL    HW198092   8.023   5.555  11.417
98751SOL    HW298093   8.116   5.630  11.324
98752SOL     OW98094   2.769  13.368   0.996
98752SOL    HW198095   2.798  13.347   0.907
98752SOL    HW298096   2.674  13.356   0.994
98753SOL     OW98097   3.830  13.321   0.469
98753SOL    HW198098   3.911  13.372   0.466
98753SOL    HW298099   3.856  13.237   0.506
98754SOL     OW98100  13.567   9.104   6.124
98754SOL    HW198101  13.491   9.065   6.081
98754SOL    HW298102  13.635   9.037   6.118
98755SOL     OW98103   5.807   3.040   8.038
98755SOL    HW198104   5.832   2.968   8.097
98755SOL    HW298105   5.733   3.082   8.083
98756SOL     OW98106   6.031   0.352  13.433
98756SOL    HW198107   6.034   0.285  13.365
98756SOL    HW298108   6.008   0.433  13.387
98757SOL     OW98109  11.410   3.881   0.345
98757SOL    HW198110  11.461   3.836   0.277
98757SOL    HW298111  11.466   3.878   0.422
98758SOL     OW98112   7.157  12.853  11.197
98758SOL    HW198113   7.111  12.930  11.166
98758SOL    HW298114   7.104  12.779  11.167
98759SOL     OW98115   2.139   6.565   6.977
98759SOL    HW198116   2.155   6.659   6.969
98759SOL    HW298117   2.151   6.546   7.070
98760SOL     OW98118   3.536   1.364   6.063
98760SOL    HW198119   3.544   1.298   6.131
98760SOL    HW298120   3.605   1.344   6.000
98761SOL     OW98121   4.149  14.677   8.467
98761SOL    HW198122   4.237  14.682   8.431
98761SOL    HW298123   4.103  14.752   8.429
98762SOL     OW98124   7.618   7.494   4.871
98762SOL    HW198125   7.625   7.399   4.875
98762SOL    HW298126   7.524   7.510   4.866
98763SOL     OW98127  11.029   6.662   3.925
98763SOL    HW198128  11.011   6.602   3.852
98763SOL    HW298129  11.107   6.625   3.968
98764SOL     OW98130   6.896   6.706   7.456
98764SOL    HW198131   6.966   6.644   7.475
98764SOL    HW298132   6.911   6.733   7.366
98765SOL     OW98133   5.848   8.757   0.956
98765SOL    HW198134   5.809   8.696   0.893
98765SOL    HW298135   5.894   8.701   1.018
98766SOL     OW98136   8.282  10.135  14.121
98766SOL    HW198137   8.307  10.216  14.166
98766SOL    HW298138   8.186  10.139  14.117
98767SOL     OW98139   6.697   4.358   2.125
98767SOL    HW198140   6.691   4.279   2.070
98767SOL    HW298141   6.790   4.366   2.145
98768SOL     OW98142  10.066   2.747  11.986
98768SOL    HW198143  10.076   2.652  11.986
98768SOL    HW298144  10.103   2.775  12.070
98769SOL     OW98145   0.602  12.532   6.507
98769SOL    HW198146   0.589  12.439   6.488
98769SOL    HW298147   0.535  12.553   6.571
98770SOL     OW98148   0.371   3.929  10.019
98770SOL    HW198149   0.324   3.946   9.938
98770SOL    HW298150   0.322   3.976  10.086
98771SOL     OW98151   9.699  10.796  13.527
98771SOL    HW198152   9.776  10.744  13.501
98771SOL    HW298153   9.718  10.884  13.494
98772SOL     OW98154   2.745   3.468   0.561
98772SOL    HW198155   2.689   3.518   0.502
98772SOL    HW298156   2.751   3.522   0.640
98773SOL     OW98157   5.412   9.265   5.956
98773SOL    HW198158   5.388   9.174   5.937
98773SOL    HW298159   5.332   9.304   5.991
98774SOL     OW98160   7.204  11.437   3.364
98774SOL    HW198161   7.274  11.375   3.382
98774SOL    HW298162   7.163  11.404   3.284
98775SOL     OW98163   5.564   4.261  13.103
98775SOL    HW198164   5.633   4.253  13.037
98775SOL    HW298165   5.500   4.321  13.065
98776SOL     OW98166   8.621  10.900   4.551
98776SOL    HW198167   8.659  10.961   4.488
98776SOL    HW298168   8.686  10.831   4.560
98777SOL     OW98169  12.120   0.112   6.539
98777SOL    HW198170  12.122   0.207   6.540
98777SOL    HW298171  12.118   0.087   6.631
98778SOL     OW98172   0.297  12.766   9.507
98778SOL    HW198173   0.212  12.742   9.469
98778SOL    HW298174   0.279  12.842   9.561
98779SOL     OW98175  11.801   3.310  10.613
98779SOL    HW198176  11.786   3.216  10.608
98779SOL    HW298177  11.896   3.320  10.610
98780SOL     OW98178  10.469   3.944   2.710
98780SOL    HW198179  10.465   3.985   2.796
98780SOL    HW298180  10.557   3.964   2.677
98781SOL     OW98181   2.191   5.856   1.183
98781SOL    HW198182   2.095   5.850   1.190
98781SOL    HW298183   2.213   5.934   1.234
98782SOL     OW98184  11.495  10.515   7.762
98782SOL    HW198185  11.517  10.513   7.669
98782SOL    HW298186  11.568  10.560   7.804
98783SOL     OW98187   6.770   0.935  13.884
98783SOL    HW198188   6.687   0.894  13.907
98783SOL    HW298189   6.816   0.945  13.968
98784SOL     OW98190   6.517   1.352  14.192
98784SOL    HW198191   6.535   1.261  14.171
98784SOL    HW298192   6.566   1.368  14.273
98785SOL     OW98193   2.613   9.052   2.231
98785SOL    HW198194   2.538   9.061   2.291
98785SOL    HW298195   2.661   9.134   2.240
98786SOL     OW98196  10.971  13.008   2.951
98786SOL    HW198197  10.985  13.004   3.045
98786SOL    HW298198  10.949  12.918   2.926
98787SOL     OW98199  10.399  12.093   3.609
98787SOL    HW198200  10.344  12.114   3.685
98787SOL    HW298201  10.342  12.041   3.552
98788SOL     OW98202  14.782  11.000   8.084
98788SOL    HW198203  14.749  11.083   8.051
98788SOL    HW298204  14.853  11.023   8.143
98789SOL     OW98205  10.579   1.778   1.188
98789SOL    HW198206  10.552   1.687   1.182
98789SOL    HW298207  10.618   1.786   1.275
98790SOL     OW98208   4.240   0.935   3.918
98790SOL    HW198209   4.264   1.027   3.910
98790SOL    HW298210   4.145   0.934   3.903
98791SOL     OW98211   5.436   5.866   5.669
98791SOL    HW198212   5.357   5.813   5.681
98791SOL    HW298213   5.448   5.871   5.574
98792SOL     OW98214  13.867   9.597  10.453
98792SOL    HW198215  13.873   9.520  10.396
98792SOL    HW298216  13.883   9.671  10.396
98793SOL     OW98217   0.841   5.281   5.007
98793SOL    HW198218   0.847   5.331   5.089
98793SOL    HW298219   0.747   5.278   4.987
98794SOL     OW98220   3.323   7.739  13.272
98794SOL    HW198221   3.268   7.660  13.269
98794SOL    HW298222   3.323   7.764  13.365
98795SOL     OW98223   4.022  11.416  12.436
98795SOL    HW198224   4.028  11.346  12.370
98795SOL    HW298225   4.109  11.417  12.477
98796SOL     OW98226  13.024  10.809   9.182
98796SOL    HW198227  13.026  10.811   9.086
98796SOL    HW298228  13.106  10.850   9.209
98797SOL     OW98229   8.490   1.727  12.134
98797SOL    HW198230   8.466   1.667  12.064
98797SOL    HW298231   8.427   1.710  12.204
98798SOL     OW98232  11.358   0.787  12.923
98798SOL    HW198233  11.269   0.781  12.958
98798SOL    HW298234  11.346   0.785  12.828
98799SOL     OW98235   2.297   6.984   5.098
98799SOL    HW198236   2.263   7.050   5.158
98799SOL    HW298237   2.389   7.007   5.086
98800SOL     OW98238  13.747   8.248   0.358
98800SOL    HW198239  13.733   8.321   0.418
98800SOL    HW298240  13.827   8.271   0.310
98801SOL     OW98241   4.141  13.321   2.296
98801SOL    HW198242   4.169  13.324   2.205
98801SOL    HW298243   4.148  13.229   2.321
98802SOL     OW98244   7.721  14.248   7.442
98802SOL    HW198245   7.647  14.240   7.502
98802SOL    HW298246   7.752  14.158   7.430
98803SOL     OW98247   4.686  13.260   1.707
98803SOL    HW198248   4.680  13.197   1.636
98803SOL    HW298249   4.652  13.214   1.784
98804SOL     OW98250   1.199   6.194   6.243
98804SOL    HW198251   1.194   6.185   6.147
98804SOL    HW298252   1.154   6.117   6.277
98805SOL     OW98253   0.947  11.525  10.002
98805SOL    HW198254   1.007  11.452   9.987
98805SOL    HW298255   0.977  11.564  10.084
98806SOL     OW98256   8.473   0.677   5.672
98806SOL    HW198257   8.478   0.749   5.608
98806SOL    HW298258   8.532   0.610   5.638
98807SOL     OW98259   7.213   3.016  11.225
98807SOL    HW198260   7.202   2.988  11.134
98807SOL    HW298261   7.258   2.943  11.267
98808SOL     OW98262   7.367   6.800   4.401
98808SOL    HW198263   7.384   6.821   4.309
98808SOL    HW298264   7.276   6.770   4.403
98809SOL     OW98265   3.417  13.143  14.840
98809SOL    HW198266   3.415  13.125  14.746
98809SOL    HW298267   3.457  13.230  14.847
98810SOL     OW98268   5.447  14.561   9.593
98810SOL    HW198269   5.353  14.566   9.578
98810SOL    HW298270   5.482  14.521   9.513
98811SOL     OW98271  11.406   4.347   5.429
98811SOL    HW198272  11.487   4.366   5.383
98811SOL    HW298273  11.434   4.320   5.517
98812SOL     OW98274   1.362   7.718  14.845
98812SOL    HW198275   1.335   7.631  14.874
98812SOL    HW298276   1.385   7.764   0.044
98813SOL     OW98277  14.843   5.861   0.300
98813SOL    HW198278  14.848   5.867   0.204
98813SOL    HW298279   0.024   5.793   0.323
98814SOL     OW98280   2.966  10.910   3.235
98814SOL    HW198281   3.016  10.831   3.214
98814SOL    HW298282   3.027  10.962   3.289
98815SOL     OW98283   1.867   2.736  11.911
98815SOL    HW198284   1.932   2.802  11.934
98815SOL    HW298285   1.806   2.780  11.852
98816SOL     OW98286   4.327  12.856   1.470
98816SOL    HW198287   4.311  12.835   1.378
98816SOL    HW298288   4.244  12.836   1.513
98817SOL     OW98289   2.562  12.506   2.856
98817SOL    HW198290   2.637  12.455   2.885
98817SOL    HW298291   2.499  12.440   2.826
98818SOL     OW98292   4.780   2.159   1.747
98818SOL    HW198293   4.846   2.222   1.775
98818SOL    HW298294   4.824   2.106   1.680
98819SOL     OW98295   8.767   4.293   3.761
98819SOL    HW198296   8.741   4.202   3.750
98819SOL    HW298297   8.705   4.343   3.709
98820SOL     OW98298   5.010   6.560   4.894
98820SOL    HW198299   5.096   6.528   4.921
98820SOL    HW298300   4.965   6.582   4.975
98821SOL     OW98301   3.521   1.324   1.091
98821SOL    HW198302   3.544   1.231   1.097
98821SOL    HW298303   3.498   1.337   0.999
98822SOL     OW98304   9.079  11.780   5.677
98822SOL    HW198305   9.077  11.871   5.648
98822SOL    HW298306   9.152  11.776   5.739
98823SOL     OW98307   1.172   9.028   3.765
98823SOL    HW198308   1.262   8.997   3.776
98823SOL    HW298309   1.160   9.036   3.671
98824SOL     OW98310  12.094  12.867   6.061
98824SOL    HW198311  12.139  12.906   5.985
98824SOL    HW298312  12.108  12.930   6.132
98825SOL     OW98313   0.554  12.116   1.141
98825SOL    HW198314   0.610  12.108   1.064
98825SOL    HW298315   0.613  12.101   1.216
98826SOL     OW98316  12.742  13.080  12.984
98826SOL    HW198317  12.825  13.045  12.951
98826SOL    HW298318  12.679  13.009  12.970
98827SOL     OW98319   0.235   8.444   0.062
98827SOL    HW198320   0.162   8.400   0.018
98827SOL    HW298321   0.248   8.395   0.143
98828SOL     OW98322   3.258  14.492   6.634
98828SOL    HW198323   3.293  14.536   6.711
98828SOL    HW298324   3.305  14.531   6.560
98829SOL     OW98325   7.533  11.293   5.847
98829SOL    HW198326   7.541  11.348   5.925
98829SOL    HW298327   7.446  11.254   5.854
98830SOL     OW98328   1.065   4.560   1.800
98830SOL    HW198329   1.150   4.593   1.770
98830SOL    HW298330   1.001   4.621   1.764
98831SOL     OW98331   0.087   5.761   9.315
98831SOL    HW198332   0.107   5.731   9.226
98831SOL    HW298333   0.112   5.687   9.371
98832SOL     OW98334   0.034   6.475   2.683
98832SOL    HW198335   0.033   6.385   2.652
98832SOL    HW298336  14.845   6.479   2.748
98833SOL     OW98337   5.347   8.698  11.216
98833SOL    HW198338   5.280   8.636  11.189
98833SOL    HW298339   5.427   8.665  11.176
98834SOL     OW98340  10.008  10.396   1.456
98834SOL    HW198341  10.098  10.386   1.489
98834SOL    HW298342  10.018  10.402   1.361
98835SOL     OW98343  14.169  13.129   8.303
98835SOL    HW198344  14.123  13.064   8.357
98835SOL    HW298345  14.101  13.191   8.276
98836SOL     OW98346  11.127   7.210   0.214
98836SOL    HW198347  11.080   7.292   0.198
98836SOL    HW298348  11.091   7.149   0.150
98837SOL     OW98349   0.083   9.272   6.112
98837SOL    HW198350   0.165   9.283   6.064
98837SOL    HW298351   0.103   9.208   6.179
98838SOL     OW98352   3.812   9.759   3.464
98838SOL    HW198353   3.723   9.740   3.433
98838SOL    HW298354   3.811   9.852   3.483
98839SOL     OW98355   9.354   9.628  11.999
98839SOL    HW198356   9.269   9.588  11.984
98839SOL    HW298357   9.408   9.597  11.925
98840SOL     OW98358   1.599  12.271   9.992
98840SOL    HW198359   1.572  12.343   9.935
98840SOL    HW298360   1.517  12.240  10.031
98841SOL     OW98361  12.444   1.876   4.050
98841SOL    HW198362  12.532   1.915   4.044
98841SOL    HW298363  12.438   1.846   4.141
98842SOL     OW98364   8.243  14.058   2.590
98842SOL    HW198365   8.270  13.980   2.540
98842SOL    HW298366   8.286  14.048   2.675
98843SOL     OW98367   6.252   3.001  12.609
98843SOL    HW198368   6.178   3.045  12.651
98843SOL    HW298369   6.282   2.937  12.674
98844SOL     OW98370   9.501  14.836   8.571
98844SOL    HW198371   9.435   0.013   8.607
98844SOL    HW298372   9.514  14.770   8.639
98845SOL     OW98373  12.700  14.276  12.170
98845SOL    HW198374  12.612  14.268  12.132
98845SOL    HW298375  12.686  14.265  12.264
98846SOL     OW98376  10.742   8.174  13.305
98846SOL    HW198377  10.735   8.170  13.400
98846SOL    HW298378  10.674   8.114  13.274
98847SOL     OW98379   2.185   6.677   7.624
98847SOL    HW198380   2.270   6.673   7.582
98847SOL    HW298381   2.191   6.751   7.685
98848SOL     OW98382   7.160  13.429   6.190
98848SOL    HW198383   7.122  13.442   6.103
98848SOL    HW298384   7.242  13.383   6.174
98849SOL     OW98385   8.555  10.195   1.336
98849SOL    HW198386   8.546  10.112   1.290
98849SOL    HW298387   8.477  10.245   1.311
98850SOL     OW98388   1.299  11.100   9.015
98850SOL    HW198389   1.389  11.079   9.038
98850SOL    HW298390   1.276  11.174   9.071
98851SOL     OW98391   5.683   7.928   6.383
98851SOL    HW198392   5.594   7.961   6.393
98851SOL    HW298393   5.714   7.967   6.302
98852SOL     OW98394   7.759  14.398   7.808
98852SOL    HW198395   7.814  14.322   7.827
98852SOL    HW298396   7.676  14.362   7.777
98853SOL     OW98397   0.498   4.942   9.527
98853SOL    HW198398   0.494   4.854   9.564
98853SOL    HW298399   0.587   4.973   9.547
98854SOL     OW98400   4.954   3.345   3.468
98854SOL    HW198401   4.871   3.356   3.422
98854SOL    HW298402   4.932   3.357   3.561
98855SOL     OW98403   5.041   2.196   0.541
98855SOL    HW198404   4.970   2.234   0.488
98855SOL    HW298405   5.014   2.105   0.555
98856SOL     OW98406   0.359   0.163   2.051
98856SOL    HW198407   0.294   0.103   2.015
98856SOL    HW298408   0.440   0.142   2.005
98857SOL     OW98409   4.689   4.244   3.331
98857SOL    HW198410   4.637   4.166   3.309
98857SOL    HW298411   4.694   4.293   3.249
98858SOL     OW98412   1.589  10.748   8.513
98858SOL    HW198413   1.632  10.693   8.579
98858SOL    HW298414   1.646  10.743   8.437
98859SOL     OW98415   2.039   5.108  14.619
98859SOL    HW198416   2.008   5.192  14.651
98859SOL    HW298417   2.010   5.045  14.685
98860SOL     OW98418   4.525  11.897  12.921
98860SOL    HW198419   4.547  11.804  12.925
98860SOL    HW298420   4.578  11.938  12.989
98861SOL     OW98421   1.438   3.746   2.394
98861SOL    HW198422   1.459   3.686   2.322
98861SOL    HW298423   1.344   3.761   2.385
98862SOL     OW98424   7.693  10.288   2.643
98862SOL    HW198425   7.779  10.322   2.668
98862SOL    HW298426   7.634  10.322   2.710
98863SOL     OW98427   2.814  14.742   9.722
98863SOL    HW198428   2.839  14.806   9.789
98863SOL    HW298429   2.881  14.752   9.654
98864SOL     OW98430   7.972  14.673   0.930
98864SOL    HW198431   8.010  14.753   0.893
98864SOL    HW298432   8.046  14.630   0.973
98865SOL     OW98433   6.973  12.073  13.442
98865SOL    HW198434   6.914  12.088  13.368
98865SOL    HW298435   6.950  11.985  13.473
98866SOL     OW98436  11.623   0.494   8.653
98866SOL    HW198437  11.584   0.482   8.566
98866SOL    HW298438  11.709   0.533   8.636
98867SOL     OW98439   5.648   5.032   3.967
98867SOL    HW198440   5.728   5.085   3.969
98867SOL    HW298441   5.625   5.021   4.059
98868SOL     OW98442   8.965   7.493  12.887
98868SOL    HW198443   9.040   7.457  12.934
98868SOL    HW298444   9.002   7.563  12.832
98869SOL     OW98445   4.800   5.286   8.752
98869SOL    HW198446   4.874   5.339   8.783
98869SOL    HW298447   4.723   5.329   8.790
98870SOL     OW98448  12.575   8.512  11.886
98870SOL    HW198449  12.643   8.457  11.924
98870SOL    HW298450  12.617   8.597  11.873
98871SOL     OW98451   9.924   7.778  10.742
98871SOL    HW198452   9.981   7.701  10.742
98871SOL    HW298453   9.950   7.828  10.819
98872SOL     OW98454   6.319  10.715   7.049
98872SOL    HW198455   6.228  10.725   7.078
98872SOL    HW298456   6.360  10.799   7.069
98873SOL     OW98457  14.115   7.601   4.230
98873SOL    HW198458  14.114   7.634   4.140
98873SOL    HW298459  14.100   7.507   4.222
98874SOL     OW98460   6.283  11.458   1.904
98874SOL    HW198461   6.359  11.416   1.943
98874SOL    HW298462   6.303  11.462   1.810
98875SOL     OW98463  10.329   1.277   3.114
98875SOL    HW198464  10.264   1.319   3.171
98875SOL    HW298465  10.391   1.346   3.092
98876SOL     OW98466   9.345  14.012   4.654
98876SOL    HW198467   9.311  14.084   4.706
98876SOL    HW298468   9.437  14.032   4.641
98877SOL     OW98469   9.438   6.475  12.007
98877SOL    HW198470   9.512   6.536  12.002
98877SOL    HW298471   9.390   6.488  11.925
98878SOL     OW98472   1.007  11.989  10.139
98878SOL    HW198473   1.061  12.057  10.181
98878SOL    HW298474   0.941  11.967  10.205
98879SOL     OW98475   3.267  12.887  13.733
98879SOL    HW198476   3.299  12.800  13.709
98879SOL    HW298477   3.334  12.947  13.701
98880SOL     OW98478   9.755  10.432   2.503
98880SOL    HW198479   9.735  10.467   2.590
98880SOL    HW298480   9.850  10.421   2.503
98881SOL     OW98481   9.534   9.665   2.621
98881SOL    HW198482   9.499   9.693   2.706
98881SOL    HW298483   9.598   9.732   2.599
98882SOL     OW98484   5.913   5.255   5.029
98882SOL    HW198485   5.912   5.162   5.008
98882SOL    HW298486   5.973   5.262   5.103
98883SOL     OW98487   0.563   0.300   4.798
98883SOL    HW198488   0.468   0.315   4.800
98883SOL    HW298489   0.578   0.236   4.867
98884SOL     OW98490   0.504   5.900  10.430
98884SOL    HW198491   0.529   5.830  10.370
98884SOL    HW298492   0.498   5.978  10.375
98885SOL     OW98493   3.330   2.628   5.547
98885SOL    HW198494   3.340   2.699   5.611
98885SOL    HW298495   3.237   2.628   5.526
98886SOL     OW98496   0.962   3.119   9.478
98886SOL    HW198497   0.922   3.096   9.562
98886SOL    HW298498   1.014   3.042   9.454
98887SOL     OW98499  12.106   6.337  13.384
98887SOL    HW198500  12.106   6.265  13.321
98887SOL    HW298501  12.175   6.396  13.352
98888SOL     OW98502   7.502   5.638   6.337
98888SOL    HW198503   7.593   5.666   6.350
98888SOL    HW298504   7.488   5.648   6.243
98889SOL     OW98505   4.446  10.678   0.089
98889SOL    HW198506   4.357  10.685   0.124
98889SOL    HW298507   4.495  10.633   0.158
98890SOL     OW98508   5.366   4.984   7.443
98890SOL    HW198509   5.347   5.033   7.523
98890SOL    HW298510   5.451   5.016   7.414
98891SOL     OW98511   6.857   9.329  11.246
98891SOL    HW198512   6.924   9.367  11.303
98891SOL    HW298513   6.793   9.291  11.306
98892SOL     OW98514   4.801   8.134   4.790
98892SOL    HW198515   4.725   8.180   4.825
98892SOL    HW298516   4.867   8.142   4.858
98893SOL     OW98517  13.844   5.072   3.573
98893SOL    HW198518  13.771   5.113   3.527
98893SOL    HW298519  13.870   5.135   3.640
98894SOL     OW98520   9.706  12.411   5.646
98894SOL    HW198521   9.779  12.471   5.629
98894SOL    HW298522   9.669  12.394   5.559
98895SOL     OW98523  10.055   1.673   1.490
98895SOL    HW198524   9.971   1.701   1.526
98895SOL    HW298525  10.034   1.643   1.401
98896SOL     OW98526   5.086   1.403   0.201
98896SOL    HW198527   5.026   1.462   0.156
98896SOL    HW298528   5.168   1.410   0.152
98897SOL     OW98529  10.808   6.186  11.288
98897SOL    HW198530  10.866   6.110  11.297
98897SOL    HW298531  10.730   6.162  11.337
98898SOL     OW98532  11.553   2.375   5.535
98898SOL    HW198533  11.534   2.283   5.515
98898SOL    HW298534  11.492   2.397   5.605
98899SOL     OW98535   9.851  11.695   9.665
98899SOL    HW198536   9.840  11.720   9.756
98899SOL    HW298537   9.763  11.673   9.635
98900SOL     OW98538   0.343   4.475   3.353
98900SOL    HW198539   0.393   4.541   3.403
98900SOL    HW298540   0.408   4.408   3.331
98901SOL     OW98541  13.702   3.165  11.383
98901SOL    HW198542  13.703   3.074  11.352
98901SOL    HW298543  13.695   3.217  11.303
98902SOL     OW98544   0.991   2.137   5.674
98902SOL    HW198545   0.965   2.119   5.764
98902SOL    HW298546   0.970   2.056   5.627
98903SOL     OW98547   1.211   5.528  11.084
98903SOL    HW198548   1.300   5.515  11.118
98903SOL    HW298549   1.186   5.615  11.115
98904SOL     OW98550  12.584   2.960  11.746
98904SOL    HW198551  12.583   2.983  11.839
98904SOL    HW298552  12.504   3.001  11.711
98905SOL     OW98553   9.530   8.805   1.564
98905SOL    HW198554   9.537   8.786   1.470
98905SOL    HW298555   9.437   8.823   1.578
98906SOL     OW98556   4.216   5.155   5.705
98906SOL    HW198557   4.206   5.188   5.616
98906SOL    HW298558   4.309   5.169   5.726
98907SOL     OW98559   8.175  12.129   3.308
98907SOL    HW198560   8.161  12.207   3.362
98907SOL    HW298561   8.184  12.057   3.371
98908SOL     OW98562  12.265   1.825   4.999
98908SOL    HW198563  12.281   1.803   5.091
98908SOL    HW298564  12.187   1.880   5.001
98909SOL     OW98565   1.248   9.679   7.218
98909SOL    HW198566   1.193   9.647   7.146
98909SOL    HW298567   1.200   9.654   7.297
98910SOL     OW98568  12.512   4.650  12.334
98910SOL    HW198569  12.588   4.672  12.388
98910SOL    HW298570  12.463   4.733  12.327
98911SOL     OW98571   6.728  11.557  13.192
98911SOL    HW198572   6.652  11.564  13.250
98911SOL    HW298573   6.752  11.464  13.196
98912SOL     OW98574   5.084   7.125   1.663
98912SOL    HW198575   5.036   7.182   1.723
98912SOL    HW298576   5.017   7.092   1.603
98913SOL     OW98577   7.637  13.945  13.452
98913SOL    HW198578   7.729  13.927  13.432
98913SOL    HW298579   7.599  13.860  13.472
98914SOL     OW98580   5.236  14.008  14.314
98914SOL    HW198581   5.199  14.086  14.355
98914SOL    HW298582   5.161  13.952  14.295
98915SOL     OW98583  12.212   2.624   5.625
98915SOL    HW198584  12.265   2.674   5.564
98915SOL    HW298585  12.173   2.555   5.572
98916SOL     OW98586   6.619   5.462   4.040
98916SOL    HW198587   6.589   5.553   4.049
98916SOL    HW298588   6.552   5.410   4.082
98917SOL     OW98589  12.957  13.921  10.073
98917SOL    HW198590  13.009  13.938   9.994
98917SOL    HW298591  12.998  13.844  10.112
98918SOL     OW98592   0.046   8.283   9.439
98918SOL    HW198593   0.105   8.275   9.514
98918SOL    HW298594  14.844   8.250   9.471
98919SOL     OW98595   5.020   2.108  11.800
98919SOL    HW198596   5.026   2.199  11.828
98919SOL    HW298597   4.944   2.105  11.743
98920SOL     OW98598   0.168   9.439  14.314
98920SOL    HW198599   0.177   9.527  14.278
98920SOL    HW298600   0.257   9.409  14.328
98921SOL     OW98601   1.938  10.775  13.861
98921SOL    HW198602   1.933  10.869  13.845
98921SOL    HW298603   2.032  10.757  13.872
98922SOL     OW98604   1.337   7.963   8.483
98922SOL    HW198605   1.375   8.005   8.560
98922SOL    HW298606   1.330   8.032   8.418
98923SOL     OW98607   1.333   9.295  11.243
98923SOL    HW198608   1.321   9.200  11.241
98923SOL    HW298609   1.329   9.319  11.335
98924SOL     OW98610   3.444   2.746   4.542
98924SOL    HW198611   3.506   2.818   4.554
98924SOL    HW298612   3.481   2.674   4.593
98925SOL     OW98613  10.535  13.641  12.613
98925SOL    HW198614  10.531  13.699  12.689
98925SOL    HW298615  10.564  13.698  12.541
98926SOL     OW98616  10.733   1.174  14.293
98926SOL    HW198617  10.737   1.079  14.307
98926SOL    HW298618  10.650   1.188  14.248
98927SOL     OW98619  10.794   2.081   0.109
98927SOL    HW198620  10.834   2.156   0.153
98927SOL    HW298621  10.724   2.118   0.056
98928SOL     OW98622  10.331  14.341  11.562
98928SOL    HW198623  10.364  14.421  11.519
98928SOL    HW298624  10.242  14.363  11.588
98929SOL     OW98625   3.772   1.490  10.408
98929SOL    HW198626   3.693   1.457  10.365
98929SOL    HW298627   3.788   1.428  10.480
98930SOL     OW98628   4.752   3.009  12.122
98930SOL    HW198629   4.670   2.960  12.134
98930SOL    HW298630   4.815   2.963  12.177
98931SOL     OW98631  12.661   7.253  14.145
98931SOL    HW198632  12.714   7.174  14.134
98931SOL    HW298633  12.574   7.220  14.169
98932SOL     OW98634  14.811  14.072  11.362
98932SOL    HW198635  14.840  14.090  11.451
98932SOL    HW298636  14.720  14.044  11.372
98933SOL     OW98637  13.275   2.757  10.055
98933SOL    HW198638  13.179   2.760  10.050
98933SOL    HW298639  13.295   2.775  10.147
98934SOL     OW98640  12.415  14.759   9.095
98934SOL    HW198641  12.482  14.745   9.162
98934SOL    HW298642  12.379  14.672   9.079
98935SOL     OW98643  11.487   7.601  12.210
98935SOL    HW198644  11.540   7.540  12.261
98935SOL    HW298645  11.531   7.685  12.221
98936SOL     OW98646  14.778   9.329   7.966
98936SOL    HW198647  14.870   9.341   7.944
98936SOL    HW298648  14.767   9.234   7.970
98937SOL     OW98649   0.264   5.505   3.942
98937SOL    HW198650   0.255   5.527   4.035
98937SOL    HW298651   0.229   5.416   3.935
98938SOL     OW98652   2.393   6.290   7.810
98938SOL    HW198653   2.362   6.351   7.878
98938SOL    HW298654   2.480   6.263   7.840
98939SOL     OW98655   5.711   4.200   3.039
98939SOL    HW198656   5.708   4.291   3.009
98939SOL    HW298657   5.804   4.178   3.042
98940SOL     OW98658   5.489   5.831  10.900
98940SOL    HW198659   5.526   5.763  10.844
98940SOL    HW298660   5.495   5.794  10.988
98941SOL     OW98661  11.720   8.520  11.145
98941SOL    HW198662  11.790   8.581  11.168
98941SOL    HW298663  11.679   8.498  11.229
98942SOL     OW98664   0.247  12.297   3.770
98942SOL    HW198665   0.278  12.215   3.811
98942SOL    HW298666   0.224  12.271   3.681
98943SOL     OW98667   8.150  11.119   4.656
98943SOL    HW198668   8.232  11.079   4.684
98943SOL    HW298669   8.175  11.180   4.587
98944SOL     OW98670   6.199   3.798  10.438
98944SOL    HW198671   6.120   3.816  10.387
98944SOL    HW298672   6.240   3.883  10.449
98945SOL     OW98673   5.456   3.836   8.936
98945SOL    HW198674   5.467   3.901   8.867
98945SOL    HW298675   5.505   3.760   8.905
98946SOL     OW98676  14.513   5.965   9.354
98946SOL    HW198677  14.513   6.054   9.318
98946SOL    HW298678  14.427   5.930   9.330
98947SOL     OW98679   3.524   9.612   9.735
98947SOL    HW198680   3.614   9.637   9.718
98947SOL    HW298681   3.531   9.537   9.795
98948SOL     OW98682   4.290   7.095  12.997
98948SOL    HW198683   4.204   7.055  12.988
98948SOL    HW298684   4.290   7.166  12.933
98949SOL     OW98685   1.809   2.852   7.475
98949SOL    HW198686   1.902   2.849   7.452
98949SOL    HW298687   1.792   2.944   7.495
98950SOL     OW98688  12.000   1.350  13.957
98950SOL    HW198689  12.066   1.357  14.026
98950SOL    HW298690  11.941   1.425  13.972
98951SOL     OW98691   5.827   3.173   3.199
98951SOL    HW198692   5.794   3.123   3.274
98951SOL    HW298693   5.889   3.235   3.237
98952SOL     OW98694  13.545   9.067   3.730
98952SOL    HW198695  13.589   9.092   3.649
98952SOL    HW298696  13.616   9.050   3.792
98953SOL     OW98697  13.258  12.018  12.394
98953SOL    HW198698  13.247  12.113  12.384
98953SOL    HW298699  13.275  11.987  12.305
98954SOL     OW98700   4.529   3.808   8.923
98954SOL    HW198701   4.544   3.737   8.986
98954SOL    HW298702   4.540   3.766   8.838
98955SOL     OW98703  12.699  13.241   5.712
98955SOL    HW198704  12.748  13.211   5.635
98955SOL    HW298705  12.766  13.275   5.772
98956SOL     OW98706  12.201   8.466  14.605
98956SOL    HW198707  12.224   8.438  14.517
98956SOL    HW298708  12.119   8.513  14.595
98957SOL     OW98709   5.114   7.207   4.321
98957SOL    HW198710   5.077   7.295   4.329
98957SOL    HW298711   5.204   7.216   4.350
98958SOL     OW98712   1.377   9.695  14.599
98958SOL    HW198713   1.462   9.657  14.576
98958SOL    HW298714   1.397   9.758  14.668
98959SOL     OW98715   7.523   5.577  11.434
98959SOL    HW198716   7.528   5.561  11.340
98959SOL    HW298717   7.468   5.655  11.443
98960SOL     OW98718   1.106  14.209   0.557
98960SOL    HW198719   1.056  14.246   0.629
98960SOL    HW298720   1.193  14.193   0.593
98961SOL     OW98721   8.412   1.299   9.448
98961SOL    HW198722   8.424   1.247   9.369
98961SOL    HW298723   8.355   1.371   9.421
98962SOL     OW98724  11.349  14.370   5.136
98962SOL    HW198725  11.277  14.340   5.192
98962SOL    HW298726  11.314  14.449   5.094
98963SOL     OW98727   4.703  11.020   4.017
98963SOL    HW198728   4.789  11.001   3.981
98963SOL    HW298729   4.645  10.957   3.974
98964SOL     OW98730   1.411   7.399  14.400
98964SOL    HW198731   1.450   7.443  14.477
98964SOL    HW298732   1.433   7.307  14.412
98965SOL     OW98733  12.356   9.532   1.971
98965SOL    HW198734  12.283   9.473   1.957
98965SOL    HW298735  12.419   9.481   2.022
98966SOL     OW98736  10.550   0.736  12.706
98966SOL    HW198737  10.556   0.646  12.674
98966SOL    HW298738  10.462   0.764  12.681
98967SOL     OW98739   5.015   8.384   2.453
98967SOL    HW198740   5.090   8.416   2.403
98967SOL    HW298741   4.950   8.362   2.387
98968SOL     OW98742   5.185  14.228   1.572
98968SOL    HW198743   5.202  14.311   1.616
98968SOL    HW298744   5.222  14.162   1.630
98969SOL     OW98745   5.840   4.610   8.528
98969SOL    HW198746   5.930   4.578   8.521
98969SOL    HW298747   5.789   4.552   8.472
98970SOL     OW98748   3.307  12.521  14.518
98970SOL    HW198749   3.214  12.529  14.542
98970SOL    HW298750   3.314  12.432  14.481
98971SOL     OW98751   6.316   4.845  14.612
98971SOL    HW198752   6.249   4.789  14.652
98971SOL    HW298753   6.286   4.858  14.522
98972SOL     OW98754  12.802  11.330  12.014
98972SOL    HW198755  12.769  11.398  12.073
98972SOL    HW298756  12.874  11.289  12.062
98973SOL     OW98757  12.386  14.466  10.129
98973SOL    HW198758  12.359  14.541  10.076
98973SOL    HW298759  12.421  14.404  10.065
98974SOL     OW98760  12.211   5.082   7.228
98974SOL    HW198761  12.164   5.120   7.302
98974SOL    HW298762  12.169   5.120   7.150
98975SOL     OW98763   7.752   7.069  12.441
98975SOL    HW198764   7.667   7.053  12.482
98975SOL    HW298765   7.815   7.027  12.499
98976SOL     OW98766  14.655  13.836   2.391
98976SOL    HW198767  14.719  13.771   2.364
98976SOL    HW298768  14.702  13.894   2.451
98977SOL     OW98769  13.545   2.018   2.711
98977SOL    HW198770  13.541   2.101   2.663
98977SOL    HW298771  13.516   1.952   2.648
98978SOL     OW98772   4.430   4.895   1.730
98978SOL    HW198773   4.344   4.928   1.704
98978SOL    HW298774   4.489   4.919   1.658
98979SOL     OW98775   4.095  13.864   1.196
98979SOL    HW198776   4.188  13.870   1.219
98979SOL    HW298777   4.049  13.900   1.272
98980SOL     OW98778  12.726   3.646   5.544
98980SOL    HW198779  12.642   3.689   5.529
98980SOL    HW298780  12.786   3.687   5.483
98981SOL     OW98781  12.996  10.418   2.636
98981SOL    HW198782  13.017  10.493   2.693
98981SOL    HW298783  13.081  10.384   2.609
98982SOL     OW98784  13.707  14.871   7.390
98982SOL    HW198785  13.728   0.007   7.481
98982SOL    HW298786  13.695  14.776   7.386
98983SOL     OW98787   7.274  13.369   5.842
98983SOL    HW198788   7.179  13.374   5.849
98983SOL    HW298789   7.307  13.430   5.908
98984SOL     OW98790   3.949   5.330   0.750
98984SOL    HW198791   3.974   5.261   0.811
98984SOL    HW298792   4.024   5.338   0.692
98985SOL     OW98793   2.648   7.132   7.320
98985SOL    HW198794   2.710   7.090   7.380
98985SOL    HW298795   2.572   7.073   7.318
98986SOL     OW98796   5.154   5.241   8.692
98986SOL    HW198797   5.163   5.165   8.749
98986SOL    HW298798   5.190   5.212   8.608
98987SOL     OW98799   1.241  13.538   2.433
98987SOL    HW198800   1.243  13.507   2.524
98987SOL    HW298801   1.238  13.458   2.381
98988SOL     OW98802   2.790  13.105   4.234
98988SOL    HW198803   2.747  13.027   4.271
98988SOL    HW298804   2.813  13.078   4.145
98989SOL     OW98805   5.376   4.437   3.732
98989SOL    HW198806   5.289   4.470   3.709
98989SOL    HW298807   5.407   4.497   3.800
98990SOL     OW98808   9.462   1.420   0.819
98990SOL    HW198809   9.405   1.485   0.778
98990SOL    HW298810   9.458   1.440   0.912
98991SOL     OW98811   9.847   0.220   8.258
98991SOL    HW198812   9.869   0.313   8.259
98991SOL    HW298813   9.778   0.210   8.324
98992SOL     OW98814  11.702   5.492  14.857
98992SOL    HW198815  11.714   5.437   0.052
98992SOL    HW298816  11.783   5.481  14.807
98993SOL     OW98817   1.580  14.238   1.031
98993SOL    HW198818   1.541  14.164   1.079
98993SOL    HW298819   1.610  14.298   1.100
98994SOL     OW98820   2.647  10.017   7.805
98994SOL    HW198821   2.626   9.950   7.870
98994SOL    HW298822   2.737  10.042   7.823
98995SOL     OW98823  10.692   8.166   0.958
98995SOL    HW198824  10.614   8.203   1.000
98995SOL    HW298825  10.666   8.153   0.867
98996SOL     OW98826   2.049   2.367   0.611
98996SOL    HW198827   2.048   2.286   0.560
98996SOL    HW298828   1.964   2.408   0.592
98997SOL     OW98829   3.628  11.005  13.846
98997SOL    HW198830   3.615  10.957  13.764
98997SOL    HW298831   3.579  11.086  13.835
98998SOL     OW98832   9.841  13.633  14.641
98998SOL    HW198833   9.772  13.591  14.590
98998SOL    HW298834   9.822  13.611  14.731
98999SOL     OW98835   8.591  12.332  12.301
98999SOL    HW198836   8.670  12.280  12.318
98999SOL    HW298837   8.610  12.377  12.219
99000SOL     OW98838  10.739  14.881  13.898
99000SOL    HW198839  10.748   0.085  13.940
99000SOL    HW298840  10.752   0.017  13.805
99001SOL     OW98841   8.387   7.270   8.996
99001SOL    HW198842   8.339   7.352   8.994
99001SOL    HW298843   8.408   7.257   9.089
99002SOL     OW98844   0.943  14.443  12.184
99002SOL    HW198845   0.963  14.413  12.095
99002SOL    HW298846   0.847  14.441  12.189
99003SOL     OW98847   6.020  10.932   1.344
99003SOL    HW198848   6.043  10.893   1.260
99003SOL    HW298849   6.031  11.026   1.331
99004SOL     OW98850  13.328   0.915   4.784
99004SOL    HW198851  13.304   0.905   4.876
99004SOL    HW298852  13.247   0.946   4.742
99005SOL     OW98853   2.036   1.402   5.325
99005SOL    HW198854   2.023   1.333   5.391
99005SOL    HW298855   2.068   1.477   5.374
99006SOL     OW98856  14.362  11.129   8.523
99006SOL    HW198857  14.428  11.195   8.539
99006SOL    HW298858  14.378  11.099   8.434
99007SOL     OW98859  12.092  10.483   4.003
99007SOL    HW198860  12.105  10.570   3.966
99007SOL    HW298861  12.174  10.436   3.985
99008SOL     OW98862   8.980   1.892   5.787
99008SOL    HW198863   8.970   1.986   5.800
99008SOL    HW298864   8.908   1.867   5.728
99009SOL     OW98865   4.321  11.013  11.000
99009SOL    HW198866   4.227  10.999  10.987
99009SOL    HW298867   4.343  10.955  11.073
99010SOL     OW98868   4.381   3.125   6.679
99010SOL    HW198869   4.387   3.196   6.616
99010SOL    HW298870   4.373   3.046   6.625
99011SOL     OW98871   2.608   7.225  11.795
99011SOL    HW198872   2.679   7.195  11.738
99011SOL    HW298873   2.634   7.314  11.821
99012SOL     OW98874   5.709  12.154   1.770
99012SOL    HW198875   5.764  12.132   1.694
99012SOL    HW298876   5.736  12.243   1.793
99013SOL     OW98877  13.934  14.465   9.500
99013SOL    HW198878  13.918  14.482   9.593
99013SOL    HW298879  14.019  14.506   9.483
99014SOL     OW98880   6.430   3.209  11.021
99014SOL    HW198881   6.394   3.177  11.103
99014SOL    HW298882   6.510   3.157  11.009
99015SOL     OW98883   5.153   3.117  10.762
99015SOL    HW198884   5.078   3.120  10.821
99015SOL    HW298885   5.125   3.059  10.691
99016SOL     OW98886  10.507   7.579   7.510
99016SOL    HW198887  10.587   7.551   7.465
99016SOL    HW298888  10.473   7.650   7.456
99017SOL     OW98889   1.807  11.814   7.798
99017SOL    HW198890   1.711  11.811   7.802
99017SOL    HW298891   1.833  11.855   7.880
99018SOL     OW98892  14.039   7.623   2.030
99018SOL    HW198893  14.043   7.541   2.080
99018SOL    HW298894  14.101   7.681   2.074
99019SOL     OW98895   3.500  11.182  13.502
99019SOL    HW198896   3.468  11.234  13.429
99019SOL    HW298897   3.576  11.136  13.466
99020SOL     OW98898   9.909   0.127   2.855
99020SOL    HW198899   9.897   0.036   2.883
99020SOL    HW298900   9.844   0.140   2.786
99021SOL     OW98901   7.278   1.182   0.090
99021SOL    HW198902   7.198   1.193   0.038
99021SOL    HW298903   7.320   1.104   0.053
99022SOL     OW98904  10.336  10.967   8.835
99022SOL    HW198905  10.411  11.022   8.811
99022SOL    HW298906  10.305  11.002   8.918
99023SOL     OW98907   6.376   2.460   8.962
99023SOL    HW198908   6.365   2.406   8.883
99023SOL    HW298909   6.470   2.472   8.970
99024SOL     OW98910   3.752   6.097  11.854
99024SOL    HW198911   3.769   6.187  11.880
99024SOL    HW298912   3.670   6.074  11.897
99025SOL     OW98913   4.649  13.477   6.966
99025SOL    HW198914   4.612  13.525   6.891
99025SOL    HW298915   4.739  13.459   6.941
99026SOL     OW98916   6.729   9.854   6.159
99026SOL    HW198917   6.645   9.810   6.167
99026SOL    HW298918   6.768   9.818   6.080
99027SOL     OW98919   9.470   5.288   9.346
99027SOL    HW198920   9.504   5.376   9.331
99027SOL    HW298921   9.482   5.274   9.440
99028SOL     OW98922   7.553   2.818   4.637
99028SOL    HW198923   7.641   2.780   4.642
99028SOL    HW298924   7.567   2.906   4.603
99029SOL     OW98925   0.190   1.732   7.830
99029SOL    HW198926   0.194   1.649   7.876
99029SOL    HW298927   0.112   1.775   7.865
99030SOL     OW98928   2.535  14.528  12.731
99030SOL    HW198929   2.443  14.513  12.708
99030SOL    HW298930   2.585  14.480  12.665
99031SOL     OW98931   9.317  12.915   2.838
99031SOL    HW198932   9.390  12.853   2.838
99031SOL    HW298933   9.358  13.001   2.834
99032SOL     OW98934   3.078   4.048   1.567
99032SOL    HW198935   3.076   3.993   1.488
99032SOL    HW298936   2.987   4.047   1.599
99033SOL     OW98937   2.140   9.937   3.826
99033SOL    HW198938   2.197   9.902   3.758
99033SOL    HW298939   2.052   9.918   3.796
99034SOL     OW98940   3.748   9.074   5.027
99034SOL    HW198941   3.828   9.120   5.054
99034SOL    HW298942   3.717   9.124   4.951
99035SOL     OW98943  14.665  13.232   3.780
99035SOL    HW198944  14.587  13.199   3.734
99035SOL    HW298945  14.726  13.255   3.710
99036SOL     OW98946  10.830  14.621  14.274
99036SOL    HW198947  10.881  14.634  14.193
99036SOL    HW298948  10.855  14.695  14.330
99037SOL     OW98949  14.871   8.206   7.615
99037SOL    HW198950  14.876   8.253   7.532
99037SOL    HW298951  14.846   8.117   7.591
99038SOL     OW98952   5.681  13.490   0.794
99038SOL    HW198953   5.674  13.444   0.711
99038SOL    HW298954   5.643  13.430   0.858
99039SOL     OW98955   9.172   6.451   6.246
99039SOL    HW198956   9.226   6.400   6.186
99039SOL    HW298957   9.137   6.523   6.193
99040SOL     OW98958  13.275   2.562  13.142
99040SOL    HW198959  13.288   2.467  13.138
99040SOL    HW298960  13.211   2.575  13.211
99041SOL     OW98961  12.134  10.840  10.242
99041SOL    HW198962  12.133  10.932  10.214
99041SOL    HW298963  12.052  10.804  10.209
99042SOL     OW98964   3.177  12.136   9.984
99042SOL    HW198965   3.240  12.138  10.057
99042SOL    HW298966   3.232  12.131   9.906
99043SOL     OW98967   5.349  14.043   3.463
99043SOL    HW198968   5.320  14.133   3.446
99043SOL    HW298969   5.299  13.990   3.401
99044SOL     OW98970   3.193   0.024   6.622
99044SOL    HW198971   3.193  14.870   6.533
99044SOL    HW298972   3.133   0.098   6.619
99045SOL     OW98973  10.237  11.935   0.096
99045SOL    HW198974  10.199  11.973   0.176
99045SOL    HW298975  10.316  11.890   0.126
99046SOL     OW98976   6.084   2.639  10.734
99046SOL    HW198977   6.132   2.653  10.815
99046SOL    HW298978   6.131   2.567  10.690
99047SOL     OW98979   3.452   6.391  13.649
99047SOL    HW198980   3.472   6.407  13.557
99047SOL    HW298981   3.497   6.462  13.696
99048SOL     OW98982  13.380   9.757   2.931
99048SOL    HW198983  13.306   9.789   2.880
99048SOL    HW298984  13.342   9.690   2.988
99049SOL     OW98985   3.763   0.067   1.219
99049SOL    HW198986   3.753   0.068   1.314
99049SOL    HW298987   3.813   0.146   1.199
99050SOL     OW98988   0.943   9.474  13.581
99050SOL    HW198989   0.944   9.378  13.583
99050SOL    HW298990   0.938   9.496  13.488
99051SOL     OW98991   5.504   6.803   2.926
99051SOL    HW198992   5.492   6.875   2.864
99051SOL    HW298993   5.441   6.737   2.898
99052SOL     OW98994  10.389  11.847   7.961
99052SOL    HW198995  10.348  11.807   8.038
99052SOL    HW298996  10.399  11.940   7.985
99053SOL     OW98997   8.447  13.372   6.373
99053SOL    HW198998   8.489  13.441   6.322
99053SOL    HW298999   8.455  13.294   6.318
99054SOL     OW99000   3.586   8.115   4.697
99054SOL    HW199001   3.512   8.087   4.643
99054SOL    HW299002   3.642   8.038   4.703
99055SOL     OW99003   7.517   0.747  11.891
99055SOL    HW199004   7.458   0.748  11.967
99055SOL    HW299005   7.508   0.835  11.853
99056SOL     OW99006  10.195   5.434  13.871
99056SOL    HW199007  10.165   5.477  13.791
99056SOL    HW299008  10.289   5.424  13.859
99057SOL     OW99009   8.478  11.798   3.037
99057SOL    HW199010   8.487  11.764   3.126
99057SOL    HW299011   8.426  11.878   3.047
99058SOL     OW99012  13.734  11.104   8.879
99058SOL    HW199013  13.819  11.136   8.909
99058SOL    HW299014  13.744  11.094   8.784
99059SOL     OW99015  12.507   9.096  14.771
99059SOL    HW199016  12.473   9.185  14.760
99059SOL    HW299017  12.585   9.107  14.826
99060SOL     OW99018  10.611  13.883  12.805
99060SOL    HW199019  10.544  13.883  12.874
99060SOL    HW299020  10.598  13.966  12.759
99061SOL     OW99021   1.099   6.602   3.668
99061SOL    HW199022   1.165   6.579   3.602
99061SOL    HW299023   1.105   6.698   3.675
99062SOL     OW99024   3.878  10.690   8.710
99062SOL    HW199025   3.927  10.614   8.679
99062SOL    HW299026   3.893  10.692   8.804
99063SOL     OW99027  13.066   9.344   9.240
99063SOL    HW199028  13.111   9.370   9.320
99063SOL    HW299029  12.984   9.305   9.270
99064SOL     OW99030   3.427   4.234   5.704
99064SOL    HW199031   3.350   4.259   5.652
99064SOL    HW299032   3.391   4.206   5.788
99065SOL     OW99033   5.157  12.948   2.907
99065SOL    HW199034   5.211  12.888   2.958
99065SOL    HW299035   5.187  13.035   2.933
99066SOL     OW99036  12.703  12.694  12.236
99066SOL    HW199037  12.768  12.629  12.209
99066SOL    HW299038  12.640  12.696  12.164
99067SOL     OW99039  13.073  11.613   7.961
99067SOL    HW199040  13.102  11.537   7.910
99067SOL    HW299041  13.070  11.582   8.051
99068SOL     OW99042  10.771   0.755   9.408
99068SOL    HW199043  10.680   0.782   9.420
99068SOL    HW299044  10.811   0.768   9.495
99069SOL     OW99045   6.022   7.696  11.943
99069SOL    HW199046   6.031   7.606  11.975
99069SOL    HW299047   5.936   7.724  11.974
99070SOL     OW99048   1.814  12.830   8.709
99070SOL    HW199049   1.832  12.752   8.762
99070SOL    HW299050   1.744  12.875   8.757
99071SOL     OW99051  12.642   2.896  12.032
99071SOL    HW199052  12.711   2.839  12.066
99071SOL    HW299053  12.673   2.985  12.053
99072SOL     OW99054  14.107   8.185   1.119
99072SOL    HW199055  14.187   8.178   1.172
99072SOL    HW299056  14.092   8.279   1.110
99073SOL     OW99057   4.041  10.278   2.362
99073SOL    HW199058   3.965  10.221   2.349
99073SOL    HW299059   4.106  10.245   2.300
99074SOL     OW99060   7.307   7.894   5.199
99074SOL    HW199061   7.379   7.955   5.215
99074SOL    HW299062   7.337   7.837   5.129
99075SOL     OW99063   7.534  11.257   6.795
99075SOL    HW199064   7.547  11.244   6.889
99075SOL    HW299065   7.457  11.314   6.789
99076SOL     OW99066  10.801   0.193   0.794
99076SOL    HW199067  10.892   0.216   0.774
99076SOL    HW299068  10.758   0.189   0.708
99077SOL     OW99069   1.381   0.951  14.041
99077SOL    HW199070   1.293   0.964  14.005
99077SOL    HW299071   1.434   1.016  13.995
99078SOL     OW99072  14.184   8.857  14.302
99078SOL    HW199073  14.255   8.889  14.245
99078SOL    HW299074  14.227   8.842  14.386
99079SOL     OW99075   1.498   5.685   4.478
99079SOL    HW199076   1.564   5.650   4.537
99079SOL    HW299077   1.512   5.640   4.395
99080SOL     OW99078   3.533  13.686  10.882
99080SOL    HW199079   3.603  13.745  10.909
99080SOL    HW299080   3.489  13.662  10.964
99081SOL     OW99081   6.463  10.623   8.164
99081SOL    HW199082   6.471  10.644   8.258
99081SOL    HW299083   6.433  10.705   8.124
99082SOL     OW99084   5.977   4.278  12.943
99082SOL    HW199085   5.978   4.184  12.923
99082SOL    HW299086   6.021   4.285  13.027
99083SOL     OW99087   3.104   8.679   8.066
99083SOL    HW199088   3.053   8.729   8.130
99083SOL    HW299089   3.057   8.690   7.983
99084SOL     OW99090  10.443   3.714   4.374
99084SOL    HW199091  10.350   3.736   4.370
99084SOL    HW299092  10.448   3.625   4.338
99085SOL     OW99093   5.434   0.167   7.591
99085SOL    HW199094   5.526   0.140   7.593
99085SOL    HW299095   5.393   0.110   7.526
99086SOL     OW99096  13.144   0.772  13.711
99086SOL    HW199097  13.052   0.774  13.686
99086SOL    HW299098  13.149   0.829  13.788
99087SOL     OW99099  12.391  11.031  10.813
99087SOL    HW199100  12.342  11.002  10.736
99087SOL    HW299101  12.374  11.126  10.817
99088SOL     OW99102  10.757   5.101   8.040
99088SOL    HW199103  10.758   5.039   7.967
99088SOL    HW299104  10.669   5.138   8.039
99089SOL     OW99105  13.878   9.543  13.934
99089SOL    HW199106  13.967   9.569  13.911
99089SOL    HW299107  13.886   9.454  13.967
99090SOL     OW99108  10.668   2.909   8.753
99090SOL    HW199109  10.708   2.876   8.673
99090SOL    HW299110  10.643   2.999   8.731
99091SOL     OW99111   5.037   5.982   6.782
99091SOL    HW199112   5.006   6.025   6.702
99091SOL    HW299113   5.023   5.888   6.765
99092SOL     OW99114   3.199   1.934   1.553
99092SOL    HW199115   3.170   2.019   1.519
99092SOL    HW299116   3.254   1.956   1.628
99093SOL     OW99117   5.782   2.133   5.672
99093SOL    HW199118   5.870   2.108   5.644
99093SOL    HW299119   5.725   2.068   5.631
99094SOL     OW99120  12.299   9.467   5.887
99094SOL    HW199121  12.233   9.444   5.953
99094SOL    HW299122  12.251   9.470   5.805
99095SOL     OW99123  11.306   4.360   1.704
99095SOL    HW199124  11.321   4.279   1.656
99095SOL    HW299125  11.238   4.406   1.655
99096SOL     OW99126   2.159   9.396  13.214
99096SOL    HW199127   2.169   9.344  13.134
99096SOL    HW299128   2.217   9.471  13.201
99097SOL     OW99129  11.447   6.328  13.716
99097SOL    HW199130  11.402   6.264  13.771
99097SOL    HW299131  11.404   6.411  13.737
99098SOL     OW99132  11.994   8.978  11.908
99098SOL    HW199133  11.994   9.061  11.861
99098SOL    HW299134  11.972   9.001  11.998
99099SOL     OW99135  11.179   3.925   8.520
99099SOL    HW199136  11.185   3.990   8.591
99099SOL    HW299137  11.187   3.976   8.440
99100SOL     OW99138   9.600   2.006  11.692
99100SOL    HW199139   9.556   1.964  11.618
99100SOL    HW299140   9.629   2.091  11.658
99101SOL     OW99141   0.637  12.883   2.368
99101SOL    HW199142   0.649  12.840   2.283
99101SOL    HW299143   0.709  12.850   2.422
99102SOL     OW99144  12.456   2.650   5.473
99102SOL    HW199145  12.441   2.711   5.544
99102SOL    HW299146  12.548   2.663   5.449
99103SOL     OW99147   1.423   6.945  11.135
99103SOL    HW199148   1.400   6.925  11.044
99103SOL    HW299149   1.339   6.954  11.180
99104SOL     OW99150  14.320   4.130   3.869
99104SOL    HW199151  14.352   4.122   3.779
99104SOL    HW299152  14.394   4.104   3.923
99105SOL     OW99153   6.708  14.863   1.105
99105SOL    HW199154   6.718   0.072   1.078
99105SOL    HW299155   6.689  14.815   1.024
99106SOL     OW99156  13.128  13.034   6.036
99106SOL    HW199157  13.207  13.059   6.084
99106SOL    HW299158  13.160  13.009   5.949
99107SOL     OW99159   0.078   8.907   3.909
99107SOL    HW199160   0.006   8.850   3.883
99107SOL    HW299161   0.051   8.994   3.878
99108SOL     OW99162   7.025   4.014   4.730
99108SOL    HW199163   6.953   4.003   4.792
99108SOL    HW299164   7.019   3.937   4.673
99109SOL     OW99165   9.454  13.974   6.710
99109SOL    HW199166   9.481  14.056   6.670
99109SOL    HW299167   9.494  13.906   6.655
99110SOL     OW99168  10.838   1.599  10.735
99110SOL    HW199169  10.793   1.514  10.735
99110SOL    HW299170  10.929   1.577  10.757
99111SOL     OW99171   2.564   9.622   4.789
99111SOL    HW199172   2.474   9.602   4.765
99111SOL    HW299173   2.613   9.616   4.707
99112SOL     OW99174  10.422  12.514  13.191
99112SOL    HW199175  10.494  12.453  13.185
99112SOL    HW299176  10.410  12.547  13.101
99113SOL     OW99177  12.290   5.093   1.971
99113SOL    HW199178  12.300   5.178   1.928
99113SOL    HW299179  12.258   5.113   2.058
99114SOL     OW99180  13.130   2.393  10.107
99114SOL    HW199181  13.181   2.333  10.053
99114SOL    HW299182  13.040   2.380  10.079
99115SOL     OW99183  12.481  11.736   5.121
99115SOL    HW199184  12.450  11.663   5.068
99115SOL    HW299185  12.480  11.701   5.211
99116SOL     OW99186   1.073   4.669   4.458
99116SOL    HW199187   1.090   4.762   4.448
99116SOL    HW299188   1.159   4.630   4.476
99117SOL     OW99189  13.139   5.366   2.247
99117SOL    HW199190  13.165   5.315   2.170
99117SOL    HW299191  13.055   5.330   2.274
99118SOL     OW99192   5.462  12.665  13.482
99118SOL    HW199193   5.528  12.644  13.415
99118SOL    HW299194   5.405  12.588  13.484
99119SOL     OW99195   7.724   0.684   8.857
99119SOL    HW199196   7.800   0.703   8.802
99119SOL    HW299197   7.717   0.760   8.914
99120SOL     OW99198   5.601   4.099   2.254
99120SOL    HW199199   5.518   4.110   2.301
99120SOL    HW299200   5.588   4.144   2.170
99121SOL     OW99201   9.142   6.449   0.688
99121SOL    HW199202   9.152   6.385   0.617
99121SOL    HW299203   9.120   6.531   0.643
99122SOL     OW99204   1.319  11.442   5.948
99122SOL    HW199205   1.234  11.402   5.928
99122SOL    HW299206   1.369  11.434   5.867
99123SOL     OW99207   8.827   5.456   3.277
99123SOL    HW199208   8.769   5.526   3.309
99123SOL    HW299209   8.913   5.478   3.314
99124SOL     OW99210  11.345  12.313   0.614
99124SOL    HW199211  11.302  12.393   0.584
99124SOL    HW299212  11.314  12.302   0.704
99125SOL     OW99213   4.581  11.633   5.141
99125SOL    HW199214   4.594  11.727   5.127
99125SOL    HW299215   4.626  11.614   5.223
99126SOL     OW99216  12.179   0.467   3.615
99126SOL    HW199217  12.197   0.470   3.521
99126SOL    HW299218  12.263   0.444   3.655
99127SOL     OW99219  10.302   6.746   8.145
99127SOL    HW199220  10.222   6.797   8.137
99127SOL    HW299221  10.370   6.801   8.107
99128SOL     OW99222   0.983   4.385   2.488
99128SOL    HW199223   0.977   4.310   2.429
99128SOL    HW299224   1.067   4.426   2.467
99129SOL     OW99225   5.760  10.561  11.245
99129SOL    HW199226   5.810  10.618  11.303
99129SOL    HW299227   5.676  10.549  11.289
99130SOL     OW99228  12.523   2.375   7.660
99130SOL    HW199229  12.497   2.334   7.742
99130SOL    HW299230  12.589   2.439   7.685
99131SOL     OW99231   9.412   2.607   7.430
99131SOL    HW199232   9.481   2.628   7.493
99131SOL    HW299233   9.411   2.511   7.428
99132SOL     OW99234  14.531  13.796  11.957
99132SOL    HW199235  14.602  13.740  11.989
99132SOL    HW299236  14.518  13.769  11.866
99133SOL     OW99237   0.961   6.594   5.717
99133SOL    HW199238   1.007   6.615   5.636
99133SOL    HW299239   0.986   6.664   5.778
99134SOL     OW99240  14.534   2.804   7.611
99134SOL    HW199241  14.548   2.855   7.531
99134SOL    HW299242  14.614   2.817   7.662
99135SOL     OW99243  12.718  11.792  11.198
99135SOL    HW199244  12.786  11.735  11.162
99135SOL    HW299245  12.764  11.872  11.223
99136SOL     OW99246   3.741   3.197   3.714
99136SOL    HW199247   3.801   3.195   3.788
99136SOL    HW299248   3.670   3.138   3.739
99137SOL     OW99249  13.022  11.262  12.889
99137SOL    HW199250  12.958  11.244  12.958
99137SOL    HW299251  12.974  11.312  12.823
99138SOL     OW99252  13.568   5.944  14.252
99138SOL    HW199253  13.555   5.859  14.211
99138SOL    HW299254  13.581   5.924  14.345
99139SOL     OW99255   3.963  10.285  10.113
99139SOL    HW199256   3.955  10.195  10.082
99139SOL    HW299257   4.016  10.278  10.193
99140SOL     OW99258   4.769   1.119  11.556
99140SOL    HW199259   4.747   1.028  11.575
99140SOL    HW299260   4.715   1.142  11.480
99141SOL     OW99261  11.848  14.023  13.063
99141SOL    HW199262  11.800  13.949  13.098
99141SOL    HW299263  11.867  13.999  12.972
99142SOL     OW99264   0.604  12.038  13.070
99142SOL    HW199265   0.617  12.126  13.105
99142SOL    HW299266   0.635  12.044  12.980
99143SOL     OW99267   3.201   5.200  11.378
99143SOL    HW199268   3.284   5.235  11.408
99143SOL    HW299269   3.197   5.221  11.285
99144SOL     OW99270  11.605  12.649  14.236
99144SOL    HW199271  11.686  12.635  14.285
99144SOL    HW299272  11.535  12.635  14.300
99145SOL     OW99273  14.334   5.043   2.695
99145SOL    HW199274  14.404   5.099   2.661
99145SOL    HW299275  14.275   5.030   2.620
99146SOL     OW99276   8.729  11.024   6.886
99146SOL    HW199277   8.786  11.019   6.963
99146SOL    HW299278   8.685  10.939   6.884
99147SOL     OW99279   4.450   4.790  14.643
99147SOL    HW199280   4.476   4.817  14.555
99147SOL    HW299281   4.387   4.855  14.671
99148SOL     OW99282  13.909   7.593  12.532
99148SOL    HW199283  13.893   7.686  12.517
99148SOL    HW299284  13.827   7.551  12.506
99149SOL     OW99285   7.533  13.607  12.767
99149SOL    HW199286   7.600  13.606  12.699
99149SOL    HW299287   7.487  13.690  12.755
99150SOL     OW99288  14.319   8.049   8.355
99150SOL    HW199289  14.381   8.038   8.427
99150SOL    HW299290  14.243   8.090   8.395
99151SOL     OW99291  13.604   8.304   0.745
99151SOL    HW199292  13.687   8.329   0.785
99151SOL    HW299293  13.610   8.336   0.655
99152SOL     OW99294   2.707  10.575   9.694
99152SOL    HW199295   2.787  10.553   9.646
99152SOL    HW299296   2.640  10.583   9.626
99153SOL     OW99297   6.730  13.144   0.778
99153SOL    HW199298   6.769  13.062   0.748
99153SOL    HW299299   6.676  13.119   0.853
99154SOL     OW99300   8.115   6.665  10.673
99154SOL    HW199301   8.163   6.712  10.741
99154SOL    HW299302   8.023   6.687  10.690
99155SOL     OW99303   5.810  13.325   9.242
99155SOL    HW199304   5.814  13.405   9.190
99155SOL    HW299305   5.834  13.352   9.330
99156SOL     OW99306   2.098  13.416   5.841
99156SOL    HW199307   2.177  13.366   5.819
99156SOL    HW299308   2.084  13.397   5.934
99157SOL     OW99309   3.056   7.686  10.781
99157SOL    HW199310   2.982   7.637  10.817
99157SOL    HW299311   3.102   7.720  10.858
99158SOL     OW99312   0.209  10.687  13.940
99158SOL    HW199313   0.240  10.753  13.879
99158SOL    HW299314   0.237  10.719  14.026
99159SOL     OW99315   4.877   4.929   1.718
99159SOL    HW199316   4.948   4.948   1.657
99159SOL    HW299317   4.798   4.933   1.664
99160SOL     OW99318   5.326   9.041   4.958
99160SOL    HW199319   5.316   9.084   5.043
99160SOL    HW299320   5.363   8.955   4.978
99161SOL     OW99321   6.059  14.714  11.243
99161SOL    HW199322   6.155  14.718  11.248
99161SOL    HW299323   6.029  14.767  11.316
99162SOL     OW99324  12.750   4.033   7.497
99162SOL    HW199325  12.759   3.938   7.508
99162SOL    HW299326  12.833   4.069   7.527
99163SOL     OW99327   5.703   3.556  14.011
99163SOL    HW199328   5.709   3.633  13.954
99163SOL    HW299329   5.780   3.563  14.068
99164SOL     OW99330   2.959   0.572   3.392
99164SOL    HW199331   2.962   0.477   3.395
99164SOL    HW299332   2.889   0.592   3.329
99165SOL     OW99333   1.781   7.913  14.805
99165SOL    HW199334   1.761   7.877   0.010
99165SOL    HW299335   1.700   7.905  14.756
99166SOL     OW99336   8.868   3.051  13.639
99166SOL    HW199337   8.834   3.107  13.570
99166SOL    HW299338   8.896   2.971  13.593
99167SOL     OW99339   8.807   7.331   2.458
99167SOL    HW199340   8.723   7.357   2.496
99167SOL    HW299341   8.831   7.405   2.403
99168SOL     OW99342  13.383   7.078   4.081
99168SOL    HW199343  13.371   7.024   4.159
99168SOL    HW299344  13.374   7.168   4.112
99169SOL     OW99345  13.547   9.921   8.645
99169SOL    HW199346  13.526   9.862   8.718
99169SOL    HW299347  13.471   9.917   8.588
99170SOL     OW99348   2.912  14.750  14.100
99170SOL    HW199349   2.817  14.748  14.086
99170SOL    HW299350   2.949  14.751  14.012
99171SOL     OW99351   3.513   6.476   6.584
99171SOL    HW199352   3.439   6.530   6.556
99171SOL    HW299353   3.474   6.410   6.642
99172SOL     OW99354   1.864   3.145   2.143
99172SOL    HW199355   1.864   3.063   2.192
99172SOL    HW299356   1.860   3.118   2.051
99173SOL     OW99357   3.357   0.796   5.401
99173SOL    HW199358   3.397   0.726   5.452
99173SOL    HW299359   3.313   0.851   5.466
99174SOL     OW99360   9.864   3.811   2.942
99174SOL    HW199361   9.816   3.828   2.861
99174SOL    HW299362   9.947   3.857   2.931
99175SOL     OW99363   1.674  14.613   6.365
99175SOL    HW199364   1.767  14.609   6.345
99175SOL    HW299365   1.668  14.676   6.437
99176SOL     OW99366  10.511  11.373   5.668
99176SOL    HW199367  10.453  11.298   5.660
99176SOL    HW299368  10.453  11.449   5.669
99177SOL     OW99369   4.030   8.419   7.517
99177SOL    HW199370   4.120   8.399   7.491
99177SOL    HW299371   4.039   8.473   7.595
99178SOL     OW99372  12.024  13.308   0.983
99178SOL    HW199373  12.119  13.302   0.984
99178SOL    HW299374  11.994  13.218   0.987
99179SOL     OW99375   2.757   5.880   0.308
99179SOL    HW199376   2.665   5.901   0.298
99179SOL    HW299377   2.760   5.784   0.305
99180SOL     OW99378   5.114   2.093   0.206
99180SOL    HW199379   5.134   2.182   0.234
99180SOL    HW299380   5.106   2.044   0.287
99181SOL     OW99381   0.679   6.684  11.153
99181SOL    HW199382   0.671   6.716  11.063
99181SOL    HW299383   0.770   6.656  11.160
99182SOL     OW99384  14.385  12.959   5.591
99182SOL    HW199385  14.420  12.922   5.673
99182SOL    HW299386  14.290  12.948   5.599
99183SOL     OW99387   1.165   4.219   0.460
99183SOL    HW199388   1.252   4.180   0.466
99183SOL    HW299389   1.109   4.159   0.509
99184SOL     OW99390   5.528   8.515   9.166
99184SOL    HW199391   5.489   8.598   9.140
99184SOL    HW299392   5.466   8.449   9.137
99185SOL     OW99393   8.520   1.835   6.680
99185SOL    HW199394   8.585   1.862   6.744
99185SOL    HW299395   8.508   1.911   6.624
99186SOL     OW99396  10.634  11.564  13.226
99186SOL    HW199397  10.637  11.468  13.220
99186SOL    HW299398  10.634  11.593  13.135
99187SOL     OW99399   2.169   4.498   1.978
99187SOL    HW199400   2.225   4.575   1.986
99187SOL    HW299401   2.160   4.465   2.067
99188SOL     OW99402   6.782   5.397  12.374
99188SOL    HW199403   6.819   5.356  12.296
99188SOL    HW299404   6.694   5.361  12.380
99189SOL     OW99405   0.728   2.363   5.827
99189SOL    HW199406   0.784   2.295   5.866
99189SOL    HW299407   0.765   2.445   5.858
99190SOL     OW99408   2.421  10.063   2.112
99190SOL    HW199409   2.388  10.141   2.157
99190SOL    HW299410   2.358  10.049   2.041
99191SOL     OW99411   6.065   3.714  10.656
99191SOL    HW199412   6.112   3.724  10.574
99191SOL    HW299413   6.133   3.689  10.719
99192SOL     OW99414  11.072  13.092  11.469
99192SOL    HW199415  11.058  13.071  11.377
99192SOL    HW299416  10.984  13.110  11.503
99193SOL     OW99417   0.028   3.153   9.396
99193SOL    HW199418   0.061   3.242   9.409
99193SOL    HW299419   0.088   3.098   9.446
99194SOL     OW99420   4.989  10.242   9.757
99194SOL    HW199421   4.960  10.195   9.835
99194SOL    HW299422   5.067  10.195   9.728
99195SOL     OW99423  13.384   3.959  10.505
99195SOL    HW199424  13.405   3.869  10.484
99195SOL    HW299425  13.356   3.957  10.596
99196SOL     OW99426   6.113   9.109  10.747
99196SOL    HW199427   6.165   9.132  10.824
99196SOL    HW299428   6.068   9.028  10.772
99197SOL     OW99429   2.420  10.957   5.327
99197SOL    HW199430   2.332  10.992   5.319
99197SOL    HW299431   2.478  11.031   5.308
99198SOL     OW99432  10.458  10.023   8.507
99198SOL    HW199433  10.466   9.983   8.420
99198SOL    HW299434  10.446  10.116   8.490
99199SOL     OW99435  11.285   2.492  11.144
99199SOL    HW199436  11.219   2.557  11.119
99199SOL    HW299437  11.369   2.535  11.128
99200SOL     OW99438  14.756   5.690  12.651
99200SOL    HW199439  14.801   5.693  12.736
99200SOL    HW299440  14.677   5.742  12.665
99201SOL     OW99441   8.219   2.186   6.628
99201SOL    HW199442   8.229   2.098   6.593
99201SOL    HW299443   8.308   2.215   6.647
99202SOL     OW99444   4.132   8.228  14.584
99202SOL    HW199445   4.183   8.304  14.612
99202SOL    HW299446   4.198   8.161  14.563
99203SOL     OW99447  13.724   3.767   3.724
99203SOL    HW199448  13.716   3.781   3.818
99203SOL    HW299449  13.781   3.839   3.694
99204SOL     OW99450   8.076   2.968   5.490
99204SOL    HW199451   8.003   2.992   5.433
99204SOL    HW299452   8.153   3.004   5.447
99205SOL     OW99453   5.774   9.661  12.373
99205SOL    HW199454   5.773   9.652  12.469
99205SOL    HW299455   5.683   9.681  12.351
99206SOL     OW99456  11.459   9.749  10.787
99206SOL    HW199457  11.380   9.729  10.836
99206SOL    HW299458  11.430   9.760  10.697
99207SOL     OW99459  12.553  13.482   0.874
99207SOL    HW199460  12.510  13.420   0.932
99207SOL    HW299461  12.537  13.447   0.786
99208SOL     OW99462   4.350   3.620   2.972
99208SOL    HW199463   4.399   3.651   2.896
99208SOL    HW299464   4.404   3.645   3.047
99209SOL     OW99465  14.854   2.319   3.372
99209SOL    HW199466  14.878   2.412   3.379
99209SOL    HW299467  14.816   2.297   3.457
99210SOL     OW99468  10.665   6.474   5.909
99210SOL    HW199469  10.735   6.472   5.974
99210SOL    HW299470  10.590   6.436   5.954
99211SOL     OW99471   2.282   6.817  14.020
99211SOL    HW199472   2.246   6.828  13.932
99211SOL    HW299473   2.364   6.770  14.007
99212SOL     OW99474  12.927  11.302   8.077
99212SOL    HW199475  12.942  11.230   8.138
99212SOL    HW299476  12.942  11.381   8.129
99213SOL     OW99477  13.877  14.428  14.809
99213SOL    HW199478  13.834  14.387  14.733
99213SOL    HW299479  13.859  14.522  14.798
99214SOL     OW99480   8.958   6.457  14.016
99214SOL    HW199481   8.928   6.367  14.005
99214SOL    HW299482   8.889   6.499  14.066
99215SOL     OW99483   6.855  11.491  13.890
99215SOL    HW199484   6.884  11.532  13.972
99215SOL    HW299485   6.818  11.407  13.918
99216SOL     OW99486   6.749  12.577   7.473
99216SOL    HW199487   6.716  12.614   7.555
99216SOL    HW299488   6.793  12.496   7.499
99217SOL     OW99489   7.363   3.395  13.527
99217SOL    HW199490   7.296   3.462  13.517
99217SOL    HW299491   7.381   3.392  13.621
99218SOL     OW99492  12.536  14.478  10.882
99218SOL    HW199493  12.453  14.488  10.835
99218SOL    HW299494  12.598  14.534  10.835
99219SOL     OW99495  11.639   8.880  13.876
99219SOL    HW199496  11.674   8.794  13.853
99219SOL    HW299497  11.714   8.929  13.909
99220SOL     OW99498  12.313   5.757   7.337
99220SOL    HW199499  12.285   5.792   7.422
99220SOL    HW299500  12.313   5.834   7.279
99221SOL     OW99501  11.076   6.558   9.421
99221SOL    HW199502  11.146   6.571   9.485
99221SOL    HW299503  11.119   6.514   9.347
99222SOL     OW99504  11.592  11.527   3.030
99222SOL    HW199505  11.564  11.437   3.014
99222SOL    HW299506  11.587  11.537   3.125
99223SOL     OW99507   7.991   3.427   5.939
99223SOL    HW199508   7.926   3.429   5.868
99223SOL    HW299509   7.966   3.501   5.995
99224SOL     OW99510  12.228   1.313   4.019
99224SOL    HW199511  12.287   1.358   4.079
99224SOL    HW299512  12.162   1.272   4.075
99225SOL     OW99513   9.034  11.480   5.605
99225SOL    HW199514   9.061  11.511   5.519
99225SOL    HW299515   9.045  11.556   5.663
99226SOL     OW99516   6.428  10.416  12.058
99226SOL    HW199517   6.510  10.390  12.100
99226SOL    HW299518   6.455  10.453  11.974
99227SOL     OW99519   2.313   3.150   1.813
99227SOL    HW199520   2.267   3.218   1.764
99227SOL    HW299521   2.400   3.186   1.829
99228SOL     OW99522  14.177   2.988   1.985
99228SOL    HW199523  14.217   2.902   1.991
99228SOL    HW299524  14.251   3.049   1.990
99229SOL     OW99525  14.121   4.160   7.587
99229SOL    HW199526  14.074   4.103   7.647
99229SOL    HW299527  14.212   4.155   7.615
99230SOL     OW99528  14.791   6.470   7.832
99230SOL    HW199529  14.868   6.464   7.889
99230SOL    HW299530  14.815   6.536   7.767
99231SOL     OW99531   9.722  12.266   2.092
99231SOL    HW199532   9.636  12.303   2.111
99231SOL    HW299533   9.779  12.343   2.082
99232SOL     OW99534   6.205   8.038   3.401
99232SOL    HW199535   6.156   8.041   3.483
99232SOL    HW299536   6.297   8.041   3.429
99233SOL     OW99537  13.237  14.522   2.814
99233SOL    HW199538  13.222  14.574   2.893
99233SOL    HW299539  13.300  14.455   2.842
99234SOL     OW99540   4.793   3.188   8.297
99234SOL    HW199541   4.746   3.142   8.367
99234SOL    HW299542   4.744   3.269   8.286
99235SOL     OW99543   7.592   4.509   2.880
99235SOL    HW199544   7.575   4.485   2.971
99235SOL    HW299545   7.685   4.490   2.867
99236SOL     OW99546   8.486  13.177   4.041
99236SOL    HW199547   8.407  13.153   3.994
99236SOL    HW299548   8.454  13.221   4.120
99237SOL     OW99549   7.721  11.345   5.113
99237SOL    HW199550   7.713  11.360   5.207
99237SOL    HW299551   7.781  11.413   5.083
99238SOL     OW99552   5.422   0.256   0.660
99238SOL    HW199553   5.497   0.275   0.604
99238SOL    HW299554   5.461   0.228   0.743
99239SOL     OW99555  14.288   7.095   9.642
99239SOL    HW199556  14.343   7.079   9.718
99239SOL    HW299557  14.209   7.137   9.677
99240SOL     OW99558   9.275   6.725  13.103
99240SOL    HW199559   9.348   6.768  13.146
99240SOL    HW299560   9.306   6.708  13.014
99241SOL     OW99561   8.396   8.069  10.771
99241SOL    HW199562   8.448   8.077  10.691
99241SOL    HW299563   8.395   8.157  10.807
99242SOL     OW99564   1.892   4.927   1.219
99242SOL    HW199565   1.881   4.862   1.150
99242SOL    HW299566   1.857   5.008   1.182
99243SOL     OW99567  10.481   5.760  11.740
99243SOL    HW199568  10.444   5.795  11.660
99243SOL    HW299569  10.412   5.706  11.778
99244SOL     OW99570   9.632  14.671   3.623
99244SOL    HW199571   9.597  14.583   3.611
99244SOL    HW299572   9.556  14.725   3.644
99245SOL     OW99573   8.969   6.086  11.208
99245SOL    HW199574   9.063   6.090  11.192
99245SOL    HW299575   8.930   6.131  11.132
99246SOL     OW99576   5.231  12.893   1.387
99246SOL    HW199577   5.142  12.860   1.390
99246SOL    HW299578   5.275  12.838   1.322
99247SOL     OW99579   9.210  13.068  11.537
99247SOL    HW199580   9.189  13.100  11.625
99247SOL    HW299581   9.294  13.023  11.548
99248SOL     OW99582   3.562   6.604  10.064
99248SOL    HW199583   3.596   6.651  10.140
99248SOL    HW299584   3.597   6.652   9.989
99249SOL     OW99585  10.895   6.089  13.420
99249SOL    HW199586  10.882   6.083  13.515
99249SOL    HW299587  10.906   6.183  13.403
99250SOL     OW99588   6.172   2.787   3.804
99250SOL    HW199589   6.127   2.743   3.731
99250SOL    HW299590   6.260   2.805   3.770
99251SOL     OW99591  11.913  14.460   8.094
99251SOL    HW199592  11.849  14.531   8.080
99251SOL    HW299593  11.996  14.505   8.110
99252SOL     OW99594  12.338  13.312   2.220
99252SOL    HW199595  12.304  13.385   2.168
99252SOL    HW299596  12.278  13.305   2.295
99253SOL     OW99597  13.395   1.125  13.014
99253SOL    HW199598  13.420   1.091  13.100
99253SOL    HW299599  13.434   1.213  13.010
99254SOL     OW99600   5.770   4.512   3.828
99254SOL    HW199601   5.741   4.532   3.917
99254SOL    HW299602   5.847   4.567   3.816
99255SOL     OW99603  11.620   7.307   1.707
99255SOL    HW199604  11.664   7.369   1.765
99255SOL    HW299605  11.580   7.244   1.767
99256SOL     OW99606  10.619   8.255  13.840
99256SOL    HW199607  10.646   8.200  13.914
99256SOL    HW299608  10.545   8.307  13.875
99257SOL     OW99609   1.752   3.823   5.680
99257SOL    HW199610   1.728   3.891   5.617
99257SOL    HW299611   1.740   3.865   5.765
99258SOL     OW99612   3.149   0.243  13.364
99258SOL    HW199613   3.071   0.287  13.397
99258SOL    HW299614   3.157   0.164  13.417
99259SOL     OW99615   0.742   7.812  14.244
99259SOL    HW199616   0.685   7.879  14.280
99259SOL    HW299617   0.811   7.801  14.309
99260SOL     OW99618  14.664  14.771   3.026
99260SOL    HW199619  14.734  14.707   3.018
99260SOL    HW299620  14.610  14.739   3.099
99261SOL     OW99621  11.587   6.437  12.628
99261SOL    HW199622  11.544   6.453  12.712
99261SOL    HW299623  11.613   6.523  12.597
99262SOL     OW99624   2.049   7.422  10.940
99262SOL    HW199625   2.122   7.363  10.917
99262SOL    HW299626   2.049   7.424  11.035
99263SOL     OW99627   3.747   8.857   9.418
99263SOL    HW199628   3.800   8.867   9.498
99263SOL    HW299629   3.739   8.946   9.384
99264SOL     OW99630  12.029   8.968  14.283
99264SOL    HW199631  11.999   9.029  14.215
99264SOL    HW299632  11.948   8.941  14.328
99265SOL     OW99633   2.759   6.770   1.455
99265SOL    HW199634   2.844   6.772   1.499
99265SOL    HW299635   2.761   6.845   1.395
99266SOL     OW99636  11.165  10.261   4.832
99266SOL    HW199637  11.122  10.343   4.855
99266SOL    HW299638  11.247  10.262   4.882
99267SOL     OW99639  11.305  10.628   0.119
99267SOL    HW199640  11.347  10.581   0.191
99267SOL    HW299641  11.237  10.568   0.089
99268SOL     OW99642   4.595   2.894   9.871
99268SOL    HW199643   4.600   2.967   9.810
99268SOL    HW299644   4.535   2.832   9.830
99269SOL     OW99645   8.286   4.643   9.030
99269SOL    HW199646   8.270   4.736   9.019
99269SOL    HW299647   8.356   4.623   8.968
99270SOL     OW99648   1.926   9.873   1.006
99270SOL    HW199649   1.925   9.867   1.102
99270SOL    HW299650   1.983   9.948   0.988
99271SOL     OW99651  11.810   0.727   0.664
99271SOL    HW199652  11.853   0.725   0.750
99271SOL    HW299653  11.781   0.636   0.650
99272SOL     OW99654  13.102   5.181   0.939
99272SOL    HW199655  13.140   5.101   0.977
99272SOL    HW299656  13.177   5.232   0.910
99273SOL     OW99657  14.033   9.868   6.070
99273SOL    HW199658  14.003   9.872   6.161
99273SOL    HW299659  14.102   9.934   6.065
99274SOL     OW99660   4.333  10.915   6.649
99274SOL    HW199661   4.355  10.824   6.630
99274SOL    HW299662   4.286  10.945   6.571
99275SOL     OW99663   6.761   4.606   8.436
99275SOL    HW199664   6.809   4.625   8.355
99275SOL    HW299665   6.686   4.665   8.433
99276SOL     OW99666   9.111  13.158  12.442
99276SOL    HW199667   9.047  13.091  12.464
99276SOL    HW299668   9.168  13.164  12.518
99277SOL     OW99669  12.699   3.289   8.518
99277SOL    HW199670  12.655   3.240   8.588
99277SOL    HW299671  12.717   3.224   8.451
99278SOL     OW99672   4.976   4.637   8.235
99278SOL    HW199673   5.056   4.683   8.213
99278SOL    HW299674   4.918   4.705   8.270
99279SOL     OW99675   5.128   7.191   9.498
99279SOL    HW199676   5.220   7.166   9.494
99279SOL    HW299677   5.090   7.155   9.418
99280SOL     OW99678   5.003   4.521  12.542
99280SOL    HW199679   4.950   4.468  12.602
99280SOL    HW299680   5.063   4.569  12.599
99281SOL     OW99681   2.223   5.634   5.854
99281SOL    HW199682   2.134   5.634   5.890
99281SOL    HW299683   2.251   5.725   5.861
99282SOL     OW99684   7.185   8.973  11.588
99282SOL    HW199685   7.124   9.027  11.639
99282SOL    HW299686   7.129   8.916  11.535
99283SOL     OW99687  13.381  10.098   8.158
99283SOL    HW199688  13.417  10.047   8.086
99283SOL    HW299689  13.456  10.119   8.213
99284SOL     OW99690  10.118  13.384   7.160
99284SOL    HW199691  10.071  13.387   7.077
99284SOL    HW299692  10.205  13.419   7.139
99285SOL     OW99693   0.603  10.169  11.587
99285SOL    HW199694   0.641  10.131  11.508
99285SOL    HW299695   0.524  10.117  11.603
99286SOL     OW99696   3.507   6.383   6.226
99286SOL    HW199697   3.597   6.359   6.202
99286SOL    HW299698   3.515   6.466   6.272
99287SOL     OW99699  11.020   5.147   4.796
99287SOL    HW199700  10.994   5.055   4.798
99287SOL    HW299701  11.108   5.148   4.834
99288SOL     OW99702   6.819   5.330   9.881
99288SOL    HW199703   6.845   5.393   9.815
99288SOL    HW299704   6.778   5.382   9.950
99289SOL     OW99705  13.281   4.803   3.417
99289SOL    HW199706  13.359   4.757   3.448
99289SOL    HW299707  13.290   4.892   3.451
99290SOL     OW99708  12.887   3.840   5.364
99290SOL    HW199709  12.931   3.766   5.323
99290SOL    HW299710  12.932   3.917   5.329
99291SOL     OW99711   6.867   7.269   3.212
99291SOL    HW199712   6.946   7.243   3.259
99291SOL    HW299713   6.815   7.189   3.206
99292SOL     OW99714   1.221  10.817  13.201
99292SOL    HW199715   1.267  10.754  13.257
99292SOL    HW299716   1.289  10.879  13.175
99293SOL     OW99717   2.776  14.730   2.240
99293SOL    HW199718   2.709  14.668   2.266
99293SOL    HW299719   2.851  14.710   2.296
99294SOL     OW99720  13.328   5.581   3.214
99294SOL    HW199721  13.252   5.523   3.223
99294SOL    HW299722  13.304   5.659   3.265
99295SOL     OW99723   7.249  14.507   1.756
99295SOL    HW199724   7.284  14.426   1.719
99295SOL    HW299725   7.260  14.571   1.686
99296SOL     OW99726   9.842  10.255   8.087
99296SOL    HW199727   9.798  10.170   8.100
99296SOL    HW299728   9.773  10.320   8.099
99297SOL     OW99729   4.800   1.508   9.504
99297SOL    HW199730   4.784   1.532   9.413
99297SOL    HW299731   4.857   1.432   9.499
99298SOL     OW99732   5.976   7.088   6.819
99298SOL    HW199733   6.008   7.001   6.843
99298SOL    HW299734   5.917   7.113   6.890
99299SOL     OW99735  11.251   3.075   2.148
99299SOL    HW199736  11.256   2.997   2.093
99299SOL    HW299737  11.186   3.131   2.106
99300SOL     OW99738  11.377   1.902  12.314
99300SOL    HW199739  11.290   1.895  12.274
99300SOL    HW299740  11.435   1.925  12.242
99301SOL     OW99741   9.072  12.923   1.083
99301SOL    HW199742   9.147  12.951   1.030
99301SOL    HW299743   8.999  12.920   1.022
99302SOL     OW99744  11.187   1.757   8.461
99302SOL    HW199745  11.205   1.671   8.498
99302SOL    HW299746  11.254   1.814   8.498
99303SOL     OW99747   0.536   8.004   9.704
99303SOL    HW199748   0.477   8.071   9.738
99303SOL    HW299749   0.481   7.952   9.645
99304SOL     OW99750   3.446   9.082  10.443
99304SOL    HW199751   3.388   9.067  10.518
99304SOL    HW299752   3.440   9.176  10.426
99305SOL     OW99753  14.817   2.474   3.060
99305SOL    HW199754   0.030   2.472   3.067
99305SOL    HW299755  14.792   2.384   3.039
99306SOL     OW99756   6.624  11.695   1.266
99306SOL    HW199757   6.552  11.670   1.324
99306SOL    HW299758   6.677  11.755   1.319
99307SOL     OW99759  11.475  10.144   9.688
99307SOL    HW199760  11.522  10.071   9.648
99307SOL    HW299761  11.525  10.222   9.662
99308SOL     OW99762   1.963  13.591   6.367
99308SOL    HW199763   1.952  13.536   6.445
99308SOL    HW299764   1.875  13.596   6.330
99309SOL     OW99765   2.119   8.678  13.932
99309SOL    HW199766   2.187   8.631  13.886
99309SOL    HW299767   2.115   8.764  13.890
99310SOL     OW99768   2.402   3.733   1.648
99310SOL    HW199769   2.478   3.788   1.631
99310SOL    HW299770   2.369   3.764   1.733
99311SOL     OW99771   0.387  11.928   4.326
99311SOL    HW199772   0.320  11.944   4.259
99311SOL    HW299773   0.459  11.987   4.303
99312SOL     OW99774   1.733   1.764   5.561
99312SOL    HW199775   1.760   1.681   5.521
99312SOL    HW299776   1.741   1.828   5.491
99313SOL     OW99777   1.839  11.667   1.166
99313SOL    HW199778   1.906  11.723   1.204
99313SOL    HW299779   1.756  11.708   1.191
99314SOL     OW99780   0.780   7.348   7.398
99314SOL    HW199781   0.770   7.419   7.334
99314SOL    HW299782   0.809   7.273   7.346
99315SOL     OW99783   9.966   1.480  10.662
99315SOL    HW199784   9.906   1.549  10.693
99315SOL    HW299785  10.028   1.526  10.605
99316SOL     OW99786   5.815   9.840  11.905
99316SOL    HW199787   5.723   9.819  11.921
99316SOL    HW299788   5.864   9.772  11.952
99317SOL     OW99789   9.113   9.316   0.873
99317SOL    HW199790   9.136   9.396   0.921
99317SOL    HW299791   9.030   9.336   0.831
99318SOL     OW99792  11.943   1.497  11.949
99318SOL    HW199793  11.940   1.408  11.985
99318SOL    HW299794  11.860   1.537  11.976
99319SOL     OW99795   8.808  14.776   4.086
99319SOL    HW199796   8.817  14.830   4.007
99319SOL    HW299797   8.875  14.809   4.146
99320SOL     OW99798   6.437   1.355   3.582
99320SOL    HW199799   6.524   1.332   3.615
99320SOL    HW299800   6.451   1.372   3.489
99321SOL     OW99801   4.871   3.598   5.174
99321SOL    HW199802   4.868   3.648   5.256
99321SOL    HW299803   4.935   3.645   5.120
99322SOL     OW99804   2.323   1.871   5.480
99322SOL    HW199805   2.385   1.933   5.518
99322SOL    HW299806   2.273   1.923   5.417
99323SOL     OW99807  12.285   1.730   2.603
99323SOL    HW199808  12.334   1.691   2.675
99323SOL    HW299809  12.290   1.665   2.533
99324SOL     OW99810   3.954  10.156   8.264
99324SOL    HW199811   3.934  10.104   8.342
99324SOL    HW299812   3.971  10.244   8.299
99325SOL     OW99813  10.494   8.749  13.208
99325SOL    HW199814  10.456   8.692  13.275
99325SOL    HW299815  10.440   8.828  13.211
99326SOL     OW99816  14.074  14.041   5.840
99326SOL    HW199817  14.023  14.072   5.765
99326SOL    HW299818  14.142  13.987   5.802
99327SOL     OW99819   4.923   1.769  11.434
99327SOL    HW199820   4.861   1.732  11.496
99327SOL    HW299821   4.887   1.855  11.411
99328SOL     OW99822   0.797   4.603   2.413
99328SOL    HW199823   0.854   4.641   2.346
99328SOL    HW299824   0.844   4.526   2.444
99329SOL     OW99825   8.500  11.838   7.942
99329SOL    HW199826   8.530  11.846   7.852
99329SOL    HW299827   8.476  11.746   7.951
99330SOL     OW99828   4.658   3.120   6.914
99330SOL    HW199829   4.653   3.107   7.009
99330SOL    HW299830   4.608   3.200   6.898
99331SOL     OW99831   5.779   3.291   8.815
99331SOL    HW199832   5.701   3.307   8.762
99331SOL    HW299833   5.813   3.379   8.834
99332SOL     OW99834   7.253   5.563   5.672
99332SOL    HW199835   7.202   5.487   5.641
99332SOL    HW299836   7.247   5.558   5.767
99333SOL     OW99837   2.026  11.064   2.583
99333SOL    HW199838   1.937  11.092   2.606
99333SOL    HW299839   2.014  10.989   2.525
99334SOL     OW99840   9.275   6.462  11.272
99334SOL    HW199841   9.332   6.441  11.345
99334SOL    HW299842   9.188   6.472  11.311
99335SOL     OW99843   0.896   3.287  14.449
99335SOL    HW199844   0.925   3.200  14.423
99335SOL    HW299845   0.962   3.316  14.513
99336SOL     OW99846   1.966  10.909   8.372
99336SOL    HW199847   1.968  10.878   8.462
99336SOL    HW299848   2.049  10.879   8.334
99337SOL     OW99849  10.689   1.979  12.904
99337SOL    HW199850  10.677   1.957  12.997
99337SOL    HW299851  10.654   1.903  12.857
99338SOL     OW99852   5.233   2.882   0.955
99338SOL    HW199853   5.297   2.841   0.896
99338SOL    HW299854   5.282   2.898   1.036
99339SOL     OW99855   1.626   3.028   6.031
99339SOL    HW199856   1.607   3.122   6.023
99339SOL    HW299857   1.600   2.992   5.946
99340SOL     OW99858   2.912   3.534   1.232
99340SOL    HW199859   2.847   3.599   1.261
99340SOL    HW299860   2.947   3.497   1.313
99341SOL     OW99861  14.759   2.435   9.608
99341SOL    HW199862  14.785   2.376   9.679
99341SOL    HW299863  14.705   2.380   9.551
99342SOL     OW99864  13.680   0.797   3.890
99342SOL    HW199865  13.754   0.793   3.951
99342SOL    HW299866  13.693   0.879   3.842
99343SOL     OW99867   2.020  14.708   8.573
99343SOL    HW199868   1.983  14.653   8.503
99343SOL    HW299869   2.101  14.741   8.536
99344SOL     OW99870   4.214   1.998  12.567
99344SOL    HW199871   4.284   2.045  12.613
99344SOL    HW299872   4.252   1.912  12.550
99345SOL     OW99873   0.789   0.407   4.499
99345SOL    HW199874   0.850   0.412   4.425
99345SOL    HW299875   0.845   0.392   4.575
99346SOL     OW99876  10.078   4.405   2.716
99346SOL    HW199877  10.122   4.322   2.735
99346SOL    HW299878  10.021   4.419   2.791
99347SOL     OW99879   6.576   3.426  10.895
99347SOL    HW199880   6.604   3.484  10.966
99347SOL    HW299881   6.509   3.371  10.935
99348SOL     OW99882  11.645   1.061  12.780
99348SOL    HW199883  11.630   1.023  12.694
99348SOL    HW299884  11.705   1.134  12.764
99349SOL     OW99885   8.388   6.809   2.001
99349SOL    HW199886   8.414   6.876   2.064
99349SOL    HW299887   8.311   6.769   2.040
99350SOL     OW99888   4.572   8.869   2.449
99350SOL    HW199889   4.514   8.938   2.482
99350SOL    HW299890   4.647   8.871   2.509
99351SOL     OW99891   3.293   8.460   9.211
99351SOL    HW199892   3.342   8.512   9.147
99351SOL    HW299893   3.344   8.380   9.221
99352SOL     OW99894  10.761   8.542   4.334
99352SOL    HW199895  10.761   8.627   4.377
99352SOL    HW299896  10.826   8.491   4.381
99353SOL     OW99897   1.360  12.162  10.890
99353SOL    HW199898   1.383  12.113  10.969
99353SOL    HW299899   1.416  12.125  10.822
99354SOL     OW99900  10.566   0.351   9.847
99354SOL    HW199901  10.550   0.272   9.900
99354SOL    HW299902  10.567   0.319   9.757
99355SOL     OW99903   5.551  14.243  12.320
99355SOL    HW199904   5.490  14.258  12.247
99355SOL    HW299905   5.504  14.183  12.377
99356SOL     OW99906   0.071  11.865   8.903
99356SOL    HW199907   0.032  11.849   8.817
99356SOL    HW299908   0.109  11.781   8.928
99357SOL     OW99909   9.557  11.761  13.446
99357SOL    HW199910   9.532  11.847  13.479
99357SOL    HW299911   9.493  11.741  13.378
99358SOL     OW99912  13.541   4.885   2.733
99358SOL    HW199913  13.496   4.922   2.810
99358SOL    HW299914  13.487   4.810   2.708
99359SOL     OW99915  14.727  12.415  13.213
99359SOL    HW199916  14.724  12.481  13.144
99359SOL    HW299917  14.674  12.452  13.284
99360SOL     OW99918  12.854   4.824   0.226
99360SOL    HW199919  12.830   4.732   0.236
99360SOL    HW299920  12.947   4.823   0.202
99361SOL     OW99921   5.801  10.517  13.964
99361SOL    HW199922   5.741  10.584  13.931
99361SOL    HW299923   5.846  10.560  14.037
99362SOL     OW99924   9.778  14.451   5.611
99362SOL    HW199925   9.825  14.401   5.678
99362SOL    HW299926   9.708  14.495   5.660
99363SOL     OW99927  13.541  11.642   4.969
99363SOL    HW199928  13.545  11.548   4.986
99363SOL    HW299929  13.560  11.651   4.876
99364SOL     OW99930   2.848   4.720  13.460
99364SOL    HW199931   2.761   4.711  13.422
99364SOL    HW299932   2.838   4.689  13.550
99365SOL     OW99933  11.683  13.584  12.034
99365SOL    HW199934  11.723  13.525  12.098
99365SOL    HW299935  11.643  13.653  12.087
99366SOL     OW99936  12.437   0.685   3.746
99366SOL    HW199937  12.425   0.598   3.709
99366SOL    HW299938  12.459   0.740   3.671
99367SOL     OW99939  11.906   7.975   6.777
99367SOL    HW199940  11.911   8.024   6.859
99367SOL    HW299941  11.881   8.040   6.712
99368SOL     OW99942  10.237   6.522   8.322
99368SOL    HW199943  10.275   6.585   8.261
99368SOL    HW299944  10.257   6.436   8.285
99369SOL     OW99945   3.852   7.983   7.062
99369SOL    HW199946   3.880   8.036   7.136
99369SOL    HW299947   3.764   7.953   7.085
99370SOL     OW99948   0.593   5.056   2.392
99370SOL    HW199949   0.535   5.108   2.448
99370SOL    HW299950   0.580   4.966   2.422
99371SOL     OW99951  14.160   3.714   3.650
99371SOL    HW199952  14.176   3.658   3.574
99371SOL    HW299953  14.245   3.752   3.671
99372SOL     OW99954   5.010   2.293   1.574
99372SOL    HW199955   5.013   2.316   1.667
99372SOL    HW299956   5.027   2.199   1.572
99373SOL     OW99957   0.239  14.774  14.697
99373SOL    HW199958   0.247  14.870  14.703
99373SOL    HW299959   0.155  14.759  14.653
99374SOL     OW99960   7.123   7.702   9.176
99374SOL    HW199961   7.094   7.728   9.089
99374SOL    HW299962   7.100   7.776   9.232
99375SOL     OW99963   7.102   4.080   7.874
99375SOL    HW199964   7.119   4.170   7.901
99375SOL    HW299965   7.149   4.070   7.791
99376SOL     OW99966   9.489  11.100   4.181
99376SOL    HW199967   9.460  11.027   4.236
99376SOL    HW299968   9.409  11.128   4.136
99377SOL     OW99969   0.996   6.921  10.114
99377SOL    HW199970   0.963   6.960  10.033
99377SOL    HW299971   0.970   6.982  10.183
99378SOL     OW99972   8.640   3.299   2.951
99378SOL    HW199973   8.622   3.386   2.916
99378SOL    HW299974   8.650   3.243   2.874
99379SOL     OW99975   1.642   4.656   6.836
99379SOL    HW199976   1.651   4.566   6.803
99379SOL    HW299977   1.730   4.692   6.832
99380SOL     OW99978   7.682   7.601   5.144
99380SOL    HW199979   7.771   7.634   5.135
99380SOL    HW299980   7.645   7.607   5.056
99381SOL     OW99981  13.260   7.192  12.868
99381SOL    HW199982  13.176   7.196  12.823
99381SOL    HW299983  13.260   7.268  12.926
99382SOL     OW99984  12.486   3.805   0.615
99382SOL    HW199985  12.488   3.896   0.583
99382SOL    HW299986  12.577   3.787   0.639
99383SOL     OW99987  13.860  10.490  11.198
99383SOL    HW199988  13.919  10.522  11.266
99383SOL    HW299989  13.869  10.552  11.126
99384SOL     OW99990  10.597  10.272  13.590
99384SOL    HW199991  10.680  10.225  13.591
99384SOL    HW299992  10.612  10.348  13.535
99385SOL     OW99993   6.970   8.484  11.336
99385SOL    HW199994   6.916   8.528  11.403
99385SOL    HW299995   6.912   8.477  11.260
99386SOL     OW99996   6.555   4.134  11.782
99386SOL    HW199997   6.532   4.226  11.792
99386SOL    HW299998   6.649   4.134  11.767
99387SOL     OW99999   3.534   4.122   2.022
99387SOL    HW1    0   3.534   4.181   1.947
99387SOL    HW2    1   3.558   4.179   2.096
99388SOL     OW    2   1.485   4.137  14.105
99388SOL    HW1    3   1.533   4.220  14.107
99388SOL    HW2    4   1.502   4.101  14.018
99389SOL     OW    5   8.784   9.067   1.316
99389SOL    HW1    6   8.790   8.974   1.339
99389SOL    HW2    7   8.801   9.069   1.221
99390SOL     OW    8   7.317  12.001   3.664
99390SOL    HW1    9   7.316  12.007   3.760
99390SOL    HW2   10   7.383  11.935   3.645
99391SOL     OW   11  13.284  10.803   2.615
99391SOL    HW1   12  13.378  10.790   2.633
99391SOL    HW2   13  13.260  10.878   2.669
99392SOL     OW   14   4.050  13.438   4.124
99392SOL    HW1   15   3.955  13.428   4.129
99392SOL    HW2   16   4.077  13.454   4.214
99393SOL     OW   17   9.777  12.323   8.110
99393SOL    HW1   18   9.790  12.349   8.019
99393SOL    HW2   19   9.812  12.234   8.115
99394SOL     OW   20   3.383  12.255  14.825
99394SOL    HW1   21   3.292  12.280  14.810
99394SOL    HW2   22   3.433  12.332  14.799
99395SOL     OW   23  10.002  11.546   5.252
99395SOL    HW1   24  10.004  11.486   5.326
99395SOL    HW2   25   9.986  11.632   5.291
99396SOL     OW   26  11.788  14.807   8.209
99396SOL    HW1   27  11.838  14.851   8.277
99396SOL    HW2   28  11.756  14.727   8.250
99397SOL     OW   29   8.729   0.102   9.584
99397SOL    HW1   30   8.805   0.073   9.635
99397SOL    HW2   31   8.737   0.057   9.501
99398SOL     OW   32  11.113   3.974  14.118
99398SOL    HW1   33  11.188   4.024  14.150
99398SOL    HW2   34  11.141   3.942  14.032
99399SOL     OW   35   3.445   2.429   8.515
99399SOL    HW1   36   3.380   2.381   8.465
99399SOL    HW2   37   3.459   2.376   8.594
99400SOL     OW   38   2.478   3.879  14.212
99400SOL    HW1   39   2.533   3.809  14.247
99400SOL    HW2   40   2.524   3.910  14.134
99401SOL     OW   41   7.988   7.093  13.350
99401SOL    HW1   42   8.080   7.077  13.332
99401SOL    HW2   43   7.963   7.028  13.415
99402SOL     OW   44   3.904   8.931   5.243
99402SOL    HW1   45   3.928   9.020   5.216
99402SOL    HW2   46   3.903   8.881   5.161
99403SOL     OW   47  13.066   5.951   1.644
99403SOL    HW1   48  13.017   6.023   1.685
99403SOL    HW2   49  13.055   5.877   1.704
99404SOL     OW   50   7.826  11.022   5.208
99404SOL    HW1   51   7.860  10.998   5.294
99404SOL    HW2   52   7.889  11.086   5.175
99405SOL     OW   53   6.593   9.678   1.837
99405SOL    HW1   54   6.540   9.612   1.792
99405SOL    HW2   55   6.579   9.660   1.930
99406SOL     OW   56   8.062   6.488   9.932
99406SOL    HW1   57   8.069   6.435   9.852
99406SOL    HW2   58   7.968   6.502   9.942
99407SOL     OW   59   3.042   7.290  12.831
99407SOL    HW1   60   3.017   7.382  12.832
99407SOL    HW2   61   3.138   7.291  12.842
99408SOL     OW   62   0.661  12.503   5.159
99408SOL    HW1   63   0.755  12.515   5.170
99408SOL    HW2   64   0.630  12.476   5.245
99409SOL     OW   65   8.453  13.282   5.683
99409SOL    HW1   66   8.464  13.338   5.607
99409SOL    HW2   67   8.537  13.285   5.729
99410SOL     OW   68   1.355   5.449   1.959
99410SOL    HW1   69   1.292   5.487   1.897
99410SOL    HW2   70   1.306   5.379   2.003
99411SOL     OW   71   5.221   4.823   9.638
99411SOL    HW1   72   5.284   4.801   9.708
99411SOL    HW2   73   5.232   4.753   9.573
99412SOL     OW   74  10.733  13.705   3.484
99412SOL    HW1   75  10.674  13.773   3.517
99412SOL    HW2   76  10.762  13.737   3.399
99413SOL     OW   77   3.728  14.566   1.395
99413SOL    HW1   78   3.745  14.563   1.301
99413SOL    HW2   79   3.797  14.622   1.429
99414SOL     OW   80   8.853   3.493   6.020
99414SOL    HW1   81   8.790   3.456   5.957
99414SOL    HW2   82   8.934   3.501   5.970
99415SOL     OW   83   7.637   3.286  14.511
99415SOL    HW1   84   7.603   3.374  14.495
99415SOL    HW2   85   7.684   3.294  14.594
99416SOL     OW   86   2.837  13.845  14.305
99416SOL    HW1   87   2.837  13.769  14.363
99416SOL    HW2   88   2.871  13.916  14.360
99417SOL     OW   89  12.599   9.819   3.452
99417SOL    HW1   90  12.694   9.825   3.446
99417SOL    HW2   91  12.582   9.790   3.541
99418SOL     OW   92   7.195   8.448   9.573
99418SOL    HW1   93   7.162   8.537   9.583
99418SOL    HW2   94   7.212   8.418   9.662
99419SOL     OW   95  14.632   7.367   9.651
99419SOL    HW1   96  14.583   7.290   9.623
99419SOL    HW2   97  14.644   7.419   9.571
99420SOL     OW   98   8.453  13.920   7.459
99420SOL    HW1   99   8.394  13.886   7.392
99420SOL    HW2  100   8.403  13.990   7.501
99421SOL     OW  101  11.246   7.132  14.456
99421SOL    HW1  102  11.342   7.133  14.446
99421SOL    HW2  103  11.218   7.218  14.425
99422SOL     OW  104   6.973  14.763  10.391
99422SOL    HW1  105   6.906  14.800  10.333
99422SOL    HW2  106   6.939  14.677  10.416
99423SOL     OW  107  12.575   4.701   0.078
99423SOL    HW1  108  12.541   4.728  14.875
99423SOL    HW2  109  12.670   4.710   0.069
99424SOL     OW  110   7.834   1.823   7.422
99424SOL    HW1  111   7.814   1.905   7.466
99424SOL    HW2  112   7.752   1.798   7.379
99425SOL     OW  113   3.910  13.355   6.486
99425SOL    HW1  114   3.970  13.293   6.526
99425SOL    HW2  115   3.906  13.329   6.394
99426SOL     OW  116   8.560   4.446   5.888
99426SOL    HW1  117   8.595   4.396   5.961
99426SOL    HW2  118   8.511   4.383   5.836
99427SOL     OW  119   4.619   6.018   9.488
99427SOL    HW1  120   4.634   6.007   9.394
99427SOL    HW2  121   4.525   6.028   9.497
99428SOL     OW  122   7.651  14.097  12.766
99428SOL    HW1  123   7.557  14.114  12.760
99428SOL    HW2  124   7.687  14.128  12.683
99429SOL     OW  125   5.250   0.505   3.026
99429SOL    HW1  126   5.169   0.455   3.032
99429SOL    HW2  127   5.304   0.471   3.098
99430SOL     OW  128   9.181   6.674   0.178
99430SOL    HW1  129   9.145   6.713   0.258
99430SOL    HW2  130   9.129   6.712   0.108
99431SOL     OW  131   6.649   1.261   6.476
99431SOL    HW1  132   6.629   1.173   6.508
99431SOL    HW2  133   6.736   1.280   6.510
99432SOL     OW  134   6.797  12.122   1.490
99432SOL    HW1  135   6.814  12.188   1.424
99432SOL    HW2  136   6.815  12.166   1.573
99433SOL     OW  137   0.790   8.441  12.891
99433SOL    HW1  138   0.715   8.484  12.849
99433SOL    HW2  139   0.857   8.510  12.898
99434SOL     OW  140   4.495  14.823   8.658
99434SOL    HW1  141   4.503   0.029   8.695
99434SOL    HW2  142   4.509  14.764   8.733
99435SOL     OW  143   0.010   3.343   7.889
99435SOL    HW1  144  14.809   3.322   7.934
99435SOL    HW2  145   0.050   3.258   7.871
99436SOL     OW  146   1.845   7.423   9.180
99436SOL    HW1  147   1.878   7.478   9.109
99436SOL    HW2  148   1.914   7.359   9.195
99437SOL     OW  149   9.502   8.817   4.328
99437SOL    HW1  150   9.436   8.761   4.366
99437SOL    HW2  151   9.533   8.770   4.251
99438SOL     OW  152   2.751   3.844   7.051
99438SOL    HW1  153   2.790   3.771   7.099
99438SOL    HW2  154   2.790   3.838   6.963
99439SOL     OW  155  14.828  12.143  14.674
99439SOL    HW1  156  14.751  12.089  14.653
99439SOL    HW2  157  14.793  12.218  14.721
99440SOL     OW  158  12.903   9.952  14.554
99440SOL    HW1  159  12.944   9.876  14.596
99440SOL    HW2  160  12.956   9.968  14.476
99441SOL     OW  161  14.781   3.928  12.219
99441SOL    HW1  162  14.719   3.869  12.261
99441SOL    HW2  163  14.773   4.010  12.267
99442SOL     OW  164   0.719   1.169  14.842
99442SOL    HW1  165   0.726   1.085  14.797
99442SOL    HW2  166   0.751   1.233  14.778
99443SOL     OW  167  14.438  11.728   5.426
99443SOL    HW1  168  14.359  11.780   5.411
99443SOL    HW2  169  14.407  11.649   5.471
99444SOL     OW  170  11.067   9.857   0.194
99444SOL    HW1  171  10.975   9.880   0.184
99444SOL    HW2  172  11.069   9.762   0.179
99445SOL     OW  173   8.385   1.961  14.561
99445SOL    HW1  174   8.393   1.875  14.521
99445SOL    HW2  175   8.408   2.022  14.491
99446SOL     OW  176   3.579   6.847  13.457
99446SOL    HW1  177   3.565   6.765  13.409
99446SOL    HW2  178   3.493   6.888  13.457
99447SOL     OW  179  14.860   6.246   1.815
99447SOL    HW1  180  14.779   6.233   1.865
99447SOL    HW2  181  14.831   6.251   1.724
99448SOL     OW  182   3.560   7.692  13.819
99448SOL    HW1  183   3.597   7.698  13.906
99448SOL    HW2  184   3.595   7.610  13.784
99449SOL     OW  185   9.885   0.592   6.774
99449SOL    HW1  186   9.803   0.608   6.727
99449SOL    HW2  187   9.952   0.637   6.721
99450SOL     OW  188   6.125   6.742   8.635
99450SOL    HW1  189   6.043   6.745   8.585
99450SOL    HW2  190   6.100   6.705   8.720
99451SOL     OW  191   7.561  14.260   9.850
99451SOL    HW1  192   7.491  14.196   9.868
99451SOL    HW2  193   7.600  14.276   9.936
99452SOL     OW  194   3.659  14.050   5.933
99452SOL    HW1  195   3.623  14.004   5.858
99452SOL    HW2  196   3.689  13.981   5.992
99453SOL     OW  197   8.693  12.419   5.008
99453SOL    HW1  198   8.695  12.501   4.958
99453SOL    HW2  199   8.768  12.370   4.975
99454SOL     OW  200  12.213   8.746   1.741
99454SOL    HW1  201  12.208   8.735   1.646
99454SOL    HW2  202  12.299   8.712   1.765
99455SOL     OW  203  12.060   1.979   6.797
99455SOL    HW1  204  12.042   1.946   6.709
99455SOL    HW2  205  12.056   1.902   6.853
99456SOL     OW  206   4.685   0.271   4.069
99456SOL    HW1  207   4.614   0.331   4.090
99456SOL    HW2  208   4.743   0.322   4.012
99457SOL     OW  209   1.444   0.870   3.975
99457SOL    HW1  210   1.484   0.922   4.045
99457SOL    HW2  211   1.359   0.844   4.011
99458SOL     OW  212   9.447  11.416   2.431
99458SOL    HW1  213   9.424  11.425   2.524
99458SOL    HW2  214   9.400  11.338   2.402
99459SOL     OW  215   8.069   3.537   5.069
99459SOL    HW1  216   7.980   3.520   5.038
99459SOL    HW2  217   8.092   3.622   5.030
99460SOL     OW  218   5.189   0.300   7.324
99460SOL    HW1  219   5.234   0.293   7.240
99460SOL    HW2  220   5.232   0.373   7.369
99461SOL     OW  221   0.866   3.604   9.579
99461SOL    HW1  222   0.893   3.674   9.520
99461SOL    HW2  223   0.790   3.565   9.536
99462SOL     OW  224   8.416   2.920  12.227
99462SOL    HW1  225   8.397   2.853  12.162
99462SOL    HW2  226   8.511   2.927  12.228
99463SOL     OW  227   3.039   9.988   3.789
99463SOL    HW1  228   3.082   9.923   3.845
99463SOL    HW2  229   2.964  10.018   3.841
99464SOL     OW  230  11.568  14.596   6.877
99464SOL    HW1  231  11.620  14.594   6.956
99464SOL    HW2  232  11.481  14.624   6.906
99465SOL     OW  233   2.238   3.370   0.148
99465SOL    HW1  234   2.271   3.289   0.186
99465SOL    HW2  235   2.308   3.434   0.162
99466SOL     OW  236   1.250   6.677  12.520
99466SOL    HW1  237   1.176   6.738  12.519
99466SOL    HW2  238   1.283   6.680  12.610
99467SOL     OW  239  12.956   8.672  13.517
99467SOL    HW1  240  12.878   8.664  13.573
99467SOL    HW2  241  12.921   8.673  13.428
99468SOL     OW  242   9.844   9.270   1.819
99468SOL    HW1  243   9.925   9.292   1.773
99468SOL    HW2  244   9.779   9.330   1.782
99469SOL     OW  245  11.074  13.113   8.146
99469SOL    HW1  246  11.030  13.133   8.063
99469SOL    HW2  247  11.145  13.176   8.151
99470SOL     OW  248  12.021   3.169  13.716
99470SOL    HW1  249  11.989   3.182  13.627
99470SOL    HW2  250  12.116   3.179  13.709
99471SOL     OW  251   7.510   3.024   6.085
99471SOL    HW1  252   7.493   3.103   6.033
99471SOL    HW2  253   7.523   3.056   6.174
99472SOL     OW  254  11.436   9.345  12.491
99472SOL    HW1  255  11.359   9.400  12.506
99472SOL    HW2  256  11.401   9.266  12.449
99473SOL     OW  257   5.121   6.069   5.157
99473SOL    HW1  258   5.147   5.977   5.157
99473SOL    HW2  259   5.026   6.067   5.154
99474SOL     OW  260   1.854   1.244  13.648
99474SOL    HW1  261   1.908   1.259  13.570
99474SOL    HW2  262   1.889   1.164  13.687
99475SOL     OW  263   1.653   4.877   6.162
99475SOL    HW1  264   1.636   4.943   6.229
99475SOL    HW2  265   1.742   4.847   6.180
99476SOL     OW  266   4.273   0.046   4.953
99476SOL    HW1  267   4.331   0.106   4.906
99476SOL    HW2  268   4.267   0.083   5.041
99477SOL     OW  269   6.219  12.936   5.487
99477SOL    HW1  270   6.268  13.017   5.475
99477SOL    HW2  271   6.135  12.964   5.524
99478SOL     OW  272   9.100   1.120   2.017
99478SOL    HW1  273   9.147   1.042   2.045
99478SOL    HW2  274   9.105   1.179   2.092
99479SOL     OW  275   1.061   2.365   9.354
99479SOL    HW1  276   1.036   2.292   9.411
99479SOL    HW2  277   0.988   2.374   9.293
99480SOL     OW  278   8.640   4.259  10.916
99480SOL    HW1  279   8.599   4.313  10.848
99480SOL    HW2  280   8.670   4.181  10.869
99481SOL     OW  281  10.031   6.062   0.032
99481SOL    HW1  282   9.935   6.065   0.025
99481SOL    HW2  283  10.047   6.017   0.115
99482SOL     OW  284   2.298   8.799  14.478
99482SOL    HW1  285   2.308   8.760  14.565
99482SOL    HW2  286   2.204   8.811  14.468
99483SOL     OW  287   6.811   7.583  11.381
99483SOL    HW1  288   6.746   7.638  11.337
99483SOL    HW2  289   6.793   7.494  11.350
99484SOL     OW  290  11.721  12.915  13.551
99484SOL    HW1  291  11.782  12.841  13.556
99484SOL    HW2  292  11.648  12.890  13.607
99485SOL     OW  293   2.019   0.018   1.092
99485SOL    HW1  294   2.105  14.860   1.101
99485SOL    HW2  295   2.034   0.112   1.103
99486SOL     OW  296   6.644  12.102  11.535
99486SOL    HW1  297   6.609  12.149  11.611
99486SOL    HW2  298   6.598  12.018  11.536
99487SOL     OW  299   9.363   2.944   0.191
99487SOL    HW1  300   9.454   2.971   0.204
99487SOL    HW2  301   9.313   2.997   0.252
99488SOL     OW  302  12.863   3.565   2.377
99488SOL    HW1  303  12.776   3.556   2.416
99488SOL    HW2  304  12.916   3.605   2.445
99489SOL     OW  305   1.722   4.945   5.884
99489SOL    HW1  306   1.654   4.934   5.950
99489SOL    HW2  307   1.801   4.907   5.924
99490SOL     OW  308   9.211   7.036   2.775
99490SOL    HW1  309   9.243   7.090   2.703
99490SOL    HW2  310   9.240   6.948   2.753
99491SOL     OW  311  12.194   8.615   4.575
99491SOL    HW1  312  12.218   8.524   4.589
99491SOL    HW2  313  12.256   8.646   4.508
99492SOL     OW  314  11.988  11.554   5.885
99492SOL    HW1  315  11.973  11.593   5.799
99492SOL    HW2  316  12.082  11.560   5.898
99493SOL     OW  317   6.228  14.189  13.249
99493SOL    HW1  318   6.155  14.205  13.190
99493SOL    HW2  319   6.230  14.094  13.262
99494SOL     OW  320   5.307   7.417   5.701
99494SOL    HW1  321   5.329   7.325   5.719
99494SOL    HW2  322   5.373   7.467   5.749
99495SOL     OW  323   8.734   1.188   3.524
99495SOL    HW1  324   8.698   1.106   3.558
99495SOL    HW2  325   8.673   1.213   3.454
99496SOL     OW  326  10.554   3.965  14.659
99496SOL    HW1  327  10.602   3.882  14.653
99496SOL    HW2  328  10.623   4.032  14.663
99497SOL     OW  329   5.468  14.802  14.486
99497SOL    HW1  330   5.449  14.772  14.575
99497SOL    HW2  331   5.395  14.860  14.464
99498SOL     OW  332  12.448   1.191   3.796
99498SOL    HW1  333  12.367   1.207   3.748
99498SOL    HW2  334  12.509   1.155   3.731
99499SOL     OW  335   1.430   7.057   0.388
99499SOL    HW1  336   1.489   7.044   0.462
99499SOL    HW2  337   1.430   6.973   0.342
99500SOL     OW  338   2.411   8.695   3.135
99500SOL    HW1  339   2.492   8.738   3.107
99500SOL    HW2  340   2.346   8.721   3.069
99501SOL     OW  341  14.659  13.506  10.716
99501SOL    HW1  342  14.714  13.547  10.783
99501SOL    HW2  343  14.698  13.420  10.702
99502SOL     OW  344  14.508   9.840  11.799
99502SOL    HW1  345  14.480   9.926  11.768
99502SOL    HW2  346  14.430   9.802  11.840
99503SOL     OW  347   1.359  11.096   0.490
99503SOL    HW1  348   1.451  11.087   0.465
99503SOL    HW2  349   1.337  11.187   0.472
99504SOL     OW  350   7.740  13.378   1.357
99504SOL    HW1  351   7.808  13.360   1.421
99504SOL    HW2  352   7.760  13.465   1.324
99505SOL     OW  353  12.328   8.267  12.277
99505SOL    HW1  354  12.344   8.352  12.237
99505SOL    HW2  355  12.286   8.287  12.361
99506SOL     OW  356  12.167  13.733   6.399
99506SOL    HW1  357  12.072  13.718   6.393
99506SOL    HW2  358  12.187  13.725   6.492
99507SOL     OW  359  12.295   0.737   7.274
99507SOL    HW1  360  12.381   0.775   7.256
99507SOL    HW2  361  12.272   0.771   7.361
99508SOL     OW  362   4.833   7.801  11.476
99508SOL    HW1  363   4.765   7.843  11.422
99508SOL    HW2  364   4.907   7.790  11.417
99509SOL     OW  365   7.113   5.459  13.752
99509SOL    HW1  366   7.125   5.553  13.740
99509SOL    HW2  367   7.082   5.450  13.842
99510SOL     OW  368   8.670  13.365  13.573
99510SOL    HW1  369   8.638  13.439  13.623
99510SOL    HW2  370   8.626  13.289  13.612
99511SOL     OW  371   2.300   2.427   2.563
99511SOL    HW1  372   2.323   2.346   2.518
99511SOL    HW2  373   2.329   2.414   2.653
99512SOL     OW  374   3.184   8.956   9.421
99512SOL    HW1  375   3.217   9.001   9.343
99512SOL    HW2  376   3.260   8.909   9.454
99513SOL     OW  377   2.336   0.052  11.966
99513SOL    HW1  378   2.295  14.856  12.004
99513SOL    HW2  379   2.417   0.063  12.017
99514SOL     OW  380  12.737   9.616   0.070
99514SOL    HW1  381  12.712   9.664   0.148
99514SOL    HW2  382  12.823   9.579   0.091
99515SOL     OW  383   4.015  11.009   2.213
99515SOL    HW1  384   4.095  11.023   2.163
99515SOL    HW2  385   4.041  10.948   2.282
99516SOL     OW  386   1.043   6.954   6.435
99516SOL    HW1  387   1.047   6.910   6.351
99516SOL    HW2  388   1.120   6.924   6.482
99517SOL     OW  389   8.281  10.873   0.188
99517SOL    HW1  390   8.296  10.849   0.280
99517SOL    HW2  391   8.201  10.926   0.190
99518SOL     OW  392   1.830  12.307  10.984
99518SOL    HW1  393   1.912  12.276  10.947
99518SOL    HW2  394   1.794  12.367  10.918
99519SOL     OW  395   5.019   2.562   0.586
99519SOL    HW1  396   4.989   2.641   0.630
99519SOL    HW2  397   5.034   2.589   0.495
99520SOL     OW  398  13.490  11.962   3.635
99520SOL    HW1  399  13.500  11.909   3.556
99520SOL    HW2  400  13.444  12.040   3.607
99521SOL     OW  401   3.839  12.635   3.399
99521SOL    HW1  402   3.883  12.629   3.483
99521SOL    HW2  403   3.798  12.549   3.387
99522SOL     OW  404   6.113   9.079   9.001
99522SOL    HW1  405   6.037   9.025   9.023
99522SOL    HW2  406   6.170   9.021   8.950
99523SOL     OW  407   9.271   4.174   0.004
99523SOL    HW1  408   9.287   4.104  14.822
99523SOL    HW2  409   9.351   4.176   0.057
99524SOL     OW  410  10.149   3.278   4.210
99524SOL    HW1  411  10.120   3.367   4.230
99524SOL    HW2  412  10.243   3.280   4.228
99525SOL     OW  413   9.923   5.949   7.086
99525SOL    HW1  414   9.949   5.983   7.001
99525SOL    HW2  415   9.920   5.854   7.075
99526SOL     OW  416  11.425  14.045   6.332
99526SOL    HW1  417  11.438  14.078   6.244
99526SOL    HW2  418  11.362  13.974   6.322
99527SOL     OW  419   7.911   8.864  13.087
99527SOL    HW1  420   7.961   8.880  13.167
99527SOL    HW2  421   7.862   8.783  13.105
99528SOL     OW  422  12.679  12.406   8.355
99528SOL    HW1  423  12.729  12.366   8.426
99528SOL    HW2  424  12.651  12.332   8.301
99529SOL     OW  425   9.199   1.054   0.158
99529SOL    HW1  426   9.286   1.027   0.188
99529SOL    HW2  427   9.163   0.976   0.116
99530SOL     OW  428   8.525   2.117   5.066
99530SOL    HW1  429   8.478   2.070   5.135
99530SOL    HW2  430   8.468   2.111   4.989
99531SOL     OW  431   4.569   4.400   2.000
99531SOL    HW1  432   4.608   4.356   1.924
99531SOL    HW2  433   4.586   4.342   2.073
99532SOL     OW  434   5.873  14.502  11.232
99532SOL    HW1  435   5.894  14.434  11.167
99532SOL    HW2  436   5.937  14.572  11.215
99533SOL     OW  437  10.550   2.585  13.983
99533SOL    HW1  438  10.537   2.528  14.059
99533SOL    HW2  439  10.463   2.595  13.945
99534SOL     OW  440   8.576  14.809  11.661
99534SOL    HW1  441   8.628  14.878  11.618
99534SOL    HW2  442   8.593  14.822  11.755
99535SOL     OW  443   9.174   5.601   9.001
99535SOL    HW1  444   9.164   5.661   9.075
99535SOL    HW2  445   9.117   5.527   9.023
99536SOL     OW  446   9.581   6.737   4.826
99536SOL    HW1  447   9.580   6.749   4.731
99536SOL    HW2  448   9.539   6.816   4.860
99537SOL     OW  449   0.661  11.756   6.021
99537SOL    HW1  450   0.644  11.845   5.990
99537SOL    HW2  451   0.577  11.711   6.013
99538SOL     OW  452   4.812   1.565  14.446
99538SOL    HW1  453   4.785   1.473  14.442
99538SOL    HW2  454   4.743   1.612  14.399
99539SOL     OW  455   8.600  10.456  13.029
99539SOL    HW1  456   8.674  10.488  12.977
99539SOL    HW2  457   8.565  10.534  13.073
99540SOL     OW  458  11.954   5.067   8.057
99540SOL    HW1  459  11.899   5.000   8.097
99540SOL    HW2  460  11.964   5.133   8.126
99541SOL     OW  461   6.356   9.806  14.004
99541SOL    HW1  462   6.360   9.844  13.916
99541SOL    HW2  463   6.301   9.728  13.994
99542SOL     OW  464   4.532  11.739   1.274
99542SOL    HW1  465   4.615  11.739   1.226
99542SOL    HW2  466   4.527  11.652   1.313
99543SOL     OW  467   7.609   7.199   1.795
99543SOL    HW1  468   7.702   7.220   1.782
99543SOL    HW2  469   7.610   7.111   1.834
99544SOL     OW  470  13.792   6.639   2.794
99544SOL    HW1  471  13.874   6.685   2.809
99544SOL    HW2  472  13.809   6.549   2.820
99545SOL     OW  473   6.502   3.125   7.046
99545SOL    HW1  474   6.592   3.159   7.043
99545SOL    HW2  475   6.502   3.063   7.119
99546SOL     OW  476  14.349   2.800  12.938
99546SOL    HW1  477  14.425   2.759  12.897
99546SOL    HW2  478  14.300   2.837  12.866
99547SOL     OW  479   0.397   0.584  12.211
99547SOL    HW1  480   0.396   0.501  12.259
99547SOL    HW2  481   0.396   0.651  12.279
99548SOL     OW  482   5.158   2.459   8.234
99548SOL    HW1  483   5.209   2.388   8.273
99548SOL    HW2  484   5.150   2.524   8.304
99549SOL     OW  485   5.875  10.045   2.556
99549SOL    HW1  486   5.909  10.102   2.487
99549SOL    HW2  487   5.914  10.079   2.636
99550SOL     OW  488   0.204   4.179   0.884
99550SOL    HW1  489   0.185   4.096   0.840
99550SOL    HW2  490   0.246   4.232   0.817
99551SOL     OW  491   3.653   9.289  11.111
99551SOL    HW1  492   3.621   9.280  11.201
99551SOL    HW2  493   3.747   9.303  11.121
99552SOL     OW  494  12.730   4.906   2.189
99552SOL    HW1  495  12.780   4.824   2.183
99552SOL    HW2  496  12.759   4.957   2.114
99553SOL     OW  497   0.689  13.183   6.556
99553SOL    HW1  498   0.610  13.204   6.507
99553SOL    HW2  499   0.737  13.265   6.562
99554SOL     OW  500   3.732   0.046   9.661
99554SOL    HW1  501   3.647   0.085   9.680
99554SOL    HW2  502   3.741  14.858   9.726
99555SOL     OW  503   7.616   5.086  14.104
99555SOL    HW1  504   7.635   5.107  14.013
99555SOL    HW2  505   7.603   5.171  14.146
99556SOL     OW  506   6.286  14.546   1.091
99556SOL    HW1  507   6.316  14.634   1.067
99556SOL    HW2  508   6.191  14.552   1.092
99557SOL     OW  509   4.219  12.464   5.678
99557SOL    HW1  510   4.311  12.481   5.699
99557SOL    HW2  511   4.205  12.372   5.700
99558SOL     OW  512   2.996   2.289   7.870
99558SOL    HW1  513   3.038   2.310   7.786
99558SOL    HW2  514   2.969   2.373   7.905
99559SOL     OW  515   8.814   6.257   1.365
99559SOL    HW1  516   8.864   6.202   1.426
99559SOL    HW2  517   8.876   6.274   1.293
99560SOL     OW  518   5.640   1.351   2.738
99560SOL    HW1  519   5.558   1.301   2.736
99560SOL    HW2  520   5.684   1.328   2.655
99561SOL     OW  521   6.599   9.648   3.433
99561SOL    HW1  522   6.558   9.726   3.470
99561SOL    HW2  523   6.692   9.669   3.428
99562SOL     OW  524   0.504   7.366   5.366
99562SOL    HW1  525   0.545   7.406   5.289
99562SOL    HW2  526   0.451   7.294   5.331
99563SOL     OW  527   2.405  13.190   6.378
99563SOL    HW1  528   2.498  13.167   6.369
99563SOL    HW2  529   2.406  13.273   6.426
99564SOL     OW  530  10.153   5.428   6.375
99564SOL    HW1  531  10.087   5.482   6.332
99564SOL    HW2  532  10.194   5.379   6.303
99565SOL     OW  533   6.325   5.882   4.915
99565SOL    HW1  534   6.292   5.970   4.896
99565SOL    HW2  535   6.418   5.886   4.892
99566SOL     OW  536  11.349  13.907   7.963
99566SOL    HW1  537  11.441  13.910   7.988
99566SOL    HW2  538  11.308  13.977   8.015
99567SOL     OW  539   5.369  13.828  12.656
99567SOL    HW1  540   5.395  13.855  12.744
99567SOL    HW2  541   5.451  13.817  12.608
99568SOL     OW  542   4.012   6.986   3.446
99568SOL    HW1  543   4.042   6.924   3.512
99568SOL    HW2  544   4.063   6.965   3.368
99569SOL     OW  545   4.130   2.718   3.512
99569SOL    HW1  546   4.208   2.728   3.458
99569SOL    HW2  547   4.123   2.623   3.525
99570SOL     OW  548  10.650   0.203   2.954
99570SOL    HW1  549  10.623   0.153   3.031
99570SOL    HW2  550  10.698   0.277   2.989
99571SOL     OW  551   4.591  10.664   1.539
99571SOL    HW1  552   4.596  10.684   1.446
99571SOL    HW2  553   4.681  10.670   1.571
99572SOL     OW  554   8.884   9.766   0.879
99572SOL    HW1  555   8.948   9.830   0.910
99572SOL    HW2  556   8.842   9.809   0.804
99573SOL     OW  557   8.369   0.023   9.728
99573SOL    HW1  558   8.314   0.014   9.650
99573SOL    HW2  559   8.367  14.819   9.769
99574SOL     OW  560  12.823  11.579   9.087
99574SOL    HW1  561  12.825  11.662   9.040
99574SOL    HW2  562  12.907  11.575   9.133
99575SOL     OW  563   0.916   2.253   5.405
99575SOL    HW1  564   0.959   2.231   5.323
99575SOL    HW2  565   0.980   2.231   5.473
99576SOL     OW  566  10.596   4.406  14.732
99576SOL    HW1  567  10.605   4.498  14.757
99576SOL    HW2  568  10.502   4.389  14.739
99577SOL     OW  569   3.022  12.463  14.453
99577SOL    HW1  570   3.062  12.497  14.372
99577SOL    HW2  571   2.931  12.447  14.429
99578SOL     OW  572   7.825   2.300   5.303
99578SOL    HW1  573   7.733   2.281   5.286
99578SOL    HW2  574   7.850   2.237   5.371
99579SOL     OW  575   7.435   7.933   2.272
99579SOL    HW1  576   7.375   7.968   2.338
99579SOL    HW2  577   7.379   7.887   2.210
99580SOL     OW  578   4.139   2.242   6.493
99580SOL    HW1  579   4.118   2.328   6.531
99580SOL    HW2  580   4.122   2.180   6.563
99581SOL     OW  581  13.356   4.840   2.170
99581SOL    HW1  582  13.400   4.823   2.087
99581SOL    HW2  583  13.291   4.770   2.179
99582SOL     OW  584   6.210  10.469   5.742
99582SOL    HW1  585   6.176  10.455   5.654
99582SOL    HW2  586   6.171  10.552   5.771
99583SOL     OW  587   2.282   2.494  11.271
99583SOL    HW1  588   2.236   2.421  11.229
99583SOL    HW2  589   2.358   2.454  11.313
99584SOL     OW  590  13.333   2.734   4.788
99584SOL    HW1  591  13.352   2.641   4.791
99584SOL    HW2  592  13.373   2.769   4.869
99585SOL     OW  593  12.095   3.792  14.681
99585SOL    HW1  594  12.124   3.716  14.631
99585SOL    HW2  595  12.059   3.755  14.761
99586SOL     OW  596   0.896   1.131  11.000
99586SOL    HW1  597   0.856   1.047  11.021
99586SOL    HW2  598   0.970   1.138  11.060
99587SOL     OW  599   7.887  12.409   3.726
99587SOL    HW1  600   7.883  12.416   3.630
99587SOL    HW2  601   7.879  12.315   3.743
99588SOL     OW  602   6.186  12.091   7.479
99588SOL    HW1  603   6.216  12.167   7.428
99588SOL    HW2  604   6.123  12.047   7.422
99589SOL     OW  605  10.720   9.232   9.384
99589SOL    HW1  606  10.661   9.260   9.454
99589SOL    HW2  607  10.666   9.230   9.305
99590SOL     OW  608   6.636   4.143   1.961
99590SOL    HW1  609   6.559   4.188   1.928
99590SOL    HW2  610   6.612   4.050   1.960
99591SOL     OW  611   2.826   8.752   4.709
99591SOL    HW1  612   2.833   8.830   4.654
99591SOL    HW2  613   2.773   8.780   4.783
99592SOL     OW  614  14.682  13.631  12.334
99592SOL    HW1  615  14.703  13.624  12.241
99592SOL    HW2  616  14.763  13.608  12.379
99593SOL     OW  617  12.860  11.990   5.327
99593SOL    HW1  618  12.783  11.968   5.380
99593SOL    HW2  619  12.920  11.916   5.342
99594SOL     OW  620   7.732   6.544   6.137
99594SOL    HW1  621   7.760   6.635   6.130
99594SOL    HW2  622   7.807   6.499   6.175
99595SOL     OW  623   4.336   0.455   8.959
99595SOL    HW1  624   4.353   0.519   8.891
99595SOL    HW2  625   4.295   0.381   8.914
99596SOL     OW  626   1.586   9.619   7.763
99596SOL    HW1  627   1.540   9.681   7.819
99596SOL    HW2  628   1.563   9.645   7.674
99597SOL     OW  629  11.754   8.770   0.189
99597SOL    HW1  630  11.832   8.738   0.234
99597SOL    HW2  631  11.753   8.721   0.106
99598SOL     OW  632   4.259   7.892   5.744
99598SOL    HW1  633   4.284   7.847   5.663
99598SOL    HW2  634   4.164   7.892   5.744
99599SOL     OW  635  14.492   4.870   6.350
99599SOL    HW1  636  14.584   4.873   6.378
99599SOL    HW2  637  14.446   4.826   6.421
99600SOL     OW  638  11.290  14.107  14.858
99600SOL    HW1  639  11.305  14.070  14.771
99600SOL    HW2  640  11.195  14.116  14.864
99601SOL     OW  641  10.100  10.075   4.599
99601SOL    HW1  642  10.070  10.166   4.599
99601SOL    HW2  643  10.160  10.070   4.525
99602SOL     OW  644   5.841  13.199   2.019
99602SOL    HW1  645   5.838  13.160   1.932
99602SOL    HW2  646   5.921  13.165   2.059
99603SOL     OW  647   8.606  11.848  11.115
99603SOL    HW1  648   8.635  11.936  11.091
99603SOL    HW2  649   8.677  11.814  11.170
99604SOL     OW  650   5.055  11.706  12.752
99604SOL    HW1  651   4.987  11.717  12.818
99604SOL    HW2  652   5.012  11.727  12.669
99605SOL     OW  653   4.109   7.843   8.082
99605SOL    HW1  654   4.131   7.769   8.026
99605SOL    HW2  655   4.018   7.827   8.109
99606SOL     OW  656  11.398   5.339   4.703
99606SOL    HW1  657  11.324   5.359   4.645
99606SOL    HW2  658  11.466   5.305   4.645
99607SOL     OW  659   3.670   7.759   1.724
99607SOL    HW1  660   3.624   7.720   1.799
99607SOL    HW2  661   3.761   7.765   1.752
99608SOL     OW  662   5.027  11.903   1.210
99608SOL    HW1  663   4.935  11.910   1.183
99608SOL    HW2  664   5.029  11.941   1.298
99609SOL     OW  665   6.737   8.316  14.583
99609SOL    HW1  666   6.699   8.336  14.669
99609SOL    HW2  667   6.787   8.394  14.560
99610SOL     OW  668   1.286   0.126   9.310
99610SOL    HW1  669   1.368   0.172   9.329
99610SOL    HW2  670   1.226   0.196   9.284
99611SOL     OW  671  11.645  12.632   1.540
99611SOL    HW1  672  11.582  12.697   1.570
99611SOL    HW2  673  11.723  12.682   1.518
99612SOL     OW  674  13.391  11.297  13.607
99612SOL    HW1  675  13.344  11.365  13.656
99612SOL    HW2  676  13.382  11.322  13.515
99613SOL     OW  677   1.586   3.680  14.000
99613SOL    HW1  678   1.535   3.609  13.962
99613SOL    HW2  679   1.528   3.719  14.066
99614SOL     OW  680   0.701   2.050   6.068
99614SOL    HW1  681   0.770   2.006   6.117
99614SOL    HW2  682   0.708   2.142   6.092
99615SOL     OW  683  12.933  13.026   6.281
99615SOL    HW1  684  12.981  13.035   6.198
99615SOL    HW2  685  12.850  13.071   6.265
99616SOL     OW  686   9.039   3.925   0.832
99616SOL    HW1  687   9.084   3.931   0.916
99616SOL    HW2  688   8.972   3.993   0.836
99617SOL     OW  689   6.900   2.636   0.659
99617SOL    HW1  690   6.955   2.596   0.591
99617SOL    HW2  691   6.959   2.646   0.734
99618SOL     OW  692  12.926   4.289  10.927
99618SOL    HW1  693  12.941   4.374  10.886
99618SOL    HW2  694  12.850   4.254  10.880
99619SOL     OW  695   2.847   4.685   3.871
99619SOL    HW1  696   2.926   4.631   3.865
99619SOL    HW2  697   2.775   4.623   3.880
99620SOL     OW  698  12.048  10.764   2.556
99620SOL    HW1  699  12.014  10.853   2.557
99620SOL    HW2  700  12.004  10.722   2.482
99621SOL     OW  701   4.315   5.715  14.671
99621SOL    HW1  702   4.239   5.773  14.669
99621SOL    HW2  703   4.381   5.761  14.619
99622SOL     OW  704  14.669  11.830   5.797
99622SOL    HW1  705  14.620  11.910   5.815
99622SOL    HW2  706  14.711  11.846   5.713
99623SOL     OW  707  13.194   9.090   9.097
99623SOL    HW1  708  13.150   9.154   9.153
99623SOL    HW2  709  13.166   9.005   9.132
99624SOL     OW  710   5.623   9.909   6.651
99624SOL    HW1  711   5.627   9.837   6.714
99624SOL    HW2  712   5.536   9.946   6.662
99625SOL     OW  713   9.412   9.659   4.826
99625SOL    HW1  714   9.319   9.673   4.812
99625SOL    HW2  715   9.442   9.616   4.746
99626SOL     OW  716   3.546   4.485   2.683
99626SOL    HW1  717   3.496   4.507   2.605
99626SOL    HW2  718   3.633   4.523   2.668
99627SOL     OW  719   6.936   1.174   2.074
99627SOL    HW1  720   6.978   1.253   2.109
99627SOL    HW2  721   6.883   1.141   2.145
99628SOL     OW  722   5.379  12.476   2.647
99628SOL    HW1  723   5.358  12.552   2.593
99628SOL    HW2  724   5.455  12.504   2.698
99629SOL     OW  725   2.527   5.406   2.841
99629SOL    HW1  726   2.452   5.402   2.899
99629SOL    HW2  727   2.569   5.490   2.862
99630SOL     OW  728   0.553   5.747   8.689
99630SOL    HW1  729   0.519   5.680   8.630
99630SOL    HW2  730   0.536   5.714   8.777
99631SOL     OW  731  10.886   2.650   3.749
99631SOL    HW1  732  10.857   2.570   3.793
99631SOL    HW2  733  10.923   2.619   3.666
99632SOL     OW  734  11.311  12.208  11.892
99632SOL    HW1  735  11.235  12.151  11.901
99632SOL    HW2  736  11.386  12.152  11.911
99633SOL     OW  737   3.826   9.258  11.570
99633SOL    HW1  738   3.821   9.353  11.580
99633SOL    HW2  739   3.919   9.240  11.556
99634SOL     OW  740   8.816   0.633   1.784
99634SOL    HW1  741   8.908   0.658   1.797
99634SOL    HW2  742   8.776   0.710   1.744
99635SOL     OW  743   1.681  12.272  14.099
99635SOL    HW1  744   1.759  12.257  14.152
99635SOL    HW2  745   1.658  12.186  14.065
99636SOL     OW  746   6.975   3.648   4.288
99636SOL    HW1  747   7.031   3.609   4.221
99636SOL    HW2  748   6.994   3.598   4.367
99637SOL     OW  749   0.607   8.220   1.640
99637SOL    HW1  750   0.544   8.281   1.601
99637SOL    HW2  751   0.555   8.170   1.703
99638SOL     OW  752   3.654   7.054   0.464
99638SOL    HW1  753   3.696   7.029   0.382
99638SOL    HW2  754   3.568   7.013   0.461
99639SOL     OW  755   1.627   2.184   3.447
99639SOL    HW1  756   1.613   2.128   3.523
99639SOL    HW2  757   1.722   2.194   3.442
99640SOL     OW  758   3.362   1.203   4.331
99640SOL    HW1  759   3.304   1.277   4.314
99640SOL    HW2  760   3.449   1.235   4.307
99641SOL     OW  761   4.264   6.112  13.641
99641SOL    HW1  762   4.206   6.162  13.583
99641SOL    HW2  763   4.263   6.160  13.724
99642SOL     OW  764   6.796   3.590  12.963
99642SOL    HW1  765   6.841   3.640  12.894
99642SOL    HW2  766   6.787   3.502  12.926
99643SOL     OW  767   9.266  12.425   3.107
99643SOL    HW1  768   9.316  12.349   3.077
99643SOL    HW2  769   9.186  12.389   3.145
99644SOL     OW  770  12.645  10.131   4.897
99644SOL    HW1  771  12.707  10.087   4.839
99644SOL    HW2  772  12.686  10.215   4.917
99645SOL     OW  773   3.817   9.248   4.104
99645SOL    HW1  774   3.824   9.341   4.122
99645SOL    HW2  775   3.727   9.237   4.072
99646SOL     OW  776   3.744   2.158   6.609
99646SOL    HW1  777   3.830   2.117   6.596
99646SOL    HW2  778   3.694   2.093   6.658
99647SOL     OW  779  12.261  11.434   7.085
99647SOL    HW1  780  12.191  11.389   7.039
99647SOL    HW2  781  12.292  11.501   7.023
99648SOL     OW  782   3.963   8.398  12.215
99648SOL    HW1  783   3.926   8.484  12.195
99648SOL    HW2  784   3.890   8.347  12.248
99649SOL     OW  785   3.992   8.902   7.049
99649SOL    HW1  786   3.966   8.960   6.977
99649SOL    HW2  787   3.942   8.933   7.124
99650SOL     OW  788  11.215  14.381  13.771
99650SOL    HW1  789  11.238  14.292  13.797
99650SOL    HW2  790  11.220  14.380  13.675
99651SOL     OW  791   3.395   8.826   1.426
99651SOL    HW1  792   3.446   8.841   1.347
99651SOL    HW2  793   3.304   8.825   1.396
99652SOL     OW  794   1.236  10.047  12.504
99652SOL    HW1  795   1.317   9.998  12.518
99652SOL    HW2  796   1.200  10.010  12.424
99653SOL     OW  797   8.999   9.251  11.557
99653SOL    HW1  798   9.043   9.213  11.481
99653SOL    HW2  799   8.933   9.187  11.581
99654SOL     OW  800   7.926   9.037   0.200
99654SOL    HW1  801   7.897   9.128   0.208
99654SOL    HW2  802   8.004   9.042   0.144
99655SOL     OW  803   2.175  12.451   6.033
99655SOL    HW1  804   2.140  12.443   5.944
99655SOL    HW2  805   2.098  12.453   6.089
99656SOL     OW  806  10.584   3.954   5.484
99656SOL    HW1  807  10.548   3.887   5.425
99656SOL    HW2  808  10.676   3.960   5.461
99657SOL     OW  809  10.749   3.156   0.098
99657SOL    HW1  810  10.695   3.125   0.171
99657SOL    HW2  811  10.687   3.172   0.027
99658SOL     OW  812  13.231   3.907  11.279
99658SOL    HW1  813  13.171   3.966  11.234
99658SOL    HW2  814  13.314   3.917  11.233
99659SOL     OW  815   0.944   7.678  13.206
99659SOL    HW1  816   0.982   7.673  13.294
99659SOL    HW2  817   0.862   7.629  13.213
99660SOL     OW  818  13.083   9.629   5.085
99660SOL    HW1  819  13.114   9.580   5.008
99660SOL    HW2  820  13.103   9.573   5.159
99661SOL     OW  821  10.139  11.052  10.110
99661SOL    HW1  822  10.095  10.980  10.155
99661SOL    HW2  823  10.156  11.117  10.178
99662SOL     OW  824   6.882   8.524   7.007
99662SOL    HW1  825   6.825   8.578   6.952
99662SOL    HW2  826   6.930   8.469   6.945
99663SOL     OW  827   8.207  12.401  14.499
99663SOL    HW1  828   8.217  12.313  14.462
99663SOL    HW2  829   8.168  12.453  14.430
99664SOL     OW  830   2.467  11.707  14.378
99664SOL    HW1  831   2.515  11.672  14.303
99664SOL    HW2  832   2.375  11.697  14.355
99665SOL     OW  833   2.731  11.098   8.571
99665SOL    HW1  834   2.721  11.008   8.539
99665SOL    HW2  835   2.675  11.150   8.515
99666SOL     OW  836   0.138   9.481  11.531
99666SOL    HW1  837   0.099   9.395  11.545
99666SOL    HW2  838   0.229   9.470  11.558
99667SOL     OW  839   3.124   6.238  11.079
99667SOL    HW1  840   3.149   6.171  11.144
99667SOL    HW2  841   3.154   6.202  10.996
99668SOL     OW  842   0.093  12.677   3.150
99668SOL    HW1  843   0.153  12.731   3.202
99668SOL    HW2  844   0.135  12.591   3.146
99669SOL     OW  845  13.528   6.419   9.187
99669SOL    HW1  846  13.569   6.394   9.105
99669SOL    HW2  847  13.493   6.336   9.222
99670SOL     OW  848   3.047  12.366  10.614
99670SOL    HW1  849   3.123  12.325  10.572
99670SOL    HW2  850   3.078  12.388  10.702
99671SOL     OW  851  13.456   7.670   7.267
99671SOL    HW1  852  13.389   7.709   7.211
99671SOL    HW2  853  13.538   7.711   7.239
99672SOL     OW  854   8.369   3.897   7.590
99672SOL    HW1  855   8.293   3.839   7.594
99672SOL    HW2  856   8.442   3.845   7.624
99673SOL     OW  857   7.956   1.691   5.877
99673SOL    HW1  858   7.871   1.723   5.848
99673SOL    HW2  859   7.959   1.600   5.847
99674SOL     OW  860   4.904  10.829   5.613
99674SOL    HW1  861   4.832  10.852   5.672
99674SOL    HW2  862   4.887  10.738   5.589
99675SOL     OW  863   0.900   0.454   9.412
99675SOL    HW1  864   0.890   0.549   9.407
99675SOL    HW2  865   0.912   0.435   9.505
99676SOL     OW  866   2.281  14.478  12.685
99676SOL    HW1  867   2.194  14.495  12.721
99676SOL    HW2  868   2.276  14.388  12.653
99677SOL     OW  869   6.679   7.135  13.343
99677SOL    HW1  870   6.690   7.130  13.437
99677SOL    HW2  871   6.765   7.159  13.309
99678SOL     OW  872   3.121   8.628   7.246
99678SOL    HW1  873   3.191   8.684   7.280
99678SOL    HW2  874   3.144   8.616   7.154
99679SOL     OW  875  14.031  12.399   1.958
99679SOL    HW1  876  14.000  12.407   2.048
99679SOL    HW2  877  13.955  12.369   1.909
99680SOL     OW  878  11.299  13.151   1.053
99680SOL    HW1  879  11.374  13.198   1.015
99680SOL    HW2  880  11.239  13.220   1.080
99681SOL     OW  881  12.415   7.121   7.853
99681SOL    HW1  882  12.325   7.126   7.822
99681SOL    HW2  883  12.460   7.193   7.809
99682SOL     OW  884  11.710   7.142  12.334
99682SOL    HW1  885  11.764   7.088  12.277
99682SOL    HW2  886  11.756   7.141  12.418
99683SOL     OW  887   8.177  14.417   1.674
99683SOL    HW1  888   8.258  14.462   1.649
99683SOL    HW2  889   8.145  14.466   1.750
99684SOL     OW  890   3.538  11.012   3.443
99684SOL    HW1  891   3.484  10.934   3.449
99684SOL    HW2  892   3.586  11.014   3.526
99685SOL     OW  893   5.599   5.448   4.536
99685SOL    HW1  894   5.653   5.420   4.462
99685SOL    HW2  895   5.651   5.428   4.614
99686SOL     OW  896   9.909   6.461  11.267
99686SOL    HW1  897   9.824   6.420  11.250
99686SOL    HW2  898   9.917   6.528  11.199
99687SOL     OW  899  12.858   9.369   8.950
99687SOL    HW1  900  12.836   9.460   8.934
99687SOL    HW2  901  12.954   9.366   8.946
99688SOL     OW  902  11.251   9.246   4.204
99688SOL    HW1  903  11.266   9.305   4.129
99688SOL    HW2  904  11.314   9.176   4.191
99689SOL     OW  905   6.962   6.344  12.387
99689SOL    HW1  906   6.988   6.429  12.350
99689SOL    HW2  907   7.028   6.283  12.355
99690SOL     OW  908   3.212   5.268   2.115
99690SOL    HW1  909   3.190   5.319   2.038
99690SOL    HW2  910   3.250   5.187   2.081
99691SOL     OW  911  11.137   9.704  14.574
99691SOL    HW1  912  11.066   9.737  14.629
99691SOL    HW2  913  11.200   9.666  14.635
99692SOL     OW  914  12.951  12.376   5.517
99692SOL    HW1  915  12.944  12.292   5.561
99692SOL    HW2  916  12.871  12.381   5.463
99693SOL     OW  917   6.859   9.530   7.697
99693SOL    HW1  918   6.771   9.497   7.717
99693SOL    HW2  919   6.884   9.581   7.774
99694SOL     OW  920  13.227   9.373   4.046
99694SOL    HW1  921  13.242   9.293   4.097
99694SOL    HW2  922  13.277   9.360   3.965
99695SOL     OW  923   2.132  10.080  11.390
99695SOL    HW1  924   2.040  10.062  11.411
99695SOL    HW2  925   2.180  10.061  11.470
99696SOL     OW  926  12.417   8.575   2.085
99696SOL    HW1  927  12.340   8.633   2.084
99696SOL    HW2  928  12.421   8.538   1.997
99697SOL     OW  929  13.445   7.128   1.757
99697SOL    HW1  930  13.360   7.098   1.724
99697SOL    HW2  931  13.429   7.219   1.784
99698SOL     OW  932  13.330  11.134   2.929
99698SOL    HW1  933  13.252  11.092   2.893
99698SOL    HW2  934  13.383  11.062   2.963
99699SOL     OW  935   8.246   7.728   0.454
99699SOL    HW1  936   8.309   7.677   0.402
99699SOL    HW2  937   8.176   7.749   0.393
99700SOL     OW  938  12.531   5.578   7.563
99700SOL    HW1  939  12.562   5.558   7.651
99700SOL    HW2  940  12.471   5.507   7.541
99701SOL     OW  941  14.444   5.304   2.507
99701SOL    HW1  942  14.519   5.293   2.566
99701SOL    HW2  943  14.394   5.376   2.544
99702SOL     OW  944   3.981   2.296   6.839
99702SOL    HW1  945   3.944   2.249   6.915
99702SOL    HW2  946   4.037   2.232   6.796
99703SOL     OW  947  12.478  10.558   1.836
99703SOL    HW1  948  12.425  10.583   1.912
99703SOL    HW2  949  12.513  10.640   1.802
99704SOL     OW  950   1.828   9.679  11.071
99704SOL    HW1  951   1.863   9.768  11.066
99704SOL    HW2  952   1.831   9.657  11.164
99705SOL     OW  953   6.694   8.361  14.296
99705SOL    HW1  954   6.760   8.313  14.346
99705SOL    HW2  955   6.630   8.388  14.361
99706SOL     OW  956   9.610  14.092  11.289
99706SOL    HW1  957   9.699  14.077  11.257
99706SOL    HW2  958   9.622  14.150  11.365
99707SOL     OW  959  10.492   8.173  11.613
99707SOL    HW1  960  10.541   8.171  11.695
99707SOL    HW2  961  10.471   8.265  11.600
99708SOL     OW  962  10.017  12.793   7.608
99708SOL    HW1  963   9.934  12.815   7.565
99708SOL    HW2  964  10.050  12.877   7.640
99709SOL     OW  965  12.903  12.436  11.863
99709SOL    HW1  966  12.856  12.443  11.780
99709SOL    HW2  967  12.907  12.342  11.880
99710SOL     OW  968   4.869   6.631   1.193
99710SOL    HW1  969   4.797   6.620   1.255
99710SOL    HW2  970   4.921   6.702   1.229
99711SOL     OW  971  11.335   8.165   7.662
99711SOL    HW1  972  11.371   8.149   7.749
99711SOL    HW2  973  11.358   8.256   7.643
99712SOL     OW  974   3.292   4.761   0.347
99712SOL    HW1  975   3.272   4.755   0.254
99712SOL    HW2  976   3.377   4.804   0.351
99713SOL     OW  977   0.180  12.338  14.256
99713SOL    HW1  978   0.122  12.273  14.217
99713SOL    HW2  979   0.141  12.359  14.340
99714SOL     OW  980  13.375  11.867   2.708
99714SOL    HW1  981  13.290  11.901   2.681
99714SOL    HW2  982  13.433  11.888   2.635
99715SOL     OW  983   5.510   5.796   2.953
99715SOL    HW1  984   5.469   5.813   3.037
99715SOL    HW2  985   5.464   5.854   2.892
99716SOL     OW  986   3.365   3.273   2.234
99716SOL    HW1  987   3.276   3.262   2.202
99716SOL    HW2  988   3.362   3.354   2.286
99717SOL     OW  989   7.990   4.827   7.488
99717SOL    HW1  990   7.920   4.892   7.488
99717SOL    HW2  991   8.071   4.878   7.490
99718SOL     OW  992   7.886  10.695   9.590
99718SOL    HW1  993   7.935  10.773   9.616
99718SOL    HW2  994   7.917  10.674   9.502
99719SOL     OW  995   2.249   7.568   7.476
99719SOL    HW1  996   2.251   7.489   7.423
99719SOL    HW2  997   2.283   7.540   7.562
99720SOL     OW  998   5.261   0.060   6.550
99720SOL    HW1  999   5.276   0.150   6.520
99720SOL    HW2 1000   5.279   0.064   6.644
99721SOL     OW 1001  14.543   8.398   8.518
99721SOL    HW1 1002  14.482   8.332   8.550
99721SOL    HW2 1003  14.629   8.363   8.537
99722SOL     OW 1004  14.416   4.849   6.059
99722SOL    HW1 1005  14.329   4.824   6.028
99722SOL    HW2 1006  14.414   4.832   6.153
99723SOL     OW 1007  10.819  13.244   7.199
99723SOL    HW1 1008  10.774  13.163   7.224
99723SOL    HW2 1009  10.814  13.299   7.276
99724SOL     OW 1010  14.880   0.226  14.515
99724SOL    HW1 1011  14.832   0.160  14.564
99724SOL    HW2 1012   0.090   0.212  14.538
99725SOL     OW 1013  11.574  13.084   3.336
99725SOL    HW1 1014  11.612  12.998   3.320
99725SOL    HW2 1015  11.614  13.112   3.419
99726SOL     OW 1016   1.168   8.943  14.449
99726SOL    HW1 1017   1.122   8.924  14.367
99726SOL    HW2 1018   1.127   9.023  14.482
99727SOL     OW 1019  11.390  11.903   0.122
99727SOL    HW1 1020  11.317  11.897   0.060
99727SOL    HW2 1021  11.432  11.817   0.118
99728SOL     OW 1022   0.425   3.089   7.961
99728SOL    HW1 1023   0.502   3.134   7.927
99728SOL    HW2 1024   0.426   3.107   8.055
99729SOL     OW 1025   2.686   4.201   4.513
99729SOL    HW1 1026   2.612   4.252   4.483
99729SOL    HW2 1027   2.720   4.159   4.433
99730SOL     OW 1028   3.462  11.727   4.550
99730SOL    HW1 1029   3.402  11.683   4.489
99730SOL    HW2 1030   3.533  11.758   4.494
99731SOL     OW 1031   2.199  10.376   7.676
99731SOL    HW1 1032   2.117  10.419   7.702
99731SOL    HW2 1033   2.193  10.288   7.711
99732SOL     OW 1034   0.885   3.172  10.101
99732SOL    HW1 1035   0.929   3.251  10.132
99732SOL    HW2 1036   0.955   3.111  10.082
99733SOL     OW 1037   7.653   3.232   9.878
99733SOL    HW1 1038   7.573   3.284   9.870
99733SOL    HW2 1039   7.713   3.289   9.927
99734SOL     OW 1040   8.102  11.776   5.867
99734SOL    HW1 1041   8.067  11.722   5.938
99734SOL    HW2 1042   8.032  11.839   5.848
99735SOL     OW 1043  11.068   3.349   9.182
99735SOL    HW1 1044  11.101   3.412   9.118
99735SOL    HW2 1045  11.144   3.330   9.237
99736SOL     OW 1046   3.254   1.152   7.728
99736SOL    HW1 1047   3.291   1.155   7.816
99736SOL    HW2 1048   3.324   1.182   7.671
99737SOL     OW 1049  13.571  12.623  10.724
99737SOL    HW1 1050  13.613  12.703  10.756
99737SOL    HW2 1051  13.479  12.633  10.748
99738SOL     OW 1052   8.212   7.864   5.476
99738SOL    HW1 1053   8.236   7.878   5.385
99738SOL    HW2 1054   8.162   7.942   5.500
99739SOL     OW 1055   6.523  11.702   4.739
99739SOL    HW1 1056   6.503  11.796   4.735
99739SOL    HW2 1057   6.581  11.693   4.815
99740SOL     OW 1058   5.366   4.542   7.515
99740SOL    HW1 1059   5.294   4.565   7.457
99740SOL    HW2 1060   5.366   4.446   7.517
99741SOL     OW 1061   2.963  10.899  14.276
99741SOL    HW1 1062   2.871  10.871  14.283
99741SOL    HW2 1063   2.994  10.857  14.196
99742SOL     OW 1064   0.806   8.127   5.085
99742SOL    HW1 1065   0.833   8.038   5.063
99742SOL    HW2 1066   0.774   8.121   5.175
99743SOL     OW 1067  14.096   1.846   7.851
99743SOL    HW1 1068  14.133   1.930   7.824
99743SOL    HW2 1069  14.032   1.825   7.783
99744SOL     OW 1070  12.705   2.826  13.661
99744SOL    HW1 1071  12.746   2.913  13.654
99744SOL    HW2 1072  12.737   2.792  13.745
99745SOL     OW 1073  12.719  11.024  13.266
99745SOL    HW1 1074  12.770  10.973  13.203
99745SOL    HW2 1075  12.707  10.965  13.341
99746SOL     OW 1076   2.793   5.270   3.459
99746SOL    HW1 1077   2.776   5.196   3.401
99746SOL    HW2 1078   2.855   5.325   3.410
99747SOL     OW 1079   7.264   9.340   7.510
99747SOL    HW1 1080   7.305   9.259   7.541
99747SOL    HW2 1081   7.199   9.361   7.577
99748SOL     OW 1082  10.930   9.802   7.408
99748SOL    HW1 1083  10.896   9.819   7.320
99748SOL    HW2 1084  10.856   9.764   7.456
99749SOL     OW 1085  11.360   5.699   9.348
99749SOL    HW1 1086  11.422   5.726   9.415
99749SOL    HW2 1087  11.414   5.678   9.272
99750SOL     OW 1088  12.685  13.763  10.278
99750SOL    HW1 1089  12.704  13.793  10.367
99750SOL    HW2 1090  12.709  13.837  10.222
99751SOL     OW 1091   4.844  13.521  13.654
99751SOL    HW1 1092   4.905  13.574  13.704
99751SOL    HW2 1093   4.900  13.463  13.602
99752SOL     OW 1094   5.119   5.577   5.807
99752SOL    HW1 1095   5.179   5.636   5.852
99752SOL    HW2 1096   5.047   5.564   5.869
99753SOL     OW 1097   0.071  10.049   0.155
99753SOL    HW1 1098   0.080  10.072   0.247
99753SOL    HW2 1099   0.006   9.978   0.154
99754SOL     OW 1100  14.672   2.781   6.808
99754SOL    HW1 1101  14.743   2.816   6.861
99754SOL    HW2 1102  14.704   2.696   6.777
99755SOL     OW 1103  13.462   3.694  12.217
99755SOL    HW1 1104  13.457   3.787  12.198
99755SOL    HW2 1105  13.545   3.666  12.177
99756SOL     OW 1106   8.517   6.908  14.411
99756SOL    HW1 1107   8.470   6.827  14.390
99756SOL    HW2 1108   8.477   6.974  14.355
99757SOL     OW 1109   4.767   9.260   5.930
99757SOL    HW1 1110   4.743   9.303   6.012
99757SOL    HW2 1111   4.721   9.309   5.862
99758SOL     OW 1112   5.081  12.515   7.245
99758SOL    HW1 1113   5.106  12.462   7.321
99758SOL    HW2 1114   5.021  12.459   7.196
99759SOL     OW 1115   8.638   0.450   1.567
99759SOL    HW1 1116   8.670   0.506   1.638
99759SOL    HW2 1117   8.633   0.509   1.492
99760SOL     OW 1118  13.792   9.790   5.443
99760SOL    HW1 1119  13.802   9.716   5.383
99760SOL    HW2 1120  13.881   9.824   5.453
99761SOL     OW 1121   5.972   9.160   4.880
99761SOL    HW1 1122   5.924   9.173   4.962
99761SOL    HW2 1123   5.966   9.065   4.864
99762SOL     OW 1124   8.561   7.249   7.047
99762SOL    HW1 1125   8.627   7.198   6.999
99762SOL    HW2 1126   8.483   7.193   7.047
99763SOL     OW 1127   3.765   8.105   2.615
99763SOL    HW1 1128   3.833   8.089   2.549
99763SOL    HW2 1129   3.683   8.086   2.570
99764SOL     OW 1130   2.960   4.082  14.608
99764SOL    HW1 1131   2.925   4.149  14.665
99764SOL    HW2 1132   2.971   4.005  14.664
99765SOL     OW 1133   4.285   2.904   0.717
99765SOL    HW1 1134   4.371   2.925   0.680
99765SOL    HW2 1135   4.234   2.985   0.705
99766SOL     OW 1136   1.752   6.519   8.918
99766SOL    HW1 1137   1.815   6.540   8.850
99766SOL    HW2 1138   1.785   6.566   8.995
99767SOL     OW 1139   8.170   4.567  14.815
99767SOL    HW1 1140   8.215   4.491  14.850
99767SOL    HW2 1141   8.177   4.558  14.720
99768SOL     OW 1142   1.354  10.390   9.792
99768SOL    HW1 1143   1.294  10.391   9.867
99768SOL    HW2 1144   1.298  10.365   9.718
99769SOL     OW 1145  13.377   2.292   5.877
99769SOL    HW1 1146  13.376   2.384   5.850
99769SOL    HW2 1147  13.331   2.291   5.960
99770SOL     OW 1148   6.366   7.973   6.112
99770SOL    HW1 1149   6.449   7.943   6.075
99770SOL    HW2 1150   6.358   7.924   6.194
99771SOL     OW 1151   3.313   3.507  13.911
99771SOL    HW1 1152   3.269   3.451  13.975
99771SOL    HW2 1153   3.317   3.593  13.952
99772SOL     OW 1154   1.021   6.601  13.370
99772SOL    HW1 1155   1.053   6.511  13.381
99772SOL    HW2 1156   1.060   6.650  13.442
99773SOL     OW 1157   7.992   4.866   0.851
99773SOL    HW1 1158   7.978   4.955   0.820
99773SOL    HW2 1159   8.006   4.815   0.771
99774SOL     OW 1160   5.449   7.794  14.699
99774SOL    HW1 1161   5.463   7.701  14.680
99774SOL    HW2 1162   5.433   7.797  14.794
99775SOL     OW 1163   1.036   4.605  11.425
99775SOL    HW1 1164   0.956   4.648  11.396
99775SOL    HW2 1165   1.053   4.538  11.359
99776SOL     OW 1166   2.001   6.927  12.845
99776SOL    HW1 1167   1.958   6.889  12.922
99776SOL    HW2 1168   1.929   6.943  12.783
99777SOL     OW 1169  13.811   2.239   4.310
99777SOL    HW1 1170  13.889   2.185   4.320
99777SOL    HW2 1171  13.845   2.325   4.285
99778SOL     OW 1172   8.612   4.786   2.087
99778SOL    HW1 1173   8.582   4.711   2.139
99778SOL    HW2 1174   8.653   4.747   2.010
99779SOL     OW 1175   9.634   7.081   8.707
99779SOL    HW1 1176   9.663   7.168   8.736
99779SOL    HW2 1177   9.708   7.047   8.656
99780SOL     OW 1178   3.014   7.768  14.120
99780SOL    HW1 1179   3.029   7.836  14.186
99780SOL    HW2 1180   3.074   7.698  14.144
99781SOL     OW 1181  12.342  11.760  11.642
99781SOL    HW1 1182  12.286  11.832  11.613
99781SOL    HW2 1183  12.398  11.798  11.709
99782SOL     OW 1184   1.325   1.679   7.385
99782SOL    HW1 1185   1.359   1.740   7.319
99782SOL    HW2 1186   1.233   1.665   7.360
99783SOL     OW 1187   4.130   8.254   5.199
99783SOL    HW1 1188   4.133   8.176   5.255
99783SOL    HW2 1189   4.120   8.218   5.110
99784SOL     OW 1190   4.679   1.415   0.167
99784SOL    HW1 1191   4.718   1.329   0.149
99784SOL    HW2 1192   4.634   1.404   0.251
99785SOL     OW 1193   8.753   8.663   8.207
99785SOL    HW1 1194   8.822   8.619   8.157
99785SOL    HW2 1195   8.714   8.595   8.261
99786SOL     OW 1196  10.944  14.347  12.148
99786SOL    HW1 1197  10.929  14.419  12.209
99786SOL    HW2 1198  10.857  14.326  12.113
99787SOL     OW 1199   6.805   9.691   8.420
99787SOL    HW1 1200   6.768   9.625   8.479
99787SOL    HW2 1201   6.761   9.772   8.444
99788SOL     OW 1202  10.426  10.337   3.627
99788SOL    HW1 1203  10.496  10.402   3.639
99788SOL    HW2 1204  10.350  10.376   3.672
99789SOL     OW 1205  12.375   0.822  12.305
99789SOL    HW1 1206  12.412   0.794  12.221
99789SOL    HW2 1207  12.306   0.884  12.281
99790SOL     OW 1208  11.694   5.991  11.466
99790SOL    HW1 1209  11.656   6.016  11.550
99790SOL    HW2 1210  11.736   5.906  11.483
99791SOL     OW 1211   4.722   4.251  13.697
99791SOL    HW1 1212   4.686   4.331  13.659
99791SOL    HW2 1213   4.665   4.233  13.772
99792SOL     OW 1214   1.651   6.040   7.346
99792SOL    HW1 1215   1.681   5.964   7.298
99792SOL    HW2 1216   1.616   6.004   7.428
99793SOL     OW 1217   9.265  14.777  13.571
99793SOL    HW1 1218   9.241  14.821  13.653
99793SOL    HW2 1219   9.336  14.831  13.536
99794SOL     OW 1220   5.440   0.116   3.508
99794SOL    HW1 1221   5.435   0.044   3.445
99794SOL    HW2 1222   5.367   0.173   3.484
99795SOL     OW 1223   3.363  10.371   3.746
99795SOL    HW1 1224   3.357  10.445   3.685
99795SOL    HW2 1225   3.456  10.363   3.764
99796SOL     OW 1226   9.862  10.019  12.454
99796SOL    HW1 1227   9.807  10.078  12.505
99796SOL    HW2 1228   9.818  10.011  12.370
99797SOL     OW 1229   1.586  14.201   5.486
99797SOL    HW1 1230   1.541  14.126   5.449
99797SOL    HW2 1231   1.518  14.269   5.493
99798SOL     OW 1232   7.957   3.541  10.465
99798SOL    HW1 1233   7.940   3.632  10.443
99798SOL    HW2 1234   7.961   3.496  10.381
99799SOL     OW 1235  10.318  14.660   9.270
99799SOL    HW1 1236  10.385  14.689   9.208
99799SOL    HW2 1237  10.287  14.742   9.311
99800SOL     OW 1238   1.378   0.041   6.806
99800SOL    HW1 1239   1.373   0.136   6.791
99800SOL    HW2 1240   1.471   0.024   6.822
99801SOL     OW 1241   0.756   6.934  11.904
99801SOL    HW1 1242   0.705   6.884  11.967
99801SOL    HW2 1243   0.803   6.868  11.852
99802SOL     OW 1244   6.030   8.809  14.119
99802SOL    HW1 1245   5.963   8.747  14.091
99802SOL    HW2 1246   6.045   8.866  14.043
99803SOL     OW 1247   1.933  10.948   8.943
99803SOL    HW1 1248   1.908  11.026   8.894
99803SOL    HW2 1249   2.010  10.914   8.898
99804SOL     OW 1250   1.076   1.536  14.050
99804SOL    HW1 1251   1.040   1.575  13.971
99804SOL    HW2 1252   1.004   1.539  14.113
99805SOL     OW 1253  14.750   6.973   9.006
99805SOL    HW1 1254  14.778   7.039   9.069
99805SOL    HW2 1255  14.736   6.894   9.058
99806SOL     OW 1256  14.603  10.327   5.486
99806SOL    HW1 1257  14.531  10.333   5.423
99806SOL    HW2 1258  14.585  10.395   5.550
99807SOL     OW 1259  13.969   2.652   3.278
99807SOL    HW1 1260  13.936   2.568   3.308
99807SOL    HW2 1261  13.893   2.696   3.239
99808SOL     OW 1262   0.828   4.286   5.056
99808SOL    HW1 1263   0.903   4.245   5.012
99808SOL    HW2 1264   0.868   4.342   5.122
99809SOL     OW 1265   1.816  10.273  11.170
99809SOL    HW1 1266   1.767  10.326  11.107
99809SOL    HW2 1267   1.857  10.336  11.229
99810SOL     OW 1268   9.252  13.028   9.066
99810SOL    HW1 1269   9.189  13.029   9.138
99810SOL    HW2 1270   9.333  13.062   9.104
99811SOL     OW 1271   5.497  13.589   3.154
99811SOL    HW1 1272   5.401  13.590   3.161
99811SOL    HW2 1273   5.517  13.512   3.101
99812SOL     OW 1274   6.220   1.784   2.385
99812SOL    HW1 1275   6.133   1.824   2.395
99812SOL    HW2 1276   6.280   1.859   2.380
99813SOL     OW 1277  10.573   0.506   3.980
99813SOL    HW1 1278  10.519   0.434   3.948
99813SOL    HW2 1279  10.512   0.580   3.988
99814SOL     OW 1280   9.440   9.352   4.257
99814SOL    HW1 1281   9.534   9.334   4.246
99814SOL    HW2 1282   9.402   9.267   4.278
99815SOL     OW 1283   9.609   5.417  13.977
99815SOL    HW1 1284   9.673   5.455  13.917
99815SOL    HW2 1285   9.536   5.392  13.921
99816SOL     OW 1286   4.279   4.933  14.284
99816SOL    HW1 1287   4.282   4.902  14.193
99816SOL    HW2 1288   4.200   4.986  14.289
99817SOL     OW 1289   8.909   6.014   3.159
99817SOL    HW1 1290   8.828   6.053   3.193
99817SOL    HW2 1291   8.881   5.931   3.120
99818SOL     OW 1292   0.996  12.145  14.351
99818SOL    HW1 1293   1.078  12.105  14.380
99818SOL    HW2 1294   0.998  12.233  14.389
99819SOL     OW 1295  10.318  13.505   6.150
99819SOL    HW1 1296  10.406  13.493   6.113
99819SOL    HW2 1297  10.260  13.499   6.074
99820SOL     OW 1298  13.944   9.205   6.937
99820SOL    HW1 1299  13.957   9.147   7.012
99820SOL    HW2 1300  13.925   9.291   6.976
99821SOL     OW 1301   1.553   8.203  10.095
99821SOL    HW1 1302   1.535   8.241  10.181
99821SOL    HW2 1303   1.593   8.273  10.045
99822SOL     OW 1304   3.404  12.315   6.966
99822SOL    HW1 1305   3.377  12.326   6.875
99822SOL    HW2 1306   3.491  12.354   6.970
99823SOL     OW 1307  12.238   2.192   1.974
99823SOL    HW1 1308  12.315   2.159   2.021
99823SOL    HW2 1309  12.271   2.265   1.923
99824SOL     OW 1310   6.818  12.787   1.359
99824SOL    HW1 1311   6.736  12.808   1.403
99824SOL    HW2 1312   6.818  12.842   1.280
99825SOL     OW 1313  10.704   9.665  10.363
99825SOL    HW1 1314  10.691   9.635  10.452
99825SOL    HW2 1315  10.713   9.585  10.311
99826SOL     OW 1316  13.893  10.137  12.866
99826SOL    HW1 1317  13.904  10.141  12.771
99826SOL    HW2 1318  13.799  10.146  12.879
99827SOL     OW 1319   1.439   2.156   2.769
99827SOL    HW1 1320   1.369   2.202   2.724
99827SOL    HW2 1321   1.463   2.213   2.842
99828SOL     OW 1322   7.270  13.215   2.275
99828SOL    HW1 1323   7.316  13.172   2.347
99828SOL    HW2 1324   7.217  13.146   2.235
99829SOL     OW 1325   0.886  11.121   8.770
99829SOL    HW1 1326   0.944  11.192   8.798
99829SOL    HW2 1327   0.939  11.070   8.710
99830SOL     OW 1328   1.369  11.931   9.792
99830SOL    HW1 1329   1.278  11.906   9.807
99830SOL    HW2 1330   1.417  11.890   9.863
99831SOL     OW 1331  10.398   1.232  10.753
99831SOL    HW1 1332  10.310   1.194  10.763
99831SOL    HW2 1333  10.426   1.205  10.666
99832SOL     OW 1334  13.047  10.603   3.299
99832SOL    HW1 1335  13.121  10.553   3.263
99832SOL    HW2 1336  12.971  10.571   3.252
99833SOL     OW 1337   2.470  14.681   8.218
99833SOL    HW1 1338   2.402  14.641   8.271
99833SOL    HW2 1339   2.438  14.770   8.201
99834SOL     OW 1340  13.073   7.455   9.840
99834SOL    HW1 1341  13.145   7.471   9.779
99834SOL    HW2 1342  13.011   7.400   9.791
99835SOL     OW 1343   6.510  14.333  12.255
99835SOL    HW1 1344   6.494  14.382  12.336
99835SOL    HW2 1345   6.534  14.245  12.285
99836SOL     OW 1346   8.237   7.123  11.892
99836SOL    HW1 1347   8.234   7.154  11.802
99836SOL    HW2 1348   8.157   7.071  11.902
99837SOL     OW 1349   8.912   8.701   5.098
99837SOL    HW1 1350   8.903   8.629   5.035
99837SOL    HW2 1351   8.870   8.669   5.177
99838SOL     OW 1352   5.544  12.430  11.577
99838SOL    HW1 1353   5.505  12.506  11.620
99838SOL    HW2 1354   5.529  12.358  11.638
99839SOL     OW 1355   1.783   8.695  10.265
99839SOL    HW1 1356   1.767   8.600  10.260
99839SOL    HW2 1357   1.871   8.706  10.228
99840SOL     OW 1358  13.728   1.609   5.180
99840SOL    HW1 1359  13.774   1.682   5.222
99840SOL    HW2 1360  13.642   1.609   5.223
99841SOL     OW 1361   7.747  12.269   1.260
99841SOL    HW1 1362   7.760  12.177   1.283
99841SOL    HW2 1363   7.668  12.295   1.307
99842SOL     OW 1364   8.683  11.165   0.599
99842SOL    HW1 1365   8.596  11.204   0.588
99842SOL    HW2 1366   8.686  11.140   0.692
99843SOL     OW 1367  10.552  14.508  12.634
99843SOL    HW1 1368  10.558  14.520  12.728
99843SOL    HW2 1369  10.640  14.527  12.602
99844SOL     OW 1370  12.011   2.466   1.042
99844SOL    HW1 1371  12.040   2.498   1.128
99844SOL    HW2 1372  12.055   2.381   1.032
99845SOL     OW 1373  10.265  11.054  14.801
99845SOL    HW1 1374  10.214  11.125  14.841
99845SOL    HW2 1375  10.322  11.023  14.871
99846SOL     OW 1376   0.578   0.825   0.636
99846SOL    HW1 1377   0.557   0.763   0.567
99846SOL    HW2 1378   0.665   0.859   0.612
99847SOL     OW 1379   9.366   0.422  13.286
99847SOL    HW1 1380   9.294   0.467  13.242
99847SOL    HW2 1381   9.334   0.410  13.376
99848SOL     OW 1382   4.505  12.374   5.159
99848SOL    HW1 1383   4.534  12.318   5.231
99848SOL    HW2 1384   4.508  12.463   5.195
99849SOL     OW 1385  12.307   7.187  10.482
99849SOL    HW1 1386  12.351   7.138  10.413
99849SOL    HW2 1387  12.376   7.207  10.546
99850SOL     OW 1388  11.072  10.514   4.573
99850SOL    HW1 1389  11.101  10.572   4.502
99850SOL    HW2 1390  10.977  10.517   4.569
99851SOL     OW 1391  11.812   7.708  11.586
99851SOL    HW1 1392  11.823   7.710  11.491
99851SOL    HW2 1393  11.895   7.676  11.620
99852SOL     OW 1394   5.677   1.507   5.509
99852SOL    HW1 1395   5.769   1.520   5.486
99852SOL    HW2 1396   5.629   1.553   5.441
99853SOL     OW 1397  13.487   0.308   9.284
99853SOL    HW1 1398  13.442   0.252   9.347
99853SOL    HW2 1399  13.429   0.383   9.271
99854SOL     OW 1400   6.640   5.326   3.771
99854SOL    HW1 1401   6.655   5.398   3.710
99854SOL    HW2 1402   6.605   5.368   3.850
99855SOL     OW 1403   8.279   8.647   6.276
99855SOL    HW1 1404   8.308   8.716   6.336
99855SOL    HW2 1405   8.311   8.674   6.190
99856SOL     OW 1406   9.761   7.543  12.202
99856SOL    HW1 1407   9.688   7.529  12.141
99856SOL    HW2 1408   9.718   7.554  12.288
99857SOL     OW 1409   2.449   7.557   1.570
99857SOL    HW1 1410   2.508   7.485   1.547
99857SOL    HW2 1411   2.394   7.521   1.640
99858SOL     OW 1412  13.322   3.389  13.743
99858SOL    HW1 1413  13.345   3.366  13.653
99858SOL    HW2 1414  13.291   3.480  13.736
99859SOL     OW 1415  14.410   7.139   6.423
99859SOL    HW1 1416  14.337   7.199   6.408
99859SOL    HW2 1417  14.438   7.155   6.513
99860SOL     OW 1418  14.379  10.362  14.468
99860SOL    HW1 1419  14.309  10.369  14.532
99860SOL    HW2 1420  14.335  10.353  14.384
99861SOL     OW 1421  14.299   4.280   5.177
99861SOL    HW1 1422  14.211   4.250   5.201
99861SOL    HW2 1423  14.319   4.349   5.241
99862SOL     OW 1424  14.031   7.951   8.249
99862SOL    HW1 1425  13.969   7.900   8.301
99862SOL    HW2 1426  14.115   7.906   8.263
99863SOL     OW 1427  11.907   0.630  12.080
99863SOL    HW1 1428  11.836   0.690  12.059
99863SOL    HW2 1429  11.981   0.662  12.029
99864SOL     OW 1430   4.126   4.517   2.588
99864SOL    HW1 1431   4.192   4.547   2.651
99864SOL    HW2 1432   4.156   4.552   2.504
99865SOL     OW 1433  12.786  14.327   4.128
99865SOL    HW1 1434  12.761  14.235   4.137
99865SOL    HW2 1435  12.873  14.332   4.168
99866SOL     OW 1436   5.645   9.090   0.958
99866SOL    HW1 1437   5.623   9.085   0.865
99866SOL    HW2 1438   5.740   9.105   0.959
99867SOL     OW 1439  12.290   8.646   1.257
99867SOL    HW1 1440  12.234   8.651   1.180
99867SOL    HW2 1441  12.361   8.709   1.240
99868SOL     OW 1442  10.271  13.647   7.501
99868SOL    HW1 1443  10.226  13.566   7.481
99868SOL    HW2 1444  10.330  13.625   7.573
99869SOL     OW 1445   2.939   7.350  13.153
99869SOL    HW1 1446   2.896   7.303  13.082
99869SOL    HW2 1447   2.946   7.285  13.223
99870SOL     OW 1448   4.126  14.465  11.747
99870SOL    HW1 1449   4.051  14.510  11.787
99870SOL    HW2 1450   4.093  14.377  11.727
99871SOL     OW 1451   4.568  12.228  11.917
99871SOL    HW1 1452   4.499  12.261  11.974
99871SOL    HW2 1453   4.649  12.242  11.966
99872SOL     OW 1454   5.184   5.513  13.150
99872SOL    HW1 1455   5.231   5.596  13.139
99872SOL    HW2 1456   5.127   5.528  13.226
99873SOL     OW 1457   1.810  12.196   9.830
99873SOL    HW1 1458   1.742  12.235   9.886
99873SOL    HW2 1459   1.767  12.184   9.745
99874SOL     OW 1460  10.270  13.733   9.535
99874SOL    HW1 1461  10.212  13.658   9.549
99874SOL    HW2 1462  10.211  13.804   9.512
99875SOL     OW 1463   6.945  12.869   8.562
99875SOL    HW1 1464   7.016  12.808   8.540
99875SOL    HW2 1465   6.979  12.918   8.637
99876SOL     OW 1466   4.554  14.251   9.802
99876SOL    HW1 1467   4.547  14.162   9.770
99876SOL    HW2 1468   4.646  14.274   9.790
99877SOL     OW 1469  13.119  10.862   1.896
99877SOL    HW1 1470  13.064  10.939   1.884
99877SOL    HW2 1471  13.104  10.835   1.986
99878SOL     OW 1472   9.828  11.918   4.603
99878SOL    HW1 1473   9.737  11.940   4.623
99878SOL    HW2 1474   9.867  12.001   4.575
99879SOL     OW 1475   3.162   3.059  13.247
99879SOL    HW1 1476   3.172   3.129  13.182
99879SOL    HW2 1477   3.249   3.050  13.285
99880SOL     OW 1478   0.216   3.166  13.933
99880SOL    HW1 1479   0.288   3.107  13.911
99880SOL    HW2 1480   0.207   3.158  14.028
99881SOL     OW 1481  14.474  11.682   0.569
99881SOL    HW1 1482  14.566  11.671   0.543
99881SOL    HW2 1483  14.453  11.603   0.619
99882SOL     OW 1484   8.999   8.115   1.090
99882SOL    HW1 1485   9.065   8.121   1.021
99882SOL    HW2 1486   8.943   8.191   1.077
99883SOL     OW 1487  10.456  13.868   5.310
99883SOL    HW1 1488  10.544  13.880   5.275
99883SOL    HW2 1489  10.417  13.956   5.308
99884SOL     OW 1490  10.087  14.651   5.253
99884SOL    HW1 1491  10.007  14.666   5.303
99884SOL    HW2 1492  10.154  14.637   5.321
99885SOL     OW 1493   8.961   1.239   2.522
99885SOL    HW1 1494   8.912   1.175   2.470
99885SOL    HW2 1495   8.894   1.297   2.558
99886SOL     OW 1496  11.175  10.626   8.531
99886SOL    HW1 1497  11.095  10.596   8.487
99886SOL    HW2 1498  11.152  10.711   8.567
99887SOL     OW 1499   3.654   7.980  10.299
99887SOL    HW1 1500   3.713   7.981  10.374
99887SOL    HW2 1501   3.693   8.042  10.237
99888SOL     OW 1502   2.398   6.673   4.335
99888SOL    HW1 1503   2.414   6.581   4.315
99888SOL    HW2 1504   2.305   6.678   4.355
99889SOL     OW 1505   1.571   1.286  14.840
99889SOL    HW1 1506   1.650   1.247  14.878
99889SOL    HW2 1507   1.502   1.223  14.857
99890SOL     OW 1508  14.849   5.445  12.521
99890SOL    HW1 1509  14.799   5.512  12.568
99890SOL    HW2 1510  14.880   5.489  12.442
99891SOL     OW 1511   1.030   6.786   6.160
99891SOL    HW1 1512   1.118   6.759   6.134
99891SOL    HW2 1513   0.986   6.704   6.184
99892SOL     OW 1514   8.104   0.659   8.889
99892SOL    HW1 1515   8.041   0.623   8.953
99892SOL    HW2 1516   8.057   0.656   8.806
99893SOL     OW 1517   6.359   4.648   2.493
99893SOL    HW1 1518   6.404   4.705   2.430
99893SOL    HW2 1519   6.339   4.569   2.443
99894SOL     OW 1520  11.064   8.697   8.562
99894SOL    HW1 1521  11.104   8.706   8.649
99894SOL    HW2 1522  10.998   8.766   8.560
99895SOL     OW 1523   5.300  14.237   0.788
99895SOL    HW1 1524   5.273  14.146   0.782
99895SOL    HW2 1525   5.278  14.263   0.878
99896SOL     OW 1526   7.117  14.647   1.949
99896SOL    HW1 1527   7.160  14.593   1.882
99896SOL    HW2 1528   7.031  14.666   1.912
99897SOL     OW 1529   9.341   9.543   2.489
99897SOL    HW1 1530   9.281   9.614   2.467
99897SOL    HW2 1531   9.408   9.585   2.543
99898SOL     OW 1532  10.973   5.055  12.602
99898SOL    HW1 1533  10.997   5.148  12.599
99898SOL    HW2 1534  10.940   5.042  12.691
99899SOL     OW 1535  11.305   3.894  11.739
99899SOL    HW1 1536  11.213   3.910  11.717
99899SOL    HW2 1537  11.302   3.834  11.814
99900SOL     OW 1538   3.984   4.533   0.621
99900SOL    HW1 1539   3.969   4.538   0.527
99900SOL    HW2 1540   4.013   4.621   0.646
99901SOL     OW 1541   0.776   5.913   9.967
99901SOL    HW1 1542   0.829   5.902   9.889
99901SOL    HW2 1543   0.686   5.898   9.938
99902SOL     OW 1544  13.440   1.955   9.375
99902SOL    HW1 1545  13.433   1.917   9.287
99902SOL    HW2 1546  13.527   1.930   9.406
99903SOL     OW 1547   3.063   0.086  14.758
99903SOL    HW1 1548   3.013   0.167  14.768
99903SOL    HW2 1549   3.052   0.064  14.665
99904SOL     OW 1550   9.600   1.078  12.428
99904SOL    HW1 1551   9.547   1.150  12.393
99904SOL    HW2 1552   9.676   1.074  12.371
99905SOL     OW 1553   6.738  13.339  12.484
99905SOL    HW1 1554   6.678  13.377  12.549
99905SOL    HW2 1555   6.682  13.284  12.430
99906SOL     OW 1556   9.576  10.962   8.143
99906SOL    HW1 1557   9.542  11.041   8.102
99906SOL    HW2 1558   9.665  10.984   8.168
99907SOL     OW 1559   6.309   0.972   2.481
99907SOL    HW1 1560   6.258   0.901   2.442
99907SOL    HW2 1561   6.399   0.941   2.479
99908SOL     OW 1562   7.661   1.349   1.616
99908SOL    HW1 1563   7.742   1.308   1.645
99908SOL    HW2 1564   7.643   1.309   1.531
99909SOL     OW 1565   0.855   4.472   1.307
99909SOL    HW1 1566   0.821   4.514   1.228
99909SOL    HW2 1567   0.784   4.415   1.336
99910SOL     OW 1568   8.271   1.078  11.749
99910SOL    HW1 1569   8.204   1.027  11.795
99910SOL    HW2 1570   8.251   1.169  11.770
99911SOL     OW 1571   5.691   5.031   3.295
99911SOL    HW1 1572   5.760   5.074   3.245
99911SOL    HW2 1573   5.618   5.093   3.293
99912SOL     OW 1574   8.149  10.114  12.973
99912SOL    HW1 1575   8.167  10.023  12.952
99912SOL    HW2 1576   8.186  10.164  12.901
99913SOL     OW 1577  12.596   3.163   8.756
99913SOL    HW1 1578  12.682   3.195   8.782
99913SOL    HW2 1579  12.538   3.190   8.827
99914SOL     OW 1580   6.504   2.437   7.822
99914SOL    HW1 1581   6.447   2.361   7.833
99914SOL    HW2 1582   6.592   2.402   7.834
99915SOL     OW 1583   7.464  10.642  10.332
99915SOL    HW1 1584   7.463  10.563  10.386
99915SOL    HW2 1585   7.534  10.696  10.369
99916SOL     OW 1586   8.414   3.103   9.953
99916SOL    HW1 1587   8.494   3.075   9.908
99916SOL    HW2 1588   8.379   3.174   9.898
99917SOL     OW 1589  13.601  11.629  13.718
99917SOL    HW1 1590  13.670  11.675  13.765
99917SOL    HW2 1591  13.644  11.553  13.680
99918SOL     OW 1592   7.867   7.680  13.631
99918SOL    HW1 1593   7.918   7.615  13.582
99918SOL    HW2 1594   7.878   7.761  13.581
99919SOL     OW 1595   3.445   4.957   4.124
99919SOL    HW1 1596   3.480   5.046   4.124
99919SOL    HW2 1597   3.431   4.937   4.031
99920SOL     OW 1598   3.462   1.145   2.597
99920SOL    HW1 1599   3.463   1.112   2.507
99920SOL    HW2 1600   3.554   1.144   2.624
99921SOL     OW 1601   6.158   9.385   2.723
99921SOL    HW1 1602   6.222   9.446   2.760
99921SOL    HW2 1603   6.200   9.352   2.643
99922SOL     OW 1604   2.449   3.480  11.891
99922SOL    HW1 1605   2.524   3.421  11.890
99922SOL    HW2 1606   2.485   3.564  11.922
99923SOL     OW 1607   9.765   6.594   8.427
99923SOL    HW1 1608   9.827   6.661   8.399
99923SOL    HW2 1609   9.745   6.615   8.519
99924SOL     OW 1610   7.001  14.079   6.207
99924SOL    HW1 1611   7.051  14.002   6.180
99924SOL    HW2 1612   6.914  14.044   6.229
99925SOL     OW 1613  14.263   2.462   4.251
99925SOL    HW1 1614  14.327   2.405   4.294
99925SOL    HW2 1615  14.277   2.548   4.291
99926SOL     OW 1616   4.935   8.334   9.952
99926SOL    HW1 1617   4.946   8.276   9.877
99926SOL    HW2 1618   4.881   8.406   9.918
99927SOL     OW 1619  12.439   1.896  13.643
99927SOL    HW1 1620  12.514   1.862  13.692
99927SOL    HW2 1621  12.387   1.942  13.708
99928SOL     OW 1622  13.603   1.184   0.394
99928SOL    HW1 1623  13.549   1.260   0.417
99928SOL    HW2 1624  13.545   1.128   0.343
99929SOL     OW 1625  12.866   8.124   9.865
99929SOL    HW1 1626  12.842   8.194   9.926
99929SOL    HW2 1627  12.809   8.051   9.889
99930SOL     OW 1628   6.557   5.746   9.320
99930SOL    HW1 1629   6.513   5.677   9.270
99930SOL    HW2 1630   6.525   5.827   9.282
99931SOL     OW 1631   7.448   2.830   8.212
99931SOL    HW1 1632   7.478   2.817   8.302
99931SOL    HW2 1633   7.473   2.920   8.191
99932SOL     OW 1634  12.588   7.841   1.654
99932SOL    HW1 1635  12.611   7.930   1.683
99932SOL    HW2 1636  12.518   7.814   1.712
99933SOL     OW 1637   4.431  11.966   8.658
99933SOL    HW1 1638   4.443  11.900   8.727
99933SOL    HW2 1639   4.500  12.031   8.676
99934SOL     OW 1640  13.207  10.346   0.216
99934SOL    HW1 1641  13.126  10.367   0.263
99934SOL    HW2 1642  13.184  10.357   0.124
99935SOL     OW 1643   5.541   9.244   1.385
99935SOL    HW1 1644   5.523   9.202   1.469
99935SOL    HW2 1645   5.627   9.210   1.359
99936SOL     OW 1646   8.903   2.211   8.129
99936SOL    HW1 1647   8.967   2.195   8.198
99936SOL    HW2 1648   8.954   2.212   8.048
99937SOL     OW 1649   3.423   4.066   6.994
99937SOL    HW1 1650   3.436   4.112   6.911
99937SOL    HW2 1651   3.397   4.134   7.056
99938SOL     OW 1652  10.211   4.662  12.285
99938SOL    HW1 1653  10.133   4.606  12.281
99938SOL    HW2 1654  10.282   4.606  12.253
99939SOL     OW 1655  13.645  12.192  13.279
99939SOL    HW1 1656  13.640  12.164  13.370
99939SOL    HW2 1657  13.733  12.229  13.269
99940SOL     OW 1658  13.432   9.633  13.791
99940SOL    HW1 1659  13.523   9.661  13.776
99940SOL    HW2 1660  13.439   9.568  13.861
99941SOL     OW 1661   7.044   5.980   3.308
99941SOL    HW1 1662   7.022   6.029   3.387
99941SOL    HW2 1663   7.111   6.033   3.265
99942SOL     OW 1664  10.531   2.245   1.476
99942SOL    HW1 1665  10.488   2.197   1.406
99942SOL    HW2 1666  10.624   2.223   1.467
99943SOL     OW 1667  10.297   3.021  14.313
99943SOL    HW1 1668  10.217   2.982  14.277
99943SOL    HW2 1669  10.338   2.951  14.363
99944SOL     OW 1670   9.501  11.354   4.348
99944SOL    HW1 1671   9.537  11.284   4.293
99944SOL    HW2 1672   9.566  11.424   4.343
99945SOL     OW 1673   7.261  11.124  13.637
99945SOL    HW1 1674   7.339  11.068  13.635
99945SOL    HW2 1675   7.194  11.073  13.592
99946SOL     OW 1676   7.932  10.491   4.143
99946SOL    HW1 1677   7.947  10.575   4.099
99946SOL    HW2 1678   7.925  10.514   4.236
99947SOL     OW 1679  10.462   6.717  13.635
99947SOL    HW1 1680  10.410   6.712  13.554
99947SOL    HW2 1681  10.553   6.708  13.605
99948SOL     OW 1682  11.112   9.178  10.928
99948SOL    HW1 1683  11.067   9.255  10.960
99948SOL    HW2 1684  11.042   9.113  10.914
99949SOL     OW 1685   3.588  12.361   1.411
99949SOL    HW1 1686   3.557  12.396   1.495
99949SOL    HW2 1687   3.645  12.288   1.435
99950SOL     OW 1688   6.154  11.211  13.530
99950SOL    HW1 1689   6.073  11.244  13.491
99950SOL    HW2 1690   6.189  11.152  13.463
99951SOL     OW 1691   8.412  14.073   7.188
99951SOL    HW1 1692   8.323  14.053   7.215
99951SOL    HW2 1693   8.404  14.147   7.129
99952SOL     OW 1694   1.678  10.913   0.879
99952SOL    HW1 1695   1.702  10.843   0.939
99952SOL    HW2 1696   1.718  10.887   0.795
99953SOL     OW 1697   1.499  10.744  13.977
99953SOL    HW1 1698   1.459  10.791  14.049
99953SOL    HW2 1699   1.583  10.714  14.011
99954SOL     OW 1700   1.314  14.517   9.028
99954SOL    HW1 1701   1.291  14.587   9.089
99954SOL    HW2 1702   1.246  14.451   9.042
99955SOL     OW 1703   0.276   0.600   9.889
99955SOL    HW1 1704   0.183   0.615   9.877
99955SOL    HW2 1705   0.282   0.535   9.959
99956SOL     OW 1706  13.316  12.007   6.473
99956SOL    HW1 1707  13.387  12.066   6.500
99956SOL    HW2 1708  13.357  11.921   6.469
99957SOL     OW 1709   3.952   6.670   7.400
99957SOL    HW1 1710   4.005   6.670   7.480
99957SOL    HW2 1711   3.892   6.744   7.411
99958SOL     OW 1712  14.598   3.216   3.456
99958SOL    HW1 1713  14.618   3.271   3.380
99958SOL    HW2 1714  14.683   3.192   3.492
99959SOL     OW 1715   6.654   4.106   5.148
99959SOL    HW1 1716   6.736   4.119   5.196
99959SOL    HW2 1717   6.588   4.095   5.216
99960SOL     OW 1718   1.089   4.697  14.302
99960SOL    HW1 1719   1.162   4.697  14.364
99960SOL    HW2 1720   1.012   4.709  14.357
99961SOL     OW 1721  13.665   4.672   0.372
99961SOL    HW1 1722  13.754   4.645   0.347
99961SOL    HW2 1723  13.677   4.725   0.450
99962SOL     OW 1724   3.654  12.902   3.645
99962SOL    HW1 1725   3.714  12.951   3.701
99962SOL    HW2 1726   3.631  12.825   3.697
99963SOL     OW 1727   3.246   4.536   5.873
99963SOL    HW1 1728   3.328   4.499   5.903
99963SOL    HW2 1729   3.271   4.617   5.828
99964SOL     OW 1730  10.506   0.288   2.596
99964SOL    HW1 1731  10.521   0.370   2.549
99964SOL    HW2 1732  10.453   0.313   2.671
99965SOL     OW 1733   6.208   2.689   6.429
99965SOL    HW1 1734   6.117   2.704   6.456
99965SOL    HW2 1735   6.214   2.594   6.418
99966SOL     OW 1736  10.829  12.053   3.912
99966SOL    HW1 1737  10.752  12.106   3.892
99966SOL    HW2 1738  10.847  12.071   4.005
99967SOL     OW 1739   4.032  10.424   4.570
99967SOL    HW1 1740   4.013  10.404   4.478
99967SOL    HW2 1741   3.952  10.400   4.617
99968SOL     OW 1742   7.375  14.160  12.783
99968SOL    HW1 1743   7.338  14.204  12.859
99968SOL    HW2 1744   7.301  14.115  12.742
99969SOL     OW 1745   9.229  12.066   7.802
99969SOL    HW1 1746   9.192  12.043   7.717
99969SOL    HW2 1747   9.154  12.075   7.859
99970SOL     OW 1748   8.786   1.576   6.995
99970SOL    HW1 1749   8.692   1.563   6.983
99970SOL    HW2 1750   8.823   1.488   6.989
99971SOL     OW 1751  11.639   4.534  12.678
99971SOL    HW1 1752  11.594   4.526  12.763
99971SOL    HW2 1753  11.569   4.539  12.614
99972SOL     OW 1754   3.116  14.098   8.276
99972SOL    HW1 1755   3.133  14.188   8.304
99972SOL    HW2 1756   3.153  14.093   8.188
99973SOL     OW 1757   7.797   1.859  12.779
99973SOL    HW1 1758   7.890   1.837  12.779
99973SOL    HW2 1759   7.783   1.905  12.862
99974SOL     OW 1760   5.929  10.652   4.402
99974SOL    HW1 1761   5.936  10.706   4.480
99974SOL    HW2 1762   5.846  10.605   4.412
99975SOL     OW 1763  12.166  12.508  12.476
99975SOL    HW1 1764  12.207  12.567  12.539
99975SOL    HW2 1765  12.170  12.422  12.518
99976SOL     OW 1766   8.406  13.092   5.974
99976SOL    HW1 1767   8.409  13.185   5.953
99976SOL    HW2 1768   8.409  13.089   6.070
99977SOL     OW 1769   9.733   0.113   1.244
99977SOL    HW1 1770   9.717   0.034   1.192
99977SOL    HW2 1771   9.829   0.121   1.246
99978SOL     OW 1772   4.771   7.640  13.139
99978SOL    HW1 1773   4.832   7.612  13.208
99978SOL    HW2 1774   4.827   7.675  13.070
99979SOL     OW 1775   0.627  10.900   3.593
99979SOL    HW1 1776   0.658  10.900   3.503
99979SOL    HW2 1777   0.619  10.992   3.616
99980SOL     OW 1778  11.918   2.975   1.519
99980SOL    HW1 1779  11.955   2.946   1.602
99980SOL    HW2 1780  11.990   2.970   1.457
99981SOL     OW 1781   2.938  10.279  10.792
99981SOL    HW1 1782   2.983  10.314  10.869
99981SOL    HW2 1783   2.988  10.313  10.718
99982SOL     OW 1784   6.837   4.605  10.227
99982SOL    HW1 1785   6.851   4.639  10.138
99982SOL    HW2 1786   6.749   4.567  10.224
99983SOL     OW 1787  12.706  11.037  10.587
99983SOL    HW1 1788  12.640  10.985  10.541
99983SOL    HW2 1789  12.732  10.982  10.661
99984SOL     OW 1790   1.965  13.265   4.029
99984SOL    HW1 1791   1.905  13.200   3.994
99984SOL    HW2 1792   1.920  13.348   4.019
99985SOL     OW 1793  14.350   6.985   3.846
99985SOL    HW1 1794  14.397   6.944   3.772
99985SOL    HW2 1795  14.414   6.985   3.917
99986SOL     OW 1796   3.889   9.827   4.576
99986SOL    HW1 1797   3.848   9.908   4.545
99986SOL    HW2 1798   3.920   9.847   4.664
99987SOL     OW 1799   7.904   3.483   5.699
99987SOL    HW1 1800   7.981   3.453   5.651
99987SOL    HW2 1801   7.867   3.552   5.645
99988SOL     OW 1802   9.670   7.769  10.178
99988SOL    HW1 1803   9.647   7.778  10.271
99988SOL    HW2 1804   9.689   7.676  10.167
99989SOL     OW 1805   6.544  10.595   9.687
99989SOL    HW1 1806   6.507  10.513   9.652
99989SOL    HW2 1807   6.495  10.612   9.767
99990SOL     OW 1808   9.367   4.168   4.396
99990SOL    HW1 1809   9.348   4.245   4.341
99990SOL    HW2 1810   9.461   4.174   4.412
99991SOL     OW 1811  10.459   1.609   9.426
99991SOL    HW1 1812  10.429   1.540   9.485
99991SOL    HW2 1813  10.382   1.632   9.374
99992SOL     OW 1814   9.648   4.776   9.515
99992SOL    HW1 1815   9.692   4.745   9.594
99992SOL    HW2 1816   9.631   4.869   9.532
99993SOL     OW 1817   6.554   8.098   8.914
99993SOL    HW1 1818   6.468   8.058   8.924
99993SOL    HW2 1819   6.538   8.192   8.921
99994SOL     OW 1820   6.567   2.590   3.592
99994SOL    HW1 1821   6.637   2.570   3.529
99994SOL    HW2 1822   6.613   2.615   3.672
99995SOL     OW 1823  13.063   1.912   6.807
99995SOL    HW1 1824  13.043   1.911   6.713
99995SOL    HW2 1825  12.985   1.951   6.847
99996SOL     OW 1826   2.419   0.933   0.024
99996SOL    HW1 1827   2.511   0.948   0.045
99996SOL    HW2 1828   2.395   1.004  14.847
99997SOL     OW 1829   7.116  14.739  11.082
99997SOL    HW1 1830   7.127  14.762  11.174
99997SOL    HW2 1831   7.167  14.658  11.071
99998SOL     OW 1832   8.135   3.668  13.779
99998SOL    HW1 1833   8.093   3.754  13.785
99998SOL    HW2 1834   8.118   3.639  13.690
99999SOL     OW 1835   4.546   6.160  14.230
99999SOL    HW1 1836   4.495   6.228  14.185
99999SOL    HW2 1837   4.632   6.199  14.242
    0SOL     OW 1838   5.399   7.963   7.301
    0SOL    HW1 1839   5.394   7.886   7.244
    0SOL    HW2 1840   5.374   8.036   7.245
    1SOL     OW 1841   7.378   7.277   0.533
    1SOL    HW1 1842   7.450   7.244   0.587
    1SOL    HW2 1843   7.410   7.360   0.498
    2SOL     OW 1844   3.539   0.682   8.811
    2SOL    HW1 1845   3.468   0.716   8.866
    2SOL    HW2 1846   3.585   0.761   8.782
    3SOL     OW 1847   6.488  12.384   2.101
    3SOL    HW1 1848   6.460  12.384   2.193
    3SOL    HW2 1849   6.445  12.460   2.063
    4SOL     OW 1850   6.180   6.657   3.991
    4SOL    HW1 1851   6.123   6.702   4.053
    4SOL    HW2 1852   6.144   6.569   3.984
    5SOL     OW 1853   0.276  13.086   6.674
    5SOL    HW1 1854   0.206  13.045   6.623
    5SOL    HW2 1855   0.342  13.018   6.685
    6SOL     OW 1856   1.441   3.271   9.889
    6SOL    HW1 1857   1.417   3.220   9.967
    6SOL    HW2 1858   1.372   3.250   9.826
    7SOL     OW 1859   9.200   4.858  10.445
    7SOL    HW1 1860   9.274   4.827  10.392
    7SOL    HW2 1861   9.187   4.788  10.510
    8SOL     OW 1862  12.697   2.780   2.728
    8SOL    HW1 1863  12.701   2.838   2.803
    8SOL    HW2 1864  12.620   2.725   2.743
    9SOL     OW 1865  11.681   1.613   2.355
    9SOL    HW1 1866  11.616   1.672   2.317
    9SOL    HW2 1867  11.765   1.651   2.329
   10SOL     OW 1868   9.763   3.690  11.922
   10SOL    HW1 1869   9.723   3.667  12.005
   10SOL    HW2 1870   9.851   3.652  11.925
   11SOL     OW 1871  13.058   6.512  12.655
   11SOL    HW1 1872  13.073   6.604  12.637
   11SOL    HW2 1873  13.057   6.506  12.750
   12SOL     OW 1874   0.048   2.837   6.334
   12SOL    HW1 1875  14.845   2.800   6.360
   12SOL    HW2 1876   0.061   2.911   6.393
   13SOL     OW 1877   1.226   7.943   8.145
   13SOL    HW1 1878   1.188   7.961   8.059
   13SOL    HW2 1879   1.264   8.026   8.172
   14SOL     OW 1880   7.927  13.353   3.816
   14SOL    HW1 1881   7.871  13.428   3.797
   14SOL    HW2 1882   7.962  13.326   3.731
   15SOL     OW 1883   8.650  10.998  12.260
   15SOL    HW1 1884   8.738  11.007  12.222
   15SOL    HW2 1885   8.648  11.063  12.331
   16SOL     OW 1886  11.902   3.342   0.853
   16SOL    HW1 1887  11.859   3.426   0.868
   16SOL    HW2 1888  11.943   3.350   0.768
   17SOL     OW 1889  11.197   5.474  11.705
   17SOL    HW1 1890  11.249   5.516  11.636
   17SOL    HW2 1891  11.154   5.546  11.751
   18SOL     OW 1892   1.409  11.619   4.261
   18SOL    HW1 1893   1.494  11.629   4.303
   18SOL    HW2 1894   1.357  11.693   4.294
   19SOL     OW 1895  13.709  13.681   7.878
   19SOL    HW1 1896  13.625  13.701   7.920
   19SOL    HW2 1897  13.721  13.750   7.814
   20SOL     OW 1898  13.996   0.721   4.263
   20SOL    HW1 1899  14.072   0.663   4.267
   20SOL    HW2 1900  13.961   0.719   4.352
   21SOL     OW 1901  14.495   9.824   9.294
   21SOL    HW1 1902  14.411   9.865   9.317
   21SOL    HW2 1903  14.496   9.742   9.344
   22SOL     OW 1904  14.037  11.655   5.627
   22SOL    HW1 1905  13.948  11.678   5.655
   22SOL    HW2 1906  14.092  11.727   5.659
   23SOL     OW 1907  12.225   2.779   1.600
   23SOL    HW1 1908  12.255   2.773   1.509
   23SOL    HW2 1909  12.289   2.836   1.642
   24SOL     OW 1910   1.514   4.909   5.111
   24SOL    HW1 1911   1.505   4.930   5.018
   24SOL    HW2 1912   1.429   4.874   5.136
   25SOL     OW 1913  13.363   0.170   8.173
   25SOL    HW1 1914  13.391   0.089   8.217
   25SOL    HW2 1915  13.436   0.230   8.185
   26SOL     OW 1916   1.702   2.193   1.407
   26SOL    HW1 1917   1.611   2.182   1.379
   26SOL    HW2 1918   1.749   2.216   1.327
   27SOL     OW 1919   5.250   4.263   6.899
   27SOL    HW1 1920   5.272   4.343   6.948
   27SOL    HW2 1921   5.156   4.269   6.885
   28SOL     OW 1922   8.888   9.134  13.773
   28SOL    HW1 1923   8.848   9.118  13.859
   28SOL    HW2 1924   8.917   9.225  13.776
   29SOL     OW 1925   3.259   7.351   8.042
   29SOL    HW1 1926   3.344   7.347   7.999
   29SOL    HW2 1927   3.277   7.392   8.127
   30SOL     OW 1928   5.357   7.778   6.742
   30SOL    HW1 1929   5.383   7.712   6.807
   30SOL    HW2 1930   5.324   7.727   6.668
   31SOL     OW 1931   1.558   5.505   5.713
   31SOL    HW1 1932   1.494   5.571   5.740
   31SOL    HW2 1933   1.528   5.476   5.627
   32SOL     OW 1934   4.000   6.156   4.203
   32SOL    HW1 1935   3.973   6.076   4.248
   32SOL    HW2 1936   3.934   6.220   4.227
   33SOL     OW 1937  13.911   6.029   8.336
   33SOL    HW1 1938  13.883   6.115   8.367
   33SOL    HW2 1939  13.998   6.017   8.374
   34SOL     OW 1940   8.837   5.704  13.176
   34SOL    HW1 1941   8.760   5.699  13.119
   34SOL    HW2 1942   8.848   5.797  13.194
   35SOL     OW 1943  14.837   4.163   9.586
   35SOL    HW1 1944  14.870   4.246   9.621
   35SOL    HW2 1945  14.792   4.187   9.505
   36SOL     OW 1946  10.301   1.215   0.374
   36SOL    HW1 1947  10.293   1.267   0.294
   36SOL    HW2 1948  10.337   1.275   0.438
   37SOL     OW 1949   8.568  10.940   1.907
   37SOL    HW1 1950   8.560  11.028   1.944
   37SOL    HW2 1951   8.479  10.917   1.879
   38SOL     OW 1952  11.184   3.273  11.562
   38SOL    HW1 1953  11.142   3.347  11.517
   38SOL    HW2 1954  11.208   3.213  11.491
   39SOL     OW 1955   9.036   0.019  11.524
   39SOL    HW1 1956   9.090  14.855  11.589
   39SOL    HW2 1957   8.997  14.832  11.472
   40SOL     OW 1958   7.624   5.925   7.835
   40SOL    HW1 1959   7.648   5.835   7.812
   40SOL    HW2 1960   7.699   5.958   7.884
   41SOL     OW 1961   6.857   9.247  10.217
   41SOL    HW1 1962   6.801   9.170  10.230
   41SOL    HW2 1963   6.807   9.319  10.255
   42SOL     OW 1964  14.849   4.910  13.108
   42SOL    HW1 1965  14.852   4.947  13.020
   42SOL    HW2 1966   0.048   4.859  13.116
   43SOL     OW 1967  12.598   6.050  12.405
   43SOL    HW1 1968  12.650   6.104  12.463
   43SOL    HW2 1969  12.548   5.993  12.464
   44SOL     OW 1970   5.412   0.485   3.611
   44SOL    HW1 1971   5.424   0.521   3.523
   44SOL    HW2 1972   5.501   0.467   3.642
   45SOL     OW 1973   7.019   6.365   0.318
   45SOL    HW1 1974   7.017   6.444   0.263
   45SOL    HW2 1975   7.089   6.382   0.380
   46SOL     OW 1976  10.515  13.039   9.603
   46SOL    HW1 1977  10.424  13.026   9.577
   46SOL    HW2 1978  10.545  12.952   9.631
   47SOL     OW 1979  12.638   1.122   8.492
   47SOL    HW1 1980  12.590   1.195   8.452
   47SOL    HW2 1981  12.638   1.054   8.425
   48SOL     OW 1982  10.429  10.715  13.631
   48SOL    HW1 1983  10.442  10.807  13.656
   48SOL    HW2 1984  10.413  10.669  13.714
   49SOL     OW 1985   6.488  13.390   8.855
   49SOL    HW1 1986   6.537  13.323   8.807
   49SOL    HW2 1987   6.410  13.405   8.802
   50SOL     OW 1988  13.058   1.245  10.273
   50SOL    HW1 1989  12.969   1.209  10.269
   50SOL    HW2 1990  13.081   1.240  10.366
   51SOL     OW 1991   0.388  14.156  12.182
   51SOL    HW1 1992   0.398  14.224  12.249
   51SOL    HW2 1993   0.412  14.199  12.100
   52SOL     OW 1994   5.806   1.607   6.893
   52SOL    HW1 1995   5.806   1.693   6.936
   52SOL    HW2 1996   5.760   1.550   6.954
   53SOL     OW 1997   6.243   7.383  13.747
   53SOL    HW1 1998   6.309   7.365  13.814
   53SOL    HW2 1999   6.228   7.477  13.754
   54SOL     OW 2000   4.692   7.313   7.831
   54SOL    HW1 2001   4.743   7.261   7.893
   54SOL    HW2 2002   4.610   7.331   7.876
   55SOL     OW 2003   8.180   8.034   4.251
   55SOL    HW1 2004   8.097   7.987   4.248
   55SOL    HW2 2005   8.213   8.030   4.161
   56SOL     OW 2006   7.908   1.979   9.360
   56SOL    HW1 2007   7.922   1.946   9.449
   56SOL    HW2 2008   7.907   2.074   9.370
   57SOL     OW 2009   7.197  10.914   1.083
   57SOL    HW1 2010   7.215  11.008   1.082
   57SOL    HW2 2011   7.110  10.907   1.123
   58SOL     OW 2012   5.245  12.149  13.606
   58SOL    HW1 2013   5.311  12.109  13.549
   58SOL    HW2 2014   5.173  12.087  13.605
   59SOL     OW 2015  10.569   0.950   8.403
   59SOL    HW1 2016  10.497   1.012   8.413
   59SOL    HW2 2017  10.644   0.995   8.442
   60SOL     OW 2018   6.484   6.180   3.450
   60SOL    HW1 2019   6.514   6.214   3.534
   60SOL    HW2 2020   6.476   6.257   3.395
   61SOL     OW 2021   3.212  13.493  10.944
   61SOL    HW1 2022   3.138  13.459  10.993
   61SOL    HW2 2023   3.217  13.586  10.969
   62SOL     OW 2024  11.081  13.652   7.293
   62SOL    HW1 2025  11.070  13.673   7.386
   62SOL    HW2 2026  11.002  13.686   7.251
   63SOL     OW 2027   8.437   1.992   2.463
   63SOL    HW1 2028   8.462   1.931   2.393
   63SOL    HW2 2029   8.387   2.060   2.418
   64SOL     OW 2030   3.208   2.381  14.237
   64SOL    HW1 2031   3.149   2.436  14.185
   64SOL    HW2 2032   3.267   2.342  14.173
   65SOL     OW 2033   0.355   2.282   5.192
   65SOL    HW1 2034   0.291   2.354   5.194
   65SOL    HW2 2035   0.411   2.296   5.268
   66SOL     OW 2036  12.964  11.073   5.794
   66SOL    HW1 2037  12.942  11.166   5.790
   66SOL    HW2 2038  12.940  11.039   5.708
   67SOL     OW 2039   1.442  11.069  13.313
   67SOL    HW1 2040   1.514  11.132  13.305
   67SOL    HW2 2041   1.478  10.987  13.280
   68SOL     OW 2042   7.244  12.054   9.416
   68SOL    HW1 2043   7.173  11.995   9.439
   68SOL    HW2 2044   7.237  12.064   9.321
   69SOL     OW 2045   3.379  14.165   8.132
   69SOL    HW1 2046   3.467  14.141   8.162
   69SOL    HW2 2047   3.345  14.221   8.202
   70SOL     OW 2048  12.488   1.074   4.041
   70SOL    HW1 2049  12.404   1.030   4.051
   70SOL    HW2 2050  12.477   1.128   3.962
   71SOL     OW 2051   5.583   4.126  10.993
   71SOL    HW1 2052   5.653   4.083  11.041
   71SOL    HW2 2053   5.591   4.219  11.015
   72SOL     OW 2054   3.981   0.235  14.229
   72SOL    HW1 2055   3.940   0.294  14.165
   72SOL    HW2 2056   4.015   0.294  14.297
   73SOL     OW 2057   6.921   1.883   4.866
   73SOL    HW1 2058   6.864   1.952   4.900
   73SOL    HW2 2059   6.995   1.882   4.926
   74SOL     OW 2060   3.438   9.367  13.621
   74SOL    HW1 2061   3.442   9.281  13.579
   74SOL    HW2 2062   3.529   9.387  13.644
   75SOL     OW 2063   1.939   9.712   8.758
   75SOL    HW1 2064   1.939   9.720   8.854
   75SOL    HW2 2065   1.988   9.632   8.740
   76SOL     OW 2066   9.330   7.448  12.218
   76SOL    HW1 2067   9.397   7.400  12.267
   76SOL    HW2 2068   9.272   7.380  12.185
   77SOL     OW 2069   2.854   0.906   2.667
   77SOL    HW1 2070   2.820   0.916   2.756
   77SOL    HW2 2071   2.795   0.843   2.625
   78SOL     OW 2072   0.093  13.624   6.008
   78SOL    HW1 2073   0.041  13.544   6.017
   78SOL    HW2 2074   0.042  13.680   5.951
   79SOL     OW 2075   8.239  11.022  10.219
   79SOL    HW1 2076   8.297  11.076  10.166
   79SOL    HW2 2077   8.297  10.958  10.260
   80SOL     OW 2078   5.105   9.420  13.340
   80SOL    HW1 2079   5.130   9.480  13.410
   80SOL    HW2 2080   5.180   9.418  13.281
   81SOL     OW 2081   6.831  13.825   2.788
   81SOL    HW1 2082   6.749  13.869   2.810
   81SOL    HW2 2083   6.827  13.741   2.835
   82SOL     OW 2084  13.472  13.559  11.492
   82SOL    HW1 2085  13.530  13.499  11.445
   82SOL    HW2 2086  13.406  13.502  11.532
   83SOL     OW 2087   7.499  11.506   4.334
   83SOL    HW1 2088   7.403  11.514   4.330
   83SOL    HW2 2089   7.529  11.544   4.252
   84SOL     OW 2090  12.267   2.554   4.812
   84SOL    HW1 2091  12.361   2.561   4.799
   84SOL    HW2 2092  12.235   2.508   4.734
   85SOL     OW 2093   0.818   0.393   3.437
   85SOL    HW1 2094   0.749   0.389   3.503
   85SOL    HW2 2095   0.867   0.472   3.458
   86SOL     OW 2096  13.780   2.625   0.505
   86SOL    HW1 2097  13.775   2.663   0.593
   86SOL    HW2 2098  13.728   2.685   0.450
   87SOL     OW 2099  13.356   0.506   1.177
   87SOL    HW1 2100  13.339   0.541   1.090
   87SOL    HW2 2101  13.270   0.483   1.211
   88SOL     OW 2102   0.790   2.979   1.495
   88SOL    HW1 2103   0.714   2.927   1.518
   88SOL    HW2 2104   0.798   2.969   1.400
   89SOL     OW 2105  13.266   2.630   9.255
   89SOL    HW1 2106  13.263   2.543   9.295
   89SOL    HW2 2107  13.249   2.690   9.327
   90SOL     OW 2108  10.103  14.143   3.944
   90SOL    HW1 2109  10.060  14.197   4.011
   90SOL    HW2 2110  10.154  14.079   3.994
   91SOL     OW 2111  11.713   3.895   9.128
   91SOL    HW1 2112  11.658   3.886   9.206
   91SOL    HW2 2113  11.709   3.810   9.086
   92SOL     OW 2114   7.240  12.277  11.705
   92SOL    HW1 2115   7.284  12.194  11.685
   92SOL    HW2 2116   7.235  12.279  11.800
   93SOL     OW 2117   4.079   7.829  14.658
   93SOL    HW1 2118   4.140   7.873  14.599
   93SOL    HW2 2119   4.066   7.893  14.729
   94SOL     OW 2120  13.886  13.111   4.053
   94SOL    HW1 2121  13.889  13.205   4.033
   94SOL    HW2 2122  13.977  13.083   4.051
   95SOL     OW 2123  10.283   9.832  10.389
   95SOL    HW1 2124  10.247   9.793  10.310
   95SOL    HW2 2125  10.206   9.863  10.438
   96SOL     OW 2126  10.545   9.294   9.595
   96SOL    HW1 2127  10.602   9.371   9.601
   96SOL    HW2 2128  10.457   9.328   9.615
   97SOL     OW 2129  10.630   0.749  12.953
   97SOL    HW1 2130  10.581   0.684  13.003
   97SOL    HW2 2131  10.606   0.732  12.862
   98SOL     OW 2132   0.716   1.210   8.780
   98SOL    HW1 2133   0.793   1.246   8.825
   98SOL    HW2 2134   0.688   1.137   8.835
   99SOL     OW 2135   5.780   7.092   3.694
   99SOL    HW1 2136   5.840   7.018   3.695
   99SOL    HW2 2137   5.693   7.053   3.682
  100SOL     OW 2138   8.045   0.977   1.164
  100SOL    HW1 2139   7.953   1.003   1.163
  100SOL    HW2 2140   8.093   1.056   1.187
  101SOL     OW 2141  11.157   9.348  12.201
  101SOL    HW1 2142  11.201   9.370  12.284
  101SOL    HW2 2143  11.064   9.346  12.223
  102SOL     OW 2144   6.141  13.648  12.359
  102SOL    HW1 2145   6.224  13.665  12.314
  102SOL    HW2 2146   6.167  13.614  12.445
  103SOL     OW 2147   6.953   3.965  14.254
  103SOL    HW1 2148   7.036   3.997  14.219
  103SOL    HW2 2149   6.941   4.012  14.336
  104SOL     OW 2150   4.116  12.427  12.158
  104SOL    HW1 2151   4.163  12.360  12.208
  104SOL    HW2 2152   4.105  12.500  12.219
  105SOL     OW 2153  14.266  11.492  10.123
  105SOL    HW1 2154  14.256  11.490  10.028
  105SOL    HW2 2155  14.292  11.403  10.146
  106SOL     OW 2156   1.412  12.456   7.679
  106SOL    HW1 2157   1.424  12.456   7.774
  106SOL    HW2 2158   1.500  12.441   7.644
  107SOL     OW 2159   5.917  12.807   8.021
  107SOL    HW1 2160   5.945  12.771   7.937
  107SOL    HW2 2161   5.826  12.780   8.029
  108SOL     OW 2162   6.255   8.357   0.849
  108SOL    HW1 2163   6.198   8.434   0.844
  108SOL    HW2 2164   6.251   8.331   0.941
  109SOL     OW 2165   9.808   6.597  12.303
  109SOL    HW1 2166   9.783   6.587  12.212
  109SOL    HW2 2167   9.841   6.687  12.309
  110SOL     OW 2168  10.988  10.018   4.212
  110SOL    HW1 2169  10.907  10.051   4.172
  110SOL    HW2 2170  11.035   9.975   4.140
  111SOL     OW 2171  13.617   2.299  14.806
  111SOL    HW1 2172  13.530   2.335  14.823
  111SOL    HW2 2173  13.660   2.299   0.010
  112SOL     OW 2174   4.280  11.071   0.810
  112SOL    HW1 2175   4.257  10.978   0.809
  112SOL    HW2 2176   4.375  11.073   0.819
  113SOL     OW 2177   7.219  12.855   7.084
  113SOL    HW1 2178   7.246  12.937   7.042
  113SOL    HW2 2179   7.191  12.881   7.172
  114SOL     OW 2180   8.865  12.671  10.712
  114SOL    HW1 2181   8.914  12.599  10.672
  114SOL    HW2 2182   8.874  12.744  10.650
  115SOL     OW 2183  14.190   3.098   2.372
  115SOL    HW1 2184  14.245   3.159   2.322
  115SOL    HW2 2185  14.101   3.125   2.352
  116SOL     OW 2186   0.776  12.221   3.464
  116SOL    HW1 2187   0.835  12.292   3.489
  116SOL    HW2 2188   0.825  12.141   3.485
  117SOL     OW 2189   6.336   2.334   0.785
  117SOL    HW1 2190   6.420   2.305   0.748
  117SOL    HW2 2191   6.325   2.282   0.864
  118SOL     OW 2192  10.618   1.261   0.832
  118SOL    HW1 2193  10.610   1.250   0.927
  118SOL    HW2 2194  10.606   1.355   0.818
  119SOL     OW 2195   7.502   8.618   7.830
  119SOL    HW1 2196   7.514   8.676   7.755
  119SOL    HW2 2197   7.565   8.547   7.816
  120SOL     OW 2198  14.804   5.493  11.720
  120SOL    HW1 2199   0.000   5.538  11.754
  120SOL    HW2 2200  14.824   5.400  11.728
  121SOL     OW 2201  13.840  11.690   9.977
  121SOL    HW1 2202  13.830  11.727   9.890
  121SOL    HW2 2203  13.815  11.598   9.967
  122SOL     OW 2204  10.258   8.419  10.726
  122SOL    HW1 2205  10.268   8.330  10.759
  122SOL    HW2 2206  10.163   8.434  10.724
  123SOL     OW 2207   3.450   1.851   2.643
  123SOL    HW1 2208   3.487   1.937   2.627
  123SOL    HW2 2209   3.362   1.868   2.677
  124SOL     OW 2210   5.484   6.511   3.535
  124SOL    HW1 2211   5.503   6.553   3.452
  124SOL    HW2 2212   5.566   6.467   3.559
  125SOL     OW 2213   4.576  11.537  10.291
  125SOL    HW1 2214   4.670  11.533  10.312
  125SOL    HW2 2215   4.541  11.453  10.322
  126SOL     OW 2216   7.455   4.433   4.047
  126SOL    HW1 2217   7.431   4.345   4.077
  126SOL    HW2 2218   7.473   4.422   3.954
  127SOL     OW 2219  11.629  11.131  11.307
  127SOL    HW1 2220  11.596  11.188  11.239
  127SOL    HW2 2221  11.573  11.053  11.303
  128SOL     OW 2222  11.351   0.775  10.926
  128SOL    HW1 2223  11.398   0.850  10.890
  128SOL    HW2 2224  11.410   0.739  10.992
  129SOL     OW 2225   4.539   8.358   8.286
  129SOL    HW1 2226   4.444   8.346   8.290
  129SOL    HW2 2227   4.575   8.278   8.325
  130SOL     OW 2228   2.820   5.350   9.993
  130SOL    HW1 2229   2.823   5.256   9.980
  130SOL    HW2 2230   2.836   5.387   9.906
  131SOL     OW 2231  11.107   2.457   9.941
  131SOL    HW1 2232  11.022   2.481   9.904
  131SOL    HW2 2233  11.087   2.406  10.019
  132SOL     OW 2234  12.416   7.073   0.096
  132SOL    HW1 2235  12.397   7.065   0.190
  132SOL    HW2 2236  12.423   6.982   0.066
  133SOL     OW 2237   5.884   2.304   8.083
  133SOL    HW1 2238   5.934   2.313   8.002
  133SOL    HW2 2239   5.796   2.282   8.054
  134SOL     OW 2240   3.019   9.539  11.998
  134SOL    HW1 2241   3.113   9.547  11.987
  134SOL    HW2 2242   3.007   9.515  12.090
  135SOL     OW 2243   5.104  14.653   6.803
  135SOL    HW1 2244   5.039  14.722   6.786
  135SOL    HW2 2245   5.068  14.576   6.759
  136SOL     OW 2246   7.786   5.370   1.217
  136SOL    HW1 2247   7.833   5.434   1.271
  136SOL    HW2 2248   7.791   5.289   1.266
  137SOL     OW 2249   4.539   1.739   8.310
  137SOL    HW1 2250   4.536   1.678   8.383
  137SOL    HW2 2251   4.506   1.821   8.345
  138SOL     OW 2252  10.894  11.648   1.523
  138SOL    HW1 2253  10.801  11.659   1.507
  138SOL    HW2 2254  10.936  11.670   1.439
  139SOL     OW 2255   2.068  14.277  14.462
  139SOL    HW1 2256   2.102  14.211  14.522
  139SOL    HW2 2257   2.138  14.290  14.398
  140SOL     OW 2258   2.282  11.029   2.735
  140SOL    HW1 2259   2.349  11.080   2.689
  140SOL    HW2 2260   2.206  11.033   2.677
  141SOL     OW 2261   1.589  12.976   5.383
  141SOL    HW1 2262   1.663  12.947   5.436
  141SOL    HW2 2263   1.515  12.925   5.417
  142SOL     OW 2264  13.715   7.774  13.145
  142SOL    HW1 2265  13.637   7.823  13.170
  142SOL    HW2 2266  13.692   7.733  13.061
  143SOL     OW 2267   6.489  12.838   1.749
  143SOL    HW1 2268   6.511  12.757   1.703
  143SOL    HW2 2269   6.552  12.902   1.717
  144SOL     OW 2270   9.889  13.728   3.402
  144SOL    HW1 2271   9.857  13.723   3.492
  144SOL    HW2 2272   9.960  13.663   3.398
  145SOL     OW 2273   0.909   2.501   2.947
  145SOL    HW1 2274   0.871   2.558   3.014
  145SOL    HW2 2275   0.891   2.412   2.977
  146SOL     OW 2276   5.961   8.796   3.701
  146SOL    HW1 2277   6.025   8.784   3.632
  146SOL    HW2 2278   5.964   8.715   3.752
  147SOL     OW 2279   4.418   7.017   9.421
  147SOL    HW1 2280   4.454   7.071   9.351
  147SOL    HW2 2281   4.476   6.941   9.425
  148SOL     OW 2282  11.245  11.167  11.958
  148SOL    HW1 2283  11.208  11.082  11.936
  148SOL    HW2 2284  11.203  11.229  11.898
  149SOL     OW 2285  11.198  11.716   4.832
  149SOL    HW1 2286  11.286  11.750   4.852
  149SOL    HW2 2287  11.213  11.625   4.807
  150SOL     OW 2288  14.074  11.915  12.231
  150SOL    HW1 2289  14.169  11.900  12.227
  150SOL    HW2 2290  14.045  11.865  12.307
  151SOL     OW 2291  11.199   3.930   5.778
  151SOL    HW1 2292  11.244   3.845   5.783
  151SOL    HW2 2293  11.262   3.988   5.735
  152SOL     OW 2294   4.481  13.054  13.762
  152SOL    HW1 2295   4.509  13.090  13.678
  152SOL    HW2 2296   4.465  13.131  13.817
  153SOL     OW 2297  12.551   3.819   4.985
  153SOL    HW1 2298  12.591   3.740   5.021
  153SOL    HW2 2299  12.460   3.815   5.014
  154SOL     OW 2300  12.101  10.485   9.492
  154SOL    HW1 2301  12.057  10.547   9.435
  154SOL    HW2 2302  12.126  10.412   9.435
  155SOL     OW 2303  11.725   8.131   1.476
  155SOL    HW1 2304  11.776   8.109   1.399
  155SOL    HW2 2305  11.733   8.055   1.533
  156SOL     OW 2306   2.509   6.381  12.978
  156SOL    HW1 2307   2.570   6.454  12.990
  156SOL    HW2 2308   2.474   6.393  12.890
  157SOL     OW 2309  13.516   1.627  13.076
  157SOL    HW1 2310  13.532   1.718  13.103
  157SOL    HW2 2311  13.427   1.609  13.106
  158SOL     OW 2312  11.844   3.996  14.581
  158SOL    HW1 2313  11.768   3.946  14.551
  158SOL    HW2 2314  11.917   3.934  14.580
  159SOL     OW 2315   6.716   7.387   1.405
  159SOL    HW1 2316   6.639   7.332   1.386
  159SOL    HW2 2317   6.717   7.451   1.333
  160SOL     OW 2318   7.378   9.469  10.979
  160SOL    HW1 2319   7.471   9.449  10.988
  160SOL    HW2 2320   7.336   9.418  11.048
  161SOL     OW 2321   9.666   2.498   3.468
  161SOL    HW1 2322   9.646   2.415   3.510
  161SOL    HW2 2323   9.721   2.544   3.531
  162SOL     OW 2324   5.035  13.762   4.094
  162SOL    HW1 2325   4.980  13.834   4.065
  162SOL    HW2 2326   5.097  13.748   4.023
  163SOL     OW 2327   2.069  13.138   8.825
  163SOL    HW1 2328   1.987  13.154   8.778
  163SOL    HW2 2329   2.076  13.211   8.887
  164SOL     OW 2330  11.251  13.813   7.692
  164SOL    HW1 2331  11.290  13.826   7.778
  164SOL    HW2 2332  11.242  13.902   7.656
  165SOL     OW 2333   6.684  13.047   7.985
  165SOL    HW1 2334   6.692  13.022   8.077
  165SOL    HW2 2335   6.597  13.017   7.960
  166SOL     OW 2336   5.474   3.498   4.156
  166SOL    HW1 2337   5.404   3.435   4.171
  166SOL    HW2 2338   5.457   3.533   4.069
  167SOL     OW 2339   6.930   1.946  10.477
  167SOL    HW1 2340   7.014   1.951  10.523
  167SOL    HW2 2341   6.940   2.006  10.403
  168SOL     OW 2342   7.782   5.454   3.750
  168SOL    HW1 2343   7.711   5.434   3.689
  168SOL    HW2 2344   7.811   5.542   3.724
  169SOL     OW 2345  14.656   6.040   4.948
  169SOL    HW1 2346  14.735   6.009   4.904
  169SOL    HW2 2347  14.618   5.962   4.988
  170SOL     OW 2348   4.488   9.954   8.882
  170SOL    HW1 2349   4.576   9.993   8.882
  170SOL    HW2 2350   4.441  10.000   8.952
  171SOL     OW 2351   9.059   0.607  14.091
  171SOL    HW1 2352   9.028   0.693  14.119
  171SOL    HW2 2353   9.019   0.545  14.152
  172SOL     OW 2354   8.367  13.688  10.044
  172SOL    HW1 2355   8.383  13.728  10.129
  172SOL    HW2 2356   8.442  13.629  10.031
  173SOL     OW 2357  10.963  11.191  10.969
  173SOL    HW1 2358  10.960  11.212  11.063
  173SOL    HW2 2359  10.909  11.112  10.961
  174SOL     OW 2360   9.463   1.085   9.314
  174SOL    HW1 2361   9.445   1.174   9.283
  174SOL    HW2 2362   9.451   1.029   9.237
  175SOL     OW 2363   0.981   3.513   4.196
  175SOL    HW1 2364   0.898   3.467   4.187
  175SOL    HW2 2365   0.984   3.538   4.289
  176SOL     OW 2366   2.400   9.498   2.820
  176SOL    HW1 2367   2.426   9.551   2.745
  176SOL    HW2 2368   2.448   9.416   2.811
  177SOL     OW 2369   5.290   3.532   9.818
  177SOL    HW1 2370   5.213   3.483   9.848
  177SOL    HW2 2371   5.340   3.549   9.898
  178SOL     OW 2372   1.527  12.402   6.810
  178SOL    HW1 2373   1.565  12.490   6.795
  178SOL    HW2 2374   1.593  12.357   6.863
  179SOL     OW 2375   2.138   9.101  12.556
  179SOL    HW1 2376   2.144   9.060  12.470
  179SOL    HW2 2377   2.179   9.187  12.544
  180SOL     OW 2378   8.939   7.552  14.881
  180SOL    HW1 2379   8.884   7.619  14.840
  180SOL    HW2 2380   9.023   7.559  14.837
  181SOL     OW 2381   2.486   9.025   1.181
  181SOL    HW1 2382   2.440   9.095   1.134
  181SOL    HW2 2383   2.416   8.976   1.224
  182SOL     OW 2384   7.595   3.025  13.696
  182SOL    HW1 2385   7.564   2.960  13.634
  182SOL    HW2 2386   7.680   3.052  13.662
  183SOL     OW 2387   8.026   5.408  14.512
  183SOL    HW1 2388   7.949   5.400  14.456
  183SOL    HW2 2389   8.090   5.349  14.474
  184SOL     OW 2390  13.347   5.054   2.347
  184SOL    HW1 2391  13.266   5.058   2.296
  184SOL    HW2 2392  13.386   4.969   2.324
  185SOL     OW 2393  11.473   4.557  12.391
  185SOL    HW1 2394  11.470   4.508  12.309
  185SOL    HW2 2395  11.528   4.633  12.371
  186SOL     OW 2396   8.171   4.889   6.044
  186SOL    HW1 2397   8.154   4.973   6.087
  186SOL    HW2 2398   8.264   4.872   6.060
  187SOL     OW 2399  14.000   4.011  13.251
  187SOL    HW1 2400  13.987   4.058  13.333
  187SOL    HW2 2401  13.986   3.919  13.273
  188SOL     OW 2402  11.648  13.801   6.160
  188SOL    HW1 2403  11.574  13.832   6.108
  188SOL    HW2 2404  11.705  13.757   6.096
  189SOL     OW 2405  13.676   7.570  14.519
  189SOL    HW1 2406  13.590   7.568  14.562
  189SOL    HW2 2407  13.726   7.501  14.562
  190SOL     OW 2408   7.991  14.318  10.352
  190SOL    HW1 2409   7.937  14.243  10.379
  190SOL    HW2 2410   7.929  14.377  10.309
  191SOL     OW 2411   8.317   9.398   8.830
  191SOL    HW1 2412   8.393   9.453   8.811
  191SOL    HW2 2413   8.266   9.399   8.749
  192SOL     OW 2414  14.346   8.245  10.436
  192SOL    HW1 2415  14.408   8.309  10.472
  192SOL    HW2 2416  14.263   8.292  10.429
  193SOL     OW 2417   7.102   4.831   1.497
  193SOL    HW1 2418   7.141   4.888   1.431
  193SOL    HW2 2419   7.171   4.819   1.562
  194SOL     OW 2420   8.648   3.571   3.533
  194SOL    HW1 2421   8.714   3.525   3.585
  194SOL    HW2 2422   8.586   3.504   3.506
  195SOL     OW 2423   6.204  14.221   6.033
  195SOL    HW1 2424   6.194  14.229   6.127
  195SOL    HW2 2425   6.179  14.131   6.013
  196SOL     OW 2426  10.561  13.427   1.436
  196SOL    HW1 2427  10.590  13.472   1.516
  196SOL    HW2 2428  10.479  13.384   1.462
  197SOL     OW 2429   0.962  10.324   0.424
  197SOL    HW1 2430   1.010  10.326   0.341
  197SOL    HW2 2431   0.924  10.237   0.428
  198SOL     OW 2432  11.606  10.520  14.677
  198SOL    HW1 2433  11.657  10.571  14.740
  198SOL    HW2 2434  11.560  10.455  14.730
  199SOL     OW 2435  10.112  11.748  12.943
  199SOL    HW1 2436  10.145  11.772  12.856
  199SOL    HW2 2437  10.018  11.767  12.939
  200SOL     OW 2438  13.757   9.822  12.864
  200SOL    HW1 2439  13.678   9.821  12.918
  200SOL    HW2 2440  13.767   9.913  12.836
  201SOL     OW 2441  13.274   1.834   7.973
  201SOL    HW1 2442  13.286   1.900   8.042
  201SOL    HW2 2443  13.204   1.777   8.005
  202SOL     OW 2444  13.203   3.391   6.583
  202SOL    HW1 2445  13.185   3.466   6.640
  202SOL    HW2 2446  13.298   3.394   6.570
  203SOL     OW 2447   4.356   8.055   7.707
  203SOL    HW1 2448   4.431   8.053   7.766
  203SOL    HW2 2449   4.279   8.046   7.763
  204SOL     OW 2450   5.807  12.706   5.353
  204SOL    HW1 2451   5.881  12.717   5.293
  204SOL    HW2 2452   5.826  12.623   5.397
  205SOL     OW 2453   5.669   6.997  12.755
  205SOL    HW1 2454   5.690   7.088  12.737
  205SOL    HW2 2455   5.627   6.998  12.841
  206SOL     OW 2456  11.519   8.637   6.056
  206SOL    HW1 2457  11.532   8.717   6.107
  206SOL    HW2 2458  11.607   8.602   6.043
  207SOL     OW 2459  11.803  11.247  12.456
  207SOL    HW1 2460  11.773  11.156  12.460
  207SOL    HW2 2461  11.728  11.295  12.420
  208SOL     OW 2462  10.168  13.420   7.450
  208SOL    HW1 2463  10.205  13.335   7.475
  208SOL    HW2 2464  10.123  13.403   7.367
  209SOL     OW 2465  14.739   6.049   9.095
  209SOL    HW1 2466  14.758   5.987   9.165
  209SOL    HW2 2467  14.814   6.108   9.094
  210SOL     OW 2468   6.534  10.835  11.230
  210SOL    HW1 2469   6.545  10.743  11.254
  210SOL    HW2 2470   6.574  10.883  11.302
  211SOL     OW 2471   4.064   0.347   1.653
  211SOL    HW1 2472   4.013   0.294   1.714
  211SOL    HW2 2473   4.044   0.437   1.677
  212SOL     OW 2474  11.213   8.364   0.982
  212SOL    HW1 2475  11.129   8.376   1.028
  212SOL    HW2 2476  11.189   8.323   0.899
  213SOL     OW 2477  10.584   7.351   5.491
  213SOL    HW1 2478  10.626   7.267   5.473
  213SOL    HW2 2479  10.494   7.328   5.517
  214SOL     OW 2480   9.201  12.597  13.404
  214SOL    HW1 2481   9.138  12.638  13.462
  214SOL    HW2 2482   9.274  12.659  13.399
  215SOL     OW 2483   9.826   2.337  14.007
  215SOL    HW1 2484   9.778   2.302  13.932
  215SOL    HW2 2485   9.776   2.307  14.083
  216SOL     OW 2486  12.557   7.978   9.160
  216SOL    HW1 2487  12.591   8.067   9.166
  216SOL    HW2 2488  12.481   7.986   9.102
  217SOL     OW 2489   7.490  13.083  10.005
  217SOL    HW1 2490   7.466  12.999  10.043
  217SOL    HW2 2491   7.542  13.061   9.928
  218SOL     OW 2492   3.240  12.846  14.696
  218SOL    HW1 2493   3.177  12.847  14.624
  218SOL    HW2 2494   3.311  12.903  14.665
  219SOL     OW 2495  13.656   3.470  12.432
  219SOL    HW1 2496  13.733   3.430  12.472
  219SOL    HW2 2497  13.691   3.534  12.370
  220SOL     OW 2498   5.663   8.957  13.383
  220SOL    HW1 2499   5.570   8.957  13.363
  220SOL    HW2 2500   5.671   9.010  13.462
  221SOL     OW 2501  14.445   6.466   8.431
  221SOL    HW1 2502  14.519   6.420   8.392
  221SOL    HW2 2503  14.479   6.497   8.515
  222SOL     OW 2504  12.280  12.113   2.338
  222SOL    HW1 2505  12.192  12.096   2.305
  222SOL    HW2 2506  12.325  12.156   2.265
  223SOL     OW 2507   8.042   7.921   8.749
  223SOL    HW1 2508   8.111   7.862   8.719
  223SOL    HW2 2509   7.996   7.871   8.817
  224SOL     OW 2510   0.586  10.940   7.079
  224SOL    HW1 2511   0.540  11.016   7.114
  224SOL    HW2 2512   0.554  10.931   6.990
  225SOL     OW 2513  10.126  12.027  12.423
  225SOL    HW1 2514  10.074  11.958  12.382
  225SOL    HW2 2515  10.101  12.106  12.375
  226SOL     OW 2516  11.168  11.082  13.282
  226SOL    HW1 2517  11.122  11.141  13.342
  226SOL    HW2 2518  11.228  11.032  13.338
  227SOL     OW 2519   1.545   2.302   5.234
  227SOL    HW1 2520   1.471   2.306   5.295
  227SOL    HW2 2521   1.616   2.346   5.280
  228SOL     OW 2522   9.221   8.449  12.770
  228SOL    HW1 2523   9.248   8.370  12.724
  228SOL    HW2 2524   9.126   8.439  12.782
  229SOL     OW 2525   7.351  12.732   0.608
  229SOL    HW1 2526   7.291  12.747   0.535
  229SOL    HW2 2527   7.436  12.718   0.567
  230SOL     OW 2528   8.912   8.059  14.535
  230SOL    HW1 2529   8.863   8.135  14.568
  230SOL    HW2 2530   8.993   8.059  14.586
  231SOL     OW 2531  11.077  12.116   1.983
  231SOL    HW1 2532  11.068  12.167   2.063
  231SOL    HW2 2533  11.158  12.067   1.995
  232SOL     OW 2534   2.420   9.624  10.621
  232SOL    HW1 2535   2.457   9.602  10.706
  232SOL    HW2 2536   2.494   9.653  10.569
  233SOL     OW 2537   1.593   8.782   2.340
  233SOL    HW1 2538   1.623   8.769   2.250
  233SOL    HW2 2539   1.543   8.863   2.338
  234SOL     OW 2540   7.839   0.954  13.360
  234SOL    HW1 2541   7.767   0.893  13.375
  234SOL    HW2 2542   7.840   1.009  13.438
  235SOL     OW 2543   1.505  13.205   4.039
  235SOL    HW1 2544   1.526  13.297   4.055
  235SOL    HW2 2545   1.590  13.160   4.043
  236SOL     OW 2546   5.073   5.234  12.522
  236SOL    HW1 2547   4.987   5.210  12.555
  236SOL    HW2 2548   5.095   5.315  12.569
  237SOL     OW 2549  14.454   4.738  10.228
  237SOL    HW1 2550  14.468   4.831  10.210
  237SOL    HW2 2551  14.363   4.722  10.203
  238SOL     OW 2552   7.566   0.672  14.273
  238SOL    HW1 2553   7.520   0.690  14.191
  238SOL    HW2 2554   7.650   0.635  14.247
  239SOL     OW 2555   5.766  14.395   7.471
  239SOL    HW1 2556   5.787  14.332   7.402
  239SOL    HW2 2557   5.670  14.399   7.471
  240SOL     OW 2558  12.061   1.867  14.254
  240SOL    HW1 2559  12.100   1.837  14.172
  240SOL    HW2 2560  12.001   1.937  14.228
  241SOL     OW 2561   7.891   8.548  14.804
  241SOL    HW1 2562   7.855   8.583   0.004
  241SOL    HW2 2563   7.847   8.598  14.735
  242SOL     OW 2564   6.495  12.060   6.352
  242SOL    HW1 2565   6.560  12.108   6.403
  242SOL    HW2 2566   6.520  11.968   6.361
  243SOL     OW 2567   1.506   1.972   7.855
  243SOL    HW1 2568   1.458   1.971   7.772
  243SOL    HW2 2569   1.450   1.922   7.915
  244SOL     OW 2570  14.246   2.022   6.153
  244SOL    HW1 2571  14.210   2.012   6.241
  244SOL    HW2 2572  14.278   2.112   6.150
  245SOL     OW 2573   9.892  10.422  10.828
  245SOL    HW1 2574   9.934  10.362  10.768
  245SOL    HW2 2575   9.817  10.456  10.779
  246SOL     OW 2576  12.132  10.530   7.313
  246SOL    HW1 2577  12.201  10.479   7.270
  246SOL    HW2 2578  12.157  10.531   7.406
  247SOL     OW 2579   9.145   4.809   2.732
  247SOL    HW1 2580   9.056   4.833   2.755
  247SOL    HW2 2581   9.187   4.892   2.710
  248SOL     OW 2582   9.323   8.990   5.299
  248SOL    HW1 2583   9.270   9.065   5.325
  248SOL    HW2 2584   9.291   8.966   5.212
  249SOL     OW 2585   1.325   4.539  13.932
  249SOL    HW1 2586   1.274   4.506  13.858
  249SOL    HW2 2587   1.263   4.542  14.004
  250SOL     OW 2588   7.301   3.309  12.502
  250SOL    HW1 2589   7.360   3.275  12.434
  250SOL    HW2 2590   7.316   3.404  12.501
  251SOL     OW 2591  11.559  10.947  14.714
  251SOL    HW1 2592  11.578  11.029  14.669
  251SOL    HW2 2593  11.464  10.940  14.712
  252SOL     OW 2594  13.754   0.967   7.119
  252SOL    HW1 2595  13.845   0.991   7.104
  252SOL    HW2 2596  13.726   0.926   7.037
  253SOL     OW 2597   2.461  10.626  12.568
  253SOL    HW1 2598   2.516  10.549  12.559
  253SOL    HW2 2599   2.470  10.651  12.660
  254SOL     OW 2600  12.264   0.088   4.750
  254SOL    HW1 2601  12.199   0.092   4.819
  254SOL    HW2 2602  12.229   0.024   4.688
  255SOL     OW 2603  12.631   1.156   5.674
  255SOL    HW1 2604  12.655   1.197   5.757
  255SOL    HW2 2605  12.584   1.225   5.626
  256SOL     OW 2606   2.408  10.377  10.767
  256SOL    HW1 2607   2.497  10.395  10.740
  256SOL    HW2 2608   2.370  10.328  10.695
  257SOL     OW 2609   0.335   1.713   7.202
  257SOL    HW1 2610   0.324   1.804   7.227
  257SOL    HW2 2611   0.372   1.670   7.279
  258SOL     OW 2612   9.066   9.259  10.757
  258SOL    HW1 2613   8.996   9.304  10.709
  258SOL    HW2 2614   9.038   9.167  10.757
  259SOL     OW 2615   8.165  14.878   4.044
  259SOL    HW1 2616   8.207  14.793   4.054
  259SOL    HW2 2617   8.225   0.057   4.087
  260SOL     OW 2618  11.620  10.722   2.024
  260SOL    HW1 2619  11.676  10.792   1.990
  260SOL    HW2 2620  11.621  10.655   1.955
  261SOL     OW 2621   1.610   2.228   9.502
  261SOL    HW1 2622   1.682   2.262   9.449
  261SOL    HW2 2623   1.534   2.229   9.444
  262SOL     OW 2624   8.496   7.999  14.855
  262SOL    HW1 2625   8.531   8.082  14.824
  262SOL    HW2 2626   8.492   8.008   0.068
  263SOL     OW 2627   0.830   6.198  13.886
  263SOL    HW1 2628   0.807   6.114  13.847
  263SOL    HW2 2629   0.819   6.185  13.980
  264SOL     OW 2630   9.105   2.072   5.504
  264SOL    HW1 2631   9.067   1.987   5.482
  264SOL    HW2 2632   9.195   2.067   5.471
  265SOL     OW 2633  13.642   4.537   6.045
  265SOL    HW1 2634  13.706   4.602   6.015
  265SOL    HW2 2635  13.667   4.519   6.136
  266SOL     OW 2636   6.358  11.966   9.036
  266SOL    HW1 2637   6.360  11.878   8.998
  266SOL    HW2 2638   6.384  12.024   8.964
  267SOL     OW 2639   0.325   6.469   6.126
  267SOL    HW1 2640   0.379   6.514   6.062
  267SOL    HW2 2641   0.337   6.376   6.106
  268SOL     OW 2642   7.841   3.277   3.744
  268SOL    HW1 2643   7.917   3.326   3.776
  268SOL    HW2 2644   7.766   3.333   3.764
  269SOL     OW 2645  10.574   3.015   0.607
  269SOL    HW1 2646  10.634   2.942   0.622
  269SOL    HW2 2647  10.572   3.061   0.691
  270SOL     OW 2648   0.186   3.948   7.339
  270SOL    HW1 2649   0.098   3.935   7.305
  270SOL    HW2 2650   0.178   4.021   7.400
  271SOL     OW 2651   4.714   6.758  11.646
  271SOL    HW1 2652   4.703   6.849  11.619
  271SOL    HW2 2653   4.750   6.715  11.569
  272SOL     OW 2654  11.460   9.823  12.377
  272SOL    HW1 2655  11.428   9.839  12.466
  272SOL    HW2 2656  11.400   9.757  12.342
  273SOL     OW 2657   4.768   4.082  12.076
  273SOL    HW1 2658   4.809   4.054  11.994
  273SOL    HW2 2659   4.787   4.176  12.081
  274SOL     OW 2660  11.844   8.923  13.438
  274SOL    HW1 2661  11.870   8.986  13.371
  274SOL    HW2 2662  11.886   8.954  13.518
  275SOL     OW 2663   1.053   7.837   2.603
  275SOL    HW1 2664   0.985   7.791   2.554
  275SOL    HW2 2665   1.006   7.882   2.673
  276SOL     OW 2666  11.368   8.486  11.130
  276SOL    HW1 2667  11.310   8.493  11.205
  276SOL    HW2 2668  11.393   8.577  11.110
  277SOL     OW 2669   2.125   0.612  13.745
  277SOL    HW1 2670   2.185   0.684  13.764
  277SOL    HW2 2671   2.051   0.654  13.700
  278SOL     OW 2672   7.192  14.438  11.536
  278SOL    HW1 2673   7.108  14.430  11.489
  278SOL    HW2 2674   7.257  14.407  11.473
  279SOL     OW 2675   7.913   2.678  13.576
  279SOL    HW1 2676   7.919   2.621  13.652
  279SOL    HW2 2677   7.973   2.750  13.594
  280SOL     OW 2678   4.492   6.153   0.202
  280SOL    HW1 2679   4.522   6.172   0.113
  280SOL    HW2 2680   4.543   6.212   0.257
  281SOL     OW 2681   1.371  14.454   8.322
  281SOL    HW1 2682   1.423  14.534   8.307
  281SOL    HW2 2683   1.320  14.444   8.241
  282SOL     OW 2684   7.571   1.876  13.944
  282SOL    HW1 2685   7.585   1.918  13.860
  282SOL    HW2 2686   7.653   1.889  13.992
  283SOL     OW 2687   0.983   3.337   0.573
  283SOL    HW1 2688   0.974   3.428   0.602
  283SOL    HW2 2689   1.056   3.339   0.510
  284SOL     OW 2690   8.212   8.885   0.543
  284SOL    HW1 2691   8.266   8.920   0.472
  284SOL    HW2 2692   8.125   8.873   0.504
  285SOL     OW 2693  12.515   9.924   6.891
  285SOL    HW1 2694  12.578   9.910   6.820
  285SOL    HW2 2695  12.531  10.014   6.920
  286SOL     OW 2696   6.167   0.536   4.974
  286SOL    HW1 2697   6.112   0.516   4.899
  286SOL    HW2 2698   6.257   0.532   4.939
  287SOL     OW 2699   2.803   3.680  13.761
  287SOL    HW1 2700   2.873   3.689  13.825
  287SOL    HW2 2701   2.742   3.618  13.800
  288SOL     OW 2702   6.534  12.341   7.256
  288SOL    HW1 2703   6.584  12.297   7.325
  288SOL    HW2 2704   6.596  12.403   7.217
  289SOL     OW 2705  12.956  12.256   4.674
  289SOL    HW1 2706  13.000  12.174   4.653
  289SOL    HW2 2707  13.024  12.323   4.663
  290SOL     OW 2708  13.668  12.344   3.664
  290SOL    HW1 2709  13.645  12.252   3.667
  290SOL    HW2 2710  13.697  12.365   3.753
  291SOL     OW 2711  14.202  13.591   2.161
  291SOL    HW1 2712  14.154  13.567   2.240
  291SOL    HW2 2713  14.236  13.679   2.179
  292SOL     OW 2714   9.095  13.615  11.681
  292SOL    HW1 2715   9.177  13.575  11.652
  292SOL    HW2 2716   9.074  13.678  11.613
  293SOL     OW 2717  12.683   6.598   4.416
  293SOL    HW1 2718  12.749   6.611   4.348
  293SOL    HW2 2719  12.614   6.547   4.373
  294SOL     OW 2720   9.882   0.582  13.254
  294SOL    HW1 2721   9.870   0.521  13.181
  294SOL    HW2 2722   9.814   0.556  13.317
  295SOL     OW 2723   5.723  10.596   7.732
  295SOL    HW1 2724   5.749  10.645   7.810
  295SOL    HW2 2725   5.729  10.504   7.757
  296SOL     OW 2726  14.457  12.818  14.498
  296SOL    HW1 2727  14.551  12.824  14.481
  296SOL    HW2 2728  14.423  12.765  14.425
  297SOL     OW 2729   5.520   8.052   7.971
  297SOL    HW1 2730   5.551   8.120   7.911
  297SOL    HW2 2731   5.600   8.016   8.009
  298SOL     OW 2732   0.013  11.660   3.609
  298SOL    HW1 2733  14.813  11.643   3.563
  298SOL    HW2 2734  14.868  11.689   3.696
  299SOL     OW 2735   7.795   9.385   4.097
  299SOL    HW1 2736   7.758   9.417   4.179
  299SOL    HW2 2737   7.840   9.461   4.060
  300SOL     OW 2738   0.323  12.365   9.023
  300SOL    HW1 2739   0.332  12.273   9.048
  300SOL    HW2 2740   0.400  12.407   9.061
  301SOL     OW 2741  14.778   4.405   4.543
  301SOL    HW1 2742  14.814   4.378   4.628
  301SOL    HW2 2743  14.700   4.456   4.564
  302SOL     OW 2744   0.236  14.261   6.572
  302SOL    HW1 2745   0.260  14.169   6.578
  302SOL    HW2 2746   0.317  14.308   6.590
  303SOL     OW 2747   6.755   1.516  13.127
  303SOL    HW1 2748   6.793   1.437  13.087
  303SOL    HW2 2749   6.689   1.482  13.188
  304SOL     OW 2750   2.276   4.221   1.168
  304SOL    HW1 2751   2.230   4.228   1.251
  304SOL    HW2 2752   2.316   4.307   1.154
  305SOL     OW 2753   4.527   2.182  10.547
  305SOL    HW1 2754   4.542   2.251  10.482
  305SOL    HW2 2755   4.612   2.139  10.556
  306SOL     OW 2756   8.050   6.199  13.629
  306SOL    HW1 2757   7.986   6.188  13.558
  306SOL    HW2 2758   8.016   6.145  13.700
  307SOL     OW 2759   4.150   6.418   5.793
  307SOL    HW1 2760   4.063   6.441   5.825
  307SOL    HW2 2761   4.176   6.343   5.846
  308SOL     OW 2762  11.904  14.807   3.458
  308SOL    HW1 2763  11.952  14.790   3.377
  308SOL    HW2 2764  11.959  14.868   3.506
  309SOL     OW 2765  11.560   8.981  11.104
  309SOL    HW1 2766  11.643   9.025  11.121
  309SOL    HW2 2767  11.500   9.050  11.078
  310SOL     OW 2768   1.930   5.423   2.881
  310SOL    HW1 2769   1.962   5.501   2.925
  310SOL    HW2 2770   1.910   5.452   2.792
  311SOL     OW 2771   9.390   4.206   5.179
  311SOL    HW1 2772   9.483   4.185   5.171
  311SOL    HW2 2773   9.368   4.253   5.098
  312SOL     OW 2774   1.589  13.833   5.745
  312SOL    HW1 2775   1.650  13.876   5.805
  312SOL    HW2 2776   1.504  13.839   5.788
  313SOL     OW 2777   0.697   6.299   7.627
  313SOL    HW1 2778   0.780   6.333   7.593
  313SOL    HW2 2779   0.723   6.229   7.687
  314SOL     OW 2780  12.280   6.655  10.594
  314SOL    HW1 2781  12.332   6.725  10.554
  314SOL    HW2 2782  12.295   6.579  10.539
  315SOL     OW 2783  12.225   8.752  14.759
  315SOL    HW1 2784  12.277   8.671  14.759
  315SOL    HW2 2785  12.209   8.771  14.667
  316SOL     OW 2786   2.402   5.201   3.597
  316SOL    HW1 2787   2.336   5.139   3.565
  316SOL    HW2 2788   2.422   5.257   3.522
  317SOL     OW 2789  12.633   4.182   3.663
  317SOL    HW1 2790  12.663   4.265   3.624
  317SOL    HW2 2791  12.620   4.202   3.755
  318SOL     OW 2792   9.667   7.548   1.487
  318SOL    HW1 2793   9.632   7.631   1.517
  318SOL    HW2 2794   9.708   7.509   1.564
  319SOL     OW 2795  11.548   7.261   1.175
  319SOL    HW1 2796  11.502   7.306   1.246
  319SOL    HW2 2797  11.637   7.296   1.179
  320SOL     OW 2798   3.299  10.218   1.294
  320SOL    HW1 2799   3.208  10.193   1.287
  320SOL    HW2 2800   3.331  10.174   1.373
  321SOL     OW 2801   0.084   3.417   9.486
  321SOL    HW1 2802   0.100   3.511   9.499
  321SOL    HW2 2803   0.127   3.375   9.560
  322SOL     OW 2804   2.051  13.825   1.151
  322SOL    HW1 2805   2.026  13.733   1.152
  322SOL    HW2 2806   2.035  13.853   1.061
  323SOL     OW 2807   6.287   6.461   0.925
  323SOL    HW1 2808   6.286   6.367   0.945
  323SOL    HW2 2809   6.310   6.466   0.832
  324SOL     OW 2810   3.496  10.662   2.805
  324SOL    HW1 2811   3.579  10.705   2.784
  324SOL    HW2 2812   3.429  10.729   2.788
  325SOL     OW 2813   9.578   6.946   3.433
  325SOL    HW1 2814   9.614   7.035   3.441
  325SOL    HW2 2815   9.559   6.920   3.522
  326SOL     OW 2816  11.324   7.311  12.594
  326SOL    HW1 2817  11.364   7.308  12.681
  326SOL    HW2 2818  11.343   7.399  12.562
  327SOL     OW 2819   2.358   5.128  10.146
  327SOL    HW1 2820   2.326   5.074  10.073
  327SOL    HW2 2821   2.415   5.192  10.104
  328SOL     OW 2822  14.238   0.300   8.148
  328SOL    HW1 2823  14.299   0.365   8.114
  328SOL    HW2 2824  14.204   0.339   8.229
  329SOL     OW 2825   6.615   7.096   0.257
  329SOL    HW1 2826   6.637   7.136   0.341
  329SOL    HW2 2827   6.668   7.143   0.193
  330SOL     OW 2828   6.609   4.310   8.463
  330SOL    HW1 2829   6.644   4.221   8.455
  330SOL    HW2 2830   6.668   4.364   8.411
  331SOL     OW 2831   9.993  13.794   9.016
  331SOL    HW1 2832  10.079  13.826   8.989
  331SOL    HW2 2833   9.996  13.793   9.112
  332SOL     OW 2834   1.543  13.812   1.341
  332SOL    HW1 2835   1.602  13.883   1.314
  332SOL    HW2 2836   1.458  13.854   1.350
  333SOL     OW 2837   5.829  13.455   9.519
  333SOL    HW1 2838   5.842  13.426   9.609
  333SOL    HW2 2839   5.811  13.548   9.526
  334SOL     OW 2840   4.285   4.536  10.765
  334SOL    HW1 2841   4.351   4.486  10.814
  334SOL    HW2 2842   4.203   4.490  10.781
  335SOL     OW 2843   1.930   1.516   0.434
  335SOL    HW1 2844   1.857   1.460   0.460
  335SOL    HW2 2845   1.969   1.472   0.359
  336SOL     OW 2846   4.974  10.327   5.726
  336SOL    HW1 2847   5.014  10.331   5.813
  336SOL    HW2 2848   4.964  10.233   5.709
  337SOL     OW 2849   5.210   6.052   1.945
  337SOL    HW1 2850   5.188   6.115   2.014
  337SOL    HW2 2851   5.283   6.002   1.981
  338SOL     OW 2852  13.434  10.085  12.159
  338SOL    HW1 2853  13.439  10.169  12.113
  338SOL    HW2 2854  13.355  10.043  12.124
  339SOL     OW 2855   5.646   4.824   4.734
  339SOL    HW1 2856   5.575   4.876   4.771
  339SOL    HW2 2857   5.711   4.819   4.803
  340SOL     OW 2858  12.433   6.322   6.176
  340SOL    HW1 2859  12.385   6.375   6.112
  340SOL    HW2 2860  12.366   6.279   6.228
  341SOL     OW 2861   4.270   0.293   6.645
  341SOL    HW1 2862   4.212   0.297   6.569
  341SOL    HW2 2863   4.308   0.381   6.650
  342SOL     OW 2864  12.986   5.762   9.569
  342SOL    HW1 2865  13.043   5.693   9.604
  342SOL    HW2 2866  13.019   5.842   9.608
  343SOL     OW 2867  11.660  12.250  13.869
  343SOL    HW1 2868  11.717  12.293  13.934
  343SOL    HW2 2869  11.576  12.293  13.879
  344SOL     OW 2870   2.478  14.003   5.216
  344SOL    HW1 2871   2.524  13.928   5.254
  344SOL    HW2 2872   2.424  13.964   5.146
  345SOL     OW 2873  12.818   7.452   3.187
  345SOL    HW1 2874  12.823   7.356   3.192
  345SOL    HW2 2875  12.906   7.482   3.211
  346SOL     OW 2876   6.396   3.341  12.392
  346SOL    HW1 2877   6.348   3.258  12.392
  346SOL    HW2 2878   6.486   3.317  12.413
  347SOL     OW 2879  11.672   6.311   4.290
  347SOL    HW1 2880  11.703   6.293   4.379
  347SOL    HW2 2881  11.577   6.307   4.296
  348SOL     OW 2882   3.940   9.888   5.612
  348SOL    HW1 2883   3.942   9.858   5.521
  348SOL    HW2 2884   3.916   9.981   5.606
  349SOL     OW 2885   4.257   5.667   0.545
  349SOL    HW1 2886   4.207   5.612   0.606
  349SOL    HW2 2887   4.191   5.699   0.483
  350SOL     OW 2888   2.577   3.418  14.547
  350SOL    HW1 2889   2.488   3.453  14.547
  350SOL    HW2 2890   2.575   3.344  14.608
  351SOL     OW 2891   2.915   1.445   3.604
  351SOL    HW1 2892   2.957   1.361   3.583
  351SOL    HW2 2893   2.822   1.425   3.604
  352SOL     OW 2894   6.629   7.337   4.908
  352SOL    HW1 2895   6.584   7.419   4.931
  352SOL    HW2 2896   6.712   7.342   4.956
  353SOL     OW 2897   6.816   9.913  10.697
  353SOL    HW1 2898   6.766   9.878  10.623
  353SOL    HW2 2899   6.766   9.990  10.725
  354SOL     OW 2900   8.208  10.679   5.004
  354SOL    HW1 2901   8.138  10.676   5.069
  354SOL    HW2 2902   8.286  10.704   5.054
  355SOL     OW 2903   5.389   8.557   8.359
  355SOL    HW1 2904   5.420   8.594   8.276
  355SOL    HW2 2905   5.368   8.634   8.413
  356SOL     OW 2906  12.093   9.725   2.172
  356SOL    HW1 2907  12.127   9.793   2.114
  356SOL    HW2 2908  12.000   9.717   2.148
  357SOL     OW 2909   5.021  10.046   7.773
  357SOL    HW1 2910   5.027  10.098   7.853
  357SOL    HW2 2911   5.111  10.020   7.754
  358SOL     OW 2912   1.391  14.312   2.826
  358SOL    HW1 2913   1.349  14.273   2.902
  358SOL    HW2 2914   1.439  14.240   2.785
  359SOL     OW 2915  13.165  14.027  14.270
  359SOL    HW1 2916  13.102  13.980  14.215
  359SOL    HW2 2917  13.207  13.959  14.322
  360SOL     OW 2918   2.527   6.651  12.023
  360SOL    HW1 2919   2.457   6.715  12.019
  360SOL    HW2 2920   2.565   6.662  12.111
  361SOL     OW 2921   4.237  12.951   6.342
  361SOL    HW1 2922   4.174  12.880   6.327
  361SOL    HW2 2923   4.276  12.967   6.256
  362SOL     OW 2924  12.936   9.076  11.439
  362SOL    HW1 2925  12.935   9.032  11.354
  362SOL    HW2 2926  13.022   9.056  11.475
  363SOL     OW 2927   2.233   7.028   5.943
  363SOL    HW1 2928   2.223   7.038   5.848
  363SOL    HW2 2929   2.234   6.934   5.957
  364SOL     OW 2930  11.386   2.206  12.980
  364SOL    HW1 2931  11.315   2.261  12.948
  364SOL    HW2 2932  11.364   2.190  13.072
  365SOL     OW 2933   9.689   3.328  11.306
  365SOL    HW1 2934   9.616   3.269  11.325
  365SOL    HW2 2935   9.653   3.392  11.244
  366SOL     OW 2936  12.581  10.502   9.678
  366SOL    HW1 2937  12.539  10.472   9.758
  366SOL    HW2 2938  12.556  10.437   9.612
  367SOL     OW 2939   6.812   0.135  14.233
  367SOL    HW1 2940   6.827   0.045  14.205
  367SOL    HW2 2941   6.724   0.156  14.202
  368SOL     OW 2942   2.640   8.367  11.497
  368SOL    HW1 2943   2.609   8.393  11.410
  368SOL    HW2 2944   2.700   8.436  11.523
  369SOL     OW 2945  12.394   9.558   1.222
  369SOL    HW1 2946  12.422   9.650   1.221
  369SOL    HW2 2947  12.365   9.543   1.312
  370SOL     OW 2948   1.474   7.140   5.321
  370SOL    HW1 2949   1.408   7.073   5.308
  370SOL    HW2 2950   1.507   7.124   5.409
  371SOL     OW 2951   2.679  12.966   1.576
  371SOL    HW1 2952   2.734  12.904   1.527
  371SOL    HW2 2953   2.621  13.003   1.510
  372SOL     OW 2954   8.597  12.102  12.934
  372SOL    HW1 2955   8.556  12.161  12.998
  372SOL    HW2 2956   8.526  12.043  12.908
  373SOL     OW 2957   0.966   7.355   5.947
  373SOL    HW1 2958   1.050   7.365   5.903
  373SOL    HW2 2959   0.988   7.325   6.035
  374SOL     OW 2960  13.648   1.174   6.346
  374SOL    HW1 2961  13.627   1.261   6.311
  374SOL    HW2 2962  13.679   1.125   6.270
  375SOL     OW 2963   5.098   3.110   0.786
  375SOL    HW1 2964   5.094   3.029   0.838
  375SOL    HW2 2965   5.185   3.146   0.805
  376SOL     OW 2966   4.669   1.466   1.053
  376SOL    HW1 2967   4.680   1.407   1.128
  376SOL    HW2 2968   4.755   1.470   1.012
  377SOL     OW 2969  14.635   1.582   0.906
  377SOL    HW1 2970  14.652   1.676   0.896
  377SOL    HW2 2971  14.685   1.541   0.836
  378SOL     OW 2972   2.003  11.837  10.328
  378SOL    HW1 2973   1.941  11.907  10.349
  378SOL    HW2 2974   1.949  11.759  10.318
  379SOL     OW 2975   8.623   7.409   8.686
  379SOL    HW1 2976   8.546   7.396   8.631
  379SOL    HW2 2977   8.695   7.370   8.636
  380SOL     OW 2978  11.220   4.122   8.280
  380SOL    HW1 2979  11.313   4.107   8.262
  380SOL    HW2 2980  11.218   4.200   8.334
  381SOL     OW 2981  14.847  14.778   6.210
  381SOL    HW1 2982   0.017  14.701   6.234
  381SOL    HW2 2983   0.010  14.851   6.253
  382SOL     OW 2984   0.191   1.162  11.803
  382SOL    HW1 2985   0.208   1.076  11.842
  382SOL    HW2 2986   0.216   1.225  11.871
  383SOL     OW 2987   6.437   4.222   8.664
  383SOL    HW1 2988   6.507   4.224   8.600
  383SOL    HW2 2989   6.468   4.278   8.735
  384SOL     OW 2990   1.625  14.343   3.259
  384SOL    HW1 2991   1.715  14.336   3.291
  384SOL    HW2 2992   1.578  14.385   3.330
  385SOL     OW 2993  13.985   8.832  11.446
  385SOL    HW1 2994  13.977   8.928  11.450
  385SOL    HW2 2995  14.076   8.817  11.421
  386SOL     OW 2996   2.357  13.693   0.542
  386SOL    HW1 2997   2.313  13.747   0.608
  386SOL    HW2 2998   2.422  13.643   0.591
  387SOL     OW 2999   2.740  10.440   6.321
  387SOL    HW1 3000   2.711  10.485   6.401
  387SOL    HW2 3001   2.831  10.467   6.310
  388SOL     OW 3002   2.515   4.910   8.592
  388SOL    HW1 3003   2.520   4.940   8.683
  388SOL    HW2 3004   2.488   4.818   8.598
  389SOL     OW 3005   1.945   8.617  12.653
  389SOL    HW1 3006   1.975   8.598  12.742
  389SOL    HW2 3007   1.868   8.672  12.666
  390SOL     OW 3008  11.295  12.544   1.983
  390SOL    HW1 3009  11.379  12.499   1.982
  390SOL    HW2 3010  11.304  12.614   1.918
  391SOL     OW 3011   3.628   4.907   2.481
  391SOL    HW1 3012   3.677   4.879   2.404
  391SOL    HW2 3013   3.562   4.967   2.446
  392SOL     OW 3014   3.967   5.560  14.188
  392SOL    HW1 3015   3.965   5.601  14.102
  392SOL    HW2 3016   4.053   5.519  14.194
  393SOL     OW 3017   1.712  13.564   5.423
  393SOL    HW1 3018   1.754  13.646   5.395
  393SOL    HW2 3019   1.640  13.553   5.361
  394SOL     OW 3020   3.543   5.663  11.710
  394SOL    HW1 3021   3.451   5.644  11.691
  394SOL    HW2 3022   3.542   5.704  11.797
  395SOL     OW 3023  13.093   5.309   9.383
  395SOL    HW1 3024  13.178   5.264   9.385
  395SOL    HW2 3025  13.050   5.281   9.464
  396SOL     OW 3026   1.052   2.551  13.187
  396SOL    HW1 3027   1.142   2.561  13.218
  396SOL    HW2 3028   1.060   2.538  13.093
  397SOL     OW 3029  13.939   7.213   8.761
  397SOL    HW1 3030  13.991   7.149   8.810
  397SOL    HW2 3031  13.997   7.289   8.752
  398SOL     OW 3032   6.012  12.043  13.403
  398SOL    HW1 3033   6.019  11.949  13.419
  398SOL    HW2 3034   5.920  12.056  13.378
  399SOL     OW 3035   6.325   3.390   0.558
  399SOL    HW1 3036   6.333   3.473   0.604
  399SOL    HW2 3037   6.237   3.359   0.580
  400SOL     OW 3038   6.890   8.333  11.098
  400SOL    HW1 3039   6.828   8.262  11.082
  400SOL    HW2 3040   6.960   8.319  11.033
  401SOL     OW 3041   5.551   4.652  13.158
  401SOL    HW1 3042   5.483   4.610  13.210
  401SOL    HW2 3043   5.613   4.582  13.138
  402SOL     OW 3044   1.584   9.716  10.005
  402SOL    HW1 3045   1.560   9.765  10.084
  402SOL    HW2 3046   1.560   9.775   9.933
  403SOL     OW 3047   6.209   3.929  12.296
  403SOL    HW1 3048   6.269   3.920  12.222
  403SOL    HW2 3049   6.265   3.920  12.374
  404SOL     OW 3050   7.964   2.642   1.064
  404SOL    HW1 3051   7.893   2.651   1.001
  404SOL    HW2 3052   8.044   2.656   1.012
  405SOL     OW 3053  10.802  12.126   0.058
  405SOL    HW1 3054  10.754  12.159  14.863
  405SOL    HW2 3055  10.877  12.184   0.066
  406SOL     OW 3056  13.892   4.615   6.243
  406SOL    HW1 3057  13.975   4.612   6.290
  406SOL    HW2 3058  13.830   4.649   6.307
  407SOL     OW 3059   1.640  13.809   5.049
  407SOL    HW1 3060   1.729  13.786   5.075
  407SOL    HW2 3061   1.651  13.861   4.969
  408SOL     OW 3062   8.638  13.811   4.453
  408SOL    HW1 3063   8.674  13.754   4.384
  408SOL    HW2 3064   8.633  13.897   4.412
  409SOL     OW 3065  10.776   5.415   7.142
  409SOL    HW1 3066  10.787   5.321   7.123
  409SOL    HW2 3067  10.711   5.444   7.078
  410SOL     OW 3068   8.560   1.557   6.613
  410SOL    HW1 3069   8.655   1.548   6.610
  410SOL    HW2 3070   8.545   1.634   6.668
  411SOL     OW 3071  12.785   7.027   5.274
  411SOL    HW1 3072  12.822   7.103   5.228
  411SOL    HW2 3073  12.716   6.996   5.216
  412SOL     OW 3074   1.129  12.981   1.318
  412SOL    HW1 3075   1.103  12.988   1.226
  412SOL    HW2 3076   1.052  13.010   1.367
  413SOL     OW 3077   2.215   1.704  13.653
  413SOL    HW1 3078   2.245   1.684  13.742
  413SOL    HW2 3079   2.147   1.770  13.666
  414SOL     OW 3080  11.710  11.679  14.561
  414SOL    HW1 3081  11.619  11.654  14.572
  414SOL    HW2 3082  11.759  11.618  14.616
  415SOL     OW 3083   6.152   3.700   1.722
  415SOL    HW1 3084   6.188   3.784   1.752
  415SOL    HW2 3085   6.105   3.722   1.642
  416SOL     OW 3086   2.916   9.699   8.710
  416SOL    HW1 3087   2.857   9.727   8.640
  416SOL    HW2 3088   3.003   9.706   8.673
  417SOL     OW 3089   2.604   9.853  14.324
  417SOL    HW1 3090   2.515   9.867  14.292
  417SOL    HW2 3091   2.659   9.862  14.246
  418SOL     OW 3092   1.056  12.928   5.829
  418SOL    HW1 3093   1.129  12.867   5.827
  418SOL    HW2 3094   1.015  12.915   5.914
  419SOL     OW 3095   8.053   1.203   2.544
  419SOL    HW1 3096   8.002   1.199   2.463
  419SOL    HW2 3097   8.092   1.115   2.552
  420SOL     OW 3098   6.431   4.737   7.862
  420SOL    HW1 3099   6.364   4.675   7.892
  420SOL    HW2 3100   6.446   4.713   7.771
  421SOL     OW 3101   0.392  11.815   5.056
  421SOL    HW1 3102   0.349  11.887   5.101
  421SOL    HW2 3103   0.469  11.854   5.015
  422SOL     OW 3104   6.011   0.550   9.147
  422SOL    HW1 3105   6.023   0.600   9.228
  422SOL    HW2 3106   6.026   0.614   9.077
  423SOL     OW 3107  13.439  14.774   4.189
  423SOL    HW1 3108  13.527  14.788   4.223
  423SOL    HW2 3109  13.449  14.714   4.116
  424SOL     OW 3110  14.046  13.053   3.473
  424SOL    HW1 3111  14.139  13.060   3.449
  424SOL    HW2 3112  14.047  13.048   3.569
  425SOL     OW 3113   9.788   0.740  10.403
  425SOL    HW1 3114   9.749   0.705  10.483
  425SOL    HW2 3115   9.882   0.746  10.422
  426SOL     OW 3116   7.674  12.703   9.709
  426SOL    HW1 3117   7.628  12.626   9.741
  426SOL    HW2 3118   7.612  12.745   9.650
  427SOL     OW 3119   9.813  11.020   3.840
  427SOL    HW1 3120   9.771  11.082   3.900
  427SOL    HW2 3121   9.876  10.973   3.895
  428SOL     OW 3122   2.328  11.942  13.199
  428SOL    HW1 3123   2.290  11.882  13.263
  428SOL    HW2 3124   2.325  11.894  13.116
  429SOL     OW 3125   3.571   7.270  12.223
  429SOL    HW1 3126   3.568   7.364  12.208
  429SOL    HW2 3127   3.654   7.242  12.184
  430SOL     OW 3128   1.892   8.694   6.667
  430SOL    HW1 3129   1.951   8.739   6.607
  430SOL    HW2 3130   1.808   8.739   6.656
  431SOL     OW 3131   4.149   0.064   7.357
  431SOL    HW1 3132   4.236   0.096   7.332
  431SOL    HW2 3133   4.163  14.853   7.376
  432SOL     OW 3134   6.673   9.838   3.938
  432SOL    HW1 3135   6.604   9.903   3.927
  432SOL    HW2 3136   6.628   9.754   3.933
  433SOL     OW 3137  10.458   2.751   1.735
  433SOL    HW1 3138  10.545   2.715   1.749
  433SOL    HW2 3139  10.467   2.809   1.660
  434SOL     OW 3140   6.191   2.466   4.637
  434SOL    HW1 3141   6.272   2.440   4.593
  434SOL    HW2 3142   6.158   2.540   4.586
  435SOL     OW 3143  10.892  11.036   0.507
  435SOL    HW1 3144  10.959  10.985   0.551
  435SOL    HW2 3145  10.820  10.974   0.493
  436SOL     OW 3146  12.128   7.947   3.849
  436SOL    HW1 3147  12.193   7.910   3.908
  436SOL    HW2 3148  12.087   8.018   3.899
  437SOL     OW 3149  13.162   5.397   8.240
  437SOL    HW1 3150  13.067   5.402   8.250
  437SOL    HW2 3151  13.197   5.417   8.327
  438SOL     OW 3152  10.800   9.496  14.101
  438SOL    HW1 3153  10.739   9.519  14.170
  438SOL    HW2 3154  10.748   9.444  14.039
  439SOL     OW 3155   1.705   8.432   3.839
  439SOL    HW1 3156   1.715   8.402   3.930
  439SOL    HW2 3157   1.762   8.374   3.789
  440SOL     OW 3158   9.270   5.999   4.086
  440SOL    HW1 3159   9.236   5.925   4.036
  440SOL    HW2 3160   9.362   5.977   4.101
  441SOL     OW 3161  11.964   3.527   6.047
  441SOL    HW1 3162  12.057   3.518   6.065
  441SOL    HW2 3163  11.923   3.463   6.106
  442SOL     OW 3164  11.411   4.452  11.062
  442SOL    HW1 3165  11.342   4.386  11.065
  442SOL    HW2 3166  11.369   4.529  11.023
  443SOL     OW 3167   6.962   6.039   0.477
  443SOL    HW1 3168   6.915   5.973   0.426
  443SOL    HW2 3169   6.902   6.112   0.483
  444SOL     OW 3170   7.346   4.872   5.432
  444SOL    HW1 3171   7.260   4.837   5.455
  444SOL    HW2 3172   7.408   4.805   5.462
  445SOL     OW 3173  10.249  14.424   5.682
  445SOL    HW1 3174  10.341  14.413   5.708
  445SOL    HW2 3175  10.246  14.510   5.640
  446SOL     OW 3176  10.501  12.117   3.253
  446SOL    HW1 3177  10.558  12.140   3.325
  446SOL    HW2 3178  10.415  12.149   3.279
  447SOL     OW 3179   0.968   6.391  10.278
  447SOL    HW1 3180   0.964   6.317  10.339
  447SOL    HW2 3181   0.883   6.391  10.235
  448SOL     OW 3182   7.383   8.884   4.804
  448SOL    HW1 3183   7.428   8.800   4.793
  448SOL    HW2 3184   7.308   8.864   4.860
  449SOL     OW 3185   6.548  11.249   7.195
  449SOL    HW1 3186   6.603  11.326   7.209
  449SOL    HW2 3187   6.610  11.176   7.186
  450SOL     OW 3188   2.223  10.220   5.789
  450SOL    HW1 3189   2.253  10.209   5.699
  450SOL    HW2 3190   2.238  10.135   5.830
  451SOL     OW 3191   5.125   2.355  12.242
  451SOL    HW1 3192   5.186   2.390  12.177
  451SOL    HW2 3193   5.077   2.432  12.272
  452SOL     OW 3194   6.035   6.580   4.611
  452SOL    HW1 3195   6.049   6.645   4.680
  452SOL    HW2 3196   5.973   6.517   4.650
  453SOL     OW 3197   6.771   0.958   9.119
  453SOL    HW1 3198   6.735   0.970   9.032
  453SOL    HW2 3199   6.775   0.863   9.131
  454SOL     OW 3200   2.011   1.413  12.016
  454SOL    HW1 3201   2.086   1.404  12.075
  454SOL    HW2 3202   1.966   1.329  12.021
  455SOL     OW 3203   5.193  11.627   1.948
  455SOL    HW1 3204   5.235  11.632   2.034
  455SOL    HW2 3205   5.244  11.687   1.894
  456SOL     OW 3206   3.338   0.415   9.093
  456SOL    HW1 3207   3.317   0.339   9.148
  456SOL    HW2 3208   3.339   0.489   9.154
  457SOL     OW 3209   5.014   8.625   8.950
  457SOL    HW1 3210   5.064   8.699   8.984
  457SOL    HW2 3211   4.970   8.588   9.026
  458SOL     OW 3212   2.539  10.842   0.649
  458SOL    HW1 3213   2.499  10.792   0.720
  458SOL    HW2 3214   2.500  10.929   0.655
  459SOL     OW 3215  10.592  12.503   3.343
  459SOL    HW1 3216  10.530  12.475   3.411
  459SOL    HW2 3217  10.634  12.580   3.380
  460SOL     OW 3218  14.191   1.650   5.404
  460SOL    HW1 3219  14.205   1.590   5.477
  460SOL    HW2 3220  14.122   1.608   5.352
  461SOL     OW 3221   1.350  10.487   1.114
  461SOL    HW1 3222   1.338  10.534   1.031
  461SOL    HW2 3223   1.444  10.494   1.133
  462SOL     OW 3224  10.700  14.253   3.197
  462SOL    HW1 3225  10.646  14.195   3.251
  462SOL    HW2 3226  10.654  14.259   3.114
  463SOL     OW 3227   6.791   6.526   0.752
  463SOL    HW1 3228   6.866   6.572   0.714
  463SOL    HW2 3229   6.792   6.552   0.844
  464SOL     OW 3230  14.550   3.889   3.425
  464SOL    HW1 3231  14.629   3.943   3.417
  464SOL    HW2 3232  14.583   3.801   3.439
  465SOL     OW 3233   9.072   9.039   8.839
  465SOL    HW1 3234   9.069   8.959   8.787
  465SOL    HW2 3235   8.983   9.047   8.874
  466SOL     OW 3236   0.458  13.771  10.454
  466SOL    HW1 3237   0.532  13.731  10.499
  466SOL    HW2 3238   0.486  13.777  10.362
  467SOL     OW 3239   7.844   3.246  12.293
  467SOL    HW1 3240   7.784   3.255  12.367
  467SOL    HW2 3241   7.830   3.156  12.262
  468SOL     OW 3242   2.565   1.968   2.799
  468SOL    HW1 3243   2.499   1.936   2.860
  468SOL    HW2 3244   2.588   1.890   2.746
  469SOL     OW 3245  10.135  10.542   7.122
  469SOL    HW1 3246  10.177  10.598   7.187
  469SOL    HW2 3247  10.199  10.536   7.051
  470SOL     OW 3248   8.211   1.864   5.835
  470SOL    HW1 3249   8.242   1.797   5.775
  470SOL    HW2 3250   8.132   1.826   5.875
  471SOL     OW 3251   1.960   1.919   8.138
  471SOL    HW1 3252   1.887   1.943   8.082
  471SOL    HW2 3253   1.973   1.994   8.196
  472SOL     OW 3254  10.249   3.325   8.535
  472SOL    HW1 3255  10.172   3.367   8.498
  472SOL    HW2 3256  10.221   3.235   8.554
  473SOL     OW 3257   6.327   5.411  14.722
  473SOL    HW1 3258   6.289   5.325  14.742
  473SOL    HW2 3259   6.392   5.425  14.789
  474SOL     OW 3260   9.174  10.893  14.777
  474SOL    HW1 3261   9.104  10.828  14.772
  474SOL    HW2 3262   9.181  10.926  14.687
  475SOL     OW 3263   5.980  11.437  14.353
  475SOL    HW1 3264   6.036  11.360  14.360
  475SOL    HW2 3265   5.903  11.416  14.407
  476SOL     OW 3266   9.004  10.117   1.145
  476SOL    HW1 3267   8.957  10.050   1.194
  476SOL    HW2 3268   9.000  10.195   1.201
  477SOL     OW 3269   8.285   0.673  11.865
  477SOL    HW1 3270   8.194   0.684  11.836
  477SOL    HW2 3271   8.336   0.725  11.803
  478SOL     OW 3272   8.094  13.739   6.441
  478SOL    HW1 3273   8.000  13.746   6.455
  478SOL    HW2 3274   8.131  13.812   6.491
  479SOL     OW 3275   8.460   8.390   9.624
  479SOL    HW1 3276   8.407   8.454   9.578
  479SOL    HW2 3277   8.399   8.342   9.679
  480SOL     OW 3278   8.043   2.701  10.359
  480SOL    HW1 3279   7.972   2.765  10.361
  480SOL    HW2 3280   8.050   2.676  10.267
  481SOL     OW 3281  12.008   7.679   2.290
  481SOL    HW1 3282  12.017   7.620   2.365
  481SOL    HW2 3283  11.915   7.677   2.268
  482SOL     OW 3284   7.122   9.254   0.020
  482SOL    HW1 3285   7.054   9.219   0.076
  482SOL    HW2 3286   7.075   9.289  14.826
  483SOL     OW 3287  14.196   7.504  11.843
  483SOL    HW1 3288  14.196   7.409  11.852
  483SOL    HW2 3289  14.104   7.528  11.833
  484SOL     OW 3290  10.333   3.507   3.281
  484SOL    HW1 3291  10.255   3.557   3.305
  484SOL    HW2 3292  10.399   3.534   3.345
  485SOL     OW 3293  10.511  10.786   7.112
  485SOL    HW1 3294  10.535  10.696   7.091
  485SOL    HW2 3295  10.544  10.837   7.039
  486SOL     OW 3296   7.997   5.241   2.649
  486SOL    HW1 3297   8.053   5.312   2.680
  486SOL    HW2 3298   8.052   5.194   2.586
  487SOL     OW 3299  12.884  10.971  12.357
  487SOL    HW1 3300  12.851  11.003  12.441
  487SOL    HW2 3301  12.833  10.892  12.340
  488SOL     OW 3302  11.641   5.481  12.604
  488SOL    HW1 3303  11.574   5.478  12.673
  488SOL    HW2 3304  11.703   5.413  12.629
  489SOL     OW 3305   7.209  14.405  11.811
  489SOL    HW1 3306   7.288  14.438  11.853
  489SOL    HW2 3307   7.221  14.424  11.718
  490SOL     OW 3308   5.179   7.538   0.940
  490SOL    HW1 3309   5.238   7.518   0.868
  490SOL    HW2 3310   5.222   7.503   1.018
  491SOL     OW 3311   1.972  13.105   9.172
  491SOL    HW1 3312   1.960  13.031   9.113
  491SOL    HW2 3313   2.064  13.130   9.161
  492SOL     OW 3314   4.919   4.536  11.868
  492SOL    HW1 3315   4.987   4.574  11.924
  492SOL    HW2 3316   4.934   4.576  11.782
  493SOL     OW 3317  14.282   4.316  14.539
  493SOL    HW1 3318  14.232   4.392  14.507
  493SOL    HW2 3319  14.367   4.352  14.564
  494SOL     OW 3320   8.905   2.674   7.678
  494SOL    HW1 3321   8.834   2.625   7.720
  494SOL    HW2 3322   8.979   2.667   7.738
  495SOL     OW 3323   1.788   4.485  13.965
  495SOL    HW1 3324   1.870   4.533  13.957
  495SOL    HW2 3325   1.812   4.393  13.952
  496SOL     OW 3326  10.263   9.065  11.229
  496SOL    HW1 3327  10.269   9.159  11.213
  496SOL    HW2 3328  10.259   9.057  11.324
  497SOL     OW 3329   0.776   1.185   5.906
  497SOL    HW1 3330   0.784   1.107   5.850
  497SOL    HW2 3331   0.710   1.160   5.971
  498SOL     OW 3332  12.670  14.704   3.579
  498SOL    HW1 3333  12.589  14.730   3.623
  498SOL    HW2 3334  12.648  14.620   3.538
  499SOL     OW 3335  13.710   5.323  11.466
  499SOL    HW1 3336  13.654   5.399  11.447
  499SOL    HW2 3337  13.650   5.248  11.461
  500SOL     OW 3338   4.596   5.365   0.319
  500SOL    HW1 3339   4.651   5.440   0.296
  500SOL    HW2 3340   4.645   5.289   0.287
  501SOL     OW 3341   6.358   9.533   1.195
  501SOL    HW1 3342   6.349   9.534   1.100
  501SOL    HW2 3343   6.433   9.589   1.213
  502SOL     OW 3344   2.593  14.568  12.059
  502SOL    HW1 3345   2.532  14.603  12.123
  502SOL    HW2 3346   2.605  14.477  12.085
  503SOL     OW 3347  10.404   3.975   6.590
  503SOL    HW1 3348  10.498   3.992   6.594
  503SOL    HW2 3349  10.373   3.992   6.679
  504SOL     OW 3350   0.044   5.883   0.045
  504SOL    HW1 3351   0.058   5.971   0.009
  504SOL    HW2 3352   0.051   5.825  14.851
  505SOL     OW 3353   2.122   7.641  12.617
  505SOL    HW1 3354   2.138   7.731  12.645
  505SOL    HW2 3355   2.208   7.607  12.595
  506SOL     OW 3356   2.653   1.363   4.435
  506SOL    HW1 3357   2.560   1.361   4.459
  506SOL    HW2 3358   2.670   1.277   4.396
  507SOL     OW 3359   4.172   8.166  13.496
  507SOL    HW1 3360   4.200   8.091  13.549
  507SOL    HW2 3361   4.139   8.229  13.560
  508SOL     OW 3362  14.385   7.704  13.553
  508SOL    HW1 3363  14.301   7.717  13.596
  508SOL    HW2 3364  14.443   7.769  13.592
  509SOL     OW 3365   4.207   4.027   1.361
  509SOL    HW1 3366   4.112   4.031   1.363
  509SOL    HW2 3367   4.236   4.109   1.401
  510SOL     OW 3368   7.291   0.699   4.858
  510SOL    HW1 3369   7.312   0.621   4.807
  510SOL    HW2 3370   7.376   0.736   4.882
  511SOL     OW 3371   9.062   9.269   9.099
  511SOL    HW1 3372   9.109   9.311   9.171
  511SOL    HW2 3373   9.090   9.178   9.102
  512SOL     OW 3374  13.267   2.714   3.136
  512SOL    HW1 3375  13.310   2.747   3.057
  512SOL    HW2 3376  13.227   2.791   3.176
  513SOL     OW 3377  10.892  12.772   3.235
  513SOL    HW1 3378  10.846  12.855   3.221
  513SOL    HW2 3379  10.855  12.737   3.316
  514SOL     OW 3380  10.738  10.582   6.347
  514SOL    HW1 3381  10.798  10.582   6.422
  514SOL    HW2 3382  10.698  10.494   6.348
  515SOL     OW 3383   2.420   2.560   1.394
  515SOL    HW1 3384   2.392   2.649   1.375
  515SOL    HW2 3385   2.394   2.509   1.317
  516SOL     OW 3386  10.772  14.143  11.602
  516SOL    HW1 3387  10.685  14.104  11.603
  516SOL    HW2 3388  10.819  14.099  11.674
  517SOL     OW 3389  13.484   0.731   7.579
  517SOL    HW1 3390  13.526   0.806   7.536
  517SOL    HW2 3391  13.484   0.753   7.672
  518SOL     OW 3392   2.669   1.251   1.088
  518SOL    HW1 3393   2.606   1.179   1.083
  518SOL    HW2 3394   2.691   1.257   1.181
  519SOL     OW 3395   5.756   1.639   1.400
  519SOL    HW1 3396   5.818   1.638   1.474
  519SOL    HW2 3397   5.739   1.547   1.382
  520SOL     OW 3398   8.129   1.069   9.423
  520SOL    HW1 3399   8.064   1.061   9.492
  520SOL    HW2 3400   8.131   1.162   9.403
  521SOL     OW 3401  10.693   7.033   2.821
  521SOL    HW1 3402  10.655   7.073   2.900
  521SOL    HW2 3403  10.748   7.102   2.784
  522SOL     OW 3404   7.085  12.744   6.628
  522SOL    HW1 3405   7.091  12.823   6.681
  522SOL    HW2 3406   7.122  12.674   6.682
  523SOL     OW 3407   3.407   4.557   1.262
  523SOL    HW1 3408   3.447   4.542   1.176
  523SOL    HW2 3409   3.325   4.508   1.260
  524SOL     OW 3410  12.331  11.507   3.704
  524SOL    HW1 3411  12.360  11.446   3.636
  524SOL    HW2 3412  12.291  11.452   3.771
  525SOL     OW 3413  14.185   5.384   4.329
  525SOL    HW1 3414  14.143   5.394   4.243
  525SOL    HW2 3415  14.206   5.474   4.356
  526SOL     OW 3416   5.284   0.101   7.989
  526SOL    HW1 3417   5.296   0.180   8.042
  526SOL    HW2 3418   5.214   0.123   7.928
  527SOL     OW 3419   2.481  12.474   4.131
  527SOL    HW1 3420   2.515  12.545   4.186
  527SOL    HW2 3421   2.469  12.515   4.045
  528SOL     OW 3422   9.056   5.251   1.390
  528SOL    HW1 3423   9.105   5.261   1.308
  528SOL    HW2 3424   9.011   5.167   1.381
  529SOL     OW 3425   5.410   8.491  12.563
  529SOL    HW1 3426   5.476   8.526  12.504
  529SOL    HW2 3427   5.419   8.544  12.643
  530SOL     OW 3428  12.524   8.107   3.257
  530SOL    HW1 3429  12.453   8.046   3.279
  530SOL    HW2 3430  12.538   8.156   3.338
  531SOL     OW 3431   9.310   3.274  10.356
  531SOL    HW1 3432   9.321   3.243  10.445
  531SOL    HW2 3433   9.367   3.219  10.303
  532SOL     OW 3434   3.857  14.291   4.892
  532SOL    HW1 3435   3.812  14.273   4.975
  532SOL    HW2 3436   3.827  14.222   4.833
  533SOL     OW 3437   5.925   5.955   3.079
  533SOL    HW1 3438   5.992   5.900   3.119
  533SOL    HW2 3439   5.961   5.978   2.993
  534SOL     OW 3440   3.041   4.132  12.616
  534SOL    HW1 3441   3.007   4.207  12.568
  534SOL    HW2 3442   3.089   4.082  12.550
  535SOL     OW 3443   6.178  11.360   3.575
  535SOL    HW1 3444   6.273  11.370   3.566
  535SOL    HW2 3445   6.149  11.443   3.611
  536SOL     OW 3446  12.509   4.089   0.605
  536SOL    HW1 3447  12.423   4.133   0.603
  536SOL    HW2 3448  12.568   4.154   0.642
  537SOL     OW 3449   1.741  12.019  13.945
  537SOL    HW1 3450   1.789  11.938  13.961
  537SOL    HW2 3451   1.673  11.995  13.882
  538SOL     OW 3452  11.615   9.907   7.505
  538SOL    HW1 3453  11.594   9.982   7.561
  538SOL    HW2 3454  11.697   9.872   7.542
  539SOL     OW 3455   9.664   0.416   2.006
  539SOL    HW1 3456   9.579   0.453   2.030
  539SOL    HW2 3457   9.643   0.329   1.971
  540SOL     OW 3458   7.064   9.989  10.640
  540SOL    HW1 3459   6.984   9.941  10.660
  540SOL    HW2 3460   7.128   9.922  10.617
  541SOL     OW 3461   3.714   2.638   2.904
  541SOL    HW1 3462   3.781   2.705   2.890
  541SOL    HW2 3463   3.672   2.627   2.819
  542SOL     OW 3464  12.900   4.335  10.094
  542SOL    HW1 3465  12.808   4.358  10.107
  542SOL    HW2 3466  12.914   4.341  10.000
  543SOL     OW 3467   5.398  13.909   2.495
  543SOL    HW1 3468   5.381  13.977   2.560
  543SOL    HW2 3469   5.312  13.884   2.462
  544SOL     OW 3470   4.525   5.949   1.951
  544SOL    HW1 3471   4.577   6.028   1.969
  544SOL    HW2 3472   4.524   5.901   2.034
  545SOL     OW 3473   2.495  13.652   9.120
  545SOL    HW1 3474   2.559  13.596   9.164
  545SOL    HW2 3475   2.548  13.715   9.071
  546SOL     OW 3476   9.924   5.828  10.328
  546SOL    HW1 3477   9.930   5.912  10.374
  546SOL    HW2 3478   9.993   5.775  10.367
  547SOL     OW 3479  10.686  14.403   1.982
  547SOL    HW1 3480  10.779  14.422   1.991
  547SOL    HW2 3481  10.677  14.360   1.898
  548SOL     OW 3482   5.185  12.203   4.974
  548SOL    HW1 3483   5.189  12.255   5.055
  548SOL    HW2 3484   5.199  12.266   4.904
  549SOL     OW 3485   1.134  12.667   5.076
  549SOL    HW1 3486   1.071  12.733   5.104
  549SOL    HW2 3487   1.168  12.630   5.158
  550SOL     OW 3488   1.155  14.556  13.698
  550SOL    HW1 3489   1.061  14.571  13.710
  550SOL    HW2 3490   1.184  14.522  13.782
  551SOL     OW 3491  12.562   4.936   3.245
  551SOL    HW1 3492  12.573   5.002   3.176
  551SOL    HW2 3493  12.582   4.853   3.202
  552SOL     OW 3494  11.903  11.809   6.074
  552SOL    HW1 3495  11.983  11.855   6.100
  552SOL    HW2 3496  11.933  11.722   6.049
  553SOL     OW 3497  10.849  14.688   4.587
  553SOL    HW1 3498  10.941  14.665   4.587
  553SOL    HW2 3499  10.817  14.661   4.674
  554SOL     OW 3500   0.372   8.986  12.202
  554SOL    HW1 3501   0.424   9.032  12.136
  554SOL    HW2 3502   0.352   9.052  12.268
  555SOL     OW 3503   5.081  10.536   2.185
  555SOL    HW1 3504   5.090  10.481   2.263
  555SOL    HW2 3505   5.114  10.622   2.212
  556SOL     OW 3506   0.354   1.322   2.708
  556SOL    HW1 3507   0.423   1.386   2.687
  556SOL    HW2 3508   0.311   1.305   2.624
  557SOL     OW 3509  12.527   6.482   8.183
  557SOL    HW1 3510  12.551   6.394   8.213
  557SOL    HW2 3511  12.475   6.467   8.104
  558SOL     OW 3512   7.431   0.014   0.778
  558SOL    HW1 3513   7.410   0.082   0.842
  558SOL    HW2 3514   7.361   0.021   0.713
  559SOL     OW 3515   0.531   8.966   1.149
  559SOL    HW1 3516   0.456   9.012   1.110
  559SOL    HW2 3517   0.496   8.927   1.229
  560SOL     OW 3518  12.498   2.941   3.458
  560SOL    HW1 3519  12.477   2.955   3.366
  560SOL    HW2 3520  12.561   2.868   3.457
  561SOL     OW 3521  12.399   1.388   0.097
  561SOL    HW1 3522  12.391   1.404   0.191
  561SOL    HW2 3523  12.408   1.475   0.058
  562SOL     OW 3524  12.133  13.150   4.077
  562SOL    HW1 3525  12.118  13.059   4.052
  562SOL    HW2 3526  12.169  13.145   4.166
  563SOL     OW 3527  10.942   0.423   1.785
  563SOL    HW1 3528  10.873   0.487   1.803
  563SOL    HW2 3529  10.950   0.373   1.867
  564SOL     OW 3530  10.574  10.930   9.891
  564SOL    HW1 3531  10.602  10.891   9.808
  564SOL    HW2 3532  10.486  10.963   9.874
  565SOL     OW 3533   7.348  14.846   5.515
  565SOL    HW1 3534   7.341  14.757   5.549
  565SOL    HW2 3535   7.399   0.011   5.580
  566SOL     OW 3536  13.015   9.017   0.914
  566SOL    HW1 3537  13.062   9.071   0.978
  566SOL    HW2 3538  13.083   8.979   0.860
  567SOL     OW 3539  11.274  12.640   5.315
  567SOL    HW1 3540  11.210  12.582   5.274
  567SOL    HW2 3541  11.233  12.669   5.396
  568SOL     OW 3542   0.682   0.159   6.059
  568SOL    HW1 3543   0.595   0.185   6.030
  568SOL    HW2 3544   0.741   0.218   6.012
  569SOL     OW 3545  12.885   4.757   6.925
  569SOL    HW1 3546  12.824   4.744   6.998
  569SOL    HW2 3547  12.963   4.794   6.966
  570SOL     OW 3548  13.122   8.066   4.640
  570SOL    HW1 3549  13.085   8.151   4.613
  570SOL    HW2 3550  13.106   8.062   4.734
  571SOL     OW 3551  11.213   2.396   1.618
  571SOL    HW1 3552  11.242   2.477   1.576
  571SOL    HW2 3553  11.188   2.339   1.546
  572SOL     OW 3554   4.169  10.020   8.173
  572SOL    HW1 3555   4.158  10.059   8.086
  572SOL    HW2 3556   4.102  10.061   8.226
  573SOL     OW 3557   1.459  12.171   9.438
  573SOL    HW1 3558   1.475  12.247   9.383
  573SOL    HW2 3559   1.450  12.098   9.377
  574SOL     OW 3560  12.850   1.239  14.687
  574SOL    HW1 3561  12.776   1.236  14.747
  574SOL    HW2 3562  12.863   1.148  14.661
  575SOL     OW 3563   8.346   1.261   1.113
  575SOL    HW1 3564   8.371   1.235   1.024
  575SOL    HW2 3565   8.363   1.184   1.167
  576SOL     OW 3566   1.721   8.554  10.908
  576SOL    HW1 3567   1.794   8.492  10.905
  576SOL    HW2 3568   1.742   8.613  10.980
  577SOL     OW 3569   4.794   9.646   5.216
  577SOL    HW1 3570   4.752   9.695   5.287
  577SOL    HW2 3571   4.804   9.558   5.251
  578SOL     OW 3572  12.866   3.658   0.454
  578SOL    HW1 3573  12.800   3.693   0.395
  578SOL    HW2 3574  12.913   3.735   0.485
  579SOL     OW 3575  11.922   3.946  11.788
  579SOL    HW1 3576  11.948   3.893  11.713
  579SOL    HW2 3577  11.997   3.944  11.847
  580SOL     OW 3578   7.000   2.792  10.216
  580SOL    HW1 3579   6.993   2.699  10.196
  580SOL    HW2 3580   6.911   2.818  10.241
  581SOL     OW 3581   3.198  13.069   4.385
  581SOL    HW1 3582   3.231  12.981   4.363
  581SOL    HW2 3583   3.274  13.115   4.421
  582SOL     OW 3584   9.489   8.739   9.296
  582SOL    HW1 3585   9.519   8.785   9.374
  582SOL    HW2 3586   9.560   8.677   9.276
  583SOL     OW 3587  11.456   4.372   0.683
  583SOL    HW1 3588  11.455   4.468   0.679
  583SOL    HW2 3589  11.369   4.346   0.655
  584SOL     OW 3590   6.355   6.015   7.077
  584SOL    HW1 3591   6.363   6.022   7.172
  584SOL    HW2 3592   6.264   5.988   7.063
  585SOL     OW 3593  10.548  11.065   7.448
  585SOL    HW1 3594  10.457  11.061   7.420
  585SOL    HW2 3595  10.576  11.154   7.425
  586SOL     OW 3596  10.402   9.538   6.974
  586SOL    HW1 3597  10.307   9.534   6.982
  586SOL    HW2 3598  10.429   9.448   6.955
  587SOL     OW 3599   1.710  10.482   8.472
  587SOL    HW1 3600   1.728  10.527   8.389
  587SOL    HW2 3601   1.621  10.448   8.462
  588SOL     OW 3602  12.980   0.464   2.030
  588SOL    HW1 3603  13.036   0.508   1.967
  588SOL    HW2 3604  12.907   0.524   2.043
  589SOL     OW 3605  12.928   8.045  10.491
  589SOL    HW1 3606  12.888   7.972  10.539
  589SOL    HW2 3607  12.999   8.005  10.441
  590SOL     OW 3608  13.333   0.028   0.966
  590SOL    HW1 3609  13.263   0.093   0.955
  590SOL    HW2 3610  13.304  14.834   0.915
  591SOL     OW 3611  12.315  14.353   6.949
  591SOL    HW1 3612  12.321  14.319   7.038
  591SOL    HW2 3613  12.373  14.296   6.898
  592SOL     OW 3614   2.086  11.032   4.754
  592SOL    HW1 3615   2.107  11.125   4.751
  592SOL    HW2 3616   2.070  11.013   4.847
  593SOL     OW 3617  10.393  10.337   4.303
  593SOL    HW1 3618  10.351  10.257   4.272
  593SOL    HW2 3619  10.337  10.367   4.375
  594SOL     OW 3620   9.852   7.038  13.549
  594SOL    HW1 3621   9.933   6.988  13.535
  594SOL    HW2 3622   9.799   6.982  13.606
  595SOL     OW 3623   7.839   2.037  12.121
  595SOL    HW1 3624   7.784   1.973  12.077
  595SOL    HW2 3625   7.865   1.994  12.203
  596SOL     OW 3626   5.082   2.763   8.360
  596SOL    HW1 3627   5.148   2.731   8.421
  596SOL    HW2 3628   5.006   2.783   8.415
  597SOL     OW 3629  13.340   8.230  12.084
  597SOL    HW1 3630  13.271   8.283  12.045
  597SOL    HW2 3631  13.329   8.143  12.044
  598SOL     OW 3632   1.047   2.256   5.165
  598SOL    HW1 3633   1.036   2.341   5.123
  598SOL    HW2 3634   1.054   2.194   5.093
  599SOL     OW 3635  12.392   3.615   2.175
  599SOL    HW1 3636  12.316   3.627   2.119
  599SOL    HW2 3637  12.362   3.639   2.263
  600SOL     OW 3638   0.464   3.623  13.087
  600SOL    HW1 3639   0.549   3.590  13.058
  600SOL    HW2 3640   0.428   3.667  13.010
  601SOL     OW 3641   6.062   5.026  11.659
  601SOL    HW1 3642   6.047   5.086  11.586
  601SOL    HW2 3643   5.975   5.012  11.697
  602SOL     OW 3644   0.439  10.407   0.874
  602SOL    HW1 3645   0.513  10.458   0.840
  602SOL    HW2 3646   0.412  10.453   0.953
  603SOL     OW 3647  10.301  12.250   4.292
  603SOL    HW1 3648  10.346  12.177   4.251
  603SOL    HW2 3649  10.369  12.296   4.342
  604SOL     OW 3650  10.001   4.658  11.879
  604SOL    HW1 3651  10.009   4.727  11.944
  604SOL    HW2 3652  10.084   4.611  11.883
  605SOL     OW 3653   0.848   2.899   1.231
  605SOL    HW1 3654   0.926   2.879   1.179
  605SOL    HW2 3655   0.782   2.925   1.167
  606SOL     OW 3656   1.706   9.122   4.939
  606SOL    HW1 3657   1.630   9.140   4.995
  606SOL    HW2 3658   1.670   9.118   4.850
  607SOL     OW 3659   3.189   9.726   7.368
  607SOL    HW1 3660   3.143   9.802   7.331
  607SOL    HW2 3661   3.191   9.662   7.297
  608SOL     OW 3662  11.264  11.864   3.760
  608SOL    HW1 3663  11.184  11.915   3.774
  608SOL    HW2 3664  11.267  11.849   3.666
  609SOL     OW 3665   1.493   4.470  13.267
  609SOL    HW1 3666   1.579   4.458  13.226
  609SOL    HW2 3667   1.505   4.446  13.358
  610SOL     OW 3668   9.567  14.354  10.874
  610SOL    HW1 3669   9.474  14.335  10.884
  610SOL    HW2 3670   9.611  14.271  10.891
  611SOL     OW 3671  10.204  14.384  11.919
  611SOL    HW1 3672  10.205  14.384  11.823
  611SOL    HW2 3673  10.122  14.428  11.942
  612SOL     OW 3674  14.145  10.232  11.280
  612SOL    HW1 3675  14.194  10.150  11.283
  612SOL    HW2 3676  14.138  10.260  11.371
  613SOL     OW 3677   8.159   5.259  10.045
  613SOL    HW1 3678   8.091   5.233   9.984
  613SOL    HW2 3679   8.237   5.272   9.990
  614SOL     OW 3680  12.652   1.960   7.785
  614SOL    HW1 3681  12.630   1.909   7.706
  614SOL    HW2 3682  12.690   2.041   7.751
  615SOL     OW 3683   4.924   6.056   3.824
  615SOL    HW1 3684   4.913   6.138   3.871
  615SOL    HW2 3685   4.836   6.035   3.792
  616SOL     OW 3686   7.641  12.390   3.847
  616SOL    HW1 3687   7.667  12.343   3.926
  616SOL    HW2 3688   7.723  12.423   3.812
  617SOL     OW 3689  12.557   7.482   6.803
  617SOL    HW1 3690  12.561   7.391   6.775
  617SOL    HW2 3691  12.631   7.491   6.864
  618SOL     OW 3692   5.290   8.316   5.109
  618SOL    HW1 3693   5.280   8.253   5.038
  618SOL    HW2 3694   5.293   8.262   5.189
  619SOL     OW 3695   2.465  11.571   2.556
  619SOL    HW1 3696   2.548  11.525   2.567
  619SOL    HW2 3697   2.487  11.653   2.513
  620SOL     OW 3698   7.389   9.172   3.591
  620SOL    HW1 3699   7.324   9.207   3.653
  620SOL    HW2 3700   7.473   9.184   3.636
  621SOL     OW 3701   7.402   8.304   2.422
  621SOL    HW1 3702   7.336   8.295   2.491
  621SOL    HW2 3703   7.482   8.270   2.461
  622SOL     OW 3704   6.100  13.675   0.228
  622SOL    HW1 3705   6.075  13.712   0.143
  622SOL    HW2 3706   6.057  13.733   0.291
  623SOL     OW 3707   0.928  10.869  13.804
  623SOL    HW1 3708   0.873  10.797  13.833
  623SOL    HW2 3709   1.012  10.854  13.848
  624SOL     OW 3710   1.871   4.339   8.366
  624SOL    HW1 3711   1.785   4.371   8.341
  624SOL    HW2 3712   1.916   4.324   8.283
  625SOL     OW 3713   2.543   4.023   8.301
  625SOL    HW1 3714   2.592   4.105   8.312
  625SOL    HW2 3715   2.561   3.996   8.211
  626SOL     OW 3716   6.202   6.147   6.854
  626SOL    HW1 3717   6.209   6.187   6.940
  626SOL    HW2 3718   6.265   6.075   6.856
  627SOL     OW 3719   1.386   5.313   6.783
  627SOL    HW1 3720   1.400   5.392   6.834
  627SOL    HW2 3721   1.462   5.309   6.724
  628SOL     OW 3722  10.274  14.801   2.628
  628SOL    HW1 3723  10.356  14.811   2.676
  628SOL    HW2 3724  10.230   0.003   2.638
  629SOL     OW 3725   8.247   3.345   0.509
  629SOL    HW1 3726   8.198   3.427   0.517
  629SOL    HW2 3727   8.290   3.351   0.424
  630SOL     OW 3728  13.020   8.504  11.617
  630SOL    HW1 3729  12.965   8.581  11.631
  630SOL    HW2 3730  13.097   8.520  11.671
  631SOL     OW 3731  11.149  11.011   1.297
  631SOL    HW1 3732  11.182  10.965   1.219
  631SOL    HW2 3733  11.177  10.956   1.370
  632SOL     OW 3734   7.122   5.251   0.636
  632SOL    HW1 3735   7.118   5.319   0.704
  632SOL    HW2 3736   7.155   5.297   0.559
  633SOL     OW 3737   7.599   7.998  11.169
  633SOL    HW1 3738   7.663   7.992  11.241
  633SOL    HW2 3739   7.551   7.915  11.173
  634SOL     OW 3740   2.108  14.182   7.430
  634SOL    HW1 3741   2.193  14.176   7.386
  634SOL    HW2 3742   2.102  14.102   7.482
  635SOL     OW 3743  13.837   4.563  11.747
  635SOL    HW1 3744  13.872   4.479  11.720
  635SOL    HW2 3745  13.885   4.584  11.827
  636SOL     OW 3746   2.619   2.461  10.088
  636SOL    HW1 3747   2.559   2.420  10.025
  636SOL    HW2 3748   2.566   2.473  10.167
  637SOL     OW 3749   7.972   0.675  14.018
  637SOL    HW1 3750   7.958   0.755  13.968
  637SOL    HW2 3751   7.927   0.607  13.967
  638SOL     OW 3752  14.832   8.338   2.051
  638SOL    HW1 3753   0.022   8.392   2.083
  638SOL    HW2 3754  14.814   8.277   2.123
  639SOL     OW 3755  14.086   4.902   9.227
  639SOL    HW1 3756  14.055   4.984   9.188
  639SOL    HW2 3757  14.166   4.882   9.179
  640SOL     OW 3758  10.664   9.466  13.266
  640SOL    HW1 3759  10.570   9.476  13.274
  640SOL    HW2 3760  10.689   9.525  13.195
  641SOL     OW 3761   6.771   1.468   1.837
  641SOL    HW1 3762   6.747   1.506   1.753
  641SOL    HW2 3763   6.866   1.464   1.837
  642SOL     OW 3764   2.407  13.537  11.286
  642SOL    HW1 3765   2.461  13.539  11.207
  642SOL    HW2 3766   2.317  13.541  11.254
  643SOL     OW 3767   2.254   1.553  13.925
  643SOL    HW1 3768   2.294   1.607  13.993
  643SOL    HW2 3769   2.211   1.482  13.973
  644SOL     OW 3770  12.261  12.042  14.394
  644SOL    HW1 3771  12.227  11.953  14.381
  644SOL    HW2 3772  12.222  12.071  14.476
  645SOL     OW 3773  11.738   2.688  14.466
  645SOL    HW1 3774  11.720   2.705  14.559
  645SOL    HW2 3775  11.783   2.766  14.436
  646SOL     OW 3776   2.609   5.228   6.508
  646SOL    HW1 3777   2.671   5.266   6.571
  646SOL    HW2 3778   2.650   5.242   6.423
  647SOL     OW 3779   8.983   8.407   3.419
  647SOL    HW1 3780   8.947   8.480   3.369
  647SOL    HW2 3781   8.944   8.329   3.380
  648SOL     OW 3782   7.455  11.850   4.671
  648SOL    HW1 3783   7.369  11.835   4.711
  648SOL    HW2 3784   7.512  11.873   4.744
  649SOL     OW 3785   1.366   5.341   1.215
  649SOL    HW1 3786   1.405   5.256   1.232
  649SOL    HW2 3787   1.279   5.336   1.256
  650SOL     OW 3788   9.566   8.860  14.854
  650SOL    HW1 3789   9.610   8.779  14.827
  650SOL    HW2 3790   9.555   8.909  14.773
  651SOL     OW 3791   7.429  14.346   5.347
  651SOL    HW1 3792   7.417  14.321   5.256
  651SOL    HW2 3793   7.340  14.351   5.382
  652SOL     OW 3794   3.041   5.859   0.731
  652SOL    HW1 3795   3.090   5.851   0.649
  652SOL    HW2 3796   3.106   5.882   0.797
  653SOL     OW 3797  10.501   1.699   4.897
  653SOL    HW1 3798  10.456   1.690   4.981
  653SOL    HW2 3799  10.576   1.640   4.903
  654SOL     OW 3800   6.011   2.878   5.327
  654SOL    HW1 3801   5.959   2.810   5.369
  654SOL    HW2 3802   5.965   2.897   5.245
  655SOL     OW 3803  10.916   1.437   5.557
  655SOL    HW1 3804  10.988   1.494   5.531
  655SOL    HW2 3805  10.858   1.436   5.481
  656SOL     OW 3806  13.243   0.865  14.496
  656SOL    HW1 3807  13.182   0.935  14.472
  656SOL    HW2 3808  13.194   0.784  14.480
  657SOL     OW 3809   7.361  12.410  11.019
  657SOL    HW1 3810   7.397  12.484  10.971
  657SOL    HW2 3811   7.370  12.434  11.111
  658SOL     OW 3812   6.911   3.574   8.861
  658SOL    HW1 3813   6.958   3.607   8.938
  658SOL    HW2 3814   6.900   3.480   8.878
  659SOL     OW 3815   4.677   1.295   0.823
  659SOL    HW1 3816   4.681   1.351   0.900
  659SOL    HW2 3817   4.763   1.254   0.819
  660SOL     OW 3818   3.385   5.497   6.600
  660SOL    HW1 3819   3.381   5.406   6.630
  660SOL    HW2 3820   3.380   5.549   6.681
  661SOL     OW 3821  14.189  14.361  13.308
  661SOL    HW1 3822  14.244  14.433  13.277
  661SOL    HW2 3823  14.223  14.284  13.263
  662SOL     OW 3824  10.008  13.327  13.649
  662SOL    HW1 3825  10.038  13.307  13.560
  662SOL    HW2 3826   9.998  13.241  13.690
  663SOL     OW 3827  14.647   4.014   7.426
  663SOL    HW1 3828  14.600   3.945   7.473
  663SOL    HW2 3829  14.635   4.092   7.480
  664SOL     OW 3830   9.174  11.329   8.899
  664SOL    HW1 3831   9.241  11.396   8.880
  664SOL    HW2 3832   9.120  11.327   8.820
  665SOL     OW 3833   9.604   5.829   6.409
  665SOL    HW1 3834   9.654   5.782   6.342
  665SOL    HW2 3835   9.664   5.836   6.484
  666SOL     OW 3836   7.580   8.630   8.662
  666SOL    HW1 3837   7.525   8.665   8.733
  666SOL    HW2 3838   7.524   8.565   8.618
  667SOL     OW 3839   7.426   4.506  13.196
  667SOL    HW1 3840   7.368   4.517  13.271
  667SOL    HW2 3841   7.423   4.590  13.150
  668SOL     OW 3842   6.516   1.583   7.696
  668SOL    HW1 3843   6.540   1.672   7.722
  668SOL    HW2 3844   6.485   1.591   7.606
  669SOL     OW 3845  14.610  14.254   9.518
  669SOL    HW1 3846  14.606  14.267   9.612
  669SOL    HW2 3847  14.553  14.322   9.482
  670SOL     OW 3848   4.872   9.021   4.332
  670SOL    HW1 3849   4.914   8.936   4.344
  670SOL    HW2 3850   4.942   9.078   4.299
  671SOL     OW 3851   6.743   2.412   9.852
  671SOL    HW1 3852   6.688   2.392   9.776
  671SOL    HW2 3853   6.825   2.443   9.815
  672SOL     OW 3854   3.596  10.571   7.537
  672SOL    HW1 3855   3.546  10.561   7.618
  672SOL    HW2 3856   3.646  10.652   7.549
  673SOL     OW 3857  10.876   0.208   6.977
  673SOL    HW1 3858  10.839   0.268   7.041
  673SOL    HW2 3859  10.959   0.247   6.953
  674SOL     OW 3860  13.503   1.122  10.942
  674SOL    HW1 3861  13.423   1.119  10.889
  674SOL    HW2 3862  13.554   1.194  10.904
  675SOL     OW 3863  12.729   7.690  12.169
  675SOL    HW1 3864  12.763   7.776  12.142
  675SOL    HW2 3865  12.791   7.627  12.133
  676SOL     OW 3866   6.856  12.652   1.711
  676SOL    HW1 3867   6.815  12.612   1.788
  676SOL    HW2 3868   6.862  12.745   1.732
  677SOL     OW 3869  12.889   2.855  12.197
  677SOL    HW1 3870  12.938   2.926  12.239
  677SOL    HW2 3871  12.948   2.780  12.201
  678SOL     OW 3872   6.461   6.334  13.799
  678SOL    HW1 3873   6.428   6.263  13.854
  678SOL    HW2 3874   6.549   6.351  13.832
  679SOL     OW 3875  12.535  12.034   8.987
  679SOL    HW1 3876  12.529  11.938   8.995
  679SOL    HW2 3877  12.483  12.067   9.061
  680SOL     OW 3878   6.109   4.535   5.436
  680SOL    HW1 3879   6.047   4.608   5.447
  680SOL    HW2 3880   6.062   4.460   5.472
  681SOL     OW 3881   1.257   8.345  13.764
  681SOL    HW1 3882   1.178   8.332  13.712
  681SOL    HW2 3883   1.322   8.286  13.725
  682SOL     OW 3884  13.391   2.286   1.502
  682SOL    HW1 3885  13.423   2.374   1.482
  682SOL    HW2 3886  13.296   2.293   1.496
  683SOL     OW 3887  11.165  14.208  11.791
  683SOL    HW1 3888  11.256  14.180  11.799
  683SOL    HW2 3889  11.118  14.128  11.766
  684SOL     OW 3890   3.593   9.934   1.746
  684SOL    HW1 3891   3.592  10.008   1.807
  684SOL    HW2 3892   3.517   9.882   1.770
  685SOL     OW 3893  10.656   6.631   4.736
  685SOL    HW1 3894  10.728   6.573   4.759
  685SOL    HW2 3895  10.603   6.636   4.815
  686SOL     OW 3896   0.888  11.133   4.322
  686SOL    HW1 3897   0.900  11.121   4.416
  686SOL    HW2 3898   0.977  11.142   4.287
  687SOL     OW 3899   0.913   9.013   3.744
  687SOL    HW1 3900   1.005   9.006   3.767
  687SOL    HW2 3901   0.912   9.035   3.651
  688SOL     OW 3902   8.299  12.840  14.762
  688SOL    HW1 3903   8.211  12.867  14.734
  688SOL    HW2 3904   8.310  12.752  14.726
  689SOL     OW 3905  10.556  13.891   4.817
  689SOL    HW1 3906  10.648  13.876   4.840
  689SOL    HW2 3907  10.516  13.919   4.899
  690SOL     OW 3908   6.841   2.870  13.584
  690SOL    HW1 3909   6.893   2.896  13.508
  690SOL    HW2 3910   6.884   2.790  13.616
  691SOL     OW 3911   6.191   1.069  11.331
  691SOL    HW1 3912   6.223   1.149  11.289
  691SOL    HW2 3913   6.194   1.002  11.262
  692SOL     OW 3914  12.956   7.703   5.832
  692SOL    HW1 3915  12.890   7.642   5.865
  692SOL    HW2 3916  12.957   7.690   5.738
  693SOL     OW 3917   7.384  12.103   5.411
  693SOL    HW1 3918   7.368  12.129   5.501
  693SOL    HW2 3919   7.367  12.009   5.409
  694SOL     OW 3920   7.272  10.296   7.729
  694SOL    HW1 3921   7.286  10.257   7.643
  694SOL    HW2 3922   7.191  10.257   7.761
  695SOL     OW 3923   0.719  13.615   2.625
  695SOL    HW1 3924   0.791  13.582   2.572
  695SOL    HW2 3925   0.755  13.691   2.670
  696SOL     OW 3926   4.395   8.700  14.876
  696SOL    HW1 3927   4.349   8.777  14.845
  696SOL    HW2 3928   4.327   8.632  14.882
  697SOL     OW 3929   3.570   9.274  13.082
  697SOL    HW1 3930   3.609   9.292  12.996
  697SOL    HW2 3931   3.622   9.202  13.117
  698SOL     OW 3932  10.566   5.285   2.662
  698SOL    HW1 3933  10.475   5.303   2.638
  698SOL    HW2 3934  10.611   5.370   2.652
  699SOL     OW 3935   4.837   9.022   4.979
  699SOL    HW1 3936   4.764   9.060   4.931
  699SOL    HW2 3937   4.912   9.029   4.919
  700SOL     OW 3938   1.281  13.202   5.897
  700SOL    HW1 3939   1.358  13.195   5.954
  700SOL    HW2 3940   1.285  13.123   5.843
  701SOL     OW 3941  12.024  12.535   5.812
  701SOL    HW1 3942  12.091  12.465   5.814
  701SOL    HW2 3943  12.036  12.581   5.896
  702SOL     OW 3944   8.812  10.339   8.776
  702SOL    HW1 3945   8.898  10.324   8.813
  702SOL    HW2 3946   8.827  10.343   8.681
  703SOL     OW 3947  12.488   4.211  11.707
  703SOL    HW1 3948  12.572   4.233  11.665
  703SOL    HW2 3949  12.486   4.266  11.786
  704SOL     OW 3950  11.931   1.711  10.144
  704SOL    HW1 3951  11.961   1.622  10.123
  704SOL    HW2 3952  11.877   1.700  10.222
  705SOL     OW 3953  14.808   5.694   7.637
  705SOL    HW1 3954  14.829   5.784   7.661
  705SOL    HW2 3955  14.712   5.691   7.640
  706SOL     OW 3956  13.395   3.541   5.218
  706SOL    HW1 3957  13.433   3.513   5.302
  706SOL    HW2 3958  13.300   3.543   5.235
  707SOL     OW 3959  14.085   4.198  10.855
  707SOL    HW1 3960  14.012   4.240  10.810
  707SOL    HW2 3961  14.046   4.124  10.901
  708SOL     OW 3962  13.198   1.703   4.595
  708SOL    HW1 3963  13.112   1.738   4.574
  708SOL    HW2 3964  13.230   1.667   4.512
  709SOL     OW 3965  12.649  12.434   1.210
  709SOL    HW1 3966  12.730  12.481   1.230
  709SOL    HW2 3967  12.676  12.343   1.203
  710SOL     OW 3968   1.072  13.298  13.136
  710SOL    HW1 3969   1.052  13.297  13.042
  710SOL    HW2 3970   1.066  13.206  13.163
  711SOL     OW 3971   7.474   8.455  12.022
  711SOL    HW1 3972   7.486   8.360  12.019
  711SOL    HW2 3973   7.563   8.490  12.030
  712SOL     OW 3974  11.382   3.052  13.567
  712SOL    HW1 3975  11.314   3.113  13.596
  712SOL    HW2 3976  11.367   3.043  13.473
  713SOL     OW 3977   4.963   3.055  11.556
  713SOL    HW1 3978   4.980   2.976  11.503
  713SOL    HW2 3979   4.916   3.114  11.497
  714SOL     OW 3980   0.205   1.602   8.802
  714SOL    HW1 3981   0.283   1.631   8.849
  714SOL    HW2 3982   0.149   1.564   8.870
  715SOL     OW 3983   2.878   9.633  10.580
  715SOL    HW1 3984   2.914   9.638  10.668
  715SOL    HW2 3985   2.937   9.574  10.533
  716SOL     OW 3986   1.784  13.293  13.448
  716SOL    HW1 3987   1.712  13.261  13.394
  716SOL    HW2 3988   1.775  13.246  13.531
  717SOL     OW 3989  11.510   3.366   3.626
  717SOL    HW1 3990  11.416   3.356   3.610
  717SOL    HW2 3991  11.516   3.391   3.719
  718SOL     OW 3992   5.957   3.872   6.453
  718SOL    HW1 3993   5.997   3.789   6.479
  718SOL    HW2 3994   6.025   3.937   6.468
  719SOL     OW 3995   1.780   5.866   8.579
  719SOL    HW1 3996   1.863   5.913   8.576
  719SOL    HW2 3997   1.784   5.814   8.659
  720SOL     OW 3998  13.734   9.997  13.340
  720SOL    HW1 3999  13.742  10.084  13.303
  720SOL    HW2 4000  13.804   9.946  13.299
  721SOL     OW 4001   6.534   7.983   5.816
  721SOL    HW1 4002   6.573   8.022   5.737
  721SOL    HW2 4003   6.443   7.969   5.792
  722SOL     OW 4004   2.476   5.766   8.969
  722SOL    HW1 4005   2.495   5.771   9.062
  722SOL    HW2 4006   2.389   5.806   8.960
  723SOL     OW 4007   0.835   0.484   7.213
  723SOL    HW1 4008   0.769   0.547   7.184
  723SOL    HW2 4009   0.804   0.454   7.298
  724SOL     OW 4010  14.173   7.675  14.844
  724SOL    HW1 4011  14.207   7.764  14.847
  724SOL    HW2 4012  14.192   7.645  14.755
  725SOL     OW 4013   5.176  14.712   0.643
  725SOL    HW1 4014   5.245  14.682   0.703
  725SOL    HW2 4015   5.103  14.653   0.659
  726SOL     OW 4016  14.731  13.771   6.646
  726SOL    HW1 4017  14.819  13.772   6.684
  726SOL    HW2 4018  14.677  13.816   6.710
  727SOL     OW 4019   8.520   4.711  13.967
  727SOL    HW1 4020   8.570   4.754  13.898
  727SOL    HW2 4021   8.464   4.780  14.003
  728SOL     OW 4022   7.100   1.560  10.987
  728SOL    HW1 4023   7.018   1.581  11.030
  728SOL    HW2 4024   7.078   1.489  10.926
  729SOL     OW 4025  11.669  10.825  13.175
  729SOL    HW1 4026  11.745  10.862  13.221
  729SOL    HW2 4027  11.703  10.748  13.131
  730SOL     OW 4028   5.759  10.057   3.020
  730SOL    HW1 4029   5.800   9.985   3.068
  730SOL    HW2 4030   5.667  10.032   3.012
  731SOL     OW 4031   0.730   7.209  13.469
  731SOL    HW1 4032   0.745   7.149  13.396
  731SOL    HW2 4033   0.656   7.171  13.516
  732SOL     OW 4034   6.709   0.543   7.395
  732SOL    HW1 4035   6.762   0.515   7.470
  732SOL    HW2 4036   6.624   0.502   7.410
  733SOL     OW 4037   2.776   0.927   3.306
  733SOL    HW1 4038   2.687   0.949   3.280
  733SOL    HW2 4039   2.829   1.002   3.278
  734SOL     OW 4040   1.503  14.561   2.876
  734SOL    HW1 4041   1.515  14.582   2.969
  734SOL    HW2 4042   1.454  14.479   2.876
  735SOL     OW 4043   8.188   4.685  10.253
  735SOL    HW1 4044   8.144   4.611  10.212
  735SOL    HW2 4045   8.131   4.708  10.326
  736SOL     OW 4046   7.578   4.951  12.833
  736SOL    HW1 4047   7.499   5.003  12.823
  736SOL    HW2 4048   7.636   5.005  12.887
  737SOL     OW 4049   5.890   0.231   6.532
  737SOL    HW1 4050   5.800   0.248   6.559
  737SOL    HW2 4051   5.940   0.306   6.567
  738SOL     OW 4052  11.730  13.813   8.267
  738SOL    HW1 4053  11.803  13.756   8.292
  738SOL    HW2 4054  11.652  13.767   8.300
  739SOL     OW 4055  13.555   8.195   2.943
  739SOL    HW1 4056  13.465   8.215   2.971
  739SOL    HW2 4057  13.549   8.106   2.907
  740SOL     OW 4058   9.958  14.569   6.151
  740SOL    HW1 4059   9.986  14.479   6.135
  740SOL    HW2 4060   9.908  14.564   6.232
  741SOL     OW 4061   2.642   9.381   0.779
  741SOL    HW1 4062   2.551   9.397   0.752
  741SOL    HW2 4063   2.686   9.465   0.764
  742SOL     OW 4064  13.520   8.048   0.299
  742SOL    HW1 4065  13.603   8.084   0.268
  742SOL    HW2 4066  13.499   8.099   0.378
  743SOL     OW 4067   6.960   7.116   7.205
  743SOL    HW1 4068   6.872   7.089   7.232
  743SOL    HW2 4069   7.016   7.097   7.280
  744SOL     OW 4070   3.516  12.984  10.597
  744SOL    HW1 4071   3.479  12.901  10.627
  744SOL    HW2 4072   3.476  12.999  10.511
  745SOL     OW 4073  10.170   8.548   2.608
  745SOL    HW1 4074  10.239   8.535   2.673
  745SOL    HW2 4075  10.089   8.540   2.658
  746SOL     OW 4076  11.660   4.832   0.200
  746SOL    HW1 4077  11.630   4.868   0.117
  746SOL    HW2 4078  11.704   4.750   0.176
  747SOL     OW 4079  13.348  11.667  11.082
  747SOL    HW1 4080  13.259  11.657  11.115
  747SOL    HW2 4081  13.399  11.599  11.127
  748SOL     OW 4082   9.567  11.677   6.619
  748SOL    HW1 4083   9.606  11.760   6.647
  748SOL    HW2 4084   9.640  11.614   6.623
  749SOL     OW 4085  13.728   5.057   0.140
  749SOL    HW1 4086  13.751   5.067   0.233
  749SOL    HW2 4087  13.675   5.134   0.121
  750SOL     OW 4088  11.785   2.786   1.045
  750SOL    HW1 4089  11.794   2.878   1.071
  750SOL    HW2 4090  11.773   2.788   0.951
  751SOL     OW 4091  11.855  10.924  10.935
  751SOL    HW1 4092  11.781  10.903  10.994
  751SOL    HW2 4093  11.920  10.857  10.955
  752SOL     OW 4094   9.228   4.564  10.973
  752SOL    HW1 4095   9.262   4.508  10.904
  752SOL    HW2 4096   9.138   4.533  10.986
  753SOL     OW 4097   1.191   6.908  11.259
  753SOL    HW1 4098   1.260   6.906  11.325
  753SOL    HW2 4099   1.110   6.896  11.309
  754SOL     OW 4100  12.899   0.331  13.266
  754SOL    HW1 4101  12.975   0.287  13.305
  754SOL    HW2 4102  12.827   0.267  13.277
  755SOL     OW 4103  12.062   3.200  10.221
  755SOL    HW1 4104  12.032   3.289  10.236
  755SOL    HW2 4105  12.138   3.210  10.163
  756SOL     OW 4106  10.880   2.600   0.504
  756SOL    HW1 4107  10.873   2.599   0.409
  756SOL    HW2 4108  10.834   2.521   0.533
  757SOL     OW 4109  12.442   1.056  10.353
  757SOL    HW1 4110  12.419   0.969  10.319
  757SOL    HW2 4111  12.456   1.109  10.275
  758SOL     OW 4112   4.819   8.814   0.556
  758SOL    HW1 4113   4.841   8.905   0.577
  758SOL    HW2 4114   4.883   8.789   0.490
  759SOL     OW 4115   9.379   6.633   2.216
  759SOL    HW1 4116   9.298   6.666   2.179
  759SOL    HW2 4117   9.381   6.540   2.190
  760SOL     OW 4118  12.280   9.340   8.085
  760SOL    HW1 4119  12.271   9.282   8.161
  760SOL    HW2 4120  12.190   9.355   8.056
  761SOL     OW 4121   7.969   9.003   1.779
  761SOL    HW1 4122   7.947   8.957   1.698
  761SOL    HW2 4123   8.057   8.972   1.801
  762SOL     OW 4124   6.834  10.239  13.408
  762SOL    HW1 4125   6.842  10.335  13.404
  762SOL    HW2 4126   6.923  10.208  13.421
  763SOL     OW 4127   9.805  12.796   3.648
  763SOL    HW1 4128   9.893  12.824   3.624
  763SOL    HW2 4129   9.812  12.702   3.661
  764SOL     OW 4130   7.400   6.241   8.081
  764SOL    HW1 4131   7.318   6.249   8.130
  764SOL    HW2 4132   7.401   6.149   8.053
  765SOL     OW 4133   0.352  12.700   2.710
  765SOL    HW1 4134   0.410  12.774   2.725
  765SOL    HW2 4135   0.278  12.714   2.769
  766SOL     OW 4136  10.816   3.638   9.454
  766SOL    HW1 4137  10.822   3.577   9.380
  766SOL    HW2 4138  10.848   3.588   9.529
  767SOL     OW 4139  11.025   7.493   2.420
  767SOL    HW1 4140  11.028   7.583   2.453
  767SOL    HW2 4141  10.932   7.477   2.404
  768SOL     OW 4142  11.316   8.871   0.860
  768SOL    HW1 4143  11.315   8.783   0.897
  768SOL    HW2 4144  11.258   8.922   0.918
  769SOL     OW 4145   9.592   9.383   2.195
  769SOL    HW1 4146   9.651   9.356   2.266
  769SOL    HW2 4147   9.534   9.308   2.182
  770SOL     OW 4148  11.321   4.073   0.157
  770SOL    HW1 4149  11.358   3.996   0.201
  770SOL    HW2 4150  11.389   4.100   0.095
  771SOL     OW 4151   4.994   6.912   7.887
  771SOL    HW1 4152   4.908   6.915   7.928
  771SOL    HW2 4153   5.047   6.860   7.947
  772SOL     OW 4154   7.987   1.633  14.564
  772SOL    HW1 4155   7.952   1.594  14.484
  772SOL    HW2 4156   8.042   1.704  14.533
  773SOL     OW 4157   7.791  10.011   1.465
  773SOL    HW1 4158   7.716   9.965   1.428
  773SOL    HW2 4159   7.858  10.007   1.396
  774SOL     OW 4160   5.439   0.177   1.178
  774SOL    HW1 4161   5.400   0.098   1.215
  774SOL    HW2 4162   5.378   0.247   1.199
  775SOL     OW 4163   1.870   1.188   0.661
  775SOL    HW1 4164   1.895   1.096   0.666
  775SOL    HW2 4165   1.947   1.232   0.623
  776SOL     OW 4166  12.963  13.924  12.857
  776SOL    HW1 4167  12.887  13.980  12.840
  776SOL    HW2 4168  12.970  13.921  12.953
  777SOL     OW 4169   1.323   5.396  11.807
  777SOL    HW1 4170   1.383   5.346  11.751
  777SOL    HW2 4171   1.250   5.336  11.823
  778SOL     OW 4172  10.690  12.931   5.572
  778SOL    HW1 4173  10.731  12.845   5.575
  778SOL    HW2 4174  10.622  12.922   5.505
  779SOL     OW 4175   1.430  11.355  13.535
  779SOL    HW1 4176   1.496  11.302  13.490
  779SOL    HW2 4177   1.354  11.298  13.540
  780SOL     OW 4178  13.816  12.288   5.817
  780SOL    HW1 4179  13.887  12.249   5.766
  780SOL    HW2 4180  13.797  12.371   5.772
  781SOL     OW 4181   7.637   3.485  10.346
  781SOL    HW1 4182   7.635   3.396  10.381
  781SOL    HW2 4183   7.691   3.534  10.408
  782SOL     OW 4184   5.412   1.933   9.640
  782SOL    HW1 4185   5.474   1.957   9.571
  782SOL    HW2 4186   5.452   1.966   9.720
  783SOL     OW 4187   4.677   6.084  13.027
  783SOL    HW1 4188   4.629   6.163  13.050
  783SOL    HW2 4189   4.618   6.036  12.969
  784SOL     OW 4190   6.909  10.430   7.455
  784SOL    HW1 4191   6.989  10.465   7.415
  784SOL    HW2 4192   6.918  10.335   7.448
  785SOL     OW 4193   8.170   4.418   4.403
  785SOL    HW1 4194   8.260   4.445   4.380
  785SOL    HW2 4195   8.169   4.324   4.387
  786SOL     OW 4196   0.871   6.225   0.568
  786SOL    HW1 4197   0.864   6.309   0.523
  786SOL    HW2 4198   0.805   6.170   0.526
  787SOL     OW 4199   0.749   2.372   4.809
  787SOL    HW1 4200   0.677   2.402   4.865
  787SOL    HW2 4201   0.728   2.405   4.722
  788SOL     OW 4202  10.131   7.380   4.647
  788SOL    HW1 4203  10.042   7.415   4.639
  788SOL    HW2 4204  10.176   7.442   4.705
  789SOL     OW 4205   6.992  13.888   3.543
  789SOL    HW1 4206   6.916  13.901   3.600
  789SOL    HW2 4207   7.060  13.944   3.579
  790SOL     OW 4208  10.004   8.043   0.400
  790SOL    HW1 4209  10.044   8.036   0.313
  790SOL    HW2 4210  10.056   8.110   0.445
  791SOL     OW 4211   5.463   8.300   8.410
  791SOL    HW1 4212   5.439   8.295   8.503
  791SOL    HW2 4213   5.443   8.390   8.385
  792SOL     OW 4214   8.587  10.428   7.582
  792SOL    HW1 4215   8.514  10.488   7.562
  792SOL    HW2 4216   8.556  10.376   7.655
  793SOL     OW 4217  12.362   5.021   6.998
  793SOL    HW1 4218  12.449   5.061   6.998
  793SOL    HW2 4219  12.344   5.000   7.089
  794SOL     OW 4220   5.052   1.413   3.701
  794SOL    HW1 4221   5.143   1.384   3.704
  794SOL    HW2 4222   5.038   1.459   3.784
  795SOL     OW 4223   8.557  10.950   2.645
  795SOL    HW1 4224   8.589  10.860   2.643
  795SOL    HW2 4225   8.462  10.942   2.649
  796SOL     OW 4226  12.502   1.279   7.388
  796SOL    HW1 4227  12.419   1.232   7.399
  796SOL    HW2 4228  12.544   1.235   7.315
  797SOL     OW 4229   0.638   2.529   9.947
  797SOL    HW1 4230   0.626   2.439   9.915
  797SOL    HW2 4231   0.676   2.519  10.034
  798SOL     OW 4232  13.921   9.794  10.272
  798SOL    HW1 4233  13.941   9.861  10.338
  798SOL    HW2 4234  14.005   9.770  10.234
  799SOL     OW 4235  13.348   8.917  10.701
  799SOL    HW1 4236  13.335   8.850  10.769
  799SOL    HW2 4237  13.341   9.000  10.748
  800SOL     OW 4238   3.508   2.770  13.327
  800SOL    HW1 4239   3.537   2.835  13.263
  800SOL    HW2 4240   3.457   2.707  13.276
  801SOL     OW 4241   2.081  13.442  13.661
  801SOL    HW1 4242   2.149  13.498  13.622
  801SOL    HW2 4243   2.118  13.354  13.660
  802SOL     OW 4244   1.765   4.145  10.041
  802SOL    HW1 4245   1.762   4.050  10.035
  802SOL    HW2 4246   1.749   4.175   9.951
  803SOL     OW 4247   1.480   0.479  10.369
  803SOL    HW1 4248   1.396   0.500  10.329
  803SOL    HW2 4249   1.544   0.530  10.319
  804SOL     OW 4250  12.428   5.323  11.224
  804SOL    HW1 4251  12.459   5.406  11.261
  804SOL    HW2 4252  12.487   5.306  11.151
  805SOL     OW 4253   7.425   5.925   4.787
  805SOL    HW1 4254   7.417   5.835   4.819
  805SOL    HW2 4255   7.392   5.979   4.859
  806SOL     OW 4256   4.696  11.473   6.722
  806SOL    HW1 4257   4.775  11.526   6.718
  806SOL    HW2 4258   4.655  11.484   6.636
  807SOL     OW 4259   9.678   4.523  12.818
  807SOL    HW1 4260   9.623   4.592  12.782
  807SOL    HW2 4261   9.751   4.568  12.859
  808SOL     OW 4262  14.392   8.236   5.452
  808SOL    HW1 4263  14.349   8.295   5.514
  808SOL    HW2 4264  14.417   8.160   5.504
  809SOL     OW 4265  13.758  10.814   3.518
  809SOL    HW1 4266  13.785  10.767   3.598
  809SOL    HW2 4267  13.731  10.900   3.549
  810SOL     OW 4268  11.821   7.683   7.173
  810SOL    HW1 4269  11.774   7.639   7.103
  810SOL    HW2 4270  11.809   7.776   7.156
  811SOL     OW 4271   7.185  14.689   1.560
  811SOL    HW1 4272   7.128  14.755   1.600
  811SOL    HW2 4273   7.125  14.620   1.531
  812SOL     OW 4274  10.031   6.558  13.630
  812SOL    HW1 4275  10.102   6.595  13.681
  812SOL    HW2 4276  10.062   6.471  13.605
  813SOL     OW 4277   3.982  13.305   5.928
  813SOL    HW1 4278   4.001  13.243   5.999
  813SOL    HW2 4279   3.888  13.293   5.911
  814SOL     OW 4280  12.510   1.919   1.869
  814SOL    HW1 4281  12.498   1.976   1.945
  814SOL    HW2 4282  12.597   1.880   1.881
  815SOL     OW 4283   9.833   3.501   6.066
  815SOL    HW1 4284   9.905   3.536   6.118
  815SOL    HW2 4285   9.754   3.535   6.109
  816SOL     OW 4286   8.582  10.592   6.691
  816SOL    HW1 4287   8.639  10.526   6.650
  816SOL    HW2 4288   8.497  10.550   6.696
  817SOL     OW 4289  11.015   1.836  10.912
  817SOL    HW1 4290  11.006   1.783  10.833
  817SOL    HW2 4291  11.044   1.775  10.979
  818SOL     OW 4292   5.022   9.215   0.637
  818SOL    HW1 4293   4.997   9.308   0.633
  818SOL    HW2 4294   5.114   9.216   0.666
  819SOL     OW 4295  13.221   5.342  10.113
  819SOL    HW1 4296  13.225   5.402  10.039
  819SOL    HW2 4297  13.273   5.266  10.085
  820SOL     OW 4298  10.670   1.736   2.787
  820SOL    HW1 4299  10.655   1.780   2.870
  820SOL    HW2 4300  10.723   1.798   2.736
  821SOL     OW 4301   8.037   3.423   9.899
  821SOL    HW1 4302   8.001   3.335   9.903
  821SOL    HW2 4303   7.985   3.467   9.831
  822SOL     OW 4304   4.777  13.387   3.163
  822SOL    HW1 4305   4.871  13.383   3.148
  822SOL    HW2 4306   4.768  13.413   3.255
  823SOL     OW 4307   0.815   2.056  10.672
  823SOL    HW1 4308   0.734   2.037  10.719
  823SOL    HW2 4309   0.866   1.975  10.680
  824SOL     OW 4310   2.444  10.199  10.120
  824SOL    HW1 4311   2.354  10.171  10.137
  824SOL    HW2 4312   2.476  10.228  10.206
  825SOL     OW 4313   8.152   8.613   0.677
  825SOL    HW1 4314   8.194   8.677   0.619
  825SOL    HW2 4315   8.082   8.663   0.721
  826SOL     OW 4316  12.222  10.599   1.545
  826SOL    HW1 4317  12.298  10.546   1.522
  826SOL    HW2 4318  12.152  10.567   1.489
  827SOL     OW 4319   7.274   3.334   2.980
  827SOL    HW1 4320   7.200   3.391   3.002
  827SOL    HW2 4321   7.293   3.287   3.062
  828SOL     OW 4322   4.466   1.288  13.506
  828SOL    HW1 4323   4.559   1.309  13.503
  828SOL    HW2 4324   4.448   1.247  13.421
  829SOL     OW 4325  14.263  13.959   9.217
  829SOL    HW1 4326  14.271  14.050   9.244
  829SOL    HW2 4327  14.174  13.934   9.240
  830SOL     OW 4328  10.806   3.813   8.828
  830SOL    HW1 4329  10.854   3.755   8.768
  830SOL    HW2 4330  10.726   3.835   8.780
  831SOL     OW 4331  12.828  14.771   5.768
  831SOL    HW1 4332  12.892  14.839   5.789
  831SOL    HW2 4333  12.789  14.800   5.685
  832SOL     OW 4334  10.940  10.069   1.473
  832SOL    HW1 4335  10.844  10.080   1.471
  832SOL    HW2 4336  10.957   9.996   1.414
  833SOL     OW 4337  10.870   5.124   5.462
  833SOL    HW1 4338  10.788   5.077   5.474
  833SOL    HW2 4339  10.864   5.200   5.520
  834SOL     OW 4340   2.415   8.892  14.220
  834SOL    HW1 4341   2.392   8.939  14.141
  834SOL    HW2 4342   2.332   8.857  14.253
  835SOL     OW 4343   3.539  10.953   2.285
  835SOL    HW1 4344   3.617  10.992   2.244
  835SOL    HW2 4345   3.473  11.022   2.281
  836SOL     OW 4346   6.465   3.718  14.799
  836SOL    HW1 4347   6.414   3.690  14.723
  836SOL    HW2 4348   6.404   3.771  14.851
  837SOL     OW 4349  14.427   5.084  14.527
  837SOL    HW1 4350  14.474   5.154  14.573
  837SOL    HW2 4351  14.496   5.023  14.500
  838SOL     OW 4352   5.440  11.635  10.413
  838SOL    HW1 4353   5.385  11.573  10.460
  838SOL    HW2 4354   5.527  11.593  10.412
  839SOL     OW 4355  13.484  11.087   5.967
  839SOL    HW1 4356  13.410  11.106   5.910
  839SOL    HW2 4357  13.517  11.002   5.936
  840SOL     OW 4358   5.776  10.742   1.763
  840SOL    HW1 4359   5.823  10.660   1.749
  840SOL    HW2 4360   5.829  10.790   1.826
  841SOL     OW 4361   4.995  14.772   5.878
  841SOL    HW1 4362   5.041  14.834   5.934
  841SOL    HW2 4363   5.057  14.754   5.806
  842SOL     OW 4364  12.498   8.805   6.095
  842SOL    HW1 4365  12.588   8.799   6.063
  842SOL    HW2 4366  12.458   8.874   6.042
  843SOL     OW 4367  12.603   2.645  13.167
  843SOL    HW1 4368  12.639   2.718  13.117
  843SOL    HW2 4369  12.679   2.590  13.186
  844SOL     OW 4370   4.528   5.640  14.357
  844SOL    HW1 4371   4.533   5.653  14.263
  844SOL    HW2 4372   4.600   5.581  14.378
  845SOL     OW 4373  11.609   4.166  11.151
  845SOL    HW1 4374  11.544   4.232  11.175
  845SOL    HW2 4375  11.558   4.093  11.117
  846SOL     OW 4376  14.451   3.991  12.622
  846SOL    HW1 4377  14.364   3.985  12.581
  846SOL    HW2 4378  14.451   3.922  12.688
  847SOL     OW 4379   6.200   9.093   0.976
  847SOL    HW1 4380   6.283   9.101   1.023
  847SOL    HW2 4381   6.225   9.070   0.887
  848SOL     OW 4382   6.475  14.841   6.713
  848SOL    HW1 4383   6.435   0.027   6.659
  848SOL    HW2 4384   6.512  14.779   6.650
  849SOL     OW 4385  11.021   0.694   8.467
  849SOL    HW1 4386  11.050   0.652   8.548
  849SOL    HW2 4387  10.958   0.760   8.496
  850SOL     OW 4388   4.318   0.532  11.934
  850SOL    HW1 4389   4.364   0.448  11.934
  850SOL    HW2 4390   4.231   0.512  11.900
  851SOL     OW 4391   3.619   1.422   5.713
  851SOL    HW1 4392   3.542   1.469   5.746
  851SOL    HW2 4393   3.679   1.491   5.687
  852SOL     OW 4394  13.903   5.436  10.976
  852SOL    HW1 4395  13.995   5.414  10.962
  852SOL    HW2 4396  13.904   5.497  11.050
  853SOL     OW 4397   6.022   6.295   1.206
  853SOL    HW1 4398   6.082   6.222   1.222
  853SOL    HW2 4399   5.935   6.257   1.221
  854SOL     OW 4400   9.606  12.375  12.125
  854SOL    HW1 4401   9.550  12.308  12.084
  854SOL    HW2 4402   9.563  12.394  12.209
  855SOL     OW 4403  10.928   3.020  10.139
  855SOL    HW1 4404  10.855   3.070  10.102
  855SOL    HW2 4405  10.902   3.004  10.230
  856SOL     OW 4406  10.944   2.143   2.767
  856SOL    HW1 4407  10.945   2.140   2.672
  856SOL    HW2 4408  10.855   2.120   2.791
  857SOL     OW 4409  10.511  10.940  11.332
  857SOL    HW1 4410  10.423  10.907  11.352
  857SOL    HW2 4411  10.557  10.938  11.416
  858SOL     OW 4412  14.350   0.818   2.309
  858SOL    HW1 4413  14.429   0.765   2.294
  858SOL    HW2 4414  14.362   0.894   2.252
  859SOL     OW 4415   9.457   2.778  10.727
  859SOL    HW1 4416   9.398   2.754  10.798
  859SOL    HW2 4417   9.458   2.874  10.729
  860SOL     OW 4418  14.126   2.724  13.374
  860SOL    HW1 4419  14.175   2.685  13.301
  860SOL    HW2 4420  14.034   2.715  13.347
  861SOL     OW 4421   0.065  10.350  11.501
  861SOL    HW1 4422   0.146  10.371  11.547
  861SOL    HW2 4423  14.879  10.354  11.568
  862SOL     OW 4424   1.512   2.758  10.869
  862SOL    HW1 4425   1.592   2.790  10.911
  862SOL    HW2 4426   1.461   2.838  10.853
  863SOL     OW 4427  14.387   5.022   0.444
  863SOL    HW1 4428  14.344   4.944   0.481
  863SOL    HW2 4429  14.338   5.041   0.365
  864SOL     OW 4430   5.171   9.427   8.174
  864SOL    HW1 4431   5.181   9.521   8.156
  864SOL    HW2 4432   5.170   9.386   8.088
  865SOL     OW 4433  13.946  14.867   5.036
  865SOL    HW1 4434  13.936  14.797   5.100
  865SOL    HW2 4435  13.896  14.837   4.960
  866SOL     OW 4436  12.688   3.273   0.142
  866SOL    HW1 4437  12.742   3.307   0.213
  866SOL    HW2 4438  12.709   3.328   0.067
  867SOL     OW 4439  10.674   7.040   5.184
  867SOL    HW1 4440  10.721   6.957   5.187
  867SOL    HW2 4441  10.707   7.089   5.259
  868SOL     OW 4442  14.840   3.977   9.047
  868SOL    HW1 4443  14.845   3.940   9.135
  868SOL    HW2 4444  14.775   3.923   9.002
  869SOL     OW 4445   3.321   6.178   2.662
  869SOL    HW1 4446   3.231   6.146   2.663
  869SOL    HW2 4447   3.313   6.273   2.657
  870SOL     OW 4448   9.893  12.130   6.497
  870SOL    HW1 4449   9.942  12.123   6.579
  870SOL    HW2 4450   9.959  12.113   6.429
  871SOL     OW 4451   0.723   0.888   5.533
  871SOL    HW1 4452   0.815   0.868   5.546
  871SOL    HW2 4453   0.714   0.903   5.439
  872SOL     OW 4454   3.228   9.147  13.947
  872SOL    HW1 4455   3.276   9.230  13.949
  872SOL    HW2 4456   3.231   9.115  14.037
  873SOL     OW 4457   2.652   7.926  13.418
  873SOL    HW1 4458   2.738   7.884  13.418
  873SOL    HW2 4459   2.658   7.994  13.351
  874SOL     OW 4460  12.895   0.252   3.101
  874SOL    HW1 4461  12.806   0.230   3.072
  874SOL    HW2 4462  12.882   0.309   3.177
  875SOL     OW 4463   8.282  14.872   7.653
  875SOL    HW1 4464   8.310  14.879   7.562
  875SOL    HW2 4465   8.323  14.791   7.684
  876SOL     OW 4466   9.571   5.434   6.275
  876SOL    HW1 4467   9.513   5.506   6.299
  876SOL    HW2 4468   9.624   5.469   6.203
  877SOL     OW 4469  13.988   3.659  13.316
  877SOL    HW1 4470  13.915   3.691  13.264
  877SOL    HW2 4471  13.976   3.698  13.403
  878SOL     OW 4472  10.126   0.784   7.700
  878SOL    HW1 4473  10.130   0.865   7.752
  878SOL    HW2 4474  10.187   0.799   7.628
  879SOL     OW 4475  10.431   1.478  14.797
  879SOL    HW1 4476  10.369   1.405  14.801
  879SOL    HW2 4477  10.468   1.473  14.709
  880SOL     OW 4478  11.677  13.762   5.686
  880SOL    HW1 4479  11.621  13.790   5.614
  880SOL    HW2 4480  11.627  13.693   5.730
  881SOL     OW 4481  11.163   7.062   4.508
  881SOL    HW1 4482  11.107   7.137   4.528
  881SOL    HW2 4483  11.232   7.099   4.452
  882SOL     OW 4484   1.705   6.498   8.267
  882SOL    HW1 4485   1.616   6.534   8.264
  882SOL    HW2 4486   1.741   6.516   8.180
  883SOL     OW 4487   5.720   2.577   4.749
  883SOL    HW1 4488   5.745   2.509   4.687
  883SOL    HW2 4489   5.663   2.636   4.699
  884SOL     OW 4490   7.677   7.415  14.590
  884SOL    HW1 4491   7.681   7.502  14.551
  884SOL    HW2 4492   7.707   7.357  14.520
  885SOL     OW 4493   9.541  10.305   1.359
  885SOL    HW1 4494   9.623  10.297   1.408
  885SOL    HW2 4495   9.494  10.375   1.405
  886SOL     OW 4496   0.388  11.606   6.007
  886SOL    HW1 4497   0.316  11.611   5.945
  886SOL    HW2 4498   0.350  11.565   6.085
  887SOL     OW 4499   7.410   4.159   4.139
  887SOL    HW1 4500   7.409   4.090   4.073
  887SOL    HW2 4501   7.327   4.148   4.186
  888SOL     OW 4502   2.706  10.404  12.864
  888SOL    HW1 4503   2.799  10.416  12.847
  888SOL    HW2 4504   2.684  10.321  12.824
  889SOL     OW 4505   7.438   0.045  14.236
  889SOL    HW1 4506   7.349   0.067  14.266
  889SOL    HW2 4507   7.425  14.854  14.175
  890SOL     OW 4508  11.084   0.407   7.355
  890SOL    HW1 4509  11.168   0.451   7.368
  890SOL    HW2 4510  11.022   0.478   7.339
  891SOL     OW 4511   9.056   7.155   4.193
  891SOL    HW1 4512   8.970   7.172   4.155
  891SOL    HW2 4513   9.039   7.139   4.286
  892SOL     OW 4514   6.176  13.295   8.939
  892SOL    HW1 4515   6.209  13.320   8.852
  892SOL    HW2 4516   6.179  13.376   8.990
  893SOL     OW 4517   4.569   5.621  10.498
  893SOL    HW1 4518   4.523   5.569  10.432
  893SOL    HW2 4519   4.644   5.566  10.524
  894SOL     OW 4520  10.254  14.022   1.951
  894SOL    HW1 4521  10.177  14.054   1.998
  894SOL    HW2 4522  10.316  14.095   1.955
  895SOL     OW 4523   7.913   4.148   0.883
  895SOL    HW1 4524   7.916   4.093   0.805
  895SOL    HW2 4525   7.928   4.237   0.850
  896SOL     OW 4526  11.246  13.831  12.928
  896SOL    HW1 4527  11.199  13.758  12.969
  896SOL    HW2 4528  11.218  13.829  12.837
  897SOL     OW 4529  11.426  13.432   7.876
  897SOL    HW1 4530  11.493  13.500   7.873
  897SOL    HW2 4531  11.468  13.357   7.916
  898SOL     OW 4532   1.354   4.041  10.375
  898SOL    HW1 4533   1.397   4.016  10.456
  898SOL    HW2 4534   1.263   4.012  10.385
  899SOL     OW 4535   6.385   8.687   0.467
  899SOL    HW1 4536   6.431   8.620   0.417
  899SOL    HW2 4537   6.297   8.689   0.430
  900SOL     OW 4538  14.012   4.365   0.277
  900SOL    HW1 4539  13.964   4.297   0.230
  900SOL    HW2 4540  14.012   4.336   0.368
  901SOL     OW 4541   7.967  10.260  14.705
  901SOL    HW1 4542   8.003  10.313  14.776
  901SOL    HW2 4543   7.882  10.300  14.685
  902SOL     OW 4544   7.076   2.726   3.971
  902SOL    HW1 4545   7.023   2.695   3.898
  902SOL    HW2 4546   7.015   2.733   4.044
  903SOL     OW 4547   1.676   4.626  12.369
  903SOL    HW1 4548   1.648   4.699  12.424
  903SOL    HW2 4549   1.676   4.661  12.280
  904SOL     OW 4550   2.645   7.949   9.290
  904SOL    HW1 4551   2.704   8.007   9.339
  904SOL    HW2 4552   2.636   7.990   9.204
  905SOL     OW 4553   4.557   7.871  11.460
  905SOL    HW1 4554   4.569   7.853  11.553
  905SOL    HW2 4555   4.544   7.966  11.456
  906SOL     OW 4556   5.596   5.375   9.680
  906SOL    HW1 4557   5.581   5.285   9.709
  906SOL    HW2 4558   5.578   5.375   9.586
  907SOL     OW 4559  12.920   5.624  11.555
  907SOL    HW1 4560  12.895   5.629  11.647
  907SOL    HW2 4561  12.851   5.572  11.514
  908SOL     OW 4562   7.421   0.566   3.083
  908SOL    HW1 4563   7.334   0.595   3.113
  908SOL    HW2 4564   7.421   0.582   2.989
  909SOL     OW 4565   2.697   7.160   4.005
  909SOL    HW1 4566   2.698   7.102   4.081
  909SOL    HW2 4567   2.717   7.247   4.039
  910SOL     OW 4568   3.765   2.453   9.848
  910SOL    HW1 4569   3.763   2.450   9.752
  910SOL    HW2 4570   3.680   2.487   9.873
  911SOL     OW 4571   6.788   4.754  12.299
  911SOL    HW1 4572   6.704   4.800  12.296
  911SOL    HW2 4573   6.843   4.809  12.355
  912SOL     OW 4574   1.165  11.690   1.797
  912SOL    HW1 4575   1.179  11.618   1.859
  912SOL    HW2 4576   1.253  11.715   1.769
  913SOL     OW 4577   8.177   6.326   1.303
  913SOL    HW1 4578   8.133   6.411   1.306
  913SOL    HW2 4579   8.109   6.264   1.274
  914SOL     OW 4580   6.025  14.684  12.297
  914SOL    HW1 4581   6.059  14.773  12.294
  914SOL    HW2 4582   6.103  14.628  12.296
  915SOL     OW 4583  14.773   3.893  14.113
  915SOL    HW1 4584  14.691   3.941  14.099
  915SOL    HW2 4585  14.839   3.962  14.118
  916SOL     OW 4586  13.438   5.316   4.410
  916SOL    HW1 4587  13.354   5.271   4.414
  916SOL    HW2 4588  13.495   5.265   4.467
  917SOL     OW 4589   7.471  10.872   8.200
  917SOL    HW1 4590   7.512  10.932   8.262
  917SOL    HW2 4591   7.507  10.897   8.115
  918SOL     OW 4592   3.865  14.348  13.257
  918SOL    HW1 4593   3.824  14.422  13.212
  918SOL    HW2 4594   3.795  14.310  13.310
  919SOL     OW 4595   2.897   0.172   1.496
  919SOL    HW1 4596   2.869   0.263   1.489
  919SOL    HW2 4597   2.992   0.176   1.486
  920SOL     OW 4598  10.547   2.835  13.792
  920SOL    HW1 4599  10.456   2.807  13.799
  920SOL    HW2 4600  10.598   2.756  13.813
  921SOL     OW 4601  14.585   3.297  11.124
  921SOL    HW1 4602  14.630   3.318  11.043
  921SOL    HW2 4603  14.522   3.368  11.136
  922SOL     OW 4604   9.982  10.255   2.781
  922SOL    HW1 4605   9.971  10.228   2.690
  922SOL    HW2 4606  10.059  10.206   2.812
  923SOL     OW 4607  12.357   0.728   5.184
  923SOL    HW1 4608  12.310   0.755   5.105
  923SOL    HW2 4609  12.441   0.773   5.178
  924SOL     OW 4610  12.401   5.906   2.232
  924SOL    HW1 4611  12.347   5.982   2.213
  924SOL    HW2 4612  12.447   5.929   2.313
  925SOL     OW 4613   5.740  14.288   9.231
  925SOL    HW1 4614   5.769  14.197   9.236
  925SOL    HW2 4615   5.820  14.338   9.213
  926SOL     OW 4616   4.618  14.478   3.549
  926SOL    HW1 4617   4.690  14.417   3.536
  926SOL    HW2 4618   4.557  14.459   3.477
  927SOL     OW 4619   9.700   2.138  13.847
  927SOL    HW1 4620   9.727   2.140  13.755
  927SOL    HW2 4621   9.743   2.060  13.883
  928SOL     OW 4622   7.719   4.703  14.758
  928SOL    HW1 4623   7.767   4.784  14.742
  928SOL    HW2 4624   7.695   4.671  14.671
  929SOL     OW 4625   8.924   2.634   7.106
  929SOL    HW1 4626   8.883   2.634   7.019
  929SOL    HW2 4627   9.018   2.643   7.088
  930SOL     OW 4628   1.247   8.706  14.220
  930SOL    HW1 4629   1.212   8.763  14.151
  930SOL    HW2 4630   1.332   8.677  14.187
  931SOL     OW 4631   6.742   8.846   6.601
  931SOL    HW1 4632   6.791   8.905   6.659
  931SOL    HW2 4633   6.795   8.841   6.521
  932SOL     OW 4634   2.459   9.261   9.133
  932SOL    HW1 4635   2.463   9.337   9.191
  932SOL    HW2 4636   2.460   9.185   9.191
  933SOL     OW 4637   9.943   7.382   7.946
  933SOL    HW1 4638   9.932   7.476   7.958
  933SOL    HW2 4639   9.899   7.343   8.022
  934SOL     OW 4640  13.172  10.755   5.233
  934SOL    HW1 4641  13.119  10.796   5.302
  934SOL    HW2 4642  13.184  10.824   5.168
  935SOL     OW 4643   6.250   1.301   9.394
  935SOL    HW1 4644   6.234   1.304   9.299
  935SOL    HW2 4645   6.245   1.392   9.422
  936SOL     OW 4646   9.130   5.939   9.726
  936SOL    HW1 4647   9.121   5.997   9.650
  936SOL    HW2 4648   9.212   5.965   9.767
  937SOL     OW 4649  11.598   0.168  11.349
  937SOL    HW1 4650  11.557   0.221  11.418
  937SOL    HW2 4651  11.631   0.091  11.395
  938SOL     OW 4652   8.515  12.799   1.933
  938SOL    HW1 4653   8.486  12.749   1.857
  938SOL    HW2 4654   8.609  12.814   1.917
  939SOL     OW 4655  12.756   8.919   8.277
  939SOL    HW1 4656  12.703   8.840   8.285
  939SOL    HW2 4657  12.830   8.893   8.223
  940SOL     OW 4658   3.124   3.287   5.546
  940SOL    HW1 4659   3.141   3.378   5.522
  940SOL    HW2 4660   3.035   3.270   5.514
  941SOL     OW 4661   1.883  12.724  14.829
  941SOL    HW1 4662   1.958  12.742  14.772
  941SOL    HW2 4663   1.813  12.779  14.795
  942SOL     OW 4664   3.522   5.088   3.329
  942SOL    HW1 4665   3.454   5.155   3.325
  942SOL    HW2 4666   3.482   5.011   3.289
  943SOL     OW 4667   2.574   2.923   4.880
  943SOL    HW1 4668   2.641   2.944   4.945
  943SOL    HW2 4669   2.513   2.865   4.925
  944SOL     OW 4670   5.391   5.406  11.290
  944SOL    HW1 4671   5.317   5.460  11.264
  944SOL    HW2 4672   5.467   5.462  11.277
  945SOL     OW 4673   3.290   0.106   8.736
  945SOL    HW1 4674   3.292   0.011   8.722
  945SOL    HW2 4675   3.378   0.136   8.710
  946SOL     OW 4676   0.296   8.473  11.357
  946SOL    HW1 4677   0.229   8.416  11.395
  946SOL    HW2 4678   0.283   8.463  11.262
  947SOL     OW 4679   5.311   9.034   9.233
  947SOL    HW1 4680   5.368   8.968   9.274
  947SOL    HW2 4681   5.306   9.104   9.297
  948SOL     OW 4682   7.390  12.452   5.587
  948SOL    HW1 4683   7.339  12.532   5.576
  948SOL    HW2 4684   7.437  12.442   5.503
  949SOL     OW 4685   4.104   5.052   9.820
  949SOL    HW1 4686   4.141   4.982   9.766
  949SOL    HW2 4687   4.017   5.020   9.845
  950SOL     OW 4688  12.638  11.770   9.341
  950SOL    HW1 4689  12.678  11.854   9.321
  950SOL    HW2 4690  12.589  11.747   9.262
  951SOL     OW 4691   2.446  13.193  11.516
  951SOL    HW1 4692   2.377  13.200  11.582
  951SOL    HW2 4693   2.462  13.283  11.489
  952SOL     OW 4694   7.934   2.946   0.906
  952SOL    HW1 4695   7.844   2.919   0.927
  952SOL    HW2 4696   7.926   3.038   0.879
  953SOL     OW 4697   5.115   7.325  14.042
  953SOL    HW1 4698   5.066   7.256  14.088
  953SOL    HW2 4699   5.118   7.295  13.951
  954SOL     OW 4700  14.002   4.605   2.482
  954SOL    HW1 4701  14.059   4.587   2.556
  954SOL    HW2 4702  13.938   4.667   2.516
  955SOL     OW 4703   4.250   7.482  13.712
  955SOL    HW1 4704   4.243   7.434  13.795
  955SOL    HW2 4705   4.298   7.422  13.654
  956SOL     OW 4706   2.375   4.191   3.280
  956SOL    HW1 4707   2.390   4.123   3.215
  956SOL    HW2 4708   2.404   4.272   3.238
  957SOL     OW 4709   2.503  14.524   6.180
  957SOL    HW1 4710   2.526  14.502   6.089
  957SOL    HW2 4711   2.437  14.459   6.203
  958SOL     OW 4712   5.765   7.876   9.478
  958SOL    HW1 4713   5.791   7.963   9.509
  958SOL    HW2 4714   5.801   7.816   9.543
  959SOL     OW 4715  10.814   0.724   5.187
  959SOL    HW1 4716  10.842   0.653   5.130
  959SOL    HW2 4717  10.895   0.772   5.207
  960SOL     OW 4718   0.526   2.227   3.631
  960SOL    HW1 4719   0.513   2.246   3.724
  960SOL    HW2 4720   0.459   2.278   3.586
  961SOL     OW 4721   8.055   5.345   6.856
  961SOL    HW1 4722   8.106   5.322   6.934
  961SOL    HW2 4723   8.082   5.281   6.790
  962SOL     OW 4724   1.229  10.905   0.662
  962SOL    HW1 4725   1.198  10.844   0.595
  962SOL    HW2 4726   1.269  10.976   0.612
  963SOL     OW 4727   8.323   3.036   6.471
  963SOL    HW1 4728   8.385   3.047   6.399
  963SOL    HW2 4729   8.339   3.111   6.529
  964SOL     OW 4730   1.762  13.862  12.899
  964SOL    HW1 4731   1.810  13.880  12.980
  964SOL    HW2 4732   1.712  13.782  12.918
  965SOL     OW 4733  11.063   2.310   6.323
  965SOL    HW1 4734  11.082   2.217   6.315
  965SOL    HW2 4735  10.968   2.316   6.323
  966SOL     OW 4736  10.397   0.008   9.573
  966SOL    HW1 4737  10.382   0.034   9.664
  966SOL    HW2 4738  10.314  14.853   9.544
  967SOL     OW 4739   1.511   1.635  11.587
  967SOL    HW1 4740   1.513   1.539  11.588
  967SOL    HW2 4741   1.588   1.661  11.637
  968SOL     OW 4742   6.759  12.109   6.707
  968SOL    HW1 4743   6.751  12.157   6.625
  968SOL    HW2 4744   6.725  12.169   6.774
  969SOL     OW 4745  13.215   7.113   4.492
  969SOL    HW1 4746  13.184   7.031   4.452
  969SOL    HW2 4747  13.193   7.180   4.427
  970SOL     OW 4748   6.701  11.610  12.228
  970SOL    HW1 4749   6.753  11.682  12.262
  970SOL    HW2 4750   6.655  11.575  12.304
  971SOL     OW 4751   1.646  11.733  12.537
  971SOL    HW1 4752   1.646  11.765  12.447
  971SOL    HW2 4753   1.729  11.686  12.547
  972SOL     OW 4754  14.880   9.241  11.501
  972SOL    HW1 4755   0.011   9.163  11.553
  972SOL    HW2 4756   0.057   9.230  11.426
  973SOL     OW 4757   1.669  13.143   3.361
  973SOL    HW1 4758   1.753  13.097   3.352
  973SOL    HW2 4759   1.638  13.118   3.449
  974SOL     OW 4760  10.539  10.354   7.278
  974SOL    HW1 4761  10.466  10.293   7.264
  974SOL    HW2 4762  10.614  10.310   7.240
  975SOL     OW 4763   1.756   5.949   6.596
  975SOL    HW1 4764   1.765   5.869   6.648
  975SOL    HW2 4765   1.722   5.920   6.512
  976SOL     OW 4766   1.552   0.571   7.327
  976SOL    HW1 4767   1.459   0.577   7.350
  976SOL    HW2 4768   1.564   0.639   7.261
  977SOL     OW 4769  13.927   6.256   6.141
  977SOL    HW1 4770  13.931   6.267   6.236
  977SOL    HW2 4771  14.005   6.300   6.109
  978SOL     OW 4772  14.536  14.743   6.284
  978SOL    HW1 4773  14.609  14.753   6.345
  978SOL    HW2 4774  14.565  14.676   6.223
  979SOL     OW 4775   2.268  13.836  12.802
  979SOL    HW1 4776   2.181  13.799  12.785
  979SOL    HW2 4777   2.298  13.868  12.718
  980SOL     OW 4778   7.967  12.183   1.603
  980SOL    HW1 4779   7.906  12.257   1.610
  980SOL    HW2 4780   8.041  12.218   1.554
  981SOL     OW 4781   8.643   4.385   5.344
  981SOL    HW1 4782   8.682   4.308   5.384
  981SOL    HW2 4783   8.660   4.457   5.405
  982SOL     OW 4784   6.385   7.166   4.326
  982SOL    HW1 4785   6.423   7.245   4.288
  982SOL    HW2 4786   6.456   7.102   4.325
  983SOL     OW 4787   3.143  14.296   1.697
  983SOL    HW1 4788   3.191  14.347   1.762
  983SOL    HW2 4789   3.064  14.347   1.680
  984SOL     OW 4790   5.646   1.105   8.877
  984SOL    HW1 4791   5.651   1.069   8.789
  984SOL    HW2 4792   5.736   1.130   8.898
  985SOL     OW 4793   8.025   1.563   7.387
  985SOL    HW1 4794   8.006   1.566   7.480
  985SOL    HW2 4795   7.980   1.638   7.350
  986SOL     OW 4796   4.006  12.799   5.191
  986SOL    HW1 4797   3.931  12.855   5.172
  986SOL    HW2 4798   3.973  12.710   5.179
  987SOL     OW 4799   1.604   9.099   1.040
  987SOL    HW1 4800   1.593   9.067   1.129
  987SOL    HW2 4801   1.693   9.132   1.037
  988SOL     OW 4802   6.673  10.128   9.836
  988SOL    HW1 4803   6.767  10.124   9.816
  988SOL    HW2 4804   6.633  10.159   9.754
  989SOL     OW 4805  14.610   4.240  14.104
  989SOL    HW1 4806  14.640   4.330  14.117
  989SOL    HW2 4807  14.583   4.237  14.012
  990SOL     OW 4808  12.047  14.513   9.940
  990SOL    HW1 4809  12.134  14.551   9.951
  990SOL    HW2 4810  12.017  14.496  10.029
  991SOL     OW 4811  11.519   8.761   0.394
  991SOL    HW1 4812  11.536   8.725   0.307
  991SOL    HW2 4813  11.603   8.799   0.421
  992SOL     OW 4814   8.765   0.836   7.102
  992SOL    HW1 4815   8.772   0.758   7.046
  992SOL    HW2 4816   8.679   0.828   7.143
  993SOL     OW 4817   9.458   3.274  12.937
  993SOL    HW1 4818   9.448   3.198  12.879
  993SOL    HW2 4819   9.470   3.348  12.877
  994SOL     OW 4820  11.352  12.995   1.400
  994SOL    HW1 4821  11.275  13.050   1.411
  994SOL    HW2 4822  11.420  13.055   1.370
  995SOL     OW 4823  12.054   7.481   7.572
  995SOL    HW1 4824  11.964   7.461   7.599
  995SOL    HW2 4825  12.049   7.488   7.477
  996SOL     OW 4826  12.200  12.763  10.923
  996SOL    HW1 4827  12.268  12.782  10.987
  996SOL    HW2 4828  12.137  12.708  10.970
  997SOL     OW 4829   6.711   6.888   2.644
  997SOL    HW1 4830   6.620   6.859   2.632
  997SOL    HW2 4831   6.716   6.971   2.595
  998SOL     OW 4832   5.451  12.938   4.253
  998SOL    HW1 4833   5.528  12.931   4.197
  998SOL    HW2 4834   5.383  12.888   4.207
  999SOL     OW 4835   6.909   5.786   0.674
  999SOL    HW1 4836   6.814   5.784   0.691
  999SOL    HW2 4837   6.928   5.878   0.656
 1000SOL     OW 4838   1.655  12.362   7.594
 1000SOL    HW1 4839   1.686  12.414   7.668
 1000SOL    HW2 4840   1.676  12.272   7.617
 1001SOL     OW 4841  12.982   2.587  13.273
 1001SOL    HW1 4842  12.998   2.620  13.185
 1001SOL    HW2 4843  12.915   2.520  13.262
 1002SOL     OW 4844  11.028   0.021  13.259
 1002SOL    HW1 4845  11.093   0.072  13.308
 1002SOL    HW2 4846  10.991   0.083  13.197
 1003SOL     OW 4847   1.919  11.998   8.862
 1003SOL    HW1 4848   2.007  12.016   8.894
 1003SOL    HW2 4849   1.863  12.060   8.909
 1004SOL     OW 4850   5.102   7.710   0.102
 1004SOL    HW1 4851   5.056   7.695   0.184
 1004SOL    HW2 4852   5.056   7.784   0.062
 1005SOL     OW 4853   4.951   8.447  12.853
 1005SOL    HW1 4854   4.923   8.522  12.801
 1005SOL    HW2 4855   5.043   8.434  12.829
 1006SOL     OW 4856  14.772   9.709  13.798
 1006SOL    HW1 4857  14.766   9.783  13.859
 1006SOL    HW2 4858  14.819   9.744  13.722
 1007SOL     OW 4859   2.732  10.102  11.504
 1007SOL    HW1 4860   2.731  10.124  11.597
 1007SOL    HW2 4861   2.691  10.176  11.460
 1008SOL     OW 4862   2.250   1.399   6.333
 1008SOL    HW1 4863   2.197   1.461   6.282
 1008SOL    HW2 4864   2.265   1.444   6.416
 1009SOL     OW 4865   3.171   6.427  13.548
 1009SOL    HW1 4866   3.231   6.403  13.618
 1009SOL    HW2 4867   3.170   6.523  13.548
 1010SOL     OW 4868   0.309  11.236  13.097
 1010SOL    HW1 4869   0.225  11.200  13.067
 1010SOL    HW2 4870   0.340  11.174  13.163
 1011SOL     OW 4871  12.068   1.202   3.325
 1011SOL    HW1 4872  11.977   1.213   3.297
 1011SOL    HW2 4873  12.097   1.122   3.282
 1012SOL     OW 4874  13.494   7.498  13.735
 1012SOL    HW1 4875  13.474   7.427  13.796
 1012SOL    HW2 4876  13.415   7.508  13.682
 1013SOL     OW 4877   9.557   3.558   7.405
 1013SOL    HW1 4878   9.476   3.563   7.354
 1013SOL    HW2 4879   9.599   3.477   7.375
 1014SOL     OW 4880   9.670   9.568  10.115
 1014SOL    HW1 4881   9.647   9.478  10.093
 1014SOL    HW2 4882   9.761   9.577  10.085
 1015SOL     OW 4883   4.888  10.619  10.375
 1015SOL    HW1 4884   4.970  10.669  10.377
 1015SOL    HW2 4885   4.905  10.549  10.311
 1016SOL     OW 4886   8.818   5.548  11.959
 1016SOL    HW1 4887   8.844   5.604  12.032
 1016SOL    HW2 4888   8.724   5.561  11.951
 1017SOL     OW 4889   4.460  13.606   0.000
 1017SOL    HW1 4890   4.524  13.628  14.814
 1017SOL    HW2 4891   4.452  13.511  14.877
 1018SOL     OW 4892   0.261  14.441   9.419
 1018SOL    HW1 4893   0.184  14.488   9.388
 1018SOL    HW2 4894   0.268  14.464   9.512
 1019SOL     OW 4895  12.817   5.115   3.327
 1019SOL    HW1 4896  12.852   5.027   3.316
 1019SOL    HW2 4897  12.825   5.155   3.240
 1020SOL     OW 4898  10.519  14.006   1.686
 1020SOL    HW1 4899  10.488  13.930   1.735
 1020SOL    HW2 4900  10.450  14.023   1.622
 1021SOL     OW 4901   9.398   8.206  12.080
 1021SOL    HW1 4902   9.374   8.115  12.099
 1021SOL    HW2 4903   9.493   8.209  12.096
 1022SOL     OW 4904  14.452  11.593   9.703
 1022SOL    HW1 4905  14.433  11.564   9.614
 1022SOL    HW2 4906  14.510  11.668   9.692
 1023SOL     OW 4907  14.000  11.641  13.269
 1023SOL    HW1 4908  13.922  11.696  13.262
 1023SOL    HW2 4909  14.046  11.675  13.345
 1024SOL     OW 4910  12.119   9.817   5.180
 1024SOL    HW1 4911  12.134   9.909   5.156
 1024SOL    HW2 4912  12.201   9.773   5.158
 1025SOL     OW 4913   9.531  10.483   7.374
 1025SOL    HW1 4914   9.484  10.439   7.445
 1025SOL    HW2 4915   9.611  10.515   7.415
 1026SOL     OW 4916  11.910   6.339   8.909
 1026SOL    HW1 4917  11.908   6.345   8.814
 1026SOL    HW2 4918  11.893   6.428   8.939
 1027SOL     OW 4919  12.928  14.767   6.835
 1027SOL    HW1 4920  13.017  14.755   6.868
 1027SOL    HW2 4921  12.921  14.861   6.820
 1028SOL     OW 4922  10.142   1.604   6.739
 1028SOL    HW1 4923  10.054   1.619   6.776
 1028SOL    HW2 4924  10.201   1.650   6.800
 1029SOL     OW 4925  13.263   8.836   9.489
 1029SOL    HW1 4926  13.341   8.802   9.445
 1029SOL    HW2 4927  13.195   8.772   9.470
 1030SOL     OW 4928  12.246   1.175   7.335
 1030SOL    HW1 4929  12.175   1.117   7.362
 1030SOL    HW2 4930  12.261   1.154   7.243
 1031SOL     OW 4931   3.913  10.698  14.021
 1031SOL    HW1 4932   3.849  10.629  14.038
 1031SOL    HW2 4933   3.887  10.736  13.937
 1032SOL     OW 4934   9.744   8.299  10.327
 1032SOL    HW1 4935   9.672   8.322  10.269
 1032SOL    HW2 4936   9.823   8.318  10.276
 1033SOL     OW 4937  11.754   3.931  11.259
 1033SOL    HW1 4938  11.770   3.972  11.344
 1033SOL    HW2 4939  11.675   3.973  11.226
 1034SOL     OW 4940   6.864  11.057   2.030
 1034SOL    HW1 4941   6.927  10.997   1.988
 1034SOL    HW2 4942   6.902  11.144   2.018
 1035SOL     OW 4943  12.420   0.732   7.721
 1035SOL    HW1 4944  12.360   0.795   7.682
 1035SOL    HW2 4945  12.369   0.692   7.792
 1036SOL     OW 4946   6.971   3.106   3.006
 1036SOL    HW1 4947   6.890   3.057   3.016
 1036SOL    HW2 4948   6.975   3.162   3.083
 1037SOL     OW 4949  13.759   0.197   8.676
 1037SOL    HW1 4950  13.819   0.158   8.739
 1037SOL    HW2 4951  13.756   0.290   8.700
 1038SOL     OW 4952  10.501  11.484   4.405
 1038SOL    HW1 4953  10.554  11.489   4.326
 1038SOL    HW2 4954  10.501  11.391   4.428
 1039SOL     OW 4955   8.313   2.479  10.569
 1039SOL    HW1 4956   8.317   2.473  10.474
 1039SOL    HW2 4957   8.240   2.537  10.587
 1040SOL     OW 4958   0.739   6.136   5.736
 1040SOL    HW1 4959   0.693   6.099   5.811
 1040SOL    HW2 4960   0.811   6.076   5.720
 1041SOL     OW 4961   2.062   8.667  10.210
 1041SOL    HW1 4962   2.064   8.574  10.230
 1041SOL    HW2 4963   2.153   8.692  10.197
 1042SOL     OW 4964   0.705   0.923   5.799
 1042SOL    HW1 4965   0.617   0.908   5.833
 1042SOL    HW2 4966   0.697   0.911   5.705
 1043SOL     OW 4967  10.826   1.012   4.846
 1043SOL    HW1 4968  10.843   0.940   4.786
 1043SOL    HW2 4969  10.793   1.083   4.791
 1044SOL     OW 4970  11.337   0.644  11.696
 1044SOL    HW1 4971  11.266   0.602  11.647
 1044SOL    HW2 4972  11.401   0.669  11.630
 1045SOL     OW 4973  12.622  12.578   7.948
 1045SOL    HW1 4974  12.551  12.574   8.012
 1045SOL    HW2 4975  12.685  12.512   7.976
 1046SOL     OW 4976  14.825   4.731  13.636
 1046SOL    HW1 4977   0.004   4.779  13.692
 1046SOL    HW2 4978  14.797   4.656  13.689
 1047SOL     OW 4979  11.163   1.443   1.530
 1047SOL    HW1 4980  11.193   1.483   1.449
 1047SOL    HW2 4981  11.207   1.493   1.599
 1048SOL     OW 4982   8.349   8.685   2.557
 1048SOL    HW1 4983   8.404   8.740   2.614
 1048SOL    HW2 4984   8.336   8.605   2.608
 1049SOL     OW 4985   1.056  11.173  10.449
 1049SOL    HW1 4986   1.039  11.082  10.422
 1049SOL    HW2 4987   1.118  11.166  10.521
 1050SOL     OW 4988  13.321  13.877   2.103
 1050SOL    HW1 4989  13.247  13.934   2.084
 1050SOL    HW2 4990  13.328  13.877   2.198
 1051SOL     OW 4991   4.716   4.334   1.740
 1051SOL    HW1 4992   4.644   4.297   1.689
 1051SOL    HW2 4993   4.775   4.260   1.755
 1052SOL     OW 4994  10.387   2.890   1.411
 1052SOL    HW1 4995  10.468   2.908   1.458
 1052SOL    HW2 4996  10.411   2.827   1.343
 1053SOL     OW 4997   5.383   0.699   7.683
 1053SOL    HW1 4998   5.305   0.706   7.739
 1053SOL    HW2 4999   5.391   0.606   7.663
 1054SOL     OW 5000  11.950   7.394   9.263
 1054SOL    HW1 5001  11.975   7.486   9.271
 1054SOL    HW2 5002  11.977   7.354   9.345
 1055SOL     OW 5003   4.652   5.969   1.707
 1055SOL    HW1 5004   4.621   5.943   1.794
 1055SOL    HW2 5005   4.712   5.899   1.681
 1056SOL     OW 5006  13.082   4.832   1.080
 1056SOL    HW1 5007  13.147   4.823   1.010
 1056SOL    HW2 5008  13.012   4.883   1.040
 1057SOL     OW 5009   9.797   8.588   2.370
 1057SOL    HW1 5010   9.715   8.587   2.320
 1057SOL    HW2 5011   9.832   8.500   2.360
 1058SOL     OW 5012  11.576   0.797   0.569
 1058SOL    HW1 5013  11.582   0.791   0.474
 1058SOL    HW2 5014  11.658   0.758   0.601
 1059SOL     OW 5015  11.488  12.601  10.831
 1059SOL    HW1 5016  11.475  12.691  10.862
 1059SOL    HW2 5017  11.504  12.551  10.911
 1060SOL     OW 5018   0.002  11.526   8.328
 1060SOL    HW1 5019   0.013  11.535   8.233
 1060SOL    HW2 5020   0.068  11.584   8.365
 1061SOL     OW 5021   7.412   2.099   8.757
 1061SOL    HW1 5022   7.496   2.120   8.716
 1061SOL    HW2 5023   7.434   2.039   8.828
 1062SOL     OW 5024   0.963   7.733  11.694
 1062SOL    HW1 5025   0.994   7.704  11.780
 1062SOL    HW2 5026   1.011   7.815  11.678
 1063SOL     OW 5027   8.434   3.117   6.227
 1063SOL    HW1 5028   8.437   3.028   6.191
 1063SOL    HW2 5029   8.350   3.152   6.196
 1064SOL     OW 5030   3.319  12.288  12.362
 1064SOL    HW1 5031   3.355  12.308  12.449
 1064SOL    HW2 5032   3.382  12.327  12.301
 1065SOL     OW 5033  10.114   7.010   5.069
 1065SOL    HW1 5034  10.202   7.017   5.031
 1065SOL    HW2 5035  10.112   6.923   5.108
 1066SOL     OW 5036   3.653  14.349  12.146
 1066SOL    HW1 5037   3.746  14.372  12.148
 1066SOL    HW2 5038   3.652  14.253  12.157
 1067SOL     OW 5039  13.875   3.316   9.901
 1067SOL    HW1 5040  13.860   3.282   9.812
 1067SOL    HW2 5041  13.954   3.271   9.930
 1068SOL     OW 5042  11.726   6.544  10.955
 1068SOL    HW1 5043  11.717   6.632  10.917
 1068SOL    HW2 5044  11.755   6.559  11.044
 1069SOL     OW 5045   9.417  14.819  14.368
 1069SOL    HW1 5046   9.399  14.774  14.450
 1069SOL    HW2 5047   9.461  14.754  14.313
 1070SOL     OW 5048   8.370  10.927  14.427
 1070SOL    HW1 5049   8.310  11.000  14.444
 1070SOL    HW2 5050   8.436  10.934  14.495
 1071SOL     OW 5051   2.856  12.466  10.991
 1071SOL    HW1 5052   2.894  12.441  11.075
 1071SOL    HW2 5053   2.806  12.546  11.011
 1072SOL     OW 5054  12.453   2.416   0.441
 1072SOL    HW1 5055  12.510   2.378   0.375
 1072SOL    HW2 5056  12.430   2.342   0.498
 1073SOL     OW 5057   1.010   0.475   0.725
 1073SOL    HW1 5058   0.945   0.480   0.655
 1073SOL    HW2 5059   1.041   0.384   0.722
 1074SOL     OW 5060   9.239   2.687  12.090
 1074SOL    HW1 5061   9.220   2.595  12.072
 1074SOL    HW2 5062   9.189   2.735  12.024
 1075SOL     OW 5063   6.065  10.389   1.017
 1075SOL    HW1 5064   6.052  10.479   1.046
 1075SOL    HW2 5065   5.988  10.370   0.964
 1076SOL     OW 5066   7.838   0.909   7.253
 1076SOL    HW1 5067   7.798   0.826   7.278
 1076SOL    HW2 5068   7.782   0.976   7.293
 1077SOL     OW 5069   5.768   0.201   0.923
 1077SOL    HW1 5070   5.758   0.295   0.907
 1077SOL    HW2 5071   5.768   0.192   1.018
 1078SOL     OW 5072   8.803   6.960   9.380
 1078SOL    HW1 5073   8.736   6.944   9.313
 1078SOL    HW2 5074   8.885   6.937   9.337
 1079SOL     OW 5075  13.850  11.634   1.710
 1079SOL    HW1 5076  13.772  11.679   1.745
 1079SOL    HW2 5077  13.918  11.650   1.775
 1080SOL     OW 5078   0.463   1.866  13.337
 1080SOL    HW1 5079   0.454   1.789  13.393
 1080SOL    HW2 5080   0.557   1.879  13.330
 1081SOL     OW 5081   8.433   0.310  10.503
 1081SOL    HW1 5082   8.461   0.381  10.562
 1081SOL    HW2 5083   8.338   0.307  10.513
 1082SOL     OW 5084   1.704  10.677  11.417
 1082SOL    HW1 5085   1.633  10.721  11.463
 1082SOL    HW2 5086   1.784  10.717  11.451
 1083SOL     OW 5087   6.144   4.905   9.616
 1083SOL    HW1 5088   6.135   4.906   9.712
 1083SOL    HW2 5089   6.057   4.926   9.583
 1084SOL     OW 5090   0.802   7.222  10.227
 1084SOL    HW1 5091   0.744   7.269  10.286
 1084SOL    HW2 5092   0.835   7.288  10.166
 1085SOL     OW 5093  11.052  10.670   5.149
 1085SOL    HW1 5094  11.059  10.644   5.241
 1085SOL    HW2 5095  11.106  10.606   5.102
 1086SOL     OW 5096  12.131   8.315   3.029
 1086SOL    HW1 5097  12.100   8.272   3.108
 1086SOL    HW2 5098  12.162   8.401   3.058
 1087SOL     OW 5099   8.138  14.596   6.390
 1087SOL    HW1 5100   8.131  14.532   6.320
 1087SOL    HW2 5101   8.115  14.679   6.349
 1088SOL     OW 5102   8.564   6.055   0.743
 1088SOL    HW1 5103   8.470   6.065   0.759
 1088SOL    HW2 5104   8.604   6.128   0.789
 1089SOL     OW 5105  11.439   4.562  11.696
 1089SOL    HW1 5106  11.430   4.643  11.746
 1089SOL    HW2 5107  11.510   4.580  11.634
 1090SOL     OW 5108   9.392   0.370   3.501
 1090SOL    HW1 5109   9.370   0.280   3.524
 1090SOL    HW2 5110   9.441   0.363   3.419
 1091SOL     OW 5111   8.076  14.102  11.965
 1091SOL    HW1 5112   8.021  14.035  12.007
 1091SOL    HW2 5113   8.014  14.160  11.921
 1092SOL     OW 5114  10.377   4.654   7.398
 1092SOL    HW1 5115  10.335   4.704   7.328
 1092SOL    HW2 5116  10.306   4.603   7.436
 1093SOL     OW 5117   4.480   0.965  12.029
 1093SOL    HW1 5118   4.532   1.028  11.979
 1093SOL    HW2 5119   4.502   0.880  11.991
 1094SOL     OW 5120   9.053   0.348   2.711
 1094SOL    HW1 5121   8.975   0.300   2.685
 1094SOL    HW2 5122   9.024   0.439   2.719
 1095SOL     OW 5123   0.335   2.551  11.053
 1095SOL    HW1 5124   0.288   2.471  11.076
 1095SOL    HW2 5125   0.307   2.615  11.118
 1096SOL     OW 5126   3.843   7.656  13.723
 1096SOL    HW1 5127   3.778   7.677  13.656
 1096SOL    HW2 5128   3.819   7.712  13.798
 1097SOL     OW 5129  12.384   1.353   8.613
 1097SOL    HW1 5130  12.438   1.362   8.534
 1097SOL    HW2 5131  12.312   1.415   8.600
 1098SOL     OW 5132   8.428   5.258  13.354
 1098SOL    HW1 5133   8.359   5.281  13.416
 1098SOL    HW2 5134   8.498   5.221  13.407
 1099SOL     OW 5135  14.172   9.877  11.119
 1099SOL    HW1 5136  14.110   9.890  11.048
 1099SOL    HW2 5137  14.123   9.902  11.198
 1100SOL     OW 5138   4.950   6.624   7.809
 1100SOL    HW1 5139   4.907   6.681   7.745
 1100SOL    HW2 5140   4.886   6.617   7.881
 1101SOL     OW 5141   7.456   1.767   8.055
 1101SOL    HW1 5142   7.479   1.696   7.995
 1101SOL    HW2 5143   7.384   1.731   8.108
 1102SOL     OW 5144  13.792   4.030   5.086
 1102SOL    HW1 5145  13.797   4.124   5.103
 1102SOL    HW2 5146  13.741   3.995   5.159
 1103SOL     OW 5147   4.974  11.652   5.876
 1103SOL    HW1 5148   4.981  11.641   5.781
 1103SOL    HW2 5149   5.025  11.580   5.912
 1104SOL     OW 5150  10.558   1.567   3.206
 1104SOL    HW1 5151  10.523   1.610   3.284
 1104SOL    HW2 5152  10.630   1.623   3.178
 1105SOL     OW 5153  14.454   8.518  11.652
 1105SOL    HW1 5154  14.545   8.499  11.632
 1105SOL    HW2 5155  14.435   8.465  11.730
 1106SOL     OW 5156   2.021  13.705  12.643
 1106SOL    HW1 5157   1.990  13.795  12.638
 1106SOL    HW2 5158   1.949  13.653  12.608
 1107SOL     OW 5159   8.643   0.908   6.418
 1107SOL    HW1 5160   8.585   0.841   6.454
 1107SOL    HW2 5161   8.614   0.990   6.459
 1108SOL     OW 5162   1.076   9.218  13.034
 1108SOL    HW1 5163   1.099   9.247  13.122
 1108SOL    HW2 5164   1.160   9.207  12.989
 1109SOL     OW 5165   6.141   4.738   8.215
 1109SOL    HW1 5166   6.139   4.772   8.305
 1109SOL    HW2 5167   6.234   4.734   8.192
 1110SOL     OW 5168   5.631   9.063   7.139
 1110SOL    HW1 5169   5.555   9.117   7.115
 1110SOL    HW2 5170   5.679   9.117   7.203
 1111SOL     OW 5171   4.168   4.395  10.346
 1111SOL    HW1 5172   4.162   4.301  10.361
 1111SOL    HW2 5173   4.192   4.403  10.254
 1112SOL     OW 5174   3.194   8.621   4.583
 1112SOL    HW1 5175   3.206   8.603   4.676
 1112SOL    HW2 5176   3.158   8.710   4.580
 1113SOL     OW 5177   5.540  14.269   1.199
 1113SOL    HW1 5178   5.562  14.179   1.219
 1113SOL    HW2 5179   5.473  14.293   1.263
 1114SOL     OW 5180  10.623  10.871   5.596
 1114SOL    HW1 5181  10.663  10.924   5.527
 1114SOL    HW2 5182  10.565  10.811   5.550
 1115SOL     OW 5183   4.755  13.802  12.142
 1115SOL    HW1 5184   4.703  13.740  12.193
 1115SOL    HW2 5185   4.785  13.866  12.207
 1116SOL     OW 5186   9.407   9.092  14.662
 1116SOL    HW1 5187   9.382   9.024  14.600
 1116SOL    HW2 5188   9.355   9.072  14.740
 1117SOL     OW 5189  11.383   7.662   9.822
 1117SOL    HW1 5190  11.311   7.707   9.867
 1117SOL    HW2 5191  11.459   7.718   9.837
 1118SOL     OW 5192   6.411   0.966   6.661
 1118SOL    HW1 5193   6.329   0.935   6.621
 1118SOL    HW2 5194   6.385   1.041   6.714
 1119SOL     OW 5195   8.449   9.084   8.368
 1119SOL    HW1 5196   8.465   9.111   8.459
 1119SOL    HW2 5197   8.517   9.020   8.350
 1120SOL     OW 5198   8.868   8.168   3.306
 1120SOL    HW1 5199   8.946   8.114   3.302
 1120SOL    HW2 5200   8.843   8.182   3.215
 1121SOL     OW 5201   2.730   9.808   7.972
 1121SOL    HW1 5202   2.759   9.757   8.048
 1121SOL    HW2 5203   2.779   9.771   7.899
 1122SOL     OW 5204  12.457  12.040  14.044
 1122SOL    HW1 5205  12.521  12.051  13.974
 1122SOL    HW2 5206  12.376  12.016  13.999
 1123SOL     OW 5207   7.000   0.957   0.061
 1123SOL    HW1 5208   6.949   0.891   0.015
 1123SOL    HW2 5209   6.946   1.036   0.058
 1124SOL     OW 5210   0.745   5.256   5.285
 1124SOL    HW1 5211   0.698   5.322   5.234
 1124SOL    HW2 5212   0.716   5.270   5.375
 1125SOL     OW 5213   7.211   2.074   7.748
 1125SOL    HW1 5214   7.129   2.037   7.781
 1125SOL    HW2 5215   7.279   2.033   7.802
 1126SOL     OW 5216   5.786   5.151   9.147
 1126SOL    HW1 5217   5.806   5.090   9.218
 1126SOL    HW2 5218   5.855   5.218   9.153
 1127SOL     OW 5219   6.417  11.607   7.668
 1127SOL    HW1 5220   6.359  11.682   7.666
 1127SOL    HW2 5221   6.389  11.552   7.595
 1128SOL     OW 5222  12.300  14.124   5.679
 1128SOL    HW1 5223  12.297  14.163   5.766
 1128SOL    HW2 5224  12.361  14.180   5.629
 1129SOL     OW 5225   1.197  10.713  12.130
 1129SOL    HW1 5226   1.209  10.686  12.222
 1129SOL    HW2 5227   1.182  10.631  12.083
 1130SOL     OW 5228  10.758   4.393   9.309
 1130SOL    HW1 5229  10.779   4.481   9.277
 1130SOL    HW2 5230  10.666   4.399   9.335
 1131SOL     OW 5231   0.013  10.540   1.592
 1131SOL    HW1 5232   0.056  10.491   1.522
 1131SOL    HW2 5233  14.810  10.497   1.603
 1132SOL     OW 5234  14.620   6.628  13.424
 1132SOL    HW1 5235  14.668   6.661  13.500
 1132SOL    HW2 5236  14.687   6.616  13.356
 1133SOL     OW 5237   5.504   6.278   3.179
 1133SOL    HW1 5238   5.581   6.223   3.173
 1133SOL    HW2 5239   5.538   6.368   3.184
 1134SOL     OW 5240  13.723  12.235   4.404
 1134SOL    HW1 5241  13.636  12.268   4.381
 1134SOL    HW2 5242  13.708  12.183   4.483
 1135SOL     OW 5243   2.927  12.537   0.076
 1135SOL    HW1 5244   2.964  12.576   0.155
 1135SOL    HW2 5245   2.844  12.499   0.104
 1136SOL     OW 5246   9.087   7.351  10.767
 1136SOL    HW1 5247   9.096   7.258  10.788
 1136SOL    HW2 5248   9.139   7.396  10.833
 1137SOL     OW 5249  14.682   7.403   5.095
 1137SOL    HW1 5250  14.629   7.351   5.035
 1137SOL    HW2 5251  14.669   7.362   5.180
 1138SOL     OW 5252   7.140   8.989   2.753
 1138SOL    HW1 5253   7.168   8.939   2.676
 1138SOL    HW2 5254   7.115   9.074   2.718
 1139SOL     OW 5255   3.257   5.746   9.223
 1139SOL    HW1 5256   3.278   5.693   9.300
 1139SOL    HW2 5257   3.338   5.747   9.172
 1140SOL     OW 5258   5.574  14.453   8.369
 1140SOL    HW1 5259   5.528  14.472   8.451
 1140SOL    HW2 5260   5.508  14.469   8.301
 1141SOL     OW 5261   9.237   5.872  12.736
 1141SOL    HW1 5262   9.168   5.841  12.794
 1141SOL    HW2 5263   9.307   5.807  12.745
 1142SOL     OW 5264   9.848   9.428  13.530
 1142SOL    HW1 5265   9.842   9.368  13.604
 1142SOL    HW2 5266   9.759   9.432  13.496
 1143SOL     OW 5267  13.282  14.626   9.200
 1143SOL    HW1 5268  13.281  14.531   9.210
 1143SOL    HW2 5269  13.334  14.641   9.121
 1144SOL     OW 5270  11.800   4.325  13.158
 1144SOL    HW1 5271  11.731   4.370  13.207
 1144SOL    HW2 5272  11.851   4.279  13.224
 1145SOL     OW 5273   3.481   0.146  10.504
 1145SOL    HW1 5274   3.472   0.102  10.589
 1145SOL    HW2 5275   3.511   0.234  10.526
 1146SOL     OW 5276  14.708   3.116   7.720
 1146SOL    HW1 5277  14.718   3.021   7.728
 1146SOL    HW2 5278  14.638   3.128   7.656
 1147SOL     OW 5279  12.764  11.901   4.431
 1147SOL    HW1 5280  12.843  11.853   4.406
 1147SOL    HW2 5281  12.733  11.857   4.510
 1148SOL     OW 5282   8.579  12.845   5.930
 1148SOL    HW1 5283   8.511  12.913   5.929
 1148SOL    HW2 5284   8.642  12.876   5.994
 1149SOL     OW 5285   6.655   1.330   4.507
 1149SOL    HW1 5286   6.715   1.353   4.578
 1149SOL    HW2 5287   6.700   1.261   4.459
 1150SOL     OW 5288   3.040   5.119   2.631
 1150SOL    HW1 5289   3.115   5.084   2.679
 1150SOL    HW2 5290   3.038   5.212   2.655
 1151SOL     OW 5291   3.038   0.422   8.354
 1151SOL    HW1 5292   2.952   0.384   8.375
 1151SOL    HW2 5293   3.032   0.513   8.382
 1152SOL     OW 5294  11.462   8.633   1.631
 1152SOL    HW1 5295  11.529   8.597   1.689
 1152SOL    HW2 5296  11.502   8.631   1.544
 1153SOL     OW 5297  10.138   9.536   0.601
 1153SOL    HW1 5298  10.044   9.540   0.617
 1153SOL    HW2 5299  10.164   9.628   0.590
 1154SOL     OW 5300   2.259  11.478  11.012
 1154SOL    HW1 5301   2.351  11.449  11.015
 1154SOL    HW2 5302   2.244  11.499  10.919
 1155SOL     OW 5303   2.922   0.804   9.537
 1155SOL    HW1 5304   2.915   0.838   9.448
 1155SOL    HW2 5305   2.958   0.877   9.587
 1156SOL     OW 5306   2.136   1.683   9.020
 1156SOL    HW1 5307   2.203   1.751   9.028
 1156SOL    HW2 5308   2.091   1.683   9.105
 1157SOL     OW 5309   6.828  13.413   0.741
 1157SOL    HW1 5310   6.854  13.401   0.832
 1157SOL    HW2 5311   6.776  13.335   0.721
 1158SOL     OW 5312   0.822  14.323   8.895
 1158SOL    HW1 5313   0.737  14.281   8.906
 1158SOL    HW2 5314   0.859  14.325   8.983
 1159SOL     OW 5315  10.577   2.572  13.368
 1159SOL    HW1 5316  10.636   2.512  13.324
 1159SOL    HW2 5317  10.628   2.652  13.380
 1160SOL     OW 5318   6.930   2.209   1.915
 1160SOL    HW1 5319   6.907   2.165   1.833
 1160SOL    HW2 5320   6.873   2.286   1.918
 1161SOL     OW 5321   0.544   8.512   4.278
 1161SOL    HW1 5322   0.563   8.446   4.212
 1161SOL    HW2 5323   0.482   8.571   4.235
 1162SOL     OW 5324   8.860   7.259   6.724
 1162SOL    HW1 5325   8.847   7.348   6.690
 1162SOL    HW2 5326   8.816   7.203   6.661
 1163SOL     OW 5327   2.695   0.186   2.577
 1163SOL    HW1 5328   2.650   0.113   2.535
 1163SOL    HW2 5329   2.667   0.263   2.528
 1164SOL     OW 5330   6.919  11.974   4.526
 1164SOL    HW1 5331   7.014  11.974   4.523
 1164SOL    HW2 5332   6.896  11.893   4.571
 1165SOL     OW 5333   0.942   7.435  10.061
 1165SOL    HW1 5334   0.897   7.511  10.026
 1165SOL    HW2 5335   0.950   7.375   9.986
 1166SOL     OW 5336   3.529  14.470   8.205
 1166SOL    HW1 5337   3.624  14.457   8.209
 1166SOL    HW2 5338   3.495  14.414   8.274
 1167SOL     OW 5339   6.650   8.915   5.874
 1167SOL    HW1 5340   6.584   8.854   5.907
 1167SOL    HW2 5341   6.725   8.859   5.854
 1168SOL     OW 5342   1.668   1.377   8.733
 1168SOL    HW1 5343   1.623   1.337   8.807
 1168SOL    HW2 5344   1.745   1.420   8.771
 1169SOL     OW 5345   3.420   6.836  10.333
 1169SOL    HW1 5346   3.370   6.900  10.282
 1169SOL    HW2 5347   3.440   6.880  10.415
 1170SOL     OW 5348   9.540   7.698   1.685
 1170SOL    HW1 5349   9.461   7.728   1.641
 1170SOL    HW2 5350   9.513   7.676   1.774
 1171SOL     OW 5351   4.067   6.499  12.390
 1171SOL    HW1 5352   4.080   6.560  12.463
 1171SOL    HW2 5353   4.151   6.497  12.345
 1172SOL     OW 5354   3.253   1.839   2.340
 1172SOL    HW1 5355   3.219   1.924   2.367
 1172SOL    HW2 5356   3.216   1.777   2.403
 1173SOL     OW 5357  13.412   9.404   6.775
 1173SOL    HW1 5358  13.478   9.336   6.770
 1173SOL    HW2 5359  13.345   9.369   6.834
 1174SOL     OW 5360   8.537   7.087   4.032
 1174SOL    HW1 5361   8.619   7.052   3.997
 1174SOL    HW2 5362   8.562   7.124   4.117
 1175SOL     OW 5363   5.403  10.280   6.047
 1175SOL    HW1 5364   5.386  10.228   6.126
 1175SOL    HW2 5365   5.493  10.259   6.023
 1176SOL     OW 5366   8.757   0.120   3.272
 1176SOL    HW1 5367   8.842   0.089   3.302
 1176SOL    HW2 5368   8.708   0.138   3.352
 1177SOL     OW 5369   9.655  14.159  14.028
 1177SOL    HW1 5370   9.615  14.077  14.056
 1177SOL    HW2 5371   9.591  14.197  13.967
 1178SOL     OW 5372   3.874   6.223  11.525
 1178SOL    HW1 5373   3.810   6.292  11.509
 1178SOL    HW2 5374   3.879   6.216  11.620
 1179SOL     OW 5375  11.867  11.552   7.770
 1179SOL    HW1 5376  11.783  11.534   7.728
 1179SOL    HW2 5377  11.932  11.526   7.704
 1180SOL     OW 5378   5.329   5.533   4.020
 1180SOL    HW1 5379   5.383   5.524   4.099
 1180SOL    HW2 5380   5.288   5.447   4.008
 1181SOL     OW 5381   3.064   5.928   6.029
 1181SOL    HW1 5382   3.124   5.963   5.962
 1181SOL    HW2 5383   3.075   5.988   6.104
 1182SOL     OW 5384  12.154   5.065   7.557
 1182SOL    HW1 5385  12.102   5.007   7.502
 1182SOL    HW2 5386  12.091   5.102   7.619
 1183SOL     OW 5387   7.731  10.909   8.978
 1183SOL    HW1 5388   7.726  10.832   9.034
 1183SOL    HW2 5389   7.642  10.945   8.979
 1184SOL     OW 5390  10.416   9.900   1.873
 1184SOL    HW1 5391  10.422   9.844   1.796
 1184SOL    HW2 5392  10.340   9.955   1.857
 1185SOL     OW 5393   8.832  10.325   1.592
 1185SOL    HW1 5394   8.749  10.300   1.634
 1185SOL    HW2 5395   8.882  10.244   1.588
 1186SOL     OW 5396   3.953  10.142   8.721
 1186SOL    HW1 5397   3.950  10.107   8.632
 1186SOL    HW2 5398   3.993  10.071   8.773
 1187SOL     OW 5399   6.354   8.378   0.165
 1187SOL    HW1 5400   6.404   8.330   0.232
 1187SOL    HW2 5401   6.401   8.461   0.155
 1188SOL     OW 5402   7.423  14.419   7.368
 1188SOL    HW1 5403   7.453  14.345   7.420
 1188SOL    HW2 5404   7.435  14.495   7.425
 1189SOL     OW 5405   9.157   4.975   6.338
 1189SOL    HW1 5406   9.155   4.886   6.374
 1189SOL    HW2 5407   9.250   5.000   6.341
 1190SOL     OW 5408  14.491   9.830  14.132
 1190SOL    HW1 5409  14.446   9.760  14.085
 1190SOL    HW2 5410  14.578   9.795  14.151
 1191SOL     OW 5411   4.489   3.004  14.415
 1191SOL    HW1 5412   4.557   2.937  14.428
 1191SOL    HW2 5413   4.534   3.075  14.370
 1192SOL     OW 5414  14.050   1.390  14.312
 1192SOL    HW1 5415  14.112   1.380  14.384
 1192SOL    HW2 5416  13.974   1.434  14.350
 1193SOL     OW 5417   1.839   3.151   8.843
 1193SOL    HW1 5418   1.838   3.111   8.930
 1193SOL    HW2 5419   1.856   3.243   8.859
 1194SOL     OW 5420   7.453   0.330   6.446
 1194SOL    HW1 5421   7.544   0.326   6.476
 1194SOL    HW2 5422   7.435   0.243   6.412
 1195SOL     OW 5423  10.655   3.546  10.708
 1195SOL    HW1 5424  10.661   3.452  10.723
 1195SOL    HW2 5425  10.574   3.557  10.659
 1196SOL     OW 5426  13.939   8.894   4.733
 1196SOL    HW1 5427  14.014   8.851   4.774
 1196SOL    HW2 5428  13.960   8.987   4.734
 1197SOL     OW 5429   8.198   9.956   8.066
 1197SOL    HW1 5430   8.285   9.994   8.054
 1197SOL    HW2 5431   8.167   9.938   7.977
 1198SOL     OW 5432   7.424   6.850   9.485
 1198SOL    HW1 5433   7.351   6.904   9.515
 1198SOL    HW2 5434   7.503   6.900   9.508
 1199SOL     OW 5435   3.361  11.225  13.253
 1199SOL    HW1 5436   3.412  11.267  13.184
 1199SOL    HW2 5437   3.358  11.133  13.227
 1200SOL     OW 5438  14.080   6.850   1.353
 1200SOL    HW1 5439  14.028   6.903   1.292
 1200SOL    HW2 5440  14.018   6.789   1.392
 1201SOL     OW 5441   5.389   8.215  12.664
 1201SOL    HW1 5442   5.390   8.308  12.640
 1201SOL    HW2 5443   5.474   8.201  12.705
 1202SOL     OW 5444   1.426   2.627  11.459
 1202SOL    HW1 5445   1.505   2.644  11.510
 1202SOL    HW2 5446   1.357   2.677  11.504
 1203SOL     OW 5447  13.175  12.474   7.330
 1203SOL    HW1 5448  13.147  12.470   7.238
 1203SOL    HW2 5449  13.125  12.546   7.367
 1204SOL     OW 5450   3.057   4.318   1.030
 1204SOL    HW1 5451   3.000   4.263   1.084
 1204SOL    HW2 5452   3.002   4.390   1.001
 1205SOL     OW 5453   4.498  14.189   7.251
 1205SOL    HW1 5454   4.445  14.144   7.317
 1205SOL    HW2 5455   4.531  14.119   7.195
 1206SOL     OW 5456   3.411   0.560  13.298
 1206SOL    HW1 5457   3.504   0.541  13.286
 1206SOL    HW2 5458   3.370   0.533  13.215
 1207SOL     OW 5459   3.451  12.468   4.681
 1207SOL    HW1 5460   3.489  12.508   4.759
 1207SOL    HW2 5461   3.523  12.416   4.644
 1208SOL     OW 5462   9.831   4.316   7.494
 1208SOL    HW1 5463   9.774   4.371   7.549
 1208SOL    HW2 5464   9.775   4.242   7.470
 1209SOL     OW 5465   5.014   1.036   6.484
 1209SOL    HW1 5466   5.090   1.079   6.445
 1209SOL    HW2 5467   5.034   0.943   6.477
 1210SOL     OW 5468   9.509   1.101   5.053
 1210SOL    HW1 5469   9.569   1.153   5.000
 1210SOL    HW2 5470   9.544   1.012   5.048
 1211SOL     OW 5471  11.272   0.595   9.614
 1211SOL    HW1 5472  11.299   0.560   9.699
 1211SOL    HW2 5473  11.353   0.602   9.564
 1212SOL     OW 5474   6.105  14.295  12.389
 1212SOL    HW1 5475   6.075  14.288  12.299
 1212SOL    HW2 5476   6.147  14.211  12.407
 1213SOL     OW 5477  12.035   0.282  10.577
 1213SOL    HW1 5478  11.953   0.290  10.528
 1213SOL    HW2 5479  12.056   0.372  10.603
 1214SOL     OW 5480   4.312  13.088   9.984
 1214SOL    HW1 5481   4.323  13.102   9.890
 1214SOL    HW2 5482   4.257  13.160  10.013
 1215SOL     OW 5483   4.293  11.177   1.081
 1215SOL    HW1 5484   4.293  11.119   1.005
 1215SOL    HW2 5485   4.286  11.265   1.045
 1216SOL     OW 5486  12.801  11.308   3.698
 1216SOL    HW1 5487  12.816  11.222   3.658
 1216SOL    HW2 5488  12.775  11.364   3.624
 1217SOL     OW 5489   8.761  10.939   3.196
 1217SOL    HW1 5490   8.714  11.022   3.199
 1217SOL    HW2 5491   8.767  10.912   3.287
 1218SOL     OW 5492  14.051   6.285   5.253
 1218SOL    HW1 5493  14.085   6.223   5.189
 1218SOL    HW2 5494  13.960   6.299   5.227
 1219SOL     OW 5495   1.528  13.538   3.266
 1219SOL    HW1 5496   1.591  13.490   3.320
 1219SOL    HW2 5497   1.545  13.630   3.287
 1220SOL     OW 5498   6.598  10.385   8.040
 1220SOL    HW1 5499   6.589  10.480   8.042
 1220SOL    HW2 5500   6.669  10.369   7.977
 1221SOL     OW 5501  10.943   1.585  13.981
 1221SOL    HW1 5502  10.935   1.495  13.952
 1221SOL    HW2 5503  10.854   1.621  13.973
 1222SOL     OW 5504   2.406   6.456   8.737
 1222SOL    HW1 5505   2.473   6.398   8.773
 1222SOL    HW2 5506   2.354   6.400   8.679
 1223SOL     OW 5507   9.856  11.357   1.963
 1223SOL    HW1 5508   9.900  11.420   2.020
 1223SOL    HW2 5509   9.925  11.324   1.906
 1224SOL     OW 5510   3.230   2.834   6.172
 1224SOL    HW1 5511   3.236   2.898   6.102
 1224SOL    HW2 5512   3.278   2.873   6.245
 1225SOL     OW 5513   4.985   5.949   1.853
 1225SOL    HW1 5514   5.067   5.956   1.902
 1225SOL    HW2 5515   4.954   6.039   1.845
 1226SOL     OW 5516   3.292  10.656   6.758
 1226SOL    HW1 5517   3.298  10.588   6.826
 1226SOL    HW2 5518   3.376  10.651   6.711
 1227SOL     OW 5519   4.486   4.211  13.823
 1227SOL    HW1 5520   4.441   4.139  13.778
 1227SOL    HW2 5521   4.418   4.276  13.838
 1228SOL     OW 5522   8.183   5.469   8.881
 1228SOL    HW1 5523   8.113   5.520   8.840
 1228SOL    HW2 5524   8.141   5.387   8.906
 1229SOL     OW 5525   1.535  12.992   6.646
 1229SOL    HW1 5526   1.568  12.976   6.735
 1229SOL    HW2 5527   1.614  13.008   6.594
 1230SOL     OW 5528  12.405   7.380  12.456
 1230SOL    HW1 5529  12.317   7.403  12.426
 1230SOL    HW2 5530  12.404   7.284  12.460
 1231SOL     OW 5531  11.203   7.813  12.459
 1231SOL    HW1 5532  11.140   7.740  12.459
 1231SOL    HW2 5533  11.167   7.876  12.521
 1232SOL     OW 5534  11.709   9.767  14.858
 1232SOL    HW1 5535  11.777   9.798  14.799
 1232SOL    HW2 5536  11.696   9.675  14.833
 1233SOL     OW 5537   7.280   5.047  14.082
 1233SOL    HW1 5538   7.284   5.068  13.989
 1233SOL    HW2 5539   7.268   4.952  14.085
 1234SOL     OW 5540   8.397   6.056   1.989
 1234SOL    HW1 5541   8.389   6.127   2.053
 1234SOL    HW2 5542   8.454   6.091   1.921
 1235SOL     OW 5543   7.787  11.753   6.258
 1235SOL    HW1 5544   7.798  11.700   6.337
 1235SOL    HW2 5545   7.745  11.833   6.289
 1236SOL     OW 5546   0.454  14.061   2.171
 1236SOL    HW1 5547   0.523  14.106   2.221
 1236SOL    HW2 5548   0.500  14.019   2.099
 1237SOL     OW 5549   1.131   7.875   1.211
 1237SOL    HW1 5550   1.194   7.903   1.278
 1237SOL    HW2 5551   1.116   7.954   1.159
 1238SOL     OW 5552   7.733   9.147  13.994
 1238SOL    HW1 5553   7.810   9.090  14.005
 1238SOL    HW2 5554   7.684   9.138  14.076
 1239SOL     OW 5555  12.479   1.196   6.968
 1239SOL    HW1 5556  12.490   1.105   6.995
 1239SOL    HW2 5557  12.564   1.221   6.930
 1240SOL     OW 5558   3.417   0.524   7.145
 1240SOL    HW1 5559   3.399   0.430   7.139
 1240SOL    HW2 5560   3.334   0.562   7.172
 1241SOL     OW 5561   5.686   3.614   1.359
 1241SOL    HW1 5562   5.696   3.619   1.454
 1241SOL    HW2 5563   5.767   3.651   1.323
 1242SOL     OW 5564  11.838   5.912  10.517
 1242SOL    HW1 5565  11.809   5.885  10.604
 1242SOL    HW2 5566  11.934   5.909  10.521
 1243SOL     OW 5567  13.168  10.590   4.475
 1243SOL    HW1 5568  13.181  10.618   4.565
 1243SOL    HW2 5569  13.110  10.514   4.481
 1244SOL     OW 5570   6.005   8.409  12.873
 1244SOL    HW1 5571   6.026   8.316  12.882
 1244SOL    HW2 5572   6.010   8.444  12.962
 1245SOL     OW 5573   0.859  11.466   1.188
 1245SOL    HW1 5574   0.889  11.464   1.279
 1245SOL    HW2 5575   0.781  11.521   1.189
 1246SOL     OW 5576  10.878   5.002   2.033
 1246SOL    HW1 5577  10.944   5.027   1.968
 1246SOL    HW2 5578  10.809   4.961   1.982
 1247SOL     OW 5579  14.121  12.700   6.846
 1247SOL    HW1 5580  14.202  12.689   6.797
 1247SOL    HW2 5581  14.053  12.667   6.788
 1248SOL     OW 5582   2.665   3.849   8.675
 1248SOL    HW1 5583   2.614   3.816   8.750
 1248SOL    HW2 5584   2.649   3.784   8.606
 1249SOL     OW 5585  13.296   2.774  10.364
 1249SOL    HW1 5586  13.237   2.849  10.369
 1249SOL    HW2 5587  13.373   2.801  10.414
 1250SOL     OW 5588   6.651   5.612  13.554
 1250SOL    HW1 5589   6.612   5.620  13.467
 1250SOL    HW2 5590   6.743   5.591  13.538
 1251SOL     OW 5591   6.806  13.882  11.921
 1251SOL    HW1 5592   6.806  13.788  11.942
 1251SOL    HW2 5593   6.828  13.886  11.828
 1252SOL     OW 5594   7.010   7.931   1.979
 1252SOL    HW1 5595   6.933   7.880   1.955
 1252SOL    HW2 5596   7.052   7.881   2.048
 1253SOL     OW 5597   0.546   3.930   0.739
 1253SOL    HW1 5598   0.539   4.019   0.704
 1253SOL    HW2 5599   0.492   3.877   0.682
 1254SOL     OW 5600  13.489  11.110   7.827
 1254SOL    HW1 5601  13.443  11.060   7.760
 1254SOL    HW2 5602  13.480  11.201   7.799
 1255SOL     OW 5603   6.688  13.189   0.499
 1255SOL    HW1 5604   6.637  13.110   0.479
 1255SOL    HW2 5605   6.735  13.166   0.579
 1256SOL     OW 5606   2.350   7.514  11.058
 1256SOL    HW1 5607   2.394   7.443  11.011
 1256SOL    HW2 5608   2.311   7.471  11.134
 1257SOL     OW 5609   7.637   8.862   6.299
 1257SOL    HW1 5610   7.566   8.873   6.236
 1257SOL    HW2 5611   7.603   8.899   6.380
 1258SOL     OW 5612   7.454  11.149   8.513
 1258SOL    HW1 5613   7.494  11.127   8.597
 1258SOL    HW2 5614   7.369  11.187   8.536
 1259SOL     OW 5615   5.632  12.788   1.159
 1259SOL    HW1 5616   5.618  12.744   1.243
 1259SOL    HW2 5617   5.594  12.875   1.170
 1260SOL     OW 5618   3.371   3.387   0.037
 1260SOL    HW1 5619   3.416   3.326  14.861
 1260SOL    HW2 5620   3.392   3.357   0.126
 1261SOL     OW 5621   1.484   4.499   8.593
 1261SOL    HW1 5622   1.537   4.440   8.647
 1261SOL    HW2 5623   1.479   4.456   8.508
 1262SOL     OW 5624  13.977  11.242  13.384
 1262SOL    HW1 5625  13.991  11.235  13.289
 1262SOL    HW2 5626  13.896  11.195  13.400
 1263SOL     OW 5627   1.486   8.973   2.588
 1263SOL    HW1 5628   1.488   8.988   2.493
 1263SOL    HW2 5629   1.489   9.061   2.626
 1264SOL     OW 5630   6.635   5.636   7.954
 1264SOL    HW1 5631   6.594   5.551   7.940
 1264SOL    HW2 5632   6.617   5.656   8.046
 1265SOL     OW 5633  14.111   0.769  11.849
 1265SOL    HW1 5634  14.026   0.727  11.857
 1265SOL    HW2 5635  14.145   0.773  11.938
 1266SOL     OW 5636  12.759   5.911   9.671
 1266SOL    HW1 5637  12.781   5.997   9.633
 1266SOL    HW2 5638  12.826   5.852   9.636
 1267SOL     OW 5639  11.948   8.909  11.272
 1267SOL    HW1 5640  11.957   8.951  11.186
 1267SOL    HW2 5641  11.966   8.816  11.254
 1268SOL     OW 5642  10.580   9.625   9.503
 1268SOL    HW1 5643  10.658   9.586   9.463
 1268SOL    HW2 5644  10.548   9.687   9.437
 1269SOL     OW 5645   9.869   1.885  12.416
 1269SOL    HW1 5646   9.775   1.868  12.413
 1269SOL    HW2 5647   9.910   1.800  12.401
 1270SOL     OW 5648   5.798   4.919  14.046
 1270SOL    HW1 5649   5.747   5.000  14.043
 1270SOL    HW2 5650   5.794   4.885  13.957
 1271SOL     OW 5651   0.804   8.825   4.560
 1271SOL    HW1 5652   0.836   8.872   4.483
 1271SOL    HW2 5653   0.802   8.733   4.533
 1272SOL     OW 5654   3.924   6.632   1.926
 1272SOL    HW1 5655   3.954   6.625   1.835
 1272SOL    HW2 5656   3.985   6.694   1.966
 1273SOL     OW 5657  14.019  13.256   7.497
 1273SOL    HW1 5658  14.075  13.333   7.489
 1273SOL    HW2 5659  13.950  13.282   7.558
 1274SOL     OW 5660  14.202   4.628  10.194
 1274SOL    HW1 5661  14.165   4.683  10.264
 1274SOL    HW2 5662  14.126   4.599  10.144
 1275SOL     OW 5663   4.772  13.251   7.688
 1275SOL    HW1 5664   4.843  13.189   7.669
 1275SOL    HW2 5665   4.759  13.298   7.606
 1276SOL     OW 5666  10.062  10.165   4.297
 1276SOL    HW1 5667  10.110  10.211   4.227
 1276SOL    HW2 5668   9.977  10.211   4.301
 1277SOL     OW 5669   6.670   3.266  12.384
 1277SOL    HW1 5670   6.683   3.275  12.289
 1277SOL    HW2 5671   6.740   3.208  12.412
 1278SOL     OW 5672  13.552   5.859   4.153
 1278SOL    HW1 5673  13.527   5.772   4.183
 1278SOL    HW2 5674  13.631   5.844   4.101
 1279SOL     OW 5675   7.522  10.095   0.252
 1279SOL    HW1 5676   7.520  10.188   0.274
 1279SOL    HW2 5677   7.467  10.053   0.319
 1280SOL     OW 5678  14.140  14.101   0.040
 1280SOL    HW1 5679  14.205  14.115  14.853
 1280SOL    HW2 5680  14.134  14.186   0.084
 1281SOL     OW 5681   5.212  10.670   6.377
 1281SOL    HW1 5682   5.288  10.673   6.319
 1281SOL    HW2 5683   5.136  10.672   6.319
 1282SOL     OW 5684   7.693   1.135  13.861
 1282SOL    HW1 5685   7.611   1.116  13.907
 1282SOL    HW2 5686   7.730   1.049  13.842
 1283SOL     OW 5687   7.270   8.198   3.032
 1283SOL    HW1 5688   7.276   8.270   3.095
 1283SOL    HW2 5689   7.208   8.229   2.966
 1284SOL     OW 5690   2.435  12.777   6.318
 1284SOL    HW1 5691   2.384  12.806   6.393
 1284SOL    HW2 5692   2.525  12.804   6.339
 1285SOL     OW 5693   7.249   3.174   0.094
 1285SOL    HW1 5694   7.192   3.250   0.105
 1285SOL    HW2 5695   7.219   3.134   0.012
 1286SOL     OW 5696  12.885   4.976   9.441
 1286SOL    HW1 5697  12.883   5.044   9.508
 1286SOL    HW2 5698  12.850   4.898   9.485
 1287SOL     OW 5699  12.013   4.855   7.435
 1287SOL    HW1 5700  11.944   4.789   7.429
 1287SOL    HW2 5701  12.091   4.810   7.404
 1288SOL     OW 5702   5.782   6.916   4.483
 1288SOL    HW1 5703   5.737   6.959   4.410
 1288SOL    HW2 5704   5.790   6.825   4.456
 1289SOL     OW 5705   3.910   3.852  13.861
 1289SOL    HW1 5706   3.987   3.859  13.918
 1289SOL    HW2 5707   3.883   3.761  13.867
 1290SOL     OW 5708   2.335  13.221   4.400
 1290SOL    HW1 5709   2.342  13.132   4.434
 1290SOL    HW2 5710   2.305  13.210   4.310
 1291SOL     OW 5711  14.020   7.943   9.281
 1291SOL    HW1 5712  13.991   7.946   9.190
 1291SOL    HW2 5713  13.941   7.918   9.330
 1292SOL     OW 5714   3.509   8.126  12.525
 1292SOL    HW1 5715   3.537   8.071  12.451
 1292SOL    HW2 5716   3.512   8.067  12.601
 1293SOL     OW 5717  13.362   3.105   6.869
 1293SOL    HW1 5718  13.352   3.023   6.917
 1293SOL    HW2 5719  13.390   3.169   6.935
 1294SOL     OW 5720   8.294   8.831   8.375
 1294SOL    HW1 5721   8.290   8.913   8.424
 1294SOL    HW2 5722   8.360   8.846   8.308
 1295SOL     OW 5723   8.045  12.770  11.737
 1295SOL    HW1 5724   8.133  12.739  11.719
 1295SOL    HW2 5725   8.027  12.835  11.669
 1296SOL     OW 5726   3.707   9.346  12.693
 1296SOL    HW1 5727   3.666   9.262  12.714
 1296SOL    HW2 5728   3.797   9.324  12.670
 1297SOL     OW 5729  10.336   0.176   9.304
 1297SOL    HW1 5730  10.317   0.266   9.332
 1297SOL    HW2 5731  10.366   0.132   9.384
 1298SOL     OW 5732   5.258   7.585   7.210
 1298SOL    HW1 5733   5.209   7.635   7.276
 1298SOL    HW2 5734   5.325   7.539   7.261
 1299SOL     OW 5735   2.151   0.862  11.408
 1299SOL    HW1 5736   2.173   0.770  11.396
 1299SOL    HW2 5737   2.057   0.863  11.425
 1300SOL     OW 5738  14.600   4.055   4.275
 1300SOL    HW1 5739  14.645   4.138   4.258
 1300SOL    HW2 5740  14.539   4.076   4.346
 1301SOL     OW 5741   9.879   5.482   0.047
 1301SOL    HW1 5742   9.932   5.543  14.879
 1301SOL    HW2 5743   9.941   5.440   0.107
 1302SOL     OW 5744  11.514  10.474  14.089
 1302SOL    HW1 5745  11.488  10.401  14.033
 1302SOL    HW2 5746  11.488  10.448  14.177
 1303SOL     OW 5747   8.452   1.038   1.232
 1303SOL    HW1 5748   8.532   1.063   1.278
 1303SOL    HW2 5749   8.482   1.003   1.148
 1304SOL     OW 5750   7.211   3.669   9.439
 1304SOL    HW1 5751   7.261   3.602   9.392
 1304SOL    HW2 5752   7.161   3.713   9.370
 1305SOL     OW 5753   2.651   7.533   0.508
 1305SOL    HW1 5754   2.731   7.510   0.557
 1305SOL    HW2 5755   2.652   7.474   0.433
 1306SOL     OW 5756   8.543   5.465   5.994
 1306SOL    HW1 5757   8.487   5.537   6.024
 1306SOL    HW2 5758   8.493   5.425   5.923
 1307SOL     OW 5759   9.711  11.172   4.063
 1307SOL    HW1 5760   9.643  11.135   4.119
 1307SOL    HW2 5761   9.786  11.184   4.121
 1308SOL     OW 5762   8.831   5.187  13.259
 1308SOL    HW1 5763   8.742   5.206  13.290
 1308SOL    HW2 5764   8.818   5.144  13.175
 1309SOL     OW 5765   8.015  13.045   5.663
 1309SOL    HW1 5766   8.068  13.078   5.735
 1309SOL    HW2 5767   7.979  13.123   5.622
 1310SOL     OW 5768  13.054   8.196   5.936
 1310SOL    HW1 5769  13.072   8.215   6.029
 1310SOL    HW2 5770  13.054   8.101   5.931
 1311SOL     OW 5771  11.864   1.900   7.390
 1311SOL    HW1 5772  11.799   1.832   7.407
 1311SOL    HW2 5773  11.926   1.893   7.463
 1312SOL     OW 5774  13.881   9.967   5.141
 1312SOL    HW1 5775  13.902   9.884   5.184
 1312SOL    HW2 5776  13.921   9.960   5.054
 1313SOL     OW 5777  11.535   7.467  10.145
 1313SOL    HW1 5778  11.612   7.411  10.149
 1313SOL    HW2 5779  11.492   7.455  10.230
 1314SOL     OW 5780   6.853   5.158   2.175
 1314SOL    HW1 5781   6.817   5.099   2.108
 1314SOL    HW2 5782   6.779   5.213   2.200
 1315SOL     OW 5783   0.296   7.872   5.462
 1315SOL    HW1 5784   0.333   7.796   5.417
 1315SOL    HW2 5785   0.305   7.943   5.399
 1316SOL     OW 5786   8.067   4.837  10.923
 1316SOL    HW1 5787   8.106   4.759  10.882
 1316SOL    HW2 5788   8.091   4.909  10.866
 1317SOL     OW 5789   9.383  10.408   9.115
 1317SOL    HW1 5790   9.431  10.480   9.156
 1317SOL    HW2 5791   9.346  10.446   9.036
 1318SOL     OW 5792   8.254  12.224   5.185
 1318SOL    HW1 5793   8.227  12.150   5.130
 1318SOL    HW2 5794   8.325  12.266   5.137
 1319SOL     OW 5795   8.599   5.990   5.616
 1319SOL    HW1 5796   8.549   5.926   5.565
 1319SOL    HW2 5797   8.533   6.039   5.664
 1320SOL     OW 5798   5.815   2.417  10.480
 1320SOL    HW1 5799   5.817   2.385  10.571
 1320SOL    HW2 5800   5.903   2.400  10.447
 1321SOL     OW 5801  12.574   3.743   8.344
 1321SOL    HW1 5802  12.608   3.654   8.353
 1321SOL    HW2 5803  12.647   3.799   8.370
 1322SOL     OW 5804  12.746   9.227   8.038
 1322SOL    HW1 5805  12.818   9.281   8.005
 1322SOL    HW2 5806  12.767   9.139   8.007
 1323SOL     OW 5807   0.770   8.742   8.135
 1323SOL    HW1 5808   0.698   8.721   8.193
 1323SOL    HW2 5809   0.822   8.662   8.131
 1324SOL     OW 5810   8.988  10.109   8.929
 1324SOL    HW1 5811   9.034  10.061   8.998
 1324SOL    HW2 5812   8.899  10.074   8.930
 1325SOL     OW 5813   6.786   8.131   0.373
 1325SOL    HW1 5814   6.708   8.130   0.428
 1325SOL    HW2 5815   6.852   8.177   0.426
 1326SOL     OW 5816   9.917   2.142  12.515
 1326SOL    HW1 5817   9.885   2.055  12.492
 1326SOL    HW2 5818   9.899   2.151  12.609
 1327SOL     OW 5819   1.839   8.090   0.843
 1327SOL    HW1 5820   1.908   8.157   0.843
 1327SOL    HW2 5821   1.811   8.086   0.935
 1328SOL     OW 5822   2.706   2.393   1.335
 1328SOL    HW1 5823   2.685   2.485   1.318
 1328SOL    HW2 5824   2.623   2.347   1.323
 1329SOL     OW 5825  13.990   8.188   6.389
 1329SOL    HW1 5826  13.914   8.245   6.385
 1329SOL    HW2 5827  13.962   8.114   6.443
 1330SOL     OW 5828   2.585   5.606  11.781
 1330SOL    HW1 5829   2.626   5.585  11.865
 1330SOL    HW2 5830   2.653   5.650  11.731
 1331SOL     OW 5831   3.579  10.404   5.730
 1331SOL    HW1 5832   3.595  10.379   5.639
 1331SOL    HW2 5833   3.666  10.421   5.766
 1332SOL     OW 5834   7.129   1.605   4.053
 1332SOL    HW1 5835   7.204   1.642   4.100
 1332SOL    HW2 5836   7.114   1.666   3.980
 1333SOL     OW 5837   4.304   7.663   8.498
 1333SOL    HW1 5838   4.265   7.734   8.446
 1333SOL    HW2 5839   4.230   7.627   8.548
 1334SOL     OW 5840  14.881  11.389   6.409
 1334SOL    HW1 5841   0.043  11.335   6.474
 1334SOL    HW2 5842  14.788  11.380   6.429
 1335SOL     OW 5843   4.958   9.125   7.197
 1335SOL    HW1 5844   5.046   9.088   7.189
 1335SOL    HW2 5845   4.906   9.056   7.236
 1336SOL     OW 5846  12.592   6.141  14.586
 1336SOL    HW1 5847  12.663   6.133  14.650
 1336SOL    HW2 5848  12.540   6.215  14.616
 1337SOL     OW 5849   0.304  12.775   4.147
 1337SOL    HW1 5850   0.209  12.764   4.140
 1337SOL    HW2 5851   0.333  12.702   4.201
 1338SOL     OW 5852   4.384   9.749   4.538
 1338SOL    HW1 5853   4.367   9.835   4.499
 1338SOL    HW2 5854   4.465   9.760   4.587
 1339SOL     OW 5855  11.489   1.841  11.595
 1339SOL    HW1 5856  11.412   1.785  11.609
 1339SOL    HW2 5857  11.492   1.898  11.672
 1340SOL     OW 5858  14.405   8.310   7.428
 1340SOL    HW1 5859  14.326   8.360   7.409
 1340SOL    HW2 5860  14.410   8.244   7.359
 1341SOL     OW 5861   5.535  10.263   5.361
 1341SOL    HW1 5862   5.503  10.353   5.361
 1341SOL    HW2 5863   5.523  10.233   5.451
 1342SOL     OW 5864   1.005   6.657   8.898
 1342SOL    HW1 5865   1.081   6.715   8.908
 1342SOL    HW2 5866   0.933   6.716   8.877
 1343SOL     OW 5867  11.885   5.086   3.946
 1343SOL    HW1 5868  11.864   5.131   4.028
 1343SOL    HW2 5869  11.854   5.146   3.878
 1344SOL     OW 5870   7.265  10.666  11.369
 1344SOL    HW1 5871   7.247  10.573  11.351
 1344SOL    HW2 5872   7.181  10.710  11.357
 1345SOL     OW 5873   2.445   5.603  14.070
 1345SOL    HW1 5874   2.495   5.654  14.133
 1345SOL    HW2 5875   2.359   5.591  14.111
 1346SOL     OW 5876  13.659  14.878   6.694
 1346SOL    HW1 5877  13.631  14.793   6.726
 1346SOL    HW2 5878  13.682  14.863   6.602
 1347SOL     OW 5879   1.592  13.619   9.806
 1347SOL    HW1 5880   1.501  13.590   9.795
 1347SOL    HW2 5881   1.628  13.617   9.717
 1348SOL     OW 5882   5.984   4.299  11.838
 1348SOL    HW1 5883   5.956   4.227  11.781
 1348SOL    HW2 5884   5.959   4.378  11.790
 1349SOL     OW 5885  13.272   8.522   0.144
 1349SOL    HW1 5886  13.364   8.531   0.118
 1349SOL    HW2 5887  13.276   8.468   0.223
 1350SOL     OW 5888  11.370   2.858   5.362
 1350SOL    HW1 5889  11.440   2.909   5.324
 1350SOL    HW2 5890  11.413   2.797   5.422
 1351SOL     OW 5891   0.075   4.129   4.352
 1351SOL    HW1 5892   0.033   4.045   4.331
 1351SOL    HW2 5893   0.003   4.192   4.357
 1352SOL     OW 5894   4.655  13.000   6.365
 1352SOL    HW1 5895   4.670  13.000   6.459
 1352SOL    HW2 5896   4.588  12.933   6.351
 1353SOL     OW 5897   1.432   8.995   8.315
 1353SOL    HW1 5898   1.454   8.909   8.279
 1353SOL    HW2 5899   1.412   9.049   8.238
 1354SOL     OW 5900   4.582  12.235   1.593
 1354SOL    HW1 5901   4.664  12.277   1.565
 1354SOL    HW2 5902   4.577  12.155   1.540
 1355SOL     OW 5903   3.276   9.075  10.680
 1355SOL    HW1 5904   3.294   8.998  10.733
 1355SOL    HW2 5905   3.257   9.144  10.743
 1356SOL     OW 5906   7.818  12.480   7.692
 1356SOL    HW1 5907   7.826  12.386   7.674
 1356SOL    HW2 5908   7.724  12.495   7.701
 1357SOL     OW 5909  11.928  13.375   7.155
 1357SOL    HW1 5910  11.942  13.280   7.153
 1357SOL    HW2 5911  11.930  13.397   7.248
 1358SOL     OW 5912   0.896   5.939  12.189
 1358SOL    HW1 5913   0.937   6.017  12.152
 1358SOL    HW2 5914   0.958   5.908  12.255
 1359SOL     OW 5915  10.772   4.781  10.912
 1359SOL    HW1 5916  10.735   4.704  10.868
 1359SOL    HW2 5917  10.797   4.750  10.999
 1360SOL     OW 5918   0.515   3.556   0.353
 1360SOL    HW1 5919   0.548   3.645   0.339
 1360SOL    HW2 5920   0.528   3.540   0.447
 1361SOL     OW 5921  12.983   4.353   9.836
 1361SOL    HW1 5922  13.060   4.387   9.792
 1361SOL    HW2 5923  12.910   4.404   9.800
 1362SOL     OW 5924   2.032   6.432   2.246
 1362SOL    HW1 5925   2.014   6.390   2.331
 1362SOL    HW2 5926   1.973   6.388   2.185
 1363SOL     OW 5927   6.395   5.358   4.932
 1363SOL    HW1 5928   6.324   5.421   4.923
 1363SOL    HW2 5929   6.352   5.272   4.928
 1364SOL     OW 5930  11.658   2.208  13.000
 1364SOL    HW1 5931  11.677   2.126  12.953
 1364SOL    HW2 5932  11.562   2.214  12.998
 1365SOL     OW 5933  13.973  12.846  14.064
 1365SOL    HW1 5934  13.897  12.884  14.019
 1365SOL    HW2 5935  13.974  12.755  14.035
 1366SOL     OW 5936  14.813   6.686  12.855
 1366SOL    HW1 5937   0.023   6.675  12.881
 1366SOL    HW2 5938  14.792   6.605  12.809
 1367SOL     OW 5939  11.631   8.777   2.568
 1367SOL    HW1 5940  11.707   8.801   2.514
 1367SOL    HW2 5941  11.593   8.702   2.523
 1368SOL     OW 5942  14.406   2.319   7.381
 1368SOL    HW1 5943  14.391   2.374   7.458
 1368SOL    HW2 5944  14.501   2.322   7.369
 1369SOL     OW 5945   6.908  13.281   1.976
 1369SOL    HW1 5946   6.999  13.265   2.002
 1369SOL    HW2 5947   6.914  13.350   1.910
 1370SOL     OW 5948  14.545  14.319  13.630
 1370SOL    HW1 5949  14.512  14.385  13.569
 1370SOL    HW2 5950  14.504  14.238  13.601
 1371SOL     OW 5951   3.178  13.122   1.450
 1371SOL    HW1 5952   3.210  13.043   1.405
 1371SOL    HW2 5953   3.258  13.165   1.481
 1372SOL     OW 5954  14.343   0.067   8.208
 1372SOL    HW1 5955  14.320   0.159   8.203
 1372SOL    HW2 5956  14.270   0.021   8.166
 1373SOL     OW 5957  13.200   9.035  11.537
 1373SOL    HW1 5958  13.237   8.962  11.587
 1373SOL    HW2 5959  13.194   9.107  11.600
 1374SOL     OW 5960   2.875  12.338  14.151
 1374SOL    HW1 5961   2.821  12.348  14.073
 1374SOL    HW2 5962   2.844  12.406  14.211
 1375SOL     OW 5963   8.108  14.236  14.406
 1375SOL    HW1 5964   8.162  14.298  14.454
 1375SOL    HW2 5965   8.027  14.231  14.457
 1376SOL     OW 5966  11.215   2.680   4.106
 1376SOL    HW1 5967  11.234   2.687   4.013
 1376SOL    HW2 5968  11.179   2.592   4.117
 1377SOL     OW 5969  12.989  10.185  13.689
 1377SOL    HW1 5970  12.952  10.097  13.687
 1377SOL    HW2 5971  13.083  10.171  13.701
 1378SOL     OW 5972   8.293   4.357   6.041
 1378SOL    HW1 5973   8.357   4.292   6.069
 1378SOL    HW2 5974   8.310   4.433   6.098
 1379SOL     OW 5975  12.398   6.206  13.059
 1379SOL    HW1 5976  12.304   6.189  13.068
 1379SOL    HW2 5977  12.408   6.242  12.971
 1380SOL     OW 5978   2.970   6.837  10.521
 1380SOL    HW1 5979   2.994   6.830  10.614
 1380SOL    HW2 5980   3.004   6.923  10.494
 1381SOL     OW 5981   6.718   7.071  14.022
 1381SOL    HW1 5982   6.655   7.097  14.089
 1381SOL    HW2 5983   6.678   6.997  13.978
 1382SOL     OW 5984   8.470   7.814   1.849
 1382SOL    HW1 5985   8.542   7.756   1.872
 1382SOL    HW2 5986   8.506   7.902   1.856
 1383SOL     OW 5987   0.652   0.308   2.677
 1383SOL    HW1 5988   0.572   0.295   2.627
 1383SOL    HW2 5989   0.698   0.224   2.670
 1384SOL     OW 5990  10.334  12.992   2.236
 1384SOL    HW1 5991  10.291  12.921   2.284
 1384SOL    HW2 5992  10.264  13.055   2.220
 1385SOL     OW 5993  10.249  11.232  10.805
 1385SOL    HW1 5994  10.245  11.294  10.878
 1385SOL    HW2 5995  10.255  11.146  10.847
 1386SOL     OW 5996   1.857   6.127   4.030
 1386SOL    HW1 5997   1.890   6.038   4.024
 1386SOL    HW2 5998   1.764   6.119   4.011
 1387SOL     OW 5999   6.404   4.535   1.386
 1387SOL    HW1 6000   6.375   4.613   1.433
 1387SOL    HW2 6001   6.442   4.567   1.305
 1388SOL     OW 6002   2.732   1.921   6.503
 1388SOL    HW1 6003   2.773   1.974   6.571
 1388SOL    HW2 6004   2.732   1.977   6.425
 1389SOL     OW 6005   2.944   3.987  13.870
 1389SOL    HW1 6006   3.034   4.010  13.897
 1389SOL    HW2 6007   2.891   4.062  13.898
 1390SOL     OW 6008   7.016   2.395   4.505
 1390SOL    HW1 6009   6.966   2.314   4.489
 1390SOL    HW2 6010   7.074   2.402   4.429
 1391SOL     OW 6011  11.822   7.684   7.729
 1391SOL    HW1 6012  11.738   7.643   7.751
 1391SOL    HW2 6013  11.876   7.667   7.806
 1392SOL     OW 6014   7.335   4.462  11.861
 1392SOL    HW1 6015   7.333   4.488  11.769
 1392SOL    HW2 6016   7.309   4.370  11.861
 1393SOL     OW 6017   2.978   1.816   9.678
 1393SOL    HW1 6018   3.055   1.771   9.642
 1393SOL    HW2 6019   3.013   1.879   9.740
 1394SOL     OW 6020  10.887  14.513   0.455
 1394SOL    HW1 6021  10.852  14.478   0.537
 1394SOL    HW2 6022  10.889  14.438   0.395
 1395SOL     OW 6023   9.281  12.450  12.670
 1395SOL    HW1 6024   9.343  12.420  12.738
 1395SOL    HW2 6025   9.294  12.544  12.665
 1396SOL     OW 6026   6.440   3.095   6.066
 1396SOL    HW1 6027   6.463   3.056   5.982
 1396SOL    HW2 6028   6.346   3.116   6.058
 1397SOL     OW 6029   5.818  12.002   5.838
 1397SOL    HW1 6030   5.859  12.061   5.775
 1397SOL    HW2 6031   5.834  12.042   5.923
 1398SOL     OW 6032   8.422   4.263  14.443
 1398SOL    HW1 6033   8.432   4.358  14.439
 1398SOL    HW2 6034   8.511   4.230  14.428
 1399SOL     OW 6035   2.869  13.194  11.625
 1399SOL    HW1 6036   2.789  13.171  11.672
 1399SOL    HW2 6037   2.842  13.200  11.534
 1400SOL     OW 6038  14.253   0.558   4.294
 1400SOL    HW1 6039  14.268   0.471   4.330
 1400SOL    HW2 6040  14.230   0.613   4.370
 1401SOL     OW 6041  14.558   9.619  10.577
 1401SOL    HW1 6042  14.605   9.613  10.660
 1401SOL    HW2 6043  14.531   9.529  10.558
 1402SOL     OW 6044  11.522  14.296   0.988
 1402SOL    HW1 6045  11.548  14.230   0.924
 1402SOL    HW2 6046  11.538  14.380   0.945
 1403SOL     OW 6047   7.183  10.741   3.866
 1403SOL    HW1 6048   7.119  10.672   3.882
 1403SOL    HW2 6049   7.260  10.694   3.834
 1404SOL     OW 6050   3.773  11.250  13.138
 1404SOL    HW1 6051   3.768  11.258  13.233
 1404SOL    HW2 6052   3.850  11.195  13.122
 1405SOL     OW 6053   8.075  14.382   7.257
 1405SOL    HW1 6054   8.145  14.438   7.222
 1405SOL    HW2 6055   8.055  14.322   7.186
 1406SOL     OW 6056   9.925  11.628   5.923
 1406SOL    HW1 6057   9.934  11.537   5.953
 1406SOL    HW2 6058   9.893  11.675   6.000
 1407SOL     OW 6059  12.928   1.823  11.253
 1407SOL    HW1 6060  12.866   1.874  11.304
 1407SOL    HW2 6061  12.988   1.888  11.216
 1408SOL     OW 6062   7.074   5.399  10.680
 1408SOL    HW1 6063   7.007   5.364  10.621
 1408SOL    HW2 6064   7.154   5.353  10.655
 1409SOL     OW 6065   8.657  12.271   9.152
 1409SOL    HW1 6066   8.720  12.201   9.172
 1409SOL    HW2 6067   8.575  12.240   9.188
 1410SOL     OW 6068   3.932   4.295   0.151
 1410SOL    HW1 6069   3.996   4.346   0.101
 1410SOL    HW2 6070   3.872   4.260   0.085
 1411SOL     OW 6071   7.285   2.214   3.879
 1411SOL    HW1 6072   7.322   2.129   3.856
 1411SOL    HW2 6073   7.361   2.273   3.881
 1412SOL     OW 6074   1.704  13.302   5.527
 1412SOL    HW1 6075   1.757  13.269   5.600
 1412SOL    HW2 6076   1.735  13.391   5.512
 1413SOL     OW 6077   4.404   0.399   3.660
 1413SOL    HW1 6078   4.309   0.395   3.648
 1413SOL    HW2 6079   4.435   0.450   3.586
 1414SOL     OW 6080   2.252  13.766   1.713
 1414SOL    HW1 6081   2.222  13.676   1.728
 1414SOL    HW2 6082   2.262  13.803   1.800
 1415SOL     OW 6083   9.773  11.370   6.984
 1415SOL    HW1 6084   9.700  11.321   7.022
 1415SOL    HW2 6085   9.744  11.461   6.985
 1416SOL     OW 6086   2.157  14.393  13.598
 1416SOL    HW1 6087   2.117  14.322  13.647
 1416SOL    HW2 6088   2.241  14.357  13.568
 1417SOL     OW 6089   1.503  11.159  13.979
 1417SOL    HW1 6090   1.455  11.115  13.908
 1417SOL    HW2 6091   1.441  11.223  14.013
 1418SOL     OW 6092  13.658   5.919  11.541
 1418SOL    HW1 6093  13.579   5.931  11.488
 1418SOL    HW2 6094  13.721   5.880  11.480
 1419SOL     OW 6095  10.973   7.502  14.498
 1419SOL    HW1 6096  11.043   7.485  14.561
 1419SOL    HW2 6097  10.913   7.561  14.544
 1420SOL     OW 6098  10.078   7.720   0.454
 1420SOL    HW1 6099  10.103   7.709   0.546
 1420SOL    HW2 6100  10.141   7.784   0.420
 1421SOL     OW 6101   0.585   6.232  11.400
 1421SOL    HW1 6102   0.517   6.185  11.449
 1421SOL    HW2 6103   0.576   6.200  11.310
 1422SOL     OW 6104   9.297   4.654   5.139
 1422SOL    HW1 6105   9.219   4.615   5.101
 1422SOL    HW2 6106   9.363   4.647   5.070
 1423SOL     OW 6107   3.197   1.591   2.488
 1423SOL    HW1 6108   3.203   1.518   2.550
 1423SOL    HW2 6109   3.270   1.577   2.428
 1424SOL     OW 6110   9.559   4.621  14.390
 1424SOL    HW1 6111   9.464   4.620  14.406
 1424SOL    HW2 6112   9.570   4.674  14.311
 1425SOL     OW 6113   0.430  13.945  10.802
 1425SOL    HW1 6114   0.400  14.015  10.859
 1425SOL    HW2 6115   0.482  13.888  10.858
 1426SOL     OW 6116   2.263  12.939   6.469
 1426SOL    HW1 6117   2.254  12.980   6.555
 1426SOL    HW2 6118   2.317  13.001   6.419
 1427SOL     OW 6119   6.720   0.895   0.285
 1427SOL    HW1 6120   6.810   0.904   0.256
 1427SOL    HW2 6121   6.685   0.984   0.283
 1428SOL     OW 6122   3.212  13.609   1.563
 1428SOL    HW1 6123   3.118  13.594   1.556
 1428SOL    HW2 6124   3.219  13.696   1.603
 1429SOL     OW 6125   2.822   1.254   6.341
 1429SOL    HW1 6126   2.762   1.327   6.354
 1429SOL    HW2 6127   2.875   1.279   6.265
 1430SOL     OW 6128   6.598  13.780   9.827
 1430SOL    HW1 6129   6.544  13.723   9.773
 1430SOL    HW2 6130   6.666  13.722   9.862
 1431SOL     OW 6131   4.470   7.276   3.513
 1431SOL    HW1 6132   4.494   7.348   3.454
 1431SOL    HW2 6133   4.551   7.228   3.527
 1432SOL     OW 6134  12.433   4.729   2.658
 1432SOL    HW1 6135  12.409   4.767   2.574
 1432SOL    HW2 6136  12.528   4.740   2.663
 1433SOL     OW 6137  10.633   5.921  13.388
 1433SOL    HW1 6138  10.628   6.003  13.439
 1433SOL    HW2 6139  10.652   5.949  13.299
 1434SOL     OW 6140  10.245   7.807   9.662
 1434SOL    HW1 6141  10.281   7.894   9.641
 1434SOL    HW2 6142  10.200   7.820   9.746
 1435SOL     OW 6143  14.575   4.948  12.775
 1435SOL    HW1 6144  14.561   4.968  12.868
 1435SOL    HW2 6145  14.573   4.853  12.770
 1436SOL     OW 6146  12.268  13.054   9.156
 1436SOL    HW1 6147  12.194  13.038   9.098
 1436SOL    HW2 6148  12.323  13.116   9.109
 1437SOL     OW 6149   4.710  10.124  10.464
 1437SOL    HW1 6150   4.761  10.098  10.540
 1437SOL    HW2 6151   4.656  10.048  10.444
 1438SOL     OW 6152  13.241   6.498   3.550
 1438SOL    HW1 6153  13.205   6.579   3.585
 1438SOL    HW2 6154  13.250   6.441   3.627
 1439SOL     OW 6155  12.446  12.094  12.683
 1439SOL    HW1 6156  12.475  12.175  12.725
 1439SOL    HW2 6157  12.494  12.025  12.729
 1440SOL     OW 6158   7.032   5.534   0.659
 1440SOL    HW1 6159   7.022   5.521   0.565
 1440SOL    HW2 6160   7.021   5.628   0.672
 1441SOL     OW 6161   4.260   2.908  12.898
 1441SOL    HW1 6162   4.348   2.878  12.876
 1441SOL    HW2 6163   4.268   2.947  12.985
 1442SOL     OW 6164   5.223   8.115  10.064
 1442SOL    HW1 6165   5.129   8.097  10.070
 1442SOL    HW2 6166   5.264   8.032  10.089
 1443SOL     OW 6167   0.448   0.395   6.530
 1443SOL    HW1 6168   0.418   0.391   6.439
 1443SOL    HW2 6169   0.438   0.305   6.562
 1444SOL     OW 6170   5.998  12.398   7.160
 1444SOL    HW1 6171   5.958  12.433   7.080
 1444SOL    HW2 6172   6.053  12.469   7.193
 1445SOL     OW 6173  10.942   7.091   9.440
 1445SOL    HW1 6174  10.979   7.106   9.527
 1445SOL    HW2 6175  10.908   7.001   9.443
 1446SOL     OW 6176  12.527  13.035   2.673
 1446SOL    HW1 6177  12.529  13.057   2.580
 1446SOL    HW2 6178  12.563  12.946   2.677
 1447SOL     OW 6179   4.901   7.354   3.257
 1447SOL    HW1 6180   4.951   7.273   3.271
 1447SOL    HW2 6181   4.853   7.366   3.340
 1448SOL     OW 6182   1.739   1.304   3.041
 1448SOL    HW1 6183   1.751   1.385   3.091
 1448SOL    HW2 6184   1.751   1.331   2.950
 1449SOL     OW 6185  12.865  11.556   1.464
 1449SOL    HW1 6186  12.916  11.479   1.438
 1449SOL    HW2 6187  12.890  11.572   1.555
 1450SOL     OW 6188  11.596  12.609   4.460
 1450SOL    HW1 6189  11.680  12.581   4.422
 1450SOL    HW2 6190  11.597  12.574   4.549
 1451SOL     OW 6191   1.078  14.001   8.077
 1451SOL    HW1 6192   1.088  13.969   7.987
 1451SOL    HW2 6193   1.000  14.056   8.074
 1452SOL     OW 6194   9.689   8.228   0.212
 1452SOL    HW1 6195   9.681   8.169   0.287
 1452SOL    HW2 6196   9.775   8.269   0.222
 1453SOL     OW 6197  14.278   9.710   5.515
 1453SOL    HW1 6198  14.203   9.768   5.529
 1453SOL    HW2 6199  14.336   9.760   5.458
 1454SOL     OW 6200   4.301   5.483   4.487
 1454SOL    HW1 6201   4.293   5.479   4.582
 1454SOL    HW2 6202   4.379   5.536   4.472
 1455SOL     OW 6203   2.492   8.611  10.654
 1455SOL    HW1 6204   2.535   8.676  10.598
 1455SOL    HW2 6205   2.546   8.608  10.733
 1456SOL     OW 6206  10.314  10.384   1.473
 1456SOL    HW1 6207  10.401  10.357   1.503
 1456SOL    HW2 6208  10.275  10.305   1.436
 1457SOL     OW 6209   7.376   7.389   1.526
 1457SOL    HW1 6210   7.388   7.401   1.620
 1457SOL    HW2 6211   7.283   7.368   1.516
 1458SOL     OW 6212   0.578   8.489  12.473
 1458SOL    HW1 6213   0.483   8.491  12.461
 1458SOL    HW2 6214   0.613   8.532  12.395
 1459SOL     OW 6215  14.151   8.436   8.331
 1459SOL    HW1 6216  14.094   8.380   8.383
 1459SOL    HW2 6217  14.190   8.496   8.395
 1460SOL     OW 6218   7.211   7.245  13.401
 1460SOL    HW1 6219   7.153   7.288  13.338
 1460SOL    HW2 6220   7.299   7.263  13.369
 1461SOL     OW 6221   5.808   6.251   9.866
 1461SOL    HW1 6222   5.820   6.290   9.952
 1461SOL    HW2 6223   5.897   6.226   9.839
 1462SOL     OW 6224   8.707  14.820  10.345
 1462SOL    HW1 6225   8.625  14.860  10.372
 1462SOL    HW2 6226   8.682  14.736  10.307
 1463SOL     OW 6227   4.620   8.844  12.706
 1463SOL    HW1 6228   4.614   8.798  12.790
 1463SOL    HW2 6229   4.655   8.930  12.729
 1464SOL     OW 6230  14.739  14.148  13.540
 1464SOL    HW1 6231  14.697  14.117  13.460
 1464SOL    HW2 6232  14.667  14.187  13.591
 1465SOL     OW 6233   1.244   1.164  12.035
 1465SOL    HW1 6234   1.233   1.259  12.046
 1465SOL    HW2 6235   1.186   1.142  11.962
 1466SOL     OW 6236  11.158   0.055   2.634
 1466SOL    HW1 6237  11.152  14.851   2.594
 1466SOL    HW2 6238  11.215   0.105   2.575
 1467SOL     OW 6239   8.711  12.045   9.801
 1467SOL    HW1 6240   8.630  12.068   9.756
 1467SOL    HW2 6241   8.763  11.999   9.736
 1468SOL     OW 6242   9.930   4.865   5.350
 1468SOL    HW1 6243   9.927   4.780   5.307
 1468SOL    HW2 6244  10.023   4.879   5.368
 1469SOL     OW 6245   3.525   2.169   0.045
 1469SOL    HW1 6246   3.504   2.192  14.837
 1469SOL    HW2 6247   3.604   2.220   0.066
 1470SOL     OW 6248   0.771   5.352   3.048
 1470SOL    HW1 6249   0.677   5.348   3.063
 1470SOL    HW2 6250   0.807   5.395   3.125
 1471SOL     OW 6251   7.429   8.088   5.763
 1471SOL    HW1 6252   7.401   7.996   5.756
 1471SOL    HW2 6253   7.508   8.093   5.710
 1472SOL     OW 6254   9.363   8.808   9.027
 1472SOL    HW1 6255   9.377   8.767   9.112
 1472SOL    HW2 6256   9.426   8.880   9.024
 1473SOL     OW 6257   1.203  13.809   4.227
 1473SOL    HW1 6258   1.115  13.837   4.248
 1473SOL    HW2 6259   1.197  13.713   4.222
 1474SOL     OW 6260   4.166   4.032  12.812
 1474SOL    HW1 6261   4.190   3.963  12.873
 1474SOL    HW2 6262   4.228   4.023  12.739
 1475SOL     OW 6263  13.737  13.614   2.250
 1475SOL    HW1 6264  13.775  13.594   2.336
 1475SOL    HW2 6265  13.812  13.614   2.190
 1476SOL     OW 6266  12.326  11.398   5.352
 1476SOL    HW1 6267  12.301  11.490   5.362
 1476SOL    HW2 6268  12.376  11.377   5.431
 1477SOL     OW 6269   5.451   0.620   1.610
 1477SOL    HW1 6270   5.376   0.562   1.596
 1477SOL    HW2 6271   5.416   0.708   1.593
 1478SOL     OW 6272   6.610   5.890  14.574
 1478SOL    HW1 6273   6.546   5.882  14.645
 1478SOL    HW2 6274   6.560   5.874  14.494
 1479SOL     OW 6275  12.527  13.115   4.333
 1479SOL    HW1 6276  12.545  13.045   4.270
 1479SOL    HW2 6277  12.603  13.115   4.392
 1480SOL     OW 6278   9.164   7.395   6.497
 1480SOL    HW1 6279   9.232   7.461   6.508
 1480SOL    HW2 6280   9.206   7.326   6.445
 1481SOL     OW 6281   9.502  12.708   9.883
 1481SOL    HW1 6282   9.431  12.666   9.932
 1481SOL    HW2 6283   9.489  12.802   9.898
 1482SOL     OW 6284   8.639   4.187  11.870
 1482SOL    HW1 6285   8.594   4.240  11.936
 1482SOL    HW2 6286   8.589   4.105  11.868
 1483SOL     OW 6287  10.279  14.395  11.209
 1483SOL    HW1 6288  10.237  14.481  11.208
 1483SOL    HW2 6289  10.371  14.414  11.229
 1484SOL     OW 6290  12.609   5.535   3.037
 1484SOL    HW1 6291  12.571   5.500   2.956
 1484SOL    HW2 6292  12.535   5.538   3.098
 1485SOL     OW 6293   0.757   2.073   7.908
 1485SOL    HW1 6294   0.820   2.098   7.975
 1485SOL    HW2 6295   0.717   1.993   7.942
 1486SOL     OW 6296   8.573  10.068   8.502
 1486SOL    HW1 6297   8.575  10.137   8.435
 1486SOL    HW2 6298   8.480  10.055   8.520
 1487SOL     OW 6299   6.434   5.571   0.076
 1487SOL    HW1 6300   6.478   5.645   0.034
 1487SOL    HW2 6301   6.506   5.520   0.115
 1488SOL     OW 6302   2.655  12.003   6.728
 1488SOL    HW1 6303   2.577  11.954   6.701
 1488SOL    HW2 6304   2.728  11.954   6.691
 1489SOL     OW 6305  10.656   1.013  12.065
 1489SOL    HW1 6306  10.649   0.989  12.158
 1489SOL    HW2 6307  10.569   1.047  12.043
 1490SOL     OW 6308   2.151   0.678   8.097
 1490SOL    HW1 6309   2.190   0.765   8.089
 1490SOL    HW2 6310   2.139   0.665   8.191
 1491SOL     OW 6311  14.438  13.049  14.613
 1491SOL    HW1 6312  14.463  13.115  14.548
 1491SOL    HW2 6313  14.425  12.969  14.562
 1492SOL     OW 6314  11.069   3.692   6.802
 1492SOL    HW1 6315  11.160   3.713   6.784
 1492SOL    HW2 6316  11.042   3.756   6.868
 1493SOL     OW 6317   1.015  13.341   3.435
 1493SOL    HW1 6318   1.096  13.323   3.388
 1493SOL    HW2 6319   1.032  13.423   3.482
 1494SOL     OW 6320  11.123  12.586   4.669
 1494SOL    HW1 6321  11.033  12.591   4.637
 1494SOL    HW2 6322  11.165  12.665   4.636
 1495SOL     OW 6323   8.176   9.830  10.487
 1495SOL    HW1 6324   8.185   9.810  10.580
 1495SOL    HW2 6325   8.123   9.759  10.452
 1496SOL     OW 6326   9.041   6.990   6.471
 1496SOL    HW1 6327   9.068   7.048   6.541
 1496SOL    HW2 6328   9.096   6.913   6.480
 1497SOL     OW 6329  13.198  11.017   7.649
 1497SOL    HW1 6330  13.218  10.949   7.714
 1497SOL    HW2 6331  13.263  11.004   7.580
 1498SOL     OW 6332   7.421   2.263  13.469
 1498SOL    HW1 6333   7.421   2.280  13.375
 1498SOL    HW2 6334   7.484   2.191  13.480
 1499SOL     OW 6335  12.260  12.620   7.683
 1499SOL    HW1 6336  12.224  12.625   7.771
 1499SOL    HW2 6337  12.324  12.691   7.679
 1500SOL     OW 6338   6.630  11.899  13.023
 1500SOL    HW1 6339   6.627  11.833  12.953
 1500SOL    HW2 6340   6.606  11.981  12.980
 1501SOL     OW 6341   9.998   1.195   5.109
 1501SOL    HW1 6342   9.934   1.255   5.147
 1501SOL    HW2 6343  10.007   1.224   5.019
 1502SOL     OW 6344   0.734  10.825  10.969
 1502SOL    HW1 6345   0.739  10.917  10.994
 1502SOL    HW2 6346   0.686  10.825  10.887
 1503SOL     OW 6347   3.325   6.699   9.923
 1503SOL    HW1 6348   3.356   6.616   9.889
 1503SOL    HW2 6349   3.404   6.741   9.957
 1504SOL     OW 6350   3.901  11.823   2.739
 1504SOL    HW1 6351   3.924  11.913   2.760
 1504SOL    HW2 6352   3.986  11.778   2.729
 1505SOL     OW 6353   0.651   3.793   7.800
 1505SOL    HW1 6354   0.661   3.795   7.895
 1505SOL    HW2 6355   0.569   3.838   7.783
 1506SOL     OW 6356  10.932  10.625   6.958
 1506SOL    HW1 6357  10.931  10.719   6.976
 1506SOL    HW2 6358  11.024  10.605   6.941
 1507SOL     OW 6359  10.855  13.205  14.443
 1507SOL    HW1 6360  10.862  13.278  14.505
 1507SOL    HW2 6361  10.944  13.193  14.410
 1508SOL     OW 6362  10.255   5.745   6.536
 1508SOL    HW1 6363  10.312   5.821   6.547
 1508SOL    HW2 6364  10.196   5.770   6.465
 1509SOL     OW 6365   4.284   3.200   0.223
 1509SOL    HW1 6366   4.362   3.235   0.266
 1509SOL    HW2 6367   4.296   3.105   0.225
 1510SOL     OW 6368   9.343   9.814   1.854
 1510SOL    HW1 6369   9.286   9.767   1.914
 1510SOL    HW2 6370   9.372   9.749   1.790
 1511SOL     OW 6371   1.001   1.673   0.850
 1511SOL    HW1 6372   1.001   1.769   0.845
 1511SOL    HW2 6373   1.093   1.648   0.840
 1512SOL     OW 6374   4.656  13.012   7.802
 1512SOL    HW1 6375   4.684  13.098   7.771
 1512SOL    HW2 6376   4.568  13.026   7.837
 1513SOL     OW 6377  11.145   3.338  13.333
 1513SOL    HW1 6378  11.172   3.427  13.354
 1513SOL    HW2 6379  11.079   3.348  13.264
 1514SOL     OW 6380  13.375  11.255   3.328
 1514SOL    HW1 6381  13.367  11.268   3.422
 1514SOL    HW2 6382  13.427  11.330   3.298
 1515SOL     OW 6383   9.487   3.708   5.794
 1515SOL    HW1 6384   9.552   3.762   5.838
 1515SOL    HW2 6385   9.520   3.618   5.804
 1516SOL     OW 6386   0.255   5.808  10.499
 1516SOL    HW1 6387   0.247   5.807  10.595
 1516SOL    HW2 6388   0.336   5.857  10.483
 1517SOL     OW 6389  12.273  10.341   2.356
 1517SOL    HW1 6390  12.327  10.415   2.328
 1517SOL    HW2 6391  12.206  10.381   2.411
 1518SOL     OW 6392  11.254   1.625   6.347
 1518SOL    HW1 6393  11.340   1.596   6.379
 1518SOL    HW2 6394  11.191   1.579   6.402
 1519SOL     OW 6395   2.160   7.377   4.531
 1519SOL    HW1 6396   2.250   7.351   4.547
 1519SOL    HW2 6397   2.117   7.298   4.499
 1520SOL     OW 6398  14.047   2.395   7.437
 1520SOL    HW1 6399  13.967   2.364   7.394
 1520SOL    HW2 6400  14.107   2.320   7.434
 1521SOL     OW 6401  13.842  13.880   6.151
 1521SOL    HW1 6402  13.920  13.935   6.149
 1521SOL    HW2 6403  13.874  13.791   6.136
 1522SOL     OW 6404   5.879   1.167  13.331
 1522SOL    HW1 6405   5.814   1.129  13.390
 1522SOL    HW2 6406   5.922   1.091  13.291
 1523SOL     OW 6407  13.318  13.522   5.665
 1523SOL    HW1 6408  13.360  13.454   5.612
 1523SOL    HW2 6409  13.390  13.567   5.709
 1524SOL     OW 6410   4.262  14.331   5.965
 1524SOL    HW1 6411   4.354  14.356   5.971
 1524SOL    HW2 6412   4.251  14.303   5.874
 1525SOL     OW 6413  12.240  10.165   7.379
 1525SOL    HW1 6414  12.252  10.236   7.316
 1525SOL    HW2 6415  12.184  10.102   7.333
 1526SOL     OW 6416   4.848   9.194   2.586
 1526SOL    HW1 6417   4.857   9.145   2.504
 1526SOL    HW2 6418   4.785   9.263   2.566
 1527SOL     OW 6419  10.967   4.885  10.386
 1527SOL    HW1 6420  10.890   4.937  10.363
 1527SOL    HW2 6421  10.998   4.850  10.303
 1528SOL     OW 6422   7.550   9.581  12.030
 1528SOL    HW1 6423   7.543   9.486  12.025
 1528SOL    HW2 6424   7.507   9.604  12.113
 1529SOL     OW 6425   9.898   3.888  13.222
 1529SOL    HW1 6426   9.824   3.828  13.236
 1529SOL    HW2 6427   9.858   3.975  13.219
 1530SOL     OW 6428  11.129   1.638  12.754
 1530SOL    HW1 6429  11.192   1.567  12.741
 1530SOL    HW2 6430  11.181   1.718  12.747
 1531SOL     OW 6431   2.734   4.921  10.200
 1531SOL    HW1 6432   2.742   4.886  10.289
 1531SOL    HW2 6433   2.750   4.846  10.143
 1532SOL     OW 6434   9.268   9.793   3.981
 1532SOL    HW1 6435   9.301   9.829   3.898
 1532SOL    HW2 6436   9.327   9.721   4.001
 1533SOL     OW 6437   8.870  13.728   2.530
 1533SOL    HW1 6438   8.917  13.657   2.485
 1533SOL    HW2 6439   8.935  13.797   2.539
 1534SOL     OW 6440  14.169  10.912  14.083
 1534SOL    HW1 6441  14.111  10.932  14.010
 1534SOL    HW2 6442  14.246  10.968  14.068
 1535SOL     OW 6443   3.413   0.245   6.664
 1535SOL    HW1 6444   3.507   0.247   6.684
 1535SOL    HW2 6445   3.381   0.168   6.711
 1536SOL     OW 6446   4.497  12.056  13.508
 1536SOL    HW1 6447   4.491  11.982  13.568
 1536SOL    HW2 6448   4.437  12.034  13.437
 1537SOL     OW 6449  14.195   0.409   8.818
 1537SOL    HW1 6450  14.161   0.487   8.774
 1537SOL    HW2 6451  14.257   0.443   8.882
 1538SOL     OW 6452  11.596  10.410   2.047
 1538SOL    HW1 6453  11.525  10.360   2.088
 1538SOL    HW2 6454  11.583  10.396   1.953
 1539SOL     OW 6455   7.298   0.786  12.088
 1539SOL    HW1 6456   7.332   0.821  12.171
 1539SOL    HW2 6457   7.213   0.828  12.077
 1540SOL     OW 6458   4.417  12.552  14.649
 1540SOL    HW1 6459   4.400  12.577  14.559
 1540SOL    HW2 6460   4.500  12.594  14.671
 1541SOL     OW 6461   2.635   1.709   9.892
 1541SOL    HW1 6462   2.659   1.724   9.801
 1541SOL    HW2 6463   2.719   1.696   9.937
 1542SOL     OW 6464   0.145   1.139   6.148
 1542SOL    HW1 6465   0.128   1.046   6.165
 1542SOL    HW2 6466   0.092   1.185   6.213
 1543SOL     OW 6467   6.513  10.542   2.997
 1543SOL    HW1 6468   6.546  10.632   3.003
 1543SOL    HW2 6469   6.527  10.506   3.085
 1544SOL     OW 6470  10.350   6.217  13.621
 1544SOL    HW1 6471  10.417   6.194  13.557
 1544SOL    HW2 6472  10.399   6.245  13.698
 1545SOL     OW 6473  11.103   1.663   2.265
 1545SOL    HW1 6474  11.159   1.724   2.218
 1545SOL    HW2 6475  11.031   1.717   2.298
 1546SOL     OW 6476   3.927   9.894   1.919
 1546SOL    HW1 6477   3.860   9.847   1.870
 1546SOL    HW2 6478   3.974   9.946   1.853
 1547SOL     OW 6479   4.083   8.721   7.971
 1547SOL    HW1 6480   4.107   8.785   7.904
 1547SOL    HW2 6481   4.037   8.772   8.037
 1548SOL     OW 6482  14.596   2.992   6.222
 1548SOL    HW1 6483  14.555   2.960   6.142
 1548SOL    HW2 6484  14.626   3.080   6.201
 1549SOL     OW 6485  14.498   5.757   0.658
 1549SOL    HW1 6486  14.583   5.793   0.684
 1549SOL    HW2 6487  14.437   5.830   0.666
 1550SOL     OW 6488   4.427  14.255  11.335
 1550SOL    HW1 6489   4.415  14.220  11.423
 1550SOL    HW2 6490   4.343  14.239  11.291
 1551SOL     OW 6491   8.953  13.298   8.219
 1551SOL    HW1 6492   8.873  13.327   8.176
 1551SOL    HW2 6493   8.972  13.213   8.180
 1552SOL     OW 6494  13.417   5.895   7.906
 1552SOL    HW1 6495  13.393   5.927   7.993
 1552SOL    HW2 6496  13.354   5.936   7.847
 1553SOL     OW 6497   8.382   7.524   4.809
 1553SOL    HW1 6498   8.443   7.487   4.745
 1553SOL    HW2 6499   8.378   7.460   4.880
 1554SOL     OW 6500   8.297  10.375   4.227
 1554SOL    HW1 6501   8.257  10.396   4.311
 1554SOL    HW2 6502   8.224  10.345   4.173
 1555SOL     OW 6503  11.544   6.869  14.712
 1555SOL    HW1 6504  11.588   6.804  14.658
 1555SOL    HW2 6505  11.615   6.920  14.752
 1556SOL     OW 6506   1.730   1.805   9.992
 1556SOL    HW1 6507   1.661   1.750  10.029
 1556SOL    HW2 6508   1.809   1.751   9.995
 1557SOL     OW 6509   7.887   9.268  12.356
 1557SOL    HW1 6510   7.967   9.285  12.406
 1557SOL    HW2 6511   7.852   9.355  12.337
 1558SOL     OW 6512  13.323   5.019   5.009
 1558SOL    HW1 6513  13.291   4.976   4.929
 1558SOL    HW2 6514  13.416   5.036   4.991
 1559SOL     OW 6515   2.356  14.800   7.109
 1559SOL    HW1 6516   2.365  14.839   7.196
 1559SOL    HW2 6517   2.445  14.778   7.083
 1560SOL     OW 6518   8.155   7.183   8.169
 1560SOL    HW1 6519   8.112   7.250   8.221
 1560SOL    HW2 6520   8.248   7.191   8.192
 1561SOL     OW 6521  10.619  11.924  13.102
 1561SOL    HW1 6522  10.646  11.861  13.168
 1561SOL    HW2 6523  10.697  11.936  13.047
 1562SOL     OW 6524   3.707   1.737  13.217
 1562SOL    HW1 6525   3.674   1.722  13.306
 1562SOL    HW2 6526   3.703   1.650  13.176
 1563SOL     OW 6527   9.552   0.586  11.719
 1563SOL    HW1 6528   9.629   0.555  11.767
 1563SOL    HW2 6529   9.483   0.591  11.785
 1564SOL     OW 6530  11.579   6.024   1.871
 1564SOL    HW1 6531  11.553   5.941   1.831
 1564SOL    HW2 6532  11.600   6.080   1.796
 1565SOL     OW 6533   2.042  13.415   4.816
 1565SOL    HW1 6534   1.962  13.375   4.783
 1565SOL    HW2 6535   2.107  13.400   4.747
 1566SOL     OW 6536   9.400   1.459   2.152
 1566SOL    HW1 6537   9.431   1.543   2.185
 1566SOL    HW2 6538   9.339   1.428   2.219
 1567SOL     OW 6539   7.738  14.538   4.110
 1567SOL    HW1 6540   7.792  14.593   4.167
 1567SOL    HW2 6541   7.795  14.465   4.086
 1568SOL     OW 6542   2.416   2.681  10.261
 1568SOL    HW1 6543   2.485   2.725  10.310
 1568SOL    HW2 6544   2.410   2.594  10.301
 1569SOL     OW 6545  12.261   9.088  12.616
 1569SOL    HW1 6546  12.276   9.157  12.551
 1569SOL    HW2 6547  12.346   9.044  12.624
 1570SOL     OW 6548   3.504   2.149   9.299
 1570SOL    HW1 6549   3.517   2.228   9.245
 1570SOL    HW2 6550   3.417   2.160   9.336
 1571SOL     OW 6551  14.494   3.030   9.387
 1571SOL    HW1 6552  14.422   3.087   9.359
 1571SOL    HW2 6553  14.451   2.960   9.437
 1572SOL     OW 6554   1.329  12.899  11.512
 1572SOL    HW1 6555   1.336  12.974  11.572
 1572SOL    HW2 6556   1.381  12.923  11.436
 1573SOL     OW 6557  14.073   8.082  10.740
 1573SOL    HW1 6558  14.039   8.082  10.829
 1573SOL    HW2 6559  14.166   8.065  10.749
 1574SOL     OW 6560   4.653   6.648  11.880
 1574SOL    HW1 6561   4.613   6.729  11.915
 1574SOL    HW2 6562   4.684   6.672  11.793
 1575SOL     OW 6563   5.553  12.156   9.117
 1575SOL    HW1 6564   5.632  12.193   9.078
 1575SOL    HW2 6565   5.563  12.171   9.211
 1576SOL     OW 6566  13.096   7.190   3.231
 1576SOL    HW1 6567  13.082   7.160   3.320
 1576SOL    HW2 6568  13.010   7.181   3.189
 1577SOL     OW 6569  11.539  12.775   8.637
 1577SOL    HW1 6570  11.500  12.801   8.721
 1577SOL    HW2 6571  11.629  12.750   8.659
 1578SOL     OW 6572  11.221   2.693   3.831
 1578SOL    HW1 6573  11.207   2.606   3.795
 1578SOL    HW2 6574  11.155   2.748   3.789
 1579SOL     OW 6575  12.995  14.547   0.066
 1579SOL    HW1 6576  13.049  14.524  14.872
 1579SOL    HW2 6577  13.046  14.613   0.113
 1580SOL     OW 6578   8.557   4.357   2.111
 1580SOL    HW1 6579   8.560   4.432   2.170
 1580SOL    HW2 6580   8.500   4.294   2.154
 1581SOL     OW 6581   0.180   1.523  14.726
 1581SOL    HW1 6582   0.110   1.568  14.773
 1581SOL    HW2 6583   0.213   1.458  14.787
 1582SOL     OW 6584   9.850  14.347   5.846
 1582SOL    HW1 6585   9.912  14.404   5.892
 1582SOL    HW2 6586   9.815  14.290   5.914
 1583SOL     OW 6587  14.562   8.987  14.430
 1583SOL    HW1 6588  14.538   8.897  14.450
 1583SOL    HW2 6589  14.657   8.985  14.419
 1584SOL     OW 6590  10.322  14.726   8.495
 1584SOL    HW1 6591  10.337  14.819   8.512
 1584SOL    HW2 6592  10.389  14.703   8.430
 1585SOL     OW 6593  13.725   7.436   5.101
 1585SOL    HW1 6594  13.686   7.386   5.173
 1585SOL    HW2 6595  13.753   7.370   5.038
 1586SOL     OW 6596   6.135   9.964  14.463
 1586SOL    HW1 6597   6.230   9.959  14.450
 1586SOL    HW2 6598   6.111  10.052  14.434
 1587SOL     OW 6599   7.312   3.213  13.049
 1587SOL    HW1 6600   7.285   3.278  13.113
 1587SOL    HW2 6601   7.239   3.208  12.987
 1588SOL     OW 6602   5.780   0.207  11.357
 1588SOL    HW1 6603   5.756   0.297  11.378
 1588SOL    HW2 6604   5.741   0.191  11.271
 1589SOL     OW 6605   2.112   0.914  13.403
 1589SOL    HW1 6606   2.113   1.010  13.401
 1589SOL    HW2 6607   2.086   0.888  13.315
 1590SOL     OW 6608   3.011   2.724   0.256
 1590SOL    HW1 6609   3.043   2.712   0.346
 1590SOL    HW2 6610   2.917   2.708   0.262
 1591SOL     OW 6611  14.385   2.647   5.007
 1591SOL    HW1 6612  14.330   2.572   5.030
 1591SOL    HW2 6613  14.468   2.608   4.977
 1592SOL     OW 6614  10.973   4.746   1.712
 1592SOL    HW1 6615  11.059   4.775   1.742
 1592SOL    HW2 6616  10.912   4.804   1.757
 1593SOL     OW 6617   9.165   1.134   7.966
 1593SOL    HW1 6618   9.195   1.108   7.880
 1593SOL    HW2 6619   9.140   1.226   7.956
 1594SOL     OW 6620   5.747   5.437   6.318
 1594SOL    HW1 6621   5.788   5.351   6.319
 1594SOL    HW2 6622   5.715   5.448   6.229
 1595SOL     OW 6623  11.517   9.720   0.725
 1595SOL    HW1 6624  11.585   9.783   0.747
 1595SOL    HW2 6625  11.561   9.657   0.667
 1596SOL     OW 6626  10.324   1.424   8.778
 1596SOL    HW1 6627  10.239   1.465   8.761
 1596SOL    HW2 6628  10.309   1.371   8.857
 1597SOL     OW 6629   9.212  12.918   3.635
 1597SOL    HW1 6630   9.126  12.886   3.661
 1597SOL    HW2 6631   9.199  12.953   3.547
 1598SOL     OW 6632   7.073   5.339   6.286
 1598SOL    HW1 6633   7.089   5.262   6.341
 1598SOL    HW2 6634   7.153   5.391   6.295
 1599SOL     OW 6635  10.802  11.144   7.622
 1599SOL    HW1 6636  10.782  11.214   7.685
 1599SOL    HW2 6637  10.754  11.169   7.543
 1600SOL     OW 6638   3.422  11.655   7.653
 1600SOL    HW1 6639   3.456  11.709   7.724
 1600SOL    HW2 6640   3.486  11.665   7.582
 1601SOL     OW 6641   4.383   7.792  11.251
 1601SOL    HW1 6642   4.433   7.816  11.329
 1601SOL    HW2 6643   4.334   7.872  11.229
 1602SOL     OW 6644  10.880  14.785   6.685
 1602SOL    HW1 6645  10.799  14.790   6.737
 1602SOL    HW2 6646  10.849  14.766   6.596
 1603SOL     OW 6647   4.804  13.784  12.593
 1603SOL    HW1 6648   4.729  13.732  12.565
 1603SOL    HW2 6649   4.867  13.720  12.626
 1604SOL     OW 6650   5.189   8.976   5.313
 1604SOL    HW1 6651   5.144   8.947   5.393
 1604SOL    HW2 6652   5.279   8.994   5.341
 1605SOL     OW 6653  10.532   9.362   0.431
 1605SOL    HW1 6654  10.468   9.431   0.444
 1605SOL    HW2 6655  10.542   9.321   0.517
 1606SOL     OW 6656  11.595  10.499  11.325
 1606SOL    HW1 6657  11.558  10.497  11.413
 1606SOL    HW2 6658  11.649  10.578  11.323
 1607SOL     OW 6659  13.824   0.481   1.603
 1607SOL    HW1 6660  13.838   0.400   1.554
 1607SOL    HW2 6661  13.740   0.468   1.648
 1608SOL     OW 6662  10.857  10.142  14.187
 1608SOL    HW1 6663  10.884  10.150  14.278
 1608SOL    HW2 6664  10.763  10.162  14.188
 1609SOL     OW 6665  11.196   4.252   4.699
 1609SOL    HW1 6666  11.217   4.280   4.610
 1609SOL    HW2 6667  11.278   4.260   4.748
 1610SOL     OW 6668   9.432  14.175   5.410
 1610SOL    HW1 6669   9.352  14.228   5.407
 1610SOL    HW2 6670   9.405  14.088   5.380
 1611SOL     OW 6671   4.799   0.961   3.408
 1611SOL    HW1 6672   4.826   1.052   3.397
 1611SOL    HW2 6673   4.864   0.911   3.359
 1612SOL     OW 6674   6.292  11.147  12.302
 1612SOL    HW1 6675   6.382  11.181  12.309
 1612SOL    HW2 6676   6.267  11.127  12.392
 1613SOL     OW 6677   6.845   7.572   2.105
 1613SOL    HW1 6678   6.773   7.514   2.128
 1613SOL    HW2 6679   6.814   7.619   2.027
 1614SOL     OW 6680   2.650  11.688   9.744
 1614SOL    HW1 6681   2.602  11.666   9.824
 1614SOL    HW2 6682   2.742  11.693   9.772
 1615SOL     OW 6683   7.833  10.668  10.190
 1615SOL    HW1 6684   7.801  10.583  10.218
 1615SOL    HW2 6685   7.782  10.688  10.111
 1616SOL     OW 6686   3.244  12.673   8.165
 1616SOL    HW1 6687   3.173  12.611   8.180
 1616SOL    HW2 6688   3.222  12.749   8.218
 1617SOL     OW 6689   1.117   5.767   3.600
 1617SOL    HW1 6690   1.208   5.739   3.600
 1617SOL    HW2 6691   1.068   5.689   3.625
 1618SOL     OW 6692   9.208   9.274   6.290
 1618SOL    HW1 6693   9.145   9.227   6.236
 1618SOL    HW2 6694   9.163   9.355   6.315
 1619SOL     OW 6695   1.028  12.634   6.060
 1619SOL    HW1 6696   1.037  12.669   6.149
 1619SOL    HW2 6697   1.095  12.566   6.054
 1620SOL     OW 6698   7.624   6.677   5.803
 1620SOL    HW1 6699   7.648   6.585   5.790
 1620SOL    HW2 6700   7.535   6.674   5.837
 1621SOL     OW 6701  13.751   3.998  10.417
 1621SOL    HW1 6702  13.704   3.976  10.336
 1621SOL    HW2 6703  13.681   4.018  10.480
 1622SOL     OW 6704   8.705   3.010   5.719
 1622SOL    HW1 6705   8.620   2.976   5.690
 1622SOL    HW2 6706   8.722   3.084   5.661
 1623SOL     OW 6707  11.079   1.894   6.506
 1623SOL    HW1 6708  11.141   1.823   6.495
 1623SOL    HW2 6709  11.016   1.862   6.570
 1624SOL     OW 6710  12.117   9.797  13.073
 1624SOL    HW1 6711  12.145   9.780  12.983
 1624SOL    HW2 6712  12.197   9.822  13.119
 1625SOL     OW 6713  12.177  12.675  11.853
 1625SOL    HW1 6714  12.245  12.654  11.788
 1625SOL    HW2 6715  12.159  12.592  11.897
 1626SOL     OW 6716  13.432  10.550   3.494
 1626SOL    HW1 6717  13.381  10.471   3.478
 1626SOL    HW2 6718  13.456  10.545   3.587
 1627SOL     OW 6719   0.069   1.343   0.376
 1627SOL    HW1 6720   0.048   1.426   0.419
 1627SOL    HW2 6721   0.142   1.308   0.426
 1628SOL     OW 6722   6.230   7.783   9.919
 1628SOL    HW1 6723   6.153   7.726   9.912
 1628SOL    HW2 6724   6.225   7.817  10.009
 1629SOL     OW 6725   2.852   8.904   6.163
 1629SOL    HW1 6726   2.783   8.932   6.223
 1629SOL    HW2 6727   2.851   8.808   6.170
 1630SOL     OW 6728   0.333   3.304   7.358
 1630SOL    HW1 6729   0.380   3.379   7.395
 1630SOL    HW2 6730   0.247   3.306   7.402
 1631SOL     OW 6731  13.796  13.908   3.193
 1631SOL    HW1 6732  13.794  13.815   3.172
 1631SOL    HW2 6733  13.718  13.922   3.247
 1632SOL     OW 6734  14.507  10.100   5.048
 1632SOL    HW1 6735  14.470  10.012   5.046
 1632SOL    HW2 6736  14.497  10.132   4.958
 1633SOL     OW 6737   5.405   6.526  10.211
 1633SOL    HW1 6738   5.334   6.474  10.249
 1633SOL    HW2 6739   5.365   6.573  10.138
 1634SOL     OW 6740   6.807  13.474  13.082
 1634SOL    HW1 6741   6.888  13.466  13.132
 1634SOL    HW2 6742   6.781  13.384  13.063
 1635SOL     OW 6743   3.939   5.940  13.776
 1635SOL    HW1 6744   3.951   6.007  13.842
 1635SOL    HW2 6745   3.947   5.987  13.693
 1636SOL     OW 6746   9.215  11.333   7.285
 1636SOL    HW1 6747   9.258  11.346   7.370
 1636SOL    HW2 6748   9.257  11.397   7.227
 1637SOL     OW 6749  11.753  13.161   2.300
 1637SOL    HW1 6750  11.696  13.084   2.293
 1637SOL    HW2 6751  11.839  13.130   2.269
 1638SOL     OW 6752   9.827   0.084   5.380
 1638SOL    HW1 6753   9.831   0.027   5.302
 1638SOL    HW2 6754   9.739   0.068   5.416
 1639SOL     OW 6755   4.189   1.532   4.621
 1639SOL    HW1 6756   4.241   1.467   4.573
 1639SOL    HW2 6757   4.104   1.531   4.577
 1640SOL     OW 6758   9.614   6.624   6.962
 1640SOL    HW1 6759   9.678   6.639   6.893
 1640SOL    HW2 6760   9.561   6.704   6.963
 1641SOL     OW 6761   5.945  11.672  11.267
 1641SOL    HW1 6762   5.941  11.598  11.207
 1641SOL    HW2 6763   5.957  11.748  11.211
 1642SOL     OW 6764  12.305   0.684  11.155
 1642SOL    HW1 6765  12.348   0.648  11.232
 1642SOL    HW2 6766  12.364   0.662  11.082
 1643SOL     OW 6767  10.794   4.340   9.584
 1643SOL    HW1 6768  10.753   4.422   9.613
 1643SOL    HW2 6769  10.776   4.336   9.490
 1644SOL     OW 6770   4.939   3.456   9.117
 1644SOL    HW1 6771   4.868   3.519   9.111
 1644SOL    HW2 6772   4.928   3.415   9.203
 1645SOL     OW 6773   8.109  11.417   3.888
 1645SOL    HW1 6774   8.100  11.410   3.793
 1645SOL    HW2 6775   8.144  11.505   3.902
 1646SOL     OW 6776   9.134   6.818  14.038
 1646SOL    HW1 6777   9.199   6.880  14.071
 1646SOL    HW2 6778   9.186   6.741  14.015
 1647SOL     OW 6779  11.766  14.099  11.058
 1647SOL    HW1 6780  11.837  14.141  11.008
 1647SOL    HW2 6781  11.701  14.077  10.992
 1648SOL     OW 6782  12.606  10.722   3.297
 1648SOL    HW1 6783  12.536  10.720   3.362
 1648SOL    HW2 6784  12.635  10.631   3.290
 1649SOL     OW 6785   2.643   4.960   6.553
 1649SOL    HW1 6786   2.612   5.051   6.560
 1649SOL    HW2 6787   2.701   4.949   6.628
 1650SOL     OW 6788   4.193  10.766  13.204
 1650SOL    HW1 6789   4.154  10.679  13.198
 1650SOL    HW2 6790   4.121  10.826  13.183
 1651SOL     OW 6791   3.658   8.132   3.568
 1651SOL    HW1 6792   3.619   8.177   3.492
 1651SOL    HW2 6793   3.596   8.148   3.639
 1652SOL     OW 6794   9.467   0.246   9.600
 1652SOL    HW1 6795   9.456   0.338   9.579
 1652SOL    HW2 6796   9.408   0.231   9.674
 1653SOL     OW 6797  13.969  10.377  14.818
 1653SOL    HW1 6798  13.881  10.401  14.790
 1653SOL    HW2 6799  13.967  10.385   0.031
 1654SOL     OW 6800   6.098   7.045   0.041
 1654SOL    HW1 6801   6.100   7.013   0.132
 1654SOL    HW2 6802   6.109   7.140   0.048
 1655SOL     OW 6803   9.154  11.935   2.107
 1655SOL    HW1 6804   9.180  11.867   2.043
 1655SOL    HW2 6805   9.074  11.901   2.146
 1656SOL     OW 6806   1.425   5.011   9.715
 1656SOL    HW1 6807   1.479   4.994   9.639
 1656SOL    HW2 6808   1.442   4.938   9.774
 1657SOL     OW 6809   9.324   0.734   2.563
 1657SOL    HW1 6810   9.333   0.801   2.632
 1657SOL    HW2 6811   9.233   0.706   2.568
 1658SOL     OW 6812  10.726   0.923  14.406
 1658SOL    HW1 6813  10.809   0.882  14.382
 1658SOL    HW2 6814  10.701   0.882  14.488
 1659SOL     OW 6815  14.429   5.961   0.275
 1659SOL    HW1 6816  14.516   6.001   0.282
 1659SOL    HW2 6817  14.447   5.871   0.249
 1660SOL     OW 6818  13.305   0.369  14.394
 1660SOL    HW1 6819  13.346   0.343  14.311
 1660SOL    HW2 6820  13.346   0.453  14.415
 1661SOL     OW 6821   8.834  11.813   1.891
 1661SOL    HW1 6822   8.871  11.900   1.878
 1661SOL    HW2 6823   8.783  11.797   1.811
 1662SOL     OW 6824   8.480  13.367   9.460
 1662SOL    HW1 6825   8.404  13.409   9.500
 1662SOL    HW2 6826   8.504  13.424   9.387
 1663SOL     OW 6827   3.973   3.930  11.943
 1663SOL    HW1 6828   3.879   3.910  11.938
 1663SOL    HW2 6829   4.014   3.847  11.967
 1664SOL     OW 6830   1.864   5.423   1.704
 1664SOL    HW1 6831   1.803   5.494   1.686
 1664SOL    HW2 6832   1.889   5.435   1.796
 1665SOL     OW 6833   1.310  12.170  11.632
 1665SOL    HW1 6834   1.354  12.139  11.552
 1665SOL    HW2 6835   1.236  12.111  11.643
 1666SOL     OW 6836  11.013   3.083   9.741
 1666SOL    HW1 6837  11.044   2.992   9.744
 1666SOL    HW2 6838  10.985   3.101   9.831
 1667SOL     OW 6839  14.602   7.175   7.669
 1667SOL    HW1 6840  14.541   7.241   7.703
 1667SOL    HW2 6841  14.662   7.224   7.613
 1668SOL     OW 6842   6.431  11.081   5.279
 1668SOL    HW1 6843   6.405  11.001   5.324
 1668SOL    HW2 6844   6.513  11.107   5.321
 1669SOL     OW 6845   7.046   6.832   6.127
 1669SOL    HW1 6846   6.961   6.876   6.136
 1669SOL    HW2 6847   7.033   6.746   6.166
 1670SOL     OW 6848   2.718   2.769  14.493
 1670SOL    HW1 6849   2.686   2.850  14.453
 1670SOL    HW2 6850   2.700   2.779  14.586
 1671SOL     OW 6851   2.480   3.049  11.116
 1671SOL    HW1 6852   2.565   3.082  11.144
 1671SOL    HW2 6853   2.432   3.034  11.198
 1672SOL     OW 6854  10.058   0.924  12.570
 1672SOL    HW1 6855  10.143   0.882  12.579
 1672SOL    HW2 6856  10.057   0.991  12.637
 1673SOL     OW 6857   9.549  10.635   1.617
 1673SOL    HW1 6858   9.630  10.654   1.570
 1673SOL    HW2 6859   9.568  10.555   1.667
 1674SOL     OW 6860  11.805  11.645   0.898
 1674SOL    HW1 6861  11.713  11.652   0.924
 1674SOL    HW2 6862  11.833  11.736   0.887
 1675SOL     OW 6863   8.410   9.731  11.356
 1675SOL    HW1 6864   8.331   9.764  11.399
 1675SOL    HW2 6865   8.442   9.805  11.305
 1676SOL     OW 6866   4.973  12.557   4.427
 1676SOL    HW1 6867   5.052  12.608   4.447
 1676SOL    HW2 6868   5.004  12.467   4.421
 1677SOL     OW 6869   6.846   8.079  12.023
 1677SOL    HW1 6870   6.873   8.069  11.932
 1677SOL    HW2 6871   6.759   8.119  12.018
 1678SOL     OW 6872  14.062   8.083   5.565
 1678SOL    HW1 6873  14.078   8.053   5.476
 1678SOL    HW2 6874  14.096   8.172   5.567
 1679SOL     OW 6875  12.132   8.844   4.734
 1679SOL    HW1 6876  12.049   8.832   4.781
 1679SOL    HW2 6877  12.148   8.760   4.691
 1680SOL     OW 6878   7.673  10.798   0.490
 1680SOL    HW1 6879   7.584  10.815   0.520
 1680SOL    HW2 6880   7.663  10.752   0.407
 1681SOL     OW 6881  11.740   3.161   9.164
 1681SOL    HW1 6882  11.668   3.204   9.119
 1681SOL    HW2 6883  11.721   3.068   9.157
 1682SOL     OW 6884  14.509   7.037   2.266
 1682SOL    HW1 6885  14.463   7.118   2.243
 1682SOL    HW2 6886  14.550   7.056   2.350
 1683SOL     OW 6887   0.403   9.495  13.934
 1683SOL    HW1 6888   0.338   9.540  13.879
 1683SOL    HW2 6889   0.463   9.455  13.871
 1684SOL     OW 6890  14.280  11.451   7.810
 1684SOL    HW1 6891  14.223  11.446   7.887
 1684SOL    HW2 6892  14.327  11.368   7.810
 1685SOL     OW 6893   2.179   8.351   1.829
 1685SOL    HW1 6894   2.119   8.406   1.779
 1685SOL    HW2 6895   2.249   8.328   1.767
 1686SOL     OW 6896   8.766   4.074  13.923
 1686SOL    HW1 6897   8.828   4.112  13.860
 1686SOL    HW2 6898   8.718   4.008  13.873
 1687SOL     OW 6899   2.062  14.546   3.306
 1687SOL    HW1 6900   2.077  14.590   3.389
 1687SOL    HW2 6901   2.138  14.488   3.296
 1688SOL     OW 6902  13.733   4.667   1.013
 1688SOL    HW1 6903  13.697   4.755   1.012
 1688SOL    HW2 6904  13.699   4.626   0.934
 1689SOL     OW 6905   3.675  10.526   1.166
 1689SOL    HW1 6906   3.650  10.482   1.085
 1689SOL    HW2 6907   3.616  10.602   1.171
 1690SOL     OW 6908   8.237   9.833   5.806
 1690SOL    HW1 6909   8.311   9.787   5.768
 1690SOL    HW2 6910   8.180   9.855   5.732
 1691SOL     OW 6911  12.841   1.179  12.936
 1691SOL    HW1 6912  12.934   1.182  12.955
 1691SOL    HW2 6913  12.811   1.270  12.942
 1692SOL     OW 6914   1.730  13.393   8.257
 1692SOL    HW1 6915   1.807  13.359   8.303
 1692SOL    HW2 6916   1.752  13.386   8.164
 1693SOL     OW 6917   4.891   5.928   9.495
 1693SOL    HW1 6918   4.795   5.931   9.499
 1693SOL    HW2 6919   4.918   6.019   9.483
 1694SOL     OW 6920   6.254   6.257   6.606
 1694SOL    HW1 6921   6.242   6.234   6.698
 1694SOL    HW2 6922   6.224   6.180   6.558
 1695SOL     OW 6923   7.223   5.689   4.630
 1695SOL    HW1 6924   7.133   5.689   4.663
 1695SOL    HW2 6925   7.224   5.756   4.562
 1696SOL     OW 6926  12.318   7.375   8.376
 1696SOL    HW1 6927  12.406   7.346   8.349
 1696SOL    HW2 6928  12.284   7.303   8.428
 1697SOL     OW 6929   8.181  12.113   1.915
 1697SOL    HW1 6930   8.125  12.154   1.848
 1697SOL    HW2 6931   8.221  12.039   1.869
 1698SOL     OW 6932  14.873   1.639   3.035
 1698SOL    HW1 6933  14.782   1.655   3.062
 1698SOL    HW2 6934  14.865   1.588   2.954
 1699SOL     OW 6935  14.750  12.364  14.104
 1699SOL    HW1 6936  14.656  12.378  14.097
 1699SOL    HW2 6937  14.780  12.351  14.014
 1700SOL     OW 6938   1.062   6.077   6.859
 1700SOL    HW1 6939   1.027   6.043   6.942
 1700SOL    HW2 6940   1.152   6.102   6.879
 1701SOL     OW 6941   3.162   9.858   2.078
 1701SOL    HW1 6942   3.188   9.937   2.126
 1701SOL    HW2 6943   3.069   9.847   2.100
 1702SOL     OW 6944   1.962  10.802   7.398
 1702SOL    HW1 6945   1.956  10.869   7.329
 1702SOL    HW2 6946   2.018  10.734   7.360
 1703SOL     OW 6947   6.431   6.248   4.524
 1703SOL    HW1 6948   6.383   6.252   4.441
 1703SOL    HW2 6949   6.484   6.328   4.525
 1704SOL     OW 6950  11.378  14.725   2.143
 1704SOL    HW1 6951  11.375  14.821   2.135
 1704SOL    HW2 6952  11.443  14.698   2.079
 1705SOL     OW 6953   9.898   6.404   5.864
 1705SOL    HW1 6954   9.899   6.315   5.899
 1705SOL    HW2 6955   9.989   6.424   5.845
 1706SOL     OW 6956   9.333   9.194  10.202
 1706SOL    HW1 6957   9.300   9.265  10.147
 1706SOL    HW2 6958   9.428   9.201  10.196
 1707SOL     OW 6959   9.849   0.035  11.020
 1707SOL    HW1 6960   9.773  14.876  10.976
 1707SOL    HW2 6961   9.918  14.851  11.014
 1708SOL     OW 6962  12.082   5.801   4.826
 1708SOL    HW1 6963  12.137   5.849   4.889
 1708SOL    HW2 6964  12.030   5.742   4.880
 1709SOL     OW 6965   9.608   5.446   5.573
 1709SOL    HW1 6966   9.699   5.428   5.548
 1709SOL    HW2 6967   9.588   5.380   5.639
 1710SOL     OW 6968   1.368   8.476  11.059
 1710SOL    HW1 6969   1.455   8.500  11.029
 1710SOL    HW2 6970   1.368   8.500  11.152
 1711SOL     OW 6971   6.893   8.107  13.611
 1711SOL    HW1 6972   6.857   8.161  13.540
 1711SOL    HW2 6973   6.819   8.055  13.642
 1712SOL     OW 6974  13.142   8.806   5.791
 1712SOL    HW1 6975  13.117   8.771   5.877
 1712SOL    HW2 6976  13.149   8.900   5.803
 1713SOL     OW 6977   6.911   1.855   1.519
 1713SOL    HW1 6978   6.874   1.904   1.446
 1713SOL    HW2 6979   6.884   1.765   1.503
 1714SOL     OW 6980   8.654  13.199   0.182
 1714SOL    HW1 6981   8.663  13.172   0.273
 1714SOL    HW2 6982   8.567  13.237   0.176
 1715SOL     OW 6983  13.655  10.040   4.830
 1715SOL    HW1 6984  13.685  10.095   4.903
 1715SOL    HW2 6985  13.563  10.062   4.820
 1716SOL     OW 6986  14.853   6.636   1.930
 1716SOL    HW1 6987   0.039   6.704   1.930
 1716SOL    HW2 6988  14.871   6.586   1.851
 1717SOL     OW 6989  12.987   1.134   8.952
 1717SOL    HW1 6990  13.037   1.130   8.871
 1717SOL    HW2 6991  12.897   1.149   8.925
 1718SOL     OW 6992  11.340  10.752  11.397
 1718SOL    HW1 6993  11.378  10.701  11.469
 1718SOL    HW2 6994  11.247  10.732  11.400
 1719SOL     OW 6995   2.689   7.026   7.059
 1719SOL    HW1 6996   2.677   6.939   7.097
 1719SOL    HW2 6997   2.702   7.083   7.134
 1720SOL     OW 6998  10.727   4.701   2.426
 1720SOL    HW1 6999  10.710   4.624   2.372
 1720SOL    HW2 7000  10.663   4.695   2.497
 1721SOL     OW 7001   6.222  14.186   8.415
 1721SOL    HW1 7002   6.242  14.272   8.452
 1721SOL    HW2 7003   6.236  14.196   8.321
 1722SOL     OW 7004   5.657   5.600   9.892
 1722SOL    HW1 7005   5.596   5.567   9.826
 1722SOL    HW2 7006   5.685   5.522   9.939
 1723SOL     OW 7007   7.532  11.051   6.324
 1723SOL    HW1 7008   7.576  11.031   6.241
 1723SOL    HW2 7009   7.441  11.070   6.298
 1724SOL     OW 7010  13.276  10.746   6.344
 1724SOL    HW1 7011  13.216  10.778   6.411
 1724SOL    HW2 7012  13.276  10.651   6.356
 1725SOL     OW 7013   5.756   9.212   4.719
 1725SOL    HW1 7014   5.831   9.220   4.778
 1725SOL    HW2 7015   5.733   9.119   4.722
 1726SOL     OW 7016  11.953   8.908   2.618
 1726SOL    HW1 7017  11.915   8.992   2.642
 1726SOL    HW2 7018  11.932   8.898   2.525
 1727SOL     OW 7019  14.251  13.876   7.144
 1727SOL    HW1 7020  14.273  13.968   7.160
 1727SOL    HW2 7021  14.328  13.828   7.173
 1728SOL     OW 7022   3.553  11.306   8.858
 1728SOL    HW1 7023   3.500  11.227   8.854
 1728SOL    HW2 7024   3.516  11.363   8.790
 1729SOL     OW 7025  12.508  14.018   8.935
 1729SOL    HW1 7026  12.490  13.946   8.996
 1729SOL    HW2 7027  12.436  14.080   8.949
 1730SOL     OW 7028  14.070   8.771  13.942
 1730SOL    HW1 7029  14.088   8.804  13.854
 1730SOL    HW2 7030  14.157   8.757  13.980
 1731SOL     OW 7031   5.956   5.576  11.645
 1731SOL    HW1 7032   5.938   5.669  11.630
 1731SOL    HW2 7033   5.996   5.573  11.731
 1732SOL     OW 7034  12.063   7.183   3.958
 1732SOL    HW1 7035  11.981   7.228   3.938
 1732SOL    HW2 7036  12.036   7.101   4.001
 1733SOL     OW 7037   0.708   5.172   1.206
 1733SOL    HW1 7038   0.698   5.122   1.287
 1733SOL    HW2 7039   0.740   5.258   1.235
 1734SOL     OW 7040  12.566  11.761   8.333
 1734SOL    HW1 7041  12.561  11.815   8.254
 1734SOL    HW2 7042  12.558  11.671   8.302
 1735SOL     OW 7043   5.967   8.453   2.848
 1735SOL    HW1 7044   6.059   8.452   2.822
 1735SOL    HW2 7045   5.969   8.448   2.944
 1736SOL     OW 7046   7.983   4.874   6.299
 1736SOL    HW1 7047   8.026   4.959   6.284
 1736SOL    HW2 7048   7.976   4.836   6.212
 1737SOL     OW 7049   4.824   7.441   2.713
 1737SOL    HW1 7050   4.866   7.466   2.795
 1737SOL    HW2 7051   4.789   7.524   2.679
 1738SOL     OW 7052   7.256  10.384  11.274
 1738SOL    HW1 7053   7.246  10.302  11.322
 1738SOL    HW2 7054   7.223  10.364  11.186
 1739SOL     OW 7055   7.810  13.304   4.572
 1739SOL    HW1 7056   7.770  13.281   4.656
 1739SOL    HW2 7057   7.904  13.301   4.588
 1740SOL     OW 7058   4.736   9.399   4.674
 1740SOL    HW1 7059   4.710   9.370   4.587
 1740SOL    HW2 7060   4.817   9.350   4.692
 1741SOL     OW 7061  13.802   2.722  13.493
 1741SOL    HW1 7062  13.800   2.710  13.398
 1741SOL    HW2 7063  13.745   2.798  13.508
 1742SOL     OW 7064  11.175  14.816   1.192
 1742SOL    HW1 7065  11.126  14.760   1.133
 1742SOL    HW2 7066  11.138  14.798   1.279
 1743SOL     OW 7067   6.255   9.703   8.077
 1743SOL    HW1 7068   6.209   9.653   8.145
 1743SOL    HW2 7069   6.347   9.682   8.089
 1744SOL     OW 7070   8.936   8.438   9.712
 1744SOL    HW1 7071   8.910   8.493   9.638
 1744SOL    HW2 7072   9.014   8.481   9.747
 1745SOL     OW 7073   0.753  12.188   6.482
 1745SOL    HW1 7074   0.664  12.223   6.485
 1745SOL    HW2 7075   0.758  12.143   6.398
 1746SOL     OW 7076   3.426   2.175   2.556
 1746SOL    HW1 7077   3.395   2.177   2.646
 1746SOL    HW2 7078   3.349   2.147   2.505
 1747SOL     OW 7079  10.836   1.922   8.472
 1747SOL    HW1 7080  10.914   1.878   8.503
 1747SOL    HW2 7081  10.848   1.929   8.377
 1748SOL     OW 7082  12.643  14.158  10.448
 1748SOL    HW1 7083  12.637  14.177  10.542
 1748SOL    HW2 7084  12.731  14.188  10.424
 1749SOL     OW 7085  13.773  14.845   7.653
 1749SOL    HW1 7086  13.687  14.806   7.671
 1749SOL    HW2 7087  13.761   0.056   7.671
 1750SOL     OW 7088  11.264   9.857   0.748
 1750SOL    HW1 7089  11.313   9.777   0.764
 1750SOL    HW2 7090  11.237   9.851   0.657
 1751SOL     OW 7091   3.370  13.460  11.318
 1751SOL    HW1 7092   3.349  13.366  11.314
 1751SOL    HW2 7093   3.290  13.504  11.291
 1752SOL     OW 7094   4.492   3.808   0.689
 1752SOL    HW1 7095   4.443   3.790   0.610
 1752SOL    HW2 7096   4.433   3.860   0.744
 1753SOL     OW 7097  10.952   8.315   3.666
 1753SOL    HW1 7098  10.933   8.396   3.617
 1753SOL    HW2 7099  10.928   8.336   3.756
 1754SOL     OW 7100   9.051   8.711   0.732
 1754SOL    HW1 7101   8.993   8.780   0.700
 1754SOL    HW2 7102   9.110   8.755   0.792
 1755SOL     OW 7103   4.469  13.238   1.365
 1755SOL    HW1 7104   4.376  13.218   1.378
 1755SOL    HW2 7105   4.515  13.163   1.404
 1756SOL     OW 7106   6.171   7.784   4.055
 1756SOL    HW1 7107   6.198   7.705   4.101
 1756SOL    HW2 7108   6.083   7.802   4.088
 1757SOL     OW 7109   6.501  12.172  10.832
 1757SOL    HW1 7110   6.528  12.254  10.873
 1757SOL    HW2 7111   6.496  12.192  10.739
 1758SOL     OW 7112   4.640   8.148  10.044
 1758SOL    HW1 7113   4.553   8.132  10.080
 1758SOL    HW2 7114   4.656   8.075   9.985
 1759SOL     OW 7115   5.966  12.465  10.480
 1759SOL    HW1 7116   5.994  12.453  10.571
 1759SOL    HW2 7117   5.919  12.385  10.459
 1760SOL     OW 7118  12.713  11.938  12.304
 1760SOL    HW1 7119  12.728  11.843  12.304
 1760SOL    HW2 7120  12.798  11.976  12.281
 1761SOL     OW 7121   9.821  13.394   6.671
 1761SOL    HW1 7122   9.829  13.338   6.594
 1761SOL    HW2 7123   9.895  13.455   6.665
 1762SOL     OW 7124   7.461  11.255   7.129
 1762SOL    HW1 7125   7.515  11.320   7.174
 1762SOL    HW2 7126   7.503  11.171   7.148
 1763SOL     OW 7127  12.953  11.395   0.365
 1763SOL    HW1 7128  12.958  11.306   0.399
 1763SOL    HW2 7129  12.994  11.449   0.433
 1764SOL     OW 7130   5.249   7.419  14.265
 1764SOL    HW1 7131   5.289   7.347  14.313
 1764SOL    HW2 7132   5.215   7.379  14.185
 1765SOL     OW 7133   2.167   6.056   3.883
 1765SOL    HW1 7134   2.094   6.054   3.946
 1765SOL    HW2 7135   2.195   5.965   3.877
 1766SOL     OW 7136  10.564  10.530   7.027
 1766SOL    HW1 7137  10.544  10.518   7.119
 1766SOL    HW2 7138  10.490  10.491   6.980
 1767SOL     OW 7139   5.267   2.281   6.370
 1767SOL    HW1 7140   5.176   2.263   6.394
 1767SOL    HW2 7141   5.272   2.257   6.277
 1768SOL     OW 7142   6.493   8.328   1.388
 1768SOL    HW1 7143   6.487   8.420   1.362
 1768SOL    HW2 7144   6.408   8.309   1.428
 1769SOL     OW 7145   9.342  12.803   6.307
 1769SOL    HW1 7146   9.396  12.724   6.294
 1769SOL    HW2 7147   9.353  12.824   6.400
 1770SOL     OW 7148   2.920  13.255  14.839
 1770SOL    HW1 7149   2.841  13.308  14.846
 1770SOL    HW2 7150   2.891  13.167  14.863
 1771SOL     OW 7151   0.200   0.087  10.059
 1771SOL    HW1 7152   0.155   0.010  10.024
 1771SOL    HW2 7153   0.288   0.056  10.078
 1772SOL     OW 7154   4.343   9.750   0.910
 1772SOL    HW1 7155   4.392   9.730   0.830
 1772SOL    HW2 7156   4.381   9.832   0.942
 1773SOL     OW 7157   7.487   5.130   8.112
 1773SOL    HW1 7158   7.528   5.043   8.107
 1773SOL    HW2 7159   7.560   5.191   8.124
 1774SOL     OW 7160  12.620  11.453   6.093
 1774SOL    HW1 7161  12.678  11.376   6.089
 1774SOL    HW2 7162  12.673  11.519   6.138
 1775SOL     OW 7163   5.946   9.730   5.632
 1775SOL    HW1 7164   6.012   9.794   5.607
 1775SOL    HW2 7165   5.872   9.782   5.662
 1776SOL     OW 7166  14.711  10.772   5.012
 1776SOL    HW1 7167  14.679  10.754   5.101
 1776SOL    HW2 7168  14.691  10.864   4.997
 1777SOL     OW 7169   3.338  13.971  12.367
 1777SOL    HW1 7170   3.328  13.883  12.331
 1777SOL    HW2 7171   3.353  13.957  12.461
 1778SOL     OW 7172  12.081   9.706  12.204
 1778SOL    HW1 7173  12.123   9.664  12.129
 1778SOL    HW2 7174  12.011   9.759  12.166
 1779SOL     OW 7175   3.544   2.919   1.687
 1779SOL    HW1 7176   3.501   2.913   1.773
 1779SOL    HW2 7177   3.579   2.832   1.672
 1780SOL     OW 7178   5.062   6.736   6.921
 1780SOL    HW1 7179   5.025   6.656   6.884
 1780SOL    HW2 7180   5.134   6.705   6.977
 1781SOL     OW 7181   5.657   5.297  13.330
 1781SOL    HW1 7182   5.666   5.333  13.242
 1781SOL    HW2 7183   5.574   5.333  13.362
 1782SOL     OW 7184  13.271   2.377   1.907
 1782SOL    HW1 7185  13.311   2.426   1.836
 1782SOL    HW2 7186  13.202   2.326   1.865
 1783SOL     OW 7187   2.658   1.766  14.276
 1783SOL    HW1 7188   2.688   1.676  14.289
 1783SOL    HW2 7189   2.720   1.803  14.214
 1784SOL     OW 7190   8.925   2.871   6.903
 1784SOL    HW1 7191   8.883   2.910   6.980
 1784SOL    HW2 7192   9.000   2.928   6.885
 1785SOL     OW 7193  13.001  13.794  13.923
 1785SOL    HW1 7194  12.971  13.796  13.832
 1785SOL    HW2 7195  12.974  13.879  13.959
 1786SOL     OW 7196   9.718  11.418   3.918
 1786SOL    HW1 7197   9.779  11.430   3.845
 1786SOL    HW2 7198   9.755  11.347   3.969
 1787SOL     OW 7199  12.595   7.751   1.949
 1787SOL    HW1 7200  12.638   7.717   2.028
 1787SOL    HW2 7201  12.644   7.830   1.927
 1788SOL     OW 7202   7.863   2.978   1.218
 1788SOL    HW1 7203   7.950   2.940   1.218
 1788SOL    HW2 7204   7.877   3.071   1.236
 1789SOL     OW 7205   6.195  11.325   0.287
 1789SOL    HW1 7206   6.119  11.290   0.239
 1789SOL    HW2 7207   6.196  11.276   0.369
 1790SOL     OW 7208   4.644  10.417   6.554
 1790SOL    HW1 7209   4.652  10.347   6.619
 1790SOL    HW2 7210   4.663  10.375   6.470
 1791SOL     OW 7211   2.583   7.697   2.472
 1791SOL    HW1 7212   2.652   7.724   2.533
 1791SOL    HW2 7213   2.504   7.742   2.503
 1792SOL     OW 7214   8.496   3.018  13.201
 1792SOL    HW1 7215   8.536   3.084  13.144
 1792SOL    HW2 7216   8.563   2.999  13.267
 1793SOL     OW 7217  11.043   6.070  14.734
 1793SOL    HW1 7218  11.042   6.165  14.738
 1793SOL    HW2 7219  11.065   6.050  14.643
 1794SOL     OW 7220  14.600   0.947   1.075
 1794SOL    HW1 7221  14.663   1.011   1.108
 1794SOL    HW2 7222  14.569   0.985   0.993
 1795SOL     OW 7223   8.254  10.275  11.545
 1795SOL    HW1 7224   8.326  10.331  11.576
 1795SOL    HW2 7225   8.202  10.332  11.489
 1796SOL     OW 7226   8.611  13.052  14.134
 1796SOL    HW1 7227   8.698  13.018  14.153
 1796SOL    HW2 7228   8.551  12.987  14.171
 1797SOL     OW 7229   0.102   3.089   8.512
 1797SOL    HW1 7230   0.102   3.039   8.594
 1797SOL    HW2 7231   0.133   3.176   8.538
 1798SOL     OW 7232   1.787   6.153  12.119
 1798SOL    HW1 7233   1.744   6.170  12.035
 1798SOL    HW2 7234   1.879   6.175  12.104
 1799SOL     OW 7235   1.638   8.132   2.634
 1799SOL    HW1 7236   1.681   8.130   2.548
 1799SOL    HW2 7237   1.578   8.206   2.629
 1800SOL     OW 7238   9.883   1.191  10.704
 1800SOL    HW1 7239   9.910   1.281  10.684
 1800SOL    HW2 7240   9.792   1.187  10.677
 1801SOL     OW 7241  10.845   7.138  14.707
 1801SOL    HW1 7242  10.931   7.102  14.683
 1801SOL    HW2 7243  10.783   7.088  14.654
 1802SOL     OW 7244   6.132  12.707  12.671
 1802SOL    HW1 7245   6.103  12.644  12.737
 1802SOL    HW2 7246   6.077  12.784  12.687
 1803SOL     OW 7247   1.455   0.784   4.936
 1803SOL    HW1 7248   1.415   0.870   4.944
 1803SOL    HW2 7249   1.437   0.740   5.019
 1804SOL     OW 7250   8.221   7.004   7.289
 1804SOL    HW1 7251   8.152   7.023   7.353
 1804SOL    HW2 7252   8.289   6.960   7.340
 1805SOL     OW 7253  11.261  14.418   9.558
 1805SOL    HW1 7254  11.206  14.486   9.520
 1805SOL    HW2 7255  11.350  14.450   9.550
 1806SOL     OW 7256  14.285   8.184   8.107
 1806SOL    HW1 7257  14.255   8.120   8.042
 1806SOL    HW2 7258  14.303   8.132   8.185
 1807SOL     OW 7259  12.563   6.822  13.237
 1807SOL    HW1 7260  12.623   6.768  13.184
 1807SOL    HW2 7261  12.575   6.910  13.203
 1808SOL     OW 7262  10.625   5.195   1.872
 1808SOL    HW1 7263  10.539   5.236   1.887
 1808SOL    HW2 7264  10.615   5.106   1.904
 1809SOL     OW 7265  13.234  13.782   7.352
 1809SOL    HW1 7266  13.183  13.733   7.287
 1809SOL    HW2 7267  13.193  13.868   7.355
 1810SOL     OW 7268  11.339   1.210  12.349
 1810SOL    HW1 7269  11.331   1.291  12.299
 1810SOL    HW2 7270  11.404   1.158  12.302
 1811SOL     OW 7271   0.156  13.045   5.545
 1811SOL    HW1 7272   0.081  12.994   5.513
 1811SOL    HW2 7273   0.176  13.005   5.630
 1812SOL     OW 7274  10.791  11.558   2.759
 1812SOL    HW1 7275  10.883  11.534   2.770
 1812SOL    HW2 7276  10.794  11.640   2.710
 1813SOL     OW 7277   4.993  13.250   2.302
 1813SOL    HW1 7278   5.071  13.250   2.247
 1813SOL    HW2 7279   4.968  13.157   2.307
 1814SOL     OW 7280  14.132   1.591   1.173
 1814SOL    HW1 7281  14.053   1.541   1.193
 1814SOL    HW2 7282  14.100   1.676   1.141
 1815SOL     OW 7283  10.659   9.666   8.336
 1815SOL    HW1 7284  10.691   9.655   8.425
 1815SOL    HW2 7285  10.580   9.612   8.331
 1816SOL     OW 7286   5.227   9.414  13.699
 1816SOL    HW1 7287   5.218   9.396  13.793
 1816SOL    HW2 7288   5.316   9.386  13.677
 1817SOL     OW 7289   6.270  13.430   8.675
 1817SOL    HW1 7290   6.273  13.344   8.634
 1817SOL    HW2 7291   6.281  13.492   8.603
 1818SOL     OW 7292   0.492   7.650   7.830
 1818SOL    HW1 7293   0.475   7.558   7.813
 1818SOL    HW2 7294   0.569   7.651   7.887
 1819SOL     OW 7295  14.245  11.190  14.674
 1819SOL    HW1 7296  14.336  11.221  14.681
 1819SOL    HW2 7297  14.216  11.179  14.764
 1820SOL     OW 7298  11.604  14.614   0.005
 1820SOL    HW1 7299  11.628  14.523  14.869
 1820SOL    HW2 7300  11.681  14.664  14.859
 1821SOL     OW 7301   7.877   4.601  14.325
 1821SOL    HW1 7302   7.955   4.657  14.327
 1821SOL    HW2 7303   7.803   4.662  14.325
 1822SOL     OW 7304  10.168   5.866  14.284
 1822SOL    HW1 7305  10.119   5.933  14.235
 1822SOL    HW2 7306  10.177   5.902  14.372
 1823SOL     OW 7307   2.979   9.482  12.289
 1823SOL    HW1 7308   2.976   9.572  12.320
 1823SOL    HW2 7309   3.018   9.432  12.361
 1824SOL     OW 7310  13.419   7.005  10.466
 1824SOL    HW1 7311  13.482   7.075  10.448
 1824SOL    HW2 7312  13.339   7.051  10.491
 1825SOL     OW 7313   0.923  13.632  13.517
 1825SOL    HW1 7314   0.941  13.725  13.505
 1825SOL    HW2 7315   1.009  13.593  13.535
 1826SOL     OW 7316   0.149   0.865   1.831
 1826SOL    HW1 7317   0.153   0.932   1.899
 1826SOL    HW2 7318   0.060   0.870   1.797
 1827SOL     OW 7319  13.962  14.717  12.935
 1827SOL    HW1 7320  13.902  14.654  12.896
 1827SOL    HW2 7321  14.022  14.740  12.863
 1828SOL     OW 7322   1.928  12.784   9.557
 1828SOL    HW1 7323   2.011  12.810   9.518
 1828SOL    HW2 7324   1.862  12.806   9.492
 1829SOL     OW 7325   1.113  11.754   9.787
 1829SOL    HW1 7326   1.040  11.697   9.764
 1829SOL    HW2 7327   1.124  11.742   9.881
 1830SOL     OW 7328   5.293   3.457   4.586
 1830SOL    HW1 7329   5.271   3.461   4.679
 1830SOL    HW2 7330   5.278   3.546   4.554
 1831SOL     OW 7331   8.444   1.644   8.129
 1831SOL    HW1 7332   8.376   1.683   8.074
 1831SOL    HW2 7333   8.409   1.558   8.154
 1832SOL     OW 7334  10.686  14.716   4.141
 1832SOL    HW1 7335  10.734  14.646   4.184
 1832SOL    HW2 7336  10.703  14.703   4.048
 1833SOL     OW 7337   4.843   0.861   4.497
 1833SOL    HW1 7338   4.873   0.789   4.552
 1833SOL    HW2 7339   4.919   0.920   4.492
 1834SOL     OW 7340   8.333  12.411   0.238
 1834SOL    HW1 7341   8.402  12.435   0.175
 1834SOL    HW2 7342   8.253  12.448   0.202
 1835SOL     OW 7343  14.864  13.002   8.738
 1835SOL    HW1 7344   0.076  13.000   8.720
 1835SOL    HW2 7345  14.828  13.060   8.671
 1836SOL     OW 7346   3.851  14.115  12.248
 1836SOL    HW1 7347   3.769  14.093  12.205
 1836SOL    HW2 7348   3.856  14.056  12.323
 1837SOL     OW 7349   1.087   9.599   5.242
 1837SOL    HW1 7350   1.113   9.650   5.165
 1837SOL    HW2 7351   1.064   9.665   5.308
 1838SOL     OW 7352   8.040  10.105  12.207
 1838SOL    HW1 7353   8.027  10.028  12.263
 1838SOL    HW2 7354   8.057  10.069  12.120
 1839SOL     OW 7355   7.819  12.280   8.006
 1839SOL    HW1 7356   7.736  12.308   7.968
 1839SOL    HW2 7357   7.810  12.185   8.018
 1840SOL     OW 7358   4.862   3.663   5.619
 1840SOL    HW1 7359   4.899   3.577   5.598
 1840SOL    HW2 7360   4.889   3.680   5.709
 1841SOL     OW 7361   1.441   4.983   8.627
 1841SOL    HW1 7362   1.408   4.963   8.539
 1841SOL    HW2 7363   1.461   4.898   8.665
 1842SOL     OW 7364   3.154   7.371   5.302
 1842SOL    HW1 7365   3.092   7.312   5.259
 1842SOL    HW2 7366   3.115   7.458   5.294
 1843SOL     OW 7367   9.678   7.267  12.637
 1843SOL    HW1 7368   9.591   7.286  12.672
 1843SOL    HW2 7369   9.726   7.349  12.647
 1844SOL     OW 7370   9.577   2.560  11.262
 1844SOL    HW1 7371   9.662   2.566  11.306
 1844SOL    HW2 7372   9.595   2.583  11.171
 1845SOL     OW 7373   8.338   2.722  11.188
 1845SOL    HW1 7374   8.399   2.777  11.139
 1845SOL    HW2 7375   8.395   2.660  11.234
 1846SOL     OW 7376  13.148   3.483   9.702
 1846SOL    HW1 7377  13.118   3.488   9.793
 1846SOL    HW2 7378  13.232   3.528   9.702
 1847SOL     OW 7379  11.958  10.567  13.242
 1847SOL    HW1 7380  11.879  10.521  13.214
 1847SOL    HW2 7381  11.983  10.620  13.167
 1848SOL     OW 7382   7.773  11.114   6.428
 1848SOL    HW1 7383   7.748  11.186   6.486
 1848SOL    HW2 7384   7.691  11.072   6.405
 1849SOL     OW 7385   5.693   5.124   1.967
 1849SOL    HW1 7386   5.711   5.180   2.042
 1849SOL    HW2 7387   5.652   5.046   2.004
 1850SOL     OW 7388   8.657   3.487  14.058
 1850SOL    HW1 7389   8.586   3.544  14.029
 1850SOL    HW2 7390   8.688   3.527  14.139
 1851SOL     OW 7391   0.087   1.146  10.628
 1851SOL    HW1 7392   0.021   1.110  10.569
 1851SOL    HW2 7393   0.102   1.076  10.691
 1852SOL     OW 7394   5.885   9.301  10.071
 1852SOL    HW1 7395   5.966   9.263  10.105
 1852SOL    HW2 7396   5.830   9.225  10.050
 1853SOL     OW 7397   9.830   5.066   5.190
 1853SOL    HW1 7398   9.901   5.004   5.208
 1853SOL    HW2 7399   9.752   5.012   5.183
 1854SOL     OW 7400   0.552   7.037   0.962
 1854SOL    HW1 7401   0.619   7.082   0.911
 1854SOL    HW2 7402   0.474   7.091   0.952
 1855SOL     OW 7403   2.319  14.396  10.864
 1855SOL    HW1 7404   2.397  14.452  10.872
 1855SOL    HW2 7405   2.355  14.309  10.848
 1856SOL     OW 7406   1.899  11.659   0.892
 1856SOL    HW1 7407   1.990  11.682   0.908
 1856SOL    HW2 7408   1.857  11.663   0.978
 1857SOL     OW 7409   1.067   1.644   7.370
 1857SOL    HW1 7410   1.036   1.652   7.279
 1857SOL    HW2 7411   1.063   1.551   7.388
 1858SOL     OW 7412  14.523   4.885   3.183
 1858SOL    HW1 7413  14.520   4.917   3.092
 1858SOL    HW2 7414  14.438   4.910   3.219
 1859SOL     OW 7415   3.474   7.539   6.741
 1859SOL    HW1 7416   3.499   7.466   6.798
 1859SOL    HW2 7417   3.473   7.615   6.799
 1860SOL     OW 7418   2.615  12.016  14.003
 1860SOL    HW1 7419   2.649  12.052  14.085
 1860SOL    HW2 7420   2.683  12.035  13.938
 1861SOL     OW 7421   0.639   1.166   6.150
 1861SOL    HW1 7422   0.551   1.197   6.131
 1861SOL    HW2 7423   0.672   1.227   6.216
 1862SOL     OW 7424   1.559  13.800   0.129
 1862SOL    HW1 7425   1.535  13.732   0.066
 1862SOL    HW2 7426   1.499  13.787   0.203
 1863SOL     OW 7427  13.901  14.575   7.192
 1863SOL    HW1 7428  13.850  14.512   7.141
 1863SOL    HW2 7429  13.852  14.657   7.187
 1864SOL     OW 7430   0.913  12.035   3.048
 1864SOL    HW1 7431   0.885  12.125   3.066
 1864SOL    HW2 7432   1.008  12.040   3.043
 1865SOL     OW 7433   8.723   9.753   8.371
 1865SOL    HW1 7434   8.657   9.798   8.318
 1865SOL    HW2 7435   8.702   9.660   8.362
 1866SOL     OW 7436   4.672   6.489   4.310
 1866SOL    HW1 7437   4.696   6.555   4.246
 1866SOL    HW2 7438   4.748   6.430   4.313
 1867SOL     OW 7439   9.264   3.576   3.583
 1867SOL    HW1 7440   9.179   3.618   3.572
 1867SOL    HW2 7441   9.307   3.626   3.653
 1868SOL     OW 7442   1.756   9.165   9.676
 1868SOL    HW1 7443   1.694   9.133   9.741
 1868SOL    HW2 7444   1.710   9.154   9.592
 1869SOL     OW 7445  11.231   6.498   5.995
 1869SOL    HW1 7446  11.147   6.541   5.976
 1869SOL    HW2 7447  11.249   6.519   6.086
 1870SOL     OW 7448   6.832   0.152   2.908
 1870SOL    HW1 7449   6.888   0.145   2.830
 1870SOL    HW2 7450   6.783   0.070   2.909
 1871SOL     OW 7451  14.848  14.858   5.916
 1871SOL    HW1 7452  14.834  14.844   6.010
 1871SOL    HW2 7453  14.784  14.802   5.873
 1872SOL     OW 7454   8.136   6.064   5.040
 1872SOL    HW1 7455   8.138   6.148   5.085
 1872SOL    HW2 7456   8.187   6.006   5.097
 1873SOL     OW 7457   2.026   0.281   1.247
 1873SOL    HW1 7458   2.015   0.337   1.171
 1873SOL    HW2 7459   1.937   0.270   1.282
 1874SOL     OW 7460  13.182   1.566   6.824
 1874SOL    HW1 7461  13.213   1.605   6.906
 1874SOL    HW2 7462  13.262   1.538   6.780
 1875SOL     OW 7463  10.378   3.547   9.792
 1875SOL    HW1 7464  10.389   3.578   9.703
 1875SOL    HW2 7465  10.312   3.477   9.785
 1876SOL     OW 7466   4.782   4.951  14.793
 1876SOL    HW1 7467   4.851   4.886  14.788
 1876SOL    HW2 7468   4.782   4.994  14.707
 1877SOL     OW 7469   2.593  13.897   6.707
 1877SOL    HW1 7470   2.573  13.804   6.700
 1877SOL    HW2 7471   2.543  13.937   6.636
 1878SOL     OW 7472  13.933   8.060   2.784
 1878SOL    HW1 7473  14.011   8.093   2.828
 1878SOL    HW2 7474  13.868   8.129   2.796
 1879SOL     OW 7475  11.963   1.345   9.692
 1879SOL    HW1 7476  11.977   1.422   9.747
 1879SOL    HW2 7477  12.036   1.287   9.714
 1880SOL     OW 7478   5.625   6.798   2.556
 1880SOL    HW1 7479   5.544   6.749   2.568
 1880SOL    HW2 7480   5.608   6.856   2.481
 1881SOL     OW 7481  11.462  11.511   3.537
 1881SOL    HW1 7482  11.372  11.543   3.538
 1881SOL    HW2 7483  11.485  11.507   3.444
 1882SOL     OW 7484   1.495  13.852  14.055
 1882SOL    HW1 7485   1.407  13.890  14.054
 1882SOL    HW2 7486   1.514  13.838  14.147
 1883SOL     OW 7487   8.037  13.008   7.332
 1883SOL    HW1 7488   8.012  12.991   7.423
 1883SOL    HW2 7489   8.073  12.925   7.302
 1884SOL     OW 7490   9.903   7.794   0.813
 1884SOL    HW1 7491   9.926   7.736   0.885
 1884SOL    HW2 7492   9.807   7.790   0.807
 1885SOL     OW 7493   1.558   6.618  10.118
 1885SOL    HW1 7494   1.567   6.706  10.156
 1885SOL    HW2 7495   1.625   6.615  10.049
 1886SOL     OW 7496  14.215  11.479   2.835
 1886SOL    HW1 7497  14.238  11.460   2.744
 1886SOL    HW2 7498  14.119  11.476   2.837
 1887SOL     OW 7499   7.337  13.486   2.237
 1887SOL    HW1 7500   7.281  13.408   2.241
 1887SOL    HW2 7501   7.417  13.461   2.283
 1888SOL     OW 7502   9.616   4.143   1.247
 1888SOL    HW1 7503   9.622   4.149   1.342
 1888SOL    HW2 7504   9.533   4.185   1.225
 1889SOL     OW 7505   4.595  12.696   3.248
 1889SOL    HW1 7506   4.651  12.773   3.261
 1889SOL    HW2 7507   4.557  12.680   3.334
 1890SOL     OW 7508   0.402   0.919   7.278
 1890SOL    HW1 7509   0.322   0.929   7.227
 1890SOL    HW2 7510   0.469   0.966   7.228
 1891SOL     OW 7511   1.787  11.517   4.688
 1891SOL    HW1 7512   1.871  11.550   4.718
 1891SOL    HW2 7513   1.724  11.584   4.716
 1892SOL     OW 7514   5.581   3.456  10.400
 1892SOL    HW1 7515   5.588   3.532  10.342
 1892SOL    HW2 7516   5.658   3.462  10.456
 1893SOL     OW 7517   0.395   5.569   5.475
 1893SOL    HW1 7518   0.452   5.629   5.524
 1893SOL    HW2 7519   0.357   5.623   5.406
 1894SOL     OW 7520   2.546  10.459   6.553
 1894SOL    HW1 7521   2.486  10.498   6.490
 1894SOL    HW2 7522   2.490  10.433   6.626
 1895SOL     OW 7523   1.229   2.814  10.359
 1895SOL    HW1 7524   1.291   2.744  10.336
 1895SOL    HW2 7525   1.262   2.850  10.441
 1896SOL     OW 7526   6.614   9.384  13.398
 1896SOL    HW1 7527   6.649   9.471  13.381
 1896SOL    HW2 7528   6.628   9.336  13.317
 1897SOL     OW 7529   5.931  11.053   7.130
 1897SOL    HW1 7530   5.883  11.109   7.069
 1897SOL    HW2 7531   5.988  11.112   7.179
 1898SOL     OW 7532   3.453  10.634  10.888
 1898SOL    HW1 7533   3.510  10.679  10.952
 1898SOL    HW2 7534   3.366  10.640  10.926
 1899SOL     OW 7535   3.087  14.708   6.387
 1899SOL    HW1 7536   3.067  14.784   6.332
 1899SOL    HW2 7537   3.116  14.641   6.326
 1900SOL     OW 7538  14.807   5.337  10.950
 1900SOL    HW1 7539  14.828   5.416  10.899
 1900SOL    HW2 7540  14.711   5.336  10.953
 1901SOL     OW 7541   3.607   3.397   1.571
 1901SOL    HW1 7542   3.628   3.380   1.663
 1901SOL    HW2 7543   3.675   3.350   1.523
 1902SOL     OW 7544   0.087  10.655   1.824
 1902SOL    HW1 7545   0.057  10.618   1.741
 1902SOL    HW2 7546   0.052  10.744   1.825
 1903SOL     OW 7547   5.504   7.548   6.156
 1903SOL    HW1 7548   5.589   7.581   6.125
 1903SOL    HW2 7549   5.522   7.459   6.184
 1904SOL     OW 7550  12.425   3.342   1.403
 1904SOL    HW1 7551  12.447   3.263   1.452
 1904SOL    HW2 7552  12.386   3.400   1.469
 1905SOL     OW 7553   5.811   4.426   4.299
 1905SOL    HW1 7554   5.865   4.464   4.369
 1905SOL    HW2 7555   5.757   4.361   4.344
 1906SOL     OW 7556  14.755   9.381  10.290
 1906SOL    HW1 7557  14.664   9.387  10.260
 1906SOL    HW2 7558  14.807   9.373  10.210
 1907SOL     OW 7559  11.169   8.611  11.658
 1907SOL    HW1 7560  11.249   8.559  11.650
 1907SOL    HW2 7561  11.182   8.662  11.738
 1908SOL     OW 7562   6.887   8.391   7.445
 1908SOL    HW1 7563   6.839   8.426   7.370
 1908SOL    HW2 7564   6.968   8.356   7.408
 1909SOL     OW 7565   3.998   2.307   5.215
 1909SOL    HW1 7566   3.919   2.323   5.164
 1909SOL    HW2 7567   4.068   2.299   5.149
 1910SOL     OW 7568  10.319   5.967   6.212
 1910SOL    HW1 7569  10.288   6.000   6.127
 1910SOL    HW2 7570  10.277   5.881   6.221
 1911SOL     OW 7571   2.088   0.263   7.123
 1911SOL    HW1 7572   2.091   0.178   7.167
 1911SOL    HW2 7573   2.048   0.322   7.187
 1912SOL     OW 7574  13.908   3.325   9.421
 1912SOL    HW1 7575  13.935   3.388   9.489
 1912SOL    HW2 7576  13.819   3.351   9.399
 1913SOL     OW 7577   9.068  12.422   6.305
 1913SOL    HW1 7578   9.059  12.495   6.244
 1913SOL    HW2 7579   9.002  12.359   6.277
 1914SOL     OW 7580   4.171  11.829   9.968
 1914SOL    HW1 7581   4.249  11.794   9.925
 1914SOL    HW2 7582   4.098  11.779   9.930
 1915SOL     OW 7583   7.634   0.049  11.104
 1915SOL    HW1 7584   7.604   0.072  11.016
 1915SOL    HW2 7585   7.721   0.089  11.110
 1916SOL     OW 7586  14.498   8.720   6.399
 1916SOL    HW1 7587  14.414   8.698   6.357
 1916SOL    HW2 7588  14.554   8.748   6.326
 1917SOL     OW 7589   8.908  12.497   4.180
 1917SOL    HW1 7590   8.878  12.432   4.116
 1917SOL    HW2 7591   8.865  12.472   4.262
 1918SOL     OW 7592   8.412   2.051  13.260
 1918SOL    HW1 7593   8.465   2.120  13.220
 1918SOL    HW2 7594   8.396   1.989  13.189
 1919SOL     OW 7595   8.970   7.642   7.421
 1919SOL    HW1 7596   8.939   7.728   7.393
 1919SOL    HW2 7597   8.986   7.595   7.339
 1920SOL     OW 7598  12.748   9.741   0.311
 1920SOL    HW1 7599  12.672   9.784   0.352
 1920SOL    HW2 7600  12.774   9.673   0.373
 1921SOL     OW 7601   8.586   7.416  13.038
 1921SOL    HW1 7602   8.573   7.396  12.946
 1921SOL    HW2 7603   8.643   7.492  13.038
 1922SOL     OW 7604   9.155  13.181   6.743
 1922SOL    HW1 7605   9.075  13.176   6.794
 1922SOL    HW2 7606   9.146  13.114   6.676
 1923SOL     OW 7607  14.658   3.602   7.232
 1923SOL    HW1 7608  14.699   3.523   7.267
 1923SOL    HW2 7609  14.717   3.673   7.258
 1924SOL     OW 7610   0.614   0.105   1.602
 1924SOL    HW1 7611   0.605   0.011   1.621
 1924SOL    HW2 7612   0.649   0.108   1.513
 1925SOL     OW 7613   8.889   6.123   1.749
 1925SOL    HW1 7614   8.799   6.145   1.727
 1925SOL    HW2 7615   8.942   6.176   1.691
 1926SOL     OW 7616   5.912  11.269   6.348
 1926SOL    HW1 7617   5.845  11.336   6.365
 1926SOL    HW2 7618   5.976  11.281   6.418
 1927SOL     OW 7619   1.668   7.326  11.952
 1927SOL    HW1 7620   1.689   7.382  12.027
 1927SOL    HW2 7621   1.657   7.386  11.879
 1928SOL     OW 7622   3.380   0.121   5.170
 1928SOL    HW1 7623   3.291   0.097   5.147
 1928SOL    HW2 7624   3.430   0.113   5.089
 1929SOL     OW 7625  11.126   4.590  10.902
 1929SOL    HW1 7626  11.085   4.578  10.816
 1929SOL    HW2 7627  11.062   4.557  10.964
 1930SOL     OW 7628   0.849   8.441   6.641
 1930SOL    HW1 7629   0.898   8.462   6.720
 1930SOL    HW2 7630   0.757   8.459   6.663
 1931SOL     OW 7631  11.138   8.785   1.754
 1931SOL    HW1 7632  11.150   8.734   1.834
 1931SOL    HW2 7633  11.223   8.828   1.741
 1932SOL     OW 7634  13.356   7.541   8.692
 1932SOL    HW1 7635  13.266   7.550   8.722
 1932SOL    HW2 7636  13.366   7.448   8.673
 1933SOL     OW 7637   8.401   3.069   6.970
 1933SOL    HW1 7638   8.430   3.145   6.919
 1933SOL    HW2 7639   8.342   3.105   7.035
 1934SOL     OW 7640  12.407   3.448   0.135
 1934SOL    HW1 7641  12.382   3.491   0.053
 1934SOL    HW2 7642  12.502   3.438   0.128
 1935SOL     OW 7643   2.339   7.789   2.606
 1935SOL    HW1 7644   2.330   7.846   2.682
 1935SOL    HW2 7645   2.296   7.707   2.633
 1936SOL     OW 7646   8.904  10.928  12.148
 1936SOL    HW1 7647   8.936  10.838  12.160
 1936SOL    HW2 7648   8.940  10.955  12.064
 1937SOL     OW 7649   3.738   6.747   5.912
 1937SOL    HW1 7650   3.770   6.751   6.002
 1937SOL    HW2 7651   3.643   6.743   5.920
 1938SOL     OW 7652   1.160   4.388  10.857
 1938SOL    HW1 7653   1.145   4.384  10.763
 1938SOL    HW2 7654   1.150   4.481  10.879
 1939SOL     OW 7655   1.235   3.063   7.890
 1939SOL    HW1 7656   1.140   3.062   7.900
 1939SOL    HW2 7657   1.249   3.044   7.797
 1940SOL     OW 7658  10.610   5.977   1.187
 1940SOL    HW1 7659  10.564   5.989   1.103
 1940SOL    HW2 7660  10.698   6.010   1.171
 1941SOL     OW 7661   9.800   3.324  11.565
 1941SOL    HW1 7662   9.794   3.340  11.471
 1941SOL    HW2 7663   9.893   3.303  11.580
 1942SOL     OW 7664  12.382   7.750   5.259
 1942SOL    HW1 7665  12.355   7.803   5.335
 1942SOL    HW2 7666  12.332   7.669   5.268
 1943SOL     OW 7667  12.576   1.504  12.897
 1943SOL    HW1 7668  12.641   1.451  12.852
 1943SOL    HW2 7669  12.582   1.590  12.854
 1944SOL     OW 7670   5.418   5.563  14.860
 1944SOL    HW1 7671   5.478   5.533  14.792
 1944SOL    HW2 7672   5.473   5.612   0.039
 1945SOL     OW 7673   5.140   9.476   2.524
 1945SOL    HW1 7674   5.096   9.510   2.446
 1945SOL    HW2 7675   5.089   9.509   2.598
 1946SOL     OW 7676  14.673   8.615   6.823
 1946SOL    HW1 7677  14.705   8.541   6.875
 1946SOL    HW2 7678  14.727   8.688   6.850
 1947SOL     OW 7679  12.335   3.257   1.865
 1947SOL    HW1 7680  12.419   3.303   1.862
 1947SOL    HW2 7681  12.270   3.324   1.842
 1948SOL     OW 7682   7.529   7.473   8.809
 1948SOL    HW1 7683   7.519   7.522   8.890
 1948SOL    HW2 7684   7.619   7.439   8.812
 1949SOL     OW 7685  13.388  13.069   8.336
 1949SOL    HW1 7686  13.340  13.125   8.276
 1949SOL    HW2 7687  13.398  12.986   8.290
 1950SOL     OW 7688   3.494  11.862  10.184
 1950SOL    HW1 7689   3.466  11.773  10.207
 1950SOL    HW2 7690   3.534  11.895  10.264
 1951SOL     OW 7691   8.854  12.171  14.755
 1951SOL    HW1 7692   8.817  12.090  14.721
 1951SOL    HW2 7693   8.883  12.219  14.677
 1952SOL     OW 7694   2.884  14.115  10.155
 1952SOL    HW1 7695   2.932  14.119  10.237
 1952SOL    HW2 7696   2.800  14.157  10.173
 1953SOL     OW 7697  13.899  13.726   7.203
 1953SOL    HW1 7698  13.812  13.698   7.174
 1953SOL    HW2 7699  13.930  13.784   7.134
 1954SOL     OW 7700   1.691   8.474  14.144
 1954SOL    HW1 7701   1.769   8.421  14.127
 1954SOL    HW2 7702   1.709   8.518  14.227
 1955SOL     OW 7703  12.504   3.244   7.409
 1955SOL    HW1 7704  12.456   3.263   7.489
 1955SOL    HW2 7705  12.586   3.204   7.439
 1956SOL     OW 7706  14.763   6.250  11.685
 1956SOL    HW1 7707  14.813   6.168  11.688
 1956SOL    HW2 7708  14.748   6.265  11.592
 1957SOL     OW 7709   9.935  14.539   1.960
 1957SOL    HW1 7710  10.025  14.507   1.957
 1957SOL    HW2 7711   9.884  14.472   1.915
 1958SOL     OW 7712   4.351  12.571   0.344
 1958SOL    HW1 7713   4.305  12.606   0.268
 1958SOL    HW2 7714   4.386  12.648   0.388
 1959SOL     OW 7715   3.057   1.341  14.248
 1959SOL    HW1 7716   3.041   1.395  14.170
 1959SOL    HW2 7717   3.075   1.254  14.212
 1960SOL     OW 7718   0.640   8.766   2.977
 1960SOL    HW1 7719   0.651   8.684   3.026
 1960SOL    HW2 7720   0.702   8.827   3.017
 1961SOL     OW 7721   5.793   2.811  11.909
 1961SOL    HW1 7722   5.885   2.805  11.932
 1961SOL    HW2 7723   5.747   2.816  11.993
 1962SOL     OW 7724   5.758  12.965   8.383
 1962SOL    HW1 7725   5.738  12.873   8.371
 1962SOL    HW2 7726   5.719  12.988   8.467
 1963SOL     OW 7727  12.101  12.241   4.567
 1963SOL    HW1 7728  12.155  12.316   4.589
 1963SOL    HW2 7729  12.012  12.275   4.565
 1964SOL     OW 7730   9.913   4.092   4.323
 1964SOL    HW1 7731   9.819   4.087   4.341
 1964SOL    HW2 7732   9.952   4.125   4.404
 1965SOL     OW 7733   1.082   7.700   1.616
 1965SOL    HW1 7734   1.124   7.751   1.685
 1965SOL    HW2 7735   1.052   7.765   1.553
 1966SOL     OW 7736   7.186  11.546   1.320
 1966SOL    HW1 7737   7.272  11.578   1.292
 1966SOL    HW2 7738   7.137  11.625   1.342
 1967SOL     OW 7739  11.146   4.521   3.311
 1967SOL    HW1 7740  11.103   4.606   3.310
 1967SOL    HW2 7741  11.081   4.460   3.276
 1968SOL     OW 7742   5.983   4.602   2.825
 1968SOL    HW1 7743   6.050   4.535   2.813
 1968SOL    HW2 7744   5.926   4.566   2.894
 1969SOL     OW 7745  12.678  14.076   3.137
 1969SOL    HW1 7746  12.755  14.073   3.193
 1969SOL    HW2 7747  12.627  13.999   3.161
 1970SOL     OW 7748  11.759   4.174   5.282
 1970SOL    HW1 7749  11.727   4.210   5.199
 1970SOL    HW2 7750  11.845   4.214   5.294
 1971SOL     OW 7751   4.914   8.170   1.474
 1971SOL    HW1 7752   4.882   8.134   1.391
 1971SOL    HW2 7753   4.906   8.097   1.536
 1972SOL     OW 7754  13.106  10.262   6.596
 1972SOL    HW1 7755  13.067  10.255   6.509
 1972SOL    HW2 7756  13.145  10.176   6.611
 1973SOL     OW 7757   5.866   7.223  13.415
 1973SOL    HW1 7758   5.948   7.200  13.371
 1973SOL    HW2 7759   5.892   7.278  13.488
 1974SOL     OW 7760   2.306  12.941   1.199
 1974SOL    HW1 7761   2.350  12.857   1.189
 1974SOL    HW2 7762   2.217  12.918   1.225
 1975SOL     OW 7763  13.644   2.444   4.770
 1975SOL    HW1 7764  13.638   2.374   4.835
 1975SOL    HW2 7765  13.711   2.414   4.708
 1976SOL     OW 7766   7.632   2.959   2.692
 1976SOL    HW1 7767   7.709   2.907   2.668
 1976SOL    HW2 7768   7.647   2.984   2.784
 1977SOL     OW 7769   1.826   9.157  11.883
 1977SOL    HW1 7770   1.868   9.088  11.832
 1977SOL    HW2 7771   1.863   9.238  11.847
 1978SOL     OW 7772   2.999   4.336   4.144
 1978SOL    HW1 7773   2.956   4.412   4.183
 1978SOL    HW2 7774   2.998   4.355   4.050
 1979SOL     OW 7775  11.837   0.625   8.627
 1979SOL    HW1 7776  11.921   0.595   8.592
 1979SOL    HW2 7777  11.826   0.713   8.591
 1980SOL     OW 7778  11.368   6.183  12.324
 1980SOL    HW1 7779  11.462   6.194  12.309
 1980SOL    HW2 7780  11.362   6.123  12.399
 1981SOL     OW 7781   7.578   3.213  10.158
 1981SOL    HW1 7782   7.649   3.270  10.128
 1981SOL    HW2 7783   7.596   3.129  10.117
 1982SOL     OW 7784   9.687  14.060   4.028
 1982SOL    HW1 7785   9.635  14.001   3.974
 1982SOL    HW2 7786   9.693  14.015   4.113
 1983SOL     OW 7787   2.559   0.392  14.203
 1983SOL    HW1 7788   2.639   0.443  14.193
 1983SOL    HW2 7789   2.542   0.357  14.116
 1984SOL     OW 7790   1.538  11.145   6.095
 1984SOL    HW1 7791   1.486  11.114   6.020
 1984SOL    HW2 7792   1.625  11.106   6.081
 1985SOL     OW 7793   3.959  10.585  11.910
 1985SOL    HW1 7794   3.980  10.609  12.000
 1985SOL    HW2 7795   4.043  10.591  11.863
 1986SOL     OW 7796   2.245  10.799  10.167
 1986SOL    HW1 7797   2.184  10.748  10.220
 1986SOL    HW2 7798   2.189  10.861  10.120
 1987SOL     OW 7799  10.838   3.902   5.394
 1987SOL    HW1 7800  10.926   3.939   5.396
 1987SOL    HW2 7801  10.847   3.817   5.438
 1988SOL     OW 7802   6.089  13.650   4.857
 1988SOL    HW1 7803   6.163  13.707   4.835
 1988SOL    HW2 7804   6.129  13.571   4.893
 1989SOL     OW 7805   6.373   0.686  12.552
 1989SOL    HW1 7806   6.337   0.754  12.495
 1989SOL    HW2 7807   6.371   0.723  12.640
 1990SOL     OW 7808   6.608  14.253   7.465
 1990SOL    HW1 7809   6.641  14.198   7.536
 1990SOL    HW2 7810   6.515  14.232   7.460
 1991SOL     OW 7811  13.725  11.937   9.521
 1991SOL    HW1 7812  13.697  11.848   9.499
 1991SOL    HW2 7813  13.803  11.951   9.468
 1992SOL     OW 7814   0.018   0.889   5.844
 1992SOL    HW1 7815   0.072   0.857   5.917
 1992SOL    HW2 7816  14.869   0.810   5.801
 1993SOL     OW 7817  11.636   1.382   1.058
 1993SOL    HW1 7818  11.585   1.302   1.065
 1993SOL    HW2 7819  11.640   1.417   1.148
 1994SOL     OW 7820   0.566  10.391   1.503
 1994SOL    HW1 7821   0.647  10.442   1.508
 1994SOL    HW2 7822   0.519  10.428   1.428
 1995SOL     OW 7823  14.086   4.753   1.503
 1995SOL    HW1 7824  14.087   4.830   1.560
 1995SOL    HW2 7825  14.159   4.699   1.536
 1996SOL     OW 7826   5.779   0.637  14.364
 1996SOL    HW1 7827   5.815   0.570  14.306
 1996SOL    HW2 7828   5.856   0.685  14.396
 1997SOL     OW 7829   2.890   6.063  13.878
 1997SOL    HW1 7830   2.955   6.074  13.809
 1997SOL    HW2 7831   2.937   6.020  13.949
 1998SOL     OW 7832   3.453   1.579   3.934
 1998SOL    HW1 7833   3.400   1.654   3.906
 1998SOL    HW2 7834   3.400   1.502   3.914
 1999SOL     OW 7835   5.902   9.702   5.034
 1999SOL    HW1 7836   5.829   9.644   5.054
 1999SOL    HW2 7837   5.953   9.656   4.967
 2000SOL     OW 7838   5.522   1.018  12.748
 2000SOL    HW1 7839   5.438   1.048  12.783
 2000SOL    HW2 7840   5.521   1.045  12.656
 2001SOL     OW 7841  10.940   9.398   1.032
 2001SOL    HW1 7842  10.877   9.418   1.101
 2001SOL    HW2 7843  11.007   9.346   1.076
 2002SOL     OW 7844   3.224  10.401   7.834
 2002SOL    HW1 7845   3.312  10.438   7.823
 2002SOL    HW2 7846   3.240  10.310   7.859
 2003SOL     OW 7847   5.075   6.015   7.855
 2003SOL    HW1 7848   4.981   6.025   7.840
 2003SOL    HW2 7849   5.084   6.009   7.950
 2004SOL     OW 7850   6.962  14.466  11.135
 2004SOL    HW1 7851   7.056  14.462  11.117
 2004SOL    HW2 7852   6.926  14.390  11.089
 2005SOL     OW 7853   6.434   1.406  10.150
 2005SOL    HW1 7854   6.460   1.363  10.232
 2005SOL    HW2 7855   6.408   1.334  10.093
 2006SOL     OW 7856   2.829   9.817   8.991
 2006SOL    HW1 7857   2.797   9.732   9.020
 2006SOL    HW2 7858   2.874   9.799   8.909
 2007SOL     OW 7859   6.521  14.384   4.081
 2007SOL    HW1 7860   6.504  14.476   4.099
 2007SOL    HW2 7861   6.545  14.346   4.166
 2008SOL     OW 7862   5.862  11.636   3.169
 2008SOL    HW1 7863   5.773  11.664   3.146
 2008SOL    HW2 7864   5.894  11.705   3.228
 2009SOL     OW 7865  10.290   2.140   6.408
 2009SOL    HW1 7866  10.379   2.105   6.413
 2009SOL    HW2 7867  10.238   2.069   6.372
 2010SOL     OW 7868  10.633  12.344   0.469
 2010SOL    HW1 7869  10.558  12.285   0.478
 2010SOL    HW2 7870  10.706  12.288   0.446
 2011SOL     OW 7871  14.448   6.168   0.683
 2011SOL    HW1 7872  14.382   6.114   0.727
 2011SOL    HW2 7873  14.422   6.258   0.703
 2012SOL     OW 7874  11.903   8.576   7.862
 2012SOL    HW1 7875  11.874   8.656   7.818
 2012SOL    HW2 7876  11.978   8.546   7.811
 2013SOL     OW 7877   5.289   0.505  12.829
 2013SOL    HW1 7878   5.229   0.493  12.902
 2013SOL    HW2 7879   5.237   0.486  12.751
 2014SOL     OW 7880  10.751   8.081   4.578
 2014SOL    HW1 7881  10.793   8.007   4.536
 2014SOL    HW2 7882  10.823   8.133   4.614
 2015SOL     OW 7883   0.954   5.312   5.782
 2015SOL    HW1 7884   1.025   5.313   5.717
 2015SOL    HW2 7885   0.931   5.404   5.794
 2016SOL     OW 7886   4.705  12.892   3.858
 2016SOL    HW1 7887   4.622  12.887   3.905
 2016SOL    HW2 7888   4.734  12.802   3.850
 2017SOL     OW 7889   0.716   9.353  12.811
 2017SOL    HW1 7890   0.723   9.442  12.778
 2017SOL    HW2 7891   0.801   9.314  12.794
 2018SOL     OW 7892  14.356   5.497   8.253
 2018SOL    HW1 7893  14.327   5.459   8.169
 2018SOL    HW2 7894  14.322   5.437   8.319
 2019SOL     OW 7895  13.832   4.200   5.936
 2019SOL    HW1 7896  13.796   4.123   5.979
 2019SOL    HW2 7897  13.757   4.257   5.921
 2020SOL     OW 7898   0.461   7.089   6.283
 2020SOL    HW1 7899   0.407   7.039   6.345
 2020SOL    HW2 7900   0.539   7.113   6.333
 2021SOL     OW 7901  11.645   1.583   0.226
 2021SOL    HW1 7902  11.740   1.595   0.223
 2021SOL    HW2 7903  11.632   1.490   0.205
 2022SOL     OW 7904  13.759   0.644   7.023
 2022SOL    HW1 7905  13.676   0.604   7.001
 2022SOL    HW2 7906  13.745   0.684   7.109
 2023SOL     OW 7907  11.738   3.974  12.882
 2023SOL    HW1 7908  11.721   4.008  12.794
 2023SOL    HW2 7909  11.682   4.027  12.939
 2024SOL     OW 7910   6.058  14.653   0.357
 2024SOL    HW1 7911   6.062  14.583   0.421
 2024SOL    HW2 7912   6.128  14.714   0.381
 2025SOL     OW 7913   4.231   1.283   8.635
 2025SOL    HW1 7914   4.187   1.237   8.564
 2025SOL    HW2 7915   4.269   1.213   8.689
 2026SOL     OW 7916   5.618  10.585  12.143
 2026SOL    HW1 7917   5.663  10.507  12.176
 2026SOL    HW2 7918   5.678  10.620  12.077
 2027SOL     OW 7919  12.872  13.079   8.577
 2027SOL    HW1 7920  12.815  13.129   8.518
 2027SOL    HW2 7921  12.890  12.998   8.530
 2028SOL     OW 7922   4.745   8.292   7.463
 2028SOL    HW1 7923   4.742   8.199   7.441
 2028SOL    HW2 7924   4.679   8.302   7.532
 2029SOL     OW 7925  14.191   5.208   3.990
 2029SOL    HW1 7926  14.122   5.266   4.022
 2029SOL    HW2 7927  14.263   5.266   3.965
 2030SOL     OW 7928   1.374   5.865   4.659
 2030SOL    HW1 7929   1.444   5.812   4.620
 2030SOL    HW2 7930   1.419   5.927   4.716
 2031SOL     OW 7931   0.747  12.853  13.825
 2031SOL    HW1 7932   0.771  12.766  13.795
 2031SOL    HW2 7933   0.694  12.838  13.903
 2032SOL     OW 7934   3.225   8.955   0.322
 2032SOL    HW1 7935   3.133   8.951   0.295
 2032SOL    HW2 7936   3.222   8.944   0.417
 2033SOL     OW 7937   1.420   7.847   4.424
 2033SOL    HW1 7938   1.356   7.835   4.354
 2033SOL    HW2 7939   1.368   7.879   4.499
 2034SOL     OW 7940  13.053   1.943   5.226
 2034SOL    HW1 7941  13.081   1.971   5.313
 2034SOL    HW2 7942  12.979   2.000   5.205
 2035SOL     OW 7943   0.870   5.833  14.486
 2035SOL    HW1 7944   0.905   5.746  14.504
 2035SOL    HW2 7945   0.789   5.817  14.438
 2036SOL     OW 7946   1.650   3.196  12.127
 2036SOL    HW1 7947   1.723   3.149  12.086
 2036SOL    HW2 7948   1.622   3.260  12.062
 2037SOL     OW 7949   2.565   9.798   4.355
 2037SOL    HW1 7950   2.473   9.799   4.380
 2037SOL    HW2 7951   2.585   9.705   4.341
 2038SOL     OW 7952   4.712   6.075  13.469
 2038SOL    HW1 7953   4.640   6.014  13.486
 2038SOL    HW2 7954   4.749   6.045  13.386
 2039SOL     OW 7955   5.063   3.073  13.647
 2039SOL    HW1 7956   5.087   2.998  13.592
 2039SOL    HW2 7957   4.971   3.058  13.667
 2040SOL     OW 7958   5.447   1.884   8.433
 2040SOL    HW1 7959   5.394   1.951   8.475
 2040SOL    HW2 7960   5.398   1.803   8.446
 2041SOL     OW 7961  14.400   5.702   1.188
 2041SOL    HW1 7962  14.416   5.738   1.101
 2041SOL    HW2 7963  14.485   5.667   1.215
 2042SOL     OW 7964  10.180   3.951   4.745
 2042SOL    HW1 7965  10.098   3.941   4.794
 2042SOL    HW2 7966  10.217   3.863   4.741
 2043SOL     OW 7967   7.218   0.356   0.394
 2043SOL    HW1 7968   7.193   0.265   0.384
 2043SOL    HW2 7969   7.275   0.374   0.318
 2044SOL     OW 7970  12.015   5.251   8.259
 2044SOL    HW1 7971  12.013   5.258   8.355
 2044SOL    HW2 7972  12.106   5.268   8.235
 2045SOL     OW 7973  13.633   8.170   6.259
 2045SOL    HW1 7974  13.649   8.194   6.168
 2045SOL    HW2 7975  13.540   8.148   6.263
 2046SOL     OW 7976   9.675   4.723   0.798
 2046SOL    HW1 7977   9.579   4.721   0.798
 2046SOL    HW2 7978   9.700   4.656   0.862
 2047SOL     OW 7979   2.765  13.218   9.318
 2047SOL    HW1 7980   2.808  13.134   9.303
 2047SOL    HW2 7981   2.830  13.283   9.291
 2048SOL     OW 7982  11.750  14.046   4.409
 2048SOL    HW1 7983  11.691  14.118   4.390
 2048SOL    HW2 7984  11.827  14.063   4.356
 2049SOL     OW 7985   5.283  13.610  13.699
 2049SOL    HW1 7986   5.201  13.656  13.716
 2049SOL    HW2 7987   5.349  13.679  13.696
 2050SOL     OW 7988   2.960   3.791   5.606
 2050SOL    HW1 7989   2.892   3.848   5.569
 2050SOL    HW2 7990   2.989   3.836   5.685
 2051SOL     OW 7991   6.778   1.380   6.846
 2051SOL    HW1 7992   6.757   1.319   6.916
 2051SOL    HW2 7993   6.711   1.367   6.781
 2052SOL     OW 7994  13.956   1.142   9.027
 2052SOL    HW1 7995  13.960   1.061   9.078
 2052SOL    HW2 7996  13.863   1.152   9.005
 2053SOL     OW 7997  13.965  10.365   0.207
 2053SOL    HW1 7998  13.909  10.419   0.263
 2053SOL    HW2 7999  14.042  10.346   0.261
 2054SOL     OW 8000  10.735  12.357   9.011
 2054SOL    HW1 8001  10.826  12.325   9.015
 2054SOL    HW2 8002  10.705  12.331   8.924
 2055SOL     OW 8003   4.076   7.832   2.625
 2055SOL    HW1 8004   4.037   7.901   2.572
 2055SOL    HW2 8005   4.066   7.863   2.715
 2056SOL     OW 8006   4.194   0.051  13.800
 2056SOL    HW1 8007   4.177   0.063  13.893
 2056SOL    HW2 8008   4.285   0.078  13.788
 2057SOL     OW 8009   7.717  12.669  11.139
 2057SOL    HW1 8010   7.752  12.593  11.187
 2057SOL    HW2 8011   7.754  12.745  11.183
 2058SOL     OW 8012   9.815   7.072   3.115
 2058SOL    HW1 8013   9.771   7.150   3.081
 2058SOL    HW2 8014   9.901   7.104   3.144
 2059SOL     OW 8015   1.577  14.635   4.559
 2059SOL    HW1 8016   1.507  14.611   4.497
 2059SOL    HW2 8017   1.530  14.672   4.634
 2060SOL     OW 8018   6.131   2.370  12.444
 2060SOL    HW1 8019   6.196   2.356  12.513
 2060SOL    HW2 8020   6.125   2.285  12.400
 2061SOL     OW 8021   7.015   2.242   8.526
 2061SOL    HW1 8022   6.959   2.305   8.571
 2061SOL    HW2 8023   6.981   2.238   8.437
 2062SOL     OW 8024   8.717  11.427  14.528
 2062SOL    HW1 8025   8.634  11.412  14.483
 2062SOL    HW2 8026   8.696  11.490  14.597
 2063SOL     OW 8027  10.615  14.313  12.375
 2063SOL    HW1 8028  10.636  14.269  12.293
 2063SOL    HW2 8029  10.696  14.355  12.402
 2064SOL     OW 8030   2.459   2.094  10.074
 2064SOL    HW1 8031   2.382   2.134  10.116
 2064SOL    HW2 8032   2.495   2.164  10.019
 2065SOL     OW 8033   8.820   6.916   7.285
 2065SOL    HW1 8034   8.839   6.984   7.350
 2065SOL    HW2 8035   8.736   6.942   7.247
 2066SOL     OW 8036   3.942  11.474   6.725
 2066SOL    HW1 8037   3.949  11.413   6.651
 2066SOL    HW2 8038   3.935  11.418   6.802
 2067SOL     OW 8039   9.019  11.990  14.595
 2067SOL    HW1 8040   8.976  12.020  14.514
 2067SOL    HW2 8041   9.088  11.931  14.565
 2068SOL     OW 8042   1.374   7.875   6.095
 2068SOL    HW1 8043   1.280   7.863   6.083
 2068SOL    HW2 8044   1.391   7.841   6.183
 2069SOL     OW 8045  11.223   1.699   2.596
 2069SOL    HW1 8046  11.199   1.784   2.558
 2069SOL    HW2 8047  11.139   1.659   2.619
 2070SOL     OW 8048   1.708  12.838  10.583
 2070SOL    HW1 8049   1.619  12.811  10.604
 2070SOL    HW2 8050   1.699  12.883  10.499
 2071SOL     OW 8051  14.662   4.598  13.826
 2071SOL    HW1 8052  14.673   4.554  13.910
 2071SOL    HW2 8053  14.594   4.664  13.842
 2072SOL     OW 8054  10.849  14.245   6.894
 2072SOL    HW1 8055  10.764  14.249   6.849
 2072SOL    HW2 8056  10.872  14.336   6.911
 2073SOL     OW 8057   7.417  10.794  14.167
 2073SOL    HW1 8058   7.395  10.853  14.095
 2073SOL    HW2 8059   7.357  10.819  14.238
 2074SOL     OW 8060  12.824   8.042   8.522
 2074SOL    HW1 8061  12.870   8.059   8.440
 2074SOL    HW2 8062  12.879   8.082   8.589
 2075SOL     OW 8063   0.718  10.139   8.776
 2075SOL    HW1 8064   0.624  10.126   8.786
 2075SOL    HW2 8065   0.736  10.222   8.820
 2076SOL     OW 8066  10.203   8.726   8.300
 2076SOL    HW1 8067  10.192   8.778   8.379
 2076SOL    HW2 8068  10.172   8.782   8.229
 2077SOL     OW 8069   4.715  14.749   7.212
 2077SOL    HW1 8070   4.647  14.683   7.197
 2077SOL    HW2 8071   4.691  14.791   7.295
 2078SOL     OW 8072   3.100   4.580   8.298
 2078SOL    HW1 8073   3.047   4.546   8.227
 2078SOL    HW2 8074   3.177   4.618   8.255
 2079SOL     OW 8075   9.564   1.718  14.019
 2079SOL    HW1 8076   9.502   1.763  13.961
 2079SOL    HW2 8077   9.521   1.636  14.041
 2080SOL     OW 8078   9.089  10.331   3.176
 2080SOL    HW1 8079   9.138  10.250   3.189
 2080SOL    HW2 8080   9.015  10.324   3.236
 2081SOL     OW 8081   7.745  13.733  10.445
 2081SOL    HW1 8082   7.653  13.759  10.439
 2081SOL    HW2 8083   7.750  13.682  10.525
 2082SOL     OW 8084  12.872   2.931   5.806
 2082SOL    HW1 8085  12.888   2.851   5.856
 2082SOL    HW2 8086  12.840   2.994   5.870
 2083SOL     OW 8087   7.327   2.407   1.112
 2083SOL    HW1 8088   7.383   2.330   1.101
 2083SOL    HW2 8089   7.322   2.446   1.025
 2084SOL     OW 8090   1.230   0.318   6.717
 2084SOL    HW1 8091   1.218   0.381   6.788
 2084SOL    HW2 8092   1.147   0.319   6.669
 2085SOL     OW 8093   7.606   0.564   4.426
 2085SOL    HW1 8094   7.515   0.595   4.434
 2085SOL    HW2 8095   7.605   0.508   4.349
 2086SOL     OW 8096  12.160   5.808   0.700
 2086SOL    HW1 8097  12.205   5.786   0.782
 2086SOL    HW2 8098  12.091   5.742   0.693
 2087SOL     OW 8099  13.118  10.345  12.816
 2087SOL    HW1 8100  13.158  10.311  12.736
 2087SOL    HW2 8101  13.044  10.286  12.832
 2088SOL     OW 8102   3.631   6.843   8.055
 2088SOL    HW1 8103   3.723   6.868   8.055
 2088SOL    HW2 8104   3.584   6.926   8.049
 2089SOL     OW 8105   1.915  11.409   2.370
 2089SOL    HW1 8106   1.952  11.473   2.310
 2089SOL    HW2 8107   1.990  11.374   2.419
 2090SOL     OW 8108   6.954   1.073  10.587
 2090SOL    HW1 8109   6.982   0.984  10.562
 2090SOL    HW2 8110   6.988   1.129  10.517
 2091SOL     OW 8111   0.610   0.991  14.349
 2091SOL    HW1 8112   0.619   1.079  14.314
 2091SOL    HW2 8113   0.520   0.966  14.327
 2092SOL     OW 8114   7.477  13.452   7.184
 2092SOL    HW1 8115   7.557  13.499   7.207
 2092SOL    HW2 8116   7.406  13.515   7.201
 2093SOL     OW 8117  10.957  13.154   8.570
 2093SOL    HW1 8118  10.978  13.188   8.483
 2093SOL    HW2 8119  10.863  13.173   8.581
 2094SOL     OW 8120  10.914   0.057  11.487
 2094SOL    HW1 8121  10.900   0.099  11.402
 2094SOL    HW2 8122  10.899  14.846  11.470
 2095SOL     OW 8123   4.942   3.893   6.429
 2095SOL    HW1 8124   4.937   3.933   6.516
 2095SOL    HW2 8125   4.987   3.959   6.376
 2096SOL     OW 8126   1.360   6.517   0.446
 2096SOL    HW1 8127   1.332   6.431   0.477
 2096SOL    HW2 8128   1.418   6.499   0.372
 2097SOL     OW 8129   2.835   3.924   0.730
 2097SOL    HW1 8130   2.927   3.919   0.757
 2097SOL    HW2 8131   2.810   3.834   0.711
 2098SOL     OW 8132   6.570   5.423   7.391
 2098SOL    HW1 8133   6.553   5.480   7.316
 2098SOL    HW2 8134   6.661   5.398   7.381
 2099SOL     OW 8135   3.284   5.838   6.560
 2099SOL    HW1 8136   3.341   5.906   6.595
 2099SOL    HW2 8137   3.201   5.882   6.543
 2100SOL     OW 8138   8.995   6.183   0.635
 2100SOL    HW1 8139   9.057   6.237   0.586
 2100SOL    HW2 8140   9.037   6.168   0.719
 2101SOL     OW 8141   8.002   0.309   7.706
 2101SOL    HW1 8142   8.086   0.316   7.750
 2101SOL    HW2 8143   7.941   0.356   7.763
 2102SOL     OW 8144  11.315  13.546   3.605
 2102SOL    HW1 8145  11.367  13.530   3.527
 2102SOL    HW2 8146  11.356  13.623   3.645
 2103SOL     OW 8147   2.115   1.355  14.707
 2103SOL    HW1 8148   2.022   1.349  14.727
 2103SOL    HW2 8149   2.155   1.387  14.787
 2104SOL     OW 8150   2.286   8.431   9.444
 2104SOL    HW1 8151   2.351   8.362   9.455
 2104SOL    HW2 8152   2.269   8.463   9.533
 2105SOL     OW 8153   5.107   0.284  14.374
 2105SOL    HW1 8154   5.035   0.306  14.314
 2105SOL    HW2 8155   5.157   0.365  14.382
 2106SOL     OW 8156  11.722   7.182  11.096
 2106SOL    HW1 8157  11.719   7.225  11.010
 2106SOL    HW2 8158  11.633   7.188  11.130
 2107SOL     OW 8159  14.143  10.874   0.659
 2107SOL    HW1 8160  14.060  10.834   0.634
 2107SOL    HW2 8161  14.158  10.846   0.750
 2108SOL     OW 8162  13.139   0.184  12.055
 2108SOL    HW1 8163  13.179   0.167  11.970
 2108SOL    HW2 8164  13.206   0.156  12.118
 2109SOL     OW 8165   7.685  11.597  12.961
 2109SOL    HW1 8166   7.766  11.636  12.928
 2109SOL    HW2 8167   7.633  11.671  12.991
 2110SOL     OW 8168   4.368   3.026   3.317
 2110SOL    HW1 8169   4.372   3.100   3.377
 2110SOL    HW2 8170   4.444   2.972   3.340
 2111SOL     OW 8171   7.844   8.802   2.934
 2111SOL    HW1 8172   7.877   8.853   3.008
 2111SOL    HW2 8173   7.805   8.867   2.876
 2112SOL     OW 8174   2.989  10.418   1.067
 2112SOL    HW1 8175   3.066  10.389   1.117
 2112SOL    HW2 8176   3.008  10.392   0.977
 2113SOL     OW 8177  10.027   5.403  14.475
 2113SOL    HW1 8178  10.104   5.460  14.473
 2113SOL    HW2 8179  10.054   5.325  14.426
 2114SOL     OW 8180  10.823   1.104   0.175
 2114SOL    HW1 8181  10.899   1.060   0.136
 2114SOL    HW2 8182  10.809   1.181   0.120
 2115SOL     OW 8183  13.690  14.636   8.130
 2115SOL    HW1 8184  13.731  14.719   8.156
 2115SOL    HW2 8185  13.730  14.614   8.046
 2116SOL     OW 8186  13.116  13.630   4.279
 2116SOL    HW1 8187  13.044  13.579   4.315
 2116SOL    HW2 8188  13.193  13.600   4.328
 2117SOL     OW 8189   6.903  11.545   5.088
 2117SOL    HW1 8190   6.876  11.459   5.057
 2117SOL    HW2 8191   6.884  11.544   5.182
 2118SOL     OW 8192   8.781   5.072  12.802
 2118SOL    HW1 8193   8.846   5.086  12.733
 2118SOL    HW2 8194   8.708   5.029  12.759
 2119SOL     OW 8195   4.650   0.269  10.153
 2119SOL    HW1 8196   4.742   0.287  10.134
 2119SOL    HW2 8197   4.602   0.306  10.078
 2120SOL     OW 8198  13.784   5.028   9.501
 2120SOL    HW1 8199  13.850   5.095   9.484
 2120SOL    HW2 8200  13.756   5.000   9.414
 2121SOL     OW 8201   5.195   6.500   5.711
 2121SOL    HW1 8202   5.162   6.486   5.800
 2121SOL    HW2 8203   5.120   6.533   5.662
 2122SOL     OW 8204  14.749  13.564   8.051
 2122SOL    HW1 8205  14.792  13.648   8.067
 2122SOL    HW2 8206  14.681  13.559   8.118
 2123SOL     OW 8207  13.632   9.460   8.848
 2123SOL    HW1 8208  13.690   9.518   8.799
 2123SOL    HW2 8209  13.618   9.384   8.792
 2124SOL     OW 8210  12.585   4.243   5.132
 2124SOL    HW1 8211  12.661   4.301   5.124
 2124SOL    HW2 8212  12.556   4.254   5.223
 2125SOL     OW 8213   4.101  10.228  13.633
 2125SOL    HW1 8214   4.191  10.217  13.661
 2125SOL    HW2 8215   4.088  10.323  13.629
 2126SOL     OW 8216   8.714   0.290  10.701
 2126SOL    HW1 8217   8.715   0.345  10.623
 2126SOL    HW2 8218   8.703   0.351  10.773
 2127SOL     OW 8219   9.353  12.001   3.449
 2127SOL    HW1 8220   9.268  11.957   3.454
 2127SOL    HW2 8221   9.337  12.089   3.483
 2128SOL     OW 8222   2.789   1.933  14.081
 2128SOL    HW1 8223   2.801   1.953  13.988
 2128SOL    HW2 8224   2.866   1.971  14.124
 2129SOL     OW 8225  12.282   1.367   1.522
 2129SOL    HW1 8226  12.192   1.398   1.531
 2129SOL    HW2 8227  12.315   1.411   1.444
 2130SOL     OW 8228   5.206  11.916   7.010
 2130SOL    HW1 8229   5.179  11.850   7.074
 2130SOL    HW2 8230   5.292  11.944   7.040
 2131SOL     OW 8231   8.405   9.589  10.979
 2131SOL    HW1 8232   8.310   9.597  10.970
 2131SOL    HW2 8233   8.437   9.679  10.978
 2132SOL     OW 8234   4.717   5.441  14.445
 2132SOL    HW1 8235   4.780   5.496  14.492
 2132SOL    HW2 8236   4.745   5.445  14.354
 2133SOL     OW 8237   9.035  11.859   9.378
 2133SOL    HW1 8238   9.087  11.881   9.455
 2133SOL    HW2 8239   9.009  11.944   9.342
 2134SOL     OW 8240   4.852   4.083   3.146
 2134SOL    HW1 8241   4.785   4.107   3.210
 2134SOL    HW2 8242   4.817   4.005   3.103
 2135SOL     OW 8243   2.418   8.258   8.833
 2135SOL    HW1 8244   2.483   8.197   8.798
 2135SOL    HW2 8245   2.356   8.203   8.880
 2136SOL     OW 8246  10.862   9.064  12.174
 2136SOL    HW1 8247  10.813   9.137  12.212
 2136SOL    HW2 8248  10.807   8.987  12.190
 2137SOL     OW 8249   7.795  12.831  11.374
 2137SOL    HW1 8250   7.843  12.779  11.438
 2137SOL    HW2 8251   7.712  12.852  11.417
 2138SOL     OW 8252  11.213  12.118   6.575
 2138SOL    HW1 8253  11.212  12.118   6.479
 2138SOL    HW2 8254  11.151  12.187   6.600
 2139SOL     OW 8255  12.368   4.118   8.942
 2139SOL    HW1 8256  12.369   4.195   9.000
 2139SOL    HW2 8257  12.371   4.154   8.854
 2140SOL     OW 8258  11.306  10.821   5.462
 2140SOL    HW1 8259  11.360  10.805   5.385
 2140SOL    HW2 8260  11.356  10.885   5.514
 2141SOL     OW 8261  11.028   9.583  13.978
 2141SOL    HW1 8262  10.960   9.610  13.916
 2141SOL    HW2 8263  10.980   9.540  14.049
 2142SOL     OW 8264  14.243  13.815  12.499
 2142SOL    HW1 8265  14.326  13.829  12.454
 2142SOL    HW2 8266  14.186  13.774  12.434
 2143SOL     OW 8267   1.156   3.908  13.183
 2143SOL    HW1 8268   1.226   3.973  13.196
 2143SOL    HW2 8269   1.152   3.896  13.088
 2144SOL     OW 8270   9.016   8.250   6.718
 2144SOL    HW1 8271   9.022   8.161   6.683
 2144SOL    HW2 8272   8.957   8.296   6.658
 2145SOL     OW 8273   6.838  13.231  10.119
 2145SOL    HW1 8274   6.869  13.252  10.207
 2145SOL    HW2 8275   6.915  13.196  10.075
 2146SOL     OW 8276   0.353   0.757   5.077
 2146SOL    HW1 8277   0.275   0.783   5.028
 2146SOL    HW2 8278   0.410   0.834   5.074
 2147SOL     OW 8279   3.017  11.651  12.171
 2147SOL    HW1 8280   3.007  11.742  12.142
 2147SOL    HW2 8281   2.947  11.604  12.126
 2148SOL     OW 8282  12.594   5.096   3.016
 2148SOL    HW1 8283  12.646   5.173   2.995
 2148SOL    HW2 8284  12.619   5.032   2.949
 2149SOL     OW 8285   3.908   6.930  13.600
 2149SOL    HW1 8286   3.876   6.840  13.598
 2149SOL    HW2 8287   3.934   6.945  13.691
 2150SOL     OW 8288  14.479   5.484   4.784
 2150SOL    HW1 8289  14.570   5.493   4.759
 2150SOL    HW2 8290  14.481   5.465   4.878
 2151SOL     OW 8291  11.002  13.378   3.079
 2151SOL    HW1 8292  11.074  13.392   3.140
 2151SOL    HW2 8293  10.959  13.298   3.110
 2152SOL     OW 8294   0.121   2.410   7.426
 2152SOL    HW1 8295   0.067   2.488   7.415
 2152SOL    HW2 8296   0.175   2.428   7.503
 2153SOL     OW 8297   4.333   9.281   1.103
 2153SOL    HW1 8298   4.238   9.281   1.100
 2153SOL    HW2 8299   4.354   9.311   1.192
 2154SOL     OW 8300  12.521  10.068   1.477
 2154SOL    HW1 8301  12.460  10.115   1.419
 2154SOL    HW2 8302  12.490  10.087   1.565
 2155SOL     OW 8303   7.236   2.048   1.438
 2155SOL    HW1 8304   7.195   2.125   1.399
 2155SOL    HW2 8305   7.303   2.022   1.374
 2156SOL     OW 8306   1.980   2.906   9.811
 2156SOL    HW1 8307   2.056   2.908   9.869
 2156SOL    HW2 8308   1.912   2.954   9.859
 2157SOL     OW 8309   0.049   5.662   1.860
 2157SOL    HW1 8310   0.120   5.654   1.924
 2157SOL    HW2 8311   0.093   5.692   1.780
 2158SOL     OW 8312  12.631   1.968  13.115
 2158SOL    HW1 8313  12.643   1.878  13.147
 2158SOL    HW2 8314  12.680   1.971  13.033
 2159SOL     OW 8315   7.803  10.558   4.661
 2159SOL    HW1 8316   7.866  10.489   4.640
 2159SOL    HW2 8317   7.796  10.555   4.757
 2160SOL     OW 8318   1.043  11.120   1.417
 2160SOL    HW1 8319   1.107  11.052   1.439
 2160SOL    HW2 8320   0.984  11.122   1.492
 2161SOL     OW 8321  12.004  12.173   6.166
 2161SOL    HW1 8322  12.001  12.080   6.191
 2161SOL    HW2 8323  11.985  12.172   6.072
 2162SOL     OW 8324  11.498   4.674   7.062
 2162SOL    HW1 8325  11.497   4.656   6.968
 2162SOL    HW2 8326  11.534   4.594   7.101
 2163SOL     OW 8327  12.734   7.401   0.131
 2163SOL    HW1 8328  12.737   7.353   0.048
 2163SOL    HW2 8329  12.652   7.450   0.127
 2164SOL     OW 8330   6.779   7.849   2.429
 2164SOL    HW1 8331   6.773   7.847   2.334
 2164SOL    HW2 8332   6.863   7.891   2.447
 2165SOL     OW 8333   0.430  12.030   3.371
 2165SOL    HW1 8334   0.367  12.067   3.310
 2165SOL    HW2 8335   0.512  12.025   3.320
 2166SOL     OW 8336   2.987  11.234   5.547
 2166SOL    HW1 8337   3.078  11.213   5.528
 2166SOL    HW2 8338   2.979  11.225   5.642
 2167SOL     OW 8339  10.885  13.820  11.947
 2167SOL    HW1 8340  10.915  13.730  11.960
 2167SOL    HW2 8341  10.931  13.870  12.015
 2168SOL     OW 8342   7.925  11.798   4.929
 2168SOL    HW1 8343   7.902  11.885   4.899
 2168SOL    HW2 8344   7.887  11.792   5.017
 2169SOL     OW 8345   6.933   5.980  14.209
 2169SOL    HW1 8346   6.882   5.927  14.147
 2169SOL    HW2 8347   6.954   6.060  14.160
 2170SOL     OW 8348   6.013  14.182   3.930
 2170SOL    HW1 8349   5.956  14.255   3.955
 2170SOL    HW2 8350   6.091  14.192   3.985
 2171SOL     OW 8351   2.374   7.860   9.367
 2171SOL    HW1 8352   2.380   7.883   9.275
 2171SOL    HW2 8353   2.464   7.864   9.399
 2172SOL     OW 8354  12.500  11.219   3.797
 2172SOL    HW1 8355  12.569  11.213   3.731
 2172SOL    HW2 8356  12.437  11.151   3.771
 2173SOL     OW 8357   7.998   3.100   9.621
 2173SOL    HW1 8358   8.074   3.151   9.593
 2173SOL    HW2 8359   7.941   3.098   9.544
 2174SOL     OW 8360   2.961   4.660   1.780
 2174SOL    HW1 8361   2.934   4.745   1.745
 2174SOL    HW2 8362   3.026   4.628   1.717
 2175SOL     OW 8363  11.303   6.978   3.411
 2175SOL    HW1 8364  11.252   6.982   3.330
 2175SOL    HW2 8365  11.318   6.885   3.426
 2176SOL     OW 8366  10.061   9.848   7.757
 2176SOL    HW1 8367  10.097   9.931   7.724
 2176SOL    HW2 8368  10.069   9.856   7.852
 2177SOL     OW 8369   4.952   0.752   5.629
 2177SOL    HW1 8370   4.869   0.793   5.604
 2177SOL    HW2 8371   4.973   0.792   5.714
 2178SOL     OW 8372   9.163  11.866   5.349
 2178SOL    HW1 8373   9.190  11.789   5.399
 2178SOL    HW2 8374   9.069  11.876   5.368
 2179SOL     OW 8375   3.940   7.312   6.526
 2179SOL    HW1 8376   3.872   7.353   6.472
 2179SOL    HW2 8377   3.950   7.225   6.489
 2180SOL     OW 8378   2.034  13.691   0.551
 2180SOL    HW1 8379   2.074  13.669   0.467
 2180SOL    HW2 8380   2.071  13.776   0.574
 2181SOL     OW 8381   5.263   6.064   1.667
 2181SOL    HW1 8382   5.338   6.121   1.647
 2181SOL    HW2 8383   5.251   6.073   1.762
 2182SOL     OW 8384   3.809  10.536  10.782
 2182SOL    HW1 8385   3.871  10.467  10.807
 2182SOL    HW2 8386   3.794  10.521  10.688
 2183SOL     OW 8387   8.015   0.591   2.553
 2183SOL    HW1 8388   7.980   0.545   2.629
 2183SOL    HW2 8389   8.096   0.630   2.584
 2184SOL     OW 8390   8.312   3.594   6.709
 2184SOL    HW1 8391   8.383   3.607   6.771
 2184SOL    HW2 8392   8.247   3.543   6.757
 2185SOL     OW 8393   1.824   0.141   8.817
 2185SOL    HW1 8394   1.787   0.057   8.792
 2185SOL    HW2 8395   1.917   0.134   8.794
 2186SOL     OW 8396  14.186  13.423   6.320
 2186SOL    HW1 8397  14.141  13.396   6.240
 2186SOL    HW2 8398  14.143  13.505   6.345
 2187SOL     OW 8399  10.493   4.923  12.571
 2187SOL    HW1 8400  10.442   4.959  12.643
 2187SOL    HW2 8401  10.433   4.921  12.497
 2188SOL     OW 8402   7.973   0.241   5.564
 2188SOL    HW1 8403   7.982   0.336   5.578
 2188SOL    HW2 8404   8.005   0.228   5.475
 2189SOL     OW 8405   0.287   2.769   6.905
 2189SOL    HW1 8406   0.332   2.685   6.900
 2189SOL    HW2 8407   0.283   2.800   6.815
 2190SOL     OW 8408   4.829   9.038   8.348
 2190SOL    HW1 8409   4.764   9.072   8.409
 2190SOL    HW2 8410   4.870   8.966   8.395
 2191SOL     OW 8411   2.634   8.439  14.355
 2191SOL    HW1 8412   2.648   8.529  14.326
 2191SOL    HW2 8413   2.539   8.430  14.360
 2192SOL     OW 8414   3.323   2.227   9.504
 2192SOL    HW1 8415   3.227   2.237   9.502
 2192SOL    HW2 8416   3.356   2.317   9.499
 2193SOL     OW 8417   5.650   0.524  13.356
 2193SOL    HW1 8418   5.581   0.573  13.311
 2193SOL    HW2 8419   5.604   0.458  13.407
 2194SOL     OW 8420   2.040   7.848   0.693
 2194SOL    HW1 8421   2.072   7.838   0.782
 2194SOL    HW2 8422   2.096   7.917   0.655
 2195SOL     OW 8423  14.273   7.452   6.547
 2195SOL    HW1 8424  14.246   7.536   6.509
 2195SOL    HW2 8425  14.367   7.463   6.566
 2196SOL     OW 8426   2.739   9.449   4.912
 2196SOL    HW1 8427   2.795   9.511   4.957
 2196SOL    HW2 8428   2.680   9.503   4.859
 2197SOL     OW 8429  10.628   3.332  14.273
 2197SOL    HW1 8430  10.647   3.390  14.199
 2197SOL    HW2 8431  10.550   3.283  14.246
 2198SOL     OW 8432   5.799   2.453  11.633
 2198SOL    HW1 8433   5.735   2.513  11.669
 2198SOL    HW2 8434   5.778   2.369  11.673
 2199SOL     OW 8435  13.968   2.210  12.359
 2199SOL    HW1 8436  14.033   2.196  12.427
 2199SOL    HW2 8437  13.937   2.299  12.372
 2200SOL     OW 8438  10.437  10.616   2.099
 2200SOL    HW1 8439  10.429  10.531   2.142
 2200SOL    HW2 8440  10.395  10.677   2.159
 2201SOL     OW 8441  10.402  13.282   5.354
 2201SOL    HW1 8442  10.355  13.346   5.407
 2201SOL    HW2 8443  10.466  13.333   5.304
 2202SOL     OW 8444   6.583   6.526   7.539
 2202SOL    HW1 8445   6.664   6.568   7.568
 2202SOL    HW2 8446   6.536   6.594   7.491
 2203SOL     OW 8447   5.183   1.397   7.678
 2203SOL    HW1 8448   5.237   1.337   7.626
 2203SOL    HW2 8449   5.224   1.398   7.764
 2204SOL     OW 8450   5.890   7.387  10.954
 2204SOL    HW1 8451   5.797   7.367  10.964
 2204SOL    HW2 8452   5.921   7.326  10.888
 2205SOL     OW 8453  14.397   9.644   6.880
 2205SOL    HW1 8454  14.370   9.709   6.815
 2205SOL    HW2 8455  14.315   9.609   6.914
 2206SOL     OW 8456   0.287   3.788   0.608
 2206SOL    HW1 8457   0.222   3.850   0.641
 2206SOL    HW2 8458   0.234   3.717   0.571
 2207SOL     OW 8459   5.665   7.837   5.134
 2207SOL    HW1 8460   5.737   7.776   5.147
 2207SOL    HW2 8461   5.705   7.912   5.090
 2208SOL     OW 8462  14.498   8.563  13.511
 2208SOL    HW1 8463  14.564   8.606  13.457
 2208SOL    HW2 8464  14.420   8.561  13.456
 2209SOL     OW 8465   1.326   6.010   7.454
 2209SOL    HW1 8466   1.418   6.036   7.456
 2209SOL    HW2 8467   1.289   6.046   7.535
 2210SOL     OW 8468  11.592   1.640  11.832
 2210SOL    HW1 8469  11.502   1.617  11.808
 2210SOL    HW2 8470  11.641   1.634  11.751
 2211SOL     OW 8471  12.435  11.703   7.071
 2211SOL    HW1 8472  12.528  11.707   7.048
 2211SOL    HW2 8473  12.434  11.698   7.166
 2212SOL     OW 8474   7.043   5.928  14.808
 2212SOL    HW1 8475   7.129   5.914  14.770
 2212SOL    HW2 8476   7.056   5.997  14.873
 2213SOL     OW 8477   3.685   7.334  12.486
 2213SOL    HW1 8478   3.653   7.306  12.401
 2213SOL    HW2 8479   3.689   7.429  12.481
 2214SOL     OW 8480  14.560  14.631  14.068
 2214SOL    HW1 8481  14.588  14.649  14.158
 2214SOL    HW2 8482  14.631  14.578  14.031
 2215SOL     OW 8483  11.472  10.566  10.783
 2215SOL    HW1 8484  11.536  10.636  10.794
 2215SOL    HW2 8485  11.510  10.491  10.830
 2216SOL     OW 8486   5.969  13.917   5.045
 2216SOL    HW1 8487   6.041  13.853   5.040
 2216SOL    HW2 8488   6.012  14.002   5.039
 2217SOL     OW 8489   1.685   1.659  13.453
 2217SOL    HW1 8490   1.635   1.643  13.373
 2217SOL    HW2 8491   1.673   1.579  13.505
 2218SOL     OW 8492   6.802   1.968  12.500
 2218SOL    HW1 8493   6.710   1.958  12.474
 2218SOL    HW2 8494   6.808   2.058  12.533
 2219SOL     OW 8495  12.172  12.683  12.776
 2219SOL    HW1 8496  12.253  12.694  12.826
 2219SOL    HW2 8497  12.104  12.721  12.832
 2220SOL     OW 8498   3.429  13.011  13.105
 2220SOL    HW1 8499   3.433  13.043  13.195
 2220SOL    HW2 8500   3.433  13.091  13.051
 2221SOL     OW 8501   2.930  14.494  13.946
 2221SOL    HW1 8502   2.891  14.501  14.033
 2221SOL    HW2 8503   2.978  14.576  13.934
 2222SOL     OW 8504   2.579  13.044  12.686
 2222SOL    HW1 8505   2.533  13.052  12.602
 2222SOL    HW2 8506   2.510  13.054  12.752
 2223SOL     OW 8507  11.478   4.174   6.719
 2223SOL    HW1 8508  11.518   4.113   6.657
 2223SOL    HW2 8509  11.550   4.227   6.751
 2224SOL     OW 8510   1.329  14.481   2.291
 2224SOL    HW1 8511   1.352  14.399   2.335
 2224SOL    HW2 8512   1.411  14.531   2.291
 2225SOL     OW 8513  11.324   7.412   7.421
 2225SOL    HW1 8514  11.360   7.442   7.337
 2225SOL    HW2 8515  11.398   7.374   7.467
 2226SOL     OW 8516   7.511   0.283  12.111
 2226SOL    HW1 8517   7.471   0.203  12.077
 2226SOL    HW2 8518   7.462   0.354  12.070
 2227SOL     OW 8519   6.205   8.604  11.762
 2227SOL    HW1 8520   6.211   8.515  11.797
 2227SOL    HW2 8521   6.251   8.600  11.678
 2228SOL     OW 8522   3.019   6.664  12.831
 2228SOL    HW1 8523   3.098   6.682  12.780
 2228SOL    HW2 8524   2.974   6.749  12.836
 2229SOL     OW 8525   8.107  14.187   1.175
 2229SOL    HW1 8526   8.024  14.183   1.128
 2229SOL    HW2 8527   8.084  14.209   1.265
 2230SOL     OW 8528   0.306  13.776  13.945
 2230SOL    HW1 8529   0.218  13.778  13.908
 2230SOL    HW2 8530   0.296  13.819  14.031
 2231SOL     OW 8531   5.284  14.418   4.173
 2231SOL    HW1 8532   5.218  14.354   4.199
 2231SOL    HW2 8533   5.367  14.372   4.180
 2232SOL     OW 8534   2.549  13.118   1.074
 2232SOL    HW1 8535   2.500  13.087   1.151
 2232SOL    HW2 8536   2.509  13.202   1.053
 2233SOL     OW 8537   6.513  14.121  11.082
 2233SOL    HW1 8538   6.564  14.118  11.000
 2233SOL    HW2 8539   6.427  14.087  11.057
 2234SOL     OW 8540  12.278   7.367  14.310
 2234SOL    HW1 8541  12.183   7.381  14.311
 2234SOL    HW2 8542  12.309   7.422  14.238
 2235SOL     OW 8543  10.484  13.442   8.139
 2235SOL    HW1 8544  10.490  13.347   8.141
 2235SOL    HW2 8545  10.396  13.461   8.172
 2236SOL     OW 8546   2.333  10.568   7.427
 2236SOL    HW1 8547   2.261  10.563   7.365
 2236SOL    HW2 8548   2.377  10.483   7.420
 2237SOL     OW 8549   7.316  11.692   7.556
 2237SOL    HW1 8550   7.310  11.675   7.462
 2237SOL    HW2 8551   7.231  11.664   7.591
 2238SOL     OW 8552   6.806  12.803  12.252
 2238SOL    HW1 8553   6.858  12.850  12.186
 2238SOL    HW2 8554   6.718  12.797  12.214
 2239SOL     OW 8555   2.708  14.279  13.374
 2239SOL    HW1 8556   2.690  14.186  13.360
 2239SOL    HW2 8557   2.699  14.318  13.287
 2240SOL     OW 8558   9.732   5.027  13.754
 2240SOL    HW1 8559   9.790   5.057  13.684
 2240SOL    HW2 8560   9.649   5.072  13.738
 2241SOL     OW 8561  13.426   4.154   2.591
 2241SOL    HW1 8562  13.505   4.125   2.545
 2241SOL    HW2 8563  13.440   4.247   2.606
 2242SOL     OW 8564  12.006  10.785   4.553
 2242SOL    HW1 8565  12.083  10.823   4.596
 2242SOL    HW2 8566  11.938  10.786   4.621
 2243SOL     OW 8567   8.032   2.789   5.113
 2243SOL    HW1 8568   8.117   2.826   5.090
 2243SOL    HW2 8569   8.052   2.700   5.141
 2244SOL     OW 8570   1.348   6.776   0.296
 2244SOL    HW1 8571   1.372   6.686   0.319
 2244SOL    HW2 8572   1.356   6.779   0.200
 2245SOL     OW 8573   1.171   6.682   5.536
 2245SOL    HW1 8574   1.131   6.742   5.473
 2245SOL    HW2 8575   1.245   6.732   5.572
 2246SOL     OW 8576   0.319   9.749   0.817
 2246SOL    HW1 8577   0.254   9.773   0.752
 2246SOL    HW2 8578   0.271   9.745   0.900
 2247SOL     OW 8579  10.017   3.427   8.367
 2247SOL    HW1 8580  10.004   3.365   8.295
 2247SOL    HW2 8581   9.958   3.500   8.347
 2248SOL     OW 8582   1.513   1.368  11.578
 2248SOL    HW1 8583   1.527   1.305  11.649
 2248SOL    HW2 8584   1.560   1.331  11.503
 2249SOL     OW 8585   3.275   5.149  10.392
 2249SOL    HW1 8586   3.215   5.147  10.467
 2249SOL    HW2 8587   3.328   5.228  10.405
 2250SOL     OW 8588   0.872   6.972   4.272
 2250SOL    HW1 8589   0.811   6.902   4.298
 2250SOL    HW2 8590   0.830   7.053   4.301
 2251SOL     OW 8591   5.298   3.619   7.080
 2251SOL    HW1 8592   5.225   3.681   7.076
 2251SOL    HW2 8593   5.326   3.609   6.989
 2252SOL     OW 8594   2.532   2.037  10.663
 2252SOL    HW1 8595   2.464   2.080  10.611
 2252SOL    HW2 8596   2.562   1.964  10.608
 2253SOL     OW 8597  10.883  12.616  11.830
 2253SOL    HW1 8598  10.912  12.706  11.842
 2253SOL    HW2 8599  10.954  12.562  11.866
 2254SOL     OW 8600  12.554   0.427   0.414
 2254SOL    HW1 8601  12.583   0.351   0.465
 2254SOL    HW2 8602  12.615   0.430   0.340
 2255SOL     OW 8603   9.359  10.048   7.155
 2255SOL    HW1 8604   9.351  10.092   7.071
 2255SOL    HW2 8605   9.446  10.074   7.188
 2256SOL     OW 8606   8.424   5.452  12.882
 2256SOL    HW1 8607   8.395   5.507  12.955
 2256SOL    HW2 8608   8.511   5.421  12.909
 2257SOL     OW 8609  12.724  13.103   2.848
 2257SOL    HW1 8610  12.765  13.017   2.861
 2257SOL    HW2 8611  12.682  13.097   2.763
 2258SOL     OW 8612  14.792   2.500  12.299
 2258SOL    HW1 8613  14.743   2.418  12.292
 2258SOL    HW2 8614  14.870   2.477  12.348
 2259SOL     OW 8615   8.975  12.374   5.097
 2259SOL    HW1 8616   9.051  12.340   5.144
 2259SOL    HW2 8617   8.976  12.326   5.014
 2260SOL     OW 8618   4.857   6.341   5.843
 2260SOL    HW1 8619   4.932   6.382   5.886
 2260SOL    HW2 8620   4.893   6.264   5.799
 2261SOL     OW 8621   3.935   0.444  10.348
 2261SOL    HW1 8622   3.891   0.508  10.403
 2261SOL    HW2 8623   4.023   0.481  10.334
 2262SOL     OW 8624   0.098   9.693   5.752
 2262SOL    HW1 8625   0.116   9.693   5.846
 2262SOL    HW2 8626   0.110   9.602   5.725
 2263SOL     OW 8627   0.545   2.160  14.199
 2263SOL    HW1 8628   0.617   2.151  14.136
 2263SOL    HW2 8629   0.467   2.136  14.150
 2264SOL     OW 8630   6.418   5.013   2.424
 2264SOL    HW1 8631   6.423   5.101   2.387
 2264SOL    HW2 8632   6.328   5.004   2.454
 2265SOL     OW 8633  14.037  12.086   8.579
 2265SOL    HW1 8634  14.119  12.135   8.578
 2265SOL    HW2 8635  13.969  12.151   8.564
 2266SOL     OW 8636  12.755  10.949   1.018
 2266SOL    HW1 8637  12.722  10.944   0.929
 2266SOL    HW2 8638  12.680  10.925   1.073
 2267SOL     OW 8639   7.687   3.253  12.533
 2267SOL    HW1 8640   7.679   3.233  12.626
 2267SOL    HW2 8641   7.628   3.191  12.490
 2268SOL     OW 8642   6.845   5.158   3.702
 2268SOL    HW1 8643   6.934   5.193   3.698
 2268SOL    HW2 8644   6.788   5.235   3.710
 2269SOL     OW 8645   2.352  12.397   7.143
 2269SOL    HW1 8646   2.410  12.349   7.202
 2269SOL    HW2 8647   2.270  12.348   7.143
 2270SOL     OW 8648   9.242   6.707   3.297
 2270SOL    HW1 8649   9.165   6.746   3.255
 2270SOL    HW2 8650   9.310   6.710   3.230
 2271SOL     OW 8651   7.776   1.880   7.943
 2271SOL    HW1 8652   7.784   1.892   8.038
 2271SOL    HW2 8653   7.720   1.952   7.914
 2272SOL     OW 8654  13.531   7.098  11.452
 2272SOL    HW1 8655  13.456   7.157  11.447
 2272SOL    HW2 8656  13.517   7.036  11.380
 2273SOL     OW 8657  13.922   4.059   6.563
 2273SOL    HW1 8658  13.859   3.997   6.525
 2273SOL    HW2 8659  13.967   4.097   6.487
 2274SOL     OW 8660   1.144   1.886   7.678
 2274SOL    HW1 8661   1.189   1.930   7.606
 2274SOL    HW2 8662   1.214   1.866   7.740
 2275SOL     OW 8663  10.660   5.210   0.823
 2275SOL    HW1 8664  10.570   5.196   0.791
 2275SOL    HW2 8665  10.662   5.302   0.848
 2276SOL     OW 8666   3.030   1.115  12.955
 2276SOL    HW1 8667   2.939   1.145  12.948
 2276SOL    HW2 8668   3.064   1.158  13.033
 2277SOL     OW 8669   6.011   2.284  13.576
 2277SOL    HW1 8670   6.074   2.264  13.507
 2277SOL    HW2 8671   6.038   2.369  13.609
 2278SOL     OW 8672  12.672  14.726  11.399
 2278SOL    HW1 8673  12.627  14.645  11.376
 2278SOL    HW2 8674  12.755  14.722  11.353
 2279SOL     OW 8675  13.468   6.613   8.851
 2279SOL    HW1 8676  13.532   6.642   8.916
 2279SOL    HW2 8677  13.466   6.683   8.786
 2280SOL     OW 8678  13.067  14.302   5.919
 2280SOL    HW1 8679  13.095  14.252   5.842
 2280SOL    HW2 8680  13.116  14.264   5.992
 2281SOL     OW 8681   0.650  14.330   1.656
 2281SOL    HW1 8682   0.724  14.372   1.611
 2281SOL    HW2 8683   0.681  14.319   1.746
 2282SOL     OW 8684   1.983  12.437   3.426
 2282SOL    HW1 8685   2.059  12.491   3.403
 2282SOL    HW2 8686   2.021  12.354   3.456
 2283SOL     OW 8687  10.584  13.811   2.854
 2283SOL    HW1 8688  10.628  13.853   2.780
 2283SOL    HW2 8689  10.614  13.720   2.851
 2284SOL     OW 8690   9.504   6.850   8.681
 2284SOL    HW1 8691   9.571   6.916   8.697
 2284SOL    HW2 8692   9.431   6.875   8.738
 2285SOL     OW 8693  11.224  11.886   6.368
 2285SOL    HW1 8694  11.301  11.919   6.322
 2285SOL    HW2 8695  11.259  11.834   6.440
 2286SOL     OW 8696  10.720  12.448  12.468
 2286SOL    HW1 8697  10.797  12.406  12.507
 2286SOL    HW2 8698  10.754  12.495  12.392
 2287SOL     OW 8699  14.640   4.086   6.283
 2287SOL    HW1 8700  14.643   4.159   6.221
 2287SOL    HW2 8701  14.600   4.123   6.362
 2288SOL     OW 8702   4.102   4.181   1.891
 2288SOL    HW1 8703   4.054   4.111   1.847
 2288SOL    HW2 8704   4.073   4.178   1.982
 2289SOL     OW 8705   9.656  12.048  14.276
 2289SOL    HW1 8706   9.616  12.124  14.234
 2289SOL    HW2 8707   9.738  12.034  14.228
 2290SOL     OW 8708   7.614   3.593   9.582
 2290SOL    HW1 8709   7.636   3.634   9.666
 2290SOL    HW2 8710   7.624   3.500   9.598
 2291SOL     OW 8711   6.802   2.244  14.133
 2291SOL    HW1 8712   6.893   2.218  14.150
 2291SOL    HW2 8713   6.809   2.335  14.105
 2292SOL     OW 8714   6.356   0.102   2.457
 2292SOL    HW1 8715   6.350   0.101   2.552
 2292SOL    HW2 8716   6.426   0.165   2.438
 2293SOL     OW 8717   5.765  14.459  11.656
 2293SOL    HW1 8718   5.835  14.522  11.642
 2293SOL    HW2 8719   5.741  14.429  11.568
 2294SOL     OW 8720  13.687   8.905   2.799
 2294SOL    HW1 8721  13.774   8.938   2.820
 2294SOL    HW2 8722  13.652   8.967   2.735
 2295SOL     OW 8723   1.058  12.650  13.568
 2295SOL    HW1 8724   0.998  12.664  13.494
 2295SOL    HW2 8725   1.134  12.704  13.547
 2296SOL     OW 8726   3.316   0.679  10.493
 2296SOL    HW1 8727   3.334   0.712  10.405
 2296SOL    HW2 8728   3.389   0.709  10.546
 2297SOL     OW 8729  14.326  14.495   0.032
 2297SOL    HW1 8730  14.346  14.497  14.820
 2297SOL    HW2 8731  14.384  14.561   0.070
 2298SOL     OW 8732  10.263   6.619  12.356
 2298SOL    HW1 8733  10.282   6.689  12.294
 2298SOL    HW2 8734  10.273   6.660  12.442
 2299SOL     OW 8735   2.264   0.521   3.435
 2299SOL    HW1 8736   2.204   0.564   3.375
 2299SOL    HW2 8737   2.290   0.440   3.389
 2300SOL     OW 8738  12.267   2.746  10.994
 2300SOL    HW1 8739  12.355   2.783  10.994
 2300SOL    HW2 8740  12.228   2.778  10.912
 2301SOL     OW 8741  10.859  13.468   9.285
 2301SOL    HW1 8742  10.796  13.528   9.325
 2301SOL    HW2 8743  10.893  13.516   9.209
 2302SOL     OW 8744   5.603   7.168  10.095
 2302SOL    HW1 8745   5.550   7.120  10.031
 2302SOL    HW2 8746   5.561   7.254  10.101
 2303SOL     OW 8747   0.840  12.207   2.587
 2303SOL    HW1 8748   0.880  12.277   2.639
 2303SOL    HW2 8749   0.804  12.147   2.652
 2304SOL     OW 8750  13.901   6.856   0.376
 2304SOL    HW1 8751  13.830   6.829   0.434
 2304SOL    HW2 8752  13.968   6.788   0.387
 2305SOL     OW 8753   4.168  14.200  11.814
 2305SOL    HW1 8754   4.243  14.148  11.839
 2305SOL    HW2 8755   4.145  14.169  11.727
 2306SOL     OW 8756   5.357  10.841   2.873
 2306SOL    HW1 8757   5.268  10.868   2.892
 2306SOL    HW2 8758   5.372  10.764   2.928
 2307SOL     OW 8759   1.760  13.477  11.935
 2307SOL    HW1 8760   1.755  13.385  11.908
 2307SOL    HW2 8761   1.846  13.485  11.975
 2308SOL     OW 8762  13.789   5.255   7.750
 2308SOL    HW1 8763  13.714   5.200   7.727
 2308SOL    HW2 8764  13.752   5.342   7.761
 2309SOL     OW 8765   1.957  14.189   6.817
 2309SOL    HW1 8766   1.959  14.253   6.888
 2309SOL    HW2 8767   1.901  14.227   6.750
 2310SOL     OW 8768   6.222   0.826   4.556
 2310SOL    HW1 8769   6.273   0.780   4.490
 2310SOL    HW2 8770   6.213   0.915   4.522
 2311SOL     OW 8771   9.669   0.277   4.232
 2311SOL    HW1 8772   9.642   0.293   4.322
 2311SOL    HW2 8773   9.759   0.311   4.227
 2312SOL     OW 8774  11.449   9.722  13.461
 2312SOL    HW1 8775  11.433   9.755  13.549
 2312SOL    HW2 8776  11.366   9.738  13.415
 2313SOL     OW 8777   6.544  13.515   9.091
 2313SOL    HW1 8778   6.523  13.443   9.151
 2313SOL    HW2 8779   6.530  13.478   9.004
 2314SOL     OW 8780   3.152   5.502   0.606
 2314SOL    HW1 8781   3.173   5.538   0.692
 2314SOL    HW2 8782   3.224   5.443   0.587
 2315SOL     OW 8783   3.304   3.132   8.360
 2315SOL    HW1 8784   3.273   3.042   8.361
 2315SOL    HW2 8785   3.365   3.138   8.433
 2316SOL     OW 8786  11.418   6.606   0.979
 2316SOL    HW1 8787  11.492   6.562   0.936
 2316SOL    HW2 8788  11.344   6.591   0.921
 2317SOL     OW 8789   7.920   0.411   9.556
 2317SOL    HW1 8790   7.901   0.505   9.559
 2317SOL    HW2 8791   7.977   0.401   9.480
 2318SOL     OW 8792  10.728  11.260  11.491
 2318SOL    HW1 8793  10.676  11.245  11.412
 2318SOL    HW2 8794  10.715  11.353  11.511
 2319SOL     OW 8795   8.697   1.801   2.785
 2319SOL    HW1 8796   8.704   1.825   2.878
 2319SOL    HW2 8797   8.677   1.884   2.741
 2320SOL     OW 8798   7.111   6.421  14.583
 2320SOL    HW1 8799   7.026   6.464  14.579
 2320SOL    HW2 8800   7.118   6.372  14.501
 2321SOL     OW 8801   1.714   9.086   1.747
 2321SOL    HW1 8802   1.663   9.045   1.817
 2321SOL    HW2 8803   1.722   9.017   1.680
 2322SOL     OW 8804  12.899  10.792   5.317
 2322SOL    HW1 8805  12.810  10.761   5.328
 2322SOL    HW2 8806  12.954  10.721   5.350
 2323SOL     OW 8807   8.568   0.139   4.605
 2323SOL    HW1 8808   8.502   0.161   4.671
 2323SOL    HW2 8809   8.520   0.089   4.539
 2324SOL     OW 8810   1.860  10.022   8.920
 2324SOL    HW1 8811   1.861   9.929   8.942
 2324SOL    HW2 8812   1.905  10.027   8.836
 2325SOL     OW 8813  13.167  10.212  12.323
 2325SOL    HW1 8814  13.248  10.261  12.312
 2325SOL    HW2 8815  13.112  10.240  12.250
 2326SOL     OW 8816   2.791   5.103   0.050
 2326SOL    HW1 8817   2.815   5.190   0.082
 2326SOL    HW2 8818   2.723   5.120  14.866
 2327SOL     OW 8819   9.007   9.833   1.685
 2327SOL    HW1 8820   8.985   9.894   1.755
 2327SOL    HW2 8821   9.075   9.878   1.635
 2328SOL     OW 8822   0.330   4.123  14.576
 2328SOL    HW1 8823   0.264   4.059  14.549
 2328SOL    HW2 8824   0.351   4.099  14.666
 2329SOL     OW 8825   8.854   4.405   9.459
 2329SOL    HW1 8826   8.913   4.352   9.405
 2329SOL    HW2 8827   8.912   4.445   9.525
 2330SOL     OW 8828   2.196  14.408  10.401
 2330SOL    HW1 8829   2.105  14.422  10.375
 2330SOL    HW2 8830   2.212  14.315  10.383
 2331SOL     OW 8831  13.773   6.936   9.221
 2331SOL    HW1 8832  13.720   6.971   9.293
 2331SOL    HW2 8833  13.736   6.977   9.142
 2332SOL     OW 8834  12.179  10.545   2.682
 2332SOL    HW1 8835  12.138  10.463   2.655
 2332SOL    HW2 8836  12.111  10.611   2.668
 2333SOL     OW 8837  12.467  11.317   0.798
 2333SOL    HW1 8838  12.382  11.353   0.822
 2333SOL    HW2 8839  12.479  11.341   0.706
 2334SOL     OW 8840  13.831  11.387  11.379
 2334SOL    HW1 8841  13.893  11.461  11.376
 2334SOL    HW2 8842  13.745  11.427  11.366
 2335SOL     OW 8843   1.630   6.378   1.146
 2335SOL    HW1 8844   1.666   6.395   1.059
 2335SOL    HW2 8845   1.688   6.425   1.206
 2336SOL     OW 8846   5.819  10.855   5.039
 2336SOL    HW1 8847   5.899  10.805   5.021
 2336SOL    HW2 8848   5.794  10.827   5.128
 2337SOL     OW 8849   7.240   9.362  12.970
 2337SOL    HW1 8850   7.291   9.381  12.891
 2337SOL    HW2 8851   7.302   9.315  13.027
 2338SOL     OW 8852  13.881  10.535   4.556
 2338SOL    HW1 8853  13.818  10.514   4.487
 2338SOL    HW2 8854  13.832  10.526   4.637
 2339SOL     OW 8855   4.166   5.477   2.636
 2339SOL    HW1 8856   4.200   5.519   2.557
 2339SOL    HW2 8857   4.203   5.527   2.708
 2340SOL     OW 8858  10.187  10.967   9.080
 2340SOL    HW1 8859  10.102  11.009   9.062
 2340SOL    HW2 8860  10.203  10.984   9.172
 2341SOL     OW 8861   3.114   8.632  13.748
 2341SOL    HW1 8862   3.172   8.639  13.673
 2341SOL    HW2 8863   3.058   8.709  13.743
 2342SOL     OW 8864   4.178  10.273   1.632
 2342SOL    HW1 8865   4.128  10.232   1.561
 2342SOL    HW2 8866   4.268  10.276   1.600
 2343SOL     OW 8867  14.078   6.381   4.149
 2343SOL    HW1 8868  13.999   6.359   4.198
 2343SOL    HW2 8869  14.046   6.417   4.066
 2344SOL     OW 8870   5.301   4.766  10.753
 2344SOL    HW1 8871   5.366   4.786  10.686
 2344SOL    HW2 8872   5.231   4.831  10.739
 2345SOL     OW 8873  11.205   9.276  11.292
 2345SOL    HW1 8874  11.234   9.346  11.350
 2345SOL    HW2 8875  11.137   9.317  11.238
 2346SOL     OW 8876  10.888   7.108   8.067
 2346SOL    HW1 8877  10.957   7.118   8.002
 2346SOL    HW2 8878  10.870   7.197   8.097
 2347SOL     OW 8879   5.638  11.184   1.566
 2347SOL    HW1 8880   5.634  11.279   1.579
 2347SOL    HW2 8881   5.711  11.155   1.619
 2348SOL     OW 8882  13.622  11.544   0.424
 2348SOL    HW1 8883  13.640  11.462   0.379
 2348SOL    HW2 8884  13.594  11.518   0.512
 2349SOL     OW 8885   7.264   7.233  10.704
 2349SOL    HW1 8886   7.241   7.197  10.790
 2349SOL    HW2 8887   7.180   7.247  10.660
 2350SOL     OW 8888   7.684   3.186  12.821
 2350SOL    HW1 8889   7.614   3.121  12.824
 2350SOL    HW2 8890   7.688   3.220  12.910
 2351SOL     OW 8891   5.865  11.842  12.951
 2351SOL    HW1 8892   5.815  11.918  12.980
 2351SOL    HW2 8893   5.916  11.874  12.876
 2352SOL     OW 8894   0.708  11.541  11.670
 2352SOL    HW1 8895   0.774  11.591  11.623
 2352SOL    HW2 8896   0.757  11.471  11.715
 2353SOL     OW 8897   8.968  13.529   2.094
 2353SOL    HW1 8898   8.948  13.449   2.045
 2353SOL    HW2 8899   8.887  13.580   2.090
 2354SOL     OW 8900   6.995   7.048   3.378
 2354SOL    HW1 8901   6.959   6.977   3.326
 2354SOL    HW2 8902   6.974   7.025   3.469
 2355SOL     OW 8903  13.659   2.426   5.347
 2355SOL    HW1 8904  13.728   2.466   5.294
 2355SOL    HW2 8905  13.659   2.475   5.429
 2356SOL     OW 8906   0.074   3.523   5.947
 2356SOL    HW1 8907   0.041   3.568   5.869
 2356SOL    HW2 8908  14.881   3.520   6.007
 2357SOL     OW 8909   9.034   7.065  10.390
 2357SOL    HW1 8910   8.973   7.137  10.403
 2357SOL    HW2 8911   9.120   7.107  10.384
 2358SOL     OW 8912  13.801   1.517  11.589
 2358SOL    HW1 8913  13.756   1.548  11.667
 2358SOL    HW2 8914  13.772   1.577  11.520
 2359SOL     OW 8915   5.032  12.165  12.914
 2359SOL    HW1 8916   5.117  12.134  12.944
 2359SOL    HW2 8917   5.034  12.259  12.930
 2360SOL     OW 8918  13.600   7.945  12.170
 2360SOL    HW1 8919  13.572   7.857  12.143
 2360SOL    HW2 8920  13.653   7.977  12.097
 2361SOL     OW 8921   6.705  14.687   4.365
 2361SOL    HW1 8922   6.750  14.641   4.437
 2361SOL    HW2 8923   6.746  14.652   4.286
 2362SOL     OW 8924   7.736  10.272   9.775
 2362SOL    HW1 8925   7.774  10.223   9.848
 2362SOL    HW2 8926   7.803  10.270   9.707
 2363SOL     OW 8927   5.421   9.611   8.147
 2363SOL    HW1 8928   5.382   9.673   8.208
 2363SOL    HW2 8929   5.491   9.661   8.104
 2364SOL     OW 8930  11.371   1.752  10.756
 2364SOL    HW1 8931  11.382   1.847  10.752
 2364SOL    HW2 8932  11.394   1.729  10.846
 2365SOL     OW 8933   1.473   8.651  10.324
 2365SOL    HW1 8934   1.388   8.617  10.297
 2365SOL    HW2 8935   1.532   8.628  10.252
 2366SOL     OW 8936   0.762  11.336   2.243
 2366SOL    HW1 8937   0.703  11.406   2.271
 2366SOL    HW2 8938   0.793  11.364   2.157
 2367SOL     OW 8939   2.360  10.537   0.135
 2367SOL    HW1 8940   2.347  10.605   0.201
 2367SOL    HW2 8941   2.429  10.570   0.078
 2368SOL     OW 8942   8.402   7.125  13.540
 2368SOL    HW1 8943   8.438   7.207  13.575
 2368SOL    HW2 8944   8.350   7.089  13.611
 2369SOL     OW 8945  10.671  13.526  12.935
 2369SOL    HW1 8946  10.592  13.485  12.900
 2369SOL    HW2 8947  10.727  13.540  12.859
 2370SOL     OW 8948  13.231  11.660   9.576
 2370SOL    HW1 8949  13.236  11.587   9.636
 2370SOL    HW2 8950  13.318  11.701   9.580
 2371SOL     OW 8951  13.542   9.212   8.752
 2371SOL    HW1 8952  13.601   9.160   8.697
 2371SOL    HW2 8953  13.474   9.150   8.780
 2372SOL     OW 8954  12.462   5.273   3.978
 2372SOL    HW1 8955  12.479   5.180   3.995
 2372SOL    HW2 8956  12.468   5.314   4.064
 2373SOL     OW 8957   8.474  10.723   3.185
 2373SOL    HW1 8958   8.522  10.651   3.227
 2373SOL    HW2 8959   8.396  10.682   3.148
 2374SOL     OW 8960   3.465  13.975  10.114
 2374SOL    HW1 8961   3.502  13.960  10.201
 2374SOL    HW2 8962   3.370  13.978  10.129
 2375SOL     OW 8963   5.736   3.625  14.538
 2375SOL    HW1 8964   5.801   3.562  14.508
 2375SOL    HW2 8965   5.703   3.666  14.457
 2376SOL     OW 8966   9.540   2.283   1.222
 2376SOL    HW1 8967   9.617   2.259   1.275
 2376SOL    HW2 8968   9.574   2.290   1.133
 2377SOL     OW 8969   5.877   4.574   3.492
 2377SOL    HW1 8970   5.884   4.500   3.552
 2377SOL    HW2 8971   5.790   4.610   3.508
 2378SOL     OW 8972   8.885   1.476   2.810
 2378SOL    HW1 8973   8.865   1.435   2.725
 2378SOL    HW2 8974   8.911   1.565   2.788
 2379SOL     OW 8975   9.546   7.566  12.040
 2379SOL    HW1 8976   9.576   7.561  11.949
 2379SOL    HW2 8977   9.458   7.527  12.038
 2380SOL     OW 8978   5.577  13.313   3.072
 2380SOL    HW1 8979   5.577  13.226   3.033
 2380SOL    HW2 8980   5.608  13.299   3.162
 2381SOL     OW 8981   3.589   0.707   8.121
 2381SOL    HW1 8982   3.502   0.682   8.089
 2381SOL    HW2 8983   3.648   0.677   8.052
 2382SOL     OW 8984   5.835   5.148  13.095
 2382SOL    HW1 8985   5.792   5.070  13.132
 2382SOL    HW2 8986   5.791   5.162  13.011
 2383SOL     OW 8987   4.509   1.832   1.981
 2383SOL    HW1 8988   4.421   1.795   1.986
 2383SOL    HW2 8989   4.494   1.927   1.982
 2384SOL     OW 8990  12.385  14.754   0.802
 2384SOL    HW1 8991  12.316  14.693   0.776
 2384SOL    HW2 8992  12.425  14.714   0.879
 2385SOL     OW 8993   3.260   6.814   7.445
 2385SOL    HW1 8994   3.272   6.756   7.370
 2385SOL    HW2 8995   3.337   6.870   7.444
 2386SOL     OW 8996   7.923   1.418   8.990
 2386SOL    HW1 8997   7.894   1.411   9.081
 2386SOL    HW2 8998   7.854   1.468   8.947
 2387SOL     OW 8999  13.391   0.695   4.489
 2387SOL    HW1 9000  13.352   0.613   4.520
 2387SOL    HW2 9001  13.417   0.741   4.569
 2388SOL     OW 9002  14.840  11.743   1.043
 2388SOL    HW1 9003   0.011  11.684   0.989
 2388SOL    HW2 9004  14.764  11.691   1.068
 2389SOL     OW 9005  12.365  11.084  11.611
 2389SOL    HW1 9006  12.356  11.154  11.546
 2389SOL    HW2 9007  12.426  11.022  11.570
 2390SOL     OW 9008   6.940   6.175   5.663
 2390SOL    HW1 9009   6.938   6.110   5.733
 2390SOL    HW2 9010   6.856   6.221   5.669
 2391SOL     OW 9011   1.154  11.008  14.355
 2391SOL    HW1 9012   1.119  11.096  14.348
 2391SOL    HW2 9013   1.107  10.957  14.289
 2392SOL     OW 9014  14.299   3.708   0.036
 2392SOL    HW1 9015  14.218   3.699   0.086
 2392SOL    HW2 9016  14.284   3.781  14.859
 2393SOL     OW 9017  12.347  10.701   0.158
 2393SOL    HW1 9018  12.358  10.630   0.095
 2393SOL    HW2 9019  12.322  10.777   0.106
 2394SOL     OW 9020  10.049  13.110  10.767
 2394SOL    HW1 9021  10.035  13.059  10.687
 2394SOL    HW2 9022  10.143  13.102  10.784
 2395SOL     OW 9023   4.207  13.257   5.781
 2395SOL    HW1 9024   4.141  13.276   5.848
 2395SOL    HW2 9025   4.175  13.176   5.740
 2396SOL     OW 9026   6.733   7.164   0.689
 2396SOL    HW1 9027   6.677   7.147   0.766
 2396SOL    HW2 9028   6.820   7.136   0.717
 2397SOL     OW 9029  14.120   3.811   8.424
 2397SOL    HW1 9030  14.044   3.864   8.449
 2397SOL    HW2 9031  14.090   3.761   8.348
 2398SOL     OW 9032   4.857   5.483   8.481
 2398SOL    HW1 9033   4.894   5.512   8.397
 2398SOL    HW2 9034   4.800   5.409   8.458
 2399SOL     OW 9035   3.523   6.727   8.636
 2399SOL    HW1 9036   3.547   6.646   8.591
 2399SOL    HW2 9037   3.599   6.784   8.626
 2400SOL     OW 9038   3.281  11.502   2.675
 2400SOL    HW1 9039   3.318  11.421   2.710
 2400SOL    HW2 9040   3.188  11.495   2.692
 2401SOL     OW 9041   1.060   3.121  11.345
 2401SOL    HW1 9042   1.050   3.072  11.264
 2401SOL    HW2 9043   0.978   3.105  11.392
 2402SOL     OW 9044   4.382   3.808  13.929
 2402SOL    HW1 9045   4.424   3.809  14.015
 2402SOL    HW2 9046   4.295   3.844  13.945
 2403SOL     OW 9047   7.211   6.165  10.395
 2403SOL    HW1 9048   7.157   6.087  10.409
 2403SOL    HW2 9049   7.290   6.149  10.447
 2404SOL     OW 9050  14.625  13.661   1.462
 2404SOL    HW1 9051  14.546  13.711   1.482
 2404SOL    HW2 9052  14.632  13.664   1.367
 2405SOL     OW 9053   5.552   2.960   7.174
 2405SOL    HW1 9054   5.526   2.869   7.190
 2405SOL    HW2 9055   5.602   2.984   7.253
 2406SOL     OW 9056  13.070  11.618   2.425
 2406SOL    HW1 9057  13.000  11.614   2.361
 2406SOL    HW2 9058  13.144  11.575   2.382
 2407SOL     OW 9059   2.471   8.088  14.582
 2407SOL    HW1 9060   2.553   8.122  14.545
 2407SOL    HW2 9061   2.499   8.030  14.653
 2408SOL     OW 9062  12.664  13.770   7.843
 2408SOL    HW1 9063  12.699  13.820   7.769
 2408SOL    HW2 9064  12.617  13.835   7.895
 2409SOL     OW 9065   6.111   1.091   0.744
 2409SOL    HW1 9066   6.123   1.025   0.812
 2409SOL    HW2 9067   6.081   1.169   0.791
 2410SOL     OW 9068   8.430   8.121   9.014
 2410SOL    HW1 9069   8.391   8.161   8.936
 2410SOL    HW2 9070   8.507   8.175   9.032
 2411SOL     OW 9071  12.547   8.974   0.542
 2411SOL    HW1 9072  12.625   9.000   0.591
 2411SOL    HW2 9073  12.475   9.018   0.587
 2412SOL     OW 9074   4.913  13.374   5.302
 2412SOL    HW1 9075   4.944  13.331   5.382
 2412SOL    HW2 9076   4.969  13.451   5.292
 2413SOL     OW 9077  12.485   9.901  12.012
 2413SOL    HW1 9078  12.431   9.828  11.982
 2413SOL    HW2 9079  12.452   9.977  11.964
 2414SOL     OW 9080  12.007   3.668   0.610
 2414SOL    HW1 9081  11.956   3.699   0.535
 2414SOL    HW2 9082  12.002   3.572   0.604
 2415SOL     OW 9083   2.303   9.250  12.017
 2415SOL    HW1 9084   2.322   9.183  11.951
 2415SOL    HW2 9085   2.388   9.292  12.034
 2416SOL     OW 9086   7.484   2.830   8.833
 2416SOL    HW1 9087   7.571   2.791   8.841
 2416SOL    HW2 9088   7.441   2.810   8.917
 2417SOL     OW 9089   4.485   5.321  11.680
 2417SOL    HW1 9090   4.475   5.347  11.772
 2417SOL    HW2 9091   4.395   5.304  11.650
 2418SOL     OW 9092   6.644   2.202  12.156
 2418SOL    HW1 9093   6.551   2.215  12.139
 2418SOL    HW2 9094   6.680   2.170  12.073
 2419SOL     OW 9095  10.142  14.326  10.974
 2419SOL    HW1 9096  10.090  14.363  10.903
 2419SOL    HW2 9097  10.125  14.383  11.049
 2420SOL     OW 9098  14.854   2.929   5.888
 2420SOL    HW1 9099   0.009   2.880   5.962
 2420SOL    HW2 9100  14.864   2.871   5.813
 2421SOL     OW 9101   6.485  12.899  10.679
 2421SOL    HW1 9102   6.470  12.994  10.669
 2421SOL    HW2 9103   6.439  12.861  10.604
 2422SOL     OW 9104  12.178  13.525   2.150
 2422SOL    HW1 9105  12.140  13.537   2.237
 2422SOL    HW2 9106  12.125  13.456   2.110
 2423SOL     OW 9107   8.775   3.401   0.625
 2423SOL    HW1 9108   8.731   3.340   0.685
 2423SOL    HW2 9109   8.868   3.388   0.642
 2424SOL     OW 9110  13.676   9.884  11.550
 2424SOL    HW1 9111  13.631   9.802  11.531
 2424SOL    HW2 9112  13.645   9.945  11.484
 2425SOL     OW 9113  10.485   9.843   3.794
 2425SOL    HW1 9114  10.545   9.777   3.758
 2425SOL    HW2 9115  10.542   9.915   3.821
 2426SOL     OW 9116  13.500  11.445   8.897
 2426SOL    HW1 9117  13.438  11.490   8.840
 2426SOL    HW2 9118  13.478  11.352   8.888
 2427SOL     OW 9119   0.805   0.476   9.683
 2427SOL    HW1 9120   0.729   0.519   9.721
 2427SOL    HW2 9121   0.875   0.490   9.746
 2428SOL     OW 9122   5.205   0.690   9.565
 2428SOL    HW1 9123   5.200   0.676   9.470
 2428SOL    HW2 9124   5.204   0.602   9.602
 2429SOL     OW 9125   0.323   1.206   9.481
 2429SOL    HW1 9126   0.418   1.208   9.487
 2429SOL    HW2 9127   0.294   1.285   9.527
 2430SOL     OW 9128   8.885   4.481  12.747
 2430SOL    HW1 9129   8.826   4.428  12.802
 2430SOL    HW2 9130   8.908   4.423  12.674
 2431SOL     OW 9131   3.608   6.548   2.346
 2431SOL    HW1 9132   3.602   6.644   2.347
 2431SOL    HW2 9133   3.608   6.523   2.438
 2432SOL     OW 9134  13.021   5.509  12.758
 2432SOL    HW1 9135  12.958   5.567  12.715
 2432SOL    HW2 9136  13.047   5.556  12.837
 2433SOL     OW 9137   4.185   8.232  13.988
 2433SOL    HW1 9138   4.218   8.186  13.910
 2433SOL    HW2 9139   4.090   8.218  13.985
 2434SOL     OW 9140   1.988   3.993   8.154
 2434SOL    HW1 9141   2.062   3.938   8.178
 2434SOL    HW2 9142   1.911   3.946   8.187
 2435SOL     OW 9143  10.654  13.240   3.589
 2435SOL    HW1 9144  10.684  13.331   3.589
 2435SOL    HW2 9145  10.587  13.236   3.657
 2436SOL     OW 9146   1.378  12.071  13.565
 2436SOL    HW1 9147   1.365  12.126  13.642
 2436SOL    HW2 9148   1.374  11.982  13.598
 2437SOL     OW 9149  13.063  13.978  13.483
 2437SOL    HW1 9150  13.026  14.025  13.408
 2437SOL    HW2 9151  12.987  13.954  13.536
 2438SOL     OW 9152   4.482   0.848   4.643
 2438SOL    HW1 9153   4.538   0.851   4.720
 2438SOL    HW2 9154   4.529   0.901   4.578
 2439SOL     OW 9155   9.146   9.995   1.460
 2439SOL    HW1 9156   9.205  10.021   1.532
 2439SOL    HW2 9157   9.188   9.919   1.421
 2440SOL     OW 9158   5.372   1.182   7.702
 2440SOL    HW1 9159   5.388   1.087   7.706
 2440SOL    HW2 9160   5.451   1.218   7.662
 2441SOL     OW 9161  12.391  14.426   1.472
 2441SOL    HW1 9162  12.401  14.514   1.509
 2441SOL    HW2 9163  12.381  14.441   1.378
 2442SOL     OW 9164  14.150  10.743   0.891
 2442SOL    HW1 9165  14.225  10.779   0.939
 2442SOL    HW2 9166  14.108  10.684   0.954
 2443SOL     OW 9167   1.958   8.586   7.448
 2443SOL    HW1 9168   1.885   8.564   7.390
 2443SOL    HW2 9169   1.924   8.654   7.506
 2444SOL     OW 9170   9.428   0.344   0.093
 2444SOL    HW1 9171   9.363   0.387   0.039
 2444SOL    HW2 9172   9.412   0.378   0.181
 2445SOL     OW 9173   2.052   0.399   2.638
 2445SOL    HW1 9174   2.010   0.318   2.667
 2445SOL    HW2 9175   2.140   0.395   2.676
 2446SOL     OW 9176   1.121   7.354   3.876
 2446SOL    HW1 9177   1.199   7.300   3.861
 2446SOL    HW2 9178   1.150   7.443   3.860
 2447SOL     OW 9179   8.622   9.055  14.635
 2447SOL    HW1 9180   8.620   9.082  14.543
 2447SOL    HW2 9181   8.532   9.028  14.654
 2448SOL     OW 9182  10.030   8.089   3.060
 2448SOL    HW1 9183  10.034   8.172   3.012
 2448SOL    HW2 9184  10.121   8.066   3.076
 2449SOL     OW 9185  14.632  12.074   7.557
 2449SOL    HW1 9186  14.728  12.075   7.550
 2449SOL    HW2 9187  14.615  12.023   7.636
 2450SOL     OW 9188  10.030   8.591   4.161
 2450SOL    HW1 9189  10.071   8.593   4.074
 2450SOL    HW2 9190  10.102   8.571   4.220
 2451SOL     OW 9191   8.571   1.749  10.541
 2451SOL    HW1 9192   8.642   1.809  10.565
 2451SOL    HW2 9193   8.491   1.801  10.553
 2452SOL     OW 9194  11.984   5.658   2.779
 2452SOL    HW1 9195  11.921   5.687   2.845
 2452SOL    HW2 9196  12.023   5.579   2.817
 2453SOL     OW 9197   5.366  11.268  14.114
 2453SOL    HW1 9198   5.430  11.270  14.043
 2453SOL    HW2 9199   5.289  11.311  14.078
 2454SOL     OW 9200   9.817   0.875  12.914
 2454SOL    HW1 9201   9.739   0.822  12.933
 2454SOL    HW2 9202   9.789   0.965  12.931
 2455SOL     OW 9203   5.509  12.624  11.335
 2455SOL    HW1 9204   5.522  12.585  11.421
 2455SOL    HW2 9205   5.554  12.708  11.339
 2456SOL     OW 9206   6.120   4.369  13.156
 2456SOL    HW1 9207   6.062   4.368  13.232
 2456SOL    HW2 9208   6.208   4.365  13.194
 2457SOL     OW 9209   8.800  14.363   5.137
 2457SOL    HW1 9210   8.734  14.381   5.070
 2457SOL    HW2 9211   8.842  14.447   5.153
 2458SOL     OW 9212   4.794   2.580  10.038
 2458SOL    HW1 9213   4.852   2.530   9.981
 2458SOL    HW2 9214   4.803   2.671  10.009
 2459SOL     OW 9215   0.585   4.662   9.413
 2459SOL    HW1 9216   0.558   4.702   9.330
 2459SOL    HW2 9217   0.678   4.686   9.421
 2460SOL     OW 9218   5.289   2.643  12.528
 2460SOL    HW1 9219   5.339   2.716  12.492
 2460SOL    HW2 9220   5.338   2.565  12.504
 2461SOL     OW 9221  11.611  14.721   6.536
 2461SOL    HW1 9222  11.682  14.745   6.595
 2461SOL    HW2 9223  11.582  14.635   6.567
 2462SOL     OW 9224  12.586   1.602   4.324
 2462SOL    HW1 9225  12.667   1.553   4.309
 2462SOL    HW2 9226  12.605   1.690   4.293
 2463SOL     OW 9227   5.790   1.747   5.838
 2463SOL    HW1 9228   5.839   1.827   5.858
 2463SOL    HW2 9229   5.765   1.712   5.924
 2464SOL     OW 9230   2.455   6.854   4.639
 2464SOL    HW1 9231   2.487   6.795   4.707
 2464SOL    HW2 9232   2.404   6.798   4.580
 2465SOL     OW 9233   6.265  10.332   0.246
 2465SOL    HW1 9234   6.192  10.319   0.306
 2465SOL    HW2 9235   6.327  10.386   0.295
 2466SOL     OW 9236  14.183   8.032   6.085
 2466SOL    HW1 9237  14.121   8.011   6.015
 2466SOL    HW2 9238  14.225   8.113   6.056
 2467SOL     OW 9239   7.452   3.553  13.314
 2467SOL    HW1 9240   7.443   3.490  13.386
 2467SOL    HW2 9241   7.432   3.502  13.236
 2468SOL     OW 9242   2.369   0.151   5.775
 2468SOL    HW1 9243   2.423   0.176   5.700
 2468SOL    HW2 9244   2.419   0.178   5.852
 2469SOL     OW 9245   2.833  13.426   3.362
 2469SOL    HW1 9246   2.793  13.473   3.435
 2469SOL    HW2 9247   2.908  13.382   3.400
 2470SOL     OW 9248   1.994   3.433  14.630
 2470SOL    HW1 9249   1.953   3.457  14.713
 2470SOL    HW2 9250   1.982   3.510  14.574
 2471SOL     OW 9251   2.859  11.538  11.280
 2471SOL    HW1 9252   2.936  11.492  11.313
 2471SOL    HW2 9253   2.881  11.559  11.189
 2472SOL     OW 9254   0.656   4.897   1.955
 2472SOL    HW1 9255   0.640   4.991   1.953
 2472SOL    HW2 9256   0.741   4.887   1.997
 2473SOL     OW 9257   5.869   0.928   0.477
 2473SOL    HW1 9258   5.855   0.946   0.384
 2473SOL    HW2 9259   5.800   0.865   0.500
 2474SOL     OW 9260  10.971   7.272   1.975
 2474SOL    HW1 9261  11.042   7.330   1.946
 2474SOL    HW2 9262  10.917   7.260   1.897
 2475SOL     OW 9263  11.042   4.321   2.794
 2475SOL    HW1 9264  10.973   4.365   2.843
 2475SOL    HW2 9265  11.119   4.326   2.851
 2476SOL     OW 9266   0.935   1.513   5.601
 2476SOL    HW1 9267   0.948   1.420   5.585
 2476SOL    HW2 9268   1.018   1.553   5.576
 2477SOL     OW 9269   2.928  12.539   9.344
 2477SOL    HW1 9270   2.952  12.632   9.338
 2477SOL    HW2 9271   2.862  12.536   9.413
 2478SOL     OW 9272   2.954   6.327   9.633
 2478SOL    HW1 9273   2.939   6.245   9.679
 2478SOL    HW2 9274   2.993   6.301   9.550
 2479SOL     OW 9275   6.467   6.028   9.275
 2479SOL    HW1 9276   6.532   6.053   9.341
 2479SOL    HW2 9277   6.476   6.095   9.206
 2480SOL     OW 9278   7.232  13.548   4.417
 2480SOL    HW1 9279   7.318  13.510   4.398
 2480SOL    HW2 9280   7.172  13.474   4.417
 2481SOL     OW 9281  11.839  11.728   8.173
 2481SOL    HW1 9282  11.831  11.634   8.185
 2481SOL    HW2 9283  11.926  11.750   8.206
 2482SOL     OW 9284  14.604   1.207   5.621
 2482SOL    HW1 9285  14.573   1.288   5.662
 2482SOL    HW2 9286  14.687   1.230   5.580
 2483SOL     OW 9287  14.414  14.230   1.038
 2483SOL    HW1 9288  14.464  14.253   1.116
 2483SOL    HW2 9289  14.413  14.134   1.038
 2484SOL     OW 9290  11.217  13.674   6.052
 2484SOL    HW1 9291  11.229  13.599   5.994
 2484SOL    HW2 9292  11.153  13.730   6.007
 2485SOL     OW 9293   4.811   8.625  11.794
 2485SOL    HW1 9294   4.834   8.650  11.705
 2485SOL    HW2 9295   4.861   8.684  11.850
 2486SOL     OW 9296   7.639   0.201   2.381
 2486SOL    HW1 9297   7.655   0.137   2.312
 2486SOL    HW2 9298   7.553   0.238   2.360
 2487SOL     OW 9299   3.500  11.187  11.404
 2487SOL    HW1 9300   3.524  11.224  11.489
 2487SOL    HW2 9301   3.438  11.118  11.424
 2488SOL     OW 9302   0.561   8.746   5.695
 2488SOL    HW1 9303   0.624   8.676   5.675
 2488SOL    HW2 9304   0.586   8.818   5.636
 2489SOL     OW 9305   3.689  10.292   8.700
 2489SOL    HW1 9306   3.767  10.271   8.751
 2489SOL    HW2 9307   3.654  10.372   8.740
 2490SOL     OW 9308   8.951   9.946   7.508
 2490SOL    HW1 9309   9.037   9.950   7.467
 2490SOL    HW2 9310   8.906   9.875   7.462
 2491SOL     OW 9311  12.363  10.582   8.634
 2491SOL    HW1 9312  12.278  10.562   8.673
 2491SOL    HW2 9313  12.357  10.546   8.545
 2492SOL     OW 9314  11.960   9.279   9.052
 2492SOL    HW1 9315  11.895   9.209   9.058
 2492SOL    HW2 9316  11.954   9.325   9.136
 2493SOL     OW 9317  12.834   9.000  11.174
 2493SOL    HW1 9318  12.897   9.011  11.103
 2493SOL    HW2 9319  12.749   8.996  11.130
 2494SOL     OW 9320   4.783  10.291   7.697
 2494SOL    HW1 9321   4.811  10.239   7.772
 2494SOL    HW2 9322   4.730  10.231   7.644
 2495SOL     OW 9323   4.867  14.549   9.942
 2495SOL    HW1 9324   4.809  14.483   9.904
 2495SOL    HW2 9325   4.823  14.575  10.023
 2496SOL     OW 9326   0.032  13.869   4.358
 2496SOL    HW1 9327   0.028  13.804   4.428
 2496SOL    HW2 9328   0.025  13.817   4.278
 2497SOL     OW 9329   4.530  12.752   0.432
 2497SOL    HW1 9330   4.619  12.762   0.466
 2497SOL    HW2 9331   4.517  12.828   0.375
 2498SOL     OW 9332   3.319  11.859  11.468
 2498SOL    HW1 9333   3.305  11.912  11.389
 2498SOL    HW2 9334   3.249  11.794  11.465
 2499SOL     OW 9335  14.038  14.820   7.524
 2499SOL    HW1 9336  14.022  14.726   7.537
 2499SOL    HW2 9337  13.966  14.863   7.570
 2500SOL     OW 9338  12.847  10.436   3.154
 2500SOL    HW1 9339  12.768  10.449   3.102
 2500SOL    HW2 9340  12.834  10.351   3.197
 2501SOL     OW 9341   0.029   4.972  12.310
 2501SOL    HW1 9342   0.118   5.007  12.307
 2501SOL    HW2 9343   0.041   4.877  12.319
 2502SOL     OW 9344   0.076   2.155  12.606
 2502SOL    HW1 9345   0.082   2.091  12.678
 2502SOL    HW2 9346   0.136   2.122  12.540
 2503SOL     OW 9347  14.315  12.544   3.037
 2503SOL    HW1 9348  14.314  12.627   2.991
 2503SOL    HW2 9349  14.237  12.498   3.007
 2504SOL     OW 9350  11.913  14.643  13.489
 2504SOL    HW1 9351  11.836  14.601  13.449
 2504SOL    HW2 9352  11.985  14.582  13.471
 2505SOL     OW 9353   3.846  12.866   0.366
 2505SOL    HW1 9354   3.845  12.857   0.461
 2505SOL    HW2 9355   3.928  12.826   0.339
 2506SOL     OW 9356  10.516   7.647   9.152
 2506SOL    HW1 9357  10.424   7.624   9.141
 2506SOL    HW2 9358  10.546   7.667   9.063
 2507SOL     OW 9359   8.307  11.802   0.829
 2507SOL    HW1 9360   8.302  11.764   0.741
 2507SOL    HW2 9361   8.250  11.879   0.825
 2508SOL     OW 9362  10.463   9.602   2.519
 2508SOL    HW1 9363  10.442   9.683   2.565
 2508SOL    HW2 9364  10.542   9.570   2.562
 2509SOL     OW 9365   9.106   4.412   5.982
 2509SOL    HW1 9366   9.049   4.422   6.058
 2509SOL    HW2 9367   9.166   4.487   5.987
 2510SOL     OW 9368  11.832   9.772   9.693
 2510SOL    HW1 9369  11.829   9.684   9.729
 2510SOL    HW2 9370  11.907   9.771   9.633
 2511SOL     OW 9371   6.486   3.222  14.281
 2511SOL    HW1 9372   6.419   3.239  14.215
 2511SOL    HW2 9373   6.449   3.155  14.338
 2512SOL     OW 9374   8.818   8.594  10.794
 2512SOL    HW1 9375   8.840   8.513  10.839
 2512SOL    HW2 9376   8.725   8.608  10.814
 2513SOL     OW 9377   4.591   3.026  10.792
 2513SOL    HW1 9378   4.610   2.932  10.788
 2513SOL    HW2 9379   4.661   3.068  10.742
 2514SOL     OW 9380   3.323  13.574  13.031
 2514SOL    HW1 9381   3.407  13.605  13.066
 2514SOL    HW2 9382   3.347  13.508  12.966
 2515SOL     OW 9383  13.848   6.420  12.553
 2515SOL    HW1 9384  13.921   6.416  12.614
 2515SOL    HW2 9385  13.858   6.504  12.508
 2516SOL     OW 9386  10.607   5.308   3.132
 2516SOL    HW1 9387  10.527   5.352   3.105
 2516SOL    HW2 9388  10.648   5.368   3.195
 2517SOL     OW 9389   6.967   9.096  10.850
 2517SOL    HW1 9390   6.989   9.166  10.912
 2517SOL    HW2 9391   6.971   9.139  10.764
 2518SOL     OW 9392   0.575   9.472   2.222
 2518SOL    HW1 9393   0.560   9.444   2.312
 2518SOL    HW2 9394   0.514   9.545   2.209
 2519SOL     OW 9395   3.507   0.514  12.810
 2519SOL    HW1 9396   3.464   0.573  12.872
 2519SOL    HW2 9397   3.447   0.439  12.802
 2520SOL     OW 9398   9.103   5.415   8.295
 2520SOL    HW1 9399   9.179   5.446   8.345
 2520SOL    HW2 9400   9.077   5.490   8.242
 2521SOL     OW 9401  12.454   0.490  12.095
 2521SOL    HW1 9402  12.438   0.583  12.108
 2521SOL    HW2 9403  12.539   0.486  12.052
 2522SOL     OW 9404   9.798   4.979   5.583
 2522SOL    HW1 9405   9.824   4.967   5.491
 2522SOL    HW2 9406   9.787   4.890   5.616
 2523SOL     OW 9407   1.066   9.988  12.807
 2523SOL    HW1 9408   1.161  10.001  12.806
 2523SOL    HW2 9409   1.031  10.068  12.847
 2524SOL     OW 9410  11.370  14.803   4.178
 2524SOL    HW1 9411  11.367  14.853   4.259
 2524SOL    HW2 9412  11.296  14.836   4.126
 2525SOL     OW 9413   2.552   3.721  12.015
 2525SOL    HW1 9414   2.579   3.812  12.026
 2525SOL    HW2 9415   2.602   3.673  12.081
 2526SOL     OW 9416  13.596   2.996   1.403
 2526SOL    HW1 9417  13.617   2.933   1.334
 2526SOL    HW2 9418  13.567   3.074   1.356
 2527SOL     OW 9419   7.784  12.052  11.074
 2527SOL    HW1 9420   7.735  11.982  11.118
 2527SOL    HW2 9421   7.734  12.069  10.994
 2528SOL     OW 9422   9.369   8.289  11.821
 2528SOL    HW1 9423   9.429   8.281  11.895
 2528SOL    HW2 9424   9.384   8.210  11.769
 2529SOL     OW 9425   2.470  12.214   7.516
 2529SOL    HW1 9426   2.377  12.234   7.512
 2529SOL    HW2 9427   2.473  12.122   7.544
 2530SOL     OW 9428  10.323  13.776   0.939
 2530SOL    HW1 9429  10.246  13.766   0.995
 2530SOL    HW2 9430  10.380  13.702   0.962
 2531SOL     OW 9431  14.578  13.625   5.354
 2531SOL    HW1 9432  14.521  13.696   5.386
 2531SOL    HW2 9433  14.612  13.585   5.433
 2532SOL     OW 9434  12.510   8.965   6.346
 2532SOL    HW1 9435  12.470   8.956   6.260
 2532SOL    HW2 9436  12.458   9.033   6.389
 2533SOL     OW 9437   4.007   1.882   5.490
 2533SOL    HW1 9438   4.044   1.970   5.483
 2533SOL    HW2 9439   4.080   1.824   5.470
 2534SOL     OW 9440   1.906   5.875  13.348
 2534SOL    HW1 9441   1.966   5.876  13.274
 2534SOL    HW2 9442   1.940   5.943  13.407
 2535SOL     OW 9443  14.406  10.490  10.371
 2535SOL    HW1 9444  14.494  10.473  10.404
 2535SOL    HW2 9445  14.351  10.491  10.449
 2536SOL     OW 9446   5.330   7.059   4.615
 2536SOL    HW1 9447   5.364   6.970   4.627
 2536SOL    HW2 9448   5.325   7.096   4.703
 2537SOL     OW 9449   1.737   2.117   6.849
 2537SOL    HW1 9450   1.716   2.124   6.942
 2537SOL    HW2 9451   1.680   2.047   6.817
 2538SOL     OW 9452   4.858   6.886   7.013
 2538SOL    HW1 9453   4.940   6.846   6.985
 2538SOL    HW2 9454   4.880   6.931   7.094
 2539SOL     OW 9455  13.197   3.882  12.792
 2539SOL    HW1 9456  13.239   3.803  12.825
 2539SOL    HW2 9457  13.129   3.902  12.856
 2540SOL     OW 9458   5.636  10.073   9.443
 2540SOL    HW1 9459   5.647  10.125   9.522
 2540SOL    HW2 9460   5.666   9.986   9.467
 2541SOL     OW 9461  13.741  11.900   1.780
 2541SOL    HW1 9462  13.688  11.965   1.826
 2541SOL    HW2 9463  13.775  11.946   1.704
 2542SOL     OW 9464   4.196   4.171   7.869
 2542SOL    HW1 9465   4.248   4.091   7.881
 2542SOL    HW2 9466   4.232   4.211   7.790
 2543SOL     OW 9467  11.232   8.847  12.326
 2543SOL    HW1 9468  11.214   8.843  12.420
 2543SOL    HW2 9469  11.172   8.782  12.287
 2544SOL     OW 9470  12.533   7.024   9.844
 2544SOL    HW1 9471  12.557   7.077   9.920
 2544SOL    HW2 9472  12.450   7.062   9.814
 2545SOL     OW 9473   2.257   5.637  14.670
 2545SOL    HW1 9474   2.183   5.680  14.712
 2545SOL    HW2 9475   2.284   5.697  14.601
 2546SOL     OW 9476   2.309   5.285   1.829
 2546SOL    HW1 9477   2.324   5.376   1.803
 2546SOL    HW2 9478   2.275   5.242   1.750
 2547SOL     OW 9479  13.877   8.403  14.783
 2547SOL    HW1 9480  13.938   8.440  14.719
 2547SOL    HW2 9481  13.860   8.475  14.843
 2548SOL     OW 9482  10.459  12.372   2.932
 2548SOL    HW1 9483  10.420  12.357   2.846
 2548SOL    HW2 9484  10.423  12.456   2.960
 2549SOL     OW 9485   2.866   5.192   4.437
 2549SOL    HW1 9486   2.776   5.220   4.452
 2549SOL    HW2 9487   2.865   5.097   4.452
 2550SOL     OW 9488  14.781   3.436   7.640
 2550SOL    HW1 9489  14.794   3.415   7.732
 2550SOL    HW2 9490  14.845   3.383   7.593
 2551SOL     OW 9491   4.621   9.273   0.445
 2551SOL    HW1 9492   4.659   9.210   0.506
 2551SOL    HW2 9493   4.642   9.239   0.358
 2552SOL     OW 9494  12.707   7.532   1.754
 2552SOL    HW1 9495  12.735   7.452   1.800
 2552SOL    HW2 9496  12.695   7.596   1.824
 2553SOL     OW 9497   6.445   6.787   8.856
 2553SOL    HW1 9498   6.376   6.721   8.851
 2553SOL    HW2 9499   6.500   6.771   8.779
 2554SOL     OW 9500  14.816   7.228   4.049
 2554SOL    HW1 9501  14.843   7.270   4.130
 2554SOL    HW2 9502  14.809   7.299   3.986
 2555SOL     OW 9503   5.787   3.538   3.095
 2555SOL    HW1 9504   5.738   3.560   3.174
 2555SOL    HW2 9505   5.871   3.507   3.127
 2556SOL     OW 9506  12.962  14.203   4.440
 2556SOL    HW1 9507  13.037  14.229   4.494
 2556SOL    HW2 9508  13.001  14.171   4.359
 2557SOL     OW 9509   1.473  12.336  10.596
 2557SOL    HW1 9510   1.426  12.419  10.587
 2557SOL    HW2 9511   1.563  12.358  10.574
 2558SOL     OW 9512   8.289   5.260   0.042
 2558SOL    HW1 9513   8.352   5.194   0.014
 2558SOL    HW2 9514   8.319   5.340  14.881
 2559SOL     OW 9515  13.668  11.962   4.237
 2559SOL    HW1 9516  13.735  12.022   4.203
 2559SOL    HW2 9517  13.654  11.899   4.167
 2560SOL     OW 9518   3.172   7.685   1.666
 2560SOL    HW1 9519   3.090   7.718   1.629
 2560SOL    HW2 9520   3.188   7.603   1.620
 2561SOL     OW 9521   8.035   6.226   4.601
 2561SOL    HW1 9522   8.115   6.278   4.603
 2561SOL    HW2 9523   7.981   6.262   4.671
 2562SOL     OW 9524   3.488   9.812  10.972
 2562SOL    HW1 9525   3.504   9.762  11.052
 2562SOL    HW2 9526   3.528   9.897  10.989
 2563SOL     OW 9527   5.724   5.158  13.797
 2563SOL    HW1 9528   5.741   5.222  13.728
 2563SOL    HW2 9529   5.629   5.146  13.797
 2564SOL     OW 9530  13.135  13.499   7.660
 2564SOL    HW1 9531  13.089  13.583   7.660
 2564SOL    HW2 9532  13.221  13.519   7.698
 2565SOL     OW 9533  14.869   9.675   5.349
 2565SOL    HW1 9534  14.792   9.686   5.404
 2565SOL    HW2 9535  14.880   9.580   5.341
 2566SOL     OW 9536   6.831   3.056   6.765
 2566SOL    HW1 9537   6.845   3.089   6.676
 2566SOL    HW2 9538   6.826   2.961   6.755
 2567SOL     OW 9539  12.606   7.730   5.100
 2567SOL    HW1 9540  12.537   7.727   5.166
 2567SOL    HW2 9541  12.672   7.668   5.131
 2568SOL     OW 9542   8.953   1.537   1.141
 2568SOL    HW1 9543   8.873   1.562   1.094
 2568SOL    HW2 9544   9.009   1.614   1.133
 2569SOL     OW 9545   5.053   0.830   9.754
 2569SOL    HW1 9546   5.109   0.780   9.695
 2569SOL    HW2 9547   5.092   0.917   9.756
 2570SOL     OW 9548   8.391   0.975   7.363
 2570SOL    HW1 9549   8.309   1.017   7.389
 2570SOL    HW2 9550   8.451   0.993   7.435
 2571SOL     OW 9551   0.544   9.217   9.144
 2571SOL    HW1 9552   0.467   9.245   9.195
 2571SOL    HW2 9553   0.605   9.291   9.151
 2572SOL     OW 9554  14.785  10.972  13.023
 2572SOL    HW1 9555  14.769  10.904  12.959
 2572SOL    HW2 9556  14.873  10.953  13.057
 2573SOL     OW 9557   8.903   5.763   8.793
 2573SOL    HW1 9558   8.825   5.818   8.798
 2573SOL    HW2 9559   8.868   5.673   8.788
 2574SOL     OW 9560  13.080   0.839   1.149
 2574SOL    HW1 9561  13.037   0.910   1.198
 2574SOL    HW2 9562  13.159   0.880   1.113
 2575SOL     OW 9563   9.174   6.048   8.528
 2575SOL    HW1 9564   9.166   5.960   8.566
 2575SOL    HW2 9565   9.215   6.034   8.443
 2576SOL     OW 9566  11.890   4.675   5.596
 2576SOL    HW1 9567  11.870   4.768   5.597
 2576SOL    HW2 9568  11.954   4.665   5.526
 2577SOL     OW 9569   6.696  14.531   7.455
 2577SOL    HW1 9570   6.730  14.442   7.449
 2577SOL    HW2 9571   6.722  14.573   7.373
 2578SOL     OW 9572   4.925  11.380  12.777
 2578SOL    HW1 9573   4.912  11.313  12.710
 2578SOL    HW2 9574   4.842  11.428  12.778
 2579SOL     OW 9575   3.819  13.580   3.039
 2579SOL    HW1 9576   3.835  13.496   2.997
 2579SOL    HW2 9577   3.855  13.645   2.979
 2580SOL     OW 9578   2.392   5.344  13.152
 2580SOL    HW1 9579   2.464   5.349  13.215
 2580SOL    HW2 9580   2.343   5.266  13.178
 2581SOL     OW 9581   7.153  10.635   0.987
 2581SOL    HW1 9582   7.178  10.727   0.988
 2581SOL    HW2 9583   7.130  10.617   0.896
 2582SOL     OW 9584   9.439   1.373   3.552
 2582SOL    HW1 9585   9.534   1.377   3.539
 2582SOL    HW2 9586   9.418   1.280   3.550
 2583SOL     OW 9587   8.392  10.888  11.669
 2583SOL    HW1 9588   8.434  10.974  11.669
 2583SOL    HW2 9589   8.461  10.827  11.694
 2584SOL     OW 9590  10.188   4.782   0.845
 2584SOL    HW1 9591  10.274   4.823   0.837
 2584SOL    HW2 9592  10.127   4.845   0.807
 2585SOL     OW 9593   6.248   7.229   8.599
 2585SOL    HW1 9594   6.320   7.175   8.565
 2585SOL    HW2 9595   6.172   7.202   8.546
 2586SOL     OW 9596   4.974   6.576   2.670
 2586SOL    HW1 9597   5.030   6.524   2.611
 2586SOL    HW2 9598   4.885   6.545   2.652
 2587SOL     OW 9599  11.252   9.071  10.708
 2587SOL    HW1 9600  11.188   9.111  10.768
 2587SOL    HW2 9601  11.262   9.136  10.638
 2588SOL     OW 9602   2.537   0.433  12.562
 2588SOL    HW1 9603   2.443   0.418  12.555
 2588SOL    HW2 9604   2.576   0.346  12.569
 2589SOL     OW 9605   7.508   6.221   9.057
 2589SOL    HW1 9606   7.513   6.127   9.039
 2589SOL    HW2 9607   7.555   6.232   9.140
 2590SOL     OW 9608   2.870   2.735   7.267
 2590SOL    HW1 9609   2.910   2.650   7.285
 2590SOL    HW2 9610   2.804   2.745   7.336
 2591SOL     OW 9611  13.788   5.437   0.403
 2591SOL    HW1 9612  13.741   5.430   0.320
 2591SOL    HW2 9613  13.720   5.451   0.469
 2592SOL     OW 9614   7.417   3.968  11.284
 2592SOL    HW1 9615   7.442   4.003  11.199
 2592SOL    HW2 9616   7.367   4.038  11.326
 2593SOL     OW 9617   6.113   9.869   0.931
 2593SOL    HW1 9618   6.023   9.901   0.926
 2593SOL    HW2 9619   6.121   9.811   0.855
 2594SOL     OW 9620   4.295   5.259   4.292
 2594SOL    HW1 9621   4.299   5.342   4.340
 2594SOL    HW2 9622   4.236   5.204   4.344
 2595SOL     OW 9623   9.776   5.614  12.406
 2595SOL    HW1 9624   9.733   5.540  12.449
 2595SOL    HW2 9625   9.704   5.675  12.388
 2596SOL     OW 9626   0.009  10.084   2.519
 2596SOL    HW1 9627   0.047  10.132   2.592
 2596SOL    HW2 9628  14.877   9.995   2.553
 2597SOL     OW 9629  11.329   5.276   8.376
 2597SOL    HW1 9630  11.283   5.228   8.444
 2597SOL    HW2 9631  11.273   5.268   8.299
 2598SOL     OW 9632   1.674  10.778   2.825
 2598SOL    HW1 9633   1.712  10.779   2.737
 2598SOL    HW2 9634   1.711  10.699   2.866
 2599SOL     OW 9635  11.333  13.165   3.236
 2599SOL    HW1 9636  11.427  13.167   3.251
 2599SOL    HW2 9637  11.313  13.249   3.195
 2600SOL     OW 9638  11.578   9.481  10.137
 2600SOL    HW1 9639  11.546   9.495  10.047
 2600SOL    HW2 9640  11.512   9.523  10.192
 2601SOL     OW 9641  13.599   4.253   1.790
 2601SOL    HW1 9642  13.504   4.248   1.791
 2601SOL    HW2 9643  13.623   4.253   1.698
 2602SOL     OW 9644   7.808   0.603  10.999
 2602SOL    HW1 9645   7.814   0.512  10.970
 2602SOL    HW2 9646   7.734   0.603  11.061
 2603SOL     OW 9647  10.183  12.078   3.839
 2603SOL    HW1 9648  10.119  12.080   3.911
 2603SOL    HW2 9649  10.142  12.130   3.770
 2604SOL     OW 9650  13.021  14.121   2.043
 2604SOL    HW1 9651  13.008  14.167   2.126
 2604SOL    HW2 9652  12.967  14.043   2.050
 2605SOL     OW 9653   5.009   2.451  13.570
 2605SOL    HW1 9654   5.022   2.371  13.518
 2605SOL    HW2 9655   5.027   2.424  13.660
 2606SOL     OW 9656   4.443   5.747   9.485
 2606SOL    HW1 9657   4.467   5.730   9.576
 2606SOL    HW2 9658   4.397   5.831   9.489
 2607SOL     OW 9659  12.569  11.723   5.387
 2607SOL    HW1 9660  12.475  11.737   5.401
 2607SOL    HW2 9661  12.594  11.658   5.452
 2608SOL     OW 9662   2.371  10.753   9.923
 2608SOL    HW1 9663   2.418  10.680   9.961
 2608SOL    HW2 9664   2.341  10.804   9.999
 2609SOL     OW 9665   5.116   6.085   0.451
 2609SOL    HW1 9666   5.181   6.023   0.417
 2609SOL    HW2 9667   5.125   6.079   0.547
 2610SOL     OW 9668   5.936   6.280  12.384
 2610SOL    HW1 9669   6.000   6.221  12.422
 2610SOL    HW2 9670   5.865   6.284  12.448
 2611SOL     OW 9671  12.387  14.247   9.895
 2611SOL    HW1 9672  12.374  14.224   9.803
 2611SOL    HW2 9673  12.479  14.273   9.900
 2612SOL     OW 9674   3.207  13.715   8.036
 2612SOL    HW1 9675   3.127  13.704   8.089
 2612SOL    HW2 9676   3.216  13.810   8.027
 2613SOL     OW 9677  11.399  10.557  12.565
 2613SOL    HW1 9678  11.327  10.501  12.594
 2613SOL    HW2 9679  11.366  10.647  12.576
 2614SOL     OW 9680  12.683   1.945  10.842
 2614SOL    HW1 9681  12.638   1.995  10.774
 2614SOL    HW2 9682  12.697   1.858  10.803
 2615SOL     OW 9683   6.107   1.281   1.415
 2615SOL    HW1 9684   6.052   1.359   1.425
 2615SOL    HW2 9685   6.107   1.240   1.502
 2616SOL     OW 9686  11.518   7.624   2.793
 2616SOL    HW1 9687  11.473   7.562   2.851
 2616SOL    HW2 9688  11.454   7.694   2.780
 2617SOL     OW 9689   5.767  12.423  13.302
 2617SOL    HW1 9690   5.845  12.435  13.247
 2617SOL    HW2 9691   5.703  12.485  13.266
 2618SOL     OW 9692   9.227  12.106   0.570
 2618SOL    HW1 9693   9.198  12.018   0.547
 2618SOL    HW2 9694   9.317  12.095   0.599
 2619SOL     OW 9695   9.120   8.111   4.457
 2619SOL    HW1 9696   9.163   8.065   4.529
 2619SOL    HW2 9697   9.044   8.057   4.437
 2620SOL     OW 9698   9.594   6.145   9.785
 2620SOL    HW1 9699   9.609   6.233   9.752
 2620SOL    HW2 9700   9.572   6.093   9.708
 2621SOL     OW 9701   9.656  13.765  11.345
 2621SOL    HW1 9702   9.637  13.800  11.257
 2621SOL    HW2 9703   9.618  13.678  11.344
 2622SOL     OW 9704   9.107  10.529   6.108
 2622SOL    HW1 9705   9.020  10.501   6.135
 2622SOL    HW2 9706   9.142  10.575   6.185
 2623SOL     OW 9707  12.685   4.901   1.073
 2623SOL    HW1 9708  12.762   4.958   1.075
 2623SOL    HW2 9709  12.685   4.855   1.157
 2624SOL     OW 9710   3.096  11.703   7.551
 2624SOL    HW1 9711   3.009  11.721   7.586
 2624SOL    HW2 9712   3.113  11.776   7.491
 2625SOL     OW 9713  11.666   5.172   8.039
 2625SOL    HW1 9714  11.605   5.148   8.109
 2625SOL    HW2 9715  11.751   5.144   8.072
 2626SOL     OW 9716  13.399   0.491   7.228
 2626SOL    HW1 9717  13.493   0.476   7.236
 2626SOL    HW2 9718  13.369   0.502   7.318
 2627SOL     OW 9719   6.686   4.813   7.969
 2627SOL    HW1 9720   6.598   4.781   7.947
 2627SOL    HW2 9721   6.712   4.865   7.893
 2628SOL     OW 9722   3.359   7.873   3.178
 2628SOL    HW1 9723   3.302   7.827   3.117
 2628SOL    HW2 9724   3.447   7.862   3.141
 2629SOL     OW 9725   9.911   9.332   2.963
 2629SOL    HW1 9726   9.949   9.357   3.047
 2629SOL    HW2 9727   9.974   9.270   2.926
 2630SOL     OW 9728   7.429   1.130   9.074
 2630SOL    HW1 9729   7.500   1.126   9.137
 2630SOL    HW2 9730   7.452   1.204   9.017
 2631SOL     OW 9731   0.928  10.113  13.911
 2631SOL    HW1 9732   0.984  10.042  13.945
 2631SOL    HW2 9733   0.966  10.193  13.948
 2632SOL     OW 9734   5.731  11.590  14.779
 2632SOL    HW1 9735   5.653  11.536  14.789
 2632SOL    HW2 9736   5.795  11.553  14.839
 2633SOL     OW 9737   7.554  13.071   9.305
 2633SOL    HW1 9738   7.465  13.106   9.296
 2633SOL    HW2 9739   7.562  13.009   9.232
 2634SOL     OW 9740   1.959   4.927   8.418
 2634SOL    HW1 9741   1.942   4.834   8.436
 2634SOL    HW2 9742   1.888   4.954   8.360
 2635SOL     OW 9743   4.549   4.366   1.250
 2635SOL    HW1 9744   4.618   4.432   1.261
 2635SOL    HW2 9745   4.481   4.393   1.312
 2636SOL     OW 9746   5.957   7.712  10.235
 2636SOL    HW1 9747   6.008   7.641  10.198
 2636SOL    HW2 9748   6.018   7.761  10.290
 2637SOL     OW 9749   2.219  14.222   7.881
 2637SOL    HW1 9750   2.148  14.251   7.824
 2637SOL    HW2 9751   2.217  14.127   7.875
 2638SOL     OW 9752  11.703  11.532   4.309
 2638SOL    HW1 9753  11.625  11.587   4.296
 2638SOL    HW2 9754  11.672  11.459   4.362
 2639SOL     OW 9755  10.205  10.605   9.735
 2639SOL    HW1 9756  10.138  10.537   9.745
 2639SOL    HW2 9757  10.273  10.581   9.798
 2640SOL     OW 9758   0.630   4.084   2.626
 2640SOL    HW1 9759   0.666   4.170   2.603
 2640SOL    HW2 9760   0.640   4.031   2.547
 2641SOL     OW 9761  10.086   3.815  13.669
 2641SOL    HW1 9762  10.143   3.739  13.660
 2641SOL    HW2 9763  10.007   3.791  13.621
 2642SOL     OW 9764   6.618  14.408  11.834
 2642SOL    HW1 9765   6.610  14.325  11.786
 2642SOL    HW2 9766   6.680  14.389  11.904
 2643SOL     OW 9767  14.384  14.192   7.403
 2643SOL    HW1 9768  14.387  14.258   7.473
 2643SOL    HW2 9769  14.447  14.125   7.431
 2644SOL     OW 9770   8.375   6.007   6.714
 2644SOL    HW1 9771   8.413   5.920   6.705
 2644SOL    HW2 9772   8.418   6.059   6.646
 2645SOL     OW 9773  11.683   7.790   1.059
 2645SOL    HW1 9774  11.620   7.722   1.037
 2645SOL    HW2 9775  11.712   7.768   1.148
 2646SOL     OW 9776   3.142   4.055   7.829
 2646SOL    HW1 9777   3.165   3.962   7.831
 2646SOL    HW2 9778   3.165   4.087   7.917
 2647SOL     OW 9779   2.854  11.994   7.317
 2647SOL    HW1 9780   2.881  12.002   7.226
 2647SOL    HW2 9781   2.930  12.022   7.367
 2648SOL     OW 9782   5.711   8.301  11.505
 2648SOL    HW1 9783   5.674   8.220  11.541
 2648SOL    HW2 9784   5.649   8.328  11.438
 2649SOL     OW 9785  12.266   2.855   4.482
 2649SOL    HW1 9786  12.182   2.836   4.524
 2649SOL    HW2 9787  12.250   2.936   4.434
 2650SOL     OW 9788   6.408   0.179   1.048
 2650SOL    HW1 9789   6.358   0.117   1.102
 2650SOL    HW2 9790   6.476   0.126   1.007
 2651SOL     OW 9791   3.403   4.249   8.344
 2651SOL    HW1 9792   3.495   4.232   8.368
 2651SOL    HW2 9793   3.363   4.162   8.342
 2652SOL     OW 9794   4.056   6.560   1.689
 2652SOL    HW1 9795   3.975   6.562   1.637
 2652SOL    HW2 9796   4.121   6.601   1.633
 2653SOL     OW 9797  11.215  11.282  10.853
 2653SOL    HW1 9798  11.122  11.267  10.868
 2653SOL    HW2 9799  11.229  11.260  10.761
 2654SOL     OW 9800   7.803   9.606   6.680
 2654SOL    HW1 9801   7.848   9.678   6.724
 2654SOL    HW2 9802   7.832   9.612   6.588
 2655SOL     OW 9803  11.136   6.121  13.985
 2655SOL    HW1 9804  11.217   6.165  14.012
 2655SOL    HW2 9805  11.087   6.109  14.066
 2656SOL     OW 9806   8.551   4.533   8.943
 2656SOL    HW1 9807   8.603   4.457   8.972
 2656SOL    HW2 9808   8.606   4.608   8.962
 2657SOL     OW 9809  10.850  12.086   1.049
 2657SOL    HW1 9810  10.924  12.107   1.106
 2657SOL    HW2 9811  10.860  12.147   0.975
 2658SOL     OW 9812   9.998   9.457  13.887
 2658SOL    HW1 9813   9.948   9.535  13.911
 2658SOL    HW2 9814  10.076   9.490  13.844
 2659SOL     OW 9815   7.751  13.279   4.834
 2659SOL    HW1 9816   7.656  13.277   4.839
 2659SOL    HW2 9817   7.779  13.321   4.916
 2660SOL     OW 9818  14.395  13.958   1.058
 2660SOL    HW1 9819  14.405  13.868   1.024
 2660SOL    HW2 9820  14.306  13.960   1.093
 2661SOL     OW 9821   7.950   9.442   8.960
 2661SOL    HW1 9822   8.000   9.509   9.007
 2661SOL    HW2 9823   8.000   9.361   8.973
 2662SOL     OW 9824   1.706   3.100  10.169
 2662SOL    HW1 9825   1.758   3.067  10.242
 2662SOL    HW2 9826   1.718   3.195  10.172
 2663SOL     OW 9827   1.507  11.406   2.870
 2663SOL    HW1 9828   1.457  11.336   2.828
 2663SOL    HW2 9829   1.565  11.439   2.801
 2664SOL     OW 9830   4.822   2.874  14.842
 2664SOL    HW1 9831   4.896   2.849   0.015
 2664SOL    HW2 9832   4.789   2.792  14.807
 2665SOL     OW 9833   7.977  13.930   3.049
 2665SOL    HW1 9834   8.058  13.901   3.006
 2665SOL    HW2 9835   8.000  14.013   3.091
 2666SOL     OW 9836  14.555   1.541   8.382
 2666SOL    HW1 9837  14.602   1.624   8.379
 2666SOL    HW2 9838  14.548   1.520   8.475
 2667SOL     OW 9839  11.548   9.529   7.755
 2667SOL    HW1 9840  11.592   9.602   7.799
 2667SOL    HW2 9841  11.581   9.531   7.666
 2668SOL     OW 9842  11.188   1.937   0.163
 2668SOL    HW1 9843  11.195   2.009   0.225
 2668SOL    HW2 9844  11.264   1.882   0.182
 2669SOL     OW 9845   0.292   4.855   2.494
 2669SOL    HW1 9846   0.381   4.841   2.461
 2669SOL    HW2 9847   0.261   4.767   2.517
 2670SOL     OW 9848  13.526  12.074   1.911
 2670SOL    HW1 9849  13.548  12.138   1.978
 2670SOL    HW2 9850  13.480  12.005   1.959
 2671SOL     OW 9851   6.148  14.106  11.325
 2671SOL    HW1 9852   6.053  14.106  11.313
 2671SOL    HW2 9853   6.166  14.186  11.375
 2672SOL     OW 9854  13.556  12.528   4.701
 2672SOL    HW1 9855  13.485  12.473   4.668
 2672SOL    HW2 9856  13.634  12.498   4.654
 2673SOL     OW 9857   5.652  13.480   6.448
 2673SOL    HW1 9858   5.747  13.480   6.431
 2673SOL    HW2 9859   5.623  13.392   6.424
 2674SOL     OW 9860  14.095  11.546   0.329
 2674SOL    HW1 9861  14.058  11.534   0.241
 2674SOL    HW2 9862  14.030  11.507   0.387
 2675SOL     OW 9863  11.134  13.563  10.315
 2675SOL    HW1 9864  11.218  13.592  10.350
 2675SOL    HW2 9865  11.086  13.530  10.391
 2676SOL     OW 9866   1.385   0.942   5.608
 2676SOL    HW1 9867   1.463   0.994   5.625
 2676SOL    HW2 9868   1.326   0.961   5.681
 2677SOL     OW 9869  12.729   2.548   8.135
 2677SOL    HW1 9870  12.717   2.594   8.218
 2677SOL    HW2 9871  12.731   2.455   8.159
 2678SOL     OW 9872  13.137  11.663   8.420
 2678SOL    HW1 9873  13.218  11.703   8.386
 2678SOL    HW2 9874  13.071  11.732   8.410
 2679SOL     OW 9875   3.343  11.571  10.824
 2679SOL    HW1 9876   3.410  11.616  10.876
 2679SOL    HW2 9877   3.260  11.597  10.864
 2680SOL     OW 9878   2.993   6.822   8.013
 2680SOL    HW1 9879   3.054   6.798   7.943
 2680SOL    HW2 9880   3.029   6.903   8.048
 2681SOL     OW 9881   8.446   1.640   9.038
 2681SOL    HW1 9882   8.425   1.598   9.121
 2681SOL    HW2 9883   8.363   1.641   8.990
 2682SOL     OW 9884   8.544   0.237   7.039
 2682SOL    HW1 9885   8.637   0.247   7.019
 2682SOL    HW2 9886   8.510   0.327   7.038
 2683SOL     OW 9887   6.822   2.451   5.064
 2683SOL    HW1 9888   6.892   2.422   5.122
 2683SOL    HW2 9889   6.836   2.401   4.983
 2684SOL     OW 9890   0.341   7.938   1.627
 2684SOL    HW1 9891   0.407   7.879   1.663
 2684SOL    HW2 9892   0.345   8.016   1.682
 2685SOL     OW 9893   4.192  13.272  10.133
 2685SOL    HW1 9894   4.282  13.297  10.152
 2685SOL    HW2 9895   4.143  13.291  10.213
 2686SOL     OW 9896   1.718  10.928   2.033
 2686SOL    HW1 9897   1.802  10.954   2.070
 2686SOL    HW2 9898   1.653  10.974   2.087
 2687SOL     OW 9899   8.481  13.898  11.503
 2687SOL    HW1 9900   8.433  13.816  11.515
 2687SOL    HW2 9901   8.573  13.873  11.513
 2688SOL     OW 9902   6.721  13.905   5.799
 2688SOL    HW1 9903   6.682  13.969   5.859
 2688SOL    HW2 9904   6.683  13.927   5.714
 2689SOL     OW 9905   1.239  14.279  14.545
 2689SOL    HW1 9906   1.188  14.282  14.626
 2689SOL    HW2 9907   1.276  14.367  14.536
 2690SOL     OW 9908  12.193   4.355   8.396
 2690SOL    HW1 9909  12.285   4.341   8.376
 2690SOL    HW2 9910  12.148   4.344   8.312
 2691SOL     OW 9911   6.669   6.698   1.786
 2691SOL    HW1 9912   6.686   6.792   1.776
 2691SOL    HW2 9913   6.609   6.677   1.716
 2692SOL     OW 9914   5.972   7.535  11.184
 2692SOL    HW1 9915   5.971   7.472  11.112
 2692SOL    HW2 9916   5.936   7.615  11.145
 2693SOL     OW 9917   1.634   5.014  10.440
 2693SOL    HW1 9918   1.655   4.970  10.523
 2693SOL    HW2 9919   1.719   5.043  10.407
 2694SOL     OW 9920   1.055  10.950  10.630
 2694SOL    HW1 9921   1.114  10.877  10.612
 2694SOL    HW2 9922   0.967  10.913  10.620
 2695SOL     OW 9923   6.673   2.650   3.836
 2695SOL    HW1 9924   6.765   2.656   3.862
 2695SOL    HW2 9925   6.631   2.725   3.878
 2696SOL     OW 9926   0.534  13.049   1.410
 2696SOL    HW1 9927   0.591  13.126   1.408
 2696SOL    HW2 9928   0.446  13.084   1.417
 2697SOL     OW 9929  13.324  11.894   0.449
 2697SOL    HW1 9930  13.370  11.965   0.404
 2697SOL    HW2 9931  13.352  11.900   0.540
 2698SOL     OW 9932   9.904   5.211   6.285
 2698SOL    HW1 9933   9.941   5.123   6.281
 2698SOL    HW2 9934   9.942   5.257   6.210
 2699SOL     OW 9935  11.902  11.242   9.751
 2699SOL    HW1 9936  11.832  11.293   9.790
 2699SOL    HW2 9937  11.857  11.175   9.699
 2700SOL     OW 9938   0.430   2.609   4.379
 2700SOL    HW1 9939   0.456   2.678   4.440
 2700SOL    HW2 9940   0.475   2.631   4.297
 2701SOL     OW 9941   2.985   3.030   8.760
 2701SOL    HW1 9942   2.944   3.037   8.846
 2701SOL    HW2 9943   3.079   3.041   8.777
 2702SOL     OW 9944   2.846   7.247  14.712
 2702SOL    HW1 9945   2.847   7.237  14.617
 2702SOL    HW2 9946   2.896   7.173  14.744
 2703SOL     OW 9947   4.502  14.502  14.533
 2703SOL    HW1 9948   4.543  14.450  14.601
 2703SOL    HW2 9949   4.564  14.572  14.515
 2704SOL     OW 9950   8.344  12.097  10.247
 2704SOL    HW1 9951   8.285  12.054  10.309
 2704SOL    HW2 9952   8.318  12.189  10.250
 2705SOL     OW 9953   8.034   9.337  10.449
 2705SOL    HW1 9954   8.081   9.310  10.371
 2705SOL    HW2 9955   7.942   9.329  10.426
 2706SOL     OW 9956   5.786  13.381   8.761
 2706SOL    HW1 9957   5.827  13.424   8.836
 2706SOL    HW2 9958   5.741  13.452   8.714
 2707SOL     OW 9959  12.038   3.338   4.412
 2707SOL    HW1 9960  12.047   3.432   4.430
 2707SOL    HW2 9961  11.987   3.334   4.331
 2708SOL     OW 9962   0.400  12.322   1.992
 2708SOL    HW1 9963   0.395  12.273   2.074
 2708SOL    HW2 9964   0.366  12.409   2.014
 2709SOL     OW 9965   8.526  14.036  10.858
 2709SOL    HW1 9966   8.618  14.021  10.879
 2709SOL    HW2 9967   8.523  14.128  10.831
 2710SOL     OW 9968  13.446  10.882  12.557
 2710SOL    HW1 9969  13.410  10.870  12.470
 2710SOL    HW2 9970  13.512  10.951  12.547
 2711SOL     OW 9971   9.673   2.108   8.004
 2711SOL    HW1 9972   9.647   2.047   8.072
 2711SOL    HW2 9973   9.644   2.068   7.922
 2712SOL     OW 9974  14.370   0.317   3.897
 2712SOL    HW1 9975  14.389   0.364   3.978
 2712SOL    HW2 9976  14.457   0.291   3.864
 2713SOL     OW 9977   2.554   3.571   9.961
 2713SOL    HW1 9978   2.458   3.580   9.959
 2713SOL    HW2 9979   2.576   3.541   9.873
 2714SOL     OW 9980   8.841   4.978   5.807
 2714SOL    HW1 9981   8.933   5.003   5.806
 2714SOL    HW2 9982   8.816   4.977   5.715
 2715SOL     OW 9983   5.065   0.342  14.037
 2715SOL    HW1 9984   5.117   0.421  14.052
 2715SOL    HW2 9985   4.974   0.372  14.041
 2716SOL     OW 9986  11.276  11.640   8.588
 2716SOL    HW1 9987  11.288  11.598   8.503
 2716SOL    HW2 9988  11.311  11.729   8.577
 2717SOL     OW 9989  12.121   2.070  14.868
 2717SOL    HW1 9990  12.035   2.097   0.019
 2717SOL    HW2 9991  12.181   2.094   0.057
 2718SOL     OW 9992   9.770   0.638   4.166
 2718SOL    HW1 9993   9.779   0.729   4.136
 2718SOL    HW2 9994   9.677   0.618   4.151
 2719SOL     OW 9995  13.413   2.802   8.045
 2719SOL    HW1 9996  13.359   2.723   8.049
 2719SOL    HW2 9997  13.351   2.874   8.052
 2720SOL     OW 9998   5.034  12.285   4.661
 2720SOL    HW1 9999   5.065  12.195   4.656
 2720SOL    HW210000   4.941  12.277   4.685
 2721SOL     OW10001   3.508  14.397   8.811
 2721SOL    HW110002   3.538  14.488   8.816
 2721SOL    HW210003   3.446  14.388   8.883
 2722SOL     OW10004   2.776   9.816   5.988
 2722SOL    HW110005   2.845   9.877   6.015
 2722SOL    HW210006   2.747   9.848   5.903
 2723SOL     OW10007  13.006   9.359  13.207
 2723SOL    HW110008  12.955   9.317  13.138
 2723SOL    HW210009  13.045   9.286  13.256
 2724SOL     OW10010  11.147   3.483  11.126
 2724SOL    HW110011  11.087   3.545  11.166
 2724SOL    HW210012  11.150   3.508  11.034
 2725SOL     OW10013  13.547   4.756   7.566
 2725SOL    HW110014  13.549   4.764   7.662
 2725SOL    HW210015  13.593   4.674   7.549
 2726SOL     OW10016   7.268   4.885  10.353
 2726SOL    HW110017   7.230   4.957  10.303
 2726SOL    HW210018   7.348   4.863  10.305
 2727SOL     OW10019  12.393   3.125  12.603
 2727SOL    HW110020  12.331   3.185  12.560
 2727SOL    HW210021  12.339   3.051  12.630
 2728SOL     OW10022  13.345   3.618   3.456
 2728SOL    HW110023  13.361   3.707   3.488
 2728SOL    HW210024  13.314   3.630   3.367
 2729SOL     OW10025   4.238   8.137   7.111
 2729SOL    HW110026   4.233   8.046   7.141
 2729SOL    HW210027   4.149   8.171   7.121
 2730SOL     OW10028  12.938  11.405   6.314
 2730SOL    HW110029  12.872  11.460   6.355
 2730SOL    HW210030  12.920  11.316   6.346
 2731SOL     OW10031   3.615   2.698  14.026
 2731SOL    HW110032   3.621   2.792  14.040
 2731SOL    HW210033   3.687   2.678  13.966
 2732SOL     OW10034   9.467   2.560   3.625
 2732SOL    HW110035   9.469   2.608   3.542
 2732SOL    HW210036   9.507   2.619   3.688
 2733SOL     OW10037  13.715  10.811  11.404
 2733SOL    HW110038  13.805  10.780  11.412
 2733SOL    HW210039  13.677  10.757  11.333
 2734SOL     OW10040  11.565   0.235   9.030
 2734SOL    HW110041  11.606   0.268   8.951
 2734SOL    HW210042  11.471   0.234   9.010
 2735SOL     OW10043  13.377   4.297  12.968
 2735SOL    HW110044  13.417   4.217  13.003
 2735SOL    HW210045  13.398   4.296  12.875
 2736SOL     OW10046  10.996   2.528   4.772
 2736SOL    HW110047  11.002   2.568   4.859
 2736SOL    HW210048  10.933   2.457   4.783
 2737SOL     OW10049   5.185   7.363   7.625
 2737SOL    HW110050   5.181   7.306   7.702
 2737SOL    HW210051   5.116   7.428   7.640
 2738SOL     OW10052   9.667   9.829  14.110
 2738SOL    HW110053   9.706   9.775  14.180
 2738SOL    HW210054   9.601   9.882  14.155
 2739SOL     OW10055  12.812  14.022   7.420
 2739SOL    HW110056  12.903  14.046   7.405
 2739SOL    HW210057  12.761  14.089   7.374
 2740SOL     OW10058   2.475   0.633   4.592
 2740SOL    HW110059   2.424   0.581   4.531
 2740SOL    HW210060   2.421   0.635   4.672
 2741SOL     OW10061   0.819   7.649   2.641
 2741SOL    HW110062   0.876   7.580   2.674
 2741SOL    HW210063   0.762   7.671   2.715
 2742SOL     OW10064  10.073   3.934  14.071
 2742SOL    HW110065  10.073   3.931  14.167
 2742SOL    HW210066  10.055   4.025  14.050
 2743SOL     OW10067  10.004   1.594  11.656
 2743SOL    HW110068  10.051   1.517  11.687
 2743SOL    HW210069   9.911   1.572  11.669
 2744SOL     OW10070   3.545  14.571   7.023
 2744SOL    HW110071   3.503  14.608   7.100
 2744SOL    HW210072   3.561  14.480   7.045
 2745SOL     OW10073   9.365   7.751   5.265
 2745SOL    HW110074   9.447   7.783   5.228
 2745SOL    HW210075   9.297   7.787   5.208
 2746SOL     OW10076  10.198  14.312  13.141
 2746SOL    HW110077  10.181  14.368  13.066
 2746SOL    HW210078  10.267  14.357  13.190
 2747SOL     OW10079  13.598  12.701   9.402
 2747SOL    HW110080  13.540  12.691   9.477
 2747SOL    HW210081  13.685  12.711   9.440
 2748SOL     OW10082   7.478   9.233   9.191
 2748SOL    HW110083   7.432   9.317   9.201
 2748SOL    HW210084   7.550   9.252   9.131
 2749SOL     OW10085   4.148  13.648   7.943
 2749SOL    HW110086   4.213  13.715   7.966
 2749SOL    HW210087   4.064  13.685   7.971
 2750SOL     OW10088   3.952   3.463   0.064
 2750SOL    HW110089   3.935   3.531  14.880
 2750SOL    HW210090   4.014   3.404   0.022
 2751SOL     OW10091   6.419   8.281   1.839
 2751SOL    HW110092   6.326   8.263   1.825
 2751SOL    HW210093   6.423   8.319   1.927
 2752SOL     OW10094  13.231   2.257   6.123
 2752SOL    HW110095  13.180   2.323   6.170
 2752SOL    HW210096  13.169   2.185   6.108
 2753SOL     OW10097  10.370  14.423   4.422
 2753SOL    HW110098  10.308  14.474   4.369
 2753SOL    HW210099  10.378  14.340   4.376
 2754SOL     OW10100   7.209   1.692  14.437
 2754SOL    HW110101   7.282   1.728  14.486
 2754SOL    HW210102   7.177   1.619  14.491
 2755SOL     OW10103   6.790  13.063  14.275
 2755SOL    HW110104   6.877  13.026  14.260
 2755SOL    HW210105   6.806  13.145  14.321
 2756SOL     OW10106   2.039  10.527  12.674
 2756SOL    HW110107   2.092  10.520  12.595
 2756SOL    HW210108   1.949  10.529  12.643
 2757SOL     OW10109  12.877   4.330   7.575
 2757SOL    HW110110  12.857   4.313   7.667
 2757SOL    HW210111  12.830   4.411   7.555
 2758SOL     OW10112   7.236  10.967   5.940
 2758SOL    HW110113   7.265  10.917   5.864
 2758SOL    HW210114   7.149  10.931   5.961
 2759SOL     OW10115   1.547   6.001  10.255
 2759SOL    HW110116   1.511   5.913  10.262
 2759SOL    HW210117   1.629   5.989  10.207
 2760SOL     OW10118   5.088  12.997   9.698
 2760SOL    HW110119   5.164  12.941   9.713
 2760SOL    HW210120   5.121  13.069   9.643
 2761SOL     OW10121  13.854   7.745   5.179
 2761SOL    HW110122  13.819   7.831   5.156
 2761SOL    HW210123  13.940   7.743   5.138
 2762SOL     OW10124   4.377   6.805   5.261
 2762SOL    HW110125   4.398   6.737   5.197
 2762SOL    HW210126   4.339   6.756   5.334
 2763SOL     OW10127  13.916   2.093  13.777
 2763SOL    HW110128  13.918   2.174  13.828
 2763SOL    HW210129  13.862   2.034  13.829
 2764SOL     OW10130  11.248  13.232  13.087
 2764SOL    HW110131  11.216  13.169  13.023
 2764SOL    HW210132  11.189  13.223  13.161
 2765SOL     OW10133   9.442  12.462   1.965
 2765SOL    HW110134   9.479  12.415   2.040
 2765SOL    HW210135   9.454  12.555   1.987
 2766SOL     OW10136   6.992   3.566   6.621
 2766SOL    HW110137   6.899   3.589   6.613
 2766SOL    HW210138   7.007   3.503   6.551
 2767SOL     OW10139   2.547  12.151   0.576
 2767SOL    HW110140   2.575  12.071   0.533
 2767SOL    HW210141   2.615  12.169   0.640
 2768SOL     OW10142   3.692   0.291  12.410
 2768SOL    HW110143   3.779   0.264  12.439
 2768SOL    HW210144   3.632   0.259  12.478
 2769SOL     OW10145   2.925  14.089   2.717
 2769SOL    HW110146   2.943  14.108   2.625
 2769SOL    HW210147   2.937  14.173   2.762
 2770SOL     OW10148  11.935   0.777  10.047
 2770SOL    HW110149  11.983   0.822   9.977
 2770SOL    HW210150  11.843   0.791  10.026
 2771SOL     OW10151  14.128   2.178   1.118
 2771SOL    HW110152  14.177   2.211   1.193
 2771SOL    HW210153  14.127   2.252   1.056
 2772SOL     OW10154   4.777   3.763   0.710
 2772SOL    HW110155   4.784   3.814   0.790
 2772SOL    HW210156   4.698   3.797   0.667
 2773SOL     OW10157   3.019   2.839   5.214
 2773SOL    HW110158   3.070   2.859   5.293
 2773SOL    HW210159   3.085   2.816   5.148
 2774SOL     OW10160   9.388  14.242  11.971
 2774SOL    HW110161   9.294  14.234  11.957
 2774SOL    HW210162   9.424  14.264  11.884
 2775SOL     OW10163  13.521  12.475  12.566
 2775SOL    HW110164  13.489  12.563  12.550
 2775SOL    HW210165  13.455  12.435  12.622
 2776SOL     OW10166   9.943   0.269   4.206
 2776SOL    HW110167  10.024   0.249   4.159
 2776SOL    HW210168   9.946   0.213   4.283
 2777SOL     OW10169  10.488  14.799   4.837
 2777SOL    HW110170  10.525  14.878   4.797
 2777SOL    HW210171  10.395  14.817   4.846
 2778SOL     OW10172   8.090   9.724   0.891
 2778SOL    HW110173   8.138   9.760   0.966
 2778SOL    HW210174   7.999   9.747   0.907
 2779SOL     OW10175   1.362  10.823   9.859
 2779SOL    HW110176   1.353  10.898   9.800
 2779SOL    HW210177   1.434  10.772   9.822
 2780SOL     OW10178   8.384   3.831   2.496
 2780SOL    HW110179   8.324   3.861   2.429
 2780SOL    HW210180   8.348   3.865   2.578
 2781SOL     OW10181  10.637  12.010   8.465
 2781SOL    HW110182  10.730  12.003   8.442
 2781SOL    HW210183  10.615  11.925   8.502
 2782SOL     OW10184   8.447   8.988   8.023
 2782SOL    HW110185   8.371   8.998   7.966
 2782SOL    HW210186   8.422   8.916   8.082
 2783SOL     OW10187  11.809   7.332   7.555
 2783SOL    HW110188  11.830   7.278   7.631
 2783SOL    HW210189  11.807   7.270   7.482
 2784SOL     OW10190   8.136  11.501  14.530
 2784SOL    HW110191   8.228  11.507  14.503
 2784SOL    HW210192   8.123  11.578  14.586
 2785SOL     OW10193   6.886   8.987   4.282
 2785SOL    HW110194   6.798   9.022   4.295
 2785SOL    HW210195   6.883   8.949   4.194
 2786SOL     OW10196   0.551  10.260   1.749
 2786SOL    HW110197   0.540  10.320   1.823
 2786SOL    HW210198   0.551  10.317   1.672
 2787SOL     OW10199  14.669  14.343   1.464
 2787SOL    HW110200  14.683  14.397   1.542
 2787SOL    HW210201  14.716  14.262   1.482
 2788SOL     OW10202  13.196   3.165  14.574
 2788SOL    HW110203  13.252   3.089  14.558
 2788SOL    HW210204  13.133   3.135  14.639
 2789SOL     OW10205   1.775  10.776  12.882
 2789SOL    HW110206   1.815  10.843  12.827
 2789SOL    HW210207   1.788  10.806  12.972
 2790SOL     OW10208   9.349   5.167   8.596
 2790SOL    HW110209   9.281   5.175   8.529
 2790SOL    HW210210   9.431   5.168   8.547
 2791SOL     OW10211  10.162   8.642   6.494
 2791SOL    HW110212  10.129   8.590   6.421
 2791SOL    HW210213  10.257   8.633   6.489
 2792SOL     OW10214   0.183  14.306  11.967
 2792SOL    HW110215   0.144  14.381  12.013
 2792SOL    HW210216   0.277  14.325  11.967
 2793SOL     OW10217  13.028   2.304  10.355
 2793SOL    HW110218  13.096   2.294  10.290
 2793SOL    HW210219  13.022   2.399  10.370
 2794SOL     OW10220   9.637   9.559   1.545
 2794SOL    HW110221   9.568   9.595   1.601
 2794SOL    HW210222   9.595   9.485   1.502
 2795SOL     OW10223  12.200  13.838   6.129
 2795SOL    HW110224  12.202  13.793   6.214
 2795SOL    HW210225  12.225  13.928   6.149
 2796SOL     OW10226  14.699  12.404   5.353
 2796SOL    HW110227  14.713  12.310   5.357
 2796SOL    HW210228  14.757  12.434   5.283
 2797SOL     OW10229   7.779   0.767   5.590
 2797SOL    HW110230   7.768   0.676   5.564
 2797SOL    HW210231   7.852   0.799   5.537
 2798SOL     OW10232   9.048   2.357  14.003
 2798SOL    HW110233   8.961   2.319  14.010
 2798SOL    HW210234   9.055   2.386  13.912
 2799SOL     OW10235   3.839  12.599   2.567
 2799SOL    HW110236   3.823  12.581   2.474
 2799SOL    HW210237   3.912  12.541   2.591
 2800SOL     OW10238   6.498   9.580   4.095
 2800SOL    HW110239   6.593   9.566   4.099
 2800SOL    HW210240   6.483   9.656   4.152
 2801SOL     OW10241   5.724   7.171   5.116
 2801SOL    HW110242   5.735   7.210   5.029
 2801SOL    HW210243   5.762   7.236   5.176
 2802SOL     OW10244   3.509  12.262   2.387
 2802SOL    HW110245   3.583  12.234   2.440
 2802SOL    HW210246   3.469  12.181   2.355
 2803SOL     OW10247  13.693   1.169   8.995
 2803SOL    HW110248  13.614   1.224   9.003
 2803SOL    HW210249  13.673   1.108   8.924
 2804SOL     OW10250   2.933   7.748   5.813
 2804SOL    HW110251   2.982   7.683   5.863
 2804SOL    HW210252   2.919   7.820   5.874
 2805SOL     OW10253   1.135   5.000   3.201
 2805SOL    HW110254   1.085   4.935   3.152
 2805SOL    HW210255   1.127   4.973   3.293
 2806SOL     OW10256   7.407   0.518   9.488
 2806SOL    HW110257   7.499   0.533   9.509
 2806SOL    HW210258   7.396   0.554   9.400
 2807SOL     OW10259  10.474  11.391   9.565
 2807SOL    HW110260  10.521  11.462   9.522
 2807SOL    HW210261  10.383  11.402   9.539
 2808SOL     OW10262   3.623   9.302   2.933
 2808SOL    HW110263   3.532   9.323   2.911
 2808SOL    HW210264   3.672   9.327   2.855
 2809SOL     OW10265  11.045   3.419   7.600
 2809SOL    HW110266  11.064   3.379   7.685
 2809SOL    HW210267  10.956   3.453   7.609
 2810SOL     OW10268   1.222  13.321   3.258
 2810SOL    HW110269   1.241  13.415   3.259
 2810SOL    HW210270   1.307  13.279   3.272
 2811SOL     OW10271   4.338   7.119   9.816
 2811SOL    HW110272   4.390   7.187   9.772
 2811SOL    HW210273   4.369   7.122   9.907
 2812SOL     OW10274   9.797   0.048   4.866
 2812SOL    HW110275   9.839  14.863   4.919
 2812SOL    HW210276   9.747   0.101   4.929
 2813SOL     OW10277  13.929  12.544  14.396
 2813SOL    HW110278  13.873  12.553  14.319
 2813SOL    HW210279  13.931  12.450  14.412
 2814SOL     OW10280   0.905   4.009  10.040
 2814SOL    HW110281   0.837   4.004  10.107
 2814SOL    HW210282   0.951   3.925  10.046
 2815SOL     OW10283   0.188   8.468   1.433
 2815SOL    HW110284   0.124   8.416   1.481
 2815SOL    HW210285   0.148   8.555   1.426
 2816SOL     OW10286  13.314   5.273   7.032
 2816SOL    HW110287  13.273   5.360   7.029
 2816SOL    HW210288  13.249   5.217   7.075
 2817SOL     OW10289  12.135   3.255   3.929
 2817SOL    HW110290  12.169   3.330   3.881
 2817SOL    HW210291  12.209   3.195   3.935
 2818SOL     OW10292   6.465   4.868   1.051
 2818SOL    HW110293   6.450   4.831   0.964
 2818SOL    HW210294   6.549   4.831   1.079
 2819SOL     OW10295   6.671   5.707   0.736
 2819SOL    HW110296   6.628   5.648   0.674
 2819SOL    HW210297   6.600   5.746   0.786
 2820SOL     OW10298  13.607  11.353  12.560
 2820SOL    HW110299  13.685  11.401  12.534
 2820SOL    HW210300  13.534  11.412  12.538
 2821SOL     OW10301   2.380   4.724   4.080
 2821SOL    HW110302   2.474   4.741   4.087
 2821SOL    HW210303   2.344   4.801   4.037
 2822SOL     OW10304  10.641   0.597   2.155
 2822SOL    HW110305  10.634   0.633   2.066
 2822SOL    HW210306  10.643   0.674   2.212
 2823SOL     OW10307   9.709   1.081   9.992
 2823SOL    HW110308   9.700   1.156   9.934
 2823SOL    HW210309   9.626   1.076  10.039
 2824SOL     OW10310   2.700   4.490   9.520
 2824SOL    HW110311   2.718   4.455   9.432
 2824SOL    HW210312   2.786   4.516   9.553
 2825SOL     OW10313   2.817   4.210   1.396
 2825SOL    HW110314   2.757   4.284   1.386
 2825SOL    HW210315   2.760   4.133   1.403
 2826SOL     OW10316   1.777   2.877  13.880
 2826SOL    HW110317   1.745   2.964  13.904
 2826SOL    HW210318   1.862   2.893  13.839
 2827SOL     OW10319  14.029   7.195   7.485
 2827SOL    HW110320  14.117   7.221   7.512
 2827SOL    HW210321  13.971   7.247   7.540
 2828SOL     OW10322   7.541   9.167   1.197
 2828SOL    HW110323   7.545   9.084   1.244
 2828SOL    HW210324   7.452   9.170   1.162
 2829SOL     OW10325   5.361   8.639   1.022
 2829SOL    HW110326   5.430   8.615   0.960
 2829SOL    HW210327   5.358   8.566   1.084
 2830SOL     OW10328  12.325  10.084   3.291
 2830SOL    HW110329  12.265  10.140   3.242
 2830SOL    HW210330  12.268  10.028   3.344
 2831SOL     OW10331   9.312  10.230   1.832
 2831SOL    HW110332   9.325  10.320   1.803
 2831SOL    HW210333   9.392  10.209   1.880
 2832SOL     OW10334  10.173   5.611   1.218
 2832SOL    HW110335  10.116   5.615   1.295
 2832SOL    HW210336  10.251   5.660   1.243
 2833SOL     OW10337   4.287   4.232   1.685
 2833SOL    HW110338   4.254   4.252   1.597
 2833SOL    HW210339   4.208   4.226   1.739
 2834SOL     OW10340   7.364  13.045   8.902
 2834SOL    HW110341   7.459  13.049   8.892
 2834SOL    HW210342   7.330  13.082   8.820
 2835SOL     OW10343   9.708   9.145   8.485
 2835SOL    HW110344   9.633   9.103   8.528
 2835SOL    HW210345   9.719   9.228   8.531
 2836SOL     OW10346   2.093   2.997  14.235
 2836SOL    HW110347   2.119   3.071  14.180
 2836SOL    HW210348   2.037   2.944  14.179
 2837SOL     OW10349   5.842   5.052   6.135
 2837SOL    HW110350   5.902   5.054   6.060
 2837SOL    HW210351   5.884   5.108   6.201
 2838SOL     OW10352   1.527   2.681   7.551
 2838SOL    HW110353   1.440   2.661   7.587
 2838SOL    HW210354   1.569   2.734   7.619
 2839SOL     OW10355   4.294   9.515   4.678
 2839SOL    HW110356   4.212   9.541   4.720
 2839SOL    HW210357   4.316   9.588   4.621
 2840SOL     OW10358   8.012   7.276   3.425
 2840SOL    HW110359   7.943   7.331   3.461
 2840SOL    HW210360   8.054   7.329   3.358
 2841SOL     OW10361   8.887  12.666  14.286
 2841SOL    HW110362   8.851  12.647  14.373
 2841SOL    HW210363   8.824  12.626  14.225
 2842SOL     OW10364   8.614   3.739   3.929
 2842SOL    HW110365   8.616   3.644   3.939
 2842SOL    HW210366   8.522   3.760   3.913
 2843SOL     OW10367  11.444  13.667   9.635
 2843SOL    HW110368  11.375  13.622   9.587
 2843SOL    HW210369  11.473  13.604   9.701
 2844SOL     OW10370   7.154   3.477   4.188
 2844SOL    HW110371   7.109   3.420   4.251
 2844SOL    HW210372   7.246   3.450   4.192
 2845SOL     OW10373  13.082   2.174   2.588
 2845SOL    HW110374  13.111   2.228   2.514
 2845SOL    HW210375  12.995   2.144   2.563
 2846SOL     OW10376   5.544   8.554  12.304
 2846SOL    HW110377   5.630   8.595  12.310
 2846SOL    HW210378   5.532   8.534  12.211
 2847SOL     OW10379   7.199   6.352  12.819
 2847SOL    HW110380   7.253   6.363  12.741
 2847SOL    HW210381   7.259   6.364  12.892
 2848SOL     OW10382   7.292   2.816   5.934
 2848SOL    HW110383   7.216   2.872   5.919
 2848SOL    HW210384   7.349   2.867   5.991
 2849SOL     OW10385  10.571  13.020   1.770
 2849SOL    HW110386  10.639  12.962   1.805
 2849SOL    HW210387  10.594  13.106   1.803
 2850SOL     OW10388   6.652  14.031  10.843
 2850SOL    HW110389   6.739  14.001  10.818
 2850SOL    HW210390   6.596  13.955  10.829
 2851SOL     OW10391   6.182  11.764  12.032
 2851SOL    HW110392   6.216  11.713  12.106
 2851SOL    HW210393   6.158  11.849  12.071
 2852SOL     OW10394   2.497  13.175  11.922
 2852SOL    HW110395   2.483  13.270  11.930
 2852SOL    HW210396   2.451  13.138  11.997
 2853SOL     OW10397   2.544   9.462   3.869
 2853SOL    HW110398   2.610   9.437   3.933
 2853SOL    HW210399   2.471   9.402   3.885
 2854SOL     OW10400  13.443   9.262   1.907
 2854SOL    HW110401  13.521   9.235   1.857
 2854SOL    HW210402  13.461   9.232   1.996
 2855SOL     OW10403   1.240   9.415  10.966
 2855SOL    HW110404   1.174   9.482  10.981
 2855SOL    HW210405   1.281   9.401  11.051
 2856SOL     OW10406   4.347   3.121   2.752
 2856SOL    HW110407   4.261   3.132   2.792
 2856SOL    HW210408   4.334   3.055   2.685
 2857SOL     OW10409   6.565   8.564  11.636
 2857SOL    HW110410   6.480   8.605  11.615
 2857SOL    HW210411   6.629   8.634  11.621
 2858SOL     OW10412   8.421   7.910   0.225
 2858SOL    HW110413   8.393   7.859   0.149
 2858SOL    HW210414   8.478   7.850   0.274
 2859SOL     OW10415   5.668  14.629  11.917
 2859SOL    HW110416   5.669  14.591  12.005
 2859SOL    HW210417   5.751  14.601  11.878
 2860SOL     OW10418  12.666   1.741   3.520
 2860SOL    HW110419  12.636   1.700   3.601
 2860SOL    HW210420  12.653   1.835   3.535
 2861SOL     OW10421   6.674   1.048   9.338
 2861SOL    HW110422   6.606   0.987   9.366
 2861SOL    HW210423   6.693   1.024   9.248
 2862SOL     OW10424  12.350   7.146  12.766
 2862SOL    HW110425  12.360   7.075  12.703
 2862SOL    HW210426  12.437   7.158  12.804
 2863SOL     OW10427   7.334  14.765   5.237
 2863SOL    HW110428   7.342  14.853   5.198
 2863SOL    HW210429   7.343  14.780   5.331
 2864SOL     OW10430   9.695  10.479   9.369
 2864SOL    HW110431   9.718  10.572   9.371
 2864SOL    HW210432   9.758  10.440   9.310
 2865SOL     OW10433   8.639   3.268   0.852
 2865SOL    HW110434   8.552   3.242   0.821
 2865SOL    HW210435   8.662   3.199   0.915
 2866SOL     OW10436  10.379   2.171   2.182
 2866SOL    HW110437  10.469   2.203   2.180
 2866SOL    HW210438  10.367   2.127   2.098
 2867SOL     OW10439  14.050   5.607   1.336
 2867SOL    HW110440  14.013   5.691   1.363
 2867SOL    HW210441  13.981   5.544   1.354
 2868SOL     OW10442  14.614   3.785   1.037
 2868SOL    HW110443  14.519   3.774   1.044
 2868SOL    HW210444  14.642   3.711   0.982
 2869SOL     OW10445   9.515  11.083   2.056
 2869SOL    HW110446   9.600  11.088   2.100
 2869SOL    HW210447   9.511  11.163   2.003
 2870SOL     OW10448   2.059   3.220  11.672
 2870SOL    HW110449   2.046   3.315  11.674
 2870SOL    HW210450   2.132   3.205  11.733
 2871SOL     OW10451   1.062   9.982  12.297
 2871SOL    HW110452   0.968   9.966  12.285
 2871SOL    HW210453   1.104   9.909  12.252
 2872SOL     OW10454   5.232   3.780  12.522
 2872SOL    HW110455   5.177   3.749  12.450
 2872SOL    HW210456   5.287   3.848  12.482
 2873SOL     OW10457   2.655  14.513   9.621
 2873SOL    HW110458   2.710  14.436   9.633
 2873SOL    HW210459   2.712  14.588   9.641
 2874SOL     OW10460   3.995   0.889   5.735
 2874SOL    HW110461   3.912   0.930   5.709
 2874SOL    HW210462   4.051   0.962   5.762
 2875SOL     OW10463   5.727   8.136   8.600
 2875SOL    HW110464   5.677   8.117   8.521
 2875SOL    HW210465   5.664   8.132   8.671
 2876SOL     OW10466   5.540  10.590  10.003
 2876SOL    HW110467   5.484  10.532   9.952
 2876SOL    HW210468   5.527  10.563  10.094
 2877SOL     OW10469   0.632  13.324   2.001
 2877SOL    HW110470   0.556  13.361   1.956
 2877SOL    HW210471   0.623  13.354   2.092
 2878SOL     OW10472   2.900  10.679   4.515
 2878SOL    HW110473   2.976  10.664   4.572
 2878SOL    HW210474   2.896  10.602   4.459
 2879SOL     OW10475  12.010  11.096  12.079
 2879SOL    HW110476  12.028  11.142  12.161
 2879SOL    HW210477  11.955  11.156  12.029
 2880SOL     OW10478  14.581   7.383   9.358
 2880SOL    HW110479  14.561   7.472   9.329
 2880SOL    HW210480  14.496   7.343   9.374
 2881SOL     OW10481  12.497  11.937   3.471
 2881SOL    HW110482  12.489  12.032   3.474
 2881SOL    HW210483  12.553  11.920   3.395
 2882SOL     OW10484  11.262  11.914  11.303
 2882SOL    HW110485  11.201  11.876  11.240
 2882SOL    HW210486  11.310  11.980  11.253
 2883SOL     OW10487   1.031  11.528  12.031
 2883SOL    HW110488   1.068  11.600  12.083
 2883SOL    HW210489   0.937  11.532  12.049
 2884SOL     OW10490  13.712   7.559   2.784
 2884SOL    HW110491  13.650   7.491   2.812
 2884SOL    HW210492  13.659   7.623   2.737
 2885SOL     OW10493   8.774   3.998  12.895
 2885SOL    HW110494   8.746   4.033  12.979
 2885SOL    HW210495   8.696   3.998  12.840
 2886SOL     OW10496   7.933   9.230   0.418
 2886SOL    HW110497   7.908   9.316   0.451
 2886SOL    HW210498   7.853   9.194   0.379
 2887SOL     OW10499  10.903   3.954   3.479
 2887SOL    HW110500  10.970   3.962   3.411
 2887SOL    HW210501  10.834   3.901   3.439
 2888SOL     OW10502   8.491  10.818   1.151
 2888SOL    HW110503   8.571  10.768   1.163
 2888SOL    HW210504   8.519  10.910   1.157
 2889SOL     OW10505  13.923   0.206   0.123
 2889SOL    HW110506  13.865   0.263   0.073
 2889SOL    HW210507  13.919   0.122   0.078
 2890SOL     OW10508   8.170  11.795  11.679
 2890SOL    HW110509   8.184  11.890  11.684
 2890SOL    HW210510   8.249  11.757  11.717
 2891SOL     OW10511   4.119  10.468   5.005
 2891SOL    HW110512   4.156  10.511   5.082
 2891SOL    HW210513   4.194  10.429   4.960
 2892SOL     OW10514   1.341   0.300   5.518
 2892SOL    HW110515   1.367   0.218   5.560
 2892SOL    HW210516   1.422   0.337   5.483
 2893SOL     OW10517   5.350  12.325   5.826
 2893SOL    HW110518   5.429  12.359   5.868
 2893SOL    HW210519   5.280  12.345   5.888
 2894SOL     OW10520  14.504  13.131   7.392
 2894SOL    HW110521  14.460  13.180   7.323
 2894SOL    HW210522  14.441  13.066   7.420
 2895SOL     OW10523   5.717   6.662  10.868
 2895SOL    HW110524   5.755   6.607  10.936
 2895SOL    HW210525   5.647   6.710  10.912
 2896SOL     OW10526   0.149  10.592   7.958
 2896SOL    HW110527   0.193  10.591   7.874
 2896SOL    HW210528   0.211  10.550   8.018
 2897SOL     OW10529   2.983  11.639  14.639
 2897SOL    HW110530   3.017  11.557  14.604
 2897SOL    HW210531   2.909  11.613  14.694
 2898SOL     OW10532  14.589  10.876   2.633
 2898SOL    HW110533  14.641  10.953   2.611
 2898SOL    HW210534  14.613  10.856   2.723
 2899SOL     OW10535   9.628  12.274   0.985
 2899SOL    HW110536   9.569  12.213   1.029
 2899SOL    HW210537   9.589  12.289   0.899
 2900SOL     OW10538  13.228  12.053  14.077
 2900SOL    HW110539  13.220  11.998  14.000
 2900SOL    HW210540  13.306  12.020  14.122
 2901SOL     OW10541   3.150   8.355  13.021
 2901SOL    HW110542   3.181   8.307  13.099
 2901SOL    HW210543   3.126   8.441  13.054
 2902SOL     OW10544  10.461   3.059   9.020
 2902SOL    HW110545  10.390   3.100   9.069
 2902SOL    HW210546  10.464   2.969   9.054
 2903SOL     OW10547  10.795   6.878   2.611
 2903SOL    HW110548  10.802   6.946   2.544
 2903SOL    HW210549  10.764   6.923   2.689
 2904SOL     OW10550   4.695   9.915   0.129
 2904SOL    HW110551   4.684   9.847   0.063
 2904SOL    HW210552   4.718   9.994   0.079
 2905SOL     OW10553   5.569   0.696  13.935
 2905SOL    HW110554   5.593   0.787  13.954
 2905SOL    HW210555   5.575   0.689  13.839
 2906SOL     OW10556  12.821   6.134  11.291
 2906SOL    HW110557  12.754   6.152  11.358
 2906SOL    HW210558  12.903   6.161  11.332
 2907SOL     OW10559   7.336   4.352   9.920
 2907SOL    HW110560   7.355   4.430   9.972
 2907SOL    HW210561   7.414   4.297   9.930
 2908SOL     OW10562  13.187  12.220  13.126
 2908SOL    HW110563  13.233  12.137  13.116
 2908SOL    HW210564  13.256  12.286  13.127
 2909SOL     OW10565   2.702  14.209   7.616
 2909SOL    HW110566   2.727  14.125   7.579
 2909SOL    HW210567   2.746  14.212   7.701
 2910SOL     OW10568   0.757   4.895  14.128
 2910SOL    HW110569   0.850   4.884  14.112
 2910SOL    HW210570   0.725   4.942  14.051
 2911SOL     OW10571   6.694   5.028  13.063
 2911SOL    HW110572   6.645   4.949  13.086
 2911SOL    HW210573   6.627   5.091  13.035
 2912SOL     OW10574   3.977   9.871   1.131
 2912SOL    HW110575   3.892   9.842   1.165
 2912SOL    HW210576   3.956   9.947   1.076
 2913SOL     OW10577   5.357   6.169  13.837
 2913SOL    HW110578   5.435   6.118  13.816
 2913SOL    HW210579   5.320   6.192  13.752
 2914SOL     OW10580  11.809   6.061   0.381
 2914SOL    HW110581  11.759   5.983   0.358
 2914SOL    HW210582  11.856   6.037   0.461
 2915SOL     OW10583   1.943   3.306   3.220
 2915SOL    HW110584   2.036   3.298   3.199
 2915SOL    HW210585   1.911   3.375   3.161
 2916SOL     OW10586   7.471   5.107  10.286
 2916SOL    HW110587   7.417   5.178  10.320
 2916SOL    HW210588   7.559   5.127  10.316
 2917SOL     OW10589  13.409   0.591   5.976
 2917SOL    HW110590  13.442   0.617   6.062
 2917SOL    HW210591  13.416   0.671   5.923
 2918SOL     OW10592   1.200  14.355   5.872
 2918SOL    HW110593   1.225  14.265   5.851
 2918SOL    HW210594   1.105  14.356   5.864
 2919SOL     OW10595   6.371   3.633   1.483
 2919SOL    HW110596   6.310   3.583   1.430
 2919SOL    HW210597   6.452   3.583   1.482
 2920SOL     OW10598  13.455  13.803   2.946
 2920SOL    HW110599  13.403  13.732   2.985
 2920SOL    HW210600  13.485  13.855   3.021
 2921SOL     OW10601   3.252   5.230  11.114
 2921SOL    HW110602   3.181   5.200  11.057
 2921SOL    HW210603   3.309   5.282  11.057
 2922SOL     OW10604   9.296   4.142   3.223
 2922SOL    HW110605   9.281   4.066   3.167
 2922SOL    HW210606   9.376   4.121   3.271
 2923SOL     OW10607  10.017  10.520   5.596
 2923SOL    HW110608   9.950  10.543   5.660
 2923SOL    HW210609  10.097  10.512   5.648
 2924SOL     OW10610  14.753  12.645  11.184
 2924SOL    HW110611  14.682  12.697  11.147
 2924SOL    HW210612  14.729  12.634  11.276
 2925SOL     OW10613  11.928   0.051  12.811
 2925SOL    HW110614  11.879  14.869  12.761
 2925SOL    HW210615  11.862   0.105  12.854
 2926SOL     OW10616   6.833   4.064   6.426
 2926SOL    HW110617   6.753   4.100   6.387
 2926SOL    HW210618   6.899   4.132   6.413
 2927SOL     OW10619   4.264   2.761   7.946
 2927SOL    HW110620   4.199   2.815   7.902
 2927SOL    HW210621   4.343   2.770   7.894
 2928SOL     OW10622  13.280  10.830   9.422
 2928SOL    HW110623  13.225  10.906   9.405
 2928SOL    HW210624  13.310  10.841   9.512
 2929SOL     OW10625   6.366   4.781   4.483
 2929SOL    HW110626   6.291   4.838   4.499
 2929SOL    HW210627   6.378   4.783   4.388
 2930SOL     OW10628   4.529   6.874   8.581
 2930SOL    HW110629   4.620   6.854   8.563
 2930SOL    HW210630   4.481   6.796   8.553
 2931SOL     OW10631   8.728   3.980  14.390
 2931SOL    HW110632   8.679   3.909  14.432
 2931SOL    HW210633   8.761   3.942  14.309
 2932SOL     OW10634  10.091   2.922   6.582
 2932SOL    HW110635  10.133   2.886   6.504
 2932SOL    HW210636  10.097   3.017   6.571
 2933SOL     OW10637  10.751   3.355   2.459
 2933SOL    HW110638  10.713   3.313   2.381
 2933SOL    HW210639  10.806   3.425   2.424
 2934SOL     OW10640   2.982  10.387  13.630
 2934SOL    HW110641   3.027  10.368  13.711
 2934SOL    HW210642   3.004  10.478  13.611
 2935SOL     OW10643   1.368   4.298   2.090
 2935SOL    HW110644   1.364   4.384   2.049
 2935SOL    HW210645   1.397   4.240   2.020
 2936SOL     OW10646   0.151   6.111   0.288
 2936SOL    HW110647   0.144   6.201   0.318
 2936SOL    HW210648   0.108   6.111   0.203
 2937SOL     OW10649   0.428   5.849   9.190
 2937SOL    HW110650   0.502   5.909   9.195
 2937SOL    HW210651   0.384   5.857   9.275
 2938SOL     OW10652   6.867  11.558   9.123
 2938SOL    HW110653   6.804  11.597   9.184
 2938SOL    HW210654   6.820  11.482   9.086
 2939SOL     OW10655  12.574   1.023  11.110
 2939SOL    HW110656  12.565   1.115  11.083
 2939SOL    HW210657  12.522   1.016  11.190
 2940SOL     OW10658  12.875   9.044   8.637
 2940SOL    HW110659  12.815   9.117   8.651
 2940SOL    HW210660  12.922   9.036   8.720
 2941SOL     OW10661  10.355   9.757  10.695
 2941SOL    HW110662  10.365   9.748  10.600
 2941SOL    HW210663  10.401   9.682  10.731
 2942SOL     OW10664  12.511   8.992   3.257
 2942SOL    HW110665  12.573   9.010   3.328
 2942SOL    HW210666  12.489   8.900   3.267
 2943SOL     OW10667   7.568  13.859   2.933
 2943SOL    HW110668   7.552  13.885   2.843
 2943SOL    HW210669   7.511  13.915   2.985
 2944SOL     OW10670   8.023  13.279   3.584
 2944SOL    HW110671   8.030  13.277   3.488
 2944SOL    HW210672   7.984  13.195   3.607
 2945SOL     OW10673  10.930   8.872   1.899
 2945SOL    HW110674  10.983   8.911   1.969
 2945SOL    HW210675  10.994   8.845   1.833
 2946SOL     OW10676  14.477  14.827   0.007
 2946SOL    HW110677  14.490  14.758   0.073
 2946SOL    HW210678  14.389  14.812  14.855
 2947SOL     OW10679   6.607  14.327  13.717
 2947SOL    HW110680   6.675  14.386  13.684
 2947SOL    HW210681   6.600  14.259  13.650
 2948SOL     OW10682   7.504  14.355  10.377
 2948SOL    HW110683   7.506  14.435  10.430
 2948SOL    HW210684   7.451  14.379  10.301
 2949SOL     OW10685   3.650  14.838   9.406
 2949SOL    HW110686   3.649   0.002   9.490
 2949SOL    HW210687   3.730  14.868   9.363
 2950SOL     OW10688   1.108   9.490   4.741
 2950SOL    HW110689   1.042   9.420   4.736
 2950SOL    HW210690   1.170   9.470   4.670
 2951SOL     OW10691   7.978  14.689   5.757
 2951SOL    HW110692   7.908  14.672   5.694
 2951SOL    HW210693   7.953  14.770   5.800
 2952SOL     OW10694   5.419   0.481   7.337
 2952SOL    HW110695   5.483   0.439   7.280
 2952SOL    HW210696   5.396   0.562   7.291
 2953SOL     OW10697   7.351   8.294   4.794
 2953SOL    HW110698   7.384   8.213   4.754
 2953SOL    HW210699   7.365   8.282   4.887
 2954SOL     OW10700   5.898  14.509   2.698
 2954SOL    HW110701   5.827  14.518   2.634
 2954SOL    HW210702   5.934  14.597   2.707
 2955SOL     OW10703   2.437  13.399   4.168
 2955SOL    HW110704   2.510  13.450   4.133
 2955SOL    HW210705   2.408  13.344   4.095
 2956SOL     OW10706   7.694  11.055  11.077
 2956SOL    HW110707   7.713  11.146  11.100
 2956SOL    HW210708   7.632  11.026  11.143
 2957SOL     OW10709  11.038   6.932   4.803
 2957SOL    HW110710  11.019   6.877   4.727
 2957SOL    HW210711  11.020   6.876   4.879
 2958SOL     OW10712   1.331   7.868   7.863
 2958SOL    HW110713   1.313   7.962   7.858
 2958SOL    HW210714   1.402   7.861   7.928
 2959SOL     OW10715  12.913   5.142  13.723
 2959SOL    HW110716  13.002   5.177  13.727
 2959SOL    HW210717  12.925   5.049  13.702
 2960SOL     OW10718  13.506  14.009   4.796
 2960SOL    HW110719  13.512  14.003   4.701
 2960SOL    HW210720  13.441  14.078   4.812
 2961SOL     OW10721   3.432   5.436   2.113
 2961SOL    HW110722   3.486   5.473   2.183
 2961SOL    HW210723   3.358   5.395   2.158
 2962SOL     OW10724   9.237  14.394  13.306
 2962SOL    HW110725   9.240  14.344  13.224
 2962SOL    HW210726   9.153  14.370  13.346
 2963SOL     OW10727  13.211   3.941   5.411
 2963SOL    HW110728  13.234   3.880   5.482
 2963SOL    HW210729  13.261   3.910   5.336
 2964SOL     OW10730   6.132   9.542   1.340
 2964SOL    HW110731   6.093   9.610   1.285
 2964SOL    HW210732   6.221   9.532   1.306
 2965SOL     OW10733  10.912   0.214  10.656
 2965SOL    HW110734  10.833   0.266  10.667
 2965SOL    HW210735  10.932   0.220  10.563
 2966SOL     OW10736   4.732  13.762  11.636
 2966SOL    HW110737   4.817  13.721  11.656
 2966SOL    HW210738   4.701  13.795  11.720
 2967SOL     OW10739   4.046  13.195  14.579
 2967SOL    HW110740   3.987  13.269  14.562
 2967SOL    HW210741   4.123  13.212  14.523
 2968SOL     OW10742  13.062   0.894   1.977
 2968SOL    HW110743  13.025   0.955   2.041
 2968SOL    HW210744  13.116   0.834   2.029
 2969SOL     OW10745  12.359   2.747  10.560
 2969SOL    HW110746  12.430   2.729  10.623
 2969SOL    HW210747  12.279   2.733  10.610
 2970SOL     OW10748  13.531   0.583   9.874
 2970SOL    HW110749  13.612   0.601   9.826
 2970SOL    HW210750  13.555   0.589   9.966
 2971SOL     OW10751  14.212   0.178   7.903
 2971SOL    HW110752  14.120   0.166   7.880
 2971SOL    HW210753  14.210   0.214   7.992
 2972SOL     OW10754   2.507   4.874  12.964
 2972SOL    HW110755   2.599   4.897  12.977
 2972SOL    HW210756   2.485   4.914  12.879
 2973SOL     OW10757   0.920   8.733   3.528
 2973SOL    HW110758   0.900   8.651   3.483
 2973SOL    HW210759   0.843   8.750   3.582
 2974SOL     OW10760   5.424   5.942   8.007
 2974SOL    HW110761   5.373   5.876   8.053
 2974SOL    HW210762   5.361   6.010   7.984
 2975SOL     OW10763   6.092   6.648  13.319
 2975SOL    HW110764   6.118   6.695  13.240
 2975SOL    HW210765   5.998   6.635  13.310
 2976SOL     OW10766   5.604   2.326  10.897
 2976SOL    HW110767   5.616   2.235  10.873
 2976SOL    HW210768   5.559   2.366  10.823
 2977SOL     OW10769  11.645   6.309   5.723
 2977SOL    HW110770  11.693   6.342   5.799
 2977SOL    HW210771  11.553   6.307   5.753
 2978SOL     OW10772   1.650   7.093   9.355
 2978SOL    HW110773   1.680   7.024   9.296
 2978SOL    HW210774   1.674   7.063   9.442
 2979SOL     OW10775  12.557   8.600   5.136
 2979SOL    HW110776  12.493   8.529   5.147
 2979SOL    HW210777  12.633   8.558   5.097
 2980SOL     OW10778   6.131   9.905   6.721
 2980SOL    HW110779   6.049   9.855   6.722
 2980SOL    HW210780   6.153   9.913   6.628
 2981SOL     OW10781   0.821  13.416   5.622
 2981SOL    HW110782   0.915  13.432   5.619
 2981SOL    HW210783   0.787  13.482   5.683
 2982SOL     OW10784   5.021   4.036   4.420
 2982SOL    HW110785   5.068   4.067   4.497
 2982SOL    HW210786   5.073   4.067   4.346
 2983SOL     OW10787   5.250   2.983  14.660
 2983SOL    HW110788   5.274   2.914  14.722
 2983SOL    HW210789   5.200   3.046  14.713
 2984SOL     OW10790   3.245  10.100   0.586
 2984SOL    HW110791   3.276  10.180   0.544
 2984SOL    HW210792   3.306  10.086   0.659
 2985SOL     OW10793  11.250   4.512   4.509
 2985SOL    HW110794  11.248   4.582   4.575
 2985SOL    HW210795  11.186   4.539   4.443
 2986SOL     OW10796  14.452   8.853   2.363
 2986SOL    HW110797  14.500   8.867   2.444
 2986SOL    HW210798  14.361   8.840   2.391
 2987SOL     OW10799  11.809  10.247   8.562
 2987SOL    HW110800  11.873  10.180   8.538
 2987SOL    HW210801  11.760  10.209   8.635
 2988SOL     OW10802   6.775  12.671  13.391
 2988SOL    HW110803   6.811  12.636  13.472
 2988SOL    HW210804   6.818  12.756  13.381
 2989SOL     OW10805   6.979   2.951   1.622
 2989SOL    HW110806   7.054   2.998   1.658
 2989SOL    HW210807   6.923   2.935   1.698
 2990SOL     OW10808  13.665   2.569   5.571
 2990SOL    HW110809  13.724   2.563   5.646
 2990SOL    HW210810  13.677   2.658   5.538
 2991SOL     OW10811   5.404   6.804  14.423
 2991SOL    HW110812   5.335   6.808  14.489
 2991SOL    HW210813   5.459   6.880  14.442
 2992SOL     OW10814   9.836   1.764   9.416
 2992SOL    HW110815   9.928   1.749   9.439
 2992SOL    HW210816   9.797   1.799   9.496
 2993SOL     OW10817  14.056   1.270   2.526
 2993SOL    HW110818  13.977   1.314   2.555
 2993SOL    HW210819  14.061   1.192   2.580
 2994SOL     OW10820  12.201   7.283   9.440
 2994SOL    HW110821  12.274   7.269   9.379
 2994SOL    HW210822  12.199   7.377   9.454
 2995SOL     OW10823   7.290   5.225  14.288
 2995SOL    HW110824   7.211   5.215  14.341
 2995SOL    HW210825   7.289   5.148  14.231
 2996SOL     OW10826  13.416  10.522   7.112
 2996SOL    HW110827  13.448  10.557   7.029
 2996SOL    HW210828  13.321  10.537   7.109
 2997SOL     OW10829   0.223   9.127  13.514
 2997SOL    HW110830   0.228   9.046  13.565
 2997SOL    HW210831   0.162   9.106  13.443
 2998SOL     OW10832  12.998  14.876  11.022
 2998SOL    HW110833  13.080   0.042  11.013
 2998SOL    HW210834  12.943   0.027  10.951
 2999SOL     OW10835   2.022   9.368   6.777
 2999SOL    HW110836   2.115   9.372   6.796
 2999SOL    HW210837   2.004   9.449   6.729
 3000SOL     OW10838   0.983  11.731   6.162
 3000SOL    HW110839   0.984  11.743   6.067
 3000SOL    HW210840   1.024  11.810   6.196
 3001SOL     OW10841   3.272  12.866   1.807
 3001SOL    HW110842   3.194  12.918   1.788
 3001SOL    HW210843   3.239  12.781   1.836
 3002SOL     OW10844   8.080   1.376   9.884
 3002SOL    HW110845   8.052   1.411   9.968
 3002SOL    HW210846   8.022   1.417   9.820
 3003SOL     OW10847   8.184   3.155   7.108
 3003SOL    HW110848   8.226   3.149   7.194
 3003SOL    HW210849   8.092   3.134   7.124
 3004SOL     OW10850  12.904  14.860   3.278
 3004SOL    HW110851  12.878  14.792   3.216
 3004SOL    HW210852  12.914   0.057   3.225
 3005SOL     OW10853   1.511   8.797   1.078
 3005SOL    HW110854   1.473   8.781   0.991
 3005SOL    HW210855   1.571   8.870   1.064
 3006SOL     OW10856   8.677   8.654   6.342
 3006SOL    HW110857   8.669   8.606   6.260
 3006SOL    HW210858   8.587   8.657   6.376
 3007SOL     OW10859   6.422   7.518   0.320
 3007SOL    HW110860   6.486   7.478   0.379
 3007SOL    HW210861   6.407   7.606   0.355
 3008SOL     OW10862   7.729   3.828   8.477
 3008SOL    HW110863   7.806   3.771   8.488
 3008SOL    HW210864   7.756   3.912   8.516
 3009SOL     OW10865  12.566   6.062   6.627
 3009SOL    HW110866  12.520   5.996   6.679
 3009SOL    HW210867  12.504   6.134   6.619
 3010SOL     OW10868   4.783   1.437  11.412
 3010SOL    HW110869   4.828   1.489  11.479
 3010SOL    HW210870   4.709   1.398  11.458
 3011SOL     OW10871   9.411   2.444  14.355
 3011SOL    HW110872   9.382   2.481  14.438
 3011SOL    HW210873   9.482   2.501  14.326
 3012SOL     OW10874  13.489   0.416   4.880
 3012SOL    HW110875  13.499   0.324   4.856
 3012SOL    HW210876  13.473   0.415   4.975
 3013SOL     OW10877   0.494  10.309   6.088
 3013SOL    HW110878   0.432  10.353   6.029
 3013SOL    HW210879   0.534  10.381   6.137
 3014SOL     OW10880  10.715  11.081   1.732
 3014SOL    HW110881  10.797  11.047   1.697
 3014SOL    HW210882  10.658  11.005   1.739
 3015SOL     OW10883   9.986  12.668   6.659
 3015SOL    HW110884   9.963  12.721   6.583
 3015SOL    HW210885  10.008  12.732   6.727
 3016SOL     OW10886   9.829   8.017   5.865
 3016SOL    HW110887   9.802   7.958   5.794
 3016SOL    HW210888   9.920   7.995   5.882
 3017SOL     OW10889   5.714   2.433   6.743
 3017SOL    HW110890   5.655   2.359   6.762
 3017SOL    HW210891   5.658   2.510   6.745
 3018SOL     OW10892   0.380  12.231  12.975
 3018SOL    HW110893   0.362  12.311  12.926
 3018SOL    HW210894   0.299  12.213  13.022
 3019SOL     OW10895   9.757  14.729  12.199
 3019SOL    HW110896   9.797  14.732  12.286
 3019SOL    HW210897   9.829  14.713  12.139
 3020SOL     OW10898  13.678   8.388  10.563
 3020SOL    HW110899  13.610   8.322  10.576
 3020SOL    HW210900  13.659   8.455  10.628
 3021SOL     OW10901   3.520   1.048   4.771
 3021SOL    HW110902   3.531   0.954   4.757
 3021SOL    HW210903   3.596   1.088   4.728
 3022SOL     OW10904   8.698   3.527   8.327
 3022SOL    HW110905   8.659   3.451   8.285
 3022SOL    HW210906   8.628   3.564   8.380
 3023SOL     OW10907  10.106   9.919   3.384
 3023SOL    HW110908  10.099  10.015   3.391
 3023SOL    HW210909  10.017   9.888   3.399
 3024SOL     OW10910   8.359   9.945   2.793
 3024SOL    HW110911   8.280   9.905   2.828
 3024SOL    HW210912   8.362   9.916   2.701
 3025SOL     OW10913   6.548   5.767  14.828
 3025SOL    HW110914   6.630   5.745  14.873
 3025SOL    HW210915   6.519   5.848  14.870
 3026SOL     OW10916  11.026  11.821  11.148
 3026SOL    HW110917  10.977  11.740  11.133
 3026SOL    HW210918  11.011  11.873  11.069
 3027SOL     OW10919  14.761   5.602  14.496
 3027SOL    HW110920  14.831   5.539  14.514
 3027SOL    HW210921  14.729   5.628  14.582
 3028SOL     OW10922   9.394   4.355   3.451
 3028SOL    HW110923   9.386   4.265   3.420
 3028SOL    HW210924   9.367   4.351   3.543
 3029SOL     OW10925   6.274   6.670   5.149
 3029SOL    HW110926   6.333   6.598   5.128
 3029SOL    HW210927   6.270   6.671   5.245
 3030SOL     OW10928  11.847   4.645   0.092
 3030SOL    HW110929  11.910   4.587   0.048
 3030SOL    HW210930  11.782   4.586   0.129
 3031SOL     OW10931  13.523   9.788  12.988
 3031SOL    HW110932  13.552   9.731  13.060
 3031SOL    HW210933  13.436   9.818  13.016
 3032SOL     OW10934   4.566  12.507  12.895
 3032SOL    HW110935   4.655  12.513  12.859
 3032SOL    HW210936   4.578  12.471  12.983
 3033SOL     OW10937  14.605  13.057  12.066
 3033SOL    HW110938  14.639  13.146  12.073
 3033SOL    HW210939  14.531  13.054  12.126
 3034SOL     OW10940  10.312   4.333   0.582
 3034SOL    HW110941  10.256   4.257   0.601
 3034SOL    HW210942  10.261   4.408   0.610
 3035SOL     OW10943  10.656   5.541  12.320
 3035SOL    HW110944  10.610   5.458  12.308
 3035SOL    HW210945  10.710   5.550  12.242
 3036SOL     OW10946   7.745   3.259   6.240
 3036SOL    HW110947   7.790   3.230   6.160
 3036SOL    HW210948   7.813   3.307   6.288
 3037SOL     OW10949   9.064  11.164  14.864
 3037SOL    HW110950   9.032  11.202  14.782
 3037SOL    HW210951   9.074  11.071  14.845
 3038SOL     OW10952   3.280  12.777  13.298
 3038SOL    HW110953   3.325  12.862  13.299
 3038SOL    HW210954   3.223  12.780  13.375
 3039SOL     OW10955  11.476   1.842  13.073
 3039SOL    HW110956  11.565   1.821  13.102
 3039SOL    HW210957  11.419   1.794  13.132
 3040SOL     OW10958  12.112   1.242   3.784
 3040SOL    HW110959  12.166   1.273   3.857
 3040SOL    HW210960  12.032   1.294   3.791
 3041SOL     OW10961   9.588   6.382   2.957
 3041SOL    HW110962   9.601   6.318   2.888
 3041SOL    HW210963   9.494   6.395   2.961
 3042SOL     OW10964   2.524   2.330   5.316
 3042SOL    HW110965   2.445   2.354   5.269
 3042SOL    HW210966   2.581   2.290   5.250
 3043SOL     OW10967  14.541   3.884   9.054
 3043SOL    HW110968  14.578   3.869   9.141
 3043SOL    HW210969  14.494   3.803   9.034
 3044SOL     OW10970   9.318   5.709   9.852
 3044SOL    HW110971   9.256   5.782   9.853
 3044SOL    HW210972   9.269   5.634   9.885
 3045SOL     OW10973  14.097   6.797   6.034
 3045SOL    HW110974  14.107   6.891   6.021
 3045SOL    HW210975  14.030   6.789   6.102
 3046SOL     OW10976   8.894  13.602   0.932
 3046SOL    HW110977   8.799  13.607   0.943
 3046SOL    HW210978   8.919  13.525   0.982
 3047SOL     OW10979  11.702   7.870  13.312
 3047SOL    HW110980  11.616   7.911  13.316
 3047SOL    HW210981  11.719   7.858  13.218
 3048SOL     OW10982  12.467   7.449   0.886
 3048SOL    HW110983  12.527   7.514   0.923
 3048SOL    HW210984  12.402   7.435   0.956
 3049SOL     OW10985  11.460  13.465   4.145
 3049SOL    HW110986  11.414  13.384   4.124
 3049SOL    HW210987  11.504  13.489   4.063
 3050SOL     OW10988   5.321   2.642   8.769
 3050SOL    HW110989   5.329   2.719   8.825
 3050SOL    HW210990   5.363   2.668   8.687
 3051SOL     OW10991  13.559   0.944  12.797
 3051SOL    HW110992  13.577   0.853  12.822
 3051SOL    HW210993  13.524   0.984  12.877
 3052SOL     OW10994  13.053   2.847   2.843
 3052SOL    HW110995  13.070   2.753   2.848
 3052SOL    HW210996  13.138   2.888   2.858
 3053SOL     OW10997  12.294   7.878  13.133
 3053SOL    HW110998  12.240   7.926  13.195
 3053SOL    HW210999  12.232   7.824  13.084
 3054SOL     OW11000   9.840   4.548   6.381
 3054SOL    HW111001   9.928   4.541   6.344
 3054SOL    HW211002   9.853   4.592   6.465
 3055SOL     OW11003   0.718   2.952  11.005
 3055SOL    HW111004   0.713   2.876  11.064
 3055SOL    HW211005   0.714   2.915  10.917
 3056SOL     OW11006  11.806   3.897   4.126
 3056SOL    HW111007  11.888   3.946   4.118
 3056SOL    HW211008  11.826   3.811   4.089
 3057SOL     OW11009   8.669   8.702   7.165
 3057SOL    HW111010   8.720   8.628   7.133
 3057SOL    HW211011   8.719   8.779   7.138
 3058SOL     OW11012  10.009  13.593   4.829
 3058SOL    HW111013   9.948  13.527   4.862
 3058SOL    HW211014  10.093  13.570   4.869
 3059SOL     OW11015  14.123  10.049   1.305
 3059SOL    HW111016  14.056  10.083   1.364
 3059SOL    HW211017  14.200  10.102   1.324
 3060SOL     OW11018   6.295  10.727   0.051
 3060SOL    HW111019   6.284  10.635   0.028
 3060SOL    HW211020   6.305  10.728   0.146
 3061SOL     OW11021  14.411   7.703   7.120
 3061SOL    HW111022  14.406   7.608   7.108
 3061SOL    HW211023  14.352   7.722   7.192
 3062SOL     OW11024   7.124   4.457   9.779
 3062SOL    HW111025   7.187   4.414   9.837
 3062SOL    HW211026   7.075   4.517   9.835
 3063SOL     OW11027   3.064   9.881   9.399
 3063SOL    HW111028   3.045   9.829   9.477
 3063SOL    HW211029   3.139   9.935   9.424
 3064SOL     OW11030   6.214  14.227  14.337
 3064SOL    HW111031   6.125  14.249  14.365
 3064SOL    HW211032   6.234  14.290  14.268
 3065SOL     OW11033   2.304   7.390   8.631
 3065SOL    HW111034   2.306   7.474   8.586
 3065SOL    HW211035   2.355   7.405   8.711
 3066SOL     OW11036   9.252   4.223  13.111
 3066SOL    HW111037   9.166   4.264  13.113
 3066SOL    HW211038   9.313   4.294  13.132
 3067SOL     OW11039  11.445   1.190  13.652
 3067SOL    HW111040  11.510   1.203  13.720
 3067SOL    HW211041  11.460   1.100  13.621
 3068SOL     OW11042   0.783  13.499  13.021
 3068SOL    HW111043   0.776  13.538  12.934
 3068SOL    HW211044   0.701  13.525  13.065
 3069SOL     OW11045  11.637  11.755  13.738
 3069SOL    HW111046  11.692  11.832  13.751
 3069SOL    HW211047  11.674  11.711  13.662
 3070SOL     OW11048   5.308   1.055  13.767
 3070SOL    HW111049   5.392   1.100  13.755
 3070SOL    HW211050   5.298   1.048  13.862
 3071SOL     OW11051   3.367   0.168   0.183
 3071SOL    HW111052   3.303   0.118   0.232
 3071SOL    HW211053   3.452   0.128   0.205
 3072SOL     OW11054  10.397   1.763  10.549
 3072SOL    HW111055  10.368   1.750  10.458
 3072SOL    HW211056  10.353   1.843  10.577
 3073SOL     OW11057   2.571  11.781   7.003
 3073SOL    HW111058   2.498  11.842   7.013
 3073SOL    HW211059   2.595  11.757   7.092
 3074SOL     OW11060  13.336  12.278   1.442
 3074SOL    HW111061  13.399  12.257   1.511
 3074SOL    HW211062  13.287  12.196   1.429
 3075SOL     OW11063   1.509   2.435  13.426
 3075SOL    HW111064   1.557   2.353  13.431
 3075SOL    HW211065   1.577   2.503  13.425
 3076SOL     OW11066   3.656  10.498   5.018
 3076SOL    HW111067   3.712  10.563   4.975
 3076SOL    HW211068   3.678  10.415   4.976
 3077SOL     OW11069  13.318   5.196   2.798
 3077SOL    HW111070  13.353   5.230   2.715
 3077SOL    HW211071  13.393   5.151   2.838
 3078SOL     OW11072   3.913  13.668  10.742
 3078SOL    HW111073   3.939  13.744  10.690
 3078SOL    HW211074   3.840  13.629  10.694
 3079SOL     OW11075   5.435   3.937   4.374
 3079SOL    HW111076   5.465   3.954   4.464
 3079SOL    HW211077   5.421   3.842   4.372
 3080SOL     OW11078   3.447   7.373  13.049
 3080SOL    HW111079   3.536   7.340  13.036
 3080SOL    HW211080   3.459   7.464  13.077
 3081SOL     OW11081   0.242  13.974   7.567
 3081SOL    HW111082   0.246  13.909   7.637
 3081SOL    HW211083   0.308  13.946   7.504
 3082SOL     OW11084  12.339   4.086   3.248
 3082SOL    HW111085  12.353   4.155   3.183
 3082SOL    HW211086  12.352   4.130   3.332
 3083SOL     OW11087  10.690  10.647   3.241
 3083SOL    HW111088  10.596  10.652   3.258
 3083SOL    HW211089  10.704  10.706   3.167
 3084SOL     OW11090  12.211  10.719  14.584
 3084SOL    HW111091  12.286  10.695  14.639
 3084SOL    HW211092  12.168  10.790  14.631
 3085SOL     OW11093  11.364  14.390   7.483
 3085SOL    HW111094  11.358  14.317   7.421
 3085SOL    HW211095  11.351  14.350   7.569
 3086SOL     OW11096   1.577  12.555   0.088
 3086SOL    HW111097   1.633  12.500   0.144
 3086SOL    HW211098   1.611  12.540  14.882
 3087SOL     OW11099   2.024   2.364   7.907
 3087SOL    HW111100   2.115   2.342   7.928
 3087SOL    HW211101   2.030   2.428   7.837
 3088SOL     OW11102  13.463   6.946  11.247
 3088SOL    HW111103  13.451   7.000  11.168
 3088SOL    HW211104  13.427   6.860  11.223
 3089SOL     OW11105  14.244  10.767  11.400
 3089SOL    HW111106  14.220  10.699  11.336
 3089SOL    HW211107  14.305  10.723  11.459
 3090SOL     OW11108   9.907   4.935   9.583
 3090SOL    HW111109   9.908   4.879   9.661
 3090SOL    HW211110   9.865   5.016   9.611
 3091SOL     OW11111   3.541  10.054   6.222
 3091SOL    HW111112   3.492  10.005   6.156
 3091SOL    HW211113   3.569   9.987   6.285
 3092SOL     OW11114   6.720   9.061   4.814
 3092SOL    HW111115   6.743   8.993   4.877
 3092SOL    HW211116   6.640   9.101   4.848
 3093SOL     OW11117   4.868  12.067   2.900
 3093SOL    HW111118   4.814  12.080   2.822
 3093SOL    HW211119   4.955  12.096   2.873
 3094SOL     OW11120   0.473  10.389  10.104
 3094SOL    HW111121   0.432  10.410  10.188
 3094SOL    HW211122   0.499  10.297  10.112
 3095SOL     OW11123   9.174  10.592   9.339
 3095SOL    HW111124   9.269  10.593   9.330
 3095SOL    HW211125   9.158  10.605   9.432
 3096SOL     OW11126   4.877   2.569  13.934
 3096SOL    HW111127   4.878   2.576  14.030
 3096SOL    HW211128   4.921   2.648  13.904
 3097SOL     OW11129   6.307  11.101   6.942
 3097SOL    HW111130   6.298  11.115   7.036
 3097SOL    HW211131   6.320  11.189   6.906
 3098SOL     OW11132  11.491  11.102   7.012
 3098SOL    HW111133  11.572  11.074   6.969
 3098SOL    HW211134  11.431  11.120   6.940
 3099SOL     OW11135  12.632   7.062   2.940
 3099SOL    HW111136  12.556   7.008   2.960
 3099SOL    HW211137  12.666   7.088   3.026
 3100SOL     OW11138   8.506   0.469  11.717
 3100SOL    HW111139   8.452   0.459  11.796
 3100SOL    HW211140   8.511   0.563  11.703
 3101SOL     OW11141   7.362   3.641   6.762
 3101SOL    HW111142   7.322   3.659   6.677
 3101SOL    HW211143   7.342   3.548   6.778
 3102SOL     OW11144   9.894  14.549   1.444
 3102SOL    HW111145   9.939  14.526   1.525
 3102SOL    HW211146   9.962  14.541   1.377
 3103SOL     OW11147   9.612   4.605  10.952
 3103SOL    HW111148   9.626   4.548  10.876
 3103SOL    HW211149   9.642   4.553  11.026
 3104SOL     OW11150   5.015   5.452   3.735
 3104SOL    HW111151   4.941   5.391   3.735
 3104SOL    HW211152   5.093   5.396   3.743
 3105SOL     OW11153  10.825   0.499  12.018
 3105SOL    HW111154  10.829   0.465  11.928
 3105SOL    HW211155  10.801   0.591  12.008
 3106SOL     OW11156   4.126   7.520   8.664
 3106SOL    HW111157   4.075   7.591   8.703
 3106SOL    HW211158   4.089   7.441   8.702
 3107SOL     OW11159   7.712   5.037   5.488
 3107SOL    HW111160   7.724   5.128   5.514
 3107SOL    HW211161   7.704   4.989   5.571
 3108SOL     OW11162   8.819  10.972   8.980
 3108SOL    HW111163   8.818  11.045   9.042
 3108SOL    HW211164   8.910  10.946   8.974
 3109SOL     OW11165   9.470   0.159   1.689
 3109SOL    HW111166   9.523   0.080   1.679
 3109SOL    HW211167   9.445   0.183   1.599
 3110SOL     OW11168  11.000   8.617   8.142
 3110SOL    HW111169  10.962   8.534   8.113
 3110SOL    HW211170  10.934   8.656   8.199
 3111SOL     OW11171  11.034   4.317   6.218
 3111SOL    HW111172  11.070   4.340   6.132
 3111SOL    HW211173  11.109   4.283   6.267
 3112SOL     OW11174  10.277   2.364  11.948
 3112SOL    HW111175  10.185   2.387  11.935
 3112SOL    HW211176  10.306   2.420  12.020
 3113SOL     OW11177   2.288   5.580  10.608
 3113SOL    HW111178   2.294   5.532  10.691
 3113SOL    HW211179   2.341   5.659  10.623
 3114SOL     OW11180   0.613   0.784   4.895
 3114SOL    HW111181   0.651   0.836   4.965
 3114SOL    HW211182   0.687   0.739   4.855
 3115SOL     OW11183   2.933   8.732   8.514
 3115SOL    HW111184   2.896   8.810   8.556
 3115SOL    HW211185   2.919   8.662   8.577
 3116SOL     OW11186   5.896   4.273   0.699
 3116SOL    HW111187   5.800   4.270   0.702
 3116SOL    HW211188   5.920   4.352   0.747
 3117SOL     OW11189  10.487  13.514  10.232
 3117SOL    HW111190  10.558  13.575  10.252
 3117SOL    HW211191  10.512  13.474  10.149
 3118SOL     OW11192   8.856   9.154   7.629
 3118SOL    HW111193   8.853   9.104   7.711
 3118SOL    HW211194   8.767   9.189   7.620
 3119SOL     OW11195   8.802   0.272  13.317
 3119SOL    HW111196   8.892   0.300  13.336
 3119SOL    HW211197   8.812   0.183  13.285
 3120SOL     OW11198   5.760   5.478   7.729
 3120SOL    HW111199   5.731   5.470   7.638
 3120SOL    HW211200   5.854   5.495   7.722
 3121SOL     OW11201  13.274   8.920  13.774
 3121SOL    HW111202  13.224   8.898  13.695
 3121SOL    HW211203  13.211   8.965  13.830
 3122SOL     OW11204   5.197  13.571  12.337
 3122SOL    HW111205   5.275  13.616  12.306
 3122SOL    HW211206   5.137  13.573  12.262
 3123SOL     OW11207   0.009  10.826   6.331
 3123SOL    HW111208   0.072  10.776   6.279
 3123SOL    HW211209   0.062  10.871   6.397
 3124SOL     OW11210   0.219  12.076   8.319
 3124SOL    HW111211   0.229  11.981   8.324
 3124SOL    HW211212   0.301  12.107   8.280
 3125SOL     OW11213   9.389  12.622   7.484
 3125SOL    HW111214   9.347  12.545   7.447
 3125SOL    HW211215   9.472  12.629   7.436
 3126SOL     OW11216   3.024  10.361   5.399
 3126SOL    HW111217   3.070  10.436   5.438
 3126SOL    HW211218   2.934  10.369   5.430
 3127SOL     OW11219  13.949   7.963   9.871
 3127SOL    HW111220  13.867   8.004   9.898
 3127SOL    HW211221  13.995   7.943   9.952
 3128SOL     OW11222   5.757   8.532   3.803
 3128SOL    HW111223   5.755   8.437   3.794
 3128SOL    HW211224   5.835   8.549   3.856
 3129SOL     OW11225  11.153   9.546   3.888
 3129SOL    HW111226  11.199   9.476   3.842
 3129SOL    HW211227  11.063   9.540   3.857
 3130SOL     OW11228  10.201   4.294   7.131
 3130SOL    HW111229  10.241   4.233   7.192
 3130SOL    HW211230  10.137   4.240   7.083
 3131SOL     OW11231  11.958   9.760   4.108
 3131SOL    HW111232  11.900   9.756   4.032
 3131SOL    HW211233  11.920   9.698   4.170
 3132SOL     OW11234   2.015  14.131   3.208
 3132SOL    HW111235   2.059  14.083   3.278
 3132SOL    HW211236   1.994  14.064   3.142
 3133SOL     OW11237   3.031   1.721   3.477
 3133SOL    HW111238   2.957   1.769   3.440
 3133SOL    HW211239   2.993   1.638   3.507
 3134SOL     OW11240   4.415   1.610  14.235
 3134SOL    HW111241   4.388   1.634  14.147
 3134SOL    HW211242   4.351   1.652  14.293
 3135SOL     OW11243   7.419  12.393   2.475
 3135SOL    HW111244   7.344  12.370   2.420
 3135SOL    HW211245   7.452  12.474   2.438
 3136SOL     OW11246   5.943   3.562   0.047
 3136SOL    HW111247   5.915   3.551   0.137
 3136SOL    HW211248   5.906   3.646   0.020
 3137SOL     OW11249   6.207   7.931  12.800
 3137SOL    HW111250   6.218   7.836  12.794
 3137SOL    HW211251   6.245   7.964  12.718
 3138SOL     OW11252  13.144   8.328  10.822
 3138SOL    HW111253  13.157   8.420  10.797
 3138SOL    HW211254  13.164   8.325  10.915
 3139SOL     OW11255  14.340   9.627   2.520
 3139SOL    HW111256  14.271   9.583   2.569
 3139SOL    HW211257  14.368   9.699   2.576
 3140SOL     OW11258  11.581  14.667   7.930
 3140SOL    HW111259  11.593  14.694   8.022
 3140SOL    HW211260  11.546  14.578   7.936
 3141SOL     OW11261   1.214   8.252   9.904
 3141SOL    HW111262   1.209   8.167   9.860
 3141SOL    HW211263   1.181   8.235   9.992
 3142SOL     OW11264   5.557  13.100  14.756
 3142SOL    HW111265   5.613  13.056  14.692
 3142SOL    HW211266   5.508  13.030  14.798
 3143SOL     OW11267   8.054  10.059  13.919
 3143SOL    HW111268   8.055   9.983  13.861
 3143SOL    HW211269   8.088  10.131  13.864
 3144SOL     OW11270   7.749  12.308  12.834
 3144SOL    HW111271   7.709  12.309  12.921
 3144SOL    HW211272   7.706  12.235  12.789
 3145SOL     OW11273   8.511  12.400   1.382
 3145SOL    HW111274   8.556  12.402   1.466
 3145SOL    HW211275   8.431  12.450   1.396
 3146SOL     OW11276  13.466  14.169   5.123
 3146SOL    HW111277  13.514  14.219   5.057
 3146SOL    HW211278  13.530  14.107   5.158
 3147SOL     OW11279   5.399   1.985   0.458
 3147SOL    HW111280   5.464   2.032   0.509
 3147SOL    HW211281   5.315   2.007   0.500
 3148SOL     OW11282   0.376   3.378   5.099
 3148SOL    HW111283   0.315   3.306   5.114
 3148SOL    HW211284   0.436   3.344   5.032
 3149SOL     OW11285   1.954   2.507  12.049
 3149SOL    HW111286   1.922   2.582  11.999
 3149SOL    HW211287   1.904   2.432  12.017
 3150SOL     OW11288   9.579  14.485   4.240
 3150SOL    HW111289   9.499  14.457   4.285
 3150SOL    HW211290   9.605  14.565   4.285
 3151SOL     OW11291   9.314   8.094  10.437
 3151SOL    HW111292   9.408   8.077  10.430
 3151SOL    HW211293   9.301   8.117  10.529
 3152SOL     OW11294   7.500   1.573   6.031
 3152SOL    HW111295   7.512   1.498   5.973
 3152SOL    HW211296   7.412   1.605   6.011
 3153SOL     OW11297   2.265   2.928   4.102
 3153SOL    HW111298   2.173   2.934   4.128
 3153SOL    HW211299   2.300   3.016   4.117
 3154SOL     OW11300   4.535  11.254  12.344
 3154SOL    HW111301   4.593  11.192  12.299
 3154SOL    HW211302   4.448  11.236  12.309
 3155SOL     OW11303   1.010   9.365   5.391
 3155SOL    HW111304   0.982   9.297   5.330
 3155SOL    HW211305   1.018   9.444   5.337
 3156SOL     OW11306   1.969  14.159  10.540
 3156SOL    HW111307   2.005  14.078  10.503
 3156SOL    HW211308   2.025  14.178  10.615
 3157SOL     OW11309   0.351   7.782  10.013
 3157SOL    HW111310   0.349   7.800  10.107
 3157SOL    HW211311   0.261   7.755   9.992
 3158SOL     OW11312   6.009   5.243   7.657
 3158SOL    HW111313   6.046   5.167   7.612
 3158SOL    HW211314   6.043   5.236   7.747
 3159SOL     OW11315  14.326  13.196   2.604
 3159SOL    HW111316  14.387  13.270   2.604
 3159SOL    HW211317  14.240  13.236   2.594
 3160SOL     OW11318   2.279  14.235  12.874
 3160SOL    HW111319   2.294  14.153  12.921
 3160SOL    HW211320   2.364  14.279  12.876
 3161SOL     OW11321  11.696   9.250   0.783
 3161SOL    HW111322  11.761   9.185   0.757
 3161SOL    HW211323  11.621   9.199   0.813
 3162SOL     OW11324   9.489  12.802  11.107
 3162SOL    HW111325   9.502  12.870  11.040
 3162SOL    HW211326   9.465  12.724  11.057
 3163SOL     OW11327   6.257   9.054   3.662
 3163SOL    HW111328   6.172   9.074   3.702
 3163SOL    HW211329   6.281   9.133   3.615
 3164SOL     OW11330   3.795  13.671   6.460
 3164SOL    HW111331   3.844  13.589   6.453
 3164SOL    HW211332   3.703  13.644   6.464
 3165SOL     OW11333  11.289   3.365  13.651
 3165SOL    HW111334  11.272   3.424  13.578
 3165SOL    HW211335  11.208   3.367  13.703
 3166SOL     OW11336   9.165   3.519  12.247
 3166SOL    HW111337   9.232   3.578  12.211
 3166SOL    HW211338   9.099   3.513  12.178
 3167SOL     OW11339   2.147  12.066   8.981
 3167SOL    HW111340   2.153  12.070   9.076
 3167SOL    HW211341   2.202  11.991   8.957
 3168SOL     OW11342  13.228   9.560  11.456
 3168SOL    HW111343  13.175   9.481  11.466
 3168SOL    HW211344  13.221   9.605  11.540
 3169SOL     OW11345   4.838   9.192  14.339
 3169SOL    HW111346   4.881   9.112  14.309
 3169SOL    HW211347   4.901   9.261  14.317
 3170SOL     OW11348  10.096   4.809   5.069
 3170SOL    HW111349  10.143   4.782   5.148
 3170SOL    HW211350  10.159   4.796   4.998
 3171SOL     OW11351  13.552   3.238  10.407
 3171SOL    HW111352  13.470   3.260  10.362
 3171SOL    HW211353  13.589   3.167  10.355
 3172SOL     OW11354   8.768   9.288   1.475
 3172SOL    HW111355   8.797   9.228   1.543
 3172SOL    HW211356   8.776   9.239   1.393
 3173SOL     OW11357  13.992  14.761   9.236
 3173SOL    HW111358  14.045  14.740   9.159
 3173SOL    HW211359  14.050  14.743   9.310
 3174SOL     OW11360   7.375   9.509   8.532
 3174SOL    HW111361   7.376   9.429   8.478
 3174SOL    HW211362   7.465   9.541   8.528
 3175SOL     OW11363   9.030   5.719   8.414
 3175SOL    HW111364   9.097   5.710   8.482
 3175SOL    HW211365   9.078   5.713   8.331
 3176SOL     OW11366  11.264   9.407   7.689
 3176SOL    HW111367  11.342   9.455   7.719
 3176SOL    HW211368  11.282   9.316   7.711
 3177SOL     OW11369   0.068  12.591  13.990
 3177SOL    HW111370   0.079  12.526  14.060
 3177SOL    HW211371   0.149  12.642  13.991
 3178SOL     OW11372   2.052   4.576   8.368
 3178SOL    HW111373   1.964   4.545   8.350
 3178SOL    HW211374   2.106   4.497   8.368
 3179SOL     OW11375   2.462   7.823  13.153
 3179SOL    HW111376   2.387   7.876  13.125
 3179SOL    HW211377   2.472   7.843  13.246
 3180SOL     OW11378  11.538   2.890   5.685
 3180SOL    HW111379  11.631   2.908   5.701
 3180SOL    HW211380  11.536   2.800   5.653
 3181SOL     OW11381   0.457   2.223   3.896
 3181SOL    HW111382   0.420   2.311   3.898
 3181SOL    HW211383   0.444   2.190   3.985
 3182SOL     OW11384  11.792  13.140  12.334
 3182SOL    HW111385  11.758  13.121  12.422
 3182SOL    HW211386  11.737  13.088  12.275
 3183SOL     OW11387   3.134  11.657  12.887
 3183SOL    HW111388   3.114  11.582  12.831
 3183SOL    HW211389   3.087  11.640  12.968
 3184SOL     OW11390   7.969   4.590   9.157
 3184SOL    HW111391   7.959   4.675   9.200
 3184SOL    HW211392   8.063   4.573   9.159
 3185SOL     OW11393   5.429   5.953  12.104
 3185SOL    HW111394   5.416   5.943  12.010
 3185SOL    HW211395   5.524   5.960  12.114
 3186SOL     OW11396   1.575   4.739   1.388
 3186SOL    HW111397   1.515   4.804   1.350
 3186SOL    HW211398   1.585   4.767   1.479
 3187SOL     OW11399   2.005  12.838   0.962
 3187SOL    HW111400   2.022  12.823   0.869
 3187SOL    HW211401   1.988  12.751   0.998
 3188SOL     OW11402   4.708  10.968   6.001
 3188SOL    HW111403   4.760  10.961   6.081
 3188SOL    HW211404   4.637  10.905   6.013
 3189SOL     OW11405   2.487   3.270   4.596
 3189SOL    HW111406   2.431   3.202   4.633
 3189SOL    HW211407   2.576   3.244   4.622
 3190SOL     OW11408   2.397   9.201  14.095
 3190SOL    HW111409   2.382   9.165  14.007
 3190SOL    HW211410   2.445   9.282  14.080
 3191SOL     OW11411   9.571  11.439  11.841
 3191SOL    HW111412   9.586  11.433  11.747
 3191SOL    HW211413   9.588  11.350  11.873
 3192SOL     OW11414   2.165   6.493   0.336
 3192SOL    HW111415   2.206   6.579   0.350
 3192SOL    HW211416   2.198   6.464   0.251
 3193SOL     OW11417   4.687   1.257  12.571
 3193SOL    HW111418   4.597   1.249  12.602
 3193SOL    HW211419   4.733   1.183  12.610
 3194SOL     OW11420   5.078   3.764   7.529
 3194SOL    HW111421   5.007   3.822   7.501
 3194SOL    HW211422   5.034   3.699   7.584
 3195SOL     OW11423   8.431   2.722   4.250
 3195SOL    HW111424   8.395   2.795   4.201
 3195SOL    HW211425   8.385   2.645   4.217
 3196SOL     OW11426  13.992   9.177   1.078
 3196SOL    HW111427  13.909   9.182   1.124
 3196SOL    HW211428  13.979   9.228   0.998
 3197SOL     OW11429   4.469   7.648   7.241
 3197SOL    HW111430   4.440   7.586   7.308
 3197SOL    HW211431   4.388   7.693   7.215
 3198SOL     OW11432   5.086   5.524  12.025
 3198SOL    HW111433   5.144   5.454  11.996
 3198SOL    HW211434   5.060   5.498  12.114
 3199SOL     OW11435  14.630  13.497  13.227
 3199SOL    HW111436  14.658  13.426  13.169
 3199SOL    HW211437  14.617  13.454  13.312
 3200SOL     OW11438   0.410   9.741   8.896
 3200SOL    HW111439   0.351   9.726   8.822
 3200SOL    HW211440   0.487   9.781   8.858
 3201SOL     OW11441  13.486   4.062   6.565
 3201SOL    HW111442  13.521   3.973   6.565
 3201SOL    HW211443  13.408   4.057   6.510
 3202SOL     OW11444   6.609   8.125   0.881
 3202SOL    HW111445   6.591   8.217   0.898
 3202SOL    HW211446   6.580   8.110   0.791
 3203SOL     OW11447  12.425   0.869   3.561
 3203SOL    HW111448  12.471   0.836   3.484
 3203SOL    HW211449  12.467   0.953   3.580
 3204SOL     OW11450   7.875  10.418  12.040
 3204SOL    HW111451   7.929  10.401  11.963
 3204SOL    HW211452   7.894  10.509  12.063
 3205SOL     OW11453   8.975  13.834   0.529
 3205SOL    HW111454   8.995  13.894   0.457
 3205SOL    HW211455   8.900  13.783   0.497
 3206SOL     OW11456   3.738   1.800   5.425
 3206SOL    HW111457   3.824   1.803   5.468
 3206SOL    HW211458   3.758   1.807   5.331
 3207SOL     OW11459   6.503   9.130   7.840
 3207SOL    HW111460   6.498   9.208   7.896
 3207SOL    HW211461   6.498   9.165   7.751
 3208SOL     OW11462   6.021  12.241  11.253
 3208SOL    HW111463   6.082  12.192  11.308
 3208SOL    HW211464   5.937  12.198  11.268
 3209SOL     OW11465  14.251  12.014   7.486
 3209SOL    HW111466  14.263  12.105   7.512
 3209SOL    HW211467  14.334  11.990   7.444
 3210SOL     OW11468   1.495  12.725   3.021
 3210SOL    HW111469   1.411  12.689   2.990
 3210SOL    HW211470   1.471  12.808   3.062
 3211SOL     OW11471   9.014   2.225  10.197
 3211SOL    HW111472   8.997   2.134  10.223
 3211SOL    HW211473   9.109   2.231  10.191
 3212SOL     OW11474  11.152  10.492   7.951
 3212SOL    HW111475  11.146  10.489   8.047
 3212SOL    HW211476  11.245  10.504   7.933
 3213SOL     OW11477   6.839  12.627   4.138
 3213SOL    HW111478   6.804  12.544   4.170
 3213SOL    HW211479   6.762  12.684   4.131
 3214SOL     OW11480   5.362   7.383  13.486
 3214SOL    HW111481   5.453   7.386  13.457
 3214SOL    HW211482   5.357   7.304  13.540
 3215SOL     OW11483  10.844  13.491   4.016
 3215SOL    HW111484  10.753  13.488   4.044
 3215SOL    HW211485  10.848  13.563   3.954
 3216SOL     OW11486   1.939   5.999   8.360
 3216SOL    HW111487   1.979   5.971   8.277
 3216SOL    HW211488   1.992   5.958   8.428
 3217SOL     OW11489  10.385  10.106  13.498
 3217SOL    HW111490  10.458  10.151  13.539
 3217SOL    HW211491  10.321  10.174  13.479
 3218SOL     OW11492   7.415  10.575   3.249
 3218SOL    HW111493   7.503  10.592   3.282
 3218SOL    HW211494   7.373  10.661   3.248
 3219SOL     OW11495  11.702  12.584  10.640
 3219SOL    HW111496  11.715  12.490  10.628
 3219SOL    HW211497  11.635  12.590  10.708
 3220SOL     OW11498   1.319   0.089   4.474
 3220SOL    HW111499   1.314   0.097   4.379
 3220SOL    HW211500   1.413   0.085   4.493
 3221SOL     OW11501   7.103  11.549   2.988
 3221SOL    HW111502   7.055  11.555   2.905
 3221SOL    HW211503   7.069  11.622   3.040
 3222SOL     OW11504   4.666  11.325  11.262
 3222SOL    HW111505   4.632  11.399  11.312
 3222SOL    HW211506   4.761  11.339  11.260
 3223SOL     OW11507  12.541  13.092   0.182
 3223SOL    HW111508  12.576  13.114   0.268
 3223SOL    HW211509  12.447  13.081   0.197
 3224SOL     OW11510   9.115   3.162   2.338
 3224SOL    HW111511   9.051   3.167   2.408
 3224SOL    HW211512   9.200   3.156   2.382
 3225SOL     OW11513   2.865  13.762  14.837
 3225SOL    HW111514   2.945  13.732  14.881
 3225SOL    HW211515   2.794  13.726   0.008
 3226SOL     OW11516  11.718  12.299  10.608
 3226SOL    HW111517  11.723  12.223  10.550
 3226SOL    HW211518  11.808  12.318  10.633
 3227SOL     OW11519   1.872   1.939  11.914
 3227SOL    HW111520   1.934   1.879  11.955
 3227SOL    HW211521   1.788   1.916  11.952
 3228SOL     OW11522   2.341   5.867   8.396
 3228SOL    HW111523   2.397   5.893   8.469
 3228SOL    HW211524   2.256   5.905   8.416
 3229SOL     OW11525  12.558  13.249  14.000
 3229SOL    HW111526  12.577  13.193  14.075
 3229SOL    HW211527  12.637  13.301  13.988
 3230SOL     OW11528   3.732   3.893   1.937
 3230SOL    HW111529   3.694   3.854   2.016
 3230SOL    HW211530   3.693   3.980   1.932
 3231SOL     OW11531   6.256   5.904   1.000
 3231SOL    HW111532   6.279   5.821   1.042
 3231SOL    HW211533   6.243   5.965   1.072
 3232SOL     OW11534   1.314   5.870  12.788
 3232SOL    HW111535   1.274   5.787  12.815
 3232SOL    HW211536   1.319   5.864  12.692
 3233SOL     OW11537  13.458   5.526  10.235
 3233SOL    HW111538  13.397   5.530  10.309
 3233SOL    HW211539  13.497   5.439  10.240
 3234SOL     OW11540   5.484  12.869  13.930
 3234SOL    HW111541   5.439  12.798  13.976
 3234SOL    HW211542   5.553  12.826  13.880
 3235SOL     OW11543   9.573   2.494  11.947
 3235SOL    HW111544   9.554   2.544  11.868
 3235SOL    HW211545   9.530   2.543  12.018
 3236SOL     OW11546   8.265   3.221   4.315
 3236SOL    HW111547   8.200   3.254   4.377
 3236SOL    HW211548   8.349   3.244   4.355
 3237SOL     OW11549   0.501   9.030   1.617
 3237SOL    HW111550   0.551   9.023   1.698
 3237SOL    HW211551   0.420   8.982   1.635
 3238SOL     OW11552   7.842   5.429   1.904
 3238SOL    HW111553   7.756   5.388   1.903
 3238SOL    HW211554   7.845   5.479   1.986
 3239SOL     OW11555   4.524   5.457  12.262
 3239SOL    HW111556   4.511   5.522  12.331
 3239SOL    HW211557   4.599   5.488  12.213
 3240SOL     OW11558   9.558   8.707   4.083
 3240SOL    HW111559   9.558   8.612   4.095
 3240SOL    HW211560   9.555   8.719   3.988
 3241SOL     OW11561   5.075   1.902   9.556
 3241SOL    HW111562   5.097   1.880   9.647
 3241SOL    HW211563   5.159   1.921   9.514
 3242SOL     OW11564   1.287  14.553   0.315
 3242SOL    HW111565   1.207  14.526   0.360
 3242SOL    HW211566   1.344  14.587   0.384
 3243SOL     OW11567  14.601   1.276   3.728
 3243SOL    HW111568  14.552   1.340   3.780
 3243SOL    HW211569  14.546   1.259   3.651
 3244SOL     OW11570  12.633   1.030  10.563
 3244SOL    HW111571  12.542   1.050  10.538
 3244SOL    HW211572  12.664   1.111  10.604
 3245SOL     OW11573   7.922  10.863   7.013
 3245SOL    HW111574   7.984  10.855   6.941
 3245SOL    HW211575   7.852  10.917   6.979
 3246SOL     OW11576  11.797   8.400  10.234
 3246SOL    HW111577  11.739   8.438  10.300
 3246SOL    HW211578  11.843   8.330  10.281
 3247SOL     OW11579  11.844   0.876   4.269
 3247SOL    HW111580  11.864   0.909   4.182
 3247SOL    HW211581  11.868   0.784   4.267
 3248SOL     OW11582   8.803   9.021  11.608
 3248SOL    HW111583   8.726   8.964  11.614
 3248SOL    HW211584   8.877   8.963  11.625
 3249SOL     OW11585   6.407  10.276   5.960
 3249SOL    HW111586   6.317  10.251   5.939
 3249SOL    HW211587   6.446  10.196   5.995
 3250SOL     OW11588  14.596   7.042   1.817
 3250SOL    HW111589  14.644   7.005   1.743
 3250SOL    HW211590  14.614   7.136   1.813
 3251SOL     OW11591   2.464   5.365  11.649
 3251SOL    HW111592   2.389   5.334  11.699
 3251SOL    HW211593   2.502   5.434  11.704
 3252SOL     OW11594   9.433   9.788   5.493
 3252SOL    HW111595   9.523   9.771   5.521
 3252SOL    HW211596   9.400   9.852   5.555
 3253SOL     OW11597   7.863   4.754  10.502
 3253SOL    HW111598   7.938   4.804  10.469
 3253SOL    HW211599   7.899   4.669  10.527
 3254SOL     OW11600   8.013   4.808  14.717
 3254SOL    HW111601   8.036   4.720  14.748
 3254SOL    HW211602   8.045   4.867  14.786
 3255SOL     OW11603  12.639   5.709   8.969
 3255SOL    HW111604  12.684   5.791   8.992
 3255SOL    HW211605  12.547   5.733   8.963
 3256SOL     OW11606   9.775   4.234  11.360
 3256SOL    HW111607   9.747   4.161  11.305
 3256SOL    HW211608   9.847   4.198  11.412
 3257SOL     OW11609   5.283  11.032   5.402
 3257SOL    HW111610   5.362  11.075   5.435
 3257SOL    HW211611   5.268  11.071   5.316
 3258SOL     OW11612   0.331   8.164   8.851
 3258SOL    HW111613   0.354   8.104   8.922
 3258SOL    HW211614   0.307   8.106   8.778
 3259SOL     OW11615   5.727   8.027   7.180
 3259SOL    HW111616   5.783   7.955   7.151
 3259SOL    HW211617   5.638   7.990   7.178
 3260SOL     OW11618   7.600  12.121   3.426
 3260SOL    HW111619   7.511  12.101   3.398
 3260SOL    HW211620   7.626  12.046   3.479
 3261SOL     OW11621   4.524   9.528   1.648
 3261SOL    HW111622   4.454   9.558   1.706
 3261SOL    HW211623   4.491   9.546   1.560
 3262SOL     OW11624   9.849  10.696   0.945
 3262SOL    HW111625   9.857  10.739   1.030
 3262SOL    HW211626   9.822  10.607   0.965
 3263SOL     OW11627   8.545   1.796   8.494
 3263SOL    HW111628   8.465   1.804   8.442
 3263SOL    HW211629   8.546   1.704   8.522
 3264SOL     OW11630   4.222  13.347  13.902
 3264SOL    HW111631   4.312  13.313  13.904
 3264SOL    HW211632   4.168  13.274  13.932
 3265SOL     OW11633   8.783   9.008   7.214
 3265SOL    HW111634   8.864   9.005   7.163
 3265SOL    HW211635   8.806   8.966   7.297
 3266SOL     OW11636   5.815  11.324   2.784
 3266SOL    HW111637   5.722  11.341   2.770
 3266SOL    HW211638   5.826  11.232   2.761
 3267SOL     OW11639  14.791   3.473   4.756
 3267SOL    HW111640  14.750   3.488   4.841
 3267SOL    HW211641  14.733   3.518   4.694
 3268SOL     OW11642   7.715   3.477   2.773
 3268SOL    HW111643   7.754   3.407   2.720
 3268SOL    HW211644   7.696   3.435   2.857
 3269SOL     OW11645  13.994   2.176   8.550
 3269SOL    HW111646  14.039   2.116   8.611
 3269SOL    HW211647  13.946   2.236   8.607
 3270SOL     OW11648   7.689   1.691   6.310
 3270SOL    HW111649   7.666   1.671   6.220
 3270SOL    HW211650   7.607   1.720   6.350
 3271SOL     OW11651  12.051   4.328  12.062
 3271SOL    HW111652  12.064   4.364  11.974
 3271SOL    HW211653  12.105   4.383  12.118
 3272SOL     OW11654  12.536  11.099   0.427
 3272SOL    HW111655  12.502  11.010   0.418
 3272SOL    HW211656  12.605  11.105   0.361
 3273SOL     OW11657  12.790  10.591  10.378
 3273SOL    HW111658  12.740  10.671  10.359
 3273SOL    HW211659  12.723  10.524  10.391
 3274SOL     OW11660   3.699   4.896   8.579
 3274SOL    HW111661   3.639   4.863   8.645
 3274SOL    HW211662   3.692   4.991   8.584
 3275SOL     OW11663   1.061   8.184   3.708
 3275SOL    HW111664   1.092   8.096   3.729
 3275SOL    HW211665   0.972   8.187   3.741
 3276SOL     OW11666  13.182   4.229  13.899
 3276SOL    HW111667  13.239   4.266  13.966
 3276SOL    HW211668  13.238   4.216  13.823
 3277SOL     OW11669   6.767  12.555   2.520
 3277SOL    HW111670   6.702  12.487   2.537
 3277SOL    HW211671   6.745  12.625   2.582
 3278SOL     OW11672  11.377  10.186  12.324
 3278SOL    HW111673  11.325  10.266  12.325
 3278SOL    HW211674  11.325  10.125  12.271
 3279SOL     OW11675   1.700  10.080   4.097
 3279SOL    HW111676   1.726  10.153   4.041
 3279SOL    HW211677   1.782  10.045   4.130
 3280SOL     OW11678   5.600   3.054  14.566
 3280SOL    HW111679   5.532   3.005  14.612
 3280SOL    HW211680   5.591   3.144  14.599
 3281SOL     OW11681  13.517   2.100  12.496
 3281SOL    HW111682  13.500   2.179  12.547
 3281SOL    HW211683  13.458   2.106  12.421
 3282SOL     OW11684   8.882   0.573  12.217
 3282SOL    HW111685   8.804   0.618  12.183
 3282SOL    HW211686   8.849   0.490  12.252
 3283SOL     OW11687   5.100   4.307   1.825
 3283SOL    HW111688   5.173   4.297   1.763
 3283SOL    HW211689   5.137   4.358   1.897
 3284SOL     OW11690  10.565   5.516   9.344
 3284SOL    HW111691  10.543   5.603   9.310
 3284SOL    HW211692  10.653   5.526   9.381
 3285SOL     OW11693   4.617  14.301  13.887
 3285SOL    HW111694   4.523  14.310  13.876
 3285SOL    HW211695   4.653  14.316  13.799
 3286SOL     OW11696   4.733  14.434   5.150
 3286SOL    HW111697   4.770  14.373   5.085
 3286SOL    HW211698   4.781  14.415   5.230
 3287SOL     OW11699   2.419  14.005   0.616
 3287SOL    HW111700   2.481  13.959   0.559
 3287SOL    HW211701   2.439  14.097   0.604
 3288SOL     OW11702   3.373   9.293   6.354
 3288SOL    HW111703   3.444   9.280   6.417
 3288SOL    HW211704   3.393   9.232   6.282
 3289SOL     OW11705   5.560  11.515  14.007
 3289SOL    HW111706   5.616  11.437  14.008
 3289SOL    HW211707   5.511  11.511  14.089
 3290SOL     OW11708  10.883   4.851   5.390
 3290SOL    HW111709  10.945   4.924   5.396
 3290SOL    HW211710  10.937   4.776   5.364
 3291SOL     OW11711   7.943  11.148  10.844
 3291SOL    HW111712   7.963  11.220  10.905
 3291SOL    HW211713   7.869  11.181  10.793
 3292SOL     OW11714   9.772  14.168  12.842
 3292SOL    HW111715   9.840  14.229  12.870
 3292SOL    HW211716   9.728  14.213  12.770
 3293SOL     OW11717   8.422   4.496   4.287
 3293SOL    HW111718   8.515   4.475   4.298
 3293SOL    HW211719   8.402   4.470   4.197
 3294SOL     OW11720   3.101   4.481  13.739
 3294SOL    HW111721   3.172   4.474  13.804
 3294SOL    HW211722   3.112   4.404  13.684
 3295SOL     OW11723  10.277   7.325   9.925
 3295SOL    HW111724  10.229   7.289   9.851
 3295SOL    HW211725  10.262   7.420   9.919
 3296SOL     OW11726   6.868   9.534  13.142
 3296SOL    HW111727   6.927   9.459  13.137
 3296SOL    HW211728   6.888   9.586  13.064
 3297SOL     OW11729   7.838   6.398   5.204
 3297SOL    HW111730   7.790   6.342   5.143
 3297SOL    HW211731   7.781   6.405   5.280
 3298SOL     OW11732   0.540   4.423   5.383
 3298SOL    HW111733   0.586   4.341   5.398
 3298SOL    HW211734   0.607   4.491   5.392
 3299SOL     OW11735   3.489   0.653  13.593
 3299SOL    HW111736   3.454   0.742  13.594
 3299SOL    HW211737   3.458   0.616  13.510
 3300SOL     OW11738   9.661   4.036  10.781
 3300SOL    HW111739   9.691   3.945  10.778
 3300SOL    HW211740   9.566   4.030  10.784
 3301SOL     OW11741  10.256   4.761   4.011
 3301SOL    HW111742  10.236   4.713   4.092
 3301SOL    HW211743  10.281   4.693   3.949
 3302SOL     OW11744  10.115   5.686   2.749
 3302SOL    HW111745  10.157   5.755   2.800
 3302SOL    HW211746  10.135   5.707   2.658
 3303SOL     OW11747   7.896   5.696   3.098
 3303SOL    HW111748   7.908   5.744   3.179
 3303SOL    HW211749   7.948   5.744   3.033
 3304SOL     OW11750   6.187  14.011   7.817
 3304SOL    HW111751   6.151  14.090   7.777
 3304SOL    HW211752   6.263  13.990   7.763
 3305SOL     OW11753   4.500  14.534   5.946
 3305SOL    HW111754   4.570  14.469   5.945
 3305SOL    HW211755   4.507  14.575   6.032
 3306SOL     OW11756   1.454  14.773   6.269
 3306SOL    HW111757   1.438  14.826   6.347
 3306SOL    HW211758   1.533  14.723   6.290
 3307SOL     OW11759   5.841   7.323   2.843
 3307SOL    HW111760   5.862   7.235   2.813
 3307SOL    HW211761   5.745   7.324   2.849
 3308SOL     OW11762  14.086   2.289   6.027
 3308SOL    HW111763  14.003   2.330   6.004
 3308SOL    HW211764  14.147   2.363   6.034
 3309SOL     OW11765  10.551   1.009  13.390
 3309SOL    HW111766  10.532   0.964  13.308
 3309SOL    HW211767  10.576   0.940  13.451
 3310SOL     OW11768   0.156   0.199  10.340
 3310SOL    HW111769   0.147   0.149  10.259
 3310SOL    HW211770   0.248   0.190  10.364
 3311SOL     OW11771  12.966   9.687   3.012
 3311SOL    HW111772  12.912   9.767   3.020
 3311SOL    HW211773  12.914   9.630   2.955
 3312SOL     OW11774   2.219   4.044   2.830
 3312SOL    HW111775   2.182   4.082   2.910
 3312SOL    HW211776   2.277   3.974   2.860
 3313SOL     OW11777   8.195   7.215   0.998
 3313SOL    HW111778   8.117   7.212   1.053
 3313SOL    HW211779   8.213   7.124   0.977
 3314SOL     OW11780  10.906  13.776   0.045
 3314SOL    HW111781  10.975  13.712   0.061
 3314SOL    HW211782  10.892  13.774  14.833
 3315SOL     OW11783   0.715  10.032   8.017
 3315SOL    HW111784   0.713   9.981   8.099
 3315SOL    HW211785   0.715   9.965   7.948
 3316SOL     OW11786   3.231   0.601   9.728
 3316SOL    HW111787   3.158   0.641   9.775
 3316SOL    HW211788   3.218   0.626   9.637
 3317SOL     OW11789  12.598   1.597  13.980
 3317SOL    HW111790  12.576   1.688  14.000
 3317SOL    HW211791  12.693   1.594  13.986
 3318SOL     OW11792   2.716  13.029   8.996
 3318SOL    HW111793   2.800  13.074   8.985
 3318SOL    HW211794   2.666  13.051   8.917
 3319SOL     OW11795   8.190   0.611   3.658
 3319SOL    HW111796   8.255   0.646   3.718
 3319SOL    HW211797   8.108   0.613   3.707
 3320SOL     OW11798  12.245   4.248   4.279
 3320SOL    HW111799  12.334   4.214   4.268
 3320SOL    HW211800  12.254   4.342   4.271
 3321SOL     OW11801   5.136   0.909  13.420
 3321SOL    HW111802   5.141   0.996  13.459
 3321SOL    HW211803   5.213   0.904  13.362
 3322SOL     OW11804   0.688   4.376  12.830
 3322SOL    HW111805   0.636   4.440  12.878
 3322SOL    HW211806   0.758   4.352  12.891
 3323SOL     OW11807   1.486   4.436  11.658
 3323SOL    HW111808   1.405   4.446  11.607
 3323SOL    HW211809   1.540   4.511  11.632
 3324SOL     OW11810  13.998   1.781  14.683
 3324SOL    HW111811  13.911   1.748  14.661
 3324SOL    HW211812  13.989   1.815  14.772
 3325SOL     OW11813   3.009   6.750   1.074
 3325SOL    HW111814   2.927   6.743   1.025
 3325SOL    HW211815   3.056   6.669   1.052
 3326SOL     OW11816  10.282   6.691   5.449
 3326SOL    HW111817  10.208   6.636   5.421
 3326SOL    HW211818  10.342   6.690   5.374
 3327SOL     OW11819   9.937  12.176  11.953
 3327SOL    HW111820   9.901  12.164  12.041
 3327SOL    HW211821   9.906  12.262  11.926
 3328SOL     OW11822  13.050  14.233  10.125
 3328SOL    HW111823  13.009  14.299  10.068
 3328SOL    HW211824  13.014  14.150  10.095
 3329SOL     OW11825   6.829  14.129   5.309
 3329SOL    HW111826   6.798  14.051   5.355
 3329SOL    HW211827   6.925  14.126   5.318
 3330SOL     OW11828   9.066   5.523  14.412
 3330SOL    HW111829   9.022   5.609  14.417
 3330SOL    HW211830   9.105   5.511  14.498
 3331SOL     OW11831   0.881  14.321   0.171
 3331SOL    HW111832   0.855  14.232   0.194
 3331SOL    HW211833   0.930  14.352   0.247
 3332SOL     OW11834   4.972  11.513   9.314
 3332SOL    HW111835   4.878  11.498   9.308
 3332SOL    HW211836   5.005  11.494   9.226
 3333SOL     OW11837  12.419  14.304   1.821
 3333SOL    HW111838  12.351  14.366   1.848
 3333SOL    HW211839  12.373  14.240   1.767
 3334SOL     OW11840  14.523   2.577   4.343
 3334SOL    HW111841  14.443   2.630   4.336
 3334SOL    HW211842  14.533   2.562   4.437
 3335SOL     OW11843   9.395   5.574  11.515
 3335SOL    HW111844   9.363   5.659  11.483
 3335SOL    HW211845   9.320   5.516  11.507
 3336SOL     OW11846   6.026   1.022   6.018
 3336SOL    HW111847   6.073   1.082   6.075
 3336SOL    HW211848   6.070   0.937   6.031
 3337SOL     OW11849  14.313  14.276   0.786
 3337SOL    HW111850  14.353  14.270   0.873
 3337SOL    HW211851  14.376  14.327   0.735
 3338SOL     OW11852  10.044   0.905   0.625
 3338SOL    HW111853  10.044   0.958   0.545
 3338SOL    HW211854   9.997   0.825   0.600
 3339SOL     OW11855   6.943   6.399  12.663
 3339SOL    HW111856   7.019   6.400  12.721
 3339SOL    HW211857   6.979   6.393  12.575
 3340SOL     OW11858   5.193   8.217   3.600
 3340SOL    HW111859   5.242   8.291   3.565
 3340SOL    HW211860   5.139   8.254   3.669
 3341SOL     OW11861   5.126  11.312  12.968
 3341SOL    HW111862   5.104  11.375  13.036
 3341SOL    HW211863   5.067  11.334  12.896
 3342SOL     OW11864   0.928  14.784   0.786
 3342SOL    HW111865   0.915  14.868   0.830
 3342SOL    HW211866   0.898  14.719   0.849
 3343SOL     OW11867   9.277   8.133   5.088
 3343SOL    HW111868   9.235   8.207   5.045
 3343SOL    HW211869   9.260   8.145   5.181
 3344SOL     OW11870   6.731  12.042   2.520
 3344SOL    HW111871   6.823  12.036   2.545
 3344SOL    HW211872   6.687  11.977   2.574
 3345SOL     OW11873   6.028   4.681  11.995
 3345SOL    HW111874   6.065   4.724  11.918
 3345SOL    HW211875   5.934   4.678  11.979
 3346SOL     OW11876   3.209   6.739  13.988
 3346SOL    HW111877   3.274   6.671  14.006
 3346SOL    HW211878   3.128   6.691  13.969
 3347SOL     OW11879   4.858   5.262   0.529
 3347SOL    HW111880   4.902   5.247   0.445
 3347SOL    HW211881   4.891   5.347   0.558
 3348SOL     OW11882   5.122   4.598  14.005
 3348SOL    HW111883   5.123   4.533  13.934
 3348SOL    HW211884   5.171   4.556  14.076
 3349SOL     OW11885  10.532   0.517   7.229
 3349SOL    HW111886  10.493   0.430   7.228
 3349SOL    HW211887  10.479   0.568   7.167
 3350SOL     OW11888  13.587   7.224   4.389
 3350SOL    HW111889  13.516   7.243   4.328
 3350SOL    HW211890  13.597   7.305   4.439
 3351SOL     OW11891  13.202   3.320   7.949
 3351SOL    HW111892  13.254   3.260   7.897
 3351SOL    HW211893  13.207   3.403   7.903
 3352SOL     OW11894   2.154  12.903  12.369
 3352SOL    HW111895   2.111  12.820  12.389
 3352SOL    HW211896   2.158  12.906  12.274
 3353SOL     OW11897   6.463  11.125   8.541
 3353SOL    HW111898   6.470  11.138   8.447
 3353SOL    HW211899   6.503  11.039   8.557
 3354SOL     OW11900  14.218   7.441   1.838
 3354SOL    HW111901  14.173   7.390   1.906
 3354SOL    HW211902  14.307   7.408   1.838
 3355SOL     OW11903   0.384   9.559   4.650
 3355SOL    HW111904   0.364   9.537   4.559
 3355SOL    HW211905   0.437   9.639   4.644
 3356SOL     OW11906  10.651  12.043   0.518
 3356SOL    HW111907  10.670  11.995   0.598
 3356SOL    HW211908  10.735  12.081   0.493
 3357SOL     OW11909   0.613   5.666  10.602
 3357SOL    HW111910   0.593   5.644  10.694
 3357SOL    HW211911   0.567   5.749  10.587
 3358SOL     OW11912  12.106   8.775   6.707
 3358SOL    HW111913  12.171   8.825   6.756
 3358SOL    HW211914  12.051   8.735   6.774
 3359SOL     OW11915   5.331   8.641  13.081
 3359SOL    HW111916   5.334   8.664  13.174
 3359SOL    HW211917   5.238   8.645  13.058
 3360SOL     OW11918  12.079  12.394  14.136
 3360SOL    HW111919  12.126  12.350  14.206
 3360SOL    HW211920  12.140  12.393  14.061
 3361SOL     OW11921   3.494   0.065   2.563
 3361SOL    HW111922   3.488   0.030   2.652
 3361SOL    HW211923   3.409   0.106   2.548
 3362SOL     OW11924  13.543  13.272   4.346
 3362SOL    HW111925  13.533  13.354   4.296
 3362SOL    HW211926  13.575  13.209   4.281
 3363SOL     OW11927  11.215   6.683   5.316
 3363SOL    HW111928  11.256   6.678   5.230
 3363SOL    HW211929  11.263   6.620   5.369
 3364SOL     OW11930  11.816  13.863   4.036
 3364SOL    HW111931  11.825  13.808   4.114
 3364SOL    HW211932  11.783  13.946   4.069
 3365SOL     OW11933   7.026   2.265   9.060
 3365SOL    HW111934   6.952   2.210   9.089
 3365SOL    HW211935   7.002   2.293   8.972
 3366SOL     OW11936   3.766   0.753   2.561
 3366SOL    HW111937   3.672   0.746   2.541
 3366SOL    HW211938   3.809   0.734   2.477
 3367SOL     OW11939  13.450   6.835   0.613
 3367SOL    HW111940  13.501   6.884   0.678
 3367SOL    HW211941  13.371   6.888   0.599
 3368SOL     OW11942  12.116   8.844   8.855
 3368SOL    HW111943  12.202   8.803   8.846
 3368SOL    HW211944  12.129   8.935   8.828
 3369SOL     OW11945   8.263  12.454   4.818
 3369SOL    HW111946   8.320  12.418   4.887
 3369SOL    HW211947   8.183  12.401   4.824
 3370SOL     OW11948  11.018   4.599  10.632
 3370SOL    HW111949  11.007   4.579  10.539
 3370SOL    HW211950  11.024   4.695  10.636
 3371SOL     OW11951   5.914   5.788  10.749
 3371SOL    HW111952   5.996   5.833  10.770
 3371SOL    HW211953   5.926   5.760  10.658
 3372SOL     OW11954   7.726   2.174   1.481
 3372SOL    HW111955   7.653   2.190   1.421
 3372SOL    HW211956   7.688   2.121   1.551
 3373SOL     OW11957   9.711   1.794  11.817
 3373SOL    HW111958   9.672   1.871  11.776
 3373SOL    HW211959   9.653   1.774  11.890
 3374SOL     OW11960   2.614   7.565   6.811
 3374SOL    HW111961   2.536   7.597   6.766
 3374SOL    HW211962   2.678   7.551   6.742
 3375SOL     OW11963  14.663  12.797   3.724
 3375SOL    HW111964  14.729  12.728   3.729
 3375SOL    HW211965  14.605  12.780   3.798
 3376SOL     OW11966   8.979  11.454   3.827
 3376SOL    HW111967   9.067  11.446   3.790
 3376SOL    HW211968   8.992  11.452   3.921
 3377SOL     OW11969   5.478   0.047   7.251
 3377SOL    HW111970   5.393   0.071   7.216
 3377SOL    HW211971   5.525   0.130   7.260
 3378SOL     OW11972   7.089  11.401  10.154
 3378SOL    HW111973   7.182  11.393  10.131
 3378SOL    HW211974   7.043  11.346  10.090
 3379SOL     OW11975  11.434   8.138  11.365
 3379SOL    HW111976  11.421   8.043  11.355
 3379SOL    HW211977  11.429   8.173  11.277
 3380SOL     OW11978   1.376  10.371   2.493
 3380SOL    HW111979   1.406  10.441   2.435
 3380SOL    HW211980   1.414  10.393   2.578
 3381SOL     OW11981  14.419   2.184   3.491
 3381SOL    HW111982  14.394   2.092   3.498
 3381SOL    HW211983  14.453   2.206   3.579
 3382SOL     OW11984  14.120   3.891   5.121
 3382SOL    HW111985  14.157   3.926   5.202
 3382SOL    HW211986  14.117   3.966   5.061
 3383SOL     OW11987   5.210   1.031  12.808
 3383SOL    HW111988   5.172   1.092  12.745
 3383SOL    HW211989   5.192   1.070  12.893
 3384SOL     OW11990   7.991   9.591   3.139
 3384SOL    HW111991   8.015   9.512   3.188
 3384SOL    HW211992   7.967   9.655   3.207
 3385SOL     OW11993   4.820   9.674  14.306
 3385SOL    HW111994   4.776   9.616  14.243
 3385SOL    HW211995   4.864   9.739  14.251
 3386SOL     OW11996  10.855   2.094   1.210
 3386SOL    HW111997  10.779   2.060   1.161
 3386SOL    HW211998  10.817   2.142   1.283
 3387SOL     OW11999  11.745   8.182   2.940
 3387SOL    HW112000  11.702   8.110   2.894
 3387SOL    HW212001  11.825   8.198   2.890
 3388SOL     OW12002   2.413   7.762   0.179
 3388SOL    HW112003   2.422   7.666   0.183
 3388SOL    HW212004   2.422   7.790   0.270
 3389SOL     OW12005   3.667   5.189   0.050
 3389SOL    HW112006   3.572   5.199   0.047
 3389SOL    HW212007   3.699   5.275   0.077
 3390SOL     OW12008   2.202   5.267   4.992
 3390SOL    HW112009   2.250   5.322   5.053
 3390SOL    HW212010   2.136   5.223   5.046
 3391SOL     OW12011  12.807  14.756  12.725
 3391SOL    HW112012  12.898  14.744  12.753
 3391SOL    HW212013  12.755  14.719  12.796
 3392SOL     OW12014  14.356  10.473   6.580
 3392SOL    HW112015  14.261  10.479   6.571
 3392SOL    HW212016  14.379  10.549   6.633
 3393SOL     OW12017   3.387   0.752  12.563
 3393SOL    HW112018   3.419   0.675  12.610
 3393SOL    HW212019   3.317   0.787  12.619
 3394SOL     OW12020   8.480   9.118   9.463
 3394SOL    HW112021   8.535   9.196   9.466
 3394SOL    HW212022   8.541   9.046   9.449
 3395SOL     OW12023   6.884   6.156  10.142
 3395SOL    HW112024   6.869   6.250  10.131
 3395SOL    HW212025   6.817   6.128  10.204
 3396SOL     OW12026   1.941  10.214  10.092
 3396SOL    HW112027   2.020  10.229  10.041
 3396SOL    HW212028   1.959  10.135  10.143
 3397SOL     OW12029   6.990  12.179  11.892
 3397SOL    HW112030   6.980  12.261  11.941
 3397SOL    HW212031   6.904  12.138  11.897
 3398SOL     OW12032   5.760   6.685  14.686
 3398SOL    HW112033   5.856   6.680  14.684
 3398SOL    HW212034   5.734   6.660  14.597
 3399SOL     OW12035   1.927   7.188   0.043
 3399SOL    HW112036   1.978   7.150   0.114
 3399SOL    HW212037   1.876   7.257   0.084
 3400SOL     OW12038   1.055   6.308  10.950
 3400SOL    HW112039   1.110   6.352  10.884
 3400SOL    HW212040   0.966   6.332  10.927
 3401SOL     OW12041   0.156  10.116   6.604
 3401SOL    HW112042   0.204  10.177   6.660
 3401SOL    HW212043   0.066  10.148   6.605
 3402SOL     OW12044  10.281   3.566   8.663
 3402SOL    HW112045  10.253   3.594   8.576
 3402SOL    HW212046  10.332   3.487   8.648
 3403SOL     OW12047   1.872   6.664   5.131
 3403SOL    HW112048   1.831   6.734   5.184
 3403SOL    HW212049   1.925   6.711   5.067
 3404SOL     OW12050  11.392   0.516   9.860
 3404SOL    HW112051  11.409   0.451   9.928
 3404SOL    HW212052  11.479   0.547   9.834
 3405SOL     OW12053   7.065   9.490   2.928
 3405SOL    HW112054   7.142   9.457   2.974
 3405SOL    HW212055   7.010   9.527   2.997
 3406SOL     OW12056   3.197   5.934   5.722
 3406SOL    HW112057   3.220   5.858   5.775
 3406SOL    HW212058   3.275   5.989   5.724
 3407SOL     OW12059   4.883   9.189  11.758
 3407SOL    HW112060   4.863   9.184  11.852
 3407SOL    HW212061   4.917   9.103  11.736
 3408SOL     OW12062  12.162  11.651  13.461
 3408SOL    HW112063  12.120  11.667  13.545
 3408SOL    HW212064  12.255  11.644  13.482
 3409SOL     OW12065   1.492   8.971   7.470
 3409SOL    HW112066   1.452   8.923   7.397
 3409SOL    HW212067   1.487   9.063   7.444
 3410SOL     OW12068  10.872  13.337   2.076
 3410SOL    HW112069  10.948  13.396   2.081
 3410SOL    HW212070  10.814  13.367   2.147
 3411SOL     OW12071  13.644   9.115   3.508
 3411SOL    HW112072  13.619   9.126   3.416
 3411SOL    HW212073  13.693   9.033   3.510
 3412SOL     OW12074   6.926   1.529  11.567
 3412SOL    HW112075   6.971   1.536  11.651
 3412SOL    HW212076   6.901   1.437  11.561
 3413SOL     OW12077   5.402   2.537   8.451
 3413SOL    HW112078   5.483   2.585   8.430
 3413SOL    HW212079   5.408   2.457   8.398
 3414SOL     OW12080   2.751   2.669   8.939
 3414SOL    HW112081   2.659   2.682   8.964
 3414SOL    HW212082   2.801   2.691   9.017
 3415SOL     OW12083  12.650   5.298   6.448
 3415SOL    HW112084  12.597   5.374   6.426
 3415SOL    HW212085  12.623   5.231   6.384
 3416SOL     OW12086   2.550  13.389   8.997
 3416SOL    HW112087   2.541  13.327   9.069
 3416SOL    HW212088   2.632  13.434   9.015
 3417SOL     OW12089   8.114   9.132  13.167
 3417SOL    HW112090   8.144   9.108  13.255
 3417SOL    HW212091   8.143   9.060  13.111
 3418SOL     OW12092   8.595   6.053   2.752
 3418SOL    HW112093   8.663   6.078   2.814
 3418SOL    HW212094   8.540   6.130   2.744
 3419SOL     OW12095   4.785   4.486   3.910
 3419SOL    HW112096   4.833   4.567   3.927
 3419SOL    HW212097   4.814   4.459   3.822
 3420SOL     OW12098   4.784   0.959   4.199
 3420SOL    HW112099   4.740   0.965   4.114
 3420SOL    HW212100   4.791   1.050   4.229
 3421SOL     OW12101   4.878   2.746  11.093
 3421SOL    HW112102   4.939   2.820  11.090
 3421SOL    HW212103   4.880   2.709  11.005
 3422SOL     OW12104   8.195   4.299  12.323
 3422SOL    HW112105   8.219   4.389  12.300
 3422SOL    HW212106   8.190   4.299  12.418
 3423SOL     OW12107  12.622   4.945  13.478
 3423SOL    HW112108  12.639   4.857  13.513
 3423SOL    HW212109  12.696   4.963  13.421
 3424SOL     OW12110   1.006   6.125  13.171
 3424SOL    HW112111   1.057   6.045  13.177
 3424SOL    HW212112   1.041   6.171  13.095
 3425SOL     OW12113   1.211   2.596   3.963
 3425SOL    HW112114   1.209   2.639   3.877
 3425SOL    HW212115   1.134   2.631   4.008
 3426SOL     OW12116   5.469  11.893   6.461
 3426SOL    HW112117   5.417  11.873   6.383
 3426SOL    HW212118   5.457  11.987   6.474
 3427SOL     OW12119  13.925  14.373  14.398
 3427SOL    HW112120  13.984  14.434  14.442
 3427SOL    HW212121  13.983  14.317  14.346
 3428SOL     OW12122   1.030  10.425  12.886
 3428SOL    HW112123   1.099  10.414  12.951
 3428SOL    HW212124   1.005  10.517  12.891
 3429SOL     OW12125  11.286  12.014   7.155
 3429SOL    HW112126  11.244  12.039   7.073
 3429SOL    HW212127  11.378  11.999   7.131
 3430SOL     OW12128  11.409  11.367  14.668
 3430SOL    HW112129  11.437  11.459  14.676
 3430SOL    HW212130  11.320  11.366  14.702
 3431SOL     OW12131   9.028  10.484  11.542
 3431SOL    HW112132   9.020  10.388  11.537
 3431SOL    HW212133   8.964  10.516  11.478
 3432SOL     OW12134  14.265  14.876   5.780
 3432SOL    HW112135  14.325  14.835   5.717
 3432SOL    HW212136  14.221  14.802   5.822
 3433SOL     OW12137   1.738   6.300   2.812
 3433SOL    HW112138   1.669   6.286   2.877
 3433SOL    HW212139   1.772   6.387   2.831
 3434SOL     OW12140  10.256  10.205  14.035
 3434SOL    HW112141  10.281  10.249  14.116
 3434SOL    HW212142  10.245  10.113  14.060
 3435SOL     OW12143   4.805   4.956   5.122
 3435SOL    HW112144   4.827   5.044   5.092
 3435SOL    HW212145   4.711   4.960   5.141
 3436SOL     OW12146   2.142   9.523   9.681
 3436SOL    HW112147   2.228   9.520   9.723
 3436SOL    HW212148   2.097   9.445   9.712
 3437SOL     OW12149   0.888   8.731  12.880
 3437SOL    HW112150   0.903   8.825  12.891
 3437SOL    HW212151   0.886   8.719  12.785
 3438SOL     OW12152  11.211  12.830  12.347
 3438SOL    HW112153  11.272  12.897  12.316
 3438SOL    HW212154  11.141  12.830  12.281
 3439SOL     OW12155   5.811   8.247   3.191
 3439SOL    HW112156   5.886   8.213   3.239
 3439SOL    HW212157   5.836   8.336   3.167
 3440SOL     OW12158   6.990  14.400   5.119
 3440SOL    HW112159   7.005  14.323   5.174
 3440SOL    HW212160   6.905  14.434   5.149
 3441SOL     OW12161   9.748   9.014   5.663
 3441SOL    HW112162   9.703   8.962   5.596
 3441SOL    HW212163   9.713   9.102   5.653
 3442SOL     OW12164   5.492   6.191   2.088
 3442SOL    HW112165   5.582   6.160   2.095
 3442SOL    HW212166   5.444   6.119   2.049
 3443SOL     OW12167   3.884  14.062  11.639
 3443SOL    HW112168   3.977  14.039  11.627
 3443SOL    HW212169   3.861  14.110  11.559
 3444SOL     OW12170   3.015   3.806   6.436
 3444SOL    HW112171   3.010   3.838   6.346
 3444SOL    HW212172   3.065   3.874   6.482
 3445SOL     OW12173   6.320  11.138   7.289
 3445SOL    HW112174   6.388  11.182   7.238
 3445SOL    HW212175   6.291  11.204   7.352
 3446SOL     OW12176   7.407  11.852   1.352
 3446SOL    HW112177   7.455  11.922   1.308
 3446SOL    HW212178   7.315  11.872   1.337
 3447SOL     OW12179  11.186   5.535  11.390
 3447SOL    HW112180  11.153   5.569  11.306
 3447SOL    HW212181  11.279   5.558  11.391
 3448SOL     OW12182   2.969  12.379  12.489
 3448SOL    HW112183   2.956  12.466  12.449
 3448SOL    HW212184   3.000  12.324  12.417
 3449SOL     OW12185   4.491   0.764   3.027
 3449SOL    HW112186   4.522   0.763   3.118
 3449SOL    HW212187   4.533   0.688   2.988
 3450SOL     OW12188  11.844   9.073   2.268
 3450SOL    HW112189  11.897   9.078   2.189
 3450SOL    HW212190  11.846   8.981   2.294
 3451SOL     OW12191  12.880   6.581   8.512
 3451SOL    HW112192  12.965   6.558   8.474
 3451SOL    HW212193  12.878   6.676   8.510
 3452SOL     OW12194   1.457  14.541   1.299
 3452SOL    HW112195   1.427  14.575   1.215
 3452SOL    HW212196   1.496  14.616   1.344
 3453SOL     OW12197   1.202   2.241   3.991
 3453SOL    HW112198   1.189   2.279   3.904
 3453SOL    HW212199   1.118   2.250   4.034
 3454SOL     OW12200  13.664   3.506   2.553
 3454SOL    HW112201  13.707   3.511   2.639
 3454SOL    HW212202  13.603   3.579   2.553
 3455SOL     OW12203   0.561   5.561   4.239
 3455SOL    HW112204   0.622   5.499   4.280
 3455SOL    HW212205   0.540   5.623   4.309
 3456SOL     OW12206   0.527   9.674   7.883
 3456SOL    HW112207   0.542   9.716   7.968
 3456SOL    HW212208   0.598   9.707   7.828
 3457SOL     OW12209  11.796   4.091   0.367
 3457SOL    HW112210  11.872   4.074   0.424
 3457SOL    HW212211  11.741   4.151   0.418
 3458SOL     OW12212   3.628   6.755   4.727
 3458SOL    HW112213   3.620   6.702   4.648
 3458SOL    HW212214   3.722   6.772   4.735
 3459SOL     OW12215  12.922   0.818   8.519
 3459SOL    HW112216  12.908   0.743   8.462
 3459SOL    HW212217  12.997   0.794   8.573
 3460SOL     OW12218   7.304   1.426   7.418
 3460SOL    HW112219   7.328   1.343   7.460
 3460SOL    HW212220   7.321   1.411   7.325
 3461SOL     OW12221  14.578   0.104   1.077
 3461SOL    HW112222  14.563   0.010   1.077
 3461SOL    HW212223  14.498   0.142   1.040
 3462SOL     OW12224  13.313   6.956   1.574
 3462SOL    HW112225  13.352   7.021   1.516
 3462SOL    HW212226  13.237   6.924   1.525
 3463SOL     OW12227   7.629  11.814   9.458
 3463SOL    HW112228   7.703  11.850   9.408
 3463SOL    HW212229   7.630  11.721   9.438
 3464SOL     OW12230   6.922  14.190   3.250
 3464SOL    HW112231   6.926  14.279   3.218
 3464SOL    HW212232   6.837  14.184   3.295
 3465SOL     OW12233  14.285  13.615   2.899
 3465SOL    HW112234  14.364  13.645   2.854
 3465SOL    HW212235  14.307  13.620   2.992
 3466SOL     OW12236   9.158   2.556  10.799
 3466SOL    HW112237   9.093   2.516  10.857
 3466SOL    HW212238   9.205   2.618  10.855
 3467SOL     OW12239   7.464  12.507   8.545
 3467SOL    HW112240   7.554  12.540   8.536
 3467SOL    HW212241   7.443  12.520   8.637
 3468SOL     OW12242   0.813   6.195  12.898
 3468SOL    HW112243   0.903   6.177  12.869
 3468SOL    HW212244   0.764   6.116  12.875
 3469SOL     OW12245   9.386   4.782   5.633
 3469SOL    HW112246   9.344   4.832   5.703
 3469SOL    HW212247   9.432   4.849   5.581
 3470SOL     OW12248   9.399   0.588   2.006
 3470SOL    HW112249   9.437   0.647   1.940
 3470SOL    HW212250   9.384   0.644   2.082
 3471SOL     OW12251   5.940   7.445  13.576
 3471SOL    HW112252   6.029   7.465  13.548
 3471SOL    HW212253   5.939   7.468  13.669
 3472SOL     OW12254  11.623   3.932   5.058
 3472SOL    HW112255  11.549   3.953   5.001
 3472SOL    HW212256  11.585   3.927   5.145
 3473SOL     OW12257   8.670   1.905   5.255
 3473SOL    HW112258   8.671   1.972   5.323
 3473SOL    HW212259   8.762   1.885   5.238
 3474SOL     OW12260   1.396   1.612  14.332
 3474SOL    HW112261   1.454   1.687  14.318
 3474SOL    HW212262   1.397   1.565  14.249
 3475SOL     OW12263  14.167   4.839   0.072
 3475SOL    HW112264  14.161   4.803   0.161
 3475SOL    HW212265  14.095   4.902   0.067
 3476SOL     OW12266   0.494   8.656   7.818
 3476SOL    HW112267   0.460   8.676   7.905
 3476SOL    HW212268   0.589   8.670   7.826
 3477SOL     OW12269   1.224   1.826   6.853
 3477SOL    HW112270   1.179   1.911   6.848
 3477SOL    HW212271   1.176   1.771   6.791
 3478SOL     OW12272   7.562   0.645  12.422
 3478SOL    HW112273   7.614   0.683  12.492
 3478SOL    HW212274   7.554   0.714  12.356
 3479SOL     OW12275   2.456   6.404   4.294
 3479SOL    HW112276   2.546   6.377   4.315
 3479SOL    HW212277   2.405   6.323   4.301
 3480SOL     OW12278   1.308  12.184   9.651
 3480SOL    HW112279   1.353  12.177   9.567
 3480SOL    HW212280   1.342  12.111   9.704
 3481SOL     OW12281   0.871   4.382   5.537
 3481SOL    HW112282   0.813   4.327   5.485
 3481SOL    HW212283   0.811   4.435   5.590
 3482SOL     OW12284   3.123   9.266   0.511
 3482SOL    HW112285   3.125   9.226   0.424
 3482SOL    HW212286   3.205   9.315   0.518
 3483SOL     OW12287   6.051  11.318   9.780
 3483SOL    HW112288   6.027  11.387   9.718
 3483SOL    HW212289   6.142  11.336   9.802
 3484SOL     OW12290   2.381  12.733   2.782
 3484SOL    HW112291   2.419  12.654   2.820
 3484SOL    HW212292   2.313  12.701   2.722
 3485SOL     OW12293  14.713  14.752   0.662
 3485SOL    HW112294  14.725  14.773   0.569
 3485SOL    HW212295  14.694  14.659   0.664
 3486SOL     OW12296   7.046   6.936   6.563
 3486SOL    HW112297   7.016   6.991   6.490
 3486SOL    HW212298   7.129   6.899   6.533
 3487SOL     OW12299   2.891   6.911   3.380
 3487SOL    HW112300   2.930   6.896   3.467
 3487SOL    HW212301   2.805   6.870   3.385
 3488SOL     OW12302   3.450  11.946   5.971
 3488SOL    HW112303   3.482  12.036   5.959
 3488SOL    HW212304   3.378  11.954   6.033
 3489SOL     OW12305   0.992   3.996   2.204
 3489SOL    HW112306   1.063   4.054   2.234
 3489SOL    HW212307   0.960   3.954   2.284
 3490SOL     OW12308   5.912   0.963  12.247
 3490SOL    HW112309   5.948   0.878  12.274
 3490SOL    HW212310   5.942   0.973  12.157
 3491SOL     OW12311   2.726  12.675   9.500
 3491SOL    HW112312   2.652  12.616   9.502
 3491SOL    HW212313   2.724  12.720   9.585
 3492SOL     OW12314   7.829  14.609   3.369
 3492SOL    HW112315   7.740  14.644   3.358
 3492SOL    HW212316   7.886  14.684   3.358
 3493SOL     OW12317   4.512  12.505   9.631
 3493SOL    HW112318   4.423  12.513   9.665
 3493SOL    HW212319   4.569  12.517   9.707
 3494SOL     OW12320   1.888  14.337  12.914
 3494SOL    HW112321   1.925  14.317  13.000
 3494SOL    HW212322   1.796  14.356  12.931
 3495SOL     OW12323   8.704  10.604   5.906
 3495SOL    HW112324   8.687  10.510   5.896
 3495SOL    HW212325   8.788  10.619   5.862
 3496SOL     OW12326  13.258  14.729   0.672
 3496SOL    HW112327  13.344  14.692   0.655
 3496SOL    HW212328  13.237  14.779   0.594
 3497SOL     OW12329   9.184   0.298   3.892
 3497SOL    HW112330   9.137   0.294   3.975
 3497SOL    HW212331   9.224   0.385   3.891
 3498SOL     OW12332  11.127   4.934   7.236
 3498SOL    HW112333  11.087   4.882   7.166
 3498SOL    HW212334  11.067   4.924   7.310
 3499SOL     OW12335   9.609   2.184   9.744
 3499SOL    HW112336   9.565   2.137   9.814
 3499SOL    HW212337   9.693   2.210   9.781
 3500SOL     OW12338   2.095   5.439   1.544
 3500SOL    HW112339   2.022   5.422   1.603
 3500SOL    HW212340   2.115   5.354   1.504
 3501SOL     OW12341   3.665   2.135  13.590
 3501SOL    HW112342   3.712   2.074  13.648
 3501SOL    HW212343   3.626   2.079  13.523
 3502SOL     OW12344   8.691   1.581   8.923
 3502SOL    HW112345   8.721   1.672   8.917
 3502SOL    HW212346   8.608   1.586   8.971
 3503SOL     OW12347   8.164   5.916  14.518
 3503SOL    HW112348   8.238   5.941  14.464
 3503SOL    HW212349   8.135   5.831  14.482
 3504SOL     OW12350  10.345   3.750   6.775
 3504SOL    HW112351  10.372   3.842   6.780
 3504SOL    HW212352  10.251   3.752   6.794
 3505SOL     OW12353  10.639  10.991  12.141
 3505SOL    HW112354  10.675  10.902  12.137
 3505SOL    HW212355  10.633  11.010  12.235
 3506SOL     OW12356   3.953   7.078  11.580
 3506SOL    HW112357   4.033   7.098  11.531
 3506SOL    HW212358   3.955   6.983  11.591
 3507SOL     OW12359   6.086   6.652   2.287
 3507SOL    HW112360   6.062   6.704   2.210
 3507SOL    HW212361   6.113   6.717   2.352
 3508SOL     OW12362  12.055   3.265  10.826
 3508SOL    HW112363  12.082   3.199  10.762
 3508SOL    HW212364  12.121   3.258  10.895
 3509SOL     OW12365   8.461   4.126   0.570
 3509SOL    HW112366   8.400   4.104   0.499
 3509SOL    HW212367   8.508   4.203   0.537
 3510SOL     OW12368   2.044   8.767  14.648
 3510SOL    HW112369   2.064   8.779  14.741
 3510SOL    HW212370   1.966   8.820  14.633
 3511SOL     OW12371   1.190  12.636   7.093
 3511SOL    HW112372   1.230  12.630   7.180
 3511SOL    HW212373   1.158  12.547   7.076
 3512SOL     OW12374  10.155   4.621   0.456
 3512SOL    HW112375  10.148   4.614   0.552
 3512SOL    HW212376  10.091   4.688   0.433
 3513SOL     OW12377   1.167  14.526   8.006
 3513SOL    HW112378   1.234  14.591   7.987
 3513SOL    HW212379   1.120  14.561   8.081
 3514SOL     OW12380   4.514  11.554   0.206
 3514SOL    HW112381   4.569  11.521   0.136
 3514SOL    HW212382   4.447  11.607   0.161
 3515SOL     OW12383   1.517  10.423   5.426
 3515SOL    HW112384   1.489  10.514   5.423
 3515SOL    HW212385   1.539  10.408   5.518
 3516SOL     OW12386   9.557   5.763   9.647
 3516SOL    HW112387   9.617   5.687   9.642
 3516SOL    HW212388   9.504   5.746   9.725
 3517SOL     OW12389  11.358   4.691  14.735
 3517SOL    HW112390  11.325   4.625  14.674
 3517SOL    HW212391  11.355   4.648  14.820
 3518SOL     OW12392  13.997   8.536   7.687
 3518SOL    HW112393  14.033   8.595   7.621
 3518SOL    HW212394  13.995   8.589   7.767
 3519SOL     OW12395  14.734  13.101   1.399
 3519SOL    HW112396  14.807  13.120   1.459
 3519SOL    HW212397  14.679  13.039   1.448
 3520SOL     OW12398   0.790   2.629   7.412
 3520SOL    HW112399   0.717   2.567   7.408
 3520SOL    HW212400   0.758   2.700   7.467
 3521SOL     OW12401   6.023  10.702  11.006
 3521SOL    HW112402   6.071  10.628  10.970
 3521SOL    HW212403   6.090  10.757  11.047
 3522SOL     OW12404   9.716   4.369   8.714
 3522SOL    HW112405   9.683   4.416   8.637
 3522SOL    HW212406   9.780   4.428   8.753
 3523SOL     OW12407   6.121   8.607   5.849
 3523SOL    HW112408   6.102   8.524   5.892
 3523SOL    HW212409   6.039   8.656   5.855
 3524SOL     OW12410  12.910  11.672   5.013
 3524SOL    HW112411  12.887  11.739   4.949
 3524SOL    HW212412  12.998  11.695   5.043
 3525SOL     OW12413   0.859   0.185   2.900
 3525SOL    HW112414   0.833   0.138   2.821
 3525SOL    HW212415   0.848   0.277   2.878
 3526SOL     OW12416  12.081  11.350   4.171
 3526SOL    HW112417  12.021  11.416   4.136
 3526SOL    HW212418  12.039  11.320   4.251
 3527SOL     OW12419   8.039   9.430  13.495
 3527SOL    HW112420   7.993   9.347  13.508
 3527SOL    HW212421   8.132   9.407  13.497
 3528SOL     OW12422  13.388   7.743  14.043
 3528SOL    HW112423  13.324   7.676  14.021
 3528SOL    HW212424  13.400   7.736  14.137
 3529SOL     OW12425   0.855   8.480  12.434
 3529SOL    HW112426   0.776   8.432  12.459
 3529SOL    HW212427   0.823   8.556  12.387
 3530SOL     OW12428   6.789   7.165   5.543
 3530SOL    HW112429   6.844   7.113   5.484
 3530SOL    HW212430   6.798   7.255   5.511
 3531SOL     OW12431   5.163   2.045  13.928
 3531SOL    HW112432   5.216   1.974  13.892
 3531SOL    HW212433   5.089   2.002  13.970
 3532SOL     OW12434   9.273   4.593   2.641
 3532SOL    HW112435   9.224   4.676   2.643
 3532SOL    HW212436   9.218   4.531   2.689
 3533SOL     OW12437  13.334  13.911   0.081
 3533SOL    HW112438  13.322  13.992   0.032
 3533SOL    HW212439  13.250  13.895   0.124
 3534SOL     OW12440   1.340  11.948   6.010
 3534SOL    HW112441   1.416  11.908   5.967
 3534SOL    HW212442   1.373  12.032   6.043
 3535SOL     OW12443   5.722  13.745  13.520
 3535SOL    HW112444   5.759  13.698  13.446
 3535SOL    HW212445   5.797  13.784  13.564
 3536SOL     OW12446   5.166   2.282   2.485
 3536SOL    HW112447   5.189   2.286   2.578
 3536SOL    HW212448   5.230   2.338   2.442
 3537SOL     OW12449   6.881   4.912   8.379
 3537SOL    HW112450   6.904   5.000   8.350
 3537SOL    HW212451   6.935   4.896   8.456
 3538SOL     OW12452  12.148   6.633  11.426
 3538SOL    HW112453  12.076   6.689  11.454
 3538SOL    HW212454  12.141   6.630  11.331
 3539SOL     OW12455  13.301  10.359  10.901
 3539SOL    HW112456  13.365  10.381  10.834
 3539SOL    HW212457  13.353  10.328  10.975
 3540SOL     OW12458   4.598   7.145   6.220
 3540SOL    HW112459   4.637   7.073   6.170
 3540SOL    HW212460   4.653   7.221   6.199
 3541SOL     OW12461   9.879   8.904   8.542
 3541SOL    HW112462   9.831   8.937   8.466
 3541SOL    HW212463   9.859   8.810   8.543
 3542SOL     OW12464  11.190   5.803   8.566
 3542SOL    HW112465  11.249   5.821   8.493
 3542SOL    HW212466  11.241   5.821   8.644
 3543SOL     OW12467   0.244   7.012   2.409
 3543SOL    HW112468   0.228   7.106   2.417
 3543SOL    HW212469   0.159   6.975   2.385
 3544SOL     OW12470  12.345  12.754   1.368
 3544SOL    HW112471  12.384  12.675   1.405
 3544SOL    HW212472  12.400  12.775   1.292
 3545SOL     OW12473   6.180  14.724  11.762
 3545SOL    HW112474   6.200  14.816  11.744
 3545SOL    HW212475   6.257  14.676  11.730
 3546SOL     OW12476   0.409   1.487  14.296
 3546SOL    HW112477   0.461   1.533  14.230
 3546SOL    HW212478   0.412   1.543  14.373
 3547SOL     OW12479   1.473   3.735  13.615
 3547SOL    HW112480   1.387   3.707  13.645
 3547SOL    HW212481   1.475   3.829  13.630
 3548SOL     OW12482   4.591   5.209   1.736
 3548SOL    HW112483   4.544   5.189   1.817
 3548SOL    HW212484   4.621   5.124   1.704
 3549SOL     OW12485   8.598   2.507   2.529
 3549SOL    HW112486   8.619   2.514   2.622
 3549SOL    HW212487   8.610   2.415   2.508
 3550SOL     OW12488   5.670   5.417   5.025
 3550SOL    HW112489   5.744   5.356   5.020
 3550SOL    HW212490   5.707   5.497   5.063
 3551SOL     OW12491   8.712   5.228   0.068
 3551SOL    HW112492   8.744   5.138   0.066
 3551SOL    HW212493   8.630   5.226   0.019
 3552SOL     OW12494   4.668   5.522   2.433
 3552SOL    HW112495   4.746   5.512   2.487
 3552SOL    HW212496   4.637   5.611   2.451
 3553SOL     OW12497   7.110   0.334  11.508
 3553SOL    HW112498   7.114   0.395  11.434
 3553SOL    HW212499   7.201   0.305  11.520
 3554SOL     OW12500   9.597   5.526   8.561
 3554SOL    HW112501   9.663   5.463   8.588
 3554SOL    HW212502   9.646   5.588   8.505
 3555SOL     OW12503   7.738   5.754   3.928
 3555SOL    HW112504   7.696   5.668   3.941
 3555SOL    HW212505   7.784   5.745   3.844
 3556SOL     OW12506  13.706  10.411   7.517
 3556SOL    HW112507  13.748  10.496   7.503
 3556SOL    HW212508  13.620  10.419   7.476
 3557SOL     OW12509   5.656   6.370   0.038
 3557SOL    HW112510   5.567   6.401   0.058
 3557SOL    HW212511   5.709   6.399   0.113
 3558SOL     OW12512   3.233   5.175   1.314
 3558SOL    HW112513   3.326   5.174   1.339
 3558SOL    HW212514   3.203   5.262   1.339
 3559SOL     OW12515   8.726  12.979   0.684
 3559SOL    HW112516   8.673  12.905   0.715
 3559SOL    HW212517   8.786  12.997   0.756
 3560SOL     OW12518  13.246  10.801  14.300
 3560SOL    HW112519  13.342  10.803  14.292
 3560SOL    HW212520  13.214  10.815  14.212
 3561SOL     OW12521  14.491   0.278   9.151
 3561SOL    HW112522  14.484   0.350   9.089
 3561SOL    HW212523  14.556   0.219   9.113
 3562SOL     OW12524   8.061   2.583  10.585
 3562SOL    HW112525   8.072   2.619  10.497
 3562SOL    HW212526   8.029   2.657  10.638
 3563SOL     OW12527   0.210   5.280   5.228
 3563SOL    HW112528   0.306   5.277   5.230
 3563SOL    HW212529   0.190   5.362   5.183
 3564SOL     OW12530  13.873  13.384   4.035
 3564SOL    HW112531  13.948  13.414   3.985
 3564SOL    HW212532  13.866  13.447   4.107
 3565SOL     OW12533   7.600  11.426  13.165
 3565SOL    HW112534   7.620  11.503  13.111
 3565SOL    HW212535   7.589  11.461  13.253
 3566SOL     OW12536   0.731   8.391   4.990
 3566SOL    HW112537   0.736   8.323   5.056
 3566SOL    HW212538   0.660   8.364   4.932
 3567SOL     OW12539   4.686   0.348   5.896
 3567SOL    HW112540   4.664   0.364   5.988
 3567SOL    HW212541   4.673   0.432   5.853
 3568SOL     OW12542   4.873  13.340  11.714
 3568SOL    HW112543   4.961  13.304  11.729
 3568SOL    HW212544   4.827  13.272  11.665
 3569SOL     OW12545   2.787   4.935  13.009
 3569SOL    HW112546   2.836   4.984  13.075
 3569SOL    HW212547   2.805   4.843  13.029
 3570SOL     OW12548   1.790   0.558  11.230
 3570SOL    HW112549   1.885   0.553  11.216
 3570SOL    HW212550   1.754   0.573  11.142
 3571SOL     OW12551   5.327  11.005   5.728
 3571SOL    HW112552   5.276  10.925   5.738
 3571SOL    HW212553   5.418  10.976   5.725
 3572SOL     OW12554   2.191   1.438  13.330
 3572SOL    HW112555   2.117   1.473  13.380
 3572SOL    HW212556   2.229   1.514  13.287
 3573SOL     OW12557   8.332  14.009   8.533
 3573SOL    HW112558   8.305  13.918   8.550
 3573SOL    HW212559   8.362  14.009   8.443
 3574SOL     OW12560   3.538   0.090   8.580
 3574SOL    HW112561   3.518  14.878   8.581
 3574SOL    HW212562   3.628   0.094   8.546
 3575SOL     OW12563  14.311   8.595   1.557
 3575SOL    HW112564  14.289   8.685   1.581
 3575SOL    HW212565  14.397   8.580   1.598
 3576SOL     OW12566  13.868  12.071   0.811
 3576SOL    HW112567  13.843  11.992   0.763
 3576SOL    HW212568  13.797  12.132   0.796
 3577SOL     OW12569  13.070  12.017   6.754
 3577SOL    HW112570  13.051  11.934   6.797
 3577SOL    HW212571  13.007  12.079   6.791
 3578SOL     OW12572  14.301   6.354  10.637
 3578SOL    HW112573  14.249   6.433  10.650
 3578SOL    HW212574  14.284   6.327  10.547
 3579SOL     OW12575  10.850   0.297   3.828
 3579SOL    HW112576  10.763   0.263   3.849
 3579SOL    HW212577  10.848   0.388   3.858
 3580SOL     OW12578   6.308   7.800  11.397
 3580SOL    HW112579   6.371   7.809  11.325
 3580SOL    HW212580   6.275   7.711  11.388
 3581SOL     OW12581   5.898   6.212  11.035
 3581SOL    HW112582   5.840   6.209  11.111
 3581SOL    HW212583   5.928   6.121  11.025
 3582SOL     OW12584  13.599   1.753   3.931
 3582SOL    HW112585  13.556   1.676   3.969
 3582SOL    HW212586  13.688   1.749   3.965
 3583SOL     OW12587  12.461   7.212   6.733
 3583SOL    HW112588  12.412   7.223   6.652
 3583SOL    HW212589  12.521   7.139   6.715
 3584SOL     OW12590  10.433   1.315   8.552
 3584SOL    HW112591  10.446   1.398   8.506
 3584SOL    HW212592  10.380   1.338   8.628
 3585SOL     OW12593   3.864   6.512  12.672
 3585SOL    HW112594   3.919   6.477  12.602
 3585SOL    HW212595   3.925   6.545  12.737
 3586SOL     OW12596   5.685   5.639  14.102
 3586SOL    HW112597   5.661   5.690  14.178
 3586SOL    HW212598   5.781   5.637  14.104
 3587SOL     OW12599   3.284   5.803  10.173
 3587SOL    HW112600   3.254   5.784  10.262
 3587SOL    HW212601   3.366   5.851  10.184
 3588SOL     OW12602  12.798   1.672   5.193
 3588SOL    HW112603  12.853   1.709   5.262
 3588SOL    HW212604  12.709   1.681   5.225
 3589SOL     OW12605   7.474  14.648   2.245
 3589SOL    HW112606   7.450  14.602   2.164
 3589SOL    HW212607   7.485  14.578   2.309
 3590SOL     OW12608   2.102   4.812   0.510
 3590SOL    HW112609   2.190   4.845   0.526
 3590SOL    HW212610   2.049   4.848   0.581
 3591SOL     OW12611   0.720  14.050   5.686
 3591SOL    HW112612   0.666  13.976   5.659
 3591SOL    HW212613   0.760  14.022   5.769
 3592SOL     OW12614   4.816   1.072   9.428
 3592SOL    HW112615   4.855   1.153   9.396
 3592SOL    HW212616   4.770   1.035   9.352
 3593SOL     OW12617  11.320  13.273   8.219
 3593SOL    HW112618  11.379  13.329   8.271
 3593SOL    HW212619  11.361  13.187   8.220
 3594SOL     OW12620   5.131   5.394  10.644
 3594SOL    HW112621   5.191   5.374  10.571
 3594SOL    HW212622   5.052   5.344  10.624
 3595SOL     OW12623   9.381  14.845  11.299
 3595SOL    HW112624   9.291  14.826  11.271
 3595SOL    HW212625   9.385  14.815  11.389
 3596SOL     OW12626   1.938   7.045   7.624
 3596SOL    HW112627   1.911   7.082   7.708
 3596SOL    HW212628   1.867   7.066   7.564
 3597SOL     OW12629   4.342   8.892   0.789
 3597SOL    HW112630   4.422   8.840   0.785
 3597SOL    HW212631   4.316   8.903   0.698
 3598SOL     OW12632   8.835  11.586   3.410
 3598SOL    HW112633   8.924  11.599   3.443
 3598SOL    HW212634   8.781  11.643   3.464
 3599SOL     OW12635   0.417   7.301   1.015
 3599SOL    HW112636   0.424   7.377   0.957
 3599SOL    HW212637   0.424   7.337   1.103
 3600SOL     OW12638  13.881  11.010   4.197
 3600SOL    HW112639  13.852  10.925   4.165
 3600SOL    HW212640  13.806  11.045   4.245
 3601SOL     OW12641   0.599  11.138  10.725
 3601SOL    HW112642   0.550  11.206  10.771
 3601SOL    HW212643   0.685  11.177  10.709
 3602SOL     OW12644   9.753   2.373  13.373
 3602SOL    HW112645   9.803   2.453  13.356
 3602SOL    HW212646   9.799   2.304  13.326
 3603SOL     OW12647   9.956  14.632  12.582
 3603SOL    HW112648   9.975  14.599  12.495
 3603SOL    HW212649   9.861  14.627  12.590
 3604SOL     OW12650  12.316   2.436  11.338
 3604SOL    HW112651  12.376   2.361  11.336
 3604SOL    HW212652  12.328   2.474  11.425
 3605SOL     OW12653  12.991   1.185  10.849
 3605SOL    HW112654  12.906   1.207  10.887
 3605SOL    HW212655  13.014   1.262  10.797
 3606SOL     OW12656   5.093   9.136   9.559
 3606SOL    HW112657   5.090   9.227   9.590
 3606SOL    HW212658   5.101   9.143   9.464
 3607SOL     OW12659  11.350  11.701   6.605
 3607SOL    HW112660  11.365  11.618   6.559
 3607SOL    HW212661  11.303  11.676   6.685
 3608SOL     OW12662   0.287   0.267  11.078
 3608SOL    HW112663   0.326   0.331  11.019
 3608SOL    HW212664   0.326   0.183  11.054
 3609SOL     OW12665  14.324  12.525   4.104
 3609SOL    HW112666  14.406  12.510   4.057
 3609SOL    HW212667  14.333  12.474   4.185
 3610SOL     OW12668   3.380   9.857  10.472
 3610SOL    HW112669   3.421   9.889  10.392
 3610SOL    HW212670   3.419   9.909  10.542
 3611SOL     OW12671   2.198   6.769   4.960
 3611SOL    HW112672   2.243   6.844   5.000
 3611SOL    HW212673   2.198   6.702   5.028
 3612SOL     OW12674   0.487   6.541  13.143
 3612SOL    HW112675   0.470   6.458  13.098
 3612SOL    HW212676   0.565   6.524  13.195
 3613SOL     OW12677  10.017   3.708   2.347
 3613SOL    HW112678  10.046   3.795   2.375
 3613SOL    HW212679   9.994   3.664   2.429
 3614SOL     OW12680   6.706  14.661   2.268
 3614SOL    HW112681   6.612  14.648   2.286
 3614SOL    HW212682   6.709  14.734   2.206
 3615SOL     OW12683   0.330   7.445   8.714
 3615SOL    HW112684   0.348   7.536   8.686
 3615SOL    HW212685   0.401   7.394   8.674
 3616SOL     OW12686   1.750  10.850   7.834
 3616SOL    HW112687   1.741  10.864   7.928
 3616SOL    HW212688   1.793  10.930   7.802
 3617SOL     OW12689  12.253   2.653  12.747
 3617SOL    HW112690  12.291   2.620  12.829
 3617SOL    HW212691  12.170   2.606  12.739
 3618SOL     OW12692  10.428  11.229   9.004
 3618SOL    HW112693  10.343  11.198   8.973
 3618SOL    HW212694  10.446  11.176   9.082
 3619SOL     OW12695   9.754   5.383   7.056
 3619SOL    HW112696   9.692   5.425   6.996
 3619SOL    HW212697   9.836   5.380   7.007
 3620SOL     OW12698   0.662  11.639  14.505
 3620SOL    HW112699   0.726  11.679  14.446
 3620SOL    HW212700   0.652  11.549  14.473
 3621SOL     OW12701  12.700   5.052   3.562
 3621SOL    HW112702  12.756   5.065   3.485
 3621SOL    HW212703  12.614   5.032   3.525
 3622SOL     OW12704   3.070   2.701  12.386
 3622SOL    HW112705   3.018   2.762  12.333
 3622SOL    HW212706   3.160   2.730  12.375
 3623SOL     OW12707   0.018   9.125   7.052
 3623SOL    HW112708   0.060   9.042   7.077
 3623SOL    HW212709  14.819   9.127   7.103
 3624SOL     OW12710   0.975  14.805  10.865
 3624SOL    HW112711   0.990  14.729  10.922
 3624SOL    HW212712   0.882  14.800  10.843
 3625SOL     OW12713   9.402  13.321  13.566
 3625SOL    HW112714   9.357  13.289  13.645
 3625SOL    HW212715   9.488  13.280  13.570
 3626SOL     OW12716   4.106   4.783  14.474
 3626SOL    HW112717   4.179   4.799  14.414
 3626SOL    HW212718   4.130   4.828  14.555
 3627SOL     OW12719   1.024  11.086  11.201
 3627SOL    HW112720   1.099  11.031  11.180
 3627SOL    HW212721   1.062  11.172  11.218
 3628SOL     OW12722  13.930   8.544  13.907
 3628SOL    HW112723  13.895   8.544  13.818
 3628SOL    HW212724  13.969   8.631  13.918
 3629SOL     OW12725   8.916   9.057   7.893
 3629SOL    HW112726   8.947   8.967   7.881
 3629SOL    HW212727   8.840   9.049   7.950
 3630SOL     OW12728  11.716   1.243   9.675
 3630SOL    HW112729  11.787   1.287   9.721
 3630SOL    HW212730  11.718   1.280   9.587
 3631SOL     OW12731   1.766   9.423  14.505
 3631SOL    HW112732   1.850   9.460  14.478
 3631SOL    HW212733   1.785   9.383  14.590
 3632SOL     OW12734  11.460   8.427   7.988
 3632SOL    HW112735  11.412   8.416   8.070
 3632SOL    HW212736  11.394   8.461   7.927
 3633SOL     OW12737  10.216   9.029  12.055
 3633SOL    HW112738  10.125   8.999  12.053
 3633SOL    HW212739  10.268   8.951  12.035
 3634SOL     OW12740   5.865   3.623   3.579
 3634SOL    HW112741   5.789   3.618   3.637
 3634SOL    HW212742   5.885   3.532   3.557
 3635SOL     OW12743  12.707   9.223  13.766
 3635SOL    HW112744  12.654   9.300  13.782
 3635SOL    HW212745  12.660   9.152  13.810
 3636SOL     OW12746   6.984   3.677   7.024
 3636SOL    HW112747   6.891   3.659   7.012
 3636SOL    HW212748   7.028   3.594   7.007
 3637SOL     OW12749   3.208  13.980   8.000
 3637SOL    HW112750   3.206  14.006   7.908
 3637SOL    HW212751   3.275  14.037   8.039
 3638SOL     OW12752  10.870   7.765   4.962
 3638SOL    HW112753  10.862   7.762   4.866
 3638SOL    HW212754  10.938   7.830   4.978
 3639SOL     OW12755  11.879   6.024   3.749
 3639SOL    HW112756  11.932   5.997   3.674
 3639SOL    HW212757  11.790   6.000   3.725
 3640SOL     OW12758  14.106   6.398  13.651
 3640SOL    HW112759  14.072   6.418  13.738
 3640SOL    HW212760  14.115   6.302  13.650
 3641SOL     OW12761   5.520  14.781   8.683
 3641SOL    HW112762   5.439  14.807   8.728
 3641SOL    HW212763   5.523  14.836   8.605
 3642SOL     OW12764   0.425  11.133   4.848
 3642SOL    HW112765   0.352  11.105   4.792
 3642SOL    HW212766   0.455  11.052   4.890
 3643SOL     OW12767  12.406   9.752  14.031
 3643SOL    HW112768  12.321   9.712  14.051
 3643SOL    HW212769  12.392   9.846  14.041
 3644SOL     OW12770   0.768   6.069   3.858
 3644SOL    HW112771   0.740   6.114   3.779
 3644SOL    HW212772   0.688   6.058   3.909
 3645SOL     OW12773  12.771   8.463   5.002
 3645SOL    HW112774  12.786   8.490   4.912
 3645SOL    HW212775  12.760   8.368   4.996
 3646SOL     OW12776   6.606  11.171   2.918
 3646SOL    HW112777   6.536  11.107   2.911
 3646SOL    HW212778   6.561  11.255   2.933
 3647SOL     OW12779   5.819  13.728   5.206
 3647SOL    HW112780   5.762  13.668   5.157
 3647SOL    HW212781   5.834  13.801   5.146
 3648SOL     OW12782   6.825   6.471   8.231
 3648SOL    HW112783   6.791   6.421   8.305
 3648SOL    HW212784   6.847   6.405   8.165
 3649SOL     OW12785  12.523  11.135   0.065
 3649SOL    HW112786  12.477  11.215   0.092
 3649SOL    HW212787  12.609  11.166   0.035
 3650SOL     OW12788   5.966   4.107  11.626
 3650SOL    HW112789   5.998   4.139  11.542
 3650SOL    HW212790   6.037   4.052  11.659
 3651SOL     OW12791   5.215  10.208   3.906
 3651SOL    HW112792   5.230  10.281   3.966
 3651SOL    HW212793   5.267  10.136   3.941
 3652SOL     OW12794   5.765  10.547   6.438
 3652SOL    HW112795   5.699  10.544   6.507
 3652SOL    HW212796   5.837  10.598   6.475
 3653SOL     OW12797  11.625   4.073   1.701
 3653SOL    HW112798  11.604   4.166   1.709
 3653SOL    HW212799  11.705   4.070   1.649
 3654SOL     OW12800   3.037  14.536   2.040
 3654SOL    HW112801   3.007  14.463   1.986
 3654SOL    HW212802   2.972  14.605   2.025
 3655SOL     OW12803   4.307   2.019  10.428
 3655SOL    HW112804   4.268   1.940  10.465
 3655SOL    HW212805   4.339   2.068  10.504
 3656SOL     OW12806   2.338   5.095   9.296
 3656SOL    HW112807   2.287   5.168   9.262
 3656SOL    HW212808   2.421   5.134   9.322
 3657SOL     OW12809  13.254   6.777   4.785
 3657SOL    HW112810  13.182   6.836   4.808
 3657SOL    HW212811  13.213   6.711   4.728
 3658SOL     OW12812   1.662   4.252   7.989
 3658SOL    HW112813   1.581   4.264   7.939
 3658SOL    HW212814   1.704   4.175   7.949
 3659SOL     OW12815  13.546  12.219   7.100
 3659SOL    HW112816  13.609  12.151   7.125
 3659SOL    HW212817  13.461  12.183   7.126
 3660SOL     OW12818   5.272   4.278   1.610
 3660SOL    HW112819   5.313   4.209   1.558
 3660SOL    HW212820   5.197   4.306   1.557
 3661SOL     OW12821  10.678   5.375   1.569
 3661SOL    HW112822  10.672   5.435   1.643
 3661SOL    HW212823  10.605   5.314   1.581
 3662SOL     OW12824   3.986  12.602   5.787
 3662SOL    HW112825   3.947  12.656   5.718
 3662SOL    HW212826   4.072  12.577   5.752
 3663SOL     OW12827   0.051   7.773   0.018
 3663SOL    HW112828  14.864   7.747   0.078
 3663SOL    HW212829   0.071   7.864   0.042
 3664SOL     OW12830  12.943  14.015   2.477
 3664SOL    HW112831  12.985  13.930   2.493
 3664SOL    HW212832  12.984  14.074   2.540
 3665SOL     OW12833   3.619  14.014   2.240
 3665SOL    HW112834   3.525  13.995   2.243
 3665SOL    HW212835   3.656  13.946   2.185
 3666SOL     OW12836  12.670  12.216   1.969
 3666SOL    HW112837  12.727  12.293   1.969
 3666SOL    HW212838  12.727  12.143   1.992
 3667SOL     OW12839   1.743   9.207  12.605
 3667SOL    HW112840   1.799   9.258  12.546
 3667SOL    HW212841   1.803   9.169  12.669
 3668SOL     OW12842   6.795   9.342   6.518
 3668SOL    HW112843   6.867   9.364   6.459
 3668SOL    HW212844   6.838   9.306   6.595
 3669SOL     OW12845   4.844   7.599   3.812
 3669SOL    HW112846   4.789   7.557   3.878
 3669SOL    HW212847   4.901   7.658   3.862
 3670SOL     OW12848  11.192   0.485  14.753
 3670SOL    HW112849  11.171   0.570  14.716
 3670SOL    HW212850  11.215   0.503  14.845
 3671SOL     OW12851   9.951   0.758   6.524
 3671SOL    HW112852   9.957   0.799   6.437
 3671SOL    HW212853   9.890   0.685   6.511
 3672SOL     OW12854   5.537   7.449   2.978
 3672SOL    HW112855   5.546   7.355   2.965
 3672SOL    HW212856   5.607   7.471   3.039
 3673SOL     OW12857   1.978   5.418  12.730
 3673SOL    HW112858   2.070   5.443  12.718
 3673SOL    HW212859   1.959   5.360  12.657
 3674SOL     OW12860   1.092  14.579   2.364
 3674SOL    HW112861   1.036  14.605   2.290
 3674SOL    HW212862   1.179  14.571   2.326
 3675SOL     OW12863   2.600   3.296   0.351
 3675SOL    HW112864   2.668   3.268   0.412
 3675SOL    HW212865   2.633   3.378   0.314
 3676SOL     OW12866   0.422   1.139   0.036
 3676SOL    HW112867   0.485   1.144   0.109
 3676SOL    HW212868   0.395   1.047   0.034
 3677SOL     OW12869  12.856   0.924   6.214
 3677SOL    HW112870  12.949   0.900   6.210
 3677SOL    HW212871  12.855   1.018   6.195
 3678SOL     OW12872   2.474  14.679  12.267
 3678SOL    HW112873   2.410  14.655  12.334
 3678SOL    HW212874   2.549  14.712  12.316
 3679SOL     OW12875   9.471  10.832   8.938
 3679SOL    HW112876   9.457  10.863   9.028
 3679SOL    HW212877   9.424  10.895   8.884
 3680SOL     OW12878   9.089  10.613  13.318
 3680SOL    HW112879   9.094  10.600  13.223
 3680SOL    HW212880   9.050  10.532  13.351
 3681SOL     OW12881   4.121   9.680  14.324
 3681SOL    HW112882   4.189   9.687  14.257
 3681SOL    HW212883   4.049   9.734  14.291
 3682SOL     OW12884   3.689   9.106   0.291
 3682SOL    HW112885   3.612   9.084   0.238
 3682SOL    HW212886   3.653   9.153   0.366
 3683SOL     OW12887  10.185  12.290  14.511
 3683SOL    HW112888  10.106  12.338  14.484
 3683SOL    HW212889  10.176  12.280  14.606
 3684SOL     OW12890   4.860   8.936  10.841
 3684SOL    HW112891   4.879   8.843  10.830
 3684SOL    HW212892   4.766   8.944  10.827
 3685SOL     OW12893  10.732   8.297  12.526
 3685SOL    HW112894  10.652   8.321  12.478
 3685SOL    HW212895  10.701   8.240  12.596
 3686SOL     OW12896   9.817  13.156   5.568
 3686SOL    HW112897   9.809  13.245   5.601
 3686SOL    HW212898   9.735  13.113   5.592
 3687SOL     OW12899   6.497   2.699  13.344
 3687SOL    HW112900   6.442   2.772  13.374
 3687SOL    HW212901   6.523   2.654  13.424
 3688SOL     OW12902   0.913   9.050  13.971
 3688SOL    HW112903   0.860   9.130  13.981
 3688SOL    HW212904   0.848   8.980  13.958
 3689SOL     OW12905   8.555   4.129   4.018
 3689SOL    HW112906   8.489   4.116   3.951
 3689SOL    HW212907   8.629   4.075   3.990
 3690SOL     OW12908  11.627  14.046  14.880
 3690SOL    HW112909  11.625  14.142  14.874
 3690SOL    HW212910  11.546  14.022   0.043
 3691SOL     OW12911  10.126   2.683  12.247
 3691SOL    HW112912  10.035   2.652  12.241
 3691SOL    HW212913  10.118   2.777  12.263
 3692SOL     OW12914   8.251   6.692  12.407
 3692SOL    HW112915   8.253   6.646  12.490
 3692SOL    HW212916   8.335   6.739  12.403
 3693SOL     OW12917  12.773   0.924   3.200
 3693SOL    HW112918  12.751   0.932   3.108
 3693SOL    HW212919  12.758   1.011   3.237
 3694SOL     OW12920   6.095   2.675   9.325
 3694SOL    HW112921   6.035   2.736   9.282
 3694SOL    HW212922   6.157   2.732   9.371
 3695SOL     OW12923   3.042  13.252   0.272
 3695SOL    HW112924   2.955  13.220   0.247
 3695SOL    HW212925   3.102  13.203   0.216
 3696SOL     OW12926   1.987   7.195   4.844
 3696SOL    HW112927   1.949   7.116   4.882
 3696SOL    HW212928   1.939   7.207   4.762
 3697SOL     OW12929   7.199   4.410   3.583
 3697SOL    HW112930   7.177   4.503   3.580
 3697SOL    HW212931   7.114   4.366   3.584
 3698SOL     OW12932  14.292   2.677  10.618
 3698SOL    HW112933  14.379   2.688  10.658
 3698SOL    HW212934  14.291   2.741  10.547
 3699SOL     OW12935   5.157   5.187  11.759
 3699SOL    HW112936   5.236   5.237  11.780
 3699SOL    HW212937   5.098   5.203  11.832
 3700SOL     OW12938  12.557  10.822  12.586
 3700SOL    HW112939  12.529  10.735  12.559
 3700SOL    HW212940  12.487  10.853  12.644
 3701SOL     OW12941  10.918   7.126   1.162
 3701SOL    HW112942  11.005   7.087   1.175
 3701SOL    HW212943  10.929   7.217   1.192
 3702SOL     OW12944   5.090   1.920   0.447
 3702SOL    HW112945   5.142   1.940   0.525
 3702SOL    HW212946   5.054   1.833   0.464
 3703SOL     OW12947   3.020  10.104  14.377
 3703SOL    HW112948   2.925  10.103  14.372
 3703SOL    HW212949   3.049  10.069  14.292
 3704SOL     OW12950  13.505  10.690  13.439
 3704SOL    HW112951  13.484  10.784  13.439
 3704SOL    HW212952  13.578  10.681  13.500
 3705SOL     OW12953   5.492   7.734   0.495
 3705SOL    HW112954   5.504   7.699   0.406
 3705SOL    HW212955   5.422   7.681   0.533
 3706SOL     OW12956  14.664   8.626   8.664
 3706SOL    HW112957  14.640   8.579   8.744
 3706SOL    HW212958  14.711   8.562   8.612
 3707SOL     OW12959  14.802   0.212   1.558
 3707SOL    HW112960  14.758   0.255   1.632
 3707SOL    HW212961  14.879   0.170   1.597
 3708SOL     OW12962   0.455   0.786   6.987
 3708SOL    HW112963   0.393   0.840   7.037
 3708SOL    HW212964   0.401   0.717   6.948
 3709SOL     OW12965  13.322   7.640   1.328
 3709SOL    HW112966  13.236   7.612   1.297
 3709SOL    HW212967  13.359   7.563   1.371
 3710SOL     OW12968   5.492  14.520   0.590
 3710SOL    HW112969   5.428  14.501   0.658
 3710SOL    HW212970   5.504  14.614   0.593
 3711SOL     OW12971   3.105  12.035   2.788
 3711SOL    HW112972   3.077  12.110   2.839
 3711SOL    HW212973   3.146  12.073   2.710
 3712SOL     OW12974   2.852   2.440   8.825
 3712SOL    HW112975   2.798   2.422   8.748
 3712SOL    HW212976   2.820   2.524   8.858
 3713SOL     OW12977   3.683  14.651   7.324
 3713SOL    HW112978   3.695  14.714   7.395
 3713SOL    HW212979   3.594  14.618   7.335
 3714SOL     OW12980  10.403   0.911   2.626
 3714SOL    HW112981  10.425   0.992   2.673
 3714SOL    HW212982  10.308   0.903   2.637
 3715SOL     OW12983   2.862   5.631   2.525
 3715SOL    HW112984   2.947   5.620   2.483
 3715SOL    HW212985   2.816   5.549   2.509
 3716SOL     OW12986   1.195   1.257  14.298
 3716SOL    HW112987   1.240   1.279  14.380
 3716SOL    HW212988   1.102   1.256  14.321
 3717SOL     OW12989  10.186   7.904   9.914
 3717SOL    HW112990  10.125   7.922   9.986
 3717SOL    HW212991  10.264   7.954   9.936
 3718SOL     OW12992   0.342   0.984   9.975
 3718SOL    HW112993   0.403   1.052  10.001
 3718SOL    HW212994   0.394   0.904   9.971
 3719SOL     OW12995   7.715   2.218   9.808
 3719SOL    HW112996   7.653   2.240   9.878
 3719SOL    HW212997   7.774   2.154   9.848
 3720SOL     OW12998   4.345  10.175   2.298
 3720SOL    HW112999   4.367  10.183   2.205
 3720SOL    HW213000   4.309  10.260   2.322
 3721SOL     OW13001   8.059   8.478   5.656
 3721SOL    HW113002   7.983   8.534   5.641
 3721SOL    HW213003   8.129   8.519   5.606
 3722SOL     OW13004  13.329   6.460  12.469
 3722SOL    HW113005  13.412   6.412  12.460
 3722SOL    HW213006  13.297   6.435  12.556
 3723SOL     OW13007   9.679  13.317  12.493
 3723SOL    HW113008   9.600  13.267  12.474
 3723SOL    HW213009   9.704  13.291  12.582
 3724SOL     OW13010   8.934  10.141   9.327
 3724SOL    HW113011   8.975  10.227   9.331
 3724SOL    HW213012   8.925  10.114   9.419
 3725SOL     OW13013  11.875   4.034   1.030
 3725SOL    HW113014  11.940   3.989   1.083
 3725SOL    HW213015  11.922   4.109   0.992
 3726SOL     OW13016  12.121   5.617   8.234
 3726SOL    HW113017  12.165   5.688   8.187
 3726SOL    HW213018  12.079   5.566   8.165
 3727SOL     OW13019  14.036  11.353   9.590
 3727SOL    HW113020  14.044  11.415   9.664
 3727SOL    HW213021  14.064  11.269   9.626
 3728SOL     OW13022   6.498  11.309   9.909
 3728SOL    HW113023   6.453  11.273   9.985
 3728SOL    HW213024   6.573  11.250   9.894
 3729SOL     OW13025   5.451  13.592   1.194
 3729SOL    HW113026   5.391  13.520   1.178
 3729SOL    HW213027   5.431  13.656   1.126
 3730SOL     OW13028  14.247   0.752   3.867
 3730SOL    HW113029  14.227   0.682   3.805
 3730SOL    HW213030  14.317   0.716   3.922
 3731SOL     OW13031  13.609   0.721   8.104
 3731SOL    HW113032  13.604   0.666   8.182
 3731SOL    HW213033  13.702   0.735   8.090
 3732SOL     OW13034   3.552   6.163   9.552
 3732SOL    HW113035   3.640   6.198   9.542
 3732SOL    HW213036   3.565   6.071   9.574
 3733SOL     OW13037   4.579  10.141   4.992
 3733SOL    HW113038   4.500  10.105   4.954
 3733SOL    HW213039   4.611  10.073   5.052
 3734SOL     OW13040  13.171   8.418  12.642
 3734SOL    HW113041  13.220   8.420  12.724
 3734SOL    HW213042  13.212   8.348  12.592
 3735SOL     OW13043  14.381   4.562   7.565
 3735SOL    HW113044  14.288   4.565   7.541
 3735SOL    HW213045  14.381   4.530   7.655
 3736SOL     OW13046   4.200   3.159   4.643
 3736SOL    HW113047   4.177   3.139   4.733
 3736SOL    HW213048   4.170   3.084   4.592
 3737SOL     OW13049   0.906   6.915  14.307
 3737SOL    HW113050   0.969   6.937  14.239
 3737SOL    HW213051   0.834   6.873  14.260
 3738SOL     OW13052  11.068  12.332  14.664
 3738SOL    HW113053  11.001  12.382  14.710
 3738SOL    HW213054  11.019  12.262  14.620
 3739SOL     OW13055   8.129  14.261  10.804
 3739SOL    HW113056   8.188  14.334  10.822
 3739SOL    HW213057   8.171  14.212  10.734
 3740SOL     OW13058  14.155  12.965   0.201
 3740SOL    HW113059  14.233  12.986   0.149
 3740SOL    HW213060  14.138  13.045   0.251
 3741SOL     OW13061  13.844   4.034   0.730
 3741SOL    HW113062  13.832   4.043   0.635
 3741SOL    HW213063  13.771   4.083   0.768
 3742SOL     OW13064  14.211  10.985   0.422
 3742SOL    HW113065  14.177  10.943   0.501
 3742SOL    HW213066  14.291  10.937   0.402
 3743SOL     OW13067   2.939  14.540   3.842
 3743SOL    HW113068   2.859  14.580   3.879
 3743SOL    HW213069   2.924  14.446   3.849
 3744SOL     OW13070   8.469   5.181   4.324
 3744SOL    HW113071   8.564   5.168   4.321
 3744SOL    HW213072   8.456   5.268   4.285
 3745SOL     OW13073   0.536   8.343   7.510
 3745SOL    HW113074   0.493   8.324   7.427
 3745SOL    HW213075   0.569   8.258   7.541
 3746SOL     OW13076   5.031   2.795   0.113
 3746SOL    HW113077   5.057   2.704   0.099
 3746SOL    HW213078   5.114   2.842   0.124
 3747SOL     OW13079   3.466  10.460   2.588
 3747SOL    HW113080   3.500  10.545   2.560
 3747SOL    HW213081   3.453  10.469   2.682
 3748SOL     OW13082   7.961   6.949   8.539
 3748SOL    HW113083   7.872   6.928   8.511
 3748SOL    HW213084   8.005   6.864   8.544
 3749SOL     OW13085  12.806  11.256  13.111
 3749SOL    HW113086  12.854  11.200  13.172
 3749SOL    HW213087  12.729  11.204  13.086
 3750SOL     OW13088   7.070   0.034  13.235
 3750SOL    HW113089   7.105   0.106  13.287
 3750SOL    HW213090   6.991   0.006  13.282
 3751SOL     OW13091   4.133  14.437  13.210
 3751SOL    HW113092   4.047  14.415  13.247
 3751SOL    HW213093   4.114  14.501  13.142
 3752SOL     OW13094   7.816  14.000   6.731
 3752SOL    HW113095   7.911  13.996   6.741
 3752SOL    HW213096   7.795  14.094   6.733
 3753SOL     OW13097   7.104  11.640  11.422
 3753SOL    HW113098   7.113  11.547  11.404
 3753SOL    HW213099   7.194  11.672  11.428
 3754SOL     OW13100   0.864  11.443   4.586
 3754SOL    HW113101   0.791  11.393   4.551
 3754SOL    HW213102   0.922  11.377   4.624
 3755SOL     OW13103   5.627   5.452  13.930
 3755SOL    HW113104   5.707   5.401  13.921
 3755SOL    HW213105   5.648   5.518  13.996
 3756SOL     OW13106   2.570   9.250   2.790
 3756SOL    HW113107   2.562   9.252   2.695
 3756SOL    HW213108   2.663   9.233   2.806
 3757SOL     OW13109  12.257  13.752   0.292
 3757SOL    HW113110  12.253  13.660   0.268
 3757SOL    HW213111  12.170  13.771   0.327
 3758SOL     OW13112   5.797   3.482   1.835
 3758SOL    HW113113   5.880   3.446   1.804
 3758SOL    HW213114   5.749   3.406   1.869
 3759SOL     OW13115   1.211  13.752   6.719
 3759SOL    HW113116   1.271  13.801   6.775
 3759SOL    HW213117   1.265  13.682   6.681
 3760SOL     OW13118  12.858   1.236   1.472
 3760SOL    HW113119  12.770   1.268   1.492
 3760SOL    HW213120  12.871   1.259   1.380
 3761SOL     OW13121   5.165   2.278   7.489
 3761SOL    HW113122   5.121   2.281   7.573
 3761SOL    HW213123   5.244   2.331   7.501
 3762SOL     OW13124   2.369   6.233  10.607
 3762SOL    HW113125   2.417   6.244  10.525
 3762SOL    HW213126   2.419   6.283  10.671
 3763SOL     OW13127  14.081   4.189  12.992
 3763SOL    HW113128  14.132   4.120  13.036
 3763SOL    HW213129  13.995   4.185  13.035
 3764SOL     OW13130   5.276   4.269   0.915
 3764SOL    HW113131   5.296   4.319   0.994
 3764SOL    HW213132   5.291   4.330   0.843
 3765SOL     OW13133   7.884   0.197   8.042
 3765SOL    HW113134   7.949   0.146   7.994
 3765SOL    HW213135   7.887   0.284   8.003
 3766SOL     OW13136  12.029  14.033   3.879
 3766SOL    HW113137  12.070  14.032   3.966
 3766SOL    HW213138  11.953  13.976   3.888
 3767SOL     OW13139   8.087  10.652  14.242
 3767SOL    HW113140   8.028  10.624  14.172
 3767SOL    HW213141   8.049  10.615  14.321
 3768SOL     OW13142   4.803   6.456   9.743
 3768SOL    HW113143   4.731   6.467   9.681
 3768SOL    HW213144   4.882   6.465   9.689
 3769SOL     OW13145   8.037  13.100   1.607
 3769SOL    HW113146   8.127  13.112   1.638
 3769SOL    HW213147   8.028  13.005   1.595
 3770SOL     OW13148  11.610   5.121  13.289
 3770SOL    HW113149  11.625   5.039  13.242
 3770SOL    HW213150  11.624   5.099  13.381
 3771SOL     OW13151   4.061   9.418   7.562
 3771SOL    HW113152   4.014   9.335   7.564
 3771SOL    HW213153   4.153   9.394   7.555
 3772SOL     OW13154   3.772   4.738   7.365
 3772SOL    HW113155   3.706   4.741   7.296
 3772SOL    HW213156   3.846   4.694   7.324
 3773SOL     OW13157   5.295  13.989   6.474
 3773SOL    HW113158   5.276  13.974   6.567
 3773SOL    HW213159   5.375  14.041   6.474
 3774SOL     OW13160  12.334  10.221   0.798
 3774SOL    HW113161  12.338  10.315   0.781
 3774SOL    HW213162  12.266  10.188   0.739
 3775SOL     OW13163  10.642   6.524   7.134
 3775SOL    HW113164  10.682   6.441   7.110
 3775SOL    HW213165  10.666   6.536   7.226
 3776SOL     OW13166  14.423  12.592  14.316
 3776SOL    HW113167  14.348  12.532  14.312
 3776SOL    HW213168  14.486  12.555  14.254
 3777SOL     OW13169  10.551  10.636   5.388
 3777SOL    HW113170  10.641  10.645   5.357
 3777SOL    HW213171  10.522  10.552   5.354
 3778SOL     OW13172  14.575  14.783   1.753
 3778SOL    HW113173  14.619  14.868   1.752
 3778SOL    HW213174  14.599  14.745   1.837
 3779SOL     OW13175  12.756   1.714   1.040
 3779SOL    HW113176  12.844   1.726   1.074
 3779SOL    HW213177  12.718   1.645   1.095
 3780SOL     OW13178   1.998   9.948   2.246
 3780SOL    HW113179   2.080   9.969   2.291
 3780SOL    HW213180   2.016   9.866   2.200
 3781SOL     OW13181   7.857   8.979   4.343
 3781SOL    HW113182   7.802   9.004   4.417
 3781SOL    HW213183   7.796   8.958   4.273
 3782SOL     OW13184   8.914   6.704   2.858
 3782SOL    HW113185   8.994   6.753   2.839
 3782SOL    HW213186   8.871   6.694   2.773
 3783SOL     OW13187  12.460   3.362   5.060
 3783SOL    HW113188  12.552   3.365   5.085
 3783SOL    HW213189  12.445   3.272   5.033
 3784SOL     OW13190   4.350   8.657   7.581
 3784SOL    HW113191   4.433   8.669   7.628
 3784SOL    HW213192   4.366   8.582   7.524
 3785SOL     OW13193   3.077  11.494   7.343
 3785SOL    HW113194   3.113  11.406   7.358
 3785SOL    HW213195   3.106  11.545   7.419
 3786SOL     OW13196  10.449   5.517   0.869
 3786SOL    HW113197  10.429   5.507   0.776
 3786SOL    HW213198  10.364   5.534   0.909
 3787SOL     OW13199   4.330   6.688   3.601
 3787SOL    HW113200   4.275   6.641   3.664
 3787SOL    HW213201   4.388   6.621   3.565
 3788SOL     OW13202  13.957   8.063  13.916
 3788SOL    HW113203  13.938   8.093  14.005
 3788SOL    HW213204  14.052   8.061  13.911
 3789SOL     OW13205   9.428   5.077   9.891
 3789SOL    HW113206   9.352   5.100   9.946
 3789SOL    HW213207   9.406   5.111   9.805
 3790SOL     OW13208  11.445  12.387   4.242
 3790SOL    HW113209  11.425  12.296   4.264
 3790SOL    HW213210  11.540  12.393   4.246
 3791SOL     OW13211  10.509   0.811   6.033
 3791SOL    HW113212  10.519   0.716   6.043
 3791SOL    HW213213  10.447   0.820   5.961
 3792SOL     OW13214  12.926   7.067   8.070
 3792SOL    HW113215  12.978   7.101   8.143
 3792SOL    HW213216  12.989   7.020   8.015
 3793SOL     OW13217  12.023  10.512  13.721
 3793SOL    HW113218  12.016  10.436  13.778
 3793SOL    HW213219  11.950  10.568  13.746
 3794SOL     OW13220  10.485  12.572  12.484
 3794SOL    HW113221  10.573  12.538  12.467
 3794SOL    HW213222  10.433  12.495  12.504
 3795SOL     OW13223   7.675  14.230   0.801
 3795SOL    HW113224   7.657  14.154   0.858
 3795SOL    HW213225   7.736  14.284   0.853
 3796SOL     OW13226  11.511   5.278  11.364
 3796SOL    HW113227  11.531   5.187  11.340
 3796SOL    HW213228  11.416   5.280  11.370
 3797SOL     OW13229   8.532  10.428   0.001
 3797SOL    HW113230   8.447  10.425   0.044
 3797SOL    HW213231   8.588  10.476   0.063
 3798SOL     OW13232   3.742   8.993   3.157
 3798SOL    HW113233   3.812   8.987   3.092
 3798SOL    HW213234   3.736   9.087   3.177
 3799SOL     OW13235   4.379   0.613   5.543
 3799SOL    HW113236   4.330   0.617   5.462
 3799SOL    HW213237   4.385   0.519   5.563
 3800SOL     OW13238  13.238   7.361  11.667
 3800SOL    HW113239  13.262   7.326  11.753
 3800SOL    HW213240  13.226   7.455  11.683
 3801SOL     OW13241  14.842   6.687   0.023
 3801SOL    HW113242  14.817   6.696   0.115
 3801SOL    HW213243  14.848   6.778  14.874
 3802SOL     OW13244   0.074   2.780   7.604
 3802SOL    HW113245   0.058   2.872   7.624
 3802SOL    HW213246   0.170   2.772   7.604
 3803SOL     OW13247  12.936   8.941   7.575
 3803SOL    HW113248  12.940   8.860   7.626
 3803SOL    HW213249  12.884   8.920   7.498
 3804SOL     OW13250   3.616  13.496  14.380
 3804SOL    HW113251   3.676  13.570  14.382
 3804SOL    HW213252   3.550  13.520  14.314
 3805SOL     OW13253   1.412   6.255   3.254
 3805SOL    HW113254   1.444   6.210   3.332
 3805SOL    HW213255   1.317   6.250   3.261
 3806SOL     OW13256  14.392   9.374   9.253
 3806SOL    HW113257  14.317   9.427   9.279
 3806SOL    HW213258  14.377   9.356   9.160
 3807SOL     OW13259   7.411   9.461  10.572
 3807SOL    HW113260   7.339   9.453  10.634
 3807SOL    HW213261   7.372   9.501  10.494
 3808SOL     OW13262  14.429  10.320   6.040
 3808SOL    HW113263  14.511  10.334   6.087
 3808SOL    HW213264  14.366  10.296   6.108
 3809SOL     OW13265   0.268   6.598  11.466
 3809SOL    HW113266   0.186   6.612  11.513
 3809SOL    HW213267   0.267   6.505  11.444
 3810SOL     OW13268  13.357  13.541  14.128
 3810SOL    HW113269  13.325  13.451  14.123
 3810SOL    HW213270  13.281  13.592  14.156
 3811SOL     OW13271  12.139  11.970  12.836
 3811SOL    HW113272  12.190  11.919  12.772
 3811SOL    HW213273  12.134  11.913  12.913
 3812SOL     OW13274   1.656  13.212   9.399
 3812SOL    HW113275   1.749  13.223   9.381
 3812SOL    HW213276   1.620  13.300   9.391
 3813SOL     OW13277   0.850   5.676   2.248
 3813SOL    HW113278   0.863   5.653   2.340
 3813SOL    HW213279   0.836   5.592   2.203
 3814SOL     OW13280   7.247   6.566   9.816
 3814SOL    HW113281   7.164   6.559   9.865
 3814SOL    HW213282   7.264   6.660   9.812
 3815SOL     OW13283   0.089   4.759  10.020
 3815SOL    HW113284   0.153   4.818   9.980
 3815SOL    HW213285   0.024   4.817  10.059
 3816SOL     OW13286   8.120  12.456   1.720
 3816SOL    HW113287   8.026  12.471   1.724
 3816SOL    HW213288   8.143  12.428   1.809
 3817SOL     OW13289   8.103   8.404  12.621
 3817SOL    HW113290   8.143   8.491  12.619
 3817SOL    HW213291   8.021   8.414  12.573
 3818SOL     OW13292   0.951   5.250   7.938
 3818SOL    HW113293   0.991   5.283   7.857
 3818SOL    HW213294   1.024   5.235   7.997
 3819SOL     OW13295   2.777   6.152  14.601
 3819SOL    HW113296   2.722   6.203  14.661
 3819SOL    HW213297   2.739   6.166  14.515
 3820SOL     OW13298   4.350  11.567  11.503
 3820SOL    HW113299   4.379  11.562  11.594
 3820SOL    HW213300   4.298  11.488  11.490
 3821SOL     OW13301   4.312  13.969   8.986
 3821SOL    HW113302   4.383  13.931   9.039
 3821SOL    HW213303   4.327  14.064   8.991
 3822SOL     OW13304   4.293   2.296   4.056
 3822SOL    HW113305   4.362   2.316   3.993
 3822SOL    HW213306   4.332   2.315   4.141
 3823SOL     OW13307   9.141   0.528  13.184
 3823SOL    HW113308   9.079   0.504  13.116
 3823SOL    HW213309   9.106   0.608  13.223
 3824SOL     OW13310  11.778   8.305  11.024
 3824SOL    HW113311  11.811   8.243  11.090
 3824SOL    HW213312  11.762   8.386  11.072
 3825SOL     OW13313   3.946   1.243   8.846
 3825SOL    HW113314   3.976   1.228   8.936
 3825SOL    HW213315   3.977   1.166   8.798
 3826SOL     OW13316   1.510   5.167  12.960
 3826SOL    HW113317   1.494   5.246  12.909
 3826SOL    HW213318   1.427   5.119  12.957
 3827SOL     OW13319   3.856  13.075  11.226
 3827SOL    HW113320   3.910  13.039  11.156
 3827SOL    HW213321   3.852  13.006  11.292
 3828SOL     OW13322  10.176  14.674   2.377
 3828SOL    HW113323  10.127  14.592   2.371
 3828SOL    HW213324  10.196  14.683   2.470
 3829SOL     OW13325   4.042   6.638   2.449
 3829SOL    HW113326   3.949   6.651   2.431
 3829SOL    HW213327   4.080   6.726   2.445
 3830SOL     OW13328   4.746  12.158  12.956
 3830SOL    HW113329   4.719  12.139  12.866
 3830SOL    HW213330   4.838  12.133  12.960
 3831SOL     OW13331   6.677   2.611  10.680
 3831SOL    HW113332   6.767   2.643  10.671
 3831SOL    HW213333   6.630   2.650  10.606
 3832SOL     OW13334  12.913   0.745  13.560
 3832SOL    HW113335  12.848   0.736  13.629
 3832SOL    HW213336  12.890   0.678  13.497
 3833SOL     OW13337   2.106  14.359  12.451
 3833SOL    HW113338   2.025  14.377  12.497
 3833SOL    HW213339   2.115  14.264  12.455
 3834SOL     OW13340   8.100   7.825   1.361
 3834SOL    HW113341   8.114   7.743   1.408
 3834SOL    HW213342   8.175   7.831   1.302
 3835SOL     OW13343  11.386   5.759   8.018
 3835SOL    HW113344  11.450   5.732   8.083
 3835SOL    HW213345  11.411   5.849   7.995
 3836SOL     OW13346  10.499  13.703   0.593
 3836SOL    HW113347  10.459  13.675   0.510
 3836SOL    HW213348  10.427  13.744   0.641
 3837SOL     OW13349   6.061   0.483  11.152
 3837SOL    HW113350   6.066   0.447  11.241
 3837SOL    HW213351   5.972   0.516  11.144
 3838SOL     OW13352  13.701  13.500   4.564
 3838SOL    HW113353  13.767  13.522   4.498
 3838SOL    HW213354  13.699  13.405   4.567
 3839SOL     OW13355   7.357  10.112  12.420
 3839SOL    HW113356   7.376  10.202  12.444
 3839SOL    HW213357   7.304  10.118  12.341
 3840SOL     OW13358  13.920   5.755  14.609
 3840SOL    HW113359  13.847   5.761  14.670
 3840SOL    HW213360  13.988   5.809  14.647
 3841SOL     OW13361   8.780  11.845  11.578
 3841SOL    HW113362   8.845  11.785  11.541
 3841SOL    HW213363   8.755  11.805  11.661
 3842SOL     OW13364  14.783  14.746   2.371
 3842SOL    HW113365  14.710  14.807   2.383
 3842SOL    HW213366  14.808  14.720   2.459
 3843SOL     OW13367   3.351   0.375   2.941
 3843SOL    HW113368   3.392   0.380   2.854
 3843SOL    HW213369   3.280   0.312   2.931
 3844SOL     OW13370   1.372   5.057   3.473
 3844SOL    HW113371   1.399   5.138   3.516
 3844SOL    HW213372   1.278   5.050   3.492
 3845SOL     OW13373   7.116   6.730   4.213
 3845SOL    HW113374   7.067   6.811   4.199
 3845SOL    HW213375   7.124   6.722   4.308
 3846SOL     OW13376   6.069   0.276   8.105
 3846SOL    HW113377   6.076   0.205   8.169
 3846SOL    HW213378   5.997   0.331   8.137
 3847SOL     OW13379  14.106  14.597   6.730
 3847SOL    HW113380  14.157  14.674   6.756
 3847SOL    HW213381  14.101  14.603   6.635
 3848SOL     OW13382   7.034   5.962   6.142
 3848SOL    HW113383   6.986   5.952   6.225
 3848SOL    HW213384   7.118   5.920   6.158
 3849SOL     OW13385   8.295  10.289   7.096
 3849SOL    HW113386   8.226  10.291   7.031
 3849SOL    HW213387   8.250  10.286   7.180
 3850SOL     OW13388  12.621  12.617  11.333
 3850SOL    HW113389  12.607  12.687  11.397
 3850SOL    HW213390  12.714  12.599  11.337
 3851SOL     OW13391   1.205  13.729   5.789
 3851SOL    HW113392   1.246  13.810   5.817
 3851SOL    HW213393   1.168  13.691   5.869
 3852SOL     OW13394   3.584   4.113  10.242
 3852SOL    HW113395   3.536   4.141  10.164
 3852SOL    HW213396   3.661   4.067  10.207
 3853SOL     OW13397  10.349   4.927   2.771
 3853SOL    HW113398  10.372   4.938   2.679
 3853SOL    HW213399  10.427   4.887   2.811
 3854SOL     OW13400   5.011   5.555  13.365
 3854SOL    HW113401   5.022   5.650  13.358
 3854SOL    HW213402   5.059   5.531  13.444
 3855SOL     OW13403  12.673  14.477   9.209
 3855SOL    HW113404  12.706  14.505   9.124
 3855SOL    HW213405  12.646  14.558   9.252
 3856SOL     OW13406  13.067   1.702   2.297
 3856SOL    HW113407  13.104   1.669   2.379
 3856SOL    HW213408  12.988   1.650   2.283
 3857SOL     OW13409   2.897   1.460   4.547
 3857SOL    HW113410   2.855   1.521   4.608
 3857SOL    HW213411   2.828   1.438   4.484
 3858SOL     OW13412  11.259   2.509   7.857
 3858SOL    HW113413  11.242   2.521   7.950
 3858SOL    HW213414  11.213   2.582   7.815
 3859SOL     OW13415  11.716   4.318  11.625
 3859SOL    HW113416  11.715   4.254  11.553
 3859SOL    HW213417  11.716   4.264  11.704
 3860SOL     OW13418   6.000   7.079   3.126
 3860SOL    HW113419   6.090   7.047   3.125
 3860SOL    HW213420   5.999   7.147   3.193
 3861SOL     OW13421   6.261   7.046   3.580
 3861SOL    HW113422   6.223   7.029   3.666
 3861SOL    HW213423   6.317   7.123   3.594
 3862SOL     OW13424   3.431   5.915   3.320
 3862SOL    HW113425   3.373   5.859   3.268
 3862SOL    HW213426   3.507   5.860   3.338
 3863SOL     OW13427   1.976  14.701   9.606
 3863SOL    HW113428   2.043  14.716   9.539
 3863SOL    HW213429   1.932  14.786   9.616
 3864SOL     OW13430   8.178  13.421   1.878
 3864SOL    HW113431   8.160  13.463   1.794
 3864SOL    HW213432   8.139  13.334   1.870
 3865SOL     OW13433   4.743   1.366   7.872
 3865SOL    HW113434   4.772   1.456   7.863
 3865SOL    HW213435   4.648   1.371   7.878
 3866SOL     OW13436   6.152   0.995   6.354
 3866SOL    HW113437   6.159   1.078   6.307
 3866SOL    HW213438   6.187   0.929   6.294
 3867SOL     OW13439   1.883   1.162   4.527
 3867SOL    HW113440   1.878   1.066   4.532
 3867SOL    HW213441   1.807   1.192   4.578
 3868SOL     OW13442   4.388  13.547   4.002
 3868SOL    HW113443   4.320  13.485   3.977
 3868SOL    HW213444   4.341  13.628   4.021
 3869SOL     OW13445  14.761   2.243   1.964
 3869SOL    HW113446  14.854   2.260   1.952
 3869SOL    HW213447  14.757   2.170   2.026
 3870SOL     OW13448   5.310   1.640   9.714
 3870SOL    HW113449   5.237   1.670   9.769
 3870SOL    HW213450   5.343   1.719   9.672
 3871SOL     OW13451   1.035   5.110  11.451
 3871SOL    HW113452   1.026   5.205  11.462
 3871SOL    HW213453   1.129   5.095  11.454
 3872SOL     OW13454   4.046   8.459   8.520
 3872SOL    HW113455   4.031   8.507   8.602
 3872SOL    HW213456   4.141   8.464   8.507
 3873SOL     OW13457   3.393   4.147   1.471
 3873SOL    HW113458   3.383   4.199   1.391
 3873SOL    HW213459   3.367   4.058   1.446
 3874SOL     OW13460  13.829   9.815   6.295
 3874SOL    HW113461  13.891   9.789   6.364
 3874SOL    HW213462  13.743   9.802   6.335
 3875SOL     OW13463   5.192   6.788   6.257
 3875SOL    HW113464   5.257   6.846   6.297
 3875SOL    HW213465   5.110   6.811   6.301
 3876SOL     OW13466   3.817   7.515   4.473
 3876SOL    HW113467   3.741   7.556   4.433
 3876SOL    HW213468   3.856   7.584   4.527
 3877SOL     OW13469   7.162   9.246   5.831
 3877SOL    HW113470   7.151   9.247   5.926
 3877SOL    HW213471   7.150   9.154   5.807
 3878SOL     OW13472  11.327   3.149   9.138
 3878SOL    HW113473  11.237   3.148   9.104
 3878SOL    HW213474  11.322   3.202   9.217
 3879SOL     OW13475  10.183   5.066  14.327
 3879SOL    HW113476  10.088   5.060  14.317
 3879SOL    HW213477  10.205   5.155  14.298
 3880SOL     OW13478   3.327   0.045   9.072
 3880SOL    HW113479   3.295   0.062   8.983
 3880SOL    HW213480   3.404   0.100   9.081
 3881SOL     OW13481  10.610  11.569  13.523
 3881SOL    HW113482  10.576  11.585  13.435
 3881SOL    HW213483  10.550  11.616  13.581
 3882SOL     OW13484   7.461  14.844  11.727
 3882SOL    HW113485   7.442  14.763  11.680
 3882SOL    HW213486   7.424   0.031  11.673
 3883SOL     OW13487  14.692   1.720   9.463
 3883SOL    HW113488  14.624   1.658   9.489
 3883SOL    HW213489  14.660   1.757   9.381
 3884SOL     OW13490  11.154   8.122   3.850
 3884SOL    HW113491  11.115   8.176   3.920
 3884SOL    HW213492  11.079   8.076   3.812
 3885SOL     OW13493   7.499   1.798  13.249
 3885SOL    HW113494   7.420   1.772  13.296
 3885SOL    HW213495   7.550   1.717  13.242
 3886SOL     OW13496  13.153   1.908   4.019
 3886SOL    HW113497  13.245   1.882   4.020
 3886SOL    HW213498  13.137   1.938   3.930
 3887SOL     OW13499  12.432  13.237   5.819
 3887SOL    HW113500  12.511  13.228   5.765
 3887SOL    HW213501  12.454  13.307   5.881
 3888SOL     OW13502   6.510   7.712   7.491
 3888SOL    HW113503   6.498   7.771   7.565
 3888SOL    HW213504   6.422   7.678   7.473
 3889SOL     OW13505   2.923   9.575   1.683
 3889SOL    HW113506   2.846   9.529   1.649
 3889SOL    HW213507   2.918   9.662   1.643
 3890SOL     OW13508  14.608   8.912   4.595
 3890SOL    HW113509  14.599   8.893   4.688
 3890SOL    HW213510  14.669   8.845   4.563
 3891SOL     OW13511  13.059  12.606  14.092
 3891SOL    HW113512  12.990  12.573  14.034
 3891SOL    HW213513  13.048  12.555  14.173
 3892SOL     OW13514  10.365   2.623   3.358
 3892SOL    HW113515  10.363   2.718   3.347
 3892SOL    HW213516  10.306   2.605   3.431
 3893SOL     OW13517   6.043   2.775  11.994
 3893SOL    HW113518   6.035   2.728  12.077
 3893SOL    HW213519   6.130   2.751  11.962
 3894SOL     OW13520   9.673   8.868  10.771
 3894SOL    HW113521   9.586   8.827  10.774
 3894SOL    HW213522   9.685   8.894  10.680
 3895SOL     OW13523  14.804  11.626   4.427
 3895SOL    HW113524   0.010  11.664   4.431
 3895SOL    HW213525  14.818  11.533   4.411
 3896SOL     OW13526   5.800  14.218   5.995
 3896SOL    HW113527   5.825  14.173   6.076
 3896SOL    HW213528   5.797  14.310   6.019
 3897SOL     OW13529   4.573   4.540  11.529
 3897SOL    HW113530   4.528   4.457  11.543
 3897SOL    HW213531   4.589   4.575  11.616
 3898SOL     OW13532  10.523   8.060   4.421
 3898SOL    HW113533  10.512   8.155   4.420
 3898SOL    HW213534  10.601   8.045   4.473
 3899SOL     OW13535  12.852  14.810   4.385
 3899SOL    HW113536  12.765  14.843   4.409
 3899SOL    HW213537  12.842  14.779   4.295
 3900SOL     OW13538   5.391   1.873   5.470
 3900SOL    HW113539   5.301   1.906   5.470
 3900SOL    HW213540   5.414   1.863   5.562
 3901SOL     OW13541  10.625   9.080   2.036
 3901SOL    HW113542  10.698   9.070   2.096
 3901SOL    HW213543  10.642   9.016   1.966
 3902SOL     OW13544   9.252   1.859   8.120
 3902SOL    HW113545   9.203   1.852   8.038
 3902SOL    HW213546   9.294   1.945   8.115
 3903SOL     OW13547   7.423   1.768   1.427
 3903SOL    HW113548   7.355   1.769   1.360
 3903SOL    HW213549   7.405   1.690   1.479
 3904SOL     OW13550  11.334  13.782   1.319
 3904SOL    HW113551  11.307  13.728   1.245
 3904SOL    HW213552  11.386  13.852   1.280
 3905SOL     OW13553  13.427   0.602  14.457
 3905SOL    HW113554  13.408   0.682  14.408
 3905SOL    HW213555  13.502   0.624  14.512
 3906SOL     OW13556  12.143   0.364   0.159
 3906SOL    HW113557  12.180   0.404   0.081
 3906SOL    HW213558  12.051   0.349   0.137
 3907SOL     OW13559  13.343   5.106   2.077
 3907SOL    HW113560  13.303   5.027   2.112
 3907SOL    HW213561  13.415   5.126   2.138
 3908SOL     OW13562   1.460  12.964  10.068
 3908SOL    HW113563   1.391  12.983  10.005
 3908SOL    HW213564   1.467  12.868  10.068
 3909SOL     OW13565  12.653  12.419   5.032
 3909SOL    HW113566  12.632  12.343   5.086
 3909SOL    HW213567  12.671  12.382   4.945
 3910SOL     OW13568  11.595  12.090   1.253
 3910SOL    HW113569  11.516  12.075   1.304
 3910SOL    HW213570  11.641  12.006   1.253
 3911SOL     OW13571   6.647  10.062  11.263
 3911SOL    HW113572   6.574  10.123  11.251
 3911SOL    HW213573   6.693  10.062  11.179
 3912SOL     OW13574  11.780  10.698  13.539
 3912SOL    HW113575  11.745  10.706  13.628
 3912SOL    HW213576  11.874  10.683  13.552
 3913SOL     OW13577   8.785   6.743   1.260
 3913SOL    HW113578   8.690   6.746   1.267
 3913SOL    HW213579   8.811   6.665   1.310
 3914SOL     OW13580   7.342  12.777  14.057
 3914SOL    HW113581   7.322  12.744  14.145
 3914SOL    HW213582   7.411  12.842  14.071
 3915SOL     OW13583  14.126   3.037   4.964
 3915SOL    HW113584  14.196   3.007   4.905
 3915SOL    HW213585  14.161   3.021   5.052
 3916SOL     OW13586  11.785   1.024   0.123
 3916SOL    HW113587  11.879   1.045   0.119
 3916SOL    HW213588  11.746   1.074   0.052
 3917SOL     OW13589  11.039   5.066   5.697
 3917SOL    HW113590  10.970   5.130   5.680
 3917SOL    HW213591  11.040   5.011   5.619
 3918SOL     OW13592  14.215   5.850   5.139
 3918SOL    HW113593  14.271   5.776   5.117
 3918SOL    HW213594  14.274   5.915   5.178
 3919SOL     OW13595   7.338   3.490   4.532
 3919SOL    HW113596   7.390   3.425   4.578
 3919SOL    HW213597   7.400   3.531   4.471
 3920SOL     OW13598   3.141   0.852   4.232
 3920SOL    HW113599   3.074   0.818   4.172
 3920SOL    HW213600   3.098   0.925   4.277
 3921SOL     OW13601  13.969   0.702   3.567
 3921SOL    HW113602  13.983   0.616   3.606
 3921SOL    HW213603  13.921   0.684   3.486
 3922SOL     OW13604  14.253   2.821  14.333
 3922SOL    HW113605  14.330   2.877  14.349
 3922SOL    HW213606  14.229   2.840  14.242
 3923SOL     OW13607   3.685   2.230  13.273
 3923SOL    HW113608   3.712   2.319  13.293
 3923SOL    HW213609   3.751   2.198  13.212
 3924SOL     OW13610  13.901  12.760   6.287
 3924SOL    HW113611  13.865  12.840   6.251
 3924SOL    HW213612  13.878  12.692   6.224
 3925SOL     OW13613   2.846   6.532   4.830
 3925SOL    HW113614   2.918   6.494   4.881
 3925SOL    HW213615   2.869   6.512   4.739
 3926SOL     OW13616   6.539   8.234   2.390
 3926SOL    HW113617   6.631   8.243   2.415
 3926SOL    HW213618   6.493   8.214   2.471
 3927SOL     OW13619   9.903  13.218   4.434
 3927SOL    HW113620   9.910  13.288   4.369
 3927SOL    HW213621   9.965  13.152   4.405
 3928SOL     OW13622   3.874  11.399  12.006
 3928SOL    HW113623   3.896  11.477  12.057
 3928SOL    HW213624   3.790  11.370  12.041
 3929SOL     OW13625   6.089  13.551  10.571
 3929SOL    HW113626   6.077  13.473  10.625
 3929SOL    HW213627   6.184  13.555  10.557
 3930SOL     OW13628  11.024   1.962   4.031
 3930SOL    HW113629  11.105   1.944   3.983
 3930SOL    HW213630  11.010   1.884   4.086
 3931SOL     OW13631   2.093  12.851   6.990
 3931SOL    HW113632   2.166  12.792   7.012
 3931SOL    HW213633   2.026  12.829   7.054
 3932SOL     OW13634   7.924  11.765  11.009
 3932SOL    HW113635   7.911  11.847  11.057
 3932SOL    HW213636   7.835  11.736  10.988
 3933SOL     OW13637   1.985  14.594   2.385
 3933SOL    HW113638   1.971  14.508   2.425
 3933SOL    HW213639   1.930  14.593   2.307
 3934SOL     OW13640   1.315   3.538  10.906
 3934SOL    HW113641   1.395   3.580  10.938
 3934SOL    HW213642   1.290   3.589  10.829
 3935SOL     OW13643   6.468  10.515   5.663
 3935SOL    HW113644   6.528  10.516   5.737
 3935SOL    HW213645   6.386  10.480   5.698
 3936SOL     OW13646   3.012   1.439  13.304
 3936SOL    HW113647   3.034   1.496  13.230
 3936SOL    HW213648   2.934   1.479  13.342
 3937SOL     OW13649   4.639  10.375   1.750
 3937SOL    HW113650   4.558  10.353   1.703
 3937SOL    HW213651   4.608  10.411   1.834
 3938SOL     OW13652  13.302   8.305   1.438
 3938SOL    HW113653  13.294   8.236   1.504
 3938SOL    HW213654  13.212   8.337   1.426
 3939SOL     OW13655  10.623  12.718   2.787
 3939SOL    HW113656  10.694  12.678   2.737
 3939SOL    HW213657  10.633  12.812   2.771
 3940SOL     OW13658   8.853  14.092   0.965
 3940SOL    HW113659   8.926  14.149   0.989
 3940SOL    HW213660   8.895  14.012   0.933
 3941SOL     OW13661   1.054  10.233   6.637
 3941SOL    HW113662   1.141  10.234   6.598
 3941SOL    HW213663   1.046  10.319   6.679
 3942SOL     OW13664  11.486   8.865   5.827
 3942SOL    HW113665  11.427   8.894   5.896
 3942SOL    HW213666  11.529   8.787   5.863
 3943SOL     OW13667  14.400  14.079  13.589
 3943SOL    HW113668  14.366  14.043  13.671
 3943SOL    HW213669  14.338  14.048  13.522
 3944SOL     OW13670   1.745   0.043   1.521
 3944SOL    HW113671   1.803   0.107   1.562
 3944SOL    HW213672   1.753   0.061   1.427
 3945SOL     OW13673  14.131   5.059  10.079
 3945SOL    HW113674  14.194   5.087  10.146
 3945SOL    HW213675  14.053   5.034  10.129
 3946SOL     OW13676  14.175  14.728  11.034
 3946SOL    HW113677  14.183  14.798  11.099
 3946SOL    HW213678  14.150  14.773  10.953
 3947SOL     OW13679   8.100   7.784   6.728
 3947SOL    HW113680   8.075   7.696   6.758
 3947SOL    HW213681   8.140   7.824   6.806
 3948SOL     OW13682   0.216   0.330   5.857
 3948SOL    HW113683   0.169   0.254   5.823
 3948SOL    HW213684   0.203   0.326   5.952
 3949SOL     OW13685   7.050  10.279   1.782
 3949SOL    HW113686   7.100  10.198   1.789
 3949SOL    HW213687   7.040  10.293   1.688
 3950SOL     OW13688  12.551  12.625   2.496
 3950SOL    HW113689  12.635  12.670   2.488
 3950SOL    HW213690  12.570  12.534   2.473
 3951SOL     OW13691   9.102  13.843   2.773
 3951SOL    HW113692   9.134  13.763   2.731
 3951SOL    HW213693   9.093  13.820   2.865
 3952SOL     OW13694   5.675   4.082   4.265
 3952SOL    HW113695   5.609   4.027   4.306
 3952SOL    HW213696   5.683   4.158   4.323
 3953SOL     OW13697   0.872  11.464   5.216
 3953SOL    HW113698   0.941  11.463   5.283
 3953SOL    HW213699   0.838  11.553   5.218
 3954SOL     OW13700   4.417   0.172  10.276
 3954SOL    HW113701   4.469   0.247  10.250
 3954SOL    HW213702   4.480   0.100  10.285
 3955SOL     OW13703   8.911   4.845   7.497
 3955SOL    HW113704   8.978   4.913   7.495
 3955SOL    HW213705   8.828   4.893   7.491
 3956SOL     OW13706   1.850   0.719   0.817
 3956SOL    HW113707   1.808   0.801   0.841
 3956SOL    HW213708   1.918   0.743   0.755
 3957SOL     OW13709  12.485   6.688   0.075
 3957SOL    HW113710  12.484   6.766   0.020
 3957SOL    HW213711  12.422   6.629   0.034
 3958SOL     OW13712   9.169  12.127   0.288
 3958SOL    HW113713   9.152  12.126   0.383
 3958SOL    HW213714   9.081  12.126   0.249
 3959SOL     OW13715   6.379   5.370   7.578
 3959SOL    HW113716   6.421   5.292   7.615
 3959SOL    HW213717   6.426   5.387   7.497
 3960SOL     OW13718  11.770   1.284   8.298
 3960SOL    HW113719  11.714   1.265   8.222
 3960SOL    HW213720  11.755   1.377   8.316
 3961SOL     OW13721  10.879   5.032   8.839
 3961SOL    HW113722  10.963   4.995   8.813
 3961SOL    HW213723  10.892   5.059   8.930
 3962SOL     OW13724   5.314  10.301   2.253
 3962SOL    HW113725   5.282  10.305   2.343
 3962SOL    HW213726   5.349  10.212   2.244
 3963SOL     OW13727   9.400  13.855   9.531
 3963SOL    HW113728   9.406  13.866   9.626
 3963SOL    HW213729   9.391  13.944   9.497
 3964SOL     OW13730   8.965   5.874   6.626
 3964SOL    HW113731   9.029   5.867   6.697
 3964SOL    HW213732   8.888   5.914   6.667
 3965SOL     OW13733   8.045   2.522   9.440
 3965SOL    HW113734   8.088   2.608   9.441
 3965SOL    HW213735   7.993   2.520   9.520
 3966SOL     OW13736   6.304   4.464  14.793
 3966SOL    HW113737   6.327   4.462  14.700
 3966SOL    HW213738   6.230   4.525  14.798
 3967SOL     OW13739   6.979   1.857  12.090
 3967SOL    HW113740   6.889   1.851  12.121
 3967SOL    HW213741   6.975   1.827  11.999
 3968SOL     OW13742   5.327  11.731  12.101
 3968SOL    HW113743   5.252  11.791  12.091
 3968SOL    HW213744   5.307  11.681  12.180
 3969SOL     OW13745  12.924  14.853   7.243
 3969SOL    HW113746  12.907  14.874   7.335
 3969SOL    HW213747  12.988   0.037   7.215
 3970SOL     OW13748  12.196   6.519  10.170
 3970SOL    HW113749  12.215   6.500  10.078
 3970SOL    HW213750  12.101   6.515  10.177
 3971SOL     OW13751   7.227  10.117   9.190
 3971SOL    HW113752   7.236  10.033   9.145
 3971SOL    HW213753   7.194  10.177   9.123
 3972SOL     OW13754  14.720   0.430  11.889
 3972SOL    HW113755  14.644   0.488  11.878
 3972SOL    HW213756  14.688   0.358  11.943
 3973SOL     OW13757  10.525   4.122   7.255
 3973SOL    HW113758  10.499   4.210   7.284
 3973SOL    HW213759  10.552   4.078   7.335
 3974SOL     OW13760  11.430   5.696   3.866
 3974SOL    HW113761  11.420   5.767   3.802
 3974SOL    HW213762  11.425   5.616   3.813
 3975SOL     OW13763   3.946   5.923   1.976
 3975SOL    HW113764   3.911   5.848   2.025
 3975SOL    HW213765   3.879   5.991   1.985
 3976SOL     OW13766  12.125  11.477   1.712
 3976SOL    HW113767  12.055  11.542   1.708
 3976SOL    HW213768  12.131  11.442   1.623
 3977SOL     OW13769   3.096   7.088  14.169
 3977SOL    HW113770   3.100   7.080  14.073
 3977SOL    HW213771   3.003   7.090  14.189
 3978SOL     OW13772   2.376   6.351  10.092
 3978SOL    HW113773   2.470   6.370  10.093
 3978SOL    HW213774   2.334   6.437  10.103
 3979SOL     OW13775  11.665   1.865  13.997
 3979SOL    HW113776  11.574   1.894  13.994
 3979SOL    HW213777  11.709   1.929  14.052
 3980SOL     OW13778  11.832   1.454   8.013
 3980SOL    HW113779  11.779   1.500   8.078
 3980SOL    HW213780  11.819   1.361   8.033
 3981SOL     OW13781  10.037   3.115   8.657
 3981SOL    HW113782  10.075   3.028   8.667
 3981SOL    HW213783   9.960   3.114   8.714
 3982SOL     OW13784  13.580  12.078   5.606
 3982SOL    HW113785  13.645  12.008   5.599
 3982SOL    HW213786  13.586  12.126   5.524
 3983SOL     OW13787   0.802   9.548  11.575
 3983SOL    HW113788   0.710   9.568  11.555
 3983SOL    HW213789   0.845   9.550  11.490
 3984SOL     OW13790  11.053   3.387  11.806
 3984SOL    HW113791  11.043   3.315  11.868
 3984SOL    HW213792  11.084   3.346  11.726
 3985SOL     OW13793  14.854   5.555   0.767
 3985SOL    HW113794  14.867   5.594   0.854
 3985SOL    HW213795  14.847   5.461   0.784
 3986SOL     OW13796   7.543   3.380  11.707
 3986SOL    HW113797   7.494   3.350  11.631
 3986SOL    HW213798   7.578   3.465  11.681
 3987SOL     OW13799   2.156   4.003  12.412
 3987SOL    HW113800   2.070   3.993  12.452
 3987SOL    HW213801   2.178   3.915  12.380
 3988SOL     OW13802   6.967   9.547  10.822
 3988SOL    HW113803   6.910   9.591  10.886
 3988SOL    HW213804   6.921   9.558  10.739
 3989SOL     OW13805   9.173   1.492   1.406
 3989SOL    HW113806   9.084   1.512   1.379
 3989SOL    HW213807   9.163   1.430   1.478
 3990SOL     OW13808   3.483  13.663   7.936
 3990SOL    HW113809   3.558  13.674   7.994
 3990SOL    HW213810   3.407  13.691   7.988
 3991SOL     OW13811   0.421   6.352   1.413
 3991SOL    HW113812   0.483   6.282   1.390
 3991SOL    HW213813   0.394   6.331   1.502
 3992SOL     OW13814   2.884  13.145   2.691
 3992SOL    HW113815   2.939  13.187   2.758
 3992SOL    HW213816   2.799  13.132   2.735
 3993SOL     OW13817   0.827  10.623   7.376
 3993SOL    HW113818   0.797  10.669   7.298
 3993SOL    HW213819   0.827  10.531   7.351
 3994SOL     OW13820   7.810   6.985  10.403
 3994SOL    HW113821   7.878   6.923  10.432
 3994SOL    HW213822   7.859   7.064  10.379
 3995SOL     OW13823   1.153   4.532   6.225
 3995SOL    HW113824   1.082   4.503   6.282
 3995SOL    HW213825   1.223   4.556   6.285
 3996SOL     OW13826   9.581   7.235   3.689
 3996SOL    HW113827   9.586   7.178   3.766
 3996SOL    HW213828   9.509   7.295   3.708
 3997SOL     OW13829   7.193   8.963   8.431
 3997SOL    HW113830   7.219   8.873   8.412
 3997SOL    HW213831   7.172   9.001   8.346
 3998SOL     OW13832   5.552   7.126   2.750
 3998SOL    HW113833   5.598   7.126   2.666
 3998SOL    HW213834   5.470   7.080   2.732
 3999SOL     OW13835  11.470  12.038   5.185
 3999SOL    HW113836  11.439  12.080   5.105
 3999SOL    HW213837  11.530  11.970   5.154
 4000SOL     OW13838  11.591   7.162  12.887
 4000SOL    HW113839  11.643   7.133  12.962
 4000SOL    HW213840  11.572   7.082  12.839
 4001SOL     OW13841  12.858   4.986   8.070
 4001SOL    HW113842  12.819   4.903   8.099
 4001SOL    HW213843  12.788   5.050   8.081
 4002SOL     OW13844   5.634  12.750   0.133
 4002SOL    HW113845   5.640  12.755   0.229
 4002SOL    HW213846   5.598  12.663   0.115
 4003SOL     OW13847  14.877  10.099   3.018
 4003SOL    HW113848   0.085  10.116   3.047
 4003SOL    HW213849  14.869  10.146   2.935
 4004SOL     OW13850   2.518   3.240  12.480
 4004SOL    HW113851   2.455   3.311  12.491
 4004SOL    HW213852   2.549   3.221  12.569
 4005SOL     OW13853   0.624   4.835   4.058
 4005SOL    HW113854   0.612   4.753   4.009
 4005SOL    HW213855   0.586   4.817   4.144
 4006SOL     OW13856   3.945   5.012  13.844
 4006SOL    HW113857   3.959   5.106  13.834
 4006SOL    HW213858   4.004   4.972  13.781
 4007SOL     OW13859  10.637  14.323   9.799
 4007SOL    HW113860  10.558  14.377   9.791
 4007SOL    HW213861  10.704  14.383   9.832
 4008SOL     OW13862  14.470   1.252   3.488
 4008SOL    HW113863  14.423   1.330   3.457
 4008SOL    HW213864  14.415   1.179   3.462
 4009SOL     OW13865   3.364  11.670   3.319
 4009SOL    HW113866   3.342  11.762   3.336
 4009SOL    HW213867   3.457  11.672   3.295
 4010SOL     OW13868   2.320   4.715   2.009
 4010SOL    HW113869   2.331   4.714   2.104
 4010SOL    HW213870   2.401   4.754   1.976
 4011SOL     OW13871   6.720  10.134   7.670
 4011SOL    HW113872   6.758  10.091   7.593
 4011SOL    HW213873   6.626  10.118   7.661
 4012SOL     OW13874   0.517   3.527  13.742
 4012SOL    HW113875   0.479   3.615  13.743
 4012SOL    HW213876   0.479   3.485  13.665
 4013SOL     OW13877   2.678   1.639   6.200
 4013SOL    HW113878   2.664   1.731   6.176
 4013SOL    HW213879   2.653   1.590   6.122
 4014SOL     OW13880   7.319  14.224   0.088
 4014SOL    HW113881   7.377  14.154   0.115
 4014SOL    HW213882   7.257  14.182   0.028
 4015SOL     OW13883   7.893  11.164  12.384
 4015SOL    HW113884   7.804  11.162  12.351
 4015SOL    HW213885   7.947  11.181  12.306
 4016SOL     OW13886   7.354   2.759  10.449
 4016SOL    HW113887   7.279   2.751  10.508
 4016SOL    HW213888   7.407   2.829  10.488
 4017SOL     OW13889   2.041  11.136  13.946
 4017SOL    HW113890   2.009  11.213  13.993
 4017SOL    HW213891   1.969  11.111  13.888
 4018SOL     OW13892  11.455  10.945   9.359
 4018SOL    HW113893  11.434  11.016   9.419
 4018SOL    HW213894  11.374  10.894   9.353
 4019SOL     OW13895   7.568   3.978   1.826
 4019SOL    HW113896   7.656   4.010   1.844
 4019SOL    HW213897   7.566   3.962   1.732
 4020SOL     OW13898   2.178  14.630  13.387
 4020SOL    HW113899   2.159  14.555  13.443
 4020SOL    HW213900   2.247  14.599  13.328
 4021SOL     OW13901   2.430   8.718  13.589
 4021SOL    HW113902   2.339   8.747  13.581
 4021SOL    HW213903   2.454   8.691  13.500
 4022SOL     OW13904   1.149   5.793  14.293
 4022SOL    HW113905   1.075   5.828  14.244
 4022SOL    HW213906   1.215   5.772  14.227
 4023SOL     OW13907   1.053  12.817  11.813
 4023SOL    HW113908   0.960  12.828  11.796
 4023SOL    HW213909   1.087  12.907  11.819
 4024SOL     OW13910  12.530  14.018  11.077
 4024SOL    HW113911  12.561  13.963  11.149
 4024SOL    HW213912  12.570  14.103  11.093
 4025SOL     OW13913   6.784  11.876   6.867
 4025SOL    HW113914   6.707  11.898   6.921
 4025SOL    HW213915   6.797  11.953   6.812
 4026SOL     OW13916  11.299   4.578   5.356
 4026SOL    HW113917  11.374   4.580   5.296
 4026SOL    HW213918  11.306   4.494   5.400
 4027SOL     OW13919   4.454   5.447  13.489
 4027SOL    HW113920   4.493   5.412  13.569
 4027SOL    HW213921   4.529   5.462  13.430
 4028SOL     OW13922   0.273  14.790   2.618
 4028SOL    HW113923   0.250  14.867   2.670
 4028SOL    HW213924   0.236  14.807   2.532
 4029SOL     OW13925   7.465   0.947   7.335
 4029SOL    HW113926   7.478   0.904   7.419
 4029SOL    HW213927   7.385   0.908   7.300
 4030SOL     OW13928   9.802   5.956  11.498
 4030SOL    HW113929   9.746   5.951  11.576
 4030SOL    HW213930   9.841   5.869  11.492
 4031SOL     OW13931  13.104  10.783  13.766
 4031SOL    HW113932  13.154  10.861  13.790
 4031SOL    HW213933  13.149  10.748  13.689
 4032SOL     OW13934   5.382  11.162   0.397
 4032SOL    HW113935   5.465  11.142   0.353
 4032SOL    HW213936   5.340  11.227   0.340
 4033SOL     OW13937   1.599  10.059   5.705
 4033SOL    HW113938   1.587   9.997   5.633
 4033SOL    HW213939   1.633  10.138   5.663
 4034SOL     OW13940   3.337  12.023   1.570
 4034SOL    HW113941   3.325  11.928   1.569
 4034SOL    HW213942   3.378  12.042   1.486
 4035SOL     OW13943  13.861  14.609   6.861
 4035SOL    HW113944  13.939  14.609   6.806
 4035SOL    HW213945  13.886  14.659   6.939
 4036SOL     OW13946  13.696   8.639  13.728
 4036SOL    HW113947  13.740   8.639  13.643
 4036SOL    HW213948  13.645   8.720  13.729
 4037SOL     OW13949   2.708  14.744   4.673
 4037SOL    HW113950   2.682  14.750   4.765
 4037SOL    HW213951   2.744  14.830   4.653
 4038SOL     OW13952   1.986  13.823  11.005
 4038SOL    HW113953   1.962  13.775  10.926
 4038SOL    HW213954   1.906  13.868  11.032
 4039SOL     OW13955   9.917   7.976   8.208
 4039SOL    HW113956   9.956   7.888   8.205
 4039SOL    HW213957   9.939   8.014   8.123
 4040SOL     OW13958  10.918   4.956  12.178
 4040SOL    HW113959  10.908   4.927  12.269
 4040SOL    HW213960  10.998   4.914  12.148
 4041SOL     OW13961   8.651   0.447  13.932
 4041SOL    HW113962   8.705   0.370  13.953
 4041SOL    HW213963   8.604   0.423  13.853
 4042SOL     OW13964   3.516  12.986   2.528
 4042SOL    HW113965   3.450  13.055   2.517
 4042SOL    HW213966   3.550  12.970   2.440
 4043SOL     OW13967   9.249  13.732   0.266
 4043SOL    HW113968   9.336  13.754   0.230
 4043SOL    HW213969   9.205  13.817   0.273
 4044SOL     OW13970  13.679   7.154   3.559
 4044SOL    HW113971  13.630   7.144   3.641
 4044SOL    HW213972  13.635   7.226   3.513
 4045SOL     OW13973   2.156  10.930  12.097
 4045SOL    HW113974   2.167  11.025  12.088
 4045SOL    HW213975   2.065  10.914  12.073
 4046SOL     OW13976  12.116   0.164   9.837
 4046SOL    HW113977  12.082   0.182   9.749
 4046SOL    HW213978  12.060   0.093   9.870
 4047SOL     OW13979   3.310  13.722   3.692
 4047SOL    HW113980   3.389  13.699   3.643
 4047SOL    HW213981   3.240  13.677   3.644
 4048SOL     OW13982   1.116   7.045   2.888
 4048SOL    HW113983   1.050   7.104   2.853
 4048SOL    HW213984   1.137   6.987   2.815
 4049SOL     OW13985   7.042   6.963   2.584
 4049SOL    HW113986   6.955   6.963   2.623
 4049SOL    HW213987   7.033   6.909   2.505
 4050SOL     OW13988   5.091   3.686   6.150
 4050SOL    HW113989   5.087   3.596   6.118
 4050SOL    HW213990   5.014   3.695   6.206
 4051SOL     OW13991   8.782  10.645   4.579
 4051SOL    HW113992   8.741  10.596   4.651
 4051SOL    HW213993   8.789  10.582   4.508
 4052SOL     OW13994  10.016  13.964  13.735
 4052SOL    HW113995   9.938  13.932  13.690
 4052SOL    HW213996   9.982  14.005  13.816
 4053SOL     OW13997   3.683   4.315   8.489
 4053SOL    HW113998   3.680   4.328   8.395
 4053SOL    HW213999   3.761   4.363   8.518
 4054SOL     OW14000   9.807   2.893   2.992
 4054SOL    HW114001   9.732   2.883   2.933
 4054SOL    HW214002   9.874   2.934   2.938
 4055SOL     OW14003  12.794   6.836   2.766
 4055SOL    HW114004  12.699   6.829   2.779
 4055SOL    HW214005  12.830   6.844   2.855
 4056SOL     OW14006   3.949   8.125   7.260
 4056SOL    HW114007   3.949   8.093   7.350
 4056SOL    HW214008   3.970   8.218   7.268
 4057SOL     OW14009  14.441  11.921   4.420
 4057SOL    HW114010  14.468  11.840   4.462
 4057SOL    HW214011  14.509  11.984   4.443
 4058SOL     OW14012   4.671   3.366   5.842
 4058SOL    HW114013   4.756   3.346   5.882
 4058SOL    HW214014   4.639   3.442   5.891
 4059SOL     OW14015   4.307   6.910   3.802
 4059SOL    HW114016   4.361   6.842   3.842
 4059SOL    HW214017   4.268   6.869   3.725
 4060SOL     OW14018   8.339  10.333   8.030
 4060SOL    HW114019   8.372  10.377   8.109
 4060SOL    HW214020   8.248  10.363   8.023
 4061SOL     OW14021  13.343   5.558  11.938
 4061SOL    HW114022  13.359   5.625  11.871
 4061SOL    HW214023  13.362   5.475  11.895
 4062SOL     OW14024   5.588   1.481  13.283
 4062SOL    HW114025   5.589   1.544  13.211
 4062SOL    HW214026   5.680   1.470  13.306
 4063SOL     OW14027   8.386  12.492   2.485
 4063SOL    HW114028   8.388  12.398   2.501
 4063SOL    HW214029   8.460  12.508   2.427
 4064SOL     OW14030  12.716   4.318   1.964
 4064SOL    HW114031  12.633   4.361   1.986
 4064SOL    HW214032  12.715   4.237   2.014
 4065SOL     OW14033   1.038   3.713  12.786
 4065SOL    HW114034   1.049   3.633  12.735
 4065SOL    HW214035   0.975   3.689  12.854
 4066SOL     OW14036  10.093   8.175   1.883
 4066SOL    HW114037  10.063   8.095   1.842
 4066SOL    HW214038  10.091   8.157   1.977
 4067SOL     OW14039   1.839   0.728  13.788
 4067SOL    HW114040   1.866   0.723  13.879
 4067SOL    HW214041   1.797   0.644  13.771
 4068SOL     OW14042  13.509  13.282   2.489
 4068SOL    HW114043  13.533  13.191   2.506
 4068SOL    HW214044  13.587  13.332   2.511
 4069SOL     OW14045   0.481   1.621  10.081
 4069SOL    HW114046   0.453   1.643  10.170
 4069SOL    HW214047   0.438   1.538  10.062
 4070SOL     OW14048   4.362   6.842   1.681
 4070SOL    HW114049   4.321   6.765   1.719
 4070SOL    HW214050   4.308   6.916   1.711
 4071SOL     OW14051   0.028   4.218  13.553
 4071SOL    HW114052   0.051   4.306  13.584
 4071SOL    HW214053   0.020   4.166  13.632
 4072SOL     OW14054   7.324   2.845   8.603
 4072SOL    HW114055   7.374   2.841   8.685
 4072SOL    HW214056   7.319   2.754   8.574
 4073SOL     OW14057  12.365   2.988   1.735
 4073SOL    HW114058  12.333   3.068   1.777
 4073SOL    HW214059  12.441   2.962   1.787
 4074SOL     OW14060  11.717   9.216   8.527
 4074SOL    HW114061  11.770   9.286   8.488
 4074SOL    HW214062  11.672   9.176   8.453
 4075SOL     OW14063   2.197   1.276   4.515
 4075SOL    HW114064   2.104   1.297   4.504
 4075SOL    HW214065   2.243   1.341   4.463
 4076SOL     OW14066  10.568   0.195  11.939
 4076SOL    HW114067  10.495   0.166  11.992
 4076SOL    HW214068  10.544   0.172  11.849
 4077SOL     OW14069  11.948  13.805   4.520
 4077SOL    HW114070  11.900  13.760   4.590
 4077SOL    HW214071  11.885  13.869   4.485
 4078SOL     OW14072   9.909   7.019   5.498
 4078SOL    HW114073   9.954   7.100   5.522
 4078SOL    HW214074   9.823   7.024   5.541
 4079SOL     OW14075  11.676   1.591   6.546
 4079SOL    HW114076  11.768   1.569   6.557
 4079SOL    HW214077  11.632   1.546   6.619
 4080SOL     OW14078   6.173   8.398   3.655
 4080SOL    HW114079   6.246   8.461   3.650
 4080SOL    HW214080   6.203   8.333   3.719
 4081SOL     OW14081   6.801   3.766   7.766
 4081SOL    HW114082   6.710   3.776   7.793
 4081SOL    HW214083   6.807   3.675   7.735
 4082SOL     OW14084   8.749   8.459   5.257
 4082SOL    HW114085   8.802   8.380   5.265
 4082SOL    HW214086   8.659   8.428   5.263
 4083SOL     OW14087   1.834   6.275   9.327
 4083SOL    HW114088   1.798   6.356   9.365
 4083SOL    HW214089   1.925   6.296   9.308
 4084SOL     OW14090   3.549   9.445   9.472
 4084SOL    HW114091   3.479   9.486   9.523
 4084SOL    HW214092   3.595   9.389   9.534
 4085SOL     OW14093  12.116   7.323   4.726
 4085SOL    HW114094  12.188   7.265   4.751
 4085SOL    HW214095  12.037   7.278   4.756
 4086SOL     OW14096   1.467   1.359   8.156
 4086SOL    HW114097   1.464   1.271   8.194
 4086SOL    HW214098   1.404   1.357   8.084
 4087SOL     OW14099  14.314   3.433  11.399
 4087SOL    HW114100  14.407   3.449  11.381
 4087SOL    HW214101  14.280   3.398  11.316
 4088SOL     OW14102   0.803   8.848   9.427
 4088SOL    HW114103   0.878   8.853   9.368
 4088SOL    HW214104   0.745   8.918   9.396
 4089SOL     OW14105   2.199  10.612   9.430
 4089SOL    HW114106   2.151  10.675   9.376
 4089SOL    HW214107   2.244  10.666   9.495
 4090SOL     OW14108   3.112   2.759  12.755
 4090SOL    HW114109   3.139   2.801  12.837
 4090SOL    HW214110   3.138   2.822  12.687
 4091SOL     OW14111   7.964   8.526   3.351
 4091SOL    HW114112   7.881   8.512   3.305
 4091SOL    HW214113   7.962   8.618   3.378
 4092SOL     OW14114   2.692   8.729  13.675
 4092SOL    HW114115   2.691   8.698  13.766
 4092SOL    HW214116   2.600   8.727  13.648
 4093SOL     OW14117  14.735   1.192  12.184
 4093SOL    HW114118  14.799   1.250  12.226
 4093SOL    HW214119  14.651   1.236  12.197
 4094SOL     OW14120   7.857   6.471   4.163
 4094SOL    HW114121   7.864   6.449   4.256
 4094SOL    HW214122   7.946   6.495   4.137
 4095SOL     OW14123  13.168   8.226   3.275
 4095SOL    HW114124  13.230   8.239   3.203
 4095SOL    HW214125  13.093   8.280   3.253
 4096SOL     OW14126   3.228  10.886   3.635
 4096SOL    HW114127   3.291  10.870   3.705
 4096SOL    HW214128   3.148  10.913   3.681
 4097SOL     OW14129  12.640   3.139   4.700
 4097SOL    HW114130  12.575   3.205   4.673
 4097SOL    HW214131  12.663   3.094   4.619
 4098SOL     OW14132  11.483   3.590  10.740
 4098SOL    HW114133  11.471   3.585  10.835
 4098SOL    HW214134  11.405   3.548  10.704
 4099SOL     OW14135  14.623   5.259  14.108
 4099SOL    HW114136  14.557   5.198  14.140
 4099SOL    HW214137  14.630   5.239  14.015
 4100SOL     OW14138  12.765   7.849  10.634
 4100SOL    HW114139  12.810   7.871  10.716
 4100SOL    HW214140  12.672   7.855  10.656
 4101SOL     OW14141  10.138   8.303  10.006
 4101SOL    HW114142  10.220   8.256   9.993
 4101SOL    HW214143  10.121   8.346   9.923
 4102SOL     OW14144  12.967   7.889   3.880
 4102SOL    HW114145  12.871   7.887   3.887
 4102SOL    HW214146  12.992   7.973   3.919
 4103SOL     OW14147   8.370   7.671   7.854
 4103SOL    HW114148   8.369   7.624   7.771
 4103SOL    HW214149   8.453   7.718   7.854
 4104SOL     OW14150  14.129   0.077  12.785
 4104SOL    HW114151  14.144   0.047  12.695
 4104SOL    HW214152  14.063   0.146  12.776
 4105SOL     OW14153   5.675   1.233   1.596
 4105SOL    HW114154   5.583   1.213   1.614
 4105SOL    HW214155   5.713   1.148   1.574
 4106SOL     OW14156   1.154  13.082  13.451
 4106SOL    HW114157   1.102  13.162  13.451
 4106SOL    HW214158   1.216  13.093  13.379
 4107SOL     OW14159   0.437  13.726   5.002
 4107SOL    HW114160   0.524  13.705   5.038
 4107SOL    HW214161   0.397  13.641   4.986
 4108SOL     OW14162   3.610   7.666   4.176
 4108SOL    HW114163   3.619   7.684   4.270
 4108SOL    HW214164   3.604   7.753   4.136
 4109SOL     OW14165   5.204   9.215   3.988
 4109SOL    HW114166   5.117   9.245   3.960
 4109SOL    HW214167   5.240   9.173   3.910
 4110SOL     OW14168   2.679  11.237   9.190
 4110SOL    HW114169   2.698  11.163   9.247
 4110SOL    HW214170   2.685  11.201   9.101
 4111SOL     OW14171   7.114   0.391   5.308
 4111SOL    HW114172   7.191   0.445   5.328
 4111SOL    HW214173   7.040   0.449   5.325
 4112SOL     OW14174   8.950  12.009   5.413
 4112SOL    HW114175   8.894  12.081   5.385
 4112SOL    HW214176   8.974  12.030   5.503
 4113SOL     OW14177   9.349  14.158  13.843
 4113SOL    HW114178   9.335  14.068  13.812
 4113SOL    HW214179   9.422  14.191  13.791
 4114SOL     OW14180  11.101  10.431  14.094
 4114SOL    HW114181  11.127  10.360  14.153
 4114SOL    HW214182  11.062  10.497  14.152
 4115SOL     OW14183   0.094   8.676  11.908
 4115SOL    HW114184   0.092   8.743  11.977
 4115SOL    HW214185   0.003   8.647  11.901
 4116SOL     OW14186   2.494   6.298  10.383
 4116SOL    HW114187   2.577   6.252  10.397
 4116SOL    HW214188   2.479   6.292  10.289
 4117SOL     OW14189   6.326  12.527   2.931
 4117SOL    HW114190   6.312  12.510   2.838
 4117SOL    HW214191   6.242  12.560   2.962
 4118SOL     OW14192   8.302   2.857   5.047
 4118SOL    HW114193   8.365   2.839   5.116
 4118SOL    HW214194   8.270   2.946   5.066
 4119SOL     OW14195   4.605   0.031   4.226
 4119SOL    HW114196   4.626   0.104   4.167
 4119SOL    HW214197   4.687  14.865   4.235
 4120SOL     OW14198  12.489   9.071   5.686
 4120SOL    HW114199  12.529   9.125   5.617
 4120SOL    HW214200  12.543   8.991   5.687
 4121SOL     OW14201   4.294   9.481   6.109
 4121SOL    HW114202   4.277   9.551   6.045
 4121SOL    HW214203   4.314   9.404   6.056
 4122SOL     OW14204  14.099  14.730  11.633
 4122SOL    HW114205  14.066  14.700  11.548
 4122SOL    HW214206  14.163  14.663  11.659
 4123SOL     OW14207  12.304   9.156   4.097
 4123SOL    HW114208  12.239   9.147   4.167
 4123SOL    HW214209  12.281   9.237   4.052
 4124SOL     OW14210   4.718  12.990   8.335
 4124SOL    HW114211   4.781  12.938   8.286
 4124SOL    HW214212   4.695  13.062   8.277
 4125SOL     OW14213   3.996  12.356   2.612
 4125SOL    HW114214   3.952  12.303   2.677
 4125SOL    HW214215   4.015  12.295   2.540
 4126SOL     OW14216  11.715  10.149   8.796
 4126SOL    HW114217  11.650  10.200   8.844
 4126SOL    HW214218  11.785  10.133   8.859
 4127SOL     OW14219   0.633   7.838  10.256
 4127SOL    HW114220   0.715   7.886  10.242
 4127SOL    HW214221   0.661   7.748  10.272
 4128SOL     OW14222   5.398  10.040   3.618
 4128SOL    HW114223   5.373  10.011   3.706
 4128SOL    HW214224   5.492  10.056   3.624
 4129SOL     OW14225  11.448   3.881   1.606
 4129SOL    HW114226  11.514   3.944   1.634
 4129SOL    HW214227  11.479   3.849   1.522
 4130SOL     OW14228   2.518   4.166   0.965
 4130SOL    HW114229   2.453   4.136   1.029
 4130SOL    HW214230   2.477   4.242   0.923
 4131SOL     OW14231   2.055  11.522   3.036
 4131SOL    HW114232   2.033  11.615   3.037
 4131SOL    HW214233   1.970  11.478   3.028
 4132SOL     OW14234   8.421   6.252  13.527
 4132SOL    HW114235   8.392   6.247  13.619
 4132SOL    HW214236   8.375   6.329  13.492
 4133SOL     OW14237  14.768   7.446   3.865
 4133SOL    HW114238  14.681   7.406   3.862
 4133SOL    HW214239  14.825   7.385   3.818
 4134SOL     OW14240   6.987  14.030   5.516
 4134SOL    HW114241   6.940  13.964   5.567
 4134SOL    HW214242   7.050  14.068   5.577
 4135SOL     OW14243   2.150   3.179   6.983
 4135SOL    HW114244   2.205   3.104   7.005
 4135SOL    HW214245   2.073   3.169   7.039
 4136SOL     OW14246   7.579   2.681  11.012
 4136SOL    HW114247   7.675   2.682  11.005
 4136SOL    HW214248   7.553   2.771  10.990
 4137SOL     OW14249  11.233   5.003   3.049
 4137SOL    HW114250  11.276   4.975   3.130
 4137SOL    HW214251  11.303   5.041   2.996
 4138SOL     OW14252   9.391   0.453   4.147
 4138SOL    HW114253   9.484   0.433   4.136
 4138SOL    HW214254   9.356   0.378   4.195
 4139SOL     OW14255   5.223   0.858   8.681
 4139SOL    HW114256   5.297   0.823   8.731
 4139SOL    HW214257   5.240   0.952   8.676
 4140SOL     OW14258   8.254   0.988  13.447
 4140SOL    HW114259   8.334   0.950  13.411
 4140SOL    HW214260   8.225   1.051  13.381
 4141SOL     OW14261   9.058   9.169   8.523
 4141SOL    HW114262   8.999   9.206   8.589
 4141SOL    HW214263   9.142   9.161   8.568
 4142SOL     OW14264  13.746   2.350   1.360
 4142SOL    HW114265  13.821   2.301   1.393
 4142SOL    HW214266  13.701   2.380   1.439
 4143SOL     OW14267  10.205   4.352  10.309
 4143SOL    HW114268  10.207   4.257  10.304
 4143SOL    HW214269  10.254   4.381  10.232
 4144SOL     OW14270  11.599   3.562   5.897
 4144SOL    HW114271  11.519   3.585   5.851
 4144SOL    HW214272  11.666   3.619   5.859
 4145SOL     OW14273   9.562   7.916   5.167
 4145SOL    HW114274   9.603   7.996   5.200
 4145SOL    HW214275   9.560   7.928   5.072
 4146SOL     OW14276  12.273  11.410   8.147
 4146SOL    HW114277  12.279  11.440   8.056
 4146SOL    HW214278  12.361  11.423   8.182
 4147SOL     OW14279   4.173   9.375   6.325
 4147SOL    HW114280   4.210   9.423   6.251
 4147SOL    HW214281   4.240   9.311   6.348
 4148SOL     OW14282   9.153  14.391   1.770
 4148SOL    HW114283   9.146  14.374   1.676
 4148SOL    HW214284   9.206  14.470   1.776
 4149SOL     OW14285   5.725  12.583   6.088
 4149SOL    HW114286   5.728  12.668   6.131
 4149SOL    HW214287   5.741  12.520   6.159
 4150SOL     OW14288  11.224   1.186   1.481
 4150SOL    HW114289  11.191   1.273   1.504
 4150SOL    HW214290  11.146   1.136   1.456
 4151SOL     OW14291   6.327   2.630   7.509
 4151SOL    HW114292   6.308   2.660   7.420
 4151SOL    HW214293   6.392   2.561   7.497
 4152SOL     OW14294  13.694   1.653   9.486
 4152SOL    HW114295  13.648   1.716   9.542
 4152SOL    HW214296  13.700   1.697   9.401
 4153SOL     OW14297  13.656  12.803   1.697
 4153SOL    HW114298  13.648  12.880   1.641
 4153SOL    HW214299  13.576  12.803   1.749
 4154SOL     OW14300   3.669  10.221   8.414
 4154SOL    HW114301   3.653  10.128   8.399
 4154SOL    HW214302   3.710  10.225   8.500
 4155SOL     OW14303   2.009  13.379  11.621
 4155SOL    HW114304   1.992  13.430  11.701
 4155SOL    HW214305   2.034  13.444  11.556
 4156SOL     OW14306   6.060  13.754   2.567
 4156SOL    HW114307   5.994  13.730   2.502
 4156SOL    HW214308   6.021  13.731   2.651
 4157SOL     OW14309  14.636   6.881  13.108
 4157SOL    HW114310  14.594   6.810  13.060
 4157SOL    HW214311  14.708   6.909  13.051
 4158SOL     OW14312   7.704  14.033   4.256
 4158SOL    HW114313   7.659  14.047   4.173
 4158SOL    HW214314   7.636  14.043   4.323
 4159SOL     OW14315   6.478  10.167   2.147
 4159SOL    HW114316   6.496  10.213   2.065
 4159SOL    HW214317   6.410  10.104   2.125
 4160SOL     OW14318   4.566   5.663   1.046
 4160SOL    HW114319   4.635   5.659   0.980
 4160SOL    HW214320   4.485   5.646   0.997
 4161SOL     OW14321  11.857   4.265  10.962
 4161SOL    HW114322  11.815   4.252  11.047
 4161SOL    HW214323  11.795   4.317  10.912
 4162SOL     OW14324  12.121   9.118   0.029
 4162SOL    HW114325  12.101   9.064  14.834
 4162SOL    HW214326  12.044   9.174   0.039
 4163SOL     OW14327   4.848   2.662   7.548
 4163SOL    HW114328   4.892   2.658   7.462
 4163SOL    HW214329   4.792   2.739   7.542
 4164SOL     OW14330   7.296   5.633   2.549
 4164SOL    HW114331   7.342   5.594   2.624
 4164SOL    HW214332   7.291   5.726   2.570
 4165SOL     OW14333   3.714  13.773  10.186
 4165SOL    HW114334   3.776  13.745  10.118
 4165SOL    HW214335   3.634  13.793  10.138
 4166SOL     OW14336   0.217  13.310  11.208
 4166SOL    HW114337   0.153  13.294  11.139
 4166SOL    HW214338   0.300  13.319  11.161
 4167SOL     OW14339  10.383   7.553  12.102
 4167SOL    HW114340  10.423   7.632  12.064
 4167SOL    HW214341  10.308   7.535  12.046
 4168SOL     OW14342   8.021   4.105  10.418
 4168SOL    HW114343   7.966   4.157  10.360
 4168SOL    HW214344   8.072   4.049  10.360
 4169SOL     OW14345  10.126   2.087  11.561
 4169SOL    HW114346  10.166   2.076  11.475
 4169SOL    HW214347  10.139   2.002  11.604
 4170SOL     OW14348   0.476   7.569   0.911
 4170SOL    HW114349   0.569   7.585   0.896
 4170SOL    HW214350   0.434   7.654   0.899
 4171SOL     OW14351   4.323  13.145   4.272
 4171SOL    HW114352   4.310  13.056   4.304
 4171SOL    HW214353   4.327  13.199   4.351
 4172SOL     OW14354   4.449  12.249   6.275
 4172SOL    HW114355   4.521  12.275   6.333
 4172SOL    HW214356   4.402  12.182   6.325
 4173SOL     OW14357   3.052   1.723   7.572
 4173SOL    HW114358   3.010   1.639   7.552
 4173SOL    HW214359   3.082   1.714   7.663
 4174SOL     OW14360   1.510   7.261  11.480
 4174SOL    HW114361   1.459   7.305  11.547
 4174SOL    HW214362   1.465   7.282  11.398
 4175SOL     OW14363   6.499  13.619   2.152
 4175SOL    HW114364   6.453  13.702   2.142
 4175SOL    HW214365   6.486  13.595   2.244
 4176SOL     OW14366  10.572  14.664  13.661
 4176SOL    HW114367  10.660  14.641  13.692
 4176SOL    HW214368  10.514  14.629  13.728
 4177SOL     OW14369   2.798   9.746  12.432
 4177SOL    HW114370   2.858   9.806  12.387
 4177SOL    HW214371   2.715   9.756  12.385
 4178SOL     OW14372  13.948  13.800   5.819
 4178SOL    HW114373  13.985  13.879   5.857
 4178SOL    HW214374  13.866  13.829   5.778
 4179SOL     OW14375   3.162  14.240   4.141
 4179SOL    HW114376   3.129  14.233   4.231
 4179SOL    HW214377   3.224  14.168   4.133
 4180SOL     OW14378  11.729  13.593   1.473
 4180SOL    HW114379  11.822  13.602   1.490
 4180SOL    HW214380  11.709  13.665   1.413
 4181SOL     OW14381   8.151  14.641  13.101
 4181SOL    HW114382   8.157  14.716  13.042
 4181SOL    HW214383   8.241  14.622  13.126
 4182SOL     OW14384  12.177   5.425  11.117
 4182SOL    HW114385  12.212   5.459  11.034
 4182SOL    HW214386  12.254   5.399  11.166
 4183SOL     OW14387   5.896   7.271   1.271
 4183SOL    HW114388   5.981   7.291   1.233
 4183SOL    HW214389   5.890   7.175   1.268
 4184SOL     OW14390  11.206  12.828   4.533
 4184SOL    HW114391  11.299  12.821   4.509
 4184SOL    HW214392  11.199  12.914   4.574
 4185SOL     OW14393   4.099   3.316   5.723
 4185SOL    HW114394   4.117   3.240   5.667
 4185SOL    HW214395   4.173   3.375   5.707
 4186SOL     OW14396  12.765  10.981  12.586
 4186SOL    HW114397  12.767  11.029  12.669
 4186SOL    HW214398  12.687  10.926  12.592
 4187SOL     OW14399  10.496  10.052   7.827
 4187SOL    HW114400  10.467  10.143   7.835
 4187SOL    HW214401  10.532  10.030   7.913
 4188SOL     OW14402  12.530   2.180   6.568
 4188SOL    HW114403  12.497   2.215   6.485
 4188SOL    HW214404  12.452   2.166   6.620
 4189SOL     OW14405   6.092   4.601   1.183
 4189SOL    HW114406   6.158   4.598   1.114
 4189SOL    HW214407   6.010   4.576   1.139
 4190SOL     OW14408   5.649   9.623   4.448
 4190SOL    HW114409   5.602   9.650   4.369
 4190SOL    HW214410   5.603   9.544   4.477
 4191SOL     OW14411   5.864   3.161  12.885
 4191SOL    HW114412   5.844   3.068  12.877
 4191SOL    HW214413   5.945   3.173  12.836
 4192SOL     OW14414  13.519  14.794  12.235
 4192SOL    HW114415  13.478  14.716  12.272
 4192SOL    HW214416  13.570  14.762  12.161
 4193SOL     OW14417  12.945   3.533   7.345
 4193SOL    HW114418  12.990   3.469   7.290
 4193SOL    HW214419  12.894   3.586   7.284
 4194SOL     OW14420   2.330   0.580   0.980
 4194SOL    HW114421   2.288   0.527   0.912
 4194SOL    HW214422   2.281   0.662   0.981
 4195SOL     OW14423  11.459  13.396   3.410
 4195SOL    HW114424  11.501  13.338   3.474
 4195SOL    HW214425  11.509  13.381   3.329
 4196SOL     OW14426  10.879   1.516  13.408
 4196SOL    HW114427  10.967   1.495  13.378
 4196SOL    HW214428  10.888   1.526  13.503
 4197SOL     OW14429  13.021   8.076  14.460
 4197SOL    HW114430  12.936   8.033  14.461
 4197SOL    HW214431  13.028   8.117  14.546
 4198SOL     OW14432   8.811   4.370   7.408
 4198SOL    HW114433   8.842   4.460   7.393
 4198SOL    HW214434   8.731   4.381   7.459
 4199SOL     OW14435   4.574   1.943  12.455
 4199SOL    HW114436   4.562   1.859  12.410
 4199SOL    HW214437   4.500   1.947  12.516
 4200SOL     OW14438  10.440   1.544   8.038
 4200SOL    HW114439  10.415   1.605   8.107
 4200SOL    HW214440  10.476   1.600   7.969
 4201SOL     OW14441   9.703  12.845   3.949
 4201SOL    HW114442   9.705  12.840   3.853
 4201SOL    HW214443   9.785  12.888   3.972
 4202SOL     OW14444   2.772  11.933  12.547
 4202SOL    HW114445   2.749  12.011  12.598
 4202SOL    HW214446   2.860  11.910  12.577
 4203SOL     OW14447   0.439   2.729  11.846
 4203SOL    HW114448   0.519   2.732  11.899
 4203SOL    HW214449   0.471   2.724  11.756
 4204SOL     OW14450  13.128   2.474   6.274
 4204SOL    HW114451  13.191   2.442   6.340
 4204SOL    HW214452  13.125   2.568   6.288
 4205SOL     OW14453  10.075   0.300  11.228
 4205SOL    HW114454  10.092   0.244  11.153
 4205SOL    HW214455  10.009   0.253  11.279
 4206SOL     OW14456   1.897   9.184   8.334
 4206SOL    HW114457   1.956   9.156   8.404
 4206SOL    HW214458   1.811   9.152   8.361
 4207SOL     OW14459   8.086   4.034   7.674
 4207SOL    HW114460   8.153   4.030   7.605
 4207SOL    HW214461   8.122   4.095   7.739
 4208SOL     OW14462   3.309   8.825  12.698
 4208SOL    HW114463   3.281   8.832  12.789
 4208SOL    HW214464   3.405   8.819  12.703
 4209SOL     OW14465  13.568   4.766   3.498
 4209SOL    HW114466  13.579   4.844   3.444
 4209SOL    HW214467  13.618   4.785   3.577
 4210SOL     OW14468   2.994  13.076   8.098
 4210SOL    HW114469   2.962  13.156   8.055
 4210SOL    HW214470   3.058  13.040   8.037
 4211SOL     OW14471   9.748  13.552   0.922
 4211SOL    HW114472   9.799  13.526   0.998
 4211SOL    HW214473   9.809  13.547   0.849
 4212SOL     OW14474   0.281   6.812   0.923
 4212SOL    HW114475   0.195   6.854   0.922
 4212SOL    HW214476   0.336   6.869   0.869
 4213SOL     OW14477   4.581   6.192   4.700
 4213SOL    HW114478   4.661   6.236   4.727
 4213SOL    HW214479   4.578   6.204   4.605
 4214SOL     OW14480   6.320  14.335  12.042
 4214SOL    HW114481   6.353  14.276  11.975
 4214SOL    HW214482   6.389  14.336  12.109
 4215SOL     OW14483  14.219  12.414  14.263
 4215SOL    HW114484  14.129  12.446  14.273
 4215SOL    HW214485  14.222  12.382  14.173
 4216SOL     OW14486   3.389   5.793   6.254
 4216SOL    HW114487   3.412   5.791   6.161
 4216SOL    HW214488   3.399   5.885   6.279
 4217SOL     OW14489   3.837   1.119   9.289
 4217SOL    HW114490   3.912   1.095   9.343
 4217SOL    HW214491   3.856   1.080   9.203
 4218SOL     OW14492  10.387   5.381   5.251
 4218SOL    HW114493  10.362   5.390   5.343
 4218SOL    HW214494  10.482   5.393   5.250
 4219SOL     OW14495   7.516   0.900   2.837
 4219SOL    HW114496   7.568   0.821   2.852
 4219SOL    HW214497   7.427   0.876   2.865
 4220SOL     OW14498  11.029   1.553  10.345
 4220SOL    HW114499  10.994   1.626  10.396
 4220SOL    HW214500  11.085   1.594  10.279
 4221SOL     OW14501   0.666   6.975   7.862
 4221SOL    HW114502   0.713   7.025   7.930
 4221SOL    HW214503   0.591   7.031   7.839
 4222SOL     OW14504   0.112   3.077   6.562
 4222SOL    HW114505   0.027   3.055   6.598
 4222SOL    HW214506   0.123   3.170   6.582
 4223SOL     OW14507   1.226   1.350   5.112
 4223SOL    HW114508   1.285   1.425   5.115
 4223SOL    HW214509   1.205   1.333   5.204
 4224SOL     OW14510  11.927  10.449  11.773
 4224SOL    HW114511  11.859  10.390  11.806
 4224SOL    HW214512  12.009  10.416  11.809
 4225SOL     OW14513   7.424   5.952   0.069
 4225SOL    HW114514   7.367   5.903   0.010
 4225SOL    HW214515   7.448   5.888   0.137
 4226SOL     OW14516  11.609  14.813   8.854
 4226SOL    HW114517  11.590  14.809   8.948
 4226SOL    HW214518  11.687  14.867   8.848
 4227SOL     OW14519   0.650   4.206   0.699
 4227SOL    HW114520   0.576   4.266   0.708
 4227SOL    HW214521   0.671   4.207   0.605
 4228SOL     OW14522   3.405   1.262   7.946
 4228SOL    HW114523   3.405   1.329   7.878
 4228SOL    HW214524   3.332   1.285   8.003
 4229SOL     OW14525  12.079   9.134   4.840
 4229SOL    HW114526  12.131   9.077   4.783
 4229SOL    HW214527  12.125   9.132   4.923
 4230SOL     OW14528   0.439   8.417   1.786
 4230SOL    HW114529   0.457   8.441   1.695
 4230SOL    HW214530   0.523   8.427   1.831
 4231SOL     OW14531  10.050   4.553   8.666
 4231SOL    HW114532   9.959   4.536   8.691
 4231SOL    HW214533  10.093   4.575   8.749
 4232SOL     OW14534   3.448   0.608   9.248
 4232SOL    HW114535   3.473   0.646   9.332
 4232SOL    HW214536   3.406   0.679   9.200
 4233SOL     OW14537  10.001   0.636   5.567
 4233SOL    HW114538   9.925   0.598   5.524
 4233SOL    HW214539  10.075   0.607   5.514
 4234SOL     OW14540  12.580   0.033   4.425
 4234SOL    HW114541  12.547   0.086   4.353
 4234SOL    HW214542  12.577   0.091   4.501
 4235SOL     OW14543   2.716   5.324  10.912
 4235SOL    HW114544   2.683   5.390  10.851
 4235SOL    HW214545   2.663   5.335  10.991
 4236SOL     OW14546   5.859   5.782  12.012
 4236SOL    HW114547   5.869   5.858  12.070
 4236SOL    HW214548   5.810   5.816  11.937
 4237SOL     OW14549  11.738   5.321   8.298
 4237SOL    HW114550  11.716   5.393   8.240
 4237SOL    HW214551  11.826   5.296   8.273
 4238SOL     OW14552   9.078   9.292   1.851
 4238SOL    HW114553   9.076   9.373   1.799
 4238SOL    HW214554   9.158   9.248   1.823
 4239SOL     OW14555   7.051   3.366   5.963
 4239SOL    HW114556   7.010   3.330   5.885
 4239SOL    HW214557   7.017   3.312   6.035
 4240SOL     OW14558   4.861   2.838   8.780
 4240SOL    HW114559   4.850   2.772   8.848
 4240SOL    HW214560   4.932   2.894   8.812
 4241SOL     OW14561   6.061   7.963   9.075
 4241SOL    HW114562   6.041   8.022   9.148
 4241SOL    HW214563   5.987   7.902   9.074
 4242SOL     OW14564  13.064  14.633  10.198
 4242SOL    HW114565  13.060  14.697  10.127
 4242SOL    HW214566  13.034  14.681  10.275
 4243SOL     OW14567  14.431   7.059   9.892
 4243SOL    HW114568  14.525   7.071   9.906
 4243SOL    HW214569  14.396   7.041   9.979
 4244SOL     OW14570   9.099   7.338   8.635
 4244SOL    HW114571   9.149   7.294   8.704
 4244SOL    HW214572   9.149   7.417   8.616
 4245SOL     OW14573  11.532   7.972   6.156
 4245SOL    HW114574  11.492   7.911   6.094
 4245SOL    HW214575  11.523   7.930   6.241
 4246SOL     OW14576   3.559   1.646   6.757
 4246SOL    HW114577   3.647   1.649   6.795
 4246SOL    HW214578   3.567   1.690   6.673
 4247SOL     OW14579   0.958  11.120  12.661
 4247SOL    HW114580   1.005  11.063  12.599
 4247SOL    HW214581   0.980  11.209  12.633
 4248SOL     OW14582   8.620   6.472   1.051
 4248SOL    HW114583   8.548   6.419   1.016
 4248SOL    HW214584   8.615   6.554   1.002
 4249SOL     OW14585  12.528   0.534   7.209
 4249SOL    HW114586  12.600   0.471   7.215
 4249SOL    HW214587  12.529   0.580   7.293
 4250SOL     OW14588   8.400   4.134  14.000
 4250SOL    HW114589   8.466   4.184  14.048
 4250SOL    HW214590   8.410   4.162  13.909
 4251SOL     OW14591  11.443  10.647   8.546
 4251SOL    HW114592  11.494  10.567   8.532
 4251SOL    HW214593  11.355  10.626   8.515
 4252SOL     OW14594  12.544   8.437   2.685
 4252SOL    HW114595  12.632   8.473   2.677
 4252SOL    HW214596  12.556   8.355   2.734
 4253SOL     OW14597  12.852   1.510  10.245
 4253SOL    HW114598  12.889   1.476  10.163
 4253SOL    HW214599  12.888   1.454  10.313
 4254SOL     OW14600   7.639   5.582  11.964
 4254SOL    HW114601   7.555   5.577  11.919
 4254SOL    HW214602   7.691   5.512  11.924
 4255SOL     OW14603   3.407  11.868   6.889
 4255SOL    HW114604   3.468  11.797   6.906
 4255SOL    HW214605   3.320  11.829   6.903
 4256SOL     OW14606   9.312   4.840   1.154
 4256SOL    HW114607   9.306   4.913   1.216
 4256SOL    HW214608   9.221   4.817   1.136
 4257SOL     OW14609   7.443   6.628  11.367
 4257SOL    HW114610   7.385   6.553  11.371
 4257SOL    HW214611   7.419   6.674  11.286
 4258SOL     OW14612   8.953   3.169   8.180
 4258SOL    HW114613   8.881   3.107   8.192
 4258SOL    HW214614   8.966   3.208   8.266
 4259SOL     OW14615   7.445   8.129  13.835
 4259SOL    HW114616   7.385   8.142  13.763
 4259SOL    HW214617   7.449   8.215  13.879
 4260SOL     OW14618   7.617  13.600  14.414
 4260SOL    HW114619   7.632  13.678  14.361
 4260SOL    HW214620   7.645  13.527  14.358
 4261SOL     OW14621  13.968  10.921  10.444
 4261SOL    HW114622  13.939  10.844  10.395
 4261SOL    HW214623  14.038  10.958  10.391
 4262SOL     OW14624  13.918  11.706   1.224
 4262SOL    HW114625  14.011  11.727   1.214
 4262SOL    HW214626  13.905  11.699   1.318
 4263SOL     OW14627   8.335   8.024   9.342
 4263SOL    HW114628   8.418   8.055   9.378
 4263SOL    HW214629   8.359   7.981   9.260
 4264SOL     OW14630   6.940   3.379  11.565
 4264SOL    HW114631   6.914   3.292  11.534
 4264SOL    HW214632   6.997   3.413  11.497
 4265SOL     OW14633   1.815   3.037   5.594
 4265SOL    HW114634   1.842   2.959   5.644
 4265SOL    HW214635   1.897   3.079   5.570
 4266SOL     OW14636   2.586   0.359  13.159
 4266SOL    HW114637   2.561   0.270  13.136
 4266SOL    HW214638   2.613   0.354  13.251
 4267SOL     OW14639   4.651   0.049   7.747
 4267SOL    HW114640   4.615   0.019   7.830
 4267SOL    HW214641   4.694  14.854   7.710
 4268SOL     OW14642   7.406   0.528   7.881
 4268SOL    HW114643   7.481   0.551   7.937
 4268SOL    HW214644   7.346   0.481   7.939
 4269SOL     OW14645  12.552  13.730   0.993
 4269SOL    HW114646  12.544  13.641   0.961
 4269SOL    HW214647  12.487  13.780   0.944
 4270SOL     OW14648  14.569   2.711  11.543
 4270SOL    HW114649  14.494   2.656  11.518
 4270SOL    HW214650  14.635   2.693  11.476
 4271SOL     OW14651   8.992   7.464   0.768
 4271SOL    HW114652   8.996   7.385   0.821
 4271SOL    HW214653   8.905   7.499   0.784
 4272SOL     OW14654   2.321   0.005   1.809
 4272SOL    HW114655   2.361   0.068   1.749
 4272SOL    HW214656   2.395  14.841   1.848
 4273SOL     OW14657   8.744   5.569  14.664
 4273SOL    HW114658   8.704   5.648  14.630
 4273SOL    HW214659   8.673   5.506  14.670
 4274SOL     OW14660   3.974   2.085   2.774
 4274SOL    HW114661   4.026   2.141   2.718
 4274SOL    HW214662   3.889   2.128   2.780
 4275SOL     OW14663  12.623  12.542  14.177
 4275SOL    HW114664  12.708  12.498  14.186
 4275SOL    HW214665  12.603  12.537  14.084
 4276SOL     OW14666   7.706   1.828  14.583
 4276SOL    HW114667   7.697   1.863  14.671
 4276SOL    HW214668   7.793   1.788  14.581
 4277SOL     OW14669  12.577  14.478   0.788
 4277SOL    HW114670  12.523  14.510   0.716
 4277SOL    HW214671  12.651  14.435   0.744
 4278SOL     OW14672   1.264   6.478  13.612
 4278SOL    HW114673   1.290   6.389  13.588
 4278SOL    HW214674   1.189   6.466  13.669
 4279SOL     OW14675   7.936   8.297  12.809
 4279SOL    HW114676   8.008   8.343  12.766
 4279SOL    HW214677   7.874   8.366  12.833
 4280SOL     OW14678   6.821  12.729   2.069
 4280SOL    HW114679   6.844  12.759   2.157
 4280SOL    HW214680   6.819  12.808   2.016
 4281SOL     OW14681   5.825   4.285   9.257
 4281SOL    HW114682   5.733   4.275   9.234
 4281SOL    HW214683   5.826   4.284   9.353
 4282SOL     OW14684  10.758   0.106  10.879
 4282SOL    HW114685  10.845   0.115  10.919
 4282SOL    HW214686  10.719   0.193  10.889
 4283SOL     OW14687   6.099   9.991   4.169
 4283SOL    HW114688   6.011  10.002   4.206
 4283SOL    HW214689   6.084   9.971   4.077
 4284SOL     OW14690   3.407  12.177   8.001
 4284SOL    HW114691   3.473  12.116   8.034
 4284SOL    HW214692   3.382  12.230   8.077
 4285SOL     OW14693   7.417   5.432   9.782
 4285SOL    HW114694   7.420   5.467   9.693
 4285SOL    HW214695   7.504   5.395   9.796
 4286SOL     OW14696  13.435   1.121   7.610
 4286SOL    HW114697  13.516   1.135   7.660
 4286SOL    HW214698  13.365   1.153   7.668
 4287SOL     OW14699  10.292   1.201   4.001
 4287SOL    HW114700  10.338   1.127   3.962
 4287SOL    HW214701  10.322   1.277   3.950
 4288SOL     OW14702   4.319   4.890   2.281
 4288SOL    HW114703   4.330   4.884   2.186
 4288SOL    HW214704   4.406   4.908   2.315
 4289SOL     OW14705   4.573   1.036  11.035
 4289SOL    HW114706   4.621   0.966  11.078
 4289SOL    HW214707   4.594   1.026  10.942
 4290SOL     OW14708   7.994   4.382   2.001
 4290SOL    HW114709   8.022   4.426   1.920
 4290SOL    HW214710   8.029   4.293   1.993
 4291SOL     OW14711   6.410   6.830   2.607
 4291SOL    HW114712   6.421   6.812   2.513
 4291SOL    HW214713   6.347   6.764   2.636
 4292SOL     OW14714  14.021   5.294   0.409
 4292SOL    HW114715  14.099   5.348   0.411
 4292SOL    HW214716  13.950   5.355   0.388
 4293SOL     OW14717  10.709  14.226   8.812
 4293SOL    HW114718  10.667  14.154   8.859
 4293SOL    HW214719  10.774  14.260   8.873
 4294SOL     OW14720  13.730  14.688   9.089
 4294SOL    HW114721  13.731  14.708   9.183
 4294SOL    HW214722  13.726  14.773   9.046
 4295SOL     OW14723   5.683  11.942   1.948
 4295SOL    HW114724   5.619  11.965   2.016
 4295SOL    HW214725   5.702  12.025   1.903
 4296SOL     OW14726  10.678   6.843   6.006
 4296SOL    HW114727  10.625   6.817   5.930
 4296SOL    HW214728  10.630   6.916   6.045
 4297SOL     OW14729  10.251   0.887  12.930
 4297SOL    HW114730  10.314   0.958  12.937
 4297SOL    HW214731  10.225   0.869  13.021
 4298SOL     OW14732   4.758   4.144   9.830
 4298SOL    HW114733   4.682   4.181   9.786
 4298SOL    HW214734   4.825   4.213   9.826
 4299SOL     OW14735   7.404   5.708   7.533
 4299SOL    HW114736   7.425   5.615   7.538
 4299SOL    HW214737   7.341   5.723   7.603
 4300SOL     OW14738   5.987   4.021  10.726
 4300SOL    HW114739   6.045   3.957  10.685
 4300SOL    HW214740   5.956   4.075  10.654
 4301SOL     OW14741  14.691  10.474   9.394
 4301SOL    HW114742  14.741  10.547   9.430
 4301SOL    HW214743  14.599  10.500   9.404
 4302SOL     OW14744   2.507  14.198   8.736
 4302SOL    HW114745   2.481  14.163   8.821
 4302SOL    HW214746   2.594  14.161   8.721
 4303SOL     OW14747   7.522  14.415   7.084
 4303SOL    HW114748   7.493  14.445   7.170
 4303SOL    HW214749   7.581  14.342   7.103
 4304SOL     OW14750   0.998  14.566  11.032
 4304SOL    HW114751   0.924  14.521  11.073
 4304SOL    HW214752   1.046  14.605  11.105
 4305SOL     OW14753   6.565   4.564   1.164
 4305SOL    HW114754   6.570   4.585   1.071
 4305SOL    HW214755   6.647   4.519   1.183
 4306SOL     OW14756   6.799   9.019   3.317
 4306SOL    HW114757   6.714   8.975   3.310
 4306SOL    HW214758   6.813   9.060   3.232
 4307SOL     OW14759   3.282   9.211  12.183
 4307SOL    HW114760   3.289   9.123  12.219
 4307SOL    HW214761   3.212   9.205  12.118
 4308SOL     OW14762  12.557  11.661   4.233
 4308SOL    HW114763  12.629  11.688   4.177
 4308SOL    HW214764  12.600  11.620   4.309
 4309SOL     OW14765  14.811   0.829  13.195
 4309SOL    HW114766   0.002   0.767  13.193
 4309SOL    HW214767  14.741   0.782  13.241
 4310SOL     OW14768  13.744   2.456  13.396
 4310SOL    HW114769  13.824   2.424  13.438
 4310SOL    HW214770  13.739   2.548  13.420
 4311SOL     OW14771   5.790   1.172  13.716
 4311SOL    HW114772   5.823   1.246  13.767
 4311SOL    HW214773   5.753   1.211  13.637
 4312SOL     OW14774  10.635   7.239   0.992
 4312SOL    HW114775  10.678   7.177   1.051
 4312SOL    HW214776  10.697   7.248   0.919
 4313SOL     OW14777  12.788   7.591  13.745
 4313SOL    HW114778  12.883   7.594  13.756
 4313SOL    HW214779  12.755   7.565  13.831
 4314SOL     OW14780   2.846  10.718  10.307
 4314SOL    HW114781   2.810  10.760  10.228
 4314SOL    HW214782   2.928  10.764  10.323
 4315SOL     OW14783  14.504  14.511   4.583
 4315SOL    HW114784  14.500  14.599   4.619
 4315SOL    HW214785  14.478  14.453   4.655
 4316SOL     OW14786   7.163   8.493   5.908
 4316SOL    HW114787   7.144   8.544   5.987
 4316SOL    HW214788   7.187   8.407   5.941
 4317SOL     OW14789   5.247   6.429   3.686
 4317SOL    HW114790   5.299   6.430   3.767
 4317SOL    HW214791   5.311   6.409   3.617
 4318SOL     OW14792   9.038  11.653   7.817
 4318SOL    HW114793   9.015  11.738   7.778
 4318SOL    HW214794   8.986  11.589   7.767
 4319SOL     OW14795  10.644   7.311  12.336
 4319SOL    HW114796  10.687   7.322  12.421
 4319SOL    HW214797  10.680   7.381  12.282
 4320SOL     OW14798  13.262  10.187   2.821
 4320SOL    HW114799  13.240  10.097   2.800
 4320SOL    HW214800  13.188  10.219   2.873
 4321SOL     OW14801   7.662   9.066   0.963
 4321SOL    HW114802   7.643   9.113   1.044
 4321SOL    HW214803   7.749   9.098   0.937
 4322SOL     OW14804   4.838   2.551  14.758
 4322SOL    HW114805   4.756   2.598  14.744
 4322SOL    HW214806   4.895   2.581  14.686
 4323SOL     OW14807   0.257   4.422   1.130
 4323SOL    HW114808   0.342   4.430   1.086
 4323SOL    HW214809   0.275   4.368   1.207
 4324SOL     OW14810   4.665  13.082  14.800
 4324SOL    HW114811   4.710  13.086   0.003
 4324SOL    HW214812   4.682  12.993  14.768
 4325SOL     OW14813  13.370   1.743   4.824
 4325SOL    HW114814  13.308   1.774   4.759
 4325SOL    HW214815  13.317   1.695   4.888
 4326SOL     OW14816  13.512  10.739   7.355
 4326SOL    HW114817  13.600  10.718   7.389
 4326SOL    HW214818  13.482  10.657   7.315
 4327SOL     OW14819   9.656   1.730   0.681
 4327SOL    HW114820   9.723   1.664   0.663
 4327SOL    HW214821   9.595   1.722   0.608
 4328SOL     OW14822   4.461   7.657   7.919
 4328SOL    HW114823   4.494   7.682   8.005
 4328SOL    HW214824   4.445   7.563   7.926
 4329SOL     OW14825   8.090   0.427   8.550
 4329SOL    HW114826   8.114   0.366   8.481
 4329SOL    HW214827   8.108   0.381   8.632
 4330SOL     OW14828  11.789  11.365   5.950
 4330SOL    HW114829  11.736  11.431   5.995
 4330SOL    HW214830  11.871  11.410   5.931
 4331SOL     OW14831   4.240   8.856   0.248
 4331SOL    HW114832   4.304   8.926   0.238
 4331SOL    HW214833   4.159   8.893   0.212
 4332SOL     OW14834  11.337   1.268  10.345
 4332SOL    HW114835  11.373   1.290  10.258
 4332SOL    HW214836  11.370   1.180  10.363
 4333SOL     OW14837   1.081   9.620   8.532
 4333SOL    HW114838   1.065   9.570   8.452
 4333SOL    HW214839   1.173   9.644   8.528
 4334SOL     OW14840  11.200   5.258  12.702
 4334SOL    HW114841  11.288   5.235  12.673
 4334SOL    HW214842  11.180   5.194  12.770
 4335SOL     OW14843  10.051   7.334  10.468
 4335SOL    HW114844   9.960   7.312  10.447
 4335SOL    HW214845  10.080   7.389  10.395
 4336SOL     OW14846  10.628   8.281   8.154
 4336SOL    HW114847  10.641   8.203   8.207
 4336SOL    HW214848  10.716   8.315   8.138
 4337SOL     OW14849   5.978   8.679  10.846
 4337SOL    HW114850   5.965   8.613  10.913
 4337SOL    HW214851   5.889   8.703  10.818
 4338SOL     OW14852   9.408  14.104  10.715
 4338SOL    HW114853   9.343  14.118  10.646
 4338SOL    HW214854   9.370  14.146  10.792
 4339SOL     OW14855   9.619  10.249  10.502
 4339SOL    HW114856   9.654  10.277  10.417
 4339SOL    HW214857   9.526  10.235  10.487
 4340SOL     OW14858  11.414   0.995   0.140
 4340SOL    HW114859  11.327   1.034   0.129
 4340SOL    HW214860  11.435   0.960   0.054
 4341SOL     OW14861   6.583   5.144  12.159
 4341SOL    HW114862   6.671   5.181  12.162
 4341SOL    HW214863   6.587   5.066  12.214
 4342SOL     OW14864   5.402   6.974   2.429
 4342SOL    HW114865   5.346   6.901   2.405
 4342SOL    HW214866   5.351   7.052   2.407
 4343SOL     OW14867   8.109   2.701  13.206
 4343SOL    HW114868   8.133   2.774  13.149
 4343SOL    HW214869   8.071   2.742  13.283
 4344SOL     OW14870  13.352  14.037  10.432
 4344SOL    HW114871  13.420  13.974  10.456
 4344SOL    HW214872  13.356  14.041  10.337
 4345SOL     OW14873   5.338  10.231   2.824
 4345SOL    HW114874   5.308  10.322   2.831
 4345SOL    HW214875   5.433  10.236   2.826
 4346SOL     OW14876  13.642   8.634  14.686
 4346SOL    HW114877  13.708   8.694  14.651
 4346SOL    HW214878  13.621   8.576  14.613
 4347SOL     OW14879   5.101   8.628   1.844
 4347SOL    HW114880   5.191   8.597   1.837
 4347SOL    HW214881   5.065   8.619   1.756
 4348SOL     OW14882   7.910  13.330   8.478
 4348SOL    HW114883   7.884  13.420   8.460
 4348SOL    HW214884   7.827  13.283   8.488
 4349SOL     OW14885  13.546   8.833   3.337
 4349SOL    HW114886  13.494   8.881   3.402
 4349SOL    HW214887  13.544   8.889   3.259
 4350SOL     OW14888   0.829  13.917   2.632
 4350SOL    HW114889   0.906  13.864   2.651
 4350SOL    HW214890   0.837  13.993   2.689
 4351SOL     OW14891  10.199   6.457   1.068
 4351SOL    HW114892  10.166   6.368   1.076
 4351SOL    HW214893  10.134   6.511   1.112
 4352SOL     OW14894  11.575   8.221   7.498
 4352SOL    HW114895  11.525   8.162   7.443
 4352SOL    HW214896  11.588   8.173   7.580
 4353SOL     OW14897   0.609   4.387   9.801
 4353SOL    HW114898   0.578   4.392   9.710
 4353SOL    HW214899   0.669   4.461   9.810
 4354SOL     OW14900   2.902   5.657   4.323
 4354SOL    HW114901   2.823   5.669   4.271
 4354SOL    HW214902   2.872   5.620   4.406
 4355SOL     OW14903  10.739   9.728   5.650
 4355SOL    HW114904  10.661   9.768   5.690
 4355SOL    HW214905  10.762   9.787   5.578
 4356SOL     OW14906  13.612   6.682   7.819
 4356SOL    HW114907  13.657   6.759   7.784
 4356SOL    HW214908  13.582   6.710   7.906
 4357SOL     OW14909   5.716  12.255  10.435
 4357SOL    HW114910   5.706  12.344  10.401
 4357SOL    HW214911   5.678  12.199  10.367
 4358SOL     OW14912  14.630   0.755   7.556
 4358SOL    HW114913  14.536   0.736   7.559
 4358SOL    HW214914  14.663   0.728   7.641
 4359SOL     OW14915   3.236  12.699  10.422
 4359SOL    HW114916   3.305  12.717  10.486
 4359SOL    HW214917   3.280  12.648  10.354
 4360SOL     OW14918   7.433  13.108   7.833
 4360SOL    HW114919   7.439  13.086   7.740
 4360SOL    HW214920   7.342  13.134   7.846
 4361SOL     OW14921  10.181  12.519  14.853
 4361SOL    HW114922  10.231  12.598  14.830
 4361SOL    HW214923  10.151  12.535   0.060
 4362SOL     OW14924  12.353  12.016   1.378
 4362SOL    HW114925  12.297  12.003   1.455
 4362SOL    HW214926  12.307  11.972   1.307
 4363SOL     OW14927  13.789   3.163  13.089
 4363SOL    HW114928  13.780   3.085  13.144
 4363SOL    HW214929  13.820   3.231  13.149
 4364SOL     OW14930   1.637   4.061   5.556
 4364SOL    HW114931   1.557   4.069   5.504
 4364SOL    HW214932   1.624   4.121   5.629
 4365SOL     OW14933  14.282   3.358   7.585
 4365SOL    HW114934  14.230   3.400   7.652
 4365SOL    HW214935  14.250   3.268   7.582
 4366SOL     OW14936   6.815   2.859  12.781
 4366SOL    HW114937   6.808   2.768  12.752
 4366SOL    HW214938   6.801   2.911  12.703
 4367SOL     OW14939   2.800   2.416  12.283
 4367SOL    HW114940   2.864   2.350  12.257
 4367SOL    HW214941   2.813   2.427  12.377
 4368SOL     OW14942   4.829  10.048   5.851
 4368SOL    HW114943   4.897  10.035   5.785
 4368SOL    HW214944   4.746  10.041   5.803
 4369SOL     OW14945   3.942   4.187  12.884
 4369SOL    HW114946   4.001   4.117  12.856
 4369SOL    HW214947   3.961   4.199  12.977
 4370SOL     OW14948   0.479   4.763  10.303
 4370SOL    HW114949   0.501   4.847  10.262
 4370SOL    HW214950   0.438   4.712  10.233
 4371SOL     OW14951  12.137  11.176   4.869
 4371SOL    HW114952  12.079  11.171   4.793
 4371SOL    HW214953  12.225  11.163   4.833
 4372SOL     OW14954   1.340   2.792  14.838
 4372SOL    HW114955   1.347   2.720   0.018
 4372SOL    HW214956   1.415   2.781  14.779
 4373SOL     OW14957   4.442   8.732   3.662
 4373SOL    HW114958   4.424   8.725   3.756
 4373SOL    HW214959   4.391   8.808   3.633
 4374SOL     OW14960   6.772   4.694  13.267
 4374SOL    HW114961   6.710   4.730  13.203
 4374SOL    HW214962   6.779   4.763  13.334
 4375SOL     OW14963  11.609   6.771  13.838
 4375SOL    HW114964  11.549   6.742  13.905
 4375SOL    HW214965  11.648   6.851  13.873
 4376SOL     OW14966   5.442   4.655   6.097
 4376SOL    HW114967   5.433   4.687   6.187
 4376SOL    HW214968   5.394   4.719   6.044
 4377SOL     OW14969   5.310   6.865   9.570
 4377SOL    HW114970   5.306   6.960   9.556
 4377SOL    HW214971   5.329   6.829   9.484
 4378SOL     OW14972   8.873  12.481   6.101
 4378SOL    HW114973   8.792  12.528   6.083
 4378SOL    HW214974   8.851  12.389   6.089
 4379SOL     OW14975   6.427   8.490  13.166
 4379SOL    HW114976   6.381   8.417  13.123
 4379SOL    HW214977   6.389   8.492  13.254
 4380SOL     OW14978  14.256   7.064   7.969
 4380SOL    HW114979  14.228   7.015   7.893
 4380SOL    HW214980  14.249   7.003   8.042
 4381SOL     OW14981   8.701   6.333  14.644
 4381SOL    HW114982   8.752   6.267  14.598
 4381SOL    HW214983   8.650   6.376  14.576
 4382SOL     OW14984  14.586   8.491   7.147
 4382SOL    HW114985  14.658   8.466   7.089
 4382SOL    HW214986  14.514   8.433   7.122
 4383SOL     OW14987   0.081   2.840  11.608
 4383SOL    HW114988   0.074   2.744  11.606
 4383SOL    HW214989   0.108   2.859  11.698
 4384SOL     OW14990   3.590   3.926   6.479
 4384SOL    HW114991   3.517   3.884   6.525
 4384SOL    HW214992   3.612   3.866   6.408
 4385SOL     OW14993   4.444  14.553   6.842
 4385SOL    HW114994   4.527  14.601   6.849
 4385SOL    HW214995   4.397  14.597   6.772
 4386SOL     OW14996  13.442   3.938   3.829
 4386SOL    HW114997  13.468   3.932   3.737
 4386SOL    HW214998  13.521   3.916   3.878
 4387SOL     OW14999   3.528  14.552   6.158
 4387SOL    HW115000   3.453  14.572   6.101
 4387SOL    HW215001   3.588  14.625   6.146
 4388SOL     OW15002  12.947   3.306  11.848
 4388SOL    HW115003  12.970   3.398  11.835
 4388SOL    HW215004  12.879   3.289  11.782
 4389SOL     OW15005   5.889   7.812   0.692
 4389SOL    HW115006   5.961   7.818   0.754
 4389SOL    HW215007   5.818   7.770   0.742
 4390SOL     OW15008   6.219   1.580   8.593
 4390SOL    HW115009   6.244   1.612   8.506
 4390SOL    HW215010   6.271   1.633   8.654
 4391SOL     OW15011   6.566   4.543  10.213
 4391SOL    HW115012   6.517   4.584  10.284
 4391SOL    HW215013   6.549   4.450  10.223
 4392SOL     OW15014   9.943   4.380   7.814
 4392SOL    HW115015  10.003   4.355   7.885
 4392SOL    HW215016   9.990   4.448   7.766
 4393SOL     OW15017   2.032   2.900   1.883
 4393SOL    HW115018   1.951   2.850   1.875
 4393SOL    HW215019   2.005   2.991   1.871
 4394SOL     OW15020   5.139   9.305   4.455
 4394SOL    HW115021   5.126   9.251   4.377
 4394SOL    HW215022   5.221   9.353   4.438
 4395SOL     OW15023  10.222   7.868   7.675
 4395SOL    HW115024  10.254   7.781   7.698
 4395SOL    HW215025  10.134   7.854   7.642
 4396SOL     OW15026   1.368   9.822  13.624
 4396SOL    HW115027   1.314   9.745  13.638
 4396SOL    HW215028   1.305   9.895  13.622
 4397SOL     OW15029   6.455  10.129   3.079
 4397SOL    HW115030   6.391  10.090   3.019
 4397SOL    HW215031   6.409  10.204   3.118
 4398SOL     OW15032  13.639   4.522   8.928
 4398SOL    HW115033  13.721   4.557   8.892
 4398SOL    HW215034  13.664   4.439   8.969
 4399SOL     OW15035  13.393  13.851   3.642
 4399SOL    HW115036  13.305  13.819   3.663
 4399SOL    HW215037  13.379  13.937   3.603
 4400SOL     OW15038  12.350   5.702   9.871
 4400SOL    HW115039  12.425   5.645   9.883
 4400SOL    HW215040  12.388   5.788   9.851
 4401SOL     OW15041   5.675   5.105   6.790
 4401SOL    HW115042   5.740   5.101   6.860
 4401SOL    HW215043   5.648   5.196   6.787
 4402SOL     OW15044  11.753   1.879  14.835
 4402SOL    HW115045  11.830   1.869   0.009
 4402SOL    HW215046  11.778   1.839  14.752
 4403SOL     OW15047   8.842  14.394   8.811
 4403SOL    HW115048   8.900  14.407   8.736
 4403SOL    HW215049   8.897  14.414   8.887
 4404SOL     OW15050  13.412   4.751   0.679
 4404SOL    HW115051  13.497   4.708   0.683
 4404SOL    HW215052  13.401   4.773   0.586
 4405SOL     OW15053  10.962  14.831   0.514
 4405SOL    HW115054  10.981  14.737   0.519
 4405SOL    HW215055  11.043  14.874   0.542
 4406SOL     OW15056   8.219   9.078   7.917
 4406SOL    HW115057   8.128   9.055   7.935
 4406SOL    HW215058   8.224   9.083   7.822
 4407SOL     OW15059   6.415  11.032   6.483
 4407SOL    HW115060   6.339  10.973   6.486
 4407SOL    HW215061   6.421  11.058   6.391
 4408SOL     OW15062  14.076  10.496   6.656
 4408SOL    HW115063  14.102  10.491   6.748
 4408SOL    HW215064  14.019  10.421   6.643
 4409SOL     OW15065   7.789  12.619   2.258
 4409SOL    HW115066   7.789  12.557   2.331
 4409SOL    HW215067   7.732  12.578   2.193
 4410SOL     OW15068   7.058   5.559   2.180
 4410SOL    HW115069   7.084   5.650   2.167
 4410SOL    HW215070   6.997   5.561   2.254
 4411SOL     OW15071  11.370   7.399   8.674
 4411SOL    HW115072  11.390   7.316   8.716
 4411SOL    HW215073  11.371   7.379   8.580
 4412SOL     OW15074  10.936  13.698  12.390
 4412SOL    HW115075  10.851  13.656  12.376
 4412SOL    HW215076  10.997  13.624  12.401
 4413SOL     OW15077   9.509   3.993  13.438
 4413SOL    HW115078   9.583   4.053  13.436
 4413SOL    HW215079   9.445   4.034  13.497
 4414SOL     OW15080   2.439   7.393   4.558
 4414SOL    HW115081   2.433   7.382   4.653
 4414SOL    HW215082   2.515   7.340   4.533
 4415SOL     OW15083   5.460   8.166  12.143
 4415SOL    HW115084   5.379   8.218  12.144
 4415SOL    HW215085   5.449   8.106  12.069
 4416SOL     OW15086  12.012  12.570  13.840
 4416SOL    HW115087  12.021  12.662  13.865
 4416SOL    HW215088  11.935  12.568  13.784
 4417SOL     OW15089   0.682  13.888  11.674
 4417SOL    HW115090   0.760  13.834  11.686
 4417SOL    HW215091   0.609  13.828  11.686
 4418SOL     OW15092   8.609   9.025  13.428
 4418SOL    HW115093   8.627   9.097  13.368
 4418SOL    HW215094   8.693   8.981  13.439
 4419SOL     OW15095   2.763  13.054  12.359
 4419SOL    HW115096   2.830  13.093  12.415
 4419SOL    HW215097   2.806  13.044  12.274
 4420SOL     OW15098   8.246  14.047  13.090
 4420SOL    HW115099   8.217  14.130  13.052
 4420SOL    HW215100   8.170  13.989  13.080
 4421SOL     OW15101   6.813   3.468   6.115
 4421SOL    HW115102   6.845   3.391   6.069
 4421SOL    HW215103   6.832   3.541   6.056
 4422SOL     OW15104   4.595  10.677   9.581
 4422SOL    HW115105   4.501  10.691   9.584
 4422SOL    HW215106   4.629  10.750   9.530
 4423SOL     OW15107  13.465  10.466  13.269
 4423SOL    HW115108  13.450  10.536  13.331
 4423SOL    HW215109  13.438  10.502  13.184
 4424SOL     OW15110  10.922   4.654   6.410
 4424SOL    HW115111  10.925   4.566   6.373
 4424SOL    HW215112  11.006   4.664   6.454
 4425SOL     OW15113   8.384   5.096   5.364
 4425SOL    HW115114   8.425   5.014   5.336
 4425SOL    HW215115   8.310   5.068   5.418
 4426SOL     OW15116   0.890   0.163   1.735
 4426SOL    HW115117   0.886   0.120   1.820
 4426SOL    HW215118   0.966   0.123   1.691
 4427SOL     OW15119  11.378   3.354  13.049
 4427SOL    HW115120  11.384   3.282  13.111
 4427SOL    HW215121  11.300   3.404  13.075
 4428SOL     OW15122   7.042   8.979   4.785
 4428SOL    HW115123   6.955   8.951   4.755
 4428SOL    HW215124   7.089   8.898   4.802
 4429SOL     OW15125   1.467  10.367   8.421
 4429SOL    HW115126   1.435  10.444   8.376
 4429SOL    HW215127   1.391  10.335   8.471
 4430SOL     OW15128   8.343   3.804   9.936
 4430SOL    HW115129   8.326   3.779   9.845
 4430SOL    HW215130   8.280   3.752   9.986
 4431SOL     OW15131  14.597   6.623   5.658
 4431SOL    HW115132  14.659   6.646   5.589
 4431SOL    HW215133  14.645   6.564   5.715
 4432SOL     OW15134   4.030   1.858  14.573
 4432SOL    HW115135   4.098   1.902  14.624
 4432SOL    HW215136   4.004   1.922  14.507
 4433SOL     OW15137  13.687   1.268   2.015
 4433SOL    HW115138  13.769   1.315   2.024
 4433SOL    HW215139  13.700   1.212   1.937
 4434SOL     OW15140   2.296   3.984   0.076
 4434SOL    HW115141   2.314   3.930  14.880
 4434SOL    HW215142   2.366   4.049   0.077
 4435SOL     OW15143  11.086   0.165   1.379
 4435SOL    HW115144  11.077   0.214   1.460
 4435SOL    HW215145  11.180   0.152   1.368
 4436SOL     OW15146  13.409   2.785   0.455
 4436SOL    HW115147  13.377   2.863   0.500
 4436SOL    HW215148  13.364   2.712   0.497
 4437SOL     OW15149  13.145  10.457  14.130
 4437SOL    HW115150  13.189  10.373  14.116
 4437SOL    HW215151  13.066  10.434  14.179
 4438SOL     OW15152  10.923   8.421   0.893
 4438SOL    HW115153  10.952   8.512   0.899
 4438SOL    HW215154  10.832   8.422   0.921
 4439SOL     OW15155   7.054   4.058  14.475
 4439SOL    HW115156   7.135   4.108  14.484
 4439SOL    HW215157   7.000   4.085  14.549
 4440SOL     OW15158  10.319   5.083  13.662
 4440SOL    HW115159  10.279   4.996  13.651
 4440SOL    HW215160  10.351   5.083  13.751
 4441SOL     OW15161  11.354   4.828   8.240
 4441SOL    HW115162  11.365   4.740   8.274
 4441SOL    HW215163  11.279   4.863   8.289
 4442SOL     OW15164   2.702   5.622   3.611
 4442SOL    HW115165   2.775   5.574   3.649
 4442SOL    HW215166   2.738   5.706   3.585
 4443SOL     OW15167  11.770   6.943  11.800
 4443SOL    HW115168  11.839   7.003  11.770
 4443SOL    HW215169  11.710   6.999  11.850
 4444SOL     OW15170  14.358   1.831   7.909
 4444SOL    HW115171  14.264   1.812   7.910
 4444SOL    HW215172  14.389   1.804   7.996
 4445SOL     OW15173   9.013  13.855   0.926
 4445SOL    HW115174   9.060  13.866   1.009
 4445SOL    HW215175   8.978  13.766   0.931
 4446SOL     OW15176   2.070   4.631   9.570
 4446SOL    HW115177   2.048   4.719   9.602
 4446SOL    HW215178   2.072   4.577   9.649
 4447SOL     OW15179  12.750   3.923   8.518
 4447SOL    HW115180  12.800   3.860   8.570
 4447SOL    HW215181  12.815   3.969   8.465
 4448SOL     OW15182  11.062  12.847   5.280
 4448SOL    HW115183  11.142  12.892   5.255
 4448SOL    HW215184  11.088  12.790   5.353
 4449SOL     OW15185   2.142  13.448   1.441
 4449SOL    HW115186   2.118  13.511   1.373
 4449SOL    HW215187   2.112  13.363   1.408
 4450SOL     OW15188   9.691   9.127   4.484
 4450SOL    HW115189   9.631   9.065   4.525
 4450SOL    HW215190   9.712   9.088   4.400
 4451SOL     OW15191  12.165  13.663  14.699
 4451SOL    HW115192  12.097  13.662  14.766
 4451SOL    HW215193  12.163  13.574  14.662
 4452SOL     OW15194   0.794  11.717  12.077
 4452SOL    HW115195   0.715  11.758  12.111
 4452SOL    HW215196   0.861  11.785  12.084
 4453SOL     OW15197   6.524   3.914  13.760
 4453SOL    HW115198   6.545   3.999  13.798
 4453SOL    HW215199   6.514   3.856  13.836
 4454SOL     OW15200  12.983   3.682   4.556
 4454SOL    HW115201  13.051   3.668   4.623
 4454SOL    HW215202  12.927   3.604   4.562
 4455SOL     OW15203   8.075  13.100   9.519
 4455SOL    HW115204   8.047  13.166   9.582
 4455SOL    HW215205   8.076  13.146   9.435
 4456SOL     OW15206  13.084  12.285   1.223
 4456SOL    HW115207  13.175  12.265   1.243
 4456SOL    HW215208  13.042  12.199   1.219
 4457SOL     OW15209   5.393   3.434   5.557
 4457SOL    HW115210   5.391   3.412   5.650
 4457SOL    HW215211   5.485   3.424   5.533
 4458SOL     OW15212   2.539   3.235   3.648
 4458SOL    HW115213   2.515   3.154   3.693
 4458SOL    HW215214   2.608   3.208   3.586
 4459SOL     OW15215  11.581   3.018   9.435
 4459SOL    HW115216  11.530   2.970   9.499
 4459SOL    HW215217  11.585   2.960   9.359
 4460SOL     OW15218   5.285  13.405   3.290
 4460SOL    HW115219   5.380  13.391   3.287
 4460SOL    HW215220   5.272  13.473   3.355
 4461SOL     OW15221  10.659   3.346   2.017
 4461SOL    HW115222  10.581   3.389   2.052
 4461SOL    HW215223  10.719   3.417   1.997
 4462SOL     OW15224   2.741   9.689   7.238
 4462SOL    HW115225   2.653   9.726   7.231
 4462SOL    HW215226   2.740   9.639   7.319
 4463SOL     OW15227   5.843   9.696   9.177
 4463SOL    HW115228   5.906   9.665   9.112
 4463SOL    HW215229   5.775   9.628   9.180
 4464SOL     OW15230   0.960  13.155   9.402
 4464SOL    HW115231   1.007  13.077   9.374
 4464SOL    HW215232   0.868  13.136   9.385
 4465SOL     OW15233   9.424   2.920  14.168
 4465SOL    HW115234   9.516   2.893  14.178
 4465SOL    HW215235   9.386   2.904  14.254
 4466SOL     OW15236  14.438   0.577   5.271
 4466SOL    HW115237  14.428   0.555   5.364
 4466SOL    HW215238  14.523   0.541   5.247
 4467SOL     OW15239  10.244   7.116   4.607
 4467SOL    HW115240  10.224   7.025   4.629
 4467SOL    HW215241  10.172   7.166   4.645
 4468SOL     OW15242  12.086  10.576  12.196
 4468SOL    HW115243  12.094  10.671  12.207
 4468SOL    HW215244  12.036  10.566  12.115
 4469SOL     OW15245  13.588   8.665   7.325
 4469SOL    HW115246  13.592   8.648   7.231
 4469SOL    HW215247  13.507   8.715   7.336
 4470SOL     OW15248   2.681   4.079  10.381
 4470SOL    HW115249   2.769   4.112  10.363
 4470SOL    HW215250   2.678   3.995  10.335
 4471SOL     OW15251   0.144   0.561   1.532
 4471SOL    HW115252   0.225   0.584   1.485
 4471SOL    HW215253   0.168   0.568   1.624
 4472SOL     OW15254   3.812   5.578   0.727
 4472SOL    HW115255   3.845   5.488   0.722
 4472SOL    HW215256   3.872   5.622   0.787
 4473SOL     OW15257  14.008   8.768   9.536
 4473SOL    HW115258  14.006   8.794   9.444
 4473SOL    HW215259  14.101   8.757   9.555
 4474SOL     OW15260  12.072   4.172   6.338
 4474SOL    HW115261  12.032   4.173   6.251
 4474SOL    HW215262  12.157   4.215   6.327
 4475SOL     OW15263   3.355   1.898   2.093
 4475SOL    HW115264   3.414   1.972   2.110
 4475SOL    HW215265   3.340   1.860   2.179
 4476SOL     OW15266   1.099  12.027  13.112
 4476SOL    HW115267   1.098  12.121  13.127
 4476SOL    HW215268   1.186  11.999  13.142
 4477SOL     OW15269   7.058  14.785   5.990
 4477SOL    HW115270   7.147  14.773   6.022
 4477SOL    HW215271   7.068  14.831   5.907
 4478SOL     OW15272   3.536  13.188   5.120
 4478SOL    HW115273   3.567  13.246   5.189
 4478SOL    HW215274   3.551  13.236   5.039
 4479SOL     OW15275  12.737   5.388  12.944
 4479SOL    HW115276  12.681   5.432  12.881
 4479SOL    HW215277  12.792   5.330  12.892
 4480SOL     OW15278  13.672   6.522   2.010
 4480SOL    HW115279  13.700   6.583   2.078
 4480SOL    HW215280  13.669   6.437   2.054
 4481SOL     OW15281  11.216   2.404   9.270
 4481SOL    HW115282  11.299   2.414   9.318
 4481SOL    HW215283  11.149   2.403   9.338
 4482SOL     OW15284   4.330   2.890  11.645
 4482SOL    HW115285   4.341   2.800  11.676
 4482SOL    HW215286   4.385   2.895  11.567
 4483SOL     OW15287   8.503  13.243  10.678
 4483SOL    HW115288   8.439  13.312  10.661
 4483SOL    HW215289   8.481  13.210  10.765
 4484SOL     OW15290   8.544   1.516   7.430
 4484SOL    HW115291   8.628   1.531   7.388
 4484SOL    HW215292   8.503   1.602   7.434
 4485SOL     OW15293   8.398   1.867   2.696
 4485SOL    HW115294   8.403   1.912   2.612
 4485SOL    HW215295   8.307   1.879   2.724
 4486SOL     OW15296   2.716   4.386   6.736
 4486SOL    HW115297   2.783   4.430   6.683
 4486SOL    HW215298   2.713   4.437   6.818
 4487SOL     OW15299   1.443   9.558   5.707
 4487SOL    HW115300   1.529   9.527   5.677
 4487SOL    HW215301   1.389   9.479   5.710
 4488SOL     OW15302  11.859  14.537  14.525
 4488SOL    HW115303  11.929  14.602  14.520
 4488SOL    HW215304  11.901  14.453  14.508
 4489SOL     OW15305   8.513   7.086   2.867
 4489SOL    HW115306   8.432   7.038   2.851
 4489SOL    HW215307   8.492   7.143   2.941
 4490SOL     OW15308   0.126   7.129  11.502
 4490SOL    HW115309   0.150   7.040  11.525
 4490SOL    HW215310   0.179   7.185  11.559
 4491SOL     OW15311  10.097   9.491  12.312
 4491SOL    HW115312  10.114   9.402  12.283
 4491SOL    HW215313  10.006   9.508  12.285
 4492SOL     OW15314   1.811   7.862   6.172
 4492SOL    HW115315   1.878   7.806   6.211
 4492SOL    HW215316   1.762   7.897   6.246
 4493SOL     OW15317   5.702  12.046   1.496
 4493SOL    HW115318   5.627  12.105   1.504
 4493SOL    HW215319   5.720  12.042   1.402
 4494SOL     OW15320   9.403   2.009   5.465
 4494SOL    HW115321   9.392   2.093   5.511
 4494SOL    HW215322   9.492   1.982   5.485
 4495SOL     OW15323  10.731  13.898  14.212
 4495SOL    HW115324  10.637  13.887  14.196
 4495SOL    HW215325  10.738  13.981  14.259
 4496SOL     OW15326   4.096   2.816  10.652
 4496SOL    HW115327   4.004   2.805  10.678
 4496SOL    HW215328   4.103   2.909  10.630
 4497SOL     OW15329   0.960   1.342   3.459
 4497SOL    HW115330   0.939   1.256   3.494
 4497SOL    HW215331   1.012   1.385   3.527
 4498SOL     OW15332  11.939  10.414   8.351
 4498SOL    HW115333  11.997  10.404   8.276
 4498SOL    HW215334  11.941  10.329   8.395
 4499SOL     OW15335   3.334   9.992   6.626
 4499SOL    HW115336   3.257  10.039   6.594
 4499SOL    HW215337   3.346   9.921   6.563
 4500SOL     OW15338  14.505  11.440   0.711
 4500SOL    HW115339  14.594  11.419   0.738
 4500SOL    HW215340  14.450  11.378   0.759
 4501SOL     OW15341  10.611   2.202   8.933
 4501SOL    HW115342  10.626   2.146   9.009
 4501SOL    HW215343  10.532   2.251   8.955
 4502SOL     OW15344   0.062  11.702  12.406
 4502SOL    HW115345   0.047  11.607  12.399
 4502SOL    HW215346  14.857  11.738  12.427
 4503SOL     OW15347  13.524   6.713   2.682
 4503SOL    HW115348  13.530   6.806   2.701
 4503SOL    HW215349  13.604   6.675   2.720
 4504SOL     OW15350   0.222  14.372   5.491
 4504SOL    HW115351   0.303  14.414   5.459
 4504SOL    HW215352   0.217  14.397   5.583
 4505SOL     OW15353   2.116  14.166   5.828
 4505SOL    HW115354   2.127  14.212   5.745
 4505SOL    HW215355   2.038  14.207   5.867
 4506SOL     OW15356   1.129   6.632  14.496
 4506SOL    HW115357   1.044   6.656  14.532
 4506SOL    HW215358   1.108   6.575  14.421
 4507SOL     OW15359   5.635   5.351   5.653
 4507SOL    HW115360   5.656   5.267   5.611
 4507SOL    HW215361   5.631   5.331   5.746
 4508SOL     OW15362   1.824   8.301  13.667
 4508SOL    HW115363   1.779   8.303  13.752
 4508SOL    HW215364   1.916   8.290  13.689
 4509SOL     OW15365   5.695   9.713  12.742
 4509SOL    HW115366   5.723   9.624  12.719
 4509SOL    HW215367   5.603   9.715  12.715
 4510SOL     OW15368  10.792   1.115   7.424
 4510SOL    HW115369  10.845   1.042   7.393
 4510SOL    HW215370  10.852   1.190   7.423
 4511SOL     OW15371   4.379   2.117   6.878
 4511SOL    HW115372   4.399   2.122   6.971
 4511SOL    HW215373   4.407   2.030   6.852
 4512SOL     OW15374   2.328  11.029   3.940
 4512SOL    HW115375   2.326  10.941   3.903
 4512SOL    HW215376   2.318  11.015   4.034
 4513SOL     OW15377   1.771   5.698   0.452
 4513SOL    HW115378   1.856   5.713   0.411
 4513SOL    HW215379   1.735   5.786   0.464
 4514SOL     OW15380   1.553   8.856   7.704
 4514SOL    HW115381   1.490   8.794   7.667
 4514SOL    HW215382   1.548   8.933   7.647
 4515SOL     OW15383   6.926  12.569   1.245
 4515SOL    HW115384   6.936  12.582   1.150
 4515SOL    HW215385   6.885  12.650   1.276
 4516SOL     OW15386   2.060   3.650   5.909
 4516SOL    HW115387   1.980   3.617   5.868
 4516SOL    HW215388   2.030   3.690   5.991
 4517SOL     OW15389  14.056  12.030   1.199
 4517SOL    HW115390  13.977  12.025   1.253
 4517SOL    HW215391  14.086  11.940   1.192
 4518SOL     OW15392  10.341   8.082   8.293
 4518SOL    HW115393  10.376   8.051   8.377
 4518SOL    HW215394  10.333   8.177   8.305
 4519SOL     OW15395  12.499   1.959   2.900
 4519SOL    HW115396  12.458   1.992   2.980
 4519SOL    HW215397  12.541   2.035   2.861
 4520SOL     OW15398  11.279   8.783   3.770
 4520SOL    HW115399  11.344   8.777   3.700
 4520SOL    HW215400  11.214   8.717   3.748
 4521SOL     OW15401  11.555   5.968  14.388
 4521SOL    HW115402  11.577   5.932  14.302
 4521SOL    HW215403  11.572   6.062  14.380
 4522SOL     OW15404  12.534   7.885   7.579
 4522SOL    HW115405  12.490   7.962   7.615
 4522SOL    HW215406  12.562   7.835   7.656
 4523SOL     OW15407   0.109   4.014   0.674
 4523SOL    HW115408   0.073   4.102   0.687
 4523SOL    HW215409   0.036   3.955   0.693
 4524SOL     OW15410   4.816   2.433   4.893
 4524SOL    HW115411   4.858   2.347   4.902
 4524SOL    HW215412   4.784   2.435   4.803
 4525SOL     OW15413  14.721   2.779  14.851
 4525SOL    HW115414  14.782   2.713   0.002
 4525SOL    HW215415  14.680   2.739  14.775
 4526SOL     OW15416   3.683   6.343   5.869
 4526SOL    HW115417   3.721   6.289   5.800
 4526SOL    HW215418   3.679   6.431   5.831
 4527SOL     OW15419   2.584   1.691   4.123
 4527SOL    HW115420   2.644   1.682   4.196
 4527SOL    HW215421   2.599   1.780   4.090
 4528SOL     OW15422   2.489   7.269   6.547
 4528SOL    HW115423   2.476   7.364   6.538
 4528SOL    HW215424   2.466   7.234   6.461
 4529SOL     OW15425   6.530  10.529   6.956
 4529SOL    HW115426   6.461  10.496   6.899
 4529SOL    HW215427   6.490  10.603   7.002
 4530SOL     OW15428   7.786   8.861   1.942
 4530SOL    HW115429   7.849   8.909   1.888
 4530SOL    HW215430   7.821   8.867   2.031
 4531SOL     OW15431   2.889   1.059   6.525
 4531SOL    HW115432   2.974   1.048   6.481
 4531SOL    HW215433   2.847   1.130   6.478
 4532SOL     OW15434   8.108  12.163  14.797
 4532SOL    HW115435   8.108  12.119  14.712
 4532SOL    HW215436   8.075  12.251  14.779
 4533SOL     OW15437   0.835  13.275   2.482
 4533SOL    HW115438   0.873  13.363   2.476
 4533SOL    HW215439   0.911  13.217   2.492
 4534SOL     OW15440   0.435   7.078   4.211
 4534SOL    HW115441   0.441   7.040   4.123
 4534SOL    HW215442   0.439   7.003   4.270
 4535SOL     OW15443   6.490   3.421  13.341
 4535SOL    HW115444   6.539   3.380  13.413
 4535SOL    HW215445   6.557   3.444  13.277
 4536SOL     OW15446  11.886  11.884   2.770
 4536SOL    HW115447  11.860  11.803   2.814
 4536SOL    HW215448  11.883  11.950   2.838
 4537SOL     OW15449  14.482   2.721   0.996
 4537SOL    HW115450  14.515   2.642   0.953
 4537SOL    HW215451  14.505   2.792   0.937
 4538SOL     OW15452  14.012  13.886  11.518
 4538SOL    HW115453  14.065  13.964  11.529
 4538SOL    HW215454  13.945  13.892  11.587
 4539SOL     OW15455   1.311   7.160   3.839
 4539SOL    HW115456   1.392   7.129   3.798
 4539SOL    HW215457   1.274   7.081   3.879
 4540SOL     OW15458   5.726   9.445  10.342
 4540SOL    HW115459   5.818   9.419  10.351
 4540SOL    HW215460   5.713   9.453  10.248
 4541SOL     OW15461   0.931  13.404  11.494
 4541SOL    HW115462   0.905  13.323  11.449
 4541SOL    HW215463   0.889  13.473  11.443
 4542SOL     OW15464   1.180   0.938   2.690
 4542SOL    HW115465   1.114   0.897   2.746
 4542SOL    HW215466   1.243   0.976   2.751
 4543SOL     OW15467   1.147   8.836   9.070
 4543SOL    HW115468   1.202   8.830   9.147
 4543SOL    HW215469   1.208   8.849   8.997
 4544SOL     OW15470   7.003  14.613   3.527
 4544SOL    HW115471   7.003  14.691   3.472
 4544SOL    HW215472   7.081  14.564   3.500
 4545SOL     OW15473  13.491   1.073   8.793
 4545SOL    HW115474  13.553   1.131   8.749
 4545SOL    HW215475  13.407   1.091   8.750
 4546SOL     OW15476   2.511   0.824   6.556
 4546SOL    HW115477   2.429   0.863   6.589
 4546SOL    HW215478   2.579   0.886   6.583
 4547SOL     OW15479   6.208   9.581   5.600
 4547SOL    HW115480   6.252   9.566   5.683
 4547SOL    HW215481   6.194   9.675   5.596
 4548SOL     OW15482   4.907   9.831  14.572
 4548SOL    HW115483   4.855   9.751  14.561
 4548SOL    HW215484   4.892   9.880  14.491
 4549SOL     OW15485   6.315   6.074  14.631
 4549SOL    HW115486   6.340   6.066  14.723
 4549SOL    HW215487   6.224   6.105  14.634
 4550SOL     OW15488   6.588  10.503  13.679
 4550SOL    HW115489   6.678  10.534  13.670
 4550SOL    HW215490   6.595  10.407  13.673
 4551SOL     OW15491  10.853   9.175   7.455
 4551SOL    HW115492  10.941   9.137   7.455
 4551SOL    HW215493  10.865   9.266   7.428
 4552SOL     OW15494   8.450   1.067   5.863
 4552SOL    HW115495   8.521   1.050   5.802
 4552SOL    HW215496   8.379   1.009   5.834
 4553SOL     OW15497   0.414   9.380   3.905
 4553SOL    HW115498   0.336   9.326   3.907
 4553SOL    HW215499   0.384   9.468   3.928
 4554SOL     OW15500   9.902   5.291   5.047
 4554SOL    HW115501   9.855   5.221   5.092
 4554SOL    HW215502   9.978   5.248   5.008
 4555SOL     OW15503   9.358  10.351  14.202
 4555SOL    HW115504   9.454  10.350  14.208
 4555SOL    HW215505   9.340  10.400  14.122
 4556SOL     OW15506   7.065   8.143  10.862
 4556SOL    HW115507   7.038   8.148  10.771
 4556SOL    HW215508   7.050   8.052  10.887
 4557SOL     OW15509   1.159   9.337  11.975
 4557SOL    HW115510   1.104   9.415  11.984
 4557SOL    HW215511   1.145   9.288  12.056
 4558SOL     OW15512  13.340  14.721  13.974
 4558SOL    HW115513  13.418  14.709  14.027
 4558SOL    HW215514  13.335  14.642  13.920
 4559SOL     OW15515  13.290   7.498   3.458
 4559SOL    HW115516  13.208   7.525   3.498
 4559SOL    HW215517  13.351   7.490   3.531
 4560SOL     OW15518   1.427  13.820   2.928
 4560SOL    HW115519   1.509  13.869   2.932
 4560SOL    HW215520   1.451  13.736   2.888
 4561SOL     OW15521   3.413  12.640   5.775
 4561SOL    HW115522   3.342  12.604   5.828
 4561SOL    HW215523   3.411  12.734   5.793
 4562SOL     OW15524   4.487   6.977   2.652
 4562SOL    HW115525   4.577   6.961   2.679
 4562SOL    HW215526   4.436   6.911   2.700
 4563SOL     OW15527  11.837   8.811   4.781
 4563SOL    HW115528  11.815   8.726   4.819
 4563SOL    HW215529  11.830   8.873   4.853
 4564SOL     OW15530   9.871   4.699  12.348
 4564SOL    HW115531   9.812   4.669  12.279
 4564SOL    HW215532   9.822   4.766  12.394
 4565SOL     OW15533  12.126   7.208  11.981
 4565SOL    HW115534  12.074   7.160  11.917
 4565SOL    HW215535  12.210   7.163  11.985
 4566SOL     OW15536   1.322  11.683   1.397
 4566SOL    HW115537   1.361  11.596   1.392
 4566SOL    HW215538   1.377  11.738   1.342
 4567SOL     OW15539   9.884   6.986  10.907
 4567SOL    HW115540   9.929   6.904  10.883
 4567SOL    HW215541   9.902   6.996  11.000
 4568SOL     OW15542   2.198   7.148   6.361
 4568SOL    HW115543   2.180   7.222   6.419
 4568SOL    HW215544   2.244   7.085   6.416
 4569SOL     OW15545   5.018   2.403   7.732
 4569SOL    HW115546   5.019   2.462   7.656
 4569SOL    HW215547   4.974   2.454   7.800
 4570SOL     OW15548   2.711   5.809   1.270
 4570SOL    HW115549   2.724   5.774   1.358
 4570SOL    HW215550   2.744   5.899   1.276
 4571SOL     OW15551   2.114  11.462   1.727
 4571SOL    HW115552   2.147  11.513   1.801
 4571SOL    HW215553   2.031  11.426   1.758
 4572SOL     OW15554  13.513   8.029   3.196
 4572SOL    HW115555  13.475   7.971   3.131
 4572SOL    HW215556  13.593   8.062   3.156
 4573SOL     OW15557   1.575   3.769   5.277
 4573SOL    HW115558   1.618   3.709   5.338
 4573SOL    HW215559   1.635   3.774   5.202
 4574SOL     OW15560  10.928   7.055   3.738
 4574SOL    HW115561  10.950   7.124   3.801
 4574SOL    HW215562  10.929   7.099   3.653
 4575SOL     OW15563   2.089  13.523  10.214
 4575SOL    HW115564   2.015  13.567  10.254
 4575SOL    HW215565   2.057  13.436  10.191
 4576SOL     OW15566   0.498  12.305  12.670
 4576SOL    HW115567   0.578  12.286  12.719
 4576SOL    HW215568   0.460  12.219  12.652
 4577SOL     OW15569   3.329  10.205  11.500
 4577SOL    HW115570   3.381  10.209  11.580
 4577SOL    HW215571   3.390  10.179  11.432
 4578SOL     OW15572   9.959   5.612   7.736
 4578SOL    HW115573  10.034   5.668   7.755
 4578SOL    HW215574   9.993   5.523   7.744
 4579SOL     OW15575   0.179  10.565   5.925
 4579SOL    HW115576   0.095  10.560   5.880
 4579SOL    HW215577   0.225  10.485   5.900
 4580SOL     OW15578  14.759   2.087   6.583
 4580SOL    HW115579  14.849   2.118   6.592
 4580SOL    HW215580  14.710   2.135   6.650
 4581SOL     OW15581   5.627   5.338  14.796
 4581SOL    HW115582   5.635   5.348   0.009
 4581SOL    HW215583   5.546   5.289  14.784
 4582SOL     OW15584   3.634   7.393   7.194
 4582SOL    HW115585   3.626   7.475   7.145
 4582SOL    HW215586   3.546   7.356   7.193
 4583SOL     OW15587   8.749   9.079   2.437
 4583SOL    HW115588   8.833   9.125   2.431
 4583SOL    HW215589   8.714   9.102   2.523
 4584SOL     OW15590  11.593  10.984   2.577
 4584SOL    HW115591  11.528  11.047   2.545
 4584SOL    HW215592  11.562  10.900   2.544
 4585SOL     OW15593  14.321   4.125   0.374
 4585SOL    HW115594  14.409   4.107   0.343
 4585SOL    HW215595  14.327   4.120   0.469
 4586SOL     OW15596   7.492   6.375  12.359
 4586SOL    HW115597   7.455   6.320  12.290
 4586SOL    HW215598   7.586   6.380  12.339
 4587SOL     OW15599   5.418   3.132   0.786
 4587SOL    HW115600   5.447   3.214   0.746
 4587SOL    HW215601   5.465   3.128   0.870
 4588SOL     OW15602  11.199   2.714   1.842
 4588SOL    HW115603  11.242   2.639   1.883
 4588SOL    HW215604  11.191   2.691   1.750
 4589SOL     OW15605  12.279   4.876  14.833
 4589SOL    HW115606  12.198   4.825  14.823
 4589SOL    HW215607  12.338   4.840  14.767
 4590SOL     OW15608   9.962   1.543   5.917
 4590SOL    HW115609   9.952   1.595   5.837
 4590SOL    HW215610   9.892   1.573   5.974
 4591SOL     OW15611   3.921   1.728   5.981
 4591SOL    HW115612   4.003   1.697   5.941
 4591SOL    HW215613   3.900   1.809   5.935
 4592SOL     OW15614  13.806   7.799   9.679
 4592SOL    HW115615  13.789   7.712   9.716
 4592SOL    HW215616  13.891   7.825   9.715
 4593SOL     OW15617   6.784   8.528  14.124
 4593SOL    HW115618   6.752   8.471  14.193
 4593SOL    HW215619   6.708   8.543  14.067
 4594SOL     OW15620  10.765   6.429   8.471
 4594SOL    HW115621  10.738   6.337   8.471
 4594SOL    HW215622  10.684   6.478   8.487
 4595SOL     OW15623  13.563   3.967   9.163
 4595SOL    HW115624  13.529   3.882   9.189
 4595SOL    HW215625  13.486   4.024   9.161
 4596SOL     OW15626  10.505   3.812   7.127
 4596SOL    HW115627  10.417   3.845   7.111
 4596SOL    HW215628  10.526   3.839   7.216
 4597SOL     OW15629   9.302   5.563   5.147
 4597SOL    HW115630   9.218   5.521   5.166
 4597SOL    HW215631   9.290   5.602   5.061
 4598SOL     OW15632   1.661   2.660  11.599
 4598SOL    HW115633   1.667   2.747  11.638
 4598SOL    HW215634   1.634   2.603  11.671
 4599SOL     OW15635   6.395   1.923   8.956
 4599SOL    HW115636   6.403   1.970   9.039
 4599SOL    HW215637   6.467   1.958   8.903
 4600SOL     OW15638   3.027   0.602   6.661
 4600SOL    HW115639   2.954   0.545   6.685
 4600SOL    HW215640   3.095   0.585   6.726
 4601SOL     OW15641  13.042  11.733   6.929
 4601SOL    HW115642  13.133  11.737   6.958
 4601SOL    HW215643  12.998  11.801   6.978
 4602SOL     OW15644   1.414   1.920   1.280
 4602SOL    HW115645   1.412   1.995   1.338
 4602SOL    HW215646   1.325   1.916   1.243
 4603SOL     OW15647   0.031   9.047  13.116
 4603SOL    HW115648  14.863   9.111  13.066
 4603SOL    HW215649   0.083   9.000  13.050
 4604SOL     OW15650  13.662   4.373   0.628
 4604SOL    HW115651  13.678   4.353   0.536
 4604SOL    HW215652  13.618   4.295   0.662
 4605SOL     OW15653  10.172  13.868   3.440
 4605SOL    HW115654  10.263  13.854   3.415
 4605SOL    HW215655  10.125  13.873   3.357
 4606SOL     OW15656   9.468   8.676  14.620
 4606SOL    HW115657   9.512   8.638  14.544
 4606SOL    HW215658   9.436   8.761  14.589
 4607SOL     OW15659  10.820   4.647  11.682
 4607SOL    HW115660  10.739   4.649  11.631
 4607SOL    HW215661  10.807   4.577  11.745
 4608SOL     OW15662   0.141  14.757  10.362
 4608SOL    HW115663   0.133  14.674  10.409
 4608SOL    HW215664   0.218  14.746  10.306
 4609SOL     OW15665   8.030   7.826  13.158
 4609SOL    HW115666   8.066   7.847  13.072
 4609SOL    HW215667   7.935   7.825  13.145
 4610SOL     OW15668  13.208   4.844  12.578
 4610SOL    HW115669  13.279   4.877  12.523
 4610SOL    HW215670  13.147   4.918  12.586
 4611SOL     OW15671   9.150   1.153   2.687
 4611SOL    HW115672   9.230   1.201   2.664
 4611SOL    HW215673   9.085   1.183   2.624
 4612SOL     OW15674   8.649   4.904  14.360
 4612SOL    HW115675   8.694   4.829  14.400
 4612SOL    HW215676   8.711   4.938  14.295
 4613SOL     OW15677   5.876  12.489  12.409
 4613SOL    HW115678   5.900  12.404  12.372
 4613SOL    HW215679   5.942  12.550  12.376
 4614SOL     OW15680   7.659  12.217  11.285
 4614SOL    HW115681   7.620  12.233  11.371
 4614SOL    HW215682   7.728  12.152  11.301
 4615SOL     OW15683   3.607  13.776  12.490
 4615SOL    HW115684   3.557  13.852  12.519
 4615SOL    HW215685   3.630  13.796  12.399
 4616SOL     OW15686  13.697   4.721   6.393
 4616SOL    HW115687  13.658   4.806   6.373
 4616SOL    HW215688  13.724   4.727   6.484
 4617SOL     OW15689   5.344  13.384  12.947
 4617SOL    HW115690   5.269  13.434  12.980
 4617SOL    HW215691   5.394  13.447  12.895
 4618SOL     OW15692   9.700   4.523   2.611
 4618SOL    HW115693   9.786   4.550   2.578
 4618SOL    HW215694   9.696   4.558   2.700
 4619SOL     OW15695   5.530   3.636  14.701
 4619SOL    HW115696   5.473   3.608  14.629
 4619SOL    HW215697   5.618   3.629  14.664
 4620SOL     OW15698  13.466   5.114  14.067
 4620SOL    HW115699  13.496   5.135  14.156
 4620SOL    HW215700  13.379   5.076  14.080
 4621SOL     OW15701   4.040  13.781  11.991
 4621SOL    HW115702   4.079  13.762  11.905
 4621SOL    HW215703   4.044  13.876  11.999
 4622SOL     OW15704  13.639  10.395  11.779
 4622SOL    HW115705  13.615  10.303  11.768
 4622SOL    HW215706  13.586  10.441  11.714
 4623SOL     OW15707  13.382   8.132  10.875
 4623SOL    HW115708  13.465   8.161  10.916
 4623SOL    HW215709  13.334   8.090  10.947
 4624SOL     OW15710   2.632   9.709  10.502
 4624SOL    HW115711   2.660   9.714  10.411
 4624SOL    HW215712   2.711   9.686  10.550
 4625SOL     OW15713   3.438   5.025   5.335
 4625SOL    HW115714   3.394   5.008   5.418
 4625SOL    HW215715   3.394   5.102   5.300
 4626SOL     OW15716   5.223   5.214   5.208
 4626SOL    HW115717   5.178   5.284   5.159
 4626SOL    HW215718   5.152   5.166   5.251
 4627SOL     OW15719  11.511   5.809  11.585
 4627SOL    HW115720  11.575   5.775  11.648
 4627SOL    HW215721  11.428   5.810  11.633
 4628SOL     OW15722  10.114   3.194   3.086
 4628SOL    HW115723  10.038   3.153   3.044
 4628SOL    HW215724  10.186   3.133   3.070
 4629SOL     OW15725   5.642  12.554   4.783
 4629SOL    HW115726   5.644  12.491   4.855
 4629SOL    HW215727   5.677  12.505   4.708
 4630SOL     OW15728   6.902   8.494   9.211
 4630SOL    HW115729   6.813   8.459   9.216
 4630SOL    HW215730   6.890   8.588   9.197
 4631SOL     OW15731  12.016   1.970   5.002
 4631SOL    HW115732  11.944   1.912   4.977
 4631SOL    HW215733  12.001   1.987   5.095
 4632SOL     OW15734  11.906  14.476   2.448
 4632SOL    HW115735  11.932  14.568   2.447
 4632SOL    HW215736  11.823  14.475   2.494
 4633SOL     OW15737   6.467   5.832  13.633
 4633SOL    HW115738   6.498   5.893  13.566
 4633SOL    HW215739   6.528   5.759  13.630
 4634SOL     OW15740   2.123   1.046   1.531
 4634SOL    HW115741   2.034   1.074   1.507
 4634SOL    HW215742   2.180   1.090   1.468
 4635SOL     OW15743   3.067   2.440   1.371
 4635SOL    HW115744   3.008   2.403   1.304
 4635SOL    HW215745   3.058   2.534   1.361
 4636SOL     OW15746   4.741  13.063   5.468
 4636SOL    HW115747   4.697  13.012   5.536
 4636SOL    HW215748   4.798  12.999   5.424
 4637SOL     OW15749   0.412   3.039   0.867
 4637SOL    HW115750   0.397   3.088   0.786
 4637SOL    HW215751   0.344   2.971   0.867
 4638SOL     OW15752   4.756  10.549   2.255
 4638SOL    HW115753   4.777  10.464   2.294
 4638SOL    HW215754   4.835  10.574   2.208
 4639SOL     OW15755   0.023   4.633  12.298
 4639SOL    HW115756  14.822   4.625  12.252
 4639SOL    HW215757   0.078   4.564  12.261
 4640SOL     OW15758   4.134  13.841   5.036
 4640SOL    HW115759   4.075  13.767   5.047
 4640SOL    HW215760   4.082  13.917   5.061
 4641SOL     OW15761  14.403  10.144   9.371
 4641SOL    HW115762  14.419  10.153   9.277
 4641SOL    HW215763  14.358  10.225   9.396
 4642SOL     OW15764  14.436   7.442   7.209
 4642SOL    HW115765  14.479   7.359   7.189
 4642SOL    HW215766  14.356   7.418   7.255
 4643SOL     OW15767  10.604  10.357   6.312
 4643SOL    HW115768  10.552  10.325   6.385
 4643SOL    HW215769  10.546  10.348   6.236
 4644SOL     OW15770  13.781   6.256   9.377
 4644SOL    HW115771  13.753   6.164   9.385
 4644SOL    HW215772  13.738   6.286   9.296
 4645SOL     OW15773   5.582  14.310  12.827
 4645SOL    HW115774   5.661  14.299  12.774
 4645SOL    HW215775   5.615  14.328  12.915
 4646SOL     OW15776  10.028  12.977   1.626
 4646SOL    HW115777   9.956  12.980   1.562
 4646SOL    HW215778  10.050  12.884   1.633
 4647SOL     OW15779   0.457   7.190  12.035
 4647SOL    HW115780   0.396   7.140  12.089
 4647SOL    HW215781   0.543   7.152  12.056
 4648SOL     OW15782  10.857  14.004   9.603
 4648SOL    HW115783  10.890  13.917   9.624
 4648SOL    HW215784  10.868  14.054   9.685
 4649SOL     OW15785  11.317   0.354   2.923
 4649SOL    HW115786  11.259   0.279   2.917
 4649SOL    HW215787  11.328   0.383   2.833
 4650SOL     OW15788  12.887   4.612   5.476
 4650SOL    HW115789  12.833   4.599   5.553
 4650SOL    HW215790  12.914   4.704   5.481
 4651SOL     OW15791   1.349  13.946   5.880
 4651SOL    HW115792   1.404  14.019   5.852
 4651SOL    HW215793   1.260  13.981   5.878
 4652SOL     OW15794  14.156   8.592   0.440
 4652SOL    HW115795  14.219   8.631   0.380
 4652SOL    HW215796  14.206   8.576   0.520
 4653SOL     OW15797   7.028  14.002   2.725
 4653SOL    HW115798   6.966  13.930   2.738
 4653SOL    HW215799   6.981  14.064   2.670
 4654SOL     OW15800  13.076   1.425   2.078
 4654SOL    HW115801  13.076   1.438   2.173
 4654SOL    HW215802  13.167   1.408   2.056
 4655SOL     OW15803   7.830  12.977  14.453
 4655SOL    HW115804   7.802  12.903  14.399
 4655SOL    HW215805   7.919  12.956  14.480
 4656SOL     OW15806  13.496   2.816   6.577
 4656SOL    HW115807  13.468   2.775   6.659
 4656SOL    HW215808  13.415   2.843   6.533
 4657SOL     OW15809   8.726   4.762  10.618
 4657SOL    HW115810   8.806   4.767  10.565
 4657SOL    HW215811   8.731   4.676  10.660
 4658SOL     OW15812  11.549  12.942   1.141
 4658SOL    HW115813  11.578  12.955   1.232
 4658SOL    HW215814  11.567  13.025   1.098
 4659SOL     OW15815  12.498   2.379   1.661
 4659SOL    HW115816  12.458   2.394   1.746
 4659SOL    HW215817  12.426   2.387   1.598
 4660SOL     OW15818   0.544   5.260   0.897
 4660SOL    HW115819   0.471   5.309   0.859
 4660SOL    HW215820   0.570   5.198   0.829
 4661SOL     OW15821   9.990   1.645   5.355
 4661SOL    HW115822  10.080   1.656   5.384
 4661SOL    HW215823   9.937   1.671   5.431
 4662SOL     OW15824   4.918   6.385  10.016
 4662SOL    HW115825   4.849   6.375  10.082
 4662SOL    HW215826   4.969   6.460  10.046
 4663SOL     OW15827   7.060   1.972   7.923
 4663SOL    HW115828   7.105   1.888   7.913
 4663SOL    HW215829   6.967   1.949   7.918
 4664SOL     OW15830  14.329   2.571   5.436
 4664SOL    HW115831  14.295   2.660   5.442
 4664SOL    HW215832  14.424   2.581   5.443
 4665SOL     OW15833   6.474   6.064  10.736
 4665SOL    HW115834   6.403   6.094  10.678
 4665SOL    HW215835   6.536   6.136  10.738
 4666SOL     OW15836  12.975   7.735   7.294
 4666SOL    HW115837  12.881   7.726   7.279
 4666SOL    HW215838  13.014   7.664   7.244
 4667SOL     OW15839   9.656   7.496   4.919
 4667SOL    HW115840   9.712   7.546   4.860
 4667SOL    HW215841   9.574   7.486   4.870
 4668SOL     OW15842   0.402  10.261   7.146
 4668SOL    HW115843   0.392  10.184   7.089
 4668SOL    HW215844   0.473  10.237   7.205
 4669SOL     OW15845  10.230   7.371   0.016
 4669SOL    HW115846  10.313   7.418   0.025
 4669SOL    HW215847  10.227   7.343  14.807
 4670SOL     OW15848  10.125   1.053   9.085
 4670SOL    HW115849  10.064   1.116   9.046
 4670SOL    HW215850  10.074   0.973   9.094
 4671SOL     OW15851  13.289   0.274   6.541
 4671SOL    HW115852  13.199   0.301   6.519
 4671SOL    HW215853  13.339   0.356   6.539
 4672SOL     OW15854   0.506  13.013  13.480
 4672SOL    HW115855   0.438  13.078  13.496
 4672SOL    HW215856   0.483  12.939  13.537
 4673SOL     OW15857   8.862   3.127   9.090
 4673SOL    HW115858   8.793   3.138   9.155
 4673SOL    HW215859   8.878   3.216   9.058
 4674SOL     OW15860   8.216   3.570  12.353
 4674SOL    HW115861   8.286   3.532  12.405
 4674SOL    HW215862   8.140   3.515  12.371
 4675SOL     OW15863   6.643   5.321   5.051
 4675SOL    HW115864   6.667   5.242   5.001
 4675SOL    HW215865   6.560   5.350   5.011
 4676SOL     OW15866  14.147   7.949   5.784
 4676SOL    HW115867  14.069   7.901   5.813
 4676SOL    HW215868  14.116   8.002   5.710
 4677SOL     OW15869  12.455   3.865   5.923
 4677SOL    HW115870  12.392   3.827   5.985
 4677SOL    HW215871  12.400   3.905   5.855
 4678SOL     OW15872   7.223   8.804   7.997
 4678SOL    HW115873   7.313   8.822   8.024
 4678SOL    HW215874   7.194   8.733   8.055
 4679SOL     OW15875  12.788   3.692   7.146
 4679SOL    HW115876  12.791   3.781   7.181
 4679SOL    HW215877  12.695   3.672   7.138
 4680SOL     OW15878   6.151   5.314  11.987
 4680SOL    HW115879   6.106   5.230  11.983
 4680SOL    HW215880   6.223   5.300  12.049
 4681SOL     OW15881   0.362  10.621   4.609
 4681SOL    HW115882   0.325  10.556   4.549
 4681SOL    HW215883   0.359  10.703   4.561
 4682SOL     OW15884   5.795   1.979   4.091
 4682SOL    HW115885   5.801   2.002   4.184
 4682SOL    HW215886   5.883   1.995   4.057
 4683SOL     OW15887   7.107  13.593   5.496
 4683SOL    HW115888   7.039  13.642   5.541
 4683SOL    HW215889   7.062  13.546   5.426
 4684SOL     OW15890   2.062  11.665   7.098
 4684SOL    HW115891   2.007  11.699   7.027
 4684SOL    HW215892   2.149  11.654   7.058
 4685SOL     OW15893   6.561   0.172   7.115
 4685SOL    HW115894   6.474   0.143   7.145
 4685SOL    HW215895   6.622   0.114   7.161
 4686SOL     OW15896   7.926   1.726   3.787
 4686SOL    HW115897   7.938   1.764   3.874
 4686SOL    HW215898   7.839   1.754   3.759
 4687SOL     OW15899   5.316  14.489   6.410
 4687SOL    HW115900   5.246  14.523   6.354
 4687SOL    HW215901   5.363  14.566   6.441
 4688SOL     OW15902   4.917   4.016  12.604
 4688SOL    HW115903   4.997   4.052  12.640
 4688SOL    HW215904   4.918   3.924  12.630
 4689SOL     OW15905  12.791  14.850  10.380
 4689SOL    HW115906  12.833  14.778  10.426
 4689SOL    HW215907  12.775  14.817  10.292
 4690SOL     OW15908   1.974   4.699   5.813
 4690SOL    HW115909   2.051   4.740   5.851
 4690SOL    HW215910   2.007   4.618   5.773
 4691SOL     OW15911  10.999  11.636   8.359
 4691SOL    HW115912  11.013  11.555   8.408
 4691SOL    HW215913  10.955  11.609   8.278
 4692SOL     OW15914   4.485   1.495   1.849
 4692SOL    HW115915   4.505   1.403   1.864
 4692SOL    HW215916   4.566   1.541   1.871
 4693SOL     OW15917  10.111   9.735   5.466
 4693SOL    HW115918  10.167   9.789   5.521
 4693SOL    HW215919  10.042   9.703   5.525
 4694SOL     OW15920   3.606   9.163   6.610
 4694SOL    HW115921   3.636   9.161   6.519
 4694SOL    HW215922   3.586   9.072   6.630
 4695SOL     OW15923   2.107   4.476  13.734
 4695SOL    HW115924   2.200   4.462  13.715
 4695SOL    HW215925   2.061   4.413  13.678
 4696SOL     OW15926   7.649   6.225  14.558
 4696SOL    HW115927   7.630   6.144  14.512
 4696SOL    HW215928   7.564   6.270  14.564
 4697SOL     OW15929   5.595   2.585   6.407
 4697SOL    HW115930   5.559   2.663   6.450
 4697SOL    HW215931   5.538   2.513   6.435
 4698SOL     OW15932   7.203   4.626   9.309
 4698SOL    HW115933   7.260   4.553   9.283
 4698SOL    HW215934   7.160   4.595   9.389
 4699SOL     OW15935   6.728   4.845   4.143
 4699SOL    HW115936   6.711   4.928   4.100
 4699SOL    HW215937   6.820   4.850   4.170
 4700SOL     OW15938   0.310   4.980   9.330
 4700SOL    HW115939   0.315   4.895   9.287
 4700SOL    HW215940   0.381   4.979   9.394
 4701SOL     OW15941   0.275   6.743   7.498
 4701SOL    HW115942   0.315   6.808   7.440
 4701SOL    HW215943   0.347   6.684   7.522
 4702SOL     OW15944   6.085  11.158  13.801
 4702SOL    HW115945   6.039  11.074  13.799
 4702SOL    HW215946   6.099  11.180  13.708
 4703SOL     OW15947  11.260  12.934   0.056
 4703SOL    HW115948  11.284  13.023   0.084
 4703SOL    HW215949  11.313  12.918  14.860
 4704SOL     OW15950  13.659   9.194  10.054
 4704SOL    HW115951  13.583   9.223  10.105
 4704SOL    HW215952  13.716   9.271  10.051
 4705SOL     OW15953   1.372   1.723   0.608
 4705SOL    HW115954   1.423   1.763   0.537
 4705SOL    HW215955   1.363   1.792   0.673
 4706SOL     OW15956  13.165   2.670  13.859
 4706SOL    HW115957  13.156   2.575  13.846
 4706SOL    HW215958  13.180   2.679  13.953
 4707SOL     OW15959   6.514   0.696  12.029
 4707SOL    HW115960   6.447   0.667  12.090
 4707SOL    HW215961   6.580   0.739  12.083
 4708SOL     OW15962  14.379   6.446   1.930
 4708SOL    HW115963  14.399   6.530   1.887
 4708SOL    HW215964  14.411   6.380   1.868
 4709SOL     OW15965  13.935   6.559   1.857
 4709SOL    HW115966  13.861   6.557   1.917
 4709SOL    HW215967  13.912   6.497   1.787
 4710SOL     OW15968  13.967  11.437   1.544
 4710SOL    HW115969  13.933  11.500   1.608
 4710SOL    HW215970  14.020  11.490   1.484
 4711SOL     OW15971   0.585  12.085   4.969
 4711SOL    HW115972   0.596  12.176   4.943
 4711SOL    HW215973   0.643  12.036   4.910
 4712SOL     OW15974   2.826  12.150  11.089
 4712SOL    HW115975   2.802  12.229  11.041
 4712SOL    HW215976   2.878  12.180  11.163
 4713SOL     OW15977   1.687  11.027   9.348
 4713SOL    HW115978   1.720  11.019   9.437
 4713SOL    HW215979   1.741  10.967   9.297
 4714SOL     OW15980   6.122   5.717   6.115
 4714SOL    HW115981   6.103   5.742   6.206
 4714SOL    HW215982   6.217   5.722   6.108
 4715SOL     OW15983   8.410   1.208  13.864
 4715SOL    HW115984   8.366   1.125  13.845
 4715SOL    HW215985   8.502   1.184  13.873
 4716SOL     OW15986  13.553  13.828   1.155
 4716SOL    HW115987  13.503  13.882   1.094
 4716SOL    HW215988  13.616  13.781   1.100
 4717SOL     OW15989   5.954  11.482   0.023
 4717SOL    HW115990   5.992  11.398   0.048
 4717SOL    HW215991   6.007  11.512  14.832
 4718SOL     OW15992   5.179  10.334   2.486
 4718SOL    HW115993   5.187  10.248   2.526
 4718SOL    HW215994   5.085  10.355   2.493
 4719SOL     OW15995  12.574   1.815   3.278
 4719SOL    HW115996  12.625   1.896   3.270
 4719SOL    HW215997  12.607   1.773   3.357
 4720SOL     OW15998   1.304   8.702   4.574
 4720SOL    HW115999   1.322   8.611   4.598
 4720SOL    HW216000   1.216   8.718   4.608
 4721SOL     OW16001   1.974   6.782   1.438
 4721SOL    HW116002   1.957   6.703   1.489
 4721SOL    HW216003   1.958   6.854   1.498
 4722SOL     OW16004   7.151   5.963   8.867
 4722SOL    HW116005   7.189   5.876   8.860
 4722SOL    HW216006   7.072   5.950   8.920
 4723SOL     OW16007  10.246   9.349  11.196
 4723SOL    HW116008  10.305   9.401  11.141
 4723SOL    HW216009  10.159   9.362  11.156
 4724SOL     OW16010  11.719   1.401  11.266
 4724SOL    HW116011  11.700   1.376  11.357
 4724SOL    HW216012  11.667   1.340  11.214
 4725SOL     OW16013   1.296  13.857  14.729
 4725SOL    HW116014   1.258  13.863  14.817
 4725SOL    HW216015   1.364  13.924  14.727
 4726SOL     OW16016   8.604  11.507   0.620
 4726SOL    HW116017   8.551  11.542   0.691
 4726SOL    HW216018   8.570  11.419   0.605
 4727SOL     OW16019   4.994   8.959  14.347
 4727SOL    HW116020   4.969   8.928  14.260
 4727SOL    HW216021   5.034   8.883  14.389
 4728SOL     OW16022  11.286  14.767   9.462
 4728SOL    HW116023  11.317  14.840   9.516
 4728SOL    HW216024  11.360  14.746   9.406
 4729SOL     OW16025   0.988   5.975   8.914
 4729SOL    HW116026   1.067   5.951   8.867
 4729SOL    HW216027   0.923   5.909   8.888
 4730SOL     OW16028   7.656   5.066   0.787
 4730SOL    HW116029   7.726   5.031   0.731
 4730SOL    HW216030   7.674   5.160   0.791
 4731SOL     OW16031   0.468  11.586   1.744
 4731SOL    HW116032   0.555  11.569   1.708
 4731SOL    HW216033   0.442  11.670   1.707
 4732SOL     OW16034   0.067   3.548   1.611
 4732SOL    HW116035   0.129   3.554   1.683
 4732SOL    HW216036  14.879   3.492   1.644
 4733SOL     OW16037   8.620   5.127   6.641
 4733SOL    HW116038   8.693   5.075   6.610
 4733SOL    HW216039   8.571   5.150   6.562
 4734SOL     OW16040   6.364   2.860  10.169
 4734SOL    HW116041   6.278   2.889  10.138
 4734SOL    HW216042   6.405   2.938  10.205
 4735SOL     OW16043   3.236   3.947  13.223
 4735SOL    HW116044   3.202   3.950  13.133
 4735SOL    HW216045   3.171   3.894  13.271
 4736SOL     OW16046   9.854   4.677  12.969
 4736SOL    HW116047   9.839   4.766  13.003
 4736SOL    HW216048   9.946   4.676  12.945
 4737SOL     OW16049   5.830  14.271   7.217
 4737SOL    HW116050   5.869  14.353   7.185
 4737SOL    HW216051   5.749  14.262   7.167
 4738SOL     OW16052   4.585  12.501   7.997
 4738SOL    HW116053   4.586  12.431   7.932
 4738SOL    HW216054   4.634  12.466   8.071
 4739SOL     OW16055   1.412  13.994  11.311
 4739SOL    HW116056   1.418  13.914  11.259
 4739SOL    HW216057   1.365  14.055  11.254
 4740SOL     OW16058  13.573   6.756   1.515
 4740SOL    HW116059  13.563   6.725   1.605
 4740SOL    HW216060  13.494   6.808   1.499
 4741SOL     OW16061  11.158   5.185  11.700
 4741SOL    HW116062  11.139   5.279  11.704
 4741SOL    HW216063  11.203   5.173  11.617
 4742SOL     OW16064   5.759   4.217   2.454
 4742SOL    HW116065   5.697   4.161   2.502
 4742SOL    HW216066   5.770   4.174   2.369
 4743SOL     OW16067   8.547  12.654   8.086
 4743SOL    HW116068   8.473  12.704   8.054
 4743SOL    HW216069   8.604  12.719   8.127
 4744SOL     OW16070  13.121  10.777   1.207
 4744SOL    HW116071  13.112  10.731   1.290
 4744SOL    HW216072  13.117  10.707   1.141
 4745SOL     OW16073   7.398  10.041   6.497
 4745SOL    HW116074   7.368   9.996   6.576
 4745SOL    HW216075   7.455   9.978   6.453
 4746SOL     OW16076   1.054  12.976   3.849
 4746SOL    HW116077   1.042  13.027   3.769
 4746SOL    HW216078   1.063  12.886   3.818
 4747SOL     OW16079   6.957   2.995   0.746
 4747SOL    HW116080   6.987   3.070   0.796
 4747SOL    HW216081   7.037   2.947   0.724
 4748SOL     OW16082   9.311  14.586   6.938
 4748SOL    HW116083   9.366  14.557   7.012
 4748SOL    HW216084   9.254  14.652   6.976
 4749SOL     OW16085   8.281   5.865   3.064
 4749SOL    HW116086   8.353   5.919   3.098
 4749SOL    HW216087   8.266   5.800   3.132
 4750SOL     OW16088   8.600   6.622   8.275
 4750SOL    HW116089   8.634   6.548   8.325
 4750SOL    HW216090   8.517   6.592   8.240
 4751SOL     OW16091   5.670  13.013  12.561
 4751SOL    HW116092   5.764  12.994  12.564
 4751SOL    HW216093   5.666  13.109  12.553
 4752SOL     OW16094   8.104   2.658  11.330
 4752SOL    HW116095   8.131   2.571  11.357
 4752SOL    HW216096   8.182   2.697  11.292
 4753SOL     OW16097  12.017   8.389   4.857
 4753SOL    HW116098  12.076   8.385   4.782
 4753SOL    HW216099  12.013   8.299   4.889
 4754SOL     OW16100   4.788   3.428  10.583
 4754SOL    HW116101   4.865   3.483  10.569
 4754SOL    HW216102   4.724   3.460  10.521
 4755SOL     OW16103   4.347   9.215  12.665
 4755SOL    HW116104   4.343   9.286  12.730
 4755SOL    HW216105   4.266   9.223  12.615
 4756SOL     OW16106   4.770   8.227  12.703
 4756SOL    HW116107   4.742   8.315  12.681
 4756SOL    HW216108   4.858   8.237  12.740
 4757SOL     OW16109   0.888   3.954   6.659
 4757SOL    HW116110   0.899   3.871   6.705
 4757SOL    HW216111   0.798   3.981   6.681
 4758SOL     OW16112  14.531  12.262   4.957
 4758SOL    HW116113  14.583  12.297   4.885
 4758SOL    HW216114  14.513  12.338   5.013
 4759SOL     OW16115  14.780   7.005  10.376
 4759SOL    HW116116  14.806   6.913  10.371
 4759SOL    HW216117  14.856   7.053  10.342
 4760SOL     OW16118  10.629  11.385   2.150
 4760SOL    HW116119  10.635  11.298   2.190
 4760SOL    HW216120  10.689  11.439   2.201
 4761SOL     OW16121   0.431  11.526   9.699
 4761SOL    HW116122   0.426  11.471   9.620
 4761SOL    HW216123   0.485  11.600   9.672
 4762SOL     OW16124   6.771   5.582   8.450
 4762SOL    HW116125   6.698   5.638   8.476
 4762SOL    HW216126   6.845   5.614   8.501
 4763SOL     OW16127   3.572   3.596  13.332
 4763SOL    HW116128   3.555   3.502  13.328
 4763SOL    HW216129   3.515   3.633  13.265
 4764SOL     OW16130  14.302   2.061  13.766
 4764SOL    HW116131  14.214   2.097  13.776
 4764SOL    HW216132  14.361   2.131  13.793
 4765SOL     OW16133  13.136   5.892   7.231
 4765SOL    HW116134  13.043   5.908   7.216
 4765SOL    HW216135  13.162   5.831   7.162
 4766SOL     OW16136   4.639  12.726  11.719
 4766SOL    HW116137   4.711  12.670  11.748
 4766SOL    HW216138   4.569  12.709  11.782
 4767SOL     OW16139   8.794  14.812  12.597
 4767SOL    HW116140   8.807  14.762  12.677
 4767SOL    HW216141   8.874  14.863  12.586
 4768SOL     OW16142  10.775   9.198   0.318
 4768SOL    HW116143  10.830   9.273   0.296
 4768SOL    HW216144  10.831   9.122   0.303
 4769SOL     OW16145   4.805  14.804  12.808
 4769SOL    HW116146   4.726  14.752  12.826
 4769SOL    HW216147   4.851  14.808  12.892
 4770SOL     OW16148   3.260   8.718  11.989
 4770SOL    HW116149   3.283   8.793  11.935
 4770SOL    HW216150   3.278   8.642  11.933
 4771SOL     OW16151   8.089   2.894   0.486
 4771SOL    HW116152   8.004   2.850   0.493
 4771SOL    HW216153   8.067   2.986   0.471
 4772SOL     OW16154   5.093   4.094  14.242
 4772SOL    HW116155   5.052   4.174  14.276
 4772SOL    HW216156   5.035   4.065  14.172
 4773SOL     OW16157   0.604   5.407   9.854
 4773SOL    HW116158   0.515   5.405   9.890
 4773SOL    HW216159   0.595   5.445   9.767
 4774SOL     OW16160   1.797   5.507   7.440
 4774SOL    HW116161   1.892   5.519   7.444
 4774SOL    HW216162   1.784   5.412   7.441
 4775SOL     OW16163   7.087  11.795   0.171
 4775SOL    HW116164   7.031  11.868   0.145
 4775SOL    HW216165   7.027  11.727   0.200
 4776SOL     OW16166   2.975   6.646   9.045
 4776SOL    HW116167   3.021   6.721   9.008
 4776SOL    HW216168   3.024   6.570   9.014
 4777SOL     OW16169   0.079  12.607  14.859
 4777SOL    HW116170   0.151  12.661   0.009
 4777SOL    HW216171   0.040  12.659  14.789
 4778SOL     OW16172   3.971   2.190   0.450
 4778SOL    HW116173   3.876   2.203   0.457
 4778SOL    HW216174   3.980   2.098   0.423
 4779SOL     OW16175  11.800   3.388   8.293
 4779SOL    HW116176  11.723   3.438   8.321
 4779SOL    HW216177  11.813   3.413   8.202
 4780SOL     OW16178   5.182   0.426   5.718
 4780SOL    HW116179   5.166   0.386   5.804
 4780SOL    HW216180   5.275   0.447   5.718
 4781SOL     OW16181  10.326  10.845  12.734
 4781SOL    HW116182  10.387  10.879  12.668
 4781SOL    HW216183  10.277  10.776  12.688
 4782SOL     OW16184  13.732  12.327   3.941
 4782SOL    HW116185  13.699  12.305   4.028
 4782SOL    HW216186  13.816  12.280   3.935
 4783SOL     OW16187   1.099  14.192   1.013
 4783SOL    HW116188   1.158  14.199   1.088
 4783SOL    HW216189   1.044  14.116   1.032
 4784SOL     OW16190   7.416   1.547   6.299
 4784SOL    HW116191   7.478   1.477   6.322
 4784SOL    HW216192   7.436   1.567   6.207
 4785SOL     OW16193   8.640  10.103   3.707
 4785SOL    HW116194   8.706  10.091   3.775
 4785SOL    HW216195   8.665  10.041   3.638
 4786SOL     OW16196  14.460   7.955  13.402
 4786SOL    HW116197  14.404   7.878  13.393
 4786SOL    HW216198  14.401   8.029  13.386
 4787SOL     OW16199  11.926   2.629   7.464
 4787SOL    HW116200  11.946   2.555   7.521
 4787SOL    HW216201  11.974   2.703   7.502
 4788SOL     OW16202  13.409   4.997   2.965
 4788SOL    HW116203  13.460   4.962   3.038
 4788SOL    HW216204  13.319   4.971   2.984
 4789SOL     OW16205  13.491   0.691   6.215
 4789SOL    HW116206  13.465   0.771   6.261
 4789SOL    HW216207  13.584   0.681   6.234
 4790SOL     OW16208   1.129   4.943  14.191
 4790SOL    HW116209   1.098   4.920  14.103
 4790SOL    HW216210   1.156   4.860  14.229
 4791SOL     OW16211   9.745   4.776  11.787
 4791SOL    HW116212   9.788   4.709  11.733
 4791SOL    HW216213   9.803   4.788  11.861
 4792SOL     OW16214   3.776   9.578   8.916
 4792SOL    HW116215   3.857   9.611   8.956
 4792SOL    HW216216   3.767   9.489   8.950
 4793SOL     OW16217  13.737  10.364  13.544
 4793SOL    HW116218  13.752  10.456  13.567
 4793SOL    HW216219  13.819  10.321  13.568
 4794SOL     OW16220   3.610   6.946  12.581
 4794SOL    HW116221   3.538   6.884  12.571
 4794SOL    HW216222   3.659   6.940  12.499
 4795SOL     OW16223  10.338   5.627   0.218
 4795SOL    HW116224  10.265   5.615   0.278
 4795SOL    HW216225  10.314   5.705   0.167
 4796SOL     OW16226  12.556   4.944   7.410
 4796SOL    HW116227  12.499   5.003   7.458
 4796SOL    HW216228  12.571   4.871   7.470
 4797SOL     OW16229   8.051  13.042  12.923
 4797SOL    HW116230   8.005  13.072  13.001
 4797SOL    HW216231   8.120  13.107  12.909
 4798SOL     OW16232  10.373   4.990  12.054
 4798SOL    HW116233  10.465   5.006  12.034
 4798SOL    HW216234  10.375   4.942  12.137
 4799SOL     OW16235   8.230  13.514   2.324
 4799SOL    HW116236   8.227  13.425   2.288
 4799SOL    HW216237   8.194  13.569   2.254
 4800SOL     OW16238   6.233   9.651   2.158
 4800SOL    HW116239   6.238   9.681   2.248
 4800SOL    HW216240   6.215   9.557   2.165
 4801SOL     OW16241   8.116   3.463  10.866
 4801SOL    HW116242   8.121   3.493  10.775
 4801SOL    HW216243   8.023   3.467  10.887
 4802SOL     OW16244   6.170  11.475   7.224
 4802SOL    HW116245   6.116  11.543   7.183
 4802SOL    HW216246   6.108  11.405   7.246
 4803SOL     OW16247   9.517   1.570   9.316
 4803SOL    HW116248   9.428   1.599   9.338
 4803SOL    HW216249   9.566   1.651   9.303
 4804SOL     OW16250  14.010  14.500   5.916
 4804SOL    HW116251  14.023  14.516   5.823
 4804SOL    HW216252  14.084  14.546   5.959
 4805SOL     OW16253  13.369   8.987   9.927
 4805SOL    HW116254  13.353   9.079   9.907
 4805SOL    HW216255  13.463   8.975   9.915
 4806SOL     OW16256   6.126   6.134   0.228
 4806SOL    HW116257   6.199   6.191   0.202
 4806SOL    HW216258   6.116   6.150   0.322
 4807SOL     OW16259   7.743   2.279   1.859
 4807SOL    HW116260   7.803   2.334   1.808
 4807SOL    HW216261   7.754   2.308   1.949
 4808SOL     OW16262  14.839   5.114  14.476
 4808SOL    HW116263  14.849   5.170  14.400
 4808SOL    HW216264  14.854   5.172  14.551
 4809SOL     OW16265  12.646   2.884  13.076
 4809SOL    HW116266  12.619   2.948  13.141
 4809SOL    HW216267  12.627   2.926  12.992
 4810SOL     OW16268  10.495   5.739   9.219
 4810SOL    HW116269  10.444   5.711   9.143
 4810SOL    HW216270  10.446   5.813   9.255
 4811SOL     OW16271   6.728  12.264   6.955
 4811SOL    HW116272   6.633  12.260   6.953
 4811SOL    HW216273   6.751  12.259   7.048
 4812SOL     OW16274   8.319   1.549  11.423
 4812SOL    HW116275   8.280   1.637  11.420
 4812SOL    HW216276   8.413   1.565  11.422
 4813SOL     OW16277   0.165   3.017   8.998
 4813SOL    HW116278   0.134   2.978   8.917
 4813SOL    HW216279   0.193   2.943   9.052
 4814SOL     OW16280   3.203  14.066  11.068
 4814SOL    HW116281   3.196  14.111  11.152
 4814SOL    HW216282   3.150  14.119  11.008
 4815SOL     OW16283   0.445   3.661   1.031
 4815SOL    HW116284   0.512   3.725   1.006
 4815SOL    HW216285   0.492   3.579   1.039
 4816SOL     OW16286  12.654   9.386  12.577
 4816SOL    HW116287  12.566   9.406  12.609
 4816SOL    HW216288  12.695   9.336  12.647
 4817SOL     OW16289   0.437   2.179   1.412
 4817SOL    HW116290   0.521   2.201   1.370
 4817SOL    HW216291   0.371   2.199   1.346
 4818SOL     OW16292  12.430  14.666  14.802
 4818SOL    HW116293  12.410  14.668   0.013
 4818SOL    HW216294  12.523  14.643  14.798
 4819SOL     OW16295  10.558   9.753   6.010
 4819SOL    HW116296  10.649   9.767   5.986
 4819SOL    HW216297  10.538   9.665   5.978
 4820SOL     OW16298  10.233   5.344   4.106
 4820SOL    HW116299  10.247   5.342   4.201
 4820SOL    HW216300  10.179   5.267   4.089
 4821SOL     OW16301   5.591  13.158  10.564
 4821SOL    HW116302   5.579  13.088  10.628
 4821SOL    HW216303   5.513  13.212  10.572
 4822SOL     OW16304   9.678   2.779   8.121
 4822SOL    HW116305   9.584   2.796   8.109
 4822SOL    HW216306   9.687   2.761   8.214
 4823SOL     OW16307  10.317   0.915  13.705
 4823SOL    HW116308  10.276   0.883  13.785
 4823SOL    HW216309  10.290   1.007  13.698
 4824SOL     OW16310   0.754  11.339   3.086
 4824SOL    HW116311   0.832  11.393   3.097
 4824SOL    HW216312   0.700  11.359   3.163
 4825SOL     OW16313  12.703   7.852  11.218
 4825SOL    HW116314  12.766   7.808  11.275
 4825SOL    HW216315  12.714   7.945  11.238
 4826SOL     OW16316   3.464  14.531  11.623
 4826SOL    HW116317   3.463  14.479  11.542
 4826SOL    HW216318   3.461  14.466  11.693
 4827SOL     OW16319   1.905  12.688   7.170
 4827SOL    HW116320   1.875  12.621   7.108
 4827SOL    HW216321   1.842  12.684   7.242
 4828SOL     OW16322   1.735   4.786   2.877
 4828SOL    HW116323   1.682   4.863   2.859
 4828SOL    HW216324   1.671   4.720   2.905
 4829SOL     OW16325  12.538   6.860   9.407
 4829SOL    HW116326  12.555   6.898   9.321
 4829SOL    HW216327  12.532   6.935   9.466
 4830SOL     OW16328   5.235  12.337   0.229
 4830SOL    HW116329   5.305  12.337   0.294
 4830SOL    HW216330   5.274  12.298   0.151
 4831SOL     OW16331   6.248  13.316  11.227
 4831SOL    HW116332   6.229  13.397  11.275
 4831SOL    HW216333   6.212  13.246  11.283
 4832SOL     OW16334   0.270   6.584  14.576
 4832SOL    HW116335   0.258   6.585  14.481
 4832SOL    HW216336   0.270   6.676  14.601
 4833SOL     OW16337   0.736   3.370  14.719
 4833SOL    HW116338   0.777   3.446  14.678
 4833SOL    HW216339   0.713   3.400  14.807
 4834SOL     OW16340  10.189  10.916   9.504
 4834SOL    HW116341  10.135  10.843   9.474
 4834SOL    HW216342  10.160  10.990   9.450
 4835SOL     OW16343  14.565   7.707   2.983
 4835SOL    HW116344  14.593   7.703   2.892
 4835SOL    HW216345  14.470   7.695   2.981
 4836SOL     OW16346   6.626   4.725   5.354
 4836SOL    HW116347   6.687   4.712   5.427
 4836SOL    HW216348   6.672   4.689   5.278
 4837SOL     OW16349   4.314   6.731   6.681
 4837SOL    HW116350   4.284   6.641   6.692
 4837SOL    HW216351   4.409   6.723   6.672
 4838SOL     OW16352   0.719   0.155  10.833
 4838SOL    HW116353   0.766   0.178  10.753
 4838SOL    HW216354   0.765   0.201  10.903
 4839SOL     OW16355  12.063   1.205   8.648
 4839SOL    HW116356  12.016   1.189   8.730
 4839SOL    HW216357  12.154   1.217   8.674
 4840SOL     OW16358   0.732   1.680   3.903
 4840SOL    HW116359   0.801   1.729   3.858
 4840SOL    HW216360   0.662   1.743   3.917
 4841SOL     OW16361  12.718   4.492   4.728
 4841SOL    HW116362  12.630   4.459   4.710
 4841SOL    HW216363  12.762   4.492   4.643
 4842SOL     OW16364   9.058   1.753   7.449
 4842SOL    HW116365   9.023   1.696   7.381
 4842SOL    HW216366   9.038   1.841   7.420
 4843SOL     OW16367   9.132   8.368   3.034
 4843SOL    HW116368   9.136   8.435   3.101
 4843SOL    HW216369   9.211   8.382   2.981
 4844SOL     OW16370  10.743  13.868   2.646
 4844SOL    HW116371  10.771  13.792   2.594
 4844SOL    HW216372  10.714  13.932   2.581
 4845SOL     OW16373   8.955   2.118  13.442
 4845SOL    HW116374   8.911   2.125  13.527
 4845SOL    HW216375   9.043   2.087  13.463
 4846SOL     OW16376   3.213   9.907  12.546
 4846SOL    HW116377   3.217   9.980  12.608
 4846SOL    HW216378   3.304   9.878  12.537
 4847SOL     OW16379   9.684   7.904  12.410
 4847SOL    HW116380   9.641   7.913  12.325
 4847SOL    HW216381   9.616   7.922  12.473
 4848SOL     OW16382   9.790   6.766  14.256
 4848SOL    HW116383   9.716   6.806  14.303
 4848SOL    HW216384   9.829   6.705  14.319
 4849SOL     OW16385  11.713   1.651   1.639
 4849SOL    HW116386  11.770   1.644   1.716
 4849SOL    HW216387  11.666   1.568   1.635
 4850SOL     OW16388   6.877   1.691   9.776
 4850SOL    HW116389   6.894   1.776   9.816
 4850SOL    HW216390   6.960   1.644   9.784
 4851SOL     OW16391   9.465  11.282  10.639
 4851SOL    HW116392   9.447  11.336  10.716
 4851SOL    HW216393   9.489  11.345  10.571
 4852SOL     OW16394  10.596   2.728   6.270
 4852SOL    HW116395  10.688   2.704   6.278
 4852SOL    HW216396  10.596   2.801   6.208
 4853SOL     OW16397   5.014   9.049   7.629
 4853SOL    HW116398   5.016   8.967   7.680
 4853SOL    HW216399   4.993   9.116   7.693
 4854SOL     OW16400  10.783   8.528   5.077
 4854SOL    HW116401  10.698   8.483   5.082
 4854SOL    HW216402  10.765   8.608   5.028
 4855SOL     OW16403   2.563   1.818   6.711
 4855SOL    HW116404   2.587   1.849   6.624
 4855SOL    HW216405   2.469   1.800   6.705
 4856SOL     OW16406  10.411   4.969   1.948
 4856SOL    HW116407  10.400   5.037   2.016
 4856SOL    HW216408  10.382   4.889   1.990
 4857SOL     OW16409   1.690  10.179  11.794
 4857SOL    HW116410   1.672  10.096  11.751
 4857SOL    HW216411   1.731  10.233  11.726
 4858SOL     OW16412   4.114   7.527   6.458
 4858SOL    HW116413   4.038   7.469   6.465
 4858SOL    HW216414   4.186   7.476   6.495
 4859SOL     OW16415   3.549   1.612   3.220
 4859SOL    HW116416   3.486   1.585   3.287
 4859SOL    HW216417   3.508   1.687   3.177
 4860SOL     OW16418   3.780   7.318  13.410
 4860SOL    HW116419   3.698   7.361  13.433
 4860SOL    HW216420   3.753   7.237  13.365
 4861SOL     OW16421   3.239   8.405   6.128
 4861SOL    HW116422   3.199   8.476   6.178
 4861SOL    HW216423   3.333   8.420   6.136
 4862SOL     OW16424  14.626   2.606   3.236
 4862SOL    HW116425  14.569   2.532   3.259
 4862SOL    HW216426  14.676   2.575   3.161
 4863SOL     OW16427   3.053  14.007   1.244
 4863SOL    HW116428   3.079  13.915   1.247
 4863SOL    HW216429   3.105  14.050   1.312
 4864SOL     OW16430   8.784  12.937   6.106
 4864SOL    HW116431   8.837  12.956   6.029
 4864SOL    HW216432   8.812  13.001   6.171
 4865SOL     OW16433  14.619   1.915   7.626
 4865SOL    HW116434  14.630   1.822   7.644
 4865SOL    HW216435  14.571   1.948   7.702
 4866SOL     OW16436   5.373   5.767  13.630
 4866SOL    HW116437   5.331   5.688  13.665
 4866SOL    HW216438   5.300   5.826  13.610
 4867SOL     OW16439  13.025  13.570   1.841
 4867SOL    HW116440  12.935  13.569   1.872
 4867SOL    HW216441  13.077  13.541   1.916
 4868SOL     OW16442  10.997   3.674   5.733
 4868SOL    HW116443  11.056   3.624   5.788
 4868SOL    HW216444  10.955   3.736   5.792
 4869SOL     OW16445  11.414  12.662  14.460
 4869SOL    HW116446  11.333  12.612  14.451
 4869SOL    HW216447  11.386  12.747  14.495
 4870SOL     OW16448  10.323  11.273  10.246
 4870SOL    HW116449  10.348  11.192  10.290
 4870SOL    HW216450  10.308  11.335  10.318
 4871SOL     OW16451   0.501   9.116   9.661
 4871SOL    HW116452   0.513   9.068   9.743
 4871SOL    HW216453   0.452   9.056   9.605
 4872SOL     OW16454   7.304   8.155  12.792
 4872SOL    HW116455   7.293   8.219  12.862
 4872SOL    HW216456   7.372   8.192  12.736
 4873SOL     OW16457  14.492  11.820   5.052
 4873SOL    HW116458  14.428  11.763   5.011
 4873SOL    HW216459  14.577  11.780   5.032
 4874SOL     OW16460   6.798  13.876   1.423
 4874SOL    HW116461   6.784  13.810   1.355
 4874SOL    HW216462   6.788  13.960   1.378
 4875SOL     OW16463  14.837   7.097   5.886
 4875SOL    HW116464  14.854   7.069   5.976
 4875SOL    HW216465  14.839   7.016   5.835
 4876SOL     OW16466   3.444   2.273   7.292
 4876SOL    HW116467   3.506   2.316   7.351
 4876SOL    HW216468   3.416   2.341   7.232
 4877SOL     OW16469  12.336  13.497   6.306
 4877SOL    HW116470  12.383  13.420   6.275
 4877SOL    HW216471  12.256  13.462   6.346
 4878SOL     OW16472   2.396   2.137   8.994
 4878SOL    HW116473   2.481   2.139   8.950
 4878SOL    HW216474   2.376   2.230   9.009
 4879SOL     OW16475  10.540   1.765   3.729
 4879SOL    HW116476  10.455   1.795   3.760
 4879SOL    HW216477  10.602   1.831   3.761
 4880SOL     OW16478  10.958  13.456  10.485
 4880SOL    HW116479  10.958  13.459  10.581
 4880SOL    HW216480  10.866  13.450  10.461
 4881SOL     OW16481   0.382   7.277   1.515
 4881SOL    HW116482   0.405   7.187   1.492
 4881SOL    HW216483   0.422   7.290   1.601
 4882SOL     OW16484  14.056   8.026   5.301
 4882SOL    HW116485  13.990   7.993   5.240
 4882SOL    HW216486  14.099   8.097   5.253
 4883SOL     OW16487  13.670   4.693   8.617
 4883SOL    HW116488  13.599   4.653   8.568
 4883SOL    HW216489  13.660   4.787   8.602
 4884SOL     OW16490   9.293  11.784   5.837
 4884SOL    HW116491   9.360  11.848   5.862
 4884SOL    HW216492   9.332  11.699   5.859
 4885SOL     OW16493   7.434  10.696   7.449
 4885SOL    HW116494   7.520  10.684   7.408
 4885SOL    HW216495   7.392  10.610   7.440
 4886SOL     OW16496  12.815   9.548   0.547
 4886SOL    HW116497  12.753   9.588   0.607
 4886SOL    HW216498  12.797   9.454   0.552
 4887SOL     OW16499   5.805  12.098  11.319
 4887SOL    HW116500   5.742  12.167  11.338
 4887SOL    HW216501   5.759  12.017  11.342
 4888SOL     OW16502   7.720  14.843   8.111
 4888SOL    HW116503   7.758   0.035   8.063
 4888SOL    HW216504   7.773  14.768   8.085
 4889SOL     OW16505  11.829   3.508   2.640
 4889SOL    HW116506  11.803   3.417   2.655
 4889SOL    HW216507  11.924   3.504   2.626
 4890SOL     OW16508  11.137   0.691  14.599
 4890SOL    HW116509  11.055   0.679  14.552
 4890SOL    HW216510  11.197   0.726  14.533
 4891SOL     OW16511   3.156   3.776   3.026
 4891SOL    HW116512   3.079   3.800   3.078
 4891SOL    HW216513   3.165   3.682   3.037
 4892SOL     OW16514  10.834   0.522  12.400
 4892SOL    HW116515  10.868   0.447  12.352
 4892SOL    HW216516  10.821   0.490  12.489
 4893SOL     OW16517   0.756   8.098   3.064
 4893SOL    HW116518   0.697   8.115   3.137
 4893SOL    HW216519   0.697   8.084   2.989
 4894SOL     OW16520   2.087   5.054   4.550
 4894SOL    HW116521   2.037   5.130   4.578
 4894SOL    HW216522   2.146   5.087   4.482
 4895SOL     OW16523   5.218  12.725  13.301
 4895SOL    HW116524   5.165  12.679  13.366
 4895SOL    HW216525   5.161  12.734  13.225
 4896SOL     OW16526   4.932  13.602   5.787
 4896SOL    HW116527   4.873  13.634   5.719
 4896SOL    HW216528   4.994  13.545   5.742
 4897SOL     OW16529  10.947  12.914   5.759
 4897SOL    HW116530  10.923  12.838   5.812
 4897SOL    HW216531  10.997  12.970   5.818
 4898SOL     OW16532   5.312   2.686  14.029
 4898SOL    HW116533   5.380   2.684  14.097
 4898SOL    HW216534   5.360   2.679  13.947
 4899SOL     OW16535   4.283   3.025  11.867
 4899SOL    HW116536   4.298   2.993  11.778
 4899SOL    HW216537   4.358   3.082  11.885
 4900SOL     OW16538   3.606   8.377   0.695
 4900SOL    HW116539   3.542   8.437   0.732
 4900SOL    HW216540   3.674   8.433   0.658
 4901SOL     OW16541   2.871   2.578  12.525
 4901SOL    HW116542   2.802   2.644  12.522
 4901SOL    HW216543   2.951   2.625  12.503
 4902SOL     OW16544   7.785  13.298   9.294
 4902SOL    HW116545   7.875  13.266   9.302
 4902SOL    HW216546   7.732  13.233   9.340
 4903SOL     OW16547  10.465  10.312   6.539
 4903SOL    HW116548  10.418  10.230   6.550
 4903SOL    HW216549  10.398  10.376   6.514
 4904SOL     OW16550   8.639   2.994  10.349
 4904SOL    HW116551   8.607   2.924  10.292
 4904SOL    HW216552   8.678   3.058  10.289
 4905SOL     OW16553   3.426   8.544  12.585
 4905SOL    HW116554   3.422   8.601  12.661
 4905SOL    HW216555   3.363   8.474  12.604
 4906SOL     OW16556   6.097   0.957   3.014
 4906SOL    HW116557   6.140   1.017   3.074
 4906SOL    HW216558   6.070   1.011   2.940
 4907SOL     OW16559  11.724   5.365   2.047
 4907SOL    HW116560  11.690   5.389   2.133
 4907SOL    HW216561  11.667   5.293   2.018
 4908SOL     OW16562  11.493   8.734   9.570
 4908SOL    HW116563  11.443   8.813   9.588
 4908SOL    HW216564  11.506   8.735   9.475
 4909SOL     OW16565   6.035   1.339  10.715
 4909SOL    HW116566   6.014   1.371  10.803
 4909SOL    HW216567   6.025   1.416  10.659
 4910SOL     OW16568   9.797  13.946   6.092
 4910SOL    HW116569   9.879  13.981   6.057
 4910SOL    HW216570   9.798  13.854   6.066
 4911SOL     OW16571   9.579   7.765  11.693
 4911SOL    HW116572   9.672   7.779  11.671
 4911SOL    HW216573   9.541   7.728  11.614
 4912SOL     OW16574  14.270  10.485   3.432
 4912SOL    HW116575  14.258  10.390   3.433
 4912SOL    HW216576  14.256  10.512   3.523
 4913SOL     OW16577   1.857   4.641   3.782
 4913SOL    HW116578   1.833   4.596   3.701
 4913SOL    HW216579   1.881   4.571   3.842
 4914SOL     OW16580  10.178  10.224   9.569
 4914SOL    HW116581  10.131  10.217   9.652
 4914SOL    HW216582  10.269  10.202   9.590
 4915SOL     OW16583  14.090  10.259   5.477
 4915SOL    HW116584  14.067  10.345   5.512
 4915SOL    HW216585  14.074  10.199   5.550
 4916SOL     OW16586   9.305   4.048  14.642
 4916SOL    HW116587   9.286   3.968  14.592
 4916SOL    HW216588   9.315   4.116  14.575
 4917SOL     OW16589  14.717  14.042   5.479
 4917SOL    HW116590  14.766  13.988   5.416
 4917SOL    HW216591  14.642  14.074   5.430
 4918SOL     OW16592  14.345   1.014   3.364
 4918SOL    HW116593  14.396   0.997   3.285
 4918SOL    HW216594  14.337   0.929   3.406
 4919SOL     OW16595  14.359   5.279   0.159
 4919SOL    HW116596  14.286   5.217   0.165
 4919SOL    HW216597  14.350   5.318   0.072
 4920SOL     OW16598   0.202   1.182  10.269
 4920SOL    HW116599   0.124   1.202  10.321
 4920SOL    HW216600   0.260   1.256  10.283
 4921SOL     OW16601  13.607   7.195   7.030
 4921SOL    HW116602  13.517   7.176   7.005
 4921SOL    HW216603  13.603   7.280   7.074
 4922SOL     OW16604  12.250   4.671  13.717
 4922SOL    HW116605  12.284   4.594  13.762
 4922SOL    HW216606  12.201   4.718  13.785
 4923SOL     OW16607   2.078   7.897  11.962
 4923SOL    HW116608   2.107   7.983  11.933
 4923SOL    HW216609   2.061   7.849  11.881
 4924SOL     OW16610   6.678  11.521   7.629
 4924SOL    HW116611   6.688  11.454   7.561
 4924SOL    HW216612   6.584  11.542   7.628
 4925SOL     OW16613   3.914  10.553  10.479
 4925SOL    HW116614   3.983  10.524  10.539
 4925SOL    HW216615   3.954  10.549  10.392
 4926SOL     OW16616   9.345  12.871   4.709
 4926SOL    HW116617   9.295  12.926   4.648
 4926SOL    HW216618   9.328  12.782   4.679
 4927SOL     OW16619   0.447   2.189   6.948
 4927SOL    HW116620   0.402   2.260   6.993
 4927SOL    HW216621   0.386   2.163   6.878
 4928SOL     OW16622   2.345   4.557  10.689
 4928SOL    HW116623   2.387   4.475  10.715
 4928SOL    HW216624   2.344   4.610  10.768
 4929SOL     OW16625   1.085   0.559   7.215
 4929SOL    HW116626   1.096   0.648   7.182
 4929SOL    HW216627   0.991   0.551   7.232
 4930SOL     OW16628   4.792   4.360   4.762
 4930SOL    HW116629   4.714   4.415   4.767
 4930SOL    HW216630   4.865   4.420   4.778
 4931SOL     OW16631   9.376  11.209  12.165
 4931SOL    HW116632   9.378  11.178  12.074
 4931SOL    HW216633   9.454  11.171  12.205
 4932SOL     OW16634   1.503   1.367   9.387
 4932SOL    HW116635   1.598   1.371   9.401
 4932SOL    HW216636   1.471   1.316   9.461
 4933SOL     OW16637   5.690   4.689   5.840
 4933SOL    HW116638   5.699   4.742   5.919
 4933SOL    HW216639   5.781   4.668   5.816
 4934SOL     OW16640   3.926  12.599   3.924
 4934SOL    HW116641   3.884  12.655   3.990
 4934SOL    HW216642   3.942  12.516   3.970
 4935SOL     OW16643   5.308   1.203  14.857
 4935SOL    HW116644   5.258   1.284  14.854
 4935SOL    HW216645   5.304   1.175   0.067
 4936SOL     OW16646   3.275   5.368  12.211
 4936SOL    HW116647   3.286   5.354  12.305
 4936SOL    HW216648   3.363   5.363  12.176
 4937SOL     OW16649   5.501  14.292   0.456
 4937SOL    HW116650   5.495  14.383   0.486
 4937SOL    HW216651   5.583  14.260   0.494
 4938SOL     OW16652  14.781   7.983  12.983
 4938SOL    HW116653  14.859   8.032  12.958
 4938SOL    HW216654  14.753   7.940  12.902
 4939SOL     OW16655  12.974   9.069  13.563
 4939SOL    HW116656  13.043   9.120  13.520
 4939SOL    HW216657  12.983   9.089  13.656
 4940SOL     OW16658  12.403  10.090   1.705
 4940SOL    HW116659  12.337  10.159   1.716
 4940SOL    HW216660  12.412  10.051   1.792
 4941SOL     OW16661   7.552  10.340  11.585
 4941SOL    HW116662   7.626  10.387  11.624
 4941SOL    HW216663   7.543  10.378  11.498
 4942SOL     OW16664  11.276   7.653   0.392
 4942SOL    HW116665  11.259   7.584   0.329
 4942SOL    HW216666  11.217   7.724   0.366
 4943SOL     OW16667  13.234   6.972   3.899
 4943SOL    HW116668  13.144   7.002   3.911
 4943SOL    HW216669  13.288   7.040   3.940
 4944SOL     OW16670  11.914  10.982   7.906
 4944SOL    HW116671  11.823  10.993   7.878
 4944SOL    HW216672  11.922  11.038   7.983
 4945SOL     OW16673  12.232   0.745  11.621
 4945SOL    HW116674  12.282   0.688  11.679
 4945SOL    HW216675  12.144   0.706  11.620
 4946SOL     OW16676   7.754   8.903   5.958
 4946SOL    HW116677   7.721   8.965   5.893
 4946SOL    HW216678   7.811   8.955   6.014
 4947SOL     OW16679   5.274   6.332  11.036
 4947SOL    HW116680   5.211   6.270  10.999
 4947SOL    HW216681   5.237   6.357  11.120
 4948SOL     OW16682   0.402   4.231   3.618
 4948SOL    HW116683   0.469   4.213   3.684
 4948SOL    HW216684   0.452   4.254   3.539
 4949SOL     OW16685  14.240   3.942  11.317
 4949SOL    HW116686  14.212   3.870  11.261
 4949SOL    HW216687  14.330   3.921  11.341
 4950SOL     OW16688  10.751  13.140   9.632
 4950SOL    HW116689  10.792  13.075   9.688
 4950SOL    HW216690  10.658  13.117   9.631
 4951SOL     OW16691   6.487   0.394   7.843
 4951SOL    HW116692   6.427   0.446   7.896
 4951SOL    HW216693   6.502   0.446   7.764
 4952SOL     OW16694   2.529   1.899   3.834
 4952SOL    HW116695   2.608   1.930   3.789
 4952SOL    HW216696   2.541   1.805   3.841
 4953SOL     OW16697  13.297   1.078   8.602
 4953SOL    HW116698  13.240   1.140   8.556
 4953SOL    HW216699  13.284   0.996   8.554
 4954SOL     OW16700  10.535   9.471   1.803
 4954SOL    HW116701  10.542   9.406   1.734
 4954SOL    HW216702  10.545   9.421   1.884
 4955SOL     OW16703   9.159   9.469   3.845
 4955SOL    HW116704   9.167   9.383   3.805
 4955SOL    HW216705   9.237   9.478   3.900
 4956SOL     OW16706   0.465   1.938   5.353
 4956SOL    HW116707   0.548   1.962   5.312
 4956SOL    HW216708   0.467   1.982   5.438
 4957SOL     OW16709  12.499   4.467  11.497
 4957SOL    HW116710  12.520   4.383  11.457
 4957SOL    HW216711  12.481   4.446  11.589
 4958SOL     OW16712  11.310   4.640   3.801
 4958SOL    HW116713  11.260   4.559   3.810
 4958SOL    HW216714  11.340   4.640   3.710
 4959SOL     OW16715   5.848  13.812  10.524
 4959SOL    HW116716   5.832  13.729  10.570
 4959SOL    HW216717   5.785  13.873  10.563
 4960SOL     OW16718   3.543   7.408   1.470
 4960SOL    HW116719   3.604   7.380   1.401
 4960SOL    HW216720   3.593   7.399   1.551
 4961SOL     OW16721   7.017   6.913   5.852
 4961SOL    HW116722   7.024   6.908   5.948
 4961SOL    HW216723   6.938   6.863   5.832
 4962SOL     OW16724   1.589  11.876  11.352
 4962SOL    HW116725   1.645  11.827  11.413
 4962SOL    HW216726   1.642  11.952  11.327
 4963SOL     OW16727  12.044  14.729   6.873
 4963SOL    HW116728  12.086  14.659   6.823
 4963SOL    HW216729  12.095  14.807   6.853
 4964SOL     OW16730  14.661   3.313   1.955
 4964SOL    HW116731  14.682   3.317   1.862
 4964SOL    HW216732  14.688   3.398   1.990
 4965SOL     OW16733   7.810   9.633   7.568
 4965SOL    HW116734   7.763   9.566   7.520
 4965SOL    HW216735   7.881   9.659   7.508
 4966SOL     OW16736   3.090   9.034  11.976
 4966SOL    HW116737   3.151   8.973  11.935
 4966SOL    HW216738   3.095   9.013  12.069
 4967SOL     OW16739  11.207   1.673  14.105
 4967SOL    HW116740  11.206   1.665  14.200
 4967SOL    HW216741  11.133   1.621  14.075
 4968SOL     OW16742   1.247   8.185  14.379
 4968SOL    HW116743   1.295   8.233  14.311
 4968SOL    HW216744   1.313   8.127  14.416
 4969SOL     OW16745   0.896   5.631   1.847
 4969SOL    HW116746   0.822   5.668   1.799
 4969SOL    HW216747   0.917   5.697   1.912
 4970SOL     OW16748   1.246   1.137   0.777
 4970SOL    HW116749   1.192   1.062   0.753
 4970SOL    HW216750   1.207   1.170   0.858
 4971SOL     OW16751   9.642   8.265  12.178
 4971SOL    HW116752   9.660   8.354  12.149
 4971SOL    HW216753   9.728   8.222  12.180
 4972SOL     OW16754   6.985   7.418   3.758
 4972SOL    HW116755   6.928   7.344   3.736
 4972SOL    HW216756   7.050   7.382   3.818
 4973SOL     OW16757  14.127  11.152   0.965
 4973SOL    HW116758  14.125  11.238   1.007
 4973SOL    HW216759  14.069  11.098   1.019
 4974SOL     OW16760   7.385   9.407   5.819
 4974SOL    HW116761   7.397   9.398   5.914
 4974SOL    HW216762   7.296   9.376   5.803
 4975SOL     OW16763   7.477   8.364   1.362
 4975SOL    HW116764   7.392   8.353   1.403
 4975SOL    HW216765   7.520   8.433   1.413
 4976SOL     OW16766   0.269  14.089   5.642
 4976SOL    HW116767   0.306  14.130   5.564
 4976SOL    HW216768   0.328  14.113   5.713
 4977SOL     OW16769  12.402  14.383   9.236
 4977SOL    HW116770  12.402  14.322   9.163
 4977SOL    HW216771  12.493  14.409   9.247
 4978SOL     OW16772   7.267   9.213   5.146
 4978SOL    HW116773   7.357   9.230   5.174
 4978SOL    HW216774   7.228   9.300   5.137
 4979SOL     OW16775  11.107   1.015   4.129
 4979SOL    HW116776  11.115   1.104   4.094
 4979SOL    HW216777  11.091   1.028   4.223
 4980SOL     OW16778   7.434   5.651   4.761
 4980SOL    HW116779   7.368   5.641   4.693
 4980SOL    HW216780   7.422   5.575   4.818
 4981SOL     OW16781   1.341   0.243   7.723
 4981SOL    HW116782   1.246   0.240   7.709
 4981SOL    HW216783   1.352   0.307   7.793
 4982SOL     OW16784   7.017   0.009   3.411
 4982SOL    HW116785   7.040   0.030   3.320
 4982SOL    HW216786   6.921   0.011   3.412
 4983SOL     OW16787  10.438   2.083   0.682
 4983SOL    HW116788  10.366   2.107   0.624
 4983SOL    HW216789  10.396   2.038   0.755
 4984SOL     OW16790   8.742  11.342   9.716
 4984SOL    HW116791   8.662  11.395   9.722
 4984SOL    HW216792   8.720  11.271   9.656
 4985SOL     OW16793   3.659   6.717  13.106
 4985SOL    HW116794   3.650   6.808  13.136
 4985SOL    HW216795   3.650   6.665  13.186
 4986SOL     OW16796   3.169  14.090   1.503
 4986SOL    HW116797   3.176  14.178   1.540
 4986SOL    HW216798   3.080  14.063   1.524
 4987SOL     OW16799  11.080   7.640  12.094
 4987SOL    HW116800  10.990   7.654  12.124
 4987SOL    HW216801  11.129   7.622  12.174
 4988SOL     OW16802   4.271  11.541   1.252
 4988SOL    HW116803   4.300  11.629   1.274
 4988SOL    HW216804   4.250  11.545   1.158
 4989SOL     OW16805  14.304  11.367   7.152
 4989SOL    HW116806  14.285  11.410   7.068
 4989SOL    HW216807  14.374  11.420   7.190
 4990SOL     OW16808  14.323   3.269   5.875
 4990SOL    HW116809  14.409   3.242   5.843
 4990SOL    HW216810  14.270   3.278   5.797
 4991SOL     OW16811   0.605   3.759  12.856
 4991SOL    HW116812   0.533   3.767  12.792
 4991SOL    HW216813   0.664   3.831  12.834
 4992SOL     OW16814  13.450   4.697  10.828
 4992SOL    HW116815  13.371   4.662  10.868
 4992SOL    HW216816  13.493   4.746  10.899
 4993SOL     OW16817   4.516   1.312  10.019
 4993SOL    HW116818   4.599   1.288  10.059
 4993SOL    HW216819   4.508   1.252   9.944
 4994SOL     OW16820   7.251  10.505   6.602
 4994SOL    HW116821   7.278  10.414   6.612
 4994SOL    HW216822   7.216  10.510   6.513
 4995SOL     OW16823  10.967   4.227   3.137
 4995SOL    HW116824  10.880   4.211   3.175
 4995SOL    HW216825  10.960   4.314   3.099
 4996SOL     OW16826   0.944   3.055   8.354
 4996SOL    HW116827   1.039   3.054   8.345
 4996SOL    HW216828   0.923   3.144   8.381
 4997SOL     OW16829   0.269   9.326  11.038
 4997SOL    HW116830   0.221   9.397  11.080
 4997SOL    HW216831   0.349   9.317  11.090
 4998SOL     OW16832  11.382  13.957  11.398
 4998SOL    HW116833  11.446  13.989  11.334
 4998SOL    HW216834  11.351  14.037  11.442
 4999SOL     OW16835   4.404  14.244  10.416
 4999SOL    HW116836   4.445  14.327  10.439
 4999SOL    HW216837   4.450  14.178  10.468
 5000SOL     OW16838  13.115   1.190   6.065
 5000SOL    HW116839  13.117   1.132   5.988
 5000SOL    HW216840  13.175   1.149   6.127
 5001SOL     OW16841  12.507  13.638  10.920
 5001SOL    HW116842  12.449  13.567  10.892
 5001SOL    HW216843  12.460  13.681  10.991
 5002SOL     OW16844   7.224   2.921  10.960
 5002SOL    HW116845   7.222   2.979  10.884
 5002SOL    HW216846   7.245   2.835  10.924
 5003SOL     OW16847   8.147   0.069   5.709
 5003SOL    HW116848   8.091   0.089   5.633
 5003SOL    HW216849   8.091   0.088   5.785
 5004SOL     OW16850   3.201   2.533  14.834
 5004SOL    HW116851   3.274   2.495  14.785
 5004SOL    HW216852   3.222   2.626  14.840
 5005SOL     OW16853   3.187   1.182   7.360
 5005SOL    HW116854   3.241   1.229   7.297
 5005SOL    HW216855   3.242   1.111   7.392
 5006SOL     OW16856   1.691   8.595   5.877
 5006SOL    HW116857   1.635   8.558   5.809
 5006SOL    HW216858   1.754   8.526   5.896
 5007SOL     OW16859   8.218  12.443  10.570
 5007SOL    HW116860   8.128  12.454  10.600
 5007SOL    HW216861   8.268  12.506  10.623
 5008SOL     OW16862  10.857  13.036   6.525
 5008SOL    HW116863  10.824  13.070   6.442
 5008SOL    HW216864  10.850  13.109   6.586
 5009SOL     OW16865   0.366   6.308  12.733
 5009SOL    HW116866   0.427   6.281  12.802
 5009SOL    HW216867   0.314   6.229  12.716
 5010SOL     OW16868  10.584  10.397   8.837
 5010SOL    HW116869  10.599  10.302   8.841
 5010SOL    HW216870  10.659  10.430   8.787
 5011SOL     OW16871   4.171   3.801   8.740
 5011SOL    HW116872   4.205   3.871   8.796
 5011SOL    HW216873   4.088   3.835   8.707
 5012SOL     OW16874  11.399   2.834  12.496
 5012SOL    HW116875  11.424   2.810  12.586
 5012SOL    HW216876  11.326   2.895  12.507
 5013SOL     OW16877   2.310   1.011   7.518
 5013SOL    HW116878   2.380   0.998   7.454
 5013SOL    HW216879   2.316   1.104   7.541
 5014SOL     OW16880   6.022   6.513   6.217
 5014SOL    HW116881   6.074   6.592   6.233
 5014SOL    HW216882   5.957   6.513   6.288
 5015SOL     OW16883  10.382   4.280   2.581
 5015SOL    HW116884  10.371   4.356   2.524
 5015SOL    HW216885  10.424   4.214   2.525
 5016SOL     OW16886   7.989  11.738   0.370
 5016SOL    HW116887   7.932  11.813   0.357
 5016SOL    HW216888   7.929  11.664   0.380
 5017SOL     OW16889  12.800   5.805  10.634
 5017SOL    HW116890  12.773   5.726  10.681
 5017SOL    HW216891  12.801   5.874  10.701
 5018SOL     OW16892   8.668  14.525   0.146
 5018SOL    HW116893   8.739  14.532   0.083
 5018SOL    HW216894   8.682  14.441   0.189
 5019SOL     OW16895   8.631   7.352  14.273
 5019SOL    HW116896   8.615   7.446  14.271
 5019SOL    HW216897   8.720   7.344  14.307
 5020SOL     OW16898   5.053   7.565   4.817
 5020SOL    HW116899   4.974   7.616   4.797
 5020SOL    HW216900   5.102   7.620   4.879
 5021SOL     OW16901   7.565   1.305   4.360
 5021SOL    HW116902   7.557   1.349   4.276
 5021SOL    HW216903   7.491   1.243   4.362
 5022SOL     OW16904   9.653  10.169   4.358
 5022SOL    HW116905   9.577  10.134   4.403
 5022SOL    HW216906   9.703  10.092   4.330
 5023SOL     OW16907  13.879  12.133   3.431
 5023SOL    HW116908  13.884  12.129   3.526
 5023SOL    HW216909  13.954  12.083   3.401
 5024SOL     OW16910  12.114  13.153   1.266
 5024SOL    HW116911  12.050  13.085   1.243
 5024SOL    HW216912  12.196  13.123   1.226
 5025SOL     OW16913   2.669  11.899   3.276
 5025SOL    HW116914   2.761  11.926   3.282
 5025SOL    HW216915   2.669  11.807   3.304
 5026SOL     OW16916  10.431   9.791   4.895
 5026SOL    HW116917  10.355   9.801   4.837
 5026SOL    HW216918  10.500   9.754   4.839
 5027SOL     OW16919   5.616   4.067   7.726
 5027SOL    HW116920   5.524   4.045   7.716
 5027SOL    HW216921   5.654   4.057   7.638
 5028SOL     OW16922   7.701   8.752   5.318
 5028SOL    HW116923   7.647   8.786   5.390
 5028SOL    HW216924   7.790   8.776   5.341
 5029SOL     OW16925  10.102   5.370   2.629
 5029SOL    HW116926  10.149   5.290   2.607
 5029SOL    HW216927  10.156   5.411   2.697
 5030SOL     OW16928  10.344   9.905   0.940
 5030SOL    HW116929  10.438   9.895   0.924
 5030SOL    HW216930  10.322   9.834   1.001
 5031SOL     OW16931  14.485  12.833   8.645
 5031SOL    HW116932  14.478  12.874   8.559
 5031SOL    HW216933  14.572  12.794   8.647
 5032SOL     OW16934   3.782   9.277   9.686
 5032SOL    HW116935   3.850   9.233   9.737
 5032SOL    HW216936   3.822   9.291   9.600
 5033SOL     OW16937   1.860  12.416   2.091
 5033SOL    HW116938   1.775  12.416   2.136
 5033SOL    HW216939   1.854  12.490   2.030
 5034SOL     OW16940   6.737   1.937   1.311
 5034SOL    HW116941   6.662   1.876   1.311
 5034SOL    HW216942   6.747   1.962   1.220
 5035SOL     OW16943   0.062   1.749  10.929
 5035SOL    HW116944   0.123   1.823  10.932
 5035SOL    HW216945  14.880   1.773  10.862
 5036SOL     OW16946   5.505   5.501   3.048
 5036SOL    HW116947   5.578   5.552   3.082
 5036SOL    HW216948   5.470   5.553   2.975
 5037SOL     OW16949  11.970   2.278   2.296
 5037SOL    HW116950  11.947   2.344   2.362
 5037SOL    HW216951  12.062   2.258   2.313
 5038SOL     OW16952   9.399   1.859   4.014
 5038SOL    HW116953   9.361   1.780   4.052
 5038SOL    HW216954   9.406   1.920   4.088
 5039SOL     OW16955  10.501   9.102  14.035
 5039SOL    HW116956  10.514   9.119  13.942
 5039SOL    HW216957  10.413   9.135  14.053
 5040SOL     OW16958   6.115   3.232  11.473
 5040SOL    HW116959   6.158   3.317  11.465
 5040SOL    HW216960   6.061   3.240  11.552
 5041SOL     OW16961   9.701   0.094   8.829
 5041SOL    HW116962   9.753   0.066   8.754
 5041SOL    HW216963   9.721   0.029   8.897
 5042SOL     OW16964  12.906  10.403  14.304
 5042SOL    HW116965  12.859  10.486  14.316
 5042SOL    HW216966  12.907  10.363  14.391
 5043SOL     OW16967   0.632  13.861   0.191
 5043SOL    HW116968   0.619  13.767   0.178
 5043SOL    HW216969   0.711  13.882   0.142
 5044SOL     OW16970   0.744   1.215   4.681
 5044SOL    HW116971   0.683   1.279   4.646
 5044SOL    HW216972   0.792   1.183   4.605
 5045SOL     OW16973  14.756   3.051   1.968
 5045SOL    HW116974  14.707   2.978   1.930
 5045SOL    HW216975  14.692   3.122   1.976
 5046SOL     OW16976   9.381   9.064   1.818
 5046SOL    HW116977   9.473   9.037   1.817
 5046SOL    HW216978   9.340   9.009   1.752
 5047SOL     OW16979  13.970  13.635   6.364
 5047SOL    HW116980  13.901  13.692   6.399
 5047SOL    HW216981  13.925  13.577   6.302
 5048SOL     OW16982   2.761   7.572   9.461
 5048SOL    HW116983   2.721   7.485   9.454
 5048SOL    HW216984   2.822   7.575   9.388
 5049SOL     OW16985  14.473  12.091  10.922
 5049SOL    HW116986  14.513  12.044  10.994
 5049SOL    HW216987  14.540  12.092  10.854
 5050SOL     OW16988   5.415  14.180   8.430
 5050SOL    HW116989   5.440  14.159   8.340
 5050SOL    HW216990   5.426  14.275   8.436
 5051SOL     OW16991  10.748  10.022   5.998
 5051SOL    HW116992  10.818  10.074   6.036
 5051SOL    HW216993  10.789   9.940   5.972
 5052SOL     OW16994   1.152  12.943  12.106
 5052SOL    HW116995   1.076  12.900  12.068
 5052SOL    HW216996   1.117  12.999  12.175
 5053SOL     OW16997   1.826  14.734  10.495
 5053SOL    HW116998   1.775  14.653  10.490
 5053SOL    HW216999   1.864  14.744  10.408
 5054SOL     OW17000  12.580   3.948  10.688
 5054SOL    HW117001  12.585   4.024  10.746
 5054SOL    HW217002  12.524   3.977  10.616
 5055SOL     OW17003  10.580   1.606  12.010
 5055SOL    HW117004  10.561   1.674  12.075
 5055SOL    HW217005  10.500   1.552  12.008
 5056SOL     OW17006   3.216  11.920   0.925
 5056SOL    HW117007   3.156  11.846   0.926
 5056SOL    HW217008   3.301  11.882   0.901
 5057SOL     OW17009  13.605   8.388   1.861
 5057SOL    HW117010  13.668   8.319   1.837
 5057SOL    HW217011  13.541   8.387   1.789
 5058SOL     OW17012   7.277   6.085   8.438
 5058SOL    HW117013   7.362   6.119   8.468
 5058SOL    HW217014   7.217   6.104   8.510
 5059SOL     OW17015   3.283   9.055  11.156
 5059SOL    HW117016   3.305   8.962  11.156
 5059SOL    HW217017   3.193   9.058  11.191
 5060SOL     OW17018   5.921   0.173  10.925
 5060SOL    HW117019   5.839   0.182  10.974
 5060SOL    HW217020   5.935   0.079  10.919
 5061SOL     OW17021  10.099   0.819   1.449
 5061SOL    HW117022  10.024   0.773   1.486
 5061SOL    HW217023  10.137   0.756   1.387
 5062SOL     OW17024   1.006   0.769   9.016
 5062SOL    HW117025   0.987   0.809   9.101
 5062SOL    HW217026   1.058   0.835   8.970
 5063SOL     OW17027   8.182  10.034   9.498
 5063SOL    HW117028   8.158   9.985   9.420
 5063SOL    HW217029   8.131   9.993   9.568
 5064SOL     OW17030   3.035   9.305   6.657
 5064SOL    HW117031   3.065   9.217   6.632
 5064SOL    HW217032   2.983   9.290   6.736
 5065SOL     OW17033  14.426   4.198  12.402
 5065SOL    HW117034  14.478   4.179  12.481
 5065SOL    HW217035  14.436   4.119  12.348
 5066SOL     OW17036  12.736   7.314  10.347
 5066SOL    HW117037  12.787   7.237  10.322
 5066SOL    HW217038  12.652   7.278  10.374
 5067SOL     OW17039   8.706   4.577  14.141
 5067SOL    HW117040   8.640   4.631  14.097
 5067SOL    HW217041   8.743   4.523  14.072
 5068SOL     OW17042   9.305   6.875  12.699
 5068SOL    HW117043   9.269   6.796  12.740
 5068SOL    HW217044   9.363   6.842  12.630
 5069SOL     OW17045   7.113   1.284   6.171
 5069SOL    HW117046   7.205   1.294   6.148
 5069SOL    HW217047   7.111   1.292   6.266
 5070SOL     OW17048   6.638  11.180   3.426
 5070SOL    HW117049   6.632  11.139   3.512
 5070SOL    HW217050   6.727  11.162   3.397
 5071SOL     OW17051   6.723   5.540   3.623
 5071SOL    HW117052   6.798   5.537   3.563
 5071SOL    HW217053   6.741   5.617   3.678
 5072SOL     OW17054   1.799   8.816  11.498
 5072SOL    HW117055   1.843   8.798  11.415
 5072SOL    HW217056   1.708   8.835  11.474
 5073SOL     OW17057  14.034  11.585  13.667
 5073SOL    HW117058  13.973  11.651  13.702
 5073SOL    HW217059  13.980  11.531  13.610
 5074SOL     OW17060   8.696  14.518  10.496
 5074SOL    HW117061   8.792  14.515  10.495
 5074SOL    HW217062   8.670  14.512  10.404
 5075SOL     OW17063   4.037   8.395   1.590
 5075SOL    HW117064   4.081   8.474   1.560
 5075SOL    HW217065   4.087   8.323   1.552
 5076SOL     OW17066  10.487   9.465   3.411
 5076SOL    HW117067  10.582   9.464   3.422
 5076SOL    HW217068  10.474   9.489   3.320
 5077SOL     OW17069   1.946  10.831  14.171
 5077SOL    HW117070   2.022  10.836  14.113
 5077SOL    HW217071   1.878  10.882  14.126
 5078SOL     OW17072  10.495   1.993  10.392
 5078SOL    HW117073  10.545   2.042  10.459
 5078SOL    HW217074  10.496   1.903  10.424
 5079SOL     OW17075  12.467   7.423   3.428
 5079SOL    HW117076  12.486   7.517   3.433
 5079SOL    HW217077  12.405   7.407   3.499
 5080SOL     OW17078   2.357  11.434   2.356
 5080SOL    HW117079   2.405  11.489   2.418
 5080SOL    HW217080   2.410  11.355   2.348
 5081SOL     OW17081   8.488   9.234  12.752
 5081SOL    HW117082   8.484   9.229  12.848
 5081SOL    HW217083   8.561   9.177  12.728
 5082SOL     OW17084  14.303   7.581   5.797
 5082SOL    HW117085  14.362   7.510   5.821
 5082SOL    HW217086  14.327   7.653   5.854
 5083SOL     OW17087   8.419   0.003   0.018
 5083SOL    HW117088   8.357  14.836   0.072
 5083SOL    HW217089   8.394  14.864  14.810
 5084SOL     OW17090   6.520  13.783  14.232
 5084SOL    HW117091   6.496  13.725  14.304
 5084SOL    HW217092   6.454  13.852  14.232
 5085SOL     OW17093   4.918   7.873   5.836
 5085SOL    HW117094   4.926   7.817   5.760
 5085SOL    HW217095   4.959   7.823   5.907
 5086SOL     OW17096   5.891   6.375   6.519
 5086SOL    HW117097   5.898   6.307   6.586
 5086SOL    HW217098   5.886   6.457   6.568
 5087SOL     OW17099   2.913   1.079   1.274
 5087SOL    HW117100   2.859   1.041   1.343
 5087SOL    HW217101   2.963   1.005   1.239
 5088SOL     OW17102  12.945   9.624   7.809
 5088SOL    HW117103  13.031   9.620   7.850
 5088SOL    HW217104  12.944   9.708   7.763
 5089SOL     OW17105  12.062  13.641   5.250
 5089SOL    HW117106  12.040  13.625   5.342
 5089SOL    HW217107  11.980  13.629   5.203
 5090SOL     OW17108   7.999   7.248   2.910
 5090SOL    HW117109   8.011   7.170   2.856
 5090SOL    HW217110   8.071   7.306   2.885
 5091SOL     OW17111  11.236   0.022  11.645
 5091SOL    HW117112  11.155   0.013  11.696
 5091SOL    HW217113  11.292  14.833  11.677
 5092SOL     OW17114   0.320   3.305   0.379
 5092SOL    HW117115   0.352   3.368   0.315
 5092SOL    HW217116   0.313   3.223   0.330
 5093SOL     OW17117   1.890   5.416   5.370
 5093SOL    HW117118   1.951   5.383   5.436
 5093SOL    HW217119   1.829   5.343   5.356
 5094SOL     OW17120   5.470   2.949   2.645
 5094SOL    HW117121   5.533   2.956   2.717
 5094SOL    HW217122   5.488   3.026   2.591
 5095SOL     OW17123   6.286   1.607  13.844
 5095SOL    HW117124   6.309   1.536  13.784
 5095SOL    HW217125   6.361   1.615  13.903
 5096SOL     OW17126   2.287   5.938   5.881
 5096SOL    HW117127   2.215   6.001   5.877
 5096SOL    HW217128   2.325   5.951   5.969
 5097SOL     OW17129   6.915   0.043   6.186
 5097SOL    HW117130   6.915   0.130   6.146
 5097SOL    HW217131   6.970  14.872   6.129
 5098SOL     OW17132   3.069   7.770   7.944
 5098SOL    HW117133   3.063   7.712   7.868
 5098SOL    HW217134   3.147   7.823   7.928
 5099SOL     OW17135   2.504   8.751   0.992
 5099SOL    HW117136   2.455   8.762   1.073
 5099SOL    HW217137   2.528   8.658   0.991
 5100SOL     OW17138   6.335   2.861  14.402
 5100SOL    HW117139   6.356   2.774  14.435
 5100SOL    HW217140   6.393   2.920  14.451
 5101SOL     OW17141   5.373   2.309   4.808
 5101SOL    HW117142   5.367   2.390   4.758
 5101SOL    HW217143   5.343   2.332   4.896
 5102SOL     OW17144   0.745  14.480   2.260
 5102SOL    HW117145   0.696  14.540   2.316
 5102SOL    HW217146   0.690  14.402   2.255
 5103SOL     OW17147   1.042  11.883   6.567
 5103SOL    HW117148   1.131  11.867   6.600
 5103SOL    HW217149   1.017  11.801   6.525
 5104SOL     OW17150   6.690   7.149   2.531
 5104SOL    HW117151   6.712   7.171   2.441
 5104SOL    HW217152   6.691   7.233   2.577
 5105SOL     OW17153   1.113  13.523   5.611
 5105SOL    HW117154   1.116  13.514   5.515
 5105SOL    HW217155   1.139  13.614   5.627
 5106SOL     OW17156   6.181   5.649   0.011
 5106SOL    HW117157   6.267   5.618   0.039
 5106SOL    HW217158   6.147   5.699   0.085
 5107SOL     OW17159   3.275   4.000   2.450
 5107SOL    HW117160   3.197   4.050   2.476
 5107SOL    HW217161   3.266   3.989   2.355
 5108SOL     OW17162  11.288   5.285   1.173
 5108SOL    HW117163  11.269   5.265   1.265
 5108SOL    HW217164  11.247   5.370   1.159
 5109SOL     OW17165   3.986   8.425  12.759
 5109SOL    HW117166   4.029   8.466  12.834
 5109SOL    HW217167   3.963   8.337  12.791
 5110SOL     OW17168   4.156   0.651   6.977
 5110SOL    HW117169   4.230   0.709   6.992
 5110SOL    HW217170   4.136   0.661   6.884
 5111SOL     OW17171  11.667   8.968   8.034
 5111SOL    HW117172  11.600   8.915   7.991
 5111SOL    HW217173  11.666   8.937   8.125
 5112SOL     OW17174   0.193   8.134  11.282
 5112SOL    HW117175   0.278   8.091  11.282
 5112SOL    HW217176   0.181   8.164  11.373
 5113SOL     OW17177   9.951  12.930   6.090
 5113SOL    HW117178   9.869  12.902   6.132
 5113SOL    HW217179  10.008  12.953   6.163
 5114SOL     OW17180   9.519  10.659   3.011
 5114SOL    HW117181   9.492  10.748   2.986
 5114SOL    HW217182   9.465  10.601   2.957
 5115SOL     OW17183   1.048   8.068   0.577
 5115SOL    HW117184   1.127   8.030   0.537
 5115SOL    HW217185   1.040   8.022   0.661
 5116SOL     OW17186  10.407  13.744   2.657
 5116SOL    HW117187  10.485  13.791   2.685
 5116SOL    HW217188  10.389  13.682   2.728
 5117SOL     OW17189   1.657   6.770   3.101
 5117SOL    HW117190   1.687   6.705   3.165
 5117SOL    HW217191   1.736   6.816   3.074
 5118SOL     OW17192   1.123   1.106   6.611
 5118SOL    HW117193   1.206   1.139   6.644
 5118SOL    HW217194   1.071   1.185   6.594
 5119SOL     OW17195   0.394   9.659  11.774
 5119SOL    HW117196   0.323   9.694  11.828
 5119SOL    HW217197   0.384   9.564  11.781
 5120SOL     OW17198   6.878  10.767  12.480
 5120SOL    HW117199   6.883  10.674  12.502
 5120SOL    HW217200   6.822  10.804  12.549
 5121SOL     OW17201  13.812  11.893  13.160
 5121SOL    HW117202  13.734  11.843  13.184
 5121SOL    HW217203  13.841  11.934  13.241
 5122SOL     OW17204   1.240   2.786   8.953
 5122SOL    HW117205   1.285   2.812   9.033
 5122SOL    HW217206   1.152   2.823   8.961
 5123SOL     OW17207  10.106   2.279   0.233
 5123SOL    HW117208  10.097   2.277   0.138
 5123SOL    HW217209  10.021   2.249   0.266
 5124SOL     OW17210   1.390  10.598   0.829
 5124SOL    HW117211   1.437  10.641   0.757
 5124SOL    HW217212   1.354  10.670   0.880
 5125SOL     OW17213   4.972  10.961   3.878
 5125SOL    HW117214   4.904  10.899   3.852
 5125SOL    HW217215   5.031  10.963   3.803
 5126SOL     OW17216  14.093   7.417   9.270
 5126SOL    HW117217  14.020   7.478   9.275
 5126SOL    HW217218  14.129   7.414   9.358
 5127SOL     OW17219  13.301   0.473   2.305
 5127SOL    HW117220  13.214   0.435   2.314
 5127SOL    HW217221  13.339   0.468   2.393
 5128SOL     OW17222   9.163   9.253   7.301
 5128SOL    HW117223   9.098   9.267   7.369
 5128SOL    HW217224   9.236   9.310   7.324
 5129SOL     OW17225   9.539  13.315   0.275
 5129SOL    HW117226   9.585  13.233   0.289
 5129SOL    HW217227   9.603  13.371   0.230
 5130SOL     OW17228   6.224  13.173  12.648
 5130SOL    HW117229   6.263  13.171  12.560
 5130SOL    HW217230   6.132  13.192  12.633
 5131SOL     OW17231  12.455   5.325  10.609
 5131SOL    HW117232  12.380   5.266  10.621
 5131SOL    HW217233  12.415   5.410  10.593
 5132SOL     OW17234   4.212  14.084  10.644
 5132SOL    HW117235   4.227  14.045  10.558
 5132SOL    HW217236   4.124  14.122  10.639
 5133SOL     OW17237   6.318  11.868  13.611
 5133SOL    HW117238   6.257  11.832  13.547
 5133SOL    HW217239   6.397  11.815  13.602
 5134SOL     OW17240   6.815   6.171  10.550
 5134SOL    HW117241   6.860   6.161  10.634
 5134SOL    HW217242   6.786   6.083  10.528
 5135SOL     OW17243   9.640   4.111   6.795
 5135SOL    HW117244   9.547   4.112   6.818
 5135SOL    HW217245   9.669   4.201   6.809
 5136SOL     OW17246   5.808  13.642   6.844
 5136SOL    HW117247   5.894  13.680   6.829
 5136SOL    HW217248   5.757  13.665   6.766
 5137SOL     OW17249  10.006   6.119   1.413
 5137SOL    HW117250  10.090   6.142   1.453
 5137SOL    HW217251   9.946   6.187   1.443
 5138SOL     OW17252   0.453  10.608   2.197
 5138SOL    HW117253   0.537  10.640   2.229
 5138SOL    HW217254   0.444  10.648   2.110
 5139SOL     OW17255   8.156  14.538   5.040
 5139SOL    HW117256   8.143  14.448   5.011
 5139SOL    HW217257   8.087  14.588   4.996
 5140SOL     OW17258  14.342   7.134   0.016
 5140SOL    HW117259  14.277   7.182   0.066
 5140SOL    HW217260  14.291   7.082  14.836
 5141SOL     OW17261   6.818  13.515   5.739
 5141SOL    HW117262   6.801  13.557   5.823
 5141SOL    HW217263   6.749  13.448   5.732
 5142SOL     OW17264  14.125   4.805   5.271
 5142SOL    HW117265  14.212   4.781   5.239
 5142SOL    HW217266  14.142   4.876   5.334
 5143SOL     OW17267   9.233  10.931  10.687
 5143SOL    HW117268   9.147  10.970  10.671
 5143SOL    HW217269   9.218  10.866  10.756
 5144SOL     OW17270  10.000  10.625   7.393
 5144SOL    HW117271  10.058  10.692   7.429
 5144SOL    HW217272  10.058  10.554   7.367
 5145SOL     OW17273   9.567  10.963   2.449
 5145SOL    HW117274   9.647  10.927   2.486
 5145SOL    HW217275   9.561  10.925   2.361
 5146SOL     OW17276  12.500   4.725   0.821
 5146SOL    HW117277  12.423   4.672   0.843
 5146SOL    HW217278  12.574   4.664   0.827
 5147SOL     OW17279   1.984   4.380   9.170
 5147SOL    HW117280   2.010   4.436   9.242
 5147SOL    HW217281   1.999   4.433   9.092
 5148SOL     OW17282   1.929   7.829   8.836
 5148SOL    HW117283   2.020   7.847   8.811
 5148SOL    HW217284   1.932   7.742   8.876
 5149SOL     OW17285  10.826   0.655   3.934
 5149SOL    HW117286  10.763   0.621   3.998
 5149SOL    HW217287  10.903   0.676   3.987
 5150SOL     OW17288  11.453   9.760   3.010
 5150SOL    HW117289  11.384   9.819   3.041
 5150SOL    HW217290  11.518   9.760   3.080
 5151SOL     OW17291   1.314   7.599   6.046
 5151SOL    HW117292   1.290   7.669   6.107
 5151SOL    HW217293   1.406   7.612   6.028
 5152SOL     OW17294   0.076  13.851   2.156
 5152SOL    HW117295  14.876  13.803   2.163
 5152SOL    HW217296   0.142  13.794   2.196
 5153SOL     OW17297   4.563   8.564   9.396
 5153SOL    HW117298   4.544   8.657   9.389
 5153SOL    HW217299   4.639   8.559   9.454
 5154SOL     OW17300  10.908   0.987   5.934
 5154SOL    HW117301  10.948   1.054   5.879
 5154SOL    HW217302  10.936   0.904   5.895
 5155SOL     OW17303  13.097   0.460   1.246
 5155SOL    HW117304  13.064   0.381   1.288
 5155SOL    HW217305  13.040   0.472   1.169
 5156SOL     OW17306   4.890   8.221   0.392
 5156SOL    HW117307   4.850   8.164   0.458
 5156SOL    HW217308   4.819   8.241   0.331
 5157SOL     OW17309  10.235   3.654   6.104
 5157SOL    HW117310  10.240   3.733   6.049
 5157SOL    HW217311  10.300   3.595   6.068
 5158SOL     OW17312  10.882  14.226   5.219
 5158SOL    HW117313  10.836  14.284   5.159
 5158SOL    HW217314  10.937  14.171   5.163
 5159SOL     OW17315   0.528   3.822   0.459
 5159SOL    HW117316   0.527   3.900   0.403
 5159SOL    HW217317   0.439   3.788   0.454
 5160SOL     OW17318  10.902   3.769   8.120
 5160SOL    HW117319  10.930   3.799   8.206
 5160SOL    HW217320  10.968   3.804   8.060
 5161SOL     OW17321   8.267   6.032   0.816
 5161SOL    HW117322   8.207   6.011   0.888
 5161SOL    HW217323   8.295   5.946   0.783
 5162SOL     OW17324   9.148  13.506   3.576
 5162SOL    HW117325   9.203  13.497   3.498
 5162SOL    HW217326   9.142  13.417   3.612
 5163SOL     OW17327   9.468   7.237   9.948
 5163SOL    HW117328   9.489   7.286  10.028
 5163SOL    HW217329   9.379   7.206   9.962
 5164SOL     OW17330   4.432   9.441   4.124
 5164SOL    HW117331   4.448   9.503   4.053
 5164SOL    HW217332   4.432   9.495   4.203
 5165SOL     OW17333   8.977  11.205   1.366
 5165SOL    HW117334   9.017  11.211   1.279
 5165SOL    HW217335   8.959  11.296   1.390
 5166SOL     OW17336   1.732   4.499   3.170
 5166SOL    HW117337   1.759   4.469   3.257
 5166SOL    HW217338   1.642   4.468   3.160
 5167SOL     OW17339  12.275   6.472   5.966
 5167SOL    HW117340  12.196   6.420   5.979
 5167SOL    HW217341  12.257   6.526   5.889
 5168SOL     OW17342  11.025  12.224  12.881
 5168SOL    HW117343  11.035  12.183  12.967
 5168SOL    HW217344  11.016  12.151  12.821
 5169SOL     OW17345  10.249   7.468   9.447
 5169SOL    HW117346  10.283   7.419   9.372
 5169SOL    HW217347  10.326   7.513   9.482
 5170SOL     OW17348  14.797   5.313   6.630
 5170SOL    HW117349   0.004   5.302   6.597
 5170SOL    HW217350  14.807   5.311   6.725
 5171SOL     OW17351   6.532  12.637   8.027
 5171SOL    HW117352   6.582  12.657   7.948
 5171SOL    HW217353   6.465  12.705   8.031
 5172SOL     OW17354   9.228   2.391   0.171
 5172SOL    HW117355   9.317   2.425   0.185
 5172SOL    HW217356   9.221   2.317   0.231
 5173SOL     OW17357   4.494   9.247   1.492
 5173SOL    HW117358   4.405   9.267   1.463
 5173SOL    HW217359   4.540   9.221   1.413
 5174SOL     OW17360   0.000   5.549  10.262
 5174SOL    HW117361   0.039   5.538  10.349
 5174SOL    HW217362  14.832   5.630  10.269
 5175SOL     OW17363   1.273   6.028  14.573
 5175SOL    HW117364   1.256   5.934  14.581
 5175SOL    HW217365   1.354   6.042  14.621
 5176SOL     OW17366  14.502  11.204  14.441
 5176SOL    HW117367  14.502  11.122  14.392
 5176SOL    HW217368  14.435  11.258  14.399
 5177SOL     OW17369  10.562   9.932  11.778
 5177SOL    HW117370  10.613   9.998  11.825
 5177SOL    HW217371  10.621   9.899  11.711
 5178SOL     OW17372  12.163  14.023   1.135
 5178SOL    HW117373  12.255  14.043   1.150
 5178SOL    HW217374  12.116  14.100   1.167
 5179SOL     OW17375   6.383  11.899   9.531
 5179SOL    HW117376   6.392  11.950   9.450
 5179SOL    HW217377   6.292  11.914   9.558
 5180SOL     OW17378   6.475   0.662   1.062
 5180SOL    HW117379   6.504   0.723   0.994
 5180SOL    HW217380   6.555   0.639   1.110
 5181SOL     OW17381  11.889   9.347  13.745
 5181SOL    HW117382  11.831   9.374  13.673
 5181SOL    HW217383  11.939   9.426  13.766
 5182SOL     OW17384   5.996   2.824   0.536
 5182SOL    HW117385   5.999   2.813   0.441
 5182SOL    HW217386   6.079   2.788   0.567
 5183SOL     OW17387   6.211  10.626   7.472
 5183SOL    HW117388   6.218  10.722   7.469
 5183SOL    HW217389   6.302  10.596   7.479
 5184SOL     OW17390  10.288   6.506   3.173
 5184SOL    HW117391  10.281   6.431   3.232
 5184SOL    HW217392  10.238   6.481   3.096
 5185SOL     OW17393  10.442  11.311   9.837
 5185SOL    HW117394  10.469  11.330   9.747
 5185SOL    HW217395  10.356  11.270   9.828
 5186SOL     OW17396  12.898   0.193   0.423
 5186SOL    HW117397  12.810   0.197   0.459
 5186SOL    HW217398  12.916   0.100   0.410
 5187SOL     OW17399   8.807   4.460  14.349
 5187SOL    HW117400   8.760   4.377  14.339
 5187SOL    HW217401   8.782   4.511  14.272
 5188SOL     OW17402   4.261   8.544   9.339
 5188SOL    HW117403   4.249   8.584   9.253
 5188SOL    HW217404   4.355   8.551   9.356
 5189SOL     OW17405   0.191   7.619  10.558
 5189SOL    HW117406   0.193   7.614  10.654
 5189SOL    HW217407   0.153   7.705  10.540
 5190SOL     OW17408   1.735  10.624   7.652
 5190SOL    HW117409   1.746  10.702   7.707
 5190SOL    HW217410   1.653  10.585   7.682
 5191SOL     OW17411  14.740   6.321   8.458
 5191SOL    HW117412  14.758   6.255   8.392
 5191SOL    HW217413  14.695   6.274   8.528
 5192SOL     OW17414   2.853   8.694   1.724
 5192SOL    HW117415   2.899   8.747   1.789
 5192SOL    HW217416   2.808   8.628   1.775
 5193SOL     OW17417   5.532   4.621  10.032
 5193SOL    HW117418   5.490   4.567   9.965
 5193SOL    HW217419   5.626   4.607  10.019
 5194SOL     OW17420   3.358   4.667   8.461
 5194SOL    HW117421   3.301   4.612   8.515
 5194SOL    HW217422   3.370   4.617   8.380
 5195SOL     OW17423   4.424   8.674   2.312
 5195SOL    HW117424   4.430   8.690   2.218
 5195SOL    HW217425   4.466   8.749   2.352
 5196SOL     OW17426  12.406   2.331   5.661
 5196SOL    HW117427  12.358   2.343   5.742
 5196SOL    HW217428  12.498   2.339   5.685
 5197SOL     OW17429  11.198  14.061   6.988
 5197SOL    HW117430  11.287  14.034   6.965
 5197SOL    HW217431  11.200  14.157   6.985
 5198SOL     OW17432  11.495   1.892  12.070
 5198SOL    HW117433  11.471   1.961  12.008
 5198SOL    HW217434  11.540   1.826  12.016
 5199SOL     OW17435   2.771   3.515   9.594
 5199SOL    HW117436   2.845   3.533   9.536
 5199SOL    HW217437   2.695   3.549   9.548
 5200SOL     OW17438  14.264  10.165   3.741
 5200SOL    HW117439  14.192  10.188   3.682
 5200SOL    HW217440  14.301  10.248   3.769
 5201SOL     OW17441  11.231   1.602   1.930
 5201SOL    HW117442  11.140   1.620   1.906
 5201SOL    HW217443  11.275   1.687   1.922
 5202SOL     OW17444   3.624   1.694   5.837
 5202SOL    HW117445   3.627   1.789   5.820
 5202SOL    HW217446   3.538   1.667   5.805
 5203SOL     OW17447  14.367   4.940  10.990
 5203SOL    HW117448  14.378   4.853  10.951
 5203SOL    HW217449  14.396   5.001  10.923
 5204SOL     OW17450   3.987   6.077   6.163
 5204SOL    HW117451   3.918   6.012   6.150
 5204SOL    HW217452   4.015   6.065   6.253
 5205SOL     OW17453  12.746   9.569   2.880
 5205SOL    HW117454  12.711   9.517   2.953
 5205SOL    HW217455  12.707   9.529   2.802
 5206SOL     OW17456   9.584   8.532   8.444
 5206SOL    HW117457   9.576   8.450   8.493
 5206SOL    HW217458   9.496   8.547   8.409
 5207SOL     OW17459   4.722  12.644  11.484
 5207SOL    HW117460   4.670  12.678  11.556
 5207SOL    HW217461   4.658  12.615  11.419
 5208SOL     OW17462   7.856  10.263  11.441
 5208SOL    HW117463   7.915  10.307  11.380
 5208SOL    HW217464   7.841  10.327  11.511
 5209SOL     OW17465   0.129   6.003  10.970
 5209SOL    HW117466   0.137   6.091  11.007
 5209SOL    HW217467   0.039   5.999  10.937
 5210SOL     OW17468   7.708  13.193   0.262
 5210SOL    HW117469   7.640  13.144   0.215
 5210SOL    HW217470   7.664  13.272   0.292
 5211SOL     OW17471  11.942  12.937  12.761
 5211SOL    HW117472  11.932  13.027  12.730
 5211SOL    HW217473  11.942  12.884  12.681
 5212SOL     OW17474   3.339  14.485  14.215
 5212SOL    HW117475   3.299  14.551  14.159
 5212SOL    HW217476   3.270  14.421  14.230
 5213SOL     OW17477   7.496   1.611   2.019
 5213SOL    HW117478   7.509   1.533   1.965
 5213SOL    HW217479   7.435   1.665   1.968
 5214SOL     OW17480   4.793   0.337   8.945
 5214SOL    HW117481   4.753   0.368   9.026
 5214SOL    HW217482   4.823   0.417   8.901
 5215SOL     OW17483  13.730  12.287  14.804
 5215SOL    HW117484  13.773  12.367  14.832
 5215SOL    HW217485  13.799  12.235  14.765
 5216SOL     OW17486   2.151  11.520   7.834
 5216SOL    HW117487   2.201  11.465   7.894
 5216SOL    HW217488   2.178  11.491   7.747
 5217SOL     OW17489  13.201   0.667   1.406
 5217SOL    HW117490  13.220   0.740   1.348
 5217SOL    HW217491  13.147   0.608   1.353
 5218SOL     OW17492   4.661  11.539  11.059
 5218SOL    HW117493   4.698  11.461  11.019
 5218SOL    HW217494   4.650  11.516  11.152
 5219SOL     OW17495   2.593   1.276  12.192
 5219SOL    HW117496   2.543   1.299  12.270
 5219SOL    HW217497   2.529   1.276  12.121
 5220SOL     OW17498   4.450  13.776   4.430
 5220SOL    HW117499   4.503  13.761   4.508
 5220SOL    HW217500   4.499  13.841   4.379
 5221SOL     OW17501  13.910   4.564   9.117
 5221SOL    HW117502  14.001   4.581   9.093
 5221SOL    HW217503  13.882   4.494   9.057
 5222SOL     OW17504  11.886  13.338   3.626
 5222SOL    HW117505  11.928  13.274   3.683
 5222SOL    HW217506  11.828  13.287   3.569
 5223SOL     OW17507   9.113   9.971   9.183
 5223SOL    HW117508   9.089   9.881   9.160
 5223SOL    HW217509   9.034  10.008   9.221
 5224SOL     OW17510  13.232  10.872  14.041
 5224SOL    HW117511  13.153  10.921  14.066
 5224SOL    HW217512  13.259  10.911  13.958
 5225SOL     OW17513   4.256   9.382  13.763
 5225SOL    HW117514   4.291   9.465  13.732
 5225SOL    HW217515   4.207   9.347  13.688
 5226SOL     OW17516  10.458  10.192   9.505
 5226SOL    HW117517  10.514  10.153   9.572
 5226SOL    HW217518  10.477  10.142   9.425
 5227SOL     OW17519   7.020   9.972   8.503
 5227SOL    HW117520   6.998   9.921   8.581
 5227SOL    HW217521   6.936   9.991   8.462
 5228SOL     OW17522   4.296   5.843  10.053
 5228SOL    HW117523   4.223   5.870  10.109
 5228SOL    HW217524   4.287   5.898   9.974
 5229SOL     OW17525   2.176   6.746  10.020
 5229SOL    HW117526   2.148   6.709   9.936
 5229SOL    HW217527   2.187   6.839  10.002
 5230SOL     OW17528  10.493   4.547   3.394
 5230SOL    HW117529  10.478   4.453   3.394
 5230SOL    HW217530  10.579   4.558   3.435
 5231SOL     OW17531   1.128   7.991  11.656
 5231SOL    HW117532   1.173   8.007  11.739
 5231SOL    HW217533   1.172   7.915  11.619
 5232SOL     OW17534   0.366   2.647  10.082
 5232SOL    HW117535   0.406   2.575  10.033
 5232SOL    HW217536   0.295   2.678  10.026
 5233SOL     OW17537   8.490   5.092   9.942
 5233SOL    HW117538   8.554   5.122   9.877
 5233SOL    HW217539   8.479   4.999   9.924
 5234SOL     OW17540   4.644  12.731  10.470
 5234SOL    HW117541   4.612  12.821  10.476
 5234SOL    HW217542   4.571  12.677  10.499
 5235SOL     OW17543   5.637   4.282   8.615
 5235SOL    HW117544   5.687   4.272   8.696
 5235SOL    HW217545   5.557   4.231   8.629
 5236SOL     OW17546  12.735   9.465   1.301
 5236SOL    HW117547  12.714   9.556   1.278
 5236SOL    HW217548  12.808   9.472   1.362
 5237SOL     OW17549   9.725   6.603   1.285
 5237SOL    HW117550   9.650   6.662   1.296
 5237SOL    HW217551   9.692   6.532   1.229
 5238SOL     OW17552   6.255  10.022   2.087
 5238SOL    HW117553   6.221   9.990   2.171
 5238SOL    HW217554   6.240   9.950   2.026
 5239SOL     OW17555   9.345   0.961  14.328
 5239SOL    HW117556   9.275   0.929  14.385
 5239SOL    HW217557   9.320   1.051  14.308
 5240SOL     OW17558  11.971   4.043   0.584
 5240SOL    HW117559  11.911   3.991   0.637
 5240SOL    HW217560  11.989   4.120   0.639
 5241SOL     OW17561  14.630   0.823  10.728
 5241SOL    HW117562  14.593   0.735  10.728
 5241SOL    HW217563  14.574   0.873  10.788
 5242SOL     OW17564   9.052   5.902  14.135
 5242SOL    HW117565   9.110   5.938  14.068
 5242SOL    HW217566   8.967   5.898  14.092
 5243SOL     OW17567   0.110  11.563   9.605
 5243SOL    HW117568   0.149  11.633   9.553
 5243SOL    HW217569   0.147  11.483   9.567
 5244SOL     OW17570   0.855  10.229   2.776
 5244SOL    HW117571   0.772  10.201   2.736
 5244SOL    HW217572   0.871  10.164   2.844
 5245SOL     OW17573   9.688  14.100  14.784
 5245SOL    HW117574   9.691  14.090  14.688
 5245SOL    HW217575   9.596  14.091  14.806
 5246SOL     OW17576  12.387  10.722  10.590
 5246SOL    HW117577  12.293  10.709  10.605
 5246SOL    HW217578  12.430  10.664  10.652
 5247SOL     OW17579   4.188  14.066   8.647
 5247SOL    HW117580   4.238  13.986   8.661
 5247SOL    HW217581   4.106  14.036   8.607
 5248SOL     OW17582   3.472   2.230  10.323
 5248SOL    HW117583   3.510   2.200  10.405
 5248SOL    HW217584   3.489   2.325  10.322
 5249SOL     OW17585  13.231  10.640   8.487
 5249SOL    HW117586  13.288  10.614   8.559
 5249SOL    HW217587  13.143  10.619   8.518
 5250SOL     OW17588   3.242   6.719   9.139
 5250SOL    HW117589   3.336   6.723   9.123
 5250SOL    HW217590   3.208   6.802   9.107
 5251SOL     OW17591  12.748   8.261  12.351
 5251SOL    HW117592  12.662   8.297  12.374
 5251SOL    HW217593  12.809   8.307  12.408
 5252SOL     OW17594   7.688  14.683   4.957
 5252SOL    HW117595   7.639  14.630   5.020
 5252SOL    HW217596   7.697  14.768   4.999
 5253SOL     OW17597   0.402   9.863   3.701
 5253SOL    HW117598   0.433   9.866   3.792
 5253SOL    HW217599   0.481   9.877   3.648
 5254SOL     OW17600   4.214   8.770   2.670
 5254SOL    HW117601   4.133   8.781   2.621
 5254SOL    HW217602   4.283   8.786   2.606
 5255SOL     OW17603  10.757   8.656   2.617
 5255SOL    HW117604  10.816   8.726   2.645
 5255SOL    HW217605  10.673   8.700   2.605
 5256SOL     OW17606  11.203  14.301   1.914
 5256SOL    HW117607  11.157  14.361   1.856
 5256SOL    HW217608  11.266  14.257   1.856
 5257SOL     OW17609   4.125  14.417  11.419
 5257SOL    HW117610   4.105  14.407  11.326
 5257SOL    HW217611   4.180  14.495  11.423
 5258SOL     OW17612   5.757   5.886  12.349
 5258SOL    HW117613   5.740   5.968  12.303
 5258SOL    HW217614   5.762   5.911  12.441
 5259SOL     OW17615  12.863  13.402   1.016
 5259SOL    HW117616  12.907  13.485   0.997
 5259SOL    HW217617  12.776  13.412   0.978
 5260SOL     OW17618   3.434  10.472   6.914
 5260SOL    HW117619   3.397  10.459   7.001
 5260SOL    HW217620   3.423  10.387   6.870
 5261SOL     OW17621  12.412  13.380  14.211
 5261SOL    HW117622  12.488  13.412  14.161
 5261SOL    HW217623  12.376  13.310  14.156
 5262SOL     OW17624  11.812  11.643   3.750
 5262SOL    HW117625  11.721  11.670   3.740
 5262SOL    HW217626  11.830  11.591   3.671
 5263SOL     OW17627  14.085   1.399  10.933
 5263SOL    HW117628  14.153   1.359  10.880
 5263SOL    HW217629  14.131   1.461  10.990
 5264SOL     OW17630  12.091   3.657   6.412
 5264SOL    HW117631  12.081   3.564   6.391
 5264SOL    HW217632  12.005   3.694   6.396
 5265SOL     OW17633   0.962  14.238   2.042
 5265SOL    HW117634   1.006  14.265   2.122
 5265SOL    HW217635   0.978  14.143   2.036
 5266SOL     OW17636   4.985   9.333   4.684
 5266SOL    HW117637   5.041   9.315   4.608
 5266SOL    HW217638   5.017   9.273   4.751
 5267SOL     OW17639   2.299   1.089  11.798
 5267SOL    HW117640   2.368   1.155  11.795
 5267SOL    HW217641   2.331   1.025  11.862
 5268SOL     OW17642   9.672   0.355   1.648
 5268SOL    HW117643   9.608   0.390   1.585
 5268SOL    HW217644   9.643   0.265   1.664
 5269SOL     OW17645   0.135   6.510   3.924
 5269SOL    HW117646   0.042   6.531   3.934
 5269SOL    HW217647   0.179   6.595   3.934
 5270SOL     OW17648   4.956  14.068   0.615
 5270SOL    HW117649   5.033  14.060   0.671
 5270SOL    HW217650   4.904  13.990   0.634
 5271SOL     OW17651   8.760  13.216  13.964
 5271SOL    HW117652   8.683  13.262  13.929
 5271SOL    HW217653   8.723  13.142  14.012
 5272SOL     OW17654  14.785  12.932  14.161
 5272SOL    HW117655  14.802  13.026  14.152
 5272SOL    HW217656  14.706  12.918  14.109
 5273SOL     OW17657   9.438   9.761   2.864
 5273SOL    HW117658   9.356   9.774   2.816
 5273SOL    HW217659   9.445   9.839   2.919
 5274SOL     OW17660   3.896   3.393  11.268
 5274SOL    HW117661   3.817   3.424  11.224
 5274SOL    HW217662   3.896   3.298  11.252
 5275SOL     OW17663   0.921   9.969   3.588
 5275SOL    HW117664   0.993   9.907   3.581
 5275SOL    HW217665   0.954  10.051   3.552
 5276SOL     OW17666  11.094  14.286   6.705
 5276SOL    HW117667  11.135  14.357   6.657
 5276SOL    HW217668  11.001  14.294   6.685
 5277SOL     OW17669  10.144   6.532   3.421
 5277SOL    HW117670  10.171   6.453   3.469
 5277SOL    HW217671  10.218   6.551   3.364
 5278SOL     OW17672   3.465   0.766   0.148
 5278SOL    HW117673   3.474   0.675   0.176
 5278SOL    HW217674   3.384   0.766   0.095
 5279SOL     OW17675   3.492   0.914  12.319
 5279SOL    HW117676   3.579   0.878  12.304
 5279SOL    HW217677   3.459   0.864  12.394
 5280SOL     OW17678  10.182   5.183   9.410
 5280SOL    HW117679  10.112   5.244   9.386
 5280SOL    HW217680  10.253   5.240   9.440
 5281SOL     OW17681  13.865   8.257   5.428
 5281SOL    HW117682  13.841   8.320   5.496
 5281SOL    HW217683  13.943   8.213   5.461
 5282SOL     OW17684   0.028   8.597   9.627
 5282SOL    HW117685   0.071   8.680   9.605
 5282SOL    HW217686  14.877   8.564   9.544
 5283SOL     OW17687   4.282   7.531  12.989
 5283SOL    HW117688   4.188   7.550  12.993
 5283SOL    HW217689   4.324   7.610  13.023
 5284SOL     OW17690   5.175  13.070   5.929
 5284SOL    HW117691   5.183  13.140   5.993
 5284SOL    HW217692   5.130  12.999   5.975
 5285SOL     OW17693   0.291   9.254   7.831
 5285SOL    HW117694   0.287   9.175   7.885
 5285SOL    HW217695   0.368   9.302   7.863
 5286SOL     OW17696   2.927  12.194   9.872
 5286SOL    HW117697   2.917  12.164   9.781
 5286SOL    HW217698   3.020  12.182   9.890
 5287SOL     OW17699   8.072   2.039   3.675
 5287SOL    HW117700   8.118   1.980   3.733
 5287SOL    HW217701   8.106   2.019   3.588
 5288SOL     OW17702  11.652   6.365   1.047
 5288SOL    HW117703  11.587   6.375   1.117
 5288SOL    HW217704  11.607   6.315   0.979
 5289SOL     OW17705  12.533   4.663   3.157
 5289SOL    HW117706  12.607   4.652   3.097
 5289SOL    HW217707  12.456   4.653   3.101
 5290SOL     OW17708  13.102   5.327  14.629
 5290SOL    HW117709  13.088   5.419  14.609
 5290SOL    HW217710  13.190   5.308  14.595
 5291SOL     OW17711   9.637   7.918   6.271
 5291SOL    HW117712   9.606   7.923   6.181
 5291SOL    HW217713   9.645   8.010   6.298
 5292SOL     OW17714   0.832  13.145   2.849
 5292SOL    HW117715   0.921  13.160   2.819
 5292SOL    HW217716   0.783  13.220   2.815
 5293SOL     OW17717   9.838   4.573  10.580
 5293SOL    HW117718   9.773   4.643  10.585
 5293SOL    HW217719   9.788   4.495  10.555
 5294SOL     OW17720  11.504  13.915   0.654
 5294SOL    HW117721  11.486  13.942   0.563
 5294SOL    HW217722  11.594  13.941   0.670
 5295SOL     OW17723  13.293   5.169  12.828
 5295SOL    HW117724  13.367   5.149  12.885
 5295SOL    HW217725  13.332   5.181  12.742
 5296SOL     OW17726   0.486  14.855   8.605
 5296SOL    HW117727   0.580  14.869   8.590
 5296SOL    HW217728   0.443   0.025   8.538
 5297SOL     OW17729  12.300  14.305   2.464
 5297SOL    HW117730  12.320  14.383   2.516
 5297SOL    HW217731  12.319  14.231   2.522
 5298SOL     OW17732  14.724   2.289  10.869
 5298SOL    HW117733  14.634   2.305  10.842
 5298SOL    HW217734  14.726   2.311  10.962
 5299SOL     OW17735   6.082   7.907  11.477
 5299SOL    HW117736   6.059   7.815  11.465
 5299SOL    HW217737   6.177   7.909  11.474
 5300SOL     OW17738   3.749  14.021   3.972
 5300SOL    HW117739   3.726  14.083   3.902
 5300SOL    HW217740   3.700  13.942   3.951
 5301SOL     OW17741   7.592  12.611  12.949
 5301SOL    HW117742   7.541  12.657  13.015
 5301SOL    HW217743   7.600  12.521  12.982
 5302SOL     OW17744   2.125   9.042   9.706
 5302SOL    HW117745   2.142   8.988   9.783
 5302SOL    HW217746   2.182   9.119   9.718
 5303SOL     OW17747  10.745   4.657   3.009
 5303SOL    HW117748  10.776   4.608   3.085
 5303SOL    HW217749  10.783   4.744   3.020
 5304SOL     OW17750   9.614   1.360   0.613
 5304SOL    HW117751   9.568   1.378   0.695
 5304SOL    HW217752   9.545   1.347   0.549
 5305SOL     OW17753  11.992   8.029   4.112
 5305SOL    HW117754  11.958   7.945   4.143
 5305SOL    HW217755  11.914   8.081   4.092
 5306SOL     OW17756   7.414   1.479  12.998
 5306SOL    HW117757   7.344   1.413  13.002
 5306SOL    HW217758   7.389   1.535  12.925
 5307SOL     OW17759   5.009   6.819   1.279
 5307SOL    HW117760   5.049   6.776   1.354
 5307SOL    HW217761   5.031   6.912   1.290
 5308SOL     OW17762   5.238   8.573   3.358
 5308SOL    HW117763   5.308   8.628   3.394
 5308SOL    HW217764   5.275   8.485   3.360
 5309SOL     OW17765  11.368   1.969   8.157
 5309SOL    HW117766  11.280   1.939   8.180
 5309SOL    HW217767  11.396   2.020   8.233
 5310SOL     OW17768   9.463  11.175   0.888
 5310SOL    HW117769   9.443  11.135   0.972
 5310SOL    HW217770   9.378  11.182   0.844
 5311SOL     OW17771  12.363   7.356  10.168
 5311SOL    HW117772  12.387   7.444  10.139
 5311SOL    HW217773  12.415   7.298  10.113
 5312SOL     OW17774   3.265  14.378   7.013
 5312SOL    HW117775   3.237  14.300   7.061
 5312SOL    HW217776   3.333  14.416   7.068
 5313SOL     OW17777   7.658  11.518   9.442
 5313SOL    HW117778   7.738  11.481   9.406
 5313SOL    HW217779   7.663  11.503   9.536
 5314SOL     OW17780   8.485   2.077  10.242
 5314SOL    HW117781   8.414   2.126  10.201
 5314SOL    HW217782   8.490   2.111  10.331
 5315SOL     OW17783   4.094   3.257   6.013
 5315SOL    HW117784   4.155   3.315   6.059
 5315SOL    HW217785   4.102   3.283   5.921
 5316SOL     OW17786   5.837   5.607  11.375
 5316SOL    HW117787   5.902   5.577  11.438
 5316SOL    HW217788   5.831   5.537  11.310
 5317SOL     OW17789  12.441   6.343   8.479
 5317SOL    HW117790  12.505   6.377   8.541
 5317SOL    HW217791  12.356   6.368   8.515
 5318SOL     OW17792   4.271   6.045  14.859
 5318SOL    HW117793   4.263   6.024  14.766
 5318SOL    HW217794   4.364   6.064  14.871
 5319SOL     OW17795  10.169   2.729  10.194
 5319SOL    HW117796  10.184   2.798  10.129
 5319SOL    HW217797  10.199   2.766  10.277
 5320SOL     OW17798   7.309   9.242   8.830
 5320SOL    HW117799   7.400   9.238   8.861
 5320SOL    HW217800   7.309   9.191   8.749
 5321SOL     OW17801   5.369  12.690  14.118
 5321SOL    HW117802   5.335  12.723  14.201
 5321SOL    HW217803   5.362  12.594  14.126
 5322SOL     OW17804   5.899   7.799  13.108
 5322SOL    HW117805   5.809   7.799  13.074
 5322SOL    HW217806   5.892   7.840  13.194
 5323SOL     OW17807  12.825   9.725   1.183
 5323SOL    HW117808  12.828   9.784   1.259
 5323SOL    HW217809  12.773   9.772   1.118
 5324SOL     OW17810   7.541  10.242   9.530
 5324SOL    HW117811   7.531  10.266   9.438
 5324SOL    HW217812   7.471  10.289   9.575
 5325SOL     OW17813  13.431   1.611  10.338
 5325SOL    HW117814  13.473   1.551  10.277
 5325SOL    HW217815  13.376   1.555  10.393
 5326SOL     OW17816   8.554   3.853   1.973
 5326SOL    HW117817   8.537   3.875   1.881
 5326SOL    HW217818   8.649   3.838   1.976
 5327SOL     OW17819  14.551   6.479   8.882
 5327SOL    HW117820  14.618   6.411   8.876
 5327SOL    HW217821  14.601   6.561   8.887
 5328SOL     OW17822   0.349   5.227  11.827
 5328SOL    HW117823   0.408   5.212  11.900
 5328SOL    HW217824   0.338   5.141  11.787
 5329SOL     OW17825   1.894  12.406   4.010
 5329SOL    HW117826   1.989  12.397   4.006
 5329SOL    HW217827   1.874  12.476   3.948
 5330SOL     OW17828   9.278   7.238  10.368
 5330SOL    HW117829   9.349   7.173  10.364
 5330SOL    HW217830   9.302   7.294  10.442
 5331SOL     OW17831   1.567   6.258   2.223
 5331SOL    HW117832   1.578   6.341   2.270
 5331SOL    HW217833   1.504   6.278   2.154
 5332SOL     OW17834  10.424  10.620  11.201
 5332SOL    HW117835  10.447  10.546  11.258
 5332SOL    HW217836  10.329  10.624  11.204
 5333SOL     OW17837   6.762   8.381   8.894
 5333SOL    HW117838   6.833   8.437   8.863
 5333SOL    HW217839   6.770   8.301   8.841
 5334SOL     OW17840   4.368   4.117   1.950
 5334SOL    HW117841   4.381   4.177   1.876
 5334SOL    HW217842   4.276   4.130   1.975
 5335SOL     OW17843   7.355  14.310   4.257
 5335SOL    HW117844   7.328  14.390   4.303
 5335SOL    HW217845   7.288  14.246   4.280
 5336SOL     OW17846  10.723   1.789  10.585
 5336SOL    HW117847  10.746   1.713  10.639
 5336SOL    HW217848  10.681   1.850  10.646
 5337SOL     OW17849  11.835  12.246   8.833
 5337SOL    HW117850  11.759  12.200   8.799
 5337SOL    HW217851  11.854  12.313   8.768
 5338SOL     OW17852  11.828   0.390   9.572
 5338SOL    HW117853  11.810   0.480   9.546
 5338SOL    HW217854  11.828   0.391   9.667
 5339SOL     OW17855  10.357   6.555   3.761
 5339SOL    HW117856  10.386   6.642   3.791
 5339SOL    HW217857  10.263   6.565   3.746
 5340SOL     OW17858  14.536  13.556   2.432
 5340SOL    HW117859  14.465  13.612   2.402
 5340SOL    HW217860  14.578  13.526   2.351
 5341SOL     OW17861   1.701  13.117   8.453
 5341SOL    HW117862   1.779  13.168   8.430
 5341SOL    HW217863   1.644  13.127   8.376
 5342SOL     OW17864  12.411   7.357  14.571
 5342SOL    HW117865  12.391   7.266  14.589
 5342SOL    HW217866  12.377   7.372  14.482
 5343SOL     OW17867   8.577  14.216  11.913
 5343SOL    HW117868   8.506  14.200  11.850
 5343SOL    HW217869   8.553  14.298  11.956
 5344SOL     OW17870   0.609   6.779   8.136
 5344SOL    HW117871   0.636   6.846   8.073
 5344SOL    HW217872   0.545   6.825   8.192
 5345SOL     OW17873   1.853   9.234   3.726
 5345SOL    HW117874   1.897   9.156   3.692
 5345SOL    HW217875   1.766   9.232   3.685
 5346SOL     OW17876   2.645  10.005  13.470
 5346SOL    HW117877   2.575  10.004  13.405
 5346SOL    HW217878   2.706  10.072  13.440
 5347SOL     OW17879   0.749   8.400  10.931
 5347SOL    HW117880   0.799   8.435  11.004
 5347SOL    HW217881   0.790   8.438  10.853
 5348SOL     OW17882   7.656   7.613   9.584
 5348SOL    HW117883   7.738   7.607   9.536
 5348SOL    HW217884   7.623   7.701   9.563
 5349SOL     OW17885  14.470   9.460   1.889
 5349SOL    HW117886  14.517   9.377   1.885
 5349SOL    HW217887  14.462   9.488   1.798
 5350SOL     OW17888   6.549   5.867   3.005
 5350SOL    HW117889   6.516   5.801   3.066
 5350SOL    HW217890   6.644   5.868   3.020
 5351SOL     OW17891   4.093   4.380   8.263
 5351SOL    HW117892   4.051   4.445   8.208
 5351SOL    HW217893   4.185   4.404   8.264
 5352SOL     OW17894   4.204  12.211  11.824
 5352SOL    HW117895   4.150  12.211  11.745
 5352SOL    HW217896   4.180  12.130  11.870
 5353SOL     OW17897   9.631   8.385   6.655
 5353SOL    HW117898   9.563   8.323   6.679
 5353SOL    HW217899   9.713   8.341   6.678
 5354SOL     OW17900   8.010   2.507   1.989
 5354SOL    HW117901   7.955   2.581   1.964
 5354SOL    HW217902   7.952   2.451   2.041
 5355SOL     OW17903  11.181  10.685   4.401
 5355SOL    HW117904  11.132  10.645   4.329
 5355SOL    HW217905  11.235  10.751   4.358
 5356SOL     OW17906  11.793   9.822   5.265
 5356SOL    HW117907  11.780   9.909   5.302
 5356SOL    HW217908  11.859   9.834   5.197
 5357SOL     OW17909   6.146  11.604   9.558
 5357SOL    HW117910   6.216  11.544   9.585
 5357SOL    HW217911   6.147  11.601   9.462
 5358SOL     OW17912   4.680   8.501  12.629
 5358SOL    HW117913   4.688   8.548  12.712
 5358SOL    HW217914   4.589   8.472  12.626
 5359SOL     OW17915  11.578  10.034  13.004
 5359SOL    HW117916  11.552  10.064  12.917
 5359SOL    HW217917  11.498  10.040  13.056
 5360SOL     OW17918  12.660   1.978   7.339
 5360SOL    HW117919  12.613   2.048   7.384
 5360SOL    HW217920  12.709   2.022   7.270
 5361SOL     OW17921  10.487   9.791  11.297
 5361SOL    HW117922  10.519   9.701  11.300
 5361SOL    HW217923  10.503   9.819  11.207
 5362SOL     OW17924   2.832  11.261   0.062
 5362SOL    HW117925   2.796  11.179   0.097
 5362SOL    HW217926   2.909  11.278   0.115
 5363SOL     OW17927   0.464  11.896  14.195
 5363SOL    HW117928   0.520  11.855  14.261
 5363SOL    HW217929   0.443  11.982  14.232
 5364SOL     OW17930  13.632   2.138   5.279
 5364SOL    HW117931  13.547   2.172   5.309
 5364SOL    HW217932  13.695   2.174   5.341
 5365SOL     OW17933  13.685   1.054   1.781
 5365SOL    HW117934  13.685   0.974   1.832
 5365SOL    HW217935  13.726   1.030   1.698
 5366SOL     OW17936   4.612   4.200  11.013
 5366SOL    HW117937   4.549   4.269  11.032
 5366SOL    HW217938   4.639   4.167  11.099
 5367SOL     OW17939   1.454   8.054  13.921
 5367SOL    HW117940   1.435   8.030  13.831
 5367SOL    HW217941   1.375   8.098  13.952
 5368SOL     OW17942   3.912   4.920  14.113
 5368SOL    HW117943   3.866   4.995  14.151
 5368SOL    HW217944   3.936   4.950  14.025
 5369SOL     OW17945   3.329   1.510  10.001
 5369SOL    HW117946   3.414   1.468  10.015
 5369SOL    HW217947   3.339   1.558   9.919
 5370SOL     OW17948   0.308   7.903   1.044
 5370SOL    HW117949   0.360   7.964   0.991
 5370SOL    HW217950   0.219   7.911   1.009
 5371SOL     OW17951   1.835  13.134   8.704
 5371SOL    HW117952   1.757  13.120   8.757
 5371SOL    HW217953   1.810  13.107   8.615
 5372SOL     OW17954  10.184  14.682   1.713
 5372SOL    HW117955  10.258  14.652   1.661
 5372SOL    HW217956  10.224  14.739   1.779
 5373SOL     OW17957  12.915  12.496   1.532
 5373SOL    HW117958  12.912  12.590   1.549
 5373SOL    HW217959  12.849  12.459   1.589
 5374SOL     OW17960   7.152  11.454   9.147
 5374SOL    HW117961   7.096  11.520   9.106
 5374SOL    HW217962   7.235  11.498   9.161
 5375SOL     OW17963   9.184   6.340   3.499
 5375SOL    HW117964   9.170   6.271   3.434
 5375SOL    HW217965   9.111   6.400   3.487
 5376SOL     OW17966   4.608  10.374   4.044
 5376SOL    HW117967   4.684  10.335   4.000
 5376SOL    HW217968   4.646  10.432   4.110
 5377SOL     OW17969   8.617   7.220   9.735
 5377SOL    HW117970   8.607   7.315   9.736
 5377SOL    HW217971   8.688   7.204   9.672
 5378SOL     OW17972   2.561  13.425  14.312
 5378SOL    HW117973   2.632  13.420  14.249
 5378SOL    HW217974   2.562  13.341  14.357
 5379SOL     OW17975   0.416   9.803   5.832
 5379SOL    HW117976   0.479   9.789   5.761
 5379SOL    HW217977   0.392   9.895   5.826
 5380SOL     OW17978  12.096  14.417  12.092
 5380SOL    HW117979  12.151  14.434  12.015
 5380SOL    HW217980  12.010  14.395  12.056
 5381SOL     OW17981  13.748  10.483  14.000
 5381SOL    HW117982  13.790  10.520  14.078
 5381SOL    HW217983  13.818  10.477  13.936
 5382SOL     OW17984   0.220   1.450   6.455
 5382SOL    HW117985   0.178   1.377   6.410
 5382SOL    HW217986   0.151   1.516   6.462
 5383SOL     OW17987   8.369   0.379   7.497
 5383SOL    HW117988   8.358   0.474   7.492
 5383SOL    HW217989   8.308   0.344   7.432
 5384SOL     OW17990   2.296   2.548   4.516
 5384SOL    HW117991   2.231   2.565   4.583
 5384SOL    HW217992   2.264   2.594   4.438
 5385SOL     OW17993  11.331   8.520  13.639
 5385SOL    HW117994  11.342   8.567  13.722
 5385SOL    HW217995  11.266   8.453  13.659
 5386SOL     OW17996   3.523   9.285   1.403
 5386SOL    HW117997   3.516   9.232   1.323
 5386SOL    HW217998   3.524   9.221   1.474
 5387SOL     OW17999  11.835   9.988  12.873
 5387SOL    HW118000  11.866   9.913  12.924
 5387SOL    HW218001  11.748  10.007  12.908
 5388SOL     OW18002   6.684   2.773   1.297
 5388SOL    HW118003   6.755   2.734   1.245
 5388SOL    HW218004   6.721   2.855   1.329
 5389SOL     OW18005   8.557  14.014  11.257
 5389SOL    HW118006   8.534  13.979  11.344
 5389SOL    HW218007   8.504  13.962  11.196
 5390SOL     OW18008   3.594  12.321  12.974
 5390SOL    HW118009   3.554  12.369  12.902
 5390SOL    HW218010   3.653  12.384  13.015
 5391SOL     OW18011   1.811  13.373   1.355
 5391SOL    HW118012   1.810  13.418   1.439
 5391SOL    HW218013   1.783  13.440   1.292
 5392SOL     OW18014   6.017   9.174   5.447
 5392SOL    HW118015   5.939   9.156   5.499
 5392SOL    HW218016   6.074   9.224   5.505
 5393SOL     OW18017   7.948   3.154   9.278
 5393SOL    HW118018   7.954   3.060   9.264
 5393SOL    HW218019   7.854   3.173   9.278
 5394SOL     OW18020   6.780   2.892   0.266
 5394SOL    HW118021   6.724   2.961   0.301
 5394SOL    HW218022   6.758   2.814   0.316
 5395SOL     OW18023   3.027   9.953   8.430
 5395SOL    HW118024   3.058   9.902   8.505
 5395SOL    HW218025   3.080   9.923   8.356
 5396SOL     OW18026   8.893   7.719  11.275
 5396SOL    HW118027   8.822   7.719  11.211
 5396SOL    HW218028   8.972   7.732  11.223
 5397SOL     OW18029  10.427   7.137  12.243
 5397SOL    HW118030  10.365   7.202  12.210
 5397SOL    HW218031  10.483   7.187  12.303
 5398SOL     OW18032  13.582  11.305   6.477
 5398SOL    HW118033  13.569  11.261   6.560
 5398SOL    HW218034  13.498  11.294   6.431
 5399SOL     OW18035  11.055   4.790   1.230
 5399SOL    HW118036  11.049   4.742   1.148
 5399SOL    HW218037  11.014   4.734   1.295
 5400SOL     OW18038   2.701   1.113   0.134
 5400SOL    HW118039   2.666   1.198   0.106
 5400SOL    HW218040   2.681   1.109   0.227
 5401SOL     OW18041   1.954   5.288   4.628
 5401SOL    HW118042   1.915   5.346   4.563
 5401SOL    HW218043   1.994   5.346   4.692
 5402SOL     OW18044  12.899   8.303   4.139
 5402SOL    HW118045  12.891   8.240   4.210
 5402SOL    HW218046  12.982   8.347   4.156
 5403SOL     OW18047   5.489  13.588   9.554
 5403SOL    HW118048   5.527  13.568   9.639
 5403SOL    HW218049   5.406  13.630   9.574
 5404SOL     OW18050   1.345   3.476  13.198
 5404SOL    HW118051   1.399   3.552  13.177
 5404SOL    HW218052   1.353   3.420  13.120
 5405SOL     OW18053  11.767   8.311   3.195
 5405SOL    HW118054  11.736   8.259   3.121
 5405SOL    HW218055  11.734   8.399   3.177
 5406SOL     OW18056   7.472  14.637   0.833
 5406SOL    HW118057   7.452  14.730   0.846
 5406SOL    HW218058   7.564  14.636   0.805
 5407SOL     OW18059   9.496   9.306   8.063
 5407SOL    HW118060   9.568   9.266   8.014
 5407SOL    HW218061   9.537   9.346   8.139
 5408SOL     OW18062  11.047  13.037  10.809
 5408SOL    HW118063  11.127  12.986  10.823
 5408SOL    HW218064  11.058  13.114  10.866
 5409SOL     OW18065   5.526  10.781  12.643
 5409SOL    HW118066   5.568  10.715  12.698
 5409SOL    HW218067   5.515  10.739  12.558
 5410SOL     OW18068   7.047   7.574   7.453
 5410SOL    HW118069   7.029   7.564   7.360
 5410SOL    HW218070   6.961   7.578   7.494
 5411SOL     OW18071   8.938   6.889   6.783
 5411SOL    HW118072   9.006   6.824   6.798
 5411SOL    HW218073   8.859   6.838   6.764
 5412SOL     OW18074  10.302   9.282   9.996
 5412SOL    HW118075  10.382   9.252   9.953
 5412SOL    HW218076  10.333   9.343  10.063
 5413SOL     OW18077   9.093  14.246  12.844
 5413SOL    HW118078   9.115  14.338  12.833
 5413SOL    HW218079   9.006  14.246  12.883
 5414SOL     OW18080   3.524  12.354   5.347
 5414SOL    HW118081   3.507  12.432   5.401
 5414SOL    HW218082   3.615  12.331   5.366
 5415SOL     OW18083   8.954  14.665  13.479
 5415SOL    HW118084   9.036  14.712  13.491
 5415SOL    HW218085   8.886  14.731  13.492
 5416SOL     OW18086   3.853   3.952   8.099
 5416SOL    HW118087   3.841   4.047   8.112
 5416SOL    HW218088   3.905   3.946   8.019
 5417SOL     OW18089   6.051  14.028  13.831
 5417SOL    HW118090   6.059  14.119  13.802
 5417SOL    HW218091   6.091  13.977  13.760
 5418SOL     OW18092   8.139  10.550   6.147
 5418SOL    HW118093   8.195  10.601   6.205
 5418SOL    HW218094   8.199  10.494   6.097
 5419SOL     OW18095  12.805   9.768   5.613
 5419SOL    HW118096  12.738   9.813   5.561
 5419SOL    HW218097  12.876   9.753   5.551
 5420SOL     OW18098   9.227   1.768   5.724
 5420SOL    HW118099   9.221   1.674   5.707
 5420SOL    HW218100   9.137   1.795   5.742
 5421SOL     OW18101   1.724   5.815  14.765
 5421SOL    HW118102   1.670   5.764  14.826
 5421SOL    HW218103   1.681   5.805  14.680
 5422SOL     OW18104   2.470  13.758   9.928
 5422SOL    HW118105   2.395  13.707   9.958
 5422SOL    HW218106   2.503  13.710   9.853
 5423SOL     OW18107   7.325  14.061   4.803
 5423SOL    HW118108   7.414  14.030   4.791
 5423SOL    HW218109   7.322  14.144   4.756
 5424SOL     OW18110   1.915  10.905  14.421
 5424SOL    HW118111   1.820  10.899  14.431
 5424SOL    HW218112   1.932  10.870  14.334
 5425SOL     OW18113   5.524   7.809   1.457
 5425SOL    HW118114   5.428   7.813   1.458
 5425SOL    HW218115   5.552   7.881   1.514
 5426SOL     OW18116   1.439   9.050   4.211
 5426SOL    HW118117   1.386   8.973   4.233
 5426SOL    HW218118   1.404   9.119   4.267
 5427SOL     OW18119  12.267  14.556   9.652
 5427SOL    HW118120  12.276  14.568   9.557
 5427SOL    HW218121  12.357  14.558   9.685
 5428SOL     OW18122   3.556   6.733   3.699
 5428SOL    HW118123   3.644   6.766   3.715
 5428SOL    HW218124   3.545   6.661   3.760
 5429SOL     OW18125   0.888  10.089   7.076
 5429SOL    HW118126   0.972  10.105   7.032
 5429SOL    HW218127   0.836  10.167   7.058
 5430SOL     OW18128   6.369   2.344   5.082
 5430SOL    HW118129   6.293   2.353   5.024
 5430SOL    HW218130   6.421   2.422   5.065
 5431SOL     OW18131  13.067  13.216  10.719
 5431SOL    HW118132  13.145  13.261  10.750
 5431SOL    HW218133  12.998  13.242  10.780
 5432SOL     OW18134   3.630   3.190   1.924
 5432SOL    HW118135   3.694   3.254   1.893
 5432SOL    HW218136   3.555   3.201   1.866
 5433SOL     OW18137   1.297  12.277   1.069
 5433SOL    HW118138   1.296  12.372   1.058
 5433SOL    HW218139   1.222  12.247   1.018
 5434SOL     OW18140  10.761   3.919   0.206
 5434SOL    HW118141  10.824   3.877   0.265
 5434SOL    HW218142  10.719   3.986   0.259
 5435SOL     OW18143   5.310  14.589   4.384
 5435SOL    HW118144   5.374  14.656   4.360
 5435SOL    HW218145   5.307  14.531   4.307
 5436SOL     OW18146   1.353  10.541  11.850
 5436SOL    HW118147   1.354  10.479  11.777
 5436SOL    HW218148   1.286  10.508  11.909
 5437SOL     OW18149   8.038   2.731   6.123
 5437SOL    HW118150   8.128   2.732   6.155
 5437SOL    HW218151   8.017   2.639   6.111
 5438SOL     OW18152   6.807   6.547   6.326
 5438SOL    HW118153   6.868   6.523   6.256
 5438SOL    HW218154   6.862   6.559   6.403
 5439SOL     OW18155  11.532  14.385   3.807
 5439SOL    HW118156  11.526  14.293   3.782
 5439SOL    HW218157  11.453  14.401   3.859
 5440SOL     OW18158   3.950   9.359   2.057
 5440SOL    HW118159   3.928   9.452   2.061
 5440SOL    HW218160   3.900   9.326   1.981
 5441SOL     OW18161   5.784   5.686   6.446
 5441SOL    HW118162   5.783   5.594   6.417
 5441SOL    HW218163   5.692   5.707   6.463
 5442SOL     OW18164   3.462  14.142   9.070
 5442SOL    HW118165   3.387  14.184   9.027
 5442SOL    HW218166   3.539  14.184   9.032
 5443SOL     OW18167   1.906  12.110  14.214
 5443SOL    HW118168   1.865  12.053  14.150
 5443SOL    HW218169   1.978  12.152  14.167
 5444SOL     OW18170   8.076   0.556  13.669
 5444SOL    HW118171   8.091   0.646  13.640
 5444SOL    HW218172   7.996   0.529  13.624
 5445SOL     OW18173   8.962   0.579   3.657
 5445SOL    HW118174   9.034   0.558   3.596
 5445SOL    HW218175   8.999   0.645   3.715
 5446SOL     OW18176  13.899   1.476   4.529
 5446SOL    HW118177  13.823   1.534   4.517
 5446SOL    HW218178  13.909   1.433   4.444
 5447SOL     OW18179   3.714   2.306   3.223
 5447SOL    HW118180   3.729   2.400   3.208
 5447SOL    HW218181   3.708   2.298   3.319
 5448SOL     OW18182   0.114   6.178   7.970
 5448SOL    HW118183   0.205   6.152   7.956
 5448SOL    HW218184   0.064   6.112   7.921
 5449SOL     OW18185   9.928   2.651   2.902
 5449SOL    HW118186   9.925   2.742   2.934
 5449SOL    HW218187   9.851   2.610   2.940
 5450SOL     OW18188   4.286   6.186  12.583
 5450SOL    HW118189   4.332   6.146  12.657
 5450SOL    HW218190   4.321   6.140  12.506
 5451SOL     OW18191   8.295  14.041  14.840
 5451SOL    HW118192   8.225  13.991  14.880
 5451SOL    HW218193   8.302  14.007  14.751
 5452SOL     OW18194   8.651  14.144   5.175
 5452SOL    HW118195   8.620  14.174   5.261
 5452SOL    HW218196   8.705  14.216   5.143
 5453SOL     OW18197   8.657   5.444   4.795
 5453SOL    HW118198   8.723   5.465   4.861
 5453SOL    HW218199   8.646   5.525   4.745
 5454SOL     OW18200  12.650   0.167   3.459
 5454SOL    HW118201  12.585   0.168   3.529
 5454SOL    HW218202  12.619   0.099   3.399
 5455SOL     OW18203   7.273   5.363   2.854
 5455SOL    HW118204   7.323   5.395   2.930
 5455SOL    HW218205   7.326   5.387   2.778
 5456SOL     OW18206   0.387   1.582  11.122
 5456SOL    HW118207   0.358   1.490  11.116
 5456SOL    HW218208   0.481   1.578  11.105
 5457SOL     OW18209   9.119   2.376   0.761
 5457SOL    HW118210   9.168   2.416   0.833
 5457SOL    HW218211   9.181   2.377   0.687
 5458SOL     OW18212   3.740  12.817   6.461
 5458SOL    HW118213   3.742  12.902   6.419
 5458SOL    HW218214   3.698  12.759   6.398
 5459SOL     OW18215   1.790   1.428   0.129
 5459SOL    HW118216   1.812   1.359   0.191
 5459SOL    HW218217   1.750   1.496   0.183
 5460SOL     OW18218   0.072   8.194   0.929
 5460SOL    HW118219   0.059   8.232   1.016
 5460SOL    HW218220   0.165   8.170   0.927
 5461SOL     OW18221   3.106   9.646  12.660
 5461SOL    HW118222   3.184   9.592  12.671
 5461SOL    HW218223   3.139   9.736  12.657
 5462SOL     OW18224   6.308   1.371   3.815
 5462SOL    HW118225   6.227   1.421   3.803
 5462SOL    HW218226   6.345   1.365   3.727
 5463SOL     OW18227   1.765   4.144   4.764
 5463SOL    HW118228   1.809   4.103   4.690
 5463SOL    HW218229   1.685   4.092   4.777
 5464SOL     OW18230  11.763   6.896   6.446
 5464SOL    HW118231  11.781   6.984   6.411
 5464SOL    HW218232  11.850   6.859   6.461
 5465SOL     OW18233   7.806   7.533   0.829
 5465SOL    HW118234   7.728   7.513   0.882
 5465SOL    HW218235   7.818   7.456   0.774
 5466SOL     OW18236  14.577  11.919  11.133
 5466SOL    HW118237  14.622  11.994  11.172
 5466SOL    HW218238  14.636  11.845  11.148
 5467SOL     OW18239   1.538   4.405  10.130
 5467SOL    HW118240   1.507   4.328  10.083
 5467SOL    HW218241   1.458   4.450  10.158
 5468SOL     OW18242   3.866   2.979   1.602
 5468SOL    HW118243   3.770   2.978   1.599
 5468SOL    HW218244   3.892   2.903   1.551
 5469SOL     OW18245   5.140  12.992   2.115
 5469SOL    HW118246   5.199  12.933   2.161
 5469SOL    HW218247   5.053  12.954   2.127
 5470SOL     OW18248  12.468  14.099   0.877
 5470SOL    HW118249  12.413  14.021   0.881
 5470SOL    HW218250  12.470  14.122   0.784
 5471SOL     OW18251   4.392   4.442   8.347
 5471SOL    HW118252   4.460   4.438   8.279
 5471SOL    HW218253   4.366   4.534   8.349
 5472SOL     OW18254   5.145   3.275   5.676
 5472SOL    HW118255   5.222   3.324   5.707
 5472SOL    HW218256   5.179   3.219   5.606
 5473SOL     OW18257   4.024   0.868   0.971
 5473SOL    HW118258   4.013   0.857   0.876
 5473SOL    HW218259   4.092   0.935   0.979
 5474SOL     OW18260   2.970   0.422  10.721
 5474SOL    HW118261   2.977   0.342  10.773
 5474SOL    HW218262   3.058   0.434  10.684
 5475SOL     OW18263   5.963   8.336   5.313
 5475SOL    HW118264   5.948   8.333   5.408
 5475SOL    HW218265   5.897   8.397   5.280
 5476SOL     OW18266   1.128   0.308  10.264
 5476SOL    HW118267   1.139   0.217  10.293
 5476SOL    HW218268   1.057   0.341  10.319
 5477SOL     OW18269   8.655  13.421   6.590
 5477SOL    HW118270   8.566  13.444   6.563
 5477SOL    HW218271   8.708  13.495   6.563
 5478SOL     OW18272   1.744   5.181   5.749
 5478SOL    HW118273   1.739   5.121   5.823
 5478SOL    HW218274   1.811   5.144   5.692
 5479SOL     OW18275   6.021  14.625   6.169
 5479SOL    HW118276   6.079  14.573   6.113
 5479SOL    HW218277   6.046  14.600   6.258
 5480SOL     OW18278  10.353  12.083   6.665
 5480SOL    HW118279  10.331  12.140   6.592
 5480SOL    HW218280  10.448  12.093   6.676
 5481SOL     OW18281   8.720   5.092  13.738
 5481SOL    HW118282   8.659   5.136  13.795
 5481SOL    HW218283   8.805   5.098  13.783
 5482SOL     OW18284   8.173   8.129   1.065
 5482SOL    HW118285   8.261   8.096   1.084
 5482SOL    HW218286   8.187   8.200   1.001
 5483SOL     OW18287  11.148   5.611   0.348
 5483SOL    HW118288  11.072   5.664   0.324
 5483SOL    HW218289  11.127   5.523   0.315
 5484SOL     OW18290   5.101  14.121   4.668
 5484SOL    HW118291   5.176  14.081   4.713
 5484SOL    HW218292   5.104  14.213   4.693
 5485SOL     OW18293   0.543   7.323  13.198
 5485SOL    HW118294   0.547   7.244  13.252
 5485SOL    HW218295   0.631   7.361  13.203
 5486SOL     OW18296  13.265   5.557   6.476
 5486SOL    HW118297  13.298   5.647   6.480
 5486SOL    HW218298  13.288   5.519   6.561
 5487SOL     OW18299  10.240   5.716   4.589
 5487SOL    HW118300  10.306   5.746   4.527
 5487SOL    HW218301  10.251   5.773   4.665
 5488SOL     OW18302  10.489  13.312  12.016
 5488SOL    HW118303  10.561  13.370  11.992
 5488SOL    HW218304  10.470  13.264  11.935
 5489SOL     OW18305   9.245  14.555  12.523
 5489SOL    HW118306   9.229  14.597  12.607
 5489SOL    HW218307   9.247  14.627  12.460
 5490SOL     OW18308  12.656  13.409   2.744
 5490SOL    HW118309  12.600  13.334   2.765
 5490SOL    HW218310  12.692  13.389   2.658
 5491SOL     OW18311  14.434   4.770  13.708
 5491SOL    HW118312  14.498   4.717  13.661
 5491SOL    HW218313  14.350   4.749  13.667
 5492SOL     OW18314   3.249  11.314   5.638
 5492SOL    HW118315   3.315  11.377   5.665
 5492SOL    HW218316   3.268  11.236   5.691
 5493SOL     OW18317  13.180   2.009  10.500
 5493SOL    HW118318  13.108   2.001  10.437
 5493SOL    HW218319  13.139   2.002  10.585
 5494SOL     OW18320   5.561  12.451  12.211
 5494SOL    HW118321   5.580  12.452  12.117
 5494SOL    HW218322   5.539  12.360  12.230
 5495SOL     OW18323  11.632   6.811  10.881
 5495SOL    HW118324  11.558   6.867  10.858
 5495SOL    HW218325  11.653   6.835  10.971
 5496SOL     OW18326  14.534  12.173   2.508
 5496SOL    HW118327  14.477  12.110   2.465
 5496SOL    HW218328  14.508  12.170   2.600
 5497SOL     OW18329   1.542  13.128   4.674
 5497SOL    HW118330   1.449  13.111   4.659
 5497SOL    HW218331   1.551  13.222   4.659
 5498SOL     OW18332   3.810  13.120   4.930
 5498SOL    HW118333   3.904  13.118   4.946
 5498SOL    HW218334   3.779  13.198   4.978
 5499SOL     OW18335  11.032   1.110   4.389
 5499SOL    HW118336  11.082   1.060   4.453
 5499SOL    HW218337  11.022   1.197   4.428
 5500SOL     OW18338  10.615  13.779   1.476
 5500SOL    HW118339  10.561  13.839   1.527
 5500SOL    HW218340  10.637  13.709   1.537
 5501SOL     OW18341   0.180  12.522   1.675
 5501SOL    HW118342   0.176  12.580   1.750
 5501SOL    HW218343   0.162  12.435   1.711
 5502SOL     OW18344  12.846  11.001  14.061
 5502SOL    HW118345  12.937  11.012  14.086
 5502SOL    HW218346  12.848  10.977  13.969
 5503SOL     OW18347  11.588   9.075   9.543
 5503SOL    HW118348  11.639   9.008   9.496
 5503SOL    HW218349  11.651   9.115   9.603
 5504SOL     OW18350   0.678  13.184  14.487
 5504SOL    HW118351   0.628  13.118  14.440
 5504SOL    HW218352   0.769  13.168  14.463
 5505SOL     OW18353  10.212  11.974   8.614
 5505SOL    HW118354  10.286  12.033   8.624
 5505SOL    HW218355  10.157  12.016   8.548
 5506SOL     OW18356  11.940   1.574   3.473
 5506SOL    HW118357  11.935   1.548   3.381
 5506SOL    HW218358  12.029   1.552   3.499
 5507SOL     OW18359   3.481   9.615   7.689
 5507SOL    HW118360   3.457   9.690   7.744
 5507SOL    HW218361   3.514   9.550   7.751
 5508SOL     OW18362   4.024   0.464  12.239
 5508SOL    HW118363   3.945   0.496  12.281
 5508SOL    HW218364   4.044   0.381  12.283
 5509SOL     OW18365   9.223  11.071  14.558
 5509SOL    HW118366   9.270  11.154  14.564
 5509SOL    HW218367   9.288  11.010  14.524
 5510SOL     OW18368   4.279   9.828   3.070
 5510SOL    HW118369   4.193   9.836   3.111
 5510SOL    HW218370   4.335   9.794   3.139
 5511SOL     OW18371  12.254   0.790   9.170
 5511SOL    HW118372  12.292   0.851   9.108
 5511SOL    HW218373  12.222   0.845   9.242
 5512SOL     OW18374   5.619   2.815   1.403
 5512SOL    HW118375   5.671   2.872   1.348
 5512SOL    HW218376   5.573   2.757   1.342
 5513SOL     OW18377   8.913   5.234   9.421
 5513SOL    HW118378   8.920   5.317   9.375
 5513SOL    HW218379   8.820   5.210   9.414
 5514SOL     OW18380   0.412  12.092   4.575
 5514SOL    HW118381   0.422  12.030   4.503
 5514SOL    HW218382   0.500  12.128   4.587
 5515SOL     OW18383   8.599   6.974  13.056
 5515SOL    HW118384   8.623   7.042  13.118
 5515SOL    HW218385   8.670   6.911  13.060
 5516SOL     OW18386   2.851  10.403  11.191
 5516SOL    HW118387   2.790  10.408  11.117
 5516SOL    HW218388   2.807  10.347  11.255
 5517SOL     OW18389  12.720   8.111   6.825
 5517SOL    HW118390  12.695   8.132   6.915
 5517SOL    HW218391  12.678   8.027   6.807
 5518SOL     OW18392  14.016  10.260   3.606
 5518SOL    HW118393  13.982  10.333   3.555
 5518SOL    HW218394  13.941  10.203   3.621
 5519SOL     OW18395  14.414   6.003   5.613
 5519SOL    HW118396  14.371   5.978   5.695
 5519SOL    HW218397  14.396   5.930   5.554
 5520SOL     OW18398   2.476   2.886  12.646
 5520SOL    HW118399   2.561   2.911  12.610
 5520SOL    HW218400   2.444   2.817  12.587
 5521SOL     OW18401   5.281   3.341   0.056
 5521SOL    HW118402   5.370   3.311   0.038
 5521SOL    HW218403   5.226   3.268   0.027
 5522SOL     OW18404   9.178  11.619  12.674
 5522SOL    HW118405   9.107  11.565  12.707
 5522SOL    HW218406   9.235  11.558  12.628
 5523SOL     OW18407   7.196   3.797   8.649
 5523SOL    HW118408   7.212   3.846   8.729
 5523SOL    HW218409   7.276   3.746   8.635
 5524SOL     OW18410   9.513  10.946   3.875
 5524SOL    HW118411   9.500  11.003   3.951
 5524SOL    HW218412   9.595  10.976   3.837
 5525SOL     OW18413  14.688   8.620  11.935
 5525SOL    HW118414  14.630   8.697  11.932
 5525SOL    HW218415  14.662   8.574  12.014
 5526SOL     OW18416   6.286  13.515   0.103
 5526SOL    HW118417   6.227  13.568   0.157
 5526SOL    HW218418   6.304  13.437   0.156
 5527SOL     OW18419  11.898   1.713   5.481
 5527SOL    HW118420  11.810   1.676   5.477
 5527SOL    HW218421  11.924   1.723   5.389
 5528SOL     OW18422   1.085   2.846   1.120
 5528SOL    HW118423   1.092   2.755   1.147
 5528SOL    HW218424   1.153   2.892   1.169
 5529SOL     OW18425   9.656   5.767  13.374
 5529SOL    HW118426   9.660   5.807  13.460
 5529SOL    HW218427   9.688   5.835  13.314
 5530SOL     OW18428   0.393   4.427   4.028
 5530SOL    HW118429   0.374   4.424   4.122
 5530SOL    HW218430   0.431   4.341   4.009
 5531SOL     OW18431   9.074  10.750   1.662
 5531SOL    HW118432   8.988  10.786   1.639
 5531SOL    HW218433   9.063  10.655   1.653
 5532SOL     OW18434   3.956   9.264   1.581
 5532SOL    HW118435   3.963   9.337   1.520
 5532SOL    HW218436   3.908   9.197   1.533
 5533SOL     OW18437   1.527   9.309   1.765
 5533SOL    HW118438   1.591   9.241   1.742
 5533SOL    HW218439   1.468   9.266   1.827
 5534SOL     OW18440  13.889  10.145   6.562
 5534SOL    HW118441  13.848  10.193   6.634
 5534SOL    HW218442  13.959  10.203   6.532
 5535SOL     OW18443   6.434   7.492  12.471
 5535SOL    HW118444   6.389   7.566  12.512
 5535SOL    HW218445   6.510   7.531  12.428
 5536SOL     OW18446   9.748   4.985  11.366
 5536SOL    HW118447   9.695   5.010  11.290
 5536SOL    HW218448   9.718   4.896  11.387
 5537SOL     OW18449   9.154   2.209  12.927
 5537SOL    HW118450   9.183   2.231  13.016
 5537SOL    HW218451   9.067   2.249  12.920
 5538SOL     OW18452   8.610  12.103   9.489
 5538SOL    HW118453   8.549  12.098   9.415
 5538SOL    HW218454   8.582  12.033   9.548
 5539SOL     OW18455   8.918  12.871  10.529
 5539SOL    HW118456   8.865  12.855  10.451
 5539SOL    HW218457   8.919  12.966  10.539
 5540SOL     OW18458  11.101   2.130   7.411
 5540SOL    HW118459  11.184   2.143   7.458
 5540SOL    HW218460  11.063   2.218   7.406
 5541SOL     OW18461   8.461   4.849   9.572
 5541SOL    HW118462   8.552   4.823   9.585
 5541SOL    HW218463   8.425   4.782   9.514
 5542SOL     OW18464   8.235   3.003   4.480
 5542SOL    HW118465   8.223   3.051   4.562
 5542SOL    HW218466   8.296   3.056   4.430
 5543SOL     OW18467   8.396   7.395  13.215
 5543SOL    HW118468   8.421   7.451  13.289
 5543SOL    HW218469   8.471   7.401  13.155
 5544SOL     OW18470   1.997   3.837   4.366
 5544SOL    HW118471   2.037   3.836   4.280
 5544SOL    HW218472   1.904   3.818   4.350
 5545SOL     OW18473  12.218   2.315   0.734
 5545SOL    HW118474  12.223   2.256   0.809
 5545SOL    HW218475  12.169   2.391   0.767
 5546SOL     OW18476   8.325   9.574   2.643
 5546SOL    HW118477   8.329   9.663   2.608
 5546SOL    HW218478   8.410   9.535   2.619
 5547SOL     OW18479   3.186   7.236  14.753
 5547SOL    HW118480   3.245   7.179  14.705
 5547SOL    HW218481   3.122   7.177  14.793
 5548SOL     OW18482   1.446   5.088   5.487
 5548SOL    HW118483   1.457   5.016   5.548
 5548SOL    HW218484   1.408   5.048   5.409
 5549SOL     OW18485   9.063   1.893   8.919
 5549SOL    HW118486   9.090   1.960   8.982
 5549SOL    HW218487   9.124   1.902   8.846
 5550SOL     OW18488   2.519   2.697   4.664
 5550SOL    HW118489   2.590   2.753   4.695
 5550SOL    HW218490   2.551   2.662   4.581
 5551SOL     OW18491  13.694   7.456  12.438
 5551SOL    HW118492  13.688   7.457  12.343
 5551SOL    HW218493  13.621   7.402  12.467
 5552SOL     OW18494   1.166  12.381  14.235
 5552SOL    HW118495   1.189  12.290  14.215
 5552SOL    HW218496   1.233  12.409  14.298
 5553SOL     OW18497   0.675  11.235  10.135
 5553SOL    HW118498   0.759  11.268  10.168
 5553SOL    HW218499   0.660  11.154  10.184
 5554SOL     OW18500  11.500  13.675   8.707
 5554SOL    HW118501  11.551  13.756   8.703
 5554SOL    HW218502  11.482  13.662   8.800
 5555SOL     OW18503   1.890   2.528  10.095
 5555SOL    HW118504   1.931   2.475  10.027
 5555SOL    HW218505   1.810   2.480  10.117
 5556SOL     OW18506   6.323   1.809   7.521
 5556SOL    HW118507   6.230   1.786   7.511
 5556SOL    HW218508   6.370   1.727   7.503
 5557SOL     OW18509   2.698  11.107  13.046
 5557SOL    HW118510   2.620  11.122  12.992
 5557SOL    HW218511   2.715  11.192  13.087
 5558SOL     OW18512   1.926   2.183   2.665
 5558SOL    HW118513   1.895   2.254   2.608
 5558SOL    HW218514   1.920   2.219   2.753
 5559SOL     OW18515  11.779   9.067  14.341
 5559SOL    HW118516  11.831   9.125  14.285
 5559SOL    HW218517  11.750   9.122  14.413
 5560SOL     OW18518   0.458   0.389   8.142
 5560SOL    HW118519   0.437   0.307   8.096
 5560SOL    HW218520   0.388   0.449   8.116
 5561SOL     OW18521   9.815  14.614   3.932
 5561SOL    HW118522   9.810  14.619   4.028
 5561SOL    HW218523   9.798  14.522   3.912
 5562SOL     OW18524   1.343  10.790   8.656
 5562SOL    HW118525   1.291  10.714   8.632
 5562SOL    HW218526   1.419  10.786   8.597
 5563SOL     OW18527  10.714   7.968   7.210
 5563SOL    HW118528  10.773   8.009   7.273
 5563SOL    HW218529  10.629   7.966   7.255
 5564SOL     OW18530  10.196   1.184   2.880
 5564SOL    HW118531  10.265   1.233   2.835
 5564SOL    HW218532  10.220   1.190   2.973
 5565SOL     OW18533  13.243   0.052  10.039
 5565SOL    HW118534  13.157   0.012  10.052
 5565SOL    HW218535  13.223   0.139  10.004
 5566SOL     OW18536   7.986  14.778  10.261
 5566SOL    HW118537   7.980  14.872  10.276
 5566SOL    HW218538   7.897  14.752  10.238
 5567SOL     OW18539   7.343   1.113   0.985
 5567SOL    HW118540   7.305   1.025   0.985
 5567SOL    HW218541   7.404   1.113   1.059
 5568SOL     OW18542   4.246  13.571  10.636
 5568SOL    HW118543   4.318  13.523  10.677
 5568SOL    HW218544   4.284  13.655  10.611
 5569SOL     OW18545   2.732   8.791   9.358
 5569SOL    HW118546   2.813   8.806   9.309
 5569SOL    HW218547   2.662   8.811   9.296
 5570SOL     OW18548   1.484   0.625   3.599
 5570SOL    HW118549   1.439   0.568   3.661
 5570SOL    HW218550   1.420   0.641   3.530
 5571SOL     OW18551   6.172   2.914  11.045
 5571SOL    HW118552   6.084   2.923  11.082
 5571SOL    HW218553   6.167   2.958  10.960
 5572SOL     OW18554  14.114   2.346   6.886
 5572SOL    HW118555  14.063   2.425   6.903
 5572SOL    HW218556  14.205   2.375   6.885
 5573SOL     OW18557  13.353   3.819   7.868
 5573SOL    HW118558  13.373   3.865   7.786
 5573SOL    HW218559  13.298   3.745   7.842
 5574SOL     OW18560  10.757   0.266   1.572
 5574SOL    HW118561  10.833   0.318   1.599
 5574SOL    HW218562  10.785   0.223   1.491
 5575SOL     OW18563   1.551   7.131   1.016
 5575SOL    HW118564   1.518   7.221   1.016
 5575SOL    HW218565   1.473   7.076   1.015
 5576SOL     OW18566  11.790   7.558   8.114
 5576SOL    HW118567  11.831   7.598   8.038
 5576SOL    HW218568  11.774   7.467   8.089
 5577SOL     OW18569   2.569  11.743   1.990
 5577SOL    HW118570   2.525  11.822   1.960
 5577SOL    HW218571   2.515  11.671   1.956
 5578SOL     OW18572   9.175   5.935   2.476
 5578SOL    HW118573   9.126   5.963   2.398
 5578SOL    HW218574   9.138   5.987   2.547
 5579SOL     OW18575   9.664  10.046   9.707
 5579SOL    HW118576   9.608   9.993   9.763
 5579SOL    HW218577   9.603  10.094   9.651
 5580SOL     OW18578   2.140   7.384   7.835
 5580SOL    HW118579   2.149   7.465   7.784
 5580SOL    HW218580   2.046   7.379   7.854
 5581SOL     OW18581  14.197   4.447  12.065
 5581SOL    HW118582  14.193   4.494  12.148
 5581SOL    HW218583  14.120   4.477  12.016
 5582SOL     OW18584   6.509   5.417   9.519
 5582SOL    HW118585   6.563   5.438   9.443
 5582SOL    HW218586   6.427   5.385   9.482
 5583SOL     OW18587   3.893   0.228  14.544
 5583SOL    HW118588   3.805   0.224  14.582
 5583SOL    HW218589   3.901   0.148  14.492
 5584SOL     OW18590   1.042  11.777  12.486
 5584SOL    HW118591   1.078  11.743  12.404
 5584SOL    HW218592   0.948  11.760  12.480
 5585SOL     OW18593  10.121   8.966   3.359
 5585SOL    HW118594  10.097   8.910   3.285
 5585SOL    HW218595  10.043   8.969   3.414
 5586SOL     OW18596   0.942   0.496   7.614
 5586SOL    HW118597   0.881   0.557   7.655
 5586SOL    HW218598   0.887   0.436   7.564
 5587SOL     OW18599  12.861   4.769   8.733
 5587SOL    HW118600  12.775   4.774   8.774
 5587SOL    HW218601  12.909   4.704   8.784
 5588SOL     OW18602  10.423   8.458  10.151
 5588SOL    HW118603  10.375   8.375  10.156
 5588SOL    HW218604  10.355   8.525  10.144
 5589SOL     OW18605  14.566   8.493  13.775
 5589SOL    HW118606  14.592   8.585  13.782
 5589SOL    HW218607  14.536   8.484  13.684
 5590SOL     OW18608   4.056  10.677  14.815
 5590SOL    HW118609   4.110  10.639  14.745
 5590SOL    HW218610   4.110  10.671   0.012
 5591SOL     OW18611  14.607   7.853   5.451
 5591SOL    HW118612  14.581   7.895   5.369
 5591SOL    HW218613  14.550   7.892   5.517
 5592SOL     OW18614   6.758   9.534  13.708
 5592SOL    HW118615   6.776   9.626  13.688
 5592SOL    HW218616   6.681   9.536  13.764
 5593SOL     OW18617   0.700  12.688   6.283
 5593SOL    HW118618   0.731  12.774   6.313
 5593SOL    HW218619   0.692  12.636   6.363
 5594SOL     OW18620  11.532   6.042  10.821
 5594SOL    HW118621  11.586   6.121  10.830
 5594SOL    HW218622  11.456   6.072  10.770
 5595SOL     OW18623   1.144  10.384   2.035
 5595SOL    HW118624   1.134  10.342   1.950
 5595SOL    HW218625   1.169  10.314   2.094
 5596SOL     OW18626   1.746   4.560  10.102
 5596SOL    HW118627   1.672   4.501  10.119
 5596SOL    HW218628   1.823   4.504  10.105
 5597SOL     OW18629  14.293   8.791   1.211
 5597SOL    HW118630  14.214   8.800   1.264
 5597SOL    HW218631  14.278   8.850   1.137
 5598SOL     OW18632  12.233   5.992   9.374
 5598SOL    HW118633  12.142   5.988   9.343
 5598SOL    HW218634  12.286   6.000   9.295
 5599SOL     OW18635   3.923  10.132   2.642
 5599SOL    HW118636   3.866  10.083   2.582
 5599SOL    HW218637   3.964  10.198   2.586
 5600SOL     OW18638  14.494   0.912  13.895
 5600SOL    HW118639  14.499   0.817  13.887
 5600SOL    HW218640  14.409   0.935  13.856
 5601SOL     OW18641   9.804   6.608  12.679
 5601SOL    HW118642   9.851   6.527  12.698
 5601SOL    HW218643   9.729   6.580  12.627
 5602SOL     OW18644   0.494  13.621  14.327
 5602SOL    HW118645   0.530  13.560  14.392
 5602SOL    HW218646   0.562  13.630  14.261
 5603SOL     OW18647   3.399   1.604   5.691
 5603SOL    HW118648   3.416   1.649   5.609
 5603SOL    HW218649   3.303   1.595   5.694
 5604SOL     OW18650  11.546   4.803   0.476
 5604SOL    HW118651  11.548   4.773   0.385
 5604SOL    HW218652  11.599   4.740   0.524
 5605SOL     OW18653   0.934  11.824  10.643
 5605SOL    HW118654   0.864  11.803  10.705
 5605SOL    HW218655   1.009  11.846  10.698
 5606SOL     OW18656  11.905   3.934   7.617
 5606SOL    HW118657  11.863   3.872   7.557
 5606SOL    HW218658  11.886   4.020   7.579
 5607SOL     OW18659   9.596   9.420  12.815
 5607SOL    HW118660   9.645   9.482  12.761
 5607SOL    HW218661   9.561   9.474  12.886
 5608SOL     OW18662   1.220   4.570   7.520
 5608SOL    HW118663   1.159   4.583   7.447
 5608SOL    HW218664   1.254   4.658   7.538
 5609SOL     OW18665  10.836   9.538  14.540
 5609SOL    HW118666  10.762   9.499  14.495
 5609SOL    HW218667  10.824   9.633  14.530
 5610SOL     OW18668   2.602   4.754   1.188
 5610SOL    HW118669   2.662   4.686   1.157
 5610SOL    HW218670   2.531   4.755   1.124
 5611SOL     OW18671  12.144   3.242   5.932
 5611SOL    HW118672  12.174   3.298   6.003
 5611SOL    HW218673  12.216   3.181   5.918
 5612SOL     OW18674   7.075  14.068   1.390
 5612SOL    HW118675   7.106  14.077   1.300
 5612SOL    HW218676   6.980  14.081   1.385
 5613SOL     OW18677   2.994   2.421   6.171
 5613SOL    HW118678   2.998   2.366   6.092
 5613SOL    HW218679   3.083   2.451   6.184
 5614SOL     OW18680  11.753   2.069   4.595
 5614SOL    HW118681  11.742   2.057   4.690
 5614SOL    HW218682  11.754   1.981   4.559
 5615SOL     OW18683   9.954   8.751   2.496
 5615SOL    HW118684  10.032   8.765   2.442
 5615SOL    HW218685   9.899   8.693   2.444
 5616SOL     OW18686  11.989   2.537   1.346
 5616SOL    HW118687  11.974   2.571   1.434
 5616SOL    HW218688  11.928   2.464   1.339
 5617SOL     OW18689  13.160   0.798   0.855
 5617SOL    HW118690  13.158   0.752   0.771
 5617SOL    HW218691  13.173   0.890   0.831
 5618SOL     OW18692   7.568   4.521   4.850
 5618SOL    HW118693   7.592   4.607   4.883
 5618SOL    HW218694   7.473   4.517   4.861
 5619SOL     OW18695   5.695   9.740   9.536
 5619SOL    HW118696   5.690   9.644   9.540
 5619SOL    HW218697   5.636   9.769   9.606
 5620SOL     OW18698   0.255   4.179   9.151
 5620SOL    HW118699   0.191   4.211   9.088
 5620SOL    HW218700   0.317   4.251   9.163
 5621SOL     OW18701   9.684   9.127  14.442
 5621SOL    HW118702   9.776   9.131  14.419
 5621SOL    HW218703   9.665   9.212  14.482
 5622SOL     OW18704  14.844   8.911  10.095
 5622SOL    HW118705   0.018   8.987  10.114
 5622SOL    HW218706  14.838   8.910   9.999
 5623SOL     OW18707  12.076   6.758  12.613
 5623SOL    HW118708  12.119   6.707  12.544
 5623SOL    HW218709  12.003   6.801  12.569
 5624SOL     OW18710  10.931   3.628   3.233
 5624SOL    HW118711  10.965   3.678   3.160
 5624SOL    HW218712  10.910   3.542   3.196
 5625SOL     OW18713  10.798  11.745   9.096
 5625SOL    HW118714  10.846  11.723   9.017
 5625SOL    HW218715  10.766  11.834   9.081
 5626SOL     OW18716   5.893  13.975   8.180
 5626SOL    HW118717   5.981  13.995   8.146
 5626SOL    HW218718   5.895  14.009   8.270
 5627SOL     OW18719   9.952   4.663   7.690
 5627SOL    HW118720  10.028   4.689   7.743
 5627SOL    HW218721   9.984   4.663   7.600
 5628SOL     OW18722   8.064   4.338   3.468
 5628SOL    HW118723   8.011   4.346   3.389
 5628SOL    HW218724   8.041   4.415   3.520
 5629SOL     OW18725   3.267   0.961   7.993
 5629SOL    HW118726   3.286   0.991   8.082
 5629SOL    HW218727   3.204   1.025   7.959
 5630SOL     OW18728   9.488   8.992  11.091
 5630SOL    HW118729   9.566   9.036  11.057
 5630SOL    HW218730   9.426   9.063  11.110
 5631SOL     OW18731  12.534  13.647  11.654
 5631SOL    HW118732  12.549  13.701  11.731
 5631SOL    HW218733  12.441  13.658  11.633
 5632SOL     OW18734   9.675   3.876   9.109
 5632SOL    HW118735   9.639   3.892   9.021
 5632SOL    HW218736   9.757   3.829   9.093
 5633SOL     OW18737  10.255   6.665   1.507
 5633SOL    HW118738  10.247   6.583   1.459
 5633SOL    HW218739  10.341   6.661   1.548
 5634SOL     OW18740   5.707   8.403   8.545
 5634SOL    HW118741   5.692   8.397   8.450
 5634SOL    HW218742   5.737   8.315   8.570
 5635SOL     OW18743  13.740   2.943   2.572
 5635SOL    HW118744  13.772   2.999   2.501
 5635SOL    HW218745  13.663   2.989   2.605
 5636SOL     OW18746   5.022   5.062   5.325
 5636SOL    HW118747   5.013   4.974   5.361
 5636SOL    HW218748   4.935   5.083   5.290
 5637SOL     OW18749   1.939  11.522  14.304
 5637SOL    HW118750   1.987  11.471  14.238
 5637SOL    HW218751   1.959  11.614  14.282
 5638SOL     OW18752   3.353  10.434   9.549
 5638SOL    HW118753   3.313  10.520   9.549
 5638SOL    HW218754   3.402  10.430   9.632
 5639SOL     OW18755  11.060   6.297   2.558
 5639SOL    HW118756  11.121   6.223   2.561
 5639SOL    HW218757  11.115   6.374   2.575
 5640SOL     OW18758  11.899  10.315   9.168
 5640SOL    HW118759  11.899  10.405   9.201
 5640SOL    HW218760  11.857  10.264   9.237
 5641SOL     OW18761  12.371  14.750   8.001
 5641SOL    HW118762  12.434  14.769   7.932
 5641SOL    HW218763  12.363  14.655   8.001
 5642SOL     OW18764   6.903   0.280   7.288
 5642SOL    HW118765   6.921   0.370   7.316
 5642SOL    HW218766   6.874   0.290   7.197
 5643SOL     OW18767   0.069   5.651   1.010
 5643SOL    HW118768   0.155   5.661   0.969
 5643SOL    HW218769   0.060   5.728   1.067
 5644SOL     OW18770  10.397  14.486   7.888
 5644SOL    HW118771  10.469  14.422   7.880
 5644SOL    HW218772  10.356  14.464   7.971
 5645SOL     OW18773  12.130  10.121   6.488
 5645SOL    HW118774  12.038  10.110   6.462
 5645SOL    HW218775  12.170  10.167   6.415
 5646SOL     OW18776   2.699  12.505   9.215
 5646SOL    HW118777   2.774  12.519   9.273
 5646SOL    HW218778   2.737  12.475   9.133
 5647SOL     OW18779  11.723   0.406   3.325
 5647SOL    HW118780  11.769   0.478   3.367
 5647SOL    HW218781  11.645   0.446   3.287
 5648SOL     OW18782   5.035   8.779  13.969
 5648SOL    HW118783   5.002   8.713  14.031
 5648SOL    HW218784   5.130   8.772  13.974
 5649SOL     OW18785   3.511   9.134   5.421
 5649SOL    HW118786   3.524   9.129   5.326
 5649SOL    HW218787   3.518   9.044   5.451
 5650SOL     OW18788   6.826  12.866   5.498
 5650SOL    HW118789   6.823  12.960   5.512
 5650SOL    HW218790   6.909  12.851   5.451
 5651SOL     OW18791   2.095  14.214   9.627
 5651SOL    HW118792   2.012  14.190   9.585
 5651SOL    HW218793   2.070  14.281   9.691
 5652SOL     OW18794   2.338   6.762   1.048
 5652SOL    HW118795   2.282   6.762   0.970
 5652SOL    HW218796   2.277   6.774   1.121
 5653SOL     OW18797  12.860  10.864  13.824
 5653SOL    HW118798  12.821  10.869  13.737
 5653SOL    HW218799  12.941  10.814  13.812
 5654SOL     OW18800   0.897   6.092  10.974
 5654SOL    HW118801   0.922   6.012  10.926
 5654SOL    HW218802   0.966   6.155  10.954
 5655SOL     OW18803   5.535   1.230  10.435
 5655SOL    HW118804   5.495   1.144  10.450
 5655SOL    HW218805   5.463   1.284  10.401
 5656SOL     OW18806  12.908  13.751   5.569
 5656SOL    HW118807  12.912  13.677   5.629
 5656SOL    HW218808  12.998  13.781   5.560
 5657SOL     OW18809   0.379   1.601   5.019
 5657SOL    HW118810   0.387   1.618   5.113
 5657SOL    HW218811   0.420   1.676   4.977
 5658SOL     OW18812   2.897   4.902  10.503
 5658SOL    HW118813   2.908   4.811  10.476
 5658SOL    HW218814   2.986   4.936  10.511
 5659SOL     OW18815   3.847   6.310   3.615
 5659SOL    HW118816   3.858   6.254   3.538
 5659SOL    HW218817   3.776   6.268   3.665
 5660SOL     OW18818  14.711   5.329   4.001
 5660SOL    HW118819  14.731   5.392   3.931
 5660SOL    HW218820  14.764   5.252   3.978
 5661SOL     OW18821  13.152   6.635  12.313
 5661SOL    HW118822  13.183   6.643  12.222
 5661SOL    HW218823  13.190   6.552  12.344
 5662SOL     OW18824   2.489   8.000   7.659
 5662SOL    HW118825   2.544   8.074   7.635
 5662SOL    HW218826   2.536   7.923   7.627
 5663SOL     OW18827   2.339   5.389   0.225
 5663SOL    HW118828   2.336   5.298   0.197
 5663SOL    HW218829   2.285   5.392   0.304
 5664SOL     OW18830   6.344  14.170   6.716
 5664SOL    HW118831   6.345  14.210   6.629
 5664SOL    HW218832   6.258  14.192   6.752
 5665SOL     OW18833  10.942  10.195   2.287
 5665SOL    HW118834  10.914  10.158   2.204
 5665SOL    HW218835  10.945  10.120   2.347
 5666SOL     OW18836   4.399  14.503  11.672
 5666SOL    HW118837   4.311  14.490  11.708
 5666SOL    HW218838   4.384  14.524  11.580
 5667SOL     OW18839  14.771   0.715   2.226
 5667SOL    HW118840  14.756   0.656   2.299
 5667SOL    HW218841  14.829   0.667   2.167
 5668SOL     OW18842  11.340  13.259  11.744
 5668SOL    HW118843  11.378  13.174  11.721
 5668SOL    HW218844  11.334  13.306  11.661
 5669SOL     OW18845   9.565   7.986   9.523
 5669SOL    HW118846   9.539   7.950   9.608
 5669SOL    HW218847   9.484   8.024   9.487
 5670SOL     OW18848   6.529  11.856   2.977
 5670SOL    HW118849   6.503  11.812   3.058
 5670SOL    HW218850   6.610  11.812   2.951
 5671SOL     OW18851  11.672  14.405  14.715
 5671SOL    HW118852  11.699  14.322  14.676
 5671SOL    HW218853  11.718  14.471  14.662
 5672SOL     OW18854   4.961  14.025  10.516
 5672SOL    HW118855   4.918  14.082  10.579
 5672SOL    HW218856   4.905  14.027  10.438
 5673SOL     OW18857  10.401   2.529  12.129
 5673SOL    HW118858  10.361   2.596  12.184
 5673SOL    HW218859  10.422   2.457  12.190
 5674SOL     OW18860   0.736  13.849   6.525
 5674SOL    HW118861   0.704  13.775   6.473
 5674SOL    HW218862   0.670  13.859   6.594
 5675SOL     OW18863   8.148   8.196  14.644
 5675SOL    HW118864   8.055   8.196  14.623
 5675SOL    HW218865   8.168   8.287  14.667
 5676SOL     OW18866  10.187   4.838  13.651
 5676SOL    HW118867  10.128   4.800  13.716
 5676SOL    HW218868  10.152   4.808  13.567
 5677SOL     OW18869  10.226   4.671   9.676
 5677SOL    HW118870  10.202   4.621   9.754
 5677SOL    HW218871  10.198   4.761   9.695
 5678SOL     OW18872   9.881   0.325   2.147
 5678SOL    HW118873   9.834   0.281   2.218
 5678SOL    HW218874   9.813   0.359   2.090
 5679SOL     OW18875  12.197   6.968  10.019
 5679SOL    HW118876  12.104   6.989  10.028
 5679SOL    HW218877  12.212   6.964   9.925
 5680SOL     OW18878   8.297   4.466   8.768
 5680SOL    HW118879   8.254   4.401   8.824
 5680SOL    HW218880   8.390   4.442   8.769
 5681SOL     OW18881   1.792   8.005  10.165
 5681SOL    HW118882   1.874   8.046  10.190
 5681SOL    HW218883   1.734   8.078  10.144
 5682SOL     OW18884  14.375   2.279   7.941
 5682SOL    HW118885  14.307   2.241   7.997
 5682SOL    HW218886  14.327   2.322   7.871
 5683SOL     OW18887   6.129  11.630  10.555
 5683SOL    HW118888   6.168  11.569  10.492
 5683SOL    HW218889   6.035  11.621  10.541
 5684SOL     OW18890  13.662  11.000   5.690
 5684SOL    HW118891  13.675  11.094   5.699
 5684SOL    HW218892  13.716  10.962   5.759
 5685SOL     OW18893   2.397   0.515  14.599
 5685SOL    HW118894   2.411   0.434  14.648
 5685SOL    HW218895   2.312   0.504  14.557
 5686SOL     OW18896   8.602   6.305   3.451
 5686SOL    HW118897   8.697   6.291   3.445
 5686SOL    HW218898   8.582   6.367   3.382
 5687SOL     OW18899   5.812   7.714  11.069
 5687SOL    HW118900   5.800   7.689  10.977
 5687SOL    HW218901   5.725   7.741  11.098
 5688SOL     OW18902  12.713   2.430   1.430
 5688SOL    HW118903  12.688   2.522   1.440
 5688SOL    HW218904  12.643   2.380   1.472
 5689SOL     OW18905   6.257   2.324   1.184
 5689SOL    HW118906   6.217   2.256   1.238
 5689SOL    HW218907   6.343   2.339   1.225
 5690SOL     OW18908   8.483  11.627  14.846
 5690SOL    HW118909   8.483  11.606   0.058
 5690SOL    HW218910   8.551  11.571  14.808
 5691SOL     OW18911   6.649  12.838   4.995
 5691SOL    HW118912   6.652  12.866   5.087
 5691SOL    HW218913   6.608  12.752   4.998
 5692SOL     OW18914   6.347  11.389   5.279
 5692SOL    HW118915   6.348  11.294   5.289
 5692SOL    HW218916   6.438  11.415   5.290
 5693SOL     OW18917   2.952  10.699   4.885
 5693SOL    HW118918   2.939  10.741   4.970
 5693SOL    HW218919   2.944  10.770   4.821
 5694SOL     OW18920   7.201  14.439  14.384
 5694SOL    HW118921   7.292  14.408  14.378
 5694SOL    HW218922   7.152  14.379  14.329
 5695SOL     OW18923  13.755  13.877   4.810
 5695SOL    HW118924  13.713  13.797   4.778
 5695SOL    HW218925  13.682  13.937   4.825
 5696SOL     OW18926   4.709  13.190   2.156
 5696SOL    HW118927   4.752  13.109   2.128
 5696SOL    HW218928   4.694  13.178   2.250
 5697SOL     OW18929   0.644   0.451   0.130
 5697SOL    HW118930   0.682   0.364   0.138
 5697SOL    HW218931   0.717   0.508   0.106
 5698SOL     OW18932  12.986   3.347  14.152
 5698SOL    HW118933  13.037   3.274  14.188
 5698SOL    HW218934  12.963   3.400  14.228
 5699SOL     OW18935  12.443   8.266   4.775
 5699SOL    HW118936  12.381   8.291   4.706
 5699SOL    HW218937  12.529   8.282   4.736
 5700SOL     OW18938   6.416   4.607   7.617
 5700SOL    HW118939   6.410   4.599   7.522
 5700SOL    HW218940   6.338   4.562   7.649
 5701SOL     OW18941   7.578   5.928   0.463
 5701SOL    HW118942   7.610   5.847   0.424
 5701SOL    HW218943   7.573   5.990   0.390
 5702SOL     OW18944   7.382  14.661   1.139
 5702SOL    HW118945   7.305  14.628   1.092
 5702SOL    HW218946   7.456  14.640   1.081
 5703SOL     OW18947  13.814   5.568  13.310
 5703SOL    HW118948  13.806   5.653  13.266
 5703SOL    HW218949  13.906   5.544  13.299
 5704SOL     OW18950   6.633   9.424   0.579
 5704SOL    HW118951   6.551   9.397   0.621
 5704SOL    HW218952   6.619   9.408   0.486
 5705SOL     OW18953   6.427  12.790   9.562
 5705SOL    HW118954   6.365  12.850   9.604
 5705SOL    HW218955   6.511  12.835   9.567
 5706SOL     OW18956   6.148   2.138  10.716
 5706SOL    HW118957   6.225   2.144  10.659
 5706SOL    HW218958   6.125   2.045  10.716
 5707SOL     OW18959   3.251   8.339   2.509
 5707SOL    HW118960   3.232   8.323   2.417
 5707SOL    HW218961   3.336   8.383   2.509
 5708SOL     OW18962   8.617  12.168  11.947
 5708SOL    HW118963   8.633  12.094  12.005
 5708SOL    HW218964   8.700  12.183  11.903
 5709SOL     OW18965  10.956   3.752  14.176
 5709SOL    HW118966  11.032   3.694  14.180
 5709SOL    HW218967  10.993   3.840  14.174
 5710SOL     OW18968   4.103  10.938   5.117
 5710SOL    HW118969   4.140  10.971   5.199
 5710SOL    HW218970   4.143  10.991   5.049
 5711SOL     OW18971  14.480   1.283   6.249
 5711SOL    HW118972  14.411   1.242   6.197
 5711SOL    HW218973  14.546   1.309   6.185
 5712SOL     OW18974   5.449   0.856  14.382
 5712SOL    HW118975   5.513   0.870  14.313
 5712SOL    HW218976   5.364   0.860  14.337
 5713SOL     OW18977   7.611   0.937   4.228
 5713SOL    HW118978   7.669   0.861   4.222
 5713SOL    HW218979   7.540   0.908   4.286
 5714SOL     OW18980   9.807   5.824  13.926
 5714SOL    HW118981   9.845   5.876  13.855
 5714SOL    HW218982   9.840   5.735  13.911
 5715SOL     OW18983  10.998   0.944   7.445
 5715SOL    HW118984  11.047   1.022   7.421
 5715SOL    HW218985  10.990   0.948   7.540
 5716SOL     OW18986   5.837  13.734  10.101
 5716SOL    HW118987   5.816  13.642  10.082
 5716SOL    HW218988   5.764  13.765  10.155
 5717SOL     OW18989   8.564  12.307   8.505
 5717SOL    HW118990   8.555  12.315   8.410
 5717SOL    HW218991   8.652  12.339   8.523
 5718SOL     OW18992   3.805  13.383   5.040
 5718SOL    HW118993   3.849  13.464   5.014
 5718SOL    HW218994   3.740  13.411   5.105
 5719SOL     OW18995   4.242   9.815   9.454
 5719SOL    HW118996   4.225   9.843   9.544
 5719SOL    HW218997   4.166   9.762   9.430
 5720SOL     OW18998   6.918  11.897  10.837
 5720SOL    HW118999   6.841  11.944  10.870
 5720SOL    HW219000   6.942  11.943  10.757
 5721SOL     OW19001   7.776   2.697   9.084
 5721SOL    HW119002   7.680   2.702   9.085
 5721SOL    HW219003   7.796   2.608   9.114
 5722SOL     OW19004  11.485   7.140   1.891
 5722SOL    HW119005  11.397   7.102   1.900
 5722SOL    HW219006  11.482   7.220   1.943
 5723SOL     OW19007  13.448   8.897   0.514
 5723SOL    HW119008  13.504   8.960   0.469
 5723SOL    HW219009  13.377   8.880   0.452
 5724SOL     OW19010   9.058   1.812   5.398
 5724SOL    HW119011   9.039   1.731   5.444
 5724SOL    HW219012   9.153   1.812   5.384
 5725SOL     OW19013  13.617   2.923   0.603
 5725SOL    HW119014  13.544   2.873   0.567
 5725SOL    HW219015  13.665   2.953   0.526
 5726SOL     OW19016  13.751  12.552   2.163
 5726SOL    HW119017  13.765  12.457   2.161
 5726SOL    HW219018  13.778  12.582   2.077
 5727SOL     OW19019   6.952   2.751   1.897
 5727SOL    HW119020   6.913   2.712   1.975
 5727SOL    HW219021   6.894   2.824   1.874
 5728SOL     OW19022   2.338   9.865   3.647
 5728SOL    HW119023   2.399   9.861   3.721
 5728SOL    HW219024   2.376   9.929   3.587
 5729SOL     OW19025   7.906   2.029  10.756
 5729SOL    HW119026   7.918   1.994  10.668
 5729SOL    HW219027   7.962   1.976  10.812
 5730SOL     OW19028  10.735   6.049   9.430
 5730SOL    HW119029  10.768   5.971   9.385
 5730SOL    HW219030  10.687   6.014   9.505
 5731SOL     OW19031   0.173   9.711   4.858
 5731SOL    HW119032   0.183   9.618   4.838
 5731SOL    HW219033   0.243   9.729   4.920
 5732SOL     OW19034   2.355   4.940  14.598
 5732SOL    HW119035   2.340   4.999  14.672
 5732SOL    HW219036   2.311   4.983  14.525
 5733SOL     OW19037  14.645   3.029  10.535
 5733SOL    HW119038  14.618   3.036  10.443
 5733SOL    HW219039  14.652   3.120  10.565
 5734SOL     OW19040  13.130   0.118   7.027
 5734SOL    HW119041  13.143   0.186   7.094
 5734SOL    HW219042  13.208   0.123   6.973
 5735SOL     OW19043   3.805   8.296   7.813
 5735SOL    HW119044   3.769   8.215   7.774
 5735SOL    HW219045   3.763   8.301   7.899
 5736SOL     OW19046   4.738  12.986  13.678
 5736SOL    HW119047   4.653  12.990  13.721
 5736SOL    HW219048   4.801  13.008  13.746
 5737SOL     OW19049  13.056   4.930   5.934
 5737SOL    HW119050  13.084   4.933   6.026
 5737SOL    HW219051  13.063   4.838   5.909
 5738SOL     OW19052   6.284   0.020  14.589
 5738SOL    HW119053   6.226   0.089  14.622
 5738SOL    HW219054   6.227  14.826  14.576
 5739SOL     OW19055  13.911  11.932  13.439
 5739SOL    HW119056  13.953  12.017  13.430
 5739SOL    HW219057  13.983  11.869  13.434
 5740SOL     OW19058  14.569  11.457   3.180
 5740SOL    HW119059  14.652  11.417   3.205
 5740SOL    HW219060  14.508  11.429   3.248
 5741SOL     OW19061   2.317   1.278   8.979
 5741SOL    HW119062   2.337   1.372   8.975
 5741SOL    HW219063   2.391   1.241   9.028
 5742SOL     OW19064  13.519  10.696   2.656
 5742SOL    HW119065  13.611  10.680   2.637
 5742SOL    HW219066  13.472  10.641   2.594
 5743SOL     OW19067   9.259   1.872  10.527
 5743SOL    HW119068   9.301   1.791  10.496
 5743SOL    HW219069   9.178   1.878  10.477
 5744SOL     OW19070   5.620   4.704   5.355
 5744SOL    HW119071   5.643   4.771   5.290
 5744SOL    HW219072   5.541   4.663   5.319
 5745SOL     OW19073   9.898  11.443  13.560
 5745SOL    HW119074   9.946  11.525  13.549
 5745SOL    HW219075   9.892  11.431  13.655
 5746SOL     OW19076  14.627  12.042   5.184
 5746SOL    HW119077  14.580  12.117   5.148
 5746SOL    HW219078  14.597  11.967   5.132
 5747SOL     OW19079   4.867   9.384   3.112
 5747SOL    HW119080   4.874   9.290   3.095
 5747SOL    HW219081   4.833   9.389   3.201
 5748SOL     OW19082  14.751   2.066   8.108
 5748SOL    HW119083  14.762   2.060   8.013
 5748SOL    HW219084  14.824   2.122   8.136
 5749SOL     OW19085   0.982  11.641  11.751
 5749SOL    HW119086   1.073  11.630  11.723
 5749SOL    HW219087   0.954  11.553  11.778
 5750SOL     OW19088  11.098   0.155   1.660
 5750SOL    HW119089  11.020   0.171   1.714
 5750SOL    HW219090  11.145   0.086   1.707
 5751SOL     OW19091  12.306   5.234   8.575
 5751SOL    HW119092  12.359   5.286   8.636
 5751SOL    HW219093  12.329   5.143   8.595
 5752SOL     OW19094  10.779   0.645   7.892
 5752SOL    HW119095  10.805   0.650   7.984
 5752SOL    HW219096  10.734   0.727   7.875
 5753SOL     OW19097   1.842  12.306  12.687
 5753SOL    HW119098   1.899  12.362  12.633
 5753SOL    HW219099   1.772  12.279  12.629
 5754SOL     OW19100   8.809  14.834   4.482
 5754SOL    HW119101   8.859   0.030   4.503
 5754SOL    HW219102   8.718  14.862   4.482
 5755SOL     OW19103   1.120   8.135   5.137
 5755SOL    HW119104   1.096   8.198   5.069
 5755SOL    HW219105   1.179   8.184   5.195
 5756SOL     OW19106  12.415  13.943  11.396
 5756SOL    HW119107  12.510  13.933  11.391
 5756SOL    HW219108  12.380  13.869  11.346
 5757SOL     OW19109   0.881   6.123   0.096
 5757SOL    HW119110   0.797   6.129   0.050
 5757SOL    HW219111   0.940   6.177   0.044
 5758SOL     OW19112   0.597  12.779  11.572
 5758SOL    HW119113   0.516  12.830  11.565
 5758SOL    HW219114   0.597  12.723  11.494
 5759SOL     OW19115   4.175   1.046  13.150
 5759SOL    HW119116   4.141   0.973  13.099
 5759SOL    HW219117   4.165   1.122  13.093
 5760SOL     OW19118   4.676  12.992   3.596
 5760SOL    HW119119   4.740  13.063   3.591
 5760SOL    HW219120   4.690  12.953   3.682
 5761SOL     OW19121   9.804   7.972  10.562
 5761SOL    HW119122   9.881   8.029  10.564
 5761SOL    HW219123   9.810   7.921  10.643
 5762SOL     OW19124   5.615   8.134   6.755
 5762SOL    HW119125   5.687   8.177   6.710
 5762SOL    HW219126   5.656   8.065   6.806
 5763SOL     OW19127   8.280   9.813   9.976
 5763SOL    HW119128   8.207   9.797  10.036
 5763SOL    HW219129   8.255   9.765   9.897
 5764SOL     OW19130   2.965   3.276   2.248
 5764SOL    HW119131   2.934   3.194   2.287
 5764SOL    HW219132   2.937   3.344   2.310
 5765SOL     OW19133   3.388   7.021  12.856
 5765SOL    HW119134   3.327   7.008  12.783
 5765SOL    HW219135   3.439   6.940  12.858
 5766SOL     OW19136   5.032   7.195  10.010
 5766SOL    HW119137   5.121   7.225   9.996
 5766SOL    HW219138   5.008   7.152   9.928
 5767SOL     OW19139   0.989   4.463   2.769
 5767SOL    HW119140   1.015   4.429   2.683
 5767SOL    HW219141   0.953   4.550   2.751
 5768SOL     OW19142   3.732  10.492  14.020
 5768SOL    HW119143   3.727  10.467  13.928
 5768SOL    HW219144   3.650  10.538  14.037
 5769SOL     OW19145  10.572  11.205  11.265
 5769SOL    HW119146  10.524  11.124  11.282
 5769SOL    HW219147  10.530  11.241  11.186
 5770SOL     OW19148  10.250  11.705   8.145
 5770SOL    HW119149  10.254  11.708   8.240
 5770SOL    HW219150  10.292  11.622   8.122
 5771SOL     OW19151   7.990   9.843   4.099
 5771SOL    HW119152   7.940   9.866   4.178
 5771SOL    HW219153   7.939   9.773   4.057
 5772SOL     OW19154   6.614   0.271   2.352
 5772SOL    HW119155   6.657   0.312   2.277
 5772SOL    HW219156   6.557   0.339   2.387
 5773SOL     OW19157   8.440   4.025  11.280
 5773SOL    HW119158   8.499   4.084  11.233
 5773SOL    HW219159   8.352   4.050  11.250
 5774SOL     OW19160  10.509  11.376   8.661
 5774SOL    HW119161  10.527  11.458   8.706
 5774SOL    HW219162  10.591  11.327   8.666
 5775SOL     OW19163   5.763  10.731   7.438
 5775SOL    HW119164   5.761  10.711   7.532
 5775SOL    HW219165   5.809  10.815   7.433
 5776SOL     OW19166   7.627   3.830  14.816
 5776SOL    HW119167   7.698   3.894  14.815
 5776SOL    HW219168   7.670   3.746  14.798
 5777SOL     OW19169  14.681   6.903  12.503
 5777SOL    HW119170  14.648   6.871  12.419
 5777SOL    HW219171  14.603   6.920  12.555
 5778SOL     OW19172   8.876   1.452   4.551
 5778SOL    HW119173   8.883   1.395   4.628
 5778SOL    HW219174   8.911   1.536   4.580
 5779SOL     OW19175   7.640   1.239  13.252
 5779SOL    HW119176   7.630   1.185  13.173
 5779SOL    HW219177   7.640   1.177  13.324
 5780SOL     OW19178  12.409   3.925  14.845
 5780SOL    HW119179  12.422   3.837  14.808
 5780SOL    HW219180  12.360   3.972  14.778
 5781SOL     OW19181   0.671   0.119   6.307
 5781SOL    HW119182   0.757   0.137   6.346
 5781SOL    HW219183   0.687   0.114   6.213
 5782SOL     OW19184   8.623   7.738   0.406
 5782SOL    HW119185   8.667   7.665   0.450
 5782SOL    HW219186   8.689   7.774   0.348
 5783SOL     OW19187   9.839  11.900  14.471
 5783SOL    HW119188   9.782  11.938  14.403
 5783SOL    HW219189   9.791  11.914  14.553
 5784SOL     OW19190   0.913   8.905   5.392
 5784SOL    HW119191   0.860   8.976   5.354
 5784SOL    HW219192   0.885   8.901   5.483
 5785SOL     OW19193   4.193   2.915  12.615
 5785SOL    HW119194   4.161   2.907  12.705
 5785SOL    HW219195   4.116   2.899  12.560
 5786SOL     OW19196   5.003  13.744  10.439
 5786SOL    HW119197   5.092  13.752  10.404
 5786SOL    HW219198   4.996  13.816  10.502
 5787SOL     OW19199  12.951   3.557   6.748
 5787SOL    HW119200  12.891   3.607   6.694
 5787SOL    HW219201  12.955   3.605   6.831
 5788SOL     OW19202   3.015   0.383  12.100
 5788SOL    HW119203   3.059   0.441  12.037
 5788SOL    HW219204   2.964   0.442  12.155
 5789SOL     OW19205   5.429  11.170   8.760
 5789SOL    HW119206   5.409  11.077   8.751
 5789SOL    HW219207   5.468  11.178   8.846
 5790SOL     OW19208   1.930  13.279   8.411
 5790SOL    HW119209   1.972  13.363   8.427
 5790SOL    HW219210   1.999  13.214   8.427
 5791SOL     OW19211  11.133   1.436  14.750
 5791SOL    HW119212  11.063   1.499  14.769
 5791SOL    HW219213  11.088   1.354  14.731
 5792SOL     OW19214  14.849  13.911   6.023
 5792SOL    HW119215  14.819  13.947   5.940
 5792SOL    HW219216  14.800  13.829   6.033
 5793SOL     OW19217   3.447   4.529   2.414
 5793SOL    HW119218   3.534   4.544   2.377
 5793SOL    HW219219   3.392   4.598   2.377
 5794SOL     OW19220   2.021   0.726   1.042
 5794SOL    HW119221   1.969   0.732   0.962
 5794SOL    HW219222   1.968   0.770   1.108
 5795SOL     OW19223   4.055   5.952   1.086
 5795SOL    HW119224   4.136   6.003   1.097
 5795SOL    HW219225   4.020   5.945   1.175
 5796SOL     OW19226   8.012  11.373   0.580
 5796SOL    HW119227   7.991  11.340   0.492
 5796SOL    HW219228   8.068  11.305   0.617
 5797SOL     OW19229   0.312   0.961   9.152
 5797SOL    HW119230   0.234   0.909   9.135
 5797SOL    HW219231   0.283   1.052   9.142
 5798SOL     OW19232   7.206   3.453  13.172
 5798SOL    HW119233   7.177   3.536  13.132
 5798SOL    HW219234   7.193   3.467  13.266
 5799SOL     OW19235   1.253   2.842  13.004
 5799SOL    HW119236   1.239   2.833  13.098
 5799SOL    HW219237   1.347   2.835  12.993
 5800SOL     OW19238  13.749   0.928  14.515
 5800SOL    HW119239  13.776   0.998  14.457
 5800SOL    HW219240  13.764   0.848  14.464
 5801SOL     OW19241   8.889   2.455   9.725
 5801SOL    HW119242   8.984   2.463   9.734
 5801SOL    HW219243   8.854   2.536   9.762
 5802SOL     OW19244  14.166  10.627   2.677
 5802SOL    HW119245  14.135  10.538   2.662
 5802SOL    HW219246  14.224  10.645   2.603
 5803SOL     OW19247  11.478   0.572  11.426
 5803SOL    HW119248  11.404   0.519  11.397
 5803SOL    HW219249  11.555   0.521  11.404
 5804SOL     OW19250  10.263   5.952   7.513
 5804SOL    HW119251  10.315   6.033   7.511
 5804SOL    HW219252  10.327   5.883   7.493
 5805SOL     OW19253   9.178   8.573   3.197
 5805SOL    HW119254   9.161   8.641   3.261
 5805SOL    HW219255   9.269   8.547   3.212
 5806SOL     OW19256  11.544   5.758   2.988
 5806SOL    HW119257  11.554   5.667   2.960
 5806SOL    HW219258  11.451   5.765   3.013
 5807SOL     OW19259   9.522   0.089  13.175
 5807SOL    HW119260   9.604   0.129  13.204
 5807SOL    HW219261   9.478   0.158  13.125
 5808SOL     OW19262  11.108   8.200  14.494
 5808SOL    HW119263  11.041   8.204  14.426
 5808SOL    HW219264  11.087   8.121  14.544
 5809SOL     OW19265   5.495   0.752   3.888
 5809SOL    HW119266   5.573   0.698   3.876
 5809SOL    HW219267   5.458   0.723   3.971
 5810SOL     OW19268  12.480   6.965   2.566
 5810SOL    HW119269  12.536   7.035   2.602
 5810SOL    HW219270  12.399   7.009   2.542
 5811SOL     OW19271  12.102  10.845  12.257
 5811SOL    HW119272  12.034  10.893  12.210
 5811SOL    HW219273  12.183  10.889  12.233
 5812SOL     OW19274  11.481   4.632   6.787
 5812SOL    HW119275  11.431   4.683   6.723
 5812SOL    HW219276  11.565   4.617   6.745
 5813SOL     OW19277   2.421   9.905   2.880
 5813SOL    HW119278   2.434   9.866   2.793
 5813SOL    HW219279   2.443   9.997   2.868
 5814SOL     OW19280  13.225   0.761   9.008
 5814SOL    HW119281  13.300   0.819   9.017
 5814SOL    HW219282  13.155   0.804   9.057
 5815SOL     OW19283  12.798  11.534  14.473
 5815SOL    HW119284  12.890  11.513  14.490
 5815SOL    HW219285  12.792  11.628  14.491
 5816SOL     OW19286  14.618   7.200   8.415
 5816SOL    HW119287  14.575   7.198   8.329
 5816SOL    HW219288  14.550   7.173   8.477
 5817SOL     OW19289   6.920   2.531  10.546
 5817SOL    HW119290   6.898   2.470  10.616
 5817SOL    HW219291   6.885   2.491  10.467
 5818SOL     OW19292   5.845  14.674   0.058
 5818SOL    HW119293   5.767  14.675   0.114
 5818SOL    HW219294   5.873  14.583   0.056
 5819SOL     OW19295   6.599   7.713   3.960
 5819SOL    HW119296   6.536   7.652   3.923
 5819SOL    HW219297   6.598   7.788   3.900
 5820SOL     OW19298   5.353  13.039   5.346
 5820SOL    HW119299   5.302  12.960   5.328
 5820SOL    HW219300   5.444  13.008   5.345
 5821SOL     OW19301   1.270   1.639  10.628
 5821SOL    HW119302   1.338   1.573  10.643
 5821SOL    HW219303   1.310   1.721  10.655
 5822SOL     OW19304  13.418  10.951   8.546
 5822SOL    HW119305  13.325  10.931   8.538
 5822SOL    HW219306  13.446  10.907   8.626
 5823SOL     OW19307  13.045  10.318  11.304
 5823SOL    HW119308  13.029  10.315  11.210
 5823SOL    HW219309  12.963  10.348  11.342
 5824SOL     OW19310   5.921  10.800  11.310
 5824SOL    HW119311   5.861  10.819  11.239
 5824SOL    HW219312   6.001  10.770  11.267
 5825SOL     OW19313  14.181   9.858   3.418
 5825SOL    HW119314  14.095   9.892   3.443
 5825SOL    HW219315  14.190   9.777   3.469
 5826SOL     OW19316   1.044   9.002   2.158
 5826SOL    HW119317   1.108   8.931   2.151
 5826SOL    HW219318   0.960   8.959   2.144
 5827SOL     OW19319   4.448   3.721  14.740
 5827SOL    HW119320   4.474   3.749  14.652
 5827SOL    HW219321   4.355   3.701  14.732
 5828SOL     OW19322   8.960   1.697   4.230
 5828SOL    HW119323   8.880   1.737   4.264
 5828SOL    HW219324   8.962   1.721   4.138
 5829SOL     OW19325   8.373   5.389  11.855
 5829SOL    HW119326   8.404   5.462  11.802
 5829SOL    HW219327   8.421   5.398  11.938
 5830SOL     OW19328  12.784  10.047  14.867
 5830SOL    HW119329  12.782  10.058  14.772
 5830SOL    HW219330  12.878  10.041   0.006
 5831SOL     OW19331   6.693   7.057   0.992
 5831SOL    HW119332   6.753   7.130   1.005
 5831SOL    HW219333   6.732   6.984   1.040
 5832SOL     OW19334   1.433   9.450  13.651
 5832SOL    HW119335   1.483   9.395  13.712
 5832SOL    HW219336   1.500   9.502  13.606
 5833SOL     OW19337   0.068   6.221  10.751
 5833SOL    HW119338   0.071   6.126  10.741
 5833SOL    HW219339   0.152   6.252  10.718
 5834SOL     OW19340   6.971   7.364   9.000
 5834SOL    HW119341   7.054   7.402   8.972
 5834SOL    HW219342   6.957   7.291   8.939
 5835SOL     OW19343  12.554  13.784   3.162
 5835SOL    HW119344  12.611  13.779   3.085
 5835SOL    HW219345  12.468  13.755   3.130
 5836SOL     OW19346   9.173  13.348   0.685
 5836SOL    HW119347   9.121  13.268   0.693
 5836SOL    HW219348   9.111  13.414   0.655
 5837SOL     OW19349   0.428   2.828  14.348
 5837SOL    HW119350   0.380   2.820  14.266
 5837SOL    HW219351   0.471   2.913  14.342
 5838SOL     OW19352  13.177  10.791  14.653
 5838SOL    HW119353  13.089  10.754  14.655
 5838SOL    HW219354  13.213  10.763  14.568
 5839SOL     OW19355   0.517  13.623   9.064
 5839SOL    HW119356   0.583  13.663   9.009
 5839SOL    HW219357   0.561  13.605   9.147
 5840SOL     OW19358  12.033  14.756  14.585
 5840SOL    HW119359  11.966  14.798  14.639
 5840SOL    HW219360  12.050  14.818  14.515
 5841SOL     OW19361  12.844   2.806   3.703
 5841SOL    HW119362  12.892   2.758   3.770
 5841SOL    HW219363  12.901   2.880   3.682
 5842SOL     OW19364  13.960   4.835   2.887
 5842SOL    HW119365  13.993   4.746   2.872
 5842SOL    HW219366  13.937   4.837   2.979
 5843SOL     OW19367  14.432   9.743  14.422
 5843SOL    HW119368  14.464   9.828  14.392
 5843SOL    HW219369  14.509   9.686  14.418
 5844SOL     OW19370   2.238   9.301   6.264
 5844SOL    HW119371   2.183   9.246   6.320
 5844SOL    HW219372   2.180   9.329   6.194
 5845SOL     OW19373   3.776  11.069   1.170
 5845SOL    HW119374   3.789  11.107   1.257
 5845SOL    HW219375   3.773  11.144   1.111
 5846SOL     OW19376  12.409  14.051  12.965
 5846SOL    HW119377  12.365  14.135  12.949
 5846SOL    HW219378  12.396  14.036  13.058
 5847SOL     OW19379  12.316   7.168   3.176
 5847SOL    HW119380  12.379   7.216   3.123
 5847SOL    HW219381  12.237   7.223   3.175
 5848SOL     OW19382   3.018   3.906   6.185
 5848SOL    HW119383   3.067   3.897   6.103
 5848SOL    HW219384   3.063   3.976   6.232
 5849SOL     OW19385   7.438   4.925  14.840
 5849SOL    HW119386   7.534   4.924  14.848
 5849SOL    HW219387   7.411   4.838  14.871
 5850SOL     OW19388   3.132   5.552   6.307
 5850SOL    HW119389   3.081   5.477   6.274
 5850SOL    HW219390   3.105   5.625   6.252
 5851SOL     OW19391   0.238   2.862   3.906
 5851SOL    HW119392   0.210   2.780   3.866
 5851SOL    HW219393   0.166   2.922   3.891
 5852SOL     OW19394   7.376   0.213   3.162
 5852SOL    HW119395   7.441   0.263   3.112
 5852SOL    HW219396   7.354   0.139   3.106
 5853SOL     OW19397  13.332   3.324  10.786
 5853SOL    HW119398  13.296   3.409  10.762
 5853SOL    HW219399  13.372   3.339  10.872
 5854SOL     OW19400  11.808   9.034   8.969
 5854SOL    HW119401  11.849   8.995   9.046
 5854SOL    HW219402  11.732   8.978   8.951
 5855SOL     OW19403   8.317   2.443   4.536
 5855SOL    HW119404   8.407   2.432   4.569
 5855SOL    HW219405   8.288   2.526   4.573
 5856SOL     OW19406  12.407   8.313   5.297
 5856SOL    HW119407  12.434   8.226   5.269
 5856SOL    HW219408  12.487   8.353   5.331
 5857SOL     OW19409  12.904  14.431   9.994
 5857SOL    HW119410  12.957  14.480  10.057
 5857SOL    HW219411  12.935  14.460   9.908
 5858SOL     OW19412   6.610   8.620  11.283
 5858SOL    HW119413   6.572   8.534  11.267
 5858SOL    HW219414   6.689   8.601  11.334
 5859SOL     OW19415  11.299  10.954   2.334
 5859SOL    HW119416  11.263  11.002   2.409
 5859SOL    HW219417  11.326  10.870   2.370
 5860SOL     OW19418   4.781   7.937   2.550
 5860SOL    HW119419   4.798   8.011   2.490
 5860SOL    HW219420   4.862   7.927   2.599
 5861SOL     OW19421  11.475  10.773   3.764
 5861SOL    HW119422  11.537  10.826   3.715
 5861SOL    HW219423  11.407  10.835   3.792
 5862SOL     OW19424   2.400  14.849   4.542
 5862SOL    HW119425   2.312   0.003   4.555
 5862SOL    HW219426   2.447   0.034   4.494
 5863SOL     OW19427  13.665   4.615   0.746
 5863SOL    HW119428  13.665   4.523   0.722
 5863SOL    HW219429  13.708   4.659   0.673
 5864SOL     OW19430  14.386  10.010  11.029
 5864SOL    HW119431  14.324   9.962  11.084
 5864SOL    HW219432  14.354   9.997  10.940
 5865SOL     OW19433  14.354  14.653  12.244
 5865SOL    HW119434  14.362  14.687  12.155
 5865SOL    HW219435  14.277  14.596  12.241
 5866SOL     OW19436  13.854   3.879   8.733
 5866SOL    HW119437  13.921   3.934   8.774
 5866SOL    HW219438  13.782   3.876   8.796
 5867SOL     OW19439   2.997  11.244   4.831
 5867SOL    HW119440   3.030  11.326   4.795
 5867SOL    HW219441   2.964  11.269   4.918
 5868SOL     OW19442  11.739   1.329  14.536
 5868SOL    HW119443  11.772   1.393  14.599
 5868SOL    HW219444  11.811   1.318  14.474
 5869SOL     OW19445   5.121   3.154  14.807
 5869SOL    HW119446   5.054   3.218  14.782
 5869SOL    HW219447   5.089   3.117   0.007
 5870SOL     OW19448   1.750  11.351   5.889
 5870SOL    HW119449   1.776  11.323   5.802
 5870SOL    HW219450   1.754  11.271   5.942
 5871SOL     OW19451   0.672  13.075   8.909
 5871SOL    HW119452   0.657  13.166   8.882
 5871SOL    HW219453   0.639  13.071   8.999
 5872SOL     OW19454  11.737   0.143   9.607
 5872SOL    HW119455  11.763   0.235   9.598
 5872SOL    HW219456  11.747   0.124   9.700
 5873SOL     OW19457   0.761   8.379  13.226
 5873SOL    HW119458   0.709   8.302  13.250
 5873SOL    HW219459   0.748   8.387  13.131
 5874SOL     OW19460  12.762   5.387   1.742
 5874SOL    HW119461  12.782   5.455   1.807
 5874SOL    HW219462  12.674   5.408   1.711
 5875SOL     OW19463  13.697   5.198  11.113
 5875SOL    HW119464  13.784   5.190  11.153
 5875SOL    HW219465  13.641   5.141  11.164
 5876SOL     OW19466   7.425  13.071   7.544
 5876SOL    HW119467   7.404  13.150   7.494
 5876SOL    HW219468   7.347  13.016   7.536
 5877SOL     OW19469  12.948   8.896  12.718
 5877SOL    HW119470  13.026   8.888  12.772
 5877SOL    HW219471  12.877   8.910  12.781
 5878SOL     OW19472  12.957   6.644  10.036
 5878SOL    HW119473  12.947   6.618  10.128
 5878SOL    HW219474  13.045   6.617  10.013
 5879SOL     OW19475   0.093   4.634  14.601
 5879SOL    HW119476   0.068   4.720  14.634
 5879SOL    HW219477   0.077   4.638  14.506
 5880SOL     OW19478   6.740  11.372  12.476
 5880SOL    HW119479   6.692  11.454  12.487
 5880SOL    HW219480   6.699  11.311  12.537
 5881SOL     OW19481   8.861  14.533   7.898
 5881SOL    HW119482   8.895  14.482   7.972
 5881SOL    HW219483   8.885  14.623   7.918
 5882SOL     OW19484   4.734   9.376   8.917
 5882SOL    HW119485   4.813   9.325   8.897
 5882SOL    HW219486   4.757   9.426   8.995
 5883SOL     OW19487  10.821   2.936  11.845
 5883SOL    HW119488  10.734   2.907  11.873
 5883SOL    HW219489  10.855   2.984  11.921
 5884SOL     OW19490  11.485   1.150  11.680
 5884SOL    HW119491  11.487   1.138  11.586
 5884SOL    HW219492  11.392   1.163  11.701
 5885SOL     OW19493   8.970   1.802   0.750
 5885SOL    HW119494   8.944   1.893   0.735
 5885SOL    HW219495   8.973   1.763   0.663
 5886SOL     OW19496   0.200  13.781   4.815
 5886SOL    HW119497   0.157  13.867   4.824
 5886SOL    HW219498   0.294  13.801   4.816
 5887SOL     OW19499  10.870   7.403   9.825
 5887SOL    HW119500  10.810   7.395   9.750
 5887SOL    HW219501  10.873   7.315   9.862
 5888SOL     OW19502  11.099   2.362   0.101
 5888SOL    HW119503  11.163   2.305   0.144
 5888SOL    HW219504  11.016   2.342   0.145
 5889SOL     OW19505  11.849  11.352  10.214
 5889SOL    HW119506  11.941  11.352  10.239
 5889SOL    HW219507  11.823  11.260  10.221
 5890SOL     OW19508  12.760   6.137  12.895
 5890SOL    HW119509  12.853   6.148  12.914
 5890SOL    HW219510  12.742   6.045  12.917
 5891SOL     OW19511   9.841   0.878   7.120
 5891SOL    HW119512   9.799   0.800   7.156
 5891SOL    HW219513   9.875   0.850   7.034
 5892SOL     OW19514  10.251  14.252   6.338
 5892SOL    HW119515  10.342  14.243   6.365
 5892SOL    HW219516  10.214  14.164   6.349
 5893SOL     OW19517   1.117   1.799   3.307
 5893SOL    HW119518   1.026   1.824   3.324
 5893SOL    HW219519   1.153   1.780   3.394
 5894SOL     OW19520   4.180   4.749  13.333
 5894SOL    HW119521   4.182   4.662  13.294
 5894SOL    HW219522   4.179   4.809  13.258
 5895SOL     OW19523   2.034   0.529   6.134
 5895SOL    HW119524   2.059   0.535   6.227
 5895SOL    HW219525   1.962   0.590   6.125
 5896SOL     OW19526   3.841   3.608  14.720
 5896SOL    HW119527   3.806   3.534  14.670
 5896SOL    HW219528   3.763   3.654  14.752
 5897SOL     OW19529  13.117  11.134   2.613
 5897SOL    HW119530  13.043  11.080   2.641
 5897SOL    HW219531  13.093  11.223   2.639
 5898SOL     OW19532  12.362   7.261   4.177
 5898SOL    HW119533  12.428   7.323   4.144
 5898SOL    HW219534  12.370   7.185   4.120
 5899SOL     OW19535   4.088   7.924  11.873
 5899SOL    HW119536   4.093   7.886  11.785
 5899SOL    HW219537   4.035   8.003  11.861
 5900SOL     OW19538  13.459   4.470  13.340
 5900SOL    HW119539  13.385   4.531  13.337
 5900SOL    HW219540  13.429   4.400  13.398
 5901SOL     OW19541   0.411   9.324   8.909
 5901SOL    HW119542   0.433   9.417   8.898
 5901SOL    HW219543   0.470   9.293   8.978
 5902SOL     OW19544   8.319   6.543   8.155
 5902SOL    HW119545   8.298   6.631   8.124
 5902SOL    HW219546   8.331   6.491   8.076
 5903SOL     OW19547  10.515   3.440  11.287
 5903SOL    HW119548  10.584   3.455  11.351
 5903SOL    HW219549  10.550   3.474  11.205
 5904SOL     OW19550   9.684   9.390   3.574
 5904SOL    HW119551   9.758   9.420   3.521
 5904SOL    HW219552   9.708   9.302   3.603
 5905SOL     OW19553   0.648   1.700  12.062
 5905SOL    HW119554   0.732   1.670  12.097
 5905SOL    HW219555   0.604   1.741  12.137
 5906SOL     OW19556  14.857   8.351  11.750
 5906SOL    HW119557  14.812   8.273  11.784
 5906SOL    HW219558   0.023   8.386  11.825
 5907SOL     OW19559   6.807   1.257  11.558
 5907SOL    HW119560   6.745   1.203  11.508
 5907SOL    HW219561   6.888   1.206  11.557
 5908SOL     OW19562   1.479   3.714   1.837
 5908SOL    HW119563   1.523   3.637   1.801
 5908SOL    HW219564   1.413   3.736   1.772
 5909SOL     OW19565  13.327   7.858   9.358
 5909SOL    HW119566  13.413   7.890   9.331
 5909SOL    HW219567  13.345   7.786   9.418
 5910SOL     OW19568  12.595   6.172  12.123
 5910SOL    HW119569  12.548   6.172  12.207
 5910SOL    HW219570  12.629   6.261  12.115
 5911SOL     OW19571   3.370  14.141   6.052
 5911SOL    HW119572   3.351  14.133   6.146
 5911SOL    HW219573   3.462  14.115   6.045
 5912SOL     OW19574   3.578   1.824  12.094
 5912SOL    HW119575   3.670   1.837  12.114
 5912SOL    HW219576   3.556   1.895  12.033
 5913SOL     OW19577   0.994  14.030  14.052
 5913SOL    HW119578   1.057  13.968  14.015
 5913SOL    HW219579   1.008  14.026  14.146
 5914SOL     OW19580  11.920   9.414  11.724
 5914SOL    HW119581  11.992   9.362  11.760
 5914SOL    HW219582  11.947   9.431  11.634
 5915SOL     OW19583   6.603   6.692   6.248
 5915SOL    HW119584   6.668   6.639   6.294
 5915SOL    HW219585   6.564   6.747   6.317
 5916SOL     OW19586   1.038   4.397  11.256
 5916SOL    HW119587   1.012   4.328  11.316
 5916SOL    HW219588   0.966   4.403  11.193
 5917SOL     OW19589   4.449   8.502  12.005
 5917SOL    HW119590   4.383   8.449  12.050
 5917SOL    HW219591   4.422   8.501  11.914
 5918SOL     OW19592   1.164  13.857  10.646
 5918SOL    HW119593   1.138  13.897  10.563
 5918SOL    HW219594   1.207  13.775  10.622
 5919SOL     OW19595  12.721   8.948   1.032
 5919SOL    HW119596  12.704   8.920   1.122
 5919SOL    HW219597  12.762   9.034   1.041
 5920SOL     OW19598   0.572   4.624   1.575
 5920SOL    HW119599   0.561   4.686   1.647
 5920SOL    HW219600   0.485   4.616   1.537
 5921SOL     OW19601  14.387   6.599  13.569
 5921SOL    HW119602  14.470   6.598  13.521
 5921SOL    HW219603  14.367   6.507  13.584
 5922SOL     OW19604   3.342  11.470   9.696
 5922SOL    HW119605   3.275  11.473   9.628
 5922SOL    HW219606   3.330  11.551   9.746
 5923SOL     OW19607   6.574   5.112   5.731
 5923SOL    HW119608   6.643   5.151   5.784
 5923SOL    HW219609   6.524   5.058   5.793
 5924SOL     OW19610   2.870   6.609  12.395
 5924SOL    HW119611   2.917   6.543  12.343
 5924SOL    HW219612   2.853   6.566  12.478
 5925SOL     OW19613  12.451   3.972   1.375
 5925SOL    HW119614  12.510   4.046   1.359
 5925SOL    HW219615  12.373   3.994   1.324
 5926SOL     OW19616  14.851   0.554   8.793
 5926SOL    HW119617   0.022   0.487   8.837
 5926SOL    HW219618   0.024   0.585   8.721
 5927SOL     OW19619   1.599   4.858   9.252
 5927SOL    HW119620   1.685   4.849   9.212
 5927SOL    HW219621   1.554   4.924   9.199
 5928SOL     OW19622   5.711  11.912   4.907
 5928SOL    HW119623   5.729  11.991   4.958
 5928SOL    HW219624   5.771  11.916   4.833
 5929SOL     OW19625  10.727  14.848   5.277
 5929SOL    HW119626  10.783  14.777   5.245
 5929SOL    HW219627  10.766  14.874   5.361
 5930SOL     OW19628   5.532   8.134   1.421
 5930SOL    HW119629   5.437   8.123   1.415
 5930SOL    HW219630   5.564   8.117   1.333
 5931SOL     OW19631   0.191   3.368   8.865
 5931SOL    HW119632   0.128   3.315   8.817
 5931SOL    HW219633   0.192   3.331   8.953
 5932SOL     OW19634   7.108  11.192  10.415
 5932SOL    HW119635   7.079  11.246  10.341
 5932SOL    HW219636   7.187  11.237  10.447
 5933SOL     OW19637   1.141   8.060   8.834
 5933SOL    HW119638   1.212   8.124   8.830
 5933SOL    HW219639   1.139   8.022   8.746
 5934SOL     OW19640   0.926  10.495  11.786
 5934SOL    HW119641   0.843  10.466  11.749
 5934SOL    HW219642   0.909  10.585  11.815
 5935SOL     OW19643   4.715   1.036   3.927
 5935SOL    HW119644   4.646   1.044   3.861
 5935SOL    HW219645   4.762   1.119   3.923
 5936SOL     OW19646  12.013   2.046  10.483
 5936SOL    HW119647  11.974   2.044  10.396
 5936SOL    HW219648  11.988   1.963  10.523
 5937SOL     OW19649   1.719   4.176  13.525
 5937SOL    HW119650   1.720   4.142  13.436
 5937SOL    HW219651   1.639   4.140  13.564
 5938SOL     OW19652  14.272  13.067  13.614
 5938SOL    HW119653  14.218  13.013  13.671
 5938SOL    HW219654  14.226  13.067  13.530
 5939SOL     OW19655   6.399   1.214   1.821
 5939SOL    HW119656   6.469   1.236   1.883
 5939SOL    HW219657   6.423   1.127   1.787
 5940SOL     OW19658   6.012   7.849   2.997
 5940SOL    HW119659   5.934   7.897   3.027
 5940SOL    HW219660   6.083   7.912   3.005
 5941SOL     OW19661   1.100   7.799   5.729
 5941SOL    HW119662   1.185   7.793   5.774
 5941SOL    HW219663   1.069   7.708   5.725
 5942SOL     OW19664   1.784  10.684   4.083
 5942SOL    HW119665   1.844  10.610   4.080
 5942SOL    HW219666   1.702  10.649   4.047
 5943SOL     OW19667   8.045   0.468  12.693
 5943SOL    HW119668   7.970   0.455  12.751
 5943SOL    HW219669   8.022   0.420  12.613
 5944SOL     OW19670   6.213   9.798   0.421
 5944SOL    HW119671   6.244   9.878   0.380
 5944SOL    HW219672   6.282   9.733   0.403
 5945SOL     OW19673  12.095   2.974  12.441
 5945SOL    HW119674  12.136   2.978  12.527
 5945SOL    HW219675  12.161   2.932  12.385
 5946SOL     OW19676   0.030  13.958  13.411
 5946SOL    HW119677  14.845  13.895  13.387
 5946SOL    HW219678  14.869  14.016  13.474
 5947SOL     OW19679  14.019   4.630   0.932
 5947SOL    HW119680  13.927   4.657   0.929
 5947SOL    HW219681  14.039   4.621   1.025
 5948SOL     OW19682   7.835   5.850   5.286
 5948SOL    HW119683   7.919   5.813   5.261
 5948SOL    HW219684   7.857   5.925   5.342
 5949SOL     OW19685   7.887   4.894   3.883
 5949SOL    HW119686   7.977   4.864   3.870
 5949SOL    HW219687   7.895   4.989   3.897
 5950SOL     OW19688   7.543  11.176   8.774
 5950SOL    HW119689   7.475  11.117   8.805
 5950SOL    HW219690   7.495  11.254   8.746
 5951SOL     OW19691   3.801   8.751  11.765
 5951SOL    HW119692   3.893   8.728  11.774
 5951SOL    HW219693   3.803   8.839  11.727
 5952SOL     OW19694   9.100   2.671   9.754
 5952SOL    HW119695   9.183   2.654   9.797
 5952SOL    HW219696   9.124   2.699   9.665
 5953SOL     OW19697   8.069   9.445   8.189
 5953SOL    HW119698   8.093   9.537   8.180
 5953SOL    HW219699   8.149   9.401   8.216
 5954SOL     OW19700   9.550  14.679   1.709
 5954SOL    HW119701   9.645  14.681   1.694
 5954SOL    HW219702   9.540  14.694   1.803
 5955SOL     OW19703  13.078  10.328   3.033
 5955SOL    HW119704  13.155  10.357   3.082
 5955SOL    HW219705  13.008  10.388   3.059
 5956SOL     OW19706   7.484   2.212   5.307
 5956SOL    HW119707   7.463   2.295   5.263
 5956SOL    HW219708   7.440   2.219   5.392
 5957SOL     OW19709   7.642  11.960  13.601
 5957SOL    HW119710   7.719  12.017  13.608
 5957SOL    HW219711   7.586  11.986  13.673
 5958SOL     OW19712  14.200   5.117  13.454
 5958SOL    HW119713  14.243   5.072  13.527
 5958SOL    HW219714  14.107   5.098  13.466
 5959SOL     OW19715   4.878   0.209  12.308
 5959SOL    HW119716   4.925   0.153  12.247
 5959SOL    HW219717   4.805   0.155  12.339
 5960SOL     OW19718   0.567   4.733   7.885
 5960SOL    HW119719   0.658   4.702   7.885
 5960SOL    HW219720   0.514   4.654   7.886
 5961SOL     OW19721  11.372  13.683   3.344
 5961SOL    HW119722  11.340  13.682   3.254
 5961SOL    HW219723  11.458  13.724   3.339
 5962SOL     OW19724  12.836  10.587  13.078
 5962SOL    HW119725  12.840  10.589  12.983
 5962SOL    HW219726  12.745  10.560  13.097
 5963SOL     OW19727  12.706  14.646  13.498
 5963SOL    HW119728  12.620  14.662  13.458
 5963SOL    HW219729  12.759  14.720  13.470
 5964SOL     OW19730  10.764  14.574   9.061
 5964SOL    HW119731  10.775  14.507   8.994
 5964SOL    HW219732  10.779  14.528   9.143
 5965SOL     OW19733  11.654  13.085   7.111
 5965SOL    HW119734  11.610  13.101   7.195
 5965SOL    HW219735  11.665  12.990   7.108
 5966SOL     OW19736  14.395   7.642   9.491
 5966SOL    HW119737  14.303   7.618   9.490
 5966SOL    HW219738  14.424   7.633   9.400
 5967SOL     OW19739   1.644   3.647   1.529
 5967SOL    HW119740   1.632   3.643   1.434
 5967SOL    HW219741   1.556   3.649   1.565
 5968SOL     OW19742  11.101   5.477   6.293
 5968SOL    HW119743  11.058   5.422   6.228
 5968SOL    HW219744  11.091   5.566   6.258
 5969SOL     OW19745  11.176   6.805  11.922
 5969SOL    HW119746  11.119   6.791  11.846
 5969SOL    HW219747  11.264   6.789  11.888
 5970SOL     OW19748   2.442  14.804  13.260
 5970SOL    HW119749   2.422   0.005  13.304
 5970SOL    HW219750   2.508  14.763  13.315
 5971SOL     OW19751  14.676   7.554   5.935
 5971SOL    HW119752  14.640   7.474   5.896
 5971SOL    HW219753  14.758   7.568   5.888
 5972SOL     OW19754  13.783   7.045   6.707
 5972SOL    HW119755  13.695   7.073   6.732
 5972SOL    HW219756  13.784   7.050   6.612
 5973SOL     OW19757  11.025   3.241   9.975
 5973SOL    HW119758  11.118   3.250   9.993
 5973SOL    HW219759  10.993   3.182  10.042
 5974SOL     OW19760   3.432   0.895   1.393
 5974SOL    HW119761   3.497   0.848   1.444
 5974SOL    HW219762   3.357   0.835   1.388
 5975SOL     OW19763  13.871   2.142   8.869
 5975SOL    HW119764  13.875   2.182   8.956
 5975SOL    HW219765  13.848   2.214   8.810
 5976SOL     OW19766   0.552  13.844   5.588
 5976SOL    HW119767   0.488  13.804   5.646
 5976SOL    HW219768   0.508  13.850   5.503
 5977SOL     OW19769   2.628   5.737   9.543
 5977SOL    HW119770   2.552   5.681   9.529
 5977SOL    HW219771   2.602   5.822   9.506
 5978SOL     OW19772  12.820  14.532  12.252
 5978SOL    HW119773  12.745  14.476  12.234
 5978SOL    HW219774  12.828  14.530  12.348
 5979SOL     OW19775  12.497   1.179   1.809
 5979SOL    HW119776  12.528   1.244   1.746
 5979SOL    HW219777  12.564   1.111   1.808
 5980SOL     OW19778   1.654  11.483   3.740
 5980SOL    HW119779   1.618  11.570   3.722
 5980SOL    HW219780   1.748  11.499   3.753
 5981SOL     OW19781   8.407   0.162   6.186
 5981SOL    HW119782   8.457   0.129   6.111
 5981SOL    HW219783   8.400   0.087   6.245
 5982SOL     OW19784  14.483  13.362  14.725
 5982SOL    HW119785  14.404  13.336  14.773
 5982SOL    HW219786  14.451  13.418  14.655
 5983SOL     OW19787  11.740   6.156   9.054
 5983SOL    HW119788  11.655   6.198   9.045
 5983SOL    HW219789  11.803   6.228   9.049
 5984SOL     OW19790   5.009   0.556   6.350
 5984SOL    HW119791   4.971   0.473   6.380
 5984SOL    HW219792   5.059   0.533   6.272
 5985SOL     OW19793   8.702   1.438  13.001
 5985SOL    HW119794   8.649   1.516  12.987
 5985SOL    HW219795   8.723   1.439  13.095
 5986SOL     OW19796   4.145   4.014   0.143
 5986SOL    HW119797   4.141   4.072   0.220
 5986SOL    HW219798   4.222   3.961   0.158
 5987SOL     OW19799  12.739  13.264   3.055
 5987SOL    HW119800  12.723  13.218   2.972
 5987SOL    HW219801  12.653  13.295   3.082
 5988SOL     OW19802  14.708   1.949   6.123
 5988SOL    HW119803  14.737   2.038   6.145
 5988SOL    HW219804  14.777   1.914   6.067
 5989SOL     OW19805   2.216   9.145  14.294
 5989SOL    HW119806   2.287   9.160  14.232
 5989SOL    HW219807   2.261   9.130  14.378
 5990SOL     OW19808   4.436   9.732   5.273
 5990SOL    HW119809   4.412   9.821   5.249
 5990SOL    HW219810   4.509   9.742   5.334
 5991SOL     OW19811   4.607   6.316   3.007
 5991SOL    HW119812   4.516   6.314   3.037
 5991SOL    HW219813   4.625   6.408   2.991
 5992SOL     OW19814  12.794   2.403  13.216
 5992SOL    HW119815  12.833   2.368  13.135
 5992SOL    HW219816  12.708   2.361  13.220
 5993SOL     OW19817   4.053  14.172   4.556
 5993SOL    HW119818   4.092  14.129   4.632
 5993SOL    HW219819   4.107  14.146   4.482
 5994SOL     OW19820  14.640  14.040   7.123
 5994SOL    HW119821  14.561  14.093   7.110
 5994SOL    HW219822  14.695  14.093   7.181
 5995SOL     OW19823  10.921   6.780   4.558
 5995SOL    HW119824  10.880   6.697   4.581
 5995SOL    HW219825  10.873   6.810   4.481
 5996SOL     OW19826   3.863  14.096  13.997
 5996SOL    HW119827   3.775  14.062  13.980
 5996SOL    HW219828   3.858  14.136  14.083
 5997SOL     OW19829   0.143   1.981  12.800
 5997SOL    HW119830   0.107   1.996  12.887
 5997SOL    HW219831   0.164   1.888  12.798
 5998SOL     OW19832   9.160   5.657  13.046
 5998SOL    HW119833   9.109   5.576  13.046
 5998SOL    HW219834   9.117   5.712  13.111
 5999SOL     OW19835   3.240   4.052   4.905
 5999SOL    HW119836   3.158   4.024   4.865
 5999SOL    HW219837   3.215   4.093   4.987
 6000SOL     OW19838  13.334  13.020   6.635
 6000SOL    HW119839  13.290  12.993   6.554
 6000SOL    HW219840  13.270  13.075   6.680
 6001SOL     OW19841   6.651   5.464  10.072
 6001SOL    HW119842   6.659   5.521   9.995
 6001SOL    HW219843   6.572   5.496  10.117
 6002SOL     OW19844   2.706  13.698   0.812
 6002SOL    HW119845   2.765  13.705   0.888
 6002SOL    HW219846   2.765  13.692   0.737
 6003SOL     OW19847   5.668   3.175   9.468
 6003SOL    HW119848   5.646   3.092   9.426
 6003SOL    HW219849   5.738   3.211   9.414
 6004SOL     OW19850  13.760   4.822  13.821
 6004SOL    HW119851  13.667   4.837  13.808
 6004SOL    HW219852  13.771   4.822  13.916
 6005SOL     OW19853   7.612   7.943  13.506
 6005SOL    HW119854   7.565   8.022  13.482
 6005SOL    HW219855   7.597   7.934  13.600
 6006SOL     OW19856   2.439  10.852   2.865
 6006SOL    HW119857   2.484  10.897   2.936
 6006SOL    HW219858   2.388  10.920   2.821
 6007SOL     OW19859  11.374  14.209   1.197
 6007SOL    HW119860  11.399  14.246   1.112
 6007SOL    HW219861  11.442  14.144   1.216
 6008SOL     OW19862  12.369   0.804  10.256
 6008SOL    HW119863  12.341   0.769  10.171
 6008SOL    HW219864  12.416   0.732  10.297
 6009SOL     OW19865   0.137  12.910   5.786
 6009SOL    HW119866   0.073  12.847   5.753
 6009SOL    HW219867   0.193  12.858   5.844
 6010SOL     OW19868  11.618   8.819  13.362
 6010SOL    HW119869  11.700   8.835  13.409
 6010SOL    HW219870  11.556   8.792  13.430
 6011SOL     OW19871   0.541  10.471   8.996
 6011SOL    HW119872   0.587  10.550   9.025
 6011SOL    HW219873   0.455  10.476   9.037
 6012SOL     OW19874   9.130  11.263   2.898
 6012SOL    HW119875   9.085  11.315   2.964
 6012SOL    HW219876   9.077  11.184   2.888
 6013SOL     OW19877  10.018   8.192   2.677
 6013SOL    HW119878  10.067   8.231   2.604
 6013SOL    HW219879  10.053   8.103   2.684
 6014SOL     OW19880   4.631  14.102   1.693
 6014SOL    HW119881   4.684  14.073   1.767
 6014SOL    HW219882   4.682  14.171   1.653
 6015SOL     OW19883  11.449  10.762   9.949
 6015SOL    HW119884  11.484  10.757  10.038
 6015SOL    HW219885  11.524  10.789   9.896
 6016SOL     OW19886  10.981  12.435   1.857
 6016SOL    HW119887  11.071  12.467   1.859
 6016SOL    HW219888  10.936  12.495   1.797
 6017SOL     OW19889   5.645   4.579   8.853
 6017SOL    HW119890   5.652   4.610   8.763
 6017SOL    HW219891   5.727   4.533   8.870
 6018SOL     OW19892  14.354  13.231   6.446
 6018SOL    HW119893  14.311  13.151   6.416
 6018SOL    HW219894  14.284  13.297   6.444
 6019SOL     OW19895  14.624   7.554  11.878
 6019SOL    HW119896  14.636   7.623  11.813
 6019SOL    HW219897  14.713   7.524  11.898
 6020SOL     OW19898   3.986   2.810   4.895
 6020SOL    HW119899   3.918   2.864   4.934
 6020SOL    HW219900   3.973   2.818   4.801
 6021SOL     OW19901   0.354   0.875   0.008
 6021SOL    HW119902   0.362   0.812   0.081
 6021SOL    HW219903   0.361   0.821  14.811
 6022SOL     OW19904  14.012  13.390   0.796
 6022SOL    HW119905  13.945  13.395   0.865
 6022SOL    HW219906  13.989  13.312   0.746
 6023SOL     OW19907   8.708   0.380  14.734
 6023SOL    HW119908   8.681   0.292  14.710
 6023SOL    HW219909   8.746   0.416  14.654
 6024SOL     OW19910   0.301   5.720   5.802
 6024SOL    HW119911   0.227   5.676   5.843
 6024SOL    HW219912   0.262   5.788   5.747
 6025SOL     OW19913  12.538  12.405  11.853
 6025SOL    HW119914  12.570  12.377  11.939
 6025SOL    HW219915  12.600  12.473  11.825
 6026SOL     OW19916   3.372  10.289  10.437
 6026SOL    HW119917   3.325  10.369  10.460
 6026SOL    HW219918   3.331  10.260  10.356
 6027SOL     OW19919   3.783   6.959   9.661
 6027SOL    HW119920   3.704   6.912   9.633
 6027SOL    HW219921   3.753   7.048   9.680
 6028SOL     OW19922   8.066   5.282   5.580
 6028SOL    HW119923   8.083   5.189   5.565
 6028SOL    HW219924   8.050   5.318   5.493
 6029SOL     OW19925   8.411   9.439   6.498
 6029SOL    HW119926   8.497   9.426   6.537
 6029SOL    HW219927   8.356   9.472   6.569
 6030SOL     OW19928  12.573  13.658   9.397
 6030SOL    HW119929  12.558  13.740   9.445
 6030SOL    HW219930  12.663  13.665   9.366
 6031SOL     OW19931   3.027   3.320   1.533
 6031SOL    HW119932   3.039   3.408   1.498
 6031SOL    HW219933   3.059   3.262   1.464
 6032SOL     OW19934   3.867  14.054  13.324
 6032SOL    HW119935   3.808  14.116  13.365
 6032SOL    HW219936   3.910  14.103  13.254
 6033SOL     OW19937   8.294   5.776   1.212
 6033SOL    HW119938   8.279   5.722   1.135
 6033SOL    HW219939   8.387   5.765   1.232
 6034SOL     OW19940  13.491   5.411   3.490
 6034SOL    HW119941  13.406   5.428   3.450
 6034SOL    HW219942  13.495   5.316   3.498
 6035SOL     OW19943  11.315  12.122   2.506
 6035SOL    HW119944  11.292  12.193   2.446
 6035SOL    HW219945  11.240  12.062   2.503
 6036SOL     OW19946  13.436   6.508   6.445
 6036SOL    HW119947  13.497   6.490   6.517
 6036SOL    HW219948  13.377   6.433   6.445
 6037SOL     OW19949  14.046   2.677   9.355
 6037SOL    HW119950  14.107   2.660   9.283
 6037SOL    HW219951  14.072   2.616   9.424
 6038SOL     OW19952  14.794  12.420   7.803
 6038SOL    HW119953  14.820  12.484   7.737
 6038SOL    HW219954  14.873  12.369   7.819
 6039SOL     OW19955  11.966  12.100   5.109
 6039SOL    HW119956  12.017  12.164   5.159
 6039SOL    HW219957  12.009  12.098   5.023
 6040SOL     OW19958   2.544   1.662  11.351
 6040SOL    HW119959   2.456   1.648  11.316
 6040SOL    HW219960   2.547   1.754  11.376
 6041SOL     OW19961   6.368   9.231   8.437
 6041SOL    HW119962   6.372   9.224   8.532
 6041SOL    HW219963   6.451   9.273   8.412
 6042SOL     OW19964   9.695   4.453   6.827
 6042SOL    HW119965   9.608   4.485   6.803
 6042SOL    HW219966   9.737   4.431   6.744
 6043SOL     OW19967  13.564  12.484   3.151
 6043SOL    HW119968  13.519  12.426   3.213
 6043SOL    HW219969  13.554  12.571   3.188
 6044SOL     OW19970   2.623  14.167   2.277
 6044SOL    HW119971   2.622  14.075   2.306
 6044SOL    HW219972   2.687  14.209   2.334
 6045SOL     OW19973  11.084  14.215   3.306
 6045SOL    HW119974  11.133  14.135   3.287
 6045SOL    HW219975  11.018  14.220   3.238
 6046SOL     OW19976   9.143   0.804   1.055
 6046SOL    HW119977   9.082   0.803   1.129
 6046SOL    HW219978   9.191   0.887   1.065
 6047SOL     OW19979  11.907  10.560   5.795
 6047SOL    HW119980  12.001  10.544   5.795
 6047SOL    HW219981  11.871  10.497   5.733
 6048SOL     OW19982  12.321  10.680   8.061
 6048SOL    HW119983  12.274  10.763   8.057
 6048SOL    HW219984  12.327  10.660   8.154
 6049SOL     OW19985   6.354   6.134   2.702
 6049SOL    HW119986   6.275   6.173   2.742
 6049SOL    HW219987   6.353   6.043   2.732
 6050SOL     OW19988   5.076  14.250   1.328
 6050SOL    HW119989   5.124  14.226   1.407
 6050SOL    HW219990   5.056  14.343   1.339
 6051SOL     OW19991   6.683   6.235  14.275
 6051SOL    HW119992   6.688   6.262  14.367
 6051SOL    HW219993   6.756   6.279  14.233
 6052SOL     OW19994   3.643  11.839   8.244
 6052SOL    HW119995   3.641  11.766   8.181
 6052SOL    HW219996   3.562  11.830   8.294
 6053SOL     OW19997  10.142   1.806   6.556
 6053SOL    HW119998  10.144   1.739   6.624
 6053SOL    HW219999  10.203   1.873   6.587
 6054SOL     OW20000   7.157   3.890   5.564
 6054SOL    HW120001   7.140   3.847   5.648
 6054SOL    HW220002   7.118   3.977   5.574
 6055SOL     OW20003   9.051   0.805  12.824
 6055SOL    HW120004   9.135   0.766  12.800
 6055SOL    HW220005   9.005   0.817  12.741
 6056SOL     OW20006   3.895  14.668  10.372
 6056SOL    HW120007   3.850  14.738  10.417
 6056SOL    HW220008   3.833  14.636  10.307
 6057SOL     OW20009  11.729  13.020   1.632
 6057SOL    HW120010  11.666  13.089   1.653
 6057SOL    HW220011  11.734  12.968   1.712
 6058SOL     OW20012   2.341  11.461  11.565
 6058SOL    HW120013   2.387  11.387  11.527
 6058SOL    HW220014   2.255  11.426  11.590
 6059SOL     OW20015   2.133  10.608   5.280
 6059SOL    HW120016   2.190  10.545   5.325
 6059SOL    HW220017   2.183  10.634   5.202
 6060SOL     OW20018  10.083  11.447   9.767
 6060SOL    HW120019  10.114  11.520   9.713
 6060SOL    HW220020  10.082  11.482   9.856
 6061SOL     OW20021  14.514   0.575   3.446
 6061SOL    HW120022  14.510   0.649   3.506
 6061SOL    HW220023  14.429   0.530   3.457
 6062SOL     OW20024  14.670  12.926   7.733
 6062SOL    HW120025  14.714  12.862   7.789
 6062SOL    HW220026  14.740  12.984   7.703
 6063SOL     OW20027   0.532   6.316  12.958
 6063SOL    HW120028   0.541   6.395  12.904
 6063SOL    HW220029   0.616   6.271  12.947
 6064SOL     OW20030  10.022   7.911   3.906
 6064SOL    HW120031   9.967   7.990   3.900
 6064SOL    HW220032   9.963   7.844   3.940
 6065SOL     OW20033   2.492   5.465   3.571
 6065SOL    HW120034   2.582   5.495   3.587
 6065SOL    HW220035   2.483   5.470   3.476
 6066SOL     OW20036   3.188  10.177   6.931
 6066SOL    HW120037   3.271  10.194   6.974
 6066SOL    HW220038   3.199  10.093   6.887
 6067SOL     OW20039   3.487   0.059   0.965
 6067SOL    HW120040   3.403   0.014   0.967
 6067SOL    HW220041   3.487   0.115   1.043
 6068SOL     OW20042   2.010  12.908   0.601
 6068SOL    HW120043   1.915  12.921   0.596
 6068SOL    HW220044   2.043  12.940   0.517
 6069SOL     OW20045   8.544   0.848   5.474
 6069SOL    HW120046   8.589   0.853   5.390
 6069SOL    HW220047   8.578   0.922   5.524
 6070SOL     OW20048   4.077  11.285   7.141
 6070SOL    HW120049   4.138  11.218   7.109
 6070SOL    HW220050   4.006  11.235   7.183
 6071SOL     OW20051  11.274  14.631   7.580
 6071SOL    HW120052  11.355  14.682   7.574
 6071SOL    HW220053  11.296  14.547   7.541
 6072SOL     OW20054   5.368   1.902  11.168
 6072SOL    HW120055   5.335   1.854  11.244
 6072SOL    HW220056   5.352   1.994  11.188
 6073SOL     OW20057   0.059   8.533  10.981
 6073SOL    HW120058   0.048   8.574  11.067
 6073SOL    HW220059  14.863   8.478  10.972
 6074SOL     OW20060   5.698   4.980   8.112
 6074SOL    HW120061   5.751   4.919   8.164
 6074SOL    HW220062   5.750   4.994   8.032
 6075SOL     OW20063   6.772   0.920   2.794
 6075SOL    HW120064   6.784   0.926   2.700
 6075SOL    HW220065   6.706   0.986   2.815
 6076SOL     OW20066   6.110   6.273   2.732
 6076SOL    HW120067   6.049   6.207   2.763
 6076SOL    HW220068   6.069   6.309   2.654
 6077SOL     OW20069   6.519   6.878  13.422
 6077SOL    HW120070   6.575   6.911  13.492
 6077SOL    HW220071   6.578   6.830  13.364
 6078SOL     OW20072  14.083   0.102  11.531
 6078SOL    HW120073  14.153   0.153  11.572
 6078SOL    HW220074  14.098   0.012  11.562
 6079SOL     OW20075   1.025   6.260   4.886
 6079SOL    HW120076   1.066   6.305   4.960
 6079SOL    HW220077   0.960   6.202   4.926
 6080SOL     OW20078   5.693   5.192  14.253
 6080SOL    HW120079   5.763   5.257  14.256
 6080SOL    HW220080   5.645   5.211  14.172
 6081SOL     OW20081   2.014  10.529  12.007
 6081SOL    HW120082   1.939  10.474  11.984
 6081SOL    HW220083   2.058  10.546  11.924
 6082SOL     OW20084   0.491   5.987   5.536
 6082SOL    HW120085   0.399   5.998   5.511
 6082SOL    HW220086   0.535   6.064   5.501
 6083SOL     OW20087   9.087  10.492   5.113
 6083SOL    HW120088   9.049  10.467   5.197
 6083SOL    HW220089   9.181  10.501   5.132
 6084SOL     OW20090   9.751   0.221   2.352
 6084SOL    HW120091   9.759   0.243   2.444
 6084SOL    HW220092   9.724   0.129   2.351
 6085SOL     OW20093   8.281   3.981  12.745
 6085SOL    HW120094   8.240   3.939  12.820
 6085SOL    HW220095   8.263   4.074  12.757
 6086SOL     OW20096   8.947   8.788   7.895
 6086SOL    HW120097   8.988   8.762   7.978
 6086SOL    HW220098   8.857   8.758   7.902
 6087SOL     OW20099   5.056   5.298  14.115
 6087SOL    HW120100   5.144   5.283  14.150
 6087SOL    HW220101   5.034   5.216  14.070
 6088SOL     OW20102  11.636   3.368   4.206
 6088SOL    HW120103  11.706   3.303   4.202
 6088SOL    HW220104  11.556   3.319   4.190
 6089SOL     OW20105  14.224   9.773   4.006
 6089SOL    HW120106  14.218   9.681   3.980
 6089SOL    HW220107  14.317   9.795   3.996
 6090SOL     OW20108   6.082  12.254  11.763
 6090SOL    HW120109   6.087  12.350  11.766
 6090SOL    HW220110   6.165  12.225  11.800
 6091SOL     OW20111   3.502  10.170   2.248
 6091SOL    HW120112   3.527  10.125   2.328
 6091SOL    HW220113   3.534  10.260   2.259
 6092SOL     OW20114   8.332   6.253  10.328
 6092SOL    HW120115   8.389   6.306  10.272
 6092SOL    HW220116   8.294   6.316  10.389
 6093SOL     OW20117  12.155  11.080   1.084
 6093SOL    HW120118  12.177  11.033   1.164
 6093SOL    HW220119  12.189  11.168   1.098
 6094SOL     OW20120   1.830   1.638   4.714
 6094SOL    HW120121   1.760   1.699   4.690
 6094SOL    HW220122   1.784   1.560   4.746
 6095SOL     OW20123   7.771   0.704   4.016
 6095SOL    HW120124   7.787   0.730   4.107
 6095SOL    HW220125   7.732   0.617   4.022
 6096SOL     OW20126   7.585   0.806   1.186
 6096SOL    HW120127   7.623   0.788   1.272
 6096SOL    HW220128   7.634   0.881   1.153
 6097SOL     OW20129  12.232   7.502   5.275
 6097SOL    HW120130  12.157   7.555   5.304
 6097SOL    HW220131  12.258   7.454   5.354
 6098SOL     OW20132   4.446  10.294   1.566
 6098SOL    HW120133   4.440  10.362   1.499
 6098SOL    HW220134   4.472  10.215   1.519
 6099SOL     OW20135   1.636   7.143   0.186
 6099SOL    HW120136   1.557   7.149   0.241
 6099SOL    HW220137   1.685   7.223   0.206
 6100SOL     OW20138   5.917   0.722   8.167
 6100SOL    HW120139   6.002   0.725   8.210
 6100SOL    HW220140   5.929   0.770   8.086
 6101SOL     OW20141   3.866   1.385   3.963
 6101SOL    HW120142   3.814   1.438   4.022
 6101SOL    HW220143   3.943   1.360   4.014
 6102SOL     OW20144   0.362  14.500   1.155
 6102SOL    HW120145   0.422  14.428   1.176
 6102SOL    HW220146   0.330  14.529   1.241
 6103SOL     OW20147  10.755  12.953  12.068
 6103SOL    HW120148  10.734  12.867  12.105
 6103SOL    HW220149  10.738  13.014  12.140
 6104SOL     OW20150  13.161   0.698  11.789
 6104SOL    HW120151  13.163   0.788  11.820
 6104SOL    HW220152  13.211   0.649  11.854
 6105SOL     OW20153  11.859   6.984   1.740
 6105SOL    HW120154  11.853   6.921   1.813
 6105SOL    HW220155  11.777   6.972   1.692
 6106SOL     OW20156   2.594   7.403   9.823
 6106SOL    HW120157   2.678   7.386   9.780
 6106SOL    HW220158   2.604   7.366   9.910
 6107SOL     OW20159   5.290  12.765   2.197
 6107SOL    HW120160   5.311  12.674   2.219
 6107SOL    HW220161   5.298  12.812   2.280
 6108SOL     OW20162   1.131   9.580  11.735
 6108SOL    HW120163   1.084   9.512  11.688
 6108SOL    HW220164   1.062   9.638  11.768
 6109SOL     OW20165   6.746   1.135  10.843
 6109SOL    HW120166   6.732   1.159  10.751
 6109SOL    HW220167   6.743   1.219  10.889
 6110SOL     OW20168   9.465   5.839   5.053
 6110SOL    HW120169   9.530   5.907   5.032
 6110SOL    HW220170   9.505   5.789   5.124
 6111SOL     OW20171  13.702   6.832  14.243
 6111SOL    HW120172  13.738   6.743  14.247
 6111SOL    HW220173  13.650   6.840  14.322
 6112SOL     OW20174  10.265   4.887   3.085
 6112SOL    HW120175  10.257   4.898   2.990
 6112SOL    HW220176  10.289   4.974   3.117
 6113SOL     OW20177  10.605  13.762   4.062
 6113SOL    HW120178  10.524  13.755   4.012
 6113SOL    HW220179  10.578  13.752   4.154
 6114SOL     OW20180   3.820  12.269   1.941
 6114SOL    HW120181   3.790  12.272   1.850
 6114SOL    HW220182   3.780  12.346   1.982
 6115SOL     OW20183  10.172   0.782   7.170
 6115SOL    HW120184  10.084   0.766   7.138
 6115SOL    HW220185  10.193   0.871   7.142
 6116SOL     OW20186   1.288  11.316   9.162
 6116SOL    HW120187   1.212  11.348   9.211
 6116SOL    HW220188   1.357  11.306   9.228
 6117SOL     OW20189   1.629  12.173   5.343
 6117SOL    HW120190   1.535  12.174   5.329
 6117SOL    HW220191   1.665  12.226   5.271
 6118SOL     OW20192  13.392   2.733   1.777
 6118SOL    HW120193  13.330   2.687   1.720
 6118SOL    HW220194  13.337   2.794   1.826
 6119SOL     OW20195   2.012  14.106  10.005
 6119SOL    HW120196   1.941  14.152   9.959
 6119SOL    HW220197   1.967  14.053  10.071
 6120SOL     OW20198  11.904   0.946   3.219
 6120SOL    HW120199  11.899   0.999   3.140
 6120SOL    HW220200  11.998   0.934   3.234
 6121SOL     OW20201   6.568   0.302   0.325
 6121SOL    HW120202   6.632   0.373   0.324
 6121SOL    HW220203   6.535   0.297   0.236
 6122SOL     OW20204   1.065  12.788  11.103
 6122SOL    HW120205   1.060  12.722  11.172
 6122SOL    HW220206   1.159  12.806  11.093
 6123SOL     OW20207  11.125  14.565   1.059
 6123SOL    HW120208  11.096  14.510   1.132
 6123SOL    HW220209  11.147  14.504   0.990
 6124SOL     OW20210  14.151   8.790  10.723
 6124SOL    HW120211  14.227   8.785  10.666
 6124SOL    HW220212  14.090   8.848  10.678
 6125SOL     OW20213   8.387   7.399   0.983
 6125SOL    HW120214   8.312   7.339   0.976
 6125SOL    HW220215   8.348   7.482   1.010
 6126SOL     OW20216   5.251   6.009   4.403
 6126SOL    HW120217   5.201   5.999   4.322
 6126SOL    HW220218   5.185   6.016   4.472
 6127SOL     OW20219   1.944   4.326  12.831
 6127SOL    HW120220   1.958   4.348  12.739
 6127SOL    HW220221   2.003   4.253  12.848
 6128SOL     OW20222   9.708   2.862  14.180
 6128SOL    HW120223   9.700   2.905  14.095
 6128SOL    HW220224   9.746   2.777  14.160
 6129SOL     OW20225   9.170   9.235   3.705
 6129SOL    HW120226   9.121   9.255   3.626
 6129SOL    HW220227   9.122   9.162   3.745
 6130SOL     OW20228   3.044   4.634   1.435
 6130SOL    HW120229   3.120   4.586   1.401
 6130SOL    HW220230   3.075   4.725   1.439
 6131SOL     OW20231  14.591   4.508  11.072
 6131SOL    HW120232  14.587   4.442  11.142
 6131SOL    HW220233  14.557   4.588  11.113
 6132SOL     OW20234   4.969  12.400   2.856
 6132SOL    HW120235   4.876  12.399   2.832
 6132SOL    HW220236   4.971  12.365   2.945
 6133SOL     OW20237  11.834  11.028  10.172
 6133SOL    HW120238  11.796  10.988  10.250
 6133SOL    HW220239  11.787  10.987  10.099
 6134SOL     OW20240   5.160   4.949  10.051
 6134SOL    HW120241   5.081   4.984  10.091
 6134SOL    HW220242   5.139   4.941   9.958
 6135SOL     OW20243   1.097   6.019   9.867
 6135SOL    HW120244   1.174   6.056   9.911
 6135SOL    HW220245   1.112   5.925   9.868
 6136SOL     OW20246   2.008  10.612   3.807
 6136SOL    HW120247   2.017  10.602   3.902
 6136SOL    HW220248   2.072  10.552   3.770
 6137SOL     OW20249   7.629   0.253  12.625
 6137SOL    HW120250   7.628   0.187  12.555
 6137SOL    HW220251   7.559   0.225  12.685
 6138SOL     OW20252   6.173   7.035  11.652
 6138SOL    HW120253   6.096   7.081  11.684
 6138SOL    HW220254   6.141   6.984  11.577
 6139SOL     OW20255  11.846   4.985   9.314
 6139SOL    HW120256  11.871   5.036   9.237
 6139SOL    HW220257  11.903   4.909   9.311
 6140SOL     OW20258  13.055  14.105   0.168
 6140SOL    HW120259  13.091  14.115   0.256
 6140SOL    HW220260  13.052  14.010   0.154
 6141SOL     OW20261  10.953   3.337   7.142
 6141SOL    HW120262  10.974   3.365   7.053
 6141SOL    HW220263  11.037   3.311   7.179
 6142SOL     OW20264  13.347  10.893   1.777
 6142SOL    HW120265  13.258  10.880   1.812
 6142SOL    HW220266  13.346  10.849   1.692
 6143SOL     OW20267   6.273   7.959  14.736
 6143SOL    HW120268   6.242   7.885  14.787
 6143SOL    HW220269   6.321   7.920  14.663
 6144SOL     OW20270   9.118  10.146   2.462
 6144SOL    HW120271   9.133  10.174   2.372
 6144SOL    HW220272   9.199  10.103   2.488
 6145SOL     OW20273  14.512   4.129   1.439
 6145SOL    HW120274  14.558   4.080   1.370
 6145SOL    HW220275  14.428   4.152   1.400
 6146SOL     OW20276   4.071   2.585  10.822
 6146SOL    HW120277   4.128   2.661  10.835
 6146SOL    HW220278   3.997   2.601  10.880
 6147SOL     OW20279  11.480  10.255  14.546
 6147SOL    HW120280  11.386  10.269  14.549
 6147SOL    HW220281  11.508  10.256  14.638
 6148SOL     OW20282  10.374   1.447   9.646
 6148SOL    HW120283  10.309   1.414   9.708
 6148SOL    HW220284  10.445   1.383   9.651
 6149SOL     OW20285  14.613   1.304   2.631
 6149SOL    HW120286  14.544   1.369   2.637
 6149SOL    HW220287  14.572   1.222   2.659
 6150SOL     OW20288   8.084  14.441   9.825
 6150SOL    HW120289   8.000  14.410   9.791
 6150SOL    HW220290   8.062  14.488   9.905
 6151SOL     OW20291  14.618  12.923   2.707
 6151SOL    HW120292  14.681  12.967   2.763
 6151SOL    HW220293  14.668  12.898   2.629
 6152SOL     OW20294   0.187   6.684  12.331
 6152SOL    HW120295   0.258   6.746  12.345
 6152SOL    HW220296   0.108   6.739  12.330
 6153SOL     OW20297  10.082   2.134   4.977
 6153SOL    HW120298  10.066   2.228   4.971
 6153SOL    HW220299  10.167   2.121   4.934
 6154SOL     OW20300   1.787   7.470  14.510
 6154SOL    HW120301   1.698   7.502  14.500
 6154SOL    HW220302   1.841   7.535  14.465
 6155SOL     OW20303   5.286  13.644  14.605
 6155SOL    HW120304   5.200  13.679  14.582
 6155SOL    HW220305   5.269  13.587  14.680
 6156SOL     OW20306  11.319  12.480   3.996
 6156SOL    HW120307  11.354  12.484   4.085
 6156SOL    HW220308  11.252  12.411   4.001
 6157SOL     OW20309   5.191  11.367  11.728
 6157SOL    HW120310   5.267  11.425  11.725
 6157SOL    HW220311   5.118  11.422  11.701
 6158SOL     OW20312   4.032   8.917  14.466
 6158SOL    HW120313   4.028   8.889  14.558
 6158SOL    HW220314   4.030   9.013  14.470
 6159SOL     OW20315   1.286   7.302   6.098
 6159SOL    HW120316   1.209   7.313   6.155
 6159SOL    HW220317   1.315   7.391   6.079
 6160SOL     OW20318  10.382   6.965   7.256
 6160SOL    HW120319  10.475   6.982   7.274
 6160SOL    HW220320  10.382   6.905   7.182
 6161SOL     OW20321   4.395   0.451  13.952
 6161SOL    HW120322   4.303   0.467  13.931
 6161SOL    HW220323   4.438   0.535  13.935
 6162SOL     OW20324  10.180   2.906   7.545
 6162SOL    HW120325  10.087   2.884   7.557
 6162SOL    HW220326  10.221   2.824   7.519
 6163SOL     OW20327  12.580  11.830   9.732
 6163SOL    HW120328  12.502  11.777   9.752
 6163SOL    HW220329  12.578  11.900   9.799
 6164SOL     OW20330   7.191   1.077  11.281
 6164SOL    HW120331   7.234   1.140  11.223
 6164SOL    HW220332   7.250   1.002  11.284
 6165SOL     OW20333   5.072  12.023   4.582
 6165SOL    HW120334   5.012  11.991   4.514
 6165SOL    HW220335   5.073  11.954   4.648
 6166SOL     OW20336  13.831  11.460  13.528
 6166SOL    HW120337  13.817  11.367  13.544
 6166SOL    HW220338  13.857  11.464  13.436
 6167SOL     OW20339   4.903   9.436  12.290
 6167SOL    HW120340   4.829   9.404  12.238
 6167SOL    HW220341   4.884   9.405  12.379
 6168SOL     OW20342  14.628   0.219   3.826
 6168SOL    HW120343  14.635   0.284   3.756
 6168SOL    HW220344  14.691   0.151   3.802
 6169SOL     OW20345   6.810  14.710  10.699
 6169SOL    HW120346   6.736  14.713  10.638
 6169SOL    HW220347   6.769  14.702  10.785
 6170SOL     OW20348   9.689   3.527   9.176
 6170SOL    HW120349   9.773   3.515   9.220
 6170SOL    HW220350   9.658   3.612   9.205
 6171SOL     OW20351   2.367   7.884  10.787
 6171SOL    HW120352   2.458   7.897  10.815
 6171SOL    HW220353   2.315   7.930  10.853
 6172SOL     OW20354   6.195   5.952   2.219
 6172SOL    HW120355   6.263   6.009   2.184
 6172SOL    HW220356   6.137   6.009   2.269
 6173SOL     OW20357   7.546   3.043   8.074
 6173SOL    HW120358   7.618   3.095   8.038
 6173SOL    HW220359   7.471   3.103   8.075
 6174SOL     OW20360   3.259  12.160   2.592
 6174SOL    HW120361   3.234  12.203   2.510
 6174SOL    HW220362   3.354  12.168   2.595
 6175SOL     OW20363  11.561   5.973   4.665
 6175SOL    HW120364  11.607   5.983   4.748
 6175SOL    HW220365  11.496   5.905   4.681
 6176SOL     OW20366  14.574  11.589   8.389
 6176SOL    HW120367  14.587  11.684   8.387
 6176SOL    HW220368  14.631  11.556   8.320
 6177SOL     OW20369   1.351  10.498   4.563
 6177SOL    HW120370   1.285  10.429   4.552
 6177SOL    HW220371   1.369  10.529   4.474
 6178SOL     OW20372   0.294   6.106   6.530
 6178SOL    HW120373   0.221   6.045   6.521
 6178SOL    HW220374   0.350   6.088   6.454
 6179SOL     OW20375  14.597   0.168   2.418
 6179SOL    HW120376  14.525   0.226   2.394
 6179SOL    HW220377  14.574   0.084   2.379
 6180SOL     OW20378  10.789   2.431   4.400
 6180SOL    HW120379  10.697   2.453   4.419
 6180SOL    HW220380  10.809   2.359   4.460
 6181SOL     OW20381   6.922   7.157   6.936
 6181SOL    HW120382   6.949   7.147   7.028
 6181SOL    HW220383   6.996   7.124   6.886
 6182SOL     OW20384   7.559   4.350   6.989
 6182SOL    HW120385   7.556   4.377   6.897
 6182SOL    HW220386   7.653   4.346   7.009
 6183SOL     OW20387   3.270   3.028   4.609
 6183SOL    HW120388   3.365   3.017   4.601
 6183SOL    HW220389   3.253   3.022   4.703
 6184SOL     OW20390   2.416  11.925   3.401
 6184SOL    HW120391   2.404  11.830   3.414
 6184SOL    HW220392   2.504  11.933   3.364
 6185SOL     OW20393  10.187   4.168   9.692
 6185SOL    HW120394  10.260   4.218   9.729
 6185SOL    HW220395  10.143   4.230   9.634
 6186SOL     OW20396   6.478   6.368   6.467
 6186SOL    HW120397   6.395   6.344   6.509
 6186SOL    HW220398   6.497   6.455   6.500
 6187SOL     OW20399  12.978   4.135  11.339
 6187SOL    HW120400  13.047   4.185  11.383
 6187SOL    HW220401  12.908   4.198  11.323
 6188SOL     OW20402  14.452   3.190  13.965
 6188SOL    HW120403  14.430   3.119  13.905
 6188SOL    HW220404  14.530   3.159  14.011
 6189SOL     OW20405   4.810   4.473  11.055
 6189SOL    HW120406   4.865   4.450  11.130
 6189SOL    HW220407   4.866   4.459  10.979
 6190SOL     OW20408  12.770  10.217   7.104
 6190SOL    HW120409  12.822  10.272   7.162
 6190SOL    HW220410  12.746  10.142   7.157
 6191SOL     OW20411   5.203   2.501   4.218
 6191SOL    HW120412   5.255   2.580   4.208
 6191SOL    HW220413   5.164   2.486   4.131
 6192SOL     OW20414   6.579  13.751  10.770
 6192SOL    HW120415   6.563  13.665  10.809
 6192SOL    HW220416   6.502  13.768  10.717
 6193SOL     OW20417   7.215  11.672  12.738
 6193SOL    HW120418   7.219  11.625  12.821
 6193SOL    HW220419   7.306  11.672  12.706
 6194SOL     OW20420  11.543   0.486   0.284
 6194SOL    HW120421  11.563   0.566   0.235
 6194SOL    HW220422  11.498   0.430   0.222
 6195SOL     OW20423   7.845  14.800  14.036
 6195SOL    HW120424   7.897  14.854  14.095
 6195SOL    HW220425   7.775  14.857  14.005
 6196SOL     OW20426  11.518   2.238   3.541
 6196SOL    HW120427  11.538   2.332   3.540
 6196SOL    HW220428  11.453   2.228   3.610
 6197SOL     OW20429   9.596   7.742   2.909
 6197SOL    HW120430   9.672   7.793   2.936
 6197SOL    HW220431   9.557   7.792   2.838
 6198SOL     OW20432  10.548   9.996   7.397
 6198SOL    HW120433  10.604  10.056   7.347
 6198SOL    HW220434  10.582  10.000   7.486
 6199SOL     OW20435   9.451   0.966   0.203
 6199SOL    HW120436   9.504   0.972   0.283
 6199SOL    HW220437   9.452   0.872   0.181
 6200SOL     OW20438  11.981   7.674   7.947
 6200SOL    HW120439  12.032   7.662   8.027
 6200SOL    HW220440  12.038   7.725   7.890
 6201SOL     OW20441  13.104  12.092   1.970
 6201SOL    HW120442  13.071  12.163   2.025
 6201SOL    HW220443  13.061  12.014   2.003
 6202SOL     OW20444   8.925   4.274  10.183
 6202SOL    HW120445   8.900   4.185  10.205
 6202SOL    HW220446   8.948   4.314  10.267
 6203SOL     OW20447  11.698  11.572  10.228
 6203SOL    HW120448  11.749  11.499  10.264
 6203SOL    HW220449  11.748  11.600  10.151
 6204SOL     OW20450  11.465  13.614   6.932
 6204SOL    HW120451  11.519  13.557   6.987
 6204SOL    HW220452  11.382  13.566   6.924
 6205SOL     OW20453   9.688   2.526   3.027
 6205SOL    HW120454   9.599   2.556   3.006
 6205SOL    HW220455   9.701   2.554   3.118
 6206SOL     OW20456   9.615  12.797   1.330
 6206SOL    HW120457   9.624  12.821   1.422
 6206SOL    HW220458   9.571  12.712   1.331
 6207SOL     OW20459   1.944  12.051  10.016
 6207SOL    HW120460   1.922  12.091   9.932
 6207SOL    HW220461   1.965  12.125  10.073
 6208SOL     OW20462   2.376   9.932   8.493
 6208SOL    HW120463   2.414   9.929   8.580
 6208SOL    HW220464   2.316  10.007   8.495
 6209SOL     OW20465  11.902   0.069   5.429
 6209SOL    HW120466  11.888  14.856   5.423
 6209SOL    HW220467  11.850   0.096   5.505
 6210SOL     OW20468  12.968   8.077   1.592
 6210SOL    HW120469  12.984   7.993   1.549
 6210SOL    HW220470  13.054   8.105   1.623
 6211SOL     OW20471   3.285   3.957   1.734
 6211SOL    HW120472   3.247   3.991   1.653
 6211SOL    HW220473   3.271   4.026   1.799
 6212SOL     OW20474   0.871   1.153   1.372
 6212SOL    HW120475   0.860   1.082   1.309
 6212SOL    HW220476   0.790   1.203   1.367
 6213SOL     OW20477   0.900   1.976   0.260
 6213SOL    HW120478   0.959   1.904   0.280
 6213SOL    HW220479   0.871   2.009   0.345
 6214SOL     OW20480   9.014  10.880  11.222
 6214SOL    HW120481   9.095  10.917  11.257
 6214SOL    HW220482   9.041  10.804  11.172
 6215SOL     OW20483  11.874   8.267   1.991
 6215SOL    HW120484  11.905   8.266   1.901
 6215SOL    HW220485  11.891   8.178   2.023
 6216SOL     OW20486   9.122   6.996  10.803
 6216SOL    HW120487   9.129   6.902  10.821
 6216SOL    HW220488   9.029   7.015  10.809
 6217SOL     OW20489   7.369  13.339   4.612
 6217SOL    HW120490   7.274  13.327   4.616
 6217SOL    HW220491   7.394  13.304   4.527
 6218SOL     OW20492  11.510   6.265   2.877
 6218SOL    HW120493  11.431   6.239   2.831
 6218SOL    HW220494  11.552   6.183   2.901
 6219SOL     OW20495   1.016  13.485   4.221
 6219SOL    HW120496   0.951  13.442   4.165
 6219SOL    HW220497   1.099  13.441   4.199
 6220SOL     OW20498   8.507   8.627   8.722
 6220SOL    HW120499   8.567   8.702   8.711
 6220SOL    HW220500   8.524   8.597   8.812
 6221SOL     OW20501   5.253   3.145   8.141
 6221SOL    HW120502   5.280   3.098   8.062
 6221SOL    HW220503   5.192   3.086   8.185
 6222SOL     OW20504   9.072   3.867   6.717
 6222SOL    HW120505   8.998   3.906   6.763
 6222SOL    HW220506   9.127   3.831   6.787
 6223SOL     OW20507   5.227   6.535   7.074
 6223SOL    HW120508   5.170   6.502   7.144
 6223SOL    HW220509   5.277   6.458   7.047
 6224SOL     OW20510   3.485   5.222  10.933
 6224SOL    HW120511   3.497   5.140  10.981
 6224SOL    HW220512   3.569   5.237  10.890
 6225SOL     OW20513   4.590  14.666  12.526
 6225SOL    HW120514   4.621  14.682  12.615
 6225SOL    HW220515   4.646  14.596  12.494
 6226SOL     OW20516   4.672   1.376  12.010
 6226SOL    HW120517   4.644   1.430  12.084
 6226SOL    HW220518   4.764   1.399  11.998
 6227SOL     OW20519   9.802   3.146   3.435
 6227SOL    HW120520   9.874   3.188   3.388
 6227SOL    HW220521   9.731   3.211   3.431
 6228SOL     OW20522   7.949   7.462  13.499
 6228SOL    HW120523   7.869   7.416  13.474
 6228SOL    HW220524   7.986   7.493  13.417
 6229SOL     OW20525  14.286  12.410   8.951
 6229SOL    HW120526  14.360  12.468   8.931
 6229SOL    HW220527  14.326  12.327   8.976
 6230SOL     OW20528   8.052   5.130  14.674
 6230SOL    HW120529   8.102   5.096  14.748
 6230SOL    HW220530   7.989   5.191  14.713
 6231SOL     OW20531   0.213  10.823   2.601
 6231SOL    HW120532   0.173  10.869   2.527
 6231SOL    HW220533   0.205  10.883   2.675
 6232SOL     OW20534   6.694  10.677   0.501
 6232SOL    HW120535   6.662  10.653   0.587
 6232SOL    HW220536   6.624  10.730   0.462
 6233SOL     OW20537   2.464  13.533   7.762
 6233SOL    HW120538   2.420  13.546   7.678
 6233SOL    HW220539   2.545  13.584   7.755
 6234SOL     OW20540   0.445   3.998  14.789
 6234SOL    HW120541   0.524   4.003  14.734
 6234SOL    HW220542   0.470   3.939  14.861
 6235SOL     OW20543  11.130   9.956   2.811
 6235SOL    HW120544  11.195   9.924   2.748
 6235SOL    HW220545  11.121  10.050   2.790
 6236SOL     OW20546   5.308   4.543   5.639
 6236SOL    HW120547   5.340   4.621   5.685
 6236SOL    HW220548   5.233   4.574   5.588
 6237SOL     OW20549   9.983   5.043  14.873
 6237SOL    HW120550   9.925   5.079   0.058
 6237SOL    HW220551  10.011   5.119  14.823
 6238SOL     OW20552   7.232  14.640  10.649
 6238SOL    HW120553   7.234  14.698  10.725
 6238SOL    HW220554   7.148  14.657  10.607
 6239SOL     OW20555   1.862   6.753   9.590
 6239SOL    HW120556   1.767   6.746   9.579
 6239SOL    HW220557   1.876   6.844   9.617
 6240SOL     OW20558   1.509  11.893  14.107
 6240SOL    HW120559   1.528  11.860  14.019
 6240SOL    HW220560   1.435  11.952  14.094
 6241SOL     OW20561  10.264   8.612   9.516
 6241SOL    HW120562  10.309   8.560   9.449
 6241SOL    HW220563  10.173   8.585   9.509
 6242SOL     OW20564  13.042  10.860   8.922
 6242SOL    HW120565  12.985  10.810   8.864
 6242SOL    HW220566  13.064  10.939   8.872
 6243SOL     OW20567  11.195   8.979   8.747
 6243SOL    HW120568  11.232   9.050   8.800
 6243SOL    HW220569  11.148   9.024   8.677
 6244SOL     OW20570   1.583  13.007   7.870
 6244SOL    HW120571   1.503  13.059   7.863
 6244SOL    HW220572   1.649  13.070   7.900
 6245SOL     OW20573   8.067  10.980   4.333
 6245SOL    HW120574   8.083  11.068   4.366
 6245SOL    HW220575   8.030  10.994   4.245
 6246SOL     OW20576  11.885  13.650   5.501
 6246SOL    HW120577  11.848  13.649   5.589
 6246SOL    HW220578  11.980  13.649   5.515
 6247SOL     OW20579  12.042  14.280   1.233
 6247SOL    HW120580  12.010  14.200   1.273
 6247SOL    HW220581  11.972  14.344   1.246
 6248SOL     OW20582   8.951   8.169   9.093
 6248SOL    HW120583   8.997   8.086   9.076
 6248SOL    HW220584   8.959   8.218   9.011
 6249SOL     OW20585  11.427  10.726   7.551
 6249SOL    HW120586  11.454  10.680   7.471
 6249SOL    HW220587  11.359  10.787   7.522
 6250SOL     OW20588   3.782   9.658   9.836
 6250SOL    HW120589   3.849   9.718   9.804
 6250SOL    HW220590   3.830   9.598   9.894
 6251SOL     OW20591  11.184   8.827   9.898
 6251SOL    HW120592  11.235   8.753   9.931
 6251SOL    HW220593  11.192   8.894   9.966
 6252SOL     OW20594   4.160  13.386   0.566
 6252SOL    HW120595   4.246  13.345   0.575
 6252SOL    HW220596   4.134  13.367   0.476
 6253SOL     OW20597  13.120   6.118   8.692
 6253SOL    HW120598  13.204   6.161   8.679
 6253SOL    HW220599  13.073   6.175   8.753
 6254SOL     OW20600  14.154  10.405   6.920
 6254SOL    HW120601  14.169  10.385   7.012
 6254SOL    HW220602  14.241  10.422   6.884
 6255SOL     OW20603   8.943   9.095   0.586
 6255SOL    HW120604   9.038   9.095   0.574
 6255SOL    HW220605   8.918   9.187   0.577
 6256SOL     OW20606   0.036   2.813   2.753
 6256SOL    HW120607  14.869   2.829   2.672
 6256SOL    HW220608  14.877   2.870   2.817
 6257SOL     OW20609  12.559   1.196   4.851
 6257SOL    HW120610  12.619   1.153   4.912
 6257SOL    HW220611  12.512   1.123   4.809
 6258SOL     OW20612   7.500   0.546   8.896
 6258SOL    HW120613   7.591   0.572   8.884
 6258SOL    HW220614   7.452   0.628   8.904
 6259SOL     OW20615   1.328   8.873   8.844
 6259SOL    HW120616   1.320   8.784   8.810
 6259SOL    HW220617   1.375   8.921   8.776
 6260SOL     OW20618   8.954   3.410   9.229
 6260SOL    HW120619   8.871   3.455   9.216
 6260SOL    HW220620   9.018   3.464   9.180
 6261SOL     OW20621   6.691   0.852   2.152
 6261SOL    HW120622   6.781   0.841   2.122
 6261SOL    HW220623   6.666   0.765   2.185
 6262SOL     OW20624   0.722   7.160   8.920
 6262SOL    HW120625   0.778   7.209   8.981
 6262SOL    HW220626   0.659   7.114   8.976
 6263SOL     OW20627   8.866   6.554   3.718
 6263SOL    HW120628   8.831   6.484   3.663
 6263SOL    HW220629   8.961   6.548   3.707
 6264SOL     OW20630   0.987   2.581   1.644
 6264SOL    HW120631   0.905   2.532   1.652
 6264SOL    HW220632   1.036   2.558   1.723
 6265SOL     OW20633  13.037   7.293   1.182
 6265SOL    HW120634  13.045   7.248   1.098
 6265SOL    HW220635  13.015   7.223   1.244
 6266SOL     OW20636  10.405   3.320  12.773
 6266SOL    HW120637  10.451   3.346  12.693
 6266SOL    HW220638  10.313   3.311  12.747
 6267SOL     OW20639   7.343  12.008   6.645
 6267SOL    HW120640   7.350  12.034   6.553
 6267SOL    HW220641   7.284  12.073   6.684
 6268SOL     OW20642   4.884   7.790   8.203
 6268SOL    HW120643   4.894   7.843   8.282
 6268SOL    HW220644   4.968   7.746   8.192
 6269SOL     OW20645  13.459  10.379   6.449
 6269SOL    HW120646  13.445  10.291   6.413
 6269SOL    HW220647  13.379  10.427   6.427
 6270SOL     OW20648   9.816   3.998   1.152
 6270SOL    HW120649   9.749   4.059   1.184
 6270SOL    HW220650   9.898   4.032   1.187
 6271SOL     OW20651  11.545  11.819   2.099
 6271SOL    HW120652  11.512  11.744   2.049
 6271SOL    HW220653  11.618  11.782   2.151
 6272SOL     OW20654  10.603  12.890   8.371
 6272SOL    HW120655  10.552  12.812   8.393
 6272SOL    HW220656  10.627  12.928   8.456
 6273SOL     OW20657  11.741  14.587   4.365
 6273SOL    HW120658  11.817  14.532   4.347
 6273SOL    HW220659  11.732  14.642   4.287
 6274SOL     OW20660  14.216  14.669   8.417
 6274SOL    HW120661  14.160  14.635   8.347
 6274SOL    HW220662  14.300  14.687   8.374
 6275SOL     OW20663  10.009   7.203   3.430
 6275SOL    HW120664  10.064   7.217   3.507
 6275SOL    HW220665   9.924   7.179   3.465
 6276SOL     OW20666  11.655   5.701   2.529
 6276SOL    HW120667  11.589   5.753   2.575
 6276SOL    HW220668  11.699   5.763   2.471
 6277SOL     OW20669  13.679  10.538   3.980
 6277SOL    HW120670  13.708  10.453   4.012
 6277SOL    HW220671  13.618  10.518   3.909
 6278SOL     OW20672   3.420   6.099   5.732
 6278SOL    HW120673   3.382   6.120   5.817
 6278SOL    HW220674   3.514   6.099   5.747
 6279SOL     OW20675  13.585   1.254   5.590
 6279SOL    HW120676  13.601   1.343   5.621
 6279SOL    HW220677  13.671   1.211   5.594
 6280SOL     OW20678   9.557   5.243   5.339
 6280SOL    HW120679   9.647   5.246   5.371
 6280SOL    HW220680   9.527   5.334   5.344
 6281SOL     OW20681   4.133  13.447   3.870
 6281SOL    HW120682   4.123  13.539   3.843
 6281SOL    HW220683   4.110  13.447   3.963
 6282SOL     OW20684  13.790   1.628   6.036
 6282SOL    HW120685  13.818   1.543   6.001
 6282SOL    HW220686  13.767   1.679   5.959
 6283SOL     OW20687  13.803   8.580   9.870
 6283SOL    HW120688  13.825   8.614   9.783
 6283SOL    HW220689  13.813   8.656   9.927
 6284SOL     OW20690   8.570   8.949   3.095
 6284SOL    HW120691   8.488   8.992   3.074
 6284SOL    HW220692   8.562   8.862   3.054
 6285SOL     OW20693   6.478   1.650  11.573
 6285SOL    HW120694   6.387   1.623  11.582
 6285SOL    HW220695   6.529   1.574  11.601
 6286SOL     OW20696   5.399   3.517   1.536
 6286SOL    HW120697   5.379   3.426   1.558
 6286SOL    HW220698   5.488   3.531   1.570
 6287SOL     OW20699  14.349   8.745   0.302
 6287SOL    HW120700  14.352   8.805   0.227
 6287SOL    HW220701  14.436   8.706   0.305
 6288SOL     OW20702  12.629   5.804   4.750
 6288SOL    HW120703  12.692   5.732   4.761
 6288SOL    HW220704  12.624   5.845   4.836
 6289SOL     OW20705   0.309   8.664  12.955
 6289SOL    HW120706   0.317   8.580  12.911
 6289SOL    HW220707   0.218   8.668  12.984
 6290SOL     OW20708   6.272  13.944   0.039
 6290SOL    HW120709   6.281  13.997  14.842
 6290SOL    HW220710   6.189  13.973   0.078
 6291SOL     OW20711  10.398   3.968   0.699
 6291SOL    HW120712  10.413   3.876   0.676
 6291SOL    HW220713  10.304   3.980   0.687
 6292SOL     OW20714  11.358   2.262  13.965
 6292SOL    HW120715  11.291   2.303  14.020
 6292SOL    HW220716  11.375   2.326  13.896
 6293SOL     OW20717   7.117  11.075  14.321
 6293SOL    HW120718   7.083  11.104  14.236
 6293SOL    HW220719   7.206  11.111  14.325
 6294SOL     OW20720   1.832   9.644   0.886
 6294SOL    HW120721   1.884   9.586   0.942
 6294SOL    HW220722   1.845   9.731   0.924
 6295SOL     OW20723   7.782  13.668   6.158
 6295SOL    HW120724   7.759  13.758   6.134
 6295SOL    HW220725   7.735  13.653   6.240
 6296SOL     OW20726   7.336   3.497   9.653
 6296SOL    HW120727   7.362   3.536   9.570
 6296SOL    HW220728   7.246   3.527   9.667
 6297SOL     OW20729   6.117   3.045   6.982
 6297SOL    HW120730   6.188   2.989   6.954
 6297SOL    HW220731   6.143   3.076   7.068
 6298SOL     OW20732  11.506  11.624  12.994
 6298SOL    HW120733  11.541  11.617  13.083
 6298SOL    HW220734  11.419  11.662  13.005
 6299SOL     OW20735   9.528   2.471   4.380
 6299SOL    HW120736   9.443   2.469   4.337
 6299SOL    HW220737   9.590   2.495   4.311
 6300SOL     OW20738   1.878  13.633   6.034
 6300SOL    HW120739   1.859  13.586   5.953
 6300SOL    HW220740   1.969  13.661   6.025
 6301SOL     OW20741   0.119   3.204  10.962
 6301SOL    HW120742   0.074   3.150  10.897
 6301SOL    HW220743   0.211   3.203  10.935
 6302SOL     OW20744   6.416  13.408  14.757
 6302SOL    HW120745   6.322  13.390  14.754
 6302SOL    HW220746   6.423  13.493  14.800
 6303SOL     OW20747   2.453   2.738   4.309
 6303SOL    HW120748   2.546   2.753   4.328
 6303SOL    HW220749   2.452   2.665   4.248
 6304SOL     OW20750   7.034  11.131   4.106
 6304SOL    HW120751   7.082  11.048   4.110
 6304SOL    HW220752   7.078  11.180   4.036
 6305SOL     OW20753   7.765   4.066   2.398
 6305SOL    HW120754   7.693   4.118   2.363
 6305SOL    HW220755   7.729   3.979   2.410
 6306SOL     OW20756   3.191   8.055  11.889
 6306SOL    HW120757   3.257   7.996  11.926
 6306SOL    HW220758   3.241   8.119  11.840
 6307SOL     OW20759   1.931   5.429  14.730
 6307SOL    HW120760   1.908   5.466  14.645
 6307SOL    HW220761   1.869   5.358  14.743
 6308SOL     OW20762  12.956  12.618   6.212
 6308SOL    HW120763  12.921  12.534   6.241
 6308SOL    HW220764  12.993  12.600   6.126
 6309SOL     OW20765   9.224   1.363   9.477
 6309SOL    HW120766   9.173   1.319   9.408
 6309SOL    HW220767   9.235   1.452   9.445
 6310SOL     OW20768   4.813   8.105  13.811
 6310SOL    HW120769   4.770   8.061  13.736
 6310SOL    HW220770   4.819   8.037  13.878
 6311SOL     OW20771   6.989   0.698   7.123
 6311SOL    HW120772   7.021   0.638   7.055
 6311SOL    HW220773   7.026   0.783   7.099
 6312SOL     OW20774   4.600   0.036   6.913
 6312SOL    HW120775   4.680  14.866   6.922
 6312SOL    HW220776   4.614   0.112   6.970
 6313SOL     OW20777  13.618  13.948   2.616
 6313SOL    HW120778  13.624  13.984   2.528
 6313SOL    HW220779  13.560  14.008   2.663
 6314SOL     OW20780   2.603  12.339  10.546
 6314SOL    HW120781   2.688  12.311  10.512
 6314SOL    HW220782   2.621  12.363  10.637
 6315SOL     OW20783   3.725   0.493   3.564
 6315SOL    HW120784   3.738   0.400   3.549
 6315SOL    HW220785   3.632   0.501   3.588
 6316SOL     OW20786   4.000  11.790   8.824
 6316SOL    HW120787   4.006  11.708   8.873
 6316SOL    HW220788   4.011  11.858   8.891
 6317SOL     OW20789   0.350   3.787   2.566
 6317SOL    HW120790   0.446   3.781   2.558
 6317SOL    HW220791   0.333   3.881   2.571
 6318SOL     OW20792  13.279  11.488  13.797
 6318SOL    HW120793  13.263  11.572  13.753
 6318SOL    HW220794  13.323  11.511  13.878
 6319SOL     OW20795   8.523   9.957  14.867
 6319SOL    HW120796   8.431   9.977   0.002
 6319SOL    HW220797   8.563   9.951   0.072
 6320SOL     OW20798   7.465  10.451   6.124
 6320SOL    HW120799   7.439  10.378   6.070
 6320SOL    HW220800   7.445  10.529   6.072
 6321SOL     OW20801  10.208  10.525  14.647
 6321SOL    HW120802  10.232  10.617  14.655
 6321SOL    HW220803  10.113  10.526  14.635
 6322SOL     OW20804  10.186   9.291   2.583
 6322SOL    HW120805  10.265   9.302   2.635
 6322SOL    HW220806  10.185   9.366   2.524
 6323SOL     OW20807   5.420   8.832   4.662
 6323SOL    HW120808   5.346   8.872   4.707
 6323SOL    HW220809   5.415   8.867   4.573
 6324SOL     OW20810  10.826   7.701   9.758
 6324SOL    HW120811  10.852   7.750   9.680
 6324SOL    HW220812  10.787   7.620   9.724
 6325SOL     OW20813  14.470   3.453  12.963
 6325SOL    HW120814  14.450   3.376  13.014
 6325SOL    HW220815  14.405   3.454  12.893
 6326SOL     OW20816  13.741   2.277  11.063
 6326SOL    HW120817  13.684   2.354  11.057
 6326SOL    HW220818  13.783   2.285  11.149
 6327SOL     OW20819  11.228   4.780   0.302
 6327SOL    HW120820  11.192   4.854   0.350
 6327SOL    HW220821  11.280   4.820   0.232
 6328SOL     OW20822  13.242  11.342   3.743
 6328SOL    HW120823  13.157  11.371   3.708
 6328SOL    HW220824  13.269  11.413   3.801
 6329SOL     OW20825  13.514  14.156  10.706
 6329SOL    HW120826  13.517  14.200  10.621
 6329SOL    HW220827  13.447  14.203  10.756
 6330SOL     OW20828   4.037   8.584   8.781
 6330SOL    HW120829   3.978   8.591   8.856
 6330SOL    HW220830   4.099   8.515   8.806
 6331SOL     OW20831  11.159  11.378   7.467
 6331SOL    HW120832  11.110  11.368   7.385
 6331SOL    HW220833  11.139  11.467   7.496
 6332SOL     OW20834   2.782   1.344   7.001
 6332SOL    HW120835   2.875   1.344   6.977
 6332SOL    HW220836   2.736   1.332   6.917
 6333SOL     OW20837   1.680  12.771   0.217
 6333SOL    HW120838   1.653  12.856   0.182
 6333SOL    HW220839   1.640  12.706   0.159
 6334SOL     OW20840   1.129  11.193   6.938
 6334SOL    HW120841   1.172  11.235   6.863
 6334SOL    HW220842   1.170  11.234   7.015
 6335SOL     OW20843  13.214   5.613  11.014
 6335SOL    HW120844  13.186   5.522  11.027
 6335SOL    HW220845  13.309   5.610  11.024
 6336SOL     OW20846  12.770   0.051   8.886
 6336SOL    HW120847  12.829   0.028   8.958
 6336SOL    HW220848  12.750  14.849   8.844
 6337SOL     OW20849  12.151  10.598   0.463
 6337SOL    HW120850  12.164  10.690   0.440
 6337SOL    HW220851  12.114  10.559   0.385
 6338SOL     OW20852   6.859   1.877  13.914
 6338SOL    HW120853   6.864   1.799  13.859
 6338SOL    HW220854   6.915   1.941  13.870
 6339SOL     OW20855   7.029   2.916   1.160
 6339SOL    HW120856   6.972   2.951   1.091
 6339SOL    HW220857   6.968   2.888   1.229
 6340SOL     OW20858   5.063   2.617  11.567
 6340SOL    HW120859   5.106   2.644  11.486
 6340SOL    HW220860   5.074   2.522  11.570
 6341SOL     OW20861  10.747   4.117   4.042
 6341SOL    HW120862  10.764   4.088   4.131
 6341SOL    HW220863  10.759   4.038   3.989
 6342SOL     OW20864  13.074   8.678   0.237
 6342SOL    HW120865  13.157   8.634   0.219
 6342SOL    HW220866  13.024   8.667   0.156
 6343SOL     OW20867  12.426  12.227   1.228
 6343SOL    HW120868  12.411  12.170   1.303
 6343SOL    HW220869  12.368  12.302   1.243
 6344SOL     OW20870  11.321   1.733  10.497
 6344SOL    HW120871  11.225   1.726  10.500
 6344SOL    HW220872  11.349   1.721  10.587
 6345SOL     OW20873  14.368   1.356   7.409
 6345SOL    HW120874  14.322   1.409   7.344
 6345SOL    HW220875  14.457   1.348   7.375
 6346SOL     OW20876   5.198   7.490  13.246
 6346SOL    HW120877   5.135   7.489  13.173
 6346SOL    HW220878   5.186   7.406  13.290
 6347SOL     OW20879  13.442   2.600   2.660
 6347SOL    HW120880  13.492   2.543   2.602
 6347SOL    HW220881  13.420   2.676   2.605
 6348SOL     OW20882  12.755   9.537  13.180
 6348SOL    HW120883  12.728   9.623  13.213
 6348SOL    HW220884  12.842   9.523  13.217
 6349SOL     OW20885   3.990   9.722   8.615
 6349SOL    HW120886   4.053   9.724   8.687
 6349SOL    HW220887   3.914   9.676   8.651
 6350SOL     OW20888  11.054   2.903   1.741
 6350SOL    HW120889  11.126   2.852   1.778
 6350SOL    HW220890  11.094   2.949   1.667
 6351SOL     OW20891  14.645  11.133   1.007
 6351SOL    HW120892  14.587  11.057   1.013
 6351SOL    HW220893  14.708  11.110   0.939
 6352SOL     OW20894   3.420   8.011  10.157
 6352SOL    HW120895   3.419   7.933  10.100
 6352SOL    HW220896   3.496   7.998  10.214
 6353SOL     OW20897  11.135   0.280   3.529
 6353SOL    HW120898  11.051   0.323   3.544
 6353SOL    HW220899  11.112   0.188   3.512
 6354SOL     OW20900  10.897   3.367  10.466
 6354SOL    HW120901  10.922   3.285  10.508
 6354SOL    HW220902  10.809   3.349  10.432
 6355SOL     OW20903   8.835   2.987   4.375
 6355SOL    HW120904   8.820   3.044   4.450
 6355SOL    HW220905   8.760   2.928   4.375
 6356SOL     OW20906   3.174   3.610   1.977
 6356SOL    HW120907   3.109   3.607   1.907
 6356SOL    HW220908   3.240   3.545   1.950
 6357SOL     OW20909   1.239   7.963  13.084
 6357SOL    HW120910   1.229   7.997  13.173
 6357SOL    HW220911   1.158   7.987  13.039
 6358SOL     OW20912   5.236   8.761   4.205
 6358SOL    HW120913   5.268   8.671   4.199
 6358SOL    HW220914   5.314   8.815   4.188
 6359SOL     OW20915   5.163  13.226   2.941
 6359SOL    HW120916   5.095  13.252   2.880
 6359SOL    HW220917   5.238  13.282   2.919
 6360SOL     OW20918  10.013   0.803   5.179
 6360SOL    HW120919   9.920   0.781   5.174
 6360SOL    HW220920  10.058   0.720   5.161
 6361SOL     OW20921  14.854   5.894   4.800
 6361SOL    HW120922  14.837   5.960   4.733
 6361SOL    HW220923   0.054   5.853   4.773
 6362SOL     OW20924   9.550   3.368   1.493
 6362SOL    HW120925   9.479   3.312   1.462
 6362SOL    HW220926   9.587   3.321   1.567
 6363SOL     OW20927  11.022  12.199  12.037
 6363SOL    HW120928  11.078  12.271  12.009
 6363SOL    HW220929  10.936  12.221  12.001
 6364SOL     OW20930   7.979   1.777   8.137
 6364SOL    HW120931   7.971   1.758   8.231
 6364SOL    HW220932   7.988   1.691   8.096
 6365SOL     OW20933  11.288  14.838  11.169
 6365SOL    HW120934  11.358   0.016  11.141
 6365SOL    HW220935  11.258  14.875  11.252
 6366SOL     OW20936   6.063   7.720  14.081
 6366SOL    HW120937   5.996   7.655  14.102
 6366SOL    HW220938   6.030   7.764  14.002
 6367SOL     OW20939   7.462  14.120   3.361
 6367SOL    HW120940   7.369  14.129   3.338
 6367SOL    HW220941   7.463  14.114   3.456
 6368SOL     OW20942   5.627   7.697  14.203
 6368SOL    HW120943   5.638   7.708  14.109
 6368SOL    HW220944   5.709   7.728  14.241
 6369SOL     OW20945   0.842   2.328   9.685
 6369SOL    HW120946   0.775   2.333   9.617
 6369SOL    HW220947   0.900   2.257   9.656
 6370SOL     OW20948   8.205  12.109   3.762
 6370SOL    HW120949   8.203  12.020   3.726
 6370SOL    HW220950   8.113  12.130   3.779
 6371SOL     OW20951   7.413  10.129   6.066
 6371SOL    HW120952   7.370  10.136   6.151
 6371SOL    HW220953   7.380  10.046   6.030
 6372SOL     OW20954   8.395  11.385   6.263
 6372SOL    HW120955   8.356  11.325   6.199
 6372SOL    HW220956   8.453  11.441   6.211
 6373SOL     OW20957  13.494   8.984   4.791
 6373SOL    HW120958  13.524   8.895   4.773
 6373SOL    HW220959  13.567   9.040   4.762
 6374SOL     OW20960   0.565   9.783  10.866
 6374SOL    HW120961   0.652   9.756  10.837
 6374SOL    HW220962   0.534   9.710  10.920
 6375SOL     OW20963   2.665   7.051   1.625
 6375SOL    HW120964   2.733   7.068   1.560
 6375SOL    HW220965   2.708   6.995   1.690
 6376SOL     OW20966   5.249   9.922  13.724
 6376SOL    HW120967   5.216   9.841  13.763
 6376SOL    HW220968   5.197   9.933  13.644
 6377SOL     OW20969   1.396   2.820   2.366
 6377SOL    HW120970   1.446   2.791   2.291
 6377SOL    HW220971   1.304   2.808   2.340
 6378SOL     OW20972   2.259  13.435   2.509
 6378SOL    HW120973   2.286  13.394   2.426
 6378SOL    HW220974   2.291  13.374   2.576
 6379SOL     OW20975   6.239   1.791  14.205
 6379SOL    HW120976   6.163   1.733  14.196
 6379SOL    HW220977   6.288   1.780  14.123
 6380SOL     OW20978  14.219  14.101  11.248
 6380SOL    HW120979  14.125  14.096  11.262
 6380SOL    HW220980  14.230  14.094  11.153
 6381SOL     OW20981  12.828  14.515   5.828
 6381SOL    HW120982  12.824  14.602   5.788
 6381SOL    HW220983  12.921  14.501   5.845
 6382SOL     OW20984   3.705   9.556   0.576
 6382SOL    HW120985   3.795   9.525   0.566
 6382SOL    HW220986   3.657   9.517   0.503
 6383SOL     OW20987  10.543   5.157   0.317
 6383SOL    HW120988  10.580   5.088   0.261
 6383SOL    HW220989  10.587   5.237   0.289
 6384SOL     OW20990   6.900  11.942   5.195
 6384SOL    HW120991   6.972  11.926   5.256
 6384SOL    HW220992   6.841  11.866   5.207
 6385SOL     OW20993  11.041   5.000   9.065
 6385SOL    HW120994  11.001   4.953   9.138
 6385SOL    HW220995  11.066   4.931   9.003
 6386SOL     OW20996   4.594   9.205   3.220
 6386SOL    HW120997   4.680   9.201   3.261
 6386SOL    HW220998   4.607   9.259   3.142
 6387SOL     OW20999   1.559   3.911  12.082
 6387SOL    HW121000   1.480   3.878  12.039
 6387SOL    HW221001   1.602   3.964  12.015
 6388SOL     OW21002  10.589   3.357   1.382
 6388SOL    HW121003  10.584   3.443   1.339
 6388SOL    HW221004  10.514   3.309   1.348
 6389SOL     OW21005  14.090   0.155   9.792
 6389SOL    HW121006  14.097   0.203   9.710
 6389SOL    HW221007  14.180   0.127   9.811
 6390SOL     OW21008   8.427   2.916   9.054
 6390SOL    HW121009   8.448   2.877   9.139
 6390SOL    HW221010   8.387   2.845   9.004
 6391SOL     OW21011   5.491   0.092   5.744
 6391SOL    HW121012   5.489   0.145   5.665
 6391SOL    HW221013   5.529   0.150   5.810
 6392SOL     OW21014   2.313   1.890   3.457
 6392SOL    HW121015   2.375   1.849   3.516
 6392SOL    HW221016   2.242   1.826   3.447
 6393SOL     OW21017   7.027   5.295   1.114
 6393SOL    HW121018   7.075   5.375   1.093
 6393SOL    HW221019   6.936   5.322   1.118
 6394SOL     OW21020   2.949   9.558   2.285
 6394SOL    HW121021   3.040   9.574   2.260
 6394SOL    HW221022   2.941   9.463   2.286
 6395SOL     OW21023   0.190   7.860   6.182
 6395SOL    HW121024   0.276   7.886   6.149
 6395SOL    HW221025   0.180   7.909   6.263
 6396SOL     OW21026   0.813  14.442   2.592
 6396SOL    HW121027   0.776  14.530   2.578
 6396SOL    HW221028   0.855  14.420   2.509
 6397SOL     OW21029  12.102  13.833   3.197
 6397SOL    HW121030  12.173  13.794   3.147
 6397SOL    HW221031  12.024  13.788   3.167
 6398SOL     OW21032   8.109  12.800  11.357
 6398SOL    HW121033   8.177  12.782  11.422
 6398SOL    HW221034   8.101  12.719  11.307
 6399SOL     OW21035   8.027   6.157  10.016
 6399SOL    HW121036   7.959   6.217  10.047
 6399SOL    HW221037   8.029   6.170   9.921
 6400SOL     OW21038   7.736   6.542   0.158
 6400SOL    HW121039   7.747   6.460   0.110
 6400SOL    HW221040   7.659   6.583   0.118
 6401SOL     OW21041   2.612   0.637   2.558
 6401SOL    HW121042   2.639   0.554   2.519
 6401SOL    HW221043   2.549   0.673   2.495
 6402SOL     OW21044   2.008   9.045   5.644
 6402SOL    HW121045   1.986   9.051   5.551
 6402SOL    HW221046   2.035   8.954   5.656
 6403SOL     OW21047   1.000   7.940   0.796
 6403SOL    HW121048   0.967   7.961   0.883
 6403SOL    HW221049   0.983   7.846   0.786
 6404SOL     OW21050  14.223   2.663   0.607
 6404SOL    HW121051  14.205   2.656   0.513
 6404SOL    HW221052  14.308   2.706   0.613
 6405SOL     OW21053   3.845   2.188   7.122
 6405SOL    HW121054   3.777   2.159   7.183
 6405SOL    HW221055   3.810   2.266   7.081
 6406SOL     OW21056   1.106  14.644   8.498
 6406SOL    HW121057   1.093  14.550   8.507
 6406SOL    HW221058   1.091  14.678   8.587
 6407SOL     OW21059   2.492  13.658  14.127
 6407SOL    HW121060   2.401  13.688  14.127
 6407SOL    HW221061   2.496  13.593  14.197
 6408SOL     OW21062   8.982   6.923   4.633
 6408SOL    HW121063   8.961   6.845   4.684
 6408SOL    HW221064   8.921   6.990   4.664
 6409SOL     OW21065  12.938   3.225   1.816
 6409SOL    HW121066  12.881   3.253   1.745
 6409SOL    HW221067  12.881   3.218   1.892
 6410SOL     OW21068   4.733   9.791   5.707
 6410SOL    HW121069   4.731   9.720   5.772
 6410SOL    HW221070   4.655   9.844   5.726
 6411SOL     OW21071  14.101   9.604   7.802
 6411SOL    HW121072  14.092   9.594   7.897
 6411SOL    HW221073  14.187   9.644   7.789
 6412SOL     OW21074   3.137   2.921   0.889
 6412SOL    HW121075   3.090   2.845   0.858
 6412SOL    HW221076   3.229   2.896   0.886
 6413SOL     OW21077  12.389   8.529  14.790
 6413SOL    HW121078  12.319   8.480  14.748
 6413SOL    HW221079  12.452   8.462  14.817
 6414SOL     OW21080   7.305   9.259   1.036
 6414SOL    HW121081   7.268   9.201   0.969
 6414SOL    HW221082   7.274   9.223   1.119
 6415SOL     OW21083   6.586   1.939   7.446
 6415SOL    HW121084   6.565   2.030   7.425
 6415SOL    HW221085   6.502   1.893   7.440
 6416SOL     OW21086   5.065   4.463   0.645
 6416SOL    HW121087   5.062   4.368   0.650
 6416SOL    HW221088   5.040   4.482   0.555
 6417SOL     OW21089  11.189  14.508   0.776
 6417SOL    HW121090  11.191  14.415   0.752
 6417SOL    HW221091  11.259  14.547   0.725
 6418SOL     OW21092  12.683   2.257   4.533
 6418SOL    HW121093  12.622   2.211   4.476
 6418SOL    HW221094  12.713   2.332   4.481
 6419SOL     OW21095   0.803   2.925   9.649
 6419SOL    HW121096   0.725   2.903   9.699
 6419SOL    HW221097   0.821   2.848   9.596
 6420SOL     OW21098  12.679   7.687   2.590
 6420SOL    HW121099  12.664   7.725   2.504
 6420SOL    HW221100  12.653   7.596   2.582
 6421SOL     OW21101  11.527   3.588   1.759
 6421SOL    HW121102  11.521   3.596   1.664
 6421SOL    HW221103  11.618   3.610   1.779
 6422SOL     OW21104   4.112  12.452  10.029
 6422SOL    HW121105   4.019  12.476  10.032
 6422SOL    HW221106   4.159  12.535  10.031
 6423SOL     OW21107   4.259   0.069  13.020
 6423SOL    HW121108   4.309  14.871  13.037
 6423SOL    HW221109   4.325   0.139  13.022
 6424SOL     OW21110  10.995   5.209  10.470
 6424SOL    HW121111  10.964   5.226  10.559
 6424SOL    HW221112  11.090   5.198  10.479
 6425SOL     OW21113   5.597   4.979  10.472
 6425SOL    HW121114   5.644   4.908  10.429
 6425SOL    HW221115   5.506   4.968  10.445
 6426SOL     OW21116   5.109   1.544   2.175
 6426SOL    HW121117   5.109   1.640   2.179
 6426SOL    HW221118   5.115   1.524   2.082
 6427SOL     OW21119   1.355   4.098   0.170
 6427SOL    HW121120   1.427   4.081   0.109
 6427SOL    HW221121   1.323   4.011   0.195
 6428SOL     OW21122   9.600   2.919   2.826
 6428SOL    HW121123   9.508   2.922   2.855
 6428SOL    HW221124   9.596   2.877   2.740
 6429SOL     OW21125  13.759  13.254   6.133
 6429SOL    HW121126  13.695  13.236   6.202
 6429SOL    HW221127  13.714  13.229   6.052
 6430SOL     OW21128  10.083  10.070  12.125
 6430SOL    HW121129  10.131  10.140  12.170
 6430SOL    HW221130  10.151  10.011  12.093
 6431SOL     OW21131   2.716  10.837   4.622
 6431SOL    HW121132   2.763  10.917   4.645
 6431SOL    HW221133   2.783  10.779   4.586
 6432SOL     OW21134   3.420   5.248   8.033
 6432SOL    HW121135   3.370   5.169   8.018
 6432SOL    HW221136   3.410   5.265   8.127
 6433SOL     OW21137   2.028  14.771   1.489
 6433SOL    HW121138   1.944  14.802   1.524
 6433SOL    HW221139   2.074  14.735   1.565
 6434SOL     OW21140   0.223   4.036   3.541
 6434SOL    HW121141   0.148   4.031   3.601
 6434SOL    HW221142   0.281   4.100   3.582
 6435SOL     OW21143   2.515  13.172   7.591
 6435SOL    HW121144   2.482  13.096   7.543
 6435SOL    HW221145   2.481  13.247   7.543
 6436SOL     OW21146   5.647  10.449   2.030
 6436SOL    HW121147   5.694  10.478   1.951
 6436SOL    HW221148   5.691  10.368   2.056
 6437SOL     OW21149   4.858   6.041   0.348
 6437SOL    HW121150   4.948   6.042   0.382
 6437SOL    HW221151   4.811   6.102   0.405
 6438SOL     OW21152   1.167   8.598   3.179
 6438SOL    HW121153   1.192   8.517   3.222
 6438SOL    HW221154   1.249   8.634   3.146
 6439SOL     OW21155   6.592  14.397   3.013
 6439SOL    HW121156   6.503  14.433   3.017
 6439SOL    HW221157   6.598  14.360   2.925
 6440SOL     OW21158   8.788   7.467   4.595
 6440SOL    HW121159   8.717   7.465   4.659
 6440SOL    HW221160   8.784   7.555   4.558
 6441SOL     OW21161  11.131   1.394   9.072
 6441SOL    HW121162  11.114   1.359   9.160
 6441SOL    HW221163  11.054   1.367   9.021
 6442SOL     OW21164   4.980   2.566   1.459
 6442SOL    HW121165   4.907   2.616   1.494
 6442SOL    HW221166   4.976   2.482   1.505
 6443SOL     OW21167   2.205   0.874   9.575
 6443SOL    HW121168   2.178   0.790   9.614
 6443SOL    HW221169   2.287   0.895   9.620
 6444SOL     OW21170   1.190   9.158  10.237
 6444SOL    HW121171   1.115   9.104  10.214
 6444SOL    HW221172   1.212   9.204  10.155
 6445SOL     OW21173   4.924  13.452   2.018
 6445SOL    HW121174   4.863  13.446   1.944
 6445SOL    HW221175   4.873  13.424   2.094
 6446SOL     OW21176   5.637   3.265  12.682
 6446SOL    HW121177   5.675   3.217  12.756
 6446SOL    HW221178   5.657   3.357  12.700
 6447SOL     OW21179   3.266   9.134   8.640
 6447SOL    HW121180   3.324   9.203   8.609
 6447SOL    HW221181   3.293   9.056   8.591
 6448SOL     OW21182   9.271   3.608  14.236
 6448SOL    HW121183   9.309   3.561  14.162
 6448SOL    HW221184   9.346   3.653  14.277
 6449SOL     OW21185   9.629   3.220  14.354
 6449SOL    HW121186   9.716   3.260  14.347
 6449SOL    HW221187   9.622   3.193  14.445
 6450SOL     OW21188   8.223   2.178   5.408
 6450SOL    HW121189   8.208   2.185   5.314
 6450SOL    HW221190   8.177   2.253   5.445
 6451SOL     OW21191   6.538  14.214  13.285
 6451SOL    HW121192   6.583  14.162  13.218
 6451SOL    HW221193   6.454  14.237  13.246
 6452SOL     OW21194   7.768  10.008   9.437
 6452SOL    HW121195   7.758  10.063   9.514
 6452SOL    HW221196   7.760   9.918   9.469
 6453SOL     OW21197   5.010   6.860  10.660
 6453SOL    HW121198   5.102   6.870  10.636
 6453SOL    HW221199   5.011   6.839  10.754
 6454SOL     OW21200   8.167  13.067   0.521
 6454SOL    HW121201   8.187  12.987   0.473
 6454SOL    HW221202   8.075  13.056   0.548
 6455SOL     OW21203   8.372   5.363   2.932
 6455SOL    HW121204   8.392   5.386   3.023
 6455SOL    HW221205   8.326   5.440   2.898
 6456SOL     OW21206  14.493   6.772   3.720
 6456SOL    HW121207  14.509   6.694   3.666
 6456SOL    HW221208  14.508   6.845   3.660
 6457SOL     OW21209  11.128   6.321   4.397
 6457SOL    HW121210  11.066   6.386   4.361
 6457SOL    HW221211  11.110   6.320   4.491
 6458SOL     OW21212  10.576   3.610   7.824
 6458SOL    HW121213  10.586   3.681   7.887
 6458SOL    HW221214  10.488   3.577   7.838
 6459SOL     OW21215   7.286   1.716   9.550
 6459SOL    HW121216   7.299   1.711   9.455
 6459SOL    HW221217   7.322   1.801   9.574
 6460SOL     OW21218   1.041   1.839  10.594
 6460SOL    HW121219   0.996   1.756  10.578
 6460SOL    HW221220   1.121   1.815  10.640
 6461SOL     OW21221   0.408  10.083  13.938
 6461SOL    HW121222   0.431  10.124  14.021
 6461SOL    HW221223   0.326  10.037  13.955
 6462SOL     OW21224   9.181   0.634   4.855
 6462SOL    HW121225   9.156   0.660   4.767
 6462SOL    HW221226   9.169   0.539   4.856
 6463SOL     OW21227   1.889   8.876   9.486
 6463SOL    HW121228   1.811   8.872   9.541
 6463SOL    HW221229   1.859   8.913   9.403
 6464SOL     OW21230   8.064   9.880   5.582
 6464SOL    HW121231   8.088   9.949   5.520
 6464SOL    HW221232   7.968   9.875   5.577
 6465SOL     OW21233  10.655  10.066   2.433
 6465SOL    HW121234  10.747  10.039   2.436
 6465SOL    HW221235  10.619  10.040   2.518
 6466SOL     OW21236   9.948   8.250   9.562
 6466SOL    HW121237   9.853   8.258   9.568
 6466SOL    HW221238   9.970   8.180   9.624
 6467SOL     OW21239  13.727   8.576   9.256
 6467SOL    HW121240  13.745   8.655   9.206
 6467SOL    HW221241  13.790   8.512   9.222
 6468SOL     OW21242   0.766  13.689   7.516
 6468SOL    HW121243   0.735  13.757   7.456
 6468SOL    HW221244   0.699  13.685   7.585
 6469SOL     OW21245   4.427  11.630  13.136
 6469SOL    HW121246   4.485  11.608  13.063
 6469SOL    HW221247   4.481  11.618  13.214
 6470SOL     OW21248   4.362   3.665   5.910
 6470SOL    HW121249   4.308   3.737   5.879
 6470SOL    HW221250   4.444   3.706   5.937
 6471SOL     OW21251   3.703  10.230  14.597
 6471SOL    HW121252   3.757  10.308  14.605
 6471SOL    HW221253   3.737  10.185  14.520
 6472SOL     OW21254   8.831   6.306   9.733
 6472SOL    HW121255   8.846   6.234   9.671
 6472SOL    HW221256   8.913   6.314   9.781
 6473SOL     OW21257   4.541  10.822   2.445
 6473SOL    HW121258   4.602  10.800   2.515
 6473SOL    HW221259   4.596  10.829   2.367
 6474SOL     OW21260   7.448   7.633  11.386
 6474SOL    HW121261   7.507   7.653  11.459
 6474SOL    HW221262   7.474   7.694  11.317
 6475SOL     OW21263   9.438   3.347   6.386
 6475SOL    HW121264   9.530   3.342   6.357
 6475SOL    HW221265   9.400   3.416   6.331
 6476SOL     OW21266   1.563   5.907  11.957
 6476SOL    HW121267   1.552   5.938  12.047
 6476SOL    HW221268   1.576   5.987  11.906
 6477SOL     OW21269  14.765   4.698   3.476
 6477SOL    HW121270  14.797   4.783   3.447
 6477SOL    HW221271  14.789   4.638   3.405
 6478SOL     OW21272   6.254   6.333   2.018
 6478SOL    HW121273   6.270   6.424   1.994
 6478SOL    HW221274   6.314   6.282   1.963
 6479SOL     OW21275  12.551   3.826   2.041
 6479SOL    HW121276  12.518   3.801   2.128
 6479SOL    HW221277  12.507   3.766   1.981
 6480SOL     OW21278  12.418   3.572   0.549
 6480SOL    HW121279  12.456   3.654   0.579
 6480SOL    HW221280  12.493   3.518   0.524
 6481SOL     OW21281   2.761   2.109  10.767
 6481SOL    HW121282   2.670   2.107  10.737
 6481SOL    HW221283   2.783   2.017  10.783
 6482SOL     OW21284  13.082   7.185   4.959
 6482SOL    HW121285  13.009   7.195   5.020
 6482SOL    HW221286  13.160   7.189   5.014
 6483SOL     OW21287   5.829   1.935   1.159
 6483SOL    HW121288   5.837   1.933   1.064
 6483SOL    HW221289   5.916   1.961   1.190
 6484SOL     OW21290   3.946  11.970   5.485
 6484SOL    HW121291   3.925  11.949   5.576
 6484SOL    HW221292   4.037  11.943   5.474
 6485SOL     OW21293  10.770   7.151   6.317
 6485SOL    HW121294  10.729   7.162   6.231
 6485SOL    HW221295  10.728   7.218   6.372
 6486SOL     OW21296   8.515   3.149   8.865
 6486SOL    HW121297   8.604   3.180   8.847
 6486SOL    HW221298   8.527   3.061   8.900
 6487SOL     OW21299   8.713   4.026   3.772
 6487SOL    HW121300   8.703   3.976   3.853
 6487SOL    HW221301   8.665   3.974   3.707
 6488SOL     OW21302  11.179  12.815   7.596
 6488SOL    HW121303  11.269  12.827   7.627
 6488SOL    HW221304  11.127  12.870   7.654
 6489SOL     OW21305  11.369  11.179  10.116
 6489SOL    HW121306  11.348  11.091  10.082
 6489SOL    HW221307  11.288  11.229  10.103
 6490SOL     OW21308   7.897   9.935  14.133
 6490SOL    HW121309   7.968   9.873  14.149
 6490SOL    HW221310   7.922   9.979  14.051
 6491SOL     OW21311   3.675  14.674   8.682
 6491SOL    HW121312   3.757  14.634   8.712
 6491SOL    HW221313   3.645  14.726   8.757
 6492SOL     OW21314   7.357   6.521   2.246
 6492SOL    HW121315   7.386   6.509   2.336
 6492SOL    HW221316   7.428   6.569   2.204
 6493SOL     OW21317   2.255   9.928   6.992
 6493SOL    HW121318   2.221   9.922   7.081
 6493SOL    HW221319   2.213   9.856   6.945
 6494SOL     OW21320  12.602   5.387   4.952
 6494SOL    HW121321  12.535   5.338   4.903
 6494SOL    HW221322  12.564   5.397   5.040
 6495SOL     OW21323  10.302   4.902   1.372
 6495SOL    HW121324  10.367   4.835   1.391
 6495SOL    HW221325  10.219   4.856   1.375
 6496SOL     OW21326   4.448   4.295  12.612
 6496SOL    HW121327   4.429   4.380  12.650
 6496SOL    HW221328   4.494   4.314  12.530
 6497SOL     OW21329   2.399  11.265  10.172
 6497SOL    HW121330   2.308  11.267  10.142
 6497SOL    HW221331   2.402  11.330  10.243
 6498SOL     OW21332   8.464   2.664   8.886
 6498SOL    HW121333   8.444   2.572   8.870
 6498SOL    HW221334   8.537   2.662   8.948
 6499SOL     OW21335  13.064   9.893   2.540
 6499SOL    HW121336  13.096   9.821   2.486
 6499SOL    HW221337  13.063   9.969   2.481
 6500SOL     OW21338   4.233   6.339  11.151
 6500SOL    HW121339   4.153   6.302  11.116
 6500SOL    HW221340   4.206   6.386  11.230
 6501SOL     OW21341  10.222   7.594   9.993
 6501SOL    HW121342  10.297   7.643  10.026
 6501SOL    HW221343  10.191   7.646   9.918
 6502SOL     OW21344   6.634  10.803   2.254
 6502SOL    HW121345   6.686  10.737   2.207
 6502SOL    HW221346   6.647  10.781   2.346
 6503SOL     OW21347   9.912  12.481   3.977
 6503SOL    HW121348   9.827  12.511   4.008
 6503SOL    HW221349   9.908  12.385   3.984
 6504SOL     OW21350   5.080  13.857   5.170
 6504SOL    HW121351   5.135  13.933   5.151
 6504SOL    HW221352   5.060  13.821   5.084
 6505SOL     OW21353   8.110  12.749   4.913
 6505SOL    HW121354   8.019  12.737   4.941
 6505SOL    HW221355   8.133  12.665   4.873
 6506SOL     OW21356  10.621  14.560   6.704
 6506SOL    HW121357  10.620  14.655   6.716
 6506SOL    HW221358  10.553  14.544   6.638
 6507SOL     OW21359  10.849  12.807   1.218
 6507SOL    HW121360  10.871  12.887   1.265
 6507SOL    HW221361  10.759  12.819   1.188
 6508SOL     OW21362   9.055   9.013  12.135
 6508SOL    HW121363   9.067   9.106  12.115
 6508SOL    HW221364   9.070   9.007  12.230
 6509SOL     OW21365   6.179   2.488  13.463
 6509SOL    HW121366   6.126   2.474  13.385
 6509SOL    HW221367   6.200   2.582  13.463
 6510SOL     OW21368   8.147   4.397  13.637
 6510SOL    HW121369   8.228   4.370  13.678
 6510SOL    HW221370   8.079   4.347  13.682
 6511SOL     OW21371  10.743   1.725   7.946
 6511SOL    HW121372  10.802   1.683   7.883
 6511SOL    HW221373  10.663   1.742   7.896
 6512SOL     OW21374  11.359   0.346   4.258
 6512SOL    HW121375  11.408   0.405   4.315
 6512SOL    HW221376  11.419   0.326   4.187
 6513SOL     OW21377   3.905  12.642   7.767
 6513SOL    HW121378   3.815  12.646   7.800
 6513SOL    HW221379   3.957  12.611   7.842
 6514SOL     OW21380  11.207   4.807   9.821
 6514SOL    HW121381  11.211   4.864   9.898
 6514SOL    HW221382  11.248   4.725   9.849
 6515SOL     OW21383   6.556   3.197  10.017
 6515SOL    HW121384   6.630   3.202   9.956
 6515SOL    HW221385   6.592   3.228  10.101
 6516SOL     OW21386   1.640   1.115   9.366
 6516SOL    HW121387   1.727   1.135   9.401
 6516SOL    HW221388   1.596   1.068   9.437
 6517SOL     OW21389   8.874   7.726   0.242
 6517SOL    HW121390   8.915   7.802   0.202
 6517SOL    HW221391   8.893   7.654   0.181
 6518SOL     OW21392   3.572   3.109  12.741
 6518SOL    HW121393   3.521   3.042  12.694
 6518SOL    HW221394   3.558   3.089  12.833
 6519SOL     OW21395   0.243  10.065   2.716
 6519SOL    HW121396   0.265  10.040   2.805
 6519SOL    HW221397   0.231   9.981   2.670
 6520SOL     OW21398   7.673   6.989   7.238
 6520SOL    HW121399   7.669   7.078   7.202
 6520SOL    HW221400   7.612   6.939   7.184
 6521SOL     OW21401   7.810   8.641   7.304
 6521SOL    HW121402   7.784   8.583   7.376
 6521SOL    HW221403   7.727   8.679   7.274
 6522SOL     OW21404   7.026   7.801   0.182
 6522SOL    HW121405   7.091   7.838   0.122
 6522SOL    HW221406   7.047   7.839   0.267
 6523SOL     OW21407   1.702   8.998  12.909
 6523SOL    HW121408   1.688   9.071  12.970
 6523SOL    HW221409   1.792   8.970  12.926
 6524SOL     OW21410   1.970   3.962  13.362
 6524SOL    HW121411   1.996   4.052  13.344
 6524SOL    HW221412   1.879   3.957  13.331
 6525SOL     OW21413  11.748   1.118  13.836
 6525SOL    HW121414  11.711   1.178  13.900
 6525SOL    HW221415  11.842   1.133  13.840
 6526SOL     OW21416   4.428   1.182   7.401
 6526SOL    HW121417   4.362   1.216   7.340
 6526SOL    HW221418   4.450   1.257   7.457
 6527SOL     OW21419  14.086   0.858  13.987
 6527SOL    HW121420  14.074   0.869  14.081
 6527SOL    HW221421  14.181   0.859  13.975
 6528SOL     OW21422   5.949   1.736   5.590
 6528SOL    HW121423   5.860   1.767   5.576
 6528SOL    HW221424   5.950   1.703   5.680
 6529SOL     OW21425   0.650   4.644   2.977
 6529SOL    HW121426   0.693   4.581   3.035
 6529SOL    HW221427   0.614   4.591   2.906
 6530SOL     OW21428   4.674  13.222   2.785
 6530SOL    HW121429   4.647  13.283   2.854
 6530SOL    HW221430   4.659  13.135   2.823
 6531SOL     OW21431   6.270   0.529  14.678
 6531SOL    HW121432   6.294   0.579  14.756
 6531SOL    HW221433   6.323   0.567  14.608
 6532SOL     OW21434  13.719   1.597   7.399
 6532SOL    HW121435  13.643   1.539   7.408
 6532SOL    HW221436  13.794   1.538   7.400
 6533SOL     OW21437  11.785   2.090  12.311
 6533SOL    HW121438  11.871   2.105  12.271
 6533SOL    HW221439  11.726   2.149  12.265
 6534SOL     OW21440   4.208   3.057  10.098
 6534SOL    HW121441   4.170   2.986  10.150
 6534SOL    HW221442   4.162   3.136  10.127
 6535SOL     OW21443   4.685  13.658   6.755
 6535SOL    HW121444   4.669  13.748   6.727
 6535SOL    HW221445   4.781  13.651   6.755
 6536SOL     OW21446   6.776   8.211   6.641
 6536SOL    HW121447   6.797   8.167   6.724
 6536SOL    HW221448   6.860   8.217   6.595
 6537SOL     OW21449   7.704  12.913   4.314
 6537SOL    HW121450   7.767  12.979   4.340
 6537SOL    HW221451   7.750  12.859   4.250
 6538SOL     OW21452  14.662   5.981   3.010
 6538SOL    HW121453  14.730   5.923   3.045
 6538SOL    HW221454  14.657   6.052   3.073
 6539SOL     OW21455   0.144  11.549   2.306
 6539SOL    HW121456   0.058  11.589   2.319
 6539SOL    HW221457   0.160  11.503   2.389
 6540SOL     OW21458   4.459  14.028   7.455
 6540SOL    HW121459   4.506  13.962   7.405
 6540SOL    HW221460   4.487  14.015   7.545
 6541SOL     OW21461   5.258   8.185   5.615
 6541SOL    HW121462   5.291   8.103   5.652
 6541SOL    HW221463   5.274   8.250   5.684
 6542SOL     OW21464  14.121  13.251  13.327
 6542SOL    HW121465  14.107  13.338  13.289
 6542SOL    HW221466  14.077  13.254  13.412
 6543SOL     OW21467   2.230  13.141   9.960
 6543SOL    HW121468   2.302  13.080   9.947
 6543SOL    HW221469   2.151  13.088   9.944
 6544SOL     OW21470   1.104  12.905   6.930
 6544SOL    HW121471   1.193  12.875   6.915
 6544SOL    HW221472   1.055  12.825   6.949
 6545SOL     OW21473  14.022  11.215  13.921
 6545SOL    HW121474  14.075  11.278  13.872
 6545SOL    HW221475  14.071  11.200  14.002
 6546SOL     OW21476   4.857  13.931  12.358
 6546SOL    HW121477   4.843  13.888  12.443
 6546SOL    HW221478   4.943  13.901  12.330
 6547SOL     OW21479   5.552   3.385   8.620
 6547SOL    HW121480   5.584   3.450   8.557
 6547SOL    HW221481   5.518   3.314   8.566
 6548SOL     OW21482   0.230   6.495   2.901
 6548SOL    HW121483   0.302   6.547   2.866
 6548SOL    HW221484   0.164   6.495   2.831
 6549SOL     OW21485   9.129   8.332   9.496
 6549SOL    HW121486   9.071   8.306   9.568
 6549SOL    HW221487   9.070   8.358   9.426
 6550SOL     OW21488  14.077   9.344   1.811
 6550SOL    HW121489  14.144   9.311   1.871
 6550SOL    HW221490  14.110   9.429   1.782
 6551SOL     OW21491  10.755   4.397   2.930
 6551SOL    HW121492  10.697   4.391   2.854
 6551SOL    HW221493  10.771   4.491   2.941
 6552SOL     OW21494   5.688   3.232   1.899
 6552SOL    HW121495   5.628   3.158   1.884
 6552SOL    HW221496   5.725   3.215   1.986
 6553SOL     OW21497   7.292   8.630  13.531
 6553SOL    HW121498   7.361   8.641  13.466
 6553SOL    HW221499   7.258   8.719  13.545
 6554SOL     OW21500   1.153   1.978  11.816
 6554SOL    HW121501   1.176   1.922  11.742
 6554SOL    HW221502   1.067   2.013  11.795
 6555SOL     OW21503   1.362   7.477  10.898
 6555SOL    HW121504   1.318   7.469  10.813
 6555SOL    HW221505   1.291   7.467  10.962
 6556SOL     OW21506  12.977   0.489  11.941
 6556SOL    HW121507  13.036   0.477  12.016
 6556SOL    HW221508  13.027   0.456  11.866
 6557SOL     OW21509   8.905  13.325  13.098
 6557SOL    HW121510   8.988  13.374  13.094
 6557SOL    HW221511   8.847  13.371  13.038
 6558SOL     OW21512   5.615  13.223   9.477
 6558SOL    HW121513   5.694  13.271   9.452
 6558SOL    HW221514   5.543  13.275   9.443
 6559SOL     OW21515   6.019   5.781   4.140
 6559SOL    HW121516   5.923   5.778   4.142
 6559SOL    HW221517   6.044   5.796   4.231
 6560SOL     OW21518  11.629   0.627   3.076
 6560SOL    HW121519  11.613   0.565   3.005
 6560SOL    HW221520  11.595   0.583   3.154
 6561SOL     OW21521   6.962   1.545  12.200
 6561SOL    HW121522   6.911   1.519  12.123
 6561SOL    HW221523   7.008   1.624  12.174
 6562SOL     OW21524  11.373   1.385   7.347
 6562SOL    HW121525  11.392   1.293   7.365
 6562SOL    HW221526  11.457   1.421   7.319
 6563SOL     OW21527  10.306   9.203  10.332
 6563SOL    HW121528  10.364   9.254  10.275
 6563SOL    HW221529  10.302   9.117  10.290
 6564SOL     OW21530  12.623   8.371   6.546
 6564SOL    HW121531  12.543   8.358   6.597
 6564SOL    HW221532  12.605   8.449   6.494
 6565SOL     OW21533   8.844  11.128   6.123
 6565SOL    HW121534   8.844  11.215   6.165
 6565SOL    HW221535   8.783  11.077   6.177
 6566SOL     OW21536   5.398   0.465   4.333
 6566SOL    HW121537   5.338   0.447   4.262
 6566SOL    HW221538   5.363   0.543   4.376
 6567SOL     OW21539  12.908   4.867  13.587
 6567SOL    HW121540  12.989   4.897  13.545
 6567SOL    HW221541  12.882   4.790  13.537
 6568SOL     OW21542   3.111   0.761   6.409
 6568SOL    HW121543   3.192   0.715   6.430
 6568SOL    HW221544   3.052   0.740   6.482
 6569SOL     OW21545   1.959  14.212   2.268
 6569SOL    HW121546   1.881  14.194   2.321
 6569SOL    HW221547   1.993  14.126   2.245
 6570SOL     OW21548   5.022   9.327   5.041
 6570SOL    HW121549   5.097   9.293   5.089
 6570SOL    HW221550   4.993   9.254   4.986
 6571SOL     OW21551   7.554  13.457   7.852
 6571SOL    HW121552   7.603  13.375   7.844
 6571SOL    HW221553   7.589  13.497   7.932
 6572SOL     OW21554  14.192   6.380  12.268
 6572SOL    HW121555  14.196   6.471  12.299
 6572SOL    HW221556  14.169   6.330  12.346
 6573SOL     OW21557   8.539   1.292   1.481
 6573SOL    HW121558   8.607   1.360   1.475
 6573SOL    HW221559   8.492   1.313   1.562
 6574SOL     OW21560  11.294  13.978   9.264
 6574SOL    HW121561  11.211  13.977   9.311
 6574SOL    HW221562  11.344  14.050   9.305
 6575SOL     OW21563   6.427   9.235   8.071
 6575SOL    HW121564   6.342   9.252   8.112
 6575SOL    HW221565   6.450   9.146   8.100
 6576SOL     OW21566   4.423  11.664   7.215
 6576SOL    HW121567   4.476  11.713   7.152
 6576SOL    HW221568   4.401  11.727   7.283
 6577SOL     OW21569   3.065  13.143   6.854
 6577SOL    HW121570   3.025  13.086   6.787
 6577SOL    HW221571   3.102  13.082   6.918
 6578SOL     OW21572  13.802  14.157  10.242
 6578SOL    HW121573  13.791  14.067  10.214
 6578SOL    HW221574  13.717  14.198  10.225
 6579SOL     OW21575  10.882   5.317   1.986
 6579SOL    HW121576  10.811   5.336   1.925
 6579SOL    HW221577  10.879   5.222   1.999
 6580SOL     OW21578  13.120   7.003   0.003
 6580SOL    HW121579  13.095   7.089  14.851
 6580SOL    HW221580  13.214   6.998  14.872
 6581SOL     OW21581   2.289   8.529  11.431
 6581SOL    HW121582   2.344   8.498  11.503
 6581SOL    HW221583   2.351   8.561  11.366
 6582SOL     OW21584   5.490   1.598  11.553
 6582SOL    HW121585   5.453   1.598  11.642
 6582SOL    HW221586   5.484   1.690  11.525
 6583SOL     OW21587   9.875   4.521   8.908
 6583SOL    HW121588   9.909   4.432   8.916
 6583SOL    HW221589   9.855   4.548   8.998
 6584SOL     OW21590   2.107   0.049   8.300
 6584SOL    HW121591   2.020   0.018   8.326
 6584SOL    HW221592   2.091   0.131   8.255
 6585SOL     OW21593   3.293   1.673  11.226
 6585SOL    HW121594   3.224   1.607  11.219
 6585SOL    HW221595   3.256   1.741  11.282
 6586SOL     OW21596  12.947   6.033   0.033
 6586SOL    HW121597  12.967   6.008   0.123
 6586SOL    HW221598  13.028   6.070  14.882
 6587SOL     OW21599  12.960   6.534   3.626
 6587SOL    HW121600  12.877   6.540   3.579
 6587SOL    HW221601  12.994   6.447   3.603
 6588SOL     OW21602   4.109   2.151   5.424
 6588SOL    HW121603   4.073   2.236   5.398
 6588SOL    HW221604   4.203   2.160   5.414
 6589SOL     OW21605   6.834   7.632  10.122
 6589SOL    HW121606   6.796   7.717  10.103
 6589SOL    HW221607   6.805   7.612  10.211
 6590SOL     OW21608   0.727   9.934   5.736
 6590SOL    HW121609   0.771   9.850   5.748
 6590SOL    HW221610   0.667   9.919   5.663
 6591SOL     OW21611  11.269   4.809   6.948
 6591SOL    HW121612  11.201   4.746   6.927
 6591SOL    HW221613  11.339   4.757   6.988
 6592SOL     OW21614  10.845  13.431   5.194
 6592SOL    HW121615  10.877  13.344   5.218
 6592SOL    HW221616  10.880  13.446   5.106
 6593SOL     OW21617   0.163  10.966   2.851
 6593SOL    HW121618   0.076  10.999   2.873
 6593SOL    HW221619   0.222  11.038   2.873
 6594SOL     OW21620   9.577  13.951   7.060
 6594SOL    HW121621   9.624  13.874   7.092
 6594SOL    HW221622   9.645  14.005   7.019
 6595SOL     OW21623  13.648  10.158   6.883
 6595SOL    HW121624  13.590  10.195   6.950
 6595SOL    HW221625  13.630  10.210   6.805
 6596SOL     OW21626   4.770  13.933   9.502
 6596SOL    HW121627   4.814  13.920   9.586
 6596SOL    HW221628   4.840  13.927   9.437
 6597SOL     OW21629   9.749  11.350   6.460
 6597SOL    HW121630   9.811  11.279   6.443
 6597SOL    HW221631   9.788  11.400   6.531
 6598SOL     OW21632   0.770   3.172   1.699
 6598SOL    HW121633   0.765   3.124   1.617
 6598SOL    HW221634   0.758   3.106   1.767
 6599SOL     OW21635   6.010   3.438   5.102
 6599SOL    HW121636   6.013   3.534   5.108
 6599SOL    HW221637   5.919   3.416   5.119
 6600SOL     OW21638   8.776   6.648  10.743
 6600SOL    HW121639   8.819   6.663  10.659
 6600SOL    HW221640   8.808   6.563  10.773
 6601SOL     OW21641   9.458  12.761   3.620
 6601SOL    HW121642   9.390  12.828   3.615
 6601SOL    HW221643   9.511  12.775   3.541
 6602SOL     OW21644  10.766  11.069   1.005
 6602SOL    HW121645  10.709  11.077   0.929
 6602SOL    HW221646  10.848  11.112   0.979
 6603SOL     OW21647  14.428   5.227  13.098
 6603SOL    HW121648  14.491   5.274  13.153
 6603SOL    HW221649  14.468   5.141  13.085
 6604SOL     OW21650   8.199   1.550   1.525
 6604SOL    HW121651   8.105   1.536   1.513
 6604SOL    HW221652   8.225   1.601   1.448
 6605SOL     OW21653  14.569  12.156  10.081
 6605SOL    HW121654  14.621  12.084  10.045
 6605SOL    HW221655  14.493  12.162  10.024
 6606SOL     OW21656   4.248   7.374  11.480
 6606SOL    HW121657   4.210   7.317  11.413
 6606SOL    HW221658   4.180   7.378  11.548
 6607SOL     OW21659   9.857   1.578   2.074
 6607SOL    HW121660   9.770   1.613   2.088
 6607SOL    HW221661   9.894   1.633   2.005
 6608SOL     OW21662  10.685  12.485   3.671
 6608SOL    HW121663  10.752  12.553   3.677
 6608SOL    HW221664  10.607  12.531   3.641
 6609SOL     OW21665  12.996   0.320  14.068
 6609SOL    HW121666  13.014   0.330  13.975
 6609SOL    HW221667  12.995   0.226  14.082
 6610SOL     OW21668   8.996   6.493   6.945
 6610SOL    HW121669   9.017   6.432   7.015
 6610SOL    HW221670   8.901   6.492   6.939
 6611SOL     OW21671  14.766  11.424  12.404
 6611SOL    HW121672  14.717  11.364  12.460
 6611SOL    HW221673  14.701  11.488  12.375
 6612SOL     OW21674  14.520   8.981   9.091
 6612SOL    HW121675  14.510   9.005   8.999
 6612SOL    HW221676  14.614   8.965   9.101
 6613SOL     OW21677   0.491  13.858  10.014
 6613SOL    HW121678   0.498  13.902  10.099
 6613SOL    HW221679   0.400  13.830  10.010
 6614SOL     OW21680  13.757  13.123   7.748
 6614SOL    HW121681  13.842  13.112   7.790
 6614SOL    HW221682  13.766  13.203   7.696
 6615SOL     OW21683   7.338   0.507  12.056
 6615SOL    HW121684   7.318   0.598  12.080
 6615SOL    HW221685   7.253   0.468  12.037
 6616SOL     OW21686  13.211  10.428  11.798
 6616SOL    HW121687  13.204  10.523  11.783
 6616SOL    HW221688  13.186  10.389  11.714
 6617SOL     OW21689  12.937  12.072  12.258
 6617SOL    HW121690  12.974  12.138  12.317
 6617SOL    HW221691  13.011  12.015  12.237
 6618SOL     OW21692   6.243  13.925   5.997
 6618SOL    HW121693   6.262  13.863   5.927
 6618SOL    HW221694   6.167  13.888   6.042
 6619SOL     OW21695  10.603  11.116  14.579
 6619SOL    HW121696  10.661  11.137  14.506
 6619SOL    HW221697  10.522  11.086  14.538
 6620SOL     OW21698  11.735  12.122  12.336
 6620SOL    HW121699  11.803  12.062  12.364
 6620SOL    HW221700  11.708  12.168  12.416
 6621SOL     OW21701   9.996   5.233   2.934
 6621SOL    HW121702  10.007   5.298   3.003
 6621SOL    HW221703   9.959   5.281   2.861
 6622SOL     OW21704   3.209   7.296  13.619
 6622SOL    HW121705   3.228   7.377  13.667
 6622SOL    HW221706   3.223   7.319  13.527
 6623SOL     OW21707   4.550   3.500   5.036
 6623SOL    HW121708   4.515   3.577   5.081
 6623SOL    HW221709   4.645   3.509   5.044
 6624SOL     OW21710  13.253   9.845  10.720
 6624SOL    HW121711  13.326   9.893  10.680
 6624SOL    HW221712  13.247   9.881  10.809
 6625SOL     OW21713   0.859  13.962   0.079
 6625SOL    HW121714   0.857  14.036   0.020
 6625SOL    HW221715   0.934  13.910   0.051
 6626SOL     OW21716  12.319   2.223   9.993
 6626SOL    HW121717  12.317   2.154   9.927
 6626SOL    HW221718  12.411   2.248   9.999
 6627SOL     OW21719   1.203   2.381   3.460
 6627SOL    HW121720   1.168   2.470   3.453
 6627SOL    HW221721   1.126   2.325   3.454
 6628SOL     OW21722  10.970  13.746   8.420
 6628SOL    HW121723  10.993  13.766   8.329
 6628SOL    HW221724  11.054  13.729   8.463
 6629SOL     OW21725   9.333  13.254   5.302
 6629SOL    HW121726   9.264  13.240   5.367
 6629SOL    HW221727   9.380  13.332   5.333
 6630SOL     OW21728  13.257  10.219  13.755
 6630SOL    HW121729  13.327  10.262  13.806
 6630SOL    HW221730  13.259  10.263  13.670
 6631SOL     OW21731   4.833   1.403   3.540
 6631SOL    HW121732   4.770   1.465   3.577
 6631SOL    HW221733   4.917   1.426   3.580
 6632SOL     OW21734  12.153   1.307  10.377
 6632SOL    HW121735  12.207   1.351  10.442
 6632SOL    HW221736  12.147   1.217  10.407
 6633SOL     OW21737   8.183  14.587   1.886
 6633SOL    HW121738   8.129  14.548   1.954
 6633SOL    HW221739   8.267  14.604   1.929
 6634SOL     OW21740   2.168   5.144  12.337
 6634SOL    HW121741   2.084   5.169  12.377
 6634SOL    HW221742   2.210   5.088  12.402
 6635SOL     OW21743   3.647   6.408  12.379
 6635SOL    HW121744   3.589   6.429  12.452
 6635SOL    HW221745   3.654   6.489  12.329
 6636SOL     OW21746  11.777   1.568   4.699
 6636SOL    HW121747  11.781   1.559   4.604
 6636SOL    HW221748  11.866   1.551   4.729
 6637SOL     OW21749   6.189  11.368   2.135
 6637SOL    HW121750   6.206  11.393   2.044
 6637SOL    HW221751   6.229  11.437   2.187
 6638SOL     OW21752   7.433  12.343  14.632
 6638SOL    HW121753   7.346  12.372  14.606
 6638SOL    HW221754   7.428  12.247  14.627
 6639SOL     OW21755   0.965   3.467   4.849
 6639SOL    HW121756   0.923   3.553   4.857
 6639SOL    HW221757   0.983   3.441   4.939
 6640SOL     OW21758   1.827  11.019  13.773
 6640SOL    HW121759   1.752  10.965  13.747
 6640SOL    HW221760   1.893  11.001  13.706
 6641SOL     OW21761  12.087  11.076   5.717
 6641SOL    HW121762  12.141  11.082   5.638
 6641SOL    HW221763  12.011  11.131   5.698
 6642SOL     OW21764  12.850  12.472  12.144
 6642SOL    HW121765  12.941  12.469  12.175
 6642SOL    HW221766  12.857  12.476  12.049
 6643SOL     OW21767   5.212  13.433  10.350
 6643SOL    HW121768   5.265  13.456  10.273
 6643SOL    HW221769   5.210  13.337  10.349
 6644SOL     OW21770  12.049   5.607   7.286
 6644SOL    HW121771  12.143   5.614   7.304
 6644SOL    HW221772  12.009   5.676   7.339
 6645SOL     OW21773   6.369   2.944   6.887
 6645SOL    HW121774   6.377   2.977   6.798
 6645SOL    HW221775   6.379   3.021   6.943
 6646SOL     OW21776   1.758   5.992   4.674
 6646SOL    HW121777   1.852   5.997   4.654
 6646SOL    HW221778   1.720   6.067   4.628
 6647SOL     OW21779   4.703   9.148  13.272
 6647SOL    HW121780   4.744   9.209  13.210
 6647SOL    HW221781   4.615   9.183  13.284
 6648SOL     OW21782   0.214  10.681  10.037
 6648SOL    HW121783   0.274  10.682  10.111
 6648SOL    HW221784   0.166  10.599  10.046
 6649SOL     OW21785   0.850   1.978   7.257
 6649SOL    HW121786   0.920   1.952   7.316
 6649SOL    HW221787   0.799   2.041   7.307
 6650SOL     OW21788   9.632  10.477   0.840
 6650SOL    HW121789   9.545  10.441   0.822
 6650SOL    HW221790   9.671  10.415   0.902
 6651SOL     OW21791   8.810  11.607  13.549
 6651SOL    HW121792   8.865  11.559  13.487
 6651SOL    HW221793   8.727  11.560  13.548
 6652SOL     OW21794   5.630   3.598   8.091
 6652SOL    HW121795   5.663   3.512   8.115
 6652SOL    HW221796   5.648   3.654   8.167
 6653SOL     OW21797  13.042   2.248   3.880
 6653SOL    HW121798  13.116   2.203   3.839
 6653SOL    HW221799  13.014   2.189   3.950
 6654SOL     OW21800   6.676   0.065   1.782
 6654SOL    HW121801   6.683   0.137   1.719
 6654SOL    HW221802   6.643   0.106   1.861
 6655SOL     OW21803   0.219  10.035   7.590
 6655SOL    HW121804   0.224  10.056   7.684
 6655SOL    HW221805   0.241  10.117   7.546
 6656SOL     OW21806   6.249   5.341   1.895
 6656SOL    HW121807   6.230   5.249   1.911
 6656SOL    HW221808   6.324   5.340   1.836
 6657SOL     OW21809   7.048   4.104   3.110
 6657SOL    HW121810   6.994   4.169   3.065
 6657SOL    HW221811   7.028   4.116   3.203
 6658SOL     OW21812   6.412   1.048   9.143
 6658SOL    HW121813   6.344   1.082   9.202
 6658SOL    HW221814   6.397   0.954   9.141
 6659SOL     OW21815   3.967  10.706   5.388
 6659SOL    HW121816   3.937  10.618   5.412
 6659SOL    HW221817   3.919  10.764   5.447
 6660SOL     OW21818   4.877  12.971   7.125
 6660SOL    HW121819   4.835  13.030   7.187
 6660SOL    HW221820   4.806  12.916   7.093
 6661SOL     OW21821  10.544   1.224   9.701
 6661SOL    HW121822  10.525   1.143   9.748
 6661SOL    HW221823  10.589   1.195   9.621
 6662SOL     OW21824   4.566   9.123  13.689
 6662SOL    HW121825   4.554   9.204  13.638
 6662SOL    HW221826   4.515   9.137  13.769
 6663SOL     OW21827   3.495  14.348   5.415
 6663SOL    HW121828   3.582  14.309   5.416
 6663SOL    HW221829   3.479  14.367   5.323
 6664SOL     OW21830   4.526   2.392   8.399
 6664SOL    HW121831   4.478   2.371   8.479
 6664SOL    HW221832   4.461   2.386   8.330
 6665SOL     OW21833   0.533   6.187   5.341
 6665SOL    HW121834   0.576   6.251   5.284
 6665SOL    HW221835   0.524   6.232   5.425
 6666SOL     OW21836   8.802   9.948  12.421
 6666SOL    HW121837   8.720   9.938  12.374
 6666SOL    HW221838   8.831  10.037  12.402
 6667SOL     OW21839  10.380   1.705   6.383
 6667SOL    HW121840  10.417   1.623   6.415
 6667SOL    HW221841  10.386   1.765   6.457
 6668SOL     OW21842   4.487  14.595   7.239
 6668SOL    HW121843   4.461  14.604   7.330
 6668SOL    HW221844   4.406  14.610   7.190
 6669SOL     OW21845  12.056  12.559  14.358
 6669SOL    HW121846  12.102  12.483  14.394
 6669SOL    HW221847  12.048  12.540  14.265
 6670SOL     OW21848   4.600   4.609  12.908
 6670SOL    HW121849   4.585   4.564  12.991
 6670SOL    HW221850   4.635   4.695  12.933
 6671SOL     OW21851   4.076   2.649   8.725
 6671SOL    HW121852   4.117   2.637   8.639
 6671SOL    HW221853   3.996   2.699   8.706
 6672SOL     OW21854  10.865  12.292   2.481
 6672SOL    HW121855  10.791  12.326   2.431
 6672SOL    HW221856  10.840  12.305   2.573
 6673SOL     OW21857   4.175   6.602  10.526
 6673SOL    HW121858   4.149   6.512  10.507
 6673SOL    HW221859   4.260   6.612  10.483
 6674SOL     OW21860   5.645   6.343   0.981
 6674SOL    HW121861   5.576   6.298   1.029
 6674SOL    HW221862   5.722   6.338   1.039
 6675SOL     OW21863   3.107   0.843   2.564
 6675SOL    HW121864   3.113   0.914   2.628
 6675SOL    HW221865   3.036   0.871   2.505
 6676SOL     OW21866   5.527   6.020  13.727
 6676SOL    HW121867   5.506   5.926  13.723
 6676SOL    HW221868   5.587   6.033  13.653
 6677SOL     OW21869   5.189   2.064   7.848
 6677SOL    HW121870   5.118   2.075   7.785
 6677SOL    HW221871   5.260   2.022   7.799
 6678SOL     OW21872   9.200   9.787  12.702
 6678SOL    HW121873   9.284   9.831  12.714
 6678SOL    HW221874   9.153   9.843  12.640
 6679SOL     OW21875  12.721  11.626   7.105
 6679SOL    HW121876  12.768  11.599   7.026
 6679SOL    HW221877  12.685  11.545   7.140
 6680SOL     OW21878   3.500  10.286   3.362
 6680SOL    HW121879   3.579  10.297   3.415
 6680SOL    HW221880   3.497  10.192   3.342
 6681SOL     OW21881   2.021  12.734   0.188
 6681SOL    HW121882   2.048  12.648   0.221
 6681SOL    HW221883   1.968  12.714   0.111
 6682SOL     OW21884   3.635  11.235   5.693
 6682SOL    HW121885   3.723  11.224   5.729
 6682SOL    HW221886   3.583  11.268   5.765
 6683SOL     OW21887   2.653   8.319   6.840
 6683SOL    HW121888   2.726   8.360   6.886
 6683SOL    HW221889   2.649   8.366   6.756
 6684SOL     OW21890   0.673   7.226   5.693
 6684SOL    HW121891   0.657   7.154   5.633
 6684SOL    HW221892   0.707   7.185   5.772
 6685SOL     OW21893   2.732   1.041  12.370
 6685SOL    HW121894   2.665   1.108  12.360
 6685SOL    HW221895   2.797   1.081  12.429
 6686SOL     OW21896   2.514   0.513   6.957
 6686SOL    HW121897   2.548   0.423   6.962
 6686SOL    HW221898   2.437   0.505   6.900
 6687SOL     OW21899   0.275   5.981   7.697
 6687SOL    HW121900   0.247   5.937   7.617
 6687SOL    HW221901   0.201   5.969   7.757
 6688SOL     OW21902   0.828   5.262   9.780
 6688SOL    HW121903   0.776   5.339   9.801
 6688SOL    HW221904   0.773   5.211   9.721
 6689SOL     OW21905  11.612  14.380   5.732
 6689SOL    HW121906  11.669  14.452   5.708
 6689SOL    HW221907  11.541  14.421   5.781
 6690SOL     OW21908  14.535   1.404  11.075
 6690SOL    HW121909  14.572   1.479  11.028
 6690SOL    HW221910  14.601   1.336  11.068
 6691SOL     OW21911  10.208  11.795   1.576
 6691SOL    HW121912  10.212  11.771   1.483
 6691SOL    HW221913  10.299  11.809   1.601
 6692SOL     OW21914   1.256   3.810   9.456
 6692SOL    HW121915   1.272   3.721   9.488
 6692SOL    HW221916   1.257   3.864   9.535
 6693SOL     OW21917   9.480  13.906   7.877
 6693SOL    HW121918   9.475  13.969   7.805
 6693SOL    HW221919   9.406  13.847   7.861
 6694SOL     OW21920   9.926   7.947   8.858
 6694SOL    HW121921   9.972   7.917   8.780
 6694SOL    HW221922   9.922   7.871   8.915
 6695SOL     OW21923   5.676   0.837   8.203
 6695SOL    HW121924   5.747   0.778   8.178
 6695SOL    HW221925   5.715   0.924   8.203
 6696SOL     OW21926  10.509   2.077   5.042
 6696SOL    HW121927  10.500   2.054   4.949
 6696SOL    HW221928  10.514   2.173   5.043
 6697SOL     OW21929   0.835  13.454   6.260
 6697SOL    HW121930   0.929  13.476   6.258
 6697SOL    HW221931   0.822  13.400   6.182
 6698SOL     OW21932  11.803   1.578   4.332
 6698SOL    HW121933  11.848   1.648   4.379
 6698SOL    HW221934  11.829   1.498   4.378
 6699SOL     OW21935   0.446   2.984  12.370
 6699SOL    HW121936   0.403   3.024  12.446
 6699SOL    HW221937   0.438   2.890  12.384
 6700SOL     OW21938  13.872   7.868   2.227
 6700SOL    HW121939  13.856   7.820   2.145
 6700SOL    HW221940  13.793   7.922   2.238
 6701SOL     OW21941  14.260   4.587  14.822
 6701SOL    HW121942  14.311   4.629  14.753
 6701SOL    HW221943  14.226   4.659  14.875
 6702SOL     OW21944   9.900   4.142   5.275
 6702SOL    HW121945   9.991   4.172   5.274
 6702SOL    HW221946   9.894   4.084   5.351
 6703SOL     OW21947  14.397  11.641   4.869
 6703SOL    HW121948  14.452  11.651   4.791
 6703SOL    HW221949  14.310  11.620   4.834
 6704SOL     OW21950   2.124   1.793   2.794
 6704SOL    HW121951   2.066   1.746   2.853
 6704SOL    HW221952   2.068   1.856   2.749
 6705SOL     OW21953  11.850   2.526   4.869
 6705SOL    HW121954  11.872   2.549   4.959
 6705SOL    HW221955  11.889   2.439   4.856
 6706SOL     OW21956  12.579   5.740   2.690
 6706SOL    HW121957  12.518   5.719   2.761
 6706SOL    HW221958  12.651   5.787   2.733
 6707SOL     OW21959   6.155   7.135   9.620
 6707SOL    HW121960   6.136   7.176   9.536
 6707SOL    HW221961   6.221   7.069   9.601
 6708SOL     OW21962   9.908  11.524  14.571
 6708SOL    HW121963   9.952  11.605  14.547
 6708SOL    HW221964   9.848  11.548  14.641
 6709SOL     OW21965   0.006   2.422  14.385
 6709SOL    HW121966   0.001   2.499  14.329
 6709SOL    HW221967   0.058   2.359  14.336
 6710SOL     OW21968   9.340   3.944   1.227
 6710SOL    HW121969   9.355   3.948   1.322
 6710SOL    HW221970   9.356   4.033   1.196
 6711SOL     OW21971   8.956  12.950   8.774
 6711SOL    HW121972   8.904  12.928   8.851
 6711SOL    HW221973   9.007  13.026   8.801
 6712SOL     OW21974  14.496   2.221   1.207
 6712SOL    HW121975  14.417   2.256   1.249
 6712SOL    HW221976  14.468   2.139   1.167
 6713SOL     OW21977   3.897   1.275  11.433
 6713SOL    HW121978   3.908   1.268  11.339
 6713SOL    HW221979   3.804   1.262  11.448
 6714SOL     OW21980   6.220   1.733   1.035
 6714SOL    HW121981   6.306   1.735   1.078
 6714SOL    HW221982   6.185   1.647   1.057
 6715SOL     OW21983  14.014   9.918   8.365
 6715SOL    HW121984  13.952   9.877   8.425
 6715SOL    HW221985  13.990  10.011   8.366
 6716SOL     OW21986  13.852  13.106   9.151
 6716SOL    HW121987  13.903  13.046   9.206
 6716SOL    HW221988  13.763  13.069   9.152
 6717SOL     OW21989   7.868   7.229   7.346
 6717SOL    HW121990   7.780   7.217   7.311
 6717SOL    HW221991   7.888   7.321   7.329
 6718SOL     OW21992   6.620  11.427   6.602
 6718SOL    HW121993   6.546  11.374   6.633
 6718SOL    HW221994   6.616  11.506   6.656
 6719SOL     OW21995  14.635   5.926   6.317
 6719SOL    HW121996  14.695   5.987   6.361
 6719SOL    HW221997  14.551   5.941   6.358
 6720SOL     OW21998   2.864  12.897   9.587
 6720SOL    HW121999   2.889  12.845   9.510
 6720SOL    HW222000   2.800  12.959   9.553
 6721SOL     OW22001   4.603   2.440   9.179
 6721SOL    HW122002   4.680   2.388   9.157
 6721SOL    HW222003   4.542   2.427   9.106
 6722SOL     OW22004   6.096   1.824   4.256
 6722SOL    HW122005   6.032   1.818   4.328
 6722SOL    HW222006   6.170   1.771   4.286
 6723SOL     OW22007  11.529  13.540  10.068
 6723SOL    HW122008  11.455  13.484  10.043
 6723SOL    HW222009  11.496  13.593  10.140
 6724SOL     OW22010  14.281   2.274   2.510
 6724SOL    HW122011  14.332   2.352   2.488
 6724SOL    HW222012  14.228   2.258   2.432
 6725SOL     OW22013   7.871   3.660  12.166
 6725SOL    HW122014   7.931   3.597  12.127
 6725SOL    HW222015   7.928   3.728  12.202
 6726SOL     OW22016   9.279  12.774   4.319
 6726SOL    HW122017   9.187  12.767   4.294
 6726SOL    HW222018   9.317  12.835   4.255
 6727SOL     OW22019   9.310  13.457  12.485
 6727SOL    HW122020   9.351  13.543  12.499
 6727SOL    HW222021   9.218  13.470  12.506
 6728SOL     OW22022  10.748  10.666   8.696
 6728SOL    HW122023  10.738  10.720   8.774
 6728SOL    HW222024  10.680  10.695   8.636
 6729SOL     OW22025   3.942  10.848   4.576
 6729SOL    HW122026   4.019  10.796   4.595
 6729SOL    HW222027   3.956  10.879   4.486
 6730SOL     OW22028   1.279   3.674  11.301
 6730SOL    HW122029   1.189   3.647  11.284
 6730SOL    HW222030   1.331   3.595  11.285
 6731SOL     OW22031   0.064   2.607   1.173
 6731SOL    HW122032   0.096   2.613   1.263
 6731SOL    HW222033   0.012   2.527   1.171
 6732SOL     OW22034   8.338   2.887   3.109
 6732SOL    HW122035   8.305   2.976   3.093
 6732SOL    HW222036   8.260   2.837   3.133
 6733SOL     OW22037   3.586  14.400   6.727
 6733SOL    HW122038   3.647  14.396   6.801
 6733SOL    HW222039   3.514  14.342   6.752
 6734SOL     OW22040   3.513  13.383   3.390
 6734SOL    HW122041   3.572  13.455   3.370
 6734SOL    HW222042   3.523  13.323   3.317
 6735SOL     OW22043   4.322  11.847  12.137
 6735SOL    HW122044   4.370  11.892  12.067
 6735SOL    HW222045   4.345  11.755  12.126
 6736SOL     OW22046   5.575   2.074   3.529
 6736SOL    HW122047   5.608   2.094   3.616
 6736SOL    HW222048   5.512   2.004   3.543
 6737SOL     OW22049  11.979  12.962   0.525
 6737SOL    HW122050  11.979  12.889   0.587
 6737SOL    HW222051  11.939  13.035   0.573
 6738SOL     OW22052  13.617   6.938  12.252
 6738SOL    HW122053  13.600   7.011  12.312
 6738SOL    HW222054  13.611   6.860  12.307
 6739SOL     OW22055   7.377   1.763   0.229
 6739SOL    HW122056   7.289   1.738   0.257
 6739SOL    HW222057   7.388   1.722   0.144
 6740SOL     OW22058   7.708   1.948   3.801
 6740SOL    HW122059   7.627   1.962   3.851
 6740SOL    HW222060   7.754   2.031   3.806
 6741SOL     OW22061  10.591  13.765  12.382
 6741SOL    HW122062  10.635  13.848  12.403
 6741SOL    HW222063  10.568  13.774  12.290
 6742SOL     OW22064  10.270  14.540  10.301
 6742SOL    HW122065  10.316  14.456  10.298
 6742SOL    HW222066  10.329  14.597  10.350
 6743SOL     OW22067   5.190  12.683   8.291
 6743SOL    HW122068   5.240  12.678   8.372
 6743SOL    HW222069   5.138  12.603   8.290
 6744SOL     OW22070   2.742   7.069   5.842
 6744SOL    HW122071   2.801   7.132   5.884
 6744SOL    HW222072   2.765   7.073   5.749
 6745SOL     OW22073   5.633   4.561  12.120
 6745SOL    HW122074   5.687   4.521  12.051
 6745SOL    HW222075   5.689   4.629  12.157
 6746SOL     OW22076  13.478  14.283   6.576
 6746SOL    HW122077  13.396  14.237   6.558
 6746SOL    HW222078  13.486  14.347   6.505
 6747SOL     OW22079   9.527   1.751   8.092
 6747SOL    HW122080   9.438   1.786   8.100
 6747SOL    HW222081   9.559   1.747   8.182
 6748SOL     OW22082   4.047   8.837   8.682
 6748SOL    HW122083   4.051   8.750   8.721
 6748SOL    HW222084   4.016   8.823   8.593
 6749SOL     OW22085   7.294   0.778   8.304
 6749SOL    HW122086   7.308   0.708   8.369
 6749SOL    HW222087   7.370   0.835   8.315
 6750SOL     OW22088   6.695  13.940   3.576
 6750SOL    HW122089   6.614  13.990   3.577
 6750SOL    HW222090   6.711  13.923   3.483
 6751SOL     OW22091   4.119   8.243  12.020
 6751SOL    HW122092   4.182   8.302  12.060
 6751SOL    HW222093   4.041   8.249  12.075
 6752SOL     OW22094  12.297   3.964   5.709
 6752SOL    HW122095  12.206   3.942   5.728
 6752SOL    HW222096  12.293   4.015   5.628
 6753SOL     OW22097   6.819   4.408   2.543
 6753SOL    HW122098   6.789   4.490   2.582
 6753SOL    HW222099   6.827   4.348   2.617
 6754SOL     OW22100   7.985   6.069   2.101
 6754SOL    HW122101   7.972   6.017   2.181
 6754SOL    HW222102   8.061   6.028   2.058
 6755SOL     OW22103   4.781   6.898   2.530
 6755SOL    HW122104   4.772   6.872   2.439
 6755SOL    HW222105   4.782   6.994   2.527
 6756SOL     OW22106   3.487  12.816   7.574
 6756SOL    HW122107   3.445  12.731   7.557
 6756SOL    HW222108   3.437  12.878   7.521
 6757SOL     OW22109   6.172  11.473   2.545
 6757SOL    HW122110   6.094  11.522   2.572
 6757SOL    HW222111   6.149  11.381   2.559
 6758SOL     OW22112   1.943   2.199   2.951
 6758SOL    HW122113   1.947   2.281   3.000
 6758SOL    HW222114   1.973   2.132   3.013
 6759SOL     OW22115  12.482   9.736   6.428
 6759SOL    HW122116  12.397   9.761   6.466
 6759SOL    HW222117  12.474   9.759   6.335
 6760SOL     OW22118   1.772   8.577   4.590
 6760SOL    HW122119   1.835   8.571   4.663
 6760SOL    HW222120   1.706   8.510   4.611
 6761SOL     OW22121   2.911  14.059  14.434
 6761SOL    HW122122   2.933  14.153  14.434
 6761SOL    HW222123   2.944  14.027  14.517
 6762SOL     OW22124   0.713   3.120   5.030
 6762SOL    HW122125   0.671   3.184   4.973
 6762SOL    HW222126   0.806   3.125   5.007
 6763SOL     OW22127   0.946  11.207   1.834
 6763SOL    HW122128   0.895  11.184   1.757
 6763SOL    HW222129   1.037  11.209   1.803
 6764SOL     OW22130   2.649  12.241  13.023
 6764SOL    HW122131   2.566  12.240  12.975
 6764SOL    HW222132   2.713  12.276  12.961
 6765SOL     OW22133   9.702   5.881  10.673
 6765SOL    HW122134   9.792   5.851  10.659
 6765SOL    HW222135   9.648   5.809  10.643
 6766SOL     OW22136   4.679   8.577   3.871
 6766SOL    HW122137   4.675   8.481   3.865
 6766SOL    HW222138   4.760   8.594   3.920
 6767SOL     OW22139  12.448   3.894   1.651
 6767SOL    HW122140  12.431   3.929   1.564
 6767SOL    HW222141  12.495   3.963   1.697
 6768SOL     OW22142   3.087   4.376   6.037
 6768SOL    HW122143   3.118   4.459   6.001
 6768SOL    HW222144   2.995   4.393   6.060
 6769SOL     OW22145   0.461   9.964   4.406
 6769SOL    HW122146   0.375   9.964   4.448
 6769SOL    HW222147   0.467  10.049   4.362
 6770SOL     OW22148  12.768  13.334   7.834
 6770SOL    HW122149  12.679  13.322   7.800
 6770SOL    HW222150  12.772  13.427   7.858
 6771SOL     OW22151   9.482   2.064  14.113
 6771SOL    HW122152   9.398   2.106  14.093
 6771SOL    HW222153   9.494   2.001  14.042
 6772SOL     OW22154  11.215   0.752   6.644
 6772SOL    HW122155  11.193   0.816   6.712
 6772SOL    HW222156  11.131   0.712   6.621
 6773SOL     OW22157   5.240  12.658  10.900
 6773SOL    HW122158   5.283  12.725  10.846
 6773SOL    HW222159   5.295  12.652  10.978
 6774SOL     OW22160  10.340   3.383   3.588
 6774SOL    HW122161  10.264   3.443   3.586
 6774SOL    HW222162  10.307   3.302   3.550
 6775SOL     OW22163   7.336   2.313   9.330
 6775SOL    HW122164   7.376   2.325   9.416
 6775SOL    HW222165   7.388   2.244   9.288
 6776SOL     OW22166   3.423   5.619   4.586
 6776SOL    HW122167   3.413   5.569   4.505
 6776SOL    HW222168   3.369   5.573   4.650
 6777SOL     OW22169   7.184  10.930   9.735
 6777SOL    HW122170   7.216  11.019   9.721
 6777SOL    HW222171   7.089  10.939   9.741
 6778SOL     OW22172   1.398   4.753   7.601
 6778SOL    HW122173   1.369   4.843   7.588
 6778SOL    HW222174   1.353   4.725   7.681
 6779SOL     OW22175  12.087   7.718  13.083
 6779SOL    HW122176  12.087   7.672  13.167
 6779SOL    HW222177  12.032   7.663  13.026
 6780SOL     OW22178   5.032   1.528  13.214
 6780SOL    HW122179   4.983   1.519  13.132
 6780SOL    HW222180   4.981   1.591  13.265
 6781SOL     OW22181  10.993  10.637  12.039
 6781SOL    HW122182  11.076  10.595  12.060
 6781SOL    HW222183  10.976  10.612  11.948
 6782SOL     OW22184   3.511   9.130   6.141
 6782SOL    HW122185   3.459   9.050   6.151
 6782SOL    HW222186   3.530   9.134   6.047
 6783SOL     OW22187   6.011   5.471   1.787
 6783SOL    HW122188   6.060   5.553   1.790
 6783SOL    HW222189   6.069   5.407   1.827
 6784SOL     OW22190   9.084   9.905  14.293
 6784SOL    HW122191   9.114   9.989  14.257
 6784SOL    HW222192   9.004   9.927  14.340
 6785SOL     OW22193   9.096   5.531   7.244
 6785SOL    HW122194   9.156   5.549   7.171
 6785SOL    HW222195   9.152   5.531   7.321
 6786SOL     OW22196  14.064   8.096   4.933
 6786SOL    HW122197  14.150   8.067   4.902
 6786SOL    HW222198  14.028   8.148   4.860
 6787SOL     OW22199   2.846  14.339   1.529
 6787SOL    HW122200   2.911  14.403   1.500
 6787SOL    HW222201   2.769  14.391   1.548
 6788SOL     OW22202   5.938  14.550  10.476
 6788SOL    HW122203   5.896  14.466  10.456
 6788SOL    HW222204   6.027  14.526  10.502
 6789SOL     OW22205   2.265   6.920   7.078
 6789SOL    HW122206   2.327   6.847   7.070
 6789SOL    HW222207   2.194   6.898   7.018
 6790SOL     OW22208   7.051  11.887   3.900
 6790SOL    HW122209   7.144  11.898   3.921
 6790SOL    HW222210   7.050  11.854   3.810
 6791SOL     OW22211   2.607  10.548   7.194
 6791SOL    HW122212   2.585  10.489   7.267
 6791SOL    HW222213   2.639  10.627   7.237
 6792SOL     OW22214   9.487   0.743   1.637
 6792SOL    HW122215   9.563   0.766   1.583
 6792SOL    HW222216   9.526   0.710   1.718
 6793SOL     OW22217   4.679   3.095   2.784
 6793SOL    HW122218   4.762   3.142   2.774
 6793SOL    HW222219   4.613   3.161   2.766
 6794SOL     OW22220   6.385   9.305   5.650
 6794SOL    HW122221   6.392   9.223   5.699
 6794SOL    HW222222   6.403   9.373   5.715
 6795SOL     OW22223  11.854  11.859   5.240
 6795SOL    HW122224  11.845  11.809   5.159
 6795SOL    HW222225  11.867  11.949   5.212
 6796SOL     OW22226   6.382   3.134   9.539
 6796SOL    HW122227   6.399   3.154   9.447
 6796SOL    HW222228   6.290   3.156   9.552
 6797SOL     OW22229  10.479  13.903   2.116
 6797SOL    HW122230  10.553  13.961   2.101
 6797SOL    HW222231  10.424  13.914   2.038
 6798SOL     OW22232  12.189   9.020   6.069
 6798SOL    HW122233  12.189   9.032   6.164
 6798SOL    HW222234  12.276   9.050   6.041
 6799SOL     OW22235   3.883   1.435   8.288
 6799SOL    HW122236   3.867   1.528   8.300
 6799SOL    HW222237   3.832   1.393   8.358
 6800SOL     OW22238   1.192   2.116   9.219
 6800SOL    HW122239   1.132   2.048   9.189
 6800SOL    HW222240   1.167   2.194   9.169
 6801SOL     OW22241   9.246   3.387  14.777
 6801SOL    HW122242   9.323   3.387  14.833
 6801SOL    HW222243   9.256   3.465  14.722
 6802SOL     OW22244  13.540   3.275   3.918
 6802SOL    HW122245  13.616   3.328   3.893
 6802SOL    HW222246  13.575   3.211   3.980
 6803SOL     OW22247   6.937  12.811  10.229
 6803SOL    HW122248   6.954  12.768  10.313
 6803SOL    HW222249   7.006  12.876  10.221
 6804SOL     OW22250   5.009  12.433  11.101
 6804SOL    HW122251   4.999  12.501  11.168
 6804SOL    HW222252   4.978  12.473  11.020
 6805SOL     OW22253  13.573   3.458  12.763
 6805SOL    HW122254  13.497   3.414  12.801
 6805SOL    HW222255  13.648   3.405  12.790
 6806SOL     OW22256  14.831  14.084   2.579
 6806SOL    HW122257   0.044  14.086   2.595
 6806SOL    HW222258  14.793  14.129   2.654
 6807SOL     OW22259  10.429   8.334  12.604
 6807SOL    HW122260  10.416   8.406  12.665
 6807SOL    HW222261  10.461   8.262  12.657
 6808SOL     OW22262   2.129   5.801   6.883
 6808SOL    HW122263   2.135   5.835   6.972
 6808SOL    HW222264   2.086   5.716   6.892
 6809SOL     OW22265   9.749  12.034   6.082
 6809SOL    HW122266   9.719  12.104   6.025
 6809SOL    HW222267   9.709  11.955   6.046
 6810SOL     OW22268   0.846   4.703   3.384
 6810SOL    HW122269   0.855   4.744   3.470
 6810SOL    HW222270   0.765   4.654   3.389
 6811SOL     OW22271   5.207  11.987   1.974
 6811SOL    HW122272   5.153  12.046   1.923
 6811SOL    HW222273   5.211  11.907   1.922
 6812SOL     OW22274  12.765   1.980  11.424
 6812SOL    HW122275  12.671   1.993  11.417
 6812SOL    HW222276  12.779   1.942  11.511
 6813SOL     OW22277   1.306   1.785   7.895
 6813SOL    HW122278   1.324   1.737   7.976
 6813SOL    HW222279   1.294   1.716   7.829
 6814SOL     OW22280   9.968   1.876  13.735
 6814SOL    HW122281   9.927   1.886  13.650
 6814SOL    HW222282   9.916   1.809  13.779
 6815SOL     OW22283   3.609   0.445   1.744
 6815SOL    HW122284   3.535   0.443   1.683
 6815SOL    HW222285   3.620   0.537   1.767
 6816SOL     OW22286   2.139  10.978   4.139
 6816SOL    HW122287   2.185  11.061   4.153
 6816SOL    HW222288   2.154  10.929   4.220
 6817SOL     OW22289  13.449   2.033   8.934
 6817SOL    HW122290  13.378   2.036   8.870
 6817SOL    HW222291  13.526   2.010   8.882
 6818SOL     OW22292   6.726   1.444   1.034
 6818SOL    HW122293   6.739   1.522   0.980
 6818SOL    HW222294   6.642   1.408   1.005
 6819SOL     OW22295   7.646   9.637   0.518
 6819SOL    HW122296   7.597   9.646   0.600
 6819SOL    HW222297   7.583   9.600   0.456
 6820SOL     OW22298  13.254   1.735  12.740
 6820SOL    HW122299  13.331   1.697  12.781
 6820SOL    HW222300  13.188   1.665  12.744
 6821SOL     OW22301  14.734   1.959  12.431
 6821SOL    HW122302  14.681   2.038  12.444
 6821SOL    HW222303  14.820   1.980  12.467
 6822SOL     OW22304  11.074   0.804   1.185
 6822SOL    HW122305  10.979   0.794   1.192
 6822SOL    HW222306  11.088   0.841   1.098
 6823SOL     OW22307   9.320   9.713  13.399
 6823SOL    HW122308   9.230   9.735  13.375
 6823SOL    HW222309   9.318   9.620  13.418
 6824SOL     OW22310   5.361   3.104   9.969
 6824SOL    HW122311   5.342   3.197   9.980
 6824SOL    HW222312   5.374   3.093   9.875
 6825SOL     OW22313  10.379  13.772   6.921
 6825SOL    HW122314  10.400  13.754   7.013
 6825SOL    HW222315  10.398  13.865   6.910
 6826SOL     OW22316   4.271  12.058   5.478
 6826SOL    HW122317   4.336  12.062   5.549
 6826SOL    HW222318   4.248  12.149   5.462
 6827SOL     OW22319  10.856   9.186   8.977
 6827SOL    HW122320  10.871   9.098   8.944
 6827SOL    HW222321  10.779   9.179   9.033
 6828SOL     OW22322   8.020  11.383   6.083
 6828SOL    HW122323   7.939  11.346   6.118
 6828SOL    HW222324   8.090  11.335   6.127
 6829SOL     OW22325  13.252  13.461   6.136
 6829SOL    HW122326  13.264  13.555   6.127
 6829SOL    HW222327  13.233  13.430   6.047
 6830SOL     OW22328  11.725   5.625   1.445
 6830SOL    HW122329  11.656   5.672   1.398
 6830SOL    HW222330  11.679   5.557   1.494
 6831SOL     OW22331   9.367  14.878  12.025
 6831SOL    HW122332   9.377   0.090  12.009
 6831SOL    HW222333   9.408  14.864  12.110
 6832SOL     OW22334   8.308   7.586  10.157
 6832SOL    HW122335   8.268   7.502  10.134
 6832SOL    HW222336   8.384   7.561  10.209
 6833SOL     OW22337   5.072  11.371   2.434
 6833SOL    HW122338   5.047  11.447   2.486
 6833SOL    HW222339   5.082  11.300   2.497
 6834SOL     OW22340   8.560  14.599   4.433
 6834SOL    HW122341   8.481  14.585   4.381
 6834SOL    HW222342   8.560  14.528   4.496
 6835SOL     OW22343  11.200  10.908   5.146
 6835SOL    HW122344  11.136  10.837   5.144
 6835SOL    HW222345  11.148  10.988   5.151
 6836SOL     OW22346   7.768   0.341  10.996
 6836SOL    HW122347   7.740   0.307  10.912
 6836SOL    HW222348   7.826   0.273  11.031
 6837SOL     OW22349  11.915   2.258   8.219
 6837SOL    HW122350  11.857   2.182   8.226
 6837SOL    HW222351  11.983   2.231   8.158
 6838SOL     OW22352  11.221   5.461   2.977
 6838SOL    HW122353  11.298   5.421   2.936
 6838SOL    HW222354  11.198   5.402   3.048
 6839SOL     OW22355  14.743   4.444   5.094
 6839SOL    HW122356  14.725   4.405   5.008
 6839SOL    HW222357  14.773   4.533   5.075
 6840SOL     OW22358   2.398  10.700   8.936
 6840SOL    HW122359   2.482  10.744   8.922
 6840SOL    HW222360   2.419  10.607   8.936
 6841SOL     OW22361  13.661   3.042  10.253
 6841SOL    HW122362  13.747   3.002  10.237
 6841SOL    HW222363  13.599   2.982  10.213
 6842SOL     OW22364   8.886   1.677  11.363
 6842SOL    HW122365   8.837   1.759  11.361
 6842SOL    HW222366   8.884   1.645  11.273
 6843SOL     OW22367  13.823   3.314  12.810
 6843SOL    HW122368  13.900   3.313  12.867
 6843SOL    HW222369  13.760   3.256  12.852
 6844SOL     OW22370   6.746  11.029  13.366
 6844SOL    HW122371   6.741  10.938  13.335
 6844SOL    HW222372   6.718  11.081  13.291
 6845SOL     OW22373  12.761  14.874  10.080
 6845SOL    HW122374  12.695  14.808  10.098
 6845SOL    HW222375  12.716   0.076  10.090
 6846SOL     OW22376   4.219   9.806   7.891
 6846SOL    HW122377   4.157   9.743   7.927
 6846SOL    HW222378   4.257   9.762   7.815
 6847SOL     OW22379  11.520  10.589   0.415
 6847SOL    HW122380  11.597  10.612   0.363
 6847SOL    HW222381  11.526  10.644   0.493
 6848SOL     OW22382   0.023   3.599  10.724
 6848SOL    HW122383  14.821   3.634  10.695
 6848SOL    HW222384   0.004   3.509  10.751
 6849SOL     OW22385   6.109   7.035   3.796
 6849SOL    HW122386   6.092   7.059   3.887
 6849SOL    HW222387   6.031   6.986   3.769
 6850SOL     OW22388  13.130   2.787  14.346
 6850SOL    HW122389  13.201   2.827  14.395
 6850SOL    HW222390  13.053   2.837  14.369
 6851SOL     OW22391   4.595   1.013   0.028
 6851SOL    HW122392   4.580   0.928  14.868
 6851SOL    HW222393   4.665   0.997   0.091
 6852SOL     OW22394   6.362   4.067   4.056
 6852SOL    HW122395   6.441   4.045   4.105
 6852SOL    HW222396   6.376   4.158   4.028
 6853SOL     OW22397   5.445   5.518   2.649
 6853SOL    HW122398   5.354   5.490   2.653
 6853SOL    HW222399   5.443   5.597   2.594
 6854SOL     OW22400  10.017   3.145   0.973
 6854SOL    HW122401  10.003   3.212   1.040
 6854SOL    HW222402   9.992   3.063   1.015
 6855SOL     OW22403   4.160  10.929   7.240
 6855SOL    HW122404   4.151  10.835   7.260
 6855SOL    HW222405   4.137  10.973   7.321
 6856SOL     OW22406  11.250   1.167   5.307
 6856SOL    HW122407  11.193   1.105   5.351
 6856SOL    HW222408  11.339   1.136   5.327
 6857SOL     OW22409  12.452   2.144   5.455
 6857SOL    HW122410  12.445   2.173   5.364
 6857SOL    HW222411  12.443   2.224   5.507
 6858SOL     OW22412  10.206   4.881   5.325
 6858SOL    HW122413  10.251   4.962   5.299
 6858SOL    HW222414  10.251   4.854   5.405
 6859SOL     OW22415   1.986   7.838  13.793
 6859SOL    HW122416   1.920   7.902  13.767
 6859SOL    HW222417   1.977   7.832  13.888
 6860SOL     OW22418   2.382   7.970  10.383
 6860SOL    HW122419   2.412   8.050  10.340
 6860SOL    HW222420   2.444   7.903  10.355
 6861SOL     OW22421   4.574   6.130  14.781
 6861SOL    HW122422   4.635   6.145  14.709
 6861SOL    HW222423   4.571   6.035  14.791
 6862SOL     OW22424   1.880   1.808   6.172
 6862SOL    HW122425   1.915   1.879   6.226
 6862SOL    HW222426   1.957   1.764   6.137
 6863SOL     OW22427  10.378   4.951  14.191
 6863SOL    HW122428  10.303   4.987  14.239
 6863SOL    HW222429  10.348   4.865  14.162
 6864SOL     OW22430   6.180   8.910   5.918
 6864SOL    HW122431   6.178   8.873   6.007
 6864SOL    HW222432   6.108   8.866   5.872
 6865SOL     OW22433   6.247   6.843   5.682
 6865SOL    HW122434   6.198   6.769   5.719
 6865SOL    HW222435   6.283   6.889   5.758
 6866SOL     OW22436   9.933   6.993  14.161
 6866SOL    HW122437   9.934   6.900  14.140
 6866SOL    HW222438   9.887   6.998  14.245
 6867SOL     OW22439  14.722  10.059   8.682
 6867SOL    HW122440  14.634  10.096   8.682
 6867SOL    HW222441  14.718   9.987   8.745
 6868SOL     OW22442  14.369   2.825   9.034
 6868SOL    HW122443  14.282   2.788   9.050
 6868SOL    HW222444  14.423   2.789   9.104
 6869SOL     OW22445   5.662   6.531  11.858
 6869SOL    HW122446   5.623   6.555  11.942
 6869SOL    HW222447   5.606   6.572  11.792
 6870SOL     OW22448   2.388   9.840   5.504
 6870SOL    HW122449   2.420   9.883   5.424
 6870SOL    HW222450   2.293   9.842   5.496
 6871SOL     OW22451   0.624   4.948   5.058
 6871SOL    HW122452   0.566   4.996   5.117
 6871SOL    HW222453   0.596   4.857   5.067
 6872SOL     OW22454  11.720  12.573   9.389
 6872SOL    HW122455  11.811  12.566   9.362
 6872SOL    HW222456  11.708  12.505   9.455
 6873SOL     OW22457   8.497   6.291   4.112
 6873SOL    HW122458   8.481   6.293   4.206
 6873SOL    HW222459   8.587   6.324   4.102
 6874SOL     OW22460  11.489   3.652  10.344
 6874SOL    HW122461  11.521   3.562  10.354
 6874SOL    HW222462  11.507   3.674  10.253
 6875SOL     OW22463  13.288  12.956   7.057
 6875SOL    HW122464  13.331  13.040   7.075
 6875SOL    HW222465  13.202  12.979   7.023
 6876SOL     OW22466  13.883   9.729   4.488
 6876SOL    HW122467  13.844   9.781   4.559
 6876SOL    HW222468  13.976   9.749   4.492
 6877SOL     OW22469   6.584   8.638   1.669
 6877SOL    HW122470   6.642   8.658   1.741
 6877SOL    HW222471   6.584   8.543   1.663
 6878SOL     OW22472   3.877  11.277   7.733
 6878SOL    HW122473   3.825  11.355   7.716
 6878SOL    HW222474   3.943  11.275   7.663
 6879SOL     OW22475  13.038   2.413   1.107
 6879SOL    HW122476  13.018   2.482   1.044
 6879SOL    HW222477  12.953   2.372   1.125
 6880SOL     OW22478  13.457   4.001   6.902
 6880SOL    HW122479  13.496   4.053   6.972
 6880SOL    HW222480  13.367   4.034   6.894
 6881SOL     OW22481   7.764   4.824   0.106
 6881SOL    HW122482   7.755   4.910   0.064
 6881SOL    HW222483   7.739   4.762   0.038
 6882SOL     OW22484  12.960   8.349   2.591
 6882SOL    HW122485  12.916   8.428   2.622
 6882SOL    HW222486  12.892   8.282   2.594
 6883SOL     OW22487   7.164   1.143  10.763
 6883SOL    HW122488   7.106   1.121  10.691
 6883SOL    HW222489   7.237   1.189  10.722
 6884SOL     OW22490  10.405   7.158   5.620
 6884SOL    HW122491  10.339   7.162   5.551
 6884SOL    HW222492  10.418   7.065   5.636
 6885SOL     OW22493  13.047   9.418   0.802
 6885SOL    HW122494  13.136   9.440   0.775
 6885SOL    HW222495  13.034   9.329   0.771
 6886SOL     OW22496   5.695   0.717  10.048
 6886SOL    HW122497   5.726   0.797  10.089
 6886SOL    HW222498   5.767   0.689   9.992
 6887SOL     OW22499   7.697   1.287   8.770
 6887SOL    HW122500   7.617   1.317   8.814
 6887SOL    HW222501   7.667   1.258   8.684
 6888SOL     OW22502  12.909  12.870   5.137
 6888SOL    HW122503  12.819  12.846   5.156
 6888SOL    HW222504  12.960  12.791   5.153
 6889SOL     OW22505   0.869  12.094   7.939
 6889SOL    HW122506   0.835  12.005   7.940
 6889SOL    HW222507   0.897  12.108   7.849
 6890SOL     OW22508  10.567  13.262  12.469
 6890SOL    HW122509  10.525  13.185  12.507
 6890SOL    HW222510  10.497  13.326  12.461
 6891SOL     OW22511   0.074   6.902  11.870
 6891SOL    HW122512   0.034   6.909  11.783
 6891SOL    HW222513   0.048   6.815  11.901
 6892SOL     OW22514   0.139  11.412  12.718
 6892SOL    HW122515   0.138  11.485  12.779
 6892SOL    HW222516   0.231  11.399  12.697
 6893SOL     OW22517  12.786   5.958   4.059
 6893SOL    HW122518  12.876   5.965   4.090
 6893SOL    HW222519  12.738   6.024   4.109
 6894SOL     OW22520   3.763  12.919  11.779
 6894SOL    HW122521   3.807  12.902  11.695
 6894SOL    HW222522   3.832  12.955  11.834
 6895SOL     OW22523  14.203   9.746   7.124
 6895SOL    HW122524  14.253   9.744   7.205
 6895SOL    HW222525  14.221   9.833   7.087
 6896SOL     OW22526   0.927  10.033   3.081
 6896SOL    HW122527   0.843  10.042   3.037
 6896SOL    HW222528   0.992  10.046   3.011
 6897SOL     OW22529   9.143  11.577  10.832
 6897SOL    HW122530   9.207  11.647  10.820
 6897SOL    HW222531   9.077  11.594  10.765
 6898SOL     OW22532   7.304   2.836   7.358
 6898SOL    HW122533   7.399   2.834   7.347
 6898SOL    HW222534   7.272   2.880   7.279
 6899SOL     OW22535   7.803  12.859   1.205
 6899SOL    HW122536   7.855  12.801   1.150
 6899SOL    HW222537   7.866  12.923   1.238
 6900SOL     OW22538   2.758   3.526  12.343
 6900SOL    HW122539   2.743   3.620  12.354
 6900SOL    HW222540   2.693   3.499  12.278
 6901SOL     OW22541   3.555   3.281  13.451
 6901SOL    HW122542   3.501   3.316  13.522
 6901SOL    HW222543   3.644   3.284  13.484
 6902SOL     OW22544   1.178   0.837   4.644
 6902SOL    HW122545   1.106   0.831   4.707
 6902SOL    HW222546   1.163   0.766   4.583
 6903SOL     OW22547   5.873   3.374  14.493
 6903SOL    HW122548   5.835   3.310  14.432
 6903SOL    HW222549   5.966   3.374  14.472
 6904SOL     OW22550   7.166  13.591   2.557
 6904SOL    HW122551   7.209  13.509   2.580
 6904SOL    HW222552   7.101  13.567   2.491
 6905SOL     OW22553  14.244   3.876  10.117
 6905SOL    HW122554  14.206   3.933  10.184
 6905SOL    HW222555  14.309   3.931  10.074
 6906SOL     OW22556   8.738   9.634   3.764
 6906SOL    HW122557   8.763   9.666   3.851
 6906SOL    HW222558   8.649   9.669   3.752
 6907SOL     OW22559  13.026  11.698  14.295
 6907SOL    HW122560  13.034  11.658  14.208
 6907SOL    HW222561  13.098  11.660  14.346
 6908SOL     OW22562   6.830   7.040  10.249
 6908SOL    HW122563   6.858   6.973  10.186
 6908SOL    HW222564   6.904   7.100  10.254
 6909SOL     OW22565  13.256   7.101   3.017
 6909SOL    HW122566  13.309   7.046   3.075
 6909SOL    HW222567  13.214   7.164   3.076
 6910SOL     OW22568  14.118   2.035   9.536
 6910SOL    HW122569  14.032   2.026   9.577
 6910SOL    HW222570  14.129   1.956   9.483
 6911SOL     OW22571   3.229   1.562  14.376
 6911SOL    HW122572   3.218   1.468  14.359
 6911SOL    HW222573   3.264   1.566  14.465
 6912SOL     OW22574   8.065   1.921   7.274
 6912SOL    HW122575   8.108   1.984   7.331
 6912SOL    HW222576   7.989   1.891   7.324
 6913SOL     OW22577  14.711   4.000  10.895
 6913SOL    HW122578  14.669   4.063  10.954
 6913SOL    HW222579  14.652   3.924  10.896
 6914SOL     OW22580   5.941   6.447   8.089
 6914SOL    HW122581   5.975   6.468   8.176
 6914SOL    HW222582   6.018   6.423   8.038
 6915SOL     OW22583   0.171   2.362  11.176
 6915SOL    HW122584   0.146   2.299  11.109
 6915SOL    HW222585   0.137   2.325  11.258
 6916SOL     OW22586  13.373  14.400   6.826
 6916SOL    HW122587  13.362  14.346   6.748
 6916SOL    HW222588  13.467  14.399   6.843
 6917SOL     OW22589   6.700   7.684   3.170
 6917SOL    HW122590   6.685   7.705   3.262
 6917SOL    HW222591   6.689   7.589   3.165
 6918SOL     OW22592   0.345  11.422  14.424
 6918SOL    HW122593   0.316  11.366  14.353
 6918SOL    HW222594   0.332  11.511  14.392
 6919SOL     OW22595  10.901   2.025   4.693
 6919SOL    HW122596  10.995   2.034   4.711
 6919SOL    HW222597  10.867   1.977   4.768
 6920SOL     OW22598   1.113   7.125  14.008
 6920SOL    HW122599   1.155   7.135  14.093
 6920SOL    HW222600   1.032   7.176  14.015
 6921SOL     OW22601   8.984   4.064   9.030
 6921SOL    HW122602   9.023   4.057   8.943
 6921SOL    HW222603   9.049   4.113   9.081
 6922SOL     OW22604  10.595  11.002   6.866
 6922SOL    HW122605  10.626  10.942   6.798
 6922SOL    HW222606  10.675  11.043   6.899
 6923SOL     OW22607   3.372   2.717   3.665
 6923SOL    HW122608   3.394   2.807   3.644
 6923SOL    HW222609   3.277   2.718   3.679
 6924SOL     OW22610   8.630   1.043  10.567
 6924SOL    HW122611   8.702   1.097  10.535
 6924SOL    HW222612   8.560   1.105  10.587
 6925SOL     OW22613  12.921   4.341  10.546
 6925SOL    HW122614  12.948   4.250  10.554
 6925SOL    HW222615  12.829   4.342  10.571
 6926SOL     OW22616  10.357   6.019   3.398
 6926SOL    HW122617  10.370   5.928   3.425
 6926SOL    HW222618  10.276   6.018   3.348
 6927SOL     OW22619   2.140  14.230   2.955
 6927SOL    HW122620   2.166  14.137   2.958
 6927SOL    HW222621   2.128  14.254   3.046
 6928SOL     OW22622   5.614  12.103   2.800
 6928SOL    HW122623   5.698  12.059   2.789
 6928SOL    HW222624   5.575  12.103   2.712
 6929SOL     OW22625   4.612   7.236   3.191
 6929SOL    HW122626   4.568   7.306   3.143
 6929SOL    HW222627   4.699   7.232   3.152
 6930SOL     OW22628   0.373  12.735   4.668
 6930SOL    HW122629   0.424  12.808   4.634
 6930SOL    HW222630   0.282  12.756   4.646
 6931SOL     OW22631  13.540   9.730  13.463
 6931SOL    HW122632  13.499   9.740  13.549
 6931SOL    HW222633  13.570   9.819  13.442
 6932SOL     OW22634   6.898   3.092  12.340
 6932SOL    HW122635   6.964   3.026  12.321
 6932SOL    HW222636   6.918   3.165  12.282
 6933SOL     OW22637  11.790  11.739  12.644
 6933SOL    HW122638  11.753  11.674  12.704
 6933SOL    HW222639  11.727  11.742  12.572
 6934SOL     OW22640   4.850   1.606  14.737
 6934SOL    HW122641   4.901   1.573  14.663
 6934SOL    HW222642   4.779   1.656  14.697
 6935SOL     OW22643   4.031  10.140   9.130
 6935SOL    HW122644   4.113  10.092   9.118
 6935SOL    HW222645   3.981  10.088   9.193
 6936SOL     OW22646   9.765  14.862   6.284
 6936SOL    HW122647   9.821   0.023   6.220
 6936SOL    HW222648   9.700  14.816   6.231
 6937SOL     OW22649  10.425  10.648   1.474
 6937SOL    HW122650  10.389  10.561   1.461
 6937SOL    HW222651  10.359  10.708   1.439
 6938SOL     OW22652   5.804  13.034  12.843
 6938SOL    HW122653   5.790  12.940  12.856
 6938SOL    HW222654   5.716  13.069  12.827
 6939SOL     OW22655  14.543   9.148  10.153
 6939SOL    HW122656  14.509   9.179  10.237
 6939SOL    HW222657  14.578   9.061  10.172
 6940SOL     OW22658   1.039   4.056  10.643
 6940SOL    HW122659   1.026   4.012  10.727
 6940SOL    HW222660   1.105   4.123  10.661
 6941SOL     OW22661  10.315   1.555  11.913
 6941SOL    HW122662  10.244   1.570  11.976
 6941SOL    HW222663  10.303   1.624  11.847
 6942SOL     OW22664   8.662   0.900   9.460
 6942SOL    HW122665   8.678   0.839   9.532
 6942SOL    HW222666   8.672   0.847   9.381
 6943SOL     OW22667   9.763  12.894   6.929
 6943SOL    HW122668   9.760  12.822   6.992
 6943SOL    HW222669   9.842  12.877   6.877
 6944SOL     OW22670   2.534   4.253  12.728
 6944SOL    HW122671   2.468   4.225  12.665
 6944SOL    HW222672   2.605   4.288  12.674
 6945SOL     OW22673   8.066  13.283  13.099
 6945SOL    HW122674   8.038  13.341  13.029
 6945SOL    HW222675   7.985  13.246  13.134
 6946SOL     OW22676   7.030   9.499   9.210
 6946SOL    HW122677   6.965   9.495   9.279
 6946SOL    HW222678   7.044   9.407   9.185
 6947SOL     OW22679   2.657  12.074   0.216
 6947SOL    HW122680   2.645  12.024   0.296
 6947SOL    HW222681   2.631  12.014   0.146
 6948SOL     OW22682  10.591   2.399   1.902
 6948SOL    HW122683  10.563   2.341   1.831
 6948SOL    HW222684  10.511   2.421   1.948
 6949SOL     OW22685   6.819   3.632   7.456
 6949SOL    HW122686   6.824   3.711   7.403
 6949SOL    HW222687   6.910   3.611   7.477
 6950SOL     OW22688  12.794  10.357   3.792
 6950SOL    HW122689  12.816  10.290   3.857
 6950SOL    HW222690  12.840  10.329   3.712
 6951SOL     OW22691   1.802  12.820   4.000
 6951SOL    HW122692   1.882  12.845   3.954
 6951SOL    HW222693   1.773  12.740   3.957
 6952SOL     OW22694   3.188   8.387   7.916
 6952SOL    HW122695   3.212   8.460   7.972
 6952SOL    HW222696   3.220   8.309   7.963
 6953SOL     OW22697   6.593   4.787  14.558
 6953SOL    HW122698   6.519   4.847  14.572
 6953SOL    HW222699   6.637   4.821  14.480
 6954SOL     OW22700   2.214  14.547  12.964
 6954SOL    HW122701   2.156  14.491  12.911
 6954SOL    HW222702   2.285  14.571  12.905
 6955SOL     OW22703   8.770  11.066  13.550
 6955SOL    HW122704   8.806  10.977  13.556
 6955SOL    HW222705   8.806  11.112  13.626
 6956SOL     OW22706   1.257   7.693   5.138
 6956SOL    HW122707   1.328   7.715   5.198
 6956SOL    HW222708   1.256   7.764   5.074
 6957SOL     OW22709   1.985  14.624  10.991
 6957SOL    HW122710   2.004  14.625  10.897
 6957SOL    HW222711   2.056  14.676  11.030
 6958SOL     OW22712   2.384   2.403   2.817
 6958SOL    HW122713   2.367   2.317   2.855
 6958SOL    HW222714   2.429   2.451   2.886
 6959SOL     OW22715   2.012   1.733   1.124
 6959SOL    HW122716   1.942   1.767   1.068
 6959SOL    HW222717   2.000   1.779   1.207
 6960SOL     OW22718  10.535  10.205   0.033
 6960SOL    HW122719  10.511  10.229   0.123
 6960SOL    HW222720  10.478  10.258  14.860
 6961SOL     OW22721  10.521   4.722   2.093
 6961SOL    HW122722  10.563   4.798   2.133
 6961SOL    HW222723  10.582   4.650   2.109
 6962SOL     OW22724   1.499   2.841   3.862
 6962SOL    HW122725   1.568   2.906   3.851
 6962SOL    HW222726   1.517   2.802   3.948
 6963SOL     OW22727   1.302  14.163  11.716
 6963SOL    HW122728   1.310  14.191  11.807
 6963SOL    HW222729   1.392  14.152  11.686
 6964SOL     OW22730   4.953   4.027   5.292
 6964SOL    HW122731   4.976   4.032   5.384
 6964SOL    HW222732   4.915   4.113   5.271
 6965SOL     OW22733   1.517   4.647   9.116
 6965SOL    HW122734   1.582   4.645   9.045
 6965SOL    HW222735   1.550   4.713   9.176
 6966SOL     OW22736   2.411   3.847   3.797
 6966SOL    HW122737   2.464   3.768   3.784
 6966SOL    HW222738   2.469   3.907   3.844
 6967SOL     OW22739  11.963   2.275   3.098
 6967SOL    HW122740  12.049   2.309   3.076
 6967SOL    HW222741  11.924   2.342   3.154
 6968SOL     OW22742   3.339   6.169   4.274
 6968SOL    HW122743   3.413   6.223   4.302
 6968SOL    HW222744   3.377   6.102   4.218
 6969SOL     OW22745  11.108   7.751   6.403
 6969SOL    HW122746  11.077   7.830   6.359
 6969SOL    HW222747  11.057   7.745   6.483
 6970SOL     OW22748   5.080   0.588   0.623
 6970SOL    HW122749   5.053   0.574   0.532
 6970SOL    HW222750   5.039   0.671   0.648
 6971SOL     OW22751  12.987   4.503   1.650
 6971SOL    HW122752  13.072   4.512   1.606
 6971SOL    HW222753  12.976   4.409   1.661
 6972SOL     OW22754   2.553   9.426  13.104
 6972SOL    HW122755   2.526   9.446  13.014
 6972SOL    HW222756   2.595   9.507  13.134
 6973SOL     OW22757   0.895   6.268   6.430
 6973SOL    HW122758   0.900   6.278   6.335
 6973SOL    HW222759   0.812   6.224   6.445
 6974SOL     OW22760   5.990   6.794   0.857
 6974SOL    HW122761   5.979   6.701   0.837
 6974SOL    HW222762   6.035   6.830   0.780
 6975SOL     OW22763   9.756   7.896   1.131
 6975SOL    HW122764   9.850   7.895   1.146
 6975SOL    HW222765   9.724   7.814   1.169
 6976SOL     OW22766   1.307   8.759  13.838
 6976SOL    HW122767   1.304   8.713  13.753
 6976SOL    HW222768   1.216   8.779  13.858
 6977SOL     OW22769   4.212   3.701  13.547
 6977SOL    HW122770   4.286   3.701  13.487
 6977SOL    HW222771   4.193   3.794  13.562
 6978SOL     OW22772   4.951   2.716   7.295
 6978SOL    HW122773   5.038   2.752   7.314
 6978SOL    HW222774   4.905   2.788   7.251
 6979SOL     OW22775   9.674   1.347   9.385
 6979SOL    HW122776   9.635   1.419   9.335
 6979SOL    HW222777   9.726   1.299   9.321
 6980SOL     OW22778   4.251   2.887   9.741
 6980SOL    HW122779   4.303   2.807   9.753
 6980SOL    HW222780   4.167   2.856   9.708
 6981SOL     OW22781  13.330   1.382   9.049
 6981SOL    HW122782  13.317   1.464   9.096
 6981SOL    HW222783  13.412   1.394   9.001
 6982SOL     OW22784   1.693  14.360   8.138
 6982SOL    HW122785   1.672  14.449   8.110
 6982SOL    HW222786   1.712  14.368   8.232
 6983SOL     OW22787   9.255  10.544   2.792
 6983SOL    HW122788   9.341  10.551   2.751
 6983SOL    HW222789   9.225  10.456   2.772
 6984SOL     OW22790   7.078   4.253   6.683
 6984SOL    HW122791   7.077   4.249   6.587
 6984SOL    HW222792   7.015   4.322   6.704
 6985SOL     OW22793  13.261  13.714  12.444
 6985SOL    HW122794  13.230  13.657  12.374
 6985SOL    HW222795  13.288  13.654  12.514
 6986SOL     OW22796   4.945   5.308   1.768
 6986SOL    HW122797   4.944   5.258   1.687
 6986SOL    HW222798   4.942   5.242   1.837
 6987SOL     OW22799   5.907   2.983   4.418
 6987SOL    HW122800   5.947   2.897   4.406
 6987SOL    HW222801   5.938   3.012   4.504
 6988SOL     OW22802  11.803  10.682  11.292
 6988SOL    HW122803  11.871  10.616  11.286
 6988SOL    HW222804  11.824  10.731  11.371
 6989SOL     OW22805   7.085  12.136  12.240
 6989SOL    HW122806   7.132  12.075  12.297
 6989SOL    HW222807   6.994  12.132  12.271
 6990SOL     OW22808  13.976  14.851   9.612
 6990SOL    HW122809  14.006   0.002   9.696
 6990SOL    HW222810  13.916   0.036   9.580
 6991SOL     OW22811   3.058  11.872   4.028
 6991SOL    HW122812   3.065  11.834   4.115
 6991SOL    HW222813   3.146  11.902   4.008
 6992SOL     OW22814   5.209  13.997   0.788
 6992SOL    HW122815   5.201  13.954   0.873
 6992SOL    HW222816   5.223  13.926   0.726
 6993SOL     OW22817   0.890   5.768  13.783
 6993SOL    HW122818   0.859   5.685  13.819
 6993SOL    HW222819   0.981   5.751  13.758
 6994SOL     OW22820   9.596   3.330   9.679
 6994SOL    HW122821   9.544   3.409   9.690
 6994SOL    HW222822   9.676   3.360   9.635
 6995SOL     OW22823   0.710   2.763  10.360
 6995SOL    HW122824   0.795   2.747  10.401
 6995SOL    HW222825   0.714   2.854  10.331
 6996SOL     OW22826  12.450   4.730   6.917
 6996SOL    HW122827  12.504   4.658   6.949
 6996SOL    HW222828  12.511   4.803   6.906
 6997SOL     OW22829   2.050   6.173  14.726
 6997SOL    HW122830   2.105   6.250  14.719
 6997SOL    HW222831   1.981   6.186  14.661
 6998SOL     OW22832   3.234   5.353   5.045
 6998SOL    HW122833   3.224   5.319   5.134
 6998SOL    HW222834   3.324   5.384   5.041
 6999SOL     OW22835  12.738   4.221  12.252
 6999SOL    HW122836  12.713   4.313  12.257
 6999SOL    HW222837  12.788   4.205  12.332
 7000SOL     OW22838   8.432  11.952   8.705
 7000SOL    HW122839   8.496  11.904   8.758
 7000SOL    HW222840   8.379  11.885   8.663
 7001SOL     OW22841   4.273   9.528  12.934
 7001SOL    HW122842   4.240   9.614  12.909
 7001SOL    HW222843   4.368   9.534  12.920
 7002SOL     OW22844  11.118   7.532   4.633
 7002SOL    HW122845  11.185   7.553   4.567
 7002SOL    HW222846  11.167   7.503   4.709
 7003SOL     OW22847  13.725   4.062  10.973
 7003SOL    HW122848  13.682   4.041  10.891
 7003SOL    HW222849  13.814   4.028  10.963
 7004SOL     OW22850   5.356  13.030  13.762
 7004SOL    HW122851   5.419  13.080  13.709
 7004SOL    HW222852   5.411  12.977  13.820
 7005SOL     OW22853   1.353  14.393  11.893
 7005SOL    HW122854   1.302  14.332  11.946
 7005SOL    HW222855   1.348  14.476  11.941
 7006SOL     OW22856   7.611   8.256   5.907
 7006SOL    HW122857   7.603   8.335   5.961
 7006SOL    HW222858   7.523   8.221   5.902
 7007SOL     OW22859   9.420  12.731   2.591
 7007SOL    HW122860   9.350  12.666   2.581
 7007SOL    HW222861   9.446  12.723   2.683
 7008SOL     OW22862   4.765  11.191  14.009
 7008SOL    HW122863   4.818  11.112  14.021
 7008SOL    HW222864   4.753  11.225  14.098
 7009SOL     OW22865  13.962   1.398  13.511
 7009SOL    HW122866  14.023   1.333  13.546
 7009SOL    HW222867  13.881   1.350  13.497
 7010SOL     OW22868  12.230   1.703   6.272
 7010SOL    HW122869  12.186   1.618   6.281
 7010SOL    HW222870  12.310   1.695   6.324
 7011SOL     OW22871   1.835   1.320   8.042
 7011SOL    HW122872   1.828   1.320   8.138
 7011SOL    HW222873   1.916   1.367   8.024
 7012SOL     OW22874   0.260   7.868   9.489
 7012SOL    HW122875   0.198   7.884   9.561
 7012SOL    HW222876   0.245   7.777   9.464
 7013SOL     OW22877  10.194   2.059   6.981
 7013SOL    HW122878  10.231   2.030   7.064
 7013SOL    HW222879  10.222   2.150   6.972
 7014SOL     OW22880   4.741  10.565   0.609
 7014SOL    HW122881   4.705  10.649   0.639
 7014SOL    HW222882   4.804  10.589   0.541
 7015SOL     OW22883  12.973  13.786   6.515
 7015SOL    HW122884  12.981  13.764   6.423
 7015SOL    HW222885  12.884  13.819   6.524
 7016SOL     OW22886   0.506  12.487   6.098
 7016SOL    HW122887   0.482  12.548   6.168
 7016SOL    HW222888   0.587  12.445   6.130
 7017SOL     OW22889   9.928  13.527   8.207
 7017SOL    HW122890   9.916  13.506   8.299
 7017SOL    HW222891   9.987  13.603   8.207
 7018SOL     OW22892   2.891   7.250   7.211
 7018SOL    HW122893   2.921   7.292   7.291
 7018SOL    HW222894   2.878   7.158   7.235
 7019SOL     OW22895   3.713  14.267   2.207
 7019SOL    HW122896   3.677  14.178   2.207
 7019SOL    HW222897   3.802  14.257   2.175
 7020SOL     OW22898   6.292  12.569   6.051
 7020SOL    HW122899   6.196  12.560   6.054
 7020SOL    HW222900   6.312  12.580   5.958
 7021SOL     OW22901  14.248  12.262   4.789
 7021SOL    HW122902  14.166  12.302   4.817
 7021SOL    HW222903  14.316  12.310   4.837
 7022SOL     OW22904   5.515   4.894   6.822
 7022SOL    HW122905   5.558   4.973   6.789
 7022SOL    HW222906   5.530   4.897   6.917
 7023SOL     OW22907   8.480   9.242  13.036
 7023SOL    HW122908   8.569   9.261  13.067
 7023SOL    HW222909   8.435   9.327  13.039
 7024SOL     OW22910  14.344   0.859   2.979
 7024SOL    HW122911  14.322   0.820   3.064
 7024SOL    HW222912  14.303   0.801   2.915
 7025SOL     OW22913   2.008   1.766   2.058
 7025SOL    HW122914   2.086   1.711   2.063
 7025SOL    HW222915   1.985   1.765   1.965
 7026SOL     OW22916   0.272  12.968   0.816
 7026SOL    HW122917   0.366  12.950   0.808
 7026SOL    HW222918   0.248  12.929   0.900
 7027SOL     OW22919  11.685  11.362   8.823
 7027SOL    HW122920  11.606  11.405   8.791
 7027SOL    HW222921  11.701  11.291   8.760
 7028SOL     OW22922   9.050   4.275   1.127
 7028SOL    HW122923   9.003   4.287   1.209
 7028SOL    HW222924   9.007   4.200   1.086
 7029SOL     OW22925   0.497   2.994  10.729
 7029SOL    HW122926   0.593   2.997  10.723
 7029SOL    HW222927   0.477   2.901  10.733
 7030SOL     OW22928   5.863  12.675   9.359
 7030SOL    HW122929   5.923  12.695   9.432
 7030SOL    HW222930   5.878  12.745   9.296
 7031SOL     OW22931   9.043   5.652   3.060
 7031SOL    HW122932   9.088   5.633   3.141
 7031SOL    HW222933   8.975   5.715   3.084
 7032SOL     OW22934   1.270   5.135   1.667
 7032SOL    HW122935   1.240   5.047   1.689
 7032SOL    HW222936   1.217   5.193   1.721
 7033SOL     OW22937   0.542   1.196  13.291
 7033SOL    HW122938   0.599   1.129  13.254
 7033SOL    HW222939   0.566   1.201  13.383
 7034SOL     OW22940   3.706   6.871  14.733
 7034SOL    HW122941   3.724   6.777  14.740
 7034SOL    HW222942   3.792   6.910  14.719
 7035SOL     OW22943  12.900   4.428  11.363
 7035SOL    HW122944  12.838   4.368  11.322
 7035SOL    HW222945  12.849   4.475  11.429
 7036SOL     OW22946   2.266   6.455   6.366
 7036SOL    HW122947   2.283   6.422   6.454
 7036SOL    HW222948   2.171   6.456   6.359
 7037SOL     OW22949  12.846   2.566  13.826
 7037SOL    HW122950  12.870   2.593  13.737
 7037SOL    HW222951  12.891   2.482  13.838
 7038SOL     OW22952   5.486   1.607   2.250
 7038SOL    HW122953   5.482   1.655   2.167
 7038SOL    HW222954   5.484   1.515   2.225
 7039SOL     OW22955   7.537   5.390   3.537
 7039SOL    HW122956   7.583   5.403   3.454
 7039SOL    HW222957   7.480   5.466   3.546
 7040SOL     OW22958   7.485   6.783   2.840
 7040SOL    HW122959   7.425   6.834   2.894
 7040SOL    HW222960   7.560   6.841   2.825
 7041SOL     OW22961   2.940  12.633  14.713
 7041SOL    HW122962   2.965  12.564  14.651
 7041SOL    HW222963   2.940  12.589  14.798
 7042SOL     OW22964   5.438  14.343   2.740
 7042SOL    HW122965   5.362  14.353   2.798
 7042SOL    HW222966   5.424  14.408   2.672
 7043SOL     OW22967   3.433   8.078  13.761
 7043SOL    HW122968   3.352   8.126  13.781
 7043SOL    HW222969   3.494   8.145  13.731
 7044SOL     OW22970   0.303  10.262   7.417
 7044SOL    HW122971   0.393  10.263   7.384
 7044SOL    HW222972   0.288  10.351   7.450
 7045SOL     OW22973  13.604  13.637   2.006
 7045SOL    HW122974  13.626  13.727   1.984
 7045SOL    HW222975  13.646  13.623   2.092
 7046SOL     OW22976   5.377   4.801   9.881
 7046SOL    HW122977   5.430   4.755   9.946
 7046SOL    HW222978   5.329   4.867   9.930
 7047SOL     OW22979   7.746  10.681   5.930
 7047SOL    HW122980   7.751  10.776   5.941
 7047SOL    HW222981   7.776  10.665   5.841
 7048SOL     OW22982  10.337  11.375  11.561
 7048SOL    HW122983  10.343  11.295  11.615
 7048SOL    HW222984  10.383  11.441  11.612
 7049SOL     OW22985   2.811   2.435  13.111
 7049SOL    HW122986   2.851   2.405  13.193
 7049SOL    HW222987   2.797   2.528  13.124
 7050SOL     OW22988  14.058   4.439   4.664
 7050SOL    HW122989  14.002   4.494   4.609
 7050SOL    HW222990  13.998   4.396   4.725
 7051SOL     OW22991   8.265  10.901  10.901
 7051SOL    HW122992   8.289  10.970  10.839
 7051SOL    HW222993   8.258  10.946  10.985
 7052SOL     OW22994   4.662   9.157   5.159
 7052SOL    HW122995   4.727   9.135   5.092
 7052SOL    HW222996   4.580   9.165   5.111
 7053SOL     OW22997   3.754   3.769   3.718
 7053SOL    HW122998   3.732   3.862   3.707
 7053SOL    HW222999   3.836   3.758   3.671
 7054SOL     OW23000   3.204   1.441   4.548
 7054SOL    HW123001   3.237   1.529   4.568
 7054SOL    HW223002   3.112   1.443   4.575
 7055SOL     OW23003   2.463   7.517  14.296
 7055SOL    HW123004   2.432   7.603  14.268
 7055SOL    HW223005   2.433   7.508  14.386
 7056SOL     OW23006  14.388   6.278   5.404
 7056SOL    HW123007  14.417   6.259   5.315
 7056SOL    HW223008  14.460   6.246   5.460
 7057SOL     OW23009   5.753   7.227   2.242
 7057SOL    HW123010   5.803   7.262   2.168
 7057SOL    HW223011   5.732   7.304   2.295
 7058SOL     OW23012   2.124   8.478   5.410
 7058SOL    HW123013   2.174   8.556   5.437
 7058SOL    HW223014   2.035   8.495   5.441
 7059SOL     OW23015   2.119   9.145  10.595
 7059SOL    HW123016   2.036   9.179  10.562
 7059SOL    HW223017   2.179   9.220  10.589
 7060SOL     OW23018   8.508   9.986   6.158
 7060SOL    HW123019   8.594   9.997   6.198
 7060SOL    HW223020   8.523   9.924   6.086
 7061SOL     OW23021  13.469   4.891  10.631
 7061SOL    HW123022  13.554   4.913  10.670
 7061SOL    HW223023  13.440   4.814  10.678
 7062SOL     OW23024   4.445   9.973   2.891
 7062SOL    HW123025   4.359   9.934   2.908
 7062SOL    HW223026   4.496   9.902   2.853
 7063SOL     OW23027   0.248   9.484   0.757
 7063SOL    HW123028   0.288   9.567   0.781
 7063SOL    HW223029   0.163   9.484   0.802
 7064SOL     OW23030   0.654   6.561   2.482
 7064SOL    HW123031   0.713   6.488   2.461
 7064SOL    HW223032   0.639   6.605   2.399
 7065SOL     OW23033  14.783   4.489   7.958
 7065SOL    HW123034  14.817   4.568   8.001
 7065SOL    HW223035  14.796   4.419   8.022
 7066SOL     OW23036  11.545  14.435   4.947
 7066SOL    HW123037  11.569  14.524   4.972
 7066SOL    HW223038  11.503  14.399   5.025
 7067SOL     OW23039  11.971   2.491  10.466
 7067SOL    HW123040  11.970   2.396  10.456
 7067SOL    HW223041  12.059   2.518  10.441
 7068SOL     OW23042   1.685   6.798  11.776
 7068SOL    HW123043   1.720   6.869  11.830
 7068SOL    HW223044   1.596   6.785  11.810
 7069SOL     OW23045   0.750   4.985  11.878
 7069SOL    HW123046   0.812   4.918  11.848
 7069SOL    HW223047   0.664   4.950  11.853
 7070SOL     OW23048   4.120   8.040  13.013
 7070SOL    HW123049   4.177   7.962  13.018
 7070SOL    HW223050   4.121   8.076  13.102
 7071SOL     OW23051   5.514  11.189   5.483
 7071SOL    HW123052   5.548  11.206   5.571
 7071SOL    HW223053   5.523  11.273   5.437
 7072SOL     OW23054   7.639   4.542  10.640
 7072SOL    HW123055   7.629   4.584  10.554
 7072SOL    HW223056   7.555   4.556  10.684
 7073SOL     OW23057  10.449   3.014  12.644
 7073SOL    HW123058  10.404   3.004  12.559
 7073SOL    HW223059  10.384   3.054  12.701
 7074SOL     OW23060   9.160  12.740  12.830
 7074SOL    HW123061   9.086  12.726  12.772
 7074SOL    HW223062   9.236  12.746  12.772
 7075SOL     OW23063   0.552   4.724   9.936
 7075SOL    HW123064   0.526   4.641   9.975
 7075SOL    HW223065   0.485   4.742   9.870
 7076SOL     OW23066   6.858  10.738   4.193
 7076SOL    HW123067   6.775  10.691   4.193
 7076SOL    HW223068   6.921  10.675   4.227
 7077SOL     OW23069   5.437   8.358   6.763
 7077SOL    HW123070   5.489   8.279   6.757
 7077SOL    HW223071   5.417   8.366   6.857
 7078SOL     OW23072  13.742   6.298   1.634
 7078SOL    HW123073  13.812   6.263   1.689
 7078SOL    HW223074  13.773   6.284   1.545
 7079SOL     OW23075   7.899   4.653  12.934
 7079SOL    HW123076   7.806   4.671  12.925
 7079SOL    HW223077   7.913   4.572  12.885
 7080SOL     OW23078   7.763  12.237   2.794
 7080SOL    HW123079   7.857  12.245   2.775
 7080SOL    HW223080   7.727  12.199   2.714
 7081SOL     OW23081   4.714   7.343   0.173
 7081SOL    HW123082   4.632   7.355   0.220
 7081SOL    HW223083   4.695   7.276   0.107
 7082SOL     OW23084  11.371   2.905   3.002
 7082SOL    HW123085  11.378   2.811   3.015
 7082SOL    HW223086  11.369   2.942   3.090
 7083SOL     OW23087   1.882   3.852  14.398
 7083SOL    HW123088   1.881   3.782  14.333
 7083SOL    HW223089   1.883   3.932  14.347
 7084SOL     OW23090   7.375   1.285   8.031
 7084SOL    HW123091   7.348   1.312   7.943
 7084SOL    HW223092   7.408   1.196   8.019
 7085SOL     OW23093   2.221   2.577  14.740
 7085SOL    HW123094   2.304   2.555  14.699
 7085SOL    HW223095   2.174   2.629  14.674
 7086SOL     OW23096   4.874  14.113   6.232
 7086SOL    HW123097   4.884  14.108   6.137
 7086SOL    HW223098   4.785  14.081   6.249
 7087SOL     OW23099  11.118   5.268   9.092
 7087SOL    HW123100  11.079   5.182   9.111
 7087SOL    HW223101  11.052   5.314   9.041
 7088SOL     OW23102   1.496   5.755   4.943
 7088SOL    HW123103   1.424   5.695   4.922
 7088SOL    HW223104   1.456   5.841   4.948
 7089SOL     OW23105   4.736   1.705  11.630
 7089SOL    HW123106   4.652   1.727  11.669
 7089SOL    HW223107   4.781   1.652  11.696
 7090SOL     OW23108   0.872   6.784  13.231
 7090SOL    HW123109   0.792   6.740  13.259
 7090SOL    HW223110   0.942   6.737  13.277
 7091SOL     OW23111  12.248  14.838   4.176
 7091SOL    HW123112  12.338  14.810   4.160
 7091SOL    HW223113  12.256   0.046   4.207
 7092SOL     OW23114   5.993  14.764  13.609
 7092SOL    HW123115   5.951  14.762  13.522
 7092SOL    HW223116   5.920  14.777  13.670
 7093SOL     OW23117  13.938  14.549   7.475
 7093SOL    HW123118  13.910  14.533   7.385
 7093SOL    HW223119  13.877  14.499   7.529
 7094SOL     OW23120  11.616  11.024  13.838
 7094SOL    HW123121  11.672  10.971  13.895
 7094SOL    HW223122  11.672  11.097  13.811
 7095SOL     OW23123   5.840   6.662  13.666
 7095SOL    HW123124   5.815   6.727  13.732
 7095SOL    HW223125   5.928   6.634  13.692
 7096SOL     OW23126   5.265   9.910  11.809
 7096SOL    HW123127   5.222   9.886  11.727
 7096SOL    HW223128   5.263   9.831  11.862
 7097SOL     OW23129   8.740   2.787   5.159
 7097SOL    HW123130   8.781   2.853   5.104
 7097SOL    HW223131   8.695   2.729   5.098
 7098SOL     OW23132   7.231   6.019  11.169
 7098SOL    HW123133   7.219   5.979  11.083
 7098SOL    HW223134   7.289   6.094  11.153
 7099SOL     OW23135   3.064   7.426   3.394
 7099SOL    HW123136   3.015   7.430   3.476
 7099SOL    HW223137   3.142   7.480   3.409
 7100SOL     OW23138   4.659  11.679  14.511
 7100SOL    HW123139   4.753  11.680  14.526
 7100SOL    HW223140   4.635  11.587  14.513
 7101SOL     OW23141  13.793   2.868  10.057
 7101SOL    HW123142  13.802   2.877   9.962
 7101SOL    HW223143  13.707   2.829  10.070
 7102SOL     OW23144   3.349  13.617   4.398
 7102SOL    HW123145   3.311  13.540   4.441
 7102SOL    HW223146   3.348  13.594   4.305
 7103SOL     OW23147  10.240   7.971   2.318
 7103SOL    HW123148  10.300   8.005   2.384
 7103SOL    HW223149  10.208   7.889   2.355
 7104SOL     OW23150   8.012   2.822   8.481
 7104SOL    HW123151   8.057   2.905   8.470
 7104SOL    HW223152   7.956   2.815   8.403
 7105SOL     OW23153   5.812   8.096   7.473
 7105SOL    HW123154   5.774   8.054   7.396
 7105SOL    HW223155   5.907   8.090   7.459
 7106SOL     OW23156   4.525  11.317  12.006
 7106SOL    HW123157   4.435  11.296  11.980
 7106SOL    HW223158   4.561  11.235  12.037
 7107SOL     OW23159   1.113   5.259   0.974
 7107SOL    HW123160   1.127   5.207   1.054
 7107SOL    HW223161   1.018   5.269   0.968
 7108SOL     OW23162   3.929  10.435   0.403
 7108SOL    HW123163   3.966  10.499   0.464
 7108SOL    HW223164   3.997  10.423   0.336
 7109SOL     OW23165  12.790   1.175  10.301
 7109SOL    HW123166  12.757   1.096  10.258
 7109SOL    HW223167  12.739   1.246  10.265
 7110SOL     OW23168   5.299  13.549   1.603
 7110SOL    HW123169   5.250  13.485   1.654
 7110SOL    HW223170   5.274  13.633   1.639
 7111SOL     OW23171  10.840   1.904   3.424
 7111SOL    HW123172  10.808   1.850   3.352
 7111SOL    HW223173  10.865   1.842   3.492
 7112SOL     OW23174  14.261   6.181  12.098
 7112SOL    HW123175  14.356   6.184  12.102
 7112SOL    HW223176  14.232   6.253  12.154
 7113SOL     OW23177   7.315   3.208   7.060
 7113SOL    HW123178   7.308   3.303   7.052
 7113SOL    HW223179   7.327   3.192   7.154
 7114SOL     OW23180   1.232  13.217   7.557
 7114SOL    HW123181   1.141  13.207   7.528
 7114SOL    HW223182   1.231  13.294   7.613
 7115SOL     OW23183   0.812   8.026  10.195
 7115SOL    HW123184   0.899   8.037  10.231
 7115SOL    HW223185   0.798   8.105  10.142
 7116SOL     OW23186   3.664   4.396  13.037
 7116SOL    HW123187   3.675   4.325  13.101
 7116SOL    HW223188   3.572   4.390  13.010
 7117SOL     OW23189   3.151   2.761   4.658
 7117SOL    HW123190   3.174   2.725   4.744
 7117SOL    HW223191   3.229   2.745   4.604
 7118SOL     OW23192  11.304  12.930  11.444
 7118SOL    HW123193  11.225  12.982  11.458
 7118SOL    HW223194  11.376  12.989  11.468
 7119SOL     OW23195   6.703   5.008   1.924
 7119SOL    HW123196   6.695   4.913   1.909
 7119SOL    HW223197   6.613   5.039   1.929
 7120SOL     OW23198   4.517   5.847  12.916
 7120SOL    HW123199   4.523   5.800  12.999
 7120SOL    HW223200   4.425   5.872  12.910
 7121SOL     OW23201  13.052   7.276   6.866
 7121SOL    HW123202  13.048   7.359   6.819
 7121SOL    HW223203  13.136   7.278   6.913
 7122SOL     OW23204   4.961   6.092   5.801
 7122SOL    HW123205   5.002   6.076   5.715
 7122SOL    HW223206   5.022   6.054   5.864
 7123SOL     OW23207   6.616   6.388   5.941
 7123SOL    HW123208   6.595   6.321   6.006
 7123SOL    HW223209   6.556   6.460   5.962
 7124SOL     OW23210   8.603   1.769   1.193
 7124SOL    HW123211   8.693   1.766   1.160
 7124SOL    HW223212   8.565   1.686   1.165
 7125SOL     OW23213   2.094   1.447   8.372
 7125SOL    HW123214   2.114   1.516   8.308
 7125SOL    HW223215   2.139   1.474   8.451
 7126SOL     OW23216   6.799   9.823   4.393
 7126SOL    HW123217   6.795   9.896   4.454
 7126SOL    HW223218   6.889   9.792   4.397
 7127SOL     OW23219  14.637   7.432   0.028
 7127SOL    HW123220  14.593   7.458  14.829
 7127SOL    HW223221  14.574   7.451   0.097
 7128SOL     OW23222  10.154   4.904   9.836
 7128SOL    HW123223  10.199   4.979   9.797
 7128SOL    HW223224  10.062   4.931   9.840
 7129SOL     OW23225   0.029   8.476   6.277
 7129SOL    HW123226  14.815   8.474   6.281
 7129SOL    HW223227   0.050   8.453   6.187
 7130SOL     OW23228   3.315   7.811  13.871
 7130SOL    HW123229   3.326   7.904  13.891
 7130SOL    HW223230   3.404   7.776  13.868
 7131SOL     OW23231   7.824   7.272   1.459
 7131SOL    HW123232   7.731   7.246   1.457
 7131SOL    HW223233   7.824   7.358   1.501
 7132SOL     OW23234  10.830   5.232  11.984
 7132SOL    HW123235  10.849   5.200  12.073
 7132SOL    HW223236  10.876   5.170  11.927
 7133SOL     OW23237  12.829   3.033  13.923
 7133SOL    HW123238  12.821   3.078  13.839
 7133SOL    HW223239  12.747   2.987  13.934
 7134SOL     OW23240   8.395   0.725   8.915
 7134SOL    HW123241   8.308   0.684   8.920
 7134SOL    HW223242   8.430   0.717   9.004
 7135SOL     OW23243  14.763  12.306   2.573
 7135SOL    HW123244  14.721  12.369   2.631
 7135SOL    HW223245  14.690  12.258   2.533
 7136SOL     OW23246   4.961  12.100   0.285
 7136SOL    HW123247   4.976  12.006   0.296
 7136SOL    HW223248   4.895  12.106   0.216
 7137SOL     OW23249  11.433  11.826  13.903
 7137SOL    HW123250  11.468  11.870  13.980
 7137SOL    HW223251  11.509  11.789  13.859
 7138SOL     OW23252   8.429   7.824  12.729
 7138SOL    HW123253   8.497   7.818  12.797
 7138SOL    HW223254   8.407   7.917  12.726
 7139SOL     OW23255   9.928   3.667   7.661
 7139SOL    HW123256  10.019   3.696   7.666
 7139SOL    HW223257   9.932   3.583   7.616
 7140SOL     OW23258  10.910   1.868   2.271
 7140SOL    HW123259  10.932   1.902   2.184
 7140SOL    HW223260  10.880   1.945   2.319
 7141SOL     OW23261   3.288   7.367  13.383
 7141SOL    HW123262   3.234   7.429  13.334
 7141SOL    HW223263   3.281   7.285  13.334
 7142SOL     OW23264   3.438  14.246  12.659
 7142SOL    HW123265   3.480  14.315  12.710
 7142SOL    HW223266   3.363  14.219  12.711
 7143SOL     OW23267  12.073   9.577   7.726
 7143SOL    HW123268  12.029   9.599   7.808
 7143SOL    HW223269  12.067   9.481   7.721
 7144SOL     OW23270   1.410  11.054  11.815
 7144SOL    HW123271   1.393  11.005  11.895
 7144SOL    HW223272   1.490  11.103  11.834
 7145SOL     OW23273   1.113  13.394   0.110
 7145SOL    HW123274   1.060  13.358   0.038
 7145SOL    HW223275   1.199  13.354   0.098
 7146SOL     OW23276  13.810   6.215   7.837
 7146SOL    HW123277  13.806   6.120   7.832
 7146SOL    HW223278  13.758   6.237   7.915
 7147SOL     OW23279   4.832  10.072   1.359
 7147SOL    HW123280   4.856  10.125   1.283
 7147SOL    HW223281   4.795  10.134   1.422
 7148SOL     OW23282  10.398   8.911   3.207
 7148SOL    HW123283  10.326   8.917   3.270
 7148SOL    HW223284  10.379   8.980   3.143
 7149SOL     OW23285  13.424  10.771  11.667
 7149SOL    HW123286  13.401  10.830  11.595
 7149SOL    HW223287  13.494  10.816  11.714
 7150SOL     OW23288   4.979   8.079  11.714
 7150SOL    HW123289   5.010   8.083  11.805
 7150SOL    HW223290   4.888   8.110  11.718
 7151SOL     OW23291   5.718   4.501   5.520
 7151SOL    HW123292   5.741   4.416   5.483
 7151SOL    HW223293   5.693   4.554   5.445
 7152SOL     OW23294   7.974  13.405  12.838
 7152SOL    HW123295   7.915  13.480  12.843
 7152SOL    HW223296   7.967  13.375  12.748
 7153SOL     OW23297  11.732   7.833   9.852
 7153SOL    HW123298  11.675   7.829   9.928
 7153SOL    HW223299  11.761   7.742   9.839
 7154SOL     OW23300   1.248  14.799  11.275
 7154SOL    HW123301   1.238  14.880  11.326
 7154SOL    HW223302   1.311  14.822  11.206
 7155SOL     OW23303  14.610   1.641  10.942
 7155SOL    HW123304  14.631   1.713  11.001
 7155SOL    HW223305  14.592   1.683  10.858
 7156SOL     OW23306   3.579  10.828   1.187
 7156SOL    HW123307   3.642  10.901   1.187
 7156SOL    HW223308   3.513  10.853   1.251
 7157SOL     OW23309  14.657  11.935   8.807
 7157SOL    HW123310  14.665  12.030   8.815
 7157SOL    HW223311  14.624  11.907   8.893
 7158SOL     OW23312   9.518   9.915   8.802
 7158SOL    HW123313   9.531  10.006   8.829
 7158SOL    HW223314   9.590   9.899   8.741
 7159SOL     OW23315   6.041   5.677   5.540
 7159SOL    HW123316   5.990   5.698   5.461
 7159SOL    HW223317   6.124   5.643   5.506
 7160SOL     OW23318   6.237   0.064   8.154
 7160SOL    HW123319   6.278   0.100   8.233
 7160SOL    HW223320   6.286   0.102   8.081
 7161SOL     OW23321   3.956  10.418   3.282
 7161SOL    HW123322   3.994  10.400   3.196
 7161SOL    HW223323   3.876  10.365   3.284
 7162SOL     OW23324  13.834   8.879   8.167
 7162SOL    HW123325  13.785   8.835   8.097
 7162SOL    HW223326  13.925   8.852   8.153
 7163SOL     OW23327  11.487   0.991  13.007
 7163SOL    HW123328  11.526   1.036  12.932
 7163SOL    HW223329  11.445   0.913  12.970
 7164SOL     OW23330  10.453  12.124   7.145
 7164SOL    HW123331  10.442  12.210   7.185
 7164SOL    HW223332  10.439  12.139   7.051
 7165SOL     OW23333   7.041   7.935  14.199
 7165SOL    HW123334   6.981   7.878  14.150
 7165SOL    HW223335   7.101   7.875  14.243
 7166SOL     OW23336   6.110   1.481   7.556
 7166SOL    HW123337   6.122   1.422   7.630
 7166SOL    HW223338   6.144   1.433   7.480
 7167SOL     OW23339  11.038  14.685  13.693
 7167SOL    HW123340  11.028  14.610  13.634
 7167SOL    HW223341  10.969  14.672  13.759
 7168SOL     OW23342   3.146  13.633   4.863
 7168SOL    HW123343   3.054  13.614   4.844
 7168SOL    HW223344   3.179  13.553   4.905
 7169SOL     OW23345   5.640  11.380   4.271
 7169SOL    HW123346   5.630  11.468   4.234
 7169SOL    HW223347   5.551  11.353   4.295
 7170SOL     OW23348   7.766   4.272  12.019
 7170SOL    HW123349   7.673   4.265  12.039
 7170SOL    HW223350   7.799   4.339  12.078
 7171SOL     OW23351  10.672   4.609  10.727
 7171SOL    HW123352  10.585   4.571  10.742
 7171SOL    HW223353  10.666   4.649  10.641
 7172SOL     OW23354   8.220  11.941   4.780
 7172SOL    HW123355   8.187  11.851   4.788
 7172SOL    HW223356   8.239  11.950   4.686
 7173SOL     OW23357   0.258   1.975   4.357
 7173SOL    HW123358   0.200   1.951   4.284
 7173SOL    HW223359   0.241   1.908   4.423
 7174SOL     OW23360  12.768   7.449   3.580
 7174SOL    HW123361  12.701   7.477   3.643
 7174SOL    HW223362  12.728   7.375   3.534
 7175SOL     OW23363  14.303  11.026  11.381
 7175SOL    HW123364  14.284  10.934  11.398
 7175SOL    HW223365  14.356  11.026  11.301
 7176SOL     OW23366  11.103  12.806   3.438
 7176SOL    HW123367  11.168  12.873   3.460
 7176SOL    HW223368  11.039  12.852   3.384
 7177SOL     OW23369   4.188   9.570   2.437
 7177SOL    HW123370   4.097   9.576   2.409
 7177SOL    HW223371   4.211   9.658   2.465
 7178SOL     OW23372   1.679   4.645   0.885
 7178SOL    HW123373   1.635   4.570   0.924
 7178SOL    HW223374   1.692   4.620   0.793
 7179SOL     OW23375  13.638   5.030  14.313
 7179SOL    HW123376  13.606   4.962  14.372
 7179SOL    HW223377  13.642   5.109  14.368
 7180SOL     OW23378   5.486   3.866  10.673
 7180SOL    HW123379   5.534   3.785  10.689
 7180SOL    HW223380   5.545   3.935  10.704
 7181SOL     OW23381   9.380   7.537   7.926
 7181SOL    HW123382   9.285   7.531   7.925
 7181SOL    HW223383   9.409   7.471   7.864
 7182SOL     OW23384   5.177  12.288   1.460
 7182SOL    HW123385   5.253  12.328   1.419
 7182SOL    HW223386   5.144  12.226   1.394
 7183SOL     OW23387   6.593   9.665   2.792
 7183SOL    HW123388   6.567   9.595   2.851
 7183SOL    HW223389   6.606   9.741   2.850
 7184SOL     OW23390   0.149   5.082  13.668
 7184SOL    HW123391   0.175   5.089  13.760
 7184SOL    HW223392   0.232   5.072  13.621
 7185SOL     OW23393  14.695   6.862   9.999
 7185SOL    HW123394  14.708   6.925  10.071
 7185SOL    HW223395  14.762   6.886   9.935
 7186SOL     OW23396   8.883   9.529  12.272
 7186SOL    HW123397   8.908   9.599  12.211
 7186SOL    HW223398   8.825   9.473  12.220
 7187SOL     OW23399   1.720   7.676   6.517
 7187SOL    HW123400   1.740   7.630   6.598
 7187SOL    HW223401   1.626   7.664   6.505
 7188SOL     OW23402  14.010   8.832   6.445
 7188SOL    HW123403  14.037   8.760   6.502
 7188SOL    HW223404  14.036   8.911   6.492
 7189SOL     OW23405   4.593   9.568   3.923
 7189SOL    HW123406   4.637   9.490   3.957
 7189SOL    HW223407   4.566   9.543   3.834
 7190SOL     OW23408  13.336  14.218   9.872
 7190SOL    HW123409  13.403  14.285   9.883
 7190SOL    HW223410  13.344  14.189   9.781
 7191SOL     OW23411   2.300  13.796  12.301
 7191SOL    HW123412   2.368  13.749  12.253
 7191SOL    HW223413   2.252  13.728  12.348
 7192SOL     OW23414   3.884   4.023  10.315
 7192SOL    HW123415   3.832   3.948  10.344
 7192SOL    HW223416   3.828   4.068  10.252
 7193SOL     OW23417  10.800   0.105   9.748
 7193SOL    HW123418  10.811   0.081   9.656
 7193SOL    HW223419  10.745   0.036   9.785
 7194SOL     OW23420   0.679   4.525   8.506
 7194SOL    HW123421   0.655   4.586   8.577
 7194SOL    HW223422   0.747   4.570   8.457
 7195SOL     OW23423  10.457   6.338   5.700
 7195SOL    HW123424  10.548   6.366   5.693
 7195SOL    HW223425  10.425   6.381   5.779
 7196SOL     OW23426   6.581   0.500   5.107
 7196SOL    HW123427   6.618   0.585   5.082
 7196SOL    HW223428   6.656   0.441   5.108
 7197SOL     OW23429   0.187   9.860  14.616
 7197SOL    HW123430   0.178   9.858  14.712
 7197SOL    HW223431   0.272   9.902  14.602
 7198SOL     OW23432   4.929   1.393   9.914
 7198SOL    HW123433   4.898   1.480   9.887
 7198SOL    HW223434   4.925   1.341   9.834
 7199SOL     OW23435  13.286   4.437   9.174
 7199SOL    HW123436  13.227   4.458   9.247
 7199SOL    HW223437  13.288   4.517   9.121
 7200SOL     OW23438  14.837   0.634   0.704
 7200SOL    HW123439   0.006   0.653   0.783
 7200SOL    HW223440  14.757   0.685   0.714
 7201SOL     OW23441   7.552   4.313  14.357
 7201SOL    HW123442   7.570   4.225  14.390
 7201SOL    HW223443   7.592   4.316  14.270
 7202SOL     OW23444   9.536  10.632  11.392
 7202SOL    HW123445   9.568  10.544  11.410
 7202SOL    HW223446   9.453  10.618  11.347
 7203SOL     OW23447   9.159   6.515  10.169
 7203SOL    HW123448   9.154   6.456  10.245
 7203SOL    HW223449   9.070   6.516  10.134
 7204SOL     OW23450   6.142  12.806  11.035
 7204SOL    HW123451   6.226  12.801  10.989
 7204SOL    HW223452   6.093  12.730  11.004
 7205SOL     OW23453  13.517   5.655   8.204
 7205SOL    HW123454  13.430   5.634   8.172
 7205SOL    HW223455  13.515   5.750   8.217
 7206SOL     OW23456   0.177   4.587   2.505
 7206SOL    HW123457   0.198   4.498   2.536
 7206SOL    HW223458   0.113   4.619   2.568
 7207SOL     OW23459  12.750   6.413   7.740
 7207SOL    HW123460  12.713   6.418   7.652
 7207SOL    HW223461  12.706   6.337   7.779
 7208SOL     OW23462   8.091  13.874   9.161
 7208SOL    HW123463   8.064  13.784   9.177
 7208SOL    HW223464   8.056  13.894   9.074
 7209SOL     OW23465  14.329   6.827   7.380
 7209SOL    HW123466  14.339   6.843   7.287
 7209SOL    HW223467  14.354   6.910   7.422
 7210SOL     OW23468  14.412   2.695  10.262
 7210SOL    HW123469  14.484   2.730  10.210
 7210SOL    HW223470  14.383   2.617  10.214
 7211SOL     OW23471   0.730  11.313  11.974
 7211SOL    HW123472   0.636  11.327  11.968
 7211SOL    HW223473   0.739  11.222  12.003
 7212SOL     OW23474  12.650  11.376   0.985
 7212SOL    HW123475  12.578  11.366   0.922
 7212SOL    HW223476  12.613  11.347   1.068
 7213SOL     OW23477   2.590   5.026   3.632
 7213SOL    HW123478   2.633   5.048   3.714
 7213SOL    HW223479   2.522   5.093   3.622
 7214SOL     OW23480  10.717  12.367   3.067
 7214SOL    HW123481  10.684  12.414   3.144
 7214SOL    HW223482  10.638  12.340   3.020
 7215SOL     OW23483   2.347   3.789   6.806
 7215SOL    HW123484   2.380   3.705   6.776
 7215SOL    HW223485   2.395   3.854   6.754
 7216SOL     OW23486   5.353  12.612   6.450
 7216SOL    HW123487   5.383  12.596   6.360
 7216SOL    HW223488   5.317  12.528   6.478
 7217SOL     OW23489  12.918   6.918   5.863
 7217SOL    HW123490  12.879   6.985   5.807
 7217SOL    HW223491  12.972   6.866   5.804
 7218SOL     OW23492   4.334   9.244  11.599
 7218SOL    HW123493   4.368   9.332  11.612
 7218SOL    HW223494   4.358   9.197  11.679
 7219SOL     OW23495  12.688   3.589   5.033
 7219SOL    HW123496  12.708   3.508   5.081
 7219SOL    HW223497  12.661   3.560   4.946
 7220SOL     OW23498  12.444   0.921   2.960
 7220SOL    HW123499  12.475   0.847   2.908
 7220SOL    HW223500  12.470   0.901   3.049
 7221SOL     OW23501  10.791  12.404   5.526
 7221SOL    HW123502  10.825  12.322   5.489
 7221SOL    HW223503  10.841  12.416   5.607
 7222SOL     OW23504  14.554   0.866   0.466
 7222SOL    HW123505  14.582   0.893   0.379
 7222SOL    HW223506  14.577   0.773   0.471
 7223SOL     OW23507  14.189   4.778  13.596
 7223SOL    HW123508  14.157   4.828  13.521
 7223SOL    HW223509  14.109   4.744  13.638
 7224SOL     OW23510  11.988   1.011   9.474
 7224SOL    HW123511  11.926   1.006   9.547
 7224SOL    HW223512  12.068   0.971   9.509
 7225SOL     OW23513   4.782   1.417  12.778
 7225SOL    HW123514   4.704   1.409  12.832
 7225SOL    HW223515   4.756   1.379  12.694
 7226SOL     OW23516   2.608  11.608   9.143
 7226SOL    HW123517   2.601  11.559   9.225
 7226SOL    HW223518   2.698  11.639   9.141
 7227SOL     OW23519  13.637   8.928  11.512
 7227SOL    HW123520  13.698   8.891  11.448
 7227SOL    HW223521  13.558   8.946  11.461
 7228SOL     OW23522   4.961   9.564   8.372
 7228SOL    HW123523   4.916   9.638   8.331
 7228SOL    HW223524   5.022   9.534   8.305
 7229SOL     OW23525   2.946   7.375   1.284
 7229SOL    HW123526   3.006   7.308   1.316
 7229SOL    HW223527   2.939   7.358   1.190
 7230SOL     OW23528   7.986   3.655   8.483
 7230SOL    HW123529   8.045   3.584   8.505
 7230SOL    HW223530   8.016   3.685   8.397
 7231SOL     OW23531   0.850   4.628   5.117
 7231SOL    HW123532   0.757   4.633   5.092
 7231SOL    HW223533   0.854   4.675   5.201
 7232SOL     OW23534   1.371   8.692   3.017
 7232SOL    HW123535   1.357   8.752   2.943
 7232SOL    HW223536   1.453   8.647   2.995
 7233SOL     OW23537   0.660   9.634   9.729
 7233SOL    HW123538   0.638   9.544   9.704
 7233SOL    HW223539   0.575   9.675   9.745
 7234SOL     OW23540   7.463  12.038  11.984
 7234SOL    HW123541   7.367  12.037  11.980
 7234SOL    HW223542   7.485  11.958  12.032
 7235SOL     OW23543   8.855   0.520  10.093
 7235SOL    HW123544   8.888   0.512  10.183
 7235SOL    HW223545   8.908   0.459  10.043
 7236SOL     OW23546  12.526   8.763  12.679
 7236SOL    HW123547  12.583   8.821  12.728
 7236SOL    HW223548  12.568   8.753  12.593
 7237SOL     OW23549   0.231   5.178   7.585
 7237SOL    HW123550   0.174   5.234   7.532
 7237SOL    HW223551   0.318   5.191   7.548
 7238SOL     OW23552   7.144   7.918  10.319
 7238SOL    HW123553   7.074   7.945  10.378
 7238SOL    HW223554   7.109   7.842  10.273
 7239SOL     OW23555   0.383  14.244   4.441
 7239SOL    HW123556   0.366  14.150   4.438
 7239SOL    HW223557   0.374  14.267   4.534
 7240SOL     OW23558  13.782   4.977   9.768
 7240SOL    HW123559  13.861   5.025   9.791
 7240SOL    HW223560  13.778   4.982   9.672
 7241SOL     OW23561   1.047   0.688  11.894
 7241SOL    HW123562   1.134   0.652  11.907
 7241SOL    HW223563   1.020   0.717  11.982
 7242SOL     OW23564   6.798  12.233  10.315
 7242SOL    HW123565   6.709  12.207  10.293
 7242SOL    HW223566   6.792  12.326  10.336
 7243SOL     OW23567  10.852   8.129   0.620
 7243SOL    HW123568  10.767   8.135   0.664
 7243SOL    HW223569  10.860   8.212   0.573
 7244SOL     OW23570   5.969   5.734  10.487
 7244SOL    HW123571   6.006   5.648  10.470
 7244SOL    HW223572   6.045   5.792  10.495
 7245SOL     OW23573   7.761   6.631   1.003
 7245SOL    HW123574   7.803   6.585   1.076
 7245SOL    HW223575   7.696   6.688   1.045
 7246SOL     OW23576  10.658   0.549   3.688
 7246SOL    HW123577  10.596   0.478   3.675
 7246SOL    HW223578  10.644   0.577   3.779
 7247SOL     OW23579   5.448   3.343  12.275
 7247SOL    HW123580   5.503   3.402  12.224
 7247SOL    HW223581   5.511   3.284  12.318
 7248SOL     OW23582   3.855   8.154  14.320
 7248SOL    HW123583   3.849   8.105  14.402
 7248SOL    HW223584   3.773   8.204  14.316
 7249SOL     OW23585  12.952   1.776   4.491
 7249SOL    HW123586  12.917   1.847   4.544
 7249SOL    HW223587  13.017   1.818   4.434
 7250SOL     OW23588   1.466   4.714   4.658
 7250SOL    HW123589   1.397   4.712   4.724
 7250SOL    HW223590   1.547   4.703   4.708
 7251SOL     OW23591  10.538  14.480   5.383
 7251SOL    HW123592  10.625  14.519   5.389
 7251SOL    HW223593  10.490  14.537   5.324
 7252SOL     OW23594   5.894   0.449  13.638
 7252SOL    HW123595   5.802   0.426  13.649
 7252SOL    HW223596   5.929   0.380  13.582
 7253SOL     OW23597   0.878  12.956  11.023
 7253SOL    HW123598   0.849  13.012  11.095
 7253SOL    HW223599   0.947  12.902  11.060
 7254SOL     OW23600   1.299   3.341   8.589
 7254SOL    HW123601   1.312   3.428   8.626
 7254SOL    HW223602   1.380   3.323   8.541
 7255SOL     OW23603   2.424   5.044   2.430
 7255SOL    HW123604   2.480   4.992   2.488
 7255SOL    HW223605   2.343   4.994   2.424
 7256SOL     OW23606  14.311   9.605  12.688
 7256SOL    HW123607  14.282   9.631  12.775
 7256SOL    HW223608  14.391   9.656  12.673
 7257SOL     OW23609   6.026  10.006  12.058
 7257SOL    HW123610   5.959   9.969  12.001
 7257SOL    HW223611   6.023   9.953  12.137
 7258SOL     OW23612   6.011   4.132   5.338
 7258SOL    HW123613   6.101   4.126   5.371
 7258SOL    HW223614   5.982   4.041   5.333
 7259SOL     OW23615  10.493   4.370   9.344
 7259SOL    HW123616  10.473   4.291   9.294
 7259SOL    HW223617  10.408   4.411   9.359
 7260SOL     OW23618  12.966   1.780   6.220
 7260SOL    HW123619  13.006   1.759   6.305
 7260SOL    HW223620  12.875   1.751   6.229
 7261SOL     OW23621   5.599   3.212  10.994
 7261SOL    HW123622   5.673   3.151  10.986
 7261SOL    HW223623   5.521   3.157  10.985
 7262SOL     OW23624   0.504   3.193   1.433
 7262SOL    HW123625   0.513   3.275   1.481
 7262SOL    HW223626   0.548   3.209   1.350
 7263SOL     OW23627   6.917   4.622  12.557
 7263SOL    HW123628   6.956   4.538  12.580
 7263SOL    HW223629   6.991   4.676  12.529
 7264SOL     OW23630  12.081   5.220  10.897
 7264SOL    HW123631  12.154   5.252  10.950
 7264SOL    HW223632  12.003   5.238  10.949
 7265SOL     OW23633  10.427   8.713   4.201
 7265SOL    HW123634  10.363   8.642   4.200
 7265SOL    HW223635  10.457   8.718   4.292
 7266SOL     OW23636   3.744   9.597  10.195
 7266SOL    HW123637   3.770   9.574  10.285
 7266SOL    HW223638   3.798   9.542  10.139
 7267SOL     OW23639  11.980  14.084   0.409
 7267SOL    HW123640  12.031  14.123   0.480
 7267SOL    HW223641  12.039  14.083   0.334
 7268SOL     OW23642   0.640   3.880  13.164
 7268SOL    HW123643   0.557   3.839  13.191
 7268SOL    HW223644   0.664   3.834  13.083
 7269SOL     OW23645   1.417   7.814   7.494
 7269SOL    HW123646   1.425   7.864   7.413
 7269SOL    HW223647   1.499   7.832   7.541
 7270SOL     OW23648   1.352   7.175  11.875
 7270SOL    HW123649   1.302   7.133  11.945
 7270SOL    HW223650   1.430   7.120  11.865
 7271SOL     OW23651   0.233  11.859  12.607
 7271SOL    HW123652   0.299  11.791  12.620
 7271SOL    HW223653   0.162  11.814  12.560
 7272SOL     OW23654  11.894   0.637   7.666
 7272SOL    HW123655  11.927   0.587   7.591
 7272SOL    HW223656  11.973   0.668   7.711
 7273SOL     OW23657   4.994   5.779   1.653
 7273SOL    HW123658   4.912   5.732   1.670
 7273SOL    HW223659   5.004   5.836   1.730
 7274SOL     OW23660  10.009  13.165   3.912
 7274SOL    HW123661   9.959  13.085   3.896
 7274SOL    HW223662  10.028  13.199   3.825
 7275SOL     OW23663   8.654   0.412  14.297
 7275SOL    HW123664   8.566   0.376  14.303
 7275SOL    HW223665   8.642   0.504  14.277
 7276SOL     OW23666  14.212  13.897   1.981
 7276SOL    HW123667  14.252  13.840   1.915
 7276SOL    HW223668  14.275  13.968   1.992
 7277SOL     OW23669   6.448  12.680   0.458
 7277SOL    HW123670   6.357  12.706   0.443
 7277SOL    HW223671   6.445  12.584   0.457
 7278SOL     OW23672   7.114   1.228  14.764
 7278SOL    HW123673   7.087   1.147  14.721
 7278SOL    HW223674   7.042   1.289  14.744
 7279SOL     OW23675  11.777   5.047  11.564
 7279SOL    HW123676  11.711   5.008  11.622
 7279SOL    HW223677  11.784   4.986  11.491
 7280SOL     OW23678   5.684  13.901  13.113
 7280SOL    HW123679   5.722  13.974  13.163
 7280SOL    HW223680   5.710  13.823  13.163
 7281SOL     OW23681   6.154   5.833   2.864
 7281SOL    HW123682   6.117   5.775   2.930
 7281SOL    HW223683   6.138   5.922   2.898
 7282SOL     OW23684   0.593  13.253   5.185
 7282SOL    HW123685   0.505  13.268   5.220
 7282SOL    HW223686   0.649  13.311   5.236
 7283SOL     OW23687   6.937  12.303   8.549
 7283SOL    HW123688   6.930  12.312   8.644
 7283SOL    HW223689   6.846  12.307   8.518
 7284SOL     OW23690   6.286   9.869   5.317
 7284SOL    HW123691   6.370   9.841   5.351
 7284SOL    HW223692   6.307   9.911   5.233
 7285SOL     OW23693  10.184   4.879   6.592
 7285SOL    HW123694  10.099   4.877   6.549
 7285SOL    HW223695  10.205   4.786   6.607
 7286SOL     OW23696  11.224  14.835   1.819
 7286SOL    HW123697  11.138  14.799   1.797
 7286SOL    HW223698  11.283  14.795   1.756
 7287SOL     OW23699  14.393   6.364   9.097
 7287SOL    HW123700  14.433   6.291   9.051
 7287SOL    HW223701  14.424   6.442   9.051
 7288SOL     OW23702  11.801   8.370  11.740
 7288SOL    HW123703  11.891   8.402  11.740
 7288SOL    HW223704  11.806   8.284  11.698
 7289SOL     OW23705   0.341  10.060   1.675
 7289SOL    HW123706   0.313  10.151   1.674
 7289SOL    HW223707   0.293  10.021   1.748
 7290SOL     OW23708   4.140   0.673  12.828
 7290SOL    HW123709   4.082   0.597  12.836
 7290SOL    HW223710   4.138   0.695  12.735
 7291SOL     OW23711   0.495  13.107   2.788
 7291SOL    HW123712   0.511  13.194   2.824
 7291SOL    HW223713   0.457  13.122   2.702
 7292SOL     OW23714   8.553   1.259   3.334
 7292SOL    HW123715   8.570   1.238   3.242
 7292SOL    HW223716   8.458   1.253   3.344
 7293SOL     OW23717   7.236   9.910   8.932
 7293SOL    HW123718   7.181   9.975   8.890
 7293SOL    HW223719   7.175   9.842   8.961
 7294SOL     OW23720   2.188   8.024   5.518
 7294SOL    HW123721   2.170   8.028   5.612
 7294SOL    HW223722   2.128   8.087   5.479
 7295SOL     OW23723   9.992   9.921   0.727
 7295SOL    HW123724  10.077   9.892   0.693
 7295SOL    HW223725  10.008   9.942   0.819
 7296SOL     OW23726   7.989  10.142   8.158
 7296SOL    HW123727   8.015  10.233   8.142
 7296SOL    HW223728   8.049  10.091   8.103
 7297SOL     OW23729   6.769   2.601   6.888
 7297SOL    HW123730   6.766   2.636   6.799
 7297SOL    HW223731   6.857   2.563   6.896
 7298SOL     OW23732   3.139  13.629   0.562
 7298SOL    HW123733   3.183  13.562   0.511
 7298SOL    HW223734   3.184  13.629   0.646
 7299SOL     OW23735  13.408   3.944  12.112
 7299SOL    HW123736  13.400   3.893  12.032
 7299SOL    HW223737  13.324   3.988  12.121
 7300SOL     OW23738  12.839   2.779   7.563
 7300SOL    HW123739  12.911   2.817   7.513
 7300SOL    HW223740  12.874   2.698   7.598
 7301SOL     OW23741  13.676   9.581   2.090
 7301SOL    HW123742  13.771   9.590   2.082
 7301SOL    HW223743  13.649   9.654   2.146
 7302SOL     OW23744   0.440   2.407   4.552
 7302SOL    HW123745   0.412   2.431   4.641
 7302SOL    HW223746   0.428   2.486   4.501
 7303SOL     OW23747  13.975   5.131  14.139
 7303SOL    HW123748  13.959   5.080  14.219
 7303SOL    HW223749  14.033   5.076  14.086
 7304SOL     OW23750  10.085   9.095  10.048
 7304SOL    HW123751  10.125   9.009  10.056
 7304SOL    HW223752  10.159   9.155  10.039
 7305SOL     OW23753  14.030   2.318   7.810
 7305SOL    HW123754  14.041   2.234   7.765
 7305SOL    HW223755  14.079   2.381   7.757
 7306SOL     OW23756   1.488   8.389   9.643
 7306SOL    HW123757   1.459   8.361   9.730
 7306SOL    HW223758   1.422   8.452   9.614
 7307SOL     OW23759   5.448   7.956   4.321
 7307SOL    HW123760   5.431   8.010   4.244
 7307SOL    HW223761   5.370   7.968   4.376
 7308SOL     OW23762  12.943   0.960   9.951
 7308SOL    HW123763  12.860   0.922   9.981
 7308SOL    HW223764  12.963   0.914   9.871
 7309SOL     OW23765  12.005   0.314   8.835
 7309SOL    HW123766  12.077   0.293   8.895
 7309SOL    HW223767  11.976   0.401   8.861
 7310SOL     OW23768   9.618   2.879  11.958
 7310SOL    HW123769   9.568   2.868  11.877
 7310SOL    HW223770   9.668   2.960  11.944
 7311SOL     OW23771  12.216   8.022   0.632
 7311SOL    HW123772  12.273   8.073   0.689
 7311SOL    HW223773  12.131   8.022   0.676
 7312SOL     OW23774   6.210   8.796   3.100
 7312SOL    HW123775   6.119   8.823   3.108
 7312SOL    HW223776   6.252   8.868   3.053
 7313SOL     OW23777  12.509  14.659   7.614
 7313SOL    HW123778  12.596  14.634   7.581
 7313SOL    HW223779  12.464  14.575   7.626
 7314SOL     OW23780   1.056   8.599   8.934
 7314SOL    HW123781   0.996   8.619   8.862
 7314SOL    HW223782   1.081   8.685   8.969
 7315SOL     OW23783   9.532   0.333  13.072
 7315SOL    HW123784   9.625   0.325  13.089
 7315SOL    HW223785   9.495   0.369  13.153
 7316SOL     OW23786  13.128  10.956   2.852
 7316SOL    HW123787  13.037  10.960   2.821
 7316SOL    HW223788  13.128  10.885   2.916
 7317SOL     OW23789  10.351   7.661   3.147
 7317SOL    HW123790  10.372   7.670   3.240
 7317SOL    HW223791  10.391   7.738   3.107
 7318SOL     OW23792  14.545   5.385   5.947
 7318SOL    HW123793  14.482   5.405   5.878
 7318SOL    HW223794  14.610   5.456   5.942
 7319SOL     OW23795  13.313  11.958  11.650
 7319SOL    HW123796  13.327  12.004  11.733
 7319SOL    HW223797  13.389  11.902  11.640
 7320SOL     OW23798   5.223  11.335   0.267
 7320SOL    HW123799   5.215  11.292   0.182
 7320SOL    HW223800   5.207  11.427   0.250
 7321SOL     OW23801   0.227   4.629   6.742
 7321SOL    HW123802   0.160   4.560   6.738
 7321SOL    HW223803   0.304   4.585   6.777
 7322SOL     OW23804   9.303   4.589   9.670
 7322SOL    HW123805   9.324   4.500   9.643
 7322SOL    HW223806   9.337   4.644   9.599
 7323SOL     OW23807   9.012   0.012   0.834
 7323SOL    HW123808   9.085  14.840   0.805
 7323SOL    HW223809   9.041   0.051   0.916
 7324SOL     OW23810   0.140   2.019   9.912
 7324SOL    HW123811   0.211   1.959   9.935
 7324SOL    HW223812   0.062   1.978   9.948
 7325SOL     OW23813   9.822   2.383  12.916
 7325SOL    HW123814   9.811   2.477  12.902
 7325SOL    HW223815   9.914   2.367  12.898
 7326SOL     OW23816   4.417   8.521   2.545
 7326SOL    HW123817   4.422   8.553   2.455
 7326SOL    HW223818   4.345   8.459   2.545
 7327SOL     OW23819   8.268   8.341   6.954
 7327SOL    HW123820   8.263   8.435   6.940
 7327SOL    HW223821   8.266   8.331   7.049
 7328SOL     OW23822   9.780  13.869   2.428
 7328SOL    HW123823   9.834  13.807   2.380
 7328SOL    HW223824   9.717  13.901   2.363
 7329SOL     OW23825   3.193   7.041  12.650
 7329SOL    HW123826   3.187   6.985  12.573
 7329SOL    HW223827   3.190   7.130  12.615
 7330SOL     OW23828   2.505  13.262   6.757
 7330SOL    HW123829   2.583  13.300   6.798
 7330SOL    HW223830   2.432  13.307   6.799
 7331SOL     OW23831   5.921   6.897  10.151
 7331SOL    HW123832   5.884   6.861  10.071
 7331SOL    HW223833   5.850   6.893  10.215
 7332SOL     OW23834   2.977  10.858  13.726
 7332SOL    HW123835   2.906  10.891  13.782
 7332SOL    HW223836   2.972  10.913  13.648
 7333SOL     OW23837  10.444  13.761   5.803
 7333SOL    HW123838  10.444  13.736   5.711
 7333SOL    HW223839  10.529  13.801   5.817
 7334SOL     OW23840  14.357   4.108   6.073
 7334SOL    HW123841  14.395   4.187   6.111
 7334SOL    HW223842  14.263   4.120   6.082
 7335SOL     OW23843   5.151   2.226   8.091
 7335SOL    HW123844   5.152   2.176   8.010
 7335SOL    HW223845   5.150   2.318   8.063
 7336SOL     OW23846   8.734   3.587  14.638
 7336SOL    HW123847   8.789   3.655  14.675
 7336SOL    HW223848   8.792   3.537  14.580
 7337SOL     OW23849  12.408   4.673   5.085
 7337SOL    HW123850  12.490   4.684   5.133
 7337SOL    HW223851  12.375   4.587   5.112
 7338SOL     OW23852   3.471   3.864   9.262
 7338SOL    HW123853   3.433   3.881   9.175
 7338SOL    HW223854   3.440   3.937   9.316
 7339SOL     OW23855   9.800   9.623   4.134
 7339SOL    HW123856   9.888   9.594   4.161
 7339SOL    HW223857   9.753   9.637   4.216
 7340SOL     OW23858   2.819  14.804  11.234
 7340SOL    HW123859   2.869  14.782  11.313
 7340SOL    HW223860   2.804   0.016  11.239
 7341SOL     OW23861   7.474   7.839   6.649
 7341SOL    HW123862   7.427   7.813   6.569
 7341SOL    HW223863   7.567   7.828   6.627
 7342SOL     OW23864   4.027  14.403   4.354
 7342SOL    HW123865   4.118  14.407   4.328
 7342SOL    HW223866   4.029  14.365   4.442
 7343SOL     OW23867  11.930   2.541   6.926
 7343SOL    HW123868  11.933   2.454   6.886
 7343SOL    HW223869  11.864   2.588   6.875
 7344SOL     OW23870   3.463   7.953   6.759
 7344SOL    HW123871   3.514   7.886   6.715
 7344SOL    HW223872   3.377   7.949   6.719
 7345SOL     OW23873  11.391   5.844  13.000
 7345SOL    HW123874  11.320   5.898  12.964
 7345SOL    HW223875  11.452   5.832  12.927
 7346SOL     OW23876   1.320  14.240  11.067
 7346SOL    HW123877   1.363  14.315  11.109
 7346SOL    HW223878   1.238  14.230  11.115
 7347SOL     OW23879   1.187   4.047  13.662
 7347SOL    HW123880   1.205   4.078  13.573
 7347SOL    HW223881   1.156   4.125  13.709
 7348SOL     OW23882   1.485   6.877   2.226
 7348SOL    HW123883   1.416   6.939   2.248
 7348SOL    HW223884   1.446   6.819   2.161
 7349SOL     OW23885   4.479   0.922  10.445
 7349SOL    HW123886   4.514   0.838  10.475
 7349SOL    HW223887   4.555   0.980  10.443
 7350SOL     OW23888  10.465  14.533  13.885
 7350SOL    HW123889  10.375  14.500  13.894
 7350SOL    HW223890  10.467  14.613  13.937
 7351SOL     OW23891   5.366   9.815   2.018
 7351SOL    HW123892   5.423   9.810   2.095
 7351SOL    HW223893   5.392   9.739   1.965
 7352SOL     OW23894  14.828   1.678  14.432
 7352SOL    HW123895  14.843   1.589  14.399
 7352SOL    HW223896   0.011   1.688  14.502
 7353SOL     OW23897  11.106  10.928  10.233
 7353SOL    HW123898  11.178  10.885  10.279
 7353SOL    HW223899  11.145  10.958  10.151
 7354SOL     OW23900   5.426   5.662  14.488
 7354SOL    HW123901   5.490   5.593  14.503
 7354SOL    HW223902   5.367   5.626  14.422
 7355SOL     OW23903  14.290   6.913  12.387
 7355SOL    HW123904  14.270   6.984  12.326
 7355SOL    HW223905  14.248   6.939  12.469
 7356SOL     OW23906   0.026  14.649  14.581
 7356SOL    HW123907  14.871  14.594  14.650
 7356SOL    HW223908   0.048  14.587  14.511
 7357SOL     OW23909   7.191   4.838   8.961
 7357SOL    HW123910   7.265   4.800   9.008
 7357SOL    HW223911   7.181   4.782   8.884
 7358SOL     OW23912   2.312   9.014   3.754
 7358SOL    HW123913   2.296   9.104   3.782
 7358SOL    HW223914   2.396   8.992   3.794
 7359SOL     OW23915  13.555   7.418   2.988
 7359SOL    HW123916  13.524   7.390   2.902
 7359SOL    HW223917  13.476   7.448   3.033
 7360SOL     OW23918  13.391   6.727  13.768
 7360SOL    HW123919  13.328   6.677  13.818
 7360SOL    HW223920  13.431   6.664  13.709
 7361SOL     OW23921  11.375   6.301   6.628
 7361SOL    HW123922  11.372   6.299   6.533
 7361SOL    HW223923  11.409   6.215   6.653
 7362SOL     OW23924   0.474   9.653   4.299
 7362SOL    HW123925   0.493   9.714   4.227
 7362SOL    HW223926   0.389   9.681   4.333
 7363SOL     OW23927   3.043   2.431   6.561
 7363SOL    HW123928   3.100   2.508   6.559
 7363SOL    HW223929   3.045   2.399   6.470
 7364SOL     OW23930  13.191  13.712   6.889
 7364SOL    HW123931  13.116  13.770   6.906
 7364SOL    HW223932  13.255  13.735   6.956
 7365SOL     OW23933  11.667   5.290   5.146
 7365SOL    HW123934  11.691   5.214   5.093
 7365SOL    HW223935  11.623   5.349   5.084
 7366SOL     OW23936   7.675  13.055   1.024
 7366SOL    HW123937   7.712  12.975   1.061
 7366SOL    HW223938   7.652  13.109   1.099
 7367SOL     OW23939   2.607   6.891  13.538
 7367SOL    HW123940   2.618   6.881  13.443
 7367SOL    HW223941   2.633   6.981  13.556
 7368SOL     OW23942  11.726   2.907   9.099
 7368SOL    HW123943  11.735   2.900   9.004
 7368SOL    HW223944  11.637   2.878   9.117
 7369SOL     OW23945   5.388  13.217  12.531
 7369SOL    HW123946   5.373  13.124  12.543
 7369SOL    HW223947   5.308  13.259  12.564
 7370SOL     OW23948   5.704  10.441  11.787
 7370SOL    HW123949   5.651  10.455  11.709
 7370SOL    HW223950   5.685  10.352  11.814
 7371SOL     OW23951  10.603  10.329   8.102
 7371SOL    HW123952  10.520  10.306   8.061
 7371SOL    HW223953  10.669  10.286   8.047
 7372SOL     OW23954  13.332   0.352   5.111
 7372SOL    HW123955  13.367   0.264   5.121
 7372SOL    HW223956  13.292   0.372   5.196
 7373SOL     OW23957   3.050   9.076   9.661
 7373SOL    HW123958   3.092   9.022   9.594
 7373SOL    HW223959   3.095   9.160   9.656
 7374SOL     OW23960  11.491   5.011   8.942
 7374SOL    HW123961  11.542   5.006   9.023
 7374SOL    HW223962  11.468   4.920   8.923
 7375SOL     OW23963  14.479   2.256   8.363
 7375SOL    HW123964  14.384   2.264   8.360
 7375SOL    HW223965  14.510   2.305   8.286
 7376SOL     OW23966  13.577   6.356  12.410
 7376SOL    HW123967  13.649   6.318  12.359
 7376SOL    HW223968  13.563   6.295  12.482
 7377SOL     OW23969   6.981   7.533   9.337
 7377SOL    HW123970   6.898   7.535   9.290
 7377SOL    HW223971   7.043   7.574   9.278
 7378SOL     OW23972   9.286   9.249  12.238
 7378SOL    HW123973   9.340   9.257  12.159
 7378SOL    HW223974   9.347   9.215  12.304
 7379SOL     OW23975  12.805   6.256  11.047
 7379SOL    HW123976  12.800   6.210  11.131
 7379SOL    HW223977  12.716   6.252  11.012
 7380SOL     OW23978   3.157  11.601  11.513
 7380SOL    HW123979   3.068  11.634  11.530
 7380SOL    HW223980   3.143  11.521  11.463
 7381SOL     OW23981   9.709   7.873   7.447
 7381SOL    HW123982   9.754   7.789   7.437
 7381SOL    HW223983   9.689   7.900   7.358
 7382SOL     OW23984   1.727  14.426   4.962
 7382SOL    HW123985   1.700  14.439   5.053
 7382SOL    HW223986   1.706  14.335   4.944
 7383SOL     OW23987   5.700   1.866  14.053
 7383SOL    HW123988   5.691   1.799  13.985
 7383SOL    HW223989   5.734   1.942  14.007
 7384SOL     OW23990   0.780   2.598   8.859
 7384SOL    HW123991   0.813   2.650   8.932
 7384SOL    HW223992   0.858   2.563   8.816
 7385SOL     OW23993   9.478  13.957   0.878
 7385SOL    HW123994   9.494  13.892   0.946
 7385SOL    HW223995   9.404  13.923   0.828
 7386SOL     OW23996   2.456   2.521   8.306
 7386SOL    HW123997   2.441   2.532   8.400
 7386SOL    HW223998   2.467   2.610   8.273
 7387SOL     OW23999  12.370  10.749   1.157
 7387SOL    HW124000  12.420  10.818   1.115
 7387SOL    HW224001  12.310  10.796   1.216
 7388SOL     OW24002  14.315   4.096  14.188
 7388SOL    HW124003  14.285   4.083  14.278
 7388SOL    HW224004  14.240   4.075  14.133
 7389SOL     OW24005  13.900   4.622   6.925
 7389SOL    HW124006  13.867   4.554   6.984
 7389SOL    HW224007  13.859   4.601   6.841
 7390SOL     OW24008   6.840   8.221   2.424
 7390SOL    HW124009   6.834   8.131   2.455
 7390SOL    HW224010   6.878   8.215   2.337
 7391SOL     OW24011  10.524   7.009   8.590
 7391SOL    HW124012  10.571   7.066   8.651
 7391SOL    HW224013  10.432   7.017   8.615
 7392SOL     OW24014  14.295   8.781   7.639
 7392SOL    HW124015  14.267   8.716   7.702
 7392SOL    HW224016  14.390   8.783   7.646
 7393SOL     OW24017  14.638   5.948   0.976
 7393SOL    HW124018  14.569   5.884   0.995
 7393SOL    HW224019  14.668   5.925   0.888
 7394SOL     OW24020   9.219  11.803  11.796
 7394SOL    HW124021   9.307  11.765  11.792
 7394SOL    HW224022   9.196  11.819  11.704
 7395SOL     OW24023   9.886   6.145   3.072
 7395SOL    HW124024   9.895   6.158   3.167
 7395SOL    HW224025   9.975   6.129   3.041
 7396SOL     OW24026  11.768   4.286   5.652
 7396SOL    HW124027  11.730   4.226   5.717
 7396SOL    HW224028  11.751   4.373   5.687
 7397SOL     OW24029   6.431   2.169  11.814
 7397SOL    HW124030   6.501   2.144  11.754
 7397SOL    HW224031   6.457   2.256  11.846
 7398SOL     OW24032   2.900   9.855   2.133
 7398SOL    HW124033   2.888   9.850   2.228
 7398SOL    HW224034   2.811   9.848   2.097
 7399SOL     OW24035   7.689   9.343  11.827
 7399SOL    HW124036   7.619   9.317  11.887
 7399SOL    HW224037   7.767   9.348  11.883
 7400SOL     OW24038   0.685   2.292   6.945
 7400SOL    HW124039   0.601   2.248   6.959
 7400SOL    HW224040   0.679   2.373   6.996
 7401SOL     OW24041   3.446  10.777   3.122
 7401SOL    HW124042   3.426  10.683   3.123
 7401SOL    HW224043   3.428  10.806   3.211
 7402SOL     OW24044   9.806   9.065  13.187
 7402SOL    HW124045   9.830   8.975  13.164
 7402SOL    HW224046   9.755   9.096  13.112
 7403SOL     OW24047   3.833   9.518   0.189
 7403SOL    HW124048   3.849   9.565   0.107
 7403SOL    HW224049   3.849   9.583   0.257
 7404SOL     OW24050   8.381  13.696   7.311
 7404SOL    HW124051   8.470  13.668   7.290
 7404SOL    HW224052   8.335  13.697   7.226
 7405SOL     OW24053   8.511  10.688  13.119
 7405SOL    HW124054   8.466  10.732  13.047
 7405SOL    HW224055   8.444  10.635  13.162
 7406SOL     OW24056   5.896   3.238   9.780
 7406SOL    HW124057   5.912   3.178   9.854
 7406SOL    HW224058   5.802   3.232   9.765
 7407SOL     OW24059   9.375   5.382   9.115
 7407SOL    HW124060   9.336   5.464   9.146
 7407SOL    HW224061   9.412   5.342   9.194
 7408SOL     OW24062  14.323   4.551   2.035
 7408SOL    HW124063  14.316   4.638   1.995
 7408SOL    HW224064  14.293   4.565   2.125
 7409SOL     OW24065   8.557   5.644  11.975
 7409SOL    HW124066   8.495   5.694  12.029
 7409SOL    HW224067   8.529   5.661  11.885
 7410SOL     OW24068   9.331  13.308  12.249
 7410SOL    HW124069   9.365  13.385  12.203
 7410SOL    HW224070   9.341  13.330  12.342
 7411SOL     OW24071  12.071  11.102  13.900
 7411SOL    HW124072  12.160  11.113  13.934
 7411SOL    HW224073  12.033  11.189  13.906
 7412SOL     OW24074   9.679  12.170  11.429
 7412SOL    HW124075   9.766  12.161  11.469
 7412SOL    HW224076   9.626  12.212  11.497
 7413SOL     OW24077   5.554  12.015  14.259
 7413SOL    HW124078   5.505  11.934  14.251
 7413SOL    HW224079   5.645  11.990  14.244
 7414SOL     OW24080   7.369   7.676   9.561
 7414SOL    HW124081   7.380   7.753   9.505
 7414SOL    HW224082   7.359   7.712   9.649
 7415SOL     OW24083   9.020  12.157   6.152
 7415SOL    HW124084   9.012  12.120   6.064
 7415SOL    HW224085   8.933  12.149   6.190
 7416SOL     OW24086   8.145   0.739   4.428
 7416SOL    HW124087   8.161   0.820   4.380
 7416SOL    HW224088   8.133   0.672   4.360
 7417SOL     OW24089  14.815   2.482   3.833
 7417SOL    HW124090  14.826   2.515   3.922
 7417SOL    HW224091  14.735   2.524   3.802
 7418SOL     OW24092   3.438   1.617   9.733
 7418SOL    HW124093   3.498   1.661   9.792
 7418SOL    HW224094   3.493   1.587   9.661
 7419SOL     OW24095   8.944  14.668   3.685
 7419SOL    HW124096   8.979  14.599   3.628
 7419SOL    HW224097   8.872  14.706   3.634
 7420SOL     OW24098   3.817  10.426  14.867
 7420SOL    HW124099   3.760  10.466  14.801
 7420SOL    HW224100   3.866  10.359  14.819
 7421SOL     OW24101   3.073  11.785   2.195
 7421SOL    HW124102   3.068  11.856   2.259
 7421SOL    HW224103   3.027  11.818   2.118
 7422SOL     OW24104   3.305  10.157  10.195
 7422SOL    HW124105   3.254  10.212  10.135
 7422SOL    HW224106   3.248  10.082  10.212
 7423SOL     OW24107  14.239   2.163  10.817
 7423SOL    HW124108  14.289   2.194  10.742
 7423SOL    HW224109  14.295   2.094  10.856
 7424SOL     OW24110   5.816   5.779   8.722
 7424SOL    HW124111   5.827   5.872   8.703
 7424SOL    HW224112   5.776   5.742   8.643
 7425SOL     OW24113   6.700  14.374   5.264
 7425SOL    HW124114   6.711  14.433   5.339
 7425SOL    HW224115   6.733  14.290   5.294
 7426SOL     OW24116  11.407   4.810   2.372
 7426SOL    HW124117  11.334   4.812   2.434
 7426SOL    HW224118  11.451   4.895   2.383
 7427SOL     OW24119   4.306   2.729   1.841
 7427SOL    HW124120   4.294   2.808   1.788
 7427SOL    HW224121   4.400   2.725   1.858
 7428SOL     OW24122  12.341  14.706   3.478
 7428SOL    HW124123  12.334  14.743   3.566
 7428SOL    HW224124  12.356  14.782   3.421
 7429SOL     OW24125   0.945   5.701   7.245
 7429SOL    HW124126   0.973   5.610   7.234
 7429SOL    HW224127   0.850   5.696   7.250
 7430SOL     OW24128   3.698  12.390   8.858
 7430SOL    HW124129   3.700  12.365   8.765
 7430SOL    HW224130   3.757  12.465   8.863
 7431SOL     OW24131  12.025   7.932   0.212
 7431SOL    HW124132  12.071   8.006   0.251
 7431SOL    HW224133  12.058   7.927   0.122
 7432SOL     OW24134  12.873  10.300   8.447
 7432SOL    HW124135  12.940  10.342   8.393
 7432SOL    HW224136  12.907  10.307   8.536
 7433SOL     OW24137  13.228   2.435   3.242
 7433SOL    HW124138  13.315   2.404   3.219
 7433SOL    HW224139  13.233   2.530   3.232
 7434SOL     OW24140  14.860   1.175   5.506
 7434SOL    HW124141  14.878   1.190   5.414
 7434SOL    HW224142  14.836   1.083   5.512
 7435SOL     OW24143  11.607   2.538   8.877
 7435SOL    HW124144  11.682   2.503   8.925
 7435SOL    HW224145  11.640   2.553   8.788
 7436SOL     OW24146  13.212   2.187   0.791
 7436SOL    HW124147  13.131   2.162   0.836
 7436SOL    HW224148  13.264   2.107   0.791
 7437SOL     OW24149   3.916   6.002  10.344
 7437SOL    HW124150   3.882   6.084  10.380
 7437SOL    HW224151   3.972   6.029  10.271
 7438SOL     OW24152   7.668   9.191   3.980
 7438SOL    HW124153   7.598   9.251   3.952
 7438SOL    HW224154   7.733   9.248   4.021
 7439SOL     OW24155   4.263   8.809  12.792
 7439SOL    HW124156   4.286   8.888  12.842
 7439SOL    HW224157   4.330   8.803  12.724
 7440SOL     OW24158   0.486   1.175   4.102
 7440SOL    HW124159   0.560   1.235   4.112
 7440SOL    HW224160   0.434   1.212   4.030
 7441SOL     OW24161   3.461  10.297  12.030
 7441SOL    HW124162   3.519  10.233  11.988
 7441SOL    HW224163   3.486  10.293  12.123
 7442SOL     OW24164   2.460   0.377   1.733
 7442SOL    HW124165   2.445   0.334   1.817
 7442SOL    HW224166   2.373   0.407   1.706
 7443SOL     OW24167   5.686   9.405   1.738
 7443SOL    HW124168   5.594   9.406   1.712
 7443SOL    HW224169   5.732   9.439   1.661
 7444SOL     OW24170  13.618   7.475   8.284
 7444SOL    HW124171  13.663   7.393   8.306
 7444SOL    HW224172  13.533   7.467   8.328
 7445SOL     OW24173  11.353   3.037   9.703
 7445SOL    HW124174  11.411   2.961   9.693
 7445SOL    HW224175  11.384   3.079   9.783
 7446SOL     OW24176   0.963   2.259  12.944
 7446SOL    HW124177   1.041   2.313  12.931
 7446SOL    HW224178   0.911   2.273  12.865
 7447SOL     OW24179   9.579   2.162   6.350
 7447SOL    HW124180   9.490   2.153   6.316
 7447SOL    HW224181   9.605   2.251   6.326
 7448SOL     OW24182   0.998   2.727   9.254
 7448SOL    HW124183   1.032   2.639   9.239
 7448SOL    HW224184   0.914   2.713   9.297
 7449SOL     OW24185   0.584   1.673  14.637
 7449SOL    HW124186   0.635   1.695  14.559
 7449SOL    HW224187   0.639   1.701  14.711
 7450SOL     OW24188   5.488  10.667  10.967
 7450SOL    HW124189   5.478  10.721  11.045
 7450SOL    HW224190   5.470  10.577  10.997
 7451SOL     OW24191   7.349   3.853   2.306
 7451SOL    HW124192   7.343   3.929   2.247
 7451SOL    HW224193   7.258   3.830   2.324
 7452SOL     OW24194  13.769   3.765   0.384
 7452SOL    HW124195  13.829   3.724   0.447
 7452SOL    HW224196  13.797   3.732   0.299
 7453SOL     OW24197   8.440  10.120   9.494
 7453SOL    HW124198   8.350  10.090   9.510
 7453SOL    HW224199   8.458  10.182   9.566
 7454SOL     OW24200   5.989  10.594  14.744
 7454SOL    HW124201   6.052  10.659  14.715
 7454SOL    HW224202   5.944  10.635  14.818
 7455SOL     OW24203   6.576  12.991   9.684
 7455SOL    HW124204   6.651  13.049   9.671
 7455SOL    HW224205   6.519  13.039   9.745
 7456SOL     OW24206  11.790   2.577   8.660
 7456SOL    HW124207  11.765   2.538   8.577
 7456SOL    HW224208  11.881   2.549   8.674
 7457SOL     OW24209  14.154   5.982   1.608
 7457SOL    HW124210  14.230   5.934   1.576
 7457SOL    HW224211  14.125   6.034   1.532
 7458SOL     OW24212   8.812   8.276  14.689
 7458SOL    HW124213   8.882   8.341  14.694
 7458SOL    HW224214   8.750   8.302  14.757
 7459SOL     OW24215   5.377   5.583   7.821
 7459SOL    HW124216   5.286   5.603   7.840
 7459SOL    HW224217   5.401   5.643   7.751
 7460SOL     OW24218   2.224   1.748  12.337
 7460SOL    HW124219   2.313   1.714  12.329
 7460SOL    HW224220   2.224   1.797  12.419
 7461SOL     OW24221  11.465  12.529  12.535
 7461SOL    HW124222  11.536  12.488  12.485
 7461SOL    HW224223  11.427  12.457  12.586
 7462SOL     OW24224  13.389   3.926  14.760
 7462SOL    HW124225  13.384   3.965  14.672
 7462SOL    HW224226  13.344   3.842  14.751
 7463SOL     OW24227   0.672   8.450  13.941
 7463SOL    HW124228   0.669   8.540  13.974
 7463SOL    HW224229   0.597   8.407  13.982
 7464SOL     OW24230   9.893   6.114   6.487
 7464SOL    HW124231   9.851   6.188   6.444
 7464SOL    HW224232   9.977   6.105   6.443
 7465SOL     OW24233   7.456  12.079   0.346
 7465SOL    HW124234   7.411  12.133   0.281
 7465SOL    HW224235   7.511  12.020   0.295
 7466SOL     OW24236   5.582   0.273   2.409
 7466SOL    HW124237   5.677   0.273   2.420
 7466SOL    HW224238   5.569   0.242   2.320
 7467SOL     OW24239  10.978  12.073   4.639
 7467SOL    HW124240  11.068  12.056   4.610
 7467SOL    HW224241  10.975  12.167   4.656
 7468SOL     OW24242   6.108   9.170   9.395
 7468SOL    HW124243   6.147   9.256   9.404
 7468SOL    HW224244   6.104   9.135   9.484
 7469SOL     OW24245   0.699   5.645   2.828
 7469SOL    HW124246   0.700   5.574   2.893
 7469SOL    HW224247   0.613   5.638   2.787
 7470SOL     OW24248   9.405  14.221   9.365
 7470SOL    HW124249   9.328  14.181   9.403
 7470SOL    HW224250   9.460  14.148   9.338
 7471SOL     OW24251   8.713   2.761   0.504
 7471SOL    HW124252   8.730   2.712   0.424
 7471SOL    HW224253   8.741   2.703   0.575
 7472SOL     OW24254  10.957   3.114  12.807
 7472SOL    HW124255  10.935   3.196  12.851
 7472SOL    HW224256  10.874   3.085  12.768
 7473SOL     OW24257   8.005   8.857   6.115
 7473SOL    HW124258   7.951   8.808   6.052
 7473SOL    HW224259   8.074   8.795   6.139
 7474SOL     OW24260  13.830   6.557   2.442
 7474SOL    HW124261  13.897   6.489   2.448
 7474SOL    HW224262  13.751   6.517   2.479
 7475SOL     OW24263   2.500   9.039   9.605
 7475SOL    HW124264   2.503   8.944   9.602
 7475SOL    HW224265   2.438   9.059   9.675
 7476SOL     OW24266   5.514   8.185   4.545
 7476SOL    HW124267   5.573   8.120   4.508
 7476SOL    HW224268   5.427   8.147   4.536
 7477SOL     OW24269   8.918  10.796   0.804
 7477SOL    HW124270   9.008  10.763   0.802
 7477SOL    HW224271   8.911  10.841   0.889
 7478SOL     OW24272   8.499   9.633   6.021
 7478SOL    HW124273   8.474   9.546   5.993
 7478SOL    HW224274   8.480   9.634   6.115
 7479SOL     OW24275   8.570   2.592   2.218
 7479SOL    HW124276   8.552   2.499   2.229
 7479SOL    HW224277   8.551   2.630   2.304
 7480SOL     OW24278   5.014   3.567   1.502
 7480SOL    HW124279   5.063   3.627   1.559
 7480SOL    HW224280   5.078   3.536   1.439
 7481SOL     OW24281   6.371   2.898  13.504
 7481SOL    HW124282   6.411   2.985  13.516
 7481SOL    HW224283   6.298   2.897  13.566
 7482SOL     OW24284   4.192   5.939   9.797
 7482SOL    HW124285   4.098   5.948   9.814
 7482SOL    HW224286   4.222   6.028   9.783
 7483SOL     OW24287   9.344  13.744  11.445
 7483SOL    HW124288   9.317  13.691  11.520
 7483SOL    HW224289   9.413  13.692  11.403
 7484SOL     OW24290   0.120  10.354   5.612
 7484SOL    HW124291   0.131  10.370   5.518
 7484SOL    HW224292   0.135  10.260   5.623
 7485SOL     OW24293   8.487  13.122  13.364
 7485SOL    HW124294   8.530  13.202  13.335
 7485SOL    HW224295   8.398  13.127  13.327
 7486SOL     OW24296  12.752   5.746   8.638
 7486SOL    HW124297  12.807   5.803   8.691
 7486SOL    HW224298  12.744   5.665   8.688
 7487SOL     OW24299   9.241   8.608   6.340
 7487SOL    HW124300   9.227   8.514   6.337
 7487SOL    HW224301   9.290   8.622   6.421
 7488SOL     OW24302   9.325  10.155   3.213
 7488SOL    HW124303   9.307  10.146   3.306
 7488SOL    HW224304   9.287  10.076   3.174
 7489SOL     OW24305   3.050  12.754   7.532
 7489SOL    HW124306   3.115  12.718   7.471
 7489SOL    HW224307   3.055  12.849   7.519
 7490SOL     OW24308   5.339  10.044   2.334
 7490SOL    HW124309   5.262  10.012   2.287
 7490SOL    HW224310   5.411   9.994   2.297
 7491SOL     OW24311   8.678   2.837   7.327
 7491SOL    HW124312   8.764   2.812   7.361
 7491SOL    HW224313   8.631   2.754   7.316
 7492SOL     OW24314   0.154   0.124   2.734
 7492SOL    HW124315   0.111   0.065   2.795
 7492SOL    HW224316   0.084   0.152   2.674
 7493SOL     OW24317   6.514  13.907  13.246
 7493SOL    HW124318   6.461  13.892  13.324
 7493SOL    HW224319   6.576  13.835  13.245
 7494SOL     OW24320   2.702   3.477   6.266
 7494SOL    HW124321   2.782   3.502   6.221
 7494SOL    HW224322   2.653   3.559   6.275
 7495SOL     OW24323   3.523   7.690  13.094
 7495SOL    HW124324   3.598   7.749  13.100
 7495SOL    HW224325   3.470   7.711  13.171
 7496SOL     OW24326   8.586   0.338   0.922
 7496SOL    HW124327   8.510   0.294   0.960
 7496SOL    HW224328   8.557   0.364   0.835
 7497SOL     OW24329   8.282   5.552  13.851
 7497SOL    HW124330   8.217   5.622  13.844
 7497SOL    HW224331   8.341   5.567  13.777
 7498SOL     OW24332   7.204  11.726   4.550
 7498SOL    HW124333   7.209  11.821   4.549
 7498SOL    HW224334   7.211  11.700   4.458
 7499SOL     OW24335   9.903   5.144  10.970
 7499SOL    HW124336   9.880   5.212  11.034
 7499SOL    HW224337   9.835   5.077  10.980
 7500SOL     OW24338  11.682   2.154   1.210
 7500SOL    HW124339  11.751   2.137   1.146
 7500SOL    HW224340  11.600   2.136   1.163
 7501SOL     OW24341   1.264   6.896   5.057
 7501SOL    HW124342   1.213   6.854   4.988
 7501SOL    HW224343   1.355   6.892   5.027
 7502SOL     OW24344   9.324  11.241   4.052
 7502SOL    HW124345   9.376  11.241   3.971
 7502SOL    HW224346   9.317  11.333   4.076
 7503SOL     OW24347  10.531   6.690   5.829
 7503SOL    HW124348  10.582   6.612   5.851
 7503SOL    HW224349  10.460   6.691   5.893
 7504SOL     OW24350   4.794  14.828   3.234
 7504SOL    HW124351   4.811  14.835   3.140
 7504SOL    HW224352   4.805  14.735   3.253
 7505SOL     OW24353   4.104  13.800   7.160
 7505SOL    HW124354   4.133  13.889   7.142
 7505SOL    HW224355   4.010  13.808   7.177
 7506SOL     OW24356  13.776  11.168   9.696
 7506SOL    HW124357  13.800  11.246   9.745
 7506SOL    HW224358  13.730  11.201   9.619
 7507SOL     OW24359   3.578   1.978   5.759
 7507SOL    HW124360   3.621   2.060   5.781
 7507SOL    HW224361   3.569   1.980   5.664
 7508SOL     OW24362   3.726   6.304  10.709
 7508SOL    HW124363   3.746   6.383  10.759
 7508SOL    HW224364   3.632   6.290  10.723
 7509SOL     OW24365  12.885   2.237  10.776
 7509SOL    HW124366  12.955   2.204  10.832
 7509SOL    HW224367  12.872   2.328  10.804
 7510SOL     OW24368  11.786   0.018  13.901
 7510SOL    HW124369  11.735  14.820  13.905
 7510SOL    HW224370  11.813   0.025  13.809
 7511SOL     OW24371  14.285   5.721   2.967
 7511SOL    HW124372  14.295   5.757   3.055
 7511SOL    HW224373  14.195   5.745   2.942
 7512SOL     OW24374   5.844   2.697   7.305
 7512SOL    HW124375   5.830   2.702   7.399
 7512SOL    HW224376   5.939   2.690   7.295
 7513SOL     OW24377   8.239   6.148  11.858
 7513SOL    HW124378   8.176   6.116  11.923
 7513SOL    HW224379   8.216   6.102  11.777
 7514SOL     OW24380   6.938  12.783  13.630
 7514SOL    HW124381   6.975  12.804  13.544
 7514SOL    HW224382   6.983  12.703  13.656
 7515SOL     OW24383  11.652  14.431   2.144
 7515SOL    HW124384  11.675  14.521   2.167
 7515SOL    HW224385  11.566  14.440   2.102
 7516SOL     OW24386  11.151   5.509   5.609
 7516SOL    HW124387  11.224   5.539   5.554
 7516SOL    HW224388  11.074   5.518   5.552
 7517SOL     OW24389   5.723   9.516   0.256
 7517SOL    HW124390   5.656   9.516   0.188
 7517SOL    HW224391   5.697   9.445   0.315
 7518SOL     OW24392   1.516   6.059   4.803
 7518SOL    HW124393   1.608   6.039   4.784
 7518SOL    HW224394   1.516   6.151   4.828
 7519SOL     OW24395   1.664   8.849  13.740
 7519SOL    HW124396   1.731   8.917  13.731
 7519SOL    HW224397   1.601   8.868  13.670
 7520SOL     OW24398   9.896   4.984   3.488
 7520SOL    HW124399   9.905   5.078   3.477
 7520SOL    HW224400   9.932   4.966   3.575
 7521SOL     OW24401  10.367  11.468   9.128
 7521SOL    HW124402  10.295  11.422   9.172
 7521SOL    HW224403  10.412  11.399   9.079
 7522SOL     OW24404   6.334   9.803   5.985
 7522SOL    HW124405   6.388   9.880   5.966
 7522SOL    HW224406   6.275   9.831   6.054
 7523SOL     OW24407  12.183   8.107  13.547
 7523SOL    HW124408  12.239   8.180  13.520
 7523SOL    HW224409  12.163   8.125  13.639
 7524SOL     OW24410   5.962   6.010   5.391
 7524SOL    HW124411   5.867   6.017   5.398
 7524SOL    HW224412   5.993   6.008   5.482
 7525SOL     OW24413   0.172   3.153  14.453
 7525SOL    HW124414   0.265   3.174  14.462
 7525SOL    HW224415   0.127   3.217  14.508
 7526SOL     OW24416  13.529   3.053   3.218
 7526SOL    HW124417  13.581   3.133   3.209
 7526SOL    HW224418  13.454   3.079   3.271
 7527SOL     OW24419   2.259   7.488  11.619
 7527SOL    HW124420   2.232   7.578  11.600
 7527SOL    HW224421   2.329   7.496  11.684
 7528SOL     OW24422   3.620   1.991  13.374
 7528SOL    HW124423   3.658   1.916  13.328
 7528SOL    HW224424   3.641   2.066  13.319
 7529SOL     OW24425   5.031   9.475   1.559
 7529SOL    HW124426   5.072   9.552   1.598
 7529SOL    HW224427   4.942   9.475   1.594
 7530SOL     OW24428  14.326  10.883   7.464
 7530SOL    HW124429  14.391  10.884   7.534
 7530SOL    HW224430  14.314  10.975   7.440
 7531SOL     OW24431  14.517   3.068  11.288
 7531SOL    HW124432  14.423   3.056  11.273
 7531SOL    HW224433  14.537   3.151  11.246
 7532SOL     OW24434   4.739   7.111   5.337
 7532SOL    HW124435   4.735   7.080   5.428
 7532SOL    HW224436   4.795   7.188   5.341
 7533SOL     OW24437  12.433   3.687  14.347
 7533SOL    HW124438  12.494   3.638  14.403
 7533SOL    HW224439  12.350   3.639  14.356
 7534SOL     OW24440   1.667   0.735  14.196
 7534SOL    HW124441   1.637   0.819  14.229
 7534SOL    HW224442   1.741   0.756  14.139
 7535SOL     OW24443  13.786   1.169   9.467
 7535SOL    HW124444  13.862   1.117   9.492
 7535SOL    HW224445  13.815   1.220   9.391
 7536SOL     OW24446  10.106   0.565   2.809
 7536SOL    HW124447  10.055   0.623   2.865
 7536SOL    HW224448  10.046   0.540   2.739
 7537SOL     OW24449   5.757  12.561  14.085
 7537SOL    HW124450   5.684  12.578  14.144
 7537SOL    HW224451   5.745  12.471  14.056
 7538SOL     OW24452  10.080   5.878   9.480
 7538SOL    HW124453  10.037   5.831   9.552
 7538SOL    HW224454  10.009   5.897   9.419
 7539SOL     OW24455  12.425  11.753   5.680
 7539SOL    HW124456  12.490  11.702   5.727
 7539SOL    HW224457  12.350  11.758   5.740
 7540SOL     OW24458  13.186  13.219   5.355
 7540SOL    HW124459  13.119  13.188   5.294
 7540SOL    HW224460  13.174  13.313   5.359
 7541SOL     OW24461  11.712  10.429   7.048
 7541SOL    HW124462  11.689  10.494   7.114
 7541SOL    HW224463  11.751  10.480   6.977
 7542SOL     OW24464  10.172  12.982  13.238
 7542SOL    HW124465  10.086  13.016  13.262
 7542SOL    HW224466  10.189  12.913  13.301
 7543SOL     OW24467  12.266  12.456   4.612
 7543SOL    HW124468  12.360  12.455   4.628
 7543SOL    HW224469  12.247  12.547   4.587
 7544SOL     OW24470   8.756  14.623   1.239
 7544SOL    HW124471   8.744  14.592   1.150
 7544SOL    HW224472   8.741  14.717   1.234
 7545SOL     OW24473  12.292   2.332   1.490
 7545SOL    HW124474  12.288   2.255   1.432
 7545SOL    HW224475  12.200   2.353   1.507
 7546SOL     OW24476   3.366  12.626  13.066
 7546SOL    HW124477   3.320  12.679  13.131
 7546SOL    HW224478   3.296  12.586  13.015
 7547SOL     OW24479   0.841  14.737   4.164
 7547SOL    HW124480   0.907  14.805   4.170
 7547SOL    HW224481   0.869  14.682   4.091
 7548SOL     OW24482   7.633   9.778   7.728
 7548SOL    HW124483   7.647   9.869   7.700
 7548SOL    HW224484   7.696   9.728   7.677
 7549SOL     OW24485   7.331   5.353   7.783
 7549SOL    HW124486   7.294   5.310   7.706
 7549SOL    HW224487   7.425   5.353   7.766
 7550SOL     OW24488  11.010   0.425   5.651
 7550SOL    HW124489  10.939   0.390   5.598
 7550SOL    HW224490  11.035   0.353   5.710
 7551SOL     OW24491   4.802   1.008   8.975
 7551SOL    HW124492   4.853   0.951   8.918
 7551SOL    HW224493   4.853   1.089   8.980
 7552SOL     OW24494  12.303  14.530   8.613
 7552SOL    HW124495  12.285  14.490   8.698
 7552SOL    HW224496  12.279  14.463   8.549
 7553SOL     OW24497  12.785  11.757   1.300
 7553SOL    HW124498  12.767  11.715   1.216
 7553SOL    HW224499  12.791  11.684   1.362
 7554SOL     OW24500  14.695  12.985  11.067
 7554SOL    HW124501  14.732  12.906  11.027
 7554SOL    HW224502  14.766  13.050  11.063
 7555SOL     OW24503  10.537   5.457   7.505
 7555SOL    HW124504  10.632   5.451   7.513
 7555SOL    HW224505  10.513   5.531   7.561
 7556SOL     OW24506  10.312  14.702   2.109
 7556SOL    HW124507  10.382  14.680   2.170
 7556SOL    HW224508  10.231  14.692   2.160
 7557SOL     OW24509  10.341   8.908  14.172
 7557SOL    HW124510  10.411   8.956  14.129
 7557SOL    HW224511  10.381   8.870  14.250
 7558SOL     OW24512  10.479   6.485   4.263
 7558SOL    HW124513  10.520   6.495   4.348
 7558SOL    HW224514  10.537   6.426   4.215
 7559SOL     OW24515   7.750   2.422  10.391
 7559SOL    HW124516   7.719   2.495  10.444
 7559SOL    HW224517   7.691   2.350  10.412
 7560SOL     OW24518   1.998   9.233   3.311
 7560SOL    HW124519   2.091   9.233   3.336
 7560SOL    HW224520   1.968   9.144   3.332
 7561SOL     OW24521  14.261   9.408  11.716
 7561SOL    HW124522  14.267   9.430  11.809
 7561SOL    HW224523  14.303   9.482  11.671
 7562SOL     OW24524  13.513  12.326   9.081
 7562SOL    HW124525  13.441  12.266   9.064
 7562SOL    HW224526  13.471  12.410   9.099
 7563SOL     OW24527  10.539  11.689  10.096
 7563SOL    HW124528  10.528  11.594  10.093
 7563SOL    HW224529  10.565  11.713  10.007
 7564SOL     OW24530   6.987  13.450   8.049
 7564SOL    HW124531   6.979  13.467   8.143
 7564SOL    HW224532   6.983  13.355   8.042
 7565SOL     OW24533   5.135   9.340   6.036
 7565SOL    HW124534   5.093   9.264   5.996
 7565SOL    HW224535   5.068   9.407   6.037
 7566SOL     OW24536   1.400   5.849   9.261
 7566SOL    HW124537   1.488   5.887   9.268
 7566SOL    HW224538   1.341   5.923   9.275
 7567SOL     OW24539   3.902   1.097   6.034
 7567SOL    HW124540   3.852   1.115   5.954
 7567SOL    HW224541   3.949   1.178   6.051
 7568SOL     OW24542  14.632   4.690   4.439
 7568SOL    HW124543  14.544   4.663   4.415
 7568SOL    HW224544  14.645   4.653   4.527
 7569SOL     OW24545   4.438   3.074   5.664
 7569SOL    HW124546   4.523   3.118   5.663
 7569SOL    HW224547   4.444   3.013   5.738
 7570SOL     OW24548   1.793  14.784   4.042
 7570SOL    HW124549   1.762  14.695   4.056
 7570SOL    HW224550   1.771  14.830   4.123
 7571SOL     OW24551   0.890  12.345   3.938
 7571SOL    HW124552   0.941  12.284   3.884
 7571SOL    HW224553   0.799  12.327   3.916
 7572SOL     OW24554  12.682   7.199   7.112
 7572SOL    HW124555  12.622   7.126   7.096
 7572SOL    HW224556  12.743   7.165   7.177
 7573SOL     OW24557   2.305   4.898  10.604
 7573SOL    HW124558   2.401   4.892  10.606
 7573SOL    HW224559   2.285   4.972  10.661
 7574SOL     OW24560  10.315  13.153   8.584
 7574SOL    HW124561  10.401  13.186   8.609
 7574SOL    HW224562  10.260  13.167   8.661
 7575SOL     OW24563   9.185  10.415   7.285
 7575SOL    HW124564   9.197  10.401   7.379
 7575SOL    HW224565   9.272  10.401   7.247
 7576SOL     OW24566   2.107   0.363  10.403
 7576SOL    HW124567   2.054   0.284  10.403
 7576SOL    HW224568   2.175   0.347  10.469
 7577SOL     OW24569   7.193  14.525   4.341
 7577SOL    HW124570   7.189  14.538   4.436
 7577SOL    HW224571   7.201  14.613   4.304
 7578SOL     OW24572   7.900   7.392   5.232
 7578SOL    HW124573   7.837   7.344   5.285
 7578SOL    HW224574   7.848   7.431   5.162
 7579SOL     OW24575   2.018  14.652   1.241
 7579SOL    HW124576   2.011  14.725   1.302
 7579SOL    HW224577   1.996  14.689   1.155
 7580SOL     OW24578   1.479   5.088   1.270
 7580SOL    HW124579   1.397   5.052   1.234
 7580SOL    HW224580   1.548   5.037   1.228
 7581SOL     OW24581  10.465  11.861   3.804
 7581SOL    HW124582  10.450  11.952   3.830
 7581SOL    HW224583  10.387  11.814   3.831
 7582SOL     OW24584   4.028   6.994  13.006
 7582SOL    HW124585   4.033   6.964  13.097
 7582SOL    HW224586   3.936   6.983  12.983
 7583SOL     OW24587   9.130  11.118   5.388
 7583SOL    HW124588   9.155  11.037   5.434
 7583SOL    HW224589   9.195  11.127   5.318
 7584SOL     OW24590   7.915   1.283   0.058
 7584SOL    HW124591   8.006   1.302   0.034
 7584SOL    HW224592   7.866   1.293  14.858
 7585SOL     OW24593   9.597   5.143   1.062
 7585SOL    HW124594   9.571   5.206   1.130
 7585SOL    HW224595   9.537   5.161   0.990
 7586SOL     OW24596   5.272   6.345   1.499
 7586SOL    HW124597   5.208   6.400   1.545
 7586SOL    HW224598   5.249   6.356   1.407
 7587SOL     OW24599  14.017  12.501   4.702
 7587SOL    HW124600  14.002  12.579   4.756
 7587SOL    HW224601  14.006  12.427   4.762
 7588SOL     OW24602   6.425   5.762  12.048
 7588SOL    HW124603   6.424   5.760  11.952
 7588SOL    HW224604   6.333   5.772  12.073
 7589SOL     OW24605  10.004   5.377  11.978
 7589SOL    HW124606  10.042   5.290  11.965
 7589SOL    HW224607  10.042   5.407  12.061
 7590SOL     OW24608   3.823   0.508   7.413
 7590SOL    HW124609   3.876   0.490   7.335
 7590SOL    HW224610   3.736   0.476   7.391
 7591SOL     OW24611   8.997   1.181   8.334
 7591SOL    HW124612   8.962   1.220   8.254
 7591SOL    HW224613   9.017   1.256   8.390
 7592SOL     OW24614   8.239  12.960   4.782
 7592SOL    HW124615   8.247  13.037   4.838
 7592SOL    HW224616   8.176  12.904   4.827
 7593SOL     OW24617   7.787  11.100   2.005
 7593SOL    HW124618   7.830  11.087   1.921
 7593SOL    HW224619   7.854  11.076   2.070
 7594SOL     OW24620   3.037   6.053   5.533
 7594SOL    HW124621   3.107   6.021   5.590
 7594SOL    HW224622   2.986   6.112   5.589
 7595SOL     OW24623   6.709   7.062   8.532
 7595SOL    HW124624   6.801   7.065   8.556
 7595SOL    HW224625   6.707   7.084   8.439
 7596SOL     OW24626   7.474   1.617   9.337
 7596SOL    HW124627   7.411   1.548   9.357
 7596SOL    HW224628   7.524   1.627   9.418
 7597SOL     OW24629   5.360   8.496   7.017
 7597SOL    HW124630   5.454   8.507   7.009
 7597SOL    HW224631   5.348   8.451   7.101
 7598SOL     OW24632  12.551  13.431   7.526
 7598SOL    HW124633  12.518  13.494   7.462
 7598SOL    HW224634  12.515  13.461   7.610
 7599SOL     OW24635   7.694   0.128   5.276
 7599SOL    HW124636   7.682   0.121   5.182
 7599SOL    HW224637   7.605   0.133   5.311
 7600SOL     OW24638   5.406  10.794   0.930
 7600SOL    HW124639   5.380  10.732   0.862
 7600SOL    HW224640   5.355  10.873   0.912
 7601SOL     OW24641   0.439   6.435   8.976
 7601SOL    HW124642   0.390   6.465   8.899
 7601SOL    HW224643   0.456   6.342   8.958
 7602SOL     OW24644  13.963   0.702  14.644
 7602SOL    HW124645  14.042   0.738  14.603
 7602SOL    HW224646  13.902   0.689  14.572
 7603SOL     OW24647  13.401  13.209   7.059
 7603SOL    HW124648  13.458  13.225   6.983
 7603SOL    HW224649  13.434  13.269   7.126
 7604SOL     OW24650   5.327   2.785  10.168
 7604SOL    HW124651   5.312   2.842  10.243
 7604SOL    HW224652   5.352   2.701  10.205
 7605SOL     OW24653   7.485  12.119   1.264
 7605SOL    HW124654   7.508  12.113   1.171
 7605SOL    HW224655   7.444  12.206   1.273
 7606SOL     OW24656   5.768   2.209   3.395
 7606SOL    HW124657   5.740   2.300   3.406
 7606SOL    HW224658   5.711   2.158   3.452
 7607SOL     OW24659   1.310   8.162   2.619
 7607SOL    HW124660   1.300   8.137   2.711
 7607SOL    HW224661   1.334   8.255   2.622
 7608SOL     OW24662   0.777   5.120  12.219
 7608SOL    HW124663   0.781   5.207  12.259
 7608SOL    HW224664   0.864   5.107  12.182
 7609SOL     OW24665   2.527   3.093   6.733
 7609SOL    HW124666   2.559   3.007   6.760
 7609SOL    HW224667   2.432   3.086   6.742
 7610SOL     OW24668   8.877   9.116  14.720
 7610SOL    HW124669   8.791   9.085  14.694
 7610SOL    HW224670   8.898   9.186  14.657
 7611SOL     OW24671   3.184   7.022  10.652
 7611SOL    HW124672   3.240   6.968  10.707
 7611SOL    HW224673   3.244   7.089  10.616
 7612SOL     OW24674   1.925  10.023   4.230
 7612SOL    HW124675   1.938  10.080   4.305
 7612SOL    HW224676   1.978   9.946   4.249
 7613SOL     OW24677   5.440  11.711  11.189
 7613SOL    HW124678   5.459  11.650  11.261
 7613SOL    HW224679   5.526  11.735  11.156
 7614SOL     OW24680  13.945   9.602   0.837
 7614SOL    HW124681  14.020   9.647   0.876
 7614SOL    HW224682  13.964   9.600   0.743
 7615SOL     OW24683   4.385   1.712   3.646
 7615SOL    HW124684   4.315   1.732   3.584
 7615SOL    HW224685   4.360   1.759   3.726
 7616SOL     OW24686   5.752   0.026   5.123
 7616SOL    HW124687   5.843   0.015   5.154
 7616SOL    HW224688   5.706  14.832   5.158
 7617SOL     OW24689  11.414  13.586   6.526
 7617SOL    HW124690  11.356  13.629   6.589
 7617SOL    HW224691  11.356  13.559   6.455
 7618SOL     OW24692   2.878   5.317  14.711
 7618SOL    HW124693   2.880   5.381  14.783
 7618SOL    HW224694   2.790   5.280  14.714
 7619SOL     OW24695   0.587   8.968   9.887
 7619SOL    HW124696   0.598   8.987   9.980
 7619SOL    HW224697   0.523   8.897   9.885
 7620SOL     OW24698   1.794   4.903   1.488
 7620SOL    HW124699   1.831   4.917   1.400
 7620SOL    HW224700   1.751   4.985   1.509
 7621SOL     OW24701  12.314  11.755   4.222
 7621SOL    HW124702  12.408  11.737   4.231
 7621SOL    HW224703  12.285  11.777   4.311
 7622SOL     OW24704   1.307  13.536   1.269
 7622SOL    HW124705   1.298  13.593   1.345
 7622SOL    HW224706   1.218  13.530   1.233
 7623SOL     OW24707   2.034   2.698  12.543
 7623SOL    HW124708   1.946   2.735  12.538
 7623SOL    HW224709   2.038   2.638  12.469
 7624SOL     OW24710  10.330   0.508  12.372
 7624SOL    HW124711  10.285   0.471  12.448
 7624SOL    HW224712  10.407   0.551  12.409
 7625SOL     OW24713  12.985   5.180   1.313
 7625SOL    HW124714  12.959   5.221   1.395
 7625SOL    HW224715  13.074   5.149   1.329
 7626SOL     OW24716  10.107  14.749  10.191
 7626SOL    HW124717  10.140  14.674  10.241
 7626SOL    HW224718  10.042  14.790  10.249
 7627SOL     OW24719   5.578  10.762   3.777
 7627SOL    HW124720   5.564  10.857   3.782
 7627SOL    HW224721   5.556  10.730   3.864
 7628SOL     OW24722   7.453   9.962  10.821
 7628SOL    HW124723   7.434   9.873  10.794
 7628SOL    HW224724   7.465   9.957  10.915
 7629SOL     OW24725   4.310  14.399   6.417
 7629SOL    HW124726   4.367  14.471   6.391
 7629SOL    HW224727   4.234  14.406   6.360
 7630SOL     OW24728   5.229  13.272   3.740
 7630SOL    HW124729   5.188  13.186   3.741
 7630SOL    HW224730   5.156  13.334   3.742
 7631SOL     OW24731   2.886   9.034   3.844
 7631SOL    HW124732   2.957   8.993   3.893
 7631SOL    HW224733   2.812   8.973   3.855
 7632SOL     OW24734  11.371   0.471   0.912
 7632SOL    HW124735  11.356   0.556   0.871
 7632SOL    HW224736  11.445   0.434   0.864
 7633SOL     OW24737   8.197   4.593   4.607
 7633SOL    HW124738   8.194   4.529   4.535
 7633SOL    HW224739   8.200   4.540   4.686
 7634SOL     OW24740  13.531  13.642  11.050
 7634SOL    HW124741  13.561  13.727  11.018
 7634SOL    HW224742  13.441  13.657  11.079
 7635SOL     OW24743   1.174  10.483   0.688
 7635SOL    HW124744   1.129  10.567   0.673
 7635SOL    HW224745   1.238  10.503   0.757
 7636SOL     OW24746   5.700   7.728   2.706
 7636SOL    HW124747   5.765   7.661   2.685
 7636SOL    HW224748   5.698   7.730   2.802
 7637SOL     OW24749  10.238   4.441   3.104
 7637SOL    HW124750  10.162   4.499   3.112
 7637SOL    HW224751  10.300   4.490   3.051
 7638SOL     OW24752   1.131   7.239   1.045
 7638SOL    HW124753   1.060   7.247   1.109
 7638SOL    HW224754   1.195   7.182   1.087
 7639SOL     OW24755   2.546   1.430   3.997
 7639SOL    HW124756   2.552   1.513   4.044
 7639SOL    HW224757   2.619   1.432   3.935
 7640SOL     OW24758   0.729  14.265   4.141
 7640SOL    HW124759   0.786  14.296   4.071
 7640SOL    HW224760   0.707  14.343   4.191
 7641SOL     OW24761   5.835   7.210   7.987
 7641SOL    HW124762   5.808   7.238   7.899
 7641SOL    HW224763   5.851   7.291   8.034
 7642SOL     OW24764   9.986   0.770   0.220
 7642SOL    HW124765   9.937   0.706   0.168
 7642SOL    HW224766   9.961   0.752   0.310
 7643SOL     OW24767   3.547  10.626   9.097
 7643SOL    HW124768   3.544  10.709   9.145
 7643SOL    HW224769   3.620  10.578   9.137
 7644SOL     OW24770   4.414  11.721   8.072
 7644SOL    HW124771   4.446  11.677   8.151
 7644SOL    HW224772   4.362  11.655   8.027
 7645SOL     OW24773  13.160   2.073   1.137
 7645SOL    HW124774  13.250   2.068   1.104
 7645SOL    HW224775  13.108   2.104   1.062
 7646SOL     OW24776  13.284  14.873   1.439
 7646SOL    HW124777  13.191  14.853   1.431
 7646SOL    HW224778  13.308  14.838   1.525
 7647SOL     OW24779   6.267   0.046   9.059
 7647SOL    HW124780   6.342   0.106   9.066
 7647SOL    HW224781   6.195   0.095   9.098
 7648SOL     OW24782   3.908   3.738   2.174
 7648SOL    HW124783   3.961   3.818   2.179
 7648SOL    HW224784   3.972   3.668   2.163
 7649SOL     OW24785  13.642   5.237  14.494
 7649SOL    HW124786  13.634   5.331  14.480
 7649SOL    HW224787  13.658   5.228  14.588
 7650SOL     OW24788  14.824   2.820   2.503
 7650SOL    HW124789  14.804   2.834   2.410
 7650SOL    HW224790  14.880   2.742   2.503
 7651SOL     OW24791   6.875  10.867  14.785
 7651SOL    HW124792   6.823  10.948  14.786
 7651SOL    HW224793   6.868  10.837  14.694
 7652SOL     OW24794   1.073  11.600   8.132
 7652SOL    HW124795   0.985  11.593   8.094
 7652SOL    HW224796   1.116  11.519   8.107
 7653SOL     OW24797   9.165  13.461   4.594
 7653SOL    HW124798   9.078  13.437   4.562
 7653SOL    HW224799   9.214  13.379   4.593
 7654SOL     OW24800  10.150   1.853   2.749
 7654SOL    HW124801  10.217   1.798   2.791
 7654SOL    HW224802  10.139   1.926   2.809
 7655SOL     OW24803   9.997  12.094  13.016
 7655SOL    HW124804   9.920  12.098  12.959
 7655SOL    HW224805   9.977  12.025  13.080
 7656SOL     OW24806   4.690   1.488   6.195
 7656SOL    HW124807   4.644   1.433   6.259
 7656SOL    HW224808   4.759   1.531   6.246
 7657SOL     OW24809   2.124  10.284   1.220
 7657SOL    HW124810   2.214  10.259   1.242
 7657SOL    HW224811   2.120  10.377   1.241
 7658SOL     OW24812   6.037   6.252   5.817
 7658SOL    HW124813   6.117   6.303   5.802
 7658SOL    HW224814   6.068   6.172   5.861
 7659SOL     OW24815   5.930   7.915  10.029
 7659SOL    HW124816   5.977   7.872  10.101
 7659SOL    HW224817   5.975   7.999  10.018
 7660SOL     OW24818   3.391   9.568   2.510
 7660SOL    HW124819   3.339   9.487   2.510
 7660SOL    HW224820   3.346   9.625   2.571
 7661SOL     OW24821   7.400   6.342   9.881
 7661SOL    HW124822   7.436   6.384   9.959
 7661SOL    HW224823   7.338   6.405   9.845
 7662SOL     OW24824   6.547   5.388   7.850
 7662SOL    HW124825   6.494   5.447   7.796
 7662SOL    HW224826   6.523   5.300   7.820
 7663SOL     OW24827   0.788   2.160  13.763
 7663SOL    HW124828   0.746   2.077  13.743
 7663SOL    HW224829   0.715   2.220  13.780
 7664SOL     OW24830   3.882   8.488   5.187
 7664SOL    HW124831   3.958   8.500   5.244
 7664SOL    HW224832   3.816   8.548   5.223
 7665SOL     OW24833   4.791   2.452   4.175
 7665SOL    HW124834   4.819   2.454   4.266
 7665SOL    HW224835   4.865   2.489   4.127
 7666SOL     OW24836   2.311   1.269   1.451
 7666SOL    HW124837   2.347   1.329   1.386
 7666SOL    HW224838   2.279   1.326   1.521
 7667SOL     OW24839   4.445   2.502   5.394
 7667SOL    HW124840   4.452   2.526   5.301
 7667SOL    HW224841   4.374   2.558   5.427
 7668SOL     OW24842   6.241  13.929   6.979
 7668SOL    HW124843   6.168  13.991   6.976
 7668SOL    HW224844   6.276  13.938   7.067
 7669SOL     OW24845   2.521   6.423  12.330
 7669SOL    HW124846   2.506   6.515  12.353
 7669SOL    HW224847   2.437   6.394  12.292
 7670SOL     OW24848   5.373   4.455  11.393
 7670SOL    HW124849   5.350   4.375  11.346
 7670SOL    HW224850   5.313   4.457  11.468
 7671SOL     OW24851   9.825   7.827   5.127
 7671SOL    HW124852   9.736   7.792   5.121
 7671SOL    HW224853   9.879   7.762   5.084
 7672SOL     OW24854   0.279   1.754   5.589
 7672SOL    HW124855   0.191   1.747   5.551
 7672SOL    HW224856   0.302   1.847   5.581
 7673SOL     OW24857   2.817  14.811   0.950
 7673SOL    HW124858   2.858  14.751   1.012
 7673SOL    HW224859   2.725  14.817   0.979
 7674SOL     OW24860   9.513  14.808  12.268
 7674SOL    HW124861   9.540  14.795  12.359
 7674SOL    HW224862   9.588  14.781  12.217
 7675SOL     OW24863  14.441  10.656   5.461
 7675SOL    HW124864  14.494  10.626   5.535
 7675SOL    HW224865  14.470  10.745   5.444
 7676SOL     OW24866  10.730   9.206   6.791
 7676SOL    HW124867  10.792   9.189   6.720
 7676SOL    HW224868  10.733   9.126   6.844
 7677SOL     OW24869  12.581   7.665   5.712
 7677SOL    HW124870  12.496   7.696   5.682
 7677SOL    HW224871  12.636   7.743   5.714
 7678SOL     OW24872   4.844  10.221   1.129
 7678SOL    HW124873   4.838  10.292   1.065
 7678SOL    HW224874   4.771  10.163   1.107
 7679SOL     OW24875   8.810  14.334   5.622
 7679SOL    HW124876   8.793  14.425   5.599
 7679SOL    HW224877   8.893  14.336   5.670
 7680SOL     OW24878   6.805  13.831   0.922
 7680SOL    HW124879   6.852  13.769   0.978
 7680SOL    HW224880   6.869  13.855   0.855
 7681SOL     OW24881   2.782   4.873   1.783
 7681SOL    HW124882   2.751   4.919   1.861
 7681SOL    HW224883   2.753   4.926   1.710
 7682SOL     OW24884   9.886   6.300  14.705
 7682SOL    HW124885   9.864   6.227  14.764
 7682SOL    HW224886   9.906   6.373  14.764
 7683SOL     OW24887   6.597  13.532   3.702
 7683SOL    HW124888   6.690  13.525   3.726
 7683SOL    HW224889   6.598  13.546   3.608
 7684SOL     OW24890  10.715   2.383   6.104
 7684SOL    HW124891  10.748   2.309   6.053
 7684SOL    HW224892  10.716   2.457   6.043
 7685SOL     OW24893   3.700   4.226  10.489
 7685SOL    HW124894   3.640   4.296  10.466
 7685SOL    HW224895   3.754   4.214  10.411
 7686SOL     OW24896   0.931  12.711  12.113
 7686SOL    HW124897   0.870  12.691  12.041
 7686SOL    HW224898   0.898  12.793  12.149
 7687SOL     OW24899   0.662  14.275  13.180
 7687SOL    HW124900   0.611  14.209  13.133
 7687SOL    HW224901   0.750  14.266  13.145
 7688SOL     OW24902  10.088   0.059   4.426
 7688SOL    HW124903  10.097   0.150   4.453
 7688SOL    HW224904  10.175   0.034   4.395
 7689SOL     OW24905  11.676   1.324  14.012
 7689SOL    HW124906  11.713   1.411  14.026
 7689SOL    HW224907  11.582   1.340  14.000
 7690SOL     OW24908   6.576   6.774   3.679
 7690SOL    HW124909   6.548   6.770   3.770
 7690SOL    HW224910   6.619   6.690   3.663
 7691SOL     OW24911  12.745  11.321   5.366
 7691SOL    HW124912  12.734  11.413   5.344
 7691SOL    HW224913  12.687  11.275   5.305
 7692SOL     OW24914   2.856   1.680  10.046
 7692SOL    HW124915   2.807   1.645  10.120
 7692SOL    HW224916   2.927   1.617  10.031
 7693SOL     OW24917   6.752   2.077   5.027
 7693SOL    HW124918   6.776   2.096   5.118
 7693SOL    HW224919   6.656   2.072   5.028
 7694SOL     OW24920  11.933   6.853   7.698
 7694SOL    HW124921  11.882   6.776   7.726
 7694SOL    HW224922  12.012   6.849   7.751
 7695SOL     OW24923  11.871  12.949   8.362
 7695SOL    HW124924  11.806  13.001   8.316
 7695SOL    HW224925  11.926  12.911   8.293
 7696SOL     OW24926   5.391   7.967   8.668
 7696SOL    HW124927   5.340   7.937   8.593
 7696SOL    HW224928   5.402   8.061   8.654
 7697SOL     OW24929   1.563   8.074   6.057
 7697SOL    HW124930   1.572   8.055   5.963
 7697SOL    HW224931   1.504   8.006   6.089
 7698SOL     OW24932   3.876  11.233   5.864
 7698SOL    HW124933   3.918  11.226   5.950
 7698SOL    HW224934   3.918  11.165   5.812
 7699SOL     OW24935   4.918  11.948   0.017
 7699SOL    HW124936   4.862  11.907   0.083
 7699SOL    HW224937   4.966  11.876  14.860
 7700SOL     OW24938   8.244   6.483   6.656
 7700SOL    HW124939   8.173   6.444   6.707
 7700SOL    HW224940   8.299   6.526   6.722
 7701SOL     OW24941   8.689   7.973  13.284
 7701SOL    HW124942   8.732   8.030  13.221
 7701SOL    HW224943   8.743   7.980  13.363
 7702SOL     OW24944   6.335   4.303   8.285
 7702SOL    HW124945   6.257   4.262   8.247
 7702SOL    HW224946   6.338   4.269   8.375
 7703SOL     OW24947  14.020   5.166   7.577
 7703SOL    HW124948  13.974   5.183   7.496
 7703SOL    HW224949  13.964   5.204   7.645
 7704SOL     OW24950  12.842   2.822   8.470
 7704SOL    HW124951  12.818   2.742   8.424
 7704SOL    HW224952  12.920   2.799   8.520
 7705SOL     OW24953   1.503   6.829   6.082
 7705SOL    HW124954   1.458   6.874   6.153
 7705SOL    HW224955   1.433   6.802   6.023
 7706SOL     OW24956   6.438   5.593  10.195
 7706SOL    HW124957   6.370   5.619  10.133
 7706SOL    HW224958   6.431   5.656  10.266
 7707SOL     OW24959   1.000   4.098   2.723
 7707SOL    HW124960   0.985   4.005   2.704
 7707SOL    HW224961   0.916   4.131   2.754
 7708SOL     OW24962  14.553   5.562  11.729
 7708SOL    HW124963  14.531   5.621  11.801
 7708SOL    HW224964  14.643   5.536  11.747
 7709SOL     OW24965   1.860  10.620  11.199
 7709SOL    HW124966   1.799  10.638  11.270
 7709SOL    HW224967   1.919  10.553  11.234
 7710SOL     OW24968   3.521  11.382  12.410
 7710SOL    HW124969   3.573  11.301  12.412
 7710SOL    HW224970   3.586  11.452  12.414
 7711SOL     OW24971   1.788   4.319   5.043
 7711SOL    HW124972   1.882   4.318   5.059
 7711SOL    HW224973   1.753   4.376   5.112
 7712SOL     OW24974  13.889   5.468   8.039
 7712SOL    HW124975  13.879   5.563   8.040
 7712SOL    HW224976  13.917   5.447   7.950
 7713SOL     OW24977   4.987   4.254   9.590
 7713SOL    HW124978   4.921   4.320   9.568
 7713SOL    HW224979   5.046   4.253   9.515
 7714SOL     OW24980  12.242   6.876   8.426
 7714SOL    HW124981  12.283   6.814   8.366
 7714SOL    HW224982  12.274   6.962   8.398
 7715SOL     OW24983  12.867  13.498   3.448
 7715SOL    HW124984  12.795  13.558   3.427
 7715SOL    HW224985  12.826  13.412   3.452
 7716SOL     OW24986   7.354   7.170  11.250
 7716SOL    HW124987   7.277   7.215  11.282
 7716SOL    HW224988   7.423   7.237  11.249
 7717SOL     OW24989  14.497   1.146   0.331
 7717SOL    HW124990  14.501   1.062   0.287
 7717SOL    HW224991  14.585   1.160   0.365
 7718SOL     OW24992   3.814   1.727   6.737
 7718SOL    HW124993   3.784   1.763   6.653
 7718SOL    HW224994   3.846   1.802   6.786
 7719SOL     OW24995   7.929   0.664   7.443
 7719SOL    HW124996   8.007   0.713   7.417
 7719SOL    HW224997   7.945   0.575   7.411
 7720SOL     OW24998  10.026   2.382   9.065
 7720SOL    HW124999  10.032   2.388   8.970
 7720SOL    HW225000   9.991   2.467   9.092
 7721SOL     OW25001   1.038  10.878   0.035
 7721SOL    HW125002   1.118  10.913   0.072
 7721SOL    HW225003   0.968  10.934   0.069
 7722SOL     OW25004   3.457  13.696  10.631
 7722SOL    HW125005   3.488  13.698  10.722
 7722SOL    HW225006   3.521  13.641  10.585
 7723SOL     OW25007  10.177   9.945  11.513
 7723SOL    HW125008  10.255   9.900  11.545
 7723SOL    HW225009  10.167  10.020  11.571
 7724SOL     OW25010   7.417   1.785   5.589
 7724SOL    HW125011   7.368   1.763   5.668
 7724SOL    HW225012   7.456   1.702   5.561
 7725SOL     OW25013  14.481  10.538   3.039
 7725SOL    HW125014  14.463  10.569   3.128
 7725SOL    HW225015  14.428  10.595   2.982
 7726SOL     OW25016   0.066   8.730   7.460
 7726SOL    HW125017  14.882   8.665   7.435
 7726SOL    HW225018   0.147   8.697   7.421
 7727SOL     OW25019   4.094   0.697   6.672
 7727SOL    HW125020   4.025   0.753   6.709
 7727SOL    HW225021   4.080   0.701   6.578
 7728SOL     OW25022   2.041  11.558  13.286
 7728SOL    HW125023   2.066  11.646  13.314
 7728SOL    HW225024   2.078  11.550  13.198
 7729SOL     OW25025   8.060   9.787  10.128
 7729SOL    HW125026   8.098   9.709  10.168
 7729SOL    HW225027   8.032   9.840  10.203
 7730SOL     OW25028  12.378   4.984   8.628
 7730SOL    HW125029  12.406   4.937   8.549
 7730SOL    HW225030  12.328   4.919   8.678
 7731SOL     OW25031  14.578  12.293   7.432
 7731SOL    HW125032  14.530  12.250   7.362
 7731SOL    HW225033  14.601  12.222   7.492
 7732SOL     OW25034   2.067   6.215  11.604
 7732SOL    HW125035   2.029   6.127  11.598
 7732SOL    HW225036   2.009   6.269  11.551
 7733SOL     OW25037   8.282   0.250   7.713
 7733SOL    HW125038   8.291   0.155   7.708
 7733SOL    HW225039   8.322   0.283   7.633
 7734SOL     OW25040   2.563   1.493  10.497
 7734SOL    HW125041   2.573   1.401  10.522
 7734SOL    HW225042   2.592   1.541  10.575
 7735SOL     OW25043   5.861  14.509   1.628
 7735SOL    HW125044   5.950  14.537   1.608
 7735SOL    HW225045   5.872  14.423   1.670
 7736SOL     OW25046   1.758   5.174   7.822
 7736SOL    HW125047   1.760   5.266   7.849
 7736SOL    HW225048   1.843   5.139   7.847
 7737SOL     OW25049   0.630  10.607  11.107
 7737SOL    HW125050   0.675  10.676  11.058
 7737SOL    HW225051   0.538  10.618  11.085
 7738SOL     OW25052  14.705  14.728  11.049
 7738SOL    HW125053  14.788  14.689  11.019
 7738SOL    HW225054  14.656  14.744  10.968
 7739SOL     OW25055   3.675  13.711  13.940
 7739SOL    HW125056   3.613  13.657  13.889
 7739SOL    HW225057   3.729  13.647  13.986
 7740SOL     OW25058   9.797   5.879   2.772
 7740SOL    HW125059   9.767   5.820   2.703
 7740SOL    HW225060   9.848   5.823   2.831
 7741SOL     OW25061  10.112   4.253   7.515
 7741SOL    HW125062  10.022   4.284   7.518
 7741SOL    HW225063  10.105   4.157   7.515
 7742SOL     OW25064   1.334  12.489   8.425
 7742SOL    HW125065   1.282  12.455   8.353
 7742SOL    HW225066   1.379  12.566   8.389
 7743SOL     OW25067   0.761  13.537   6.850
 7743SOL    HW125068   0.807  13.570   6.773
 7743SOL    HW225069   0.829  13.525   6.916
 7744SOL     OW25070   9.543   2.837   3.445
 7744SOL    HW125071   9.584   2.862   3.362
 7744SOL    HW225072   9.610   2.785   3.489
 7745SOL     OW25073   7.273   3.586   1.742
 7745SOL    HW125074   7.337   3.582   1.814
 7745SOL    HW225075   7.196   3.628   1.781
 7746SOL     OW25076   5.205   3.431   4.088
 7746SOL    HW125077   5.118   3.392   4.085
 7746SOL    HW225078   5.201   3.505   4.029
 7747SOL     OW25079  10.911   3.064   0.453
 7747SOL    HW125080  10.990   3.092   0.406
 7747SOL    HW225081  10.908   3.119   0.531
 7748SOL     OW25082  11.717   9.754   4.876
 7748SOL    HW125083  11.789   9.701   4.911
 7748SOL    HW225084  11.647   9.690   4.860
 7749SOL     OW25085  13.035   2.632  12.600
 7749SOL    HW125086  13.109   2.648  12.542
 7749SOL    HW225087  13.075   2.610  12.685
 7750SOL     OW25088  12.543  13.410   0.327
 7750SOL    HW125089  12.634  13.384   0.315
 7750SOL    HW225090  12.504  13.337   0.376
 7751SOL     OW25091  12.664   4.295   2.744
 7751SOL    HW125092  12.617   4.296   2.827
 7751SOL    HW225093  12.745   4.343   2.761
 7752SOL     OW25094  10.462   4.653  12.914
 7752SOL    HW125095  10.390   4.590  12.913
 7752SOL    HW225096  10.420   4.738  12.927
 7753SOL     OW25097   2.979   0.478   9.962
 7753SOL    HW125098   3.055   0.498  10.017
 7753SOL    HW225099   2.957   0.561   9.920
 7754SOL     OW25100   6.715  14.776   3.053
 7754SOL    HW125101   6.766  14.816   3.124
 7754SOL    HW225102   6.626  14.774   3.087
 7755SOL     OW25103   2.478   0.747   2.259
 7755SOL    HW125104   2.391   0.708   2.251
 7755SOL    HW225105   2.462   0.841   2.251
 7756SOL     OW25106  11.428   3.956  11.490
 7756SOL    HW125107  11.503   3.897  11.492
 7756SOL    HW225108  11.379   3.937  11.570
 7757SOL     OW25109   1.759  11.724   3.483
 7757SOL    HW125110   1.770  11.720   3.388
 7757SOL    HW225111   1.664  11.720   3.496
 7758SOL     OW25112  10.181   4.650   8.924
 7758SOL    HW125113  10.212   4.722   8.869
 7758SOL    HW225114  10.224   4.664   9.008
 7759SOL     OW25115  12.116   4.229  14.200
 7759SOL    HW125116  12.099   4.322  14.212
 7759SOL    HW225117  12.059   4.202  14.128
 7760SOL     OW25118   3.581  12.833   1.142
 7760SOL    HW125119   3.507  12.888   1.117
 7760SOL    HW225120   3.578  12.759   1.081
 7761SOL     OW25121   0.102  12.471  13.476
 7761SOL    HW125122   0.018  12.468  13.521
 7761SOL    HW225123   0.139  12.556  13.500
 7762SOL     OW25124   4.572   6.061   7.185
 7762SOL    HW125125   4.575   5.981   7.237
 7762SOL    HW225126   4.655   6.105   7.204
 7763SOL     OW25127   7.584   0.267   9.957
 7763SOL    HW125128   7.614   0.193  10.010
 7763SOL    HW225129   7.579   0.232   9.868
 7764SOL     OW25130  10.462   1.218   2.031
 7764SOL    HW125131  10.494   1.148   1.974
 7764SOL    HW225132  10.398   1.176   2.088
 7765SOL     OW25133  10.918   1.621   0.819
 7765SOL    HW125134  10.949   1.572   0.743
 7765SOL    HW225135  10.982   1.692   0.829
 7766SOL     OW25136   1.769   1.249   8.372
 7766SOL    HW125137   1.786   1.333   8.414
 7766SOL    HW225138   1.856   1.212   8.357
 7767SOL     OW25139   0.879   5.770   6.153
 7767SOL    HW125140   0.916   5.706   6.214
 7767SOL    HW225141   0.930   5.759   6.073
 7768SOL     OW25142   8.084   4.781   0.623
 7768SOL    HW125143   8.161   4.838   0.622
 7768SOL    HW225144   8.120   4.694   0.604
 7769SOL     OW25145   6.784  11.065   9.076
 7769SOL    HW125146   6.761  10.977   9.105
 7769SOL    HW225147   6.739  11.123   9.138
 7770SOL     OW25148  13.625   0.671  14.175
 7770SOL    HW125149  13.706   0.668  14.125
 7770SOL    HW225150  13.558   0.639  14.114
 7771SOL     OW25151   5.892  14.860  11.484
 7771SOL    HW125152   5.855   0.051  11.435
 7771SOL    HW225153   5.865  14.876  11.575
 7772SOL     OW25154   0.587  10.582  11.975
 7772SOL    HW125155   0.609  10.637  11.899
 7772SOL    HW225156   0.504  10.618  12.007
 7773SOL     OW25157  10.919   2.603   6.932
 7773SOL    HW125158  10.976   2.636   6.863
 7773SOL    HW225159  10.853   2.672   6.944
 7774SOL     OW25160  14.392   2.970   4.450
 7774SOL    HW125161  14.459   3.019   4.403
 7774SOL    HW225162  14.391   3.008   4.538
 7775SOL     OW25163   7.031  10.743  14.146
 7775SOL    HW125164   6.993  10.741  14.234
 7775SOL    HW225165   7.124  10.721  14.160
 7776SOL     OW25166   0.968  10.348  14.118
 7776SOL    HW125167   1.032  10.411  14.150
 7776SOL    HW225168   0.886  10.372  14.163
 7777SOL     OW25169   8.482   8.366  13.694
 7777SOL    HW125170   8.389   8.354  13.675
 7777SOL    HW225171   8.524   8.291  13.652
 7778SOL     OW25172  14.737  11.589   9.012
 7778SOL    HW125173  14.726  11.684   9.003
 7778SOL    HW225174  14.818  11.578   9.061
 7779SOL     OW25175   1.268   9.399   7.949
 7779SOL    HW125176   1.318   9.388   7.869
 7779SOL    HW225177   1.179   9.419   7.920
 7780SOL     OW25178   0.980   3.837   8.281
 7780SOL    HW125179   0.953   3.910   8.225
 7780SOL    HW225180   1.029   3.877   8.352
 7781SOL     OW25181   1.622  11.288   6.699
 7781SOL    HW125182   1.601  11.305   6.791
 7781SOL    HW225183   1.690  11.220   6.701
 7782SOL     OW25184   5.413   5.395   6.884
 7782SOL    HW125185   5.347   5.326   6.870
 7782SOL    HW225186   5.362   5.473   6.905
 7783SOL     OW25187   2.433  14.246   2.971
 7783SOL    HW125188   2.388  14.211   3.047
 7783SOL    HW225189   2.371  14.308   2.932
 7784SOL     OW25190   9.265  12.289  13.514
 7784SOL    HW125191   9.206  12.356  13.479
 7784SOL    HW225192   9.338  12.286  13.452
 7785SOL     OW25193  10.017  14.400   3.494
 7785SOL    HW125194  10.012  14.378   3.587
 7785SOL    HW225195   9.977  14.487   3.487
 7786SOL     OW25196   7.353   2.634   4.610
 7786SOL    HW125197   7.420   2.702   4.601
 7786SOL    HW225198   7.287   2.656   4.544
 7787SOL     OW25199   1.739  14.517   5.493
 7787SOL    HW125200   1.711  14.501   5.583
 7787SOL    HW225201   1.819  14.465   5.483
 7788SOL     OW25202   7.221   5.032   3.087
 7788SOL    HW125203   7.159   5.097   3.053
 7788SOL    HW225204   7.299   5.084   3.109
 7789SOL     OW25205   5.386  13.499  11.486
 7789SOL    HW125206   5.455  13.530  11.426
 7789SOL    HW225207   5.418  13.415  11.517
 7790SOL     OW25208  11.298   3.567  13.262
 7790SOL    HW125209  11.229   3.630  13.240
 7790SOL    HW225210  11.378   3.608  13.230
 7791SOL     OW25211  14.436   0.410  12.764
 7791SOL    HW125212  14.495   0.415  12.839
 7791SOL    HW225213  14.438   0.318  12.739
 7792SOL     OW25214   7.191   1.700   0.448
 7792SOL    HW125215   7.240   1.695   0.530
 7792SOL    HW225216   7.136   1.622   0.448
 7793SOL     OW25217   0.065  12.417   8.187
 7793SOL    HW125218   0.015  12.483   8.141
 7793SOL    HW225219   0.000  12.353   8.216
 7794SOL     OW25220  12.931  14.837   2.393
 7794SOL    HW125221  12.912  14.791   2.475
 7794SOL    HW225222  13.007   0.009   2.412
 7795SOL     OW25223   3.303   3.285   1.172
 7795SOL    HW125224   3.272   3.278   1.082
 7795SOL    HW225225   3.302   3.195   1.205
 7796SOL     OW25226   4.438  14.224   5.240
 7796SOL    HW125227   4.516  14.263   5.280
 7796SOL    HW225228   4.435  14.135   5.274
 7797SOL     OW25229  14.243   1.913   1.648
 7797SOL    HW125230  14.291   1.987   1.683
 7797SOL    HW225231  14.290   1.890   1.567
 7798SOL     OW25232  13.738   4.783   6.661
 7798SOL    HW125233  13.676   4.808   6.729
 7798SOL    HW225234  13.768   4.696   6.686
 7799SOL     OW25235  14.293  10.039  12.152
 7799SOL    HW125236  14.266  10.098  12.223
 7799SOL    HW225237  14.348   9.974  12.196
 7800SOL     OW25238  10.641  13.480   0.653
 7800SOL    HW125239  10.615  13.570   0.669
 7800SOL    HW225240  10.614  13.461   0.564
 7801SOL     OW25241  11.541   2.760  10.624
 7801SOL    HW125242  11.591   2.709  10.560
 7801SOL    HW225243  11.518   2.697  10.692
 7802SOL     OW25244   9.289   7.219   2.597
 7802SOL    HW125245   9.195   7.235   2.595
 7802SOL    HW225246   9.315   7.216   2.505
 7803SOL     OW25247  12.819   0.612  11.026
 7803SOL    HW125248  12.772   0.547  11.078
 7803SOL    HW225249  12.751   0.670  10.992
 7804SOL     OW25250   2.240   3.496   9.406
 7804SOL    HW125251   2.234   3.479   9.500
 7804SOL    HW225252   2.149   3.500   9.377
 7805SOL     OW25253   2.974   8.977   1.181
 7805SOL    HW125254   2.958   9.072   1.183
 7805SOL    HW225255   2.887   8.939   1.168
 7806SOL     OW25256   6.734  13.988   6.198
 7806SOL    HW125257   6.651  13.975   6.152
 7806SOL    HW225258   6.742  13.912   6.255
 7807SOL     OW25259  12.188   1.318   4.893
 7807SOL    HW125260  12.244   1.247   4.924
 7807SOL    HW225261  12.238   1.398   4.910
 7808SOL     OW25262   1.269   0.179   3.449
 7808SOL    HW125263   1.279   0.232   3.370
 7808SOL    HW225264   1.319   0.099   3.431
 7809SOL     OW25265  13.920  10.951   2.340
 7809SOL    HW125266  13.847  10.914   2.390
 7809SOL    HW225267  13.995  10.945   2.399
 7810SOL     OW25268   1.114   6.458   6.116
 7810SOL    HW125269   1.146   6.482   6.029
 7810SOL    HW225270   1.135   6.365   6.124
 7811SOL     OW25271   7.175   0.091   3.628
 7811SOL    HW125272   7.255   0.053   3.592
 7811SOL    HW225273   7.104   0.044   3.585
 7812SOL     OW25274   0.245  12.936  10.975
 7812SOL    HW125275   0.200  12.888  11.045
 7812SOL    HW225276   0.219  12.891  10.895
 7813SOL     OW25277   9.690   7.312   3.056
 7813SOL    HW125278   9.718   7.402   3.075
 7813SOL    HW225279   9.622   7.322   2.990
 7814SOL     OW25280  11.140  14.806  12.910
 7814SOL    HW125281  11.047  14.797  12.932
 7814SOL    HW225282  11.157   0.018  12.920
 7815SOL     OW25283   5.643   6.553   5.579
 7815SOL    HW125284   5.612   6.578   5.666
 7815SOL    HW225285   5.564   6.527   5.532
 7816SOL     OW25286   0.622  11.000  11.611
 7816SOL    HW125287   0.591  10.996  11.520
 7816SOL    HW225288   0.542  11.001  11.663
 7817SOL     OW25289  12.215   0.957   5.552
 7817SOL    HW125290  12.202   1.045   5.586
 7817SOL    HW225291  12.309   0.951   5.535
 7818SOL     OW25292  11.258  10.442  12.305
 7818SOL    HW125293  11.345  10.482  12.312
 7818SOL    HW225294  11.210  10.476  12.381
 7819SOL     OW25295  11.619   0.530  13.700
 7819SOL    HW125296  11.532   0.559  13.730
 7819SOL    HW225297  11.679   0.564  13.766
 7820SOL     OW25298   5.831   7.091   9.466
 7820SOL    HW125299   5.873   7.035   9.401
 7820SOL    HW225300   5.898   7.155   9.489
 7821SOL     OW25301   4.346   5.394   2.176
 7821SOL    HW125302   4.302   5.342   2.243
 7821SOL    HW225303   4.407   5.450   2.225
 7822SOL     OW25304   0.086   4.691  12.838
 7822SOL    HW125305   0.090   4.772  12.889
 7822SOL    HW225306   0.024   4.636  12.886
 7823SOL     OW25307   0.361  12.140   2.184
 7823SOL    HW125308   0.417  12.069   2.216
 7823SOL    HW225309   0.291  12.096   2.135
 7824SOL     OW25310   4.056  10.718   1.863
 7824SOL    HW125311   4.120  10.698   1.930
 7824SOL    HW225312   4.089  10.676   1.784
 7825SOL     OW25313   4.936   3.335   5.096
 7825SOL    HW125314   4.893   3.420   5.094
 7825SOL    HW225315   5.004   3.340   5.029
 7826SOL     OW25316   2.632  13.690  11.127
 7826SOL    HW125317   2.632  13.773  11.175
 7826SOL    HW225318   2.675  13.710  11.044
 7827SOL     OW25319   5.988   4.496   0.802
 7827SOL    HW125320   6.077   4.504   0.769
 7827SOL    HW225321   5.998   4.472   0.894
 7828SOL     OW25322   4.068  10.174   4.131
 7828SOL    HW125323   4.100  10.135   4.050
 7828SOL    HW225324   4.019  10.103   4.174
 7829SOL     OW25325   7.347   7.956   1.321
 7829SOL    HW125326   7.321   8.000   1.240
 7829SOL    HW225327   7.267   7.915   1.354
 7830SOL     OW25328   0.950   1.599  11.262
 7830SOL    HW125329   0.996   1.577  11.181
 7830SOL    HW225330   0.961   1.694  11.271
 7831SOL     OW25331   7.628   5.234   6.451
 7831SOL    HW125332   7.535   5.218   6.439
 7831SOL    HW225333   7.662   5.152   6.488
 7832SOL     OW25334   8.047   7.883   2.363
 7832SOL    HW125335   8.142   7.867   2.363
 7832SOL    HW225336   8.038   7.977   2.380
 7833SOL     OW25337   6.277   9.079   4.419
 7833SOL    HW125338   6.249   9.050   4.506
 7833SOL    HW225339   6.199   9.117   4.379
 7834SOL     OW25340   5.105   1.227  10.753
 7834SOL    HW125341   5.114   1.257  10.844
 7834SOL    HW225342   5.031   1.167  10.755
 7835SOL     OW25343   2.991   6.384  10.589
 7835SOL    HW125344   2.921   6.421  10.643
 7835SOL    HW225345   3.023   6.309  10.640
 7836SOL     OW25346   0.325   8.299  10.241
 7836SOL    HW125347   0.404   8.323  10.290
 7836SOL    HW225348   0.350   8.220  10.193
 7837SOL     OW25349   2.009   4.177  14.688
 7837SOL    HW125350   1.954   4.190  14.611
 7837SOL    HW225351   1.981   4.244  14.750
 7838SOL     OW25352   2.928   9.955   4.364
 7838SOL    HW125353   2.888   9.976   4.448
 7838SOL    HW225354   2.857   9.921   4.310
 7839SOL     OW25355  12.610  11.746  13.050
 7839SOL    HW125356  12.631  11.764  13.141
 7839SOL    HW225357  12.632  11.654  13.037
 7840SOL     OW25358   7.504   7.706   3.627
 7840SOL    HW125359   7.595   7.717   3.657
 7840SOL    HW225360   7.456   7.776   3.672
 7841SOL     OW25361   9.450   9.067  13.393
 7841SOL    HW125362   9.409   8.982  13.409
 7841SOL    HW225363   9.459   9.071  13.297
 7842SOL     OW25364   6.681   5.427  13.777
 7842SOL    HW125365   6.644   5.489  13.715
 7842SOL    HW225366   6.749   5.381  13.727
 7843SOL     OW25367   7.075   8.524  12.359
 7843SOL    HW125368   7.018   8.516  12.435
 7843SOL    HW225369   7.026   8.582  12.299
 7844SOL     OW25370   3.295  14.823   3.461
 7844SOL    HW125371   3.245  14.751   3.423
 7844SOL    HW225372   3.332  14.869   3.386
 7845SOL     OW25373   5.822   9.101   7.820
 7845SOL    HW125374   5.883   9.173   7.837
 7845SOL    HW225375   5.737   9.134   7.850
 7846SOL     OW25376  13.864  13.835  10.630
 7846SOL    HW125377  13.822  13.817  10.545
 7846SOL    HW225378  13.927  13.904  10.611
 7847SOL     OW25379  11.708   3.017   3.022
 7847SOL    HW125380  11.729   2.950   3.088
 7847SOL    HW225381  11.655   3.081   3.069
 7848SOL     OW25382  10.158   5.779   2.496
 7848SOL    HW125383  10.125   5.867   2.478
 7848SOL    HW225384  10.216   5.759   2.423
 7849SOL     OW25385   9.230  10.390  14.451
 7849SOL    HW125386   9.250  10.355  14.364
 7849SOL    HW225387   9.173  10.325  14.491
 7850SOL     OW25388   1.867  10.300   0.899
 7850SOL    HW125389   1.917  10.370   0.856
 7850SOL    HW225390   1.777  10.330   0.897
 7851SOL     OW25391   4.554  12.463   9.367
 7851SOL    HW125392   4.514  12.455   9.454
 7851SOL    HW225393   4.646  12.442   9.380
 7852SOL     OW25394  10.020  12.775   9.103
 7852SOL    HW125395  10.062  12.840   9.159
 7852SOL    HW225396   9.963  12.725   9.161
 7853SOL     OW25397   3.938   4.438   6.950
 7853SOL    HW125398   3.955   4.373   6.883
 7853SOL    HW225399   3.906   4.515   6.902
 7854SOL     OW25400   1.951   8.701  12.316
 7854SOL    HW125401   1.952   8.661  12.229
 7854SOL    HW225402   1.987   8.789  12.302
 7855SOL     OW25403  10.548   1.002   3.320
 7855SOL    HW125404  10.529   0.912   3.294
 7855SOL    HW225405  10.643   1.009   3.314
 7856SOL     OW25406   6.895   5.810  11.413
 7856SOL    HW125407   6.950   5.880  11.377
 7856SOL    HW225408   6.811   5.852  11.430
 7857SOL     OW25409   6.326   6.846   6.126
 7857SOL    HW125410   6.401   6.896   6.159
 7857SOL    HW225411   6.267   6.912   6.090
 7858SOL     OW25412  13.615   2.271   8.318
 7858SOL    HW125413  13.620   2.175   8.310
 7858SOL    HW225414  13.522   2.290   8.308
 7859SOL     OW25415   9.958  12.937  10.026
 7859SOL    HW125416   9.944  12.963  10.117
 7859SOL    HW225417  10.003  13.012   9.986
 7860SOL     OW25418   7.807   3.614   7.480
 7860SOL    HW125419   7.861   3.656   7.413
 7860SOL    HW225420   7.864   3.608   7.557
 7861SOL     OW25421  14.840   2.551  13.990
 7861SOL    HW125422   0.010   2.550  13.910
 7861SOL    HW225423   0.022   2.534  14.060
 7862SOL     OW25424   6.229   7.776   8.764
 7862SOL    HW125425   6.228   7.709   8.833
 7862SOL    HW225426   6.137   7.791   8.743
 7863SOL     OW25427   0.971   2.887   1.861
 7863SOL    HW125428   0.974   2.887   1.766
 7863SOL    HW225429   1.004   2.801   1.887
 7864SOL     OW25430   5.783  14.178   3.062
 7864SOL    HW125431   5.870  14.139   3.065
 7864SOL    HW225432   5.731  14.128   3.126
 7865SOL     OW25433  12.913  12.357  10.350
 7865SOL    HW125434  12.855  12.376  10.424
 7865SOL    HW225435  12.918  12.439  10.302
 7866SOL     OW25436  14.224  12.197   1.301
 7866SOL    HW125437  14.299  12.162   1.253
 7866SOL    HW225438  14.151  12.140   1.277
 7867SOL     OW25439   3.670  12.876   0.135
 7867SOL    HW125440   3.617  12.796   0.131
 7867SOL    HW225441   3.709  12.875   0.222
 7868SOL     OW25442   2.731  12.389   0.198
 7868SOL    HW125443   2.658  12.373   0.138
 7868SOL    HW225444   2.743  12.305   0.243
 7869SOL     OW25445  14.661   9.577  14.443
 7869SOL    HW125446  14.646   9.579  14.537
 7869SOL    HW225447  14.755   9.588  14.432
 7870SOL     OW25448  12.118   1.669   0.620
 7870SOL    HW125449  12.166   1.747   0.647
 7870SOL    HW225450  12.040   1.703   0.575
 7871SOL     OW25451   1.814   2.881  12.573
 7871SOL    HW125452   1.737   2.824  12.576
 7871SOL    HW225453   1.789   2.951  12.512
 7872SOL     OW25454   2.098   0.746  13.196
 7872SOL    HW125455   2.157   0.673  13.212
 7872SOL    HW225456   2.142   0.798  13.129
 7873SOL     OW25457   1.232   8.884  11.822
 7873SOL    HW125458   1.323   8.880  11.852
 7873SOL    HW225459   1.193   8.954  11.875
 7874SOL     OW25460   8.548   8.812  13.294
 7874SOL    HW125461   8.550   8.900  13.331
 7874SOL    HW225462   8.492   8.762  13.354
 7875SOL     OW25463   9.819   7.288   9.366
 7875SOL    HW125464   9.725   7.286   9.385
 7875SOL    HW225465   9.861   7.288   9.452
 7876SOL     OW25466   1.005   4.937  13.024
 7876SOL    HW125467   0.914   4.912  13.006
 7876SOL    HW225468   1.000   4.994  13.101
 7877SOL     OW25469   3.574  14.594   9.532
 7877SOL    HW125470   3.605  14.666   9.478
 7877SOL    HW225471   3.603  14.615   9.621
 7878SOL     OW25472   1.099  12.465  12.584
 7878SOL    HW125473   1.073  12.435  12.497
 7878SOL    HW225474   1.039  12.421  12.644
 7879SOL     OW25475   2.265   6.603   2.205
 7879SOL    HW125476   2.313   6.596   2.122
 7879SOL    HW225477   2.200   6.532   2.200
 7880SOL     OW25478   1.022  12.626   5.794
 7880SOL    HW125479   0.979  12.699   5.749
 7880SOL    HW225480   0.989  12.630   5.884
 7881SOL     OW25481   5.703   1.687   9.164
 7881SOL    HW125482   5.721   1.763   9.109
 7881SOL    HW225483   5.622   1.709   9.209
 7882SOL     OW25484  10.213   8.943   5.759
 7882SOL    HW125485  10.122   8.921   5.739
 7882SOL    HW225486  10.243   8.992   5.683
 7883SOL     OW25487   4.302   2.315   6.134
 7883SOL    HW125488   4.350   2.377   6.188
 7883SOL    HW225489   4.242   2.271   6.194
 7884SOL     OW25490   8.851   2.903   5.899
 7884SOL    HW125491   8.916   2.859   5.844
 7884SOL    HW225492   8.797   2.952   5.836
 7885SOL     OW25493   5.316  13.222   0.962
 7885SOL    HW125494   5.280  13.307   0.986
 7885SOL    HW225495   5.409  13.239   0.944
 7886SOL     OW25496   2.061  13.985   4.956
 7886SOL    HW125497   2.062  13.983   5.052
 7886SOL    HW225498   2.070  13.893   4.930
 7887SOL     OW25499   9.117  11.634   2.905
 7887SOL    HW125500   9.207  11.646   2.936
 7887SOL    HW225501   9.065  11.692   2.960
 7888SOL     OW25502   0.065  12.973   6.497
 7888SOL    HW125503   0.001  13.005   6.560
 7888SOL    HW225504   0.045  13.020   6.416
 7889SOL     OW25505   6.320  11.673   1.348
 7889SOL    HW125506   6.236  11.637   1.377
 7889SOL    HW225507   6.355  11.716   1.426
 7890SOL     OW25508   1.615  11.080   6.984
 7890SOL    HW125509   1.708  11.089   7.003
 7890SOL    HW225510   1.578  11.167   6.999
 7891SOL     OW25511   2.645  10.790   5.276
 7891SOL    HW125512   2.567  10.845   5.284
 7891SOL    HW225513   2.659  10.756   5.365
 7892SOL     OW25514  12.011   1.865  11.680
 7892SOL    HW125515  11.951   1.805  11.725
 7892SOL    HW225516  11.967   1.886  11.598
 7893SOL     OW25517   5.847  12.489   8.318
 7893SOL    HW125518   5.898  12.450   8.389
 7893SOL    HW225519   5.900  12.476   8.240
 7894SOL     OW25520   5.209   9.665   6.010
 7894SOL    HW125521   5.290   9.621   5.988
 7894SOL    HW225522   5.140   9.602   5.989
 7895SOL     OW25523  14.678   0.732  14.099
 7895SOL    HW125524  14.678   0.717  14.194
 7895SOL    HW225525  14.716   0.820  14.089
 7896SOL     OW25526   4.986  11.075   6.394
 7896SOL    HW125527   5.056  11.114   6.446
 7896SOL    HW225528   4.956  11.145   6.336
 7897SOL     OW25529  11.753   4.253  10.325
 7897SOL    HW125530  11.662   4.282  10.330
 7897SOL    HW225531  11.757   4.176  10.381
 7898SOL     OW25532  14.583   5.928   7.325
 7898SOL    HW125533  14.584   5.836   7.351
 7898SOL    HW225534  14.492   5.946   7.303
 7899SOL     OW25535  13.538   9.521  14.021
 7899SOL    HW125536  13.610   9.472  14.059
 7899SOL    HW225537  13.459   9.480  14.058
 7900SOL     OW25538   9.514   0.473   7.584
 7900SOL    HW125539   9.501   0.497   7.493
 7900SOL    HW225540   9.521   0.556   7.631
 7901SOL     OW25541   6.808   5.340   4.626
 7901SOL    HW125542   6.833   5.288   4.702
 7901SOL    HW225543   6.814   5.278   4.553
 7902SOL     OW25544   4.638   7.388   6.590
 7902SOL    HW125545   4.655   7.366   6.681
 7902SOL    HW225546   4.644   7.305   6.543
 7903SOL     OW25547   0.933  11.076   8.035
 7903SOL    HW125548   0.897  11.023   8.106
 7903SOL    HW225549   0.858  11.126   8.002
 7904SOL     OW25550  10.058   4.721  11.592
 7904SOL    HW125551  10.044   4.721  11.686
 7904SOL    HW225552  10.108   4.641  11.574
 7905SOL     OW25553   4.427  11.089  10.758
 7905SOL    HW125554   4.490  11.160  10.771
 7905SOL    HW225555   4.407  11.058  10.846
 7906SOL     OW25556  14.488  13.114   9.819
 7906SOL    HW125557  14.459  13.028   9.852
 7906SOL    HW225558  14.534  13.094   9.738
 7907SOL     OW25559  11.736  11.777   7.582
 7907SOL    HW125560  11.822  11.791   7.621
 7907SOL    HW225561  11.735  11.834   7.505
 7908SOL     OW25562   3.085  10.019   9.845
 7908SOL    HW125563   3.138  10.087   9.886
 7908SOL    HW225564   3.014  10.002   9.908
 7909SOL     OW25565   0.841   9.841   3.276
 7909SOL    HW125566   0.882   9.914   3.229
 7909SOL    HW225567   0.914   9.793   3.315
 7910SOL     OW25568   6.383  14.822  11.445
 7910SOL    HW125569   6.460  14.786  11.489
 7910SOL    HW225570   6.361  14.758  11.378
 7911SOL     OW25571   6.830   6.851   2.359
 7911SOL    HW125572   6.786   6.912   2.300
 7911SOL    HW225573   6.862   6.781   2.302
 7912SOL     OW25574  11.512   8.596   5.582
 7912SOL    HW125575  11.491   8.557   5.667
 7912SOL    HW225576  11.472   8.537   5.518
 7913SOL     OW25577   1.521   5.302   1.652
 7913SOL    HW125578   1.449   5.243   1.676
 7913SOL    HW225579   1.568   5.255   1.584
 7914SOL     OW25580  10.665  14.760   9.864
 7914SOL    HW125581  10.581  14.731   9.900
 7914SOL    HW225582  10.725  14.688   9.882
 7915SOL     OW25583   3.606   5.707   5.063
 7915SOL    HW125584   3.686   5.744   5.101
 7915SOL    HW225585   3.593   5.757   4.982
 7916SOL     OW25586  14.764   4.404  11.819
 7916SOL    HW125587  14.698   4.356  11.769
 7916SOL    HW225588  14.725   4.490  11.834
 7917SOL     OW25589  14.374  14.505  14.590
 7917SOL    HW125590  14.467  14.529  14.584
 7917SOL    HW225591  14.373  14.412  14.568
 7918SOL     OW25592  14.825   2.151   3.982
 7918SOL    HW125593  14.868   2.235   3.965
 7918SOL    HW225594  14.731   2.171   3.982
 7919SOL     OW25595   8.676   1.080  13.224
 7919SOL    HW125596   8.768   1.087  13.248
 7919SOL    HW225597   8.647   0.998  13.264
 7920SOL     OW25598   7.136  12.743   1.353
 7920SOL    HW125599   7.098  12.667   1.308
 7920SOL    HW225600   7.061  12.793   1.383
 7921SOL     OW25601   6.126  12.174   2.041
 7921SOL    HW125602   6.199  12.221   2.001
 7921SOL    HW225603   6.073  12.242   2.082
 7922SOL     OW25604  12.092   7.373   0.929
 7922SOL    HW125605  12.018   7.404   0.981
 7922SOL    HW225606  12.097   7.280   0.947
 7923SOL     OW25607  10.240   1.972  12.998
 7923SOL    HW125608  10.299   1.904  12.964
 7923SOL    HW225609  10.260   1.977  13.091
 7924SOL     OW25610   3.434   1.351  14.321
 7924SOL    HW125611   3.438   1.436  14.278
 7924SOL    HW225612   3.465   1.367  14.410
 7925SOL     OW25613   9.036   5.111   0.974
 7925SOL    HW125614   9.021   5.047   1.043
 7925SOL    HW225615   9.043   5.059   0.894
 7926SOL     OW25616   2.725   4.909   7.925
 7926SOL    HW125617   2.673   4.981   7.890
 7926SOL    HW225618   2.661   4.851   7.967
 7927SOL     OW25619   5.326   0.019  12.116
 7927SOL    HW125620   5.409   0.015  12.162
 7927SOL    HW225621   5.329   0.101  12.067
 7928SOL     OW25622  14.466  11.027   6.439
 7928SOL    HW125623  14.430  11.006   6.526
 7928SOL    HW225624  14.389  11.051   6.387
 7929SOL     OW25625  13.156   7.869   8.529
 7929SOL    HW125626  13.136   7.949   8.579
 7929SOL    HW225627  13.107   7.878   8.448
 7930SOL     OW25628   3.226  14.819   7.626
 7930SOL    HW125629   3.199  14.866   7.546
 7930SOL    HW225630   3.162  14.846   7.692
 7931SOL     OW25631   0.626  14.684   9.755
 7931SOL    HW125632   0.686  14.648   9.690
 7931SOL    HW225633   0.544  14.635   9.743
 7932SOL     OW25634   3.746   7.767  14.397
 7932SOL    HW125635   3.736   7.725  14.483
 7932SOL    HW225636   3.824   7.727  14.360
 7933SOL     OW25637   4.202   0.202   8.901
 7933SOL    HW125638   4.119   0.247   8.911
 7933SOL    HW225639   4.201   0.169   8.811
 7934SOL     OW25640   7.389  11.440   3.800
 7934SOL    HW125641   7.481  11.466   3.804
 7934SOL    HW225642   7.374  11.421   3.708
 7935SOL     OW25643   2.273   8.355  11.022
 7935SOL    HW125644   2.202   8.311  10.975
 7935SOL    HW225645   2.229   8.401  11.094
 7936SOL     OW25646   8.898   4.490  11.380
 7936SOL    HW125647   8.919   4.477  11.288
 7936SOL    HW225648   8.983   4.503  11.423
 7937SOL     OW25649   2.281  12.443   8.418
 7937SOL    HW125650   2.245  12.504   8.483
 7937SOL    HW225651   2.298  12.497   8.341
 7938NA      NA25652  11.155  14.445   3.347
 7939NA      NA25653   2.838   5.703   6.827
 7940NA      NA25654  12.645  14.344   1.840
 7941NA      NA25655   5.184   9.450  11.866
 7942NA      NA25656   3.325   6.200   9.551
 7943NA      NA25657   3.990   7.667  11.161
 7944NA      NA25658   4.313   5.116   6.133
 7945NA      NA25659   4.231  10.430   8.347
 7946NA      NA25660   3.656   8.982  10.450
 7947NA      NA25661   3.266   5.553   7.765
 7948NA      NA25662   5.147   6.516   7.898
 7949NA      NA25663   3.664   4.119  11.358
 7950NA      NA25664   3.532   6.651   7.949
 7951NA      NA25665   4.777   6.069   8.741
 7952NA      NA25666   4.588   9.643  13.115
 7953NA      NA25667   3.886  11.201  10.647
 7954NA      NA25668   3.626   8.429  11.465
 7955NA      NA25669   4.838   6.239   9.858
 7956NA      NA25670  13.908   7.286   0.892
 7957NA      NA25671   8.959  14.542   2.761
 7958NA      NA25672   2.955   4.961   8.415
 7959NA      NA25673   1.839   7.382  10.842
 7960NA      NA25674   5.537   9.376  10.468
 7961NA      NA25675   1.934   7.609   8.332
 7962NA      NA25676   4.895   7.481   9.865
 7963NA      NA25677   1.868   7.018  10.247
 7964NA      NA25678   6.242   9.449   5.193
 7965NA      NA25679   4.537  10.202  12.380
 7966NA      NA25680  10.655  11.049   4.315
 7967NA      NA25681  12.561   3.713  12.089
 7968NA      NA25682   7.988   1.164   0.676
 7969NA      NA25683   4.163   5.744   8.639
 7970NA      NA25684   4.234   5.281   7.493
 7971NA      NA25685   4.858   9.139  10.977
 7972NA      NA25686   6.014  11.709   9.717
 7973NA      NA25687   4.018   6.579   7.202
 7974NA      NA25688   6.191  10.807  12.117
 7975NA      NA25689  12.647   6.639   0.239
 7976NA      NA25690   3.996   6.860   9.589
 7977NA      NA25691   1.637   4.628   7.168
 7978NA      NA25692  11.355   5.079   0.778
 7979NA      NA25693   4.008  14.441  10.349
 7980NA      NA25694   1.991  10.336   0.255
 7981NA      NA25695   4.825   7.244  10.106
 7982NA      NA25696   1.684   7.703  12.699
 7983NA      NA25697   1.770  12.373   4.220
 7984NA      NA25698   3.679   1.539   3.015
 7985NA      NA25699   1.407   1.277   0.715
 7986NA      NA25700  12.426  10.282   9.154
 7987NA      NA25701   5.313  10.852  14.062
 7988NA      NA25702   4.379   8.848  12.385
 7989NA      NA25703   4.956   8.587   8.515
 7990NA      NA25704   3.400   7.827  10.622
 7991NA      NA25705   6.808  13.511   0.125
 7992NA      NA25706   2.403  12.704   9.036
 7993NA      NA25707   3.331   5.629   6.400
 7994NA      NA25708   4.494   8.052   3.108
 7995NA      NA25709   3.193   8.907  10.045
 7996NA      NA25710   4.398   7.084   8.611
 7997NA      NA25711   1.541   6.633  10.845
 7998NA      NA25712   4.432   4.282   8.506
 7999NA      NA25713   1.695   5.409   5.853
  14.88193  14.88193  14.88193
